Protein in water t=   0.00000 step= 0
325731
    1DC5    H5T    1   9.016   7.088   1.868
    1DC5    O5'    2   9.071   7.112   1.948
    1DC5    C5'    3   9.145   7.225   1.918
    1DC5   H5'1    4   9.173   7.226   1.812
    1DC5   H5'2    5   9.243   7.226   1.961
    1DC5    C4'    6   9.070   7.356   1.943
    1DC5    H4'    7   9.142   7.440   1.921
    1DC5    O4'    8   8.953   7.366   1.858
    1DC5    C1'    9   8.850   7.429   1.934
    1DC5    H1'   10   8.863   7.536   1.934
    1DC5     N1   11   8.718   7.383   1.890
    1DC5     C6   12   8.682   7.256   1.888
    1DC5     H6   13   8.755   7.182   1.916
    1DC5     C5   14   8.562   7.226   1.833
    1DC5     H5   15   8.533   7.122   1.818
    1DC5     C4   16   8.481   7.329   1.777
    1DC5     N4   17   8.365   7.307   1.728
    1DC5    H41   18   8.314   7.376   1.673
    1DC5    H42   19   8.341   7.210   1.727
    1DC5     N3   20   8.514   7.458   1.788
    1DC5     C2   21   8.637   7.483   1.839
    1DC5     O2   22   8.668   7.604   1.825
    1DC5    C3'   23   9.024   7.376   2.084
    1DC5    H3'   24   9.072   7.306   2.152
    1DC5    C2'   25   8.873   7.375   2.076
    1DC5   H2'1   26   8.837   7.274   2.084
    1DC5   H2'2   27   8.828   7.445   2.147
    1DC5    O3'   28   9.062   7.513   2.130
    2DG       P   29   9.040   7.568   2.276
    2DG     O1P   30   9.161   7.638   2.314
    2DG     O2P   31   8.979   7.464   2.360
    2DG     O5'   32   8.919   7.671   2.274
    2DG     C5'   33   8.940   7.801   2.215
    2DG    H5'1   34   8.957   7.784   2.110
    2DG    H5'2   35   9.031   7.839   2.263
    2DG     C4'   36   8.827   7.903   2.239
    2DG     H4'   37   8.863   8.000   2.200
    2DG     O4'   38   8.708   7.864   2.164
    2DG     C1'   39   8.599   7.826   2.253
    2DG     H1'   40   8.524   7.906   2.264
    2DG      N9   41   8.540   7.699   2.198
    2DG      C8   42   8.591   7.574   2.194
    2DG      H8   43   8.694   7.565   2.221
    2DG      N7   44   8.507   7.481   2.153
    2DG      C5   45   8.394   7.558   2.125
    2DG      C6   46   8.271   7.523   2.064
    2DG      O6   47   8.232   7.412   2.020
    2DG      N1   48   8.180   7.619   2.057
    2DG      H1   49   8.091   7.599   2.021
    2DG      C2   50   8.208   7.747   2.082
    2DG      N2   51   8.107   7.828   2.073
    2DG     H21   52   8.021   7.790   2.031
    2DG     H22   53   8.115   7.929   2.058
    2DG      N3   54   8.331   7.795   2.117
    2DG      C4   55   8.421   7.690   2.138
    2DG     C3'   56   8.783   7.903   2.388
    2DG     H3'   57   8.862   7.863   2.454
    2DG     C2'   58   8.665   7.805   2.392
    2DG    H2'1   59   8.709   7.710   2.411
    2DG    H2'2   60   8.596   7.828   2.473
    2DG     O3'   61   8.752   8.037   2.436
    3DC       P   62   8.699   8.072   2.588
    3DC     O1P   63   8.721   8.212   2.611
    3DC     O2P   64   8.754   7.982   2.691
    3DC     O5'   65   8.542   8.049   2.572
    3DC     C5'   66   8.471   8.120   2.473
    3DC    H5'1   67   8.496   8.102   2.369
    3DC    H5'2   68   8.482   8.222   2.493
    3DC     C4'   69   8.321   8.086   2.485
    3DC     H4'   70   8.269   8.174   2.453
    3DC     O4'   71   8.290   7.966   2.412
    3DC     C1'   72   8.236   7.872   2.507
    3DC     H1'   73   8.128   7.898   2.506
    3DC      N1   74   8.257   7.731   2.474
    3DC      C6   75   8.363   7.658   2.515
    3DC      H6   76   8.443   7.710   2.575
    3DC      C5   77   8.372   7.528   2.483
    3DC      H5   78   8.455   7.467   2.517
    3DC      C4   79   8.267   7.470   2.409
    3DC      N4   80   8.258   7.340   2.405
    3DC     H41   81   8.178   7.295   2.359
    3DC     H42   82   8.328   7.276   2.435
    3DC      N3   83   8.163   7.537   2.370
    3DC      C2   84   8.159   7.668   2.399
    3DC      O2   85   8.054   7.729   2.365
    3DC     C3'   86   8.276   8.059   2.627
    3DC     H3'   87   8.335   8.121   2.700
    3DC     C2'   88   8.294   7.912   2.641
    3DC    H2'1   89   8.401   7.887   2.657
    3DC    H2'2   90   8.225   7.875   2.719
    3DC     O3'   91   8.139   8.097   2.638
    4DA       P   92   8.097   8.227   2.710
    4DA     O1P   93   8.121   8.345   2.623
    4DA     O2P   94   8.158   8.219   2.847
    4DA     O5'   95   7.946   8.196   2.726
    4DA     C5'   96   7.853   8.244   2.624
    4DA    H5'1   97   7.902   8.223   2.524
    4DA    H5'2   98   7.818   8.340   2.643
    4DA     C4'   99   7.732   8.152   2.622
    4DA     H4'  100   7.659   8.199   2.558
    4DA     O4'  101   7.768   8.027   2.571
    4DA     C1'  102   7.723   7.927   2.662
    4DA     H1'  103   7.624   7.883   2.634
    4DA      N9  104   7.825   7.827   2.668
    4DA      C8  105   7.952   7.839   2.718
    4DA      H8  106   7.985   7.935   2.762
    4DA      N7  107   8.024   7.725   2.727
    4DA      C5  108   7.937   7.632   2.664
    4DA      C6  109   7.945   7.495   2.622
    4DA      N6  110   8.042   7.413   2.653
    4DA     H61  111   8.025   7.323   2.621
    4DA     H62  112   8.140   7.441   2.683
    4DA      N1  113   7.850   7.436   2.554
    4DA      C2  114   7.737   7.506   2.532
    4DA      H2  115   7.651   7.456   2.486
    4DA      N3  116   7.716   7.634   2.556
    4DA      C4  117   7.819   7.695   2.619
    4DA     C3'  118   7.661   8.134   2.759
    4DA     H3'  119   7.696   8.200   2.836
    4DA     C2'  120   7.703   7.995   2.795
    4DA    H2'1  121   7.799   7.991   2.859
    4DA    H2'2  122   7.630   7.930   2.851
    4DA     O3'  123   7.520   8.156   2.734
    5DT       P  124   7.400   8.122   2.828
    5DT     O1P  125   7.298   8.213   2.775
    5DT     O2P  126   7.448   8.138   2.966
    5DT     O5'  127   7.363   7.971   2.793
    5DT     C5'  128   7.288   7.936   2.680
    5DT    H5'1  129   7.342   7.977   2.593
    5DT    H5'2  130   7.185   7.969   2.682
    5DT     C4'  131   7.281   7.775   2.666
    5DT     H4'  132   7.227   7.752   2.575
    5DT     O4'  133   7.405   7.705   2.671
    5DT     C1'  134   7.388   7.594   2.754
    5DT     H1'  135   7.351   7.512   2.685
    5DT      N1  136   7.513   7.545   2.822
    5DT      C6  137   7.585   7.625   2.909
    5DT      H6  138   7.541   7.715   2.934
    5DT      C5  139   7.703   7.589   2.970
    5DT      C7  140   7.772   7.688   3.055
    5DT     H71  141   7.780   7.651   3.159
    5DT     H72  142   7.876   7.679   3.029
    5DT     H73  143   7.741   7.789   3.045
    5DT      C4  144   7.753   7.456   2.937
    5DT      O4  145   7.854   7.405   2.980
    5DT      N3  146   7.676   7.380   2.848
    5DT      H3  147   7.716   7.289   2.828
    5DT      C2  148   7.556   7.413   2.795
    5DT      O2  149   7.494   7.335   2.727
    5DT     C3'  150   7.188   7.725   2.783
    5DT     H3'  151   7.153   7.805   2.841
    5DT     C2'  152   7.283   7.629   2.860
    5DT    H2'1  153   7.325   7.672   2.954
    5DT    H2'2  154   7.214   7.547   2.874
    5DT     O3'  155   7.072   7.649   2.726
    6DG       P  156   6.942   7.607   2.808
    6DG     O1P  157   6.829   7.607   2.711
    6DG     O2P  158   6.926   7.682   2.937
    6DG     O5'  159   6.966   7.453   2.850
    6DG     C5'  160   6.992   7.358   2.750
    6DG    H5'1  161   7.067   7.395   2.682
    6DG    H5'2  162   6.895   7.351   2.713
    6DG     C4'  163   7.031   7.224   2.809
    6DG     H4'  164   7.031   7.142   2.739
    6DG     O4'  165   7.165   7.241   2.842
    6DG     C1'  166   7.183   7.154   2.956
    6DG     H1'  167   7.195   7.049   2.935
    6DG      N9  168   7.299   7.182   3.029
    6DG      C8  169   7.343   7.304   3.074
    6DG      H8  170   7.286   7.397   3.072
    6DG      N7  171   7.469   7.315   3.119
    6DG      C5  172   7.506   7.176   3.112
    6DG      C6  173   7.626   7.107   3.143
    6DG      O6  174   7.726   7.156   3.197
    6DG      N1  175   7.628   6.972   3.113
    6DG      H1  176   7.708   6.917   3.139
    6DG      C2  177   7.519   6.907   3.061
    6DG      N2  178   7.525   6.778   3.034
    6DG     H21  179   7.610   6.724   3.036
    6DG     H22  180   7.438   6.731   3.017
    6DG      N3  181   7.402   6.966   3.028
    6DG      C4  182   7.404   7.101   3.052
    6DG     C3'  183   6.949   7.170   2.933
    6DG     H3'  184   6.868   7.238   2.967
    6DG     C2'  185   7.064   7.181   3.035
    6DG    H2'1  186   7.066   7.284   3.076
    6DG    H2'2  187   7.057   7.107   3.116
    6DG     O3'  188   6.919   7.034   2.913
    7DT       P  189   6.851   6.928   3.014
    7DT     O1P  190   6.746   6.859   2.933
    7DT     O2P  191   6.813   6.985   3.143
    7DT     O5'  192   6.958   6.816   3.049
    7DT     C5'  193   7.018   6.731   2.954
    7DT    H5'1  194   7.098   6.773   2.902
    7DT    H5'2  195   6.940   6.707   2.885
    7DT     C4'  196   7.084   6.608   3.015
    7DT     H4'  197   7.121   6.532   2.944
    7DT     O4'  198   7.200   6.668   3.075
    7DT     C1'  199   7.213   6.619   3.204
    7DT     H1'  200   7.274   6.526   3.203
    7DT      N1  201   7.277   6.716   3.286
    7DT      C6  202   7.219   6.843   3.296
    7DT      H6  203   7.121   6.869   3.262
    7DT      C5  204   7.290   6.940   3.350
    7DT      C7  205   7.226   7.075   3.366
    7DT     H71  206   7.282   7.143   3.298
    7DT     H72  207   7.121   7.073   3.335
    7DT     H73  208   7.241   7.109   3.461
    7DT      C4  209   7.421   6.925   3.398
    7DT      O4  210   7.495   7.015   3.450
    7DT      N3  211   7.477   6.797   3.388
    7DT      H3  212   7.572   6.773   3.408
    7DT      C2  213   7.408   6.692   3.324
    7DT      O2  214   7.467   6.587   3.301
    7DT     C3'  215   7.010   6.524   3.127
    7DT     H3'  216   6.902   6.536   3.121
    7DT     C2'  217   7.068   6.592   3.250
    7DT    H2'1  218   7.002   6.675   3.265
    7DT    H2'2  219   7.075   6.535   3.349
    7DT     O3'  220   7.046   6.388   3.122
    8DG       P  221   6.964   6.281   3.197
    8DG     O1P  222   6.985   6.154   3.123
    8DG     O2P  223   6.826   6.339   3.221
    8DG     O5'  224   7.031   6.269   3.346
    8DG     C5'  225   7.163   6.226   3.371
    8DG    H5'1  226   7.230   6.274   3.302
    8DG    H5'2  227   7.170   6.119   3.357
    8DG     C4'  228   7.200   6.260   3.518
    8DG     H4'  229   7.284   6.198   3.546
    8DG     O4'  230   7.242   6.401   3.529
    8DG     C1'  231   7.192   6.449   3.651
    8DG     H1'  232   7.252   6.411   3.731
    8DG      N9  233   7.201   6.597   3.645
    8DG      C8  234   7.109   6.697   3.616
    8DG      H8  235   7.012   6.679   3.584
    8DG      N7  236   7.148   6.822   3.653
    8DG      C5  237   7.282   6.797   3.682
    8DG      C6  238   7.387   6.890   3.721
    8DG      O6  239   7.378   7.011   3.740
    8DG      N1  240   7.512   6.833   3.748
    8DG      H1  241   7.591   6.893   3.769
    8DG      C2  242   7.527   6.697   3.750
    8DG      N2  243   7.657   6.666   3.761
    8DG     H21  244   7.724   6.734   3.788
    8DG     H22  245   7.682   6.573   3.742
    8DG      N3  246   7.434   6.611   3.701
    8DG      C4  247   7.315   6.665   3.675
    8DG     C3'  248   7.091   6.237   3.632
    8DG     H3'  249   7.006   6.174   3.600
    8DG     C2'  250   7.051   6.386   3.653
    8DG    H2'1  251   7.000   6.428   3.572
    8DG    H2'2  252   7.014   6.400   3.752
    8DG     O3'  253   7.135   6.177   3.753
    9DC       P  254   7.125   6.009   3.763
    9DC     O1P  255   7.167   5.954   3.631
    9DC     O2P  256   6.988   5.967   3.815
    9DC     O5'  257   7.243   5.951   3.876
    9DC     C5'  258   7.381   5.923   3.830
    9DC    H5'1  259   7.399   5.948   3.724
    9DC    H5'2  260   7.401   5.822   3.848
    9DC     C4'  261   7.482   6.007   3.913
    9DC     H4'  262   7.585   5.964   3.890
    9DC     O4'  263   7.470   6.150   3.887
    9DC     C1'  264   7.465   6.220   4.016
    9DC     H1'  265   7.567   6.239   4.054
    9DC      N1  266   7.408   6.358   4.012
    9DC      C6  267   7.269   6.377   4.000
    9DC      H6  268   7.206   6.300   3.973
    9DC      C5  269   7.218   6.500   4.019
    9DC      H5  270   7.112   6.520   4.007
    9DC      C4  271   7.306   6.609   4.042
    9DC      N4  272   7.259   6.729   4.065
    9DC     H41  273   7.326   6.805   4.079
    9DC     H42  274   7.165   6.740   4.097
    9DC      N3  275   7.432   6.589   4.057
    9DC      C2  276   7.487   6.468   4.042
    9DC      O2  277   7.613   6.467   4.053
    9DC     C3'  278   7.462   5.986   4.065
    9DC     H3'  279   7.412   5.885   4.091
    9DC     C2'  280   7.394   6.117   4.099
    9DC    H2'1  281   7.286   6.117   4.081
    9DC    H2'2  282   7.411   6.146   4.208
    9DC     O3'  283   7.591   6.002   4.120
   10DG       P  284   7.661   5.902   4.225
   10DG     O1P  285   7.738   5.807   4.143
   10DG     O2P  286   7.556   5.846   4.312
   10DG     O5'  287   7.753   5.992   4.315
   10DG     C5'  288   7.893   6.011   4.288
   10DG    H5'1  289   7.946   5.926   4.321
   10DG    H5'2  290   7.904   6.030   4.178
   10DG     C4'  291   7.946   6.137   4.367
   10DG     H4'  292   8.053   6.150   4.346
   10DG     O4'  293   7.891   6.256   4.316
   10DG     C1'  294   7.854   6.336   4.421
   10DG     H1'  295   7.915   6.421   4.446
   10DG      N9  296   7.714   6.376   4.395
   10DG      C8  297   7.607   6.305   4.359
   10DG      H8  298   7.622   6.200   4.341
   10DG      N7  299   7.492   6.367   4.350
   10DG      C5  300   7.531   6.498   4.392
   10DG      C6  301   7.464   6.622   4.418
   10DG      O6  302   7.347   6.653   4.401
   10DG      N1  303   7.548   6.730   4.444
   10DG      H1  304   7.505   6.814   4.452
   10DG      C2  305   7.684   6.723   4.471
   10DG      N2  306   7.744   6.837   4.511
   10DG     H21  307   7.687   6.922   4.520
   10DG     H22  308   7.840   6.828   4.552
   10DG      N3  309   7.744   6.605   4.464
   10DG      C4  310   7.667   6.504   4.417
   10DG     C3'  311   7.933   6.126   4.514
   10DG     H3'  312   7.881   6.036   4.546
   10DG     C2'  313   7.849   6.253   4.552
   10DG    H2'1  314   7.748   6.224   4.585
   10DG    H2'2  315   7.898   6.305   4.635
   10DG     O3'  316   8.062   6.148   4.575
   11DT       P  317   8.090   6.109   4.730
   11DT     O1P  318   8.232   6.074   4.748
   11DT     O2P  319   7.988   6.017   4.788
   11DT     O5'  320   8.066   6.245   4.812
   11DT     C5'  321   8.147   6.360   4.821
   11DT    H5'1  322   8.160   6.401   4.720
   11DT    H5'2  323   8.248   6.318   4.854
   11DT     C4'  324   8.085   6.471   4.905
   11DT     H4'  325   8.155   6.556   4.917
   11DT     O4'  326   7.971   6.517   4.835
   11DT     C1'  327   7.871   6.541   4.928
   11DT     H1'  328   7.890   6.634   4.977
   11DT      N1  329   7.739   6.539   4.854
   11DT      C6  330   7.684   6.422   4.809
   11DT      H6  331   7.741   6.333   4.829
   11DT      C5  332   7.562   6.418   4.754
   11DT      C7  333   7.510   6.272   4.714
   11DT     H71  334   7.584   6.193   4.726
   11DT     H72  335   7.415   6.257   4.767
   11DT     H73  336   7.467   6.280   4.617
   11DT      C4  337   7.479   6.543   4.738
   11DT      O4  338   7.360   6.555   4.691
   11DT      N3  339   7.550   6.658   4.772
   11DT      H3  340   7.498   6.744   4.783
   11DT      C2  341   7.678   6.662   4.819
   11DT      O2  342   7.741   6.767   4.842
   11DT     C3'  343   8.049   6.435   5.047
   11DT     H3'  344   8.094   6.343   5.081
   11DT     C2'  345   7.894   6.421   5.030
   11DT    H2'1  346   7.877   6.330   4.985
   11DT    H2'2  347   7.835   6.426   5.120
   11DT     O3'  348   8.079   6.547   5.127
   12DA       P  349   8.182   6.548   5.244
   12DA     O1P  350   8.318   6.519   5.190
   12DA     O2P  351   8.129   6.467   5.355
   12DA     O5'  352   8.176   6.700   5.287
   12DA     C5'  353   8.212   6.795   5.192
   12DA    H5'1  354   8.191   6.762   5.090
   12DA    H5'2  355   8.317   6.802   5.190
   12DA     C4'  356   8.135   6.924   5.205
   12DA     H4'  357   8.186   7.009   5.157
   12DA     O4'  358   8.003   6.917   5.156
   12DA     C1'  359   7.899   6.916   5.250
   12DA     H1'  360   7.839   7.019   5.249
   12DA      N9  361   7.800   6.805   5.219
   12DA      C8  362   7.803   6.671   5.253
   12DA      H8  363   7.893   6.629   5.290
   12DA      N7  364   7.693   6.608   5.218
   12DA      C5  365   7.608   6.708   5.171
   12DA      C6  366   7.476   6.711   5.118
   12DA      N6  367   7.406   6.601   5.092
   12DA     H61  368   7.308   6.618   5.071
   12DA     H62  369   7.434   6.509   5.117
   12DA      N1  370   7.415   6.824   5.089
   12DA      C2  371   7.488   6.929   5.092
   12DA      H2  372   7.446   7.029   5.071
   12DA      N3  373   7.617   6.940   5.121
   12DA      C4  374   7.673   6.827   5.168
   12DA     C3'  375   8.112   6.962   5.351
   12DA     H3'  376   8.186   6.921   5.415
   12DA     C2'  377   7.973   6.904   5.380
   12DA    H2'1  378   7.983   6.798   5.404
   12DA    H2'2  379   7.923   6.952   5.469
   12DA     O3'  380   8.113   7.110   5.352
   13DT       P  381   8.103   7.190   5.484
   13DT     O1P  382   8.182   7.313   5.461
   13DT     O2P  383   8.136   7.099   5.601
   13DT     O5'  384   7.949   7.218   5.490
   13DT     C5'  385   7.878   7.280   5.384
   13DT    H5'1  386   7.913   7.235   5.289
   13DT    H5'2  387   7.894   7.391   5.389
   13DT     C4'  388   7.723   7.271   5.403
   13DT     H4'  389   7.677   7.347   5.331
   13DT     O4'  390   7.675   7.146   5.370
   13DT     C1'  391   7.558   7.134   5.448
   13DT     H1'  392   7.486   7.199   5.403
   13DT      N1  393   7.510   6.992   5.459
   13DT      C6  394   7.588   6.887   5.502
   13DT      H6  395   7.686   6.907   5.541
   13DT      C5  396   7.545   6.758   5.501
   13DT      C7  397   7.636   6.641   5.544
   13DT     H71  398   7.741   6.665   5.522
   13DT     H72  399   7.624   6.628   5.653
   13DT     H73  400   7.632   6.550   5.475
   13DT      C4  401   7.410   6.733   5.456
   13DT      O4  402   7.362   6.617   5.444
   13DT      N3  403   7.337   6.846   5.419
   13DT      H3  404   7.242   6.827   5.373
   13DT      C2  405   7.378   6.972   5.425
   13DT      O2  406   7.293   7.061   5.401
   13DT     C3'  407   7.683   7.302   5.546
   13DT     H3'  408   7.774   7.308   5.612
   13DT     C2'  409   7.593   7.191   5.587
   13DT    H2'1  410   7.654   7.114   5.630
   13DT    H2'2  411   7.518   7.218   5.648
   13DT     O3'  412   7.624   7.434   5.542
   14DT       P  413   7.555   7.508   5.666
   14DT     O1P  414   7.585   7.652   5.647
   14DT     O2P  415   7.587   7.442   5.793
   14DT     O5'  416   7.401   7.489   5.643
   14DT     C5'  417   7.336   7.532   5.520
   14DT    H5'1  418   7.379   7.493   5.430
   14DT    H5'2  419   7.343   7.638   5.516
   14DT     C4'  420   7.181   7.493   5.521
   14DT     H4'  421   7.134   7.531   5.432
   14DT     O4'  422   7.154   7.349   5.525
   14DT     C1'  423   7.102   7.310   5.646
   14DT     H1'  424   6.990   7.298   5.643
   14DT      N1  425   7.159   7.181   5.690
   14DT      C6  426   7.275   7.169   5.768
   14DT      H6  427   7.331   7.250   5.805
   14DT      C5  428   7.328   7.044   5.801
   14DT      C7  429   7.447   7.035   5.891
   14DT     H71  430   7.476   7.139   5.922
   14DT     H72  431   7.422   6.972   5.979
   14DT     H73  432   7.536   6.986   5.842
   14DT      C4  433   7.245   6.924   5.762
   14DT      O4  434   7.268   6.804   5.790
   14DT      N3  435   7.125   6.952   5.699
   14DT      H3  436   7.066   6.873   5.681
   14DT      C2  437   7.080   7.076   5.664
   14DT      O2  438   6.977   7.085   5.596
   14DT     C3'  439   7.104   7.543   5.647
   14DT     H3'  440   7.153   7.629   5.684
   14DT     C2'  441   7.113   7.428   5.741
   14DT    H2'1  442   7.202   7.419   5.795
   14DT    H2'2  443   7.035   7.427   5.813
   14DT     O3'  444   6.970   7.585   5.616
   15DA       P  445   6.885   7.672   5.722
   15DA     O1P  446   6.770   7.729   5.646
   15DA     O2P  447   6.977   7.757   5.793
   15DA     O5'  448   6.831   7.566   5.822
   15DA     C5'  449   6.727   7.466   5.789
   15DA    H5'1  450   6.754   7.421   5.695
   15DA    H5'2  451   6.629   7.516   5.777
   15DA     C4'  452   6.717   7.366   5.902
   15DA     H4'  453   6.616   7.314   5.889
   15DA     O4'  454   6.824   7.266   5.893
   15DA     C1'  455   6.844   7.231   6.028
   15DA     H1'  456   6.759   7.176   6.078
   15DA      N9  457   6.970   7.151   6.047
   15DA      C8  458   7.101   7.188   6.089
   15DA      H8  459   7.133   7.288   6.102
   15DA      N7  460   7.179   7.086   6.110
   15DA      C5  461   7.101   6.973   6.079
   15DA      C6  462   7.129   6.834   6.069
   15DA      N6  463   7.238   6.767   6.106
   15DA     H61  464   7.226   6.669   6.104
   15DA     H62  465   7.317   6.807   6.149
   15DA      N1  466   7.023   6.753   6.045
   15DA      C2  467   6.904   6.801   6.016
   15DA      H2  468   6.829   6.728   5.998
   15DA      N3  469   6.870   6.930   6.002
   15DA      C4  470   6.972   7.014   6.038
   15DA     C3'  471   6.727   7.428   6.042
   15DA     H3'  472   6.755   7.537   6.054
   15DA     C2'  473   6.853   7.365   6.097
   15DA    H2'1  474   6.942   7.421   6.062
   15DA    H2'2  475   6.850   7.353   6.204
   15DA     O3'  476   6.626   7.405   6.139
   16DT       P  477   6.499   7.482   6.146
   16DT     O1P  478   6.471   7.538   6.014
   16DT     O2P  479   6.498   7.577   6.256
   16DT     O5'  480   6.391   7.366   6.185
   16DT     C5'  481   6.352   7.276   6.082
   16DT    H5'1  482   6.415   7.286   5.990
   16DT    H5'2  483   6.251   7.296   6.054
   16DT     C4'  484   6.358   7.127   6.123
   16DT     H4'  485   6.304   7.084   6.039
   16DT     O4'  486   6.497   7.079   6.115
   16DT     C1'  487   6.504   6.963   6.195
   16DT     H1'  488   6.477   6.876   6.128
   16DT      N1  489   6.642   6.945   6.255
   16DT      C6  490   6.718   7.055   6.304
   16DT      H6  491   6.672   7.159   6.300
   16DT      C5  492   6.835   7.031   6.367
   16DT      C7  493   6.907   7.147   6.436
   16DT     H71  494   6.933   7.116   6.535
   16DT     H72  495   6.994   7.171   6.382
   16DT     H73  496   6.843   7.239   6.437
   16DT      C4  497   6.893   6.904   6.375
   16DT      O4  498   7.011   6.882   6.421
   16DT      N3  499   6.812   6.800   6.330
   16DT      H3  500   6.844   6.709   6.359
   16DT      C2  501   6.688   6.813   6.281
   16DT      O2  502   6.618   6.712   6.269
   16DT     C3'  503   6.301   7.075   6.256
   16DT     H3'  504   6.297   7.160   6.326
   16DT     C2'  505   6.401   6.968   6.306
   16DT    H2'1  506   6.446   7.007   6.401
   16DT    H2'2  507   6.354   6.867   6.312
   16DT     O3'  508   6.163   7.025   6.251
   17DA       P  509   6.074   7.000   6.380
   17DA     O1P  510   5.932   6.996   6.344
   17DA     O2P  511   6.118   7.093   6.483
   17DA     O5'  512   6.114   6.851   6.433
   17DA     C5'  513   6.084   6.732   6.361
   17DA    H5'1  514   6.143   6.727   6.265
   17DA    H5'2  515   5.984   6.730   6.325
   17DA     C4'  516   6.090   6.600   6.451
   17DA     H4'  517   6.030   6.531   6.384
   17DA     O4'  518   6.222   6.559   6.472
   17DA     C1'  519   6.256   6.611   6.602
   17DA     H1'  520   6.272   6.521   6.663
   17DA      N9  521   6.379   6.692   6.615
   17DA      C8  522   6.391   6.824   6.626
   17DA      H8  523   6.311   6.896   6.619
   17DA      N7  524   6.510   6.868   6.627
   17DA      C5  525   6.590   6.753   6.623
   17DA      C6  526   6.729   6.716   6.633
   17DA      N6  527   6.834   6.797   6.649
   17DA     H61  528   6.928   6.756   6.645
   17DA     H62  529   6.829   6.897   6.671
   17DA      N1  530   6.763   6.592   6.613
   17DA      C2  531   6.667   6.500   6.620
   17DA      H2  532   6.714   6.395   6.630
   17DA      N3  533   6.534   6.512   6.634
   17DA      C4  534   6.506   6.645   6.617
   17DA     C3'  535   6.015   6.628   6.587
   17DA     H3'  536   5.946   6.710   6.570
   17DA     C2'  537   6.135   6.665   6.672
   17DA    H2'1  538   6.135   6.772   6.671
   17DA    H2'2  539   6.126   6.636   6.779
   17DA     O3'  540   5.939   6.511   6.614
   18DC       P  541   5.880   6.465   6.755
   18DC     O1P  542   5.772   6.367   6.729
   18DC     O2P  543   5.845   6.588   6.827
   18DC     O5'  544   5.999   6.392   6.836
   18DC     C5'  545   6.031   6.257   6.802
   18DC    H5'1  546   6.063   6.249   6.702
   18DC    H5'2  547   5.940   6.201   6.802
   18DC     C4'  548   6.151   6.198   6.890
   18DC     H4'  549   6.161   6.097   6.847
   18DC     O4'  550   6.271   6.274   6.861
   18DC     C1'  551   6.312   6.324   6.991
   18DC     H1'  552   6.378   6.247   7.032
   18DC      N1  553   6.397   6.446   6.992
   18DC      C6  554   6.333   6.565   6.962
   18DC      H6  555   6.223   6.563   6.954
   18DC      C5  556   6.406   6.675   6.934
   18DC      H5  557   6.353   6.760   6.913
   18DC      C4  558   6.552   6.658   6.943
   18DC      N4  559   6.632   6.757   6.930
   18DC     H41  560   6.729   6.749   6.944
   18DC     H42  561   6.586   6.844   6.941
   18DC      N3  562   6.610   6.551   6.980
   18DC      C2  563   6.535   6.440   7.001
   18DC      O2  564   6.593   6.331   7.020
   18DC     C3'  565   6.125   6.198   7.047
   18DC     H3'  566   6.017   6.204   7.076
   18DC     C2'  567   6.186   6.337   7.086
   18DC    H2'1  568   6.119   6.417   7.065
   18DC    H2'2  569   6.216   6.341   7.188
   18DC     O3'  570   6.193   6.082   7.110
   19DA       P  571   6.128   6.033   7.250
   19DA     O1P  572   6.063   5.899   7.227
   19DA     O2P  573   6.053   6.142   7.315
   19DA     O5'  574   6.260   6.009   7.334
   19DA     C5'  575   6.343   5.901   7.288
   19DA    H5'1  576   6.347   5.898   7.175
   19DA    H5'2  577   6.300   5.808   7.315
   19DA     C4'  578   6.487   5.905   7.345
   19DA     H4'  579   6.531   5.816   7.307
   19DA     O4'  580   6.544   6.016   7.286
   19DA     C1'  581   6.590   6.106   7.394
   19DA     H1'  582   6.702   6.095   7.406
   19DA      N9  583   6.553   6.250   7.367
   19DA      C8  584   6.423   6.302   7.356
   19DA      H8  585   6.338   6.241   7.361
   19DA      N7  586   6.421   6.434   7.350
   19DA      C5  587   6.557   6.470   7.358
   19DA      C6  588   6.640   6.588   7.351
   19DA      N6  589   6.598   6.707   7.323
   19DA     H61  590   6.669   6.774   7.296
   19DA     H62  591   6.504   6.733   7.335
   19DA      N1  592   6.771   6.586   7.359
   19DA      C2  593   6.826   6.467   7.378
   19DA      H2  594   6.936   6.466   7.375
   19DA      N3  595   6.774   6.347   7.383
   19DA      C4  596   6.638   6.357   7.372
   19DA     C3'  597   6.495   5.906   7.499
   19DA     H3'  598   6.407   5.879   7.539
   19DA     C2'  599   6.510   6.057   7.519
   19DA    H2'1  600   6.415   6.100   7.520
   19DA    H2'2  601   6.562   6.082   7.611
   19DA     O3'  602   6.601   5.823   7.549
   20DD       P  603   6.643   5.820   7.699
   20DD     O1P  604   6.736   5.707   7.714
   20DD     O2P  605   6.533   5.826   7.788
   20DD     O5'  606   6.729   5.952   7.714
   20DD     C5'  607   6.862   5.961   7.647
   20DD    H5'1  608   6.852   5.986   7.539
   20DD    H5'2  609   6.917   5.866   7.657
   20DD     C4'  610   6.939   6.066   7.727
   20DD     H4'  611   7.046   6.079   7.695
   20DD     O4'  612   6.883   6.185   7.702
   20DD     C1'  613   6.888   6.265   7.816
   20DD     H1'  614   6.989   6.293   7.853
   20DD      N1  615   6.806   6.389   7.801
   20DD      C6  616   6.691   6.409   7.899
   20DD      H6  617   6.650   6.320   7.945
   20DD      C5  618   6.568   6.480   7.837
   20DD      C7  619   6.456   6.385   7.803
   20DD     H71  620   6.457   6.355   7.694
   20DD     H72  621   6.465   6.292   7.859
   20DD     H73  622   6.363   6.430   7.820
   20DD      C4  623   6.610   6.555   7.703
   20DD      O4  624   6.528   6.623   7.641
   20DD      N3  625   6.739   6.558   7.663
   20DD      H3  626   6.763   6.627   7.594
   20DD      C2  627   6.842   6.490   7.718
   20DD      O2  628   6.962   6.516   7.693
   20DD     C3'  629   6.931   6.047   7.878
   20DD     H3'  630   6.878   5.951   7.896
   20DD     C2'  631   6.843   6.164   7.923
   20DD    H2'1  632   6.742   6.138   7.902
   20DD    H2'2  633   6.845   6.196   8.026
   20DD     O3'  634   7.071   6.059   7.926
   21DD       P  635   7.099   6.065   8.083
   21DD     O1P  636   7.245   6.022   8.102
   21DD     O2P  637   6.996   5.998   8.160
   21DD     O5'  638   7.093   6.221   8.117
   21DD     C5'  639   7.187   6.313   8.083
   21DD    H5'1  640   7.227   6.291   7.987
   21DD    H5'2  641   7.269   6.300   8.156
   21DD     C4'  642   7.128   6.460   8.077
   21DD     H4'  643   7.189   6.516   8.013
   21DD     O4'  644   6.995   6.469   8.031
   21DD     C1'  645   6.954   6.601   8.050
   21DD     H1'  646   7.014   6.677   8.001
   21DD      N1  647   6.812   6.625   8.005
   21DD      C6  648   6.705   6.516   8.011
   21DD      H6  649   6.700   6.482   8.114
   21DD      C5  650   6.559   6.569   7.969
   21DD      C7  651   6.461   6.523   8.075
   21DD     H71  652   6.359   6.531   8.035
   21DD     H72  653   6.469   6.420   8.103
   21DD     H73  654   6.455   6.584   8.169
   21DD      C4  655   6.553   6.717   7.938
   21DD      O4  656   6.456   6.777   7.886
   21DD      N3  657   6.651   6.792   7.985
   21DD      H3  658   6.632   6.885   7.954
   21DD      C2  659   6.781   6.758   8.003
   21DD      O2  660   6.861   6.850   8.013
   21DD     C3'  661   7.113   6.527   8.212
   21DD     H3'  662   7.108   6.450   8.288
   21DD     C2'  663   6.982   6.608   8.200
   21DD    H2'1  664   6.908   6.545   8.254
   21DD    H2'2  665   6.988   6.712   8.233
   21DD     O3'  666   7.221   6.612   8.230
   22DG       P  667   7.263   6.674   8.370
   22DG     O1P  668   7.406   6.696   8.359
   22DG     O2P  669   7.214   6.579   8.476
   22DG     O5'  670   7.202   6.818   8.383
   22DG     C5'  671   7.242   6.924   8.294
   22DG    H5'1  672   7.186   6.915   8.198
   22DG    H5'2  673   7.356   6.930   8.280
   22DG     C4'  674   7.224   7.062   8.359
   22DG     H4'  675   7.295   7.126   8.308
   22DG     O4'  676   7.093   7.107   8.334
   22DG     C1'  677   7.010   7.093   8.444
   22DG     H1'  678   6.986   7.198   8.466
   22DG      N9  679   6.889   7.008   8.418
   22DG      C8  680   6.891   6.873   8.414
   22DG      H8  681   6.971   6.813   8.431
   22DG      N7  682   6.768   6.822   8.389
   22DG      C5  683   6.691   6.931   8.351
   22DG      C6  684   6.567   6.946   8.281
   22DG      O6  685   6.484   6.853   8.247
   22DG      N1  686   6.535   7.073   8.253
   22DG      H1  687   6.443   7.092   8.213
   22DG      C2  688   6.611   7.179   8.289
   22DG      N2  689   6.567   7.298   8.263
   22DG     H21  690   6.481   7.319   8.212
   22DG     H22  691   6.629   7.369   8.303
   22DG      N3  692   6.728   7.172   8.349
   22DG      C4  693   6.765   7.044   8.373
   22DG     C3'  694   7.246   7.076   8.508
   22DG     H3'  695   7.315   7.000   8.543
   22DG     C2'  696   7.107   7.041   8.554
   22DG    H2'1  697   7.100   6.937   8.567
   22DG    H2'2  698   7.086   7.096   8.644
   22DG     O3'  699   7.293   7.204   8.543
   23DT       P  700   7.292   7.253   8.692
   23DT     O1P  701   7.388   7.371   8.691
   23DT     O2P  702   7.318   7.144   8.783
   23DT     O5'  703   7.146   7.315   8.729
   23DT     C5'  704   7.115   7.452   8.687
   23DT    H5'1  705   7.140   7.459   8.577
   23DT    H5'2  706   7.182   7.521   8.746
   23DT     C4'  707   6.981   7.512   8.724
   23DT     H4'  708   6.978   7.613   8.696
   23DT     O4'  709   6.880   7.440   8.662
   23DT     C1'  710   6.797   7.374   8.756
   23DT     H1'  711   6.725   7.449   8.754
   23DT      N1  712   6.733   7.251   8.719
   23DT      C6  713   6.776   7.130   8.768
   23DT      H6  714   6.871   7.118   8.818
   23DT      C5  715   6.707   7.019   8.737
   23DT      C7  716   6.771   6.889   8.778
   23DT     H71  717   6.794   6.824   8.692
   23DT     H72  718   6.865   6.911   8.837
   23DT     H73  719   6.700   6.827   8.835
   23DT      C4  720   6.579   7.020   8.668
   23DT      O4  721   6.503   6.931   8.640
   23DT      N3  722   6.545   7.146   8.622
   23DT      H3  723   6.460   7.153   8.574
   23DT      C2  724   6.616   7.259   8.646
   23DT      O2  725   6.570   7.364   8.613
   23DT     C3'  726   6.955   7.500   8.870
   23DT     H3'  727   7.052   7.499   8.924
   23DT     C2'  728   6.879   7.373   8.887
   23DT    H2'1  729   6.948   7.291   8.888
   23DT    H2'2  730   6.821   7.369   8.976
   23DT     O3'  731   6.874   7.601   8.927
   24DA       P  732   6.932   7.743   8.981
   24DA     O1P  733   7.042   7.786   8.881
   24DA     O2P  734   6.954   7.738   9.124
   24DA     O5'  735   6.809   7.846   8.962
   24DA     C5'  736   6.758   7.886   8.832
   24DA    H5'1  737   6.807   7.825   8.757
   24DA    H5'2  738   6.794   7.988   8.819
   24DA     C4'  739   6.604   7.889   8.834
   24DA     H4'  740   6.572   7.956   8.760
   24DA     O4'  741   6.542   7.763   8.817
   24DA     C1'  742   6.489   7.715   8.940
   24DA     H1'  743   6.376   7.736   8.938
   24DA      N9  744   6.511   7.570   8.956
   24DA      C8  745   6.592   7.498   9.042
   24DA      H8  746   6.681   7.542   9.088
   24DA      N7  747   6.570   7.375   9.046
   24DA      C5  748   6.473   7.354   8.952
   24DA      C6  749   6.404   7.237   8.901
   24DA      N6  750   6.438   7.113   8.926
   24DA     H61  751   6.380   7.044   8.878
   24DA     H62  752   6.472   7.103   9.021
   24DA      N1  753   6.306   7.252   8.817
   24DA      C2  754   6.279   7.370   8.767
   24DA      H2  755   6.195   7.371   8.700
   24DA      N3  756   6.334   7.485   8.799
   24DA      C4  757   6.428   7.469   8.896
   24DA     C3'  758   6.547   7.936   8.970
   24DA     H3'  759   6.614   8.011   9.008
   24DA     C2'  760   6.527   7.806   9.051
   24DA    H2'1  761   6.618   7.778   9.103
   24DA    H2'2  762   6.452   7.824   9.123
   24DA     O3'  763   6.420   7.997   8.941
   25DC       P  764   6.327   8.067   9.048
   25DC     O1P  765   6.283   8.192   8.980
   25DC     O2P  766   6.390   8.071   9.181
   25DC     O5'  767   6.215   7.958   9.046
   25DC     C5'  768   6.140   7.925   8.930
   25DC    H5'1  769   6.207   7.917   8.844
   25DC    H5'2  770   6.089   8.022   8.924
   25DC     C4'  771   6.035   7.817   8.936
   25DC     H4'  772   5.960   7.826   8.859
   25DC     O4'  773   6.096   7.689   8.944
   25DC     C1'  774   6.042   7.633   9.057
   25DC     H1'  775   5.940   7.599   9.037
   25DC      N1  776   6.124   7.521   9.108
   25DC      C6  777   6.237   7.541   9.188
   25DC      H6  778   6.272   7.642   9.210
   25DC      C5  779   6.310   7.434   9.233
   25DC      H5  780   6.406   7.453   9.283
   25DC      C4  781   6.259   7.305   9.201
   25DC      N4  782   6.337   7.204   9.223
   25DC     H41  783   6.307   7.110   9.196
   25DC     H42  784   6.417   7.223   9.284
   25DC      N3  785   6.169   7.284   9.110
   25DC      C2  786   6.104   7.390   9.060
   25DC      O2  787   6.012   7.377   8.971
   25DC     C3'  788   5.961   7.838   9.066
   25DC     H3'  789   5.971   7.937   9.108
   25DC     C2'  790   6.027   7.736   9.160
   25DC    H2'1  791   6.123   7.782   9.200
   25DC    H2'2  792   5.976   7.703   9.241
   25DC     O3'  793   5.827   7.802   9.034
   26DG       P  794   5.714   7.879   9.122
   26DG     O1P  795   5.683   8.008   9.060
   26DG     O2P  796   5.766   7.875   9.260
   26DG     O5'  797   5.604   7.777   9.093
   26DG     C5'  798   5.514   7.735   9.200
   26DG    H5'1  799   5.446   7.811   9.228
   26DG    H5'2  800   5.580   7.718   9.279
   26DG     C4'  801   5.439   7.605   9.156
   26DG     H4'  802   5.371   7.628   9.074
   26DG     O4'  803   5.526   7.507   9.104
   26DG     C1'  804   5.549   7.414   9.211
   26DG     H1'  805   5.500   7.318   9.192
   26DG      N9  806   5.695   7.390   9.248
   26DG      C8  807   5.788   7.488   9.262
   26DG      H8  808   5.767   7.589   9.225
   26DG      N7  809   5.902   7.448   9.306
   26DG      C5  810   5.887   7.312   9.326
   26DG      C6  811   5.974   7.216   9.391
   26DG      O6  812   6.089   7.221   9.435
   26DG      N1  813   5.906   7.091   9.404
   26DG      H1  814   5.950   7.009   9.444
   26DG      C2  815   5.783   7.069   9.350
   26DG      N2  816   5.743   6.944   9.357
   26DG     H21  817   5.801   6.882   9.410
   26DG     H22  818   5.652   6.914   9.317
   26DG      N3  819   5.700   7.158   9.305
   26DG      C4  820   5.756   7.281   9.295
   26DG     C3'  821   5.362   7.544   9.271
   26DG     H3'  822   5.325   7.622   9.340
   26DG     C2'  823   5.467   7.454   9.331
   26DG    H2'1  824   5.530   7.517   9.392
   26DG    H2'2  825   5.429   7.364   9.379
   26DG     O3'  826   5.256   7.477   9.212
   27DC       P  827   5.110   7.476   9.282
   27DC     O1P  828   5.014   7.403   9.190
   27DC     O2P  829   5.081   7.610   9.332
   27DC     O5'  830   5.134   7.389   9.405
   27DC     C5'  831   5.158   7.251   9.396
   27DC    H5'1  832   5.233   7.240   9.315
   27DC    H5'2  833   5.066   7.202   9.365
   27DC     C4'  834   5.204   7.187   9.526
   27DC     H4'  835   5.164   7.085   9.518
   27DC     O4'  836   5.346   7.180   9.531
   27DC     C1'  837   5.384   7.214   9.662
   27DC     H1'  838   5.378   7.120   9.710
   27DC      N1  839   5.528   7.257   9.672
   27DC      C6  840   5.579   7.380   9.650
   27DC      H6  841   5.512   7.464   9.620
   27DC      C5  842   5.709   7.403   9.665
   27DC      H5  843   5.748   7.501   9.653
   27DC      C4  844   5.795   7.292   9.717
   27DC      N4  845   5.926   7.298   9.727
   27DC     H41  846   5.977   7.207   9.740
   27DC     H42  847   5.974   7.388   9.710
   27DC      N3  848   5.748   7.172   9.731
   27DC      C2  849   5.614   7.154   9.713
   27DC      O2  850   5.580   7.038   9.729
   27DC     C3'  851   5.155   7.252   9.659
   27DC     H3'  852   5.072   7.321   9.646
   27DC     C2'  853   5.275   7.317   9.712
   27DC    H2'1  854   5.289   7.414   9.670
   27DC    H2'2  855   5.278   7.330   9.816
   27DC     O3'  856   5.122   7.137   9.744
   28DA       P  857   4.975   7.068   9.733
   28DA     O1P  858   4.943   7.052   9.594
   28DA     O2P  859   4.878   7.143   9.816
   28DA     O5'  860   4.994   6.928   9.807
   28DA     C5'  861   5.080   6.826   9.764
   28DA    H5'1  862   5.154   6.862   9.693
   28DA    H5'2  863   5.031   6.744   9.715
   28DA     C4'  864   5.166   6.763   9.878
   28DA     H4'  865   5.182   6.656   9.863
   28DA     O4'  866   5.282   6.838   9.887
   28DA     C1'  867   5.326   6.853  10.023
   28DA     H1'  868   5.368   6.766  10.077
   28DA      N9  869   5.409   6.980  10.040
   28DA      C8  870   5.375   7.112  10.022
   28DA      H8  871   5.282   7.153  10.017
   28DA      N7  872   5.472   7.202  10.028
   28DA      C5  873   5.584   7.117  10.050
   28DA      C6  874   5.719   7.142  10.080
   28DA      N6  875   5.781   7.256  10.067
   28DA     H61  876   5.882   7.255  10.081
   28DA     H62  877   5.733   7.338  10.033
   28DA      N1  878   5.804   7.036  10.102
   28DA      C2  879   5.751   6.912  10.095
   28DA      H2  880   5.826   6.837  10.111
   28DA      N3  881   5.630   6.872  10.073
   28DA      C4  882   5.548   6.981  10.059
   28DA     C3'  883   5.094   6.774  10.011
   28DA     H3'  884   4.990   6.808  10.010
   28DA     C2'  885   5.185   6.881  10.082
   28DA    H2'1  886   5.161   6.978  10.044
   28DA    H2'2  887   5.176   6.888  10.190
   28DA     O3'  888   5.101   6.645  10.067
   29DT       P  889   5.081   6.626  10.227
   29DT     O1P  890   5.057   6.488  10.259
   29DT     O2P  891   4.997   6.732  10.278
   29DT     O5'  892   5.228   6.659  10.274
   29DT     C5'  893   5.348   6.576  10.256
   29DT    H5'1  894   5.364   6.579  10.143
   29DT    H5'2  895   5.317   6.478  10.290
   29DT     C4'  896   5.467   6.624  10.341
   29DT     H4'  897   5.547   6.550  10.334
   29DT     O4'  898   5.497   6.759  10.305
   29DT     C1'  899   5.540   6.816  10.435
   29DT     H1'  900   5.643   6.786  10.467
   29DT      N1  901   5.546   6.966  10.404
   29DT      C6  902   5.432   7.039  10.390
   29DT      H6  903   5.335   6.986  10.377
   29DT      C5  904   5.437   7.174  10.380
   29DT      C7  905   5.307   7.249  10.352
   29DT     H71  906   5.287   7.297  10.450
   29DT     H72  907   5.320   7.317  10.271
   29DT     H73  908   5.229   7.183  10.326
   29DT      C4  909   5.565   7.245  10.383
   29DT      O4  910   5.578   7.368  10.376
   29DT      N3  911   5.677   7.167  10.406
   29DT      H3  912   5.759   7.214  10.435
   29DT      C2  913   5.670   7.034  10.424
   29DT      O2  914   5.775   6.978  10.453
   29DT     C3'  915   5.421   6.623  10.489
   29DT     H3'  916   5.318   6.587  10.502
   29DT     C2'  917   5.428   6.772  10.525
   29DT    H2'1  918   5.331   6.816  10.500
   29DT    H2'2  919   5.460   6.781  10.629
   29DT     O3'  920   5.523   6.560  10.567
   30DA       P  921   5.493   6.473  10.694
   30DA     O1P  922   5.440   6.349  10.639
   30DA     O2P  923   5.419   6.547  10.797
   30DA     O5'  924   5.630   6.453  10.749
   30DA     C5'  925   5.745   6.428  10.674
   30DA    H5'1  926   5.747   6.500  10.594
   30DA    H5'2  927   5.729   6.325  10.631
   30DA     C4'  928   5.877   6.439  10.747
   30DA     H4'  929   5.940   6.366  10.693
   30DA     O4'  930   5.925   6.573  10.738
   30DA     C1'  931   5.905   6.648  10.865
   30DA     H1'  932   6.001   6.680  10.909
   30DA      N9  933   5.828   6.769  10.829
   30DA      C8  934   5.696   6.768  10.789
   30DA      H8  935   5.637   6.682  10.785
   30DA      N7  936   5.652   6.884  10.763
   30DA      C5  937   5.764   6.974  10.787
   30DA      C6  938   5.789   7.117  10.800
   30DA      N6  939   5.704   7.211  10.770
   30DA     H61  940   5.723   7.309  10.779
   30DA     H62  941   5.613   7.184  10.737
   30DA      N1  942   5.912   7.171  10.831
   30DA      C2  943   6.006   7.084  10.845
   30DA      H2  944   6.103   7.124  10.853
   30DA      N3  945   5.996   6.951  10.850
   30DA      C4  946   5.874   6.900  10.821
   30DA     C3'  947   5.872   6.408  10.896
   30DA     H3'  948   5.802   6.333  10.918
   30DA     C2'  949   5.839   6.546  10.957
   30DA    H2'1  950   5.734   6.558  10.961
   30DA    H2'2  951   5.881   6.554  11.052
   30DA     O3'  952   6.006   6.364  10.923
   31DT       P  953   6.063   6.348  11.077
   31DT     O1P  954   6.175   6.256  11.072
   31DT     O2P  955   5.947   6.305  11.156
   31DT     O5'  956   6.111   6.492  11.119
   31DT     C5'  957   6.228   6.545  11.049
   31DT    H5'1  958   6.212   6.552  10.939
   31DT    H5'2  959   6.310   6.484  11.065
   31DT     C4'  960   6.261   6.681  11.102
   31DT     H4'  961   6.354   6.714  11.055
   31DT     O4'  962   6.167   6.774  11.064
   31DT     C1'  963   6.159   6.877  11.165
   31DT     H1'  964   6.220   6.965  11.123
   31DT      N1  965   6.020   6.934  11.174
   31DT      C6  966   5.915   6.843  11.185
   31DT      H6  967   5.930   6.742  11.211
   31DT      C5  968   5.785   6.892  11.171
   31DT      C7  969   5.669   6.794  11.186
   31DT     H71  970   5.600   6.836  11.260
   31DT     H72  971   5.616   6.789  11.091
   31DT     H73  972   5.706   6.697  11.214
   31DT      C4  973   5.756   7.028  11.146
   31DT      O4  974   5.642   7.076  11.128
   31DT      N3  975   5.866   7.113  11.142
   31DT      H3  976   5.853   7.213  11.119
   31DT      C2  977   5.998   7.074  11.156
   31DT      O2  978   6.091   7.156  11.155
   31DT     C3'  979   6.273   6.681  11.256
   31DT     H3'  980   6.210   6.599  11.300
   31DT     C2'  981   6.208   6.821  11.295
   31DT    H2'1  982   6.126   6.806  11.365
   31DT    H2'2  983   6.279   6.895  11.329
   31DT     O3'  984   6.408   6.663  11.302
   32DG       P  985   6.454   6.655  11.453
   32DG     O1P  986   6.584   6.582  11.459
   32DG     O2P  987   6.339   6.605  11.533
   32DG     O5'  988   6.472   6.807  11.509
   32DG     C5'  989   6.542   6.906  11.436
   32DG    H5'1  990   6.508   6.899  11.329
   32DG    H5'2  991   6.648   6.877  11.422
   32DG     C4'  992   6.547   7.049  11.495
   32DG     H4'  993   6.632   7.094  11.442
   32DG     O4'  994   6.435   7.123  11.450
   32DG     C1'  995   6.366   7.165  11.565
   32DG     H1'  996   6.372   7.274  11.574
   32DG      N9  997   6.223   7.137  11.553
   32DG      C8  998   6.156   7.018  11.550
   32DG      H8  999   6.210   6.924  11.554
   32DG      N7 1000   6.033   7.027  11.521
   32DG      C5 1001   6.012   7.168  11.514
   32DG      C6 1002   5.895   7.247  11.492
   32DG      O6 1003   5.780   7.213  11.471
   32DG      N1 1004   5.917   7.384  11.500
   32DG      H1 1005   5.845   7.446  11.468
   32DG      C2 1006   6.038   7.438  11.519
   32DG      N2 1007   6.050   7.568  11.499
   32DG     H21 1008   5.968   7.632  11.489
   32DG     H22 1009   6.142   7.606  11.527
   32DG      N3 1010   6.146   7.373  11.545
   32DG      C4 1011   6.128   7.236  11.541
   32DG     C3' 1012   6.570   7.058  11.646
   32DG     H3' 1013   6.608   6.961  11.680
   32DG     C2' 1014   6.424   7.098  11.685
   32DG    H2'1 1015   6.381   6.999  11.712
   32DG    H2'2 1016   6.426   7.170  11.769
   32DG     O3' 1017   6.660   7.158  11.687
   33DC3      P 1018   6.700   7.183  11.839
   33DC3    O1P 1019   6.834   7.241  11.840
   33DC3    O2P 1020   6.674   7.062  11.922
   33DC3    O5' 1021   6.590   7.296  11.885
   33DC3    C5' 1022   6.584   7.419  11.810
   33DC3   H5'1 1023   6.590   7.394  11.702
   33DC3   H5'2 1024   6.672   7.470  11.836
   33DC3    C4' 1025   6.466   7.510  11.849
   33DC3    H4' 1026   6.492   7.595  11.785
   33DC3    O4' 1027   6.346   7.452  11.807
   33DC3    C1' 1028   6.246   7.489  11.893
   33DC3    H1' 1029   6.210   7.588  11.858
   33DC3     N1 1030   6.146   7.383  11.875
   33DC3     C6 1031   6.172   7.250  11.884
   33DC3     H6 1032   6.274   7.228  11.908
   33DC3     C5 1033   6.084   7.150  11.865
   33DC3     H5 1034   6.122   7.052  11.882
   33DC3     C4 1035   5.947   7.196  11.854
   33DC3     N4 1036   5.858   7.105  11.861
   33DC3    H41 1037   5.761   7.125  11.865
   33DC3    H42 1038   5.894   7.012  11.860
   33DC3     N3 1039   5.917   7.324  11.850
   33DC3     C2 1040   6.016   7.419  11.857
   33DC3     O2 1041   5.986   7.540  11.855
   33DC3    C3' 1042   6.456   7.554  11.993
   33DC3    H3' 1043   6.524   7.508  12.064
   33DC3    C2' 1044   6.322   7.490  12.025
   33DC3   H2'1 1045   6.338   7.386  12.042
   33DC3   H2'2 1046   6.263   7.524  12.117
   33DC3    O3' 1047   6.457   7.697  12.007
   33DC3    H3T 1048   6.453   7.722  12.100
   34DG5    H5T 1049   4.811   7.648  11.558
   34DG5    O5' 1050   4.832   7.633  11.653
   34DG5    C5' 1051   4.890   7.750  11.714
   34DG5   H5'1 1052   4.885   7.749  11.833
   34DG5   H5'2 1053   4.831   7.837  11.677
   34DG5    C4' 1054   5.034   7.785  11.680
   34DG5    H4' 1055   5.062   7.883  11.725
   34DG5    O4' 1056   5.122   7.698  11.741
   34DG5    C1' 1057   5.230   7.673  11.654
   34DG5    H1' 1058   5.301   7.754  11.657
   34DG5     N9 1059   5.294   7.544  11.686
   34DG5     C8 1060   5.233   7.424  11.694
   34DG5     H8 1061   5.131   7.413  11.666
   34DG5     N7 1062   5.315   7.327  11.725
   34DG5     C5 1063   5.441   7.391  11.747
   34DG5     C6 1064   5.566   7.340  11.777
   34DG5     O6 1065   5.603   7.224  11.805
   34DG5     N1 1066   5.669   7.438  11.777
   34DG5     H1 1067   5.762   7.407  11.769
   34DG5     C2 1068   5.645   7.572  11.748
   34DG5     N2 1069   5.741   7.656  11.771
   34DG5    H21 1070   5.831   7.629  11.807
   34DG5    H22 1071   5.729   7.755  11.753
   34DG5     N3 1072   5.522   7.622  11.728
   34DG5     C4 1073   5.425   7.526  11.725
   34DG5    C3' 1074   5.064   7.794  11.530
   34DG5    H3' 1075   4.976   7.790  11.474
   34DG5    C2' 1076   5.157   7.671  11.512
   34DG5   H2'1 1077   5.101   7.576  11.494
   34DG5   H2'2 1078   5.242   7.689  11.445
   34DG5    O3' 1079   5.131   7.912  11.503
   35DC       P 1080   5.159   7.965  11.358
   35DC     O1P 1081   5.086   8.085  11.315
   35DC     O2P 1082   5.158   7.846  11.270
   35DC     O5' 1083   5.307   7.999  11.367
   35DC     C5' 1084   5.362   8.108  11.447
   35DC    H5'1 1085   5.346   8.079  11.554
   35DC    H5'2 1086   5.311   8.198  11.426
   35DC     C4' 1087   5.513   8.128  11.419
   35DC     H4' 1088   5.550   8.210  11.486
   35DC     O4' 1089   5.585   8.009  11.450
   35DC     C1' 1090   5.637   7.949  11.335
   35DC     H1' 1091   5.745   7.967  11.334
   35DC      N1 1092   5.614   7.801  11.352
   35DC      C6 1093   5.496   7.743  11.308
   35DC      H6 1094   5.421   7.799  11.252
   35DC      C5 1095   5.481   7.606  11.319
   35DC      H5 1096   5.400   7.553  11.268
   35DC      C4 1097   5.592   7.526  11.369
   35DC      N4 1098   5.587   7.399  11.390
   35DC     H41 1099   5.664   7.346  11.436
   35DC     H42 1100   5.514   7.344  11.362
   35DC      N3 1101   5.709   7.583  11.401
   35DC      C2 1102   5.720   7.720  11.405
   35DC      O2 1103   5.824   7.772  11.440
   35DC     C3' 1104   5.542   8.161  11.272
   35DC     H3' 1105   5.461   8.216  11.219
   35DC     C2' 1106   5.567   8.022  11.213
   35DC    H2'1 1107   5.472   7.981  11.183
   35DC    H2'2 1108   5.621   8.037  11.118
   35DC     O3' 1109   5.659   8.235  11.260
   36DA       P 1110   5.677   8.319  11.134
   36DA     O1P 1111   5.712   8.463  11.170
   36DA     O2P 1112   5.570   8.293  11.035
   36DA     O5' 1113   5.806   8.259  11.071
   36DA     C5' 1114   5.923   8.228  11.149
   36DA    H5'1 1115   5.906   8.223  11.258
   36DA    H5'2 1116   5.990   8.318  11.132
   36DA     C4' 1117   6.001   8.099  11.117
   36DA     H4' 1118   6.092   8.110  11.185
   36DA     O4' 1119   5.921   7.981  11.153
   36DA     C1' 1120   5.937   7.887  11.045
   36DA     H1' 1121   6.030   7.843  11.051
   36DA      N9 1122   5.838   7.776  11.041
   36DA      C8 1123   5.714   7.784  10.985
   36DA      H8 1124   5.678   7.874  10.937
   36DA      N7 1125   5.648   7.673  10.987
   36DA      C5 1126   5.743   7.583  11.052
   36DA      C6 1127   5.736   7.450  11.088
   36DA      N6 1128   5.630   7.377  11.070
   36DA     H61 1129   5.637   7.275  11.089
   36DA     H62 1130   5.547   7.423  11.032
   36DA      N1 1131   5.840   7.389  11.147
   36DA      C2 1132   5.954   7.455  11.175
   36DA      H2 1133   6.031   7.403  11.225
   36DA      N3 1134   5.974   7.586  11.134
   36DA      C4 1135   5.865   7.643  11.076
   36DA     C3' 1136   6.039   8.086  10.969
   36DA     H3' 1137   6.016   8.180  10.913
   36DA     C2' 1138   5.942   7.974  10.920
   36DA    H2'1 1139   5.846   8.012  10.887
   36DA    H2'2 1140   5.998   7.920  10.836
   36DA     O3' 1141   6.176   8.054  10.967
   37DT       P 1142   6.274   8.092  10.848
   37DT     O1P 1143   6.338   8.226  10.868
   37DT     O2P 1144   6.207   8.071  10.716
   37DT     O5' 1145   6.390   7.987  10.851
   37DT     C5' 1146   6.438   7.937  10.979
   37DT    H5'1 1147   6.366   7.953  11.060
   37DT    H5'2 1148   6.531   7.985  11.000
   37DT     C4' 1149   6.457   7.786  10.964
   37DT     H4' 1150   6.506   7.760  11.059
   37DT     O4' 1151   6.331   7.721  10.959
   37DT     C1' 1152   6.324   7.618  10.854
   37DT     H1' 1153   6.362   7.524  10.886
   37DT      N1 1154   6.183   7.595  10.807
   37DT      C6 1155   6.108   7.683  10.732
   37DT      H6 1156   6.135   7.784  10.702
   37DT      C5 1157   5.981   7.649  10.701
   37DT      C7 1158   5.896   7.753  10.629
   37DT     H71 1159   5.892   7.718  10.522
   37DT     H72 1160   5.794   7.760  10.661
   37DT     H73 1161   5.937   7.846  10.633
   37DT      C4 1162   5.926   7.522  10.741
   37DT      O4 1163   5.807   7.488  10.743
   37DT      N3 1164   6.013   7.435  10.809
   37DT      H3 1165   5.977   7.343  10.841
   37DT      C2 1166   6.138   7.467  10.842
   37DT      O2 1167   6.204   7.391  10.906
   37DT     C3' 1168   6.530   7.732  10.843
   37DT     H3' 1169   6.590   7.806  10.787
   37DT     C2' 1170   6.426   7.668  10.749
   37DT    H2'1 1171   6.380   7.737  10.680
   37DT    H2'2 1172   6.466   7.582  10.696
   37DT     O3' 1173   6.617   7.629  10.890
   38DA       P 1174   6.758   7.599  10.821
   38DA     O1P 1175   6.854   7.575  10.932
   38DA     O2P 1176   6.793   7.698  10.718
   38DA     O5' 1177   6.738   7.466  10.735
   38DA     C5' 1178   6.679   7.351  10.787
   38DA    H5'1 1179   6.602   7.365  10.858
   38DA    H5'2 1180   6.760   7.298  10.831
   38DA     C4' 1181   6.607   7.273  10.674
   38DA     H4' 1182   6.598   7.176  10.717
   38DA     O4' 1183   6.473   7.320  10.655
   38DA     C1' 1184   6.442   7.310  10.514
   38DA     H1' 1185   6.434   7.206  10.487
   38DA      N9 1186   6.324   7.386  10.475
   38DA      C8 1187   6.309   7.515  10.433
   38DA      H8 1188   6.399   7.588  10.428
   38DA      N7 1189   6.192   7.547  10.391
   38DA      C5 1190   6.110   7.438  10.424
   38DA      C6 1191   5.974   7.400  10.422
   38DA      N6 1192   5.877   7.479  10.379
   38DA     H61 1193   5.788   7.439  10.371
   38DA     H62 1194   5.901   7.570  10.349
   38DA      N1 1195   5.934   7.280  10.467
   38DA      C2 1196   6.025   7.190  10.505
   38DA      H2 1197   5.996   7.088  10.510
   38DA      N3 1198   6.159   7.214  10.503
   38DA      C4 1199   6.197   7.338  10.470
   38DA     C3' 1200   6.667   7.268  10.541
   38DA     H3' 1201   6.768   7.304  10.549
   38DA     C2' 1202   6.581   7.353  10.458
   38DA    H2'1 1203   6.593   7.460  10.485
   38DA    H2'2 1204   6.598   7.327  10.355
   38DA     O3' 1205   6.669   7.142  10.492
   39DT       P 1206   6.790   7.031  10.515
   39DT     O1P 1207   6.819   7.030  10.658
   39DT     O2P 1208   6.892   7.053  10.409
   39DT     O5' 1209   6.721   6.897  10.477
   39DT     C5' 1210   6.613   6.850  10.554
   39DT    H5'1 1211   6.571   6.926  10.626
   39DT    H5'2 1212   6.648   6.762  10.608
   39DT     C4' 1213   6.486   6.808  10.467
   39DT     H4' 1214   6.430   6.742  10.532
   39DT     O4' 1215   6.410   6.919  10.426
   39DT     C1' 1216   6.361   6.862  10.310
   39DT     H1' 1217   6.289   6.784  10.334
   39DT      N1 1218   6.288   6.967  10.238
   39DT      C6 1219   6.352   7.082  10.196
   39DT      H6 1220   6.456   7.092  10.214
   39DT      C5 1221   6.282   7.184  10.130
   39DT      C7 1222   6.366   7.309  10.093
   39DT     H71 1223   6.300   7.396  10.108
   39DT     H72 1224   6.448   7.322  10.158
   39DT     H73 1225   6.404   7.315   9.995
   39DT      C4 1226   6.141   7.166  10.110
   39DT      O4 1227   6.064   7.253  10.065
   39DT      N3 1228   6.086   7.050  10.156
   39DT      H3 1229   5.988   7.042  10.146
   39DT      C2 1230   6.158   6.939  10.200
   39DT      O2 1231   6.104   6.833  10.215
   39DT     C3' 1232   6.526   6.718  10.340
   39DT     H3' 1233   6.637   6.698  10.341
   39DT     C2' 1234   6.474   6.805  10.237
   39DT    H2'1 1235   6.543   6.884  10.227
   39DT    H2'2 1236   6.443   6.758  10.137
   39DT     O3' 1237   6.458   6.592  10.339
   40DG       P 1238   6.460   6.492  10.215
   40DG     O1P 1239   6.479   6.359  10.275
   40DG     O2P 1240   6.558   6.541  10.116
   40DG     O5' 1241   6.311   6.501  10.154
   40DG     C5' 1242   6.215   6.403  10.181
   40DG    H5'1 1243   6.157   6.435  10.260
   40DG    H5'2 1244   6.263   6.315  10.221
   40DG     C4' 1245   6.136   6.356  10.057
   40DG     H4' 1246   6.061   6.277  10.077
   40DG     O4' 1247   6.069   6.473  10.002
   40DG     C1' 1248   6.127   6.500   9.878
   40DG     H1' 1249   6.056   6.472   9.801
   40DG      N9 1250   6.155   6.647   9.861
   40DG      C8 1251   6.270   6.718   9.890
   40DG      H8 1252   6.365   6.663   9.912
   40DG      N7 1253   6.258   6.851   9.881
   40DG      C5 1254   6.125   6.861   9.848
   40DG      C6 1255   6.046   6.971   9.804
   40DG      O6 1256   6.082   7.087   9.787
   40DG      N1 1257   5.914   6.941   9.775
   40DG      H1 1258   5.848   7.013   9.755
   40DG      C2 1259   5.862   6.818   9.771
   40DG      N2 1260   5.742   6.801   9.737
   40DG     H21 1261   5.685   6.882   9.722
   40DG     H22 1262   5.708   6.709   9.728
   40DG      N3 1263   5.933   6.705   9.795
   40DG      C4 1264   6.059   6.742   9.832
   40DG     C3' 1265   6.229   6.292   9.949
   40DG     H3' 1266   6.327   6.240   9.985
   40DG     C2' 1267   6.253   6.415   9.862
   40DG    H2'1 1268   6.334   6.463   9.913
   40DG    H2'2 1269   6.278   6.407   9.758
   40DG     O3' 1270   6.148   6.189   9.886
   41DC       P 1271   6.189   6.116   9.747
   41DC     O1P 1272   6.151   5.972   9.758
   41DC     O2P 1273   6.326   6.143   9.712
   41DC     O5' 1274   6.114   6.187   9.635
   41DC     C5' 1275   5.970   6.192   9.630
   41DC    H5'1 1276   5.937   6.221   9.727
   41DC    H5'2 1277   5.936   6.083   9.613
   41DC     C4' 1278   5.931   6.284   9.513
   41DC     H4' 1279   5.823   6.266   9.500
   41DC     O4' 1280   5.955   6.418   9.563
   41DC     C1' 1281   6.010   6.478   9.443
   41DC     H1' 1282   5.929   6.496   9.367
   41DC      N1 1283   6.072   6.608   9.485
   41DC      C6 1284   6.203   6.618   9.527
   41DC      H6 1285   6.264   6.534   9.557
   41DC      C5 1286   6.254   6.742   9.538
   41DC      H5 1287   6.354   6.758   9.571
   41DC      C4 1288   6.182   6.856   9.494
   41DC      N4 1289   6.237   6.975   9.501
   41DC     H41 1290   6.187   7.054   9.463
   41DC     H42 1291   6.324   6.986   9.542
   41DC      N3 1292   6.060   6.848   9.455
   41DC      C2 1293   6.000   6.723   9.456
   41DC      O2 1294   5.879   6.719   9.429
   41DC     C3' 1295   6.010   6.269   9.381
   41DC     H3' 1296   6.069   6.169   9.390
   41DC     C2' 1297   6.114   6.383   9.384
   41DC    H2'1 1298   6.200   6.362   9.445
   41DC    H2'2 1299   6.138   6.420   9.286
   41DC     O3' 1300   5.928   6.279   9.263
   42DG       P 1301   5.888   6.151   9.175
   42DG     O1P 1302   5.808   6.063   9.256
   42DG     O2P 1303   6.014   6.103   9.105
   42DG     O5' 1304   5.805   6.221   9.057
   42DG     C5' 1305   5.667   6.262   9.083
   42DG    H5'1 1306   5.644   6.254   9.186
   42DG    H5'2 1307   5.602   6.193   9.031
   42DG     C4' 1308   5.635   6.404   9.036
   42DG     H4' 1309   5.531   6.431   9.068
   42DG     O4' 1310   5.718   6.505   9.101
   42DG     C1' 1311   5.770   6.586   8.995
   42DG     H1' 1312   5.691   6.662   8.976
   42DG      N9 1313   5.899   6.642   9.056
   42DG      C8 1314   6.011   6.566   9.085
   42DG      H8 1315   6.017   6.456   9.088
   42DG      N7 1316   6.107   6.638   9.138
   42DG      C5 1317   6.064   6.772   9.120
   42DG      C6 1318   6.133   6.900   9.132
   42DG      O6 1319   6.250   6.925   9.163
   42DG      N1 1320   6.048   7.008   9.107
   42DG      H1 1321   6.095   7.094   9.101
   42DG      C2 1322   5.922   7.000   9.054
   42DG      N2 1323   5.860   7.105   9.018
   42DG     H21 1324   5.907   7.195   9.010
   42DG     H22 1325   5.773   7.101   8.969
   42DG      N3 1326   5.860   6.886   9.030
   42DG      C4 1327   5.934   6.774   9.067
   42DG     C3' 1328   5.650   6.421   8.883
   42DG     H3' 1329   5.658   6.321   8.841
   42DG     C2' 1330   5.777   6.498   8.870
   42DG    H2'1 1331   5.865   6.424   8.879
   42DG    H2'2 1332   5.788   6.556   8.781
   42DG     O3' 1333   5.535   6.488   8.829
   43DT       P 1334   5.513   6.517   8.669
   43DT     O1P 1335   5.368   6.512   8.652
   43DT     O2P 1336   5.595   6.423   8.587
   43DT     O5' 1337   5.567   6.667   8.643
   43DT     C5' 1338   5.526   6.778   8.714
   43DT    H5'1 1339   5.564   6.778   8.812
   43DT    H5'2 1340   5.417   6.786   8.705
   43DT     C4' 1341   5.576   6.909   8.650
   43DT     H4' 1342   5.508   6.990   8.682
   43DT     O4' 1343   5.698   6.944   8.709
   43DT     C1' 1344   5.792   6.966   8.605
   43DT     H1' 1345   5.777   7.066   8.567
   43DT      N1 1346   5.929   6.945   8.658
   43DT      C6 1347   5.980   6.811   8.665
   43DT      H6 1348   5.921   6.726   8.622
   43DT      C5 1349   6.103   6.786   8.708
   43DT      C7 1350   6.149   6.639   8.717
   43DT     H71 1351   6.065   6.565   8.690
   43DT     H72 1352   6.230   6.622   8.646
   43DT     H73 1353   6.180   6.607   8.818
   43DT      C4 1354   6.181   6.898   8.770
   43DT      O4 1355   6.287   6.888   8.827
   43DT      N3 1356   6.119   7.027   8.764
   43DT      H3 1357   6.178   7.099   8.805
   43DT      C2 1358   5.996   7.050   8.719
   43DT      O2 1359   5.943   7.161   8.726
   43DT     C3' 1360   5.590   6.912   8.503
   43DT     H3' 1361   5.529   6.832   8.453
   43DT     C2' 1362   5.738   6.893   8.489
   43DT    H2'1 1363   5.755   6.784   8.505
   43DT    H2'2 1364   5.768   6.920   8.386
   43DT     O3' 1365   5.542   7.042   8.464
   44DA       P 1366   5.504   7.074   8.307
   44DA     O1P 1367   5.365   7.120   8.320
   44DA     O2P 1368   5.533   6.951   8.227
   44DA     O5' 1369   5.607   7.188   8.260
   44DA     C5' 1370   5.579   7.323   8.301
   44DA    H5'1 1371   5.482   7.367   8.268
   44DA    H5'2 1372   5.577   7.318   8.411
   44DA     C4' 1373   5.686   7.425   8.258
   44DA     H4' 1374   5.677   7.526   8.299
   44DA     O4' 1375   5.813   7.387   8.303
   44DA     C1' 1376   5.897   7.357   8.195
   44DA     H1' 1377   5.965   7.444   8.178
   44DA      N9 1378   5.973   7.238   8.238
   44DA      C8 1379   5.931   7.109   8.223
   44DA      H8 1380   5.838   7.085   8.173
   44DA      N7 1381   6.005   7.022   8.291
   44DA      C5 1382   6.106   7.099   8.346
   44DA      C6 1383   6.224   7.076   8.422
   44DA      N6 1384   6.270   6.960   8.465
   44DA     H61 1385   6.358   6.960   8.521
   44DA     H62 1386   6.237   6.871   8.422
   44DA      N1 1387   6.295   7.173   8.477
   44DA      C2 1388   6.257   7.295   8.447
   44DA      H2 1389   6.323   7.377   8.484
   44DA      N3 1390   6.151   7.335   8.375
   44DA      C4 1391   6.083   7.230   8.320
   44DA     C3' 1392   5.693   7.436   8.106
   44DA     H3' 1393   5.607   7.393   8.055
   44DA     C2' 1394   5.811   7.353   8.065
   44DA    H2'1 1395   5.778   7.250   8.042
   44DA    H2'2 1396   5.862   7.399   7.985
   44DA     O3' 1397   5.697   7.573   8.065
   45DC       P 1398   5.688   7.615   7.907
   45DC     O1P 1399   5.655   7.760   7.899
   45DC     O2P 1400   5.600   7.515   7.844
   45DC     O5' 1401   5.838   7.603   7.851
   45DC     C5' 1402   5.936   7.695   7.884
   45DC    H5'1 1403   5.904   7.738   7.977
   45DC    H5'2 1404   5.928   7.769   7.813
   45DC     C4' 1405   6.088   7.662   7.886
   45DC     H4' 1406   6.140   7.753   7.920
   45DC     O4' 1407   6.117   7.544   7.965
   45DC     C1' 1408   6.201   7.451   7.888
   45DC     H1' 1409   6.308   7.488   7.886
   45DC      N1 1410   6.197   7.314   7.950
   45DC      C6 1411   6.121   7.217   7.895
   45DC      H6 1412   6.055   7.229   7.809
   45DC      C5 1413   6.134   7.089   7.944
   45DC      H5 1414   6.088   7.005   7.900
   45DC      C4 1415   6.233   7.064   8.041
   45DC      N4 1416   6.277   6.948   8.073
   45DC     H41 1417   6.340   6.937   8.153
   45DC     H42 1418   6.228   6.872   8.032
   45DC      N3 1419   6.316   7.163   8.090
   45DC      C2 1420   6.294   7.285   8.049
   45DC      O2 1421   6.363   7.373   8.092
   45DC     C3' 1422   6.129   7.627   7.743
   45DC     H3' 1423   6.059   7.659   7.668
   45DC     C2' 1424   6.128   7.477   7.758
   45DC    H2'1 1425   6.025   7.440   7.749
   45DC    H2'2 1426   6.176   7.426   7.680
   45DC     O3' 1427   6.270   7.675   7.728
   46DA       P 1428   6.319   7.801   7.644
   46DA     O1P 1429   6.274   7.923   7.709
   46DA     O2P 1430   6.280   7.780   7.506
   46DA     O5' 1431   6.478   7.792   7.650
   46DA     C5' 1432   6.557   7.857   7.745
   46DA    H5'1 1433   6.583   7.955   7.711
   46DA    H5'2 1434   6.506   7.868   7.840
   46DA     C4' 1435   6.691   7.790   7.771
   46DA     H4' 1436   6.751   7.843   7.842
   46DA     O4' 1437   6.665   7.666   7.835
   46DA     C1' 1438   6.692   7.569   7.746
   46DA     H1' 1439   6.792   7.518   7.765
   46DA      N9 1440   6.592   7.464   7.747
   46DA      C8 1441   6.479   7.454   7.670
   46DA      H8 1442   6.451   7.529   7.596
   46DA      N7 1443   6.423   7.332   7.673
   46DA      C5 1444   6.507   7.267   7.765
   46DA      C6 1445   6.514   7.135   7.812
   46DA      N6 1446   6.420   7.044   7.785
   46DA     H61 1447   6.420   6.963   7.847
   46DA     H62 1448   6.335   7.064   7.723
   46DA      N1 1449   6.607   7.089   7.894
   46DA      C2 1450   6.699   7.181   7.926
   46DA      H2 1451   6.773   7.130   7.987
   46DA      N3 1452   6.715   7.309   7.889
   46DA      C4 1453   6.611   7.343   7.811
   46DA     C3' 1454   6.767   7.763   7.642
   46DA     H3' 1455   6.725   7.819   7.563
   46DA     C2' 1456   6.730   7.628   7.602
   46DA    H2'1 1457   6.647   7.619   7.530
   46DA    H2'2 1458   6.812   7.570   7.557
   46DA     O3' 1459   6.901   7.793   7.661
   47DA       P 1460   7.011   7.757   7.555
   47DA     O1P 1461   7.123   7.848   7.578
   47DA     O2P 1462   6.955   7.755   7.421
   47DA     O5' 1463   7.054   7.606   7.600
   47DA     C5' 1464   7.100   7.586   7.732
   47DA    H5'1 1465   7.024   7.606   7.806
   47DA    H5'2 1466   7.179   7.660   7.762
   47DA     C4' 1467   7.181   7.461   7.751
   47DA     H4' 1468   7.237   7.478   7.844
   47DA     O4' 1469   7.103   7.346   7.771
   47DA     C1' 1470   7.126   7.255   7.662
   47DA     H1' 1471   7.193   7.178   7.696
   47DA      N9 1472   7.002   7.192   7.610
   47DA      C8 1473   6.909   7.247   7.524
   47DA      H8 1474   6.915   7.352   7.489
   47DA      N7 1475   6.802   7.171   7.510
   47DA      C5 1476   6.836   7.055   7.585
   47DA      C6 1477   6.770   6.924   7.604
   47DA      N6 1478   6.648   6.887   7.556
   47DA     H61 1479   6.629   6.788   7.555
   47DA     H62 1480   6.582   6.951   7.514
   47DA      N1 1481   6.840   6.832   7.667
   47DA      C2 1482   6.963   6.857   7.715
   47DA      H2 1483   7.016   6.774   7.761
   47DA      N3 1484   7.026   6.971   7.718
   47DA      C4 1485   6.959   7.066   7.646
   47DA     C3' 1486   7.280   7.429   7.636
   47DA     H3' 1487   7.296   7.514   7.571
   47DA     C2' 1488   7.209   7.323   7.553
   47DA    H2'1 1489   7.151   7.384   7.477
   47DA    H2'2 1490   7.273   7.260   7.495
   47DA     O3' 1491   7.402   7.389   7.697
   48DT       P 1492   7.536   7.354   7.615
   48DT     O1P 1493   7.642   7.334   7.718
   48DT     O2P 1494   7.542   7.463   7.519
   48DT     O5' 1495   7.489   7.212   7.556
   48DT     C5' 1496   7.486   7.092   7.637
   48DT    H5'1 1497   7.416   7.107   7.724
   48DT    H5'2 1498   7.587   7.072   7.675
   48DT     C4' 1499   7.426   6.976   7.558
   48DT     H4' 1500   7.436   6.886   7.622
   48DT     O4' 1501   7.285   6.991   7.534
   48DT     C1' 1502   7.259   6.923   7.415
   48DT     H1' 1503   7.265   6.817   7.429
   48DT      N1 1504   7.124   6.933   7.360
   48DT      C6 1505   7.081   7.044   7.294
   48DT      H6 1506   7.143   7.134   7.287
   48DT      C5 1507   6.962   7.053   7.242
   48DT      C7 1508   6.928   7.176   7.163
   48DT     H71 1509   7.006   7.246   7.129
   48DT     H72 1510   6.880   7.139   7.076
   48DT     H73 1511   6.853   7.238   7.210
   48DT      C4 1512   6.872   6.937   7.250
   48DT      O4 1513   6.754   6.926   7.211
   48DT      N3 1514   6.919   6.826   7.302
   48DT      H3 1515   6.849   6.761   7.335
   48DT      C2 1516   7.041   6.815   7.359
   48DT      O2 1517   7.074   6.706   7.406
   48DT     C3' 1518   7.492   6.955   7.422
   48DT     H3' 1519   7.568   7.018   7.384
   48DT     C2' 1520   7.375   6.972   7.329
   48DT    H2'1 1521   7.365   7.073   7.291
   48DT    H2'2 1522   7.385   6.916   7.242
   48DT     O3' 1523   7.532   6.814   7.402
   49DG       P 1524   7.667   6.768   7.326
   49DG     O1P 1525   7.770   6.778   7.428
   49DG     O2P 1526   7.687   6.838   7.195
   49DG     O5' 1527   7.635   6.612   7.303
   49DG     C5' 1528   7.617   6.527   7.415
   49DG    H5'1 1529   7.571   6.589   7.494
   49DG    H5'2 1530   7.714   6.501   7.447
   49DG     C4' 1531   7.528   6.407   7.380
   49DG     H4' 1532   7.525   6.334   7.461
   49DG     O4' 1533   7.397   6.463   7.356
   49DG     C1' 1534   7.342   6.418   7.236
   49DG     H1' 1535   7.282   6.330   7.261
   49DG      N9 1536   7.261   6.525   7.178
   49DG      C8 1537   7.292   6.654   7.162
   49DG      H8 1538   7.388   6.690   7.200
   49DG      N7 1539   7.199   6.731   7.113
   49DG      C5 1540   7.091   6.633   7.092
   49DG      C6 1541   6.960   6.640   7.027
   49DG      O6 1542   6.910   6.743   6.977
   49DG      N1 1543   6.887   6.519   7.030
   49DG      H1 1544   6.792   6.522   6.993
   49DG      C2 1545   6.941   6.405   7.084
   49DG      N2 1546   6.866   6.296   7.093
   49DG     H21 1547   6.770   6.302   7.072
   49DG     H22 1548   6.915   6.211   7.120
   49DG      N3 1549   7.065   6.391   7.128
   49DG      C4 1550   7.127   6.509   7.133
   49DG     C3' 1551   7.563   6.327   7.252
   49DG     H3' 1552   7.665   6.357   7.228
   49DG     C2' 1553   7.467   6.387   7.148
   49DG    H2'1 1554   7.512   6.478   7.105
   49DG    H2'2 1555   7.444   6.313   7.064
   49DG     O3' 1556   7.542   6.187   7.272
   50DT       P 1557   7.590   6.080   7.168
   50DT     O1P 1558   7.606   5.952   7.244
   50DT     O2P 1559   7.705   6.129   7.094
   50DT     O5' 1560   7.473   6.052   7.064
   50DT     C5' 1561   7.355   5.994   7.110
   50DT    H5'1 1562   7.316   6.056   7.197
   50DT    H5'2 1563   7.373   5.890   7.137
   50DT     C4' 1564   7.252   5.992   6.991
   50DT     H4' 1565   7.181   5.918   7.023
   50DT     O4' 1566   7.202   6.120   6.983
   50DT     C1' 1567   7.153   6.142   6.851
   50DT     H1' 1568   7.048   6.099   6.846
   50DT      N1 1569   7.143   6.283   6.816
   50DT      C6 1570   7.257   6.357   6.827
   50DT      H6 1571   7.342   6.312   6.870
   50DT      C5 1572   7.257   6.490   6.798
   50DT      C7 1573   7.390   6.565   6.811
   50DT     H71 1574   7.424   6.582   6.714
   50DT     H72 1575   7.384   6.647   6.885
   50DT     H73 1576   7.472   6.507   6.857
   50DT      C4 1577   7.132   6.550   6.740
   50DT      O4 1578   7.114   6.660   6.694
   50DT      N3 1579   7.024   6.470   6.747
   50DT      H3 1580   6.939   6.509   6.712
   50DT      C2 1581   7.020   6.337   6.778
   50DT      O2 1582   6.912   6.277   6.756
   50DT     C3' 1583   7.307   5.951   6.852
   50DT     H3' 1584   7.412   5.971   6.842
   50DT     C2' 1585   7.243   6.057   6.758
   50DT    H2'1 1586   7.331   6.114   6.721
   50DT    H2'2 1587   7.174   6.016   6.673
   50DT     O3' 1588   7.286   5.812   6.824
   51DA       P 1589   7.309   5.747   6.679
   51DA     O1P 1590   7.306   5.601   6.692
   51DA     O2P 1591   7.427   5.805   6.615
   51DA     O5' 1592   7.188   5.774   6.582
   51DA     C5' 1593   7.046   5.750   6.622
   51DA    H5'1 1594   7.026   5.803   6.711
   51DA    H5'2 1595   7.032   5.645   6.630
   51DA     C4' 1596   6.948   5.805   6.521
   51DA     H4' 1597   6.854   5.764   6.544
   51DA     O4' 1598   6.942   5.944   6.538
   51DA     C1' 1599   6.925   6.008   6.411
   51DA     H1' 1600   6.821   6.021   6.380
   51DA      N9 1601   6.990   6.140   6.433
   51DA      C8 1602   7.126   6.172   6.450
   51DA      H8 1603   7.203   6.100   6.460
   51DA      N7 1604   7.161   6.294   6.436
   51DA      C5 1605   7.039   6.346   6.403
   51DA      C6 1606   7.008   6.484   6.365
   51DA      N6 1607   7.091   6.586   6.361
   51DA     H61 1608   7.057   6.677   6.334
   51DA     H62 1609   7.191   6.571   6.370
   51DA      N1 1610   6.888   6.524   6.330
   51DA      C2 1611   6.796   6.427   6.336
   51DA      H2 1612   6.692   6.461   6.317
   51DA      N3 1613   6.807   6.299   6.377
   51DA      C4 1614   6.933   6.263   6.411
   51DA     C3' 1615   6.976   5.783   6.370
   51DA     H3' 1616   7.062   5.724   6.359
   51DA     C2' 1617   6.993   5.924   6.307
   51DA    H2'1 1618   7.093   5.947   6.285
   51DA    H2'2 1619   6.933   5.947   6.217
   51DA     O3' 1620   6.872   5.713   6.308
   52DT       P 1621   6.872   5.648   6.158
   52DT     O1P 1622   6.764   5.557   6.140
   52DT     O2P 1623   7.009   5.608   6.130
   52DT     O5' 1624   6.845   5.760   6.052
   52DT     C5' 1625   6.717   5.829   6.046
   52DT    H5'1 1626   6.682   5.853   6.142
   52DT    H5'2 1627   6.640   5.771   6.004
   52DT     C4' 1628   6.721   5.963   5.976
   52DT     H4' 1629   6.619   6.001   5.957
   52DT     O4' 1630   6.791   6.070   6.051
   52DT     C1' 1631   6.851   6.152   5.947
   52DT     H1' 1632   6.768   6.214   5.910
   52DT      N1 1633   6.959   6.241   5.997
   52DT      C6 1634   7.078   6.183   6.036
   52DT      H6 1635   7.096   6.079   6.041
   52DT      C5 1636   7.175   6.257   6.087
   52DT      C7 1637   7.307   6.192   6.136
   52DT     H71 1638   7.303   6.089   6.137
   52DT     H72 1639   7.395   6.221   6.076
   52DT     H73 1640   7.330   6.223   6.234
   52DT      C4 1641   7.169   6.400   6.087
   52DT      O4 1642   7.260   6.477   6.115
   52DT      N3 1643   7.049   6.449   6.046
   52DT      H3 1644   7.049   6.551   6.040
   52DT      C2 1645   6.946   6.380   6.001
   52DT      O2 1646   6.846   6.440   5.961
   52DT     C3' 1647   6.788   5.960   5.837
   52DT     H3' 1648   6.822   5.857   5.809
   52DT     C2' 1649   6.904   6.057   5.839
   52DT    H2'1 1650   6.990   5.995   5.869
   52DT    H2'2 1651   6.921   6.105   5.743
   52DT     O3' 1652   6.694   6.010   5.738
   53DA       P 1653   6.591   5.915   5.661
   53DA     O1P 1654   6.531   5.829   5.761
   53DA     O2P 1655   6.677   5.860   5.554
   53DA     O5' 1656   6.479   6.013   5.595
   53DA     C5' 1657   6.372   6.072   5.669
   53DA    H5'1 1658   6.390   6.038   5.774
   53DA    H5'2 1659   6.278   6.050   5.624
   53DA     C4' 1660   6.387   6.226   5.665
   53DA     H4' 1661   6.301   6.268   5.734
   53DA     O4' 1662   6.506   6.283   5.713
   53DA     C1' 1663   6.538   6.395   5.628
   53DA     H1' 1664   6.476   6.478   5.655
   53DA      N9 1665   6.685   6.420   5.648
   53DA      C8 1666   6.783   6.324   5.659
   53DA      H8 1667   6.765   6.221   5.649
   53DA      N7 1668   6.904   6.361   5.661
   53DA      C5 1669   6.889   6.496   5.669
   53DA      C6 1670   6.978   6.603   5.686
   53DA      N6 1671   7.103   6.591   5.724
   53DA     H61 1672   7.148   6.679   5.737
   53DA     H62 1673   7.158   6.504   5.734
   53DA      N1 1674   6.944   6.727   5.676
   53DA      C2 1675   6.814   6.754   5.662
   53DA      H2 1676   6.792   6.856   5.652
   53DA      N3 1677   6.716   6.666   5.652
   53DA      C4 1678   6.757   6.539   5.658
   53DA     C3' 1679   6.367   6.273   5.522
   53DA     H3' 1680   6.359   6.186   5.456
   53DA     C2' 1681   6.505   6.344   5.489
   53DA    H2'1 1682   6.580   6.269   5.456
   53DA    H2'2 1683   6.493   6.428   5.423
   53DA     O3' 1684   6.258   6.362   5.517
   54DA       P 1685   6.169   6.391   5.387
   54DA     O1P 1686   6.038   6.454   5.420
   54DA     O2P 1687   6.172   6.278   5.296
   54DA     O5' 1688   6.263   6.509   5.319
   54DA     C5' 1689   6.245   6.642   5.356
   54DA    H5'1 1690   6.229   6.654   5.466
   54DA    H5'2 1691   6.154   6.691   5.315
   54DA     C4' 1692   6.354   6.732   5.293
   54DA     H4' 1693   6.339   6.830   5.329
   54DA     O4' 1694   6.482   6.697   5.344
   54DA     C1' 1695   6.573   6.723   5.242
   54DA     H1' 1696   6.608   6.830   5.241
   54DA      N9 1697   6.688   6.635   5.259
   54DA      C8 1698   6.713   6.506   5.219
   54DA      H8 1699   6.635   6.436   5.184
   54DA      N7 1700   6.832   6.457   5.246
   54DA      C5 1701   6.895   6.571   5.299
   54DA      C6 1702   7.023   6.596   5.346
   54DA      N6 1703   7.118   6.506   5.360
   54DA     H61 1704   7.211   6.532   5.397
   54DA     H62 1705   7.093   6.410   5.351
   54DA      N1 1706   7.062   6.722   5.372
   54DA      C2 1707   6.969   6.819   5.363
   54DA      H2 1708   7.008   6.912   5.394
   54DA      N3 1709   6.844   6.810   5.332
   54DA      C4 1710   6.809   6.681   5.297
   54DA     C3' 1711   6.350   6.728   5.144
   54DA     H3' 1712   6.280   6.658   5.097
   54DA     C2' 1713   6.492   6.684   5.115
   54DA    H2'1 1714   6.487   6.580   5.110
   54DA    H2'2 1715   6.538   6.726   5.026
   54DA     O3' 1716   6.310   6.856   5.103
   55DT       P 1717   6.361   6.925   4.967
   55DT     O1P 1718   6.258   7.027   4.937
   55DT     O2P 1719   6.387   6.819   4.866
   55DT     O5' 1720   6.492   6.995   5.009
   55DT     C5' 1721   6.505   7.088   5.110
   55DT    H5'1 1722   6.511   7.041   5.207
   55DT    H5'2 1723   6.431   7.168   5.090
   55DT     C4' 1724   6.652   7.142   5.094
   55DT     H4' 1725   6.675   7.210   5.171
   55DT     O4' 1726   6.747   7.039   5.098
   55DT     C1' 1727   6.850   7.065   5.005
   55DT     H1' 1728   6.917   7.139   5.051
   55DT      N1 1729   6.924   6.938   4.977
   55DT      C6 1730   6.865   6.822   4.933
   55DT      H6 1731   6.771   6.829   4.895
   55DT      C5 1732   6.930   6.699   4.938
   55DT      C7 1733   6.863   6.581   4.876
   55DT     H71 1734   6.761   6.599   4.838
   55DT     H72 1735   6.924   6.534   4.804
   55DT     H73 1736   6.847   6.505   4.952
   55DT      C4 1737   7.066   6.699   4.981
   55DT      O4 1738   7.136   6.603   4.968
   55DT      N3 1739   7.121   6.823   5.028
   55DT      H3 1740   7.217   6.835   5.015
   55DT      C2 1741   7.051   6.938   5.036
   55DT      O2 1742   7.109   7.038   5.082
   55DT     C3' 1743   6.668   7.204   4.951
   55DT     H3' 1744   6.575   7.195   4.902
   55DT     C2' 1745   6.780   7.129   4.886
   55DT    H2'1 1746   6.738   7.054   4.821
   55DT    H2'2 1747   6.846   7.190   4.828
   55DT     O3' 1748   6.700   7.338   4.968
   56DA       P 1749   6.705   7.438   4.847
   56DA     O1P 1750   6.649   7.570   4.890
   56DA     O2P 1751   6.648   7.380   4.723
   56DA     O5' 1752   6.859   7.466   4.826
   56DA     C5' 1753   6.934   7.523   4.932
   56DA    H5'1 1754   6.940   7.457   5.012
   56DA    H5'2 1755   6.872   7.607   4.966
   56DA     C4' 1756   7.078   7.554   4.907
   56DA     H4' 1757   7.116   7.626   4.982
   56DA     O4' 1758   7.159   7.430   4.901
   56DA     C1' 1759   7.202   7.403   4.767
   56DA     H1' 1760   7.305   7.417   4.756
   56DA      N9 1761   7.174   7.261   4.752
   56DA      C8 1762   7.062   7.209   4.701
   56DA      H8 1763   6.979   7.271   4.680
   56DA      N7 1764   7.050   7.083   4.706
   56DA      C5 1765   7.181   7.043   4.740
   56DA      C6 1766   7.248   6.920   4.742
   56DA      N6 1767   7.193   6.803   4.705
   56DA     H61 1768   7.255   6.730   4.686
   56DA     H62 1769   7.093   6.798   4.673
   56DA      N1 1770   7.376   6.922   4.776
   56DA      C2 1771   7.435   7.033   4.812
   56DA      H2 1772   7.545   7.024   4.817
   56DA      N3 1773   7.394   7.156   4.813
   56DA      C4 1774   7.260   7.154   4.773
   56DA     C3' 1775   7.095   7.624   4.771
   56DA     H3' 1776   6.999   7.681   4.741
   56DA     C2' 1777   7.131   7.502   4.675
   56DA    H2'1 1778   7.043   7.455   4.635
   56DA    H2'2 1779   7.192   7.536   4.594
   56DA     O3' 1780   7.201   7.722   4.785
   57DC       P 1781   7.266   7.808   4.662
   57DC     O1P 1782   7.344   7.918   4.719
   57DC     O2P 1783   7.150   7.837   4.569
   57DC     O5' 1784   7.372   7.719   4.588
   57DC     C5' 1785   7.489   7.679   4.658
   57DC    H5'1 1786   7.473   7.664   4.764
   57DC    H5'2 1787   7.568   7.758   4.639
   57DC     C4' 1788   7.560   7.553   4.601
   57DC     H4' 1789   7.645   7.521   4.660
   57DC     O4' 1790   7.479   7.434   4.600
   57DC     C1' 1791   7.556   7.353   4.519
   57DC     H1' 1792   7.634   7.300   4.575
   57DC      N1 1793   7.474   7.244   4.459
   57DC      C6 1794   7.365   7.278   4.387
   57DC      H6 1795   7.343   7.385   4.369
   57DC      C5 1796   7.281   7.184   4.344
   57DC      H5 1797   7.194   7.207   4.293
   57DC      C4 1798   7.319   7.046   4.372
   57DC      N4 1799   7.246   6.948   4.329
   57DC     H41 1800   7.280   6.858   4.362
   57DC     H42 1801   7.157   6.960   4.286
   57DC      N3 1802   7.431   7.004   4.435
   57DC      C2 1803   7.503   7.109   4.484
   57DC      O2 1804   7.608   7.079   4.542
   57DC     C3' 1805   7.618   7.575   4.459
   57DC     H3' 1806   7.539   7.628   4.406
   57DC     C2' 1807   7.633   7.430   4.414
   57DC    H2'1 1808   7.592   7.414   4.315
   57DC    H2'2 1809   7.731   7.395   4.417
   57DC     O3' 1810   7.747   7.640   4.442
   58DG       P 1811   7.825   7.652   4.300
   58DG     O1P 1812   7.931   7.757   4.305
   58DG     O2P 1813   7.726   7.659   4.190
   58DG     O5' 1814   7.897   7.509   4.291
   58DG     C5' 1815   7.991   7.473   4.392
   58DG    H5'1 1816   7.949   7.495   4.490
   58DG    H5'2 1817   8.077   7.536   4.392
   58DG     C4' 1818   8.035   7.321   4.395
   58DG     H4' 1819   8.081   7.312   4.496
   58DG     O4' 1820   7.934   7.223   4.377
   58DG     C1' 1821   7.948   7.156   4.249
   58DG     H1' 1822   7.994   7.057   4.253
   58DG      N9 1823   7.814   7.151   4.186
   58DG      C8 1824   7.722   7.255   4.167
   58DG      H8 1825   7.760   7.358   4.175
   58DG      N7 1826   7.597   7.223   4.134
   58DG      C5 1827   7.611   7.083   4.135
   58DG      C6 1828   7.512   6.981   4.111
   58DG      O6 1829   7.397   6.993   4.081
   58DG      N1 1830   7.565   6.850   4.129
   58DG      H1 1831   7.504   6.776   4.107
   58DG      C2 1832   7.699   6.825   4.146
   58DG      N2 1833   7.751   6.708   4.136
   58DG     H21 1834   7.690   6.636   4.087
   58DG     H22 1835   7.851   6.705   4.133
   58DG      N3 1836   7.787   6.917   4.171
   58DG      C4 1837   7.739   7.039   4.166
   58DG     C3' 1838   8.131   7.291   4.278
   58DG     H3' 1839   8.189   7.374   4.239
   58DG     C2' 1840   8.039   7.238   4.172
   58DG    H2'1 1841   7.984   7.313   4.114
   58DG    H2'2 1842   8.092   7.173   4.104
   58DG     O3' 1843   8.225   7.187   4.321
   59DC       P 1844   8.371   7.161   4.255
   59DC     O1P 1845   8.446   7.077   4.352
   59DC     O2P 1846   8.423   7.297   4.216
   59DC     O5' 1847   8.346   7.075   4.121
   59DC     C5' 1848   8.328   6.935   4.123
   59DC    H5'1 1849   8.263   6.905   4.213
   59DC    H5'2 1850   8.429   6.895   4.130
   59DC     C4' 1851   8.276   6.872   3.996
   59DC     H4' 1852   8.281   6.762   4.002
   59DC     O4' 1853   8.140   6.912   3.985
   59DC     C1' 1854   8.121   6.933   3.849
   59DC     H1' 1855   8.116   6.841   3.793
   59DC      N1 1856   7.992   7.008   3.832
   59DC      C6 1857   7.973   7.148   3.830
   59DC      H6 1858   8.053   7.213   3.846
   59DC      C5 1859   7.846   7.195   3.819
   59DC      H5 1860   7.845   7.300   3.826
   59DC      C4 1861   7.730   7.108   3.815
   59DC      N4 1862   7.608   7.155   3.832
   59DC     H41 1863   7.531   7.091   3.827
   59DC     H42 1864   7.605   7.252   3.858
   59DC      N3 1865   7.753   6.977   3.817
   59DC      C2 1866   7.880   6.928   3.827
   59DC      O2 1867   7.891   6.804   3.824
   59DC     C3' 1868   8.352   6.926   3.874
   59DC     H3' 1869   8.433   6.988   3.914
   59DC     C2' 1870   8.246   7.018   3.805
   59DC    H2'1 1871   8.245   7.118   3.852
   59DC    H2'2 1872   8.247   7.017   3.693
   59DC     O3' 1873   8.410   6.832   3.788
   60DA       P 1874   8.553   6.855   3.730
   60DA     O1P 1875   8.649   6.859   3.842
   60DA     O2P 1876   8.548   6.976   3.638
   60DA     O5' 1877   8.570   6.729   3.637
   60DA     C5' 1878   8.547   6.591   3.681
   60DA    H5'1 1879   8.518   6.596   3.786
   60DA    H5'2 1880   8.645   6.545   3.673
   60DA     C4' 1881   8.444   6.514   3.596
   60DA     H4' 1882   8.449   6.410   3.618
   60DA     O4' 1883   8.314   6.573   3.619
   60DA     C1' 1884   8.256   6.610   3.494
   60DA     H1' 1885   8.205   6.526   3.447
   60DA      N9 1886   8.166   6.723   3.505
   60DA      C8 1887   8.196   6.861   3.513
   60DA      H8 1888   8.300   6.890   3.516
   60DA      N7 1889   8.095   6.944   3.490
   60DA      C5 1890   7.988   6.854   3.491
   60DA      C6 1891   7.847   6.865   3.469
   60DA      N6 1892   7.780   6.978   3.459
   60DA     H61 1893   7.681   6.979   3.438
   60DA     H62 1894   7.839   7.057   3.450
   60DA      N1 1895   7.773   6.757   3.449
   60DA      C2 1896   7.832   6.641   3.444
   60DA      H2 1897   7.776   6.551   3.430
   60DA      N3 1898   7.956   6.612   3.465
   60DA      C4 1899   8.031   6.722   3.486
   60DA     C3' 1900   8.472   6.527   3.443
   60DA     H3' 1901   8.572   6.552   3.424
   60DA     C2' 1902   8.380   6.634   3.400
   60DA    H2'1 1903   8.434   6.726   3.432
   60DA    H2'2 1904   8.348   6.625   3.295
   60DA     O3' 1905   8.426   6.409   3.370
   61DC       P 1906   8.458   6.393   3.211
   61DC     O1P 1907   8.524   6.257   3.188
   61DC     O2P 1908   8.525   6.515   3.154
   61DC     O5' 1909   8.315   6.380   3.147
   61DC     C5' 1910   8.222   6.278   3.181
   61DC    H5'1 1911   8.195   6.285   3.287
   61DC    H5'2 1912   8.279   6.184   3.160
   61DC     C4' 1913   8.090   6.284   3.106
   61DC     H4' 1914   8.044   6.193   3.143
   61DC     O4' 1915   8.009   6.400   3.143
   61DC     C1' 1916   7.996   6.485   3.039
   61DC     H1' 1917   7.897   6.475   2.995
   61DC      N1 1918   7.998   6.626   3.089
   61DC      C6 1919   8.119   6.687   3.102
   61DC      H6 1920   8.210   6.629   3.103
   61DC      C5 1921   8.127   6.822   3.134
   61DC      H5 1922   8.224   6.868   3.160
   61DC      C4 1923   8.003   6.896   3.153
   61DC      N4 1924   8.000   7.024   3.181
   61DC     H41 1925   7.911   7.056   3.188
   61DC     H42 1926   8.086   7.074   3.203
   61DC      N3 1927   7.882   6.838   3.133
   61DC      C2 1928   7.880   6.706   3.100
   61DC      O2 1929   7.769   6.657   3.074
   61DC     C3' 1930   8.105   6.282   2.954
   61DC     H3' 1931   8.197   6.229   2.923
   61DC     C2' 1932   8.105   6.435   2.935
   61DC    H2'1 1933   8.205   6.476   2.953
   61DC    H2'2 1934   8.087   6.457   2.827
   61DC     O3' 1935   7.991   6.218   2.899
   62DA       P 1936   7.960   6.224   2.739
   62DA     O1P 1937   7.892   6.100   2.695
   62DA     O2P 1938   8.073   6.276   2.660
   62DA     O5' 1939   7.849   6.342   2.742
   62DA     C5' 1940   7.713   6.308   2.766
   62DA    H5'1 1941   7.699   6.299   2.874
   62DA    H5'2 1942   7.688   6.216   2.717
   62DA     C4' 1943   7.614   6.405   2.704
   62DA     H4' 1944   7.510   6.379   2.723
   62DA     O4' 1945   7.635   6.530   2.765
   62DA     C1' 1946   7.662   6.630   2.671
   62DA     H1' 1947   7.572   6.683   2.649
   62DA      N9 1948   7.759   6.723   2.728
   62DA      C8 1949   7.892   6.700   2.755
   62DA      H8 1950   7.939   6.600   2.749
   62DA      N7 1951   7.958   6.804   2.792
   62DA      C5 1952   7.854   6.901   2.793
   62DA      C6 1953   7.850   7.034   2.828
   62DA      N6 1954   7.947   7.115   2.864
   62DA     H61 1955   7.929   7.209   2.903
   62DA     H62 1956   8.039   7.076   2.862
   62DA      N1 1957   7.736   7.107   2.821
   62DA      C2 1958   7.628   7.048   2.778
   62DA      H2 1959   7.539   7.105   2.777
   62DA      N3 1960   7.614   6.924   2.748
   62DA      C4 1961   7.733   6.855   2.758
   62DA     C3' 1962   7.641   6.421   2.552
   62DA     H3' 1963   7.713   6.344   2.529
   62DA     C2' 1964   7.707   6.557   2.542
   62DA    H2'1 1965   7.815   6.547   2.545
   62DA    H2'2 1966   7.678   6.611   2.453
   62DA     O3' 1967   7.518   6.391   2.481
   63DT       P 1968   7.497   6.429   2.328
   63DT     O1P 1969   7.384   6.349   2.283
   63DT     O2P 1970   7.623   6.409   2.249
   63DT     O5' 1971   7.463   6.584   2.320
   63DT     C5' 1972   7.352   6.633   2.389
   63DT    H5'1 1973   7.359   6.614   2.495
   63DT    H5'2 1974   7.266   6.596   2.343
   63DT     C4' 1975   7.347   6.787   2.375
   63DT     H4' 1976   7.255   6.808   2.421
   63DT     O4' 1977   7.451   6.853   2.446
   63DT     C1' 1978   7.490   6.956   2.370
   63DT     H1' 1979   7.421   7.033   2.402
   63DT      N1 1980   7.628   6.986   2.407
   63DT      C6 1981   7.737   6.897   2.393
   63DT      H6 1982   7.711   6.801   2.354
   63DT      C5 1983   7.869   6.921   2.427
   63DT      C7 1984   7.972   6.820   2.410
   63DT     H71 1985   8.036   6.817   2.499
   63DT     H72 1986   7.926   6.721   2.386
   63DT     H73 1987   8.038   6.856   2.326
   63DT      C4 1988   7.901   7.054   2.479
   63DT      O4 1989   8.007   7.099   2.524
   63DT      N3 1990   7.791   7.141   2.492
   63DT      H3 1991   7.818   7.230   2.526
   63DT      C2 1992   7.657   7.115   2.462
   63DT      O2 1993   7.569   7.205   2.468
   63DT     C3' 1994   7.336   6.836   2.230
   63DT     H3' 1995   7.339   6.741   2.166
   63DT     C2' 1996   7.467   6.911   2.223
   63DT    H2'1 1997   7.543   6.842   2.197
   63DT    H2'2 1998   7.454   6.993   2.154
   63DT     O3' 1999   7.227   6.924   2.219
   64DG       P 2000   7.156   6.944   2.076
   64DG     O1P 2001   7.010   6.972   2.098
   64DG     O2P 2002   7.182   6.833   1.986
   64DG     O5' 2003   7.227   7.066   2.008
   64DG     C5' 2004   7.200   7.203   2.040
   64DG    H5'1 2005   7.173   7.217   2.146
   64DG    H5'2 2006   7.107   7.230   1.989
   64DG     C4' 2007   7.312   7.294   1.991
   64DG     H4' 2008   7.290   7.407   2.000
   64DG     O4' 2009   7.426   7.260   2.066
   64DG     C1' 2010   7.539   7.276   1.979
   64DG     H1' 2011   7.560   7.382   1.965
   64DG      N9 2012   7.659   7.215   2.036
   64DG      C8 2013   7.698   7.086   2.048
   64DG      H8 2014   7.643   7.003   2.010
   64DG      N7 2015   7.816   7.068   2.100
   64DG      C5 2016   7.856   7.196   2.140
   64DG      C6 2017   7.969   7.252   2.214
   64DG      O6 2018   8.067   7.205   2.263
   64DG      N1 2019   7.954   7.386   2.236
   64DG      H1 2020   8.036   7.435   2.281
   64DG      C2 2021   7.857   7.466   2.193
   64DG      N2 2022   7.855   7.591   2.224
   64DG     H21 2023   7.924   7.629   2.292
   64DG     H22 2024   7.770   7.641   2.206
   64DG      N3 2025   7.750   7.420   2.134
   64DG      C4 2026   7.749   7.285   2.107
   64DG     C3' 2027   7.357   7.269   1.843
   64DG     H3' 2028   7.286   7.214   1.784
   64DG     C2' 2029   7.492   7.204   1.851
   64DG    H2'1 2030   7.478   7.097   1.872
   64DG    H2'2 2031   7.548   7.217   1.762
   64DG     O3' 2032   7.364   7.393   1.768
   65DC       P 2033   7.230   7.465   1.706
   65DC     O1P 2034   7.113   7.429   1.786
   65DC     O2P 2035   7.215   7.436   1.566
   65DC     O5' 2036   7.254   7.619   1.718
   65DC     C5' 2037   7.276   7.684   1.845
   65DC    H5'1 2038   7.301   7.608   1.920
   65DC    H5'2 2039   7.186   7.735   1.879
   65DC     C4' 2040   7.393   7.777   1.837
   65DC     H4' 2041   7.377   7.856   1.912
   65DC     O4' 2042   7.516   7.710   1.884
   65DC     C1' 2043   7.632   7.744   1.806
   65DC     H1' 2044   7.680   7.837   1.839
   65DC      N1 2045   7.730   7.628   1.811
   65DC      C6 2046   7.710   7.509   1.750
   65DC      H6 2047   7.613   7.488   1.709
   65DC      C5 2048   7.803   7.414   1.761
   65DC      H5 2049   7.781   7.320   1.723
   65DC      C4 2050   7.919   7.442   1.839
   65DC      N4 2051   7.992   7.340   1.868
   65DC     H41 2052   8.077   7.361   1.916
   65DC     H42 2053   7.956   7.254   1.839
   65DC      N3 2054   7.942   7.555   1.904
   65DC      C2 2055   7.844   7.650   1.889
   65DC      O2 2056   7.862   7.758   1.944
   65DC     C3' 2057   7.428   7.845   1.709
   65DC     H3' 2058   7.352   7.821   1.629
   65DC     C2' 2059   7.565   7.771   1.673
   65DC    H2'1 2060   7.537   7.672   1.628
   65DC    H2'2 2061   7.626   7.821   1.596
   65DC     O3' 2062   7.439   7.980   1.736
   66DG3      P 2063   7.532   8.082   1.656
   66DG3    O1P 2064   7.463   8.205   1.689
   66DG3    O2P 2065   7.529   8.048   1.514
   66DG3    O5' 2066   7.682   8.091   1.716
   66DG3    C5' 2067   7.704   8.122   1.851
   66DG3   H5'1 2068   7.685   8.030   1.911
   66DG3   H5'2 2069   7.629   8.199   1.873
   66DG3    C4' 2070   7.840   8.172   1.892
   66DG3    H4' 2071   7.824   8.213   1.987
   66DG3    O4' 2072   7.926   8.057   1.902
   66DG3    C1' 2073   8.021   8.054   1.795
   66DG3    H1' 2074   8.115   8.077   1.842
   66DG3     N9 2075   8.023   7.923   1.743
   66DG3     C8 2076   7.929   7.863   1.669
   66DG3     H8 2077   7.834   7.906   1.643
   66DG3     N7 2078   7.968   7.745   1.615
   66DG3     C5 2079   8.097   7.728   1.668
   66DG3     C6 2080   8.188   7.613   1.662
   66DG3     O6 2081   8.182   7.504   1.602
   66DG3     N1 2082   8.303   7.638   1.726
   66DG3     H1 2083   8.374   7.571   1.724
   66DG3     C2 2084   8.332   7.759   1.783
   66DG3     N2 2085   8.450   7.776   1.831
   66DG3    H21 2086   8.519   7.698   1.833
   66DG3    H22 2087   8.481   7.867   1.865
   66DG3     N3 2088   8.248   7.863   1.801
   66DG3     C4 2089   8.131   7.841   1.742
   66DG3    C3' 2090   7.900   8.264   1.786
   66DG3    H3' 2091   7.818   8.310   1.729
   66DG3    C2' 2092   7.983   8.167   1.699
   66DG3   H2'1 2093   7.924   8.128   1.611
   66DG3   H2'2 2094   8.078   8.214   1.663
   66DG3    O3' 2095   7.974   8.367   1.844
   66DG3    H3T 2096   8.056   8.327   1.883
   67SOL     OW 2097   7.558   1.660   3.023
   67SOL    HW1 2098   7.602   1.743   3.043
   67SOL    HW2 2099   7.533   1.625   3.109
   68SOL     OW 2100   4.902  14.452   2.223
   68SOL    HW1 2101   4.926  14.539   2.254
   68SOL    HW2 2102   4.985  14.410   2.203
   69SOL     OW 2103   8.325   4.200   4.209
   69SOL    HW1 2104   8.238   4.222   4.243
   69SOL    HW2 2105   8.366   4.284   4.190
   70SOL     OW 2106  12.405  11.893   3.601
   70SOL    HW1 2107  12.378  11.811   3.643
   70SOL    HW2 2108  12.387  11.880   3.508
   71SOL     OW 2109   4.903  10.877   5.392
   71SOL    HW1 2110   4.815  10.905   5.413
   71SOL    HW2 2111   4.890  10.801   5.335
   72SOL     OW 2112   2.505  11.291   4.685
   72SOL    HW1 2113   2.563  11.365   4.702
   72SOL    HW2 2114   2.439  11.295   4.755
   73SOL     OW 2115   7.758   7.703  14.333
   73SOL    HW1 2116   7.781   7.682  14.242
   73SOL    HW2 2117   7.720   7.791  14.328
   74SOL     OW 2118   4.176  13.703   1.153
   74SOL    HW1 2119   4.256  13.746   1.122
   74SOL    HW2 2120   4.113  13.774   1.161
   75SOL     OW 2121   4.631   3.721   0.944
   75SOL    HW1 2122   4.582   3.801   0.963
   75SOL    HW2 2123   4.564   3.654   0.932
   76SOL     OW 2124  13.424   2.235   9.160
   76SOL    HW1 2125  13.514   2.230   9.192
   76SOL    HW2 2126  13.432   2.227   9.065
   77SOL     OW 2127   0.216   0.884   7.178
   77SOL    HW1 2128   0.228   0.832   7.257
   77SOL    HW2 2129   0.193   0.971   7.211
   78SOL     OW 2130   4.059   8.487   1.724
   78SOL    HW1 2131   3.984   8.503   1.780
   78SOL    HW2 2132   4.026   8.499   1.635
   79SOL     OW 2133   4.704   8.270   4.129
   79SOL    HW1 2134   4.791   8.245   4.160
   79SOL    HW2 2135   4.720   8.337   4.063
   80SOL     OW 2136   7.247  14.755   1.636
   80SOL    HW1 2137   7.277  14.841   1.667
   80SOL    HW2 2138   7.252  14.699   1.714
   81SOL     OW 2139  12.502  11.684  11.876
   81SOL    HW1 2140  12.449  11.634  11.937
   81SOL    HW2 2141  12.440  11.738  11.828
   82SOL     OW 2142  11.587  10.682   7.739
   82SOL    HW1 2143  11.576  10.587   7.752
   82SOL    HW2 2144  11.663  10.690   7.682
   83SOL     OW 2145   3.146   8.549   9.698
   83SOL    HW1 2146   3.172   8.471   9.747
   83SOL    HW2 2147   3.055   8.565   9.726
   84SOL     OW 2148   2.566   7.058  10.474
   84SOL    HW1 2149   2.627   7.020  10.538
   84SOL    HW2 2150   2.555   6.990  10.408
   85SOL     OW 2151   8.322   1.400  11.350
   85SOL    HW1 2152   8.311   1.492  11.324
   85SOL    HW2 2153   8.417   1.387  11.351
   86SOL     OW 2154   2.586  11.594  11.655
   86SOL    HW1 2155   2.536  11.517  11.685
   86SOL    HW2 2156   2.519  11.659  11.635
   87SOL     OW 2157   8.296   7.339   3.091
   87SOL    HW1 2158   8.293   7.400   3.018
   87SOL    HW2 2159   8.211   7.348   3.134
   88SOL     OW 2160   1.675   0.702   8.638
   88SOL    HW1 2161   1.765   0.672   8.626
   88SOL    HW2 2162   1.646   0.658   8.719
   89SOL     OW 2163   1.862  13.679   4.637
   89SOL    HW1 2164   1.845  13.612   4.571
   89SOL    HW2 2165   1.947  13.655   4.674
   90SOL     OW 2166   5.744   6.527  14.841
   90SOL    HW1 2167   5.794   6.601  14.807
   90SOL    HW2 2168   5.719   6.554   0.057
   91SOL     OW 2169   6.943   0.234  12.907
   91SOL    HW1 2170   7.036   0.247  12.885
   91SOL    HW2 2171   6.907   0.322  12.910
   92SOL     OW 2172   9.719   7.432  11.454
   92SOL    HW1 2173   9.754   7.508  11.501
   92SOL    HW2 2174   9.631   7.420  11.491
   93SOL     OW 2175   0.359   1.494   7.092
   93SOL    HW1 2176   0.354   1.576   7.042
   93SOL    HW2 2177   0.269   1.461   7.091
   94SOL     OW 2178   2.829   3.153   4.568
   94SOL    HW1 2179   2.787   3.067   4.564
   94SOL    HW2 2180   2.906   3.140   4.624
   95SOL     OW 2181   5.157  11.838  11.893
   95SOL    HW1 2182   5.092  11.773  11.867
   95SOL    HW2 2183   5.177  11.886  11.812
   96SOL     OW 2184   6.405   9.064   0.737
   96SOL    HW1 2185   6.445   9.145   0.769
   96SOL    HW2 2186   6.317   9.090   0.711
   97SOL     OW 2187   7.739   1.009   8.988
   97SOL    HW1 2188   7.767   1.018   9.079
   97SOL    HW2 2189   7.793   1.072   8.940
   98SOL     OW 2190   5.403  13.597  10.976
   98SOL    HW1 2191   5.351  13.555  11.044
   98SOL    HW2 2192   5.461  13.528  10.944
   99SOL     OW 2193   1.314  13.134   3.290
   99SOL    HW1 2194   1.277  13.104   3.207
   99SOL    HW2 2195   1.290  13.065   3.352
  100SOL     OW 2196  10.327   1.681  10.949
  100SOL    HW1 2197  10.262   1.729  10.896
  100SOL    HW2 2198  10.313   1.714  11.038
  101SOL     OW 2199   5.309  11.926  11.160
  101SOL    HW1 2200   5.396  11.948  11.127
  101SOL    HW2 2201   5.322  11.848  11.213
  102SOL     OW 2202   7.097   2.083  13.385
  102SOL    HW1 2203   7.083   2.003  13.334
  102SOL    HW2 2204   7.190   2.079  13.409
  103SOL     OW 2205  10.977   7.505   2.064
  103SOL    HW1 2206  10.979   7.570   2.135
  103SOL    HW2 2207  10.890   7.514   2.025
  104SOL     OW 2208  13.400  10.027   7.377
  104SOL    HW1 2209  13.460  10.101   7.373
  104SOL    HW2 2210  13.387  10.012   7.470
  105SOL     OW 2211   1.545   5.560   6.843
  105SOL    HW1 2212   1.478   5.494   6.859
  105SOL    HW2 2213   1.553   5.565   6.748
  106SOL     OW 2214  14.175   2.596   7.862
  106SOL    HW1 2215  14.164   2.579   7.768
  106SOL    HW2 2216  14.214   2.683   7.866
  107SOL     OW 2217   1.324   5.660  12.047
  107SOL    HW1 2218   1.254   5.646  11.982
  107SOL    HW2 2219   1.285   5.633  12.130
  108SOL     OW 2220  13.673  12.064   5.426
  108SOL    HW1 2221  13.598  12.098   5.377
  108SOL    HW2 2222  13.660  12.097   5.515
  109SOL     OW 2223   3.397   5.233   7.815
  109SOL    HW1 2224   3.468   5.281   7.772
  109SOL    HW2 2225   3.383   5.279   7.898
  110SOL     OW 2226  10.003  10.677   0.108
  110SOL    HW1 2227  10.006  10.724   0.025
  110SOL    HW2 2228   9.912  10.647   0.115
  111SOL     OW 2229   8.125   2.911   5.003
  111SOL    HW1 2230   8.201   2.865   5.039
  111SOL    HW2 2231   8.059   2.905   5.073
  112SOL     OW 2232  13.999  12.283   7.875
  112SOL    HW1 2233  13.908  12.279   7.847
  112SOL    HW2 2234  14.013  12.375   7.897
  113SOL     OW 2235   9.398   8.947  14.179
  113SOL    HW1 2236   9.425   8.897  14.255
  113SOL    HW2 2237   9.479   8.980  14.141
  114SOL     OW 2238   2.491   9.197   4.188
  114SOL    HW1 2239   2.428   9.175   4.258
  114SOL    HW2 2240   2.573   9.159   4.218
  115SOL     OW 2241   3.245   3.836   6.102
  115SOL    HW1 2242   3.271   3.782   6.028
  115SOL    HW2 2243   3.290   3.919   6.088
  116SOL     OW 2244   8.020   3.658   2.332
  116SOL    HW1 2245   7.955   3.723   2.305
  116SOL    HW2 2246   7.971   3.577   2.342
  117SOL     OW 2247   8.095   2.381   4.819
  117SOL    HW1 2248   8.095   2.476   4.812
  117SOL    HW2 2249   8.008   2.359   4.852
  118SOL     OW 2250  12.639   2.315  13.406
  118SOL    HW1 2251  12.706   2.335  13.340
  118SOL    HW2 2252  12.556   2.319  13.359
  119SOL     OW 2253   7.726  10.432   2.185
  119SOL    HW1 2254   7.682  10.480   2.115
  119SOL    HW2 2255   7.660  10.371   2.218
  120SOL     OW 2256   4.421   6.376   5.179
  120SOL    HW1 2257   4.442   6.469   5.183
  120SOL    HW2 2258   4.488   6.334   5.233
  121SOL     OW 2259   7.291  13.943   6.190
  121SOL    HW1 2260   7.385  13.947   6.176
  121SOL    HW2 2261   7.276  13.996   6.269
  122SOL     OW 2262   1.209  13.455   9.983
  122SOL    HW1 2263   1.198  13.548   9.960
  122SOL    HW2 2264   1.231  13.412   9.901
  123SOL     OW 2265  11.916   7.002  12.896
  123SOL    HW1 2266  11.960   6.987  12.812
  123SOL    HW2 2267  11.833   7.045  12.872
  124SOL     OW 2268   7.237   7.250  10.484
  124SOL    HW1 2269   7.324   7.224  10.453
  124SOL    HW2 2270   7.244   7.249  10.579
  125SOL     OW 2271   0.954  10.336   9.953
  125SOL    HW1 2272   1.040  10.305   9.926
  125SOL    HW2 2273   0.971  10.410  10.011
  126SOL     OW 2274   3.488   3.186  14.259
  126SOL    HW1 2275   3.412   3.208  14.205
  126SOL    HW2 2276   3.563   3.214  14.207
  127SOL     OW 2277   8.538   0.537   7.079
  127SOL    HW1 2278   8.628   0.569   7.071
  127SOL    HW2 2279   8.513   0.515   6.989
  128SOL     OW 2280  12.601  10.299  13.786
  128SOL    HW1 2281  12.662  10.340  13.725
  128SOL    HW2 2282  12.636  10.319  13.873
  129SOL     OW 2283  12.193   0.945   4.777
  129SOL    HW1 2284  12.258   0.876   4.790
  129SOL    HW2 2285  12.109   0.901   4.789
  130SOL     OW 2286  11.278   7.096   6.810
  130SOL    HW1 2287  11.302   7.188   6.799
  130SOL    HW2 2288  11.188   7.099   6.842
  131SOL     OW 2289   2.980   3.563   5.209
  131SOL    HW1 2290   3.015   3.475   5.222
  131SOL    HW2 2291   2.973   3.599   5.298
  132SOL     OW 2292   8.164  13.566  14.482
  132SOL    HW1 2293   8.243  13.580  14.429
  132SOL    HW2 2294   8.175  13.624  14.557
  133SOL     OW 2295   2.668  13.761   4.693
  133SOL    HW1 2296   2.648  13.810   4.614
  133SOL    HW2 2297   2.583  13.745   4.734
  134SOL     OW 2298   3.956   4.458   4.937
  134SOL    HW1 2299   3.877   4.476   4.885
  134SOL    HW2 2300   3.974   4.541   4.982
  135SOL     OW 2301   3.746   5.174   6.169
  135SOL    HW1 2302   3.731   5.100   6.110
  135SOL    HW2 2303   3.698   5.151   6.249
  136SOL     OW 2304   9.043   3.361   7.927
  136SOL    HW1 2305   9.085   3.447   7.934
  136SOL    HW2 2306   9.108   3.305   7.886
  137SOL     OW 2307  10.108  10.841  13.460
  137SOL    HW1 2308  10.193  10.885  13.450
  137SOL    HW2 2309  10.122  10.779  13.532
  138SOL     OW 2310   2.581   8.399  11.976
  138SOL    HW1 2311   2.632   8.331  12.021
  138SOL    HW2 2312   2.492   8.385  12.007
  139SOL     OW 2313  12.514  11.221   7.119
  139SOL    HW1 2314  12.596  11.174   7.104
  139SOL    HW2 2315  12.449  11.153   7.134
  140SOL     OW 2316   1.573   2.527  11.266
  140SOL    HW1 2317   1.556   2.584  11.341
  140SOL    HW2 2318   1.653   2.480  11.290
  141SOL     OW 2319   9.366   9.568   4.477
  141SOL    HW1 2320   9.320   9.585   4.395
  141SOL    HW2 2321   9.439   9.511   4.453
  142SOL     OW 2322  10.124  13.750   7.156
  142SOL    HW1 2323  10.110  13.838   7.122
  142SOL    HW2 2324  10.162  13.701   7.083
  143SOL     OW 2325   1.690  10.670   0.179
  143SOL    HW1 2326   1.649  10.751   0.209
  143SOL    HW2 2327   1.729  10.692   0.095
  144SOL     OW 2328   5.608  11.575   9.588
  144SOL    HW1 2329   5.658  11.572   9.506
  144SOL    HW2 2330   5.674  11.560   9.656
  145SOL     OW 2331   6.343   8.900   8.300
  145SOL    HW1 2332   6.387   8.817   8.279
  145SOL    HW2 2333   6.354   8.909   8.395
  146SOL     OW 2334   8.176  12.854  10.766
  146SOL    HW1 2335   8.218  12.890  10.689
  146SOL    HW2 2336   8.082  12.865  10.750
  147SOL     OW 2337   8.974   9.641   0.831
  147SOL    HW1 2338   8.971   9.736   0.819
  147SOL    HW2 2339   8.935   9.606   0.751
  148SOL     OW 2340  12.204   0.216   4.594
  148SOL    HW1 2341  12.283   0.244   4.548
  148SOL    HW2 2342  12.195   0.123   4.573
  149SOL     OW 2343   6.236  12.782   3.335
  149SOL    HW1 2344   6.154  12.828   3.352
  149SOL    HW2 2345   6.239  12.713   3.402
  150SOL     OW 2346  11.767   0.931   2.532
  150SOL    HW1 2347  11.700   0.952   2.596
  150SOL    HW2 2348  11.726   0.949   2.447
  151SOL     OW 2349   3.169   6.241   5.428
  151SOL    HW1 2350   3.222   6.300   5.482
  151SOL    HW2 2351   3.157   6.163   5.483
  152SOL     OW 2352   6.182   3.189  12.778
  152SOL    HW1 2353   6.256   3.129  12.782
  152SOL    HW2 2354   6.217   3.267  12.733
  153SOL     OW 2355   7.945   1.977   2.325
  153SOL    HW1 2356   7.883   1.931   2.268
  153SOL    HW2 2357   7.897   2.054   2.356
  154SOL     OW 2358  14.491  10.472  10.413
  154SOL    HW1 2359  14.491  10.404  10.345
  154SOL    HW2 2360  14.526  10.428  10.491
  155SOL     OW 2361   5.721  12.365  10.998
  155SOL    HW1 2362   5.716  12.433  11.065
  155SOL    HW2 2363   5.629  12.343  10.980
  156SOL     OW 2364   6.492   9.296   0.917
  156SOL    HW1 2365   6.415   9.277   0.971
  156SOL    HW2 2366   6.547   9.351   0.972
  157SOL     OW 2367   4.453   2.895   7.342
  157SOL    HW1 2368   4.428   2.854   7.424
  157SOL    HW2 2369   4.516   2.963   7.367
  158SOL     OW 2370   7.171  13.886  10.297
  158SOL    HW1 2371   7.176  13.823  10.369
  158SOL    HW2 2372   7.098  13.943  10.320
  159SOL     OW 2373  14.591  11.608   0.884
  159SOL    HW1 2374  14.646  11.682   0.858
  159SOL    HW2 2375  14.552  11.635   0.967
  160SOL     OW 2376   9.038   9.675   4.702
  160SOL    HW1 2377   8.968   9.612   4.686
  160SOL    HW2 2378   9.053   9.716   4.617
  161SOL     OW 2379  11.097   0.402   3.106
  161SOL    HW1 2380  11.004   0.401   3.128
  161SOL    HW2 2381  11.124   0.493   3.121
  162SOL     OW 2382  12.635   7.676  12.482
  162SOL    HW1 2383  12.608   7.610  12.417
  162SOL    HW2 2384  12.587   7.755  12.457
  163SOL     OW 2385  11.815  13.264  12.850
  163SOL    HW1 2386  11.763  13.344  12.850
  163SOL    HW2 2387  11.774  13.208  12.785
  164SOL     OW 2388   5.289   1.274   3.334
  164SOL    HW1 2389   5.321   1.337   3.397
  164SOL    HW2 2390   5.196   1.264   3.354
  165SOL     OW 2391   0.476   4.438   7.371
  165SOL    HW1 2392   0.432   4.354   7.358
  165SOL    HW2 2393   0.538   4.421   7.443
  166SOL     OW 2394   8.777   9.773   6.523
  166SOL    HW1 2395   8.737   9.740   6.603
  166SOL    HW2 2396   8.870   9.777   6.543
  167SOL     OW 2397   3.821   1.288  12.929
  167SOL    HW1 2398   3.893   1.327  12.880
  167SOL    HW2 2399   3.816   1.198  12.898
  168SOL     OW 2400  14.427   3.785   8.220
  168SOL    HW1 2401  14.483   3.753   8.291
  168SOL    HW2 2402  14.475   3.765   8.140
  169SOL     OW 2403  11.959   1.515   3.761
  169SOL    HW1 2404  11.938   1.546   3.849
  169SOL    HW2 2405  11.876   1.486   3.724
  170SOL     OW 2406   9.809   1.194  12.358
  170SOL    HW1 2407   9.716   1.191  12.335
  170SOL    HW2 2408   9.825   1.287  12.376
  171SOL     OW 2409  11.395  11.247   4.214
  171SOL    HW1 2410  11.375  11.268   4.122
  171SOL    HW2 2411  11.491  11.240   4.217
  172SOL     OW 2412   8.447   5.505   4.935
  172SOL    HW1 2413   8.410   5.464   5.013
  172SOL    HW2 2414   8.371   5.536   4.886
  173SOL     OW 2415  13.316   4.797   7.918
  173SOL    HW1 2416  13.372   4.841   7.982
  173SOL    HW2 2417  13.268   4.732   7.969
  174SOL     OW 2418  12.184   3.448   6.489
  174SOL    HW1 2419  12.108   3.488   6.531
  174SOL    HW2 2420  12.248   3.518   6.483
  175SOL     OW 2421   9.107   3.338   1.883
  175SOL    HW1 2422   9.094   3.351   1.977
  175SOL    HW2 2423   9.037   3.278   1.858
  176SOL     OW 2424  10.768   5.802   7.860
  176SOL    HW1 2425  10.678   5.769   7.862
  176SOL    HW2 2426  10.799   5.791   7.950
  177SOL     OW 2427  10.207   2.095   0.275
  177SOL    HW1 2428  10.283   2.114   0.219
  177SOL    HW2 2429  10.163   2.180   0.285
  178SOL     OW 2430   7.741  14.211   2.667
  178SOL    HW1 2431   7.806  14.209   2.596
  178SOL    HW2 2432   7.669  14.264   2.632
  179SOL     OW 2433   7.547  13.806   6.355
  179SOL    HW1 2434   7.540  13.892   6.312
  179SOL    HW2 2435   7.640  13.798   6.376
  180SOL     OW 2436  10.118   0.629  10.840
  180SOL    HW1 2437  10.194   0.581  10.872
  180SOL    HW2 2438  10.147   0.666  10.757
  181SOL     OW 2439  11.337  11.313   6.461
  181SOL    HW1 2440  11.395  11.237   6.466
  181SOL    HW2 2441  11.252  11.281   6.491
  182SOL     OW 2442   4.542  12.896   9.593
  182SOL    HW1 2443   4.599  12.832   9.551
  182SOL    HW2 2444   4.558  12.978   9.546
  183SOL     OW 2445   8.512   4.054   2.562
  183SOL    HW1 2446   8.460   4.126   2.597
  183SOL    HW2 2447   8.599   4.091   2.546
  184SOL     OW 2448  12.436  12.926   6.157
  184SOL    HW1 2449  12.434  13.018   6.130
  184SOL    HW2 2450  12.519  12.893   6.123
  185SOL     OW 2451   3.803  11.480  12.779
  185SOL    HW1 2452   3.714  11.458  12.752
  185SOL    HW2 2453   3.848  11.395  12.785
  186SOL     OW 2454  13.212   3.252  13.659
  186SOL    HW1 2455  13.236   3.345  13.653
  186SOL    HW2 2456  13.181   3.241  13.749
  187SOL     OW 2457   9.856   5.961  14.339
  187SOL    HW1 2458   9.871   5.868  14.355
  187SOL    HW2 2459   9.941   6.001  14.351
  188SOL     OW 2460   0.102   4.933   9.469
  188SOL    HW1 2461   0.087   4.948   9.375
  188SOL    HW2 2462   0.014   4.931   9.507
  189SOL     OW 2463   8.608   8.183   3.418
  189SOL    HW1 2464   8.546   8.123   3.377
  189SOL    HW2 2465   8.674   8.198   3.351
  190SOL     OW 2466   1.712   8.521   6.827
  190SOL    HW1 2467   1.707   8.492   6.736
  190SOL    HW2 2468   1.806   8.519   6.847
  191SOL     OW 2469   7.345   4.278   7.606
  191SOL    HW1 2470   7.299   4.353   7.568
  191SOL    HW2 2471   7.303   4.264   7.691
  192SOL     OW 2472   9.651   0.024  14.112
  192SOL    HW1 2473   9.721  14.848  14.156
  192SOL    HW2 2474   9.572   0.006  14.164
  193SOL     OW 2475   9.906   9.679   0.130
  193SOL    HW1 2476   9.967   9.615   0.166
  193SOL    HW2 2477   9.854   9.631   0.065
  194SOL     OW 2478   4.336   7.899   3.779
  194SOL    HW1 2479   4.405   7.858   3.726
  194SOL    HW2 2480   4.371   7.899   3.868
  195SOL     OW 2481   5.990   0.464   1.926
  195SOL    HW1 2482   5.895   0.450   1.932
  195SOL    HW2 2483   6.018   0.406   1.855
  196SOL     OW 2484  12.225   9.203  10.263
  196SOL    HW1 2485  12.145   9.244  10.294
  196SOL    HW2 2486  12.244   9.135  10.327
  197SOL     OW 2487  13.161   7.814  11.312
  197SOL    HW1 2488  13.106   7.735  11.305
  197SOL    HW2 2489  13.188   7.817  11.403
  198SOL     OW 2490   9.080  12.622   4.223
  198SOL    HW1 2491   8.995  12.664   4.213
  198SOL    HW2 2492   9.143  12.689   4.196
  199SOL     OW 2493   3.892   0.147   4.175
  199SOL    HW1 2494   3.915   0.217   4.237
  199SOL    HW2 2495   3.800   0.161   4.155
  200SOL     OW 2496   5.189  12.815   1.277
  200SOL    HW1 2497   5.234  12.831   1.194
  200SOL    HW2 2498   5.173  12.902   1.313
  201SOL     OW 2499   9.693  13.128   1.101
  201SOL    HW1 2500   9.616  13.120   1.045
  201SOL    HW2 2501   9.662  13.103   1.188
  202SOL     OW 2502  13.930   7.100  10.102
  202SOL    HW1 2503  13.901   7.080  10.191
  202SOL    HW2 2504  13.894   7.029  10.048
  203SOL     OW 2505   1.154   1.148   6.758
  203SOL    HW1 2506   1.146   1.128   6.851
  203SOL    HW2 2507   1.126   1.067   6.714
  204SOL     OW 2508  10.338   9.608   2.158
  204SOL    HW1 2509  10.258   9.570   2.195
  204SOL    HW2 2510  10.398   9.615   2.233
  205SOL     OW 2511   3.208   3.263  13.731
  205SOL    HW1 2512   3.194   3.349  13.771
  205SOL    HW2 2513   3.301   3.260  13.712
  206SOL     OW 2514   3.233   7.815  13.151
  206SOL    HW1 2515   3.200   7.832  13.063
  206SOL    HW2 2516   3.163   7.846  13.209
  207SOL     OW 2517   5.191   7.633  11.140
  207SOL    HW1 2518   5.144   7.657  11.061
  207SOL    HW2 2519   5.181   7.709  11.198
  208SOL     OW 2520   4.739   7.733   6.018
  208SOL    HW1 2521   4.808   7.672   6.046
  208SOL    HW2 2522   4.683   7.743   6.096
  209SOL     OW 2523  13.011  11.736   1.727
  209SOL    HW1 2524  13.003  11.804   1.661
  209SOL    HW2 2525  13.057  11.778   1.800
  210SOL     OW 2526  10.539   8.178   5.977
  210SOL    HW1 2527  10.481   8.232   5.923
  210SOL    HW2 2528  10.514   8.088   5.958
  211SOL     OW 2529  10.261  11.315  10.245
  211SOL    HW1 2530  10.267  11.282  10.155
  211SOL    HW2 2531  10.285  11.408  10.239
  212SOL     OW 2532   3.420   4.775   2.746
  212SOL    HW1 2533   3.426   4.799   2.839
  212SOL    HW2 2534   3.498   4.813   2.707
  213SOL     OW 2535   6.259   4.444   3.774
  213SOL    HW1 2536   6.167   4.465   3.789
  213SOL    HW2 2537   6.283   4.491   3.694
  214SOL     OW 2538   3.703  11.737   0.925
  214SOL    HW1 2539   3.672  11.741   0.834
  214SOL    HW2 2540   3.656  11.808   0.969
  215SOL     OW 2541   5.628   7.399  13.279
  215SOL    HW1 2542   5.609   7.474  13.335
  215SOL    HW2 2543   5.561   7.402  13.211
  216SOL     OW 2544   6.039  13.262   9.772
  216SOL    HW1 2545   5.959  13.270   9.823
  216SOL    HW2 2546   6.086  13.344   9.789
  217SOL     OW 2547   5.336   1.810  11.178
  217SOL    HW1 2548   5.273   1.818  11.106
  217SOL    HW2 2549   5.419   1.789  11.134
  218SOL     OW 2550   1.769   2.253  12.841
  218SOL    HW1 2551   1.699   2.236  12.778
  218SOL    HW2 2552   1.832   2.183  12.827
  219SOL     OW 2553   1.170   7.422  11.993
  219SOL    HW1 2554   1.250   7.473  12.008
  219SOL    HW2 2555   1.176   7.395  11.901
  220SOL     OW 2556  14.023   7.036  11.569
  220SOL    HW1 2557  13.987   7.003  11.651
  220SOL    HW2 2558  13.946   7.064  11.519
  221SOL     OW 2559  12.564   7.469   6.355
  221SOL    HW1 2560  12.507   7.395   6.335
  221SOL    HW2 2561  12.504   7.541   6.373
  222SOL     OW 2562   3.479   5.596   7.570
  222SOL    HW1 2563   3.489   5.604   7.475
  222SOL    HW2 2564   3.399   5.543   7.580
  223SOL     OW 2565  13.155  12.764   0.171
  223SOL    HW1 2566  13.147  12.774   0.076
  223SOL    HW2 2567  13.066  12.775   0.204
  224SOL     OW 2568   7.277  11.180  12.647
  224SOL    HW1 2569   7.351  11.157  12.704
  224SOL    HW2 2570   7.315  11.242  12.584
  225SOL     OW 2571   2.291  10.215  13.641
  225SOL    HW1 2572   2.341  10.165  13.706
  225SOL    HW2 2573   2.300  10.165  13.560
  226SOL     OW 2574  11.190  11.667   4.389
  226SOL    HW1 2575  11.224  11.738   4.443
  226SOL    HW2 2576  11.257  11.598   4.395
  227SOL     OW 2577   4.367  12.131   0.232
  227SOL    HW1 2578   4.394  12.220   0.251
  227SOL    HW2 2579   4.338  12.134   0.140
  228SOL     OW 2580  13.094  10.302   2.418
  228SOL    HW1 2581  13.171  10.343   2.458
  228SOL    HW2 2582  13.129  10.229   2.367
  229SOL     OW 2583   0.345   2.580   7.503
  229SOL    HW1 2584   0.361   2.541   7.417
  229SOL    HW2 2585   0.263   2.540   7.533
  230SOL     OW 2586   7.512   4.344  13.089
  230SOL    HW1 2587   7.525   4.387  13.005
  230SOL    HW2 2588   7.429   4.297  13.079
  231SOL     OW 2589   9.534  14.479   9.265
  231SOL    HW1 2590   9.445  14.479   9.229
  231SOL    HW2 2591   9.525  14.517   9.352
  232SOL     OW 2592   6.658  13.974   9.444
  232SOL    HW1 2593   6.726  14.031   9.479
  232SOL    HW2 2594   6.667  13.982   9.349
  233SOL     OW 2595  10.961   6.633   2.465
  233SOL    HW1 2596  11.015   6.555   2.454
  233SOL    HW2 2597  10.975   6.683   2.385
  234SOL     OW 2598  14.366  13.782   3.334
  234SOL    HW1 2599  14.395  13.760   3.423
  234SOL    HW2 2600  14.301  13.714   3.313
  235SOL     OW 2601   3.131  14.498  14.354
  235SOL    HW1 2602   3.082  14.554  14.294
  235SOL    HW2 2603   3.083  14.504  14.437
  236SOL     OW 2604   9.231  10.327   5.061
  236SOL    HW1 2605   9.216  10.247   5.011
  236SOL    HW2 2606   9.161  10.385   5.034
  237SOL     OW 2607  11.448   5.922  11.262
  237SOL    HW1 2608  11.454   5.826  11.264
  237SOL    HW2 2609  11.368   5.942  11.311
  238SOL     OW 2610   3.747   4.556   1.746
  238SOL    HW1 2611   3.814   4.622   1.729
  238SOL    HW2 2612   3.762   4.488   1.680
  239SOL     OW 2613  10.690   4.383   1.897
  239SOL    HW1 2614  10.682   4.287   1.898
  239SOL    HW2 2615  10.647   4.411   1.977
  240SOL     OW 2616  11.692  11.091  11.470
  240SOL    HW1 2617  11.784  11.064  11.469
  240SOL    HW2 2618  11.652  11.043  11.398
  241SOL     OW 2619  12.298   5.225   0.858
  241SOL    HW1 2620  12.284   5.284   0.933
  241SOL    HW2 2621  12.210   5.193   0.837
  242SOL     OW 2622   4.420   0.668   3.760
  242SOL    HW1 2623   4.417   0.752   3.714
  242SOL    HW2 2624   4.416   0.692   3.853
  243SOL     OW 2625   5.956   6.549  14.479
  243SOL    HW1 2626   5.930   6.457  14.477
  243SOL    HW2 2627   5.976   6.570  14.388
  244SOL     OW 2628   6.487   8.816   4.496
  244SOL    HW1 2629   6.417   8.757   4.524
  244SOL    HW2 2630   6.443   8.880   4.440
  245SOL     OW 2631  10.684  11.749  14.076
  245SOL    HW1 2632  10.730  11.781  14.153
  245SOL    HW2 2633  10.591  11.752  14.100
  246SOL     OW 2634   5.780   0.587   1.725
  246SOL    HW1 2635   5.724   0.598   1.648
  246SOL    HW2 2636   5.813   0.497   1.718
  247SOL     OW 2637   9.571   9.911   2.955
  247SOL    HW1 2638   9.514   9.917   3.032
  247SOL    HW2 2639   9.515   9.872   2.887
  248SOL     OW 2640   1.262  13.374   1.071
  248SOL    HW1 2641   1.250  13.454   1.019
  248SOL    HW2 2642   1.355  13.353   1.061
  249SOL     OW 2643  11.254   3.600   7.110
  249SOL    HW1 2644  11.262   3.572   7.202
  249SOL    HW2 2645  11.160   3.615   7.098
  250SOL     OW 2646   4.801   9.951   5.114
  250SOL    HW1 2647   4.745  10.000   5.175
  250SOL    HW2 2648   4.890   9.978   5.137
  251SOL     OW 2649   5.828   7.537   0.604
  251SOL    HW1 2650   5.855   7.447   0.588
  251SOL    HW2 2651   5.911   7.585   0.613
  252SOL     OW 2652   8.412  14.165   0.531
  252SOL    HW1 2653   8.476  14.216   0.580
  252SOL    HW2 2654   8.437  14.074   0.545
  253SOL     OW 2655  14.082   9.363   9.963
  253SOL    HW1 2656  14.174   9.356   9.937
  253SOL    HW2 2657  14.050   9.441   9.918
  254SOL     OW 2658  14.222   1.488   6.105
  254SOL    HW1 2659  14.200   1.539   6.183
  254SOL    HW2 2660  14.149   1.503   6.045
  255SOL     OW 2661   2.537  14.482   3.831
  255SOL    HW1 2662   2.509  14.474   3.740
  255SOL    HW2 2663   2.479  14.548   3.869
  256SOL     OW 2664   2.080  11.744   4.797
  256SOL    HW1 2665   2.000  11.762   4.846
  256SOL    HW2 2666   2.101  11.827   4.755
  257SOL     OW 2667   8.176   9.699   2.274
  257SOL    HW1 2668   8.264   9.663   2.279
  257SOL    HW2 2669   8.146   9.679   2.185
  258SOL     OW 2670   2.050  13.735  12.562
  258SOL    HW1 2671   2.132  13.738  12.611
  258SOL    HW2 2672   1.982  13.750  12.628
  259SOL     OW 2673   7.264   1.823  14.085
  259SOL    HW1 2674   7.241   1.807  14.176
  259SOL    HW2 2675   7.253   1.918  14.073
  260SOL     OW 2676  14.146  11.722   4.904
  260SOL    HW1 2677  14.208  11.704   4.975
  260SOL    HW2 2678  14.060  11.706   4.943
  261SOL     OW 2679  13.760   4.736   5.364
  261SOL    HW1 2680  13.725   4.663   5.313
  261SOL    HW2 2681  13.682   4.781   5.397
  262SOL     OW 2682  12.406  10.864   6.381
  262SOL    HW1 2683  12.491  10.894   6.411
  262SOL    HW2 2684  12.418  10.847   6.288
  263SOL     OW 2685  10.882   0.250  13.201
  263SOL    HW1 2686  10.959   0.303  13.182
  263SOL    HW2 2687  10.815   0.283  13.140
  264SOL     OW 2688   9.214   0.042   2.675
  264SOL    HW1 2689   9.135   0.032   2.622
  264SOL    HW2 2690   9.182   0.063   2.762
  265SOL     OW 2691  12.076  14.272  10.124
  265SOL    HW1 2692  12.024  14.352  10.125
  265SOL    HW2 2693  12.133  14.280  10.048
  266SOL     OW 2694  13.631   3.500  10.589
  266SOL    HW1 2695  13.548   3.454  10.602
  266SOL    HW2 2696  13.677   3.449  10.523
  267SOL     OW 2697  14.261   9.839   3.261
  267SOL    HW1 2698  14.344   9.822   3.217
  267SOL    HW2 2699  14.198   9.852   3.190
  268SOL     OW 2700   3.826  12.248   1.219
  268SOL    HW1 2701   3.902  12.192   1.204
  268SOL    HW2 2702   3.861  12.336   1.227
  269SOL     OW 2703   0.928   2.516  10.973
  269SOL    HW1 2704   0.994   2.579  10.943
  269SOL    HW2 2705   0.947   2.503  11.065
  270SOL     OW 2706   7.585   1.215   1.144
  270SOL    HW1 2707   7.517   1.148   1.156
  270SOL    HW2 2708   7.594   1.256   1.230
  271SOL     OW 2709   8.958   8.999  14.050
  271SOL    HW1 2710   9.033   9.026  14.103
  271SOL    HW2 2711   8.994   8.988  13.962
  272SOL     OW 2712   4.517   0.403   9.675
  272SOL    HW1 2713   4.567   0.478   9.642
  272SOL    HW2 2714   4.467   0.439   9.748
  273SOL     OW 2715   2.231   6.827  11.716
  273SOL    HW1 2716   2.273   6.811  11.632
  273SOL    HW2 2717   2.276   6.903  11.752
  274SOL     OW 2718   8.706   2.395   8.703
  274SOL    HW1 2719   8.671   2.404   8.792
  274SOL    HW2 2720   8.663   2.463   8.652
  275SOL     OW 2721   9.607   3.127   6.438
  275SOL    HW1 2722   9.575   3.059   6.497
  275SOL    HW2 2723   9.663   3.182   6.493
  276SOL     OW 2724   6.640  10.872   7.873
  276SOL    HW1 2725   6.638  10.940   7.940
  276SOL    HW2 2726   6.662  10.792   7.921
  277SOL     OW 2727  11.159   2.488   5.739
  277SOL    HW1 2728  11.192   2.416   5.686
  277SOL    HW2 2729  11.188   2.567   5.694
  278SOL     OW 2730   1.909   3.899   6.122
  278SOL    HW1 2731   1.923   3.922   6.030
  278SOL    HW2 2732   1.847   3.826   6.119
  279SOL     OW 2733   3.431   0.429   5.013
  279SOL    HW1 2734   3.340   0.432   4.984
  279SOL    HW2 2735   3.482   0.420   4.932
  280SOL     OW 2736  11.085   8.488   3.919
  280SOL    HW1 2737  11.047   8.433   3.987
  280SOL    HW2 2738  11.096   8.574   3.961
  281SOL     OW 2739   8.970   1.400   8.020
  281SOL    HW1 2740   9.055   1.433   8.049
  281SOL    HW2 2741   8.944   1.338   8.088
  282SOL     OW 2742   7.159   8.243   6.074
  282SOL    HW1 2743   7.081   8.298   6.073
  282SOL    HW2 2744   7.124   8.154   6.079
  283SOL     OW 2745  13.039   1.260  10.009
  283SOL    HW1 2746  13.119   1.306  10.033
  283SOL    HW2 2747  13.022   1.201  10.082
  284SOL     OW 2748  13.139   6.630   3.256
  284SOL    HW1 2749  13.222   6.676   3.264
  284SOL    HW2 2750  13.079   6.694   3.219
  285SOL     OW 2751  10.728   5.760  12.325
  285SOL    HW1 2752  10.780   5.840  12.319
  285SOL    HW2 2753  10.642   5.790  12.354
  286SOL     OW 2754   8.468   3.610  12.233
  286SOL    HW1 2755   8.397   3.599  12.296
  286SOL    HW2 2756   8.539   3.648  12.284
  287SOL     OW 2757   3.056   1.661   2.495
  287SOL    HW1 2758   3.013   1.602   2.558
  287SOL    HW2 2759   3.128   1.610   2.460
  288SOL     OW 2760   1.118   4.843  14.303
  288SOL    HW1 2761   1.123   4.796  14.220
  288SOL    HW2 2762   1.208   4.844  14.336
  289SOL     OW 2763   8.731   1.692   7.374
  289SOL    HW1 2764   8.645   1.733   7.385
  289SOL    HW2 2765   8.777   1.713   7.456
  290SOL     OW 2766  11.172   2.817   2.639
  290SOL    HW1 2767  11.103   2.816   2.705
  290SOL    HW2 2768  11.177   2.726   2.608
  291SOL     OW 2769   7.590  13.630  14.173
  291SOL    HW1 2770   7.523  13.678  14.126
  291SOL    HW2 2771   7.550  13.610  14.258
  292SOL     OW 2772  13.414   2.314   6.430
  292SOL    HW1 2773  13.328   2.356   6.442
  292SOL    HW2 2774  13.419   2.297   6.337
  293SOL     OW 2775   5.618   0.159   9.040
  293SOL    HW1 2776   5.560   0.157   8.964
  293SOL    HW2 2777   5.657   0.072   9.042
  294SOL     OW 2778   3.860   5.526   6.189
  294SOL    HW1 2779   3.847   5.614   6.152
  294SOL    HW2 2780   3.952   5.525   6.216
  295SOL     OW 2781   3.225   4.183   4.436
  295SOL    HW1 2782   3.211   4.215   4.347
  295SOL    HW2 2783   3.199   4.091   4.432
  296SOL     OW 2784  10.854   3.228  10.554
  296SOL    HW1 2785  10.925   3.191  10.606
  296SOL    HW2 2786  10.801   3.152  10.529
  297SOL     OW 2787  13.626   5.106  11.912
  297SOL    HW1 2788  13.685   5.031  11.917
  297SOL    HW2 2789  13.579   5.104  11.996
  298SOL     OW 2790  13.714   4.020   4.394
  298SOL    HW1 2791  13.659   4.085   4.437
  298SOL    HW2 2792  13.669   4.002   4.311
  299SOL     OW 2793   9.014   3.010  14.304
  299SOL    HW1 2794   8.969   2.927  14.315
  299SOL    HW2 2795   8.955   3.064  14.253
  300SOL     OW 2796   3.036  13.738  14.201
  300SOL    HW1 2797   3.088  13.680  14.144
  300SOL    HW2 2798   3.102  13.790  14.247
  301SOL     OW 2799   5.785  14.094   8.693
  301SOL    HW1 2800   5.843  14.050   8.631
  301SOL    HW2 2801   5.836  14.100   8.774
  302SOL     OW 2802   4.848   5.907   8.131
  302SOL    HW1 2803   4.863   5.982   8.190
  302SOL    HW2 2804   4.891   5.933   8.049
  303SOL     OW 2805   6.453   5.674   0.416
  303SOL    HW1 2806   6.526   5.656   0.475
  303SOL    HW2 2807   6.405   5.745   0.458
  304SOL     OW 2808  13.180  10.487  11.923
  304SOL    HW1 2809  13.186  10.395  11.895
  304SOL    HW2 2810  13.098  10.518  11.884
  305SOL     OW 2811   7.467   5.299  13.384
  305SOL    HW1 2812   7.409   5.349  13.442
  305SOL    HW2 2813   7.411   5.231  13.347
  306SOL     OW 2814   8.359  13.752   1.391
  306SOL    HW1 2815   8.321  13.717   1.311
  306SOL    HW2 2816   8.306  13.714   1.461
  307SOL     OW 2817   1.246   5.220   0.646
  307SOL    HW1 2818   1.180   5.186   0.707
  307SOL    HW2 2819   1.241   5.162   0.570
  308SOL     OW 2820   8.559   2.292   5.230
  308SOL    HW1 2821   8.598   2.236   5.297
  308SOL    HW2 2822   8.612   2.276   5.152
  309SOL     OW 2823   5.393   6.998   2.777
  309SOL    HW1 2824   5.358   6.915   2.743
  309SOL    HW2 2825   5.319   7.059   2.769
  310SOL     OW 2826  10.482   1.339  11.278
  310SOL    HW1 2827  10.442   1.262  11.238
  310SOL    HW2 2828  10.566   1.348  11.232
  311SOL     OW 2829   9.856  12.435   5.105
  311SOL    HW1 2830   9.770  12.410   5.140
  311SOL    HW2 2831   9.876  12.518   5.148
  312SOL     OW 2832  11.578   4.268  13.402
  312SOL    HW1 2833  11.585   4.210  13.477
  312SOL    HW2 2834  11.569   4.355  13.439
  313SOL     OW 2835   4.916   9.965  10.908
  313SOL    HW1 2836   4.855   9.973  10.835
  313SOL    HW2 2837   4.968   9.887  10.889
  314SOL     OW 2838  12.656   5.913  11.090
  314SOL    HW1 2839  12.607   5.862  11.155
  314SOL    HW2 2840  12.645   6.004  11.117
  315SOL     OW 2841   2.309   5.127  11.891
  315SOL    HW1 2842   2.379   5.063  11.906
  315SOL    HW2 2843   2.265   5.096  11.812
  316SOL     OW 2844   9.340   6.154   6.746
  316SOL    HW1 2845   9.266   6.209   6.721
  316SOL    HW2 2846   9.413   6.215   6.758
  317SOL     OW 2847   0.013   7.697   1.616
  317SOL    HW1 2848  14.823   7.703   1.687
  317SOL    HW2 2849   0.057   7.782   1.614
  318SOL     OW 2850   8.773  10.081   6.577
  318SOL    HW1 2851   8.697  10.023   6.571
  318SOL    HW2 2852   8.741  10.166   6.546
  319SOL     OW 2853   8.263  10.552   0.869
  319SOL    HW1 2854   8.296  10.532   0.956
  319SOL    HW2 2855   8.258  10.467   0.824
  320SOL     OW 2856  12.352   6.318   7.858
  320SOL    HW1 2857  12.420   6.353   7.800
  320SOL    HW2 2858  12.315   6.395   7.900
  321SOL     OW 2859   9.694   0.682   3.211
  321SOL    HW1 2860   9.690   0.724   3.297
  321SOL    HW2 2861   9.685   0.589   3.230
  322SOL     OW 2862   8.983   1.147   7.746
  322SOL    HW1 2863   8.919   1.095   7.794
  322SOL    HW2 2864   8.944   1.234   7.739
  323SOL     OW 2865  12.811   5.185   1.725
  323SOL    HW1 2866  12.758   5.134   1.787
  323SOL    HW2 2867  12.804   5.137   1.642
  324SOL     OW 2868   2.023   9.364  12.061
  324SOL    HW1 2869   1.985   9.343  11.976
  324SOL    HW2 2870   2.117   9.375  12.044
  325SOL     OW 2871   2.342   4.600  14.349
  325SOL    HW1 2872   2.381   4.599  14.262
  325SOL    HW2 2873   2.353   4.690  14.379
  326SOL     OW 2874   9.538   9.020   1.059
  326SOL    HW1 2875   9.610   9.004   0.998
  326SOL    HW2 2876   9.476   9.073   1.009
  327SOL     OW 2877  12.409   6.818   3.028
  327SOL    HW1 2878  12.430   6.726   3.047
  327SOL    HW2 2879  12.404   6.860   3.114
  328SOL     OW 2880   3.817   9.143   9.651
  328SOL    HW1 2881   3.783   9.053   9.649
  328SOL    HW2 2882   3.827   9.167   9.559
  329SOL     OW 2883   8.250   5.504   1.997
  329SOL    HW1 2884   8.271   5.411   2.007
  329SOL    HW2 2885   8.326   5.550   2.033
  330SOL     OW 2886  10.599   6.783   3.086
  330SOL    HW1 2887  10.532   6.758   3.149
  330SOL    HW2 2888  10.606   6.878   3.096
  331SOL     OW 2889   0.916   0.273  10.045
  331SOL    HW1 2890   0.903   0.272   9.951
  331SOL    HW2 2891   0.969   0.196  10.063
  332SOL     OW 2892  11.829   9.629   8.383
  332SOL    HW1 2893  11.825   9.675   8.466
  332SOL    HW2 2894  11.911   9.580   8.387
  333SOL     OW 2895   5.997   1.251   7.646
  333SOL    HW1 2896   5.966   1.261   7.736
  333SOL    HW2 2897   5.938   1.187   7.607
  334SOL     OW 2898  12.184   4.003  14.188
  334SOL    HW1 2899  12.258   3.990  14.128
  334SOL    HW2 2900  12.140   4.081  14.155
  335SOL     OW 2901   2.652   8.024   8.972
  335SOL    HW1 2902   2.717   7.969   9.015
  335SOL    HW2 2903   2.614   7.968   8.904
  336SOL     OW 2904  14.859   0.604   0.638
  336SOL    HW1 2905  14.789   0.543   0.663
  336SOL    HW2 2906  14.855   0.606   0.542
  337SOL     OW 2907  12.966   6.584  13.528
  337SOL    HW1 2908  13.002   6.609  13.443
  337SOL    HW2 2909  13.031   6.612  13.592
  338SOL     OW 2910   5.829   6.530  13.920
  338SOL    HW1 2911   5.782   6.610  13.943
  338SOL    HW2 2912   5.920   6.546  13.947
  339SOL     OW 2913   9.203   5.447   0.215
  339SOL    HW1 2914   9.183   5.497   0.294
  339SOL    HW2 2915   9.290   5.477   0.189
  340SOL     OW 2916   5.657   6.481   5.989
  340SOL    HW1 2917   5.674   6.412   5.925
  340SOL    HW2 2918   5.733   6.479   6.047
  341SOL     OW 2919   5.372  14.223   6.488
  341SOL    HW1 2920   5.363  14.290   6.556
  341SOL    HW2 2921   5.466  14.204   6.485
  342SOL     OW 2922   2.975   4.759   1.471
  342SOL    HW1 2923   2.962   4.842   1.425
  342SOL    HW2 2924   2.917   4.765   1.547
  343SOL     OW 2925   4.589  14.106   0.861
  343SOL    HW1 2926   4.568  14.070   0.775
  343SOL    HW2 2927   4.514  14.161   0.883
  344SOL     OW 2928   3.633   2.231   9.604
  344SOL    HW1 2929   3.641   2.253   9.697
  344SOL    HW2 2930   3.539   2.221   9.590
  345SOL     OW 2931  12.508  10.082   1.538
  345SOL    HW1 2932  12.429  10.039   1.571
  345SOL    HW2 2933  12.509  10.061   1.445
  346SOL     OW 2934   3.036   8.388  14.346
  346SOL    HW1 2935   3.050   8.309  14.398
  346SOL    HW2 2936   3.045   8.359  14.255
  347SOL     OW 2937   1.893   8.316   5.244
  347SOL    HW1 2938   1.889   8.382   5.313
  347SOL    HW2 2939   1.966   8.343   5.189
  348SOL     OW 2940   4.504  11.350   9.870
  348SOL    HW1 2941   4.462  11.272   9.904
  348SOL    HW2 2942   4.432  11.410   9.851
  349SOL     OW 2943   7.665   0.823   0.637
  349SOL    HW1 2944   7.666   0.902   0.691
  349SOL    HW2 2945   7.596   0.769   0.674
  350SOL     OW 2946  10.060   6.164   1.346
  350SOL    HW1 2947  10.069   6.121   1.261
  350SOL    HW2 2948   9.971   6.199   1.346
  351SOL     OW 2949   0.807  12.213  14.811
  351SOL    HW1 2950   0.858  12.272  14.867
  351SOL    HW2 2951   0.869  12.146  14.783
  352SOL     OW 2952   9.016   6.509   3.745
  352SOL    HW1 2953   8.951   6.576   3.765
  352SOL    HW2 2954   9.089   6.558   3.706
  353SOL     OW 2955   8.676   4.714  14.563
  353SOL    HW1 2956   8.721   4.688  14.483
  353SOL    HW2 2957   8.606   4.772  14.534
  354SOL     OW 2958   9.754   3.909   0.041
  354SOL    HW1 2959   9.806   3.981   0.077
  354SOL    HW2 2960   9.725   3.941  14.828
  355SOL     OW 2961  10.409   9.190   7.177
  355SOL    HW1 2962  10.371   9.167   7.262
  355SOL    HW2 2963  10.421   9.106   7.132
  356SOL     OW 2964  11.916  13.176  13.664
  356SOL    HW1 2965  11.844  13.188  13.602
  356SOL    HW2 2966  11.917  13.257  13.716
  357SOL     OW 2967  10.300   6.596   6.138
  357SOL    HW1 2968  10.334   6.557   6.058
  357SOL    HW2 2969  10.281   6.521   6.195
  358SOL     OW 2970   6.347   3.050   1.839
  358SOL    HW1 2971   6.329   3.135   1.797
  358SOL    HW2 2972   6.323   2.985   1.773
  359SOL     OW 2973   5.170   1.805  13.123
  359SOL    HW1 2974   5.161   1.886  13.073
  359SOL    HW2 2975   5.083   1.789  13.160
  360SOL     OW 2976   1.095  12.832   4.552
  360SOL    HW1 2977   1.051  12.776   4.616
  360SOL    HW2 2978   1.036  12.906   4.541
  361SOL     OW 2979   9.485  13.635   4.272
  361SOL    HW1 2980   9.511  13.659   4.361
  361SOL    HW2 2981   9.512  13.709   4.219
  362SOL     OW 2982   4.070   8.280   0.921
  362SOL    HW1 2983   4.146   8.239   0.880
  362SOL    HW2 2984   4.091   8.373   0.924
  363SOL     OW 2985   4.972  10.981  14.290
  363SOL    HW1 2986   4.994  10.969  14.382
  363SOL    HW2 2987   5.057  10.989  14.246
  364SOL     OW 2988  11.478   9.153   6.226
  364SOL    HW1 2989  11.407   9.194   6.177
  364SOL    HW2 2990  11.490   9.210   6.303
  365SOL     OW 2991   6.933   8.281   4.447
  365SOL    HW1 2992   6.920   8.306   4.538
  365SOL    HW2 2993   7.009   8.223   4.448
  366SOL     OW 2994   5.227   3.502   2.490
  366SOL    HW1 2995   5.305   3.447   2.493
  366SOL    HW2 2996   5.159   3.445   2.456
  367SOL     OW 2997   7.059   1.053   0.383
  367SOL    HW1 2998   7.090   1.069   0.472
  367SOL    HW2 2999   7.016   1.135   0.357
  368SOL     OW 3000   8.133   9.764  11.093
  368SOL    HW1 3001   8.066   9.832  11.088
  368SOL    HW2 3002   8.090   9.685  11.059
  369SOL     OW 3003   1.280   1.993   5.346
  369SOL    HW1 3004   1.298   1.907   5.308
  369SOL    HW2 3005   1.187   1.991   5.367
  370SOL     OW 3006   7.090   1.175   8.159
  370SOL    HW1 3007   7.028   1.137   8.095
  370SOL    HW2 3008   7.037   1.189   8.238
  371SOL     OW 3009   4.900   2.181   4.115
  371SOL    HW1 3010   4.891   2.102   4.062
  371SOL    HW2 3011   4.972   2.162   4.175
  372SOL     OW 3012   2.104   1.701   7.466
  372SOL    HW1 3013   2.146   1.614   7.466
  372SOL    HW2 3014   2.174   1.761   7.492
  373SOL     OW 3015   7.571   5.237   3.550
  373SOL    HW1 3016   7.646   5.220   3.607
  373SOL    HW2 3017   7.606   5.296   3.483
  374SOL     OW 3018   3.423   8.023  13.259
  374SOL    HW1 3019   3.373   8.052  13.183
  374SOL    HW2 3020   3.422   7.927  13.254
  375SOL     OW 3021   4.402  11.007   3.921
  375SOL    HW1 3022   4.345  11.081   3.937
  375SOL    HW2 3023   4.372  10.970   3.838
  376SOL     OW 3024  13.625   1.668   9.919
  376SOL    HW1 3025  13.644   1.599   9.855
  376SOL    HW2 3026  13.664   1.747   9.881
  377SOL     OW 3027  14.598  11.278   7.764
  377SOL    HW1 3028  14.540  11.279   7.840
  377SOL    HW2 3029  14.594  11.188   7.732
  378SOL     OW 3030  12.166  13.088  12.748
  378SOL    HW1 3031  12.205  13.117  12.666
  378SOL    HW2 3032  12.241  13.060  12.801
  379SOL     OW 3033  10.761   4.048   8.155
  379SOL    HW1 3034  10.698   3.989   8.196
  379SOL    HW2 3035  10.707   4.115   8.113
  380SOL     OW 3036  13.320   4.584  11.764
  380SOL    HW1 3037  13.271   4.531  11.827
  380SOL    HW2 3038  13.367   4.648  11.817
  381SOL     OW 3039   3.101  13.299   2.974
  381SOL    HW1 3040   3.058  13.225   2.931
  381SOL    HW2 3041   3.070  13.295   3.065
  382SOL     OW 3042   2.355   1.207   3.422
  382SOL    HW1 3043   2.449   1.197   3.440
  382SOL    HW2 3044   2.312   1.157   3.491
  383SOL     OW 3045   0.723   9.206   5.004
  383SOL    HW1 3046   0.676   9.274   4.955
  383SOL    HW2 3047   0.749   9.142   4.938
  384SOL     OW 3048  11.060   2.262   5.939
  384SOL    HW1 3049  11.100   2.287   5.856
  384SOL    HW2 3050  11.130   2.272   6.004
  385SOL     OW 3051   3.215   7.334  10.698
  385SOL    HW1 3052   3.306   7.335  10.728
  385SOL    HW2 3053   3.173   7.405  10.746
  386SOL     OW 3054   8.067  11.013  12.787
  386SOL    HW1 3055   7.983  11.057  12.804
  386SOL    HW2 3056   8.130  11.060  12.841
  387SOL     OW 3057   8.292  10.733   8.052
  387SOL    HW1 3058   8.316  10.789   7.978
  387SOL    HW2 3059   8.282  10.646   8.013
  388SOL     OW 3060  10.652   4.923   9.730
  388SOL    HW1 3061  10.724   4.967   9.775
  388SOL    HW2 3062  10.647   4.836   9.771
  389SOL     OW 3063  14.551   8.244   3.795
  389SOL    HW1 3064  14.624   8.183   3.795
  389SOL    HW2 3065  14.543   8.273   3.886
  390SOL     OW 3066   9.485   8.948   1.623
  390SOL    HW1 3067   9.505   8.858   1.596
  390SOL    HW2 3068   9.562   8.977   1.672
  391SOL     OW 3069   7.940  13.317   7.486
  391SOL    HW1 3070   7.913  13.404   7.516
  391SOL    HW2 3071   7.859  13.277   7.455
  392SOL     OW 3072  12.817   6.785   3.674
  392SOL    HW1 3073  12.867   6.748   3.747
  392SOL    HW2 3074  12.741   6.827   3.716
  393SOL     OW 3075   2.261   0.745  12.977
  393SOL    HW1 3076   2.251   0.735  13.071
  393SOL    HW2 3077   2.320   0.820  12.967
  394SOL     OW 3078   2.324   8.799   9.912
  394SOL    HW1 3079   2.355   8.884   9.881
  394SOL    HW2 3080   2.398   8.740   9.898
  395SOL     OW 3081   3.201   5.592   8.391
  395SOL    HW1 3082   3.166   5.509   8.422
  395SOL    HW2 3083   3.276   5.567   8.336
  396SOL     OW 3084   6.267   6.311   4.671
  396SOL    HW1 3085   6.362   6.309   4.663
  396SOL    HW2 3086   6.249   6.274   4.758
  397SOL     OW 3087  14.024   8.251   3.386
  397SOL    HW1 3088  14.012   8.223   3.477
  397SOL    HW2 3089  14.118   8.256   3.374
  398SOL     OW 3090   5.051   0.044   2.808
  398SOL    HW1 3091   5.099  14.833   2.814
  398SOL    HW2 3092   5.110   0.109   2.846
  399SOL     OW 3093  11.293   1.935   1.026
  399SOL    HW1 3094  11.280   1.891   1.110
  399SOL    HW2 3095  11.247   1.879   0.963
  400SOL     OW 3096   4.036   0.632  14.582
  400SOL    HW1 3097   4.024   0.570  14.654
  400SOL    HW2 3098   4.130   0.646  14.578
  401SOL     OW 3099   0.388   2.756  14.704
  401SOL    HW1 3100   0.391   2.748  14.799
  401SOL    HW2 3101   0.368   2.667  14.673
  402SOL     OW 3102   0.863  14.386   5.282
  402SOL    HW1 3103   0.838  14.416   5.369
  402SOL    HW2 3104   0.957  14.403   5.276
  403SOL     OW 3105   6.389   6.257   0.773
  403SOL    HW1 3106   6.329   6.220   0.837
  403SOL    HW2 3107   6.438   6.324   0.820
  404SOL     OW 3108   3.508   3.256   1.232
  404SOL    HW1 3109   3.424   3.269   1.276
  404SOL    HW2 3110   3.527   3.340   1.191
  405SOL     OW 3111   4.208   6.003   9.800
  405SOL    HW1 3112   4.181   5.974   9.712
  405SOL    HW2 3113   4.257   5.929   9.836
  406SOL     OW 3114   2.363  13.407   9.091
  406SOL    HW1 3115   2.352  13.395   9.185
  406SOL    HW2 3116   2.278  13.384   9.054
  407SOL     OW 3117   6.525   7.549   9.551
  407SOL    HW1 3118   6.532   7.471   9.607
  407SOL    HW2 3119   6.600   7.542   9.492
  408SOL     OW 3120  10.609   9.778  10.483
  408SOL    HW1 3121  10.588   9.854  10.537
  408SOL    HW2 3122  10.524   9.737  10.465
  409SOL     OW 3123  12.241  11.532   9.731
  409SOL    HW1 3124  12.173  11.472   9.761
  409SOL    HW2 3125  12.197  11.586   9.664
  410SOL     OW 3126  11.066   0.023   7.540
  410SOL    HW1 3127  11.119   0.036   7.619
  410SOL    HW2 3128  11.037  14.804   7.545
  411SOL     OW 3129   6.715   4.806  14.015
  411SOL    HW1 3130   6.625   4.787  14.042
  411SOL    HW2 3131   6.719   4.779  13.923
  412SOL     OW 3132  14.035   0.456   3.514
  412SOL    HW1 3133  13.949   0.467   3.472
  412SOL    HW2 3134  14.054   0.363   3.505
  413SOL     OW 3135  10.690   7.560   2.780
  413SOL    HW1 3136  10.602   7.595   2.763
  413SOL    HW2 3137  10.749   7.615   2.728
  414SOL     OW 3138   7.471  14.099   0.733
  414SOL    HW1 3139   7.432  14.186   0.738
  414SOL    HW2 3140   7.541  14.100   0.798
  415SOL     OW 3141  12.106  14.563  14.638
  415SOL    HW1 3142  12.104  14.490  14.699
  415SOL    HW2 3143  12.122  14.640  14.693
  416SOL     OW 3144   9.697   1.147   1.973
  416SOL    HW1 3145   9.643   1.226   1.970
  416SOL    HW2 3146   9.635   1.075   1.963
  417SOL     OW 3147  14.315   1.857   5.557
  417SOL    HW1 3148  14.366   1.825   5.482
  417SOL    HW2 3149  14.362   1.825   5.634
  418SOL     OW 3150  12.904   5.220   9.575
  418SOL    HW1 3151  12.988   5.174   9.572
  418SOL    HW2 3152  12.920   5.294   9.634
  419SOL     OW 3153   2.701  13.462  11.386
  419SOL    HW1 3154   2.691  13.395  11.319
  419SOL    HW2 3155   2.657  13.539  11.350
  420SOL     OW 3156  11.682  13.807   1.716
  420SOL    HW1 3157  11.622  13.774   1.649
  420SOL    HW2 3158  11.769  13.795   1.677
  421SOL     OW 3159  14.036  12.421   1.309
  421SOL    HW1 3160  14.023  12.329   1.330
  421SOL    HW2 3161  13.968  12.442   1.245
  422SOL     OW 3162   7.383   7.477   7.307
  422SOL    HW1 3163   7.365   7.390   7.270
  422SOL    HW2 3164   7.420   7.459   7.393
  423SOL     OW 3165   9.939   0.126  11.180
  423SOL    HW1 3166   9.897   0.085  11.255
  423SOL    HW2 3167  10.014   0.070  11.161
  424SOL     OW 3168   4.055  12.495   9.031
  424SOL    HW1 3169   4.116  12.543   8.975
  424SOL    HW2 3170   3.969  12.510   8.991
  425SOL     OW 3171   9.077   5.799   0.109
  425SOL    HW1 3172   9.080   5.893   0.090
  425SOL    HW2 3173   9.153   5.784   0.165
  426SOL     OW 3174   5.894   7.571  13.345
  426SOL    HW1 3175   5.981   7.609  13.356
  426SOL    HW2 3176   5.885   7.557  13.251
  427SOL     OW 3177   0.662   7.269   2.670
  427SOL    HW1 3178   0.573   7.269   2.636
  427SOL    HW2 3179   0.657   7.215   2.749
  428SOL     OW 3180   4.327   0.481   2.562
  428SOL    HW1 3181   4.382   0.484   2.640
  428SOL    HW2 3182   4.333   0.569   2.525
  429SOL     OW 3183  11.717   5.997  12.718
  429SOL    HW1 3184  11.805   6.027  12.739
  429SOL    HW2 3185  11.709   6.009  12.623
  430SOL     OW 3186   5.176   1.844   4.361
  430SOL    HW1 3187   5.231   1.769   4.382
  430SOL    HW2 3188   5.197   1.908   4.430
  431SOL     OW 3189   1.453   3.444   4.480
  431SOL    HW1 3190   1.457   3.375   4.546
  431SOL    HW2 3191   1.393   3.509   4.516
  432SOL     OW 3192   8.993   2.438   6.383
  432SOL    HW1 3193   9.022   2.528   6.400
  432SOL    HW2 3194   9.006   2.425   6.290
  433SOL     OW 3195   1.707  11.917   5.805
  433SOL    HW1 3196   1.667  11.837   5.771
  433SOL    HW2 3197   1.636  11.961   5.852
  434SOL     OW 3198   3.070   9.897   2.682
  434SOL    HW1 3199   3.093   9.902   2.590
  434SOL    HW2 3200   2.978   9.873   2.683
  435SOL     OW 3201   2.375   0.074   9.288
  435SOL    HW1 3202   2.304   0.063   9.352
  435SOL    HW2 3203   2.449   0.026   9.325
  436SOL     OW 3204   8.158  14.854   0.847
  436SOL    HW1 3205   8.206   0.054   0.887
  436SOL    HW2 3206   8.205  14.836   0.765
  437SOL     OW 3207  10.231   0.261  10.061
  437SOL    HW1 3208  10.318   0.248  10.097
  437SOL    HW2 3209  10.188   0.320  10.123
  438SOL     OW 3210   5.309   3.600   8.842
  438SOL    HW1 3211   5.400   3.601   8.871
  438SOL    HW2 3212   5.290   3.692   8.821
  439SOL     OW 3213   7.081   5.283   5.571
  439SOL    HW1 3214   7.032   5.363   5.549
  439SOL    HW2 3215   7.146   5.274   5.501
  440SOL     OW 3216   0.625  11.503   9.060
  440SOL    HW1 3217   0.567  11.506   9.136
  440SOL    HW2 3218   0.647  11.410   9.051
  441SOL     OW 3219   3.370   6.796   1.252
  441SOL    HW1 3220   3.375   6.847   1.171
  441SOL    HW2 3221   3.462   6.782   1.277
  442SOL     OW 3222  14.696  14.115   3.133
  442SOL    HW1 3223  14.680  14.124   3.039
  442SOL    HW2 3224  14.712  14.205   3.163
  443SOL     OW 3225   5.546  12.514   0.852
  443SOL    HW1 3226   5.489  12.446   0.888
  443SOL    HW2 3227   5.571  12.567   0.927
  444SOL     OW 3228   5.031   4.176   3.468
  444SOL    HW1 3229   4.971   4.250   3.463
  444SOL    HW2 3230   4.982   4.103   3.430
  445SOL     OW 3231  10.480   0.169   8.005
  445SOL    HW1 3232  10.507   0.232   7.938
  445SOL    HW2 3233  10.553   0.107   8.011
  446SOL     OW 3234  11.967  11.770   0.069
  446SOL    HW1 3235  11.974  11.857   0.029
  446SOL    HW2 3236  12.016  11.713   0.010
  447SOL     OW 3237  12.326   6.651   4.352
  447SOL    HW1 3238  12.383   6.709   4.403
  447SOL    HW2 3239  12.282   6.598   4.418
  448SOL     OW 3240   6.774  13.759   2.318
  448SOL    HW1 3241   6.838  13.709   2.369
  448SOL    HW2 3242   6.737  13.821   2.381
  449SOL     OW 3243   7.860   9.595  11.123
  449SOL    HW1 3244   7.907   9.556  11.050
  449SOL    HW2 3245   7.873   9.533  11.196
  450SOL     OW 3246  10.977   7.070  13.551
  450SOL    HW1 3247  11.014   7.091  13.465
  450SOL    HW2 3248  11.053   7.048  13.605
  451SOL     OW 3249   4.519  11.587  10.992
  451SOL    HW1 3250   4.510  11.599  10.898
  451SOL    HW2 3251   4.607  11.553  11.005
  452SOL     OW 3252   0.863   6.775  13.324
  452SOL    HW1 3253   0.878   6.808  13.413
  452SOL    HW2 3254   0.826   6.688  13.337
  453SOL     OW 3255   3.364   9.112   3.738
  453SOL    HW1 3256   3.297   9.181   3.734
  453SOL    HW2 3257   3.446   9.160   3.750
  454SOL     OW 3258   7.371   0.157   2.988
  454SOL    HW1 3259   7.330   0.187   3.069
  454SOL    HW2 3260   7.301   0.110   2.942
  455SOL     OW 3261  13.373   7.480   7.460
  455SOL    HW1 3262  13.320   7.559   7.470
  455SOL    HW2 3263  13.445   7.491   7.522
  456SOL     OW 3264   4.645  14.434   4.888
  456SOL    HW1 3265   4.685  14.511   4.848
  456SOL    HW2 3266   4.713  14.397   4.943
  457SOL     OW 3267   7.002   1.662  13.092
  457SOL    HW1 3268   6.932   1.597  13.094
  457SOL    HW2 3269   6.981   1.718  13.017
  458SOL     OW 3270   6.300  14.743   9.239
  458SOL    HW1 3271   6.324  14.786   9.158
  458SOL    HW2 3272   6.358  14.780   9.305
  459SOL     OW 3273  12.624   8.364  10.396
  459SOL    HW1 3274  12.540   8.409  10.401
  459SOL    HW2 3275  12.686   8.431  10.367
  460SOL     OW 3276   3.380   3.123   0.047
  460SOL    HW1 3277   3.304   3.090   0.094
  460SOL    HW2 3278   3.420   3.186   0.108
  461SOL     OW 3279  10.269  11.539  14.724
  461SOL    HW1 3280  10.231  11.615  14.681
  461SOL    HW2 3281  10.194  11.493  14.762
  462SOL     OW 3282   3.833   2.267   5.069
  462SOL    HW1 3283   3.889   2.195   5.096
  462SOL    HW2 3284   3.796   2.301   5.150
  463SOL     OW 3285   1.210   6.511  10.552
  463SOL    HW1 3286   1.193   6.524  10.459
  463SOL    HW2 3287   1.145   6.447  10.580
  464SOL     OW 3288   7.173   9.222  10.732
  464SOL    HW1 3289   7.207   9.137  10.705
  464SOL    HW2 3290   7.247   9.265  10.775
  465SOL     OW 3291   0.133   3.921   7.187
  465SOL    HW1 3292   0.056   3.902   7.135
  465SOL    HW2 3293   0.203   3.934   7.123
  466SOL     OW 3294   6.363   2.319   0.161
  466SOL    HW1 3295   6.407   2.396   0.197
  466SOL    HW2 3296   6.410   2.299   0.080
  467SOL     OW 3297   0.269   8.954  12.196
  467SOL    HW1 3298   0.273   8.863  12.225
  467SOL    HW2 3299   0.301   9.005  12.270
  468SOL     OW 3300   4.784   3.874   0.733
  468SOL    HW1 3301   4.753   3.817   0.803
  468SOL    HW2 3302   4.833   3.943   0.778
  469SOL     OW 3303   7.713   1.660   5.116
  469SOL    HW1 3304   7.702   1.754   5.128
  469SOL    HW2 3305   7.633   1.631   5.073
  470SOL     OW 3306   6.674  12.468   2.050
  470SOL    HW1 3307   6.716  12.552   2.068
  470SOL    HW2 3308   6.636  12.441   2.133
  471SOL     OW 3309   4.290   4.473  11.229
  471SOL    HW1 3310   4.243   4.395  11.257
  471SOL    HW2 3311   4.249   4.546  11.276
  472SOL     OW 3312   0.304  10.994   9.197
  472SOL    HW1 3313   0.248  11.070   9.214
  472SOL    HW2 3314   0.248  10.918   9.212
  473SOL     OW 3315   0.630  10.523  14.583
  473SOL    HW1 3316   0.616  10.443  14.633
  473SOL    HW2 3317   0.619  10.497  14.492
  474SOL     OW 3318   5.240   0.477   6.606
  474SOL    HW1 3319   5.177   0.441   6.668
  474SOL    HW2 3320   5.205   0.454   6.520
  475SOL     OW 3321   0.099   6.911  14.048
  475SOL    HW1 3322   0.077   6.999  14.077
  475SOL    HW2 3323   0.182   6.892  14.091
  476SOL     OW 3324  13.737   5.592   5.487
  476SOL    HW1 3325  13.684   5.577   5.409
  476SOL    HW2 3326  13.751   5.687   5.488
  477SOL     OW 3327   7.008   4.040  10.431
  477SOL    HW1 3328   6.940   4.049  10.364
  477SOL    HW2 3329   6.997   3.951  10.464
  478SOL     OW 3330  14.366   0.875  11.462
  478SOL    HW1 3331  14.461   0.876  11.460
  478SOL    HW2 3332  14.340   0.945  11.402
  479SOL     OW 3333  14.208   1.607   9.979
  479SOL    HW1 3334  14.303   1.618   9.971
  479SOL    HW2 3335  14.180   1.681  10.033
  480SOL     OW 3336   5.617   3.567   6.319
  480SOL    HW1 3337   5.538   3.606   6.279
  480SOL    HW2 3338   5.665   3.642   6.354
  481SOL     OW 3339   4.729   1.901   1.256
  481SOL    HW1 3340   4.759   1.988   1.281
  481SOL    HW2 3341   4.697   1.862   1.337
  482SOL     OW 3342   9.259   1.784   7.171
  482SOL    HW1 3343   9.247   1.879   7.180
  482SOL    HW2 3344   9.230   1.766   7.081
  483SOL     OW 3345   6.259   6.124  14.334
  483SOL    HW1 3346   6.346   6.163  14.338
  483SOL    HW2 3347   6.200   6.198  14.323
  484SOL     OW 3348  11.540  11.443   1.184
  484SOL    HW1 3349  11.614  11.500   1.165
  484SOL    HW2 3350  11.578  11.356   1.194
  485SOL     OW 3351  10.189   2.071   8.968
  485SOL    HW1 3352  10.145   1.986   8.969
  485SOL    HW2 3353  10.227   2.077   8.880
  486SOL     OW 3354   0.481   5.064   1.835
  486SOL    HW1 3355   0.566   5.033   1.866
  486SOL    HW2 3356   0.479   5.156   1.862
  487SOL     OW 3357   5.342  12.684   7.698
  487SOL    HW1 3358   5.408  12.644   7.641
  487SOL    HW2 3359   5.393  12.737   7.760
  488SOL     OW 3360   1.120  10.742   7.784
  488SOL    HW1 3361   1.029  10.717   7.765
  488SOL    HW2 3362   1.113  10.822   7.835
  489SOL     OW 3363   6.605   1.202   3.582
  489SOL    HW1 3364   6.637   1.292   3.575
  489SOL    HW2 3365   6.542   1.205   3.654
  490SOL     OW 3366  13.455   5.167  14.201
  490SOL    HW1 3367  13.421   5.117  14.276
  490SOL    HW2 3368  13.535   5.209  14.235
  491SOL     OW 3369   6.546   6.759  12.256
  491SOL    HW1 3370   6.549   6.664  12.272
  491SOL    HW2 3371   6.549   6.767  12.161
  492SOL     OW 3372   3.615   2.673   4.113
  492SOL    HW1 3373   3.606   2.688   4.207
  492SOL    HW2 3374   3.566   2.745   4.073
  493SOL     OW 3375  11.121   1.052  11.945
  493SOL    HW1 3376  11.076   1.111  11.885
  493SOL    HW2 3377  11.186   1.008  11.890
  494SOL     OW 3378   8.357   9.728   9.250
  494SOL    HW1 3379   8.347   9.651   9.194
  494SOL    HW2 3380   8.438   9.769   9.221
  495SOL     OW 3381   5.196  12.151   0.494
  495SOL    HW1 3382   5.244  12.222   0.537
  495SOL    HW2 3383   5.104  12.170   0.512
  496SOL     OW 3384   9.199   6.915   3.468
  496SOL    HW1 3385   9.267   6.938   3.532
  496SOL    HW2 3386   9.232   6.950   3.385
  497SOL     OW 3387   5.777   5.386   4.348
  497SOL    HW1 3388   5.797   5.297   4.377
  497SOL    HW2 3389   5.735   5.376   4.263
  498SOL     OW 3390  14.402   3.538   5.881
  498SOL    HW1 3391  14.353   3.470   5.928
  498SOL    HW2 3392  14.466   3.570   5.945
  499SOL     OW 3393   2.178   9.163   3.666
  499SOL    HW1 3394   2.156   9.070   3.670
  499SOL    HW2 3395   2.100   9.207   3.701
  500SOL     OW 3396   7.262   0.398   4.063
  500SOL    HW1 3397   7.299   0.323   4.016
  500SOL    HW2 3398   7.333   0.427   4.121
  501SOL     OW 3399   2.268   7.594  14.678
  501SOL    HW1 3400   2.223   7.515  14.710
  501SOL    HW2 3401   2.201   7.642  14.631
  502SOL     OW 3402   9.757  14.358   3.725
  502SOL    HW1 3403   9.723  14.424   3.785
  502SOL    HW2 3404   9.726  14.275   3.762
  503SOL     OW 3405   2.365   3.751   3.519
  503SOL    HW1 3406   2.453   3.766   3.485
  503SOL    HW2 3407   2.309   3.808   3.467
  504SOL     OW 3408   5.158   9.547   7.625
  504SOL    HW1 3409   5.156   9.454   7.601
  504SOL    HW2 3410   5.200   9.548   7.711
  505SOL     OW 3411  14.805   8.992   2.219
  505SOL    HW1 3412  14.835   8.965   2.132
  505SOL    HW2 3413  14.786   9.085   2.210
  506SOL     OW 3414   8.317   5.091   8.387
  506SOL    HW1 3415   8.405   5.117   8.414
  506SOL    HW2 3416   8.266   5.172   8.391
  507SOL     OW 3417   8.939   6.650   1.277
  507SOL    HW1 3418   9.026   6.623   1.308
  507SOL    HW2 3419   8.902   6.572   1.237
  508SOL     OW 3420   7.111  13.210   2.005
  508SOL    HW1 3421   7.065  13.189   2.086
  508SOL    HW2 3422   7.049  13.265   1.957
  509SOL     OW 3423   5.917   1.930   1.279
  509SOL    HW1 3424   5.997   1.942   1.228
  509SOL    HW2 3425   5.847   1.957   1.221
  510SOL     OW 3426   3.190   2.951   4.157
  510SOL    HW1 3427   3.119   2.978   4.215
  510SOL    HW2 3428   3.270   2.964   4.209
  511SOL     OW 3429  10.942   3.331   7.675
  511SOL    HW1 3430  11.024   3.315   7.723
  511SOL    HW2 3431  10.904   3.244   7.665
  512SOL     OW 3432   9.204   1.860  10.424
  512SOL    HW1 3433   9.124   1.912  10.427
  512SOL    HW2 3434   9.253   1.895  10.350
  513SOL     OW 3435   6.573   4.903   9.365
  513SOL    HW1 3436   6.537   4.992   9.370
  513SOL    HW2 3437   6.598   4.892   9.274
  514SOL     OW 3438  14.582  12.796  13.818
  514SOL    HW1 3439  14.530  12.865  13.777
  514SOL    HW2 3440  14.660  12.789  13.762
  515SOL     OW 3441  13.652   4.550   8.335
  515SOL    HW1 3442  13.647   4.492   8.410
  515SOL    HW2 3443  13.686   4.495   8.264
  516SOL     OW 3444   9.994   1.442   5.106
  516SOL    HW1 3445   9.992   1.470   5.015
  516SOL    HW2 3446   9.910   1.471   5.142
  517SOL     OW 3447  12.740   1.242  10.366
  517SOL    HW1 3448  12.760   1.304  10.436
  517SOL    HW2 3449  12.677   1.288  10.311
  518SOL     OW 3450   8.748   0.267   9.347
  518SOL    HW1 3451   8.715   0.189   9.303
  518SOL    HW2 3452   8.696   0.274   9.427
  519SOL     OW 3453   2.793   7.263  13.969
  519SOL    HW1 3454   2.866   7.300  13.919
  519SOL    HW2 3455   2.772   7.328  14.035
  520SOL     OW 3456   1.985   3.155   1.528
  520SOL    HW1 3457   2.053   3.108   1.575
  520SOL    HW2 3458   1.924   3.087   1.500
  521SOL     OW 3459   4.358   5.371   4.931
  521SOL    HW1 3460   4.264   5.372   4.949
  521SOL    HW2 3461   4.385   5.463   4.939
  522SOL     OW 3462   5.191   7.942   6.914
  522SOL    HW1 3463   5.208   7.860   6.960
  522SOL    HW2 3464   5.096   7.945   6.905
  523SOL     OW 3465  14.106   2.528   7.593
  523SOL    HW1 3466  14.124   2.435   7.586
  523SOL    HW2 3467  14.016   2.533   7.625
  524SOL     OW 3468  14.509  10.148  10.845
  524SOL    HW1 3469  14.480  10.226  10.892
  524SOL    HW2 3470  14.430  10.094  10.839
  525SOL     OW 3471  12.141  13.287  13.475
  525SOL    HW1 3472  12.125  13.199  13.510
  525SOL    HW2 3473  12.169  13.272  13.385
  526SOL     OW 3474  12.025   7.554   6.296
  526SOL    HW1 3475  11.954   7.511   6.250
  526SOL    HW2 3476  12.097   7.558   6.233
  527SOL     OW 3477  14.188   8.967   0.394
  527SOL    HW1 3478  14.145   8.910   0.331
  527SOL    HW2 3479  14.215   9.044   0.343
  528SOL     OW 3480  10.523   1.530  10.261
  528SOL    HW1 3481  10.578   1.535  10.183
  528SOL    HW2 3482  10.486   1.442  10.259
  529SOL     OW 3483   0.610  13.980   3.496
  529SOL    HW1 3484   0.557  14.035   3.438
  529SOL    HW2 3485   0.626  13.901   3.445
  530SOL     OW 3486   2.188   3.650   1.911
  530SOL    HW1 3487   2.232   3.701   1.843
  530SOL    HW2 3488   2.245   3.658   1.988
  531SOL     OW 3489   2.137   6.360  13.941
  531SOL    HW1 3490   2.080   6.435  13.959
  531SOL    HW2 3491   2.108   6.329  13.856
  532SOL     OW 3492   8.721  11.347  11.329
  532SOL    HW1 3493   8.780  11.296  11.384
  532SOL    HW2 3494   8.693  11.419  11.386
  533SOL     OW 3495   2.499   7.297  14.156
  533SOL    HW1 3496   2.497   7.378  14.106
  533SOL    HW2 3497   2.545   7.319  14.237
  534SOL     OW 3498  13.408  13.849  13.115
  534SOL    HW1 3499  13.447  13.882  13.034
  534SOL    HW2 3500  13.472  13.785  13.147
  535SOL     OW 3501   4.737   7.157   2.497
  535SOL    HW1 3502   4.803   7.136   2.431
  535SOL    HW2 3503   4.683   7.078   2.504
  536SOL     OW 3504   2.641   2.779   4.198
  536SOL    HW1 3505   2.720   2.730   4.218
  536SOL    HW2 3506   2.569   2.725   4.230
  537SOL     OW 3507   9.786   5.864   6.279
  537SOL    HW1 3508   9.824   5.952   6.281
  537SOL    HW2 3509   9.760   5.847   6.370
  538SOL     OW 3510   2.344  13.398   1.599
  538SOL    HW1 3511   2.407  13.344   1.647
  538SOL    HW2 3512   2.362  13.379   1.507
  539SOL     OW 3513  11.280  13.639   5.652
  539SOL    HW1 3514  11.372  13.632   5.625
  539SOL    HW2 3515  11.282  13.688   5.734
  540SOL     OW 3516   9.241   3.759  11.191
  540SOL    HW1 3517   9.245   3.766  11.286
  540SOL    HW2 3518   9.223   3.666  11.175
  541SOL     OW 3519   6.029   4.266   6.260
  541SOL    HW1 3520   6.036   4.360   6.242
  541SOL    HW2 3521   6.102   4.227   6.212
  542SOL     OW 3522   7.952   1.103   2.596
  542SOL    HW1 3523   7.980   1.096   2.505
  542SOL    HW2 3524   8.034   1.115   2.645
  543SOL     OW 3525  13.271   9.400   4.231
  543SOL    HW1 3526  13.217   9.412   4.309
  543SOL    HW2 3527  13.303   9.488   4.211
  544SOL     OW 3528   2.899   0.394  12.289
  544SOL    HW1 3529   2.939   0.419  12.206
  544SOL    HW2 3530   2.833   0.328  12.265
  545SOL     OW 3531   2.931   8.740  14.824
  545SOL    HW1 3532   3.021   8.745  14.792
  545SOL    HW2 3533   2.919   8.648  14.849
  546SOL     OW 3534   7.770   2.643   4.862
  546SOL    HW1 3535   7.794   2.551   4.873
  546SOL    HW2 3536   7.767   2.678   4.952
  547SOL     OW 3537   4.838   0.496  13.904
  547SOL    HW1 3538   4.750   0.519  13.933
  547SOL    HW2 3539   4.896   0.552  13.956
  548SOL     OW 3540   0.393   1.359   4.141
  548SOL    HW1 3541   0.471   1.354   4.196
  548SOL    HW2 3542   0.360   1.448   4.152
  549SOL     OW 3543   3.697   6.292   8.274
  549SOL    HW1 3544   3.640   6.368   8.285
  549SOL    HW2 3545   3.661   6.246   8.199
  550SOL     OW 3546   3.159   6.336   2.823
  550SOL    HW1 3547   3.212   6.357   2.745
  550SOL    HW2 3548   3.070   6.363   2.800
  551SOL     OW 3549   1.661   3.443  12.981
  551SOL    HW1 3550   1.669   3.430  13.075
  551SOL    HW2 3551   1.750   3.429  12.947
  552SOL     OW 3552   1.794  12.625   9.940
  552SOL    HW1 3553   1.745  12.544   9.951
  552SOL    HW2 3554   1.879  12.608   9.981
  553SOL     OW 3555   5.160   3.766   2.120
  553SOL    HW1 3556   5.103   3.842   2.133
  553SOL    HW2 3557   5.196   3.748   2.206
  554SOL     OW 3558   9.316   3.317   6.354
  554SOL    HW1 3559   9.383   3.376   6.388
  554SOL    HW2 3560   9.279   3.275   6.431
  555SOL     OW 3561  10.607  10.649  12.234
  555SOL    HW1 3562  10.677  10.713  12.248
  555SOL    HW2 3563  10.618  10.621  12.143
  556SOL     OW 3564   2.346   5.573   6.765
  556SOL    HW1 3565   2.386   5.515   6.829
  556SOL    HW2 3566   2.407   5.647   6.758
  557SOL     OW 3567   3.345   3.454   6.330
  557SOL    HW1 3568   3.272   3.393   6.342
  557SOL    HW2 3569   3.415   3.400   6.295
  558SOL     OW 3570  10.381   7.978   5.290
  558SOL    HW1 3571  10.380   7.888   5.323
  558SOL    HW2 3572  10.289   7.998   5.271
  559SOL     OW 3573   4.450  13.709   1.096
  559SOL    HW1 3574   4.512  13.741   1.161
  559SOL    HW2 3575   4.491  13.632   1.058
  560SOL     OW 3576  12.705  14.551  10.763
  560SOL    HW1 3577  12.684  14.462  10.736
  560SOL    HW2 3578  12.800  14.557  10.751
  561SOL     OW 3579   4.019   6.623   8.301
  561SOL    HW1 3580   3.975   6.547   8.265
  561SOL    HW2 3581   4.087   6.644   8.236
  562SOL     OW 3582  13.277  13.918  12.052
  562SOL    HW1 3583  13.293  13.943  12.142
  562SOL    HW2 3584  13.314  13.990  12.000
  563SOL     OW 3585   6.450   3.844  12.589
  563SOL    HW1 3586   6.502   3.838  12.509
  563SOL    HW2 3587   6.422   3.936  12.591
  564SOL     OW 3588  10.183  13.939  14.678
  564SOL    HW1 3589  10.181  13.843  14.684
  564SOL    HW2 3590  10.247  13.957  14.610
  565SOL     OW 3591   5.479  12.066  13.881
  565SOL    HW1 3592   5.385  12.073  13.895
  565SOL    HW2 3593   5.512  12.025  13.961
  566SOL     OW 3594   9.292  13.251   9.409
  566SOL    HW1 3595   9.361  13.309   9.378
  566SOL    HW2 3596   9.335  13.196   9.475
  567SOL     OW 3597   1.559  14.484   4.458
  567SOL    HW1 3598   1.500  14.541   4.410
  567SOL    HW2 3599   1.545  14.507   4.550
  568SOL     OW 3600   9.286   2.417   1.890
  568SOL    HW1 3601   9.285   2.476   1.966
  568SOL    HW2 3602   9.200   2.428   1.850
  569SOL     OW 3603  14.665   1.044  11.006
  569SOL    HW1 3604  14.724   1.019  11.078
  569SOL    HW2 3605  14.719   1.094  10.946
  570SOL     OW 3606  14.827   6.443   9.212
  570SOL    HW1 3607   0.027   6.489   9.169
  570SOL    HW2 3608  14.870   6.379   9.268
  571SOL     OW 3609  11.682   4.249   7.836
  571SOL    HW1 3610  11.658   4.255   7.928
  571SOL    HW2 3611  11.705   4.339   7.811
  572SOL     OW 3612   1.857  14.787   3.517
  572SOL    HW1 3613   1.937  14.737   3.533
  572SOL    HW2 3614   1.818  14.747   3.440
  573SOL     OW 3615   2.359   0.868   9.265
  573SOL    HW1 3616   2.394   0.782   9.245
  573SOL    HW2 3617   2.299   0.887   9.192
  574SOL     OW 3618   8.240  10.811   5.241
  574SOL    HW1 3619   8.263  10.869   5.313
  574SOL    HW2 3620   8.262  10.724   5.272
  575SOL     OW 3621   3.850  11.612  13.234
  575SOL    HW1 3622   3.803  11.541  13.277
  575SOL    HW2 3623   3.786  11.652  13.175
  576SOL     OW 3624  12.312   3.258  12.198
  576SOL    HW1 3625  12.303   3.297  12.285
  576SOL    HW2 3626  12.396   3.212  12.200
  577SOL     OW 3627   3.897  14.236  11.282
  577SOL    HW1 3628   3.867  14.172  11.346
  577SOL    HW2 3629   3.868  14.203  11.198
  578SOL     OW 3630   0.643   3.254   1.660
  578SOL    HW1 3631   0.562   3.229   1.704
  578SOL    HW2 3632   0.685   3.314   1.721
  579SOL     OW 3633   5.454   4.774   2.183
  579SOL    HW1 3634   5.533   4.803   2.228
  579SOL    HW2 3635   5.405   4.854   2.166
  580SOL     OW 3636  11.944   6.727  11.993
  580SOL    HW1 3637  11.917   6.818  11.989
  580SOL    HW2 3638  11.870   6.681  12.031
  581SOL     OW 3639   9.139   2.879   7.187
  581SOL    HW1 3640   9.225   2.905   7.220
  581SOL    HW2 3641   9.112   2.807   7.243
  582SOL     OW 3642   3.504   8.861   8.395
  582SOL    HW1 3643   3.461   8.902   8.470
  582SOL    HW2 3644   3.566   8.799   8.435
  583SOL     OW 3645   1.085   5.521   4.483
  583SOL    HW1 3646   1.054   5.443   4.437
  583SOL    HW2 3647   1.017   5.539   4.549
  584SOL     OW 3648  11.360  11.399  10.055
  584SOL    HW1 3649  11.301  11.332  10.021
  584SOL    HW2 3650  11.442  11.387  10.006
  585SOL     OW 3651   7.772  10.886   1.406
  585SOL    HW1 3652   7.867  10.884   1.417
  585SOL    HW2 3653   7.754  10.973   1.369
  586SOL     OW 3654   1.687   4.447  13.928
  586SOL    HW1 3655   1.631   4.484  13.860
  586SOL    HW2 3656   1.645   4.472  14.010
  587SOL     OW 3657   4.244  13.977  11.832
  587SOL    HW1 3658   4.290  14.049  11.876
  587SOL    HW2 3659   4.252  13.997  11.739
  588SOL     OW 3660   4.731  11.131  11.509
  588SOL    HW1 3661   4.753  11.098  11.597
  588SOL    HW2 3662   4.813  11.167  11.476
  589SOL     OW 3663  13.614   4.236  12.643
  589SOL    HW1 3664  13.536   4.221  12.590
  589SOL    HW2 3665  13.587   4.298  12.710
  590SOL     OW 3666   7.960   9.717   3.446
  590SOL    HW1 3667   7.951   9.674   3.531
  590SOL    HW2 3668   8.036   9.774   3.455
  591SOL     OW 3669  11.243  12.897  11.519
  591SOL    HW1 3670  11.276  12.812  11.550
  591SOL    HW2 3671  11.321  12.945  11.493
  592SOL     OW 3672   8.490   2.632  11.371
  592SOL    HW1 3673   8.538   2.700  11.325
  592SOL    HW2 3674   8.443   2.584  11.302
  593SOL     OW 3675  13.559   1.659   6.332
  593SOL    HW1 3676  13.604   1.647   6.416
  593SOL    HW2 3677  13.578   1.580   6.283
  594SOL     OW 3678   8.333  14.729  11.514
  594SOL    HW1 3679   8.406  14.792  11.515
  594SOL    HW2 3680   8.255  14.784  11.505
  595SOL     OW 3681  10.423   1.884  13.292
  595SOL    HW1 3682  10.455   1.970  13.266
  595SOL    HW2 3683  10.444   1.827  13.218
  596SOL     OW 3684   8.668   1.426  12.182
  596SOL    HW1 3685   8.754   1.392  12.155
  596SOL    HW2 3686   8.609   1.352  12.170
  597SOL     OW 3687   7.830  13.049  14.230
  597SOL    HW1 3688   7.909  13.092  14.262
  597SOL    HW2 3689   7.789  13.115  14.174
  598SOL     OW 3690   0.767   9.247  14.473
  598SOL    HW1 3691   0.673   9.268  14.471
  598SOL    HW2 3692   0.783   9.201  14.391
  599SOL     OW 3693   3.474   3.266  13.665
  599SOL    HW1 3694   3.462   3.180  13.706
  599SOL    HW2 3695   3.484   3.246  13.572
  600SOL     OW 3696   9.447   0.266   6.091
  600SOL    HW1 3697   9.407   0.298   6.172
  600SOL    HW2 3698   9.541   0.271   6.106
  601SOL     OW 3699   8.675  13.911   4.432
  601SOL    HW1 3700   8.724  13.943   4.356
  601SOL    HW2 3701   8.591  13.958   4.427
  602SOL     OW 3702   9.919   0.991  14.683
  602SOL    HW1 3703   9.832   0.951  14.692
  602SOL    HW2 3704   9.902   1.085  14.694
  603SOL     OW 3705   8.883   9.185   4.793
  603SOL    HW1 3706   8.937   9.108   4.811
  603SOL    HW2 3707   8.793   9.154   4.803
  604SOL     OW 3708  11.432   6.905   1.642
  604SOL    HW1 3709  11.418   6.924   1.735
  604SOL    HW2 3710  11.435   6.810   1.637
  605SOL     OW 3711   5.778   2.164   9.715
  605SOL    HW1 3712   5.866   2.170   9.751
  605SOL    HW2 3713   5.754   2.071   9.725
  606SOL     OW 3714   5.014   2.566   0.468
  606SOL    HW1 3715   5.000   2.660   0.474
  606SOL    HW2 3716   4.930   2.532   0.437
  607SOL     OW 3717   5.360   6.223   3.073
  607SOL    HW1 3718   5.416   6.297   3.051
  607SOL    HW2 3719   5.420   6.155   3.102
  608SOL     OW 3720   6.313  11.997   3.493
  608SOL    HW1 3721   6.339  12.041   3.574
  608SOL    HW2 3722   6.300  12.068   3.430
  609SOL     OW 3723   1.019   5.626  14.271
  609SOL    HW1 3724   1.072   5.602  14.347
  609SOL    HW2 3725   1.023   5.550  14.213
  610SOL     OW 3726   1.354  10.125  12.117
  610SOL    HW1 3727   1.409  10.152  12.190
  610SOL    HW2 3728   1.303  10.051  12.151
  611SOL     OW 3729   1.953   6.756   4.766
  611SOL    HW1 3730   1.902   6.785   4.691
  611SOL    HW2 3731   1.946   6.828   4.829
  612SOL     OW 3732   7.726   3.122   2.451
  612SOL    HW1 3733   7.687   3.151   2.369
  612SOL    HW2 3734   7.781   3.048   2.427
  613SOL     OW 3735   1.874   5.603   5.784
  613SOL    HW1 3736   1.870   5.542   5.858
  613SOL    HW2 3737   1.910   5.552   5.712
  614SOL     OW 3738   1.309   0.210   8.295
  614SOL    HW1 3739   1.311   0.134   8.236
  614SOL    HW2 3740   1.289   0.172   8.381
  615SOL     OW 3741   4.577   9.216  12.147
  615SOL    HW1 3742   4.665   9.178  12.148
  615SOL    HW2 3743   4.585   9.295  12.201
  616SOL     OW 3744  14.603   3.273  14.770
  616SOL    HW1 3745  14.530   3.335  14.761
  616SOL    HW2 3746  14.590   3.233  14.856
  617SOL     OW 3747  10.869   6.845   5.835
  617SOL    HW1 3748  10.913   6.816   5.755
  617SOL    HW2 3749  10.879   6.941   5.835
  618SOL     OW 3750  13.037  13.500   7.983
  618SOL    HW1 3751  12.974  13.568   7.957
  618SOL    HW2 3752  13.011  13.423   7.934
  619SOL     OW 3753   8.406   2.859   2.553
  619SOL    HW1 3754   8.492   2.891   2.524
  619SOL    HW2 3755   8.370   2.816   2.475
  620SOL     OW 3756   7.003   7.868  11.521
  620SOL    HW1 3757   6.913   7.838  11.529
  620SOL    HW2 3758   7.031   7.883  11.611
  621SOL     OW 3759   5.058   7.943  13.044
  621SOL    HW1 3760   4.966   7.939  13.020
  621SOL    HW2 3761   5.105   7.922  12.964
  622SOL     OW 3762  11.909   1.945   2.003
  622SOL    HW1 3763  11.911   1.855   1.970
  622SOL    HW2 3764  11.997   1.978   1.988
  623SOL     OW 3765   6.927   4.236   4.720
  623SOL    HW1 3766   7.022   4.245   4.713
  623SOL    HW2 3767   6.913   4.144   4.743
  624SOL     OW 3768   5.685   1.960   6.147
  624SOL    HW1 3769   5.742   1.965   6.070
  624SOL    HW2 3770   5.610   2.016   6.124
  625SOL     OW 3771  14.152  11.461  12.973
  625SOL    HW1 3772  14.168  11.541  12.923
  625SOL    HW2 3773  14.065  11.433  12.946
  626SOL     OW 3774   4.538   1.925  11.188
  626SOL    HW1 3775   4.555   1.840  11.145
  626SOL    HW2 3776   4.446   1.921  11.214
  627SOL     OW 3777  10.906   6.232   5.418
  627SOL    HW1 3778  10.931   6.284   5.494
  627SOL    HW2 3779  10.927   6.142   5.442
  628SOL     OW 3780   3.756   5.519   5.551
  628SOL    HW1 3781   3.699   5.577   5.500
  628SOL    HW2 3782   3.764   5.440   5.497
  629SOL     OW 3783   5.797  10.111   3.002
  629SOL    HW1 3784   5.777  10.127   2.910
  629SOL    HW2 3785   5.892  10.098   3.004
  630SOL     OW 3786   1.190  13.750   8.729
  630SOL    HW1 3787   1.206  13.733   8.636
  630SOL    HW2 3788   1.273  13.785   8.761
  631SOL     OW 3789  11.385   6.025   8.025
  631SOL    HW1 3790  11.358   5.998   8.112
  631SOL    HW2 3791  11.472   6.064   8.037
  632SOL     OW 3792  12.794  10.633   5.583
  632SOL    HW1 3793  12.878  10.627   5.628
  632SOL    HW2 3794  12.729  10.615   5.651
  633SOL     OW 3795  12.877   4.063  14.096
  633SOL    HW1 3796  12.815   3.997  14.066
  633SOL    HW2 3797  12.845   4.088  14.183
  634SOL     OW 3798   7.826   2.300   5.798
  634SOL    HW1 3799   7.817   2.243   5.721
  634SOL    HW2 3800   7.906   2.351   5.781
  635SOL     OW 3801   7.289  12.661   0.302
  635SOL    HW1 3802   7.345  12.690   0.374
  635SOL    HW2 3803   7.277  12.567   0.318
  636SOL     OW 3804   6.503  13.317  14.073
  636SOL    HW1 3805   6.584  13.292  14.029
  636SOL    HW2 3806   6.433  13.295  14.011
  637SOL     OW 3807   7.800  13.521  11.292
  637SOL    HW1 3808   7.768  13.453  11.352
  637SOL    HW2 3809   7.856  13.474  11.230
  638SOL     OW 3810  14.120   6.263   1.933
  638SOL    HW1 3811  14.159   6.317   1.864
  638SOL    HW2 3812  14.036   6.234   1.896
  639SOL     OW 3813   3.977   0.458  12.748
  639SOL    HW1 3814   3.998   0.545  12.714
  639SOL    HW2 3815   4.011   0.458  12.837
  640SOL     OW 3816   7.384  13.354  11.279
  640SOL    HW1 3817   7.322  13.411  11.233
  640SOL    HW2 3818   7.463  13.408  11.288
  641SOL     OW 3819  14.410  13.654  13.377
  641SOL    HW1 3820  14.373  13.588  13.318
  641SOL    HW2 3821  14.356  13.647  13.456
  642SOL     OW 3822  14.415  13.635   7.062
  642SOL    HW1 3823  14.483  13.669   7.004
  642SOL    HW2 3824  14.361  13.579   7.006
  643SOL     OW 3825   1.204  11.922   8.847
  643SOL    HW1 3826   1.244  11.947   8.931
  643SOL    HW2 3827   1.116  11.960   8.850
  644SOL     OW 3828   0.320  13.813   7.428
  644SOL    HW1 3829   0.250  13.863   7.471
  644SOL    HW2 3830   0.352  13.871   7.359
  645SOL     OW 3831   3.405   9.987  11.354
  645SOL    HW1 3832   3.420   9.929  11.429
  645SOL    HW2 3833   3.444  10.071  11.380
  646SOL     OW 3834  11.002  11.926   3.906
  646SOL    HW1 3835  11.014  11.838   3.943
  646SOL    HW2 3836  11.010  11.914   3.812
  647SOL     OW 3837   9.561   5.847   5.897
  647SOL    HW1 3838   9.520   5.819   5.979
  647SOL    HW2 3839   9.538   5.940   5.888
  648SOL     OW 3840  14.717   8.171  13.421
  648SOL    HW1 3841  14.752   8.189  13.334
  648SOL    HW2 3842  14.646   8.234  13.432
  649SOL     OW 3843  10.488  12.840  13.824
  649SOL    HW1 3844  10.558  12.904  13.808
  649SOL    HW2 3845  10.483  12.789  13.743
  650SOL     OW 3846   3.459  11.925  12.189
  650SOL    HW1 3847   3.523  11.875  12.138
  650SOL    HW2 3848   3.376  11.911  12.144
  651SOL     OW 3849  10.546  11.794   5.139
  651SOL    HW1 3850  10.474  11.809   5.200
  651SOL    HW2 3851  10.614  11.855   5.167
  652SOL     OW 3852  10.946   4.306   0.814
  652SOL    HW1 3853  10.875   4.247   0.840
  652SOL    HW2 3854  10.935   4.316   0.719
  653SOL     OW 3855   0.136  10.423   2.383
  653SOL    HW1 3856   0.180  10.424   2.298
  653SOL    HW2 3857   0.051  10.382   2.367
  654SOL     OW 3858  12.126   1.146  10.949
  654SOL    HW1 3859  12.193   1.164  10.884
  654SOL    HW2 3860  12.138   1.215  11.015
  655SOL     OW 3861  13.522   7.242   4.561
  655SOL    HW1 3862  13.583   7.229   4.488
  655SOL    HW2 3863  13.579   7.267   4.634
  656SOL     OW 3864  13.389   0.188   6.434
  656SOL    HW1 3865  13.360   0.275   6.465
  656SOL    HW2 3866  13.397   0.136   6.514
  657SOL     OW 3867  11.080   8.167   0.005
  657SOL    HW1 3868  11.034   8.084  14.866
  657SOL    HW2 3869  11.051   8.200   0.090
  658SOL     OW 3870   5.747  13.854   0.446
  658SOL    HW1 3871   5.724  13.926   0.388
  658SOL    HW2 3872   5.843  13.850   0.443
  659SOL     OW 3873   7.751   2.857  12.294
  659SOL    HW1 3874   7.783   2.946  12.280
  659SOL    HW2 3875   7.664   2.868  12.332
  660SOL     OW 3876   0.840   9.332   5.519
  660SOL    HW1 3877   0.803   9.375   5.596
  660SOL    HW2 3878   0.766   9.321   5.460
  661SOL     OW 3879  11.736  12.612  14.047
  661SOL    HW1 3880  11.655  12.576  14.084
  661SOL    HW2 3881  11.729  12.707  14.062
  662SOL     OW 3882   4.198   5.071  11.217
  662SOL    HW1 3883   4.284   5.102  11.246
  662SOL    HW2 3884   4.147   5.064  11.298
  663SOL     OW 3885   5.795   0.692   2.151
  663SOL    HW1 3886   5.771   0.607   2.190
  663SOL    HW2 3887   5.879   0.714   2.192
  664SOL     OW 3888   9.209  13.149  11.780
  664SOL    HW1 3889   9.275  13.089  11.815
  664SOL    HW2 3890   9.232  13.234  11.818
  665SOL     OW 3891  10.225   5.949   1.476
  665SOL    HW1 3892  10.220   5.942   1.571
  665SOL    HW2 3893  10.152   6.006   1.452
  666SOL     OW 3894   7.513   5.613  11.275
  666SOL    HW1 3895   7.487   5.614  11.183
  666SOL    HW2 3896   7.503   5.704  11.304
  667SOL     OW 3897   9.233  14.256  10.545
  667SOL    HW1 3898   9.280  14.330  10.584
  667SOL    HW2 3899   9.157  14.244  10.602
  668SOL     OW 3900   3.379   1.065  13.859
  668SOL    HW1 3901   3.471   1.076  13.885
  668SOL    HW2 3902   3.381   1.061  13.764
  669SOL     OW 3903   1.964   8.980   6.868
  669SOL    HW1 3904   1.904   8.912   6.898
  669SOL    HW2 3905   2.006   8.942   6.791
  670SOL     OW 3906   8.062   4.497  12.840
  670SOL    HW1 3907   8.069   4.402  12.844
  670SOL    HW2 3908   8.147   4.529  12.872
  671SOL     OW 3909   8.210   4.825  14.199
  671SOL    HW1 3910   8.166   4.747  14.164
  671SOL    HW2 3911   8.262   4.858  14.125
  672SOL     OW 3912   3.727   2.067   0.125
  672SOL    HW1 3913   3.638   2.047   0.095
  672SOL    HW2 3914   3.765   2.120   0.055
  673SOL     OW 3915   5.348   7.112   3.787
  673SOL    HW1 3916   5.399   7.128   3.866
  673SOL    HW2 3917   5.258   7.098   3.818
  674SOL     OW 3918  10.964  10.651   4.362
  674SOL    HW1 3919  11.032  10.625   4.300
  674SOL    HW2 3920  11.007  10.716   4.418
  675SOL     OW 3921   8.883   8.087   5.020
  675SOL    HW1 3922   8.817   8.154   5.003
  675SOL    HW2 3923   8.923   8.113   5.103
  676SOL     OW 3924  11.129   3.953   9.815
  676SOL    HW1 3925  11.062   3.909   9.763
  676SOL    HW2 3926  11.134   4.041   9.777
  677SOL     OW 3927   0.833   9.523  12.970
  677SOL    HW1 3928   0.801   9.473  12.894
  677SOL    HW2 3929   0.764   9.587  12.987
  678SOL     OW 3930  14.595  10.553  11.726
  678SOL    HW1 3931  14.601  10.646  11.705
  678SOL    HW2 3932  14.546  10.550  11.808
  679SOL     OW 3933   3.385   7.471  14.312
  679SOL    HW1 3934   3.368   7.533  14.383
  679SOL    HW2 3935   3.299   7.454  14.275
  680SOL     OW 3936  14.005  11.631   7.169
  680SOL    HW1 3937  14.010  11.709   7.114
  680SOL    HW2 3938  14.041  11.561   7.114
  681SOL     OW 3939   8.137   8.801  12.959
  681SOL    HW1 3940   8.108   8.884  12.923
  681SOL    HW2 3941   8.066   8.773  13.017
  682SOL     OW 3942   5.430   3.377   1.102
  682SOL    HW1 3943   5.440   3.283   1.090
  682SOL    HW2 3944   5.336   3.393   1.091
  683SOL     OW 3945   2.536   4.683   8.359
  683SOL    HW1 3946   2.563   4.591   8.369
  683SOL    HW2 3947   2.612   4.726   8.321
  684SOL     OW 3948   9.851   1.136  10.487
  684SOL    HW1 3949   9.772   1.169  10.443
  684SOL    HW2 3950   9.849   1.042  10.470
  685SOL     OW 3951   9.720  12.816  11.654
  685SOL    HW1 3952   9.688  12.773  11.733
  685SOL    HW2 3953   9.790  12.759  11.622
  686SOL     OW 3954   5.563  10.191  13.545
  686SOL    HW1 3955   5.507  10.255  13.501
  686SOL    HW2 3956   5.649  10.233  13.550
  687SOL     OW 3957  10.993   2.441   8.737
  687SOL    HW1 3958  11.047   2.397   8.671
  687SOL    HW2 3959  11.055   2.470   8.803
  688SOL     OW 3960  11.635   8.997   0.055
  688SOL    HW1 3961  11.552   9.045   0.057
  688SOL    HW2 3962  11.693   9.052   0.001
  689SOL     OW 3963   9.697   8.303  14.136
  689SOL    HW1 3964   9.614   8.267  14.104
  689SOL    HW2 3965   9.704   8.389  14.095
  690SOL     OW 3966   6.684   4.012   2.462
  690SOL    HW1 3967   6.682   3.958   2.541
  690SOL    HW2 3968   6.620   4.081   2.479
  691SOL     OW 3969   2.216   9.424   8.497
  691SOL    HW1 3970   2.122   9.435   8.485
  691SOL    HW2 3971   2.256   9.493   8.444
  692SOL     OW 3972   4.317   8.468  13.250
  692SOL    HW1 3973   4.318   8.475  13.155
  692SOL    HW2 3974   4.397   8.421  13.272
  693SOL     OW 3975   6.235   0.112  11.205
  693SOL    HW1 3976   6.178   0.065  11.265
  693SOL    HW2 3977   6.259   0.192  11.251
  694SOL     OW 3978  10.850  14.689   2.240
  694SOL    HW1 3979  10.926  14.704   2.296
  694SOL    HW2 3980  10.776  14.684   2.300
  695SOL     OW 3981   8.041   3.775   6.252
  695SOL    HW1 3982   7.989   3.762   6.332
  695SOL    HW2 3983   7.981   3.821   6.193
  696SOL     OW 3984   5.761  13.692   1.365
  696SOL    HW1 3985   5.698  13.724   1.429
  696SOL    HW2 3986   5.799  13.614   1.406
  697SOL     OW 3987   0.994  13.243   3.430
  697SOL    HW1 3988   0.947  13.318   3.467
  697SOL    HW2 3989   1.077  13.279   3.401
  698SOL     OW 3990   6.724   2.241  13.049
  698SOL    HW1 3991   6.655   2.281  13.102
  698SOL    HW2 3992   6.775   2.189  13.111
  699SOL     OW 3993   7.904   4.919  10.252
  699SOL    HW1 3994   7.877   4.830  10.275
  699SOL    HW2 3995   7.843   4.976  10.297
  700SOL     OW 3996   0.277   0.306   6.574
  700SOL    HW1 3997   0.191   0.348   6.583
  700SOL    HW2 3998   0.272   0.257   6.492
  701SOL     OW 3999  12.620  14.217   5.871
  701SOL    HW1 4000  12.529  14.246   5.856
  701SOL    HW2 4001  12.636  14.238   5.963
  702SOL     OW 4002  13.673   2.270   9.253
  702SOL    HW1 4003  13.691   2.303   9.341
  702SOL    HW2 4004  13.759   2.260   9.213
  703SOL     OW 4005  13.634   7.789   7.068
  703SOL    HW1 4006  13.661   7.870   7.112
  703SOL    HW2 4007  13.705   7.727   7.087
  704SOL     OW 4008  12.500   0.020   1.072
  704SOL    HW1 4009  12.410   0.052   1.077
  704SOL    HW2 4010  12.509  14.861   0.982
  705SOL     OW 4011   0.345   6.214  11.598
  705SOL    HW1 4012   0.312   6.149  11.660
  705SOL    HW2 4013   0.272   6.275  11.585
  706SOL     OW 4014  13.180   4.559   4.945
  706SOL    HW1 4015  13.252   4.587   5.002
  706SOL    HW2 4016  13.124   4.635   4.937
  707SOL     OW 4017   7.614  10.409   0.766
  707SOL    HW1 4018   7.664  10.364   0.834
  707SOL    HW2 4019   7.669  10.483   0.740
  708SOL     OW 4020  13.017   7.863  13.279
  708SOL    HW1 4021  12.974   7.943  13.309
  708SOL    HW2 4022  13.044   7.882  13.189
  709SOL     OW 4023   4.959   7.436  13.630
  709SOL    HW1 4024   4.872   7.397  13.640
  709SOL    HW2 4025   5.002   7.421  13.714
  710SOL     OW 4026   8.950   0.000   4.727
  710SOL    HW1 4027   8.880   0.063   4.740
  710SOL    HW2 4028   9.025   0.053   4.699
  711SOL     OW 4029   1.921   9.866   9.640
  711SOL    HW1 4030   1.946   9.839   9.551
  711SOL    HW2 4031   2.004   9.871   9.687
  712SOL     OW 4032  12.257   4.217  13.171
  712SOL    HW1 4033  12.204   4.148  13.131
  712SOL    HW2 4034  12.218   4.299  13.139
  713SOL     OW 4035  10.144   3.358  11.604
  713SOL    HW1 4036  10.222   3.307  11.582
  713SOL    HW2 4037  10.082   3.293  11.636
  714SOL     OW 4038   1.299  12.031   1.656
  714SOL    HW1 4039   1.262  11.977   1.726
  714SOL    HW2 4040   1.252  12.114   1.662
  715SOL     OW 4041   7.243   4.356  11.643
  715SOL    HW1 4042   7.225   4.278  11.696
  715SOL    HW2 4043   7.331   4.342  11.608
  716SOL     OW 4044   0.495   0.950   2.987
  716SOL    HW1 4045   0.462   0.990   2.907
  716SOL    HW2 4046   0.418   0.915   3.031
  717SOL     OW 4047   0.885   8.582   6.268
  717SOL    HW1 4048   0.965   8.622   6.232
  717SOL    HW2 4049   0.905   8.489   6.273
  718SOL     OW 4050   4.792  13.339   8.336
  718SOL    HW1 4051   4.825  13.254   8.366
  718SOL    HW2 4052   4.758  13.323   8.248
  719SOL     OW 4053  10.401   1.502   0.101
  719SOL    HW1 4054  10.340   1.510   0.028
  719SOL    HW2 4055  10.461   1.432   0.075
  720SOL     OW 4056   1.025   8.585  11.649
  720SOL    HW1 4057   1.046   8.560  11.559
  720SOL    HW2 4058   1.068   8.518  11.703
  721SOL     OW 4059   6.694   7.741   6.337
  721SOL    HW1 4060   6.632   7.679   6.299
  721SOL    HW2 4061   6.683   7.732   6.432
  722SOL     OW 4062   7.307   7.117  10.039
  722SOL    HW1 4063   7.243   7.146  10.103
  722SOL    HW2 4064   7.303   7.021  10.042
  723SOL     OW 4065  10.040   0.877  13.214
  723SOL    HW1 4066  10.053   0.972  13.217
  723SOL    HW2 4067   9.947   0.865  13.231
  724SOL     OW 4068   8.533   2.987  11.156
  724SOL    HW1 4069   8.535   3.056  11.089
  724SOL    HW2 4070   8.466   2.926  11.126
  725SOL     OW 4071   4.875   0.601  12.507
  725SOL    HW1 4072   4.883   0.506  12.499
  725SOL    HW2 4073   4.924   0.622  12.587
  726SOL     OW 4074   2.606  10.984   2.736
  726SOL    HW1 4075   2.546  10.909   2.733
  726SOL    HW2 4076   2.670  10.961   2.803
  727SOL     OW 4077  11.969  13.320   6.805
  727SOL    HW1 4078  12.045  13.295   6.754
  727SOL    HW2 4079  11.921  13.382   6.750
  728SOL     OW 4080  10.262   7.990  12.635
  728SOL    HW1 4081  10.338   7.953  12.680
  728SOL    HW2 4082  10.267   8.084  12.651
  729SOL     OW 4083  12.553   8.128   3.775
  729SOL    HW1 4084  12.641   8.109   3.743
  729SOL    HW2 4085  12.496   8.071   3.723
  730SOL     OW 4086   8.757   5.667  14.265
  730SOL    HW1 4087   8.755   5.656  14.170
  730SOL    HW2 4088   8.828   5.610  14.294
  731SOL     OW 4089  10.810   0.049   0.165
  731SOL    HW1 4090  10.807  14.825   0.162
  731SOL    HW2 4091  10.773   0.071   0.251
  732SOL     OW 4092   5.823   4.145  11.922
  732SOL    HW1 4093   5.795   4.229  11.884
  732SOL    HW2 4094   5.835   4.164  12.015
  733SOL     OW 4095  12.294  12.939  14.746
  733SOL    HW1 4096  12.354  13.003  14.786
  733SOL    HW2 4097  12.310  12.947  14.652
  734SOL     OW 4098   6.231  12.470  10.542
  734SOL    HW1 4099   6.162  12.493  10.604
  734SOL    HW2 4100   6.257  12.553  10.503
  735SOL     OW 4101   8.635   5.934  13.884
  735SOL    HW1 4102   8.547   5.938  13.923
  735SOL    HW2 4103   8.652   5.841  13.873
  736SOL     OW 4104  10.216   2.829   4.171
  736SOL    HW1 4105  10.205   2.842   4.265
  736SOL    HW2 4106  10.184   2.910   4.131
  737SOL     OW 4107   0.480  11.758   0.191
  737SOL    HW1 4108   0.555  11.756   0.250
  737SOL    HW2 4109   0.438  11.673   0.204
  738SOL     OW 4110  12.926  10.114   3.415
  738SOL    HW1 4111  12.979  10.117   3.335
  738SOL    HW2 4112  12.841  10.080   3.386
  739SOL     OW 4113   5.772   1.547   1.797
  739SOL    HW1 4114   5.799   1.634   1.766
  739SOL    HW2 4115   5.853   1.507   1.829
  740SOL     OW 4116  13.126  14.591   1.304
  740SOL    HW1 4117  13.096  14.572   1.215
  740SOL    HW2 4118  13.190  14.661   1.294
  741SOL     OW 4119   3.932  10.039   6.137
  741SOL    HW1 4120   3.864  10.008   6.197
  741SOL    HW2 4121   3.968  10.117   6.180
  742SOL     OW 4122   3.402   9.984  14.789
  742SOL    HW1 4123   3.346  10.057  14.762
  742SOL    HW2 4124   3.340   9.917  14.820
  743SOL     OW 4125   0.160   9.177   4.081
  743SOL    HW1 4126   0.092   9.179   4.148
  743SOL    HW2 4127   0.160   9.266   4.045
  744SOL     OW 4128   6.445   1.240  11.840
  744SOL    HW1 4129   6.516   1.295  11.872
  744SOL    HW2 4130   6.368   1.270  11.889
  745SOL     OW 4131   2.574  12.338   5.589
  745SOL    HW1 4132   2.561  12.286   5.510
  745SOL    HW2 4133   2.487  12.371   5.611
  746SOL     OW 4134   8.030   9.158  11.109
  746SOL    HW1 4135   8.064   9.129  11.024
  746SOL    HW2 4136   7.944   9.195  11.089
  747SOL     OW 4137  10.298   7.728   4.445
  747SOL    HW1 4138  10.353   7.781   4.388
  747SOL    HW2 4139  10.359   7.690   4.508
  748SOL     OW 4140   7.988   1.602  13.019
  748SOL    HW1 4141   7.903   1.590  12.977
  748SOL    HW2 4142   8.044   1.638  12.951
  749SOL     OW 4143  12.159   7.485   2.476
  749SOL    HW1 4144  12.192   7.558   2.528
  749SOL    HW2 4145  12.194   7.407   2.521
  750SOL     OW 4146   5.295   5.197  10.631
  750SOL    HW1 4147   5.223   5.192  10.693
  750SOL    HW2 4148   5.265   5.147  10.555
  751SOL     OW 4149   4.374  10.014  12.402
  751SOL    HW1 4150   4.436   9.949  12.368
  751SOL    HW2 4151   4.350   9.980  12.489
  752SOL     OW 4152  14.683   3.021   4.368
  752SOL    HW1 4153  14.597   3.043   4.332
  752SOL    HW2 4154  14.737   3.003   4.292
  753SOL     OW 4155   2.569   3.755   1.595
  753SOL    HW1 4156   2.642   3.790   1.646
  753SOL    HW2 4157   2.583   3.791   1.507
  754SOL     OW 4158  11.495   2.497   9.871
  754SOL    HW1 4159  11.455   2.496   9.784
  754SOL    HW2 4160  11.467   2.580   9.909
  755SOL     OW 4161  12.684   7.253   0.835
  755SOL    HW1 4162  12.649   7.328   0.882
  755SOL    HW2 4163  12.616   7.230   0.772
  756SOL     OW 4164   0.880   7.697   3.630
  756SOL    HW1 4165   0.935   7.774   3.625
  756SOL    HW2 4166   0.931   7.628   3.588
  757SOL     OW 4167   8.545  11.521   5.052
  757SOL    HW1 4168   8.546  11.598   4.995
  757SOL    HW2 4169   8.514  11.554   5.136
  758SOL     OW 4170   8.976  12.339  12.506
  758SOL    HW1 4171   8.957  12.318  12.414
  758SOL    HW2 4172   8.897  12.382  12.537
  759SOL     OW 4173   3.923  12.104   9.473
  759SOL    HW1 4174   4.006  12.151   9.481
  759SOL    HW2 4175   3.900  12.079   9.563
  760SOL     OW 4176  14.764   2.436   3.583
  760SOL    HW1 4177  14.677   2.399   3.569
  760SOL    HW2 4178  14.796   2.390   3.661
  761SOL     OW 4179   2.912   3.193  10.259
  761SOL    HW1 4180   2.946   3.218  10.345
  761SOL    HW2 4181   2.824   3.231  10.257
  762SOL     OW 4182   4.481   7.363  13.552
  762SOL    HW1 4183   4.460   7.325  13.466
  762SOL    HW2 4184   4.489   7.456  13.535
  763SOL     OW 4185  14.644   8.497   6.325
  763SOL    HW1 4186  14.553   8.475   6.302
  763SOL    HW2 4187  14.671   8.427   6.385
  764SOL     OW 4188   9.297  10.629  14.672
  764SOL    HW1 4189   9.327  10.712  14.636
  764SOL    HW2 4190   9.265  10.579  14.597
  765SOL     OW 4191   8.764   6.914   4.993
  765SOL    HW1 4192   8.821   6.984   4.962
  765SOL    HW2 4193   8.697   6.906   4.925
  766SOL     OW 4194  12.749   2.768   6.045
  766SOL    HW1 4195  12.754   2.863   6.034
  766SOL    HW2 4196  12.656   2.751   6.059
  767SOL     OW 4197  11.054  12.503   7.176
  767SOL    HW1 4198  11.130  12.547   7.137
  767SOL    HW2 4199  11.046  12.421   7.126
  768SOL     OW 4200   0.338   0.568   0.927
  768SOL    HW1 4201   0.263   0.592   0.980
  768SOL    HW2 4202   0.410   0.621   0.961
  769SOL     OW 4203   0.227   7.983  13.649
  769SOL    HW1 4204   0.141   8.015  13.624
  769SOL    HW2 4205   0.240   7.904  13.597
  770SOL     OW 4206   6.278   4.286   9.337
  770SOL    HW1 4207   6.372   4.289   9.320
  770SOL    HW2 4208   6.262   4.198   9.372
  771SOL     OW 4209   7.494   5.743  13.440
  771SOL    HW1 4210   7.578   5.718  13.479
  771SOL    HW2 4211   7.483   5.684  13.365
  772SOL     OW 4212   6.628   3.067  11.289
  772SOL    HW1 4213   6.695   3.135  11.284
  772SOL    HW2 4214   6.666   3.000  11.345
  773SOL     OW 4215  13.040  14.097   2.109
  773SOL    HW1 4216  13.074  14.014   2.075
  773SOL    HW2 4217  13.116  14.138   2.151
  774SOL     OW 4218  13.793   9.928  14.055
  774SOL    HW1 4219  13.840   9.875  13.991
  774SOL    HW2 4220  13.716   9.876  14.079
  775SOL     OW 4221  12.345   1.288   5.246
  775SOL    HW1 4222  12.416   1.309   5.306
  775SOL    HW2 4223  12.388   1.276   5.161
  776SOL     OW 4224   9.067   9.015   7.163
  776SOL    HW1 4225   8.980   9.043   7.136
  776SOL    HW2 4226   9.089   9.071   7.237
  777SOL     OW 4227   7.702  10.651  14.458
  777SOL    HW1 4228   7.733  10.730  14.502
  777SOL    HW2 4229   7.763  10.583  14.486
  778SOL     OW 4230   3.513  11.655   7.249
  778SOL    HW1 4231   3.427  11.695   7.260
  778SOL    HW2 4232   3.498  11.562   7.267
  779SOL     OW 4233   0.968   4.429   6.298
  779SOL    HW1 4234   1.033   4.499   6.297
  779SOL    HW2 4235   1.005   4.361   6.242
  780SOL     OW 4236  12.247  12.818   4.677
  780SOL    HW1 4237  12.251  12.767   4.758
  780SOL    HW2 4238  12.216  12.904   4.704
  781SOL     OW 4239   9.330   2.341   3.295
  781SOL    HW1 4240   9.320   2.371   3.385
  781SOL    HW2 4241   9.286   2.407   3.242
  782SOL     OW 4242   1.034   2.487   6.573
  782SOL    HW1 4243   1.042   2.409   6.518
  782SOL    HW2 4244   1.125   2.510   6.594
  783SOL     OW 4245   5.066   3.606  10.963
  783SOL    HW1 4246   5.155   3.602  10.927
  783SOL    HW2 4247   5.062   3.691  11.006
  784SOL     OW 4248   3.493   5.484   8.779
  784SOL    HW1 4249   3.563   5.426   8.807
  784SOL    HW2 4250   3.456   5.519   8.860
  785SOL     OW 4251   7.267   9.567   4.018
  785SOL    HW1 4252   7.357   9.577   4.048
  785SOL    HW2 4253   7.263   9.480   3.980
  786SOL     OW 4254  10.742  11.998   3.847
  786SOL    HW1 4255  10.802  11.951   3.905
  786SOL    HW2 4256  10.719  11.935   3.780
  787SOL     OW 4257   1.158   5.045   2.649
  787SOL    HW1 4258   1.215   4.975   2.617
  787SOL    HW2 4259   1.199   5.125   2.617
  788SOL     OW 4260   3.867   1.550  12.630
  788SOL    HW1 4261   3.776   1.562  12.658
  788SOL    HW2 4262   3.903   1.485  12.691
  789SOL     OW 4263  13.696   2.813   1.619
  789SOL    HW1 4264  13.725   2.862   1.542
  789SOL    HW2 4265  13.777   2.781   1.659
  790SOL     OW 4266  10.561   2.548   1.731
  790SOL    HW1 4267  10.627   2.570   1.665
  790SOL    HW2 4268  10.610   2.542   1.812
  791SOL     OW 4269   5.907   2.301   7.202
  791SOL    HW1 4270   5.830   2.247   7.182
  791SOL    HW2 4271   5.926   2.347   7.120
  792SOL     OW 4272   1.980  11.055  12.575
  792SOL    HW1 4273   2.069  11.050  12.609
  792SOL    HW2 4274   1.950  11.143  12.596
  793SOL     OW 4275   9.181   4.223   4.769
  793SOL    HW1 4276   9.100   4.272   4.754
  793SOL    HW2 4277   9.160   4.162   4.840
  794SOL     OW 4278   8.687   6.767   9.679
  794SOL    HW1 4279   8.594   6.744   9.683
  794SOL    HW2 4280   8.712   6.749   9.588
  795SOL     OW 4281   8.849   3.481   9.626
  795SOL    HW1 4282   8.887   3.396   9.649
  795SOL    HW2 4283   8.823   3.519   9.710
  796SOL     OW 4284   0.846   3.457  12.409
  796SOL    HW1 4285   0.806   3.504  12.336
  796SOL    HW2 4286   0.911   3.401  12.368
  797SOL     OW 4287  14.358  11.271  12.910
  797SOL    HW1 4288  14.284  11.323  12.940
  797SOL    HW2 4289  14.330  11.180  12.922
  798SOL     OW 4290   3.689   3.497   1.291
  798SOL    HW1 4291   3.596   3.522   1.288
  798SOL    HW2 4292   3.731   3.570   1.336
  799SOL     OW 4293   0.966   1.636  11.397
  799SOL    HW1 4294   0.939   1.683  11.318
  799SOL    HW2 4295   1.061   1.629  11.390
  800SOL     OW 4296  11.931   9.478   9.295
  800SOL    HW1 4297  12.023   9.497   9.311
  800SOL    HW2 4298  11.888   9.495   9.379
  801SOL     OW 4299  10.459   5.588   0.814
  801SOL    HW1 4300  10.521   5.657   0.840
  801SOL    HW2 4301  10.501   5.507   0.841
  802SOL     OW 4302   4.722   6.929   7.617
  802SOL    HW1 4303   4.646   6.898   7.667
  802SOL    HW2 4304   4.699   6.913   7.526
  803SOL     OW 4305  12.224   1.618   9.801
  803SOL    HW1 4306  12.295   1.567   9.840
  803SOL    HW2 4307  12.152   1.609   9.863
  804SOL     OW 4308   0.904   2.227   7.677
  804SOL    HW1 4309   0.868   2.139   7.665
  804SOL    HW2 4310   0.853   2.282   7.618
  805SOL     OW 4311  12.006  13.401   3.373
  805SOL    HW1 4312  11.990  13.319   3.419
  805SOL    HW2 4313  11.955  13.466   3.422
  806SOL     OW 4314  14.823  12.009   1.396
  806SOL    HW1 4315  14.753  11.960   1.352
  806SOL    HW2 4316  14.792  12.099   1.399
  807SOL     OW 4317   7.784   1.311   0.223
  807SOL    HW1 4318   7.795   1.299   0.317
  807SOL    HW2 4319   7.759   1.225   0.191
  808SOL     OW 4320   0.677   5.162   4.493
  808SOL    HW1 4321   0.624   5.236   4.525
  808SOL    HW2 4322   0.617   5.113   4.437
  809SOL     OW 4323   8.597  14.386   0.554
  809SOL    HW1 4324   8.672  14.385   0.614
  809SOL    HW2 4325   8.563  14.475   0.559
  810SOL     OW 4326   3.903   5.364   3.320
  810SOL    HW1 4327   3.905   5.336   3.411
  810SOL    HW2 4328   3.812   5.388   3.304
  811SOL     OW 4329   6.508   0.276   0.596
  811SOL    HW1 4330   6.501   0.233   0.510
  811SOL    HW2 4331   6.584   0.334   0.587
  812SOL     OW 4332   0.671   2.525   7.196
  812SOL    HW1 4333   0.698   2.552   7.108
  812SOL    HW2 4334   0.649   2.433   7.188
  813SOL     OW 4335   3.212   0.072  10.894
  813SOL    HW1 4336   3.118   0.088  10.888
  813SOL    HW2 4337   3.219  14.860  10.939
  814SOL     OW 4338  14.501   2.910   6.293
  814SOL    HW1 4339  14.512   2.965   6.215
  814SOL    HW2 4340  14.492   2.972   6.365
  815SOL     OW 4341  13.584   3.042  11.256
  815SOL    HW1 4342  13.595   3.071  11.165
  815SOL    HW2 4343  13.667   3.002  11.279
  816SOL     OW 4344  13.215  10.828   2.232
  816SOL    HW1 4345  13.155  10.879   2.287
  816SOL    HW2 4346  13.245  10.757   2.289
  817SOL     OW 4347  12.890   9.947   9.335
  817SOL    HW1 4348  12.890  10.042   9.325
  817SOL    HW2 4349  12.832   9.931   9.409
  818SOL     OW 4350   6.431  11.411   3.186
  818SOL    HW1 4351   6.440  11.377   3.275
  818SOL    HW2 4352   6.520  11.407   3.150
  819SOL     OW 4353   7.199   7.048  14.809
  819SOL    HW1 4354   7.164   7.038   0.025
  819SOL    HW2 4355   7.156   7.126  14.774
  820SOL     OW 4356   3.608   7.063   0.038
  820SOL    HW1 4357   3.530   7.052  14.856
  820SOL    HW2 4358   3.611   6.983   0.092
  821SOL     OW 4359   3.348   9.536   1.614
  821SOL    HW1 4360   3.302   9.454   1.599
  821SOL    HW2 4361   3.381   9.529   1.703
  822SOL     OW 4362  10.581  10.396   2.674
  822SOL    HW1 4363  10.670  10.372   2.649
  822SOL    HW2 4364  10.590  10.439   2.759
  823SOL     OW 4365  13.210  13.577  12.594
  823SOL    HW1 4366  13.170  13.559  12.679
  823SOL    HW2 4367  13.281  13.638  12.614
  824SOL     OW 4368  13.200   1.928   9.874
  824SOL    HW1 4369  13.181   1.854   9.931
  824SOL    HW2 4370  13.293   1.919   9.853
  825SOL     OW 4371   4.122   5.843   3.024
  825SOL    HW1 4372   4.101   5.936   3.023
  825SOL    HW2 4373   4.165   5.828   2.939
  826SOL     OW 4374   2.876   1.457  11.303
  826SOL    HW1 4375   2.914   1.543  11.288
  826SOL    HW2 4376   2.796   1.457  11.251
  827SOL     OW 4377  13.377  11.836   4.974
  827SOL    HW1 4378  13.436  11.869   5.041
  827SOL    HW2 4379  13.412  11.871   4.892
  828SOL     OW 4380   8.179  10.436  13.719
  828SOL    HW1 4381   8.166  10.369  13.652
  828SOL    HW2 4382   8.253  10.488  13.687
  829SOL     OW 4383   5.969   8.564  12.579
  829SOL    HW1 4384   6.005   8.514  12.653
  829SOL    HW2 4385   6.045   8.598  12.533
  830SOL     OW 4386   8.068  10.211   8.917
  830SOL    HW1 4387   8.066  10.160   8.998
  830SOL    HW2 4388   8.128  10.164   8.860
  831SOL     OW 4389   9.048  13.522   8.511
  831SOL    HW1 4390   9.096  13.444   8.482
  831SOL    HW2 4391   8.956  13.497   8.505
  832SOL     OW 4392   3.431   4.562   8.861
  832SOL    HW1 4393   3.486   4.613   8.801
  832SOL    HW2 4394   3.428   4.475   8.821
  833SOL     OW 4395   5.326   9.763   4.859
  833SOL    HW1 4396   5.242   9.795   4.828
  833SOL    HW2 4397   5.382   9.761   4.782
  834SOL     OW 4398   7.241  13.381   6.838
  834SOL    HW1 4399   7.260  13.384   6.932
  834SOL    HW2 4400   7.251  13.289   6.814
  835SOL     OW 4401   3.365  10.646   5.209
  835SOL    HW1 4402   3.304  10.643   5.282
  835SOL    HW2 4403   3.362  10.737   5.179
  836SOL     OW 4404  11.403   3.224  12.098
  836SOL    HW1 4405  11.332   3.233  12.161
  836SOL    HW2 4406  11.414   3.311  12.060
  837SOL     OW 4407  12.333   6.498   3.099
  837SOL    HW1 4408  12.406   6.498   3.038
  837SOL    HW2 4409  12.277   6.426   3.071
  838SOL     OW 4410   4.113   1.131   2.711
  838SOL    HW1 4411   4.058   1.209   2.700
  838SOL    HW2 4412   4.051   1.061   2.732
  839SOL     OW 4413   7.818   0.145   8.408
  839SOL    HW1 4414   7.841   0.127   8.500
  839SOL    HW2 4415   7.744   0.087   8.391
  840SOL     OW 4416   2.443  12.460  14.604
  840SOL    HW1 4417   2.499  12.383  14.600
  840SOL    HW2 4418   2.354  12.426  14.596
  841SOL     OW 4419  12.259  14.476   0.579
  841SOL    HW1 4420  12.179  14.495   0.531
  841SOL    HW2 4421  12.323  14.538   0.544
  842SOL     OW 4422  14.869   6.420  10.247
  842SOL    HW1 4423  14.792   6.466  10.213
  842SOL    HW2 4424   0.007   6.345  10.190
  843SOL     OW 4425   0.952   7.802   9.661
  843SOL    HW1 4426   0.999   7.884   9.650
  843SOL    HW2 4427   0.912   7.808   9.748
  844SOL     OW 4428   3.720   0.875   6.259
  844SOL    HW1 4429   3.644   0.904   6.208
  844SOL    HW2 4430   3.796   0.908   6.210
  845SOL     OW 4431   1.236  13.371   3.405
  845SOL    HW1 4432   1.282  13.398   3.484
  845SOL    HW2 4433   1.297  13.312   3.360
  846SOL     OW 4434   0.912   2.773   5.275
  846SOL    HW1 4435   0.942   2.802   5.361
  846SOL    HW2 4436   0.906   2.678   5.282
  847SOL     OW 4437   4.192   8.980   1.657
  847SOL    HW1 4438   4.120   8.917   1.653
  847SOL    HW2 4439   4.270   8.927   1.644
  848SOL     OW 4440   7.241   2.866   9.384
  848SOL    HW1 4441   7.313   2.851   9.446
  848SOL    HW2 4442   7.285   2.876   9.299
  849SOL     OW 4443  10.688   2.614   7.432
  849SOL    HW1 4444  10.672   2.679   7.364
  849SOL    HW2 4445  10.761   2.649   7.482
  850SOL     OW 4446   6.850   3.133  12.879
  850SOL    HW1 4447   6.895   3.191  12.819
  850SOL    HW2 4448   6.799   3.074  12.823
  851SOL     OW 4449  13.055  10.419   2.968
  851SOL    HW1 4450  12.960  10.418   2.953
  851SOL    HW2 4451  13.073  10.339   3.017
  852SOL     OW 4452   0.814   3.544   2.977
  852SOL    HW1 4453   0.739   3.487   2.955
  852SOL    HW2 4454   0.891   3.490   2.956
  853SOL     OW 4455   5.578   9.432   8.905
  853SOL    HW1 4456   5.653   9.489   8.918
  853SOL    HW2 4457   5.614   9.355   8.860
  854SOL     OW 4458   6.232   8.020   9.652
  854SOL    HW1 4459   6.221   7.966   9.574
  854SOL    HW2 4460   6.322   8.051   9.648
  855SOL     OW 4461  13.868  12.024   5.635
  855SOL    HW1 4462  13.879  11.965   5.560
  855SOL    HW2 4463  13.823  11.970   5.701
  856SOL     OW 4464   0.296   4.242   8.259
  856SOL    HW1 4465   0.251   4.320   8.227
  856SOL    HW2 4466   0.385   4.250   8.225
  857SOL     OW 4467  11.174   4.626  14.726
  857SOL    HW1 4468  11.253   4.583  14.695
  857SOL    HW2 4469  11.116   4.628  14.650
  858SOL     OW 4470   1.187   1.270  14.720
  858SOL    HW1 4471   1.230   1.192  14.686
  858SOL    HW2 4472   1.160   1.246  14.809
  859SOL     OW 4473  14.845  13.262   9.892
  859SOL    HW1 4474  14.759  13.278   9.932
  859SOL    HW2 4475   0.036  13.290   9.959
  860SOL     OW 4476   2.457   4.542   1.098
  860SOL    HW1 4477   2.477   4.505   1.012
  860SOL    HW2 4478   2.376   4.500   1.124
  861SOL     OW 4479  14.173  14.526  12.630
  861SOL    HW1 4480  14.187  14.495  12.719
  861SOL    HW2 4481  14.121  14.606  12.640
  862SOL     OW 4482   6.580  10.078   0.874
  862SOL    HW1 4483   6.496  10.119   0.891
  862SOL    HW2 4484   6.591  10.085   0.779
  863SOL     OW 4485   9.266   1.520  13.368
  863SOL    HW1 4486   9.184   1.502  13.415
  863SOL    HW2 4487   9.278   1.443  13.312
  864SOL     OW 4488  11.928  14.353   6.634
  864SOL    HW1 4489  12.005  14.390   6.591
  864SOL    HW2 4490  11.892  14.426   6.684
  865SOL     OW 4491   7.013  11.119  12.851
  865SOL    HW1 4492   6.942  11.096  12.910
  865SOL    HW2 4493   7.073  11.173  12.904
  866SOL     OW 4494   6.336   4.083  14.313
  866SOL    HW1 4495   6.427   4.084  14.343
  866SOL    HW2 4496   6.284   4.082  14.394
  867SOL     OW 4497   0.661   6.243   6.183
  867SOL    HW1 4498   0.741   6.260   6.233
  867SOL    HW2 4499   0.692   6.226   6.093
  868SOL     OW 4500  11.841   0.105   5.553
  868SOL    HW1 4501  11.852   0.183   5.498
  868SOL    HW2 4502  11.759   0.121   5.600
  869SOL     OW 4503   2.036   2.771  14.053
  869SOL    HW1 4504   2.012   2.821  14.131
  869SOL    HW2 4505   2.008   2.826  13.979
  870SOL     OW 4506  13.704  11.562   0.320
  870SOL    HW1 4507  13.705  11.590   0.228
  870SOL    HW2 4508  13.782  11.508   0.330
  871SOL     OW 4509   2.998   9.239   8.722
  871SOL    HW1 4510   2.945   9.283   8.788
  871SOL    HW2 4511   2.996   9.146   8.747
  872SOL     OW 4512   9.580  14.865   4.662
  872SOL    HW1 4513   9.655  14.848   4.605
  872SOL    HW2 4514   9.547  14.779   4.686
  873SOL     OW 4515   0.735   9.223  12.053
  873SOL    HW1 4516   0.660   9.258  12.005
  873SOL    HW2 4517   0.698   9.156  12.109
  874SOL     OW 4518  12.038   7.050   8.340
  874SOL    HW1 4519  11.969   7.039   8.274
  874SOL    HW2 4520  12.027   6.975   8.399
  875SOL     OW 4521   2.064  12.686   5.848
  875SOL    HW1 4522   2.042  12.736   5.927
  875SOL    HW2 4523   2.004  12.717   5.781
  876SOL     OW 4524  12.642  11.458   8.487
  876SOL    HW1 4525  12.703  11.520   8.526
  876SOL    HW2 4526  12.685  11.373   8.497
  877SOL     OW 4527   9.118   2.650  10.063
  877SOL    HW1 4528   9.190   2.595  10.093
  877SOL    HW2 4529   9.056   2.588  10.023
  878SOL     OW 4530   8.941   5.561   1.341
  878SOL    HW1 4531   8.860   5.591   1.381
  878SOL    HW2 4532   8.931   5.582   1.248
  879SOL     OW 4533   8.446   6.681  11.645
  879SOL    HW1 4534   8.412   6.757  11.694
  879SOL    HW2 4535   8.445   6.709  11.554
  880SOL     OW 4536   6.566  14.721  13.019
  880SOL    HW1 4537   6.563  14.803  13.068
  880SOL    HW2 4538   6.474  14.699  13.004
  881SOL     OW 4539   9.898  14.213  13.395
  881SOL    HW1 4540   9.939  14.228  13.310
  881SOL    HW2 4541   9.808  14.188  13.374
  882SOL     OW 4542  11.950   5.826   0.382
  882SOL    HW1 4543  11.900   5.852   0.459
  882SOL    HW2 4544  11.911   5.876   0.310
  883SOL     OW 4545  11.806   0.192   2.161
  883SOL    HW1 4546  11.835   0.217   2.074
  883SOL    HW2 4547  11.852   0.110   2.180
  884SOL     OW 4548   7.491  12.601   9.233
  884SOL    HW1 4549   7.515  12.694   9.238
  884SOL    HW2 4550   7.435  12.595   9.156
  885SOL     OW 4551  10.655   3.298   0.512
  885SOL    HW1 4552  10.576   3.258   0.477
  885SOL    HW2 4553  10.624   3.359   0.578
  886SOL     OW 4554   9.315  14.446  13.859
  886SOL    HW1 4555   9.385  14.398  13.815
  886SOL    HW2 4556   9.257  14.379  13.894
  887SOL     OW 4557   5.330   8.489   1.475
  887SOL    HW1 4558   5.308   8.517   1.386
  887SOL    HW2 4559   5.418   8.524   1.489
  888SOL     OW 4560   7.108   9.506  14.057
  888SOL    HW1 4561   7.062   9.510  13.973
  888SOL    HW2 4562   7.092   9.591  14.098
  889SOL     OW 4563  12.970   0.827  11.133
  889SOL    HW1 4564  12.894   0.860  11.086
  889SOL    HW2 4565  12.941   0.743  11.170
  890SOL     OW 4566   8.447   1.580  14.636
  890SOL    HW1 4567   8.486   1.558  14.721
  890SOL    HW2 4568   8.354   1.561  14.648
  891SOL     OW 4569  12.021   1.886  13.020
  891SOL    HW1 4570  11.962   1.939  12.965
  891SOL    HW2 4571  12.094   1.865  12.962
  892SOL     OW 4572   0.365   8.347   1.354
  892SOL    HW1 4573   0.425   8.308   1.289
  892SOL    HW2 4574   0.397   8.436   1.366
  893SOL     OW 4575   5.460  10.781   3.901
  893SOL    HW1 4576   5.408  10.745   3.828
  893SOL    HW2 4577   5.439  10.874   3.902
  894SOL     OW 4578   4.256   5.682  12.930
  894SOL    HW1 4579   4.249   5.587  12.931
  894SOL    HW2 4580   4.206   5.709  12.853
  895SOL     OW 4581   3.706  14.557   1.448
  895SOL    HW1 4582   3.674  14.530   1.362
  895SOL    HW2 4583   3.684  14.484   1.506
  896SOL     OW 4584   2.040  10.209   0.882
  896SOL    HW1 4585   2.062  10.206   0.789
  896SOL    HW2 4586   1.946  10.224   0.884
  897SOL     OW 4587   1.216   2.006   6.806
  897SOL    HW1 4588   1.121   2.001   6.795
  897SOL    HW2 4589   1.246   1.916   6.795
  898SOL     OW 4590  10.751  13.055  11.215
  898SOL    HW1 4591  10.684  13.053  11.284
  898SOL    HW2 4592  10.830  13.024  11.259
  899SOL     OW 4593   6.757  11.253   3.593
  899SOL    HW1 4594   6.848  11.237   3.618
  899SOL    HW2 4595   6.761  11.331   3.537
  900SOL     OW 4596   7.654   8.394  11.011
  900SOL    HW1 4597   7.726   8.381  10.950
  900SOL    HW2 4598   7.575   8.375  10.960
  901SOL     OW 4599   2.996   6.301   9.272
  901SOL    HW1 4600   2.982   6.206   9.277
  901SOL    HW2 4601   2.938   6.330   9.201
  902SOL     OW 4602   4.339   4.656   1.596
  902SOL    HW1 4603   4.289   4.595   1.650
  902SOL    HW2 4604   4.289   4.738   1.601
  903SOL     OW 4605   3.381  11.644   5.447
  903SOL    HW1 4606   3.450  11.670   5.509
  903SOL    HW2 4607   3.301  11.680   5.485
  904SOL     OW 4608   7.158  11.190  11.435
  904SOL    HW1 4609   7.111  11.235  11.505
  904SOL    HW2 4610   7.249  11.219  11.443
  905SOL     OW 4611   1.402   6.965  14.379
  905SOL    HW1 4612   1.401   6.878  14.338
  905SOL    HW2 4613   1.443   6.951  14.464
  906SOL     OW 4614   3.779  11.795  10.472
  906SOL    HW1 4615   3.689  11.809  10.502
  906SOL    HW2 4616   3.824  11.878  10.489
  907SOL     OW 4617  14.047   9.854   3.092
  907SOL    HW1 4618  13.991   9.777   3.088
  907SOL    HW2 4619  14.003   9.919   3.036
  908SOL     OW 4620   7.995   8.509  14.480
  908SOL    HW1 4621   8.031   8.596  14.463
  908SOL    HW2 4622   8.028   8.487  14.567
  909SOL     OW 4623   3.199  11.289   3.920
  909SOL    HW1 4624   3.156  11.293   4.006
  909SOL    HW2 4625   3.134  11.323   3.859
  910SOL     OW 4626   6.852  13.952   7.596
  910SOL    HW1 4627   6.817  13.865   7.615
  910SOL    HW2 4628   6.924  13.936   7.535
  911SOL     OW 4629   1.096   3.298   4.059
  911SOL    HW1 4630   1.122   3.213   4.024
  911SOL    HW2 4631   1.080   3.352   3.981
  912SOL     OW 4632  12.575   6.094  10.705
  912SOL    HW1 4633  12.633   6.020  10.727
  912SOL    HW2 4634  12.498   6.081  10.760
  913SOL     OW 4635  13.364  12.730   1.821
  913SOL    HW1 4636  13.384  12.804   1.762
  913SOL    HW2 4637  13.298  12.680   1.775
  914SOL     OW 4638   1.462   8.916   7.702
  914SOL    HW1 4639   1.376   8.954   7.720
  914SOL    HW2 4640   1.513   8.936   7.781
  915SOL     OW 4641   0.817   8.029   0.134
  915SOL    HW1 4642   0.816   8.112   0.182
  915SOL    HW2 4643   0.778   7.966   0.194
  916SOL     OW 4644  10.891   9.177   3.788
  916SOL    HW1 4645  10.922   9.087   3.779
  916SOL    HW2 4646  10.855   9.181   3.877
  917SOL     OW 4647   5.192  12.536   9.594
  917SOL    HW1 4648   5.154  12.488   9.668
  917SOL    HW2 4649   5.271  12.577   9.630
  918SOL     OW 4650  10.468   9.848  14.278
  918SOL    HW1 4651  10.559   9.831  14.253
  918SOL    HW2 4652  10.443   9.774  14.333
  919SOL     OW 4653   9.461   1.684  14.174
  919SOL    HW1 4654   9.486   1.764  14.219
  919SOL    HW2 4655   9.517   1.616  14.213
  920SOL     OW 4656   8.663  14.278   5.401
  920SOL    HW1 4657   8.650  14.284   5.306
  920SOL    HW2 4658   8.611  14.350   5.436
  921SOL     OW 4659   3.072   0.676   7.850
  921SOL    HW1 4660   3.148   0.720   7.813
  921SOL    HW2 4661   3.083   0.584   7.826
  922SOL     OW 4662   2.506   5.088  13.787
  922SOL    HW1 4663   2.444   5.022  13.818
  922SOL    HW2 4664   2.548   5.048  13.711
  923SOL     OW 4665   4.366   1.337  13.472
  923SOL    HW1 4666   4.417   1.306  13.397
  923SOL    HW2 4667   4.384   1.431  13.476
  924SOL     OW 4668  13.566   3.300  14.547
  924SOL    HW1 4669  13.517   3.220  14.532
  924SOL    HW2 4670  13.523   3.342  14.622
  925SOL     OW 4671   6.727  13.691   7.911
  925SOL    HW1 4672   6.662  13.757   7.885
  925SOL    HW2 4673   6.719  13.686   8.006
  926SOL     OW 4674   9.548   5.451   7.336
  926SOL    HW1 4675   9.458   5.453   7.368
  926SOL    HW2 4676   9.541   5.480   7.245
  927SOL     OW 4677   5.447  11.538   1.499
  927SOL    HW1 4678   5.502  11.506   1.428
  927SOL    HW2 4679   5.509  11.573   1.563
  928SOL     OW 4680  13.981  14.515   8.025
  928SOL    HW1 4681  14.044  14.444   8.042
  928SOL    HW2 4682  13.976  14.563   8.108
  929SOL     OW 4683   3.450   1.357   1.986
  929SOL    HW1 4684   3.442   1.304   1.907
  929SOL    HW2 4685   3.493   1.437   1.957
  930SOL     OW 4686   8.089   0.887  11.994
  930SOL    HW1 4687   8.127   0.828  12.059
  930SOL    HW2 4688   8.152   0.887  11.922
  931SOL     OW 4689  11.131   5.591  13.210
  931SOL    HW1 4690  11.132   5.503  13.172
  931SOL    HW2 4691  11.219   5.625  13.196
  932SOL     OW 4692   1.539  12.631   4.953
  932SOL    HW1 4693   1.610  12.683   4.992
  932SOL    HW2 4694   1.535  12.660   4.862
  933SOL     OW 4695  13.065   4.385   2.084
  933SOL    HW1 4696  12.977   4.362   2.114
  933SOL    HW2 4697  13.113   4.407   2.164
  934SOL     OW 4698  10.645  13.394   5.499
  934SOL    HW1 4699  10.657  13.326   5.565
  934SOL    HW2 4700  10.557  13.378   5.463
  935SOL     OW 4701  14.580  14.116  14.779
  935SOL    HW1 4702  14.488  14.100  14.799
  935SOL    HW2 4703  14.610  14.033  14.742
  936SOL     OW 4704   4.800  12.147  14.540
  936SOL    HW1 4705   4.846  12.115  14.618
  936SOL    HW2 4706   4.777  12.068  14.491
  937SOL     OW 4707   6.118  10.439   1.745
  937SOL    HW1 4708   6.123  10.517   1.691
  937SOL    HW2 4709   6.145  10.468   1.833
  938SOL     OW 4710   4.680   7.962  14.454
  938SOL    HW1 4711   4.603   7.911  14.481
  938SOL    HW2 4712   4.685   8.033  14.517
  939SOL     OW 4713  14.684  13.412   2.553
  939SOL    HW1 4714  14.691  13.482   2.618
  939SOL    HW2 4715  14.733  13.444   2.477
  940SOL     OW 4716   9.184   1.894   3.536
  940SOL    HW1 4717   9.163   1.983   3.563
  940SOL    HW2 4718   9.161   1.890   3.444
  941SOL     OW 4719   5.752   4.469   8.698
  941SOL    HW1 4720   5.685   4.493   8.763
  941SOL    HW2 4721   5.749   4.540   8.634
  942SOL     OW 4722   7.129   2.931   6.429
  942SOL    HW1 4723   7.157   2.868   6.496
  942SOL    HW2 4724   7.192   3.003   6.436
  943SOL     OW 4725   3.880   6.201   2.475
  943SOL    HW1 4726   3.869   6.296   2.465
  943SOL    HW2 4727   3.956   6.192   2.533
  944SOL     OW 4728   7.424  13.043  12.491
  944SOL    HW1 4729   7.516  13.020  12.481
  944SOL    HW2 4730   7.377  12.968  12.455
  945SOL     OW 4731  11.011  10.195  14.177
  945SOL    HW1 4732  10.939  10.211  14.117
  945SOL    HW2 4733  11.067  10.132  14.132
  946SOL     OW 4734   7.237  10.254  11.257
  946SOL    HW1 4735   7.193  10.172  11.281
  946SOL    HW2 4736   7.328  10.229  11.243
  947SOL     OW 4737   3.837   3.872   0.755
  947SOL    HW1 4738   3.788   3.809   0.809
  947SOL    HW2 4739   3.814   3.849   0.665
  948SOL     OW 4740   0.859  13.680   1.998
  948SOL    HW1 4741   0.942  13.659   2.043
  948SOL    HW2 4742   0.822  13.752   2.048
  949SOL     OW 4743   5.569  14.315   5.538
  949SOL    HW1 4744   5.600  14.343   5.452
  949SOL    HW2 4745   5.593  14.387   5.596
  950SOL     OW 4746   3.061   4.894   4.705
  950SOL    HW1 4747   3.027   4.805   4.692
  950SOL    HW2 4748   3.152   4.880   4.733
  951SOL     OW 4749   9.658   1.631   3.447
  951SOL    HW1 4750   9.570   1.662   3.468
  951SOL    HW2 4751   9.706   1.710   3.423
  952SOL     OW 4752   7.003   1.950   4.146
  952SOL    HW1 4753   6.999   1.863   4.187
  952SOL    HW2 4754   6.933   1.999   4.188
  953SOL     OW 4755   4.705  10.476   8.612
  953SOL    HW1 4756   4.679  10.560   8.650
  953SOL    HW2 4757   4.648  10.411   8.655
  954SOL     OW 4758  13.436  12.434   8.724
  954SOL    HW1 4759  13.418  12.406   8.813
  954SOL    HW2 4760  13.350  12.444   8.683
  955SOL     OW 4761   1.291   4.335  10.024
  955SOL    HW1 4762   1.216   4.396  10.017
  955SOL    HW2 4763   1.335   4.343   9.939
  956SOL     OW 4764   3.825   4.692   4.537
  956SOL    HW1 4765   3.831   4.783   4.508
  956SOL    HW2 4766   3.847   4.641   4.459
  957SOL     OW 4767  13.839   0.737  11.117
  957SOL    HW1 4768  13.859   0.657  11.067
  957SOL    HW2 4769  13.908   0.798  11.093
  958SOL     OW 4770   8.760   3.468   2.465
  958SOL    HW1 4771   8.831   3.494   2.406
  958SOL    HW2 4772   8.689   3.529   2.446
  959SOL     OW 4773   7.914   4.412   1.686
  959SOL    HW1 4774   7.825   4.416   1.651
  959SOL    HW2 4775   7.942   4.503   1.689
  960SOL     OW 4776   1.471   4.574   1.853
  960SOL    HW1 4777   1.476   4.504   1.788
  960SOL    HW2 4778   1.506   4.535   1.933
  961SOL     OW 4779   2.620   7.694  10.540
  961SOL    HW1 4780   2.568   7.774  10.535
  961SOL    HW2 4781   2.590   7.650  10.619
  962SOL     OW 4782   7.949  12.556  11.611
  962SOL    HW1 4783   7.991  12.552  11.697
  962SOL    HW2 4784   7.938  12.464  11.586
  963SOL     OW 4785   5.882   2.421   9.575
  963SOL    HW1 4786   5.847   2.370   9.648
  963SOL    HW2 4787   5.971   2.387   9.563
  964SOL     OW 4788  11.755   9.878  11.545
  964SOL    HW1 4789  11.800   9.960  11.562
  964SOL    HW2 4790  11.666   9.904  11.522
  965SOL     OW 4791  13.970   2.846   6.986
  965SOL    HW1 4792  13.882   2.871   6.960
  965SOL    HW2 4793  13.958   2.790   7.062
  966SOL     OW 4794   5.659   9.227  11.246
  966SOL    HW1 4795   5.666   9.135  11.270
  966SOL    HW2 4796   5.610   9.228  11.163
  967SOL     OW 4797   0.847  13.593   8.001
  967SOL    HW1 4798   0.889  13.573   7.918
  967SOL    HW2 4799   0.838  13.689   8.001
  968SOL     OW 4800   1.240   0.666   2.772
  968SOL    HW1 4801   1.308   0.619   2.723
  968SOL    HW2 4802   1.204   0.600   2.831
  969SOL     OW 4803   8.162   7.518   0.327
  969SOL    HW1 4804   8.129   7.498   0.414
  969SOL    HW2 4805   8.086   7.547   0.277
  970SOL     OW 4806  10.441   3.051   4.665
  970SOL    HW1 4807  10.452   2.964   4.704
  970SOL    HW2 4808  10.478   3.111   4.729
  971SOL     OW 4809  10.120   8.286   8.250
  971SOL    HW1 4810  10.142   8.194   8.262
  971SOL    HW2 4811  10.086   8.314   8.335
  972SOL     OW 4812   3.467  13.394   1.715
  972SOL    HW1 4813   3.557  13.417   1.690
  972SOL    HW2 4814   3.417  13.400   1.634
  973SOL     OW 4815   6.903   8.021   2.624
  973SOL    HW1 4816   6.827   8.026   2.567
  973SOL    HW2 4817   6.962   7.958   2.582
  974SOL     OW 4818   0.993   6.960   6.723
  974SOL    HW1 4819   1.088   6.968   6.721
  974SOL    HW2 4820   0.963   7.008   6.646
  975SOL     OW 4821   2.619   6.195   1.214
  975SOL    HW1 4822   2.655   6.132   1.276
  975SOL    HW2 4823   2.619   6.278   1.261
  976SOL     OW 4824   2.543  12.564   6.053
  976SOL    HW1 4825   2.585  12.578   6.138
  976SOL    HW2 4826   2.613  12.529   5.997
  977SOL     OW 4827  14.691   6.286   5.422
  977SOL    HW1 4828  14.610   6.261   5.379
  977SOL    HW2 4829  14.667   6.301   5.513
  978SOL     OW 4830   4.452   2.895   4.088
  978SOL    HW1 4831   4.421   2.980   4.119
  978SOL    HW2 4832   4.471   2.845   4.168
  979SOL     OW 4833  12.434  14.520   8.718
  979SOL    HW1 4834  12.472  14.461   8.653
  979SOL    HW2 4835  12.353  14.476   8.746
  980SOL     OW 4836   8.808   2.852   6.769
  980SOL    HW1 4837   8.827   2.759   6.755
  980SOL    HW2 4838   8.785   2.858   6.862
  981SOL     OW 4839  13.283   4.321   9.151
  981SOL    HW1 4840  13.375   4.295   9.157
  981SOL    HW2 4841  13.238   4.263   9.212
  982SOL     OW 4842   3.390   5.482   8.228
  982SOL    HW1 4843   3.442   5.558   8.201
  982SOL    HW2 4844   3.439   5.444   8.300
  983SOL     OW 4845   3.948  12.227   4.233
  983SOL    HW1 4846   3.878  12.280   4.196
  983SOL    HW2 4847   3.970  12.165   4.163
  984SOL     OW 4848  13.620   3.459   0.504
  984SOL    HW1 4849  13.573   3.462   0.587
  984SOL    HW2 4850  13.631   3.365   0.486
  985SOL     OW 4851  11.347   3.816  13.971
  985SOL    HW1 4852  11.270   3.760  13.962
  985SOL    HW2 4853  11.421   3.756  13.967
  986SOL     OW 4854   7.952   8.695  12.258
  986SOL    HW1 4855   7.913   8.660  12.338
  986SOL    HW2 4856   7.881   8.745  12.218
  987SOL     OW 4857   8.073   2.042   6.783
  987SOL    HW1 4858   8.090   1.958   6.826
  987SOL    HW2 4859   8.031   2.095   6.852
  988SOL     OW 4860   8.491  13.835   7.982
  988SOL    HW1 4861   8.575  13.857   7.942
  988SOL    HW2 4862   8.510  13.826   8.075
  989SOL     OW 4863   2.760   3.618  10.125
  989SOL    HW1 4864   2.702   3.688  10.096
  989SOL    HW2 4865   2.729   3.596  10.213
  990SOL     OW 4866  13.460   9.504  12.605
  990SOL    HW1 4867  13.533   9.546  12.651
  990SOL    HW2 4868  13.425   9.574  12.550
  991SOL     OW 4869   4.583   0.455  14.728
  991SOL    HW1 4870   4.653   0.393  14.750
  991SOL    HW2 4871   4.527   0.407  14.667
  992SOL     OW 4872   2.465  13.356   2.377
  992SOL    HW1 4873   2.406  13.321   2.310
  992SOL    HW2 4874   2.546  13.307   2.366
  993SOL     OW 4875   3.504  14.617   9.510
  993SOL    HW1 4876   3.409  14.610   9.515
  993SOL    HW2 4877   3.529  14.555   9.441
  994SOL     OW 4878   4.236  11.740   3.915
  994SOL    HW1 4879   4.142  11.735   3.929
  994SOL    HW2 4880   4.272  11.772   3.998
  995SOL     OW 4881  13.421   6.232   4.759
  995SOL    HW1 4882  13.382   6.149   4.786
  995SOL    HW2 4883  13.512   6.211   4.741
  996SOL     OW 4884  12.257   5.742   0.730
  996SOL    HW1 4885  12.350   5.746   0.752
  996SOL    HW2 4886  12.224   5.667   0.779
  997SOL     OW 4887   0.710  12.910   4.482
  997SOL    HW1 4888   0.669  12.961   4.552
  997SOL    HW2 4889   0.799  12.945   4.476
  998SOL     OW 4890   3.939   3.562   9.002
  998SOL    HW1 4891   4.004   3.545   9.070
  998SOL    HW2 4892   3.986   3.548   8.920
  999SOL     OW 4893   8.456   0.419   7.318
  999SOL    HW1 4894   8.511   0.473   7.375
  999SOL    HW2 4895   8.471   0.453   7.230
 1000SOL     OW 4896   8.163   1.831  13.968
 1000SOL    HW1 4897   8.225   1.780  14.021
 1000SOL    HW2 4898   8.218   1.877  13.905
 1001SOL     OW 4899   4.333  10.216   6.936
 1001SOL    HW1 4900   4.333  10.301   6.980
 1001SOL    HW2 4901   4.375  10.157   6.998
 1002SOL     OW 4902   4.388   5.000   1.361
 1002SOL    HW1 4903   4.330   4.936   1.403
 1002SOL    HW2 4904   4.363   4.999   1.269
 1003SOL     OW 4905   7.013   8.852  11.626
 1003SOL    HW1 4906   7.091   8.839  11.572
 1003SOL    HW2 4907   6.991   8.945  11.615
 1004SOL     OW 4908   5.961   3.856   7.480
 1004SOL    HW1 4909   5.869   3.834   7.472
 1004SOL    HW2 4910   5.964   3.951   7.471
 1005SOL     OW 4911  11.953   0.524  14.852
 1005SOL    HW1 4912  11.915   0.575   0.051
 1005SOL    HW2 4913  12.047   0.537  14.861
 1006SOL     OW 4914   6.619   3.070  14.689
 1006SOL    HW1 4915   6.618   3.128  14.612
 1006SOL    HW2 4916   6.664   3.121  14.756
 1007SOL     OW 4917   4.265   1.570   4.591
 1007SOL    HW1 4918   4.233   1.659   4.579
 1007SOL    HW2 4919   4.196   1.514   4.554
 1008SOL     OW 4920  14.359   4.628   7.179
 1008SOL    HW1 4921  14.446   4.665   7.165
 1008SOL    HW2 4922  14.367   4.575   7.258
 1009SOL     OW 4923  14.636  11.291   3.640
 1009SOL    HW1 4924  14.659  11.198   3.633
 1009SOL    HW2 4925  14.620  11.304   3.734
 1010SOL     OW 4926  12.302  11.411  14.258
 1010SOL    HW1 4927  12.275  11.503  14.254
 1010SOL    HW2 4928  12.359  11.400  14.182
 1011SOL     OW 4929  10.831  10.480   0.526
 1011SOL    HW1 4930  10.879  10.546   0.475
 1011SOL    HW2 4931  10.897  10.442   0.584
 1012SOL     OW 4932  13.934   2.748   1.772
 1012SOL    HW1 4933  14.029   2.737   1.775
 1012SOL    HW2 4934  13.917   2.829   1.820
 1013SOL     OW 4935   3.754   3.995   1.703
 1013SOL    HW1 4936   3.754   3.899   1.703
 1013SOL    HW2 4937   3.845   4.019   1.718
 1014SOL     OW 4938   9.870   3.051   0.889
 1014SOL    HW1 4939   9.868   3.069   0.983
 1014SOL    HW2 4940   9.889   3.136   0.849
 1015SOL     OW 4941   0.279  10.373   2.614
 1015SOL    HW1 4942   0.245  10.291   2.651
 1015SOL    HW2 4943   0.220  10.391   2.540
 1016SOL     OW 4944   7.577  13.242   3.753
 1016SOL    HW1 4945   7.502  13.192   3.722
 1016SOL    HW2 4946   7.652  13.185   3.737
 1017SOL     OW 4947  10.639   4.867  14.065
 1017SOL    HW1 4948  10.731   4.892  14.073
 1017SOL    HW2 4949  10.604   4.877  14.154
 1018SOL     OW 4950   4.220  12.852  13.375
 1018SOL    HW1 4951   4.268  12.779  13.414
 1018SOL    HW2 4952   4.167  12.888  13.446
 1019SOL     OW 4953   4.595  12.209  12.953
 1019SOL    HW1 4954   4.512  12.200  13.001
 1019SOL    HW2 4955   4.662  12.186  13.017
 1020SOL     OW 4956   0.253   3.875   0.977
 1020SOL    HW1 4957   0.334   3.838   1.013
 1020SOL    HW2 4958   0.251   3.965   1.010
 1021SOL     OW 4959   4.657   7.049   5.078
 1021SOL    HW1 4960   4.617   6.999   5.006
 1021SOL    HW2 4961   4.626   7.138   5.065
 1022SOL     OW 4962   2.303  10.813   7.754
 1022SOL    HW1 4963   2.246  10.805   7.831
 1022SOL    HW2 4964   2.272  10.892   7.710
 1023SOL     OW 4965   6.382   2.243   7.295
 1023SOL    HW1 4966   6.389   2.265   7.203
 1023SOL    HW2 4967   6.448   2.297   7.338
 1024SOL     OW 4968  14.594  10.124   1.775
 1024SOL    HW1 4969  14.592  10.034   1.742
 1024SOL    HW2 4970  14.606  10.115   1.869
 1025SOL     OW 4971   3.058  12.560  11.438
 1025SOL    HW1 4972   2.982  12.564  11.380
 1025SOL    HW2 4973   3.036  12.492  11.502
 1026SOL     OW 4974   9.417   6.584  12.715
 1026SOL    HW1 4975   9.461   6.505  12.747
 1026SOL    HW2 4976   9.405   6.637  12.794
 1027SOL     OW 4977  11.140   4.717   2.954
 1027SOL    HW1 4978  11.140   4.709   3.050
 1027SOL    HW2 4979  11.220   4.674   2.927
 1028SOL     OW 4980   5.393   5.349   7.015
 1028SOL    HW1 4981   5.321   5.412   7.015
 1028SOL    HW2 4982   5.454   5.382   7.081
 1029SOL     OW 4983   5.932   9.879   8.476
 1029SOL    HW1 4984   5.853   9.883   8.529
 1029SOL    HW2 4985   5.965   9.969   8.475
 1030SOL     OW 4986   2.620  10.396  10.819
 1030SOL    HW1 4987   2.547  10.455  10.803
 1030SOL    HW2 4988   2.691  10.428  10.763
 1031SOL     OW 4989   8.490   9.338   3.842
 1031SOL    HW1 4990   8.532   9.363   3.760
 1031SOL    HW2 4991   8.473   9.244   3.832
 1032SOL     OW 4992   3.919  14.201   0.909
 1032SOL    HW1 4993   3.955  14.252   0.836
 1032SOL    HW2 4994   3.973  14.223   0.984
 1033SOL     OW 4995  10.283   4.982   5.662
 1033SOL    HW1 4996  10.227   4.996   5.586
 1033SOL    HW2 4997  10.371   4.969   5.625
 1034SOL     OW 4998  12.595   6.005  12.275
 1034SOL    HW1 4999  12.530   5.940  12.247
 1034SOL    HW2 5000  12.556   6.089  12.253
 1035SOL     OW 5001  10.022  12.228   9.930
 1035SOL    HW1 5002  10.044  12.221  10.023
 1035SOL    HW2 5003  10.106  12.219   9.886
 1036SOL     OW 5004   4.488   6.935  10.061
 1036SOL    HW1 5005   4.568   6.986  10.051
 1036SOL    HW2 5006   4.472   6.899   9.974
 1037SOL     OW 5007   5.966  14.771   8.314
 1037SOL    HW1 5008   5.924  14.845   8.270
 1037SOL    HW2 5009   6.028  14.811   8.375
 1038SOL     OW 5010   6.949  11.505   5.471
 1038SOL    HW1 5011   6.917  11.580   5.521
 1038SOL    HW2 5012   7.035  11.532   5.440
 1039SOL     OW 5013   3.952   4.187   7.375
 1039SOL    HW1 5014   3.942   4.187   7.280
 1039SOL    HW2 5015   4.016   4.256   7.392
 1040SOL     OW 5016   0.704   9.995   4.680
 1040SOL    HW1 5017   0.793  10.027   4.666
 1040SOL    HW2 5018   0.709   9.943   4.760
 1041SOL     OW 5019  14.502   9.226   4.478
 1041SOL    HW1 5020  14.546   9.311   4.478
 1041SOL    HW2 5021  14.433   9.234   4.412
 1042SOL     OW 5022   2.467   4.388   5.607
 1042SOL    HW1 5023   2.445   4.467   5.657
 1042SOL    HW2 5024   2.482   4.321   5.674
 1043SOL     OW 5025   5.665   7.306   1.786
 1043SOL    HW1 5026   5.664   7.401   1.791
 1043SOL    HW2 5027   5.714   7.286   1.706
 1044SOL     OW 5028   0.374   0.428  13.095
 1044SOL    HW1 5029   0.421   0.362  13.146
 1044SOL    HW2 5030   0.342   0.490  13.161
 1045SOL     OW 5031   7.618  11.279  12.035
 1045SOL    HW1 5032   7.626  11.238  11.949
 1045SOL    HW2 5033   7.529  11.256  12.064
 1046SOL     OW 5034   9.529  13.183   6.511
 1046SOL    HW1 5035   9.593  13.155   6.445
 1046SOL    HW2 5036   9.454  13.125   6.498
 1047SOL     OW 5037   3.652   6.226   8.556
 1047SOL    HW1 5038   3.650   6.236   8.461
 1047SOL    HW2 5039   3.599   6.149   8.574
 1048SOL     OW 5040  11.438   8.744  11.158
 1048SOL    HW1 5041  11.365   8.790  11.201
 1048SOL    HW2 5042  11.401   8.714  11.075
 1049SOL     OW 5043   5.371   5.723   2.170
 1049SOL    HW1 5044   5.360   5.671   2.091
 1049SOL    HW2 5045   5.428   5.796   2.143
 1050SOL     OW 5046   2.538   5.442   4.401
 1050SOL    HW1 5047   2.507   5.355   4.424
 1050SOL    HW2 5048   2.546   5.441   4.306
 1051SOL     OW 5049   9.283   1.506   3.322
 1051SOL    HW1 5050   9.319   1.478   3.406
 1051SOL    HW2 5051   9.270   1.425   3.273
 1052SOL     OW 5052   0.441  13.566  13.763
 1052SOL    HW1 5053   0.430  13.603  13.676
 1052SOL    HW2 5054   0.352  13.555  13.797
 1053SOL     OW 5055  12.688  14.454  12.741
 1053SOL    HW1 5056  12.694  14.534  12.689
 1053SOL    HW2 5057  12.595  14.438  12.751
 1054SOL     OW 5058   3.548  13.806  13.453
 1054SOL    HW1 5059   3.519  13.843  13.370
 1054SOL    HW2 5060   3.511  13.717  13.453
 1055SOL     OW 5061   3.370   5.519   7.322
 1055SOL    HW1 5062   3.294   5.569   7.292
 1055SOL    HW2 5063   3.347   5.428   7.306
 1056SOL     OW 5064  11.821   8.524   8.793
 1056SOL    HW1 5065  11.866   8.443   8.771
 1056SOL    HW2 5066  11.733   8.497   8.819
 1057SOL     OW 5067  10.525   2.022   2.666
 1057SOL    HW1 5068  10.565   2.063   2.589
 1057SOL    HW2 5069  10.459   1.962   2.629
 1058SOL     OW 5070  14.736   3.221  13.557
 1058SOL    HW1 5071  14.822   3.252  13.586
 1058SOL    HW2 5072  14.686   3.210  13.638
 1059SOL     OW 5073   3.582   6.071  12.117
 1059SOL    HW1 5074   3.638   6.147  12.129
 1059SOL    HW2 5075   3.632   5.998  12.153
 1060SOL     OW 5076  11.282   6.935   0.744
 1060SOL    HW1 5077  11.364   6.959   0.701
 1060SOL    HW2 5078  11.214   6.969   0.686
 1061SOL     OW 5079   2.290  12.003   8.347
 1061SOL    HW1 5080   2.369  11.955   8.371
 1061SOL    HW2 5081   2.266  12.052   8.427
 1062SOL     OW 5082   8.486   9.492   3.280
 1062SOL    HW1 5083   8.533   9.558   3.229
 1062SOL    HW2 5084   8.475   9.419   3.219
 1063SOL     OW 5085   9.810   9.922   5.175
 1063SOL    HW1 5086   9.727   9.955   5.212
 1063SOL    HW2 5087   9.786   9.841   5.131
 1064SOL     OW 5088   7.659   0.254   4.376
 1064SOL    HW1 5089   7.573   0.296   4.364
 1064SOL    HW2 5090   7.722   0.325   4.367
 1065SOL     OW 5091   4.916   6.878  13.599
 1065SOL    HW1 5092   4.956   6.960  13.629
 1065SOL    HW2 5093   4.825   6.884  13.629
 1066SOL     OW 5094   5.503  12.476   9.418
 1066SOL    HW1 5095   5.541  12.397   9.380
 1066SOL    HW2 5096   5.503  12.539   9.346
 1067SOL     OW 5097  11.758   3.537   6.707
 1067SOL    HW1 5098  11.695   3.479   6.664
 1067SOL    HW2 5099  11.771   3.498   6.794
 1068SOL     OW 5100   0.910   8.331   2.054
 1068SOL    HW1 5101   0.826   8.316   2.010
 1068SOL    HW2 5102   0.974   8.329   1.983
 1069SOL     OW 5103   4.444  10.708   8.105
 1069SOL    HW1 5104   4.370  10.761   8.136
 1069SOL    HW2 5105   4.412  10.668   8.024
 1070SOL     OW 5106   9.146   2.753  10.634
 1070SOL    HW1 5107   9.168   2.691  10.703
 1070SOL    HW2 5108   9.217   2.747  10.571
 1071SOL     OW 5109   4.454  11.601  10.725
 1071SOL    HW1 5110   4.478  11.570  10.638
 1071SOL    HW2 5111   4.427  11.692  10.711
 1072SOL     OW 5112   4.838  12.366  12.624
 1072SOL    HW1 5113   4.806  12.276  12.624
 1072SOL    HW2 5114   4.765  12.417  12.658
 1073SOL     OW 5115  14.426   9.774  11.291
 1073SOL    HW1 5116  14.420   9.868  11.306
 1073SOL    HW2 5117  14.504   9.746  11.339
 1074SOL     OW 5118  10.782  10.185   1.846
 1074SOL    HW1 5119  10.730  10.136   1.910
 1074SOL    HW2 5120  10.738  10.169   1.762
 1075SOL     OW 5121   5.842   3.056  11.697
 1075SOL    HW1 5122   5.834   3.049  11.602
 1075SOL    HW2 5123   5.894   2.980  11.722
 1076SOL     OW 5124  14.507  12.682   4.348
 1076SOL    HW1 5125  14.560  12.613   4.308
 1076SOL    HW2 5126  14.498  12.748   4.279
 1077SOL     OW 5127  10.785   8.877  10.508
 1077SOL    HW1 5128  10.742   8.802  10.549
 1077SOL    HW2 5129  10.867   8.887  10.557
 1078SOL     OW 5130  12.277   0.594  12.747
 1078SOL    HW1 5131  12.272   0.688  12.762
 1078SOL    HW2 5132  12.293   0.585  12.653
 1079SOL     OW 5133   9.958   5.087   0.786
 1079SOL    HW1 5134  10.047   5.081   0.821
 1079SOL    HW2 5135   9.907   5.130   0.855
 1080SOL     OW 5136   9.383   2.279   6.036
 1080SOL    HW1 5137   9.376   2.213   5.967
 1080SOL    HW2 5138   9.423   2.232   6.109
 1081SOL     OW 5139   5.277   1.313   4.369
 1081SOL    HW1 5140   5.349   1.255   4.395
 1081SOL    HW2 5141   5.299   1.339   4.280
 1082SOL     OW 5142  10.104   4.495   1.086
 1082SOL    HW1 5143  10.024   4.486   1.034
 1082SOL    HW2 5144  10.074   4.529   1.170
 1083SOL     OW 5145  13.743   9.139  10.323
 1083SOL    HW1 5146  13.815   9.100  10.273
 1083SOL    HW2 5147  13.781   9.220  10.359
 1084SOL     OW 5148  10.800   1.167   2.786
 1084SOL    HW1 5149  10.789   1.156   2.691
 1084SOL    HW2 5150  10.870   1.232   2.794
 1085SOL     OW 5151  10.221   0.983  14.749
 1085SOL    HW1 5152  10.250   1.057  14.695
 1085SOL    HW2 5153  10.158   0.936  14.694
 1086SOL     OW 5154  11.777   1.420   6.931
 1086SOL    HW1 5155  11.693   1.453   6.899
 1086SOL    HW2 5156  11.765   1.325   6.935
 1087SOL     OW 5157   1.274  14.185  13.079
 1087SOL    HW1 5158   1.239  14.266  13.043
 1087SOL    HW2 5159   1.232  14.116  13.028
 1088SOL     OW 5160   1.647  12.915   6.721
 1088SOL    HW1 5161   1.615  12.848   6.782
 1088SOL    HW2 5162   1.741  12.920   6.738
 1089SOL     OW 5163   4.787   1.179   1.765
 1089SOL    HW1 5164   4.718   1.141   1.711
 1089SOL    HW2 5165   4.769   1.272   1.767
 1090SOL     OW 5166   8.584  11.967   7.608
 1090SOL    HW1 5167   8.560  11.939   7.519
 1090SOL    HW2 5168   8.669  12.009   7.597
 1091SOL     OW 5169   2.594   4.586   0.652
 1091SOL    HW1 5170   2.651   4.516   0.620
 1091SOL    HW2 5171   2.587   4.647   0.579
 1092SOL     OW 5172   4.747   7.943   7.910
 1092SOL    HW1 5173   4.717   8.008   7.847
 1092SOL    HW2 5174   4.821   7.984   7.954
 1093SOL     OW 5175   9.484   4.220   6.634
 1093SOL    HW1 5176   9.534   4.251   6.559
 1093SOL    HW2 5177   9.549   4.177   6.690
 1094SOL     OW 5178  10.203   3.689   5.136
 1094SOL    HW1 5179  10.293   3.679   5.165
 1094SOL    HW2 5180  10.195   3.631   5.060
 1095SOL     OW 5181   1.527   6.723   8.213
 1095SOL    HW1 5182   1.499   6.778   8.140
 1095SOL    HW2 5183   1.513   6.634   8.182
 1096SOL     OW 5184   8.506   3.227   7.290
 1096SOL    HW1 5185   8.547   3.302   7.248
 1096SOL    HW2 5186   8.568   3.202   7.359
 1097SOL     OW 5187   8.803   3.202   0.623
 1097SOL    HW1 5188   8.823   3.280   0.676
 1097SOL    HW2 5189   8.779   3.135   0.688
 1098SOL     OW 5190   3.751  10.670   4.420
 1098SOL    HW1 5191   3.744  10.627   4.335
 1098SOL    HW2 5192   3.667  10.652   4.463
 1099SOL     OW 5193   1.950   5.685  10.364
 1099SOL    HW1 5194   2.036   5.714  10.333
 1099SOL    HW2 5195   1.888   5.731  10.307
 1100SOL     OW 5196   5.171  11.124   7.193
 1100SOL    HW1 5197   5.258  11.131   7.232
 1100SOL    HW2 5198   5.165  11.200   7.134
 1101SOL     OW 5199  13.954   5.352   8.800
 1101SOL    HW1 5200  13.863   5.366   8.826
 1101SOL    HW2 5201  14.005   5.380   8.876
 1102SOL     OW 5202   8.352   6.224   2.710
 1102SOL    HW1 5203   8.409   6.299   2.728
 1102SOL    HW2 5204   8.278   6.260   2.662
 1103SOL     OW 5205   9.615   0.832  10.574
 1103SOL    HW1 5206   9.662   0.805  10.496
 1103SOL    HW2 5207   9.666   0.905  10.609
 1104SOL     OW 5208   8.809   2.390   2.686
 1104SOL    HW1 5209   8.822   2.477   2.725
 1104SOL    HW2 5210   8.793   2.408   2.593
 1105SOL     OW 5211   3.051  12.395  12.246
 1105SOL    HW1 5212   3.015  12.469  12.295
 1105SOL    HW2 5213   3.112  12.354  12.307
 1106SOL     OW 5214  10.688   6.793   3.817
 1106SOL    HW1 5215  10.739   6.851   3.761
 1106SOL    HW2 5216  10.621   6.757   3.760
 1107SOL     OW 5217  11.129  11.625   1.030
 1107SOL    HW1 5218  11.184  11.552   1.002
 1107SOL    HW2 5219  11.068  11.638   0.958
 1108SOL     OW 5220   0.899   3.631  12.943
 1108SOL    HW1 5221   0.877   3.646  12.851
 1108SOL    HW2 5222   0.967   3.696  12.962
 1109SOL     OW 5223  10.859  13.641   3.578
 1109SOL    HW1 5224  10.842  13.694   3.655
 1109SOL    HW2 5225  10.954  13.645   3.566
 1110SOL     OW 5226  12.217  10.023   4.942
 1110SOL    HW1 5227  12.171   9.939   4.935
 1110SOL    HW2 5228  12.204  10.051   5.032
 1111SOL     OW 5229   6.654   7.785  13.573
 1111SOL    HW1 5230   6.747   7.796  13.595
 1111SOL    HW2 5231   6.646   7.819  13.484
 1112SOL     OW 5232   6.556   9.624  12.159
 1112SOL    HW1 5233   6.512   9.590  12.081
 1112SOL    HW2 5234   6.485   9.659  12.213
 1113SOL     OW 5235   5.696   0.137   5.643
 1113SOL    HW1 5236   5.620   0.195   5.645
 1113SOL    HW2 5237   5.765   0.188   5.600
 1114SOL     OW 5238   7.551  12.532   5.699
 1114SOL    HW1 5239   7.591  12.596   5.758
 1114SOL    HW2 5240   7.457  12.539   5.716
 1115SOL     OW 5241   5.798   0.621   3.440
 1115SOL    HW1 5242   5.712   0.586   3.459
 1115SOL    HW2 5243   5.826   0.663   3.522
 1116SOL     OW 5244  12.275  10.520   7.443
 1116SOL    HW1 5245  12.279  10.584   7.514
 1116SOL    HW2 5246  12.313  10.441   7.480
 1117SOL     OW 5247  11.334   0.860   7.869
 1117SOL    HW1 5248  11.317   0.789   7.931
 1117SOL    HW2 5249  11.328   0.939   7.922
 1118SOL     OW 5250   5.274   3.281   6.569
 1118SOL    HW1 5251   5.350   3.323   6.609
 1118SOL    HW2 5252   5.235   3.228   6.639
 1119SOL     OW 5253   5.023   6.348   2.988
 1119SOL    HW1 5254   5.077   6.304   2.921
 1119SOL    HW2 5255   5.083   6.411   3.028
 1120SOL     OW 5256  14.039  14.470  13.643
 1120SOL    HW1 5257  14.104  14.519  13.693
 1120SOL    HW2 5258  14.024  14.391  13.693
 1121SOL     OW 5259   4.749  10.809  11.185
 1121SOL    HW1 5260   4.787  10.882  11.137
 1121SOL    HW2 5261   4.800  10.803  11.266
 1122SOL     OW 5262   8.760   1.921   6.703
 1122SOL    HW1 5263   8.723   1.857   6.763
 1122SOL    HW2 5264   8.709   2.001   6.718
 1123SOL     OW 5265   0.255   6.049  12.129
 1123SOL    HW1 5266   0.289   5.962  12.108
 1123SOL    HW2 5267   0.203   6.074  12.054
 1124SOL     OW 5268   0.726   0.761   5.929
 1124SOL    HW1 5269   0.643   0.764   5.881
 1124SOL    HW2 5270   0.699   0.766   6.021
 1125SOL     OW 5271   2.177   0.627  11.903
 1125SOL    HW1 5272   2.266   0.597  11.884
 1125SOL    HW2 5273   2.184   0.722  11.907
 1126SOL     OW 5274   9.845   5.674   8.972
 1126SOL    HW1 5275   9.883   5.587   8.961
 1126SOL    HW2 5276   9.813   5.675   9.062
 1127SOL     OW 5277  13.462   3.456   6.988
 1127SOL    HW1 5278  13.452   3.385   6.925
 1127SOL    HW2 5279  13.523   3.422   7.054
 1128SOL     OW 5280   3.607  11.145  12.474
 1128SOL    HW1 5281   3.702  11.136  12.482
 1128SOL    HW2 5282   3.583  11.208  12.541
 1129SOL     OW 5283  10.153   6.148  13.846
 1129SOL    HW1 5284  10.195   6.143  13.931
 1129SOL    HW2 5285  10.213   6.104  13.786
 1130SOL     OW 5286   8.381   2.339   3.129
 1130SOL    HW1 5287   8.289   2.366   3.120
 1130SOL    HW2 5288   8.392   2.270   3.063
 1131SOL     OW 5289   8.105  10.932   3.183
 1131SOL    HW1 5290   8.171  11.000   3.172
 1131SOL    HW2 5291   8.143  10.855   3.141
 1132SOL     OW 5292   3.072   6.379   7.891
 1132SOL    HW1 5293   3.096   6.393   7.982
 1132SOL    HW2 5294   3.055   6.466   7.856
 1133SOL     OW 5295   2.774  13.312   3.786
 1133SOL    HW1 5296   2.732  13.270   3.862
 1133SOL    HW2 5297   2.744  13.402   3.790
 1134SOL     OW 5298  12.714  13.823  13.017
 1134SOL    HW1 5299  12.747  13.766  12.947
 1134SOL    HW2 5300  12.676  13.763  13.081
 1135SOL     OW 5301   9.509   1.534  12.390
 1135SOL    HW1 5302   9.486   1.505  12.478
 1135SOL    HW2 5303   9.487   1.459  12.333
 1136SOL     OW 5304  10.586   1.572   4.887
 1136SOL    HW1 5305  10.623   1.513   4.822
 1136SOL    HW2 5306  10.515   1.522   4.928
 1137SOL     OW 5307   7.148   1.273   6.390
 1137SOL    HW1 5308   7.146   1.254   6.296
 1137SOL    HW2 5309   7.096   1.203   6.429
 1138SOL     OW 5310   0.290  14.297   4.531
 1138SOL    HW1 5311   0.373  14.250   4.528
 1138SOL    HW2 5312   0.307  14.378   4.482
 1139SOL     OW 5313   6.994  14.693   1.531
 1139SOL    HW1 5314   7.077  14.718   1.571
 1139SOL    HW2 5315   6.978  14.760   1.465
 1140SOL     OW 5316  13.731   1.143   1.027
 1140SOL    HW1 5317  13.638   1.128   1.044
 1140SOL    HW2 5318  13.733   1.189   0.943
 1141SOL     OW 5319   2.539   1.942  14.791
 1141SOL    HW1 5320   2.518   1.858  14.832
 1141SOL    HW2 5321   2.532   1.925  14.697
 1142SOL     OW 5322   8.389   4.027   3.603
 1142SOL    HW1 5323   8.480   4.055   3.596
 1142SOL    HW2 5324   8.366   4.001   3.514
 1143SOL     OW 5325   3.382  12.680   2.559
 1143SOL    HW1 5326   3.330  12.617   2.609
 1143SOL    HW2 5327   3.406  12.747   2.623
 1144SOL     OW 5328   0.703   4.016   8.326
 1144SOL    HW1 5329   0.779   4.012   8.268
 1144SOL    HW2 5330   0.666   3.928   8.323
 1145SOL     OW 5331   5.886  11.731   7.972
 1145SOL    HW1 5332   5.871  11.638   7.953
 1145SOL    HW2 5333   5.829  11.777   7.910
 1146SOL     OW 5334  13.470   0.987  12.586
 1146SOL    HW1 5335  13.385   0.942  12.593
 1146SOL    HW2 5336  13.464   1.058  12.651
 1147SOL     OW 5337   0.138   2.238   1.375
 1147SOL    HW1 5338   0.165   2.195   1.456
 1147SOL    HW2 5339   0.125   2.167   1.313
 1148SOL     OW 5340  10.459   4.428   5.085
 1148SOL    HW1 5341  10.400   4.424   5.010
 1148SOL    HW2 5342  10.471   4.337   5.112
 1149SOL     OW 5343  11.596   4.618  14.803
 1149SOL    HW1 5344  11.669   4.560  14.825
 1149SOL    HW2 5345  11.605   4.633  14.709
 1150SOL     OW 5346   4.758  12.451   5.171
 1150SOL    HW1 5347   4.681  12.413   5.211
 1150SOL    HW2 5348   4.726  12.530   5.127
 1151SOL     OW 5349   9.739   9.941   0.228
 1151SOL    HW1 5350   9.805   9.885   0.186
 1151SOL    HW2 5351   9.657   9.891   0.220
 1152SOL     OW 5352   7.096   8.678  14.454
 1152SOL    HW1 5353   7.165   8.711  14.396
 1152SOL    HW2 5354   7.056   8.757  14.490
 1153SOL     OW 5355   8.828   5.400   6.186
 1153SOL    HW1 5356   8.898   5.382   6.123
 1153SOL    HW2 5357   8.749   5.368   6.144
 1154SOL     OW 5358  13.328  11.226   9.131
 1154SOL    HW1 5359  13.403  11.282   9.110
 1154SOL    HW2 5360  13.284  11.272   9.202
 1155SOL     OW 5361   5.788   1.473   2.407
 1155SOL    HW1 5362   5.846   1.420   2.462
 1155SOL    HW2 5363   5.765   1.549   2.461
 1156SOL     OW 5364   6.268   3.501   8.736
 1156SOL    HW1 5365   6.313   3.515   8.819
 1156SOL    HW2 5366   6.336   3.465   8.678
 1157SOL     OW 5367   3.195   8.302  13.176
 1157SOL    HW1 5368   3.244   8.290  13.095
 1157SOL    HW2 5369   3.221   8.388  13.207
 1158SOL     OW 5370   4.347   7.177   6.769
 1158SOL    HW1 5371   4.438   7.188   6.743
 1158SOL    HW2 5372   4.297   7.200   6.690
 1159SOL     OW 5373   2.001   7.144  13.516
 1159SOL    HW1 5374   2.000   7.102  13.430
 1159SOL    HW2 5375   1.957   7.228  13.502
 1160SOL     OW 5376   6.841   0.592   1.187
 1160SOL    HW1 5377   6.924   0.552   1.163
 1160SOL    HW2 5378   6.865   0.667   1.242
 1161SOL     OW 5379  11.111   1.329   8.725
 1161SOL    HW1 5380  11.183   1.297   8.670
 1161SOL    HW2 5381  11.154   1.380   8.794
 1162SOL     OW 5382   7.335   3.100   0.811
 1162SOL    HW1 5383   7.347   3.057   0.726
 1162SOL    HW2 5384   7.352   3.030   0.875
 1163SOL     OW 5385  10.092   3.634  14.609
 1163SOL    HW1 5386  10.105   3.552  14.562
 1163SOL    HW2 5387  10.168   3.641  14.667
 1164SOL     OW 5388   2.857   4.864   2.245
 1164SOL    HW1 5389   2.892   4.873   2.334
 1164SOL    HW2 5390   2.903   4.788   2.208
 1165SOL     OW 5391  13.880   9.027   4.795
 1165SOL    HW1 5392  13.938   8.990   4.729
 1165SOL    HW2 5393  13.848   8.952   4.845
 1166SOL     OW 5394   0.364   2.895  13.876
 1166SOL    HW1 5395   0.312   2.814  13.884
 1166SOL    HW2 5396   0.299   2.965  13.881
 1167SOL     OW 5397  11.042   6.020  12.603
 1167SOL    HW1 5398  10.979   6.091  12.598
 1167SOL    HW2 5399  10.989   5.941  12.609
 1168SOL     OW 5400   2.294   8.519   3.604
 1168SOL    HW1 5401   2.219   8.578   3.605
 1168SOL    HW2 5402   2.314   8.504   3.696
 1169SOL     OW 5403  12.267   5.422  12.785
 1169SOL    HW1 5404  12.246   5.357  12.852
 1169SOL    HW2 5405  12.257   5.375  12.702
 1170SOL     OW 5406   0.432   6.804   0.691
 1170SOL    HW1 5407   0.488   6.743   0.643
 1170SOL    HW2 5408   0.385   6.852   0.622
 1171SOL     OW 5409   7.610  12.422  13.950
 1171SOL    HW1 5410   7.643  12.397  14.036
 1171SOL    HW2 5411   7.597  12.339  13.904
 1172SOL     OW 5412   3.336  14.015   7.293
 1172SOL    HW1 5413   3.370  14.044   7.378
 1172SOL    HW2 5414   3.246  14.048   7.291
 1173SOL     OW 5415   6.083  11.285   1.897
 1173SOL    HW1 5416   6.042  11.257   1.979
 1173SOL    HW2 5417   6.065  11.378   1.892
 1174SOL     OW 5418   7.037  14.338  14.678
 1174SOL    HW1 5419   7.122  14.349  14.634
 1174SOL    HW2 5420   6.984  14.289  14.615
 1175SOL     OW 5421  13.838   1.375   6.901
 1175SOL    HW1 5422  13.913   1.404   6.848
 1175SOL    HW2 5423  13.845   1.426   6.981
 1176SOL     OW 5424  11.399   0.630  12.317
 1176SOL    HW1 5425  11.320   0.640  12.369
 1176SOL    HW2 5426  11.370   0.642  12.226
 1177SOL     OW 5427   2.659  10.693   8.130
 1177SOL    HW1 5428   2.666  10.653   8.043
 1177SOL    HW2 5429   2.566  10.711   8.141
 1178SOL     OW 5430   8.255   5.156  10.296
 1178SOL    HW1 5431   8.206   5.226  10.253
 1178SOL    HW2 5432   8.219   5.076  10.258
 1179SOL     OW 5433  10.893   0.938   8.313
 1179SOL    HW1 5434  10.960   0.899   8.257
 1179SOL    HW2 5435  10.935   1.017   8.347
 1180SOL     OW 5436   3.488   4.302   8.788
 1180SOL    HW1 5437   3.571   4.255   8.782
 1180SOL    HW2 5438   3.441   4.277   8.708
 1181SOL     OW 5439   5.009  11.602   3.132
 1181SOL    HW1 5440   5.038  11.571   3.218
 1181SOL    HW2 5441   5.082  11.654   3.099
 1182SOL     OW 5442   4.323   7.835   9.650
 1182SOL    HW1 5443   4.323   7.909   9.589
 1182SOL    HW2 5444   4.416   7.821   9.671
 1183SOL     OW 5445   5.404  10.638   9.853
 1183SOL    HW1 5446   5.436  10.563   9.904
 1183SOL    HW2 5447   5.483  10.687   9.831
 1184SOL     OW 5448  10.717   5.431  12.539
 1184SOL    HW1 5449  10.749   5.462  12.455
 1184SOL    HW2 5450  10.774   5.473  12.604
 1185SOL     OW 5451  11.733   5.232   8.626
 1185SOL    HW1 5452  11.788   5.174   8.678
 1185SOL    HW2 5453  11.762   5.321   8.649
 1186SOL     OW 5454  12.036   8.719   3.380
 1186SOL    HW1 5455  11.981   8.641   3.392
 1186SOL    HW2 5456  12.000   8.782   3.442
 1187SOL     OW 5457   2.685  13.012   9.706
 1187SOL    HW1 5458   2.736  12.959   9.767
 1187SOL    HW2 5459   2.615  12.954   9.676
 1188SOL     OW 5460   6.041  10.025   2.895
 1188SOL    HW1 5461   6.049  10.081   2.818
 1188SOL    HW2 5462   6.091   9.947   2.873
 1189SOL     OW 5463   5.178  13.767  10.016
 1189SOL    HW1 5464   5.258  13.815   9.994
 1189SOL    HW2 5465   5.132  13.758   9.932
 1190SOL     OW 5466   2.854  10.856   3.975
 1190SOL    HW1 5467   2.916  10.844   4.047
 1190SOL    HW2 5468   2.894  10.923   3.920
 1191SOL     OW 5469  13.925  11.749   0.292
 1191SOL    HW1 5470  13.982  11.773   0.365
 1191SOL    HW2 5471  13.911  11.655   0.302
 1192SOL     OW 5472  11.348  14.088   5.300
 1192SOL    HW1 5473  11.342  14.122   5.389
 1192SOL    HW2 5474  11.283  14.018   5.296
 1193SOL     OW 5475  13.061   8.937  14.413
 1193SOL    HW1 5476  13.002   8.947  14.488
 1193SOL    HW2 5477  13.021   8.869  14.359
 1194SOL     OW 5478   7.474  12.697   4.648
 1194SOL    HW1 5479   7.490  12.709   4.555
 1194SOL    HW2 5480   7.379  12.694   4.656
 1195SOL     OW 5481   8.834   7.004   3.210
 1195SOL    HW1 5482   8.877   7.076   3.165
 1195SOL    HW2 5483   8.789   7.045   3.284
 1196SOL     OW 5484   6.618   0.574   3.012
 1196SOL    HW1 5485   6.620   0.506   2.944
 1196SOL    HW2 5486   6.646   0.654   2.967
 1197SOL     OW 5487   2.120   2.884   9.085
 1197SOL    HW1 5488   2.053   2.922   9.029
 1197SOL    HW2 5489   2.156   2.957   9.135
 1198SOL     OW 5490   6.271   5.943   3.038
 1198SOL    HW1 5491   6.243   6.032   3.057
 1198SOL    HW2 5492   6.365   5.950   3.019
 1199SOL     OW 5493  10.383   2.610   2.070
 1199SOL    HW1 5494  10.372   2.523   2.033
 1199SOL    HW2 5495  10.294   2.644   2.081
 1200SOL     OW 5496   9.364  13.049  12.041
 1200SOL    HW1 5497   9.399  13.060  12.130
 1200SOL    HW2 5498   9.419  12.981  12.002
 1201SOL     OW 5499  14.427  10.697   7.521
 1201SOL    HW1 5500  14.375  10.776   7.522
 1201SOL    HW2 5501  14.412  10.659   7.434
 1202SOL     OW 5502  12.304  10.937  11.346
 1202SOL    HW1 5503  12.327  11.010  11.403
 1202SOL    HW2 5504  12.286  10.864  11.406
 1203SOL     OW 5505   1.624  12.476   1.646
 1203SOL    HW1 5506   1.597  12.407   1.585
 1203SOL    HW2 5507   1.706  12.508   1.610
 1204SOL     OW 5508  11.283  12.413  13.206
 1204SOL    HW1 5509  11.286  12.353  13.131
 1204SOL    HW2 5510  11.210  12.381  13.259
 1205SOL     OW 5511  12.072   5.174  11.518
 1205SOL    HW1 5512  12.130   5.181  11.443
 1205SOL    HW2 5513  12.025   5.257  11.520
 1206SOL     OW 5514   4.643   8.894  10.635
 1206SOL    HW1 5515   4.680   8.881  10.723
 1206SOL    HW2 5516   4.570   8.832  10.630
 1207SOL     OW 5517  11.413   3.658  14.789
 1207SOL    HW1 5518  11.490   3.601  14.791
 1207SOL    HW2 5519  11.417   3.706  14.871
 1208SOL     OW 5520   4.911   9.369   9.385
 1208SOL    HW1 5521   4.851   9.403   9.451
 1208SOL    HW2 5522   4.963   9.445   9.359
 1209SOL     OW 5523   6.262  13.243   7.824
 1209SOL    HW1 5524   6.222  13.320   7.784
 1209SOL    HW2 5525   6.230  13.244   7.915
 1210SOL     OW 5526  14.309   4.401  14.326
 1210SOL    HW1 5527  14.319   4.345  14.249
 1210SOL    HW2 5528  14.396   4.401  14.367
 1211SOL     OW 5529  13.690  11.430  12.567
 1211SOL    HW1 5530  13.714  11.430  12.474
 1211SOL    HW2 5531  13.616  11.490  12.574
 1212SOL     OW 5532   0.100   6.396  14.785
 1212SOL    HW1 5533   0.182   6.439  14.763
 1212SOL    HW2 5534   0.086   6.332  14.715
 1213SOL     OW 5535  12.615   4.434  13.880
 1213SOL    HW1 5536  12.526   4.463  13.859
 1213SOL    HW2 5537  12.667   4.514  13.877
 1214SOL     OW 5538   5.364   4.470  10.045
 1214SOL    HW1 5539   5.385   4.445   9.955
 1214SOL    HW2 5540   5.356   4.388  10.092
 1215SOL     OW 5541   6.487   3.324   5.654
 1215SOL    HW1 5542   6.418   3.334   5.720
 1215SOL    HW2 5543   6.496   3.229   5.643
 1216SOL     OW 5544   0.932   0.677   6.817
 1216SOL    HW1 5545   0.951   0.594   6.773
 1216SOL    HW2 5546   0.980   0.672   6.900
 1217SOL     OW 5547   3.052   2.422   7.005
 1217SOL    HW1 5548   3.120   2.472   7.050
 1217SOL    HW2 5549   2.983   2.485   6.988
 1218SOL     OW 5550   3.800   9.009  12.911
 1218SOL    HW1 5551   3.848   8.961  12.844
 1218SOL    HW2 5552   3.727   8.952  12.934
 1219SOL     OW 5553   8.280   9.140   1.116
 1219SOL    HW1 5554   8.269   9.202   1.043
 1219SOL    HW2 5555   8.260   9.054   1.077
 1220SOL     OW 5556   4.576  11.215  10.493
 1220SOL    HW1 5557   4.545  11.306  10.500
 1220SOL    HW2 5558   4.603  11.206  10.402
 1221SOL     OW 5559   8.326  13.525  10.759
 1221SOL    HW1 5560   8.273  13.460  10.804
 1221SOL    HW2 5561   8.397  13.545  10.820
 1222SOL     OW 5562   0.443  14.020  12.029
 1222SOL    HW1 5563   0.513  14.064  12.079
 1222SOL    HW2 5564   0.376  14.087  12.019
 1223SOL     OW 5565  10.928   0.438  11.894
 1223SOL    HW1 5566  10.968   0.502  11.954
 1223SOL    HW2 5567  10.967   0.457  11.809
 1224SOL     OW 5568   5.724  11.869   4.845
 1224SOL    HW1 5569   5.688  11.794   4.893
 1224SOL    HW2 5570   5.793  11.830   4.791
 1225SOL     OW 5571   9.308   8.057   6.547
 1225SOL    HW1 5572   9.360   8.105   6.611
 1225SOL    HW2 5573   9.240   8.014   6.599
 1226SOL     OW 5574   0.944   0.710   8.723
 1226SOL    HW1 5575   1.025   0.746   8.759
 1226SOL    HW2 5576   0.874   0.758   8.768
 1227SOL     OW 5577   4.349   4.903  13.216
 1227SOL    HW1 5578   4.263   4.897  13.258
 1227SOL    HW2 5579   4.387   4.983  13.253
 1228SOL     OW 5580   7.185   4.870   1.434
 1228SOL    HW1 5581   7.133   4.949   1.445
 1228SOL    HW2 5582   7.227   4.880   1.349
 1229SOL     OW 5583  10.801   8.713  14.573
 1229SOL    HW1 5584  10.808   8.620  14.593
 1229SOL    HW2 5585  10.719   8.722  14.525
 1230SOL     OW 5586  14.611   2.986  12.839
 1230SOL    HW1 5587  14.599   2.979  12.934
 1230SOL    HW2 5588  14.523   3.001  12.805
 1231SOL     OW 5589   2.549   9.914  14.300
 1231SOL    HW1 5590   2.595   9.961  14.370
 1231SOL    HW2 5591   2.613   9.850  14.268
 1232SOL     OW 5592   8.937   1.881   1.130
 1232SOL    HW1 5593   8.960   1.789   1.111
 1232SOL    HW2 5594   9.011   1.913   1.181
 1233SOL     OW 5595   1.177  13.708   9.829
 1233SOL    HW1 5596   1.185  13.771   9.901
 1233SOL    HW2 5597   1.084  13.712   9.805
 1234SOL     OW 5598  11.180   4.565  12.902
 1234SOL    HW1 5599  11.134   4.489  12.869
 1234SOL    HW2 5600  11.175   4.630  12.832
 1235SOL     OW 5601   2.185  10.820  14.662
 1235SOL    HW1 5602   2.092  10.817  14.640
 1235SOL    HW2 5603   2.217  10.902  14.624
 1236SOL     OW 5604  14.708   9.439   4.043
 1236SOL    HW1 5605  14.703   9.517   4.098
 1236SOL    HW2 5606  14.794   9.445   4.000
 1237SOL     OW 5607   6.555   3.218  14.466
 1237SOL    HW1 5608   6.546   3.313  14.468
 1237SOL    HW2 5609   6.633   3.202  14.414
 1238SOL     OW 5610   8.872   4.636   6.345
 1238SOL    HW1 5611   8.890   4.574   6.415
 1238SOL    HW2 5612   8.779   4.655   6.351
 1239SOL     OW 5613   1.133   3.849  14.756
 1239SOL    HW1 5614   1.104   3.758  14.754
 1239SOL    HW2 5615   1.159   3.868  14.666
 1240SOL     OW 5616  13.456  12.316  10.911
 1240SOL    HW1 5617  13.435  12.357  10.994
 1240SOL    HW2 5618  13.378  12.328  10.857
 1241SOL     OW 5619   4.265   2.756  12.972
 1241SOL    HW1 5620   4.253   2.714  13.057
 1241SOL    HW2 5621   4.182   2.742  12.926
 1242SOL     OW 5622  13.054   5.440   4.749
 1242SOL    HW1 5623  13.023   5.450   4.839
 1242SOL    HW2 5624  13.012   5.512   4.701
 1243SOL     OW 5625   7.239   9.517   9.800
 1243SOL    HW1 5626   7.163   9.462   9.778
 1243SOL    HW2 5627   7.293   9.461   9.855
 1244SOL     OW 5628  10.328   6.729  11.300
 1244SOL    HW1 5629  10.297   6.677  11.374
 1244SOL    HW2 5630  10.248   6.751  11.251
 1245SOL     OW 5631  10.980   1.296   4.719
 1245SOL    HW1 5632  11.034   1.227   4.679
 1245SOL    HW2 5633  11.025   1.317   4.801
 1246SOL     OW 5634   5.064   7.385  13.884
 1246SOL    HW1 5635   5.059   7.337  13.967
 1246SOL    HW2 5636   5.153   7.421  13.883
 1247SOL     OW 5637   7.335   5.185   3.912
 1247SOL    HW1 5638   7.380   5.101   3.919
 1247SOL    HW2 5639   7.247   5.168   3.947
 1248SOL     OW 5640   1.086   2.395   6.955
 1248SOL    HW1 5641   1.098   2.352   7.040
 1248SOL    HW2 5642   1.005   2.358   6.920
 1249SOL     OW 5643  13.003   2.367   9.945
 1249SOL    HW1 5644  13.030   2.354   9.854
 1249SOL    HW2 5645  13.012   2.462   9.959
 1250SOL     OW 5646   6.324  14.149  13.779
 1250SOL    HW1 5647   6.402  14.204  13.785
 1250SOL    HW2 5648   6.346  14.068  13.824
 1251SOL     OW 5649  12.602  11.253   4.136
 1251SOL    HW1 5650  12.554  11.328   4.101
 1251SOL    HW2 5651  12.561  11.176   4.097
 1252SOL     OW 5652   8.855  13.176   5.129
 1252SOL    HW1 5653   8.830  13.188   5.037
 1252SOL    HW2 5654   8.849  13.264   5.167
 1253SOL     OW 5655  13.221   7.289  12.027
 1253SOL    HW1 5656  13.133   7.250  12.029
 1253SOL    HW2 5657  13.256   7.276  12.115
 1254SOL     OW 5658   5.949   7.407   2.301
 1254SOL    HW1 5659   5.948   7.436   2.210
 1254SOL    HW2 5660   5.891   7.330   2.302
 1255SOL     OW 5661   7.916   8.602   7.043
 1255SOL    HW1 5662   7.846   8.581   7.105
 1255SOL    HW2 5663   7.870   8.642   6.969
 1256SOL     OW 5664  11.394   4.615   2.854
 1256SOL    HW1 5665  11.459   4.672   2.896
 1256SOL    HW2 5666  11.413   4.622   2.760
 1257SOL     OW 5667  13.292  14.406   4.153
 1257SOL    HW1 5668  13.263  14.497   4.147
 1257SOL    HW2 5669  13.230  14.365   4.213
 1258SOL     OW 5670   6.743  10.989   4.554
 1258SOL    HW1 5671   6.651  10.983   4.529
 1258SOL    HW2 5672   6.741  10.996   4.650
 1259SOL     OW 5673  13.368   8.019   5.025
 1259SOL    HW1 5674  13.356   8.049   5.116
 1259SOL    HW2 5675  13.462   8.028   5.010
 1260SOL     OW 5676  10.552   5.710  11.619
 1260SOL    HW1 5677  10.538   5.645  11.549
 1260SOL    HW2 5678  10.633   5.682  11.661
 1261SOL     OW 5679   4.736   8.879   2.137
 1261SOL    HW1 5680   4.818   8.903   2.094
 1261SOL    HW2 5681   4.716   8.954   2.193
 1262SOL     OW 5682   2.561   6.624  14.872
 1262SOL    HW1 5683   2.535   6.671   0.079
 1262SOL    HW2 5684   2.625   6.680  14.829
 1263SOL     OW 5685   3.479   0.083   2.610
 1263SOL    HW1 5686   3.453   0.171   2.582
 1263SOL    HW2 5687   3.574   0.088   2.620
 1264SOL     OW 5688  11.132  10.776   5.302
 1264SOL    HW1 5689  11.049  10.737   5.329
 1264SOL    HW2 5690  11.193  10.754   5.373
 1265SOL     OW 5691  13.062   8.164  10.811
 1265SOL    HW1 5692  13.040   8.071  10.801
 1265SOL    HW2 5693  13.038   8.203  10.727
 1266SOL     OW 5694  11.574   5.112   4.351
 1266SOL    HW1 5695  11.482   5.138   4.358
 1266SOL    HW2 5696  11.571   5.018   4.332
 1267SOL     OW 5697   2.007  13.037   2.320
 1267SOL    HW1 5698   1.932  13.052   2.378
 1267SOL    HW2 5699   1.969  12.992   2.244
 1268SOL     OW 5700   0.359   7.064   0.084
 1268SOL    HW1 5701   0.278   7.027   0.051
 1268SOL    HW2 5702   0.406   7.094   0.006
 1269SOL     OW 5703  12.643   4.496  10.120
 1269SOL    HW1 5704  12.682   4.554  10.054
 1269SOL    HW2 5705  12.659   4.408  10.087
 1270SOL     OW 5706   9.546  13.550  11.995
 1270SOL    HW1 5707   9.499  13.469  11.977
 1270SOL    HW2 5708   9.493  13.594  12.062
 1271SOL     OW 5709   0.849  14.574  12.482
 1271SOL    HW1 5710   0.837  14.514  12.409
 1271SOL    HW2 5711   0.769  14.626  12.484
 1272SOL     OW 5712   4.634   4.938   8.116
 1272SOL    HW1 5713   4.620   5.030   8.138
 1272SOL    HW2 5714   4.678   4.901   8.193
 1273SOL     OW 5715  12.143  13.729   1.152
 1273SOL    HW1 5716  12.230  13.691   1.143
 1273SOL    HW2 5717  12.128  13.777   1.070
 1274SOL     OW 5718   2.761   2.248   3.987
 1274SOL    HW1 5719   2.821   2.253   4.062
 1274SOL    HW2 5720   2.798   2.309   3.923
 1275SOL     OW 5721   9.089   3.523   5.840
 1275SOL    HW1 5722   9.040   3.597   5.877
 1275SOL    HW2 5723   9.132   3.482   5.915
 1276SOL     OW 5724  14.158   1.044   8.217
 1276SOL    HW1 5725  14.091   1.112   8.219
 1276SOL    HW2 5726  14.200   1.055   8.132
 1277SOL     OW 5727  13.649   6.545  11.815
 1277SOL    HW1 5728  13.627   6.468  11.868
 1277SOL    HW2 5729  13.725   6.583  11.859
 1278SOL     OW 5730  12.346  13.812   5.473
 1278SOL    HW1 5731  12.329  13.880   5.538
 1278SOL    HW2 5732  12.262  13.800   5.429
 1279SOL     OW 5733   6.846   5.118   8.928
 1279SOL    HW1 5734   6.892   5.096   8.847
 1279SOL    HW2 5735   6.755   5.099   8.910
 1280SOL     OW 5736  11.661  14.171   3.362
 1280SOL    HW1 5737  11.576  14.181   3.403
 1280SOL    HW2 5738  11.674  14.252   3.313
 1281SOL     OW 5739   6.743  12.827   9.041
 1281SOL    HW1 5740   6.796  12.886   9.095
 1281SOL    HW2 5741   6.801  12.804   8.967
 1282SOL     OW 5742   2.867   6.135  13.082
 1282SOL    HW1 5743   2.772   6.122  13.079
 1282SOL    HW2 5744   2.877   6.224  13.117
 1283SOL     OW 5745  13.183   1.793  10.287
 1283SOL    HW1 5746  13.220   1.717  10.331
 1283SOL    HW2 5747  13.142   1.843  10.358
 1284SOL     OW 5748   3.356  13.063  10.905
 1284SOL    HW1 5749   3.397  13.079  10.820
 1284SOL    HW2 5750   3.327  12.972  10.901
 1285SOL     OW 5751   6.444   3.859   8.134
 1285SOL    HW1 5752   6.383   3.890   8.202
 1285SOL    HW2 5753   6.473   3.939   8.090
 1286SOL     OW 5754   1.218   0.202   3.531
 1286SOL    HW1 5755   1.126   0.228   3.523
 1286SOL    HW2 5756   1.267   0.281   3.509
 1287SOL     OW 5757   9.088   9.291   6.252
 1287SOL    HW1 5758   9.122   9.349   6.320
 1287SOL    HW2 5759   8.995   9.280   6.273
 1288SOL     OW 5760   5.285  13.903   3.579
 1288SOL    HW1 5761   5.218  13.842   3.609
 1288SOL    HW2 5762   5.259  13.926   3.490
 1289SOL     OW 5763   6.130   6.800  14.478
 1289SOL    HW1 5764   6.141   6.841  14.563
 1289SOL    HW2 5765   6.078   6.721  14.496
 1290SOL     OW 5766   6.179   9.793   2.800
 1290SOL    HW1 5767   6.266   9.789   2.839
 1290SOL    HW2 5768   6.194   9.822   2.710
 1291SOL     OW 5769   9.867   8.844   7.323
 1291SOL    HW1 5770   9.825   8.833   7.238
 1291SOL    HW2 5771   9.837   8.769   7.374
 1292SOL     OW 5772   9.105   6.676   6.656
 1292SOL    HW1 5773   9.097   6.694   6.749
 1292SOL    HW2 5774   9.044   6.737   6.614
 1293SOL     OW 5775   0.311  10.873   0.793
 1293SOL    HW1 5776   0.226  10.836   0.815
 1293SOL    HW2 5777   0.291  10.963   0.766
 1294SOL     OW 5778   6.464  12.226  10.618
 1294SOL    HW1 5779   6.488  12.318  10.611
 1294SOL    HW2 5780   6.411  12.209  10.540
 1295SOL     OW 5781   5.794  12.400   7.440
 1295SOL    HW1 5782   5.732  12.382   7.370
 1295SOL    HW2 5783   5.867  12.340   7.425
 1296SOL     OW 5784   4.350  10.225  14.598
 1296SOL    HW1 5785   4.435  10.230  14.642
 1296SOL    HW2 5786   4.311  10.311  14.610
 1297SOL     OW 5787   3.891   9.091   1.494
 1297SOL    HW1 5788   3.799   9.069   1.510
 1297SOL    HW2 5789   3.908   9.166   1.550
 1298SOL     OW 5790  12.584  11.676  14.643
 1298SOL    HW1 5791  12.575  11.726  14.562
 1298SOL    HW2 5792  12.585  11.742  14.712
 1299SOL     OW 5793   6.924   3.880   6.985
 1299SOL    HW1 5794   6.907   3.944   6.916
 1299SOL    HW2 5795   6.880   3.801   6.956
 1300SOL     OW 5796   2.667  11.305  14.004
 1300SOL    HW1 5797   2.759  11.302  13.979
 1300SOL    HW2 5798   2.627  11.231  13.957
 1301SOL     OW 5799   1.333  14.721   1.415
 1301SOL    HW1 5800   1.331  14.748   1.507
 1301SOL    HW2 5801   1.305  14.799   1.367
 1302SOL     OW 5802   0.540   4.164  11.164
 1302SOL    HW1 5803   0.606   4.222  11.126
 1302SOL    HW2 5804   0.540   4.087  11.108
 1303SOL     OW 5805   3.847   8.427  12.057
 1303SOL    HW1 5806   3.826   8.474  11.976
 1303SOL    HW2 5807   3.932   8.386  12.040
 1304SOL     OW 5808   0.881   2.522   5.421
 1304SOL    HW1 5809   0.891   2.585   5.492
 1304SOL    HW2 5810   0.857   2.440   5.464
 1305SOL     OW 5811  11.578   9.474   0.506
 1305SOL    HW1 5812  11.570   9.379   0.496
 1305SOL    HW2 5813  11.611   9.485   0.595
 1306SOL     OW 5814   3.607   5.039  10.263
 1306SOL    HW1 5815   3.529   5.013  10.215
 1306SOL    HW2 5816   3.611   4.978  10.337
 1307SOL     OW 5817  12.347  14.824   3.820
 1307SOL    HW1 5818  12.430  14.797   3.857
 1307SOL    HW2 5819  12.347  14.787   3.731
 1308SOL     OW 5820  10.410   5.295   5.617
 1308SOL    HW1 5821  10.403   5.275   5.710
 1308SOL    HW2 5822  10.499   5.267   5.594
 1309SOL     OW 5823  14.205  11.263   3.703
 1309SOL    HW1 5824  14.143  11.192   3.685
 1309SOL    HW2 5825  14.151  11.338   3.724
 1310SOL     OW 5826  10.373   4.786  10.348
 1310SOL    HW1 5827  10.335   4.777  10.261
 1310SOL    HW2 5828  10.464   4.812  10.332
 1311SOL     OW 5829  11.720   0.929   5.489
 1311SOL    HW1 5830  11.648   0.992   5.495
 1311SOL    HW2 5831  11.774   0.962   5.416
 1312SOL     OW 5832   5.461   1.087   5.285
 1312SOL    HW1 5833   5.407   1.164   5.302
 1312SOL    HW2 5834   5.399   1.018   5.262
 1313SOL     OW 5835   1.691   5.692  13.872
 1313SOL    HW1 5836   1.691   5.636  13.950
 1313SOL    HW2 5837   1.780   5.726  13.867
 1314SOL     OW 5838   6.954   5.520   7.093
 1314SOL    HW1 5839   6.997   5.448   7.139
 1314SOL    HW2 5840   6.957   5.594   7.154
 1315SOL     OW 5841  14.448   6.333   3.061
 1315SOL    HW1 5842  14.508   6.374   2.999
 1315SOL    HW2 5843  14.383   6.401   3.080
 1316SOL     OW 5844   5.097  11.668   7.580
 1316SOL    HW1 5845   5.135  11.652   7.493
 1316SOL    HW2 5846   5.041  11.745   7.568
 1317SOL     OW 5847   7.594  12.248  14.259
 1317SOL    HW1 5848   7.639  12.253  14.343
 1317SOL    HW2 5849   7.660  12.216  14.197
 1318SOL     OW 5850   1.678   0.137   9.349
 1318SOL    HW1 5851   1.756   0.083   9.355
 1318SOL    HW2 5852   1.606   0.078   9.372
 1319SOL     OW 5853   3.128   5.741   3.202
 1319SOL    HW1 5854   3.149   5.727   3.295
 1319SOL    HW2 5855   3.151   5.833   3.187
 1320SOL     OW 5856  14.563   0.759   3.755
 1320SOL    HW1 5857  14.619   0.808   3.695
 1320SOL    HW2 5858  14.522   0.692   3.700
 1321SOL     OW 5859   7.532   3.436   3.375
 1321SOL    HW1 5860   7.530   3.361   3.315
 1321SOL    HW2 5861   7.444   3.474   3.367
 1322SOL     OW 5862   0.089   2.687   6.648
 1322SOL    HW1 5863   0.099   2.712   6.555
 1322SOL    HW2 5864   0.010   2.634   6.650
 1323SOL     OW 5865   3.154  12.524   9.250
 1323SOL    HW1 5866   3.151  12.589   9.179
 1323SOL    HW2 5867   3.211  12.565   9.316
 1324SOL     OW 5868   4.057  12.247  11.425
 1324SOL    HW1 5869   4.153  12.252  11.428
 1324SOL    HW2 5870   4.028  12.277  11.511
 1325SOL     OW 5871   3.079   2.045   6.458
 1325SOL    HW1 5872   3.114   2.127   6.492
 1325SOL    HW2 5873   3.110   2.040   6.368
 1326SOL     OW 5874   5.138   1.582   8.938
 1326SOL    HW1 5875   5.046   1.557   8.936
 1326SOL    HW2 5876   5.184   1.500   8.955
 1327SOL     OW 5877   8.937   8.313   9.881
 1327SOL    HW1 5878   8.927   8.217   9.881
 1327SOL    HW2 5879   9.031   8.327   9.874
 1328SOL     OW 5880   4.313   0.271   4.577
 1328SOL    HW1 5881   4.246   0.277   4.645
 1328SOL    HW2 5882   4.292   0.190   4.530
 1329SOL     OW 5883  10.805  13.773  10.663
 1329SOL    HW1 5884  10.756  13.770  10.580
 1329SOL    HW2 5885  10.801  13.864  10.690
 1330SOL     OW 5886  12.720   9.851   3.276
 1330SOL    HW1 5887  12.674   9.770   3.256
 1330SOL    HW2 5888  12.698   9.869   3.368
 1331SOL     OW 5889   4.833  11.814   3.270
 1331SOL    HW1 5890   4.790  11.864   3.201
 1331SOL    HW2 5891   4.825  11.723   3.243
 1332SOL     OW 5892   7.863   8.261  11.740
 1332SOL    HW1 5893   7.937   8.321  11.729
 1332SOL    HW2 5894   7.828   8.281  11.827
 1333SOL     OW 5895   2.719   2.609   4.522
 1333SOL    HW1 5896   2.799   2.578   4.564
 1333SOL    HW2 5897   2.649   2.557   4.562
 1334SOL     OW 5898   1.377   3.988  12.201
 1334SOL    HW1 5899   1.426   3.915  12.239
 1334SOL    HW2 5900   1.444   4.053  12.181
 1335SOL     OW 5901  10.744  11.187   5.599
 1335SOL    HW1 5902  10.729  11.192   5.505
 1335SOL    HW2 5903  10.836  11.161   5.608
 1336SOL     OW 5904  13.018   9.623   4.365
 1336SOL    HW1 5905  12.969   9.564   4.308
 1336SOL    HW2 5906  13.107   9.621   4.331
 1337SOL     OW 5907   9.065   4.171  13.201
 1337SOL    HW1 5908   8.975   4.205  13.201
 1337SOL    HW2 5909   9.107   4.213  13.126
 1338SOL     OW 5910  10.015  14.220   7.636
 1338SOL    HW1 5911  10.005  14.312   7.661
 1338SOL    HW2 5912  10.045  14.177   7.716
 1339SOL     OW 5913  13.042  12.473   4.472
 1339SOL    HW1 5914  12.966  12.429   4.435
 1339SOL    HW2 5915  13.062  12.424   4.552
 1340SOL     OW 5916   4.284  12.028   9.859
 1340SOL    HW1 5917   4.190  12.018   9.848
 1340SOL    HW2 5918   4.322  11.969   9.793
 1341SOL     OW 5919   1.933   6.716   8.133
 1341SOL    HW1 5920   1.971   6.639   8.091
 1341SOL    HW2 5921   1.972   6.790   8.087
 1342SOL     OW 5922  11.060   7.178   6.982
 1342SOL    HW1 5923  11.016   7.095   7.000
 1342SOL    HW2 5924  11.085   7.211   7.069
 1343SOL     OW 5925  10.900   5.783   3.527
 1343SOL    HW1 5926  10.989   5.799   3.494
 1343SOL    HW2 5927  10.881   5.860   3.580
 1344SOL     OW 5928   7.324  12.217  14.713
 1344SOL    HW1 5929   7.303  12.285  14.649
 1344SOL    HW2 5930   7.261  12.147  14.696
 1345SOL     OW 5931   4.304   7.502   1.105
 1345SOL    HW1 5932   4.312   7.548   1.021
 1345SOL    HW2 5933   4.231   7.442   1.092
 1346SOL     OW 5934  11.277  14.089  11.130
 1346SOL    HW1 5935  11.295  14.092  11.036
 1346SOL    HW2 5936  11.182  14.104  11.136
 1347SOL     OW 5937  12.942  10.716   0.459
 1347SOL    HW1 5938  12.933  10.622   0.447
 1347SOL    HW2 5939  13.017  10.740   0.405
 1348SOL     OW 5940   9.511   2.131   9.356
 1348SOL    HW1 5941   9.472   2.142   9.269
 1348SOL    HW2 5942   9.603   2.154   9.344
 1349SOL     OW 5943   0.875   3.857   4.837
 1349SOL    HW1 5944   0.861   3.808   4.756
 1349SOL    HW2 5945   0.790   3.895   4.857
 1350SOL     OW 5946  11.231   1.231  14.557
 1350SOL    HW1 5947  11.218   1.270  14.643
 1350SOL    HW2 5948  11.245   1.305  14.498
 1351SOL     OW 5949   6.088   5.454   6.074
 1351SOL    HW1 5950   6.071   5.547   6.061
 1351SOL    HW2 5951   6.171   5.438   6.028
 1352SOL     OW 5952   4.869  12.620  12.208
 1352SOL    HW1 5953   4.934  12.608  12.139
 1352SOL    HW2 5954   4.917  12.606  12.289
 1353SOL     OW 5955  12.160  14.735  11.464
 1353SOL    HW1 5956  12.152  14.641  11.478
 1353SOL    HW2 5957  12.244  14.757  11.503
 1354SOL     OW 5958   9.716  10.750  13.677
 1354SOL    HW1 5959   9.641  10.775  13.732
 1354SOL    HW2 5960   9.684  10.677  13.625
 1355SOL     OW 5961   2.532   7.135   9.962
 1355SOL    HW1 5962   2.475   7.076  10.011
 1355SOL    HW2 5963   2.609   7.082   9.940
 1356SOL     OW 5964  12.264   8.919   6.874
 1356SOL    HW1 5965  12.313   8.908   6.792
 1356SOL    HW2 5966  12.178   8.949   6.846
 1357SOL     OW 5967   0.449   5.062   7.242
 1357SOL    HW1 5968   0.424   4.976   7.209
 1357SOL    HW2 5969   0.465   5.115   7.164
 1358SOL     OW 5970   3.281  11.078   6.588
 1358SOL    HW1 5971   3.304  11.059   6.497
 1358SOL    HW2 5972   3.186  11.067   6.592
 1359SOL     OW 5973   4.459  13.559   4.839
 1359SOL    HW1 5974   4.490  13.506   4.913
 1359SOL    HW2 5975   4.536  13.610   4.813
 1360SOL     OW 5976  12.857   4.033   1.108
 1360SOL    HW1 5977  12.820   3.982   1.180
 1360SOL    HW2 5978  12.834   3.984   1.029
 1361SOL     OW 5979   2.099  11.115   0.565
 1361SOL    HW1 5980   2.016  11.157   0.543
 1361SOL    HW2 5981   2.077  11.022   0.574
 1362SOL     OW 5982  14.037  11.529  14.132
 1362SOL    HW1 5983  14.061  11.613  14.171
 1362SOL    HW2 5984  14.112  11.472  14.150
 1363SOL     OW 5985   4.816  11.831   6.029
 1363SOL    HW1 5986   4.898  11.871   6.058
 1363SOL    HW2 5987   4.838  11.789   5.945
 1364SOL     OW 5988   1.808   5.356   4.645
 1364SOL    HW1 5989   1.749   5.425   4.678
 1364SOL    HW2 5990   1.763   5.274   4.668
 1365SOL     OW 5991  12.956   5.558   5.709
 1365SOL    HW1 5992  12.872   5.516   5.689
 1365SOL    HW2 5993  12.942   5.597   5.796
 1366SOL     OW 5994   3.755   1.399   1.900
 1366SOL    HW1 5995   3.716   1.452   1.968
 1366SOL    HW2 5996   3.777   1.316   1.943
 1367SOL     OW 5997   3.869  10.717  13.951
 1367SOL    HW1 5998   3.912  10.802  13.939
 1367SOL    HW2 5999   3.778  10.738  13.971
 1368SOL     OW 6000   3.122  13.315  10.058
 1368SOL    HW1 6001   3.105  13.403  10.091
 1368SOL    HW2 6002   3.214  13.299  10.080
 1369SOL     OW 6003   6.691   9.756   8.474
 1369SOL    HW1 6004   6.676   9.705   8.553
 1369SOL    HW2 6005   6.610   9.748   8.424
 1370SOL     OW 6006   6.144   7.541   2.458
 1370SOL    HW1 6007   6.061   7.503   2.430
 1370SOL    HW2 6008   6.199   7.465   2.478
 1371SOL     OW 6009   5.103   8.806  12.686
 1371SOL    HW1 6010   5.092   8.744  12.758
 1371SOL    HW2 6011   5.153   8.758  12.620
 1372SOL     OW 6012  14.696   7.012   7.386
 1372SOL    HW1 6013  14.744   7.061   7.453
 1372SOL    HW2 6014  14.752   7.018   7.308
 1373SOL     OW 6015   1.749   0.814   2.186
 1373SOL    HW1 6016   1.751   0.790   2.279
 1373SOL    HW2 6017   1.821   0.765   2.147
 1374SOL     OW 6018   5.627   3.546   2.194
 1374SOL    HW1 6019   5.603   3.539   2.287
 1374SOL    HW2 6020   5.555   3.594   2.154
 1375SOL     OW 6021   4.157  12.936  14.562
 1375SOL    HW1 6022   4.125  12.943  14.472
 1375SOL    HW2 6023   4.091  12.982  14.614
 1376SOL     OW 6024   4.678   4.746   4.671
 1376SOL    HW1 6025   4.732   4.710   4.742
 1376SOL    HW2 6026   4.736   4.749   4.596
 1377SOL     OW 6027   7.629   5.134   0.910
 1377SOL    HW1 6028   7.673   5.105   0.830
 1377SOL    HW2 6029   7.677   5.090   0.980
 1378SOL     OW 6030   8.980  13.172   1.525
 1378SOL    HW1 6031   9.018  13.235   1.586
 1378SOL    HW2 6032   8.921  13.225   1.470
 1379SOL     OW 6033   5.209   5.630   1.327
 1379SOL    HW1 6034   5.267   5.688   1.376
 1379SOL    HW2 6035   5.126   5.633   1.374
 1380SOL     OW 6036   8.128  10.551   2.398
 1380SOL    HW1 6037   8.049  10.550   2.452
 1380SOL    HW2 6038   8.097  10.526   2.310
 1381SOL     OW 6039   0.614   9.235   3.046
 1381SOL    HW1 6040   0.688   9.260   2.990
 1381SOL    HW2 6041   0.561   9.315   3.053
 1382SOL     OW 6042   5.976  11.439   7.094
 1382SOL    HW1 6043   5.905  11.389   7.055
 1382SOL    HW2 6044   5.933  11.497   7.156
 1383SOL     OW 6045   4.690   6.903   3.888
 1383SOL    HW1 6046   4.713   6.969   3.953
 1383SOL    HW2 6047   4.630   6.844   3.933
 1384SOL     OW 6048   1.114   2.531   1.167
 1384SOL    HW1 6049   1.087   2.490   1.085
 1384SOL    HW2 6050   1.080   2.621   1.161
 1385SOL     OW 6051  14.228   3.099  11.897
 1385SOL    HW1 6052  14.219   3.039  11.822
 1385SOL    HW2 6053  14.155   3.160  11.887
 1386SOL     OW 6054  13.340   3.386   0.338
 1386SOL    HW1 6055  13.415   3.361   0.284
 1386SOL    HW2 6056  13.378   3.443   0.406
 1387SOL     OW 6057   3.720   8.315   4.377
 1387SOL    HW1 6058   3.723   8.400   4.421
 1387SOL    HW2 6059   3.630   8.307   4.346
 1388SOL     OW 6060   4.270  14.043   3.279
 1388SOL    HW1 6061   4.239  14.046   3.369
 1388SOL    HW2 6062   4.207  14.095   3.230
 1389SOL     OW 6063   3.326   2.080   1.455
 1389SOL    HW1 6064   3.286   2.012   1.509
 1389SOL    HW2 6065   3.314   2.050   1.365
 1390SOL     OW 6066   8.175  10.826   0.295
 1390SOL    HW1 6067   8.152  10.826   0.202
 1390SOL    HW2 6068   8.152  10.738   0.325
 1391SOL     OW 6069   3.025   2.259  13.110
 1391SOL    HW1 6070   3.044   2.294  13.023
 1391SOL    HW2 6071   2.997   2.169  13.094
 1392SOL     OW 6072   9.323   1.320  14.858
 1392SOL    HW1 6073   9.243   1.283  14.822
 1392SOL    HW2 6074   9.318   1.303   0.079
 1393SOL     OW 6075   9.985  12.844  11.273
 1393SOL    HW1 6076   9.970  12.766  11.221
 1393SOL    HW2 6077   9.909  12.899  11.257
 1394SOL     OW 6078  13.171  13.715  13.484
 1394SOL    HW1 6079  13.215  13.634  13.458
 1394SOL    HW2 6080  13.241  13.780  13.489
 1395SOL     OW 6081   6.569  10.704  10.149
 1395SOL    HW1 6082   6.569  10.630  10.209
 1395SOL    HW2 6083   6.584  10.666  10.063
 1396SOL     OW 6084   8.685   5.439   8.072
 1396SOL    HW1 6085   8.641   5.411   7.992
 1396SOL    HW2 6086   8.638   5.519   8.099
 1397SOL     OW 6087   3.200   9.463  12.694
 1397SOL    HW1 6088   3.118   9.436  12.653
 1397SOL    HW2 6089   3.173   9.517  12.768
 1398SOL     OW 6090  12.957  12.329   3.669
 1398SOL    HW1 6091  12.876  12.285   3.696
 1398SOL    HW2 6092  13.026  12.266   3.688
 1399SOL     OW 6093   6.257   1.556   8.319
 1399SOL    HW1 6094   6.163   1.573   8.327
 1399SOL    HW2 6095   6.265   1.461   8.325
 1400SOL     OW 6096   0.868   1.859   0.370
 1400SOL    HW1 6097   0.845   1.867   0.277
 1400SOL    HW2 6098   0.789   1.884   0.416
 1401SOL     OW 6099  11.984  10.444   9.155
 1401SOL    HW1 6100  11.892  10.448   9.181
 1401SOL    HW2 6101  12.012  10.355   9.177
 1402SOL     OW 6102  10.860   4.910   5.228
 1402SOL    HW1 6103  10.795   4.923   5.160
 1402SOL    HW2 6104  10.935   4.871   5.182
 1403SOL     OW 6105   2.290   2.084  10.980
 1403SOL    HW1 6106   2.363   2.145  10.992
 1403SOL    HW2 6107   2.324   2.000  11.010
 1404SOL     OW 6108   2.377   0.484   9.396
 1404SOL    HW1 6109   2.415   0.516   9.314
 1404SOL    HW2 6110   2.288   0.520   9.397
 1405SOL     OW 6111  14.796  10.989   6.197
 1405SOL    HW1 6112  14.751  11.047   6.136
 1405SOL    HW2 6113  14.725  10.944   6.243
 1406SOL     OW 6114   1.161   7.443   6.504
 1406SOL    HW1 6115   1.120   7.479   6.583
 1406SOL    HW2 6116   1.253   7.466   6.513
 1407SOL     OW 6117  14.595   9.488  13.432
 1407SOL    HW1 6118  14.644   9.514  13.510
 1407SOL    HW2 6119  14.541   9.415  13.461
 1408SOL     OW 6120   4.124  10.683   7.034
 1408SOL    HW1 6121   4.185  10.615   7.005
 1408SOL    HW2 6122   4.088  10.718   6.953
 1409SOL     OW 6123   1.478   5.902  13.063
 1409SOL    HW1 6124   1.417   5.828  13.049
 1409SOL    HW2 6125   1.544   5.891  12.995
 1410SOL     OW 6126  12.328   5.591   3.339
 1410SOL    HW1 6127  12.272   5.538   3.396
 1410SOL    HW2 6128  12.412   5.546   3.340
 1411SOL     OW 6129   6.153   7.151  13.491
 1411SOL    HW1 6130   6.161   7.229  13.435
 1411SOL    HW2 6131   6.082   7.173  13.551
 1412SOL     OW 6132   7.217   1.196  14.647
 1412SOL    HW1 6133   7.221   1.154  14.733
 1412SOL    HW2 6134   7.221   1.123  14.585
 1413SOL     OW 6135  10.250  11.671   3.482
 1413SOL    HW1 6136  10.209  11.706   3.561
 1413SOL    HW2 6137  10.309  11.740   3.453
 1414SOL     OW 6138   5.238   7.496   1.974
 1414SOL    HW1 6139   5.217   7.461   2.060
 1414SOL    HW2 6140   5.281   7.423   1.929
 1415SOL     OW 6141   1.871   6.082   0.543
 1415SOL    HW1 6142   1.892   6.171   0.515
 1415SOL    HW2 6143   1.950   6.052   0.588
 1416SOL     OW 6144  10.381  10.408   3.416
 1416SOL    HW1 6145  10.312  10.473   3.424
 1416SOL    HW2 6146  10.343  10.340   3.360
 1417SOL     OW 6147   9.579  10.429   7.060
 1417SOL    HW1 6148   9.579  10.495   6.991
 1417SOL    HW2 6149   9.668  10.431   7.095
 1418SOL     OW 6150   8.565   5.275   6.266
 1418SOL    HW1 6151   8.510   5.352   6.271
 1418SOL    HW2 6152   8.508   5.207   6.230
 1419SOL     OW 6153   0.737   4.206  11.760
 1419SOL    HW1 6154   0.773   4.274  11.704
 1419SOL    HW2 6155   0.788   4.212  11.841
 1420SOL     OW 6156   1.718   8.349  11.131
 1420SOL    HW1 6157   1.774   8.420  11.100
 1420SOL    HW2 6158   1.643   8.349  11.071
 1421SOL     OW 6159   3.893   9.977  10.434
 1421SOL    HW1 6160   3.914   9.902  10.377
 1421SOL    HW2 6161   3.876   9.938  10.519
 1422SOL     OW 6162   1.621   3.364   8.590
 1422SOL    HW1 6163   1.568   3.339   8.666
 1422SOL    HW2 6164   1.672   3.285   8.570
 1423SOL     OW 6165   8.239  11.306  12.405
 1423SOL    HW1 6166   8.270  11.351  12.326
 1423SOL    HW2 6167   8.181  11.369  12.447
 1424SOL     OW 6168   7.616   5.623   3.717
 1424SOL    HW1 6169   7.552   5.552   3.722
 1424SOL    HW2 6170   7.607   5.657   3.628
 1425SOL     OW 6171   4.023   0.049  12.219
 1425SOL    HW1 6172   4.088   0.118  12.205
 1425SOL    HW2 6173   4.020   0.038  12.314
 1426SOL     OW 6174   2.257   3.872  10.102
 1426SOL    HW1 6175   2.194   3.816  10.147
 1426SOL    HW2 6176   2.203   3.927  10.045
 1427SOL     OW 6177   9.575   3.579  12.180
 1427SOL    HW1 6178   9.509   3.615  12.239
 1427SOL    HW2 6179   9.560   3.485  12.181
 1428SOL     OW 6180   7.119  12.804   7.985
 1428SOL    HW1 6181   7.160  12.888   8.010
 1428SOL    HW2 6182   7.190  12.755   7.943
 1429SOL     OW 6183   0.545  11.793   5.241
 1429SOL    HW1 6184   0.519  11.787   5.333
 1429SOL    HW2 6185   0.464  11.776   5.192
 1430SOL     OW 6186   1.554   9.042   1.266
 1430SOL    HW1 6187   1.525   9.053   1.357
 1430SOL    HW2 6188   1.590   9.127   1.242
 1431SOL     OW 6189   2.482   0.757   0.656
 1431SOL    HW1 6190   2.396   0.734   0.623
 1431SOL    HW2 6191   2.524   0.805   0.585
 1432SOL     OW 6192  10.532   7.779   2.309
 1432SOL    HW1 6193  10.438   7.769   2.291
 1432SOL    HW2 6194  10.542   7.748   2.399
 1433SOL     OW 6195  14.626   3.493   6.782
 1433SOL    HW1 6196  14.605   3.400   6.777
 1433SOL    HW2 6197  14.721   3.498   6.772
 1434SOL     OW 6198   7.787   3.564   2.730
 1434SOL    HW1 6199   7.745   3.506   2.667
 1434SOL    HW2 6200   7.857   3.607   2.681
 1435SOL     OW 6201  14.817  10.405   2.006
 1435SOL    HW1 6202  14.734  10.376   2.044
 1435SOL    HW2 6203  14.857  10.459   2.075
 1436SOL     OW 6204   0.432   4.718   2.604
 1436SOL    HW1 6205   0.343   4.686   2.586
 1436SOL    HW2 6206   0.419   4.808   2.633
 1437SOL     OW 6207   2.124  13.028   6.253
 1437SOL    HW1 6208   2.104  13.076   6.173
 1437SOL    HW2 6209   2.183  13.087   6.302
 1438SOL     OW 6210   4.844  12.089   4.007
 1438SOL    HW1 6211   4.754  12.075   4.035
 1438SOL    HW2 6212   4.854  12.184   4.004
 1439SOL     OW 6213   3.528  10.361   1.346
 1439SOL    HW1 6214   3.604  10.329   1.298
 1439SOL    HW2 6215   3.461  10.375   1.280
 1440SOL     OW 6216   8.679   3.032   0.810
 1440SOL    HW1 6217   8.666   2.947   0.768
 1440SOL    HW2 6218   8.705   3.011   0.900
 1441SOL     OW 6219   3.637   2.579   9.926
 1441SOL    HW1 6220   3.691   2.568  10.004
 1441SOL    HW2 6221   3.591   2.662   9.939
 1442SOL     OW 6222   8.935   0.178   0.678
 1442SOL    HW1 6223   8.901   0.255   0.723
 1442SOL    HW2 6224   8.910   0.189   0.587
 1443SOL     OW 6225  13.157   6.171  12.612
 1443SOL    HW1 6226  13.221   6.196  12.679
 1443SOL    HW2 6227  13.086   6.130  12.661
 1444SOL     OW 6228   0.524   2.101   1.429
 1444SOL    HW1 6229   0.557   2.189   1.446
 1444SOL    HW2 6230   0.443   2.096   1.480
 1445SOL     OW 6231   2.281   2.148   4.943
 1445SOL    HW1 6232   2.309   2.233   4.911
 1445SOL    HW2 6233   2.234   2.167   5.025
 1446SOL     OW 6234   0.552  10.644   6.885
 1446SOL    HW1 6235   0.569  10.689   6.967
 1446SOL    HW2 6236   0.500  10.568   6.910
 1447SOL     OW 6237  14.129   8.077   5.963
 1447SOL    HW1 6238  14.100   8.161   5.928
 1447SOL    HW2 6239  14.198   8.099   6.026
 1448SOL     OW 6240  11.539   0.781  13.777
 1448SOL    HW1 6241  11.478   0.855  13.773
 1448SOL    HW2 6242  11.543   0.750  13.686
 1449SOL     OW 6243  10.583  14.492  10.584
 1449SOL    HW1 6244  10.560  14.406  10.618
 1449SOL    HW2 6245  10.533  14.553  10.638
 1450SOL     OW 6246  10.992   3.253   3.421
 1450SOL    HW1 6247  11.016   3.282   3.510
 1450SOL    HW2 6248  11.076   3.239   3.377
 1451SOL     OW 6249   5.893   6.614  11.412
 1451SOL    HW1 6250   5.966   6.593  11.471
 1451SOL    HW2 6251   5.847   6.685  11.456
 1452SOL     OW 6252  11.602   7.967  10.779
 1452SOL    HW1 6253  11.677   7.967  10.838
 1452SOL    HW2 6254  11.529   7.998  10.832
 1453SOL     OW 6255  13.323   1.861   0.081
 1453SOL    HW1 6256  13.365   1.783   0.117
 1453SOL    HW2 6257  13.261   1.826   0.016
 1454SOL     OW 6258   3.398  13.858   4.052
 1454SOL    HW1 6259   3.449  13.865   4.132
 1454SOL    HW2 6260   3.427  13.932   3.999
 1455SOL     OW 6261   7.680   7.238  14.107
 1455SOL    HW1 6262   7.692   7.172  14.175
 1455SOL    HW2 6263   7.587   7.262  14.113
 1456SOL     OW 6264   4.472   0.285  12.530
 1456SOL    HW1 6265   4.516   0.257  12.610
 1456SOL    HW2 6266   4.501   0.223  12.463
 1457SOL     OW 6267  12.374   1.987   4.433
 1457SOL    HW1 6268  12.341   1.925   4.498
 1457SOL    HW2 6269  12.317   1.974   4.357
 1458SOL     OW 6270   5.759   5.692  10.374
 1458SOL    HW1 6271   5.775   5.684  10.467
 1458SOL    HW2 6272   5.693   5.761  10.367
 1459SOL     OW 6273   0.684   3.654   5.834
 1459SOL    HW1 6274   0.746   3.702   5.779
 1459SOL    HW2 6275   0.615   3.718   5.853
 1460SOL     OW 6276   9.719   9.247  10.745
 1460SOL    HW1 6277   9.677   9.165  10.772
 1460SOL    HW2 6278   9.691   9.259  10.654
 1461SOL     OW 6279   6.265   0.322  14.584
 1461SOL    HW1 6280   6.249   0.342  14.676
 1461SOL    HW2 6281   6.211   0.385  14.536
 1462SOL     OW 6282  11.346   9.159  13.978
 1462SOL    HW1 6283  11.389   9.204  13.905
 1462SOL    HW2 6284  11.346   9.067  13.953
 1463SOL     OW 6285   1.104   7.212  13.858
 1463SOL    HW1 6286   1.104   7.180  13.948
 1463SOL    HW2 6287   1.176   7.275  13.855
 1464SOL     OW 6288   9.217  11.022   1.602
 1464SOL    HW1 6289   9.274  10.986   1.534
 1464SOL    HW2 6290   9.142  11.057   1.555
 1465SOL     OW 6291   4.751  13.373   1.606
 1465SOL    HW1 6292   4.661  13.364   1.639
 1465SOL    HW2 6293   4.747  13.449   1.548
 1466SOL     OW 6294   6.277   4.641   3.579
 1466SOL    HW1 6295   6.349   4.644   3.517
 1466SOL    HW2 6296   6.241   4.729   3.579
 1467SOL     OW 6297   6.852   2.614   3.795
 1467SOL    HW1 6298   6.848   2.694   3.742
 1467SOL    HW2 6299   6.902   2.552   3.741
 1468SOL     OW 6300   4.792   0.253  11.222
 1468SOL    HW1 6301   4.772   0.198  11.145
 1468SOL    HW2 6302   4.817   0.337  11.185
 1469SOL     OW 6303  12.977  13.434   5.076
 1469SOL    HW1 6304  13.019  13.363   5.026
 1469SOL    HW2 6305  12.978  13.509   5.017
 1470SOL     OW 6306   7.720   4.444   4.429
 1470SOL    HW1 6307   7.657   4.456   4.500
 1470SOL    HW2 6308   7.766   4.528   4.423
 1471SOL     OW 6309   3.555   4.149   1.617
 1471SOL    HW1 6310   3.634   4.106   1.651
 1471SOL    HW2 6311   3.588   4.216   1.558
 1472SOL     OW 6312   0.450   5.689  10.333
 1472SOL    HW1 6313   0.514   5.619  10.342
 1472SOL    HW2 6314   0.502   5.770  10.336
 1473SOL     OW 6315   6.796   8.740  13.214
 1473SOL    HW1 6316   6.798   8.782  13.128
 1473SOL    HW2 6317   6.817   8.811  13.275
 1474SOL     OW 6318   9.593   6.930   8.128
 1474SOL    HW1 6319   9.561   6.848   8.164
 1474SOL    HW2 6320   9.633   6.975   8.203
 1475SOL     OW 6321  14.398   9.072   0.629
 1475SOL    HW1 6322  14.308   9.103   0.625
 1475SOL    HW2 6323  14.392   8.978   0.613
 1476SOL     OW 6324   9.584   4.573  13.371
 1476SOL    HW1 6325   9.562   4.498  13.315
 1476SOL    HW2 6326   9.659   4.613  13.329
 1477SOL     OW 6327   9.136   1.844   4.633
 1477SOL    HW1 6328   9.043   1.847   4.610
 1477SOL    HW2 6329   9.169   1.932   4.614
 1478SOL     OW 6330   9.540   4.143   1.005
 1478SOL    HW1 6331   9.631   4.169   0.993
 1478SOL    HW2 6332   9.489   4.213   0.965
 1479SOL     OW 6333   0.268   9.568  13.166
 1479SOL    HW1 6334   0.274   9.633  13.095
 1479SOL    HW2 6335   0.208   9.501  13.132
 1480SOL     OW 6336  12.673   6.569   8.291
 1480SOL    HW1 6337  12.617   6.498   8.322
 1480SOL    HW2 6338  12.761   6.533   8.293
 1481SOL     OW 6339   7.970   0.103   3.524
 1481SOL    HW1 6340   7.929   0.155   3.593
 1481SOL    HW2 6341   7.927   0.018   3.530
 1482SOL     OW 6342  14.276   5.557   1.404
 1482SOL    HW1 6343  14.293   5.501   1.328
 1482SOL    HW2 6344  14.233   5.635   1.367
 1483SOL     OW 6345   8.140   4.516   3.877
 1483SOL    HW1 6346   8.086   4.516   3.956
 1483SOL    HW2 6347   8.167   4.424   3.867
 1484SOL     OW 6348  13.425   5.910   6.935
 1484SOL    HW1 6349  13.486   5.966   6.982
 1484SOL    HW2 6350  13.338   5.946   6.956
 1485SOL     OW 6351   7.281  10.843  13.472
 1485SOL    HW1 6352   7.353  10.791  13.437
 1485SOL    HW2 6353   7.218  10.778  13.504
 1486SOL     OW 6354  10.310  12.788   3.368
 1486SOL    HW1 6355  10.246  12.748   3.427
 1486SOL    HW2 6356  10.384  12.728   3.370
 1487SOL     OW 6357  13.428  13.823   3.259
 1487SOL    HW1 6358  13.373  13.878   3.202
 1487SOL    HW2 6359  13.366  13.776   3.314
 1488SOL     OW 6360   3.941   1.016   7.280
 1488SOL    HW1 6361   3.978   1.093   7.237
 1488SOL    HW2 6362   4.001   0.998   7.353
 1489SOL     OW 6363   7.371  12.328   7.374
 1489SOL    HW1 6364   7.362  12.244   7.330
 1489SOL    HW2 6365   7.371  12.392   7.303
 1490SOL     OW 6366  11.595  11.962  14.284
 1490SOL    HW1 6367  11.584  11.893  14.218
 1490SOL    HW2 6368  11.688  11.957  14.307
 1491SOL     OW 6369  12.376   9.935  14.713
 1491SOL    HW1 6370  12.445   9.979  14.664
 1491SOL    HW2 6371  12.294   9.961  14.670
 1492SOL     OW 6372   5.054  12.876  11.178
 1492SOL    HW1 6373   4.980  12.817  11.165
 1492SOL    HW2 6374   5.116  12.826  11.231
 1493SOL     OW 6375   0.368   6.050   7.707
 1493SOL    HW1 6376   0.275   6.068   7.718
 1493SOL    HW2 6377   0.400   6.119   7.650
 1494SOL     OW 6378   4.898   4.788  14.376
 1494SOL    HW1 6379   4.896   4.747  14.462
 1494SOL    HW2 6380   4.812   4.830  14.367
 1495SOL     OW 6381   6.478  10.844   4.234
 1495SOL    HW1 6382   6.392  10.804   4.228
 1495SOL    HW2 6383   6.488  10.891   4.151
 1496SOL     OW 6384   3.168   6.929   3.466
 1496SOL    HW1 6385   3.186   6.837   3.447
 1496SOL    HW2 6386   3.169   6.972   3.381
 1497SOL     OW 6387  12.868  12.255   3.107
 1497SOL    HW1 6388  12.939  12.240   3.170
 1497SOL    HW2 6389  12.901  12.219   3.024
 1498SOL     OW 6390  11.712   0.663   9.809
 1498SOL    HW1 6391  11.712   0.627   9.720
 1498SOL    HW2 6392  11.745   0.753   9.798
 1499SOL     OW 6393  14.308   6.922   2.958
 1499SOL    HW1 6394  14.303   6.833   2.925
 1499SOL    HW2 6395  14.364   6.916   3.036
 1500SOL     OW 6396  14.680  10.638  10.412
 1500SOL    HW1 6397  14.638  10.714  10.453
 1500SOL    HW2 6398  14.609  10.576  10.397
 1501SOL     OW 6399   6.713   0.939  12.758
 1501SOL    HW1 6400   6.772   0.987  12.699
 1501SOL    HW2 6401   6.629   0.939  12.713
 1502SOL     OW 6402  12.131  11.593   8.003
 1502SOL    HW1 6403  12.078  11.597   8.083
 1502SOL    HW2 6404  12.127  11.682   7.967
 1503SOL     OW 6405   1.288  13.763   2.077
 1503SOL    HW1 6406   1.366  13.804   2.039
 1503SOL    HW2 6407   1.215  13.809   2.035
 1504SOL     OW 6408  10.954   9.746   4.521
 1504SOL    HW1 6409  10.928   9.697   4.599
 1504SOL    HW2 6410  10.873   9.785   4.489
 1505SOL     OW 6411   6.248   5.813  13.171
 1505SOL    HW1 6412   6.158   5.819  13.140
 1505SOL    HW2 6413   6.240   5.793  13.265
 1506SOL     OW 6414   1.553  12.239  11.517
 1506SOL    HW1 6415   1.648  12.245  11.532
 1506SOL    HW2 6416   1.515  12.248  11.604
 1507SOL     OW 6417   3.825  13.967   0.021
 1507SOL    HW1 6418   3.858  13.992  14.807
 1507SOL    HW2 6419   3.801  13.874   0.011
 1508SOL     OW 6420   8.558   3.046   2.366
 1508SOL    HW1 6421   8.560   3.089   2.281
 1508SOL    HW2 6422   8.575   3.116   2.429
 1509SOL     OW 6423  13.364   8.969  14.209
 1509SOL    HW1 6424  13.299   8.968  14.279
 1509SOL    HW2 6425  13.338   9.043  14.153
 1510SOL     OW 6426   9.453  13.555   0.519
 1510SOL    HW1 6427   9.404  13.515   0.591
 1510SOL    HW2 6428   9.393  13.553   0.445
 1511SOL     OW 6429  12.409  11.372   8.307
 1511SOL    HW1 6430  12.376  11.412   8.227
 1511SOL    HW2 6431  12.488  11.422   8.329
 1512SOL     OW 6432  12.846   1.339  13.401
 1512SOL    HW1 6433  12.824   1.370  13.489
 1512SOL    HW2 6434  12.939   1.317  13.406
 1513SOL     OW 6435   4.819   9.997  14.173
 1513SOL    HW1 6436   4.798   9.994  14.266
 1513SOL    HW2 6437   4.762  10.065  14.137
 1514SOL     OW 6438   8.463  13.572  11.021
 1514SOL    HW1 6439   8.500  13.487  11.042
 1514SOL    HW2 6440   8.539  13.630  11.015
 1515SOL     OW 6441   9.059  11.487   3.915
 1515SOL    HW1 6442   9.035  11.426   3.846
 1515SOL    HW2 6443   9.114  11.435   3.975
 1516SOL     OW 6444   8.451   9.484   4.982
 1516SOL    HW1 6445   8.420   9.571   5.005
 1516SOL    HW2 6446   8.375   9.427   4.996
 1517SOL     OW 6447   1.385   5.319  13.274
 1517SOL    HW1 6448   1.467   5.273  13.290
 1517SOL    HW2 6449   1.390   5.346  13.183
 1518SOL     OW 6450   3.978   8.331   2.689
 1518SOL    HW1 6451   4.041   8.396   2.720
 1518SOL    HW2 6452   3.892   8.369   2.708
 1519SOL     OW 6453   8.850   4.709  12.911
 1519SOL    HW1 6454   8.846   4.790  12.961
 1519SOL    HW2 6455   8.759   4.683  12.901
 1520SOL     OW 6456   3.832   6.241   1.848
 1520SOL    HW1 6457   3.846   6.336   1.848
 1520SOL    HW2 6458   3.871   6.211   1.930
 1521SOL     OW 6459   3.435   4.463   3.363
 1521SOL    HW1 6460   3.519   4.492   3.401
 1521SOL    HW2 6461   3.450   4.464   3.269
 1522SOL     OW 6462   7.532   6.115   3.463
 1522SOL    HW1 6463   7.529   6.187   3.527
 1522SOL    HW2 6464   7.600   6.142   3.401
 1523SOL     OW 6465   1.799   8.516   4.940
 1523SOL    HW1 6466   1.736   8.549   4.876
 1523SOL    HW2 6467   1.794   8.421   4.933
 1524SOL     OW 6468   3.851   8.177   0.640
 1524SOL    HW1 6469   3.899   8.250   0.681
 1524SOL    HW2 6470   3.799   8.140   0.712
 1525SOL     OW 6471   4.114   2.648  12.176
 1525SOL    HW1 6472   4.184   2.694  12.129
 1525SOL    HW2 6473   4.156   2.569  12.210
 1526SOL     OW 6474  14.404   5.213   6.782
 1526SOL    HW1 6475  14.429   5.160   6.857
 1526SOL    HW2 6476  14.484   5.258   6.756
 1527SOL     OW 6477  11.602   6.589  11.230
 1527SOL    HW1 6478  11.691   6.559  11.214
 1527SOL    HW2 6479  11.587   6.570  11.323
 1528SOL     OW 6480  13.877   5.712   5.901
 1528SOL    HW1 6481  13.854   5.746   5.988
 1528SOL    HW2 6482  13.808   5.746   5.843
 1529SOL     OW 6483   3.069  12.448   8.488
 1529SOL    HW1 6484   2.996  12.398   8.523
 1529SOL    HW2 6485   3.030  12.531   8.460
 1530SOL     OW 6486  13.540   3.670   4.169
 1530SOL    HW1 6487  13.592   3.591   4.180
 1530SOL    HW2 6488  13.458   3.652   4.215
 1531SOL     OW 6489  12.423  13.659   0.539
 1531SOL    HW1 6490  12.350  13.670   0.601
 1531SOL    HW2 6491  12.434  13.746   0.501
 1532SOL     OW 6492   4.928   0.358   0.862
 1532SOL    HW1 6493   5.010   0.319   0.832
 1532SOL    HW2 6494   4.911   0.428   0.798
 1533SOL     OW 6495   0.388   5.372  12.852
 1533SOL    HW1 6496   0.303   5.414  12.836
 1533SOL    HW2 6497   0.378   5.327  12.936
 1534SOL     OW 6498  12.561  14.708   3.947
 1534SOL    HW1 6499  12.578  14.701   4.041
 1534SOL    HW2 6500  12.522  14.624   3.924
 1535SOL     OW 6501   7.493  13.319   3.297
 1535SOL    HW1 6502   7.563  13.381   3.318
 1535SOL    HW2 6503   7.522  13.277   3.216
 1536SOL     OW 6504   2.197   5.051   8.786
 1536SOL    HW1 6505   2.278   5.005   8.809
 1536SOL    HW2 6506   2.162   5.081   8.869
 1537SOL     OW 6507   4.400   6.364   9.605
 1537SOL    HW1 6508   4.378   6.455   9.583
 1537SOL    HW2 6509   4.316   6.325   9.630
 1538SOL     OW 6510   6.244  10.774   8.607
 1538SOL    HW1 6511   6.172  10.786   8.669
 1538SOL    HW2 6512   6.256  10.679   8.603
 1539SOL     OW 6513   6.173   7.546   9.826
 1539SOL    HW1 6514   6.147   7.636   9.803
 1539SOL    HW2 6515   6.204   7.509   9.743
 1540SOL     OW 6516   0.360  14.450   8.916
 1540SOL    HW1 6517   0.391  14.522   8.971
 1540SOL    HW2 6518   0.265  14.460   8.915
 1541SOL     OW 6519   9.706  13.105  14.114
 1541SOL    HW1 6520   9.707  13.201  14.115
 1541SOL    HW2 6521   9.797  13.081  14.097
 1542SOL     OW 6522   0.851  12.142   5.554
 1542SOL    HW1 6523   0.813  12.085   5.487
 1542SOL    HW2 6524   0.777  12.170   5.607
 1543SOL     OW 6525  12.943   7.066   7.908
 1543SOL    HW1 6526  12.925   7.059   8.002
 1543SOL    HW2 6527  13.019   7.010   7.893
 1544SOL     OW 6528   1.571  11.967   5.243
 1544SOL    HW1 6529   1.547  12.032   5.308
 1544SOL    HW2 6530   1.542  12.005   5.160
 1545SOL     OW 6531   4.226   4.922   9.216
 1545SOL    HW1 6532   4.248   4.830   9.236
 1545SOL    HW2 6533   4.219   4.925   9.121
 1546SOL     OW 6534   1.126  11.203   5.839
 1546SOL    HW1 6535   1.172  11.119   5.848
 1546SOL    HW2 6536   1.106  11.229   5.929
 1547SOL     OW 6537  10.846   6.285   6.031
 1547SOL    HW1 6538  10.752   6.284   6.012
 1547SOL    HW2 6539  10.883   6.216   5.975
 1548SOL     OW 6540   8.406   5.955   8.744
 1548SOL    HW1 6541   8.354   5.882   8.712
 1548SOL    HW2 6542   8.401   5.948   8.839
 1549SOL     OW 6543  12.741   5.686   3.414
 1549SOL    HW1 6544  12.701   5.601   3.395
 1549SOL    HW2 6545  12.788   5.708   3.333
 1550SOL     OW 6546  11.549   7.273   4.438
 1550SOL    HW1 6547  11.463   7.243   4.466
 1550SOL    HW2 6548  11.607   7.199   4.455
 1551SOL     OW 6549   2.185  13.327   0.919
 1551SOL    HW1 6550   2.176  13.421   0.909
 1551SOL    HW2 6551   2.100  13.298   0.954
 1552SOL     OW 6552   9.317   8.885   4.102
 1552SOL    HW1 6553   9.408   8.856   4.114
 1552SOL    HW2 6554   9.270   8.806   4.079
 1553SOL     OW 6555  11.325  10.266  13.869
 1553SOL    HW1 6556  11.389  10.329  13.902
 1553SOL    HW2 6557  11.270  10.317  13.809
 1554SOL     OW 6558  13.482   2.536  12.112
 1554SOL    HW1 6559  13.404   2.514  12.162
 1554SOL    HW2 6560  13.450   2.558  12.025
 1555SOL     OW 6561  14.098   5.406   1.538
 1555SOL    HW1 6562  14.092   5.337   1.472
 1555SOL    HW2 6563  14.167   5.464   1.505
 1556SOL     OW 6564   6.693  10.862   9.325
 1556SOL    HW1 6565   6.656  10.883   9.411
 1556SOL    HW2 6566   6.656  10.776   9.303
 1557SOL     OW 6567   0.406   9.525   7.898
 1557SOL    HW1 6568   0.437   9.476   7.974
 1557SOL    HW2 6569   0.420   9.617   7.922
 1558SOL     OW 6570   2.996   1.961  10.897
 1558SOL    HW1 6571   3.021   1.970  10.989
 1558SOL    HW2 6572   3.038   2.036  10.854
 1559SOL     OW 6573   5.260  14.132   2.680
 1559SOL    HW1 6574   5.206  14.211   2.687
 1559SOL    HW2 6575   5.262  14.112   2.587
 1560SOL     OW 6576   7.049   0.167   4.702
 1560SOL    HW1 6577   7.040   0.258   4.730
 1560SOL    HW2 6578   6.963   0.128   4.718
 1561SOL     OW 6579   0.488   5.503  14.489
 1561SOL    HW1 6580   0.523   5.556  14.418
 1561SOL    HW2 6581   0.439   5.433  14.445
 1562SOL     OW 6582   5.575   1.518   6.020
 1562SOL    HW1 6583   5.531   1.479   6.096
 1562SOL    HW2 6584   5.599   1.606   6.049
 1563SOL     OW 6585  11.852   5.890  11.071
 1563SOL    HW1 6586  11.811   5.805  11.056
 1563SOL    HW2 6587  11.807   5.925  11.148
 1564SOL     OW 6588   6.819   5.054   9.998
 1564SOL    HW1 6589   6.840   5.110  10.073
 1564SOL    HW2 6590   6.824   4.965  10.032
 1565SOL     OW 6591   5.331   3.158   0.269
 1565SOL    HW1 6592   5.320   3.074   0.225
 1565SOL    HW2 6593   5.413   3.150   0.317
 1566SOL     OW 6594   5.860   1.284   4.494
 1566SOL    HW1 6595   5.923   1.217   4.520
 1566SOL    HW2 6596   5.911   1.344   4.439
 1567SOL     OW 6597   0.827  10.697   4.800
 1567SOL    HW1 6598   0.832  10.757   4.874
 1567SOL    HW2 6599   0.735  10.671   4.797
 1568SOL     OW 6600  11.943   6.511   0.076
 1568SOL    HW1 6601  11.938   6.501   0.171
 1568SOL    HW2 6602  11.880   6.448   0.042
 1569SOL     OW 6603   3.108   3.960   4.374
 1569SOL    HW1 6604   3.156   3.927   4.298
 1569SOL    HW2 6605   3.026   3.911   4.373
 1570SOL     OW 6606   1.113   9.713   8.233
 1570SOL    HW1 6607   1.198   9.714   8.190
 1570SOL    HW2 6608   1.109   9.630   8.279
 1571SOL     OW 6609  14.024   2.934  11.712
 1571SOL    HW1 6610  13.987   3.006  11.763
 1571SOL    HW2 6611  13.955   2.912  11.649
 1572SOL     OW 6612  11.891   8.562   9.815
 1572SOL    HW1 6613  11.907   8.529   9.904
 1572SOL    HW2 6614  11.877   8.656   9.826
 1573SOL     OW 6615  11.599   4.212  10.410
 1573SOL    HW1 6616  11.616   4.145  10.475
 1573SOL    HW2 6617  11.624   4.294  10.453
 1574SOL     OW 6618   5.160   1.270  10.259
 1574SOL    HW1 6619   5.224   1.199  10.263
 1574SOL    HW2 6620   5.077   1.227  10.241
 1575SOL     OW 6621  10.550   8.557  11.462
 1575SOL    HW1 6622  10.467   8.562  11.510
 1575SOL    HW2 6623  10.534   8.607  11.382
 1576SOL     OW 6624   5.712  12.929   8.144
 1576SOL    HW1 6625   5.805  12.926   8.123
 1576SOL    HW2 6626   5.706  12.889   8.231
 1577SOL     OW 6627   7.623   0.805   9.720
 1577SOL    HW1 6628   7.666   0.886   9.746
 1577SOL    HW2 6629   7.694   0.741   9.715
 1578SOL     OW 6630   2.481  12.405  11.577
 1578SOL    HW1 6631   2.422  12.331  11.559
 1578SOL    HW2 6632   2.511  12.389  11.666
 1579SOL     OW 6633   1.148  14.055  12.418
 1579SOL    HW1 6634   1.110  14.138  12.390
 1579SOL    HW2 6635   1.164  14.067  12.512
 1580SOL     OW 6636   9.650   2.851   5.426
 1580SOL    HW1 6637   9.636   2.762   5.395
 1580SOL    HW2 6638   9.719   2.844   5.491
 1581SOL     OW 6639   9.279  11.752   6.040
 1581SOL    HW1 6640   9.227  11.673   6.029
 1581SOL    HW2 6641   9.224  11.810   6.093
 1582SOL     OW 6642  12.755  12.247   9.665
 1582SOL    HW1 6643  12.672  12.277   9.628
 1582SOL    HW2 6644  12.732  12.170   9.718
 1583SOL     OW 6645   0.604   2.965   5.539
 1583SOL    HW1 6646   0.578   2.883   5.497
 1583SOL    HW2 6647   0.523   3.003   5.570
 1584SOL     OW 6648   5.288   1.841   6.715
 1584SOL    HW1 6649   5.246   1.779   6.775
 1584SOL    HW2 6650   5.341   1.786   6.657
 1585SOL     OW 6651   0.649   7.387   3.108
 1585SOL    HW1 6652   0.589   7.454   3.075
 1585SOL    HW2 6653   0.619   7.306   3.068
 1586SOL     OW 6654  10.827  12.459   9.378
 1586SOL    HW1 6655  10.776  12.407   9.440
 1586SOL    HW2 6656  10.918  12.432   9.393
 1587SOL     OW 6657   4.545   8.203  11.914
 1587SOL    HW1 6658   4.612   8.222  11.979
 1587SOL    HW2 6659   4.494   8.284  11.907
 1588SOL     OW 6660  10.687  10.837   4.852
 1588SOL    HW1 6661  10.737  10.787   4.916
 1588SOL    HW2 6662  10.616  10.877   4.903
 1589SOL     OW 6663  13.281   9.222   2.511
 1589SOL    HW1 6664  13.278   9.310   2.548
 1589SOL    HW2 6665  13.373   9.197   2.515
 1590SOL     OW 6666   1.576  12.106   7.740
 1590SOL    HW1 6667   1.577  12.112   7.644
 1590SOL    HW2 6668   1.668  12.110   7.766
 1591SOL     OW 6669   9.929   7.464  12.774
 1591SOL    HW1 6670  10.006   7.494  12.823
 1591SOL    HW2 6671   9.859   7.461  12.839
 1592SOL     OW 6672   3.349  13.595  13.446
 1592SOL    HW1 6673   3.300  13.519  13.478
 1592SOL    HW2 6674   3.283  13.651  13.407
 1593SOL     OW 6675   1.387   4.401   0.686
 1593SOL    HW1 6676   1.386   4.324   0.744
 1593SOL    HW2 6677   1.314   4.455   0.717
 1594SOL     OW 6678  10.885   5.140   2.229
 1594SOL    HW1 6679  10.970   5.165   2.194
 1594SOL    HW2 6680  10.902   5.113   2.319
 1595SOL     OW 6681   1.439  11.277  13.772
 1595SOL    HW1 6682   1.459  11.287  13.865
 1595SOL    HW2 6683   1.376  11.346  13.753
 1596SOL     OW 6684   5.225  11.145   4.306
 1596SOL    HW1 6685   5.204  11.199   4.230
 1596SOL    HW2 6686   5.151  11.085   4.314
 1597SOL     OW 6687   8.312   8.707   0.767
 1597SOL    HW1 6688   8.363   8.736   0.841
 1597SOL    HW2 6689   8.294   8.786   0.717
 1598SOL     OW 6690   2.106   5.184   5.595
 1598SOL    HW1 6691   2.192   5.184   5.553
 1598SOL    HW2 6692   2.091   5.276   5.620
 1599SOL     OW 6693   5.622  11.641   4.941
 1599SOL    HW1 6694   5.557  11.635   5.011
 1599SOL    HW2 6695   5.644  11.550   4.920
 1600SOL     OW 6696   1.262   0.532   6.868
 1600SOL    HW1 6697   1.215   0.481   6.933
 1600SOL    HW2 6698   1.284   0.614   6.912
 1601SOL     OW 6699  14.661   5.452   0.156
 1601SOL    HW1 6700  14.655   5.536   0.201
 1601SOL    HW2 6701  14.647   5.473   0.064
 1602SOL     OW 6702   5.756   3.493   7.761
 1602SOL    HW1 6703   5.777   3.454   7.846
 1602SOL    HW2 6704   5.676   3.449   7.733
 1603SOL     OW 6705  12.699  10.478   0.243
 1603SOL    HW1 6706  12.690  10.573   0.233
 1603SOL    HW2 6707  12.608  10.446   0.249
 1604SOL     OW 6708   4.590  11.614   4.434
 1604SOL    HW1 6709   4.607  11.683   4.369
 1604SOL    HW2 6710   4.641  11.640   4.510
 1605SOL     OW 6711  14.427   1.598   8.621
 1605SOL    HW1 6712  14.490   1.669   8.632
 1605SOL    HW2 6713  14.476   1.518   8.643
 1606SOL     OW 6714  12.927   7.109   7.371
 1606SOL    HW1 6715  13.004   7.054   7.385
 1606SOL    HW2 6716  12.895   7.128   7.459
 1607SOL     OW 6717  10.984   6.147   0.084
 1607SOL    HW1 6718  11.019   6.115   0.167
 1607SOL    HW2 6719  10.906   6.197   0.109
 1608SOL     OW 6720   3.694   8.290   8.072
 1608SOL    HW1 6721   3.604   8.268   8.096
 1608SOL    HW2 6722   3.748   8.249   8.139
 1609SOL     OW 6723  10.799   3.185  11.634
 1609SOL    HW1 6724  10.885   3.208  11.601
 1609SOL    HW2 6725  10.764   3.267  11.670
 1610SOL     OW 6726   0.290  13.995   2.340
 1610SOL    HW1 6727   0.353  14.018   2.272
 1610SOL    HW2 6728   0.305  14.059   2.409
 1611SOL     OW 6729   2.274   4.647   3.855
 1611SOL    HW1 6730   2.241   4.631   3.943
 1611SOL    HW2 6731   2.366   4.670   3.867
 1612SOL     OW 6732   4.362  13.434   9.407
 1612SOL    HW1 6733   4.304  13.435   9.483
 1612SOL    HW2 6734   4.345  13.349   9.366
 1613SOL     OW 6735   0.272   8.894   6.074
 1613SOL    HW1 6736   0.299   8.874   5.985
 1613SOL    HW2 6737   0.196   8.951   6.065
 1614SOL     OW 6738   0.883   3.790  10.617
 1614SOL    HW1 6739   0.963   3.828  10.652
 1614SOL    HW2 6740   0.878   3.703  10.656
 1615SOL     OW 6741   3.583   7.090   5.448
 1615SOL    HW1 6742   3.594   7.004   5.487
 1615SOL    HW2 6743   3.561   7.073   5.356
 1616SOL     OW 6744   9.159   7.015   9.517
 1616SOL    HW1 6745   9.141   7.099   9.476
 1616SOL    HW2 6746   9.255   7.010   9.520
 1617SOL     OW 6747   1.383   3.016  14.462
 1617SOL    HW1 6748   1.421   2.937  14.501
 1617SOL    HW2 6749   1.310   2.984  14.409
 1618SOL     OW 6750  12.862   8.312   4.356
 1618SOL    HW1 6751  12.829   8.387   4.405
 1618SOL    HW2 6752  12.802   8.303   4.282
 1619SOL     OW 6753   5.056   4.020  12.955
 1619SOL    HW1 6754   5.133   4.040  12.902
 1619SOL    HW2 6755   5.006   3.958  12.902
 1620SOL     OW 6756   2.680   0.557   7.075
 1620SOL    HW1 6757   2.705   0.466   7.092
 1620SOL    HW2 6758   2.744   0.588   7.011
 1621SOL     OW 6759   0.614   8.098  13.154
 1621SOL    HW1 6760   0.673   8.069  13.223
 1621SOL    HW2 6761   0.539   8.134  13.201
 1622SOL     OW 6762  11.829  14.653   0.265
 1622SOL    HW1 6763  11.881  14.733   0.258
 1622SOL    HW2 6764  11.741  14.679   0.240
 1623SOL     OW 6765   6.866  12.720  13.264
 1623SOL    HW1 6766   6.944  12.682  13.305
 1623SOL    HW2 6767   6.859  12.808  13.301
 1624SOL     OW 6768   8.463   0.684   8.239
 1624SOL    HW1 6769   8.548   0.676   8.196
 1624SOL    HW2 6770   8.468   0.767   8.287
 1625SOL     OW 6771  14.609   2.682   6.609
 1625SOL    HW1 6772  14.661   2.625   6.552
 1625SOL    HW2 6773  14.591   2.630   6.686
 1626SOL     OW 6774   3.229  14.055  10.538
 1626SOL    HW1 6775   3.200  13.995  10.469
 1626SOL    HW2 6776   3.159  14.051  10.603
 1627SOL     OW 6777   6.381  14.110   3.456
 1627SOL    HW1 6778   6.318  14.051   3.415
 1627SOL    HW2 6779   6.329  14.167   3.513
 1628SOL     OW 6780  10.953   8.679   2.279
 1628SOL    HW1 6781  10.858   8.680   2.291
 1628SOL    HW2 6782  10.972   8.758   2.229
 1629SOL     OW 6783   8.369   4.673  10.156
 1629SOL    HW1 6784   8.407   4.760  10.146
 1629SOL    HW2 6785   8.275   4.688  10.159
 1630SOL     OW 6786  13.851   0.772   2.540
 1630SOL    HW1 6787  13.944   0.766   2.563
 1630SOL    HW2 6788  13.843   0.725   2.457
 1631SOL     OW 6789   6.398  12.987   1.255
 1631SOL    HW1 6790   6.392  12.994   1.160
 1631SOL    HW2 6791   6.329  12.925   1.279
 1632SOL     OW 6792   2.881   4.797   1.786
 1632SOL    HW1 6793   2.887   4.702   1.796
 1632SOL    HW2 6794   2.816   4.811   1.717
 1633SOL     OW 6795  13.544   3.885   9.750
 1633SOL    HW1 6796  13.534   3.976   9.723
 1633SOL    HW2 6797  13.572   3.840   9.670
 1634SOL     OW 6798   1.118   7.930  10.918
 1634SOL    HW1 6799   1.097   7.868  10.988
 1634SOL    HW2 6800   1.209   7.955  10.935
 1635SOL     OW 6801   5.426  10.060  10.466
 1635SOL    HW1 6802   5.485   9.990  10.440
 1635SOL    HW2 6803   5.410  10.044  10.559
 1636SOL     OW 6804  11.906   4.688   5.035
 1636SOL    HW1 6805  11.840   4.720   5.097
 1636SOL    HW2 6806  11.877   4.722   4.950
 1637SOL     OW 6807   6.585   6.461   1.223
 1637SOL    HW1 6808   6.526   6.477   1.297
 1637SOL    HW2 6809   6.616   6.371   1.236
 1638SOL     OW 6810  10.531  12.898  12.574
 1638SOL    HW1 6811  10.601  12.942  12.622
 1638SOL    HW2 6812  10.562  12.807  12.566
 1639SOL     OW 6813   5.821  12.285   0.436
 1639SOL    HW1 6814   5.799  12.192   0.431
 1639SOL    HW2 6815   5.776  12.316   0.514
 1640SOL     OW 6816   7.334  12.559   9.742
 1640SOL    HW1 6817   7.252  12.518   9.713
 1640SOL    HW2 6818   7.403  12.505   9.703
 1641SOL     OW 6819   3.058   8.730  12.459
 1641SOL    HW1 6820   3.060   8.637  12.479
 1641SOL    HW2 6821   3.037   8.735  12.366
 1642SOL     OW 6822  13.904   5.227   7.763
 1642SOL    HW1 6823  13.950   5.278   7.696
 1642SOL    HW2 6824  13.934   5.263   7.846
 1643SOL     OW 6825   5.472   7.567   5.397
 1643SOL    HW1 6826   5.521   7.538   5.319
 1643SOL    HW2 6827   5.460   7.661   5.383
 1644SOL     OW 6828   5.223  14.391  14.204
 1644SOL    HW1 6829   5.283  14.428  14.139
 1644SOL    HW2 6830   5.167  14.332  14.154
 1645SOL     OW 6831   8.175   7.564   2.939
 1645SOL    HW1 6832   8.171   7.620   3.017
 1645SOL    HW2 6833   8.106   7.599   2.882
 1646SOL     OW 6834   5.666  13.021   7.575
 1646SOL    HW1 6835   5.630  13.047   7.660
 1646SOL    HW2 6836   5.609  12.950   7.546
 1647SOL     OW 6837  14.164  12.806   8.545
 1647SOL    HW1 6838  14.258  12.796   8.558
 1647SOL    HW2 6839  14.143  12.890   8.586
 1648SOL     OW 6840   5.680   9.713  11.216
 1648SOL    HW1 6841   5.713   9.791  11.262
 1648SOL    HW2 6842   5.729   9.640  11.254
 1649SOL     OW 6843   2.230   1.259   0.392
 1649SOL    HW1 6844   2.143   1.291   0.367
 1649SOL    HW2 6845   2.285   1.275   0.315
 1650SOL     OW 6846  13.310   4.481   6.492
 1650SOL    HW1 6847  13.238   4.431   6.454
 1650SOL    HW2 6848  13.389   4.431   6.471
 1651SOL     OW 6849   5.638  11.968   7.089
 1651SOL    HW1 6850   5.546  11.942   7.092
 1651SOL    HW2 6851   5.675  11.917   7.017
 1652SOL     OW 6852   1.622  11.898   2.499
 1652SOL    HW1 6853   1.558  11.938   2.439
 1652SOL    HW2 6854   1.696  11.958   2.497
 1653SOL     OW 6855   9.972   5.173  13.097
 1653SOL    HW1 6856   9.986   5.207  13.186
 1653SOL    HW2 6857  10.052   5.195  13.050
 1654SOL     OW 6858   2.692  10.205   8.715
 1654SOL    HW1 6859   2.713  10.114   8.735
 1654SOL    HW2 6860   2.619  10.200   8.654
 1655SOL     OW 6861   6.871   1.948   6.032
 1655SOL    HW1 6862   6.938   1.918   6.092
 1655SOL    HW2 6863   6.805   1.879   6.033
 1656SOL     OW 6864   6.720  14.469   9.360
 1656SOL    HW1 6865   6.787  14.534   9.379
 1656SOL    HW2 6866   6.734  14.444   9.269
 1657SOL     OW 6867   9.717   8.653   2.900
 1657SOL    HW1 6868   9.794   8.667   2.844
 1657SOL    HW2 6869   9.642   8.666   2.842
 1658SOL     OW 6870  12.926   8.801   1.586
 1658SOL    HW1 6871  13.016   8.832   1.588
 1658SOL    HW2 6872  12.933   8.706   1.579
 1659SOL     OW 6873   7.272   8.480   6.734
 1659SOL    HW1 6874   7.255   8.502   6.826
 1659SOL    HW2 6875   7.186   8.481   6.692
 1660SOL     OW 6876   1.549  11.104   0.429
 1660SOL    HW1 6877   1.472  11.047   0.421
 1660SOL    HW2 6878   1.594  11.095   0.345
 1661SOL     OW 6879   2.726  12.536  13.807
 1661SOL    HW1 6880   2.717  12.616  13.859
 1661SOL    HW2 6881   2.812  12.543  13.766
 1662SOL     OW 6882   8.168   4.972  13.742
 1662SOL    HW1 6883   8.190   4.879  13.754
 1662SOL    HW2 6884   8.180   5.011  13.828
 1663SOL     OW 6885   2.681   2.070   9.001
 1663SOL    HW1 6886   2.736   2.054   8.925
 1663SOL    HW2 6887   2.627   2.145   8.976
 1664SOL     OW 6888   0.947  12.304   3.711
 1664SOL    HW1 6889   0.909  12.304   3.623
 1664SOL    HW2 6890   0.890  12.361   3.762
 1665SOL     OW 6891   6.092   3.020  13.501
 1665SOL    HW1 6892   6.162   2.954  13.501
 1665SOL    HW2 6893   6.096   3.059  13.588
 1666SOL     OW 6894   5.730  13.800   7.775
 1666SOL    HW1 6895   5.716  13.810   7.681
 1666SOL    HW2 6896   5.655  13.844   7.815
 1667SOL     OW 6897   5.005  13.443   5.191
 1667SOL    HW1 6898   4.971  13.357   5.215
 1667SOL    HW2 6899   4.946  13.474   5.123
 1668SOL     OW 6900   5.262  11.601   9.397
 1668SOL    HW1 6901   5.292  11.640   9.479
 1668SOL    HW2 6902   5.234  11.675   9.344
 1669SOL     OW 6903  13.994   3.093   8.133
 1669SOL    HW1 6904  13.947   3.014   8.161
 1669SOL    HW2 6905  13.932   3.140   8.078
 1670SOL     OW 6906  13.820  13.170   1.293
 1670SOL    HW1 6907  13.869  13.195   1.214
 1670SOL    HW2 6908  13.884  13.175   1.363
 1671SOL     OW 6909   8.224   1.649   4.044
 1671SOL    HW1 6910   8.187   1.602   4.119
 1671SOL    HW2 6911   8.272   1.582   3.995
 1672SOL     OW 6912   9.516  12.205  11.525
 1672SOL    HW1 6913   9.518  12.120  11.567
 1672SOL    HW2 6914   9.428  12.238  11.541
 1673SOL     OW 6915   2.578   2.052  12.513
 1673SOL    HW1 6916   2.661   2.051  12.560
 1673SOL    HW2 6917   2.538   2.135  12.537
 1674SOL     OW 6918  12.485  11.868   8.157
 1674SOL    HW1 6919  12.451  11.859   8.068
 1674SOL    HW2 6920  12.549  11.939   8.151
 1675SOL     OW 6921   1.271   7.511   9.790
 1675SOL    HW1 6922   1.175   7.511   9.783
 1675SOL    HW2 6923   1.289   7.482   9.880
 1676SOL     OW 6924  10.676   1.834   1.566
 1676SOL    HW1 6925  10.729   1.758   1.591
 1676SOL    HW2 6926  10.600   1.796   1.522
 1677SOL     OW 6927   9.655   5.701   0.887
 1677SOL    HW1 6928   9.739   5.724   0.928
 1677SOL    HW2 6929   9.594   5.768   0.918
 1678SOL     OW 6930   4.695  13.817   3.133
 1678SOL    HW1 6931   4.647  13.871   3.070
 1678SOL    HW2 6932   4.635  13.805   3.206
 1679SOL     OW 6933   2.356   5.619   5.932
 1679SOL    HW1 6934   2.271   5.576   5.923
 1679SOL    HW2 6935   2.347   5.676   6.008
 1680SOL     OW 6936  12.560   4.263  12.123
 1680SOL    HW1 6937  12.475   4.306  12.113
 1680SOL    HW2 6938  12.548   4.176  12.085
 1681SOL     OW 6939  13.627   4.163   0.893
 1681SOL    HW1 6940  13.615   4.084   0.841
 1681SOL    HW2 6941  13.711   4.150   0.937
 1682SOL     OW 6942  10.985   7.009   8.805
 1682SOL    HW1 6943  10.892   6.995   8.790
 1682SOL    HW2 6944  11.015   6.927   8.845
 1683SOL     OW 6945  13.621  10.276   9.157
 1683SOL    HW1 6946  13.554  10.331   9.116
 1683SOL    HW2 6947  13.673  10.243   9.083
 1684SOL     OW 6948  11.675   5.136   7.190
 1684SOL    HW1 6949  11.723   5.120   7.272
 1684SOL    HW2 6950  11.599   5.078   7.195
 1685SOL     OW 6951  11.158   2.694   7.222
 1685SOL    HW1 6952  11.095   2.625   7.240
 1685SOL    HW2 6953  11.110   2.758   7.169
 1686SOL     OW 6954   7.168  12.796   4.960
 1686SOL    HW1 6955   7.180  12.864   5.025
 1686SOL    HW2 6956   7.074  12.777   4.961
 1687SOL     OW 6957   1.624   3.846   1.632
 1687SOL    HW1 6958   1.595   3.821   1.720
 1687SOL    HW2 6959   1.630   3.763   1.585
 1688SOL     OW 6960   9.031   8.098   4.572
 1688SOL    HW1 6961   8.939   8.073   4.571
 1688SOL    HW2 6962   9.058   8.083   4.663
 1689SOL     OW 6963   7.608   0.713  12.041
 1689SOL    HW1 6964   7.590   0.639  12.098
 1689SOL    HW2 6965   7.636   0.783  12.101
 1690SOL     OW 6966   7.671   5.566  13.982
 1690SOL    HW1 6967   7.749   5.595  14.030
 1690SOL    HW2 6968   7.664   5.473  14.002
 1691SOL     OW 6969   3.239  12.830   0.172
 1691SOL    HW1 6970   3.312  12.827   0.110
 1691SOL    HW2 6971   3.247  12.749   0.222
 1692SOL     OW 6972   8.094   5.562   7.551
 1692SOL    HW1 6973   8.049   5.589   7.632
 1692SOL    HW2 6974   8.187   5.575   7.570
 1693SOL     OW 6975  12.715  14.730   5.407
 1693SOL    HW1 6976  12.647  14.663   5.406
 1693SOL    HW2 6977  12.719  14.761   5.316
 1694SOL     OW 6978   2.424   5.187   4.473
 1694SOL    HW1 6979   2.366   5.187   4.397
 1694SOL    HW2 6980   2.368   5.207   4.547
 1695SOL     OW 6981  10.522  12.755  12.024
 1695SOL    HW1 6982  10.543  12.735  11.933
 1695SOL    HW2 6983  10.533  12.672  12.070
 1696SOL     OW 6984   0.938  13.880  11.284
 1696SOL    HW1 6985   0.922  13.970  11.257
 1696SOL    HW2 6986   0.894  13.872  11.369
 1697SOL     OW 6987  13.131   4.114   1.583
 1697SOL    HW1 6988  13.198   4.103   1.651
 1697SOL    HW2 6989  13.129   4.209   1.567
 1698SOL     OW 6990  12.497   7.789   8.692
 1698SOL    HW1 6991  12.506   7.784   8.597
 1698SOL    HW2 6992  12.487   7.699   8.720
 1699SOL     OW 6993   9.385  14.759   8.968
 1699SOL    HW1 6994   9.462  14.811   8.943
 1699SOL    HW2 6995   9.313  14.821   8.965
 1700SOL     OW 6996   1.135  11.295   0.313
 1700SOL    HW1 6997   1.069  11.242   0.268
 1700SOL    HW2 6998   1.209  11.298   0.253
 1701SOL     OW 6999  12.209  13.365   6.688
 1701SOL    HW1 7000  12.251  13.432   6.741
 1701SOL    HW2 7001  12.225  13.391   6.597
 1702SOL     OW 7002  10.714  11.272   6.292
 1702SOL    HW1 7003  10.639  11.330   6.289
 1702SOL    HW2 7004  10.710  11.224   6.209
 1703SOL     OW 7005   0.806   6.633   5.516
 1703SOL    HW1 7006   0.793   6.684   5.436
 1703SOL    HW2 7007   0.826   6.545   5.485
 1704SOL     OW 7008   5.989   8.530   9.201
 1704SOL    HW1 7009   5.917   8.552   9.260
 1704SOL    HW2 7010   5.949   8.522   9.115
 1705SOL     OW 7011   4.255   5.564   2.835
 1705SOL    HW1 7012   4.273   5.551   2.928
 1705SOL    HW2 7013   4.322   5.512   2.791
 1706SOL     OW 7014   8.659  13.262  10.226
 1706SOL    HW1 7015   8.739  13.211  10.238
 1706SOL    HW2 7016   8.600  13.203  10.179
 1707SOL     OW 7017   4.979  11.744   6.398
 1707SOL    HW1 7018   5.056  11.694   6.371
 1707SOL    HW2 7019   5.012  11.805   6.464
 1708SOL     OW 7020   3.185  12.084   3.806
 1708SOL    HW1 7021   3.097  12.114   3.825
 1708SOL    HW2 7022   3.200  12.108   3.715
 1709SOL     OW 7023  13.121  13.879   1.330
 1709SOL    HW1 7024  13.210  13.846   1.339
 1709SOL    HW2 7025  13.128  13.950   1.266
 1710SOL     OW 7026  11.490   6.383   1.766
 1710SOL    HW1 7027  11.546   6.420   1.835
 1710SOL    HW2 7028  11.402   6.387   1.802
 1711SOL     OW 7029   0.788   9.302   7.413
 1711SOL    HW1 7030   0.748   9.278   7.497
 1711SOL    HW2 7031   0.775   9.396   7.407
 1712SOL     OW 7032   5.838   0.992  11.777
 1712SOL    HW1 7033   5.779   1.045  11.832
 1712SOL    HW2 7034   5.802   1.001  11.689
 1713SOL     OW 7035   2.369  14.403   8.367
 1713SOL    HW1 7036   2.338  14.479   8.415
 1713SOL    HW2 7037   2.304  14.392   8.297
 1714SOL     OW 7038   7.109   8.889  13.634
 1714SOL    HW1 7039   7.091   8.819  13.572
 1714SOL    HW2 7040   7.144   8.844  13.711
 1715SOL     OW 7041   0.960  12.012  11.434
 1715SOL    HW1 7042   1.041  12.063  11.436
 1715SOL    HW2 7043   0.952  11.975  11.521
 1716SOL     OW 7044  14.433   0.518  11.280
 1716SOL    HW1 7045  14.446   0.587  11.215
 1716SOL    HW2 7046  14.338   0.508  11.285
 1717SOL     OW 7047   2.018   9.787   6.487
 1717SOL    HW1 7048   1.984   9.727   6.421
 1717SOL    HW2 7049   2.063   9.731   6.550
 1718SOL     OW 7050   7.072  10.362   9.761
 1718SOL    HW1 7051   7.087  10.280   9.714
 1718SOL    HW2 7052   7.118  10.350   9.844
 1719SOL     OW 7053   0.215  10.808   1.512
 1719SOL    HW1 7054   0.184  10.769   1.593
 1719SOL    HW2 7055   0.309  10.817   1.524
 1720SOL     OW 7056   3.115  12.157   1.156
 1720SOL    HW1 7057   3.084  12.108   1.080
 1720SOL    HW2 7058   3.209  12.169   1.140
 1721SOL     OW 7059   9.511   0.950   1.137
 1721SOL    HW1 7060   9.547   0.869   1.101
 1721SOL    HW2 7061   9.528   0.943   1.231
 1722SOL     OW 7062  11.269   4.556   8.935
 1722SOL    HW1 7063  11.250   4.648   8.913
 1722SOL    HW2 7064  11.362   4.556   8.959
 1723SOL     OW 7065   2.134   0.003   8.803
 1723SOL    HW1 7066   2.061  14.865   8.864
 1723SOL    HW2 7067   2.211  14.848   8.853
 1724SOL     OW 7068   6.621  13.016  14.632
 1724SOL    HW1 7069   6.561  12.992  14.704
 1724SOL    HW2 7070   6.589  13.100  14.601
 1725SOL     OW 7071  12.881   2.708  11.599
 1725SOL    HW1 7072  12.790   2.678  11.601
 1725SOL    HW2 7073  12.930   2.632  11.568
 1726SOL     OW 7074  10.911   7.877  11.015
 1726SOL    HW1 7075  10.961   7.950  10.978
 1726SOL    HW2 7076  10.973   7.804  11.017
 1727SOL     OW 7077   6.007  11.451   5.344
 1727SOL    HW1 7078   6.048  11.534   5.319
 1727SOL    HW2 7079   5.913  11.468   5.340
 1728SOL     OW 7080   3.619   8.853  13.043
 1728SOL    HW1 7081   3.523   8.854  13.047
 1728SOL    HW2 7082   3.646   8.806  13.122
 1729SOL     OW 7083   9.264   1.379  10.607
 1729SOL    HW1 7084   9.287   1.449  10.546
 1729SOL    HW2 7085   9.323   1.390  10.681
 1730SOL     OW 7086   9.221   0.552   8.410
 1730SOL    HW1 7087   9.244   0.520   8.497
 1730SOL    HW2 7088   9.238   0.478   8.351
 1731SOL     OW 7089  13.931  10.194   5.692
 1731SOL    HW1 7090  13.987  10.264   5.659
 1731SOL    HW2 7091  13.893  10.155   5.614
 1732SOL     OW 7092   0.249  10.713   9.530
 1732SOL    HW1 7093   0.309  10.758   9.589
 1732SOL    HW2 7094   0.275  10.621   9.535
 1733SOL     OW 7095   0.825   5.565   6.827
 1733SOL    HW1 7096   0.830   5.603   6.914
 1733SOL    HW2 7097   0.743   5.516   6.826
 1734SOL     OW 7098   1.651  13.620   6.540
 1734SOL    HW1 7099   1.722  13.581   6.489
 1734SOL    HW2 7100   1.594  13.547   6.561
 1735SOL     OW 7101   6.598   9.576  13.363
 1735SOL    HW1 7102   6.592   9.621  13.447
 1735SOL    HW2 7103   6.625   9.644  13.301
 1736SOL     OW 7104   4.796   5.745  12.362
 1736SOL    HW1 7105   4.745   5.779  12.437
 1736SOL    HW2 7106   4.752   5.664  12.339
 1737SOL     OW 7107  10.292  14.040   6.589
 1737SOL    HW1 7108  10.203  14.052   6.624
 1737SOL    HW2 7109  10.344  14.109   6.631
 1738SOL     OW 7110  12.645  12.125  11.510
 1738SOL    HW1 7111  12.606  12.212  11.499
 1738SOL    HW2 7112  12.735  12.136  11.478
 1739SOL     OW 7113   9.018   8.505   5.304
 1739SOL    HW1 7114   8.959   8.578   5.320
 1739SOL    HW2 7115   9.063   8.529   5.222
 1740SOL     OW 7116   6.448   8.456   5.419
 1740SOL    HW1 7117   6.492   8.371   5.424
 1740SOL    HW2 7118   6.356   8.437   5.439
 1741SOL     OW 7119  12.695   9.521   0.706
 1741SOL    HW1 7120  12.703   9.496   0.798
 1741SOL    HW2 7121  12.785   9.540   0.679
 1742SOL     OW 7122   8.537   4.198   5.541
 1742SOL    HW1 7123   8.503   4.251   5.612
 1742SOL    HW2 7124   8.542   4.109   5.577
 1743SOL     OW 7125  11.876  11.841   0.487
 1743SOL    HW1 7126  11.838  11.805   0.568
 1743SOL    HW2 7127  11.857  11.775   0.420
 1744SOL     OW 7128   9.720   2.885  10.387
 1744SOL    HW1 7129   9.685   2.875  10.476
 1744SOL    HW2 7130   9.786   2.954  10.395
 1745SOL     OW 7131   8.059  13.549   3.277
 1745SOL    HW1 7132   8.141  13.574   3.236
 1745SOL    HW2 7133   8.017  13.491   3.214
 1746SOL     OW 7134   6.034   4.373  13.787
 1746SOL    HW1 7135   6.019   4.328  13.704
 1746SOL    HW2 7136   6.093   4.315  13.836
 1747SOL     OW 7137   5.330   9.194   2.549
 1747SOL    HW1 7138   5.244   9.236   2.557
 1747SOL    HW2 7139   5.311   9.101   2.551
 1748SOL     OW 7140   1.800   7.238   7.699
 1748SOL    HW1 7141   1.706   7.236   7.718
 1748SOL    HW2 7142   1.833   7.312   7.750
 1749SOL     OW 7143   1.757   3.623   7.512
 1749SOL    HW1 7144   1.758   3.553   7.446
 1749SOL    HW2 7145   1.733   3.579   7.593
 1750SOL     OW 7146  12.661   5.317  12.692
 1750SOL    HW1 7147  12.691   5.246  12.748
 1750SOL    HW2 7148  12.740   5.347  12.646
 1751SOL     OW 7149   0.232  11.761  10.039
 1751SOL    HW1 7150   0.275  11.685  10.079
 1751SOL    HW2 7151   0.234  11.828  10.108
 1752SOL     OW 7152  13.650  13.001  10.951
 1752SOL    HW1 7153  13.624  12.967  11.036
 1752SOL    HW2 7154  13.571  12.999  10.898
 1753SOL     OW 7155   2.949  13.478   9.388
 1753SOL    HW1 7156   3.002  13.454   9.464
 1753SOL    HW2 7157   2.866  13.434   9.401
 1754SOL     OW 7158  10.223   6.225   6.158
 1754SOL    HW1 7159  10.260   6.301   6.203
 1754SOL    HW2 7160  10.257   6.150   6.207
 1755SOL     OW 7161   7.289   8.322   3.559
 1755SOL    HW1 7162   7.299   8.249   3.498
 1755SOL    HW2 7163   7.309   8.286   3.645
 1756SOL     OW 7164   8.239   6.402  10.239
 1756SOL    HW1 7165   8.233   6.372  10.148
 1756SOL    HW2 7166   8.328   6.379  10.265
 1757SOL     OW 7167  10.417  11.456   9.723
 1757SOL    HW1 7168  10.371  11.494   9.648
 1757SOL    HW2 7169  10.366  11.484   9.799
 1758SOL     OW 7170  11.995   8.661   6.649
 1758SOL    HW1 7171  11.935   8.593   6.621
 1758SOL    HW2 7172  12.071   8.651   6.592
 1759SOL     OW 7173   3.769   4.129   9.629
 1759SOL    HW1 7174   3.725   4.053   9.667
 1759SOL    HW2 7175   3.825   4.092   9.560
 1760SOL     OW 7176   9.905   3.287   5.771
 1760SOL    HW1 7177   9.817   3.311   5.799
 1760SOL    HW2 7178   9.956   3.367   5.779
 1761SOL     OW 7179   2.264   0.682   0.508
 1761SOL    HW1 7180   2.201   0.615   0.534
 1761SOL    HW2 7181   2.276   0.670   0.414
 1762SOL     OW 7182   2.669  13.316  14.153
 1762SOL    HW1 7183   2.720  13.393  14.128
 1762SOL    HW2 7184   2.603  13.308  14.084
 1763SOL     OW 7185   4.254   6.037   8.641
 1763SOL    HW1 7186   4.290   5.954   8.672
 1763SOL    HW2 7187   4.299   6.104   8.693
 1764SOL     OW 7188   1.541   4.636   2.231
 1764SOL    HW1 7189   1.536   4.706   2.166
 1764SOL    HW2 7190   1.634   4.614   2.235
 1765SOL     OW 7191   3.691  13.050   5.087
 1765SOL    HW1 7192   3.633  12.974   5.095
 1765SOL    HW2 7193   3.656  13.100   5.013
 1766SOL     OW 7194   3.236   8.277   7.847
 1766SOL    HW1 7195   3.318   8.307   7.806
 1766SOL    HW2 7196   3.168   8.332   7.809
 1767SOL     OW 7197  13.572   1.052   8.642
 1767SOL    HW1 7198  13.609   0.983   8.698
 1767SOL    HW2 7199  13.490   1.015   8.610
 1768SOL     OW 7200   2.551  13.204   3.071
 1768SOL    HW1 7201   2.551  13.289   3.115
 1768SOL    HW2 7202   2.514  13.222   2.984
 1769SOL     OW 7203  11.601   3.913   3.165
 1769SOL    HW1 7204  11.543   3.969   3.217
 1769SOL    HW2 7205  11.667   3.972   3.130
 1770SOL     OW 7206   4.288   8.100   1.912
 1770SOL    HW1 7207   4.213   8.043   1.930
 1770SOL    HW2 7208   4.341   8.096   1.991
 1771SOL     OW 7209   8.164   3.389   8.390
 1771SOL    HW1 7210   8.086   3.340   8.363
 1771SOL    HW2 7211   8.237   3.331   8.368
 1772SOL     OW 7212   2.449   3.211   7.428
 1772SOL    HW1 7213   2.536   3.194   7.393
 1772SOL    HW2 7214   2.396   3.137   7.398
 1773SOL     OW 7215   5.251   5.534   3.961
 1773SOL    HW1 7216   5.183   5.598   3.978
 1773SOL    HW2 7217   5.281   5.508   4.048
 1774SOL     OW 7218   8.609   7.182  11.056
 1774SOL    HW1 7219   8.530   7.212  11.011
 1774SOL    HW2 7220   8.658   7.135  10.989
 1775SOL     OW 7221   3.918  11.899   8.311
 1775SOL    HW1 7222   3.939  11.807   8.300
 1775SOL    HW2 7223   3.834  11.900   8.357
 1776SOL     OW 7224  10.229   8.435   1.821
 1776SOL    HW1 7225  10.268   8.350   1.801
 1776SOL    HW2 7226  10.277   8.497   1.766
 1777SOL     OW 7227   2.729   9.107   5.071
 1777SOL    HW1 7228   2.695   9.149   5.150
 1777SOL    HW2 7229   2.697   9.017   5.075
 1778SOL     OW 7230  13.186   2.979   0.523
 1778SOL    HW1 7231  13.236   2.958   0.602
 1778SOL    HW2 7232  13.118   2.912   0.518
 1779SOL     OW 7233  10.194  10.870   4.136
 1779SOL    HW1 7234  10.151  10.879   4.221
 1779SOL    HW2 7235  10.214  10.959   4.109
 1780SOL     OW 7236  10.282   4.206  13.767
 1780SOL    HW1 7237  10.323   4.291  13.747
 1780SOL    HW2 7238  10.188   4.225  13.769
 1781SOL     OW 7239  12.238   0.082   6.329
 1781SOL    HW1 7240  12.324   0.041   6.330
 1781SOL    HW2 7241  12.251   0.164   6.378
 1782SOL     OW 7242  13.776  13.324   4.829
 1782SOL    HW1 7243  13.697  13.349   4.877
 1782SOL    HW2 7244  13.813  13.407   4.798
 1783SOL     OW 7245   3.038   8.015   4.055
 1783SOL    HW1 7246   3.029   7.966   4.136
 1783SOL    HW2 7247   2.988   8.096   4.070
 1784SOL     OW 7248   0.983  13.947  11.855
 1784SOL    HW1 7249   0.999  14.016  11.790
 1784SOL    HW2 7250   1.068  13.933  11.897
 1785SOL     OW 7251   7.626   1.578   9.683
 1785SOL    HW1 7252   7.669   1.663   9.690
 1785SOL    HW2 7253   7.545   1.588   9.733
 1786SOL     OW 7254   2.029   2.425   5.570
 1786SOL    HW1 7255   2.109   2.464   5.536
 1786SOL    HW2 7256   2.057   2.342   5.609
 1787SOL     OW 7257   6.704  11.296   6.080
 1787SOL    HW1 7258   6.631  11.259   6.131
 1787SOL    HW2 7259   6.668  11.309   5.993
 1788SOL     OW 7260  10.498   3.479   2.363
 1788SOL    HW1 7261  10.446   3.558   2.370
 1788SOL    HW2 7262  10.580   3.499   2.408
 1789SOL     OW 7263   1.840   2.436   3.839
 1789SOL    HW1 7264   1.802   2.386   3.767
 1789SOL    HW2 7265   1.916   2.481   3.800
 1790SOL     OW 7266  11.881  10.836   6.274
 1790SOL    HW1 7267  11.931  10.918   6.265
 1790SOL    HW2 7268  11.902  10.786   6.195
 1791SOL     OW 7269  14.734   9.302   0.871
 1791SOL    HW1 7270  14.746   9.225   0.815
 1791SOL    HW2 7271  14.724   9.267   0.959
 1792SOL     OW 7272   0.977   9.547  14.218
 1792SOL    HW1 7273   1.050   9.609  14.216
 1792SOL    HW2 7274   0.990   9.497  14.299
 1793SOL     OW 7275   2.994   3.135  13.611
 1793SOL    HW1 7276   2.941   3.121  13.690
 1793SOL    HW2 7277   3.075   3.175  13.643
 1794SOL     OW 7278   4.397   0.838   0.406
 1794SOL    HW1 7279   4.339   0.777   0.452
 1794SOL    HW2 7280   4.351   0.921   0.407
 1795SOL     OW 7281  14.241  12.205   6.260
 1795SOL    HW1 7282  14.296  12.214   6.183
 1795SOL    HW2 7283  14.184  12.283   6.258
 1796SOL     OW 7284   2.857  13.525  14.029
 1796SOL    HW1 7285   2.951  13.543  14.027
 1796SOL    HW2 7286   2.817  13.594  13.976
 1797SOL     OW 7287  14.229   8.089   8.302
 1797SOL    HW1 7288  14.313   8.068   8.344
 1797SOL    HW2 7289  14.200   8.168   8.347
 1798SOL     OW 7290   6.799   3.863  12.282
 1798SOL    HW1 7291   6.720   3.810  12.277
 1798SOL    HW2 7292   6.782   3.925  12.353
 1799SOL     OW 7293   3.978  10.853   1.603
 1799SOL    HW1 7294   3.968  10.778   1.545
 1799SOL    HW2 7295   3.944  10.927   1.552
 1800SOL     OW 7296  14.639  12.652   2.039
 1800SOL    HW1 7297  14.568  12.692   1.990
 1800SOL    HW2 7298  14.703  12.627   1.972
 1801SOL     OW 7299  14.602   2.745  14.029
 1801SOL    HW1 7300  14.616   2.786  13.944
 1801SOL    HW2 7301  14.554   2.664  14.010
 1802SOL     OW 7302   1.838   5.871   3.278
 1802SOL    HW1 7303   1.855   5.960   3.247
 1802SOL    HW2 7304   1.869   5.815   3.207
 1803SOL     OW 7305   8.122   1.602   0.572
 1803SOL    HW1 7306   8.038   1.575   0.609
 1803SOL    HW2 7307   8.108   1.603   0.477
 1804SOL     OW 7308  14.691   9.860   3.660
 1804SOL    HW1 7309  14.635   9.827   3.590
 1804SOL    HW2 7310  14.761   9.907   3.614
 1805SOL     OW 7311  10.921   8.636   1.230
 1805SOL    HW1 7312  10.915   8.573   1.158
 1805SOL    HW2 7313  10.959   8.586   1.302
 1806SOL     OW 7314  13.426   3.299   5.975
 1806SOL    HW1 7315  13.488   3.324   6.043
 1806SOL    HW2 7316  13.367   3.374   5.967
 1807SOL     OW 7317   2.635  10.499   9.837
 1807SOL    HW1 7318   2.709  10.560   9.835
 1807SOL    HW2 7319   2.558  10.556   9.838
 1808SOL     OW 7320   1.398   4.947   7.901
 1808SOL    HW1 7321   1.407   5.016   7.835
 1808SOL    HW2 7322   1.336   4.886   7.863
 1809SOL     OW 7323   3.383  10.319   2.669
 1809SOL    HW1 7324   3.305  10.279   2.707
 1809SOL    HW2 7325   3.419  10.252   2.611
 1810SOL     OW 7326   4.617   4.046   0.131
 1810SOL    HW1 7327   4.533   4.001   0.143
 1810SOL    HW2 7328   4.605   4.097   0.051
 1811SOL     OW 7329   1.724   3.545   6.330
 1811SOL    HW1 7330   1.680   3.629   6.342
 1811SOL    HW2 7331   1.795   3.563   6.269
 1812SOL     OW 7332  12.263   5.583  10.815
 1812SOL    HW1 7333  12.274   5.502  10.865
 1812SOL    HW2 7334  12.281   5.653  10.878
 1813SOL     OW 7335   7.262   9.745  12.229
 1813SOL    HW1 7336   7.178   9.776  12.193
 1813SOL    HW2 7337   7.322   9.747  12.155
 1814SOL     OW 7338   0.589   0.561   1.857
 1814SOL    HW1 7339   0.675   0.601   1.851
 1814SOL    HW2 7340   0.606   0.470   1.880
 1815SOL     OW 7341  10.856   2.065  11.745
 1815SOL    HW1 7342  10.879   2.158  11.752
 1815SOL    HW2 7343  10.780   2.055  11.803
 1816SOL     OW 7344   4.682   1.310  10.940
 1816SOL    HW1 7345   4.710   1.232  10.893
 1816SOL    HW2 7346   4.647   1.368  10.873
 1817SOL     OW 7347   9.995  11.858   0.883
 1817SOL    HW1 7348  10.031  11.947   0.883
 1817SOL    HW2 7349  10.027  11.820   0.965
 1818SOL     OW 7350  13.249   2.509   7.153
 1818SOL    HW1 7351  13.189   2.475   7.087
 1818SOL    HW2 7352  13.306   2.435   7.174
 1819SOL     OW 7353   5.846   2.670  10.188
 1819SOL    HW1 7354   5.878   2.686  10.277
 1819SOL    HW2 7355   5.751   2.677  10.196
 1820SOL     OW 7356   2.394   4.049   0.755
 1820SOL    HW1 7357   2.408   4.054   0.849
 1820SOL    HW2 7358   2.469   4.094   0.717
 1821SOL     OW 7359  14.341   5.184  11.034
 1821SOL    HW1 7360  14.398   5.126  11.084
 1821SOL    HW2 7361  14.377   5.271  11.049
 1822SOL     OW 7362   1.751   3.146  11.160
 1822SOL    HW1 7363   1.696   3.075  11.192
 1822SOL    HW2 7364   1.770   3.199  11.237
 1823SOL     OW 7365   1.801   8.765   6.563
 1823SOL    HW1 7366   1.769   8.676   6.573
 1823SOL    HW2 7367   1.724   8.820   6.575
 1824SOL     OW 7368  14.462  13.320   7.063
 1824SOL    HW1 7369  14.428  13.328   7.152
 1824SOL    HW2 7370  14.557  13.321   7.074
 1825SOL     OW 7371  11.787  12.300   9.010
 1825SOL    HW1 7372  11.719  12.356   9.047
 1825SOL    HW2 7373  11.769  12.299   8.916
 1826SOL     OW 7374  10.811  10.878   6.217
 1826SOL    HW1 7375  10.837  10.798   6.171
 1826SOL    HW2 7376  10.839  10.864   6.308
 1827SOL     OW 7377  13.230  10.944   9.940
 1827SOL    HW1 7378  13.154  10.886   9.942
 1827SOL    HW2 7379  13.219  11.000  10.017
 1828SOL     OW 7380   0.332   4.543   9.986
 1828SOL    HW1 7381   0.268   4.473  10.001
 1828SOL    HW2 7382   0.413   4.497   9.966
 1829SOL     OW 7383  13.890   1.818   6.162
 1829SOL    HW1 7384  13.845   1.810   6.077
 1829SOL    HW2 7385  13.825   1.856   6.220
 1830SOL     OW 7386   0.285   0.975   0.882
 1830SOL    HW1 7387   0.221   0.906   0.902
 1830SOL    HW2 7388   0.326   0.994   0.967
 1831SOL     OW 7389  13.670   7.201   5.435
 1831SOL    HW1 7390  13.602   7.148   5.393
 1831SOL    HW2 7391  13.699   7.261   5.367
 1832SOL     OW 7392  11.640   7.635  11.880
 1832SOL    HW1 7393  11.725   7.601  11.853
 1832SOL    HW2 7394  11.583   7.558  11.886
 1833SOL     OW 7395   6.650   9.491  10.084
 1833SOL    HW1 7396   6.567   9.483  10.131
 1833SOL    HW2 7397   6.659   9.408  10.038
 1834SOL     OW 7398  14.507   7.109  14.823
 1834SOL    HW1 7399  14.415   7.124  14.848
 1834SOL    HW2 7400  14.547   7.196  14.827
 1835SOL     OW 7401   8.105  14.363   3.317
 1835SOL    HW1 7402   8.152  14.420   3.377
 1835SOL    HW2 7403   8.076  14.290   3.371
 1836SOL     OW 7404   9.328   1.953  11.503
 1836SOL    HW1 7405   9.348   1.872  11.551
 1836SOL    HW2 7406   9.368   2.022  11.556
 1837SOL     OW 7407   8.156  14.129  12.593
 1837SOL    HW1 7408   8.116  14.050  12.631
 1837SOL    HW2 7409   8.118  14.135  12.505
 1838SOL     OW 7410   8.510   5.216  13.506
 1838SOL    HW1 7411   8.458   5.294  13.526
 1838SOL    HW2 7412   8.488   5.154  13.576
 1839SOL     OW 7413   8.553  13.878  13.782
 1839SOL    HW1 7414   8.502  13.949  13.743
 1839SOL    HW2 7415   8.619  13.922  13.835
 1840SOL     OW 7416  14.585  12.034  13.016
 1840SOL    HW1 7417  14.583  12.070  12.928
 1840SOL    HW2 7418  14.498  11.996  13.028
 1841SOL     OW 7419  13.590   4.688  13.295
 1841SOL    HW1 7420  13.596   4.769  13.346
 1841SOL    HW2 7421  13.593   4.619  13.360
 1842SOL     OW 7422   5.789  10.840   6.840
 1842SOL    HW1 7423   5.786  10.798   6.926
 1842SOL    HW2 7424   5.705  10.818   6.800
 1843SOL     OW 7425   9.988   3.642   7.189
 1843SOL    HW1 7426   9.933   3.675   7.118
 1843SOL    HW2 7427   9.967   3.549   7.195
 1844SOL     OW 7428  12.867  14.317   7.282
 1844SOL    HW1 7429  12.912  14.382   7.336
 1844SOL    HW2 7430  12.797  14.284   7.338
 1845SOL     OW 7431   0.188   2.516  13.236
 1845SOL    HW1 7432   0.197   2.428  13.273
 1845SOL    HW2 7433   0.167   2.572  13.311
 1846SOL     OW 7434   4.409   7.239   1.501
 1846SOL    HW1 7435   4.348   7.292   1.554
 1846SOL    HW2 7436   4.424   7.291   1.423
 1847SOL     OW 7437   6.261   2.737  11.452
 1847SOL    HW1 7438   6.325   2.798  11.416
 1847SOL    HW2 7439   6.237   2.774  11.536
 1848SOL     OW 7440   6.047  14.238   9.775
 1848SOL    HW1 7441   6.040  14.189   9.856
 1848SOL    HW2 7442   6.058  14.171   9.707
 1849SOL     OW 7443   6.775   0.070  14.822
 1849SOL    HW1 7444   6.755   0.134   0.017
 1849SOL    HW2 7445   6.806  14.865  14.870
 1850SOL     OW 7446   3.237   9.397  10.298
 1850SOL    HW1 7447   3.169   9.410  10.232
 1850SOL    HW2 7448   3.289   9.324  10.265
 1851SOL     OW 7449   5.529  11.417   2.363
 1851SOL    HW1 7450   5.537  11.322   2.364
 1851SOL    HW2 7451   5.578  11.445   2.441
 1852SOL     OW 7452  14.279  11.342   0.778
 1852SOL    HW1 7453  14.251  11.378   0.862
 1852SOL    HW2 7454  14.334  11.410   0.740
 1853SOL     OW 7455   0.377   6.004  10.936
 1853SOL    HW1 7456   0.425   6.061  10.996
 1853SOL    HW2 7457   0.419   5.918  10.947
 1854SOL     OW 7458  10.420   6.721   3.282
 1854SOL    HW1 7459  10.326   6.734   3.285
 1854SOL    HW2 7460  10.454   6.775   3.353
 1855SOL     OW 7461   4.158   7.542   7.358
 1855SOL    HW1 7462   4.074   7.563   7.317
 1855SOL    HW2 7463   4.135   7.501   7.441
 1856SOL     OW 7464   8.140   1.773   6.569
 1856SOL    HW1 7465   8.226   1.769   6.611
 1856SOL    HW2 7466   8.151   1.835   6.497
 1857SOL     OW 7467  14.595  11.300  13.696
 1857SOL    HW1 7468  14.670  11.241  13.686
 1857SOL    HW2 7469  14.529  11.265  13.636
 1858SOL     OW 7470  14.764   9.223   3.600
 1858SOL    HW1 7471  14.722   9.289   3.656
 1858SOL    HW2 7472  14.816   9.274   3.538
 1859SOL     OW 7473   8.946   8.026   6.790
 1859SOL    HW1 7474   9.034   8.000   6.817
 1859SOL    HW2 7475   8.959   8.108   6.743
 1860SOL     OW 7476   7.083   2.466   2.430
 1860SOL    HW1 7477   7.174   2.452   2.401
 1860SOL    HW2 7478   7.083   2.554   2.468
 1861SOL     OW 7479  14.054   7.906   6.625
 1861SOL    HW1 7480  13.963   7.910   6.654
 1861SOL    HW2 7481  14.068   7.813   6.605
 1862SOL     OW 7482  11.193  10.828   1.986
 1862SOL    HW1 7483  11.173  10.922   1.990
 1862SOL    HW2 7484  11.134  10.794   1.919
 1863SOL     OW 7485   5.912   7.647   1.160
 1863SOL    HW1 7486   5.843   7.587   1.133
 1863SOL    HW2 7487   5.918   7.635   1.255
 1864SOL     OW 7488   8.137  13.478   4.198
 1864SOL    HW1 7489   8.079  13.402   4.194
 1864SOL    HW2 7490   8.225  13.442   4.197
 1865SOL     OW 7491   8.020   3.399   6.745
 1865SOL    HW1 7492   8.070   3.481   6.738
 1865SOL    HW2 7493   7.929   3.427   6.742
 1866SOL     OW 7494   8.935   5.896  13.293
 1866SOL    HW1 7495   8.885   5.963  13.339
 1866SOL    HW2 7496   9.026   5.913  13.317
 1867SOL     OW 7497   5.779   9.551   6.882
 1867SOL    HW1 7498   5.828   9.627   6.853
 1867SOL    HW2 7499   5.847   9.488   6.909
 1868SOL     OW 7500   5.517   8.757   0.164
 1868SOL    HW1 7501   5.520   8.830   0.102
 1868SOL    HW2 7502   5.458   8.787   0.233
 1869SOL     OW 7503   9.608   7.831  13.875
 1869SOL    HW1 7504   9.650   7.749  13.850
 1869SOL    HW2 7505   9.590   7.875  13.791
 1870SOL     OW 7506   8.197  12.119   4.744
 1870SOL    HW1 7507   8.122  12.070   4.778
 1870SOL    HW2 7508   8.194  12.204   4.789
 1871SOL     OW 7509  10.099   6.868   1.117
 1871SOL    HW1 7510  10.139   6.917   1.045
 1871SOL    HW2 7511  10.040   6.930   1.159
 1872SOL     OW 7512   4.548  14.744   2.340
 1872SOL    HW1 7513   4.599  14.666   2.317
 1872SOL    HW2 7514   4.467  14.710   2.377
 1873SOL     OW 7515  13.642  10.964   6.334
 1873SOL    HW1 7516  13.589  10.979   6.411
 1873SOL    HW2 7517  13.724  10.929   6.368
 1874SOL     OW 7518  11.507   8.579   2.694
 1874SOL    HW1 7519  11.602   8.568   2.689
 1874SOL    HW2 7520  11.490   8.658   2.641
 1875SOL     OW 7521   0.629   8.065   5.716
 1875SOL    HW1 7522   0.626   8.159   5.729
 1875SOL    HW2 7523   0.645   8.029   5.803
 1876SOL     OW 7524   1.264   2.782   3.702
 1876SOL    HW1 7525   1.184   2.744   3.739
 1876SOL    HW2 7526   1.312   2.815   3.778
 1877SOL     OW 7527   4.365   6.261  11.816
 1877SOL    HW1 7528   4.299   6.203  11.854
 1877SOL    HW2 7529   4.315   6.327  11.768
 1878SOL     OW 7530   2.631   1.789  10.383
 1878SOL    HW1 7531   2.661   1.815  10.296
 1878SOL    HW2 7532   2.545   1.750  10.367
 1879SOL     OW 7533   6.525  10.708  10.464
 1879SOL    HW1 7534   6.587  10.772  10.499
 1879SOL    HW2 7535   6.513  10.733  10.373
 1880SOL     OW 7536   0.232  13.741   3.695
 1880SOL    HW1 7537   0.301  13.722   3.759
 1880SOL    HW2 7538   0.270  13.717   3.611
 1881SOL     OW 7539   5.364   0.575   8.082
 1881SOL    HW1 7540   5.327   0.573   7.994
 1881SOL    HW2 7541   5.455   0.602   8.069
 1882SOL     OW 7542   7.849   5.839  10.501
 1882SOL    HW1 7543   7.895   5.835  10.584
 1882SOL    HW2 7544   7.917   5.824  10.435
 1883SOL     OW 7545  10.191   0.260   9.811
 1883SOL    HW1 7546  10.191   0.262   9.907
 1883SOL    HW2 7547  10.258   0.195   9.789
 1884SOL     OW 7548   5.085   6.148   3.700
 1884SOL    HW1 7549   5.056   6.122   3.788
 1884SOL    HW2 7550   5.004   6.176   3.656
 1885SOL     OW 7551  12.802   6.506   8.660
 1885SOL    HW1 7552  12.821   6.440   8.727
 1885SOL    HW2 7553  12.861   6.483   8.588
 1886SOL     OW 7554   5.480   9.937  10.021
 1886SOL    HW1 7555   5.439  10.010   9.973
 1886SOL    HW2 7556   5.422   9.863  10.004
 1887SOL     OW 7557  10.756   4.004  13.537
 1887SOL    HW1 7558  10.743   3.977  13.446
 1887SOL    HW2 7559  10.668   4.001  13.575
 1888SOL     OW 7560   9.112  12.401   0.424
 1888SOL    HW1 7561   9.023  12.404   0.462
 1888SOL    HW2 7562   9.105  12.451   0.343
 1889SOL     OW 7563   3.693  13.411   3.374
 1889SOL    HW1 7564   3.732  13.384   3.456
 1889SOL    HW2 7565   3.767  13.420   3.314
 1890SOL     OW 7566   0.644   2.990   0.057
 1890SOL    HW1 7567   0.596   3.070   0.035
 1890SOL    HW2 7568   0.721   3.021   0.104
 1891SOL     OW 7569  10.245  10.461   5.676
 1891SOL    HW1 7570  10.295  10.396   5.726
 1891SOL    HW2 7571  10.236  10.536   5.736
 1892SOL     OW 7572  13.385   1.000   8.030
 1892SOL    HW1 7573  13.446   0.931   8.004
 1892SOL    HW2 7574  13.315   0.955   8.076
 1893SOL     OW 7575  14.212  14.025   1.347
 1893SOL    HW1 7576  14.212  14.066   1.434
 1893SOL    HW2 7577  14.144  13.958   1.352
 1894SOL     OW 7578   8.428   4.491   7.757
 1894SOL    HW1 7579   8.347   4.513   7.802
 1894SOL    HW2 7580   8.475   4.574   7.748
 1895SOL     OW 7581  10.002  12.669   2.154
 1895SOL    HW1 7582   9.963  12.659   2.241
 1895SOL    HW2 7583  10.080  12.613   2.156
 1896SOL     OW 7584   6.364   4.822   9.957
 1896SOL    HW1 7585   6.452   4.802   9.990
 1896SOL    HW2 7586   6.318   4.857  10.033
 1897SOL     OW 7587  13.006  11.212   2.252
 1897SOL    HW1 7588  13.096  11.231   2.226
 1897SOL    HW2 7589  12.959  11.295   2.243
 1898SOL     OW 7590   0.265   5.363   7.524
 1898SOL    HW1 7591   0.182   5.325   7.552
 1898SOL    HW2 7592   0.326   5.290   7.524
 1899SOL     OW 7593  10.751   9.347  13.122
 1899SOL    HW1 7594  10.812   9.307  13.183
 1899SOL    HW2 7595  10.801   9.417  13.080
 1900SOL     OW 7596   0.340   5.895   1.534
 1900SOL    HW1 7597   0.285   5.920   1.607
 1900SOL    HW2 7598   0.428   5.923   1.559
 1901SOL     OW 7599   2.526   6.585   3.577
 1901SOL    HW1 7600   2.584   6.626   3.513
 1901SOL    HW2 7601   2.541   6.635   3.657
 1902SOL     OW 7602  14.778   3.211   7.332
 1902SOL    HW1 7603  14.862   3.233   7.290
 1902SOL    HW2 7604  14.801   3.147   7.399
 1903SOL     OW 7605  14.027   4.069   1.895
 1903SOL    HW1 7606  13.952   4.042   1.948
 1903SOL    HW2 7607  13.989   4.094   1.811
 1904SOL     OW 7608   6.334   2.674   9.007
 1904SOL    HW1 7609   6.248   2.648   8.974
 1904SOL    HW2 7610   6.389   2.679   8.928
 1905SOL     OW 7611  11.778   4.778   5.952
 1905SOL    HW1 7612  11.689   4.763   5.985
 1905SOL    HW2 7613  11.771   4.763   5.857
 1906SOL     OW 7614   9.435   1.573  11.373
 1906SOL    HW1 7615   9.440   1.538  11.462
 1906SOL    HW2 7616   9.417   1.496  11.319
 1907SOL     OW 7617   9.930  12.093  10.506
 1907SOL    HW1 7618   9.875  12.080  10.583
 1907SOL    HW2 7619  10.015  12.119  10.542
 1908SOL     OW 7620   5.091   1.266  11.682
 1908SOL    HW1 7621   5.083   1.258  11.587
 1908SOL    HW2 7622   5.185   1.263  11.698
 1909SOL     OW 7623   7.255   8.158   7.345
 1909SOL    HW1 7624   7.287   8.068   7.344
 1909SOL    HW2 7625   7.267   8.187   7.436
 1910SOL     OW 7626   9.504  14.852   4.090
 1910SOL    HW1 7627   9.459   0.059   4.061
 1910SOL    HW2 7628   9.458  14.781   4.045
 1911SOL     OW 7629  14.170   6.886   3.672
 1911SOL    HW1 7630  14.217   6.834   3.607
 1911SOL    HW2 7631  14.221   6.967   3.679
 1912SOL     OW 7632   3.452   5.023   0.248
 1912SOL    HW1 7633   3.483   4.984   0.166
 1912SOL    HW2 7634   3.373   4.974   0.270
 1913SOL     OW 7635   5.850  14.048  10.580
 1913SOL    HW1 7636   5.855  13.968  10.528
 1913SOL    HW2 7637   5.921  14.039  10.644
 1914SOL     OW 7638  13.628   5.184  11.637
 1914SOL    HW1 7639  13.699   5.245  11.616
 1914SOL    HW2 7640  13.607   5.203  11.729
 1915SOL     OW 7641   0.618  13.367   6.570
 1915SOL    HW1 7642   0.670  13.446   6.561
 1915SOL    HW2 7643   0.577  13.375   6.657
 1916SOL     OW 7644   9.866   9.743   3.576
 1916SOL    HW1 7645   9.786   9.794   3.587
 1916SOL    HW2 7646   9.914   9.787   3.506
 1917SOL     OW 7647   4.598   0.795   5.575
 1917SOL    HW1 7648   4.568   0.795   5.666
 1917SOL    HW2 7649   4.524   0.760   5.525
 1918SOL     OW 7650   8.445   4.036   5.074
 1918SOL    HW1 7651   8.497   4.115   5.090
 1918SOL    HW2 7652   8.365   4.068   5.032
 1919SOL     OW 7653  10.364  12.877   1.123
 1919SOL    HW1 7654  10.393  12.935   1.051
 1919SOL    HW2 7655  10.444  12.859   1.172
 1920SOL     OW 7656   6.804   3.731  13.828
 1920SOL    HW1 7657   6.866   3.764  13.763
 1920SOL    HW2 7658   6.730   3.698  13.777
 1921SOL     OW 7659  12.368   0.863  14.679
 1921SOL    HW1 7660  12.406   0.865  14.767
 1921SOL    HW2 7661  12.407   0.938  14.634
 1922SOL     OW 7662   6.720  11.662  13.081
 1922SOL    HW1 7663   6.669  11.741  13.103
 1922SOL    HW2 7664   6.810  11.686  13.103
 1923SOL     OW 7665   1.639  12.202   3.505
 1923SOL    HW1 7666   1.654  12.107   3.500
 1923SOL    HW2 7667   1.687  12.230   3.583
 1924SOL     OW 7668   1.103   9.218   4.644
 1924SOL    HW1 7669   1.173   9.273   4.608
 1924SOL    HW2 7670   1.134   9.193   4.731
 1925SOL     OW 7671  12.009   6.457   1.357
 1925SOL    HW1 7672  11.967   6.377   1.386
 1925SOL    HW2 7673  11.939   6.522   1.354
 1926SOL     OW 7674   8.004  13.912   7.681
 1926SOL    HW1 7675   8.049  13.832   7.653
 1926SOL    HW2 7676   7.982  13.957   7.599
 1927SOL     OW 7677   6.030   1.505   1.353
 1927SOL    HW1 7678   6.108   1.505   1.410
 1927SOL    HW2 7679   5.969   1.445   1.396
 1928SOL     OW 7680   2.531  13.539   5.053
 1928SOL    HW1 7681   2.511  13.462   5.105
 1928SOL    HW2 7682   2.536  13.507   4.963
 1929SOL     OW 7683   8.138   8.800  10.670
 1929SOL    HW1 7684   8.141   8.771  10.579
 1929SOL    HW2 7685   8.054   8.845  10.678
 1930SOL     OW 7686  13.609   6.220  13.079
 1930SOL    HW1 7687  13.552   6.253  13.148
 1930SOL    HW2 7688  13.670   6.162  13.124
 1931SOL     OW 7689  13.728   2.309   8.910
 1931SOL    HW1 7690  13.789   2.320   8.983
 1931SOL    HW2 7691  13.744   2.220   8.878
 1932SOL     OW 7692   7.022   7.827   3.762
 1932SOL    HW1 7693   7.023   7.734   3.786
 1932SOL    HW2 7694   6.958   7.832   3.690
 1933SOL     OW 7695  12.136   1.099   4.995
 1933SOL    HW1 7696  12.142   1.056   4.909
 1933SOL    HW2 7697  12.222   1.084   5.035
 1934SOL     OW 7698  11.965  11.122   9.448
 1934SOL    HW1 7699  11.888  11.179   9.446
 1934SOL    HW2 7700  11.970  11.086   9.360
 1935SOL     OW 7701   6.727   6.432   0.766
 1935SOL    HW1 7702   6.761   6.395   0.684
 1935SOL    HW2 7703   6.804   6.439   0.822
 1936SOL     OW 7704   4.114   2.083   7.259
 1936SOL    HW1 7705   4.133   2.156   7.318
 1936SOL    HW2 7706   4.178   2.092   7.188
 1937SOL     OW 7707   4.128   4.866   7.210
 1937SOL    HW1 7708   4.193   4.797   7.222
 1937SOL    HW2 7709   4.061   4.826   7.154
 1938SOL     OW 7710  11.022  11.578  10.355
 1938SOL    HW1 7711  10.933  11.542  10.348
 1938SOL    HW2 7712  11.014  11.650  10.418
 1939SOL     OW 7713   3.688   6.818   5.147
 1939SOL    HW1 7714   3.765   6.862   5.111
 1939SOL    HW2 7715   3.624   6.888   5.160
 1940SOL     OW 7716  10.241   5.288  13.999
 1940SOL    HW1 7717  10.318   5.232  13.990
 1940SOL    HW2 7718  10.189   5.248  14.068
 1941SOL     OW 7719   3.329   3.309   5.101
 1941SOL    HW1 7720   3.393   3.366   5.145
 1941SOL    HW2 7721   3.361   3.302   5.011
 1942SOL     OW 7722   5.075  12.382   4.260
 1942SOL    HW1 7723   5.052  12.380   4.353
 1942SOL    HW2 7724   5.116  12.467   4.247
 1943SOL     OW 7725  10.710   6.949   6.870
 1943SOL    HW1 7726  10.617   6.955   6.891
 1943SOL    HW2 7727  10.715   6.887   6.798
 1944SOL     OW 7728  12.199   4.142   1.698
 1944SOL    HW1 7729  12.115   4.116   1.737
 1944SOL    HW2 7730  12.195   4.238   1.697
 1945SOL     OW 7731   1.502   4.343  10.459
 1945SOL    HW1 7732   1.540   4.391  10.386
 1945SOL    HW2 7733   1.576   4.295  10.497
 1946SOL     OW 7734   3.913   0.357   4.881
 1946SOL    HW1 7735   3.833   0.336   4.930
 1946SOL    HW2 7736   3.942   0.441   4.917
 1947SOL     OW 7737  10.815  13.790  13.963
 1947SOL    HW1 7738  10.781  13.876  13.938
 1947SOL    HW2 7739  10.744  13.748  14.011
 1948SOL     OW 7740   5.896   3.482   1.073
 1948SOL    HW1 7741   5.956   3.502   1.144
 1948SOL    HW2 7742   5.907   3.389   1.057
 1949SOL     OW 7743   2.821   5.918   5.849
 1949SOL    HW1 7744   2.892   5.856   5.832
 1949SOL    HW2 7745   2.854   5.974   5.919
 1950SOL     OW 7746   2.737   8.918  12.937
 1950SOL    HW1 7747   2.803   8.855  12.962
 1950SOL    HW2 7748   2.678   8.924  13.012
 1951SOL     OW 7749   9.065   2.694   4.452
 1951SOL    HW1 7750   9.131   2.631   4.422
 1951SOL    HW2 7751   9.109   2.743   4.521
 1952SOL     OW 7752   0.085   7.705   0.447
 1952SOL    HW1 7753   0.058   7.655   0.370
 1952SOL    HW2 7754   0.109   7.791   0.413
 1953SOL     OW 7755   4.412  12.402   1.540
 1953SOL    HW1 7756   4.368  12.477   1.500
 1953SOL    HW2 7757   4.499  12.401   1.501
 1954SOL     OW 7758   2.662  12.914  10.592
 1954SOL    HW1 7759   2.708  12.837  10.558
 1954SOL    HW2 7760   2.713  12.988  10.561
 1955SOL     OW 7761  10.294   7.089  13.568
 1955SOL    HW1 7762  10.200   7.105  13.555
 1955SOL    HW2 7763  10.297   7.021  13.635
 1956SOL     OW 7764  12.168   2.205   3.700
 1956SOL    HW1 7765  12.236   2.204   3.767
 1956SOL    HW2 7766  12.086   2.198   3.748
 1957SOL     OW 7767  14.179   2.638   7.354
 1957SOL    HW1 7768  14.172   2.707   7.420
 1957SOL    HW2 7769  14.193   2.558   7.405
 1958SOL     OW 7770  11.360   3.724   5.919
 1958SOL    HW1 7771  11.344   3.676   5.838
 1958SOL    HW2 7772  11.455   3.719   5.932
 1959SOL     OW 7773  13.572  14.101  10.150
 1959SOL    HW1 7774  13.537  14.189  10.161
 1959SOL    HW2 7775  13.665  14.109  10.175
 1960SOL     OW 7776   5.165  13.938   4.513
 1960SOL    HW1 7777   5.129  13.849   4.511
 1960SOL    HW2 7778   5.096  13.991   4.554
 1961SOL     OW 7779   1.889   2.746   5.604
 1961SOL    HW1 7780   1.925   2.712   5.523
 1961SOL    HW2 7781   1.864   2.669   5.655
 1962SOL     OW 7782   2.972   0.411  12.779
 1962SOL    HW1 7783   3.042   0.471  12.806
 1962SOL    HW2 7784   2.996   0.386  12.690
 1963SOL     OW 7785   6.328   6.809   5.701
 1963SOL    HW1 7786   6.392   6.794   5.771
 1963SOL    HW2 7787   6.378   6.852   5.631
 1964SOL     OW 7788   7.723  12.167   0.142
 1964SOL    HW1 7789   7.652  12.170   0.206
 1964SOL    HW2 7790   7.689  12.214   0.066
 1965SOL     OW 7791   2.787   5.220   6.491
 1965SOL    HW1 7792   2.787   5.170   6.572
 1965SOL    HW2 7793   2.701   5.262   6.489
 1966SOL     OW 7794   5.990   7.278  13.905
 1966SOL    HW1 7795   5.937   7.356  13.920
 1966SOL    HW2 7796   5.966   7.249  13.817
 1967SOL     OW 7797   7.049  13.760  10.092
 1967SOL    HW1 7798   7.079  13.817  10.163
 1967SOL    HW2 7799   7.030  13.820  10.019
 1968SOL     OW 7800  11.396   2.570  13.666
 1968SOL    HW1 7801  11.457   2.571  13.739
 1968SOL    HW2 7802  11.389   2.661  13.638
 1969SOL     OW 7803   9.046  11.947  12.318
 1969SOL    HW1 7804   9.005  11.946  12.405
 1969SOL    HW2 7805   9.132  11.908  12.332
 1970SOL     OW 7806  12.054   2.666  13.761
 1970SOL    HW1 7807  12.089   2.588  13.718
 1970SOL    HW2 7808  11.977   2.689  13.709
 1971SOL     OW 7809   2.974  11.051   3.080
 1971SOL    HW1 7810   3.014  11.045   2.994
 1971SOL    HW2 7811   2.906  11.118   3.070
 1972SOL     OW 7812  13.787   6.381   5.092
 1972SOL    HW1 7813  13.797   6.427   5.009
 1972SOL    HW2 7814  13.698   6.402   5.121
 1973SOL     OW 7815   4.886  11.514   1.280
 1973SOL    HW1 7816   4.847  11.569   1.212
 1973SOL    HW2 7817   4.972  11.491   1.245
 1974SOL     OW 7818   5.780  12.068  11.353
 1974SOL    HW1 7819   5.780  11.972  11.360
 1974SOL    HW2 7820   5.690  12.094  11.373
 1975SOL     OW 7821  13.710   0.125   3.469
 1975SOL    HW1 7822  13.774   0.139   3.400
 1975SOL    HW2 7823  13.674   0.038   3.450
 1976SOL     OW 7824  11.594   0.030   7.752
 1976SOL    HW1 7825  11.664  14.837   7.750
 1976SOL    HW2 7826  11.515  14.855   7.726
 1977SOL     OW 7827   7.063   2.169   2.691
 1977SOL    HW1 7828   7.135   2.231   2.681
 1977SOL    HW2 7829   7.012   2.178   2.611
 1978SOL     OW 7830   7.820   4.596   3.616
 1978SOL    HW1 7831   7.734   4.623   3.583
 1978SOL    HW2 7832   7.845   4.523   3.559
 1979SOL     OW 7833   1.092   6.513   1.211
 1979SOL    HW1 7834   1.010   6.470   1.236
 1979SOL    HW2 7835   1.129   6.543   1.293
 1980SOL     OW 7836   9.552   5.465  13.549
 1980SOL    HW1 7837   9.493   5.462  13.625
 1980SOL    HW2 7838   9.636   5.435  13.582
 1981SOL     OW 7839   3.879  12.697  11.616
 1981SOL    HW1 7840   3.897  12.740  11.533
 1981SOL    HW2 7841   3.792  12.729  11.642
 1982SOL     OW 7842  10.741   0.729   5.862
 1982SOL    HW1 7843  10.648   0.704   5.862
 1982SOL    HW2 7844  10.772   0.704   5.775
 1983SOL     OW 7845   7.138  10.342   1.291
 1983SOL    HW1 7846   7.201  10.314   1.357
 1983SOL    HW2 7847   7.101  10.261   1.257
 1984SOL     OW 7848   9.059  14.760   0.769
 1984SOL    HW1 7849   9.022  14.828   0.712
 1984SOL    HW2 7850   9.144  14.741   0.730
 1985SOL     OW 7851   0.339   7.568   3.010
 1985SOL    HW1 7852   0.350   7.662   3.022
 1985SOL    HW2 7853   0.416   7.540   2.960
 1986SOL     OW 7854   7.242   2.686  12.295
 1986SOL    HW1 7855   7.218   2.612  12.350
 1986SOL    HW2 7856   7.265   2.647  12.211
 1987SOL     OW 7857  13.279   0.075   2.689
 1987SOL    HW1 7858  13.289   0.166   2.659
 1987SOL    HW2 7859  13.252   0.027   2.611
 1988SOL     OW 7860   8.527   6.907   8.905
 1988SOL    HW1 7861   8.496   6.976   8.847
 1988SOL    HW2 7862   8.496   6.826   8.864
 1989SOL     OW 7863   4.550  10.318   8.393
 1989SOL    HW1 7864   4.573  10.359   8.309
 1989SOL    HW2 7865   4.525  10.390   8.449
 1990SOL     OW 7866   6.482  14.145  10.052
 1990SOL    HW1 7867   6.472  14.197   9.972
 1990SOL    HW2 7868   6.440  14.062  10.033
 1991SOL     OW 7869   2.924   2.390   9.144
 1991SOL    HW1 7870   2.974   2.420   9.068
 1991SOL    HW2 7871   2.950   2.299   9.157
 1992SOL     OW 7872  12.479   9.662  14.787
 1992SOL    HW1 7873  12.446   9.635   0.000
 1992SOL    HW2 7874  12.457   9.755  14.781
 1993SOL     OW 7875   4.649  12.876   2.331
 1993SOL    HW1 7876   4.705  12.854   2.257
 1993SOL    HW2 7877   4.573  12.818   2.323
 1994SOL     OW 7878   8.119   3.534   9.117
 1994SOL    HW1 7879   8.143   3.515   9.208
 1994SOL    HW2 7880   8.138   3.453   9.070
 1995SOL     OW 7881   1.727   6.978  11.886
 1995SOL    HW1 7882   1.779   7.025  11.821
 1995SOL    HW2 7883   1.660   7.042  11.913
 1996SOL     OW 7884  12.349  10.738  11.097
 1996SOL    HW1 7885  12.403  10.660  11.088
 1996SOL    HW2 7886  12.293  10.720  11.173
 1997SOL     OW 7887   4.106   1.589  14.626
 1997SOL    HW1 7888   4.140   1.503  14.649
 1997SOL    HW2 7889   4.169   1.623  14.562
 1998SOL     OW 7890   8.533   8.370   5.977
 1998SOL    HW1 7891   8.457   8.389   5.920
 1998SOL    HW2 7892   8.539   8.445   6.035
 1999SOL     OW 7893   7.604   4.820   8.723
 1999SOL    HW1 7894   7.542   4.832   8.650
 1999SOL    HW2 7895   7.586   4.731   8.755
 2000SOL     OW 7896  13.882  13.687   6.144
 2000SOL    HW1 7897  13.796  13.724   6.166
 2000SOL    HW2 7898  13.878  13.673   6.049
 2001SOL     OW 7899  12.524   2.662   2.662
 2001SOL    HW1 7900  12.488   2.580   2.628
 2001SOL    HW2 7901  12.507   2.726   2.593
 2002SOL     OW 7902  11.956  12.644  12.895
 2002SOL    HW1 7903  11.927  12.732  12.873
 2002SOL    HW2 7904  11.980  12.605  12.811
 2003SOL     OW 7905   6.476   1.693  10.009
 2003SOL    HW1 7906   6.530   1.767   9.981
 2003SOL    HW2 7907   6.522   1.657  10.085
 2004SOL     OW 7908   2.136  11.675  10.607
 2004SOL    HW1 7909   2.208  11.645  10.551
 2004SOL    HW2 7910   2.076  11.719  10.546
 2005SOL     OW 7911   0.673   8.517  12.020
 2005SOL    HW1 7912   0.656   8.481  12.107
 2005SOL    HW2 7913   0.761   8.554  12.027
 2006SOL     OW 7914   8.303   8.095  14.266
 2006SOL    HW1 7915   8.298   8.160  14.337
 2006SOL    HW2 7916   8.374   8.127  14.210
 2007SOL     OW 7917   8.030  10.369   5.715
 2007SOL    HW1 7918   8.029  10.401   5.805
 2007SOL    HW2 7919   8.118  10.333   5.703
 2008SOL     OW 7920   5.938  11.767   9.811
 2008SOL    HW1 7921   5.991  11.809   9.744
 2008SOL    HW2 7922   5.861  11.823   9.820
 2009SOL     OW 7923  10.619   9.238   5.256
 2009SOL    HW1 7924  10.653   9.200   5.336
 2009SOL    HW2 7925  10.559   9.171   5.221
 2010SOL     OW 7926  14.640  13.346   8.247
 2010SOL    HW1 7927  14.722  13.322   8.203
 2010SOL    HW2 7928  14.657  13.330   8.340
 2011SOL     OW 7929   3.677  10.586   7.830
 2011SOL    HW1 7930   3.679  10.512   7.770
 2011SOL    HW2 7931   3.599  10.571   7.885
 2012SOL     OW 7932   3.319   3.053   6.430
 2012SOL    HW1 7933   3.333   3.099   6.348
 2012SOL    HW2 7934   3.344   3.116   6.498
 2013SOL     OW 7935   2.614   6.563   8.954
 2013SOL    HW1 7936   2.629   6.539   8.862
 2013SOL    HW2 7937   2.524   6.596   8.955
 2014SOL     OW 7938  11.916   1.418  11.021
 2014SOL    HW1 7939  12.003   1.454  11.001
 2014SOL    HW2 7940  11.932   1.354  11.091
 2015SOL     OW 7941   4.455  11.610   7.561
 2015SOL    HW1 7942   4.363  11.631   7.546
 2015SOL    HW2 7943   4.481  11.665   7.634
 2016SOL     OW 7944   8.528  11.135   3.659
 2016SOL    HW1 7945   8.502  11.076   3.730
 2016SOL    HW2 7946   8.596  11.190   3.697
 2017SOL     OW 7947   9.512   6.743   5.837
 2017SOL    HW1 7948   9.579   6.786   5.783
 2017SOL    HW2 7949   9.557   6.721   5.918
 2018SOL     OW 7950   1.577  11.833  12.213
 2018SOL    HW1 7951   1.486  11.846  12.186
 2018SOL    HW2 7952   1.591  11.739  12.209
 2019SOL     OW 7953   7.873   2.204   5.049
 2019SOL    HW1 7954   7.882   2.129   5.108
 2019SOL    HW2 7955   7.823   2.268   5.098
 2020SOL     OW 7956  14.783  14.047  10.704
 2020SOL    HW1 7957  14.818  14.123  10.658
 2020SOL    HW2 7958  14.811  13.972  10.651
 2021SOL     OW 7959   6.450   1.737   8.778
 2021SOL    HW1 7960   6.384   1.670   8.757
 2021SOL    HW2 7961   6.441   1.751   8.872
 2022SOL     OW 7962   2.325   8.575   6.509
 2022SOL    HW1 7963   2.370   8.529   6.580
 2022SOL    HW2 7964   2.369   8.660   6.504
 2023SOL     OW 7965  10.001   6.093   1.957
 2023SOL    HW1 7966  10.087   6.056   1.938
 2023SOL    HW2 7967   9.957   6.095   1.872
 2024SOL     OW 7968  13.198   7.673   9.564
 2024SOL    HW1 7969  13.188   7.602   9.501
 2024SOL    HW2 7970  13.134   7.739   9.536
 2025SOL     OW 7971   8.317   8.030   6.510
 2025SOL    HW1 7972   8.301   8.009   6.418
 2025SOL    HW2 7973   8.352   7.950   6.548
 2026SOL     OW 7974   9.673   3.464  10.300
 2026SOL    HW1 7975   9.714   3.546  10.329
 2026SOL    HW2 7976   9.700   3.456  10.208
 2027SOL     OW 7977   6.591  13.968   3.593
 2027SOL    HW1 7978   6.539  14.001   3.520
 2027SOL    HW2 7979   6.617  13.880   3.567
 2028SOL     OW 7980   5.484  11.294  12.632
 2028SOL    HW1 7981   5.480  11.279  12.538
 2028SOL    HW2 7982   5.479  11.390  12.641
 2029SOL     OW 7983  14.320  13.064   2.454
 2029SOL    HW1 7984  14.309  13.160   2.452
 2029SOL    HW2 7985  14.236  13.031   2.420
 2030SOL     OW 7986  11.425  11.994   8.614
 2030SOL    HW1 7987  11.373  11.919   8.643
 2030SOL    HW2 7988  11.398  12.066   8.672
 2031SOL     OW 7989   0.112   9.096   6.125
 2031SOL    HW1 7990   0.049   9.140   6.182
 2031SOL    HW2 7991   0.115   9.150   6.046
 2032SOL     OW 7992  12.875  12.367  11.860
 2032SOL    HW1 7993  12.839  12.449  11.894
 2032SOL    HW2 7994  12.927  12.394  11.784
 2033SOL     OW 7995  11.589   4.586   7.206
 2033SOL    HW1 7996  11.597   4.572   7.112
 2033SOL    HW2 7997  11.600   4.499   7.244
 2034SOL     OW 7998   0.550   3.956   6.586
 2034SOL    HW1 7999   0.589   3.878   6.546
 2034SOL    HW2 8000   0.495   3.993   6.517
 2035SOL     OW 8001  13.185   2.748   1.973
 2035SOL    HW1 8002  13.170   2.775   1.883
 2035SOL    HW2 8003  13.143   2.662   1.979
 2036SOL     OW 8004  10.566  13.717  11.981
 2036SOL    HW1 8005  10.547  13.778  11.910
 2036SOL    HW2 8006  10.481  13.680  12.005
 2037SOL     OW 8007   0.044   9.686   2.138
 2037SOL    HW1 8008   0.078   9.621   2.076
 2037SOL    HW2 8009  14.840   9.723   2.094
 2038SOL     OW 8010  13.570  14.767  11.777
 2038SOL    HW1 8011  13.631  14.841  11.774
 2038SOL    HW2 8012  13.517  14.783  11.855
 2039SOL     OW 8013   8.191  11.922   3.456
 2039SOL    HW1 8014   8.284  11.933   3.476
 2039SOL    HW2 8015   8.152  11.893   3.539
 2040SOL     OW 8016   5.679  12.342   2.410
 2040SOL    HW1 8017   5.771  12.318   2.422
 2040SOL    HW2 8018   5.630  12.265   2.438
 2041SOL     OW 8019  11.346  13.649  14.406
 2041SOL    HW1 8020  11.385  13.592  14.472
 2041SOL    HW2 8021  11.417  13.707  14.380
 2042SOL     OW 8022   4.864   8.076  11.850
 2042SOL    HW1 8023   4.838   8.163  11.882
 2042SOL    HW2 8024   4.904   8.094  11.765
 2043SOL     OW 8025   3.705   3.932   8.580
 2043SOL    HW1 8026   3.798   3.936   8.560
 2043SOL    HW2 8027   3.696   3.856   8.638
 2044SOL     OW 8028   0.903   3.478  10.508
 2044SOL    HW1 8029   0.812   3.487  10.535
 2044SOL    HW2 8030   0.898   3.448  10.417
 2045SOL     OW 8031  12.036  13.285   4.703
 2045SOL    HW1 8032  12.109  13.344   4.686
 2045SOL    HW2 8033  11.994  13.272   4.618
 2046SOL     OW 8034   1.654   2.888  12.957
 2046SOL    HW1 8035   1.693   2.831  13.024
 2046SOL    HW2 8036   1.584   2.934  13.003
 2047SOL     OW 8037   9.423   2.614  13.102
 2047SOL    HW1 8038   9.374   2.532  13.106
 2047SOL    HW2 8039   9.502   2.593  13.051
 2048SOL     OW 8040  11.319   9.002   5.783
 2048SOL    HW1 8041  11.344   8.971   5.697
 2048SOL    HW2 8042  11.372   9.081   5.797
 2049SOL     OW 8043  13.320   6.524  12.138
 2049SOL    HW1 8044  13.240   6.575  12.126
 2049SOL    HW2 8045  13.317   6.496  12.229
 2050SOL     OW 8046  13.138  12.676  12.003
 2050SOL    HW1 8047  13.066  12.739  12.011
 2050SOL    HW2 8048  13.212  12.729  11.971
 2051SOL     OW 8049   1.789   7.772  10.134
 2051SOL    HW1 8050   1.876   7.745  10.164
 2051SOL    HW2 8051   1.737   7.779  10.214
 2052SOL     OW 8052  14.051   7.427   5.142
 2052SOL    HW1 8053  14.045   7.518   5.112
 2052SOL    HW2 8054  14.144   7.406   5.136
 2053SOL     OW 8055  12.509   8.009   1.520
 2053SOL    HW1 8056  12.581   8.061   1.555
 2053SOL    HW2 8057  12.540   7.918   1.527
 2054SOL     OW 8058   9.251   0.104   9.666
 2054SOL    HW1 8059   9.327   0.162   9.663
 2054SOL    HW2 8060   9.258   0.062   9.752
 2055SOL     OW 8061  11.804   6.631   0.794
 2055SOL    HW1 8062  11.782   6.549   0.750
 2055SOL    HW2 8063  11.724   6.657   0.839
 2056SOL     OW 8064   3.396   0.807  10.750
 2056SOL    HW1 8065   3.414   0.761  10.831
 2056SOL    HW2 8066   3.301   0.809  10.744
 2057SOL     OW 8067  12.488   8.746   4.207
 2057SOL    HW1 8068  12.490   8.746   4.303
 2057SOL    HW2 8069  12.395   8.745   4.185
 2058SOL     OW 8070  10.192  13.162   2.678
 2058SOL    HW1 8071  10.131  13.221   2.635
 2058SOL    HW2 8072  10.189  13.187   2.770
 2059SOL     OW 8073   9.366  13.775   5.075
 2059SOL    HW1 8074   9.298  13.745   5.014
 2059SOL    HW2 8075   9.389  13.863   5.044
 2060SOL     OW 8076   0.487  10.347   2.406
 2060SOL    HW1 8077   0.451  10.345   2.494
 2060SOL    HW2 8078   0.456  10.266   2.365
 2061SOL     OW 8079   1.762  10.715  13.404
 2061SOL    HW1 8080   1.797  10.688  13.319
 2061SOL    HW2 8081   1.683  10.663  13.415
 2062SOL     OW 8082   7.009   4.095   3.333
 2062SOL    HW1 8083   7.045   4.184   3.328
 2062SOL    HW2 8084   6.970   4.090   3.421
 2063SOL     OW 8085   7.833  14.472  14.580
 2063SOL    HW1 8086   7.883  14.490  14.660
 2063SOL    HW2 8087   7.743  14.492  14.603
 2064SOL     OW 8088  13.419   2.573  11.044
 2064SOL    HW1 8089  13.355   2.563  11.114
 2064SOL    HW2 8090  13.503   2.579  11.089
 2065SOL     OW 8091  12.156  14.705  14.099
 2065SOL    HW1 8092  12.160  14.662  14.013
 2065SOL    HW2 8093  12.133  14.634  14.160
 2066SOL     OW 8094   7.220  10.508  14.633
 2066SOL    HW1 8095   7.195  10.535  14.721
 2066SOL    HW2 8096   7.297  10.561  14.612
 2067SOL     OW 8097   4.763   2.970   7.052
 2067SOL    HW1 8098   4.833   2.924   7.006
 2067SOL    HW2 8099   4.682   2.929   7.019
 2068SOL     OW 8100  14.206  13.774   2.832
 2068SOL    HW1 8101  14.253  13.855   2.854
 2068SOL    HW2 8102  14.133  13.803   2.777
 2069SOL     OW 8103  12.501  11.818   7.876
 2069SOL    HW1 8104  12.581  11.807   7.823
 2069SOL    HW2 8105  12.434  11.768   7.829
 2070SOL     OW 8106  12.115   9.412  14.124
 2070SOL    HW1 8107  12.165   9.432  14.044
 2070SOL    HW2 8108  12.054   9.343  14.097
 2071SOL     OW 8109   4.878   9.452  13.720
 2071SOL    HW1 8110   4.963   9.494  13.716
 2071SOL    HW2 8111   4.821   9.516  13.763
 2072SOL     OW 8112   0.967   3.626   0.027
 2072SOL    HW1 8113   1.006   3.540   0.010
 2072SOL    HW2 8114   0.917   3.645  14.819
 2073SOL     OW 8115   6.155   7.016   1.313
 2073SOL    HW1 8116   6.131   6.926   1.293
 2073SOL    HW2 8117   6.114   7.034   1.397
 2074SOL     OW 8118   6.506   8.391  12.397
 2074SOL    HW1 8119   6.439   8.387  12.328
 2074SOL    HW2 8120   6.512   8.301  12.429
 2075SOL     OW 8121   4.281   6.166   7.393
 2075SOL    HW1 8122   4.254   6.161   7.485
 2075SOL    HW2 8123   4.283   6.259   7.373
 2076SOL     OW 8124   0.410   7.712   7.899
 2076SOL    HW1 8125   0.488   7.763   7.877
 2076SOL    HW2 8126   0.372   7.689   7.814
 2077SOL     OW 8127   2.319  10.338   1.038
 2077SOL    HW1 8128   2.252  10.398   1.008
 2077SOL    HW2 8129   2.390  10.346   0.974
 2078SOL     OW 8130  12.491  11.149   8.964
 2078SOL    HW1 8131  12.506  11.242   8.982
 2078SOL    HW2 8132  12.530  11.134   8.879
 2079SOL     OW 8133   1.701  12.468   3.627
 2079SOL    HW1 8134   1.607  12.486   3.635
 2079SOL    HW2 8135   1.733  12.535   3.568
 2080SOL     OW 8136   8.176   7.118  11.949
 2080SOL    HW1 8137   8.180   7.172  12.028
 2080SOL    HW2 8138   8.129   7.039  11.976
 2081SOL     OW 8139  10.216  14.138  12.810
 2081SOL    HW1 8140  10.149  14.069  12.805
 2081SOL    HW2 8141  10.274  14.119  12.736
 2082SOL     OW 8142   0.348  13.138  10.100
 2082SOL    HW1 8143   0.381  13.115  10.014
 2082SOL    HW2 8144   0.315  13.055  10.135
 2083SOL     OW 8145   0.827  11.532  11.037
 2083SOL    HW1 8146   0.805  11.479  11.113
 2083SOL    HW2 8147   0.922  11.546  11.043
 2084SOL     OW 8148   0.030   8.467   3.440
 2084SOL    HW1 8149   0.028   8.542   3.500
 2084SOL    HW2 8150  14.817   8.468   3.397
 2085SOL     OW 8151   0.803  10.819  13.237
 2085SOL    HW1 8152   0.717  10.855  13.211
 2085SOL    HW2 8153   0.817  10.855  13.325
 2086SOL     OW 8154  14.001  13.619   1.760
 2086SOL    HW1 8155  14.028  13.642   1.671
 2086SOL    HW2 8156  13.966  13.700   1.797
 2087SOL     OW 8157   4.655  14.206   0.231
 2087SOL    HW1 8158   4.724  14.161   0.279
 2087SOL    HW2 8159   4.578  14.149   0.241
 2088SOL     OW 8160   0.394   6.234   6.074
 2088SOL    HW1 8161   0.346   6.290   6.135
 2088SOL    HW2 8162   0.482   6.227   6.113
 2089SOL     OW 8163   6.019   2.358   3.966
 2089SOL    HW1 8164   5.937   2.387   4.006
 2089SOL    HW2 8165   5.991   2.296   3.898
 2090SOL     OW 8166   8.783  14.856  11.744
 2090SOL    HW1 8167   8.719   0.048  11.713
 2090SOL    HW2 8168   8.808   0.014  11.831
 2091SOL     OW 8169   6.073   4.296  14.799
 2091SOL    HW1 8170   6.151   4.252  14.766
 2091SOL    HW2 8171   6.104   4.378  14.837
 2092SOL     OW 8172   8.672   2.468  12.952
 2092SOL    HW1 8173   8.712   2.490  13.037
 2092SOL    HW2 8174   8.743   2.428  12.902
 2093SOL     OW 8175  13.770  11.209  13.084
 2093SOL    HW1 8176  13.695  11.233  13.138
 2093SOL    HW2 8177  13.835  11.277  13.102
 2094SOL     OW 8178   3.105   3.977   1.023
 2094SOL    HW1 8179   3.070   4.020   0.946
 2094SOL    HW2 8180   3.115   4.047   1.088
 2095SOL     OW 8181   1.856   0.033   1.178
 2095SOL    HW1 8182   1.766   0.012   1.204
 2095SOL    HW2 8183   1.902  14.822   1.185
 2096SOL     OW 8184   1.227   7.576   1.136
 2096SOL    HW1 8185   1.136   7.559   1.112
 2096SOL    HW2 8186   1.264   7.620   1.060
 2097SOL     OW 8187   4.317   8.682   5.789
 2097SOL    HW1 8188   4.273   8.637   5.717
 2097SOL    HW2 8189   4.279   8.644   5.868
 2098SOL     OW 8190   0.602   1.337   4.270
 2098SOL    HW1 8191   0.678   1.370   4.221
 2098SOL    HW2 8192   0.622   1.358   4.361
 2099SOL     OW 8193   4.601   8.202   5.791
 2099SOL    HW1 8194   4.662   8.203   5.865
 2099SOL    HW2 8195   4.596   8.293   5.762
 2100SOL     OW 8196   7.786   1.040   9.710
 2100SOL    HW1 8197   7.821   0.972   9.652
 2100SOL    HW2 8198   7.719   1.083   9.657
 2101SOL     OW 8199   0.451  10.064   6.832
 2101SOL    HW1 8200   0.386  10.032   6.895
 2101SOL    HW2 8201   0.432  10.015   6.752
 2102SOL     OW 8202   2.248   0.200   1.335
 2102SOL    HW1 8203   2.169   0.237   1.294
 2102SOL    HW2 8204   2.214   0.139   1.400
 2103SOL     OW 8205   4.510   3.131   6.472
 2103SOL    HW1 8206   4.566   3.177   6.535
 2103SOL    HW2 8207   4.442   3.194   6.450
 2104SOL     OW 8208  12.242   9.288   6.937
 2104SOL    HW1 8209  12.268   9.282   6.845
 2104SOL    HW2 8210  12.311   9.241   6.984
 2105SOL     OW 8211   2.552  11.801   9.726
 2105SOL    HW1 8212   2.468  11.821   9.768
 2105SOL    HW2 8213   2.547  11.707   9.707
 2106SOL     OW 8214  12.189  12.063   3.702
 2106SOL    HW1 8215  12.229  12.132   3.648
 2106SOL    HW2 8216  12.255  11.995   3.709
 2107SOL     OW 8217  10.720   3.478  10.086
 2107SOL    HW1 8218  10.644   3.511  10.039
 2107SOL    HW2 8219  10.684   3.440  10.166
 2108SOL     OW 8220   3.407   9.303   0.069
 2108SOL    HW1 8221   3.484   9.294   0.125
 2108SOL    HW2 8222   3.434   9.265  14.858
 2109SOL     OW 8223   3.798  10.950  12.811
 2109SOL    HW1 8224   3.850  10.970  12.888
 2109SOL    HW2 8225   3.856  10.899  12.755
 2110SOL     OW 8226  11.171   6.224  11.137
 2110SOL    HW1 8227  11.133   6.138  11.119
 2110SOL    HW2 8228  11.097   6.276  11.169
 2111SOL     OW 8229   5.680   5.032   9.273
 2111SOL    HW1 8230   5.598   5.062   9.313
 2111SOL    HW2 8231   5.714   4.968   9.336
 2112SOL     OW 8232   6.496  10.843   8.550
 2112SOL    HW1 8233   6.410  10.817   8.583
 2112SOL    HW2 8234   6.524  10.914   8.608
 2113SOL     OW 8235   9.884   9.508   8.999
 2113SOL    HW1 8236   9.964   9.455   9.001
 2113SOL    HW2 8237   9.912   9.594   9.030
 2114SOL     OW 8238  14.357   3.205   0.858
 2114SOL    HW1 8239  14.338   3.141   0.926
 2114SOL    HW2 8240  14.400   3.277   0.904
 2115SOL     OW 8241  10.465   3.464   6.085
 2115SOL    HW1 8242  10.390   3.426   6.131
 2115SOL    HW2 8243  10.519   3.388   6.061
 2116SOL     OW 8244  12.945  13.044   3.966
 2116SOL    HW1 8245  12.896  12.983   4.021
 2116SOL    HW2 8246  12.943  13.127   4.014
 2117SOL     OW 8247  10.801  14.428   2.610
 2117SOL    HW1 8248  10.733  14.362   2.627
 2117SOL    HW2 8249  10.787  14.495   2.676
 2118SOL     OW 8250   5.584   2.698  12.739
 2118SOL    HW1 8251   5.648   2.636  12.774
 2118SOL    HW2 8252   5.508   2.644  12.717
 2119SOL     OW 8253   1.759   0.408  13.629
 2119SOL    HW1 8254   1.768   0.345  13.700
 2119SOL    HW2 8255   1.849   0.433  13.607
 2120SOL     OW 8256  10.538  14.731   2.088
 2120SOL    HW1 8257  10.580  14.645   2.077
 2120SOL    HW2 8258  10.570  14.763   2.172
 2121SOL     OW 8259   3.586  13.207   5.530
 2121SOL    HW1 8260   3.545  13.126   5.559
 2121SOL    HW2 8261   3.549  13.223   5.443
 2122SOL     OW 8262  13.429   5.261   6.064
 2122SOL    HW1 8263  13.427   5.244   6.158
 2122SOL    HW2 8264  13.495   5.331   6.054
 2123SOL     OW 8265   3.123   3.315  12.200
 2123SOL    HW1 8266   3.149   3.343  12.288
 2123SOL    HW2 8267   3.110   3.396  12.151
 2124SOL     OW 8268   2.090  13.705   5.603
 2124SOL    HW1 8269   2.114  13.613   5.588
 2124SOL    HW2 8270   2.004  13.714   5.562
 2125SOL     OW 8271   0.447   7.436   4.366
 2125SOL    HW1 8272   0.380   7.376   4.398
 2125SOL    HW2 8273   0.504   7.452   4.441
 2126SOL     OW 8274   5.449  12.299   4.153
 2126SOL    HW1 8275   5.425  12.248   4.076
 2126SOL    HW2 8276   5.413  12.386   4.136
 2127SOL     OW 8277   5.219   5.738   1.046
 2127SOL    HW1 8278   5.209   5.689   1.127
 2127SOL    HW2 8279   5.133   5.776   1.030
 2128SOL     OW 8280   3.967  11.767   3.955
 2128SOL    HW1 8281   3.939  11.760   4.046
 2128SOL    HW2 8282   3.929  11.849   3.924
 2129SOL     OW 8283   9.625   6.612  14.256
 2129SOL    HW1 8284   9.646   6.518  14.249
 2129SOL    HW2 8285   9.647   6.634  14.347
 2130SOL     OW 8286  13.866   0.750  11.385
 2130SOL    HW1 8287  13.847   0.766  11.293
 2130SOL    HW2 8288  13.924   0.821  11.411
 2131SOL     OW 8289  14.867   9.672   9.361
 2131SOL    HW1 8290  14.777   9.670   9.394
 2131SOL    HW2 8291   0.024   9.762   9.373
 2132SOL     OW 8292  11.341  14.212   3.195
 2132SOL    HW1 8293  11.378  14.228   3.282
 2132SOL    HW2 8294  11.275  14.281   3.185
 2133SOL     OW 8295  10.841   3.398  10.860
 2133SOL    HW1 8296  10.919   3.402  10.804
 2133SOL    HW2 8297  10.850   3.316  10.909
 2134SOL     OW 8298  12.900   8.357  11.984
 2134SOL    HW1 8299  12.937   8.287  11.929
 2134SOL    HW2 8300  12.901   8.320  12.072
 2135SOL     OW 8301   0.527  11.096   9.546
 2135SOL    HW1 8302   0.520  11.059   9.458
 2135SOL    HW2 8303   0.480  11.179   9.541
 2136SOL     OW 8304   7.440   0.096   5.982
 2136SOL    HW1 8305   7.434   0.192   5.978
 2136SOL    HW2 8306   7.441   0.076   6.075
 2137SOL     OW 8307   7.906  12.907  10.751
 2137SOL    HW1 8308   7.837  12.927  10.687
 2137SOL    HW2 8309   7.924  12.991  10.794
 2138SOL     OW 8310   3.997   8.792   1.504
 2138SOL    HW1 8311   3.909   8.813   1.536
 2138SOL    HW2 8312   4.017   8.863   1.442
 2139SOL     OW 8313   7.739   2.143   0.961
 2139SOL    HW1 8314   7.774   2.062   0.997
 2139SOL    HW2 8315   7.647   2.143   0.987
 2140SOL     OW 8316  11.423   1.796  12.324
 2140SOL    HW1 8317  11.378   1.833  12.401
 2140SOL    HW2 8318  11.396   1.705  12.322
 2141SOL     OW 8319   1.687   5.846  12.904
 2141SOL    HW1 8320   1.695   5.765  12.854
 2141SOL    HW2 8321   1.712   5.915  12.843
 2142SOL     OW 8322   2.499  13.363   6.211
 2142SOL    HW1 8323   2.565  13.337   6.147
 2142SOL    HW2 8324   2.416  13.340   6.171
 2143SOL     OW 8325   7.737  10.340  12.046
 2143SOL    HW1 8326   7.668  10.384  12.095
 2143SOL    HW2 8327   7.702  10.329  11.958
 2144SOL     OW 8328  12.293   1.008   6.442
 2144SOL    HW1 8329  12.356   1.025   6.371
 2144SOL    HW2 8330  12.255   0.923   6.420
 2145SOL     OW 8331   4.411  11.950   9.171
 2145SOL    HW1 8332   4.374  12.031   9.137
 2145SOL    HW2 8333   4.426  11.895   9.094
 2146SOL     OW 8334   9.459   5.622   1.906
 2146SOL    HW1 8335   9.467   5.700   1.851
 2146SOL    HW2 8336   9.542   5.618   1.954
 2147SOL     OW 8337   7.632  10.303   1.115
 2147SOL    HW1 8338   7.641  10.208   1.117
 2147SOL    HW2 8339   7.682  10.333   1.191
 2148SOL     OW 8340  10.284   9.268   4.531
 2148SOL    HW1 8341  10.363   9.321   4.539
 2148SOL    HW2 8342  10.254   9.283   4.442
 2149SOL     OW 8343   2.741   8.396   9.737
 2149SOL    HW1 8344   2.733   8.399   9.642
 2149SOL    HW2 8345   2.651   8.391   9.769
 2150SOL     OW 8346   6.047  11.557  10.489
 2150SOL    HW1 8347   6.106  11.514  10.427
 2150SOL    HW2 8348   6.065  11.514  10.573
 2151SOL     OW 8349  10.275   9.282   6.603
 2151SOL    HW1 8350  10.276   9.213   6.537
 2151SOL    HW2 8351  10.364   9.317   6.604
 2152SOL     OW 8352  14.487   4.708   9.698
 2152SOL    HW1 8353  14.414   4.768   9.684
 2152SOL    HW2 8354  14.495   4.660   9.615
 2153SOL     OW 8355   6.689   8.118   4.309
 2153SOL    HW1 8356   6.776   8.099   4.272
 2153SOL    HW2 8357   6.635   8.043   4.282
 2154SOL     OW 8358  11.871   4.577  13.097
 2154SOL    HW1 8359  11.903   4.667  13.098
 2154SOL    HW2 8360  11.787   4.581  13.143
 2155SOL     OW 8361   4.563   4.881   2.174
 2155SOL    HW1 8362   4.548   4.789   2.195
 2155SOL    HW2 8363   4.650   4.900   2.210
 2156SOL     OW 8364   5.115   9.579  13.676
 2156SOL    HW1 8365   5.153   9.638  13.612
 2156SOL    HW2 8366   5.162   9.597  13.757
 2157SOL     OW 8367   9.907  12.368   0.786
 2157SOL    HW1 8368   9.984  12.343   0.734
 2157SOL    HW2 8369   9.940  12.376   0.875
 2158SOL     OW 8370   1.808  12.893   5.243
 2158SOL    HW1 8371   1.779  12.957   5.178
 2158SOL    HW2 8372   1.732  12.881   5.300
 2159SOL     OW 8373   6.582   2.494   8.130
 2159SOL    HW1 8374   6.612   2.411   8.093
 2159SOL    HW2 8375   6.562   2.549   8.054
 2160SOL     OW 8376   4.654   1.497   5.045
 2160SOL    HW1 8377   4.593   1.528   5.112
 2160SOL    HW2 8378   4.721   1.448   5.092
 2161SOL     OW 8379  14.085   7.811  14.810
 2161SOL    HW1 8380  14.081   7.823  14.715
 2161SOL    HW2 8381  14.036   7.730  14.826
 2162SOL     OW 8382  13.525   3.930   9.044
 2162SOL    HW1 8383  13.492   3.858   8.990
 2162SOL    HW2 8384  13.518   4.007   8.988
 2163SOL     OW 8385  10.356  13.296   0.071
 2163SOL    HW1 8386  10.303  13.275   0.148
 2163SOL    HW2 8387  10.438  13.248   0.085
 2164SOL     OW 8388   6.973   3.597   0.772
 2164SOL    HW1 8389   6.889   3.641   0.779
 2164SOL    HW2 8390   7.029   3.659   0.725
 2165SOL     OW 8391   3.911  12.712  12.569
 2165SOL    HW1 8392   3.978  12.779  12.555
 2165SOL    HW2 8393   3.834  12.761  12.597
 2166SOL     OW 8394   9.482  12.318  10.047
 2166SOL    HW1 8395   9.575  12.316  10.070
 2166SOL    HW2 8396   9.455  12.226  10.044
 2167SOL     OW 8397   4.180   0.470   2.242
 2167SOL    HW1 8398   4.221   0.430   2.319
 2167SOL    HW2 8399   4.244   0.458   2.172
 2168SOL     OW 8400  12.970  10.372   3.834
 2168SOL    HW1 8401  13.063  10.353   3.849
 2168SOL    HW2 8402  12.925  10.291   3.855
 2169SOL     OW 8403  11.434  10.094  11.718
 2169SOL    HW1 8404  11.387  10.052  11.646
 2169SOL    HW2 8405  11.423  10.034  11.792
 2170SOL     OW 8406   7.908   3.012   1.125
 2170SOL    HW1 8407   7.976   3.073   1.156
 2170SOL    HW2 8408   7.857   3.064   1.063
 2171SOL     OW 8409   2.894  11.585   7.341
 2171SOL    HW1 8410   2.927  11.635   7.416
 2171SOL    HW2 8411   2.841  11.515   7.380
 2172SOL     OW 8412   2.055  10.519   5.751
 2172SOL    HW1 8413   2.095  10.604   5.738
 2172SOL    HW2 8414   2.033  10.489   5.663
 2173SOL     OW 8415   7.071  12.155  12.753
 2173SOL    HW1 8416   7.091  12.134  12.662
 2173SOL    HW2 8417   6.977  12.140  12.762
 2174SOL     OW 8418  13.941  10.070   0.261
 2174SOL    HW1 8419  14.026  10.035   0.287
 2174SOL    HW2 8420  13.922  10.138   0.325
 2175SOL     OW 8421   7.460  14.142   2.982
 2175SOL    HW1 8422   7.420  14.187   3.056
 2175SOL    HW2 8423   7.539  14.192   2.962
 2176SOL     OW 8424  10.737   7.120  12.809
 2176SOL    HW1 8425  10.785   7.109  12.891
 2176SOL    HW2 8426  10.653   7.159  12.834
 2177SOL     OW 8427  14.427   3.204   8.783
 2177SOL    HW1 8428  14.390   3.183   8.697
 2177SOL    HW2 8429  14.521   3.207   8.769
 2178SOL     OW 8430   3.815   5.967   4.966
 2178SOL    HW1 8431   3.778   6.008   4.888
 2178SOL    HW2 8432   3.740   5.933   5.014
 2179SOL     OW 8433   4.729  13.710   9.179
 2179SOL    HW1 8434   4.667  13.773   9.216
 2179SOL    HW2 8435   4.758  13.658   9.253
 2180SOL     OW 8436   1.164   1.928  13.119
 2180SOL    HW1 8437   1.107   1.904  13.047
 2180SOL    HW2 8438   1.211   2.005  13.089
 2181SOL     OW 8439  10.425   6.829   0.987
 2181SOL    HW1 8440  10.446   6.872   1.071
 2181SOL    HW2 8441  10.487   6.757   0.981
 2182SOL     OW 8442   5.311   5.621   6.045
 2182SOL    HW1 8443   5.293   5.596   6.135
 2182SOL    HW2 8444   5.395   5.667   6.049
 2183SOL     OW 8445   5.940  14.855   2.139
 2183SOL    HW1 8446   5.954  14.773   2.186
 2183SOL    HW2 8447   6.026   0.005   2.104
 2184SOL     OW 8448   4.441   1.667   0.390
 2184SOL    HW1 8449   4.412   1.607   0.321
 2184SOL    HW2 8450   4.521   1.707   0.355
 2185SOL     OW 8451  10.801   8.115   6.710
 2185SOL    HW1 8452  10.807   8.086   6.801
 2185SOL    HW2 8453  10.710   8.146   6.701
 2186SOL     OW 8454   4.823  12.130  13.117
 2186SOL    HW1 8455   4.767  12.140  13.194
 2186SOL    HW2 8456   4.877  12.054  13.138
 2187SOL     OW 8457   8.643   9.247  10.561
 2187SOL    HW1 8458   8.554   9.263  10.592
 2187SOL    HW2 8459   8.679   9.184  10.623
 2188SOL     OW 8460   4.743   4.991   9.516
 2188SOL    HW1 8461   4.790   5.069   9.487
 2188SOL    HW2 8462   4.811   4.926   9.529
 2189SOL     OW 8463   6.592   0.803   1.971
 2189SOL    HW1 8464   6.527   0.769   2.033
 2189SOL    HW2 8465   6.676   0.780   2.009
 2190SOL     OW 8466  11.276  13.988   4.867
 2190SOL    HW1 8467  11.339  13.980   4.795
 2190SOL    HW2 8468  11.269  14.082   4.882
 2191SOL     OW 8469   6.000  12.975   5.778
 2191SOL    HW1 8470   5.918  13.019   5.756
 2191SOL    HW2 8471   6.060  13.046   5.800
 2192SOL     OW 8472  10.464   8.372   8.560
 2192SOL    HW1 8473  10.462   8.400   8.469
 2192SOL    HW2 8474  10.461   8.454   8.610
 2193SOL     OW 8475   1.481  14.197   7.444
 2193SOL    HW1 8476   1.443  14.187   7.532
 2193SOL    HW2 8477   1.555  14.137   7.444
 2194SOL     OW 8478   9.434  11.082   4.382
 2194SOL    HW1 8479   9.442  11.039   4.467
 2194SOL    HW2 8480   9.485  11.028   4.322
 2195SOL     OW 8481   3.729  12.033   4.668
 2195SOL    HW1 8482   3.775  12.091   4.729
 2195SOL    HW2 8483   3.699  11.960   4.722
 2196SOL     OW 8484   5.476   8.810  12.310
 2196SOL    HW1 8485   5.443   8.836  12.224
 2196SOL    HW2 8486   5.466   8.888  12.364
 2197SOL     OW 8487   0.772  11.210   3.961
 2197SOL    HW1 8488   0.714  11.286   3.960
 2197SOL    HW2 8489   0.736  11.150   3.896
 2198SOL     OW 8490   8.897   5.323   1.451
 2198SOL    HW1 8491   8.940   5.330   1.537
 2198SOL    HW2 8492   8.931   5.397   1.402
 2199SOL     OW 8493   9.548   7.436   7.019
 2199SOL    HW1 8494   9.623   7.412   7.073
 2199SOL    HW2 8495   9.578   7.424   6.929
 2200SOL     OW 8496   2.415  13.839  13.153
 2200SOL    HW1 8497   2.456  13.757  13.126
 2200SOL    HW2 8498   2.489  13.898  13.171
 2201SOL     OW 8499  10.117   9.534   8.726
 2201SOL    HW1 8500  10.087   9.624   8.742
 2201SOL    HW2 8501  10.196   9.526   8.780
 2202SOL     OW 8502   4.922   3.643   6.158
 2202SOL    HW1 8503   4.840   3.691   6.163
 2202SOL    HW2 8504   4.936   3.609   6.246
 2203SOL     OW 8505  12.687   2.305   0.093
 2203SOL    HW1 8506  12.608   2.257   0.070
 2203SOL    HW2 8507  12.738   2.308   0.012
 2204SOL     OW 8508   3.599  12.022   6.585
 2204SOL    HW1 8509   3.600  11.988   6.674
 2204SOL    HW2 8510   3.668  12.089   6.585
 2205SOL     OW 8511  10.798  13.937   7.442
 2205SOL    HW1 8512  10.846  13.869   7.491
 2205SOL    HW2 8513  10.754  13.989   7.509
 2206SOL     OW 8514  13.130  11.422  14.316
 2206SOL    HW1 8515  13.143  11.507  14.275
 2206SOL    HW2 8516  13.134  11.359  14.243
 2207SOL     OW 8517   5.707   5.269   0.589
 2207SOL    HW1 8518   5.793   5.266   0.632
 2207SOL    HW2 8519   5.728   5.291   0.498
 2208SOL     OW 8520  11.089  11.303  10.883
 2208SOL    HW1 8521  11.042  11.342  10.956
 2208SOL    HW2 8522  11.053  11.345  10.805
 2209SOL     OW 8523  10.494  12.580   2.384
 2209SOL    HW1 8524  10.471  12.671   2.403
 2209SOL    HW2 8525  10.490  12.536   2.469
 2210SOL     OW 8526  11.409   5.978   2.221
 2210SOL    HW1 8527  11.418   5.912   2.152
 2210SOL    HW2 8528  11.455   5.941   2.297
 2211SOL     OW 8529   5.391   6.116   6.854
 2211SOL    HW1 8530   5.454   6.175   6.895
 2211SOL    HW2 8531   5.348   6.170   6.787
 2212SOL     OW 8532   7.919  11.446   0.986
 2212SOL    HW1 8533   7.978  11.417   0.916
 2212SOL    HW2 8534   7.904  11.368   1.039
 2213SOL     OW 8535  10.896   0.243  14.595
 2213SOL    HW1 8536  10.890   0.194  14.677
 2213SOL    HW2 8537  10.887   0.334  14.620
 2214SOL     OW 8538  14.133  10.336   5.578
 2214SOL    HW1 8539  14.149  10.427   5.606
 2214SOL    HW2 8540  14.218  10.294   5.585
 2215SOL     OW 8541   5.089   7.839   5.817
 2215SOL    HW1 8542   5.081   7.852   5.723
 2215SOL    HW2 8543   5.074   7.745   5.830
 2216SOL     OW 8544   0.634   9.159   1.695
 2216SOL    HW1 8545   0.640   9.065   1.680
 2216SOL    HW2 8546   0.699   9.197   1.635
 2217SOL     OW 8547   3.654  14.174  12.780
 2217SOL    HW1 8548   3.640  14.267  12.797
 2217SOL    HW2 8549   3.747  14.167  12.757
 2218SOL     OW 8550   6.467   0.963   0.671
 2218SOL    HW1 8551   6.406   0.902   0.629
 2218SOL    HW2 8552   6.494   1.022   0.601
 2219SOL     OW 8553   9.523   7.689   2.132
 2219SOL    HW1 8554   9.597   7.649   2.178
 2219SOL    HW2 8555   9.563   7.738   2.061
 2220SOL     OW 8556   0.742   6.512  13.914
 2220SOL    HW1 8557   0.784   6.429  13.889
 2220SOL    HW2 8558   0.658   6.511  13.867
 2221SOL     OW 8559  14.355   3.072   3.980
 2221SOL    HW1 8560  14.436   3.031   3.948
 2221SOL    HW2 8561  14.350   3.155   3.932
 2222SOL     OW 8562   3.819   5.838   6.430
 2222SOL    HW1 8563   3.897   5.838   6.485
 2222SOL    HW2 8564   3.852   5.848   6.341
 2223SOL     OW 8565   0.393  14.774   6.819
 2223SOL    HW1 8566   0.340  14.697   6.839
 2223SOL    HW2 8567   0.365  14.840   6.882
 2224SOL     OW 8568  14.347   7.808   8.844
 2224SOL    HW1 8569  14.258   7.838   8.829
 2224SOL    HW2 8570  14.367   7.751   8.770
 2225SOL     OW 8571  11.885  10.844  12.192
 2225SOL    HW1 8572  11.861  10.914  12.130
 2225SOL    HW2 8573  11.970  10.813  12.161
 2226SOL     OW 8574   4.101  11.856   3.600
 2226SOL    HW1 8575   4.032  11.899   3.550
 2226SOL    HW2 8576   4.130  11.922   3.663
 2227SOL     OW 8577   1.466   3.802  10.121
 2227SOL    HW1 8578   1.467   3.875  10.183
 2227SOL    HW2 8579   1.443   3.841  10.037
 2228SOL     OW 8580   3.165   2.442  14.493
 2228SOL    HW1 8581   3.103   2.504  14.530
 2228SOL    HW2 8582   3.113   2.389  14.432
 2229SOL     OW 8583   1.093  11.367   4.977
 2229SOL    HW1 8584   1.149  11.303   4.934
 2229SOL    HW2 8585   1.148  11.406   5.045
 2230SOL     OW 8586   7.750   8.907  12.371
 2230SOL    HW1 8587   7.748   8.961  12.291
 2230SOL    HW2 8588   7.659   8.890  12.391
 2231SOL     OW 8589  11.253   6.092   0.274
 2231SOL    HW1 8590  11.169   6.047   0.283
 2231SOL    HW2 8591  11.310   6.049   0.338
 2232SOL     OW 8592   0.586   8.401  12.312
 2232SOL    HW1 8593   0.541   8.324  12.347
 2232SOL    HW2 8594   0.549   8.475  12.359
 2233SOL     OW 8595   2.536   1.092  13.851
 2233SOL    HW1 8596   2.564   1.083  13.760
 2233SOL    HW2 8597   2.553   1.006  13.890
 2234SOL     OW 8598   8.836  13.629  11.172
 2234SOL    HW1 8599   8.764  13.687  11.148
 2234SOL    HW2 8600   8.795  13.542  11.178
 2235SOL     OW 8601   6.237  13.658   0.995
 2235SOL    HW1 8602   6.311  13.605   1.024
 2235SOL    HW2 8603   6.172  13.647   1.064
 2236SOL     OW 8604   6.345  12.280   9.222
 2236SOL    HW1 8605   6.327  12.214   9.155
 2236SOL    HW2 8606   6.265  12.285   9.273
 2237SOL     OW 8607  11.238   3.713   6.170
 2237SOL    HW1 8608  11.286   3.745   6.093
 2237SOL    HW2 8609  11.171   3.780   6.185
 2238SOL     OW 8610  10.158  12.547   6.616
 2238SOL    HW1 8611  10.136  12.521   6.527
 2238SOL    HW2 8612  10.131  12.473   6.670
 2239SOL     OW 8613   1.652   5.290  12.017
 2239SOL    HW1 8614   1.732   5.263  12.063
 2239SOL    HW2 8615   1.599   5.333  12.084
 2240SOL     OW 8616  14.277   8.715   2.457
 2240SOL    HW1 8617  14.364   8.745   2.484
 2240SOL    HW2 8618  14.223   8.724   2.536
 2241SOL     OW 8619   9.182  13.931  12.481
 2241SOL    HW1 8620   9.093  13.919  12.448
 2241SOL    HW2 8621   9.173  13.999  12.548
 2242SOL     OW 8622   6.300   1.577  11.672
 2242SOL    HW1 8623   6.366   1.511  11.651
 2242SOL    HW2 8624   6.258   1.596  11.589
 2243SOL     OW 8625  10.164  10.181   9.641
 2243SOL    HW1 8626  10.124  10.226   9.566
 2243SOL    HW2 8627  10.181  10.092   9.609
 2244SOL     OW 8628  13.153  11.852   1.930
 2244SOL    HW1 8629  13.114  11.906   1.999
 2244SOL    HW2 8630  13.216  11.909   1.887
 2245SOL     OW 8631  10.271   6.684  14.367
 2245SOL    HW1 8632  10.247   6.602  14.325
 2245SOL    HW2 8633  10.234   6.752  14.310
 2246SOL     OW 8634   7.898   3.907  10.672
 2246SOL    HW1 8635   7.893   3.822  10.628
 2246SOL    HW2 8636   7.911   3.885  10.765
 2247SOL     OW 8637   7.988   4.212   1.227
 2247SOL    HW1 8638   7.946   4.178   1.306
 2247SOL    HW2 8639   8.015   4.301   1.250
 2248SOL     OW 8640  10.658   7.365  13.124
 2248SOL    HW1 8641  10.708   7.287  13.146
 2248SOL    HW2 8642  10.662   7.419  13.203
 2249SOL     OW 8643   4.671  11.125   5.269
 2249SOL    HW1 8644   4.658  11.048   5.214
 2249SOL    HW2 8645   4.733  11.180   5.221
 2250SOL     OW 8646  14.139   5.372   6.647
 2250SOL    HW1 8647  14.109   5.283   6.629
 2250SOL    HW2 8648  14.064   5.427   6.624
 2251SOL     OW 8649   9.233  13.616   0.355
 2251SOL    HW1 8650   9.169  13.687   0.358
 2251SOL    HW2 8651   9.181  13.537   0.345
 2252SOL     OW 8652  12.122   3.996  11.398
 2252SOL    HW1 8653  12.118   3.942  11.319
 2252SOL    HW2 8654  12.055   4.064  11.385
 2253SOL     OW 8655   3.885   1.227   4.652
 2253SOL    HW1 8656   3.930   1.271   4.580
 2253SOL    HW2 8657   3.829   1.163   4.609
 2254SOL     OW 8658   9.877   3.751   9.411
 2254SOL    HW1 8659   9.811   3.701   9.364
 2254SOL    HW2 8660   9.844   3.841   9.411
 2255SOL     OW 8661   7.052   9.538   6.995
 2255SOL    HW1 8662   6.958   9.545   7.011
 2255SOL    HW2 8663   7.075   9.618   6.948
 2256SOL     OW 8664  10.108  10.840   3.709
 2256SOL    HW1 8665  10.087  10.760   3.660
 2256SOL    HW2 8666  10.187  10.818   3.757
 2257SOL     OW 8667  10.803   9.128   4.078
 2257SOL    HW1 8668  10.848   9.187   4.138
 2257SOL    HW2 8669  10.738   9.184   4.035
 2258SOL     OW 8670  10.070  14.581  14.586
 2258SOL    HW1 8671  10.004  14.645  14.559
 2258SOL    HW2 8672  10.135  14.633  14.634
 2259SOL     OW 8673   6.523   3.802  12.315
 2259SOL    HW1 8674   6.529   3.707  12.302
 2259SOL    HW2 8675   6.431   3.823  12.299
 2260SOL     OW 8676   4.005  14.866   4.830
 2260SOL    HW1 8677   3.986   0.005   4.737
 2260SOL    HW2 8678   4.088   0.039   4.843
 2261SOL     OW 8679   8.591  11.100   9.720
 2261SOL    HW1 8680   8.576  11.183   9.675
 2261SOL    HW2 8681   8.632  11.125   9.803
 2262SOL     OW 8682   5.169   1.762   1.409
 2262SOL    HW1 8683   5.175   1.841   1.463
 2262SOL    HW2 8684   5.231   1.701   1.449
 2263SOL     OW 8685  14.762  12.843   6.553
 2263SOL    HW1 8686  14.849  12.883   6.547
 2263SOL    HW2 8687  14.769  12.782   6.627
 2264SOL     OW 8688   2.806  11.473  11.564
 2264SOL    HW1 8689   2.730  11.523  11.594
 2264SOL    HW2 8690   2.808  11.396  11.620
 2265SOL     OW 8691   7.462   0.702   6.086
 2265SOL    HW1 8692   7.367   0.700   6.072
 2265SOL    HW2 8693   7.484   0.795   6.090
 2266SOL     OW 8694   3.302   6.398   0.138
 2266SOL    HW1 8695   3.240   6.457   0.095
 2266SOL    HW2 8696   3.305   6.428   0.229
 2267SOL     OW 8697  14.126   5.757   6.930
 2267SOL    HW1 8698  14.106   5.675   6.886
 2267SOL    HW2 8699  14.217   5.749   6.957
 2268SOL     OW 8700  11.246   0.211  12.356
 2268SOL    HW1 8701  11.329   0.235  12.314
 2268SOL    HW2 8702  11.270   0.190  12.446
 2269SOL     OW 8703  11.356   2.824  13.582
 2269SOL    HW1 8704  11.279   2.875  13.556
 2269SOL    HW2 8705  11.423   2.890  13.599
 2270SOL     OW 8706   9.384  11.114   7.528
 2270SOL    HW1 8707   9.403  11.199   7.487
 2270SOL    HW2 8708   9.318  11.134   7.594
 2271SOL     OW 8709   2.775   0.421   3.327
 2271SOL    HW1 8710   2.751   0.377   3.245
 2271SOL    HW2 8711   2.693   0.460   3.358
 2272SOL     OW 8712   1.332   7.173   7.614
 2272SOL    HW1 8713   1.361   7.083   7.629
 2272SOL    HW2 8714   1.306   7.174   7.522
 2273SOL     OW 8715   1.637  10.054  12.725
 2273SOL    HW1 8716   1.610  10.145  12.709
 2273SOL    HW2 8717   1.599  10.032  12.810
 2274SOL     OW 8718  13.533  12.639   3.435
 2274SOL    HW1 8719  13.441  12.624   3.416
 2274SOL    HW2 8720  13.538  12.731   3.462
 2275SOL     OW 8721   5.279   5.275   2.592
 2275SOL    HW1 8722   5.253   5.183   2.598
 2275SOL    HW2 8723   5.222   5.320   2.655
 2276SOL     OW 8724  10.913   6.685   9.077
 2276SOL    HW1 8725  10.964   6.737   9.015
 2276SOL    HW2 8726  10.966   6.687   9.157
 2277SOL     OW 8727   0.726  12.696  13.796
 2277SOL    HW1 8728   0.777  12.618  13.819
 2277SOL    HW2 8729   0.677  12.717  13.876
 2278SOL     OW 8730   0.019  10.677   1.353
 2278SOL    HW1 8731   0.086  10.725   1.403
 2278SOL    HW2 8732   0.034  10.585   1.376
 2279SOL     OW 8733   7.288   9.056  12.196
 2279SOL    HW1 8734   7.298   8.999  12.120
 2279SOL    HW2 8735   7.194   9.075  12.200
 2280SOL     OW 8736  13.604   3.978   2.407
 2280SOL    HW1 8737  13.566   3.997   2.322
 2280SOL    HW2 8738  13.616   3.883   2.408
 2281SOL     OW 8739   3.173  13.797   2.627
 2281SOL    HW1 8740   3.224  13.771   2.704
 2281SOL    HW2 8741   3.232  13.783   2.553
 2282SOL     OW 8742   1.029   9.438   1.506
 2282SOL    HW1 8743   1.001   9.347   1.495
 2282SOL    HW2 8744   0.970   9.488   1.450
 2283SOL     OW 8745  13.528  10.636   0.787
 2283SOL    HW1 8746  13.623  10.629   0.797
 2283SOL    HW2 8747  13.496  10.548   0.807
 2284SOL     OW 8748  14.692   4.475   1.599
 2284SOL    HW1 8749  14.734   4.427   1.527
 2284SOL    HW2 8750  14.731   4.562   1.595
 2285SOL     OW 8751   0.942  12.884   9.553
 2285SOL    HW1 8752   0.989  12.867   9.471
 2285SOL    HW2 8753   0.980  12.823   9.616
 2286SOL     OW 8754   7.116   4.309   6.603
 2286SOL    HW1 8755   7.163   4.392   6.606
 2286SOL    HW2 8756   7.045   4.324   6.541
 2287SOL     OW 8757  12.917   1.247   3.580
 2287SOL    HW1 8758  12.932   1.338   3.553
 2287SOL    HW2 8759  12.930   1.248   3.675
 2288SOL     OW 8760  13.450  12.267   9.737
 2288SOL    HW1 8761  13.478  12.182   9.703
 2288SOL    HW2 8762  13.449  12.256   9.832
 2289SOL     OW 8763  13.316   7.924   1.758
 2289SOL    HW1 8764  13.285   7.894   1.844
 2289SOL    HW2 8765  13.407   7.949   1.773
 2290SOL     OW 8766   4.922  13.505  10.260
 2290SOL    HW1 8767   4.874  13.587  10.273
 2290SOL    HW2 8768   4.974  13.520  10.181
 2291SOL     OW 8769   7.500  11.673  11.809
 2291SOL    HW1 8770   7.564  11.680  11.738
 2291SOL    HW2 8771   7.539  11.724  11.881
 2292SOL     OW 8772  10.029   3.686  10.051
 2292SOL    HW1 8773  10.104   3.740  10.027
 2292SOL    HW2 8774  10.042   3.667  10.144
 2293SOL     OW 8775   9.814   3.984   8.099
 2293SOL    HW1 8776   9.829   4.077   8.116
 2293SOL    HW2 8777   9.901   3.947   8.087
 2294SOL     OW 8778   9.629   4.887   4.410
 2294SOL    HW1 8779   9.573   4.811   4.394
 2294SOL    HW2 8780   9.632   4.895   4.505
 2295SOL     OW 8781   2.271   2.638  14.560
 2295SOL    HW1 8782   2.300   2.552  14.530
 2295SOL    HW2 8783   2.215   2.619  14.635
 2296SOL     OW 8784  13.438   0.763   5.258
 2296SOL    HW1 8785  13.372   0.696   5.241
 2296SOL    HW2 8786  13.479   0.779   5.173
 2297SOL     OW 8787   6.362   0.771   7.496
 2297SOL    HW1 8788   6.285   0.793   7.443
 2297SOL    HW2 8789   6.398   0.693   7.455
 2298SOL     OW 8790  14.346   4.320  13.490
 2298SOL    HW1 8791  14.390   4.396  13.529
 2298SOL    HW2 8792  14.405   4.292  13.419
 2299SOL     OW 8793  10.169  13.858   7.898
 2299SOL    HW1 8794  10.190  13.856   7.805
 2299SOL    HW2 8795  10.124  13.775   7.914
 2300SOL     OW 8796  11.052  14.185   2.335
 2300SOL    HW1 8797  11.080  14.248   2.269
 2300SOL    HW2 8798  11.061  14.232   2.418
 2301SOL     OW 8799  12.313   8.962   2.077
 2301SOL    HW1 8800  12.266   8.907   2.014
 2301SOL    HW2 8801  12.387   8.909   2.105
 2302SOL     OW 8802   9.866   3.768   7.855
 2302SOL    HW1 8803   9.896   3.784   7.765
 2302SOL    HW2 8804   9.780   3.810   7.859
 2303SOL     OW 8805   7.334   1.216   4.034
 2303SOL    HW1 8806   7.332   1.304   4.073
 2303SOL    HW2 8807   7.259   1.215   3.974
 2304SOL     OW 8808   0.685   8.958   4.498
 2304SOL    HW1 8809   0.618   8.936   4.562
 2304SOL    HW2 8810   0.689   8.881   4.440
 2305SOL     OW 8811   5.447  13.300   2.690
 2305SOL    HW1 8812   5.410  13.315   2.603
 2305SOL    HW2 8813   5.464  13.388   2.724
 2306SOL     OW 8814   0.930   5.665   8.946
 2306SOL    HW1 8815   0.887   5.690   9.027
 2306SOL    HW2 8816   0.999   5.604   8.973
 2307SOL     OW 8817   4.495   6.040   6.637
 2307SOL    HW1 8818   4.410   6.044   6.681
 2307SOL    HW2 8819   4.473   6.040   6.543
 2308SOL     OW 8820  14.410   0.309   8.838
 2308SOL    HW1 8821  14.481   0.248   8.859
 2308SOL    HW2 8822  14.359   0.264   8.770
 2309SOL     OW 8823  10.683   0.536   9.720
 2309SOL    HW1 8824  10.679   0.448   9.758
 2309SOL    HW2 8825  10.769   0.569   9.745
 2310SOL     OW 8826  12.646  11.963   9.104
 2310SOL    HW1 8827  12.575  12.023   9.130
 2310SOL    HW2 8828  12.602  11.895   9.053
 2311SOL     OW 8829   0.920  11.282  13.778
 2311SOL    HW1 8830   0.952  11.192  13.767
 2311SOL    HW2 8831   0.927  11.298  13.873
 2312SOL     OW 8832  13.666   8.619  11.086
 2312SOL    HW1 8833  13.609   8.548  11.054
 2312SOL    HW2 8834  13.625   8.699  11.054
 2313SOL     OW 8835  12.847   3.818   5.556
 2313SOL    HW1 8836  12.882   3.898   5.518
 2313SOL    HW2 8837  12.766   3.845   5.599
 2314SOL     OW 8838   3.926  10.750   9.971
 2314SOL    HW1 8839   3.962  10.814  10.032
 2314SOL    HW2 8840   3.832  10.747   9.993
 2315SOL     OW 8841  10.809   3.216  14.260
 2315SOL    HW1 8842  10.844   3.153  14.323
 2315SOL    HW2 8843  10.778   3.289  14.313
 2316SOL     OW 8844  11.812   9.779   7.171
 2316SOL    HW1 8845  11.830   9.869   7.145
 2316SOL    HW2 8846  11.888   9.753   7.223
 2317SOL     OW 8847   5.065   0.614  14.342
 2317SOL    HW1 8848   5.110   0.530  14.340
 2317SOL    HW2 8849   5.130   0.677  14.311
 2318SOL     OW 8850  13.873  11.551   9.464
 2318SOL    HW1 8851  13.958  11.593   9.454
 2318SOL    HW2 8852  13.850  11.563   9.556
 2319SOL     OW 8853   6.281   6.501  13.272
 2319SOL    HW1 8854   6.315   6.414  13.294
 2319SOL    HW2 8855   6.338   6.561  13.319
 2320SOL     OW 8856   6.792  14.631   6.335
 2320SOL    HW1 8857   6.886  14.613   6.339
 2320SOL    HW2 8858   6.786  14.726   6.348
 2321SOL     OW 8859  10.860   1.488   9.225
 2321SOL    HW1 8860  10.860   1.398   9.192
 2321SOL    HW2 8861  10.874   1.542   9.147
 2322SOL     OW 8862   5.413  14.438   2.357
 2322SOL    HW1 8863   5.339  14.443   2.417
 2322SOL    HW2 8864   5.483  14.398   2.407
 2323SOL     OW 8865  11.039   3.186   9.844
 2323SOL    HW1 8866  11.066   3.109   9.894
 2323SOL    HW2 8867  11.012   3.151   9.759
 2324SOL     OW 8868   1.418   9.927  11.118
 2324SOL    HW1 8869   1.356   9.907  11.048
 2324SOL    HW2 8870   1.458   9.842  11.139
 2325SOL     OW 8871  14.116  10.422   7.914
 2325SOL    HW1 8872  14.021  10.415   7.906
 2325SOL    HW2 8873  14.132  10.432   8.008
 2326SOL     OW 8874   2.080   4.860   7.029
 2326SOL    HW1 8875   1.985   4.860   7.043
 2326SOL    HW2 8876   2.116   4.905   7.105
 2327SOL     OW 8877   5.605   8.437   8.332
 2327SOL    HW1 8878   5.687   8.457   8.377
 2327SOL    HW2 8879   5.595   8.508   8.268
 2328SOL     OW 8880   6.961   7.505   1.346
 2328SOL    HW1 8881   6.909   7.586   1.346
 2328SOL    HW2 8882   7.048   7.533   1.375
 2329SOL     OW 8883   0.124  12.401   3.088
 2329SOL    HW1 8884   0.179  12.466   3.043
 2329SOL    HW2 8885   0.142  12.319   3.042
 2330SOL     OW 8886  14.241   7.629   7.810
 2330SOL    HW1 8887  14.214   7.692   7.742
 2330SOL    HW2 8888  14.264   7.683   7.885
 2331SOL     OW 8889   0.512   7.547   6.524
 2331SOL    HW1 8890   0.485   7.502   6.604
 2331SOL    HW2 8891   0.607   7.554   6.531
 2332SOL     OW 8892   2.379  12.703   1.679
 2332SOL    HW1 8893   2.413  12.684   1.766
 2332SOL    HW2 8894   2.339  12.790   1.688
 2333SOL     OW 8895   0.831  10.560   2.302
 2333SOL    HW1 8896   0.820  10.479   2.353
 2333SOL    HW2 8897   0.865  10.531   2.217
 2334SOL     OW 8898   5.175   0.605  14.645
 2334SOL    HW1 8899   5.150   0.684  14.693
 2334SOL    HW2 8900   5.163   0.627  14.553
 2335SOL     OW 8901   9.946   3.353  10.941
 2335SOL    HW1 8902  10.031   3.324  10.975
 2335SOL    HW2 8903   9.961   3.444  10.914
 2336SOL     OW 8904  14.230   7.544  12.074
 2336SOL    HW1 8905  14.266   7.574  11.991
 2336SOL    HW2 8906  14.291   7.578  12.140
 2337SOL     OW 8907   8.423   6.548   4.921
 2337SOL    HW1 8908   8.389   6.517   5.005
 2337SOL    HW2 8909   8.427   6.644   4.930
 2338SOL     OW 8910  13.471  11.902  11.453
 2338SOL    HW1 8911  13.395  11.883  11.508
 2338SOL    HW2 8912  13.533  11.832  11.473
 2339SOL     OW 8913   8.555   1.132  11.855
 2339SOL    HW1 8914   8.522   1.215  11.820
 2339SOL    HW2 8915   8.589   1.086  11.778
 2340SOL     OW 8916  11.173   3.310  14.259
 2340SOL    HW1 8917  11.155   3.298  14.165
 2340SOL    HW2 8918  11.174   3.405  14.271
 2341SOL     OW 8919   3.686  11.366   7.480
 2341SOL    HW1 8920   3.630  11.390   7.406
 2341SOL    HW2 8921   3.648  11.285   7.514
 2342SOL     OW 8922   6.205   4.953   8.841
 2342SOL    HW1 8923   6.138   5.019   8.822
 2342SOL    HW2 8924   6.246   4.936   8.756
 2343SOL     OW 8925   3.804   0.400   9.841
 2343SOL    HW1 8926   3.754   0.481   9.826
 2343SOL    HW2 8927   3.865   0.397   9.768
 2344SOL     OW 8928  13.599  10.753   9.137
 2344SOL    HW1 8929  13.645  10.686   9.086
 2344SOL    HW2 8930  13.625  10.736   9.227
 2345SOL     OW 8931  10.204   8.623   5.539
 2345SOL    HW1 8932  10.113   8.616   5.567
 2345SOL    HW2 8933  10.229   8.713   5.560
 2346SOL     OW 8934   0.627   9.430   4.901
 2346SOL    HW1 8935   0.573   9.460   4.828
 2346SOL    HW2 8936   0.689   9.501   4.916
 2347SOL     OW 8937  12.966   5.206   2.871
 2347SOL    HW1 8938  12.989   5.118   2.843
 2347SOL    HW2 8939  12.873   5.201   2.896
 2348SOL     OW 8940   5.148   8.982   6.481
 2348SOL    HW1 8941   5.146   8.905   6.538
 2348SOL    HW2 8942   5.160   9.055   6.541
 2349SOL     OW 8943   0.066  10.677  12.329
 2349SOL    HW1 8944   0.052  10.595  12.281
 2349SOL    HW2 8945   0.020  10.665  12.412
 2350SOL     OW 8946   0.092   1.046  11.872
 2350SOL    HW1 8947   0.087   0.958  11.834
 2350SOL    HW2 8948   0.096   1.104  11.796
 2351SOL     OW 8949   3.131  12.490   3.578
 2351SOL    HW1 8950   3.067  12.510   3.510
 2351SOL    HW2 8951   3.191  12.564   3.578
 2352SOL     OW 8952   8.362   7.607  11.501
 2352SOL    HW1 8953   8.332   7.636  11.415
 2352SOL    HW2 8954   8.302   7.537  11.525
 2353SOL     OW 8955   2.741  10.455  13.845
 2353SOL    HW1 8956   2.746  10.360  13.850
 2353SOL    HW2 8957   2.810  10.480  13.784
 2354SOL     OW 8958   7.704   7.694   9.246
 2354SOL    HW1 8959   7.649   7.702   9.324
 2354SOL    HW2 8960   7.746   7.609   9.254
 2355SOL     OW 8961   1.739   2.484   8.780
 2355SOL    HW1 8962   1.709   2.412   8.836
 2355SOL    HW2 8963   1.710   2.460   8.692
 2356SOL     OW 8964  13.819   4.784   9.891
 2356SOL    HW1 8965  13.801   4.728   9.815
 2356SOL    HW2 8966  13.792   4.731   9.966
 2357SOL     OW 8967  11.938  12.971   5.700
 2357SOL    HW1 8968  11.925  13.052   5.650
 2357SOL    HW2 8969  12.004  12.923   5.649
 2358SOL     OW 8970  12.292   0.415   7.223
 2358SOL    HW1 8971  12.240   0.367   7.287
 2358SOL    HW2 8972  12.369   0.359   7.208
 2359SOL     OW 8973  12.547   1.884   6.410
 2359SOL    HW1 8974  12.536   1.789   6.418
 2359SOL    HW2 8975  12.535   1.917   6.499
 2360SOL     OW 8976   0.928   0.781  13.215
 2360SOL    HW1 8977   0.872   0.793  13.292
 2360SOL    HW2 8978   0.918   0.863  13.166
 2361SOL     OW 8979   5.651   6.916   7.991
 2361SOL    HW1 8980   5.620   6.942   8.078
 2361SOL    HW2 8981   5.573   6.885   7.945
 2362SOL     OW 8982   5.763   5.856  11.587
 2362SOL    HW1 8983   5.754   5.902  11.671
 2362SOL    HW2 8984   5.764   5.926  11.521
 2363SOL     OW 8985   8.137   8.831   4.069
 2363SOL    HW1 8986   8.082   8.768   4.023
 2363SOL    HW2 8987   8.158   8.787   4.152
 2364SOL     OW 8988   3.036   7.764   1.165
 2364SOL    HW1 8989   2.967   7.701   1.144
 2364SOL    HW2 8990   3.057   7.806   1.082
 2365SOL     OW 8991  13.733   0.663   6.878
 2365SOL    HW1 8992  13.697   0.686   6.793
 2365SOL    HW2 8993  13.725   0.743   6.930
 2366SOL     OW 8994   3.719   1.521  10.110
 2366SOL    HW1 8995   3.655   1.467  10.064
 2366SOL    HW2 8996   3.712   1.493  10.201
 2367SOL     OW 8997   8.959   8.476  14.159
 2367SOL    HW1 8998   8.877   8.524  14.146
 2367SOL    HW2 8999   8.959   8.452  14.251
 2368SOL     OW 9000   1.217  13.532   5.454
 2368SOL    HW1 9001   1.298  13.521   5.404
 2368SOL    HW2 9002   1.157  13.574   5.393
 2369SOL     OW 9003   4.107   5.291   8.797
 2369SOL    HW1 9004   4.095   5.267   8.889
 2369SOL    HW2 9005   4.200   5.275   8.779
 2370SOL     OW 9006   7.267   3.571   0.986
 2370SOL    HW1 9007   7.325   3.642   0.960
 2370SOL    HW2 9008   7.186   3.586   0.938
 2371SOL     OW 9009   9.193   5.552   1.810
 2371SOL    HW1 9010   9.136   5.629   1.816
 2371SOL    HW2 9011   9.271   5.577   1.861
 2372SOL     OW 9012   7.604  10.059  12.391
 2372SOL    HW1 9013   7.667  10.060  12.463
 2372SOL    HW2 9014   7.519  10.069  12.433
 2373SOL     OW 9015  13.466   3.655  14.410
 2373SOL    HW1 9016  13.425   3.628  14.327
 2373SOL    HW2 9017  13.559   3.656  14.390
 2374SOL     OW 9018   3.801   6.367   3.969
 2374SOL    HW1 9019   3.867   6.369   4.039
 2374SOL    HW2 9020   3.851   6.353   3.889
 2375SOL     OW 9021   0.812  12.827   3.762
 2375SOL    HW1 9022   0.765  12.745   3.777
 2375SOL    HW2 9023   0.750  12.896   3.785
 2376SOL     OW 9024  14.197   9.164  13.431
 2376SOL    HW1 9025  14.253   9.095  13.395
 2376SOL    HW2 9026  14.198   9.232  13.364
 2377SOL     OW 9027  11.625   3.056   0.713
 2377SOL    HW1 9028  11.664   3.143   0.700
 2377SOL    HW2 9029  11.700   2.999   0.730
 2378SOL     OW 9030  14.716  14.866  13.437
 2378SOL    HW1 9031  14.717   0.088  13.423
 2378SOL    HW2 9032  14.718  14.856  13.533
 2379SOL     OW 9033   4.002  11.781   7.574
 2379SOL    HW1 9034   3.944  11.710   7.549
 2379SOL    HW2 9035   4.033  11.756   7.661
 2380SOL     OW 9036   2.798  10.122   9.382
 2380SOL    HW1 9037   2.833  10.047   9.429
 2380SOL    HW2 9038   2.703  10.110   9.384
 2381SOL     OW 9039  11.058   9.002  13.278
 2381SOL    HW1 9040  11.050   9.096  13.291
 2381SOL    HW2 9041  11.030   8.987  13.188
 2382SOL     OW 9042   5.210  10.398   7.183
 2382SOL    HW1 9043   5.123  10.365   7.159
 2382SOL    HW2 9044   5.241  10.337   7.250
 2383SOL     OW 9045   1.617   1.923   5.202
 2383SOL    HW1 9046   1.556   1.854   5.176
 2383SOL    HW2 9047   1.669   1.884   5.272
 2384SOL     OW 9048   2.501   7.643   0.595
 2384SOL    HW1 9049   2.584   7.642   0.644
 2384SOL    HW2 9050   2.505   7.565   0.540
 2385SOL     OW 9051   0.045   4.707   1.610
 2385SOL    HW1 9052   0.026   4.801   1.618
 2385SOL    HW2 9053   0.040   4.690   1.516
 2386SOL     OW 9054  12.561  11.868  11.461
 2386SOL    HW1 9055  12.638  11.849  11.408
 2386SOL    HW2 9056  12.567  11.962  11.479
 2387SOL     OW 9057   6.491   6.085  12.232
 2387SOL    HW1 9058   6.467   6.178  12.232
 2387SOL    HW2 9059   6.490   6.060  12.325
 2388SOL     OW 9060  13.099   4.164  12.250
 2388SOL    HW1 9061  13.137   4.146  12.164
 2388SOL    HW2 9062  13.007   4.185  12.231
 2389SOL     OW 9063   0.570   1.958   0.738
 2389SOL    HW1 9064   0.626   1.938   0.814
 2389SOL    HW2 9065   0.530   1.874   0.715
 2390SOL     OW 9066   3.955  10.266   4.097
 2390SOL    HW1 9067   3.902  10.268   4.017
 2390SOL    HW2 9068   4.033  10.317   4.076
 2391SOL     OW 9069   7.420  10.900   7.026
 2391SOL    HW1 9070   7.436  10.933   7.115
 2391SOL    HW2 9071   7.399  10.978   6.975
 2392SOL     OW 9072  11.458   8.927  13.620
 2392SOL    HW1 9073  11.416   8.969  13.545
 2392SOL    HW2 9074  11.547   8.908  13.589
 2393SOL     OW 9075   4.732   4.407  12.689
 2393SOL    HW1 9076   4.647   4.369  12.666
 2393SOL    HW2 9077   4.747   4.379  12.779
 2394SOL     OW 9078   2.476  14.222   8.153
 2394SOL    HW1 9079   2.542  14.160   8.123
 2394SOL    HW2 9080   2.519  14.308   8.149
 2395SOL     OW 9081   6.728  14.585   3.462
 2395SOL    HW1 9082   6.679  14.510   3.496
 2395SOL    HW2 9083   6.691  14.601   3.375
 2396SOL     OW 9084  13.944   2.174  10.453
 2396SOL    HW1 9085  14.030   2.216  10.446
 2396SOL    HW2 9086  13.943   2.135  10.540
 2397SOL     OW 9087   1.658   8.660   7.353
 2397SOL    HW1 9088   1.624   8.647   7.441
 2397SOL    HW2 9089   1.742   8.704   7.366
 2398SOL     OW 9090   9.464   4.606  12.892
 2398SOL    HW1 9091   9.498   4.649  12.970
 2398SOL    HW2 9092   9.390   4.659  12.864
 2399SOL     OW 9093  10.455   2.817   1.927
 2399SOL    HW1 9094  10.445   2.746   1.991
 2399SOL    HW2 9095  10.435   2.776   1.843
 2400SOL     OW 9096   0.739   7.140   9.932
 2400SOL    HW1 9097   0.723   7.234   9.934
 2400SOL    HW2 9098   0.659   7.101   9.968
 2401SOL     OW 9099   2.850   2.946   0.924
 2401SOL    HW1 9100   2.892   2.862   0.906
 2401SOL    HW2 9101   2.802   2.967   0.844
 2402SOL     OW 9102   6.364   9.953  13.714
 2402SOL    HW1 9103   6.337   9.877  13.662
 2402SOL    HW2 9104   6.294   9.963  13.779
 2403SOL     OW 9105   9.924   6.432  11.883
 2403SOL    HW1 9106   9.894   6.480  11.806
 2403SOL    HW2 9107   9.864   6.459  11.952
 2404SOL     OW 9108  14.412   4.245  11.680
 2404SOL    HW1 9109  14.472   4.218  11.612
 2404SOL    HW2 9110  14.356   4.169  11.694
 2405SOL     OW 9111   0.081   2.477  13.949
 2405SOL    HW1 9112   0.135   2.402  13.973
 2405SOL    HW2 9113   0.002   2.439  13.910
 2406SOL     OW 9114   1.746   7.723   7.520
 2406SOL    HW1 9115   1.825   7.670   7.532
 2406SOL    HW2 9116   1.776   7.813   7.521
 2407SOL     OW 9117  13.254   1.880  13.317
 2407SOL    HW1 9118  13.314   1.955  13.311
 2407SOL    HW2 9119  13.280   1.834  13.397
 2408SOL     OW 9120  13.117  12.348  12.821
 2408SOL    HW1 9121  13.107  12.433  12.778
 2408SOL    HW2 9122  13.030  12.326  12.852
 2409SOL     OW 9123   7.744   1.151   8.060
 2409SOL    HW1 9124   7.678   1.219   8.066
 2409SOL    HW2 9125   7.699   1.071   8.089
 2410SOL     OW 9126  13.417   4.152   2.536
 2410SOL    HW1 9127  13.369   4.169   2.454
 2410SOL    HW2 9128  13.461   4.069   2.521
 2411SOL     OW 9129   7.143   9.033   0.836
 2411SOL    HW1 9130   7.196   9.034   0.757
 2411SOL    HW2 9131   7.053   9.022   0.805
 2412SOL     OW 9132  13.153  14.545  12.453
 2412SOL    HW1 9133  13.156  14.507  12.541
 2412SOL    HW2 9134  13.128  14.471  12.397
 2413SOL     OW 9135   4.866   6.770  12.327
 2413SOL    HW1 9136   4.893   6.737  12.241
 2413SOL    HW2 9137   4.942   6.817  12.360
 2414SOL     OW 9138   1.788   6.257   6.581
 2414SOL    HW1 9139   1.831   6.172   6.572
 2414SOL    HW2 9140   1.802   6.300   6.496
 2415SOL     OW 9141  14.566   8.403   5.302
 2415SOL    HW1 9142  14.660   8.420   5.300
 2415SOL    HW2 9143  14.541   8.416   5.394
 2416SOL     OW 9144   3.156  13.912  10.026
 2416SOL    HW1 9145   3.067  13.889  10.000
 2416SOL    HW2 9146   3.166  14.004  10.000
 2417SOL     OW 9147  14.684  13.553   7.659
 2417SOL    HW1 9148  14.637  13.494   7.600
 2417SOL    HW2 9149  14.775  13.549   7.629
 2418SOL     OW 9150  14.476   0.182   5.863
 2418SOL    HW1 9151  14.418   0.199   5.789
 2418SOL    HW2 9152  14.555   0.232   5.843
 2419SOL     OW 9153   6.002  10.775  14.281
 2419SOL    HW1 9154   5.959  10.710  14.224
 2419SOL    HW2 9155   6.061  10.723  14.336
 2420SOL     OW 9156   4.317   9.358   4.341
 2420SOL    HW1 9157   4.397   9.385   4.387
 2420SOL    HW2 9158   4.348   9.331   4.254
 2421SOL     OW 9159   0.047   7.383   2.241
 2421SOL    HW1 9160   0.073   7.291   2.236
 2421SOL    HW2 9161  14.861   7.396   2.166
 2422SOL     OW 9162   1.803   2.910   4.941
 2422SOL    HW1 9163   1.757   2.993   4.929
 2422SOL    HW2 9164   1.761   2.870   5.017
 2423SOL     OW 9165   3.282   7.628   4.743
 2423SOL    HW1 9166   3.357   7.599   4.692
 2423SOL    HW2 9167   3.308   7.614   4.834
 2424SOL     OW 9168  12.137   0.934   3.848
 2424SOL    HW1 9169  12.056   0.887   3.868
 2424SOL    HW2 9170  12.146   0.997   3.919
 2425SOL     OW 9171  10.193   5.414   0.633
 2425SOL    HW1 9172  10.104   5.448   0.620
 2425SOL    HW2 9173  10.210   5.424   0.727
 2426SOL     OW 9174   5.352   1.121  11.120
 2426SOL    HW1 9175   5.438   1.117  11.078
 2426SOL    HW2 9176   5.369   1.163  11.205
 2427SOL     OW 9177  14.777   0.537  14.865
 2427SOL    HW1 9178  14.749   0.453  14.828
 2427SOL    HW2 9179  14.871   0.526   0.008
 2428SOL     OW 9180   9.051   6.390   3.998
 2428SOL    HW1 9181   9.109   6.448   3.949
 2428SOL    HW2 9182   8.964   6.430   3.989
 2429SOL     OW 9183   0.189   0.910  10.726
 2429SOL    HW1 9184   0.127   0.955  10.668
 2429SOL    HW2 9185   0.136   0.882  10.801
 2430SOL     OW 9186   0.620   3.473   8.546
 2430SOL    HW1 9187   0.604   3.543   8.609
 2430SOL    HW2 9188   0.534   3.455   8.508
 2431SOL     OW 9189   5.258  13.468   1.055
 2431SOL    HW1 9190   5.167  13.461   1.084
 2431SOL    HW2 9191   5.254  13.452   0.960
 2432SOL     OW 9192   6.993  12.825   4.531
 2432SOL    HW1 9193   7.034  12.890   4.587
 2432SOL    HW2 9194   6.916  12.796   4.579
 2433SOL     OW 9195  12.476   2.566   9.518
 2433SOL    HW1 9196  12.564   2.604   9.525
 2433SOL    HW2 9197  12.417   2.639   9.537
 2434SOL     OW 9198  12.456   7.822  12.378
 2434SOL    HW1 9199  12.423   7.749  12.327
 2434SOL    HW2 9200  12.385   7.842  12.440
 2435SOL     OW 9201   5.409   8.097  10.932
 2435SOL    HW1 9202   5.424   8.129  10.842
 2435SOL    HW2 9203   5.457   8.159  10.987
 2436SOL     OW 9204  14.190   7.117  11.252
 2436SOL    HW1 9205  14.173   7.194  11.307
 2436SOL    HW2 9206  14.102   7.084  11.230
 2437SOL     OW 9207   3.113  12.395  14.363
 2437SOL    HW1 9208   3.017  12.389  14.365
 2437SOL    HW2 9209   3.142  12.309  14.394
 2438SOL     OW 9210   7.305  13.453   6.590
 2438SOL    HW1 9211   7.297  13.441   6.685
 2438SOL    HW2 9212   7.323  13.546   6.579
 2439SOL     OW 9213  11.745   6.468  13.229
 2439SOL    HW1 9214  11.824   6.463  13.282
 2439SOL    HW2 9215  11.692   6.393  13.257
 2440SOL     OW 9216   5.075   4.074   8.100
 2440SOL    HW1 9217   5.146   4.048   8.041
 2440SOL    HW2 9218   5.044   3.992   8.138
 2441SOL     OW 9219   7.737   7.432   6.351
 2441SOL    HW1 9220   7.752   7.426   6.257
 2441SOL    HW2 9221   7.659   7.379   6.366
 2442SOL     OW 9222   1.740   8.045  12.933
 2442SOL    HW1 9223   1.693   8.109  12.988
 2442SOL    HW2 9224   1.799   8.001  12.994
 2443SOL     OW 9225   3.971  14.517   7.023
 2443SOL    HW1 9226   3.960  14.441   7.080
 2443SOL    HW2 9227   4.064  14.517   7.002
 2444SOL     OW 9228   9.152   5.478   1.016
 2444SOL    HW1 9229   9.232   5.440   1.054
 2444SOL    HW2 9230   9.107   5.404   0.977
 2445SOL     OW 9231  13.458   9.250   7.983
 2445SOL    HW1 9232  13.364   9.243   8.003
 2445SOL    HW2 9233  13.486   9.159   7.970
 2446SOL     OW 9234   9.847   4.081   8.672
 2446SOL    HW1 9235   9.821   4.100   8.581
 2446SOL    HW2 9236   9.885   4.162   8.704
 2447SOL     OW 9237   9.487  10.820  11.779
 2447SOL    HW1 9238   9.579  10.833  11.756
 2447SOL    HW2 9239   9.439  10.844  11.700
 2448SOL     OW 9240   1.896   4.431  12.051
 2448SOL    HW1 9241   1.986   4.424  12.081
 2448SOL    HW2 9242   1.847   4.368  12.104
 2449SOL     OW 9243   8.466   2.597  10.032
 2449SOL    HW1 9244   8.389   2.651  10.051
 2449SOL    HW2 9245   8.510   2.587  10.116
 2450SOL     OW 9246   0.534   6.960  11.388
 2450SOL    HW1 9247   0.482   7.030  11.348
 2450SOL    HW2 9248   0.618   7.001  11.408
 2451SOL     OW 9249   7.335  14.819  12.061
 2451SOL    HW1 9250   7.382  14.770  11.994
 2451SOL    HW2 9251   7.273  14.757  12.098
 2452SOL     OW 9252   0.621   1.337   1.803
 2452SOL    HW1 9253   0.647   1.410   1.859
 2452SOL    HW2 9254   0.610   1.376   1.716
 2453SOL     OW 9255  13.944  11.933   3.676
 2453SOL    HW1 9256  13.885  11.865   3.643
 2453SOL    HW2 9257  14.012  11.939   3.609
 2454SOL     OW 9258   5.098   6.751   1.664
 2454SOL    HW1 9259   5.074   6.810   1.735
 2454SOL    HW2 9260   5.039   6.677   1.673
 2455SOL     OW 9261  10.236  13.717   2.020
 2455SOL    HW1 9262  10.318  13.740   2.063
 2455SOL    HW2 9263  10.198  13.801   1.995
 2456SOL     OW 9264  13.147   0.950   5.959
 2456SOL    HW1 9265  13.178   0.932   6.047
 2456SOL    HW2 9266  13.170   0.872   5.908
 2457SOL     OW 9267   0.661   5.231   9.039
 2457SOL    HW1 9268   0.631   5.183   8.962
 2457SOL    HW2 9269   0.677   5.320   9.008
 2458SOL     OW 9270   2.969  10.446   2.392
 2458SOL    HW1 9271   2.961  10.536   2.422
 2458SOL    HW2 9272   3.048  10.445   2.338
 2459SOL     OW 9273   8.397  12.313  12.815
 2459SOL    HW1 9274   8.443  12.322  12.899
 2459SOL    HW2 9275   8.390  12.403  12.782
 2460SOL     OW 9276   3.167  13.850  10.326
 2460SOL    HW1 9277   3.086  13.813  10.360
 2460SOL    HW2 9278   3.143  13.888  10.241
 2461SOL     OW 9279   7.758  13.876   2.471
 2461SOL    HW1 9280   7.825  13.858   2.537
 2461SOL    HW2 9281   7.804  13.867   2.387
 2462SOL     OW 9282  12.233   2.766   5.631
 2462SOL    HW1 9283  12.146   2.764   5.592
 2462SOL    HW2 9284  12.289   2.722   5.567
 2463SOL     OW 9285   6.124   5.562   2.198
 2463SOL    HW1 9286   6.169   5.482   2.171
 2463SOL    HW2 9287   6.032   5.547   2.177
 2464SOL     OW 9288  14.767   8.645   8.063
 2464SOL    HW1 9289  14.839   8.621   8.005
 2464SOL    HW2 9290  14.714   8.566   8.070
 2465SOL     OW 9291   9.328   0.633   4.770
 2465SOL    HW1 9292   9.290   0.714   4.805
 2465SOL    HW2 9293   9.422   0.642   4.786
 2466SOL     OW 9294  12.102  13.886   1.899
 2466SOL    HW1 9295  12.017  13.868   1.939
 2466SOL    HW2 9296  12.145  13.800   1.895
 2467SOL     OW 9297   4.090  13.018   9.707
 2467SOL    HW1 9298   4.101  13.112   9.715
 2467SOL    HW2 9299   4.151  12.982   9.772
 2468SOL     OW 9300  10.585   8.014   8.219
 2468SOL    HW1 9301  10.651   7.958   8.180
 2468SOL    HW2 9302  10.635   8.089   8.254
 2469SOL     OW 9303   9.446  12.849   1.012
 2469SOL    HW1 9304   9.475  12.802   0.933
 2469SOL    HW2 9305   9.400  12.926   0.978
 2470SOL     OW 9306   9.227   0.645  14.026
 2470SOL    HW1 9307   9.287   0.716  14.050
 2470SOL    HW2 9308   9.141   0.674  14.057
 2471SOL     OW 9309   0.828  14.095   3.910
 2471SOL    HW1 9310   0.845  14.055   3.825
 2471SOL    HW2 9311   0.893  14.165   3.917
 2472SOL     OW 9312   7.603   3.757   3.637
 2472SOL    HW1 9313   7.603   3.849   3.663
 2472SOL    HW2 9314   7.695   3.735   3.625
 2473SOL     OW 9315  14.302   1.268   4.478
 2473SOL    HW1 9316  14.266   1.271   4.567
 2473SOL    HW2 9317  14.308   1.359   4.451
 2474SOL     OW 9318   3.765   1.750   0.517
 2474SOL    HW1 9319   3.838   1.799   0.481
 2474SOL    HW2 9320   3.691   1.771   0.459
 2475SOL     OW 9321   8.976  13.552   4.069
 2475SOL    HW1 9322   9.063  13.560   4.108
 2475SOL    HW2 9323   8.966  13.459   4.048
 2476SOL     OW 9324   9.573  14.759   1.405
 2476SOL    HW1 9325   9.551  14.852   1.404
 2476SOL    HW2 9326   9.537  14.725   1.323
 2477SOL     OW 9327  12.888   6.768  10.865
 2477SOL    HW1 9328  12.907   6.850  10.910
 2477SOL    HW2 9329  12.955   6.707  10.896
 2478SOL     OW 9330  13.200   6.910  11.985
 2478SOL    HW1 9331  13.266   6.906  12.054
 2478SOL    HW2 9332  13.236   6.971  11.921
 2479SOL     OW 9333   5.744   4.859   9.541
 2479SOL    HW1 9334   5.767   4.767   9.550
 2479SOL    HW2 9335   5.780   4.901   9.619
 2480SOL     OW 9336   5.601   3.965  14.341
 2480SOL    HW1 9337   5.552   3.941  14.262
 2480SOL    HW2 9338   5.690   3.981  14.310
 2481SOL     OW 9339   1.781  14.303   8.209
 2481SOL    HW1 9340   1.786  14.208   8.201
 2481SOL    HW2 9341   1.785  14.335   8.118
 2482SOL     OW 9342   5.046   7.516   5.540
 2482SOL    HW1 9343   5.096   7.597   5.536
 2482SOL    HW2 9344   4.955   7.543   5.533
 2483SOL     OW 9345   4.393   2.852  13.284
 2483SOL    HW1 9346   4.481   2.887  13.289
 2483SOL    HW2 9347   4.368   2.859  13.192
 2484SOL     OW 9348   4.694   2.536   5.681
 2484SOL    HW1 9349   4.739   2.615   5.652
 2484SOL    HW2 9350   4.714   2.471   5.614
 2485SOL     OW 9351   3.708   8.787   2.345
 2485SOL    HW1 9352   3.727   8.753   2.432
 2485SOL    HW2 9353   3.778   8.850   2.327
 2486SOL     OW 9354  14.685   8.142   1.912
 2486SOL    HW1 9355  14.684   8.145   1.817
 2486SOL    HW2 9356  14.665   8.232   1.939
 2487SOL     OW 9357  12.550   0.836   5.233
 2487SOL    HW1 9358  12.607   0.760   5.244
 2487SOL    HW2 9359  12.461   0.801   5.246
 2488SOL     OW 9360   0.583   4.157   2.004
 2488SOL    HW1 9361   0.560   4.109   2.083
 2488SOL    HW2 9362   0.503   4.157   1.951
 2489SOL     OW 9363   4.937  12.298   7.056
 2489SOL    HW1 9364   4.992  12.252   6.992
 2489SOL    HW2 9365   4.922  12.234   7.125
 2490SOL     OW 9366   4.534   3.721  10.545
 2490SOL    HW1 9367   4.586   3.663  10.600
 2490SOL    HW2 9368   4.449   3.726  10.588
 2491SOL     OW 9369   9.868  11.883   2.294
 2491SOL    HW1 9370   9.919  11.830   2.355
 2491SOL    HW2 9371   9.785  11.899   2.339
 2492SOL     OW 9372   0.148  13.609  12.882
 2492SOL    HW1 9373   0.156  13.520  12.850
 2492SOL    HW2 9374   0.238  13.638  12.895
 2493SOL     OW 9375   7.436   1.518   5.454
 2493SOL    HW1 9376   7.451   1.428   5.483
 2493SOL    HW2 9377   7.368   1.551   5.513
 2494SOL     OW 9378  10.518   1.479   1.203
 2494SOL    HW1 9379  10.484   1.436   1.282
 2494SOL    HW2 9380  10.499   1.418   1.132
 2495SOL     OW 9381  13.289   1.193   0.579
 2495SOL    HW1 9382  13.230   1.268   0.566
 2495SOL    HW2 9383  13.231   1.124   0.611
 2496SOL     OW 9384  11.967   4.191  10.106
 2496SOL    HW1 9385  12.046   4.145  10.135
 2496SOL    HW2 9386  11.994   4.236  10.025
 2497SOL     OW 9387  12.697  13.585   6.183
 2497SOL    HW1 9388  12.750  13.535   6.246
 2497SOL    HW2 9389  12.703  13.676   6.213
 2498SOL     OW 9390  10.824  10.726   5.043
 2498SOL    HW1 9391  10.833  10.701   5.135
 2498SOL    HW2 9392  10.913  10.720   5.008
 2499SOL     OW 9393  11.793   9.288  10.880
 2499SOL    HW1 9394  11.755   9.345  10.947
 2499SOL    HW2 9395  11.888   9.299  10.890
 2500SOL     OW 9396   5.277  12.304   7.786
 2500SOL    HW1 9397   5.217  12.366   7.745
 2500SOL    HW2 9398   5.230  12.221   7.785
 2501SOL     OW 9399   3.892  13.906  14.021
 2501SOL    HW1 9400   3.850  13.991  14.026
 2501SOL    HW2 9401   3.981  13.925  13.992
 2502SOL     OW 9402   0.202  11.341   7.124
 2502SOL    HW1 9403   0.224  11.334   7.217
 2502SOL    HW2 9404   0.200  11.436   7.108
 2503SOL     OW 9405   2.802   7.708   7.047
 2503SOL    HW1 9406   2.786   7.663   7.129
 2503SOL    HW2 9407   2.844   7.791   7.073
 2504SOL     OW 9408   6.313   3.563  12.928
 2504SOL    HW1 9409   6.309   3.582  12.835
 2504SOL    HW2 9410   6.373   3.628  12.964
 2505SOL     OW 9411   3.615  11.435  10.226
 2505SOL    HW1 9412   3.671  11.395  10.159
 2505SOL    HW2 9413   3.677  11.465  10.293
 2506SOL     OW 9414  12.426   1.602  14.137
 2506SOL    HW1 9415  12.400   1.519  14.178
 2506SOL    HW2 9416  12.485   1.575  14.066
 2507SOL     OW 9417  11.483   8.095   3.106
 2507SOL    HW1 9418  11.492   8.187   3.080
 2507SOL    HW2 9419  11.449   8.052   3.027
 2508SOL     OW 9420   9.779  13.406   8.302
 2508SOL    HW1 9421   9.725  13.466   8.354
 2508SOL    HW2 9422   9.767  13.436   8.212
 2509SOL     OW 9423   3.025   0.855   0.604
 2509SOL    HW1 9424   3.067   0.771   0.626
 2509SOL    HW2 9425   3.066   0.881   0.522
 2510SOL     OW 9426  13.644  10.007   5.137
 2510SOL    HW1 9427  13.708   9.940   5.114
 2510SOL    HW2 9428  13.619   9.987   5.227
 2511SOL     OW 9429  13.401  11.231  12.816
 2511SOL    HW1 9430  13.346  11.297  12.774
 2511SOL    HW2 9431  13.413  11.163  12.749
 2512SOL     OW 9432  10.954   8.253  12.014
 2512SOL    HW1 9433  10.975   8.346  12.009
 2512SOL    HW2 9434  11.035   8.208  11.991
 2513SOL     OW 9435  10.800  10.680   8.553
 2513SOL    HW1 9436  10.853  10.759   8.547
 2513SOL    HW2 9437  10.765  10.668   8.464
 2514SOL     OW 9438  14.451  13.688  11.815
 2514SOL    HW1 9439  14.399  13.610  11.836
 2514SOL    HW2 9440  14.537  13.669  11.852
 2515SOL     OW 9441  13.587   5.164   4.630
 2515SOL    HW1 9442  13.645   5.107   4.579
 2515SOL    HW2 9443  13.595   5.250   4.589
 2516SOL     OW 9444   2.047   5.390  12.633
 2516SOL    HW1 9445   2.021   5.457  12.569
 2516SOL    HW2 9446   1.988   5.317  12.617
 2517SOL     OW 9447  10.208  13.935   5.010
 2517SOL    HW1 9448  10.126  13.888   4.995
 2517SOL    HW2 9449  10.263  13.872   5.057
 2518SOL     OW 9450  13.537  11.850   8.773
 2518SOL    HW1 9451  13.516  11.943   8.774
 2518SOL    HW2 9452  13.454  11.806   8.755
 2519SOL     OW 9453   2.486   1.155   6.663
 2519SOL    HW1 9454   2.434   1.112   6.596
 2519SOL    HW2 9455   2.456   1.246   6.663
 2520SOL     OW 9456   3.124   6.684   1.857
 2520SOL    HW1 9457   3.145   6.773   1.885
 2520SOL    HW2 9458   3.178   6.628   1.913
 2521SOL     OW 9459   2.275  11.200  11.932
 2521SOL    HW1 9460   2.184  11.229  11.922
 2521SOL    HW2 9461   2.278  11.165  12.021
 2522SOL     OW 9462  13.679   0.783   1.053
 2522SOL    HW1 9463  13.701   0.843   0.982
 2522SOL    HW2 9464  13.736   0.707   1.039
 2523SOL     OW 9465  13.004  13.960  12.323
 2523SOL    HW1 9466  12.961  14.040  12.353
 2523SOL    HW2 9467  12.995  13.899  12.396
 2524SOL     OW 9468  14.610  11.463   1.900
 2524SOL    HW1 9469  14.607  11.375   1.938
 2524SOL    HW2 9470  14.640  11.519   1.972
 2525SOL     OW 9471  10.115   9.008  11.062
 2525SOL    HW1 9472  10.101   8.990  10.969
 2525SOL    HW2 9473  10.061   9.084  11.081
 2526SOL     OW 9474   3.034   0.261   7.015
 2526SOL    HW1 9475   3.006   0.306   6.935
 2526SOL    HW2 9476   3.000   0.172   7.006
 2527SOL     OW 9477   8.407   2.755   1.972
 2527SOL    HW1 9478   8.372   2.766   2.060
 2527SOL    HW2 9479   8.497   2.786   1.977
 2528SOL     OW 9480   6.856   3.084   6.895
 2528SOL    HW1 9481   6.938   3.082   6.946
 2528SOL    HW2 9482   6.790   3.111   6.958
 2529SOL     OW 9483   8.650   5.101   5.845
 2529SOL    HW1 9484   8.740   5.080   5.818
 2529SOL    HW2 9485   8.654   5.192   5.874
 2530SOL     OW 9486   5.006   9.073   2.967
 2530SOL    HW1 9487   5.009   8.997   2.909
 2530SOL    HW2 9488   5.009   9.149   2.908
 2531SOL     OW 9489   4.376   8.860  14.514
 2531SOL    HW1 9490   4.417   8.789  14.564
 2531SOL    HW2 9491   4.381   8.831  14.423
 2532SOL     OW 9492  10.790  14.503   9.336
 2532SOL    HW1 9493  10.766  14.582   9.287
 2532SOL    HW2 9494  10.878  14.483   9.308
 2533SOL     OW 9495   1.185   9.444   4.364
 2533SOL    HW1 9496   1.251   9.441   4.434
 2533SOL    HW2 9497   1.151   9.355   4.359
 2534SOL     OW 9498   0.274  12.862   7.387
 2534SOL    HW1 9499   0.229  12.853   7.303
 2534SOL    HW2 9500   0.215  12.917   7.439
 2535SOL     OW 9501   5.583   0.715  13.038
 2535SOL    HW1 9502   5.536   0.779  13.091
 2535SOL    HW2 9503   5.538   0.632  13.056
 2536SOL     OW 9504   9.649   8.675  13.270
 2536SOL    HW1 9505   9.718   8.711  13.214
 2536SOL    HW2 9506   9.573   8.670  13.213
 2537SOL     OW 9507   5.782   3.752  10.024
 2537SOL    HW1 9508   5.728   3.820   9.983
 2537SOL    HW2 9509   5.863   3.752   9.972
 2538SOL     OW 9510   4.110  12.594   2.501
 2538SOL    HW1 9511   4.117  12.554   2.587
 2538SOL    HW2 9512   4.121  12.520   2.440
 2539SOL     OW 9513   3.965   9.599   0.231
 2539SOL    HW1 9514   3.889   9.576   0.177
 2539SOL    HW2 9515   4.040   9.592   0.172
 2540SOL     OW 9516   8.164   1.451   6.720
 2540SOL    HW1 9517   8.121   1.475   6.638
 2540SOL    HW2 9518   8.093   1.449   6.784
 2541SOL     OW 9519  13.683   8.677   2.444
 2541SOL    HW1 9520  13.592   8.651   2.456
 2541SOL    HW2 9521  13.690   8.762   2.487
 2542SOL     OW 9522  12.810   6.661   6.824
 2542SOL    HW1 9523  12.819   6.576   6.868
 2542SOL    HW2 9524  12.754   6.643   6.748
 2543SOL     OW 9525   0.163   4.863   5.809
 2543SOL    HW1 9526   0.068   4.869   5.808
 2543SOL    HW2 9527   0.191   4.914   5.733
 2544SOL     OW 9528  14.004   8.683   1.038
 2544SOL    HW1 9529  13.954   8.756   1.000
 2544SOL    HW2 9530  14.036   8.717   1.122
 2545SOL     OW 9531   7.353  11.566  10.845
 2545SOL    HW1 9532   7.415  11.631  10.878
 2545SOL    HW2 9533   7.389  11.482  10.876
 2546SOL     OW 9534   7.597  13.946  12.327
 2546SOL    HW1 9535   7.673  13.992  12.364
 2546SOL    HW2 9536   7.543  13.923  12.403
 2547SOL     OW 9537   5.438  13.594   6.639
 2547SOL    HW1 9538   5.511  13.535   6.659
 2547SOL    HW2 9539   5.478  13.681   6.635
 2548SOL     OW 9540   2.782  12.581  11.788
 2548SOL    HW1 9541   2.783  12.496  11.745
 2548SOL    HW2 9542   2.861  12.582  11.842
 2549SOL     OW 9543  10.475   4.082  13.576
 2549SOL    HW1 9544  10.432   4.095  13.660
 2549SOL    HW2 9545  10.403   4.072  13.513
 2550SOL     OW 9546   1.702   8.016   0.946
 2550SOL    HW1 9547   1.781   8.063   0.972
 2550SOL    HW2 9548   1.706   7.933   0.994
 2551SOL     OW 9549   2.442  12.095  12.543
 2551SOL    HW1 9550   2.442  12.190  12.527
 2551SOL    HW2 9551   2.490  12.058  12.468
 2552SOL     OW 9552   1.585  13.461  12.564
 2552SOL    HW1 9553   1.667  13.510  12.557
 2552SOL    HW2 9554   1.542  13.475  12.480
 2553SOL     OW 9555  10.158  10.249   9.087
 2553SOL    HW1 9556  10.075  10.260   9.040
 2553SOL    HW2 9557  10.204  10.181   9.039
 2554SOL     OW 9558  10.274  11.133  11.783
 2554SOL    HW1 9559  10.361  11.156  11.748
 2554SOL    HW2 9560  10.218  11.128  11.706
 2555SOL     OW 9561   7.496  14.669   4.960
 2555SOL    HW1 9562   7.491  14.608   5.034
 2555SOL    HW2 9563   7.443  14.627   4.892
 2556SOL     OW 9564   3.947   9.280   5.205
 2556SOL    HW1 9565   3.862   9.316   5.182
 2556SOL    HW2 9566   3.977   9.234   5.127
 2557SOL     OW 9567   2.610   4.731   3.047
 2557SOL    HW1 9568   2.537   4.732   2.986
 2557SOL    HW2 9569   2.604   4.646   3.091
 2558SOL     OW 9570   4.704   9.989  13.563
 2558SOL    HW1 9571   4.733   9.903  13.531
 2558SOL    HW2 9572   4.775  10.018  13.621
 2559SOL     OW 9573  14.371  11.250   3.420
 2559SOL    HW1 9574  14.337  11.291   3.500
 2559SOL    HW2 9575  14.298  11.197   3.388
 2560SOL     OW 9576   5.740   2.802   0.769
 2560SOL    HW1 9577   5.737   2.708   0.750
 2560SOL    HW2 9578   5.702   2.810   0.856
 2561SOL     OW 9579   0.631   6.869  14.818
 2561SOL    HW1 9580   0.621   6.846   0.038
 2561SOL    HW2 9581   0.588   6.954  14.809
 2562SOL     OW 9582   2.884   0.974  11.919
 2562SOL    HW1 9583   2.975   1.004  11.924
 2562SOL    HW2 9584   2.886   0.886  11.956
 2563SOL     OW 9585  10.624  13.075   9.945
 2563SOL    HW1 9586  10.657  12.990   9.976
 2563SOL    HW2 9587  10.625  13.068   9.849
 2564SOL     OW 9588  12.151   4.980  13.483
 2564SOL    HW1 9589  12.218   4.919  13.454
 2564SOL    HW2 9590  12.076   4.924  13.505
 2565SOL     OW 9591   8.135   2.899  10.419
 2565SOL    HW1 9592   8.144   2.979  10.368
 2565SOL    HW2 9593   8.210   2.900  10.478
 2566SOL     OW 9594  12.912   6.958  12.944
 2566SOL    HW1 9595  12.912   7.002  13.029
 2566SOL    HW2 9596  12.847   7.006  12.893
 2567SOL     OW 9597   0.217   2.544   4.473
 2567SOL    HW1 9598   0.152   2.532   4.403
 2567SOL    HW2 9599   0.278   2.609   4.437
 2568SOL     OW 9600   3.028   9.797   2.425
 2568SOL    HW1 9601   2.953   9.744   2.397
 2568SOL    HW2 9602   3.010   9.884   2.391
 2569SOL     OW 9603   2.081  10.218   7.512
 2569SOL    HW1 9604   2.049  10.158   7.445
 2569SOL    HW2 9605   2.155  10.263   7.471
 2570SOL     OW 9606   0.196   1.751   0.892
 2570SOL    HW1 9607   0.173   1.819   0.828
 2570SOL    HW2 9608   0.270   1.788   0.941
 2571SOL     OW 9609  13.040   4.588   9.613
 2571SOL    HW1 9610  13.062   4.659   9.553
 2571SOL    HW2 9611  13.012   4.516   9.556
 2572SOL     OW 9612   6.006  13.270   3.511
 2572SOL    HW1 9613   6.018  13.198   3.449
 2572SOL    HW2 9614   5.913  13.291   3.505
 2573SOL     OW 9615   8.168  11.055   3.818
 2573SOL    HW1 9616   8.101  10.989   3.832
 2573SOL    HW2 9617   8.157  11.081   3.726
 2574SOL     OW 9618   0.443   6.604  12.495
 2574SOL    HW1 9619   0.372   6.607  12.559
 2574SOL    HW2 9620   0.403   6.566  12.417
 2575SOL     OW 9621  12.785   8.462   7.995
 2575SOL    HW1 9622  12.805   8.542   7.946
 2575SOL    HW2 9623  12.871   8.428   8.020
 2576SOL     OW 9624  12.313   0.623   7.715
 2576SOL    HW1 9625  12.345   0.616   7.805
 2576SOL    HW2 9626  12.367   0.691   7.675
 2577SOL     OW 9627   8.781   2.802  14.288
 2577SOL    HW1 9628   8.696   2.762  14.308
 2577SOL    HW2 9629   8.841   2.728  14.283
 2578SOL     OW 9630   3.702   2.896   5.612
 2578SOL    HW1 9631   3.707   2.853   5.697
 2578SOL    HW2 9632   3.785   2.876   5.569
 2579SOL     OW 9633  14.576   7.780   3.510
 2579SOL    HW1 9634  14.630   7.702   3.496
 2579SOL    HW2 9635  14.575   7.791   3.605
 2580SOL     OW 9636  12.864   4.446   0.671
 2580SOL    HW1 9637  12.942   4.423   0.722
 2580SOL    HW2 9638  12.829   4.524   0.715
 2581SOL     OW 9639  10.943  11.284   5.962
 2581SOL    HW1 9640  10.956  11.252   6.052
 2581SOL    HW2 9641  11.029  11.274   5.921
 2582SOL     OW 9642   7.826   9.292  12.019
 2582SOL    HW1 9643   7.829   9.290  12.114
 2582SOL    HW2 9644   7.867   9.210  11.992
 2583SOL     OW 9645  14.565   6.967   0.217
 2583SOL    HW1 9646  14.650   6.935   0.246
 2583SOL    HW2 9647  14.580   7.000   0.128
 2584SOL     OW 9648   0.731  13.563  10.158
 2584SOL    HW1 9649   0.702  13.601  10.241
 2584SOL    HW2 9650   0.686  13.479  10.152
 2585SOL     OW 9651   9.862   6.289   5.086
 2585SOL    HW1 9652   9.944   6.239   5.090
 2585SOL    HW2 9653   9.811   6.245   5.018
 2586SOL     OW 9654   3.310   9.368   0.673
 2586SOL    HW1 9655   3.287   9.275   0.672
 2586SOL    HW2 9656   3.264   9.405   0.597
 2587SOL     OW 9657  13.717   5.315   3.483
 2587SOL    HW1 9658  13.784   5.263   3.439
 2587SOL    HW2 9659  13.654   5.251   3.515
 2588SOL     OW 9660   7.389   0.059   6.287
 2588SOL    HW1 9661   7.389  14.861   6.352
 2588SOL    HW2 9662   7.310   0.110   6.308
 2589SOL     OW 9663  11.198   7.910   5.521
 2589SOL    HW1 9664  11.218   7.867   5.438
 2589SOL    HW2 9665  11.209   7.841   5.586
 2590SOL     OW 9666   6.726   9.520  10.939
 2590SOL    HW1 9667   6.691   9.557  11.020
 2590SOL    HW2 9668   6.788   9.586  10.907
 2591SOL     OW 9669   3.252  13.785   8.828
 2591SOL    HW1 9670   3.239  13.709   8.886
 2591SOL    HW2 9671   3.198  13.854   8.866
 2592SOL     OW 9672   6.817   3.173  14.282
 2592SOL    HW1 9673   6.793   3.159  14.190
 2592SOL    HW2 9674   6.813   3.268  14.294
 2593SOL     OW 9675  11.474   1.650   4.614
 2593SOL    HW1 9676  11.528   1.632   4.537
 2593SOL    HW2 9677  11.417   1.722   4.587
 2594SOL     OW 9678   9.088   9.845   9.104
 2594SOL    HW1 9679   9.168   9.812   9.064
 2594SOL    HW2 9680   9.107   9.936   9.125
 2595SOL     OW 9681   8.411  13.027   2.108
 2595SOL    HW1 9682   8.370  13.103   2.148
 2595SOL    HW2 9683   8.474  13.064   2.046
 2596SOL     OW 9684  11.976  12.566   8.937
 2596SOL    HW1 9685  11.937  12.587   9.022
 2596SOL    HW2 9686  12.035  12.493   8.955
 2597SOL     OW 9687   2.930  10.568   9.014
 2597SOL    HW1 9688   2.924  10.577   8.919
 2597SOL    HW2 9689   3.023  10.550   9.030
 2598SOL     OW 9690   1.403  12.397   4.186
 2598SOL    HW1 9691   1.446  12.331   4.131
 2598SOL    HW2 9692   1.370  12.462   4.124
 2599SOL     OW 9693   4.466   1.866   8.243
 2599SOL    HW1 9694   4.434   1.917   8.317
 2599SOL    HW2 9695   4.554   1.839   8.269
 2600SOL     OW 9696   5.138   4.925  14.295
 2600SOL    HW1 9697   5.064   4.888  14.343
 2600SOL    HW2 9698   5.155   4.863  14.225
 2601SOL     OW 9699   0.813  11.402   4.790
 2601SOL    HW1 9700   0.805  11.341   4.716
 2601SOL    HW2 9701   0.884  11.365   4.843
 2602SOL     OW 9702   5.889   7.206   0.111
 2602SOL    HW1 9703   5.965   7.162   0.149
 2602SOL    HW2 9704   5.853   7.257   0.183
 2603SOL     OW 9705  10.425   4.545   6.801
 2603SOL    HW1 9706  10.385   4.629   6.823
 2603SOL    HW2 9707  10.390   4.483   6.866
 2604SOL     OW 9708  13.989   8.979  10.248
 2604SOL    HW1 9709  14.072   8.934  10.264
 2604SOL    HW2 9710  14.011   9.072  10.248
 2605SOL     OW 9711   1.633  11.244   3.589
 2605SOL    HW1 9712   1.655  11.275   3.501
 2605SOL    HW2 9713   1.585  11.317   3.629
 2606SOL     OW 9714  11.912   0.127   8.103
 2606SOL    HW1 9715  11.827   0.145   8.144
 2606SOL    HW2 9716  11.907   0.035   8.076
 2607SOL     OW 9717  11.868   9.824   5.898
 2607SOL    HW1 9718  11.850   9.900   5.843
 2607SOL    HW2 9719  11.901   9.860   5.980
 2608SOL     OW 9720  10.198  14.642  11.881
 2608SOL    HW1 9721  10.192  14.701  11.956
 2608SOL    HW2 9722  10.118  14.590  11.885
 2609SOL     OW 9723   0.344  14.584   0.901
 2609SOL    HW1 9724   0.430  14.565   0.940
 2609SOL    HW2 9725   0.326  14.675   0.925
 2610SOL     OW 9726   4.681   8.484   0.424
 2610SOL    HW1 9727   4.774   8.491   0.447
 2610SOL    HW2 9728   4.681   8.473   0.329
 2611SOL     OW 9729   1.345   5.419   4.860
 2611SOL    HW1 9730   1.342   5.385   4.771
 2611SOL    HW2 9731   1.395   5.354   4.909
 2612SOL     OW 9732   3.140   3.999   5.815
 2612SOL    HW1 9733   3.178   3.943   5.748
 2612SOL    HW2 9734   3.068   3.948   5.851
 2613SOL     OW 9735   3.904   2.366  13.895
 2613SOL    HW1 9736   3.872   2.304  13.961
 2613SOL    HW2 9737   3.974   2.414  13.939
 2614SOL     OW 9738   0.973  10.920   1.637
 2614SOL    HW1 9739   0.898  10.860   1.646
 2614SOL    HW2 9740   1.050  10.864   1.643
 2615SOL     OW 9741   6.712   4.427   5.878
 2615SOL    HW1 9742   6.749   4.460   5.796
 2615SOL    HW2 9743   6.787   4.393   5.927
 2616SOL     OW 9744   7.675   3.248  10.268
 2616SOL    HW1 9745   7.615   3.317  10.240
 2616SOL    HW2 9746   7.750   3.257  10.210
 2617SOL     OW 9747  11.863   2.329  11.546
 2617SOL    HW1 9748  11.823   2.392  11.487
 2617SOL    HW2 9749  11.790   2.275  11.577
 2618SOL     OW 9750   9.708   7.600  13.725
 2618SOL    HW1 9751   9.759   7.675  13.696
 2618SOL    HW2 9752   9.642   7.588  13.656
 2619SOL     OW 9753   6.885   2.624   9.183
 2619SOL    HW1 9754   6.797   2.591   9.163
 2619SOL    HW2 9755   6.903   2.688   9.114
 2620SOL     OW 9756   5.163  13.121  14.529
 2620SOL    HW1 9757   5.168  13.081  14.442
 2620SOL    HW2 9758   5.239  13.087  14.576
 2621SOL     OW 9759  13.764   2.722   4.143
 2621SOL    HW1 9760  13.754   2.746   4.052
 2621SOL    HW2 9761  13.827   2.785   4.179
 2622SOL     OW 9762   3.276   0.546   4.616
 2622SOL    HW1 9763   3.288   0.632   4.656
 2622SOL    HW2 9764   3.209   0.559   4.549
 2623SOL     OW 9765   7.730   8.503   6.409
 2623SOL    HW1 9766   7.661   8.455   6.453
 2623SOL    HW2 9767   7.811   8.475   6.453
 2624SOL     OW 9768  12.826   0.676  11.382
 2624SOL    HW1 9769  12.867   0.617  11.319
 2624SOL    HW2 9770  12.759   0.622  11.425
 2625SOL     OW 9771   3.169   4.344   2.177
 2625SOL    HW1 9772   3.239   4.299   2.224
 2625SOL    HW2 9773   3.136   4.409   2.239
 2626SOL     OW 9774   8.652   3.188   3.790
 2626SOL    HW1 9775   8.650   3.174   3.885
 2626SOL    HW2 9776   8.629   3.281   3.779
 2627SOL     OW 9777   6.861  10.124   8.414
 2627SOL    HW1 9778   6.769  10.136   8.439
 2627SOL    HW2 9779   6.910  10.172   8.480
 2628SOL     OW 9780   8.389  10.451  12.383
 2628SOL    HW1 9781   8.343  10.499  12.452
 2628SOL    HW2 9782   8.477  10.439  12.417
 2629SOL     OW 9783  13.304   1.267  11.665
 2629SOL    HW1 9784  13.297   1.203  11.594
 2629SOL    HW2 9785  13.216   1.273  11.701
 2630SOL     OW 9786  10.905   1.825   7.866
 2630SOL    HW1 9787  10.875   1.906   7.909
 2630SOL    HW2 9788  10.826   1.791   7.823
 2631SOL     OW 9789   4.565   7.084   7.924
 2631SOL    HW1 9790   4.544   7.101   7.831
 2631SOL    HW2 9791   4.584   7.171   7.960
 2632SOL     OW 9792  12.729   0.621  13.151
 2632SOL    HW1 9793  12.720   0.668  13.234
 2632SOL    HW2 9794  12.640   0.600  13.124
 2633SOL     OW 9795   2.845  13.925   3.432
 2633SOL    HW1 9796   2.875  14.000   3.482
 2633SOL    HW2 9797   2.894  13.851   3.470
 2634SOL     OW 9798  11.628  11.510  12.366
 2634SOL    HW1 9799  11.540  11.481  12.389
 2634SOL    HW2 9800  11.667  11.538  12.449
 2635SOL     OW 9801   3.822   5.536  11.307
 2635SOL    HW1 9802   3.907   5.502  11.332
 2635SOL    HW2 9803   3.764   5.460  11.309
 2636SOL     OW 9804  11.104  11.004  12.275
 2636SOL    HW1 9805  11.136  11.090  12.248
 2636SOL    HW2 9806  11.073  10.963  12.194
 2637SOL     OW 9807   0.641   5.366   8.796
 2637SOL    HW1 9808   0.555   5.384   8.833
 2637SOL    HW2 9809   0.626   5.355   8.702
 2638SOL     OW 9810   3.369   3.524  13.504
 2638SOL    HW1 9811   3.280   3.498  13.479
 2638SOL    HW2 9812   3.424   3.450  13.478
 2639SOL     OW 9813   6.806  10.145   9.520
 2639SOL    HW1 9814   6.876  10.116   9.578
 2639SOL    HW2 9815   6.758  10.065   9.500
 2640SOL     OW 9816   4.399  14.435   0.666
 2640SOL    HW1 9817   4.347  14.366   0.625
 2640SOL    HW2 9818   4.421  14.494   0.595
 2641SOL     OW 9819   8.943  13.036   4.335
 2641SOL    HW1 9820   8.994  13.006   4.260
 2641SOL    HW2 9821   8.879  12.967   4.350
 2642SOL     OW 9822  12.922  13.013   4.841
 2642SOL    HW1 9823  12.922  12.962   4.760
 2642SOL    HW2 9824  12.872  12.960   4.903
 2643SOL     OW 9825  12.272   7.406   5.928
 2643SOL    HW1 9826  12.254   7.491   5.968
 2643SOL    HW2 9827  12.353   7.376   5.968
 2644SOL     OW 9828   8.005  10.196  14.563
 2644SOL    HW1 9829   8.012  10.121  14.621
 2644SOL    HW2 9830   7.985  10.158  14.477
 2645SOL     OW 9831   5.255   0.368   9.788
 2645SOL    HW1 9832   5.241   0.456   9.822
 2645SOL    HW2 9833   5.243   0.376   9.694
 2646SOL     OW 9834   7.939   2.502  10.130
 2646SOL    HW1 9835   7.948   2.512  10.224
 2646SOL    HW2 9836   7.921   2.591  10.097
 2647SOL     OW 9837  10.396  13.989  11.076
 2647SOL    HW1 9838  10.410  13.937  10.996
 2647SOL    HW2 9839  10.327  13.942  11.123
 2648SOL     OW 9840   5.966   9.420   8.015
 2648SOL    HW1 9841   5.970   9.339   8.065
 2648SOL    HW2 9842   5.885   9.414   7.965
 2649SOL     OW 9843  14.410   2.569   9.866
 2649SOL    HW1 9844  14.474   2.640   9.863
 2649SOL    HW2 9845  14.461   2.489   9.859
 2650SOL     OW 9846   4.899   5.713   6.573
 2650SOL    HW1 9847   4.851   5.741   6.650
 2650SOL    HW2 9848   4.971   5.660   6.607
 2651SOL     OW 9849   9.248   2.754   4.642
 2651SOL    HW1 9850   9.305   2.678   4.626
 2651SOL    HW2 9851   9.272   2.782   4.731
 2652SOL     OW 9852   8.638   8.187   8.249
 2652SOL    HW1 9853   8.646   8.264   8.305
 2652SOL    HW2 9854   8.724   8.179   8.206
 2653SOL     OW 9855   6.191  12.193  10.121
 2653SOL    HW1 9856   6.116  12.143  10.090
 2653SOL    HW2 9857   6.155  12.247  10.192
 2654SOL     OW 9858  10.959   2.002   9.490
 2654SOL    HW1 9859  10.914   1.921   9.466
 2654SOL    HW2 9860  11.040   1.973   9.531
 2655SOL     OW 9861   9.336   1.931   8.628
 2655SOL    HW1 9862   9.254   1.940   8.580
 2655SOL    HW2 9863   9.347   1.837   8.641
 2656SOL     OW 9864   6.238   1.046  12.492
 2656SOL    HW1 9865   6.266   1.093  12.414
 2656SOL    HW2 9866   6.143   1.043  12.486
 2657SOL     OW 9867   2.332   9.233   4.965
 2657SOL    HW1 9868   2.247   9.219   5.006
 2657SOL    HW2 9869   2.382   9.284   5.028
 2658SOL     OW 9870   9.835  14.741   2.675
 2658SOL    HW1 9871   9.749  14.727   2.713
 2658SOL    HW2 9872   9.859  14.656   2.638
 2659SOL     OW 9873  12.749  14.400   4.840
 2659SOL    HW1 9874  12.708  14.472   4.792
 2659SOL    HW2 9875  12.711  14.321   4.801
 2660SOL     OW 9876   7.254   0.322   8.915
 2660SOL    HW1 9877   7.316   0.251   8.934
 2660SOL    HW2 9878   7.266   0.383   8.987
 2661SOL     OW 9879   6.855  12.801   5.573
 2661SOL    HW1 9880   6.921  12.735   5.594
 2661SOL    HW2 9881   6.905  12.875   5.539
 2662SOL     OW 9882  10.351  11.338   1.319
 2662SOL    HW1 9883  10.277  11.327   1.260
 2662SOL    HW2 9884  10.344  11.265   1.380
 2663SOL     OW 9885  13.009   2.161  13.276
 2663SOL    HW1 9886  13.010   2.074  13.236
 2663SOL    HW2 9887  13.030   2.145  13.368
 2664SOL     OW 9888  13.134   3.261   5.916
 2664SOL    HW1 9889  13.176   3.175   5.909
 2664SOL    HW2 9890  13.145   3.300   5.829
 2665SOL     OW 9891   9.993  13.778   6.294
 2665SOL    HW1 9892  10.060  13.826   6.343
 2665SOL    HW2 9893   9.988  13.824   6.210
 2666SOL     OW 9894   8.641  11.127   8.887
 2666SOL    HW1 9895   8.708  11.065   8.915
 2666SOL    HW2 9896   8.569  11.072   8.855
 2667SOL     OW 9897   2.063   8.860  10.801
 2667SOL    HW1 9898   2.094   8.852  10.891
 2667SOL    HW2 9899   2.081   8.775  10.761
 2668SOL     OW 9900   7.482   4.800   2.401
 2668SOL    HW1 9901   7.576   4.806   2.419
 2668SOL    HW2 9902   7.476   4.768   2.311
 2669SOL     OW 9903  10.848   6.933   2.013
 2669SOL    HW1 9904  10.770   6.881   2.035
 2669SOL    HW2 9905  10.813   7.011   1.970
 2670SOL     OW 9906   4.713  10.009   6.426
 2670SOL    HW1 9907   4.692  10.102   6.438
 2670SOL    HW2 9908   4.774  10.008   6.352
 2671SOL     OW 9909   9.059  14.110  10.142
 2671SOL    HW1 9910   9.068  14.181  10.206
 2671SOL    HW2 9911   9.105  14.142  10.065
 2672SOL     OW 9912  14.292   3.346   0.644
 2672SOL    HW1 9913  14.300   3.314   0.734
 2672SOL    HW2 9914  14.353   3.420   0.640
 2673SOL     OW 9915  14.453  10.979   1.841
 2673SOL    HW1 9916  14.407  10.994   1.758
 2673SOL    HW2 9917  14.441  10.886   1.859
 2674SOL     OW 9918  14.061   5.773   9.189
 2674SOL    HW1 9919  14.081   5.855   9.144
 2674SOL    HW2 9920  14.066   5.706   9.121
 2675SOL     OW 9921   7.658   8.710   9.898
 2675SOL    HW1 9922   7.575   8.686   9.857
 2675SOL    HW2 9923   7.639   8.708   9.992
 2676SOL     OW 9924   9.619   3.008  10.150
 2676SOL    HW1 9925   9.539   3.056  10.175
 2676SOL    HW2 9926   9.621   2.933  10.209
 2677SOL     OW 9927  11.033   6.026   6.889
 2677SOL    HW1 9928  11.003   6.104   6.936
 2677SOL    HW2 9929  11.056   6.058   6.802
 2678SOL     OW 9930   3.946   1.457  13.915
 2678SOL    HW1 9931   4.029   1.443  13.961
 2678SOL    HW2 9932   3.960   1.536  13.864
 2679SOL     OW 9933   0.525   5.082   8.787
 2679SOL    HW1 9934   0.579   5.115   8.715
 2679SOL    HW2 9935   0.442   5.127   8.778
 2680SOL     OW 9936   4.956   0.009   5.175
 2680SOL    HW1 9937   4.873   0.055   5.178
 2680SOL    HW2 9938   4.942  14.810   5.112
 2681SOL     OW 9939   1.003   4.115   7.372
 2681SOL    HW1 9940   0.939   4.059   7.416
 2681SOL    HW2 9941   0.964   4.202   7.373
 2682SOL     OW 9942   8.667   2.367   7.931
 2682SOL    HW1 9943   8.723   2.294   7.958
 2682SOL    HW2 9944   8.687   2.438   7.992
 2683SOL     OW 9945  14.613   5.226   3.613
 2683SOL    HW1 9946  14.601   5.131   3.617
 2683SOL    HW2 9947  14.608   5.247   3.519
 2684SOL     OW 9948  12.416  10.610  11.536
 2684SOL    HW1 9949  12.484  10.678  11.539
 2684SOL    HW2 9950  12.410  10.578  11.626
 2685SOL     OW 9951   5.134   6.800   9.037
 2685SOL    HW1 9952   5.200   6.764   8.978
 2685SOL    HW2 9953   5.179   6.811   9.121
 2686SOL     OW 9954   5.093   8.326  11.414
 2686SOL    HW1 9955   5.089   8.239  11.374
 2686SOL    HW2 9956   5.186   8.340  11.430
 2687SOL     OW 9957  11.708   2.701   3.383
 2687SOL    HW1 9958  11.728   2.665   3.469
 2687SOL    HW2 9959  11.679   2.627   3.331
 2688SOL     OW 9960   7.923   1.805   6.115
 2688SOL    HW1 9961   7.868   1.843   6.046
 2688SOL    HW2 9962   8.005   1.854   6.109
 2689SOL     OW 9963  13.521   6.924   9.273
 2689SOL    HW1 9964  13.591   6.862   9.252
 2689SOL    HW2 9965  13.545   7.004   9.226
 2690SOL     OW 9966  13.204  10.862   9.640
 2690SOL    HW1 9967  13.260  10.832   9.569
 2690SOL    HW2 9968  13.254  10.932   9.682
 2691SOL     OW 9969   7.745   9.718  12.032
 2691SOL    HW1 9970   7.728   9.719  12.126
 2691SOL    HW2 9971   7.835   9.686  12.024
 2692SOL     OW 9972  12.236   1.286   9.920
 2692SOL    HW1 9973  12.317   1.337   9.926
 2692SOL    HW2 9974  12.188   1.308   9.999
 2693SOL     OW 9975   2.323   1.083   6.214
 2693SOL    HW1 9976   2.236   1.054   6.241
 2693SOL    HW2 9977   2.367   1.105   6.295
 2694SOL     OW 9978   8.168   7.084   5.911
 2694SOL    HW1 9979   8.246   7.035   5.888
 2694SOL    HW2 9980   8.107   7.068   5.839
 2695SOL     OW 9981  14.702   5.988  10.276
 2695SOL    HW1 9982  14.760   5.997  10.201
 2695SOL    HW2 9983  14.618   6.024  10.247
 2696SOL     OW 9984  14.330   4.985  13.842
 2696SOL    HW1 9985  14.387   5.053  13.880
 2696SOL    HW2 9986  14.319   4.922  13.912
 2697SOL     OW 9987  11.845  11.580   2.062
 2697SOL    HW1 9988  11.877  11.628   2.138
 2697SOL    HW2 9989  11.801  11.504   2.098
 2698SOL     OW 9990  11.702   5.912  11.995
 2698SOL    HW1 9991  11.754   5.832  12.003
 2698SOL    HW2 9992  11.666   5.908  11.907
 2699SOL     OW 9993  12.419  11.192  13.247
 2699SOL    HW1 9994  12.368  11.124  13.204
 2699SOL    HW2 9995  12.451  11.151  13.327
 2700SOL     OW 9996   6.598  11.336   9.383
 2700SOL    HW1 9997   6.646  11.417   9.365
 2700SOL    HW2 9998   6.653  11.267   9.348
 2701SOL     OW 9999  13.194   8.570  10.819
 2701SOL    HW110000  13.130   8.573  10.748
 2701SOL    HW210001  13.227   8.480  10.817
 2702SOL     OW10002  10.900  11.389  14.317
 2702SOL    HW110003  10.806  11.404  14.307
 2702SOL    HW210004  10.921  11.419  14.406
 2703SOL     OW10005   3.944  11.004   3.333
 2703SOL    HW110006   4.018  10.954   3.367
 2703SOL    HW210007   3.980  11.091   3.316
 2704SOL     OW10008   9.280   3.343  13.273
 2704SOL    HW110009   9.373   3.345  13.251
 2704SOL    HW210010   9.238   3.302  13.196
 2705SOL     OW10011   8.196   2.931   5.484
 2705SOL    HW110012   8.186   3.025   5.468
 2705SOL    HW210013   8.222   2.926   5.576
 2706SOL     OW10014   3.372   6.296  10.496
 2706SOL    HW110015   3.305   6.241  10.455
 2706SOL    HW210016   3.328   6.332  10.574
 2707SOL     OW10017   9.032  10.841  13.417
 2707SOL    HW110018   8.993  10.857  13.503
 2707SOL    HW210019   8.958  10.814  13.363
 2708SOL     OW10020  13.855   3.127  13.774
 2708SOL    HW110021  13.885   3.036  13.775
 2708SOL    HW210022  13.818   3.141  13.862
 2709SOL     OW10023  14.028  10.536  13.749
 2709SOL    HW110024  14.072  10.492  13.822
 2709SOL    HW210025  13.935  10.520  13.763
 2710SOL     OW10026  10.098  14.256  14.459
 2710SOL    HW110027  10.085  14.271  14.552
 2710SOL    HW210028  10.009  14.255  14.423
 2711SOL     OW10029   5.254   2.855   3.340
 2711SOL    HW110030   5.286   2.905   3.265
 2711SOL    HW210031   5.162   2.836   3.319
 2712SOL     OW10032   9.031  14.585   9.970
 2712SOL    HW110033   9.026  14.616  10.061
 2712SOL    HW210034   9.021  14.664   9.917
 2713SOL     OW10035   7.799   4.898   1.839
 2713SOL    HW110036   7.705   4.911   1.843
 2713SOL    HW210037   7.812   4.809   1.872
 2714SOL     OW10038   8.458  10.648  14.566
 2714SOL    HW110039   8.478  10.639  14.473
 2714SOL    HW210040   8.516  10.718  14.597
 2715SOL     OW10041   2.765   5.690   3.991
 2715SOL    HW110042   2.842   5.637   3.968
 2715SOL    HW210043   2.695   5.655   3.936
 2716SOL     OW10044   4.988   5.622   3.692
 2716SOL    HW110045   5.078   5.594   3.679
 2716SOL    HW210046   4.936   5.542   3.683
 2717SOL     OW10047  12.228  10.582   1.472
 2717SOL    HW110048  12.178  10.513   1.516
 2717SOL    HW210049  12.319  10.565   1.495
 2718SOL     OW10050   1.199  11.481   6.759
 2718SOL    HW110051   1.107  11.461   6.739
 2718SOL    HW210052   1.249  11.419   6.706
 2719SOL     OW10053   7.366   9.082   2.201
 2719SOL    HW110054   7.322   9.081   2.287
 2719SOL    HW210055   7.406   9.169   2.196
 2720SOL     OW10056   1.991   4.878   3.552
 2720SOL    HW110057   1.916   4.828   3.521
 2720SOL    HW210058   2.061   4.814   3.562
 2721SOL     OW10059   8.774  10.474  14.448
 2721SOL    HW110060   8.828  10.514  14.516
 2721SOL    HW210061   8.814  10.503  14.366
 2722SOL     OW10062  10.099   1.058   4.137
 2722SOL    HW110063  10.122   1.089   4.224
 2722SOL    HW210064  10.107   1.136   4.081
 2723SOL     OW10065   6.181   6.380   4.060
 2723SOL    HW110066   6.266   6.339   4.076
 2723SOL    HW210067   6.119   6.308   4.058
 2724SOL     OW10068   5.065  11.547  10.826
 2724SOL    HW110069   4.998  11.615  10.827
 2724SOL    HW210070   5.147  11.595  10.812
 2725SOL     OW10071   5.081   4.727   0.022
 2725SOL    HW110072   5.160   4.683   0.050
 2725SOL    HW210073   5.010   4.665   0.040
 2726SOL     OW10074   1.382   2.170   7.015
 2726SOL    HW110075   1.395   2.260   6.985
 2726SOL    HW210076   1.347   2.123   6.939
 2727SOL     OW10077   4.521   4.509   4.595
 2727SOL    HW110078   4.571   4.497   4.514
 2727SOL    HW210079   4.572   4.573   4.645
 2728SOL     OW10080   9.486   2.624  12.719
 2728SOL    HW110081   9.458   2.552  12.775
 2728SOL    HW210082   9.493   2.585  12.632
 2729SOL     OW10083   1.056   6.133  14.413
 2729SOL    HW110084   1.007   6.074  14.357
 2729SOL    HW210085   1.071   6.084  14.494
 2730SOL     OW10086   0.375   4.551  12.989
 2730SOL    HW110087   0.428   4.627  13.014
 2730SOL    HW210088   0.362   4.560  12.895
 2731SOL     OW10089  14.291   7.877   4.259
 2731SOL    HW110090  14.297   7.911   4.348
 2731SOL    HW210091  14.369   7.823   4.248
 2732SOL     OW10092   2.515   7.374   7.743
 2732SOL    HW110093   2.573   7.332   7.807
 2732SOL    HW210094   2.566   7.377   7.662
 2733SOL     OW10095   5.042   2.590   1.954
 2733SOL    HW110096   5.082   2.513   1.913
 2733SOL    HW210097   5.069   2.663   1.898
 2734SOL     OW10098   9.312  14.622  12.110
 2734SOL    HW110099   9.290  14.625  12.203
 2734SOL    HW210100   9.247  14.679  12.069
 2735SOL     OW10101  10.035   6.202   0.358
 2735SOL    HW110102  10.074   6.227   0.275
 2735SOL    HW210103  10.108   6.166   0.409
 2736SOL     OW10104   3.603   4.603  14.607
 2736SOL    HW110105   3.663   4.531  14.626
 2736SOL    HW210106   3.660   4.679  14.594
 2737SOL     OW10107  10.002  14.492   8.044
 2737SOL    HW110108  10.013  14.399   8.066
 2737SOL    HW210109   9.919  14.516   8.086
 2738SOL     OW10110   7.469   2.076   3.767
 2738SOL    HW110111   7.544   2.123   3.804
 2738SOL    HW210112   7.393   2.128   3.790
 2739SOL     OW10113   3.416  13.662   2.780
 2739SOL    HW110114   3.427  13.702   2.866
 2739SOL    HW210115   3.337  13.607   2.789
 2740SOL     OW10116  13.317  12.748   6.277
 2740SOL    HW110117  13.375  12.678   6.248
 2740SOL    HW210118  13.229  12.714   6.260
 2741SOL     OW10119  12.918   4.405   3.388
 2741SOL    HW110120  12.969   4.364   3.318
 2741SOL    HW210121  12.933   4.499   3.377
 2742SOL     OW10122   9.549   1.863  13.774
 2742SOL    HW110123   9.487   1.803  13.816
 2742SOL    HW210124   9.634   1.839  13.812
 2743SOL     OW10125   8.106   7.532  14.321
 2743SOL    HW110126   8.080   7.610  14.272
 2743SOL    HW210127   8.030   7.474  14.315
 2744SOL     OW10128   9.216   4.259  14.683
 2744SOL    HW110129   9.285   4.206  14.722
 2744SOL    HW210130   9.185   4.314  14.754
 2745SOL     OW10131  13.003   8.654   6.399
 2745SOL    HW110132  13.088   8.697   6.411
 2745SOL    HW210133  13.004   8.582   6.462
 2746SOL     OW10134   6.136   7.487   0.338
 2746SOL    HW110135   6.112   7.408   0.387
 2746SOL    HW210136   6.159   7.551   0.405
 2747SOL     OW10137  11.715  10.663  12.839
 2747SOL    HW110138  11.748  10.614  12.914
 2747SOL    HW210139  11.736  10.607  12.763
 2748SOL     OW10140  12.364   3.806   3.424
 2748SOL    HW110141  12.319   3.813   3.340
 2748SOL    HW210142  12.303   3.846   3.487
 2749SOL     OW10143   7.267   7.068   9.622
 2749SOL    HW110144   7.175   7.049   9.637
 2749SOL    HW210145   7.272   7.088   9.528
 2750SOL     OW10146   7.966   8.534  13.258
 2750SOL    HW110147   8.049   8.521  13.212
 2750SOL    HW210148   7.916   8.593  13.201
 2751SOL     OW10149  11.021   2.667   4.637
 2751SOL    HW110150  11.066   2.604   4.693
 2751SOL    HW210151  11.064   2.750   4.655
 2752SOL     OW10152   3.483   1.802   9.584
 2752SOL    HW110153   3.507   1.710   9.569
 2752SOL    HW210154   3.553   1.852   9.542
 2753SOL     OW10155  12.628   6.019  13.284
 2753SOL    HW110156  12.646   6.092  13.344
 2753SOL    HW210157  12.638   5.940  13.338
 2754SOL     OW10158   7.903  11.526   3.303
 2754SOL    HW110159   7.897  11.554   3.212
 2754SOL    HW210160   7.927  11.605   3.351
 2755SOL     OW10161  13.985   7.420   8.692
 2755SOL    HW110162  13.933   7.416   8.612
 2755SOL    HW210163  13.948   7.352   8.748
 2756SOL     OW10164   1.690   7.509  13.527
 2756SOL    HW110165   1.699   7.452  13.604
 2756SOL    HW210166   1.606   7.484  13.488
 2757SOL     OW10167  10.302   0.920  11.198
 2757SOL    HW110168  10.251   0.952  11.272
 2757SOL    HW210169  10.256   0.841  11.169
 2758SOL     OW10170   1.733   2.584   2.360
 2758SOL    HW110171   1.670   2.653   2.338
 2758SOL    HW210172   1.678   2.509   2.384
 2759SOL     OW10173   2.357   2.358   9.700
 2759SOL    HW110174   2.319   2.362   9.612
 2759SOL    HW210175   2.314   2.283   9.741
 2760SOL     OW10176   8.658   3.370  10.026
 2760SOL    HW110177   8.626   3.280  10.032
 2760SOL    HW210178   8.752   3.361  10.011
 2761SOL     OW10179   6.787   5.445   9.585
 2761SOL    HW110180   6.842   5.512   9.544
 2761SOL    HW210181   6.849   5.390   9.634
 2762SOL     OW10182   5.746   1.731   3.521
 2762SOL    HW110183   5.654   1.734   3.548
 2762SOL    HW210184   5.792   1.695   3.597
 2763SOL     OW10185   1.767  10.934   3.848
 2763SOL    HW110186   1.758  11.005   3.912
 2763SOL    HW210187   1.862  10.917   3.844
 2764SOL     OW10188   2.275   5.446  10.344
 2764SOL    HW110189   2.250   5.431  10.435
 2764SOL    HW210190   2.370   5.430  10.343
 2765SOL     OW10191  14.533   9.947   4.658
 2765SOL    HW110192  14.440   9.959   4.677
 2765SOL    HW210193  14.561   9.879   4.720
 2766SOL     OW10194  12.640   6.719  14.427
 2766SOL    HW110195  12.655   6.680  14.514
 2766SOL    HW210196  12.566   6.779  14.440
 2767SOL     OW10197   1.556   9.908   7.808
 2767SOL    HW110198   1.635   9.862   7.780
 2767SOL    HW210199   1.587   9.994   7.837
 2768SOL     OW10200  14.618  14.808   1.725
 2768SOL    HW110201  14.558  14.756   1.779
 2768SOL    HW210202  14.576   0.022   1.721
 2769SOL     OW10203   9.208   2.375   4.788
 2769SOL    HW110204   9.274   2.430   4.746
 2769SOL    HW210205   9.259   2.316   4.844
 2770SOL     OW10206   7.940   9.555   6.068
 2770SOL    HW110207   7.914   9.587   6.154
 2770SOL    HW210208   7.943   9.460   6.078
 2771SOL     OW10209   0.384   4.132   6.345
 2771SOL    HW110210   0.431   4.213   6.327
 2771SOL    HW210211   0.357   4.100   6.259
 2772SOL     OW10212   1.307   2.327   7.318
 2772SOL    HW110213   1.383   2.323   7.376
 2772SOL    HW210214   1.299   2.420   7.295
 2773SOL     OW10215   1.734   5.380   0.198
 2773SOL    HW110216   1.806   5.364   0.259
 2773SOL    HW210217   1.711   5.472   0.212
 2774SOL     OW10218   8.182   6.039   1.406
 2774SOL    HW110219   8.237   6.018   1.330
 2774SOL    HW210220   8.175   6.134   1.406
 2775SOL     OW10221  13.529   9.828   9.353
 2775SOL    HW110222  13.501   9.737   9.345
 2775SOL    HW210223  13.453   9.874   9.388
 2776SOL     OW10224   9.684   3.066   6.065
 2776SOL    HW110225   9.608   3.087   6.120
 2776SOL    HW210226   9.646   3.048   5.979
 2777SOL     OW10227   3.781   9.144   2.520
 2777SOL    HW110228   3.854   9.167   2.577
 2777SOL    HW210229   3.817   9.079   2.460
 2778SOL     OW10230   2.348   0.355   2.192
 2778SOL    HW110231   2.398   0.409   2.253
 2778SOL    HW210232   2.406   0.345   2.117
 2779SOL     OW10233   8.063   2.919  13.800
 2779SOL    HW110234   7.975   2.951  13.780
 2779SOL    HW210235   8.116   2.999  13.807
 2780SOL     OW10236   2.486  11.831   8.465
 2780SOL    HW110237   2.563  11.816   8.409
 2780SOL    HW210238   2.450  11.743   8.480
 2781SOL     OW10239   6.212   0.559   2.101
 2781SOL    HW110240   6.145   0.526   2.041
 2781SOL    HW210241   6.165   0.576   2.182
 2782SOL     OW10242   6.218   6.390  12.756
 2782SOL    HW110243   6.282   6.323  12.781
 2782SOL    HW210244   6.170   6.408  12.837
 2783SOL     OW10245   3.030  13.479   1.959
 2783SOL    HW110246   3.068  13.412   1.902
 2783SOL    HW210247   3.043  13.561   1.911
 2784SOL     OW10248  12.826  11.695   8.568
 2784SOL    HW110249  12.823  11.714   8.661
 2784SOL    HW210250  12.837  11.781   8.526
 2785SOL     OW10251   2.208   9.024   7.933
 2785SOL    HW110252   2.146   8.966   7.978
 2785SOL    HW210253   2.213   8.989   7.844
 2786SOL     OW10254  12.571   1.768   0.179
 2786SOL    HW110255  12.572   1.689   0.233
 2786SOL    HW210256  12.525   1.832   0.233
 2787SOL     OW10257  11.393   5.914   4.815
 2787SOL    HW110258  11.314   5.887   4.862
 2787SOL    HW210259  11.405   6.006   4.837
 2788SOL     OW10260   1.335   8.248   5.367
 2788SOL    HW110261   1.408   8.310   5.365
 2788SOL    HW210262   1.270   8.286   5.308
 2789SOL     OW10263   9.477  13.212   3.695
 2789SOL    HW110264   9.569  13.229   3.713
 2789SOL    HW210265   9.476  13.179   3.605
 2790SOL     OW10266   6.238   0.277   2.205
 2790SOL    HW110267   6.225   0.369   2.183
 2790SOL    HW210268   6.282   0.240   2.127
 2791SOL     OW10269  10.523   6.908   2.525
 2791SOL    HW110270  10.611   6.885   2.499
 2791SOL    HW210271  10.482   6.942   2.445
 2792SOL     OW10272   9.322   9.273   1.875
 2792SOL    HW110273   9.240   9.227   1.858
 2792SOL    HW210274   9.350   9.305   1.789
 2793SOL     OW10275  11.875  12.360   1.595
 2793SOL    HW110276  11.964  12.366   1.560
 2793SOL    HW210277  11.841  12.277   1.562
 2794SOL     OW10278  13.599  12.790  13.513
 2794SOL    HW110279  13.522  12.742  13.485
 2794SOL    HW210280  13.619  12.848  13.439
 2795SOL     OW10281  12.847  11.234  12.141
 2795SOL    HW110282  12.874  11.150  12.178
 2795SOL    HW210283  12.769  11.214  12.090
 2796SOL     OW10284  10.465   7.250   6.357
 2796SOL    HW110285  10.394   7.314   6.343
 2796SOL    HW210286  10.428   7.186   6.418
 2797SOL     OW10287   1.977   5.278   7.491
 2797SOL    HW110288   2.008   5.367   7.508
 2797SOL    HW210289   2.046   5.238   7.438
 2798SOL     OW10290   3.267  14.735   0.367
 2798SOL    HW110291   3.255  14.772   0.455
 2798SOL    HW210292   3.184  14.751   0.323
 2799SOL     OW10293   9.272   3.634   2.128
 2799SOL    HW110294   9.299   3.686   2.203
 2799SOL    HW210295   9.193   3.678   2.096
 2800SOL     OW10296   9.897   6.879   4.531
 2800SOL    HW110297   9.819   6.885   4.475
 2800SOL    HW210298   9.957   6.944   4.495
 2801SOL     OW10299  11.843   7.013   7.186
 2801SOL    HW110300  11.776   6.946   7.200
 2801SOL    HW210301  11.795   7.089   7.155
 2802SOL     OW10302   4.083   4.359  12.465
 2802SOL    HW110303   4.121   4.273  12.449
 2802SOL    HW210304   4.110   4.381  12.554
 2803SOL     OW10305   8.639  11.986   1.184
 2803SOL    HW110306   8.690  11.977   1.264
 2803SOL    HW210307   8.594  11.902   1.174
 2804SOL     OW10308   9.677  14.066  10.637
 2804SOL    HW110309   9.603  14.032  10.587
 2804SOL    HW210310   9.752  14.017  10.604
 2805SOL     OW10311   5.136   0.408  12.010
 2805SOL    HW110312   5.071   0.424  12.079
 2805SOL    HW210313   5.086   0.410  11.929
 2806SOL     OW10314  13.502  12.002   8.074
 2806SOL    HW110315  13.584  11.958   8.095
 2806SOL    HW210316  13.459  11.943   8.013
 2807SOL     OW10317  11.753  12.189  14.022
 2807SOL    HW110318  11.677  12.237  13.990
 2807SOL    HW210319  11.828  12.232  13.980
 2808SOL     OW10320   4.976   3.998   7.186
 2808SOL    HW110321   5.029   4.003   7.266
 2808SOL    HW210322   5.033   3.955   7.123
 2809SOL     OW10323  14.671   3.365   8.865
 2809SOL    HW110324  14.720   3.360   8.947
 2809SOL    HW210325  14.735   3.399   8.802
 2810SOL     OW10326  10.968   7.810  11.864
 2810SOL    HW110327  10.879   7.840  11.883
 2810SOL    HW210328  10.958   7.719  11.838
 2811SOL     OW10329   9.028   0.583   9.971
 2811SOL    HW110330   9.011   0.581  10.066
 2811SOL    HW210331   9.085   0.659   9.959
 2812SOL     OW10332   6.254   3.455   6.643
 2812SOL    HW110333   6.322   3.420   6.585
 2812SOL    HW210334   6.175   3.405   6.620
 2813SOL     OW10335   1.895   7.042  11.681
 2813SOL    HW110336   1.839   7.074  11.610
 2813SOL    HW210337   1.917   6.952  11.654
 2814SOL     OW10338   1.458  11.416   3.774
 2814SOL    HW110339   1.385  11.362   3.743
 2814SOL    HW210340   1.451  11.414   3.869
 2815SOL     OW10341  14.275  10.021   0.050
 2815SOL    HW110342  14.215   9.981  14.860
 2815SOL    HW210343  14.228  10.015   0.134
 2816SOL     OW10344  10.496   5.253  12.562
 2816SOL    HW110345  10.412   5.276  12.524
 2816SOL    HW210346  10.538   5.337  12.582
 2817SOL     OW10347  11.747   2.120   3.157
 2817SOL    HW110348  11.835   2.148   3.184
 2817SOL    HW210349  11.689   2.155   3.225
 2818SOL     OW10350   7.924   1.574  10.669
 2818SOL    HW110351   7.830   1.566  10.687
 2818SOL    HW210352   7.962   1.494  10.704
 2819SOL     OW10353  14.870   6.236  11.162
 2819SOL    HW110354   0.070   6.258  11.103
 2819SOL    HW210355  14.862   6.141  11.157
 2820SOL     OW10356  14.767   6.125  13.659
 2820SOL    HW110357  14.816   6.164  13.586
 2820SOL    HW210358  14.829   6.123  13.731
 2821SOL     OW10359   6.591   4.799   8.620
 2821SOL    HW110360   6.686   4.784   8.611
 2821SOL    HW210361   6.573   4.782   8.713
 2822SOL     OW10362   2.182  13.703   4.463
 2822SOL    HW110363   2.203  13.747   4.545
 2822SOL    HW210364   2.198  13.610   4.481
 2823SOL     OW10365   6.967   5.087   1.479
 2823SOL    HW110366   6.903   5.021   1.452
 2823SOL    HW210367   6.945   5.107   1.570
 2824SOL     OW10368   1.526  11.849   2.752
 2824SOL    HW110369   1.472  11.926   2.769
 2824SOL    HW210370   1.567  11.867   2.667
 2825SOL     OW10371   4.168   9.524   7.933
 2825SOL    HW110372   4.247   9.472   7.941
 2825SOL    HW210373   4.199   9.613   7.916
 2826SOL     OW10374   8.517  12.519   7.002
 2826SOL    HW110375   8.486  12.434   6.970
 2826SOL    HW210376   8.612  12.511   7.005
 2827SOL     OW10377   6.219  13.957  14.167
 2827SOL    HW110378   6.287  13.961  14.234
 2827SOL    HW210379   6.140  13.988  14.211
 2828SOL     OW10380   0.273   4.417   5.710
 2828SOL    HW110381   0.333   4.469   5.657
 2828SOL    HW210382   0.187   4.455   5.694
 2829SOL     OW10383   0.822  11.636   1.016
 2829SOL    HW110384   0.841  11.584   0.939
 2829SOL    HW210385   0.846  11.580   1.090
 2830SOL     OW10386   5.223   5.338  14.281
 2830SOL    HW110387   5.143   5.298  14.247
 2830SOL    HW210388   5.268   5.267  14.325
 2831SOL     OW10389   7.715  12.931   7.492
 2831SOL    HW110390   7.684  12.890   7.573
 2831SOL    HW210391   7.802  12.894   7.479
 2832SOL     OW10392  10.787  12.761   2.911
 2832SOL    HW110393  10.785  12.669   2.940
 2832SOL    HW210394  10.712  12.801   2.954
 2833SOL     OW10395  10.919   8.211   3.369
 2833SOL    HW110396  10.885   8.225   3.281
 2833SOL    HW210397  10.851   8.244   3.427
 2834SOL     OW10398   7.855  13.219  12.564
 2834SOL    HW110399   7.858  13.284  12.493
 2834SOL    HW210400   7.798  13.150  12.530
 2835SOL     OW10401  11.978   0.881   9.357
 2835SOL    HW110402  11.900   0.899   9.304
 2835SOL    HW210403  11.944   0.867   9.445
 2836SOL     OW10404   5.975  12.585  13.302
 2836SOL    HW110405   5.900  12.579  13.243
 2836SOL    HW210406   5.999  12.678  13.302
 2837SOL     OW10407   3.563   7.610  11.149
 2837SOL    HW110408   3.642   7.665  11.142
 2837SOL    HW210409   3.541   7.590  11.058
 2838SOL     OW10410   3.166   9.891  12.198
 2838SOL    HW110411   3.072   9.894  12.215
 2838SOL    HW210412   3.174   9.838  12.119
 2839SOL     OW10413  13.130  13.515   0.751
 2839SOL    HW110414  13.123  13.490   0.843
 2839SOL    HW210415  13.062  13.466   0.707
 2840SOL     OW10416   8.783   0.983   7.817
 2840SOL    HW110417   8.726   0.968   7.742
 2840SOL    HW210418   8.818   0.896   7.838
 2841SOL     OW10419   3.225   7.185   8.615
 2841SOL    HW110420   3.216   7.195   8.520
 2841SOL    HW210421   3.222   7.275   8.648
 2842SOL     OW10422   0.571   9.327   9.103
 2842SOL    HW110423   0.520   9.246   9.109
 2842SOL    HW210424   0.542   9.379   9.178
 2843SOL     OW10425  11.362   3.960   5.557
 2843SOL    HW110426  11.364   3.988   5.649
 2843SOL    HW210427  11.276   3.987   5.525
 2844SOL     OW10428   2.724   1.553   5.116
 2844SOL    HW110429   2.708   1.549   5.210
 2844SOL    HW210430   2.778   1.476   5.098
 2845SOL     OW10431   0.384   8.252  14.476
 2845SOL    HW110432   0.382   8.203  14.393
 2845SOL    HW210433   0.320   8.322  14.464
 2846SOL     OW10434  10.710  13.047   8.483
 2846SOL    HW110435  10.704  13.082   8.395
 2846SOL    HW210436  10.621  13.056   8.518
 2847SOL     OW10437   6.429   4.831  11.451
 2847SOL    HW110438   6.420   4.822  11.546
 2847SOL    HW210439   6.342   4.856  11.421
 2848SOL     OW10440   7.120  11.505   4.698
 2848SOL    HW110441   7.052  11.569   4.678
 2848SOL    HW210442   7.126  11.450   4.620
 2849SOL     OW10443   0.624   1.223  11.170
 2849SOL    HW110444   0.716   1.205  11.148
 2849SOL    HW210445   0.574   1.171  11.106
 2850SOL     OW10446  13.300   1.602  10.426
 2850SOL    HW110447  13.390   1.579  10.404
 2850SOL    HW210448  13.266   1.527  10.473
 2851SOL     OW10449  10.516  14.287   7.339
 2851SOL    HW110450  10.577  14.322   7.404
 2851SOL    HW210451  10.521  14.192   7.349
 2852SOL     OW10452  12.335  13.528  11.840
 2852SOL    HW110453  12.272  13.598  11.858
 2852SOL    HW210454  12.324  13.509  11.747
 2853SOL     OW10455  11.269   0.773   7.419
 2853SOL    HW110456  11.225   0.831   7.482
 2853SOL    HW210457  11.295   0.697   7.471
 2854SOL     OW10458   0.729   4.280  14.811
 2854SOL    HW110459   0.752   4.341   0.009
 2854SOL    HW210460   0.682   4.209  14.856
 2855SOL     OW10461   7.498   5.899   2.538
 2855SOL    HW110462   7.585   5.926   2.510
 2855SOL    HW210463   7.452   5.877   2.457
 2856SOL     OW10464   1.737   1.918  10.168
 2856SOL    HW110465   1.787   1.999  10.179
 2856SOL    HW210466   1.742   1.876  10.254
 2857SOL     OW10467   1.151   6.928   0.138
 2857SOL    HW110468   1.087   6.931   0.210
 2857SOL    HW210469   1.107   6.877   0.070
 2858SOL     OW10470   7.268   0.879  14.153
 2858SOL    HW110471   7.331   0.947  14.131
 2858SOL    HW210472   7.251   0.833  14.070
 2859SOL     OW10473  12.164   5.844   8.924
 2859SOL    HW110474  12.168   5.754   8.958
 2859SOL    HW210475  12.130   5.896   8.997
 2860SOL     OW10476   1.926  12.926   6.741
 2860SOL    HW110477   2.001  12.942   6.798
 2860SOL    HW210478   1.962  12.931   6.652
 2861SOL     OW10479   1.231   3.079   6.991
 2861SOL    HW110480   1.207   2.992   7.025
 2861SOL    HW210481   1.202   3.077   6.899
 2862SOL     OW10482  13.611   1.427  10.945
 2862SOL    HW110483  13.536   1.373  10.919
 2862SOL    HW210484  13.664   1.369  10.999
 2863SOL     OW10485   7.881  12.389  14.800
 2863SOL    HW110486   7.787  12.383  14.817
 2863SOL    HW210487   7.890  12.455  14.732
 2864SOL     OW10488  14.820  11.686   9.158
 2864SOL    HW110489   0.040  11.711   9.161
 2864SOL    HW210490  14.805  11.658   9.067
 2865SOL     OW10491  12.839   6.977  11.005
 2865SOL    HW110492  12.772   7.001  10.940
 2865SOL    HW210493  12.789   6.941  11.078
 2866SOL     OW10494   1.124   0.161   6.310
 2866SOL    HW110495   1.153   0.090   6.253
 2866SOL    HW210496   1.142   0.241   6.260
 2867SOL     OW10497   5.442   7.265   0.464
 2867SOL    HW110498   5.450   7.358   0.445
 2867SOL    HW210499   5.530   7.229   0.449
 2868SOL     OW10500   5.595   9.498   4.756
 2868SOL    HW110501   5.508   9.509   4.718
 2868SOL    HW210502   5.598   9.561   4.828
 2869SOL     OW10503   1.287  12.735   3.250
 2869SOL    HW110504   1.349  12.669   3.282
 2869SOL    HW210505   1.269  12.790   3.326
 2870SOL     OW10506   8.661   0.995   6.170
 2870SOL    HW110507   8.661   0.961   6.260
 2870SOL    HW210508   8.639   0.919   6.116
 2871SOL     OW10509   4.971   6.465  14.020
 2871SOL    HW110510   5.040   6.528  14.003
 2871SOL    HW210511   4.926   6.454  13.936
 2872SOL     OW10512  12.218   0.372   0.952
 2872SOL    HW110513  12.296   0.328   0.985
 2872SOL    HW210514  12.252   0.448   0.904
 2873SOL     OW10515  10.250   0.265   7.845
 2873SOL    HW110516  10.171   0.291   7.892
 2873SOL    HW210517  10.241   0.171   7.834
 2874SOL     OW10518   2.678   0.985   8.293
 2874SOL    HW110519   2.631   0.975   8.210
 2874SOL    HW210520   2.615   1.025   8.352
 2875SOL     OW10521   8.184   3.803  12.557
 2875SOL    HW110522   8.239   3.780  12.482
 2875SOL    HW210523   8.233   3.871  12.603
 2876SOL     OW10524  13.813   7.820  10.667
 2876SOL    HW110525  13.805   7.913  10.643
 2876SOL    HW210526  13.771   7.774  10.594
 2877SOL     OW10527   9.106   8.754   5.167
 2877SOL    HW110528   9.191   8.797   5.153
 2877SOL    HW210529   9.084   8.774   5.258
 2878SOL     OW10530  13.201   1.577   1.004
 2878SOL    HW110531  13.237   1.665   1.002
 2878SOL    HW210532  13.227   1.538   0.921
 2879SOL     OW10533   2.350   2.116   6.888
 2879SOL    HW110534   2.372   2.147   6.976
 2879SOL    HW210535   2.382   2.026   6.885
 2880SOL     OW10536   6.534   8.374  13.781
 2880SOL    HW110537   6.525   8.352  13.689
 2880SOL    HW210538   6.524   8.469  13.784
 2881SOL     OW10539   5.079  10.394   9.070
 2881SOL    HW110540   5.142  10.447   9.119
 2881SOL    HW210541   5.128  10.363   8.994
 2882SOL     OW10542  10.961   5.907  13.769
 2882SOL    HW110543  11.052   5.920  13.796
 2882SOL    HW210544  10.915   5.981  13.808
 2883SOL     OW10545   6.559   2.489   6.787
 2883SOL    HW110546   6.495   2.553   6.756
 2883SOL    HW210547   6.592   2.447   6.708
 2884SOL     OW10548   1.285  13.841   5.251
 2884SOL    HW110549   1.197  13.806   5.265
 2884SOL    HW210550   1.329  13.830   5.336
 2885SOL     OW10551   4.494   6.270   5.873
 2885SOL    HW110552   4.549   6.325   5.927
 2885SOL    HW210553   4.500   6.183   5.912
 2886SOL     OW10554   1.489   3.254  12.863
 2886SOL    HW110555   1.578   3.251  12.896
 2886SOL    HW210556   1.434   3.248  12.941
 2887SOL     OW10557   4.264   6.949  13.459
 2887SOL    HW110558   4.342   6.902  13.430
 2887SOL    HW210559   4.292   6.998  13.536
 2888SOL     OW10560  11.692  10.311   1.859
 2888SOL    HW110561  11.602  10.281   1.842
 2888SOL    HW210562  11.686  10.362   1.940
 2889SOL     OW10563   7.173   0.046   8.990
 2889SOL    HW110564   7.121   0.088   8.921
 2889SOL    HW210565   7.161  14.824   8.976
 2890SOL     OW10566   1.799   2.479   1.984
 2890SOL    HW110567   1.841   2.501   2.067
 2890SOL    HW210568   1.842   2.398   1.956
 2891SOL     OW10569   9.631   5.049  13.090
 2891SOL    HW110570   9.631   5.057  13.186
 2891SOL    HW210571   9.634   5.139  13.059
 2892SOL     OW10572   9.205   1.490  12.733
 2892SOL    HW110573   9.203   1.585  12.745
 2892SOL    HW210574   9.212   1.455  12.822
 2893SOL     OW10575  10.130   7.969   6.536
 2893SOL    HW110576  10.117   7.960   6.442
 2893SOL    HW210577  10.120   8.062   6.553
 2894SOL     OW10578   1.172   8.390   5.728
 2894SOL    HW110579   1.267   8.384   5.717
 2894SOL    HW210580   1.136   8.356   5.647
 2895SOL     OW10581   6.739  11.222   1.638
 2895SOL    HW110582   6.798  11.287   1.600
 2895SOL    HW210583   6.726  11.158   1.568
 2896SOL     OW10584  14.688   5.974  10.898
 2896SOL    HW110585  14.679   5.901  10.838
 2896SOL    HW210586  14.655   6.050  10.849
 2897SOL     OW10587   8.176  11.035  12.355
 2897SOL    HW110588   8.082  11.042  12.336
 2897SOL    HW210589   8.201  11.123  12.383
 2898SOL     OW10590  10.159   1.983   1.115
 2898SOL    HW110591  10.130   1.902   1.075
 2898SOL    HW210592  10.227   1.956   1.177
 2899SOL     OW10593   3.536   3.642   6.386
 2899SOL    HW110594   3.618   3.618   6.427
 2899SOL    HW210595   3.503   3.560   6.348
 2900SOL     OW10596   2.761   1.231  11.962
 2900SOL    HW110597   2.809   1.149  11.951
 2900SOL    HW210598   2.806   1.293  11.904
 2901SOL     OW10599  13.896   1.139   7.791
 2901SOL    HW110600  13.983   1.132   7.753
 2901SOL    HW210601  13.901   1.215   7.849
 2902SOL     OW10602  12.592   3.143   1.003
 2902SOL    HW110603  12.606   3.220   1.059
 2902SOL    HW210604  12.681   3.116   0.978
 2903SOL     OW10605   9.199   4.469  11.108
 2903SOL    HW110606   9.196   4.470  11.012
 2903SOL    HW210607   9.187   4.377  11.131
 2904SOL     OW10608   5.738  10.342   8.245
 2904SOL    HW110609   5.828  10.355   8.274
 2904SOL    HW210610   5.692  10.422   8.272
 2905SOL     OW10611   5.535   6.201  12.353
 2905SOL    HW110612   5.496   6.265  12.293
 2905SOL    HW210613   5.577   6.254  12.420
 2906SOL     OW10614   2.608   2.938   0.363
 2906SOL    HW110615   2.666   3.011   0.342
 2906SOL    HW210616   2.613   2.881   0.286
 2907SOL     OW10617  12.476   9.249   9.235
 2907SOL    HW110618  12.495   9.226   9.326
 2907SOL    HW210619  12.441   9.338   9.240
 2908SOL     OW10620   4.238   0.017   4.043
 2908SOL    HW110621   4.247   0.073   4.120
 2908SOL    HW210622   4.165   0.055   3.994
 2909SOL     OW10623   7.649  12.599   5.317
 2909SOL    HW110624   7.632  12.524   5.373
 2909SOL    HW210625   7.564  12.620   5.278
 2910SOL     OW10626   3.301   6.348   3.721
 2910SOL    HW110627   3.208   6.363   3.702
 2910SOL    HW210628   3.346   6.418   3.675
 2911SOL     OW10629  14.402   6.751   4.017
 2911SOL    HW110630  14.415   6.658   4.001
 2911SOL    HW210631  14.483   6.793   3.985
 2912SOL     OW10632  11.626   8.769   9.616
 2912SOL    HW110633  11.575   8.840   9.578
 2912SOL    HW210634  11.683   8.738   9.545
 2913SOL     OW10635  13.034  13.573  12.385
 2913SOL    HW110636  12.968  13.632  12.419
 2913SOL    HW210637  13.101  13.569  12.453
 2914SOL     OW10638   1.740   9.939  10.147
 2914SOL    HW110639   1.706   9.855  10.115
 2914SOL    HW210640   1.819   9.915  10.196
 2915SOL     OW10641   9.853   9.297  14.662
 2915SOL    HW110642   9.942   9.261  14.665
 2915SOL    HW210643   9.801   9.231  14.617
 2916SOL     OW10644   7.587   7.600   5.286
 2916SOL    HW110645   7.573   7.597   5.380
 2916SOL    HW210646   7.682   7.598   5.276
 2917SOL     OW10647   4.644  11.573   2.570
 2917SOL    HW110648   4.583  11.645   2.586
 2917SOL    HW210649   4.664  11.578   2.477
 2918SOL     OW10650  12.585   7.758   1.540
 2918SOL    HW110651  12.634   7.724   1.465
 2918SOL    HW210652  12.615   7.704   1.613
 2919SOL     OW10653   7.306  10.507  13.046
 2919SOL    HW110654   7.350  10.476  12.967
 2919SOL    HW210655   7.224  10.545  13.015
 2920SOL     OW10656   3.055   0.352  12.498
 2920SOL    HW110657   3.103   0.434  12.493
 2920SOL    HW210658   2.993   0.356  12.425
 2921SOL     OW10659   1.238  13.674   9.385
 2921SOL    HW110660   1.237  13.770   9.377
 2921SOL    HW210661   1.157  13.654   9.432
 2922SOL     OW10662   6.534   8.164  10.631
 2922SOL    HW110663   6.548   8.237  10.692
 2922SOL    HW210664   6.455   8.121  10.662
 2923SOL     OW10665   5.625   4.984   6.308
 2923SOL    HW110666   5.594   5.003   6.397
 2923SOL    HW210667   5.713   4.948   6.320
 2924SOL     OW10668   9.244  10.542   4.075
 2924SOL    HW110669   9.155  10.528   4.043
 2924SOL    HW210670   9.300  10.505   4.007
 2925SOL     OW10671  13.157   9.669  10.923
 2925SOL    HW110672  13.235   9.697  10.875
 2925SOL    HW210673  13.149   9.576  10.903
 2926SOL     OW10674  14.751  11.247  11.828
 2926SOL    HW110675  14.698  11.197  11.890
 2926SOL    HW210676  14.715  11.225  11.742
 2927SOL     OW10677   7.845   8.252  14.666
 2927SOL    HW110678   7.867   8.191  14.596
 2927SOL    HW210679   7.929   8.274  14.706
 2928SOL     OW10680   7.895  12.465   5.162
 2928SOL    HW110681   7.920  12.549   5.125
 2928SOL    HW210682   7.801  12.474   5.180
 2929SOL     OW10683  11.937   0.265   5.828
 2929SOL    HW110684  11.858   0.260   5.774
 2929SOL    HW210685  11.929   0.350   5.873
 2930SOL     OW10686   6.753   8.227   6.729
 2930SOL    HW110687   6.803   8.149   6.706
 2930SOL    HW210688   6.724   8.212   6.818
 2931SOL     OW10689   2.490   4.840   1.324
 2931SOL    HW110690   2.555   4.852   1.255
 2931SOL    HW210691   2.438   4.920   1.322
 2932SOL     OW10692   4.038  11.243   4.286
 2932SOL    HW110693   3.967  11.291   4.327
 2932SOL    HW210694   4.053  11.287   4.202
 2933SOL     OW10695   2.857   5.091   1.593
 2933SOL    HW110696   2.766   5.099   1.621
 2933SOL    HW210697   2.900   5.168   1.630
 2934SOL     OW10698  13.691   0.229   5.502
 2934SOL    HW110699  13.750   0.166   5.461
 2934SOL    HW210700  13.678   0.297   5.436
 2935SOL     OW10701  14.044  12.760  11.147
 2935SOL    HW110702  14.001  12.753  11.233
 2935SOL    HW210703  14.083  12.847  11.148
 2936SOL     OW10704  11.728   2.930  11.746
 2936SOL    HW110705  11.713   2.970  11.831
 2936SOL    HW210706  11.744   3.004  11.687
 2937SOL     OW10707   4.162   1.626   2.973
 2937SOL    HW110708   4.095   1.630   3.041
 2937SOL    HW210709   4.189   1.534   2.971
 2938SOL     OW10710  12.877   8.082  13.367
 2938SOL    HW110711  12.897   8.143  13.437
 2938SOL    HW210712  12.880   8.135  13.287
 2939SOL     OW10713   8.982   1.471  13.399
 2939SOL    HW110714   8.919   1.403  13.376
 2939SOL    HW210715   8.931   1.552  13.401
 2940SOL     OW10716   7.161  10.043   0.035
 2940SOL    HW110717   7.205  10.128   0.033
 2940SOL    HW210718   7.196   9.997  14.830
 2941SOL     OW10719   0.351   5.785   0.587
 2941SOL    HW110720   0.358   5.854   0.652
 2941SOL    HW210721   0.439   5.775   0.552
 2942SOL     OW10722   3.680   4.799  11.517
 2942SOL    HW110723   3.622   4.825  11.445
 2942SOL    HW210724   3.670   4.869  11.582
 2943SOL     OW10725   9.539  13.303  13.563
 2943SOL    HW110726   9.478  13.352  13.618
 2943SOL    HW210727   9.576  13.369  13.504
 2944SOL     OW10728   6.663  13.204   0.062
 2944SOL    HW110729   6.569  13.186   0.066
 2944SOL    HW210730   6.669  13.299   0.065
 2945SOL     OW10731  10.201  12.258   7.617
 2945SOL    HW110732  10.208  12.332   7.678
 2945SOL    HW210733  10.232  12.293   7.533
 2946SOL     OW10734   7.570  10.172   2.649
 2946SOL    HW110735   7.531  10.093   2.612
 2946SOL    HW210736   7.652  10.142   2.689
 2947SOL     OW10737   6.847   2.387   6.300
 2947SOL    HW110738   6.839   2.411   6.207
 2947SOL    HW210739   6.914   2.445   6.334
 2948SOL     OW10740   9.388   4.531   0.092
 2948SOL    HW110741   9.441   4.536   0.012
 2948SOL    HW210742   9.437   4.472   0.149
 2949SOL     OW10743   4.244  13.476  10.531
 2949SOL    HW110744   4.249  13.545  10.465
 2949SOL    HW210745   4.217  13.521  10.611
 2950SOL     OW10746   4.287   1.476   0.247
 2950SOL    HW110747   4.223   1.492   0.177
 2950SOL    HW210748   4.237   1.487   0.328
 2951SOL     OW10749  12.827  12.544  13.744
 2951SOL    HW110750  12.877  12.568  13.822
 2951SOL    HW210751  12.871  12.466  13.710
 2952SOL     OW10752   9.328   5.318   1.154
 2952SOL    HW110753   9.415   5.284   1.171
 2952SOL    HW210754   9.281   5.308   1.237
 2953SOL     OW10755   4.565  11.474   5.427
 2953SOL    HW110756   4.546  11.436   5.513
 2953SOL    HW210757   4.573  11.568   5.445
 2954SOL     OW10758   4.429   1.723   5.469
 2954SOL    HW110759   4.442   1.778   5.547
 2954SOL    HW210760   4.338   1.736   5.445
 2955SOL     OW10761   9.482   2.169  13.502
 2955SOL    HW110762   9.411   2.212  13.549
 2955SOL    HW210763   9.446   2.085  13.475
 2956SOL     OW10764   9.648   6.876   0.986
 2956SOL    HW110765   9.641   6.970   0.969
 2956SOL    HW210766   9.695   6.842   0.910
 2957SOL     OW10767   7.298   0.952   2.241
 2957SOL    HW110768   7.292   1.043   2.269
 2957SOL    HW210769   7.378   0.948   2.189
 2958SOL     OW10770   2.009  14.212   8.385
 2958SOL    HW110771   2.043  14.243   8.469
 2958SOL    HW210772   1.914  14.213   8.396
 2959SOL     OW10773   5.596   2.019   9.408
 2959SOL    HW110774   5.590   2.111   9.435
 2959SOL    HW210775   5.690   2.003   9.400
 2960SOL     OW10776   6.797   2.681  13.499
 2960SOL    HW110777   6.854   2.662  13.574
 2960SOL    HW210778   6.823   2.769  13.471
 2961SOL     OW10779   0.262   6.336   5.179
 2961SOL    HW110780   0.327   6.268   5.201
 2961SOL    HW210781   0.194   6.289   5.131
 2962SOL     OW10782  11.485  12.408   8.721
 2962SOL    HW110783  11.416  12.348   8.749
 2962SOL    HW210784  11.487  12.400   8.626
 2963SOL     OW10785  13.505   6.055  10.875
 2963SOL    HW110786  13.462   6.141  10.871
 2963SOL    HW210787  13.450   5.999  10.820
 2964SOL     OW10788  12.329   0.414  11.641
 2964SOL    HW110789  12.314   0.458  11.724
 2964SOL    HW210790  12.242   0.397  11.606
 2965SOL     OW10791  14.012   3.146   8.747
 2965SOL    HW110792  13.979   3.170   8.660
 2965SOL    HW210793  14.062   3.065   8.732
 2966SOL     OW10794  11.734  10.949   4.269
 2966SOL    HW110795  11.749  11.042   4.286
 2966SOL    HW210796  11.653  10.929   4.316
 2967SOL     OW10797   2.894   6.421   2.727
 2967SOL    HW110798   2.840   6.343   2.721
 2967SOL    HW210799   2.835   6.489   2.760
 2968SOL     OW10800  11.083   5.875  13.127
 2968SOL    HW110801  11.103   5.924  13.206
 2968SOL    HW210802  11.041   5.795  13.158
 2969SOL     OW10803  10.152  12.455  14.753
 2969SOL    HW110804  10.199  12.437  14.834
 2969SOL    HW210805  10.189  12.393  14.690
 2970SOL     OW10806  10.088   6.320  12.746
 2970SOL    HW110807  10.171   6.366  12.757
 2970SOL    HW210808  10.029   6.386  12.709
 2971SOL     OW10809   7.883   5.951  10.084
 2971SOL    HW110810   7.895   5.882  10.019
 2971SOL    HW210811   7.820   5.914  10.147
 2972SOL     OW10812   2.092  13.087  14.674
 2972SOL    HW110813   2.180  13.120  14.690
 2972SOL    HW210814   2.103  13.022  14.605
 2973SOL     OW10815  10.949   6.145   1.029
 2973SOL    HW110816  10.973   6.111   1.115
 2973SOL    HW210817  10.975   6.077   0.967
 2974SOL     OW10818   7.107  10.218   3.013
 2974SOL    HW110819   7.065  10.248   3.093
 2974SOL    HW210820   7.087  10.124   3.009
 2975SOL     OW10821  13.724   1.286   2.082
 2975SOL    HW110822  13.693   1.376   2.088
 2975SOL    HW210823  13.651   1.237   2.046
 2976SOL     OW10824   7.984  13.670   4.034
 2976SOL    HW110825   7.964  13.611   3.962
 2976SOL    HW210826   7.987  13.614   4.112
 2977SOL     OW10827   4.620  14.126  10.544
 2977SOL    HW110828   4.690  14.091  10.489
 2977SOL    HW210829   4.664  14.154  10.624
 2978SOL     OW10830   3.660  10.334  13.570
 2978SOL    HW110831   3.728  10.268  13.581
 2978SOL    HW210832   3.692  10.391  13.500
 2979SOL     OW10833  11.991  14.504  11.905
 2979SOL    HW110834  12.023  14.533  11.990
 2979SOL    HW210835  11.950  14.419  11.923
 2980SOL     OW10836   2.880   7.190   5.517
 2980SOL    HW110837   2.962   7.193   5.568
 2980SOL    HW210838   2.816   7.153   5.577
 2981SOL     OW10839   5.773   8.492   1.727
 2981SOL    HW110840   5.810   8.535   1.805
 2981SOL    HW210841   5.812   8.404   1.728
 2982SOL     OW10842  11.812  14.066   4.572
 2982SOL    HW110843  11.900  14.103   4.578
 2982SOL    HW210844  11.755  14.142   4.565
 2983SOL     OW10845   1.314   8.139   5.897
 2983SOL    HW110846   1.383   8.115   5.958
 2983SOL    HW210847   1.349   8.115   5.811
 2984SOL     OW10848   4.900   5.348   6.705
 2984SOL    HW110849   4.825   5.405   6.721
 2984SOL    HW210850   4.960   5.402   6.654
 2985SOL     OW10851   6.999  12.377   5.107
 2985SOL    HW110852   6.966  12.408   5.022
 2985SOL    HW210853   7.062  12.308   5.085
 2986SOL     OW10854   4.737   7.163   6.158
 2986SOL    HW110855   4.787   7.147   6.238
 2986SOL    HW210856   4.777   7.106   6.093
 2987SOL     OW10857  12.295   8.167   0.896
 2987SOL    HW110858  12.281   8.102   0.826
 2987SOL    HW210859  12.373   8.135   0.942
 2988SOL     OW10860   8.347  10.991  11.891
 2988SOL    HW110861   8.377  10.902  11.874
 2988SOL    HW210862   8.328  10.993  11.985
 2989SOL     OW10863   3.800   6.148   0.183
 2989SOL    HW110864   3.806   6.105   0.268
 2989SOL    HW210865   3.739   6.221   0.196
 2990SOL     OW10866   8.664   8.370   6.827
 2990SOL    HW110867   8.602   8.438   6.851
 2990SOL    HW210868   8.621   8.288   6.849
 2991SOL     OW10869   4.392   2.583  10.880
 2991SOL    HW110870   4.468   2.580  10.938
 2991SOL    HW210871   4.332   2.644  10.922
 2992SOL     OW10872   1.363  14.083  14.622
 2992SOL    HW110873   1.334  13.992  14.610
 2992SOL    HW210874   1.438  14.092  14.563
 2993SOL     OW10875   5.378   1.154   0.974
 2993SOL    HW110876   5.366   1.240   0.935
 2993SOL    HW210877   5.462   1.160   1.020
 2994SOL     OW10878   4.275   3.655   1.273
 2994SOL    HW110879   4.202   3.661   1.211
 2994SOL    HW210880   4.265   3.732   1.329
 2995SOL     OW10881   5.208  13.614  12.075
 2995SOL    HW110882   5.263  13.600  12.151
 2995SOL    HW210883   5.122  13.581  12.101
 2996SOL     OW10884  12.129  12.325   2.535
 2996SOL    HW110885  12.172  12.407   2.561
 2996SOL    HW210886  12.154  12.262   2.603
 2997SOL     OW10887   5.340   0.597  11.892
 2997SOL    HW110888   5.310   0.585  11.982
 2997SOL    HW210889   5.274   0.654  11.852
 2998SOL     OW10890   4.374   1.077  13.690
 2998SOL    HW110891   4.439   1.035  13.633
 2998SOL    HW210892   4.305   1.107  13.631
 2999SOL     OW10893   4.888  10.612   4.525
 2999SOL    HW110894   4.933  10.671   4.464
 2999SOL    HW210895   4.943  10.612   4.603
 3000SOL     OW10896   2.822  12.587  14.448
 3000SOL    HW110897   2.791  12.612  14.535
 3000SOL    HW210898   2.831  12.492  14.453
 3001SOL     OW10899   8.489   8.793  10.929
 3001SOL    HW110900   8.552   8.746  10.874
 3001SOL    HW210901   8.537   8.812  11.010
 3002SOL     OW10902  10.395   3.220  11.630
 3002SOL    HW110903  10.384   3.170  11.711
 3002SOL    HW210904  10.464   3.174  11.582
 3003SOL     OW10905   0.879   6.145   2.136
 3003SOL    HW110906   0.973   6.154   2.122
 3003SOL    HW210907   0.840   6.215   2.084
 3004SOL     OW10908   1.238  10.010   8.859
 3004SOL    HW110909   1.296  10.078   8.825
 3004SOL    HW210910   1.233   9.946   8.788
 3005SOL     OW10911   1.536   5.253   8.899
 3005SOL    HW110912   1.462   5.204   8.936
 3005SOL    HW210913   1.591   5.186   8.858
 3006SOL     OW10914   3.456   2.479   1.251
 3006SOL    HW110915   3.448   2.473   1.346
 3006SOL    HW210916   3.551   2.477   1.236
 3007SOL     OW10917   7.067   2.830   7.986
 3007SOL    HW110918   7.098   2.894   8.049
 3007SOL    HW210919   7.049   2.881   7.907
 3008SOL     OW10920   1.210   0.989   3.379
 3008SOL    HW110921   1.135   1.026   3.333
 3008SOL    HW210922   1.253   1.065   3.419
 3009SOL     OW10923   8.958   9.913  10.945
 3009SOL    HW110924   8.946   9.970  11.021
 3009SOL    HW210925   9.047   9.880  10.955
 3010SOL     OW10926   0.276   1.725   0.412
 3010SOL    HW110927   0.266   1.774   0.494
 3010SOL    HW210928   0.304   1.638   0.440
 3011SOL     OW10929   3.533   8.384   9.778
 3011SOL    HW110930   3.481   8.449   9.731
 3011SOL    HW210931   3.527   8.305   9.725
 3012SOL     OW10932  12.066  10.910   8.454
 3012SOL    HW110933  12.142  10.867   8.491
 3012SOL    HW210934  12.000  10.907   8.524
 3013SOL     OW10935  10.040  12.386   0.302
 3013SOL    HW110936  10.106  12.356   0.239
 3013SOL    HW210937  10.051  12.481   0.304
 3014SOL     OW10938  11.464   7.788   3.553
 3014SOL    HW110939  11.455   7.721   3.621
 3014SOL    HW210940  11.425   7.866   3.591
 3015SOL     OW10941   3.292   2.571   4.342
 3015SOL    HW110942   3.304   2.566   4.437
 3015SOL    HW210943   3.230   2.501   4.322
 3016SOL     OW10944  12.501   6.714   7.034
 3016SOL    HW110945  12.460   6.630   7.051
 3016SOL    HW210946  12.540   6.705   6.947
 3017SOL     OW10947   3.873   3.036   2.805
 3017SOL    HW110948   3.932   3.010   2.876
 3017SOL    HW210949   3.858   2.955   2.756
 3018SOL     OW10950  14.630   9.061   0.817
 3018SOL    HW110951  14.568   9.060   0.743
 3018SOL    HW210952  14.577   9.039   0.893
 3019SOL     OW10953  10.869   6.549   5.770
 3019SOL    HW110954  10.810   6.607   5.722
 3019SOL    HW210955  10.841   6.556   5.861
 3020SOL     OW10956   0.901   3.611  12.658
 3020SOL    HW110957   0.972   3.669  12.633
 3020SOL    HW210958   0.849   3.600  12.578
 3021SOL     OW10959   2.158   4.094   0.319
 3021SOL    HW110960   2.142   4.181   0.356
 3021SOL    HW210961   2.224   4.055   0.377
 3022SOL     OW10962   8.878   6.160  12.335
 3022SOL    HW110963   8.834   6.211  12.403
 3022SOL    HW210964   8.829   6.178  12.256
 3023SOL     OW10965   5.326   5.416   8.002
 3023SOL    HW110966   5.249   5.472   8.014
 3023SOL    HW210967   5.338   5.373   8.086
 3024SOL     OW10968   1.678   9.373   5.760
 3024SOL    HW110969   1.607   9.393   5.820
 3024SOL    HW210970   1.746   9.437   5.780
 3025SOL     OW10971   9.681   3.670  11.857
 3025SOL    HW110972   9.636   3.645  11.776
 3025SOL    HW210973   9.624   3.737  11.896
 3026SOL     OW10974  11.831   3.420   4.453
 3026SOL    HW110975  11.882   3.344   4.426
 3026SOL    HW210976  11.821   3.472   4.374
 3027SOL     OW10977   1.042   1.908  11.668
 3027SOL    HW110978   1.074   1.896  11.579
 3027SOL    HW210979   1.073   1.831  11.716
 3028SOL     OW10980  10.816   0.568  12.430
 3028SOL    HW110981  10.740   0.621  12.406
 3028SOL    HW210982  10.784   0.511  12.500
 3029SOL     OW10983  11.799  11.198   0.932
 3029SOL    HW110984  11.722  11.158   0.971
 3029SOL    HW210985  11.861  11.206   1.004
 3030SOL     OW10986   1.138  13.292   9.136
 3030SOL    HW110987   1.108  13.357   9.072
 3030SOL    HW210988   1.209  13.246   9.091
 3031SOL     OW10989   1.108   4.411   3.206
 3031SOL    HW110990   1.027   4.432   3.251
 3031SOL    HW210991   1.093   4.325   3.168
 3032SOL     OW10992   4.086  12.463   3.493
 3032SOL    HW110993   4.091  12.393   3.559
 3032SOL    HW210994   4.062  12.419   3.412
 3033SOL     OW10995   1.309   5.079   2.228
 3033SOL    HW110996   1.297   4.995   2.274
 3033SOL    HW210997   1.312   5.055   2.136
 3034SOL     OW10998   7.994  13.048   6.839
 3034SOL    HW110999   8.087  13.030   6.855
 3034SOL    HW211000   7.993  13.138   6.805
 3035SOL     OW11001  11.068   6.798   5.038
 3035SOL    HW111002  11.052   6.722   4.981
 3035SOL    HW211003  11.019   6.869   4.997
 3036SOL     OW11004  13.648   0.255   4.399
 3036SOL    HW111005  13.651   0.183   4.335
 3036SOL    HW211006  13.557   0.254   4.431
 3037SOL     OW11007   7.318  13.821   2.698
 3037SOL    HW111008   7.301  13.748   2.639
 3037SOL    HW211009   7.243  13.822   2.757
 3038SOL     OW11010   1.745   6.201  12.114
 3038SOL    HW111011   1.731   6.292  12.089
 3038SOL    HW211012   1.744   6.153  12.031
 3039SOL     OW11013   2.922   6.218   0.257
 3039SOL    HW111014   2.832   6.187   0.247
 3039SOL    HW211015   2.917   6.311   0.237
 3040SOL     OW11016   7.794  10.169  13.343
 3040SOL    HW111017   7.754  10.127  13.420
 3040SOL    HW211018   7.874  10.120  13.328
 3041SOL     OW11019  14.021  11.260   5.286
 3041SOL    HW111020  14.036  11.166   5.278
 3041SOL    HW211021  14.077  11.299   5.219
 3042SOL     OW11022   5.063   8.502   0.835
 3042SOL    HW111023   5.151   8.539   0.842
 3042SOL    HW211024   5.011   8.572   0.796
 3043SOL     OW11025  12.556  12.795   3.608
 3043SOL    HW111026  12.556  12.738   3.685
 3043SOL    HW211027  12.488  12.759   3.552
 3044SOL     OW11028   3.172   6.285   9.620
 3044SOL    HW111029   3.167   6.357   9.558
 3044SOL    HW211030   3.249   6.304   9.674
 3045SOL     OW11031  13.046   4.709   4.612
 3045SOL    HW111032  13.136   4.711   4.579
 3045SOL    HW211033  13.032   4.797   4.648
 3046SOL     OW11034   6.632   8.926   7.941
 3046SOL    HW111035   6.695   8.969   7.884
 3046SOL    HW211036   6.558   8.905   7.884
 3047SOL     OW11037   2.006   5.900   7.899
 3047SOL    HW111038   1.940   5.831   7.899
 3047SOL    HW211039   2.076   5.867   7.955
 3048SOL     OW11040   3.361  12.193  11.176
 3048SOL    HW111041   3.353  12.112  11.124
 3048SOL    HW211042   3.338  12.263  11.114
 3049SOL     OW11043  13.915   1.493   3.344
 3049SOL    HW111044  13.973   1.509   3.418
 3049SOL    HW211045  13.920   1.572   3.290
 3050SOL     OW11046  13.568   8.280   8.203
 3050SOL    HW111047  13.473   8.290   8.201
 3050SOL    HW211048  13.591   8.244   8.118
 3051SOL     OW11049   0.365  14.382   2.661
 3051SOL    HW111050   0.337  14.412   2.747
 3051SOL    HW211051   0.356  14.287   2.664
 3052SOL     OW11052  10.367   9.482  11.016
 3052SOL    HW111053  10.364   9.429  11.095
 3052SOL    HW211054  10.283   9.465  10.972
 3053SOL     OW11055  14.429   4.020   1.425
 3053SOL    HW111056  14.362   3.972   1.474
 3053SOL    HW211057  14.509   4.006   1.476
 3054SOL     OW11058   6.652   4.981   2.801
 3054SOL    HW111059   6.630   5.075   2.796
 3054SOL    HW211060   6.620   4.954   2.887
 3055SOL     OW11061   7.371  13.008   2.134
 3055SOL    HW111062   7.369  13.095   2.173
 3055SOL    HW211063   7.290  12.967   2.163
 3056SOL     OW11064  11.857   1.808  11.742
 3056SOL    HW111065  11.937   1.765  11.712
 3056SOL    HW211066  11.887   1.875  11.804
 3057SOL     OW11067  11.277   7.289  13.660
 3057SOL    HW111068  11.311   7.374  13.686
 3057SOL    HW211069  11.241   7.252  13.741
 3058SOL     OW11070   6.813  13.574   1.571
 3058SOL    HW111071   6.815  13.669   1.580
 3058SOL    HW211072   6.901  13.546   1.597
 3059SOL     OW11073   1.589   5.195  14.374
 3059SOL    HW111074   1.676   5.237  14.377
 3059SOL    HW211075   1.607   5.105  14.346
 3060SOL     OW11076  14.712   8.807   3.299
 3060SOL    HW111077  14.767   8.869   3.346
 3060SOL    HW211078  14.638   8.859   3.266
 3061SOL     OW11079   6.872   8.714  14.279
 3061SOL    HW111080   6.835   8.802  14.269
 3061SOL    HW211081   6.915   8.716  14.364
 3062SOL     OW11082  11.191  11.885  14.590
 3062SOL    HW111083  11.178  11.905  14.682
 3062SOL    HW211084  11.243  11.958  14.556
 3063SOL     OW11085  13.457   8.313   0.389
 3063SOL    HW111086  13.459   8.376   0.462
 3063SOL    HW211087  13.364   8.297   0.373
 3064SOL     OW11088   5.121   7.063  11.119
 3064SOL    HW111089   5.149   7.040  11.207
 3064SOL    HW211090   5.028   7.039  11.116
 3065SOL     OW11091   6.080  10.187   1.725
 3065SOL    HW111092   6.158  10.148   1.686
 3065SOL    HW211093   6.103  10.279   1.739
 3066SOL     OW11094  13.665  12.666  11.545
 3066SOL    HW111095  13.646  12.581  11.584
 3066SOL    HW211096  13.609  12.669  11.467
 3067SOL     OW11097  10.463   3.378   7.532
 3067SOL    HW111098  10.542   3.385   7.586
 3067SOL    HW211099  10.495   3.349   7.446
 3068SOL     OW11100   5.020   3.413  10.284
 3068SOL    HW111101   5.006   3.459  10.201
 3068SOL    HW211102   5.114   3.420  10.300
 3069SOL     OW11103   3.520   8.558  10.013
 3069SOL    HW111104   3.426   8.558   9.994
 3069SOL    HW211105   3.558   8.501   9.946
 3070SOL     OW11106  12.251   2.884  13.521
 3070SOL    HW111107  12.339   2.851  13.508
 3070SOL    HW211108  12.195   2.807  13.511
 3071SOL     OW11109  13.601   7.232   2.181
 3071SOL    HW111110  13.652   7.310   2.203
 3071SOL    HW211111  13.665   7.162   2.176
 3072SOL     OW11112   3.515  12.163  11.429
 3072SOL    HW111113   3.452  12.187  11.361
 3072SOL    HW211114   3.564  12.089  11.392
 3073SOL     OW11115  13.846   1.016   5.744
 3073SOL    HW111116  13.942   1.017   5.742
 3073SOL    HW211117  13.824   0.923   5.753
 3074SOL     OW11118  12.611  11.914   0.149
 3074SOL    HW111119  12.570  11.973   0.086
 3074SOL    HW211120  12.547  11.906   0.219
 3075SOL     OW11121  11.903   7.058  11.689
 3075SOL    HW111122  11.888   7.056  11.594
 3075SOL    HW211123  11.893   7.150  11.713
 3076SOL     OW11124   3.192   3.641   1.485
 3076SOL    HW111125   3.158   3.560   1.445
 3076SOL    HW211126   3.159   3.711   1.429
 3077SOL     OW11127   2.958   4.314  11.768
 3077SOL    HW111128   3.021   4.245  11.747
 3077SOL    HW211129   3.009   4.395  11.761
 3078SOL     OW11130   8.658  11.397  10.782
 3078SOL    HW111131   8.682  11.311  10.817
 3078SOL    HW211132   8.584  11.379  10.724
 3079SOL     OW11133   4.496   2.900   1.647
 3079SOL    HW111134   4.573   2.869   1.695
 3079SOL    HW211135   4.428   2.835   1.667
 3080SOL     OW11136   5.845   8.454   8.084
 3080SOL    HW111137   5.859   8.399   8.006
 3080SOL    HW211138   5.820   8.392   8.152
 3081SOL     OW11139   8.786   4.013   1.629
 3081SOL    HW111140   8.783   4.100   1.588
 3081SOL    HW211141   8.784   4.031   1.723
 3082SOL     OW11142  13.349  13.786   9.255
 3082SOL    HW111143  13.436  13.806   9.291
 3082SOL    HW211144  13.291  13.851   9.294
 3083SOL     OW11145   5.347   2.219   1.441
 3083SOL    HW111146   5.428   2.177   1.412
 3083SOL    HW211147   5.356   2.226   1.536
 3084SOL     OW11148   9.065  11.128   5.242
 3084SOL    HW111149   9.039  11.155   5.154
 3084SOL    HW211150   8.989  11.080   5.276
 3085SOL     OW11151   2.820  14.485   4.951
 3085SOL    HW111152   2.867  14.537   4.886
 3085SOL    HW211153   2.757  14.435   4.900
 3086SOL     OW11154  11.506   2.119   6.324
 3086SOL    HW111155  11.565   2.054   6.361
 3086SOL    HW211156  11.524   2.119   6.230
 3087SOL     OW11157  11.161   5.434   6.648
 3087SOL    HW111158  11.161   5.530   6.647
 3087SOL    HW211159  11.146   5.411   6.740
 3088SOL     OW11160   0.191   9.444  11.792
 3088SOL    HW111161   0.121   9.390  11.827
 3088SOL    HW211162   0.201   9.516  11.855
 3089SOL     OW11163   6.810   1.385  14.157
 3089SOL    HW111164   6.819   1.477  14.131
 3089SOL    HW211165   6.801   1.338  14.074
 3090SOL     OW11166   1.371   6.695   8.979
 3090SOL    HW111167   1.292   6.688   9.033
 3090SOL    HW211168   1.442   6.668   9.037
 3091SOL     OW11169   9.222   8.843   1.443
 3091SOL    HW111170   9.286   8.773   1.456
 3091SOL    HW211171   9.228   8.895   1.523
 3092SOL     OW11172   1.586  11.675   6.838
 3092SOL    HW111173   1.611  11.764   6.815
 3092SOL    HW211174   1.498  11.684   6.875
 3093SOL     OW11175  11.483   9.572   3.391
 3093SOL    HW111176  11.482   9.483   3.354
 3093SOL    HW211177  11.391   9.592   3.408
 3094SOL     OW11178   7.000   7.585   3.895
 3094SOL    HW111179   6.915   7.601   3.937
 3094SOL    HW211180   7.062   7.580   3.967
 3095SOL     OW11181   3.121   5.531   1.466
 3095SOL    HW111182   3.132   5.441   1.436
 3095SOL    HW211183   3.190   5.544   1.530
 3096SOL     OW11184   0.194  13.560   7.319
 3096SOL    HW111185   0.239  13.643   7.336
 3096SOL    HW211186   0.182  13.558   7.224
 3097SOL     OW11187   7.075  13.911  12.307
 3097SOL    HW111188   7.146  13.925  12.244
 3097SOL    HW211189   7.029  13.833  12.274
 3098SOL     OW11190   3.593   5.022   9.781
 3098SOL    HW111191   3.563   5.085   9.846
 3098SOL    HW211192   3.688   5.036   9.777
 3099SOL     OW11193   1.389  12.074  13.726
 3099SOL    HW111194   1.396  12.002  13.662
 3099SOL    HW211195   1.303  12.061  13.766
 3100SOL     OW11196   3.144  14.496   6.271
 3100SOL    HW111197   3.139  14.565   6.337
 3100SOL    HW211198   3.102  14.420   6.312
 3101SOL     OW11199  12.907  14.022   1.751
 3101SOL    HW111200  12.906  14.110   1.714
 3101SOL    HW211201  12.864  14.032   1.836
 3102SOL     OW11202   9.369   4.764   6.929
 3102SOL    HW111203   9.322   4.832   6.880
 3102SOL    HW211204   9.307   4.691   6.932
 3103SOL     OW11205   0.799   5.249   9.505
 3103SOL    HW111206   0.705   5.238   9.490
 3103SOL    HW211207   0.817   5.195   9.582
 3104SOL     OW11208   5.754   3.596   0.733
 3104SOL    HW111209   5.748   3.560   0.821
 3104SOL    HW211210   5.664   3.623   0.712
 3105SOL     OW11211   7.720   5.655   6.514
 3105SOL    HW111212   7.696   5.583   6.571
 3105SOL    HW211213   7.783   5.706   6.566
 3106SOL     OW11214  12.380  14.074   6.434
 3106SOL    HW111215  12.474  14.078   6.418
 3106SOL    HW211216  12.340  14.108   6.354
 3107SOL     OW11217  10.193  12.411   6.269
 3107SOL    HW111218  10.215  12.367   6.187
 3107SOL    HW211219  10.213  12.347   6.337
 3108SOL     OW11220   0.383  11.751   0.695
 3108SOL    HW111221   0.473  11.768   0.723
 3108SOL    HW211222   0.340  11.716   0.774
 3109SOL     OW11223  12.248  10.303   8.985
 3109SOL    HW111224  12.224  10.384   8.941
 3109SOL    HW211225  12.289  10.331   9.067
 3110SOL     OW11226   6.360   6.548   6.205
 3110SOL    HW111227   6.446   6.574   6.237
 3110SOL    HW211228   6.316   6.511   6.282
 3111SOL     OW11229   6.746  13.396   9.707
 3111SOL    HW111230   6.741  13.301   9.707
 3111SOL    HW211231   6.795  13.418   9.628
 3112SOL     OW11232   7.553   6.344  10.153
 3112SOL    HW111233   7.492   6.357  10.225
 3112SOL    HW211234   7.503   6.295  10.088
 3113SOL     OW11235   8.239   0.993   7.923
 3113SOL    HW111236   8.243   0.917   7.982
 3113SOL    HW211237   8.330   1.020   7.914
 3114SOL     OW11238   6.633  13.290   8.239
 3114SOL    HW111239   6.559  13.249   8.286
 3114SOL    HW211240   6.604  13.295   8.148
 3115SOL     OW11241   9.324  12.280   9.608
 3115SOL    HW111242   9.327  12.230   9.690
 3115SOL    HW211243   9.416  12.289   9.583
 3116SOL     OW11244  13.147   2.936  12.947
 3116SOL    HW111245  13.067   2.969  12.907
 3116SOL    HW211246  13.119   2.865  13.005
 3117SOL     OW11247   0.349   5.402   3.666
 3117SOL    HW111248   0.427   5.348   3.680
 3117SOL    HW211249   0.359   5.474   3.729
 3118SOL     OW11250   5.699   7.079  14.726
 3118SOL    HW111251   5.762   7.108  14.660
 3118SOL    HW211252   5.742   7.007  14.771
 3119SOL     OW11253  13.048  12.675   4.808
 3119SOL    HW111254  13.125  12.618   4.807
 3119SOL    HW211255  13.083  12.764   4.806
 3120SOL     OW11256   2.635  14.220   6.737
 3120SOL    HW111257   2.561  14.248   6.791
 3120SOL    HW211258   2.658  14.133   6.772
 3121SOL     OW11259   4.553  11.736  13.910
 3121SOL    HW111260   4.620  11.679  13.872
 3121SOL    HW211261   4.595  11.822  13.916
 3122SOL     OW11262   6.727   7.010  12.826
 3122SOL    HW111263   6.637   6.998  12.799
 3122SOL    HW211264   6.759   7.082  12.772
 3123SOL     OW11265  12.882   5.991   4.342
 3123SOL    HW111266  12.819   5.943   4.394
 3123SOL    HW211267  12.863   6.083   4.361
 3124SOL     OW11268   0.155   9.343   9.038
 3124SOL    HW111269   0.072   9.367   9.081
 3124SOL    HW211270   0.156   9.396   8.958
 3125SOL     OW11271   1.330   1.598   6.528
 3125SOL    HW111272   1.416   1.605   6.487
 3125SOL    HW211273   1.308   1.505   6.525
 3126SOL     OW11274   4.398  14.126  13.113
 3126SOL    HW111275   4.449  14.203  13.086
 3126SOL    HW211276   4.461  14.054  13.112
 3127SOL     OW11277   4.357  12.819  12.364
 3127SOL    HW111278   4.270  12.796  12.330
 3127SOL    HW211279   4.382  12.898  12.315
 3128SOL     OW11280   8.931   1.642   3.431
 3128SOL    HW111281   8.948   1.639   3.526
 3128SOL    HW211282   9.016   1.659   3.392
 3129SOL     OW11283   7.202   8.484  12.424
 3129SOL    HW111284   7.217   8.513  12.335
 3129SOL    HW211285   7.288   8.490  12.466
 3130SOL     OW11286   3.755  10.985  12.236
 3130SOL    HW111287   3.689  10.967  12.303
 3130SOL    HW211288   3.821  10.917  12.248
 3131SOL     OW11289  10.038   5.509   2.866
 3131SOL    HW111290   9.980   5.433   2.869
 3131SOL    HW211291   9.995   5.570   2.805
 3132SOL     OW11292   5.928   0.224   2.291
 3132SOL    HW111293   5.898   0.150   2.239
 3132SOL    HW211294   6.010   0.251   2.250
 3133SOL     OW11295   6.674   5.364   9.984
 3133SOL    HW111296   6.623   5.296  10.026
 3133SOL    HW211297   6.648   5.359   9.892
 3134SOL     OW11298  10.500   9.576  12.057
 3134SOL    HW111299  10.520   9.669  12.054
 3134SOL    HW211300  10.568   9.539  12.114
 3135SOL     OW11301  11.629  13.810   9.899
 3135SOL    HW111302  11.638  13.720   9.867
 3135SOL    HW211303  11.598  13.800   9.989
 3136SOL     OW11304  14.271   5.491   4.122
 3136SOL    HW111305  14.320   5.566   4.156
 3136SOL    HW211306  14.338   5.429   4.095
 3137SOL     OW11307   3.624  11.041  11.965
 3137SOL    HW111308   3.697  11.005  11.914
 3137SOL    HW211309   3.646  11.022  12.056
 3138SOL     OW11310   5.859   9.223   2.212
 3138SOL    HW111311   5.800   9.151   2.193
 3138SOL    HW211312   5.884   9.210   2.304
 3139SOL     OW11313   0.796   3.061   3.813
 3139SOL    HW111314   0.710   3.022   3.822
 3139SOL    HW211315   0.788   3.121   3.739
 3140SOL     OW11316  13.029  13.499  14.776
 3140SOL    HW111317  13.052  13.568  14.838
 3140SOL    HW211318  13.079  13.520  14.697
 3141SOL     OW11319  10.204  13.812   2.382
 3141SOL    HW111320  10.204  13.718   2.365
 3141SOL    HW211321  10.294  13.832   2.410
 3142SOL     OW11322   0.897  12.169   0.544
 3142SOL    HW111323   0.828  12.106   0.566
 3142SOL    HW211324   0.970  12.145   0.600
 3143SOL     OW11325   8.545  12.534  14.279
 3143SOL    HW111326   8.512  12.509  14.193
 3143SOL    HW211327   8.573  12.625  14.268
 3144SOL     OW11328   3.262   8.347  12.907
 3144SOL    HW111329   3.343   8.385  12.871
 3144SOL    HW211330   3.225   8.297  12.834
 3145SOL     OW11331   8.970  13.200   6.605
 3145SOL    HW111332   9.065  13.205   6.599
 3145SOL    HW211333   8.939  13.209   6.515
 3146SOL     OW11334   4.911  13.659   9.489
 3146SOL    HW111335   4.886  13.709   9.567
 3146SOL    HW211336   4.930  13.571   9.521
 3147SOL     OW11337   5.244  12.611  10.929
 3147SOL    HW111338   5.338  12.597  10.919
 3147SOL    HW211339   5.204  12.552  10.866
 3148SOL     OW11340   7.465  11.873   2.169
 3148SOL    HW111341   7.375  11.887   2.199
 3148SOL    HW211342   7.498  11.802   2.225
 3149SOL     OW11343   2.972  13.065  14.454
 3149SOL    HW111344   3.057  13.022  14.456
 3149SOL    HW211345   2.983  13.138  14.393
 3150SOL     OW11346  14.451   1.655   9.499
 3150SOL    HW111347  14.517   1.724   9.503
 3150SOL    HW211348  14.393   1.681   9.427
 3151SOL     OW11349  10.538   7.199  13.818
 3151SOL    HW111350  10.577   7.204  13.731
 3151SOL    HW211351  10.508   7.108  13.825
 3152SOL     OW11352   4.876   8.101   3.192
 3152SOL    HW111353   4.880   8.165   3.122
 3152SOL    HW211354   4.967   8.077   3.208
 3153SOL     OW11355  13.769   5.449  12.925
 3153SOL    HW111356  13.709   5.388  12.968
 3153SOL    HW211357  13.714   5.502  12.868
 3154SOL     OW11358   9.362  11.812  10.179
 3154SOL    HW111359   9.376  11.766  10.096
 3154SOL    HW211360   9.451  11.832  10.210
 3155SOL     OW11361  10.431   1.584   4.198
 3155SOL    HW111362  10.520   1.548   4.192
 3155SOL    HW211363  10.405   1.568   4.289
 3156SOL     OW11364   0.077  10.984   3.080
 3156SOL    HW111365   0.085  10.934   2.999
 3156SOL    HW211366   0.090  10.919   3.149
 3157SOL     OW11367   6.155   3.145  14.412
 3157SOL    HW111368   6.160   3.228  14.366
 3157SOL    HW211369   6.187   3.080  14.350
 3158SOL     OW11370   3.329   3.479   9.216
 3158SOL    HW111371   3.294   3.394   9.244
 3158SOL    HW211372   3.353   3.465   9.124
 3159SOL     OW11373  12.793  14.117  13.684
 3159SOL    HW111374  12.806  14.031  13.722
 3159SOL    HW211375  12.844  14.176  13.739
 3160SOL     OW11376   8.203   6.839   9.083
 3160SOL    HW111377   8.193   6.922   9.132
 3160SOL    HW211378   8.117   6.798   9.088
 3161SOL     OW11379   0.301   8.952   2.665
 3161SOL    HW111380   0.263   8.868   2.642
 3161SOL    HW211381   0.239   9.017   2.632
 3162SOL     OW11382   0.241   3.082   2.598
 3162SOL    HW111383   0.279   3.067   2.511
 3162SOL    HW211384   0.283   3.162   2.629
 3163SOL     OW11385   0.917   5.299  12.616
 3163SOL    HW111386   0.840   5.335  12.572
 3163SOL    HW211387   0.937   5.219  12.568
 3164SOL     OW11388   9.863  10.672  11.239
 3164SOL    HW111389   9.770  10.679  11.218
 3164SOL    HW211390   9.908  10.706  11.161
 3165SOL     OW11391   4.225   5.809  11.334
 3165SOL    HW111392   4.316   5.813  11.303
 3165SOL    HW211393   4.175   5.783  11.256
 3166SOL     OW11394   6.451  13.597   3.230
 3166SOL    HW111395   6.404  13.520   3.263
 3166SOL    HW211396   6.526  13.605   3.289
 3167SOL     OW11397   1.396  11.906   7.255
 3167SOL    HW111398   1.444  11.855   7.321
 3167SOL    HW211399   1.440  11.886   7.173
 3168SOL     OW11400  12.498   2.860   4.854
 3168SOL    HW111401  12.518   2.952   4.838
 3168SOL    HW211402  12.405   2.851   4.831
 3169SOL     OW11403   0.438   3.411   9.029
 3169SOL    HW111404   0.440   3.502   9.058
 3169SOL    HW211405   0.490   3.363   9.094
 3170SOL     OW11406  10.555  12.067   9.222
 3170SOL    HW111407  10.461  12.053   9.229
 3170SOL    HW211408  10.594  11.990   9.263
 3171SOL     OW11409   9.020   8.520   1.655
 3171SOL    HW111410   9.028   8.425   1.668
 3171SOL    HW211411   9.011   8.556   1.743
 3172SOL     OW11412   2.877  13.413  10.792
 3172SOL    HW111413   2.845  13.432  10.703
 3172SOL    HW211414   2.876  13.318  10.797
 3173SOL     OW11415  11.354  14.856   7.400
 3173SOL    HW111416  11.284  14.812   7.353
 3173SOL    HW211417  11.429  14.852   7.341
 3174SOL     OW11418   0.049  11.203   3.580
 3174SOL    HW111419   0.102  11.217   3.658
 3174SOL    HW211420   0.109  11.168   3.515
 3175SOL     OW11421   8.826   8.181   9.593
 3175SOL    HW111422   8.858   8.116   9.656
 3175SOL    HW211423   8.746   8.216   9.633
 3176SOL     OW11424   7.604   0.381  12.779
 3176SOL    HW111425   7.635   0.320  12.846
 3176SOL    HW211426   7.667   0.371  12.707
 3177SOL     OW11427   8.603  12.097   8.439
 3177SOL    HW111428   8.578  12.066   8.352
 3177SOL    HW211429   8.602  12.018   8.494
 3178SOL     OW11430  11.136   1.123   0.665
 3178SOL    HW111431  11.061   1.177   0.690
 3178SOL    HW211432  11.099   1.052   0.614
 3179SOL     OW11433   8.380   6.320   0.186
 3179SOL    HW111434   8.464   6.333   0.230
 3179SOL    HW211435   8.334   6.257   0.242
 3180SOL     OW11436   7.140  13.184   9.333
 3180SOL    HW111437   7.129  13.222   9.420
 3180SOL    HW211438   7.229  13.148   9.333
 3181SOL     OW11439  13.870   0.732   9.499
 3181SOL    HW111440  13.937   0.800   9.490
 3181SOL    HW211441  13.897   0.682   9.576
 3182SOL     OW11442   7.202   0.221  12.840
 3182SOL    HW111443   7.208   0.146  12.781
 3182SOL    HW211444   7.254   0.289  12.798
 3183SOL     OW11445   0.527   6.883   9.055
 3183SOL    HW111446   0.593   6.822   9.087
 3183SOL    HW211447   0.529   6.955   9.119
 3184SOL     OW11448   2.890   4.946  14.086
 3184SOL    HW111449   2.895   4.854  14.060
 3184SOL    HW211450   2.799   4.958  14.112
 3185SOL     OW11451   0.859  11.646   8.941
 3185SOL    HW111452   0.838  11.739   8.937
 3185SOL    HW211453   0.778  11.604   8.972
 3186SOL     OW11454  12.790   6.775   8.707
 3186SOL    HW111455  12.797   6.681   8.688
 3186SOL    HW211456  12.796   6.781   8.802
 3187SOL     OW11457  12.059   2.912  10.443
 3187SOL    HW111458  11.978   2.961  10.456
 3187SOL    HW211459  12.106   2.961  10.375
 3188SOL     OW11460   0.680   5.131   8.565
 3188SOL    HW111461   0.716   5.216   8.539
 3188SOL    HW211462   0.653   5.090   8.483
 3189SOL     OW11463   9.438   2.114   3.156
 3189SOL    HW111464   9.470   2.184   3.098
 3189SOL    HW211465   9.399   2.160   3.230
 3190SOL     OW11466  11.584  10.853  11.241
 3190SOL    HW111467  11.607  10.797  11.315
 3190SOL    HW211468  11.649  10.833  11.174
 3191SOL     OW11469  13.554  11.575   1.546
 3191SOL    HW111470  13.586  11.637   1.481
 3191SOL    HW211471  13.459  11.588   1.547
 3192SOL     OW11472   8.036   6.772   4.261
 3192SOL    HW111473   8.040   6.710   4.189
 3192SOL    HW211474   7.986   6.846   4.226
 3193SOL     OW11475   9.001  11.646   8.935
 3193SOL    HW111476   9.061  11.572   8.946
 3193SOL    HW211477   8.962  11.633   8.849
 3194SOL     OW11478  11.969   3.849   8.707
 3194SOL    HW111479  12.042   3.789   8.718
 3194SOL    HW211480  12.008   3.936   8.715
 3195SOL     OW11481   2.854  12.335   5.967
 3195SOL    HW111482   2.921  12.307   5.904
 3195SOL    HW211483   2.810  12.409   5.925
 3196SOL     OW11484  10.426   2.193   2.852
 3196SOL    HW111485  10.469   2.129   2.796
 3196SOL    HW211486  10.456   2.278   2.818
 3197SOL     OW11487  12.095   0.650   5.117
 3197SOL    HW111488  12.092   0.595   5.039
 3197SOL    HW211489  12.028   0.717   5.103
 3198SOL     OW11490   9.931   1.724   2.433
 3198SOL    HW111491   9.878   1.675   2.495
 3198SOL    HW211492   9.900   1.814   2.440
 3199SOL     OW11493   9.543  10.496  12.421
 3199SOL    HW111494   9.538  10.558  12.493
 3199SOL    HW211495   9.561  10.550  12.344
 3200SOL     OW11496  14.284   5.799  13.884
 3200SOL    HW111497  14.325   5.784  13.799
 3200SOL    HW211498  14.345   5.762  13.947
 3201SOL     OW11499  10.258  10.789   6.974
 3201SOL    HW111500  10.258  10.787   7.070
 3201SOL    HW211501  10.167  10.807   6.951
 3202SOL     OW11502  13.280  12.375   3.303
 3202SOL    HW111503  13.318  12.324   3.374
 3202SOL    HW211504  13.263  12.461   3.342
 3203SOL     OW11505  12.323  10.074   0.874
 3203SOL    HW111506  12.395  10.133   0.894
 3203SOL    HW211507  12.292  10.101   0.788
 3204SOL     OW11508   4.344   0.389  13.084
 3204SOL    HW111509   4.349   0.297  13.108
 3204SOL    HW211510   4.373   0.391  12.992
 3205SOL     OW11511   7.575  14.013   6.158
 3205SOL    HW111512   7.593  13.978   6.071
 3205SOL    HW211513   7.642  14.080   6.172
 3206SOL     OW11514   8.598   9.710   0.238
 3206SOL    HW111515   8.609   9.753   0.154
 3206SOL    HW211516   8.589   9.617   0.217
 3207SOL     OW11517  12.082   7.309   4.501
 3207SOL    HW111518  12.075   7.216   4.522
 3207SOL    HW211519  12.032   7.354   4.570
 3208SOL     OW11520   7.483   9.271  13.111
 3208SOL    HW111521   7.432   9.244  13.187
 3208SOL    HW211522   7.512   9.360  13.132
 3209SOL     OW11523   7.013   4.179  11.204
 3209SOL    HW111524   7.097   4.145  11.233
 3209SOL    HW211525   6.987   4.241  11.272
 3210SOL     OW11526  12.374  13.668  11.055
 3210SOL    HW111527  12.388  13.574  11.064
 3210SOL    HW211528  12.384  13.703  11.143
 3211SOL     OW11529  13.842  10.737   1.962
 3211SOL    HW111530  13.933  10.747   1.934
 3211SOL    HW211531  13.842  10.762   2.055
 3212SOL     OW11532   5.174   7.975   8.163
 3212SOL    HW111533   5.118   7.916   8.214
 3212SOL    HW211534   5.157   7.951   8.072
 3213SOL     OW11535   2.785   1.672   7.894
 3213SOL    HW111536   2.822   1.691   7.980
 3213SOL    HW211537   2.849   1.709   7.832
 3214SOL     OW11538   2.702   0.656   3.982
 3214SOL    HW111539   2.679   0.722   3.917
 3214SOL    HW211540   2.719   0.576   3.932
 3215SOL     OW11541  14.600   9.663   5.088
 3215SOL    HW111542  14.518   9.615   5.073
 3215SOL    HW211543  14.576   9.755   5.075
 3216SOL     OW11544   0.496   5.912  11.836
 3216SOL    HW111545   0.517   5.818  11.831
 3216SOL    HW211546   0.414   5.921  11.787
 3217SOL     OW11547   7.609   2.593  12.240
 3217SOL    HW111548   7.524   2.621  12.206
 3217SOL    HW211549   7.665   2.670  12.232
 3218SOL     OW11550   6.448   5.587  11.709
 3218SOL    HW111551   6.429   5.673  11.672
 3218SOL    HW211552   6.369   5.536  11.691
 3219SOL     OW11553  14.542   7.458   4.788
 3219SOL    HW111554  14.500   7.509   4.857
 3219SOL    HW211555  14.517   7.504   4.707
 3220SOL     OW11556   1.929   7.485   4.363
 3220SOL    HW111557   2.019   7.508   4.384
 3220SOL    HW211558   1.877   7.560   4.394
 3221SOL     OW11559   4.239   2.019   0.813
 3221SOL    HW111560   4.306   2.039   0.879
 3221SOL    HW211561   4.288   1.976   0.743
 3222SOL     OW11562  10.664   4.396  12.722
 3222SOL    HW111563  10.744   4.346  12.703
 3222SOL    HW211564  10.593   4.341  12.689
 3223SOL     OW11565  14.453  11.484   3.576
 3223SOL    HW111566  14.524  11.421   3.588
 3223SOL    HW211567  14.493  11.555   3.525
 3224SOL     OW11568   3.024  11.908   7.821
 3224SOL    HW111569   3.116  11.905   7.846
 3224SOL    HW211570   3.023  11.889   7.728
 3225SOL     OW11571  14.587   1.934   4.858
 3225SOL    HW111572  14.517   1.978   4.905
 3225SOL    HW211573  14.659   1.998   4.858
 3226SOL     OW11574   5.379   1.906   9.579
 3226SOL    HW111575   5.364   1.812   9.566
 3226SOL    HW211576   5.446   1.929   9.515
 3227SOL     OW11577  13.278   8.678  10.517
 3227SOL    HW111578  13.337   8.607  10.544
 3227SOL    HW211579  13.192   8.649  10.547
 3228SOL     OW11580  12.727   6.761   2.692
 3228SOL    HW111581  12.697   6.671   2.702
 3228SOL    HW211582  12.656   6.815   2.728
 3229SOL     OW11583   6.496   3.744   9.071
 3229SOL    HW111584   6.591   3.752   9.071
 3229SOL    HW211585   6.479   3.651   9.053
 3230SOL     OW11586   8.053   8.200  13.372
 3230SOL    HW111587   8.015   8.123  13.415
 3230SOL    HW211588   8.010   8.274  13.414
 3231SOL     OW11589   0.556   6.340  14.865
 3231SOL    HW111590   0.598   6.254  14.868
 3231SOL    HW211591   0.472   6.324  14.821
 3232SOL     OW11592   1.701   4.806  11.563
 3232SOL    HW111593   1.637   4.740  11.589
 3232SOL    HW211594   1.658   4.890  11.580
 3233SOL     OW11595   1.694  14.343  13.465
 3233SOL    HW111596   1.599  14.333  13.461
 3233SOL    HW211597   1.707  14.438  13.472
 3234SOL     OW11598   0.565   4.310   3.562
 3234SOL    HW111599   0.590   4.218   3.552
 3234SOL    HW211600   0.499   4.323   3.494
 3235SOL     OW11601   3.564  13.065   8.984
 3235SOL    HW111602   3.511  13.095   9.058
 3235SOL    HW211603   3.523  12.984   8.957
 3236SOL     OW11604   9.266   0.695   7.285
 3236SOL    HW111605   9.280   0.718   7.377
 3236SOL    HW211606   9.265   0.778   7.239
 3237SOL     OW11607   3.237   1.955   2.951
 3237SOL    HW111608   3.288   1.940   3.030
 3237SOL    HW211609   3.169   2.018   2.977
 3238SOL     OW11610   9.250   0.187   1.750
 3238SOL    HW111611   9.325   0.127   1.747
 3238SOL    HW211612   9.213   0.183   1.662
 3239SOL     OW11613   9.835  10.100   3.551
 3239SOL    HW111614   9.765  10.053   3.597
 3239SOL    HW211615   9.903  10.034   3.536
 3240SOL     OW11616  12.185   7.744   8.171
 3240SOL    HW111617  12.232   7.713   8.093
 3240SOL    HW211618  12.108   7.687   8.177
 3241SOL     OW11619  10.432   0.266  13.668
 3241SOL    HW111620  10.371   0.294  13.599
 3241SOL    HW211621  10.507   0.230  13.621
 3242SOL     OW11622   2.168   3.438   0.977
 3242SOL    HW111623   2.249   3.408   0.935
 3242SOL    HW211624   2.161   3.385   1.057
 3243SOL     OW11625   0.133   2.158   6.893
 3243SOL    HW111626   0.152   2.217   6.820
 3243SOL    HW211627   0.096   2.080   6.852
 3244SOL     OW11628   1.351   5.360  11.334
 3244SOL    HW111629   1.415   5.330  11.399
 3244SOL    HW211630   1.352   5.455  11.341
 3245SOL     OW11631   9.101   5.237  14.471
 3245SOL    HW111632   9.177   5.238  14.413
 3245SOL    HW211633   9.120   5.301  14.539
 3246SOL     OW11634   3.618   5.451   4.265
 3246SOL    HW111635   3.535   5.430   4.308
 3246SOL    HW211636   3.685   5.411   4.320
 3247SOL     OW11637   6.405   2.406  13.495
 3247SOL    HW111638   6.433   2.496  13.480
 3247SOL    HW211639   6.411   2.394  13.590
 3248SOL     OW11640  12.209  13.000   7.512
 3248SOL    HW111641  12.273  13.065   7.483
 3248SOL    HW211642  12.160  13.044   7.582
 3249SOL     OW11643   1.453  13.448  10.451
 3249SOL    HW111644   1.365  13.414  10.433
 3249SOL    HW211645   1.474  13.414  10.538
 3250SOL     OW11646   8.086   6.684   8.019
 3250SOL    HW111647   8.038   6.739   7.957
 3250SOL    HW211648   8.037   6.602   8.023
 3251SOL     OW11649   5.392  13.079   6.632
 3251SOL    HW111650   5.437  13.024   6.568
 3251SOL    HW211651   5.381  13.023   6.708
 3252SOL     OW11652   5.619   0.879   3.313
 3252SOL    HW111653   5.659   0.907   3.395
 3252SOL    HW211654   5.570   0.800   3.336
 3253SOL     OW11655   9.784  14.069   9.387
 3253SOL    HW111656   9.774  14.126   9.311
 3253SOL    HW211657   9.816  13.986   9.350
 3254SOL     OW11658   7.923   5.644   8.898
 3254SOL    HW111659   7.918   5.568   8.841
 3254SOL    HW211660   8.014   5.647   8.927
 3255SOL     OW11661  11.134   3.166   5.874
 3255SOL    HW111662  11.078   3.193   5.801
 3255SOL    HW211663  11.208   3.227   5.871
 3256SOL     OW11664   9.046   2.529  11.645
 3256SOL    HW111665   8.983   2.575  11.701
 3256SOL    HW211666   9.014   2.544  11.556
 3257SOL     OW11667   7.592   3.948   3.050
 3257SOL    HW111668   7.615   3.882   2.985
 3257SOL    HW211669   7.676   3.980   3.083
 3258SOL     OW11670  10.263   6.152  11.747
 3258SOL    HW111671  10.169   6.150  11.729
 3258SOL    HW211672  10.293   6.063  11.729
 3259SOL     OW11673   8.281  11.038   6.867
 3259SOL    HW111674   8.225  11.060   6.942
 3259SOL    HW211675   8.308  10.947   6.884
 3260SOL     OW11676   0.370  14.143   1.193
 3260SOL    HW111677   0.291  14.145   1.139
 3260SOL    HW211678   0.391  14.050   1.204
 3261SOL     OW11679   4.115   7.081   0.294
 3261SOL    HW111680   4.144   7.036   0.374
 3261SOL    HW211681   4.031   7.041   0.273
 3262SOL     OW11682  11.291   5.965  10.256
 3262SOL    HW111683  11.295   6.060  10.263
 3262SOL    HW211684  11.368   5.934  10.303
 3263SOL     OW11685   5.127   0.703   2.383
 3263SOL    HW111686   5.051   0.705   2.325
 3263SOL    HW211687   5.134   0.792   2.417
 3264SOL     OW11688   3.974   6.925  11.051
 3264SOL    HW111689   3.885   6.895  11.031
 3264SOL    HW211690   4.030   6.853  11.021
 3265SOL     OW11691   0.257  10.560   8.311
 3265SOL    HW111692   0.290  10.647   8.333
 3265SOL    HW211693   0.309  10.533   8.236
 3266SOL     OW11694  14.164  11.726   8.731
 3266SOL    HW111695  14.128  11.708   8.818
 3266SOL    HW211696  14.092  11.705   8.671
 3267SOL     OW11697   3.172   5.724  12.475
 3267SOL    HW111698   3.181   5.805  12.425
 3267SOL    HW211699   3.251   5.720  12.528
 3268SOL     OW11700   8.431   9.009   2.148
 3268SOL    HW111701   8.487   9.087   2.156
 3268SOL    HW211702   8.351   9.033   2.194
 3269SOL     OW11703   4.137   4.925  13.427
 3269SOL    HW111704   4.046   4.923  13.398
 3269SOL    HW211705   4.153   5.016  13.452
 3270SOL     OW11706   4.154  10.608   1.240
 3270SOL    HW111707   4.154  10.591   1.334
 3270SOL    HW211708   4.137  10.523   1.200
 3271SOL     OW11709  12.417   6.450  14.032
 3271SOL    HW111710  12.357   6.402  14.090
 3271SOL    HW211711  12.504   6.429  14.065
 3272SOL     OW11712  12.707   4.323   7.618
 3272SOL    HW111713  12.612   4.330   7.613
 3272SOL    HW211714  12.739   4.380   7.547
 3273SOL     OW11715   6.988   6.210   4.191
 3273SOL    HW111716   6.942   6.213   4.107
 3273SOL    HW211717   7.035   6.126   4.190
 3274SOL     OW11718  14.837   2.161   2.135
 3274SOL    HW111719  14.860   2.253   2.122
 3274SOL    HW211720  14.865   2.118   2.055
 3275SOL     OW11721   3.798   7.732  11.716
 3275SOL    HW111722   3.831   7.818  11.687
 3275SOL    HW211723   3.806   7.676  11.639
 3276SOL     OW11724   8.803  10.531   0.942
 3276SOL    HW111725   8.711  10.523   0.920
 3276SOL    HW211726   8.848  10.470   0.884
 3277SOL     OW11727   8.527   0.444   2.620
 3277SOL    HW111728   8.506   0.361   2.577
 3277SOL    HW211729   8.447   0.496   2.611
 3278SOL     OW11730  11.406   3.200   8.645
 3278SOL    HW111731  11.442   3.173   8.561
 3278SOL    HW211732  11.418   3.124   8.702
 3279SOL     OW11733  12.772   0.248   8.630
 3279SOL    HW111734  12.803   0.237   8.540
 3279SOL    HW211735  12.777   0.160   8.668
 3280SOL     OW11736   8.109   3.830  11.405
 3280SOL    HW111737   8.019   3.805  11.428
 3280SOL    HW211738   8.147   3.861  11.487
 3281SOL     OW11739  13.103  12.321   2.014
 3281SOL    HW111740  13.095  12.302   2.107
 3281SOL    HW211741  13.020  12.363   1.991
 3282SOL     OW11742   3.613   6.892   3.922
 3282SOL    HW111743   3.577   6.979   3.938
 3282SOL    HW211744   3.704   6.907   3.898
 3283SOL     OW11745  14.387  11.480   7.075
 3283SOL    HW111746  14.298  11.463   7.044
 3283SOL    HW211747  14.381  11.564   7.120
 3284SOL     OW11748   1.906   6.205   4.270
 3284SOL    HW111749   1.932   6.273   4.207
 3284SOL    HW211750   1.878   6.253   4.348
 3285SOL     OW11751  10.538  11.983   6.562
 3285SOL    HW111752  10.555  11.983   6.467
 3285SOL    HW211753  10.625  11.984   6.602
 3286SOL     OW11754  14.739   6.924  14.731
 3286SOL    HW111755  14.659   6.960  14.767
 3286SOL    HW211756  14.764   6.854  14.791
 3287SOL     OW11757   4.358   3.278  11.971
 3287SOL    HW111758   4.325   3.191  11.995
 3287SOL    HW211759   4.328   3.290  11.881
 3288SOL     OW11760   9.001   2.636   9.724
 3288SOL    HW111761   9.088   2.660   9.691
 3288SOL    HW211762   8.949   2.716   9.712
 3289SOL     OW11763   2.367   6.056   9.468
 3289SOL    HW111764   2.363   5.983   9.529
 3289SOL    HW211765   2.415   6.022   9.392
 3290SOL     OW11766   4.156   9.805   7.871
 3290SOL    HW111767   4.168   9.837   7.961
 3290SOL    HW211768   4.062   9.810   7.856
 3291SOL     OW11769  13.212  11.559   7.403
 3291SOL    HW111770  13.177  11.489   7.459
 3291SOL    HW211771  13.301  11.530   7.381
 3292SOL     OW11772   7.833  10.273  10.012
 3292SOL    HW111773   7.845  10.224   9.931
 3292SOL    HW211774   7.905  10.336  10.013
 3293SOL     OW11775  14.626  14.016   1.306
 3293SOL    HW111776  14.591  14.010   1.395
 3293SOL    HW211777  14.549  14.030   1.251
 3294SOL     OW11778   2.566  12.049   8.170
 3294SOL    HW111779   2.500  12.109   8.138
 3294SOL    HW211780   2.523  11.963   8.169
 3295SOL     OW11781   2.487  11.084   2.314
 3295SOL    HW111782   2.475  10.991   2.333
 3295SOL    HW211783   2.431  11.100   2.238
 3296SOL     OW11784   3.278   7.876   0.528
 3296SOL    HW111785   3.213   7.822   0.572
 3296SOL    HW211786   3.318   7.928   0.598
 3297SOL     OW11787   9.017  11.827   5.576
 3297SOL    HW111788   9.102  11.796   5.608
 3297SOL    HW211789   8.988  11.758   5.516
 3298SOL     OW11790  10.318  14.549   7.494
 3298SOL    HW111791  10.285  14.470   7.453
 3298SOL    HW211792  10.292  14.620   7.434
 3299SOL     OW11793   5.017   8.839   5.226
 3299SOL    HW111794   4.927   8.869   5.211
 3299SOL    HW211795   5.011   8.744   5.222
 3300SOL     OW11796  10.059   0.969   4.927
 3300SOL    HW111797  10.053   0.942   4.835
 3300SOL    HW211798  10.061   0.887   4.976
 3301SOL     OW11799  14.380  12.188   0.809
 3301SOL    HW111800  14.451  12.142   0.764
 3301SOL    HW211801  14.406  12.280   0.808
 3302SOL     OW11802  11.841  10.945   6.530
 3302SOL    HW111803  11.840  10.870   6.589
 3302SOL    HW211804  11.844  10.907   6.443
 3303SOL     OW11805   1.468  13.110  13.569
 3303SOL    HW111806   1.405  13.174  13.602
 3303SOL    HW211807   1.438  13.026  13.606
 3304SOL     OW11808   5.516   8.188   1.285
 3304SOL    HW111809   5.509   8.241   1.365
 3304SOL    HW211810   5.605   8.202   1.254
 3305SOL     OW11811   3.217   5.318   8.997
 3305SOL    HW111812   3.221   5.268   9.079
 3305SOL    HW211813   3.279   5.390   9.010
 3306SOL     OW11814  11.940   9.160  13.735
 3306SOL    HW111815  11.963   9.246  13.770
 3306SOL    HW211816  11.947   9.101  13.810
 3307SOL     OW11817   1.309   7.516  13.669
 3307SOL    HW111818   1.330   7.509  13.576
 3307SOL    HW211819   1.221   7.554  13.671
 3308SOL     OW11820  12.973   5.640  13.052
 3308SOL    HW111821  12.938   5.556  13.083
 3308SOL    HW211822  12.895   5.688  13.023
 3309SOL     OW11823   8.074  14.040   5.725
 3309SOL    HW111824   8.029  13.967   5.768
 3309SOL    HW211825   8.008  14.077   5.666
 3310SOL     OW11826   5.463   0.559   7.805
 3310SOL    HW111827   5.491   0.488   7.862
 3310SOL    HW211828   5.517   0.549   7.726
 3311SOL     OW11829   3.694   7.580  10.398
 3311SOL    HW111830   3.788   7.558  10.398
 3311SOL    HW211831   3.675   7.606  10.308
 3312SOL     OW11832   1.353   8.275  10.584
 3312SOL    HW111833   1.419   8.219  10.626
 3312SOL    HW211834   1.303   8.216  10.528
 3313SOL     OW11835  11.557  14.392   7.817
 3313SOL    HW111836  11.587  14.366   7.730
 3313SOL    HW211837  11.510  14.315   7.849
 3314SOL     OW11838   8.171  13.878  14.423
 3314SOL    HW111839   8.246  13.839  14.469
 3314SOL    HW211840   8.209  13.917  14.345
 3315SOL     OW11841   9.388  12.884   2.903
 3315SOL    HW111842   9.426  12.818   2.960
 3315SOL    HW211843   9.417  12.968   2.940
 3316SOL     OW11844   5.939  13.131  13.670
 3316SOL    HW111845   6.021  13.102  13.711
 3316SOL    HW211846   5.961  13.140  13.577
 3317SOL     OW11847  13.960  10.479   2.700
 3317SOL    HW111848  14.017  10.413   2.739
 3317SOL    HW211849  14.001  10.500   2.616
 3318SOL     OW11850   7.657  12.779   7.738
 3318SOL    HW111851   7.620  12.850   7.791
 3318SOL    HW211852   7.732  12.748   7.789
 3319SOL     OW11853   8.148   6.835   5.695
 3319SOL    HW111854   8.207   6.844   5.770
 3319SOL    HW211855   8.137   6.924   5.662
 3320SOL     OW11856   4.453   0.349  10.022
 3320SOL    HW111857   4.464   0.441  10.046
 3320SOL    HW211858   4.534   0.326   9.976
 3321SOL     OW11859   2.088   8.684   0.239
 3321SOL    HW111860   1.995   8.665   0.222
 3321SOL    HW211861   2.100   8.663   0.332
 3322SOL     OW11862  12.710   2.635   2.111
 3322SOL    HW111863  12.697   2.601   2.022
 3322SOL    HW211864  12.772   2.707   2.100
 3323SOL     OW11865   7.899   6.377   5.472
 3323SOL    HW111866   7.979   6.410   5.432
 3323SOL    HW211867   7.884   6.435   5.547
 3324SOL     OW11868  12.339   4.359  14.100
 3324SOL    HW111869  12.356   4.400  14.015
 3324SOL    HW211870  12.266   4.299  14.083
 3325SOL     OW11871   3.332  13.606   6.490
 3325SOL    HW111872   3.428  13.598   6.490
 3325SOL    HW211873   3.302  13.522   6.454
 3326SOL     OW11874  10.121   4.090  13.011
 3326SOL    HW111875  10.186   4.025  13.037
 3326SOL    HW211876  10.151   4.120  12.925
 3327SOL     OW11877   4.494   8.807   0.179
 3327SOL    HW111878   4.542   8.769   0.253
 3327SOL    HW211879   4.479   8.733   0.120
 3328SOL     OW11880  12.550   3.008   9.040
 3328SOL    HW111881  12.489   3.045   8.976
 3328SOL    HW211882  12.637   3.033   9.008
 3329SOL     OW11883   0.648   6.364  10.670
 3329SOL    HW111884   0.621   6.291  10.726
 3329SOL    HW211885   0.578   6.429  10.681
 3330SOL     OW11886  11.835  13.657   3.102
 3330SOL    HW111887  11.772  13.725   3.077
 3330SOL    HW211888  11.785  13.600   3.161
 3331SOL     OW11889  10.106   0.942  10.417
 3331SOL    HW111890  10.096   1.037  10.404
 3331SOL    HW211891  10.119   0.907  10.329
 3332SOL     OW11892   8.529   5.494  14.279
 3332SOL    HW111893   8.490   5.524  14.197
 3332SOL    HW211894   8.572   5.572  14.315
 3333SOL     OW11895   1.376  12.495   6.230
 3333SOL    HW111896   1.420  12.428   6.178
 3333SOL    HW211897   1.372  12.572   6.172
 3334SOL     OW11898   9.304   4.845   6.393
 3334SOL    HW111899   9.312   4.923   6.448
 3334SOL    HW211900   9.295   4.880   6.304
 3335SOL     OW11901   4.386   0.780   4.847
 3335SOL    HW111902   4.455   0.843   4.870
 3335SOL    HW211903   4.315   0.834   4.812
 3336SOL     OW11904   9.111  11.022   6.769
 3336SOL    HW111905   9.036  11.073   6.741
 3336SOL    HW211906   9.099  11.013   6.864
 3337SOL     OW11907   9.058   0.878   3.872
 3337SOL    HW111908   9.015   0.959   3.846
 3337SOL    HW211909   9.077   0.890   3.965
 3338SOL     OW11910   4.129  13.760  12.905
 3338SOL    HW111911   4.219  13.782  12.882
 3338SOL    HW211912   4.129  13.664  12.914
 3339SOL     OW11913   2.503   3.418   4.017
 3339SOL    HW111914   2.588   3.416   3.973
 3339SOL    HW211915   2.439   3.407   3.947
 3340SOL     OW11916  13.760   0.063   6.347
 3340SOL    HW111917  13.763  14.842   6.367
 3340SOL    HW211918  13.843   0.080   6.300
 3341SOL     OW11919   1.857  14.668  14.814
 3341SOL    HW111920   1.928  14.606  14.795
 3341SOL    HW211921   1.901  14.743  14.854
 3342SOL     OW11922   3.010   4.161   8.142
 3342SOL    HW111923   3.014   4.192   8.052
 3342SOL    HW211924   3.031   4.068   8.137
 3343SOL     OW11925  13.009   5.640   5.982
 3343SOL    HW111926  13.101   5.623   5.962
 3343SOL    HW211927  13.003   5.735   5.994
 3344SOL     OW11928  14.763  10.646   7.989
 3344SOL    HW111929  14.719  10.726   7.962
 3344SOL    HW211930  14.749  10.585   7.916
 3345SOL     OW11931   7.836   3.653   9.648
 3345SOL    HW111932   7.918   3.680   9.689
 3345SOL    HW211933   7.769   3.705   9.692
 3346SOL     OW11934   6.603  12.381  14.722
 3346SOL    HW111935   6.613  12.299  14.770
 3346SOL    HW211936   6.527  12.366  14.665
 3347SOL     OW11937   0.891  11.523   5.975
 3347SOL    HW111938   0.840  11.443   5.965
 3347SOL    HW211939   0.919  11.546   5.887
 3348SOL     OW11940   7.263   1.702   7.167
 3348SOL    HW111941   7.184   1.690   7.219
 3348SOL    HW211942   7.271   1.620   7.117
 3349SOL     OW11943   9.907  12.806  10.388
 3349SOL    HW111944   9.825  12.785  10.344
 3349SOL    HW211945   9.973  12.757  10.339
 3350SOL     OW11946  13.362  10.902  13.444
 3350SOL    HW111947  13.372  10.938  13.357
 3350SOL    HW211948  13.290  10.950  13.483
 3351SOL     OW11949  14.204   7.111   8.745
 3351SOL    HW111950  14.173   7.119   8.654
 3351SOL    HW211951  14.261   7.034   8.744
 3352SOL     OW11952   7.090   0.514   1.113
 3352SOL    HW111953   7.130   0.480   1.032
 3352SOL    HW211954   7.140   0.473   1.183
 3353SOL     OW11955   7.729   7.316  11.825
 3353SOL    HW111956   7.772   7.330  11.910
 3353SOL    HW211957   7.658   7.380  11.824
 3354SOL     OW11958   1.917  12.671   4.055
 3354SOL    HW111959   1.838  12.725   4.058
 3354SOL    HW211960   1.898  12.597   4.114
 3355SOL     OW11961  13.078   6.463   2.675
 3355SOL    HW111962  13.003   6.412   2.704
 3355SOL    HW211963  13.154   6.414   2.707
 3356SOL     OW11964   7.057   1.466   0.786
 3356SOL    HW111965   7.006   1.412   0.845
 3356SOL    HW211966   7.148   1.456   0.816
 3357SOL     OW11967   9.678  12.746   7.000
 3357SOL    HW111968   9.669  12.841   6.993
 3357SOL    HW211969   9.712  12.718   6.916
 3358SOL     OW11970   9.559   9.739   0.178
 3358SOL    HW111971   9.628   9.713   0.117
 3358SOL    HW211972   9.524   9.656   0.211
 3359SOL     OW11973   8.016  12.960   7.992
 3359SOL    HW111974   8.031  13.048   8.026
 3359SOL    HW211975   8.074  12.904   8.045
 3360SOL     OW11976   2.983   7.671  13.343
 3360SOL    HW111977   3.078   7.676  13.358
 3360SOL    HW211978   2.949   7.628  13.421
 3361SOL     OW11979   1.115   6.772  11.019
 3361SOL    HW111980   1.190   6.731  10.975
 3361SOL    HW211981   1.097   6.715  11.094
 3362SOL     OW11982  13.455   5.651   2.031
 3362SOL    HW111983  13.526   5.714   2.042
 3362SOL    HW211984  13.491   5.584   1.973
 3363SOL     OW11985   4.620  11.886  11.111
 3363SOL    HW111986   4.535  11.872  11.152
 3363SOL    HW211987   4.602  11.886  11.017
 3364SOL     OW11988  11.042   9.865  11.826
 3364SOL    HW111989  10.982   9.801  11.790
 3364SOL    HW211990  10.986   9.930  11.869
 3365SOL     OW11991   0.097   6.780   8.569
 3365SOL    HW111992   0.082   6.729   8.490
 3365SOL    HW211993   0.066   6.724   8.640
 3366SOL     OW11994   4.669  12.635  11.074
 3366SOL    HW111995   4.652  12.596  10.989
 3366SOL    HW211996   4.712  12.718  11.055
 3367SOL     OW11997   8.701   7.471   3.125
 3367SOL    HW111998   8.621   7.446   3.172
 3367SOL    HW211999   8.681   7.557   3.089
 3368SOL     OW12000  10.814   3.520   2.167
 3368SOL    HW112001  10.852   3.437   2.140
 3368SOL    HW212002  10.882   3.561   2.221
 3369SOL     OW12003   2.454   5.130  12.491
 3369SOL    HW112004   2.522   5.075  12.528
 3369SOL    HW212005   2.495   5.216  12.482
 3370SOL     OW12006   8.559   7.774   3.669
 3370SOL    HW112007   8.546   7.687   3.707
 3370SOL    HW212008   8.554   7.834   3.744
 3371SOL     OW12009   8.124  11.805   1.770
 3371SOL    HW112010   8.201  11.861   1.758
 3371SOL    HW212011   8.070  11.851   1.834
 3372SOL     OW12012  10.298   9.020   2.340
 3372SOL    HW112013  10.284   9.040   2.433
 3372SOL    HW212014  10.368   8.955   2.339
 3373SOL     OW12015   8.372   3.987  11.291
 3373SOL    HW112016   8.338   4.041  11.220
 3373SOL    HW212017   8.394   3.904  11.249
 3374SOL     OW12018   1.709   0.470  11.437
 3374SOL    HW112019   1.798   0.492  11.408
 3374SOL    HW212020   1.721   0.394  11.494
 3375SOL     OW12021   4.571   9.298  12.712
 3375SOL    HW112022   4.602   9.290  12.622
 3375SOL    HW212023   4.485   9.339  12.705
 3376SOL     OW12024  12.979   7.119  13.170
 3376SOL    HW112025  13.056   7.071  13.202
 3376SOL    HW212026  13.004   7.211  13.176
 3377SOL     OW12027   8.577   8.850   0.697
 3377SOL    HW112028   8.611   8.933   0.730
 3377SOL    HW212029   8.549   8.803   0.776
 3378SOL     OW12030   2.905   7.271   2.011
 3378SOL    HW112031   2.947   7.322   2.079
 3378SOL    HW212032   2.977   7.229   1.964
 3379SOL     OW12033   8.200   3.635  13.500
 3379SOL    HW112034   8.165   3.720  13.527
 3379SOL    HW212035   8.289   3.633  13.536
 3380SOL     OW12036  12.254  13.648  13.885
 3380SOL    HW112037  12.280  13.739  13.868
 3380SOL    HW212038  12.226  13.616  13.799
 3381SOL     OW12039   5.837   6.411   7.969
 3381SOL    HW112040   5.843   6.379   8.059
 3381SOL    HW212041   5.781   6.489   7.974
 3382SOL     OW12042   1.709   4.909   5.394
 3382SOL    HW112043   1.710   4.821   5.431
 3382SOL    HW212044   1.786   4.952   5.431
 3383SOL     OW12045   3.905  13.622   0.479
 3383SOL    HW112046   3.839  13.685   0.450
 3383SOL    HW212047   3.901  13.552   0.414
 3384SOL     OW12048   7.456   4.550  11.900
 3384SOL    HW112049   7.368   4.537  11.936
 3384SOL    HW212050   7.445   4.618  11.834
 3385SOL     OW12051   9.221  13.522   0.991
 3385SOL    HW112052   9.151  13.472   1.033
 3385SOL    HW212053   9.187  13.611   0.988
 3386SOL     OW12054   4.183   5.545   3.178
 3386SOL    HW112055   4.173   5.641   3.177
 3386SOL    HW212056   4.278   5.532   3.185
 3387SOL     OW12057  14.045  10.665   3.686
 3387SOL    HW112058  14.037  10.712   3.603
 3387SOL    HW212059  14.027  10.731   3.753
 3388SOL     OW12060   8.483  12.178  13.103
 3388SOL    HW112061   8.424  12.116  13.061
 3388SOL    HW212062   8.571  12.146  13.084
 3389SOL     OW12063  10.158  11.729  10.671
 3389SOL    HW112064  10.177  11.658  10.733
 3389SOL    HW212065  10.062  11.732  10.666
 3390SOL     OW12066   2.094   1.291   7.064
 3390SOL    HW112067   2.091   1.229   6.991
 3390SOL    HW212068   2.085   1.237   7.142
 3391SOL     OW12069   4.834   7.434   4.857
 3391SOL    HW112070   4.797   7.486   4.928
 3391SOL    HW212071   4.800   7.346   4.871
 3392SOL     OW12072  14.774   0.704  11.357
 3392SOL    HW112073  14.869   0.707  11.350
 3392SOL    HW212074  14.746   0.650  11.283
 3393SOL     OW12075   8.788   7.978  10.157
 3393SOL    HW112076   8.750   7.892  10.173
 3393SOL    HW212077   8.713   8.037  10.157
 3394SOL     OW12078   9.227   2.347   2.969
 3394SOL    HW112079   9.224   2.441   2.988
 3394SOL    HW212080   9.155   2.334   2.907
 3395SOL     OW12081  10.825   9.874  13.221
 3395SOL    HW112082  10.801   9.854  13.130
 3395SOL    HW212083  10.919   9.859  13.225
 3396SOL     OW12084   1.429   2.132   1.030
 3396SOL    HW112085   1.461   2.221   1.018
 3396SOL    HW212086   1.508   2.078   1.033
 3397SOL     OW12087   3.056  10.296  12.130
 3397SOL    HW112088   3.054  10.291  12.034
 3397SOL    HW212089   3.057  10.390  12.148
 3398SOL     OW12090  12.897   1.596   1.128
 3398SOL    HW112091  12.947   1.677   1.118
 3398SOL    HW212092  12.952   1.541   1.183
 3399SOL     OW12093  14.482   2.357   3.774
 3399SOL    HW112094  14.395   2.332   3.743
 3399SOL    HW212095  14.493   2.448   3.744
 3400SOL     OW12096  12.458  14.216   0.590
 3400SOL    HW112097  12.463  14.312   0.582
 3400SOL    HW212098  12.467  14.201   0.684
 3401SOL     OW12099   5.279  12.834   6.753
 3401SOL    HW112100   5.358  12.782   6.765
 3401SOL    HW212101   5.258  12.825   6.660
 3402SOL     OW12102  12.857   2.999   6.506
 3402SOL    HW112103  12.914   2.953   6.443
 3402SOL    HW212104  12.780   3.023   6.454
 3403SOL     OW12105   3.084   8.527   6.144
 3403SOL    HW112106   3.168   8.512   6.187
 3403SOL    HW212107   3.101   8.510   6.052
 3404SOL     OW12108   8.886   9.962   5.902
 3404SOL    HW112109   8.822   9.921   5.844
 3404SOL    HW212110   8.948   9.892   5.924
 3405SOL     OW12111   5.241  13.730   9.493
 3405SOL    HW112112   5.296  13.691   9.425
 3405SOL    HW212113   5.151  13.717   9.461
 3406SOL     OW12114   5.368   7.865   2.998
 3406SOL    HW112115   5.414   7.824   3.070
 3406SOL    HW212116   5.437   7.902   2.943
 3407SOL     OW12117   0.736  12.236   8.314
 3407SOL    HW112118   0.684  12.225   8.234
 3407SOL    HW212119   0.699  12.173   8.376
 3408SOL     OW12120   7.524  11.958  14.059
 3408SOL    HW112121   7.547  11.972  13.967
 3408SOL    HW212122   7.607  11.967  14.106
 3409SOL     OW12123  11.537  11.185   4.516
 3409SOL    HW112124  11.543  11.089   4.512
 3409SOL    HW212125  11.598  11.215   4.448
 3410SOL     OW12126   3.135   4.595  12.729
 3410SOL    HW112127   3.225   4.617  12.706
 3410SOL    HW212128   3.092   4.680  12.740
 3411SOL     OW12129   6.146   7.092   5.200
 3411SOL    HW112130   6.208   7.061   5.134
 3411SOL    HW212131   6.119   7.179   5.170
 3412SOL     OW12132  10.625   1.282   3.004
 3412SOL    HW112133  10.687   1.236   2.948
 3412SOL    HW212134  10.556   1.218   3.022
 3413SOL     OW12135   3.303   1.479  12.549
 3413SOL    HW112136   3.249   1.481  12.627
 3413SOL    HW212137   3.313   1.386  12.529
 3414SOL     OW12138   7.508  13.548  12.529
 3414SOL    HW112139   7.583  13.489  12.538
 3414SOL    HW212140   7.534  13.627  12.576
 3415SOL     OW12141   4.271  14.231   1.922
 3415SOL    HW112142   4.249  14.250   2.013
 3415SOL    HW212143   4.286  14.317   1.883
 3416SOL     OW12144   9.466   0.431  10.884
 3416SOL    HW112145   9.524   0.473  10.822
 3416SOL    HW212146   9.390   0.403  10.832
 3417SOL     OW12147   1.687   1.204   6.078
 3417SOL    HW112148   1.606   1.152   6.082
 3417SOL    HW212149   1.736   1.164   6.005
 3418SOL     OW12150   5.739   9.125   5.131
 3418SOL    HW112151   5.650   9.137   5.098
 3418SOL    HW212152   5.768   9.213   5.154
 3419SOL     OW12153   2.880   7.430   7.174
 3419SOL    HW112154   2.919   7.397   7.093
 3419SOL    HW212155   2.886   7.356   7.235
 3420SOL     OW12156   9.692   1.234  13.688
 3420SOL    HW112157   9.630   1.274  13.627
 3420SOL    HW212158   9.668   1.142  13.690
 3421SOL     OW12159   2.660   6.148   7.145
 3421SOL    HW112160   2.675   6.184   7.233
 3421SOL    HW212161   2.633   6.057   7.161
 3422SOL     OW12162  12.320  12.570  11.126
 3422SOL    HW112163  12.371  12.568  11.045
 3422SOL    HW212164  12.302  12.663  11.141
 3423SOL     OW12165   4.796  13.305  11.989
 3423SOL    HW112166   4.851  13.229  12.007
 3423SOL    HW212167   4.719  13.292  12.045
 3424SOL     OW12168   7.086   8.683   3.232
 3424SOL    HW112169   7.170   8.653   3.197
 3424SOL    HW212170   7.035   8.708   3.155
 3425SOL     OW12171   1.769   7.453  14.534
 3425SOL    HW112172   1.819   7.500  14.466
 3425SOL    HW212173   1.678   7.462  14.506
 3426SOL     OW12174   5.496   2.047   2.871
 3426SOL    HW112175   5.555   2.023   2.800
 3426SOL    HW212176   5.548   2.036   2.951
 3427SOL     OW12177   3.679   0.946   2.346
 3427SOL    HW112178   3.643   0.955   2.258
 3427SOL    HW212179   3.723   0.861   2.345
 3428SOL     OW12180   0.170  10.257  14.202
 3428SOL    HW112181   0.208  10.221  14.282
 3428SOL    HW212182   0.235  10.239  14.135
 3429SOL     OW12183   3.534   7.797  13.891
 3429SOL    HW112184   3.533   7.729  13.959
 3429SOL    HW212185   3.451   7.784  13.843
 3430SOL     OW12186  12.325   0.252  14.339
 3430SOL    HW112187  12.338   0.158  14.337
 3430SOL    HW212188  12.230   0.263  14.346
 3431SOL     OW12189  13.952  12.887   7.253
 3431SOL    HW112190  13.941  12.931   7.169
 3431SOL    HW212191  14.045  12.893   7.272
 3432SOL     OW12192   5.584   3.525  10.635
 3432SOL    HW112193   5.558   3.568  10.554
 3432SOL    HW212194   5.538   3.441  10.634
 3433SOL     OW12195   5.950   9.540   0.905
 3433SOL    HW112196   6.025   9.566   0.853
 3433SOL    HW212197   5.973   9.563   0.995
 3434SOL     OW12198   4.220  10.174   1.736
 3434SOL    HW112199   4.192  10.093   1.693
 3434SOL    HW212200   4.257  10.146   1.819
 3435SOL     OW12201  12.177  10.738   9.884
 3435SOL    HW112202  12.104  10.687   9.920
 3435SOL    HW212203  12.143  10.773   9.802
 3436SOL     OW12204  10.510   7.197   5.946
 3436SOL    HW112205  10.423   7.199   5.985
 3436SOL    HW212206  10.516   7.109   5.907
 3437SOL     OW12207   5.271   4.091  10.710
 3437SOL    HW112208   5.328   4.148  10.659
 3437SOL    HW212209   5.197   4.147  10.736
 3438SOL     OW12210   4.328   4.249  13.432
 3438SOL    HW112211   4.317   4.300  13.351
 3438SOL    HW212212   4.332   4.158  13.402
 3439SOL     OW12213  12.593  14.484  13.293
 3439SOL    HW112214  12.650  14.447  13.225
 3439SOL    HW212215  12.505  14.475  13.257
 3440SOL     OW12216   9.852   2.332   4.544
 3440SOL    HW112217   9.946   2.351   4.537
 3440SOL    HW212218   9.829   2.360   4.633
 3441SOL     OW12219   4.283   5.080   9.700
 3441SOL    HW112220   4.241   4.996   9.720
 3441SOL    HW212221   4.228   5.145   9.743
 3442SOL     OW12222   9.357   1.250  14.110
 3442SOL    HW112223   9.433   1.251  14.053
 3442SOL    HW212224   9.382   1.308  14.183
 3443SOL     OW12225  11.586   6.671   0.935
 3443SOL    HW112226  11.504   6.646   0.891
 3443SOL    HW212227  11.561   6.744   0.992
 3444SOL     OW12228   5.059   1.024   8.655
 3444SOL    HW112229   4.990   0.988   8.710
 3444SOL    HW212230   5.140   1.013   8.705
 3445SOL     OW12231  13.606   7.188   9.512
 3445SOL    HW112232  13.637   7.239   9.437
 3445SOL    HW212233  13.676   7.196   9.577
 3446SOL     OW12234   4.392   4.908   5.722
 3446SOL    HW112235   4.440   4.956   5.790
 3446SOL    HW212236   4.336   4.975   5.682
 3447SOL     OW12237   9.399   7.349  13.091
 3447SOL    HW112238   9.465   7.381  13.153
 3447SOL    HW212239   9.327   7.318  13.147
 3448SOL     OW12240   1.795   8.160   4.305
 3448SOL    HW112241   1.869   8.201   4.350
 3448SOL    HW212242   1.826   8.072   4.284
 3449SOL     OW12243  11.643   8.037   7.368
 3449SOL    HW112244  11.549   8.053   7.368
 3449SOL    HW212245  11.681   8.118   7.334
 3450SOL     OW12246   5.142   6.939  12.298
 3450SOL    HW112247   5.102   7.014  12.253
 3450SOL    HW212248   5.177   6.976  12.379
 3451SOL     OW12249  10.756   2.898   8.657
 3451SOL    HW112250  10.762   2.802   8.660
 3451SOL    HW212251  10.670   2.918   8.694
 3452SOL     OW12252  13.610   2.218   7.248
 3452SOL    HW112253  13.699   2.222   7.214
 3452SOL    HW212254  13.618   2.178   7.334
 3453SOL     OW12255   1.831   3.068   4.074
 3453SOL    HW112256   1.848   2.977   4.097
 3453SOL    HW212257   1.793   3.064   3.986
 3454SOL     OW12258   9.036   1.718   7.444
 3454SOL    HW112259   9.058   1.742   7.534
 3454SOL    HW212260   9.072   1.789   7.391
 3455SOL     OW12261   2.030   3.324   0.599
 3455SOL    HW112262   2.035   3.413   0.635
 3455SOL    HW212263   1.971   3.332   0.524
 3456SOL     OW12264  10.190   2.405  10.495
 3456SOL    HW112265  10.111   2.407  10.441
 3456SOL    HW212266  10.185   2.321  10.541
 3457SOL     OW12267   3.828   3.507  14.420
 3457SOL    HW112268   3.779   3.426  14.405
 3457SOL    HW212269   3.843   3.542  14.332
 3458SOL     OW12270   9.187  14.579   2.958
 3458SOL    HW112271   9.169  14.529   3.038
 3458SOL    HW212272   9.219  14.663   2.990
 3459SOL     OW12273  13.475   9.004  12.287
 3459SOL    HW112274  13.471   8.958  12.371
 3459SOL    HW212275  13.568   9.006  12.265
 3460SOL     OW12276   8.038  14.519   9.478
 3460SOL    HW112277   8.108  14.584   9.471
 3460SOL    HW212278   8.076  14.438   9.445
 3461SOL     OW12279   3.383   8.933   7.025
 3461SOL    HW112280   3.369   8.889   7.109
 3461SOL    HW212281   3.320   9.005   7.025
 3462SOL     OW12282  12.688   9.007   5.537
 3462SOL    HW112283  12.737   8.930   5.565
 3462SOL    HW212284  12.617   8.971   5.483
 3463SOL     OW12285  13.457   4.385  11.602
 3463SOL    HW112286  13.549   4.394  11.576
 3463SOL    HW212287  13.431   4.472  11.632
 3464SOL     OW12288   7.484  12.215   9.243
 3464SOL    HW112289   7.502  12.295   9.292
 3464SOL    HW212290   7.506  12.236   9.153
 3465SOL     OW12291   7.275   3.453  10.194
 3465SOL    HW112292   7.253   3.546  10.196
 3465SOL    HW212293   7.195   3.410  10.165
 3466SOL     OW12294   8.571   4.727   1.409
 3466SOL    HW112295   8.630   4.784   1.361
 3466SOL    HW212296   8.513   4.690   1.342
 3467SOL     OW12297   2.330   8.058   0.847
 3467SOL    HW112298   2.236   8.048   0.863
 3467SOL    HW212299   2.340   8.045   0.753
 3468SOL     OW12300   2.610   7.773   8.212
 3468SOL    HW112301   2.529   7.763   8.162
 3468SOL    HW212302   2.678   7.743   8.152
 3469SOL     OW12303   7.242   5.101   7.323
 3469SOL    HW112304   7.296   5.077   7.398
 3469SOL    HW212305   7.216   5.017   7.285
 3470SOL     OW12306  12.728  14.123   8.709
 3470SOL    HW112307  12.796  14.127   8.776
 3470SOL    HW212308  12.647  14.146   8.755
 3471SOL     OW12309   5.991   7.574   6.184
 3471SOL    HW112310   6.055   7.636   6.148
 3471SOL    HW212311   6.042   7.519   6.243
 3472SOL     OW12312   9.233   4.337   6.527
 3472SOL    HW112313   9.278   4.257   6.503
 3472SOL    HW212314   9.287   4.407   6.490
 3473SOL     OW12315   5.818   5.597   4.862
 3473SOL    HW112316   5.766   5.564   4.789
 3473SOL    HW212317   5.904   5.614   4.824
 3474SOL     OW12318   6.481  10.916   7.645
 3474SOL    HW112319   6.557  10.869   7.609
 3474SOL    HW212320   6.503  10.929   7.738
 3475SOL     OW12321   2.372   2.574  13.129
 3475SOL    HW112322   2.402   2.658  13.094
 3475SOL    HW212323   2.409   2.570  13.217
 3476SOL     OW12324   6.704   1.191   9.180
 3476SOL    HW112325   6.782   1.162   9.227
 3476SOL    HW212326   6.700   1.285   9.195
 3477SOL     OW12327   3.134   8.801   5.390
 3477SOL    HW112328   3.220   8.775   5.424
 3477SOL    HW212329   3.144   8.801   5.295
 3478SOL     OW12330   4.306  13.042   3.809
 3478SOL    HW112331   4.378  13.097   3.779
 3478SOL    HW212332   4.332  13.014   3.896
 3479SOL     OW12333   2.089   0.689  13.651
 3479SOL    HW112334   2.175   0.715  13.619
 3479SOL    HW212335   2.029   0.757  13.617
 3480SOL     OW12336  11.645   8.252   0.434
 3480SOL    HW112337  11.567   8.297   0.467
 3480SOL    HW212338  11.633   8.161   0.461
 3481SOL     OW12339  13.420   8.619  13.068
 3481SOL    HW112340  13.463   8.535  13.055
 3481SOL    HW212341  13.450   8.647  13.155
 3482SOL     OW12342   1.992  12.821   0.628
 3482SOL    HW112343   1.912  12.778   0.658
 3482SOL    HW212344   2.055  12.749   0.618
 3483SOL     OW12345   0.787   8.239   0.306
 3483SOL    HW112346   0.704   8.280   0.330
 3483SOL    HW212347   0.854   8.300   0.336
 3484SOL     OW12348   5.457   8.946   7.569
 3484SOL    HW112349   5.379   8.900   7.599
 3484SOL    HW212350   5.529   8.884   7.586
 3485SOL     OW12351   4.322   4.147   2.923
 3485SOL    HW112352   4.275   4.072   2.960
 3485SOL    HW212353   4.324   4.211   2.994
 3486SOL     OW12354   1.764   4.654   7.678
 3486SOL    HW112355   1.810   4.735   7.698
 3486SOL    HW212356   1.696   4.647   7.745
 3487SOL     OW12357  11.725   5.189   5.606
 3487SOL    HW112358  11.644   5.190   5.657
 3487SOL    HW212359  11.792   5.159   5.667
 3488SOL     OW12360   9.680  11.778  10.082
 3488SOL    HW112361   9.713  11.854  10.129
 3488SOL    HW212362   9.737  11.706  10.110
 3489SOL     OW12363  12.528  10.517   2.020
 3489SOL    HW112364  12.484  10.583   2.074
 3489SOL    HW212365  12.540  10.443   2.079
 3490SOL     OW12366   3.369   4.351  12.584
 3490SOL    HW112367   3.443   4.295  12.607
 3490SOL    HW212368   3.292   4.299  12.602
 3491SOL     OW12369  14.707  10.293  11.754
 3491SOL    HW112370  14.770  10.310  11.684
 3491SOL    HW212371  14.655  10.374  11.759
 3492SOL     OW12372   3.239   1.807   1.558
 3492SOL    HW112373   3.225   1.734   1.498
 3492SOL    HW212374   3.246   1.766   1.645
 3493SOL     OW12375   3.085  11.854   1.409
 3493SOL    HW112376   3.102  11.863   1.316
 3493SOL    HW212377   3.112  11.765   1.431
 3494SOL     OW12378   5.263   9.143   1.954
 3494SOL    HW112379   5.202   9.129   1.881
 3494SOL    HW212380   5.333   9.079   1.938
 3495SOL     OW12381   3.798   0.622   3.584
 3495SOL    HW112382   3.767   0.553   3.525
 3495SOL    HW212383   3.748   0.699   3.559
 3496SOL     OW12384   4.648   0.708  14.687
 3496SOL    HW112385   4.627   0.615  14.678
 3496SOL    HW212386   4.593   0.751  14.621
 3497SOL     OW12387   4.108   6.407   8.110
 3497SOL    HW112388   4.070   6.385   8.195
 3497SOL    HW212389   4.202   6.389   8.121
 3498SOL     OW12390   7.906   0.195  14.618
 3498SOL    HW112391   7.986   0.198  14.566
 3498SOL    HW212392   7.854   0.125  14.579
 3499SOL     OW12393   6.016   1.167   5.348
 3499SOL    HW112394   6.067   1.247   5.362
 3499SOL    HW212395   6.011   1.159   5.253
 3500SOL     OW12396   0.018  11.343   6.446
 3500SOL    HW112397  14.867  11.345   6.539
 3500SOL    HW212398  14.847  11.420   6.410
 3501SOL     OW12399  12.427  12.799   0.728
 3501SOL    HW112400  12.431  12.812   0.823
 3501SOL    HW212401  12.481  12.869   0.692
 3502SOL     OW12402  14.135   6.395   8.915
 3502SOL    HW112403  14.215   6.412   8.965
 3502SOL    HW212404  14.167   6.379   8.826
 3503SOL     OW12405   4.568   5.123  10.834
 3503SOL    HW112406   4.564   5.216  10.857
 3503SOL    HW212407   4.540   5.077  10.913
 3504SOL     OW12408  13.578  14.841   1.128
 3504SOL    HW112409  13.517  14.800   1.067
 3504SOL    HW212410  13.589   0.058   1.095
 3505SOL     OW12411  10.065   1.060   4.412
 3505SOL    HW112412  10.136   1.045   4.474
 3505SOL    HW212413  10.011   0.981   4.417
 3506SOL     OW12414  13.587   1.256   6.929
 3506SOL    HW112415  13.677   1.286   6.923
 3506SOL    HW212416  13.573   1.206   6.849
 3507SOL     OW12417   3.913   4.195   4.086
 3507SOL    HW112418   3.832   4.245   4.097
 3507SOL    HW212419   3.949   4.188   4.174
 3508SOL     OW12420   6.537   2.958  13.541
 3508SOL    HW112421   6.495   2.878  13.573
 3508SOL    HW212422   6.615   2.968  13.597
 3509SOL     OW12423   0.169   5.182   5.002
 3509SOL    HW112424   0.130   5.141   5.079
 3509SOL    HW212425   0.120   5.146   4.928
 3510SOL     OW12426   6.618   4.629   9.783
 3510SOL    HW112427   6.672   4.607   9.707
 3510SOL    HW212428   6.557   4.696   9.750
 3511SOL     OW12429   1.854  12.117  12.451
 3511SOL    HW112430   1.769  12.078  12.429
 3511SOL    HW212431   1.897  12.129  12.366
 3512SOL     OW12432   7.607   1.965  10.719
 3512SOL    HW112433   7.699   1.948  10.740
 3512SOL    HW212434   7.605   2.057  10.694
 3513SOL     OW12435   5.997  14.735   0.306
 3513SOL    HW112436   5.969  14.647   0.280
 3513SOL    HW212437   5.928  14.793   0.274
 3514SOL     OW12438   5.956   1.619   6.858
 3514SOL    HW112439   5.907   1.665   6.926
 3514SOL    HW212440   6.035   1.589   6.901
 3515SOL     OW12441  11.045  11.973   7.260
 3515SOL    HW112442  11.138  11.955   7.271
 3515SOL    HW212443  11.001  11.896   7.297
 3516SOL     OW12444   2.320   1.558   8.688
 3516SOL    HW112445   2.225   1.555   8.693
 3516SOL    HW212446   2.339   1.579   8.596
 3517SOL     OW12447   6.430   7.829   3.869
 3517SOL    HW112448   6.416   7.737   3.845
 3517SOL    HW212449   6.342   7.864   3.881
 3518SOL     OW12450  12.323   2.080  11.587
 3518SOL    HW112451  12.231   2.107  11.595
 3518SOL    HW212452  12.373   2.160  11.606
 3519SOL     OW12453   9.363   9.782   5.151
 3519SOL    HW112454   9.383   9.853   5.090
 3519SOL    HW212455   9.306   9.723   5.102
 3520SOL     OW12456   7.605  10.383   3.379
 3520SOL    HW112457   7.585  10.328   3.304
 3520SOL    HW212458   7.643  10.462   3.341
 3521SOL     OW12459   3.342   7.143  12.648
 3521SOL    HW112460   3.259   7.099  12.630
 3521SOL    HW212461   3.388   7.082  12.707
 3522SOL     OW12462  10.636   5.483   9.288
 3522SOL    HW112463  10.722   5.516   9.261
 3522SOL    HW212464  10.654   5.396   9.324
 3523SOL     OW12465  14.561  11.722   5.078
 3523SOL    HW112466  14.509  11.802   5.076
 3523SOL    HW212467  14.517  11.663   5.016
 3524SOL     OW12468  11.820   1.880   3.022
 3524SOL    HW112469  11.755   1.858   2.955
 3524SOL    HW212470  11.793   1.966   3.054
 3525SOL     OW12471  10.119   1.027  11.802
 3525SOL    HW112472  10.063   1.028  11.725
 3525SOL    HW212473  10.065   1.065  11.872
 3526SOL     OW12474   1.398   8.194   6.824
 3526SOL    HW112475   1.420   8.137   6.750
 3526SOL    HW212476   1.338   8.259   6.787
 3527SOL     OW12477   1.217   1.583  11.355
 3527SOL    HW112478   1.275   1.554  11.285
 3527SOL    HW212479   1.233   1.677  11.362
 3528SOL     OW12480   4.480   3.291   3.090
 3528SOL    HW112481   4.504   3.334   3.171
 3528SOL    HW212482   4.425   3.355   3.044
 3529SOL     OW12483   4.893   0.388   5.670
 3529SOL    HW112484   4.975   0.391   5.621
 3529SOL    HW212485   4.887   0.297   5.701
 3530SOL     OW12486   1.902   8.560  14.843
 3530SOL    HW112487   1.871   8.497  14.779
 3530SOL    HW212488   1.835   8.560   0.039
 3531SOL     OW12489   1.663   2.391   4.360
 3531SOL    HW112490   1.575   2.396   4.322
 3531SOL    HW212491   1.665   2.460   4.426
 3532SOL     OW12492   5.447  13.939   8.271
 3532SOL    HW112493   5.398  13.880   8.328
 3532SOL    HW212494   5.445  13.897   8.185
 3533SOL     OW12495   7.375   0.583   7.166
 3533SOL    HW112496   7.392   0.600   7.074
 3533SOL    HW212497   7.388   0.489   7.176
 3534SOL     OW12498  10.282   3.249   7.783
 3534SOL    HW112499  10.214   3.297   7.829
 3534SOL    HW212500  10.345   3.316   7.757
 3535SOL     OW12501  14.788   5.150  13.738
 3535SOL    HW112502  14.840   5.216  13.784
 3535SOL    HW212503  14.798   5.071  13.792
 3536SOL     OW12504   9.903   4.338   8.707
 3536SOL    HW112505   9.930   4.359   8.617
 3536SOL    HW212506   9.978   4.365   8.761
 3537SOL     OW12507   2.427   9.550   7.297
 3537SOL    HW112508   2.444   9.496   7.374
 3537SOL    HW212509   2.496   9.526   7.235
 3538SOL     OW12510   0.794   8.772   5.143
 3538SOL    HW112511   0.760   8.750   5.056
 3538SOL    HW212512   0.853   8.845   5.128
 3539SOL     OW12513  12.648   7.325   2.075
 3539SOL    HW112514  12.673   7.304   2.165
 3539SOL    HW212515  12.563   7.284   2.064
 3540SOL     OW12516   8.667   7.382  12.740
 3540SOL    HW112517   8.756   7.411  12.719
 3540SOL    HW212518   8.644   7.321  12.670
 3541SOL     OW12519   0.829   7.436   5.425
 3541SOL    HW112520   0.784   7.354   5.447
 3541SOL    HW212521   0.759   7.499   5.410
 3542SOL     OW12522   3.777   7.270   0.089
 3542SOL    HW112523   3.712   7.204   0.065
 3542SOL    HW212524   3.862   7.226   0.076
 3543SOL     OW12525   7.394   1.018   1.144
 3543SOL    HW112526   7.367   0.926   1.147
 3543SOL    HW212527   7.346   1.054   1.069
 3544SOL     OW12528   4.713   6.453   3.650
 3544SOL    HW112529   4.673   6.496   3.726
 3544SOL    HW212530   4.805   6.475   3.656
 3545SOL     OW12531  12.909  13.625  14.197
 3545SOL    HW112532  12.922  13.535  14.227
 3545SOL    HW212533  12.862  13.667  14.269
 3546SOL     OW12534   6.559   9.742  10.325
 3546SOL    HW112535   6.573   9.814  10.263
 3546SOL    HW212536   6.528   9.669  10.272
 3547SOL     OW12537   2.312   4.909   2.243
 3547SOL    HW112538   2.403   4.924   2.220
 3547SOL    HW212539   2.292   4.976   2.308
 3548SOL     OW12540   4.646   8.320   3.728
 3548SOL    HW112541   4.740   8.311   3.708
 3548SOL    HW212542   4.643   8.374   3.806
 3549SOL     OW12543   1.235  13.180  14.110
 3549SOL    HW112544   1.192  13.257  14.072
 3549SOL    HW212545   1.248  13.121  14.037
 3550SOL     OW12546   8.195   4.699  12.368
 3550SOL    HW112547   8.259   4.715  12.298
 3550SOL    HW212548   8.184   4.783  12.411
 3551SOL     OW12549   8.601  11.990   9.102
 3551SOL    HW112550   8.687  12.015   9.138
 3551SOL    HW212551   8.561  11.937   9.171
 3552SOL     OW12552  10.642   1.107  12.996
 3552SOL    HW112553  10.689   1.124  12.915
 3552SOL    HW212554  10.704   1.133  13.065
 3553SOL     OW12555   7.756   1.530  12.925
 3553SOL    HW112556   7.696   1.572  12.987
 3553SOL    HW212557   7.721   1.552  12.839
 3554SOL     OW12558   9.112   0.420  10.327
 3554SOL    HW112559   9.198   0.441  10.290
 3554SOL    HW212560   9.054   0.489  10.294
 3555SOL     OW12561   8.371  12.575  11.646
 3555SOL    HW112562   8.348  12.506  11.584
 3555SOL    HW212563   8.330  12.653  11.611
 3556SOL     OW12564   1.322  13.543   2.429
 3556SOL    HW112565   1.252  13.525   2.366
 3556SOL    HW212566   1.332  13.462   2.478
 3557SOL     OW12567   5.493   0.843   5.495
 3557SOL    HW112568   5.502   0.902   5.419
 3557SOL    HW212569   5.483   0.756   5.457
 3558SOL     OW12570  10.534   3.652   7.474
 3558SOL    HW112571  10.451   3.631   7.515
 3558SOL    HW212572  10.595   3.664   7.546
 3559SOL     OW12573   1.097  11.186   6.556
 3559SOL    HW112574   1.006  11.205   6.578
 3559SOL    HW212575   1.094  11.103   6.510
 3560SOL     OW12576   6.777   2.337   4.592
 3560SOL    HW112577   6.745   2.284   4.519
 3560SOL    HW212578   6.835   2.278   4.640
 3561SOL     OW12579   1.452   0.112   4.886
 3561SOL    HW112580   1.369   0.159   4.881
 3561SOL    HW212581   1.508   0.157   4.823
 3562SOL     OW12582  12.865  10.558   2.128
 3562SOL    HW112583  12.844  10.518   2.043
 3562SOL    HW212584  12.787  10.610   2.150
 3563SOL     OW12585   9.502   9.568  10.261
 3563SOL    HW112586   9.488   9.638  10.324
 3563SOL    HW212587   9.543   9.611  10.186
 3564SOL     OW12588   3.341   2.731  13.769
 3564SOL    HW112589   3.340   2.664  13.838
 3564SOL    HW212590   3.418   2.709  13.717
 3565SOL     OW12591   3.979   0.330   9.214
 3565SOL    HW112592   4.064   0.339   9.257
 3565SOL    HW212593   3.991   0.257   9.154
 3566SOL     OW12594  12.785   6.800   1.585
 3566SOL    HW112595  12.705   6.852   1.596
 3566SOL    HW212596  12.818   6.824   1.499
 3567SOL     OW12597  14.626   1.081   2.736
 3567SOL    HW112598  14.579   1.082   2.653
 3567SOL    HW212599  14.689   1.152   2.730
 3568SOL     OW12600   2.411   3.529  14.828
 3568SOL    HW112601   2.349   3.464  14.797
 3568SOL    HW212602   2.479   3.532  14.761
 3569SOL     OW12603   0.078   8.590  14.255
 3569SOL    HW112604   0.057   8.674  14.297
 3569SOL    HW212605   0.154   8.610  14.200
 3570SOL     OW12606  13.588  14.003   2.685
 3570SOL    HW112607  13.521  13.983   2.750
 3570SOL    HW212608  13.606  13.919   2.643
 3571SOL     OW12609   6.352   7.671  14.416
 3571SOL    HW112610   6.402   7.590  14.416
 3571SOL    HW212611   6.325   7.683  14.507
 3572SOL     OW12612   1.785  12.384   7.584
 3572SOL    HW112613   1.827  12.468   7.600
 3572SOL    HW212614   1.825  12.352   7.503
 3573SOL     OW12615  13.681   5.017   5.932
 3573SOL    HW112616  13.594   4.998   5.896
 3573SOL    HW212617  13.670   5.010   6.027
 3574SOL     OW12618   6.630  12.023   4.824
 3574SOL    HW112619   6.615  12.016   4.730
 3574SOL    HW212620   6.566  12.088   4.854
 3575SOL     OW12621   2.902   1.025  13.831
 3575SOL    HW112622   2.921   0.947  13.779
 3575SOL    HW212623   2.850   0.992  13.905
 3576SOL     OW12624  11.284  11.226   1.788
 3576SOL    HW112625  11.350  11.293   1.770
 3576SOL    HW212626  11.219  11.271   1.842
 3577SOL     OW12627  14.550   9.200  10.849
 3577SOL    HW112628  14.642   9.181  10.832
 3577SOL    HW212629  14.502   9.128  10.807
 3578SOL     OW12630   6.910   5.308   6.144
 3578SOL    HW112631   6.991   5.352   6.118
 3578SOL    HW212632   6.845   5.378   6.150
 3579SOL     OW12633   3.822   2.606   3.929
 3579SOL    HW112634   3.861   2.680   3.883
 3579SOL    HW212635   3.744   2.641   3.970
 3580SOL     OW12636   7.586  12.983   0.383
 3580SOL    HW112637   7.556  13.042   0.453
 3580SOL    HW212638   7.554  13.023   0.303
 3581SOL     OW12639  14.372  12.130   0.222
 3581SOL    HW112640  14.331  12.216   0.229
 3581SOL    HW212641  14.372  12.096   0.312
 3582SOL     OW12642   1.625   3.600   8.440
 3582SOL    HW112643   1.635   3.518   8.489
 3582SOL    HW212644   1.667   3.583   8.356
 3583SOL     OW12645  14.648   6.575  10.156
 3583SOL    HW112646  14.566   6.528  10.167
 3583SOL    HW212647  14.641   6.616  10.069
 3584SOL     OW12648   2.854  10.504   8.248
 3584SOL    HW112649   2.816  10.422   8.215
 3584SOL    HW212650   2.791  10.571   8.223
 3585SOL     OW12651   3.397   6.297  10.148
 3585SOL    HW112652   3.387   6.224  10.208
 3585SOL    HW212653   3.467   6.270  10.088
 3586SOL     OW12654   6.644   6.312  10.494
 3586SOL    HW112655   6.609   6.357  10.417
 3586SOL    HW212656   6.737   6.302  10.475
 3587SOL     OW12657  11.009  13.748   7.682
 3587SOL    HW112658  11.096  13.719   7.710
 3587SOL    HW212659  10.973  13.794   7.758
 3588SOL     OW12660  14.022   1.230   1.342
 3588SOL    HW112661  13.982   1.148   1.314
 3588SOL    HW212662  13.961   1.298   1.311
 3589SOL     OW12663  13.990   8.377  13.509
 3589SOL    HW112664  13.947   8.332  13.436
 3589SOL    HW212665  14.029   8.307  13.561
 3590SOL     OW12666   6.545  12.715  11.794
 3590SOL    HW112667   6.628  12.764  11.802
 3590SOL    HW212668   6.565  12.629  11.830
 3591SOL     OW12669  12.811   0.480   3.396
 3591SOL    HW112670  12.809   0.568   3.434
 3591SOL    HW212671  12.728   0.440   3.422
 3592SOL     OW12672   2.889   5.328   7.562
 3592SOL    HW112673   2.918   5.406   7.515
 3592SOL    HW212674   2.849   5.361   7.642
 3593SOL     OW12675   5.848  12.739   8.698
 3593SOL    HW112676   5.903  12.670   8.736
 3593SOL    HW212677   5.896  12.768   8.620
 3594SOL     OW12678   1.770   4.743   4.596
 3594SOL    HW112679   1.701   4.694   4.640
 3594SOL    HW212680   1.748   4.739   4.503
 3595SOL     OW12681  12.312  14.008  13.121
 3595SOL    HW112682  12.234  13.954  13.132
 3595SOL    HW212683  12.348  14.017  13.209
 3596SOL     OW12684   7.358   8.714  14.207
 3596SOL    HW112685   7.283   8.667  14.171
 3596SOL    HW212686   7.425   8.707  14.139
 3597SOL     OW12687   8.750  14.472   6.877
 3597SOL    HW112688   8.726  14.400   6.935
 3597SOL    HW212689   8.830  14.508   6.916
 3598SOL     OW12690   8.765   5.704   4.904
 3598SOL    HW112691   8.799   5.725   4.990
 3598SOL    HW212692   8.683   5.753   4.898
 3599SOL     OW12693  11.804   8.576   1.537
 3599SOL    HW112694  11.766   8.612   1.457
 3599SOL    HW212695  11.861   8.645   1.570
 3600SOL     OW12696   8.149   9.355   6.138
 3600SOL    HW112697   8.168   9.363   6.044
 3600SOL    HW212698   8.234   9.347   6.180
 3601SOL     OW12699  13.642  14.681  11.405
 3601SOL    HW112700  13.698  14.651  11.476
 3601SOL    HW212701  13.649  14.776  11.408
 3602SOL     OW12702   2.630  10.207   9.159
 3602SOL    HW112703   2.716  10.165   9.164
 3602SOL    HW212704   2.649  10.297   9.133
 3603SOL     OW12705   3.227   6.970  13.379
 3603SOL    HW112706   3.182   6.895  13.417
 3603SOL    HW212707   3.301   6.932  13.332
 3604SOL     OW12708   3.704   2.809  12.967
 3604SOL    HW112709   3.661   2.775  13.046
 3604SOL    HW212710   3.636   2.805  12.900
 3605SOL     OW12711   8.092   6.246  13.413
 3605SOL    HW112712   8.085   6.335  13.379
 3605SOL    HW212713   8.020   6.239  13.476
 3606SOL     OW12714   2.736   0.109   8.711
 3606SOL    HW112715   2.736   0.013   8.707
 3606SOL    HW212716   2.766   0.129   8.799
 3607SOL     OW12717  13.218   9.112  10.469
 3607SOL    HW112718  13.210   9.031  10.519
 3607SOL    HW212719  13.312   9.129  10.464
 3608SOL     OW12720  10.682   3.567   4.092
 3608SOL    HW112721  10.711   3.489   4.140
 3608SOL    HW212722  10.757   3.591   4.037
 3609SOL     OW12723  12.242   6.222   3.501
 3609SOL    HW112724  12.200   6.286   3.559
 3609SOL    HW212725  12.305   6.273   3.450
 3610SOL     OW12726  12.141   7.042   2.542
 3610SOL    HW112727  12.212   6.978   2.550
 3610SOL    HW212728  12.061   6.990   2.548
 3611SOL     OW12729  13.566   3.586   3.518
 3611SOL    HW112730  13.615   3.668   3.524
 3611SOL    HW212731  13.569   3.550   3.606
 3612SOL     OW12732   6.142   8.069  12.625
 3612SOL    HW112733   6.170   8.095  12.537
 3612SOL    HW212734   6.068   8.011  12.610
 3613SOL     OW12735   2.558   8.596   4.429
 3613SOL    HW112736   2.558   8.534   4.502
 3613SOL    HW212737   2.544   8.542   4.352
 3614SOL     OW12738  10.779   2.335   6.283
 3614SOL    HW112739  10.745   2.286   6.208
 3614SOL    HW212740  10.807   2.419   6.246
 3615SOL     OW12741  13.141   3.813  10.113
 3615SOL    HW112742  13.192   3.789  10.036
 3615SOL    HW212743  13.187   3.772  10.186
 3616SOL     OW12744   6.888   0.068  10.218
 3616SOL    HW112745   6.925   0.006  10.281
 3616SOL    HW212746   6.895   0.023  10.133
 3617SOL     OW12747   8.562   0.193   5.418
 3617SOL    HW112748   8.556   0.099   5.434
 3617SOL    HW212749   8.470   0.223   5.417
 3618SOL     OW12750   4.991   7.485   4.104
 3618SOL    HW112751   5.061   7.550   4.097
 3618SOL    HW212752   4.992   7.440   4.019
 3619SOL     OW12753   6.004   7.935   5.525
 3619SOL    HW112754   6.062   7.895   5.460
 3619SOL    HW212755   5.916   7.922   5.489
 3620SOL     OW12756   1.685   6.932   2.576
 3620SOL    HW112757   1.682   6.862   2.510
 3620SOL    HW212758   1.706   6.886   2.657
 3621SOL     OW12759   5.996   4.069   2.995
 3621SOL    HW112760   5.921   4.124   2.969
 3621SOL    HW212761   6.071   4.109   2.951
 3622SOL     OW12762   9.410   9.376   8.282
 3622SOL    HW112763   9.323   9.368   8.243
 3622SOL    HW212764   9.469   9.388   8.207
 3623SOL     OW12765   3.070   8.275  10.336
 3623SOL    HW112766   3.128   8.274  10.260
 3623SOL    HW212767   3.005   8.342  10.315
 3624SOL     OW12768  11.908  11.898   5.002
 3624SOL    HW112769  12.000  11.913   4.978
 3624SOL    HW212770  11.874  11.985   5.021
 3625SOL     OW12771   7.256   3.812   5.624
 3625SOL    HW112772   7.223   3.901   5.611
 3625SOL    HW212773   7.177   3.758   5.627
 3626SOL     OW12774  13.508   3.414   2.097
 3626SOL    HW112775  13.438   3.376   2.044
 3626SOL    HW212776  13.567   3.454   2.034
 3627SOL     OW12777   7.918  10.130   5.605
 3627SOL    HW112778   7.974  10.058   5.632
 3627SOL    HW212779   7.964  10.209   5.633
 3628SOL     OW12780  10.485   2.929  12.413
 3628SOL    HW112781  10.497   2.931  12.508
 3628SOL    HW212782  10.570   2.955  12.377
 3629SOL     OW12783   7.124   0.687   6.896
 3629SOL    HW112784   7.047   0.635   6.874
 3629SOL    HW212785   7.107   0.774   6.861
 3630SOL     OW12786  11.770  10.692  11.929
 3630SOL    HW112787  11.707  10.747  11.882
 3630SOL    HW212788  11.848  10.746  11.937
 3631SOL     OW12789  13.123   9.071   6.350
 3631SOL    HW112790  13.108   9.075   6.445
 3631SOL    HW212791  13.047   9.024   6.315
 3632SOL     OW12792  11.591  12.227   9.560
 3632SOL    HW112793  11.536  12.192   9.629
 3632SOL    HW212794  11.674  12.247   9.603
 3633SOL     OW12795  14.610   0.215   3.932
 3633SOL    HW112796  14.660   0.209   3.851
 3633SOL    HW212797  14.635   0.299   3.970
 3634SOL     OW12798   3.173   8.352   3.277
 3634SOL    HW112799   3.238   8.282   3.271
 3634SOL    HW212800   3.224   8.433   3.276
 3635SOL     OW12801   4.515   3.846  11.265
 3635SOL    HW112802   4.608   3.822  11.261
 3635SOL    HW212803   4.514   3.934  11.302
 3636SOL     OW12804   4.026  12.228  10.636
 3636SOL    HW112805   4.107  12.276  10.653
 3636SOL    HW212806   4.002  12.191  10.721
 3637SOL     OW12807   2.204  12.635   0.498
 3637SOL    HW112808   2.274  12.664   0.440
 3637SOL    HW212809   2.150  12.578   0.444
 3638SOL     OW12810   7.904   9.143   9.130
 3638SOL    HW112811   7.858   9.061   9.148
 3638SOL    HW212812   7.980   9.140   9.187
 3639SOL     OW12813  13.349   7.136   7.423
 3639SOL    HW112814  13.306   7.218   7.400
 3639SOL    HW212815  13.442   7.152   7.407
 3640SOL     OW12816   0.908   4.019   2.239
 3640SOL    HW112817   0.829   3.964   2.240
 3640SOL    HW212818   0.940   4.017   2.329
 3641SOL     OW12819   7.960   8.580   5.198
 3641SOL    HW112820   7.997   8.505   5.152
 3641SOL    HW212821   7.865   8.567   5.190
 3642SOL     OW12822  11.887   1.043   0.204
 3642SOL    HW112823  11.920   1.036   0.294
 3642SOL    HW212824  11.890   1.137   0.185
 3643SOL     OW12825  10.152   0.066   8.748
 3643SOL    HW112826  10.066   0.108   8.755
 3643SOL    HW212827  10.178   0.050   8.838
 3644SOL     OW12828   9.304   4.019   4.928
 3644SOL    HW112829   9.218   3.981   4.943
 3644SOL    HW212830   9.354   3.996   5.006
 3645SOL     OW12831   7.890  11.663   1.179
 3645SOL    HW112832   7.853  11.596   1.121
 3645SOL    HW212833   7.983  11.665   1.156
 3646SOL     OW12834   9.675   6.165   4.602
 3646SOL    HW112835   9.590   6.126   4.579
 3646SOL    HW212836   9.669   6.182   4.696
 3647SOL     OW12837   4.467   7.458   7.299
 3647SOL    HW112838   4.432   7.394   7.361
 3647SOL    HW212839   4.559   7.466   7.323
 3648SOL     OW12840   9.168   6.271  11.786
 3648SOL    HW112841   9.188   6.322  11.864
 3648SOL    HW212842   9.252   6.261  11.742
 3649SOL     OW12843  14.824   2.154  14.653
 3649SOL    HW112844  14.828   2.192  14.565
 3649SOL    HW212845   0.042   2.128  14.671
 3650SOL     OW12846  12.820  14.633   4.101
 3650SOL    HW112847  12.805  14.654   4.193
 3650SOL    HW212848  12.756  14.564   4.081
 3651SOL     OW12849   3.356  10.561   8.687
 3651SOL    HW112850   3.415  10.600   8.623
 3651SOL    HW212851   3.274  10.608   8.676
 3652SOL     OW12852   2.249   1.843  11.419
 3652SOL    HW112853   2.269   1.762  11.373
 3652SOL    HW212854   2.209   1.816  11.501
 3653SOL     OW12855  11.272  14.031   0.160
 3653SOL    HW112856  11.222  14.022   0.241
 3653SOL    HW212857  11.268  13.945   0.119
 3654SOL     OW12858   1.740  11.396  10.337
 3654SOL    HW112859   1.686  11.346  10.397
 3654SOL    HW212860   1.720  11.488  10.357
 3655SOL     OW12861   3.916  14.659   3.272
 3655SOL    HW112862   3.929  14.614   3.188
 3655SOL    HW212863   4.000  14.650   3.316
 3656SOL     OW12864   3.042   4.280   1.506
 3656SOL    HW112865   3.027   4.247   1.595
 3656SOL    HW212866   3.096   4.358   1.518
 3657SOL     OW12867   1.306   4.369  10.293
 3657SOL    HW112868   1.371   4.313  10.335
 3657SOL    HW212869   1.319   4.356  10.199
 3658SOL     OW12870   3.473   7.264   4.721
 3658SOL    HW112871   3.452   7.338   4.663
 3658SOL    HW212872   3.564   7.243   4.699
 3659SOL     OW12873  13.881  13.106  14.799
 3659SOL    HW112874  13.945  13.141  14.738
 3659SOL    HW212875  13.860  13.019  14.764
 3660SOL     OW12876  10.833   7.744   6.414
 3660SOL    HW112877  10.759   7.703   6.370
 3660SOL    HW212878  10.823   7.721   6.506
 3661SOL     OW12879   1.900   4.317   6.477
 3661SOL    HW112880   1.827   4.378   6.490
 3661SOL    HW212881   1.937   4.342   6.393
 3662SOL     OW12882   4.302   8.335   3.168
 3662SOL    HW112883   4.337   8.248   3.153
 3662SOL    HW212884   4.281   8.368   3.081
 3663SOL     OW12885   1.176   8.085   0.930
 3663SOL    HW112886   1.188   7.994   0.906
 3663SOL    HW212887   1.264   8.117   0.950
 3664SOL     OW12888   1.501  13.389  14.750
 3664SOL    HW112889   1.543  13.311  14.787
 3664SOL    HW212890   1.434  13.355  14.690
 3665SOL     OW12891   4.946   9.644   9.857
 3665SOL    HW112892   4.981   9.598   9.780
 3665SOL    HW212893   4.902   9.721   9.821
 3666SOL     OW12894  14.814   5.702   9.310
 3666SOL    HW112895  14.805   5.711   9.216
 3666SOL    HW212896   0.025   5.657   9.323
 3667SOL     OW12897  11.110  13.782   8.954
 3667SOL    HW112898  11.048  13.799   8.882
 3667SOL    HW212899  11.193  13.763   8.910
 3668SOL     OW12900   4.849   6.780  13.337
 3668SOL    HW112901   4.863   6.774  13.431
 3668SOL    HW212902   4.860   6.873  13.317
 3669SOL     OW12903   1.085   9.535   1.163
 3669SOL    HW112904   1.076   9.594   1.087
 3669SOL    HW212905   1.034   9.458   1.139
 3670SOL     OW12906   6.737   2.282   3.074
 3670SOL    HW112907   6.725   2.377   3.078
 3670SOL    HW212908   6.699   2.249   3.156
 3671SOL     OW12909  11.257  11.967  14.207
 3671SOL    HW112910  11.314  11.944  14.281
 3671SOL    HW212911  11.234  12.058  14.223
 3672SOL     OW12912   1.346   6.030   9.515
 3672SOL    HW112913   1.393   5.954   9.549
 3672SOL    HW212914   1.387   6.105   9.558
 3673SOL     OW12915   8.101   7.356  10.715
 3673SOL    HW112916   8.100   7.266  10.682
 3673SOL    HW212917   8.137   7.407  10.642
 3674SOL     OW12918  11.622   3.007   3.847
 3674SOL    HW112919  11.554   3.060   3.804
 3674SOL    HW212920  11.666   3.068   3.907
 3675SOL     OW12921  10.956  12.027   7.639
 3675SOL    HW112922  10.872  12.042   7.596
 3675SOL    HW212923  10.977  12.109   7.682
 3676SOL     OW12924   1.385   1.737   5.223
 3676SOL    HW112925   1.427   1.684   5.291
 3676SOL    HW212926   1.296   1.701   5.217
 3677SOL     OW12927  13.360  12.960   5.307
 3677SOL    HW112928  13.410  12.967   5.388
 3677SOL    HW212929  13.396  12.882   5.264
 3678SOL     OW12930   9.446   8.600  10.902
 3678SOL    HW112931   9.397   8.535  10.852
 3678SOL    HW212932   9.533   8.599  10.864
 3679SOL     OW12933  10.404  11.813   0.284
 3679SOL    HW112934  10.349  11.763   0.345
 3679SOL    HW212935  10.485  11.762   0.277
 3680SOL     OW12936   6.342  14.234   7.397
 3680SOL    HW112937   6.434  14.236   7.370
 3680SOL    HW212938   6.337  14.295   7.471
 3681SOL     OW12939   3.777   9.454   3.892
 3681SOL    HW112940   3.719   9.408   3.952
 3681SOL    HW212941   3.734   9.539   3.877
 3682SOL     OW12942   3.719   8.068   6.650
 3682SOL    HW112943   3.755   8.104   6.569
 3682SOL    HW212944   3.739   7.974   6.645
 3683SOL     OW12945   6.212  14.220   0.033
 3683SOL    HW112946   6.161  14.204  14.826
 3683SOL    HW212947   6.215  14.316   0.041
 3684SOL     OW12948   5.093   0.713   9.064
 3684SOL    HW112949   5.005   0.748   9.049
 3684SOL    HW212950   5.081   0.642   9.126
 3685SOL     OW12951   5.257   7.765  11.992
 3685SOL    HW112952   5.202   7.840  11.970
 3685SOL    HW212953   5.301   7.791  12.073
 3686SOL     OW12954   5.668   6.807   3.431
 3686SOL    HW112955   5.611   6.732   3.418
 3686SOL    HW212956   5.627   6.856   3.503
 3687SOL     OW12957   4.797   6.325   1.992
 3687SOL    HW112958   4.715   6.374   1.993
 3687SOL    HW212959   4.808   6.297   1.901
 3688SOL     OW12960   4.781  10.421  11.289
 3688SOL    HW112961   4.779  10.482  11.216
 3688SOL    HW212962   4.861  10.370  11.275
 3689SOL     OW12963   5.210  14.508   5.844
 3689SOL    HW112964   5.202  14.438   5.779
 3689SOL    HW212965   5.293  14.492   5.887
 3690SOL     OW12966  10.276   7.984   0.430
 3690SOL    HW112967  10.356   7.952   0.389
 3690SOL    HW212968  10.287   8.079   0.435
 3691SOL     OW12969   9.145   6.752   3.949
 3691SOL    HW112970   9.141   6.697   4.027
 3691SOL    HW212971   9.060   6.740   3.906
 3692SOL     OW12972   3.665   2.248   7.515
 3692SOL    HW112973   3.714   2.170   7.490
 3692SOL    HW212974   3.613   2.270   7.437
 3693SOL     OW12975   9.060  11.205   0.168
 3693SOL    HW112976   8.978  11.239   0.205
 3693SOL    HW212977   9.078  11.262   0.094
 3694SOL     OW12978   4.706   1.759   2.589
 3694SOL    HW112979   4.671   1.685   2.540
 3694SOL    HW212980   4.678   1.744   2.680
 3695SOL     OW12981  12.553  14.257  10.447
 3695SOL    HW112982  12.487  14.325  10.461
 3695SOL    HW212983  12.627  14.285  10.500
 3696SOL     OW12984  12.200  10.993   1.642
 3696SOL    HW112985  12.284  10.991   1.597
 3696SOL    HW212986  12.218  11.033   1.727
 3697SOL     OW12987   8.206   0.214   1.878
 3697SOL    HW112988   8.231   0.212   1.786
 3697SOL    HW212989   8.117   0.177   1.879
 3698SOL     OW12990   7.765   7.003  14.760
 3698SOL    HW112991   7.692   7.056  14.725
 3698SOL    HW212992   7.804   7.058  14.828
 3699SOL     OW12993   8.111   5.150   5.334
 3699SOL    HW112994   8.077   5.071   5.375
 3699SOL    HW212995   8.043   5.177   5.273
 3700SOL     OW12996   7.885   0.224  13.140
 3700SOL    HW112997   7.960   0.173  13.107
 3700SOL    HW212998   7.923   0.308  13.166
 3701SOL     OW12999   3.444  11.368   7.299
 3701SOL    HW113000   3.405  11.296   7.349
 3701SOL    HW213001   3.371  11.406   7.251
 3702SOL     OW13002   5.340   4.304   4.480
 3702SOL    HW113003   5.267   4.329   4.535
 3702SOL    HW213004   5.308   4.229   4.430
 3703SOL     OW13005   8.278  12.454  12.199
 3703SOL    HW113006   8.188  12.463  12.168
 3703SOL    HW213007   8.331  12.460  12.120
 3704SOL     OW13008   5.419   0.783   6.771
 3704SOL    HW113009   5.510   0.810   6.754
 3704SOL    HW213010   5.398   0.823   6.855
 3705SOL     OW13011  10.050   5.181  14.182
 3705SOL    HW113012  10.128   5.164  14.234
 3705SOL    HW213013  10.024   5.095  14.148
 3706SOL     OW13014  12.874   3.242   3.420
 3706SOL    HW113015  12.865   3.332   3.450
 3706SOL    HW213016  12.877   3.249   3.324
 3707SOL     OW13017  12.735  12.344  13.452
 3707SOL    HW113018  12.791  12.374  13.380
 3707SOL    HW213019  12.647  12.342  13.414
 3708SOL     OW13020   9.718   0.704   7.360
 3708SOL    HW113021   9.714   0.661   7.274
 3708SOL    HW213022   9.810   0.701   7.383
 3709SOL     OW13023   6.594   0.073   9.041
 3709SOL    HW113024   6.667   0.037   8.990
 3709SOL    HW213025   6.516   0.035   9.001
 3710SOL     OW13026   9.864   6.462   4.078
 3710SOL    HW113027   9.937   6.523   4.082
 3710SOL    HW213028   9.891   6.395   4.015
 3711SOL     OW13029  14.829   7.759   5.834
 3711SOL    HW113030   0.006   7.719   5.906
 3711SOL    HW213031  14.756   7.804   5.877
 3712SOL     OW13032   9.713   7.137  13.150
 3712SOL    HW113033   9.666   7.183  13.080
 3712SOL    HW213034   9.658   7.151  13.228
 3713SOL     OW13035   6.329   0.172  11.802
 3713SOL    HW113036   6.295   0.259  11.821
 3713SOL    HW213037   6.424   0.185  11.799
 3714SOL     OW13038   4.743  11.559  12.492
 3714SOL    HW113039   4.761  11.494  12.424
 3714SOL    HW213040   4.714  11.637  12.445
 3715SOL     OW13041   0.254  14.274   2.294
 3715SOL    HW113042   0.307  14.252   2.217
 3715SOL    HW213043   0.302  14.345   2.336
 3716SOL     OW13044   0.321   8.083   3.851
 3716SOL    HW113045   0.318   8.169   3.809
 3716SOL    HW213046   0.231   8.065   3.877
 3717SOL     OW13047   9.920   9.357   0.571
 3717SOL    HW113048   9.850   9.297   0.547
 3717SOL    HW213049   9.879   9.419   0.630
 3718SOL     OW13050  12.390   2.165  10.987
 3718SOL    HW113051  12.316   2.135  10.935
 3718SOL    HW213052  12.372   2.132  11.075
 3719SOL     OW13053   0.962   4.624  12.580
 3719SOL    HW113054   0.964   4.668  12.665
 3719SOL    HW213055   0.870   4.621  12.556
 3720SOL     OW13056  11.638   7.214   1.904
 3720SOL    HW113057  11.622   7.308   1.907
 3720SOL    HW213058  11.607   7.187   1.817
 3721SOL     OW13059  14.667  13.802  13.841
 3721SOL    HW113060  14.651  13.893  13.814
 3721SOL    HW213061  14.590  13.779  13.893
 3722SOL     OW13062   5.127   0.352   7.873
 3722SOL    HW113063   5.169   0.373   7.790
 3722SOL    HW213064   5.115   0.436   7.917
 3723SOL     OW13065   0.586   8.898   8.944
 3723SOL    HW113066   0.526   8.959   8.985
 3723SOL    HW213067   0.638   8.951   8.884
 3724SOL     OW13068  11.425  14.105   9.593
 3724SOL    HW113069  11.491  14.141   9.534
 3724SOL    HW213070  11.476  14.066   9.665
 3725SOL     OW13071  11.137   1.781   3.057
 3725SOL    HW113072  11.065   1.823   3.105
 3725SOL    HW213073  11.164   1.709   3.114
 3726SOL     OW13074   5.771   9.947   8.710
 3726SOL    HW113075   5.684   9.916   8.733
 3726SOL    HW213076   5.811   9.972   8.794
 3727SOL     OW13077   5.920  14.872   2.914
 3727SOL    HW113078   5.966   0.034   2.990
 3727SOL    HW213079   5.840   0.052   2.907
 3728SOL     OW13080   9.450   0.234  11.286
 3728SOL    HW113081   9.366   0.194  11.266
 3728SOL    HW213082   9.514   0.165  11.272
 3729SOL     OW13083   0.790   4.528  13.556
 3729SOL    HW113084   0.877   4.561  13.575
 3729SOL    HW213085   0.802   4.469  13.482
 3730SOL     OW13086   3.182  10.866  13.536
 3730SOL    HW113087   3.262  10.902  13.574
 3730SOL    HW213088   3.130  10.837  13.611
 3731SOL     OW13089   3.684   3.986   3.168
 3731SOL    HW113090   3.647   4.012   3.084
 3731SOL    HW213091   3.625   4.023   3.233
 3732SOL     OW13092   9.638   3.407   6.199
 3732SOL    HW113093   9.708   3.352   6.164
 3732SOL    HW213094   9.574   3.345   6.234
 3733SOL     OW13095  12.602   5.412  11.995
 3733SOL    HW113096  12.645   5.476  12.052
 3733SOL    HW213097  12.582   5.462  11.915
 3734SOL     OW13098   3.324   7.301  11.215
 3734SOL    HW113099   3.250   7.297  11.275
 3734SOL    HW213100   3.304   7.235  11.148
 3735SOL     OW13101   1.386  12.113  14.483
 3735SOL    HW113102   1.350  12.046  14.541
 3735SOL    HW213103   1.397  12.190  14.539
 3736SOL     OW13104  13.072   4.502   0.204
 3736SOL    HW113105  12.988   4.542   0.183
 3736SOL    HW213106  13.129   4.575   0.228
 3737SOL     OW13107  14.283   9.602   1.535
 3737SOL    HW113108  14.226   9.679   1.544
 3737SOL    HW213109  14.349   9.613   1.603
 3738SOL     OW13110   8.535  12.727  13.063
 3738SOL    HW113111   8.457  12.771  13.098
 3738SOL    HW213112   8.603  12.743  13.128
 3739SOL     OW13113   9.331   8.450  13.087
 3739SOL    HW113114   9.344   8.389  13.159
 3739SOL    HW213115   9.345   8.397  13.008
 3740SOL     OW13116  10.594  12.075  13.699
 3740SOL    HW113117  10.511  12.090  13.745
 3740SOL    HW213118  10.618  12.161  13.664
 3741SOL     OW13119  13.295  11.432   2.692
 3741SOL    HW113120  13.338  11.512   2.663
 3741SOL    HW213121  13.299  11.435   2.787
 3742SOL     OW13122   4.605   7.282   2.246
 3742SOL    HW113123   4.643   7.310   2.329
 3742SOL    HW213124   4.675   7.234   2.202
 3743SOL     OW13125   1.595   9.773  13.963
 3743SOL    HW113126   1.623   9.685  13.937
 3743SOL    HW213127   1.632   9.785  14.050
 3744SOL     OW13128   5.104  11.465   7.773
 3744SOL    HW113129   5.065  11.526   7.711
 3744SOL    HW213130   5.053  11.475   7.853
 3745SOL     OW13131   1.163  13.237  12.124
 3745SOL    HW113132   1.134  13.282  12.204
 3745SOL    HW213133   1.152  13.144  12.144
 3746SOL     OW13134   7.783  13.100   5.277
 3746SOL    HW113135   7.850  13.033   5.266
 3746SOL    HW213136   7.756  13.123   5.188
 3747SOL     OW13137   1.894   6.066   5.515
 3747SOL    HW113138   1.875   6.157   5.493
 3747SOL    HW213139   1.821   6.017   5.478
 3748SOL     OW13140  14.595   3.210   6.768
 3748SOL    HW113141  14.568   3.135   6.821
 3748SOL    HW213142  14.620   3.172   6.683
 3749SOL     OW13143   9.173   8.153   5.881
 3749SOL    HW113144   9.135   8.239   5.863
 3749SOL    HW213145   9.210   8.125   5.798
 3750SOL     OW13146   0.294   9.409   4.396
 3750SOL    HW113147   0.341   9.388   4.315
 3750SOL    HW213148   0.210   9.363   4.388
 3751SOL     OW13149   0.560   2.174  12.681
 3751SOL    HW113150   0.470   2.155  12.654
 3751SOL    HW213151   0.614   2.117  12.626
 3752SOL     OW13152   1.454   0.953   1.829
 3752SOL    HW113153   1.524   0.985   1.885
 3752SOL    HW213154   1.402   1.031   1.807
 3753SOL     OW13155   3.837   5.621   7.322
 3753SOL    HW113156   3.894   5.567   7.266
 3753SOL    HW213157   3.866   5.710   7.305
 3754SOL     OW13158   9.936  14.784   8.636
 3754SOL    HW113159  10.026  14.814   8.642
 3754SOL    HW213160   9.937  14.718   8.566
 3755SOL     OW13161   4.114   5.572   8.046
 3755SOL    HW113162   4.084   5.518   8.120
 3755SOL    HW213163   4.170   5.639   8.086
 3756SOL     OW13164   2.588   7.140  13.848
 3756SOL    HW113165   2.670   7.173  13.883
 3756SOL    HW213166   2.609   7.053  13.814
 3757SOL     OW13167   1.704   3.759  14.672
 3757SOL    HW113168   1.629   3.818  14.679
 3757SOL    HW213169   1.774   3.813  14.636
 3758SOL     OW13170   2.677   4.912   8.039
 3758SOL    HW113171   2.742   4.843   8.056
 3758SOL    HW213172   2.620   4.874   7.972
 3759SOL     OW13173  10.950   5.512  10.299
 3759SOL    HW113174  10.868   5.562  10.300
 3759SOL    HW213175  10.994   5.535  10.381
 3760SOL     OW13176   1.460  10.463   6.781
 3760SOL    HW113177   1.473  10.523   6.855
 3760SOL    HW213178   1.523  10.494   6.715
 3761SOL     OW13179   4.886   3.986   0.089
 3761SOL    HW113180   4.793   3.991   0.110
 3761SOL    HW213181   4.889   3.967  14.868
 3762SOL     OW13182  14.647  13.298   9.082
 3762SOL    HW113183  14.685  13.210   9.092
 3762SOL    HW213184  14.690  13.333   9.004
 3763SOL     OW13185   8.798   1.848  13.018
 3763SOL    HW113186   8.859   1.917  13.045
 3763SOL    HW213187   8.746   1.888  12.948
 3764SOL     OW13188   3.240  13.440  11.679
 3764SOL    HW113189   3.241  13.345  11.693
 3764SOL    HW213190   3.150  13.460  11.655
 3765SOL     OW13191  11.738  14.021   8.638
 3765SOL    HW113192  11.752  14.004   8.544
 3765SOL    HW213193  11.826  14.021   8.675
 3766SOL     OW13194   8.705  13.564  12.657
 3766SOL    HW113195   8.740  13.631  12.716
 3766SOL    HW213196   8.764  13.564  12.582
 3767SOL     OW13197   0.570   4.429   4.941
 3767SOL    HW113198   0.559   4.334   4.951
 3767SOL    HW213199   0.543   4.446   4.850
 3768SOL     OW13200   4.799   7.749  12.233
 3768SOL    HW113201   4.706   7.731  12.239
 3768SOL    HW213202   4.806   7.816  12.164
 3769SOL     OW13203   7.055   6.939   9.937
 3769SOL    HW113204   6.997   6.964   9.865
 3769SOL    HW213205   7.086   6.852   9.913
 3770SOL     OW13206   8.600   4.327  14.363
 3770SOL    HW113207   8.681   4.336  14.314
 3770SOL    HW213208   8.620   4.363  14.450
 3771SOL     OW13209   4.756  12.472  10.398
 3771SOL    HW113210   4.730  12.543  10.338
 3771SOL    HW213211   4.793  12.405  10.341
 3772SOL     OW13212  12.076  13.060   7.736
 3772SOL    HW113213  12.057  13.004   7.811
 3772SOL    HW213214  12.142  13.122   7.769
 3773SOL     OW13215  10.075  12.731   5.631
 3773SOL    HW113216  10.114  12.655   5.675
 3773SOL    HW213217  10.023  12.774   5.698
 3774SOL     OW13218   4.713   7.343  13.726
 3774SOL    HW113219   4.693   7.285  13.799
 3774SOL    HW213220   4.627   7.360  13.685
 3775SOL     OW13221  14.504  11.052   7.645
 3775SOL    HW113222  14.533  11.040   7.555
 3775SOL    HW213223  14.411  11.029   7.644
 3776SOL     OW13224   1.600  10.111   8.969
 3776SOL    HW113225   1.646  10.027   8.969
 3776SOL    HW213226   1.625  10.152   8.886
 3777SOL     OW13227   4.347   6.627  12.687
 3777SOL    HW113228   4.379   6.679  12.761
 3777SOL    HW213229   4.308   6.550  12.728
 3778SOL     OW13230  14.572   6.897  11.756
 3778SOL    HW113231  14.616   6.935  11.831
 3778SOL    HW213232  14.488   6.865  11.790
 3779SOL     OW13233   1.757   1.182  13.351
 3779SOL    HW113234   1.756   1.116  13.282
 3779SOL    HW213235   1.705   1.254  13.315
 3780SOL     OW13236   3.775   3.752   0.496
 3780SOL    HW113237   3.813   3.751   0.409
 3780SOL    HW213238   3.686   3.722   0.484
 3781SOL     OW13239   3.308   8.063  12.963
 3781SOL    HW113240   3.246   8.136  12.970
 3781SOL    HW213241   3.257   7.993  12.922
 3782SOL     OW13242  11.737   6.861  13.326
 3782SOL    HW113243  11.818   6.810  13.318
 3782SOL    HW213244  11.716   6.886  13.236
 3783SOL     OW13245  13.621   9.354   9.538
 3783SOL    HW113246  13.603   9.272   9.492
 3783SOL    HW213247  13.616   9.422   9.470
 3784SOL     OW13248   6.127  13.031  10.273
 3784SOL    HW113249   6.132  13.102  10.209
 3784SOL    HW213250   6.213  13.028  10.314
 3785SOL     OW13251   2.478   9.962  12.516
 3785SOL    HW113252   2.507   9.886  12.467
 3785SOL    HW213253   2.383   9.955  12.518
 3786SOL     OW13254   4.916   8.989  13.318
 3786SOL    HW113255   4.931   8.950  13.404
 3786SOL    HW213256   4.998   9.034  13.297
 3787SOL     OW13257   6.825   6.551  12.359
 3787SOL    HW113258   6.833   6.459  12.386
 3787SOL    HW213259   6.771   6.548  12.280
 3788SOL     OW13260   1.752   0.211   6.976
 3788SOL    HW113261   1.729   0.126   6.938
 3788SOL    HW213262   1.840   0.229   6.942
 3789SOL     OW13263  11.846   9.170  10.579
 3789SOL    HW113264  11.848   9.075  10.585
 3789SOL    HW213265  11.759   9.195  10.610
 3790SOL     OW13266   3.885   3.248  11.334
 3790SOL    HW113267   3.797   3.223  11.303
 3790SOL    HW213268   3.942   3.234  11.258
 3791SOL     OW13269   7.627  10.039   3.055
 3791SOL    HW113270   7.700  10.021   2.996
 3791SOL    HW213271   7.586   9.953   3.070
 3792SOL     OW13272  13.298   5.544   8.855
 3792SOL    HW113273  13.380   5.496   8.843
 3792SOL    HW213274  13.231   5.476   8.855
 3793SOL     OW13275   1.402   3.831   5.176
 3793SOL    HW113276   1.431   3.752   5.223
 3793SOL    HW213277   1.453   3.902   5.215
 3794SOL     OW13278   8.297   4.655  13.723
 3794SOL    HW113279   8.318   4.564  13.745
 3794SOL    HW213280   8.204   4.653  13.701
 3795SOL     OW13281   1.027   1.600  14.283
 3795SOL    HW113282   0.964   1.658  14.326
 3795SOL    HW213283   1.112   1.633  14.310
 3796SOL     OW13284   1.560  14.003   6.953
 3796SOL    HW113285   1.599  14.002   6.866
 3796SOL    HW213286   1.481  13.949   6.946
 3797SOL     OW13287  12.853   5.165  13.354
 3797SOL    HW113288  12.933   5.117  13.334
 3797SOL    HW213289  12.857   5.180  13.448
 3798SOL     OW13290  14.284   5.161  14.210
 3798SOL    HW113291  14.235   5.244  14.205
 3798SOL    HW213292  14.317   5.158  14.299
 3799SOL     OW13293  13.109   6.538  11.498
 3799SOL    HW113294  13.051   6.614  11.488
 3799SOL    HW213295  13.126   6.534  11.592
 3800SOL     OW13296  13.603   2.779  12.187
 3800SOL    HW113297  13.516   2.802  12.222
 3800SOL    HW213298  13.600   2.684  12.178
 3801SOL     OW13299  10.530   3.028   4.402
 3801SOL    HW113300  10.486   3.092   4.347
 3801SOL    HW213301  10.495   3.044   4.490
 3802SOL     OW13302  14.189  11.354  11.377
 3802SOL    HW113303  14.243  11.288  11.334
 3802SOL    HW213304  14.100  11.319  11.371
 3803SOL     OW13305   7.799   0.505  10.807
 3803SOL    HW113306   7.855   0.577  10.776
 3803SOL    HW213307   7.721   0.549  10.840
 3804SOL     OW13308   7.192  14.014  10.966
 3804SOL    HW113309   7.285  14.012  10.944
 3804SOL    HW213310   7.189  14.006  11.061
 3805SOL     OW13311  12.572  12.687   8.003
 3805SOL    HW113312  12.511  12.704   7.932
 3805SOL    HW213313  12.659  12.690   7.962
 3806SOL     OW13314  11.598   2.261  10.647
 3806SOL    HW113315  11.539   2.193  10.614
 3806SOL    HW213316  11.550   2.301  10.719
 3807SOL     OW13317  13.218  14.480   7.802
 3807SOL    HW113318  13.167  14.409   7.841
 3807SOL    HW213319  13.296  14.436   7.767
 3808SOL     OW13320  11.659   6.737  13.861
 3808SOL    HW113321  11.588   6.740  13.925
 3808SOL    HW213322  11.679   6.829  13.844
 3809SOL     OW13323   5.502   0.284   0.524
 3809SOL    HW113324   5.498   0.204   0.576
 3809SOL    HW213325   5.541   0.349   0.582
 3810SOL     OW13326  13.177   6.517   5.395
 3810SOL    HW113327  13.244   6.449   5.401
 3810SOL    HW213328  13.139   6.520   5.483
 3811SOL     OW13329   1.114   2.936   3.240
 3811SOL    HW113330   1.026   2.956   3.206
 3811SOL    HW213331   1.138   3.014   3.290
 3812SOL     OW13332  14.360  10.596  12.546
 3812SOL    HW113333  14.409  10.668  12.507
 3812SOL    HW213334  14.424  10.552  12.602
 3813SOL     OW13335   8.064   3.599  14.363
 3813SOL    HW113336   8.143   3.562  14.324
 3813SOL    HW213337   8.064   3.691  14.335
 3814SOL     OW13338  10.908   7.280  10.370
 3814SOL    HW113339  10.980   7.325  10.327
 3814SOL    HW213340  10.852   7.351  10.402
 3815SOL     OW13341   4.004   4.292  10.936
 3815SOL    HW113342   3.941   4.319  10.870
 3815SOL    HW213343   4.006   4.364  10.999
 3816SOL     OW13344  14.445  10.994   6.104
 3816SOL    HW113345  14.403  11.021   6.185
 3816SOL    HW213346  14.478  10.906   6.122
 3817SOL     OW13347   0.460   1.928  11.390
 3817SOL    HW113348   0.468   1.924  11.485
 3817SOL    HW213349   0.518   2.000  11.364
 3818SOL     OW13350   1.430   4.891   6.088
 3818SOL    HW113351   1.402   4.799   6.092
 3818SOL    HW213352   1.348   4.941   6.085
 3819SOL     OW13353   8.531   7.963   5.156
 3819SOL    HW113354   8.443   7.946   5.188
 3819SOL    HW213355   8.551   8.052   5.186
 3820SOL     OW13356  10.264  10.873   1.956
 3820SOL    HW113357  10.333  10.866   1.890
 3820SOL    HW213358  10.297  10.824   2.031
 3821SOL     OW13359   4.222  11.759  11.956
 3821SOL    HW113360   4.283  11.810  11.903
 3821SOL    HW213361   4.275  11.724  12.027
 3822SOL     OW13362   0.180  12.025   2.615
 3822SOL    HW113363   0.204  11.991   2.702
 3822SOL    HW213364   0.214  11.960   2.554
 3823SOL     OW13365  12.449   6.988   6.289
 3823SOL    HW113366  12.536   7.021   6.310
 3823SOL    HW213367  12.389   7.048   6.333
 3824SOL     OW13368  10.712   0.013   9.657
 3824SOL    HW113369  10.766   0.038   9.582
 3824SOL    HW213370  10.766  14.823   9.706
 3825SOL     OW13371  13.905   6.143   0.422
 3825SOL    HW113372  13.987   6.107   0.455
 3825SOL    HW213373  13.837   6.096   0.470
 3826SOL     OW13374   8.679  11.709   0.599
 3826SOL    HW113375   8.614  11.747   0.658
 3826SOL    HW213376   8.726  11.645   0.652
 3827SOL     OW13377   5.581   4.307   9.367
 3827SOL    HW113378   5.506   4.365   9.375
 3827SOL    HW213379   5.586   4.286   9.274
 3828SOL     OW13380   6.673  14.418   9.075
 3828SOL    HW113381   6.593  14.464   9.049
 3828SOL    HW213382   6.642  14.333   9.107
 3829SOL     OW13383   2.917   9.887   5.839
 3829SOL    HW113384   2.963   9.943   5.777
 3829SOL    HW213385   2.831   9.928   5.850
 3830SOL     OW13386   6.362   0.753   8.016
 3830SOL    HW113387   6.371   0.848   8.013
 3830SOL    HW213388   6.357   0.733   8.109
 3831SOL     OW13389   1.244   4.761   6.712
 3831SOL    HW113390   1.234   4.667   6.727
 3831SOL    HW213391   1.156   4.796   6.722
 3832SOL     OW13392  12.341   8.588   1.507
 3832SOL    HW113393  12.272   8.643   1.470
 3832SOL    HW213394  12.420   8.613   1.459
 3833SOL     OW13395   1.520  13.926   0.389
 3833SOL    HW113396   1.506  14.008   0.340
 3833SOL    HW213397   1.453  13.928   0.457
 3834SOL     OW13398  14.526  10.598   2.113
 3834SOL    HW113399  14.557  10.689   2.108
 3834SOL    HW213400  14.539  10.573   2.204
 3835SOL     OW13401   4.033   7.431  14.242
 3835SOL    HW113402   3.941   7.419  14.269
 3835SOL    HW213403   4.031   7.423  14.147
 3836SOL     OW13404   3.615   7.800   5.845
 3836SOL    HW113405   3.575   7.834   5.765
 3836SOL    HW213406   3.543   7.798   5.908
 3837SOL     OW13407   6.129   5.141   5.826
 3837SOL    HW113408   6.164   5.132   5.737
 3837SOL    HW213409   6.039   5.171   5.813
 3838SOL     OW13410   9.728   1.351   9.655
 3838SOL    HW113411   9.763   1.429   9.698
 3838SOL    HW213412   9.702   1.382   9.568
 3839SOL     OW13413   8.530   8.783  14.017
 3839SOL    HW113414   8.588   8.832  13.958
 3839SOL    HW213415   8.443   8.818  13.999
 3840SOL     OW13416  13.712  14.217   7.245
 3840SOL    HW113417  13.723  14.141   7.186
 3840SOL    HW213418  13.736  14.183   7.331
 3841SOL     OW13419   7.035   5.941  10.872
 3841SOL    HW113420   6.944   5.947  10.845
 3841SOL    HW213421   7.036   5.872  10.938
 3842SOL     OW13422  10.905   1.226  11.335
 3842SOL    HW113423  10.990   1.241  11.294
 3842SOL    HW213424  10.897   1.131  11.339
 3843SOL     OW13425   4.274  11.366  10.769
 3843SOL    HW113426   4.321  11.447  10.790
 3843SOL    HW213427   4.236  11.383  10.682
 3844SOL     OW13428   1.762  12.283  13.154
 3844SOL    HW113429   1.678  12.249  13.124
 3844SOL    HW213430   1.748  12.378  13.162
 3845SOL     OW13431   8.258   9.733   0.128
 3845SOL    HW113432   8.284   9.722   0.219
 3845SOL    HW213433   8.314   9.804   0.095
 3846SOL     OW13434   8.110  12.164  12.935
 3846SOL    HW113435   8.197  12.134  12.909
 3846SOL    HW213436   8.102  12.140  13.027
 3847SOL     OW13437   7.413  13.062  11.986
 3847SOL    HW113438   7.398  12.987  12.044
 3847SOL    HW213439   7.495  13.099  12.016
 3848SOL     OW13440  11.625   0.216   9.227
 3848SOL    HW113441  11.638   0.272   9.150
 3848SOL    HW213442  11.541   0.173   9.211
 3849SOL     OW13443   2.346  14.473   3.566
 3849SOL    HW113444   2.417  14.526   3.530
 3849SOL    HW213445   2.365  14.384   3.538
 3850SOL     OW13446   0.235  10.088   7.962
 3850SOL    HW113447   0.267  10.140   8.036
 3850SOL    HW213448   0.209  10.004   8.001
 3851SOL     OW13449  11.056  11.333   1.911
 3851SOL    HW113450  11.051  11.409   1.969
 3851SOL    HW213451  11.032  11.366   1.825
 3852SOL     OW13452   5.305  12.684  14.070
 3852SOL    HW113453   5.342  12.743  14.137
 3852SOL    HW213454   5.277  12.607  14.119
 3853SOL     OW13455  11.422   6.524   9.414
 3853SOL    HW113456  11.337   6.549   9.451
 3853SOL    HW213457  11.400   6.471   9.338
 3854SOL     OW13458   5.499  13.353   9.630
 3854SOL    HW113459   5.575  13.375   9.576
 3854SOL    HW213460   5.514  13.400   9.712
 3855SOL     OW13461   3.881   7.311   7.251
 3855SOL    HW113462   3.819   7.316   7.179
 3855SOL    HW213463   3.964   7.289   7.210
 3856SOL     OW13464   8.739   5.662   9.152
 3856SOL    HW113465   8.749   5.749   9.113
 3856SOL    HW213466   8.792   5.666   9.232
 3857SOL     OW13467   3.436  12.071   7.689
 3857SOL    HW113468   3.518  12.023   7.704
 3857SOL    HW213469   3.374  12.034   7.751
 3858SOL     OW13470   4.570   2.502  12.376
 3858SOL    HW113471   4.607   2.522  12.289
 3858SOL    HW213472   4.579   2.583  12.425
 3859SOL     OW13473   7.577   8.835   5.660
 3859SOL    HW113474   7.510   8.889   5.617
 3859SOL    HW213475   7.530   8.757   5.688
 3860SOL     OW13476  14.539  12.204  10.943
 3860SOL    HW113477  14.538  12.298  10.961
 3860SOL    HW213478  14.535  12.163  11.030
 3861SOL     OW13479   0.136   4.161   9.220
 3861SOL    HW113480   0.080   4.120   9.286
 3861SOL    HW213481   0.166   4.088   9.165
 3862SOL     OW13482  12.898   7.468   8.036
 3862SOL    HW113483  12.960   7.532   8.003
 3862SOL    HW213484  12.816   7.489   7.991
 3863SOL     OW13485   8.903   9.994  13.552
 3863SOL    HW113486   8.887  10.088  13.555
 3863SOL    HW213487   8.905   9.967  13.643
 3864SOL     OW13488  11.789   3.652   5.403
 3864SOL    HW113489  11.728   3.712   5.446
 3864SOL    HW213490  11.736   3.607   5.338
 3865SOL     OW13491   9.171   3.799   3.274
 3865SOL    HW113492   9.191   3.871   3.334
 3865SOL    HW213493   9.133   3.731   3.330
 3866SOL     OW13494   8.865  11.942  14.738
 3866SOL    HW113495   8.936  11.897  14.784
 3866SOL    HW213496   8.806  11.871  14.712
 3867SOL     OW13497   4.283   2.030   1.117
 3867SOL    HW113498   4.299   1.947   1.072
 3867SOL    HW213499   4.271   2.005   1.208
 3868SOL     OW13500   1.455   9.488   2.822
 3868SOL    HW113501   1.492   9.541   2.892
 3868SOL    HW213502   1.519   9.495   2.751
 3869SOL     OW13503   1.081   0.795   4.590
 3869SOL    HW113504   1.098   0.889   4.592
 3869SOL    HW213505   1.000   0.786   4.541
 3870SOL     OW13506   3.770  13.221  12.778
 3870SOL    HW113507   3.689  13.272  12.777
 3870SOL    HW213508   3.775  13.187  12.868
 3871SOL     OW13509  12.387  11.838   6.184
 3871SOL    HW113510  12.302  11.860   6.223
 3871SOL    HW213511  12.399  11.903   6.115
 3872SOL     OW13512   6.365  14.827  10.185
 3872SOL    HW113513   6.338  14.871  10.105
 3872SOL    HW213514   6.460  14.818  10.176
 3873SOL     OW13515   5.494  12.608   3.049
 3873SOL    HW113516   5.498  12.566   3.135
 3873SOL    HW213517   5.451  12.692   3.065
 3874SOL     OW13518   6.098   8.839   3.955
 3874SOL    HW113519   6.063   8.763   3.909
 3874SOL    HW213520   6.127   8.804   4.040
 3875SOL     OW13521  14.483  13.884   8.284
 3875SOL    HW113522  14.519  13.810   8.334
 3875SOL    HW213523  14.461  13.949   8.350
 3876SOL     OW13524   7.346   0.453   2.629
 3876SOL    HW113525   7.293   0.530   2.609
 3876SOL    HW213526   7.334   0.439   2.723
 3877SOL     OW13527   9.311   4.214  11.392
 3877SOL    HW113528   9.355   4.276  11.450
 3877SOL    HW213529   9.285   4.142  11.449
 3878SOL     OW13530   6.773  10.896   7.357
 3878SOL    HW113531   6.799  10.980   7.320
 3878SOL    HW213532   6.697  10.869   7.306
 3879SOL     OW13533   1.628   1.382  12.643
 3879SOL    HW113534   1.700   1.333  12.603
 3879SOL    HW213535   1.622   1.463  12.592
 3880SOL     OW13536  14.514   2.731  10.810
 3880SOL    HW113537  14.447   2.787  10.849
 3880SOL    HW213538  14.585   2.790  10.786
 3881SOL     OW13539   3.566  13.827   8.350
 3881SOL    HW113540   3.637  13.890   8.354
 3881SOL    HW213541   3.527  13.840   8.263
 3882SOL     OW13542  10.292   3.294  13.011
 3882SOL    HW113543  10.369   3.344  12.983
 3882SOL    HW213544  10.315   3.203  12.993
 3883SOL     OW13545   4.967  14.783  14.485
 3883SOL    HW113546   5.026  14.760  14.413
 3883SOL    HW213547   4.977  14.712  14.548
 3884SOL     OW13548   8.337   2.059   4.977
 3884SOL    HW113549   8.297   2.043   4.891
 3884SOL    HW213550   8.350   2.153   4.981
 3885SOL     OW13551   1.142  14.387   3.773
 3885SOL    HW113552   1.053  14.411   3.749
 3885SOL    HW213553   1.134  14.300   3.813
 3886SOL     OW13554   7.561  10.005   6.565
 3886SOL    HW113555   7.558   9.955   6.483
 3886SOL    HW213556   7.515   9.951   6.628
 3887SOL     OW13557   6.896  12.495   7.137
 3887SOL    HW113558   6.846  12.549   7.077
 3887SOL    HW213559   6.829  12.445   7.185
 3888SOL     OW13560   7.067  14.204   1.694
 3888SOL    HW113561   7.158  14.194   1.666
 3888SOL    HW213562   7.040  14.288   1.659
 3889SOL     OW13563   4.525   3.789   4.090
 3889SOL    HW113564   4.559   3.704   4.117
 3889SOL    HW213565   4.528   3.843   4.169
 3890SOL     OW13566   2.390   6.410   0.896
 3890SOL    HW113567   2.433   6.467   0.960
 3890SOL    HW213568   2.387   6.325   0.938
 3891SOL     OW13569   8.988   6.809   4.364
 3891SOL    HW113570   8.957   6.720   4.348
 3891SOL    HW213571   8.948   6.834   4.447
 3892SOL     OW13572  11.891   2.894   3.279
 3892SOL    HW113573  11.827   2.859   3.341
 3892SOL    HW213574  11.976   2.871   3.318
 3893SOL     OW13575  12.696   4.883   5.296
 3893SOL    HW113576  12.665   4.840   5.217
 3893SOL    HW213577  12.628   4.866   5.361
 3894SOL     OW13578   3.212   1.069   4.627
 3894SOL    HW113579   3.152   1.105   4.692
 3894SOL    HW213580   3.216   1.136   4.558
 3895SOL     OW13581  13.483  12.410  11.397
 3895SOL    HW113582  13.545  12.438  11.330
 3895SOL    HW213583  13.398  12.441  11.365
 3896SOL     OW13584   3.740   4.477   8.175
 3896SOL    HW113585   3.747   4.572   8.188
 3896SOL    HW213586   3.815   4.441   8.222
 3897SOL     OW13587   9.807   2.552   4.277
 3897SOL    HW113588   9.844   2.592   4.197
 3897SOL    HW213589   9.882   2.538   4.334
 3898SOL     OW13590   9.759   6.694   2.969
 3898SOL    HW113591   9.813   6.765   3.002
 3898SOL    HW213592   9.673   6.733   2.956
 3899SOL     OW13593  13.916   6.976   6.270
 3899SOL    HW113594  13.963   6.933   6.341
 3899SOL    HW213595  13.974   7.046   6.241
 3900SOL     OW13596  10.885   6.169  14.668
 3900SOL    HW113597  10.912   6.097  14.611
 3900SOL    HW213598  10.919   6.146  14.754
 3901SOL     OW13599   8.731   0.214   1.766
 3901SOL    HW113600   8.646   0.235   1.728
 3901SOL    HW213601   8.751   0.288   1.824
 3902SOL     OW13602   0.107  14.453   8.950
 3902SOL    HW113603   0.016  14.435   8.972
 3902SOL    HW213604   0.103  14.505   8.869
 3903SOL     OW13605   0.725  10.625  11.247
 3903SOL    HW113606   0.643  10.617  11.199
 3903SOL    HW213607   0.747  10.718  11.241
 3904SOL     OW13608  14.292   4.844   2.470
 3904SOL    HW113609  14.382   4.847   2.501
 3904SOL    HW213610  14.260   4.934   2.480
 3905SOL     OW13611   9.835  11.884   3.876
 3905SOL    HW113612   9.837  11.882   3.972
 3905SOL    HW213613   9.815  11.975   3.855
 3906SOL     OW13614   3.972  12.746   9.646
 3906SOL    HW113615   3.993  12.839   9.638
 3906SOL    HW213616   4.007  12.721   9.732
 3907SOL     OW13617   8.550  10.374   0.874
 3907SOL    HW113618   8.482  10.308   0.889
 3907SOL    HW213619   8.628  10.337   0.914
 3908SOL     OW13620   4.397   1.727   2.597
 3908SOL    HW113621   4.356   1.784   2.661
 3908SOL    HW213622   4.449   1.786   2.542
 3909SOL     OW13623   7.742   2.396   9.370
 3909SOL    HW113624   7.732   2.301   9.370
 3909SOL    HW213625   7.763   2.418   9.461
 3910SOL     OW13626   4.976   1.325   3.687
 3910SOL    HW113627   5.025   1.259   3.637
 3910SOL    HW213628   4.970   1.400   3.628
 3911SOL     OW13629  11.249   6.312  13.415
 3911SOL    HW113630  11.328   6.342  13.459
 3911SOL    HW213631  11.201   6.263  13.481
 3912SOL     OW13632   6.361  10.466  14.233
 3912SOL    HW113633   6.427  10.472  14.303
 3912SOL    HW213634   6.352  10.372  14.218
 3913SOL     OW13635   6.080  14.294  10.707
 3913SOL    HW113636   5.986  14.294  10.687
 3913SOL    HW213637   6.100  14.202  10.726
 3914SOL     OW13638   4.997   3.782   8.032
 3914SOL    HW113639   5.066   3.727   7.995
 3914SOL    HW213640   5.021   3.792   8.125
 3915SOL     OW13641   1.137   9.327  14.852
 3915SOL    HW113642   1.146   9.369  14.767
 3915SOL    HW213643   1.049   9.287  14.849
 3916SOL     OW13644   0.861   2.084  10.087
 3916SOL    HW113645   0.816   2.051  10.009
 3916SOL    HW213646   0.878   2.176  10.068
 3917SOL     OW13647  10.887   7.326   0.777
 3917SOL    HW113648  10.981   7.341   0.767
 3917SOL    HW213649  10.881   7.239   0.818
 3918SOL     OW13650  10.982   3.234   2.176
 3918SOL    HW113651  10.975   3.226   2.081
 3918SOL    HW213652  10.921   3.168   2.209
 3919SOL     OW13653   5.160   0.010   9.795
 3919SOL    HW113654   5.241  14.837   9.820
 3919SOL    HW213655   5.139  14.847   9.709
 3920SOL     OW13656   3.033   3.880   8.078
 3920SOL    HW113657   2.963   3.876   8.143
 3920SOL    HW213658   3.038   3.791   8.043
 3921SOL     OW13659  13.147   7.908  11.054
 3921SOL    HW113660  13.223   7.881  11.002
 3921SOL    HW213661  13.161   7.868  11.140
 3922SOL     OW13662  13.651   4.431  13.190
 3922SOL    HW113663  13.744   4.410  13.178
 3922SOL    HW213664  13.650   4.524  13.210
 3923SOL     OW13665   9.384   0.949   6.876
 3923SOL    HW113666   9.319   0.929   6.808
 3923SOL    HW213667   9.468   0.924   6.838
 3924SOL     OW13668   1.628   7.295  11.153
 3924SOL    HW113669   1.604   7.253  11.235
 3924SOL    HW213670   1.691   7.363  11.178
 3925SOL     OW13671   1.351  10.977  10.669
 3925SOL    HW113672   1.356  10.890  10.629
 3925SOL    HW213673   1.435  11.017  10.649
 3926SOL     OW13674  10.665   9.438  10.788
 3926SOL    HW113675  10.580   9.398  10.807
 3926SOL    HW213676  10.653   9.530  10.810
 3927SOL     OW13677  11.423   7.202   3.770
 3927SOL    HW113678  11.516   7.224   3.775
 3927SOL    HW213679  11.399   7.222   3.680
 3928SOL     OW13680   3.131   0.869   2.224
 3928SOL    HW113681   3.059   0.916   2.183
 3928SOL    HW213682   3.147   0.916   2.306
 3929SOL     OW13683  12.791   4.285   9.974
 3929SOL    HW113684  12.857   4.352   9.956
 3929SOL    HW213685  12.837   4.220  10.027
 3930SOL     OW13686  14.579   4.276  12.989
 3930SOL    HW113687  14.486   4.277  12.965
 3930SOL    HW213688  14.622   4.229  12.918
 3931SOL     OW13689  10.906  12.132   3.577
 3931SOL    HW113690  10.909  12.044   3.614
 3931SOL    HW213691  10.993  12.168   3.595
 3932SOL     OW13692   2.361   2.196   3.621
 3932SOL    HW113693   2.401   2.281   3.601
 3932SOL    HW213694   2.269   2.216   3.638
 3933SOL     OW13695  12.437   7.850   8.934
 3933SOL    HW113696  12.493   7.785   8.976
 3933SOL    HW213697  12.458   7.843   8.841
 3934SOL     OW13698   4.702   8.569   7.211
 3934SOL    HW113699   4.766   8.637   7.186
 3934SOL    HW213700   4.654   8.607   7.284
 3935SOL     OW13701   8.434   9.211  12.198
 3935SOL    HW113702   8.484   9.132  12.218
 3935SOL    HW213703   8.355   9.180  12.155
 3936SOL     OW13704  14.220  14.426   9.459
 3936SOL    HW113705  14.161  14.369   9.410
 3936SOL    HW213706  14.164  14.494   9.494
 3937SOL     OW13707   8.107  10.530   0.332
 3937SOL    HW113708   8.167  10.467   0.292
 3937SOL    HW213709   8.133  10.534   0.424
 3938SOL     OW13710   4.958  14.214   8.873
 3938SOL    HW113711   4.919  14.288   8.919
 3938SOL    HW213712   4.885  14.155   8.857
 3939SOL     OW13713   5.373  13.922  12.481
 3939SOL    HW113714   5.385  13.882  12.395
 3939SOL    HW213715   5.288  13.889  12.511
 3940SOL     OW13716  11.429   3.166   4.473
 3940SOL    HW113717  11.399   3.234   4.533
 3940SOL    HW213718  11.361   3.099   4.475
 3941SOL     OW13719   9.652  10.260  14.730
 3941SOL    HW113720   9.621  10.342  14.692
 3941SOL    HW213721   9.624  10.193  14.668
 3942SOL     OW13722  11.872  14.491  11.021
 3942SOL    HW113723  11.886  14.550  11.095
 3942SOL    HW213724  11.934  14.419  11.035
 3943SOL     OW13725   7.100  12.611   7.281
 3943SOL    HW113726   7.072  12.644   7.367
 3943SOL    HW213727   7.021  12.572   7.243
 3944SOL     OW13728  11.988  13.676  13.667
 3944SOL    HW113729  11.977  13.761  13.623
 3944SOL    HW213730  11.956  13.691  13.756
 3945SOL     OW13731   7.356   9.741   7.103
 3945SOL    HW113732   7.388   9.803   7.037
 3945SOL    HW213733   7.379   9.655   7.068
 3946SOL     OW13734   5.604  13.815  13.180
 3946SOL    HW113735   5.695  13.795  13.158
 3946SOL    HW213736   5.604  13.822  13.276
 3947SOL     OW13737   6.376   0.737   2.794
 3947SOL    HW113738   6.448   0.736   2.857
 3947SOL    HW213739   6.394   0.663   2.736
 3948SOL     OW13740   8.470  13.769   0.202
 3948SOL    HW113741   8.495  13.833   0.269
 3948SOL    HW213742   8.434  13.696   0.252
 3949SOL     OW13743   0.673  12.765   0.784
 3949SOL    HW113744   0.619  12.844   0.791
 3949SOL    HW213745   0.682  12.751   0.690
 3950SOL     OW13746   9.898   6.128   8.588
 3950SOL    HW113747   9.990   6.155   8.591
 3950SOL    HW213748   9.867   6.140   8.678
 3951SOL     OW13749   1.419  12.875  14.625
 3951SOL    HW113750   1.377  12.900  14.707
 3951SOL    HW213751   1.429  12.958  14.578
 3952SOL     OW13752   1.025   7.000   9.508
 3952SOL    HW113753   1.078   7.063   9.556
 3952SOL    HW213754   1.011   6.928   9.570
 3953SOL     OW13755  13.596   2.912  13.229
 3953SOL    HW113756  13.677   2.940  13.271
 3953SOL    HW213757  13.581   2.976  13.160
 3954SOL     OW13758   7.308   1.273   1.473
 3954SOL    HW113759   7.226   1.224   1.480
 3954SOL    HW213760   7.345   1.272   1.561
 3955SOL     OW13761   9.620   4.309  10.630
 3955SOL    HW113762   9.603   4.392  10.586
 3955SOL    HW213763   9.534   4.266  10.634
 3956SOL     OW13764  11.943   6.233  11.214
 3956SOL    HW113765  11.972   6.182  11.289
 3956SOL    HW213766  12.022   6.275  11.180
 3957SOL     OW13767   9.970  12.076  11.242
 3957SOL    HW113768   9.878  12.075  11.269
 3957SOL    HW213769  10.008  11.998  11.283
 3958SOL     OW13770  10.663   4.494   7.993
 3958SOL    HW113771  10.616   4.566   7.952
 3958SOL    HW213772  10.604   4.460   8.059
 3959SOL     OW13773   1.630  12.964  14.189
 3959SOL    HW113774   1.682  12.959  14.109
 3959SOL    HW213775   1.605  13.056  14.196
 3960SOL     OW13776  10.667   0.343   7.461
 3960SOL    HW113777  10.705   0.423   7.423
 3960SOL    HW213778  10.575   0.345   7.433
 3961SOL     OW13779  11.960   5.252  12.545
 3961SOL    HW113780  11.873   5.261  12.507
 3961SOL    HW213781  12.003   5.336  12.528
 3962SOL     OW13782   6.437   0.693   4.250
 3962SOL    HW113783   6.492   0.769   4.233
 3962SOL    HW213784   6.492   0.634   4.302
 3963SOL     OW13785  12.988   7.082  10.176
 3963SOL    HW113786  13.055   7.042  10.120
 3963SOL    HW213787  13.018   7.064  10.266
 3964SOL     OW13788   5.993   2.630   4.129
 3964SOL    HW113789   5.954   2.571   4.064
 3964SOL    HW213790   6.086   2.606   4.130
 3965SOL     OW13791  14.107   0.598  13.671
 3965SOL    HW113792  14.122   0.674  13.727
 3965SOL    HW213793  14.012   0.583  13.675
 3966SOL     OW13794   8.926   9.100  11.799
 3966SOL    HW113795   8.895   9.179  11.755
 3966SOL    HW213796   9.013   9.123  11.832
 3967SOL     OW13797   6.977   2.391   6.014
 3967SOL    HW113798   6.968   2.301   5.983
 3967SOL    HW213799   6.937   2.445   5.945
 3968SOL     OW13800   3.737   4.513   1.251
 3968SOL    HW113801   3.661   4.530   1.195
 3968SOL    HW213802   3.750   4.596   1.298
 3969SOL     OW13803   9.514  12.302   2.491
 3969SOL    HW113804   9.507  12.397   2.482
 3969SOL    HW213805   9.507  12.286   2.586
 3970SOL     OW13806  11.489   5.579  13.679
 3970SOL    HW113807  11.430   5.588  13.753
 3970SOL    HW213808  11.442   5.524  13.616
 3971SOL     OW13809   8.316   2.805   0.595
 3971SOL    HW113810   8.296   2.723   0.641
 3971SOL    HW213811   8.372   2.778   0.522
 3972SOL     OW13812   7.361  10.562   9.041
 3972SOL    HW113813   7.341  10.546   9.134
 3972SOL    HW213814   7.414  10.486   9.015
 3973SOL     OW13815   1.664  13.117   2.274
 3973SOL    HW113816   1.663  13.193   2.217
 3973SOL    HW213817   1.687  13.044   2.216
 3974SOL     OW13818   0.636   1.124  12.815
 3974SOL    HW113819   0.731   1.136  12.821
 3974SOL    HW213820   0.624   1.059  12.747
 3975SOL     OW13821   5.019   6.238  11.978
 3975SOL    HW113822   4.928   6.249  11.950
 3975SOL    HW213823   5.055   6.327  11.978
 3976SOL     OW13824   7.072   7.983   7.957
 3976SOL    HW113825   7.113   7.993   8.043
 3976SOL    HW213826   7.024   7.900   7.963
 3977SOL     OW13827   5.577   1.942   6.530
 3977SOL    HW113828   5.532   1.859   6.544
 3977SOL    HW213829   5.616   1.963   6.615
 3978SOL     OW13830   5.931   9.993  13.687
 3978SOL    HW113831   5.883   9.930  13.740
 3978SOL    HW213832   5.980   9.941  13.624
 3979SOL     OW13833   7.668   0.906   8.481
 3979SOL    HW113834   7.679   0.997   8.451
 3979SOL    HW213835   7.745   0.889   8.535
 3980SOL     OW13836   6.179   5.125   1.098
 3980SOL    HW113837   6.188   5.100   1.189
 3980SOL    HW213838   6.095   5.087   1.070
 3981SOL     OW13839  10.772   0.046  13.785
 3981SOL    HW113840  10.840  14.855  13.807
 3981SOL    HW213841  10.690  14.872  13.797
 3982SOL     OW13842  13.442  13.216  13.930
 3982SOL    HW113843  13.464  13.191  14.020
 3982SOL    HW213844  13.350  13.241  13.935
 3983SOL     OW13845  11.648   4.658   2.396
 3983SOL    HW113846  11.658   4.684   2.304
 3983SOL    HW213847  11.736   4.630   2.423
 3984SOL     OW13848   6.661  12.396   5.682
 3984SOL    HW113849   6.578  12.366   5.717
 3984SOL    HW213850   6.724  12.385   5.753
 3985SOL     OW13851   1.257  13.098   6.136
 3985SOL    HW113852   1.196  13.028   6.114
 3985SOL    HW213853   1.323  13.056   6.192
 3986SOL     OW13854  11.428  12.380   6.101
 3986SOL    HW113855  11.469  12.301   6.137
 3986SOL    HW213856  11.409  12.434   6.177
 3987SOL     OW13857  10.538  11.452  11.118
 3987SOL    HW113858  10.506  11.489  11.036
 3987SOL    HW213859  10.547  11.527  11.176
 3988SOL     OW13860   7.342   3.613   2.406
 3988SOL    HW113861   7.379   3.576   2.486
 3988SOL    HW213862   7.281   3.547   2.374
 3989SOL     OW13863  13.758   7.387   3.264
 3989SOL    HW113864  13.712   7.336   3.330
 3989SOL    HW213865  13.759   7.476   3.298
 3990SOL     OW13866   1.923  14.325  12.405
 3990SOL    HW113867   1.857  14.258  12.423
 3990SOL    HW213868   1.892  14.368  12.325
 3991SOL     OW13869   1.307  12.686   4.346
 3991SOL    HW113870   1.266  12.601   4.358
 3991SOL    HW213871   1.257  12.745   4.403
 3992SOL     OW13872   7.284   8.376  11.310
 3992SOL    HW113873   7.190   8.376  11.291
 3992SOL    HW213874   7.302   8.288  11.343
 3993SOL     OW13875   0.953   8.281   2.377
 3993SOL    HW113876   0.953   8.359   2.322
 3993SOL    HW213877   0.948   8.208   2.315
 3994SOL     OW13878   7.057   1.122  14.021
 3994SOL    HW113879   7.020   1.157  14.102
 3994SOL    HW213880   7.150   1.111  14.040
 3995SOL     OW13881  11.269   0.393  11.646
 3995SOL    HW113882  11.261   0.356  11.734
 3995SOL    HW213883  11.333   0.338  11.602
 3996SOL     OW13884  14.775  11.328   5.539
 3996SOL    HW113885  14.777  11.316   5.444
 3996SOL    HW213886  14.712  11.399   5.553
 3997SOL     OW13887   8.612  10.859   6.269
 3997SOL    HW113888   8.553  10.934   6.279
 3997SOL    HW213889   8.581  10.795   6.333
 3998SOL     OW13890   7.257   0.586  10.025
 3998SOL    HW113891   7.307   0.505  10.034
 3998SOL    HW213892   7.316   0.646   9.979
 3999SOL     OW13893   0.913   4.899   5.128
 3999SOL    HW113894   0.896   4.920   5.036
 3999SOL    HW213895   0.835   4.851   5.157
 4000SOL     OW13896   0.493  13.349  10.183
 4000SOL    HW113897   0.492  13.254  10.175
 4000SOL    HW213898   0.457  13.366  10.270
 4001SOL     OW13899   6.880   7.864   6.023
 4001SOL    HW113900   6.900   7.805   5.950
 4001SOL    HW213901   6.960   7.916   6.034
 4002SOL     OW13902  14.481   5.907   8.415
 4002SOL    HW113903  14.473   6.000   8.435
 4002SOL    HW213904  14.574   5.894   8.397
 4003SOL     OW13905  14.640  14.626   0.630
 4003SOL    HW113906  14.569  14.653   0.571
 4003SOL    HW213907  14.658  14.704   0.683
 4004SOL     OW13908  10.885  12.599   5.062
 4004SOL    HW113909  10.927  12.597   5.148
 4004SOL    HW213910  10.792  12.611   5.082
 4005SOL     OW13911   2.341   1.015   4.475
 4005SOL    HW113912   2.251   1.034   4.503
 4005SOL    HW213913   2.390   1.004   4.557
 4006SOL     OW13914   8.725   6.830  12.937
 4006SOL    HW113915   8.701   6.806  13.027
 4006SOL    HW213916   8.670   6.906  12.917
 4007SOL     OW13917  11.306   1.960  14.644
 4007SOL    HW113918  11.250   1.887  14.668
 4007SOL    HW213919  11.368   1.924  14.580
 4008SOL     OW13920   4.402   6.376  10.160
 4008SOL    HW113921   4.378   6.316  10.089
 4008SOL    HW213922   4.410   6.461  10.117
 4009SOL     OW13923  10.664  11.204  13.563
 4009SOL    HW113924  10.572  11.193  13.586
 4009SOL    HW213925  10.691  11.284  13.608
 4010SOL     OW13926   6.062   4.757   2.051
 4010SOL    HW113927   6.120   4.764   1.975
 4010SOL    HW213928   6.020   4.672   2.041
 4011SOL     OW13929   1.950  14.144   6.675
 4011SOL    HW113930   1.987  14.194   6.602
 4011SOL    HW213931   2.025  14.100   6.714
 4012SOL     OW13932   8.867  12.775   5.569
 4012SOL    HW113933   8.942  12.745   5.621
 4012SOL    HW213934   8.852  12.705   5.506
 4013SOL     OW13935   6.953  10.066   3.545
 4013SOL    HW113936   7.046  10.052   3.565
 4013SOL    HW213937   6.947  10.160   3.525
 4014SOL     OW13938  11.538   3.511   0.308
 4014SOL    HW113939  11.515   3.583   0.249
 4014SOL    HW213940  11.634   3.509   0.307
 4015SOL     OW13941   4.460   5.058   3.331
 4015SOL    HW113942   4.398   5.114   3.377
 4015SOL    HW213943   4.496   5.113   3.261
 4016SOL     OW13944   5.240   3.034   4.057
 4016SOL    HW113945   5.295   2.962   4.086
 4016SOL    HW213946   5.248   3.101   4.126
 4017SOL     OW13947   7.649   5.792   9.896
 4017SOL    HW113948   7.741   5.814   9.883
 4017SOL    HW213949   7.614   5.865   9.947
 4018SOL     OW13950   9.458   0.678  13.239
 4018SOL    HW113951   9.458   0.720  13.325
 4018SOL    HW213952   9.549   0.650  13.226
 4019SOL     OW13953   8.645  10.556   2.315
 4019SOL    HW113954   8.557  10.550   2.276
 4019SOL    HW213955   8.668  10.466   2.336
 4020SOL     OW13956  10.258   3.041   5.237
 4020SOL    HW113957  10.222   2.962   5.196
 4020SOL    HW213958  10.352   3.035   5.222
 4021SOL     OW13959   4.290   9.234   0.891
 4021SOL    HW113960   4.269   9.322   0.861
 4021SOL    HW213961   4.225   9.216   0.959
 4022SOL     OW13962   4.482   8.809   9.828
 4022SOL    HW113963   4.545   8.739   9.844
 4022SOL    HW213964   4.406   8.765   9.791
 4023SOL     OW13965   4.501  11.828   6.302
 4023SOL    HW113966   4.498  11.778   6.384
 4023SOL    HW213967   4.532  11.915   6.328
 4024SOL     OW13968   9.918   2.205  11.648
 4024SOL    HW113969   9.983   2.147  11.610
 4024SOL    HW213970   9.962   2.245  11.723
 4025SOL     OW13971   3.070   7.237   2.752
 4025SOL    HW113972   2.988   7.287   2.755
 4025SOL    HW213973   3.071   7.198   2.664
 4026SOL     OW13974   7.891   1.983  10.984
 4026SOL    HW113975   7.879   1.889  10.968
 4026SOL    HW213976   7.920   2.017  10.899
 4027SOL     OW13977   0.511  13.977  12.452
 4027SOL    HW113978   0.438  13.981  12.391
 4027SOL    HW213979   0.472  14.000  12.537
 4028SOL     OW13980   1.622   0.698   6.810
 4028SOL    HW113981   1.633   0.620   6.864
 4028SOL    HW213982   1.568   0.669   6.737
 4029SOL     OW13983   3.974   1.645  10.343
 4029SOL    HW113984   3.906   1.679  10.402
 4029SOL    HW213985   3.957   1.689  10.259
 4030SOL     OW13986  12.168   3.649  14.472
 4030SOL    HW113987  12.093   3.651  14.531
 4030SOL    HW213988  12.145   3.709  14.401
 4031SOL     OW13989   5.890   6.104   4.879
 4031SOL    HW113990   5.903   6.025   4.931
 4031SOL    HW213991   5.966   6.159   4.899
 4032SOL     OW13992   6.063   5.851   1.242
 4032SOL    HW113993   6.094   5.769   1.205
 4032SOL    HW213994   6.130   5.874   1.307
 4033SOL     OW13995   7.446   2.086   6.889
 4033SOL    HW113996   7.369   2.091   6.946
 4033SOL    HW213997   7.461   2.177   6.862
 4034SOL     OW13998   4.349   0.186   0.528
 4034SOL    HW113999   4.359   0.129   0.605
 4034SOL    HW214000   4.430   0.237   0.526
 4035SOL     OW14001  13.562   3.320   6.529
 4035SOL    HW114002  13.638   3.334   6.472
 4035SOL    HW214003  13.596   3.270   6.603
 4036SOL     OW14004  10.549   3.010  13.302
 4036SOL    HW114005  10.590   3.043  13.382
 4036SOL    HW214006  10.622   2.980  13.248
 4037SOL     OW14007  12.656   5.588   8.029
 4037SOL    HW114008  12.654   5.615   7.938
 4037SOL    HW214009  12.719   5.648   8.070
 4038SOL     OW14010   8.126   5.857   5.553
 4038SOL    HW114011   8.152   5.833   5.464
 4038SOL    HW214012   8.206   5.889   5.594
 4039SOL     OW14013   6.214   4.427   0.158
 4039SOL    HW114014   6.248   4.402   0.244
 4039SOL    HW214015   6.145   4.491   0.178
 4040SOL     OW14016  13.528  14.122   8.202
 4040SOL    HW114017  13.534  14.027   8.194
 4040SOL    HW214018  13.489  14.150   8.119
 4041SOL     OW14019  11.615   6.278  10.672
 4041SOL    HW114020  11.655   6.192  10.674
 4041SOL    HW214021  11.571   6.283  10.588
 4042SOL     OW14022   3.150   1.467   7.339
 4042SOL    HW114023   3.108   1.465   7.253
 4042SOL    HW214024   3.171   1.376   7.358
 4043SOL     OW14025  12.765   4.708   1.171
 4043SOL    HW114026  12.775   4.802   1.158
 4043SOL    HW214027  12.839   4.669   1.125
 4044SOL     OW14028  10.324   6.274   3.611
 4044SOL    HW114029  10.403   6.223   3.628
 4044SOL    HW214030  10.278   6.226   3.542
 4045SOL     OW14031  10.896   2.441   8.017
 4045SOL    HW114032  10.953   2.408   8.087
 4045SOL    HW214033  10.899   2.372   7.950
 4046SOL     OW14034   3.531   5.574  10.128
 4046SOL    HW114035   3.613   5.561  10.176
 4046SOL    HW214036   3.541   5.659  10.086
 4047SOL     OW14037   9.104   0.235   7.926
 4047SOL    HW114038   9.033   0.203   7.870
 4047SOL    HW214039   9.163   0.159   7.934
 4048SOL     OW14040  14.593  11.893   1.289
 4048SOL    HW114041  14.530  11.947   1.241
 4048SOL    HW214042  14.546  11.868   1.369
 4049SOL     OW14043   3.842   1.477   5.825
 4049SOL    HW114044   3.850   1.432   5.741
 4049SOL    HW214045   3.909   1.437   5.880
 4050SOL     OW14046   7.908   0.649   2.056
 4050SOL    HW114047   7.843   0.580   2.042
 4050SOL    HW214048   7.990   0.602   2.068
 4051SOL     OW14049   8.448   2.455   6.927
 4051SOL    HW114050   8.460   2.497   6.842
 4051SOL    HW214051   8.385   2.384   6.911
 4052SOL     OW14052   6.059  12.645  14.449
 4052SOL    HW114053   6.134  12.693  14.412
 4052SOL    HW214054   5.997  12.639  14.377
 4053SOL     OW14055   7.655   4.554   6.856
 4053SOL    HW114056   7.586   4.499   6.819
 4053SOL    HW214057   7.732   4.535   6.803
 4054SOL     OW14058  12.042  13.235  12.994
 4054SOL    HW114059  11.967  13.273  12.947
 4054SOL    HW214060  12.098  13.199  12.925
 4055SOL     OW14061   7.372   7.732   3.216
 4055SOL    HW114062   7.281   7.736   3.187
 4055SOL    HW214063   7.366   7.715   3.310
 4056SOL     OW14064   5.767   4.704   2.099
 4056SOL    HW114065   5.830   4.650   2.052
 4056SOL    HW214066   5.709   4.739   2.031
 4057SOL     OW14067   0.493   1.048   7.402
 4057SOL    HW114068   0.428   1.104   7.359
 4057SOL    HW214069   0.475   1.057   7.495
 4058SOL     OW14070   7.403  10.449  10.810
 4058SOL    HW114071   7.414  10.354  10.802
 4058SOL    HW214072   7.482  10.486  10.771
 4059SOL     OW14073   1.687  10.527  13.054
 4059SOL    HW114074   1.666  10.437  13.080
 4059SOL    HW214075   1.781  10.526  13.040
 4060SOL     OW14076   6.892   8.078  13.082
 4060SOL    HW114077   6.811   8.029  13.066
 4060SOL    HW214078   6.942   8.023  13.141
 4061SOL     OW14079   0.663  14.662   0.156
 4061SOL    HW114080   0.623  14.727   0.213
 4061SOL    HW214081   0.590  14.607   0.127
 4062SOL     OW14082   9.240  10.712   9.768
 4062SOL    HW114083   9.252  10.643   9.702
 4062SOL    HW214084   9.302  10.780   9.743
 4063SOL     OW14085   3.468  13.639   1.497
 4063SOL    HW114086   3.480  13.561   1.442
 4063SOL    HW214087   3.515  13.709   1.451
 4064SOL     OW14088  11.677   7.430   9.633
 4064SOL    HW114089  11.703   7.522   9.640
 4064SOL    HW214090  11.755   7.385   9.601
 4065SOL     OW14091   5.744   4.083   5.511
 4065SOL    HW114092   5.773   4.161   5.558
 4065SOL    HW214093   5.820   4.024   5.513
 4066SOL     OW14094  14.644   4.268   8.388
 4066SOL    HW114095  14.566   4.241   8.436
 4066SOL    HW214096  14.710   4.203   8.410
 4067SOL     OW14097   2.173   1.582   2.953
 4067SOL    HW114098   2.178   1.486   2.957
 4067SOL    HW214099   2.094   1.604   3.002
 4068SOL     OW14100   8.984  14.558   9.301
 4068SOL    HW114101   8.953  14.640   9.338
 4068SOL    HW214102   9.009  14.580   9.211
 4069SOL     OW14103  14.195   6.992  10.084
 4069SOL    HW114104  14.249   7.058  10.128
 4069SOL    HW214105  14.113   7.037  10.065
 4070SOL     OW14106  12.501   8.308  10.817
 4070SOL    HW114107  12.566   8.376  10.836
 4070SOL    HW214108  12.451   8.300  10.898
 4071SOL     OW14109   9.059  12.787  11.812
 4071SOL    HW114110   8.975  12.812  11.852
 4071SOL    HW214111   9.037  12.711  11.757
 4072SOL     OW14112  12.137  14.369   5.861
 4072SOL    HW114113  12.138  14.459   5.829
 4072SOL    HW214114  12.144  14.377   5.956
 4073SOL     OW14115   6.254   3.003   6.414
 4073SOL    HW114116   6.177   2.955   6.443
 4073SOL    HW214117   6.325   2.969   6.468
 4074SOL     OW14118  13.494   0.459   9.319
 4074SOL    HW114119  13.534   0.503   9.244
 4074SOL    HW214120  13.517   0.513   9.394
 4075SOL     OW14121   7.640  12.526   0.278
 4075SOL    HW114122   7.594  12.453   0.320
 4075SOL    HW214123   7.616  12.603   0.331
 4076SOL     OW14124  12.186  12.085  14.394
 4076SOL    HW114125  12.245  12.106  14.321
 4076SOL    HW214126  12.193  11.990  14.405
 4077SOL     OW14127   1.676   9.897  13.093
 4077SOL    HW114128   1.645   9.986  13.111
 4077SOL    HW214129   1.771   9.902  13.104
 4078SOL     OW14130  10.428  12.348   5.720
 4078SOL    HW114131  10.418  12.253   5.716
 4078SOL    HW214132  10.465  12.364   5.808
 4079SOL     OW14133  10.860   9.067   9.135
 4079SOL    HW114134  10.804   9.036   9.063
 4079SOL    HW214135  10.806   9.056   9.213
 4080SOL     OW14136   7.589  12.809  12.673
 4080SOL    HW114137   7.528  12.738  12.653
 4080SOL    HW214138   7.635  12.779  12.752
 4081SOL     OW14139  10.487   8.406   9.873
 4081SOL    HW114140  10.470   8.420   9.779
 4081SOL    HW214141  10.489   8.495   9.910
 4082SOL     OW14142   4.081   1.282  11.737
 4082SOL    HW114143   4.121   1.196  11.741
 4082SOL    HW214144   4.002   1.270  11.684
 4083SOL     OW14145   8.271   5.068   9.679
 4083SOL    HW114146   8.348   5.113   9.713
 4083SOL    HW214147   8.283   4.977   9.705
 4084SOL     OW14148   2.627   2.288  13.139
 4084SOL    HW114149   2.674   2.335  13.070
 4084SOL    HW214150   2.537   2.282  13.107
 4085SOL     OW14151   6.635  12.904   1.335
 4085SOL    HW114152   6.621  12.858   1.417
 4085SOL    HW214153   6.547  12.933   1.308
 4086SOL     OW14154   2.063   2.267  12.417
 4086SOL    HW114155   1.990   2.328  12.426
 4086SOL    HW214156   2.096   2.282  12.328
 4087SOL     OW14157   0.019   4.380  12.397
 4087SOL    HW114158  14.802   4.367  12.427
 4087SOL    HW214159   0.011   4.437  12.321
 4088SOL     OW14160  14.368   5.404  13.687
 4088SOL    HW114161  14.292   5.347  13.675
 4088SOL    HW214162  14.428   5.381  13.616
 4089SOL     OW14163   9.853   4.443  11.721
 4089SOL    HW114164   9.884   4.492  11.797
 4089SOL    HW214165   9.808   4.367  11.758
 4090SOL     OW14166  14.820  10.585  12.569
 4090SOL    HW114167  14.801  10.606  12.661
 4090SOL    HW214168  14.742  10.538  12.539
 4091SOL     OW14169  10.529   9.619   3.203
 4091SOL    HW114170  10.583   9.623   3.283
 4091SOL    HW214171  10.572   9.553   3.149
 4092SOL     OW14172   8.141   3.116   8.446
 4092SOL    HW114173   8.191   3.093   8.524
 4092SOL    HW214174   8.070   3.052   8.443
 4093SOL     OW14175   5.842  10.828  13.982
 4093SOL    HW114176   5.785  10.894  14.021
 4093SOL    HW214177   5.927  10.871  13.976
 4094SOL     OW14178   1.322  13.687   3.451
 4094SOL    HW114179   1.234  13.654   3.471
 4094SOL    HW214180   1.321  13.702   3.356
 4095SOL     OW14181   5.962   5.166   6.270
 4095SOL    HW114182   6.040   5.214   6.298
 4095SOL    HW214183   5.995   5.082   6.238
 4096SOL     OW14184   7.757   3.714   7.619
 4096SOL    HW114185   7.741   3.634   7.570
 4096SOL    HW214186   7.699   3.779   7.579
 4097SOL     OW14187   7.878   0.611   5.560
 4097SOL    HW114188   7.897   0.518   5.569
 4097SOL    HW214189   7.858   0.623   5.467
 4098SOL     OW14190   1.120   5.931   6.761
 4098SOL    HW114191   1.196   5.933   6.702
 4098SOL    HW214192   1.123   6.015   6.807
 4099SOL     OW14193  14.693  14.623  12.790
 4099SOL    HW114194  14.659  14.612  12.702
 4099SOL    HW214195  14.781  14.658  12.778
 4100SOL     OW14196   1.431  14.606   3.387
 4100SOL    HW114197   1.382  14.542   3.440
 4100SOL    HW214198   1.443  14.681   3.445
 4101SOL     OW14199   1.898  13.323  11.908
 4101SOL    HW114200   1.946  13.378  11.970
 4101SOL    HW214201   1.903  13.371  11.825
 4102SOL     OW14202  14.104   2.156   2.552
 4102SOL    HW114203  14.198   2.142   2.546
 4102SOL    HW214204  14.071   2.135   2.464
 4103SOL     OW14205   6.261   8.195   9.909
 4103SOL    HW114206   6.241   8.109   9.945
 4103SOL    HW214207   6.189   8.214   9.850
 4104SOL     OW14208  10.382  14.046   2.727
 4104SOL    HW114209  10.301  14.095   2.744
 4104SOL    HW214210  10.358  13.955   2.744
 4105SOL     OW14211  13.609  10.890   7.634
 4105SOL    HW114212  13.550  10.949   7.587
 4105SOL    HW214213  13.696  10.926   7.620
 4106SOL     OW14214  10.130   1.751   0.734
 4106SOL    HW114215  10.117   1.816   0.664
 4106SOL    HW214216  10.221   1.723   0.725
 4107SOL     OW14217  10.598   6.708   5.668
 4107SOL    HW114218  10.563   6.769   5.604
 4107SOL    HW214219  10.616   6.628   5.618
 4108SOL     OW14220   9.759   2.902   6.622
 4108SOL    HW114221   9.839   2.924   6.670
 4108SOL    HW214222   9.784   2.906   6.530
 4109SOL     OW14223  13.867   2.720   5.447
 4109SOL    HW114224  13.892   2.747   5.358
 4109SOL    HW214225  13.859   2.625   5.442
 4110SOL     OW14226  13.289   8.701   0.898
 4110SOL    HW114227  13.373   8.717   0.856
 4110SOL    HW214228  13.227   8.693   0.826
 4111SOL     OW14229   6.407   1.365   6.899
 4111SOL    HW114230   6.384   1.288   6.848
 4111SOL    HW214231   6.455   1.331   6.974
 4112SOL     OW14232   6.141   5.916   3.618
 4112SOL    HW114233   6.160   5.844   3.557
 4112SOL    HW214234   6.075   5.880   3.677
 4113SOL     OW14235  11.844   5.395   2.251
 4113SOL    HW114236  11.902   5.387   2.175
 4113SOL    HW214237  11.776   5.329   2.237
 4114SOL     OW14238   4.577   5.615   4.246
 4114SOL    HW114239   4.656   5.667   4.258
 4114SOL    HW214240   4.603   5.526   4.271
 4115SOL     OW14241  10.835   7.812   8.313
 4115SOL    HW114242  10.849   7.766   8.396
 4115SOL    HW214243  10.844   7.905   8.336
 4116SOL     OW14244  10.730  13.766  14.726
 4116SOL    HW114245  10.681  13.684  14.718
 4116SOL    HW214246  10.756  13.787  14.637
 4117SOL     OW14247   3.872  11.813   6.501
 4117SOL    HW114248   3.894  11.811   6.408
 4117SOL    HW214249   3.810  11.885   6.510
 4118SOL     OW14250   0.499   6.191   5.290
 4118SOL    HW114251   0.562   6.119   5.291
 4118SOL    HW214252   0.463   6.193   5.378
 4119SOL     OW14253   6.784  13.363  10.505
 4119SOL    HW114254   6.798  13.411  10.587
 4119SOL    HW214255   6.764  13.432  10.441
 4120SOL     OW14256  12.057   3.703   4.185
 4120SOL    HW114257  12.133   3.727   4.238
 4120SOL    HW214258  12.093   3.655   4.111
 4121SOL     OW14259   4.950   3.181   9.543
 4121SOL    HW114260   4.893   3.108   9.565
 4121SOL    HW214261   5.034   3.161   9.585
 4122SOL     OW14262   5.805   6.709   2.570
 4122SOL    HW114263   5.721   6.668   2.590
 4122SOL    HW214264   5.785   6.777   2.506
 4123SOL     OW14265  10.897   6.951   7.084
 4123SOL    HW114266  10.947   6.872   7.066
 4123SOL    HW214267  10.828   6.952   7.018
 4124SOL     OW14268  11.895   6.691  11.492
 4124SOL    HW114269  11.868   6.762  11.433
 4124SOL    HW214270  11.887   6.612  11.438
 4125SOL     OW14271   0.886  10.542   9.045
 4125SOL    HW114272   0.804  10.499   9.020
 4125SOL    HW214273   0.917  10.492   9.120
 4126SOL     OW14274  10.895  14.371  14.295
 4126SOL    HW114275  10.815  14.413  14.262
 4126SOL    HW214276  10.864  14.314  14.365
 4127SOL     OW14277  11.782  13.940   1.217
 4127SOL    HW114278  11.733  13.876   1.166
 4127SOL    HW214279  11.726  14.018   1.218
 4128SOL     OW14280   9.156   8.315  14.855
 4128SOL    HW114281   9.209   8.349  14.783
 4128SOL    HW214282   9.117   8.393   0.023
 4129SOL     OW14283   7.604   0.674  11.579
 4129SOL    HW114284   7.609   0.694  11.673
 4129SOL    HW214285   7.539   0.605  11.572
 4130SOL     OW14286   4.991  11.633   8.220
 4130SOL    HW114287   5.033  11.696   8.278
 4130SOL    HW214288   5.020  11.658   8.132
 4131SOL     OW14289   6.506   1.393  11.589
 4131SOL    HW114290   6.591   1.364  11.556
 4131SOL    HW214291   6.449   1.317  11.580
 4132SOL     OW14292   4.529   7.875   2.753
 4132SOL    HW114293   4.439   7.843   2.742
 4132SOL    HW214294   4.542   7.878   2.847
 4133SOL     OW14295  12.280   1.175   5.541
 4133SOL    HW114296  12.309   1.266   5.532
 4133SOL    HW214297  12.215   1.178   5.612
 4134SOL     OW14298  13.958   7.658   8.500
 4134SOL    HW114299  13.876   7.618   8.529
 4134SOL    HW214300  14.017   7.651   8.574
 4135SOL     OW14301   5.502  11.012   2.967
 4135SOL    HW114302   5.464  10.924   2.968
 4135SOL    HW214303   5.491  11.042   2.877
 4136SOL     OW14304  13.152  14.872   2.209
 4136SOL    HW114305  13.191   0.063   2.149
 4136SOL    HW214306  13.217  14.861   2.279
 4137SOL     OW14307   5.627   5.985   8.848
 4137SOL    HW114308   5.609   6.070   8.807
 4137SOL    HW214309   5.573   5.923   8.800
 4138SOL     OW14310   5.096   1.249   7.383
 4138SOL    HW114311   5.006   1.275   7.405
 4138SOL    HW214312   5.099   1.252   7.287
 4139SOL     OW14313   7.904   6.701   6.335
 4139SOL    HW114314   7.908   6.664   6.423
 4139SOL    HW214315   7.922   6.627   6.277
 4140SOL     OW14316  10.950  14.287   1.626
 4140SOL    HW114317  11.032  14.286   1.674
 4140SOL    HW214318  10.892  14.229   1.676
 4141SOL     OW14319   4.411   6.593   9.956
 4141SOL    HW114320   4.443   6.678   9.925
 4141SOL    HW214321   4.330   6.579   9.907
 4142SOL     OW14322  10.474   3.053  10.508
 4142SOL    HW114323  10.451   3.076  10.598
 4142SOL    HW214324  10.563   3.019  10.514
 4143SOL     OW14325   9.448  10.032   8.163
 4143SOL    HW114326   9.472  10.062   8.075
 4143SOL    HW214327   9.449   9.936   8.156
 4144SOL     OW14328   8.312  14.056   7.453
 4144SOL    HW114329   8.227  14.094   7.431
 4144SOL    HW214330   8.335  14.003   7.377
 4145SOL     OW14331   3.940   5.948   2.038
 4145SOL    HW114332   3.858   5.900   2.024
 4145SOL    HW214333   3.921   6.009   2.109
 4146SOL     OW14334   6.307   7.907   6.546
 4146SOL    HW114335   6.276   7.847   6.613
 4146SOL    HW214336   6.287   7.864   6.463
 4147SOL     OW14337  14.626   1.448  10.631
 4147SOL    HW114338  14.716   1.451  10.664
 4147SOL    HW214339  14.584   1.524  10.670
 4148SOL     OW14340   8.127  13.777   7.475
 4148SOL    HW114341   8.174  13.799   7.394
 4148SOL    HW214342   8.196  13.766   7.540
 4149SOL     OW14343   9.784   1.072   2.358
 4149SOL    HW114344   9.880   1.079   2.363
 4149SOL    HW214345   9.756   1.059   2.448
 4150SOL     OW14346   2.544   7.683   7.852
 4150SOL    HW114347   2.607   7.636   7.907
 4150SOL    HW214348   2.468   7.695   7.907
 4151SOL     OW14349  13.445   4.779   5.786
 4151SOL    HW114350  13.433   4.868   5.819
 4151SOL    HW214351  13.383   4.771   5.713
 4152SOL     OW14352   3.247   0.132   2.135
 4152SOL    HW114353   3.308   0.118   2.063
 4152SOL    HW214354   3.276   0.215   2.175
 4153SOL     OW14355   0.007   5.533   1.248
 4153SOL    HW114356  14.819   5.576   1.309
 4153SOL    HW214357   0.088   5.523   1.297
 4154SOL     OW14358   5.141   3.817   8.251
 4154SOL    HW114359   5.229   3.780   8.241
 4154SOL    HW214360   5.110   3.782   8.334
 4155SOL     OW14361  12.787   5.705  13.730
 4155SOL    HW114362  12.699   5.687  13.697
 4155SOL    HW214363  12.845   5.657  13.671
 4156SOL     OW14364   3.003   5.584  13.914
 4156SOL    HW114365   3.078   5.611  13.860
 4156SOL    HW214366   2.927   5.597  13.857
 4157SOL     OW14367   3.670   5.289   4.544
 4157SOL    HW114368   3.743   5.231   4.523
 4157SOL    HW214369   3.709   5.376   4.552
 4158SOL     OW14370  11.324  11.385   7.992
 4158SOL    HW114371  11.382  11.421   7.924
 4158SOL    HW214372  11.244  11.361   7.945
 4159SOL     OW14373   1.687   1.872  14.842
 4159SOL    HW114374   1.769   1.823  14.829
 4159SOL    HW214375   1.626   1.807   0.005
 4160SOL     OW14376   4.480   1.013  13.182
 4160SOL    HW114377   4.504   0.942  13.122
 4160SOL    HW214378   4.433   1.076  13.127
 4161SOL     OW14379  14.314  10.356  14.570
 4161SOL    HW114380  14.380  10.384  14.633
 4161SOL    HW214381  14.342  10.396  14.487
 4162SOL     OW14382   0.838   0.728   4.464
 4162SOL    HW114383   0.757   0.721   4.412
 4162SOL    HW214384   0.824   0.669   4.538
 4163SOL     OW14385   8.312  14.074   9.243
 4163SOL    HW114386   8.233  14.128   9.243
 4163SOL    HW214387   8.380  14.131   9.208
 4164SOL     OW14388   4.063   8.416   7.320
 4164SOL    HW114389   4.146   8.447   7.357
 4164SOL    HW214390   4.067   8.442   7.228
 4165SOL     OW14391   1.168   3.404   2.326
 4165SOL    HW114392   1.118   3.372   2.250
 4165SOL    HW214393   1.131   3.490   2.344
 4166SOL     OW14394   6.717   9.515   9.666
 4166SOL    HW114395   6.692   9.449   9.731
 4166SOL    HW214396   6.649   9.509   9.599
 4167SOL     OW14397  14.060   6.568   4.246
 4167SOL    HW114398  14.150   6.602   4.245
 4167SOL    HW214399  14.006   6.646   4.253
 4168SOL     OW14400  14.364   1.577  13.083
 4168SOL    HW114401  14.296   1.623  13.033
 4168SOL    HW214402  14.382   1.634  13.157
 4169SOL     OW14403   6.964   1.995   9.545
 4169SOL    HW114404   7.020   2.052   9.598
 4169SOL    HW214405   6.925   2.053   9.480
 4170SOL     OW14406   8.243  10.806   2.749
 4170SOL    HW114407   8.224  10.801   2.843
 4170SOL    HW214408   8.328  10.850   2.744
 4171SOL     OW14409   7.055   0.742  12.205
 4171SOL    HW114410   7.095   0.747  12.292
 4171SOL    HW214411   6.994   0.815  12.203
 4172SOL     OW14412   7.275   7.286  11.737
 4172SOL    HW114413   7.236   7.310  11.821
 4172SOL    HW214414   7.350   7.344  11.728
 4173SOL     OW14415   8.423   7.291  10.726
 4173SOL    HW114416   8.370   7.299  10.806
 4173SOL    HW214417   8.400   7.206  10.690
 4174SOL     OW14418   1.980  11.598  14.328
 4174SOL    HW114419   1.913  11.667  14.322
 4174SOL    HW214420   2.054  11.633  14.277
 4175SOL     OW14421   2.989   5.191   8.736
 4175SOL    HW114422   3.019   5.201   8.827
 4175SOL    HW214423   2.973   5.097   8.727
 4176SOL     OW14424  10.284   7.044  11.342
 4176SOL    HW114425  10.192   7.021  11.358
 4176SOL    HW214426  10.330   7.017  11.422
 4177SOL     OW14427   6.028   4.042   8.267
 4177SOL    HW114428   5.942   4.009   8.293
 4177SOL    HW214429   6.009   4.122   8.218
 4178SOL     OW14430   9.829   8.507  12.083
 4178SOL    HW114431   9.880   8.551  12.151
 4178SOL    HW214432   9.835   8.414  12.106
 4179SOL     OW14433   9.460   2.094   7.582
 4179SOL    HW114434   9.440   2.018   7.637
 4179SOL    HW214435   9.541   2.071   7.538
 4180SOL     OW14436  10.997   5.543   9.381
 4180SOL    HW114437  10.965   5.521   9.293
 4180SOL    HW214438  11.061   5.612   9.366
 4181SOL     OW14439   2.824   9.336   4.022
 4181SOL    HW114440   2.838   9.325   4.116
 4181SOL    HW214441   2.736   9.372   4.015
 4182SOL     OW14442   3.133   4.877   3.768
 4182SOL    HW114443   3.205   4.912   3.716
 4182SOL    HW214444   3.141   4.919   3.853
 4183SOL     OW14445  11.402  13.343  11.759
 4183SOL    HW114446  11.312  13.333  11.791
 4183SOL    HW214447  11.405  13.432  11.724
 4184SOL     OW14448   6.042   4.275   2.476
 4184SOL    HW114449   6.115   4.333   2.499
 4184SOL    HW214450   6.016   4.303   2.389
 4185SOL     OW14451   0.252   6.263   4.394
 4185SOL    HW114452   0.332   6.305   4.362
 4185SOL    HW214453   0.197   6.257   4.316
 4186SOL     OW14454   6.291  13.651  13.416
 4186SOL    HW114455   6.384  13.632  13.400
 4186SOL    HW214456   6.291  13.708  13.492
 4187SOL     OW14457  10.650  11.183  13.927
 4187SOL    HW114458  10.665  11.145  14.013
 4187SOL    HW214459  10.649  11.278  13.942
 4188SOL     OW14460  14.554   4.711   6.591
 4188SOL    HW114461  14.552   4.743   6.682
 4188SOL    HW214462  14.554   4.790   6.538
 4189SOL     OW14463  12.658   2.044  13.940
 4189SOL    HW114464  12.635   2.043  14.033
 4189SOL    HW214465  12.668   1.952  13.916
 4190SOL     OW14466  12.776   2.884   7.900
 4190SOL    HW114467  12.836   2.915   7.968
 4190SOL    HW214468  12.734   2.964   7.868
 4191SOL     OW14469   2.900  10.337   6.521
 4191SOL    HW114470   2.962  10.270   6.491
 4191SOL    HW214471   2.816  10.291   6.528
 4192SOL     OW14472   0.230   9.740  11.967
 4192SOL    HW114473   0.186   9.791  12.035
 4192SOL    HW214474   0.195   9.775  11.885
 4193SOL     OW14475   3.911   1.026  10.074
 4193SOL    HW114476   3.913   1.056   9.983
 4193SOL    HW214477   3.978   1.078  10.119
 4194SOL     OW14478   1.774   9.369   7.053
 4194SOL    HW114479   1.724   9.442   7.017
 4194SOL    HW214480   1.808   9.323   6.977
 4195SOL     OW14481   6.448  12.865  13.893
 4195SOL    HW114482   6.534  12.890  13.927
 4195SOL    HW214483   6.441  12.911  13.810
 4196SOL     OW14484   0.912   5.241   2.061
 4196SOL    HW114485   0.979   5.283   2.008
 4196SOL    HW214486   0.890   5.161   2.015
 4197SOL     OW14487   7.687   6.592  14.865
 4197SOL    HW114488   7.643   6.640   0.063
 4197SOL    HW214489   7.711   6.659  14.801
 4198SOL     OW14490   5.690   5.308  13.594
 4198SOL    HW114491   5.715   5.391  13.554
 4198SOL    HW214492   5.685   5.327  13.687
 4199SOL     OW14493   0.665   9.090   1.146
 4199SOL    HW114494   0.576   9.089   1.181
 4199SOL    HW214495   0.696   9.000   1.157
 4200SOL     OW14496   4.902  13.589   6.028
 4200SOL    HW114497   4.941  13.564   5.945
 4200SOL    HW214498   4.956  13.662   6.060
 4201SOL     OW14499   4.858   7.431   3.165
 4201SOL    HW114500   4.818   7.418   3.079
 4201SOL    HW214501   4.939   7.380   3.161
 4202SOL     OW14502  10.720   0.845  13.955
 4202SOL    HW114503  10.714   0.905  13.881
 4202SOL    HW214504  10.814   0.829  13.965
 4203SOL     OW14505   1.012   9.771   5.581
 4203SOL    HW114506   1.064   9.820   5.517
 4203SOL    HW214507   0.977   9.697   5.532
 4204SOL     OW14508   7.810   9.654   7.482
 4204SOL    HW114509   7.818   9.688   7.571
 4204SOL    HW214510   7.716   9.653   7.466
 4205SOL     OW14511   4.177  14.052  12.998
 4205SOL    HW114512   4.225  14.006  12.929
 4205SOL    HW214513   4.245  14.085  13.058
 4206SOL     OW14514  13.424   0.992  12.308
 4206SOL    HW114515  13.415   1.084  12.282
 4206SOL    HW214516  13.431   0.994  12.403
 4207SOL     OW14517   7.452  11.090  11.740
 4207SOL    HW114518   7.517  11.055  11.801
 4207SOL    HW214519   7.453  11.029  11.667
 4208SOL     OW14520  11.478   3.959   4.928
 4208SOL    HW114521  11.563   3.988   4.959
 4208SOL    HW214522  11.416   3.994   4.991
 4209SOL     OW14523   4.104   2.526  11.785
 4209SOL    HW114524   4.116   2.619  11.802
 4209SOL    HW214525   4.029   2.522  11.725
 4210SOL     OW14526   9.083   0.273  13.251
 4210SOL    HW114527   9.059   0.326  13.175
 4210SOL    HW214528   9.118   0.335  13.314
 4211SOL     OW14529   8.180   1.281  11.587
 4211SOL    HW114530   8.126   1.339  11.640
 4211SOL    HW214531   8.190   1.327  11.504
 4212SOL     OW14532  12.667   3.145   7.115
 4212SOL    HW114533  12.580   3.142   7.075
 4212SOL    HW214534  12.727   3.155   7.041
 4213SOL     OW14535   6.855   4.657   8.760
 4213SOL    HW114536   6.895   4.736   8.796
 4213SOL    HW214537   6.772   4.647   8.807
 4214SOL     OW14538   7.114  12.619  13.349
 4214SOL    HW114539   7.154  12.549  13.298
 4214SOL    HW214540   7.162  12.698  13.324
 4215SOL     OW14541   4.087   5.022   2.330
 4215SOL    HW114542   4.127   4.961   2.393
 4215SOL    HW214543   4.051   5.092   2.384
 4216SOL     OW14544  13.686   4.429   3.028
 4216SOL    HW114545  13.698   4.523   3.040
 4216SOL    HW214546  13.598   4.412   3.060
 4217SOL     OW14547   5.878   3.390  10.285
 4217SOL    HW114548   5.842   3.374  10.198
 4217SOL    HW214549   5.918   3.307  10.311
 4218SOL     OW14550  11.846  11.208  11.215
 4218SOL    HW114551  11.894  11.288  11.196
 4218SOL    HW214552  11.887  11.173  11.295
 4219SOL     OW14553   0.455   1.329  14.708
 4219SOL    HW114554   0.507   1.249  14.713
 4219SOL    HW214555   0.452   1.361  14.798
 4220SOL     OW14556   2.508   3.077  11.760
 4220SOL    HW114557   2.428   3.048  11.803
 4220SOL    HW214558   2.549   3.137  11.822
 4221SOL     OW14559   8.788   7.800  10.943
 4221SOL    HW114560   8.741   7.778  10.863
 4221SOL    HW214561   8.829   7.884  10.925
 4222SOL     OW14562   0.022   5.718   9.014
 4222SOL    HW114563  14.860   5.801   9.048
 4222SOL    HW214564   0.073   5.743   8.937
 4223SOL     OW14565   8.938  14.479  12.571
 4223SOL    HW114566   8.937  14.472  12.475
 4223SOL    HW214567   8.911  14.570  12.588
 4224SOL     OW14568   9.342   1.066   9.966
 4224SOL    HW114569   9.400   1.133  10.000
 4224SOL    HW214570   9.364   1.059   9.874
 4225SOL     OW14571   1.944   0.347  13.945
 4225SOL    HW114572   2.031   0.318  13.921
 4225SOL    HW214573   1.959   0.411  14.015
 4226SOL     OW14574  12.452   8.469   7.749
 4226SOL    HW114575  12.528   8.471   7.807
 4226SOL    HW214576  12.404   8.549   7.769
 4227SOL     OW14577   9.585   7.665   3.886
 4227SOL    HW114578   9.597   7.721   3.962
 4227SOL    HW214579   9.505   7.615   3.905
 4228SOL     OW14580   6.833  14.027   4.069
 4228SOL    HW114581   6.746  14.061   4.087
 4228SOL    HW214582   6.822  13.976   3.989
 4229SOL     OW14583  10.799   6.661  11.984
 4229SOL    HW114584  10.786   6.581  11.933
 4229SOL    HW214585  10.873   6.640  12.043
 4230SOL     OW14586   5.569   8.975   3.254
 4230SOL    HW114587   5.520   9.008   3.178
 4230SOL    HW214588   5.507   8.983   3.327
 4231SOL     OW14589   3.827  13.286  10.597
 4231SOL    HW114590   3.868  13.229  10.661
 4231SOL    HW214591   3.889  13.359  10.586
 4232SOL     OW14592   6.021  11.285  14.623
 4232SOL    HW114593   6.032  11.378  14.606
 4232SOL    HW214594   6.001  11.280  14.716
 4233SOL     OW14595   4.520   9.566  10.418
 4233SOL    HW114596   4.451   9.615  10.463
 4233SOL    HW214597   4.599   9.583  10.470
 4234SOL     OW14598   7.461   2.581   6.995
 4234SOL    HW114599   7.533   2.534   7.037
 4234SOL    HW214600   7.492   2.599   6.906
 4235SOL     OW14601   4.152   7.792  14.612
 4235SOL    HW114602   4.124   7.729  14.545
 4235SOL    HW214603   4.128   7.750  14.695
 4236SOL     OW14604   7.729   7.472   8.162
 4236SOL    HW114605   7.671   7.495   8.090
 4236SOL    HW214606   7.726   7.377   8.166
 4237SOL     OW14607   7.105   7.857  10.913
 4237SOL    HW114608   7.067   7.793  10.973
 4237SOL    HW214609   7.045   7.859  10.839
 4238SOL     OW14610   3.086  14.551  11.469
 4238SOL    HW114611   3.004  14.527  11.511
 4238SOL    HW214612   3.092  14.493  11.393
 4239SOL     OW14613  10.784   1.184   8.003
 4239SOL    HW114614  10.732   1.227   7.935
 4239SOL    HW214615  10.868   1.167   7.962
 4240SOL     OW14616   5.462   5.074  14.141
 4240SOL    HW114617   5.406   5.150  14.125
 4240SOL    HW214618   5.446   5.017  14.066
 4241SOL     OW14619   8.157  14.212   1.213
 4241SOL    HW114620   8.088  14.176   1.268
 4241SOL    HW214621   8.116  14.284   1.166
 4242SOL     OW14622   3.711  13.224   8.355
 4242SOL    HW114623   3.757  13.304   8.380
 4242SOL    HW214624   3.685  13.238   8.264
 4243SOL     OW14625  11.606   6.269  13.345
 4243SOL    HW114626  11.663   6.276  13.422
 4243SOL    HW214627  11.565   6.183  13.352
 4244SOL     OW14628  10.665   8.993   3.254
 4244SOL    HW114629  10.586   9.002   3.308
 4244SOL    HW214630  10.653   8.911   3.207
 4245SOL     OW14631   6.132  11.110   3.079
 4245SOL    HW114632   6.129  11.021   3.044
 4245SOL    HW214633   6.214  11.113   3.129
 4246SOL     OW14634   3.296   9.080   3.024
 4246SOL    HW114635   3.293   9.120   3.111
 4246SOL    HW214636   3.341   8.997   3.039
 4247SOL     OW14637   7.261   2.022  13.799
 4247SOL    HW114638   7.337   1.982  13.756
 4247SOL    HW214639   7.294   2.047  13.885
 4248SOL     OW14640   0.145   4.654   4.410
 4248SOL    HW114641   0.206   4.722   4.436
 4248SOL    HW214642   0.149   4.589   4.480
 4249SOL     OW14643  13.630  13.269   1.791
 4249SOL    HW114644  13.585  13.293   1.710
 4249SOL    HW214645  13.714  13.313   1.786
 4250SOL     OW14646   1.942   1.521  12.554
 4250SOL    HW114647   1.959   1.474  12.635
 4250SOL    HW214648   1.876   1.586  12.578
 4251SOL     OW14649  10.113   1.809   6.028
 4251SOL    HW114650  10.035   1.821   5.974
 4251SOL    HW214651  10.185   1.801   5.966
 4252SOL     OW14652   5.790   3.201   3.077
 4252SOL    HW114653   5.871   3.249   3.096
 4252SOL    HW214654   5.729   3.231   3.145
 4253SOL     OW14655   2.254   2.618   7.552
 4253SOL    HW114656   2.196   2.542   7.543
 4253SOL    HW214657   2.299   2.624   7.467
 4254SOL     OW14658  13.778  13.072   7.348
 4254SOL    HW114659  13.707  13.008   7.341
 4254SOL    HW214660  13.856  13.024   7.321
 4255SOL     OW14661   3.043   2.382  11.104
 4255SOL    HW114662   2.987   2.325  11.051
 4255SOL    HW214663   3.050   2.462  11.052
 4256SOL     OW14664   6.470   5.065  10.266
 4256SOL    HW114665   6.457   5.088  10.174
 4256SOL    HW214666   6.416   5.128  10.314
 4257SOL     OW14667   7.595   5.633   3.981
 4257SOL    HW114668   7.679   5.658   4.019
 4257SOL    HW214669   7.616   5.604   3.892
 4258SOL     OW14670   5.323   9.642  10.260
 4258SOL    HW114671   5.261   9.706  10.225
 4258SOL    HW214672   5.290   9.558  10.229
 4259SOL     OW14673  11.837   8.886   6.616
 4259SOL    HW114674  11.889   8.807   6.629
 4259SOL    HW214675  11.847   8.935   6.698
 4260SOL     OW14676   5.323  13.539  10.083
 4260SOL    HW114677   5.339  13.561  10.175
 4260SOL    HW214678   5.320  13.623  10.039
 4261SOL     OW14679   0.518   9.368   4.233
 4261SOL    HW114680   0.568   9.441   4.268
 4261SOL    HW214681   0.564   9.290   4.265
 4262SOL     OW14682  10.000   2.327   1.162
 4262SOL    HW114683   9.967   2.238   1.150
 4262SOL    HW214684   9.984   2.347   1.255
 4263SOL     OW14685   0.873   6.235  11.950
 4263SOL    HW114686   0.941   6.249  12.016
 4263SOL    HW214687   0.801   6.193  11.998
 4264SOL     OW14688  10.881   5.716  11.752
 4264SOL    HW114689  10.853   5.793  11.803
 4264SOL    HW214690  10.840   5.642  11.796
 4265SOL     OW14691   4.568   4.820  12.448
 4265SOL    HW114692   4.524   4.834  12.532
 4265SOL    HW214693   4.618   4.901  12.433
 4266SOL     OW14694  10.541   0.704   3.301
 4266SOL    HW114695  10.463   0.750   3.333
 4266SOL    HW214696  10.534   0.616   3.338
 4267SOL     OW14697   7.694   8.675   1.275
 4267SOL    HW114698   7.681   8.701   1.367
 4267SOL    HW214699   7.772   8.724   1.247
 4268SOL     OW14700   7.031   3.127  13.562
 4268SOL    HW114701   7.054   3.043  13.521
 4268SOL    HW214702   7.040   3.191  13.492
 4269SOL     OW14703  14.420   9.915   9.593
 4269SOL    HW114704  14.494   9.936   9.650
 4269SOL    HW214705  14.401   9.996   9.547
 4270SOL     OW14706  11.145   1.761   8.986
 4270SOL    HW114707  11.116   1.691   8.928
 4270SOL    HW214708  11.177   1.716   9.064
 4271SOL     OW14709   3.095  11.057   9.138
 4271SOL    HW114710   3.153  11.112   9.084
 4271SOL    HW214711   3.153  11.021   9.206
 4272SOL     OW14712   1.095   7.827   2.154
 4272SOL    HW114713   1.122   7.860   2.069
 4272SOL    HW214714   1.177   7.804   2.198
 4273SOL     OW14715   7.658  10.742   3.999
 4273SOL    HW114716   7.718  10.712   4.068
 4273SOL    HW214717   7.687  10.696   3.920
 4274SOL     OW14718   3.533  11.358   4.955
 4274SOL    HW114719   3.552  11.321   5.041
 4274SOL    HW214720   3.561  11.449   4.962
 4275SOL     OW14721   5.617   9.166   2.091
 4275SOL    HW114722   5.580   9.095   2.038
 4275SOL    HW214723   5.578   9.153   2.178
 4276SOL     OW14724   1.349   4.204   2.859
 4276SOL    HW114725   1.280   4.160   2.809
 4276SOL    HW214726   1.428   4.190   2.807
 4277SOL     OW14727   9.425   1.557   4.092
 4277SOL    HW114728   9.468   1.586   4.012
 4277SOL    HW214729   9.483   1.490   4.128
 4278SOL     OW14730   8.259  14.504  13.201
 4278SOL    HW114731   8.263  14.410  13.217
 4278SOL    HW214732   8.190  14.536  13.258
 4279SOL     OW14733  11.821   5.148   2.888
 4279SOL    HW114734  11.752   5.111   2.942
 4279SOL    HW214735  11.840   5.080   2.823
 4280SOL     OW14736  13.769   6.766   8.326
 4280SOL    HW114737  13.802   6.694   8.273
 4280SOL    HW214738  13.681   6.739   8.352
 4281SOL     OW14739   1.139   4.472  10.810
 4281SOL    HW114740   1.188   4.510  10.738
 4281SOL    HW214741   1.204   4.424  10.862
 4282SOL     OW14742   9.234  13.481   3.318
 4282SOL    HW114743   9.302  13.505   3.382
 4282SOL    HW214744   9.161  13.540   3.338
 4283SOL     OW14745   5.590  12.726   6.305
 4283SOL    HW114746   5.647  12.656   6.340
 4283SOL    HW214747   5.547  12.686   6.229
 4284SOL     OW14748   4.823   5.859   1.308
 4284SOL    HW114749   4.793   5.904   1.229
 4284SOL    HW214750   4.774   5.900   1.379
 4285SOL     OW14751   9.779   7.636   4.631
 4285SOL    HW114752   9.756   7.627   4.538
 4285SOL    HW214753   9.875   7.638   4.631
 4286SOL     OW14754   6.519   0.232   3.994
 4286SOL    HW114755   6.603   0.269   4.020
 4286SOL    HW214756   6.482   0.295   3.932
 4287SOL     OW14757   6.239   1.147  14.114
 4287SOL    HW114758   6.211   1.235  14.140
 4287SOL    HW214759   6.204   1.136  14.025
 4288SOL     OW14760   9.279   1.003   1.361
 4288SOL    HW114761   9.359   0.990   1.311
 4288SOL    HW214762   9.244   1.087   1.331
 4289SOL     OW14763   5.764   9.334  10.889
 4289SOL    HW114764   5.830   9.404  10.892
 4289SOL    HW214765   5.742   9.325  10.797
 4290SOL     OW14766   4.672   2.292   6.203
 4290SOL    HW114767   4.674   2.291   6.298
 4290SOL    HW214768   4.660   2.384   6.180
 4291SOL     OW14769   0.904   3.997   0.822
 4291SOL    HW114770   0.919   3.952   0.740
 4291SOL    HW214771   0.967   4.069   0.822
 4292SOL     OW14772  11.806  10.240  13.665
 4292SOL    HW114773  11.726  10.201  13.700
 4292SOL    HW214774  11.854  10.269  13.743
 4293SOL     OW14775  14.280   0.558   4.390
 4293SOL    HW114776  14.342   0.611   4.340
 4293SOL    HW214777  14.204   0.549   4.333
 4294SOL     OW14778   0.801   8.521  12.510
 4294SOL    HW114779   0.809   8.509  12.415
 4294SOL    HW214780   0.888   8.503  12.544
 4295SOL     OW14781  12.961   0.491  13.188
 4295SOL    HW114782  12.882   0.543  13.176
 4295SOL    HW214783  12.969   0.481  13.283
 4296SOL     OW14784   6.993   0.620  13.796
 4296SOL    HW114785   6.898   0.634  13.798
 4296SOL    HW214786   7.013   0.601  13.705
 4297SOL     OW14787   7.459  13.220   4.325
 4297SOL    HW114788   7.406  13.296   4.350
 4297SOL    HW214789   7.457  13.220   4.229
 4298SOL     OW14790   7.901  11.823  11.264
 4298SOL    HW114791   7.955  11.808  11.186
 4298SOL    HW214792   7.912  11.916  11.283
 4299SOL     OW14793  10.716   6.637   3.557
 4299SOL    HW114794  10.696   6.544   3.549
 4299SOL    HW214795  10.799   6.647   3.511
 4300SOL     OW14796   6.707   2.398  10.113
 4300SOL    HW114797   6.710   2.493  10.107
 4300SOL    HW214798   6.663   2.380  10.196
 4301SOL     OW14799   0.045  11.795   8.099
 4301SOL    HW114800   0.081  11.881   8.081
 4301SOL    HW214801   0.106  11.755   8.160
 4302SOL     OW14802   8.735   3.798   4.198
 4302SOL    HW114803   8.804   3.776   4.260
 4302SOL    HW214804   8.678   3.722   4.196
 4303SOL     OW14805   2.053   0.816   2.339
 4303SOL    HW114806   2.130   0.778   2.382
 4303SOL    HW214807   2.058   0.784   2.249
 4304SOL     OW14808  14.213   9.153   5.222
 4304SOL    HW114809  14.230   9.120   5.134
 4304SOL    HW214810  14.251   9.241   5.222
 4305SOL     OW14811  10.407   9.431  10.433
 4305SOL    HW114812  10.436   9.369  10.500
 4305SOL    HW214813  10.481   9.491  10.422
 4306SOL     OW14814   4.468   8.281   8.555
 4306SOL    HW114815   4.429   8.253   8.473
 4306SOL    HW214816   4.464   8.377   8.552
 4307SOL     OW14817   9.169  12.473  11.863
 4307SOL    HW114818   9.124  12.466  11.947
 4307SOL    HW214819   9.099  12.481  11.798
 4308SOL     OW14820   4.174   2.954   8.794
 4308SOL    HW114821   4.235   2.900   8.743
 4308SOL    HW214822   4.190   2.928   8.885
 4309SOL     OW14823  10.256   1.352   8.154
 4309SOL    HW114824  10.265   1.257   8.165
 4309SOL    HW214825  10.323   1.389   8.211
 4310SOL     OW14826   7.286  11.954   2.968
 4310SOL    HW114827   7.251  12.019   3.028
 4310SOL    HW214828   7.277  11.994   2.881
 4311SOL     OW14829   2.267   1.483   9.862
 4311SOL    HW114830   2.234   1.572   9.864
 4311SOL    HW214831   2.348   1.488   9.812
 4312SOL     OW14832   2.824   0.535   8.912
 4312SOL    HW114833   2.804   0.471   8.843
 4312SOL    HW214834   2.910   0.569   8.888
 4313SOL     OW14835   9.545   8.249   3.926
 4313SOL    HW114836   9.548   8.184   3.996
 4313SOL    HW214837   9.542   8.334   3.971
 4314SOL     OW14838   8.497   1.248   2.383
 4314SOL    HW114839   8.408   1.218   2.366
 4314SOL    HW214840   8.488   1.314   2.453
 4315SOL     OW14841   7.370   3.890   5.209
 4315SOL    HW114842   7.331   3.803   5.201
 4315SOL    HW214843   7.461   3.873   5.233
 4316SOL     OW14844  13.028  13.913  11.206
 4316SOL    HW114845  12.940  13.948  11.214
 4316SOL    HW214846  13.079  13.985  11.170
 4317SOL     OW14847  13.198  10.525   8.855
 4317SOL    HW114848  13.250  10.476   8.919
 4317SOL    HW214849  13.125  10.468   8.835
 4318SOL     OW14850   6.876   2.244   8.416
 4318SOL    HW114851   6.899   2.274   8.503
 4318SOL    HW214852   6.866   2.149   8.425
 4319SOL     OW14853   9.932   9.683   5.454
 4319SOL    HW114854   9.926   9.719   5.542
 4319SOL    HW214855  10.010   9.724   5.416
 4320SOL     OW14856   0.767   7.873  12.991
 4320SOL    HW114857   0.782   7.853  13.084
 4320SOL    HW214858   0.765   7.968  12.987
 4321SOL     OW14859  14.750   3.809   6.708
 4321SOL    HW114860  14.775   3.900   6.726
 4321SOL    HW214861  14.684   3.788   6.774
 4322SOL     OW14862  14.480   3.715   6.284
 4322SOL    HW114863  14.413   3.738   6.220
 4322SOL    HW214864  14.558   3.697   6.232
 4323SOL     OW14865  13.757  11.457   2.340
 4323SOL    HW114866  13.683  11.397   2.345
 4323SOL    HW214867  13.832  11.405   2.368
 4324SOL     OW14868  10.544  12.425  14.842
 4324SOL    HW114869  10.550  12.361   0.040
 4324SOL    HW214870  10.625  12.414  14.792
 4325SOL     OW14871   4.988  11.853   8.527
 4325SOL    HW114872   4.912  11.839   8.469
 4325SOL    HW214873   5.016  11.942   8.508
 4326SOL     OW14874  10.241   4.734  13.407
 4326SOL    HW114875  10.230   4.828  13.395
 4326SOL    HW214876  10.259   4.701  13.318
 4327SOL     OW14877  12.125   1.056  11.717
 4327SOL    HW114878  12.197   1.007  11.678
 4327SOL    HW214879  12.133   1.143  11.679
 4328SOL     OW14880   8.933   4.665   0.407
 4328SOL    HW114881   8.920   4.589   0.464
 4328SOL    HW214882   9.027   4.683   0.414
 4329SOL     OW14883   5.053   4.025  11.560
 4329SOL    HW114884   5.134   4.060  11.523
 4329SOL    HW214885   5.050   4.061  11.649
 4330SOL     OW14886  14.183   6.881   7.507
 4330SOL    HW114887  14.180   6.785   7.509
 4330SOL    HW214888  14.272   6.902   7.480
 4331SOL     OW14889   7.485   8.809  11.138
 4331SOL    HW114890   7.569   8.778  11.172
 4331SOL    HW214891   7.440   8.729  11.110
 4332SOL     OW14892   9.936  10.000   8.439
 4332SOL    HW114893   9.916  10.039   8.524
 4332SOL    HW214894   9.860  10.020   8.385
 4333SOL     OW14895   3.883   9.610   7.712
 4333SOL    HW114896   3.974   9.606   7.739
 4333SOL    HW214897   3.833   9.598   7.793
 4334SOL     OW14898  12.766   5.623   3.108
 4334SOL    HW114899  12.859   5.616   3.128
 4334SOL    HW214900  12.760   5.605   3.014
 4335SOL     OW14901   5.259   5.240   4.545
 4335SOL    HW114902   5.347   5.228   4.512
 4335SOL    HW214903   5.245   5.167   4.605
 4336SOL     OW14904  11.884   4.924   8.973
 4336SOL    HW114905  11.845   4.947   8.889
 4336SOL    HW214906  11.960   4.981   8.981
 4337SOL     OW14907   5.011   0.565   4.697
 4337SOL    HW114908   5.053   0.480   4.687
 4337SOL    HW214909   5.069   0.615   4.755
 4338SOL     OW14910   4.720   6.766   4.738
 4338SOL    HW114911   4.785   6.830   4.709
 4338SOL    HW214912   4.654   6.817   4.785
 4339SOL     OW14913  12.673   8.988   1.104
 4339SOL    HW114914  12.727   9.010   1.180
 4339SOL    HW214915  12.733   8.989   1.030
 4340SOL     OW14916   2.778  12.935   8.350
 4340SOL    HW114917   2.861  12.975   8.326
 4340SOL    HW214918   2.716  13.008   8.353
 4341SOL     OW14919   1.041  13.816   3.430
 4341SOL    HW114920   1.043  13.908   3.404
 4341SOL    HW214921   1.071  13.815   3.521
 4342SOL     OW14922  12.394   2.662  13.221
 4342SOL    HW114923  12.426   2.712  13.147
 4342SOL    HW214924  12.299   2.672  13.219
 4343SOL     OW14925   8.620   4.796  11.712
 4343SOL    HW114926   8.621   4.838  11.799
 4343SOL    HW214927   8.636   4.704  11.730
 4344SOL     OW14928   8.172  14.073   6.733
 4344SOL    HW114929   8.144  14.001   6.676
 4344SOL    HW214930   8.098  14.134   6.732
 4345SOL     OW14931   6.732  10.026   7.944
 4345SOL    HW114932   6.827  10.030   7.945
 4345SOL    HW214933   6.709   9.983   8.026
 4346SOL     OW14934   4.023  10.262  13.395
 4346SOL    HW114935   4.092  10.314  13.435
 4346SOL    HW214936   4.054  10.172  13.401
 4347SOL     OW14937   0.210  13.212   8.089
 4347SOL    HW114938   0.187  13.282   8.151
 4347SOL    HW214939   0.305  13.214   8.084
 4348SOL     OW14940  14.256  13.105   2.752
 4348SOL    HW114941  14.237  13.076   2.663
 4348SOL    HW214942  14.342  13.147   2.745
 4349SOL     OW14943   6.667   1.370   9.758
 4349SOL    HW114944   6.705   1.372   9.670
 4349SOL    HW214945   6.703   1.292   9.798
 4350SOL     OW14946  12.789   3.692   6.866
 4350SOL    HW114947  12.739   3.618   6.900
 4350SOL    HW214948  12.746   3.769   6.903
 4351SOL     OW14949  12.554   4.075  11.873
 4351SOL    HW114950  12.643   4.108  11.888
 4351SOL    HW214951  12.564   3.980  11.870
 4352SOL     OW14952  13.811  10.805   1.140
 4352SOL    HW114953  13.883  10.768   1.089
 4352SOL    HW214954  13.756  10.849   1.075
 4353SOL     OW14955   9.164   8.706  13.049
 4353SOL    HW114956   9.138   8.615  13.063
 4353SOL    HW214957   9.118   8.731  12.968
 4354SOL     OW14958  14.805   7.137  13.308
 4354SOL    HW114959  14.848   7.220  13.329
 4354SOL    HW214960  14.747   7.159  13.234
 4355SOL     OW14961   8.676  14.117   9.764
 4355SOL    HW114962   8.590  14.080   9.744
 4355SOL    HW214963   8.697  14.082   9.851
 4356SOL     OW14964   2.743   3.586   4.173
 4356SOL    HW114965   2.755   3.649   4.101
 4356SOL    HW214966   2.649   3.569   4.174
 4357SOL     OW14967  14.501   4.405   9.212
 4357SOL    HW114968  14.408   4.419   9.232
 4357SOL    HW214969  14.533   4.352   9.285
 4358SOL     OW14970  10.275  14.554  10.053
 4358SOL    HW114971  10.208  14.543  10.120
 4358SOL    HW214972  10.245  14.627   9.999
 4359SOL     OW14973  12.342   2.829   1.662
 4359SOL    HW114974  12.259   2.862   1.627
 4359SOL    HW214975  12.356   2.881   1.741
 4360SOL     OW14976   8.780   9.917   6.838
 4360SOL    HW114977   8.783   9.972   6.760
 4360SOL    HW214978   8.810   9.973   6.909
 4361SOL     OW14979   6.806  11.468  12.363
 4361SOL    HW114980   6.815  11.411  12.287
 4361SOL    HW214981   6.835  11.413  12.437
 4362SOL     OW14982   9.680   4.486   7.895
 4362SOL    HW114983   9.684   4.582   7.897
 4362SOL    HW214984   9.756   4.460   7.842
 4363SOL     OW14985  13.429   6.238   1.126
 4363SOL    HW114986  13.353   6.242   1.067
 4363SOL    HW214987  13.412   6.161   1.181
 4364SOL     OW14988   6.772   1.401   8.525
 4364SOL    HW114989   6.685   1.420   8.489
 4364SOL    HW214990   6.824   1.478   8.503
 4365SOL     OW14991   5.396   5.727   7.847
 4365SOL    HW114992   5.415   5.815   7.815
 4365SOL    HW214993   5.303   5.714   7.830
 4366SOL     OW14994   3.345   4.992   9.007
 4366SOL    HW114995   3.437   4.970   8.990
 4366SOL    HW214996   3.314   5.030   8.925
 4367SOL     OW14997  12.727   8.360   8.511
 4367SOL    HW114998  12.636   8.365   8.540
 4367SOL    HW214999  12.732   8.280   8.459
 4368SOL     OW15000  13.744   8.276   6.106
 4368SOL    HW115001  13.770   8.184   6.096
 4368SOL    HW215002  13.750   8.292   6.200
 4369SOL     OW15003   9.827   9.284   6.936
 4369SOL    HW115004   9.897   9.304   6.874
 4369SOL    HW215005   9.863   9.310   7.021
 4370SOL     OW15006   4.725   0.646   7.113
 4370SOL    HW115007   4.659   0.602   7.166
 4370SOL    HW215008   4.723   0.737   7.142
 4371SOL     OW15009  14.592   5.392   7.585
 4371SOL    HW115010  14.517   5.335   7.602
 4371SOL    HW215011  14.668   5.345   7.618
 4372SOL     OW15012   3.034  12.949   6.050
 4372SOL    HW115013   3.033  12.929   6.144
 4372SOL    HW215014   3.037  13.045   6.046
 4373SOL     OW15015   1.312  14.406  11.617
 4373SOL    HW115016   1.220  14.416  11.591
 4373SOL    HW215017   1.358  14.388  11.535
 4374SOL     OW15018   7.579   7.320   9.155
 4374SOL    HW115019   7.590   7.415   9.156
 4374SOL    HW215020   7.632   7.289   9.228
 4375SOL     OW15021   4.254   3.527   2.645
 4375SOL    HW115022   4.200   3.542   2.722
 4375SOL    HW215023   4.275   3.615   2.614
 4376SOL     OW15024   4.039   0.568   5.924
 4376SOL    HW115025   4.063   0.637   5.861
 4376SOL    HW215026   4.072   0.487   5.884
 4377SOL     OW15027   2.435   7.628   4.975
 4377SOL    HW115028   2.415   7.664   5.061
 4377SOL    HW215029   2.523   7.662   4.955
 4378SOL     OW15030  11.524  14.086   2.107
 4378SOL    HW115031  11.618  14.100   2.109
 4378SOL    HW215032  11.494  14.136   2.031
 4379SOL     OW15033   0.394   9.912  10.921
 4379SOL    HW115034   0.485   9.914  10.889
 4379SOL    HW215035   0.376   9.819  10.934
 4380SOL     OW15036  12.976   6.274   3.332
 4380SOL    HW115037  12.888   6.308   3.322
 4380SOL    HW215038  12.964   6.181   3.351
 4381SOL     OW15039   0.419  12.281   4.231
 4381SOL    HW115040   0.466  12.225   4.293
 4381SOL    HW215041   0.446  12.370   4.254
 4382SOL     OW15042   4.557   9.422   0.582
 4382SOL    HW115043   4.610   9.421   0.502
 4382SOL    HW215044   4.483   9.365   0.563
 4383SOL     OW15045   3.280   3.479   0.448
 4383SOL    HW115046   3.364   3.438   0.470
 4383SOL    HW215047   3.226   3.408   0.416
 4384SOL     OW15048  14.192  11.982  13.893
 4384SOL    HW115049  14.136  12.005  13.967
 4384SOL    HW215050  14.271  11.945  13.933
 4385SOL     OW15051  14.270   2.703   2.793
 4385SOL    HW115052  14.223   2.769   2.742
 4385SOL    HW215053  14.341   2.674   2.736
 4386SOL     OW15054   9.507  12.697  10.741
 4386SOL    HW115055   9.413  12.715  10.742
 4386SOL    HW215056   9.516  12.625  10.678
 4387SOL     OW15057  13.788  12.446   7.510
 4387SOL    HW115058  13.804  12.539   7.519
 4387SOL    HW215059  13.868  12.412   7.469
 4388SOL     OW15060   2.551   2.870   9.981
 4388SOL    HW115061   2.601   2.941  10.021
 4388SOL    HW215062   2.617   2.809   9.948
 4389SOL     OW15063  12.774  10.959  10.471
 4389SOL    HW115064  12.687  10.997  10.482
 4389SOL    HW215065  12.823  10.989  10.547
 4390SOL     OW15066  13.919   7.916   3.460
 4390SOL    HW115067  14.006   7.900   3.496
 4390SOL    HW215068  13.885   7.990   3.511
 4391SOL     OW15069  11.991   5.941   8.744
 4391SOL    HW115070  11.921   5.939   8.810
 4391SOL    HW215071  12.070   5.918   8.793
 4392SOL     OW15072   5.330   3.777   3.527
 4392SOL    HW115073   5.332   3.840   3.455
 4392SOL    HW215074   5.255   3.804   3.580
 4393SOL     OW15075  12.191   0.820  11.976
 4393SOL    HW115076  12.217   0.832  12.067
 4393SOL    HW215077  12.099   0.846  11.973
 4394SOL     OW15078   6.438  14.376  12.038
 4394SOL    HW115079   6.489  14.454  12.057
 4394SOL    HW215080   6.474  14.308  12.095
 4395SOL     OW15081  14.328   7.208   5.057
 4395SOL    HW115082  14.359   7.169   5.139
 4395SOL    HW215083  14.340   7.303   5.069
 4396SOL     OW15084  13.684   8.025   0.022
 4396SOL    HW115085  13.593   8.055   0.035
 4396SOL    HW215086  13.699   8.036  14.801
 4397SOL     OW15087  12.540   1.242  13.918
 4397SOL    HW115088  12.578   1.213  14.001
 4397SOL    HW215089  12.446   1.232  13.929
 4398SOL     OW15090   0.023  10.147   1.647
 4398SOL    HW115091   0.064  10.138   1.733
 4398SOL    HW215092   0.061  10.076   1.595
 4399SOL     OW15093   0.827   1.106   1.849
 4399SOL    HW115094   0.755   1.162   1.877
 4399SOL    HW215095   0.785   1.038   1.796
 4400SOL     OW15096  12.337  10.611   4.506
 4400SOL    HW115097  12.244  10.636   4.507
 4400SOL    HW215098  12.358  10.592   4.597
 4401SOL     OW15099   4.679  11.037  12.669
 4401SOL    HW115100   4.707  11.086  12.746
 4401SOL    HW215101   4.758  10.993  12.638
 4402SOL     OW15102  12.869   1.500   7.032
 4402SOL    HW115103  12.810   1.429   7.007
 4402SOL    HW215104  12.865   1.561   6.958
 4403SOL     OW15105   9.481   2.992   6.669
 4403SOL    HW115106   9.405   2.935   6.677
 4403SOL    HW215107   9.552   2.944   6.711
 4404SOL     OW15108   9.800   3.697   4.290
 4404SOL    HW115109   9.808   3.760   4.219
 4404SOL    HW215110   9.843   3.738   4.364
 4405SOL     OW15111   6.136  10.676  14.029
 4405SOL    HW115112   6.145  10.627  13.947
 4405SOL    HW215113   6.049  10.653  14.062
 4406SOL     OW15114   8.453  11.075   6.267
 4406SOL    HW115115   8.474  11.142   6.332
 4406SOL    HW215116   8.359  11.084   6.253
 4407SOL     OW15117   3.793   9.762   7.257
 4407SOL    HW115118   3.801   9.809   7.341
 4407SOL    HW215119   3.768   9.830   7.195
 4408SOL     OW15120   8.568  10.420   3.133
 4408SOL    HW115121   8.540  10.389   3.047
 4408SOL    HW215122   8.631  10.354   3.162
 4409SOL     OW15123   3.224   9.221  12.932
 4409SOL    HW115124   3.203   9.148  12.873
 4409SOL    HW215125   3.306   9.197  12.973
 4410SOL     OW15126   0.988  11.693   6.955
 4410SOL    HW115127   0.973  11.600   6.965
 4410SOL    HW215128   0.905  11.734   6.979
 4411SOL     OW15129  11.968   9.584  14.414
 4411SOL    HW115130  11.879   9.602  14.384
 4411SOL    HW215131  11.976   9.489  14.409
 4412SOL     OW15132   3.804   2.150   1.708
 4412SOL    HW115133   3.724   2.151   1.656
 4412SOL    HW215134   3.777   2.182   1.794
 4413SOL     OW15135  11.775   8.604   2.607
 4413SOL    HW115136  11.781   8.516   2.570
 4413SOL    HW215137  11.852   8.650   2.573
 4414SOL     OW15138  14.125   1.581  12.109
 4414SOL    HW115139  14.210   1.593  12.067
 4414SOL    HW215140  14.104   1.666  12.147
 4415SOL     OW15141  14.273   2.265  12.271
 4415SOL    HW115142  14.288   2.322  12.347
 4415SOL    HW215143  14.256   2.179  12.309
 4416SOL     OW15144  14.532  14.710  12.969
 4416SOL    HW115145  14.607  14.684  12.917
 4416SOL    HW215146  14.554  14.681  13.058
 4417SOL     OW15147   0.862   8.639   5.627
 4417SOL    HW115148   0.770   8.660   5.606
 4417SOL    HW215149   0.911   8.714   5.594
 4418SOL     OW15150   0.652   8.088   9.002
 4418SOL    HW115151   0.640   8.180   8.977
 4418SOL    HW215152   0.743   8.083   9.032
 4419SOL     OW15153   5.533   3.051   3.315
 4419SOL    HW115154   5.468   3.062   3.246
 4419SOL    HW215155   5.560   2.959   3.308
 4420SOL     OW15156   7.626   3.913   4.073
 4420SOL    HW115157   7.600   3.978   4.007
 4420SOL    HW215158   7.561   3.922   4.142
 4421SOL     OW15159   4.024   0.257  13.292
 4421SOL    HW115160   4.076   0.193  13.341
 4421SOL    HW215161   4.059   0.342  13.320
 4422SOL     OW15162  12.153   9.310   2.639
 4422SOL    HW115163  12.073   9.285   2.592
 4422SOL    HW215164  12.224   9.288   2.579
 4423SOL     OW15165   4.832   0.494   6.556
 4423SOL    HW115166   4.892   0.537   6.495
 4423SOL    HW215167   4.866   0.517   6.643
 4424SOL     OW15168   7.445   4.842   8.483
 4424SOL    HW115169   7.352   4.818   8.480
 4424SOL    HW215170   7.488   4.774   8.430
 4425SOL     OW15171  10.987   3.251  13.186
 4425SOL    HW115172  11.036   3.332  13.199
 4425SOL    HW215173  10.920   3.273  13.121
 4426SOL     OW15174   5.788   5.989   2.249
 4426SOL    HW115175   5.856   5.938   2.293
 4426SOL    HW215176   5.761   6.054   2.315
 4427SOL     OW15177  11.685   7.149   6.854
 4427SOL    HW115178  11.729   7.064   6.861
 4427SOL    HW215179  11.598   7.133   6.891
 4428SOL     OW15180   1.471   8.949  10.884
 4428SOL    HW115181   1.378   8.932  10.870
 4428SOL    HW215182   1.491   8.905  10.967
 4429SOL     OW15183  11.114   9.254   8.649
 4429SOL    HW115184  11.102   9.160   8.635
 4429SOL    HW215185  11.027   9.291   8.636
 4430SOL     OW15186   3.410  11.472   7.853
 4430SOL    HW115187   3.451  11.558   7.861
 4430SOL    HW215188   3.398  11.443   7.943
 4431SOL     OW15189   7.217   8.407   2.073
 4431SOL    HW115190   7.233   8.398   2.167
 4431SOL    HW215191   7.233   8.320   2.037
 4432SOL     OW15192   8.831  11.294   4.066
 4432SOL    HW115193   8.750  11.343   4.071
 4432SOL    HW215194   8.900  11.360   4.065
 4433SOL     OW15195  13.375   2.226   8.191
 4433SOL    HW115196  13.334   2.152   8.145
 4433SOL    HW215197  13.466   2.200   8.202
 4434SOL     OW15198   6.064   9.417   9.217
 4434SOL    HW115199   6.113   9.335   9.203
 4434SOL    HW215200   5.977   9.388   9.245
 4435SOL     OW15201   2.783   5.442   7.794
 4435SOL    HW115202   2.696   5.448   7.834
 4435SOL    HW215203   2.818   5.359   7.827
 4436SOL     OW15204  11.565   4.740   0.681
 4436SOL    HW115205  11.552   4.751   0.586
 4436SOL    HW215206  11.605   4.822   0.710
 4437SOL     OW15207   9.914   0.663   5.809
 4437SOL    HW115208   9.887   0.663   5.717
 4437SOL    HW215209   9.929   0.756   5.829
 4438SOL     OW15210   6.980  10.696   8.628
 4438SOL    HW115211   7.066  10.725   8.658
 4438SOL    HW215212   6.959  10.622   8.685
 4439SOL     OW15213   0.403   9.233   5.137
 4439SOL    HW115214   0.322   9.195   5.170
 4439SOL    HW215215   0.391   9.328   5.148
 4440SOL     OW15216   5.808   4.524   9.350
 4440SOL    HW115217   5.731   4.470   9.368
 4440SOL    HW215218   5.832   4.562   9.434
 4441SOL     OW15219   6.449  12.590  12.989
 4441SOL    HW115220   6.517  12.593  12.923
 4441SOL    HW215221   6.485  12.638  13.064
 4442SOL     OW15222   0.376   2.107   1.034
 4442SOL    HW115223   0.369   2.023   1.080
 4442SOL    HW215224   0.293   2.152   1.054
 4443SOL     OW15225   2.878  12.770  14.242
 4443SOL    HW115226   2.860  12.711  14.316
 4443SOL    HW215227   2.814  12.840  14.252
 4444SOL     OW15228   8.246   9.449   1.409
 4444SOL    HW115229   8.317   9.490   1.458
 4444SOL    HW215230   8.285   9.368   1.374
 4445SOL     OW15231   8.566  11.290   4.467
 4445SOL    HW115232   8.658  11.314   4.462
 4445SOL    HW215233   8.551  11.271   4.559
 4446SOL     OW15234  13.295   6.606   1.105
 4446SOL    HW115235  13.284   6.697   1.075
 4446SOL    HW215236  13.206   6.571   1.107
 4447SOL     OW15237  14.144   6.021  13.102
 4447SOL    HW115238  14.106   5.962  13.037
 4447SOL    HW215239  14.215   5.970  13.142
 4448SOL     OW15240   0.173   3.981  12.252
 4448SOL    HW115241   0.263   3.951  12.266
 4448SOL    HW215242   0.154   4.036  12.328
 4449SOL     OW15243   4.181  10.438  10.801
 4449SOL    HW115244   4.168  10.484  10.884
 4449SOL    HW215245   4.099  10.451  10.753
 4450SOL     OW15246  10.378  11.145   2.916
 4450SOL    HW115247  10.399  11.232   2.949
 4450SOL    HW215248  10.441  11.087   2.959
 4451SOL     OW15249  14.835   5.738   8.617
 4451SOL    HW115250   0.030   5.787   8.665
 4451SOL    HW215251  14.767   5.721   8.682
 4452SOL     OW15252  14.813   1.207   4.040
 4452SOL    HW115253  14.803   1.301   4.024
 4452SOL    HW215254   0.028   1.199   4.079
 4453SOL     OW15255   9.685   2.018  11.607
 4453SOL    HW115256   9.738   2.093  11.633
 4453SOL    HW215257   9.598   2.054  11.593
 4454SOL     OW15258   3.326   9.883   9.962
 4454SOL    HW115259   3.418   9.857   9.971
 4454SOL    HW215260   3.278   9.821  10.018
 4455SOL     OW15261   5.521  13.024   5.587
 4455SOL    HW115262   5.476  13.018   5.502
 4455SOL    HW215263   5.522  12.935   5.620
 4456SOL     OW15264   2.901  13.809  14.600
 4456SOL    HW115265   2.947  13.766  14.672
 4456SOL    HW215266   2.814  13.770  14.600
 4457SOL     OW15267   4.009   8.800  13.522
 4457SOL    HW115268   4.012   8.705  13.513
 4457SOL    HW215269   4.068   8.832  13.453
 4458SOL     OW15270   5.730  14.614   4.859
 4458SOL    HW115271   5.649  14.577   4.824
 4458SOL    HW215272   5.758  14.678   4.793
 4459SOL     OW15273   2.632  14.568   9.900
 4459SOL    HW115274   2.726  14.552   9.897
 4459SOL    HW215275   2.615  14.595   9.990
 4460SOL     OW15276  14.105   8.400   5.185
 4460SOL    HW115277  14.150   8.423   5.104
 4460SOL    HW215278  14.057   8.479   5.210
 4461SOL     OW15279   1.491   8.857   4.296
 4461SOL    HW115280   1.417   8.826   4.244
 4461SOL    HW215281   1.454   8.926   4.351
 4462SOL     OW15282   7.431   0.547   1.254
 4462SOL    HW115283   7.418   0.642   1.263
 4462SOL    HW215284   7.342   0.511   1.257
 4463SOL     OW15285   1.608   5.435   1.801
 4463SOL    HW115286   1.525   5.401   1.834
 4463SOL    HW215287   1.604   5.529   1.819
 4464SOL     OW15288  12.792   8.957   9.094
 4464SOL    HW115289  12.851   8.895   9.052
 4464SOL    HW215290  12.847   9.005   9.156
 4465SOL     OW15291  11.915  14.845  11.873
 4465SOL    HW115292  11.900  14.803  11.958
 4465SOL    HW215293  12.006  14.824  11.852
 4466SOL     OW15294  10.169  13.121   8.741
 4466SOL    HW115295  10.197  13.050   8.800
 4466SOL    HW215296  10.147  13.193   8.800
 4467SOL     OW15297  11.601   1.807  14.729
 4467SOL    HW115298  11.680   1.812  14.783
 4467SOL    HW215299  11.575   1.898  14.716
 4468SOL     OW15300  14.017   4.760   8.915
 4468SOL    HW115301  14.015   4.665   8.926
 4468SOL    HW215302  13.975   4.794   8.994
 4469SOL     OW15303   7.789  13.724   7.039
 4469SOL    HW115304   7.855  13.766   7.093
 4469SOL    HW215305   7.826  13.725   6.951
 4470SOL     OW15306   0.711   8.879   6.590
 4470SOL    HW115307   0.648   8.949   6.574
 4470SOL    HW215308   0.659   8.799   6.593
 4471SOL     OW15309   7.443   9.453   6.052
 4471SOL    HW115310   7.513   9.446   5.987
 4471SOL    HW215311   7.487   9.490   6.129
 4472SOL     OW15312   8.332   6.722   4.679
 4472SOL    HW115313   8.343   6.767   4.763
 4472SOL    HW215314   8.400   6.759   4.622
 4473SOL     OW15315   5.133  11.056   2.774
 4473SOL    HW115316   5.184  10.985   2.813
 4473SOL    HW215317   5.043  11.024   2.774
 4474SOL     OW15318  14.303  14.806  12.193
 4474SOL    HW115319  14.363  14.784  12.265
 4474SOL    HW215320  14.243  14.870  12.230
 4475SOL     OW15321   3.048  10.238   4.961
 4475SOL    HW115322   3.046  10.210   5.052
 4475SOL    HW215323   3.138  10.266   4.947
 4476SOL     OW15324   6.430   6.790  14.448
 4476SOL    HW115325   6.370   6.752  14.512
 4476SOL    HW215326   6.390   6.770  14.363
 4477SOL     OW15327   9.518  11.538   3.199
 4477SOL    HW115328   9.434  11.583   3.207
 4477SOL    HW215329   9.520  11.478   3.273
 4478SOL     OW15330   2.809   4.065   4.694
 4478SOL    HW115331   2.755   4.108   4.761
 4478SOL    HW215332   2.886   4.122   4.685
 4479SOL     OW15333   6.110   7.664   3.716
 4479SOL    HW115334   6.137   7.666   3.624
 4479SOL    HW215335   6.052   7.740   3.725
 4480SOL     OW15336   3.421   7.954   4.119
 4480SOL    HW115337   3.410   8.016   4.191
 4480SOL    HW215338   3.409   8.007   4.040
 4481SOL     OW15339   8.402  10.411  11.863
 4481SOL    HW115340   8.367  10.334  11.819
 4481SOL    HW215341   8.412  10.383  11.954
 4482SOL     OW15342   0.545   4.872  10.942
 4482SOL    HW115343   0.586   4.862  10.857
 4482SOL    HW215344   0.570   4.793  10.991
 4483SOL     OW15345  14.404  12.811   4.753
 4483SOL    HW115346  14.369  12.900   4.762
 4483SOL    HW215347  14.429  12.787   4.842
 4484SOL     OW15348   0.729   5.467   4.314
 4484SOL    HW115349   0.637   5.439   4.316
 4484SOL    HW215350   0.742   5.511   4.399
 4485SOL     OW15351   8.346   3.238   7.782
 4485SOL    HW115352   8.434   3.273   7.798
 4485SOL    HW215353   8.342   3.225   7.688
 4486SOL     OW15354  11.057   8.278   7.687
 4486SOL    HW115355  10.965   8.257   7.674
 4486SOL    HW215356  11.057   8.355   7.744
 4487SOL     OW15357  11.433   8.334   5.191
 4487SOL    HW115358  11.497   8.320   5.122
 4487SOL    HW215359  11.369   8.264   5.180
 4488SOL     OW15360   3.944  10.558  14.546
 4488SOL    HW115361   3.866  10.514  14.513
 4488SOL    HW215362   3.913  10.643  14.577
 4489SOL     OW15363   9.111   9.465   7.511
 4489SOL    HW115364   9.068   9.417   7.582
 4489SOL    HW215365   9.042   9.478   7.445
 4490SOL     OW15366  10.644  11.919   9.829
 4490SOL    HW115367  10.585  11.900   9.902
 4490SOL    HW215368  10.710  11.977   9.866
 4491SOL     OW15369  14.155   8.903   5.328
 4491SOL    HW115370  14.070   8.897   5.286
 4491SOL    HW215371  14.198   8.978   5.287
 4492SOL     OW15372   9.531   8.804  14.792
 4492SOL    HW115373   9.621   8.822  14.819
 4492SOL    HW215374   9.485   8.887  14.804
 4493SOL     OW15375  11.037  14.419   3.760
 4493SOL    HW115376  10.979  14.369   3.702
 4493SOL    HW215377  11.004  14.509   3.755
 4494SOL     OW15378   2.214  13.525   5.041
 4494SOL    HW115379   2.186  13.616   5.036
 4494SOL    HW215380   2.284  13.517   4.976
 4495SOL     OW15381   7.296   5.237   5.392
 4495SOL    HW115382   7.322   5.171   5.328
 4495SOL    HW215383   7.306   5.320   5.346
 4496SOL     OW15384   7.201  13.645   5.641
 4496SOL    HW115385   7.111  13.653   5.609
 4496SOL    HW215386   7.192  13.626   5.734
 4497SOL     OW15387  12.163  11.903   2.871
 4497SOL    HW115388  12.181  11.922   2.964
 4497SOL    HW215389  12.081  11.854   2.872
 4498SOL     OW15390  11.171  13.626  14.663
 4498SOL    HW115391  11.220  13.701  14.631
 4498SOL    HW215392  11.092  13.663  14.702
 4499SOL     OW15393  12.025   4.271  11.444
 4499SOL    HW115394  12.077   4.334  11.394
 4499SOL    HW215395  11.995   4.320  11.520
 4500SOL     OW15396   6.280   9.570   5.710
 4500SOL    HW115397   6.260   9.568   5.616
 4500SOL    HW215398   6.225   9.502   5.748
 4501SOL     OW15399   2.897   8.601  12.918
 4501SOL    HW115400   2.990   8.589  12.897
 4501SOL    HW215401   2.897   8.620  13.012
 4502SOL     OW15402  11.794  13.319   0.965
 4502SOL    HW115403  11.760  13.408   0.958
 4502SOL    HW215404  11.796  13.287   0.874
 4503SOL     OW15405   7.848   2.467  12.000
 4503SOL    HW115406   7.845   2.563  11.996
 4503SOL    HW215407   7.931   2.448  12.044
 4504SOL     OW15408  14.130  11.657   9.400
 4504SOL    HW115409  14.193  11.712   9.448
 4504SOL    HW215410  14.177  11.577   9.381
 4505SOL     OW15411   5.677  12.919  14.088
 4505SOL    HW115412   5.638  12.838  14.121
 4505SOL    HW215413   5.628  12.938  14.008
 4506SOL     OW15414  10.009   6.548   0.092
 4506SOL    HW115415   9.920   6.526   0.065
 4506SOL    HW215416  10.017   6.511   0.180
 4507SOL     OW15417   9.353  10.264   6.068
 4507SOL    HW115418   9.329  10.237   5.979
 4507SOL    HW215419   9.292  10.218   6.125
 4508SOL     OW15420  10.678   0.939   8.747
 4508SOL    HW115421  10.610   0.960   8.811
 4508SOL    HW215422  10.630   0.906   8.671
 4509SOL     OW15423   2.906  10.407   9.375
 4509SOL    HW115424   2.865  10.324   9.400
 4509SOL    HW215425   2.833  10.469   9.369
 4510SOL     OW15426  11.631   6.389   3.040
 4510SOL    HW115427  11.654   6.297   3.058
 4510SOL    HW215428  11.579   6.416   3.116
 4511SOL     OW15429   2.273   0.242   3.631
 4511SOL    HW115430   2.218   0.165   3.619
 4511SOL    HW215431   2.362   0.211   3.614
 4512SOL     OW15432   1.285   7.148   0.633
 4512SOL    HW115433   1.306   7.059   0.662
 4512SOL    HW215434   1.339   7.204   0.688
 4513SOL     OW15435  13.909  10.701   9.241
 4513SOL    HW115436  13.839  10.702   9.306
 4513SOL    HW215437  13.978  10.649   9.281
 4514SOL     OW15438   9.945  10.857   5.752
 4514SOL    HW115439   9.869  10.915   5.744
 4514SOL    HW215440  10.002  10.901   5.815
 4515SOL     OW15441   7.054   4.297   9.344
 4515SOL    HW115442   7.117   4.225   9.341
 4515SOL    HW215443   6.981   4.268   9.289
 4516SOL     OW15444   3.541  14.744   1.578
 4516SOL    HW115445   3.599  14.804   1.626
 4516SOL    HW215446   3.600  14.694   1.522
 4517SOL     OW15447   3.643   3.913  11.089
 4517SOL    HW115448   3.615   4.003  11.106
 4517SOL    HW215449   3.720   3.922  11.033
 4518SOL     OW15450   2.016   3.106  12.989
 4518SOL    HW115451   2.021   3.012  12.970
 4518SOL    HW215452   2.066   3.116  13.070
 4519SOL     OW15453  13.280   5.524   6.165
 4519SOL    HW115454  13.306   5.568   6.084
 4519SOL    HW215455  13.189   5.549   6.178
 4520SOL     OW15456   4.327  11.122   9.910
 4520SOL    HW115457   4.336  11.032   9.880
 4520SOL    HW215458   4.241  11.150   9.877
 4521SOL     OW15459  11.156  11.367   2.473
 4521SOL    HW115460  11.066  11.348   2.446
 4521SOL    HW215461  11.168  11.317   2.554
 4522SOL     OW15462  10.795  12.380   4.203
 4522SOL    HW115463  10.766  12.426   4.282
 4522SOL    HW215464  10.891  12.381   4.208
 4523SOL     OW15465   9.998   5.657  13.146
 4523SOL    HW115466  10.032   5.707  13.220
 4523SOL    HW215467  10.058   5.676  13.074
 4524SOL     OW15468   5.280   8.700  11.649
 4524SOL    HW115469   5.266   8.697  11.554
 4524SOL    HW215470   5.247   8.616  11.680
 4525SOL     OW15471   2.486   0.304   6.780
 4525SOL    HW115472   2.581   0.291   6.775
 4525SOL    HW215473   2.451   0.216   6.791
 4526SOL     OW15474   2.883   3.558   8.482
 4526SOL    HW115475   2.861   3.530   8.571
 4526SOL    HW215476   2.970   3.522   8.466
 4527SOL     OW15477  13.984   4.235   3.664
 4527SOL    HW115478  14.041   4.302   3.625
 4527SOL    HW215479  14.044   4.182   3.716
 4528SOL     OW15480  11.173  12.756  13.989
 4528SOL    HW115481  11.110  12.825  14.010
 4528SOL    HW215482  11.240  12.763  14.057
 4529SOL     OW15483  13.416   0.720   8.058
 4529SOL    HW115484  13.400   0.697   8.150
 4529SOL    HW215485  13.370   0.654   8.008
 4530SOL     OW15486   1.854   9.108  12.616
 4530SOL    HW115487   1.853   9.026  12.567
 4530SOL    HW215488   1.895   9.086  12.700
 4531SOL     OW15489   7.531  12.406   4.629
 4531SOL    HW115490   7.447  12.386   4.588
 4531SOL    HW215491   7.514  12.483   4.682
 4532SOL     OW15492   4.624  10.519   6.542
 4532SOL    HW115493   4.670  10.561   6.615
 4532SOL    HW215494   4.608  10.590   6.480
 4533SOL     OW15495   1.690   5.459   9.158
 4533SOL    HW115496   1.632   5.534   9.171
 4533SOL    HW215497   1.668   5.427   9.071
 4534SOL     OW15498   7.382  10.962   2.868
 4534SOL    HW115499   7.381  11.020   2.791
 4534SOL    HW215500   7.475  10.956   2.892
 4535SOL     OW15501   7.050   9.200  10.123
 4535SOL    HW115502   6.966   9.166  10.154
 4535SOL    HW215503   7.108   9.195  10.199
 4536SOL     OW15504   2.374  14.710   3.867
 4536SOL    HW115505   2.284  14.738   3.886
 4536SOL    HW215506   2.417  14.788   3.834
 4537SOL     OW15507   0.893  10.636   5.395
 4537SOL    HW115508   0.967  10.663   5.340
 4537SOL    HW215509   0.817  10.680   5.356
 4538SOL     OW15510   8.923   6.274  14.031
 4538SOL    HW115511   8.876   6.314  13.958
 4538SOL    HW215512   8.857   6.260  14.099
 4539SOL     OW15513  12.825  11.237   0.735
 4539SOL    HW115514  12.907  11.260   0.692
 4539SOL    HW215515  12.772  11.316   0.730
 4540SOL     OW15516  12.555   2.996   0.754
 4540SOL    HW115517  12.578   2.904   0.768
 4540SOL    HW215518  12.578   3.039   0.837
 4541SOL     OW15519   0.055   7.939   5.656
 4541SOL    HW115520   0.013   8.009   5.705
 4541SOL    HW215521   0.021   7.859   5.695
 4542SOL     OW15522   0.938   1.843   8.177
 4542SOL    HW115523   0.999   1.784   8.132
 4542SOL    HW215524   0.851   1.814   8.147
 4543SOL     OW15525   3.383  11.572   7.568
 4543SOL    HW115526   3.467  11.535   7.595
 4543SOL    HW215527   3.332  11.579   7.648
 4544SOL     OW15528   9.208   8.329  10.133
 4544SOL    HW115529   9.290   8.301  10.173
 4544SOL    HW215530   9.226   8.327  10.039
 4545SOL     OW15531  12.122   7.691   5.178
 4545SOL    HW115532  12.111   7.755   5.107
 4545SOL    HW215533  12.145   7.610   5.134
 4546SOL     OW15534   2.284   3.156  13.645
 4546SOL    HW115535   2.308   3.171  13.554
 4546SOL    HW215536   2.214   3.219  13.662
 4547SOL     OW15537  10.910  11.476   7.183
 4547SOL    HW115538  10.933  11.448   7.094
 4547SOL    HW215539  10.829  11.428   7.202
 4548SOL     OW15540   4.860   2.115   7.494
 4548SOL    HW115541   4.917   2.192   7.486
 4548SOL    HW215542   4.904   2.059   7.558
 4549SOL     OW15543  11.106  13.732  10.555
 4549SOL    HW115544  11.031  13.735  10.496
 4549SOL    HW215545  11.114  13.822  10.588
 4550SOL     OW15546  10.099   8.834   8.958
 4550SOL    HW115547  10.145   8.913   8.928
 4550SOL    HW215548  10.093   8.845   9.053
 4551SOL     OW15549  10.669  13.791  11.015
 4551SOL    HW115550  10.649  13.859  10.950
 4551SOL    HW215551  10.656  13.709  10.967
 4552SOL     OW15552   9.679  11.303   1.051
 4552SOL    HW115553   9.610  11.303   0.985
 4552SOL    HW215554   9.668  11.387   1.097
 4553SOL     OW15555  11.842   3.935   9.326
 4553SOL    HW115556  11.850   3.859   9.268
 4553SOL    HW215557  11.760   3.920   9.373
 4554SOL     OW15558   3.340   3.750  11.647
 4554SOL    HW115559   3.275   3.722  11.583
 4554SOL    HW215560   3.350   3.844  11.632
 4555SOL     OW15561   4.086   0.919   8.155
 4555SOL    HW115562   4.008   0.969   8.179
 4555SOL    HW215563   4.064   0.880   8.070
 4556SOL     OW15564   4.889   3.899  12.788
 4556SOL    HW115565   4.836   3.862  12.859
 4556SOL    HW215566   4.827   3.910  12.716
 4557SOL     OW15567  13.768  10.186  10.175
 4557SOL    HW115568  13.837  10.217  10.115
 4557SOL    HW215569  13.799  10.100  10.203
 4558SOL     OW15570   9.291  13.476   0.021
 4558SOL    HW115571   9.296  13.426   0.102
 4558SOL    HW215572   9.366  13.446  14.842
 4559SOL     OW15573  14.727  12.131  13.983
 4559SOL    HW115574  14.709  12.224  13.970
 4559SOL    HW215575  14.668  12.087  13.921
 4560SOL     OW15576  11.920   8.863  10.120
 4560SOL    HW115577  11.900   8.858  10.027
 4560SOL    HW215578  12.015   8.878  10.123
 4561SOL     OW15579   4.191   9.128  12.739
 4561SOL    HW115580   4.208   9.116  12.646
 4561SOL    HW215581   4.129   9.059  12.762
 4562SOL     OW15582   1.078   8.694  10.420
 4562SOL    HW115583   1.158   8.642  10.418
 4562SOL    HW215584   1.021   8.648  10.481
 4563SOL     OW15585   0.643   6.021   7.519
 4563SOL    HW115586   0.568   6.080   7.524
 4563SOL    HW215587   0.690   6.049   7.440
 4564SOL     OW15588   4.863  13.992  11.201
 4564SOL    HW115589   4.920  13.946  11.262
 4564SOL    HW215590   4.807  14.047  11.257
 4565SOL     OW15591   7.989  13.089   1.004
 4565SOL    HW115592   8.021  13.027   1.069
 4565SOL    HW215593   7.894  13.080   1.007
 4566SOL     OW15594   5.872   2.041  11.570
 4566SOL    HW115595   5.810   2.113  11.562
 4566SOL    HW215596   5.948   2.069  11.519
 4567SOL     OW15597  13.733   0.712  13.332
 4567SOL    HW115598  13.639   0.730  13.337
 4567SOL    HW215599  13.746   0.636  13.389
 4568SOL     OW15600   7.408  12.625   8.951
 4568SOL    HW115601   7.444  12.591   8.869
 4568SOL    HW215602   7.383  12.715   8.930
 4569SOL     OW15603   1.857  13.802  12.730
 4569SOL    HW115604   1.855  13.777  12.823
 4569SOL    HW215605   1.822  13.892  12.729
 4570SOL     OW15606  11.793   8.834   2.778
 4570SOL    HW115607  11.778   8.747   2.742
 4570SOL    HW215608  11.747   8.893   2.718
 4571SOL     OW15609  11.818   7.507   4.346
 4571SOL    HW115610  11.814   7.449   4.422
 4571SOL    HW215611  11.851   7.590   4.381
 4572SOL     OW15612   7.113   3.115  13.978
 4572SOL    HW115613   7.099   3.200  14.019
 4572SOL    HW215614   7.206   3.096  13.993
 4573SOL     OW15615  10.291   7.680  12.141
 4573SOL    HW115616  10.237   7.602  12.131
 4573SOL    HW215617  10.380   7.650  12.120
 4574SOL     OW15618   6.739  14.770   5.977
 4574SOL    HW115619   6.665  14.772   5.916
 4574SOL    HW215620   6.700  14.776   6.064
 4575SOL     OW15621  11.446   0.798   9.775
 4575SOL    HW115622  11.400   0.760   9.700
 4575SOL    HW215623  11.524   0.744   9.785
 4576SOL     OW15624   3.214   3.377  12.463
 4576SOL    HW115625   3.244   3.287  12.468
 4576SOL    HW215626   3.263   3.423  12.531
 4577SOL     OW15627   9.641   8.323   4.232
 4577SOL    HW115628   9.607   8.236   4.209
 4577SOL    HW215629   9.615   8.336   4.323
 4578SOL     OW15630  10.353   4.632   7.207
 4578SOL    HW115631  10.330   4.712   7.255
 4578SOL    HW215632  10.422   4.659   7.147
 4579SOL     OW15633   0.980   7.352   5.813
 4579SOL    HW115634   1.073   7.369   5.797
 4579SOL    HW215635   0.935   7.424   5.769
 4580SOL     OW15636  10.636   1.721   1.205
 4580SOL    HW115637  10.696   1.719   1.280
 4580SOL    HW215638  10.589   1.637   1.209
 4581SOL     OW15639   3.128  14.364   9.159
 4581SOL    HW115640   3.210  14.317   9.142
 4581SOL    HW215641   3.065  14.325   9.099
 4582SOL     OW15642   9.692   0.535   6.568
 4582SOL    HW115643   9.674   0.578   6.485
 4582SOL    HW215644   9.609   0.540   6.616
 4583SOL     OW15645   3.679  13.827  12.129
 4583SOL    HW115646   3.706  13.833  12.038
 4583SOL    HW215647   3.761  13.834  12.179
 4584SOL     OW15648  13.763   3.752   9.256
 4584SOL    HW115649  13.846   3.743   9.302
 4584SOL    HW215650  13.736   3.662   9.238
 4585SOL     OW15651   0.103   5.678   5.423
 4585SOL    HW115652   0.022   5.626   5.425
 4585SOL    HW215653   0.099   5.725   5.340
 4586SOL     OW15654  10.367  14.821   4.944
 4586SOL    HW115655  10.283  14.780   4.967
 4586SOL    HW215656  10.429  14.784   5.006
 4587SOL     OW15657  14.535   5.972   1.182
 4587SOL    HW115658  14.525   5.877   1.190
 4587SOL    HW215659  14.447   6.004   1.165
 4588SOL     OW15660   8.056   5.911   0.189
 4588SOL    HW115661   8.098   5.928   0.104
 4588SOL    HW215662   8.081   5.821   0.210
 4589SOL     OW15663   5.526  13.410   9.915
 4589SOL    HW115664   5.462  13.456   9.970
 4589SOL    HW215665   5.579  13.480   9.876
 4590SOL     OW15666   6.955   3.978   4.844
 4590SOL    HW115667   6.913   3.947   4.924
 4590SOL    HW215668   6.990   3.899   4.803
 4591SOL     OW15669  14.211   4.353   5.253
 4591SOL    HW115670  14.255   4.268   5.259
 4591SOL    HW215671  14.119   4.331   5.240
 4592SOL     OW15672   1.417   3.750   0.078
 4592SOL    HW115673   1.352   3.681   0.068
 4592SOL    HW215674   1.498   3.703   0.098
 4593SOL     OW15675   0.408   4.068  13.497
 4593SOL    HW115676   0.362   4.046  13.416
 4593SOL    HW215677   0.339   4.074  13.563
 4594SOL     OW15678   8.013   7.611  11.129
 4594SOL    HW115679   8.018   7.616  11.034
 4594SOL    HW215680   7.921   7.627  11.149
 4595SOL     OW15681   8.610   4.897   0.887
 4595SOL    HW115682   8.655   4.815   0.906
 4595SOL    HW215683   8.627   4.952   0.963
 4596SOL     OW15684  11.581   2.783  14.654
 4596SOL    HW115685  11.646   2.781  14.724
 4596SOL    HW215686  11.547   2.873  14.655
 4597SOL     OW15687  14.728   9.897   0.009
 4597SOL    HW115688  14.652   9.931   0.056
 4597SOL    HW215689  14.738   9.954  14.806
 4598SOL     OW15690   0.776   5.868   1.421
 4598SOL    HW115691   0.805   5.957   1.401
 4598SOL    HW215692   0.742   5.835   1.338
 4599SOL     OW15693   0.310   7.101   1.382
 4599SOL    HW115694   0.291   7.024   1.436
 4599SOL    HW215695   0.388   7.140   1.422
 4600SOL     OW15696  10.674   6.866   4.363
 4600SOL    HW115697  10.633   6.784   4.391
 4600SOL    HW215698  10.642   6.931   4.426
 4601SOL     OW15699   8.554   5.639  12.604
 4601SOL    HW115700   8.530   5.563  12.551
 4601SOL    HW215701   8.585   5.602  12.686
 4602SOL     OW15702   8.598  11.226  13.936
 4602SOL    HW115703   8.573  11.301  13.990
 4602SOL    HW215704   8.518  11.202  13.890
 4603SOL     OW15705   9.363  11.033   0.476
 4603SOL    HW115706   9.284  11.086   0.482
 4603SOL    HW215707   9.411  11.051   0.556
 4604SOL     OW15708   4.284   3.085  10.989
 4604SOL    HW115709   4.364   3.125  11.024
 4604SOL    HW215710   4.304   2.992  10.983
 4605SOL     OW15711   2.010  10.135   8.926
 4605SOL    HW115712   2.053  10.054   8.953
 4605SOL    HW215713   1.960  10.111   8.849
 4606SOL     OW15714   6.690  11.810   8.649
 4606SOL    HW115715   6.634  11.849   8.716
 4606SOL    HW215716   6.777  11.806   8.689
 4607SOL     OW15717   6.738   4.226   0.062
 4607SOL    HW115718   6.823   4.224   0.018
 4607SOL    HW215719   6.747   4.295   0.128
 4608SOL     OW15720   2.351  13.379   6.752
 4608SOL    HW115721   2.432  13.429   6.739
 4608SOL    HW215722   2.282  13.437   6.721
 4609SOL     OW15723   4.958  14.754   2.310
 4609SOL    HW115724   4.942  14.802   2.391
 4609SOL    HW215725   4.968  14.823   2.244
 4610SOL     OW15726   3.830   0.773   9.949
 4610SOL    HW115727   3.751   0.756  10.001
 4610SOL    HW215728   3.875   0.843   9.997
 4611SOL     OW15729   6.796  13.775   1.257
 4611SOL    HW115730   6.724  13.828   1.290
 4611SOL    HW215731   6.859  13.773   1.329
 4612SOL     OW15732   6.428   8.566   8.040
 4612SOL    HW115733   6.518   8.577   8.011
 4612SOL    HW215734   6.416   8.471   8.047
 4613SOL     OW15735   8.040   2.199   6.361
 4613SOL    HW115736   8.076   2.214   6.274
 4613SOL    HW215737   8.027   2.286   6.397
 4614SOL     OW15738   8.530   0.186   5.944
 4614SOL    HW115739   8.551   0.247   6.014
 4614SOL    HW215740   8.435   0.193   5.932
 4615SOL     OW15741   4.004  12.032   7.479
 4615SOL    HW115742   4.030  11.944   7.504
 4615SOL    HW215743   4.081  12.086   7.499
 4616SOL     OW15744  14.641   2.523  13.051
 4616SOL    HW115745  14.710   2.589  13.059
 4616SOL    HW215746  14.686   2.443  13.024
 4617SOL     OW15747  11.533   3.546   4.754
 4617SOL    HW115748  11.491   3.580   4.833
 4617SOL    HW215749  11.598   3.612   4.732
 4618SOL     OW15750   4.575   3.768   9.548
 4618SOL    HW115751   4.560   3.684   9.504
 4618SOL    HW215752   4.615   3.824   9.481
 4619SOL     OW15753  12.553   3.443   6.058
 4619SOL    HW115754  12.636   3.396   6.056
 4619SOL    HW215755  12.562   3.513   5.993
 4620SOL     OW15756   3.516   7.153   3.916
 4620SOL    HW115757   3.451   7.222   3.906
 4620SOL    HW215758   3.586   7.176   3.855
 4621SOL     OW15759   2.652   6.245   3.995
 4621SOL    HW115760   2.748   6.242   3.991
 4621SOL    HW215761   2.626   6.154   4.009
 4622SOL     OW15762  14.342   8.754  13.930
 4622SOL    HW115763  14.325   8.817  13.860
 4622SOL    HW215764  14.255   8.730  13.962
 4623SOL     OW15765   1.983   5.432   0.823
 4623SOL    HW115766   1.986   5.491   0.898
 4623SOL    HW215767   2.006   5.346   0.859
 4624SOL     OW15768  10.532   7.657   9.315
 4624SOL    HW115769  10.485   7.670   9.397
 4624SOL    HW215770  10.475   7.696   9.249
 4625SOL     OW15771  10.349   2.819   3.501
 4625SOL    HW115772  10.352   2.901   3.551
 4625SOL    HW215773  10.433   2.817   3.454
 4626SOL     OW15774   2.293   9.861   6.324
 4626SOL    HW115775   2.203   9.873   6.296
 4626SOL    HW215776   2.299   9.770   6.351
 4627SOL     OW15777   5.380   3.290   9.970
 4627SOL    HW115778   5.419   3.320   9.888
 4627SOL    HW215779   5.299   3.340   9.978
 4628SOL     OW15780   8.982   2.907  11.367
 4628SOL    HW115781   9.034   2.975  11.325
 4628SOL    HW215782   9.037   2.828  11.362
 4629SOL     OW15783  10.790   5.534   2.512
 4629SOL    HW115784  10.729   5.487   2.456
 4629SOL    HW215785  10.832   5.466   2.565
 4630SOL     OW15786   8.740   7.168   2.326
 4630SOL    HW115787   8.688   7.174   2.246
 4630SOL    HW215788   8.830   7.164   2.296
 4631SOL     OW15789   8.876  12.164   4.891
 4631SOL    HW115790   8.935  12.213   4.835
 4631SOL    HW215791   8.925  12.150   4.972
 4632SOL     OW15792  10.670  10.769  11.396
 4632SOL    HW115793  10.675  10.835  11.465
 4632SOL    HW215794  10.741  10.708  11.416
 4633SOL     OW15795   1.473  10.440   9.921
 4633SOL    HW115796   1.487  10.418  10.013
 4633SOL    HW215797   1.556  10.419   9.878
 4634SOL     OW15798  13.941   2.168   9.835
 4634SOL    HW115799  13.855   2.210   9.833
 4634SOL    HW215800  13.957   2.141   9.745
 4635SOL     OW15801   7.310   8.708   9.567
 4635SOL    HW115802   7.259   8.633   9.534
 4635SOL    HW215803   7.247   8.757   9.620
 4636SOL     OW15804   5.045  12.944   5.094
 4636SOL    HW115805   5.107  12.874   5.114
 4636SOL    HW215806   5.032  12.989   5.177
 4637SOL     OW15807  11.511  14.862  12.445
 4637SOL    HW115808  11.434  14.859  12.502
 4637SOL    HW215809  11.498  14.789  12.384
 4638SOL     OW15810   3.386   7.440   6.536
 4638SOL    HW115811   3.434   7.507   6.584
 4638SOL    HW215812   3.304   7.484   6.510
 4639SOL     OW15813   8.944   0.548   8.661
 4639SOL    HW115814   8.851   0.529   8.669
 4639SOL    HW215815   8.988   0.472   8.699
 4640SOL     OW15816   1.111   8.956  14.578
 4640SOL    HW115817   1.129   9.028  14.639
 4640SOL    HW215818   1.180   8.963  14.513
 4641SOL     OW15819   5.778  12.654   9.691
 4641SOL    HW115820   5.815  12.578   9.735
 4641SOL    HW215821   5.835  12.727   9.715
 4642SOL     OW15822   8.943   7.995   1.186
 4642SOL    HW115823   8.947   7.922   1.125
 4642SOL    HW215824   8.947   8.073   1.131
 4643SOL     OW15825   3.317   4.395   0.660
 4643SOL    HW115826   3.365   4.323   0.620
 4643SOL    HW215827   3.307   4.369   0.752
 4644SOL     OW15828   0.987   7.640  12.842
 4644SOL    HW115829   1.039   7.720  12.851
 4644SOL    HW215830   0.907   7.658  12.890
 4645SOL     OW15831   4.863   5.039  10.754
 4645SOL    HW115832   4.938   5.098  10.760
 4645SOL    HW215833   4.790   5.090  10.788
 4646SOL     OW15834  14.737  12.797  13.558
 4646SOL    HW115835  14.656  12.747  13.551
 4646SOL    HW215836  14.747  12.839  13.472
 4647SOL     OW15837   3.125   7.018   6.409
 4647SOL    HW115838   3.148   7.057   6.493
 4647SOL    HW215839   3.196   6.957   6.390
 4648SOL     OW15840  12.909  14.766   9.727
 4648SOL    HW115841  12.949  14.683   9.752
 4648SOL    HW215842  12.926  14.824   9.801
 4649SOL     OW15843   7.911   6.742  13.791
 4649SOL    HW115844   7.994   6.762  13.833
 4649SOL    HW215845   7.855   6.711  13.862
 4650SOL     OW15846  12.842  12.923   2.728
 4650SOL    HW115847  12.892  12.915   2.809
 4650SOL    HW215848  12.756  12.887   2.749
 4651SOL     OW15849   3.007   9.358  13.858
 4651SOL    HW115850   3.093   9.356  13.817
 4651SOL    HW215851   2.962   9.432  13.817
 4652SOL     OW15852   0.608   7.232  11.033
 4652SOL    HW115853   0.524   7.186  11.029
 4652SOL    HW215854   0.650   7.212  10.950
 4653SOL     OW15855   0.400   0.862  11.406
 4653SOL    HW115856   0.438   0.937  11.452
 4653SOL    HW215857   0.475   0.816  11.369
 4654SOL     OW15858   3.659   7.580  10.681
 4654SOL    HW115859   3.676   7.578  10.587
 4654SOL    HW215860   3.625   7.668  10.697
 4655SOL     OW15861   1.592   4.160  11.883
 4655SOL    HW115862   1.606   4.107  11.805
 4655SOL    HW215863   1.655   4.232  11.875
 4656SOL     OW15864   3.944  14.725   9.006
 4656SOL    HW115865   3.859  14.699   9.039
 4656SOL    HW215866   3.933  14.725   8.910
 4657SOL     OW15867   8.055   6.649   1.332
 4657SOL    HW115868   7.975   6.635   1.383
 4657SOL    HW215869   8.025   6.656   1.242
 4658SOL     OW15870   1.713   2.595   9.606
 4658SOL    HW115871   1.617   2.591   9.613
 4658SOL    HW215872   1.736   2.521   9.551
 4659SOL     OW15873  11.655  10.066   6.575
 4659SOL    HW115874  11.659  10.140   6.635
 4659SOL    HW215875  11.561  10.049   6.564
 4660SOL     OW15876   9.190  11.598   1.408
 4660SOL    HW115877   9.278  11.580   1.374
 4660SOL    HW215878   9.157  11.512   1.436
 4661SOL     OW15879   6.098   0.383   3.495
 4661SOL    HW115880   6.087   0.469   3.537
 4661SOL    HW215881   6.187   0.356   3.519
 4662SOL     OW15882   6.700   8.429  11.790
 4662SOL    HW115883   6.680   8.372  11.716
 4662SOL    HW215884   6.628   8.492  11.792
 4663SOL     OW15885  12.260   1.974   2.203
 4663SOL    HW115886  12.223   2.007   2.285
 4663SOL    HW215887  12.333   2.032   2.184
 4664SOL     OW15888   7.932   5.013   5.762
 4664SOL    HW115889   7.911   5.078   5.695
 4664SOL    HW215890   8.018   4.978   5.736
 4665SOL     OW15891   6.836   8.105   9.994
 4665SOL    HW115892   6.877   8.053   9.925
 4665SOL    HW215893   6.747   8.070  10.000
 4666SOL     OW15894   5.653  11.227   6.723
 4666SOL    HW115895   5.653  11.180   6.639
 4666SOL    HW215896   5.572  11.199   6.766
 4667SOL     OW15897   2.006   1.503   1.421
 4667SOL    HW115898   2.016   1.495   1.515
 4667SOL    HW215899   1.919   1.468   1.403
 4668SOL     OW15900   4.552   8.341   5.442
 4668SOL    HW115901   4.562   8.281   5.368
 4668SOL    HW215902   4.514   8.287   5.511
 4669SOL     OW15903   0.705  14.598   2.596
 4669SOL    HW115904   0.613  14.620   2.616
 4669SOL    HW215905   0.755  14.670   2.634
 4670SOL     OW15906  14.122  11.340   3.090
 4670SOL    HW115907  14.079  11.425   3.091
 4670SOL    HW215908  14.215  11.360   3.080
 4671SOL     OW15909   4.080   5.669  13.298
 4671SOL    HW115910   4.040   5.677  13.384
 4671SOL    HW215911   4.007   5.674  13.236
 4672SOL     OW15912  14.178   5.477  12.406
 4672SOL    HW115913  14.168   5.515  12.319
 4672SOL    HW215914  14.114   5.405  12.408
 4673SOL     OW15915  14.160  10.327   3.970
 4673SOL    HW115916  14.099  10.305   3.900
 4673SOL    HW215917  14.158  10.423   3.973
 4674SOL     OW15918  14.377   1.998  10.760
 4674SOL    HW115919  14.335   2.084  10.761
 4674SOL    HW215920  14.371   1.967  10.850
 4675SOL     OW15921   7.595   6.058  12.725
 4675SOL    HW115922   7.616   6.135  12.672
 4675SOL    HW215923   7.676   6.038  12.771
 4676SOL     OW15924   0.509   0.408   6.459
 4676SOL    HW115925   0.570   0.335   6.463
 4676SOL    HW215926   0.429   0.376   6.500
 4677SOL     OW15927   9.845   8.558   3.903
 4677SOL    HW115928   9.827   8.498   3.831
 4677SOL    HW215929   9.923   8.521   3.945
 4678SOL     OW15930   2.660   0.156   4.478
 4678SOL    HW115931   2.653   0.251   4.475
 4678SOL    HW215932   2.583   0.128   4.527
 4679SOL     OW15933   3.487   2.993   7.536
 4679SOL    HW115934   3.463   3.077   7.575
 4679SOL    HW215935   3.583   2.995   7.532
 4680SOL     OW15936   2.540   1.978   2.375
 4680SOL    HW115937   2.615   1.972   2.317
 4680SOL    HW215938   2.558   1.916   2.445
 4681SOL     OW15939   7.115   1.637  13.477
 4681SOL    HW115940   7.195   1.585  13.488
 4681SOL    HW215941   7.044   1.574  13.483
 4682SOL     OW15942   6.996   2.427  10.565
 4682SOL    HW115943   6.909   2.460  10.585
 4682SOL    HW215944   7.045   2.503  10.534
 4683SOL     OW15945   8.530   6.037  14.470
 4683SOL    HW115946   8.518   6.130  14.489
 4683SOL    HW215947   8.621   6.030  14.443
 4684SOL     OW15948   8.782  12.598   5.782
 4684SOL    HW115949   8.841  12.532   5.745
 4684SOL    HW215950   8.767  12.660   5.710
 4685SOL     OW15951   7.069  10.362  10.544
 4685SOL    HW115952   7.101  10.356  10.634
 4685SOL    HW215953   7.140  10.326  10.491
 4686SOL     OW15954  14.172   7.621   2.747
 4686SOL    HW115955  14.258   7.649   2.777
 4686SOL    HW215956  14.112   7.687   2.782
 4687SOL     OW15957   5.221  10.033   8.396
 4687SOL    HW115958   5.298  10.035   8.339
 4687SOL    HW215959   5.221  10.118   8.439
 4688SOL     OW15960   1.069  12.886  12.842
 4688SOL    HW115961   1.025  12.895  12.758
 4688SOL    HW215962   1.161  12.904  12.823
 4689SOL     OW15963   5.562   3.885   1.169
 4689SOL    HW115964   5.625   3.830   1.217
 4689SOL    HW215965   5.477   3.865   1.210
 4690SOL     OW15966  13.972   5.936   3.700
 4690SOL    HW115967  13.896   5.891   3.664
 4690SOL    HW215968  13.955   5.944   3.793
 4691SOL     OW15969   7.340   6.197  10.023
 4691SOL    HW115970   7.374   6.116  10.062
 4691SOL    HW215971   7.273   6.167   9.961
 4692SOL     OW15972  10.700   2.369  14.271
 4692SOL    HW115973  10.624   2.318  14.243
 4692SOL    HW215974  10.693   2.451  14.222
 4693SOL     OW15975   2.871   1.434   5.741
 4693SOL    HW115976   2.959   1.468   5.725
 4693SOL    HW215977   2.817   1.476   5.674
 4694SOL     OW15978   9.554   5.001   6.305
 4694SOL    HW115979   9.554   5.071   6.240
 4694SOL    HW215980   9.490   5.029   6.370
 4695SOL     OW15981  11.835  14.794   2.797
 4695SOL    HW115982  11.911  14.804   2.739
 4695SOL    HW215983  11.839  14.703   2.826
 4696SOL     OW15984  11.340   9.614  13.985
 4696SOL    HW115985  11.333   9.664  13.904
 4696SOL    HW215986  11.259   9.565  13.990
 4697SOL     OW15987   0.687  10.272  11.132
 4697SOL    HW115988   0.665  10.298  11.222
 4697SOL    HW215989   0.743  10.343  11.100
 4698SOL     OW15990  12.156  14.455   1.789
 4698SOL    HW115991  12.178  14.395   1.861
 4698SOL    HW215992  12.069  14.487   1.810
 4699SOL     OW15993  10.629   1.599   8.089
 4699SOL    HW115994  10.724   1.599   8.091
 4699SOL    HW215995  10.607   1.607   7.996
 4700SOL     OW15996   6.741  12.070   7.634
 4700SOL    HW115997   6.666  12.068   7.694
 4700SOL    HW215998   6.720  12.004   7.568
 4701SOL     OW15999   9.044   0.931   1.480
 4701SOL    HW116000   9.120   0.959   1.428
 4701SOL    HW216001   9.080   0.911   1.566
 4702SOL     OW16002  14.292   6.548   9.101
 4702SOL    HW116003  14.387   6.542   9.112
 4702SOL    HW216004  14.271   6.639   9.122
 4703SOL     OW16005   4.163  13.609  13.412
 4703SOL    HW116006   4.244  13.577  13.372
 4703SOL    HW216007   4.106  13.629  13.338
 4704SOL     OW16008   2.952  10.127   3.792
 4704SOL    HW116009   2.857  10.116   3.785
 4704SOL    HW216010   2.971  10.111   3.884
 4705SOL     OW16011   8.745   1.447   8.622
 4705SOL    HW116012   8.680   1.376   8.630
 4705SOL    HW216013   8.768   1.468   8.712
 4706SOL     OW16014  12.425   1.004   1.391
 4706SOL    HW116015  12.512   0.994   1.351
 4706SOL    HW216016  12.375   0.929   1.358
 4707SOL     OW16017   3.518  11.297  10.541
 4707SOL    HW116018   3.495  11.387  10.520
 4707SOL    HW216019   3.561  11.302  10.626
 4708SOL     OW16020   8.565   1.616   4.330
 4708SOL    HW116021   8.488   1.673   4.339
 4708SOL    HW216022   8.555   1.552   4.401
 4709SOL     OW16023   0.379   7.257  14.455
 4709SOL    HW116024   0.467   7.227  14.434
 4709SOL    HW216025   0.321   7.188  14.422
 4710SOL     OW16026   1.326  13.427  13.143
 4710SOL    HW116027   1.309  13.439  13.050
 4710SOL    HW216028   1.420  13.407  13.148
 4711SOL     OW16029   7.575   2.225   4.978
 4711SOL    HW116030   7.590   2.271   5.060
 4711SOL    HW216031   7.620   2.141   4.988
 4712SOL     OW16032   1.199   5.340   9.393
 4712SOL    HW116033   1.127   5.349   9.331
 4712SOL    HW216034   1.177   5.400   9.464
 4713SOL     OW16035   8.139  13.916   0.468
 4713SOL    HW116036   8.138  13.827   0.435
 4713SOL    HW216037   8.129  13.907   0.563
 4714SOL     OW16038   1.730   8.195  12.696
 4714SOL    HW116039   1.738   8.290  12.709
 4714SOL    HW216040   1.729   8.159  12.785
 4715SOL     OW16041  13.574   8.487  10.638
 4715SOL    HW116042  13.633   8.462  10.566
 4715SOL    HW216043  13.571   8.582  10.635
 4716SOL     OW16044   0.937   4.742   6.107
 4716SOL    HW116045   0.932   4.837   6.106
 4716SOL    HW216046   1.026   4.723   6.136
 4717SOL     OW16047  14.242   5.954   2.594
 4717SOL    HW116048  14.231   6.037   2.547
 4717SOL    HW216049  14.158   5.938   2.636
 4718SOL     OW16050   5.546   6.281   8.357
 4718SOL    HW116051   5.566   6.334   8.434
 4718SOL    HW216052   5.455   6.253   8.370
 4719SOL     OW16053   5.873   3.196   1.131
 4719SOL    HW116054   5.966   3.183   1.150
 4719SOL    HW216055   5.830   3.186   1.216
 4720SOL     OW16056   6.982   8.529   5.285
 4720SOL    HW116057   7.016   8.440   5.274
 4720SOL    HW216058   6.887   8.519   5.278
 4721SOL     OW16059   5.296  13.283   5.141
 4721SOL    HW116060   5.273  13.192   5.160
 4721SOL    HW216061   5.391  13.286   5.155
 4722SOL     OW16062  14.757  10.057   1.062
 4722SOL    HW116063  14.676  10.107   1.046
 4722SOL    HW216064  14.796  10.047   0.976
 4723SOL     OW16065  13.447   7.694  14.790
 4723SOL    HW116066  13.477   7.704   0.008
 4723SOL    HW216067  13.469   7.778  14.748
 4724SOL     OW16068   6.971   3.033   2.687
 4724SOL    HW116069   6.968   3.128   2.672
 4724SOL    HW216070   7.031   3.022   2.760
 4725SOL     OW16071   5.660  13.630   4.271
 4725SOL    HW116072   5.700  13.698   4.217
 4725SOL    HW216073   5.568  13.655   4.277
 4726SOL     OW16074   5.913  13.417   5.131
 4726SOL    HW116075   5.869  13.374   5.204
 4726SOL    HW216076   6.003  13.431   5.162
 4727SOL     OW16077   1.183  12.577   5.646
 4727SOL    HW116078   1.174  12.513   5.574
 4727SOL    HW216079   1.164  12.661   5.605
 4728SOL     OW16080  12.396   4.381  10.247
 4728SOL    HW116081  12.463   4.436  10.207
 4728SOL    HW216082  12.361   4.434  10.318
 4729SOL     OW16083   7.656   3.801   9.740
 4729SOL    HW116084   7.709   3.849   9.804
 4729SOL    HW216085   7.648   3.861   9.666
 4730SOL     OW16086  10.347   4.989   3.077
 4730SOL    HW116087  10.414   4.936   3.121
 4730SOL    HW216088  10.384   5.007   2.990
 4731SOL     OW16089  13.304   2.499   6.003
 4731SOL    HW116090  13.343   2.586   6.010
 4731SOL    HW216091  13.291   2.487   5.909
 4732SOL     OW16092   1.117   4.918   4.104
 4732SOL    HW116093   1.178   4.930   4.176
 4732SOL    HW216094   1.034   4.893   4.146
 4733SOL     OW16095  11.901   1.570   4.242
 4733SOL    HW116096  11.980   1.577   4.296
 4733SOL    HW216097  11.884   1.476   4.238
 4734SOL     OW16098   4.982   3.077   8.610
 4734SOL    HW116099   4.928   3.098   8.534
 4734SOL    HW216100   5.054   3.141   8.607
 4735SOL     OW16101  13.661   5.661   0.673
 4735SOL    HW116102  13.607   5.598   0.721
 4735SOL    HW216103  13.637   5.746   0.711
 4736SOL     OW16104  11.689   1.702   2.454
 4736SOL    HW116105  11.609   1.691   2.505
 4736SOL    HW216106  11.659   1.707   2.363
 4737SOL     OW16107   6.390   7.721   2.604
 4737SOL    HW116108   6.476   7.749   2.635
 4737SOL    HW216109   6.408   7.658   2.535
 4738SOL     OW16110   8.300  14.094   5.989
 4738SOL    HW116111   8.370  14.154   5.963
 4738SOL    HW216112   8.224  14.123   5.940
 4739SOL     OW16113   8.740  10.668   3.145
 4739SOL    HW116114   8.674  10.600   3.131
 4739SOL    HW216115   8.753  10.670   3.239
 4740SOL     OW16116  10.555   5.576   9.621
 4740SOL    HW116117  10.639   5.604   9.586
 4740SOL    HW216118  10.572   5.489   9.659
 4741SOL     OW16119   6.687   1.128   7.017
 4741SOL    HW116120   6.608   1.112   7.069
 4741SOL    HW216121   6.690   1.223   7.007
 4742SOL     OW16122   8.352   1.122  10.774
 4742SOL    HW116123   8.432   1.165  10.805
 4742SOL    HW216124   8.367   1.029  10.792
 4743SOL     OW16125  14.799   3.977   9.183
 4743SOL    HW116126  14.761   4.054   9.140
 4743SOL    HW216127  14.725   3.937   9.229
 4744SOL     OW16128   9.872   9.295   3.971
 4744SOL    HW116129   9.805   9.304   4.039
 4744SOL    HW216130   9.826   9.255   3.898
 4745SOL     OW16131   6.549  10.609  13.854
 4745SOL    HW116132   6.527  10.693  13.895
 4745SOL    HW216133   6.642  10.617  13.832
 4746SOL     OW16134  10.302   2.710  11.537
 4746SOL    HW116135  10.245   2.637  11.513
 4746SOL    HW216136  10.339   2.685  11.622
 4747SOL     OW16137   3.175  13.881  13.867
 4747SOL    HW116138   3.229  13.802  13.874
 4747SOL    HW216139   3.234  13.952  13.891
 4748SOL     OW16140   7.024  12.158  12.487
 4748SOL    HW116141   6.947  12.109  12.458
 4748SOL    HW216142   7.021  12.239  12.436
 4749SOL     OW16143   9.511  12.899   0.723
 4749SOL    HW116144   9.592  12.933   0.762
 4749SOL    HW216145   9.457  12.977   0.709
 4750SOL     OW16146  14.692  12.859   7.004
 4750SOL    HW116147  14.644  12.912   7.068
 4750SOL    HW216148  14.624  12.811   6.956
 4751SOL     OW16149   1.581  10.634  12.386
 4751SOL    HW116150   1.494  10.653  12.421
 4751SOL    HW216151   1.617  10.569  12.446
 4752SOL     OW16152   5.346  13.187   9.818
 4752SOL    HW116153   5.434  13.225   9.823
 4752SOL    HW216154   5.302  13.238   9.750
 4753SOL     OW16155  14.570   4.168   4.667
 4753SOL    HW116156  14.623   4.096   4.634
 4753SOL    HW216157  14.561   4.227   4.591
 4754SOL     OW16158  13.088   4.361   6.413
 4754SOL    HW116159  13.091   4.272   6.378
 4754SOL    HW216160  13.026   4.356   6.486
 4755SOL     OW16161   8.113  14.269   9.120
 4755SOL    HW116162   8.128  14.250   9.027
 4755SOL    HW216163   8.135  14.361   9.130
 4756SOL     OW16164  13.499   9.230  13.480
 4756SOL    HW116165  13.456   9.179  13.412
 4756SOL    HW216166  13.503   9.171  13.556
 4757SOL     OW16167   0.149  10.283   9.017
 4757SOL    HW116168   0.127  10.316   9.104
 4757SOL    HW216169   0.184  10.359   8.970
 4758SOL     OW16170  11.223   6.973  13.627
 4758SOL    HW116171  11.319   6.972  13.622
 4758SOL    HW216172  11.196   6.891  13.585
 4759SOL     OW16173   5.017   5.603   4.671
 4759SOL    HW116174   5.031   5.609   4.766
 4759SOL    HW216175   5.103   5.618   4.633
 4760SOL     OW16176   2.146   3.928   5.009
 4760SOL    HW116177   2.236   3.898   4.993
 4760SOL    HW216178   2.103   3.853   5.050
 4761SOL     OW16179  11.622   7.297   7.643
 4761SOL    HW116180  11.576   7.218   7.615
 4761SOL    HW216181  11.699   7.264   7.689
 4762SOL     OW16182   0.152   0.564   4.985
 4762SOL    HW116183   0.116   0.497   4.927
 4762SOL    HW216184   0.153   0.523   5.072
 4763SOL     OW16185   9.628  12.049   6.101
 4763SOL    HW116186   9.589  12.083   6.020
 4763SOL    HW216187   9.703  11.997   6.071
 4764SOL     OW16188  13.864   6.891   0.518
 4764SOL    HW116189  13.890   6.959   0.455
 4764SOL    HW216190  13.863   6.811   0.467
 4765SOL     OW16191  12.727  11.273   5.707
 4765SOL    HW116192  12.683  11.200   5.663
 4765SOL    HW216193  12.807  11.235   5.743
 4766SOL     OW16194  12.541  13.845  12.724
 4766SOL    HW116195  12.487  13.903  12.777
 4766SOL    HW216196  12.531  13.877  12.635
 4767SOL     OW16197   6.652   4.871   9.067
 4767SOL    HW116198   6.746   4.880   9.053
 4767SOL    HW216199   6.613   4.945   9.021
 4768SOL     OW16200   5.627  14.406   5.266
 4768SOL    HW116201   5.590  14.492   5.286
 4768SOL    HW216202   5.699  14.425   5.206
 4769SOL     OW16203   6.672   0.279   2.337
 4769SOL    HW116204   6.729   0.273   2.413
 4769SOL    HW216205   6.653   0.373   2.329
 4770SOL     OW16206   5.631   4.185   6.006
 4770SOL    HW116207   5.645   4.184   6.101
 4770SOL    HW216208   5.674   4.105   5.975
 4771SOL     OW16209   7.388   6.954  12.553
 4771SOL    HW116210   7.351   6.909  12.477
 4771SOL    HW216211   7.397   7.045  12.524
 4772SOL     OW16212  10.178   4.499   2.700
 4772SOL    HW116213  10.183   4.594   2.701
 4772SOL    HW216214  10.088   4.479   2.724
 4773SOL     OW16215   0.721  13.190  12.926
 4773SOL    HW116216   0.810  13.184  12.962
 4773SOL    HW216217   0.724  13.266  12.869
 4774SOL     OW16218  12.439   9.932   8.970
 4774SOL    HW116219  12.357   9.979   8.955
 4774SOL    HW216220  12.453   9.882   8.890
 4775SOL     OW16221   4.327   1.982  11.385
 4775SOL    HW116222   4.247   1.929  11.390
 4775SOL    HW216223   4.348   2.002  11.477
 4776SOL     OW16224  11.937   9.281   9.094
 4776SOL    HW116225  11.953   9.346   9.026
 4776SOL    HW216226  11.945   9.330   9.176
 4777SOL     OW16227   3.079   1.635  14.340
 4777SOL    HW116228   3.014   1.674  14.281
 4777SOL    HW216229   3.105   1.707  14.397
 4778SOL     OW16230  13.749  11.190   9.705
 4778SOL    HW116231  13.741  11.212   9.612
 4778SOL    HW216232  13.720  11.269   9.751
 4779SOL     OW16233  12.389  10.191  12.804
 4779SOL    HW116234  12.426  10.123  12.747
 4779SOL    HW216235  12.340  10.142  12.871
 4780SOL     OW16236   7.597   5.504   0.606
 4780SOL    HW116237   7.576   5.491   0.513
 4780SOL    HW216238   7.602   5.599   0.616
 4781SOL     OW16239   1.956  11.560   5.843
 4781SOL    HW116240   1.986  11.637   5.891
 4781SOL    HW216241   1.988  11.486   5.895
 4782SOL     OW16242   1.804   5.402   8.628
 4782SOL    HW116243   1.871   5.465   8.654
 4782SOL    HW216244   1.848   5.346   8.563
 4783SOL     OW16245  11.048   7.206  14.163
 4783SOL    HW116246  11.040   7.209  14.259
 4783SOL    HW216247  10.957   7.212  14.132
 4784SOL     OW16248   5.786   4.736   8.528
 4784SOL    HW116249   5.795   4.719   8.434
 4784SOL    HW216250   5.750   4.825   8.532
 4785SOL     OW16251   0.503   9.715  10.015
 4785SOL    HW116252   0.580   9.713   9.958
 4785SOL    HW216253   0.518   9.790  10.073
 4786SOL     OW16254   8.970   6.298   8.247
 4786SOL    HW116255   8.879   6.271   8.259
 4786SOL    HW216256   8.977   6.382   8.292
 4787SOL     OW16257  11.888   5.590   8.020
 4787SOL    HW116258  11.802   5.569   7.983
 4787SOL    HW216259  11.951   5.565   7.953
 4788SOL     OW16260  14.676  12.483   6.287
 4788SOL    HW116261  14.759  12.530   6.281
 4788SOL    HW216262  14.629  12.508   6.208
 4789SOL     OW16263  11.096  10.522   9.370
 4789SOL    HW116264  11.097  10.510   9.275
 4789SOL    HW216265  11.077  10.615   9.382
 4790SOL     OW16266   0.938  13.882   4.802
 4790SOL    HW116267   0.883  13.805   4.786
 4790SOL    HW216268   0.908  13.947   4.739
 4791SOL     OW16269   1.823   1.054   1.070
 4791SOL    HW116270   1.872   0.999   1.130
 4791SOL    HW216271   1.887   1.080   1.004
 4792SOL     OW16272   2.383   1.322   8.257
 4792SOL    HW116273   2.459   1.269   8.280
 4792SOL    HW216274   2.312   1.259   8.245
 4793SOL     OW16275  14.171  12.271  11.177
 4793SOL    HW116276  14.149  12.220  11.099
 4793SOL    HW216277  14.158  12.362  11.150
 4794SOL     OW16278  10.030  11.698   9.068
 4794SOL    HW116279  10.038  11.624   9.129
 4794SOL    HW216280  10.079  11.670   8.991
 4795SOL     OW16281   3.436  14.401   4.968
 4795SOL    HW116282   3.491  14.479   4.977
 4795SOL    HW216283   3.348  14.432   4.987
 4796SOL     OW16284   8.927   1.057   6.120
 4796SOL    HW116285   8.833   1.071   6.130
 4796SOL    HW216286   8.934   0.974   6.073
 4797SOL     OW16287   3.702   9.131   7.869
 4797SOL    HW116288   3.687   9.040   7.894
 4797SOL    HW216289   3.782   9.129   7.815
 4798SOL     OW16290   9.070   4.099  12.586
 4798SOL    HW116291   9.060   4.011  12.622
 4798SOL    HW216292   8.983   4.122  12.555
 4799SOL     OW16293   1.809  14.851   7.886
 4799SOL    HW116294   1.777   0.069   7.892
 4799SOL    HW216295   1.798  14.828   7.794
 4800SOL     OW16296  11.772   1.967  10.812
 4800SOL    HW116297  11.835   1.946  10.880
 4800SOL    HW216298  11.701   2.013  10.857
 4801SOL     OW16299   8.646   5.251  12.201
 4801SOL    HW116300   8.659   5.157  12.212
 4801SOL    HW216301   8.735   5.287  12.194
 4802SOL     OW16302   5.383   9.435  13.486
 4802SOL    HW116303   5.383   9.474  13.399
 4802SOL    HW216304   5.454   9.481  13.532
 4803SOL     OW16305   6.695  10.246   8.736
 4803SOL    HW116306   6.641  10.181   8.691
 4803SOL    HW216307   6.767  10.196   8.774
 4804SOL     OW16308   4.948  11.506  11.275
 4804SOL    HW116309   4.863  11.525  11.315
 4804SOL    HW216310   4.945  11.553  11.191
 4805SOL     OW16311   5.356  13.723   4.388
 4805SOL    HW116312   5.391  13.710   4.476
 4805SOL    HW216313   5.293  13.795   4.398
 4806SOL     OW16314   4.826   0.557   0.015
 4806SOL    HW116315   4.834   0.467  14.857
 4806SOL    HW216316   4.802   0.606  14.809
 4807SOL     OW16317   3.139  11.352   3.309
 4807SOL    HW116318   3.066  11.294   3.327
 4807SOL    HW216319   3.110  11.405   3.234
 4808SOL     OW16320   5.428   0.172   8.560
 4808SOL    HW116321   5.462   0.190   8.472
 4808SOL    HW216322   5.505   0.176   8.617
 4809SOL     OW16323   9.396  12.091   2.719
 4809SOL    HW116324   9.476  12.069   2.766
 4809SOL    HW216325   9.381  12.183   2.739
 4810SOL     OW16326   8.243   7.382   7.759
 4810SOL    HW116327   8.182   7.441   7.805
 4810SOL    HW216328   8.207   7.375   7.671
 4811SOL     OW16329   7.471  13.059   6.027
 4811SOL    HW116330   7.513  13.108   6.098
 4811SOL    HW216331   7.522  13.083   5.949
 4812SOL     OW16332   1.057   6.483  12.852
 4812SOL    HW116333   1.064   6.499  12.757
 4812SOL    HW216334   1.112   6.406  12.867
 4813SOL     OW16335   4.003   8.071   1.753
 4813SOL    HW116336   4.029   8.069   1.661
 4813SOL    HW216337   4.006   7.979   1.781
 4814SOL     OW16338  11.221   2.141  14.823
 4814SOL    HW116339  11.296   2.165   0.006
 4814SOL    HW216340  11.259   2.087  14.754
 4815SOL     OW16341   5.486   8.365   3.220
 4815SOL    HW116342   5.559   8.404   3.269
 4815SOL    HW216343   5.438   8.314   3.285
 4816SOL     OW16344  13.605   0.030   2.825
 4816SOL    HW116345  13.655   0.110   2.809
 4816SOL    HW216346  13.670  14.838   2.855
 4817SOL     OW16347  14.475  11.170   6.950
 4817SOL    HW116348  14.392  11.208   6.923
 4817SOL    HW216349  14.526  11.243   6.985
 4818SOL     OW16350   4.233  10.535   1.502
 4818SOL    HW116351   4.215  10.613   1.554
 4818SOL    HW216352   4.279  10.476   1.561
 4819SOL     OW16353   9.071  13.651   1.214
 4819SOL    HW116354   9.025  13.599   1.281
 4819SOL    HW216355   9.007  13.661   1.144
 4820SOL     OW16356   1.984   8.788   7.616
 4820SOL    HW116357   1.957   8.708   7.660
 4820SOL    HW216358   1.939   8.858   7.663
 4821SOL     OW16359   0.769   3.441   5.977
 4821SOL    HW116360   0.861   3.463   5.991
 4821SOL    HW216361   0.734   3.513   5.924
 4822SOL     OW16362  11.816   9.806  12.481
 4822SOL    HW116363  11.772   9.890  12.494
 4822SOL    HW216364  11.751   9.750  12.439
 4823SOL     OW16365  11.614   5.315  11.897
 4823SOL    HW116366  11.541   5.273  11.944
 4823SOL    HW216367  11.578   5.398  11.867
 4824SOL     OW16368   6.723  14.349   6.291
 4824SOL    HW116369   6.676  14.332   6.210
 4824SOL    HW216370   6.738  14.444   6.290
 4825SOL     OW16371   8.758  10.677  12.562
 4825SOL    HW116372   8.769  10.758  12.513
 4825SOL    HW216373   8.712  10.703  12.642
 4826SOL     OW16374  11.226   3.146   8.215
 4826SOL    HW116375  11.206   3.166   8.306
 4826SOL    HW216376  11.174   3.209   8.165
 4827SOL     OW16377   8.515   5.536   3.492
 4827SOL    HW116378   8.488   5.449   3.465
 4827SOL    HW216379   8.584   5.522   3.557
 4828SOL     OW16380   3.120   1.170   4.990
 4828SOL    HW116381   3.104   1.222   4.911
 4828SOL    HW216382   3.043   1.186   5.045
 4829SOL     OW16383   2.509   1.914  14.506
 4829SOL    HW116384   2.470   1.840  14.459
 4829SOL    HW216385   2.434   1.965  14.536
 4830SOL     OW16386   4.407  13.224   5.926
 4830SOL    HW116387   4.485  13.179   5.959
 4830SOL    HW216388   4.442  13.298   5.875
 4831SOL     OW16389   7.491   4.918   4.899
 4831SOL    HW116390   7.556   4.983   4.872
 4831SOL    HW216391   7.543   4.846   4.936
 4832SOL     OW16392   2.079   1.048   0.161
 4832SOL    HW116393   2.025   1.064   0.239
 4832SOL    HW216394   2.154   0.999   0.194
 4833SOL     OW16395   1.263   9.025   0.702
 4833SOL    HW116396   1.288   9.078   0.626
 4833SOL    HW216397   1.167   9.023   0.699
 4834SOL     OW16398  11.147   7.975  11.743
 4834SOL    HW116399  11.217   7.934  11.691
 4834SOL    HW216400  11.087   7.904  11.763
 4835SOL     OW16401   9.123   1.305  11.540
 4835SOL    HW116402   9.095   1.221  11.575
 4835SOL    HW216403   9.211   1.288  11.505
 4836SOL     OW16404  13.204  10.028  11.067
 4836SOL    HW116405  13.126  10.076  11.039
 4836SOL    HW216406  13.255  10.017  10.987
 4837SOL     OW16407   6.945   8.346   3.706
 4837SOL    HW116408   6.989   8.275   3.753
 4837SOL    HW216409   6.914   8.305   3.625
 4838SOL     OW16410   1.699  14.682   7.136
 4838SOL    HW116411   1.695  14.693   7.231
 4838SOL    HW216412   1.619  14.634   7.114
 4839SOL     OW16413   6.663   4.553   1.305
 4839SOL    HW116414   6.714   4.576   1.382
 4839SOL    HW216415   6.598   4.490   1.337
 4840SOL     OW16416   0.695   2.802  14.732
 4840SOL    HW116417   0.674   2.883  14.780
 4840SOL    HW216418   0.630   2.799  14.662
 4841SOL     OW16419   8.479   8.517   6.985
 4841SOL    HW116420   8.432   8.469   7.053
 4841SOL    HW216421   8.410   8.545   6.924
 4842SOL     OW16422   5.410   8.264   8.419
 4842SOL    HW116423   5.484   8.319   8.393
 4842SOL    HW216424   5.342   8.325   8.445
 4843SOL     OW16425  13.255   5.807   9.302
 4843SOL    HW116426  13.348   5.816   9.326
 4843SOL    HW216427  13.256   5.750   9.225
 4844SOL     OW16428  10.202  10.765  11.311
 4844SOL    HW116429  10.256  10.747  11.388
 4844SOL    HW216430  10.123  10.713  11.324
 4845SOL     OW16431  13.335   5.684   0.809
 4845SOL    HW116432  13.338   5.693   0.714
 4845SOL    HW216433  13.314   5.592   0.825
 4846SOL     OW16434   8.250  11.422  10.515
 4846SOL    HW116435   8.172  11.366  10.508
 4846SOL    HW216436   8.302  11.381  10.584
 4847SOL     OW16437   3.782  13.908   8.052
 4847SOL    HW116438   3.830  13.978   8.097
 4847SOL    HW216439   3.691  13.921   8.077
 4848SOL     OW16440  11.495  10.146  12.669
 4848SOL    HW116441  11.530  10.219  12.618
 4848SOL    HW216442  11.573  10.108  12.711
 4849SOL     OW16443   3.485  10.534  11.496
 4849SOL    HW116444   3.529  10.601  11.550
 4849SOL    HW216445   3.469  10.578  11.412
 4850SOL     OW16446   2.518   8.938  11.522
 4850SOL    HW116447   2.475   8.950  11.437
 4850SOL    HW216448   2.505   8.845  11.542
 4851SOL     OW16449   5.010  11.861   3.942
 4851SOL    HW116450   4.952  11.934   3.922
 4851SOL    HW216451   5.087  11.875   3.886
 4852SOL     OW16452   6.532   5.822  13.164
 4852SOL    HW116453   6.437   5.833  13.172
 4852SOL    HW216454   6.560   5.900  13.116
 4853SOL     OW16455  11.517  10.038   9.270
 4853SOL    HW116456  11.499  10.125   9.307
 4853SOL    HW216457  11.443   9.984   9.299
 4854SOL     OW16458  11.451   2.394   4.426
 4854SOL    HW116459  11.455   2.323   4.362
 4854SOL    HW216460  11.416   2.352   4.505
 4855SOL     OW16461   1.687  14.722  12.402
 4855SOL    HW116462   1.632  14.668  12.458
 4855SOL    HW216463   1.653  14.706  12.314
 4856SOL     OW16464   0.944   4.956  13.447
 4856SOL    HW116465   0.903   4.922  13.368
 4856SOL    HW216466   0.938   5.051  13.439
 4857SOL     OW16467   4.728  12.431   1.129
 4857SOL    HW116468   4.715  12.367   1.199
 4857SOL    HW216469   4.789  12.494   1.166
 4858SOL     OW16470  10.851  11.658  13.349
 4858SOL    HW116471  10.857  11.574  13.394
 4858SOL    HW216472  10.862  11.636  13.257
 4859SOL     OW16473  14.648  10.883   0.612
 4859SOL    HW116474  14.719  10.943   0.633
 4859SOL    HW216475  14.682  10.830   0.539
 4860SOL     OW16476  14.187   1.645  10.499
 4860SOL    HW116477  14.153   1.712  10.558
 4860SOL    HW216478  14.280   1.665  10.490
 4861SOL     OW16479  10.900  14.087   7.232
 4861SOL    HW116480  10.877  14.023   7.300
 4861SOL    HW216481  10.853  14.057   7.154
 4862SOL     OW16482   7.556  13.023   4.051
 4862SOL    HW116483   7.510  12.977   3.981
 4862SOL    HW216484   7.515  13.109   4.054
 4863SOL     OW16485  10.457   0.974   1.472
 4863SOL    HW116486  10.424   0.887   1.452
 4863SOL    HW216487  10.460   0.977   1.568
 4864SOL     OW16488   2.002   3.397  11.774
 4864SOL    HW116489   1.961   3.406  11.860
 4864SOL    HW216490   1.952   3.457  11.718
 4865SOL     OW16491   8.086  13.142   0.322
 4865SOL    HW116492   8.153  13.096   0.373
 4865SOL    HW216493   8.029  13.183   0.387
 4866SOL     OW16494   2.698  10.199   5.534
 4866SOL    HW116495   2.661  10.287   5.521
 4866SOL    HW216496   2.733  10.202   5.624
 4867SOL     OW16497   3.477  13.031   6.583
 4867SOL    HW116498   3.480  12.944   6.622
 4867SOL    HW216499   3.566  13.065   6.595
 4868SOL     OW16500  14.297  11.865  10.824
 4868SOL    HW116501  14.316  11.784  10.777
 4868SOL    HW216502  14.264  11.925  10.757
 4869SOL     OW16503  10.079   8.874   9.222
 4869SOL    HW116504  10.076   8.941   9.291
 4869SOL    HW216505  10.034   8.799   9.260
 4870SOL     OW16506   0.665   1.357   9.199
 4870SOL    HW116507   0.631   1.434   9.153
 4870SOL    HW216508   0.748   1.387   9.238
 4871SOL     OW16509   3.985   9.515   9.849
 4871SOL    HW116510   3.960   9.422   9.846
 4871SOL    HW216511   3.945   9.548   9.929
 4872SOL     OW16512   7.527   1.081   9.617
 4872SOL    HW116513   7.495   1.032   9.693
 4872SOL    HW216514   7.482   1.041   9.543
 4873SOL     OW16515   7.673  14.541   5.896
 4873SOL    HW116516   7.620  14.508   5.824
 4873SOL    HW216517   7.746  14.587   5.854
 4874SOL     OW16518   7.063   0.043   8.398
 4874SOL    HW116519   7.056   0.008   8.487
 4874SOL    HW216520   7.052  14.839   8.341
 4875SOL     OW16521  10.713   7.066   4.549
 4875SOL    HW116522  10.773   7.018   4.606
 4875SOL    HW216523  10.770   7.110   4.485
 4876SOL     OW16524   3.889   4.453   5.591
 4876SOL    HW116525   3.834   4.379   5.617
 4876SOL    HW216526   3.936   4.421   5.514
 4877SOL     OW16527   2.800   1.279   2.273
 4877SOL    HW116528   2.738   1.324   2.215
 4877SOL    HW216529   2.885   1.292   2.232
 4878SOL     OW16530  12.614   5.348  13.710
 4878SOL    HW116531  12.614   5.444  13.702
 4878SOL    HW216532  12.528   5.327  13.747
 4879SOL     OW16533   3.199   4.561   9.844
 4879SOL    HW116534   3.128   4.498   9.854
 4879SOL    HW216535   3.274   4.509   9.814
 4880SOL     OW16536   2.626   9.347   4.476
 4880SOL    HW116537   2.550   9.289   4.472
 4880SOL    HW216538   2.589   9.434   4.494
 4881SOL     OW16539   0.491  12.813   0.405
 4881SOL    HW116540   0.563  12.875   0.394
 4881SOL    HW216541   0.481  12.772   0.319
 4882SOL     OW16542   7.686   5.864  11.575
 4882SOL    HW116543   7.650   5.902  11.656
 4882SOL    HW216544   7.704   5.773  11.597
 4883SOL     OW16545   8.558   5.525  11.612
 4883SOL    HW116546   8.500   5.601  11.608
 4883SOL    HW216547   8.634   5.549  11.559
 4884SOL     OW16548  13.269   1.659   9.227
 4884SOL    HW116549  13.289   1.704   9.145
 4884SOL    HW216550  13.355   1.641   9.266
 4885SOL     OW16551  11.409   6.336  13.768
 4885SOL    HW116552  11.415   6.361  13.860
 4885SOL    HW216553  11.426   6.417  13.720
 4886SOL     OW16554   5.305   3.234  12.797
 4886SOL    HW116555   5.383   3.232  12.853
 4886SOL    HW216556   5.242   3.288  12.846
 4887SOL     OW16557   9.057  14.561   9.036
 4887SOL    HW116558   9.146  14.529   9.049
 4887SOL    HW216559   9.066  14.655   9.026
 4888SOL     OW16560   4.285  10.876   1.494
 4888SOL    HW116561   4.327  10.860   1.579
 4888SOL    HW216562   4.192  10.883   1.515
 4889SOL     OW16563   4.929   7.960   7.462
 4889SOL    HW116564   5.015   7.965   7.419
 4889SOL    HW216565   4.881   7.894   7.412
 4890SOL     OW16566   8.188   1.944  11.904
 4890SOL    HW116567   8.144   2.020  11.942
 4890SOL    HW216568   8.281   1.966  11.909
 4891SOL     OW16569   7.825   2.453  13.147
 4891SOL    HW116570   7.812   2.409  13.063
 4891SOL    HW216571   7.763   2.410  13.207
 4892SOL     OW16572  12.396   4.588   2.878
 4892SOL    HW116573  12.440   4.657   2.828
 4892SOL    HW216574  12.343   4.635   2.942
 4893SOL     OW16575  14.062   8.028   4.856
 4893SOL    HW116576  14.060   8.124   4.861
 4893SOL    HW216577  13.983   8.005   4.808
 4894SOL     OW16578  12.775   9.060   1.777
 4894SOL    HW116579  12.859   9.060   1.823
 4894SOL    HW216580  12.742   9.149   1.787
 4895SOL     OW16581   7.399   6.363   5.579
 4895SOL    HW116582   7.389   6.454   5.551
 4895SOL    HW216583   7.339   6.354   5.653
 4896SOL     OW16584   2.349   9.369  11.656
 4896SOL    HW116585   2.261   9.374  11.616
 4896SOL    HW216586   2.371   9.276  11.652
 4897SOL     OW16587  11.094   0.959   3.991
 4897SOL    HW116588  11.083   0.962   3.896
 4897SOL    HW216589  11.162   1.023   4.010
 4898SOL     OW16590   5.021   4.140  12.159
 4898SOL    HW116591   5.104   4.111  12.120
 4898SOL    HW216592   5.044   4.164  12.249
 4899SOL     OW16593   0.724   7.414  11.513
 4899SOL    HW116594   0.729   7.389  11.605
 4899SOL    HW216595   0.751   7.336  11.465
 4900SOL     OW16596   0.241   3.752  14.754
 4900SOL    HW116597   0.215   3.688  14.821
 4900SOL    HW216598   0.324   3.787  14.784
 4901SOL     OW16599  13.331   2.489   4.560
 4901SOL    HW116600  13.382   2.435   4.500
 4901SOL    HW216601  13.301   2.563   4.506
 4902SOL     OW16602  13.778  14.357  13.521
 4902SOL    HW116603  13.857  14.309  13.549
 4902SOL    HW216604  13.782  14.356  13.426
 4903SOL     OW16605   6.062   3.184   9.259
 4903SOL    HW116606   6.106   3.099   9.250
 4903SOL    HW216607   6.046   3.192   9.353
 4904SOL     OW16608   6.579   3.964   2.197
 4904SOL    HW116609   6.639   3.903   2.154
 4904SOL    HW216610   6.625   3.990   2.277
 4905SOL     OW16611  12.825   7.368   8.741
 4905SOL    HW116612  12.831   7.364   8.645
 4905SOL    HW216613  12.875   7.446   8.764
 4906SOL     OW16614   2.168   7.334  14.726
 4906SOL    HW116615   2.096   7.311  14.785
 4906SOL    HW216616   2.133   7.317  14.638
 4907SOL     OW16617  14.414   1.847   7.784
 4907SOL    HW116618  14.351   1.871   7.851
 4907SOL    HW216619  14.430   1.753   7.797
 4908SOL     OW16620   0.572   8.277   9.842
 4908SOL    HW116621   0.515   8.274   9.765
 4908SOL    HW216622   0.659   8.291   9.806
 4909SOL     OW16623  11.701   5.061  13.692
 4909SOL    HW116624  11.684   5.061  13.786
 4909SOL    HW216625  11.629   5.009  13.655
 4910SOL     OW16626   5.182   9.392   5.573
 4910SOL    HW116627   5.255   9.330   5.569
 4910SOL    HW216628   5.155   9.402   5.482
 4911SOL     OW16629   2.481   8.802   0.006
 4911SOL    HW116630   2.391   8.825   0.029
 4911SOL    HW216631   2.483   8.807  14.783
 4912SOL     OW16632  13.157  14.526   1.723
 4912SOL    HW116633  13.089  14.572   1.771
 4912SOL    HW216634  13.111  14.483   1.651
 4913SOL     OW16635   5.409   0.139   7.087
 4913SOL    HW116636   5.325   0.177   7.062
 4913SOL    HW216637   5.389   0.046   7.102
 4914SOL     OW16638   2.035   5.076  14.267
 4914SOL    HW116639   1.964   5.014  14.284
 4914SOL    HW216640   2.104   5.023  14.228
 4915SOL     OW16641  10.420   9.564  14.834
 4915SOL    HW116642  10.452   9.474  14.844
 4915SOL    HW216643  10.471   9.600  14.761
 4916SOL     OW16644   8.367  12.811  13.921
 4916SOL    HW116645   8.454  12.851  13.909
 4916SOL    HW216646   8.384  12.733  13.975
 4917SOL     OW16647   4.257  13.728   6.901
 4917SOL    HW116648   4.234  13.702   6.990
 4917SOL    HW216649   4.340  13.682   6.884
 4918SOL     OW16650  12.111   2.660  11.407
 4918SOL    HW116651  12.081   2.723  11.472
 4918SOL    HW216652  12.206   2.657  11.418
 4919SOL     OW16653  13.285   8.194   1.480
 4919SOL    HW116654  13.360   8.145   1.448
 4919SOL    HW216655  13.219   8.128   1.500
 4920SOL     OW16656  10.946   2.790   5.593
 4920SOL    HW116657  11.019   2.822   5.645
 4920SOL    HW216658  10.942   2.849   5.518
 4921SOL     OW16659   8.249   8.499  12.956
 4921SOL    HW116660   8.179   8.434  12.963
 4921SOL    HW216661   8.204   8.582  12.945
 4922SOL     OW16662  13.206   4.304   9.891
 4922SOL    HW116663  13.276   4.345   9.840
 4922SOL    HW216664  13.133   4.365   9.885
 4923SOL     OW16665   8.377  10.084   1.425
 4923SOL    HW116666   8.427  10.003   1.431
 4923SOL    HW216667   8.412  10.140   1.494
 4924SOL     OW16668  14.830   8.416  13.515
 4924SOL    HW116669  14.807   8.418  13.608
 4924SOL    HW216670  14.813   8.326  13.488
 4925SOL     OW16671  11.999  13.188   3.547
 4925SOL    HW116672  11.933  13.145   3.603
 4925SOL    HW216673  12.041  13.252   3.605
 4926SOL     OW16674   8.597   9.007   3.246
 4926SOL    HW116675   8.522   9.005   3.187
 4926SOL    HW216676   8.642   9.089   3.225
 4927SOL     OW16677  14.270  13.211   0.476
 4927SOL    HW116678  14.281  13.298   0.515
 4927SOL    HW216679  14.177  13.206   0.454
 4928SOL     OW16680  11.319  10.719  13.733
 4928SOL    HW116681  11.321  10.784  13.662
 4928SOL    HW216682  11.305  10.635  13.689
 4929SOL     OW16683  14.763  10.195  13.789
 4929SOL    HW116684  14.791  10.283  13.815
 4929SOL    HW216685  14.835  10.138  13.816
 4930SOL     OW16686   7.021   7.212   3.716
 4930SOL    HW116687   7.048   7.143   3.777
 4930SOL    HW216688   6.976   7.166   3.645
 4931SOL     OW16689   7.323   6.861   0.260
 4931SOL    HW116690   7.285   6.905   0.336
 4931SOL    HW216691   7.367   6.931   0.212
 4932SOL     OW16692   5.777   2.002   4.739
 4932SOL    HW116693   5.817   2.010   4.826
 4932SOL    HW216694   5.811   1.920   4.704
 4933SOL     OW16695   3.374  10.040   6.654
 4933SOL    HW116696   3.305  10.106   6.647
 4933SOL    HW216697   3.374  10.014   6.746
 4934SOL     OW16698   9.175  12.964   4.934
 4934SOL    HW116699   9.194  12.975   5.027
 4934SOL    HW216700   9.254  12.994   4.889
 4935SOL     OW16701   1.483   7.729   8.495
 4935SOL    HW116702   1.397   7.704   8.527
 4935SOL    HW216703   1.541   7.714   8.569
 4936SOL     OW16704  10.130   8.249   6.590
 4936SOL    HW116705  10.105   8.294   6.509
 4936SOL    HW216706  10.056   8.265   6.649
 4937SOL     OW16707   5.397  10.110   2.926
 4937SOL    HW116708   5.327  10.086   2.864
 4937SOL    HW216709   5.435  10.026   2.952
 4938SOL     OW16710   6.719   1.710   3.632
 4938SOL    HW116711   6.675   1.795   3.632
 4938SOL    HW216712   6.723   1.684   3.724
 4939SOL     OW16713   2.655  13.697   6.148
 4939SOL    HW116714   2.667  13.661   6.060
 4939SOL    HW216715   2.743  13.700   6.186
 4940SOL     OW16716  14.018   2.935   1.461
 4940SOL    HW116717  14.074   2.992   1.408
 4940SOL    HW216718  13.930   2.950   1.426
 4941SOL     OW16719   8.185   7.574   6.880
 4941SOL    HW116720   8.135   7.655   6.877
 4941SOL    HW216721   8.124   7.507   6.851
 4942SOL     OW16722   7.447  14.224   9.882
 4942SOL    HW116723   7.363  14.270   9.884
 4942SOL    HW216724   7.446  14.174   9.800
 4943SOL     OW16725   4.108  12.530   9.460
 4943SOL    HW116726   4.115  12.610   9.511
 4943SOL    HW216727   4.146  12.462   9.516
 4944SOL     OW16728   1.800  12.722   6.020
 4944SOL    HW116729   1.771  12.681   5.938
 4944SOL    HW216730   1.794  12.816   6.003
 4945SOL     OW16731   2.235  11.106   0.778
 4945SOL    HW116732   2.166  11.098   0.845
 4945SOL    HW216733   2.187  11.112   0.696
 4946SOL     OW16734   2.967   7.045  11.976
 4946SOL    HW116735   2.948   7.042  12.069
 4946SOL    HW216736   3.058   7.015  11.968
 4947SOL     OW16737   2.849  14.091  10.709
 4947SOL    HW116738   2.898  14.010  10.695
 4947SOL    HW216739   2.882  14.126  10.792
 4948SOL     OW16740   7.084  13.965   8.191
 4948SOL    HW116741   6.989  13.972   8.183
 4948SOL    HW216742   7.115  13.952   8.102
 4949SOL     OW16743   4.745   3.826   3.621
 4949SOL    HW116744   4.751   3.914   3.657
 4949SOL    HW216745   4.655   3.798   3.641
 4950SOL     OW16746   4.121   0.056   3.316
 4950SOL    HW116747   4.167  14.862   3.368
 4950SOL    HW216748   4.143   0.035   3.226
 4951SOL     OW16749  14.310   6.111   0.857
 4951SOL    HW116750  14.284   6.187   0.804
 4951SOL    HW216751  14.264   6.037   0.817
 4952SOL     OW16752  10.049   2.460   3.736
 4952SOL    HW116753  10.119   2.412   3.781
 4952SOL    HW216754  10.057   2.433   3.644
 4953SOL     OW16755   1.898  12.936  12.801
 4953SOL    HW116756   1.937  13.020  12.824
 4953SOL    HW216757   1.942  12.873  12.858
 4954SOL     OW16758   2.717   1.440   4.629
 4954SOL    HW116759   2.739   1.530   4.655
 4954SOL    HW216760   2.774   1.423   4.553
 4955SOL     OW16761   9.259   8.399   9.063
 4955SOL    HW116762   9.321   8.411   9.136
 4955SOL    HW216763   9.307   8.345   9.000
 4956SOL     OW16764   9.999   3.592   3.257
 4956SOL    HW116765   9.986   3.562   3.167
 4956SOL    HW216766  10.077   3.545   3.287
 4957SOL     OW16767  14.076   6.428  14.186
 4957SOL    HW116768  14.069   6.361  14.119
 4957SOL    HW216769  14.135   6.392  14.251
 4958SOL     OW16770  14.319  10.382   1.453
 4958SOL    HW116771  14.412  10.386   1.430
 4958SOL    HW216772  14.309  10.448   1.521
 4959SOL     OW16773  11.752   1.462  14.741
 4959SOL    HW116774  11.663   1.470  14.707
 4959SOL    HW216775  11.759   1.530  14.807
 4960SOL     OW16776   9.344   4.326   5.674
 4960SOL    HW116777   9.402   4.252   5.658
 4960SOL    HW216778   9.297   4.303   5.754
 4961SOL     OW16779   2.050  11.424  10.757
 4961SOL    HW116780   2.061  11.505  10.706
 4961SOL    HW216781   1.972  11.440  10.811
 4962SOL     OW16782   3.483   7.239  12.413
 4962SOL    HW116783   3.432   7.211  12.489
 4962SOL    HW216784   3.574   7.240  12.445
 4963SOL     OW16785  13.411  12.807  12.627
 4963SOL    HW116786  13.337  12.834  12.571
 4963SOL    HW216787  13.391  12.845  12.712
 4964SOL     OW16788   9.125   5.418  10.807
 4964SOL    HW116789   9.062   5.352  10.777
 4964SOL    HW216790   9.188   5.367  10.859
 4965SOL     OW16791   8.326   6.242  14.065
 4965SOL    HW116792   8.329   6.241  14.161
 4965SOL    HW216793   8.237   6.270  14.044
 4966SOL     OW16794   6.522   2.201   7.731
 4966SOL    HW116795   6.467   2.203   7.652
 4966SOL    HW216796   6.468   2.243   7.798
 4967SOL     OW16797   4.883   3.548   2.482
 4967SOL    HW116798   4.787   3.550   2.492
 4967SOL    HW216799   4.917   3.567   2.569
 4968SOL     OW16800   3.323  10.523  10.795
 4968SOL    HW116801   3.411  10.516  10.759
 4968SOL    HW216802   3.329  10.484  10.882
 4969SOL     OW16803   9.716   7.069   3.036
 4969SOL    HW116804   9.623   7.093   3.044
 4969SOL    HW216805   9.763   7.151   3.054
 4970SOL     OW16806  14.692  10.248   8.352
 4970SOL    HW116807  14.650  10.174   8.308
 4970SOL    HW216808  14.683  10.320   8.290
 4971SOL     OW16809   2.824   5.307  10.834
 4971SOL    HW116810   2.735   5.315  10.800
 4971SOL    HW216811   2.828   5.370  10.906
 4972SOL     OW16812   8.539   6.164   4.048
 4972SOL    HW116813   8.603   6.129   4.110
 4972SOL    HW216814   8.545   6.107   3.971
 4973SOL     OW16815  13.938  11.045   3.434
 4973SOL    HW116816  13.930  11.097   3.514
 4973SOL    HW216817  13.859  11.066   3.384
 4974SOL     OW16818  14.835   4.438   0.379
 4974SOL    HW116819  14.775   4.511   0.398
 4974SOL    HW216820  14.868   4.458   0.291
 4975SOL     OW16821  11.421   2.358   5.749
 4975SOL    HW116822  11.480   2.348   5.823
 4975SOL    HW216823  11.411   2.453   5.740
 4976SOL     OW16824   8.408  10.303  12.125
 4976SOL    HW116825   8.331  10.341  12.167
 4976SOL    HW216826   8.464  10.275  12.198
 4977SOL     OW16827   4.622   8.762   6.557
 4977SOL    HW116828   4.536   8.791   6.588
 4977SOL    HW216829   4.673   8.749   6.636
 4978SOL     OW16830   9.109   5.567   9.210
 4978SOL    HW116831   9.049   5.631   9.248
 4978SOL    HW216832   9.078   5.483   9.244
 4979SOL     OW16833   3.582   4.731  10.895
 4979SOL    HW116834   3.567   4.825  10.906
 4979SOL    HW216835   3.521   4.705  10.826
 4980SOL     OW16836   3.628  11.297   8.716
 4980SOL    HW116837   3.671  11.221   8.756
 4980SOL    HW216838   3.549  11.310   8.769
 4981SOL     OW16839   7.851   7.957   5.312
 4981SOL    HW116840   7.838   7.949   5.407
 4981SOL    HW216841   7.830   7.870   5.278
 4982SOL     OW16842  12.950  10.396  14.656
 4982SOL    HW116843  12.929  10.437  14.740
 4982SOL    HW216844  13.028  10.443  14.626
 4983SOL     OW16845   9.566  13.598   1.300
 4983SOL    HW116846   9.641  13.655   1.284
 4983SOL    HW216847   9.502  13.623   1.234
 4984SOL     OW16848   8.891  10.220  10.241
 4984SOL    HW116849   8.953  10.165  10.191
 4984SOL    HW216850   8.823  10.242  10.178
 4985SOL     OW16851  11.074  14.366   8.987
 4985SOL    HW116852  10.989  14.324   9.001
 4985SOL    HW216853  11.108  14.326   8.908
 4986SOL     OW16854   2.006   9.018   8.981
 4986SOL    HW116855   1.985   8.982   9.068
 4986SOL    HW216856   2.075   8.960   8.948
 4987SOL     OW16857   6.866   9.545   1.192
 4987SOL    HW116858   6.840   9.529   1.282
 4987SOL    HW216859   6.789   9.521   1.140
 4988SOL     OW16860   4.288   0.637   4.323
 4988SOL    HW116861   4.312   0.689   4.247
 4988SOL    HW216862   4.224   0.574   4.290
 4989SOL     OW16863   3.839   6.777   1.479
 4989SOL    HW116864   3.834   6.688   1.443
 4989SOL    HW216865   3.929   6.784   1.513
 4990SOL     OW16866   3.701  14.063   9.606
 4990SOL    HW116867   3.762  14.074   9.533
 4990SOL    HW216868   3.624  14.022   9.568
 4991SOL     OW16869   2.705  12.204   3.401
 4991SOL    HW116870   2.738  12.268   3.464
 4991SOL    HW216871   2.666  12.135   3.455
 4992SOL     OW16872   0.066  13.068   5.541
 4992SOL    HW116873   0.109  12.997   5.493
 4992SOL    HW216874  14.849  13.038   5.554
 4993SOL     OW16875  11.501  13.250  14.198
 4993SOL    HW116876  11.503  13.345  14.210
 4993SOL    HW216877  11.573  13.231  14.138
 4994SOL     OW16878  10.344  10.730   1.289
 4994SOL    HW116879  10.285  10.663   1.256
 4994SOL    HW216880  10.318  10.743   1.380
 4995SOL     OW16881   8.060   4.609   8.170
 4995SOL    HW116882   8.120   4.558   8.224
 4995SOL    HW216883   8.114   4.677   8.130
 4996SOL     OW16884  11.420   4.688   9.325
 4996SOL    HW116885  11.330   4.716   9.310
 4996SOL    HW216886  11.421   4.655   9.415
 4997SOL     OW16887  10.340  14.467   2.870
 4997SOL    HW116888  10.253  14.459   2.831
 4997SOL    HW216889  10.367  14.557   2.848
 4998SOL     OW16890   5.263   6.695   6.150
 4998SOL    HW116891   5.178   6.739   6.158
 4998SOL    HW216892   5.324   6.767   6.133
 4999SOL     OW16893   3.912   0.595   5.582
 4999SOL    HW116894   3.998   0.637   5.590
 4999SOL    HW216895   3.867   0.646   5.515
 5000SOL     OW16896  10.528  13.807  12.448
 5000SOL    HW116897  10.517  13.712  12.457
 5000SOL    HW216898  10.441  13.839  12.423
 5001SOL     OW16899   9.879  12.212   0.436
 5001SOL    HW116900   9.927  12.278   0.386
 5001SOL    HW216901   9.820  12.262   0.492
 5002SOL     OW16902   6.944   0.813   4.506
 5002SOL    HW116903   6.967   0.726   4.473
 5002SOL    HW216904   6.948   0.869   4.428
 5003SOL     OW16905  11.626   9.209   0.673
 5003SOL    HW116906  11.560   9.140   0.686
 5003SOL    HW216907  11.695   9.166   0.623
 5004SOL     OW16908   5.223   9.165   6.635
 5004SOL    HW116909   5.219   9.260   6.620
 5004SOL    HW216910   5.301   9.153   6.689
 5005SOL     OW16911  14.837   8.649  11.684
 5005SOL    HW116912  14.780   8.685  11.615
 5005SOL    HW216913  14.840   8.718  11.750
 5006SOL     OW16914  12.209   2.546   7.257
 5006SOL    HW116915  12.153   2.511   7.327
 5006SOL    HW216916  12.159   2.619   7.221
 5007SOL     OW16917  11.736  12.581   6.087
 5007SOL    HW116918  11.812  12.614   6.134
 5007SOL    HW216919  11.701  12.658   6.042
 5008SOL     OW16920   7.749  13.008   8.090
 5008SOL    HW116921   7.835  13.012   8.047
 5008SOL    HW216922   7.688  12.987   8.020
 5009SOL     OW16923  14.414  10.673   1.087
 5009SOL    HW116924  14.488  10.726   1.118
 5009SOL    HW216925  14.405  10.697   0.995
 5010SOL     OW16926   9.605   7.676   5.472
 5010SOL    HW116927   9.684   7.728   5.491
 5010SOL    HW216928   9.561   7.668   5.557
 5011SOL     OW16929   7.093  11.324   7.041
 5011SOL    HW116930   7.128  11.410   7.064
 5011SOL    HW216931   7.110  11.269   7.117
 5012SOL     OW16932  10.392   9.302   3.482
 5012SOL    HW116933  10.401   9.249   3.403
 5012SOL    HW216934  10.302   9.287   3.510
 5013SOL     OW16935   6.314   4.109   3.413
 5013SOL    HW116936   6.297   4.096   3.320
 5013SOL    HW216937   6.313   4.204   3.426
 5014SOL     OW16938   0.693  13.277   6.282
 5014SOL    HW116939   0.659  13.241   6.200
 5014SOL    HW216940   0.640  13.355   6.297
 5015SOL     OW16941   0.515  10.569   1.585
 5015SOL    HW116942   0.602  10.556   1.546
 5015SOL    HW216943   0.508  10.663   1.597
 5016SOL     OW16944   1.226  11.624   5.484
 5016SOL    HW116945   1.206  11.689   5.551
 5016SOL    HW216946   1.279  11.672   5.419
 5017SOL     OW16947   9.651  14.854  14.677
 5017SOL    HW116948   9.660   0.071  14.645
 5017SOL    HW216949   9.613  14.862  14.764
 5018SOL     OW16950   5.396   2.456   7.426
 5018SOL    HW116951   5.359   2.543   7.413
 5018SOL    HW216952   5.482   2.472   7.466
 5019SOL     OW16953   7.409   9.102  14.784
 5019SOL    HW116954   7.374   9.145  14.862
 5019SOL    HW216955   7.504   9.113  14.790
 5020SOL     OW16956   5.086   5.923  10.287
 5020SOL    HW116957   5.031   5.936  10.209
 5020SOL    HW216958   5.159   5.984  10.275
 5021SOL     OW16959   0.327   2.340   6.386
 5021SOL    HW116960   0.377   2.417   6.413
 5021SOL    HW216961   0.394   2.276   6.361
 5022SOL     OW16962   3.249  12.610  11.236
 5022SOL    HW116963   3.324  12.605  11.295
 5022SOL    HW216964   3.174  12.589  11.291
 5023SOL     OW16965   9.860   4.393   6.773
 5023SOL    HW116966   9.806   4.426   6.846
 5023SOL    HW216967   9.860   4.298   6.784
 5024SOL     OW16968  12.246  10.689   1.056
 5024SOL    HW116969  12.165  10.740   1.055
 5024SOL    HW216970  12.217  10.598   1.058
 5025SOL     OW16971  14.103   5.396   2.510
 5025SOL    HW116972  14.098   5.486   2.477
 5025SOL    HW216973  14.176   5.357   2.462
 5026SOL     OW16974   1.043   4.622   7.005
 5026SOL    HW116975   1.000   4.552   6.954
 5026SOL    HW216976   1.116   4.578   7.049
 5027SOL     OW16977   1.763   8.698   1.822
 5027SOL    HW116978   1.726   8.662   1.741
 5027SOL    HW216979   1.773   8.622   1.879
 5028SOL     OW16980  11.129   3.468   5.188
 5028SOL    HW116981  11.040   3.501   5.204
 5028SOL    HW216982  11.178   3.493   5.267
 5029SOL     OW16983   5.167   3.082   0.674
 5029SOL    HW116984   5.170   3.178   0.670
 5029SOL    HW216985   5.193   3.060   0.763
 5030SOL     OW16986  13.281   9.935  10.594
 5030SOL    HW116987  13.201   9.935  10.542
 5030SOL    HW216988  13.351   9.929  10.528
 5031SOL     OW16989   5.067  12.496   0.143
 5031SOL    HW116990   4.972  12.483   0.138
 5031SOL    HW216991   5.100  12.414   0.180
 5032SOL     OW16992  11.983   9.736   1.281
 5032SOL    HW116993  12.053   9.775   1.335
 5032SOL    HW216994  11.996   9.642   1.290
 5033SOL     OW16995   1.238   3.149   5.068
 5033SOL    HW116996   1.231   3.053   5.062
 5033SOL    HW216997   1.170   3.174   5.130
 5034SOL     OW16998   2.885   0.870   7.833
 5034SOL    HW116999   2.950   0.801   7.847
 5034SOL    HW217000   2.801   0.826   7.846
 5035SOL     OW17001  12.620  14.121   3.016
 5035SOL    HW117002  12.598  14.207   2.981
 5035SOL    HW217003  12.537  14.073   3.018
 5036SOL     OW17004  10.973   1.023   5.507
 5036SOL    HW117005  11.064   0.997   5.516
 5036SOL    HW217006  10.959   1.030   5.412
 5037SOL     OW17007   5.221  13.836   6.697
 5037SOL    HW117008   5.263  13.901   6.753
 5037SOL    HW217009   5.183  13.773   6.758
 5038SOL     OW17010  10.198   8.926   4.959
 5038SOL    HW117011  10.256   9.000   4.975
 5038SOL    HW217012  10.243   8.851   4.999
 5039SOL     OW17013   1.249  14.252   5.450
 5039SOL    HW117014   1.187  14.225   5.381
 5039SOL    HW217015   1.197  14.309   5.507
 5040SOL     OW17016  10.432   1.284  12.923
 5040SOL    HW117017  10.454   1.193  12.942
 5040SOL    HW217018  10.339   1.282  12.898
 5041SOL     OW17019  14.829   3.241  12.035
 5041SOL    HW117020  14.803   3.294  11.960
 5041SOL    HW217021  14.813   3.298  12.111
 5042SOL     OW17022  10.796  14.338   2.354
 5042SOL    HW117023  10.735  14.405   2.323
 5042SOL    HW217024  10.813  14.362   2.445
 5043SOL     OW17025  14.356  10.369   7.801
 5043SOL    HW117026  14.269  10.370   7.842
 5043SOL    HW217027  14.338  10.372   7.707
 5044SOL     OW17028   7.947   2.445  10.443
 5044SOL    HW117029   8.022   2.435  10.502
 5044SOL    HW217030   7.910   2.530  10.466
 5045SOL     OW17031   4.850  13.592   7.708
 5045SOL    HW117032   4.868  13.612   7.800
 5045SOL    HW217033   4.937  13.588   7.667
 5046SOL     OW17034   7.214   8.260  10.086
 5046SOL    HW117035   7.130   8.244  10.129
 5046SOL    HW217036   7.196   8.329  10.022
 5047SOL     OW17037  14.133  14.322   8.100
 5047SOL    HW117038  14.051  14.274   8.111
 5047SOL    HW217039  14.201  14.261   8.131
 5048SOL     OW17040   4.578   5.180  13.537
 5048SOL    HW117041   4.495   5.204  13.579
 5048SOL    HW217042   4.557   5.102  13.487
 5049SOL     OW17043   5.494   2.330  14.868
 5049SOL    HW117044   5.425   2.319  14.802
 5049SOL    HW217045   5.564   2.376  14.822
 5050SOL     OW17046  10.273   6.136  12.235
 5050SOL    HW117047  10.221   6.081  12.294
 5050SOL    HW217048  10.361   6.134  12.272
 5051SOL     OW17049  10.619   3.300   3.529
 5051SOL    HW117050  10.626   3.269   3.619
 5051SOL    HW217051  10.640   3.224   3.475
 5052SOL     OW17052  12.753  10.084   2.818
 5052SOL    HW117053  12.831  10.135   2.796
 5052SOL    HW217054  12.715  10.130   2.893
 5053SOL     OW17055   2.722   2.642   7.824
 5053SOL    HW117056   2.726   2.584   7.900
 5053SOL    HW217057   2.706   2.729   7.861
 5054SOL     OW17058   1.141   6.035   8.267
 5054SOL    HW117059   1.200   6.032   8.191
 5054SOL    HW217060   1.181   6.099   8.325
 5055SOL     OW17061   3.255  11.499  10.001
 5055SOL    HW117062   3.232  11.570  10.061
 5055SOL    HW217063   3.306  11.439  10.053
 5056SOL     OW17064  10.875  10.572   1.385
 5056SOL    HW117065  10.818  10.622   1.327
 5056SOL    HW217066  10.896  10.632   1.456
 5057SOL     OW17067   5.499  10.530   8.770
 5057SOL    HW117068   5.503  10.532   8.866
 5057SOL    HW217069   5.412  10.498   8.750
 5058SOL     OW17070   9.612  10.131   3.413
 5058SOL    HW117071   9.698  10.170   3.429
 5058SOL    HW217072   9.603  10.132   3.317
 5059SOL     OW17073   8.149   5.241  11.072
 5059SOL    HW117074   8.224   5.295  11.097
 5059SOL    HW217075   8.088   5.302  11.031
 5060SOL     OW17076  10.522   8.964  13.551
 5060SOL    HW117077  10.438   8.922  13.571
 5060SOL    HW217078  10.498   9.046  13.508
 5061SOL     OW17079  12.111  12.506  10.868
 5061SOL    HW117080  12.083  12.485  10.957
 5061SOL    HW217081  12.049  12.460  10.812
 5062SOL     OW17082   6.016   1.531   5.072
 5062SOL    HW117083   5.928   1.500   5.048
 5062SOL    HW217084   6.001   1.611   5.123
 5063SOL     OW17085   7.766  11.767  14.803
 5063SOL    HW117086   7.733  11.758   0.021
 5063SOL    HW217087   7.708  11.831  14.762
 5064SOL     OW17088   8.267   1.136   9.715
 5064SOL    HW117089   8.243   1.227   9.697
 5064SOL    HW217090   8.224   1.085   9.646
 5065SOL     OW17091  12.242   8.444   7.040
 5065SOL    HW117092  12.257   8.534   7.071
 5065SOL    HW217093  12.311   8.393   7.082
 5066SOL     OW17094   0.966   2.696  14.144
 5066SOL    HW117095   0.957   2.787  14.170
 5066SOL    HW217096   1.056   2.689  14.112
 5067SOL     OW17097   6.540   2.944   6.288
 5067SOL    HW117098   6.602   3.008   6.322
 5067SOL    HW217099   6.584   2.904   6.213
 5068SOL     OW17100   0.684  11.256   9.313
 5068SOL    HW117101   0.668  11.161   9.309
 5068SOL    HW217102   0.597  11.294   9.328
 5069SOL     OW17103  12.747  10.881   8.395
 5069SOL    HW117104  12.773  10.886   8.303
 5069SOL    HW217105  12.695  10.960   8.409
 5070SOL     OW17106   6.403   9.453   1.201
 5070SOL    HW117107   6.317   9.414   1.187
 5070SOL    HW217108   6.416   9.451   1.296
 5071SOL     OW17109  13.838   5.410   9.967
 5071SOL    HW117110  13.880   5.429  10.050
 5071SOL    HW217111  13.884   5.465   9.903
 5072SOL     OW17112   9.213   9.256   1.583
 5072SOL    HW117113   9.304   9.282   1.591
 5072SOL    HW217114   9.212   9.163   1.606
 5073SOL     OW17115   6.319  14.509  12.714
 5073SOL    HW117116   6.305  14.603  12.703
 5073SOL    HW217117   6.341  14.499  12.807
 5074SOL     OW17118   6.562   8.488   7.754
 5074SOL    HW117119   6.467   8.482   7.752
 5074SOL    HW217120   6.593   8.398   7.747
 5075SOL     OW17121   6.441   9.855   4.189
 5075SOL    HW117122   6.400   9.846   4.103
 5075SOL    HW217123   6.409   9.939   4.222
 5076SOL     OW17124  10.503   6.209   8.378
 5076SOL    HW117125  10.502   6.182   8.470
 5076SOL    HW217126  10.414   6.240   8.362
 5077SOL     OW17127   6.680  11.629  10.871
 5077SOL    HW117128   6.716  11.590  10.951
 5077SOL    HW217129   6.747  11.693  10.844
 5078SOL     OW17130   3.023   0.976   5.709
 5078SOL    HW117131   3.089   0.908   5.699
 5078SOL    HW217132   3.026   1.026   5.628
 5079SOL     OW17133  11.052  12.196  10.494
 5079SOL    HW117134  11.137  12.209  10.452
 5079SOL    HW217135  11.042  12.272  10.551
 5080SOL     OW17136  14.438   8.142  13.602
 5080SOL    HW117137  14.407   8.079  13.537
 5080SOL    HW217138  14.483   8.088  13.668
 5081SOL     OW17139   4.210  14.072   0.822
 5081SOL    HW117140   4.151  14.141   0.793
 5081SOL    HW217141   4.232  14.094   0.912
 5082SOL     OW17142   3.919   8.489   2.114
 5082SOL    HW117143   3.967   8.406   2.115
 5082SOL    HW217144   3.827   8.463   2.113
 5083SOL     OW17145   7.931   7.751   6.546
 5083SOL    HW117146   7.951   7.776   6.456
 5083SOL    HW217147   7.969   7.663   6.555
 5084SOL     OW17148   4.145  10.834   3.400
 5084SOL    HW117149   4.224  10.794   3.437
 5084SOL    HW217150   4.109  10.766   3.343
 5085SOL     OW17151   6.839  11.666   9.375
 5085SOL    HW117152   6.795  11.733   9.427
 5085SOL    HW217153   6.805  11.678   9.286
 5086SOL     OW17154   9.339  13.335  11.534
 5086SOL    HW117155   9.333  13.243  11.507
 5086SOL    HW217156   9.269  13.379  11.485
 5087SOL     OW17157   4.260   5.694   4.057
 5087SOL    HW117158   4.173   5.695   4.017
 5087SOL    HW217159   4.292   5.605   4.042
 5088SOL     OW17160   9.376  13.887  13.333
 5088SOL    HW117161   9.411  13.827  13.399
 5088SOL    HW217162   9.327  13.952  13.383
 5089SOL     OW17163   1.645  10.450   8.664
 5089SOL    HW117164   1.654  10.489   8.751
 5089SOL    HW217165   1.657  10.356   8.678
 5090SOL     OW17166   9.657   6.356  14.195
 5090SOL    HW117167   9.608   6.282  14.160
 5090SOL    HW217168   9.708   6.389  14.121
 5091SOL     OW17169   2.524   4.249   5.844
 5091SOL    HW117170   2.541   4.318   5.908
 5091SOL    HW217171   2.578   4.175   5.873
 5092SOL     OW17172   8.345   9.170   0.484
 5092SOL    HW117173   8.391   9.088   0.470
 5092SOL    HW217174   8.256   9.154   0.456
 5093SOL     OW17175  12.411   9.717   7.602
 5093SOL    HW117176  12.415   9.806   7.636
 5093SOL    HW217177  12.319   9.691   7.609
 5094SOL     OW17178  11.270  11.138   0.469
 5094SOL    HW117179  11.300  11.197   0.400
 5094SOL    HW217180  11.343  11.132   0.530
 5095SOL     OW17181  12.141  10.944  11.116
 5095SOL    HW117182  12.189  10.881  11.062
 5095SOL    HW217183  12.202  10.968  11.186
 5096SOL     OW17184   7.130   1.036   8.439
 5096SOL    HW117185   7.215   1.031   8.484
 5096SOL    HW217186   7.152   1.067   8.351
 5097SOL     OW17187   9.765   9.497   5.558
 5097SOL    HW117188   9.753   9.421   5.501
 5097SOL    HW217189   9.788   9.568   5.498
 5098SOL     OW17190  14.855   5.455  11.187
 5098SOL    HW117191   0.072   5.431  11.162
 5098SOL    HW217192  14.842   5.542  11.149
 5099SOL     OW17193  14.778   5.031  12.909
 5099SOL    HW117194  14.716   5.026  12.835
 5099SOL    HW217195  14.845   5.093  12.879
 5100SOL     OW17196   1.430   3.184   8.439
 5100SOL    HW117197   1.520   3.180   8.472
 5100SOL    HW217198   1.427   3.265   8.388
 5101SOL     OW17199   6.763   6.552   1.588
 5101SOL    HW117200   6.685   6.606   1.575
 5101SOL    HW217201   6.836   6.606   1.557
 5102SOL     OW17202   0.643   3.551  10.540
 5102SOL    HW117203   0.576   3.506  10.488
 5102SOL    HW217204   0.633   3.644  10.517
 5103SOL     OW17205  10.169   2.279  13.899
 5103SOL    HW117206  10.120   2.359  13.914
 5103SOL    HW217207  10.166   2.266  13.804
 5104SOL     OW17208  14.587   9.155   2.580
 5104SOL    HW117209  14.500   9.165   2.620
 5104SOL    HW217210  14.580   9.076   2.527
 5105SOL     OW17211   3.210   3.195   6.204
 5105SOL    HW117212   3.214   3.211   6.110
 5105SOL    HW217213   3.125   3.153   6.218
 5106SOL     OW17214   9.834  12.525   4.531
 5106SOL    HW117215   9.913  12.571   4.557
 5106SOL    HW217216   9.802  12.484   4.612
 5107SOL     OW17217   8.120   5.397  12.057
 5107SOL    HW117218   8.096   5.310  12.026
 5107SOL    HW217219   8.105   5.454  11.981
 5108SOL     OW17220  12.765   1.013   4.652
 5108SOL    HW117221  12.813   1.070   4.711
 5108SOL    HW217222  12.825   0.941   4.633
 5109SOL     OW17223  12.856   7.368  10.649
 5109SOL    HW117224  12.846   7.459  10.623
 5109SOL    HW217225  12.774   7.326  10.625
 5110SOL     OW17226   9.694   2.693   0.381
 5110SOL    HW117227   9.663   2.679   0.292
 5110SOL    HW217228   9.662   2.779   0.405
 5111SOL     OW17229  10.299  10.888  10.593
 5111SOL    HW117230  10.217  10.874  10.544
 5111SOL    HW217231  10.271  10.925  10.676
 5112SOL     OW17232   1.248   7.200   9.546
 5112SOL    HW117233   1.322   7.179   9.490
 5112SOL    HW217234   1.221   7.288   9.519
 5113SOL     OW17235   9.062  14.347   5.612
 5113SOL    HW117236   8.971  14.375   5.624
 5113SOL    HW217237   9.092  14.396   5.536
 5114SOL     OW17238   1.014  13.111  13.910
 5114SOL    HW117239   1.030  13.205  13.921
 5114SOL    HW217240   0.990  13.080  13.998
 5115SOL     OW17241   9.240   1.071   8.559
 5115SOL    HW117242   9.233   0.985   8.518
 5115SOL    HW217243   9.318   1.110   8.519
 5116SOL     OW17244   3.584  10.683   5.396
 5116SOL    HW117245   3.543  10.638   5.470
 5116SOL    HW217246   3.516  10.685   5.329
 5117SOL     OW17247   6.296   6.074   0.993
 5117SOL    HW117248   6.236   6.000   0.998
 5117SOL    HW217249   6.324   6.088   1.083
 5118SOL     OW17250   1.041   4.959   7.348
 5118SOL    HW117251   1.003   4.910   7.275
 5118SOL    HW217252   0.968   4.975   7.407
 5119SOL     OW17253   4.092   3.743   2.318
 5119SOL    HW117254   4.114   3.650   2.329
 5119SOL    HW217255   4.173   3.790   2.338
 5120SOL     OW17256   6.170  13.673   8.800
 5120SOL    HW117257   6.217  13.603   8.846
 5120SOL    HW217258   6.237  13.738   8.780
 5121SOL     OW17259   9.831   9.962  11.941
 5121SOL    HW117260   9.772  10.037  11.931
 5121SOL    HW217261   9.788   9.906  12.005
 5122SOL     OW17262  10.220   0.088  14.692
 5122SOL    HW117263  10.260   0.150  14.752
 5122SOL    HW217264  10.212   0.007  14.743
 5123SOL     OW17265   4.443   0.085   0.000
 5123SOL    HW117266   4.472   0.084   0.091
 5123SOL    HW217267   4.439   0.178  14.850
 5124SOL     OW17268   9.190  13.961   7.546
 5124SOL    HW117269   9.255  13.967   7.476
 5124SOL    HW217270   9.125  13.898   7.513
 5125SOL     OW17271   9.649  10.888   3.705
 5125SOL    HW117272   9.674  10.827   3.636
 5125SOL    HW217273   9.717  10.955   3.703
 5126SOL     OW17274   3.174  10.791   8.985
 5126SOL    HW117275   3.120  10.789   9.064
 5126SOL    HW217276   3.218  10.706   8.984
 5127SOL     OW17277   4.482  13.441   7.507
 5127SOL    HW117278   4.533  13.509   7.550
 5127SOL    HW217279   4.413  13.419   7.570
 5128SOL     OW17280   2.531   3.722  13.286
 5128SOL    HW117281   2.567   3.690  13.369
 5128SOL    HW217282   2.477   3.797  13.310
 5129SOL     OW17283   6.840  13.000   0.408
 5129SOL    HW117284   6.888  13.068   0.455
 5129SOL    HW217285   6.893  12.983   0.330
 5130SOL     OW17286   9.260   8.090  13.664
 5130SOL    HW117287   9.246   8.173  13.709
 5130SOL    HW217288   9.192   8.086  13.597
 5131SOL     OW17289   7.959  14.238   6.741
 5131SOL    HW117290   7.984  14.310   6.798
 5131SOL    HW217291   7.890  14.274   6.685
 5132SOL     OW17292   0.538  10.723   8.944
 5132SOL    HW117293   0.582  10.639   8.934
 5132SOL    HW217294   0.480  10.729   8.868
 5133SOL     OW17295   1.362   9.881   3.881
 5133SOL    HW117296   1.268   9.874   3.863
 5133SOL    HW217297   1.404   9.827   3.813
 5134SOL     OW17298   1.967   7.027   9.813
 5134SOL    HW117299   2.047   7.039   9.864
 5134SOL    HW217300   1.943   6.935   9.826
 5135SOL     OW17301   9.873   1.784   5.822
 5135SOL    HW117302   9.811   1.765   5.892
 5135SOL    HW217303   9.839   1.863   5.779
 5136SOL     OW17304   8.236  10.202   5.018
 5136SOL    HW117305   8.242  10.285   4.970
 5136SOL    HW217306   8.186  10.223   5.096
 5137SOL     OW17307   3.016  12.322   5.727
 5137SOL    HW117308   3.089  12.368   5.768
 5137SOL    HW217309   3.047  12.231   5.718
 5138SOL     OW17310   1.662   5.779   8.694
 5138SOL    HW117311   1.740   5.740   8.732
 5138SOL    HW217312   1.590   5.742   8.745
 5139SOL     OW17313   1.554   4.299   1.689
 5139SOL    HW117314   1.621   4.308   1.757
 5139SOL    HW217315   1.513   4.214   1.707
 5140SOL     OW17316   7.896   7.685   8.252
 5140SOL    HW117317   7.848   7.610   8.215
 5140SOL    HW217318   7.912   7.661   8.343
 5141SOL     OW17319   5.110   8.804   6.672
 5141SOL    HW117320   5.034   8.836   6.720
 5141SOL    HW217321   5.074   8.756   6.598
 5142SOL     OW17322  11.603   6.820   1.418
 5142SOL    HW117323  11.575   6.761   1.488
 5142SOL    HW217324  11.622   6.902   1.463
 5143SOL     OW17325   9.607   4.261  14.176
 5143SOL    HW117326   9.533   4.278  14.118
 5143SOL    HW217327   9.662   4.340  14.168
 5144SOL     OW17328   1.316   6.971  11.403
 5144SOL    HW117329   1.246   7.028  11.370
 5144SOL    HW217330   1.283   6.942  11.488
 5145SOL     OW17331   0.632   3.954   0.370
 5145SOL    HW117332   0.549   3.908   0.369
 5145SOL    HW217333   0.691   3.898   0.320
 5146SOL     OW17334   6.273   0.828   4.576
 5146SOL    HW117335   6.357   0.795   4.610
 5146SOL    HW217336   6.298   0.888   4.506
 5147SOL     OW17337   4.270  14.867   9.214
 5147SOL    HW117338   4.237  14.777   9.213
 5147SOL    HW217339   4.303   0.007   9.303
 5148SOL     OW17340   7.908  13.230   4.598
 5148SOL    HW117341   7.999  13.256   4.582
 5148SOL    HW217342   7.915  13.147   4.645
 5149SOL     OW17343   5.379   0.273   2.004
 5149SOL    HW117344   5.454   0.327   1.981
 5149SOL    HW217345   5.416   0.187   2.024
 5150SOL     OW17346   2.575   4.714  11.426
 5150SOL    HW117347   2.584   4.715  11.521
 5150SOL    HW217348   2.563   4.806  11.402
 5151SOL     OW17349   0.178   6.245  10.947
 5151SOL    HW117350   0.273   6.254  10.947
 5151SOL    HW217351   0.151   6.274  10.860
 5152SOL     OW17352   8.226   2.061   2.667
 5152SOL    HW117353   8.187   2.135   2.620
 5152SOL    HW217354   8.151   2.014   2.703
 5153SOL     OW17355  11.194   4.648   2.058
 5153SOL    HW117356  11.226   4.613   2.141
 5153SOL    HW217357  11.160   4.571   2.011
 5154SOL     OW17358   6.514   8.948  10.028
 5154SOL    HW117359   6.494   9.024  10.081
 5154SOL    HW217360   6.436   8.935   9.974
 5155SOL     OW17361   3.704  11.967   7.721
 5155SOL    HW117362   3.759  12.045   7.710
 5155SOL    HW217363   3.709  11.922   7.637
 5156SOL     OW17364   3.362   0.973   5.324
 5156SOL    HW117365   3.287   1.015   5.364
 5156SOL    HW217366   3.396   0.914   5.392
 5157SOL     OW17367   2.728   1.980   5.614
 5157SOL    HW117368   2.681   2.039   5.554
 5157SOL    HW217369   2.819   2.007   5.608
 5158SOL     OW17370  12.789   7.899  13.829
 5158SOL    HW117371  12.877   7.923  13.802
 5158SOL    HW217372  12.756   7.976  13.875
 5159SOL     OW17373   9.002   8.550   4.749
 5159SOL    HW117374   9.044   8.626   4.708
 5159SOL    HW217375   8.910   8.576   4.758
 5160SOL     OW17376  11.244   9.689   7.993
 5160SOL    HW117377  11.150   9.696   8.009
 5160SOL    HW217378  11.283   9.755   8.051
 5161SOL     OW17379   6.853  12.817   3.001
 5161SOL    HW117380   6.770  12.837   2.958
 5161SOL    HW217381   6.901  12.900   3.001
 5162SOL     OW17382   3.519   6.155  12.938
 5162SOL    HW117383   3.453   6.165  13.007
 5162SOL    HW217384   3.504   6.067  12.904
 5163SOL     OW17385   0.277  14.196   1.450
 5163SOL    HW117386   0.365  14.191   1.488
 5163SOL    HW217387   0.289  14.166   1.359
 5164SOL     OW17388   8.182  14.438  10.453
 5164SOL    HW117389   8.145  14.363  10.405
 5164SOL    HW217390   8.140  14.434  10.539
 5165SOL     OW17391   7.630   1.625  12.685
 5165SOL    HW117392   7.603   1.628  12.593
 5165SOL    HW217393   7.554   1.654  12.734
 5166SOL     OW17394   1.832   9.565   4.151
 5166SOL    HW117395   1.892   9.638   4.163
 5166SOL    HW217396   1.839   9.543   4.058
 5167SOL     OW17397   3.691   4.112   4.419
 5167SOL    HW117398   3.666   4.160   4.340
 5167SOL    HW217399   3.629   4.141   4.486
 5168SOL     OW17400   0.359  12.571  12.682
 5168SOL    HW117401   0.412  12.650  12.689
 5168SOL    HW217402   0.288  12.594  12.622
 5169SOL     OW17403   3.322  11.149   1.172
 5169SOL    HW117404   3.356  11.156   1.083
 5169SOL    HW217405   3.276  11.232   1.186
 5170SOL     OW17406  10.220  12.558   8.111
 5170SOL    HW117407  10.126  12.538   8.110
 5170SOL    HW217408  10.225  12.649   8.082
 5171SOL     OW17409  11.404  12.256  11.538
 5171SOL    HW117410  11.447  12.314  11.475
 5171SOL    HW217411  11.476  12.206  11.578
 5172SOL     OW17412   2.609   0.584   1.357
 5172SOL    HW117413   2.543   0.652   1.340
 5172SOL    HW217414   2.565   0.502   1.336
 5173SOL     OW17415  13.550  10.209   9.915
 5173SOL    HW117416  13.498  10.159   9.852
 5173SOL    HW217417  13.491  10.278   9.946
 5174SOL     OW17418   0.883   8.195   1.070
 5174SOL    HW117419   0.955   8.156   1.021
 5174SOL    HW217420   0.804   8.156   1.032
 5175SOL     OW17421  10.479   4.184  13.997
 5175SOL    HW117422  10.443   4.119  13.937
 5175SOL    HW217423  10.573   4.185  13.978
 5176SOL     OW17424  11.252   9.426  12.328
 5176SOL    HW117425  11.225   9.487  12.397
 5176SOL    HW217426  11.305   9.360  12.374
 5177SOL     OW17427   5.457   5.085  11.909
 5177SOL    HW117428   5.460   5.171  11.949
 5177SOL    HW217429   5.462   5.102  11.815
 5178SOL     OW17430  12.160  12.889  13.148
 5178SOL    HW117431  12.100  12.826  13.187
 5178SOL    HW217432  12.149  12.878  13.054
 5179SOL     OW17433   5.473   6.546   6.829
 5179SOL    HW117434   5.487   6.639   6.814
 5179SOL    HW217435   5.531   6.525   6.902
 5180SOL     OW17436   9.816   5.528  10.636
 5180SOL    HW117437   9.880   5.589  10.600
 5180SOL    HW217438   9.796   5.468  10.563
 5181SOL     OW17439   8.026  13.154  11.032
 5181SOL    HW117440   7.997  13.220  11.094
 5181SOL    HW217441   7.954  13.146  10.970
 5182SOL     OW17442  14.473   7.819  14.525
 5182SOL    HW117443  14.535   7.830  14.597
 5182SOL    HW217444  14.516   7.856  14.449
 5183SOL     OW17445  10.583   6.574   9.478
 5183SOL    HW117446  10.562   6.483   9.499
 5183SOL    HW217447  10.678   6.578   9.484
 5184SOL     OW17448   7.487   0.071  10.287
 5184SOL    HW117449   7.547   0.011  10.330
 5184SOL    HW217450   7.538   0.151  10.275
 5185SOL     OW17451   1.883   4.587   7.962
 5185SOL    HW117452   1.844   4.529   7.897
 5185SOL    HW217453   1.823   4.583   8.037
 5186SOL     OW17454  14.401   4.233   8.027
 5186SOL    HW117455  14.481   4.180   8.027
 5186SOL    HW217456  14.337   4.180   8.073
 5187SOL     OW17457   8.749   2.418  14.140
 5187SOL    HW117458   8.781   2.440  14.228
 5187SOL    HW217459   8.780   2.490  14.085
 5188SOL     OW17460   5.268  13.750  10.629
 5188SOL    HW117461   5.193  13.693  10.611
 5188SOL    HW217462   5.260  13.769  10.723
 5189SOL     OW17463  14.667  10.835  11.924
 5189SOL    HW117464  14.655  10.930  11.921
 5189SOL    HW217465  14.608  10.806  11.994
 5190SOL     OW17466  13.945   0.787   6.555
 5190SOL    HW117467  13.984   0.783   6.468
 5190SOL    HW217468  14.013   0.827   6.610
 5191SOL     OW17469   3.695   4.644   1.985
 5191SOL    HW117470   3.783   4.660   2.017
 5191SOL    HW217471   3.707   4.618   1.893
 5192SOL     OW17472  13.861   6.056  14.157
 5192SOL    HW117473  13.911   6.123  14.110
 5192SOL    HW217474  13.921   5.981  14.162
 5193SOL     OW17475   2.920   2.774   5.371
 5193SOL    HW117476   2.833   2.735   5.364
 5193SOL    HW217477   2.972   2.729   5.305
 5194SOL     OW17478  13.843  12.563  12.225
 5194SOL    HW117479  13.781  12.596  12.160
 5194SOL    HW217480  13.789  12.527  12.294
 5195SOL     OW17481   5.180   0.111   6.669
 5195SOL    HW117482   5.151   0.068   6.750
 5195SOL    HW217483   5.265   0.149   6.692
 5196SOL     OW17484   1.798   2.353  13.765
 5196SOL    HW117485   1.852   2.383  13.838
 5196SOL    HW217486   1.814   2.259  13.759
 5197SOL     OW17487  14.312   2.432  14.323
 5197SOL    HW117488  14.369   2.505  14.347
 5197SOL    HW217489  14.341   2.408  14.234
 5198SOL     OW17490  13.629  12.760  13.917
 5198SOL    HW117491  13.533  12.763  13.922
 5198SOL    HW217492  13.658  12.836  13.968
 5199SOL     OW17493   4.653   2.548   6.943
 5199SOL    HW117494   4.659   2.454   6.961
 5199SOL    HW217495   4.706   2.560   6.864
 5200SOL     OW17496   2.968   6.082   7.075
 5200SOL    HW117497   2.966   6.012   7.141
 5200SOL    HW217498   2.875   6.102   7.060
 5201SOL     OW17499  14.091  12.497  11.050
 5201SOL    HW117500  13.998  12.492  11.027
 5201SOL    HW217501  14.099  12.582  11.095
 5202SOL     OW17502   4.973   5.970   2.955
 5202SOL    HW117503   5.047   6.023   2.927
 5202SOL    HW217504   4.926   5.949   2.874
 5203SOL     OW17505   2.020   8.237   3.461
 5203SOL    HW117506   2.041   8.177   3.388
 5203SOL    HW217507   1.957   8.188   3.514
 5204SOL     OW17508  14.765  10.470   9.386
 5204SOL    HW117509  14.728  10.530   9.451
 5204SOL    HW217510  14.726  10.498   9.303
 5205SOL     OW17511  11.423   7.146   5.535
 5205SOL    HW117512  11.372   7.110   5.463
 5205SOL    HW217513  11.382   7.111   5.614
 5206SOL     OW17514  10.336   5.645   7.308
 5206SOL    HW117515  10.286   5.601   7.377
 5206SOL    HW217516  10.417   5.595   7.300
 5207SOL     OW17517  13.938   7.846  14.144
 5207SOL    HW117518  13.874   7.913  14.168
 5207SOL    HW217519  13.938   7.847  14.048
 5208SOL     OW17520   5.319   5.129   2.915
 5208SOL    HW117521   5.236   5.085   2.897
 5208SOL    HW217522   5.312   5.157   3.006
 5209SOL     OW17523   4.316   0.950   6.031
 5209SOL    HW117524   4.281   1.000   5.957
 5209SOL    HW217525   4.399   0.993   6.052
 5210SOL     OW17526  14.472   4.595   0.164
 5210SOL    HW117527  14.487   4.585   0.070
 5210SOL    HW217528  14.451   4.507   0.194
 5211SOL     OW17529   6.351   0.492   2.671
 5211SOL    HW117530   6.366   0.483   2.577
 5211SOL    HW217531   6.299   0.415   2.694
 5212SOL     OW17532   5.529  10.778   5.268
 5212SOL    HW117533   5.569  10.865   5.260
 5212SOL    HW217534   5.482  10.781   5.351
 5213SOL     OW17535   7.990  14.507  14.820
 5213SOL    HW117536   8.055  14.574  14.840
 5213SOL    HW217537   8.034  14.424  14.838
 5214SOL     OW17538   4.916   7.928   5.237
 5214SOL    HW117539   4.973   7.858   5.206
 5214SOL    HW217540   4.827   7.893   5.226
 5215SOL     OW17541  13.184  14.429   2.322
 5215SOL    HW117542  13.159  14.337   2.336
 5215SOL    HW217543  13.252  14.445   2.387
 5216SOL     OW17544   3.986   9.711   2.146
 5216SOL    HW117545   4.047   9.641   2.168
 5216SOL    HW217546   3.917   9.668   2.095
 5217SOL     OW17547   7.901   3.368   2.906
 5217SOL    HW117548   7.955   3.315   2.848
 5217SOL    HW217549   7.856   3.430   2.849
 5218SOL     OW17550   3.785  12.520   6.185
 5218SOL    HW117551   3.846  12.593   6.182
 5218SOL    HW217552   3.743  12.527   6.271
 5219SOL     OW17553   2.475  11.908   5.418
 5219SOL    HW117554   2.414  11.862   5.475
 5219SOL    HW217555   2.561  11.884   5.450
 5220SOL     OW17556   3.339   4.022   6.919
 5220SOL    HW117557   3.359   4.043   7.011
 5220SOL    HW217558   3.320   4.106   6.878
 5221SOL     OW17559   3.324   1.778   3.780
 5221SOL    HW117560   3.415   1.758   3.802
 5221SOL    HW217561   3.307   1.861   3.825
 5222SOL     OW17562   5.590  13.009  14.540
 5222SOL    HW117563   5.673  12.966  14.523
 5222SOL    HW217564   5.556  13.031  14.453
 5223SOL     OW17565   3.385  11.748   9.852
 5223SOL    HW117566   3.293  11.721   9.860
 5223SOL    HW217567   3.428  11.709   9.928
 5224SOL     OW17568   9.945   4.096   7.808
 5224SOL    HW117569  10.020   4.102   7.868
 5224SOL    HW217570   9.981   4.055   7.729
 5225SOL     OW17571  12.960  14.264   7.595
 5225SOL    HW117572  12.979  14.170   7.595
 5225SOL    HW217573  12.868  14.269   7.569
 5226SOL     OW17574   3.473  10.521   5.632
 5226SOL    HW117575   3.454  10.427   5.642
 5226SOL    HW217576   3.393  10.564   5.663
 5227SOL     OW17577  11.009  13.347  11.062
 5227SOL    HW117578  10.917  13.321  11.056
 5227SOL    HW217579  11.043  13.298  11.137
 5228SOL     OW17580  12.731  13.887   7.194
 5228SOL    HW117581  12.661  13.897   7.259
 5228SOL    HW217582  12.728  13.794   7.171
 5229SOL     OW17583   2.907  12.317   0.355
 5229SOL    HW117584   2.927  12.225   0.334
 5229SOL    HW217585   2.982  12.366   0.320
 5230SOL     OW17586  11.719  11.214   6.627
 5230SOL    HW117587  11.662  11.219   6.704
 5230SOL    HW217588  11.757  11.301   6.619
 5231SOL     OW17589   6.207   6.731  12.769
 5231SOL    HW117590   6.212   6.775  12.684
 5231SOL    HW217591   6.297   6.703  12.786
 5232SOL     OW17592   7.612   9.240   6.505
 5232SOL    HW117593   7.620   9.216   6.412
 5232SOL    HW217594   7.694   9.286   6.525
 5233SOL     OW17595   4.091  14.147   6.628
 5233SOL    HW117596   4.045  14.147   6.544
 5233SOL    HW217597   4.144  14.227   6.626
 5234SOL     OW17598   2.396  13.535   5.875
 5234SOL    HW117599   2.371  13.621   5.842
 5234SOL    HW217600   2.490  13.530   5.861
 5235SOL     OW17601   7.437  10.344   8.515
 5235SOL    HW117602   7.522  10.349   8.471
 5235SOL    HW217603   7.395  10.428   8.495
 5236SOL     OW17604   0.413   8.071   2.717
 5236SOL    HW117605   0.366   8.048   2.797
 5236SOL    HW217606   0.495   8.110   2.747
 5237SOL     OW17607   4.370   8.283  10.271
 5237SOL    HW117608   4.289   8.278  10.222
 5237SOL    HW217609   4.386   8.193  10.300
 5238SOL     OW17610   2.176  14.783   7.909
 5238SOL    HW117611   2.149  14.743   7.826
 5238SOL    HW217612   2.139  14.726   7.976
 5239SOL     OW17613  10.224  12.960   4.754
 5239SOL    HW117614  10.281  12.990   4.682
 5239SOL    HW217615  10.233  13.028   4.820
 5240SOL     OW17616   5.174   3.199  11.166
 5240SOL    HW117617   5.246   3.259  11.188
 5240SOL    HW217618   5.218   3.122  11.131
 5241SOL     OW17619  12.613   6.479  12.524
 5241SOL    HW117620  12.622   6.573  12.509
 5241SOL    HW217621  12.526   6.458  12.490
 5242SOL     OW17622   4.353   4.150   4.349
 5242SOL    HW117623   4.331   4.208   4.422
 5242SOL    HW217624   4.394   4.207   4.284
 5243SOL     OW17625  10.025  10.809   4.781
 5243SOL    HW117626  10.075  10.731   4.806
 5243SOL    HW217627   9.935  10.778   4.773
 5244SOL     OW17628   5.470  13.799   3.088
 5244SOL    HW117629   5.562  13.773   3.101
 5244SOL    HW217630   5.472  13.894   3.090
 5245SOL     OW17631   3.707   0.318   5.029
 5245SOL    HW117632   3.644   0.377   5.071
 5245SOL    HW217633   3.681   0.230   5.056
 5246SOL     OW17634   3.104  12.230  12.863
 5246SOL    HW117635   3.032  12.178  12.827
 5246SOL    HW217636   3.181  12.175  12.850
 5247SOL     OW17637  12.459   1.075  12.602
 5247SOL    HW117638  12.389   1.121  12.647
 5247SOL    HW217639  12.466   0.991  12.649
 5248SOL     OW17640  14.211   7.773  10.884
 5248SOL    HW117641  14.151   7.757  10.811
 5248SOL    HW217642  14.288   7.812  10.843
 5249SOL     OW17643  10.061   2.016   3.080
 5249SOL    HW117644  10.130   2.000   3.016
 5249SOL    HW217645  10.006   1.938   3.076
 5250SOL     OW17646  12.169  13.103   6.127
 5250SOL    HW117647  12.251  13.117   6.080
 5250SOL    HW217648  12.193  13.051   6.203
 5251SOL     OW17649  13.038   8.580  10.585
 5251SOL    HW117650  13.037   8.547  10.495
 5251SOL    HW217651  12.947   8.572  10.615
 5252SOL     OW17652   3.806   5.807  10.824
 5252SOL    HW117653   3.762   5.875  10.773
 5252SOL    HW217654   3.841   5.853  10.900
 5253SOL     OW17655   5.610   1.077  14.437
 5253SOL    HW117656   5.569   1.149  14.486
 5253SOL    HW217657   5.658   1.027  14.503
 5254SOL     OW17658   0.969   1.818  12.459
 5254SOL    HW117659   0.980   1.775  12.544
 5254SOL    HW217660   1.045   1.789  12.408
 5255SOL     OW17661   2.721  11.926  10.437
 5255SOL    HW117662   2.789  11.922  10.370
 5255SOL    HW217663   2.640  11.936  10.388
 5256SOL     OW17664  10.099  13.886   9.424
 5256SOL    HW117665  10.074  13.931   9.505
 5256SOL    HW217666  10.117  13.957   9.362
 5257SOL     OW17667   9.211   5.531   3.342
 5257SOL    HW117668   9.166   5.604   3.299
 5257SOL    HW217669   9.296   5.527   3.299
 5258SOL     OW17670  12.516   5.870   0.929
 5258SOL    HW117671  12.484   5.948   0.884
 5258SOL    HW217672  12.472   5.872   1.014
 5259SOL     OW17673  11.053   7.929  13.489
 5259SOL    HW117674  11.104   7.995  13.442
 5259SOL    HW217675  11.095   7.923  13.575
 5260SOL     OW17676   9.943  13.096   8.975
 5260SOL    HW117677  10.019  13.128   9.024
 5260SOL    HW217678   9.868  13.134   9.021
 5261SOL     OW17679  10.219   9.146  13.746
 5261SOL    HW117680  10.138   9.198  13.749
 5261SOL    HW217681  10.287   9.206  13.777
 5262SOL     OW17682   5.379   5.549   6.690
 5262SOL    HW117683   5.431   5.578   6.616
 5262SOL    HW217684   5.434   5.567   6.767
 5263SOL     OW17685   9.392   3.274   8.220
 5263SOL    HW117686   9.351   3.329   8.287
 5263SOL    HW217687   9.346   3.190   8.226
 5264SOL     OW17688  14.022   9.793   7.093
 5264SOL    HW117689  13.972   9.717   7.061
 5264SOL    HW217690  14.113   9.772   7.071
 5265SOL     OW17691  10.544   5.767   4.969
 5265SOL    HW117692  10.523   5.708   5.042
 5265SOL    HW217693  10.480   5.838   4.976
 5266SOL     OW17694  10.664   6.667   0.672
 5266SOL    HW117695  10.570   6.681   0.660
 5266SOL    HW217696  10.705   6.728   0.611
 5267SOL     OW17697  12.593   7.508   5.486
 5267SOL    HW117698  12.674   7.516   5.434
 5267SOL    HW217699  12.558   7.596   5.491
 5268SOL     OW17700   9.263  13.996   1.266
 5268SOL    HW117701   9.267  14.068   1.203
 5268SOL    HW217702   9.170  13.988   1.287
 5269SOL     OW17703   9.980  13.105  13.191
 5269SOL    HW117704   9.929  13.163  13.134
 5269SOL    HW217705  10.028  13.164  13.249
 5270SOL     OW17706   8.715   8.668  13.118
 5270SOL    HW117707   8.671   8.589  13.086
 5270SOL    HW217708   8.646   8.717  13.163
 5271SOL     OW17709   6.503   5.364  11.308
 5271SOL    HW117710   6.446   5.355  11.232
 5271SOL    HW217711   6.458   5.426  11.365
 5272SOL     OW17712   4.659  10.248   5.007
 5272SOL    HW117713   4.717  10.282   4.939
 5272SOL    HW217714   4.622  10.168   4.970
 5273SOL     OW17715   9.834   3.709  13.726
 5273SOL    HW117716   9.744   3.678  13.737
 5273SOL    HW217717   9.859   3.680  13.638
 5274SOL     OW17718  12.258  10.584  12.276
 5274SOL    HW117719  12.189  10.522  12.253
 5274SOL    HW217720  12.339  10.539  12.254
 5275SOL     OW17721   0.512  12.397   3.982
 5275SOL    HW117722   0.587  12.432   4.030
 5275SOL    HW217723   0.485  12.320   4.032
 5276SOL     OW17724  14.227   9.595   6.128
 5276SOL    HW117725  14.231   9.551   6.043
 5276SOL    HW217726  14.302   9.654   6.128
 5277SOL     OW17727   9.062   6.056   7.609
 5277SOL    HW117728   9.002   6.125   7.580
 5277SOL    HW217729   9.128   6.052   7.541
 5278SOL     OW17730  14.243   2.447   0.693
 5278SOL    HW117731  14.221   2.357   0.719
 5278SOL    HW217732  14.168   2.477   0.642
 5279SOL     OW17733   6.916  14.343  13.395
 5279SOL    HW117734   6.840  14.291  13.420
 5279SOL    HW217735   6.989  14.282  13.397
 5280SOL     OW17736  11.738   8.681  12.298
 5280SOL    HW117737  11.677   8.682  12.371
 5280SOL    HW217738  11.809   8.623  12.326
 5281SOL     OW17739  12.955  13.932  13.876
 5281SOL    HW117740  12.962  13.904  13.785
 5281SOL    HW217741  12.939  13.851  13.925
 5282SOL     OW17742  13.578  11.898  10.310
 5282SOL    HW117743  13.485  11.903  10.289
 5282SOL    HW217744  13.583  11.834  10.381
 5283SOL     OW17745  14.042   1.137   5.064
 5283SOL    HW117746  14.004   1.087   4.993
 5283SOL    HW217747  14.074   1.072   5.126
 5284SOL     OW17748   5.006   1.640  10.257
 5284SOL    HW117749   5.024   1.729  10.228
 5284SOL    HW217750   5.046   1.584  10.190
 5285SOL     OW17751   3.940   4.651   2.519
 5285SOL    HW117752   3.932   4.590   2.446
 5285SOL    HW217753   4.001   4.718   2.486
 5286SOL     OW17754   6.543   3.938   2.714
 5286SOL    HW117755   6.531   3.963   2.806
 5286SOL    HW217756   6.490   4.000   2.665
 5287SOL     OW17757   1.408  12.637   5.437
 5287SOL    HW117758   1.367  12.584   5.505
 5287SOL    HW217759   1.489  12.589   5.416
 5288SOL     OW17760   0.290   5.407   9.885
 5288SOL    HW117761   0.297   5.477   9.950
 5288SOL    HW217762   0.378   5.402   9.846
 5289SOL     OW17763  13.085   5.023   4.048
 5289SOL    HW117764  12.990   5.034   4.054
 5289SOL    HW217765  13.116   5.101   4.003
 5290SOL     OW17766  14.473   2.106   3.143
 5290SOL    HW117767  14.445   2.062   3.224
 5290SOL    HW217768  14.529   2.042   3.099
 5291SOL     OW17769  13.352   7.857   0.377
 5291SOL    HW117770  13.357   7.949   0.353
 5291SOL    HW217771  13.261   7.832   0.361
 5292SOL     OW17772   0.669   7.361   1.913
 5292SOL    HW117773   0.669   7.285   1.854
 5292SOL    HW217774   0.626   7.430   1.863
 5293SOL     OW17775   4.488   9.049   9.615
 5293SOL    HW117776   4.418   8.993   9.649
 5293SOL    HW217777   4.447   9.134   9.603
 5294SOL     OW17778   8.686  13.330   8.314
 5294SOL    HW117779   8.709  13.277   8.238
 5294SOL    HW217780   8.636  13.404   8.278
 5295SOL     OW17781   0.369   1.557   3.039
 5295SOL    HW117782   0.398   1.474   3.002
 5295SOL    HW217783   0.424   1.623   2.995
 5296SOL     OW17784   7.881   7.409  14.806
 5296SOL    HW117785   7.797   7.406  14.761
 5296SOL    HW217786   7.945   7.385  14.739
 5297SOL     OW17787   1.483   9.802   9.572
 5297SOL    HW117788   1.422   9.850   9.628
 5297SOL    HW217789   1.525   9.870   9.518
 5298SOL     OW17790  12.213   0.535  13.016
 5298SOL    HW117791  12.132   0.486  13.003
 5298SOL    HW217792  12.244   0.555  12.928
 5299SOL     OW17793  10.327  10.040   9.993
 5299SOL    HW117794  10.364   9.953   9.980
 5299SOL    HW217795  10.398  10.091  10.031
 5300SOL     OW17796   1.192   0.701  13.237
 5300SOL    HW117797   1.229   0.742  13.316
 5300SOL    HW217798   1.100   0.726  13.238
 5301SOL     OW17799  14.860   8.007   9.284
 5301SOL    HW117800  14.793   7.966   9.339
 5301SOL    HW217801   0.070   7.991   9.330
 5302SOL     OW17802  11.347   6.577   4.557
 5302SOL    HW117803  11.436   6.607   4.576
 5302SOL    HW217804  11.356   6.518   4.483
 5303SOL     OW17805  10.084   7.247   5.329
 5303SOL    HW117806  10.041   7.316   5.380
 5303SOL    HW217807  10.020   7.225   5.261
 5304SOL     OW17808   5.773   4.053   0.728
 5304SOL    HW117809   5.780   3.961   0.702
 5304SOL    HW217810   5.694   4.056   0.782
 5305SOL     OW17811  14.194  14.831  11.859
 5305SOL    HW117812  14.179   0.011  11.780
 5305SOL    HW217813  14.220   0.023  11.925
 5306SOL     OW17814   8.213  11.091   1.513
 5306SOL    HW117815   8.239  11.057   1.427
 5306SOL    HW217816   8.287  11.070   1.570
 5307SOL     OW17817   7.497  11.040  13.999
 5307SOL    HW117818   7.489  10.965  14.058
 5307SOL    HW217819   7.419  11.036  13.944
 5308SOL     OW17820   5.796  13.555  13.174
 5308SOL    HW117821   5.882  13.514  13.160
 5308SOL    HW217822   5.811  13.620  13.243
 5309SOL     OW17823   7.721   0.048  10.702
 5309SOL    HW117824   7.633   0.057  10.738
 5309SOL    HW217825   7.766   0.129  10.727
 5310SOL     OW17826  14.444  14.329   2.138
 5310SOL    HW117827  14.417  14.288   2.056
 5310SOL    HW217828  14.534  14.358   2.122
 5311SOL     OW17829   9.194  10.978   0.934
 5311SOL    HW117830   9.226  10.919   0.865
 5311SOL    HW217831   9.114  11.015   0.897
 5312SOL     OW17832   5.443  13.234   0.720
 5312SOL    HW117833   5.471  13.200   0.805
 5312SOL    HW217834   5.349  13.218   0.717
 5313SOL     OW17835   9.782   7.368  10.795
 5313SOL    HW117836   9.798   7.454  10.755
 5313SOL    HW217837   9.865   7.345  10.835
 5314SOL     OW17838   3.251   6.060  10.013
 5314SOL    HW117839   3.292   6.137   9.973
 5314SOL    HW217840   3.187   6.030   9.948
 5315SOL     OW17841  10.559   0.741   0.838
 5315SOL    HW117842  10.650   0.735   0.866
 5315SOL    HW217843  10.529   0.651   0.831
 5316SOL     OW17844   0.886  12.239   5.849
 5316SOL    HW117845   0.864  12.322   5.807
 5316SOL    HW217846   0.802  12.203   5.878
 5317SOL     OW17847   7.790   6.104   6.057
 5317SOL    HW117848   7.783   6.022   6.106
 5317SOL    HW217849   7.765   6.172   6.121
 5318SOL     OW17850  12.493  12.566   6.696
 5318SOL    HW117851  12.448  12.624   6.757
 5318SOL    HW217852  12.571  12.614   6.668
 5319SOL     OW17853   3.578  14.655   1.887
 5319SOL    HW117854   3.570  14.721   1.956
 5319SOL    HW217855   3.661  14.611   1.906
 5320SOL     OW17856   4.667  14.368  12.740
 5320SOL    HW117857   4.653  14.419  12.661
 5320SOL    HW217858   4.712  14.289  12.709
 5321SOL     OW17859  14.660  13.028  12.340
 5321SOL    HW117860  14.631  13.075  12.418
 5321SOL    HW217861  14.657  13.093  12.270
 5322SOL     OW17862   7.909   8.116   9.950
 5322SOL    HW117863   7.933   8.142  10.039
 5322SOL    HW217864   7.849   8.185   9.921
 5323SOL     OW17865   1.767   4.274   9.793
 5323SOL    HW117866   1.731   4.215   9.860
 5323SOL    HW217867   1.769   4.221   9.713
 5324SOL     OW17868   6.040   6.566   0.405
 5324SOL    HW117869   5.962   6.534   0.451
 5324SOL    HW217870   6.035   6.661   0.412
 5325SOL     OW17871   4.450   5.619  12.295
 5325SOL    HW117872   4.473   5.693  12.352
 5325SOL    HW217873   4.522   5.615  12.231
 5326SOL     OW17874   4.322   6.973  11.660
 5326SOL    HW117875   4.297   6.997  11.750
 5326SOL    HW217876   4.404   7.020  11.645
 5327SOL     OW17877   5.364   4.594  13.947
 5327SOL    HW117878   5.279   4.636  13.935
 5327SOL    HW217879   5.424   4.644  13.892
 5328SOL     OW17880   3.283   0.286  11.063
 5328SOL    HW117881   3.251   0.367  11.025
 5328SOL    HW217882   3.268   0.220  10.995
 5329SOL     OW17883   7.699  13.537   1.268
 5329SOL    HW117884   7.778  13.547   1.321
 5329SOL    HW217885   7.726  13.564   1.180
 5330SOL     OW17886   2.959  12.449  14.117
 5330SOL    HW117887   3.025  12.414  14.178
 5330SOL    HW217888   2.985  12.541  14.106
 5331SOL     OW17889   9.940   5.373   9.900
 5331SOL    HW117890   9.952   5.424   9.819
 5331SOL    HW217891   9.896   5.293   9.872
 5332SOL     OW17892   0.007   2.679  11.570
 5332SOL    HW117893   0.065   2.755  11.561
 5332SOL    HW217894  14.828   2.678  11.489
 5333SOL     OW17895   0.231  13.718   7.958
 5333SOL    HW117896   0.225  13.762   7.873
 5333SOL    HW217897   0.162  13.758   8.011
 5334SOL     OW17898  10.964   0.023  14.425
 5334SOL    HW117899  10.879   0.005  14.384
 5334SOL    HW217900  10.945   0.091  14.490
 5335SOL     OW17901  13.430   8.452  13.498
 5335SOL    HW117902  13.452   8.436  13.406
 5335SOL    HW217903  13.458   8.542  13.514
 5336SOL     OW17904   0.793   9.214   0.101
 5336SOL    HW117905   0.713   9.163   0.098
 5336SOL    HW217906   0.833   9.202   0.014
 5337SOL     OW17907  10.920  13.768   6.156
 5337SOL    HW117908  10.965  13.801   6.078
 5337SOL    HW217909  10.984  13.711   6.198
 5338SOL     OW17910   1.830   3.033  14.143
 5338SOL    HW117911   1.873   3.118  14.133
 5338SOL    HW217912   1.882   2.987  14.209
 5339SOL     OW17913  11.278   8.646   3.175
 5339SOL    HW117914  11.367   8.610   3.181
 5339SOL    HW217915  11.245   8.641   3.265
 5340SOL     OW17916   2.305   0.192  10.956
 5340SOL    HW117917   2.363   0.123  10.926
 5340SOL    HW217918   2.363   0.264  10.982
 5341SOL     OW17919   2.050   7.876   5.751
 5341SOL    HW117920   2.057   7.825   5.831
 5341SOL    HW217921   2.040   7.811   5.681
 5342SOL     OW17922  11.395   3.474  10.492
 5342SOL    HW117923  11.414   3.387  10.527
 5342SOL    HW217924  11.332   3.511  10.554
 5343SOL     OW17925  10.401   0.848   2.124
 5343SOL    HW117926  10.411   0.915   2.191
 5343SOL    HW217927  10.317   0.869   2.082
 5344SOL     OW17928  13.681   1.228   9.029
 5344SOL    HW117929  13.685   1.160   9.096
 5344SOL    HW217930  13.588   1.249   9.022
 5345SOL     OW17931   4.190   9.526   2.209
 5345SOL    HW117932   4.158   9.442   2.178
 5345SOL    HW217933   4.285   9.522   2.194
 5346SOL     OW17934   4.953   2.137  11.074
 5346SOL    HW117935   4.858   2.121  11.074
 5346SOL    HW217936   4.984   2.097  11.155
 5347SOL     OW17937  10.081   7.084  10.655
 5347SOL    HW117938  10.118   7.005  10.616
 5347SOL    HW217939  10.024   7.120  10.587
 5348SOL     OW17940   5.523   3.725   0.501
 5348SOL    HW117941   5.486   3.813   0.498
 5348SOL    HW217942   5.509   3.696   0.591
 5349SOL     OW17943   5.772  12.316   6.610
 5349SOL    HW117944   5.727  12.233   6.624
 5349SOL    HW217945   5.743  12.373   6.681
 5350SOL     OW17946   6.796   1.848   6.441
 5350SOL    HW117947   6.861   1.853   6.511
 5350SOL    HW217948   6.848   1.840   6.361
 5351SOL     OW17949   9.548  11.109  11.046
 5351SOL    HW117950   9.508  11.022  11.045
 5351SOL    HW217951   9.592  11.116  10.961
 5352SOL     OW17952   8.064   9.734   5.920
 5352SOL    HW117953   8.091   9.805   5.978
 5352SOL    HW217954   8.029   9.667   5.979
 5353SOL     OW17955  12.578   4.034   3.850
 5353SOL    HW117956  12.600   4.010   3.941
 5353SOL    HW217957  12.520   3.963   3.821
 5354SOL     OW17958   9.639   0.094   0.499
 5354SOL    HW117959   9.676   0.146   0.428
 5354SOL    HW217960   9.620   0.157   0.568
 5355SOL     OW17961  10.952  14.204   8.449
 5355SOL    HW117962  11.014  14.276   8.438
 5355SOL    HW217963  10.875  14.245   8.489
 5356SOL     OW17964   7.920   1.077   4.561
 5356SOL    HW117965   7.924   1.071   4.466
 5356SOL    HW217966   7.828   1.092   4.581
 5357SOL     OW17967   0.234   5.439  11.115
 5357SOL    HW117968   0.293   5.492  11.167
 5357SOL    HW217969   0.252   5.464  11.024
 5358SOL     OW17970   3.987  11.070  10.416
 5358SOL    HW117971   3.894  11.054  10.429
 5358SOL    HW217972   3.991  11.147  10.358
 5359SOL     OW17973   0.071   0.524   3.421
 5359SOL    HW117974   0.092   0.473   3.343
 5359SOL    HW217975   0.010   0.591   3.391
 5360SOL     OW17976   5.076  13.678   4.775
 5360SOL    HW117977   5.063  13.689   4.681
 5360SOL    HW217978   5.164  13.641   4.783
 5361SOL     OW17979  13.845   9.066  12.821
 5361SOL    HW117980  13.903   9.011  12.769
 5361SOL    HW217981  13.766   9.076  12.767
 5362SOL     OW17982   5.684   3.798  10.337
 5362SOL    HW117983   5.655   3.791  10.246
 5362SOL    HW217984   5.726   3.883  10.343
 5363SOL     OW17985   4.921   0.783   2.616
 5363SOL    HW117986   4.873   0.821   2.543
 5363SOL    HW217987   4.912   0.688   2.604
 5364SOL     OW17988   9.160   7.511   3.072
 5364SOL    HW117989   9.162   7.417   3.058
 5364SOL    HW217990   9.087   7.524   3.133
 5365SOL     OW17991   2.976   9.473   8.574
 5365SOL    HW117992   2.966   9.525   8.654
 5365SOL    HW217993   2.977   9.382   8.605
 5366SOL     OW17994   7.908  11.254   4.554
 5366SOL    HW117995   7.868  11.323   4.501
 5366SOL    HW217996   7.835  11.202   4.586
 5367SOL     OW17997  10.956   1.059   4.311
 5367SOL    HW117998  11.016   1.044   4.238
 5367SOL    HW217999  11.006   1.113   4.372
 5368SOL     OW18000   5.276   4.564   1.175
 5368SOL    HW118001   5.228   4.611   1.243
 5368SOL    HW218002   5.278   4.473   1.205
 5369SOL     OW18003   3.425  14.114   2.864
 5369SOL    HW118004   3.446  14.041   2.806
 5369SOL    HW218005   3.374  14.075   2.935
 5370SOL     OW18006  10.002   4.089  14.609
 5370SOL    HW118007  10.071   4.032  14.575
 5370SOL    HW218008   9.936   4.028  14.642
 5371SOL     OW18009   0.119   3.284  14.385
 5371SOL    HW118010   0.085   3.290  14.475
 5371SOL    HW218011   0.041   3.279  14.330
 5372SOL     OW18012   9.627   2.074   8.238
 5372SOL    HW118013   9.559   2.074   8.171
 5372SOL    HW218014   9.583   2.043   8.318
 5373SOL     OW18015  14.416   0.741   1.758
 5373SOL    HW118016  14.422   0.651   1.729
 5373SOL    HW218017  14.419   0.793   1.678
 5374SOL     OW18018   9.347   2.307   5.613
 5374SOL    HW118019   9.282   2.347   5.556
 5374SOL    HW218020   9.398   2.380   5.647
 5375SOL     OW18021  13.325   7.188  11.098
 5375SOL    HW118022  13.310   7.280  11.121
 5375SOL    HW218023  13.238   7.153  11.080
 5376SOL     OW18024   3.042   3.609   2.930
 5376SOL    HW118025   3.069   3.697   2.958
 5376SOL    HW218026   3.080   3.599   2.842
 5377SOL     OW18027   0.798  13.150  12.208
 5377SOL    HW118028   0.802  13.114  12.297
 5377SOL    HW218029   0.879  13.120  12.167
 5378SOL     OW18030   1.997  10.102   0.090
 5378SOL    HW118031   2.066  10.136   0.147
 5378SOL    HW218032   2.015  10.141   0.005
 5379SOL     OW18033   0.303   9.447  14.413
 5379SOL    HW118034   0.336   9.357  14.404
 5379SOL    HW218035   0.380   9.499  14.434
 5380SOL     OW18036  11.709  13.624   2.685
 5380SOL    HW118037  11.654  13.698   2.662
 5380SOL    HW218038  11.649  13.549   2.688
 5381SOL     OW18039  13.465  11.568  14.371
 5381SOL    HW118040  13.431  11.595  14.456
 5381SOL    HW218041  13.390  11.527  14.327
 5382SOL     OW18042  11.163   2.239   4.175
 5382SOL    HW118043  11.142   2.305   4.240
 5382SOL    HW218044  11.108   2.262   4.099
 5383SOL     OW18045   2.852  11.042  10.961
 5383SOL    HW118046   2.799  11.107  10.916
 5383SOL    HW218047   2.941  11.058  10.931
 5384SOL     OW18048   6.920   0.185  12.603
 5384SOL    HW118049   6.875   0.198  12.687
 5384SOL    HW218050   6.875   0.243  12.542
 5385SOL     OW18051   6.953  14.017  10.378
 5385SOL    HW118052   6.907  13.947  10.424
 5385SOL    HW218053   6.885  14.063  10.329
 5386SOL     OW18054  13.377   8.685  10.151
 5386SOL    HW118055  13.291   8.726  10.140
 5386SOL    HW218056  13.429   8.750  10.198
 5387SOL     OW18057  12.403   5.273   0.508
 5387SOL    HW118058  12.378   5.322   0.429
 5387SOL    HW218059  12.446   5.338   0.563
 5388SOL     OW18060  14.861   1.468  10.756
 5388SOL    HW118061   0.015   1.556  10.783
 5388SOL    HW218062   0.069   1.429  10.719
 5389SOL     OW18063   0.438   7.480   1.452
 5389SOL    HW118064   0.346   7.481   1.478
 5389SOL    HW218065   0.436   7.443   1.363
 5390SOL     OW18066   5.497  11.579   2.761
 5390SOL    HW118067   5.507  11.635   2.837
 5390SOL    HW218068   5.584  11.544   2.745
 5391SOL     OW18069   3.677  12.240   1.594
 5391SOL    HW118070   3.602  12.266   1.648
 5391SOL    HW218071   3.735  12.194   1.655
 5392SOL     OW18072   8.674   8.416   9.911
 5392SOL    HW118073   8.736   8.343   9.901
 5392SOL    HW218074   8.590   8.374   9.930
 5393SOL     OW18075  10.201   7.642   8.988
 5393SOL    HW118076  10.190   7.730   8.952
 5393SOL    HW218077  10.283   7.610   8.950
 5394SOL     OW18078   0.673  13.263   4.354
 5394SOL    HW118079   0.679  13.225   4.442
 5394SOL    HW218080   0.601  13.326   4.360
 5395SOL     OW18081   6.049   8.609  12.883
 5395SOL    HW118082   6.136   8.612  12.843
 5395SOL    HW218083   6.015   8.522  12.862
 5396SOL     OW18084   6.997   4.403   7.896
 5396SOL    HW118085   7.032   4.328   7.848
 5396SOL    HW218086   6.977   4.468   7.828
 5397SOL     OW18087   7.886   0.545  14.359
 5397SOL    HW118088   7.891   0.541  14.455
 5397SOL    HW218089   7.847   0.462  14.333
 5398SOL     OW18090   8.309  10.462   4.137
 5398SOL    HW118091   8.320  10.497   4.049
 5398SOL    HW218092   8.219  10.483   4.161
 5399SOL     OW18093   2.096  10.736  10.961
 5399SOL    HW118094   2.051  10.813  10.996
 5399SOL    HW218095   2.185  10.766  10.942
 5400SOL     OW18096  14.391   9.059   2.799
 5400SOL    HW118097  14.449   8.989   2.829
 5400SOL    HW218098  14.400   9.128   2.864
 5401SOL     OW18099  14.060   2.135   5.364
 5401SOL    HW118100  14.073   2.147   5.458
 5401SOL    HW218101  13.975   2.090   5.357
 5402SOL     OW18102   7.361   2.721   7.194
 5402SOL    HW118103   7.394   2.646   7.145
 5402SOL    HW218104   7.438   2.774   7.213
 5403SOL     OW18105   8.045   9.630   7.713
 5403SOL    HW118106   8.115   9.609   7.651
 5403SOL    HW218107   8.087   9.685   7.779
 5404SOL     OW18108   9.852  13.484   2.495
 5404SOL    HW118109   9.926  13.524   2.539
 5404SOL    HW218110   9.777  13.539   2.519
 5405SOL     OW18111   1.170   0.587   3.663
 5405SOL    HW118112   1.090   0.573   3.713
 5405SOL    HW218113   1.168   0.519   3.595
 5406SOL     OW18114  14.193   5.588  10.866
 5406SOL    HW118115  14.172   5.544  10.948
 5406SOL    HW218116  14.108   5.613  10.830
 5407SOL     OW18117  12.702   1.446  11.014
 5407SOL    HW118118  12.781   1.480  10.972
 5407SOL    HW218119  12.717   1.458  11.108
 5408SOL     OW18120  13.627  10.911  10.059
 5408SOL    HW118121  13.598  10.982  10.116
 5408SOL    HW218122  13.672  10.850  10.118
 5409SOL     OW18123   6.964   3.865  14.497
 5409SOL    HW118124   7.012   3.883  14.578
 5409SOL    HW218125   6.975   3.771  14.483
 5410SOL     OW18126  13.491   8.619   7.894
 5410SOL    HW118127  13.517   8.624   7.802
 5410SOL    HW218128  13.416   8.678   7.901
 5411SOL     OW18129   8.116   0.180   6.375
 5411SOL    HW118130   8.153   0.253   6.425
 5411SOL    HW218131   8.043   0.219   6.326
 5412SOL     OW18132  10.120  14.171  11.836
 5412SOL    HW118133  10.201  14.209  11.803
 5412SOL    HW218134  10.073  14.142  11.758
 5413SOL     OW18135   0.035   3.234   4.190
 5413SOL    HW118136   0.023   3.140   4.199
 5413SOL    HW218137   0.083   3.260   4.269
 5414SOL     OW18138   8.453   6.325  13.478
 5414SOL    HW118139   8.477   6.418  13.478
 5414SOL    HW218140   8.367   6.323  13.519
 5415SOL     OW18141  11.812  12.398   0.855
 5415SOL    HW118142  11.745  12.464   0.837
 5415SOL    HW218143  11.847  12.421   0.941
 5416SOL     OW18144   4.541  14.357   3.769
 5416SOL    HW118145   4.591  14.278   3.792
 5416SOL    HW218146   4.471  14.361   3.833
 5417SOL     OW18147   0.011   5.073  11.360
 5417SOL    HW118148  14.794   5.040  11.348
 5417SOL    HW218149   0.065   5.019  11.302
 5418SOL     OW18150  10.101   6.079  10.931
 5418SOL    HW118151  10.146   6.163  10.919
 5418SOL    HW218152  10.029   6.082  10.868
 5419SOL     OW18153  10.274   9.910   4.945
 5419SOL    HW118154  10.311   9.985   4.899
 5419SOL    HW218155  10.216   9.949   5.011
 5420SOL     OW18156   2.029   7.843   4.677
 5420SOL    HW118157   2.091   7.908   4.710
 5420SOL    HW218158   2.058   7.761   4.716
 5421SOL     OW18159  12.973  10.853   9.903
 5421SOL    HW118160  12.985  10.759   9.889
 5421SOL    HW218161  12.920  10.859   9.983
 5422SOL     OW18162   5.688  10.752  12.062
 5422SOL    HW118163   5.676  10.695  12.137
 5422SOL    HW218164   5.608  10.740  12.010
 5423SOL     OW18165   1.030  12.005   7.594
 5423SOL    HW118166   1.099  12.046   7.542
 5423SOL    HW218167   1.078  11.955   7.661
 5424SOL     OW18168  14.270   0.097  13.955
 5424SOL    HW118169  14.209   0.024  13.961
 5424SOL    HW218170  14.346   0.068  14.006
 5425SOL     OW18171   1.936  10.728   7.115
 5425SOL    HW118172   1.991  10.797   7.078
 5425SOL    HW218173   1.988  10.648   7.107
 5426SOL     OW18174   1.645   5.028  11.884
 5426SOL    HW118175   1.738   5.009  11.873
 5426SOL    HW218176   1.640   5.124  11.887
 5427SOL     OW18177  13.302   7.797  10.877
 5427SOL    HW118178  13.288   7.704  10.861
 5427SOL    HW218179  13.393   7.812  10.852
 5428SOL     OW18180   8.860   5.770   5.131
 5428SOL    HW118181   8.946   5.738   5.160
 5428SOL    HW218182   8.861   5.863   5.152
 5429SOL     OW18183  12.520   7.298   8.733
 5429SOL    HW118184  12.493   7.235   8.800
 5429SOL    HW218185  12.614   7.310   8.748
 5430SOL     OW18186   9.520   0.897  12.110
 5430SOL    HW118187   9.590   0.934  12.056
 5430SOL    HW218188   9.461   0.856  12.047
 5431SOL     OW18189  14.287   1.371   0.881
 5431SOL    HW118190  14.197   1.378   0.913
 5431SOL    HW218191  14.287   1.291   0.828
 5432SOL     OW18192   4.968   7.251  12.674
 5432SOL    HW118193   5.004   7.307  12.604
 5432SOL    HW218194   4.875   7.276  12.678
 5433SOL     OW18195   9.560   3.507   9.722
 5433SOL    HW118196   9.645   3.544   9.697
 5433SOL    HW218197   9.520   3.575   9.777
 5434SOL     OW18198   3.869   0.966   4.151
 5434SOL    HW118199   3.779   0.994   4.169
 5434SOL    HW218200   3.903   0.941   4.237
 5435SOL     OW18201   6.199   1.742   0.790
 5435SOL    HW118202   6.168   1.811   0.732
 5435SOL    HW218203   6.264   1.785   0.845
 5436SOL     OW18204  13.658   5.343  14.251
 5436SOL    HW118205  13.707   5.379  14.324
 5436SOL    HW218206  13.703   5.376  14.173
 5437SOL     OW18207   9.868   0.544   3.673
 5437SOL    HW118208   9.878   0.474   3.608
 5437SOL    HW218209   9.774   0.545   3.692
 5438SOL     OW18210   6.359   2.046   1.408
 5438SOL    HW118211   6.280   2.051   1.463
 5438SOL    HW218212   6.354   2.125   1.353
 5439SOL     OW18213   8.079   5.433   4.661
 5439SOL    HW118214   8.141   5.500   4.692
 5439SOL    HW218215   7.994   5.463   4.693
 5440SOL     OW18216   4.527  11.299   1.198
 5440SOL    HW118217   4.521  11.363   1.126
 5440SOL    HW218218   4.458  11.326   1.259
 5441SOL     OW18219   4.498   6.671   7.815
 5441SOL    HW118220   4.471   6.713   7.896
 5441SOL    HW218221   4.430   6.606   7.798
 5442SOL     OW18222  10.916  14.125   6.277
 5442SOL    HW118223  10.858  14.114   6.352
 5442SOL    HW218224  10.976  14.051   6.282
 5443SOL     OW18225   8.690   0.952   0.201
 5443SOL    HW118226   8.639   0.871   0.196
 5443SOL    HW218227   8.745   0.941   0.278
 5444SOL     OW18228  11.724   2.048   9.969
 5444SOL    HW118229  11.815   2.020   9.959
 5444SOL    HW218230  11.719   2.132   9.923
 5445SOL     OW18231   5.102   6.942  12.958
 5445SOL    HW118232   5.125   7.002  12.887
 5445SOL    HW218233   5.161   6.868  12.948
 5446SOL     OW18234   8.761  14.197   7.872
 5446SOL    HW118235   8.731  14.175   7.960
 5446SOL    HW218236   8.687  14.243   7.832
 5447SOL     OW18237   5.781  13.858   5.060
 5447SOL    HW118238   5.808  13.863   5.152
 5447SOL    HW218239   5.783  13.764   5.040
 5448SOL     OW18240   0.296  13.772  11.999
 5448SOL    HW118241   0.216  13.794  12.047
 5448SOL    HW218242   0.361  13.834  12.029
 5449SOL     OW18243   0.191   7.235   0.283
 5449SOL    HW118244   0.223   7.157   0.238
 5449SOL    HW218245   0.096   7.223   0.287
 5450SOL     OW18246  12.705   6.471  12.100
 5450SOL    HW118247  12.654   6.403  12.143
 5450SOL    HW218248  12.641   6.536  12.072
 5451SOL     OW18249   8.049   3.275   3.294
 5451SOL    HW118250   8.081   3.219   3.223
 5451SOL    HW218251   8.026   3.357   3.251
 5452SOL     OW18252  13.300   1.068   0.330
 5452SOL    HW118253  13.226   1.007   0.329
 5452SOL    HW218254  13.297   1.109   0.417
 5453SOL     OW18255   9.738   2.863  11.098
 5453SOL    HW118256   9.784   2.946  11.084
 5453SOL    HW218257   9.792   2.816  11.162
 5454SOL     OW18258  13.226  13.269   6.879
 5454SOL    HW118259  13.211  13.311   6.963
 5454SOL    HW218260  13.191  13.329   6.814
 5455SOL     OW18261   2.256  14.095   9.948
 5455SOL    HW118262   2.314  14.163   9.916
 5455SOL    HW218263   2.242  14.037   9.873
 5456SOL     OW18264  11.763  11.972   2.557
 5456SOL    HW118265  11.760  11.971   2.461
 5456SOL    HW218266  11.693  11.913   2.584
 5457SOL     OW18267  12.412  13.213   0.857
 5457SOL    HW118268  12.348  13.177   0.794
 5457SOL    HW218269  12.416  13.306   0.835
 5458SOL     OW18270   0.338   1.414   5.040
 5458SOL    HW118271   0.281   1.419   5.116
 5458SOL    HW218272   0.279   1.399   4.966
 5459SOL     OW18273   4.336   3.750  11.577
 5459SOL    HW118274   4.283   3.787  11.648
 5459SOL    HW218275   4.337   3.819  11.511
 5460SOL     OW18276   2.309  13.535  12.073
 5460SOL    HW118277   2.337  13.469  12.136
 5460SOL    HW218278   2.376  13.603  12.077
 5461SOL     OW18279   7.222   0.485   9.579
 5461SOL    HW118280   7.156   0.469   9.512
 5461SOL    HW218281   7.179   0.461   9.661
 5462SOL     OW18282   8.896   8.433  11.919
 5462SOL    HW118283   8.911   8.398  11.831
 5462SOL    HW218284   8.984   8.442  11.957
 5463SOL     OW18285  14.212   8.822   5.007
 5463SOL    HW118286  14.254   8.908   5.005
 5463SOL    HW218287  14.125   8.838   5.042
 5464SOL     OW18288   3.351   2.235   9.587
 5464SOL    HW118289   3.285   2.186   9.538
 5464SOL    HW218290   3.351   2.322   9.548
 5465SOL     OW18291   4.169  10.529  14.143
 5465SOL    HW118292   4.242  10.473  14.115
 5465SOL    HW218293   4.125  10.479  14.212
 5466SOL     OW18294  13.647   6.481  12.893
 5466SOL    HW118295  13.644   6.392  12.858
 5466SOL    HW218296  13.573   6.486  12.953
 5467SOL     OW18297   2.725  11.898   5.048
 5467SOL    HW118298   2.771  11.982   5.052
 5467SOL    HW218299   2.635  11.921   5.025
 5468SOL     OW18300  14.130   9.950  14.363
 5468SOL    HW118301  14.158  10.011  14.432
 5468SOL    HW218302  14.210   9.924  14.319
 5469SOL     OW18303   1.878   1.990  10.643
 5469SOL    HW118304   1.940   1.998  10.715
 5469SOL    HW218305   1.818   2.063  10.654
 5470SOL     OW18306   1.069   5.177  11.740
 5470SOL    HW118307   1.133   5.115  11.776
 5470SOL    HW218308   1.117   5.225  11.673
 5471SOL     OW18309   4.217   8.596   3.512
 5471SOL    HW118310   4.290   8.562   3.563
 5471SOL    HW218311   4.142   8.591   3.572
 5472SOL     OW18312   6.852   2.792   7.043
 5472SOL    HW118313   6.926   2.757   7.092
 5472SOL    HW218314   6.834   2.726   6.976
 5473SOL     OW18315   7.859  13.570   8.602
 5473SOL    HW118316   7.766  13.568   8.628
 5473SOL    HW218317   7.898  13.494   8.646
 5474SOL     OW18318   3.286  14.038   3.096
 5474SOL    HW118319   3.194  14.032   3.122
 5474SOL    HW218320   3.335  14.005   3.171
 5475SOL     OW18321  10.619   9.345  13.374
 5475SOL    HW118322  10.682   9.304  13.315
 5475SOL    HW218323  10.644   9.437  13.376
 5476SOL     OW18324   6.606  13.941   9.019
 5476SOL    HW118325   6.545  13.957   9.090
 5476SOL    HW218326   6.677  14.004   9.033
 5477SOL     OW18327   6.085  10.350   1.401
 5477SOL    HW118328   6.052  10.425   1.353
 5477SOL    HW218329   6.109  10.385   1.487
 5478SOL     OW18330  14.162   8.894   7.007
 5478SOL    HW118331  14.087   8.912   6.950
 5478SOL    HW218332  14.213   8.828   6.959
 5479SOL     OW18333   1.792   6.855   8.967
 5479SOL    HW118334   1.801   6.864   8.872
 5479SOL    HW218335   1.865   6.907   9.002
 5480SOL     OW18336  11.218  13.073  11.993
 5480SOL    HW118337  11.200  13.130  11.918
 5480SOL    HW218338  11.137  13.024  12.006
 5481SOL     OW18339   0.917   3.068   8.462
 5481SOL    HW118340   0.846   3.118   8.502
 5481SOL    HW218341   0.950   3.013   8.533
 5482SOL     OW18342  13.929   0.436   6.432
 5482SOL    HW118343  14.018   0.403   6.442
 5482SOL    HW218344  13.878   0.359   6.407
 5483SOL     OW18345   0.368  13.766  13.000
 5483SOL    HW118346   0.449  13.737  12.958
 5483SOL    HW218347   0.396  13.829  13.067
 5484SOL     OW18348   6.514  14.655   9.859
 5484SOL    HW118349   6.418  14.665   9.855
 5484SOL    HW218350   6.536  14.681   9.949
 5485SOL     OW18351   9.237   3.268  12.720
 5485SOL    HW118352   9.255   3.362  12.721
 5485SOL    HW218353   9.323   3.227  12.728
 5486SOL     OW18354   1.238  10.802  12.682
 5486SOL    HW118355   1.173  10.873  12.689
 5486SOL    HW218356   1.258  10.780  12.773
 5487SOL     OW18357  14.757   3.946   5.740
 5487SOL    HW118358  14.803   3.890   5.802
 5487SOL    HW218359  14.745   4.029   5.786
 5488SOL     OW18360   5.178   8.560   0.196
 5488SOL    HW118361   5.126   8.519   0.127
 5488SOL    HW218362   5.185   8.652   0.168
 5489SOL     OW18363  10.715   6.411   0.779
 5489SOL    HW118364  10.789   6.450   0.828
 5489SOL    HW218365  10.672   6.486   0.738
 5490SOL     OW18366   5.295  13.641   2.916
 5490SOL    HW118367   5.223  13.620   2.975
 5490SOL    HW218368   5.354  13.695   2.968
 5491SOL     OW18369   3.402  10.762   0.415
 5491SOL    HW118370   3.357  10.692   0.367
 5491SOL    HW218371   3.342  10.837   0.410
 5492SOL     OW18372  11.708  13.058  11.601
 5492SOL    HW118373  11.712  13.019  11.513
 5492SOL    HW218374  11.682  13.149  11.586
 5493SOL     OW18375  12.033   0.599   4.697
 5493SOL    HW118376  12.021   0.504   4.695
 5493SOL    HW218377  12.060   0.622   4.608
 5494SOL     OW18378  11.729  14.416   2.003
 5494SOL    HW118379  11.662  14.414   2.071
 5494SOL    HW218380  11.762  14.327   1.999
 5495SOL     OW18381  12.376  13.320  13.655
 5495SOL    HW118382  12.460  13.287  13.624
 5495SOL    HW218383  12.316  13.307  13.582
 5496SOL     OW18384   2.757   3.384  13.832
 5496SOL    HW118385   2.782   3.319  13.766
 5496SOL    HW218386   2.725   3.332  13.906
 5497SOL     OW18387   8.542   5.297   0.926
 5497SOL    HW118388   8.474   5.301   0.993
 5497SOL    HW218389   8.621   5.270   0.974
 5498SOL     OW18390   0.182   0.465   6.811
 5498SOL    HW118391   0.267   0.425   6.828
 5498SOL    HW218392   0.122   0.391   6.805
 5499SOL     OW18393  13.776  11.371   3.179
 5499SOL    HW118394  13.753  11.278   3.181
 5499SOL    HW218395  13.769  11.395   3.087
 5500SOL     OW18396   6.540   6.583   9.734
 5500SOL    HW118397   6.595   6.531   9.793
 5500SOL    HW218398   6.503   6.518   9.673
 5501SOL     OW18399  11.926  13.126   1.170
 5501SOL    HW118400  11.882  13.064   1.111
 5501SOL    HW218401  12.019  13.107   1.159
 5502SOL     OW18402   5.774   7.710  14.554
 5502SOL    HW118403   5.845   7.653  14.585
 5502SOL    HW218404   5.711   7.649  14.515
 5503SOL     OW18405   0.366  12.616  13.735
 5503SOL    HW118406   0.443  12.672  13.726
 5503SOL    HW218407   0.372  12.556  13.661
 5504SOL     OW18408  14.135   8.418  11.043
 5504SOL    HW118409  14.123   8.359  11.118
 5504SOL    HW218410  14.194   8.486  11.076
 5505SOL     OW18411   7.615   6.145  14.468
 5505SOL    HW118412   7.520   6.151  14.464
 5505SOL    HW218413   7.646   6.217  14.412
 5506SOL     OW18414  13.622  10.700   6.512
 5506SOL    HW118415  13.672  10.703   6.430
 5506SOL    HW218416  13.550  10.761   6.498
 5507SOL     OW18417   2.028   2.521   8.730
 5507SOL    HW118418   2.044   2.460   8.659
 5507SOL    HW218419   1.932   2.525   8.737
 5508SOL     OW18420  14.242   7.187   6.948
 5508SOL    HW118421  14.256   7.252   7.017
 5508SOL    HW218422  14.309   7.120   6.964
 5509SOL     OW18423   3.506   6.663   4.533
 5509SOL    HW118424   3.478   6.605   4.463
 5509SOL    HW218425   3.488   6.752   4.501
 5510SOL     OW18426   3.870   3.982   9.916
 5510SOL    HW118427   3.805   3.940   9.860
 5510SOL    HW218428   3.833   3.976  10.004
 5511SOL     OW18429   9.191   4.448   5.458
 5511SOL    HW118430   9.106   4.403   5.455
 5511SOL    HW218431   9.244   4.397   5.518
 5512SOL     OW18432   9.450  11.384   3.953
 5512SOL    HW118433   9.480  11.370   4.042
 5512SOL    HW218434   9.411  11.301   3.927
 5513SOL     OW18435   1.527   4.724   6.970
 5513SOL    HW118436   1.606   4.681   7.004
 5513SOL    HW218437   1.459   4.703   7.035
 5514SOL     OW18438   4.783   9.882   2.892
 5514SOL    HW118439   4.828   9.800   2.873
 5514SOL    HW218440   4.717   9.890   2.823
 5515SOL     OW18441   1.772  11.528  11.229
 5515SOL    HW118442   1.796  11.620  11.239
 5515SOL    HW218443   1.741  11.502  11.315
 5516SOL     OW18444  11.941  13.000  10.834
 5516SOL    HW118445  11.846  13.005  10.837
 5516SOL    HW218446  11.970  13.077  10.884
 5517SOL     OW18447   7.504  10.399   0.216
 5517SOL    HW118448   7.599  10.387   0.213
 5517SOL    HW218449   7.471  10.320   0.259
 5518SOL     OW18450   1.475  10.599  12.027
 5518SOL    HW118451   1.512  10.520  11.988
 5518SOL    HW218452   1.460  10.576  12.119
 5519SOL     OW18453   2.251   3.951   8.975
 5519SOL    HW118454   2.345   3.965   8.985
 5519SOL    HW218455   2.243   3.870   8.924
 5520SOL     OW18456   8.035   6.618   4.065
 5520SOL    HW118457   8.054   6.609   3.971
 5520SOL    HW218458   8.098   6.560   4.107
 5521SOL     OW18459   9.309   9.520   2.274
 5521SOL    HW118460   9.360   9.530   2.354
 5521SOL    HW218461   9.279   9.429   2.276
 5522SOL     OW18462   1.232   8.218  12.743
 5522SOL    HW118463   1.288   8.262  12.807
 5522SOL    HW218464   1.144   8.250  12.762
 5523SOL     OW18465   3.294   1.632   4.787
 5523SOL    HW118466   3.211   1.591   4.764
 5523SOL    HW218467   3.307   1.699   4.720
 5524SOL     OW18468   1.711   3.851   7.018
 5524SOL    HW118469   1.619   3.830   7.032
 5524SOL    HW218470   1.709   3.936   6.973
 5525SOL     OW18471   9.575   5.021   9.693
 5525SOL    HW118472   9.581   5.106   9.648
 5525SOL    HW218473   9.582   4.957   9.622
 5526SOL     OW18474  12.767  12.436   6.960
 5526SOL    HW118475  12.737  12.371   7.024
 5526SOL    HW218476  12.754  12.394   6.875
 5527SOL     OW18477   9.784   9.917  10.886
 5527SOL    HW118478   9.804   9.824  10.895
 5527SOL    HW218479   9.795   9.935  10.792
 5528SOL     OW18480   1.643   4.187   1.140
 5528SOL    HW118481   1.565   4.230   1.105
 5528SOL    HW218482   1.680   4.139   1.066
 5529SOL     OW18483   0.629   3.336   5.347
 5529SOL    HW118484   0.664   3.247   5.349
 5529SOL    HW218485   0.636   3.363   5.255
 5530SOL     OW18486   6.229  11.533   3.703
 5530SOL    HW118487   6.164  11.567   3.643
 5530SOL    HW218488   6.217  11.584   3.783
 5531SOL     OW18489   4.562   7.224   7.487
 5531SOL    HW118490   4.625   7.290   7.457
 5531SOL    HW218491   4.526   7.188   7.406
 5532SOL     OW18492   4.367   5.781   0.787
 5532SOL    HW118493   4.378   5.829   0.869
 5532SOL    HW218494   4.333   5.696   0.813
 5533SOL     OW18495   6.583   8.109   7.467
 5533SOL    HW118496   6.674   8.084   7.451
 5533SOL    HW218497   6.551   8.139   7.382
 5534SOL     OW18498   8.208   1.293   9.369
 5534SOL    HW118499   8.271   1.221   9.363
 5534SOL    HW218500   8.246   1.363   9.316
 5535SOL     OW18501   4.748   2.014   8.734
 5535SOL    HW118502   4.788   2.017   8.821
 5535SOL    HW218503   4.665   2.061   8.745
 5536SOL     OW18504   5.126   9.523   7.221
 5536SOL    HW118505   5.163   9.436   7.205
 5536SOL    HW218506   5.201   9.583   7.216
 5537SOL     OW18507   3.780   5.659  14.419
 5537SOL    HW118508   3.853   5.598  14.427
 5537SOL    HW218509   3.810   5.739  14.463
 5538SOL     OW18510  14.247   0.773   2.789
 5538SOL    HW118511  14.168   0.826   2.803
 5538SOL    HW218512  14.258   0.772   2.694
 5539SOL     OW18513   1.909   8.775   5.393
 5539SOL    HW118514   1.999   8.805   5.396
 5539SOL    HW218515   1.860   8.838   5.446
 5540SOL     OW18516  11.766  13.794   5.339
 5540SOL    HW118517  11.761  13.865   5.404
 5540SOL    HW218518  11.713  13.826   5.266
 5541SOL     OW18519  14.071  11.095  10.505
 5541SOL    HW118520  14.024  11.063  10.582
 5541SOL    HW218521  14.004  11.134  10.450
 5542SOL     OW18522   3.429  10.638   7.670
 5542SOL    HW118523   3.445  10.647   7.764
 5542SOL    HW218524   3.506  10.590   7.638
 5543SOL     OW18525   5.941   6.670   0.708
 5543SOL    HW118526   5.876   6.737   0.685
 5543SOL    HW218527   6.001   6.715   0.767
 5544SOL     OW18528   1.998   0.620   0.627
 5544SOL    HW118529   1.947   0.701   0.626
 5544SOL    HW218530   1.953   0.563   0.564
 5545SOL     OW18531   2.869   1.640   6.905
 5545SOL    HW118532   2.860   1.712   6.842
 5545SOL    HW218533   2.932   1.672   6.970
 5546SOL     OW18534   6.571  13.551   6.958
 5546SOL    HW118535   6.490  13.576   6.915
 5546SOL    HW218536   6.639  13.566   6.892
 5547SOL     OW18537   9.327   3.458  11.183
 5547SOL    HW118538   9.355   3.370  11.208
 5547SOL    HW218539   9.383   3.516  11.234
 5548SOL     OW18540   3.490   4.024   0.502
 5548SOL    HW118541   3.493   4.100   0.444
 5548SOL    HW218542   3.460   4.058   0.586
 5549SOL     OW18543   7.574   5.054  12.133
 5549SOL    HW118544   7.637   5.034  12.065
 5549SOL    HW218545   7.512   4.981  12.132
 5550SOL     OW18546  11.416   4.891  11.368
 5550SOL    HW118547  11.332   4.849  11.350
 5550SOL    HW218548  11.449   4.845  11.446
 5551SOL     OW18549   2.718   7.820   0.105
 5551SOL    HW118550   2.804   7.801   0.142
 5551SOL    HW218551   2.657   7.809   0.178
 5552SOL     OW18552  14.703   7.908   9.586
 5552SOL    HW118553  14.624   7.871   9.546
 5552SOL    HW218554  14.700   8.001   9.565
 5553SOL     OW18555   7.476   1.207   3.379
 5553SOL    HW118556   7.478   1.236   3.470
 5553SOL    HW218557   7.563   1.170   3.364
 5554SOL     OW18558   9.251   1.339   7.784
 5554SOL    HW118559   9.186   1.280   7.746
 5554SOL    HW218560   9.334   1.294   7.770
 5555SOL     OW18561   0.275   8.813   0.655
 5555SOL    HW118562   0.286   8.803   0.749
 5555SOL    HW218563   0.248   8.726   0.624
 5556SOL     OW18564   1.619   4.109  13.437
 5556SOL    HW118565   1.660   4.194  13.454
 5556SOL    HW218566   1.685   4.045  13.465
 5557SOL     OW18567   9.555   1.151   0.363
 5557SOL    HW118568   9.625   1.177   0.303
 5557SOL    HW218569   9.592   1.167   0.450
 5558SOL     OW18570   7.136  14.049   7.893
 5558SOL    HW118571   7.065  14.106   7.923
 5558SOL    HW218572   7.098  13.998   7.822
 5559SOL     OW18573   1.287  12.921   0.966
 5559SOL    HW118574   1.210  12.918   0.908
 5559SOL    HW218575   1.334  12.999   0.939
 5560SOL     OW18576   5.685   8.226  11.877
 5560SOL    HW118577   5.607   8.174  11.897
 5560SOL    HW218578   5.749   8.201  11.944
 5561SOL     OW18579  12.655   3.137  11.652
 5561SOL    HW118580  12.722   3.119  11.718
 5561SOL    HW218581  12.679   3.222  11.615
 5562SOL     OW18582  12.484   3.189  11.875
 5562SOL    HW118583  12.491   3.098  11.903
 5562SOL    HW218584  12.540   3.196  11.798
 5563SOL     OW18585   2.176   2.945   6.039
 5563SOL    HW118586   2.117   2.880   6.002
 5563SOL    HW218587   2.261   2.927   5.998
 5564SOL     OW18588  12.133   5.483   7.890
 5564SOL    HW118589  12.189   5.548   7.934
 5564SOL    HW218590  12.159   5.399   7.928
 5565SOL     OW18591  10.483   6.021   3.552
 5565SOL    HW118592  10.405   5.966   3.563
 5565SOL    HW218593  10.520   6.027   3.640
 5566SOL     OW18594   5.098   4.987  12.255
 5566SOL    HW118595   5.187   4.955  12.270
 5566SOL    HW218596   5.105   5.040  12.176
 5567SOL     OW18597   4.168  13.871   4.451
 5567SOL    HW118598   4.191  13.849   4.542
 5567SOL    HW218599   4.208  13.957   4.437
 5568SOL     OW18600  10.057   1.505  10.381
 5568SOL    HW118601  10.078   1.506  10.474
 5568SOL    HW218602  10.111   1.574  10.343
 5569SOL     OW18603   7.857   1.598   1.751
 5569SOL    HW118604   7.842   1.507   1.726
 5569SOL    HW218605   7.770   1.633   1.769
 5570SOL     OW18606   5.078   6.191   0.094
 5570SOL    HW118607   5.008   6.133   0.122
 5570SOL    HW218608   5.133   6.136   0.037
 5571SOL     OW18609   8.523  13.171   1.303
 5571SOL    HW118610   8.461  13.236   1.267
 5571SOL    HW218611   8.568  13.218   1.373
 5572SOL     OW18612  14.204   3.080   7.799
 5572SOL    HW118613  14.116   3.109   7.779
 5572SOL    HW218614  14.238   3.145   7.860
 5573SOL     OW18615   0.225   6.327   7.517
 5573SOL    HW118616   0.140   6.348   7.555
 5573SOL    HW218617   0.206   6.266   7.445
 5574SOL     OW18618  11.572  11.812   4.645
 5574SOL    HW118619  11.642  11.790   4.706
 5574SOL    HW218620  11.495  11.828   4.700
 5575SOL     OW18621   7.502   2.092   5.695
 5575SOL    HW118622   7.414   2.107   5.661
 5575SOL    HW218623   7.520   2.000   5.678
 5576SOL     OW18624  13.989  14.781   6.549
 5576SOL    HW118625  13.950  14.861   6.585
 5576SOL    HW218626  13.915  14.732   6.513
 5577SOL     OW18627   1.464  14.036   9.338
 5577SOL    HW118628   1.500  13.948   9.335
 5577SOL    HW218629   1.383  14.028   9.389
 5578SOL     OW18630   8.969  12.006  13.995
 5578SOL    HW118631   9.052  12.007  13.948
 5578SOL    HW218632   8.927  11.924  13.969
 5579SOL     OW18633   3.704   7.375   0.328
 5579SOL    HW118634   3.617   7.403   0.302
 5579SOL    HW218635   3.738   7.327   0.253
 5580SOL     OW18636   9.013  11.665   9.579
 5580SOL    HW118637   9.098  11.664   9.535
 5580SOL    HW218638   9.024  11.729   9.649
 5581SOL     OW18639   7.028   2.795   1.544
 5581SOL    HW118640   7.032   2.731   1.473
 5581SOL    HW218641   6.936   2.795   1.571
 5582SOL     OW18642  14.738   9.109   5.698
 5582SOL    HW118643  14.831   9.130   5.687
 5582SOL    HW218644  14.737   9.018   5.728
 5583SOL     OW18645   4.143   4.264   8.248
 5583SOL    HW118646   4.072   4.218   8.294
 5583SOL    HW218647   4.219   4.208   8.259
 5584SOL     OW18648   2.393   5.713   9.249
 5584SOL    HW118649   2.339   5.716   9.328
 5584SOL    HW218650   2.468   5.659   9.274
 5585SOL     OW18651   0.534   7.694  12.616
 5585SOL    HW118652   0.590   7.770  12.601
 5585SOL    HW218653   0.569   7.651  12.694
 5586SOL     OW18654   0.477   2.475   0.130
 5586SOL    HW118655   0.524   2.544   0.176
 5586SOL    HW218656   0.532   2.453   0.055
 5587SOL     OW18657  13.422   6.437   9.373
 5587SOL    HW118658  13.360   6.407   9.440
 5587SOL    HW218659  13.383   6.517   9.338
 5588SOL     OW18660   8.886   9.914  12.890
 5588SOL    HW118661   8.860   9.900  12.982
 5588SOL    HW218662   8.908  10.007  12.885
 5589SOL     OW18663  11.796   2.114   9.427
 5589SOL    HW118664  11.717   2.162   9.451
 5589SOL    HW218665  11.853   2.122   9.504
 5590SOL     OW18666  11.559   5.764   9.753
 5590SOL    HW118667  11.587   5.686   9.706
 5590SOL    HW218668  11.464   5.765   9.745
 5591SOL     OW18669   0.057  12.018   4.766
 5591SOL    HW118670   0.006  12.017   4.685
 5591SOL    HW218671   0.129  11.958   4.749
 5592SOL     OW18672   7.058   9.002   3.700
 5592SOL    HW118673   7.148   9.007   3.730
 5592SOL    HW218674   7.059   8.935   3.631
 5593SOL     OW18675  10.540  12.915  14.695
 5593SOL    HW118676  10.587  12.997  14.681
 5593SOL    HW218677  10.448  12.936  14.676
 5594SOL     OW18678   1.001  14.230   3.511
 5594SOL    HW118679   0.956  14.304   3.552
 5594SOL    HW218680   1.011  14.257   3.419
 5595SOL     OW18681   4.673   2.037   9.412
 5595SOL    HW118682   4.706   1.991   9.489
 5595SOL    HW218683   4.578   2.038   9.425
 5596SOL     OW18684   5.402  11.292  12.032
 5596SOL    HW118685   5.491  11.290  11.996
 5596SOL    HW218686   5.402  11.225  12.100
 5597SOL     OW18687   7.130   0.810   0.467
 5597SOL    HW118688   7.038   0.837   0.464
 5597SOL    HW218689   7.176   0.876   0.414
 5598SOL     OW18690   4.764  14.353   3.113
 5598SOL    HW118691   4.692  14.306   3.155
 5598SOL    HW218692   4.831  14.358   3.181
 5599SOL     OW18693   7.195  12.948   9.628
 5599SOL    HW118694   7.270  12.959   9.570
 5599SOL    HW218695   7.120  12.983   9.579
 5600SOL     OW18696  13.492  12.924  14.153
 5600SOL    HW118697  13.526  12.847  14.200
 5600SOL    HW218698  13.429  12.963  14.214
 5601SOL     OW18699  13.764   8.192   8.852
 5601SOL    HW118700  13.742   8.284   8.864
 5601SOL    HW218701  13.776   8.158   8.941
 5602SOL     OW18702   5.925   8.610  13.981
 5602SOL    HW118703   5.862   8.662  14.032
 5602SOL    HW218704   5.949   8.667  13.908
 5603SOL     OW18705   2.018   0.407   5.557
 5603SOL    HW118706   1.977   0.350   5.623
 5603SOL    HW218707   2.003   0.496   5.589
 5604SOL     OW18708   7.915   4.401   8.062
 5604SOL    HW118709   7.832   4.438   8.092
 5604SOL    HW218710   7.981   4.461   8.096
 5605SOL     OW18711   9.110   4.597   3.322
 5605SOL    HW118712   9.061   4.564   3.397
 5605SOL    HW218713   9.114   4.523   3.261
 5606SOL     OW18714   4.061   6.270  10.215
 5606SOL    HW118715   3.998   6.240  10.281
 5606SOL    HW218716   4.106   6.190  10.188
 5607SOL     OW18717  10.536  10.049   7.706
 5607SOL    HW118718  10.501  10.099   7.632
 5607SOL    HW218719  10.579   9.974   7.665
 5608SOL     OW18720   5.098   6.067  11.670
 5608SOL    HW118721   5.164   6.135  11.652
 5608SOL    HW218722   5.019   6.098  11.625
 5609SOL     OW18723   3.475   2.280  12.425
 5609SOL    HW118724   3.542   2.218  12.455
 5609SOL    HW218725   3.417   2.292  12.501
 5610SOL     OW18726   1.588  14.043   9.624
 5610SOL    HW118727   1.617  13.953   9.611
 5610SOL    HW218728   1.498  14.044   9.592
 5611SOL     OW18729   1.842  12.574   1.514
 5611SOL    HW118730   1.924  12.564   1.561
 5611SOL    HW218731   1.834  12.668   1.499
 5612SOL     OW18732  13.816   2.051   6.376
 5612SOL    HW118733  13.721   2.049   6.386
 5612SOL    HW218734  13.850   2.039   6.465
 5613SOL     OW18735   1.823   1.371  13.851
 5613SOL    HW118736   1.795   1.420  13.774
 5613SOL    HW218737   1.886   1.428  13.894
 5614SOL     OW18738   2.366  11.356   7.358
 5614SOL    HW118739   2.282  11.401   7.364
 5614SOL    HW218740   2.430  11.427   7.348
 5615SOL     OW18741  12.320  13.233   3.510
 5615SOL    HW118742  12.255  13.286   3.555
 5615SOL    HW218743  12.403  13.276   3.529
 5616SOL     OW18744  13.603   4.952   0.793
 5616SOL    HW118745  13.539   4.916   0.731
 5616SOL    HW218746  13.564   4.935   0.879
 5617SOL     OW18747   8.451   5.571  14.033
 5617SOL    HW118748   8.527   5.623  14.007
 5617SOL    HW218749   8.409   5.547  13.950
 5618SOL     OW18750   3.323   2.692  12.586
 5618SOL    HW118751   3.266   2.750  12.636
 5618SOL    HW218752   3.268   2.659  12.515
 5619SOL     OW18753   8.740  11.382  10.425
 5619SOL    HW118754   8.801  11.351  10.492
 5619SOL    HW218755   8.782  11.461  10.390
 5620SOL     OW18756   5.399   6.979   1.550
 5620SOL    HW118757   5.397   6.884   1.564
 5620SOL    HW218758   5.318   7.010   1.590
 5621SOL     OW18759   5.156   7.383  12.499
 5621SOL    HW118760   5.158   7.386  12.403
 5621SOL    HW218761   5.136   7.473  12.525
 5622SOL     OW18762  13.674   0.994   9.199
 5622SOL    HW118763  13.641   0.952   9.278
 5622SOL    HW218764  13.677   0.923   9.134
 5623SOL     OW18765  11.020   7.903   9.680
 5623SOL    HW118766  10.937   7.934   9.716
 5623SOL    HW218767  11.015   7.808   9.687
 5624SOL     OW18768   4.736   9.730   5.326
 5624SOL    HW118769   4.754   9.798   5.262
 5624SOL    HW218770   4.814   9.728   5.382
 5625SOL     OW18771  13.214   7.533   6.177
 5625SOL    HW118772  13.137   7.506   6.128
 5625SOL    HW218773  13.182   7.597   6.240
 5626SOL     OW18774   2.632   1.140  11.209
 5626SOL    HW118775   2.685   1.151  11.288
 5626SOL    HW218776   2.592   1.053  11.218
 5627SOL     OW18777  14.843   6.992   1.130
 5627SOL    HW118778   0.005   7.068   1.177
 5627SOL    HW218779  14.787   7.029   1.062
 5628SOL     OW18780  10.575   6.398   4.542
 5628SOL    HW118781  10.502   6.354   4.498
 5628SOL    HW218782  10.571   6.366   4.633
 5629SOL     OW18783   2.740   2.244   3.046
 5629SOL    HW118784   2.683   2.168   3.057
 5629SOL    HW218785   2.688   2.306   2.995
 5630SOL     OW18786  10.268   7.907   3.817
 5630SOL    HW118787  10.269   7.846   3.743
 5630SOL    HW218788  10.232   7.988   3.781
 5631SOL     OW18789  13.469  12.073  10.773
 5631SOL    HW118790  13.413  12.098  10.699
 5631SOL    HW218791  13.474  12.153  10.826
 5632SOL     OW18792  13.931  14.228   9.925
 5632SOL    HW118793  13.838  14.250   9.921
 5632SOL    HW218794  13.939  14.170  10.001
 5633SOL     OW18795   2.865   3.050   2.274
 5633SOL    HW118796   2.855   3.007   2.359
 5633SOL    HW218797   2.913   2.987   2.221
 5634SOL     OW18798  12.246   0.659   0.677
 5634SOL    HW118799  12.216   0.571   0.656
 5634SOL    HW218800  12.259   0.658   0.772
 5635SOL     OW18801   8.009   6.116   8.485
 5635SOL    HW118802   7.916   6.140   8.481
 5635SOL    HW218803   8.054   6.198   8.504
 5636SOL     OW18804   3.031  13.732  13.284
 5636SOL    HW118805   2.983  13.656  13.251
 5636SOL    HW218806   3.045  13.787  13.207
 5637SOL     OW18807  13.400   5.405  12.715
 5637SOL    HW118808  13.326   5.407  12.775
 5637SOL    HW218809  13.421   5.312  12.705
 5638SOL     OW18810  11.033   0.779  10.716
 5638SOL    HW118811  11.051   0.755  10.625
 5638SOL    HW218812  11.051   0.873  10.721
 5639SOL     OW18813  14.462   2.053  10.130
 5639SOL    HW118814  14.462   2.088  10.219
 5639SOL    HW218815  14.529   1.985  10.131
 5640SOL     OW18816  13.706   9.873   8.101
 5640SOL    HW118817  13.649   9.835   8.034
 5640SOL    HW218818  13.779   9.811   8.107
 5641SOL     OW18819   6.479   1.605  12.550
 5641SOL    HW118820   6.536   1.648  12.613
 5641SOL    HW218821   6.477   1.664  12.475
 5642SOL     OW18822   3.022  13.799   1.355
 5642SOL    HW118823   2.981  13.851   1.287
 5642SOL    HW218824   2.957  13.732   1.377
 5643SOL     OW18825   5.273  13.737  11.394
 5643SOL    HW118826   5.340  13.792  11.434
 5643SOL    HW218827   5.273  13.656  11.446
 5644SOL     OW18828  13.648  13.139   2.610
 5644SOL    HW118829  13.574  13.141   2.550
 5644SOL    HW218830  13.616  13.182   2.690
 5645SOL     OW18831  10.628   2.246   3.281
 5645SOL    HW118832  10.633   2.325   3.227
 5645SOL    HW218833  10.534   2.232   3.294
 5646SOL     OW18834   8.204   1.109   2.722
 5646SOL    HW118835   8.240   1.149   2.801
 5646SOL    HW218836   8.281   1.075   2.676
 5647SOL     OW18837   4.875   0.605   2.879
 5647SOL    HW118838   4.929   0.670   2.835
 5647SOL    HW218839   4.936   0.535   2.903
 5648SOL     OW18840  14.659  10.969   9.848
 5648SOL    HW118841  14.591  10.903   9.834
 5648SOL    HW218842  14.741  10.922   9.832
 5649SOL     OW18843   5.416   8.743  14.678
 5649SOL    HW118844   5.398   8.699  14.595
 5649SOL    HW218845   5.433   8.672  14.740
 5650SOL     OW18846   3.196   4.630   5.735
 5650SOL    HW118847   3.233   4.644   5.822
 5650SOL    HW218848   3.163   4.540   5.737
 5651SOL     OW18849   3.716  10.325  14.660
 5651SOL    HW118850   3.695  10.232  14.669
 5651SOL    HW218851   3.643  10.370  14.702
 5652SOL     OW18852  12.113   6.503  13.884
 5652SOL    HW118853  12.201   6.521  13.915
 5652SOL    HW218854  12.059   6.504  13.962
 5653SOL     OW18855  12.832   6.830  11.612
 5653SOL    HW118856  12.803   6.914  11.647
 5653SOL    HW218857  12.926   6.828  11.629
 5654SOL     OW18858   2.170  11.499   8.006
 5654SOL    HW118859   2.239  11.526   7.946
 5654SOL    HW218860   2.171  11.403   8.004
 5655SOL     OW18861  13.000   0.745  12.706
 5655SOL    HW118862  12.972   0.722  12.617
 5655SOL    HW218863  12.925   0.721  12.761
 5656SOL     OW18864   6.201  10.958   4.196
 5656SOL    HW118865   6.198  10.882   4.255
 5656SOL    HW218866   6.205  10.920   4.109
 5657SOL     OW18867   4.552   6.799   1.004
 5657SOL    HW118868   4.548   6.892   1.025
 5657SOL    HW218869   4.469   6.780   0.961
 5658SOL     OW18870  11.487  12.016   9.296
 5658SOL    HW118871  11.478  11.949   9.228
 5658SOL    HW218872  11.402  12.058   9.299
 5659SOL     OW18873  11.146   1.468  10.316
 5659SOL    HW118874  11.098   1.389  10.341
 5659SOL    HW218875  11.133   1.528  10.390
 5660SOL     OW18876   7.231   6.105  12.513
 5660SOL    HW118877   7.223   6.195  12.482
 5660SOL    HW218878   7.247   6.053  12.434
 5661SOL     OW18879  14.617  13.773   8.698
 5661SOL    HW118880  14.601  13.804   8.787
 5661SOL    HW218881  14.672  13.841   8.658
 5662SOL     OW18882   5.183   1.457   9.405
 5662SOL    HW118883   5.088   1.458   9.421
 5662SOL    HW218884   5.201   1.367   9.379
 5663SOL     OW18885   2.418  13.787   6.226
 5663SOL    HW118886   2.386  13.697   6.237
 5663SOL    HW218887   2.513  13.780   6.226
 5664SOL     OW18888  10.168   6.478  11.126
 5664SOL    HW118889  10.086   6.524  11.110
 5664SOL    HW218890  10.157   6.438  11.212
 5665SOL     OW18891   5.793   3.716   6.065
 5665SOL    HW118892   5.785   3.734   6.159
 5665SOL    HW218893   5.887   3.722   6.047
 5666SOL     OW18894   3.232   7.795  12.862
 5666SOL    HW118895   3.310   7.764  12.816
 5666SOL    HW218896   3.161   7.787  12.797
 5667SOL     OW18897  12.848  10.646  13.023
 5667SOL    HW118898  12.821  10.583  12.957
 5667SOL    HW218899  12.787  10.719  13.013
 5668SOL     OW18900   1.787  11.937   0.990
 5668SOL    HW118901   1.875  11.966   0.969
 5668SOL    HW218902   1.751  11.907   0.906
 5669SOL     OW18903  11.844   7.374  13.112
 5669SOL    HW118904  11.755   7.350  13.086
 5669SOL    HW218905  11.838   7.385  13.207
 5670SOL     OW18906   8.588   3.012  14.416
 5670SOL    HW118907   8.646   2.937  14.429
 5670SOL    HW218908   8.546   3.025  14.501
 5671SOL     OW18909   7.753  13.472   0.105
 5671SOL    HW118910   7.831  13.487   0.051
 5671SOL    HW218911   7.761  13.381   0.133
 5672SOL     OW18912   2.640   6.543  10.908
 5672SOL    HW118913   2.699   6.567  10.837
 5672SOL    HW218914   2.650   6.614  10.972
 5673SOL     OW18915  10.109   5.022   9.650
 5673SOL    HW118916  10.078   4.936   9.620
 5673SOL    HW218917  10.029   5.068   9.677
 5674SOL     OW18918   4.659  12.522   1.477
 5674SOL    HW118919   4.661  12.611   1.443
 5674SOL    HW218920   4.656  12.533   1.572
 5675SOL     OW18921   6.561   4.738   8.333
 5675SOL    HW118922   6.502   4.812   8.350
 5675SOL    HW218923   6.647   4.778   8.323
 5676SOL     OW18924   5.556   6.362  13.313
 5676SOL    HW118925   5.577   6.323  13.227
 5676SOL    HW218926   5.475   6.319  13.339
 5677SOL     OW18927  12.800   3.606   8.239
 5677SOL    HW118928  12.773   3.697   8.245
 5677SOL    HW218929  12.786   3.583   8.147
 5678SOL     OW18930   1.353   9.925  12.939
 5678SOL    HW118931   1.353   9.946  13.032
 5678SOL    HW218932   1.261   9.912  12.917
 5679SOL     OW18933  11.529   5.925   3.384
 5679SOL    HW118934  11.434   5.927   3.370
 5679SOL    HW218935  11.553   5.832   3.375
 5680SOL     OW18936   0.725  11.040   0.959
 5680SOL    HW118937   0.762  11.017   1.044
 5680SOL    HW218938   0.638  11.000   0.959
 5681SOL     OW18939   2.780  12.253   9.556
 5681SOL    HW118940   2.873  12.262   9.539
 5681SOL    HW218941   2.760  12.321   9.620
 5682SOL     OW18942   2.131   3.778   9.236
 5682SOL    HW118943   2.095   3.772   9.147
 5682SOL    HW218944   2.219   3.742   9.228
 5683SOL     OW18945   5.561   9.472  14.427
 5683SOL    HW118946   5.498   9.504  14.362
 5683SOL    HW218947   5.562   9.377  14.415
 5684SOL     OW18948   7.776  10.737   8.157
 5684SOL    HW118949   7.846  10.712   8.097
 5684SOL    HW218950   7.817  10.799   8.217
 5685SOL     OW18951  12.420  14.145   1.592
 5685SOL    HW118952  12.348  14.103   1.545
 5685SOL    HW218953  12.498  14.122   1.542
 5686SOL     OW18954   4.977   6.127   8.002
 5686SOL    HW118955   4.997   6.167   8.087
 5686SOL    HW218956   4.963   6.201   7.943
 5687SOL     OW18957   3.138  13.487  12.125
 5687SOL    HW118958   3.181  13.548  12.186
 5687SOL    HW218959   3.045  13.498  12.142
 5688SOL     OW18960   9.285  11.207   9.154
 5688SOL    HW118961   9.381  11.210   9.150
 5688SOL    HW218962   9.267  11.164   9.238
 5689SOL     OW18963   8.516   7.625  12.137
 5689SOL    HW118964   8.521   7.532  12.115
 5689SOL    HW218965   8.455   7.662  12.073
 5690SOL     OW18966   3.817   0.410   0.666
 5690SOL    HW118967   3.901   0.369   0.645
 5690SOL    HW218968   3.765   0.339   0.705
 5691SOL     OW18969   3.935   4.151   5.729
 5691SOL    HW118970   3.855   4.200   5.744
 5691SOL    HW218971   3.988   4.166   5.808
 5692SOL     OW18972   6.874   9.783  11.859
 5692SOL    HW118973   6.794   9.822  11.892
 5692SOL    HW218974   6.932   9.776  11.935
 5693SOL     OW18975   6.381  14.250   5.077
 5693SOL    HW118976   6.306  14.191   5.079
 5693SOL    HW218977   6.346  14.335   5.105
 5694SOL     OW18978  14.319   8.295   2.362
 5694SOL    HW118979  14.260   8.282   2.287
 5694SOL    HW218980  14.262   8.296   2.438
 5695SOL     OW18981   3.981   7.321   8.955
 5695SOL    HW118982   4.030   7.360   8.882
 5695SOL    HW218983   3.890   7.345   8.938
 5696SOL     OW18984   5.249   4.743  11.072
 5696SOL    HW118985   5.229   4.768  11.162
 5696SOL    HW218986   5.344   4.729  11.072
 5697SOL     OW18987  14.228   2.337   7.350
 5697SOL    HW118988  14.236   2.250   7.388
 5697SOL    HW218989  14.310   2.381   7.373
 5698SOL     OW18990   9.857  11.625  13.531
 5698SOL    HW118991   9.842  11.583  13.446
 5698SOL    HW218992   9.874  11.553  13.591
 5699SOL     OW18993  12.667   2.203   9.030
 5699SOL    HW118994  12.675   2.122   8.979
 5699SOL    HW218995  12.675   2.272   8.965
 5700SOL     OW18996  11.299   7.188   7.621
 5700SOL    HW118997  11.384   7.143   7.627
 5700SOL    HW218998  11.321   7.281   7.632
 5701SOL     OW18999   4.169   2.156  14.403
 5701SOL    HW119000   4.093   2.195  14.447
 5701SOL    HW219001   4.236   2.223  14.406
 5702SOL     OW19002  12.106   6.365   2.173
 5702SOL    HW119003  12.182   6.398   2.124
 5702SOL    HW219004  12.050   6.442   2.183
 5703SOL     OW19005   0.857   4.001   1.345
 5703SOL    HW119006   0.827   4.065   1.281
 5703SOL    HW219007   0.952   4.009   1.346
 5704SOL     OW19008  13.502  14.404   5.665
 5704SOL    HW119009  13.492  14.444   5.752
 5704SOL    HW219010  13.561  14.330   5.681
 5705SOL     OW19011   8.839  13.432   9.065
 5705SOL    HW119012   8.820  13.357   9.008
 5705SOL    HW219013   8.835  13.507   9.007
 5706SOL     OW19014   7.396   4.880   0.047
 5706SOL    HW119015   7.307   4.862   0.019
 5706SOL    HW219016   7.425   4.951  14.861
 5707SOL     OW19017  14.081  14.256  10.486
 5707SOL    HW119018  14.090  14.229  10.578
 5707SOL    HW219019  14.162  14.302  10.466
 5708SOL     OW19020  11.008   0.974  11.218
 5708SOL    HW119021  10.930   0.961  11.272
 5708SOL    HW219022  10.986   0.934  11.134
 5709SOL     OW19023   0.825   8.743  11.689
 5709SOL    HW119024   0.902   8.690  11.671
 5709SOL    HW219025   0.820   8.804  11.616
 5710SOL     OW19026   7.499   6.928   9.717
 5710SOL    HW119027   7.426   6.989   9.705
 5710SOL    HW219028   7.459   6.851   9.758
 5711SOL     OW19029   3.944   1.263  13.172
 5711SOL    HW119030   3.889   1.284  13.096
 5711SOL    HW219031   3.910   1.320  13.241
 5712SOL     OW19032  11.214   1.763  10.192
 5712SOL    HW119033  11.180   1.682  10.154
 5712SOL    HW219034  11.295   1.737  10.235
 5713SOL     OW19035   0.629   5.964   4.412
 5713SOL    HW119036   0.685   5.898   4.372
 5713SOL    HW219037   0.545   5.956   4.366
 5714SOL     OW19038  12.788   9.947  11.012
 5714SOL    HW119039  12.772  10.007  10.939
 5714SOL    HW219040  12.837   9.874  10.973
 5715SOL     OW19041  13.313  12.268  13.770
 5715SOL    HW119042  13.328  12.298  13.681
 5715SOL    HW219043  13.338  12.342  13.826
 5716SOL     OW19044   8.360   6.316   0.729
 5716SOL    HW119045   8.380   6.343   0.819
 5716SOL    HW219046   8.400   6.383   0.674
 5717SOL     OW19047  11.910   0.734   6.898
 5717SOL    HW119048  11.852   0.669   6.858
 5717SOL    HW219049  11.987   0.684   6.926
 5718SOL     OW19050  13.524  14.595   4.901
 5718SOL    HW119051  13.611  14.603   4.861
 5718SOL    HW219052  13.509  14.500   4.907
 5719SOL     OW19053   4.628   7.660   0.788
 5719SOL    HW119054   4.704   7.630   0.738
 5719SOL    HW219055   4.630   7.755   0.780
 5720SOL     OW19056   3.861  12.152   4.908
 5720SOL    HW119057   3.794  12.106   4.959
 5720SOL    HW219058   3.921  12.187   4.974
 5721SOL     OW19059   0.543   2.054   8.858
 5721SOL    HW119060   0.518   2.094   8.942
 5721SOL    HW219061   0.616   1.997   8.880
 5722SOL     OW19062  12.849  14.543   0.486
 5722SOL    HW119063  12.847  14.624   0.435
 5722SOL    HW219064  12.879  14.570   0.573
 5723SOL     OW19065   0.388  14.319   4.133
 5723SOL    HW119066   0.371  14.348   4.223
 5723SOL    HW219067   0.314  14.352   4.083
 5724SOL     OW19068   6.774  10.779  11.396
 5724SOL    HW119069   6.847  10.717  11.406
 5724SOL    HW219070   6.788  10.842  11.467
 5725SOL     OW19071   2.255  11.464  14.255
 5725SOL    HW119072   2.289  11.417  14.180
 5725SOL    HW219073   2.330  11.476  14.313
 5726SOL     OW19074   6.408   5.128   6.788
 5726SOL    HW119075   6.366   5.137   6.874
 5726SOL    HW219076   6.343   5.161   6.726
 5727SOL     OW19077  12.120  12.058   5.982
 5727SOL    HW119078  12.073  11.985   5.942
 5727SOL    HW219079  12.059  12.132   5.976
 5728SOL     OW19080  10.687   4.154   3.827
 5728SOL    HW119081  10.631   4.211   3.774
 5728SOL    HW219082  10.776   4.182   3.805
 5729SOL     OW19083   7.055  13.094  11.644
 5729SOL    HW119084   6.987  13.121  11.582
 5729SOL    HW219085   7.134  13.138  11.613
 5730SOL     OW19086   3.473   1.499   6.358
 5730SOL    HW119087   3.543   1.461   6.411
 5730SOL    HW219088   3.477   1.593   6.376
 5731SOL     OW19089  12.599   9.158   6.743
 5731SOL    HW119090  12.664   9.148   6.674
 5731SOL    HW219091  12.610   9.082   6.799
 5732SOL     OW19092  10.465   7.624   4.669
 5732SOL    HW119093  10.551   7.585   4.681
 5732SOL    HW219094  10.410   7.581   4.735
 5733SOL     OW19095   8.438   6.221   8.669
 5733SOL    HW119096   8.350   6.254   8.651
 5733SOL    HW219097   8.428   6.126   8.674
 5734SOL     OW19098   7.190  13.915  14.218
 5734SOL    HW119099   7.279  13.917  14.183
 5734SOL    HW219100   7.174  14.004  14.250
 5735SOL     OW19101   2.111   2.933   5.441
 5735SOL    HW119102   2.106   2.839   5.424
 5735SOL    HW219103   2.021   2.964   5.428
 5736SOL     OW19104   8.777   4.264   5.798
 5736SOL    HW119105   8.840   4.323   5.840
 5736SOL    HW219106   8.741   4.316   5.726
 5737SOL     OW19107   1.521   4.412  13.498
 5737SOL    HW119108   1.451   4.348  13.510
 5737SOL    HW219109   1.518   4.433  13.405
 5738SOL     OW19110   8.995   0.679   2.939
 5738SOL    HW119111   8.905   0.660   2.913
 5738SOL    HW219112   9.043   0.690   2.857
 5739SOL     OW19113   9.894   9.475   3.634
 5739SOL    HW119114   9.880   9.568   3.621
 5739SOL    HW219115   9.848   9.455   3.716
 5740SOL     OW19116   6.277  13.420   6.493
 5740SOL    HW119117   6.300  13.399   6.403
 5740SOL    HW219118   6.263  13.515   6.493
 5741SOL     OW19119  11.561  10.948   2.821
 5741SOL    HW119120  11.627  10.985   2.762
 5741SOL    HW219121  11.530  11.023   2.872
 5742SOL     OW19122  10.908   3.866   1.015
 5742SOL    HW119123  10.840   3.829   1.072
 5742SOL    HW219124  10.859   3.911   0.946
 5743SOL     OW19125  12.419   3.423  13.275
 5743SOL    HW119126  12.426   3.399  13.183
 5743SOL    HW219127  12.472   3.358  13.321
 5744SOL     OW19128   0.607   6.240  10.418
 5744SOL    HW119129   0.669   6.313  10.428
 5744SOL    HW219130   0.637   6.194  10.340
 5745SOL     OW19131   0.800   8.731   7.438
 5745SOL    HW119132   0.831   8.718   7.528
 5745SOL    HW219133   0.798   8.826   7.427
 5746SOL     OW19134  10.562   8.876  12.116
 5746SOL    HW119135  10.475   8.910  12.095
 5746SOL    HW219136  10.576   8.805  12.054
 5747SOL     OW19137  13.717  14.651   8.227
 5747SOL    HW119138  13.806  14.682   8.245
 5747SOL    HW219139  13.674  14.724   8.182
 5748SOL     OW19140   1.464  12.468  11.924
 5748SOL    HW119141   1.495  12.550  11.960
 5748SOL    HW219142   1.377  12.488  11.890
 5749SOL     OW19143  12.708   7.636   9.276
 5749SOL    HW119144  12.772   7.620   9.206
 5749SOL    HW219145  12.630   7.666   9.230
 5750SOL     OW19146  10.694   7.487   1.924
 5750SOL    HW119147  10.701   7.434   1.844
 5750SOL    HW219148  10.611   7.535   1.912
 5751SOL     OW19149  13.011   4.391  13.601
 5751SOL    HW119150  12.920   4.410  13.623
 5751SOL    HW219151  13.061   4.462  13.642
 5752SOL     OW19152   8.103   6.789   6.584
 5752SOL    HW119153   8.011   6.810   6.596
 5752SOL    HW219154   8.129   6.836   6.505
 5753SOL     OW19155  10.693   1.364   5.911
 5753SOL    HW119156  10.680   1.399   5.999
 5753SOL    HW219157  10.640   1.284   5.909
 5754SOL     OW19158   6.604  13.767   9.595
 5754SOL    HW119159   6.558  13.705   9.538
 5754SOL    HW219160   6.591  13.852   9.554
 5755SOL     OW19161   1.153   7.803   2.674
 5755SOL    HW119162   1.232   7.852   2.651
 5755SOL    HW219163   1.181   7.748   2.748
 5756SOL     OW19164   5.603   0.910   1.865
 5756SOL    HW119165   5.579   0.997   1.897
 5756SOL    HW219166   5.657   0.927   1.788
 5757SOL     OW19167   4.698   4.629   3.518
 5757SOL    HW119168   4.623   4.589   3.475
 5757SOL    HW219169   4.774   4.594   3.471
 5758SOL     OW19170  12.656   7.315   2.341
 5758SOL    HW119171  12.592   7.377   2.374
 5758SOL    HW219172  12.682   7.264   2.418
 5759SOL     OW19173   8.036   8.279   3.545
 5759SOL    HW119174   8.129   8.277   3.566
 5759SOL    HW219175   7.993   8.307   3.626
 5760SOL     OW19176   5.377  11.824   2.825
 5760SOL    HW119177   5.392  11.779   2.742
 5760SOL    HW219178   5.456  11.876   2.839
 5761SOL     OW19179   6.805   0.172   6.671
 5761SOL    HW119180   6.834   0.261   6.653
 5761SOL    HW219181   6.871   0.117   6.629
 5762SOL     OW19182   0.148   2.874   2.150
 5762SOL    HW119183   0.184   2.932   2.083
 5762SOL    HW219184   0.055   2.897   2.155
 5763SOL     OW19185   2.017   6.986   1.076
 5763SOL    HW119186   1.970   6.912   1.038
 5763SOL    HW219187   1.953   7.058   1.073
 5764SOL     OW19188   0.412   9.672   1.463
 5764SOL    HW119189   0.438   9.763   1.471
 5764SOL    HW219190   0.415   9.654   1.369
 5765SOL     OW19191   8.656  11.895  11.384
 5765SOL    HW119192   8.582  11.951  11.360
 5765SOL    HW219193   8.634  11.810  11.345
 5766SOL     OW19194   8.373   1.841   6.163
 5766SOL    HW119195   8.370   1.751   6.196
 5766SOL    HW219196   8.371   1.896   6.241
 5767SOL     OW19197  13.800  12.954   8.008
 5767SOL    HW119198  13.786  12.976   8.100
 5767SOL    HW219199  13.778  12.861   8.003
 5768SOL     OW19200  11.775   1.650   1.113
 5768SOL    HW119201  11.694   1.657   1.063
 5768SOL    HW219202  11.843   1.636   1.047
 5769SOL     OW19203   2.786  10.454  12.469
 5769SOL    HW119204   2.805  10.376  12.416
 5769SOL    HW219205   2.740  10.513  12.409
 5770SOL     OW19206  11.913   0.127  11.186
 5770SOL    HW119207  11.981   0.195  11.186
 5770SOL    HW219208  11.873   0.133  11.099
 5771SOL     OW19209   5.716   9.760  14.053
 5771SOL    HW119210   5.653   9.768  13.981
 5771SOL    HW219211   5.677   9.696  14.112
 5772SOL     OW19212   4.854   9.591   7.695
 5772SOL    HW119213   4.907   9.663   7.661
 5772SOL    HW219214   4.858   9.524   7.627
 5773SOL     OW19215   4.808   3.274   1.203
 5773SOL    HW119216   4.727   3.312   1.236
 5773SOL    HW219217   4.794   3.265   1.109
 5774SOL     OW19218  14.624   2.187   5.240
 5774SOL    HW119219  14.530   2.187   5.255
 5774SOL    HW219220  14.643   2.271   5.198
 5775SOL     OW19221  14.000   9.586   5.560
 5775SOL    HW119222  14.042   9.609   5.477
 5775SOL    HW219223  13.939   9.658   5.577
 5776SOL     OW19224   4.080   0.307   6.850
 5776SOL    HW119225   3.996   0.304   6.804
 5776SOL    HW219226   4.108   0.216   6.856
 5777SOL     OW19227  11.527   7.021   7.617
 5777SOL    HW119228  11.613   6.979   7.621
 5777SOL    HW219229  11.469   6.953   7.582
 5778SOL     OW19230   2.439  12.356  14.200
 5778SOL    HW119231   2.474  12.312  14.277
 5778SOL    HW219232   2.515  12.398  14.160
 5779SOL     OW19233  12.347   7.853  12.875
 5779SOL    HW119234  12.379   7.789  12.812
 5779SOL    HW219235  12.299   7.801  12.940
 5780SOL     OW19236   1.641   9.284  10.613
 5780SOL    HW119237   1.630   9.370  10.574
 5780SOL    HW219238   1.587   9.287  10.692
 5781SOL     OW19239   6.329   6.426   8.412
 5781SOL    HW119240   6.333   6.521   8.424
 5781SOL    HW219241   6.251   6.412   8.359
 5782SOL     OW19242  12.387  12.479   4.733
 5782SOL    HW119243  12.340  12.403   4.698
 5782SOL    HW219244  12.343  12.554   4.692
 5783SOL     OW19245  13.413   2.302   6.157
 5783SOL    HW119246  13.359   2.223   6.151
 5783SOL    HW219247  13.370   2.364   6.098
 5784SOL     OW19248   3.801   6.408   9.173
 5784SOL    HW119249   3.720   6.357   9.173
 5784SOL    HW219250   3.771   6.499   9.165
 5785SOL     OW19251   1.108   4.635   2.204
 5785SOL    HW119252   1.111   4.631   2.108
 5785SOL    HW219253   1.198   4.652   2.230
 5786SOL     OW19254   3.337  11.278   2.352
 5786SOL    HW119255   3.243  11.260   2.356
 5786SOL    HW219256   3.378  11.193   2.342
 5787SOL     OW19257   1.524  13.627   0.401
 5787SOL    HW119258   1.531  13.719   0.377
 5787SOL    HW219259   1.590  13.583   0.348
 5788SOL     OW19260  12.474   8.118   8.546
 5788SOL    HW119261  12.470   8.214   8.542
 5788SOL    HW219262  12.392   8.089   8.504
 5789SOL     OW19263  13.895  14.156   8.209
 5789SOL    HW119264  13.837  14.181   8.281
 5789SOL    HW219265  13.906  14.061   8.218
 5790SOL     OW19266   3.147  13.423   1.113
 5790SOL    HW119267   3.186  13.505   1.142
 5790SOL    HW219268   3.100  13.446   1.033
 5791SOL     OW19269  13.956  13.301   1.092
 5791SOL    HW119270  14.032  13.345   1.131
 5791SOL    HW219271  13.939  13.350   1.012
 5792SOL     OW19272   7.867  14.546   2.902
 5792SOL    HW119273   7.776  14.576   2.899
 5792SOL    HW219274   7.872  14.490   2.980
 5793SOL     OW19275   7.034  14.293   5.420
 5793SOL    HW119276   7.090  14.234   5.472
 5793SOL    HW219277   6.951  14.246   5.413
 5794SOL     OW19278  10.504   8.288   3.334
 5794SOL    HW119279  10.519   8.228   3.261
 5794SOL    HW219280  10.530   8.374   3.300
 5795SOL     OW19281   8.581  12.951   1.730
 5795SOL    HW119282   8.622  12.905   1.656
 5795SOL    HW219283   8.646  12.947   1.800
 5796SOL     OW19284   8.344  14.608  12.532
 5796SOL    HW119285   8.395  14.683  12.505
 5796SOL    HW219286   8.374  14.589  12.621
 5797SOL     OW19287   6.069  11.232  11.098
 5797SOL    HW119288   6.039  11.289  11.027
 5797SOL    HW219289   6.088  11.148  11.055
 5798SOL     OW19290  11.974  13.236   9.173
 5798SOL    HW119291  12.035  13.195   9.112
 5798SOL    HW219292  11.972  13.178   9.249
 5799SOL     OW19293  10.056  14.584  12.246
 5799SOL    HW119294  10.068  14.619  12.334
 5799SOL    HW219295   9.970  14.541  12.248
 5800SOL     OW19296  10.614   5.363   8.235
 5800SOL    HW119297  10.530   5.327   8.262
 5800SOL    HW219298  10.677   5.325   8.296
 5801SOL     OW19299   1.544   4.443   2.488
 5801SOL    HW119300   1.539   4.478   2.399
 5801SOL    HW219301   1.616   4.380   2.485
 5802SOL     OW19302   2.563   5.373  10.749
 5802SOL    HW119303   2.537   5.350  10.660
 5802SOL    HW219304   2.482   5.406  10.790
 5803SOL     OW19305   5.301  14.248  10.785
 5803SOL    HW119306   5.334  14.327  10.741
 5803SOL    HW219307   5.320  14.177  10.724
 5804SOL     OW19308   1.921   0.769  12.275
 5804SOL    HW119309   1.930   0.696  12.213
 5804SOL    HW219310   1.901   0.726  12.358
 5805SOL     OW19311   7.626  11.954   4.743
 5805SOL    HW119312   7.561  11.994   4.800
 5805SOL    HW219313   7.688  11.912   4.803
 5806SOL     OW19314   7.533   1.458   4.282
 5806SOL    HW119315   7.480   1.465   4.203
 5806SOL    HW219316   7.486   1.509   4.348
 5807SOL     OW19317  11.787  12.850   6.175
 5807SOL    HW119318  11.832  12.905   6.239
 5807SOL    HW219319  11.813  12.885   6.090
 5808SOL     OW19320   0.254   0.553   9.249
 5808SOL    HW119321   0.245   0.572   9.342
 5808SOL    HW219322   0.204   0.622   9.206
 5809SOL     OW19323  12.027   5.374   3.239
 5809SOL    HW119324  12.066   5.372   3.152
 5809SOL    HW219325  11.959   5.306   3.237
 5810SOL     OW19326   9.780   7.316   0.477
 5810SOL    HW119327   9.837   7.302   0.400
 5810SOL    HW219328   9.819   7.392   0.521
 5811SOL     OW19329   2.477   8.843   8.170
 5811SOL    HW119330   2.510   8.754   8.163
 5811SOL    HW219331   2.428   8.858   8.089
 5812SOL     OW19332   0.238   5.049  12.401
 5812SOL    HW119333   0.286   5.042  12.483
 5812SOL    HW219334   0.254   5.139  12.371
 5813SOL     OW19335  12.683   3.700   8.701
 5813SOL    HW119336  12.634   3.621   8.724
 5813SOL    HW219337  12.760   3.698   8.758
 5814SOL     OW19338   2.786   7.075   0.422
 5814SOL    HW119339   2.713   7.013   0.426
 5814SOL    HW219340   2.748   7.155   0.388
 5815SOL     OW19341   3.739   1.386   4.040
 5815SOL    HW119342   3.662   1.395   3.984
 5815SOL    HW219343   3.735   1.296   4.073
 5816SOL     OW19344   6.277  13.685  14.349
 5816SOL    HW119345   6.328  13.763  14.370
 5816SOL    HW219346   6.338  13.612  14.361
 5817SOL     OW19347   0.746   2.635   9.556
 5817SOL    HW119348   0.825   2.610   9.507
 5817SOL    HW219349   0.684   2.663   9.489
 5818SOL     OW19350   0.467   1.058   9.313
 5818SOL    HW119351   0.470   1.154   9.311
 5818SOL    HW219352   0.523   1.034   9.387
 5819SOL     OW19353  11.962   0.437   4.983
 5819SOL    HW119354  11.903   0.479   4.920
 5819SOL    HW219355  11.904   0.402   5.050
 5820SOL     OW19356  14.140  10.399  10.204
 5820SOL    HW119357  14.164  10.315  10.242
 5820SOL    HW219358  14.219  10.452  10.212
 5821SOL     OW19359   1.040  13.655   1.217
 5821SOL    HW119360   1.023  13.703   1.298
 5821SOL    HW219361   1.068  13.568   1.245
 5822SOL     OW19362  13.972  13.808   4.961
 5822SOL    HW119363  13.923  13.761   5.028
 5822SOL    HW219364  13.934  13.896   4.961
 5823SOL     OW19365  13.951  10.926   2.680
 5823SOL    HW119366  13.945  10.981   2.602
 5823SOL    HW219367  14.045  10.917   2.696
 5824SOL     OW19368  10.272   1.692   6.920
 5824SOL    HW119369  10.228   1.713   6.838
 5824SOL    HW219370  10.363   1.717   6.905
 5825SOL     OW19371  12.825  11.317  10.969
 5825SOL    HW119372  12.824  11.303  10.875
 5825SOL    HW219373  12.912  11.355  10.986
 5826SOL     OW19374  13.956   1.278  10.789
 5826SOL    HW119375  13.936   1.339  10.859
 5826SOL    HW219376  13.932   1.324  10.709
 5827SOL     OW19377  10.857  10.912   1.075
 5827SOL    HW119378  10.839  10.846   1.142
 5827SOL    HW219379  10.907  10.865   1.008
 5828SOL     OW19380   0.312   2.481   3.707
 5828SOL    HW119381   0.383   2.420   3.688
 5828SOL    HW219382   0.355   2.562   3.732
 5829SOL     OW19383  10.106   3.521   4.077
 5829SOL    HW119384  10.148   3.469   4.009
 5829SOL    HW219385  10.014   3.495   4.074
 5830SOL     OW19386   5.393   9.018   2.959
 5830SOL    HW119387   5.343   9.018   2.877
 5830SOL    HW219388   5.335   9.060   3.022
 5831SOL     OW19389   6.479   5.575   3.808
 5831SOL    HW119390   6.391   5.603   3.832
 5831SOL    HW219391   6.535   5.649   3.830
 5832SOL     OW19392  12.290   8.684   7.842
 5832SOL    HW119393  12.318   8.702   7.932
 5832SOL    HW219394  12.204   8.643   7.851
 5833SOL     OW19395   8.051   9.489   5.491
 5833SOL    HW119396   8.090   9.436   5.561
 5833SOL    HW219397   8.089   9.453   5.410
 5834SOL     OW19398  10.590  12.162   2.536
 5834SOL    HW119399  10.533  12.136   2.609
 5834SOL    HW219400  10.671  12.111   2.550
 5835SOL     OW19401  12.015   8.659  13.356
 5835SOL    HW119402  12.063   8.616  13.426
 5835SOL    HW219403  12.026   8.602  13.280
 5836SOL     OW19404   7.933  11.666  12.834
 5836SOL    HW119405   8.013  11.706  12.867
 5836SOL    HW219406   7.906  11.605  12.903
 5837SOL     OW19407   5.055   0.096   6.439
 5837SOL    HW119408   5.110   0.104   6.517
 5837SOL    HW219409   4.971   0.131   6.465
 5838SOL     OW19410   4.205   6.378  12.610
 5838SOL    HW119411   4.265   6.322  12.660
 5838SOL    HW219412   4.220   6.353  12.519
 5839SOL     OW19413   7.048   9.803   6.861
 5839SOL    HW119414   7.089   9.889   6.857
 5839SOL    HW219415   6.976   9.808   6.799
 5840SOL     OW19416   3.984   2.825  13.015
 5840SOL    HW119417   3.983   2.746  13.069
 5840SOL    HW219418   3.892   2.843  12.997
 5841SOL     OW19419  14.108   5.011   2.873
 5841SOL    HW119420  14.092   5.047   2.961
 5841SOL    HW219421  14.093   5.084   2.814
 5842SOL     OW19422  12.017   7.368  13.557
 5842SOL    HW119423  11.923   7.374  13.539
 5842SOL    HW219424  12.045   7.288  13.512
 5843SOL     OW19425   9.218   7.909   0.465
 5843SOL    HW119426   9.140   7.946   0.506
 5843SOL    HW219427   9.192   7.822   0.435
 5844SOL     OW19428   3.101   3.700   3.602
 5844SOL    HW119429   3.132   3.618   3.564
 5844SOL    HW219430   3.179   3.757   3.602
 5845SOL     OW19431  11.496   5.217   0.072
 5845SOL    HW119432  11.556   5.225   0.147
 5845SOL    HW219433  11.543   5.161   0.010
 5846SOL     OW19434   9.970  13.317   7.015
 5846SOL    HW119435   9.910  13.387   7.040
 5846SOL    HW219436   9.914  13.240   7.004
 5847SOL     OW19437  10.852   4.921  13.803
 5847SOL    HW119438  10.913   4.898  13.732
 5847SOL    HW219439  10.796   4.844  13.812
 5848SOL     OW19440   7.588   1.347  12.599
 5848SOL    HW119441   7.650   1.331  12.529
 5848SOL    HW219442   7.534   1.420  12.568
 5849SOL     OW19443   9.492   8.035   0.904
 5849SOL    HW119444   9.458   8.104   0.960
 5849SOL    HW219445   9.483   7.955   0.956
 5850SOL     OW19446   0.046   8.724   6.111
 5850SOL    HW119447   0.134   8.748   6.082
 5850SOL    HW219448   0.056   8.706   6.204
 5851SOL     OW19449   1.175  14.360   4.890
 5851SOL    HW119450   1.156  14.295   4.822
 5851SOL    HW219451   1.263  14.338   4.920
 5852SOL     OW19452   6.750   1.261   5.641
 5852SOL    HW119453   6.711   1.205   5.709
 5852SOL    HW219454   6.836   1.223   5.625
 5853SOL     OW19455  10.415   5.812  10.292
 5853SOL    HW119456  10.472   5.735  10.292
 5853SOL    HW219457  10.342   5.788  10.235
 5854SOL     OW19458   6.042   2.958   7.569
 5854SOL    HW119459   6.062   2.872   7.531
 5854SOL    HW219460   6.032   2.940   7.663
 5855SOL     OW19461   4.714  14.826   9.990
 5855SOL    HW119462   4.774  14.863  10.055
 5855SOL    HW219463   4.733   0.002   9.910
 5856SOL     OW19464   0.244  11.222  11.604
 5856SOL    HW119465   0.335  11.211  11.630
 5856SOL    HW219466   0.233  11.316  11.593
 5857SOL     OW19467  13.780  14.076   9.219
 5857SOL    HW119468  13.851  14.015   9.240
 5857SOL    HW219469  13.820  14.162   9.222
 5858SOL     OW19470  12.325   0.586  11.845
 5858SOL    HW119471  12.370   0.609  11.927
 5858SOL    HW219472  12.262   0.657  11.831
 5859SOL     OW19473  11.733  12.004  14.563
 5859SOL    HW119474  11.746  11.915  14.531
 5859SOL    HW219475  11.819  12.046  14.552
 5860SOL     OW19476  14.125  10.410   9.479
 5860SOL    HW119477  14.215  10.392   9.451
 5860SOL    HW219478  14.073  10.340   9.438
 5861SOL     OW19479   6.256   3.965   8.607
 5861SOL    HW119480   6.202   3.911   8.663
 5861SOL    HW219481   6.304   4.023   8.667
 5862SOL     OW19482   8.985  12.523   6.131
 5862SOL    HW119483   8.904  12.499   6.176
 5862SOL    HW219484   8.955  12.563   6.049
 5863SOL     OW19485   8.287  12.669  10.024
 5863SOL    HW119486   8.379  12.692  10.011
 5863SOL    HW219487   8.284  12.624  10.109
 5864SOL     OW19488   8.067   2.285   3.992
 5864SOL    HW119489   8.019   2.352   4.041
 5864SOL    HW219490   8.145   2.267   4.044
 5865SOL     OW19491   2.220  14.299   1.144
 5865SOL    HW119492   2.187  14.387   1.127
 5865SOL    HW219493   2.312  14.311   1.168
 5866SOL     OW19494  10.379   6.713   2.630
 5866SOL    HW119495  10.428   6.785   2.590
 5866SOL    HW219496  10.447   6.653   2.662
 5867SOL     OW19497   6.004   7.324   0.685
 5867SOL    HW119498   6.095   7.342   0.710
 5867SOL    HW219499   5.952   7.357   0.759
 5868SOL     OW19500  14.252  11.902   0.953
 5868SOL    HW119501  14.312  11.890   1.026
 5868SOL    HW219502  14.225  11.994   0.960
 5869SOL     OW19503   4.397   0.384   4.991
 5869SOL    HW119504   4.492   0.390   4.983
 5869SOL    HW219505   4.382   0.329   5.067
 5870SOL     OW19506   4.460  13.514   7.141
 5870SOL    HW119507   4.463  13.562   7.059
 5870SOL    HW219508   4.547  13.476   7.151
 5871SOL     OW19509   0.024   4.004   5.211
 5871SOL    HW119510  14.832   4.055   5.160
 5871SOL    HW219511  14.847   3.973   5.287
 5872SOL     OW19512  14.157   4.308   5.900
 5872SOL    HW119513  14.183   4.375   5.963
 5872SOL    HW219514  14.238   4.287   5.852
 5873SOL     OW19515  13.467  14.837  13.707
 5873SOL    HW119516  13.379  14.856  13.676
 5873SOL    HW219517  13.501   0.048  13.739
 5874SOL     OW19518   4.052  10.089   1.367
 5874SOL    HW119519   4.047  10.055   1.456
 5874SOL    HW219520   3.973  10.054   1.324
 5875SOL     OW19521   2.544   7.824   7.443
 5875SOL    HW119522   2.469   7.784   7.487
 5875SOL    HW219523   2.512   7.911   7.416
 5876SOL     OW19524  11.765   9.184   6.484
 5876SOL    HW119525  11.793   9.095   6.505
 5876SOL    HW219526  11.771   9.232   6.567
 5877SOL     OW19527   7.789   0.513   9.973
 5877SOL    HW119528   7.702   0.528  10.010
 5877SOL    HW219529   7.813   0.425  10.003
 5878SOL     OW19530   6.662   5.358   7.557
 5878SOL    HW119531   6.743   5.374   7.509
 5878SOL    HW219532   6.624   5.280   7.514
 5879SOL     OW19533   7.184   9.034   5.718
 5879SOL    HW119534   7.240   9.102   5.755
 5879SOL    HW219535   7.221   9.017   5.632
 5880SOL     OW19536   3.553  13.095   0.416
 5880SOL    HW119537   3.577  13.186   0.435
 5880SOL    HW219538   3.588  13.079   0.328
 5881SOL     OW19539  14.043   2.147   2.879
 5881SOL    HW119540  13.998   2.080   2.930
 5881SOL    HW219541  13.999   2.145   2.793
 5882SOL     OW19542   1.115   8.583   1.172
 5882SOL    HW119543   1.143   8.502   1.127
 5882SOL    HW219544   1.108   8.647   1.102
 5883SOL     OW19545   2.889   6.285  12.422
 5883SOL    HW119546   2.978   6.285  12.387
 5883SOL    HW219547   2.893   6.343  12.498
 5884SOL     OW19548  11.624   3.287  10.508
 5884SOL    HW119549  11.621   3.311  10.600
 5884SOL    HW219550  11.678   3.355  10.467
 5885SOL     OW19551   2.455   1.178   0.173
 5885SOL    HW119552   2.542   1.156   0.139
 5885SOL    HW219553   2.411   1.093   0.179
 5886SOL     OW19554   7.750   5.934   1.850
 5886SOL    HW119555   7.682   5.867   1.844
 5886SOL    HW219556   7.824   5.888   1.890
 5887SOL     OW19557  10.196   0.733  14.363
 5887SOL    HW119558  10.195   0.666  14.295
 5887SOL    HW219559  10.216   0.815  14.318
 5888SOL     OW19560   1.841  12.338  14.673
 5888SOL    HW119561   1.851  12.243  14.682
 5888SOL    HW219562   1.823  12.351  14.580
 5889SOL     OW19563  14.488  13.697   3.576
 5889SOL    HW119564  14.573  13.656   3.561
 5889SOL    HW219565  14.505  13.764   3.642
 5890SOL     OW19566  13.354   1.668   3.979
 5890SOL    HW119567  13.395   1.660   4.065
 5890SOL    HW219568  13.272   1.714   3.995
 5891SOL     OW19569   7.442   8.085   7.156
 5891SOL    HW119570   7.487   8.042   7.229
 5891SOL    HW219571   7.377   8.141   7.197
 5892SOL     OW19572   1.094  10.888  13.172
 5892SOL    HW119573   1.043  10.880  13.253
 5892SOL    HW219574   1.065  10.815  13.118
 5893SOL     OW19575  11.670   7.414   4.657
 5893SOL    HW119576  11.649   7.362   4.734
 5893SOL    HW219577  11.621   7.373   4.586
 5894SOL     OW19578   5.834   1.327   4.159
 5894SOL    HW119579   5.768   1.348   4.225
 5894SOL    HW219580   5.804   1.370   4.080
 5895SOL     OW19581   9.055  11.493  14.616
 5895SOL    HW119582   9.112  11.476  14.691
 5895SOL    HW219583   8.967  11.473  14.648
 5896SOL     OW19584   4.246   0.160   1.448
 5896SOL    HW119585   4.225   0.252   1.466
 5896SOL    HW219586   4.309   0.136   1.515
 5897SOL     OW19587  14.584   1.471  12.960
 5897SOL    HW119588  14.636   1.417  13.018
 5897SOL    HW219589  14.509   1.498  13.013
 5898SOL     OW19590   5.449   5.192  14.597
 5898SOL    HW119591   5.403   5.155  14.521
 5898SOL    HW219592   5.388   5.255  14.634
 5899SOL     OW19593   6.787  10.018   4.504
 5899SOL    HW119594   6.733  10.033   4.426
 5899SOL    HW219595   6.750  10.076   4.570
 5900SOL     OW19596   7.644   6.821   6.400
 5900SOL    HW119597   7.621   6.914   6.391
 5900SOL    HW219598   7.720   6.821   6.458
 5901SOL     OW19599  11.774   4.358  10.943
 5901SOL    HW119600  11.765   4.375  10.849
 5901SOL    HW219601  11.775   4.445  10.983
 5902SOL     OW19602  10.148   7.929   1.041
 5902SOL    HW119603  10.148   7.919   0.946
 5902SOL    HW219604  10.102   8.012   1.056
 5903SOL     OW19605   7.897  10.888   0.347
 5903SOL    HW119606   7.978  10.840   0.332
 5903SOL    HW219607   7.837  10.854   0.281
 5904SOL     OW19608   4.060  11.485  14.024
 5904SOL    HW119609   4.013  11.566  14.039
 5904SOL    HW219610   4.150  11.512  14.006
 5905SOL     OW19611  12.751   6.042   4.886
 5905SOL    HW119612  12.781   6.075   4.971
 5905SOL    HW219613  12.821   5.983   4.858
 5906SOL     OW19614   8.882  11.235   6.696
 5906SOL    HW119615   8.796  11.238   6.654
 5906SOL    HW219616   8.942  11.265   6.628
 5907SOL     OW19617   6.589   7.204  13.474
 5907SOL    HW119618   6.504   7.243  13.497
 5907SOL    HW219619   6.644   7.279  13.450
 5908SOL     OW19620   8.038  14.645  11.080
 5908SOL    HW119621   7.997  14.559  11.071
 5908SOL    HW219622   8.065  14.668  10.991
 5909SOL     OW19623  11.378  12.412   8.475
 5909SOL    HW119624  11.284  12.411   8.494
 5909SOL    HW219625  11.394  12.500   8.441
 5910SOL     OW19626  12.246  11.010   9.014
 5910SOL    HW119627  12.336  11.005   8.980
 5910SOL    HW219628  12.255  10.989   9.107
 5911SOL     OW19629   8.092   8.387  11.203
 5911SOL    HW119630   8.027   8.317  11.193
 5911SOL    HW219631   8.148   8.357  11.275
 5912SOL     OW19632   5.160  13.079  10.308
 5912SOL    HW119633   5.083  13.106  10.257
 5912SOL    HW219634   5.234  13.120  10.263
 5913SOL     OW19635  14.856   0.055   7.027
 5913SOL    HW119636   0.060   0.021   7.073
 5913SOL    HW219637  14.803   0.095   7.096
 5914SOL     OW19638  12.078  12.155   5.690
 5914SOL    HW119639  12.104  12.065   5.709
 5914SOL    HW219640  11.985  12.158   5.716
 5915SOL     OW19641  10.564   7.543  11.549
 5915SOL    HW119642  10.561   7.487  11.471
 5915SOL    HW219643  10.651   7.531  11.584
 5916SOL     OW19644   9.721   8.232  11.295
 5916SOL    HW119645   9.741   8.140  11.276
 5916SOL    HW219646   9.778   8.254  11.368
 5917SOL     OW19647   1.742  11.595   9.523
 5917SOL    HW119648   1.671  11.648   9.487
 5917SOL    HW219649   1.816  11.655   9.528
 5918SOL     OW19650   8.719   2.475   8.976
 5918SOL    HW119651   8.764   2.505   9.055
 5918SOL    HW219652   8.762   2.392   8.955
 5919SOL     OW19653  14.173  11.547   3.546
 5919SOL    HW119654  14.263  11.516   3.539
 5919SOL    HW219655  14.156  11.593   3.464
 5920SOL     OW19656   7.973   8.560   1.658
 5920SOL    HW119657   7.969   8.485   1.716
 5920SOL    HW219658   8.067   8.578   1.648
 5921SOL     OW19659  12.109   3.161  10.867
 5921SOL    HW119660  12.126   3.221  10.794
 5921SOL    HW219661  12.166   3.192  10.937
 5922SOL     OW19662   3.036  14.757  13.559
 5922SOL    HW119663   3.120  14.752  13.605
 5922SOL    HW219664   3.007  14.847  13.573
 5923SOL     OW19665   7.025   0.731  11.695
 5923SOL    HW119666   7.078   0.767  11.624
 5923SOL    HW219667   7.086   0.678  11.747
 5924SOL     OW19668  14.855   1.214  14.220
 5924SOL    HW119669   0.034   1.276  14.168
 5924SOL    HW219670   0.022   1.129  14.201
 5925SOL     OW19671  13.562   0.658  10.102
 5925SOL    HW119672  13.589   0.583  10.049
 5925SOL    HW219673  13.635   0.673  10.162
 5926SOL     OW19674  13.735   7.445  13.037
 5926SOL    HW119675  13.697   7.358  13.031
 5926SOL    HW219676  13.688   7.496  12.970
 5927SOL     OW19677   1.793  14.341   4.943
 5927SOL    HW119678   1.833  14.275   5.000
 5927SOL    HW219679   1.714  14.369   4.990
 5928SOL     OW19680  11.113   2.962   2.264
 5928SOL    HW119681  11.129   2.943   2.172
 5928SOL    HW219682  11.200   2.963   2.304
 5929SOL     OW19683   0.512  14.545   2.067
 5929SOL    HW119684   0.533  14.562   2.159
 5929SOL    HW219685   0.458  14.618   2.040
 5930SOL     OW19686   9.759   0.649  11.758
 5930SOL    HW119687   9.817   0.647  11.834
 5930SOL    HW219688   9.812   0.616  11.686
 5931SOL     OW19689  10.787   0.478   0.520
 5931SOL    HW119690  10.703   0.523   0.512
 5931SOL    HW219691  10.765   0.390   0.551
 5932SOL     OW19692  14.047   3.682   0.364
 5932SOL    HW119693  13.981   3.673   0.433
 5932SOL    HW219694  14.108   3.748   0.398
 5933SOL     OW19695   3.763   8.331   6.727
 5933SOL    HW119696   3.742   8.364   6.640
 5933SOL    HW219697   3.760   8.236   6.717
 5934SOL     OW19698   9.368  13.022   7.198
 5934SOL    HW119699   9.356  13.074   7.278
 5934SOL    HW219700   9.365  12.931   7.228
 5935SOL     OW19701   1.675   3.607   0.524
 5935SOL    HW119702   1.748   3.644   0.474
 5935SOL    HW219703   1.707   3.604   0.614
 5936SOL     OW19704   3.694   6.393   0.251
 5936SOL    HW119705   3.629   6.462   0.266
 5936SOL    HW219706   3.709   6.354   0.337
 5937SOL     OW19707   8.041  13.070   7.468
 5937SOL    HW119708   8.014  13.066   7.376
 5937SOL    HW219709   8.021  13.160   7.494
 5938SOL     OW19710   4.252   1.757   0.007
 5938SOL    HW119711   4.264   1.821   0.078
 5938SOL    HW219712   4.169   1.713   0.029
 5939SOL     OW19713   5.143   9.218   5.769
 5939SOL    HW119714   5.062   9.215   5.821
 5939SOL    HW219715   5.119   9.272   5.693
 5940SOL     OW19716  14.039   4.936   0.512
 5940SOL    HW119717  13.952   4.924   0.551
 5940SOL    HW219718  14.100   4.925   0.585
 5941SOL     OW19719   2.301   9.594  13.930
 5941SOL    HW119720   2.339   9.620  13.846
 5941SOL    HW219721   2.218   9.552  13.906
 5942SOL     OW19722   0.929  13.766   9.759
 5942SOL    HW119723   0.893  13.851   9.733
 5942SOL    HW219724   0.856  13.722   9.803
 5943SOL     OW19725   9.887   6.447   8.524
 5943SOL    HW119726   9.891   6.455   8.429
 5943SOL    HW219727   9.887   6.352   8.540
 5944SOL     OW19728   4.640   6.129   0.857
 5944SOL    HW119729   4.667   6.129   0.765
 5944SOL    HW219730   4.560   6.182   0.858
 5945SOL     OW19731  12.120  11.779  13.125
 5945SOL    HW119732  12.073  11.799  13.207
 5945SOL    HW219733  12.110  11.684  13.116
 5946SOL     OW19734  12.996  13.298   2.876
 5946SOL    HW119735  13.000  13.249   2.958
 5946SOL    HW219736  12.904  13.326   2.869
 5947SOL     OW19737   3.511  14.041  14.331
 5947SOL    HW119738   3.536  14.004  14.416
 5947SOL    HW219739   3.593  14.052  14.284
 5948SOL     OW19740   0.808   1.571  11.617
 5948SOL    HW119741   0.854   1.621  11.549
 5948SOL    HW219742   0.868   1.499  11.637
 5949SOL     OW19743   1.171   4.707   1.067
 5949SOL    HW119744   1.219   4.626   1.082
 5949SOL    HW219745   1.239   4.773   1.055
 5950SOL     OW19746   7.723  14.556   4.639
 5950SOL    HW119747   7.704  14.495   4.711
 5950SOL    HW219748   7.640  14.601   4.624
 5951SOL     OW19749   7.551   7.998  11.770
 5951SOL    HW119750   7.569   8.085  11.735
 5951SOL    HW219751   7.495   8.014  11.846
 5952SOL     OW19752  13.279   1.109  11.436
 5952SOL    HW119753  13.186   1.095  11.419
 5952SOL    HW219754  13.323   1.060  11.366
 5953SOL     OW19755   9.414  10.317   1.683
 5953SOL    HW119756   9.338  10.371   1.704
 5953SOL    HW219757   9.447  10.287   1.768
 5954SOL     OW19758   8.715   0.728   0.599
 5954SOL    HW119759   8.720   0.659   0.665
 5954SOL    HW219760   8.714   0.810   0.648
 5955SOL     OW19761   2.747   2.056   8.186
 5955SOL    HW119762   2.774   2.024   8.100
 5955SOL    HW219763   2.806   2.014   8.247
 5956SOL     OW19764   3.955   6.605   6.430
 5956SOL    HW119765   3.871   6.649   6.416
 5956SOL    HW219766   3.976   6.623   6.521
 5957SOL     OW19767   4.159   2.279   0.888
 5957SOL    HW119768   4.210   2.351   0.852
 5957SOL    HW219769   4.197   2.201   0.849
 5958SOL     OW19770   8.826   8.859   3.167
 5958SOL    HW119771   8.744   8.899   3.196
 5958SOL    HW219772   8.807   8.766   3.164
 5959SOL     OW19773   3.343  11.450  12.159
 5959SOL    HW119774   3.318  11.393  12.232
 5959SOL    HW219775   3.360  11.535  12.200
 5960SOL     OW19776  13.319  13.666  12.831
 5960SOL    HW119777  13.294  13.657  12.923
 5960SOL    HW219778  13.332  13.760  12.819
 5961SOL     OW19779  14.116   8.981   0.991
 5961SOL    HW119780  14.035   8.999   1.038
 5961SOL    HW219781  14.178   8.954   1.060
 5962SOL     OW19782   1.284   0.331   0.868
 5962SOL    HW119783   1.215   0.397   0.872
 5962SOL    HW219784   1.247   0.261   0.815
 5963SOL     OW19785  12.869  14.355  14.796
 5963SOL    HW119786  12.921  14.331  14.719
 5963SOL    HW219787  12.836  14.443  14.776
 5964SOL     OW19788   4.536   4.932   9.701
 5964SOL    HW119789   4.594   4.958   9.629
 5964SOL    HW219790   4.449   4.960   9.673
 5965SOL     OW19791   8.568  13.621   7.593
 5965SOL    HW119792   8.525  13.547   7.550
 5965SOL    HW219793   8.560  13.693   7.531
 5966SOL     OW19794  10.591   7.595   8.304
 5966SOL    HW119795  10.574   7.684   8.334
 5966SOL    HW219796  10.669   7.602   8.250
 5967SOL     OW19797   6.804   8.001   3.615
 5967SOL    HW119798   6.856   8.063   3.564
 5967SOL    HW219799   6.826   7.915   3.579
 5968SOL     OW19800  13.034   9.193   0.437
 5968SOL    HW119801  13.115   9.238   0.459
 5968SOL    HW219802  13.022   9.128   0.506
 5969SOL     OW19803   2.467  11.752  10.076
 5969SOL    HW119804   2.425  11.805  10.009
 5969SOL    HW219805   2.474  11.810  10.152
 5970SOL     OW19806   6.264   8.525   6.951
 5970SOL    HW119807   6.260   8.430   6.967
 5970SOL    HW219808   6.199   8.540   6.882
 5971SOL     OW19809   0.423   3.458   4.149
 5971SOL    HW119810   0.393   3.538   4.191
 5971SOL    HW219811   0.378   3.457   4.064
 5972SOL     OW19812   8.491   9.105   0.087
 5972SOL    HW119813   8.522   9.150   0.166
 5972SOL    HW219814   8.570   9.082   0.039
 5973SOL     OW19815   4.015   6.667  11.747
 5973SOL    HW119816   4.007   6.594  11.685
 5973SOL    HW219817   3.945   6.653  11.811
 5974SOL     OW19818   1.727   6.115  13.863
 5974SOL    HW119819   1.810   6.070  13.844
 5974SOL    HW219820   1.749   6.175  13.934
 5975SOL     OW19821   0.727  13.983  13.008
 5975SOL    HW119822   0.657  13.988  13.074
 5975SOL    HW219823   0.807  13.991  13.059
 5976SOL     OW19824   0.128   4.885  11.150
 5976SOL    HW119825   0.159   4.957  11.095
 5976SOL    HW219826   0.048   4.854  11.108
 5977SOL     OW19827  11.109  10.943  11.671
 5977SOL    HW119828  11.147  10.901  11.593
 5977SOL    HW219829  11.185  10.977  11.719
 5978SOL     OW19830  13.578   3.269  12.599
 5978SOL    HW119831  13.668   3.279  12.569
 5978SOL    HW219832  13.527   3.325  12.541
 5979SOL     OW19833   8.590  12.314   5.406
 5979SOL    HW119834   8.534  12.310   5.483
 5979SOL    HW219835   8.662  12.254   5.426
 5980SOL     OW19836  10.262   1.873   4.928
 5980SOL    HW119837  10.273   1.783   4.958
 5980SOL    HW219838  10.174   1.898   4.956
 5981SOL     OW19839  11.825   7.812  14.035
 5981SOL    HW119840  11.779   7.881  13.988
 5981SOL    HW219841  11.877   7.859  14.101
 5982SOL     OW19842   8.853   9.371  13.738
 5982SOL    HW119843   8.841   9.317  13.660
 5982SOL    HW219844   8.908   9.444  13.710
 5983SOL     OW19845  11.141   0.687   3.090
 5983SOL    HW119846  11.056   0.696   3.134
 5983SOL    HW219847  11.171   0.777   3.078
 5984SOL     OW19848   5.019   0.001   1.145
 5984SOL    HW119849   4.943   0.050   1.177
 5984SOL    HW219850   4.985  14.785   1.130
 5985SOL     OW19851   0.061  11.548   0.965
 5985SOL    HW119852  14.857  11.578   1.016
 5985SOL    HW219853   0.025  11.521   0.881
 5986SOL     OW19854   4.817   2.551   1.691
 5986SOL    HW119855   4.784   2.623   1.746
 5986SOL    HW219856   4.877   2.593   1.630
 5987SOL     OW19857   6.697   7.716  10.471
 5987SOL    HW119858   6.724   7.729  10.562
 5987SOL    HW219859   6.762   7.656  10.434
 5988SOL     OW19860   8.977   9.517   9.909
 5988SOL    HW119861   8.938   9.604   9.915
 5988SOL    HW219862   9.037   9.513   9.984
 5989SOL     OW19863   0.540   5.392   3.162
 5989SOL    HW119864   0.477   5.376   3.232
 5989SOL    HW219865   0.539   5.312   3.110
 5990SOL     OW19866   6.107   1.132  11.503
 5990SOL    HW119867   6.029   1.161  11.550
 5990SOL    HW219868   6.085   1.045  11.471
 5991SOL     OW19869  11.393   1.272   8.695
 5991SOL    HW119870  11.367   1.332   8.766
 5991SOL    HW219871  11.433   1.328   8.629
 5992SOL     OW19872   4.946  12.890   3.829
 5992SOL    HW119873   4.880  12.955   3.805
 5992SOL    HW219874   4.899  12.806   3.828
 5993SOL     OW19875  11.194   8.669   8.241
 5993SOL    HW119876  11.157   8.731   8.178
 5993SOL    HW219877  11.288   8.681   8.233
 5994SOL     OW19878   1.494  12.138  11.781
 5994SOL    HW119879   1.432  12.140  11.854
 5994SOL    HW219880   1.570  12.090  11.815
 5995SOL     OW19881   5.664   1.849   2.326
 5995SOL    HW119882   5.575   1.825   2.298
 5995SOL    HW219883   5.715   1.850   2.245
 5996SOL     OW19884  13.275   5.932   2.971
 5996SOL    HW119885  13.337   5.951   2.900
 5996SOL    HW219886  13.235   6.016   2.991
 5997SOL     OW19887   7.001   5.535   8.823
 5997SOL    HW119888   7.079   5.540   8.768
 5997SOL    HW219889   7.029   5.486   8.900
 5998SOL     OW19890  14.480   0.582  10.788
 5998SOL    HW119891  14.439   0.502  10.754
 5998SOL    HW219892  14.551   0.550  10.843
 5999SOL     OW19893   4.781   0.946   8.759
 5999SOL    HW119894   4.739   0.860   8.754
 5999SOL    HW219895   4.721   0.999   8.810
 6000SOL     OW19896   2.822  11.543  14.522
 6000SOL    HW119897   2.759  11.608  14.491
 6000SOL    HW219898   2.850  11.498  14.442
 6001SOL     OW19899   2.123  14.718  14.283
 6001SOL    HW119900   2.091  14.651  14.221
 6001SOL    HW219901   2.046  14.742  14.334
 6002SOL     OW19902   8.148   6.899  13.856
 6002SOL    HW119903   8.169   6.913  13.763
 6002SOL    HW219904   8.232   6.874  13.895
 6003SOL     OW19905   2.972   8.688  10.128
 6003SOL    HW119906   3.033   8.757  10.101
 6003SOL    HW219907   3.010   8.607  10.096
 6004SOL     OW19908   4.515  12.947   9.193
 6004SOL    HW119909   4.585  13.010   9.210
 6004SOL    HW219910   4.461  12.988   9.125
 6005SOL     OW19911  10.473  13.280  10.059
 6005SOL    HW119912  10.510  13.219   9.995
 6005SOL    HW219913  10.465  13.228  10.140
 6006SOL     OW19914  12.625   6.260   7.012
 6006SOL    HW119915  12.564   6.327   6.982
 6006SOL    HW219916  12.578   6.215   7.082
 6007SOL     OW19917   5.164   5.892  10.790
 6007SOL    HW119918   5.095   5.950  10.756
 6007SOL    HW219919   5.117   5.818  10.829
 6008SOL     OW19920   4.781   9.107   5.477
 6008SOL    HW119921   4.847   9.054   5.521
 6008SOL    HW219922   4.809   9.198   5.492
 6009SOL     OW19923   3.532   3.175   9.882
 6009SOL    HW119924   3.551   3.140   9.795
 6009SOL    HW219925   3.579   3.258   9.886
 6010SOL     OW19926   1.488   3.548   3.845
 6010SOL    HW119927   1.537   3.509   3.917
 6010SOL    HW219928   1.402   3.568   3.882
 6011SOL     OW19929   6.795   4.416  12.302
 6011SOL    HW119930   6.816   4.366  12.381
 6011SOL    HW219931   6.859   4.387  12.237
 6012SOL     OW19932   9.162  11.490   5.971
 6012SOL    HW119933   9.155  11.413   6.028
 6012SOL    HW219934   9.076  11.532   5.976
 6013SOL     OW19935  11.348  11.452   0.991
 6013SOL    HW119936  11.422  11.454   1.052
 6013SOL    HW219937  11.374  11.391   0.923
 6014SOL     OW19938  12.956  14.525   9.831
 6014SOL    HW119939  12.862  14.512   9.824
 6014SOL    HW219940  12.991  14.439   9.857
 6015SOL     OW19941   6.418   2.628   5.888
 6015SOL    HW119942   6.396   2.536   5.895
 6015SOL    HW219943   6.344   2.668   5.843
 6016SOL     OW19944   3.238   0.078   3.661
 6016SOL    HW119945   3.170   0.093   3.727
 6016SOL    HW219946   3.211  14.870   3.617
 6017SOL     OW19947   2.402   3.361   0.405
 6017SOL    HW119948   2.422   3.280   0.451
 6017SOL    HW219949   2.390   3.336   0.314
 6018SOL     OW19950   4.679   4.698   0.361
 6018SOL    HW119951   4.654   4.738   0.444
 6018SOL    HW219952   4.600   4.654   0.331
 6019SOL     OW19953   4.131  11.130  13.420
 6019SOL    HW119954   4.056  11.179  13.452
 6019SOL    HW219955   4.193  11.197  13.390
 6020SOL     OW19956   1.979   0.947  11.496
 6020SOL    HW119957   2.008   0.858  11.516
 6020SOL    HW219958   1.992   0.956  11.401
 6021SOL     OW19959   9.624   6.758   6.513
 6021SOL    HW119960   9.529   6.745   6.507
 6021SOL    HW219961   9.639   6.788   6.602
 6022SOL     OW19962   8.011  14.660   6.244
 6022SOL    HW119963   8.082  14.602   6.273
 6022SOL    HW219964   7.934  14.604   6.242
 6023SOL     OW19965   9.445  12.649  13.275
 6023SOL    HW119966   9.392  12.585  13.322
 6023SOL    HW219967   9.382  12.718  13.249
 6024SOL     OW19968  13.373   2.900   9.246
 6024SOL    HW119969  13.291   2.938   9.275
 6024SOL    HW219970  13.413   2.967   9.191
 6025SOL     OW19971   9.601   3.096   2.970
 6025SOL    HW119972   9.613   3.010   2.930
 6025SOL    HW219973   9.677   3.147   2.942
 6026SOL     OW19974   8.163   5.008   8.035
 6026SOL    HW119975   8.078   4.969   8.053
 6026SOL    HW219976   8.142   5.090   7.990
 6027SOL     OW19977   2.939  10.120  10.009
 6027SOL    HW119978   2.883  10.093  10.082
 6027SOL    HW219979   3.028  10.118  10.045
 6028SOL     OW19980  10.693   7.755   7.541
 6028SOL    HW119981  10.736   7.670   7.529
 6028SOL    HW219982  10.644   7.745   7.622
 6029SOL     OW19983  11.454   9.312   3.191
 6029SOL    HW119984  11.548   9.303   3.205
 6029SOL    HW219985  11.415   9.282   3.273
 6030SOL     OW19986   9.300   0.409   9.888
 6030SOL    HW119987   9.360   0.334   9.896
 6030SOL    HW219988   9.293   0.425   9.794
 6031SOL     OW19989   4.944  13.963   1.584
 6031SOL    HW119990   5.026  13.968   1.535
 6031SOL    HW219991   4.912  13.875   1.568
 6032SOL     OW19992   7.964   3.077  11.343
 6032SOL    HW119993   7.942   3.094  11.252
 6032SOL    HW219994   8.047   3.030  11.341
 6033SOL     OW19995  12.592   3.979  10.032
 6033SOL    HW119996  12.630   3.898  10.066
 6033SOL    HW219997  12.557   4.023  10.109
 6034SOL     OW19998  11.099   8.757   6.758
 6034SOL    HW119999  11.090   8.668   6.792
 6034SOL    HW220000  11.164   8.750   6.689
 6035SOL     OW20001   0.026   5.026   8.048
 6035SOL    HW120002  14.803   5.025   8.057
 6035SOL    HW220003   0.059   5.029   8.138
 6036SOL     OW20004  14.100   4.393   8.328
 6036SOL    HW120005  14.150   4.327   8.376
 6036SOL    HW220006  14.155   4.471   8.331
 6037SOL     OW20007   5.481   7.184   4.007
 6037SOL    HW120008   5.514   7.267   3.973
 6037SOL    HW220009   5.554   7.147   4.057
 6038SOL     OW20010   8.935   6.124   7.983
 6038SOL    HW120011   8.961   6.033   7.998
 6038SOL    HW220012   8.928   6.162   8.071
 6039SOL     OW20013  10.594   4.332   4.312
 6039SOL    HW120014  10.554   4.245   4.311
 6039SOL    HW220015  10.522   4.390   4.335
 6040SOL     OW20016   0.009   7.419   1.296
 6040SOL    HW120017   0.008   7.333   1.339
 6040SOL    HW220018  14.796   7.425   1.252
 6041SOL     OW20019   9.151   2.912  11.878
 6041SOL    HW120020   9.080   2.940  11.936
 6041SOL    HW220021   9.117   2.926  11.790
 6042SOL     OW20022   6.179   6.669   2.378
 6042SOL    HW120023   6.264   6.703   2.405
 6042SOL    HW220024   6.116   6.719   2.429
 6043SOL     OW20025   3.068   4.371  12.587
 6043SOL    HW120026   3.045   4.414  12.504
 6043SOL    HW220027   3.076   4.442  12.650
 6044SOL     OW20028  11.998   1.485   2.994
 6044SOL    HW120029  12.089   1.514   2.997
 6044SOL    HW220030  11.992   1.431   2.915
 6045SOL     OW20031  13.545   9.943   2.635
 6045SOL    HW120032  13.549   9.848   2.621
 6045SOL    HW220033  13.490   9.975   2.564
 6046SOL     OW20034   0.419   0.789  11.681
 6046SOL    HW120035   0.466   0.867  11.711
 6046SOL    HW220036   0.415   0.799  11.586
 6047SOL     OW20037   2.290   2.994   3.706
 6047SOL    HW120038   2.275   3.064   3.770
 6047SOL    HW220039   2.218   2.933   3.720
 6048SOL     OW20040  11.853   9.016   7.984
 6048SOL    HW120041  11.841   8.986   7.894
 6048SOL    HW220042  11.911   8.951   8.024
 6049SOL     OW20043   5.191  14.105  12.771
 6049SOL    HW120044   5.165  14.144  12.688
 6049SOL    HW220045   5.132  14.144  12.836
 6050SOL     OW20046   1.735   4.022   9.978
 6050SOL    HW120047   1.749   4.070  10.060
 6050SOL    HW220048   1.645   3.992   9.982
 6051SOL     OW20049  11.925   6.212   6.610
 6051SOL    HW120050  11.955   6.192   6.522
 6051SOL    HW220051  11.872   6.292   6.600
 6052SOL     OW20052   0.316   2.766  11.173
 6052SOL    HW120053   0.345   2.803  11.256
 6052SOL    HW220054   0.237   2.717  11.196
 6053SOL     OW20055  11.237  11.194  14.026
 6053SOL    HW120056  11.164  11.198  14.087
 6053SOL    HW220057  11.315  11.184  14.082
 6054SOL     OW20058   2.204   4.573  10.768
 6054SOL    HW120059   2.231   4.490  10.808
 6054SOL    HW220060   2.192   4.551  10.675
 6055SOL     OW20061   6.608   7.599   3.577
 6055SOL    HW120062   6.552   7.559   3.644
 6055SOL    HW220063   6.696   7.566   3.595
 6056SOL     OW20064   6.333  13.207   1.399
 6056SOL    HW120065   6.342  13.132   1.340
 6056SOL    HW220066   6.399  13.192   1.467
 6057SOL     OW20067   7.167   5.346   2.827
 6057SOL    HW120068   7.229   5.312   2.762
 6057SOL    HW220069   7.126   5.421   2.784
 6058SOL     OW20070  14.161   9.083   9.546
 6058SOL    HW120071  14.143   9.060   9.637
 6058SOL    HW220072  14.248   9.047   9.529
 6059SOL     OW20073   8.293  13.919   4.621
 6059SOL    HW120074   8.294  13.995   4.679
 6059SOL    HW220075   8.363  13.863   4.655
 6060SOL     OW20076  10.550   4.079  11.337
 6060SOL    HW120077  10.548   4.136  11.414
 6060SOL    HW220078  10.469   4.027  11.343
 6061SOL     OW20079   2.778   9.694   1.288
 6061SOL    HW120080   2.851   9.733   1.240
 6061SOL    HW220081   2.752   9.619   1.234
 6062SOL     OW20082   9.310   2.966   1.038
 6062SOL    HW120083   9.393   3.004   1.066
 6062SOL    HW220084   9.264   3.038   0.994
 6063SOL     OW20085  14.377   5.300   8.892
 6063SOL    HW120086  14.428   5.377   8.916
 6063SOL    HW220087  14.396   5.236   8.960
 6064SOL     OW20088  13.127   8.053  10.309
 6064SOL    HW120089  13.137   8.131  10.254
 6064SOL    HW220090  13.032   8.042  10.318
 6065SOL     OW20091   0.281   8.187  12.973
 6065SOL    HW120092   0.208   8.190  12.912
 6065SOL    HW220093   0.299   8.094  12.987
 6066SOL     OW20094  14.540   0.377   6.256
 6066SOL    HW120095  14.492   0.309   6.303
 6066SOL    HW220096  14.559   0.443   6.323
 6067SOL     OW20097  13.512   0.658   8.634
 6067SOL    HW120098  13.457   0.701   8.568
 6067SOL    HW220099  13.450   0.620   8.696
 6068SOL     OW20100   6.171  14.484   3.777
 6068SOL    HW120101   6.182  14.497   3.871
 6068SOL    HW220102   6.253  14.514   3.738
 6069SOL     OW20103   1.684   4.190  14.739
 6069SOL    HW120104   1.769   4.162  14.772
 6069SOL    HW220105   1.626   4.187  14.816
 6070SOL     OW20106  10.136   0.682   9.300
 6070SOL    HW120107  10.166   0.693   9.390
 6070SOL    HW220108  10.100   0.768   9.277
 6071SOL     OW20109   3.542  11.711  11.288
 6071SOL    HW120110   3.448  11.729  11.283
 6071SOL    HW220111   3.560  11.701  11.381
 6072SOL     OW20112  12.135   9.069  10.754
 6072SOL    HW120113  12.115   8.992  10.808
 6072SOL    HW220114  12.124   9.039  10.664
 6073SOL     OW20115  10.606   4.263   2.873
 6073SOL    HW120116  10.552   4.187   2.898
 6073SOL    HW220117  10.544   4.323   2.832
 6074SOL     OW20118   4.108   8.038   3.081
 6074SOL    HW120119   4.097   8.064   2.990
 6074SOL    HW220120   4.021   8.042   3.119
 6075SOL     OW20121   5.215   4.355   2.780
 6075SOL    HW120122   5.164   4.338   2.859
 6075SOL    HW220123   5.281   4.286   2.779
 6076SOL     OW20124  10.425  14.136  12.426
 6076SOL    HW120125  10.357  14.167  12.367
 6076SOL    HW220126  10.391  14.053  12.459
 6077SOL     OW20127   4.200  12.836  11.410
 6077SOL    HW120128   4.172  12.927  11.423
 6077SOL    HW220129   4.261  12.840  11.336
 6078SOL     OW20130  12.623  12.043   3.622
 6078SOL    HW120131  12.620  12.088   3.537
 6078SOL    HW220132  12.553  11.978   3.617
 6079SOL     OW20133  12.768  12.503  13.213
 6079SOL    HW120134  12.758  12.596  13.235
 6079SOL    HW220135  12.726  12.495  13.127
 6080SOL     OW20136   9.936   2.734   5.227
 6080SOL    HW120137   9.854   2.688   5.241
 6080SOL    HW220138   9.926   2.818   5.273
 6081SOL     OW20139  13.273   5.680   5.935
 6081SOL    HW120140  13.269   5.714   5.846
 6081SOL    HW220141  13.340   5.733   5.978
 6082SOL     OW20142   9.462   2.607  13.596
 6082SOL    HW120143   9.430   2.617  13.507
 6082SOL    HW220144   9.538   2.665  13.602
 6083SOL     OW20145   1.351   4.399   3.628
 6083SOL    HW120146   1.269   4.368   3.591
 6083SOL    HW220147   1.360   4.489   3.596
 6084SOL     OW20148  13.261  12.156  10.592
 6084SOL    HW120149  13.201  12.228  10.572
 6084SOL    HW220150  13.268  12.107  10.510
 6085SOL     OW20151   1.373   0.506   0.187
 6085SOL    HW120152   1.387   0.446   0.260
 6085SOL    HW220153   1.420   0.585   0.211
 6086SOL     OW20154   3.652   0.043  11.013
 6086SOL    HW120155   3.702   0.118  10.983
 6086SOL    HW220156   3.628   0.064  11.103
 6087SOL     OW20157  12.100   5.966  14.828
 6087SOL    HW120158  12.142   5.980   0.041
 6087SOL    HW220159  12.026   6.026  14.827
 6088SOL     OW20160   7.414  11.192   8.897
 6088SOL    HW120161   7.463  11.128   8.844
 6088SOL    HW220162   7.377  11.252   8.833
 6089SOL     OW20163   6.415   5.477   7.604
 6089SOL    HW120164   6.505   5.495   7.577
 6089SOL    HW220165   6.387   5.558   7.648
 6090SOL     OW20166   3.525  14.558   5.640
 6090SOL    HW120167   3.449  14.608   5.612
 6090SOL    HW220168   3.577  14.620   5.692
 6091SOL     OW20169   4.435  10.435   4.513
 6091SOL    HW120170   4.481  10.511   4.547
 6091SOL    HW220171   4.402  10.463   4.428
 6092SOL     OW20172   9.506   7.547   8.449
 6092SOL    HW120173   9.552   7.483   8.503
 6092SOL    HW220174   9.460   7.494   8.383
 6093SOL     OW20175   5.644   4.466   3.319
 6093SOL    HW120176   5.694   4.390   3.289
 6093SOL    HW220177   5.553   4.436   3.319
 6094SOL     OW20178   9.740   2.718   7.439
 6094SOL    HW120179   9.776   2.629   7.434
 6094SOL    HW220180   9.649   2.705   7.467
 6095SOL     OW20181  12.197  14.331   4.931
 6095SOL    HW120182  12.155  14.411   4.962
 6095SOL    HW220183  12.278  14.325   4.982
 6096SOL     OW20184   4.268   5.489  11.238
 6096SOL    HW120185   4.272   5.437  11.158
 6096SOL    HW220186   4.360   5.500  11.264
 6097SOL     OW20187  12.220   7.762  13.111
 6097SOL    HW120188  12.131   7.799  13.111
 6097SOL    HW220189  12.215   7.688  13.171
 6098SOL     OW20190  10.859   8.922  13.899
 6098SOL    HW120191  10.854   8.898  13.806
 6098SOL    HW220192  10.842   9.016  13.901
 6099SOL     OW20193  11.715  11.405   5.084
 6099SOL    HW120194  11.670  11.435   5.005
 6099SOL    HW220195  11.711  11.480   5.143
 6100SOL     OW20196   9.472  11.597  11.918
 6100SOL    HW120197   9.482  11.540  11.994
 6100SOL    HW220198   9.390  11.569  11.877
 6101SOL     OW20199   6.054   6.591   3.920
 6101SOL    HW120200   5.972   6.543   3.934
 6101SOL    HW220201   6.118   6.543   3.972
 6102SOL     OW20202   5.848   8.617  10.102
 6102SOL    HW120203   5.788   8.551  10.066
 6102SOL    HW220204   5.932   8.597  10.062
 6103SOL     OW20205   9.598   2.791   1.794
 6103SOL    HW120206   9.518   2.766   1.749
 6103SOL    HW220207   9.605   2.728   1.867
 6104SOL     OW20208  14.331   3.273  11.248
 6104SOL    HW120209  14.411   3.228  11.220
 6104SOL    HW220210  14.323   3.346  11.187
 6105SOL     OW20211  13.913   0.933  11.946
 6105SOL    HW120212  13.950   0.845  11.949
 6105SOL    HW220213  13.822   0.921  11.975
 6106SOL     OW20214   4.669   1.407   1.632
 6106SOL    HW120215   4.573   1.412   1.636
 6106SOL    HW220216   4.690   1.409   1.539
 6107SOL     OW20217  11.094   5.115  13.602
 6107SOL    HW120218  11.009   5.077  13.577
 6107SOL    HW220219  11.135   5.048  13.656
 6108SOL     OW20220  14.187   0.316   3.281
 6108SOL    HW120221  14.203   0.267   3.200
 6108SOL    HW220222  14.273   0.353   3.304
 6109SOL     OW20223   7.347   6.339   8.888
 6109SOL    HW120224   7.327   6.426   8.853
 6109SOL    HW220225   7.270   6.286   8.868
 6110SOL     OW20226   3.583   4.712   3.168
 6110SOL    HW120227   3.545   4.780   3.113
 6110SOL    HW220228   3.610   4.758   3.248
 6111SOL     OW20229  12.408   9.104   7.055
 6111SOL    HW120230  12.398   9.016   7.019
 6111SOL    HW220231  12.486   9.139   7.013
 6112SOL     OW20232   4.886  11.042  11.738
 6112SOL    HW120233   4.835  11.042  11.820
 6112SOL    HW220234   4.941  10.965  11.744
 6113SOL     OW20235  14.209   9.830  12.294
 6113SOL    HW120236  14.255   9.906  12.328
 6113SOL    HW220237  14.120   9.861  12.277
 6114SOL     OW20238   5.868   8.345   7.294
 6114SOL    HW120239   5.785   8.334   7.340
 6114SOL    HW220240   5.931   8.295   7.346
 6115SOL     OW20241   9.545   7.704  10.142
 6115SOL    HW120242   9.561   7.721  10.049
 6115SOL    HW220243   9.450   7.710  10.151
 6116SOL     OW20244  10.142  10.161   8.338
 6116SOL    HW120245  10.095  10.242   8.355
 6116SOL    HW220246  10.080  10.092   8.361
 6117SOL     OW20247  11.545   1.695   8.948
 6117SOL    HW120248  11.561   1.719   8.857
 6117SOL    HW220249  11.519   1.777   8.990
 6118SOL     OW20250   1.905   5.945  11.403
 6118SOL    HW120251   1.889   6.001  11.328
 6118SOL    HW220252   1.999   5.953  11.419
 6119SOL     OW20253  12.631   1.322   2.661
 6119SOL    HW120254  12.727   1.327   2.666
 6119SOL    HW220255  12.613   1.230   2.643
 6120SOL     OW20256   9.460   3.504  10.646
 6120SOL    HW120257   9.554   3.488  10.644
 6120SOL    HW220258   9.429   3.457  10.724
 6121SOL     OW20259  14.496  11.068  13.588
 6121SOL    HW120260  14.566  11.032  13.533
 6121SOL    HW220261  14.499  11.017  13.669
 6122SOL     OW20262  13.232   5.908  11.305
 6122SOL    HW120263  13.233   5.880  11.397
 6122SOL    HW220264  13.141   5.898  11.278
 6123SOL     OW20265   9.188  11.785   0.769
 6123SOL    HW120266   9.163  11.715   0.829
 6123SOL    HW220267   9.227  11.740   0.694
 6124SOL     OW20268  11.654  11.510  11.035
 6124SOL    HW120269  11.698  11.499  11.119
 6124SOL    HW220270  11.561  11.514  11.056
 6125SOL     OW20271   4.200  12.273   3.645
 6125SOL    HW120272   4.184  12.325   3.723
 6125SOL    HW220273   4.295  12.281   3.630
 6126SOL     OW20274   3.704   5.452   9.895
 6126SOL    HW120275   3.653   5.532   9.910
 6126SOL    HW220276   3.778   5.481   9.842
 6127SOL     OW20277  13.889  10.132   8.079
 6127SOL    HW120278  13.938  10.108   8.000
 6127SOL    HW220279  13.833  10.057   8.095
 6128SOL     OW20280   9.514   2.246  10.335
 6128SOL    HW120281   9.554   2.245  10.247
 6128SOL    HW220282   9.454   2.321  10.333
 6129SOL     OW20283   6.341   2.873   9.940
 6129SOL    HW120284   6.429   2.888   9.907
 6129SOL    HW220285   6.320   2.784   9.912
 6130SOL     OW20286   1.969  12.894  10.804
 6130SOL    HW120287   1.897  12.880  10.744
 6130SOL    HW220288   1.931  12.943  10.877
 6131SOL     OW20289   1.759   2.580   2.785
 6131SOL    HW120290   1.682   2.587   2.729
 6131SOL    HW220291   1.736   2.629   2.864
 6132SOL     OW20292   7.785   4.147   3.458
 6132SOL    HW120293   7.700   4.118   3.424
 6132SOL    HW220294   7.842   4.151   3.382
 6133SOL     OW20295   0.115  13.360  10.109
 6133SOL    HW120296   0.124  13.456  10.110
 6133SOL    HW220297   0.205  13.328  10.101
 6134SOL     OW20298  14.179   6.896   4.441
 6134SOL    HW120299  14.261   6.891   4.489
 6134SOL    HW220300  14.175   6.814   4.392
 6135SOL     OW20301   8.876   0.802   4.539
 6135SOL    HW120302   8.846   0.860   4.608
 6135SOL    HW220303   8.901   0.721   4.584
 6136SOL     OW20304  12.880   3.173   8.496
 6136SOL    HW120305  12.898   3.266   8.485
 6136SOL    HW220306  12.803   3.156   8.441
 6137SOL     OW20307  14.202   6.085   9.822
 6137SOL    HW120308  14.140   6.140   9.774
 6137SOL    HW220309  14.180   6.098   9.914
 6138SOL     OW20310   8.058   5.383  14.577
 6138SOL    HW120311   8.045   5.290  14.594
 6138SOL    HW220312   7.969   5.419  14.572
 6139SOL     OW20313   6.180   8.047   3.509
 6139SOL    HW120314   6.239   8.104   3.558
 6139SOL    HW220315   6.195   8.071   3.418
 6140SOL     OW20316   1.173   4.890   4.857
 6140SOL    HW120317   1.144   4.866   4.769
 6140SOL    HW220318   1.130   4.974   4.874
 6141SOL     OW20319   7.270   9.494  14.363
 6141SOL    HW120320   7.206   9.498  14.292
 6141SOL    HW220321   7.328   9.569  14.348
 6142SOL     OW20322   9.216   9.683   8.322
 6142SOL    HW120323   9.299   9.729   8.308
 6142SOL    HW220324   9.233   9.624   8.395
 6143SOL     OW20325  10.009   0.347  11.367
 6143SOL    HW120326   9.969   0.279  11.421
 6143SOL    HW220327  10.008   0.310  11.278
 6144SOL     OW20328   7.410  14.069   0.263
 6144SOL    HW120329   7.357  14.023   0.198
 6144SOL    HW220330   7.351  14.083   0.337
 6145SOL     OW20331  12.387   9.878  10.110
 6145SOL    HW120332  12.333   9.883  10.190
 6145SOL    HW220333  12.359   9.797  10.068
 6146SOL     OW20334   2.289  10.979   9.844
 6146SOL    HW120335   2.256  11.065   9.818
 6146SOL    HW220336   2.381  10.980   9.817
 6147SOL     OW20337   6.285  13.258   9.097
 6147SOL    HW120338   6.213  13.277   9.037
 6147SOL    HW220339   6.327  13.181   9.059
 6148SOL     OW20340   4.147  12.592   7.241
 6148SOL    HW120341   4.111  12.671   7.201
 6148SOL    HW220342   4.100  12.584   7.324
 6149SOL     OW20343   8.851  10.550   7.284
 6149SOL    HW120344   8.802  10.625   7.249
 6149SOL    HW220345   8.938  10.558   7.244
 6150SOL     OW20346   2.473   5.418   5.806
 6150SOL    HW120347   2.448   5.501   5.845
 6150SOL    HW220348   2.463   5.432   5.712
 6151SOL     OW20349  14.503  12.242   4.554
 6151SOL    HW120350  14.432  12.178   4.548
 6151SOL    HW220351  14.479  12.296   4.629
 6152SOL     OW20352   1.741   5.083   7.301
 6152SOL    HW120353   1.781   5.068   7.216
 6152SOL    HW220354   1.801   5.042   7.363
 6153SOL     OW20355   0.111  11.647   5.997
 6153SOL    HW120356   0.091  11.560   6.030
 6153SOL    HW220357   0.185  11.635   5.937
 6154SOL     OW20358   3.000   2.523   8.168
 6154SOL    HW120359   3.053   2.470   8.227
 6154SOL    HW220360   2.923   2.470   8.149
 6155SOL     OW20361   4.949  11.805   5.497
 6155SOL    HW120362   4.999  11.870   5.448
 6155SOL    HW220363   5.015  11.745   5.532
 6156SOL     OW20364  13.269   2.981   9.978
 6156SOL    HW120365  13.191   2.927   9.992
 6156SOL    HW220366  13.339   2.918   9.962
 6157SOL     OW20367   5.769  14.570   2.046
 6157SOL    HW120368   5.817  14.594   1.966
 6157SOL    HW220369   5.818  14.611   2.117
 6158SOL     OW20370   5.009   0.719  11.070
 6158SOL    HW120371   5.051   0.800  11.100
 6158SOL    HW220372   5.009   0.726  10.974
 6159SOL     OW20373   3.775   8.327  12.500
 6159SOL    HW120374   3.774   8.422  12.485
 6159SOL    HW220375   3.782   8.317  12.595
 6160SOL     OW20376  10.588  13.352  14.584
 6160SOL    HW120377  10.667  13.382  14.538
 6160SOL    HW220378  10.620  13.297  14.655
 6161SOL     OW20379   2.927  10.572   2.745
 6161SOL    HW120380   2.943  10.595   2.836
 6161SOL    HW220381   3.013  10.579   2.703
 6162SOL     OW20382  11.903   7.810   4.289
 6162SOL    HW120383  11.815   7.844   4.298
 6162SOL    HW220384  11.947   7.833   4.371
 6163SOL     OW20385   1.082  10.958   0.719
 6163SOL    HW120386   1.061  11.047   0.690
 6163SOL    HW220387   1.178  10.954   0.713
 6164SOL     OW20388   4.469   7.070   1.011
 6164SOL    HW120389   4.478   7.160   0.981
 6164SOL    HW220390   4.375   7.057   1.022
 6165SOL     OW20391   8.877   2.424   3.786
 6165SOL    HW120392   8.819   2.500   3.777
 6165SOL    HW220393   8.840   2.374   3.859
 6166SOL     OW20394   9.993  12.475   7.157
 6166SOL    HW120395   9.965  12.412   7.223
 6166SOL    HW220396   9.943  12.554   7.176
 6167SOL     OW20397   0.954  12.276   6.270
 6167SOL    HW120398   0.950  12.313   6.358
 6167SOL    HW220399   1.032  12.219   6.272
 6168SOL     OW20400   9.967   3.513   0.470
 6168SOL    HW120401  10.062   3.515   0.481
 6168SOL    HW220402   9.945   3.420   0.462
 6169SOL     OW20403  12.713   0.388  14.632
 6169SOL    HW120404  12.734   0.480  14.649
 6169SOL    HW220405  12.719   0.379  14.537
 6170SOL     OW20406   4.026   1.972  11.208
 6170SOL    HW120407   3.997   2.024  11.283
 6170SOL    HW220408   4.036   1.883  11.244
 6171SOL     OW20409  14.687   3.162  11.537
 6171SOL    HW120410  14.641   3.090  11.494
 6171SOL    HW220411  14.627   3.192  11.605
 6172SOL     OW20412   9.893   9.754  10.478
 6172SOL    HW120413   9.882   9.661  10.457
 6172SOL    HW220414   9.898   9.757  10.574
 6173SOL     OW20415   2.862   9.015   8.010
 6173SOL    HW120416   2.894   8.928   7.985
 6173SOL    HW220417   2.781   9.026   7.961
 6174SOL     OW20418   2.715  11.434  10.601
 6174SOL    HW120419   2.796  11.407  10.645
 6174SOL    HW220420   2.721  11.395  10.514
 6175SOL     OW20421   7.433  13.050   7.639
 6175SOL    HW120422   7.491  13.063   7.563
 6175SOL    HW220423   7.476  13.097   7.710
 6176SOL     OW20424   6.165  10.794   3.244
 6176SOL    HW120425   6.110  10.787   3.322
 6176SOL    HW220426   6.207  10.879   3.251
 6177SOL     OW20427  12.833  13.760   2.289
 6177SOL    HW120428  12.800  13.684   2.337
 6177SOL    HW220429  12.928  13.757   2.300
 6178SOL     OW20430   5.842   2.998   3.299
 6178SOL    HW120431   5.834   2.993   3.204
 6178SOL    HW220432   5.831   3.090   3.320
 6179SOL     OW20433   9.593   9.903  11.661
 6179SOL    HW120434   9.542   9.821  11.665
 6179SOL    HW220435   9.681   9.878  11.687
 6180SOL     OW20436   3.050   5.781   5.751
 6180SOL    HW120437   3.112   5.718   5.788
 6180SOL    HW220438   3.057   5.769   5.657
 6181SOL     OW20439   1.624   9.453   8.803
 6181SOL    HW120440   1.687   9.395   8.759
 6181SOL    HW220441   1.617   9.419   8.892
 6182SOL     OW20442   1.073   6.021   2.549
 6182SOL    HW120443   1.139   6.031   2.481
 6182SOL    HW220444   1.097   6.086   2.616
 6183SOL     OW20445   7.008   9.223  12.847
 6183SOL    HW120446   6.983   9.237  12.755
 6183SOL    HW220447   6.990   9.307  12.889
 6184SOL     OW20448   2.733  10.456   1.577
 6184SOL    HW120449   2.777  10.485   1.657
 6184SOL    HW220450   2.779  10.501   1.507
 6185SOL     OW20451   6.514   1.827   9.051
 6185SOL    HW120452   6.422   1.803   9.062
 6185SOL    HW220453   6.541   1.861   9.136
 6186SOL     OW20454   0.817   6.946   3.142
 6186SOL    HW120455   0.791   6.881   3.207
 6186SOL    HW220456   0.869   6.898   3.079
 6187SOL     OW20457   8.281   8.912   1.937
 6187SOL    HW120458   8.278   8.821   1.968
 6187SOL    HW220459   8.328   8.960   2.005
 6188SOL     OW20460  11.277   6.081   5.209
 6188SOL    HW120461  11.364   6.055   5.178
 6188SOL    HW220462  11.217   6.019   5.166
 6189SOL     OW20463  11.903  10.350   8.807
 6189SOL    HW120464  11.984  10.391   8.777
 6189SOL    HW220465  11.887  10.387   8.893
 6190SOL     OW20466   7.638   9.860   1.233
 6190SOL    HW120467   7.649   9.837   1.141
 6190SOL    HW220468   7.727   9.871   1.266
 6191SOL     OW20469   8.573   5.610   6.786
 6191SOL    HW120470   8.518   5.621   6.864
 6191SOL    HW220471   8.529   5.542   6.735
 6192SOL     OW20472   8.736   9.803  11.896
 6192SOL    HW120473   8.749   9.871  11.963
 6192SOL    HW220474   8.678   9.844  11.832
 6193SOL     OW20475   2.041   3.065   8.044
 6193SOL    HW120476   2.124   3.095   8.082
 6193SOL    HW220477   2.067   3.026   7.960
 6194SOL     OW20478   6.909   0.722   1.611
 6194SOL    HW120479   6.854   0.788   1.655
 6194SOL    HW220480   6.961   0.684   1.682
 6195SOL     OW20481   5.598   0.347  10.902
 6195SOL    HW120482   5.530   0.280  10.913
 6195SOL    HW220483   5.608   0.385  10.989
 6196SOL     OW20484  11.165   2.853   5.739
 6196SOL    HW120485  11.199   2.931   5.695
 6196SOL    HW220486  11.228   2.836   5.809
 6197SOL     OW20487  11.836   9.863   1.488
 6197SOL    HW120488  11.869   9.812   1.414
 6197SOL    HW220489  11.741   9.854   1.483
 6198SOL     OW20490  12.971  12.914  11.421
 6198SOL    HW120491  13.010  12.920  11.509
 6198SOL    HW220492  12.883  12.949  11.432
 6199SOL     OW20493   1.843   7.590   4.817
 6199SOL    HW120494   1.836   7.535   4.895
 6199SOL    HW220495   1.915   7.552   4.767
 6200SOL     OW20496   2.006   7.865  12.520
 6200SOL    HW120497   2.063   7.872  12.597
 6200SOL    HW220498   1.919   7.889  12.552
 6201SOL     OW20499  10.234   7.600   7.074
 6201SOL    HW120500  10.273   7.514   7.059
 6201SOL    HW220501  10.305   7.662   7.059
 6202SOL     OW20502   6.864   8.324  11.575
 6202SOL    HW120503   6.921   8.260  11.534
 6202SOL    HW220504   6.923   8.390  11.611
 6203SOL     OW20505   8.605  12.203   7.228
 6203SOL    HW120506   8.680  12.156   7.263
 6203SOL    HW220507   8.623  12.295   7.247
 6204SOL     OW20508   7.448   4.108  11.063
 6204SOL    HW120509   7.529   4.093  11.015
 6204SOL    HW220510   7.382   4.122  10.995
 6205SOL     OW20511  12.186   0.005   7.297
 6205SOL    HW120512  12.115  14.867   7.233
 6205SOL    HW220513  12.168   0.090   7.338
 6206SOL     OW20514  10.614   8.486   3.128
 6206SOL    HW120515  10.689   8.426   3.123
 6206SOL    HW220516  10.562   8.467   3.050
 6207SOL     OW20517  13.243   5.096   1.348
 6207SOL    HW120518  13.181   5.027   1.326
 6207SOL    HW220519  13.260   5.084   1.442
 6208SOL     OW20520  14.813   8.663   3.614
 6208SOL    HW120521  14.870   8.738   3.636
 6208SOL    HW220522  14.770   8.641   3.696
 6209SOL     OW20523   3.863  10.379  10.897
 6209SOL    HW120524   3.857  10.352  10.988
 6209SOL    HW220525   3.883  10.473  10.901
 6210SOL     OW20526   8.000   7.055  10.827
 6210SOL    HW120527   8.054   7.073  10.750
 6210SOL    HW220528   8.056   7.079  10.902
 6211SOL     OW20529   2.196   0.267   0.398
 6211SOL    HW120530   2.172   0.282   0.306
 6211SOL    HW220531   2.243   0.346   0.424
 6212SOL     OW20532  10.814   2.642   8.699
 6212SOL    HW120533  10.775   2.565   8.657
 6212SOL    HW220534  10.902   2.613   8.725
 6213SOL     OW20535  11.722  14.363   7.596
 6213SOL    HW120536  11.690  14.295   7.536
 6213SOL    HW220537  11.728  14.441   7.542
 6214SOL     OW20538  14.044  12.223  14.469
 6214SOL    HW120539  14.047  12.129  14.488
 6214SOL    HW220540  14.039  12.264  14.556
 6215SOL     OW20541   3.828   2.787   2.702
 6215SOL    HW120542   3.843   2.770   2.609
 6215SOL    HW220543   3.906   2.754   2.745
 6216SOL     OW20544   9.076   1.181  14.798
 6216SOL    HW120545   9.111   1.123  14.730
 6216SOL    HW220546   8.993   1.140  14.824
 6217SOL     OW20547  13.161  10.645   3.113
 6217SOL    HW120548  13.112  10.579   3.065
 6217SOL    HW220549  13.132  10.636   3.204
 6218SOL     OW20550   0.374   1.764  13.147
 6218SOL    HW120551   0.336   1.830  13.090
 6218SOL    HW220552   0.337   1.782  13.233
 6219SOL     OW20553   5.458   2.511   3.380
 6219SOL    HW120554   5.459   2.426   3.423
 6219SOL    HW220555   5.502   2.570   3.441
 6220SOL     OW20556   6.391   8.329  13.559
 6220SOL    HW120557   6.364   8.387  13.488
 6220SOL    HW220558   6.312   8.318  13.612
 6221SOL     OW20559  10.223   1.731  10.007
 6221SOL    HW120560  10.272   1.792   9.951
 6221SOL    HW220561  10.221   1.650   9.957
 6222SOL     OW20562  12.992   4.561   4.115
 6222SOL    HW120563  13.066   4.512   4.153
 6222SOL    HW220564  13.027   4.649   4.099
 6223SOL     OW20565   8.185   7.937  10.847
 6223SOL    HW120566   8.092   7.932  10.871
 6223SOL    HW220567   8.216   8.018  10.888
 6224SOL     OW20568  14.731  10.390   6.127
 6224SOL    HW120569  14.793  10.441   6.179
 6224SOL    HW220570  14.647  10.434   6.137
 6225SOL     OW20571   1.728   7.115  12.566
 6225SOL    HW120572   1.772   7.031  12.563
 6225SOL    HW220573   1.646   7.101  12.519
 6226SOL     OW20574   0.265   2.908  13.002
 6226SOL    HW120575   0.220   2.922  12.919
 6226SOL    HW220576   0.324   2.983  13.011
 6227SOL     OW20577  11.290  10.746  12.678
 6227SOL    HW120578  11.329  10.816  12.730
 6227SOL    HW220579  11.309  10.770  12.587
 6228SOL     OW20580  14.204   9.743   3.875
 6228SOL    HW120581  14.246   9.663   3.844
 6228SOL    HW220582  14.276   9.801   3.899
 6229SOL     OW20583   5.872  11.570   2.884
 6229SOL    HW120584   5.907  11.481   2.890
 6229SOL    HW220585   5.800  11.571   2.948
 6230SOL     OW20586   0.456   0.803   9.461
 6230SOL    HW120587   0.390   0.870   9.449
 6230SOL    HW220588   0.506   0.831   9.537
 6231SOL     OW20589   0.874  12.430   0.484
 6231SOL    HW120590   0.817  12.442   0.408
 6231SOL    HW220591   0.891  12.336   0.487
 6232SOL     OW20592   3.446   1.114   4.860
 6232SOL    HW120593   3.402   1.088   4.941
 6232SOL    HW220594   3.376   1.141   4.801
 6233SOL     OW20595   7.500   0.858  14.423
 6233SOL    HW120596   7.553   0.783  14.396
 6233SOL    HW220597   7.530   0.930  14.367
 6234SOL     OW20598   6.406  10.637   8.924
 6234SOL    HW120599   6.446  10.553   8.901
 6234SOL    HW220600   6.477  10.700   8.916
 6235SOL     OW20601  14.797   5.507  10.568
 6235SOL    HW120602   0.008   5.490  10.526
 6235SOL    HW220603  14.750   5.564  10.507
 6236SOL     OW20604   2.695   5.742  13.886
 6236SOL    HW120605   2.600   5.733  13.880
 6236SOL    HW220606   2.709   5.822  13.936
 6237SOL     OW20607   1.507   5.211  10.687
 6237SOL    HW120608   1.586   5.259  10.664
 6237SOL    HW220609   1.539   5.133  10.734
 6238SOL     OW20610  10.475  12.249  14.597
 6238SOL    HW120611  10.419  12.296  14.536
 6238SOL    HW220612  10.538  12.315  14.628
 6239SOL     OW20613  12.034   8.866   9.061
 6239SOL    HW120614  12.035   8.817   8.979
 6239SOL    HW220615  11.945   8.902   9.066
 6240SOL     OW20616   7.644  14.226  14.750
 6240SOL    HW120617   7.706  14.198  14.682
 6240SOL    HW220618   7.613  14.312  14.721
 6241SOL     OW20619  14.135   2.599   8.473
 6241SOL    HW120620  14.054   2.604   8.524
 6241SOL    HW220621  14.191   2.667   8.509
 6242SOL     OW20622   9.255  14.439  14.558
 6242SOL    HW120623   9.348  14.463  14.557
 6242SOL    HW220624   9.251  14.364  14.618
 6243SOL     OW20625   8.912  12.979   0.740
 6243SOL    HW120626   8.962  12.901   0.714
 6243SOL    HW220627   8.968  13.053   0.718
 6244SOL     OW20628   3.165   1.870  14.440
 6244SOL    HW120629   3.207   1.945  14.483
 6244SOL    HW220630   3.077   1.900  14.421
 6245SOL     OW20631  13.258   5.989   2.375
 6245SOL    HW120632  13.280   5.909   2.327
 6245SOL    HW220633  13.224   6.048   2.308
 6246SOL     OW20634  14.139   0.925   4.508
 6246SOL    HW120635  14.207   0.991   4.518
 6246SOL    HW220636  14.057   0.975   4.509
 6247SOL     OW20637   0.037   0.241   6.834
 6247SOL    HW120638   0.099   0.193   6.779
 6247SOL    HW220639   0.019   0.183   6.908
 6248SOL     OW20640   0.025   7.007   8.670
 6248SOL    HW120641   0.067   6.928   8.634
 6248SOL    HW220642  14.804   6.986   8.669
 6249SOL     OW20643   3.010  14.376   9.618
 6249SOL    HW120644   3.105  14.390   9.614
 6249SOL    HW220645   2.983  14.417   9.700
 6250SOL     OW20646  10.086   8.605  13.932
 6250SOL    HW120647  10.119   8.520  13.960
 6250SOL    HW220648  10.002   8.585  13.891
 6251SOL     OW20649   7.472   2.196   7.348
 6251SOL    HW120650   7.495   2.104   7.362
 6251SOL    HW220651   7.521   2.243   7.415
 6252SOL     OW20652   7.913  13.512   3.839
 6252SOL    HW120653   7.915  13.560   3.756
 6252SOL    HW220654   7.820  13.495   3.855
 6253SOL     OW20655  11.962  13.824   3.443
 6253SOL    HW120656  11.922  13.742   3.473
 6253SOL    HW220657  11.909  13.893   3.482
 6254SOL     OW20658   0.672  13.838   0.587
 6254SOL    HW120659   0.669  13.929   0.557
 6254SOL    HW220660   0.581  13.810   0.587
 6255SOL     OW20661   0.327   0.417   6.138
 6255SOL    HW120662   0.371   0.383   6.060
 6255SOL    HW220663   0.393   0.471   6.181
 6256SOL     OW20664   3.220   5.632  10.139
 6256SOL    HW120665   3.145   5.577  10.118
 6256SOL    HW220666   3.293   5.571  10.151
 6257SOL     OW20667   7.553   3.455  10.133
 6257SOL    HW120668   7.463   3.486  10.137
 6257SOL    HW220669   7.604   3.532  10.108
 6258SOL     OW20670   8.773   3.098  14.223
 6258SOL    HW120671   8.730   3.112  14.139
 6258SOL    HW220672   8.735   3.016  14.256
 6259SOL     OW20673   6.323   7.493   5.612
 6259SOL    HW120674   6.338   7.548   5.689
 6259SOL    HW220675   6.397   7.512   5.555
 6260SOL     OW20676   2.348   6.198   2.303
 6260SOL    HW120677   2.399   6.279   2.310
 6260SOL    HW220678   2.411   6.133   2.270
 6261SOL     OW20679  14.014   0.267   5.831
 6261SOL    HW120680  14.066   0.318   5.894
 6261SOL    HW220681  14.079   0.231   5.771
 6262SOL     OW20682   2.369   9.307   1.440
 6262SOL    HW120683   2.340   9.252   1.514
 6262SOL    HW220684   2.404   9.245   1.376
 6263SOL     OW20685  12.869   3.768  12.900
 6263SOL    HW120686  12.935   3.743  12.834
 6263SOL    HW220687  12.915   3.760  12.984
 6264SOL     OW20688   8.535   7.367   1.077
 6264SOL    HW120689   8.500   7.302   1.137
 6264SOL    HW220690   8.630   7.363   1.091
 6265SOL     OW20691   2.539   3.012  11.062
 6265SOL    HW120692   2.452   2.973  11.049
 6265SOL    HW220693   2.599   2.937  11.059
 6266SOL     OW20694   4.898  10.478   9.286
 6266SOL    HW120695   4.887  10.573   9.285
 6266SOL    HW220696   4.970  10.461   9.224
 6267SOL     OW20697  14.036  14.344   1.632
 6267SOL    HW120698  14.084  14.356   1.550
 6267SOL    HW220699  13.975  14.273   1.614
 6268SOL     OW20700  14.516   1.903  13.811
 6268SOL    HW120701  14.592   1.943  13.855
 6268SOL    HW220702  14.482   1.841  13.876
 6269SOL     OW20703   1.216   6.744  11.604
 6269SOL    HW120704   1.294   6.724  11.553
 6269SOL    HW220705   1.155   6.673  11.582
 6270SOL     OW20706   3.244   5.727   4.300
 6270SOL    HW120707   3.258   5.658   4.365
 6270SOL    HW220708   3.214   5.802   4.351
 6271SOL     OW20709  11.307   4.304   7.010
 6271SOL    HW120710  11.303   4.268   7.099
 6271SOL    HW220711  11.215   4.307   6.982
 6272SOL     OW20712   1.923  14.279  11.292
 6272SOL    HW120713   1.864  14.353  11.275
 6272SOL    HW220714   1.989  14.284  11.223
 6273SOL     OW20715   8.671  12.733   4.700
 6273SOL    HW120716   8.736  12.799   4.674
 6273SOL    HW220717   8.691  12.658   4.644
 6274SOL     OW20718   7.563   1.616  11.653
 6274SOL    HW120719   7.571   1.592  11.746
 6274SOL    HW220720   7.652   1.605  11.618
 6275SOL     OW20721  13.011  10.745   2.842
 6275SOL    HW120722  12.946  10.724   2.775
 6275SOL    HW220723  13.090  10.699   2.814
 6276SOL     OW20724   4.298   2.609  13.199
 6276SOL    HW120725   4.333   2.532  13.242
 6276SOL    HW220726   4.343   2.683  13.240
 6277SOL     OW20727   6.351   4.718  12.456
 6277SOL    HW120728   6.354   4.662  12.533
 6277SOL    HW220729   6.394   4.799  12.483
 6278SOL     OW20730   3.372   0.338  12.461
 6278SOL    HW120731   3.429   0.344  12.538
 6278SOL    HW220732   3.336   0.426  12.451
 6279SOL     OW20733  10.331   9.887  12.396
 6279SOL    HW120734  10.407   9.857  12.346
 6279SOL    HW220735  10.255   9.859  12.345
 6280SOL     OW20736  13.901   0.138  10.459
 6280SOL    HW120737  13.951   0.090  10.393
 6280SOL    HW220738  13.967   0.177  10.516
 6281SOL     OW20739  14.563   4.858  14.412
 6281SOL    HW120740  14.587   4.816  14.329
 6281SOL    HW220741  14.616   4.814  14.478
 6282SOL     OW20742  12.548  14.475   4.513
 6282SOL    HW120743  12.514  14.457   4.426
 6282SOL    HW220744  12.501  14.414   4.570
 6283SOL     OW20745   1.359   8.417   1.420
 6283SOL    HW120746   1.370   8.372   1.504
 6283SOL    HW220747   1.272   8.390   1.390
 6284SOL     OW20748   7.846  12.007   1.397
 6284SOL    HW120749   7.870  12.098   1.412
 6284SOL    HW220750   7.930  11.960   1.397
 6285SOL     OW20751  11.397  11.423   7.030
 6285SOL    HW120752  11.356  11.350   7.077
 6285SOL    HW220753  11.428  11.482   7.099
 6286SOL     OW20754   9.246  11.740   9.020
 6286SOL    HW120755   9.152  11.722   9.014
 6286SOL    HW220756   9.254  11.832   8.998
 6287SOL     OW20757   2.282   0.888  13.426
 6287SOL    HW120758   2.377   0.880  13.441
 6287SOL    HW220759   2.256   0.964  13.478
 6288SOL     OW20760  10.497   1.754  12.702
 6288SOL    HW120761  10.588   1.728  12.715
 6288SOL    HW220762  10.502   1.837  12.656
 6289SOL     OW20763   0.751   4.870   0.319
 6289SOL    HW120764   0.666   4.850   0.281
 6289SOL    HW220765   0.810   4.875   0.244
 6290SOL     OW20766   3.925   2.921  14.594
 6290SOL    HW120767   3.859   2.990  14.604
 6290SOL    HW220768   4.008   2.964  14.615
 6291SOL     OW20769   5.349  10.885   9.289
 6291SOL    HW120770   5.343  10.978   9.271
 6291SOL    HW220771   5.284  10.845   9.231
 6292SOL     OW20772   0.114   2.577   8.792
 6292SOL    HW120773   0.130   2.571   8.886
 6292SOL    HW220774   0.069   2.495   8.771
 6293SOL     OW20775   3.865   6.937   3.808
 6293SOL    HW120776   3.867   6.892   3.724
 6293SOL    HW220777   3.952   6.973   3.818
 6294SOL     OW20778  12.764   2.689   0.091
 6294SOL    HW120779  12.772   2.784   0.092
 6294SOL    HW220780  12.852   2.658   0.071
 6295SOL     OW20781   4.475  12.107  14.595
 6295SOL    HW120782   4.498  12.016  14.614
 6295SOL    HW220783   4.557  12.148  14.567
 6296SOL     OW20784  10.094   9.087   5.739
 6296SOL    HW120785  10.089   9.122   5.650
 6296SOL    HW220786  10.046   9.004   5.735
 6297SOL     OW20787   5.346   6.798   6.656
 6297SOL    HW120788   5.374   6.829   6.570
 6297SOL    HW220789   5.331   6.704   6.644
 6298SOL     OW20790   9.695  13.454   4.265
 6298SOL    HW120791   9.611  13.500   4.256
 6298SOL    HW220792   9.759  13.512   4.223
 6299SOL     OW20793  13.292   7.242   8.061
 6299SOL    HW120794  13.201   7.249   8.090
 6299SOL    HW220795  13.324   7.163   8.104
 6300SOL     OW20796   4.636  10.039   7.969
 6300SOL    HW120797   4.580   9.989   7.912
 6300SOL    HW220798   4.578  10.074   8.037
 6301SOL     OW20799  14.301   5.575   8.809
 6301SOL    HW120800  14.334   5.549   8.723
 6301SOL    HW220801  14.309   5.497   8.863
 6302SOL     OW20802   6.712  11.534   7.551
 6302SOL    HW120803   6.663  11.599   7.602
 6302SOL    HW220804   6.649  11.498   7.489
 6303SOL     OW20805   2.527   3.366  14.378
 6303SOL    HW120806   2.595   3.423  14.343
 6303SOL    HW220807   2.539   3.282  14.333
 6304SOL     OW20808  13.676   9.500  13.217
 6304SOL    HW120809  13.713   9.438  13.280
 6304SOL    HW220810  13.616   9.446  13.164
 6305SOL     OW20811  12.170   3.752   9.339
 6305SOL    HW120812  12.090   3.719   9.377
 6305SOL    HW220813  12.170   3.719   9.249
 6306SOL     OW20814   0.109   4.854   3.950
 6306SOL    HW120815   0.181   4.815   3.900
 6306SOL    HW220816   0.056   4.899   3.884
 6307SOL     OW20817   0.927   9.022   8.368
 6307SOL    HW120818   0.957   9.091   8.426
 6307SOL    HW220819   0.905   8.949   8.426
 6308SOL     OW20820  11.122   5.855   2.009
 6308SOL    HW120821  11.120   5.769   1.966
 6308SOL    HW220822  11.041   5.897   1.980
 6309SOL     OW20823   4.418   6.033  13.413
 6309SOL    HW120824   4.491   6.094  13.418
 6309SOL    HW220825   4.432   5.973  13.487
 6310SOL     OW20826   6.444  11.526   5.308
 6310SOL    HW120827   6.492  11.453   5.347
 6310SOL    HW220828   6.391  11.561   5.379
 6311SOL     OW20829   3.881   3.683   3.495
 6311SOL    HW120830   3.850   3.668   3.406
 6311SOL    HW220831   3.915   3.598   3.523
 6312SOL     OW20832  14.164   7.090   2.005
 6312SOL    HW120833  14.095   7.129   1.951
 6312SOL    HW220834  14.245   7.111   1.960
 6313SOL     OW20835  12.221  11.485   0.906
 6313SOL    HW120836  12.191  11.398   0.932
 6313SOL    HW220837  12.206  11.540   0.982
 6314SOL     OW20838  12.910  13.299   0.262
 6314SOL    HW120839  12.945  13.381   0.295
 6314SOL    HW220840  12.985  13.240   0.258
 6315SOL     OW20841   8.052   7.608   8.733
 6315SOL    HW120842   7.999   7.633   8.658
 6315SOL    HW220843   8.071   7.691   8.778
 6316SOL     OW20844  11.954   0.813   4.819
 6316SOL    HW120845  11.970   0.723   4.789
 6316SOL    HW220846  11.940   0.804   4.913
 6317SOL     OW20847   6.939  14.800   3.142
 6317SOL    HW120848   6.870  14.761   3.090
 6317SOL    HW220849   7.013  14.740   3.133
 6318SOL     OW20850   5.022  13.612  10.615
 6318SOL    HW120851   4.965  13.618  10.538
 6318SOL    HW220852   4.974  13.658  10.684
 6319SOL     OW20853  14.446   9.337  12.798
 6319SOL    HW120854  14.352   9.341  12.819
 6319SOL    HW220855  14.452   9.369  12.708
 6320SOL     OW20856  11.866   3.786   2.398
 6320SOL    HW120857  11.825   3.740   2.325
 6320SOL    HW220858  11.799   3.848   2.428
 6321SOL     OW20859   5.407  13.659   2.263
 6321SOL    HW120860   5.453  13.582   2.294
 6321SOL    HW220861   5.406  13.718   2.339
 6322SOL     OW20862   8.792  13.704   3.028
 6322SOL    HW120863   8.732  13.630   3.017
 6322SOL    HW220864   8.770  13.763   2.956
 6323SOL     OW20865   0.235  12.147   2.251
 6323SOL    HW120866   0.326  12.138   2.278
 6323SOL    HW220867   0.237  12.212   2.180
 6324SOL     OW20868   3.930   9.528   6.609
 6324SOL    HW120869   3.978   9.609   6.596
 6324SOL    HW220870   3.971   9.488   6.686
 6325SOL     OW20871   4.097   6.775   9.005
 6325SOL    HW120872   4.152   6.715   8.956
 6325SOL    HW220873   4.054   6.720   9.071
 6326SOL     OW20874   8.762  11.486   4.446
 6326SOL    HW120875   8.818  11.551   4.488
 6326SOL    HW220876   8.732  11.528   4.366
 6327SOL     OW20877  13.005  10.578   6.548
 6327SOL    HW120878  13.018  10.672   6.534
 6327SOL    HW220879  13.091  10.546   6.574
 6328SOL     OW20880   2.575   1.652   2.313
 6328SOL    HW120881   2.572   1.560   2.288
 6328SOL    HW220882   2.495   1.665   2.364
 6329SOL     OW20883   9.698  13.169   4.368
 6329SOL    HW120884   9.713  13.179   4.462
 6329SOL    HW220885   9.637  13.240   4.346
 6330SOL     OW20886  13.397   4.199   5.767
 6330SOL    HW120887  13.315   4.178   5.812
 6330SOL    HW220888  13.424   4.282   5.804
 6331SOL     OW20889  13.885  14.103  10.189
 6331SOL    HW120890  13.978  14.118  10.173
 6331SOL    HW220891  13.882  14.021  10.238
 6332SOL     OW20892  10.000   9.310   6.225
 6332SOL    HW120893   9.915   9.283   6.192
 6332SOL    HW220894  10.012   9.398   6.191
 6333SOL     OW20895  14.709   2.778   7.606
 6333SOL    HW120896  14.702   2.864   7.565
 6333SOL    HW220897  14.618   2.754   7.627
 6334SOL     OW20898   4.071   3.654   0.031
 6334SOL    HW120899   4.089   3.710  14.827
 6334SOL    HW220900   4.031   3.576  14.866
 6335SOL     OW20901   8.017   0.895   3.467
 6335SOL    HW120902   7.980   0.872   3.552
 6335SOL    HW220903   8.107   0.920   3.486
 6336SOL     OW20904   7.653  11.160   1.354
 6336SOL    HW120905   7.694  11.247   1.357
 6336SOL    HW220906   7.560  11.178   1.336
 6337SOL     OW20907  13.954   7.762  13.848
 6337SOL    HW120908  13.920   7.732  13.764
 6337SOL    HW220909  14.036   7.714  13.859
 6338SOL     OW20910  11.340   8.398   0.383
 6338SOL    HW120911  11.343   8.328   0.318
 6338SOL    HW220912  11.355   8.354   0.467
 6339SOL     OW20913   8.996  11.222  11.948
 6339SOL    HW120914   9.012  11.238  12.041
 6339SOL    HW220915   9.075  11.178  11.917
 6340SOL     OW20916   0.594   6.097  13.075
 6340SOL    HW120917   0.560   6.184  13.053
 6340SOL    HW220918   0.518   6.039  13.064
 6341SOL     OW20919   0.944   8.841  13.308
 6341SOL    HW120920   0.933   8.934  13.327
 6341SOL    HW220921   1.038   8.832  13.289
 6342SOL     OW20922  10.015   2.109   8.565
 6342SOL    HW120923   9.958   2.135   8.493
 6342SOL    HW220924  10.103   2.114   8.528
 6343SOL     OW20925   4.875  14.493   1.631
 6343SOL    HW120926   4.894  14.587   1.631
 6343SOL    HW220927   4.797  14.484   1.577
 6344SOL     OW20928   5.545   7.093   9.080
 6344SOL    HW120929   5.574   7.127   9.164
 6344SOL    HW220930   5.573   7.159   9.016
 6345SOL     OW20931   3.965   1.083   1.083
 6345SOL    HW120932   3.977   1.177   1.070
 6345SOL    HW220933   3.994   1.044   1.001
 6346SOL     OW20934   1.463  12.608   8.179
 6346SOL    HW120935   1.474  12.532   8.237
 6346SOL    HW220936   1.489  12.576   8.092
 6347SOL     OW20937   9.516  11.396  12.126
 6347SOL    HW120938   9.485  11.469  12.180
 6347SOL    HW220939   9.592  11.362  12.174
 6348SOL     OW20940   9.073  14.360   2.105
 6348SOL    HW120941   9.017  14.306   2.049
 6348SOL    HW220942   9.013  14.418   2.151
 6349SOL     OW20943   2.456  12.945   4.650
 6349SOL    HW120944   2.542  12.986   4.655
 6349SOL    HW220945   2.449  12.916   4.558
 6350SOL     OW20946   5.250   7.862   3.275
 6350SOL    HW120947   5.158   7.886   3.268
 6350SOL    HW220948   5.297   7.942   3.249
 6351SOL     OW20949  13.459  13.446   0.784
 6351SOL    HW120950  13.433  13.401   0.865
 6351SOL    HW220951  13.380  13.494   0.758
 6352SOL     OW20952   0.366   7.784   4.190
 6352SOL    HW120953   0.338   7.874   4.179
 6352SOL    HW220954   0.446   7.777   4.138
 6353SOL     OW20955  10.242   2.918   6.705
 6353SOL    HW120956  10.297   2.922   6.626
 6353SOL    HW220957  10.291   2.863   6.765
 6354SOL     OW20958   7.016   7.873  13.258
 6354SOL    HW120959   7.045   7.886  13.348
 6354SOL    HW220960   7.071   7.802  13.225
 6355SOL     OW20961  10.333   1.587   1.018
 6355SOL    HW120962  10.395   1.626   1.080
 6355SOL    HW220963  10.371   1.502   0.996
 6356SOL     OW20964   9.903   1.270   3.661
 6356SOL    HW120965   9.995   1.280   3.684
 6356SOL    HW220966   9.890   1.176   3.655
 6357SOL     OW20967   7.111   6.975  14.145
 6357SOL    HW120968   7.166   7.026  14.204
 6357SOL    HW220969   7.028   7.022  14.143
 6358SOL     OW20970  14.037  14.443   8.496
 6358SOL    HW120971  13.955  14.448   8.448
 6358SOL    HW220972  14.037  14.355   8.535
 6359SOL     OW20973   2.335   0.271   9.853
 6359SOL    HW120974   2.390   0.235   9.923
 6359SOL    HW220975   2.396   0.295   9.784
 6360SOL     OW20976  11.967  11.023  10.389
 6360SOL    HW120977  12.018  11.099  10.362
 6360SOL    HW220978  11.905  11.058  10.454
 6361SOL     OW20979   9.184  13.895  11.441
 6361SOL    HW120980   9.093  13.882  11.415
 6361SOL    HW220981   9.228  13.926  11.362
 6362SOL     OW20982   1.686   9.033   7.580
 6362SOL    HW120983   1.655   9.123   7.573
 6362SOL    HW220984   1.614   8.986   7.623
 6363SOL     OW20985   6.021   3.706   0.252
 6363SOL    HW120986   5.942   3.722   0.304
 6363SOL    HW220987   6.022   3.611   0.238
 6364SOL     OW20988   0.472  11.759   6.218
 6364SOL    HW120989   0.475  11.779   6.124
 6364SOL    HW220990   0.557  11.789   6.251
 6365SOL     OW20991  12.086   1.058   1.447
 6365SOL    HW120992  12.023   0.999   1.404
 6365SOL    HW220993  12.120   1.113   1.377
 6366SOL     OW20994  10.074  10.097   9.887
 6366SOL    HW120995  10.095  10.140   9.804
 6366SOL    HW220996  10.158  10.066   9.920
 6367SOL     OW20997  10.893   5.364  13.573
 6367SOL    HW120998  10.834   5.301  13.530
 6367SOL    HW220999  10.837   5.439  13.593
 6368SOL     OW21000   3.354   6.944   8.282
 6368SOL    HW121001   3.311   7.024   8.313
 6368SOL    HW221002   3.389   6.966   8.196
 6369SOL     OW21003   7.464  11.389   4.056
 6369SOL    HW121004   7.465  11.293   4.065
 6369SOL    HW221005   7.480  11.405   3.964
 6370SOL     OW21006   1.783   0.719   7.480
 6370SOL    HW121007   1.727   0.795   7.462
 6370SOL    HW221008   1.818   0.735   7.567
 6371SOL     OW21009  12.241  11.345   0.670
 6371SOL    HW121010  12.185  11.409   0.625
 6371SOL    HW221011  12.202  11.339   0.758
 6372SOL     OW21012   3.493  11.163   3.181
 6372SOL    HW121013   3.551  11.185   3.109
 6372SOL    HW221014   3.550  11.127   3.248
 6373SOL     OW21015   1.810   4.872  14.691
 6373SOL    HW121016   1.828   4.954  14.736
 6373SOL    HW221017   1.780   4.813  14.761
 6374SOL     OW21018  13.834  11.145   4.957
 6374SOL    HW121019  13.851  11.062   4.912
 6374SOL    HW221020  13.857  11.129   5.048
 6375SOL     OW21021  13.352  12.619  10.294
 6375SOL    HW121022  13.372  12.613  10.388
 6375SOL    HW221023  13.323  12.709  10.282
 6376SOL     OW21024  13.337   0.927  10.156
 6376SOL    HW121025  13.384   0.999  10.197
 6376SOL    HW221026  13.335   0.949  10.063
 6377SOL     OW21027   6.885   0.720   3.241
 6377SOL    HW121028   6.845   0.794   3.286
 6377SOL    HW221029   6.837   0.644   3.274
 6378SOL     OW21030   9.767   0.421   9.417
 6378SOL    HW121031   9.746   0.366   9.341
 6378SOL    HW221032   9.862   0.412   9.427
 6379SOL     OW21033   1.130  14.599   9.175
 6379SOL    HW121034   1.081  14.565   9.100
 6379SOL    HW221035   1.064  14.613   9.243
 6380SOL     OW21036  13.187  13.652   1.976
 6380SOL    HW121037  13.137  13.719   1.929
 6380SOL    HW221038  13.242  13.612   1.908
 6381SOL     OW21039   4.264  10.359   2.843
 6381SOL    HW121040   4.303  10.442   2.814
 6381SOL    HW221041   4.286  10.354   2.936
 6382SOL     OW21042   7.803  12.854   3.948
 6382SOL    HW121043   7.837  12.943   3.941
 6382SOL    HW221044   7.796  12.824   3.857
 6383SOL     OW21045  12.390   1.275   1.321
 6383SOL    HW121046  12.314   1.239   1.274
 6383SOL    HW221047  12.448   1.200   1.334
 6384SOL     OW21048  14.809   7.175   0.677
 6384SOL    HW121049  14.776   7.175   0.587
 6384SOL    HW221050   0.003   7.244   0.678
 6385SOL     OW21051   8.143   6.065  10.151
 6385SOL    HW121052   8.156   6.154  10.121
 6385SOL    HW221053   8.058   6.040  10.115
 6386SOL     OW21054   8.166   7.525  10.520
 6386SOL    HW121055   8.157   7.604  10.574
 6386SOL    HW221056   8.254   7.531  10.484
 6387SOL     OW21057  12.295   2.408   0.828
 6387SOL    HW121058  12.204   2.382   0.814
 6387SOL    HW221059  12.290   2.499   0.856
 6388SOL     OW21060   4.127   7.141   5.543
 6388SOL    HW121061   4.137   7.193   5.464
 6388SOL    HW221062   4.213   7.146   5.586
 6389SOL     OW21063  13.923   1.746   6.758
 6389SOL    HW121064  13.926   1.779   6.848
 6389SOL    HW221065  14.014   1.746   6.729
 6390SOL     OW21066   4.032  11.585   8.264
 6390SOL    HW121067   4.110  11.549   8.307
 6390SOL    HW221068   3.969  11.513   8.265
 6391SOL     OW21069   0.096   3.059   3.772
 6391SOL    HW121070   0.032   3.056   3.701
 6391SOL    HW221071   0.081   2.977   3.821
 6392SOL     OW21072   6.101  10.525  12.623
 6392SOL    HW121073   6.099  10.606  12.572
 6392SOL    HW221074   6.154  10.465  12.570
 6393SOL     OW21075   7.288  10.578  11.614
 6393SOL    HW121076   7.363  10.589  11.555
 6393SOL    HW221077   7.242  10.500  11.580
 6394SOL     OW21078   7.007   2.052  13.925
 6394SOL    HW121079   7.082   1.995  13.911
 6394SOL    HW221080   6.999   2.102  13.844
 6395SOL     OW21081   0.645  13.837   7.789
 6395SOL    HW121082   0.569  13.878   7.829
 6395SOL    HW221083   0.614  13.810   7.702
 6396SOL     OW21084   0.072   5.988  10.068
 6396SOL    HW121085   0.146   5.931  10.049
 6396SOL    HW221086   0.036   6.010   9.982
 6397SOL     OW21087   8.195   2.859   9.105
 6397SOL    HW121088   8.113   2.893   9.141
 6397SOL    HW221089   8.264   2.900   9.158
 6398SOL     OW21090  13.088   4.982   1.629
 6398SOL    HW121091  13.084   5.010   1.720
 6398SOL    HW221092  13.016   5.027   1.586
 6399SOL     OW21093   1.997   8.983   3.338
 6399SOL    HW121094   2.023   8.979   3.246
 6399SOL    HW221095   2.035   9.065   3.370
 6400SOL     OW21096  14.490   6.187  12.685
 6400SOL    HW121097  14.443   6.106  12.664
 6400SOL    HW221098  14.579   6.159  12.705
 6401SOL     OW21099  11.503   0.502   5.196
 6401SOL    HW121100  11.571   0.438   5.218
 6401SOL    HW221101  11.482   0.484   5.104
 6402SOL     OW21102  13.947  10.486   6.522
 6402SOL    HW121103  13.882  10.499   6.591
 6402SOL    HW221104  13.994  10.569   6.517
 6403SOL     OW21105   4.105   4.418  14.322
 6403SOL    HW121106   4.179   4.393  14.378
 6403SOL    HW221107   4.139   4.488  14.267
 6404SOL     OW21108   2.449   3.113   0.519
 6404SOL    HW121109   2.367   3.070   0.540
 6404SOL    HW221110   2.502   3.045   0.476
 6405SOL     OW21111   9.539   9.273  14.278
 6405SOL    HW121112   9.616   9.324  14.304
 6405SOL    HW221113   9.567   9.228  14.198
 6406SOL     OW21114   5.697  10.952   1.269
 6406SOL    HW121115   5.723  10.882   1.209
 6406SOL    HW221116   5.770  11.014   1.265
 6407SOL     OW21117   5.830   4.206  14.697
 6407SOL    HW121118   5.833   4.207  14.601
 6407SOL    HW221119   5.917   4.237  14.723
 6408SOL     OW21120   0.392   0.764  10.207
 6408SOL    HW121121   0.325   0.697  10.222
 6408SOL    HW221122   0.393   0.776  10.112
 6409SOL     OW21123  13.716   0.632   2.110
 6409SOL    HW121124  13.660   0.706   2.134
 6409SOL    HW221125  13.711   0.629   2.014
 6410SOL     OW21126   8.161  10.002  11.864
 6410SOL    HW121127   8.093   9.943  11.831
 6410SOL    HW221128   8.117  10.054  11.932
 6411SOL     OW21129   8.683  13.143   2.011
 6411SOL    HW121130   8.723  13.060   1.987
 6411SOL    HW221131   8.624  13.163   1.939
 6412SOL     OW21132   0.642   5.699   1.218
 6412SOL    HW121133   0.705   5.665   1.154
 6412SOL    HW221134   0.558   5.694   1.172
 6413SOL     OW21135   3.463   8.709   2.102
 6413SOL    HW121136   3.424   8.641   2.156
 6413SOL    HW221137   3.389   8.761   2.071
 6414SOL     OW21138  12.866   9.685  10.876
 6414SOL    HW121139  12.858   9.616  10.943
 6414SOL    HW221140  12.960   9.703  10.872
 6415SOL     OW21141   2.721   0.183  14.233
 6415SOL    HW121142   2.664   0.258  14.250
 6415SOL    HW221143   2.796   0.220  14.186
 6416SOL     OW21144  10.158   7.449  11.466
 6416SOL    HW121145  10.134   7.523  11.522
 6416SOL    HW221146  10.203   7.489  11.392
 6417SOL     OW21147   8.129   6.997   4.502
 6417SOL    HW121148   8.167   7.078   4.467
 6417SOL    HW221149   8.093   7.023   4.587
 6418SOL     OW21150   2.899   3.713   4.662
 6418SOL    HW121151   2.913   3.808   4.667
 6418SOL    HW221152   2.878   3.698   4.569
 6419SOL     OW21153  12.891   2.708   5.363
 6419SOL    HW121154  12.833   2.631   5.366
 6419SOL    HW221155  12.877   2.745   5.276
 6420SOL     OW21156   9.711  14.563   0.069
 6420SOL    HW121157   9.726  14.644   0.020
 6420SOL    HW221158   9.630  14.579   0.117
 6421SOL     OW21159  10.511  14.733   5.187
 6421SOL    HW121160  10.439  14.674   5.211
 6421SOL    HW221161  10.546  14.763   5.271
 6422SOL     OW21162  10.567   7.661  14.356
 6422SOL    HW121163  10.596   7.585  14.306
 6422SOL    HW221164  10.572   7.633  14.447
 6423SOL     OW21165   4.420  11.086  14.311
 6423SOL    HW121166   4.354  11.046  14.368
 6423SOL    HW221167   4.487  11.118  14.370
 6424SOL     OW21168   6.025   0.801  12.430
 6424SOL    HW121169   6.002   0.730  12.371
 6424SOL    HW221170   6.023   0.879  12.376
 6425SOL     OW21171   2.421   1.370  10.176
 6425SOL    HW121172   2.455   1.288  10.212
 6425SOL    HW221173   2.471   1.384  10.096
 6426SOL     OW21174   4.825   7.697   7.494
 6426SOL    HW121175   4.878   7.624   7.463
 6426SOL    HW221176   4.873   7.733   7.568
 6427SOL     OW21177   4.796   2.380  11.250
 6427SOL    HW121178   4.777   2.293  11.284
 6427SOL    HW221179   4.806   2.435  11.327
 6428SOL     OW21180   4.231   8.778   8.112
 6428SOL    HW121181   4.289   8.813   8.045
 6428SOL    HW221182   4.156   8.745   8.064
 6429SOL     OW21183   3.250   7.701  13.994
 6429SOL    HW121184   3.191   7.767  14.031
 6429SOL    HW221185   3.203   7.667  13.918
 6430SOL     OW21186   1.732  10.976   6.776
 6430SOL    HW121187   1.711  11.038   6.707
 6430SOL    HW221188   1.723  10.890   6.735
 6431SOL     OW21189   6.192   0.639   4.354
 6431SOL    HW121190   6.201   0.690   4.435
 6431SOL    HW221191   6.276   0.649   4.309
 6432SOL     OW21192   2.784  12.804   3.253
 6432SOL    HW121193   2.760  12.897   3.256
 6432SOL    HW221194   2.702  12.757   3.266
 6433SOL     OW21195   0.530   1.024  11.616
 6433SOL    HW121196   0.586   1.076  11.673
 6433SOL    HW221197   0.490   1.088  11.557
 6434SOL     OW21198  11.286   8.958   7.372
 6434SOL    HW121199  11.362   8.987   7.421
 6434SOL    HW221200  11.317   8.883   7.321
 6435SOL     OW21201   0.455  14.274   6.107
 6435SOL    HW121202   0.384  14.325   6.146
 6435SOL    HW221203   0.472  14.317   6.023
 6436SOL     OW21204   6.517   5.374   4.175
 6436SOL    HW121205   6.438   5.399   4.224
 6436SOL    HW221206   6.520   5.279   4.181
 6437SOL     OW21207   4.728   7.124  12.355
 6437SOL    HW121208   4.742   7.183  12.429
 6437SOL    HW221209   4.791   7.152  12.289
 6438SOL     OW21210   2.213   2.157   2.744
 6438SOL    HW121211   2.234   2.090   2.679
 6438SOL    HW221212   2.136   2.124   2.789
 6439SOL     OW21213   1.147   8.012  14.215
 6439SOL    HW121214   1.238   8.022  14.242
 6439SOL    HW221215   1.133   7.917  14.215
 6440SOL     OW21216   6.909  10.559   0.035
 6440SOL    HW121217   6.872  10.478   0.068
 6440SOL    HW221218   6.858  10.628   0.077
 6441SOL     OW21219  14.514   1.827   3.823
 6441SOL    HW121220  14.467   1.753   3.785
 6441SOL    HW221221  14.538   1.798   3.911
 6442SOL     OW21222  12.191   3.304   4.532
 6442SOL    HW121223  12.235   3.344   4.457
 6442SOL    HW221224  12.120   3.253   4.494
 6443SOL     OW21225   1.848   6.356  14.788
 6443SOL    HW121226   1.825   6.280  14.840
 6443SOL    HW221227   1.851   6.429  14.850
 6444SOL     OW21228   6.616  12.870  10.456
 6444SOL    HW121229   6.539  12.926  10.445
 6444SOL    HW221230   6.597  12.793  10.404
 6445SOL     OW21231   9.020   7.000   1.042
 6445SOL    HW121232   9.001   7.030   1.131
 6445SOL    HW221233   9.112   6.974   1.044
 6446SOL     OW21234   9.148  11.836   8.761
 6446SOL    HW121235   9.191  11.763   8.718
 6446SOL    HW221236   9.059  11.804   8.779
 6447SOL     OW21237   8.466  11.039  11.396
 6447SOL    HW121238   8.524  11.080  11.460
 6447SOL    HW221239   8.520  10.970  11.356
 6448SOL     OW21240   4.658  14.050   2.924
 6448SOL    HW121241   4.748  14.082   2.913
 6448SOL    HW221242   4.617  14.114   2.983
 6449SOL     OW21243   5.249   4.166  11.445
 6449SOL    HW121244   5.343   4.165  11.425
 6449SOL    HW221245   5.240   4.227  11.518
 6450SOL     OW21246   0.487   1.240   7.001
 6450SOL    HW121247   0.582   1.249   6.999
 6450SOL    HW221248   0.456   1.317   7.048
 6451SOL     OW21249   2.031  10.127   7.993
 6451SOL    HW121250   1.935  10.120   7.993
 6451SOL    HW221251   2.050  10.197   7.930
 6452SOL     OW21252   0.009  13.232   6.337
 6452SOL    HW121253   0.102  13.244   6.317
 6452SOL    HW221254  14.836  13.293   6.279
 6453SOL     OW21255  13.209   5.632  14.443
 6453SOL    HW121256  13.177   5.626  14.533
 6453SOL    HW221257  13.301   5.604  14.448
 6454SOL     OW21258   9.265  14.512  11.320
 6454SOL    HW121259   9.278  14.455  11.244
 6454SOL    HW221260   9.258  14.452  11.394
 6455SOL     OW21261  11.031   6.672   7.986
 6455SOL    HW121262  10.964   6.640   8.046
 6455SOL    HW221263  11.027   6.768   7.993
 6456SOL     OW21264  13.561   8.322  14.449
 6456SOL    HW121265  13.656   8.330  14.439
 6456SOL    HW221266  13.527   8.409  14.425
 6457SOL     OW21267   6.486   4.725   0.327
 6457SOL    HW121268   6.551   4.765   0.384
 6457SOL    HW221269   6.538   4.679   0.260
 6458SOL     OW21270  11.175   5.501   5.259
 6458SOL    HW121271  11.080   5.489   5.249
 6458SOL    HW221272  11.204   5.421   5.303
 6459SOL     OW21273   4.228   2.826   8.356
 6459SOL    HW121274   4.297   2.802   8.295
 6459SOL    HW221275   4.199   2.913   8.326
 6460SOL     OW21276   2.178   2.877  14.470
 6460SOL    HW121277   2.227   2.799  14.443
 6460SOL    HW221278   2.171   2.869  14.565
 6461SOL     OW21279   4.232  14.339  10.100
 6461SOL    HW121280   4.326  14.356  10.114
 6461SOL    HW221281   4.188  14.392  10.167
 6462SOL     OW21282   3.484  14.814  10.089
 6462SOL    HW121283   3.505   0.034  10.101
 6462SOL    HW221284   3.502  14.774  10.174
 6463SOL     OW21285   3.442  10.003  13.543
 6463SOL    HW121286   3.496  10.080  13.558
 6463SOL    HW221287   3.384  10.029  13.470
 6464SOL     OW21288   2.814  12.112  12.367
 6464SOL    HW121289   2.812  12.207  12.363
 6464SOL    HW221290   2.729  12.084  12.334
 6465SOL     OW21291   3.136  10.453  14.642
 6465SOL    HW121292   3.052  10.488  14.610
 6465SOL    HW221293   3.197  10.469  14.569
 6466SOL     OW21294   8.547  13.802   1.171
 6466SOL    HW121295   8.578  13.714   1.191
 6466SOL    HW221296   8.468  13.812   1.224
 6467SOL     OW21297   7.694   4.242   3.185
 6467SOL    HW121298   7.618   4.237   3.126
 6467SOL    HW221299   7.739   4.322   3.158
 6468SOL     OW21300   9.788   3.018   3.205
 6468SOL    HW121301   9.876   2.988   3.180
 6468SOL    HW221302   9.743   3.033   3.123
 6469SOL     OW21303   3.229  13.606   9.733
 6469SOL    HW121304   3.143  13.644   9.715
 6469SOL    HW221305   3.290  13.657   9.680
 6470SOL     OW21306  13.897   6.987  11.795
 6470SOL    HW121307  13.840   6.954  11.865
 6470SOL    HW221308  13.952   7.053  11.839
 6471SOL     OW21309   3.085   0.658   7.264
 6471SOL    HW121310   3.102   0.749   7.288
 6471SOL    HW221311   3.167   0.612   7.283
 6472SOL     OW21312  14.687   9.813   7.135
 6472SOL    HW121313  14.699   9.784   7.226
 6472SOL    HW221314  14.733   9.747   7.083
 6473SOL     OW21315   1.771   1.691   1.292
 6473SOL    HW121316   1.697   1.728   1.244
 6473SOL    HW221317   1.764   1.596   1.278
 6474SOL     OW21318  11.403  13.788  12.445
 6474SOL    HW121319  11.474  13.725  12.458
 6474SOL    HW221320  11.428  13.863  12.498
 6475SOL     OW21321   9.184   6.316   5.601
 6475SOL    HW121322   9.225   6.230   5.594
 6475SOL    HW221323   9.121   6.318   5.529
 6476SOL     OW21324   3.619   6.305   7.261
 6476SOL    HW121325   3.528   6.336   7.263
 6476SOL    HW221326   3.611   6.210   7.258
 6477SOL     OW21327  11.332   2.991  11.939
 6477SOL    HW121328  11.343   3.046  11.862
 6477SOL    HW221329  11.392   3.028  12.004
 6478SOL     OW21330  11.132   3.683   5.384
 6478SOL    HW121331  11.221   3.705   5.354
 6478SOL    HW221332  11.079   3.757   5.355
 6479SOL     OW21333   8.881  13.483   1.389
 6479SOL    HW121334   8.812  13.525   1.338
 6479SOL    HW221335   8.838  13.457   1.471
 6480SOL     OW21336   9.395   9.671  12.323
 6480SOL    HW121337   9.364   9.762  12.313
 6480SOL    HW221338   9.459   9.676  12.393
 6481SOL     OW21339   6.101   1.399   7.942
 6481SOL    HW121340   6.086   1.478   7.994
 6481SOL    HW221341   6.197   1.391   7.939
 6482SOL     OW21342   1.950   5.213  14.591
 6482SOL    HW121343   1.933   5.193  14.500
 6482SOL    HW221344   2.015   5.148  14.618
 6483SOL     OW21345   6.801   2.231   8.752
 6483SOL    HW121346   6.852   2.153   8.730
 6483SOL    HW221347   6.710   2.202   8.748
 6484SOL     OW21348   4.492   8.050  10.362
 6484SOL    HW121349   4.502   8.020  10.452
 6484SOL    HW221350   4.478   7.971  10.311
 6485SOL     OW21351  11.840   9.163   6.221
 6485SOL    HW121352  11.763   9.177   6.166
 6485SOL    HW221353  11.804   9.144   6.308
 6486SOL     OW21354   8.582  11.865   3.343
 6486SOL    HW121355   8.567  11.837   3.253
 6486SOL    HW221356   8.642  11.799   3.379
 6487SOL     OW21357   7.729  11.011   3.385
 6487SOL    HW121358   7.815  10.971   3.394
 6487SOL    HW221359   7.710  11.047   3.471
 6488SOL     OW21360   6.930   6.302  10.502
 6488SOL    HW121361   6.935   6.383  10.452
 6488SOL    HW221362   7.001   6.308  10.565
 6489SOL     OW21363  12.279   3.457   4.280
 6489SOL    HW121364  12.347   3.506   4.233
 6489SOL    HW221365  12.303   3.365   4.267
 6490SOL     OW21366   9.681   4.854   6.714
 6490SOL    HW121367   9.702   4.923   6.776
 6490SOL    HW221368   9.681   4.897   6.628
 6491SOL     OW21369   7.472   1.507   5.086
 6491SOL    HW121370   7.494   1.415   5.072
 6491SOL    HW221371   7.396   1.505   5.144
 6492SOL     OW21372   7.957   9.251  10.804
 6492SOL    HW121373   7.865   9.234  10.780
 6492SOL    HW221374   7.988   9.167  10.839
 6493SOL     OW21375   3.132   9.312   1.954
 6493SOL    HW121376   3.114   9.300   2.047
 6493SOL    HW221377   3.149   9.405   1.945
 6494SOL     OW21378   9.451  12.962   9.302
 6494SOL    HW121379   9.533  12.947   9.350
 6494SOL    HW221380   9.473  13.026   9.235
 6495SOL     OW21381   9.202   2.707   4.143
 6495SOL    HW121382   9.122   2.658   4.160
 6495SOL    HW221383   9.266   2.670   4.204
 6496SOL     OW21384  10.152   9.383   8.218
 6496SOL    HW121385  10.152   9.372   8.313
 6496SOL    HW221386  10.065   9.420   8.198
 6497SOL     OW21387  14.322   4.053   2.278
 6497SOL    HW121388  14.287   4.022   2.194
 6497SOL    HW221389  14.248   4.099   2.319
 6498SOL     OW21390   1.777  10.080   7.999
 6498SOL    HW121391   1.729  10.001   8.024
 6498SOL    HW221392   1.739  10.150   8.053
 6499SOL     OW21393   5.162  11.189   9.656
 6499SOL    HW121394   5.143  11.106   9.612
 6499SOL    HW221395   5.125  11.178   9.744
 6500SOL     OW21396   2.926  14.517  12.607
 6500SOL    HW121397   2.844  14.538  12.652
 6500SOL    HW221398   2.918  14.426  12.582
 6501SOL     OW21399   4.264   9.480   6.089
 6501SOL    HW121400   4.241   9.425   6.015
 6501SOL    HW221401   4.309   9.421   6.150
 6502SOL     OW21402   7.288  14.396   1.635
 6502SOL    HW121403   7.269  14.428   1.546
 6502SOL    HW221404   7.295  14.476   1.687
 6503SOL     OW21405   9.729   8.941  14.384
 6503SOL    HW121406   9.777   8.979  14.310
 6503SOL    HW221407   9.702   8.854  14.353
 6504SOL     OW21408   9.423  11.691   9.921
 6504SOL    HW121409   9.388  11.614   9.876
 6504SOL    HW221410   9.513  11.667   9.942
 6505SOL     OW21411   5.278   8.523  13.137
 6505SOL    HW121412   5.305   8.610  13.168
 6505SOL    HW221413   5.195   8.507  13.182
 6506SOL     OW21414   6.166  11.732   7.297
 6506SOL    HW121415   6.240  11.717   7.356
 6506SOL    HW221416   6.179  11.821   7.265
 6507SOL     OW21417   0.504  13.451  12.275
 6507SOL    HW121418   0.475  13.400  12.351
 6507SOL    HW221419   0.503  13.542  12.305
 6508SOL     OW21420   8.757  12.523  11.936
 6508SOL    HW121421   8.741  12.434  11.969
 6508SOL    HW221422   8.795  12.570  12.011
 6509SOL     OW21423  10.486   9.038  14.099
 6509SOL    HW121424  10.524   9.109  14.049
 6509SOL    HW221425  10.440   8.985  14.034
 6510SOL     OW21426   8.571   5.925   9.860
 6510SOL    HW121427   8.605   5.835   9.859
 6510SOL    HW221428   8.505   5.925   9.929
 6511SOL     OW21429  14.748   1.563   4.252
 6511SOL    HW121430  14.695   1.528   4.323
 6511SOL    HW221431  14.838   1.548   4.278
 6512SOL     OW21432  12.382   8.331  10.145
 6512SOL    HW121433  12.295   8.304  10.175
 6512SOL    HW221434  12.379   8.322  10.050
 6513SOL     OW21435   3.039   4.133   4.933
 6513SOL    HW121436   3.002   4.045   4.919
 6513SOL    HW221437   3.068   4.160   4.846
 6514SOL     OW21438   3.815  11.890  12.352
 6514SOL    HW121439   3.823  11.817  12.414
 6514SOL    HW221440   3.806  11.847  12.266
 6515SOL     OW21441   3.801  10.773   2.232
 6515SOL    HW121442   3.757  10.787   2.149
 6515SOL    HW221443   3.862  10.701   2.215
 6516SOL     OW21444  12.232   2.838   4.855
 6516SOL    HW121445  12.195   2.776   4.917
 6516SOL    HW221446  12.157   2.885   4.819
 6517SOL     OW21447   4.262   3.718   3.118
 6517SOL    HW121448   4.352   3.747   3.103
 6517SOL    HW221449   4.210   3.798   3.122
 6518SOL     OW21450   1.982   2.704   3.452
 6518SOL    HW121451   1.887   2.717   3.444
 6518SOL    HW221452   2.020   2.778   3.406
 6519SOL     OW21453  12.367  14.402  11.204
 6519SOL    HW121454  12.379  14.320  11.157
 6519SOL    HW221455  12.428  14.463  11.163
 6520SOL     OW21456   2.699  14.270   3.162
 6520SOL    HW121457   2.777  14.216   3.177
 6520SOL    HW221458   2.659  14.279   3.249
 6521SOL     OW21459   3.335   0.072   9.484
 6521SOL    HW121460   3.369   0.076   9.574
 6521SOL    HW221461   3.307  14.853   9.473
 6522SOL     OW21462  12.836  11.805   0.354
 6522SOL    HW121463  12.902  11.743   0.324
 6522SOL    HW221464  12.771  11.806   0.284
 6523SOL     OW21465  11.559   5.991   0.940
 6523SOL    HW121466  11.587   6.036   1.019
 6523SOL    HW221467  11.556   5.898   0.965
 6524SOL     OW21468   2.112   2.320  12.153
 6524SOL    HW121469   2.048   2.313  12.082
 6524SOL    HW221470   2.176   2.382  12.121
 6525SOL     OW21471   2.674   3.905   8.115
 6525SOL    HW121472   2.640   3.816   8.106
 6525SOL    HW221473   2.751   3.896   8.171
 6526SOL     OW21474  14.036   1.590   3.577
 6526SOL    HW121475  13.976   1.645   3.627
 6526SOL    HW221476  14.114   1.584   3.632
 6527SOL     OW21477   8.285   0.137   9.419
 6527SOL    HW121478   8.252   0.211   9.367
 6527SOL    HW221479   8.244   0.149   9.505
 6528SOL     OW21480   0.428   7.400   3.787
 6528SOL    HW121481   0.373   7.326   3.811
 6528SOL    HW221482   0.457   7.382   3.698
 6529SOL     OW21483  14.077   7.785  11.145
 6529SOL    HW121484  14.126   7.787  11.063
 6529SOL    HW221485  13.998   7.838  11.127
 6530SOL     OW21486   4.004   3.989   6.343
 6530SOL    HW121487   4.099   3.978   6.334
 6530SOL    HW221488   3.981   4.055   6.277
 6531SOL     OW21489  12.551  14.152  10.182
 6531SOL    HW121490  12.574  14.194  10.264
 6531SOL    HW221491  12.596  14.203  10.115
 6532SOL     OW21492   3.606   7.753  12.377
 6532SOL    HW121493   3.569   7.675  12.416
 6532SOL    HW221494   3.562   7.826  12.422
 6533SOL     OW21495   3.710   8.047   4.568
 6533SOL    HW121496   3.683   7.975   4.511
 6533SOL    HW221497   3.789   8.082   4.526
 6534SOL     OW21498  14.552   7.243   2.373
 6534SOL    HW121499  14.593   7.165   2.411
 6534SOL    HW221500  14.597   7.257   2.290
 6535SOL     OW21501   0.112  11.766  11.836
 6535SOL    HW121502   0.170  11.716  11.779
 6535SOL    HW221503   0.122  11.726  11.922
 6536SOL     OW21504   3.953   2.359   9.877
 6536SOL    HW121505   3.996   2.423   9.933
 6536SOL    HW221506   3.904   2.412   9.814
 6537SOL     OW21507   6.439  12.992  11.747
 6537SOL    HW121508   6.400  12.906  11.735
 6537SOL    HW221509   6.403  13.022  11.831
 6538SOL     OW21510   3.057   5.092   4.520
 6538SOL    HW121511   3.050   5.018   4.581
 6538SOL    HW221512   3.113   5.060   4.450
 6539SOL     OW21513  10.255   4.764   4.532
 6539SOL    HW121514  10.269   4.857   4.518
 6539SOL    HW221515  10.337   4.722   4.507
 6540SOL     OW21516   5.128  14.382   5.613
 6540SOL    HW121517   5.072  14.318   5.656
 6540SOL    HW221518   5.071  14.457   5.596
 6541SOL     OW21519   3.378  11.264   0.323
 6541SOL    HW121520   3.406  11.355   0.315
 6541SOL    HW221521   3.286  11.264   0.298
 6542SOL     OW21522  12.055   9.009   5.892
 6542SOL    HW121523  12.140   8.973   5.869
 6542SOL    HW221524  12.009   9.018   5.808
 6543SOL     OW21525   5.126   8.851   7.055
 6543SOL    HW121526   5.153   8.838   7.146
 6543SOL    HW221527   5.207   8.840   7.005
 6544SOL     OW21528   7.635   9.348   9.886
 6544SOL    HW121529   7.658   9.256   9.893
 6544SOL    HW221530   7.668   9.387   9.967
 6545SOL     OW21531   3.107   4.547   2.375
 6545SOL    HW121532   3.166   4.622   2.380
 6545SOL    HW221533   3.043   4.563   2.445
 6546SOL     OW21534   0.015   7.066   8.217
 6546SOL    HW121535   0.111   7.062   8.214
 6546SOL    HW221536  14.859   6.978   8.192
 6547SOL     OW21537   2.846   1.287   0.232
 6547SOL    HW121538   2.866   1.323   0.146
 6547SOL    HW221539   2.841   1.363   0.290
 6548SOL     OW21540  11.298  14.728   9.627
 6548SOL    HW121541  11.277  14.807   9.578
 6548SOL    HW221542  11.267  14.656   9.573
 6549SOL     OW21543   2.284   3.231   2.229
 6549SOL    HW121544   2.208   3.231   2.171
 6549SOL    HW221545   2.350   3.181   2.182
 6550SOL     OW21546  10.826   8.104  12.406
 6550SOL    HW121547  10.836   8.081  12.498
 6550SOL    HW221548  10.890   8.049  12.361
 6551SOL     OW21549   0.460   6.951   6.123
 6551SOL    HW121550   0.444   7.032   6.073
 6551SOL    HW221551   0.544   6.919   6.090
 6552SOL     OW21552  11.272  13.565   4.065
 6552SOL    HW121553  11.185  13.592   4.094
 6552SOL    HW221554  11.255  13.490   4.008
 6553SOL     OW21555   6.663   0.239   7.705
 6553SOL    HW121556   6.666   0.244   7.801
 6553SOL    HW221557   6.570   0.241   7.683
 6554SOL     OW21558   3.956  13.531  10.620
 6554SOL    HW121559   3.998  13.572  10.696
 6554SOL    HW221560   3.937  13.604  10.561
 6555SOL     OW21561   5.818  12.785   2.964
 6555SOL    HW121562   5.910  12.777   2.990
 6555SOL    HW221563   5.769  12.761   3.042
 6556SOL     OW21564   9.740  11.679   3.049
 6556SOL    HW121565   9.680  11.654   3.119
 6556SOL    HW221566   9.778  11.761   3.078
 6557SOL     OW21567   4.205   6.735   8.518
 6557SOL    HW121568   4.130   6.686   8.483
 6557SOL    HW221569   4.257   6.758   8.441
 6558SOL     OW21570   9.662   9.966   0.501
 6558SOL    HW121571   9.719   9.973   0.577
 6558SOL    HW221572   9.721   9.958   0.427
 6559SOL     OW21573   3.509   6.748  11.127
 6559SOL    HW121574   3.526   6.790  11.043
 6559SOL    HW221575   3.555   6.664  11.121
 6560SOL     OW21576   9.908  11.620  12.078
 6560SOL    HW121577   9.925  11.565  12.155
 6560SOL    HW221578   9.895  11.708  12.113
 6561SOL     OW21579   1.625   1.460   7.732
 6561SOL    HW121580   1.648   1.418   7.815
 6561SOL    HW221581   1.700   1.444   7.675
 6562SOL     OW21582  11.681   0.838   6.948
 6562SOL    HW121583  11.655   0.809   7.036
 6562SOL    HW221584  11.774   0.817   6.943
 6563SOL     OW21585   7.568   2.366   7.101
 6563SOL    HW121586   7.640   2.308   7.075
 6563SOL    HW221587   7.521   2.317   7.168
 6564SOL     OW21588   7.003  10.604   6.736
 6564SOL    HW121589   7.097  10.588   6.733
 6564SOL    HW221590   6.983  10.611   6.830
 6565SOL     OW21591   9.892   1.314  11.703
 6565SOL    HW121592   9.899   1.409  11.687
 6565SOL    HW221593   9.824   1.285  11.642
 6566SOL     OW21594  13.171  14.264   2.799
 6566SOL    HW121595  13.256  14.290   2.764
 6566SOL    HW221596  13.122  14.232   2.723
 6567SOL     OW21597   2.122  11.997   5.535
 6567SOL    HW121598   2.154  11.921   5.485
 6567SOL    HW221599   2.197  12.024   5.588
 6568SOL     OW21600  14.417  10.813   3.337
 6568SOL    HW121601  14.399  10.865   3.258
 6568SOL    HW221602  14.370  10.858   3.407
 6569SOL     OW21603  14.485   4.569  14.744
 6569SOL    HW121604  14.394   4.595  14.729
 6569SOL    HW221605  14.500   4.496  14.683
 6570SOL     OW21606   7.467   6.452  11.678
 6570SOL    HW121607   7.378   6.418  11.670
 6570SOL    HW221608   7.469   6.495  11.763
 6571SOL     OW21609   8.618   9.541   5.304
 6571SOL    HW121610   8.541   9.511   5.255
 6571SOL    HW221611   8.680   9.568   5.236
 6572SOL     OW21612   6.584   8.688   9.787
 6572SOL    HW121613   6.653   8.717   9.847
 6572SOL    HW221614   6.587   8.750   9.714
 6573SOL     OW21615   3.896  12.147  12.403
 6573SOL    HW121616   3.885  12.054  12.383
 6573SOL    HW221617   3.988  12.155  12.430
 6574SOL     OW21618   2.556   1.142  10.273
 6574SOL    HW121619   2.557   1.084  10.349
 6574SOL    HW221620   2.644   1.135  10.236
 6575SOL     OW21621  10.242   9.682   7.200
 6575SOL    HW121622  10.197   9.603   7.170
 6575SOL    HW221623  10.333   9.669   7.177
 6576SOL     OW21624   3.726  10.644   2.674
 6576SOL    HW121625   3.649  10.593   2.700
 6576SOL    HW221626   3.797  10.581   2.671
 6577SOL     OW21627  10.975  13.883   0.607
 6577SOL    HW121628  10.932  13.947   0.551
 6577SOL    HW221629  11.007  13.933   0.682
 6578SOL     OW21630  12.892   4.738   0.014
 6578SOL    HW121631  12.849   4.700   0.091
 6578SOL    HW221632  12.848   4.695  14.812
 6579SOL     OW21633  12.324  10.771   3.165
 6579SOL    HW121634  12.356  10.695   3.213
 6579SOL    HW221635  12.313  10.839   3.231
 6580SOL     OW21636  11.756   9.778   0.520
 6580SOL    HW121637  11.804   9.727   0.584
 6580SOL    HW221638  11.808   9.773   0.440
 6581SOL     OW21639   8.462  10.733  11.873
 6581SOL    HW121640   8.538  10.737  11.931
 6581SOL    HW221641   8.426  10.645  11.886
 6582SOL     OW21642   3.382  13.842   5.618
 6582SOL    HW121643   3.473  13.871   5.618
 6582SOL    HW221644   3.382  13.764   5.673
 6583SOL     OW21645   8.731   9.512   7.580
 6583SOL    HW121646   8.645   9.485   7.550
 6583SOL    HW221647   8.741   9.602   7.548
 6584SOL     OW21648   4.208  12.402   9.724
 6584SOL    HW121649   4.235  12.373   9.810
 6584SOL    HW221650   4.197  12.497   9.733
 6585SOL     OW21651   7.572   7.439   7.034
 6585SOL    HW121652   7.556   7.370   6.970
 6585SOL    HW221653   7.575   7.519   6.982
 6586SOL     OW21654   6.809   4.794  13.363
 6586SOL    HW121655   6.904   4.800  13.374
 6586SOL    HW221656   6.791   4.846  13.284
 6587SOL     OW21657   0.803   7.801   2.199
 6587SOL    HW121658   0.856   7.764   2.270
 6587SOL    HW221659   0.860   7.798   2.123
 6588SOL     OW21660  14.151   3.012   6.624
 6588SOL    HW121661  14.189   2.936   6.581
 6588SOL    HW221662  14.190   3.013   6.712
 6589SOL     OW21663   3.426   7.823  14.373
 6589SOL    HW121664   3.431   7.876  14.293
 6589SOL    HW221665   3.517   7.798  14.390
 6590SOL     OW21666  13.150   7.872  13.046
 6590SOL    HW121667  13.119   7.851  12.958
 6590SOL    HW221668  13.230   7.820  13.057
 6591SOL     OW21669   3.978   6.426  13.518
 6591SOL    HW121670   3.971   6.429  13.613
 6591SOL    HW221671   3.939   6.508  13.488
 6592SOL     OW21672   3.674   1.991   2.236
 6592SOL    HW121673   3.758   1.945   2.225
 6592SOL    HW221674   3.649   1.973   2.326
 6593SOL     OW21675   1.619  12.123   1.101
 6593SOL    HW121676   1.661  12.194   1.053
 6593SOL    HW221677   1.648  12.043   1.057
 6594SOL     OW21678   7.524   4.946   2.686
 6594SOL    HW121679   7.477   4.930   2.768
 6594SOL    HW221680   7.609   4.903   2.697
 6595SOL     OW21681   6.931   3.266   2.567
 6595SOL    HW121682   6.854   3.309   2.529
 6595SOL    HW221683   7.004   3.294   2.511
 6596SOL     OW21684   7.315  14.172   7.540
 6596SOL    HW121685   7.304  14.207   7.629
 6596SOL    HW221686   7.245  14.211   7.489
 6597SOL     OW21687   3.524   1.816   7.318
 6597SOL    HW121688   3.602   1.869   7.300
 6597SOL    HW221689   3.451   1.878   7.316
 6598SOL     OW21690   9.855   5.982   4.520
 6598SOL    HW121691   9.791   5.912   4.515
 6598SOL    HW221692   9.804   6.060   4.539
 6599SOL     OW21693  13.893   8.855  14.648
 6599SOL    HW121694  13.881   8.944  14.615
 6599SOL    HW221695  13.822   8.805  14.607
 6600SOL     OW21696  11.625   4.741   2.926
 6600SOL    HW121697  11.696   4.755   2.988
 6600SOL    HW221698  11.668   4.709   2.847
 6601SOL     OW21699  10.135   2.872   2.877
 6601SOL    HW121700  10.211   2.924   2.852
 6601SOL    HW221701  10.172   2.793   2.916
 6602SOL     OW21702   1.768   8.658   9.945
 6602SOL    HW121703   1.736   8.602  10.016
 6602SOL    HW221704   1.813   8.730   9.989
 6603SOL     OW21705   0.062   5.904   6.310
 6603SOL    HW121706   0.046   5.864   6.225
 6603SOL    HW221707   0.043   5.836   6.373
 6604SOL     OW21708   8.541   9.050   5.732
 6604SOL    HW121709   8.622   9.094   5.758
 6604SOL    HW221710   8.471   9.106   5.766
 6605SOL     OW21711  10.052  14.067  13.958
 6605SOL    HW121712  10.102  14.136  14.002
 6605SOL    HW221713   9.962  14.079  13.989
 6606SOL     OW21714   5.829   5.760   7.876
 6606SOL    HW121715   5.777   5.692   7.917
 6606SOL    HW221716   5.806   5.756   7.783
 6607SOL     OW21717   4.963   5.761   0.520
 6607SOL    HW121718   4.952   5.680   0.471
 6607SOL    HW221719   5.038   5.804   0.479
 6608SOL     OW21720   2.050   7.663  12.964
 6608SOL    HW121721   2.087   7.640  13.049
 6608SOL    HW221722   1.997   7.587  12.940
 6609SOL     OW21723   3.189  14.071   6.584
 6609SOL    HW121724   3.191  14.111   6.671
 6609SOL    HW221725   3.146  14.136   6.529
 6610SOL     OW21726  13.347  12.696  13.422
 6610SOL    HW121727  13.343  12.753  13.345
 6610SOL    HW221728  13.322  12.610  13.390
 6611SOL     OW21729   2.487  13.834   8.460
 6611SOL    HW121730   2.467  13.921   8.426
 6611SOL    HW221731   2.423  13.820   8.530
 6612SOL     OW21732   0.118  11.868  14.475
 6612SOL    HW121733   0.202  11.830  14.447
 6612SOL    HW221734   0.141  11.922  14.551
 6613SOL     OW21735   8.297   4.517  11.144
 6613SOL    HW121736   8.278   4.424  11.136
 6613SOL    HW221737   8.392   4.521  11.156
 6614SOL     OW21738   5.939  10.335  10.336
 6614SOL    HW121739   5.854  10.363  10.300
 6614SOL    HW221740   5.942  10.376  10.423
 6615SOL     OW21741   5.364  11.776  10.019
 6615SOL    HW121742   5.332  11.759  10.108
 6615SOL    HW221743   5.446  11.726  10.013
 6616SOL     OW21744   1.011   9.829  11.139
 6616SOL    HW121745   0.933   9.882  11.157
 6616SOL    HW221746   1.072   9.852  11.209
 6617SOL     OW21747   7.395   8.297   5.818
 6617SOL    HW121748   7.350   8.371   5.779
 6617SOL    HW221749   7.434   8.331   5.899
 6618SOL     OW21750  13.802  10.900  12.406
 6618SOL    HW121751  13.804  10.944  12.491
 6618SOL    HW221752  13.813  10.970  12.342
 6619SOL     OW21753   4.784   1.553   6.141
 6619SOL    HW121754   4.783   1.458   6.134
 6619SOL    HW221755   4.696   1.580   6.114
 6620SOL     OW21756   3.429   9.625   6.103
 6620SOL    HW121757   3.430   9.565   6.028
 6620SOL    HW221758   3.517   9.662   6.106
 6621SOL     OW21759   4.631  14.666  13.076
 6621SOL    HW121760   4.668  14.745  13.118
 6621SOL    HW221761   4.707  14.612  13.057
 6622SOL     OW21762   5.276  14.744   3.820
 6622SOL    HW121763   5.272  14.650   3.805
 6622SOL    HW221764   5.193  14.777   3.786
 6623SOL     OW21765   0.943  12.286   9.250
 6623SOL    HW121766   1.038  12.290   9.260
 6623SOL    HW221767   0.913  12.374   9.273
 6624SOL     OW21768   8.567  10.422   9.596
 6624SOL    HW121769   8.572  10.332   9.564
 6624SOL    HW221770   8.641  10.467   9.556
 6625SOL     OW21771   4.365  14.071   2.706
 6625SOL    HW121772   4.316  13.990   2.719
 6625SOL    HW221773   4.399  14.093   2.793
 6626SOL     OW21774   5.155  11.210   6.076
 6626SOL    HW121775   5.203  11.128   6.086
 6626SOL    HW221776   5.143  11.220   5.981
 6627SOL     OW21777   8.805   8.377   4.297
 6627SOL    HW121778   8.803   8.403   4.389
 6627SOL    HW221779   8.742   8.434   4.254
 6628SOL     OW21780  10.220   3.965   5.174
 6628SOL    HW121781  10.255   3.938   5.259
 6628SOL    HW221782  10.184   3.885   5.136
 6629SOL     OW21783   8.170   4.666  11.342
 6629SOL    HW121784   8.214   4.605  11.282
 6629SOL    HW221785   8.084   4.680  11.301
 6630SOL     OW21786   6.034   8.304  12.830
 6630SOL    HW121787   5.990   8.246  12.768
 6630SOL    HW221788   6.102   8.347  12.779
 6631SOL     OW21789  10.896   9.928  12.626
 6631SOL    HW121790  10.801   9.937  12.617
 6631SOL    HW221791  10.927   9.913  12.536
 6632SOL     OW21792   6.437   1.316   7.542
 6632SOL    HW121793   6.415   1.309   7.449
 6632SOL    HW221794   6.533   1.324   7.543
 6633SOL     OW21795   9.226   0.059  13.127
 6633SOL    HW121796   9.171   0.130  13.159
 6633SOL    HW221797   9.193   0.041  13.039
 6634SOL     OW21798   7.062  11.170  12.033
 6634SOL    HW121799   7.140  11.197  11.987
 6634SOL    HW221800   7.043  11.083  11.999
 6635SOL     OW21801  10.485   7.029  13.366
 6635SOL    HW121802  10.475   6.934  13.362
 6635SOL    HW221803  10.422   7.056  13.433
 6636SOL     OW21804   9.405  11.136   9.565
 6636SOL    HW121805   9.358  11.208   9.608
 6636SOL    HW221806   9.358  11.123   9.482
 6637SOL     OW21807  10.525   7.254   7.272
 6637SOL    HW121808  10.506   7.172   7.227
 6637SOL    HW221809  10.439   7.289   7.295
 6638SOL     OW21810  10.880  10.547  14.824
 6638SOL    HW121811  10.870  10.489   0.027
 6638SOL    HW221812  10.877  10.488  14.748
 6639SOL     OW21813   3.856  10.342   4.573
 6639SOL    HW121814   3.946  10.369   4.593
 6639SOL    HW221815   3.846  10.258   4.618
 6640SOL     OW21816   1.781   2.632   5.068
 6640SOL    HW121817   1.868   2.608   5.099
 6640SOL    HW221818   1.775   2.593   4.980
 6641SOL     OW21819   1.190  10.311  10.241
 6641SOL    HW121820   1.127  10.242  10.263
 6641SOL    HW221821   1.270  10.265  10.218
 6642SOL     OW21822  13.586  13.850   1.862
 6642SOL    HW121823  13.492  13.841   1.843
 6642SOL    HW221824  13.591  13.924   1.922
 6643SOL     OW21825  10.898  10.029   4.039
 6643SOL    HW121826  10.846  10.044   4.117
 6643SOL    HW221827  10.840   9.981   3.980
 6644SOL     OW21828   0.763   5.035  12.511
 6644SOL    HW121829   0.705   5.010  12.438
 6644SOL    HW221830   0.706   5.079  12.573
 6645SOL     OW21831   3.944   0.719   9.688
 6645SOL    HW121832   3.948   0.805   9.645
 6645SOL    HW221833   3.906   0.736   9.774
 6646SOL     OW21834   2.404  10.180   6.351
 6646SOL    HW121835   2.374  10.270   6.344
 6646SOL    HW221836   2.370  10.150   6.436
 6647SOL     OW21837  13.261   6.291   0.532
 6647SOL    HW121838  13.216   6.232   0.592
 6647SOL    HW221839  13.193   6.349   0.500
 6648SOL     OW21840   6.421   5.778  10.771
 6648SOL    HW121841   6.485   5.708  10.783
 6648SOL    HW221842   6.370   5.751  10.694
 6649SOL     OW21843   4.860   5.297   7.675
 6649SOL    HW121844   4.892   5.384   7.654
 6649SOL    HW221845   4.891   5.280   7.764
 6650SOL     OW21846  13.672   6.987   1.887
 6650SOL    HW121847  13.686   6.990   1.982
 6650SOL    HW221848  13.748   6.939   1.853
 6651SOL     OW21849   4.549   8.774  13.766
 6651SOL    HW121850   4.616   8.842  13.772
 6651SOL    HW221851   4.583   8.702  13.818
 6652SOL     OW21852   8.051   1.754   1.921
 6652SOL    HW121853   8.014   1.701   1.851
 6652SOL    HW221854   7.982   1.760   1.986
 6653SOL     OW21855  11.221   1.984   9.645
 6653SOL    HW121856  11.298   2.018   9.690
 6653SOL    HW221857  11.251   1.906   9.599
 6654SOL     OW21858   7.061   8.776   8.952
 6654SOL    HW121859   7.016   8.692   8.961
 6654SOL    HW221860   7.123   8.763   8.880
 6655SOL     OW21861   5.612   4.265   1.570
 6655SOL    HW121862   5.575   4.246   1.656
 6655SOL    HW221863   5.703   4.237   1.576
 6656SOL     OW21864   5.118   4.961   1.031
 6656SOL    HW121865   5.147   5.052   1.035
 6656SOL    HW221866   5.139   4.932   0.943
 6657SOL     OW21867  13.152   2.750   6.395
 6657SOL    HW121868  13.220   2.704   6.346
 6657SOL    HW221869  13.070   2.713   6.363
 6658SOL     OW21870   3.906   6.935   7.310
 6658SOL    HW121871   3.905   6.890   7.226
 6658SOL    HW221872   3.878   6.870   7.373
 6659SOL     OW21873  13.548  10.568   4.394
 6659SOL    HW121874  13.590  10.533   4.315
 6659SOL    HW221875  13.586  10.518   4.466
 6660SOL     OW21876   6.555   1.928   2.461
 6660SOL    HW121877   6.615   1.903   2.391
 6660SOL    HW221878   6.601   1.907   2.542
 6661SOL     OW21879   6.651  13.588   5.084
 6661SOL    HW121880   6.567  13.559   5.121
 6661SOL    HW221881   6.633  13.599   4.991
 6662SOL     OW21882   0.376   0.732   3.502
 6662SOL    HW121883   0.322   0.653   3.508
 6662SOL    HW221884   0.422   0.722   3.419
 6663SOL     OW21885   3.917  13.996  13.076
 6663SOL    HW121886   3.996  14.027  13.032
 6663SOL    HW221887   3.918  13.901  13.064
 6664SOL     OW21888   4.694   9.686  12.404
 6664SOL    HW121889   4.646   9.717  12.327
 6664SOL    HW221890   4.771   9.743  12.407
 6665SOL     OW21891   1.512   7.997  14.738
 6665SOL    HW121892   1.513   7.954  14.824
 6665SOL    HW221893   1.601   7.985  14.704
 6666SOL     OW21894  14.352  12.698  10.476
 6666SOL    HW121895  14.414  12.673  10.407
 6666SOL    HW221896  14.400  12.762  10.529
 6667SOL     OW21897   8.498   5.115   6.913
 6667SOL    HW121898   8.433   5.185   6.916
 6667SOL    HW221899   8.582   5.160   6.922
 6668SOL     OW21900   1.413   9.250   6.745
 6668SOL    HW121901   1.448   9.180   6.801
 6668SOL    HW221902   1.454   9.235   6.660
 6669SOL     OW21903   2.956   9.438   7.729
 6669SOL    HW121904   2.998   9.473   7.808
 6669SOL    HW221905   2.964   9.509   7.665
 6670SOL     OW21906   0.020   6.017   4.301
 6670SOL    HW121907  14.854   5.942   4.255
 6670SOL    HW221908  14.859   6.010   4.390
 6671SOL     OW21909   9.083  11.015  12.459
 6671SOL    HW121910   9.104  10.922  12.469
 6671SOL    HW221911   9.155  11.060  12.503
 6672SOL     OW21912   7.006   2.660   0.956
 6672SOL    HW121913   7.050   2.694   0.879
 6672SOL    HW221914   6.977   2.738   1.004
 6673SOL     OW21915   1.682  11.903  11.853
 6673SOL    HW121916   1.725  11.852  11.922
 6673SOL    HW221917   1.749  11.967  11.827
 6674SOL     OW21918  10.087   5.442   4.027
 6674SOL    HW121919  10.103   5.533   4.052
 6674SOL    HW221920  10.071   5.445   3.933
 6675SOL     OW21921   0.968   9.439  10.787
 6675SOL    HW121922   0.932   9.394  10.711
 6675SOL    HW221923   1.041   9.491  10.753
 6676SOL     OW21924   5.699   7.919  10.213
 6676SOL    HW121925   5.734   7.982  10.151
 6676SOL    HW221926   5.766   7.851  10.219
 6677SOL     OW21927  11.892   3.391   7.590
 6677SOL    HW121928  11.857   3.309   7.626
 6677SOL    HW221929  11.845   3.460   7.638
 6678SOL     OW21930  11.058  10.799   5.602
 6678SOL    HW121931  11.013  10.810   5.686
 6678SOL    HW221932  11.011  10.729   5.558
 6679SOL     OW21933   9.804   9.077   0.080
 6679SOL    HW121934   9.886   9.125   0.068
 6679SOL    HW221935   9.759   9.083  14.868
 6680SOL     OW21936  11.041   7.503   6.922
 6680SOL    HW121937  11.125   7.458   6.927
 6680SOL    HW221938  10.987   7.447   6.866
 6681SOL     OW21939   4.148   9.641  11.998
 6681SOL    HW121940   4.080   9.673  12.058
 6681SOL    HW221941   4.102   9.622  11.917
 6682SOL     OW21942   0.098  14.244   6.486
 6682SOL    HW121943   0.183  14.257   6.445
 6682SOL    HW221944   0.093  14.313   6.552
 6683SOL     OW21945   9.027   7.141  13.498
 6683SOL    HW121946   9.046   7.175  13.585
 6683SOL    HW221947   9.024   7.219  13.442
 6684SOL     OW21948  10.962  14.366   7.887
 6684SOL    HW121949  11.055  14.382   7.871
 6684SOL    HW221950  10.957  14.339   7.979
 6685SOL     OW21951   1.607   1.539  10.329
 6685SOL    HW121952   1.530   1.594  10.345
 6685SOL    HW221953   1.672   1.570  10.391
 6686SOL     OW21954   6.992   5.059   2.097
 6686SOL    HW121955   7.032   4.972   2.107
 6686SOL    HW221956   7.065   5.118   2.084
 6687SOL     OW21957   7.062   3.770   8.845
 6687SOL    HW121958   6.975   3.743   8.874
 6687SOL    HW221959   7.061   3.753   8.751
 6688SOL     OW21960   3.497   1.181   1.426
 6688SOL    HW121961   3.422   1.228   1.462
 6688SOL    HW221962   3.573   1.232   1.456
 6689SOL     OW21963  12.767   7.900   2.322
 6689SOL    HW121964  12.680   7.940   2.320
 6689SOL    HW221965  12.768   7.848   2.402
 6690SOL     OW21966  13.693   3.226   1.698
 6690SOL    HW121967  13.677   3.260   1.610
 6690SOL    HW221968  13.776   3.178   1.691
 6691SOL     OW21969  11.989  14.130   5.862
 6691SOL    HW121970  12.036  14.212   5.846
 6691SOL    HW221971  11.906  14.157   5.900
 6692SOL     OW21972   4.522  12.376  13.824
 6692SOL    HW121973   4.431  12.348  13.813
 6692SOL    HW221974   4.573  12.309  13.778
 6693SOL     OW21975  10.206  14.222   3.085
 6693SOL    HW121976  10.192  14.193   2.994
 6693SOL    HW221977  10.272  14.162   3.119
 6694SOL     OW21978   6.578   9.822   4.592
 6694SOL    HW121979   6.647   9.807   4.657
 6694SOL    HW221980   6.623   9.862   4.518
 6695SOL     OW21981   7.699  13.306  14.418
 6695SOL    HW121982   7.707  13.381  14.477
 6695SOL    HW221983   7.789  13.283  14.396
 6696SOL     OW21984  11.848   9.142  13.302
 6696SOL    HW121985  11.883   9.099  13.381
 6696SOL    HW221986  11.803   9.072  13.255
 6697SOL     OW21987   0.381   7.444  10.980
 6697SOL    HW121988   0.360   7.415  11.069
 6697SOL    HW221989   0.410   7.365  10.936
 6698SOL     OW21990   8.566   9.409   2.629
 6698SOL    HW121991   8.517   9.463   2.692
 6698SOL    HW221992   8.498   9.370   2.574
 6699SOL     OW21993   1.951   6.994   5.777
 6699SOL    HW121994   1.993   7.047   5.844
 6699SOL    HW221995   2.014   6.924   5.758
 6700SOL     OW21996   6.052   8.869   9.735
 6700SOL    HW121997   6.026   8.782   9.765
 6700SOL    HW221998   5.974   8.923   9.749
 6701SOL     OW21999  12.282   8.541   2.653
 6701SOL    HW122000  12.335   8.462   2.665
 6701SOL    HW222001  12.199   8.509   2.617
 6702SOL     OW22002   6.857   2.564   0.761
 6702SOL    HW122003   6.907   2.619   0.821
 6702SOL    HW222004   6.887   2.591   0.674
 6703SOL     OW22005  11.843   0.888   9.731
 6703SOL    HW122006  11.917   0.921   9.782
 6703SOL    HW222007  11.808   0.966   9.688
 6704SOL     OW22008   1.454   1.333   8.584
 6704SOL    HW122009   1.492   1.295   8.505
 6704SOL    HW222010   1.529   1.371   8.631
 6705SOL     OW22011   2.506  13.802   7.616
 6705SOL    HW122012   2.463  13.815   7.532
 6705SOL    HW222013   2.439  13.819   7.681
 6706SOL     OW22014   1.748   1.464   6.073
 6706SOL    HW122015   1.732   1.369   6.074
 6706SOL    HW222016   1.829   1.475   6.122
 6707SOL     OW22017   1.087   5.673   5.567
 6707SOL    HW122018   1.131   5.681   5.483
 6707SOL    HW222019   1.069   5.764   5.593
 6708SOL     OW22020   9.444  10.605   5.175
 6708SOL    HW122021   9.412  10.549   5.245
 6708SOL    HW222022   9.468  10.545   5.105
 6709SOL     OW22023   0.859  10.010  10.529
 6709SOL    HW122024   0.866   9.915  10.540
 6709SOL    HW222025   0.810  10.021  10.447
 6710SOL     OW22026   4.898  12.343  10.230
 6710SOL    HW122027   4.949  12.290  10.168
 6710SOL    HW222028   4.910  12.433  10.200
 6711SOL     OW22029  10.657   9.019  11.256
 6711SOL    HW122030  10.610   8.996  11.176
 6711SOL    HW222031  10.747   9.034  11.228
 6712SOL     OW22032   6.936  11.806   4.625
 6712SOL    HW122033   6.931  11.755   4.544
 6712SOL    HW222034   6.871  11.765   4.683
 6713SOL     OW22035  10.713   7.075  13.593
 6713SOL    HW122036  10.807   7.078  13.575
 6713SOL    HW222037  10.673   7.108  13.513
 6714SOL     OW22038   1.402   9.732   1.878
 6714SOL    HW122039   1.494   9.758   1.882
 6714SOL    HW222040   1.404   9.636   1.876
 6715SOL     OW22041   5.312   2.255  10.263
 6715SOL    HW122042   5.366   2.243  10.342
 6715SOL    HW222043   5.223   2.264  10.296
 6716SOL     OW22044   4.349   9.247   6.289
 6716SOL    HW122045   4.388   9.229   6.374
 6716SOL    HW222046   4.423   9.257   6.230
 6717SOL     OW22047   6.698  10.447   4.651
 6717SOL    HW122048   6.720  10.530   4.607
 6717SOL    HW222049   6.655  10.395   4.583
 6718SOL     OW22050  12.880   6.711   7.375
 6718SOL    HW122051  12.894   6.678   7.464
 6718SOL    HW222052  12.968   6.722   7.340
 6719SOL     OW22053   7.679   1.451   9.043
 6719SOL    HW122054   7.677   1.355   9.053
 6719SOL    HW222055   7.590   1.479   9.067
 6720SOL     OW22056   3.912   9.792   5.903
 6720SOL    HW122057   3.855   9.856   5.861
 6720SOL    HW222058   3.881   9.789   5.994
 6721SOL     OW22059   0.220   1.410   2.263
 6721SOL    HW122060   0.143   1.353   2.269
 6721SOL    HW222061   0.214   1.467   2.339
 6722SOL     OW22062  11.884   1.243  13.202
 6722SOL    HW122063  11.831   1.176  13.245
 6722SOL    HW222064  11.939   1.278  13.272
 6723SOL     OW22065  14.796   8.134   5.811
 6723SOL    HW122066  14.735   8.071   5.849
 6723SOL    HW222067  14.832   8.181   5.886
 6724SOL     OW22068   5.959  12.505   9.879
 6724SOL    HW122069   6.042  12.553   9.883
 6724SOL    HW222070   5.950  12.465   9.966
 6725SOL     OW22071   5.957   0.643   8.847
 6725SOL    HW122072   5.958   0.625   8.753
 6725SOL    HW222073   5.927   0.733   8.855
 6726SOL     OW22074   9.454   8.623   8.802
 6726SOL    HW122075   9.438   8.587   8.715
 6726SOL    HW222076   9.394   8.697   8.809
 6727SOL     OW22077  12.137  14.692   3.029
 6727SOL    HW122078  12.067  14.705   3.093
 6727SOL    HW222079  12.211  14.661   3.080
 6728SOL     OW22080   4.431  10.666   9.968
 6728SOL    HW122081   4.389  10.615   9.899
 6728SOL    HW222082   4.378  10.649  10.046
 6729SOL     OW22083   0.554   0.779  11.173
 6729SOL    HW122084   0.627   0.795  11.233
 6729SOL    HW222085   0.579   0.825  11.092
 6730SOL     OW22086  12.850  13.412  12.956
 6730SOL    HW122087  12.802  13.487  12.922
 6730SOL    HW222088  12.863  13.431  13.049
 6731SOL     OW22089  10.596  11.324  12.823
 6731SOL    HW122090  10.624  11.250  12.768
 6731SOL    HW222091  10.671  11.343  12.879
 6732SOL     OW22092   2.758  10.236   9.814
 6732SOL    HW122093   2.851  10.223   9.796
 6732SOL    HW222094   2.747  10.331   9.815
 6733SOL     OW22095  13.626   9.288  14.501
 6733SOL    HW122096  13.628   9.383  14.490
 6733SOL    HW222097  13.575   9.273  14.580
 6734SOL     OW22098   4.000  13.718  14.619
 6734SOL    HW122099   4.089  13.732  14.650
 6734SOL    HW222100   4.010  13.663  14.541
 6735SOL     OW22101   7.911   3.812  12.572
 6735SOL    HW122102   7.892   3.890  12.519
 6735SOL    HW222103   8.006   3.801  12.565
 6736SOL     OW22104  12.524   7.681   3.199
 6736SOL    HW122105  12.491   7.628   3.271
 6736SOL    HW222106  12.464   7.663   3.127
 6737SOL     OW22107  11.936  10.025   2.355
 6737SOL    HW122108  11.900   9.951   2.306
 6737SOL    HW222109  12.031  10.016   2.345
 6738SOL     OW22110   1.836   9.409  12.932
 6738SOL    HW122111   1.742   9.397  12.922
 6738SOL    HW222112   1.858   9.478  12.869
 6739SOL     OW22113  12.939  14.590   9.446
 6739SOL    HW122114  12.921  14.624   9.534
 6739SOL    HW222115  12.964  14.499   9.460
 6740SOL     OW22116   3.073  14.255   2.733
 6740SOL    HW122117   3.041  14.270   2.644
 6740SOL    HW222118   3.163  14.288   2.732
 6741SOL     OW22119  14.658   3.428   2.956
 6741SOL    HW122120  14.706   3.471   2.885
 6741SOL    HW222121  14.711   3.351   2.978
 6742SOL     OW22122  13.474   4.656   1.550
 6742SOL    HW122123  13.524   4.733   1.579
 6742SOL    HW222124  13.385   4.689   1.540
 6743SOL     OW22125   2.372  14.597  12.216
 6743SOL    HW122126   2.459  14.556  12.221
 6743SOL    HW222127   2.364  14.646  12.299
 6744SOL     OW22128  13.766   5.974   8.902
 6744SOL    HW122129  13.812   6.058   8.903
 6744SOL    HW222130  13.829   5.912   8.939
 6745SOL     OW22131  12.468   3.899   2.003
 6745SOL    HW122132  12.419   3.925   1.925
 6745SOL    HW222133  12.500   3.811   1.982
 6746SOL     OW22134  12.996  10.162  13.123
 6746SOL    HW122135  13.065  10.108  13.086
 6746SOL    HW222136  13.001  10.148  13.217
 6747SOL     OW22137   3.909   8.261   5.760
 6747SOL    HW122138   3.841   8.206   5.721
 6747SOL    HW222139   3.862   8.322   5.816
 6748SOL     OW22140   3.163  13.412   6.707
 6748SOL    HW122141   3.212  13.330   6.704
 6748SOL    HW222142   3.204  13.462   6.778
 6749SOL     OW22143   1.337   3.080   0.639
 6749SOL    HW122144   1.377   3.153   0.591
 6749SOL    HW222145   1.257   3.116   0.677
 6750SOL     OW22146   9.401   5.614  11.067
 6750SOL    HW122147   9.364   5.571  10.990
 6750SOL    HW222148   9.351   5.581  11.140
 6751SOL     OW22149   8.355   0.734   6.235
 6751SOL    HW122150   8.326   0.823   6.218
 6751SOL    HW222151   8.328   0.717   6.326
 6752SOL     OW22152   3.904  13.905   4.542
 6752SOL    HW122153   3.993  13.870   4.538
 6752SOL    HW222154   3.854  13.849   4.483
 6753SOL     OW22155  12.728   8.985  14.815
 6753SOL    HW122156  12.689   8.903  14.844
 6753SOL    HW222157  12.783   9.013   0.016
 6754SOL     OW22158   1.505   5.289   2.576
 6754SOL    HW122159   1.522   5.258   2.487
 6754SOL    HW222160   1.574   5.353   2.593
 6755SOL     OW22161   6.115   4.860   0.621
 6755SOL    HW122162   6.029   4.894   0.595
 6755SOL    HW222163   6.166   4.860   0.540
 6756SOL     OW22164   2.776   7.822   3.784
 6756SOL    HW122165   2.839   7.769   3.833
 6756SOL    HW222166   2.827   7.868   3.719
 6757SOL     OW22167   8.627   6.211   5.942
 6757SOL    HW122168   8.598   6.189   6.031
 6757SOL    HW222169   8.547   6.208   5.889
 6758SOL     OW22170   2.986  11.739   3.008
 6758SOL    HW122171   2.974  11.807   3.074
 6758SOL    HW222172   3.080  11.735   2.994
 6759SOL     OW22173   8.471   3.000   6.804
 6759SOL    HW122174   8.432   3.084   6.827
 6759SOL    HW222175   8.562   3.021   6.783
 6760SOL     OW22176   7.743   3.769   2.896
 6760SOL    HW122177   7.811   3.806   2.952
 6760SOL    HW222178   7.788   3.699   2.848
 6761SOL     OW22179  10.715   0.764   5.370
 6761SOL    HW122180  10.646   0.757   5.305
 6761SOL    HW222181  10.711   0.854   5.401
 6762SOL     OW22182   4.709   3.820   6.110
 6762SOL    HW122183   4.642   3.752   6.104
 6762SOL    HW222184   4.720   3.851   6.021
 6763SOL     OW22185  10.801   4.575   8.943
 6763SOL    HW122186  10.787   4.642   8.876
 6763SOL    HW222187  10.812   4.494   8.894
 6764SOL     OW22188   6.052   0.835  11.828
 6764SOL    HW122189   6.102   0.875  11.899
 6764SOL    HW222190   5.978   0.895  11.814
 6765SOL     OW22191   2.216   4.089   1.907
 6765SOL    HW122192   2.171   4.172   1.924
 6765SOL    HW222193   2.213   4.079   1.812
 6766SOL     OW22194   9.900   1.150   6.341
 6766SOL    HW122195   9.980   1.109   6.373
 6766SOL    HW222196   9.911   1.243   6.361
 6767SOL     OW22197   8.342   3.654   0.024
 6767SOL    HW122198   8.288   3.589  14.853
 6767SOL    HW222199   8.332   3.734  14.844
 6768SOL     OW22200  13.700   5.273   6.619
 6768SOL    HW122201  13.714   5.282   6.525
 6768SOL    HW222202  13.611   5.239   6.626
 6769SOL     OW22203  14.719   7.997  11.884
 6769SOL    HW122204  14.764   7.919  11.851
 6769SOL    HW222205  14.734   8.063  11.816
 6770SOL     OW22206   4.659   3.899   4.923
 6770SOL    HW122207   4.743   3.944   4.930
 6770SOL    HW222208   4.612   3.947   4.856
 6771SOL     OW22209   8.827  13.227  11.535
 6771SOL    HW122210   8.823  13.153  11.596
 6771SOL    HW222211   8.876  13.194  11.460
 6772SOL     OW22212   5.729  13.434   7.090
 6772SOL    HW122213   5.641  13.456   7.057
 6772SOL    HW222214   5.735  13.339   7.081
 6773SOL     OW22215   3.742   8.672  12.790
 6773SOL    HW122216   3.672   8.719  12.835
 6773SOL    HW222217   3.816   8.675  12.851
 6774SOL     OW22218   4.957  13.312   8.750
 6774SOL    HW122219   4.896  13.278   8.814
 6774SOL    HW222220   5.008  13.378   8.797
 6775SOL     OW22221  11.904   0.650   5.439
 6775SOL    HW122222  11.902   0.674   5.347
 6775SOL    HW222223  11.814   0.627   5.461
 6776SOL     OW22224  14.014   4.320  14.021
 6776SOL    HW122225  13.937   4.266  14.002
 6776SOL    HW222226  14.079   4.293  13.956
 6777SOL     OW22227   2.974   4.975   9.302
 6777SOL    HW122228   2.954   5.050   9.359
 6777SOL    HW222229   3.056   4.939   9.337
 6778SOL     OW22230   3.238   2.579   7.135
 6778SOL    HW122231   3.302   2.647   7.113
 6778SOL    HW222232   3.227   2.585   7.230
 6779SOL     OW22233   1.778  13.398   5.305
 6779SOL    HW122234   1.853  13.355   5.346
 6779SOL    HW222235   1.703  13.343   5.329
 6780SOL     OW22236   8.015   3.426   2.090
 6780SOL    HW122237   8.064   3.435   2.172
 6780SOL    HW222238   7.923   3.427   2.117
 6781SOL     OW22239   2.446   1.417   7.356
 6781SOL    HW122240   2.443   1.479   7.284
 6781SOL    HW222241   2.520   1.445   7.410
 6782SOL     OW22242  14.520  10.268   4.147
 6782SOL    HW122243  14.477  10.286   4.231
 6782SOL    HW222244  14.545  10.355   4.115
 6783SOL     OW22245   8.480   7.801  12.897
 6783SOL    HW122246   8.493   7.893  12.876
 6783SOL    HW222247   8.403   7.800  12.953
 6784SOL     OW22248  11.568   8.211   9.074
 6784SOL    HW122249  11.659   8.237   9.084
 6784SOL    HW222250  11.567   8.117   9.094
 6785SOL     OW22251   7.543  13.866   3.063
 6785SOL    HW122252   7.524  13.886   3.155
 6785SOL    HW222253   7.511  13.942   3.015
 6786SOL     OW22254  12.842   8.796  10.492
 6786SOL    HW122255  12.765   8.853  10.497
 6786SOL    HW222256  12.894   8.819  10.569
 6787SOL     OW22257   0.563  13.808   7.542
 6787SOL    HW122258   0.627  13.811   7.471
 6787SOL    HW222259   0.480  13.788   7.499
 6788SOL     OW22260   7.888   2.065   4.821
 6788SOL    HW122261   7.913   1.975   4.839
 6788SOL    HW222262   7.909   2.113   4.902
 6789SOL     OW22263   7.513  10.792   1.244
 6789SOL    HW122264   7.548  10.717   1.293
 6789SOL    HW222265   7.582  10.859   1.250
 6790SOL     OW22266   2.615   4.043  13.811
 6790SOL    HW122267   2.595   4.115  13.871
 6790SOL    HW222268   2.635   3.969  13.869
 6791SOL     OW22269  14.042  11.972   8.222
 6791SOL    HW122270  14.052  12.046   8.282
 6791SOL    HW222271  14.107  11.987   8.153
 6792SOL     OW22272  13.737   1.763   2.397
 6792SOL    HW122273  13.746   1.735   2.488
 6792SOL    HW222274  13.815   1.729   2.353
 6793SOL     OW22275   7.660   4.293  10.555
 6793SOL    HW122276   7.643   4.387  10.570
 6793SOL    HW222277   7.576   4.259  10.523
 6794SOL     OW22278   3.155   3.980   1.863
 6794SOL    HW122279   3.123   3.976   1.772
 6794SOL    HW222280   3.250   3.977   1.855
 6795SOL     OW22281   1.143   8.551   2.704
 6795SOL    HW122282   1.080   8.498   2.754
 6795SOL    HW222283   1.173   8.617   2.767
 6796SOL     OW22284   8.865   1.525   0.085
 6796SOL    HW122285   8.892   1.600   0.137
 6796SOL    HW222286   8.790   1.488   0.131
 6797SOL     OW22287   1.027   7.211   0.617
 6797SOL    HW122288   1.121   7.217   0.632
 6797SOL    HW222289   1.007   7.119   0.632
 6798SOL     OW22290   5.425   8.591   1.140
 6798SOL    HW122291   5.489   8.661   1.153
 6798SOL    HW222292   5.348   8.619   1.189
 6799SOL     OW22293  13.102   0.514   1.027
 6799SOL    HW122294  13.018   0.538   1.067
 6799SOL    HW222295  13.098   0.418   1.019
 6800SOL     OW22296   0.537   7.049   1.159
 6800SOL    HW122297   0.515   7.004   1.077
 6800SOL    HW222298   0.475   7.014   1.223
 6801SOL     OW22299  10.456   0.015   4.306
 6801SOL    HW122300  10.460  14.813   4.365
 6801SOL    HW222301  10.377   0.062   4.332
 6802SOL     OW22302   8.641   1.876   7.152
 6802SOL    HW122303   8.550   1.896   7.172
 6802SOL    HW222304   8.667   1.810   7.217
 6803SOL     OW22305  13.300   2.011  14.625
 6803SOL    HW122306  13.364   2.065  14.671
 6803SOL    HW222307  13.320   1.921  14.653
 6804SOL     OW22308  12.477   1.365   2.011
 6804SOL    HW122309  12.501   1.273   2.002
 6804SOL    HW222310  12.507   1.389   2.098
 6805SOL     OW22311   0.639   3.715   1.974
 6805SOL    HW122312   0.650   3.736   1.881
 6805SOL    HW222313   0.611   3.624   1.975
 6806SOL     OW22314   1.290  12.652  12.444
 6806SOL    HW122315   1.282  12.743  12.473
 6806SOL    HW222316   1.200  12.625  12.425
 6807SOL     OW22317   9.056  10.833   5.099
 6807SOL    HW122318   8.993  10.852   5.029
 6807SOL    HW222319   9.129  10.892   5.082
 6808SOL     OW22320  13.540   1.881   6.705
 6808SOL    HW122321  13.501   1.835   6.630
 6808SOL    HW222322  13.522   1.824   6.780
 6809SOL     OW22323  13.516   0.429   7.252
 6809SOL    HW122324  13.569   0.351   7.237
 6809SOL    HW222325  13.436   0.414   7.201
 6810SOL     OW22326   7.187   2.517   8.953
 6810SOL    HW122327   7.207   2.464   9.031
 6810SOL    HW222328   7.112   2.473   8.913
 6811SOL     OW22329  12.035   3.015   6.391
 6811SOL    HW122330  12.070   3.092   6.436
 6811SOL    HW222331  12.020   2.951   6.460
 6812SOL     OW22332   5.586   3.289  12.905
 6812SOL    HW122333   5.679   3.269  12.899
 6812SOL    HW222334   5.582   3.382  12.927
 6813SOL     OW22335  14.686  11.589  12.467
 6813SOL    HW122336  14.682  11.636  12.551
 6813SOL    HW222337  14.775  11.555  12.463
 6814SOL     OW22338  13.880   9.368   0.515
 6814SOL    HW122339  13.951   9.413   0.561
 6814SOL    HW222340  13.835   9.437   0.466
 6815SOL     OW22341   9.095   3.909   5.649
 6815SOL    HW122342   9.141   3.980   5.605
 6815SOL    HW222343   9.164   3.852   5.682
 6816SOL     OW22344   6.389  12.359  11.724
 6816SOL    HW122345   6.475  12.344  11.764
 6816SOL    HW222346   6.401  12.337  11.632
 6817SOL     OW22347   2.822   2.422   9.385
 6817SOL    HW122348   2.881   2.451   9.316
 6817SOL    HW222349   2.842   2.479   9.460
 6818SOL     OW22350   2.678   9.480   3.410
 6818SOL    HW122351   2.737   9.555   3.396
 6818SOL    HW222352   2.590   9.518   3.407
 6819SOL     OW22353  10.464   3.230  13.656
 6819SOL    HW122354  10.480   3.252  13.748
 6819SOL    HW222355  10.475   3.314  13.609
 6820SOL     OW22356   0.914  14.172  10.395
 6820SOL    HW122357   0.973  14.109  10.437
 6820SOL    HW222358   0.966  14.253  10.391
 6821SOL     OW22359   8.930  11.260   0.962
 6821SOL    HW122360   8.839  11.268   0.934
 6821SOL    HW222361   8.975  11.225   0.885
 6822SOL     OW22362   5.506  14.656   5.333
 6822SOL    HW122363   5.437  14.637   5.397
 6822SOL    HW222364   5.463  14.711   5.267
 6823SOL     OW22365   6.384  10.084  12.335
 6823SOL    HW122366   6.470  10.046  12.316
 6823SOL    HW222367   6.339  10.015  12.385
 6824SOL     OW22368   3.069   1.701   6.171
 6824SOL    HW122369   3.043   1.740   6.088
 6824SOL    HW222370   3.003   1.634   6.188
 6825SOL     OW22371   1.980   7.449   7.239
 6825SOL    HW122372   1.889   7.477   7.253
 6825SOL    HW222373   1.995   7.463   7.146
 6826SOL     OW22374  13.978   3.355  13.682
 6826SOL    HW122375  13.993   3.401  13.600
 6826SOL    HW222376  13.927   3.278  13.658
 6827SOL     OW22377   8.250   8.084   7.231
 6827SOL    HW122378   8.215   8.133   7.156
 6827SOL    HW222379   8.237   8.142   7.306
 6828SOL     OW22380   2.896  10.036   7.668
 6828SOL    HW122381   2.831  10.002   7.607
 6828SOL    HW222382   2.924   9.959   7.717
 6829SOL     OW22383  11.175   4.796   4.140
 6829SOL    HW122384  11.115   4.867   4.162
 6829SOL    HW222385  11.192   4.807   4.047
 6830SOL     OW22386   7.650   6.613  13.645
 6830SOL    HW122387   7.690   6.676  13.705
 6830SOL    HW222388   7.704   6.618  13.566
 6831SOL     OW22389   6.934  13.938   1.064
 6831SOL    HW122390   6.934  13.880   1.140
 6831SOL    HW222391   7.026  13.964   1.054
 6832SOL     OW22392   9.973   7.137  14.046
 6832SOL    HW122393  10.005   7.148  13.956
 6832SOL    HW222394   9.901   7.075  14.038
 6833SOL     OW22395   4.820   7.639   5.380
 6833SOL    HW122396   4.891   7.599   5.329
 6833SOL    HW222397   4.775   7.565   5.421
 6834SOL     OW22398   9.648   1.006   8.028
 6834SOL    HW122399   9.565   0.961   8.044
 6834SOL    HW222400   9.627   1.099   8.041
 6835SOL     OW22401   2.810   5.461   6.884
 6835SOL    HW122402   2.752   5.390   6.855
 6835SOL    HW222403   2.884   5.456   6.824
 6836SOL     OW22404  10.646  12.807   2.176
 6836SOL    HW122405  10.686  12.722   2.195
 6836SOL    HW222406  10.703  12.846   2.109
 6837SOL     OW22407  10.717   2.926   3.922
 6837SOL    HW122408  10.772   2.900   3.996
 6837SOL    HW222409  10.629   2.900   3.948
 6838SOL     OW22410  14.741   4.104   3.908
 6838SOL    HW122411  14.686   4.126   3.833
 6838SOL    HW222412  14.708   4.019   3.938
 6839SOL     OW22413   4.687  12.472   7.657
 6839SOL    HW122414   4.663  12.419   7.581
 6839SOL    HW222415   4.624  12.446   7.724
 6840SOL     OW22416   2.673  10.892  13.007
 6840SOL    HW122417   2.629  10.896  13.092
 6840SOL    HW222418   2.697  10.982  12.987
 6841SOL     OW22419   9.603   6.794   9.183
 6841SOL    HW122420   9.528   6.852   9.195
 6841SOL    HW222421   9.665   6.820   9.251
 6842SOL     OW22422   0.169   0.326   5.599
 6842SOL    HW122423   0.199   0.240   5.568
 6842SOL    HW222424   0.101   0.306   5.663
 6843SOL     OW22425   7.028   4.330   1.097
 6843SOL    HW122426   7.036   4.425   1.088
 6843SOL    HW222427   6.939   4.310   1.066
 6844SOL     OW22428   6.487  10.754  11.067
 6844SOL    HW122429   6.581  10.768  11.079
 6844SOL    HW222430   6.449  10.771  11.154
 6845SOL     OW22431   6.580   1.216  14.734
 6845SOL    HW122432   6.635   1.208  14.655
 6845SOL    HW222433   6.611   1.297  14.775
 6846SOL     OW22434  14.017  14.060  14.484
 6846SOL    HW122435  13.974  14.146  14.484
 6846SOL    HW222436  13.997  14.023  14.569
 6847SOL     OW22437   4.984   1.111   1.153
 6847SOL    HW122438   4.934   1.090   1.232
 6847SOL    HW222439   5.072   1.080   1.171
 6848SOL     OW22440   2.375   8.689   7.090
 6848SOL    HW122441   2.330   8.628   7.149
 6848SOL    HW222442   2.323   8.688   7.010
 6849SOL     OW22443  13.765   7.668   0.827
 6849SOL    HW122444  13.851   7.658   0.786
 6849SOL    HW222445  13.743   7.760   0.812
 6850SOL     OW22446  14.669   8.528   6.715
 6850SOL    HW122447  14.593   8.552   6.768
 6850SOL    HW222448  14.677   8.597   6.650
 6851SOL     OW22449   4.151  11.929  12.268
 6851SOL    HW122450   4.131  11.974  12.350
 6851SOL    HW222451   4.114  11.984  12.200
 6852SOL     OW22452  11.213   0.034   3.558
 6852SOL    HW122453  11.132   0.032   3.509
 6852SOL    HW222454  11.252  14.820   3.544
 6853SOL     OW22455   2.518   3.429  13.684
 6853SOL    HW122456   2.441   3.445  13.739
 6853SOL    HW222457   2.590   3.418  13.746
 6854SOL     OW22458   0.741  10.217   3.720
 6854SOL    HW122459   0.763  10.286   3.657
 6854SOL    HW222460   0.646  10.220   3.727
 6855SOL     OW22461  13.160   7.972  12.190
 6855SOL    HW122462  13.093   7.905  12.206
 6855SOL    HW222463  13.112   8.054  12.189
 6856SOL     OW22464   2.440   1.829   5.172
 6856SOL    HW122465   2.486   1.831   5.256
 6856SOL    HW222466   2.501   1.786   5.113
 6857SOL     OW22467   0.727   8.412   7.572
 6857SOL    HW122468   0.683   8.450   7.496
 6857SOL    HW222469   0.772   8.335   7.537
 6858SOL     OW22470   0.447   1.680   7.999
 6858SOL    HW122471   0.445   1.639   7.912
 6858SOL    HW222472   0.398   1.761   7.987
 6859SOL     OW22473   1.178   5.771   6.972
 6859SOL    HW122474   1.264   5.805   6.995
 6859SOL    HW222475   1.155   5.815   6.890
 6860SOL     OW22476   7.012   7.445   0.719
 6860SOL    HW122477   7.034   7.488   0.636
 6860SOL    HW222478   6.922   7.415   0.707
 6861SOL     OW22479  14.585   3.340   5.068
 6861SOL    HW122480  14.527   3.380   5.003
 6861SOL    HW222481  14.619   3.413   5.119
 6862SOL     OW22482   3.623   4.411   9.945
 6862SOL    HW122483   3.597   4.333   9.994
 6862SOL    HW222484   3.546   4.433   9.893
 6863SOL     OW22485   2.510   1.551  14.597
 6863SOL    HW122486   2.553   1.565  14.512
 6863SOL    HW222487   2.555   1.476  14.634
 6864SOL     OW22488   8.287  12.558   1.897
 6864SOL    HW122489   8.211  12.592   1.944
 6864SOL    HW222490   8.350  12.537   1.966
 6865SOL     OW22491   1.848   9.099  13.287
 6865SOL    HW122492   1.772   9.058  13.246
 6865SOL    HW222493   1.813   9.143  13.364
 6866SOL     OW22494   4.990   6.685   8.694
 6866SOL    HW122495   4.920   6.749   8.698
 6866SOL    HW222496   5.050   6.717   8.626
 6867SOL     OW22497  10.267   7.718   8.377
 6867SOL    HW122498  10.255   7.645   8.438
 6867SOL    HW222499  10.343   7.765   8.410
 6868SOL     OW22500   5.331  13.156   2.065
 6868SOL    HW122501   5.396  13.217   2.029
 6868SOL    HW222502   5.254  13.167   2.009
 6869SOL     OW22503   6.561  10.036  12.613
 6869SOL    HW122504   6.526   9.956  12.572
 6869SOL    HW222505   6.555  10.019  12.707
 6870SOL     OW22506   1.518   2.494   2.652
 6870SOL    HW122507   1.510   2.421   2.591
 6870SOL    HW222508   1.440   2.548   2.635
 6871SOL     OW22509   1.381  10.463   9.529
 6871SOL    HW122510   1.287  10.448   9.541
 6871SOL    HW222511   1.389  10.494   9.439
 6872SOL     OW22512   0.412   3.295  14.022
 6872SOL    HW122513   0.368   3.335  14.097
 6872SOL    HW222514   0.340   3.271  13.963
 6873SOL     OW22515  11.461   1.386   5.503
 6873SOL    HW122516  11.378   1.368   5.548
 6873SOL    HW222517  11.510   1.441   5.563
 6874SOL     OW22518   6.545   7.088   3.648
 6874SOL    HW122519   6.593   7.170   3.638
 6874SOL    HW222520   6.588   7.043   3.721
 6875SOL     OW22521   6.094   6.659  13.383
 6875SOL    HW122522   6.148   6.586  13.355
 6875SOL    HW222523   6.010   6.646  13.339
 6876SOL     OW22524  11.268  11.417  10.623
 6876SOL    HW122525  11.319  11.498  10.627
 6876SOL    HW222526  11.244  11.408  10.531
 6877SOL     OW22527   9.434   0.605   6.612
 6877SOL    HW122528   9.429   0.575   6.521
 6877SOL    HW222529   9.354   0.655   6.626
 6878SOL     OW22530  11.366   4.099   9.133
 6878SOL    HW122531  11.453   4.135   9.145
 6878SOL    HW222532  11.308   4.175   9.137
 6879SOL     OW22533   3.124   4.752   8.246
 6879SOL    HW122534   3.106   4.676   8.301
 6879SOL    HW222535   3.167   4.716   8.168
 6880SOL     OW22536  12.272   3.614   2.170
 6880SOL    HW122537  12.337   3.544   2.171
 6880SOL    HW222538  12.305   3.678   2.233
 6881SOL     OW22539   9.944   9.726  12.967
 6881SOL    HW122540   9.944   9.820  12.989
 6881SOL    HW222541  10.002   9.719  12.892
 6882SOL     OW22542  13.160   0.913   4.378
 6882SOL    HW122543  13.085   0.970   4.361
 6882SOL    HW222544  13.199   0.898   4.292
 6883SOL     OW22545  11.946   4.027   7.628
 6883SOL    HW122546  11.936   3.970   7.704
 6883SOL    HW222547  11.988   3.972   7.562
 6884SOL     OW22548   0.288  13.779  11.703
 6884SOL    HW122549   0.301  13.779  11.798
 6884SOL    HW222550   0.201  13.818  11.692
 6885SOL     OW22551  13.230   1.254  12.574
 6885SOL    HW122552  13.199   1.311  12.644
 6885SOL    HW222553  13.217   1.165  12.608
 6886SOL     OW22554   1.658  12.694  10.750
 6886SOL    HW122555   1.611  12.724  10.673
 6886SOL    HW222556   1.747  12.678  10.718
 6887SOL     OW22557  11.207   4.683   1.571
 6887SOL    HW122558  11.275   4.633   1.617
 6887SOL    HW222559  11.157   4.725   1.641
 6888SOL     OW22560   6.499   7.435   5.188
 6888SOL    HW122561   6.567   7.402   5.131
 6888SOL    HW222562   6.502   7.379   5.265
 6889SOL     OW22563   3.876  12.744   1.922
 6889SOL    HW122564   3.954  12.749   1.978
 6889SOL    HW222565   3.806  12.715   1.981
 6890SOL     OW22566   6.237   4.108  11.734
 6890SOL    HW122567   6.185   4.177  11.694
 6890SOL    HW222568   6.180   4.031  11.735
 6891SOL     OW22569   9.334   5.260  11.515
 6891SOL    HW122570   9.363   5.174  11.486
 6891SOL    HW222571   9.293   5.244  11.601
 6892SOL     OW22572   0.908   6.299   0.969
 6892SOL    HW122573   0.875   6.345   0.892
 6892SOL    HW222574   0.830   6.286   1.024
 6893SOL     OW22575   4.314   7.491  10.963
 6893SOL    HW122576   4.253   7.436  10.914
 6893SOL    HW222577   4.361   7.540  10.897
 6894SOL     OW22578  13.745  10.924   9.816
 6894SOL    HW122579  13.743  11.016   9.788
 6894SOL    HW222580  13.741  10.929   9.912
 6895SOL     OW22581   1.159   8.562  11.403
 6895SOL    HW122582   1.211   8.637  11.374
 6895SOL    HW222583   1.166   8.498  11.332
 6896SOL     OW22584   5.768  13.441   2.611
 6896SOL    HW122585   5.822  13.507   2.654
 6896SOL    HW222586   5.768  13.367   2.672
 6897SOL     OW22587   0.205   7.217   7.856
 6897SOL    HW122588   0.164   7.131   7.846
 6897SOL    HW222589   0.134   7.275   7.884
 6898SOL     OW22590  14.081   2.559   3.902
 6898SOL    HW122591  14.064   2.486   3.843
 6898SOL    HW222592  14.048   2.530   3.987
 6899SOL     OW22593   5.834  11.698   5.580
 6899SOL    HW122594   5.810  11.736   5.495
 6899SOL    HW222595   5.758  11.715   5.636
 6900SOL     OW22596  11.572   2.258  11.855
 6900SOL    HW122597  11.511   2.188  11.877
 6900SOL    HW222598  11.610   2.231  11.771
 6901SOL     OW22599   4.258   0.954   2.909
 6901SOL    HW122600   4.163   0.946   2.916
 6901SOL    HW222601   4.293   0.892   2.974
 6902SOL     OW22602   1.587  14.280  11.821
 6902SOL    HW122603   1.604  14.191  11.791
 6902SOL    HW222604   1.666  14.305  11.870
 6903SOL     OW22605   0.385   8.791   5.635
 6903SOL    HW122606   0.417   8.872   5.674
 6903SOL    HW222607   0.345   8.743   5.707
 6904SOL     OW22608   8.770  12.743   0.147
 6904SOL    HW122609   8.774  12.830   0.107
 6904SOL    HW222610   8.843  12.695   0.108
 6905SOL     OW22611   6.441  13.816   8.288
 6905SOL    HW122612   6.367  13.756   8.274
 6905SOL    HW222613   6.448  13.823   8.383
 6906SOL     OW22614  13.022   9.434   7.518
 6906SOL    HW122615  12.995   9.526   7.509
 6906SOL    HW222616  13.010   9.396   7.431
 6907SOL     OW22617   1.169   4.811  11.103
 6907SOL    HW122618   1.230   4.740  11.090
 6907SOL    HW222619   1.218   4.876  11.153
 6908SOL     OW22620  14.694   0.923   1.136
 6908SOL    HW122621  14.608   0.915   1.178
 6908SOL    HW222622  14.711   0.836   1.100
 6909SOL     OW22623   6.770   9.073   3.493
 6909SOL    HW122624   6.729   9.088   3.409
 6909SOL    HW222625   6.853   9.030   3.472
 6910SOL     OW22626  10.383   6.924   6.740
 6910SOL    HW122627  10.415   6.923   6.650
 6910SOL    HW222628  10.345   6.837   6.753
 6911SOL     OW22629   6.897  12.478  14.110
 6911SOL    HW122630   6.921  12.544  14.045
 6911SOL    HW222631   6.842  12.526  14.173
 6912SOL     OW22632   3.956  13.484   0.249
 6912SOL    HW122633   4.007  13.517   0.175
 6912SOL    HW222634   3.892  13.424   0.208
 6913SOL     OW22635   2.241  14.134   7.167
 6913SOL    HW122636   2.249  14.040   7.150
 6913SOL    HW222637   2.182  14.141   7.242
 6914SOL     OW22638  13.288   0.747   0.097
 6914SOL    HW122639  13.223   0.788   0.154
 6914SOL    HW222640  13.366   0.738   0.151
 6915SOL     OW22641  11.206   5.521   8.290
 6915SOL    HW122642  11.192   5.614   8.273
 6915SOL    HW222643  11.203   5.480   8.204
 6916SOL     OW22644   5.250   9.158   4.562
 6916SOL    HW122645   5.235   9.219   4.634
 6916SOL    HW222646   5.309   9.092   4.598
 6917SOL     OW22647   4.418  13.278   6.791
 6917SOL    HW122648   4.362  13.278   6.869
 6917SOL    HW222649   4.357  13.272   6.718
 6918SOL     OW22650   3.035  11.227   1.550
 6918SOL    HW122651   3.058  11.198   1.462
 6918SOL    HW222652   2.983  11.155   1.586
 6919SOL     OW22653   9.020   7.310  14.559
 6919SOL    HW122654   9.074   7.277  14.630
 6919SOL    HW222655   8.967   7.379  14.599
 6920SOL     OW22656   4.120  12.977  12.969
 6920SOL    HW122657   4.169  13.043  13.017
 6920SOL    HW222658   4.174  12.898  12.973
 6921SOL     OW22659  13.876  13.188   9.947
 6921SOL    HW122660  13.899  13.255   9.883
 6921SOL    HW222661  13.785  13.206   9.970
 6922SOL     OW22662  10.964   4.382  10.450
 6922SOL    HW122663  10.876   4.347  10.461
 6922SOL    HW222664  11.020   4.304  10.446
 6923SOL     OW22665   2.395   5.899  13.677
 6923SOL    HW122666   2.429   5.843  13.747
 6923SOL    HW222667   2.428   5.986  13.699
 6924SOL     OW22668   6.776  10.945   4.137
 6924SOL    HW122669   6.787  10.850   4.137
 6924SOL    HW222670   6.690  10.959   4.097
 6925SOL     OW22671   2.403   5.954   6.360
 6925SOL    HW122672   2.494   5.963   6.333
 6925SOL    HW222673   2.401   5.872   6.409
 6926SOL     OW22674   8.095   7.101   0.799
 6926SOL    HW122675   8.157   7.056   0.743
 6926SOL    HW222676   8.039   7.149   0.739
 6927SOL     OW22677   6.787  11.037   0.515
 6927SOL    HW122678   6.783  10.951   0.473
 6927SOL    HW222679   6.835  11.092   0.453
 6928SOL     OW22680   3.022  12.886   6.316
 6928SOL    HW122681   2.958  12.851   6.378
 6928SOL    HW222682   3.072  12.809   6.287
 6929SOL     OW22683  12.990   6.846   0.168
 6929SOL    HW122684  12.910   6.895   0.150
 6929SOL    HW222685  12.963   6.754   0.163
 6930SOL     OW22686   6.562  13.503   1.424
 6930SOL    HW122687   6.646  13.517   1.469
 6930SOL    HW222688   6.547  13.409   1.431
 6931SOL     OW22689   1.423   5.448   9.813
 6931SOL    HW122690   1.492   5.382   9.814
 6931SOL    HW222691   1.420   5.482   9.902
 6932SOL     OW22692   1.726  13.942   5.585
 6932SOL    HW122693   1.699  13.896   5.505
 6932SOL    HW222694   1.711  13.878   5.655
 6933SOL     OW22695   7.375   2.727  12.567
 6933SOL    HW122696   7.399   2.718  12.474
 6933SOL    HW222697   7.300   2.670  12.578
 6934SOL     OW22698  13.117  14.868  14.591
 6934SOL    HW122699  13.205   0.006  14.626
 6934SOL    HW222700  13.080  14.794  14.638
 6935SOL     OW22701   4.960   6.838   4.456
 6935SOL    HW122702   4.894   6.863   4.391
 6935SOL    HW222703   5.044   6.849   4.410
 6936SOL     OW22704   2.928   8.119   7.472
 6936SOL    HW122705   2.996   8.061   7.439
 6936SOL    HW222706   2.881   8.065   7.536
 6937SOL     OW22707  13.739   6.273   7.339
 6937SOL    HW122708  13.809   6.304   7.281
 6937SOL    HW222709  13.774   6.285   7.427
 6938SOL     OW22710   6.625   7.289   4.307
 6938SOL    HW122711   6.541   7.244   4.297
 6938SOL    HW222712   6.657   7.302   4.218
 6939SOL     OW22713  13.234  14.100  11.149
 6939SOL    HW122714  13.297  14.028  11.149
 6939SOL    HW222715  13.272  14.166  11.206
 6940SOL     OW22716  12.113   1.269   1.906
 6940SOL    HW122717  12.140   1.356   1.935
 6940SOL    HW222718  12.125   1.271   1.811
 6941SOL     OW22719   8.387   5.420   6.688
 6941SOL    HW122720   8.343   5.390   6.768
 6941SOL    HW222721   8.340   5.500   6.664
 6942SOL     OW22722   6.156   6.977   1.825
 6942SOL    HW122723   6.230   7.000   1.881
 6942SOL    HW222724   6.078   7.001   1.876
 6943SOL     OW22725  10.580   8.653  13.639
 6943SOL    HW122726  10.651   8.590  13.628
 6943SOL    HW222727  10.519   8.633  13.567
 6944SOL     OW22728   8.661   2.448  14.817
 6944SOL    HW122729   8.668   2.451   0.041
 6944SOL    HW222730   8.706   2.526  14.787
 6945SOL     OW22731   7.612   2.222  13.993
 6945SOL    HW122732   7.636   2.216  14.086
 6945SOL    HW222733   7.589   2.133  13.968
 6946SOL     OW22734  10.930   8.986   6.807
 6946SOL    HW122735  10.913   9.031   6.725
 6946SOL    HW222736  10.990   8.915   6.784
 6947SOL     OW22737   9.150   0.510   6.776
 6947SOL    HW122738   9.105   0.469   6.702
 6947SOL    HW222739   9.199   0.438   6.817
 6948SOL     OW22740  10.085   1.346   3.354
 6948SOL    HW122741  10.139   1.305   3.288
 6948SOL    HW222742   9.996   1.340   3.319
 6949SOL     OW22743   4.245  13.013   8.136
 6949SOL    HW122744   4.183  13.020   8.209
 6949SOL    HW222745   4.192  13.029   8.058
 6950SOL     OW22746  10.367   8.813   8.285
 6950SOL    HW122747  10.326   8.733   8.318
 6950SOL    HW222748  10.443   8.826   8.341
 6951SOL     OW22749   3.011  12.638   0.371
 6951SOL    HW122750   2.952  12.589   0.428
 6951SOL    HW222751   2.960  12.714   0.343
 6952SOL     OW22752  11.530   2.569   3.567
 6952SOL    HW122753  11.550   2.505   3.499
 6952SOL    HW222754  11.533   2.520   3.649
 6953SOL     OW22755  14.477   4.978   7.005
 6953SOL    HW122756  14.567   4.947   7.010
 6953SOL    HW222757  14.474   5.054   7.064
 6954SOL     OW22758  13.629   8.847   9.023
 6954SOL    HW122759  13.711   8.868   8.977
 6954SOL    HW222760  13.645   8.760   9.060
 6955SOL     OW22761   8.952   0.250   5.367
 6955SOL    HW122762   8.995   0.335   5.363
 6955SOL    HW222763   9.023   0.187   5.355
 6956SOL     OW22764   0.700   6.329   0.501
 6956SOL    HW122765   0.720   6.348   0.410
 6956SOL    HW222766   0.645   6.250   0.497
 6957SOL     OW22767   1.438  12.645  14.433
 6957SOL    HW122768   1.344  12.663  14.436
 6957SOL    HW222769   1.478  12.710  14.491
 6958SOL     OW22770   7.369   0.178   4.982
 6958SOL    HW122771   7.459   0.148   4.997
 6958SOL    HW222772   7.341   0.213   5.067
 6959SOL     OW22773   9.936  11.822   1.196
 6959SOL    HW122774  10.027  11.793   1.192
 6959SOL    HW222775   9.921  11.843   1.288
 6960SOL     OW22776   0.003   7.789   7.810
 6960SOL    HW122777   0.025   7.707   7.855
 6960SOL    HW222778  14.795   7.819   7.853
 6961SOL     OW22779   7.374   3.246  14.415
 6961SOL    HW122780   7.452   3.291  14.383
 6961SOL    HW222781   7.393   3.153  14.402
 6962SOL     OW22782   0.369   0.430  12.797
 6962SOL    HW122783   0.386   0.432  12.892
 6962SOL    HW222784   0.285   0.474  12.788
 6963SOL     OW22785   8.305   1.255   2.074
 6963SOL    HW122786   8.239   1.242   2.007
 6963SOL    HW222787   8.276   1.201   2.148
 6964SOL     OW22788   7.126   4.817  13.070
 6964SOL    HW122789   7.051   4.854  13.118
 6964SOL    HW222790   7.093   4.734  13.036
 6965SOL     OW22791   3.086  11.568   1.454
 6965SOL    HW122792   3.092  11.576   1.549
 6965SOL    HW222793   2.992  11.573   1.435
 6966SOL     OW22794   6.627  12.972   9.993
 6966SOL    HW122795   6.633  12.897   9.933
 6966SOL    HW222796   6.716  12.986  10.022
 6967SOL     OW22797   7.869  10.856   8.499
 6967SOL    HW122798   7.775  10.874   8.495
 6967SOL    HW222799   7.875  10.761   8.507
 6968SOL     OW22800   8.432  11.357   7.979
 6968SOL    HW122801   8.428  11.451   7.960
 6968SOL    HW222802   8.508  11.326   7.929
 6969SOL     OW22803   4.126   9.065   7.365
 6969SOL    HW122804   4.049   9.025   7.324
 6969SOL    HW222805   4.132   9.152   7.325
 6970SOL     OW22806  10.639  13.713   1.421
 6970SOL    HW122807  10.621  13.778   1.353
 6970SOL    HW222808  10.603  13.751   1.501
 6971SOL     OW22809   8.030  10.865   2.359
 6971SOL    HW122810   8.113  10.819   2.346
 6971SOL    HW222811   8.042  10.949   2.314
 6972SOL     OW22812   6.536   7.134   7.382
 6972SOL    HW122813   6.526   7.200   7.313
 6972SOL    HW222814   6.622   7.152   7.419
 6973SOL     OW22815   0.262  11.830   1.668
 6973SOL    HW122816   0.356  11.811   1.659
 6973SOL    HW222817   0.233  11.771   1.738
 6974SOL     OW22818   5.830  11.607   3.696
 6974SOL    HW122819   5.765  11.644   3.635
 6974SOL    HW222820   5.897  11.569   3.640
 6975SOL     OW22821   7.885  14.398   3.141
 6975SOL    HW122822   7.825  14.342   3.191
 6975SOL    HW222823   7.966  14.398   3.192
 6976SOL     OW22824   5.518   1.388  10.631
 6976SOL    HW122825   5.590   1.374  10.569
 6976SOL    HW222826   5.534   1.475  10.667
 6977SOL     OW22827   5.039  14.356   2.751
 6977SOL    HW122828   4.989  14.365   2.670
 6977SOL    HW222829   5.010  14.430   2.805
 6978SOL     OW22830   4.943   0.972   7.875
 6978SOL    HW122831   4.999   1.015   7.940
 6978SOL    HW222832   4.879   1.039   7.851
 6979SOL     OW22833   6.450   1.456  14.034
 6979SOL    HW122834   6.458   1.434  13.941
 6979SOL    HW222835   6.358   1.440  14.054
 6980SOL     OW22836   7.565   0.942   5.437
 6980SOL    HW122837   7.653   0.953   5.473
 6980SOL    HW222838   7.546   0.849   5.446
 6981SOL     OW22839   1.465  12.702   6.065
 6981SOL    HW122840   1.418  12.763   6.009
 6981SOL    HW222841   1.489  12.629   6.006
 6982SOL     OW22842   1.838   7.189  12.306
 6982SOL    HW122843   1.834   7.176  12.401
 6982SOL    HW222844   1.869   7.105  12.272
 6983SOL     OW22845   5.125  11.585   0.653
 6983SOL    HW122846   5.119  11.617   0.563
 6983SOL    HW222847   5.049  11.624   0.697
 6984SOL     OW22848  14.375   3.252   1.611
 6984SOL    HW122849  14.440   3.186   1.586
 6984SOL    HW222850  14.428   3.327   1.638
 6985SOL     OW22851  12.442   2.610   7.525
 6985SOL    HW122852  12.480   2.694   7.549
 6985SOL    HW222853  12.347   2.623   7.535
 6986SOL     OW22854  14.870   9.513   0.829
 6986SOL    HW122855   0.016   9.495   0.736
 6986SOL    HW222856  14.807   9.445   0.854
 6987SOL     OW22857   5.553  13.619   6.207
 6987SOL    HW122858   5.588  13.697   6.163
 6987SOL    HW222859   5.550  13.644   6.300
 6988SOL     OW22860   7.007   3.959   7.576
 6988SOL    HW122861   7.000   4.054   7.578
 6988SOL    HW222862   6.961   3.931   7.656
 6989SOL     OW22863   4.847  12.073   7.180
 6989SOL    HW122864   4.828  11.996   7.127
 6989SOL    HW222865   4.789  12.066   7.255
 6990SOL     OW22866   6.034   1.769   4.674
 6990SOL    HW122867   5.941   1.773   4.651
 6990SOL    HW222868   6.042   1.694   4.732
 6991SOL     OW22869   8.572   8.716   0.096
 6991SOL    HW122870   8.542   8.788   0.041
 6991SOL    HW222871   8.515   8.642   0.074
 6992SOL     OW22872   3.926   7.685   9.279
 6992SOL    HW122873   3.947   7.608   9.227
 6992SOL    HW222874   3.873   7.740   9.222
 6993SOL     OW22875   1.261  12.138   8.405
 6993SOL    HW122876   1.215  12.125   8.488
 6993SOL    HW222877   1.327  12.069   8.403
 6994SOL     OW22878   5.830   9.129  12.489
 6994SOL    HW122879   5.802   9.173  12.569
 6994SOL    HW222880   5.814   9.194  12.420
 6995SOL     OW22881   7.957   8.232   4.269
 6995SOL    HW122882   7.898   8.163   4.298
 6995SOL    HW222883   8.045   8.200   4.291
 6996SOL     OW22884   4.796   2.535  11.489
 6996SOL    HW122885   4.801   2.475  11.563
 6996SOL    HW222886   4.777   2.620  11.529
 6997SOL     OW22887   5.523   4.586   2.632
 6997SOL    HW122888   5.575   4.666   2.625
 6997SOL    HW222889   5.507   4.559   2.541
 6998SOL     OW22890   0.877  13.250   2.923
 6998SOL    HW122891   0.862  13.337   2.885
 6998SOL    HW222892   0.901  13.268   3.014
 6999SOL     OW22893  11.091  12.750   8.175
 6999SOL    HW122894  11.164  12.689   8.177
 6999SOL    HW222895  11.013  12.695   8.184
 7000SOL     OW22896   0.291   4.757  13.889
 7000SOL    HW122897   0.210   4.706  13.887
 7000SOL    HW222898   0.296   4.798  13.802
 7001SOL     OW22899  13.578  10.384   7.155
 7001SOL    HW122900  13.638  10.313   7.133
 7001SOL    HW222901  13.634  10.448   7.200
 7002SOL     OW22902   5.182  14.843   5.601
 7002SOL    HW122903   5.233  14.770   5.634
 7002SOL    HW222904   5.149  14.814   5.516
 7003SOL     OW22905   4.639   3.735   2.005
 7003SOL    HW122906   4.714   3.725   1.946
 7003SOL    HW222907   4.670   3.699   2.088
 7004SOL     OW22908  11.492   3.039   2.220
 7004SOL    HW122909  11.439   2.983   2.163
 7004SOL    HW222910  11.519   2.981   2.291
 7005SOL     OW22911  10.148   5.868   0.033
 7005SOL    HW122912  10.170   5.844   0.123
 7005SOL    HW222913  10.174   5.793  14.853
 7006SOL     OW22914   5.170  13.263   3.037
 7006SOL    HW122915   5.151  13.339   3.092
 7006SOL    HW222916   5.138  13.288   2.950
 7007SOL     OW22917   0.408   3.486  12.924
 7007SOL    HW122918   0.438   3.526  13.006
 7007SOL    HW222919   0.318   3.459  12.943
 7008SOL     OW22920   5.338   3.686   6.859
 7008SOL    HW122921   5.331   3.636   6.941
 7008SOL    HW222922   5.399   3.757   6.880
 7009SOL     OW22923   6.882   8.389   5.884
 7009SOL    HW122924   6.850   8.325   5.948
 7009SOL    HW222925   6.830   8.467   5.902
 7010SOL     OW22926  10.271   0.668   2.728
 7010SOL    HW122927  10.243   0.582   2.758
 7010SOL    HW222928  10.195   0.724   2.741
 7011SOL     OW22929   8.207  12.898   3.461
 7011SOL    HW122930   8.141  12.965   3.443
 7011SOL    HW222931   8.164  12.837   3.521
 7012SOL     OW22932   9.871  13.836  13.273
 7012SOL    HW122933   9.939  13.893  13.236
 7012SOL    HW222934   9.788  13.874  13.241
 7013SOL     OW22935   0.308   0.113   7.000
 7013SOL    HW122936   0.290   0.058   7.077
 7013SOL    HW222937   0.282   0.201   7.027
 7014SOL     OW22938   7.482   9.779   0.271
 7014SOL    HW122939   7.445   9.698   0.307
 7014SOL    HW222940   7.487   9.839   0.345
 7015SOL     OW22941   6.571  13.203   1.547
 7015SOL    HW122942   6.557  13.129   1.606
 7015SOL    HW222943   6.644  13.176   1.491
 7016SOL     OW22944   5.603  14.658  12.661
 7016SOL    HW122945   5.607  14.681  12.569
 7016SOL    HW222946   5.653  14.726  12.706
 7017SOL     OW22947   3.221   2.619   4.732
 7017SOL    HW122948   3.134   2.591   4.705
 7017SOL    HW222949   3.281   2.571   4.676
 7018SOL     OW22950   0.247   4.793   1.937
 7018SOL    HW122951   0.306   4.868   1.941
 7018SOL    HW222952   0.260   4.748   2.021
 7019SOL     OW22953   0.042   1.323  11.966
 7019SOL    HW122954  14.825   1.320  11.999
 7019SOL    HW222955   0.053   1.243  11.915
 7020SOL     OW22956   4.025   7.440  10.904
 7020SOL    HW122957   3.933   7.458  10.925
 7020SOL    HW222958   4.022   7.357  10.857
 7021SOL     OW22959   6.748   9.406  14.703
 7021SOL    HW122960   6.812   9.477  14.698
 7021SOL    HW222961   6.721   9.392  14.612
 7022SOL     OW22962  12.721   2.584  11.040
 7022SOL    HW122963  12.713   2.635  10.959
 7022SOL    HW222964  12.652   2.517  11.032
 7023SOL     OW22965  14.115   3.858  10.912
 7023SOL    HW122966  14.070   3.801  10.974
 7023SOL    HW222967  14.191   3.807  10.884
 7024SOL     OW22968   5.282   6.204  11.287
 7024SOL    HW122969   5.321   6.133  11.235
 7024SOL    HW222970   5.355   6.244  11.333
 7025SOL     OW22971   7.734   9.481   4.652
 7025SOL    HW122972   7.734   9.412   4.718
 7025SOL    HW222973   7.804   9.541   4.679
 7026SOL     OW22974  10.976   8.094   0.596
 7026SOL    HW122975  11.062   8.077   0.557
 7026SOL    HW222976  10.946   8.008   0.626
 7027SOL     OW22977   3.346   1.175   5.775
 7027SOL    HW122978   3.363   1.133   5.859
 7027SOL    HW222979   3.317   1.104   5.718
 7028SOL     OW22980   0.936   5.288  11.414
 7028SOL    HW122981   0.942   5.203  11.372
 7028SOL    HW222982   0.940   5.351  11.342
 7029SOL     OW22983   7.140   9.159   7.538
 7029SOL    HW122984   7.199   9.234   7.549
 7029SOL    HW222985   7.198   9.084   7.529
 7030SOL     OW22986  12.178   5.587  14.045
 7030SOL    HW122987  12.268   5.570  14.018
 7030SOL    HW222988  12.124   5.538  13.983
 7031SOL     OW22989   2.584   9.746   0.575
 7031SOL    HW122990   2.516   9.679   0.579
 7031SOL    HW222991   2.585   9.785   0.663
 7032SOL     OW22992   6.290  12.725  10.440
 7032SOL    HW122993   6.326  12.775  10.367
 7032SOL    HW222994   6.282  12.789  10.512
 7033SOL     OW22995   8.940   5.916  11.285
 7033SOL    HW122996   8.964   5.930  11.377
 7033SOL    HW222997   8.877   5.845  11.287
 7034SOL     OW22998   3.880  10.720   9.456
 7034SOL    HW122999   3.887  10.779   9.381
 7034SOL    HW223000   3.956  10.662   9.447
 7035SOL     OW23001   9.020  13.663   9.807
 7035SOL    HW123002   8.930  13.641   9.783
 7035SOL    HW223003   9.023  13.759   9.802
 7036SOL     OW23004   0.462   5.291   2.554
 7036SOL    HW123005   0.437   5.297   2.462
 7036SOL    HW223006   0.556   5.308   2.555
 7037SOL     OW23007   0.465   1.567   7.757
 7037SOL    HW123008   0.503   1.483   7.730
 7037SOL    HW223009   0.394   1.582   7.694
 7038SOL     OW23010  11.008   0.687   1.171
 7038SOL    HW123011  11.033   0.776   1.147
 7038SOL    HW223012  11.084   0.633   1.148
 7039SOL     OW23013   2.983   9.235  14.461
 7039SOL    HW123014   2.935   9.318  14.458
 7039SOL    HW223015   3.050   9.244  14.394
 7040SOL     OW23016  14.069   6.679  12.883
 7040SOL    HW123017  14.026   6.764  12.875
 7040SOL    HW223018  14.056   6.637  12.798
 7041SOL     OW23019   5.306  11.031  12.528
 7041SOL    HW123020   5.347  11.117  12.529
 7041SOL    HW223021   5.273  11.019  12.617
 7042SOL     OW23022   3.151   6.072   5.653
 7042SOL    HW123023   3.062   6.098   5.629
 7042SOL    HW223024   3.149   6.067   5.749
 7043SOL     OW23025  13.844  12.855   4.520
 7043SOL    HW123026  13.869  12.763   4.518
 7043SOL    HW223027  13.885  12.893   4.443
 7044SOL     OW23028   5.832  11.039   2.917
 7044SOL    HW123029   5.786  10.967   2.875
 7044SOL    HW223030   5.925  11.022   2.899
 7045SOL     OW23031  12.438  11.242  13.687
 7045SOL    HW123032  12.447  11.301  13.612
 7045SOL    HW223033  12.456  11.155  13.652
 7046SOL     OW23034   7.126  14.157  13.313
 7046SOL    HW123035   7.217  14.148  13.340
 7046SOL    HW223036   7.093  14.067  13.307
 7047SOL     OW23037   9.536  10.732   0.676
 7047SOL    HW123038   9.560  10.725   0.584
 7047SOL    HW223039   9.619  10.747   0.722
 7048SOL     OW23040   1.163   7.623   4.405
 7048SOL    HW123041   1.146   7.619   4.311
 7048SOL    HW223042   1.188   7.714   4.421
 7049SOL     OW23043  14.842   1.577   2.770
 7049SOL    HW123044   0.025   1.654   2.786
 7049SOL    HW223045  14.768   1.610   2.720
 7050SOL     OW23046   6.932   4.855  10.543
 7050SOL    HW123047   7.019   4.893  10.558
 7050SOL    HW223048   6.915   4.871  10.450
 7051SOL     OW23049   1.216   8.941  10.366
 7051SOL    HW123050   1.152   8.873  10.390
 7051SOL    HW223051   1.244   8.918  10.278
 7052SOL     OW23052   8.563   8.475   0.197
 7052SOL    HW123053   8.592   8.561   0.226
 7052SOL    HW223054   8.631   8.446   0.136
 7053SOL     OW23055   2.011  14.396   5.817
 7053SOL    HW123056   2.054  14.473   5.855
 7053SOL    HW223057   1.977  14.426   5.733
 7054SOL     OW23058   3.827   9.625   4.471
 7054SOL    HW123059   3.882   9.577   4.410
 7054SOL    HW223060   3.759   9.665   4.416
 7055SOL     OW23061  12.335  10.892  12.152
 7055SOL    HW123062  12.357  10.981  12.124
 7055SOL    HW223063  12.325  10.899  12.247
 7056SOL     OW23064   1.083   8.454  13.066
 7056SOL    HW123065   1.110   8.468  13.156
 7056SOL    HW223066   1.154   8.490  13.013
 7057SOL     OW23067  14.658   3.122   7.772
 7057SOL    HW123068  14.651   3.045   7.827
 7057SOL    HW223069  14.593   3.108   7.703
 7058SOL     OW23070   7.400   9.597  13.771
 7058SOL    HW123071   7.365   9.515  13.735
 7058SOL    HW223072   7.420   9.576  13.863
 7059SOL     OW23073   7.816   2.972   0.131
 7059SOL    HW123074   7.848   2.915   0.201
 7059SOL    HW223075   7.721   2.957   0.128
 7060SOL     OW23076  11.772  11.172  12.863
 7060SOL    HW123077  11.695  11.140  12.910
 7060SOL    HW223078  11.826  11.211  12.932
 7061SOL     OW23079   3.405   2.983   8.675
 7061SOL    HW123080   3.443   3.027   8.751
 7061SOL    HW223081   3.347   2.916   8.712
 7062SOL     OW23082  12.326   3.503   3.061
 7062SOL    HW123083  12.370   3.540   2.984
 7062SOL    HW223084  12.364   3.549   3.135
 7063SOL     OW23085   6.507  11.942  12.741
 7063SOL    HW123086   6.525  11.914  12.652
 7063SOL    HW223087   6.555  12.024  12.751
 7064SOL     OW23088   0.995   6.447   8.513
 7064SOL    HW123089   0.990   6.493   8.429
 7064SOL    HW223090   0.942   6.369   8.501
 7065SOL     OW23091  11.983  14.012   8.773
 7065SOL    HW123092  11.969  13.935   8.827
 7065SOL    HW223093  12.073  14.039   8.791
 7066SOL     OW23094  12.452  12.353   5.436
 7066SOL    HW123095  12.409  12.437   5.454
 7066SOL    HW223096  12.419  12.327   5.350
 7067SOL     OW23097   3.576  11.094   4.364
 7067SOL    HW123098   3.600  11.101   4.272
 7067SOL    HW223099   3.500  11.153   4.374
 7068SOL     OW23100   2.102  12.602   1.953
 7068SOL    HW123101   2.095  12.629   2.045
 7068SOL    HW223102   2.116  12.508   1.957
 7069SOL     OW23103   6.374  12.666   3.746
 7069SOL    HW123104   6.468  12.663   3.729
 7069SOL    HW223105   6.363  12.734   3.812
 7070SOL     OW23106  11.188  13.757  12.842
 7070SOL    HW123107  11.240  13.725  12.916
 7070SOL    HW223108  11.251  13.807  12.790
 7071SOL     OW23109   3.914   0.791   3.338
 7071SOL    HW123110   3.922   0.697   3.324
 7071SOL    HW223111   3.858   0.800   3.415
 7072SOL     OW23112  12.288   2.415   5.267
 7072SOL    HW123113  12.192   2.413   5.276
 7072SOL    HW223114  12.305   2.382   5.179
 7073SOL     OW23115   1.906   6.631  10.899
 7073SOL    HW123116   1.905   6.724  10.878
 7073SOL    HW223117   1.848   6.623  10.976
 7074SOL     OW23118   8.602  10.386  11.003
 7074SOL    HW123119   8.566  10.317  10.947
 7074SOL    HW223120   8.548  10.384  11.081
 7075SOL     OW23121   9.778   4.578  13.177
 7075SOL    HW123122   9.771   4.652  13.116
 7075SOL    HW223123   9.778   4.500  13.120
 7076SOL     OW23124   7.622   2.605  13.472
 7076SOL    HW123125   7.545   2.559  13.438
 7076SOL    HW223126   7.604   2.617  13.565
 7077SOL     OW23127   4.560   8.153   1.223
 7077SOL    HW123128   4.612   8.093   1.168
 7077SOL    HW223129   4.508   8.095   1.279
 7078SOL     OW23130   4.248   1.574  11.929
 7078SOL    HW123131   4.269   1.666  11.944
 7078SOL    HW223132   4.260   1.561  11.835
 7079SOL     OW23133   3.697   2.223   1.947
 7079SOL    HW123134   3.615   2.251   1.987
 7079SOL    HW223135   3.758   2.294   1.967
 7080SOL     OW23136   1.428  12.765  10.108
 7080SOL    HW123137   1.511  12.788  10.067
 7080SOL    HW223138   1.362  12.784  10.042
 7081SOL     OW23139  13.711   5.711   4.293
 7081SOL    HW123140  13.786   5.702   4.351
 7081SOL    HW223141  13.637   5.730   4.351
 7082SOL     OW23142  11.831   0.384  10.427
 7082SOL    HW123143  11.770   0.352  10.494
 7082SOL    HW223144  11.904   0.422  10.477
 7083SOL     OW23145   4.308  10.570   0.602
 7083SOL    HW123146   4.284  10.663   0.604
 7083SOL    HW223147   4.233  10.526   0.642
 7084SOL     OW23148  11.055   6.899  12.083
 7084SOL    HW123149  11.098   6.868  12.004
 7084SOL    HW223150  11.017   6.821  12.122
 7085SOL     OW23151  12.254  11.357   7.734
 7085SOL    HW123152  12.297  11.323   7.656
 7085SOL    HW223153  12.231  11.279   7.785
 7086SOL     OW23154   5.752  12.669   1.748
 7086SOL    HW123155   5.682  12.671   1.682
 7086SOL    HW223156   5.802  12.749   1.733
 7087SOL     OW23157   7.173  11.954   1.613
 7087SOL    HW123158   7.144  11.884   1.554
 7087SOL    HW223159   7.182  12.031   1.557
 7088SOL     OW23160   6.259   2.829   1.973
 7088SOL    HW123161   6.305   2.905   1.935
 7088SOL    HW223162   6.257   2.848   2.067
 7089SOL     OW23163   8.879   0.063   7.911
 7089SOL    HW123164   8.929   0.019   7.980
 7089SOL    HW223165   8.791   0.026   7.917
 7090SOL     OW23166   3.776  12.540  12.146
 7090SOL    HW123167   3.745  12.536  12.055
 7090SOL    HW223168   3.823  12.458  12.159
 7091SOL     OW23169   3.162   3.429   6.756
 7091SOL    HW123170   3.239   3.440   6.701
 7091SOL    HW223171   3.109   3.508   6.738
 7092SOL     OW23172  11.735   9.273   4.267
 7092SOL    HW123173  11.796   9.263   4.341
 7092SOL    HW223174  11.789   9.310   4.197
 7093SOL     OW23175   7.112   4.995  11.806
 7093SOL    HW123176   7.133   5.011  11.898
 7093SOL    HW223177   7.145   5.073  11.760
 7094SOL     OW23178   1.727   5.041   5.012
 7094SOL    HW123179   1.803   5.099   5.010
 7094SOL    HW223180   1.760   4.959   5.049
 7095SOL     OW23181   7.679   0.808   3.591
 7095SOL    HW123182   7.613   0.753   3.632
 7095SOL    HW223183   7.756   0.751   3.584
 7096SOL     OW23184   0.042  11.030   3.966
 7096SOL    HW123185  14.853  11.072   4.026
 7096SOL    HW223186  14.859  10.983   3.904
 7097SOL     OW23187   6.200   1.043   9.536
 7097SOL    HW123188   6.175   1.008   9.622
 7097SOL    HW223189   6.205   1.137   9.549
 7098SOL     OW23190  13.847   7.042  10.382
 7098SOL    HW123191  13.847   7.137  10.373
 7098SOL    HW223192  13.822   7.026  10.473
 7099SOL     OW23193  10.066  10.934   4.383
 7099SOL    HW123194  10.116  10.929   4.465
 7099SOL    HW223195  10.061  11.027   4.363
 7100SOL     OW23196   5.084   3.497   5.603
 7100SOL    HW123197   5.089   3.446   5.521
 7100SOL    HW223198   5.094   3.431   5.672
 7101SOL     OW23199   8.743  14.640   4.011
 7101SOL    HW123200   8.740  14.568   3.949
 7101SOL    HW223201   8.652  14.654   4.037
 7102SOL     OW23202   6.852   8.308   7.378
 7102SOL    HW123203   6.891   8.356   7.452
 7102SOL    HW223204   6.921   8.248   7.350
 7103SOL     OW23205   7.866   9.733   3.869
 7103SOL    HW123206   7.902   9.789   3.939
 7103SOL    HW223207   7.813   9.792   3.816
 7104SOL     OW23208   8.274  13.245   8.313
 7104SOL    HW123209   8.218  13.288   8.248
 7104SOL    HW223210   8.220  13.244   8.393
 7105SOL     OW23211   9.669   0.028   2.327
 7105SOL    HW123212   9.735   0.096   2.317
 7105SOL    HW223213   9.660   0.018   2.422
 7106SOL     OW23214  11.927  13.414  14.630
 7106SOL    HW123215  12.022  13.400  14.634
 7106SOL    HW223216  11.914  13.474  14.556
 7107SOL     OW23217  14.856  14.868   4.868
 7107SOL    HW123218   0.058   0.047   4.898
 7107SOL    HW223219  14.799  14.859   4.945
 7108SOL     OW23220   5.545  12.882   0.602
 7108SOL    HW123221   5.601  12.886   0.680
 7108SOL    HW223222   5.573  12.957   0.549
 7109SOL     OW23223  12.126   1.692  13.744
 7109SOL    HW123224  12.166   1.674  13.659
 7109SOL    HW223225  12.039   1.726  13.721
 7110SOL     OW23226   8.351   2.243   4.118
 7110SOL    HW123227   8.312   2.185   4.184
 7110SOL    HW223228   8.386   2.316   4.168
 7111SOL     OW23229  11.916   7.165   7.415
 7111SOL    HW123230  11.886   7.088   7.368
 7111SOL    HW223231  11.850   7.232   7.396
 7112SOL     OW23232   2.943   9.488   2.138
 7112SOL    HW123233   2.918   9.443   2.219
 7112SOL    HW223234   3.020   9.539   2.163
 7113SOL     OW23235   2.299   4.928  14.178
 7113SOL    HW123236   2.263   4.840  14.185
 7113SOL    HW223237   2.318   4.940  14.085
 7114SOL     OW23238   9.731  14.573   8.158
 7114SOL    HW123239   9.644  14.537   8.141
 7114SOL    HW223240   9.730  14.593   8.251
 7115SOL     OW23241  12.989   5.925   1.388
 7115SOL    HW123242  12.899   5.955   1.377
 7115SOL    HW223243  13.025   5.927   1.299
 7116SOL     OW23244   1.722  11.401   6.144
 7116SOL    HW123245   1.729  11.358   6.059
 7116SOL    HW223246   1.804  11.381   6.188
 7117SOL     OW23247   4.345   0.135   4.266
 7117SOL    HW123248   4.415   0.103   4.209
 7117SOL    HW223249   4.340   0.229   4.247
 7118SOL     OW23250  10.463  12.227  10.638
 7118SOL    HW123251  10.552  12.235  10.603
 7118SOL    HW223252  10.426  12.315  10.628
 7119SOL     OW23253  10.059  11.244   4.889
 7119SOL    HW123254   9.967  11.222   4.873
 7119SOL    HW223255  10.101  11.236   4.803
 7120SOL     OW23256   3.353   9.087  12.190
 7120SOL    HW123257   3.307   9.069  12.107
 7120SOL    HW223258   3.340   9.007  12.242
 7121SOL     OW23259   1.279   0.694   4.265
 7121SOL    HW123260   1.201   0.676   4.213
 7121SOL    HW223261   1.348   0.711   4.200
 7122SOL     OW23262   4.804   3.039   8.822
 7122SOL    HW123263   4.871   3.060   8.757
 7122SOL    HW223264   4.810   3.111   8.886
 7123SOL     OW23265   9.032  10.632  10.954
 7123SOL    HW123266   9.107  10.576  10.977
 7123SOL    HW223267   8.956  10.583  10.985
 7124SOL     OW23268   3.156   4.018  10.784
 7124SOL    HW123269   3.229   3.962  10.810
 7124SOL    HW223270   3.105   4.029  10.864
 7125SOL     OW23271  12.221  12.810  14.333
 7125SOL    HW123272  12.305  12.800  14.289
 7125SOL    HW223273  12.174  12.728  14.314
 7126SOL     OW23274  12.506  14.784   8.845
 7126SOL    HW123275  12.534  14.745   8.928
 7126SOL    HW223276  12.465  14.712   8.798
 7127SOL     OW23277   4.864   6.291   0.944
 7127SOL    HW123278   4.782   6.339   0.930
 7127SOL    HW223279   4.884   6.252   0.859
 7128SOL     OW23280   2.994  13.695   4.421
 7128SOL    HW123281   3.022  13.713   4.511
 7128SOL    HW223282   3.027  13.768   4.370
 7129SOL     OW23283   5.776   2.313   5.377
 7129SOL    HW123284   5.833   2.383   5.407
 7129SOL    HW223285   5.794   2.239   5.435
 7130SOL     OW23286  13.424   0.124  12.482
 7130SOL    HW123287  13.375   0.199  12.448
 7130SOL    HW223288  13.419   0.058  12.412
 7131SOL     OW23289   3.053   5.304  11.764
 7131SOL    HW123290   3.043   5.349  11.848
 7131SOL    HW223291   3.007   5.221  11.776
 7132SOL     OW23292   4.774   3.237   8.984
 7132SOL    HW123293   4.841   3.306   8.979
 7132SOL    HW223294   4.762   3.222   9.078
 7133SOL     OW23295   8.356   7.700   8.563
 7133SOL    HW123296   8.281   7.655   8.525
 7133SOL    HW223297   8.332   7.792   8.564
 7134SOL     OW23298  13.168   5.224   3.877
 7134SOL    HW123299  13.181   5.250   3.786
 7134SOL    HW223300  13.124   5.299   3.918
 7135SOL     OW23301   6.698  11.947   6.478
 7135SOL    HW123302   6.665  11.992   6.556
 7135SOL    HW223303   6.782  11.911   6.506
 7136SOL     OW23304   3.986   4.080  10.733
 7136SOL    HW123305   4.020   4.127  10.810
 7136SOL    HW223306   3.935   4.146  10.686
 7137SOL     OW23307   1.310   8.151   3.720
 7137SOL    HW123308   1.336   8.119   3.806
 7137SOL    HW223309   1.218   8.174   3.730
 7138SOL     OW23310   4.273   9.541   0.972
 7138SOL    HW123311   4.266   9.570   0.881
 7138SOL    HW223312   4.197   9.580   1.015
 7139SOL     OW23313   6.372  13.220  14.708
 7139SOL    HW123314   6.397  13.151  14.770
 7139SOL    HW223315   6.357  13.297  14.764
 7140SOL     OW23316   4.638  12.184   7.935
 7140SOL    HW123317   4.712  12.132   7.966
 7140SOL    HW223318   4.641  12.263   7.990
 7141SOL     OW23319   4.338  10.554   0.989
 7141SOL    HW123320   4.263  10.536   1.047
 7141SOL    HW223321   4.375  10.468   0.972
 7142SOL     OW23322   1.986  13.423   8.675
 7142SOL    HW123323   1.964  13.381   8.592
 7142SOL    HW223324   1.925  13.386   8.738
 7143SOL     OW23325   6.594   8.034   6.915
 7143SOL    HW123326   6.506   8.047   6.951
 7143SOL    HW223327   6.580   8.018   6.822
 7144SOL     OW23328   4.269  10.583   9.748
 7144SOL    HW123329   4.316  10.552   9.671
 7144SOL    HW223330   4.195  10.632   9.714
 7145SOL     OW23331  14.407   1.555   7.822
 7145SOL    HW123332  14.489   1.521   7.787
 7145SOL    HW223333  14.348   1.480   7.824
 7146SOL     OW23334  11.381   6.324  14.324
 7146SOL    HW123335  11.470   6.301  14.350
 7146SOL    HW223336  11.331   6.319  14.406
 7147SOL     OW23337   8.961   8.698  10.830
 7147SOL    HW123338   9.002   8.629  10.777
 7147SOL    HW223339   8.869   8.697  10.803
 7148SOL     OW23340  12.142   4.217  14.004
 7148SOL    HW123341  12.165   4.180  13.919
 7148SOL    HW223342  12.047   4.228  14.000
 7149SOL     OW23343   4.785  12.878  12.285
 7149SOL    HW123344   4.835  12.799  12.263
 7149SOL    HW223345   4.846  12.950  12.269
 7150SOL     OW23346  10.130   9.012   9.802
 7150SOL    HW123347  10.185   8.976   9.871
 7150SOL    HW223348  10.176   8.992   9.720
 7151SOL     OW23349   7.198   2.739   9.657
 7151SOL    HW123350   7.284   2.700   9.648
 7151SOL    HW223351   7.184   2.788   9.576
 7152SOL     OW23352   4.533   5.233   6.590
 7152SOL    HW123353   4.542   5.250   6.496
 7152SOL    HW223354   4.601   5.169   6.609
 7153SOL     OW23355  13.238   9.749  14.872
 7153SOL    HW123356  13.256   9.801   0.079
 7153SOL    HW223357  13.293   9.671   0.009
 7154SOL     OW23358  11.483   6.655   6.863
 7154SOL    HW123359  11.572   6.662   6.897
 7154SOL    HW223360  11.494   6.636   6.770
 7155SOL     OW23361  11.040  10.372   1.291
 7155SOL    HW123362  11.004  10.299   1.240
 7155SOL    HW223363  10.964  10.425   1.314
 7156SOL     OW23364   6.291  13.874  11.052
 7156SOL    HW123365   6.280  13.946  11.114
 7156SOL    HW223366   6.327  13.802  11.103
 7157SOL     OW23367   2.200   4.540  13.183
 7157SOL    HW123368   2.127   4.552  13.244
 7157SOL    HW223369   2.193   4.448  13.156
 7158SOL     OW23370  11.703  14.617  13.084
 7158SOL    HW123371  11.792  14.648  13.104
 7158SOL    HW223372  11.646  14.684  13.122
 7159SOL     OW23373   6.916   4.467   0.097
 7159SOL    HW123374   6.947   4.453   0.187
 7159SOL    HW223375   6.879   4.555   0.099
 7160SOL     OW23376   3.326   4.293   6.818
 7160SOL    HW123377   3.328   4.302   6.723
 7160SOL    HW223378   3.257   4.353   6.847
 7161SOL     OW23379   3.245  13.928  11.444
 7161SOL    HW123380   3.281  13.945  11.357
 7161SOL    HW223381   3.298  13.855  11.477
 7162SOL     OW23382   7.136   8.498   9.955
 7162SOL    HW123383   7.058   8.454   9.921
 7162SOL    HW223384   7.107   8.587   9.975
 7163SOL     OW23385  10.175   3.255  12.584
 7163SOL    HW123386  10.149   3.293  12.667
 7163SOL    HW223387  10.132   3.310  12.518
 7164SOL     OW23388   3.860   8.465   7.960
 7164SOL    HW123389   3.807   8.407   8.015
 7164SOL    HW223390   3.932   8.410   7.930
 7165SOL     OW23391  10.341  12.308   1.932
 7165SOL    HW123392  10.342  12.391   1.885
 7165SOL    HW223393  10.429  12.272   1.920
 7166SOL     OW23394   0.840   2.903   4.748
 7166SOL    HW123395   0.838   2.983   4.801
 7166SOL    HW223396   0.929   2.899   4.713
 7167SOL     OW23397   7.722   2.806   9.582
 7167SOL    HW123398   7.756   2.734   9.635
 7167SOL    HW223399   7.786   2.877   9.593
 7168SOL     OW23400   3.594  13.540   8.305
 7168SOL    HW123401   3.678  13.500   8.328
 7168SOL    HW223402   3.600  13.629   8.340
 7169SOL     OW23403   3.128   2.168  12.592
 7169SOL    HW123404   3.169   2.254  12.581
 7169SOL    HW223405   3.192   2.106  12.557
 7170SOL     OW23406   4.200   2.178   8.268
 7170SOL    HW123407   4.282   2.222   8.286
 7170SOL    HW223408   4.163   2.225   8.193
 7171SOL     OW23409   6.946   3.386   7.882
 7171SOL    HW123410   6.925   3.297   7.909
 7171SOL    HW223411   6.973   3.377   7.790
 7172SOL     OW23412  13.504   1.676   0.293
 7172SOL    HW123413  13.482   1.592   0.333
 7172SOL    HW223414  13.599   1.684   0.302
 7173SOL     OW23415  13.015  12.737  10.401
 7173SOL    HW123416  13.083  12.793  10.364
 7173SOL    HW223417  13.003  12.668  10.336
 7174SOL     OW23418   7.603  11.253   0.888
 7174SOL    HW123419   7.550  11.311   0.943
 7174SOL    HW223420   7.561  11.255   0.802
 7175SOL     OW23421   1.456  14.281   2.750
 7175SOL    HW123422   1.373  14.330   2.753
 7175SOL    HW223423   1.429  14.190   2.738
 7176SOL     OW23424   8.864   7.159   4.867
 7176SOL    HW123425   8.853   7.207   4.949
 7176SOL    HW223426   8.958   7.148   4.858
 7177SOL     OW23427   9.837  14.383   4.325
 7177SOL    HW123428   9.895  14.332   4.268
 7177SOL    HW223429   9.802  14.452   4.268
 7178SOL     OW23430   9.948   2.110   7.759
 7178SOL    HW123431   9.936   2.202   7.733
 7178SOL    HW223432  10.041   2.093   7.743
 7179SOL     OW23433   8.248  12.277   3.062
 7179SOL    HW123434   8.221  12.185   3.069
 7179SOL    HW223435   8.311  12.277   2.990
 7180SOL     OW23436   9.147   5.094   0.085
 7180SOL    HW123437   9.130   5.165   0.024
 7180SOL    HW223438   9.097   5.118   0.163
 7181SOL     OW23439  12.549  14.207   7.227
 7181SOL    HW123440  12.640  14.187   7.245
 7181SOL    HW223441  12.541  14.201   7.132
 7182SOL     OW23442   3.944   0.693   4.802
 7182SOL    HW123443   4.010   0.658   4.742
 7182SOL    HW223444   3.993   0.718   4.880
 7183SOL     OW23445  13.969  11.526   6.143
 7183SOL    HW123446  13.942  11.579   6.067
 7183SOL    HW223447  13.956  11.584   6.218
 7184SOL     OW23448   5.886   1.086  10.546
 7184SOL    HW123449   5.835   1.115  10.622
 7184SOL    HW223450   5.869   0.992  10.541
 7185SOL     OW23451   1.391   1.123   8.037
 7185SOL    HW123452   1.360   1.151   7.951
 7185SOL    HW223453   1.368   1.195   8.095
 7186SOL     OW23454  13.455   0.548   6.780
 7186SOL    HW123455  13.504   0.624   6.748
 7186SOL    HW223456  13.429   0.573   6.869
 7187SOL     OW23457  13.446   9.171  11.903
 7187SOL    HW123458  13.366   9.181  11.851
 7187SOL    HW223459  13.453   9.253  11.952
 7188SOL     OW23460  14.282  11.564  14.847
 7188SOL    HW123461  14.212  11.506   0.005
 7188SOL    HW223462  14.245  11.609  14.772
 7189SOL     OW23463  10.781  10.087   6.611
 7189SOL    HW123464  10.861  10.135   6.590
 7189SOL    HW223465  10.716  10.154   6.628
 7190SOL     OW23466   0.921   1.838   4.159
 7190SOL    HW123467   0.943   1.805   4.247
 7190SOL    HW223468   0.834   1.801   4.142
 7191SOL     OW23469   2.752   1.965   2.204
 7191SOL    HW123470   2.770   1.903   2.275
 7191SOL    HW223471   2.831   2.019   2.199
 7192SOL     OW23472  11.343   1.273  11.569
 7192SOL    HW123473  11.325   1.317  11.652
 7192SOL    HW223474  11.424   1.225  11.584
 7193SOL     OW23475   5.302  11.559   8.141
 7193SOL    HW123476   5.270  11.488   8.085
 7193SOL    HW223477   5.330  11.515   8.221
 7194SOL     OW23478   3.665   7.116  13.138
 7194SOL    HW123479   3.751   7.129  13.099
 7194SOL    HW223480   3.622   7.201  13.130
 7195SOL     OW23481  11.323   0.630  13.102
 7195SOL    HW123482  11.332   0.675  13.018
 7195SOL    HW223483  11.301   0.700  13.164
 7196SOL     OW23484   5.102   8.547   8.701
 7196SOL    HW123485   5.029   8.577   8.646
 7196SOL    HW223486   5.177   8.543   8.642
 7197SOL     OW23487   4.420  10.005   9.815
 7197SOL    HW123488   4.466  10.068   9.761
 7197SOL    HW223489   4.339   9.986   9.767
 7198SOL     OW23490   8.524  11.347  13.096
 7198SOL    HW123491   8.541  11.296  13.017
 7198SOL    HW223492   8.505  11.435  13.064
 7199SOL     OW23493  10.846  10.547  10.600
 7199SOL    HW123494  10.778  10.491  10.561
 7199SOL    HW223495  10.869  10.503  10.682
 7200SOL     OW23496   3.902   2.544   6.632
 7200SOL    HW123497   3.950   2.504   6.705
 7200SOL    HW223498   3.963   2.540   6.558
 7201SOL     OW23499  12.866   4.229   2.707
 7201SOL    HW123500  12.885   4.322   2.695
 7201SOL    HW223501  12.815   4.224   2.788
 7202SOL     OW23502   2.988   9.984   0.630
 7202SOL    HW123503   2.940  10.010   0.551
 7202SOL    HW223504   3.005   9.891   0.618
 7203SOL     OW23505  13.088   0.834  13.515
 7203SOL    HW123506  13.151   0.896  13.480
 7203SOL    HW223507  13.003   0.878  13.506
 7204SOL     OW23508  11.511   3.301   8.392
 7204SOL    HW123509  11.455   3.366   8.435
 7204SOL    HW223510  11.600   3.332   8.407
 7205SOL     OW23511   9.493   6.696   8.626
 7205SOL    HW123512   9.467   6.703   8.718
 7205SOL    HW223513   9.589   6.687   8.629
 7206SOL     OW23514   3.470   0.536   0.256
 7206SOL    HW123515   3.529   0.509   0.327
 7206SOL    HW223516   3.520   0.520   0.176
 7207SOL     OW23517   8.743  14.537   8.578
 7207SOL    HW123518   8.729  14.611   8.519
 7207SOL    HW223519   8.836  14.518   8.572
 7208SOL     OW23520   0.555   6.018   0.271
 7208SOL    HW123521   0.593   6.092   0.224
 7208SOL    HW223522   0.549   6.047   0.362
 7209SOL     OW23523  10.392   4.058   6.386
 7209SOL    HW123524  10.345   4.025   6.310
 7209SOL    HW223525  10.463   4.111   6.350
 7210SOL     OW23526  13.800   9.002   7.526
 7210SOL    HW123527  13.746   9.076   7.500
 7210SOL    HW223528  13.777   8.932   7.465
 7211SOL     OW23529   6.085   6.280  12.569
 7211SOL    HW123530   6.138   6.337  12.625
 7211SOL    HW223531   6.004   6.266  12.618
 7212SOL     OW23532  11.067  10.368   8.878
 7212SOL    HW123533  11.033  10.280   8.868
 7212SOL    HW223534  11.040  10.413   8.798
 7213SOL     OW23535   1.841   7.852   3.086
 7213SOL    HW123536   1.788   7.907   3.143
 7213SOL    HW223537   1.863   7.776   3.140
 7214SOL     OW23538  13.263   0.378  13.132
 7214SOL    HW123539  13.201   0.305  13.133
 7214SOL    HW223540  13.225   0.442  13.072
 7215SOL     OW23541   9.050  12.167   0.256
 7215SOL    HW123542   9.110  12.206   0.320
 7215SOL    HW223543   9.103  12.100   0.211
 7216SOL     OW23544   9.478   1.895  12.736
 7216SOL    HW123545   9.421   1.962  12.698
 7216SOL    HW223546   9.564   1.937  12.739
 7217SOL     OW23547   9.589  12.134  10.730
 7217SOL    HW123548   9.497  12.156  10.741
 7217SOL    HW223549   9.616  12.098  10.814
 7218SOL     OW23550   0.524   6.491   0.218
 7218SOL    HW123551   0.454   6.444   0.262
 7218SOL    HW223552   0.519   6.463   0.127
 7219SOL     OW23553   1.032   3.095   5.488
 7219SOL    HW123554   0.946   3.114   5.451
 7219SOL    HW223555   1.044   3.001   5.474
 7220SOL     OW23556   0.320   0.268  12.215
 7220SOL    HW123557   0.262   0.272  12.139
 7220SOL    HW223558   0.262   0.273  12.290
 7221SOL     OW23559  13.293   6.089  13.189
 7221SOL    HW123560  13.287   5.994  13.178
 7221SOL    HW223561  13.243   6.124  13.116
 7222SOL     OW23562   2.419  11.241   9.669
 7222SOL    HW123563   2.334  11.236   9.713
 7222SOL    HW223564   2.481  11.208   9.733
 7223SOL     OW23565   9.768   9.826   9.829
 7223SOL    HW123566   9.745   9.745   9.784
 7223SOL    HW223567   9.862   9.837   9.811
 7224SOL     OW23568   7.616  13.330   8.559
 7224SOL    HW123569   7.593  13.290   8.643
 7224SOL    HW223570   7.670  13.265   8.515
 7225SOL     OW23571   6.536   2.379  14.775
 7225SOL    HW123572   6.564   2.390  14.684
 7225SOL    HW223573   6.533   2.468  14.810
 7226SOL     OW23574  11.193  10.014  14.674
 7226SOL    HW123575  11.248  10.030  14.597
 7226SOL    HW223576  11.243  10.050  14.747
 7227SOL     OW23577   9.715   1.638   6.599
 7227SOL    HW123578   9.700   1.699   6.671
 7227SOL    HW223579   9.628   1.609   6.574
 7228SOL     OW23580   8.599  12.722   4.140
 7228SOL    HW123581   8.564  12.779   4.208
 7228SOL    HW223582   8.584  12.769   4.058
 7229SOL     OW23583   4.721   1.926   5.608
 7229SOL    HW123584   4.711   1.976   5.689
 7229SOL    HW223585   4.753   1.840   5.637
 7230SOL     OW23586  10.461   2.311  12.350
 7230SOL    HW123587  10.539   2.278  12.394
 7230SOL    HW223588  10.420   2.233  12.312
 7231SOL     OW23589   2.479  11.487   1.675
 7231SOL    HW123590   2.488  11.423   1.746
 7231SOL    HW223591   2.547  11.552   1.693
 7232SOL     OW23592   4.105  13.230   1.142
 7232SOL    HW123593   4.189  13.185   1.144
 7232SOL    HW223594   4.048  13.172   1.090
 7233SOL     OW23595   7.838   8.032   8.942
 7233SOL    HW123596   7.819   7.945   8.908
 7233SOL    HW223597   7.774   8.046   9.011
 7234SOL     OW23598   4.607  11.043   6.268
 7234SOL    HW123599   4.668  10.973   6.247
 7234SOL    HW223600   4.591  11.034   6.362
 7235SOL     OW23601  14.571   3.928  13.548
 7235SOL    HW123602  14.536   3.851  13.593
 7235SOL    HW223603  14.503   3.951  13.485
 7236SOL     OW23604   4.451  13.482  12.180
 7236SOL    HW123605   4.511  13.419  12.139
 7236SOL    HW223606   4.373  13.479  12.125
 7237SOL     OW23607  12.218  13.070   1.079
 7237SOL    HW123608  12.174  13.048   0.998
 7237SOL    HW223609  12.311  13.058   1.060
 7238SOL     OW23610   4.652  11.121   1.364
 7238SOL    HW123611   4.741  11.136   1.334
 7238SOL    HW223612   4.599  11.185   1.316
 7239SOL     OW23613   1.847   9.976   9.361
 7239SOL    HW123614   1.840  10.035   9.286
 7239SOL    HW223615   1.847   9.888   9.323
 7240SOL     OW23616  14.358  13.925  11.931
 7240SOL    HW123617  14.345  13.841  11.887
 7240SOL    HW223618  14.297  13.985  11.888
 7241SOL     OW23619   0.025   6.505   2.762
 7241SOL    HW123620  14.808   6.474   2.746
 7241SOL    HW223621   0.021   6.600   2.747
 7242SOL     OW23622  12.016  12.275   0.747
 7242SOL    HW123623  12.004  12.180   0.742
 7242SOL    HW223624  11.937  12.307   0.791
 7243SOL     OW23625   1.997  10.706   3.342
 7243SOL    HW123626   1.959  10.696   3.429
 7243SOL    HW223627   2.072  10.648   3.341
 7244SOL     OW23628   1.966   5.062  13.481
 7244SOL    HW123629   1.954   5.102  13.395
 7244SOL    HW223630   1.985   5.136  13.539
 7245SOL     OW23631   2.138  12.041  10.872
 7245SOL    HW123632   2.135  12.132  10.901
 7245SOL    HW223633   2.123  11.991  10.952
 7246SOL     OW23634   2.690   6.381  14.818
 7246SOL    HW123635   2.628   6.453  14.829
 7246SOL    HW223636   2.698   6.371  14.723
 7247SOL     OW23637   9.290   3.070   0.666
 7247SOL    HW123638   9.353   3.137   0.694
 7247SOL    HW223639   9.224   3.119   0.617
 7248SOL     OW23640   5.297   6.461   0.539
 7248SOL    HW123641   5.358   6.530   0.568
 7248SOL    HW223642   5.222   6.509   0.504
 7249SOL     OW23643  13.597   0.478   7.547
 7249SOL    HW123644  13.581   0.456   7.456
 7249SOL    HW223645  13.670   0.421   7.573
 7250SOL     OW23646   2.577   5.662   8.381
 7250SOL    HW123647   2.532   5.655   8.464
 7250SOL    HW223648   2.564   5.577   8.339
 7251SOL     OW23649   6.196   5.285   2.153
 7251SOL    HW123650   6.248   5.215   2.114
 7251SOL    HW223651   6.106   5.263   2.131
 7252SOL     OW23652   8.648   4.123  11.689
 7252SOL    HW123653   8.586   4.092  11.623
 7252SOL    HW223654   8.595   4.177  11.748
 7253SOL     OW23655   2.562   7.441   0.396
 7253SOL    HW123656   2.635   7.395   0.355
 7253SOL    HW223657   2.496   7.373   0.412
 7254SOL     OW23658   3.463   4.737   0.477
 7254SOL    HW123659   3.425   4.729   0.389
 7254SOL    HW223660   3.554   4.762   0.461
 7255SOL     OW23661  10.683   7.785   4.863
 7255SOL    HW123662  10.610   7.843   4.842
 7255SOL    HW223663  10.641   7.705   4.896
 7256SOL     OW23664   9.343   5.091  13.875
 7256SOL    HW123665   9.259   5.087  13.828
 7256SOL    HW223666   9.319   5.121  13.963
 7257SOL     OW23667   0.025  11.975   5.431
 7257SOL    HW123668  14.830  11.933   5.377
 7257SOL    HW223669   0.017  12.068   5.411
 7258SOL     OW23670   1.705   1.120  11.057
 7258SOL    HW123671   1.630   1.077  11.098
 7258SOL    HW223672   1.684   1.122  10.963
 7259SOL     OW23673   5.239   5.703  13.942
 7259SOL    HW123674   5.301   5.727  14.010
 7259SOL    HW223675   5.217   5.786  13.899
 7260SOL     OW23676   6.725  14.396   1.782
 7260SOL    HW123677   6.663  14.426   1.715
 7260SOL    HW223678   6.699  14.306   1.800
 7261SOL     OW23679   2.346   9.497   4.830
 7261SOL    HW123680   2.309   9.428   4.886
 7261SOL    HW223681   2.288   9.572   4.842
 7262SOL     OW23682   0.532   9.019  13.477
 7262SOL    HW123683   0.533   9.066  13.394
 7262SOL    HW223684   0.473   8.945  13.463
 7263SOL     OW23685  12.022  10.271  10.968
 7263SOL    HW123686  11.993  10.362  10.981
 7263SOL    HW223687  12.117  10.278  10.954
 7264SOL     OW23688   5.118   5.631  12.692
 7264SOL    HW123689   5.138   5.610  12.601
 7264SOL    HW223690   5.053   5.701  12.686
 7265SOL     OW23691  14.113  12.034   7.891
 7265SOL    HW123692  14.041  11.975   7.867
 7265SOL    HW223693  14.070  12.117   7.910
 7266SOL     OW23694  12.011   2.627   4.550
 7266SOL    HW123695  12.038   2.541   4.580
 7266SOL    HW223696  11.921   2.637   4.581
 7267SOL     OW23697  11.225   7.497  13.199
 7267SOL    HW123698  11.136   7.513  13.230
 7267SOL    HW223699  11.268   7.452  13.272
 7268SOL     OW23700  12.969  10.828   8.906
 7268SOL    HW123701  13.061  10.810   8.924
 7268SOL    HW223702  12.922  10.764   8.959
 7269SOL     OW23703  11.714  10.498   1.415
 7269SOL    HW123704  11.803  10.531   1.431
 7269SOL    HW223705  11.680  10.554   1.346
 7270SOL     OW23706   3.574  10.585   2.174
 7270SOL    HW123707   3.612  10.529   2.241
 7270SOL    HW223708   3.643  10.593   2.108
 7271SOL     OW23709  10.348   8.790   1.367
 7271SOL    HW123710  10.440   8.775   1.386
 7271SOL    HW223711  10.346   8.822   1.277
 7272SOL     OW23712  10.459   0.139  10.211
 7272SOL    HW123713  10.420   0.110  10.294
 7272SOL    HW223714  10.505   0.220  10.232
 7273SOL     OW23715  13.034   3.093   0.754
 7273SOL    HW123716  12.971   3.162   0.733
 7273SOL    HW223717  13.025   3.030   0.682
 7274SOL     OW23718   9.542   8.605   7.801
 7274SOL    HW123719   9.477   8.675   7.814
 7274SOL    HW223720   9.490   8.527   7.781
 7275SOL     OW23721  12.229  14.196  13.840
 7275SOL    HW123722  12.286  14.266  13.809
 7275SOL    HW223723  12.186  14.164  13.760
 7276SOL     OW23724   6.916   1.334   4.155
 7276SOL    HW123725   6.848   1.399   4.171
 7276SOL    HW223726   6.933   1.340   4.061
 7277SOL     OW23727   0.965   6.748   2.311
 7277SOL    HW123728   0.915   6.673   2.280
 7277SOL    HW223729   1.000   6.789   2.232
 7278SOL     OW23730   0.750   6.315   5.572
 7278SOL    HW123731   0.823   6.265   5.535
 7278SOL    HW223732   0.745   6.284   5.663
 7279SOL     OW23733  12.843  14.545   7.681
 7279SOL    HW123734  12.800  14.469   7.721
 7279SOL    HW223735  12.771  14.596   7.644
 7280SOL     OW23736   5.610   7.913   0.313
 7280SOL    HW123737   5.637   7.973   0.244
 7280SOL    HW223738   5.673   7.840   0.307
 7281SOL     OW23739  14.584   3.023   1.171
 7281SOL    HW123740  14.639   3.099   1.151
 7281SOL    HW223741  14.644   2.949   1.170
 7282SOL     OW23742   5.904   4.078   1.475
 7282SOL    HW123743   5.890   3.985   1.492
 7282SOL    HW223744   5.881   4.089   1.382
 7283SOL     OW23745  10.950  13.324   2.115
 7283SOL    HW123746  10.908  13.409   2.106
 7283SOL    HW223747  11.039  13.337   2.082
 7284SOL     OW23748   7.215   7.889  13.828
 7284SOL    HW123749   7.170   7.823  13.774
 7284SOL    HW223750   7.298   7.904  13.783
 7285SOL     OW23751  13.128   4.893  12.129
 7285SOL    HW123752  13.081   4.839  12.193
 7285SOL    HW223753  13.060   4.946  12.088
 7286SOL     OW23754  10.793   7.715   9.956
 7286SOL    HW123755  10.792   7.796   9.906
 7286SOL    HW223756  10.874   7.719  10.007
 7287SOL     OW23757   9.857   6.060  11.146
 7287SOL    HW123758   9.949   6.055  11.171
 7287SOL    HW223759   9.811   6.009  11.212
 7288SOL     OW23760   7.961   1.678   5.380
 7288SOL    HW123761   7.986   1.592   5.348
 7288SOL    HW223762   8.019   1.694   5.454
 7289SOL     OW23763   4.117  13.065   6.832
 7289SOL    HW123764   4.177  13.007   6.879
 7289SOL    HW223765   4.131  13.043   6.740
 7290SOL     OW23766  10.534   6.422   0.058
 7290SOL    HW123767  10.485   6.472   0.123
 7290SOL    HW223768  10.505   6.456  14.846
 7291SOL     OW23769   0.698  11.727   3.301
 7291SOL    HW123770   0.606  11.753   3.311
 7291SOL    HW223771   0.729  11.711   3.390
 7292SOL     OW23772  13.755   6.077   9.534
 7292SOL    HW123773  13.811   6.131   9.477
 7292SOL    HW223774  13.697   6.140   9.577
 7293SOL     OW23775  13.268   4.596   7.628
 7293SOL    HW123776  13.218   4.656   7.573
 7293SOL    HW223777  13.325   4.654   7.679
 7294SOL     OW23778   2.560   8.192   0.313
 7294SOL    HW123779   2.653   8.200   0.334
 7294SOL    HW223780   2.516   8.192   0.398
 7295SOL     OW23781   2.552   3.898   2.316
 7295SOL    HW123782   2.602   3.972   2.284
 7295SOL    HW223783   2.461   3.917   2.290
 7296SOL     OW23784   0.585  14.847  13.214
 7296SOL    HW123785   0.535   0.052  13.241
 7296SOL    HW223786   0.672  14.860  13.251
 7297SOL     OW23787  10.053   6.383  10.179
 7297SOL    HW123788   9.994   6.440  10.129
 7297SOL    HW223789  10.091   6.324  10.114
 7298SOL     OW23790  13.301  12.565   4.883
 7298SOL    HW123791  13.371  12.565   4.817
 7298SOL    HW223792  13.295  12.473   4.910
 7299SOL     OW23793  11.874   2.010  14.846
 7299SOL    HW123794  11.867   2.025   0.068
 7299SOL    HW223795  11.800   2.059  14.809
 7300SOL     OW23796   9.014   7.298  10.052
 7300SOL    HW123797   9.024   7.209  10.019
 7300SOL    HW223798   9.102   7.326  10.076
 7301SOL     OW23799   0.659   7.225   9.460
 7301SOL    HW123800   0.594   7.264   9.402
 7301SOL    HW223801   0.608   7.180   9.527
 7302SOL     OW23802   2.970   2.724   3.737
 7302SOL    HW123803   3.004   2.665   3.669
 7302SOL    HW223804   2.889   2.759   3.699
 7303SOL     OW23805   2.909   8.386   7.372
 7303SOL    HW123806   2.820   8.420   7.375
 7303SOL    HW223807   2.903   8.299   7.411
 7304SOL     OW23808  13.974  13.356   3.889
 7304SOL    HW123809  13.955  13.262   3.885
 7304SOL    HW223810  14.049  13.369   3.831
 7305SOL     OW23811   5.075   4.811   8.597
 7305SOL    HW123812   4.987   4.809   8.560
 7305SOL    HW223813   5.123   4.873   8.541
 7306SOL     OW23814  10.121   1.413   9.450
 7306SOL    HW123815  10.188   1.361   9.406
 7306SOL    HW223816  10.170   1.471   9.509
 7307SOL     OW23817   7.168   2.183   9.556
 7307SOL    HW123818   7.242   2.229   9.518
 7307SOL    HW223819   7.148   2.231   9.636
 7308SOL     OW23820   6.679   4.537   0.802
 7308SOL    HW123821   6.599   4.578   0.836
 7308SOL    HW223822   6.739   4.609   0.788
 7309SOL     OW23823   5.171  13.017   5.802
 7309SOL    HW123824   5.107  13.047   5.737
 7309SOL    HW223825   5.119  13.001   5.881
 7310SOL     OW23826  14.409  11.630  13.037
 7310SOL    HW123827  14.400  11.555  13.096
 7310SOL    HW223828  14.352  11.697  13.074
 7311SOL     OW23829   4.737   1.606  13.365
 7311SOL    HW123830   4.824   1.585  13.331
 7311SOL    HW223831   4.743   1.589  13.459
 7312SOL     OW23832   5.521   0.803   8.332
 7312SOL    HW123833   5.580   0.785   8.259
 7312SOL    HW223834   5.577   0.842   8.399
 7313SOL     OW23835  12.129  14.106   1.518
 7313SOL    HW123836  12.077  14.082   1.594
 7313SOL    HW223837  12.141  14.024   1.470
 7314SOL     OW23838  12.515   1.529   0.305
 7314SOL    HW123839  12.510   1.440   0.340
 7314SOL    HW223840  12.442   1.575   0.347
 7315SOL     OW23841  10.850   1.293   9.507
 7315SOL    HW123842  10.796   1.372   9.503
 7315SOL    HW223843  10.891   1.297   9.593
 7316SOL     OW23844   8.782   7.633  13.315
 7316SOL    HW123845   8.691   7.661  13.310
 7316SOL    HW223846   8.800   7.623  13.409
 7317SOL     OW23847  13.107   6.286  11.390
 7317SOL    HW123848  13.106   6.249  11.478
 7317SOL    HW223849  13.129   6.378  11.402
 7318SOL     OW23850   8.216   0.803   9.930
 7318SOL    HW123851   8.251   0.781   9.843
 7318SOL    HW223852   8.165   0.883   9.916
 7319SOL     OW23853   8.583   9.272   9.503
 7319SOL    HW123854   8.531   9.208   9.552
 7319SOL    HW223855   8.518   9.333   9.468
 7320SOL     OW23856   2.366  13.073   9.916
 7320SOL    HW123857   2.295  13.040   9.860
 7320SOL    HW223858   2.401  12.994   9.958
 7321SOL     OW23859  11.283   1.488  14.500
 7321SOL    HW123860  11.373   1.511  14.478
 7321SOL    HW223861  11.254   1.557  14.560
 7322SOL     OW23862   5.272   1.835   2.057
 7322SOL    HW123863   5.250   1.826   1.964
 7322SOL    HW223864   5.221   1.766   2.101
 7323SOL     OW23865   1.876   4.691  11.926
 7323SOL    HW123866   1.785   4.685  11.956
 7323SOL    HW223867   1.925   4.637  11.987
 7324SOL     OW23868   1.273   3.806   2.227
 7324SOL    HW123869   1.260   3.867   2.155
 7324SOL    HW223870   1.336   3.742   2.193
 7325SOL     OW23871   7.333   9.193   4.356
 7325SOL    HW123872   7.321   9.197   4.451
 7325SOL    HW223873   7.403   9.128   4.344
 7326SOL     OW23874  13.335  10.705   1.746
 7326SOL    HW123875  13.389  10.735   1.819
 7326SOL    HW223876  13.393  10.650   1.694
 7327SOL     OW23877  13.723   3.781   1.671
 7327SOL    HW123878  13.765   3.867   1.678
 7327SOL    HW223879  13.670   3.774   1.751
 7328SOL     OW23880   8.564  14.229  12.516
 7328SOL    HW123881   8.652  14.193  12.514
 7328SOL    HW223882   8.538  14.235  12.424
 7329SOL     OW23883  11.300   0.134   6.264
 7329SOL    HW123884  11.319   0.226   6.243
 7329SOL    HW223885  11.222   0.138   6.319
 7330SOL     OW23886   6.619   6.283  10.872
 7330SOL    HW123887   6.542   6.318  10.918
 7330SOL    HW223888   6.694   6.323  10.917
 7331SOL     OW23889  12.568  10.059   2.545
 7331SOL    HW123890  12.561   9.995   2.474
 7331SOL    HW223891  12.560  10.144   2.502
 7332SOL     OW23892   2.571   2.495   0.951
 7332SOL    HW123893   2.508   2.524   1.017
 7332SOL    HW223894   2.525   2.503   0.868
 7333SOL     OW23895   3.935   9.857  12.036
 7333SOL    HW123896   3.873   9.929  12.048
 7333SOL    HW223897   4.020   9.896  12.057
 7334SOL     OW23898   1.821   4.420   5.469
 7334SOL    HW123899   1.797   4.374   5.550
 7334SOL    HW223900   1.914   4.402   5.459
 7335SOL     OW23901   5.922   1.644   3.736
 7335SOL    HW123902   5.963   1.576   3.683
 7335SOL    HW223903   5.976   1.722   3.720
 7336SOL     OW23904  10.779   3.645   0.076
 7336SOL    HW123905  10.831   3.704   0.131
 7336SOL    HW223906  10.766   3.567   0.130
 7337SOL     OW23907   0.873   7.803   1.538
 7337SOL    HW123908   0.952   7.765   1.577
 7337SOL    HW223909   0.864   7.758   1.454
 7338SOL     OW23910  11.091  12.350   4.963
 7338SOL    HW123911  11.067  12.273   4.911
 7338SOL    HW223912  11.011  12.403   4.966
 7339SOL     OW23913   0.066   8.772  10.160
 7339SOL    HW123914   0.005   8.745  10.228
 7339SOL    HW223915   0.148   8.790  10.207
 7340SOL     OW23916  11.569  10.843   1.533
 7340SOL    HW123917  11.607  10.876   1.614
 7340SOL    HW223918  11.535  10.756   1.555
 7341SOL     OW23919   6.804  14.538   6.644
 7341SOL    HW123920   6.814  14.622   6.688
 7341SOL    HW223921   6.887  14.524   6.598
 7342SOL     OW23922   9.493   6.320  12.967
 7342SOL    HW123923   9.524   6.231  12.949
 7342SOL    HW223924   9.560   6.376  12.927
 7343SOL     OW23925   3.309   2.425   0.161
 7343SOL    HW123926   3.336   2.439   0.252
 7343SOL    HW223927   3.392   2.412   0.114
 7344SOL     OW23928  11.026  10.096   8.848
 7344SOL    HW123929  11.112  10.061   8.825
 7344SOL    HW223930  10.964  10.030   8.815
 7345SOL     OW23931  14.672   4.606   2.265
 7345SOL    HW123932  14.754   4.584   2.309
 7345SOL    HW223933  14.604   4.571   2.323
 7346SOL     OW23934  13.645   0.185   7.209
 7346SOL    HW123935  13.645   0.147   7.121
 7346SOL    HW223936  13.584   0.131   7.258
 7347SOL     OW23937   4.494   7.040  12.811
 7347SOL    HW123938   4.512   7.106  12.878
 7347SOL    HW223939   4.428   7.081  12.755
 7348SOL     OW23940   6.771  12.857   2.021
 7348SOL    HW123941   6.693  12.857   2.078
 7348SOL    HW223942   6.825  12.786   2.055
 7349SOL     OW23943  10.428   4.237   9.525
 7349SOL    HW123944  10.491   4.226   9.596
 7349SOL    HW223945  10.405   4.330   9.528
 7350SOL     OW23946  12.443  14.712  14.634
 7350SOL    HW123947  12.534  14.728  14.661
 7350SOL    HW223948  12.400  14.797  14.644
 7351SOL     OW23949  10.722   3.449  11.384
 7351SOL    HW123950  10.637   3.429  11.422
 7351SOL    HW223951  10.709   3.445  11.290
 7352SOL     OW23952   4.967   0.479   6.811
 7352SOL    HW123953   4.941   0.389   6.789
 7352SOL    HW223954   4.957   0.484   6.906
 7353SOL     OW23955  12.257  10.177   8.293
 7353SOL    HW123956  12.164  10.175   8.269
 7353SOL    HW223957  12.281  10.269   8.284
 7354SOL     OW23958  13.343   7.907  12.565
 7354SOL    HW123959  13.391   7.971  12.513
 7354SOL    HW223960  13.355   7.935  12.656
 7355SOL     OW23961   7.626   7.486   8.417
 7355SOL    HW123962   7.659   7.511   8.331
 7355SOL    HW223963   7.647   7.393   8.426
 7356SOL     OW23964   1.476   1.154   3.232
 7356SOL    HW123965   1.561   1.122   3.202
 7356SOL    HW223966   1.462   1.110   3.316
 7357SOL     OW23967  11.517  13.834  14.782
 7357SOL    HW123968  11.602  13.875  14.765
 7357SOL    HW223969  11.528  13.788  14.866
 7358SOL     OW23970  14.532   6.630  14.825
 7358SOL    HW123971  14.489   6.560   0.001
 7358SOL    HW223972  14.463   6.694  14.808
 7359SOL     OW23973  13.782   4.517  12.340
 7359SOL    HW123974  13.690   4.491  12.329
 7359SOL    HW223975  13.807   4.480  12.425
 7360SOL     OW23976   5.422   3.329  10.883
 7360SOL    HW123977   5.498   3.300  10.832
 7360SOL    HW223978   5.454   3.332  10.973
 7361SOL     OW23979  14.657   6.948   7.986
 7361SOL    HW123980  14.609   7.026   8.013
 7361SOL    HW223981  14.706   6.922   8.063
 7362SOL     OW23982   5.888   9.917  10.103
 7362SOL    HW123983   5.872   9.844  10.163
 7362SOL    HW223984   5.839   9.895  10.024
 7363SOL     OW23985   5.717   3.086   5.930
 7363SOL    HW123986   5.781   3.154   5.951
 7363SOL    HW223987   5.691   3.050   6.015
 7364SOL     OW23988  11.118   6.272   6.580
 7364SOL    HW123989  11.206   6.256   6.614
 7364SOL    HW223990  11.115   6.222   6.498
 7365SOL     OW23991   0.870   7.904   4.406
 7365SOL    HW123992   0.884   7.918   4.312
 7365SOL    HW223993   0.776   7.919   4.418
 7366SOL     OW23994  10.499   5.107   3.877
 7366SOL    HW123995  10.404   5.094   3.872
 7366SOL    HW223996  10.518   5.102   3.971
 7367SOL     OW23997   1.347   5.353   5.426
 7367SOL    HW123998   1.371   5.311   5.509
 7367SOL    HW223999   1.396   5.304   5.360
 7368SOL     OW24000   6.001   0.994   1.129
 7368SOL    HW124001   6.084   1.030   1.098
 7368SOL    HW224002   6.010   0.900   1.119
 7369SOL     OW24003   6.825   5.855  11.404
 7369SOL    HW124004   6.774   5.873  11.325
 7369SOL    HW224005   6.838   5.760  11.404
 7370SOL     OW24006   8.393  14.180  12.707
 7370SOL    HW124007   8.456  14.206  12.639
 7370SOL    HW224008   8.310  14.173  12.660
 7371SOL     OW24009  11.764  12.540  13.314
 7371SOL    HW124010  11.818  12.467  13.343
 7371SOL    HW224011  11.709  12.561  13.390
 7372SOL     OW24012   0.950  13.849  10.931
 7372SOL    HW124013   0.858  13.832  10.950
 7372SOL    HW224014   0.950  13.938  10.895
 7373SOL     OW24015   4.001  12.554   7.458
 7373SOL    HW124016   4.026  12.464   7.475
 7373SOL    HW224017   3.927  12.571   7.517
 7374SOL     OW24018  13.474   3.926   6.597
 7374SOL    HW124019  13.437   3.864   6.535
 7374SOL    HW224020  13.455   3.889   6.683
 7375SOL     OW24021  10.232  13.549   5.501
 7375SOL    HW124022  10.279  13.533   5.583
 7375SOL    HW224023  10.142  13.523   5.520
 7376SOL     OW24024  12.434   1.968   9.385
 7376SOL    HW124025  12.436   1.873   9.372
 7376SOL    HW224026  12.469   1.981   9.473
 7377SOL     OW24027  13.399  13.063  11.547
 7377SOL    HW124028  13.423  13.140  11.496
 7377SOL    HW224029  13.449  13.071  11.628
 7378SOL     OW24030   9.347   0.632   4.440
 7378SOL    HW124031   9.311   0.718   4.460
 7378SOL    HW224032   9.433   0.650   4.402
 7379SOL     OW24033   6.337  11.355   8.002
 7379SOL    HW124034   6.274  11.287   7.980
 7379SOL    HW224035   6.413  11.336   7.947
 7380SOL     OW24036  11.000   3.751   2.536
 7380SOL    HW124037  11.049   3.778   2.614
 7380SOL    HW224038  11.057   3.771   2.463
 7381SOL     OW24039   5.715  13.488  11.697
 7381SOL    HW124040   5.739  13.547  11.768
 7381SOL    HW224041   5.708  13.544  11.620
 7382SOL     OW24042   1.822   3.457  10.818
 7382SOL    HW124043   1.900   3.422  10.861
 7382SOL    HW224044   1.795   3.388  10.757
 7383SOL     OW24045   9.807   4.976  12.495
 7383SOL    HW124046   9.722   4.987  12.452
 7383SOL    HW224047   9.866   4.950  12.425
 7384SOL     OW24048   2.404   0.437  11.812
 7384SOL    HW124049   2.490   0.396  11.813
 7384SOL    HW224050   2.344   0.369  11.842
 7385SOL     OW24051  13.522  10.924   9.589
 7385SOL    HW124052  13.590  10.882   9.641
 7385SOL    HW224053  13.470  10.973   9.653
 7386SOL     OW24054   7.490  14.157   3.780
 7386SOL    HW124055   7.475  14.251   3.773
 7386SOL    HW224056   7.413  14.124   3.827
 7387SOL     OW24057   0.203   5.392   2.035
 7387SOL    HW124058   0.143   5.347   1.975
 7387SOL    HW224059   0.182   5.484   2.026
 7388SOL     OW24060   1.781  14.661  10.193
 7388SOL    HW124061   1.852  14.635  10.134
 7388SOL    HW224062   1.815  14.737  10.239
 7389SOL     OW24063  10.374  10.134  13.759
 7389SOL    HW124064  10.381  10.229  13.770
 7389SOL    HW224065  10.319  10.105  13.832
 7390SOL     OW24066   7.933  12.552   8.113
 7390SOL    HW124067   7.930  12.604   8.194
 7390SOL    HW224068   7.990  12.478   8.134
 7391SOL     OW24069   9.244  10.490  11.012
 7391SOL    HW124070   9.281  10.514  10.927
 7391SOL    HW224071   9.320  10.469  11.066
 7392SOL     OW24072  14.052   7.243   3.898
 7392SOL    HW124073  14.011   7.167   3.940
 7392SOL    HW224074  13.978   7.291   3.858
 7393SOL     OW24075   7.710  13.997  12.987
 7393SOL    HW124076   7.728  14.003  12.893
 7393SOL    HW224077   7.796  13.977  13.026
 7394SOL     OW24078  11.014   1.771   3.857
 7394SOL    HW124079  11.056   1.827   3.792
 7394SOL    HW224080  11.082   1.757   3.924
 7395SOL     OW24081  12.488   1.509   0.764
 7395SOL    HW124082  12.538   1.436   0.799
 7395SOL    HW224083  12.405   1.470   0.736
 7396SOL     OW24084  12.910   2.718   4.407
 7396SOL    HW124085  12.844   2.690   4.343
 7396SOL    HW224086  12.866   2.785   4.460
 7397SOL     OW24087   2.338  13.731   1.388
 7397SOL    HW124088   2.253  13.715   1.430
 7397SOL    HW224089   2.386  13.785   1.451
 7398SOL     OW24090   8.608   0.042   8.742
 7398SOL    HW124091   8.668  14.862   8.689
 7398SOL    HW224092   8.588  14.859   8.817
 7399SOL     OW24093   9.984   6.995   8.015
 7399SOL    HW124094   9.903   6.958   7.980
 7399SOL    HW224095  10.023   6.923   8.065
 7400SOL     OW24096   4.586   4.073  10.844
 7400SOL    HW124097   4.652   4.068  10.775
 7400SOL    HW224098   4.569   4.167  10.854
 7401SOL     OW24099  13.869  10.772   1.662
 7401SOL    HW124100  13.898  10.862   1.649
 7401SOL    HW224101  13.887  10.753   1.754
 7402SOL     OW24102  11.903  13.569   0.336
 7402SOL    HW124103  11.927  13.620   0.259
 7402SOL    HW224104  11.815  13.536   0.317
 7403SOL     OW24105   7.823   7.792   6.991
 7403SOL    HW124106   7.727   7.793   7.000
 7403SOL    HW224107   7.852   7.728   7.057
 7404SOL     OW24108   2.816   3.164  12.482
 7404SOL    HW124109   2.895   3.126  12.443
 7404SOL    HW224110   2.846   3.249  12.515
 7405SOL     OW24111   0.835  14.795  11.779
 7405SOL    HW124112   0.829  14.856  11.705
 7405SOL    HW224113   0.843  14.708  11.738
 7406SOL     OW24114   4.056   0.677   5.255
 7406SOL    HW124115   4.076   0.680   5.162
 7406SOL    HW224116   4.120   0.615   5.291
 7407SOL     OW24117   7.020   1.998  12.478
 7407SOL    HW124118   6.999   1.988  12.386
 7407SOL    HW224119   6.970   2.074  12.507
 7408SOL     OW24120  10.327   0.468  10.889
 7408SOL    HW124121  10.281   0.392  10.855
 7408SOL    HW224122  10.393   0.489  10.822
 7409SOL     OW24123  11.177   9.778   5.881
 7409SOL    HW124124  11.191   9.710   5.947
 7409SOL    HW224125  11.237   9.848   5.905
 7410SOL     OW24126   8.466   8.709   2.496
 7410SOL    HW124127   8.406   8.658   2.442
 7410SOL    HW224128   8.417   8.727   2.576
 7411SOL     OW24129   7.347  11.669  10.587
 7411SOL    HW124130   7.378  11.578  10.583
 7411SOL    HW224131   7.329  11.684  10.679
 7412SOL     OW24132  13.628   6.779   0.861
 7412SOL    HW124133  13.570   6.703   0.857
 7412SOL    HW224134  13.625   6.817   0.773
 7413SOL     OW24135   5.799  12.312   8.580
 7413SOL    HW124136   5.889  12.343   8.591
 7413SOL    HW224137   5.791  12.238   8.640
 7414SOL     OW24138   3.141   6.310  12.331
 7414SOL    HW124139   3.169   6.389  12.377
 7414SOL    HW224140   3.218   6.282  12.282
 7415SOL     OW24141   6.394   5.587   5.419
 7415SOL    HW124142   6.417   5.591   5.512
 7415SOL    HW224143   6.450   5.654   5.378
 7416SOL     OW24144   8.770   1.805   4.322
 7416SOL    HW124145   8.728   1.841   4.244
 7416SOL    HW224146   8.706   1.741   4.356
 7417SOL     OW24147   0.951   9.524   3.520
 7417SOL    HW124148   0.897   9.573   3.459
 7417SOL    HW224149   0.892   9.502   3.592
 7418SOL     OW24150   4.748   7.377   5.383
 7418SOL    HW124151   4.838   7.358   5.359
 7418SOL    HW224152   4.729   7.318   5.456
 7419SOL     OW24153  12.716  14.032   7.704
 7419SOL    HW124154  12.723  13.947   7.661
 7419SOL    HW224155  12.680  14.013   7.790
 7420SOL     OW24156  11.253  11.896   2.330
 7420SOL    HW124157  11.344  11.866   2.331
 7420SOL    HW224158  11.224  11.880   2.240
 7421SOL     OW24159   8.053  11.512   2.079
 7421SOL    HW124160   8.067  11.514   1.984
 7421SOL    HW224161   8.141  11.512   2.116
 7422SOL     OW24162   5.663   7.819   7.334
 7422SOL    HW124163   5.685   7.745   7.278
 7422SOL    HW224164   5.746   7.865   7.346
 7423SOL     OW24165  12.381   7.575  10.771
 7423SOL    HW124166  12.297   7.617  10.786
 7423SOL    HW224167  12.370   7.527  10.689
 7424SOL     OW24168   6.404  12.844   5.529
 7424SOL    HW124169   6.477  12.898   5.561
 7424SOL    HW224170   6.332  12.906   5.518
 7425SOL     OW24171  10.628   2.141   5.504
 7425SOL    HW124172  10.588   2.136   5.417
 7425SOL    HW224173  10.719   2.117   5.491
 7426SOL     OW24174   0.273   9.799  11.612
 7426SOL    HW124175   0.235   9.884  11.637
 7426SOL    HW224176   0.362   9.820  11.585
 7427SOL     OW24177  10.675  12.662  12.506
 7427SOL    HW124178  10.754  12.670  12.560
 7427SOL    HW224179  10.638  12.577  12.530
 7428SOL     OW24180   6.522   4.066  10.112
 7428SOL    HW124181   6.453   3.999  10.117
 7428SOL    HW224182   6.552   4.077  10.202
 7429SOL     OW24183   6.759   3.806   7.214
 7429SOL    HW124184   6.768   3.885   7.267
 7429SOL    HW224185   6.818   3.820   7.140
 7430SOL     OW24186   0.382  12.175  11.062
 7430SOL    HW124187   0.385  12.114  11.135
 7430SOL    HW224188   0.432  12.251  11.092
 7431SOL     OW24189   3.295   1.316  14.447
 7431SOL    HW124190   3.272   1.231  14.409
 7431SOL    HW224191   3.228   1.376  14.412
 7432SOL     OW24192   3.604   2.754   1.441
 7432SOL    HW124193   3.521   2.759   1.490
 7432SOL    HW224194   3.597   2.822   1.374
 7433SOL     OW24195  12.725  11.140   0.970
 7433SOL    HW124196  12.790  11.148   1.039
 7433SOL    HW224197  12.770  11.172   0.891
 7434SOL     OW24198   9.572  14.455   8.548
 7434SOL    HW124199   9.645  14.394   8.561
 7434SOL    HW224200   9.508  14.406   8.497
 7435SOL     OW24201   4.599   8.555  13.208
 7435SOL    HW124202   4.649   8.618  13.260
 7435SOL    HW224203   4.509   8.588  13.210
 7436SOL     OW24204   5.200   9.546  14.380
 7436SOL    HW124205   5.120   9.577  14.337
 7436SOL    HW224206   5.259   9.621  14.378
 7437SOL     OW24207  13.220  13.188   5.274
 7437SOL    HW124208  13.147  13.128   5.289
 7437SOL    HW224209  13.298  13.133   5.285
 7438SOL     OW24210   4.751   5.047  12.546
 7438SOL    HW124211   4.838   5.084  12.558
 7438SOL    HW224212   4.726   5.015  12.633
 7439SOL     OW24213   7.852   8.494   9.821
 7439SOL    HW124214   7.832   8.581   9.855
 7439SOL    HW224215   7.786   8.437   9.863
 7440SOL     OW24216  12.156   2.026   7.949
 7440SOL    HW124217  12.173   1.981   7.866
 7440SOL    HW224218  12.067   2.062   7.939
 7441SOL     OW24219   2.087   4.815  13.878
 7441SOL    HW124220   2.001   4.850  13.901
 7441SOL    HW224221   2.069   4.727  13.847
 7442SOL     OW24222   9.935   2.385  12.396
 7442SOL    HW124223   9.966   2.336  12.473
 7442SOL    HW224224   9.844   2.406  12.416
 7443SOL     OW24225  12.913   9.737   2.486
 7443SOL    HW124226  12.934   9.648   2.457
 7443SOL    HW224227  12.851   9.725   2.558
 7444SOL     OW24228   9.506   4.737   3.881
 7444SOL    HW124229   9.582   4.782   3.917
 7444SOL    HW224230   9.537   4.649   3.861
 7445SOL     OW24231   8.012   8.248   4.767
 7445SOL    HW124232   7.950   8.197   4.818
 7445SOL    HW224233   7.982   8.240   4.676
 7446SOL     OW24234  13.812   1.024   2.121
 7446SOL    HW124235  13.814   1.114   2.088
 7446SOL    HW224236  13.901   1.007   2.152
 7447SOL     OW24237   5.448   9.872   0.936
 7447SOL    HW124238   5.535   9.831   0.933
 7447SOL    HW224239   5.395   9.819   0.876
 7448SOL     OW24240   4.882   9.099   9.381
 7448SOL    HW124241   4.888   9.109   9.286
 7448SOL    HW224242   4.884   9.189   9.415
 7449SOL     OW24243   3.813   7.568   8.450
 7449SOL    HW124244   3.751   7.634   8.419
 7449SOL    HW224245   3.868   7.614   8.514
 7450SOL     OW24246   0.400   7.619   8.898
 7450SOL    HW124247   0.384   7.629   8.804
 7450SOL    HW224248   0.415   7.708   8.929
 7451SOL     OW24249   7.609  13.455   3.913
 7451SOL    HW124250   7.544  13.505   3.963
 7451SOL    HW224251   7.566  13.372   3.894
 7452SOL     OW24252   5.918   9.963   8.183
 7452SOL    HW124253   5.874   9.933   8.103
 7452SOL    HW224254   5.902   9.893   8.247
 7453SOL     OW24255   2.744  14.133   5.894
 7453SOL    HW124256   2.824  14.180   5.872
 7453SOL    HW224257   2.714  14.096   5.811
 7454SOL     OW24258   6.772   0.691   7.129
 7454SOL    HW124259   6.714   0.764   7.105
 7454SOL    HW224260   6.841   0.732   7.180
 7455SOL     OW24261   3.891  10.394  14.250
 7455SOL    HW124262   3.864  10.368  14.162
 7455SOL    HW224263   3.928  10.314  14.288
 7456SOL     OW24264   1.768   1.715  12.662
 7456SOL    HW124265   1.724   1.798  12.681
 7456SOL    HW224266   1.699   1.659  12.626
 7457SOL     OW24267  14.028   4.911   3.219
 7457SOL    HW124268  13.988   4.887   3.303
 7457SOL    HW224269  13.981   4.859   3.154
 7458SOL     OW24270   3.919  14.201  12.311
 7458SOL    HW124271   3.825  14.213  12.321
 7458SOL    HW224272   3.932  14.107  12.322
 7459SOL     OW24273   2.535   7.477   8.044
 7459SOL    HW124274   2.572   7.391   8.061
 7459SOL    HW224275   2.473   7.464   7.972
 7460SOL     OW24276   8.885  12.086   9.106
 7460SOL    HW124277   8.953  12.146   9.075
 7460SOL    HW224278   8.925  12.038   9.178
 7461SOL     OW24279  12.556  14.207   6.143
 7461SOL    HW124280  12.572  14.113   6.142
 7461SOL    HW224281  12.463  14.216   6.125
 7462SOL     OW24282   6.180  12.389   3.123
 7462SOL    HW124283   6.094  12.382   3.164
 7462SOL    HW224284   6.238  12.340   3.180
 7463SOL     OW24285   9.976   2.723   6.303
 7463SOL    HW124286   9.944   2.702   6.215
 7463SOL    HW224287   9.907   2.778   6.341
 7464SOL     OW24288   2.552  14.424   1.131
 7464SOL    HW124289   2.520  14.475   1.056
 7464SOL    HW224290   2.580  14.490   1.194
 7465SOL     OW24291   1.312   6.857   8.442
 7465SOL    HW124292   1.377   6.868   8.511
 7465SOL    HW224293   1.348   6.788   8.386
 7466SOL     OW24294   4.121  12.001   8.507
 7466SOL    HW124295   4.170  11.926   8.474
 7466SOL    HW224296   4.082  12.040   8.428
 7467SOL     OW24297  14.702   6.557  12.338
 7467SOL    HW124298  14.655   6.632  12.303
 7467SOL    HW224299  14.690   6.488  12.273
 7468SOL     OW24300   4.877   8.912   9.574
 7468SOL    HW124301   4.969   8.922   9.599
 7468SOL    HW224302   4.856   8.995   9.530
 7469SOL     OW24303  11.467   6.422   2.237
 7469SOL    HW124304  11.438   6.354   2.298
 7469SOL    HW224305  11.561   6.430   2.254
 7470SOL     OW24306  11.669   9.468   0.758
 7470SOL    HW124307  11.675   9.376   0.732
 7470SOL    HW224308  11.749   9.485   0.807
 7471SOL     OW24309  10.661   4.771   7.398
 7471SOL    HW124310  10.733   4.750   7.338
 7471SOL    HW224311  10.604   4.829   7.347
 7472SOL     OW24312  12.540  13.451   7.288
 7472SOL    HW124313  12.563  13.364   7.320
 7472SOL    HW224314  12.533  13.505   7.367
 7473SOL     OW24315   1.160  12.838  13.951
 7473SOL    HW124316   1.166  12.892  13.873
 7473SOL    HW224317   1.251  12.824  13.978
 7474SOL     OW24318   4.034   1.305   1.464
 7474SOL    HW124319   4.126   1.330   1.467
 7474SOL    HW224320   3.994   1.349   1.539
 7475SOL     OW24321   7.309   0.287  11.066
 7475SOL    HW124322   7.260   0.331  10.996
 7475SOL    HW224323   7.388   0.255  11.023
 7476SOL     OW24324   1.707   6.729   1.654
 7476SOL    HW124325   1.670   6.725   1.742
 7476SOL    HW224326   1.773   6.799   1.659
 7477SOL     OW24327   2.812   6.051   2.708
 7477SOL    HW124328   2.757   6.117   2.749
 7477SOL    HW224329   2.901   6.081   2.722
 7478SOL     OW24330  14.800  12.383   5.686
 7478SOL    HW124331  14.825  12.291   5.690
 7478SOL    HW224332  14.838  12.422   5.764
 7479SOL     OW24333   4.375   3.900  12.170
 7479SOL    HW124334   4.423   3.820  12.189
 7479SOL    HW224335   4.329   3.920  12.252
 7480SOL     OW24336  12.201   4.888   9.288
 7480SOL    HW124337  12.252   4.888   9.207
 7480SOL    HW224338  12.127   4.829   9.270
 7481SOL     OW24339  14.400   2.386  10.325
 7481SOL    HW124340  14.491   2.360  10.310
 7481SOL    HW224341  14.386   2.459  10.265
 7482SOL     OW24342   8.674  12.649  10.469
 7482SOL    HW124343   8.671  12.630  10.563
 7482SOL    HW224344   8.636  12.571  10.428
 7483SOL     OW24345   9.567   6.697   1.830
 7483SOL    HW124346   9.620   6.731   1.758
 7483SOL    HW224347   9.477   6.710   1.800
 7484SOL     OW24348  14.041   7.744  13.517
 7484SOL    HW124349  13.972   7.691  13.557
 7484SOL    HW224350  14.044   7.716  13.426
 7485SOL     OW24351   2.977   4.963   0.930
 7485SOL    HW124352   2.941   5.046   0.960
 7485SOL    HW224353   2.902   4.904   0.925
 7486SOL     OW24354   8.875  10.378  10.952
 7486SOL    HW124355   8.786  10.410  10.962
 7486SOL    HW224356   8.874  10.291  10.991
 7487SOL     OW24357  11.703   5.858  14.807
 7487SOL    HW124358  11.636   5.916  14.843
 7487SOL    HW224359  11.709   5.883  14.715
 7488SOL     OW24360   6.638   4.047   9.870
 7488SOL    HW124361   6.693   3.968   9.861
 7488SOL    HW224362   6.612   4.047   9.962
 7489SOL     OW24363   0.435   9.401  11.667
 7489SOL    HW124364   0.444   9.455  11.589
 7489SOL    HW224365   0.346   9.419  11.699
 7490SOL     OW24366   5.995   3.849   3.483
 7490SOL    HW124367   6.010   3.906   3.408
 7490SOL    HW224368   6.074   3.858   3.536
 7491SOL     OW24369  12.504   5.516  12.843
 7491SOL    HW124370  12.408   5.517  12.836
 7491SOL    HW224371  12.533   5.453  12.778
 7492SOL     OW24372   0.015  10.700   0.118
 7492SOL    HW124373   0.029  10.606   0.111
 7492SOL    HW224374   0.070  10.737   0.049
 7493SOL     OW24375   9.559   7.367  12.281
 7493SOL    HW124376   9.471   7.336  12.258
 7493SOL    HW224377   9.569   7.448  12.231
 7494SOL     OW24378  14.486  10.675   4.370
 7494SOL    HW124379  14.402  10.645   4.335
 7494SOL    HW224380  14.466  10.704   4.459
 7495SOL     OW24381   2.126  10.081  14.688
 7495SOL    HW124382   2.207  10.132  14.679
 7495SOL    HW224383   2.152   9.991  14.674
 7496SOL     OW24384   7.951  10.499  12.658
 7496SOL    HW124385   7.928  10.527  12.569
 7496SOL    HW224386   8.031  10.447  12.647
 7497SOL     OW24387   1.886   3.981   1.549
 7497SOL    HW124388   1.821   3.920   1.585
 7497SOL    HW224389   1.836   4.060   1.529
 7498SOL     OW24390  11.445   0.304   0.363
 7498SOL    HW124391  11.353   0.330   0.365
 7498SOL    HW224392  11.462   0.267   0.449
 7499SOL     OW24393  12.626   1.774   9.827
 7499SOL    HW124394  12.714   1.810   9.823
 7499SOL    HW224395  12.627   1.699   9.768
 7500SOL     OW24396  13.830  11.301   6.157
 7500SOL    HW124397  13.865  11.390   6.162
 7500SOL    HW224398  13.895  11.247   6.202
 7501SOL     OW24399  14.561   8.914  12.984
 7501SOL    HW124400  14.577   9.008  12.994
 7501SOL    HW224401  14.570   8.878  13.072
 7502SOL     OW24402   7.375  10.304   6.117
 7502SOL    HW124403   7.298  10.286   6.063
 7502SOL    HW224404   7.421  10.220   6.122
 7503SOL     OW24405   7.410   0.519  10.328
 7503SOL    HW124406   7.316   0.533  10.317
 7503SOL    HW224407   7.417   0.460  10.403
 7504SOL     OW24408  14.765  10.100   6.478
 7504SOL    HW124409  14.806  10.183   6.506
 7504SOL    HW224410  14.837  10.051   6.437
 7505SOL     OW24411   6.253  10.012  13.321
 7505SOL    HW124412   6.217   9.977  13.240
 7505SOL    HW224413   6.249  10.107  13.310
 7506SOL     OW24414   3.891   7.528   0.418
 7506SOL    HW124415   3.976   7.486   0.418
 7506SOL    HW224416   3.831   7.463   0.381
 7507SOL     OW24417   0.561   9.543  13.086
 7507SOL    HW124418   0.474   9.568  13.057
 7507SOL    HW224419   0.581   9.463  13.038
 7508SOL     OW24420   4.447  12.392   1.091
 7508SOL    HW124421   4.541  12.402   1.100
 7508SOL    HW224422   4.420  12.349   1.172
 7509SOL     OW24423  12.212  12.307   6.080
 7509SOL    HW124424  12.125  12.276   6.056
 7509SOL    HW224425  12.225  12.273   6.169
 7510SOL     OW24426  10.107   6.853   0.356
 7510SOL    HW124427  10.185   6.902   0.384
 7510SOL    HW224428  10.137   6.762   0.349
 7511SOL     OW24429   3.538   8.853   0.934
 7511SOL    HW124430   3.528   8.948   0.949
 7511SOL    HW224431   3.530   8.815   1.022
 7512SOL     OW24432   4.819  13.947   8.672
 7512SOL    HW124433   4.847  14.033   8.640
 7512SOL    HW224434   4.898  13.911   8.712
 7513SOL     OW24435   7.748   8.303   0.816
 7513SOL    HW124436   7.747   8.311   0.912
 7513SOL    HW224437   7.659   8.327   0.789
 7514SOL     OW24438   8.436   3.812  13.324
 7514SOL    HW124439   8.525   3.846  13.314
 7514SOL    HW224440   8.385   3.862  13.260
 7515SOL     OW24441   9.271   0.784   7.532
 7515SOL    HW124442   9.251   0.877   7.544
 7515SOL    HW224443   9.252   0.745   7.617
 7516SOL     OW24444  14.469   0.930   0.161
 7516SOL    HW124445  14.418   0.852   0.181
 7516SOL    HW224446  14.489   0.922   0.067
 7517SOL     OW24447   8.152   2.928   7.262
 7517SOL    HW124448   8.161   2.924   7.357
 7517SOL    HW224449   8.237   2.901   7.228
 7518SOL     OW24450   8.194   7.497  13.912
 7518SOL    HW124451   8.267   7.440  13.891
 7518SOL    HW224452   8.116   7.444  13.896
 7519SOL     OW24453   5.700   4.954  12.987
 7519SOL    HW124454   5.756   4.897  12.935
 7519SOL    HW224455   5.623   4.900  13.006
 7520SOL     OW24456  10.035   3.129  11.742
 7520SOL    HW124457   9.964   3.068  11.760
 7520SOL    HW224458  10.054   3.170  11.826
 7521SOL     OW24459   1.772  13.025   6.020
 7521SOL    HW124460   1.685  13.040   5.983
 7521SOL    HW224461   1.767  13.062   6.108
 7522SOL     OW24462   4.292   1.807   7.754
 7522SOL    HW124463   4.342   1.748   7.698
 7522SOL    HW224464   4.324   1.789   7.843
 7523SOL     OW24465  12.518   3.468   8.837
 7523SOL    HW124466  12.462   3.431   8.768
 7523SOL    HW224467  12.458   3.490   8.908
 7524SOL     OW24468   2.274   7.698  13.180
 7524SOL    HW124469   2.246   7.623  13.232
 7524SOL    HW224470   2.356   7.669  13.139
 7525SOL     OW24471   8.910   0.088   6.473
 7525SOL    HW124472   8.880   0.018   6.414
 7525SOL    HW224473   8.831   0.118   6.517
 7526SOL     OW24474   0.651   4.537  12.842
 7526SOL    HW124475   0.598   4.474  12.793
 7526SOL    HW224476   0.733   4.491  12.860
 7527SOL     OW24477   4.250   4.889   3.687
 7527SOL    HW124478   4.215   4.804   3.661
 7527SOL    HW224479   4.345   4.881   3.676
 7528SOL     OW24480   3.341  11.716   8.952
 7528SOL    HW124481   3.259  11.695   8.998
 7528SOL    HW224482   3.393  11.636   8.959
 7529SOL     OW24483   6.954   1.331   0.516
 7529SOL    HW124484   6.981   1.336   0.608
 7529SOL    HW224485   6.883   1.394   0.509
 7530SOL     OW24486   2.201  11.722   9.649
 7530SOL    HW124487   2.219  11.669   9.572
 7530SOL    HW224488   2.284  11.767   9.667
 7531SOL     OW24489  11.691   4.993   0.443
 7531SOL    HW124490  11.685   5.084   0.471
 7531SOL    HW224491  11.781   4.983   0.412
 7532SOL     OW24492   9.560   7.761   7.242
 7532SOL    HW124493   9.482   7.714   7.272
 7532SOL    HW224494   9.611   7.776   7.322
 7533SOL     OW24495   1.938   0.059   9.692
 7533SOL    HW124496   1.848   0.093   9.686
 7533SOL    HW224497   1.992   0.138   9.702
 7534SOL     OW24498  12.944  12.818   1.976
 7534SOL    HW124499  12.906  12.906   1.974
 7534SOL    HW224500  12.886  12.765   1.922
 7535SOL     OW24501   2.305   8.735   3.796
 7535SOL    HW124502   2.309   8.644   3.824
 7535SOL    HW224503   2.318   8.785   3.877
 7536SOL     OW24504   5.667   1.646   5.074
 7536SOL    HW124505   5.699   1.556   5.064
 7536SOL    HW224506   5.654   1.676   4.984
 7537SOL     OW24507   8.673  12.484   6.009
 7537SOL    HW124508   8.647  12.556   6.067
 7537SOL    HW224509   8.697  12.527   5.927
 7538SOL     OW24510   4.147   0.031   7.784
 7538SOL    HW124511   4.239   0.022   7.805
 7538SOL    HW224512   4.119   0.110   7.830
 7539SOL     OW24513   5.711   2.934  12.182
 7539SOL    HW124514   5.776   2.985  12.232
 7539SOL    HW224515   5.707   2.979  12.097
 7540SOL     OW24516  14.544   6.444  12.557
 7540SOL    HW124517  14.505   6.358  12.572
 7540SOL    HW224518  14.587   6.436  12.472
 7541SOL     OW24519   3.939   9.337  10.164
 7541SOL    HW124520   3.843   9.344  10.173
 7541SOL    HW224521   3.953   9.313  10.073
 7542SOL     OW24522   7.044   6.750   1.043
 7542SOL    HW124523   7.031   6.843   1.026
 7542SOL    HW224524   6.973   6.727   1.103
 7543SOL     OW24525   2.181   4.512   7.118
 7543SOL    HW124526   2.265   4.541   7.082
 7543SOL    HW224527   2.202   4.435   7.171
 7544SOL     OW24528  10.615   1.925   9.677
 7544SOL    HW124529  10.708   1.900   9.678
 7544SOL    HW224530  10.603   1.975   9.757
 7545SOL     OW24531   2.639   1.846   9.597
 7545SOL    HW124532   2.666   1.937   9.611
 7545SOL    HW224533   2.677   1.822   9.513
 7546SOL     OW24534   4.090  11.113   8.659
 7546SOL    HW124535   4.001  11.078   8.651
 7546SOL    HW224536   4.146  11.035   8.664
 7547SOL     OW24537   8.177   7.380  11.530
 7547SOL    HW124538   8.179   7.373  11.625
 7547SOL    HW224539   8.087   7.405  11.509
 7548SOL     OW24540   5.271  10.790   3.310
 7548SOL    HW124541   5.248  10.856   3.244
 7548SOL    HW224542   5.332  10.835   3.368
 7549SOL     OW24543  10.576   6.125   7.817
 7549SOL    HW124544  10.581   6.221   7.813
 7549SOL    HW224545  10.636   6.101   7.887
 7550SOL     OW24546   2.679  12.548   0.889
 7550SOL    HW124547   2.687  12.610   0.961
 7550SOL    HW224548   2.724  12.589   0.816
 7551SOL     OW24549   9.361  13.287  10.568
 7551SOL    HW124550   9.288  13.232  10.540
 7551SOL    HW224551   9.374  13.265  10.660
 7552SOL     OW24552   0.756  10.341   2.438
 7552SOL    HW124553   0.755  10.349   2.533
 7552SOL    HW224554   0.664  10.334   2.413
 7553SOL     OW24555   3.281   2.657   8.499
 7553SOL    HW124556   3.306   2.713   8.425
 7553SOL    HW224557   3.195   2.690   8.525
 7554SOL     OW24558  12.304   5.598  11.833
 7554SOL    HW124559  12.269   5.675  11.789
 7554SOL    HW224560  12.289   5.526  11.772
 7555SOL     OW24561  12.152   3.257   8.548
 7555SOL    HW124562  12.085   3.301   8.496
 7555SOL    HW224563  12.119   3.168   8.559
 7556SOL     OW24564   9.961  10.391   2.605
 7556SOL    HW124565  10.032  10.411   2.545
 7556SOL    HW224566   9.941  10.299   2.588
 7557SOL     OW24567   7.654   4.063   0.071
 7557SOL    HW124568   7.625   4.126   0.137
 7557SOL    HW224569   7.572   4.029   0.034
 7558SOL     OW24570   1.258   4.845   8.791
 7558SOL    HW124571   1.323   4.775   8.788
 7558SOL    HW224572   1.181   4.804   8.830
 7559SOL     OW24573   8.075   8.254   6.172
 7559SOL    HW124574   8.000   8.313   6.173
 7559SOL    HW224575   8.056   8.191   6.102
 7560SOL     OW24576  14.486   3.863   6.788
 7560SOL    HW124577  14.480   3.943   6.737
 7560SOL    HW224578  14.451   3.795   6.730
 7561SOL     OW24579   4.818   1.018   4.812
 7561SOL    HW124580   4.816   0.983   4.723
 7561SOL    HW224581   4.896   1.073   4.815
 7562SOL     OW24582  13.994   0.824  13.309
 7562SOL    HW124583  13.914   0.782  13.277
 7562SOL    HW224584  13.970   0.860  13.394
 7563SOL     OW24585   7.663  14.348   8.325
 7563SOL    HW124586   7.606  14.332   8.400
 7563SOL    HW224587   7.725  14.275   8.326
 7564SOL     OW24588   3.562  14.427   1.678
 7564SOL    HW124589   3.539  14.512   1.716
 7564SOL    HW224590   3.549  14.364   1.749
 7565SOL     OW24591   8.558  12.180   4.423
 7565SOL    HW124592   8.618  12.226   4.482
 7565SOL    HW224593   8.537  12.244   4.356
 7566SOL     OW24594  13.984   1.235   8.234
 7566SOL    HW124595  14.035   1.308   8.270
 7566SOL    HW224596  13.935   1.274   8.162
 7567SOL     OW24597   3.460   2.452   2.424
 7567SOL    HW124598   3.483   2.372   2.377
 7567SOL    HW224599   3.374   2.434   2.461
 7568SOL     OW24600   4.473  14.309   8.384
 7568SOL    HW124601   4.554  14.258   8.387
 7568SOL    HW224602   4.429  14.289   8.466
 7569SOL     OW24603  10.284   2.327  12.744
 7569SOL    HW124604  10.320   2.374  12.670
 7569SOL    HW224605  10.326   2.241  12.741
 7570SOL     OW24606   8.906   9.286  14.628
 7570SOL    HW124607   8.835   9.239  14.585
 7570SOL    HW224608   8.865   9.368  14.657
 7571SOL     OW24609   7.508  13.602   1.907
 7571SOL    HW124610   7.487  13.692   1.882
 7571SOL    HW224611   7.519  13.604   2.002
 7572SOL     OW24612  12.787  13.431   8.796
 7572SOL    HW124613  12.806  13.421   8.703
 7572SOL    HW224614  12.820  13.518   8.818
 7573SOL     OW24615  13.578   4.451   5.603
 7573SOL    HW124616  13.648   4.387   5.590
 7573SOL    HW224617  13.567   4.454   5.698
 7574SOL     OW24618   1.228  11.229  13.447
 7574SOL    HW124619   1.224  11.318  13.481
 7574SOL    HW224620   1.321  11.208  13.443
 7575SOL     OW24621  10.107  10.448   0.433
 7575SOL    HW124622  10.202  10.453   0.431
 7575SOL    HW224623  10.081  10.425   0.344
 7576SOL     OW24624   0.420   1.904   3.731
 7576SOL    HW124625   0.401   1.819   3.772
 7576SOL    HW224626   0.424   1.885   3.637
 7577SOL     OW24627  10.512   2.442   9.589
 7577SOL    HW124628  10.584   2.482   9.541
 7577SOL    HW224629  10.435   2.458   9.534
 7578SOL     OW24630   4.828   0.571  14.188
 7578SOL    HW124631   4.918   0.599  14.172
 7578SOL    HW224632   4.836   0.486  14.230
 7579SOL     OW24633  14.580  12.416   7.130
 7579SOL    HW124634  14.669  12.389   7.155
 7579SOL    HW224635  14.550  12.345   7.073
 7580SOL     OW24636  14.235   2.138   5.579
 7580SOL    HW124637  14.251   2.044   5.572
 7580SOL    HW224638  14.285   2.165   5.656
 7581SOL     OW24639   3.736   3.437   3.052
 7581SOL    HW124640   3.680   3.512   3.032
 7581SOL    HW224641   3.709   3.370   2.989
 7582SOL     OW24642  13.239  13.583  14.651
 7582SOL    HW124643  13.229  13.602  14.558
 7582SOL    HW224644  13.248  13.669  14.692
 7583SOL     OW24645   3.655   5.371   7.068
 7583SOL    HW124646   3.698   5.427   7.003
 7583SOL    HW224647   3.589   5.428   7.108
 7584SOL     OW24648   3.545   3.442   5.205
 7584SOL    HW124649   3.639   3.423   5.208
 7584SOL    HW224650   3.539   3.537   5.204
 7585SOL     OW24651   8.143  14.839  12.758
 7585SOL    HW124652   8.146  14.758  12.708
 7585SOL    HW224653   8.231  14.848  12.794
 7586SOL     OW24654  14.404   7.488   7.625
 7586SOL    HW124655  14.422   7.415   7.685
 7586SOL    HW224656  14.364   7.555   7.680
 7587SOL     OW24657   1.665  10.852  14.851
 7587SOL    HW124658   1.737  10.831  14.791
 7587SOL    HW224659   1.590  10.869  14.794
 7588SOL     OW24660   4.554   1.608   0.887
 7588SOL    HW124661   4.557   1.612   0.792
 7588SOL    HW224662   4.644   1.590   0.913
 7589SOL     OW24663  10.475   7.222   1.756
 7589SOL    HW124664  10.446   7.145   1.804
 7589SOL    HW224665  10.515   7.187   1.676
 7590SOL     OW24666   3.979   6.138  14.583
 7590SOL    HW124667   4.063   6.158  14.625
 7590SOL    HW224668   3.918   6.204  14.617
 7591SOL     OW24669  13.299   8.749  14.534
 7591SOL    HW124670  13.209   8.767  14.562
 7591SOL    HW224671  13.344   8.834  14.540
 7592SOL     OW24672   7.680   3.552   1.837
 7592SOL    HW124673   7.762   3.536   1.790
 7592SOL    HW224674   7.662   3.645   1.822
 7593SOL     OW24675   0.029   3.718  12.424
 7593SOL    HW124676   0.112   3.755  12.393
 7593SOL    HW224677  14.835   3.782  12.397
 7594SOL     OW24678  13.913   7.889   7.675
 7594SOL    HW124679  13.899   7.885   7.769
 7594SOL    HW224680  13.870   7.970   7.648
 7595SOL     OW24681   3.888   5.495   1.758
 7595SOL    HW124682   3.865   5.479   1.666
 7595SOL    HW224683   3.803   5.508   1.802
 7596SOL     OW24684  14.738   6.156   2.491
 7596SOL    HW124685  14.833   6.159   2.493
 7596SOL    HW224686  14.716   6.063   2.504
 7597SOL     OW24687  10.327  12.403   0.471
 7597SOL    HW124688  10.275  12.478   0.499
 7597SOL    HW224689  10.316  12.400   0.376
 7598SOL     OW24690  11.950   5.675  14.830
 7598SOL    HW124691  12.025   5.709  14.781
 7598SOL    HW224692  11.881   5.740  14.816
 7599SOL     OW24693   8.001   6.104   5.564
 7599SOL    HW124694   7.985   6.106   5.659
 7599SOL    HW224695   8.035   6.016   5.548
 7600SOL     OW24696   3.973  14.028  11.795
 7600SOL    HW124697   3.965  14.121  11.775
 7600SOL    HW224698   4.067  14.014  11.808
 7601SOL     OW24699   7.090   9.649   8.862
 7601SOL    HW124700   7.029   9.648   8.789
 7601SOL    HW224701   7.165   9.700   8.831
 7602SOL     OW24702   0.894   2.607   3.942
 7602SOL    HW124703   0.919   2.699   3.938
 7602SOL    HW224704   0.942   2.572   4.017
 7603SOL     OW24705   0.690   7.365  10.766
 7603SOL    HW124706   0.623   7.301  10.743
 7603SOL    HW224707   0.766   7.340  10.714
 7604SOL     OW24708   4.790  14.744  13.794
 7604SOL    HW124709   4.803  14.709  13.706
 7604SOL    HW224710   4.867  14.799  13.810
 7605SOL     OW24711   2.959   7.859   4.267
 7605SOL    HW124712   2.881   7.856   4.322
 7605SOL    HW224713   3.015   7.925   4.308
 7606SOL     OW24714   5.895   4.828   6.057
 7606SOL    HW124715   5.989   4.845   6.049
 7606SOL    HW224716   5.854   4.914   6.051
 7607SOL     OW24717   3.025   8.849  13.183
 7607SOL    HW124718   3.084   8.914  13.221
 7607SOL    HW224719   2.938   8.875  13.213
 7608SOL     OW24720   8.673   5.416   8.390
 7608SOL    HW124721   8.598   5.368   8.354
 7608SOL    HW224722   8.634   5.493   8.432
 7609SOL     OW24723   6.242  10.780   9.100
 7609SOL    HW124724   6.302  10.718   9.058
 7609SOL    HW224725   6.292  10.861   9.108
 7610SOL     OW24726  10.993   4.242   4.602
 7610SOL    HW124727  10.927   4.240   4.670
 7610SOL    HW224728  10.964   4.311   4.542
 7611SOL     OW24729   4.692   9.511  13.995
 7611SOL    HW124730   4.706   9.591  14.044
 7611SOL    HW224731   4.744   9.445  14.041
 7612SOL     OW24732   7.776  14.422   7.057
 7612SOL    HW124733   7.800  14.396   7.146
 7612SOL    HW224734   7.822  14.505   7.043
 7613SOL     OW24735   9.298   4.903   5.562
 7613SOL    HW124736   9.366   4.839   5.582
 7613SOL    HW224737   9.298   4.910   5.467
 7614SOL     OW24738  12.400   4.469   9.651
 7614SOL    HW124739  12.403   4.382   9.612
 7614SOL    HW224740  12.392   4.529   9.577
 7615SOL     OW24741   4.008  12.728   6.046
 7615SOL    HW124742   3.997  12.704   6.138
 7615SOL    HW224743   4.102  12.748   6.038
 7616SOL     OW24744   2.382  14.518   7.598
 7616SOL    HW124745   2.472  14.521   7.630
 7616SOL    HW224746   2.391  14.512   7.502
 7617SOL     OW24747   3.048  13.782  12.450
 7617SOL    HW124748   2.982  13.846  12.425
 7617SOL    HW224749   3.091  13.820  12.527
 7618SOL     OW24750   7.922   5.932   1.383
 7618SOL    HW124751   7.875   5.988   1.445
 7618SOL    HW224752   7.998   5.984   1.356
 7619SOL     OW24753  10.045   0.447   8.845
 7619SOL    HW124754  10.132   0.441   8.882
 7619SOL    HW224755   9.991   0.484   8.915
 7620SOL     OW24756   0.096   9.440   8.535
 7620SOL    HW124757   0.039   9.404   8.604
 7620SOL    HW224758   0.035   9.467   8.466
 7621SOL     OW24759   9.720   3.868   3.184
 7621SOL    HW124760   9.654   3.912   3.130
 7621SOL    HW224761   9.689   3.778   3.190
 7622SOL     OW24762   9.419  11.463   8.512
 7622SOL    HW124763   9.448  11.552   8.491
 7622SOL    HW224764   9.497  11.420   8.547
 7623SOL     OW24765  10.322   4.705   8.101
 7623SOL    HW124766  10.295   4.707   8.009
 7623SOL    HW224767  10.407   4.749   8.102
 7624SOL     OW24768   3.271  13.134   5.378
 7624SOL    HW124769   3.296  13.067   5.314
 7624SOL    HW224770   3.202  13.094   5.430
 7625SOL     OW24771  10.418   9.226   0.992
 7625SOL    HW124772  10.326   9.231   0.967
 7625SOL    HW224773  10.466   9.230   0.910
 7626SOL     OW24774   4.322   5.835  10.250
 7626SOL    HW124775   4.352   5.871  10.334
 7626SOL    HW224776   4.335   5.741  10.259
 7627SOL     OW24777   5.419  14.813   5.129
 7627SOL    HW124778   5.334  14.771   5.135
 7627SOL    HW224779   5.437  14.817   5.035
 7628SOL     OW24780  12.686  14.170   4.120
 7628SOL    HW124781  12.772  14.132   4.136
 7628SOL    HW224782  12.641  14.107   4.064
 7629SOL     OW24783   3.784   7.700   9.764
 7629SOL    HW124784   3.833   7.769   9.719
 7629SOL    HW224785   3.823   7.696   9.851
 7630SOL     OW24786  10.454   3.462   3.955
 7630SOL    HW124787  10.379   3.507   3.918
 7630SOL    HW224788  10.510   3.533   3.989
 7631SOL     OW24789   0.348   0.956   8.877
 7631SOL    HW124790   0.312   0.957   8.965
 7631SOL    HW224791   0.332   0.867   8.845
 7632SOL     OW24792   8.382   2.000   0.812
 7632SOL    HW124793   8.426   1.980   0.895
 7632SOL    HW224794   8.415   1.934   0.752
 7633SOL     OW24795   7.893   6.470  12.469
 7633SOL    HW124796   7.903   6.376  12.456
 7633SOL    HW224797   7.873   6.480  12.562
 7634SOL     OW24798   6.101  12.238   5.949
 7634SOL    HW124799   6.157  12.222   6.025
 7634SOL    HW224800   6.089  12.151   5.910
 7635SOL     OW24801   0.649   2.350   4.591
 7635SOL    HW124802   0.740   2.381   4.599
 7635SOL    HW224803   0.628   2.317   4.678
 7636SOL     OW24804   2.469  10.384   0.820
 7636SOL    HW124805   2.548  10.379   0.873
 7636SOL    HW224806   2.500  10.381   0.730
 7637SOL     OW24807  14.173  14.381   1.406
 7637SOL    HW124808  14.247  14.441   1.411
 7637SOL    HW224809  14.161  14.366   1.312
 7638SOL     OW24810   5.390   5.282   5.228
 7638SOL    HW124811   5.405   5.360   5.280
 7638SOL    HW224812   5.470   5.270   5.177
 7639SOL     OW24813  14.794  12.128  11.678
 7639SOL    HW124814  14.790  12.218  11.709
 7639SOL    HW224815  14.709  12.113  11.637
 7640SOL     OW24816   6.370   4.429   7.431
 7640SOL    HW124817   6.412   4.447   7.515
 7640SOL    HW224818   6.276   4.424   7.452
 7641SOL     OW24819   4.577  10.888  12.126
 7641SOL    HW124820   4.581  10.863  12.218
 7641SOL    HW224821   4.571  10.805  12.079
 7642SOL     OW24822   1.617   7.402   9.410
 7642SOL    HW124823   1.711   7.421   9.411
 7642SOL    HW224824   1.584   7.451   9.335
 7643SOL     OW24825  12.053  14.596   8.237
 7643SOL    HW124826  12.113  14.556   8.300
 7643SOL    HW224827  12.079  14.688   8.235
 7644SOL     OW24828   2.603   9.221   0.895
 7644SOL    HW124829   2.639   9.150   0.841
 7644SOL    HW224830   2.673   9.286   0.898
 7645SOL     OW24831   7.458  12.232  12.278
 7645SOL    HW124832   7.500  12.217  12.194
 7645SOL    HW224833   7.378  12.179  12.276
 7646SOL     OW24834   9.373  10.339  14.589
 7646SOL    HW124835   9.295  10.323  14.535
 7646SOL    HW224836   9.346  10.316  14.678
 7647SOL     OW24837   6.618   7.702   6.595
 7647SOL    HW124838   6.675   7.681   6.669
 7647SOL    HW224839   6.557   7.628   6.590
 7648SOL     OW24840   3.214  12.220   0.440
 7648SOL    HW124841   3.164  12.281   0.386
 7648SOL    HW224842   3.297  12.265   0.456
 7649SOL     OW24843  14.429   4.772   2.827
 7649SOL    HW124844  14.399   4.754   2.916
 7649SOL    HW224845  14.480   4.694   2.803
 7650SOL     OW24846   3.353   1.601  13.696
 7650SOL    HW124847   3.414   1.671  13.718
 7650SOL    HW224848   3.282   1.646  13.648
 7651SOL     OW24849   6.552   8.782  11.049
 7651SOL    HW124850   6.612   8.725  11.001
 7651SOL    HW224851   6.498   8.821  10.980
 7652SOL     OW24852  14.664   5.689  12.476
 7652SOL    HW124853  14.699   5.608  12.438
 7652SOL    HW224854  14.580   5.663  12.514
 7653SOL     OW24855   0.800   6.115   8.033
 7653SOL    HW124856   0.721   6.126   7.979
 7653SOL    HW224857   0.863   6.073   7.974
 7654SOL     OW24858  14.772  14.619   5.372
 7654SOL    HW124859  14.689  14.575   5.391
 7654SOL    HW224860  14.789  14.602   5.280
 7655SOL     OW24861   3.992   8.961   3.753
 7655SOL    HW124862   4.016   8.927   3.667
 7655SOL    HW224863   4.031   8.899   3.815
 7656SOL     OW24864  10.902   8.247  11.228
 7656SOL    HW124865  10.994   8.220  11.234
 7656SOL    HW224866  10.879   8.273  11.317
 7657SOL     OW24867  13.074  12.189  14.288
 7657SOL    HW124868  13.055  12.102  14.323
 7657SOL    HW224869  13.054  12.183  14.195
 7658SOL     OW24870  11.877   3.730  10.779
 7658SOL    HW124871  11.934   3.765  10.710
 7658SOL    HW224872  11.852   3.643  10.747
 7659SOL     OW24873  11.330  10.002  12.838
 7659SOL    HW124874  11.347   9.910  12.819
 7659SOL    HW224875  11.370  10.050  12.765
 7660SOL     OW24876   5.297   4.182   3.459
 7660SOL    HW124877   5.204   4.204   3.455
 7660SOL    HW224878   5.303   4.098   3.413
 7661SOL     OW24879   1.630   0.893   3.225
 7661SOL    HW124880   1.709   0.871   3.177
 7661SOL    HW224881   1.561   0.840   3.183
 7662SOL     OW24882   1.423   5.599  12.988
 7662SOL    HW124883   1.419   5.504  12.977
 7662SOL    HW224884   1.469   5.630  12.910
 7663SOL     OW24885   8.156  12.717   0.202
 7663SOL    HW124886   8.223  12.675   0.257
 7663SOL    HW224887   8.078  12.664   0.216
 7664SOL     OW24888  14.835   5.250   6.625
 7664SOL    HW124889  14.843   5.292   6.540
 7664SOL    HW224890   0.041   5.279   6.673
 7665SOL     OW24891  13.704  13.774  12.596
 7665SOL    HW124892  13.635  13.833  12.565
 7665SOL    HW224893  13.687  13.764  12.690
 7666SOL     OW24894  14.380   0.693   3.352
 7666SOL    HW124895  14.435   0.615   3.358
 7666SOL    HW224896  14.425   0.750   3.290
 7667SOL     OW24897   6.668   6.219   1.797
 7667SOL    HW124898   6.632   6.134   1.772
 7667SOL    HW224899   6.710   6.251   1.717
 7668SOL     OW24900   5.017   7.279  14.133
 7668SOL    HW124901   4.958   7.351  14.156
 7668SOL    HW224902   4.979   7.203  14.177
 7669SOL     OW24903  12.035   6.657   4.188
 7669SOL    HW124904  12.019   6.579   4.241
 7669SOL    HW224905  12.114   6.695   4.227
 7670SOL     OW24906   1.620  14.636   8.515
 7670SOL    HW124907   1.527  14.619   8.529
 7670SOL    HW224908   1.649  14.566   8.456
 7671SOL     OW24909  10.292   4.003  10.997
 7671SOL    HW124910  10.319   3.919  11.034
 7671SOL    HW224911  10.223   4.034  11.056
 7672SOL     OW24912   2.730   4.903   4.242
 7672SOL    HW124913   2.789   4.843   4.288
 7672SOL    HW224914   2.720   4.977   4.302
 7673SOL     OW24915   0.079  10.702   4.372
 7673SOL    HW124916   0.045  10.632   4.427
 7673SOL    HW224917   0.003  10.733   4.323
 7674SOL     OW24918   5.366   4.488   0.617
 7674SOL    HW124919   5.351   4.556   0.683
 7674SOL    HW224920   5.297   4.502   0.552
 7675SOL     OW24921   2.827   2.868  12.418
 7675SOL    HW124922   2.919   2.892  12.409
 7675SOL    HW224923   2.780   2.933  12.367
 7676SOL     OW24924   8.581  10.682   4.447
 7676SOL    HW124925   8.651  10.656   4.508
 7676SOL    HW224926   8.597  10.630   4.369
 7677SOL     OW24927  11.629   5.486   3.949
 7677SOL    HW124928  11.577   5.458   3.874
 7677SOL    HW224929  11.575   5.550   3.994
 7678SOL     OW24930   3.856  14.530  10.952
 7678SOL    HW124931   3.841  14.513  11.045
 7678SOL    HW224932   3.773  14.566  10.920
 7679SOL     OW24933   0.523  10.518   0.598
 7679SOL    HW124934   0.575  10.539   0.675
 7679SOL    HW224935   0.492  10.602   0.565
 7680SOL     OW24936   6.159   9.783   0.082
 7680SOL    HW124937   6.207   9.720   0.137
 7680SOL    HW224938   6.177   9.755  14.865
 7681SOL     OW24939   7.823   4.111  14.744
 7681SOL    HW124940   7.779   4.189  14.710
 7681SOL    HW224941   7.766   4.080  14.814
 7682SOL     OW24942  14.699  10.057   2.736
 7682SOL    HW124943  14.775  10.000   2.738
 7682SOL    HW224944  14.647  10.029   2.812
 7683SOL     OW24945   8.043   5.101   8.668
 7683SOL    HW124946   8.093   5.057   8.599
 7683SOL    HW224947   7.982   5.035   8.699
 7684SOL     OW24948   7.821   3.002   5.262
 7684SOL    HW124949   7.746   3.032   5.209
 7684SOL    HW224950   7.807   3.043   5.347
 7685SOL     OW24951   7.964  13.780  12.130
 7685SOL    HW124952   7.876  13.817  12.122
 7685SOL    HW224953   8.001  13.785  12.042
 7686SOL     OW24954   4.830   6.227  10.700
 7686SOL    HW124955   4.810   6.301  10.643
 7686SOL    HW224956   4.892   6.174  10.651
 7687SOL     OW24957  12.274   8.251   2.954
 7687SOL    HW124958  12.209   8.304   2.908
 7687SOL    HW224959  12.241   8.161   2.946
 7688SOL     OW24960   0.821   7.150  11.378
 7688SOL    HW124961   0.886   7.169  11.311
 7688SOL    HW224962   0.746   7.206  11.355
 7689SOL     OW24963   0.007   7.426   8.914
 7689SOL    HW124964   0.052   7.448   8.832
 7689SOL    HW224965   0.000   7.330   8.912
 7690SOL     OW24966  14.397   5.751  10.667
 7690SOL    HW124967  14.340   5.817  10.706
 7690SOL    HW224968  14.338   5.685  10.632
 7691SOL     OW24969   6.371   0.963   9.187
 7691SOL    HW124970   6.439   0.987   9.251
 7691SOL    HW224971   6.401   0.881   9.150
 7692SOL     OW24972  14.525   7.804   8.121
 7692SOL    HW124973  14.435   7.781   8.100
 7692SOL    HW224974  14.518   7.874   8.186
 7693SOL     OW24975  13.116   8.887   2.519
 7693SOL    HW124976  13.091   8.794   2.521
 7693SOL    HW224977  13.105   8.917   2.609
 7694SOL     OW24978   6.655  10.360   3.894
 7694SOL    HW124979   6.735  10.319   3.929
 7694SOL    HW224980   6.634  10.429   3.957
 7695SOL     OW24981   4.285   1.665   8.441
 7695SOL    HW124982   4.259   1.727   8.373
 7695SOL    HW224983   4.346   1.714   8.496
 7696SOL     OW24984   7.331   6.908   6.915
 7696SOL    HW124985   7.263   6.864   6.966
 7696SOL    HW224986   7.398   6.931   6.980
 7697SOL     OW24987   4.767  11.426  11.866
 7697SOL    HW124988   4.787  11.451  11.776
 7697SOL    HW224989   4.848  11.446  11.914
 7698SOL     OW24990   6.935   0.323   7.124
 7698SOL    HW124991   7.014   0.270   7.120
 7698SOL    HW224992   6.957   0.396   7.182
 7699SOL     OW24993   5.882   9.897  14.765
 7699SOL    HW124994   5.860   9.877  14.674
 7699SOL    HW224995   5.854   9.820  14.814
 7700SOL     OW24996   6.649   5.589   0.591
 7700SOL    HW124997   6.735   5.630   0.586
 7700SOL    HW224998   6.642   5.557   0.682
 7701SOL     OW24999   0.312   7.907   5.819
 7701SOL    HW125000   0.240   7.916   5.756
 7701SOL    HW225001   0.360   7.830   5.790
 7702SOL     OW25002  12.896   8.271   6.331
 7702SOL    HW125003  12.901   8.214   6.408
 7702SOL    HW225004  12.863   8.354   6.364
 7703SOL     OW25005   5.171   1.301  12.854
 7703SOL    HW125006   5.185   1.393  12.876
 7703SOL    HW225007   5.157   1.301  12.759
 7704SOL     OW25008   7.428  14.486  10.246
 7704SOL    HW125009   7.454  14.397  10.225
 7704SOL    HW225010   7.510  14.534  10.254
 7705SOL     OW25011   5.609   7.315   6.613
 7705SOL    HW125012   5.529   7.342   6.567
 7705SOL    HW225013   5.667   7.391   6.606
 7706SOL     OW25014  12.832   0.797   8.012
 7706SOL    HW125015  12.737   0.805   8.019
 7706SOL    HW225016  12.849   0.703   8.023
 7707SOL     OW25017   5.109  11.814  13.197
 7707SOL    HW125018   5.079  11.778  13.281
 7707SOL    HW225019   5.096  11.743  13.135
 7708SOL     OW25020   9.160   7.555   3.777
 7708SOL    HW125021   9.169   7.650   3.763
 7708SOL    HW225022   9.250   7.525   3.790
 7709SOL     OW25023   3.154  10.769   3.618
 7709SOL    HW125024   3.089  10.833   3.647
 7709SOL    HW225025   3.158  10.780   3.524
 7710SOL     OW25026   2.280  14.672   0.867
 7710SOL    HW125027   2.329  14.669   0.785
 7710SOL    HW225028   2.346  14.690   0.934
 7711SOL     OW25029   5.796  12.499  14.092
 7711SOL    HW125030   5.875  12.507  14.038
 7711SOL    HW225031   5.744  12.576  14.071
 7712SOL     OW25032  14.526   0.805  13.886
 7712SOL    HW125033  14.515   0.754  13.966
 7712SOL    HW225034  14.607   0.855  13.901
 7713SOL     OW25035   6.729   9.944   9.745
 7713SOL    HW125036   6.759   9.986   9.825
 7713SOL    HW225037   6.665   9.879   9.774
 7714SOL     OW25038   9.863   6.040   5.695
 7714SOL    HW125039   9.817   6.054   5.778
 7714SOL    HW225040   9.931   5.976   5.717
 7715SOL     OW25041  12.864  12.401   6.129
 7715SOL    HW125042  12.778  12.438   6.148
 7715SOL    HW225043  12.877  12.335   6.198
 7716SOL     OW25044  10.498  12.094  11.641
 7716SOL    HW125045  10.480  12.147  11.719
 7716SOL    HW225046  10.556  12.024  11.673
 7717SOL     OW25047  13.624  10.741   9.431
 7717SOL    HW125048  13.561  10.800   9.472
 7717SOL    HW225049  13.600  10.654   9.464
 7718SOL     OW25050   2.910   5.948   4.062
 7718SOL    HW125051   2.960   5.995   3.995
 7718SOL    HW225052   2.845   5.898   4.012
 7719SOL     OW25053   1.519   8.356   7.410
 7719SOL    HW125054   1.466   8.287   7.449
 7719SOL    HW225055   1.460   8.431   7.405
 7720SOL     OW25056  10.183  10.792  12.023
 7720SOL    HW125057  10.131  10.791  12.103
 7720SOL    HW225058  10.265  10.834  12.048
 7721SOL     OW25059  12.986   2.962  13.912
 7721SOL    HW125060  12.992   2.947  14.006
 7721SOL    HW225061  13.066   2.923  13.876
 7722SOL     OW25062   9.422  13.159   7.436
 7722SOL    HW125063   9.505  13.181   7.393
 7722SOL    HW225064   9.443  13.161   7.530
 7723SOL     OW25065  10.245   7.860  12.335
 7723SOL    HW125066  10.311   7.851  12.404
 7723SOL    HW225067  10.264   7.788  12.274
 7724SOL     OW25068  13.030   2.415   1.507
 7724SOL    HW125069  13.099   2.466   1.550
 7724SOL    HW225070  13.074   2.333   1.482
 7725SOL     OW25071   1.259   2.766  14.696
 7725SOL    HW125072   1.340   2.768  14.644
 7725SOL    HW225073   1.273   2.695  14.759
 7726SOL     OW25074   8.529  12.788  13.613
 7726SOL    HW125075   8.458  12.851  13.601
 7726SOL    HW225076   8.595  12.814  13.550
 7727SOL     OW25077   1.063   5.559  13.867
 7727SOL    HW125078   1.157   5.553  13.886
 7727SOL    HW225079   1.058   5.557  13.771
 7728SOL     OW25080  12.986   4.568  12.223
 7728SOL    HW125081  13.064   4.525  12.258
 7728SOL    HW225082  12.918   4.550  12.288
 7729SOL     OW25083  11.869   2.008  10.322
 7729SOL    HW125084  11.854   2.007  10.416
 7729SOL    HW225085  11.846   2.098  10.296
 7730SOL     OW25086  13.941   2.122   8.641
 7730SOL    HW125087  13.907   2.039   8.607
 7730SOL    HW225088  13.986   2.098   8.722
 7731SOL     OW25089   9.198  14.361   7.694
 7731SOL    HW125090   9.178  14.270   7.718
 7731SOL    HW225091   9.277  14.354   7.640
 7732SOL     OW25092   6.355  13.463   4.188
 7732SOL    HW125093   6.341  13.523   4.261
 7732SOL    HW225094   6.306  13.385   4.211
 7733SOL     OW25095   2.762  13.956   2.895
 7733SOL    HW125096   2.857  13.956   2.889
 7733SOL    HW225097   2.743  13.953   2.989
 7734SOL     OW25098   2.347  11.012  14.555
 7734SOL    HW125099   2.325  11.099  14.587
 7734SOL    HW225100   2.399  11.027  14.476
 7735SOL     OW25101   5.206   6.799   5.694
 7735SOL    HW125102   5.275   6.864   5.693
 7735SOL    HW225103   5.240   6.728   5.749
 7736SOL     OW25104  11.506   0.869  12.359
 7736SOL    HW125105  11.485   0.780  12.330
 7736SOL    HW225106  11.597   0.882  12.334
 7737SOL     OW25107   6.251   5.998   3.340
 7737SOL    HW125108   6.177   5.942   3.365
 7737SOL    HW225109   6.317   5.937   3.306
 7738SOL     OW25110   3.441   4.811  11.895
 7738SOL    HW125111   3.366   4.853  11.936
 7738SOL    HW225112   3.410   4.787  11.807
 7739SOL     OW25113   4.275   2.611  14.272
 7739SOL    HW125114   4.321   2.680  14.224
 7739SOL    HW225115   4.345   2.558  14.311
 7740SOL     OW25116  10.621   1.608  11.002
 7740SOL    HW125117  10.579   1.650  10.927
 7740SOL    HW225118  10.548   1.575  11.055
 7741SOL     OW25119   4.998   0.638   6.374
 7741SOL    HW125120   5.045   0.560   6.346
 7741SOL    HW225121   5.038   0.710   6.326
 7742SOL     OW25122   1.322   4.173  14.455
 7742SOL    HW125123   1.289   4.096  14.408
 7742SOL    HW225124   1.325   4.145  14.547
 7743SOL     OW25125  13.596  14.204   1.673
 7743SOL    HW125126  13.550  14.122   1.657
 7743SOL    HW225127  13.649  14.187   1.751
 7744SOL     OW25128   9.853   0.606   4.072
 7744SOL    HW125129   9.807   0.677   4.116
 7744SOL    HW225130   9.842   0.531   4.130
 7745SOL     OW25131   8.169  10.779   0.016
 7745SOL    HW125132   8.195  10.824  14.807
 7745SOL    HW225133   8.181  10.686  14.868
 7746SOL     OW25134   0.199  13.733  13.426
 7746SOL    HW125135   0.136  13.765  13.491
 7746SOL    HW225136   0.203  13.639  13.440
 7747SOL     OW25137   7.426  13.128   5.567
 7747SOL    HW125138   7.382  13.212   5.560
 7747SOL    HW225139   7.488  13.139   5.639
 7748SOL     OW25140   2.480   6.748   5.170
 7748SOL    HW125141   2.565   6.745   5.127
 7748SOL    HW225142   2.485   6.823   5.229
 7749SOL     OW25143  11.688  12.161   9.959
 7749SOL    HW125144  11.763  12.220   9.959
 7749SOL    HW225145  11.708  12.096  10.026
 7750SOL     OW25146  13.822   1.735   3.696
 7750SOL    HW125147  13.835   1.813   3.643
 7750SOL    HW225148  13.736   1.701   3.668
 7751SOL     OW25149   6.952   8.244  10.381
 7751SOL    HW125150   6.937   8.154  10.353
 7751SOL    HW225151   6.884   8.295  10.338
 7752SOL     OW25152  11.466   2.480   8.029
 7752SOL    HW125153  11.490   2.565   7.991
 7752SOL    HW225154  11.549   2.445   8.061
 7753SOL     OW25155   5.002   2.846   6.947
 7753SOL    HW125156   5.028   2.901   6.873
 7753SOL    HW225157   5.013   2.756   6.914
 7754SOL     OW25158   5.438   7.557  12.575
 7754SOL    HW125159   5.431   7.613  12.498
 7754SOL    HW225160   5.358   7.505  12.574
 7755SOL     OW25161   8.274  10.671   9.919
 7755SOL    HW125162   8.310  10.664  10.007
 7755SOL    HW225163   8.295  10.587   9.878
 7756SOL     OW25164   3.908   5.765  13.502
 7756SOL    HW125165   3.886   5.858  13.508
 7756SOL    HW225166   3.932   5.740  13.591
 7757SOL     OW25167   6.350  10.208   0.951
 7757SOL    HW125168   6.328  10.252   1.033
 7757SOL    HW225169   6.360  10.279   0.888
 7758SOL     OW25170  13.047   1.359  14.058
 7758SOL    HW125171  13.131   1.374  14.100
 7758SOL    HW225172  12.992   1.432  14.086
 7759SOL     OW25173   9.466   1.974  10.334
 7759SOL    HW125174   9.483   2.068  10.344
 7759SOL    HW225175   9.513   1.933  10.407
 7760SOL     OW25176   2.925   8.207   9.787
 7760SOL    HW125177   2.883   8.185   9.869
 7760SOL    HW225178   2.878   8.285   9.756
 7761SOL     OW25179  14.799   2.232   0.999
 7761SOL    HW125180  14.719   2.229   0.946
 7761SOL    HW225181  14.829   2.323   0.991
 7762SOL     OW25182   7.570   9.823  14.355
 7762SOL    HW125183   7.653   9.807  14.308
 7762SOL    HW225184   7.552   9.741  14.400
 7763SOL     OW25185   6.859   8.213  11.839
 7763SOL    HW125186   6.806   8.291  11.824
 7763SOL    HW225187   6.807   8.141  11.804
 7764SOL     OW25188  11.726   8.980   3.306
 7764SOL    HW125189  11.747   8.906   3.363
 7764SOL    HW225190  11.811   9.022   3.290
 7765SOL     OW25191   2.472   4.930  11.949
 7765SOL    HW125192   2.497   4.853  11.999
 7765SOL    HW225193   2.534   4.933  11.876
 7766SOL     OW25194  10.151   7.713  14.557
 7766SOL    HW125195  10.124   7.645  14.496
 7766SOL    HW225196  10.099   7.790  14.532
 7767SOL     OW25197  14.170   0.756  11.771
 7767SOL    HW125198  14.099   0.718  11.823
 7767SOL    HW225199  14.239   0.689  11.773
 7768SOL     OW25200   9.397   1.759   2.326
 7768SOL    HW125201   9.435   1.778   2.240
 7768SOL    HW225202   9.424   1.669   2.344
 7769SOL     OW25203   0.732   1.328  12.331
 7769SOL    HW125204   0.742   1.380  12.251
 7769SOL    HW225205   0.781   1.377  12.397
 7770SOL     OW25206  12.687  13.969   1.270
 7770SOL    HW125207  12.766  14.004   1.311
 7770SOL    HW225208  12.655  13.904   1.333
 7771SOL     OW25209   9.572   5.547   9.642
 7771SOL    HW125210   9.498   5.494   9.670
 7771SOL    HW225211   9.579   5.616   9.707
 7772SOL     OW25212   0.909  11.469   7.463
 7772SOL    HW125213   0.823  11.495   7.431
 7772SOL    HW225214   0.923  11.521   7.541
 7773SOL     OW25215  12.327   5.737   4.933
 7773SOL    HW125216  12.298   5.810   4.987
 7773SOL    HW225217  12.301   5.761   4.844
 7774SOL     OW25218   5.173   0.803  11.819
 7774SOL    HW125219   5.088   0.772  11.789
 7774SOL    HW225220   5.213   0.842  11.742
 7775SOL     OW25221   2.345   3.795  11.567
 7775SOL    HW125222   2.379   3.707  11.550
 7775SOL    HW225223   2.302   3.819  11.485
 7776SOL     OW25224   8.363   6.821   7.960
 7776SOL    HW125225   8.268   6.830   7.962
 7776SOL    HW225226   8.381   6.774   7.878
 7777SOL     OW25227  12.370   7.360   5.387
 7777SOL    HW125228  12.428   7.304   5.335
 7777SOL    HW225229  12.429   7.406   5.447
 7778SOL     OW25230   3.370   9.556  14.791
 7778SOL    HW125231   3.385   9.511  14.708
 7778SOL    HW225232   3.372   9.486  14.856
 7779SOL     OW25233   9.684   1.715   4.162
 7779SOL    HW125234   9.740   1.682   4.232
 7779SOL    HW225235   9.661   1.804   4.189
 7780SOL     OW25236   6.326  13.369   2.512
 7780SOL    HW125237   6.352  13.416   2.591
 7780SOL    HW225238   6.322  13.277   2.538
 7781SOL     OW25239   3.480  14.332  14.563
 7781SOL    HW125240   3.463  14.268  14.632
 7781SOL    HW225241   3.412  14.316  14.498
 7782SOL     OW25242   1.202   3.137   3.423
 7782SOL    HW125243   1.293   3.107   3.425
 7782SOL    HW225244   1.162   3.096   3.501
 7783SOL     OW25245  14.490   3.519   4.516
 7783SOL    HW125246  14.433   3.544   4.589
 7783SOL    HW225247  14.430   3.502   4.443
 7784SOL     OW25248   4.057   8.743  11.363
 7784SOL    HW125249   4.108   8.671  11.400
 7784SOL    HW225250   4.117   8.818  11.364
 7785SOL     OW25251   7.647   0.488   6.253
 7785SOL    HW125252   7.697   0.529   6.325
 7785SOL    HW225253   7.584   0.555   6.227
 7786SOL     OW25254   7.936   6.605   9.713
 7786SOL    HW125255   7.990   6.531   9.684
 7786SOL    HW225256   7.954   6.675   9.650
 7787SOL     OW25257   5.605   0.310   7.184
 7787SOL    HW125258   5.541   0.381   7.184
 7787SOL    HW225259   5.559   0.236   7.144
 7788SOL     OW25260  13.892   5.187   6.843
 7788SOL    HW125261  13.851   5.111   6.886
 7788SOL    HW225262  13.825   5.219   6.782
 7789SOL     OW25263   4.436   6.036   4.289
 7789SOL    HW125264   4.354   6.075   4.257
 7789SOL    HW225265   4.412   5.946   4.312
 7790SOL     OW25266   7.370   5.905  10.510
 7790SOL    HW125267   7.318   5.962  10.567
 7790SOL    HW225268   7.318   5.897  10.431
 7791SOL     OW25269   3.322   2.947   9.972
 7791SOL    HW125270   3.407   2.992   9.979
 7791SOL    HW225271   3.266   2.991  10.036
 7792SOL     OW25272  10.773  14.673   3.534
 7792SOL    HW125273  10.680  14.683   3.553
 7792SOL    HW225274  10.778  14.600   3.473
 7793SOL     OW25275  14.783   3.810   4.330
 7793SOL    HW125276  14.757   3.718   4.336
 7793SOL    HW225277  14.794   3.826   4.236
 7794SOL     OW25278   3.720   0.238   0.895
 7794SOL    HW125279   3.661   0.197   0.957
 7794SOL    HW225280   3.712   0.332   0.911
 7795SOL     OW25281  11.585  14.808   8.153
 7795SOL    HW125282  11.664  14.757   8.169
 7795SOL    HW225283  11.513  14.749   8.174
 7796SOL     OW25284   0.418  11.510   3.588
 7796SOL    HW125285   0.373  11.502   3.504
 7796SOL    HW225286   0.511  11.501   3.566
 7797SOL     OW25287   9.551   8.978   7.632
 7797SOL    HW125288   9.644   9.001   7.632
 7797SOL    HW225289   9.515   9.024   7.708
 7798SOL     OW25290  11.103  11.189   2.161
 7798SOL    HW125291  11.176  11.250   2.152
 7798SOL    HW225292  11.075  11.173   2.070
 7799SOL     OW25293   3.529   8.633  13.882
 7799SOL    HW125294   3.443   8.675  13.889
 7799SOL    HW225295   3.574   8.682  13.813
 7800SOL     OW25296   3.526   8.188   4.743
 7800SOL    HW125297   3.578   8.148   4.673
 7800SOL    HW225298   3.576   8.172   4.822
 7801SOL     OW25299   8.441   2.354   8.851
 7801SOL    HW125300   8.380   2.382   8.783
 7801SOL    HW225301   8.437   2.424   8.916
 7802SOL     OW25302  11.815  14.061   8.360
 7802SOL    HW125303  11.896  14.024   8.396
 7802SOL    HW225304  11.825  14.054   8.265
 7803SOL     OW25305   6.746   0.626   9.697
 7803SOL    HW125306   6.682   0.645   9.629
 7803SOL    HW225307   6.825   0.672   9.670
 7804SOL     OW25308  13.405  13.712   4.934
 7804SOL    HW125309  13.380  13.801   4.961
 7804SOL    HW225310  13.375  13.705   4.844
 7805SOL     OW25311  11.469   1.911   5.891
 7805SOL    HW125312  11.506   1.920   5.979
 7805SOL    HW225313  11.395   1.852   5.902
 7806SOL     OW25314   6.044  10.111  12.621
 7806SOL    HW125315   6.047  10.185  12.560
 7806SOL    HW225316   6.039  10.151  12.708
 7807SOL     OW25317   3.536  14.296   0.840
 7807SOL    HW125318   3.597  14.357   0.883
 7807SOL    HW225319   3.543  14.318   0.747
 7808SOL     OW25320  14.547   3.636  12.723
 7808SOL    HW125321  14.623   3.693  12.734
 7808SOL    HW225322  14.510   3.627  12.811
 7809SOL     OW25323   2.436  11.044  14.295
 7809SOL    HW125324   2.483  10.980  14.241
 7809SOL    HW225325   2.353  11.058  14.249
 7810SOL     OW25326   8.519   7.085   5.101
 7810SOL    HW125327   8.612   7.084   5.121
 7810SOL    HW225328   8.482   7.149   5.162
 7811SOL     OW25329   8.638  10.182  14.337
 7811SOL    HW125330   8.554  10.191  14.293
 7811SOL    HW225331   8.657  10.270  14.370
 7812SOL     OW25332   6.692   0.572  10.970
 7812SOL    HW125333   6.779   0.555  10.934
 7812SOL    HW225334   6.676   0.498  11.029
 7813SOL     OW25335  10.809   0.467  10.961
 7813SOL    HW125336  10.896   0.427  10.969
 7813SOL    HW225337  10.819   0.531  10.891
 7814SOL     OW25338  14.581   6.369   8.303
 7814SOL    HW125339  14.668   6.348   8.337
 7814SOL    HW225340  14.584   6.344   8.211
 7815SOL     OW25341   3.093   5.210  14.868
 7815SOL    HW125342   3.029   5.234   0.063
 7815SOL    HW225343   3.115   5.119   0.016
 7816SOL     OW25344   2.942  11.281  13.905
 7816SOL    HW125345   2.924  11.353  13.845
 7816SOL    HW225346   2.981  11.213  13.850
 7817SOL     OW25347  13.461   1.143   3.456
 7817SOL    HW125348  13.535   1.098   3.495
 7817SOL    HW225349  13.424   1.195   3.527
 7818SOL     OW25350   0.215   2.830   8.023
 7818SOL    HW125351   0.304   2.844   8.054
 7818SOL    HW225352   0.186   2.916   7.993
 7819SOL     OW25353   8.509   7.995   7.276
 7819SOL    HW125354   8.423   8.026   7.247
 7819SOL    HW225355   8.504   7.996   7.371
 7820SOL     OW25356  12.678   4.488  11.095
 7820SOL    HW125357  12.627   4.466  11.174
 7820SOL    HW225358  12.646   4.427  11.029
 7821SOL     OW25359  12.652  13.424  12.195
 7821SOL    HW125360  12.597  13.495  12.161
 7821SOL    HW225361  12.681  13.377  12.116
 7822SOL     OW25362  10.718   1.206   8.535
 7822SOL    HW125363  10.782   1.217   8.464
 7822SOL    HW225364  10.647   1.155   8.495
 7823SOL     OW25365   4.733  12.361  12.151
 7823SOL    HW125366   4.733  12.450  12.186
 7823SOL    HW225367   4.652  12.322  12.185
 7824SOL     OW25368  12.031  13.040   9.398
 7824SOL    HW125369  12.120  13.029   9.363
 7824SOL    HW225370  12.045  13.065   9.490
 7825SOL     OW25371   6.511   1.359   0.272
 7825SOL    HW125372   6.445   1.369   0.340
 7825SOL    HW225373   6.473   1.296   0.211
 7826SOL     OW25374  12.064   1.969   9.047
 7826SOL    HW125375  12.091   1.878   9.034
 7826SOL    HW225376  12.090   2.013   8.966
 7827SOL     OW25377   2.004   7.460   5.606
 7827SOL    HW125378   2.011   7.441   5.700
 7827SOL    HW225379   2.068   7.529   5.591
 7828SOL     OW25380   2.299  12.839   0.264
 7828SOL    HW125381   2.273  12.877   0.348
 7828SOL    HW225382   2.392  12.821   0.274
 7829SOL     OW25383   1.514   6.017   0.099
 7829SOL    HW125384   1.445   6.084   0.097
 7829SOL    HW225385   1.554   6.027   0.185
 7830SOL     OW25386  13.108  12.001  14.866
 7830SOL    HW125387  13.184  12.026   0.047
 7830SOL    HW225388  13.135  12.018  14.776
 7831SOL     OW25389  10.027  12.354  12.635
 7831SOL    HW125390   9.959  12.385  12.575
 7831SOL    HW225391  10.037  12.425  12.698
 7832SOL     OW25392  10.304  10.259  11.771
 7832SOL    HW125393  10.293  10.298  11.684
 7832SOL    HW225394  10.363  10.318  11.817
 7833SOL     OW25395   5.372  11.058   1.292
 7833SOL    HW125396   5.449  11.004   1.310
 7833SOL    HW225397   5.331  11.016   1.216
 7834SOL     OW25398   6.989   5.858   8.425
 7834SOL    HW125399   6.894   5.846   8.425
 7834SOL    HW225400   7.013   5.860   8.332
 7835SOL     OW25401   9.127   4.649   2.985
 7835SOL    HW125402   9.193   4.687   3.043
 7835SOL    HW225403   9.099   4.721   2.929
 7836SOL     OW25404  12.754  11.534   3.697
 7836SOL    HW125405  12.739  11.623   3.667
 7836SOL    HW225406  12.702  11.527   3.778
 7837SOL     OW25407   0.040   0.229   5.931
 7837SOL    HW125408   0.092   0.197   6.004
 7837SOL    HW225409   0.028   0.152   5.875
 7838SOL     OW25410   5.868   3.306  13.459
 7838SOL    HW125411   5.826   3.383  13.422
 7838SOL    HW225412   5.903   3.258  13.384
 7839SOL     OW25413  12.173  10.476   8.723
 7839SOL    HW125414  12.176  10.395   8.672
 7839SOL    HW225415  12.262  10.484   8.759
 7840SOL     OW25416   1.326   7.346   3.985
 7840SOL    HW125417   1.284   7.374   3.904
 7840SOL    HW225418   1.269   7.382   4.054
 7841SOL     OW25419   7.300   4.979   1.898
 7841SOL    HW125420   7.310   5.074   1.909
 7841SOL    HW225421   7.387   4.944   1.914
 7842SOL     OW25422   5.226  12.865   4.878
 7842SOL    HW125423   5.167  12.896   4.809
 7842SOL    HW225424   5.235  12.771   4.860
 7843SOL     OW25425   9.760  14.072   1.362
 7843SOL    HW125426   9.689  14.135   1.352
 7843SOL    HW225427   9.736  14.019   1.438
 7844SOL     OW25428  12.440  10.510   2.994
 7844SOL    HW125429  12.475  10.469   3.073
 7844SOL    HW225430  12.484  10.595   2.990
 7845SOL     OW25431  12.140   5.486   2.955
 7845SOL    HW125432  12.187   5.566   2.931
 7845SOL    HW225433  12.089   5.465   2.878
 7846SOL     OW25434   0.277  14.464   1.533
 7846SOL    HW125435   0.280  14.371   1.510
 7846SOL    HW225436   0.269  14.509   1.449
 7847SOL     OW25437   1.613   8.767   3.968
 7847SOL    HW125438   1.596   8.861   3.976
 7847SOL    HW225439   1.529   8.729   3.942
 7848SOL     OW25440  11.781   5.924   0.199
 7848SOL    HW125441  11.772   5.894   0.108
 7848SOL    HW225442  11.699   5.898   0.241
 7849SOL     OW25443   2.727   9.046   3.942
 7849SOL    HW125444   2.745   9.137   3.967
 7849SOL    HW225445   2.806   8.998   3.965
 7850SOL     OW25446   2.196   2.417   8.245
 7850SOL    HW125447   2.168   2.325   8.244
 7850SOL    HW225448   2.291   2.413   8.251
 7851SOL     OW25449   8.584  13.119   3.734
 7851SOL    HW125450   8.540  13.160   3.808
 7851SOL    HW225451   8.534  13.146   3.658
 7852SOL     OW25452  13.324   2.264   0.281
 7852SOL    HW125453  13.378   2.335   0.314
 7852SOL    HW225454  13.335   2.268   0.186
 7853SOL     OW25455  12.051  13.478   5.288
 7853SOL    HW125456  11.956  13.474   5.284
 7853SOL    HW225457  12.074  13.441   5.373
 7854SOL     OW25458   0.128   7.255   7.058
 7854SOL    HW125459   0.059   7.194   7.084
 7854SOL    HW225460   0.162   7.220   6.976
 7855SOL     OW25461  13.649  14.690   0.139
 7855SOL    HW125462  13.703  14.612   0.126
 7855SOL    HW225463  13.643  14.699   0.234
 7856SOL     OW25464   2.693  12.423   0.240
 7856SOL    HW125465   2.751  12.408   0.314
 7856SOL    HW225466   2.647  12.340   0.228
 7857SOL     OW25467   1.380   8.728  11.367
 7857SOL    HW125468   1.406   8.751  11.456
 7857SOL    HW225469   1.334   8.805  11.335
 7858SOL     OW25470   9.422   4.289   3.696
 7858SOL    HW125471   9.491   4.260   3.637
 7858SOL    HW225472   9.424   4.226   3.768
 7859SOL     OW25473  10.043   8.407   5.068
 7859SOL    HW125474   9.991   8.329   5.048
 7859SOL    HW225475  10.105   8.414   4.996
 7860SOL     OW25476  13.983   2.595  10.049
 7860SOL    HW125477  13.924   2.575   9.977
 7860SOL    HW225478  14.007   2.510  10.085
 7861SOL     OW25479   0.113   8.904   5.211
 7861SOL    HW125480   0.104   8.852   5.131
 7861SOL    HW225481   0.090   8.845   5.282
 7862SOL     OW25482   0.283  11.882  12.370
 7862SOL    HW125483   0.367  11.878  12.416
 7862SOL    HW225484   0.302  11.932  12.291
 7863SOL     OW25485  12.158   3.110  10.263
 7863SOL    HW125486  12.219   3.175  10.230
 7863SOL    HW225487  12.074   3.155  10.266
 7864SOL     OW25488   5.788   5.878   5.952
 7864SOL    HW125489   5.817   5.966   5.926
 7864SOL    HW225490   5.863   5.842   6.000
 7865SOL     OW25491   3.732   2.915  12.497
 7865SOL    HW125492   3.734   2.827  12.534
 7865SOL    HW225493   3.716   2.973  12.572
 7866SOL     OW25494   3.405  14.445  11.122
 7866SOL    HW125495   3.444  14.370  11.077
 7866SOL    HW225496   3.390  14.414  11.211
 7867SOL     OW25497   9.203  13.418  11.781
 7867SOL    HW125498   9.241  13.505  11.794
 7867SOL    HW225499   9.200  13.407  11.685
 7868SOL     OW25500   0.793  10.510  11.766
 7868SOL    HW125501   0.866  10.473  11.814
 7868SOL    HW225502   0.753  10.572  11.827
 7869SOL     OW25503  10.289   3.201   3.880
 7869SOL    HW125504  10.253   3.279   3.837
 7869SOL    HW225505  10.382   3.201   3.856
 7870SOL     OW25506   9.721   7.397   6.760
 7870SOL    HW125507   9.714   7.428   6.670
 7870SOL    HW225508   9.759   7.471   6.808
 7871SOL     OW25509   6.750   8.202   8.185
 7871SOL    HW125510   6.823   8.173   8.240
 7871SOL    HW225511   6.792   8.228   8.103
 7872SOL     OW25512   5.632  14.014   8.474
 7872SOL    HW125513   5.682  14.053   8.546
 7872SOL    HW225514   5.605  14.088   8.420
 7873SOL     OW25515   8.876  13.136   9.976
 7873SOL    HW125516   8.792  13.089   9.970
 7873SOL    HW225517   8.903  13.126  10.067
 7874SOL     OW25518  12.672   7.613   1.297
 7874SOL    HW125519  12.653   7.521   1.316
 7874SOL    HW225520  12.734   7.610   1.224
 7875SOL     OW25521   6.791   5.173  14.698
 7875SOL    HW125522   6.813   5.232  14.769
 7875SOL    HW225523   6.769   5.090  14.741
 7876SOL     OW25524  11.522   3.886  12.525
 7876SOL    HW125525  11.597   3.917  12.474
 7876SOL    HW225526  11.477   3.967  12.552
 7877SOL     OW25527   7.890   7.907  10.341
 7877SOL    HW125528   7.967   7.964  10.351
 7877SOL    HW225529   7.829   7.939  10.407
 7878SOL     OW25530   3.529  10.201  10.055
 7878SOL    HW125531   3.567  10.130  10.004
 7878SOL    HW225532   3.552  10.181  10.146
 7879SOL     OW25533   8.139   2.748   1.781
 7879SOL    HW125534   8.215   2.768   1.726
 7879SOL    HW225535   8.093   2.831   1.790
 7880SOL     OW25536   2.402   7.678  14.416
 7880SOL    HW125537   2.363   7.686  14.503
 7880SOL    HW225538   2.381   7.761  14.372
 7881SOL     OW25539   9.395   8.022   1.952
 7881SOL    HW125540   9.325   8.013   2.017
 7881SOL    HW225541   9.436   7.935   1.949
 7882SOL     OW25542  12.183  11.603   0.295
 7882SOL    HW125543  12.184  11.691   0.258
 7882SOL    HW225544  12.154  11.547   0.223
 7883SOL     OW25545  10.471   9.639   0.295
 7883SOL    HW125546  10.414   9.563   0.291
 7883SOL    HW225547  10.412   9.714   0.302
 7884SOL     OW25548  14.678  14.346   8.122
 7884SOL    HW125549  14.773  14.357   8.116
 7884SOL    HW225550  14.666  14.253   8.140
 7885SOL     OW25551   8.374   6.869  11.446
 7885SOL    HW125552   8.432   6.902  11.377
 7885SOL    HW225553   8.383   6.931  11.518
 7886SOL     OW25554  10.091   4.464   9.985
 7886SOL    HW125555  10.137   4.490   9.905
 7886SOL    HW225556  10.001   4.496   9.972
 7887SOL     OW25557  13.233   5.938  14.489
 7887SOL    HW125558  13.287   5.891  14.553
 7887SOL    HW225559  13.191   6.008  14.540
 7888SOL     OW25560  10.640  10.378   4.540
 7888SOL    HW125561  10.608  10.465   4.565
 7888SOL    HW225562  10.581  10.350   4.470
 7889SOL     OW25563   3.453  11.251   2.761
 7889SOL    HW125564   3.397  11.262   2.838
 7889SOL    HW225565   3.447  11.158   2.739
 7890SOL     OW25566  13.677   1.679   6.997
 7890SOL    HW125567  13.693   1.772   7.009
 7890SOL    HW225568  13.764   1.641   6.985
 7891SOL     OW25569   0.405   9.135  14.620
 7891SOL    HW125570   0.384   9.184  14.541
 7891SOL    HW225571   0.325   9.087  14.640
 7892SOL     OW25572   8.599   9.034   5.461
 7892SOL    HW125573   8.578   9.047   5.554
 7892SOL    HW225574   8.690   9.005   5.461
 7893SOL     OW25575   0.861   2.545  14.525
 7893SOL    HW125576   0.797   2.540  14.596
 7893SOL    HW225577   0.817   2.506  14.450
 7894SOL     OW25578   3.199   3.112   3.911
 7894SOL    HW125579   3.200   3.058   3.989
 7894SOL    HW225580   3.237   3.195   3.939
 7895SOL     OW25581   0.445   6.880   0.936
 7895SOL    HW125582   0.349   6.870   0.937
 7895SOL    HW225583   0.473   6.835   0.856
 7896SOL     OW25584  14.637  11.555  11.897
 7896SOL    HW125585  14.711  11.496  11.886
 7896SOL    HW225586  14.564  11.498  11.920
 7897SOL     OW25587   3.001   7.363  12.743
 7897SOL    HW125588   2.930   7.315  12.701
 7897SOL    HW225589   3.039   7.302  12.806
 7898SOL     OW25590   9.763   6.412  11.291
 7898SOL    HW125591   9.672   6.416  11.319
 7898SOL    HW225592   9.759   6.400  11.196
 7899SOL     OW25593  11.638  12.655   6.776
 7899SOL    HW125594  11.715  12.689   6.821
 7899SOL    HW225595  11.670  12.580   6.725
 7900SOL     OW25596  14.746   7.839  11.021
 7900SOL    HW125597  14.682   7.832  11.092
 7900SOL    HW225598  14.738   7.930  10.991
 7901SOL     OW25599  10.297   9.241   3.034
 7901SOL    HW125600  10.361   9.307   3.006
 7901SOL    HW225601  10.219   9.293   3.057
 7902SOL     OW25602   1.333  14.302   7.844
 7902SOL    HW125603   1.426  14.319   7.860
 7902SOL    HW225604   1.332  14.232   7.779
 7903SOL     OW25605   6.191  11.250   1.353
 7903SOL    HW125606   6.108  11.286   1.322
 7903SOL    HW225607   6.224  11.316   1.414
 7904SOL     OW25608   5.410  12.857   3.767
 7904SOL    HW125609   5.488  12.875   3.820
 7904SOL    HW225610   5.416  12.764   3.745
 7905SOL     OW25611   1.030  10.515  10.163
 7905SOL    HW125612   1.087  10.442  10.188
 7905SOL    HW225613   1.065  10.590  10.211
 7906SOL     OW25614   9.391   7.764   5.309
 7906SOL    HW125615   9.334   7.707   5.361
 7906SOL    HW225616   9.480   7.742   5.338
 7907SOL     OW25617   4.065   5.703  13.991
 7907SOL    HW125618   4.074   5.622  13.940
 7907SOL    HW225619   4.064   5.772  13.925
 7908SOL     OW25620   9.240   0.058   4.685
 7908SOL    HW125621   9.270   0.093   4.601
 7908SOL    HW225622   9.299   0.097   4.750
 7909SOL     OW25623   8.072   2.331  12.147
 7909SOL    HW125624   8.119   2.289  12.219
 7909SOL    HW225625   8.004   2.383  12.189
 7910SOL     OW25626   1.735   9.832   8.188
 7910SOL    HW125627   1.824   9.805   8.209
 7910SOL    HW225628   1.697   9.857   8.272
 7911SOL     OW25629   1.397   4.895  11.216
 7911SOL    HW125630   1.414   4.917  11.307
 7911SOL    HW225631   1.412   4.800  11.211
 7912SOL     OW25632   3.348   8.376   0.672
 7912SOL    HW125633   3.331   8.298   0.619
 7912SOL    HW225634   3.307   8.448   0.622
 7913SOL     OW25635  10.860  12.639   9.137
 7913SOL    HW125636  10.942  12.601   9.107
 7913SOL    HW225637  10.850  12.608   9.227
 7914SOL     OW25638   8.393   5.291  12.031
 7914SOL    HW125639   8.388   5.385  12.016
 7914SOL    HW225640   8.385   5.281  12.126
 7915SOL     OW25641   2.438  11.491  13.058
 7915SOL    HW125642   2.455  11.503  12.964
 7915SOL    HW225643   2.453  11.398  13.074
 7916SOL     OW25644   7.884  10.581   6.205
 7916SOL    HW125645   7.867  10.638   6.279
 7916SOL    HW225646   7.817  10.513   6.211
 7917SOL     OW25647   3.381   7.313  10.222
 7917SOL    HW125648   3.313   7.298  10.287
 7917SOL    HW225649   3.438   7.379  10.262
 7918SOL     OW25650   7.685  11.652   1.547
 7918SOL    HW125651   7.624  11.585   1.576
 7918SOL    HW225652   7.642  11.693   1.472
 7919SOL     OW25653  11.229   0.891   5.592
 7919SOL    HW125654  11.205   0.809   5.635
 7919SOL    HW225655  11.297   0.928   5.647
 7920SOL     OW25656   3.775   2.739  11.776
 7920SOL    HW125657   3.833   2.767  11.847
 7920SOL    HW225658   3.748   2.820  11.734
 7921SOL     OW25659   2.850   5.598   2.427
 7921SOL    HW125660   2.781   5.566   2.486
 7921SOL    HW225661   2.860   5.690   2.452
 7922SOL     OW25662   4.830   0.028   6.111
 7922SOL    HW125663   4.807  14.818   6.155
 7922SOL    HW225664   4.786   0.023   6.026
 7923SOL     OW25665   4.154   5.031   0.863
 7923SOL    HW125666   4.119   4.983   0.939
 7923SOL    HW225667   4.179   4.962   0.802
 7924SOL     OW25668  10.944   4.296   4.897
 7924SOL    HW125669  10.876   4.331   4.954
 7924SOL    HW225670  10.998   4.372   4.874
 7925SOL     OW25671  11.745   2.124   6.549
 7925SOL    HW125672  11.762   2.138   6.455
 7925SOL    HW225673  11.686   2.049   6.551
 7926SOL     OW25674   0.563   7.035   7.290
 7926SOL    HW125675   0.608   7.113   7.258
 7926SOL    HW225676   0.471   7.063   7.299
 7927SOL     OW25677   6.891   4.772   4.738
 7927SOL    HW125678   6.972   4.766   4.688
 7927SOL    HW225679   6.885   4.865   4.763
 7928SOL     OW25680   4.078   7.882  13.903
 7928SOL    HW125681   4.151   7.908  13.961
 7928SOL    HW225682   4.041   7.965  13.874
 7929SOL     OW25683   6.733   6.907   1.450
 7929SOL    HW125684   6.698   6.989   1.414
 7929SOL    HW225685   6.821   6.930   1.479
 7930SOL     OW25686   3.924  12.408   4.832
 7930SOL    HW125687   3.884  12.321   4.831
 7930SOL    HW225688   4.008  12.396   4.876
 7931SOL     OW25689  11.059   2.068   0.647
 7931SOL    HW125690  11.085   1.977   0.635
 7931SOL    HW225691  10.989   2.064   0.713
 7932SOL     OW25692   4.109   6.688   6.681
 7932SOL    HW125693   4.029   6.699   6.732
 7932SOL    HW225694   4.175   6.659   6.744
 7933SOL     OW25695  11.764   1.174   9.658
 7933SOL    HW125696  11.687   1.228   9.673
 7933SOL    HW225697  11.825   1.231   9.611
 7934SOL     OW25698   9.417   2.902   8.192
 7934SOL    HW125699   9.504   2.929   8.162
 7934SOL    HW225700   9.398   2.961   8.265
 7935SOL     OW25701  10.800   1.798   9.393
 7935SOL    HW125702  10.853   1.726   9.427
 7935SOL    HW225703  10.772   1.769   9.307
 7936SOL     OW25704  14.233   5.607  11.748
 7936SOL    HW125705  14.237   5.607  11.653
 7936SOL    HW225706  14.209   5.697  11.771
 7937SOL     OW25707   8.955  14.852   7.447
 7937SOL    HW125708   8.896  14.778   7.430
 7937SOL    HW225709   8.896   0.050   7.477
 7938SOL     OW25710   5.786   5.672   6.188
 7938SOL    HW125711   5.804   5.582   6.163
 7938SOL    HW225712   5.868   5.702   6.227
 7939SOL     OW25713   1.332   5.299   4.612
 7939SOL    HW125714   1.251   5.331   4.573
 7939SOL    HW225715   1.401   5.341   4.561
 7940SOL     OW25716   6.159   5.259  12.481
 7940SOL    HW125717   6.184   5.351  12.475
 7940SOL    HW225718   6.185   5.233  12.570
 7941SOL     OW25719   3.598   0.063  12.677
 7941SOL    HW125720   3.645   0.025  12.603
 7941SOL    HW225721   3.514   0.092  12.640
 7942SOL     OW25722   0.220   6.875  13.506
 7942SOL    HW125723   0.296   6.927  13.482
 7942SOL    HW225724   0.235   6.789  13.466
 7943SOL     OW25725  11.590   5.197   2.680
 7943SOL    HW125726  11.619   5.149   2.757
 7943SOL    HW225727  11.537   5.135   2.630
 7944SOL     OW25728   1.807  14.697   2.953
 7944SOL    HW125729   1.726  14.646   2.945
 7944SOL    HW225730   1.862  14.666   2.881
 7945SOL     OW25731   8.291  14.739   9.744
 7945SOL    HW125732   8.240  14.660   9.763
 7945SOL    HW225733   8.382  14.711   9.752
 7946SOL     OW25734   8.030   9.054   8.059
 7946SOL    HW125735   8.080   9.090   7.986
 7946SOL    HW225736   8.066   9.098   8.137
 7947SOL     OW25737  14.520   4.603   3.452
 7947SOL    HW125738  14.437   4.595   3.498
 7947SOL    HW225739  14.587   4.592   3.520
 7948SOL     OW25740   4.113   9.188  10.931
 7948SOL    HW125741   4.200   9.227  10.922
 7948SOL    HW225742   4.125   9.096  10.908
 7949SOL     OW25743   1.859  13.034   0.553
 7949SOL    HW125744   1.844  12.973   0.480
 7949SOL    HW225745   1.909  12.983   0.616
 7950SOL     OW25746  13.720   1.549   4.051
 7950SOL    HW125747  13.677   1.492   3.988
 7950SOL    HW225748  13.698   1.512   4.136
 7951SOL     OW25749   3.273   4.901   7.507
 7951SOL    HW125750   3.194   4.900   7.453
 7951SOL    HW225751   3.319   4.981   7.479
 7952SOL     OW25752  13.203   5.325   0.733
 7952SOL    HW125753  13.204   5.377   0.653
 7952SOL    HW225754  13.251   5.377   0.797
 7953SOL     OW25755   4.210   3.619   1.821
 7953SOL    HW125756   4.144   3.566   1.865
 7953SOL    HW225757   4.276   3.555   1.792
 7954SOL     OW25758   3.671   0.601  14.184
 7954SOL    HW125759   3.630   0.550  14.114
 7954SOL    HW225760   3.742   0.649  14.141
 7955SOL     OW25761   7.822  13.287   2.164
 7955SOL    HW125762   7.911  13.295   2.199
 7955SOL    HW225763   7.835  13.269   2.071
 7956SOL     OW25764   3.203  11.186   7.307
 7956SOL    HW125765   3.214  11.132   7.229
 7956SOL    HW225766   3.163  11.267   7.276
 7957SOL     OW25767  12.460  13.258   4.760
 7957SOL    HW125768  12.520  13.210   4.704
 7957SOL    HW225769  12.382  13.270   4.706
 7958SOL     OW25770   4.692   0.229   4.423
 7958SOL    HW125771   4.703   0.285   4.346
 7958SOL    HW225772   4.780   0.218   4.459
 7959SOL     OW25773  13.532   6.852   6.617
 7959SOL    HW125774  13.614   6.879   6.577
 7959SOL    HW225775  13.532   6.756   6.610
 7960SOL     OW25776   1.102   0.909  11.541
 7960SOL    HW125777   1.181   0.949  11.578
 7960SOL    HW225778   1.043   0.983  11.524
 7961SOL     OW25779   3.264   2.499   9.840
 7961SOL    HW125780   3.293   2.475   9.752
 7961SOL    HW225781   3.170   2.514   9.831
 7962SOL     OW25782   5.025  14.236   4.288
 7962SOL    HW125783   4.980  14.239   4.372
 7962SOL    HW225784   5.093  14.170   4.299
 7963SOL     OW25785   6.859   1.250   3.847
 7963SOL    HW125786   6.784   1.296   3.884
 7963SOL    HW225787   6.823   1.195   3.778
 7964SOL     OW25788   4.868   6.333  12.954
 7964SOL    HW125789   4.830   6.381  12.880
 7964SOL    HW225790   4.888   6.401  13.019
 7965SOL     OW25791  12.798  11.089  13.502
 7965SOL    HW125792  12.845  11.008  13.520
 7965SOL    HW225793  12.861  11.158  13.522
 7966SOL     OW25794   4.300   6.182   1.845
 7966SOL    HW125795   4.256   6.103   1.878
 7966SOL    HW225796   4.235   6.223   1.787
 7967SOL     OW25797   4.896   6.443   8.614
 7967SOL    HW125798   4.982   6.402   8.613
 7967SOL    HW225799   4.909   6.524   8.664
 7968SOL     OW25800  13.228   5.153   2.119
 7968SOL    HW125801  13.268   5.103   2.047
 7968SOL    HW225802  13.224   5.092   2.192
 7969SOL     OW25803   6.485   7.833   3.583
 7969SOL    HW125804   6.517   7.744   3.569
 7969SOL    HW225805   6.489   7.846   3.678
 7970SOL     OW25806   0.965   8.388  12.729
 7970SOL    HW125807   0.904   8.441  12.780
 7970SOL    HW225808   1.026   8.452  12.692
 7971SOL     OW25809  10.007   8.346   6.385
 7971SOL    HW125810   9.971   8.264   6.350
 7971SOL    HW225811   9.941   8.376   6.448
 7972SOL     OW25812   2.278   9.147   3.379
 7972SOL    HW125813   2.236   9.099   3.450
 7972SOL    HW225814   2.350   9.090   3.351
 7973SOL     OW25815  10.828   4.005   7.545
 7973SOL    HW125816  10.746   3.994   7.497
 7973SOL    HW225817  10.802   4.037   7.631
 7974SOL     OW25818  12.170   5.737   8.460
 7974SOL    HW125819  12.146   5.666   8.520
 7974SOL    HW225820  12.172   5.695   8.374
 7975SOL     OW25821   1.265  13.098   4.434
 7975SOL    HW125822   1.210  13.070   4.361
 7975SOL    HW225823   1.354  13.099   4.397
 7976SOL     OW25824  11.083  14.355   7.447
 7976SOL    HW125825  11.004  14.396   7.411
 7976SOL    HW225826  11.050  14.296   7.515
 7977SOL     OW25827  11.545   4.281   5.157
 7977SOL    HW125828  11.460   4.253   5.191
 7977SOL    HW225829  11.540   4.264   5.063
 7978SOL     OW25830   2.285   7.859   6.525
 7978SOL    HW125831   2.270   7.820   6.611
 7978SOL    HW225832   2.204   7.907   6.505
 7979SOL     OW25833   3.778   5.150  12.346
 7979SOL    HW125834   3.751   5.079  12.288
 7979SOL    HW225835   3.753   5.230  12.300
 7980SOL     OW25836  11.859   5.413  12.278
 7980SOL    HW125837  11.796   5.357  12.322
 7980SOL    HW225838  11.806   5.472  12.225
 7981SOL     OW25839   4.422   3.538   1.090
 7981SOL    HW125840   4.378   3.453   1.081
 7981SOL    HW225841   4.357   3.594   1.135
 7982SOL     OW25842   5.522   9.929  11.240
 7982SOL    HW125843   5.577  10.007  11.230
 7982SOL    HW225844   5.567   9.861  11.189
 7983SOL     OW25845   3.479  10.100   4.978
 7983SOL    HW125846   3.445  10.028   4.925
 7983SOL    HW225847   3.477  10.176   4.920
 7984SOL     OW25848   8.350   3.629   7.902
 7984SOL    HW125849   8.375   3.705   7.850
 7984SOL    HW225850   8.255   3.625   7.894
 7985SOL     OW25851  13.238  10.633   6.725
 7985SOL    HW125852  13.273  10.560   6.674
 7985SOL    HW225853  13.274  10.622   6.813
 7986SOL     OW25854   7.836   7.456   9.188
 7986SOL    HW125855   7.824   7.467   9.094
 7986SOL    HW225856   7.927   7.429   9.197
 7987SOL     OW25857  13.505   9.862  11.733
 7987SOL    HW125858  13.567   9.813  11.786
 7987SOL    HW225859  13.467   9.925  11.793
 7988SOL     OW25860  14.038   0.242  14.305
 7988SOL    HW125861  14.061   0.166  14.253
 7988SOL    HW225862  13.957   0.274  14.267
 7989SOL     OW25863   9.029  14.211   0.180
 7989SOL    HW125864   9.055  14.130   0.137
 7989SOL    HW225865   9.014  14.273   0.109
 7990SOL     OW25866  14.088  10.265  12.559
 7990SOL    HW125867  14.168  10.253  12.609
 7990SOL    HW225868  14.100  10.348  12.513
 7991SOL     OW25869   3.572   4.767  13.085
 7991SOL    HW125870   3.616   4.795  13.004
 7991SOL    HW225871   3.509   4.837  13.103
 7992SOL     OW25872   7.088   1.019   6.000
 7992SOL    HW125873   7.016   1.028   5.937
 7992SOL    HW225874   7.162   0.988   5.948
 7993SOL     OW25875  11.064  11.173  14.222
 7993SOL    HW125876  11.122  11.115  14.272
 7993SOL    HW225877  11.033  11.237  14.286
 7994SOL     OW25878   0.320   8.569   9.180
 7994SOL    HW125879   0.383   8.576   9.108
 7994SOL    HW225880   0.239   8.541   9.138
 7995SOL     OW25881   5.031  10.927   0.908
 7995SOL    HW125882   4.989  10.928   0.821
 7995SOL    HW225883   4.969  10.879   0.963
 7996SOL     OW25884   3.332  14.346   2.724
 7996SOL    HW125885   3.381  14.313   2.799
 7996SOL    HW225886   3.325  14.271   2.665
 7997SOL     OW25887   9.870   6.295  12.187
 7997SOL    HW125888   9.822   6.362  12.138
 7997SOL    HW225889   9.923   6.250  12.122
 7998SOL     OW25890  11.625   0.167  12.618
 7998SOL    HW125891  11.570   0.135  12.547
 7998SOL    HW225892  11.578   0.244  12.652
 7999SOL     OW25893  10.619   0.280   0.175
 7999SOL    HW125894  10.693   0.329   0.211
 7999SOL    HW225895  10.658   0.220   0.112
 8000SOL     OW25896   0.015   4.250   6.225
 8000SOL    HW125897  14.831   4.316   6.184
 8000SOL    HW225898  14.850   4.166   6.196
 8001SOL     OW25899   5.967   5.081  14.753
 8001SOL    HW125900   5.932   4.995  14.778
 8001SOL    HW225901   5.906   5.113  14.687
 8002SOL     OW25902   8.873  13.593   0.995
 8002SOL    HW125903   8.778  13.595   0.997
 8002SOL    HW225904   8.896  13.501   0.985
 8003SOL     OW25905  11.388   8.717  12.616
 8003SOL    HW125906  11.437   8.778  12.562
 8003SOL    HW225907  11.325   8.678  12.556
 8004SOL     OW25908   6.303  11.157   5.910
 8004SOL    HW125909   6.234  11.115   5.962
 8004SOL    HW225910   6.384  11.132   5.954
 8005SOL     OW25911   5.215  11.047   7.885
 8005SOL    HW125912   5.284  11.103   7.849
 8005SOL    HW225913   5.237  10.959   7.853
 8006SOL     OW25914  12.583   0.483   9.647
 8006SOL    HW125915  12.627   0.420   9.591
 8006SOL    HW225916  12.531   0.537   9.587
 8007SOL     OW25917   1.429   1.649   0.460
 8007SOL    HW125918   1.459   1.558   0.457
 8007SOL    HW225919   1.469   1.685   0.539
 8008SOL     OW25920  10.979   3.423  11.301
 8008SOL    HW125921  10.894   3.460  11.324
 8008SOL    HW225922  11.041   3.463  11.362
 8009SOL     OW25923  13.750   0.248  12.366
 8009SOL    HW125924  13.713   0.336  12.363
 8009SOL    HW225925  13.700   0.198  12.302
 8010SOL     OW25926   1.848  11.153   2.744
 8010SOL    HW125927   1.898  11.144   2.663
 8010SOL    HW225928   1.777  11.089   2.735
 8011SOL     OW25929   8.800   7.680   4.545
 8011SOL    HW125930   8.743   7.655   4.618
 8011SOL    HW225931   8.870   7.731   4.585
 8012SOL     OW25932   4.168   4.470  12.208
 8012SOL    HW125933   4.117   4.451  12.287
 8012SOL    HW225934   4.246   4.514  12.240
 8013SOL     OW25935  10.874  11.817  13.901
 8013SOL    HW125936  10.797  11.777  13.941
 8013SOL    HW225937  10.948  11.779  13.947
 8014SOL     OW25938   7.667   5.695   6.121
 8014SOL    HW125939   7.730   5.722   6.055
 8014SOL    HW225940   7.633   5.777   6.158
 8015SOL     OW25941  11.702   6.448   7.514
 8015SOL    HW125942  11.688   6.487   7.600
 8015SOL    HW225943  11.739   6.519   7.461
 8016SOL     OW25944   3.369   7.144   3.310
 8016SOL    HW125945   3.322   7.151   3.393
 8016SOL    HW225946   3.455   7.111   3.334
 8017SOL     OW25947  12.924   9.688   7.125
 8017SOL    HW125948  12.944   9.626   7.055
 8017SOL    HW225949  12.993   9.754   7.119
 8018SOL     OW25950   1.358  10.551  14.514
 8018SOL    HW125951   1.388  10.475  14.564
 8018SOL    HW225952   1.271  10.526  14.483
 8019SOL     OW25953   5.801   5.121   7.063
 8019SOL    HW125954   5.739   5.124   7.136
 8019SOL    HW225955   5.745   5.126   6.985
 8020SOL     OW25956   5.846   0.260   8.504
 8020SOL    HW125957   5.921   0.211   8.470
 8020SOL    HW225958   5.773   0.236   8.447
 8021SOL     OW25959   9.308   8.563   6.790
 8021SOL    HW125960   9.399   8.594   6.788
 8021SOL    HW225961   9.259   8.632   6.745
 8022SOL     OW25962   1.639   7.432   4.599
 8022SOL    HW125963   1.718   7.393   4.563
 8022SOL    HW225964   1.669   7.507   4.650
 8023SOL     OW25965  10.734   4.599   3.905
 8023SOL    HW125966  10.820   4.594   3.864
 8023SOL    HW225967  10.675   4.620   3.832
 8024SOL     OW25968   1.420   6.680  11.427
 8024SOL    HW125969   1.493   6.738  11.449
 8024SOL    HW225970   1.375   6.725  11.356
 8025SOL     OW25971  14.550  12.588  13.179
 8025SOL    HW125972  14.625  12.549  13.134
 8025SOL    HW225973  14.520  12.658  13.120
 8026SOL     OW25974   7.682   0.465   2.007
 8026SOL    HW125975   7.680   0.530   2.077
 8026SOL    HW225976   7.596   0.423   2.010
 8027SOL     OW25977   7.860   4.536   9.616
 8027SOL    HW125978   7.915   4.519   9.692
 8027SOL    HW225979   7.890   4.473   9.550
 8028SOL     OW25980   5.981  10.278   8.825
 8028SOL    HW125981   6.049  10.340   8.855
 8028SOL    HW225982   5.973  10.294   8.731
 8029SOL     OW25983  13.776   9.066   1.496
 8029SOL    HW125984  13.683   9.048   1.481
 8029SOL    HW225985  13.791   9.151   1.454
 8030SOL     OW25986  14.243   8.995   7.706
 8030SOL    HW125987  14.215   9.085   7.722
 8030SOL    HW225988  14.338   8.999   7.702
 8031SOL     OW25989   6.532  10.933   3.969
 8031SOL    HW125990   6.485  11.007   3.931
 8031SOL    HW225991   6.574  10.890   3.894
 8032SOL     OW25992   4.704   2.796   1.832
 8032SOL    HW125993   4.689   2.834   1.918
 8032SOL    HW225994   4.785   2.838   1.801
 8033SOL     OW25995   9.941  12.653   5.253
 8033SOL    HW125996   9.867  12.693   5.300
 8033SOL    HW225997  10.016  12.670   5.309
 8034SOL     OW25998   0.107   8.229   1.053
 8034SOL    HW125999   0.101   8.317   1.015
 8034SOL    HW226000   0.158   8.179   0.989
 8035SOL     OW26001   5.620   1.911   6.835
 8035SOL    HW126002   5.545   1.915   6.894
 8035SOL    HW226003   5.627   1.819   6.811
 8036SOL     OW26004   2.353   6.636   7.518
 8036SOL    HW126005   2.267   6.618   7.481
 8036SOL    HW226006   2.390   6.704   7.461
 8037SOL     OW26007  13.788   6.394   0.533
 8037SOL    HW126008  13.857   6.452   0.567
 8037SOL    HW226009  13.834   6.335   0.473
 8038SOL     OW26010   4.594   1.066   6.951
 8038SOL    HW126011   4.514   1.090   6.999
 8038SOL    HW226012   4.565   1.053   6.861
 8039SOL     OW26013   1.571   9.044  12.598
 8039SOL    HW126014   1.652   9.081  12.631
 8039SOL    HW226015   1.508   9.116  12.600
 8040SOL     OW26016  12.743   1.684   6.550
 8040SOL    HW126017  12.675   1.668   6.484
 8040SOL    HW226018  12.790   1.760   6.516
 8041SOL     OW26019   1.471   9.432   8.527
 8041SOL    HW126020   1.520   9.396   8.600
 8041SOL    HW226021   1.380   9.406   8.544
 8042SOL     OW26022   1.004   5.815   9.817
 8042SOL    HW126023   1.009   5.722   9.838
 8042SOL    HW226024   1.079   5.832   9.761
 8043SOL     OW26025   2.367   1.935   6.559
 8043SOL    HW126026   2.456   1.942   6.593
 8043SOL    HW226027   2.344   2.024   6.532
 8044SOL     OW26028   0.945   4.763  12.823
 8044SOL    HW126029   1.036   4.774  12.852
 8044SOL    HW226030   0.908   4.699  12.883
 8045SOL     OW26031   3.763  14.341   6.433
 8045SOL    HW126032   3.847  14.385   6.449
 8045SOL    HW226033   3.784  14.248   6.430
 8046SOL     OW26034   3.981   7.299   1.761
 8046SOL    HW126035   3.962   7.349   1.840
 8046SOL    HW226036   3.946   7.212   1.779
 8047SOL     OW26037   9.044   5.818  11.777
 8047SOL    HW126038   8.965   5.804  11.829
 8047SOL    HW226039   9.095   5.738  11.790
 8048SOL     OW26040  12.118   6.846  12.996
 8048SOL    HW126041  12.045   6.895  12.958
 8048SOL    HW226042  12.123   6.766  12.944
 8049SOL     OW26043   7.430   9.680  11.519
 8049SOL    HW126044   7.476   9.753  11.561
 8049SOL    HW226045   7.429   9.611  11.585
 8050SOL     OW26046   6.931   1.389   9.344
 8050SOL    HW126047   6.978   1.469   9.365
 8050SOL    HW226048   6.925   1.389   9.248
 8051SOL     OW26049   5.609  14.295   8.001
 8051SOL    HW126050   5.633  14.357   8.070
 8051SOL    HW226051   5.520  14.319   7.977
 8052SOL     OW26052  11.668   5.160   1.433
 8052SOL    HW126053  11.701   5.216   1.503
 8052SOL    HW226054  11.618   5.092   1.478
 8053SOL     OW26055   4.364   1.264   8.464
 8053SOL    HW126056   4.303   1.215   8.409
 8053SOL    HW226057   4.381   1.345   8.417
 8054SOL     OW26058   6.696   8.536  14.195
 8054SOL    HW126059   6.769   8.527  14.134
 8054SOL    HW226060   6.728   8.594  14.264
 8055SOL     OW26061   6.771   6.115   4.534
 8055SOL    HW126062   6.786   6.029   4.573
 8055SOL    HW226063   6.850   6.165   4.553
 8056SOL     OW26064   0.731   5.427  12.500
 8056SOL    HW126065   0.779   5.494  12.548
 8056SOL    HW226066   0.639   5.442  12.522
 8057SOL     OW26067  12.091   0.417  11.499
 8057SOL    HW126068  12.050   0.462  11.425
 8057SOL    HW226069  12.022   0.361  11.535
 8058SOL     OW26070   7.818   6.271   1.408
 8058SOL    HW126071   7.853   6.207   1.470
 8058SOL    HW226072   7.851   6.242   1.323
 8059SOL     OW26073  12.173  13.512  12.140
 8059SOL    HW126074  12.088  13.483  12.108
 8059SOL    HW226075  12.221  13.431  12.157
 8060SOL     OW26076   2.633   4.028   4.231
 8060SOL    HW126077   2.543   4.016   4.201
 8060SOL    HW226078   2.631   4.004   4.324
 8061SOL     OW26079   6.629   9.949   8.712
 8061SOL    HW126080   6.549   9.957   8.659
 8061SOL    HW226081   6.675   9.874   8.675
 8062SOL     OW26082  13.450   1.435   2.667
 8062SOL    HW126083  13.437   1.525   2.696
 8062SOL    HW226084  13.542   1.430   2.643
 8063SOL     OW26085   8.132  10.414   3.763
 8063SOL    HW126086   8.140  10.322   3.738
 8063SOL    HW226087   8.046  10.421   3.804
 8064SOL     OW26088  12.741  11.970  10.365
 8064SOL    HW126089  12.804  11.964  10.293
 8064SOL    HW226090  12.657  11.944  10.325
 8065SOL     OW26091  11.496   2.753  13.047
 8065SOL    HW126092  11.508   2.691  13.119
 8065SOL    HW226093  11.562   2.820  13.062
 8066SOL     OW26094  14.434   8.661   6.815
 8066SOL    HW126095  14.481   8.742   6.834
 8066SOL    HW226096  14.362   8.688   6.758
 8067SOL     OW26097   4.892   6.379   7.332
 8067SOL    HW126098   4.891   6.404   7.239
 8067SOL    HW226099   4.938   6.296   7.333
 8068SOL     OW26100  12.150  14.686  12.075
 8068SOL    HW126101  12.179  14.747  12.008
 8068SOL    HW226102  12.088  14.736  12.128
 8069SOL     OW26103  11.316   1.195   0.485
 8069SOL    HW126104  11.276   1.207   0.399
 8069SOL    HW226105  11.249   1.152   0.537
 8070SOL     OW26106   2.636   0.085  10.335
 8070SOL    HW126107   2.630  14.866  10.361
 8070SOL    HW226108   2.546   0.110  10.314
 8071SOL     OW26109   1.976   7.313   1.630
 8071SOL    HW126110   1.964   7.271   1.545
 8071SOL    HW226111   1.972   7.241   1.693
 8072SOL     OW26112   1.802   9.239   6.808
 8072SOL    HW126113   1.792   9.150   6.842
 8072SOL    HW226114   1.753   9.240   6.726
 8073SOL     OW26115   3.826  13.888  10.645
 8073SOL    HW126116   3.821  13.978  10.613
 8073SOL    HW226117   3.860  13.838  10.570
 8074SOL     OW26118  12.967   1.106   4.357
 8074SOL    HW126119  12.912   1.113   4.435
 8074SOL    HW226120  12.987   1.197   4.335
 8075SOL     OW26121   4.225  10.340   4.928
 8075SOL    HW126122   4.133  10.369   4.929
 8075SOL    HW226123   4.265  10.386   5.001
 8076SOL     OW26124   3.974   7.333   4.757
 8076SOL    HW126125   3.923   7.374   4.827
 8076SOL    HW226126   3.959   7.239   4.769
 8077SOL     OW26127   3.358   0.627   6.174
 8077SOL    HW126128   3.388   0.602   6.262
 8077SOL    HW226129   3.438   0.638   6.123
 8078SOL     OW26130   2.769   9.543   9.997
 8078SOL    HW126131   2.768   9.460   9.949
 8078SOL    HW226132   2.686   9.584   9.975
 8079SOL     OW26133   6.385  11.025   0.305
 8079SOL    HW126134   6.452  10.997   0.244
 8079SOL    HW226135   6.421  11.005   0.392
 8080SOL     OW26136  11.648   9.011  13.115
 8080SOL    HW126137  11.647   8.917  13.133
 8080SOL    HW226138  11.721   9.024  13.056
 8081SOL     OW26139   3.107   4.500   0.522
 8081SOL    HW126140   3.182   4.453   0.558
 8081SOL    HW226141   3.131   4.516   0.430
 8082SOL     OW26142   0.273   8.441   2.467
 8082SOL    HW126143   0.313   8.486   2.392
 8082SOL    HW226144   0.346   8.423   2.526
 8083SOL     OW26145  11.179   5.466   1.685
 8083SOL    HW126146  11.193   5.374   1.663
 8083SOL    HW226147  11.218   5.476   1.772
 8084SOL     OW26148  11.807  14.826  14.016
 8084SOL    HW126149  11.814  14.747  14.069
 8084SOL    HW226150  11.743   0.008  14.062
 8085SOL     OW26151  11.807  11.249   6.354
 8085SOL    HW126152  11.767  11.190   6.289
 8085SOL    HW226153  11.800  11.201   6.436
 8086SOL     OW26154   7.501  11.916   1.089
 8086SOL    HW126155   7.485  11.835   1.137
 8086SOL    HW226156   7.445  11.908   1.011
 8087SOL     OW26157  10.990   3.476   1.779
 8087SOL    HW126158  11.070   3.431   1.753
 8087SOL    HW226159  10.957   3.425   1.853
 8088SOL     OW26160  12.102   6.509   0.510
 8088SOL    HW126161  12.164   6.570   0.470
 8088SOL    HW226162  12.050   6.564   0.569
 8089SOL     OW26163   1.617  10.015  13.834
 8089SOL    HW126164   1.619   9.924  13.864
 8089SOL    HW226165   1.653  10.065  13.908
 8090SOL     OW26166  12.696   9.985   4.774
 8090SOL    HW126167  12.622   9.951   4.823
 8090SOL    HW226168  12.664  10.068   4.736
 8091SOL     OW26169   8.532   1.584  12.698
 8091SOL    HW126170   8.577   1.506  12.730
 8091SOL    HW226171   8.439   1.562  12.705
 8092SOL     OW26172   9.258   2.122  12.687
 8092SOL    HW126173   9.264   2.130  12.591
 8092SOL    HW226174   9.252   2.213  12.718
 8093SOL     OW26175   5.847   9.558   1.734
 8093SOL    HW126176   5.794   9.496   1.786
 8093SOL    HW226177   5.872   9.626   1.797
 8094SOL     OW26178   4.141   0.460   7.930
 8094SOL    HW126179   4.219   0.516   7.925
 8094SOL    HW226180   4.158   0.404   8.006
 8095SOL     OW26181  12.043   6.800  10.330
 8095SOL    HW126182  12.019   6.841  10.247
 8095SOL    HW226183  12.060   6.708  10.308
 8096SOL     OW26184  11.247   8.384   7.996
 8096SOL    HW126185  11.278   8.458   7.943
 8096SOL    HW226186  11.312   8.315   7.981
 8097SOL     OW26187  10.165   4.365   5.197
 8097SOL    HW126188  10.195   4.445   5.241
 8097SOL    HW226189  10.222   4.357   5.121
 8098SOL     OW26190   3.237  13.623   3.644
 8098SOL    HW126191   3.226  13.620   3.739
 8098SOL    HW226192   3.265  13.535   3.620
 8099SOL     OW26193   4.802   9.028   2.567
 8099SOL    HW126194   4.789   9.035   2.662
 8099SOL    HW226195   4.738   8.963   2.539
 8100SOL     OW26196   0.153   2.337   1.938
 8100SOL    HW126197   0.237   2.307   1.904
 8100SOL    HW226198   0.172   2.425   1.971
 8101SOL     OW26199   1.805  12.742  12.433
 8101SOL    HW126200   1.847  12.825  12.455
 8101SOL    HW226201   1.773  12.754  12.344
 8102SOL     OW26202   1.775   7.106  11.433
 8102SOL    HW126203   1.829   7.154  11.370
 8102SOL    HW226204   1.694   7.087  11.386
 8103SOL     OW26205  14.115   9.295   9.043
 8103SOL    HW126206  14.163   9.294   9.126
 8103SOL    HW226207  14.068   9.378   9.043
 8104SOL     OW26208   8.359   5.403  11.138
 8104SOL    HW126209   8.374   5.418  11.045
 8104SOL    HW226210   8.358   5.490  11.177
 8105SOL     OW26211   9.702   9.272   5.428
 8105SOL    HW126212   9.618   9.263   5.383
 8105SOL    HW226213   9.767   9.237   5.367
 8106SOL     OW26214   9.968   0.024   6.483
 8106SOL    HW126215   9.962   0.108   6.529
 8106SOL    HW226216   9.887  14.851   6.507
 8107SOL     OW26217   8.276  12.955  10.536
 8107SOL    HW126218   8.254  13.045  10.511
 8107SOL    HW226219   8.292  12.910  10.453
 8108SOL     OW26220   6.560   0.263   9.961
 8108SOL    HW126221   6.581   0.182   9.915
 8108SOL    HW226222   6.551   0.237  10.053
 8109SOL     OW26223   2.651  13.443   9.441
 8109SOL    HW126224   2.604  13.369   9.480
 8109SOL    HW226225   2.608  13.520   9.477
 8110SOL     OW26226  14.835   9.286   9.400
 8110SOL    HW126227  14.855   9.344   9.473
 8110SOL    HW226228   0.018   9.209   9.414
 8111SOL     OW26229  12.980   7.066   3.820
 8111SOL    HW126230  13.039   7.095   3.890
 8111SOL    HW226231  13.004   7.121   3.745
 8112SOL     OW26232  11.503  12.448  12.988
 8112SOL    HW126233  11.481  12.381  13.053
 8112SOL    HW226234  11.553  12.513  13.037
 8113SOL     OW26235   1.986   3.599  12.255
 8113SOL    HW126236   2.019   3.648  12.180
 8113SOL    HW226237   1.963   3.666  12.320
 8114SOL     OW26238  13.425  14.001   8.540
 8114SOL    HW126239  13.473  14.010   8.458
 8114SOL    HW226240  13.409  14.090   8.569
 8115SOL     OW26241   9.374   8.204   5.391
 8115SOL    HW126242   9.312   8.242   5.329
 8115SOL    HW226243   9.376   8.267   5.464
 8116SOL     OW26244   6.286   9.235  12.518
 8116SOL    HW126245   6.227   9.270  12.451
 8116SOL    HW226246   6.248   9.264  12.601
 8117SOL     OW26247   7.505   1.090  11.019
 8117SOL    HW126248   7.411   1.084  11.001
 8117SOL    HW226249   7.519   1.030  11.092
 8118SOL     OW26250   4.192   0.755   6.988
 8118SOL    HW126251   4.258   0.686   6.990
 8118SOL    HW226252   4.231   0.828   7.036
 8119SOL     OW26253  10.497   2.650   9.123
 8119SOL    HW126254  10.448   2.727   9.153
 8119SOL    HW226255  10.535   2.613   9.203
 8120SOL     OW26256   9.893  11.217   1.212
 8120SOL    HW126257   9.836  11.227   1.288
 8120SOL    HW226258   9.835  11.224   1.136
 8121SOL     OW26259   4.925   2.748   8.780
 8121SOL    HW126260   4.896   2.839   8.780
 8121SOL    HW226261   4.870   2.705   8.845
 8122SOL     OW26262   5.068   7.573   5.862
 8122SOL    HW126263   5.128   7.555   5.934
 8122SOL    HW226264   5.117   7.551   5.783
 8123SOL     OW26265   5.990   7.766  12.004
 8123SOL    HW126266   5.987   7.695  11.940
 8123SOL    HW226267   6.005   7.845  11.952
 8124SOL     OW26268   6.146   0.725  13.292
 8124SOL    HW126269   6.098   0.681  13.362
 8124SOL    HW226270   6.180   0.805  13.331
 8125SOL     OW26271   9.040   9.716   6.574
 8125SOL    HW126272   9.118   9.734   6.626
 8125SOL    HW226273   9.069   9.653   6.508
 8126SOL     OW26274  12.971   2.038  14.802
 8126SOL    HW126275  12.888   2.022  14.846
 8126SOL    HW226276  13.018   1.955  14.808
 8127SOL     OW26277   1.778  12.132  14.249
 8127SOL    HW126278   1.786  12.227  14.262
 8127SOL    HW226279   1.867  12.103  14.232
 8128SOL     OW26280   0.447   8.142  11.018
 8128SOL    HW126281   0.513   8.109  10.958
 8128SOL    HW226282   0.364   8.128  10.973
 8129SOL     OW26283   5.750  13.436   9.537
 8129SOL    HW126284   5.781  13.430   9.446
 8129SOL    HW226285   5.793  13.514   9.572
 8130SOL     OW26286  11.176  11.678  13.833
 8130SOL    HW126287  11.214  11.593  13.851
 8130SOL    HW226288  11.219  11.738  13.894
 8131SOL     OW26289  12.431   1.002   9.670
 8131SOL    HW126290  12.418   0.935   9.603
 8131SOL    HW226291  12.403   1.084   9.628
 8132SOL     OW26292   3.009   3.811  10.373
 8132SOL    HW126293   3.037   3.735  10.323
 8132SOL    HW226294   3.084   3.833  10.428
 8133SOL     OW26295   8.272  13.304  12.378
 8133SOL    HW126296   8.213  13.338  12.446
 8133SOL    HW226297   8.327  13.241  12.424
 8134SOL     OW26298   8.711   0.724  14.844
 8134SOL    HW126299   8.796   0.766  14.852
 8134SOL    HW226300   8.676   0.724   0.061
 8135SOL     OW26301  11.343  14.525   2.723
 8135SOL    HW126302  11.425  14.573   2.735
 8135SOL    HW226303  11.301  14.566   2.648
 8136SOL     OW26304   0.295  11.779   8.722
 8136SOL    HW126305   0.301  11.687   8.697
 8136SOL    HW226306   0.347  11.785   8.802
 8137SOL     OW26307  10.340  12.557  11.209
 8137SOL    HW126308  10.298  12.553  11.123
 8137SOL    HW226309  10.365  12.649  11.220
 8138SOL     OW26310   0.779   8.226   2.583
 8138SOL    HW126311   0.855   8.208   2.528
 8138SOL    HW226312   0.814   8.280   2.654
 8139SOL     OW26313   0.437   7.812   3.390
 8139SOL    HW126314   0.400   7.724   3.399
 8139SOL    HW226315   0.509   7.814   3.453
 8140SOL     OW26316   9.720  12.727   1.444
 8140SOL    HW126317   9.760  12.646   1.413
 8140SOL    HW226318   9.672  12.760   1.369
 8141SOL     OW26319   7.210   9.846   5.495
 8141SOL    HW126320   7.255   9.768   5.465
 8141SOL    HW226321   7.271   9.887   5.557
 8142SOL     OW26322   7.294  11.392  11.168
 8142SOL    HW126323   7.370  11.416  11.220
 8142SOL    HW226324   7.330  11.357  11.086
 8143SOL     OW26325  11.769  10.102   1.177
 8143SOL    HW126326  11.754  10.092   1.083
 8143SOL    HW226327  11.682  10.117   1.213
 8144SOL     OW26328   8.682   8.169  10.738
 8144SOL    HW126329   8.618   8.127  10.680
 8144SOL    HW226330   8.639   8.174  10.823
 8145SOL     OW26331  14.426   7.631   0.550
 8145SOL    HW126332  14.514   7.600   0.567
 8145SOL    HW226333  14.369   7.571   0.597
 8146SOL     OW26334   6.046   2.511   6.789
 8146SOL    HW126335   5.992   2.544   6.717
 8146SOL    HW226336   6.041   2.415   6.780
 8147SOL     OW26337   1.455   9.584   5.462
 8147SOL    HW126338   1.511   9.642   5.410
 8147SOL    HW226339   1.448   9.628   5.547
 8148SOL     OW26340  13.738   6.585   8.928
 8148SOL    HW126341  13.655   6.617   8.965
 8148SOL    HW226342  13.760   6.508   8.981
 8149SOL     OW26343   2.697   4.378  10.608
 8149SOL    HW126344   2.628   4.393  10.672
 8149SOL    HW226345   2.768   4.338  10.658
 8150SOL     OW26346  11.684   5.055  11.138
 8150SOL    HW126347  11.754   5.092  11.084
 8150SOL    HW226348  11.713   5.070  11.228
 8151SOL     OW26349   9.060   3.575   9.973
 8151SOL    HW126350   9.126   3.575   9.903
 8151SOL    HW226351   9.108   3.604  10.051
 8152SOL     OW26352   2.508   5.329  13.316
 8152SOL    HW126353   2.504   5.405  13.373
 8152SOL    HW226354   2.429   5.334  13.263
 8153SOL     OW26355   8.763   1.505   9.212
 8153SOL    HW126356   8.820   1.579   9.192
 8153SOL    HW226357   8.693   1.542   9.265
 8154SOL     OW26358  13.606   2.692   0.991
 8154SOL    HW126359  13.515   2.696   0.962
 8154SOL    HW226360  13.657   2.714   0.913
 8155SOL     OW26361   0.419   7.112   4.301
 8155SOL    HW126362   0.436   7.020   4.281
 8155SOL    HW226363   0.463   7.127   4.385
 8156SOL     OW26364   3.338   4.795   4.768
 8156SOL    HW126365   3.385   4.878   4.780
 8156SOL    HW226366   3.367   4.763   4.683
 8157SOL     OW26367  12.103   7.101   7.175
 8157SOL    HW126368  12.098   7.177   7.233
 8157SOL    HW226369  12.014   7.066   7.174
 8158SOL     OW26370   7.307   1.224   2.317
 8158SOL    HW126371   7.323   1.312   2.284
 8158SOL    HW226372   7.334   1.227   2.409
 8159SOL     OW26373   8.321   7.225  13.997
 8159SOL    HW126374   8.387   7.185  13.941
 8159SOL    HW226375   8.356   7.311  14.019
 8160SOL     OW26376   2.269   9.798   7.275
 8160SOL    HW126377   2.177   9.789   7.300
 8160SOL    HW226378   2.303   9.708   7.278
 8161SOL     OW26379   9.206   0.726   6.472
 8161SOL    HW126380   9.164   0.795   6.421
 8161SOL    HW226381   9.157   0.647   6.450
 8162SOL     OW26382  12.088  11.234   8.873
 8162SOL    HW126383  12.022  11.169   8.849
 8162SOL    HW226384  12.134  11.195   8.947
 8163SOL     OW26385  12.253   6.322   0.746
 8163SOL    HW126386  12.248   6.352   0.836
 8163SOL    HW226387  12.183   6.369   0.701
 8164SOL     OW26388   0.975   9.280   4.283
 8164SOL    HW126389   0.955   9.304   4.192
 8164SOL    HW226390   0.931   9.196   4.296
 8165SOL     OW26391   4.967   0.018  12.261
 8165SOL    HW126392   5.026   0.093  12.250
 8165SOL    HW226393   5.021  14.814  12.242
 8166SOL     OW26394   6.754   3.959  13.534
 8166SOL    HW126395   6.755   3.980  13.441
 8166SOL    HW226396   6.661   3.956  13.557
 8167SOL     OW26397   1.658   3.545   8.153
 8167SOL    HW126398   1.695   3.496   8.079
 8167SOL    HW226399   1.703   3.629   8.151
 8168SOL     OW26400  13.332   8.971  11.560
 8168SOL    HW126401  13.400   9.033  11.532
 8168SOL    HW226402  13.376   8.913  11.622
 8169SOL     OW26403  12.363   0.407  14.766
 8169SOL    HW126404  12.298   0.476  14.761
 8169SOL    HW226405  12.390   0.393  14.675
 8170SOL     OW26406  12.871   4.725  10.700
 8170SOL    HW126407  12.965   4.725  10.721
 8170SOL    HW226408  12.830   4.685  10.776
 8171SOL     OW26409   4.023   3.391   1.171
 8171SOL    HW126410   4.069   3.381   1.087
 8171SOL    HW226411   4.085   3.441   1.225
 8172SOL     OW26412   2.597  10.466  12.231
 8172SOL    HW126413   2.532  10.446  12.164
 8172SOL    HW226414   2.596  10.561  12.237
 8173SOL     OW26415  13.292   0.257  10.512
 8173SOL    HW126416  13.212   0.213  10.542
 8173SOL    HW226417  13.317   0.210  10.433
 8174SOL     OW26418   2.453   7.885  10.525
 8174SOL    HW126419   2.490   7.973  10.519
 8174SOL    HW226420   2.359   7.898  10.534
 8175SOL     OW26421  13.978  12.938  13.347
 8175SOL    HW126422  13.973  12.919  13.253
 8175SOL    HW226423  14.045  12.878  13.380
 8176SOL     OW26424   9.896   6.909  10.045
 8176SOL    HW126425   9.948   6.933  10.121
 8176SOL    HW226426   9.958   6.867   9.985
 8177SOL     OW26427  10.835  13.591   5.539
 8177SOL    HW126428  10.776  13.646   5.590
 8177SOL    HW226429  10.779  13.522   5.503
 8178SOL     OW26430   0.625   4.415   0.828
 8178SOL    HW126431   0.589   4.349   0.769
 8178SOL    HW226432   0.556   4.429   0.893
 8179SOL     OW26433   6.515  10.064   5.751
 8179SOL    HW126434   6.447  10.087   5.813
 8179SOL    HW226435   6.496   9.973   5.728
 8180SOL     OW26436   0.442   3.285   4.654
 8180SOL    HW126437   0.506   3.269   4.723
 8180SOL    HW226438   0.427   3.199   4.615
 8181SOL     OW26439  14.478   5.591   1.597
 8181SOL    HW126440  14.404   5.570   1.540
 8181SOL    HW226441  14.437   5.616   1.680
 8182SOL     OW26442  13.183  13.943   8.099
 8182SOL    HW126443  13.218  13.869   8.049
 8182SOL    HW226444  13.202  13.922   8.190
 8183SOL     OW26445   3.979   7.110  10.186
 8183SOL    HW126446   4.064   7.067  10.173
 8183SOL    HW226447   3.998   7.185  10.242
 8184SOL     OW26448   3.019  12.102  12.173
 8184SOL    HW126449   2.928  12.130  12.169
 8184SOL    HW226450   3.048  12.125  12.261
 8185SOL     OW26451  14.095   8.596  12.992
 8185SOL    HW126452  14.004   8.622  13.012
 8185SOL    HW226453  14.086   8.514  12.944
 8186SOL     OW26454  13.416   2.086  13.225
 8186SOL    HW126455  13.442   2.149  13.158
 8186SOL    HW226456  13.497   2.040  13.248
 8187SOL     OW26457   6.552   0.667  12.969
 8187SOL    HW126458   6.633   0.676  13.019
 8187SOL    HW226459   6.535   0.755  12.936
 8188SOL     OW26460   8.498   0.701   5.452
 8188SOL    HW126461   8.477   0.682   5.544
 8188SOL    HW226462   8.432   0.654   5.402
 8189SOL     OW26463   2.669   3.983   4.500
 8189SOL    HW126464   2.746   3.995   4.555
 8189SOL    HW226465   2.595   3.991   4.560
 8190SOL     OW26466   9.066  11.190  10.857
 8190SOL    HW126467   9.124  11.114  10.849
 8190SOL    HW226468   9.034  11.186  10.947
 8191SOL     OW26469   6.389  13.104   8.300
 8191SOL    HW126470   6.456  13.068   8.359
 8191SOL    HW226471   6.310  13.054   8.319
 8192SOL     OW26472  10.724   7.873   1.640
 8192SOL    HW126473  10.796   7.898   1.582
 8192SOL    HW226474  10.692   7.790   1.605
 8193SOL     OW26475   8.695   5.812  11.296
 8193SOL    HW126476   8.643   5.834  11.218
 8193SOL    HW226477   8.680   5.719  11.310
 8194SOL     OW26478   1.939   6.667   1.136
 8194SOL    HW126479   1.870   6.641   1.075
 8194SOL    HW226480   1.895   6.675   1.220
 8195SOL     OW26481   1.879  14.286   8.630
 8195SOL    HW126482   1.823  14.343   8.684
 8195SOL    HW226483   1.956  14.270   8.685
 8196SOL     OW26484   7.645  13.371   5.276
 8196SOL    HW126485   7.606  13.313   5.210
 8196SOL    HW226486   7.628  13.327   5.360
 8197SOL     OW26487   8.945  11.484  11.061
 8197SOL    HW126488   8.853  11.507  11.044
 8197SOL    HW226489   8.943  11.390  11.082
 8198SOL     OW26490   6.412  14.224   1.560
 8198SOL    HW126491   6.496  14.189   1.590
 8198SOL    HW226492   6.347  14.180   1.614
 8199SOL     OW26493   5.393   8.387   2.522
 8199SOL    HW126494   5.312   8.396   2.472
 8199SOL    HW226495   5.371   8.417   2.610
 8200SOL     OW26496  11.126   2.921   4.649
 8200SOL    HW126497  11.183   2.932   4.725
 8200SOL    HW226498  11.134   3.003   4.601
 8201SOL     OW26499  10.419   7.011   5.118
 8201SOL    HW126500  10.422   6.971   5.031
 8201SOL    HW226501  10.357   6.957   5.167
 8202SOL     OW26502   9.207   4.110   9.022
 8202SOL    HW126503   9.206   4.092   9.116
 8202SOL    HW226504   9.282   4.062   8.989
 8203SOL     OW26505  10.584   7.562  11.239
 8203SOL    HW126506  10.618   7.480  11.275
 8203SOL    HW226507  10.662   7.616  11.226
 8204SOL     OW26508  13.458   1.233  10.460
 8204SOL    HW126509  13.514   1.272  10.526
 8204SOL    HW226510  13.371   1.270  10.477
 8205SOL     OW26511   0.712   6.428   7.541
 8205SOL    HW126512   0.765   6.397   7.615
 8205SOL    HW226513   0.730   6.521   7.535
 8206SOL     OW26514  13.735  13.265  10.999
 8206SOL    HW126515  13.706  13.321  10.927
 8206SOL    HW226516  13.699  13.179  10.979
 8207SOL     OW26517   4.717   6.379  10.485
 8207SOL    HW126518   4.724   6.330  10.403
 8207SOL    HW226519   4.755   6.464  10.465
 8208SOL     OW26520   2.708   7.096   2.793
 8208SOL    HW126521   2.716   7.015   2.743
 8208SOL    HW226522   2.646   7.149   2.741
 8209SOL     OW26523   1.125   8.311   0.344
 8209SOL    HW126524   1.058   8.325   0.411
 8209SOL    HW226525   1.079   8.320   0.261
 8210SOL     OW26526  10.858  12.701   7.322
 8210SOL    HW126527  10.917  12.626   7.327
 8210SOL    HW226528  10.895  12.757   7.254
 8211SOL     OW26529   6.688   7.405   2.933
 8211SOL    HW126530   6.772   7.396   2.888
 8211SOL    HW226531   6.654   7.489   2.903
 8212SOL     OW26532  12.130   2.464  13.587
 8212SOL    HW126533  12.090   2.382  13.618
 8212SOL    HW226534  12.212   2.437  13.546
 8213SOL     OW26535  10.953   1.966   6.331
 8213SOL    HW126536  10.911   1.976   6.416
 8213SOL    HW226537  11.046   1.977   6.349
 8214SOL     OW26538   3.445  10.840   9.108
 8214SOL    HW126539   3.453  10.804   9.020
 8214SOL    HW226540   3.406  10.770   9.159
 8215SOL     OW26541   2.446   9.124   3.919
 8215SOL    HW126542   2.471   9.163   4.003
 8215SOL    HW226543   2.528   9.104   3.875
 8216SOL     OW26544   0.609   1.900  10.185
 8216SOL    HW126545   0.684   1.879  10.130
 8216SOL    HW226546   0.535   1.908  10.125
 8217SOL     OW26547   8.228   3.108  11.085
 8217SOL    HW126548   8.296   3.143  11.026
 8217SOL    HW226549   8.212   3.179  11.147
 8218SOL     OW26550   3.541  12.298  12.810
 8218SOL    HW126551   3.619  12.288  12.757
 8218SOL    HW226552   3.524  12.392  12.811
 8219SOL     OW26553   6.652   4.219   6.193
 8219SOL    HW126554   6.632   4.309   6.220
 8219SOL    HW226555   6.684   4.177   6.273
 8220SOL     OW26556  11.421  10.456  14.197
 8220SOL    HW126557  11.406  10.485  14.287
 8220SOL    HW226558  11.334  10.435  14.164
 8221SOL     OW26559   4.421   4.653   4.874
 8221SOL    HW126560   4.433   4.572   4.824
 8221SOL    HW226561   4.440   4.629   4.964
 8222SOL     OW26562  11.447  11.584  11.181
 8222SOL    HW126563  11.358  11.560  11.156
 8222SOL    HW226564  11.446  11.679  11.183
 8223SOL     OW26565   2.465  10.353  12.954
 8223SOL    HW126566   2.488  10.298  12.879
 8223SOL    HW226567   2.547  10.397  12.978
 8224SOL     OW26568   7.676  11.762   3.170
 8224SOL    HW126569   7.583  11.773   3.148
 8224SOL    HW226570   7.676  11.740   3.263
 8225SOL     OW26571  12.843  10.476   5.824
 8225SOL    HW126572  12.802  10.399   5.786
 8225SOL    HW226573  12.836  10.463   5.919
 8226SOL     OW26574  14.072   5.601   8.932
 8226SOL    HW126575  14.160   5.588   8.899
 8226SOL    HW226576  14.030   5.659   8.868
 8227SOL     OW26577   1.758  12.299   5.645
 8227SOL    HW126578   1.796  12.385   5.627
 8227SOL    HW226579   1.830  12.248   5.683
 8228SOL     OW26580  10.495  13.551  12.909
 8228SOL    HW126581  10.410  13.587  12.935
 8228SOL    HW226582  10.549  13.558  12.988
 8229SOL     OW26583   7.862   0.545   5.919
 8229SOL    HW126584   7.852   0.483   5.847
 8229SOL    HW226585   7.777   0.544   5.964
 8230SOL     OW26586  10.321   4.689   7.817
 8230SOL    HW126587  10.409   4.702   7.782
 8230SOL    HW226588  10.279   4.629   7.754
 8231SOL     OW26589  10.951   2.797   2.787
 8231SOL    HW126590  10.878   2.812   2.727
 8231SOL    HW226591  10.913   2.749   2.860
 8232SOL     OW26592   9.975   8.429   6.936
 8232SOL    HW126593  10.062   8.427   6.977
 8232SOL    HW226594   9.956   8.522   6.925
 8233SOL     OW26595   1.037   5.625   2.458
 8233SOL    HW126596   1.069   5.666   2.539
 8233SOL    HW226597   1.087   5.668   2.389
 8234SOL     OW26598   9.495  13.108   9.078
 8234SOL    HW126599   9.573  13.129   9.027
 8234SOL    HW226600   9.431  13.174   9.053
 8235SOL     OW26601   8.470   2.745  14.186
 8235SOL    HW126602   8.435   2.824  14.227
 8235SOL    HW226603   8.430   2.673  14.234
 8236SOL     OW26604   3.305   3.823   9.855
 8236SOL    HW126605   3.252   3.862   9.924
 8236SOL    HW226606   3.382   3.789   9.900
 8237SOL     OW26607   1.165   2.785   7.886
 8237SOL    HW126608   1.070   2.790   7.896
 8237SOL    HW226609   1.179   2.750   7.798
 8238SOL     OW26610   3.429   3.818  13.380
 8238SOL    HW126611   3.504   3.759  13.382
 8238SOL    HW226612   3.465   3.901  13.348
 8239SOL     OW26613   7.995   3.984  12.871
 8239SOL    HW126614   7.949   3.911  12.829
 8239SOL    HW226615   8.017   3.952  12.958
 8240SOL     OW26616  10.543   7.275  14.373
 8240SOL    HW126617  10.598   7.321  14.310
 8240SOL    HW226618  10.594   7.276  14.454
 8241SOL     OW26619  12.795   1.024   6.805
 8241SOL    HW126620  12.838   1.092   6.858
 8241SOL    HW226621  12.842   1.026   6.722
 8242SOL     OW26622   2.118   5.785   0.959
 8242SOL    HW126623   2.097   5.704   1.006
 8242SOL    HW226624   2.201   5.814   0.999
 8243SOL     OW26625   9.407   3.405   7.288
 8243SOL    HW126626   9.379   3.440   7.203
 8243SOL    HW226627   9.433   3.315   7.270
 8244SOL     OW26628   5.264   3.879  13.848
 8244SOL    HW126629   5.194   3.938  13.876
 8244SOL    HW226630   5.324   3.935  13.799
 8245SOL     OW26631  12.357  14.107  11.285
 8245SOL    HW126632  12.332  14.195  11.313
 8245SOL    HW226633  12.370  14.115  11.191
 8246SOL     OW26634   0.934   2.956   2.613
 8246SOL    HW126635   0.908   2.883   2.556
 8246SOL    HW226636   0.954   2.913   2.697
 8247SOL     OW26637   9.904   0.705   4.825
 8247SOL    HW126638   9.840   0.769   4.856
 8247SOL    HW226639   9.966   0.695   4.897
 8248SOL     OW26640   4.497   6.505  14.416
 8248SOL    HW126641   4.580   6.509  14.464
 8248SOL    HW226642   4.451   6.585  14.441
 8249SOL     OW26643  13.522  14.011  13.825
 8249SOL    HW126644  13.506  14.055  13.742
 8249SOL    HW226645  13.617  14.014  13.836
 8250SOL     OW26646   1.419   3.473   7.465
 8250SOL    HW126647   1.451   3.560   7.441
 8250SOL    HW226648   1.328   3.472   7.434
 8251SOL     OW26649   7.794  11.780   7.253
 8251SOL    HW126650   7.728  11.848   7.270
 8251SOL    HW226651   7.876  11.819   7.285
 8252SOL     OW26652  13.930  13.073  14.183
 8252SOL    HW126653  13.897  13.122  14.259
 8252SOL    HW226654  13.851  13.043  14.138
 8253SOL     OW26655  13.931  13.154   2.656
 8253SOL    HW126656  13.839  13.172   2.638
 8253SOL    HW226657  13.972  13.149   2.569
 8254SOL     OW26658  12.074   1.201   5.330
 8254SOL    HW126659  12.159   1.197   5.374
 8254SOL    HW226660  12.086   1.265   5.260
 8255SOL     OW26661  12.011   8.996   1.789
 8255SOL    HW126662  12.024   9.090   1.801
 8255SOL    HW226663  12.099   8.959   1.790
 8256SOL     OW26664  11.934   6.069   1.860
 8256SOL    HW126665  11.990   6.119   1.920
 8256SOL    HW226666  11.894   6.002   1.915
 8257SOL     OW26667   0.649   7.589   9.893
 8257SOL    HW126668   0.582   7.620   9.954
 8257SOL    HW226669   0.600   7.539   9.827
 8258SOL     OW26670  12.612   3.807  11.551
 8258SOL    HW126671  12.617   3.847  11.464
 8258SOL    HW226672  12.527   3.834  11.585
 8259SOL     OW26673   4.738  14.860   3.395
 8259SOL    HW126674   4.790  14.783   3.371
 8259SOL    HW226675   4.793   0.034   3.459
 8260SOL     OW26676   9.008   4.772  14.443
 8260SOL    HW126677   9.002   4.834  14.516
 8260SOL    HW226678   9.045   4.693  14.481
 8261SOL     OW26679   9.139  10.966   1.229
 8261SOL    HW126680   9.156  10.951   1.136
 8261SOL    HW226681   9.222  10.943   1.272
 8262SOL     OW26682  10.629  13.235  11.866
 8262SOL    HW126683  10.567  13.164  11.883
 8262SOL    HW226684  10.678  13.244  11.947
 8263SOL     OW26685  13.495   7.666   9.020
 8263SOL    HW126686  13.405   7.692   9.037
 8263SOL    HW226687  13.530   7.735   8.963
 8264SOL     OW26688   7.746  14.269   2.142
 8264SOL    HW126689   7.805  14.344   2.150
 8264SOL    HW226690   7.804  14.194   2.130
 8265SOL     OW26691   6.934   2.875  13.196
 8265SOL    HW126692   6.844   2.905  13.205
 8265SOL    HW226693   6.965   2.915  13.114
 8266SOL     OW26694   2.935  10.770   5.677
 8266SOL    HW126695   2.939  10.739   5.586
 8266SOL    HW226696   3.026  10.788   5.700
 8267SOL     OW26697   8.277  11.080   0.249
 8267SOL    HW126698   8.213  11.120   0.189
 8267SOL    HW226699   8.231  11.004   0.286
 8268SOL     OW26700   9.034   8.271  10.986
 8268SOL    HW126701   9.026   8.222  10.904
 8268SOL    HW226702   8.992   8.215  11.051
 8269SOL     OW26703   7.401   0.840   7.906
 8269SOL    HW126704   7.389   0.754   7.944
 8269SOL    HW226705   7.492   0.840   7.875
 8270SOL     OW26706   7.586   1.216   7.082
 8270SOL    HW126707   7.537   1.175   7.153
 8270SOL    HW226708   7.536   1.194   7.003
 8271SOL     OW26709  14.573   9.313  10.410
 8271SOL    HW126710  14.541   9.384  10.465
 8271SOL    HW226711  14.612   9.358  10.334
 8272SOL     OW26712   3.507   9.185  10.324
 8272SOL    HW126713   3.444   9.131  10.277
 8272SOL    HW226714   3.584   9.128  10.334
 8273SOL     OW26715  11.534   0.138   0.579
 8273SOL    HW126716  11.527   0.049   0.547
 8273SOL    HW226717  11.625   0.147   0.608
 8274SOL     OW26718   0.255   5.220   6.492
 8274SOL    HW126719   0.282   5.251   6.579
 8274SOL    HW226720   0.186   5.155   6.510
 8275SOL     OW26721  11.899   7.827  12.589
 8275SOL    HW126722  11.971   7.787  12.638
 8275SOL    HW226723  11.868   7.897  12.646
 8276SOL     OW26724   7.642   0.233   6.174
 8276SOL    HW126725   7.584   0.231   6.250
 8276SOL    HW226726   7.681   0.320   6.175
 8277SOL     OW26727   9.118   1.598   3.144
 8277SOL    HW126728   9.143   1.679   3.101
 8277SOL    HW226729   9.192   1.577   3.202
 8278SOL     OW26730   8.532   5.211  10.763
 8278SOL    HW126731   8.602   5.147  10.753
 8278SOL    HW226732   8.452   5.158  10.770
 8279SOL     OW26733   5.083   7.949   2.180
 8279SOL    HW126734   5.075   7.862   2.142
 8279SOL    HW226735   5.041   8.007   2.116
 8280SOL     OW26736   7.345  11.167   3.861
 8280SOL    HW126737   7.387  11.141   3.943
 8280SOL    HW226738   7.260  11.124   3.863
 8281SOL     OW26739   9.153   5.017  10.617
 8281SOL    HW126740   9.152   5.019  10.712
 8281SOL    HW226741   9.127   4.928  10.594
 8282SOL     OW26742  10.547  14.461   3.907
 8282SOL    HW126743  10.452  14.470   3.901
 8282SOL    HW226744  10.571  14.407   3.831
 8283SOL     OW26745   3.344   2.086  14.536
 8283SOL    HW126746   3.352   2.158  14.474
 8283SOL    HW226747   3.435   2.065  14.560
 8284SOL     OW26748   9.325   5.538   5.966
 8284SOL    HW126749   9.235   5.539   5.934
 8284SOL    HW226750   9.320   5.575   6.054
 8285SOL     OW26751   8.035   2.735   5.863
 8285SOL    HW126752   8.018   2.744   5.770
 8285SOL    HW226753   8.131   2.741   5.870
 8286SOL     OW26754  10.553   0.928  14.478
 8286SOL    HW126755  10.588   1.012  14.509
 8286SOL    HW226756  10.545   0.939  14.384
 8287SOL     OW26757  13.796   5.472  14.465
 8287SOL    HW126758  13.886   5.490  14.437
 8287SOL    HW226759  13.806   5.420  14.544
 8288SOL     OW26760   9.141   1.189   5.977
 8288SOL    HW126761   9.119   1.282   5.976
 8288SOL    HW226762   9.065   1.146   6.016
 8289SOL     OW26763   6.836   7.072  14.123
 8289SOL    HW126764   6.777   7.146  14.139
 8289SOL    HW226765   6.783   6.995  14.145
 8290SOL     OW26766   6.982   8.166  12.812
 8290SOL    HW126767   6.896   8.205  12.794
 8290SOL    HW226768   6.973   8.127  12.899
 8291SOL     OW26769   9.471  14.517   8.135
 8291SOL    HW126770   9.414  14.514   8.212
 8291SOL    HW226771   9.412  14.532   8.062
 8292SOL     OW26772  13.041   2.546   0.311
 8292SOL    HW126773  12.962   2.491   0.318
 8292SOL    HW226774  13.111   2.491   0.346
 8293SOL     OW26775   1.730   5.189   0.444
 8293SOL    HW126776   1.713   5.268   0.495
 8293SOL    HW226777   1.823   5.171   0.458
 8294SOL     OW26778   7.187   5.729   2.768
 8294SOL    HW126779   7.134   5.657   2.734
 8294SOL    HW226780   7.151   5.746   2.855
 8295SOL     OW26781   8.828   2.395   3.522
 8295SOL    HW126782   8.870   2.378   3.606
 8295SOL    HW226783   8.893   2.447   3.474
 8296SOL     OW26784   4.438   5.524  13.636
 8296SOL    HW126785   4.531   5.545  13.648
 8296SOL    HW226786   4.422   5.542  13.543
 8297SOL     OW26787  13.604   1.754  11.105
 8297SOL    HW126788  13.604   1.693  11.031
 8297SOL    HW226789  13.525   1.808  11.092
 8298SOL     OW26790   9.779   7.056   3.670
 8298SOL    HW126791   9.701   7.060   3.616
 8298SOL    HW226792   9.777   6.969   3.710
 8299SOL     OW26793  14.364   8.742   8.467
 8299SOL    HW126794  14.444   8.791   8.488
 8299SOL    HW226795  14.328   8.717   8.552
 8300SOL     OW26796   3.322   0.161   5.928
 8300SOL    HW126797   3.352   0.220   5.997
 8300SOL    HW226798   3.239   0.126   5.961
 8301SOL     OW26799   0.015   3.611   2.159
 8301SOL    HW126800  14.855   3.679   2.099
 8301SOL    HW226801   0.022   3.655   2.244
 8302SOL     OW26802   4.202   6.476   5.410
 8302SOL    HW126803   4.198   6.570   5.431
 8302SOL    HW226804   4.282   6.468   5.357
 8303SOL     OW26805  13.575   5.987   7.714
 8303SOL    HW126806  13.541   5.920   7.773
 8303SOL    HW226807  13.539   6.069   7.748
 8304SOL     OW26808   7.234   4.337   2.077
 8304SOL    HW126809   7.173   4.400   2.040
 8304SOL    HW226810   7.180   4.262   2.101
 8305SOL     OW26811   8.052  12.232   2.028
 8305SOL    HW126812   7.979  12.236   1.966
 8305SOL    HW226813   8.015  12.194   2.107
 8306SOL     OW26814   9.436  11.979  11.225
 8306SOL    HW126815   9.351  11.994  11.265
 8306SOL    HW226816   9.454  12.059  11.175
 8307SOL     OW26817   2.901   3.711   0.704
 8307SOL    HW126818   2.923   3.680   0.791
 8307SOL    HW226819   2.978   3.691   0.651
 8308SOL     OW26820  10.214   0.907  10.122
 8308SOL    HW126821  10.300   0.912  10.164
 8308SOL    HW226822  10.215   0.823  10.076
 8309SOL     OW26823   8.419  12.507   5.611
 8309SOL    HW126824   8.438  12.595   5.642
 8309SOL    HW226825   8.424  12.514   5.515
 8310SOL     OW26826  12.109   9.920   0.449
 8310SOL    HW126827  12.049   9.875   0.390
 8310SOL    HW226828  12.128   9.856   0.518
 8311SOL     OW26829  11.454  13.379  10.744
 8311SOL    HW126830  11.381  13.440  10.741
 8311SOL    HW226831  11.520  13.422  10.799
 8312SOL     OW26832   6.908   5.811  13.539
 8312SOL    HW126833   6.943   5.725  13.562
 8312SOL    HW226834   6.821   5.813  13.578
 8313SOL     OW26835   6.467  14.295  10.270
 8313SOL    HW126836   6.457  14.244  10.190
 8313SOL    HW226837   6.411  14.250  10.334
 8314SOL     OW26838  12.946   0.273  12.583
 8314SOL    HW126839  12.897   0.355  12.595
 8314SOL    HW226840  13.036   0.296  12.603
 8315SOL     OW26841   9.092   8.800   0.265
 8315SOL    HW126842   9.007   8.823   0.227
 8315SOL    HW226843   9.083   8.824   0.358
 8316SOL     OW26844  13.675   9.483  10.255
 8316SOL    HW126845  13.689   9.435  10.173
 8316SOL    HW226846  13.580   9.494  10.260
 8317SOL     OW26847  10.344   2.780   9.618
 8317SOL    HW126848  10.293   2.861   9.609
 8317SOL    HW226849  10.281   2.715   9.650
 8318SOL     OW26850   0.437  12.942   8.507
 8318SOL    HW126851   0.402  12.902   8.428
 8318SOL    HW226852   0.496  13.011   8.475
 8319SOL     OW26853  14.660   7.707   7.239
 8319SOL    HW126854  14.737   7.754   7.205
 8319SOL    HW226855  14.660   7.727   7.333
 8320SOL     OW26856   5.225   0.847   0.433
 8320SOL    HW126857   5.189   0.773   0.481
 8320SOL    HW226858   5.150   0.903   0.413
 8321SOL     OW26859  14.652  11.223   8.335
 8321SOL    HW126860  14.661  11.147   8.277
 8321SOL    HW226861  14.563  11.217   8.369
 8322SOL     OW26862   9.912   2.885  11.776
 8322SOL    HW126863   9.820   2.876  11.799
 8322SOL    HW226864   9.958   2.825  11.834
 8323SOL     OW26865  12.204   9.295   3.795
 8323SOL    HW126866  12.133   9.312   3.856
 8323SOL    HW226867  12.227   9.381   3.760
 8324SOL     OW26868   5.917  11.783   2.734
 8324SOL    HW126869   6.011  11.797   2.723
 8324SOL    HW226870   5.911  11.708   2.792
 8325SOL     OW26871  13.507   7.082   2.975
 8325SOL    HW126872  13.414   7.072   2.954
 8325SOL    HW226873  13.543   7.134   2.902
 8326SOL     OW26874  12.091   0.697  11.558
 8326SOL    HW126875  12.110   0.603  11.561
 8326SOL    HW226876  12.145   0.730  11.487
 8327SOL     OW26877  10.593   8.093  13.687
 8327SOL    HW126878  10.639   8.074  13.605
 8327SOL    HW226879  10.649   8.157  13.731
 8328SOL     OW26880  12.728  14.141   5.045
 8328SOL    HW126881  12.751  14.215   5.101
 8328SOL    HW226882  12.636  14.124   5.065
 8329SOL     OW26883  12.019  11.114   3.823
 8329SOL    HW126884  11.959  11.088   3.754
 8329SOL    HW226885  12.068  11.034   3.843
 8330SOL     OW26886   5.834   6.987   6.631
 8330SOL    HW126887   5.922   6.998   6.667
 8330SOL    HW226888   5.843   7.008   6.538
 8331SOL     OW26889   2.308   6.616   8.651
 8331SOL    HW126890   2.339   6.530   8.680
 8331SOL    HW226891   2.213   6.609   8.648
 8332SOL     OW26892   0.739  10.210  12.246
 8332SOL    HW126893   0.712  10.185  12.157
 8332SOL    HW226894   0.802  10.280  12.233
 8333SOL     OW26895  13.890  12.731   7.484
 8333SOL    HW126896  13.954  12.785   7.530
 8333SOL    HW226897  13.892  12.763   7.394
 8334SOL     OW26898   0.826   3.576   7.503
 8334SOL    HW126899   0.862   3.488   7.495
 8334SOL    HW226900   0.863   3.624   7.429
 8335SOL     OW26901   0.949   4.576  11.876
 8335SOL    HW126902   0.880   4.612  11.932
 8335SOL    HW226903   0.974   4.494  11.918
 8336SOL     OW26904  12.376   6.199   7.159
 8336SOL    HW126905  12.285   6.185   7.184
 8336SOL    HW226906  12.398   6.283   7.198
 8337SOL     OW26907   9.259   5.504   0.502
 8337SOL    HW126908   9.281   5.431   0.560
 8337SOL    HW226909   9.243   5.578   0.561
 8338SOL     OW26910  11.750  10.646   6.687
 8338SOL    HW126911  11.833  10.658   6.642
 8338SOL    HW226912  11.684  10.671   6.622
 8339SOL     OW26913   0.765   5.536   2.321
 8339SOL    HW126914   0.848   5.576   2.295
 8339SOL    HW226915   0.724   5.602   2.377
 8340SOL     OW26916   4.325   7.946  10.931
 8340SOL    HW126917   4.316   7.856  10.901
 8340SOL    HW226918   4.388   7.942  11.003
 8341SOL     OW26919  11.540   0.318   7.527
 8341SOL    HW126920  11.579   0.399   7.495
 8341SOL    HW226921  11.603   0.286   7.592
 8342SOL     OW26922  10.480   7.167  12.912
 8342SOL    HW126923  10.394   7.192  12.878
 8342SOL    HW226924  10.477   7.189  13.005
 8343SOL     OW26925   5.053   7.535   3.361
 8343SOL    HW126926   5.146   7.542   3.341
 8343SOL    HW226927   5.009   7.553   3.278
 8344SOL     OW26928  10.289   8.237   7.525
 8344SOL    HW126929  10.215   8.193   7.567
 8344SOL    HW226930  10.362   8.177   7.537
 8345SOL     OW26931  12.410   3.953   0.938
 8345SOL    HW126932  12.343   3.942   1.006
 8345SOL    HW226933  12.418   4.048   0.929
 8346SOL     OW26934   8.578  14.814   8.118
 8346SOL    HW126935   8.616  14.736   8.157
 8346SOL    HW226936   8.499  14.783   8.073
 8347SOL     OW26937  11.174   1.701  11.290
 8347SOL    HW126938  11.125   1.675  11.368
 8347SOL    HW226939  11.209   1.620  11.255
 8348SOL     OW26940   3.713  14.474   2.674
 8348SOL    HW126941   3.806  14.467   2.654
 8348SOL    HW226942   3.678  14.386   2.658
 8349SOL     OW26943  12.985   0.373  12.942
 8349SOL    HW126944  12.902   0.327  12.933
 8349SOL    HW226945  12.997   0.383  13.036
 8350SOL     OW26946   4.235   7.514   4.388
 8350SOL    HW126947   4.240   7.538   4.295
 8350SOL    HW226948   4.189   7.431   4.389
 8351SOL     OW26949   9.443  11.087  14.492
 8351SOL    HW126950   9.517  11.035  14.524
 8351SOL    HW226951   9.472  11.178  14.503
 8352SOL     OW26952   1.426  11.554   7.266
 8352SOL    HW126953   1.357  11.539   7.331
 8352SOL    HW226954   1.449  11.467   7.234
 8353SOL     OW26955  12.874   8.819   4.426
 8353SOL    HW126956  12.910   8.807   4.514
 8353SOL    HW226957  12.910   8.902   4.396
 8354SOL     OW26958   0.836   1.906   8.753
 8354SOL    HW126959   0.826   1.971   8.823
 8354SOL    HW226960   0.930   1.888   8.750
 8355SOL     OW26961   9.384  10.958   7.048
 8355SOL    HW126962   9.426  10.915   7.123
 8355SOL    HW226963   9.348  10.886   6.996
 8356SOL     OW26964   6.735   7.475  13.737
 8356SOL    HW126965   6.705   7.536  13.804
 8356SOL    HW226966   6.821   7.446  13.767
 8357SOL     OW26967  12.165   9.654   2.007
 8357SOL    HW126968  12.204   9.597   2.073
 8357SOL    HW226969  12.074   9.625   2.001
 8358SOL     OW26970  10.829  14.536  10.214
 8358SOL    HW126971  10.874  14.463  10.256
 8358SOL    HW226972  10.739  14.530  10.245
 8359SOL     OW26973   6.540  10.878  12.507
 8359SOL    HW126974   6.467  10.887  12.446
 8359SOL    HW226975   6.528  10.950  12.569
 8360SOL     OW26976   9.474   4.370  14.606
 8360SOL    HW126977   9.490   4.392  14.514
 8360SOL    HW226978   9.381   4.350  14.610
 8361SOL     OW26979   5.417   0.697   0.764
 8361SOL    HW126980   5.373   0.666   0.685
 8361SOL    HW226981   5.379   0.783   0.780
 8362SOL     OW26982   8.876   9.266   8.221
 8362SOL    HW126983   8.893   9.266   8.127
 8362SOL    HW226984   8.782   9.282   8.230
 8363SOL     OW26985  14.031   6.093  11.232
 8363SOL    HW126986  14.095   6.141  11.181
 8363SOL    HW226987  13.996   6.157  11.294
 8364SOL     OW26988   0.045  10.501   6.316
 8364SOL    HW126989   0.037  10.592   6.347
 8364SOL    HW226990   0.125  10.500   6.264
 8365SOL     OW26991   2.967   0.483   4.037
 8365SOL    HW126992   3.054   0.449   4.015
 8365SOL    HW226993   2.972   0.502   4.131
 8366SOL     OW26994   3.918   1.104  12.224
 8366SOL    HW126995   3.923   1.177  12.162
 8366SOL    HW226996   3.825   1.081  12.227
 8367SOL     OW26997  11.661   9.343   3.482
 8367SOL    HW126998  11.629   9.429   3.507
 8367SOL    HW226999  11.739   9.330   3.537
 8368SOL     OW27000  10.287  12.344   8.510
 8368SOL    HW127001  10.251  12.257   8.494
 8368SOL    HW227002  10.311  12.376   8.423
 8369SOL     OW27003   9.800  10.946  14.036
 8369SOL    HW127004   9.810  10.940  14.131
 8369SOL    HW227005   9.862  11.013  14.009
 8370SOL     OW27006  13.359   8.625   9.328
 8370SOL    HW127007  13.368   8.570   9.251
 8370SOL    HW227008  13.406   8.579   9.397
 8371SOL     OW27009   0.303  10.516  14.244
 8371SOL    HW127010   0.269  10.566  14.170
 8371SOL    HW227011   0.252  10.435  14.243
 8372SOL     OW27012   7.496   8.393  10.010
 8372SOL    HW127013   7.462   8.473   9.972
 8372SOL    HW227014   7.424   8.359  10.063
 8373SOL     OW27015   6.941   6.163   0.284
 8373SOL    HW127016   6.918   6.140   0.193
 8373SOL    HW227017   6.999   6.238   0.276
 8374SOL     OW27018  11.310  12.633   4.450
 8374SOL    HW127019  11.245  12.641   4.521
 8374SOL    HW227020  11.262  12.655   4.371
 8375SOL     OW27021   3.345   9.353   8.235
 8375SOL    HW127022   3.345   9.410   8.312
 8375SOL    HW227023   3.438   9.330   8.223
 8376SOL     OW27024  11.297   9.400   5.236
 8376SOL    HW127025  11.261   9.454   5.166
 8376SOL    HW227026  11.349   9.460   5.289
 8377SOL     OW27027  13.302   7.132   0.857
 8377SOL    HW127028  13.241   7.194   0.818
 8377SOL    HW227029  13.367   7.116   0.788
 8378SOL     OW27030  12.991   0.915  13.177
 8378SOL    HW127031  12.909   0.901  13.129
 8378SOL    HW227032  12.967   0.971  13.250
 8379SOL     OW27033   0.302   8.664   5.874
 8379SOL    HW127034   0.364   8.597   5.901
 8379SOL    HW227035   0.216   8.631   5.900
 8380SOL     OW27036  13.181  14.162  13.547
 8380SOL    HW127037  13.143  14.129  13.628
 8380SOL    HW227038  13.199  14.255  13.564
 8381SOL     OW27039  13.763   4.335   7.671
 8381SOL    HW127040  13.805   4.348   7.756
 8381SOL    HW227041  13.730   4.245   7.674
 8382SOL     OW27042   4.693   8.158   7.725
 8382SOL    HW127043   4.608   8.114   7.725
 8382SOL    HW227044   4.700   8.197   7.638
 8383SOL     OW27045   3.419   5.167   4.577
 8383SOL    HW127046   3.506   5.201   4.554
 8383SOL    HW227047   3.377   5.240   4.622
 8384SOL     OW27048   0.525   2.870   7.467
 8384SOL    HW127049   0.475   2.949   7.445
 8384SOL    HW227050   0.486   2.839   7.549
 8385SOL     OW27051  14.260   8.587  11.806
 8385SOL    HW127052  14.261   8.666  11.752
 8385SOL    HW227053  14.309   8.611  11.885
 8386SOL     OW27054   7.902   4.853   5.108
 8386SOL    HW127055   7.886   4.947   5.098
 8386SOL    HW227056   7.986   4.839   5.065
 8387SOL     OW27057   6.850   4.677   9.194
 8387SOL    HW127058   6.757   4.666   9.172
 8387SOL    HW227059   6.877   4.754   9.144
 8388SOL     OW27060   5.283  12.016   8.421
 8388SOL    HW127061   5.282  11.937   8.368
 8388SOL    HW227062   5.202  12.062   8.397
 8389SOL     OW27063  14.797  10.010  12.289
 8389SOL    HW127064  14.869  10.066  12.320
 8389SOL    HW227065  14.741  10.069  12.237
 8390SOL     OW27066   8.868  12.985  11.661
 8390SOL    HW127067   8.853  12.932  11.739
 8390SOL    HW227068   8.963  12.993  11.655
 8391SOL     OW27069   9.050  10.328   4.642
 8391SOL    HW127070   9.064  10.359   4.552
 8391SOL    HW227071   9.030  10.235   4.632
 8392SOL     OW27072   4.251  10.876   0.078
 8392SOL    HW127073   4.342  10.887   0.048
 8392SOL    HW227074   4.246  10.928   0.158
 8393SOL     OW27075   6.493   9.009   9.257
 8393SOL    HW127076   6.482   8.974   9.169
 8393SOL    HW227077   6.542   8.941   9.304
 8394SOL     OW27078   8.140   8.195   0.423
 8394SOL    HW127079   8.051   8.218   0.399
 8394SOL    HW227080   8.187   8.191   0.340
 8395SOL     OW27081   5.501   2.445  13.204
 8395SOL    HW127082   5.573   2.446  13.141
 8395SOL    HW227083   5.512   2.363  13.252
 8396SOL     OW27084   1.059   8.125   8.468
 8396SOL    HW127085   0.978   8.175   8.479
 8396SOL    HW227086   1.062   8.104   8.375
 8397SOL     OW27087   4.336   9.565  12.181
 8397SOL    HW127088   4.284   9.582  12.102
 8397SOL    HW227089   4.364   9.474  12.173
 8398SOL     OW27090  14.270   2.107   7.488
 8398SOL    HW127091  14.261   2.138   7.578
 8398SOL    HW227092  14.360   2.076   7.482
 8399SOL     OW27093   4.776  12.114  10.456
 8399SOL    HW127094   4.841  12.139  10.389
 8399SOL    HW227095   4.782  12.019  10.460
 8400SOL     OW27096   3.248   9.939   2.878
 8400SOL    HW127097   3.284  10.026   2.865
 8400SOL    HW227098   3.188   9.927   2.805
 8401SOL     OW27099   8.152   3.950   8.932
 8401SOL    HW127100   8.199   4.029   8.905
 8401SOL    HW227101   8.136   3.902   8.851
 8402SOL     OW27102  13.047   0.692  10.751
 8402SOL    HW127103  13.047   0.683  10.656
 8402SOL    HW227104  13.087   0.778  10.767
 8403SOL     OW27105   3.329   7.902  12.028
 8403SOL    HW127106   3.253   7.931  12.079
 8403SOL    HW227107   3.295   7.888  11.940
 8404SOL     OW27108  14.736   0.304   0.393
 8404SOL    HW127109  14.794   0.369   0.353
 8404SOL    HW227110  14.648   0.334   0.370
 8405SOL     OW27111  12.714  11.390   0.429
 8405SOL    HW127112  12.629  11.377   0.471
 8405SOL    HW227113  12.758  11.455   0.484
 8406SOL     OW27114   6.910   2.079   7.008
 8406SOL    HW127115   6.868   2.137   7.072
 8406SOL    HW227116   7.000   2.071   7.039
 8407SOL     OW27117  13.021   1.685   0.821
 8407SOL    HW127118  13.080   1.658   0.892
 8407SOL    HW227119  13.027   1.780   0.819
 8408SOL     OW27120   0.260   2.491   6.919
 8408SOL    HW127121   0.174   2.526   6.941
 8408SOL    HW227122   0.242   2.421   6.856
 8409SOL     OW27123   2.531   0.382   6.157
 8409SOL    HW127124   2.453   0.428   6.190
 8409SOL    HW227125   2.496   0.303   6.115
 8410SOL     OW27126   3.532   9.884   5.318
 8410SOL    HW127127   3.592   9.868   5.391
 8410SOL    HW227128   3.573   9.841   5.243
 8411SOL     OW27129   7.332   5.268   1.263
 8411SOL    HW127130   7.389   5.342   1.245
 8411SOL    HW227131   7.256   5.282   1.206
 8412SOL     OW27132   3.882   9.263   6.811
 8412SOL    HW127133   3.828   9.228   6.882
 8412SOL    HW227134   3.938   9.328   6.853
 8413SOL     OW27135   2.487  12.963   2.484
 8413SOL    HW127136   2.466  12.989   2.394
 8413SOL    HW227137   2.420  12.898   2.506
 8414SOL     OW27138   8.572   9.419   3.583
 8414SOL    HW127139   8.560   9.395   3.491
 8414SOL    HW227140   8.583   9.514   3.582
 8415SOL     OW27141  10.279   2.646   4.836
 8415SOL    HW127142  10.350   2.704   4.809
 8415SOL    HW227143  10.267   2.666   4.929
 8416SOL     OW27144   2.525   3.883   3.897
 8416SOL    HW127145   2.437   3.846   3.894
 8416SOL    HW227146   2.525   3.950   3.829
 8417SOL     OW27147   6.025  11.319   2.944
 8417SOL    HW127148   6.042  11.280   2.858
 8417SOL    HW227149   6.048  11.251   3.007
 8418SOL     OW27150   8.904   9.180   3.843
 8418SOL    HW127151   8.881   9.189   3.750
 8418SOL    HW227152   8.931   9.089   3.852
 8419SOL     OW27153  10.193   9.422   0.598
 8419SOL    HW127154  10.237   9.375   0.527
 8419SOL    HW227155  10.105   9.385   0.602
 8420SOL     OW27156   7.821  11.085  11.484
 8420SOL    HW127157   7.805  11.177  11.462
 8420SOL    HW227158   7.901  11.064  11.437
 8421SOL     OW27159  14.777  11.147   2.067
 8421SOL    HW127160  14.844  11.084   2.039
 8421SOL    HW227161  14.822  11.231   2.069
 8422SOL     OW27162   2.501   5.443   9.877
 8422SOL    HW127163   2.518   5.389   9.800
 8422SOL    HW227164   2.581   5.437   9.929
 8423SOL     OW27165   1.717  12.379  13.785
 8423SOL    HW127166   1.634  12.351  13.748
 8423SOL    HW227167   1.777  12.307  13.766
 8424SOL     OW27168  12.841   8.607   9.917
 8424SOL    HW127169  12.786   8.632   9.843
 8424SOL    HW227170  12.915   8.668   9.914
 8425SOL     OW27171   0.275  10.626   4.858
 8425SOL    HW127172   0.217  10.634   4.933
 8425SOL    HW227173   0.299  10.716   4.836
 8426SOL     OW27174   7.798   9.280  11.083
 8426SOL    HW127175   7.723   9.273  11.142
 8426SOL    HW227176   7.771   9.341  11.015
 8427SOL     OW27177   2.335   6.368   7.983
 8427SOL    HW127178   2.365   6.307   8.050
 8427SOL    HW227179   2.355   6.324   7.900
 8428SOL     OW27180   8.079   1.711   7.384
 8428SOL    HW127181   8.147   1.652   7.350
 8428SOL    HW227182   8.022   1.728   7.309
 8429SOL     OW27183   1.603  12.817   1.367
 8429SOL    HW127184   1.680  12.790   1.416
 8429SOL    HW227185   1.636  12.839   1.280
 8430SOL     OW27186  14.854   9.904   6.064
 8430SOL    HW127187   0.065   9.937   6.032
 8430SOL    HW227188  14.816   9.977   6.113
 8431SOL     OW27189   3.704   0.445   8.303
 8431SOL    HW127190   3.768   0.509   8.333
 8431SOL    HW227191   3.645   0.494   8.246
 8432SOL     OW27192   9.134   6.661   2.729
 8432SOL    HW127193   9.058   6.611   2.701
 8432SOL    HW227194   9.161   6.709   2.651
 8433SOL     OW27195  13.357   0.505   3.373
 8433SOL    HW127196  13.279   0.539   3.416
 8433SOL    HW227197  13.403   0.456   3.440
 8434SOL     OW27198  13.725  14.247  11.477
 8434SOL    HW127199  13.756  14.260  11.566
 8434SOL    HW227200  13.770  14.314  11.426
 8435SOL     OW27201   2.316   0.921   8.631
 8435SOL    HW127202   2.227   0.903   8.600
 8435SOL    HW227203   2.348   0.837   8.663
 8436SOL     OW27204  12.712   5.467   8.340
 8436SOL    HW127205  12.643   5.517   8.384
 8436SOL    HW227206  12.772   5.534   8.307
 8437SOL     OW27207   1.184  12.288   1.628
 8437SOL    HW127208   1.132  12.288   1.548
 8437SOL    HW227209   1.119  12.282   1.699
 8438SOL     OW27210   6.597   6.452  14.872
 8438SOL    HW127211   6.541   6.434   0.075
 8438SOL    HW227212   6.553   6.523  14.826
 8439SOL     OW27213   2.002   1.111  14.682
 8439SOL    HW127214   2.027   1.190  14.730
 8439SOL    HW227215   2.068   1.046  14.706
 8440SOL     OW27216   6.286   6.557  12.526
 8440SOL    HW127217   6.349   6.625  12.550
 8440SOL    HW227218   6.265   6.514  12.609
 8441SOL     OW27219  13.436   7.375   8.243
 8441SOL    HW127220  13.403   7.330   8.165
 8441SOL    HW227221  13.528   7.394   8.223
 8442SOL     OW27222   6.140   0.564   2.894
 8442SOL    HW127223   6.066   0.624   2.884
 8442SOL    HW227224   6.200   0.590   2.824
 8443SOL     OW27225  12.447   8.790  13.659
 8443SOL    HW127226  12.418   8.710  13.702
 8443SOL    HW227227  12.413   8.861  13.713
 8444SOL     OW27228   1.892   4.371   5.819
 8444SOL    HW127229   1.888   4.329   5.904
 8444SOL    HW227230   1.906   4.299   5.757
 8445SOL     OW27231   3.286   1.406  10.130
 8445SOL    HW127232   3.314   1.495  10.151
 8445SOL    HW227233   3.303   1.357  10.211
 8446SOL     OW27234   9.012  13.297   9.448
 8446SOL    HW127235   9.097  13.260   9.425
 8446SOL    HW227236   9.030  13.353   9.524
 8447SOL     OW27237   6.138   4.842   9.658
 8447SOL    HW127238   6.136   4.818   9.565
 8447SOL    HW227239   6.129   4.759   9.704
 8448SOL     OW27240   4.907   9.355  13.481
 8448SOL    HW127241   4.899   9.359  13.577
 8448SOL    HW227242   5.001   9.348  13.466
 8449SOL     OW27243  11.957  11.651  13.714
 8449SOL    HW127244  11.928  11.576  13.663
 8449SOL    HW227245  11.992  11.614  13.795
 8450SOL     OW27246   9.991  12.783   9.317
 8450SOL    HW127247   9.990  12.858   9.377
 8450SOL    HW227248  10.081  12.751   9.321
 8451SOL     OW27249   2.635   8.341  12.568
 8451SOL    HW127250   2.585   8.289  12.632
 8451SOL    HW227251   2.646   8.426  12.611
 8452SOL     OW27252  13.799   2.599   1.169
 8452SOL    HW127253  13.721   2.608   1.114
 8452SOL    HW227254  13.853   2.675   1.147
 8453SOL     OW27255   3.578   9.174   5.614
 8453SOL    HW127256   3.670   9.148   5.617
 8453SOL    HW227257   3.544   9.156   5.702
 8454SOL     OW27258   0.569   9.694   5.471
 8454SOL    HW127259   0.630   9.731   5.535
 8454SOL    HW227260   0.573   9.754   5.397
 8455SOL     OW27261   6.889  13.122   3.281
 8455SOL    HW127262   6.812  13.175   3.263
 8455SOL    HW227263   6.920  13.095   3.194
 8456SOL     OW27264   3.596   0.509   5.610
 8456SOL    HW127265   3.615   0.441   5.675
 8456SOL    HW227266   3.620   0.469   5.526
 8457SOL     OW27267   2.339  11.761   3.156
 8457SOL    HW127268   2.289  11.812   3.092
 8457SOL    HW227269   2.304  11.789   3.241
 8458SOL     OW27270   9.038  10.143   7.487
 8458SOL    HW127271   9.002  10.229   7.509
 8458SOL    HW227272   8.984  10.113   7.413
 8459SOL     OW27273  14.426  14.539   1.498
 8459SOL    HW127274  14.434  14.475   1.569
 8459SOL    HW227275  14.399  14.620   1.542
 8460SOL     OW27276   7.932  12.256   5.362
 8460SOL    HW127277   7.934  12.170   5.320
 8460SOL    HW227278   7.910  12.316   5.291
 8461SOL     OW27279   7.377   2.198  13.449
 8461SOL    HW127280   7.422   2.258  13.390
 8461SOL    HW227281   7.432   2.197  13.528
 8462SOL     OW27282  10.467   3.684  10.323
 8462SOL    HW127283  10.515   3.731  10.255
 8462SOL    HW227284  10.402   3.633  10.276
 8463SOL     OW27285   7.963  11.677  11.007
 8463SOL    HW127286   8.001  11.666  10.919
 8463SOL    HW227287   8.037  11.668  11.066
 8464SOL     OW27288   0.400   3.132   5.624
 8464SOL    HW127289   0.342   3.137   5.548
 8464SOL    HW227290   0.446   3.216   5.625
 8465SOL     OW27291   9.728  10.007  12.873
 8465SOL    HW127292   9.812  10.015  12.828
 8465SOL    HW227293   9.751  10.004  12.966
 8466SOL     OW27294   4.838  10.071  11.151
 8466SOL    HW127295   4.870  10.161  11.142
 8466SOL    HW227296   4.857  10.031  11.065
 8467SOL     OW27297   2.160  13.832  13.632
 8467SOL    HW127298   2.141  13.774  13.706
 8467SOL    HW227299   2.230  13.788  13.585
 8468SOL     OW27300   7.367  10.180   2.888
 8468SOL    HW127301   7.312  10.189   2.966
 8468SOL    HW227302   7.442  10.127   2.917
 8469SOL     OW27303   9.496   7.839   0.440
 8469SOL    HW127304   9.400   7.839   0.442
 8469SOL    HW227305   9.519   7.930   0.419
 8470SOL     OW27306   8.131   6.745   6.859
 8470SOL    HW127307   8.101   6.746   6.768
 8470SOL    HW227308   8.144   6.838   6.881
 8471SOL     OW27309   6.017   2.895  12.018
 8471SOL    HW127310   6.006   2.840  12.095
 8471SOL    HW227311   5.936   2.946  12.013
 8472SOL     OW27312   9.036   0.658  10.990
 8472SOL    HW127313   9.003   0.569  10.978
 8472SOL    HW227314   8.958   0.711  11.008
 8473SOL     OW27315  13.180   3.654  14.299
 8473SOL    HW127316  13.190   3.561  14.280
 8473SOL    HW227317  13.109   3.658  14.363
 8474SOL     OW27318   4.462  13.144   2.201
 8474SOL    HW127319   4.511  13.175   2.277
 8474SOL    HW227320   4.391  13.091   2.239
 8475SOL     OW27321   1.392   1.640   9.809
 8475SOL    HW127322   1.365   1.721   9.765
 8475SOL    HW227323   1.413   1.668   9.898
 8476SOL     OW27324   6.325   6.299   6.355
 8476SOL    HW127325   6.397   6.236   6.346
 8476SOL    HW227326   6.339   6.339   6.441
 8477SOL     OW27327   7.203  10.928  12.531
 8477SOL    HW127328   7.216  11.021  12.544
 8477SOL    HW227329   7.143  10.901  12.600
 8478SOL     OW27330  13.572   3.021   2.566
 8478SOL    HW127331  13.565   3.052   2.656
 8478SOL    HW227332  13.559   3.098   2.512
 8479SOL     OW27333  14.764   1.868   1.426
 8479SOL    HW127334  14.852   1.904   1.436
 8479SOL    HW227335  14.769   1.781   1.467
 8480SOL     OW27336  10.097   2.025   8.189
 8480SOL    HW127337  10.166   2.035   8.123
 8480SOL    HW227338  10.134   2.063   8.269
 8481SOL     OW27339   4.462   0.128   4.790
 8481SOL    HW127340   4.463   0.206   4.734
 8481SOL    HW227341   4.396   0.148   4.857
 8482SOL     OW27342   6.692   9.520   2.361
 8482SOL    HW127343   6.625   9.563   2.310
 8482SOL    HW227344   6.662   9.526   2.452
 8483SOL     OW27345   7.106   7.580   0.485
 8483SOL    HW127346   7.096   7.672   0.507
 8483SOL    HW227347   7.196   7.558   0.509
 8484SOL     OW27348  12.534  11.788   5.081
 8484SOL    HW127349  12.596  11.715   5.073
 8484SOL    HW227350  12.556  11.846   5.008
 8485SOL     OW27351   9.219   4.714   0.223
 8485SOL    HW127352   9.283   4.657   0.181
 8485SOL    HW227353   9.272   4.786   0.260
 8486SOL     OW27354   4.208   5.974   5.225
 8486SOL    HW127355   4.258   6.041   5.272
 8486SOL    HW227356   4.264   5.948   5.152
 8487SOL     OW27357   7.175   7.734   8.403
 8487SOL    HW127358   7.114   7.667   8.373
 8487SOL    HW227359   7.138   7.764   8.486
 8488SOL     OW27360  14.032   4.161   4.773
 8488SOL    HW127361  13.978   4.229   4.732
 8488SOL    HW227362  13.978   4.082   4.768
 8489SOL     OW27363  12.653  12.724   8.724
 8489SOL    HW127364  12.631  12.817   8.723
 8489SOL    HW227365  12.645  12.697   8.633
 8490SOL     OW27366   3.259   9.732   9.584
 8490SOL    HW127367   3.216   9.668   9.527
 8490SOL    HW227368   3.217   9.720   9.669
 8491SOL     OW27369  10.722   8.110  12.117
 8491SOL    HW127370  10.733   8.131  12.210
 8491SOL    HW227371  10.795   8.154  12.073
 8492SOL     OW27372  12.634   4.257  12.437
 8492SOL    HW127373  12.685   4.176  12.426
 8492SOL    HW227374  12.612   4.284  12.348
 8493SOL     OW27375  14.797  11.090  12.686
 8493SOL    HW127376  14.743  11.168  12.698
 8493SOL    HW227377  14.818  11.089  12.593
 8494SOL     OW27378  12.289  11.000   5.615
 8494SOL    HW127379  12.291  10.905   5.622
 8494SOL    HW227380  12.242  11.017   5.534
 8495SOL     OW27381   6.423  12.501   5.155
 8495SOL    HW127382   6.508  12.536   5.179
 8495SOL    HW227383   6.407  12.430   5.217
 8496SOL     OW27384  14.256   5.854  12.065
 8496SOL    HW127385  14.240   5.936  12.019
 8496SOL    HW227386  14.179   5.840  12.119
 8497SOL     OW27387   4.777  10.371   1.814
 8497SOL    HW127388   4.830  10.383   1.735
 8497SOL    HW227389   4.778  10.457   1.857
 8498SOL     OW27390  12.712   2.948  13.457
 8498SOL    HW127391  12.758   2.975  13.536
 8498SOL    HW227392  12.778   2.955  13.388
 8499SOL     OW27393  10.104   1.484   3.593
 8499SOL    HW127394  10.100   1.441   3.507
 8499SOL    HW227395  10.154   1.423   3.647
 8500SOL     OW27396  14.844   5.362   0.457
 8500SOL    HW127397   0.004   5.339   0.544
 8500SOL    HW227398   0.013   5.446   0.436
 8501SOL     OW27399   1.206   5.194   6.293
 8501SOL    HW127400   1.283   5.169   6.343
 8501SOL    HW227401   1.208   5.290   6.293
 8502SOL     OW27402   9.319   2.282   9.532
 8502SOL    HW127403   9.380   2.211   9.509
 8502SOL    HW227404   9.331   2.294   9.626
 8503SOL     OW27405   3.577   8.612  14.231
 8503SOL    HW127406   3.492   8.568  14.220
 8503SOL    HW227407   3.638   8.556  14.183
 8504SOL     OW27408  11.971   4.211   2.804
 8504SOL    HW127409  11.962   4.273   2.732
 8504SOL    HW227410  12.031   4.144   2.772
 8505SOL     OW27411  10.514  12.717  11.743
 8505SOL    HW127412  10.453  12.732  11.671
 8505SOL    HW227413  10.567  12.643  11.715
 8506SOL     OW27414   8.770   8.333   1.155
 8506SOL    HW127415   8.736   8.288   1.077
 8506SOL    HW227416   8.692   8.355   1.205
 8507SOL     OW27417   8.552  10.192  12.314
 8507SOL    HW127418   8.636  10.204  12.357
 8507SOL    HW227419   8.512  10.117  12.359
 8508SOL     OW27420  13.827   0.691   4.273
 8508SOL    HW127421  13.914   0.653   4.289
 8508SOL    HW227422  13.794   0.642   4.197
 8509SOL     OW27423   6.366   1.375   4.317
 8509SOL    HW127424   6.405   1.298   4.274
 8509SOL    HW227425   6.287   1.393   4.267
 8510SOL     OW27426   3.549  12.170  10.404
 8510SOL    HW127427   3.545  12.254  10.358
 8510SOL    HW227428   3.643  12.153  10.415
 8511SOL     OW27429  11.742  11.307   1.761
 8511SOL    HW127430  11.817  11.301   1.702
 8511SOL    HW227431  11.747  11.227   1.814
 8512SOL     OW27432   0.671  11.412   1.174
 8512SOL    HW127433   0.749  11.465   1.189
 8512SOL    HW227434   0.637  11.443   1.090
 8513SOL     OW27435  11.518   9.787   2.725
 8513SOL    HW127436  11.468   9.840   2.662
 8513SOL    HW227437  11.452   9.738   2.773
 8514SOL     OW27438   5.519   2.758   9.090
 8514SOL    HW127439   5.589   2.752   9.025
 8514SOL    HW227440   5.441   2.783   9.040
 8515SOL     OW27441   8.937   4.434   0.605
 8515SOL    HW127442   8.878   4.380   0.553
 8515SOL    HW227443   8.888   4.452   0.685
 8516SOL     OW27444   2.461   6.149  10.204
 8516SOL    HW127445   2.501   6.073  10.162
 8516SOL    HW227446   2.512   6.161  10.285
 8517SOL     OW27447  10.287   2.850  11.263
 8517SOL    HW127448  10.324   2.918  11.320
 8517SOL    HW227449  10.192   2.857  11.275
 8518SOL     OW27450  11.654   5.781   1.869
 8518SOL    HW127451  11.569   5.824   1.871
 8518SOL    HW227452  11.691   5.798   1.956
 8519SOL     OW27453   3.889  12.271   8.443
 8519SOL    HW127454   3.914  12.242   8.355
 8519SOL    HW227455   3.851  12.194   8.484
 8520SOL     OW27456   4.558  12.578   6.672
 8520SOL    HW127457   4.527  12.584   6.581
 8520SOL    HW227458   4.653  12.586   6.666
 8521SOL     OW27459   3.789   2.405   3.504
 8521SOL    HW127460   3.726   2.472   3.528
 8521SOL    HW227461   3.773   2.389   3.411
 8522SOL     OW27462  14.846   0.988  12.359
 8522SOL    HW127463  14.844   1.019  12.450
 8522SOL    HW227464   0.067   0.978  12.339
 8523SOL     OW27465   2.988   6.559   7.037
 8523SOL    HW127466   3.037   6.640   7.048
 8523SOL    HW227467   2.960   6.561   6.945
 8524SOL     OW27468   0.572   5.389   5.108
 8524SOL    HW127469   0.534   5.308   5.074
 8524SOL    HW227470   0.599   5.366   5.197
 8525SOL     OW27471   2.981  13.728   3.548
 8525SOL    HW127472   2.965  13.672   3.472
 8525SOL    HW227473   3.062  13.694   3.586
 8526SOL     OW27474  10.653   8.797   1.713
 8526SOL    HW127475  10.561   8.793   1.737
 8526SOL    HW227476  10.696   8.734   1.771
 8527SOL     OW27477   0.452   0.075  11.854
 8527SOL    HW127478   0.371   0.049  11.898
 8527SOL    HW227479   0.462   0.013  11.782
 8528SOL     OW27480  14.125   6.447   2.142
 8528SOL    HW127481  14.134   6.363   2.098
 8528SOL    HW227482  14.039   6.443   2.184
 8529SOL     OW27483  12.626   6.160  11.212
 8529SOL    HW127484  12.550   6.163  11.271
 8529SOL    HW227485  12.701   6.155  11.271
 8530SOL     OW27486  11.499   4.911   5.556
 8530SOL    HW127487  11.516   4.959   5.475
 8530SOL    HW227488  11.433   4.846   5.533
 8531SOL     OW27489   1.093  13.802   7.879
 8531SOL    HW127490   1.004  13.837   7.890
 8531SOL    HW227491   1.122  13.835   7.794
 8532SOL     OW27492   6.373  11.170  10.580
 8532SOL    HW127493   6.290  11.122  10.590
 8532SOL    HW227494   6.435  11.104  10.550
 8533SOL     OW27495   7.015   2.479   5.530
 8533SOL    HW127496   6.979   2.391   5.524
 8533SOL    HW227497   7.110   2.467   5.531
 8534SOL     OW27498   1.653   4.359   9.394
 8534SOL    HW127499   1.654   4.265   9.407
 8534SOL    HW227500   1.596   4.393   9.464
 8535SOL     OW27501   3.687   1.073   7.210
 8535SOL    HW127502   3.779   1.067   7.236
 8535SOL    HW227503   3.673   0.996   7.155
 8536SOL     OW27504   1.176   4.082  10.221
 8536SOL    HW127505   1.144   4.123  10.140
 8536SOL    HW227506   1.271   4.090  10.215
 8537SOL     OW27507   0.218   1.504   6.775
 8537SOL    HW127508   0.223   1.478   6.683
 8537SOL    HW227509   0.305   1.537   6.796
 8538SOL     OW27510  13.378  13.339   6.413
 8538SOL    HW127511  13.415  13.366   6.329
 8538SOL    HW227512  13.287  13.319   6.394
 8539SOL     OW27513  12.985   2.941   0.258
 8539SOL    HW127514  12.906   2.949   0.203
 8539SOL    HW227515  13.003   3.030   0.287
 8540SOL     OW27516  10.780  14.629  14.352
 8540SOL    HW127517  10.702  14.578  14.326
 8540SOL    HW227518  10.832  14.635  14.272
 8541SOL     OW27519   8.748   5.147   4.893
 8541SOL    HW127520   8.661   5.156   4.854
 8541SOL    HW227521   8.768   5.234   4.928
 8542SOL     OW27522   8.195   3.548   1.162
 8542SOL    HW127523   8.143   3.628   1.166
 8542SOL    HW227524   8.284   3.577   1.141
 8543SOL     OW27525   4.731   3.079   1.458
 8543SOL    HW127526   4.789   3.077   1.534
 8543SOL    HW227527   4.703   2.988   1.446
 8544SOL     OW27528  10.671   1.415   4.434
 8544SOL    HW127529  10.654   1.322   4.446
 8544SOL    HW227530  10.665   1.429   4.339
 8545SOL     OW27531   8.217   4.075   4.923
 8545SOL    HW127532   8.208   4.028   4.840
 8545SOL    HW227533   8.156   4.148   4.916
 8546SOL     OW27534  11.195  11.502   3.955
 8546SOL    HW127535  11.123  11.468   4.009
 8546SOL    HW227536  11.214  11.588   3.993
 8547SOL     OW27537   8.484  10.469   3.434
 8547SOL    HW127538   8.484  10.443   3.342
 8547SOL    HW227539   8.568  10.514   3.446
 8548SOL     OW27540   8.950  13.953   5.456
 8548SOL    HW127541   9.018  14.013   5.424
 8548SOL    HW227542   8.968  13.946   5.550
 8549SOL     OW27543  13.940   8.203   8.222
 8549SOL    HW127544  13.888   8.174   8.147
 8549SOL    HW227545  13.936   8.131   8.283
 8550SOL     OW27546   8.415   6.654   4.205
 8550SOL    HW127547   8.356   6.578   4.200
 8550SOL    HW227548   8.491   6.628   4.153
 8551SOL     OW27549   3.640   9.288  10.914
 8551SOL    HW127550   3.606   9.378  10.920
 8551SOL    HW227551   3.569   9.233  10.945
 8552SOL     OW27552  12.519   3.592  12.405
 8552SOL    HW127553  12.571   3.532  12.459
 8552SOL    HW227554  12.572   3.607  12.327
 8553SOL     OW27555  14.312   6.038   8.825
 8553SOL    HW127556  14.316   5.975   8.754
 8553SOL    HW227557  14.219   6.061   8.832
 8554SOL     OW27558   7.420  10.486  12.797
 8554SOL    HW127559   7.381  10.540  12.728
 8554SOL    HW227560   7.495  10.537  12.828
 8555SOL     OW27561   9.551   2.475   5.069
 8555SOL    HW127562   9.583   2.530   4.997
 8555SOL    HW227563   9.462   2.506   5.084
 8556SOL     OW27564   6.298  11.372  13.574
 8556SOL    HW127565   6.317  11.455  13.530
 8556SOL    HW227566   6.373  11.357  13.631
 8557SOL     OW27567   9.497   0.442   6.852
 8557SOL    HW127568   9.471   0.486   6.933
 8557SOL    HW227569   9.502   0.512   6.787
 8558SOL     OW27570   5.730   8.041  12.219
 8558SOL    HW127571   5.779   7.959  12.229
 8558SOL    HW227572   5.793   8.109  12.238
 8559SOL     OW27573   0.600   5.919   1.610
 8559SOL    HW127574   0.660   5.884   1.544
 8559SOL    HW227575   0.626   5.875   1.691
 8560SOL     OW27576   0.799  12.479   3.102
 8560SOL    HW127577   0.769  12.397   3.064
 8560SOL    HW227578   0.812  12.538   3.027
 8561SOL     OW27579  10.301  14.260   0.082
 8561SOL    HW127580  10.294  14.348   0.118
 8561SOL    HW227581  10.295  14.272  14.859
 8562SOL     OW27582  12.761   4.695   9.959
 8562SOL    HW127583  12.725   4.643   9.886
 8562SOL    HW227584  12.709   4.775   9.958
 8563SOL     OW27585   9.015   7.024   8.630
 8563SOL    HW127586   8.928   7.046   8.598
 8563SOL    HW227587   9.002   6.946   8.683
 8564SOL     OW27588   4.961   0.140   1.998
 8564SOL    HW127589   4.943   0.217   1.944
 8564SOL    HW227590   4.946   0.170   2.088
 8565SOL     OW27591   4.026   5.619   0.355
 8565SOL    HW127592   3.950   5.629   0.413
 8565SOL    HW227593   4.034   5.702   0.309
 8566SOL     OW27594   3.846   2.407   8.306
 8566SOL    HW127595   3.889   2.468   8.366
 8566SOL    HW227596   3.903   2.403   8.229
 8567SOL     OW27597   2.294  10.683  10.564
 8567SOL    HW127598   2.217  10.637  10.595
 8567SOL    HW227599   2.263  10.770  10.541
 8568SOL     OW27600   4.987   4.055   0.510
 8568SOL    HW127601   4.959   3.972   0.471
 8568SOL    HW227602   4.916   4.080   0.569
 8569SOL     OW27603  11.381   9.927  11.941
 8569SOL    HW127604  11.464   9.918  11.989
 8569SOL    HW227605  11.315   9.896  12.003
 8570SOL     OW27606  13.077   8.866   3.142
 8570SOL    HW127607  13.018   8.941   3.131
 8570SOL    HW227608  13.021   8.796   3.175
 8571SOL     OW27609   3.651   3.507   0.679
 8571SOL    HW127610   3.605   3.589   0.698
 8571SOL    HW227611   3.613   3.444   0.741
 8572SOL     OW27612   3.523   9.215  12.929
 8572SOL    HW127613   3.595   9.199  12.990
 8572SOL    HW227614   3.533   9.306  12.903
 8573SOL     OW27615  13.476  13.200   2.386
 8573SOL    HW127616  13.530  13.232   2.314
 8573SOL    HW227617  13.413  13.141   2.344
 8574SOL     OW27618   2.485  14.853   4.984
 8574SOL    HW127619   2.433  14.835   4.905
 8574SOL    HW227620   2.571   0.007   4.951
 8575SOL     OW27621   0.066   5.833   8.065
 8575SOL    HW127622   0.052   5.901   8.131
 8575SOL    HW227623   0.027   5.868   7.985
 8576SOL     OW27624   3.356  10.319  13.817
 8576SOL    HW127625   3.279  10.307  13.762
 8576SOL    HW227626   3.364  10.237  13.865
 8577SOL     OW27627   7.211  12.324   0.934
 8577SOL    HW127628   7.290  12.271   0.926
 8577SOL    HW227629   7.244  12.414   0.943
 8578SOL     OW27630   0.867   3.761  14.675
 8578SOL    HW127631   0.927   3.824  14.635
 8578SOL    HW227632   0.793   3.815  14.705
 8579SOL     OW27633  13.876   0.654  12.177
 8579SOL    HW127634  13.905   0.651  12.086
 8579SOL    HW227635  13.815   0.581  12.185
 8580SOL     OW27636   5.156  14.166   6.633
 8580SOL    HW127637   5.225  14.185   6.570
 8580SOL    HW227638   5.164  14.073   6.652
 8581SOL     OW27639   7.103  11.376   0.842
 8581SOL    HW127640   7.018  11.331   0.847
 8581SOL    HW227641   7.167  11.307   0.857
 8582SOL     OW27642   3.269   2.823   6.991
 8582SOL    HW127643   3.189   2.836   7.043
 8582SOL    HW227644   3.323   2.899   7.013
 8583SOL     OW27645   2.630   6.060   9.905
 8583SOL    HW127646   2.690   6.055   9.979
 8583SOL    HW227647   2.667   6.128   9.848
 8584SOL     OW27648   6.472   6.996   4.574
 8584SOL    HW127649   6.382   7.025   4.590
 8584SOL    HW227650   6.520   7.076   4.556
 8585SOL     OW27651  11.992  10.770  12.934
 8585SOL    HW127652  11.931  10.760  12.860
 8585SOL    HW227653  11.980  10.859  12.964
 8586SOL     OW27654   8.444   3.323   3.657
 8586SOL    HW127655   8.349   3.320   3.639
 8586SOL    HW227656   8.476   3.237   3.629
 8587SOL     OW27657   4.365   8.654  12.657
 8587SOL    HW127658   4.446   8.602  12.656
 8587SOL    HW227659   4.351   8.677  12.566
 8588SOL     OW27660   5.766   2.666   0.336
 8588SOL    HW127661   5.698   2.601   0.317
 8588SOL    HW227662   5.719   2.742   0.369
 8589SOL     OW27663   2.944   8.813  11.082
 8589SOL    HW127664   2.887   8.770  11.146
 8589SOL    HW227665   2.951   8.750  11.010
 8590SOL     OW27666   0.664   7.421   8.312
 8590SOL    HW127667   0.732   7.353   8.305
 8590SOL    HW227668   0.618   7.418   8.229
 8591SOL     OW27669  14.354   9.414   7.487
 8591SOL    HW127670  14.344   9.473   7.413
 8591SOL    HW227671  14.410   9.462   7.548
 8592SOL     OW27672   6.144  13.307   5.310
 8592SOL    HW127673   6.224  13.255   5.317
 8592SOL    HW227674   6.112  13.314   5.400
 8593SOL     OW27675   4.041  12.901   4.168
 8593SOL    HW127676   4.129  12.915   4.202
 8593SOL    HW227677   4.009  12.825   4.215
 8594SOL     OW27678   0.350   2.660   9.207
 8594SOL    HW127679   0.302   2.740   9.187
 8594SOL    HW227680   0.344   2.607   9.128
 8595SOL     OW27681  13.882   1.656   4.921
 8595SOL    HW127682  13.799   1.662   4.873
 8595SOL    HW227683  13.905   1.564   4.918
 8596SOL     OW27684   6.561   9.007  10.424
 8596SOL    HW127685   6.612   9.066  10.480
 8596SOL    HW227686   6.626   8.967  10.366
 8597SOL     OW27687   1.499   3.269   9.359
 8597SOL    HW127688   1.461   3.181   9.365
 8597SOL    HW227689   1.448   3.312   9.290
 8598SOL     OW27690  11.812   5.351   2.594
 8598SOL    HW127691  11.767   5.435   2.599
 8598SOL    HW227692  11.743   5.286   2.613
 8599SOL     OW27693  13.185   9.123  14.688
 8599SOL    HW127694  13.268   9.154  14.726
 8599SOL    HW227695  13.144   9.202  14.652
 8600SOL     OW27696   3.417  14.564   8.111
 8600SOL    HW127697   3.485  14.605   8.165
 8600SOL    HW227698   3.436  14.470   8.117
 8601SOL     OW27699  10.584   2.778   6.234
 8601SOL    HW127700  10.533   2.724   6.294
 8601SOL    HW227701  10.676   2.758   6.256
 8602SOL     OW27702   6.037   8.094   0.622
 8602SOL    HW127703   6.111   8.047   0.583
 8602SOL    HW227704   5.975   8.106   0.550
 8603SOL     OW27705   7.666  14.398   4.876
 8603SOL    HW127706   7.723  14.352   4.937
 8603SOL    HW227707   7.618  14.329   4.832
 8604SOL     OW27708   5.708  10.575  12.696
 8604SOL    HW127709   5.773  10.642  12.719
 8604SOL    HW227710   5.677  10.543  12.781
 8605SOL     OW27711   9.292   8.776  11.772
 8605SOL    HW127712   9.197   8.780  11.779
 8605SOL    HW227713   9.322   8.858  11.811
 8606SOL     OW27714   3.669  11.937   3.290
 8606SOL    HW127715   3.602  11.947   3.223
 8606SOL    HW227716   3.658  11.847   3.322
 8607SOL     OW27717  12.543   9.412  11.672
 8607SOL    HW127718  12.632   9.444  11.652
 8607SOL    HW227719  12.490   9.444  11.599
 8608SOL     OW27720   6.413   9.658  11.478
 8608SOL    HW127721   6.454   9.572  11.471
 8608SOL    HW227722   6.477   9.712  11.524
 8609SOL     OW27723   3.093   4.088   8.801
 8609SOL    HW127724   3.001   4.107   8.819
 8609SOL    HW227725   3.136   4.095   8.887
 8610SOL     OW27726   6.017  14.854  11.368
 8610SOL    HW127727   6.042   0.074  11.377
 8610SOL    HW227728   5.952  14.840  11.437
 8611SOL     OW27729   5.706   2.493   3.233
 8611SOL    HW127730   5.637   2.497   3.299
 8611SOL    HW227731   5.704   2.403   3.202
 8612SOL     OW27732  11.911   3.209  10.279
 8612SOL    HW127733  11.869   3.292  10.304
 8612SOL    HW227734  11.880   3.193  10.190
 8613SOL     OW27735   0.781   3.244   3.194
 8613SOL    HW127736   0.812   3.323   3.238
 8613SOL    HW227737   0.848   3.226   3.128
 8614SOL     OW27738   4.736   5.058   8.388
 8614SOL    HW127739   4.716   5.104   8.469
 8614SOL    HW227740   4.696   5.112   8.319
 8615SOL     OW27741   2.395   0.932   0.260
 8615SOL    HW127742   2.482   0.911   0.293
 8615SOL    HW227743   2.349   0.848   0.257
 8616SOL     OW27744   1.916   9.728   7.340
 8616SOL    HW127745   1.988   9.738   7.401
 8616SOL    HW227746   1.842   9.702   7.395
 8617SOL     OW27747  11.109   5.579  12.135
 8617SOL    HW127748  11.158   5.648  12.179
 8617SOL    HW227749  11.136   5.499  12.179
 8618SOL     OW27750   1.010  13.665   6.748
 8618SOL    HW127751   0.951  13.604   6.704
 8618SOL    HW227752   0.983  13.751   6.715
 8619SOL     OW27753  11.209   0.232  12.857
 8619SOL    HW127754  11.290   0.234  12.908
 8619SOL    HW227755  11.215   0.308  12.799
 8620SOL     OW27756   0.097   9.044   9.384
 8620SOL    HW127757   0.134   8.962   9.417
 8620SOL    HW227758   0.170   9.086   9.338
 8621SOL     OW27759   0.460   1.024   0.081
 8621SOL    HW127760   0.385   1.061   0.035
 8621SOL    HW227761   0.506   0.973   0.015
 8622SOL     OW27762  11.915   6.587   4.565
 8622SOL    HW127763  11.953   6.520   4.508
 8622SOL    HW227764  11.970   6.664   4.551
 8623SOL     OW27765   5.133   8.201  14.257
 8623SOL    HW127766   5.125   8.295  14.241
 8623SOL    HW227767   5.216   8.177  14.216
 8624SOL     OW27768  11.564   1.384   0.968
 8624SOL    HW127769  11.526   1.472   0.972
 8624SOL    HW227770  11.494   1.326   0.996
 8625SOL     OW27771   6.823   6.313  14.300
 8625SOL    HW127772   6.894   6.333  14.361
 8625SOL    HW227773   6.816   6.217  14.302
 8626SOL     OW27774  11.917   9.708   0.772
 8626SOL    HW127775  12.005   9.746   0.766
 8626SOL    HW227776  11.907   9.684   0.864
 8627SOL     OW27777   2.148   9.192   2.368
 8627SOL    HW127778   2.157   9.286   2.356
 8627SOL    HW227779   2.187   9.175   2.454
 8628SOL     OW27780   2.882  14.817   5.387
 8628SOL    HW127781   2.878  14.756   5.313
 8628SOL    HW227782   2.794  14.814   5.425
 8629SOL     OW27783   1.619   0.145   7.437
 8629SOL    HW127784   1.702   0.166   7.394
 8629SOL    HW227785   1.592   0.227   7.478
 8630SOL     OW27786   8.516   6.497   6.290
 8630SOL    HW127787   8.502   6.591   6.283
 8630SOL    HW227788   8.430   6.461   6.314
 8631SOL     OW27789   6.993  12.138   9.901
 8631SOL    HW127790   7.026  12.226   9.918
 8631SOL    HW227791   6.903  12.151   9.870
 8632SOL     OW27792  14.741   1.146   9.664
 8632SOL    HW127793  14.672   1.081   9.650
 8632SOL    HW227794  14.734   1.170   9.756
 8633SOL     OW27795   7.519   7.715   7.246
 8633SOL    HW127796   7.495   7.623   7.235
 8633SOL    HW227797   7.520   7.750   7.157
 8634SOL     OW27798   1.374  11.706  11.195
 8634SOL    HW127799   1.410  11.640  11.136
 8634SOL    HW227800   1.348  11.779  11.138
 8635SOL     OW27801   7.132   8.922  14.256
 8635SOL    HW127802   7.090   8.950  14.337
 8635SOL    HW227803   7.226   8.921  14.276
 8636SOL     OW27804   8.593  13.150   9.375
 8636SOL    HW127805   8.638  13.189   9.450
 8636SOL    HW227806   8.664  13.124   9.316
 8637SOL     OW27807  11.026   9.509  12.518
 8637SOL    HW127808  10.955   9.566  12.492
 8637SOL    HW227809  10.996   9.421  12.496
 8638SOL     OW27810   9.776   9.140   0.858
 8638SOL    HW127811   9.768   9.059   0.807
 8638SOL    HW227812   9.749   9.209   0.797
 8639SOL     OW27813   4.622   4.836  14.326
 8639SOL    HW127814   4.556   4.901  14.353
 8639SOL    HW227815   4.580   4.752  14.343
 8640SOL     OW27816   4.251   2.290   8.742
 8640SOL    HW127817   4.192   2.336   8.801
 8640SOL    HW227818   4.193   2.235   8.688
 8641SOL     OW27819   4.519   7.963  14.008
 8641SOL    HW127820   4.592   7.948  13.948
 8641SOL    HW227821   4.556   8.013  14.080
 8642SOL     OW27822   6.273  14.223   2.919
 8642SOL    HW127823   6.312  14.138   2.938
 8642SOL    HW227824   6.194  14.202   2.869
 8643SOL     OW27825   2.177   0.653   9.082
 8643SOL    HW127826   2.121   0.575   9.080
 8643SOL    HW227827   2.123   0.721   9.041
 8644SOL     OW27828  11.177  11.423   8.290
 8644SOL    HW127829  11.252  11.482   8.283
 8644SOL    HW227830  11.200  11.348   8.236
 8645SOL     OW27831   9.603   9.829   7.067
 8645SOL    HW127832   9.562   9.898   7.014
 8645SOL    HW227833   9.663   9.876   7.125
 8646SOL     OW27834   2.966   5.861   2.057
 8646SOL    HW127835   3.010   5.919   2.119
 8646SOL    HW227836   2.910   5.806   2.110
 8647SOL     OW27837  14.795   7.592  10.264
 8647SOL    HW127838  14.707   7.564  10.289
 8647SOL    HW227839  14.819   7.657  10.331
 8648SOL     OW27840   3.368  14.097  12.230
 8648SOL    HW127841   3.456  14.124  12.255
 8648SOL    HW227842   3.317  14.178  12.232
 8649SOL     OW27843   4.545  10.357  13.546
 8649SOL    HW127844   4.467  10.393  13.502
 8649SOL    HW227845   4.520  10.268  13.569
 8650SOL     OW27846   1.258   1.646  14.447
 8650SOL    HW127847   1.285   1.595  14.370
 8650SOL    HW227848   1.280   1.590  14.521
 8651SOL     OW27849   8.642   9.802   3.993
 8651SOL    HW127850   8.562   9.837   4.032
 8651SOL    HW227851   8.623   9.710   3.977
 8652SOL     OW27852   8.042   3.455   4.423
 8652SOL    HW127853   8.021   3.534   4.374
 8652SOL    HW227854   8.039   3.385   4.359
 8653SOL     OW27855   8.940   9.849  11.338
 8653SOL    HW127856   8.882   9.925  11.346
 8653SOL    HW227857   8.981   9.842  11.425
 8654SOL     OW27858   6.910   9.023   0.179
 8654SOL    HW127859   6.920   8.929   0.161
 8654SOL    HW227860   6.850   9.053   0.111
 8655SOL     OW27861  10.197  13.102  12.162
 8655SOL    HW127862  10.250  13.024  12.146
 8655SOL    HW227863  10.110  13.079  12.129
 8656SOL     OW27864  12.329  12.402  13.698
 8656SOL    HW127865  12.312  12.344  13.772
 8656SOL    HW227866  12.418  12.435  13.714
 8657SOL     OW27867   5.399   6.302   4.095
 8657SOL    HW127868   5.449   6.223   4.113
 8657SOL    HW227869   5.466   6.371   4.090
 8658SOL     OW27870   6.894  13.233  11.838
 8658SOL    HW127871   6.931  13.320  11.823
 8658SOL    HW227872   6.961  13.173  11.805
 8659SOL     OW27873   7.554   0.440  14.844
 8659SOL    HW127874   7.606   0.422  14.765
 8659SOL    HW227875   7.513   0.525  14.826
 8660SOL     OW27876   0.561   2.510   2.253
 8660SOL    HW127877   0.609   2.464   2.184
 8660SOL    HW227878   0.518   2.440   2.303
 8661SOL     OW27879   2.436   6.067  11.604
 8661SOL    HW127880   2.369   6.128  11.635
 8661SOL    HW227881   2.431   6.073  11.508
 8662SOL     OW27882  13.207   8.307  11.672
 8662SOL    HW127883  13.214   8.220  11.632
 8662SOL    HW227884  13.256   8.300  11.754
 8663SOL     OW27885  13.915   7.374  10.061
 8663SOL    HW127886  13.822   7.384  10.041
 8663SOL    HW227887  13.928   7.280  10.071
 8664SOL     OW27888   9.653   3.440   2.719
 8664SOL    HW127889   9.559   3.425   2.714
 8664SOL    HW227890   9.687   3.364   2.767
 8665SOL     OW27891  14.666   6.390  12.095
 8665SOL    HW127892  14.579   6.349  12.094
 8665SOL    HW227893  14.654   6.470  12.044
 8666SOL     OW27894   6.285   2.412  12.316
 8666SOL    HW127895   6.341   2.341  12.347
 8666SOL    HW227896   6.336   2.454  12.246
 8667SOL     OW27897  14.104  13.714   8.922
 8667SOL    HW127898  14.033  13.750   8.869
 8667SOL    HW227899  14.060  13.676   8.998
 8668SOL     OW27900  13.921  14.337   5.951
 8668SOL    HW127901  13.985  14.383   6.006
 8668SOL    HW227902  13.884  14.270   6.009
 8669SOL     OW27903  10.712   4.994   1.658
 8669SOL    HW127904  10.738   5.081   1.687
 8669SOL    HW227905  10.731   4.994   1.564
 8670SOL     OW27906  11.286  10.931   8.741
 8670SOL    HW127907  11.232  10.973   8.674
 8670SOL    HW227908  11.330  10.860   8.694
 8671SOL     OW27909  12.533   8.854   2.208
 8671SOL    HW127910  12.579   8.780   2.248
 8671SOL    HW227911  12.602   8.918   2.191
 8672SOL     OW27912   5.494   8.943  11.917
 8672SOL    HW127913   5.428   8.984  11.860
 8672SOL    HW227914   5.522   8.866  11.869
 8673SOL     OW27915   0.992   5.317   5.407
 8673SOL    HW127916   1.026   5.265   5.335
 8673SOL    HW227917   1.063   5.378   5.428
 8674SOL     OW27918  12.314   6.382   1.991
 8674SOL    HW127919  12.392   6.436   2.001
 8674SOL    HW227920  12.347   6.294   1.976
 8675SOL     OW27921   7.845   2.941   5.952
 8675SOL    HW127922   7.885   2.981   5.875
 8675SOL    HW227923   7.865   2.848   5.944
 8676SOL     OW27924   7.380   4.631  13.109
 8676SOL    HW127925   7.310   4.566  13.103
 8676SOL    HW227926   7.362   4.679  13.190
 8677SOL     OW27927   6.168   4.954  11.347
 8677SOL    HW127928   6.177   4.948  11.252
 8677SOL    HW227929   6.162   4.863  11.376
 8678SOL     OW27930   6.469  11.078   1.863
 8678SOL    HW127931   6.480  11.036   1.778
 8678SOL    HW227932   6.447  11.169   1.843
 8679SOL     OW27933   7.765   3.924   8.650
 8679SOL    HW127934   7.780   3.839   8.610
 8679SOL    HW227935   7.840   3.977   8.621
 8680SOL     OW27936   9.573  13.570  14.103
 8680SOL    HW127937   9.645  13.530  14.055
 8680SOL    HW227938   9.587  13.544  14.194
 8681SOL     OW27939  13.311  11.318   2.295
 8681SOL    HW127940  13.332  11.250   2.359
 8681SOL    HW227941  13.372  11.389   2.315
 8682SOL     OW27942   5.113   9.031  10.581
 8682SOL    HW127943   5.061   8.991  10.651
 8682SOL    HW227944   5.128   9.120  10.611
 8683SOL     OW27945   7.053  12.970  13.777
 8683SOL    HW127946   7.129  12.957  13.835
 8683SOL    HW227947   6.997  13.031  13.825
 8684SOL     OW27948   6.277   3.330   3.342
 8684SOL    HW127949   6.319   3.357   3.424
 8684SOL    HW227950   6.336   3.363   3.274
 8685SOL     OW27951   4.166   1.155  13.030
 8685SOL    HW127952   4.149   1.090  13.098
 8685SOL    HW227953   4.091   1.215  13.034
 8686SOL     OW27954  10.340   6.315   0.324
 8686SOL    HW127955  10.365   6.258   0.252
 8686SOL    HW227956  10.420   6.329   0.373
 8687SOL     OW27957   2.467   6.399  10.077
 8687SOL    HW127958   2.374   6.421  10.084
 8687SOL    HW227959   2.475   6.314  10.121
 8688SOL     OW27960   6.029   8.098  13.743
 8688SOL    HW127961   6.040   8.143  13.660
 8688SOL    HW227962   5.965   8.029  13.725
 8689SOL     OW27963   0.385   1.430   6.261
 8689SOL    HW127964   0.292   1.452   6.255
 8689SOL    HW227965   0.389   1.358   6.323
 8690SOL     OW27966  13.887  13.480  10.588
 8690SOL    HW127967  13.798  13.462  10.559
 8690SOL    HW227968  13.902  13.417  10.659
 8691SOL     OW27969  13.402  11.901  12.629
 8691SOL    HW127970  13.367  11.966  12.690
 8691SOL    HW227971  13.384  11.938  12.542
 8692SOL     OW27972  10.733   9.145  12.737
 8692SOL    HW127973  10.818   9.154  12.694
 8692SOL    HW227974  10.705   9.235  12.752
 8693SOL     OW27975   5.443   7.872  11.832
 8693SOL    HW127976   5.469   7.789  11.793
 8693SOL    HW227977   5.372   7.850  11.892
 8694SOL     OW27978  11.654  12.978   7.786
 8694SOL    HW127979  11.699  13.062   7.801
 8694SOL    HW227980  11.690  12.919   7.853
 8695SOL     OW27981   1.877   9.020   4.051
 8695SOL    HW127982   1.925   8.966   4.113
 8695SOL    HW227983   1.896   8.983   3.965
 8696SOL     OW27984  12.677   9.003   5.126
 8696SOL    HW127985  12.663   9.051   5.208
 8696SOL    HW227986  12.769   9.019   5.105
 8697SOL     OW27987  12.884   1.600   3.076
 8697SOL    HW127988  12.816   1.658   3.108
 8697SOL    HW227989  12.883   1.526   3.137
 8698SOL     OW27990   0.505  14.165   0.804
 8698SOL    HW127991   0.600  14.156   0.815
 8698SOL    HW227992   0.474  14.076   0.787
 8699SOL     OW27993   2.194   8.684   1.616
 8699SOL    HW127994   2.207   8.655   1.706
 8699SOL    HW227995   2.111   8.731   1.618
 8700SOL     OW27996  10.325   8.156  12.326
 8700SOL    HW127997  10.413   8.163  12.363
 8700SOL    HW227998  10.310   8.062  12.315
 8701SOL     OW27999  14.190   6.195   7.525
 8701SOL    HW128000  14.121   6.161   7.468
 8701SOL    HW228001  14.248   6.243   7.467
 8702SOL     OW28002   6.186   3.444   9.307
 8702SOL    HW128003   6.162   3.357   9.338
 8702SOL    HW228004   6.228   3.486   9.382
 8703SOL     OW28005   8.227   6.674   2.706
 8703SOL    HW128006   8.262   6.752   2.663
 8703SOL    HW228007   8.180   6.708   2.782
 8704SOL     OW28008  11.298   4.341   0.375
 8704SOL    HW128009  11.292   4.315   0.283
 8704SOL    HW228010  11.297   4.437   0.373
 8705SOL     OW28011  11.977   1.697   2.509
 8705SOL    HW128012  11.885   1.719   2.500
 8705SOL    HW228013  12.009   1.688   2.419
 8706SOL     OW28014  11.997   6.871   8.964
 8706SOL    HW128015  12.049   6.803   8.922
 8706SOL    HW228016  11.963   6.831   9.043
 8707SOL     OW28017   5.423   0.191   9.942
 8707SOL    HW128018   5.342   0.224   9.905
 8707SOL    HW228019   5.403   0.176  10.035
 8708SOL     OW28020   1.027  13.003   8.443
 8708SOL    HW128021   0.959  13.034   8.503
 8708SOL    HW228022   1.006  13.045   8.360
 8709SOL     OW28023   5.086  14.672   0.670
 8709SOL    HW128024   5.161  14.705   0.719
 8709SOL    HW228025   5.038  14.618   0.733
 8710SOL     OW28026   0.217   0.447   9.521
 8710SOL    HW128027   0.154   0.504   9.564
 8710SOL    HW228028   0.179   0.359   9.527
 8711SOL     OW28029   8.470   3.948   9.037
 8711SOL    HW128030   8.531   3.972   8.967
 8711SOL    HW228031   8.386   3.982   9.008
 8712SOL     OW28032   7.501  11.329  11.558
 8712SOL    HW128033   7.494  11.299  11.649
 8712SOL    HW228034   7.595  11.325  11.539
 8713SOL     OW28035  12.872   5.119   0.929
 8713SOL    HW128036  12.945   5.150   0.982
 8713SOL    HW228037  12.838   5.043   0.976
 8714SOL     OW28038  12.578  11.560   1.415
 8714SOL    HW128039  12.617  11.608   1.488
 8714SOL    HW228040  12.638  11.576   1.342
 8715SOL     OW28041   5.040   6.542  10.628
 8715SOL    HW128042   5.102   6.592  10.681
 8715SOL    HW228043   5.070   6.452  10.633
 8716SOL     OW28044  10.861  11.946  13.092
 8716SOL    HW128045  10.804  11.890  13.145
 8716SOL    HW228046  10.866  12.028  13.141
 8717SOL     OW28047  12.092  12.140   7.082
 8717SOL    HW128048  12.135  12.070   7.131
 8717SOL    HW228049  12.074  12.100   6.996
 8718SOL     OW28050   9.668   2.681   5.875
 8718SOL    HW128051   9.727   2.704   5.945
 8718SOL    HW228052   9.634   2.594   5.899
 8719SOL     OW28053   1.919   3.252   8.188
 8719SOL    HW128054   1.901   3.330   8.136
 8719SOL    HW228055   1.951   3.188   8.124
 8720SOL     OW28056   3.072   2.297   2.266
 8720SOL    HW128057   3.125   2.333   2.338
 8720SOL    HW228058   3.006   2.243   2.308
 8721SOL     OW28059  11.290  14.099  12.784
 8721SOL    HW128060  11.357  14.097  12.852
 8721SOL    HW228061  11.338  14.083  12.702
 8722SOL     OW28062   0.142   0.358  12.410
 8722SOL    HW128063   0.080   0.380  12.341
 8722SOL    HW228064   0.091   0.364  12.491
 8723SOL     OW28065   6.256  13.290   1.888
 8723SOL    HW128066   6.330  13.340   1.922
 8723SOL    HW228067   6.206  13.353   1.836
 8724SOL     OW28068  12.765  14.787   1.141
 8724SOL    HW128069  12.721  14.787   1.226
 8724SOL    HW228070  12.701  14.825   1.081
 8725SOL     OW28071  13.235  11.936   4.475
 8725SOL    HW128072  13.246  12.030   4.490
 8725SOL    HW228073  13.324  11.902   4.466
 8726SOL     OW28074   4.197   2.049   4.438
 8726SOL    HW128075   4.231   1.999   4.512
 8726SOL    HW228076   4.269   2.053   4.376
 8727SOL     OW28077   6.236   4.363   4.399
 8727SOL    HW128078   6.193   4.277   4.390
 8727SOL    HW228079   6.323   4.350   4.360
 8728SOL     OW28080  10.654   2.728   6.802
 8728SOL    HW128081  10.749   2.727   6.807
 8728SOL    HW228082  10.634   2.773   6.720
 8729SOL     OW28083   8.171   7.331   5.182
 8729SOL    HW128084   8.246   7.381   5.151
 8729SOL    HW228085   8.182   7.327   5.277
 8730SOL     OW28086   2.302   5.989  13.089
 8730SOL    HW128087   2.266   6.058  13.035
 8730SOL    HW228088   2.250   5.992  13.170
 8731SOL     OW28089   3.146   3.343  10.141
 8731SOL    HW128090   3.120   3.262  10.184
 8731SOL    HW228091   3.073   3.364  10.083
 8732SOL     OW28092   8.641   2.914  14.022
 8732SOL    HW128093   8.733   2.905  13.998
 8732SOL    HW228094   8.621   2.835  14.070
 8733SOL     OW28095  10.246   6.401   2.811
 8733SOL    HW128096  10.189   6.391   2.887
 8733SOL    HW228097  10.205   6.471   2.759
 8734SOL     OW28098   6.717   0.472  12.695
 8734SOL    HW128099   6.705   0.534  12.767
 8734SOL    HW228100   6.811   0.479  12.674
 8735SOL     OW28101  12.219   0.644   6.614
 8735SOL    HW128102  12.287   0.689   6.664
 8735SOL    HW228103  12.223   0.683   6.527
 8736SOL     OW28104  11.450  13.507  13.484
 8736SOL    HW128105  11.421  13.575  13.546
 8736SOL    HW228106  11.372  13.487  13.432
 8737SOL     OW28107   9.863   7.469   7.497
 8737SOL    HW128108   9.830   7.556   7.474
 8737SOL    HW228109   9.945   7.487   7.543
 8738SOL     OW28110   7.852  14.745   9.567
 8738SOL    HW128111   7.848  14.748   9.662
 8738SOL    HW228112   7.917  14.677   9.547
 8739SOL     OW28113  13.516   1.558   3.089
 8739SOL    HW128114  13.573   1.626   3.051
 8739SOL    HW228115  13.555   1.476   3.060
 8740SOL     OW28116   5.866  11.709   4.096
 8740SOL    HW128117   5.771  11.707   4.111
 8740SOL    HW228118   5.894  11.794   4.130
 8741SOL     OW28119  10.081   7.749  11.359
 8741SOL    HW128120  10.125   7.834  11.352
 8741SOL    HW228121  10.131   7.692  11.301
 8742SOL     OW28122   0.537   3.819   6.877
 8742SOL    HW128123   0.624   3.800   6.843
 8742SOL    HW228124   0.494   3.867   6.807
 8743SOL     OW28125   3.774  14.833  14.541
 8743SOL    HW128126   3.690  14.845  14.497
 8743SOL    HW228127   3.822   0.041  14.522
 8744SOL     OW28128   2.846   5.190   1.011
 8744SOL    HW128129   2.859   5.281   0.987
 8744SOL    HW228130   2.792   5.194   1.090
 8745SOL     OW28131   5.560   1.705   8.458
 8745SOL    HW128132   5.482   1.666   8.418
 8745SOL    HW228133   5.526   1.776   8.512
 8746SOL     OW28134  13.883   7.591   2.916
 8746SOL    HW128135  13.836   7.637   2.985
 8746SOL    HW228136  13.889   7.501   2.946
 8747SOL     OW28137  14.676   1.152   9.321
 8747SOL    HW128138  14.585   1.143   9.293
 8747SOL    HW228139  14.670   1.167   9.416
 8748SOL     OW28140   2.501   1.886   0.756
 8748SOL    HW128141   2.429   1.917   0.811
 8748SOL    HW228142   2.543   1.966   0.724
 8749SOL     OW28143   0.934  14.073   9.081
 8749SOL    HW128144   0.935  14.036   8.993
 8749SOL    HW228145   0.841  14.085   9.101
 8750SOL     OW28146   1.771   6.104   0.844
 8750SOL    HW128147   1.776   6.200   0.847
 8750SOL    HW228148   1.721   6.084   0.765
 8751SOL     OW28149  12.616  10.348  12.841
 8751SOL    HW128150  12.543  10.301  12.802
 8751SOL    HW228151  12.649  10.290  12.909
 8752SOL     OW28152   5.842   0.296  12.508
 8752SOL    HW128153   5.910   0.354  12.541
 8752SOL    HW228154   5.862   0.210  12.546
 8753SOL     OW28155   8.697   2.975  12.820
 8753SOL    HW128156   8.703   3.043  12.754
 8753SOL    HW228157   8.629   3.006  12.880
 8754SOL     OW28158   0.622  13.388   5.792
 8754SOL    HW128159   0.602  13.456   5.728
 8754SOL    HW228160   0.579  13.309   5.759
 8755SOL     OW28161  13.437   1.487   2.074
 8755SOL    HW128162  13.362   1.434   2.048
 8755SOL    HW228163  13.431   1.492   2.169
 8756SOL     OW28164   5.431  10.280   1.329
 8756SOL    HW128165   5.426  10.374   1.348
 8756SOL    HW228166   5.461  10.241   1.411
 8757SOL     OW28167   7.513   0.756   9.972
 8757SOL    HW128168   7.567   0.755   9.893
 8757SOL    HW228169   7.488   0.848   9.982
 8758SOL     OW28170   9.506  11.843   5.644
 8758SOL    HW128171   9.514  11.803   5.730
 8758SOL    HW228172   9.584  11.898   5.635
 8759SOL     OW28173   1.465   1.816   9.075
 8759SOL    HW128174   1.466   1.868   9.156
 8759SOL    HW228175   1.458   1.881   9.005
 8760SOL     OW28176   0.965  10.118   3.858
 8760SOL    HW128177   0.910  10.097   3.934
 8760SOL    HW228178   0.909  10.171   3.802
 8761SOL     OW28179   3.067   6.815   7.022
 8761SOL    HW128180   3.127   6.862   6.964
 8761SOL    HW228181   3.077   6.858   7.107
 8762SOL     OW28182   5.989  12.543   5.255
 8762SOL    HW128183   5.922  12.520   5.190
 8762SOL    HW228184   6.051  12.471   5.252
 8763SOL     OW28185   4.124  14.673   6.328
 8763SOL    HW128186   4.215  14.687   6.302
 8763SOL    HW228187   4.099  14.755   6.372
 8764SOL     OW28188   5.564   5.023   5.924
 8764SOL    HW128189   5.566   4.993   5.833
 8764SOL    HW228190   5.657   5.033   5.947
 8765SOL     OW28191  12.929  11.946   7.338
 8765SOL    HW128192  12.992  11.917   7.404
 8765SOL    HW228193  12.936  11.881   7.267
 8766SOL     OW28194  12.234  14.065   3.206
 8766SOL    HW128195  12.293  14.015   3.150
 8766SOL    HW228196  12.147  14.045   3.172
 8767SOL     OW28197   6.961   3.978   5.338
 8767SOL    HW128198   6.922   4.037   5.274
 8767SOL    HW228199   6.999   3.907   5.286
 8768SOL     OW28200   4.952   7.154   1.542
 8768SOL    HW128201   5.014   7.188   1.607
 8768SOL    HW228202   4.937   7.227   1.483
 8769SOL     OW28203   0.740   0.461  11.511
 8769SOL    HW128204   0.823   0.421  11.485
 8769SOL    HW228205   0.735   0.449  11.606
 8770SOL     OW28206  13.026   3.036   4.758
 8770SOL    HW128207  13.081   3.104   4.719
 8770SOL    HW228208  12.960   3.083   4.809
 8771SOL     OW28209   1.680   9.734   9.952
 8771SOL    HW128210   1.594   9.712   9.989
 8771SOL    HW228211   1.669   9.724   9.858
 8772SOL     OW28212  10.294  12.209   6.060
 8772SOL    HW128213  10.385  12.239   6.058
 8772SOL    HW228214  10.300  12.114   6.058
 8773SOL     OW28215   5.207   1.552   9.798
 8773SOL    HW128216   5.231   1.619   9.861
 8773SOL    HW228217   5.200   1.598   9.714
 8774SOL     OW28218  14.330  10.267   3.525
 8774SOL    HW128219  14.295  10.319   3.453
 8774SOL    HW228220  14.424  10.279   3.521
 8775SOL     OW28221  10.531  11.037  10.885
 8775SOL    HW128222  10.513  11.056  10.793
 8775SOL    HW228223  10.447  11.050  10.929
 8776SOL     OW28224  13.827   0.826  12.935
 8776SOL    HW128225  13.800   0.898  12.877
 8776SOL    HW228226  13.805   0.747  12.887
 8777SOL     OW28227  12.093   8.631  14.666
 8777SOL    HW128228  12.060   8.628  14.576
 8777SOL    HW228229  12.099   8.724  14.686
 8778SOL     OW28230   5.042  13.325  14.257
 8778SOL    HW128231   4.986  13.338  14.181
 8778SOL    HW228232   5.114  13.270  14.224
 8779SOL     OW28233   6.831   5.983   9.267
 8779SOL    HW128234   6.736   5.971   9.258
 8779SOL    HW228235   6.841   6.041   9.342
 8780SOL     OW28236   2.956   5.527   5.865
 8780SOL    HW128237   2.878   5.501   5.816
 8780SOL    HW228238   2.993   5.599   5.813
 8781SOL     OW28239   4.277   8.893  11.467
 8781SOL    HW128240   4.373   8.887  11.471
 8781SOL    HW228241   4.249   8.881  11.557
 8782SOL     OW28242  10.059   2.502  12.870
 8782SOL    HW128243  10.032   2.417  12.835
 8782SOL    HW228244  10.063   2.559  12.794
 8783SOL     OW28245  13.387   6.116  11.284
 8783SOL    HW128246  13.328   6.041  11.285
 8783SOL    HW228247  13.390   6.146  11.375
 8784SOL     OW28248   5.360  10.613   2.692
 8784SOL    HW128249   5.295  10.545   2.709
 8784SOL    HW228250   5.340  10.644   2.604
 8785SOL     OW28251   8.133  14.384   6.098
 8785SOL    HW128252   8.060  14.322   6.101
 8785SOL    HW228253   8.129  14.429   6.183
 8786SOL     OW28254  14.120   1.291   6.330
 8786SOL    HW128255  14.047   1.243   6.290
 8786SOL    HW228256  14.161   1.337   6.257
 8787SOL     OW28257  11.926   5.580   8.355
 8787SOL    HW128258  11.990   5.536   8.410
 8787SOL    HW228259  11.978   5.618   8.283
 8788SOL     OW28260  10.717   9.660   3.379
 8788SOL    HW128261  10.680   9.619   3.457
 8788SOL    HW228262  10.800   9.697   3.408
 8789SOL     OW28263  13.873  10.801   2.261
 8789SOL    HW128264  13.902  10.883   2.221
 8789SOL    HW228265  13.954  10.751   2.274
 8790SOL     OW28266  13.640  11.392   0.047
 8790SOL    HW128267  13.560  11.348   0.076
 8790SOL    HW228268  13.711  11.332   0.072
 8791SOL     OW28269   3.972  11.117   0.236
 8791SOL    HW128270   3.877  11.112   0.246
 8791SOL    HW228271   4.006  11.104   0.325
 8792SOL     OW28272   9.147  13.048   4.531
 8792SOL    HW128273   9.082  13.056   4.601
 8792SOL    HW228274   9.098  13.065   4.451
 8793SOL     OW28275  13.692   4.589   0.875
 8793SOL    HW128276  13.718   4.521   0.813
 8793SOL    HW228277  13.676   4.667   0.820
 8794SOL     OW28278  11.490  11.821   9.092
 8794SOL    HW128279  11.458  11.736   9.062
 8794SOL    HW228280  11.543  11.854   9.019
 8795SOL     OW28281   5.843   2.972  10.455
 8795SOL    HW128282   5.793   3.018  10.387
 8795SOL    HW228283   5.892   3.042  10.499
 8796SOL     OW28284   0.355  12.826   9.485
 8796SOL    HW128285   0.334  12.733   9.489
 8796SOL    HW228286   0.294  12.868   9.545
 8797SOL     OW28287   4.130   4.849   1.126
 8797SOL    HW128288   4.130   4.800   1.208
 8797SOL    HW228289   4.222   4.852   1.099
 8798SOL     OW28290   6.384   0.999  10.980
 8798SOL    HW128291   6.469   1.039  10.963
 8798SOL    HW228292   6.324   1.045  10.922
 8799SOL     OW28293  10.935   7.951   2.168
 8799SOL    HW128294  10.841   7.932   2.157
 8799SOL    HW228295  10.937   8.039   2.205
 8800SOL     OW28296  13.890   2.262   5.916
 8800SOL    HW128297  13.894   2.230   5.825
 8800SOL    HW228298  13.797   2.255   5.939
 8801SOL     OW28299   3.265  11.305   4.968
 8801SOL    HW128300   3.350  11.347   4.954
 8801SOL    HW228301   3.268  11.276   5.059
 8802SOL     OW28302   1.479   5.920   2.535
 8802SOL    HW128303   1.566   5.881   2.528
 8802SOL    HW228304   1.439   5.908   2.449
 8803SOL     OW28305  14.277   0.409  11.660
 8803SOL    HW128306  14.257   0.450  11.576
 8803SOL    HW228307  14.332   0.472  11.705
 8804SOL     OW28308   6.746   3.068   3.361
 8804SOL    HW128309   6.797   3.149   3.359
 8804SOL    HW228310   6.701   3.071   3.445
 8805SOL     OW28311  14.539   3.962   0.254
 8805SOL    HW128312  14.569   4.051   0.230
 8805SOL    HW228313  14.579   3.946   0.340
 8806SOL     OW28314   6.294  10.065   4.344
 8806SOL    HW128315   6.199  10.064   4.339
 8806SOL    HW228316   6.314  10.040   4.434
 8807SOL     OW28317  10.170   7.168  12.392
 8807SOL    HW128318  10.204   7.079  12.395
 8807SOL    HW228319  10.126   7.179  12.477
 8808SOL     OW28320   0.060   1.630   9.399
 8808SOL    HW128321   0.032   1.589   9.317
 8808SOL    HW228322   0.095   1.715   9.373
 8809SOL     OW28323  10.349  14.625  14.529
 8809SOL    HW128324  10.397  14.544  14.549
 8809SOL    HW228325  10.271  14.595  14.483
 8810SOL     OW28326  13.227   2.812  13.914
 8810SOL    HW128327  13.245   2.756  13.990
 8810SOL    HW228328  13.282   2.889  13.929
 8811SOL     OW28329   4.494   9.186   1.519
 8811SOL    HW128330   4.561   9.240   1.479
 8811SOL    HW228331   4.478   9.116   1.456
 8812SOL     OW28332   0.473  11.384  11.432
 8812SOL    HW128333   0.494  11.476  11.444
 8812SOL    HW228334   0.472  11.371  11.337
 8813SOL     OW28335   1.580   7.292   1.199
 8813SOL    HW128336   1.613   7.347   1.271
 8813SOL    HW228337   1.495   7.260   1.230
 8814SOL     OW28338  14.511   8.084   6.819
 8814SOL    HW128339  14.475   7.996   6.806
 8814SOL    HW228340  14.497   8.128   6.735
 8815SOL     OW28341  13.551  10.240   8.818
 8815SOL    HW128342  13.561  10.152   8.853
 8815SOL    HW228343  13.640  10.266   8.793
 8816SOL     OW28344  11.711   7.727  12.145
 8816SOL    HW128345  11.638   7.726  12.206
 8816SOL    HW228346  11.673   7.702  12.060
 8817SOL     OW28347   1.568   2.672  10.701
 8817SOL    HW128348   1.601   2.756  10.733
 8817SOL    HW228349   1.496   2.695  10.642
 8818SOL     OW28350   5.655   3.297   2.132
 8818SOL    HW128351   5.677   3.244   2.208
 8818SOL    HW228352   5.656   3.387   2.165
 8819SOL     OW28353   9.615  14.122  12.684
 8819SOL    HW128354   9.549  14.188  12.661
 8819SOL    HW228355   9.612  14.116  12.779
 8820SOL     OW28356   0.465   8.952   7.486
 8820SOL    HW128357   0.544   8.969   7.434
 8820SOL    HW228358   0.453   9.031   7.538
 8821SOL     OW28359  13.320  11.121  11.208
 8821SOL    HW128360  13.267  11.126  11.287
 8821SOL    HW228361  13.266  11.073  11.146
 8822SOL     OW28362   1.945  12.761   9.338
 8822SOL    HW128363   1.920  12.807   9.258
 8822SOL    HW228364   1.878  12.693   9.349
 8823SOL     OW28365  11.077   2.960   9.968
 8823SOL    HW128366  11.085   2.865   9.965
 8823SOL    HW228367  11.082   2.982  10.061
 8824SOL     OW28368   3.276   6.074   3.667
 8824SOL    HW128369   3.261   6.168   3.656
 8824SOL    HW228370   3.372   6.065   3.669
 8825SOL     OW28371   7.229   9.847  10.421
 8825SOL    HW128372   7.244   9.840  10.326
 8825SOL    HW228373   7.280   9.776  10.459
 8826SOL     OW28374   7.023   8.351  11.219
 8826SOL    HW128375   7.001   8.270  11.267
 8826SOL    HW228376   6.942   8.401  11.220
 8827SOL     OW28377  13.845   4.207  11.569
 8827SOL    HW128378  13.905   4.260  11.518
 8827SOL    HW228379  13.761   4.255  11.564
 8828SOL     OW28380   3.399   0.555  13.081
 8828SOL    HW128381   3.467   0.506  13.034
 8828SOL    HW228382   3.366   0.493  13.146
 8829SOL     OW28383   8.443   3.881  14.343
 8829SOL    HW128384   8.444   3.887  14.438
 8829SOL    HW228385   8.394   3.801  14.324
 8830SOL     OW28386   7.946  14.756  13.297
 8830SOL    HW128387   7.876  14.698  13.269
 8830SOL    HW228388   7.991  14.708  13.367
 8831SOL     OW28389   8.502   8.589   5.187
 8831SOL    HW128390   8.466   8.537   5.115
 8831SOL    HW228391   8.433   8.589   5.253
 8832SOL     OW28392  13.842  13.326   0.559
 8832SOL    HW128393  13.897  13.326   0.481
 8832SOL    HW228394  13.847  13.416   0.592
 8833SOL     OW28395  13.493  14.508  11.255
 8833SOL    HW128396  13.570  14.515  11.197
 8833SOL    HW228397  13.513  14.565  11.329
 8834SOL     OW28398  14.533  14.464   3.307
 8834SOL    HW128399  14.594  14.516   3.360
 8834SOL    HW228400  14.565  14.474   3.217
 8835SOL     OW28401  10.759   7.944   9.770
 8835SOL    HW128402  10.686   7.904   9.723
 8835SOL    HW228403  10.732   8.034   9.785
 8836SOL     OW28404  13.427  14.626   6.190
 8836SOL    HW128405  13.413  14.692   6.122
 8836SOL    HW228406  13.384  14.547   6.157
 8837SOL     OW28407   4.721  12.897   8.585
 8837SOL    HW128408   4.635  12.934   8.564
 8837SOL    HW228409   4.732  12.824   8.524
 8838SOL     OW28410  10.818   5.271   1.714
 8838SOL    HW128411  10.739   5.325   1.704
 8838SOL    HW228412  10.838   5.242   1.626
 8839SOL     OW28413   6.569   1.382  10.899
 8839SOL    HW128414   6.506   1.337  10.955
 8839SOL    HW228415   6.654   1.362  10.938
 8840SOL     OW28416  13.037  12.085  12.258
 8840SOL    HW128417  12.956  12.136  12.263
 8840SOL    HW228418  13.101  12.146  12.221
 8841SOL     OW28419  13.663   1.674  10.550
 8841SOL    HW128420  13.685   1.734  10.479
 8841SOL    HW228421  13.639   1.592  10.506
 8842SOL     OW28422   5.842  13.888   5.321
 8842SOL    HW128423   5.915  13.836   5.354
 8842SOL    HW228424   5.771  13.875   5.384
 8843SOL     OW28425   2.270  13.531  12.957
 8843SOL    HW128426   2.347  13.555  13.009
 8843SOL    HW228427   2.237  13.615  12.924
 8844SOL     OW28428   3.390   4.261   1.418
 8844SOL    HW128429   3.377   4.356   1.421
 8844SOL    HW228430   3.302   4.224   1.408
 8845SOL     OW28431  12.752   0.522   9.853
 8845SOL    HW128432  12.772   0.615   9.858
 8845SOL    HW228433  12.672   0.517   9.801
 8846SOL     OW28434   0.450   3.161   5.068
 8846SOL    HW128435   0.470   3.247   5.107
 8846SOL    HW228436   0.355   3.163   5.055
 8847SOL     OW28437   3.381   9.495   3.874
 8847SOL    HW128438   3.413   9.419   3.826
 8847SOL    HW228439   3.308   9.528   3.821
 8848SOL     OW28440  13.005   8.267  13.546
 8848SOL    HW128441  13.075   8.310  13.595
 8848SOL    HW228442  12.982   8.329  13.477
 8849SOL     OW28443   9.019   8.237   1.624
 8849SOL    HW128444   8.946   8.176   1.619
 8849SOL    HW228445   9.064   8.228   1.540
 8850SOL     OW28446  13.923   6.658  14.046
 8850SOL    HW128447  13.987   6.591  14.070
 8850SOL    HW228448  13.974   6.724  14.000
 8851SOL     OW28449   4.016  10.235  13.827
 8851SOL    HW128450   4.069  10.166  13.866
 8851SOL    HW228451   4.057  10.317  13.856
 8852SOL     OW28452   5.797  10.286  10.911
 8852SOL    HW128453   5.888  10.290  10.881
 8852SOL    HW228454   5.747  10.261  10.834
 8853SOL     OW28455   7.173   7.942   8.210
 8853SOL    HW128456   7.258   7.903   8.193
 8853SOL    HW228457   7.128   7.880   8.268
 8854SOL     OW28458   8.425   7.836   9.140
 8854SOL    HW128459   8.389   7.921   9.117
 8854SOL    HW228460   8.422   7.786   9.058
 8855SOL     OW28461  11.469   9.935   5.014
 8855SOL    HW128462  11.388   9.980   4.989
 8855SOL    HW228463  11.442   9.872   5.081
 8856SOL     OW28464   9.494  13.074   3.132
 8856SOL    HW128465   9.559  13.140   3.110
 8856SOL    HW228466   9.413  13.124   3.145
 8857SOL     OW28467   3.610  10.686   6.540
 8857SOL    HW128468   3.542  10.662   6.477
 8857SOL    HW228469   3.681  10.720   6.487
 8858SOL     OW28470  13.753   7.616   7.791
 8858SOL    HW128471  13.830   7.562   7.775
 8858SOL    HW228472  13.788   7.696   7.831
 8859SOL     OW28473   8.693   0.535   1.617
 8859SOL    HW128474   8.647   0.619   1.616
 8859SOL    HW228475   8.775   0.554   1.662
 8860SOL     OW28476  14.802  13.923   4.934
 8860SOL    HW128477  14.772  13.834   4.951
 8860SOL    HW228478  14.867  13.914   4.865
 8861SOL     OW28479   7.947   6.696   8.747
 8861SOL    HW128480   8.032   6.733   8.773
 8861SOL    HW228481   7.885   6.767   8.762
 8862SOL     OW28482  12.905  10.618   4.448
 8862SOL    HW128483  12.813  10.635   4.429
 8862SOL    HW228484  12.905  10.538   4.501
 8863SOL     OW28485   8.652  10.381  11.698
 8863SOL    HW128486   8.602  10.407  11.776
 8863SOL    HW228487   8.719  10.322  11.731
 8864SOL     OW28488  12.929   4.691   8.576
 8864SOL    HW128489  13.024   4.689   8.585
 8864SOL    HW228490  12.909   4.628   8.507
 8865SOL     OW28491   9.989  12.467  11.952
 8865SOL    HW128492  10.036  12.518  11.885
 8865SOL    HW228493   9.941  12.532  12.003
 8866SOL     OW28494   6.505  11.551   1.587
 8866SOL    HW128495   6.591  11.574   1.552
 8866SOL    HW228496   6.494  11.459   1.564
 8867SOL     OW28497   9.260   7.224   6.020
 8867SOL    HW128498   9.272   7.254   5.929
 8867SOL    HW228499   9.343   7.182   6.042
 8868SOL     OW28500  12.686   3.394   1.127
 8868SOL    HW128501  12.622   3.449   1.173
 8868SOL    HW228502  12.761   3.452   1.113
 8869SOL     OW28503   1.478   7.354   2.458
 8869SOL    HW128504   1.551   7.309   2.417
 8869SOL    HW228505   1.461   7.305   2.539
 8870SOL     OW28506   8.484  13.662  13.119
 8870SOL    HW128507   8.558  13.709  13.159
 8870SOL    HW228508   8.430  13.635  13.192
 8871SOL     OW28509   0.759   1.049  14.704
 8871SOL    HW128510   0.845   1.069  14.668
 8871SOL    HW228511   0.706   1.025  14.628
 8872SOL     OW28512   0.912   7.601  11.869
 8872SOL    HW128513   0.839   7.541  11.879
 8872SOL    HW228514   0.910   7.655  11.948
 8873SOL     OW28515  14.688   8.523  13.095
 8873SOL    HW128516  14.667   8.571  13.015
 8873SOL    HW228517  14.604   8.515  13.141
 8874SOL     OW28518   2.344   8.706   1.399
 8874SOL    HW128519   2.284   8.710   1.474
 8874SOL    HW228520   2.365   8.614   1.390
 8875SOL     OW28521   2.512   2.030   3.029
 8875SOL    HW128522   2.416   2.037   3.037
 8875SOL    HW228523   2.533   1.950   3.076
 8876SOL     OW28524  12.200   0.615   8.857
 8876SOL    HW128525  12.292   0.591   8.866
 8876SOL    HW228526  12.200   0.686   8.794
 8877SOL     OW28527   7.251   6.840  12.924
 8877SOL    HW128528   7.171   6.791  12.903
 8877SOL    HW228529   7.316   6.808  12.862
 8878SOL     OW28530   2.475   8.141   8.513
 8878SOL    HW128531   2.417   8.074   8.478
 8878SOL    HW228532   2.419   8.218   8.525
 8879SOL     OW28533   1.478  12.265   6.110
 8879SOL    HW128534   1.526  12.223   6.038
 8879SOL    HW228535   1.533  12.249   6.187
 8880SOL     OW28536   0.841   4.928   8.708
 8880SOL    HW128537   0.811   4.999   8.651
 8880SOL    HW228538   0.912   4.887   8.659
 8881SOL     OW28539   9.273   5.168   7.398
 8881SOL    HW128540   9.331   5.114   7.453
 8881SOL    HW228541   9.289   5.258   7.428
 8882SOL     OW28542  12.532   7.818   7.053
 8882SOL    HW128543  12.541   7.723   7.059
 8882SOL    HW228544  12.533   7.837   6.959
 8883SOL     OW28545   9.844   2.206   8.365
 8883SOL    HW128546   9.771   2.159   8.323
 8883SOL    HW228547   9.893   2.243   8.292
 8884SOL     OW28548   9.276   9.869   2.362
 8884SOL    HW128549   9.305   9.863   2.271
 8884SOL    HW228550   9.214   9.797   2.372
 8885SOL     OW28551   2.863  11.541   4.514
 8885SOL    HW128552   2.829  11.462   4.470
 8885SOL    HW228553   2.874  11.514   4.605
 8886SOL     OW28554   9.954   0.427   7.770
 8886SOL    HW128555  10.001   0.502   7.806
 8886SOL    HW228556   9.863   0.438   7.799
 8887SOL     OW28557   3.498  10.820   4.392
 8887SOL    HW128558   3.546  10.903   4.395
 8887SOL    HW228559   3.483  10.798   4.484
 8888SOL     OW28560   1.796   4.749   9.745
 8888SOL    HW128561   1.725   4.788   9.795
 8888SOL    HW228562   1.780   4.777   9.655
 8889SOL     OW28563   4.680   9.175   0.313
 8889SOL    HW128564   4.745   9.138   0.253
 8889SOL    HW228565   4.718   9.259   0.340
 8890SOL     OW28566   7.591  13.627   8.674
 8890SOL    HW128567   7.562  13.611   8.764
 8890SOL    HW228568   7.536  13.571   8.620
 8891SOL     OW28569  11.673   2.607   8.694
 8891SOL    HW128570  11.718   2.574   8.771
 8891SOL    HW228571  11.634   2.690   8.723
 8892SOL     OW28572  10.319   9.108  14.298
 8892SOL    HW128573  10.369   9.086  14.376
 8892SOL    HW228574  10.366   9.064  14.227
 8893SOL     OW28575   8.606   8.838  12.727
 8893SOL    HW128576   8.529   8.846  12.784
 8893SOL    HW228577   8.673   8.891  12.771
 8894SOL     OW28578   2.632   4.070   6.562
 8894SOL    HW128579   2.619   4.041   6.471
 8894SOL    HW228580   2.609   4.162   6.561
 8895SOL     OW28581   4.216  12.720  14.694
 8895SOL    HW128582   4.189  12.799  14.647
 8895SOL    HW228583   4.180  12.648  14.642
 8896SOL     OW28584   9.045   1.592   1.141
 8896SOL    HW128585   8.968   1.535   1.143
 8896SOL    HW228586   9.078   1.590   1.231
 8897SOL     OW28587   2.709  12.996   9.214
 8897SOL    HW128588   2.694  12.903   9.197
 8897SOL    HW228589   2.755  13.028   9.137
 8898SOL     OW28590   6.116  10.410   6.286
 8898SOL    HW128591   6.097  10.322   6.317
 8898SOL    HW228592   6.118  10.403   6.191
 8899SOL     OW28593   8.799  14.740   5.794
 8899SOL    HW128594   8.713  14.749   5.834
 8899SOL    HW228595   8.836  14.828   5.796
 8900SOL     OW28596   7.313   7.456  12.291
 8900SOL    HW128597   7.362   7.388  12.337
 8900SOL    HW228598   7.292   7.521  12.359
 8901SOL     OW28599   8.581  12.603   1.539
 8901SOL    HW128600   8.569  12.509   1.528
 8901SOL    HW228601   8.620  12.613   1.626
 8902SOL     OW28602   5.284   8.580  10.287
 8902SOL    HW128603   5.243   8.534  10.213
 8902SOL    HW228604   5.263   8.526  10.363
 8903SOL     OW28605   1.956   2.315   7.803
 8903SOL    HW128606   1.877   2.369   7.812
 8903SOL    HW228607   1.964   2.271   7.887
 8904SOL     OW28608   0.366   6.127  10.238
 8904SOL    HW128609   0.307   6.165  10.304
 8904SOL    HW228610   0.454   6.141  10.273
 8905SOL     OW28611   8.862   2.648  11.957
 8905SOL    HW128612   8.777   2.687  11.940
 8905SOL    HW228613   8.847   2.554  11.948
 8906SOL     OW28614   7.119   9.966   2.114
 8906SOL    HW128615   7.106  10.060   2.118
 8906SOL    HW228616   7.126   9.938   2.205
 8907SOL     OW28617   7.446  14.064  14.221
 8907SOL    HW128618   7.364  14.112  14.209
 8907SOL    HW228619   7.481  14.054  14.133
 8908SOL     OW28620  12.153  11.238  12.636
 8908SOL    HW128621  12.160  11.176  12.564
 8908SOL    HW228622  12.239  11.280  12.640
 8909SOL     OW28623   1.703   7.265  14.118
 8909SOL    HW128624   1.793   7.296  14.116
 8909SOL    HW228625   1.653   7.336  14.158
 8910SOL     OW28626   0.867   5.801  13.310
 8910SOL    HW128627   0.832   5.889  13.318
 8910SOL    HW228628   0.870   5.784  13.216
 8911SOL     OW28629   1.258   7.119  10.191
 8911SOL    HW128630   1.291   7.153  10.275
 8911SOL    HW228631   1.333   7.073  10.153
 8912SOL     OW28632   6.395   6.603   3.426
 8912SOL    HW128633   6.489   6.588   3.437
 8912SOL    HW228634   6.376   6.678   3.482
 8913SOL     OW28635   7.455   3.832  12.891
 8913SOL    HW128636   7.470   3.901  12.826
 8913SOL    HW228637   7.375   3.788  12.861
 8914SOL     OW28638   9.455   8.915  12.690
 8914SOL    HW128639   9.527   8.978  12.689
 8914SOL    HW228640   9.376   8.968  12.690
 8915SOL     OW28641   4.660   2.663  13.972
 8915SOL    HW128642   4.725   2.642  13.904
 8915SOL    HW228643   4.710   2.658  14.054
 8916SOL     OW28644   0.203   1.953   7.529
 8916SOL    HW128645   0.217   1.886   7.462
 8916SOL    HW228646   0.291   1.977   7.558
 8917SOL     OW28647  14.145   6.094   0.517
 8917SOL    HW128648  14.140   6.036   0.593
 8917SOL    HW228649  14.177   6.177   0.552
 8918SOL     OW28650  13.091   8.899   5.747
 8918SOL    HW128651  13.174   8.875   5.786
 8918SOL    HW228652  13.045   8.948   5.815
 8919SOL     OW28653   6.894  13.400   8.946
 8919SOL    HW128654   6.869  13.491   8.927
 8919SOL    HW228655   6.817  13.348   8.924
 8920SOL     OW28656  11.368  11.498   0.578
 8920SOL    HW128657  11.320  11.461   0.653
 8920SOL    HW228658  11.438  11.550   0.618
 8921SOL     OW28659  12.857  13.959   9.255
 8921SOL    HW128660  12.921  14.000   9.314
 8921SOL    HW228661  12.868  14.006   9.172
 8922SOL     OW28662   6.266   8.077   3.257
 8922SOL    HW128663   6.270   8.132   3.178
 8922SOL    HW228664   6.217   8.000   3.230
 8923SOL     OW28665  10.995   7.748  11.505
 8923SOL    HW128666  10.903   7.773  11.514
 8923SOL    HW228667  11.033   7.815  11.448
 8924SOL     OW28668   3.081   3.590   2.645
 8924SOL    HW128669   3.031   3.564   2.568
 8924SOL    HW228670   3.064   3.684   2.654
 8925SOL     OW28671  13.717  13.004  14.473
 8925SOL    HW128672  13.785  12.980  14.536
 8925SOL    HW228673  13.708  12.927  14.417
 8926SOL     OW28674   5.782   2.540  11.457
 8926SOL    HW128675   5.711   2.582  11.506
 8926SOL    HW228676   5.859   2.549  11.513
 8927SOL     OW28677   6.271   9.803  13.508
 8927SOL    HW128678   6.296   9.875  13.450
 8927SOL    HW228679   6.177   9.814  13.522
 8928SOL     OW28680  10.315  10.312  14.490
 8928SOL    HW128681  10.365  10.369  14.432
 8928SOL    HW228682  10.298  10.365  14.567
 8929SOL     OW28683  14.120   2.888   8.626
 8929SOL    HW128684  14.122   2.849   8.714
 8929SOL    HW228685  14.208   2.923   8.614
 8930SOL     OW28686   6.832   0.177   6.056
 8930SOL    HW128687   6.779   0.125   5.996
 8930SOL    HW228688   6.831   0.265   6.019
 8931SOL     OW28689   3.438  13.920   8.597
 8931SOL    HW128690   3.375  13.849   8.588
 8931SOL    HW228691   3.484  13.922   8.513
 8932SOL     OW28692   8.386   7.793   5.819
 8932SOL    HW128693   8.369   7.802   5.913
 8932SOL    HW228694   8.311   7.742   5.786
 8933SOL     OW28695   1.151   3.615   8.469
 8933SOL    HW128696   1.101   3.544   8.508
 8933SOL    HW228697   1.182   3.667   8.544
 8934SOL     OW28698  14.690   0.493   3.943
 8934SOL    HW128699  14.775   0.520   3.908
 8934SOL    HW228700  14.700   0.500   4.038
 8935SOL     OW28701  14.536  10.955   2.607
 8935SOL    HW128702  14.560  11.010   2.533
 8935SOL    HW228703  14.550  11.010   2.684
 8936SOL     OW28704   7.273   1.754   7.633
 8936SOL    HW128705   7.259   1.660   7.631
 8936SOL    HW228706   7.191   1.792   7.600
 8937SOL     OW28707   7.037   2.148   9.815
 8937SOL    HW128708   7.087   2.068   9.832
 8937SOL    HW228709   6.962   2.142   9.875
 8938SOL     OW28710   3.518  12.762   6.661
 8938SOL    HW128711   3.565  12.703   6.720
 8938SOL    HW228712   3.586  12.815   6.620
 8939SOL     OW28713  10.546   1.838  13.853
 8939SOL    HW128714  10.532   1.926  13.888
 8939SOL    HW228715  10.485   1.832  13.780
 8940SOL     OW28716   8.996  13.743   0.465
 8940SOL    HW128717   8.934  13.685   0.420
 8940SOL    HW228718   8.970  13.740   0.557
 8941SOL     OW28719   7.659   7.051   1.577
 8941SOL    HW128720   7.614   7.106   1.513
 8941SOL    HW228721   7.728   7.007   1.527
 8942SOL     OW28722   4.558   0.213   6.711
 8942SOL    HW128723   4.530   0.162   6.787
 8942SOL    HW228724   4.606   0.151   6.656
 8943SOL     OW28725   4.582   2.346  10.461
 8943SOL    HW128726   4.579   2.413  10.529
 8943SOL    HW228727   4.646   2.380  10.398
 8944SOL     OW28728   1.341   5.623   1.684
 8944SOL    HW128729   1.324   5.626   1.778
 8944SOL    HW228730   1.312   5.708   1.651
 8945SOL     OW28731   1.500   7.799   3.518
 8945SOL    HW128732   1.478   7.706   3.528
 8945SOL    HW228733   1.564   7.816   3.587
 8946SOL     OW28734  13.135   6.420  10.151
 8946SOL    HW128735  13.104   6.497  10.102
 8946SOL    HW228736  13.120   6.442  10.243
 8947SOL     OW28737   4.495   3.224   8.922
 8947SOL    HW128738   4.479   3.132   8.943
 8947SOL    HW228739   4.590   3.234   8.929
 8948SOL     OW28740   9.239   7.292   6.724
 8948SOL    HW128741   9.289   7.371   6.704
 8948SOL    HW228742   9.194   7.312   6.806
 8949SOL     OW28743   2.337   3.328   9.327
 8949SOL    HW128744   2.405   3.266   9.351
 8949SOL    HW228745   2.361   3.358   9.239
 8950SOL     OW28746  13.691   8.622  12.736
 8950SOL    HW128747  13.679   8.569  12.657
 8950SOL    HW228748  13.749   8.569  12.791
 8951SOL     OW28749  13.315  12.717  13.943
 8951SOL    HW128750  13.282  12.786  14.001
 8951SOL    HW228751  13.302  12.636  13.993
 8952SOL     OW28752   3.115  11.607   3.934
 8952SOL    HW128753   3.065  11.534   3.897
 8952SOL    HW228754   3.050  11.659   3.981
 8953SOL     OW28755   1.393   6.250   0.875
 8953SOL    HW128756   1.327   6.308   0.913
 8953SOL    HW228757   1.393   6.173   0.933
 8954SOL     OW28758   0.297  14.426  11.692
 8954SOL    HW128759   0.255  14.451  11.610
 8954SOL    HW228760   0.292  14.331  11.694
 8955SOL     OW28761   5.117   4.757  13.409
 8955SOL    HW128762   5.076   4.722  13.329
 8955SOL    HW228763   5.048   4.751  13.475
 8956SOL     OW28764   7.517   4.380   3.019
 8956SOL    HW128765   7.518   4.473   3.039
 8956SOL    HW228766   7.463   4.372   2.941
 8957SOL     OW28767  11.116   4.414  11.554
 8957SOL    HW128768  11.066   4.425  11.473
 8957SOL    HW228769  11.079   4.479  11.614
 8958SOL     OW28770   9.602   8.303   6.122
 8958SOL    HW128771   9.621   8.396   6.134
 8958SOL    HW228772   9.679   8.268   6.078
 8959SOL     OW28773   9.387   6.397   7.973
 8959SOL    HW128774   9.479   6.402   7.947
 8959SOL    HW228775   9.339   6.384   7.891
 8960SOL     OW28776   1.619   7.430   9.974
 8960SOL    HW128777   1.585   7.367   9.910
 8960SOL    HW228778   1.645   7.376  10.049
 8961SOL     OW28779  10.502   0.150   2.541
 8961SOL    HW128780  10.573   0.214   2.548
 8961SOL    HW228781  10.448   0.184   2.470
 8962SOL     OW28782  13.090   8.902   0.568
 8962SOL    HW128783  13.081   8.961   0.643
 8962SOL    HW228784  13.002   8.868   0.554
 8963SOL     OW28785   7.731   5.028   3.718
 8963SOL    HW128786   7.717   5.087   3.792
 8963SOL    HW228787   7.702   4.942   3.750
 8964SOL     OW28788  11.471   4.579  14.181
 8964SOL    HW128789  11.511   4.666  14.176
 8964SOL    HW228790  11.461   4.562  14.275
 8965SOL     OW28791   4.583   6.484  13.005
 8965SOL    HW128792   4.579   6.557  13.067
 8965SOL    HW228793   4.637   6.516  12.933
 8966SOL     OW28794   4.353   6.970  12.502
 8966SOL    HW128795   4.313   6.907  12.562
 8966SOL    HW228796   4.439   6.933  12.482
 8967SOL     OW28797   9.142  13.898   1.017
 8967SOL    HW128798   9.168  13.843   1.091
 8967SOL    HW228799   9.064  13.944   1.048
 8968SOL     OW28800  11.459   7.946   9.058
 8968SOL    HW128801  11.475   7.864   9.105
 8968SOL    HW228802  11.366   7.964   9.072
 8969SOL     OW28803  10.351  11.300  12.898
 8969SOL    HW128804  10.437  11.340  12.887
 8969SOL    HW228805  10.367  11.206  12.884
 8970SOL     OW28806  14.394   8.225   0.384
 8970SOL    HW128807  14.373   8.292   0.319
 8970SOL    HW228808  14.316   8.169   0.388
 8971SOL     OW28809   7.141  10.977  11.209
 8971SOL    HW128810   7.173  11.056  11.252
 8971SOL    HW228811   7.048  10.974  11.230
 8972SOL     OW28812   2.789   6.810   2.683
 8972SOL    HW128813   2.881   6.802   2.658
 8972SOL    HW228814   2.743   6.752   2.622
 8973SOL     OW28815   9.682  10.792   8.946
 8973SOL    HW128816   9.650  10.882   8.952
 8973SOL    HW228817   9.678  10.760   9.036
 8974SOL     OW28818  13.078   6.682  12.228
 8974SOL    HW128819  13.041   6.692  12.140
 8974SOL    HW228820  13.002   6.659  12.283
 8975SOL     OW28821   5.830  10.737   8.383
 8975SOL    HW128822   5.881  10.657   8.395
 8975SOL    HW228823   5.763  10.713   8.319
 8976SOL     OW28824   6.782   2.569   7.845
 8976SOL    HW128825   6.705   2.622   7.827
 8976SOL    HW228826   6.812   2.539   7.759
 8977SOL     OW28827   5.967  13.974   7.142
 8977SOL    HW128828   5.972  13.913   7.069
 8977SOL    HW228829   5.892  13.943   7.194
 8978SOL     OW28830   9.099   9.183   7.399
 8978SOL    HW128831   9.159   9.178   7.473
 8978SOL    HW228832   9.053   9.266   7.410
 8979SOL     OW28833  10.145   0.398  13.548
 8979SOL    HW128834  10.116   0.459  13.481
 8979SOL    HW228835  10.215   0.444  13.594
 8980SOL     OW28836  13.112  13.435  10.453
 8980SOL    HW128837  13.047  13.472  10.513
 8980SOL    HW228838  13.075  13.350  10.428
 8981SOL     OW28839   5.307   5.331   4.918
 8981SOL    HW128840   5.367   5.259   4.937
 8981SOL    HW228841   5.329   5.398   4.983
 8982SOL     OW28842  11.757   0.187  10.199
 8982SOL    HW128843  11.836   0.215  10.245
 8982SOL    HW228844  11.717   0.269  10.169
 8983SOL     OW28845   4.812   2.298   8.323
 8983SOL    HW128846   4.762   2.253   8.255
 8983SOL    HW228847   4.887   2.335   8.277
 8984SOL     OW28848  10.088   9.463  12.599
 8984SOL    HW128849  10.129   9.473  12.513
 8984SOL    HW228850  10.066   9.553  12.626
 8985SOL     OW28851  13.353  11.193   8.351
 8985SOL    HW128852  13.322  11.282   8.366
 8985SOL    HW228853  13.412  11.200   8.276
 8986SOL     OW28854   7.626   3.777   5.274
 8986SOL    HW128855   7.630   3.692   5.229
 8986SOL    HW228856   7.687   3.768   5.347
 8987SOL     OW28857   6.619  13.416   6.495
 8987SOL    HW128858   6.555  13.357   6.535
 8987SOL    HW228859   6.644  13.476   6.565
 8988SOL     OW28860   3.694  10.673   5.738
 8988SOL    HW128861   3.642  10.638   5.665
 8988SOL    HW228862   3.718  10.596   5.789
 8989SOL     OW28863   9.277   7.022   6.730
 8989SOL    HW128864   9.251   7.114   6.724
 8989SOL    HW228865   9.281   7.004   6.824
 8990SOL     OW28866   9.293  14.142   2.988
 8990SOL    HW128867   9.228  14.072   2.977
 8990SOL    HW228868   9.308  14.175   2.900
 8991SOL     OW28869   1.916   5.757  10.886
 8991SOL    HW128870   1.884   5.666  10.884
 8991SOL    HW228871   1.904   5.788  10.796
 8992SOL     OW28872   0.031   8.099   6.529
 8992SOL    HW128873   0.064   8.108   6.439
 8992SOL    HW228874  14.821   8.052   6.519
 8993SOL     OW28875  11.018   8.635   5.542
 8993SOL    HW128876  10.961   8.580   5.596
 8993SOL    HW228877  10.998   8.609   5.452
 8994SOL     OW28878   1.933  14.069  11.456
 8994SOL    HW128879   1.838  14.063  11.470
 8994SOL    HW228880   1.947  14.159  11.428
 8995SOL     OW28881   0.629   6.720   8.055
 8995SOL    HW128882   0.722   6.699   8.065
 8995SOL    HW228883   0.600   6.667   7.981
 8996SOL     OW28884   3.009  12.077   5.214
 8996SOL    HW128885   3.021  12.166   5.248
 8996SOL    HW228886   2.974  12.090   5.126
 8997SOL     OW28887  10.958   6.275   1.931
 8997SOL    HW128888  10.948   6.267   2.026
 8997SOL    HW228889  11.002   6.194   1.904
 8998SOL     OW28890   4.153  12.028   2.848
 8998SOL    HW128891   4.066  12.029   2.809
 8998SOL    HW228892   4.179  12.120   2.850
 8999SOL     OW28893   4.793  14.511   8.029
 8999SOL    HW128894   4.749  14.438   8.073
 8999SOL    HW228895   4.787  14.584   8.090
 9000SOL     OW28896  10.443   9.021   1.185
 9000SOL    HW128897  10.523   8.991   1.142
 9000SOL    HW228898  10.402   9.079   1.121
 9001SOL     OW28899   3.201   5.121  10.808
 9001SOL    HW128900   3.252   5.201  10.798
 9001SOL    HW228901   3.136   5.142  10.875
 9002SOL     OW28902  10.256   0.691   5.545
 9002SOL    HW128903  10.193   0.725   5.481
 9002SOL    HW228904  10.245   0.596   5.541
 9003SOL     OW28905   3.453   8.275   6.719
 9003SOL    HW128906   3.439   8.294   6.812
 9003SOL    HW228907   3.541   8.239   6.715
 9004SOL     OW28908  10.369   6.984   2.319
 9004SOL    HW128909  10.427   6.995   2.243
 9004SOL    HW228910  10.321   6.904   2.300
 9005SOL     OW28911  10.539   0.898  11.871
 9005SOL    HW128912  10.501   0.813  11.848
 9005SOL    HW228913  10.465   0.959  11.865
 9006SOL     OW28914  14.642   9.373   5.794
 9006SOL    HW128915  14.700   9.302   5.770
 9006SOL    HW228916  14.597   9.396   5.713
 9007SOL     OW28917   1.108   5.175   6.943
 9007SOL    HW128918   1.019   5.168   6.975
 9007SOL    HW228919   1.112   5.260   6.900
 9008SOL     OW28920   6.868  11.596  11.485
 9008SOL    HW128921   6.797  11.635  11.536
 9008SOL    HW228922   6.850  11.622  11.395
 9009SOL     OW28923  11.856   0.976  10.068
 9009SOL    HW128924  11.929   1.037  10.056
 9009SOL    HW228925  11.898   0.895  10.098
 9010SOL     OW28926  12.513  10.017   3.999
 9010SOL    HW128927  12.583  10.017   4.064
 9010SOL    HW228928  12.435  10.046   4.047
 9011SOL     OW28929   1.764  13.693  10.551
 9011SOL    HW128930   1.839  13.635  10.537
 9011SOL    HW228931   1.712  13.648  10.618
 9012SOL     OW28932  13.845   2.063   3.950
 9012SOL    HW128933  13.918   2.041   4.008
 9012SOL    HW228934  13.775   2.003   3.977
 9013SOL     OW28935   8.939   1.701   3.738
 9013SOL    HW128936   9.009   1.650   3.777
 9013SOL    HW228937   8.978   1.787   3.723
 9014SOL     OW28938  13.530   2.067   6.459
 9014SOL    HW128939  13.473   2.006   6.412
 9014SOL    HW228940  13.470   2.126   6.504
 9015SOL     OW28941  12.362   3.072   5.386
 9015SOL    HW128942  12.420   2.996   5.391
 9015SOL    HW228943  12.321   3.076   5.472
 9016SOL     OW28944  12.392   2.397  13.294
 9016SOL    HW128945  12.402   2.488  13.267
 9016SOL    HW228946  12.360   2.352  13.215
 9017SOL     OW28947   1.404   7.022  12.741
 9017SOL    HW128948   1.376   7.111  12.758
 9017SOL    HW228949   1.359   6.969  12.807
 9018SOL     OW28950   3.382   5.136   1.543
 9018SOL    HW128951   3.443   5.165   1.611
 9018SOL    HW228952   3.418   5.053   1.511
 9019SOL     OW28953   2.041  12.890   6.483
 9019SOL    HW128954   2.063  12.933   6.401
 9019SOL    HW228955   1.970  12.829   6.460
 9020SOL     OW28956   0.577  11.361  13.331
 9020SOL    HW128957   0.588  11.336  13.423
 9020SOL    HW228958   0.628  11.296  13.282
 9021SOL     OW28959   7.544   3.288   8.233
 9021SOL    HW128960   7.560   3.297   8.139
 9021SOL    HW228961   7.626   3.251   8.267
 9022SOL     OW28962   1.833   2.871   7.665
 9022SOL    HW128963   1.893   2.897   7.735
 9022SOL    HW228964   1.888   2.867   7.587
 9023SOL     OW28965   0.170  13.675   1.802
 9023SOL    HW128966   0.077  13.684   1.824
 9023SOL    HW228967   0.196  13.761   1.770
 9024SOL     OW28968   4.232  13.751   9.734
 9024SOL    HW128969   4.227  13.705   9.819
 9024SOL    HW228970   4.192  13.690   9.672
 9025SOL     OW28971  11.626  12.374   1.398
 9025SOL    HW128972  11.618  12.349   1.491
 9025SOL    HW228973  11.693  12.441   1.396
 9026SOL     OW28974   6.028   8.429   4.940
 9026SOL    HW128975   5.953   8.488   4.936
 9026SOL    HW228976   6.098   8.477   4.897
 9027SOL     OW28977   7.537   6.628   1.566
 9027SOL    HW128978   7.570   6.538   1.559
 9027SOL    HW228979   7.567   6.672   1.487
 9028SOL     OW28980  12.967  12.359   8.161
 9028SOL    HW128981  12.993  12.289   8.222
 9028SOL    HW228982  12.932  12.313   8.085
 9029SOL     OW28983   8.882  14.487   2.299
 9029SOL    HW128984   8.816  14.553   2.321
 9029SOL    HW228985   8.852  14.407   2.342
 9030SOL     OW28986   0.273   6.919  10.208
 9030SOL    HW128987   0.226   6.865  10.145
 9030SOL    HW228988   0.351   6.869  10.230
 9031SOL     OW28989   5.118   0.914   7.664
 9031SOL    HW128990   5.210   0.908   7.688
 9031SOL    HW228991   5.075   0.949   7.742
 9032SOL     OW28992  14.569   1.590  13.740
 9032SOL    HW128993  14.548   1.644  13.664
 9032SOL    HW228994  14.608   1.511  13.703
 9033SOL     OW28995  10.862  12.044   7.978
 9033SOL    HW128996  10.912  12.104   8.034
 9033SOL    HW228997  10.927  11.980   7.948
 9034SOL     OW28998   3.600   0.233  14.632
 9034SOL    HW128999   3.608   0.284  14.551
 9034SOL    HW229000   3.565   0.148  14.603
 9035SOL     OW29001   9.806   0.209   6.361
 9035SOL    HW129002   9.757   0.173   6.435
 9035SOL    HW229003   9.880   0.150   6.350
 9036SOL     OW29004  10.136  11.621  13.265
 9036SOL    HW129005  10.200  11.569  13.216
 9036SOL    HW229006  10.184  11.654  13.341
 9037SOL     OW29007   5.155   4.046   7.424
 9037SOL    HW129008   5.182   4.138   7.436
 9037SOL    HW229009   5.153   4.011   7.513
 9038SOL     OW29010   5.646   2.804   6.667
 9038SOL    HW129011   5.657   2.859   6.744
 9038SOL    HW229012   5.668   2.860   6.593
 9039SOL     OW29013   6.540   8.855   2.838
 9039SOL    HW129014   6.615   8.800   2.860
 9039SOL    HW229015   6.482   8.848   2.914
 9040SOL     OW29016   9.899  11.272  11.978
 9040SOL    HW129017   9.988  11.302  11.996
 9040SOL    HW229018   9.850  11.290  12.058
 9041SOL     OW29019  12.657   1.011   1.241
 9041SOL    HW129020  12.716   1.000   1.167
 9041SOL    HW229021  12.691   1.087   1.288
 9042SOL     OW29022   2.565   7.953   6.547
 9042SOL    HW129023   2.490   7.894   6.550
 9042SOL    HW229024   2.533   8.029   6.498
 9043SOL     OW29025   8.155  14.413  11.303
 9043SOL    HW129026   8.170  14.325  11.270
 9043SOL    HW229027   8.126  14.463  11.226
 9044SOL     OW29028   1.887   5.378   3.083
 9044SOL    HW129029   1.886   5.461   3.130
 9044SOL    HW229030   1.941   5.320   3.137
 9045SOL     OW29031   3.562  11.319  13.947
 9045SOL    HW129032   3.618  11.253  13.905
 9045SOL    HW229033   3.618  11.358  14.013
 9046SOL     OW29034   5.173   2.196   9.948
 9046SOL    HW129035   5.265   2.211   9.971
 9046SOL    HW229036   5.175   2.166   9.857
 9047SOL     OW29037   7.119   2.288   7.875
 9047SOL    HW129038   7.190   2.311   7.814
 9047SOL    HW229039   7.085   2.373   7.903
 9048SOL     OW29040   6.826   9.116  14.086
 9048SOL    HW129041   6.908   9.068  14.097
 9048SOL    HW229042   6.835   9.162  14.003
 9049SOL     OW29043  11.961  12.498   4.202
 9049SOL    HW129044  11.953  12.588   4.235
 9049SOL    HW229045  12.052  12.474   4.220
 9050SOL     OW29046   3.552   0.856  14.105
 9050SOL    HW129047   3.463   0.893  14.105
 9050SOL    HW229048   3.605   0.921  14.059
 9051SOL     OW29049   6.368   4.701   7.899
 9051SOL    HW129050   6.364   4.665   7.987
 9051SOL    HW229051   6.425   4.778   7.907
 9052SOL     OW29052   9.604  10.263   0.473
 9052SOL    HW129053   9.548  10.240   0.548
 9052SOL    HW229054   9.645  10.180   0.448
 9053SOL     OW29055  14.379  13.019  13.019
 9053SOL    HW129056  14.403  13.110  13.036
 9053SOL    HW229057  14.367  12.980  13.106
 9054SOL     OW29058   3.237   6.289  14.586
 9054SOL    HW129059   3.249   6.203  14.545
 9054SOL    HW229060   3.200   6.270  14.672
 9055SOL     OW29061  14.769   0.589  11.117
 9055SOL    HW129062  14.770   0.566  11.025
 9055SOL    HW229063  14.857   0.569  11.148
 9056SOL     OW29064   0.489   5.408   4.648
 9056SOL    HW129065   0.474   5.419   4.742
 9056SOL    HW229066   0.581   5.432   4.636
 9057SOL     OW29067   3.165   9.062   9.011
 9057SOL    HW129068   3.096   9.012   8.968
 9057SOL    HW229069   3.217   9.097   8.938
 9058SOL     OW29070   9.146   7.623   9.136
 9058SOL    HW129071   9.182   7.681   9.203
 9058SOL    HW229072   9.054   7.647   9.130
 9059SOL     OW29073   7.787  10.699  14.071
 9059SOL    HW129074   7.828  10.622  14.113
 9059SOL    HW229075   7.693  10.680  14.073
 9060SOL     OW29076   4.299  13.706   3.761
 9060SOL    HW129077   4.327  13.786   3.717
 9060SOL    HW229078   4.214  13.728   3.799
 9061SOL     OW29079   9.449   2.918   3.767
 9061SOL    HW129080   9.423   3.002   3.728
 9061SOL    HW229081   9.517   2.884   3.709
 9062SOL     OW29082  13.887  13.631   6.891
 9062SOL    HW129083  13.831  13.663   6.962
 9062SOL    HW229084  13.960  13.589   6.936
 9063SOL     OW29085  13.568   8.654   8.705
 9063SOL    HW129086  13.501   8.631   8.641
 9063SOL    HW229087  13.600   8.740   8.677
 9064SOL     OW29088   2.646  13.548   1.722
 9064SOL    HW129089   2.570  13.598   1.693
 9064SOL    HW229090   2.716  13.574   1.662
 9065SOL     OW29091  13.141  10.713   4.576
 9065SOL    HW129092  13.074  10.661   4.531
 9065SOL    HW229093  13.097  10.794   4.600
 9066SOL     OW29094   5.119  13.772   9.725
 9066SOL    HW129095   5.130  13.867   9.731
 9066SOL    HW229096   5.169  13.747   9.647
 9067SOL     OW29097   4.541   0.894   6.389
 9067SOL    HW129098   4.531   0.829   6.459
 9067SOL    HW229099   4.523   0.845   6.309
 9068SOL     OW29100   5.189   4.476  11.420
 9068SOL    HW129101   5.280   4.485  11.392
 9068SOL    HW229102   5.193   4.482  11.515
 9069SOL     OW29103   1.278   0.551  10.018
 9069SOL    HW129104   1.325   0.634  10.027
 9069SOL    HW229105   1.347   0.488   9.996
 9070SOL     OW29106  11.193  11.520   6.798
 9070SOL    HW129107  11.193  11.584   6.868
 9070SOL    HW229108  11.283  11.487   6.795
 9071SOL     OW29109   9.614   9.561   9.242
 9071SOL    HW129110   9.669   9.630   9.279
 9071SOL    HW229111   9.528   9.575   9.282
 9072SOL     OW29112   7.064  10.778  14.018
 9072SOL    HW129113   6.975  10.809  14.034
 9072SOL    HW229114   7.085  10.724  14.093
 9073SOL     OW29115   3.545  11.544  13.220
 9073SOL    HW129116   3.462  11.563  13.264
 9073SOL    HW229117   3.573  11.629  13.184
 9074SOL     OW29118   4.728   7.701  12.762
 9074SOL    HW129119   4.767   7.653  12.688
 9074SOL    HW229120   4.651   7.744  12.724
 9075SOL     OW29121   3.378   4.067   6.089
 9075SOL    HW129122   3.410   4.126   6.021
 9075SOL    HW229123   3.455   4.048   6.143
 9076SOL     OW29124  12.103  13.996  11.946
 9076SOL    HW129125  12.162  13.922  11.938
 9076SOL    HW229126  12.015  13.957  11.945
 9077SOL     OW29127  12.783  14.286   1.708
 9077SOL    HW129128  12.777  14.303   1.614
 9077SOL    HW229129  12.694  14.303   1.740
 9078SOL     OW29130  12.244   5.995   4.778
 9078SOL    HW129131  12.168   5.977   4.723
 9078SOL    HW229132  12.206   6.027   4.861
 9079SOL     OW29133   2.147   7.242   9.083
 9079SOL    HW129134   2.213   7.184   9.046
 9079SOL    HW229135   2.179   7.330   9.065
 9080SOL     OW29136  12.456   8.415   8.576
 9080SOL    HW129137  12.363   8.434   8.562
 9080SOL    HW229138  12.466   8.412   8.671
 9081SOL     OW29139  11.908   1.675   5.299
 9081SOL    HW129140  11.887   1.674   5.392
 9081SOL    HW229141  11.825   1.660   5.255
 9082SOL     OW29142  14.061  11.648  13.192
 9082SOL    HW129143  14.103  11.573  13.151
 9082SOL    HW229144  14.094  11.648  13.282
 9083SOL     OW29145   1.412   7.915   0.140
 9083SOL    HW129146   1.440   7.824   0.134
 9083SOL    HW229147   1.317   7.912   0.129
 9084SOL     OW29148   8.894   3.808   1.062
 9084SOL    HW129149   8.968   3.815   1.001
 9084SOL    HW229150   8.817   3.831   1.009
 9085SOL     OW29151   7.701   4.937   5.866
 9085SOL    HW129152   7.774   4.982   5.823
 9085SOL    HW229153   7.642   4.913   5.795
 9086SOL     OW29154   6.706   9.594   3.021
 9086SOL    HW129155   6.731   9.546   2.942
 9086SOL    HW229156   6.623   9.637   2.998
 9087SOL     OW29157   9.342   2.147  10.086
 9087SOL    HW129158   9.260   2.106  10.059
 9087SOL    HW229159   9.377   2.088  10.153
 9088SOL     OW29160  11.893   5.966  13.012
 9088SOL    HW129161  11.844   6.003  13.085
 9088SOL    HW229162  11.888   5.871  13.026
 9089SOL     OW29163   2.916  10.630   8.734
 9089SOL    HW129164   2.921  10.541   8.699
 9089SOL    HW229165   2.828  10.659   8.713
 9090SOL     OW29166  11.431   0.350  12.659
 9090SOL    HW129167  11.353   0.395  12.691
 9090SOL    HW229168  11.479   0.417  12.611
 9091SOL     OW29169  11.952   4.520   6.105
 9091SOL    HW129170  11.975   4.607   6.074
 9091SOL    HW229171  11.927   4.532   6.196
 9092SOL     OW29172   3.977  11.349  11.438
 9092SOL    HW129173   3.892  11.393  11.440
 9092SOL    HW229174   3.992  11.331  11.346
 9093SOL     OW29175   2.493  12.598  11.409
 9093SOL    HW129176   2.430  12.663  11.440
 9093SOL    HW229177   2.479  12.522  11.464
 9094SOL     OW29178   8.765   8.854  13.877
 9094SOL    HW129179   8.846   8.899  13.904
 9094SOL    HW229180   8.795   8.769  13.845
 9095SOL     OW29181   1.513   7.200   8.705
 9095SOL    HW129182   1.552   7.286   8.721
 9095SOL    HW229183   1.432   7.219   8.658
 9096SOL     OW29184   1.062   5.219   8.667
 9096SOL    HW129185   1.018   5.274   8.732
 9096SOL    HW229186   1.155   5.225   8.690
 9097SOL     OW29187   7.687   4.140  12.158
 9097SOL    HW129188   7.690   4.223  12.111
 9097SOL    HW229189   7.712   4.074  12.093
 9098SOL     OW29190   7.325  12.388  12.976
 9098SOL    HW129191   7.304  12.303  12.937
 9098SOL    HW229192   7.277  12.451  12.922
 9099SOL     OW29193  11.754  11.703  11.596
 9099SOL    HW129194  11.708  11.645  11.657
 9099SOL    HW229195  11.706  11.786  11.601
 9100SOL     OW29196   4.030  13.190   5.813
 9100SOL    HW129197   4.080  13.269   5.833
 9100SOL    HW229198   3.958  13.220   5.758
 9101SOL     OW29199   1.645   7.869   6.397
 9101SOL    HW129200   1.665   7.902   6.310
 9101SOL    HW229201   1.649   7.773   6.388
 9102SOL     OW29202  10.040   5.153   8.136
 9102SOL    HW129203   9.983   5.201   8.195
 9102SOL    HW229204  10.005   5.064   8.135
 9103SOL     OW29205   0.501  10.031   0.615
 9103SOL    HW129206   0.454  10.067   0.541
 9103SOL    HW229207   0.523  10.107   0.669
 9104SOL     OW29208   2.418   5.588   7.533
 9104SOL    HW129209   2.358   5.555   7.466
 9104SOL    HW229210   2.377   5.669   7.564
 9105SOL     OW29211   7.385   1.077   5.297
 9105SOL    HW129212   7.376   1.031   5.214
 9105SOL    HW229213   7.444   1.023   5.349
 9106SOL     OW29214   2.443   1.308   2.862
 9106SOL    HW129215   2.359   1.327   2.904
 9106SOL    HW229216   2.483   1.393   2.848
 9107SOL     OW29217   1.304   6.540   8.418
 9107SOL    HW129218   1.217   6.538   8.458
 9107SOL    HW229219   1.364   6.548   8.492
 9108SOL     OW29220   5.103   2.298   5.201
 9108SOL    HW129221   5.039   2.289   5.130
 9108SOL    HW229222   5.185   2.267   5.164
 9109SOL     OW29223  13.136   5.029   3.523
 9109SOL    HW129224  13.131   5.000   3.432
 9109SOL    HW229225  13.046   5.050   3.547
 9110SOL     OW29226   2.304   8.801   9.368
 9110SOL    HW129227   2.211   8.781   9.360
 9110SOL    HW229228   2.324   8.787   9.460
 9111SOL     OW29229   1.103   4.229   9.203
 9111SOL    HW129230   1.107   4.280   9.283
 9111SOL    HW229231   1.039   4.160   9.221
 9112SOL     OW29232  13.452  10.647   8.397
 9112SOL    HW129233  13.368  10.689   8.416
 9112SOL    HW229234  13.431  10.576   8.337
 9113SOL     OW29235   7.684   1.290   7.563
 9113SOL    HW129236   7.643   1.278   7.648
 9113SOL    HW229237   7.634   1.360   7.522
 9114SOL     OW29238   6.287  10.979   6.568
 9114SOL    HW129239   6.366  10.952   6.614
 9114SOL    HW229240   6.224  10.997   6.638
 9115SOL     OW29241   0.556  11.434   3.891
 9115SOL    HW129242   0.508  11.484   3.958
 9115SOL    HW229243   0.505  11.448   3.811
 9116SOL     OW29244   8.315   7.555  12.490
 9116SOL    HW129245   8.264   7.634  12.503
 9116SOL    HW229246   8.358   7.540  12.575
 9117SOL     OW29247   1.502   2.871   4.657
 9117SOL    HW129248   1.597   2.859   4.661
 9117SOL    HW229249   1.480   2.922   4.735
 9118SOL     OW29250   8.906  10.138   9.670
 9118SOL    HW129251   8.867  10.093   9.595
 9118SOL    HW229252   9.000  10.136   9.654
 9119SOL     OW29253   5.279  14.782  13.937
 9119SOL    HW129254   5.289  14.692  13.968
 9119SOL    HW229255   5.261  14.833  14.016
 9120SOL     OW29256  10.541  13.704   7.827
 9120SOL    HW129257  10.637  13.698   7.826
 9120SOL    HW229258  10.513  13.630   7.880
 9121SOL     OW29259  14.000   7.400   6.348
 9121SOL    HW129260  13.918   7.366   6.382
 9121SOL    HW229261  13.978   7.485   6.310
 9122SOL     OW29262  10.623   8.893   6.274
 9122SOL    HW129263  10.710   8.933   6.265
 9122SOL    HW229264  10.564   8.954   6.229
 9123SOL     OW29265   6.935   1.277   2.544
 9123SOL    HW129266   6.867   1.318   2.598
 9123SOL    HW229267   6.886   1.221   2.484
 9124SOL     OW29268  13.261  10.522  11.616
 9124SOL    HW129269  13.209  10.453  11.575
 9124SOL    HW229270  13.226  10.531  11.704
 9125SOL     OW29271   5.400  13.273  12.250
 9125SOL    HW129272   5.465  13.259  12.318
 9125SOL    HW229273   5.424  13.356  12.209
 9126SOL     OW29274   8.085   9.242  14.033
 9126SOL    HW129275   7.998   9.277  14.048
 9126SOL    HW229276   8.076   9.147  14.043
 9127SOL     OW29277   3.584  13.571   6.400
 9127SOL    HW129278   3.543  13.531   6.323
 9127SOL    HW229279   3.650  13.630   6.365
 9128SOL     OW29280  13.745   0.364   7.895
 9128SOL    HW129281  13.730   0.456   7.915
 9128SOL    HW229282  13.818   0.339   7.951
 9129SOL     OW29283  14.111   7.658   4.828
 9129SOL    HW129284  14.196   7.617   4.818
 9129SOL    HW229285  14.108   7.687   4.920
 9130SOL     OW29286   0.797  11.269  10.466
 9130SOL    HW129287   0.703  11.283  10.454
 9130SOL    HW229288   0.837  11.351  10.439
 9131SOL     OW29289   0.158  13.982   9.515
 9131SOL    HW129290   0.214  13.918   9.473
 9131SOL    HW229291   0.191  13.988   9.605
 9132SOL     OW29292   7.329   8.074   7.865
 9132SOL    HW129293   7.348   8.001   7.806
 9132SOL    HW229294   7.243   8.053   7.901
 9133SOL     OW29295   0.034   8.447   4.220
 9133SOL    HW129296  14.851   8.491   4.155
 9133SOL    HW229297   0.088   8.516   4.257
 9134SOL     OW29298   3.977   5.462   8.620
 9134SOL    HW129299   4.014   5.400   8.682
 9134SOL    HW229300   4.052   5.503   8.578
 9135SOL     OW29301   5.314   9.066   8.292
 9135SOL    HW129302   5.332   9.140   8.233
 9135SOL    HW229303   5.389   9.066   8.352
 9136SOL     OW29304   0.075   7.684   6.949
 9136SOL    HW129305   0.021   7.620   6.997
 9136SOL    HW229306   0.036   7.769   6.970
 9137SOL     OW29307   8.609  14.297  13.829
 9137SOL    HW129308   8.538  14.338  13.779
 9137SOL    HW229309   8.584  14.205  13.834
 9138SOL     OW29310   2.838   3.541   5.480
 9138SOL    HW129311   2.748   3.514   5.461
 9138SOL    HW229312   2.881   3.462   5.511
 9139SOL     OW29313  10.043   6.194   9.950
 9139SOL    HW129314  10.000   6.270   9.911
 9139SOL    HW229315  10.006   6.119   9.902
 9140SOL     OW29316   7.517  13.607  12.056
 9140SOL    HW129317   7.470  13.525  12.068
 9140SOL    HW229318   7.468  13.670  12.109
 9141SOL     OW29319   4.795   5.226   2.592
 9141SOL    HW129320   4.785   5.223   2.687
 9141SOL    HW229321   4.715   5.185   2.558
 9142SOL     OW29322  11.313  14.605   5.905
 9142SOL    HW129323  11.322  14.542   5.976
 9142SOL    HW229324  11.289  14.687   5.948
 9143SOL     OW29325   2.303   0.517   1.517
 9143SOL    HW129326   2.364   0.447   1.494
 9143SOL    HW229327   2.279   0.556   1.433
 9144SOL     OW29328  14.231  11.016   8.261
 9144SOL    HW129329  14.235  10.986   8.352
 9144SOL    HW229330  14.143  10.992   8.232
 9145SOL     OW29331  10.532   6.543   5.911
 9145SOL    HW129332  10.570   6.614   5.860
 9145SOL    HW229333  10.552   6.565   6.002
 9146SOL     OW29334  13.839   3.142   8.500
 9146SOL    HW129335  13.804   3.054   8.513
 9146SOL    HW229336  13.770   3.189   8.453
 9147SOL     OW29337   4.471  13.170   7.989
 9147SOL    HW129338   4.488  13.109   7.917
 9147SOL    HW229339   4.399  13.129   8.038
 9148SOL     OW29340  11.080   0.646   1.543
 9148SOL    HW129341  10.993   0.685   1.531
 9148SOL    HW229342  11.094   0.645   1.638
 9149SOL     OW29343   5.893  10.415   5.414
 9149SOL    HW129344   5.902  10.379   5.326
 9149SOL    HW229345   5.864  10.506   5.401
 9150SOL     OW29346   7.082   4.056   0.771
 9150SOL    HW129347   7.096   4.146   0.744
 9150SOL    HW229348   7.094   4.057   0.866
 9151SOL     OW29349   0.192  10.099  10.819
 9151SOL    HW129350   0.241  10.017  10.826
 9151SOL    HW229351   0.105  10.077  10.854
 9152SOL     OW29352  12.110   9.609  10.103
 9152SOL    HW129353  12.056   9.552  10.157
 9152SOL    HW229354  12.093   9.697  10.135
 9153SOL     OW29355  12.754  11.005   6.090
 9153SOL    HW129356  12.687  11.071   6.108
 9153SOL    HW229357  12.725  10.962   6.009
 9154SOL     OW29358  11.526  14.107   0.136
 9154SOL    HW129359  11.434  14.101   0.162
 9154SOL    HW229360  11.557  14.016   0.138
 9155SOL     OW29361   7.936   2.584   7.585
 9155SOL    HW129362   7.925   2.675   7.558
 9155SOL    HW229363   7.903   2.532   7.511
 9156SOL     OW29364  14.064   5.395   3.971
 9156SOL    HW129365  14.118   5.446   4.031
 9156SOL    HW229366  13.974   5.423   3.989
 9157SOL     OW29367  10.383  11.326   8.075
 9157SOL    HW129368  10.451  11.368   8.023
 9157SOL    HW229369  10.310  11.388   8.072
 9158SOL     OW29370   2.018   2.548   2.868
 9158SOL    HW129371   2.066   2.627   2.891
 9158SOL    HW229372   1.941   2.579   2.821
 9159SOL     OW29373  12.861   6.076  10.069
 9159SOL    HW129374  12.843   6.150  10.127
 9159SOL    HW229375  12.888   6.005  10.128
 9160SOL     OW29376  13.638  12.110   6.530
 9160SOL    HW129377  13.559  12.055   6.533
 9160SOL    HW229378  13.674  12.105   6.619
 9161SOL     OW29379   9.008   8.867   9.885
 9161SOL    HW129380   9.014   8.962   9.899
 9161SOL    HW229381   9.091   8.844   9.843
 9162SOL     OW29382  13.275   2.291  12.729
 9162SOL    HW129383  13.296   2.341  12.650
 9162SOL    HW229384  13.208   2.344  12.772
 9163SOL     OW29385   3.659  13.944   4.246
 9163SOL    HW129386   3.681  14.028   4.287
 9163SOL    HW229387   3.593  13.906   4.303
 9164SOL     OW29388   7.026   5.600  11.647
 9164SOL    HW129389   6.950   5.648  11.681
 9164SOL    HW229390   6.989   5.536  11.587
 9165SOL     OW29391   5.890  10.424  10.582
 9165SOL    HW129392   5.950  10.430  10.656
 9165SOL    HW229393   5.903  10.505  10.533
 9166SOL     OW29394  10.407  10.255  14.213
 9166SOL    HW129395  10.429  10.343  14.242
 9166SOL    HW229396  10.355  10.268  14.133
 9167SOL     OW29397  14.301   4.267   2.961
 9167SOL    HW129398  14.383   4.232   2.927
 9167SOL    HW229399  14.324   4.352   2.999
 9168SOL     OW29400   9.240   1.135   9.512
 9168SOL    HW129401   9.207   1.126   9.422
 9168SOL    HW229402   9.335   1.122   9.504
 9169SOL     OW29403   3.507  14.026  13.635
 9169SOL    HW129404   3.484  14.112  13.599
 9169SOL    HW229405   3.484  13.964  13.566
 9170SOL     OW29406   3.745  12.632   0.963
 9170SOL    HW129407   3.813  12.569   0.987
 9170SOL    HW229408   3.792  12.712   0.942
 9171SOL     OW29409   2.035   8.668  13.071
 9171SOL    HW129410   2.113   8.646  13.021
 9171SOL    HW229411   2.054   8.639  13.160
 9172SOL     OW29412   4.138  14.288   2.181
 9172SOL    HW129413   4.110  14.376   2.207
 9172SOL    HW229414   4.114  14.232   2.255
 9173SOL     OW29415   5.684  12.131   9.314
 9173SOL    HW129416   5.594  12.163   9.304
 9173SOL    HW229417   5.729  12.203   9.358
 9174SOL     OW29418  11.935  13.855  10.274
 9174SOL    HW129419  11.883  13.775  10.269
 9174SOL    HW229420  12.022  13.830  10.243
 9175SOL     OW29421  14.798   9.179   4.210
 9175SOL    HW129422  14.730   9.112   4.207
 9175SOL    HW229423  14.772   9.241   4.142
 9176SOL     OW29424   8.709   6.305   2.688
 9176SOL    HW129425   8.653   6.305   2.766
 9176SOL    HW229426   8.704   6.394   2.654
 9177SOL     OW29427   3.068   6.180   0.918
 9177SOL    HW129428   3.114   6.216   0.994
 9177SOL    HW229429   2.982   6.221   0.920
 9178SOL     OW29430   4.580   1.443   6.949
 9178SOL    HW129431   4.597   1.349   6.957
 9178SOL    HW229432   4.665   1.484   6.964
 9179SOL     OW29433   5.453   3.203  10.488
 9179SOL    HW129434   5.473   3.220  10.396
 9179SOL    HW229435   5.372   3.150  10.485
 9180SOL     OW29436  11.095   5.070   1.348
 9180SOL    HW129437  11.098   5.108   1.260
 9180SOL    HW229438  11.169   5.009   1.350
 9181SOL     OW29439   2.412  10.766  11.781
 9181SOL    HW129440   2.437  10.702  11.714
 9181SOL    HW229441   2.320  10.783  11.764
 9182SOL     OW29442  10.237   5.096   3.876
 9182SOL    HW129443  10.156   5.044   3.875
 9182SOL    HW229444  10.220   5.168   3.815
 9183SOL     OW29445   3.191   7.131   5.639
 9183SOL    HW129446   3.208   7.195   5.570
 9183SOL    HW229447   3.278   7.114   5.677
 9184SOL     OW29448  12.314  12.387  11.402
 9184SOL    HW129449  12.408  12.389  11.415
 9184SOL    HW229450  12.299  12.439  11.323
 9185SOL     OW29451   6.328  10.809   1.354
 9185SOL    HW129452   6.397  10.785   1.291
 9185SOL    HW229453   6.270  10.866   1.304
 9186SOL     OW29454   5.992  12.099   9.727
 9186SOL    HW129455   6.034  12.184   9.719
 9186SOL    HW229456   6.062  12.036   9.709
 9187SOL     OW29457   8.126   0.412   7.135
 9187SOL    HW129458   8.030   0.421   7.134
 9187SOL    HW229459   8.150   0.407   7.043
 9188SOL     OW29460   9.716   1.818   7.192
 9188SOL    HW129461   9.714   1.891   7.254
 9188SOL    HW229462   9.803   1.823   7.153
 9189SOL     OW29463  11.436   3.342  13.001
 9189SOL    HW129464  11.445   3.421  13.055
 9189SOL    HW229465  11.505   3.284  13.033
 9190SOL     OW29466   3.862  13.137   4.637
 9190SOL    HW129467   3.879  13.107   4.547
 9190SOL    HW229468   3.883  13.062   4.692
 9191SOL     OW29469   8.008  12.714   0.997
 9191SOL    HW129470   8.074  12.739   0.933
 9191SOL    HW229471   8.047  12.640   1.044
 9192SOL     OW29472   7.927   3.188   9.139
 9192SOL    HW129473   7.935   3.100   9.176
 9192SOL    HW229474   7.834   3.195   9.114
 9193SOL     OW29475  10.344   3.672   7.771
 9193SOL    HW129476  10.398   3.751   7.763
 9193SOL    HW229477  10.404   3.600   7.750
 9194SOL     OW29478  14.284   4.212   4.840
 9194SOL    HW129479  14.270   4.293   4.791
 9194SOL    HW229480  14.200   4.167   4.836
 9195SOL     OW29481  12.275  10.424   5.635
 9195SOL    HW129482  12.357  10.374   5.635
 9195SOL    HW229483  12.211  10.365   5.673
 9196SOL     OW29484   9.907   5.277   2.163
 9196SOL    HW129485   9.819   5.244   2.180
 9196SOL    HW229486   9.894   5.351   2.103
 9197SOL     OW29487   4.524  13.564   5.399
 9197SOL    HW129488   4.484  13.593   5.318
 9197SOL    HW229489   4.453  13.568   5.464
 9198SOL     OW29490   1.129  10.512   3.191
 9198SOL    HW129491   1.200  10.481   3.135
 9198SOL    HW229492   1.171  10.538   3.273
 9199SOL     OW29493   2.683   0.479  12.742
 9199SOL    HW129494   2.654   0.446  12.657
 9199SOL    HW229495   2.770   0.440  12.754
 9200SOL     OW29496   9.846  13.324   0.222
 9200SOL    HW129497   9.796  13.384   0.278
 9200SOL    HW229498   9.937  13.337   0.248
 9201SOL     OW29499   9.628  10.440   5.884
 9201SOL    HW129500   9.689  10.397   5.824
 9201SOL    HW229501   9.645  10.400   5.969
 9202SOL     OW29502   3.834  14.029  11.461
 9202SOL    HW129503   3.793  13.960  11.408
 9202SOL    HW229504   3.907  13.986  11.504
 9203SOL     OW29505   5.012  11.505  11.996
 9203SOL    HW129506   5.067  11.428  12.010
 9203SOL    HW229507   4.987  11.534  12.083
 9204SOL     OW29508  14.756   8.075  12.592
 9204SOL    HW129509  14.782   8.045  12.679
 9204SOL    HW229510  14.664   8.052  12.586
 9205SOL     OW29511  10.525  11.573  13.535
 9205SOL    HW129512  10.523  11.666  13.555
 9205SOL    HW229513  10.559  11.569  13.446
 9206SOL     OW29514   4.714  12.809   0.270
 9206SOL    HW129515   4.798  12.768   0.251
 9206SOL    HW229516   4.729  12.902   0.254
 9207SOL     OW29517  13.135   0.089   9.049
 9207SOL    HW129518  13.143   0.149   8.975
 9207SOL    HW229519  13.128   0.147   9.126
 9208SOL     OW29520  10.211  10.522  11.959
 9208SOL    HW129521  10.271  10.501  12.030
 9208SOL    HW229522  10.211  10.617  11.955
 9209SOL     OW29523   6.486   4.355   4.302
 9209SOL    HW129524   6.525   4.419   4.242
 9209SOL    HW229525   6.560   4.323   4.353
 9210SOL     OW29526  10.128   9.447   5.731
 9210SOL    HW129527  10.208   9.413   5.772
 9210SOL    HW229528  10.152   9.459   5.639
 9211SOL     OW29529  14.114  13.979   6.321
 9211SOL    HW129530  14.032  13.958   6.366
 9211SOL    HW229531  14.120  14.075   6.326
 9212SOL     OW29532   3.984  10.184  14.372
 9212SOL    HW129533   4.036  10.104  14.381
 9212SOL    HW229534   3.962  10.209  14.462
 9213SOL     OW29535   7.432   7.975   6.147
 9213SOL    HW129536   7.442   7.939   6.235
 9213SOL    HW229537   7.358   8.035   6.154
 9214SOL     OW29538   6.931   4.127  14.731
 9214SOL    HW129539   6.867   4.157  14.666
 9214SOL    HW229540   7.001   4.193  14.727
 9215SOL     OW29541   9.933   0.952   8.807
 9215SOL    HW129542   9.907   0.868   8.769
 9215SOL    HW229543   9.884   0.957   8.890
 9216SOL     OW29544   3.671  10.086   2.226
 9216SOL    HW129545   3.649   9.993   2.221
 9216SOL    HW229546   3.727  10.093   2.303
 9217SOL     OW29547  14.432  11.910   8.233
 9217SOL    HW129548  14.370  11.901   8.305
 9217SOL    HW229549  14.384  11.881   8.155
 9218SOL     OW29550   6.280   8.146   6.795
 9218SOL    HW129551   6.301   8.143   6.702
 9218SOL    HW229552   6.253   8.057   6.816
 9219SOL     OW29553  14.477   5.581  14.866
 9219SOL    HW129554  14.511   5.671  14.862
 9219SOL    HW229555  14.401   5.586   0.051
 9220SOL     OW29556   4.039   7.665   3.332
 9220SOL    HW129557   3.949   7.698   3.336
 9220SOL    HW229558   4.032   7.582   3.284
 9221SOL     OW29559   3.387   8.656  12.001
 9221SOL    HW129560   3.390   8.658  12.096
 9221SOL    HW229561   3.313   8.598  11.981
 9222SOL     OW29562   2.207   1.871   8.434
 9222SOL    HW129563   2.170   1.948   8.478
 9222SOL    HW229564   2.296   1.865   8.468
 9223SOL     OW29565   6.767   5.618   9.048
 9223SOL    HW129566   6.720   5.695   9.016
 9223SOL    HW229567   6.705   5.545   9.036
 9224SOL     OW29568   8.723  10.698   7.062
 9224SOL    HW129569   8.642  10.647   7.069
 9224SOL    HW229570   8.766  10.665   6.983
 9225SOL     OW29571  13.822   1.970  10.959
 9225SOL    HW129572  13.770   1.894  10.932
 9225SOL    HW229573  13.808   1.976  11.053
 9226SOL     OW29574  14.426   2.109   5.001
 9226SOL    HW129575  14.449   2.202   5.000
 9226SOL    HW229576  14.351   2.102   4.942
 9227SOL     OW29577   5.070   9.205   0.356
 9227SOL    HW129578   5.152   9.167   0.387
 9227SOL    HW229579   5.089   9.298   0.344
 9228SOL     OW29580   8.844   0.586  13.131
 9228SOL    HW129581   8.775   0.635  13.086
 9228SOL    HW229582   8.802   0.555  13.212
 9229SOL     OW29583   1.439  13.528   5.313
 9229SOL    HW129584   1.526  13.518   5.352
 9229SOL    HW229585   1.456  13.569   5.228
 9230SOL     OW29586   8.798  13.527   7.379
 9230SOL    HW129587   8.738  13.567   7.442
 9230SOL    HW229588   8.791  13.581   7.301
 9231SOL     OW29589  11.486  11.594  12.787
 9231SOL    HW129590  11.465  11.507  12.822
 9231SOL    HW229591  11.545  11.577  12.713
 9232SOL     OW29592   8.320   2.995  12.303
 9232SOL    HW129593   8.288   2.915  12.345
 9232SOL    HW229594   8.265   3.004  12.225
 9233SOL     OW29595  10.511   4.928  14.319
 9233SOL    HW129596  10.417   4.922  14.307
 9233SOL    HW229597  10.525   4.916  14.413
 9234SOL     OW29598   0.855   2.257  12.537
 9234SOL    HW129599   0.844   2.190  12.604
 9234SOL    HW229600   0.852   2.209  12.454
 9235SOL     OW29601   4.623  13.717   6.279
 9235SOL    HW129602   4.699  13.693   6.333
 9235SOL    HW229603   4.641  13.807   6.252
 9236SOL     OW29604   3.163  13.527   2.868
 9236SOL    HW129605   3.132  13.444   2.904
 9236SOL    HW229606   3.084  13.574   2.842
 9237SOL     OW29607  14.046  14.719  14.273
 9237SOL    HW129608  13.980  14.773  14.229
 9237SOL    HW229609  14.032  14.631  14.238
 9238SOL     OW29610   7.024  14.788   1.943
 9238SOL    HW129611   6.958  14.720   1.957
 9238SOL    HW229612   7.097  14.762   1.999
 9239SOL     OW29613   4.254   8.855   9.589
 9239SOL    HW129614   4.225   8.814   9.671
 9239SOL    HW229615   4.184   8.916   9.567
 9240SOL     OW29616   7.467  14.044  13.939
 9240SOL    HW129617   7.477  13.984  13.864
 9240SOL    HW229618   7.378  14.076  13.932
 9241SOL     OW29619  12.033   3.198   1.490
 9241SOL    HW129620  11.971   3.220   1.560
 9241SOL    HW229621  11.984   3.208   1.409
 9242SOL     OW29622  12.918  13.984   8.058
 9242SOL    HW129623  13.013  13.985   8.063
 9242SOL    HW229624  12.893  14.074   8.036
 9243SOL     OW29625  12.648   7.097  12.378
 9243SOL    HW129626  12.606   7.131  12.457
 9243SOL    HW229627  12.638   7.002  12.386
 9244SOL     OW29628   5.732   0.148   4.522
 9244SOL    HW129629   5.716   0.240   4.504
 9244SOL    HW229630   5.652   0.104   4.493
 9245SOL     OW29631   8.927   4.389   5.144
 9245SOL    HW129632   8.902   4.450   5.213
 9245SOL    HW229633   8.933   4.304   5.188
 9246SOL     OW29634   9.270   9.951   2.993
 9246SOL    HW129635   9.174   9.951   2.982
 9246SOL    HW229636   9.292   9.861   3.016
 9247SOL     OW29637   3.182   2.210   5.750
 9247SOL    HW129638   3.216   2.266   5.680
 9247SOL    HW229639   3.129   2.269   5.804
 9248SOL     OW29640   0.512   0.074   0.834
 9248SOL    HW129641   0.533  14.864   0.790
 9248SOL    HW229642   0.542   0.142   0.773
 9249SOL     OW29643   2.383   1.225   9.601
 9249SOL    HW129644   2.425   1.302   9.563
 9249SOL    HW229645   2.427   1.151   9.560
 9250SOL     OW29646  13.264   8.996   4.368
 9250SOL    HW129647  13.182   9.044   4.354
 9250SOL    HW229648  13.322   9.060   4.409
 9251SOL     OW29649   2.739  12.653  10.525
 9251SOL    HW129650   2.712  12.566  10.495
 9251SOL    HW229651   2.829  12.662  10.492
 9252SOL     OW29652   9.628  12.006  10.963
 9252SOL    HW129653   9.609  11.995  11.056
 9252SOL    HW229654   9.622  11.918  10.927
 9253SOL     OW29655   9.680  10.503   0.810
 9253SOL    HW129656   9.722  10.583   0.778
 9253SOL    HW229657   9.751  10.452   0.849
 9254SOL     OW29658  10.134   2.814  14.852
 9254SOL    HW129659  10.094   2.832   0.065
 9254SOL    HW229660  10.158   2.901  14.818
 9255SOL     OW29661  14.171   6.684  14.532
 9255SOL    HW129662  14.161   6.691  14.627
 9255SOL    HW229663  14.081   6.679  14.498
 9256SOL     OW29664  12.453   2.142   7.245
 9256SOL    HW129665  12.523   2.106   7.301
 9256SOL    HW229666  12.438   2.230   7.279
 9257SOL     OW29667   3.821   0.430  10.958
 9257SOL    HW129668   3.731   0.397  10.963
 9257SOL    HW229669   3.811   0.525  10.947
 9258SOL     OW29670  13.687   7.519   6.221
 9258SOL    HW129671  13.606   7.569   6.208
 9258SOL    HW229672  13.755   7.586   6.232
 9259SOL     OW29673  10.786   2.524   6.082
 9259SOL    HW129674  10.872   2.559   6.058
 9259SOL    HW229675  10.725   2.596   6.068
 9260SOL     OW29676   8.855   8.210   8.032
 9260SOL    HW129677   8.794   8.277   8.002
 9260SOL    HW229678   8.929   8.216   7.972
 9261SOL     OW29679   4.825   6.743  14.556
 9261SOL    HW129680   4.877   6.740  14.636
 9261SOL    HW229681   4.788   6.831  14.554
 9262SOL     OW29682   8.263  13.198   6.068
 9262SOL    HW129683   8.283  13.200   5.975
 9262SOL    HW229684   8.199  13.269   6.080
 9263SOL     OW29685   6.854   5.299  12.326
 9263SOL    HW129686   6.868   5.367  12.260
 9263SOL    HW229687   6.842   5.219  12.276
 9264SOL     OW29688   5.045   0.416  10.866
 9264SOL    HW129689   5.034   0.349  10.799
 9264SOL    HW229690   5.036   0.499  10.818
 9265SOL     OW29691   1.180   4.315   1.527
 9265SOL    HW129692   1.215   4.388   1.475
 9265SOL    HW229693   1.170   4.351   1.615
 9266SOL     OW29694   4.734   0.904  13.429
 9266SOL    HW129695   4.816   0.895  13.476
 9266SOL    HW229696   4.756   0.953  13.350
 9267SOL     OW29697   9.130  14.353   9.441
 9267SOL    HW129698   9.080  14.365   9.522
 9267SOL    HW229699   9.107  14.428   9.387
 9268SOL     OW29700   9.633   5.914   2.119
 9268SOL    HW129701   9.658   5.827   2.090
 9268SOL    HW229702   9.586   5.899   2.201
 9269SOL     OW29703   2.712   6.269   8.483
 9269SOL    HW129704   2.796   6.304   8.456
 9269SOL    HW229705   2.687   6.210   8.411
 9270SOL     OW29706  12.438  12.162   1.318
 9270SOL    HW129707  12.391  12.087   1.281
 9270SOL    HW229708  12.416  12.235   1.260
 9271SOL     OW29709   8.529   3.923   2.305
 9271SOL    HW129710   8.467   3.987   2.269
 9271SOL    HW229711   8.523   3.934   2.400
 9272SOL     OW29712   8.896   1.874  14.409
 9272SOL    HW129713   8.852   1.946  14.364
 9272SOL    HW229714   8.840   1.853  14.483
 9273SOL     OW29715   8.153  14.699   8.355
 9273SOL    HW129716   8.163  14.793   8.366
 9273SOL    HW229717   8.062  14.687   8.329
 9274SOL     OW29718   2.338   2.456   5.865
 9274SOL    HW129719   2.280   2.531   5.850
 9274SOL    HW229720   2.391   2.450   5.786
 9275SOL     OW29721  13.477   9.065   1.390
 9275SOL    HW129722  13.511   9.109   1.313
 9275SOL    HW229723  13.448   8.979   1.359
 9276SOL     OW29724   1.115   4.339   1.986
 9276SOL    HW129725   1.177   4.346   2.059
 9276SOL    HW229726   1.040   4.391   2.015
 9277SOL     OW29727  11.425   2.912   6.691
 9277SOL    HW129728  11.359   2.929   6.758
 9277SOL    HW229729  11.415   2.819   6.671
 9278SOL     OW29730  13.124   6.814   1.264
 9278SOL    HW129731  13.180   6.891   1.251
 9278SOL    HW229732  13.169   6.762   1.330
 9279SOL     OW29733   7.827   4.302   5.275
 9279SOL    HW129734   7.864   4.296   5.187
 9279SOL    HW229735   7.790   4.215   5.292
 9280SOL     OW29736   4.968  14.004   9.351
 9280SOL    HW129737   5.029  13.963   9.289
 9280SOL    HW229738   4.937  13.931   9.405
 9281SOL     OW29739   5.231   2.030   8.425
 9281SOL    HW129740   5.279   1.997   8.500
 9281SOL    HW229741   5.139   2.019   8.448
 9282SOL     OW29742  13.389   6.438   6.121
 9282SOL    HW129743  13.458   6.504   6.115
 9282SOL    HW229744  13.333   6.454   6.045
 9283SOL     OW29745   8.010   6.559  11.603
 9283SOL    HW129746   7.994   6.519  11.517
 9283SOL    HW229747   8.063   6.636  11.584
 9284SOL     OW29748   6.262   4.065  11.993
 9284SOL    HW129749   6.248   4.155  12.023
 9284SOL    HW229750   6.269   4.073  11.897
 9285SOL     OW29751   0.882   7.653  10.204
 9285SOL    HW129752   0.895   7.633  10.296
 9285SOL    HW229753   0.787   7.655  10.192
 9286SOL     OW29754  10.421  12.400   3.917
 9286SOL    HW129755  10.364  12.325   3.932
 9286SOL    HW229756  10.411  12.420   3.824
 9287SOL     OW29757  12.202  11.105  10.777
 9287SOL    HW129758  12.149  11.133  10.852
 9287SOL    HW229759  12.213  11.011  10.789
 9288SOL     OW29760  14.813   3.534   2.755
 9288SOL    HW129761   0.011   3.518   2.691
 9288SOL    HW229762  14.752   3.591   2.709
 9289SOL     OW29763   7.454   5.843  11.387
 9289SOL    HW129764   7.530   5.887  11.426
 9289SOL    HW229765   7.382   5.904  11.400
 9290SOL     OW29766  10.627  13.508   2.660
 9290SOL    HW129767  10.564  13.494   2.590
 9290SOL    HW229768  10.672  13.589   2.636
 9291SOL     OW29769   1.719   9.551  13.474
 9291SOL    HW129770   1.781   9.593  13.415
 9291SOL    HW229771   1.660   9.621  13.501
 9292SOL     OW29772  14.110   9.704   1.837
 9292SOL    HW129773  14.178   9.770   1.826
 9292SOL    HW229774  14.148   9.641   1.898
 9293SOL     OW29775   4.905   1.838   7.564
 9293SOL    HW129776   4.985   1.792   7.588
 9293SOL    HW229777   4.892   1.817   7.472
 9294SOL     OW29778   3.101  14.305   4.717
 9294SOL    HW129779   3.075  14.365   4.647
 9294SOL    HW229780   3.026  14.306   4.778
 9295SOL     OW29781   2.550   8.511   6.965
 9295SOL    HW129782   2.614   8.460   7.014
 9295SOL    HW229783   2.498   8.555   7.032
 9296SOL     OW29784  10.935   4.116  14.796
 9296SOL    HW129785  10.874   4.124  14.869
 9296SOL    HW229786  10.986   4.038  14.816
 9297SOL     OW29787   3.890   6.931   0.296
 9297SOL    HW129788   3.864   6.896   0.381
 9297SOL    HW229789   3.831   6.888   0.234
 9298SOL     OW29790   3.507  10.869   1.647
 9298SOL    HW129791   3.432  10.899   1.699
 9298SOL    HW229792   3.508  10.774   1.661
 9299SOL     OW29793  13.838  11.697  13.026
 9299SOL    HW129794  13.918  11.645  13.025
 9299SOL    HW229795  13.823  11.720  12.934
 9300SOL     OW29796   9.775   9.139   1.993
 9300SOL    HW129797   9.699   9.186   2.026
 9300SOL    HW229798   9.740   9.082   1.924
 9301SOL     OW29799   4.960   2.624   4.947
 9301SOL    HW129800   4.912   2.542   4.956
 9301SOL    HW229801   4.923   2.665   4.868
 9302SOL     OW29802   6.432  13.708   1.587
 9302SOL    HW129803   6.451  13.693   1.680
 9302SOL    HW229804   6.459  13.626   1.545
 9303SOL     OW29805   2.052  14.000   8.999
 9303SOL    HW129806   2.113  14.036   9.063
 9303SOL    HW229807   1.968  14.040   9.021
 9304SOL     OW29808  10.937   7.071   9.815
 9304SOL    HW129809  10.955   7.095   9.724
 9304SOL    HW229810  10.915   7.153   9.858
 9305SOL     OW29811   3.059  11.288   7.002
 9305SOL    HW129812   3.089  11.337   7.078
 9305SOL    HW229813   3.108  11.205   7.006
 9306SOL     OW29814   4.139  12.998   1.527
 9306SOL    HW129815   4.085  13.076   1.520
 9306SOL    HW229816   4.077  12.925   1.517
 9307SOL     OW29817   5.709  10.558   7.524
 9307SOL    HW129818   5.745  10.646   7.527
 9307SOL    HW229819   5.754  10.516   7.451
 9308SOL     OW29820  10.702  13.245   2.586
 9308SOL    HW129821  10.689  13.336   2.611
 9308SOL    HW229822  10.733  13.248   2.495
 9309SOL     OW29823   4.597   7.381   3.273
 9309SOL    HW129824   4.679   7.405   3.229
 9309SOL    HW229825   4.541   7.347   3.203
 9310SOL     OW29826   0.282   2.641   0.310
 9310SOL    HW129827   0.257   2.721   0.264
 9310SOL    HW229828   0.297   2.578   0.240
 9311SOL     OW29829   9.180   5.691  13.782
 9311SOL    HW129830   9.194   5.618  13.723
 9311SOL    HW229831   9.136   5.757  13.729
 9312SOL     OW29832   7.719  14.796   6.129
 9312SOL    HW129833   7.640  14.845   6.154
 9312SOL    HW229834   7.760  14.850   6.062
 9313SOL     OW29835   2.630   5.101   7.761
 9313SOL    HW129836   2.710   5.051   7.772
 9313SOL    HW229837   2.618   5.146   7.844
 9314SOL     OW29838  12.502   7.818   6.796
 9314SOL    HW129839  12.425   7.761   6.799
 9314SOL    HW229840  12.575   7.758   6.778
 9315SOL     OW29841   0.441  11.675   4.473
 9315SOL    HW129842   0.499  11.751   4.482
 9315SOL    HW229843   0.481  11.608   4.527
 9316SOL     OW29844   1.704  11.202   2.097
 9316SOL    HW129845   1.780  11.150   2.072
 9316SOL    HW229846   1.696  11.192   2.191
 9317SOL     OW29847   1.242   1.667   3.612
 9317SOL    HW129848   1.203   1.743   3.568
 9317SOL    HW229849   1.296   1.705   3.681
 9318SOL     OW29850   1.256   2.279  14.311
 9318SOL    HW129851   1.283   2.208  14.252
 9318SOL    HW229852   1.239   2.236  14.395
 9319SOL     OW29853   2.984   0.796  13.682
 9319SOL    HW129854   2.954   0.729  13.744
 9319SOL    HW229855   3.069   0.765  13.651
 9320SOL     OW29856  11.811   6.394  10.518
 9320SOL    HW129857  11.748   6.375  10.587
 9320SOL    HW229858  11.888   6.426  10.563
 9321SOL     OW29859   3.966   2.577  13.479
 9321SOL    HW129860   4.054   2.594  13.514
 9321SOL    HW229861   3.940   2.494  13.520
 9322SOL     OW29862  13.712   5.435   4.503
 9322SOL    HW129863  13.750   5.506   4.553
 9322SOL    HW229864  13.786   5.393   4.459
 9323SOL     OW29865  12.630  10.024   8.363
 9323SOL    HW129866  12.635  10.093   8.429
 9323SOL    HW229867  12.605  10.071   8.283
 9324SOL     OW29868  12.059   0.450   9.606
 9324SOL    HW129869  12.019   0.412   9.528
 9324SOL    HW229870  12.153   0.436   9.594
 9325SOL     OW29871   1.235   2.990  13.821
 9325SOL    HW129872   1.251   3.070  13.871
 9325SOL    HW229873   1.314   2.937  13.835
 9326SOL     OW29874  13.582  11.109  10.405
 9326SOL    HW129875  13.536  11.033  10.440
 9326SOL    HW229876  13.513  11.162  10.364
 9327SOL     OW29877  12.363   5.247   9.334
 9327SOL    HW129878  12.440   5.268   9.282
 9327SOL    HW229879  12.289   5.265   9.277
 9328SOL     OW29880   5.503  12.410  12.599
 9328SOL    HW129881   5.473  12.384  12.686
 9328SOL    HW229882   5.461  12.347  12.540
 9329SOL     OW29883   1.052   4.426  12.857
 9329SOL    HW129884   1.136   4.419  12.811
 9329SOL    HW229885   0.987   4.403  12.790
 9330SOL     OW29886  14.085   8.684  14.044
 9330SOL    HW129887  14.042   8.722  14.120
 9330SOL    HW229888  14.102   8.593  14.067
 9331SOL     OW29889   9.213   0.119  11.287
 9331SOL    HW129890   9.197   0.033  11.325
 9331SOL    HW229891   9.154   0.125  11.213
 9332SOL     OW29892  11.269   1.230  14.171
 9332SOL    HW129893  11.277   1.135  14.163
 9332SOL    HW229894  11.210   1.243  14.246
 9333SOL     OW29895   3.609   9.397   6.037
 9333SOL    HW129896   3.552   9.417   5.963
 9333SOL    HW229897   3.680   9.460   6.030
 9334SOL     OW29898   9.788   0.657  14.603
 9334SOL    HW129899   9.874   0.614  14.598
 9334SOL    HW229900   9.726   0.585  14.618
 9335SOL     OW29901   1.042   2.287   5.165
 9335SOL    HW129902   1.108   2.295   5.234
 9335SOL    HW229903   1.078   2.224   5.104
 9336SOL     OW29904  13.782  14.670   3.604
 9336SOL    HW129905  13.822  14.678   3.691
 9336SOL    HW229906  13.856  14.674   3.544
 9337SOL     OW29907  11.334   2.769   9.123
 9337SOL    HW129908  11.273   2.841   9.107
 9337SOL    HW229909  11.279   2.690   9.118
 9338SOL     OW29910   9.076  14.223  14.235
 9338SOL    HW129911   9.103  14.159  14.301
 9338SOL    HW229912   9.023  14.174  14.173
 9339SOL     OW29913   7.846   7.608   5.247
 9339SOL    HW129914   7.938   7.628   5.260
 9339SOL    HW229915   7.845   7.540   5.180
 9340SOL     OW29916   9.546   1.271  14.370
 9340SOL    HW129917   9.582   1.349  14.327
 9340SOL    HW229918   9.555   1.289  14.463
 9341SOL     OW29919   8.566   4.124  13.995
 9341SOL    HW129920   8.497   4.082  13.943
 9341SOL    HW229921   8.613   4.051  14.036
 9342SOL     OW29922   0.971   4.084   1.986
 9342SOL    HW129923   1.053   4.134   1.980
 9342SOL    HW229924   0.965   4.058   2.078
 9343SOL     OW29925   7.546  10.345   7.639
 9343SOL    HW129926   7.583  10.392   7.564
 9343SOL    HW229927   7.455  10.329   7.615
 9344SOL     OW29928   9.188   2.934   3.547
 9344SOL    HW129929   9.143   2.932   3.631
 9344SOL    HW229930   9.220   3.023   3.538
 9345SOL     OW29931   1.370   6.418   5.626
 9345SOL    HW129932   1.447   6.377   5.665
 9345SOL    HW229933   1.298   6.397   5.686
 9346SOL     OW29934  13.214  13.283   7.268
 9346SOL    HW129935  13.146  13.264   7.203
 9346SOL    HW229936  13.268  13.204   7.269
 9347SOL     OW29937   9.058   6.956   5.381
 9347SOL    HW129938   9.076   7.026   5.444
 9347SOL    HW229939   8.978   6.984   5.337
 9348SOL     OW29940  11.395  12.858   7.722
 9348SOL    HW129941  11.362  12.939   7.762
 9348SOL    HW229942  11.490  12.873   7.712
 9349SOL     OW29943  11.741   0.557   6.784
 9349SOL    HW129944  11.698   0.504   6.851
 9349SOL    HW229945  11.726   0.510   6.702
 9350SOL     OW29946  14.680   7.181   3.912
 9350SOL    HW129947  14.724   7.150   3.991
 9350SOL    HW229948  14.638   7.104   3.874
 9351SOL     OW29949   6.710  11.563  10.209
 9351SOL    HW129950   6.624  11.553  10.168
 9351SOL    HW229951   6.691  11.565  10.303
 9352SOL     OW29952   4.733   2.573  10.677
 9352SOL    HW129953   4.706   2.493  10.723
 9352SOL    HW229954   4.749   2.636  10.747
 9353SOL     OW29955   5.255   7.514   3.620
 9353SOL    HW129956   5.173   7.554   3.647
 9353SOL    HW229957   5.291   7.575   3.555
 9354SOL     OW29958   7.818   1.402   4.339
 9354SOL    HW129959   7.725   1.424   4.330
 9354SOL    HW229960   7.859   1.484   4.367
 9355SOL     OW29961   9.706   1.964   7.567
 9355SOL    HW129962   9.789   1.955   7.614
 9355SOL    HW229963   9.659   1.883   7.585
 9356SOL     OW29964   4.080   6.527   4.461
 9356SOL    HW129965   4.076   6.589   4.388
 9356SOL    HW229966   4.030   6.451   4.431
 9357SOL     OW29967  12.939   5.375   3.972
 9357SOL    HW129968  12.845   5.384   3.985
 9357SOL    HW229969  12.977   5.447   4.022
 9358SOL     OW29970   6.624  14.366  13.555
 9358SOL    HW129971   6.670  14.283  13.543
 9358SOL    HW229972   6.562  14.369  13.482
 9359SOL     OW29973  10.529   7.956  11.684
 9359SOL    HW129974  10.570   8.033  11.646
 9359SOL    HW229975  10.436   7.965  11.662
 9360SOL     OW29976   9.200   9.290  12.578
 9360SOL    HW129977   9.159   9.368  12.616
 9360SOL    HW229978   9.211   9.312  12.485
 9361SOL     OW29979   5.242   8.928  14.144
 9361SOL    HW129980   5.166   8.981  14.168
 9361SOL    HW229981   5.207   8.860  14.087
 9362SOL     OW29982   2.431   2.289   8.346
 9362SOL    HW129983   2.516   2.304   8.388
 9362SOL    HW229984   2.441   2.205   8.300
 9363SOL     OW29985   4.780   6.146   4.068
 9363SOL    HW129986   4.760   6.182   3.982
 9363SOL    HW229987   4.723   6.195   4.128
 9364SOL     OW29988   7.199   8.944   0.203
 9364SOL    HW129989   7.285   8.919   0.237
 9364SOL    HW229990   7.137   8.889   0.251
 9365SOL     OW29991  13.962   7.504  11.214
 9365SOL    HW129992  13.869   7.485  11.227
 9365SOL    HW229993  13.969   7.599  11.228
 9366SOL     OW29994   0.010  10.137   2.030
 9366SOL    HW129995   0.086  10.116   1.977
 9366SOL    HW229996  14.872  10.232   2.022
 9367SOL     OW29997   2.057  11.763   0.742
 9367SOL    HW129998   2.032  11.698   0.808
 9367SOL    HW229999   2.124  11.816   0.786
 9368SOL     OW30000  10.628   8.498   8.837
 9368SOL    HW130001  10.566   8.527   8.769
 9368SOL    HW230002  10.700   8.459   8.788
 9369SOL     OW30003   9.482   0.031  14.321
 9369SOL    HW130004   9.405  14.865  14.362
 9369SOL    HW230005   9.491   0.117  14.363
 9370SOL     OW30006  14.262  11.426  10.208
 9370SOL    HW130007  14.268  11.459  10.119
 9370SOL    HW230008  14.254  11.331  10.197
 9371SOL     OW30009   8.508   2.038  12.842
 9371SOL    HW130010   8.553   1.984  12.777
 9371SOL    HW230011   8.420   2.050  12.806
 9372SOL     OW30012  10.521   3.067   0.654
 9372SOL    HW130013  10.585   3.003   0.684
 9372SOL    HW230014  10.527   3.064   0.559
 9373SOL     OW30015   3.033   6.579  13.077
 9373SOL    HW130016   2.951   6.618  13.046
 9373SOL    HW230017   3.094   6.653  13.079
 9374SOL     OW30018  12.157   2.726   2.623
 9374SOL    HW130019  12.172   2.820   2.614
 9374SOL    HW230020  12.223   2.686   2.566
 9375SOL     OW30021   8.581  11.085   5.352
 9375SOL    HW130022   8.669  11.047   5.354
 9375SOL    HW230023   8.591  11.163   5.297
 9376SOL     OW30024   0.655   8.369  11.474
 9376SOL    HW130025   0.604   8.322  11.408
 9376SOL    HW230026   0.591   8.395  11.540
 9377SOL     OW30027  11.749   2.580   1.563
 9377SOL    HW130028  11.771   2.651   1.623
 9377SOL    HW230029  11.797   2.602   1.482
 9378SOL     OW30030  11.518  13.513   8.524
 9378SOL    HW130031  11.552  13.601   8.536
 9378SOL    HW230032  11.483  13.489   8.610
 9379SOL     OW30033   5.015   8.684   2.177
 9379SOL    HW130034   5.106   8.658   2.191
 9379SOL    HW230035   4.974   8.675   2.263
 9380SOL     OW30036   0.113   6.097   1.871
 9380SOL    HW130037   0.100   6.180   1.916
 9380SOL    HW230038   0.024   6.064   1.856
 9381SOL     OW30039   2.702   7.581   8.778
 9381SOL    HW130040   2.624   7.537   8.744
 9381SOL    HW230041   2.731   7.525   8.850
 9382SOL     OW30042   2.460   8.883  10.783
 9382SOL    HW130043   2.476   8.789  10.778
 9382SOL    HW230044   2.522   8.915  10.848
 9383SOL     OW30045  14.125   5.412   7.711
 9383SOL    HW130046  14.150   5.470   7.783
 9383SOL    HW230047  14.075   5.469   7.652
 9384SOL     OW30048   2.146  12.373   5.625
 9384SOL    HW130049   2.155  12.304   5.559
 9384SOL    HW230050   2.159  12.328   5.708
 9385SOL     OW30051   3.017   2.074   7.084
 9385SOL    HW130052   3.050   2.161   7.060
 9385SOL    HW230053   3.073   2.048   7.157
 9386SOL     OW30054   7.730   6.812   6.899
 9386SOL    HW130055   7.725   6.840   6.991
 9386SOL    HW230056   7.664   6.864   6.854
 9387SOL     OW30057  13.511   6.237   2.922
 9387SOL    HW130058  13.561   6.165   2.961
 9387SOL    HW230059  13.574   6.310   2.917
 9388SOL     OW30060   2.730   6.976   5.631
 9388SOL    HW130061   2.681   7.033   5.690
 9388SOL    HW230062   2.799   6.938   5.685
 9389SOL     OW30063   0.756  13.292   1.983
 9389SOL    HW130064   0.785  13.257   2.067
 9389SOL    HW230065   0.836  13.323   1.941
 9390SOL     OW30066  12.894  14.542  11.096
 9390SOL    HW130067  12.809  14.516  11.133
 9390SOL    HW230068  12.894  14.638  11.103
 9391SOL     OW30069   3.648  11.156   7.986
 9391SOL    HW130070   3.617  11.244   8.009
 9391SOL    HW230071   3.722  11.172   7.927
 9392SOL     OW30072   4.851   7.879  13.274
 9392SOL    HW130073   4.874   7.926  13.354
 9392SOL    HW230074   4.813   7.797  13.304
 9393SOL     OW30075   6.350  12.997  14.251
 9393SOL    HW130076   6.322  13.079  14.293
 9393SOL    HW230077   6.443  13.009  14.235
 9394SOL     OW30078   3.274   8.746  13.892
 9394SOL    HW130079   3.196   8.797  13.869
 9394SOL    HW230080   3.273   8.743  13.988
 9395SOL     OW30081   0.666   7.321  10.181
 9395SOL    HW130082   0.670   7.284  10.269
 9395SOL    HW230083   0.707   7.254  10.125
 9396SOL     OW30084   4.031   3.169  11.957
 9396SOL    HW130085   4.096   3.164  12.027
 9396SOL    HW230086   3.947   3.166  12.003
 9397SOL     OW30087  11.205  11.395  13.444
 9397SOL    HW130088  11.208  11.488  13.422
 9397SOL    HW230089  11.114  11.379  13.467
 9398SOL     OW30090  12.302  14.189   8.672
 9398SOL    HW130091  12.383  14.231   8.641
 9398SOL    HW230092  12.234  14.222   8.613
 9399SOL     OW30093   8.411   1.209   8.857
 9399SOL    HW130094   8.410   1.115   8.843
 9399SOL    HW230095   8.440   1.219   8.947
 9400SOL     OW30096   2.431  14.478   7.329
 9400SOL    HW130097   2.498  14.409   7.332
 9400SOL    HW230098   2.441  14.518   7.243
 9401SOL     OW30099  13.101   8.752   9.965
 9401SOL    HW130100  13.133   8.806   9.893
 9401SOL    HW230101  13.074   8.815  10.032
 9402SOL     OW30102  12.627   6.321  10.534
 9402SOL    HW130103  12.615   6.251  10.597
 9402SOL    HW230104  12.562   6.387  10.558
 9403SOL     OW30105   6.133   8.386  11.423
 9403SOL    HW130106   6.158   8.410  11.334
 9403SOL    HW230107   6.150   8.292  11.429
 9404SOL     OW30108   3.438  11.736   4.192
 9404SOL    HW130109   3.424  11.652   4.237
 9404SOL    HW230110   3.360  11.748   4.138
 9405SOL     OW30111   1.562  12.761   6.314
 9405SOL    HW130112   1.534  12.737   6.226
 9405SOL    HW230113   1.581  12.678   6.358
 9406SOL     OW30114   0.071  14.594   5.092
 9406SOL    HW130115   0.007  14.652   5.051
 9406SOL    HW230116   0.144  14.591   5.029
 9407SOL     OW30117   7.543  10.653   0.215
 9407SOL    HW130118   7.529  10.566   0.176
 9407SOL    HW230119   7.565  10.634   0.307
 9408SOL     OW30120   6.480   3.051   1.485
 9408SOL    HW130121   6.441   2.988   1.546
 9408SOL    HW230122   6.405   3.090   1.440
 9409SOL     OW30123   1.067   9.442   0.679
 9409SOL    HW130124   0.994   9.500   0.654
 9409SOL    HW230125   1.111   9.423   0.596
 9410SOL     OW30126   4.174   1.356   2.932
 9410SOL    HW130127   4.106   1.289   2.930
 9410SOL    HW230128   4.252   1.310   2.961
 9411SOL     OW30129   7.344   1.221  13.289
 9411SOL    HW130130   7.424   1.217  13.237
 9411SOL    HW230131   7.274   1.207  13.225
 9412SOL     OW30132  12.049   9.890   7.758
 9412SOL    HW130133  12.124   9.871   7.814
 9412SOL    HW230134  11.981   9.920   7.818
 9413SOL     OW30135   4.849  12.457   0.399
 9413SOL    HW130136   4.806  12.399   0.336
 9413SOL    HW230137   4.778  12.487   0.456
 9414SOL     OW30138   1.511  14.705  13.729
 9414SOL    HW130139   1.465  14.786  13.754
 9414SOL    HW230140   1.583  14.699  13.791
 9415SOL     OW30141   4.961   4.442   6.386
 9415SOL    HW130142   4.998   4.464   6.300
 9415SOL    HW230143   5.022   4.378   6.422
 9416SOL     OW30144  12.740   4.260   7.187
 9416SOL    HW130145  12.676   4.302   7.130
 9416SOL    HW230146  12.764   4.328   7.250
 9417SOL     OW30147   6.106  12.290   0.305
 9417SOL    HW130148   6.139  12.210   0.345
 9417SOL    HW230149   6.017  12.299   0.339
 9418SOL     OW30150   8.905   7.420   8.831
 9418SOL    HW130151   8.885   7.408   8.924
 9418SOL    HW230152   9.001   7.410   8.826
 9419SOL     OW30153   0.628   0.827  12.176
 9419SOL    HW130154   0.587   0.889  12.235
 9419SOL    HW230155   0.700   0.789  12.226
 9420SOL     OW30156   4.363  10.297   0.933
 9420SOL    HW130157   4.272  10.276   0.955
 9420SOL    HW230158   4.415  10.240   0.990
 9421SOL     OW30159   4.319  12.046  10.788
 9421SOL    HW130160   4.279  12.003  10.863
 9421SOL    HW230161   4.257  12.033  10.717
 9422SOL     OW30162   4.532   3.891  13.795
 9422SOL    HW130163   4.590   3.918  13.865
 9422SOL    HW230164   4.590   3.870  13.722
 9423SOL     OW30165   3.223   7.601  13.421
 9423SOL    HW130166   3.175   7.542  13.480
 9423SOL    HW230167   3.315   7.589  13.445
 9424SOL     OW30168   7.270   8.609  13.732
 9424SOL    HW130169   7.325   8.619  13.654
 9424SOL    HW230170   7.266   8.514  13.745
 9425SOL     OW30171   4.096   7.584  14.466
 9425SOL    HW130172   4.051   7.525  14.526
 9425SOL    HW230173   4.083   7.545  14.379
 9426SOL     OW30174  11.972  11.612   8.243
 9426SOL    HW130175  12.021  11.641   8.320
 9426SOL    HW230176  11.897  11.671   8.239
 9427SOL     OW30177   6.467  12.111  11.511
 9427SOL    HW130178   6.554  12.103  11.551
 9427SOL    HW230179   6.469  12.196  11.467
 9428SOL     OW30180   3.346   5.871  10.205
 9428SOL    HW130181   3.291   5.793  10.206
 9428SOL    HW230182   3.323   5.915  10.123
 9429SOL     OW30183  13.182   4.107  13.156
 9429SOL    HW130184  13.178   4.162  13.234
 9429SOL    HW230185  13.172   4.018  13.189
 9430SOL     OW30186   5.731   2.587   9.325
 9430SOL    HW130187   5.654   2.639   9.347
 9430SOL    HW230188   5.792   2.603   9.397
 9431SOL     OW30189   3.129   0.185  14.605
 9431SOL    HW130190   3.152   0.189  14.698
 9431SOL    HW230191   3.149   0.095  14.580
 9432SOL     OW30192   7.162  14.196   8.360
 9432SOL    HW130193   7.164  14.137   8.284
 9432SOL    HW230194   7.167  14.137   8.436
 9433SOL     OW30195  10.830  12.860   1.973
 9433SOL    HW130196  10.870  12.946   1.984
 9433SOL    HW230197  10.895  12.799   2.007
 9434SOL     OW30198   5.241   5.244   6.396
 9434SOL    HW130199   5.311   5.254   6.461
 9434SOL    HW230200   5.187   5.172   6.429
 9435SOL     OW30201  11.629   1.017   3.030
 9435SOL    HW130202  11.589   1.004   3.116
 9435SOL    HW230203  11.621   0.932   2.986
 9436SOL     OW30204   8.962   4.294   5.444
 9436SOL    HW130205   8.890   4.340   5.487
 9436SOL    HW230206   8.924   4.209   5.418
 9437SOL     OW30207  14.553  12.623   8.161
 9437SOL    HW130208  14.504  12.586   8.088
 9437SOL    HW230209  14.498  12.693   8.195
 9438SOL     OW30210   7.217   4.783  12.426
 9438SOL    HW130211   7.272   4.730  12.485
 9438SOL    HW230212   7.248   4.873  12.438
 9439SOL     OW30213   3.340   8.405   1.832
 9439SOL    HW130214   3.398   8.433   1.761
 9439SOL    HW230215   3.398   8.379   1.903
 9440SOL     OW30216  12.637  13.400  10.733
 9440SOL    HW130217  12.651  13.352  10.651
 9440SOL    HW230218  12.562  13.456  10.717
 9441SOL     OW30219   8.781  14.860  12.928
 9441SOL    HW130220   8.705   0.025  12.974
 9441SOL    HW230221   8.749  14.841  12.840
 9442SOL     OW30222   8.932   2.283  10.162
 9442SOL    HW130223   8.996   2.215  10.186
 9442SOL    HW230224   8.847   2.242  10.178
 9443SOL     OW30225   9.710   4.744   8.050
 9443SOL    HW130226   9.676   4.818   8.000
 9443SOL    HW230227   9.671   4.753   8.136
 9444SOL     OW30228   5.775   9.343  12.668
 9444SOL    HW130229   5.837   9.414  12.653
 9444SOL    HW230230   5.746   9.355  12.759
 9445SOL     OW30231   2.377   4.258   5.197
 9445SOL    HW130232   2.282   4.245   5.195
 9445SOL    HW230233   2.411   4.192   5.136
 9446SOL     OW30234  13.572   7.234  12.931
 9446SOL    HW130235  13.550   7.208  12.842
 9446SOL    HW230236  13.488   7.237  12.977
 9447SOL     OW30237  13.945  10.279   8.305
 9447SOL    HW130238  14.010  10.220   8.344
 9447SOL    HW230239  13.918  10.235   8.224
 9448SOL     OW30240   3.622   8.952   2.988
 9448SOL    HW130241   3.630   9.012   2.914
 9448SOL    HW230242   3.675   8.993   3.058
 9449SOL     OW30243   9.594   5.463  10.047
 9449SOL    HW130244   9.516   5.433  10.093
 9449SOL    HW230245   9.633   5.383  10.011
 9450SOL     OW30246   4.200   9.758   5.421
 9450SOL    HW130247   4.294   9.742   5.434
 9450SOL    HW230248   4.194   9.853   5.407
 9451SOL     OW30249  12.559   5.909  10.059
 9451SOL    HW130250  12.501   5.847  10.015
 9451SOL    HW230251  12.540   5.993  10.017
 9452SOL     OW30252  10.731   7.355  11.373
 9452SOL    HW130253  10.752   7.263  11.384
 9452SOL    HW230254  10.776   7.398  11.446
 9453SOL     OW30255   5.137   6.005   3.420
 9453SOL    HW130256   5.151   6.048   3.335
 9453SOL    HW230257   5.080   6.065   3.468
 9454SOL     OW30258   7.483   2.325   8.029
 9454SOL    HW130259   7.520   2.413   8.027
 9454SOL    HW230260   7.544   2.271   7.979
 9455SOL     OW30261   4.828  14.144  12.696
 9455SOL    HW130262   4.882  14.119  12.771
 9455SOL    HW230263   4.778  14.065  12.675
 9456SOL     OW30264   7.175   0.093  10.813
 9456SOL    HW130265   7.094   0.047  10.790
 9456SOL    HW230266   7.154   0.140  10.893
 9457SOL     OW30267  13.540  10.616   2.812
 9457SOL    HW130268  13.609  10.646   2.752
 9457SOL    HW230269  13.587  10.567   2.880
 9458SOL     OW30270  11.350   3.930   0.479
 9458SOL    HW130271  11.427   3.890   0.440
 9458SOL    HW230272  11.327   3.874   0.553
 9459SOL     OW30273   9.176   9.815  11.513
 9459SOL    HW130274   9.238   9.851  11.450
 9459SOL    HW230275   9.228   9.755  11.566
 9460SOL     OW30276  14.415   2.872   0.443
 9460SOL    HW130277  14.473   2.821   0.500
 9460SOL    HW230278  14.343   2.812   0.422
 9461SOL     OW30279  13.245   9.635   5.424
 9461SOL    HW130280  13.304   9.601   5.357
 9461SOL    HW230281  13.159   9.635   5.383
 9462SOL     OW30282  12.929   2.980   8.706
 9462SOL    HW130283  12.910   3.036   8.631
 9462SOL    HW230284  13.024   2.977   8.711
 9463SOL     OW30285   8.547   4.253   3.855
 9463SOL    HW130286   8.563   4.312   3.781
 9463SOL    HW230287   8.612   4.279   3.920
 9464SOL     OW30288  11.800   0.200  14.723
 9464SOL    HW130289  11.743   0.253  14.667
 9464SOL    HW230290  11.842   0.138  14.664
 9465SOL     OW30291  10.793  12.355  14.694
 9465SOL    HW130292  10.819  12.373  14.784
 9465SOL    HW230293  10.875  12.362  14.644
 9466SOL     OW30294   8.885  10.242   9.909
 9466SOL    HW130295   8.809  10.213   9.960
 9466SOL    HW230296   8.888  10.182   9.834
 9467SOL     OW30297  10.694   5.307  11.110
 9467SOL    HW130298  10.723   5.356  11.033
 9467SOL    HW230299  10.710   5.366  11.184
 9468SOL     OW30300   7.323   1.437  10.764
 9468SOL    HW130301   7.397   1.385  10.731
 9468SOL    HW230302   7.253   1.373  10.778
 9469SOL     OW30303  12.715   4.560   8.730
 9469SOL    HW130304  12.800   4.598   8.709
 9469SOL    HW230305  12.735   4.488   8.790
 9470SOL     OW30306  13.103   6.379   9.065
 9470SOL    HW130307  13.188   6.335   9.060
 9470SOL    HW230308  13.061   6.341   9.142
 9471SOL     OW30309   8.534   7.247   6.829
 9471SOL    HW130310   8.449   7.263   6.869
 9471SOL    HW230311   8.521   7.269   6.736
 9472SOL     OW30312  10.240   5.734  10.093
 9472SOL    HW130313  10.178   5.802  10.066
 9472SOL    HW230314  10.262   5.687  10.013
 9473SOL     OW30315   7.134   5.409   6.604
 9473SOL    HW130316   7.185   5.483   6.636
 9473SOL    HW230317   7.123   5.427   6.510
 9474SOL     OW30318   3.229   8.724   0.953
 9474SOL    HW130319   3.174   8.661   0.905
 9474SOL    HW230320   3.174   8.750   1.027
 9475SOL     OW30321   0.985  13.713  14.180
 9475SOL    HW130322   1.039  13.678  14.109
 9475SOL    HW230323   0.896  13.689  14.156
 9476SOL     OW30324   3.704   3.957   9.241
 9476SOL    HW130325   3.649   4.011   9.184
 9476SOL    HW230326   3.744   3.893   9.183
 9477SOL     OW30327   6.435  11.806   3.308
 9477SOL    HW130328   6.397  11.871   3.367
 9477SOL    HW230329   6.482  11.746   3.366
 9478SOL     OW30330   4.066   6.500   6.189
 9478SOL    HW130331   4.032   6.552   6.263
 9478SOL    HW230332   4.149   6.543   6.166
 9479SOL     OW30333   9.068   1.794  11.959
 9479SOL    HW130334   9.150   1.821  12.001
 9479SOL    HW230335   9.037   1.721  12.014
 9480SOL     OW30336  12.176   9.035  13.637
 9480SOL    HW130337  12.193   8.987  13.718
 9480SOL    HW230338  12.107   9.098  13.660
 9481SOL     OW30339   9.489   7.539  11.911
 9481SOL    HW130340   9.394   7.536  11.915
 9481SOL    HW230341   9.516   7.577  11.994
 9482SOL     OW30342  11.836  11.271  14.429
 9482SOL    HW130343  11.824  11.319  14.511
 9482SOL    HW230344  11.931  11.256  14.423
 9483SOL     OW30345   8.761  13.668   2.145
 9483SOL    HW130346   8.712  13.597   2.104
 9483SOL    HW230347   8.774  13.639   2.235
 9484SOL     OW30348   5.345   8.734   3.270
 9484SOL    HW130349   5.378   8.816   3.306
 9484SOL    HW230350   5.362   8.669   3.339
 9485SOL     OW30351   7.387   9.806   7.901
 9485SOL    HW130352   7.410   9.714   7.915
 9485SOL    HW230353   7.392   9.818   7.806
 9486SOL     OW30354   7.320   3.086   3.545
 9486SOL    HW130355   7.370   3.090   3.626
 9486SOL    HW230356   7.285   3.175   3.534
 9487SOL     OW30357  13.569   0.952  11.888
 9487SOL    HW130358  13.639   0.902  11.931
 9487SOL    HW230359  13.488   0.914  11.922
 9488SOL     OW30360  13.022   9.239   7.796
 9488SOL    HW130361  13.051   9.288   7.719
 9488SOL    HW230362  12.935   9.274   7.815
 9489SOL     OW30363  13.267   8.747   2.207
 9489SOL    HW130364  13.296   8.659   2.183
 9489SOL    HW230365  13.339   8.804   2.180
 9490SOL     OW30366   0.918  11.747   5.011
 9490SOL    HW130367   0.942  11.823   5.064
 9490SOL    HW230368   0.960  11.763   4.926
 9491SOL     OW30369  12.943   6.205   0.487
 9491SOL    HW130370  13.010   6.208   0.418
 9491SOL    HW230371  12.884   6.134   0.460
 9492SOL     OW30372   6.357   9.976   4.593
 9492SOL    HW130373   6.290   9.963   4.660
 9492SOL    HW230374   6.424   9.911   4.613
 9493SOL     OW30375   8.082  13.267  12.130
 9493SOL    HW130376   8.177  13.263  12.133
 9493SOL    HW230377   8.063  13.334  12.063
 9494SOL     OW30378   2.846  12.465   7.167
 9494SOL    HW130379   2.845  12.474   7.262
 9494SOL    HW230380   2.838  12.554   7.133
 9495SOL     OW30381   1.619   6.450   7.009
 9495SOL    HW130382   1.565   6.473   6.933
 9495SOL    HW230383   1.681   6.522   7.016
 9496SOL     OW30384   9.423   3.299   2.961
 9496SOL    HW130385   9.431   3.348   3.042
 9496SOL    HW230386   9.488   3.229   2.967
 9497SOL     OW30387   7.015   9.339   2.583
 9497SOL    HW130388   6.978   9.334   2.671
 9497SOL    HW230389   7.095   9.286   2.587
 9498SOL     OW30390   9.511   1.720   8.866
 9498SOL    HW130391   9.558   1.641   8.894
 9498SOL    HW230392   9.463   1.694   8.788
 9499SOL     OW30393  14.600   2.273  11.424
 9499SOL    HW130394  14.626   2.200  11.482
 9499SOL    HW230395  14.609   2.237  11.336
 9500SOL     OW30396   7.994   6.359   9.972
 9500SOL    HW130397   8.089   6.368   9.970
 9500SOL    HW230398   7.966   6.376   9.882
 9501SOL     OW30399   1.417   3.330   5.005
 9501SOL    HW130400   1.343   3.269   5.001
 9501SOL    HW230401   1.472   3.294   5.075
 9502SOL     OW30402   2.894  14.527   0.101
 9502SOL    HW130403   2.835  14.464   0.144
 9502SOL    HW230404   2.918  14.485   0.019
 9503SOL     OW30405   2.707   3.656  10.424
 9503SOL    HW130406   2.746   3.652  10.511
 9503SOL    HW230407   2.735   3.739  10.388
 9504SOL     OW30408   7.075   2.614   5.192
 9504SOL    HW130409   7.170   2.627   5.194
 9504SOL    HW230410   7.044   2.651   5.274
 9505SOL     OW30411   3.440   9.602  10.357
 9505SOL    HW130412   3.369   9.538  10.358
 9505SOL    HW230413   3.407   9.675  10.410
 9506SOL     OW30414   6.457   0.764  11.984
 9506SOL    HW130415   6.398   0.700  12.023
 9506SOL    HW230416   6.545   0.733  12.006
 9507SOL     OW30417  12.203  14.742   1.308
 9507SOL    HW130418  12.241  14.656   1.326
 9507SOL    HW230419  12.245  14.801   1.371
 9508SOL     OW30420   7.639   1.325   3.067
 9508SOL    HW130421   7.590   1.390   3.117
 9508SOL    HW230422   7.607   1.335   2.977
 9509SOL     OW30423   8.434  13.383   8.742
 9509SOL    HW130424   8.442  13.381   8.647
 9509SOL    HW230425   8.356  13.332   8.761
 9510SOL     OW30426  13.384  11.046   0.958
 9510SOL    HW130427  13.335  11.069   0.879
 9510SOL    HW230428  13.316  11.024   1.022
 9511SOL     OW30429   3.811  12.042  12.829
 9511SOL    HW130430   3.869  12.105  12.787
 9511SOL    HW230431   3.829  12.052  12.923
 9512SOL     OW30432   9.066   0.682   4.266
 9512SOL    HW130433   9.094   0.745   4.332
 9512SOL    HW230434   9.144   0.668   4.212
 9513SOL     OW30435   4.549  10.201   3.333
 9513SOL    HW130436   4.564  10.285   3.289
 9513SOL    HW230437   4.454  10.193   3.339
 9514SOL     OW30438   2.154   3.685   1.457
 9514SOL    HW130439   2.177   3.610   1.401
 9514SOL    HW230440   2.195   3.666   1.541
 9515SOL     OW30441   5.835  13.052   8.570
 9515SOL    HW130442   5.800  12.966   8.549
 9515SOL    HW230443   5.761  13.112   8.556
 9516SOL     OW30444   0.080   0.817  10.979
 9516SOL    HW130445   0.059   0.866  11.059
 9516SOL    HW230446   0.165   0.776  10.997
 9517SOL     OW30447   7.788   5.510   6.767
 9517SOL    HW130448   7.784   5.447   6.839
 9517SOL    HW230449   7.701   5.508   6.729
 9518SOL     OW30450   9.207   8.418   7.027
 9518SOL    HW130451   9.272   8.465   6.974
 9518SOL    HW230452   9.125   8.463   7.009
 9519SOL     OW30453  12.057   7.674   9.376
 9519SOL    HW130454  12.074   7.622   9.454
 9519SOL    HW230455  11.964   7.694   9.380
 9520SOL     OW30456  12.806   2.040   4.719
 9520SOL    HW130457  12.726   2.019   4.768
 9520SOL    HW230458  12.851   2.105   4.773
 9521SOL     OW30459  14.089   9.211   6.259
 9521SOL    HW130460  14.123   9.206   6.169
 9521SOL    HW230461  14.096   9.303   6.282
 9522SOL     OW30462   1.138  13.988  13.635
 9522SOL    HW130463   1.109  13.905  13.598
 9522SOL    HW230464   1.224  13.969  13.672
 9523SOL     OW30465  12.712   7.884  13.443
 9523SOL    HW130466  12.770   7.956  13.418
 9523SOL    HW230467  12.648   7.923  13.502
 9524SOL     OW30468   4.247   9.841   2.043
 9524SOL    HW130469   4.285   9.786   1.975
 9524SOL    HW230470   4.163   9.801   2.063
 9525SOL     OW30471   5.822   2.459   2.223
 9525SOL    HW130472   5.823   2.462   2.127
 9525SOL    HW230473   5.905   2.418   2.246
 9526SOL     OW30474  12.951   2.035  12.024
 9526SOL    HW130475  12.949   2.095  12.099
 9526SOL    HW230476  12.897   1.961  12.051
 9527SOL     OW30477   5.432  14.028   8.872
 9527SOL    HW130478   5.464  13.940   8.854
 9527SOL    HW230479   5.505  14.071   8.919
 9528SOL     OW30480   7.738  10.378   1.344
 9528SOL    HW130481   7.652  10.420   1.354
 9528SOL    HW230482   7.801  10.448   1.360
 9529SOL     OW30483  11.032  11.344   8.532
 9529SOL    HW130484  11.030  11.415   8.595
 9529SOL    HW230485  11.079  11.380   8.456
 9530SOL     OW30486   2.157   9.587  11.187
 9530SOL    HW130487   2.082   9.646  11.192
 9530SOL    HW230488   2.231   9.645  11.170
 9531SOL     OW30489  12.155   8.901   3.138
 9531SOL    HW130490  12.122   8.824   3.185
 9531SOL    HW230491  12.097   8.972   3.166
 9532SOL     OW30492   1.694   3.174   7.490
 9532SOL    HW130493   1.646   3.137   7.564
 9532SOL    HW230494   1.785   3.182   7.521
 9533SOL     OW30495   4.645   1.292   7.281
 9533SOL    HW130496   4.685   1.231   7.343
 9533SOL    HW230497   4.719   1.339   7.243
 9534SOL     OW30498   9.143   9.704  11.201
 9534SOL    HW130499   9.219   9.760  11.215
 9534SOL    HW230500   9.070   9.751  11.241
 9535SOL     OW30501   4.937   8.354  10.536
 9535SOL    HW130502   4.928   8.260  10.547
 9535SOL    HW230503   4.874   8.391  10.599
 9536SOL     OW30504   4.134   2.169   4.983
 9536SOL    HW130505   4.067   2.130   5.039
 9536SOL    HW230506   4.154   2.100   4.919
 9537SOL     OW30507   1.584  14.580  12.135
 9537SOL    HW130508   1.628  14.632  12.068
 9537SOL    HW230509   1.491  14.582  12.110
 9538SOL     OW30510   2.828  12.722   7.782
 9538SOL    HW130511   2.771  12.734   7.859
 9538SOL    HW230512   2.770  12.733   7.707
 9539SOL     OW30513   9.192   2.143  13.257
 9539SOL    HW130514   9.156   2.116  13.341
 9539SOL    HW230515   9.225   2.232  13.273
 9540SOL     OW30516  11.393  12.253   5.033
 9540SOL    HW130517  11.401  12.302   5.114
 9540SOL    HW230518  11.315  12.289   4.990
 9541SOL     OW30519   2.915  14.261   8.392
 9541SOL    HW130520   2.962  14.217   8.463
 9541SOL    HW230521   2.827  14.276   8.428
 9542SOL     OW30522   6.081   8.092  12.076
 9542SOL    HW130523   6.058   8.158  12.141
 9542SOL    HW230524   6.011   8.097  12.011
 9543SOL     OW30525   2.906   1.041   1.399
 9543SOL    HW130526   2.939   0.961   1.440
 9543SOL    HW230527   2.957   1.111   1.440
 9544SOL     OW30528   5.065   3.934   1.282
 9544SOL    HW130529   5.021   4.018   1.289
 9544SOL    HW230530   5.029   3.882   1.354
 9545SOL     OW30531   7.088   0.564   5.290
 9545SOL    HW130532   7.001   0.574   5.249
 9545SOL    HW230533   7.090   0.631   5.358
 9546SOL     OW30534   8.754   4.891  11.457
 9546SOL    HW130535   8.848   4.906  11.451
 9546SOL    HW230536   8.739   4.869  11.549
 9547SOL     OW30537  13.042   7.729   2.752
 9547SOL    HW130538  12.989   7.808   2.758
 9547SOL    HW230539  12.986   7.667   2.703
 9548SOL     OW30540  13.912   1.568   7.113
 9548SOL    HW130541  13.991   1.611   7.145
 9548SOL    HW230542  13.913   1.481   7.154
 9549SOL     OW30543   4.987  12.299   5.226
 9549SOL    HW130544   4.908  12.347   5.204
 9549SOL    HW230545   4.980  12.283   5.321
 9550SOL     OW30546   1.888   7.438   9.418
 9550SOL    HW130547   1.942   7.359   9.418
 9550SOL    HW230548   1.951   7.510   9.423
 9551SOL     OW30549   7.504   0.352   8.715
 9551SOL    HW130550   7.572   0.385   8.773
 9551SOL    HW230551   7.436   0.419   8.717
 9552SOL     OW30552   2.740   5.576  12.111
 9552SOL    HW130553   2.763   5.661  12.074
 9552SOL    HW230554   2.645   5.574  12.112
 9553SOL     OW30555   4.561   2.740   9.372
 9553SOL    HW130556   4.469   2.717   9.358
 9553SOL    HW230557   4.603   2.656   9.392
 9554SOL     OW30558  12.447   3.854   2.692
 9554SOL    HW130559  12.427   3.901   2.611
 9554SOL    HW230560  12.503   3.781   2.664
 9555SOL     OW30561  13.071  10.887   5.465
 9555SOL    HW130562  13.145  10.906   5.408
 9555SOL    HW230563  13.109  10.888   5.553
 9556SOL     OW30564   2.714  10.183   6.014
 9556SOL    HW130565   2.661  10.212   5.941
 9556SOL    HW230566   2.692  10.243   6.086
 9557SOL     OW30567   5.204   0.209  12.250
 9557SOL    HW130568   5.273   0.219  12.184
 9557SOL    HW230569   5.202   0.294  12.294
 9558SOL     OW30570   5.935  12.176  13.518
 9558SOL    HW130571   5.984  12.115  13.462
 9558SOL    HW230572   5.885  12.230  13.458
 9559SOL     OW30573   3.766   3.707   3.238
 9559SOL    HW130574   3.810   3.651   3.174
 9559SOL    HW230575   3.711   3.765   3.185
 9560SOL     OW30576   6.352   0.302   3.560
 9560SOL    HW130577   6.332   0.246   3.635
 9560SOL    HW230578   6.387   0.243   3.494
 9561SOL     OW30579   9.497   1.531   0.056
 9561SOL    HW130580   9.457   1.564   0.137
 9561SOL    HW230581   9.428   1.477   0.016
 9562SOL     OW30582  12.530   5.629   8.721
 9562SOL    HW130583  12.618   5.611   8.753
 9562SOL    HW230584  12.480   5.550   8.744
 9563SOL     OW30585   0.166   9.142  12.609
 9563SOL    HW130586   0.233   9.163  12.674
 9563SOL    HW230587   0.160   9.047  12.610
 9564SOL     OW30588   8.056   4.173   2.649
 9564SOL    HW130589   7.981   4.195   2.594
 9564SOL    HW230590   8.020   4.121   2.720
 9565SOL     OW30591  12.460   0.962   0.805
 9565SOL    HW130592  12.548   0.974   0.770
 9565SOL    HW230593  12.473   0.949   0.899
 9566SOL     OW30594  11.016   5.044  13.027
 9566SOL    HW130595  10.931   5.056  12.984
 9566SOL    HW230596  11.067   4.990  12.967
 9567SOL     OW30597   9.865   9.646  10.887
 9567SOL    HW130598   9.926   9.631  10.815
 9567SOL    HW230599   9.795   9.582  10.874
 9568SOL     OW30600  11.776  13.872   4.005
 9568SOL    HW130601  11.740  13.852   4.091
 9568SOL    HW230602  11.839  13.802   3.988
 9569SOL     OW30603  14.027   4.709  14.470
 9569SOL    HW130604  14.044   4.673  14.383
 9569SOL    HW230605  14.039   4.803  14.460
 9570SOL     OW30606   7.296   9.273   1.851
 9570SOL    HW130607   7.365   9.290   1.915
 9570SOL    HW230608   7.322   9.322   1.773
 9571SOL     OW30609   9.108   9.063   8.621
 9571SOL    HW130610   9.048   8.989   8.607
 9571SOL    HW230611   9.057   9.127   8.670
 9572SOL     OW30612   3.155   6.982   5.055
 9572SOL    HW130613   3.074   6.952   5.013
 9572SOL    HW230614   3.125   7.025   5.135
 9573SOL     OW30615   4.526   6.945   2.219
 9573SOL    HW130616   4.565   7.032   2.223
 9573SOL    HW230617   4.590   6.888   2.262
 9574SOL     OW30618  10.634   5.924   8.834
 9574SOL    HW130619  10.554   5.944   8.882
 9574SOL    HW230620  10.694   5.890   8.901
 9575SOL     OW30621   5.160   3.320  10.762
 9575SOL    HW130622   5.167   3.392  10.700
 9575SOL    HW230623   5.249   3.310  10.797
 9576SOL     OW30624   1.363   3.034   2.610
 9576SOL    HW130625   1.286   3.069   2.566
 9576SOL    HW230626   1.385   2.955   2.559
 9577SOL     OW30627   3.085   1.519   7.915
 9577SOL    HW130628   3.108   1.549   7.827
 9577SOL    HW230629   2.992   1.497   7.909
 9578SOL     OW30630   5.102   6.558   4.808
 9578SOL    HW130631   5.007   6.563   4.797
 9578SOL    HW230632   5.132   6.649   4.810
 9579SOL     OW30633   1.054   2.560   8.742
 9579SOL    HW130634   1.134   2.611   8.755
 9579SOL    HW230635   1.073   2.504   8.667
 9580SOL     OW30636   7.006   2.363   2.950
 9580SOL    HW130637   7.000   2.340   2.857
 9580SOL    HW230638   6.927   2.326   2.989
 9581SOL     OW30639  12.775   3.247   0.313
 9581SOL    HW130640  12.864   3.213   0.325
 9581SOL    HW230641  12.718   3.176   0.344
 9582SOL     OW30642   8.982   3.183   4.269
 9582SOL    HW130643   8.909   3.181   4.332
 9582SOL    HW230644   8.996   3.092   4.245
 9583SOL     OW30645  13.909   5.616   4.477
 9583SOL    HW130646  13.997   5.604   4.442
 9583SOL    HW230647  13.905   5.557   4.552
 9584SOL     OW30648   1.790   3.392   7.131
 9584SOL    HW130649   1.747   3.395   7.217
 9584SOL    HW230650   1.771   3.478   7.092
 9585SOL     OW30651   6.563   1.767  12.070
 9585SOL    HW130652   6.531   1.764  11.980
 9585SOL    HW230653   6.644   1.716  12.069
 9586SOL     OW30654  11.916   8.283   2.688
 9586SOL    HW130655  11.928   8.194   2.721
 9586SOL    HW230656  11.888   8.271   2.597
 9587SOL     OW30657   8.464  12.086   0.747
 9587SOL    HW130658   8.462  12.174   0.710
 9587SOL    HW230659   8.539  12.087   0.807
 9588SOL     OW30660  11.950   3.631   9.420
 9588SOL    HW130661  11.885   3.649   9.488
 9588SOL    HW230662  11.913   3.559   9.369
 9589SOL     OW30663  11.788   3.810   3.773
 9589SOL    HW130664  11.694   3.793   3.783
 9589SOL    HW230665  11.807   3.879   3.836
 9590SOL     OW30666  13.296  10.482   2.544
 9590SOL    HW130667  13.259  10.522   2.623
 9590SOL    HW230668  13.327  10.556   2.492
 9591SOL     OW30669   4.729   7.463  12.292
 9591SOL    HW130670   4.786   7.522  12.242
 9591SOL    HW230671   4.660   7.439  12.230
 9592SOL     OW30672   2.826   9.364   8.897
 9592SOL    HW130673   2.735   9.355   8.868
 9592SOL    HW230674   2.851   9.452   8.870
 9593SOL     OW30675   8.223  13.707  14.734
 9593SOL    HW130676   8.272  13.787  14.751
 9593SOL    HW230677   8.238  13.652  14.811
 9594SOL     OW30678   2.491  12.044   4.948
 9594SOL    HW130679   2.488  12.139   4.960
 9594SOL    HW230680   2.431  12.009   5.014
 9595SOL     OW30681   9.612   9.901   3.550
 9595SOL    HW130682   9.608   9.972   3.487
 9595SOL    HW230683   9.521   9.884   3.574
 9596SOL     OW30684  13.439  10.009   4.751
 9596SOL    HW130685  13.476  10.070   4.814
 9596SOL    HW230686  13.391  10.064   4.689
 9597SOL     OW30687   8.347   0.403   1.166
 9597SOL    HW130688   8.371   0.482   1.118
 9597SOL    HW230689   8.274   0.429   1.222
 9598SOL     OW30690   8.457  13.446   4.490
 9598SOL    HW130691   8.532  13.500   4.465
 9598SOL    HW230692   8.401  13.504   4.542
 9599SOL     OW30693   0.487  14.284  10.491
 9599SOL    HW130694   0.547  14.209  10.484
 9599SOL    HW230695   0.544  14.360  10.499
 9600SOL     OW30696   2.494   9.907   1.986
 9600SOL    HW130697   2.564   9.885   1.924
 9600SOL    HW230698   2.437   9.966   1.937
 9601SOL     OW30699   5.951  10.312   7.838
 9601SOL    HW130700   5.989  10.273   7.917
 9601SOL    HW230701   5.951  10.240   7.774
 9602SOL     OW30702   1.344   8.329   3.298
 9602SOL    HW130703   1.388   8.253   3.335
 9602SOL    HW230704   1.362   8.400   3.360
 9603SOL     OW30705  11.854  11.153   2.066
 9603SOL    HW130706  11.798  11.117   1.997
 9603SOL    HW230707  11.807  11.231   2.097
 9604SOL     OW30708  13.165   6.729  13.360
 9604SOL    HW130709  13.190   6.755  13.449
 9604SOL    HW230710  13.074   6.757  13.352
 9605SOL     OW30711   5.697   4.035   9.409
 9605SOL    HW130712   5.655   3.949   9.407
 9605SOL    HW230713   5.635   4.092   9.364
 9606SOL     OW30714   6.453   7.714  12.303
 9606SOL    HW130715   6.361   7.730  12.283
 9606SOL    HW230716   6.478   7.786  12.361
 9607SOL     OW30717   1.125   2.068  10.908
 9607SOL    HW130718   1.104   2.146  10.856
 9607SOL    HW230719   1.138   2.102  10.996
 9608SOL     OW30720   2.144  10.835   6.988
 9608SOL    HW130721   2.218  10.774   6.991
 9608SOL    HW230722   2.178  10.913   6.945
 9609SOL     OW30723  12.627  13.822  11.754
 9609SOL    HW130724  12.710  13.780  11.736
 9609SOL    HW230725  12.567  13.787  11.688
 9610SOL     OW30726   6.859   3.202   3.933
 9610SOL    HW130727   6.863   3.133   3.867
 9610SOL    HW230728   6.791   3.261   3.902
 9611SOL     OW30729   3.612   0.886   5.240
 9611SOL    HW130730   3.587   0.810   5.187
 9611SOL    HW230731   3.531   0.937   5.248
 9612SOL     OW30732   2.162   8.495  14.078
 9612SOL    HW130733   2.196   8.571  14.125
 9612SOL    HW230734   2.136   8.434  14.148
 9613SOL     OW30735   7.153  11.387   6.169
 9613SOL    HW130736   7.199  11.304   6.182
 9613SOL    HW230737   7.087  11.367   6.102
 9614SOL     OW30738   3.094   3.098  12.454
 9614SOL    HW130739   3.088   3.088  12.549
 9614SOL    HW230740   3.187   3.110  12.437
 9615SOL     OW30741   6.410  11.265  12.363
 9615SOL    HW130742   6.471  11.265  12.290
 9615SOL    HW230743   6.447  11.327  12.426
 9616SOL     OW30744   1.468  10.142   3.550
 9616SOL    HW130745   1.518  10.150   3.631
 9616SOL    HW230746   1.396  10.083   3.573
 9617SOL     OW30747  11.712   3.552  12.144
 9617SOL    HW130748  11.712   3.568  12.239
 9617SOL    HW230749  11.803   3.564  12.117
 9618SOL     OW30750   6.378   8.773   7.033
 9618SOL    HW130751   6.418   8.719   7.102
 9618SOL    HW230752   6.321   8.713   6.985
 9619SOL     OW30753   2.291   3.249  12.647
 9619SOL    HW130754   2.370   3.210  12.609
 9619SOL    HW230755   2.291   3.339  12.616
 9620SOL     OW30756   2.316  13.348   0.227
 9620SOL    HW130757   2.297  13.260   0.196
 9620SOL    HW230758   2.236  13.398   0.208
 9621SOL     OW30759  13.765   1.306   4.399
 9621SOL    HW130760  13.816   1.380   4.366
 9621SOL    HW230761  13.790   1.233   4.342
 9622SOL     OW30762   0.402   4.880  13.608
 9622SOL    HW130763   0.409   4.962  13.559
 9622SOL    HW230764   0.467   4.822  13.568
 9623SOL     OW30765   1.680  12.791  12.670
 9623SOL    HW130766   1.702  12.760  12.583
 9623SOL    HW230767   1.750  12.853  12.692
 9624SOL     OW30768   6.062   2.778   3.872
 9624SOL    HW130769   5.987   2.720   3.859
 9624SOL    HW230770   6.031   2.846   3.931
 9625SOL     OW30771   7.444   7.898  11.207
 9625SOL    HW130772   7.439   7.806  11.232
 9625SOL    HW230773   7.370   7.939  11.252
 9626SOL     OW30774  14.562   9.904  10.088
 9626SOL    HW130775  14.528   9.815  10.077
 9626SOL    HW230776  14.657   9.895  10.083
 9627SOL     OW30777   2.684   9.696  12.036
 9627SOL    HW130778   2.630   9.626  12.074
 9627SOL    HW230779   2.773   9.673  12.060
 9628SOL     OW30780   4.990   7.086   7.535
 9628SOL    HW130781   4.979   7.009   7.592
 9628SOL    HW230782   4.975   7.160   7.593
 9629SOL     OW30783   2.562  13.901  11.338
 9629SOL    HW130784   2.632  13.944  11.387
 9629SOL    HW230785   2.526  13.970  11.283
 9630SOL     OW30786  12.102   3.507   0.822
 9630SOL    HW130787  12.030   3.444   0.830
 9630SOL    HW230788  12.181   3.456   0.841
 9631SOL     OW30789  12.453  11.258  14.663
 9631SOL    HW130790  12.464  11.212  14.580
 9631SOL    HW230791  12.542  11.270  14.696
 9632SOL     OW30792  11.492   5.824  10.413
 9632SOL    HW130793  11.436   5.748  10.429
 9632SOL    HW230794  11.570   5.788  10.372
 9633SOL     OW30795   0.941   7.814   8.430
 9633SOL    HW130796   0.878   7.882   8.406
 9633SOL    HW230797   0.915   7.787   8.518
 9634SOL     OW30798   8.284   4.340   6.475
 9634SOL    HW130799   8.214   4.405   6.472
 9634SOL    HW230800   8.258   4.273   6.412
 9635SOL     OW30801  12.872   7.748  11.938
 9635SOL    HW130802  12.888   7.765  11.845
 9635SOL    HW230803  12.777   7.756  11.948
 9636SOL     OW30804  13.762  12.274   8.272
 9636SOL    HW130805  13.770  12.368   8.261
 9636SOL    HW230806  13.845  12.247   8.312
 9637SOL     OW30807  13.863   0.142  10.037
 9637SOL    HW130808  13.892   0.223  10.080
 9637SOL    HW230809  13.941   0.112   9.989
 9638SOL     OW30810  11.690  12.860   9.822
 9638SOL    HW130811  11.693  12.833   9.913
 9638SOL    HW230812  11.782  12.866   9.796
 9639SOL     OW30813  10.194   0.188   5.285
 9639SOL    HW130814  10.203   0.192   5.190
 9639SOL    HW230815  10.256   0.120   5.312
 9640SOL     OW30816  13.265   4.359   4.460
 9640SOL    HW130817  13.275   4.423   4.531
 9640SOL    HW230818  13.245   4.412   4.383
 9641SOL     OW30819   3.124   3.291   7.503
 9641SOL    HW130820   3.035   3.320   7.519
 9641SOL    HW230821   3.175   3.330   7.573
 9642SOL     OW30822   7.676   6.810   7.722
 9642SOL    HW130823   7.726   6.800   7.640
 9642SOL    HW230824   7.594   6.764   7.705
 9643SOL     OW30825   2.857   6.752   2.957
 9643SOL    HW130826   2.812   6.780   2.877
 9643SOL    HW230827   2.822   6.664   2.973
 9644SOL     OW30828   3.149   5.039  14.131
 9644SOL    HW130829   3.149   5.106  14.199
 9644SOL    HW230830   3.058   5.034  14.102
 9645SOL     OW30831   9.399   2.413   7.305
 9645SOL    HW130832   9.326   2.425   7.366
 9645SOL    HW230833   9.400   2.319   7.287
 9646SOL     OW30834   5.215   2.317   7.059
 9646SOL    HW130835   5.273   2.273   7.120
 9646SOL    HW230836   5.236   2.410   7.069
 9647SOL     OW30837   1.023   9.538   8.630
 9647SOL    HW130838   0.932   9.511   8.642
 9647SOL    HW230839   1.047   9.502   8.544
 9648SOL     OW30840   1.470   4.924  12.855
 9648SOL    HW130841   1.503   4.964  12.775
 9648SOL    HW230842   1.511   4.837  12.857
 9649SOL     OW30843  12.464   3.833   5.902
 9649SOL    HW130844  12.384   3.802   5.860
 9649SOL    HW230845  12.455   3.807   5.993
 9650SOL     OW30846   3.227   1.243   1.208
 9650SOL    HW130847   3.296   1.180   1.191
 9650SOL    HW230848   3.156   1.218   1.149
 9651SOL     OW30849   5.877   3.993  14.353
 9651SOL    HW130850   5.871   3.915  14.408
 9651SOL    HW230851   5.946   4.046  14.393
 9652SOL     OW30852  12.109   4.317   9.371
 9652SOL    HW130853  12.170   4.388   9.390
 9652SOL    HW230854  12.091   4.325   9.278
 9653SOL     OW30855  14.268   2.480   6.472
 9653SOL    HW130856  14.275   2.416   6.401
 9653SOL    HW230857  14.256   2.564   6.427
 9654SOL     OW30858  13.318   2.879  13.315
 9654SOL    HW130859  13.316   2.783  13.315
 9654SOL    HW230860  13.411   2.901  13.306
 9655SOL     OW30861  11.998   6.043  10.331
 9655SOL    HW130862  11.915   6.082  10.303
 9655SOL    HW230863  12.065   6.090  10.280
 9656SOL     OW30864   6.502  10.735  11.363
 9656SOL    HW130865   6.501  10.643  11.336
 9656SOL    HW230866   6.595  10.755  11.374
 9657SOL     OW30867  12.076   9.751  13.219
 9657SOL    HW130868  12.077   9.662  13.256
 9657SOL    HW230869  12.020   9.743  13.141
 9658SOL     OW30870   9.427  13.395   5.141
 9658SOL    HW130871   9.383  13.426   5.220
 9658SOL    HW230872   9.465  13.474   5.103
 9659SOL     OW30873  12.057   3.349   9.162
 9659SOL    HW130874  11.969   3.334   9.195
 9659SOL    HW230875  12.103   3.266   9.177
 9660SOL     OW30876   2.276   3.010  11.871
 9660SOL    HW130877   2.250   3.101  11.856
 9660SOL    HW230878   2.259   2.995  11.964
 9661SOL     OW30879   6.062   1.526   6.364
 9661SOL    HW130880   6.026   1.604   6.321
 9661SOL    HW230881   6.154   1.547   6.378
 9662SOL     OW30882   5.146  12.014   0.805
 9662SOL    HW130883   5.240  12.015   0.787
 9662SOL    HW230884   5.135  11.946   0.871
 9663SOL     OW30885  12.102   4.133   7.007
 9663SOL    HW130886  12.085   4.069   6.938
 9663SOL    HW230887  12.198   4.144   7.008
 9664SOL     OW30888   2.762   6.514   6.792
 9664SOL    HW130889   2.703   6.575   6.747
 9664SOL    HW230890   2.703   6.461   6.847
 9665SOL     OW30891  14.380   7.624  11.868
 9665SOL    HW130892  14.371   7.640  11.774
 9665SOL    HW230893  14.464   7.664  11.891
 9666SOL     OW30894   5.476   1.884   9.165
 9666SOL    HW130895   5.571   1.889   9.151
 9666SOL    HW230896   5.464   1.916   9.255
 9667SOL     OW30897   7.863  13.417   2.878
 9667SOL    HW130898   7.861  13.366   2.797
 9667SOL    HW230899   7.771  13.440   2.893
 9668SOL     OW30900   6.953   3.519  11.009
 9668SOL    HW130901   6.948   3.428  10.980
 9668SOL    HW230902   7.046   3.533  11.027
 9669SOL     OW30903   6.811   0.111   2.008
 9669SOL    HW130904   6.789   0.193   1.963
 9669SOL    HW230905   6.893   0.083   1.967
 9670SOL     OW30906   5.420   0.608  14.802
 9670SOL    HW130907   5.482   0.541  14.771
 9670SOL    HW230908   5.335   0.578  14.771
 9671SOL     OW30909   2.732  12.195  13.097
 9671SOL    HW130910   2.772  12.282  13.098
 9671SOL    HW230911   2.644  12.209  13.132
 9672SOL     OW30912   4.313   9.780   9.449
 9672SOL    HW130913   4.392   9.727   9.444
 9672SOL    HW230914   4.254   9.742   9.385
 9673SOL     OW30915   7.059   9.984  12.312
 9673SOL    HW130916   7.103  10.068  12.327
 9673SOL    HW230917   7.078   9.933  12.391
 9674SOL     OW30918   6.715  12.333   1.352
 9674SOL    HW130919   6.792  12.382   1.382
 9674SOL    HW230920   6.650  12.401   1.334
 9675SOL     OW30921   9.366   6.527   5.075
 9675SOL    HW130922   9.293   6.496   5.128
 9675SOL    HW230923   9.360   6.477   4.993
 9676SOL     OW30924  10.753   0.642  10.465
 9676SOL    HW130925  10.711   0.639  10.379
 9676SOL    HW230926  10.745   0.552  10.498
 9677SOL     OW30927   5.525   5.368   0.245
 9677SOL    HW130928   5.447   5.367   0.300
 9677SOL    HW230929   5.495   5.396   0.159
 9678SOL     OW30930   4.681  11.104  13.279
 9678SOL    HW130931   4.664  11.196  13.260
 9678SOL    HW230932   4.715  11.068  13.197
 9679SOL     OW30933   2.576   8.326   5.921
 9679SOL    HW130934   2.555   8.383   5.994
 9679SOL    HW230935   2.498   8.326   5.866
 9680SOL     OW30936  10.682   5.682  10.371
 9680SOL    HW130937  10.740   5.705  10.444
 9680SOL    HW230938  10.636   5.603  10.401
 9681SOL     OW30939   1.588   6.230   1.173
 9681SOL    HW130940   1.631   6.270   1.098
 9681SOL    HW230941   1.604   6.136   1.163
 9682SOL     OW30942   1.993   2.834  12.973
 9682SOL    HW130943   1.917   2.796  13.016
 9682SOL    HW230944   2.065   2.821  13.035
 9683SOL     OW30945   1.800   3.958   5.473
 9683SOL    HW130946   1.763   3.885   5.523
 9683SOL    HW230947   1.761   3.949   5.386
 9684SOL     OW30948  11.306   7.669   7.521
 9684SOL    HW130949  11.286   7.617   7.443
 9684SOL    HW230950  11.273   7.757   7.500
 9685SOL     OW30951   4.047  13.464   7.985
 9685SOL    HW130952   3.966  13.495   8.024
 9685SOL    HW230953   4.105  13.540   7.988
 9686SOL     OW30954   4.008  13.455   4.478
 9686SOL    HW130955   4.080  13.470   4.540
 9686SOL    HW230956   4.032  13.508   4.402
 9687SOL     OW30957  12.338   5.390   9.891
 9687SOL    HW130958  12.420   5.351   9.861
 9687SOL    HW230959  12.278   5.380   9.818
 9688SOL     OW30960  10.378  12.477  14.295
 9688SOL    HW130961  10.458  12.521  14.324
 9688SOL    HW230962  10.398  12.449  14.205
 9689SOL     OW30963  13.893   0.948   4.822
 9689SOL    HW130964  13.928   0.971   4.736
 9689SOL    HW230965  13.893   0.852   4.823
 9690SOL     OW30966   3.719  11.606   4.531
 9690SOL    HW130967   3.682  11.674   4.475
 9690SOL    HW230968   3.768  11.654   4.598
 9691SOL     OW30969  12.362  12.673  10.575
 9691SOL    HW130970  12.322  12.704  10.494
 9691SOL    HW230971  12.344  12.579  10.577
 9692SOL     OW30972  13.375   9.623   9.429
 9692SOL    HW130973  13.372   9.527   9.431
 9692SOL    HW230974  13.285   9.650   9.414
 9693SOL     OW30975   6.014   0.201   6.598
 9693SOL    HW130976   6.039   0.197   6.506
 9693SOL    HW230977   6.010   0.110   6.626
 9694SOL     OW30978   6.216  13.859  12.606
 9694SOL    HW130979   6.170  13.912  12.541
 9694SOL    HW230980   6.146  13.814  12.654
 9695SOL     OW30981  13.207   8.550  13.308
 9695SOL    HW130982  13.225   8.472  13.359
 9695SOL    HW230983  13.217   8.523  13.217
 9696SOL     OW30984  13.872   2.462   1.472
 9696SOL    HW130985  13.885   2.455   1.566
 9696SOL    HW230986  13.886   2.555   1.452
 9697SOL     OW30987  11.306   5.167   4.660
 9697SOL    HW130988  11.257   5.231   4.713
 9697SOL    HW230989  11.383   5.147   4.713
 9698SOL     OW30990   4.092  13.745   6.673
 9698SOL    HW130991   4.025  13.801   6.712
 9698SOL    HW230992   4.160  13.738   6.740
 9699SOL     OW30993   3.035   5.253   3.528
 9699SOL    HW130994   3.052   5.164   3.496
 9699SOL    HW230995   3.111   5.304   3.501
 9700SOL     OW30996   2.125   7.975   7.598
 9700SOL    HW130997   2.198   7.948   7.542
 9700SOL    HW230998   2.129   8.070   7.599
 9701SOL     OW30999   1.827  13.264   0.842
 9701SOL    HW131000   1.883  13.211   0.898
 9701SOL    HW231001   1.758  13.205   0.813
 9702SOL     OW31002  13.655   8.599   2.153
 9702SOL    HW131003  13.741   8.632   2.179
 9702SOL    HW231004  13.614   8.571   2.235
 9703SOL     OW31005  10.972   9.455   3.232
 9703SOL    HW131006  10.979   9.453   3.328
 9703SOL    HW231007  11.043   9.397   3.202
 9704SOL     OW31008   0.551  14.616   3.819
 9704SOL    HW131009   0.574  14.707   3.842
 9704SOL    HW231010   0.456  14.617   3.810
 9705SOL     OW31011   9.943   9.299  13.809
 9705SOL    HW131012   9.995   9.379  13.809
 9705SOL    HW231013   9.866   9.320  13.755
 9706SOL     OW31014  11.812  13.020  11.851
 9706SOL    HW131015  11.754  12.956  11.893
 9706SOL    HW231016  11.779  13.028  11.762
 9707SOL     OW31017   3.367   0.565   2.436
 9707SOL    HW131018   3.426   0.627   2.478
 9707SOL    HW231019   3.338   0.507   2.506
 9708SOL     OW31020   6.860   2.848   1.840
 9708SOL    HW131021   6.878   2.851   1.934
 9708SOL    HW231022   6.821   2.933   1.821
 9709SOL     OW31023   7.573   8.518   1.071
 9709SOL    HW131024   7.603   8.574   1.143
 9709SOL    HW231025   7.642   8.453   1.061
 9710SOL     OW31026  13.880   1.201   9.276
 9710SOL    HW131027  13.831   1.125   9.246
 9710SOL    HW231028  13.821   1.243   9.340
 9711SOL     OW31029   2.003   3.474   2.360
 9711SOL    HW131030   1.978   3.399   2.414
 9711SOL    HW231031   1.964   3.456   2.274
 9712SOL     OW31032   4.445   8.428   0.909
 9712SOL    HW131033   4.455   8.508   0.857
 9712SOL    HW231034   4.451   8.357   0.846
 9713SOL     OW31035   6.137   2.651   5.268
 9713SOL    HW131036   6.074   2.623   5.200
 9713SOL    HW231037   6.093   2.723   5.312
 9714SOL     OW31038   5.659   4.006   9.876
 9714SOL    HW131039   5.692   4.061   9.805
 9714SOL    HW231040   5.564   4.011   9.867
 9715SOL     OW31041  13.123   5.060  14.792
 9715SOL    HW131042  13.142   4.987  14.850
 9715SOL    HW231043  13.040   5.094  14.823
 9716SOL     OW31044   4.507  11.970   1.651
 9716SOL    HW131045   4.501  11.905   1.581
 9716SOL    HW231046   4.447  11.938   1.718
 9717SOL     OW31047   5.021   8.205  14.498
 9717SOL    HW131048   5.053   8.116  14.511
 9717SOL    HW231049   5.031   8.220  14.404
 9718SOL     OW31050   2.020   2.783   7.183
 9718SOL    HW131051   2.066   2.782   7.268
 9718SOL    HW231052   1.941   2.833   7.199
 9719SOL     OW31053   6.825  11.734   5.266
 9719SOL    HW131054   6.736  11.754   5.236
 9719SOL    HW231055   6.834  11.640   5.250
 9720SOL     OW31056   0.486   4.472  13.418
 9720SOL    HW131057   0.463   4.560  13.390
 9720SOL    HW231058   0.492   4.422  13.337
 9721SOL     OW31059  11.159  12.633   1.569
 9721SOL    HW131060  11.077  12.605   1.529
 9721SOL    HW231061  11.217  12.648   1.494
 9722SOL     OW31062   0.048  13.254  12.169
 9722SOL    HW131063   0.092  13.335  12.195
 9722SOL    HW231064   0.107  13.184  12.198
 9723SOL     OW31065   3.356   7.824  11.135
 9723SOL    HW131066   3.424   7.763  11.106
 9723SOL    HW231067   3.274   7.782  11.110
 9724SOL     OW31068  14.460  11.735   8.534
 9724SOL    HW131069  14.458  11.660   8.474
 9724SOL    HW231070  14.442  11.697   8.620
 9725SOL     OW31071   7.461  11.567   6.395
 9725SOL    HW131072   7.452  11.661   6.410
 9725SOL    HW231073   7.546  11.545   6.432
 9726SOL     OW31074   6.868   4.267   0.503
 9726SOL    HW131075   6.836   4.177   0.501
 9726SOL    HW231076   6.871   4.290   0.596
 9727SOL     OW31077  11.460   6.496  13.488
 9727SOL    HW131078  11.553   6.475  13.476
 9727SOL    HW231079  11.449   6.580  13.445
 9728SOL     OW31080  11.956  10.929   9.859
 9728SOL    HW131081  11.917  11.014   9.842
 9728SOL    HW231082  11.882  10.868   9.856
 9729SOL     OW31083   2.612  12.616  10.233
 9729SOL    HW131084   2.674  12.688  10.239
 9729SOL    HW231085   2.653  12.545  10.282
 9730SOL     OW31086  10.228   1.707   8.034
 9730SOL    HW131087  10.165   1.748   8.094
 9730SOL    HW231088  10.312   1.716   8.078
 9731SOL     OW31089   7.027   9.257   3.793
 9731SOL    HW131090   7.050   9.194   3.725
 9731SOL    HW231091   7.089   9.329   3.781
 9732SOL     OW31092   3.360   5.307   4.339
 9732SOL    HW131093   3.360   5.244   4.411
 9732SOL    HW231094   3.298   5.375   4.367
 9733SOL     OW31095  12.495  13.838  14.215
 9733SOL    HW131096  12.514  13.890  14.137
 9733SOL    HW231097  12.400  13.826  14.214
 9734SOL     OW31098  10.633   9.846  13.407
 9734SOL    HW131099  10.606   9.920  13.460
 9734SOL    HW231100  10.700   9.881  13.348
 9735SOL     OW31101   1.666   5.866  14.808
 9735SOL    HW131102   1.623   5.841  14.726
 9735SOL    HW231103   1.602   5.923  14.852
 9736SOL     OW31104   1.117   1.945   5.668
 9736SOL    HW131105   1.140   2.037   5.663
 9736SOL    HW231106   1.142   1.919   5.756
 9737SOL     OW31107   0.157  12.018   8.346
 9737SOL    HW131108   0.107  12.051   8.421
 9737SOL    HW231109   0.113  12.056   8.270
 9738SOL     OW31110   2.920   5.029   1.297
 9738SOL    HW131111   2.875   5.060   1.376
 9738SOL    HW231112   2.998   5.083   1.292
 9739SOL     OW31113   6.114  13.604   4.856
 9739SOL    HW131114   6.145  13.693   4.837
 9739SOL    HW231115   6.163  13.548   4.795
 9740SOL     OW31116   9.471   6.450   9.166
 9740SOL    HW131117   9.530   6.381   9.136
 9740SOL    HW231118   9.529   6.514   9.208
 9741SOL     OW31119  11.161   6.728   9.247
 9741SOL    HW131120  11.213   6.800   9.212
 9741SOL    HW231121  11.128   6.761   9.331
 9742SOL     OW31122   0.102  13.556   0.723
 9742SOL    HW131123   0.161  13.545   0.648
 9742SOL    HW231124   0.056  13.638   0.704
 9743SOL     OW31125  13.221   9.302   8.849
 9743SOL    HW131126  13.298   9.246   8.861
 9743SOL    HW231127  13.188   9.317   8.937
 9744SOL     OW31128   5.595   2.055   1.349
 9744SOL    HW131129   5.634   2.031   1.265
 9744SOL    HW231130   5.560   1.973   1.383
 9745SOL     OW31131   5.489  12.958   4.689
 9745SOL    HW131132   5.449  12.937   4.604
 9745SOL    HW231133   5.528  12.876   4.719
 9746SOL     OW31134   3.543   5.990   9.098
 9746SOL    HW131135   3.483   6.063   9.083
 9746SOL    HW231136   3.617   6.007   9.040
 9747SOL     OW31137  12.990  14.490  10.835
 9747SOL    HW131138  13.085  14.484  10.849
 9747SOL    HW231139  12.955  14.517  10.920
 9748SOL     OW31140   0.515   5.408  11.315
 9748SOL    HW131141   0.600   5.450  11.327
 9748SOL    HW231142   0.456   5.457  11.372
 9749SOL     OW31143   6.196   1.104   6.926
 9749SOL    HW131144   6.248   1.092   6.847
 9749SOL    HW231145   6.117   1.149   6.895
 9750SOL     OW31146  11.783   3.958   9.661
 9750SOL    HW131147  11.804   3.989   9.749
 9750SOL    HW231148  11.698   3.997   9.641
 9751SOL     OW31149  14.046  11.843   7.014
 9751SOL    HW131150  13.986  11.918   7.009
 9751SOL    HW231151  14.132  11.881   6.997
 9752SOL     OW31152   5.954   3.983   9.189
 9752SOL    HW131153   6.008   3.958   9.264
 9752SOL    HW231154   5.955   4.079   9.190
 9753SOL     OW31155   4.544   1.982   4.800
 9753SOL    HW131156   4.638   1.980   4.783
 9753SOL    HW231157   4.524   2.074   4.817
 9754SOL     OW31158  10.619  11.439   7.992
 9754SOL    HW131159  10.591  11.475   7.908
 9754SOL    HW231160  10.621  11.514   8.051
 9755SOL     OW31161   6.693   5.432   4.943
 9755SOL    HW131162   6.620   5.378   4.973
 9755SOL    HW231163   6.667   5.521   4.965
 9756SOL     OW31164  10.035  14.108   6.681
 9756SOL    HW131165   9.976  14.080   6.611
 9756SOL    HW231166   9.983  14.168   6.734
 9757SOL     OW31167   9.383   8.429   5.993
 9757SOL    HW131168   9.427   8.366   6.051
 9757SOL    HW231169   9.416   8.514   6.021
 9758SOL     OW31170  11.535  13.086   0.849
 9758SOL    HW131171  11.594  13.042   0.910
 9758SOL    HW231172  11.518  13.022   0.780
 9759SOL     OW31173  12.104   4.742  14.177
 9759SOL    HW131174  12.182   4.707  14.218
 9759SOL    HW231175  12.137   4.791  14.101
 9760SOL     OW31176   9.693   5.100   3.945
 9760SOL    HW131177   9.750   5.143   3.881
 9760SOL    HW231178   9.705   5.150   4.025
 9761SOL     OW31179   8.995   7.328   3.447
 9761SOL    HW131180   8.971   7.325   3.354
 9761SOL    HW231181   8.982   7.420   3.472
 9762SOL     OW31182   5.074   2.635   8.533
 9762SOL    HW131183   5.115   2.693   8.598
 9762SOL    HW231184   4.983   2.663   8.530
 9763SOL     OW31185   1.596   8.316   0.846
 9763SOL    HW131186   1.546   8.347   0.922
 9763SOL    HW231187   1.544   8.244   0.811
 9764SOL     OW31188   1.174  13.572   0.925
 9764SOL    HW131189   1.103  13.628   0.957
 9764SOL    HW231190   1.224  13.628   0.865
 9765SOL     OW31191   5.483   6.499  11.337
 9765SOL    HW131192   5.477   6.494  11.242
 9765SOL    HW231193   5.572   6.471  11.357
 9766SOL     OW31194   4.466   1.601   3.995
 9766SOL    HW131195   4.543   1.647   4.027
 9766SOL    HW231196   4.452   1.531   4.059
 9767SOL     OW31197   7.405   6.117  11.484
 9767SOL    HW131198   7.487   6.161  11.463
 9767SOL    HW231199   7.375   6.159  11.565
 9768SOL     OW31200   9.107   1.475  11.749
 9768SOL    HW131201   9.130   1.423  11.672
 9768SOL    HW231202   9.191   1.496  11.790
 9769SOL     OW31203   2.958  13.230   7.172
 9769SOL    HW131204   3.041  13.263   7.139
 9769SOL    HW231205   2.939  13.153   7.118
 9770SOL     OW31206  12.074   5.319  10.919
 9770SOL    HW131207  12.079   5.357  10.831
 9770SOL    HW231208  12.156   5.344  10.962
 9771SOL     OW31209   1.838  10.441   8.448
 9771SOL    HW131210   1.874  10.530   8.453
 9771SOL    HW231211   1.782  10.434   8.526
 9772SOL     OW31212  12.128   6.143   7.239
 9772SOL    HW131213  12.062   6.177   7.180
 9772SOL    HW231214  12.115   6.049   7.240
 9773SOL     OW31215  10.044   1.061   6.083
 9773SOL    HW131216  10.098   1.011   6.144
 9773SOL    HW231217   9.993   1.120   6.139
 9774SOL     OW31218  14.214  10.696   9.146
 9774SOL    HW131219  14.185  10.690   9.238
 9774SOL    HW231220  14.216  10.790   9.128
 9775SOL     OW31221  11.275   8.988   9.378
 9775SOL    HW131222  11.345   8.943   9.424
 9775SOL    HW231223  11.207   9.002   9.444
 9776SOL     OW31224   7.900   6.375   4.027
 9776SOL    HW131225   7.923   6.467   4.040
 9776SOL    HW231226   7.827   6.360   4.086
 9777SOL     OW31227   8.669  14.206  14.348
 9777SOL    HW131228   8.724  14.280  14.372
 9777SOL    HW231229   8.605  14.243  14.286
 9778SOL     OW31230   8.222   3.143   3.142
 9778SOL    HW131231   8.185   3.086   3.208
 9778SOL    HW231232   8.185   3.113   3.059
 9779SOL     OW31233  12.427  11.675   0.955
 9779SOL    HW131234  12.367  11.630   1.014
 9779SOL    HW231235  12.371  11.719   0.891
 9780SOL     OW31236   0.457   8.374   4.368
 9780SOL    HW131237   0.507   8.395   4.290
 9780SOL    HW231238   0.451   8.457   4.416
 9781SOL     OW31239   2.950   2.526   3.541
 9781SOL    HW131240   2.906   2.512   3.625
 9781SOL    HW231241   2.887   2.493   3.476
 9782SOL     OW31242   1.052   4.561   7.736
 9782SOL    HW131243   1.066   4.466   7.732
 9782SOL    HW231244   1.057   4.590   7.645
 9783SOL     OW31245   0.179  10.240   3.699
 9783SOL    HW131246   0.102  10.192   3.731
 9783SOL    HW231247   0.236  10.246   3.775
 9784SOL     OW31248   5.968   5.832  12.716
 9784SOL    HW131249   6.034   5.882  12.668
 9784SOL    HW231250   6.015   5.793  12.790
 9785SOL     OW31251   9.009   7.851   4.114
 9785SOL    HW131252   9.043   7.788   4.177
 9785SOL    HW231253   8.953   7.910   4.165
 9786SOL     OW31254   6.463   1.461  12.889
 9786SOL    HW131255   6.487   1.455  12.797
 9786SOL    HW231256   6.455   1.555  12.906
 9787SOL     OW31257   7.603   4.430   9.739
 9787SOL    HW131258   7.682   4.415   9.686
 9787SOL    HW231259   7.637   4.449   9.827
 9788SOL     OW31260   9.123   4.954   7.822
 9788SOL    HW131261   9.037   4.957   7.780
 9788SOL    HW231262   9.111   5.001   7.904
 9789SOL     OW31263   7.632   4.538   0.060
 9789SOL    HW131264   7.697   4.527  14.862
 9789SOL    HW231265   7.668   4.608   0.114
 9790SOL     OW31266   0.130   9.184  10.130
 9790SOL    HW131267   0.184   9.139  10.065
 9790SOL    HW231268   0.049   9.133  10.133
 9791SOL     OW31269  10.566   8.405  14.575
 9791SOL    HW131270  10.501   8.336  14.576
 9791SOL    HW231271  10.618   8.389  14.496
 9792SOL     OW31272   6.659  11.124  11.053
 9792SOL    HW131273   6.618  11.202  11.089
 9792SOL    HW231274   6.590  11.081  11.002
 9793SOL     OW31275   0.487   9.936   2.278
 9793SOL    HW131276   0.419   9.878   2.244
 9793SOL    HW231277   0.553   9.876   2.314
 9794SOL     OW31278   8.030   3.882   3.769
 9794SOL    HW131279   7.968   3.953   3.753
 9794SOL    HW231280   8.048   3.845   3.683
 9795SOL     OW31281  14.052   6.876  12.573
 9795SOL    HW131282  13.959   6.888  12.555
 9795SOL    HW231283  14.094   6.956  12.540
 9796SOL     OW31284   4.987   7.150  11.655
 9796SOL    HW131285   4.942   7.175  11.574
 9796SOL    HW231286   4.979   7.227  11.712
 9797SOL     OW31287   9.207   9.800   9.488
 9797SOL    HW131288   9.157   9.830   9.564
 9797SOL    HW231289   9.191   9.706   9.484
 9798SOL     OW31290   6.397   1.799   8.343
 9798SOL    HW131291   6.348   1.721   8.315
 9798SOL    HW231292   6.416   1.846   8.262
 9799SOL     OW31293   5.890   9.732   7.391
 9799SOL    HW131294   5.904   9.646   7.351
 9799SOL    HW231295   5.813   9.767   7.348
 9800SOL     OW31296   6.808   7.010  14.497
 9800SOL    HW131297   6.857   7.088  14.471
 9800SOL    HW231298   6.875   6.941  14.504
 9801SOL     OW31299   3.946  11.026   8.181
 9801SOL    HW131300   3.942  11.061   8.092
 9801SOL    HW231301   3.859  11.042   8.217
 9802SOL     OW31302   3.638  13.381   9.363
 9802SOL    HW131303   3.584  13.425   9.297
 9802SOL    HW231304   3.576  13.351   9.429
 9803SOL     OW31305   1.133   7.444  10.346
 9803SOL    HW131306   1.124   7.539  10.346
 9803SOL    HW231307   1.228   7.429  10.346
 9804SOL     OW31308   1.065  13.491   2.777
 9804SOL    HW131309   1.038  13.411   2.733
 9804SOL    HW231310   1.152  13.471   2.813
 9805SOL     OW31311   4.890   6.389   9.207
 9805SOL    HW131312   4.922   6.310   9.163
 9805SOL    HW231313   4.943   6.460   9.170
 9806SOL     OW31314   5.216   7.658   6.317
 9806SOL    HW131315   5.297   7.708   6.329
 9806SOL    HW231316   5.205   7.610   6.400
 9807SOL     OW31317  11.005   4.348   9.795
 9807SOL    HW131318  10.965   4.377   9.877
 9807SOL    HW231319  10.937   4.362   9.729
 9808SOL     OW31320  10.663  14.869   7.580
 9808SOL    HW131321  10.623   0.014   7.494
 9808SOL    HW231322  10.667   0.082   7.622
 9809SOL     OW31323   2.727   6.970  11.489
 9809SOL    HW131324   2.657   6.934  11.542
 9809SOL    HW231325   2.682   7.012  11.415
 9810SOL     OW31326   0.133  13.672   1.015
 9810SOL    HW131327   0.217  13.648   1.055
 9810SOL    HW231328   0.144  13.652   0.922
 9811SOL     OW31329   0.099  12.387  11.445
 9811SOL    HW131330   0.130  12.445  11.515
 9811SOL    HW231331   0.006  12.411  11.435
 9812SOL     OW31332   2.809   9.507   1.919
 9812SOL    HW131333   2.746   9.435   1.919
 9812SOL    HW231334   2.860   9.494   1.999
 9813SOL     OW31335   7.347  13.346   0.357
 9813SOL    HW131336   7.271  13.327   0.412
 9813SOL    HW231337   7.394  13.263   0.352
 9814SOL     OW31338   5.143  12.126  12.973
 9814SOL    HW131339   5.159  12.199  13.034
 9814SOL    HW231340   5.196  12.054  13.008
 9815SOL     OW31341   3.687   8.319   7.578
 9815SOL    HW131342   3.732   8.275   7.651
 9815SOL    HW231343   3.754   8.376   7.540
 9816SOL     OW31344  12.819   1.417   9.290
 9816SOL    HW131345  12.831   1.475   9.365
 9816SOL    HW231346  12.905   1.416   9.247
 9817SOL     OW31347   0.755   4.401   6.462
 9817SOL    HW131348   0.835   4.414   6.411
 9817SOL    HW231349   0.786   4.379   6.550
 9818SOL     OW31350   1.220   4.328   6.193
 9818SOL    HW131351   1.219   4.401   6.131
 9818SOL    HW231352   1.305   4.336   6.237
 9819SOL     OW31353   5.086  12.728   9.071
 9819SOL    HW131354   5.101  12.675   8.992
 9819SOL    HW231355   5.087  12.664   9.143
 9820SOL     OW31356  13.146   5.255  14.051
 9820SOL    HW131357  13.112   5.197  14.120
 9820SOL    HW231358  13.136   5.343  14.087
 9821SOL     OW31359   0.857   8.015   8.782
 9821SOL    HW131360   0.930   8.053   8.831
 9821SOL    HW231361   0.793   7.990   8.849
 9822SOL     OW31362  12.002   7.819   1.880
 9822SOL    HW131363  12.014   7.875   1.956
 9822SOL    HW231364  11.936   7.864   1.827
 9823SOL     OW31365   9.398  13.557  10.527
 9823SOL    HW131366   9.343  13.588  10.455
 9823SOL    HW231367   9.420  13.467  10.503
 9824SOL     OW31368   3.320   2.900   7.336
 9824SOL    HW131369   3.233   2.938   7.348
 9824SOL    HW231370   3.378   2.954   7.388
 9825SOL     OW31371   9.695   7.947   9.937
 9825SOL    HW131372   9.781   7.966   9.901
 9825SOL    HW231373   9.680   7.855   9.916
 9826SOL     OW31374   7.399   1.138   4.828
 9826SOL    HW131375   7.382   1.158   4.736
 9826SOL    HW231376   7.471   1.075   4.827
 9827SOL     OW31377   2.784   2.914   8.961
 9827SOL    HW131378   2.800   2.987   9.021
 9827SOL    HW231379   2.801   2.836   9.013
 9828SOL     OW31380   9.379   7.512   6.675
 9828SOL    HW131381   9.455   7.476   6.630
 9828SOL    HW231382   9.406   7.599   6.704
 9829SOL     OW31383   7.262  11.164   0.975
 9829SOL    HW131384   7.277  11.249   1.017
 9829SOL    HW231385   7.266  11.101   1.046
 9830SOL     OW31386   9.454   0.875   8.173
 9830SOL    HW131387   9.527   0.831   8.217
 9830SOL    HW231388   9.422   0.811   8.109
 9831SOL     OW31389   3.998   1.164   6.039
 9831SOL    HW131390   4.062   1.164   6.110
 9831SOL    HW231391   4.051   1.153   5.960
 9832SOL     OW31392  13.075   1.498  13.755
 9832SOL    HW131393  13.163   1.534  13.744
 9832SOL    HW231394  13.054   1.514  13.847
 9833SOL     OW31395  10.341   7.024  10.317
 9833SOL    HW131396  10.403   7.098  10.320
 9833SOL    HW231397  10.394   6.949  10.291
 9834SOL     OW31398   5.356   9.041   4.174
 9834SOL    HW131399   5.417   9.097   4.222
 9834SOL    HW231400   5.361   9.072   4.084
 9835SOL     OW31401  13.408  11.330  12.053
 9835SOL    HW131402  13.488  11.335  12.106
 9835SOL    HW231403  13.337  11.350  12.115
 9836SOL     OW31404   6.489  13.508   4.461
 9836SOL    HW131405   6.494  13.575   4.393
 9836SOL    HW231406   6.567  13.454   4.448
 9837SOL     OW31407   5.859  14.229   0.944
 9837SOL    HW131408   5.901  14.187   1.019
 9837SOL    HW231409   5.766  14.209   0.956
 9838SOL     OW31410   4.143   9.277   8.315
 9838SOL    HW131411   4.111   9.367   8.323
 9838SOL    HW231412   4.092   9.228   8.380
 9839SOL     OW31413   5.195  11.267  12.712
 9839SOL    HW131414   5.191  11.213  12.791
 9839SOL    HW231415   5.287  11.294  12.706
 9840SOL     OW31416   1.237   6.622   1.839
 9840SOL    HW131417   1.322   6.581   1.822
 9840SOL    HW231418   1.203   6.645   1.753
 9841SOL     OW31419  10.470  10.975   0.541
 9841SOL    HW131420  10.509  11.059   0.566
 9841SOL    HW231421  10.470  10.977   0.445
 9842SOL     OW31422   0.451   5.467   4.296
 9842SOL    HW131423   0.372   5.501   4.338
 9842SOL    HW231424   0.469   5.530   4.226
 9843SOL     OW31425   3.695  13.697  13.982
 9843SOL    HW131426   3.655  13.724  13.899
 9843SOL    HW231427   3.774  13.751  13.989
 9844SOL     OW31428   2.194  11.300   3.115
 9844SOL    HW131429   2.240  11.221   3.084
 9844SOL    HW231430   2.144  11.330   3.040
 9845SOL     OW31431   8.858   6.145   2.074
 9845SOL    HW131432   8.866   6.066   2.126
 9845SOL    HW231433   8.944   6.188   2.080
 9846SOL     OW31434   1.284   1.105   8.864
 9846SOL    HW131435   1.277   1.055   8.945
 9846SOL    HW231436   1.226   1.180   8.877
 9847SOL     OW31437   0.742   5.189   1.532
 9847SOL    HW131438   0.658   5.144   1.519
 9847SOL    HW231439   0.721   5.263   1.589
 9848SOL     OW31440   0.636   8.402  11.021
 9848SOL    HW131441   0.693   8.366  11.089
 9848SOL    HW231442   0.551   8.359  11.036
 9849SOL     OW31443   7.242   3.437   3.037
 9849SOL    HW131444   7.167   3.465   2.985
 9849SOL    HW231445   7.267   3.352   3.000
 9850SOL     OW31446   0.832   4.927   7.853
 9850SOL    HW131447   0.850   4.975   7.934
 9850SOL    HW231448   0.820   4.837   7.881
 9851SOL     OW31449  13.706   1.941   7.024
 9851SOL    HW131450  13.714   1.990   6.942
 9851SOL    HW231451  13.625   1.974   7.063
 9852SOL     OW31452   5.635   2.005   2.627
 9852SOL    HW131453   5.681   1.963   2.553
 9852SOL    HW231454   5.543   1.983   2.612
 9853SOL     OW31455  12.021   1.009   0.876
 9853SOL    HW131456  12.001   1.101   0.859
 9853SOL    HW231457  12.085   0.985   0.810
 9854SOL     OW31458   9.730   2.548   6.497
 9854SOL    HW131459   9.694   2.581   6.415
 9854SOL    HW231460   9.653   2.530   6.551
 9855SOL     OW31461  14.501   2.090  12.110
 9855SOL    HW131462  14.506   2.177  12.149
 9855SOL    HW231463  14.581   2.082  12.058
 9856SOL     OW31464   3.787   2.145  12.857
 9856SOL    HW131465   3.780   2.078  12.924
 9856SOL    HW231466   3.857   2.203  12.888
 9857SOL     OW31467  14.381  10.996   2.221
 9857SOL    HW131468  14.381  10.916   2.167
 9857SOL    HW231469  14.445  10.977   2.290
 9858SOL     OW31470   2.994  13.825  11.673
 9858SOL    HW131471   2.995  13.774  11.754
 9858SOL    HW231472   2.997  13.759  11.604
 9859SOL     OW31473  13.303   1.905  10.887
 9859SOL    HW131474  13.388   1.947  10.900
 9859SOL    HW231475  13.240   1.977  10.885
 9860SOL     OW31476   9.275  10.826   0.733
 9860SOL    HW131477   9.230  10.799   0.653
 9860SOL    HW231478   9.350  10.767   0.740
 9861SOL     OW31479  11.447  11.221   6.789
 9861SOL    HW131480  11.427  11.269   6.869
 9861SOL    HW231481  11.465  11.132   6.818
 9862SOL     OW31482   3.182   7.289  10.442
 9862SOL    HW131483   3.100   7.240  10.439
 9862SOL    HW231484   3.203   7.294  10.535
 9863SOL     OW31485   6.624   0.824  10.806
 9863SOL    HW131486   6.655   0.761  10.871
 9863SOL    HW231487   6.646   0.910  10.844
 9864SOL     OW31488  14.008   6.023  10.791
 9864SOL    HW131489  14.031   5.993  10.703
 9864SOL    HW231490  13.928   5.975  10.813
 9865SOL     OW31491  12.758   1.271   4.547
 9865SOL    HW131492  12.694   1.317   4.492
 9865SOL    HW231493  12.710   1.195   4.580
 9866SOL     OW31494  11.318  10.570   1.882
 9866SOL    HW131495  11.292  10.657   1.912
 9866SOL    HW231496  11.353  10.527   1.960
 9867SOL     OW31497   2.798  10.962   5.341
 9867SOL    HW131498   2.708  10.977   5.310
 9867SOL    HW231499   2.851  10.967   5.262
 9868SOL     OW31500   8.761   5.453   8.746
 9868SOL    HW131501   8.678   5.427   8.705
 9868SOL    HW231502   8.747   5.545   8.770
 9869SOL     OW31503   7.981   4.240  12.924
 9869SOL    HW131504   8.006   4.235  13.016
 9869SOL    HW231505   7.980   4.150  12.894
 9870SOL     OW31506   0.084  12.326   9.689
 9870SOL    HW131507   0.175  12.354   9.688
 9870SOL    HW231508   0.037  12.394   9.641
 9871SOL     OW31509  14.322   8.662   8.719
 9871SOL    HW131510  14.373   8.593   8.761
 9871SOL    HW231511  14.312   8.729   8.787
 9872SOL     OW31512   3.835   5.293   5.335
 9872SOL    HW131513   3.766   5.261   5.277
 9872SOL    HW231514   3.882   5.358   5.284
 9873SOL     OW31515   9.090  12.954   2.900
 9873SOL    HW131516   9.050  12.873   2.870
 9873SOL    HW231517   9.184  12.933   2.906
 9874SOL     OW31518   1.320   6.049  13.210
 9874SOL    HW131519   1.236   6.025  13.170
 9874SOL    HW231520   1.386   6.010  13.153
 9875SOL     OW31521   6.431   2.845   0.603
 9875SOL    HW131522   6.455   2.769   0.656
 9875SOL    HW231523   6.514   2.881   0.572
 9876SOL     OW31524   3.092  13.685  11.907
 9876SOL    HW131525   3.111  13.605  11.955
 9876SOL    HW231526   3.075  13.751  11.975
 9877SOL     OW31527  12.359   8.689   8.906
 9877SOL    HW131528  12.403   8.757   8.957
 9877SOL    HW231529  12.282   8.666   8.959
 9878SOL     OW31530   7.830   6.068  12.183
 9878SOL    HW131531   7.820   6.048  12.090
 9878SOL    HW231532   7.895   6.139  12.186
 9879SOL     OW31533   7.106  10.998  11.643
 9879SOL    HW131534   7.131  10.940  11.571
 9879SOL    HW231535   7.171  11.069  11.640
 9880SOL     OW31536   3.269   9.839  13.189
 9880SOL    HW131537   3.346   9.787  13.212
 9880SOL    HW231538   3.294   9.929  13.206
 9881SOL     OW31539  12.102   5.097  11.947
 9881SOL    HW131540  12.071   5.144  12.024
 9881SOL    HW231541  12.028   5.099  11.886
 9882SOL     OW31542   3.372   7.437   4.932
 9882SOL    HW131543   3.428   7.380   4.881
 9882SOL    HW231544   3.290   7.389   4.942
 9883SOL     OW31545   9.827   8.708  13.497
 9883SOL    HW131546   9.800   8.795  13.525
 9883SOL    HW231547   9.773   8.689  13.420
 9884SOL     OW31548   2.316   3.100  14.362
 9884SOL    HW131549   2.258   3.043  14.413
 9884SOL    HW231550   2.281   3.096  14.273
 9885SOL     OW31551   2.095   2.707  11.710
 9885SOL    HW131552   2.063   2.779  11.656
 9885SOL    HW231553   2.190   2.712  11.704
 9886SOL     OW31554   0.628  11.957   1.536
 9886SOL    HW131555   0.587  11.883   1.491
 9886SOL    HW231556   0.590  12.034   1.495
 9887SOL     OW31557  12.353   2.709   1.185
 9887SOL    HW131558  12.426   2.653   1.157
 9887SOL    HW231559  12.359   2.710   1.280
 9888SOL     OW31560   1.441   8.112   1.002
 9888SOL    HW131561   1.532   8.116   0.974
 9888SOL    HW231562   1.443   8.062   1.084
 9889SOL     OW31563   2.994  11.335   0.969
 9889SOL    HW131564   2.963  11.301   1.052
 9889SOL    HW231565   2.950  11.420   0.960
 9890SOL     OW31566   3.372   5.118   6.197
 9890SOL    HW131567   3.404   5.126   6.287
 9890SOL    HW231568   3.351   5.208   6.171
 9891SOL     OW31569   8.621  10.693   1.907
 9891SOL    HW131570   8.716  10.702   1.893
 9891SOL    HW231571   8.582  10.730   1.828
 9892SOL     OW31572   9.466  10.402  10.552
 9892SOL    HW131573   9.479  10.382  10.459
 9892SOL    HW231574   9.555  10.409  10.587
 9893SOL     OW31575  13.601   3.449   9.089
 9893SOL    HW131576  13.630   3.455   9.180
 9893SOL    HW231577  13.519   3.499   9.087
 9894SOL     OW31578  13.269  10.693   0.934
 9894SOL    HW131579  13.336  10.758   0.913
 9894SOL    HW231580  13.229  10.671   0.850
 9895SOL     OW31581   6.448   3.768   8.546
 9895SOL    HW131582   6.439   3.685   8.500
 9895SOL    HW231583   6.359   3.790   8.573
 9896SOL     OW31584   0.451   8.930   8.352
 9896SOL    HW131585   0.473   8.931   8.445
 9896SOL    HW231586   0.358   8.953   8.349
 9897SOL     OW31587   3.143  13.363   8.527
 9897SOL    HW131588   3.105  13.414   8.456
 9897SOL    HW231589   3.233  13.396   8.535
 9898SOL     OW31590   9.888   7.288   2.336
 9898SOL    HW131591   9.912   7.353   2.269
 9898SOL    HW231592   9.963   7.229   2.340
 9899SOL     OW31593   5.245   0.033   5.967
 9899SOL    HW131594   5.198  14.842   6.020
 9899SOL    HW231595   5.278  14.855   5.893
 9900SOL     OW31596   4.743  12.139   3.353
 9900SOL    HW131597   4.702  12.099   3.277
 9900SOL    HW231598   4.775  12.066   3.405
 9901SOL     OW31599  13.647   1.373   0.233
 9901SOL    HW131600  13.700   1.355   0.156
 9901SOL    HW231601  13.680   1.314   0.300
 9902SOL     OW31602   3.101   4.852   2.886
 9902SOL    HW131603   3.011   4.855   2.854
 9902SOL    HW231604   3.143   4.930   2.848
 9903SOL     OW31605  12.509   1.304   7.624
 9903SOL    HW131606  12.597   1.342   7.619
 9903SOL    HW231607  12.476   1.308   7.535
 9904SOL     OW31608   2.156   0.131   5.832
 9904SOL    HW131609   2.166   0.083   5.750
 9904SOL    HW231610   2.101   0.206   5.810
 9905SOL     OW31611   0.634  14.453   4.026
 9905SOL    HW131612   0.576  14.378   4.040
 9905SOL    HW231613   0.594  14.501   3.954
 9906SOL     OW31614  12.342   9.515   5.683
 9906SOL    HW131615  12.422   9.465   5.665
 9906SOL    HW231616  12.326   9.502   5.776
 9907SOL     OW31617   6.285   4.480   2.933
 9907SOL    HW131618   6.348   4.465   3.003
 9907SOL    HW231619   6.270   4.574   2.933
 9908SOL     OW31620   3.852  14.191   3.110
 9908SOL    HW131621   3.809  14.153   3.033
 9908SOL    HW231622   3.793  14.261   3.139
 9909SOL     OW31623   1.240   4.056   1.429
 9909SOL    HW131624   1.227   4.135   1.481
 9909SOL    HW231625   1.217   4.083   1.340
 9910SOL     OW31626  13.574   5.630  12.387
 9910SOL    HW131627  13.655   5.597  12.425
 9910SOL    HW231628  13.526   5.667  12.461
 9911SOL     OW31629   3.486   8.159   8.177
 9911SOL    HW131630   3.395   8.186   8.178
 9911SOL    HW231631   3.497   8.107   8.256
 9912SOL     OW31632   8.341   7.304  10.996
 9912SOL    HW131633   8.250   7.320  11.020
 9912SOL    HW231634   8.391   7.365  11.049
 9913SOL     OW31635   6.523  10.488   0.548
 9913SOL    HW131636   6.498  10.410   0.499
 9913SOL    HW231637   6.466  10.488   0.625
 9914SOL     OW31638  12.535   2.137   4.579
 9914SOL    HW131639  12.615   2.086   4.577
 9914SOL    HW231640  12.471   2.084   4.531
 9915SOL     OW31641  13.525   3.028   6.524
 9915SOL    HW131642  13.556   3.084   6.453
 9915SOL    HW231643  13.432   3.016   6.506
 9916SOL     OW31644   1.517  13.424   4.611
 9916SOL    HW131645   1.497  13.515   4.631
 9916SOL    HW231646   1.592  13.428   4.552
 9917SOL     OW31647  12.144  11.610  14.801
 9917SOL    HW131648  12.196  11.565  14.734
 9917SOL    HW231649  12.119  11.540  14.862
 9918SOL     OW31650   8.823   0.513  14.058
 9918SOL    HW131651   8.900   0.468  14.023
 9918SOL    HW231652   8.767   0.444  14.090
 9919SOL     OW31653   4.672   3.803   8.336
 9919SOL    HW131654   4.741   3.738   8.323
 9919SOL    HW231655   4.693   3.873   8.274
 9920SOL     OW31656   8.127   9.725   6.749
 9920SOL    HW131657   8.080   9.698   6.828
 9920SOL    HW231658   8.059   9.730   6.682
 9921SOL     OW31659   3.056  11.699   2.562
 9921SOL    HW131660   2.976  11.708   2.614
 9921SOL    HW231661   3.026  11.676   2.475
 9922SOL     OW31662  11.146  13.294  10.534
 9922SOL    HW131663  11.208  13.224  10.554
 9922SOL    HW231664  11.111  13.320  10.619
 9923SOL     OW31665   3.037   8.897   2.426
 9923SOL    HW131666   3.088   8.978   2.429
 9923SOL    HW231667   2.959   8.920   2.376
 9924SOL     OW31668   6.020  12.879  13.098
 9924SOL    HW131669   6.099  12.907  13.144
 9924SOL    HW231670   5.950  12.884  13.163
 9925SOL     OW31671  12.496   9.075   0.208
 9925SOL    HW131672  12.460   8.994   0.244
 9925SOL    HW231673  12.481   9.069   0.114
 9926SOL     OW31674   4.625   6.823  12.445
 9926SOL    HW131675   4.689   6.799  12.378
 9926SOL    HW231676   4.677   6.863  12.514
 9927SOL     OW31677   9.788  14.642   2.280
 9927SOL    HW131678   9.753  14.559   2.247
 9927SOL    HW231679   9.718  14.705   2.265
 9928SOL     OW31680  12.676  14.551  14.390
 9928SOL    HW131681  12.615  14.589  14.453
 9928SOL    HW231682  12.687  14.619  14.324
 9929SOL     OW31683   7.914   3.372  10.847
 9929SOL    HW131684   7.958   3.296  10.809
 9929SOL    HW231685   7.821   3.349  10.846
 9930SOL     OW31686   3.375  11.242   1.904
 9930SOL    HW131687   3.341  11.312   1.849
 9930SOL    HW231688   3.444  11.283   1.956
 9931SOL     OW31689   2.422   8.896   5.038
 9931SOL    HW131690   2.416   8.986   5.003
 9931SOL    HW231691   2.513   8.871   5.021
 9932SOL     OW31692   1.240   2.385   6.740
 9932SOL    HW131693   1.184   2.376   6.817
 9932SOL    HW231694   1.324   2.414   6.775
 9933SOL     OW31695  12.962  11.859  14.633
 9933SOL    HW131696  13.040  11.901  14.670
 9933SOL    HW231697  12.985  11.767  14.626
 9934SOL     OW31698  10.523   8.063   1.694
 9934SOL    HW131699  10.595   8.002   1.679
 9934SOL    HW231700  10.537   8.095   1.783
 9935SOL     OW31701   4.025   6.763   1.813
 9935SOL    HW131702   4.117   6.779   1.835
 9935SOL    HW231703   4.028   6.702   1.739
 9936SOL     OW31704   0.866  11.023   6.169
 9936SOL    HW131705   0.781  11.067   6.175
 9936SOL    HW231706   0.854  10.960   6.097
 9937SOL     OW31707  14.712   5.217   7.797
 9937SOL    HW131708  14.702   5.124   7.781
 9937SOL    HW231709  14.638   5.239   7.855
 9938SOL     OW31710  14.062  10.142  13.627
 9938SOL    HW131711  14.070  10.048  13.609
 9938SOL    HW231712  14.030  10.147  13.717
 9939SOL     OW31713   2.671   7.129   8.946
 9939SOL    HW131714   2.698   7.131   8.854
 9939SOL    HW231715   2.721   7.056   8.984
 9940SOL     OW31716   6.397   2.869  10.431
 9940SOL    HW131717   6.315   2.830  10.401
 9940SOL    HW231718   6.400   2.954  10.386
 9941SOL     OW31719  14.401   7.253   3.970
 9941SOL    HW131720  14.494   7.232   3.983
 9941SOL    HW231721  14.359   7.168   3.958
 9942SOL     OW31722   6.282   2.256  10.353
 9942SOL    HW131723   6.321   2.310  10.421
 9942SOL    HW231724   6.194   2.236  10.385
 9943SOL     OW31725  14.747   1.757  11.685
 9943SOL    HW131726  14.715   1.847  11.694
 9943SOL    HW231727  14.768   1.748  11.592
 9944SOL     OW31728   0.198   9.126  13.568
 9944SOL    HW131729   0.111   9.156  13.541
 9944SOL    HW231730   0.258   9.191  13.530
 9945SOL     OW31731   0.326   7.481   5.824
 9945SOL    HW131732   0.343   7.448   5.912
 9945SOL    HW231733   0.265   7.418   5.786
 9946SOL     OW31734   8.002  12.252   5.640
 9946SOL    HW131735   7.953  12.170   5.651
 9946SOL    HW231736   7.990  12.275   5.548
 9947SOL     OW31737   0.208   8.131   1.330
 9947SOL    HW131738   0.273   8.196   1.356
 9947SOL    HW231739   0.186   8.153   1.240
 9948SOL     OW31740  14.066   1.053   6.603
 9948SOL    HW131741  14.147   1.006   6.623
 9948SOL    HW231742  14.067   1.064   6.507
 9949SOL     OW31743  10.848   5.260  12.356
 9949SOL    HW131744  10.808   5.178  12.385
 9949SOL    HW231745  10.853   5.313  12.436
 9950SOL     OW31746   0.291  12.290   5.360
 9950SOL    HW131747   0.263  12.219   5.303
 9950SOL    HW231748   0.212  12.313   5.410
 9951SOL     OW31749   2.681   5.872   7.118
 9951SOL    HW131750   2.729   5.830   7.189
 9951SOL    HW231751   2.600   5.822   7.110
 9952SOL     OW31752   7.208  14.680  13.612
 9952SOL    HW131753   7.214  14.775  13.604
 9952SOL    HW231754   7.158  14.653  13.534
 9953SOL     OW31755   1.522  14.518   4.719
 9953SOL    HW131756   1.608  14.543   4.752
 9953SOL    HW231757   1.461  14.566   4.775
 9954SOL     OW31758  13.032   5.356   8.563
 9954SOL    HW131759  13.040   5.261   8.558
 9954SOL    HW231760  12.956   5.370   8.620
 9955SOL     OW31761   3.286  10.366   3.487
 9955SOL    HW131762   3.202  10.404   3.514
 9955SOL    HW231763   3.305  10.300   3.555
 9956SOL     OW31764   8.378  12.945  13.400
 9956SOL    HW131765   8.288  12.975  13.396
 9956SOL    HW231766   8.430  13.024  13.384
 9957SOL     OW31767   0.580  10.277  12.673
 9957SOL    HW131768   0.590  10.238  12.586
 9957SOL    HW231769   0.653  10.339  12.680
 9958SOL     OW31770   3.758  10.342  12.144
 9958SOL    HW131771   3.764  10.358  12.239
 9958SOL    HW231772   3.799  10.257  12.132
 9959SOL     OW31773   3.534   3.977   4.096
 9959SOL    HW131774   3.519   4.071   4.091
 9959SOL    HW231775   3.447   3.941   4.116
 9960SOL     OW31776   1.770   1.481   0.460
 9960SOL    HW131777   1.859   1.460   0.485
 9960SOL    HW231778   1.751   1.424   0.385
 9961SOL     OW31779   2.036  12.967  12.272
 9961SOL    HW131780   2.005  12.941  12.359
 9961SOL    HW231781   1.987  13.046  12.251
 9962SOL     OW31782  12.779   9.390  12.400
 9962SOL    HW131783  12.695   9.394  12.354
 9962SOL    HW231784  12.845   9.394  12.331
 9963SOL     OW31785   3.207   8.131   6.198
 9963SOL    HW131786   3.136   8.095   6.145
 9963SOL    HW231787   3.224   8.064   6.265
 9964SOL     OW31788   4.963   4.513   2.882
 9964SOL    HW131789   4.870   4.531   2.895
 9964SOL    HW231790   4.999   4.596   2.850
 9965SOL     OW31791   6.336   8.112  14.689
 9965SOL    HW131792   6.400   8.152  14.632
 9965SOL    HW231793   6.387   8.077  14.762
 9966SOL     OW31794  11.333  14.036   8.729
 9966SOL    HW131795  11.256  14.071   8.773
 9966SOL    HW231796  11.362  14.107   8.672
 9967SOL     OW31797  12.823   4.816   4.241
 9967SOL    HW131798  12.807   4.854   4.155
 9967SOL    HW231799  12.868   4.885   4.290
 9968SOL     OW31800   2.582  13.990   1.140
 9968SOL    HW131801   2.598  14.083   1.160
 9968SOL    HW231802   2.487  13.984   1.128
 9969SOL     OW31803   1.512  14.672  14.375
 9969SOL    HW131804   1.573  14.603  14.400
 9969SOL    HW231805   1.429  14.647  14.416
 9970SOL     OW31806  12.188   6.619   9.409
 9970SOL    HW131807  12.222   6.530   9.408
 9970SOL    HW231808  12.164   6.635   9.500
 9971SOL     OW31809   1.343  12.518   4.743
 9971SOL    HW131810   1.289  12.508   4.664
 9971SOL    HW231811   1.402  12.443   4.741
 9972SOL     OW31812   5.568   8.288   7.355
 9972SOL    HW131813   5.499   8.236   7.396
 9972SOL    HW231814   5.521   8.346   7.295
 9973SOL     OW31815   7.975   5.238   3.908
 9973SOL    HW131816   7.903   5.298   3.887
 9973SOL    HW231817   7.945   5.191   3.986
 9974SOL     OW31818   8.804   3.333   4.789
 9974SOL    HW131819   8.787   3.422   4.758
 9974SOL    HW231820   8.777   3.334   4.881
 9975SOL     OW31821  13.097   6.141   4.980
 9975SOL    HW131822  13.051   6.186   4.909
 9975SOL    HW231823  13.153   6.208   5.019
 9976SOL     OW31824   3.372   0.412   8.988
 9976SOL    HW131825   3.452   0.465   8.981
 9976SOL    HW231826   3.304   0.475   9.012
 9977SOL     OW31827   8.479   2.626   1.234
 9977SOL    HW131828   8.515   2.538   1.245
 9977SOL    HW231829   8.389   2.619   1.265
 9978SOL     OW31830  13.994  11.646   4.637
 9978SOL    HW131831  13.982  11.684   4.724
 9978SOL    HW231832  14.084  11.667   4.613
 9979SOL     OW31833   4.271  13.266  12.752
 9979SOL    HW131834   4.199  13.203  12.754
 9979SOL    HW231835   4.333  13.229  12.689
 9980SOL     OW31836   8.313   3.762   5.921
 9980SOL    HW131837   8.248   3.823   5.888
 9980SOL    HW231838   8.310   3.688   5.859
 9981SOL     OW31839   9.069   1.909   2.009
 9981SOL    HW131840   9.002   1.915   2.077
 9981SOL    HW231841   9.144   1.958   2.044
 9982SOL     OW31842   4.237   8.470   5.314
 9982SOL    HW131843   4.204   8.414   5.385
 9982SOL    HW231844   4.278   8.544   5.359
 9983SOL     OW31845   5.277  14.159   7.767
 9983SOL    HW131846   5.325  14.107   7.831
 9983SOL    HW231847   5.316  14.136   7.682
 9984SOL     OW31848  14.453   8.568  10.866
 9984SOL    HW131849  14.519   8.551  10.799
 9984SOL    HW231850  14.374   8.591  10.817
 9985SOL     OW31851   7.654  10.781  11.390
 9985SOL    HW131852   7.642  10.856  11.333
 9985SOL    HW231853   7.742  10.793  11.428
 9986SOL     OW31854   9.457  14.297   4.811
 9986SOL    HW131855   9.415  14.325   4.892
 9986SOL    HW231856   9.551  14.302   4.830
 9987SOL     OW31857   5.493  10.542   0.792
 9987SOL    HW131858   5.527  10.529   0.880
 9987SOL    HW231859   5.453  10.458   0.768
 9988SOL     OW31860  12.229  12.478   4.216
 9988SOL    HW131861  12.288  12.425   4.270
 9988SOL    HW231862  12.231  12.436   4.130
 9989SOL     OW31863   3.400   0.847   9.713
 9989SOL    HW131864   3.435   0.839   9.624
 9989SOL    HW231865   3.305   0.847   9.701
 9990SOL     OW31866   5.424   8.111   3.174
 9990SOL    HW131867   5.467   8.182   3.127
 9990SOL    HW231868   5.472   8.103   3.256
 9991SOL     OW31869   5.755   7.568   8.875
 9991SOL    HW131870   5.761   7.645   8.932
 9991SOL    HW231871   5.663   7.566   8.847
 9992SOL     OW31872   2.905   5.513   0.072
 9992SOL    HW131873   2.867   5.554  14.867
 9992SOL    HW231874   2.855   5.550   0.145
 9993SOL     OW31875  11.766   0.397  12.331
 9993SOL    HW131876  11.798   0.309  12.309
 9993SOL    HW231877  11.826   0.428  12.398
 9994SOL     OW31878   6.701  12.632  12.872
 9994SOL    HW131879   6.686  12.568  12.803
 9994SOL    HW231880   6.790  12.613  12.903
 9995SOL     OW31881   8.858  12.955   6.415
 9995SOL    HW131882   8.874  12.968   6.321
 9995SOL    HW231883   8.881  12.864   6.431
 9996SOL     OW31884  14.793   4.444  14.607
 9996SOL    HW131885  14.706   4.413  14.634
 9996SOL    HW231886  14.786   4.539  14.608
 9997SOL     OW31887   6.208   3.078  13.766
 9997SOL    HW131888   6.185   3.164  13.800
 9997SOL    HW231889   6.303   3.079  13.758
 9998SOL     OW31890  10.678   5.696   4.297
 9998SOL    HW131891  10.751   5.738   4.251
 9998SOL    HW231892  10.600   5.730   4.254
 9999SOL     OW31893   9.035   3.173   9.187
 9999SOL    HW131894   9.029   3.119   9.108
 9999SOL    HW231895   8.959   3.231   9.182
10000SOL     OW31896   3.584  11.691   5.622
10000SOL    HW131897   3.520  11.648   5.678
10000SOL    HW231898   3.669  11.672   5.662
10001SOL     OW31899   5.179  13.239  13.293
10001SOL    HW131900   5.261  13.282  13.266
10001SOL    HW231901   5.203  13.146  13.302
10002SOL     OW31902   3.441   4.870   9.599
10002SOL    HW131903   3.502   4.912   9.659
10002SOL    HW231904   3.423   4.937   9.533
10003SOL     OW31905   3.404   8.768   1.184
10003SOL    HW131906   3.355   8.748   1.104
10003SOL    HW231907   3.359   8.717   1.252
10004SOL     OW31908   5.442   7.299   7.882
10004SOL    HW131909   5.498   7.368   7.848
10004SOL    HW231910   5.402   7.337   7.960
10005SOL     OW31911   2.114   9.756  10.628
10005SOL    HW131912   2.173   9.831  10.629
10005SOL    HW231913   2.172   9.680  10.631
10006SOL     OW31914  12.485  14.584   2.536
10006SOL    HW131915  12.491  14.605   2.629
10006SOL    HW231916  12.574  14.595   2.503
10007SOL     OW31917  10.282  13.790  12.723
10007SOL    HW131918  10.265  13.746  12.806
10007SOL    HW231919  10.378  13.795  12.718
10008SOL     OW31920   1.207  11.880   1.873
10008SOL    HW131921   1.211  11.786   1.891
10008SOL    HW231922   1.273  11.918   1.931
10009SOL     OW31923   0.178   8.209   1.613
10009SOL    HW131924   0.213   8.297   1.623
10009SOL    HW231925   0.196   8.185   1.522
10010SOL     OW31926  12.812   4.980  10.625
10010SOL    HW131927  12.821   4.896  10.670
10010SOL    HW231928  12.865   5.041  10.677
10011SOL     OW31929   1.268   2.623  11.883
10011SOL    HW131930   1.243   2.655  11.796
10011SOL    HW231931   1.326   2.549  11.866
10012SOL     OW31932   0.241   0.039  10.288
10012SOL    HW131933   0.176   0.095  10.330
10012SOL    HW231934   0.204   0.018  10.203
10013SOL     OW31935  12.615   8.055  11.880
10013SOL    HW131936  12.702   8.018  11.868
10013SOL    HW231937  12.571   8.040  11.796
10014SOL     OW31938  13.864   8.606   6.675
10014SOL    HW131939  13.926   8.599   6.603
10014SOL    HW231940  13.866   8.520   6.717
10015SOL     OW31941  11.769   0.177   0.747
10015SOL    HW131942  11.808   0.134   0.823
10015SOL    HW231943  11.815   0.260   0.740
10016SOL     OW31944   9.389  12.156  13.990
10016SOL    HW131945   9.447  12.161  13.914
10016SOL    HW231946   9.374  12.062  14.002
10017SOL     OW31947   4.562  11.726   6.907
10017SOL    HW131948   4.470  11.739   6.930
10017SOL    HW231949   4.579  11.792   6.840
10018SOL     OW31950  14.790   7.178  11.510
10018SOL    HW131951  14.800   7.224  11.427
10018SOL    HW231952  14.727   7.230  11.559
10019SOL     OW31953   8.685  12.842  10.289
10019SOL    HW131954   8.776  12.835  10.260
10019SOL    HW231955   8.676  12.776  10.358
10020SOL     OW31956   4.886   3.848   4.199
10020SOL    HW131957   4.809   3.892   4.163
10020SOL    HW231958   4.901   3.890   4.284
10021SOL     OW31959   4.246   4.219   7.015
10021SOL    HW131960   4.219   4.306   7.045
10021SOL    HW231961   4.342   4.222   7.016
10022SOL     OW31962   0.630   8.826  10.719
10022SOL    HW131963   0.676   8.765  10.776
10022SOL    HW231964   0.584   8.885  10.779
10023SOL     OW31965   8.368   3.438   5.278
10023SOL    HW131966   8.284   3.453   5.234
10023SOL    HW231967   8.352   3.362   5.333
10024SOL     OW31968  11.687   7.055   5.530
10024SOL    HW131969  11.602   7.096   5.544
10024SOL    HW231970  11.738   7.077   5.608
10025SOL     OW31971   0.104   7.522   8.666
10025SOL    HW131972   0.080   7.586   8.599
10025SOL    HW231973   0.141   7.449   8.617
10026SOL     OW31974   3.522   6.530   9.047
10026SOL    HW131975   3.551   6.491   9.129
10026SOL    HW231976   3.475   6.609   9.073
10027SOL     OW31977  13.376  10.172   3.857
10027SOL    HW131978  13.395  10.253   3.809
10027SOL    HW231979  13.428  10.105   3.812
10028SOL     OW31980  11.594   7.856   4.098
10028SOL    HW131981  11.613   7.941   4.138
10028SOL    HW231982  11.657   7.848   4.027
10029SOL     OW31983   3.644  10.075  11.738
10029SOL    HW131984   3.601  10.098  11.656
10029SOL    HW231985   3.738  10.076  11.716
10030SOL     OW31986  11.093   3.740   1.704
10030SOL    HW131987  11.170   3.711   1.752
10030SOL    HW231988  11.036   3.777   1.772
10031SOL     OW31989   6.027   1.278  12.848
10031SOL    HW131990   6.070   1.192  12.848
10031SOL    HW231991   5.965   1.273  12.776
10032SOL     OW31992   1.492   6.768   6.580
10032SOL    HW131993   1.522   6.827   6.649
10032SOL    HW231994   1.515   6.814   6.499
10033SOL     OW31995  11.728  10.360   2.534
10033SOL    HW131996  11.700  10.277   2.495
10033SOL    HW231997  11.805  10.337   2.586
10034SOL     OW31998   0.672   5.302   2.172
10034SOL    HW131999   0.729   5.248   2.117
10034SOL    HW232000   0.726   5.377   2.196
10035SOL     OW32001   7.255  11.302   0.331
10035SOL    HW132002   7.288  11.392   0.332
10035SOL    HW232003   7.223  11.290   0.242
10036SOL     OW32004   7.377  11.984  10.148
10036SOL    HW132005   7.323  11.990  10.069
10036SOL    HW232006   7.379  11.891  10.169
10037SOL     OW32007   3.254  12.338  14.867
10037SOL    HW132008   3.166  12.301  14.872
10037SOL    HW232009   3.302  12.280  14.808
10038SOL     OW32010  11.617   7.225   7.194
10038SOL    HW132011  11.534   7.188   7.224
10038SOL    HW232012  11.633   7.299   7.253
10039SOL     OW32013  11.460   8.296   2.696
10039SOL    HW132014  11.544   8.273   2.734
10039SOL    HW232015  11.459   8.392   2.697
10040SOL     OW32016  13.456   6.156  14.326
10040SOL    HW132017  13.367   6.180  14.300
10040SOL    HW232018  13.453   6.061  14.336
10041SOL     OW32019  13.434  13.118  14.546
10041SOL    HW132020  13.514  13.066  14.553
10041SOL    HW232021  13.464  13.203  14.514
10042SOL     OW32022  14.301  13.525  12.736
10042SOL    HW132023  14.245  13.592  12.696
10042SOL    HW232024  14.241  13.459  12.769
10043SOL     OW32025  11.609  10.908   6.304
10043SOL    HW132026  11.549  10.868   6.242
10043SOL    HW232027  11.682  10.939   6.250
10044SOL     OW32028  10.360   9.823  13.338
10044SOL    HW132029  10.454   9.842  13.339
10044SOL    HW232030  10.354   9.728  13.345
10045SOL     OW32031   8.137   1.526   7.918
10045SOL    HW132032   8.159   1.440   7.882
10045SOL    HW232033   8.184   1.588   7.862
10046SOL     OW32034   1.495  14.792   9.285
10046SOL    HW132035   1.440  14.780   9.363
10046SOL    HW232036   1.494  14.707   9.242
10047SOL     OW32037   3.035   1.142   7.108
10047SOL    HW132038   3.032   1.047   7.095
10047SOL    HW232039   2.954   1.173   7.068
10048SOL     OW32040   5.136   0.253   0.715
10048SOL    HW132041   5.117   0.309   0.639
10048SOL    HW232042   5.201   0.191   0.682
10049SOL     OW32043   6.116   7.731   2.683
10049SOL    HW132044   6.106   7.659   2.621
10049SOL    HW232045   6.210   7.739   2.695
10050SOL     OW32046   7.295   0.547   8.723
10050SOL    HW132047   7.244   0.512   8.795
10050SOL    HW232048   7.237   0.609   8.680
10051SOL     OW32049   7.785  11.681  14.003
10051SOL    HW132050   7.785  11.686  13.908
10051SOL    HW232051   7.846  11.610  14.023
10052SOL     OW32052  13.623   8.788   9.556
10052SOL    HW132053  13.568   8.829   9.622
10052SOL    HW232054  13.596   8.696   9.556
10053SOL     OW32055   8.639   5.959   1.558
10053SOL    HW132056   8.693   5.886   1.586
10053SOL    HW232057   8.556   5.919   1.532
10054SOL     OW32058   4.960   3.275   3.126
10054SOL    HW132059   4.992   3.320   3.204
10054SOL    HW232060   5.038   3.269   3.070
10055SOL     OW32061   0.853   6.722  10.336
10055SOL    HW132062   0.860   6.775  10.256
10055SOL    HW232063   0.759   6.708  10.347
10056SOL     OW32064  12.881  13.902   1.496
10056SOL    HW132065  12.906  13.938   1.581
10056SOL    HW232066  12.963  13.903   1.445
10057SOL     OW32067  14.426  14.782  14.118
10057SOL    HW132068  14.364  14.766  14.190
10057SOL    HW232069  14.463  14.695  14.100
10058SOL     OW32070  11.862   0.732   6.288
10058SOL    HW132071  11.788   0.723   6.348
10058SOL    HW232072  11.937   0.752   6.345
10059SOL     OW32073  11.813  12.096   1.198
10059SOL    HW132074  11.848  12.007   1.205
10059SOL    HW232075  11.890  12.151   1.189
10060SOL     OW32076  13.470  10.859   8.850
10060SOL    HW132077  13.392  10.829   8.896
10060SOL    HW232078  13.536  10.869   8.918
10061SOL     OW32079  12.185   0.691  10.862
10061SOL    HW132080  12.208   0.762  10.922
10061SOL    HW232081  12.129   0.633  10.914
10062SOL     OW32082  13.860   1.709   5.737
10062SOL    HW132083  13.904   1.706   5.821
10062SOL    HW232084  13.887   1.793   5.698
10063SOL     OW32085  11.669   6.495   7.790
10063SOL    HW132086  11.575   6.505   7.802
10063SOL    HW232087  11.708   6.563   7.844
10064SOL     OW32088  14.762   7.074  12.978
10064SOL    HW132089  14.738   7.004  12.918
10064SOL    HW232090  14.681   7.124  12.990
10065SOL     OW32091   3.277   9.095   5.401
10065SOL    HW132092   3.194   9.141   5.398
10065SOL    HW232093   3.342   9.162   5.423
10066SOL     OW32094  12.461  13.415   8.737
10066SOL    HW132095  12.411  13.424   8.818
10066SOL    HW232096  12.552  13.407   8.765
10067SOL     OW32097   3.059   7.657   1.883
10067SOL    HW132098   3.079   7.639   1.791
10067SOL    HW232099   2.963   7.658   1.887
10068SOL     OW32100   8.734   4.695  13.904
10068SOL    HW132101   8.695   4.769  13.950
10068SOL    HW232102   8.706   4.706  13.813
10069SOL     OW32103   2.073   1.717   4.321
10069SOL    HW132104   2.048   1.674   4.240
10069SOL    HW232105   2.159   1.756   4.303
10070SOL     OW32106  14.705  14.233   4.141
10070SOL    HW132107  14.752  14.207   4.220
10070SOL    HW232108  14.745  14.182   4.071
10071SOL     OW32109   1.207   7.796   3.609
10071SOL    HW132110   1.294   7.803   3.570
10071SOL    HW232111   1.159   7.870   3.573
10072SOL     OW32112  13.824   5.604  12.502
10072SOL    HW132113  13.827   5.581  12.409
10072SOL    HW232114  13.835   5.521  12.548
10073SOL     OW32115   8.458   3.796   6.773
10073SOL    HW132116   8.533   3.815   6.717
10073SOL    HW232117   8.433   3.881   6.809
10074SOL     OW32118   7.955  13.514  13.356
10074SOL    HW132119   7.924  13.447  13.294
10074SOL    HW232120   8.034  13.550  13.315
10075SOL     OW32121   2.408   9.516   6.188
10075SOL    HW132122   2.377   9.551   6.272
10075SOL    HW232123   2.496   9.551   6.179
10076SOL     OW32124  12.556  11.667   5.325
10076SOL    HW132125  12.539  11.719   5.247
10076SOL    HW232126  12.567  11.732   5.395
10077SOL     OW32127   1.272   4.360   8.216
10077SOL    HW132128   1.324   4.342   8.138
10077SOL    HW232129   1.336   4.365   8.287
10078SOL     OW32130   4.157  12.322   7.488
10078SOL    HW132131   4.164  12.326   7.393
10078SOL    HW232132   4.220  12.255   7.514
10079SOL     OW32133   0.813   3.371  10.249
10079SOL    HW132134   0.727   3.341  10.219
10079SOL    HW232135   0.854   3.408  10.171
10080SOL     OW32136   3.073   8.527  11.987
10080SOL    HW132137   3.087   8.517  11.893
10080SOL    HW232138   3.022   8.450  12.012
10081SOL     OW32139   8.894  12.735   9.972
10081SOL    HW132140   8.959  12.762   9.907
10081SOL    HW232141   8.815  12.719   9.921
10082SOL     OW32142   8.561  14.050   6.929
10082SOL    HW132143   8.518  13.970   6.957
10082SOL    HW232144   8.491  14.103   6.891
10083SOL     OW32145   9.293  14.066   0.557
10083SOL    HW132146   9.324  14.145   0.514
10083SOL    HW232147   9.327  13.994   0.503
10084SOL     OW32148  11.713   2.205   6.965
10084SOL    HW132149  11.658   2.127   6.979
10084SOL    HW232150  11.667   2.274   7.011
10085SOL     OW32151   0.272  11.430   0.760
10085SOL    HW132152   0.213  11.450   0.832
10085SOL    HW232153   0.218  11.438   0.682
10086SOL     OW32154  12.178   1.657   6.024
10086SOL    HW132155  12.096   1.661   6.074
10086SOL    HW232156  12.243   1.699   6.080
10087SOL     OW32157  14.679   0.138   2.185
10087SOL    HW132158  14.756   0.150   2.130
10087SOL    HW232159  14.611   0.108   2.124
10088SOL     OW32160  11.561   4.185   9.803
10088SOL    HW132161  11.598   4.131   9.873
10088SOL    HW232162  11.477   4.215   9.838
10089SOL     OW32163  10.519  12.734   4.438
10089SOL    HW132164  10.441  12.773   4.398
10089SOL    HW232165  10.492  12.714   4.528
10090SOL     OW32166   0.420   6.983  12.643
10090SOL    HW132167   0.470   6.942  12.714
10090SOL    HW232168   0.456   6.944  12.564
10091SOL     OW32169   8.770   3.331  11.266
10091SOL    HW132170   8.863   3.339  11.288
10091SOL    HW232171   8.736   3.269  11.331
10092SOL     OW32172  13.416   9.013  14.549
10092SOL    HW132173  13.457   9.045  14.629
10092SOL    HW232174  13.328   9.051  14.550
10093SOL     OW32175  10.577   4.530  11.732
10093SOL    HW132176  10.605   4.564  11.647
10093SOL    HW232177  10.481   4.532  11.729
10094SOL     OW32178   2.477   6.955   5.419
10094SOL    HW132179   2.501   6.909   5.499
10094SOL    HW232180   2.382   6.954   5.418
10095SOL     OW32181  13.290   7.433   4.648
10095SOL    HW132182  13.302   7.437   4.743
10095SOL    HW232183  13.355   7.370   4.618
10096SOL     OW32184  14.482   9.499   1.726
10096SOL    HW132185  14.475   9.473   1.818
10096SOL    HW232186  14.558   9.558   1.724
10097SOL     OW32187   9.571  11.591   0.477
10097SOL    HW132188   9.539  11.502   0.486
10097SOL    HW232189   9.608  11.595   0.388
10098SOL     OW32190  13.559  12.477   5.083
10098SOL    HW132191  13.482  12.529   5.103
10098SOL    HW232192  13.603  12.525   5.012
10099SOL     OW32193   3.484  13.597   3.403
10099SOL    HW132194   3.449  13.540   3.472
10099SOL    HW232195   3.558  13.547   3.367
10100SOL     OW32196   9.610   7.312  10.080
10100SOL    HW132197   9.598   7.275  10.168
10100SOL    HW232198   9.617   7.236  10.023
10101SOL     OW32199   7.649   3.470   6.191
10101SOL    HW132200   7.650   3.446   6.099
10101SOL    HW232201   7.609   3.395   6.235
10102SOL     OW32202   7.050   4.304  10.970
10102SOL    HW132203   7.002   4.252  11.035
10102SOL    HW232204   7.123   4.342  11.018
10103SOL     OW32205   7.223   1.073   8.847
10103SOL    HW132206   7.272   1.123   8.782
10103SOL    HW232207   7.256   0.984   8.839
10104SOL     OW32208   0.979  12.531   6.155
10104SOL    HW132209   1.031  12.554   6.232
10104SOL    HW232210   0.963  12.437   6.164
10105SOL     OW32211   6.475  13.703   7.559
10105SOL    HW132212   6.390  13.714   7.516
10105SOL    HW232213   6.500  13.792   7.584
10106SOL     OW32214   1.398  11.157   1.107
10106SOL    HW132215   1.486  11.143   1.143
10106SOL    HW232216   1.385  11.252   1.109
10107SOL     OW32217   1.681   3.230   5.933
10107SOL    HW132218   1.618   3.276   5.989
10107SOL    HW232219   1.737   3.299   5.899
10108SOL     OW32220  11.407   4.084   8.261
10108SOL    HW132221  11.425   3.990   8.268
10108SOL    HW232222  11.374   4.109   8.347
10109SOL     OW32223  11.910   7.124   2.862
10109SOL    HW132224  11.907   7.139   2.768
10109SOL    HW232225  11.857   7.045   2.876
10110SOL     OW32226   6.495  12.797  11.190
10110SOL    HW132227   6.501  12.703  11.173
10110SOL    HW232228   6.401  12.814  11.194
10111SOL     OW32229   8.567   7.365  12.096
10111SOL    HW132230   8.593   7.386  12.007
10111SOL    HW232231   8.543   7.272  12.093
10112SOL     OW32232   0.890   1.785   0.836
10112SOL    HW132233   0.840   1.807   0.914
10112SOL    HW232234   0.885   1.864   0.782
10113SOL     OW32235  14.477   0.239  14.659
10113SOL    HW132236  14.554   0.251  14.714
10113SOL    HW232237  14.424   0.175  14.706
10114SOL     OW32238   7.295   8.909  14.621
10114SOL    HW132239   7.363   8.876  14.563
10114SOL    HW232240   7.338   8.976  14.674
10115SOL     OW32241   6.713   0.768  11.181
10115SOL    HW132242   6.768   0.694  11.204
10115SOL    HW232243   6.628   0.747  11.220
10116SOL     OW32244  11.365   6.237  12.570
10116SOL    HW132245  11.323   6.321  12.583
10116SOL    HW232246  11.329   6.181  12.639
10117SOL     OW32247   1.069   4.181   0.250
10117SOL    HW132248   1.086   4.275   0.246
10117SOL    HW232249   0.999   4.166   0.186
10118SOL     OW32250   9.078   4.204   8.505
10118SOL    HW132251   9.080   4.300   8.495
10118SOL    HW232252   9.031   4.190   8.587
10119SOL     OW32253   1.565   2.424   0.035
10119SOL    HW132254   1.640   2.409  14.850
10119SOL    HW232255   1.579   2.512   0.070
10120SOL     OW32256   2.334   2.087   1.915
10120SOL    HW132257   2.280   2.061   1.989
10120SOL    HW232258   2.366   2.175   1.938
10121SOL     OW32259   2.400   5.477  12.895
10121SOL    HW132260   2.476   5.471  12.839
10121SOL    HW232261   2.390   5.570  12.913
10122SOL     OW32262   0.655  14.421  11.324
10122SOL    HW132263   0.562  14.415  11.304
10122SOL    HW232264   0.659  14.419  11.420
10123SOL     OW32265  12.054  10.880   7.487
10123SOL    HW132266  12.045  10.890   7.392
10123SOL    HW232267  12.025  10.790   7.504
10124SOL     OW32268   5.569  11.463   3.463
10124SOL    HW132269   5.573  11.394   3.528
10124SOL    HW232270   5.605  11.540   3.507
10125SOL     OW32271   8.406   3.546   8.390
10125SOL    HW132272   8.320   3.509   8.371
10125SOL    HW232273   8.406   3.632   8.348
10126SOL     OW32274   5.052  12.012   5.746
10126SOL    HW132275   4.980  11.974   5.695
10126SOL    HW232276   5.013  12.089   5.788
10127SOL     OW32277   2.059   0.988   7.986
10127SOL    HW132278   1.993   0.945   8.040
10127SOL    HW232279   2.093   0.919   7.929
10128SOL     OW32280   1.890   7.468   0.712
10128SOL    HW132281   1.843   7.515   0.781
10128SOL    HW232282   1.964   7.428   0.758
10129SOL     OW32283   9.819   6.371   1.582
10129SOL    HW132284   9.773   6.453   1.563
10129SOL    HW232285   9.800   6.315   1.507
10130SOL     OW32286   0.133   5.601  10.387
10130SOL    HW132287   0.109   5.631  10.299
10130SOL    HW232288   0.129   5.681  10.441
10131SOL     OW32289  12.707   0.303   2.694
10131SOL    HW132290  12.688   0.274   2.783
10131SOL    HW232291  12.761   0.381   2.705
10132SOL     OW32292   1.952   1.884   0.808
10132SOL    HW132293   1.888   1.828   0.853
10132SOL    HW232294   1.925   1.881   0.716
10133SOL     OW32295  13.955   9.615   7.324
10133SOL    HW132296  14.004   9.588   7.247
10133SOL    HW232297  13.889   9.676   7.290
10134SOL     OW32298  12.286   8.425   2.275
10134SOL    HW132299  12.334   8.450   2.197
10134SOL    HW232300  12.353   8.402   2.339
10135SOL     OW32301   4.643   8.651  12.451
10135SOL    HW132302   4.636   8.558  12.474
10135SOL    HW232303   4.714   8.683  12.507
10136SOL     OW32304  12.355   7.515   1.854
10136SOL    HW132305  12.298   7.456   1.904
10136SOL    HW232306  12.397   7.569   1.920
10137SOL     OW32307  11.715   0.285   7.758
10137SOL    HW132308  11.673   0.323   7.836
10137SOL    HW232309  11.685   0.194   7.757
10138SOL     OW32310   4.595   1.392  13.306
10138SOL    HW132311   4.586   1.390  13.210
10138SOL    HW232312   4.650   1.469  13.323
10139SOL     OW32313   3.562   3.330  10.577
10139SOL    HW132314   3.518   3.350  10.495
10139SOL    HW232315   3.555   3.411  10.629
10140SOL     OW32316   8.702   3.352   1.556
10140SOL    HW132317   8.662   3.410   1.621
10140SOL    HW232318   8.655   3.270   1.565
10141SOL     OW32319   1.956   0.686   1.386
10141SOL    HW132320   1.877   0.670   1.438
10141SOL    HW232321   1.943   0.634   1.306
10142SOL     OW32322   6.351   3.298  11.084
10142SOL    HW132323   6.440   3.333  11.088
10142SOL    HW232324   6.295   3.370  11.113
10143SOL     OW32325  12.465  10.360   3.441
10143SOL    HW132326  12.384  10.410   3.433
10143SOL    HW232327  12.440  10.270   3.421
10144SOL     OW32328   4.557  14.604   8.402
10144SOL    HW132329   4.554  14.509   8.407
10144SOL    HW232330   4.638  14.628   8.449
10145SOL     OW32331   8.360  13.755   5.691
10145SOL    HW132332   8.417  13.679   5.694
10145SOL    HW232333   8.419  13.830   5.682
10146SOL     OW32334   6.197  10.619   6.632
10146SOL    HW132335   6.107  10.635   6.661
10146SOL    HW232336   6.194  10.636   6.538
10147SOL     OW32337   2.018   4.654  12.195
10147SOL    HW132338   2.110   4.643  12.171
10147SOL    HW232339   2.011   4.610  12.280
10148SOL     OW32340  12.448   6.760   4.620
10148SOL    HW132341  12.433   6.837   4.564
10148SOL    HW232342  12.538   6.770   4.651
10149SOL     OW32343   3.465   1.556   9.059
10149SOL    HW132344   3.409   1.559   9.137
10149SOL    HW232345   3.488   1.464   9.050
10150SOL     OW32346  11.546   5.735   0.338
10150SOL    HW132347  11.451   5.728   0.328
10150SOL    HW232348  11.581   5.670   0.278
10151SOL     OW32349   3.409   0.343   1.347
10151SOL    HW132350   3.428   0.402   1.274
10151SOL    HW232351   3.319   0.363   1.372
10152SOL     OW32352  13.873   5.481   2.158
10152SOL    HW132353  13.815   5.424   2.108
10152SOL    HW232354  13.946   5.425   2.185
10153SOL     OW32355   9.546   3.009  13.871
10153SOL    HW132356   9.634   3.040  13.848
10153SOL    HW232357   9.504   2.992  13.786
10154SOL     OW32358  10.588  10.488   0.376
10154SOL    HW132359  10.660  10.502   0.437
10154SOL    HW232360  10.536  10.568   0.381
10155SOL     OW32361   4.508   0.365   3.986
10155SOL    HW132362   4.418   0.384   4.011
10155SOL    HW232363   4.519   0.271   4.005
10156SOL     OW32364   5.846  12.357  11.389
10156SOL    HW132365   5.779  12.395  11.332
10156SOL    HW232366   5.832  12.263  11.382
10157SOL     OW32367   6.053   6.858   0.915
10157SOL    HW132368   6.107   6.908   0.977
10157SOL    HW232369   5.972   6.841   0.963
10158SOL     OW32370  11.590   2.084  14.747
10158SOL    HW132371  11.508   2.094  14.795
10158SOL    HW232372  11.566   2.096  14.655
10159SOL     OW32373   5.121  11.790   9.197
10159SOL    HW132374   5.037  11.760   9.162
10159SOL    HW232375   5.170  11.818   9.120
10160SOL     OW32376  14.059   8.000  12.210
10160SOL    HW132377  13.977   8.030  12.171
10160SOL    HW232378  14.037   7.916  12.251
10161SOL     OW32379  13.593  10.518   2.197
10161SOL    HW132380  13.609  10.550   2.286
10161SOL    HW232381  13.545  10.589   2.154
10162SOL     OW32382  11.993   4.444   0.350
10162SOL    HW132383  11.912   4.400   0.376
10162SOL    HW232384  12.061   4.406   0.406
10163SOL     OW32385   0.910  14.273   8.168
10163SOL    HW132386   0.908  14.362   8.131
10163SOL    HW232387   0.998  14.242   8.148
10164SOL     OW32388  11.075   1.382  14.751
10164SOL    HW132389  10.995   1.426  14.723
10164SOL    HW232390  11.054   1.289  14.744
10165SOL     OW32391  13.792  12.160  14.106
10165SOL    HW132392  13.778  12.176  14.012
10165SOL    HW232393  13.711  12.121  14.136
10166SOL     OW32394   9.383   8.100   1.694
10166SOL    HW132395   9.329   8.177   1.679
10166SOL    HW232396   9.369   8.079   1.787
10167SOL     OW32397  13.505   3.001  11.537
10167SOL    HW132398  13.423   3.007  11.585
10167SOL    HW232399  13.480   3.010  11.445
10168SOL     OW32400   5.589  11.697  11.030
10168SOL    HW132401   5.538  11.626  10.992
10168SOL    HW232402   5.664  11.708  10.972
10169SOL     OW32403   7.994  12.635   8.806
10169SOL    HW132404   7.932  12.693   8.762
10169SOL    HW232405   8.069  12.633   8.747
10170SOL     OW32406  11.742   3.192   4.000
10170SOL    HW132407  11.787   3.267   3.962
10170SOL    HW232408  11.708   3.225   4.084
10171SOL     OW32409  10.534   8.274   0.127
10171SOL    HW132410  10.440   8.265   0.110
10171SOL    HW232411  10.574   8.209   0.070
10172SOL     OW32412   0.659   7.051   4.864
10172SOL    HW132413   0.671   6.960   4.838
10172SOL    HW232414   0.586   7.049   4.926
10173SOL     OW32415   7.843  12.256   3.316
10173SOL    HW132416   7.895  12.312   3.374
10173SOL    HW232417   7.874  12.167   3.333
10174SOL     OW32418   6.197   5.731   3.197
10174SOL    HW132419   6.226   5.783   3.122
10174SOL    HW232420   6.124   5.781   3.234
10175SOL     OW32421  12.772  10.790  13.370
10175SOL    HW132422  12.828  10.838  13.432
10175SOL    HW232423  12.810  10.702  13.367
10176SOL     OW32424   7.085  14.771  12.640
10176SOL    HW132425   6.995  14.792  12.617
10176SOL    HW232426   7.081  14.743  12.732
10177SOL     OW32427  14.490   9.892   5.691
10177SOL    HW132428  14.451   9.805   5.685
10177SOL    HW232429  14.556   9.884   5.759
10178SOL     OW32430   9.245   5.936   1.371
10178SOL    HW132431   9.173   5.884   1.407
10178SOL    HW232432   9.268   5.890   1.290
10179SOL     OW32433  13.207   9.780   2.197
10179SOL    HW132434  13.130   9.788   2.140
10179SOL    HW232435  13.212   9.687   2.218
10180SOL     OW32436   1.090  11.000   1.908
10180SOL    HW132437   1.076  11.026   1.817
10180SOL    HW232438   1.185  10.997   1.918
10181SOL     OW32439   1.007   2.306   2.866
10181SOL    HW132440   0.989   2.337   2.955
10181SOL    HW232441   0.962   2.367   2.809
10182SOL     OW32442   0.922   0.121   4.050
10182SOL    HW132443   0.991   0.187   4.050
10182SOL    HW232444   0.962   0.045   4.092
10183SOL     OW32445   6.698   4.632  10.722
10183SOL    HW132446   6.682   4.717  10.681
10183SOL    HW232447   6.772   4.595  10.674
10184SOL     OW32448   7.077   7.318  14.716
10184SOL    HW132449   7.021   7.378  14.666
10184SOL    HW232450   7.054   7.334  14.807
10185SOL     OW32451   1.094   1.551   8.298
10185SOL    HW132452   1.183   1.560   8.332
10185SOL    HW232453   1.057   1.479   8.349
10186SOL     OW32454   2.184   7.203   5.565
10186SOL    HW132455   2.228   7.240   5.489
10186SOL    HW232456   2.245   7.216   5.637
10187SOL     OW32457   5.579  13.797   1.550
10187SOL    HW132458   5.508  13.838   1.501
10187SOL    HW232459   5.535  13.735   1.608
10188SOL     OW32460  11.501  10.802   7.409
10188SOL    HW132461  11.579  10.838   7.451
10188SOL    HW232462  11.534  10.728   7.358
10189SOL     OW32463  12.812   1.977  12.303
10189SOL    HW132464  12.904   1.993  12.324
10189SOL    HW232465  12.790   1.897  12.350
10190SOL     OW32466   4.138   3.936   8.010
10190SOL    HW132467   4.064   3.902   7.959
10190SOL    HW232468   4.159   4.020   7.970
10191SOL     OW32469   7.766   6.122  12.950
10191SOL    HW132470   7.813   6.073  13.018
10191SOL    HW232471   7.694   6.164  12.997
10192SOL     OW32472  11.816   1.998   9.170
10192SOL    HW132473  11.900   1.979   9.128
10192SOL    HW232474  11.840   2.044   9.251
10193SOL     OW32475   1.979  12.606   8.882
10193SOL    HW132476   1.983  12.696   8.914
10193SOL    HW232477   1.886  12.589   8.870
10194SOL     OW32478  12.270   6.100  14.677
10194SOL    HW132479  12.190   6.056  14.706
10194SOL    HW232480  12.250   6.132  14.589
10195SOL     OW32481   4.217   2.190   2.024
10195SOL    HW132482   4.310   2.184   2.047
10195SOL    HW232483   4.172   2.136   2.090
10196SOL     OW32484  10.929  13.397  10.402
10196SOL    HW132485  10.899  13.447  10.478
10196SOL    HW232486  11.009  13.354  10.432
10197SOL     OW32487   9.330  11.755   3.192
10197SOL    HW132488   9.265  11.776   3.259
10197SOL    HW232489   9.413  11.783   3.229
10198SOL     OW32490   0.877   0.351  14.862
10198SOL    HW132491   0.865   0.435   0.034
10198SOL    HW232492   0.964   0.322   0.017
10199SOL     OW32493   6.675   8.655   8.556
10199SOL    HW132494   6.666   8.563   8.581
10199SOL    HW232495   6.595   8.696   8.589
10200SOL     OW32496   1.527  13.740   9.311
10200SOL    HW132497   1.582  13.668   9.280
10200SOL    HW232498   1.439  13.703   9.316
10201SOL     OW32499  14.651   5.095   6.089
10201SOL    HW132500  14.604   5.012   6.099
10201SOL    HW232501  14.611   5.153   6.153
10202SOL     OW32502   4.827   6.112  11.458
10202SOL    HW132503   4.887   6.187  11.451
10202SOL    HW232504   4.802   6.109  11.550
10203SOL     OW32505   2.614  14.356   8.472
10203SOL    HW132506   2.591  14.275   8.518
10203SOL    HW232507   2.532  14.382   8.429
10204SOL     OW32508   7.666  10.773   7.055
10204SOL    HW132509   7.734  10.820   7.007
10204SOL    HW232510   7.592  10.833   7.058
10205SOL     OW32511  12.688  14.526   6.057
10205SOL    HW132512  12.694  14.520   5.962
10205SOL    HW232513  12.769  14.484   6.089
10206SOL     OW32514   7.829   1.642   0.684
10206SOL    HW132515   7.797   1.727   0.655
10206SOL    HW232516   7.830   1.647   0.779
10207SOL     OW32517   7.497  14.225   2.297
10207SOL    HW132518   7.489  14.140   2.340
10207SOL    HW232519   7.584  14.224   2.259
10208SOL     OW32520  12.589   8.277  14.837
10208SOL    HW132521  12.662   8.322  14.795
10208SOL    HW232522  12.568   8.205  14.777
10209SOL     OW32523  13.060   3.393   9.653
10209SOL    HW132524  12.968   3.412   9.635
10209SOL    HW232525  13.093   3.355   9.572
10210SOL     OW32526   2.745   1.981  11.427
10210SOL    HW132527   2.775   2.042  11.495
10210SOL    HW232528   2.709   2.037  11.358
10211SOL     OW32529   2.433  14.584   0.665
10211SOL    HW132530   2.420  14.673   0.633
10211SOL    HW232531   2.380  14.530   0.606
10212SOL     OW32532  14.619  13.335   0.548
10212SOL    HW132533  14.598  13.242   0.538
10212SOL    HW232534  14.583  13.377   0.470
10213SOL     OW32535  10.892  13.272   9.906
10213SOL    HW132536  10.802  13.248   9.880
10213SOL    HW232537  10.931  13.190   9.935
10214SOL     OW32538   0.657   2.045   3.772
10214SOL    HW132539   0.587   1.980   3.761
10214SOL    HW232540   0.676   2.045   3.866
10215SOL     OW32541   6.469   4.771   9.609
10215SOL    HW132542   6.430   4.694   9.566
10215SOL    HW232543   6.472   4.838   9.540
10216SOL     OW32544  11.443   1.222   2.549
10216SOL    HW132545  11.536   1.207   2.528
10216SOL    HW232546  11.442   1.238   2.644
10217SOL     OW32547   3.778   3.333   5.876
10217SOL    HW132548   3.835   3.256   5.880
10217SOL    HW232549   3.775   3.356   5.784
10218SOL     OW32550  13.965   2.831   9.861
10218SOL    HW132551  13.981   2.774   9.936
10218SOL    HW232552  13.894   2.790   9.813
10219SOL     OW32553   4.205  11.997   5.180
10219SOL    HW132554   4.292  11.984   5.143
10219SOL    HW232555   4.222  12.024   5.271
10220SOL     OW32556  11.453  12.096   3.100
10220SOL    HW132557  11.493  12.170   3.145
10220SOL    HW232558  11.520  12.067   3.038
10221SOL     OW32559   9.197   9.101  12.771
10221SOL    HW132560   9.122   9.140  12.815
10221SOL    HW232561   9.232   9.171  12.716
10222SOL     OW32562   9.240   1.349   7.130
10222SOL    HW132563   9.239   1.301   7.048
10222SOL    HW232564   9.323   1.326   7.171
10223SOL     OW32565   5.307   4.696   7.386
10223SOL    HW132566   5.304   4.610   7.344
10223SOL    HW232567   5.216   4.727   7.382
10224SOL     OW32568   8.402  14.540  11.238
10224SOL    HW132569   8.386  14.633  11.221
10224SOL    HW232570   8.333  14.514  11.299
10225SOL     OW32571   7.745  14.616  12.546
10225SOL    HW132572   7.767  14.671  12.471
10225SOL    HW232573   7.807  14.643  12.614
10226SOL     OW32574   7.294   7.435   9.445
10226SOL    HW132575   7.323   7.424   9.354
10226SOL    HW232576   7.206   7.398   9.447
10227SOL     OW32577   0.847   1.560  10.485
10227SOL    HW132578   0.897   1.517  10.554
10227SOL    HW232579   0.774   1.602  10.530
10228SOL     OW32580   9.272  11.513  10.185
10228SOL    HW132581   9.206  11.496  10.252
10228SOL    HW232582   9.262  11.606  10.164
10229SOL     OW32583   6.898  11.445   2.586
10229SOL    HW132584   6.823  11.390   2.609
10229SOL    HW232585   6.952  11.389   2.530
10230SOL     OW32586  12.489   2.095  14.573
10230SOL    HW132587  12.541   2.016  14.558
10230SOL    HW232588  12.402   2.062  14.598
10231SOL     OW32589   8.855   0.039  14.749
10231SOL    HW132590   8.914   0.077  14.684
10231SOL    HW232591   8.912  14.862  14.807
10232SOL     OW32592   7.263   1.425   9.346
10232SOL    HW132593   7.338   1.390   9.394
10232SOL    HW232594   7.218   1.482   9.409
10233SOL     OW32595   7.185   5.267   4.489
10233SOL    HW132596   7.169   5.177   4.515
10233SOL    HW232597   7.280   5.277   4.492
10234SOL     OW32598   4.176   7.232  14.575
10234SOL    HW132599   4.137   7.144  14.581
10234SOL    HW232600   4.101   7.291  14.582
10235SOL     OW32601   6.769   0.463   6.655
10235SOL    HW132602   6.711   0.536   6.634
10235SOL    HW232603   6.822   0.495   6.728
10236SOL     OW32604   7.981  10.163   1.788
10236SOL    HW132605   7.968  10.120   1.704
10236SOL    HW232606   8.022  10.097   1.844
10237SOL     OW32607   5.235   1.441   7.511
10237SOL    HW132608   5.182   1.366   7.483
10237SOL    HW232609   5.307   1.444   7.449
10238SOL     OW32610  14.853   6.213  12.115
10238SOL    HW132611  14.794   6.138  12.108
10238SOL    HW232612  14.795   6.289  12.114
10239SOL     OW32613   5.369   8.436   4.767
10239SOL    HW132614   5.316   8.377   4.821
10239SOL    HW232615   5.460   8.414   4.789
10240SOL     OW32616   3.546  14.314   8.164
10240SOL    HW132617   3.568  14.296   8.256
10240SOL    HW232618   3.496  14.238   8.136
10241SOL     OW32619  13.839   1.737  11.251
10241SOL    HW132620  13.753   1.753  11.213
10241SOL    HW232621  13.821   1.692  11.333
10242SOL     OW32622   6.051   2.521   7.068
10242SOL    HW132623   5.957   2.521   7.087
10242SOL    HW232624   6.057   2.546   6.976
10243SOL     OW32625  11.505   0.993  12.012
10243SOL    HW132626  11.528   0.901  12.025
10243SOL    HW232627  11.439   1.010  12.079
10244SOL     OW32628   7.999   6.294  13.987
10244SOL    HW132629   7.958   6.298  14.073
10244SOL    HW232630   7.975   6.208  13.953
10245SOL     OW32631   9.756   0.676   8.829
10245SOL    HW132632   9.694   0.719   8.772
10245SOL    HW232633   9.775   0.740   8.897
10246SOL     OW32634  14.367   8.820   0.595
10246SOL    HW132635  14.286   8.788   0.635
10246SOL    HW232636  14.353   8.810   0.501
10247SOL     OW32637   3.604   9.147   3.350
10247SOL    HW132638   3.626   9.235   3.379
10247SOL    HW232639   3.509   9.150   3.335
10248SOL     OW32640   7.596  12.184  13.804
10248SOL    HW132641   7.559  12.096  13.795
10248SOL    HW232642   7.649  12.196  13.725
10249SOL     OW32643   2.307   5.675  14.792
10249SOL    HW132644   2.290   5.750  14.849
10249SOL    HW232645   2.327   5.604  14.853
10250SOL     OW32646   8.327   7.358   2.785
10250SOL    HW132647   8.395   7.395   2.729
10250SOL    HW232648   8.295   7.433   2.835
10251SOL     OW32649   8.166   2.240  12.430
10251SOL    HW132650   8.201   2.157  12.397
10251SOL    HW232651   8.150   2.225  12.523
10252SOL     OW32652   1.901  11.371   8.475
10252SOL    HW132653   1.840  11.445   8.483
10252SOL    HW232654   1.868  11.321   8.401
10253SOL     OW32655   6.080   1.886   1.889
10253SOL    HW132656   6.000   1.839   1.867
10253SOL    HW232657   6.148   1.819   1.888
10254SOL     OW32658   0.425  10.342   7.726
10254SOL    HW132659   0.482  10.383   7.661
10254SOL    HW232660   0.352  10.403   7.737
10255SOL     OW32661   0.624   7.337  13.775
10255SOL    HW132662   0.568   7.259  13.781
10255SOL    HW232663   0.712   7.302  13.765
10256SOL     OW32664  13.349   9.612   0.318
10256SOL    HW132665  13.378   9.617   0.409
10256SOL    HW232666  13.254   9.610   0.323
10257SOL     OW32667   1.272  14.411  13.271
10257SOL    HW132668   1.236  14.417  13.183
10257SOL    HW232669   1.202  14.370  13.322
10258SOL     OW32670   3.608  14.072   0.132
10258SOL    HW132671   3.661  14.128   0.189
10258SOL    HW232672   3.669  14.007   0.098
10259SOL     OW32673  11.445  13.497   1.088
10259SOL    HW132674  11.411  13.433   1.151
10259SOL    HW232675  11.446  13.450   1.004
10260SOL     OW32676  14.696  12.030   2.834
10260SOL    HW132677  14.625  12.092   2.853
10260SOL    HW232678  14.714  12.042   2.741
10261SOL     OW32679   0.512   8.241   3.049
10261SOL    HW132680   0.492   8.158   3.092
10261SOL    HW232681   0.428   8.287   3.045
10262SOL     OW32682  11.918   4.165  13.181
10262SOL    HW132683  11.853   4.210  13.127
10262SOL    HW232684  11.918   4.212  13.264
10263SOL     OW32685   7.257   2.541  13.521
10263SOL    HW132686   7.264   2.621  13.469
10263SOL    HW232687   7.164   2.535  13.544
10264SOL     OW32688  13.084   9.116   0.727
10264SOL    HW132689  13.153   9.170   0.766
10264SOL    HW232690  13.008   9.173   0.724
10265SOL     OW32691   8.775   1.337   3.899
10265SOL    HW132692   8.757   1.333   3.805
10265SOL    HW232693   8.726   1.413   3.929
10266SOL     OW32694   2.695   1.137  11.485
10266SOL    HW132695   2.749   1.069  11.524
10266SOL    HW232696   2.739   1.219  11.510
10267SOL     OW32697  12.823   5.360  10.092
10267SOL    HW132698  12.775   5.440  10.069
10267SOL    HW232699  12.757   5.291  10.091
10268SOL     OW32700  12.987  11.264  13.591
10268SOL    HW132701  12.953  11.352  13.574
10268SOL    HW232702  13.041  11.274  13.670
10269SOL     OW32703   0.893   1.932  13.736
10269SOL    HW132704   0.869   1.952  13.826
10269SOL    HW232705   0.857   1.845  13.720
10270SOL     OW32706   6.002   0.580   0.200
10270SOL    HW132707   5.984   0.622   0.284
10270SOL    HW232708   6.044   0.648   0.147
10271SOL     OW32709   0.808   2.948   5.087
10271SOL    HW132710   0.860   2.876   5.123
10271SOL    HW232711   0.718   2.915   5.089
10272SOL     OW32712  12.888   5.498  11.782
10272SOL    HW132713  12.921   5.587  11.796
10272SOL    HW232714  12.962   5.442  11.806
10273SOL     OW32715   3.704   4.681  11.130
10273SOL    HW132716   3.786   4.639  11.103
10273SOL    HW232717   3.658   4.697  11.048
10274SOL     OW32718   3.365  12.131   5.547
10274SOL    HW132719   3.437  12.101   5.603
10274SOL    HW232720   3.357  12.224   5.567
10275SOL     OW32721   9.806   9.263   9.910
10275SOL    HW132722   9.749   9.196   9.873
10275SOL    HW232723   9.865   9.287   9.838
10276SOL     OW32724   9.829   0.977   0.645
10276SOL    HW132725   9.790   1.061   0.622
10276SOL    HW232726   9.755   0.918   0.660
10277SOL     OW32727   1.073   9.263  13.677
10277SOL    HW132728   1.123   9.226  13.749
10277SOL    HW232729   0.991   9.213  13.676
10278SOL     OW32730   3.683   1.301   2.352
10278SOL    HW132731   3.668   1.301   2.447
10278SOL    HW232732   3.604   1.263   2.315
10279SOL     OW32733   7.268   7.574   3.740
10279SOL    HW132734   7.287   7.482   3.722
10279SOL    HW232735   7.197   7.571   3.804
10280SOL     OW32736  12.264  14.214   9.437
10280SOL    HW132737  12.220  14.299   9.434
10280SOL    HW232738  12.195  14.151   9.458
10281SOL     OW32739   7.419   2.694  13.077
10281SOL    HW132740   7.357   2.714  13.006
10281SOL    HW232741   7.503   2.685  13.032
10282SOL     OW32742  12.612  10.209  10.435
10282SOL    HW132743  12.701  10.194  10.469
10282SOL    HW232744  12.622  10.279  10.371
10283SOL     OW32745   3.372   2.926   0.593
10283SOL    HW132746   3.297   2.878   0.556
10283SOL    HW232747   3.436   2.928   0.522
10284SOL     OW32748   4.695  12.132   1.582
10284SOL    HW132749   4.621  12.074   1.596
10284SOL    HW232750   4.699  12.186   1.661
10285SOL     OW32751   3.729   1.829   9.139
10285SOL    HW132752   3.773   1.888   9.078
10285SOL    HW232753   3.760   1.742   9.115
10286SOL     OW32754   8.245  12.361   4.388
10286SOL    HW132755   8.215  12.272   4.406
10286SOL    HW232756   8.165  12.413   4.382
10287SOL     OW32757   8.023   0.685   7.377
10287SOL    HW132758   8.105   0.734   7.371
10287SOL    HW232759   7.960   0.736   7.326
10288SOL     OW32760  11.116  11.150  13.160
10288SOL    HW132761  11.031  11.138  13.202
10288SOL    HW232762  11.101  11.126  13.068
10289SOL     OW32763   2.482  11.283   6.813
10289SOL    HW132764   2.430  11.312   6.887
10289SOL    HW232765   2.573  11.290   6.843
10290SOL     OW32766   2.187   6.207   7.224
10290SOL    HW132767   2.155   6.128   7.181
10290SOL    HW232768   2.154   6.279   7.170
10291SOL     OW32769  13.410   6.947   0.042
10291SOL    HW132770  13.388   6.874  14.857
10291SOL    HW232771  13.326   6.974   0.079
10292SOL     OW32772   8.925   4.657   9.121
10292SOL    HW132773   8.959   4.570   9.139
10292SOL    HW232774   8.940   4.670   9.027
10293SOL     OW32775   8.451   8.073  12.830
10293SOL    HW132776   8.356   8.074  12.831
10293SOL    HW232777   8.476   8.160  12.797
10294SOL     OW32778  13.595   8.433   4.893
10294SOL    HW132779  13.667   8.371   4.889
10294SOL    HW232780  13.546   8.420   4.812
10295SOL     OW32781  13.485   5.020   2.669
10295SOL    HW132782  13.435   5.043   2.748
10295SOL    HW232783  13.559   4.970   2.702
10296SOL     OW32784   8.652  11.398   7.223
10296SOL    HW132785   8.718  11.447   7.174
10296SOL    HW232786   8.579  11.458   7.234
10297SOL     OW32787   5.595   7.792   5.029
10297SOL    HW132788   5.632   7.810   4.942
10297SOL    HW232789   5.656   7.834   5.090
10298SOL     OW32790   7.928  14.687  13.994
10298SOL    HW132791   7.958  14.665  13.906
10298SOL    HW232792   7.833  14.681  13.990
10299SOL     OW32793   9.389   3.034  11.939
10299SOL    HW132794   9.365   3.127  11.945
10299SOL    HW232795   9.317   2.994  11.891
10300SOL     OW32796   5.774   6.035  12.842
10300SOL    HW132797   5.834   5.971  12.804
10300SOL    HW232798   5.734   5.990  12.917
10301SOL     OW32799   7.790   6.306  10.624
10301SOL    HW132800   7.843   6.320  10.546
10301SOL    HW232801   7.701   6.292  10.590
10302SOL     OW32802   7.013   3.824   0.135
10302SOL    HW132803   7.017   3.731   0.158
10302SOL    HW232804   7.103   3.855   0.150
10303SOL     OW32805   4.095   2.979  14.117
10303SOL    HW132806   4.189   2.997  14.121
10303SOL    HW232807   4.053   3.065  14.126
10304SOL     OW32808   4.275   3.506   6.848
10304SOL    HW132809   4.286   3.576   6.784
10304SOL    HW232810   4.320   3.538   6.927
10305SOL     OW32811  12.138   8.036   1.984
10305SOL    HW132812  12.209   8.054   1.922
10305SOL    HW232813  12.104   8.123   2.006
10306SOL     OW32814   9.714   7.556   3.633
10306SOL    HW132815   9.776   7.623   3.603
10306SOL    HW232816   9.688   7.585   3.720
10307SOL     OW32817  10.241   0.193   9.219
10307SOL    HW132818  10.178   0.264   9.223
10307SOL    HW232819  10.306   0.214   9.286
10308SOL     OW32820   2.292   8.722   6.822
10308SOL    HW132821   2.201   8.747   6.807
10308SOL    HW232822   2.316   8.669   6.746
10309SOL     OW32823   3.377  13.610  11.459
10309SOL    HW132824   3.300  13.581  11.409
10309SOL    HW232825   3.353  13.595  11.550
10310SOL     OW32826   0.306   5.507   3.055
10310SOL    HW132827   0.388   5.482   3.097
10310SOL    HW232828   0.325   5.592   3.015
10311SOL     OW32829   0.709   1.381   2.846
10311SOL    HW132830   0.764   1.423   2.912
10311SOL    HW232831   0.768   1.320   2.801
10312SOL     OW32832  10.181  12.485   1.388
10312SOL    HW132833  10.137  12.520   1.310
10312SOL    HW232834  10.123  12.416   1.420
10313SOL     OW32835   0.902   1.057   1.511
10313SOL    HW132836   0.844   1.086   1.582
10313SOL    HW232837   0.849   1.066   1.432
10314SOL     OW32838   1.931  11.115   6.931
10314SOL    HW132839   1.869  11.063   6.879
10314SOL    HW232840   1.973  11.052   6.989
10315SOL     OW32841   6.376   6.640   9.258
10315SOL    HW132842   6.431   6.704   9.212
10315SOL    HW232843   6.287   6.658   9.228
10316SOL     OW32844   2.188  11.181   4.624
10316SOL    HW132845   2.106  11.215   4.659
10316SOL    HW232846   2.231  11.258   4.586
10317SOL     OW32847   0.710   7.513   5.089
10317SOL    HW132848   0.772   7.441   5.078
10317SOL    HW232849   0.624   7.470   5.093
10318SOL     OW32850  10.257   0.331   5.720
10318SOL    HW132851  10.170   0.294   5.737
10318SOL    HW232852  10.273   0.389   5.794
10319SOL     OW32853   2.004   7.389   7.818
10319SOL    HW132854   1.984   7.446   7.744
10319SOL    HW232855   2.064   7.441   7.873
10320SOL     OW32856   9.997  10.831   8.634
10320SOL    HW132857   9.969  10.754   8.684
10320SOL    HW232858  10.090  10.839   8.653
10321SOL     OW32859   5.509   1.397  10.166
10321SOL    HW132860   5.551   1.452  10.232
10321SOL    HW232861   5.463   1.458  10.109
10322SOL     OW32862   0.183   1.450  13.012
10322SOL    HW132863   0.109   1.389  13.011
10322SOL    HW232864   0.146   1.532  12.981
10323SOL     OW32865   2.924   3.809   9.207
10323SOL    HW132866   2.911   3.904   9.211
10323SOL    HW232867   3.018   3.797   9.223
10324SOL     OW32868   2.441  12.656  13.575
10324SOL    HW132869   2.524  12.683  13.535
10324SOL    HW232870   2.383  12.731  13.562
10325SOL     OW32871  14.596   1.690   7.983
10325SOL    HW132872  14.511   1.660   7.952
10325SOL    HW232873  14.647   1.707   7.903
10326SOL     OW32874   0.434   5.193  13.111
10326SOL    HW132875   0.343   5.178  13.089
10326SOL    HW232876   0.465   5.109  13.145
10327SOL     OW32877  11.113  11.784   2.538
10327SOL    HW132878  11.176  11.743   2.597
10327SOL    HW232879  11.166  11.813   2.463
10328SOL     OW32880   0.655   3.202   0.633
10328SOL    HW132881   0.577   3.206   0.689
10328SOL    HW232882   0.726   3.235   0.688
10329SOL     OW32883  12.199   8.056   4.653
10329SOL    HW132884  12.104   8.061   4.647
10329SOL    HW232885  12.222   7.971   4.614
10330SOL     OW32886   4.887   8.344   0.662
10330SOL    HW132887   4.954   8.350   0.594
10330SOL    HW232888   4.926   8.387   0.738
10331SOL     OW32889   2.546  13.978   2.498
10331SOL    HW132890   2.622  13.994   2.442
10331SOL    HW232891   2.580  13.931   2.574
10332SOL     OW32892   4.271   8.058  14.522
10332SOL    HW132893   4.204   8.079  14.587
10332SOL    HW232894   4.235   8.090  14.439
10333SOL     OW32895   6.118   5.355   5.393
10333SOL    HW132896   6.122   5.450   5.381
10333SOL    HW232897   6.209   5.326   5.390
10334SOL     OW32898   3.873  13.308   0.859
10334SOL    HW132899   3.838  13.219   0.866
10334SOL    HW232900   3.956  13.297   0.812
10335SOL     OW32901   3.994   4.667   3.364
10335SOL    HW132902   3.958   4.585   3.397
10335SOL    HW232903   4.036   4.643   3.281
10336SOL     OW32904  12.445   8.062   5.676
10336SOL    HW132905  12.360   8.023   5.698
10336SOL    HW232906  12.508   8.012   5.727
10337SOL     OW32907   7.949  10.755  12.243
10337SOL    HW132908   7.891  10.706  12.302
10337SOL    HW232909   7.932  10.846  12.264
10338SOL     OW32910   6.560  13.042   8.524
10338SOL    HW132911   6.572  13.018   8.616
10338SOL    HW232912   6.647  13.035   8.486
10339SOL     OW32913   2.101   9.537   3.470
10339SOL    HW132914   2.139   9.608   3.522
10339SOL    HW232915   2.177   9.494   3.429
10340SOL     OW32916   6.313   8.630   4.511
10340SOL    HW132917   6.355   8.549   4.540
10340SOL    HW232918   6.219   8.612   4.519
10341SOL     OW32919  13.079   6.609   8.876
10341SOL    HW132920  13.102   6.569   8.793
10341SOL    HW232921  13.125   6.556   8.942
10342SOL     OW32922   5.655  10.794   6.241
10342SOL    HW132923   5.601  10.814   6.317
10342SOL    HW232924   5.744  10.814   6.269
10343SOL     OW32925   4.366   6.737   7.502
10343SOL    HW132926   4.298   6.691   7.454
10343SOL    HW232927   4.433   6.670   7.519
10344SOL     OW32928   8.098   3.663   8.476
10344SOL    HW132929   8.095   3.653   8.380
10344SOL    HW232930   8.117   3.575   8.508
10345SOL     OW32931   5.732  14.507   0.909
10345SOL    HW132932   5.813  14.461   0.934
10345SOL    HW232933   5.664  14.464   0.961
10346SOL     OW32934   9.033   0.931   8.008
10346SOL    HW132935   9.104   0.995   8.013
10346SOL    HW232936   8.966   0.964   8.069
10347SOL     OW32937   1.322  14.050   8.284
10347SOL    HW132938   1.416  14.034   8.273
10347SOL    HW232939   1.307  14.136   8.246
10348SOL     OW32940  13.617   7.363   5.990
10348SOL    HW132941  13.557   7.433   5.964
10348SOL    HW232942  13.644   7.386   6.079
10349SOL     OW32943   2.847   3.108  13.835
10349SOL    HW132944   2.769   3.087  13.888
10349SOL    HW232945   2.920   3.093  13.895
10350SOL     OW32946   9.574   6.317   8.605
10350SOL    HW132947   9.577   6.353   8.693
10350SOL    HW232948   9.488   6.276   8.599
10351SOL     OW32949  10.072   1.966   9.400
10351SOL    HW132950  10.125   2.017   9.339
10351SOL    HW232951  10.021   2.031   9.448
10352SOL     OW32952  10.516   1.714   9.398
10352SOL    HW132953  10.464   1.757   9.465
10352SOL    HW232954  10.591   1.772   9.385
10353SOL     OW32955   4.888   5.661   8.610
10353SOL    HW132956   4.883   5.640   8.703
10353SOL    HW232957   4.946   5.594   8.574
10354SOL     OW32958   0.075   1.670   7.094
10354SOL    HW132959   0.080   1.691   7.001
10354SOL    HW232960  14.866   1.620   7.103
10355SOL     OW32961   1.801   8.047   7.883
10355SOL    HW132962   1.835   7.958   7.878
10355SOL    HW232963   1.707   8.036   7.901
10356SOL     OW32964   0.010   4.335  11.565
10356SOL    HW132965   0.047   4.247  11.560
10356SOL    HW232966   0.085   4.393  11.573
10357SOL     OW32967  14.870   5.018   6.460
10357SOL    HW132968  14.835   5.097   6.501
10357SOL    HW232969   0.019   4.960   6.533
10358SOL     OW32970   9.524   1.615   3.803
10358SOL    HW132971   9.437   1.639   3.771
10358SOL    HW232972   9.547   1.537   3.752
10359SOL     OW32973   7.248   2.785   1.199
10359SOL    HW132974   7.302   2.758   1.273
10359SOL    HW232975   7.160   2.754   1.222
10360SOL     OW32976   2.804  10.401  11.491
10360SOL    HW132977   2.724  10.429  11.448
10360SOL    HW232978   2.786  10.410  11.585
10361SOL     OW32979  11.091   9.015   9.974
10361SOL    HW132980  11.016   9.014   9.913
10361SOL    HW232981  11.115   9.107   9.980
10362SOL     OW32982  14.803  11.751   5.803
10362SOL    HW132983  14.868  11.728   5.870
10362SOL    HW232984  14.822  11.842   5.782
10363SOL     OW32985   7.245   7.676  13.221
10363SOL    HW132986   7.340   7.687  13.217
10363SOL    HW232987   7.230   7.627  13.301
10364SOL     OW32988  14.389   7.985   4.004
10364SOL    HW132989  14.309   7.966   3.955
10364SOL    HW232990  14.370   7.955   4.093
10365SOL     OW32991  11.482   7.363   3.475
10365SOL    HW132992  11.391   7.386   3.492
10365SOL    HW232993  11.522   7.443   3.441
10366SOL     OW32994   8.194  12.954   2.442
10366SOL    HW132995   8.192  12.963   2.347
10366SOL    HW232996   8.109  12.917   2.465
10367SOL     OW32997   5.196   4.095   4.792
10367SOL    HW132998   5.274   4.069   4.743
10367SOL    HW232999   5.129   4.109   4.725
10368SOL     OW33000   0.838   8.119  10.698
10368SOL    HW133001   0.924   8.078  10.688
10368SOL    HW233002   0.802   8.123  10.610
10369SOL     OW33003   5.582   4.560   7.821
10369SOL    HW133004   5.583   4.649   7.857
10369SOL    HW233005   5.496   4.525   7.844
10370SOL     OW33006  11.249   8.127   1.203
10370SOL    HW133007  11.331   8.136   1.250
10370SOL    HW233008  11.186   8.100   1.270
10371SOL     OW33009   4.457   7.768   4.946
10371SOL    HW133010   4.367   7.738   4.933
10371SOL    HW233011   4.482   7.808   4.863
10372SOL     OW33012  14.043   7.362   2.492
10372SOL    HW133013  14.078   7.379   2.404
10372SOL    HW233014  13.997   7.443   2.515
10373SOL     OW33015   5.358   1.385   2.661
10373SOL    HW133016   5.377   1.416   2.750
10373SOL    HW233017   5.271   1.346   2.669
10374SOL     OW33018  14.544   4.998  11.162
10374SOL    HW133019  14.552   4.967  11.252
10374SOL    HW233020  14.573   5.089  11.165
10375SOL     OW33021   4.257  14.368   6.594
10375SOL    HW133022   4.327  14.386   6.658
10375SOL    HW233023   4.298  14.384   6.509
10376SOL     OW33024   8.455   0.813   0.444
10376SOL    HW133025   8.409   0.739   0.483
10376SOL    HW233026   8.532   0.825   0.500
10377SOL     OW33027   7.954  11.377   0.353
10377SOL    HW133028   8.029  11.332   0.390
10377SOL    HW233029   7.901  11.403   0.429
10378SOL     OW33030   7.883   2.424   8.621
10378SOL    HW133031   7.859   2.459   8.707
10378SOL    HW233032   7.851   2.489   8.559
10379SOL     OW33033   0.761  13.457   7.118
10379SOL    HW133034   0.708  13.423   7.046
10379SOL    HW233035   0.797  13.539   7.084
10380SOL     OW33036  13.622   1.308  10.666
10380SOL    HW133037  13.640   1.389  10.713
10380SOL    HW233038  13.708   1.267  10.654
10381SOL     OW33039  12.174  13.429   9.180
10381SOL    HW133040  12.124  13.352   9.208
10381SOL    HW233041  12.115  13.475   9.120
10382SOL     OW33042  14.719  12.454  13.394
10382SOL    HW133043  14.697  12.368  13.429
10382SOL    HW233044  14.778  12.436  13.321
10383SOL     OW33045   2.545   1.828   0.463
10383SOL    HW133046   2.504   1.835   0.550
10383SOL    HW233047   2.634   1.862   0.476
10384SOL     OW33048   7.558   5.207  10.573
10384SOL    HW133049   7.626   5.272  10.591
10384SOL    HW233050   7.574   5.138  10.637
10385SOL     OW33051   6.307   4.743   4.890
10385SOL    HW133052   6.331   4.675   4.827
10385SOL    HW233053   6.307   4.824   4.838
10386SOL     OW33054   2.830   3.320   1.903
10386SOL    HW133055   2.751   3.372   1.894
10386SOL    HW233056   2.834   3.268   1.823
10387SOL     OW33057   9.890   6.588   5.038
10387SOL    HW133058   9.978   6.587   5.076
10387SOL    HW233059   9.845   6.515   5.080
10388SOL     OW33060   1.361   6.930   1.082
10388SOL    HW133061   1.330   6.842   1.105
10388SOL    HW233062   1.420   6.953   1.154
10389SOL     OW33063   7.280  14.371  10.689
10389SOL    HW133064   7.215  14.318  10.734
10389SOL    HW233065   7.265  14.460  10.721
10390SOL     OW33066  14.007  13.595  14.453
10390SOL    HW133067  14.040  13.506  14.466
10390SOL    HW233068  14.007  13.607  14.358
10391SOL     OW33069  12.009   0.492  11.999
10391SOL    HW133070  12.003   0.557  11.929
10391SOL    HW233071  11.941   0.428  11.978
10392SOL     OW33072  11.681   3.334  11.998
10392SOL    HW133073  11.600   3.327  11.947
10392SOL    HW233074  11.663   3.404  12.061
10393SOL     OW33075   9.451  14.078   3.315
10393SOL    HW133076   9.533  14.089   3.365
10393SOL    HW233077   9.424  13.988   3.333
10394SOL     OW33078  12.026   3.180   7.865
10394SOL    HW133079  11.951   3.182   7.804
10394SOL    HW233080  12.011   3.103   7.919
10395SOL     OW33081   7.488  14.163  12.191
10395SOL    HW133082   7.521  14.078  12.219
10395SOL    HW233083   7.554  14.226  12.222
10396SOL     OW33084   2.888   2.368   6.670
10396SOL    HW133085   2.866   2.455   6.704
10396SOL    HW233086   2.820   2.349   6.605
10397SOL     OW33087   0.572  10.569   4.156
10397SOL    HW133088   0.495  10.616   4.189
10397SOL    HW233089   0.624  10.552   4.234
10398SOL     OW33090  12.129   2.395  11.596
10398SOL    HW133091  12.128   2.458  11.524
10398SOL    HW233092  12.038   2.366  11.604
10399SOL     OW33093  14.039   7.782   2.272
10399SOL    HW133094  14.095   7.780   2.349
10399SOL    HW233095  14.100   7.776   2.198
10400SOL     OW33096  10.548  14.318   6.793
10400SOL    HW133097  10.629  14.323   6.742
10400SOL    HW233098  10.576  14.317   6.884
10401SOL     OW33099   6.211   9.237   3.784
10401SOL    HW133100   6.234   9.145   3.771
10401SOL    HW233101   6.294   9.284   3.776
10402SOL     OW33102   3.370  10.485  13.210
10402SOL    HW133103   3.327  10.544  13.272
10402SOL    HW233104   3.308  10.413  13.197
10403SOL     OW33105  10.084   9.418   1.871
10403SOL    HW133106  10.179   9.420   1.861
10403SOL    HW233107  10.068   9.445   1.962
10404SOL     OW33108   6.430  10.504   5.493
10404SOL    HW133109   6.433  10.476   5.584
10404SOL    HW233110   6.352  10.462   5.457
10405SOL     OW33111  11.295   9.990   8.804
10405SOL    HW133112  11.273   9.957   8.717
10405SOL    HW233113  11.390   9.990   8.806
10406SOL     OW33114   6.732  14.231   7.187
10406SOL    HW133115   6.674  14.240   7.263
10406SOL    HW233116   6.684  14.272   7.115
10407SOL     OW33117  12.953   2.913  11.361
10407SOL    HW133118  12.995   2.860  11.294
10407SOL    HW233119  12.889   2.855  11.401
10408SOL     OW33120   7.306   4.397   5.888
10408SOL    HW133121   7.319   4.489   5.868
10408SOL    HW233122   7.336   4.351   5.809
10409SOL     OW33123   9.035  11.694   3.738
10409SOL    HW133124   9.047  11.627   3.805
10409SOL    HW233125   9.003  11.770   3.785
10410SOL     OW33126  10.028   5.712  10.629
10410SOL    HW133127   9.987   5.797  10.611
10410SOL    HW233128  10.058   5.719  10.720
10411SOL     OW33129   1.967  14.595   5.539
10411SOL    HW133130   2.054  14.623   5.570
10411SOL    HW233131   1.913  14.674   5.547
10412SOL     OW33132   6.906   6.803   0.454
10412SOL    HW133133   6.950   6.876   0.497
10412SOL    HW233134   6.870   6.841   0.374
10413SOL     OW33135   5.662   2.152   7.142
10413SOL    HW133136   5.653   2.231   7.088
10413SOL    HW233137   5.574   2.136   7.176
10414SOL     OW33138   1.050   4.842   1.315
10414SOL    HW133139   0.994   4.779   1.361
10414SOL    HW233140   1.066   4.803   1.230
10415SOL     OW33141   6.551  10.494  14.436
10415SOL    HW133142   6.611  10.555  14.393
10415SOL    HW233143   6.605  10.451  14.503
10416SOL     OW33144  10.605   6.250   9.073
10416SOL    HW133145  10.626   6.230   9.164
10416SOL    HW233146  10.542   6.321   9.078
10417SOL     OW33147  11.144  10.927   3.259
10417SOL    HW133148  11.233  10.896   3.244
10417SOL    HW233149  11.126  10.906   3.351
10418SOL     OW33150   8.277   9.460   9.069
10418SOL    HW133151   8.181   9.470   9.067
10418SOL    HW233152   8.307   9.505   8.991
10419SOL     OW33153   8.769   9.756  10.665
10419SOL    HW133154   8.860   9.779  10.649
10419SOL    HW233155   8.754   9.774  10.758
10420SOL     OW33156  12.491  13.936   0.523
10420SOL    HW133157  12.507  13.911   0.614
10420SOL    HW233158  12.463  14.027   0.528
10421SOL     OW33159   3.602   9.428   3.367
10421SOL    HW133160   3.599   9.482   3.446
10421SOL    HW233161   3.541   9.471   3.306
10422SOL     OW33162  11.955   1.127   5.801
10422SOL    HW133163  11.865   1.135   5.833
10422SOL    HW233164  11.955   1.047   5.749
10423SOL     OW33165  13.369   3.478  11.877
10423SOL    HW133166  13.457   3.515  11.871
10423SOL    HW233167  13.338   3.473  11.786
10424SOL     OW33168  12.475  12.215  11.144
10424SOL    HW133169  12.420  12.167  11.081
10424SOL    HW233170  12.532  12.269  11.090
10425SOL     OW33171   1.646  11.080   1.233
10425SOL    HW133172   1.658  11.012   1.299
10425SOL    HW233173   1.731  11.124   1.229
10426SOL     OW33174   5.003  13.078  10.525
10426SOL    HW133175   5.060  13.097  10.451
10426SOL    HW233176   4.983  12.984  10.517
10427SOL     OW33177   8.448   4.345   6.066
10427SOL    HW133178   8.508   4.413   6.099
10427SOL    HW233179   8.421   4.377   5.980
10428SOL     OW33180  14.130  11.012  14.568
10428SOL    HW133181  14.156  10.957  14.642
10428SOL    HW233182  14.108  10.950  14.498
10429SOL     OW33183   4.443   5.487   4.033
10429SOL    HW133184   4.472   5.527   4.115
10429SOL    HW233185   4.523   5.476   3.981
10430SOL     OW33186  12.499   1.475   9.106
10430SOL    HW133187  12.471   1.527   9.031
10430SOL    HW233188  12.552   1.536   9.158
10431SOL     OW33189   1.713   6.827  14.260
10431SOL    HW133190   1.727   6.733  14.265
10431SOL    HW233191   1.675   6.841  14.173
10432SOL     OW33192  11.893   5.409  13.043
10432SOL    HW133193  11.894   5.396  12.948
10432SOL    HW233194  11.983   5.393  13.070
10433SOL     OW33195   8.221   3.461   0.321
10433SOL    HW133196   8.237   3.541   0.271
10433SOL    HW233197   8.194   3.397   0.256
10434SOL     OW33198   1.858   9.697  11.637
10434SOL    HW133199   1.868   9.737  11.550
10434SOL    HW233200   1.845   9.771  11.696
10435SOL     OW33201   6.654  11.845   3.139
10435SOL    HW133202   6.620  11.900   3.209
10435SOL    HW233203   6.596  11.770   3.136
10436SOL     OW33204   7.411   8.613   9.886
10436SOL    HW133205   7.355   8.645   9.958
10436SOL    HW233206   7.354   8.616   9.809
10437SOL     OW33207  11.882   6.103  14.269
10437SOL    HW133208  11.885   6.007  14.272
10437SOL    HW233209  11.906   6.124  14.179
10438SOL     OW33210   7.435   9.456  11.702
10438SOL    HW133211   7.498   9.464  11.774
10438SOL    HW233212   7.457   9.373  11.660
10439SOL     OW33213  11.511   8.223   1.239
10439SOL    HW133214  11.535   8.151   1.181
10439SOL    HW233215  11.560   8.298   1.206
10440SOL     OW33216  14.250  13.582  11.406
10440SOL    HW133217  14.194  13.548  11.476
10440SOL    HW233218  14.203  13.562  11.325
10441SOL     OW33219  12.870   9.107  10.443
10441SOL    HW133220  12.905   9.107  10.532
10441SOL    HW233221  12.779   9.079  10.452
10442SOL     OW33222  13.970   2.897  13.903
10442SOL    HW133223  14.015   2.953  13.966
10442SOL    HW233224  13.894   2.864  13.951
10443SOL     OW33225  13.909  12.714   3.877
10443SOL    HW133226  13.990  12.691   3.831
10443SOL    HW233227  13.851  12.745   3.808
10444SOL     OW33228   4.395  12.348   9.078
10444SOL    HW133229   4.366  12.282   9.016
10444SOL    HW233230   4.330  12.344   9.149
10445SOL     OW33231   7.912   9.742   8.249
10445SOL    HW133232   7.839   9.737   8.310
10445SOL    HW233233   7.915   9.834   8.222
10446SOL     OW33234  14.078   5.034   5.623
10446SOL    HW133235  14.021   4.965   5.591
10446SOL    HW233236  14.107   5.080   5.545
10447SOL     OW33237  13.998   4.606   5.484
10447SOL    HW133238  13.930   4.673   5.488
10447SOL    HW233239  14.038   4.607   5.571
10448SOL     OW33240  13.546   3.462   1.719
10448SOL    HW133241  13.593   3.379   1.716
10448SOL    HW233242  13.562   3.496   1.807
10449SOL     OW33243   2.382   1.955   4.774
10449SOL    HW133244   2.308   1.907   4.737
10449SOL    HW233245   2.342   2.028   4.820
10450SOL     OW33246   3.564   5.990   8.209
10450SOL    HW133247   3.554   5.985   8.114
10450SOL    HW233248   3.476   5.974   8.244
10451SOL     OW33249   5.444  11.422   2.092
10451SOL    HW133250   5.452  11.417   2.187
10451SOL    HW233251   5.360  11.464   2.077
10452SOL     OW33252   4.097   7.029   6.857
10452SOL    HW133253   4.163   6.999   6.919
10452SOL    HW233254   4.145   7.044   6.776
10453SOL     OW33255   3.270  10.467  14.060
10453SOL    HW133256   3.344  10.524  14.082
10453SOL    HW233257   3.297  10.423  13.980
10454SOL     OW33258   4.668  12.506   5.585
10454SOL    HW133259   4.722  12.457   5.647
10454SOL    HW233260   4.594  12.537   5.637
10455SOL     OW33261   1.954   3.463  10.468
10455SOL    HW133262   1.942   3.554  10.443
10455SOL    HW233263   2.000   3.424  10.394
10456SOL     OW33264  11.005   9.231  10.329
10456SOL    HW133265  11.062   9.303  10.355
10456SOL    HW233266  10.946   9.219  10.403
10457SOL     OW33267   8.819   8.173   3.247
10457SOL    HW133268   8.909   8.201   3.264
10457SOL    HW233269   8.824   8.078   3.245
10458SOL     OW33270   8.845   5.294  13.257
10458SOL    HW133271   8.833   5.389  13.254
10458SOL    HW233272   8.771   5.259  13.207
10459SOL     OW33273   0.290   2.535   4.033
10459SOL    HW133274   0.367   2.547   3.978
10459SOL    HW233275   0.220   2.581   3.987
10460SOL     OW33276  10.737  12.701   1.748
10460SOL    HW133277  10.715  12.625   1.802
10460SOL    HW233278  10.766  12.767   1.810
10461SOL     OW33279   6.675   7.348  11.358
10461SOL    HW133280   6.702   7.371  11.269
10461SOL    HW233281   6.580   7.360  11.359
10462SOL     OW33282   6.740   0.427   8.532
10462SOL    HW133283   6.794   0.363   8.485
10462SOL    HW233284   6.803   0.476   8.585
10463SOL     OW33285   1.227   1.565   2.448
10463SOL    HW133286   1.254   1.484   2.405
10463SOL    HW233287   1.131   1.563   2.448
10464SOL     OW33288   5.243   8.346   2.947
10464SOL    HW133289   5.324   8.300   2.923
10464SOL    HW233290   5.272   8.419   3.002
10465SOL     OW33291   3.688   1.422  11.025
10465SOL    HW133292   3.693   1.337  10.982
10465SOL    HW233293   3.671   1.403  11.117
10466SOL     OW33294   6.359  10.132  14.671
10466SOL    HW133295   6.417  10.077  14.619
10466SOL    HW233296   6.279  10.081  14.680
10467SOL     OW33297   2.835   0.062   6.164
10467SOL    HW133298   2.882   0.144   6.149
10467SOL    HW233299   2.771   0.083   6.232
10468SOL     OW33300   0.337   1.654   3.847
10468SOL    HW133301   0.432   1.661   3.839
10468SOL    HW233302   0.311   1.594   3.777
10469SOL     OW33303  10.907   1.990   6.880
10469SOL    HW133304  10.955   1.910   6.863
10469SOL    HW233305  10.950   2.028   6.957
10470SOL     OW33306   0.435  14.053   6.493
10470SOL    HW133307   0.370  14.014   6.551
10470SOL    HW233308   0.459  14.135   6.537
10471SOL     OW33309   4.877   2.812   8.445
10471SOL    HW133310   4.782   2.822   8.436
10471SOL    HW233311   4.905   2.890   8.493
10472SOL     OW33312   6.113  13.433  13.334
10472SOL    HW133313   6.120  13.379  13.413
10472SOL    HW233314   6.168  13.509  13.352
10473SOL     OW33315  14.559   4.124   2.941
10473SOL    HW133316  14.588   4.103   3.030
10473SOL    HW233317  14.513   4.045   2.912
10474SOL     OW33318   4.870   1.520   3.282
10474SOL    HW133319   4.902   1.605   3.254
10474SOL    HW233320   4.858   1.471   3.201
10475SOL     OW33321   2.626   1.831  13.868
10475SOL    HW133322   2.703   1.795  13.822
10475SOL    HW233323   2.561   1.844  13.799
10476SOL     OW33324   5.606  11.648   4.190
10476SOL    HW133325   5.517  11.616   4.178
10476SOL    HW233326   5.646  11.588   4.253
10477SOL     OW33327   3.922  13.570   9.203
10477SOL    HW133328   4.001  13.584   9.255
10477SOL    HW233329   3.935  13.622   9.124
10478SOL     OW33330  13.467  14.157   4.817
10478SOL    HW133331  13.406  14.230   4.825
10478SOL    HW233332  13.554  14.198   4.821
10479SOL     OW33333   1.947   9.620  14.100
10479SOL    HW133334   1.912   9.662  14.178
10479SOL    HW233335   2.041   9.639  14.102
10480SOL     OW33336  10.179  11.020   3.147
10480SOL    HW133337  10.185  11.105   3.189
10480SOL    HW233338  10.151  11.039   3.057
10481SOL     OW33339  10.623  11.171   7.488
10481SOL    HW133340  10.678  11.210   7.556
10481SOL    HW233341  10.598  11.085   7.524
10482SOL     OW33342   7.203  14.733   4.307
10482SOL    HW133343   7.285  14.692   4.334
10482SOL    HW233344   7.224  14.827   4.303
10483SOL     OW33345   8.327  14.001   5.250
10483SOL    HW133346   8.344  13.975   5.340
10483SOL    HW233347   8.411  13.991   5.205
10484SOL     OW33348   8.692   3.583  13.537
10484SOL    HW133349   8.747   3.651  13.499
10484SOL    HW233350   8.753   3.513  13.561
10485SOL     OW33351  11.503   6.015   0.013
10485SOL    HW133352  11.485   6.063  14.805
10485SOL    HW233353  11.494   6.080   0.083
10486SOL     OW33354   0.807   6.294   4.810
10486SOL    HW133355   0.838   6.277   4.899
10486SOL    HW233356   0.800   6.207   4.771
10487SOL     OW33357   7.388   6.401  12.964
10487SOL    HW133358   7.380   6.334  12.896
10487SOL    HW233359   7.311   6.388  13.019
10488SOL     OW33360  10.141  10.112   0.257
10488SOL    HW133361  10.155  10.205   0.240
10488SOL    HW233362  10.084  10.083   0.185
10489SOL     OW33363   3.372   0.942   7.077
10489SOL    HW133364   3.452   0.892   7.091
10489SOL    HW233365   3.395   1.006   7.010
10490SOL     OW33366   1.698   0.836   4.330
10490SOL    HW133367   1.679   0.921   4.291
10490SOL    HW233368   1.765   0.799   4.273
10491SOL     OW33369  13.560   5.590  12.797
10491SOL    HW133370  13.514   5.528  12.741
10491SOL    HW233371  13.491   5.633  12.847
10492SOL     OW33372   8.682   4.825  10.845
10492SOL    HW133373   8.592   4.800  10.823
10492SOL    HW233374   8.688   4.811  10.940
10493SOL     OW33375  14.267  13.857   5.416
10493SOL    HW133376  14.277  13.801   5.493
10493SOL    HW233377  14.346  13.911   5.415
10494SOL     OW33378  11.015   0.594  14.801
10494SOL    HW133379  11.039   0.561   0.016
10494SOL    HW233380  10.929   0.557  14.784
10495SOL     OW33381   1.460  10.529   0.303
10495SOL    HW133382   1.511  10.570   0.234
10495SOL    HW233383   1.374  10.572   0.298
10496SOL     OW33384   0.332   5.913   5.225
10496SOL    HW133385   0.271   5.939   5.156
10496SOL    HW233386   0.347   5.994   5.275
10497SOL     OW33387   3.846   5.489  10.903
10497SOL    HW133388   3.774   5.443  10.947
10497SOL    HW233389   3.810   5.576  10.884
10498SOL     OW33390   4.845   5.945   2.708
10498SOL    HW133391   4.836   5.940   2.613
10498SOL    HW233392   4.817   5.859   2.740
10499SOL     OW33393   6.074   6.876   2.169
10499SOL    HW133394   6.141   6.809   2.181
10499SOL    HW233395   6.089   6.937   2.241
10500SOL     OW33396   3.584   1.056  14.378
10500SOL    HW133397   3.604   1.126  14.440
10500SOL    HW233398   3.510   1.089  14.328
10501SOL     OW33399   5.630   4.762   3.301
10501SOL    HW133400   5.623   4.673   3.334
10501SOL    HW233401   5.709   4.797   3.342
10502SOL     OW33402   6.273   5.318  12.988
10502SOL    HW133403   6.221   5.364  13.054
10502SOL    HW233404   6.363   5.329  13.016
10503SOL     OW33405   3.812   2.564   7.808
10503SOL    HW133406   3.784   2.616   7.883
10503SOL    HW233407   3.745   2.496   7.799
10504SOL     OW33408  14.238   4.988   4.643
10504SOL    HW133409  14.147   5.003   4.669
10504SOL    HW233410  14.254   4.896   4.663
10505SOL     OW33411   7.859   1.525   7.795
10505SOL    HW133412   7.861   1.435   7.763
10505SOL    HW233413   7.933   1.568   7.753
10506SOL     OW33414   7.441   9.909   7.619
10506SOL    HW133415   7.421   9.854   7.544
10506SOL    HW233416   7.534   9.929   7.609
10507SOL     OW33417   1.115  10.429   6.087
10507SOL    HW133418   1.151  10.505   6.132
10507SOL    HW233419   1.122  10.451   5.994
10508SOL     OW33420   6.071   4.628   1.350
10508SOL    HW133421   6.075   4.534   1.369
10508SOL    HW233422   5.978   4.645   1.338
10509SOL     OW33423  10.401   4.543   8.888
10509SOL    HW133424  10.377   4.586   8.970
10509SOL    HW233425  10.400   4.614   8.823
10510SOL     OW33426   8.042   8.115  11.148
10510SOL    HW133427   7.949   8.100  11.135
10510SOL    HW233428   8.074   8.035  11.190
10511SOL     OW33429   6.946   7.694  13.869
10511SOL    HW133430   6.955   7.749  13.792
10511SOL    HW233431   6.852   7.684  13.880
10512SOL     OW33432   6.649   8.572   6.336
10512SOL    HW133433   6.714   8.514   6.296
10512SOL    HW233434   6.667   8.566   6.430
10513SOL     OW33435   4.514   4.806  11.457
10513SOL    HW133436   4.464   4.765  11.387
10513SOL    HW233437   4.557   4.881  11.415
10514SOL     OW33438   7.018   1.389   4.810
10514SOL    HW133439   7.057   1.452   4.749
10514SOL    HW233440   7.008   1.437   4.892
10515SOL     OW33441   3.541  10.704   8.859
10515SOL    HW133442   3.469  10.712   8.797
10515SOL    HW233443   3.619  10.694   8.804
10516SOL     OW33444   1.019   9.104   3.648
10516SOL    HW133445   1.034   9.196   3.626
10516SOL    HW233446   0.959   9.107   3.723
10517SOL     OW33447   4.515   8.407  12.786
10517SOL    HW133448   4.557   8.403  12.700
10517SOL    HW233449   4.519   8.318  12.819
10518SOL     OW33450   2.847   1.533   9.673
10518SOL    HW133451   2.804   1.575   9.599
10518SOL    HW233452   2.810   1.445   9.676
10519SOL     OW33453  14.775   0.204   3.720
10519SOL    HW133454  14.815   0.291   3.713
10519SOL    HW233455  14.702   0.206   3.659
10520SOL     OW33456  13.763   0.259   8.757
10520SOL    HW133457  13.728   0.183   8.709
10520SOL    HW233458  13.829   0.222   8.815
10521SOL     OW33459   9.909  11.753   0.385
10521SOL    HW133460   9.923  11.812   0.459
10521SOL    HW233461   9.957  11.794   0.313
10522SOL     OW33462  13.958  14.142   4.826
10522SOL    HW133463  13.890  14.076   4.816
10522SOL    HW233464  13.916  14.224   4.798
10523SOL     OW33465   0.914  11.418   6.732
10523SOL    HW133466   0.864  11.364   6.671
10523SOL    HW233467   0.925  11.362   6.809
10524SOL     OW33468   3.725  14.477   0.945
10524SOL    HW133469   3.803  14.442   0.989
10524SOL    HW233470   3.749  14.478   0.852
10525SOL     OW33471  12.348   6.806  13.772
10525SOL    HW133472  12.436   6.777  13.795
10525SOL    HW233473  12.361   6.890  13.727
10526SOL     OW33474  11.350  12.764   2.875
10526SOL    HW133475  11.387  12.852   2.879
10526SOL    HW233476  11.306  12.752   2.959
10527SOL     OW33477   5.784  13.060   7.208
10527SOL    HW133478   5.735  13.100   7.279
10527SOL    HW233479   5.875  13.060   7.238
10528SOL     OW33480  10.161   6.525   8.235
10528SOL    HW133481  10.116   6.559   8.312
10528SOL    HW233482  10.239   6.580   8.227
10529SOL     OW33483   1.132   0.412   7.088
10529SOL    HW133484   1.162   0.460   7.165
10529SOL    HW233485   1.176   0.327   7.095
10530SOL     OW33486   0.513  11.980   9.798
10530SOL    HW133487   0.535  12.072   9.785
10530SOL    HW233488   0.427  11.982   9.841
10531SOL     OW33489   6.004  11.184  13.633
10531SOL    HW133490   5.935  11.118  13.635
10531SOL    HW233491   5.978  11.244  13.564
10532SOL     OW33492  10.448   9.565   9.242
10532SOL    HW133493  10.482   9.648   9.207
10532SOL    HW233494  10.382   9.592   9.306
10533SOL     OW33495   9.668   9.080   7.997
10533SOL    HW133496   9.613   9.005   7.973
10533SOL    HW233497   9.655   9.089   8.092
10534SOL     OW33498   7.847   3.423   8.203
10534SOL    HW133499   7.934   3.394   8.174
10534SOL    HW233500   7.844   3.516   8.181
10535SOL     OW33501   0.649   3.705   6.171
10535SOL    HW133502   0.728   3.737   6.214
10535SOL    HW233503   0.681   3.648   6.101
10536SOL     OW33504   5.317  11.634   0.828
10536SOL    HW133505   5.275  11.596   0.905
10536SOL    HW233506   5.248  11.637   0.761
10537SOL     OW33507   9.214   3.850   3.796
10537SOL    HW133508   9.302   3.812   3.789
10537SOL    HW233509   9.231   3.945   3.804
10538SOL     OW33510  13.037   1.599   4.716
10538SOL    HW133511  13.031   1.690   4.686
10538SOL    HW233512  12.985   1.597   4.797
10539SOL     OW33513   9.771  14.157   8.139
10539SOL    HW133514   9.729  14.084   8.185
10539SOL    HW233515   9.708  14.182   8.071
10540SOL     OW33516   3.744   0.680  11.976
10540SOL    HW133517   3.795   0.660  11.897
10540SOL    HW233518   3.659   0.709  11.942
10541SOL     OW33519   9.653   6.919  10.537
10541SOL    HW133520   9.717   6.931  10.608
10541SOL    HW233521   9.651   6.824  10.523
10542SOL     OW33522   4.851  14.334   5.034
10542SOL    HW133523   4.912  14.263   5.019
10542SOL    HW233524   4.825  14.324   5.126
10543SOL     OW33525   6.550  12.727  13.654
10543SOL    HW133526   6.573  12.718  13.747
10543SOL    HW233527   6.491  12.654  13.637
10544SOL     OW33528  11.355   3.683   6.741
10544SOL    HW133529  11.417   3.656   6.809
10544SOL    HW233530  11.382   3.771   6.716
10545SOL     OW33531   3.746   5.021   1.534
10545SOL    HW133532   3.832   5.060   1.516
10545SOL    HW233533   3.713   5.070   1.609
10546SOL     OW33534   0.219   5.822   7.648
10546SOL    HW133535   0.274   5.898   7.666
10546SOL    HW233536   0.280   5.749   7.639
10547SOL     OW33537   4.034  11.241  11.181
10547SOL    HW133538   4.107  11.233  11.120
10547SOL    HW233539   3.960  11.201  11.135
10548SOL     OW33540   3.965   2.069  10.362
10548SOL    HW133541   3.934   2.031  10.444
10548SOL    HW233542   3.885   2.082  10.311
10549SOL     OW33543   5.421   1.712  13.832
10549SOL    HW133544   5.503   1.699  13.785
10549SOL    HW233545   5.364   1.642  13.800
10550SOL     OW33546   7.888  10.113  10.649
10550SOL    HW133547   7.844  10.166  10.715
10550SOL    HW233548   7.889  10.169  10.571
10551SOL     OW33549   5.221   1.941   1.598
10551SOL    HW133550   5.306   1.984   1.612
10551SOL    HW233551   5.200   1.903   1.683
10552SOL     OW33552   8.069   9.620   8.850
10552SOL    HW133553   8.060   9.525   8.839
10552SOL    HW233554   8.045   9.635   8.942
10553SOL     OW33555   1.777   1.691   2.012
10553SOL    HW133556   1.839   1.654   2.074
10553SOL    HW233557   1.725   1.753   2.064
10554SOL     OW33558  11.479  13.412   7.063
10554SOL    HW133559  11.390  13.424   7.030
10554SOL    HW233560  11.476  13.327   7.108
10555SOL     OW33561   9.878   5.149   5.029
10555SOL    HW133562   9.805   5.087   5.029
10555SOL    HW233563   9.861   5.207   4.955
10556SOL     OW33564  12.522   3.694  14.728
10556SOL    HW133565  12.453   3.760  14.715
10556SOL    HW233566  12.603   3.744  14.722
10557SOL     OW33567   7.751   0.185  11.071
10557SOL    HW133568   7.795   0.107  11.104
10557SOL    HW233569   7.721   0.231  11.149
10558SOL     OW33570   1.420  12.023   4.434
10558SOL    HW133571   1.424  12.109   4.393
10558SOL    HW233572   1.506  12.012   4.475
10559SOL     OW33573   9.583  13.943   0.012
10559SOL    HW133574   9.622  13.880  14.824
10559SOL    HW233575   9.511  13.896   0.053
10560SOL     OW33576   4.335   2.415  11.597
10560SOL    HW133577   4.429   2.406  11.580
10560SOL    HW233578   4.294   2.400  11.512
10561SOL     OW33579  11.743   2.540   0.906
10561SOL    HW133580  11.748   2.571   0.816
10561SOL    HW233581  11.664   2.486   0.909
10562SOL     OW33582   0.894   5.988   3.616
10562SOL    HW133583   0.935   5.938   3.545
10562SOL    HW233584   0.957   5.982   3.688
10563SOL     OW33585  11.900  12.189   9.403
10563SOL    HW133586  11.852  12.262   9.365
10563SOL    HW233587  11.893  12.201   9.498
10564SOL     OW33588  14.035   1.212  11.565
10564SOL    HW133589  13.967   1.279  11.573
10564SOL    HW233590  14.057   1.189  11.655
10565SOL     OW33591  10.458   3.872  14.302
10565SOL    HW133592  10.419   3.959  14.312
10565SOL    HW233593  10.383   3.812  14.299
10566SOL     OW33594   5.675  10.434  12.473
10566SOL    HW133595   5.598  10.388  12.506
10566SOL    HW233596   5.706  10.485  12.548
10567SOL     OW33597   4.701   3.205   0.207
10567SOL    HW133598   4.795   3.197   0.223
10567SOL    HW233599   4.687   3.162   0.123
10568SOL     OW33600   5.575   5.353   9.378
10568SOL    HW133601   5.665   5.379   9.358
10568SOL    HW233602   5.551   5.406   9.454
10569SOL     OW33603  13.869   1.943   9.244
10569SOL    HW133604  13.905   2.003   9.308
10569SOL    HW233605  13.784   1.917   9.280
10570SOL     OW33606   1.319  10.520   2.985
10570SOL    HW133607   1.226  10.526   2.963
10570SOL    HW233608   1.361  10.587   2.930
10571SOL     OW33609   3.913   9.219   9.404
10571SOL    HW133610   3.957   9.304   9.406
10571SOL    HW233611   3.844   9.229   9.338
10572SOL     OW33612   6.380   1.287   1.060
10572SOL    HW133613   6.289   1.293   1.089
10572SOL    HW233614   6.417   1.373   1.081
10573SOL     OW33615   9.915   6.661  14.585
10573SOL    HW133616   9.918   6.698  14.673
10573SOL    HW233617   9.971   6.584  14.589
10574SOL     OW33618  12.709   3.473  11.392
10574SOL    HW133619  12.656   3.432  11.323
10574SOL    HW233620  12.742   3.554  11.352
10575SOL     OW33621   4.130  12.121   9.275
10575SOL    HW133622   4.167  12.140   9.361
10575SOL    HW233623   4.102  12.206   9.242
10576SOL     OW33624   4.595   2.309  11.534
10576SOL    HW133625   4.677   2.347  11.566
10576SOL    HW233626   4.620   2.222  11.504
10577SOL     OW33627   3.387   4.888  12.366
10577SOL    HW133628   3.414   4.912  12.454
10577SOL    HW233629   3.350   4.800  12.375
10578SOL     OW33630   7.555  11.848   7.553
10578SOL    HW133631   7.475  11.802   7.582
10578SOL    HW233632   7.609  11.853   7.632
10579SOL     OW33633   9.500   7.622  13.532
10579SOL    HW133634   9.451   7.686  13.479
10579SOL    HW233635   9.434   7.559  13.559
10580SOL     OW33636   5.522  10.204   8.867
10580SOL    HW133637   5.594  10.231   8.925
10580SOL    HW233638   5.565  10.180   8.785
10581SOL     OW33639  13.694   3.517   1.936
10581SOL    HW133640  13.767   3.477   1.889
10581SOL    HW233641  13.736   3.574   2.001
10582SOL     OW33642   1.326   3.870   1.940
10582SOL    HW133643   1.281   3.808   1.882
10582SOL    HW233644   1.349   3.943   1.883
10583SOL     OW33645   7.527  13.926  13.710
10583SOL    HW133646   7.566  13.842  13.687
10583SOL    HW233647   7.560  13.986  13.643
10584SOL     OW33648   9.637  14.398   5.291
10584SOL    HW133649   9.711  14.381   5.350
10584SOL    HW233650   9.597  14.312   5.278
10585SOL     OW33651  11.232  11.786  10.290
10585SOL    HW133652  11.214  11.700  10.329
10585SOL    HW233653  11.160  11.800  10.229
10586SOL     OW33654   2.388  12.997   6.062
10586SOL    HW133655   2.481  13.016   6.050
10586SOL    HW233656   2.344  13.044   5.991
10587SOL     OW33657  12.945   8.995   5.026
10587SOL    HW133658  13.024   8.943   5.039
10587SOL    HW233659  12.940   9.007   4.931
10588SOL     OW33660   1.226  12.449   0.943
10588SOL    HW133661   1.278  12.496   1.009
10588SOL    HW233662   1.136  12.479   0.958
10589SOL     OW33663   3.057  13.339   3.259
10589SOL    HW133664   3.101  13.424   3.269
10589SOL    HW233665   3.123  13.275   3.287
10590SOL     OW33666  10.983   7.884  12.849
10590SOL    HW133667  11.036   7.861  12.925
10590SOL    HW233668  11.032   7.849  12.775
10591SOL     OW33669  14.272   9.071  13.794
10591SOL    HW133670  14.248   9.068  13.886
10591SOL    HW233671  14.218   9.142  13.758
10592SOL     OW33672   8.763   7.447  14.435
10592SOL    HW133673   8.767   7.542  14.451
10592SOL    HW233674   8.755   7.409  14.523
10593SOL     OW33675   2.961   8.332  10.861
10593SOL    HW133676   3.033   8.275  10.833
10593SOL    HW233677   2.888   8.271  10.879
10594SOL     OW33678   7.820   3.873   4.638
10594SOL    HW133679   7.822   3.879   4.543
10594SOL    HW233680   7.837   3.781   4.657
10595SOL     OW33681   9.640  13.035   4.006
10595SOL    HW133682   9.727  13.060   3.975
10595SOL    HW233683   9.592  13.117   4.014
10596SOL     OW33684  13.818   3.378   3.039
10596SOL    HW133685  13.871   3.446   3.080
10596SOL    HW233686  13.733   3.421   3.023
10597SOL     OW33687  14.056   6.687  13.158
10597SOL    HW133688  14.066   6.677  13.063
10597SOL    HW233689  14.067   6.598  13.192
10598SOL     OW33690   1.924  14.680   8.060
10598SOL    HW133691   1.906  14.720   8.145
10598SOL    HW233692   1.888  14.741   7.996
10599SOL     OW33693   2.305   0.648   2.826
10599SOL    HW133694   2.280   0.565   2.866
10599SOL    HW233695   2.280   0.639   2.734
10600SOL     OW33696   7.765   6.281   0.975
10600SOL    HW133697   7.816   6.359   0.952
10600SOL    HW233698   7.704   6.312   1.043
10601SOL     OW33699  14.206   3.458   1.358
10601SOL    HW133700  14.288   3.425   1.322
10601SOL    HW233701  14.232   3.515   1.430
10602SOL     OW33702  13.145   4.310   4.851
10602SOL    HW133703  13.145   4.268   4.937
10602SOL    HW233704  13.154   4.404   4.871
10603SOL     OW33705   3.645   4.366  13.097
10603SOL    HW133706   3.617   4.361  13.188
10603SOL    HW233707   3.572   4.407  13.051
10604SOL     OW33708  14.277   1.836  10.228
10604SOL    HW133709  14.303   1.906  10.167
10604SOL    HW233710  14.209   1.876  10.282
10605SOL     OW33711   9.962   6.335   2.078
10605SOL    HW133712   9.927   6.247   2.076
10605SOL    HW233713   9.914   6.379   2.149
10606SOL     OW33714   4.155  12.274  11.891
10606SOL    HW133715   4.138  12.357  11.936
10606SOL    HW233716   4.167  12.299  11.799
10607SOL     OW33717   1.697   1.988   6.127
10607SOL    HW133718   1.753   1.925   6.082
10607SOL    HW233719   1.717   1.975   6.220
10608SOL     OW33720   1.944   1.048  14.399
10608SOL    HW133721   1.979   1.094  14.475
10608SOL    HW233722   1.985   1.090  14.324
10609SOL     OW33723   1.253   8.106   0.517
10609SOL    HW133724   1.233   8.013   0.509
10609SOL    HW233725   1.206   8.147   0.446
10610SOL     OW33726  12.944   6.381   7.539
10610SOL    HW133727  12.977   6.470   7.529
10610SOL    HW233728  12.855   6.384   7.505
10611SOL     OW33729   3.901  10.757   6.190
10611SOL    HW133730   3.872  10.673   6.154
10611SOL    HW233731   3.920  10.738   6.282
10612SOL     OW33732   0.175   7.899  12.966
10612SOL    HW133733   0.151   7.807  12.974
10612SOL    HW233734   0.257   7.907  13.015
10613SOL     OW33735   6.794   7.952  11.767
10613SOL    HW133736   6.699   7.943  11.769
10613SOL    HW233737   6.826   7.864  11.785
10614SOL     OW33738   4.893  11.105   4.114
10614SOL    HW133739   4.821  11.043   4.104
10614SOL    HW233740   4.880  11.168   4.043
10615SOL     OW33741   4.798   2.439   7.262
10615SOL    HW133742   4.710   2.418   7.230
10615SOL    HW233743   4.857   2.387   7.209
10616SOL     OW33744  14.597   5.207  10.352
10616SOL    HW133745  14.684   5.203  10.392
10616SOL    HW233746  14.539   5.172  10.420
10617SOL     OW33747   6.256   7.487   7.380
10617SOL    HW133748   6.346   7.489   7.348
10617SOL    HW233749   6.245   7.569   7.427
10618SOL     OW33750   5.223  13.412  14.551
10618SOL    HW133751   5.171  13.346  14.505
10618SOL    HW233752   5.305  13.367  14.571
10619SOL     OW33753   5.351  10.411  12.755
10619SOL    HW133754   5.410  10.417  12.830
10619SOL    HW233755   5.325  10.501  12.738
10620SOL     OW33756   6.867   0.559   5.123
10620SOL    HW133757   6.805   0.620   5.083
10620SOL    HW233758   6.821   0.475   5.124
10621SOL     OW33759  12.296  10.236  14.088
10621SOL    HW133760  12.353  10.251  14.164
10621SOL    HW233761  12.311  10.145  14.064
10622SOL     OW33762  13.020   6.893  13.794
10622SOL    HW133763  13.088   6.856  13.738
10622SOL    HW233764  12.988   6.818  13.845
10623SOL     OW33765   9.620   4.232   7.819
10623SOL    HW133766   9.539   4.281   7.800
10623SOL    HW233767   9.683   4.300   7.842
10624SOL     OW33768  13.741   7.725   3.809
10624SOL    HW133769  13.679   7.749   3.877
10624SOL    HW233770  13.734   7.796   3.745
10625SOL     OW33771   4.211   8.414   6.981
10625SOL    HW133772   4.252   8.434   6.897
10625SOL    HW233773   4.118   8.406   6.961
10626SOL     OW33774   5.148   6.146   6.173
10626SOL    HW133775   5.146   6.072   6.233
10626SOL    HW233776   5.165   6.106   6.087
10627SOL     OW33777  14.058   5.154   4.217
10627SOL    HW133778  14.058   5.208   4.138
10627SOL    HW233779  14.019   5.211   4.284
10628SOL     OW33780   0.415  10.758   0.545
10628SOL    HW133781   0.411  10.792   0.635
10628SOL    HW233782   0.405  10.836   0.490
10629SOL     OW33783   6.474   4.004   4.410
10629SOL    HW133784   6.395   3.952   4.426
10629SOL    HW233785   6.544   3.957   4.456
10630SOL     OW33786   8.332   1.305   8.183
10630SOL    HW133787   8.280   1.227   8.164
10630SOL    HW233788   8.397   1.276   8.247
10631SOL     OW33789   2.610   6.231   9.484
10631SOL    HW133790   2.565   6.309   9.517
10631SOL    HW233791   2.543   6.162   9.487
10632SOL     OW33792   7.992   6.933  13.503
10632SOL    HW133793   7.979   6.930  13.408
10632SOL    HW233794   7.982   6.842  13.531
10633SOL     OW33795  14.812  13.020   6.179
10633SOL    HW133796  14.739  12.980   6.227
10633SOL    HW233797  14.839  13.094   6.234
10634SOL     OW33798   3.736   9.337   9.204
10634SOL    HW133799   3.664   9.277   9.220
10634SOL    HW233800   3.713   9.416   9.252
10635SOL     OW33801  14.553  13.800   6.060
10635SOL    HW133802  14.637  13.842   6.079
10635SOL    HW233803  14.517  13.851   5.988
10636SOL     OW33804   8.801  13.339  13.810
10636SOL    HW133805   8.796  13.370  13.900
10636SOL    HW233806   8.880  13.382  13.775
10637SOL     OW33807   8.065   3.142  10.710
10637SOL    HW133808   8.142   3.182  10.671
10637SOL    HW233809   7.998   3.144  10.641
10638SOL     OW33810   0.844   9.629  11.441
10638SOL    HW133811   0.808   9.545  11.472
10638SOL    HW233812   0.889   9.607  11.359
10639SOL     OW33813  10.241   7.971  10.684
10639SOL    HW133814  10.297   7.903  10.722
10639SOL    HW233815  10.302   8.033  10.645
10640SOL     OW33816   2.113   8.524  12.726
10640SOL    HW133817   2.059   8.458  12.769
10640SOL    HW233818   2.165   8.563  12.798
10641SOL     OW33819  10.028   7.098  11.719
10641SOL    HW133820  10.089   7.172  11.721
10641SOL    HW233821   9.944   7.136  11.744
10642SOL     OW33822   4.130   6.502   2.210
10642SOL    HW133823   4.067   6.557   2.257
10642SOL    HW233824   4.143   6.427   2.267
10643SOL     OW33825   3.291  13.519   4.911
10643SOL    HW133826   3.379  13.484   4.920
10643SOL    HW233827   3.277  13.571   4.990
10644SOL     OW33828   2.285   3.319   0.148
10644SOL    HW133829   2.246   3.398   0.112
10644SOL    HW233830   2.264   3.251   0.085
10645SOL     OW33831  11.981  13.680   0.111
10645SOL    HW133832  11.912  13.622   0.077
10645SOL    HW233833  12.028  13.709   0.032
10646SOL     OW33834   2.837   6.720   9.719
10646SOL    HW133835   2.833   6.642   9.664
10646SOL    HW233836   2.919   6.710   9.769
10647SOL     OW33837   0.510  13.700  11.540
10647SOL    HW133838   0.443  13.734  11.599
10647SOL    HW233839   0.469  13.625  11.496
10648SOL     OW33840   8.010  13.466  14.005
10648SOL    HW133841   7.928  13.429  14.036
10648SOL    HW233842   8.041  13.521  14.077
10649SOL     OW33843   5.430  14.333   1.418
10649SOL    HW133844   5.480  14.399   1.467
10649SOL    HW233845   5.497  14.274   1.384
10650SOL     OW33846   2.452  10.547   4.554
10650SOL    HW133847   2.377  10.526   4.499
10650SOL    HW233848   2.450  10.642   4.563
10651SOL     OW33849  10.001  11.114  12.273
10651SOL    HW133850  10.058  11.145  12.203
10651SOL    HW233851   9.922  11.082  12.228
10652SOL     OW33852   5.501   7.727   4.552
10652SOL    HW133853   5.522   7.818   4.531
10652SOL    HW233854   5.409   7.730   4.580
10653SOL     OW33855   2.761   7.819   8.654
10653SOL    HW133856   2.690   7.823   8.589
10653SOL    HW233857   2.752   7.733   8.695
10654SOL     OW33858   2.808   0.973   3.471
10654SOL    HW133859   2.760   0.906   3.519
10654SOL    HW233860   2.837   0.930   3.391
10655SOL     OW33861   8.827  13.684   4.709
10655SOL    HW133862   8.851  13.626   4.782
10655SOL    HW233863   8.845  13.632   4.631
10656SOL     OW33864   3.916   4.479   7.212
10656SOL    HW133865   3.862   4.402   7.232
10656SOL    HW233866   3.880   4.548   7.268
10657SOL     OW33867   7.996   7.341   9.397
10657SOL    HW133868   7.935   7.405   9.432
10657SOL    HW233869   7.947   7.258   9.397
10658SOL     OW33870  13.844   0.840   3.790
10658SOL    HW133871  13.804   0.902   3.728
10658SOL    HW233872  13.902   0.787   3.736
10659SOL     OW33873  14.614   3.292   6.293
10659SOL    HW133874  14.688   3.348   6.268
10659SOL    HW233875  14.647   3.241   6.367
10660SOL     OW33876   3.706   3.219   7.971
10660SOL    HW133877   3.668   3.214   8.059
10660SOL    HW233878   3.631   3.219   7.912
10661SOL     OW33879  11.319   6.886  13.253
10661SOL    HW133880  11.373   6.840  13.317
10661SOL    HW233881  11.254   6.820  13.225
10662SOL     OW33882  13.918   0.210  10.781
10662SOL    HW133883  13.867   0.135  10.813
10662SOL    HW233884  13.855   0.262  10.732
10663SOL     OW33885  13.014   1.556   9.169
10663SOL    HW133886  12.994   1.630   9.113
10663SOL    HW233887  13.107   1.566   9.190
10664SOL     OW33888   9.203   1.101  12.044
10664SOL    HW133889   9.180   1.180  11.995
10664SOL    HW233890   9.284   1.070  12.002
10665SOL     OW33891   7.950   6.763   1.849
10665SOL    HW133892   7.992   6.705   1.785
10665SOL    HW233893   8.019   6.826   1.873
10666SOL     OW33894   4.385   4.358   5.893
10666SOL    HW133895   4.398   4.304   5.971
10666SOL    HW233896   4.332   4.432   5.923
10667SOL     OW33897   2.799   4.001   0.525
10667SOL    HW133898   2.893   4.008   0.507
10667SOL    HW233899   2.763   3.956   0.448
10668SOL     OW33900   0.003   2.345  12.153
10668SOL    HW133901  14.823   2.271  12.119
10668SOL    HW233902  14.850   2.352  12.245
10669SOL     OW33903  10.595  13.116   8.234
10669SOL    HW133904  10.516  13.166   8.212
10669SOL    HW233905  10.662  13.150   8.175
10670SOL     OW33906   2.928   7.239  13.684
10670SOL    HW133907   2.837   7.220  13.661
10670SOL    HW233908   2.966   7.155  13.706
10671SOL     OW33909   8.280   8.303   5.385
10671SOL    HW133910   8.270   8.325   5.478
10671SOL    HW233911   8.202   8.252   5.365
10672SOL     OW33912  10.472   8.630   8.134
10672SOL    HW133913  10.444   8.720   8.148
10672SOL    HW233914  10.391   8.579   8.130
10673SOL     OW33915   7.214   7.575   2.351
10673SOL    HW133916   7.145   7.514   2.378
10673SOL    HW233917   7.289   7.520   2.332
10674SOL     OW33918   6.227   6.532   5.735
10674SOL    HW133919   6.226   6.494   5.647
10674SOL    HW233920   6.268   6.618   5.724
10675SOL     OW33921  12.178   6.254   0.397
10675SOL    HW133922  12.269   6.232   0.378
10675SOL    HW233923  12.183   6.331   0.453
10676SOL     OW33924   1.710  11.407  10.770
10676SOL    HW133925   1.696  11.338  10.705
10676SOL    HW233926   1.622  11.440  10.790
10677SOL     OW33927   9.689  11.353   6.194
10677SOL    HW133928   9.750  11.409   6.241
10677SOL    HW233929   9.603  11.393   6.209
10678SOL     OW33930   7.929  14.644   6.993
10678SOL    HW133931   8.007  14.673   7.041
10678SOL    HW233932   7.896  14.723   6.952
10679SOL     OW33933   9.467   7.049   6.092
10679SOL    HW133934   9.457   7.042   6.187
10679SOL    HW233935   9.535   6.986   6.071
10680SOL     OW33936   7.688   0.814   6.945
10680SOL    HW133937   7.749   0.752   6.985
10680SOL    HW233938   7.679   0.884   7.010
10681SOL     OW33939   9.103  13.327  12.817
10681SOL    HW133940   9.164  13.380  12.766
10681SOL    HW233941   9.050  13.391  12.865
10682SOL     OW33942   7.403   9.981   9.698
10682SOL    HW133943   7.360  10.019   9.622
10682SOL    HW233944   7.387   9.887   9.690
10683SOL     OW33945   0.822   5.616   3.770
10683SOL    HW133946   0.899   5.655   3.727
10683SOL    HW233947   0.760   5.600   3.699
10684SOL     OW33948  12.936   1.417   8.193
10684SOL    HW133949  13.009   1.395   8.251
10684SOL    HW233950  12.867   1.449   8.251
10685SOL     OW33951   1.572  11.843   9.777
10685SOL    HW133952   1.538  11.803   9.697
10685SOL    HW233953   1.640  11.903   9.746
10686SOL     OW33954  10.222   8.160   3.193
10686SOL    HW133955  10.173   8.089   3.233
10686SOL    HW233956  10.297   8.117   3.151
10687SOL     OW33957   8.353   6.403   6.825
10687SOL    HW133958   8.417   6.432   6.890
10687SOL    HW233959   8.285   6.359   6.877
10688SOL     OW33960   1.632   1.973  12.155
10688SOL    HW133961   1.703   1.939  12.210
10688SOL    HW233962   1.665   2.058  12.125
10689SOL     OW33963   3.326  14.744   4.462
10689SOL    HW133964   3.237  14.765   4.493
10689SOL    HW233965   3.383  14.775   4.532
10690SOL     OW33966   2.597   4.946   7.254
10690SOL    HW133967   2.566   4.923   7.341
10690SOL    HW233968   2.639   5.031   7.266
10691SOL     OW33969   6.805   4.370  13.213
10691SOL    HW133970   6.882   4.341  13.165
10691SOL    HW233971   6.786   4.300  13.275
10692SOL     OW33972   9.068   7.112   4.496
10692SOL    HW133973   9.072   7.056   4.418
10692SOL    HW233974   8.988   7.084   4.541
10693SOL     OW33975   7.659  10.470   3.838
10693SOL    HW133976   7.599  10.470   3.763
10693SOL    HW233977   7.606  10.439   3.911
10694SOL     OW33978   6.858  10.674   4.069
10694SOL    HW133979   6.779  10.624   4.092
10694SOL    HW233980   6.873  10.654   3.977
10695SOL     OW33981   2.570   4.229  13.587
10695SOL    HW133982   2.576   4.316  13.626
10695SOL    HW233983   2.592   4.169  13.658
10696SOL     OW33984   5.089   3.270   7.047
10696SOL    HW133985   5.038   3.346   7.017
10696SOL    HW233986   5.165   3.308   7.091
10697SOL     OW33987  13.624  14.011   4.475
10697SOL    HW133988  13.671  14.085   4.435
10697SOL    HW233989  13.691  13.964   4.523
10698SOL     OW33990  14.033  11.386  13.557
10698SOL    HW133991  14.058  11.304  13.598
10698SOL    HW233992  14.026  11.366  13.464
10699SOL     OW33993  11.988   2.629   0.425
10699SOL    HW133994  12.059   2.572   0.397
10699SOL    HW233995  12.009   2.715   0.387
10700SOL     OW33996   1.728   9.882   0.956
10700SOL    HW133997   1.676   9.961   0.943
10700SOL    HW233998   1.818   9.910   0.934
10701SOL     OW33999  12.393  10.966  14.466
10701SOL    HW134000  12.388  10.955  14.561
10701SOL    HW234001  12.330  10.904  14.431
10702SOL     OW34002   7.940   7.316  12.888
10702SOL    HW134003   7.937   7.347  12.979
10702SOL    HW234004   8.026   7.343  12.857
10703SOL     OW34005  11.667  13.278   8.575
10703SOL    HW134006  11.747  13.256   8.527
10703SOL    HW234007  11.627  13.348   8.524
10704SOL     OW34008   4.161   9.349  12.901
10704SOL    HW134009   4.187   9.264  12.866
10704SOL    HW234010   4.096   9.382  12.839
10705SOL     OW34011   8.006   7.832   5.890
10705SOL    HW134012   7.938   7.768   5.871
10705SOL    HW234013   8.080   7.805   5.837
10706SOL     OW34014  12.186   7.434  14.352
10706SOL    HW134015  12.114   7.443  14.415
10706SOL    HW234016  12.205   7.340  14.351
10707SOL     OW34017   2.607   9.593   7.783
10707SOL    HW134018   2.622   9.620   7.874
10707SOL    HW234019   2.650   9.661   7.731
10708SOL     OW34020   9.603   1.677  10.312
10708SOL    HW134021   9.632   1.734  10.383
10708SOL    HW234022   9.676   1.617  10.298
10709SOL     OW34023   1.026   3.819   6.572
10709SOL    HW134024   1.063   3.881   6.510
10709SOL    HW234025   1.099   3.796   6.630
10710SOL     OW34026  10.484   3.566  13.885
10710SOL    HW134027  10.487   3.473  13.906
10710SOL    HW234028  10.506   3.610  13.967
10711SOL     OW34029  11.115  12.298  12.357
10711SOL    HW134030  11.054  12.371  12.355
10711SOL    HW234031  11.073  12.230  12.304
10712SOL     OW34032   3.047   4.452   8.825
10712SOL    HW134033   3.090   4.442   8.910
10712SOL    HW234034   2.957   4.476   8.846
10713SOL     OW34035   9.947   2.723   8.514
10713SOL    HW134036   9.941   2.644   8.460
10713SOL    HW234037   9.994   2.786   8.460
10714SOL     OW34038   7.890   1.044  11.220
10714SOL    HW134039   7.838   1.104  11.167
10714SOL    HW234040   7.939   0.993  11.156
10715SOL     OW34041   8.392   3.534   7.603
10715SOL    HW134042   8.308   3.488   7.602
10715SOL    HW234043   8.415   3.542   7.510
10716SOL     OW34044   3.224   5.649   9.652
10716SOL    HW134045   3.133   5.670   9.629
10716SOL    HW234046   3.242   5.569   9.602
10717SOL     OW34047   1.980   8.266   0.286
10717SOL    HW134048   2.074   8.258   0.266
10717SOL    HW234049   1.961   8.189   0.339
10718SOL     OW34050   6.806  10.197   2.435
10718SOL    HW134051   6.735  10.242   2.482
10718SOL    HW234052   6.810  10.110   2.474
10719SOL     OW34053  10.060   1.118   7.670
10719SOL    HW134054  10.087   1.075   7.589
10719SOL    HW234055  10.106   1.202   7.669
10720SOL     OW34056   5.680  14.333   9.303
10720SOL    HW134057   5.596  14.378   9.305
10720SOL    HW234058   5.660  14.244   9.334
10721SOL     OW34059  13.697  11.597   2.581
10721SOL    HW134060  13.607  11.625   2.566
10721SOL    HW234061  13.723  11.557   2.498
10722SOL     OW34062   9.660   2.510  13.379
10722SOL    HW134063   9.656   2.549  13.292
10722SOL    HW234064   9.605   2.432  13.374
10723SOL     OW34065  10.235  14.307   9.564
10723SOL    HW134066  10.300  14.282   9.499
10723SOL    HW234067  10.258  14.396   9.589
10724SOL     OW34068  14.550   5.317   3.347
10724SOL    HW134069  14.485   5.354   3.406
10724SOL    HW234070  14.571   5.388   3.286
10725SOL     OW34071   4.284  12.647  10.806
10725SOL    HW134072   4.223  12.675  10.875
10725SOL    HW234073   4.368  12.686  10.831
10726SOL     OW34074   3.167   0.089   3.941
10726SOL    HW134075   3.151   0.004   3.901
10726SOL    HW234076   3.225   0.071   4.015
10727SOL     OW34077   2.708   0.331   6.352
10727SOL    HW134078   2.699   0.236   6.344
10727SOL    HW234079   2.646   0.366   6.287
10728SOL     OW34080   5.238   3.957   2.540
10728SOL    HW134081   5.272   3.955   2.630
10728SOL    HW234082   5.291   4.023   2.496
10729SOL     OW34083  10.171  12.904  13.831
10729SOL    HW134084  10.264  12.922  13.822
10729SOL    HW234085  10.166  12.813  13.861
10730SOL     OW34086  10.624   9.012   9.288
10730SOL    HW134087  10.556   9.079   9.280
10730SOL    HW234088  10.588   8.936   9.242
10731SOL     OW34089  14.549   2.009   7.479
10731SOL    HW134090  14.525   1.942   7.415
10731SOL    HW234091  14.640   1.987   7.503
10732SOL     OW34092  12.626   4.218  11.285
10732SOL    HW134093  12.590   4.229  11.373
10732SOL    HW234094  12.699   4.281  11.282
10733SOL     OW34095   4.671  11.457   6.435
10733SOL    HW134096   4.733  11.392   6.467
10733SOL    HW234097   4.586  11.412   6.437
10734SOL     OW34098  14.709   5.415   8.082
10734SOL    HW134099  14.796   5.455   8.074
10734SOL    HW234100  14.662   5.446   8.005
10735SOL     OW34101   1.372   5.280   8.376
10735SOL    HW134102   1.454   5.261   8.331
10735SOL    HW234103   1.397   5.297   8.466
10736SOL     OW34104   9.964  11.804   7.773
10736SOL    HW134105  10.027  11.732   7.763
10736SOL    HW234106  10.016  11.883   7.759
10737SOL     OW34107   1.822   6.767   5.565
10737SOL    HW134108   1.773   6.693   5.601
10737SOL    HW234109   1.776   6.844   5.599
10738SOL     OW34110   3.567   2.907   2.721
10738SOL    HW134111   3.587   2.974   2.655
10738SOL    HW234112   3.651   2.863   2.736
10739SOL     OW34113   0.576   8.503   4.138
10739SOL    HW134114   0.615   8.434   4.084
10739SOL    HW234115   0.603   8.584   4.094
10740SOL     OW34116  13.019   7.608   8.698
10740SOL    HW134117  13.087   7.665   8.664
10740SOL    HW234118  13.061   7.522   8.706
10741SOL     OW34119  12.892   7.588  10.851
10741SOL    HW134120  12.803   7.582  10.816
10741SOL    HW234121  12.886   7.649  10.924
10742SOL     OW34122   5.284   3.637   5.716
10742SOL    HW134123   5.228   3.624   5.640
10742SOL    HW234124   5.226   3.618   5.791
10743SOL     OW34125  10.693   8.417   7.772
10743SOL    HW134126  10.712   8.333   7.730
10743SOL    HW234127  10.645   8.467   7.706
10744SOL     OW34128  10.413   4.380   5.672
10744SOL    HW134129  10.444   4.335   5.751
10744SOL    HW234130  10.486   4.437   5.647
10745SOL     OW34131   5.175   5.882   0.330
10745SOL    HW134132   5.210   5.970   0.322
10745SOL    HW234133   5.250   5.828   0.355
10746SOL     OW34134  10.736   8.616   7.994
10746SOL    HW134135  10.732   8.539   7.938
10746SOL    HW234136  10.685   8.593   8.071
10747SOL     OW34137   2.556   1.554   1.431
10747SOL    HW134138   2.597   1.626   1.384
10747SOL    HW234139   2.623   1.486   1.435
10748SOL     OW34140   7.267  10.159   7.966
10748SOL    HW134141   7.272  10.073   8.007
10748SOL    HW234142   7.261  10.220   8.039
10749SOL     OW34143   8.509  13.068   0.212
10749SOL    HW134144   8.428  13.098   0.170
10749SOL    HW234145   8.480  13.007   0.279
10750SOL     OW34146   3.039   9.831   3.860
10750SOL    HW134147   3.076   9.757   3.908
10750SOL    HW234148   3.100   9.903   3.875
10751SOL     OW34149   0.195  11.538   0.128
10751SOL    HW134150   0.147  11.522   0.046
10751SOL    HW234151   0.140  11.499   0.196
10752SOL     OW34152   6.091   8.780   4.733
10752SOL    HW134153   6.172   8.829   4.748
10752SOL    HW234154   6.029   8.846   4.703
10753SOL     OW34155   8.437   8.832  14.584
10753SOL    HW134156   8.444   8.782  14.502
10753SOL    HW234157   8.420   8.766  14.651
10754SOL     OW34158   5.897  11.220  11.466
10754SOL    HW134159   5.937  11.140  11.431
10754SOL    HW234160   5.914  11.286  11.400
10755SOL     OW34161  12.262   6.064  12.445
10755SOL    HW134162  12.182   6.109  12.420
10755SOL    HW234163  12.258   5.980  12.398
10756SOL     OW34164   0.703   7.549  11.220
10756SOL    HW134165   0.666   7.619  11.273
10756SOL    HW234166   0.728   7.481  11.283
10757SOL     OW34167   8.114   3.449   7.631
10757SOL    HW134168   8.119   3.356   7.654
10757SOL    HW234169   8.071   3.450   7.546
10758SOL     OW34170   2.184  10.674  12.559
10758SOL    HW134171   2.206  10.713  12.644
10758SOL    HW234172   2.221  10.734  12.494
10759SOL     OW34173   8.019   9.884  12.516
10759SOL    HW134174   8.052   9.906  12.428
10759SOL    HW234175   7.925   9.872  12.503
10760SOL     OW34176  11.322   8.589   1.045
10760SOL    HW134177  11.288   8.517   1.098
10760SOL    HW234178  11.256   8.657   1.050
10761SOL     OW34179  11.256   4.836   8.949
10761SOL    HW134180  11.260   4.918   8.900
10761SOL    HW234181  11.283   4.860   9.038
10762SOL     OW34182   1.611  11.258  12.776
10762SOL    HW134183   1.586  11.326  12.713
10762SOL    HW234184   1.648  11.306  12.850
10763SOL     OW34185   8.886   4.690  12.019
10763SOL    HW134186   8.932   4.693  11.935
10763SOL    HW234187   8.794   4.703  11.996
10764SOL     OW34188   2.698  13.896   3.802
10764SOL    HW134189   2.707  13.873   3.894
10764SOL    HW234190   2.709  13.991   3.799
10765SOL     OW34191   9.466   1.010   3.207
10765SOL    HW134192   9.433   0.927   3.174
10765SOL    HW234193   9.500   0.990   3.294
10766SOL     OW34194   9.149  10.098   8.730
10766SOL    HW134195   9.209  10.039   8.775
10766SOL    HW234196   9.171  10.089   8.638
10767SOL     OW34197   8.543   3.459   7.814
10767SOL    HW134198   8.480   3.490   7.748
10767SOL    HW234199   8.539   3.525   7.883
10768SOL     OW34200   7.987  12.626   4.724
10768SOL    HW134201   8.018  12.590   4.641
10768SOL    HW234202   7.896  12.599   4.730
10769SOL     OW34203   1.916  11.521  14.759
10769SOL    HW134204   1.941  11.612  14.745
10769SOL    HW234205   1.999  11.474  14.768
10770SOL     OW34206   8.341   9.654   5.171
10770SOL    HW134207   8.361   9.716   5.100
10770SOL    HW234208   8.348   9.706   5.251
10771SOL     OW34209  12.388  10.436   7.213
10771SOL    HW134210  12.297  10.425   7.183
10771SOL    HW234211  12.380  10.467   7.304
10772SOL     OW34212   0.621   6.582   0.867
10772SOL    HW134213   0.633   6.580   0.962
10772SOL    HW234214   0.526   6.584   0.855
10773SOL     OW34215   9.186  13.950   3.241
10773SOL    HW134216   9.227  14.019   3.189
10773SOL    HW234217   9.154  13.995   3.320
10774SOL     OW34218   0.643   8.983  11.772
10774SOL    HW134219   0.598   8.911  11.817
10774SOL    HW234220   0.669   9.042  11.843
10775SOL     OW34221  10.910   0.684   4.874
10775SOL    HW134222  10.993   0.637   4.866
10775SOL    HW234223  10.845   0.616   4.892
10776SOL     OW34224   5.856  14.194   8.106
10776SOL    HW134225   5.785  14.247   8.068
10776SOL    HW234226   5.810  14.123   8.151
10777SOL     OW34227  13.804  12.604   4.145
10777SOL    HW134228  13.887  12.627   4.188
10777SOL    HW234229  13.819  12.622   4.052
10778SOL     OW34230  10.944   4.224  13.976
10778SOL    HW134231  11.031   4.262  13.981
10778SOL    HW234232  10.888   4.295  13.946
10779SOL     OW34233  14.721  14.568   3.456
10779SOL    HW134234  14.739  14.535   3.544
10779SOL    HW234235  14.773  14.648   3.449
10780SOL     OW34236   5.950   5.414   5.011
10780SOL    HW134237   5.933   5.479   5.080
10780SOL    HW234238   5.924   5.459   4.930
10781SOL     OW34239  10.517   9.411  11.286
10781SOL    HW134240  10.463   9.483  11.318
10781SOL    HW234241  10.455   9.352  11.242
10782SOL     OW34242   2.470  14.710   1.046
10782SOL    HW134243   2.526  14.787   1.058
10782SOL    HW234244   2.402  14.720   1.113
10783SOL     OW34245   4.131   4.543   1.751
10783SOL    HW134246   4.152   4.575   1.839
10783SOL    HW234247   4.137   4.448   1.758
10784SOL     OW34248   8.216   3.850  14.729
10784SOL    HW134249   8.139   3.794  14.738
10784SOL    HW234250   8.180   3.935  14.704
10785SOL     OW34251   6.907  11.402   3.789
10785SOL    HW134252   6.999  11.392   3.815
10785SOL    HW234253   6.883  11.490   3.817
10786SOL     OW34254   9.300   6.690   9.017
10786SOL    HW134255   9.308   6.755   9.087
10786SOL    HW234256   9.294   6.741   8.937
10787SOL     OW34257  13.944   3.743   8.052
10787SOL    HW134258  13.955   3.831   8.088
10787SOL    HW234259  13.881   3.754   7.981
10788SOL     OW34260   7.450   3.965   6.313
10788SOL    HW134261   7.365   4.007   6.329
10788SOL    HW234262   7.428   3.873   6.296
10789SOL     OW34263   6.692   6.800   4.287
10789SOL    HW134264   6.741   6.777   4.366
10789SOL    HW234265   6.600   6.786   4.311
10790SOL     OW34266  14.870   3.255  10.944
10790SOL    HW134267   0.077   3.297  10.910
10790SOL    HW234268   0.026   3.215  11.026
10791SOL     OW34269  14.427   3.448  13.516
10791SOL    HW134270  14.348   3.431  13.465
10791SOL    HW234271  14.452   3.361  13.550
10792SOL     OW34272  13.029   2.737   8.469
10792SOL    HW134273  13.112   2.724   8.513
10792SOL    HW234274  13.025   2.667   8.404
10793SOL     OW34275  11.057   6.016   0.649
10793SOL    HW134276  10.966   5.995   0.626
10793SOL    HW234277  11.108   5.947   0.607
10794SOL     OW34278  12.162   5.810  10.393
10794SOL    HW134279  12.102   5.885  10.388
10794SOL    HW234280  12.108   5.738  10.426
10795SOL     OW34281   1.547   4.762   3.333
10795SOL    HW134282   1.474   4.702   3.320
10795SOL    HW234283   1.557   4.807   3.248
10796SOL     OW34284   0.577   1.077   5.698
10796SOL    HW134285   0.657   1.065   5.750
10796SOL    HW234286   0.608   1.109   5.613
10797SOL     OW34287  12.639   2.052   2.745
10797SOL    HW134288  12.728   2.054   2.711
10797SOL    HW234289  12.630   1.964   2.783
10798SOL     OW34290   1.767  11.884   2.915
10798SOL    HW134291   1.749  11.974   2.887
10798SOL    HW234292   1.702  11.831   2.870
10799SOL     OW34293  10.258   6.663  12.889
10799SOL    HW134294  10.180   6.638  12.938
10799SOL    HW234295  10.297   6.734  12.940
10800SOL     OW34296   6.111  14.792   5.885
10800SOL    HW134297   6.095  14.861   5.821
10800SOL    HW234298   6.033  14.736   5.881
10801SOL     OW34299   6.670   7.014  13.309
10801SOL    HW134300   6.638   7.070  13.378
10801SOL    HW234301   6.645   7.058  13.228
10802SOL     OW34302   7.998   5.365  10.882
10802SOL    HW134303   8.073   5.376  10.823
10802SOL    HW234304   7.937   5.310  10.834
10803SOL     OW34305   8.179   1.423   6.052
10803SOL    HW134306   8.105   1.385   6.098
10803SOL    HW234307   8.142   1.453   5.968
10804SOL     OW34308   1.485   8.331   1.912
10804SOL    HW134309   1.463   8.334   1.819
10804SOL    HW234310   1.409   8.367   1.956
10805SOL     OW34311  12.388  14.533   3.847
10805SOL    HW134312  12.303  14.556   3.810
10805SOL    HW234313  12.406  14.445   3.813
10806SOL     OW34314   1.720   4.007   8.765
10806SOL    HW134315   1.792   4.017   8.828
10806SOL    HW234316   1.754   3.946   8.700
10807SOL     OW34317  10.661  12.472  10.205
10807SOL    HW134318  10.627  12.556  10.235
10807SOL    HW234319  10.656  12.414  10.281
10808SOL     OW34320   8.682   7.170  13.639
10808SOL    HW134321   8.617   7.238  13.659
10808SOL    HW234322   8.708   7.188  13.548
10809SOL     OW34323   8.153   1.922   5.808
10809SOL    HW134324   8.234   1.972   5.814
10809SOL    HW234325   8.110   1.935   5.892
10810SOL     OW34326   5.687  12.281   5.740
10810SOL    HW134327   5.685  12.241   5.827
10810SOL    HW234328   5.621  12.233   5.690
10811SOL     OW34329   0.981   7.964  14.512
10811SOL    HW134330   0.963   7.913  14.433
10811SOL    HW234331   0.922   7.928  14.578
10812SOL     OW34332   1.877   1.652   5.077
10812SOL    HW134333   1.843   1.641   4.988
10812SOL    HW234334   1.951   1.591   5.083
10813SOL     OW34335   1.878  13.945   5.963
10813SOL    HW134336   1.911  13.941   5.873
10813SOL    HW234337   1.938  13.889   6.013
10814SOL     OW34338  12.759   2.720  11.874
10814SOL    HW134339  12.780   2.791  11.813
10814SOL    HW234340  12.687   2.755  11.927
10815SOL     OW34341   5.168   1.506  12.294
10815SOL    HW134342   5.114   1.574  12.255
10815SOL    HW234343   5.235   1.488  12.227
10816SOL     OW34344   2.141  12.181   7.822
10816SOL    HW134345   2.231  12.172   7.853
10816SOL    HW234346   2.126  12.275   7.816
10817SOL     OW34347   7.564   6.844   1.756
10817SOL    HW134348   7.574   6.924   1.704
10817SOL    HW234349   7.556   6.774   1.691
10818SOL     OW34350   1.264  12.379   0.279
10818SOL    HW134351   1.355  12.402   0.257
10818SOL    HW234352   1.271  12.326   0.358
10819SOL     OW34353  11.396   0.049   7.987
10819SOL    HW134354  11.472   0.058   7.930
10819SOL    HW234355  11.432   0.019   8.071
10820SOL     OW34356  13.403  14.613   9.629
10820SOL    HW134357  13.361  14.576   9.707
10820SOL    HW234358  13.466  14.676   9.664
10821SOL     OW34359   0.087  13.761  13.180
10821SOL    HW134360   0.144  13.774  13.103
10821SOL    HW234361   0.148  13.750  13.253
10822SOL     OW34362   8.007  10.391   8.665
10822SOL    HW134363   8.022  10.471   8.714
10822SOL    HW234364   8.033  10.320   8.724
10823SOL     OW34365  12.901   7.310   7.804
10823SOL    HW134366  12.925   7.222   7.831
10823SOL    HW234367  12.911   7.363   7.884
10824SOL     OW34368   4.785   4.211   6.619
10824SOL    HW134369   4.756   4.181   6.532
10824SOL    HW234370   4.768   4.305   6.618
10825SOL     OW34371   2.616  13.084   3.532
10825SOL    HW134372   2.573  13.000   3.549
10825SOL    HW234373   2.710  13.064   3.540
10826SOL     OW34374  13.860  12.400  12.557
10826SOL    HW134375  13.853  12.474  12.617
10826SOL    HW234376  13.808  12.426  12.480
10827SOL     OW34377   3.236   5.117   9.209
10827SOL    HW134378   3.307   5.085   9.265
10827SOL    HW234379   3.259   5.086   9.121
10828SOL     OW34380  11.501   1.158   2.076
10828SOL    HW134381  11.573   1.141   2.015
10828SOL    HW234382  11.422   1.156   2.022
10829SOL     OW34383  14.789   4.005   2.052
10829SOL    HW134384  14.788   4.084   1.998
10829SOL    HW234385  14.697   3.979   2.059
10830SOL     OW34386  13.937   8.310  10.908
10830SOL    HW134387  14.010   8.367  10.933
10830SOL    HW234388  13.969   8.221  10.926
10831SOL     OW34389  14.823   3.671   4.676
10831SOL    HW134390  14.741   3.698   4.719
10831SOL    HW234391  14.794   3.620   4.601
10832SOL     OW34392   2.680   3.809   2.044
10832SOL    HW134393   2.743   3.786   1.976
10832SOL    HW234394   2.602   3.757   2.025
10833SOL     OW34395   7.712  14.543  11.362
10833SOL    HW134396   7.711  14.489  11.283
10833SOL    HW234397   7.658  14.619  11.340
10834SOL     OW34398   6.413   1.925   6.535
10834SOL    HW134399   6.364   1.846   6.510
10834SOL    HW234400   6.439   1.964   6.451
10835SOL     OW34401   8.332   4.253   1.081
10835SOL    HW134402   8.315   4.198   1.157
10835SOL    HW234403   8.290   4.337   1.102
10836SOL     OW34404   3.877   1.767   1.289
10836SOL    HW134405   3.881   1.764   1.385
10836SOL    HW234406   3.792   1.806   1.270
10837SOL     OW34407   7.357   1.803   9.062
10837SOL    HW134408   7.387   1.719   9.098
10837SOL    HW234409   7.421   1.823   8.993
10838SOL     OW34410  12.018   4.004   5.002
10838SOL    HW134411  12.099   3.962   4.974
10838SOL    HW234412  11.970   4.019   4.921
10839SOL     OW34413  12.499   3.712  10.348
10839SOL    HW134414  12.594   3.709  10.361
10839SOL    HW234415  12.464   3.678  10.430
10840SOL     OW34416   4.183   0.991   4.796
10840SOL    HW134417   4.097   1.029   4.780
10840SOL    HW234418   4.234   1.060   4.838
10841SOL     OW34419  14.668   7.470  13.503
10841SOL    HW134420  14.758   7.459  13.470
10841SOL    HW234421  14.638   7.382  13.521
10842SOL     OW34422   1.865  14.870   5.447
10842SOL    HW134423   1.848   0.067   5.384
10842SOL    HW234424   1.787  14.867   5.502
10843SOL     OW34425  11.249  13.009   4.410
10843SOL    HW134426  11.218  13.095   4.382
10843SOL    HW234427  11.326  13.028   4.463
10844SOL     OW34428   7.850   7.539   3.602
10844SOL    HW134429   7.909   7.603   3.642
10844SOL    HW234430   7.899   7.457   3.606
10845SOL     OW34431   9.351   9.713  12.678
10845SOL    HW134432   9.430   9.757  12.647
10845SOL    HW234433   9.282   9.746  12.620
10846SOL     OW34434  10.441   2.672   3.770
10846SOL    HW134435  10.360   2.707   3.732
10846SOL    HW234436  10.445   2.710   3.858
10847SOL     OW34437  14.547   5.756  11.777
10847SOL    HW134438  14.457   5.733  11.803
10847SOL    HW234439  14.542   5.849  11.755
10848SOL     OW34440   4.777   2.166   4.449
10848SOL    HW134441   4.837   2.164   4.374
10848SOL    HW234442   4.790   2.083   4.494
10849SOL     OW34443  10.346   2.485   9.815
10849SOL    HW134444  10.376   2.457   9.729
10849SOL    HW234445  10.417   2.538   9.851
10850SOL     OW34446   7.931  14.584   8.974
10850SOL    HW134447   7.871  14.652   9.002
10850SOL    HW234448   7.906  14.507   9.025
10851SOL     OW34449  13.540   5.804   4.479
10851SOL    HW134450  13.552   5.756   4.561
10851SOL    HW234451  13.465   5.861   4.495
10852SOL     OW34452   1.568  12.459  14.285
10852SOL    HW134453   1.513  12.517  14.338
10852SOL    HW234454   1.509  12.387  14.260
10853SOL     OW34455  10.514  10.707   2.351
10853SOL    HW134456  10.501  10.622   2.393
10853SOL    HW234457  10.570  10.755   2.412
10854SOL     OW34458  11.946  10.940   0.055
10854SOL    HW134459  12.007  10.867   0.069
10854SOL    HW234460  11.861  10.906   0.083
10855SOL     OW34461   8.205  12.368  12.509
10855SOL    HW134462   8.215  12.463  12.505
10855SOL    HW234463   8.127  12.350  12.456
10856SOL     OW34464   2.682  13.701   7.309
10856SOL    HW134465   2.635  13.620   7.329
10856SOL    HW234466   2.693  13.744   7.394
10857SOL     OW34467   6.995   6.624   2.342
10857SOL    HW134468   7.009   6.529   2.342
10857SOL    HW234469   6.976   6.645   2.250
10858SOL     OW34470   3.777   9.737   8.620
10858SOL    HW134471   3.823   9.821   8.613
10858SOL    HW234472   3.846   9.672   8.607
10859SOL     OW34473   2.644  10.833   9.486
10859SOL    HW134474   2.722  10.861   9.534
10859SOL    HW234475   2.677  10.777   9.416
10860SOL     OW34476  14.440   7.011  11.380
10860SOL    HW134477  14.369   7.055  11.425
10860SOL    HW234478  14.403   6.984  11.296
10861SOL     OW34479   7.301  14.186   2.090
10861SOL    HW134480   7.303  14.221   2.001
10861SOL    HW234481   7.381  14.218   2.131
10862SOL     OW34482   3.067   0.051   4.275
10862SOL    HW134483   3.076  14.831   4.251
10862SOL    HW234484   2.986   0.056   4.325
10863SOL     OW34485   0.634   4.050   3.215
10863SOL    HW134486   0.593   3.973   3.174
10863SOL    HW234487   0.678   4.016   3.293
10864SOL     OW34488   5.325  14.793   8.661
10864SOL    HW134489   5.302  14.779   8.569
10864SOL    HW234490   5.347   0.014   8.667
10865SOL     OW34491   6.381   8.682   2.193
10865SOL    HW134492   6.297   8.714   2.224
10865SOL    HW234493   6.440   8.691   2.268
10866SOL     OW34494   0.255   4.807   3.726
10866SOL    HW134495   0.184   4.872   3.725
10866SOL    HW234496   0.315   4.837   3.658
10867SOL     OW34497   7.988   9.190   2.653
10867SOL    HW134498   8.046   9.150   2.717
10867SOL    HW234499   8.046   9.223   2.585
10868SOL     OW34500   5.504  14.063   2.059
10868SOL    HW134501   5.559  14.134   2.089
10868SOL    HW234502   5.440  14.104   2.002
10869SOL     OW34503   2.898  14.598   2.807
10869SOL    HW134504   2.968  14.539   2.832
10869SOL    HW234505   2.935  14.686   2.818
10870SOL     OW34506   6.536   4.094   8.479
10870SOL    HW134507   6.494   4.009   8.486
10870SOL    HW234508   6.624   4.082   8.515
10871SOL     OW34509  14.337   0.470   7.834
10871SOL    HW134510  14.320   0.398   7.896
10871SOL    HW234511  14.289   0.445   7.755
10872SOL     OW34512   3.407   7.060   2.964
10872SOL    HW134513   3.364   7.128   2.914
10872SOL    HW234514   3.466   7.107   3.023
10873SOL     OW34515  14.662   5.702   3.014
10873SOL    HW134516  14.681   5.755   2.937
10873SOL    HW234517  14.568   5.714   3.028
10874SOL     OW34518  14.575  12.640   3.887
10874SOL    HW134519  14.612  12.554   3.905
10874SOL    HW234520  14.483  12.633   3.911
10875SOL     OW34521   2.238   5.284  13.866
10875SOL    HW134522   2.269   5.253  13.781
10875SOL    HW234523   2.144   5.269  13.865
10876SOL     OW34524   3.987   6.541  12.657
10876SOL    HW134525   4.064   6.490  12.632
10876SOL    HW234526   4.021   6.628  12.677
10877SOL     OW34527   2.278   3.637  10.894
10877SOL    HW134528   2.260   3.543  10.905
10877SOL    HW234529   2.348   3.641  10.830
10878SOL     OW34530  14.792   0.380   1.919
10878SOL    HW134531  14.847   0.312   1.959
10878SOL    HW234532  14.854   0.449   1.896
10879SOL     OW34533  13.368  13.194   3.322
10879SOL    HW134534  13.352  13.114   3.271
10879SOL    HW234535  13.309  13.188   3.396
10880SOL     OW34536  12.631   6.666   6.610
10880SOL    HW134537  12.646   6.595   6.547
10880SOL    HW234538  12.536   6.681   6.606
10881SOL     OW34539   3.298   2.593   6.751
10881SOL    HW134540   3.219   2.624   6.707
10881SOL    HW234541   3.315   2.658   6.819
10882SOL     OW34542   7.692   1.377  10.835
10882SOL    HW134543   7.690   1.443  10.766
10882SOL    HW234544   7.620   1.318  10.814
10883SOL     OW34545   1.101   1.519  13.467
10883SOL    HW134546   1.178   1.462  13.455
10883SOL    HW234547   1.116   1.592  13.407
10884SOL     OW34548  13.169   9.693   8.045
10884SOL    HW134549  13.100   9.626   8.044
10884SOL    HW234550  13.164   9.733   7.958
10885SOL     OW34551   0.175   0.249  11.976
10885SOL    HW134552   0.165   0.155  11.987
10885SOL    HW234553   0.203   0.260  11.885
10886SOL     OW34554   1.814   7.833  14.122
10886SOL    HW134555   1.720   7.828  14.141
10886SOL    HW234556   1.834   7.749  14.079
10887SOL     OW34557   1.678   1.152   4.337
10887SOL    HW134558   1.741   1.139   4.408
10887SOL    HW234559   1.643   1.240   4.352
10888SOL     OW34560   6.941   1.811   2.185
10888SOL    HW134561   6.911   1.838   2.098
10888SOL    HW234562   6.962   1.718   2.175
10889SOL     OW34563   1.499  10.947   5.175
10889SOL    HW134564   1.496  10.956   5.271
10889SOL    HW234565   1.591  10.964   5.153
10890SOL     OW34566   5.097  11.011  12.319
10890SOL    HW134567   5.163  11.058  12.369
10890SOL    HW234568   5.121  10.919  12.328
10891SOL     OW34569  11.734   7.776   7.389
10891SOL    HW134570  11.720   7.871   7.396
10891SOL    HW234571  11.822   7.762   7.425
10892SOL     OW34572  11.351   6.973  13.869
10892SOL    HW134573  11.379   6.883  13.885
10892SOL    HW234574  11.280   6.965  13.806
10893SOL     OW34575   5.945  13.222  11.683
10893SOL    HW134576   5.901  13.289  11.631
10893SOL    HW234577   6.032  13.214  11.645
10894SOL     OW34578  12.578   3.132  11.385
10894SOL    HW134579  12.559   3.044  11.356
10894SOL    HW234580  12.624   3.120  11.469
10895SOL     OW34581   0.238  14.862  12.288
10895SOL    HW134582   0.281  14.777  12.297
10895SOL    HW234583   0.260   0.019  12.200
10896SOL     OW34584   1.321   5.889   6.122
10896SOL    HW134585   1.244   5.900   6.178
10896SOL    HW234586   1.381   5.836   6.174
10897SOL     OW34587  13.723   9.401   3.383
10897SOL    HW134588  13.806   9.410   3.429
10897SOL    HW234589  13.706   9.488   3.347
10898SOL     OW34590  10.911  11.446   8.892
10898SOL    HW134591  10.890  11.384   8.961
10898SOL    HW234592  10.852  11.424   8.820
10899SOL     OW34593   6.618   7.149   2.226
10899SOL    HW134594   6.698   7.133   2.276
10899SOL    HW234595   6.580   7.227   2.267
10900SOL     OW34596  14.091   6.709   2.738
10900SOL    HW134597  14.174   6.692   2.693
10900SOL    HW234598  14.069   6.799   2.715
10901SOL     OW34599   5.885   6.925  12.513
10901SOL    HW134600   5.939   6.970  12.578
10901SOL    HW234601   5.884   6.984  12.438
10902SOL     OW34602  10.525   3.195   2.957
10902SOL    HW134603  10.558   3.129   3.018
10902SOL    HW234604  10.540   3.279   3.001
10903SOL     OW34605   0.821  14.794   2.372
10903SOL    HW134606   0.795  14.707   2.404
10903SOL    HW234607   0.744  14.849   2.386
10904SOL     OW34608   3.309   8.318   0.139
10904SOL    HW134609   3.361   8.263   0.198
10904SOL    HW234610   3.274   8.256   0.075
10905SOL     OW34611   2.809  11.364   7.497
10905SOL    HW134612   2.838  11.399   7.581
10905SOL    HW234613   2.730  11.314   7.518
10906SOL     OW34614  10.993  11.246   4.690
10906SOL    HW134615  10.910  11.280   4.656
10906SOL    HW234616  10.971  11.159   4.722
10907SOL     OW34617  12.888   3.670  14.415
10907SOL    HW134618  12.831   3.738  14.451
10907SOL    HW234619  12.947   3.648  14.488
10908SOL     OW34620  10.800   6.604  12.473
10908SOL    HW134621  10.884   6.642  12.451
10908SOL    HW234622  10.760   6.582  12.389
10909SOL     OW34623  11.063  13.195   3.051
10909SOL    HW134624  11.055  13.153   2.966
10909SOL    HW234625  11.051  13.289   3.033
10910SOL     OW34626   9.041  12.793   7.882
10910SOL    HW134627   8.969  12.792   7.820
10910SOL    HW234628   9.070  12.702   7.887
10911SOL     OW34629  12.340   5.730   7.692
10911SOL    HW134630  12.315   5.745   7.784
10911SOL    HW234631  12.325   5.814   7.650
10912SOL     OW34632  13.544  10.385   1.010
10912SOL    HW134633  13.508  10.469   1.041
10912SOL    HW234634  13.510  10.376   0.921
10913SOL     OW34635   3.479  12.490   1.329
10913SOL    HW134636   3.385  12.478   1.342
10913SOL    HW234637   3.517  12.404   1.349
10914SOL     OW34638   6.017   2.823   4.917
10914SOL    HW134639   6.034   2.871   4.998
10914SOL    HW234640   6.006   2.732   4.945
10915SOL     OW34641   6.946  11.828   6.469
10915SOL    HW134642   6.924  11.761   6.405
10915SOL    HW234643   7.042  11.827   6.473
10916SOL     OW34644  14.837   0.830   2.959
10916SOL    HW134645  14.779   0.851   3.032
10916SOL    HW234646   0.023   0.907   2.953
10917SOL     OW34647   5.048   4.661  10.734
10917SOL    HW134648   4.964   4.696  10.703
10917SOL    HW234649   5.026   4.619  10.818
10918SOL     OW34650   4.876   7.400   9.927
10918SOL    HW134651   4.886   7.311   9.892
10918SOL    HW234652   4.933   7.402  10.004
10919SOL     OW34653   0.240   1.099  13.039
10919SOL    HW134654   0.213   1.059  13.121
10919SOL    HW234655   0.260   1.025  12.981
10920SOL     OW34656  11.935  14.197   7.040
10920SOL    HW134657  11.857  14.161   7.083
10920SOL    HW234658  11.923  14.176   6.948
10921SOL     OW34659   6.697   0.631   2.623
10921SOL    HW134660   6.765   0.632   2.555
10921SOL    HW234661   6.640   0.705   2.600
10922SOL     OW34662   6.736   3.700   5.450
10922SOL    HW134663   6.690   3.768   5.400
10922SOL    HW234664   6.669   3.634   5.468
10923SOL     OW34665   9.569   7.116   5.381
10923SOL    HW134666   9.545   7.057   5.452
10923SOL    HW234667   9.572   7.059   5.303
10924SOL     OW34668   2.857  13.125  10.800
10924SOL    HW134669   2.771  13.125  10.842
10924SOL    HW234670   2.905  13.055  10.843
10925SOL     OW34671   1.568   0.333  11.077
10925SOL    HW134672   1.546   0.341  11.170
10925SOL    HW234673   1.638   0.396  11.063
10926SOL     OW34674   1.577   9.390   2.003
10926SOL    HW134675   1.553   9.415   2.092
10926SOL    HW234676   1.495   9.390   1.955
10927SOL     OW34677   1.401   0.634   7.474
10927SOL    HW134678   1.460   0.708   7.492
10927SOL    HW234679   1.327   0.647   7.533
10928SOL     OW34680  10.342   4.628   2.968
10928SOL    HW134681  10.349   4.710   2.919
10928SOL    HW234682  10.252   4.600   2.954
10929SOL     OW34683   9.690   6.738   0.416
10929SOL    HW134684   9.617   6.799   0.404
10929SOL    HW234685   9.656   6.654   0.386
10930SOL     OW34686   4.980   5.855   3.936
10930SOL    HW134687   4.960   5.775   3.985
10930SOL    HW234688   4.900   5.873   3.886
10931SOL     OW34689   8.412   0.879  14.279
10931SOL    HW134690   8.451   0.924  14.354
10931SOL    HW234691   8.358   0.946  14.236
10932SOL     OW34692   0.593   2.137  11.842
10932SOL    HW134693   0.585   2.093  11.927
10932SOL    HW234694   0.546   2.219  11.853
10933SOL     OW34695   5.010   1.811  11.283
10933SOL    HW134696   5.063   1.732  11.294
10933SOL    HW234697   4.926   1.789  11.323
10934SOL     OW34698  13.224   4.751   1.528
10934SOL    HW134699  13.195   4.731   1.439
10934SOL    HW234700  13.160   4.814   1.561
10935SOL     OW34701  10.873   6.567   2.736
10935SOL    HW134702  10.908   6.477   2.740
10935SOL    HW234703  10.937   6.615   2.683
10936SOL     OW34704   6.846   3.380   3.218
10936SOL    HW134705   6.870   3.472   3.225
10936SOL    HW234706   6.753   3.377   3.238
10937SOL     OW34707   9.783   0.644   1.514
10937SOL    HW134708   9.775   0.553   1.542
10937SOL    HW234709   9.829   0.688   1.586
10938SOL     OW34710  11.137  11.214   9.728
10938SOL    HW134711  11.154  11.184   9.817
10938SOL    HW234712  11.042  11.221   9.723
10939SOL     OW34713   1.170   8.511   6.920
10939SOL    HW134714   1.139   8.436   6.970
10939SOL    HW234715   1.265   8.505   6.923
10940SOL     OW34716   4.642  11.044   2.236
10940SOL    HW134717   4.688  11.092   2.305
10940SOL    HW234718   4.579  10.989   2.283
10941SOL     OW34719   3.611   0.404   4.380
10941SOL    HW134720   3.595   0.442   4.293
10941SOL    HW234721   3.529   0.360   4.403
10942SOL     OW34722   7.515   4.433   1.785
10942SOL    HW134723   7.521   4.523   1.752
10942SOL    HW234724   7.524   4.378   1.706
10943SOL     OW34725   6.924  13.995   4.528
10943SOL    HW134726   6.878  13.940   4.465
10943SOL    HW234727   6.856  14.052   4.564
10944SOL     OW34728   2.200   2.084  13.373
10944SOL    HW134729   2.277   2.076  13.318
10944SOL    HW234730   2.137   2.131  13.319
10945SOL     OW34731   4.039   6.310   3.723
10945SOL    HW134732   4.020   6.374   3.655
10945SOL    HW234733   4.085   6.360   3.791
10946SOL     OW34734  12.038   7.426  12.484
10946SOL    HW134735  11.997   7.493  12.428
10946SOL    HW234736  11.968   7.363  12.500
10947SOL     OW34737   9.899  12.546   8.794
10947SOL    HW134738   9.820  12.553   8.846
10947SOL    HW234739   9.969  12.533   8.858
10948SOL     OW34740   2.642   1.274  12.220
10948SOL    HW134741   2.576   1.217  12.258
10948SOL    HW234742   2.651   1.243  12.130
10949SOL     OW34743   2.868   5.523   8.106
10949SOL    HW134744   2.783   5.520   8.149
10949SOL    HW234745   2.873   5.442   8.056
10950SOL     OW34746   2.610   9.775   0.865
10950SOL    HW134747   2.544   9.806   0.927
10950SOL    HW234748   2.690   9.821   0.891
10951SOL     OW34749  14.417  10.346  14.200
10951SOL    HW134750  14.355  10.344  14.128
10951SOL    HW234751  14.489  10.289  14.172
10952SOL     OW34752   4.903  12.315  11.117
10952SOL    HW134753   4.820  12.287  11.076
10952SOL    HW234754   4.969  12.294  11.051
10953SOL     OW34755  11.581  13.624   2.384
10953SOL    HW134756  11.536  13.701   2.348
10953SOL    HW234757  11.530  13.602   2.463
10954SOL     OW34758   2.216   6.469  13.379
10954SOL    HW134759   2.176   6.429  13.302
10954SOL    HW234760   2.154   6.538  13.404
10955SOL     OW34761  11.124   5.797   7.420
10955SOL    HW134762  11.062   5.726   7.438
10955SOL    HW234763  11.077   5.856   7.361
10956SOL     OW34764   1.167  12.594   6.819
10956SOL    HW134765   1.204  12.584   6.907
10956SOL    HW234766   1.206  12.523   6.768
10957SOL     OW34767  14.129   6.305  11.077
10957SOL    HW134768  14.195   6.306  11.009
10957SOL    HW234769  14.130   6.393  11.114
10958SOL     OW34770   0.805  14.383   4.668
10958SOL    HW134771   0.895  14.367   4.640
10958SOL    HW234772   0.776  14.299   4.704
10959SOL     OW34773   2.985   2.840  10.973
10959SOL    HW134774   2.906   2.870  11.018
10959SOL    HW234775   2.962   2.754  10.939
10960SOL     OW34776  14.339   8.135   7.187
10960SOL    HW134777  14.289   8.092   7.117
10960SOL    HW234778  14.431   8.124   7.161
10961SOL     OW34779  10.335  11.985   4.701
10961SOL    HW134780  10.255  11.961   4.748
10961SOL    HW234781  10.308  12.058   4.645
10962SOL     OW34782   6.960   6.236   1.378
10962SOL    HW134783   7.021   6.172   1.415
10962SOL    HW234784   7.009   6.279   1.308
10963SOL     OW34785   1.488   6.482  10.672
10963SOL    HW134786   1.475   6.552  10.735
10963SOL    HW234787   1.410   6.485  10.617
10964SOL     OW34788   7.106   0.733   5.513
10964SOL    HW134789   7.106   0.793   5.587
10964SOL    HW234790   7.075   0.650   5.550
10965SOL     OW34791   0.845  10.151  10.766
10965SOL    HW134792   0.884  10.096  10.699
10965SOL    HW234793   0.810  10.226  10.718
10966SOL     OW34794   3.726   9.928  11.418
10966SOL    HW134795   3.691   9.842  11.395
10966SOL    HW234796   3.793   9.910  11.484
10967SOL     OW34797  13.510   6.245  11.080
10967SOL    HW134798  13.463   6.194  11.146
10967SOL    HW234799  13.545   6.179  11.020
10968SOL     OW34800   2.461  11.852   1.771
10968SOL    HW134801   2.386  11.840   1.712
10968SOL    HW234802   2.440  11.931   1.821
10969SOL     OW34803   5.359   1.974   2.533
10969SOL    HW134804   5.353   1.928   2.449
10969SOL    HW234805   5.276   1.955   2.577
10970SOL     OW34806   5.894   0.416   7.410
10970SOL    HW134807   5.868   0.356   7.340
10970SOL    HW234808   5.911   0.499   7.365
10971SOL     OW34809  12.490  11.341   6.440
10971SOL    HW134810  12.452  11.381   6.517
10971SOL    HW234811  12.510  11.251   6.466
10972SOL     OW34812   3.186   9.301   1.003
10972SOL    HW134813   3.176   9.387   1.045
10972SOL    HW234814   3.254   9.314   0.938
10973SOL     OW34815   4.020  12.329   7.810
10973SOL    HW134816   4.087  12.383   7.770
10973SOL    HW234817   3.984  12.383   7.881
10974SOL     OW34818   5.302   2.346   1.859
10974SOL    HW134819   5.232   2.370   1.799
10974SOL    HW234820   5.270   2.266   1.902
10975SOL     OW34821   3.383  13.544   3.942
10975SOL    HW134822   3.354  13.630   3.972
10975SOL    HW234823   3.454  13.562   3.881
10976SOL     OW34824  11.936  10.270  13.385
10976SOL    HW134825  11.954  10.181  13.354
10976SOL    HW234826  11.886  10.258  13.465
10977SOL     OW34827   3.164   6.571  14.601
10977SOL    HW134828   3.202   6.616  14.525
10977SOL    HW234829   3.201   6.483  14.598
10978SOL     OW34830   1.287   1.527   7.935
10978SOL    HW134831   1.328   1.476   8.005
10978SOL    HW234832   1.264   1.462   7.868
10979SOL     OW34833   7.056   1.290   5.913
10979SOL    HW134834   6.963   1.286   5.936
10979SOL    HW234835   7.099   1.240   5.983
10980SOL     OW34836  14.040   2.217  14.655
10980SOL    HW134837  13.956   2.187  14.618
10980SOL    HW234838  14.104   2.195  14.587
10981SOL     OW34839  11.741   6.537  12.194
10981SOL    HW134840  11.743   6.468  12.261
10981SOL    HW234841  11.671   6.595  12.221
10982SOL     OW34842   9.707  11.074   8.893
10982SOL    HW134843   9.683  11.167   8.887
10982SOL    HW234844   9.802  11.074   8.896
10983SOL     OW34845   5.685   6.474   1.733
10983SOL    HW134846   5.653   6.497   1.820
10983SOL    HW234847   5.619   6.508   1.672
10984SOL     OW34848   7.769  13.377  14.067
10984SOL    HW134849   7.712  13.426  14.007
10984SOL    HW234850   7.708  13.338  14.130
10985SOL     OW34851   7.138   3.542   7.323
10985SOL    HW134852   7.175   3.629   7.334
10985SOL    HW234853   7.156   3.497   7.406
10986SOL     OW34854  10.525   5.441   0.504
10986SOL    HW134855  10.463   5.514   0.515
10986SOL    HW234856  10.607   5.474   0.542
10987SOL     OW34857  11.237  10.990  10.515
10987SOL    HW134858  11.258  10.913  10.569
10987SOL    HW234859  11.155  10.966  10.470
10988SOL     OW34860   3.119   9.295   3.515
10988SOL    HW134861   3.115   9.333   3.603
10988SOL    HW234862   3.140   9.369   3.458
10989SOL     OW34863   2.029   4.661   9.895
10989SOL    HW134864   2.006   4.573   9.925
10989SOL    HW234865   1.953   4.689   9.843
10990SOL     OW34866  11.555  11.785   1.348
10990SOL    HW134867  11.650  11.782   1.361
10990SOL    HW234868  11.543  11.755   1.258
10991SOL     OW34869   9.964   0.564   8.305
10991SOL    HW134870   9.963   0.629   8.235
10991SOL    HW234871  10.042   0.584   8.356
10992SOL     OW34872   2.999   9.222   1.713
10992SOL    HW134873   3.037   9.134   1.718
10992SOL    HW234874   3.025   9.264   1.795
10993SOL     OW34875   2.783  10.638   6.101
10993SOL    HW134876   2.874  10.665   6.088
10993SOL    HW234877   2.734  10.719   6.106
10994SOL     OW34878  10.946   0.825   0.317
10994SOL    HW134879  11.025   0.787   0.279
10994SOL    HW234880  10.876   0.766   0.291
10995SOL     OW34881  12.448   0.107  13.718
10995SOL    HW134882  12.489   0.158  13.787
10995SOL    HW234883  12.511   0.108  13.646
10996SOL     OW34884   7.760   5.160   5.025
10996SOL    HW134885   7.752   5.129   4.935
10996SOL    HW234886   7.698   5.233   5.031
10997SOL     OW34887   7.715   6.886   8.061
10997SOL    HW134888   7.635   6.848   8.024
10997SOL    HW234889   7.775   6.894   7.987
10998SOL     OW34890   5.726   2.401   1.889
10998SOL    HW134891   5.820   2.410   1.875
10998SOL    HW234892   5.718   2.337   1.959
10999SOL     OW34893  11.364  13.535   0.410
10999SOL    HW134894  11.416  13.583   0.346
10999SOL    HW234895  11.288  13.591   0.426
11000SOL     OW34896  12.946   2.085   2.029
11000SOL    HW134897  12.959   2.134   1.948
11000SOL    HW234898  12.980   1.997   2.010
11001SOL     OW34899   8.335   8.913  12.832
11001SOL    HW134900   8.282   8.900  12.754
11001SOL    HW234901   8.289   8.864  12.901
11002SOL     OW34902   5.359   1.246   2.264
11002SOL    HW134903   5.312   1.316   2.308
11002SOL    HW234904   5.451   1.272   2.272
11003SOL     OW34905   3.332   0.004   7.389
11003SOL    HW134906   3.284   0.066   7.334
11003SOL    HW234907   3.357  14.806   7.330
11004SOL     OW34908  13.702   6.270   6.086
11004SOL    HW134909  13.711   6.322   6.006
11004SOL    HW234910  13.718   6.331   6.157
11005SOL     OW34911   7.823  10.029   9.509
11005SOL    HW134912   7.741  10.022   9.461
11005SOL    HW234913   7.873   9.952   9.483
11006SOL     OW34914   3.211   1.876   7.539
11006SOL    HW134915   3.163   1.888   7.457
11006SOL    HW234916   3.187   1.788   7.568
11007SOL     OW34917   7.036   9.847   9.051
11007SOL    HW134918   6.949   9.842   9.089
11007SOL    HW234919   7.044   9.769   8.996
11008SOL     OW34920  11.557  11.788   2.699
11008SOL    HW134921  11.462  11.773   2.693
11008SOL    HW234922  11.595  11.721   2.642
11009SOL     OW34923   4.150  12.791   4.575
11009SOL    HW134924   4.061  12.774   4.608
11009SOL    HW234925   4.191  12.843   4.644
11010SOL     OW34926  14.834  12.741   4.092
11010SOL    HW134927  14.760  12.745   4.032
11010SOL    HW234928  14.821  12.662   4.143
11011SOL     OW34929  12.264   4.219   8.650
11011SOL    HW134930  12.176   4.192   8.673
11011SOL    HW234931  12.306   4.241   8.733
11012SOL     OW34932  14.771   9.999   5.151
11012SOL    HW134933  14.800   9.912   5.178
11012SOL    HW234934  14.686  10.010   5.193
11013SOL     OW34935  12.002   6.187   6.348
11013SOL    HW134936  12.002   6.138   6.266
11013SOL    HW234937  11.929   6.249   6.339
11014SOL     OW34938  13.362   5.900   4.121
11014SOL    HW134939  13.380   5.980   4.171
11014SOL    HW234940  13.276   5.871   4.152
11015SOL     OW34941   5.833  13.337  11.436
11015SOL    HW134942   5.800  13.422  11.465
11015SOL    HW234943   5.755  13.288  11.413
11016SOL     OW34944   9.770  14.366   2.231
11016SOL    HW134945   9.862  14.345   2.216
11016SOL    HW234946   9.745  14.312   2.306
11017SOL     OW34947   3.514  14.609   2.807
11017SOL    HW134948   3.462  14.630   2.730
11017SOL    HW234949   3.594  14.569   2.772
11018SOL     OW34950  11.902   8.993  11.336
11018SOL    HW134951  11.914   9.057  11.406
11018SOL    HW234952  11.840   8.930  11.371
11019SOL     OW34953   3.772  13.417   4.630
11019SOL    HW134954   3.829  13.433   4.554
11019SOL    HW234955   3.807  13.338   4.670
11020SOL     OW34956  12.714   1.625   7.876
11020SOL    HW134957  12.719   1.538   7.916
11020SOL    HW234958  12.806   1.652   7.868
11021SOL     OW34959   8.831   6.364  13.781
11021SOL    HW134960   8.773   6.291  13.759
11021SOL    HW234961   8.783   6.442  13.754
11022SOL     OW34962  11.271  12.272  12.748
11022SOL    HW134963  11.315  12.210  12.806
11022SOL    HW234964  11.224  12.331  12.807
11023SOL     OW34965  11.903   5.254   1.244
11023SOL    HW134966  11.854   5.315   1.189
11023SOL    HW234967  11.837   5.208   1.294
11024SOL     OW34968  14.314  11.489   7.493
11024SOL    HW134969  14.305  11.570   7.543
11024SOL    HW234970  14.360  11.515   7.414
11025SOL     OW34971  10.309  12.496   3.058
11025SOL    HW134972  10.223  12.472   3.091
11025SOL    HW234973  10.293  12.527   2.969
11026SOL     OW34974   9.527  10.264   9.626
11026SOL    HW134975   9.490  10.335   9.574
11026SOL    HW234976   9.616  10.293   9.647
11027SOL     OW34977  14.631   2.873  11.791
11027SOL    HW134978  14.675   2.878  11.876
11027SOL    HW234979  14.569   2.801  11.800
11028SOL     OW34980   5.294  12.957   7.714
11028SOL    HW134981   5.239  12.991   7.643
11028SOL    HW234982   5.340  13.034   7.747
11029SOL     OW34983   4.059  11.663   4.395
11029SOL    HW134984   4.073  11.578   4.437
11029SOL    HW234985   4.043  11.723   4.468
11030SOL     OW34986   9.130   9.553   5.000
11030SOL    HW134987   9.111   9.460   4.991
11030SOL    HW234988   9.154   9.581   4.911
11031SOL     OW34989   2.058   8.402   3.142
11031SOL    HW134990   2.112   8.448   3.207
11031SOL    HW234991   2.121   8.368   3.078
11032SOL     OW34992  12.058   3.042   8.801
11032SOL    HW134993  12.023   3.027   8.714
11032SOL    HW234994  12.105   2.961   8.822
11033SOL     OW34995   6.622   8.929   6.323
11033SOL    HW134996   6.555   8.954   6.386
11033SOL    HW234997   6.582   8.860   6.270
11034SOL     OW34998   8.966   5.092   0.724
11034SOL    HW134999   8.872   5.080   0.734
11034SOL    HW235000   8.975   5.171   0.671
11035SOL     OW35001  10.866   5.214  12.724
11035SOL    HW135002  10.804   5.263  12.777
11035SOL    HW235003  10.923   5.281  12.685
11036SOL     OW35004   9.491   2.266  11.607
11036SOL    HW135005   9.564   2.320  11.577
11036SOL    HW235006   9.445   2.240  11.527
11037SOL     OW35007   5.001   0.446   8.582
11037SOL    HW135008   4.915   0.459   8.543
11037SOL    HW235009   5.005   0.352   8.600
11038SOL     OW35010  12.889   3.838   2.960
11038SOL    HW135011  12.967   3.858   2.909
11038SOL    HW235012  12.897   3.892   3.039
11039SOL     OW35013   6.041   9.309   5.306
11039SOL    HW135014   6.030   9.218   5.335
11039SOL    HW235015   6.072   9.301   5.216
11040SOL     OW35016   9.973   2.687  11.280
11040SOL    HW135017  10.059   2.646  11.293
11040SOL    HW235018   9.951   2.724  11.366
11041SOL     OW35019   1.964   6.033   8.454
11041SOL    HW135020   1.986   6.110   8.506
11041SOL    HW235021   2.019   5.963   8.490
11042SOL     OW35022   8.882  10.288   8.266
11042SOL    HW135023   8.929  10.212   8.230
11042SOL    HW235024   8.908  10.291   8.358
11043SOL     OW35025   7.435   4.582   0.766
11043SOL    HW135026   7.357   4.548   0.722
11043SOL    HW235027   7.459   4.514   0.828
11044SOL     OW35028   3.235  10.078  13.374
11044SOL    HW135029   3.280  10.157  13.404
11044SOL    HW235030   3.143  10.092  13.398
11045SOL     OW35031   6.603   3.740  11.926
11045SOL    HW135032   6.533   3.773  11.982
11045SOL    HW235033   6.558   3.686  11.860
11046SOL     OW35034   1.746   0.703   9.041
11046SOL    HW135035   1.769   0.611   9.036
11046SOL    HW235036   1.694   0.719   8.961
11047SOL     OW35037   3.016   4.418  13.058
11047SOL    HW135038   3.079   4.382  12.996
11047SOL    HW235039   2.931   4.394  13.022
11048SOL     OW35040   7.687  12.266   4.857
11048SOL    HW135041   7.680  12.284   4.763
11048SOL    HW235042   7.781  12.254   4.872
11049SOL     OW35043  13.049   1.694   2.154
11049SOL    HW135044  12.983   1.633   2.188
11049SOL    HW235045  13.128   1.674   2.203
11050SOL     OW35046  13.401   3.037   1.089
11050SOL    HW135047  13.353   3.095   1.148
11050SOL    HW235048  13.340   2.965   1.071
11051SOL     OW35049  10.418   5.767   2.926
11051SOL    HW135050  10.342   5.778   2.869
11051SOL    HW235051  10.396   5.692   2.981
11052SOL     OW35052   6.906   4.773   1.908
11052SOL    HW135053   6.956   4.704   1.950
11052SOL    HW235054   6.972   4.827   1.864
11053SOL     OW35055  10.329  14.055   1.225
11053SOL    HW135056  10.327  13.971   1.270
11053SOL    HW235057  10.378  14.038   1.145
11054SOL     OW35058   5.317   9.821  11.419
11054SOL    HW135059   5.398   9.865  11.394
11054SOL    HW235060   5.249   9.869  11.372
11055SOL     OW35061   4.211  13.045   2.267
11055SOL    HW135062   4.159  12.971   2.298
11055SOL    HW235063   4.159  13.122   2.290
11056SOL     OW35064  14.575   1.506  11.267
11056SOL    HW135065  14.505   1.541  11.211
11056SOL    HW235066  14.604   1.427  11.222
11057SOL     OW35067  11.699  13.873   4.717
11057SOL    HW135068  11.750  13.798   4.748
11057SOL    HW235069  11.764  13.932   4.679
11058SOL     OW35070   5.685  11.515   9.327
11058SOL    HW135071   5.734  11.435   9.347
11058SOL    HW235072   5.609  11.485   9.277
11059SOL     OW35073  10.817  11.745   3.354
11059SOL    HW135074  10.773  11.767   3.272
11059SOL    HW235075  10.901  11.707   3.327
11060SOL     OW35076   5.147   1.993   2.701
11060SOL    HW135077   5.166   2.086   2.693
11060SOL    HW235078   5.077   1.977   2.638
11061SOL     OW35079   5.117   8.360  12.860
11061SOL    HW135080   5.213   8.358  12.860
11061SOL    HW235081   5.092   8.307  12.936
11062SOL     OW35082  14.477   4.119   1.166
11062SOL    HW135083  14.482   4.098   1.259
11062SOL    HW235084  14.467   4.214   1.163
11063SOL     OW35085   7.680   9.855   9.072
11063SOL    HW135086   7.674   9.861   8.977
11063SOL    HW235087   7.642   9.770   9.093
11064SOL     OW35088   3.208   3.924  13.512
11064SOL    HW135089   3.172   3.901  13.598
11064SOL    HW235090   3.294   3.882  13.510
11065SOL     OW35091  14.287  14.101   1.597
11065SOL    HW135092  14.308  14.189   1.629
11065SOL    HW235093  14.370  14.067   1.564
11066SOL     OW35094   7.351   4.972   7.834
11066SOL    HW135095   7.274   5.027   7.845
11066SOL    HW235096   7.421   5.021   7.877
11067SOL     OW35097  10.011   5.240  14.474
11067SOL    HW135098  10.077   5.243  14.405
11067SOL    HW235099  10.058   5.203  14.550
11068SOL     OW35100  13.455   0.209   8.943
11068SOL    HW135101  13.410   0.172   8.867
11068SOL    HW235102  13.449   0.140   9.010
11069SOL     OW35103  11.237   6.684  10.306
11069SOL    HW135104  11.324   6.717  10.284
11069SOL    HW235105  11.250   6.631  10.384
11070SOL     OW35106  14.775   1.307   2.660
11070SOL    HW135107  14.785   1.389   2.709
11070SOL    HW235108  14.865   1.280   2.640
11071SOL     OW35109   3.721  13.319   5.251
11071SOL    HW135110   3.629  13.344   5.260
11071SOL    HW235111   3.718  13.231   5.211
11072SOL     OW35112   2.103  13.265  13.759
11072SOL    HW135113   2.099  13.172  13.735
11072SOL    HW235114   2.082  13.311  13.678
11073SOL     OW35115  10.766   5.403   7.218
11073SOL    HW135116  10.741   5.450   7.139
11073SOL    HW235117  10.695   5.422   7.280
11074SOL     OW35118  12.898   6.973   5.438
11074SOL    HW135119  12.964   6.943   5.500
11074SOL    HW235120  12.924   6.935   5.354
11075SOL     OW35121   6.921  14.670  13.847
11075SOL    HW135122   6.880  14.749  13.812
11075SOL    HW235123   6.884  14.598  13.795
11076SOL     OW35124   3.847   0.991   2.607
11076SOL    HW135125   3.753   1.006   2.598
11076SOL    HW235126   3.853   0.900   2.638
11077SOL     OW35127   3.313   2.701   2.208
11077SOL    HW135128   3.329   2.783   2.254
11077SOL    HW235129   3.397   2.655   2.209
11078SOL     OW35130   3.773  10.313   4.326
11078SOL    HW135131   3.851  10.270   4.291
11078SOL    HW235132   3.788  10.316   4.421
11079SOL     OW35133   7.932   1.794   4.829
11079SOL    HW135134   7.965   1.731   4.764
11079SOL    HW235135   7.838   1.779   4.831
11080SOL     OW35136  12.550  12.438  14.833
11080SOL    HW135137  12.469  12.477  14.865
11080SOL    HW235138  12.617  12.470   0.020
11081SOL     OW35139   7.231  13.143   9.879
11081SOL    HW135140   7.191  13.077   9.936
11081SOL    HW235141   7.295  13.094   9.827
11082SOL     OW35142   4.932  13.674   1.197
11082SOL    HW135143   4.839  13.671   1.172
11082SOL    HW235144   4.945  13.763   1.230
11083SOL     OW35145  14.601   8.400   7.749
11083SOL    HW135146  14.660   8.460   7.704
11083SOL    HW235147  14.629   8.313   7.722
11084SOL     OW35148   8.100   5.094   9.244
11084SOL    HW135149   8.062   5.117   9.328
11084SOL    HW235150   8.163   5.024   9.264
11085SOL     OW35151   5.685  10.981  11.931
11085SOL    HW135152   5.777  11.003  11.914
11085SOL    HW235153   5.689  10.906  11.991
11086SOL     OW35154  11.917   6.828   4.009
11086SOL    HW135155  11.966   6.770   4.068
11086SOL    HW235156  11.835   6.844   4.055
11087SOL     OW35157   8.491  12.693  14.781
11087SOL    HW135158   8.443  12.661  14.704
11087SOL    HW235159   8.425  12.743  14.830
11088SOL     OW35160   4.037   7.199   3.698
11088SOL    HW135161   4.055   7.140   3.625
11088SOL    HW235162   3.996   7.276   3.656
11089SOL     OW35163   0.309   8.029   6.056
11089SOL    HW135164   0.312   7.992   5.968
11089SOL    HW235165   0.266   8.114   6.046
11090SOL     OW35166   9.251   2.217   5.020
11090SOL    HW135167   9.194   2.165   5.076
11090SOL    HW235168   9.273   2.159   4.947
11091SOL     OW35169  10.349   7.618   9.800
11091SOL    HW135170  10.283   7.552   9.821
11091SOL    HW235171  10.301   7.687   9.754
11092SOL     OW35172   7.031   1.945  11.407
11092SOL    HW135173   7.031   2.037  11.435
11092SOL    HW235174   7.123   1.923  11.396
11093SOL     OW35175   0.790   6.925  11.694
11093SOL    HW135176   0.708   6.974  11.696
11093SOL    HW235177   0.767   6.843  11.650
11094SOL     OW35178   4.494   7.029   6.097
11094SOL    HW135179   4.577   7.058   6.059
11094SOL    HW235180   4.484   7.082   6.176
11095SOL     OW35181   4.697   1.696   5.320
11095SOL    HW135182   4.723   1.604   5.332
11095SOL    HW235183   4.625   1.709   5.382
11096SOL     OW35184   7.710   1.831   9.981
11096SOL    HW135185   7.666   1.747   9.996
11096SOL    HW235186   7.760   1.817   9.901
11097SOL     OW35187   6.409   9.213  14.726
11097SOL    HW135188   6.322   9.181  14.750
11097SOL    HW235189   6.449   9.140  14.677
11098SOL     OW35190  10.134   7.932   8.017
11098SOL    HW135191  10.192   7.980   8.075
11098SOL    HW235192  10.154   7.840   8.034
11099SOL     OW35193  10.014  14.096   2.528
11099SOL    HW135194  10.051  14.161   2.467
11099SOL    HW235195   9.966  14.036   2.471
11100SOL     OW35196   9.399  14.005   8.407
11100SOL    HW135197   9.381  13.921   8.448
11100SOL    HW235198   9.328  14.016   8.343
11101SOL     OW35199   5.928   5.056   4.747
11101SOL    HW135200   5.976   5.003   4.684
11101SOL    HW235201   5.860   5.099   4.695
11102SOL     OW35202  12.826   8.529  13.180
11102SOL    HW135203  12.876   8.546  13.100
11102SOL    HW235204  12.769   8.605  13.189
11103SOL     OW35205  11.394   3.697  12.686
11103SOL    HW135206  11.437   3.759  12.627
11103SOL    HW235207  11.430   3.717  12.773
11104SOL     OW35208   3.704  11.701   4.815
11104SOL    HW135209   3.783  11.672   4.861
11104SOL    HW235210   3.634  11.691   4.880
11105SOL     OW35211   1.340  13.654   1.517
11105SOL    HW135212   1.265  13.601   1.544
11105SOL    HW235213   1.303  13.741   1.501
11106SOL     OW35214   4.603   8.026   9.481
11106SOL    HW135215   4.612   7.937   9.515
11106SOL    HW235216   4.508   8.042   9.480
11107SOL     OW35217   2.190  12.182   5.824
11107SOL    HW135218   2.243  12.104   5.813
11107SOL    HW235219   2.133  12.163   5.898
11108SOL     OW35220   4.555   9.327   3.338
11108SOL    HW135221   4.555   9.329   3.434
11108SOL    HW235222   4.602   9.247   3.315
11109SOL     OW35223   3.168   5.771   1.913
11109SOL    HW135224   3.101   5.816   1.964
11109SOL    HW235225   3.143   5.679   1.915
11110SOL     OW35226   7.707   5.588   5.111
11110SOL    HW135227   7.686   5.570   5.203
11110SOL    HW235228   7.637   5.646   5.081
11111SOL     OW35229   6.314   3.075   6.163
11111SOL    HW135230   6.369   3.142   6.122
11111SOL    HW235231   6.365   3.045   6.238
11112SOL     OW35232  10.791   5.616   1.011
11112SOL    HW135233  10.842   5.555   0.958
11112SOL    HW235234  10.721   5.563   1.048
11113SOL     OW35235   4.689   5.014   4.890
11113SOL    HW135236   4.651   5.094   4.928
11113SOL    HW235237   4.696   4.953   4.963
11114SOL     OW35238   9.066   3.405   0.964
11114SOL    HW135239   9.161   3.392   0.955
11114SOL    HW235240   9.057   3.470   1.033
11115SOL     OW35241   0.865   5.100   4.870
11115SOL    HW135242   0.840   5.181   4.914
11115SOL    HW235243   0.954   5.117   4.839
11116SOL     OW35244   2.919   0.527  10.635
11116SOL    HW135245   2.881   0.451  10.591
11116SOL    HW235246   2.884   0.603  10.588
11117SOL     OW35247   2.755  11.824   2.435
11117SOL    HW135248   2.720  11.757   2.494
11117SOL    HW235249   2.759  11.782   2.350
11118SOL     OW35250  12.248  10.124  13.246
11118SOL    HW135251  12.256  10.217  13.226
11118SOL    HW235252  12.333  10.087  13.224
11119SOL     OW35253   1.133   7.860   5.823
11119SOL    HW135254   1.149   7.951   5.797
11119SOL    HW235255   1.122   7.864   5.918
11120SOL     OW35256  14.741   2.125   3.399
11120SOL    HW135257  14.712   2.042   3.362
11120SOL    HW235258  14.834   2.129   3.377
11121SOL     OW35259   7.146   1.762   8.378
11121SOL    HW135260   7.198   1.842   8.390
11121SOL    HW235261   7.207   1.691   8.398
11122SOL     OW35262  11.373   8.381   5.927
11122SOL    HW135263  11.315   8.364   6.001
11122SOL    HW235264  11.343   8.465   5.892
11123SOL     OW35265   6.600  13.812   1.076
11123SOL    HW135266   6.595  13.749   1.004
11123SOL    HW235267   6.693  13.819   1.095
11124SOL     OW35268  13.558  13.029   1.363
11124SOL    HW135269  13.554  13.092   1.291
11124SOL    HW235270  13.645  12.990   1.356
11125SOL     OW35271  10.402   4.253  12.636
11125SOL    HW135272  10.334   4.313  12.667
11125SOL    HW235273  10.362   4.167  12.641
11126SOL     OW35274   5.247   4.147  13.343
11126SOL    HW135275   5.171   4.089  13.342
11126SOL    HW235276   5.218   4.226  13.296
11127SOL     OW35277   4.546   2.534  10.256
11127SOL    HW135278   4.543   2.538  10.161
11127SOL    HW235279   4.456   2.515  10.282
11128SOL     OW35280   6.144  14.349   4.903
11128SOL    HW135281   6.073  14.323   4.844
11128SOL    HW235282   6.099  14.372   4.984
11129SOL     OW35283   0.358   3.329   7.675
11129SOL    HW135284   0.296   3.258   7.694
11129SOL    HW235285   0.304   3.399   7.639
11130SOL     OW35286  12.491  13.981  10.871
11130SOL    HW135287  12.536  13.974  10.787
11130SOL    HW235288  12.548  13.937  10.933
11131SOL     OW35289  11.989   2.776   3.675
11131SOL    HW135290  11.945   2.769   3.760
11131SOL    HW235291  11.996   2.870   3.660
11132SOL     OW35292   9.213  13.693   8.938
11132SOL    HW135293   9.246  13.703   9.027
11132SOL    HW235294   9.237  13.774   8.893
11133SOL     OW35295   5.709   3.239   0.912
11133SOL    HW135296   5.783   3.220   0.970
11133SOL    HW235297   5.696   3.334   0.919
11134SOL     OW35298   8.005   1.447   0.117
11134SOL    HW135299   7.929   1.390   0.123
11134SOL    HW235300   8.001   1.484   0.028
11135SOL     OW35301  13.793   7.517   0.553
11135SOL    HW135302  13.813   7.586   0.490
11135SOL    HW235303  13.734   7.559   0.616
11136SOL     OW35304   2.967   8.219   9.079
11136SOL    HW135305   2.936   8.232   9.169
11136SOL    HW235306   3.040   8.158   9.088
11137SOL     OW35307  10.592   8.832  14.363
11137SOL    HW135308  10.619   8.914  14.323
11137SOL    HW235309  10.556   8.780  14.290
11138SOL     OW35310   8.950   2.343   6.641
11138SOL    HW135311   8.964   2.427   6.684
11138SOL    HW235312   8.953   2.363   6.547
11139SOL     OW35313   4.334   8.604   0.398
11139SOL    HW135314   4.283   8.579   0.321
11139SOL    HW235315   4.424   8.578   0.377
11140SOL     OW35316   1.234   9.975   3.505
11140SOL    HW135317   1.297   9.960   3.435
11140SOL    HW235318   1.209   9.887   3.535
11141SOL     OW35319   8.533   9.526   6.411
11141SOL    HW135320   8.484   9.524   6.493
11141SOL    HW235321   8.619   9.559   6.436
11142SOL     OW35322   9.377   6.363  14.741
11142SOL    HW135323   9.406   6.383  14.652
11142SOL    HW235324   9.441   6.299  14.773
11143SOL     OW35325   7.802   1.949   1.603
11143SOL    HW135326   7.749   1.879   1.642
11143SOL    HW235327   7.742   1.993   1.542
11144SOL     OW35328   0.036   6.612  11.990
11144SOL    HW135329   0.003   6.653  11.910
11144SOL    HW235330   0.027   6.518  11.974
11145SOL     OW35331  10.758   4.079   6.118
11145SOL    HW135332  10.784   4.113   6.033
11145SOL    HW235333  10.670   4.115   6.132
11146SOL     OW35334   9.874   6.502   4.775
11146SOL    HW135335   9.879   6.527   4.868
11146SOL    HW235336   9.781   6.512   4.753
11147SOL     OW35337   6.661  10.579  11.888
11147SOL    HW135338   6.627  10.618  11.808
11147SOL    HW235339   6.743  10.625  11.904
11148SOL     OW35340  12.024   8.634   8.017
11148SOL    HW135341  12.031   8.700   8.086
11148SOL    HW235342  12.037   8.550   8.061
11149SOL     OW35343  11.194   5.817   3.483
11149SOL    HW135344  11.244   5.832   3.403
11149SOL    HW235345  11.203   5.898   3.533
11150SOL     OW35346   6.052   7.131  12.638
11150SOL    HW135347   6.040   7.217  12.597
11150SOL    HW235348   6.136   7.100  12.604
11151SOL     OW35349   3.893   1.763   0.909
11151SOL    HW135350   3.924   1.711   0.983
11151SOL    HW235351   3.841   1.702   0.857
11152SOL     OW35352  11.353   3.461  13.592
11152SOL    HW135353  11.415   3.535  13.589
11152SOL    HW235354  11.331   3.452  13.685
11153SOL     OW35355  12.117   9.044  14.482
11153SOL    HW135356  12.210   9.028  14.495
11153SOL    HW235357  12.074   8.967  14.518
11154SOL     OW35358  11.989   2.595  14.693
11154SOL    HW135359  11.900   2.576  14.665
11154SOL    HW235360  12.010   2.679  14.652
11155SOL     OW35361  11.431   5.038  10.977
11155SOL    HW135362  11.480   4.985  11.038
11155SOL    HW235363  11.495   5.066  10.911
11156SOL     OW35364  13.009   2.115   9.709
11156SOL    HW135365  12.916   2.092   9.717
11156SOL    HW235366  13.052   2.065   9.779
11157SOL     OW35367   1.945   1.508   1.722
11157SOL    HW135368   1.881   1.437   1.731
11157SOL    HW235369   2.023   1.475   1.766
11158SOL     OW35370   0.928   1.199  13.467
11158SOL    HW135371   0.843   1.172  13.501
11158SOL    HW235372   0.923   1.181  13.373
11159SOL     OW35373   6.084   7.415  12.929
11159SOL    HW135374   6.088   7.509  12.913
11159SOL    HW235375   6.011   7.403  12.990
11160SOL     OW35376   7.669  13.144   9.761
11160SOL    HW135377   7.628  13.058   9.777
11160SOL    HW235378   7.597  13.206   9.767
11161SOL     OW35379   6.737  10.641   6.364
11161SOL    HW135380   6.758  10.697   6.439
11161SOL    HW235381   6.650  10.605   6.384
11162SOL     OW35382   7.172   6.206   8.518
11162SOL    HW135383   7.171   6.272   8.587
11162SOL    HW235384   7.119   6.135   8.553
11163SOL     OW35385   7.332   1.759  11.936
11163SOL    HW135386   7.260   1.697  11.947
11163SOL    HW235387   7.292   1.834  11.892
11164SOL     OW35388   5.360   9.526   4.977
11164SOL    HW135389   5.397   9.540   5.065
11164SOL    HW235390   5.371   9.610   4.933
11165SOL     OW35391   6.316   4.595  10.755
11165SOL    HW135392   6.264   4.672  10.733
11165SOL    HW235393   6.362   4.619  10.836
11166SOL     OW35394   2.247   2.256   6.683
11166SOL    HW135395   2.287   2.210   6.756
11166SOL    HW235396   2.165   2.291   6.718
11167SOL     OW35397  13.830   3.016  13.388
11167SOL    HW135398  13.838   2.975  13.474
11167SOL    HW235399  13.908   2.989  13.341
11168SOL     OW35400   9.779   0.408   4.808
11168SOL    HW135401   9.869   0.431   4.784
11168SOL    HW235402   9.734   0.393   4.725
11169SOL     OW35403   8.664   9.784  14.594
11169SOL    HW135404   8.705   9.794  14.680
11169SOL    HW235405   8.599   9.855  14.589
11170SOL     OW35406   3.441   3.269   2.989
11170SOL    HW135407   3.530   3.296   2.966
11170SOL    HW235408   3.449   3.175   3.009
11171SOL     OW35409   0.303   9.952   0.898
11171SOL    HW135410   0.361  10.020   0.932
11171SOL    HW235411   0.358   9.900   0.840
11172SOL     OW35412  12.288   4.733   0.126
11172SOL    HW135413  12.246   4.691   0.201
11172SOL    HW235414  12.219   4.783   0.084
11173SOL     OW35415  12.237  14.689  11.211
11173SOL    HW135416  12.250  14.696  11.306
11173SOL    HW235417  12.144  14.704  11.199
11174SOL     OW35418  13.719   0.400   6.107
11174SOL    HW135419  13.783   0.350   6.158
11174SOL    HW235420  13.697   0.344   6.033
11175SOL     OW35421   9.138   8.338   9.574
11175SOL    HW135422   9.054   8.364   9.613
11175SOL    HW235423   9.114   8.280   9.502
11176SOL     OW35424   4.885   9.670  10.892
11176SOL    HW135425   4.879   9.575  10.887
11176SOL    HW235426   4.951   9.687  10.960
11177SOL     OW35427   2.152   6.245   4.453
11177SOL    HW135428   2.136   6.155   4.478
11177SOL    HW235429   2.072   6.273   4.408
11178SOL     OW35430  10.253   1.514  12.252
11178SOL    HW135431  10.312   1.563  12.194
11178SOL    HW235432  10.299   1.431  12.268
11179SOL     OW35433  11.400  11.372   4.705
11179SOL    HW135434  11.455  11.332   4.638
11179SOL    HW235435  11.458  11.437   4.747
11180SOL     OW35436  10.171   0.092   3.681
11180SOL    HW135437  10.152   0.109   3.773
11180SOL    HW235438  10.219   0.169   3.652
11181SOL     OW35439  11.356   9.724   6.629
11181SOL    HW135440  11.353   9.693   6.539
11181SOL    HW235441  11.285   9.676   6.673
11182SOL     OW35442   9.159   7.740   5.751
11182SOL    HW135443   9.073   7.712   5.721
11182SOL    HW235444   9.141   7.812   5.812
11183SOL     OW35445   9.074   9.760   5.253
11183SOL    HW135446   9.047   9.749   5.344
11183SOL    HW235447   9.127   9.683   5.234
11184SOL     OW35448   9.053   0.390   1.165
11184SOL    HW135449   9.016   0.303   1.150
11184SOL    HW235450   9.032   0.410   1.256
11185SOL     OW35451  12.509  10.233   0.495
11185SOL    HW135452  12.580  10.292   0.521
11185SOL    HW235453  12.553  10.152   0.467
11186SOL     OW35454  10.941   3.276   5.712
11186SOL    HW135455  10.959   3.228   5.631
11186SOL    HW235456  10.911   3.362   5.683
11187SOL     OW35457  12.317  12.106   3.255
11187SOL    HW135458  12.227  12.114   3.223
11187SOL    HW235459  12.313  12.132   3.347
11188SOL     OW35460   1.466  10.804  11.451
11188SOL    HW135461   1.498  10.714  11.442
11188SOL    HW235462   1.539  10.853  11.487
11189SOL     OW35463   2.956   3.123   1.356
11189SOL    HW135464   2.890   3.180   1.396
11189SOL    HW235465   2.993   3.074   1.429
11190SOL     OW35466   4.763   0.136   1.221
11190SOL    HW135467   4.737   0.171   1.137
11190SOL    HW235468   4.754   0.041   1.212
11191SOL     OW35469   6.823   0.889   3.902
11191SOL    HW135470   6.795   0.957   3.841
11191SOL    HW235471   6.771   0.812   3.877
11192SOL     OW35472   4.321   3.003   5.779
11192SOL    HW135473   4.255   3.068   5.759
11192SOL    HW235474   4.314   2.938   5.709
11193SOL     OW35475   2.794  13.972   8.234
11193SOL    HW135476   2.771  13.891   8.188
11193SOL    HW235477   2.742  13.970   8.314
11194SOL     OW35478  12.704   9.266   3.018
11194SOL    HW135479  12.656   9.343   3.048
11194SOL    HW235480  12.642   9.218   2.964
11195SOL     OW35481   1.193  10.647   6.188
11195SOL    HW135482   1.263  10.712   6.179
11195SOL    HW235483   1.163  10.658   6.279
11196SOL     OW35484   7.344  10.261   1.454
11196SOL    HW135485   7.310  10.205   1.524
11196SOL    HW235486   7.380  10.199   1.390
11197SOL     OW35487   5.218   0.093  14.598
11197SOL    HW135488   5.127   0.118  14.581
11197SOL    HW235489   5.224   0.086  14.693
11198SOL     OW35490  14.383   1.924  14.443
11198SOL    HW135491  14.380   1.919  14.538
11198SOL    HW235492  14.379   1.833  14.414
11199SOL     OW35493   5.654  12.674   1.050
11199SOL    HW135494   5.726  12.622   1.086
11199SOL    HW235495   5.628  12.731   1.122
11200SOL     OW35496  10.342  12.742   1.597
11200SOL    HW135497  10.370  12.772   1.683
11200SOL    HW235498  10.336  12.821   1.543
11201SOL     OW35499   4.086  11.293   9.865
11201SOL    HW135500   4.063  11.201   9.873
11201SOL    HW235501   4.025  11.328   9.801
11202SOL     OW35502   5.217  13.435   4.516
11202SOL    HW135503   5.264  13.503   4.564
11202SOL    HW235504   5.219  13.359   4.575
11203SOL     OW35505   2.709  12.734  13.523
11203SOL    HW135506   2.734  12.822  13.496
11203SOL    HW235507   2.751  12.721  13.608
11204SOL     OW35508   2.162   0.525   0.108
11204SOL    HW135509   2.239   0.496   0.059
11204SOL    HW235510   2.099   0.454   0.098
11205SOL     OW35511   4.277   4.162   2.521
11205SOL    HW135512   4.272   4.201   2.433
11205SOL    HW235513   4.288   4.237   2.580
11206SOL     OW35514  12.286   6.358   9.089
11206SOL    HW135515  12.349   6.404   9.145
11206SOL    HW235516  12.323   6.271   9.079
11207SOL     OW35517   7.247   0.664   4.383
11207SOL    HW135518   7.200   0.721   4.322
11207SOL    HW235519   7.178   0.622   4.434
11208SOL     OW35520   5.970  13.987  12.981
11208SOL    HW135521   5.919  14.049  13.034
11208SOL    HW235522   6.011  14.041  12.913
11209SOL     OW35523   2.102   0.694  11.489
11209SOL    HW135524   2.073   0.643  11.565
11209SOL    HW235525   2.060   0.651  11.415
11210SOL     OW35526   1.133   4.525   5.232
11210SOL    HW135527   1.126   4.522   5.327
11210SOL    HW235528   1.061   4.470   5.201
11211SOL     OW35529   3.241  12.472  10.184
11211SOL    HW135530   3.151  12.505  10.189
11211SOL    HW235531   3.231  12.378  10.167
11212SOL     OW35532   6.588  11.825   3.664
11212SOL    HW135533   6.581  11.742   3.617
11212SOL    HW235534   6.519  11.821   3.730
11213SOL     OW35535   0.974  12.609   4.157
11213SOL    HW135536   1.023  12.593   4.076
11213SOL    HW235537   1.009  12.692   4.190
11214SOL     OW35538   2.994   0.557   3.307
11214SOL    HW135539   2.921   0.504   3.339
11214SOL    HW235540   3.012   0.522   3.220
11215SOL     OW35541   1.351  10.209   2.944
11215SOL    HW135542   1.352  10.292   2.896
11215SOL    HW235543   1.400  10.148   2.889
11216SOL     OW35544  10.271  13.225  11.101
11216SOL    HW135545  10.219  13.278  11.161
11216SOL    HW235546  10.243  13.253  11.014
11217SOL     OW35547   1.599   4.976   0.621
11217SOL    HW135548   1.684   4.951   0.656
11217SOL    HW235549   1.591   5.070   0.641
11218SOL     OW35550   0.664   5.091   5.555
11218SOL    HW135551   0.593   5.036   5.585
11218SOL    HW235552   0.661   5.168   5.612
11219SOL     OW35553   1.625   1.144   9.809
11219SOL    HW135554   1.693   1.145   9.741
11219SOL    HW235555   1.673   1.158   9.891
11220SOL     OW35556   7.277  10.317   2.633
11220SOL    HW135557   7.342  10.253   2.661
11220SOL    HW235558   7.327  10.398   2.622
11221SOL     OW35559   1.466  11.430   5.860
11221SOL    HW135560   1.429  11.462   5.942
11221SOL    HW235561   1.556  11.406   5.883
11222SOL     OW35562   8.166   9.924   4.100
11222SOL    HW135563   8.095   9.862   4.117
11222SOL    HW235564   8.133   9.980   4.030
11223SOL     OW35565   4.144  14.243   1.063
11223SOL    HW135566   4.102  14.325   1.086
11223SOL    HW235567   4.160  14.200   1.146
11224SOL     OW35568  10.157   1.795  14.647
11224SOL    HW135569  10.210   1.810  14.569
11224SOL    HW235570  10.078   1.848  14.634
11225SOL     OW35571  14.820  12.110   9.288
11225SOL    HW135572   0.014  12.123   9.355
11225SOL    HW235573  14.760  12.184   9.298
11226SOL     OW35574   7.500  11.641   5.464
11226SOL    HW135575   7.530  11.556   5.433
11226SOL    HW235576   7.426  11.663   5.407
11227SOL     OW35577   9.701   1.728   6.841
11227SOL    HW135578   9.742   1.779   6.911
11227SOL    HW235579   9.619   1.697   6.879
11228SOL     OW35580   3.524   2.363   0.449
11228SOL    HW135581   3.586   2.309   0.499
11228SOL    HW235582   3.467   2.401   0.516
11229SOL     OW35583   4.844  10.751   5.030
11229SOL    HW135584   4.812  10.711   4.949
11229SOL    HW235585   4.766  10.793   5.067
11230SOL     OW35586   3.668   6.475  13.724
11230SOL    HW135587   3.747   6.527  13.708
11230SOL    HW235588   3.654   6.480  13.819
11231SOL     OW35589  14.834   0.798   7.382
11231SOL    HW135590  14.757   0.818   7.328
11231SOL    HW235591  14.839   0.702   7.380
11232SOL     OW35592   9.259  11.445  10.693
11232SOL    HW135593   9.294  11.398  10.769
11232SOL    HW235594   9.209  11.517  10.731
11233SOL     OW35595   5.432   1.229   8.465
11233SOL    HW135596   5.361   1.183   8.420
11233SOL    HW235597   5.512   1.196   8.424
11234SOL     OW35598   8.000   5.644  13.403
11234SOL    HW135599   8.019   5.625  13.311
11234SOL    HW235600   8.083   5.629  13.448
11235SOL     OW35601   5.689   3.421   7.010
11235SOL    HW135602   5.764   3.367   7.034
11235SOL    HW235603   5.645   3.373   6.939
11236SOL     OW35604   0.228   8.235   9.753
11236SOL    HW135605   0.186   8.200   9.675
11236SOL    HW235606   0.294   8.295   9.720
11237SOL     OW35607   9.538  12.225  13.322
11237SOL    HW135608   9.589  12.147  13.299
11237SOL    HW235609   9.587  12.298  13.284
11238SOL     OW35610   6.144  11.064   1.539
11238SOL    HW135611   6.050  11.080   1.533
11238SOL    HW235612   6.184  11.142   1.501
11239SOL     OW35613   6.208   2.367   5.232
11239SOL    HW135614   6.183   2.459   5.232
11239SOL    HW235615   6.182   2.335   5.318
11240SOL     OW35616   2.720   2.971  13.569
11240SOL    HW135617   2.769   3.050  13.592
11240SOL    HW235618   2.748   2.906  13.634
11241SOL     OW35619   1.874   8.426  11.745
11241SOL    HW135620   1.851   8.343  11.705
11241SOL    HW235621   1.845   8.492  11.683
11242SOL     OW35622   6.840   4.001   0.686
11242SOL    HW135623   6.928   4.025   0.716
11242SOL    HW235624   6.821   3.919   0.732
11243SOL     OW35625  13.490  13.005   6.214
11243SOL    HW135626  13.481  13.066   6.286
11243SOL    HW235627  13.433  12.932   6.237
11244SOL     OW35628  12.610   8.597   1.414
11244SOL    HW135629  12.632   8.663   1.349
11244SOL    HW235630  12.622   8.514   1.369
11245SOL     OW35631  12.941  10.255   4.130
11245SOL    HW135632  12.965  10.348   4.127
11245SOL    HW235633  12.992  10.215   4.060
11246SOL     OW35634   5.958  10.935   7.955
11246SOL    HW135635   5.909  10.965   7.879
11246SOL    HW235636   6.015  10.866   7.921
11247SOL     OW35637  11.570   1.708   2.219
11247SOL    HW135638  11.506   1.648   2.257
11247SOL    HW235639  11.548   1.712   2.126
11248SOL     OW35640  14.343   7.284  12.604
11248SOL    HW135641  14.423   7.234  12.594
11248SOL    HW235642  14.275   7.228  12.566
11249SOL     OW35643   2.513   8.806  13.459
11249SOL    HW135644   2.461   8.793  13.380
11249SOL    HW235645   2.451   8.838  13.524
11250SOL     OW35646  10.401  12.824  14.103
11250SOL    HW135647  10.341  12.772  14.051
11250SOL    HW235648  10.469  12.852  14.041
11251SOL     OW35649  13.737  10.691   6.276
11251SOL    HW135650  13.750  10.770   6.223
11251SOL    HW235651  13.643  10.675   6.272
11252SOL     OW35652   5.885   9.983   1.453
11252SOL    HW135653   5.937  10.059   1.479
11252SOL    HW235654   5.814  10.020   1.400
11253SOL     OW35655   3.230  11.256   0.604
11253SOL    HW135656   3.136  11.263   0.621
11253SOL    HW235657   3.237  11.188   0.537
11254SOL     OW35658  13.986   7.126  12.973
11254SOL    HW135659  14.013   7.189  13.040
11254SOL    HW235660  14.068   7.092  12.938
11255SOL     OW35661  10.704  13.969  13.088
11255SOL    HW135662  10.699  13.914  13.166
11255SOL    HW235663  10.645  14.043  13.107
11256SOL     OW35664   7.638  11.171   4.343
11256SOL    HW135665   7.649  11.247   4.401
11256SOL    HW235666   7.724  11.131   4.338
11257SOL     OW35667   1.009   3.411  13.865
11257SOL    HW135668   1.063   3.462  13.804
11257SOL    HW235669   0.919   3.429  13.839
11258SOL     OW35670  11.088  10.110   5.832
11258SOL    HW135671  11.078  10.191   5.784
11258SOL    HW235672  11.182  10.101   5.845
11259SOL     OW35673   5.370   2.731   6.700
11259SOL    HW135674   5.451   2.683   6.716
11259SOL    HW235675   5.395   2.803   6.642
11260SOL     OW35676   2.584  12.431  11.140
11260SOL    HW135677   2.668  12.409  11.181
11260SOL    HW235678   2.520  12.424  11.210
11261SOL     OW35679  14.529   9.962   5.297
11261SOL    HW135680  14.488   9.929   5.217
11261SOL    HW235681  14.459   9.958   5.363
11262SOL     OW35682   6.616  11.280   4.145
11262SOL    HW135683   6.542  11.220   4.150
11262SOL    HW235684   6.674  11.253   4.216
11263SOL     OW35685  13.573   3.070   8.247
11263SOL    HW135686  13.525   3.137   8.197
11263SOL    HW235687  13.609   3.012   8.180
11264SOL     OW35688   4.370   1.807   9.741
11264SOL    HW135689   4.394   1.866   9.812
11264SOL    HW235690   4.282   1.776   9.764
11265SOL     OW35691  10.159   4.794  12.093
11265SOL    HW135692  10.251   4.803  12.070
11265SOL    HW235693  10.119   4.753  12.016
11266SOL     OW35694   0.743   8.318   5.984
11266SOL    HW135695   0.733   8.310   6.079
11266SOL    HW235696   0.838   8.311   5.970
11267SOL     OW35697   4.494  12.817  10.865
11267SOL    HW135698   4.450  12.878  10.807
11267SOL    HW235699   4.586  12.821  10.839
11268SOL     OW35700  13.035  11.625   1.405
11268SOL    HW135701  13.061  11.534   1.419
11268SOL    HW235702  13.024  11.662   1.493
11269SOL     OW35703   9.285   8.817   4.504
11269SOL    HW135704   9.368   8.770   4.497
11269SOL    HW235705   9.224   8.767   4.450
11270SOL     OW35706  14.034   2.691   2.197
11270SOL    HW135707  14.029   2.784   2.178
11270SOL    HW235708  14.126   2.668   2.187
11271SOL     OW35709  10.850   0.368   0.249
11271SOL    HW135710  10.878   0.417   0.327
11271SOL    HW235711  10.929   0.362   0.195
11272SOL     OW35712   8.229  14.003   7.943
11272SOL    HW135713   8.250  13.915   7.912
11272SOL    HW235714   8.257  14.060   7.872
11273SOL     OW35715  14.391   5.921   4.876
11273SOL    HW135716  14.302   5.954   4.882
11273SOL    HW235717  14.394   5.849   4.940
11274SOL     OW35718   2.516  10.322  13.265
11274SOL    HW135719   2.555  10.236  13.252
11274SOL    HW235720   2.422  10.307  13.257
11275SOL     OW35721  11.887   9.532   2.409
11275SOL    HW135722  11.810   9.566   2.454
11275SOL    HW235723  11.921   9.464   2.468
11276SOL     OW35724   4.603  13.323   4.204
11276SOL    HW135725   4.534  13.366   4.254
11276SOL    HW235726   4.630  13.249   4.258
11277SOL     OW35727  12.313   2.855   7.051
11277SOL    HW135728  12.371   2.803   7.107
11277SOL    HW235729  12.373   2.903   6.993
11278SOL     OW35730  13.867   7.676   3.356
11278SOL    HW135731  13.887   7.768   3.376
11278SOL    HW235732  13.949   7.642   3.320
11279SOL     OW35733  13.309  14.794   1.276
11279SOL    HW135734  13.298  14.828   1.187
11279SOL    HW235735  13.401  14.812   1.298
11280SOL     OW35736   8.661   9.939   9.767
11280SOL    HW135737   8.606  10.012   9.793
11280SOL    HW235738   8.634   9.918   9.678
11281SOL     OW35739  12.388  11.783   2.328
11281SOL    HW135740  12.301  11.742   2.322
11281SOL    HW235741  12.370  11.876   2.315
11282SOL     OW35742   5.822   0.096   6.925
11282SOL    HW135743   5.848   0.150   6.999
11282SOL    HW235744   5.904   0.062   6.890
11283SOL     OW35745   5.520   4.682   6.838
11283SOL    HW135746   5.504   4.614   6.773
11283SOL    HW235747   5.558   4.636   6.912
11284SOL     OW35748  13.254   0.887   4.027
11284SOL    HW135749  13.277   0.977   4.052
11284SOL    HW235750  13.287   0.834   4.099
11285SOL     OW35751   3.425  10.216   8.129
11285SOL    HW135752   3.388  10.135   8.163
11285SOL    HW235753   3.509  10.225   8.174
11286SOL     OW35754  13.501   5.149  12.758
11286SOL    HW135755  13.596   5.164  12.758
11286SOL    HW235756  13.485   5.097  12.837
11287SOL     OW35757   4.473   3.986   2.658
11287SOL    HW135758   4.430   4.070   2.644
11287SOL    HW235759   4.536   3.979   2.587
11288SOL     OW35760   1.471   6.439  11.149
11288SOL    HW135761   1.380   6.408  11.149
11288SOL    HW235762   1.488   6.460  11.057
11289SOL     OW35763   9.681   0.324  13.022
11289SOL    HW135764   9.633   0.247  13.052
11289SOL    HW235765   9.768   0.290  12.998
11290SOL     OW35766   3.065   6.758  11.179
11290SOL    HW135767   3.106   6.816  11.244
11290SOL    HW235768   3.121   6.766  11.101
11291SOL     OW35769   9.930  11.025   3.797
11291SOL    HW135770   9.900  11.070   3.718
11291SOL    HW235771  10.006  10.975   3.769
11292SOL     OW35772   4.908  11.033   7.106
11292SOL    HW135773   4.877  11.063   7.020
11292SOL    HW235774   4.995  11.073   7.114
11293SOL     OW35775   1.691   7.527  12.968
11293SOL    HW135776   1.677   7.621  12.964
11293SOL    HW235777   1.786   7.515  12.966
11294SOL     OW35778   0.957   6.411   0.124
11294SOL    HW135779   0.981   6.483   0.066
11294SOL    HW235780   1.036   6.396   0.177
11295SOL     OW35781   5.434  13.669   1.735
11295SOL    HW135782   5.423  13.576   1.718
11295SOL    HW235783   5.431  13.676   1.831
11296SOL     OW35784  11.173   4.433   9.396
11296SOL    HW135785  11.187   4.401   9.307
11296SOL    HW235786  11.094   4.389   9.425
11297SOL     OW35787   4.685  14.155   5.782
11297SOL    HW135788   4.780  14.154   5.792
11297SOL    HW235789   4.660  14.245   5.806
11298SOL     OW35790   4.036   5.621   5.488
11298SOL    HW135791   4.017   5.714   5.492
11298SOL    HW235792   4.073   5.599   5.573
11299SOL     OW35793   6.153  11.938   2.747
11299SOL    HW135794   6.205  11.873   2.700
11299SOL    HW235795   6.218  11.994   2.789
11300SOL     OW35796  12.930  12.660   1.258
11300SOL    HW135797  12.919  12.704   1.342
11300SOL    HW235798  12.935  12.731   1.194
11301SOL     OW35799   3.853  12.689  14.322
11301SOL    HW135800   3.894  12.762  14.368
11301SOL    HW235801   3.875  12.612  14.375
11302SOL     OW35802   8.238   4.796   9.766
11302SOL    HW135803   8.328   4.804   9.798
11302SOL    HW235804   8.191   4.754   9.838
11303SOL     OW35805   0.325  10.806   7.552
11303SOL    HW135806   0.233  10.814   7.576
11303SOL    HW235807   0.334  10.715   7.523
11304SOL     OW35808   3.059   6.292  14.827
11304SOL    HW135809   2.969   6.285  14.795
11304SOL    HW235810   3.069   6.383  14.854
11305SOL     OW35811   7.646  12.512  10.474
11305SOL    HW135812   7.613  12.510  10.564
11305SOL    HW235813   7.729  12.558  10.480
11306SOL     OW35814  14.791   3.162   5.071
11306SOL    HW135815  14.730   3.111   5.125
11306SOL    HW235816  14.742   3.240   5.047
11307SOL     OW35817  10.493   0.489   9.049
11307SOL    HW135818  10.491   0.409   8.996
11307SOL    HW235819  10.586   0.513   9.051
11308SOL     OW35820   8.181   5.645   9.017
11308SOL    HW135821   8.255   5.584   9.028
11308SOL    HW235822   8.135   5.643   9.101
11309SOL     OW35823   8.899   2.601  13.999
11309SOL    HW135824   8.956   2.621  14.074
11309SOL    HW235825   8.894   2.683  13.950
11310SOL     OW35826   0.426  13.374   5.467
11310SOL    HW135827   0.340  13.346   5.437
11310SOL    HW235828   0.443  13.322   5.545
11311SOL     OW35829   6.279   3.318   5.831
11311SOL    HW135830   6.215   3.273   5.887
11311SOL    HW235831   6.237   3.401   5.808
11312SOL     OW35832   2.933   0.025   2.794
11312SOL    HW135833   2.955   0.070   2.713
11312SOL    HW235834   2.935   0.094   2.861
11313SOL     OW35835   3.280  10.287   4.555
11313SOL    HW135836   3.363  10.334   4.549
11313SOL    HW235837   3.299  10.214   4.615
11314SOL     OW35838   4.422   6.630   4.928
11314SOL    HW135839   4.384   6.693   4.988
11314SOL    HW235840   4.356   6.561   4.919
11315SOL     OW35841   9.143   9.857   3.804
11315SOL    HW135842   9.048   9.854   3.814
11315SOL    HW235843   9.173   9.916   3.873
11316SOL     OW35844   0.449   2.158  13.909
11316SOL    HW135845   0.466   2.115  13.993
11316SOL    HW235846   0.450   2.088  13.845
11317SOL     OW35847   7.235   1.775  11.103
11317SOL    HW135848   7.230   1.680  11.096
11317SOL    HW235849   7.240   1.806  11.013
11318SOL     OW35850   2.611   1.475   5.614
11318SOL    HW135851   2.589   1.385   5.588
11318SOL    HW235852   2.561   1.489   5.694
11319SOL     OW35853   7.006   6.626  14.700
11319SOL    HW135854   7.087   6.602  14.745
11319SOL    HW235855   6.940   6.568  14.737
11320SOL     OW35856  10.951  13.341   7.731
11320SOL    HW135857  10.973  13.359   7.822
11320SOL    HW235858  11.017  13.278   7.702
11321SOL     OW35859   9.197   2.196   6.305
11321SOL    HW135860   9.145   2.266   6.265
11321SOL    HW235861   9.281   2.200   6.260
11322SOL     OW35862   5.181   1.436   4.787
11322SOL    HW135863   5.156   1.345   4.806
11322SOL    HW235864   5.246   1.429   4.717
11323SOL     OW35865   0.737  12.583  10.904
11323SOL    HW135866   0.781  12.661  10.937
11323SOL    HW235867   0.720  12.603  10.812
11324SOL     OW35868  14.513  11.547  12.781
11324SOL    HW135869  14.442  11.512  12.727
11324SOL    HW235870  14.476  11.554  12.869
11325SOL     OW35871   9.551   6.096   3.653
11325SOL    HW135872   9.644   6.100   3.676
11325SOL    HW235873   9.514   6.036   3.717
11326SOL     OW35874  14.118   5.194   1.358
11326SOL    HW135875  14.107   5.192   1.263
11326SOL    HW235876  14.073   5.115   1.389
11327SOL     OW35877   6.058  14.267  13.787
11327SOL    HW135878   6.047  14.341  13.727
11327SOL    HW235879   6.148  14.237  13.771
11328SOL     OW35880   8.895  11.684  13.889
11328SOL    HW135881   8.818  11.705  13.941
11328SOL    HW235882   8.864  11.620  13.824
11329SOL     OW35883   7.510   5.344   1.047
11329SOL    HW135884   7.440   5.376   0.991
11329SOL    HW235885   7.553   5.275   0.996
11330SOL     OW35886  10.042  10.463  11.414
11330SOL    HW135887  10.004  10.539  11.459
11330SOL    HW235888   9.966  10.417  11.378
11331SOL     OW35889   5.517   2.024   4.692
11331SOL    HW135890   5.496   2.021   4.599
11331SOL    HW235891   5.613   2.026   4.695
11332SOL     OW35892   7.323   4.083  13.179
11332SOL    HW135893   7.412   4.066  13.148
11332SOL    HW235894   7.334   4.109  13.270
11333SOL     OW35895   7.284   3.145   6.280
11333SOL    HW135896   7.287   3.091   6.201
11333SOL    HW235897   7.356   3.207   6.269
11334SOL     OW35898   6.144  12.111  14.290
11334SOL    HW135899   6.212  12.177  14.302
11334SOL    HW235900   6.122  12.115  14.197
11335SOL     OW35901  11.560   9.088   7.837
11335SOL    HW135902  11.482   9.069   7.887
11335SOL    HW235903  11.532   9.154   7.773
11336SOL     OW35904  10.089   7.360   0.639
11336SOL    HW135905  10.114   7.394   0.724
11336SOL    HW235906  10.039   7.281   0.659
11337SOL     OW35907   3.761   3.586  10.016
11337SOL    HW135908   3.851   3.609  10.041
11337SOL    HW235909   3.761   3.491  10.014
11338SOL     OW35910   9.768   8.297  10.790
11338SOL    HW135911   9.740   8.214  10.829
11338SOL    HW235912   9.862   8.286  10.774
11339SOL     OW35913   2.467  14.302   2.206
11339SOL    HW135914   2.501  14.367   2.267
11339SOL    HW235915   2.442  14.228   2.262
11340SOL     OW35916   3.796  14.692   0.302
11340SOL    HW135917   3.752  14.769   0.337
11340SOL    HW235918   3.889  14.715   0.303
11341SOL     OW35919   5.622  13.051   1.795
11341SOL    HW135920   5.656  13.041   1.884
11341SOL    HW235921   5.550  13.113   1.804
11342SOL     OW35922   0.007   1.175  10.853
11342SOL    HW135923  14.860   1.261  10.816
11342SOL    HW235924   0.100   1.177  10.872
11343SOL     OW35925   0.931  13.976   6.332
11343SOL    HW135926   0.951  14.027   6.411
11343SOL    HW235927   1.011  13.983   6.279
11344SOL     OW35928   2.547  14.539   3.277
11344SOL    HW135929   2.602  14.471   3.315
11344SOL    HW235930   2.595  14.568   3.200
11345SOL     OW35931   7.449   9.461   3.197
11345SOL    HW135932   7.370   9.408   3.183
11345SOL    HW235933   7.425   9.522   3.266
11346SOL     OW35934  12.558   2.302   9.594
11346SOL    HW135935  12.533   2.374   9.536
11346SOL    HW235936  12.592   2.234   9.535
11347SOL     OW35937   6.011   6.201  13.117
11347SOL    HW135938   6.064   6.167  13.188
11347SOL    HW235939   5.933   6.146  13.117
11348SOL     OW35940  12.865   8.801   5.595
11348SOL    HW135941  12.940   8.844   5.636
11348SOL    HW235942  12.899   8.718   5.563
11349SOL     OW35943   4.363   1.118   7.448
11349SOL    HW135944   4.278   1.140   7.487
11349SOL    HW235945   4.418   1.094   7.523
11350SOL     OW35946   7.226   2.486   0.889
11350SOL    HW135947   7.153   2.505   0.947
11350SOL    HW235948   7.252   2.572   0.854
11351SOL     OW35949   5.626   4.670   9.054
11351SOL    HW135950   5.583   4.750   9.023
11351SOL    HW235951   5.571   4.639   9.125
11352SOL     OW35952   9.820   0.614   5.247
11352SOL    HW135953   9.777   0.568   5.319
11352SOL    HW235954   9.909   0.579   5.245
11353SOL     OW35955  12.513  14.499  10.293
11353SOL    HW135956  12.501  14.578  10.346
11353SOL    HW235957  12.471  14.519  10.210
11354SOL     OW35958   4.204   1.602   3.892
11354SOL    HW135959   4.288   1.608   3.938
11354SOL    HW235960   4.140   1.590   3.962
11355SOL     OW35961   1.166   8.688  12.901
11355SOL    HW135962   1.072   8.700  12.909
11355SOL    HW235963   1.204   8.762  12.949
11356SOL     OW35964   8.850   4.827   1.299
11356SOL    HW135965   8.898   4.745   1.288
11356SOL    HW235966   8.807   4.841   1.215
11357SOL     OW35967  10.221   5.540   1.838
11357SOL    HW135968  10.174   5.565   1.917
11357SOL    HW235969  10.312   5.566   1.854
11358SOL     OW35970   8.787   4.015   1.241
11358SOL    HW135971   8.840   3.953   1.190
11358SOL    HW235972   8.727   4.054   1.178
11359SOL     OW35973   5.619  10.489   6.467
11359SOL    HW135974   5.715  10.492   6.474
11359SOL    HW235975   5.597  10.399   6.489
11360SOL     OW35976  13.101   1.233  13.662
11360SOL    HW135977  13.120   1.232  13.568
11360SOL    HW235978  13.108   1.325  13.687
11361SOL     OW35979   3.300   5.800   3.627
11361SOL    HW135980   3.306   5.791   3.723
11361SOL    HW235981   3.268   5.889   3.614
11362SOL     OW35982  13.837   1.877  11.826
11362SOL    HW135983  13.745   1.861  11.803
11362SOL    HW235984  13.837   1.963  11.866
11363SOL     OW35985   6.953   4.874   7.652
11363SOL    HW135986   6.961   4.836   7.565
11363SOL    HW235987   6.967   4.968   7.638
11364SOL     OW35988   1.482   2.509  10.893
11364SOL    HW135989   1.388   2.496  10.878
11364SOL    HW235990   1.509   2.570  10.825
11365SOL     OW35991   8.603  12.092   3.793
11365SOL    HW135992   8.672  12.098   3.859
11365SOL    HW235993   8.522  12.111   3.840
11366SOL     OW35994   8.308   3.956  13.134
11366SOL    HW135995   8.334   4.045  13.160
11366SOL    HW235996   8.334   3.950  13.042
11367SOL     OW35997  14.276  10.156  10.216
11367SOL    HW135998  14.369  10.138  10.199
11367SOL    HW235999  14.230  10.081  10.178
11368SOL     OW36000  10.574   7.330   2.619
11368SOL    HW136001  10.499   7.306   2.565
11368SOL    HW236002  10.541   7.397   2.679
11369SOL     OW36003  13.916  13.833   0.106
11369SOL    HW136004  13.915  13.910   0.048
11369SOL    HW236005  13.824  13.814   0.122
11370SOL     OW36006   4.368   4.919   0.377
11370SOL    HW136007   4.346   5.012   0.370
11370SOL    HW236008   4.309   4.886   0.444
11371SOL     OW36009   6.021   3.207  12.557
11371SOL    HW136010   6.053   3.202  12.647
11371SOL    HW236011   6.071   3.139  12.510
11372SOL     OW36012   0.840   6.487  13.081
11372SOL    HW136013   0.911   6.480  13.145
11372SOL    HW236014   0.877   6.537  13.008
11373SOL     OW36015  14.508  14.276  10.841
11373SOL    HW136016  14.479  14.244  10.755
11373SOL    HW236017  14.429  14.269  10.896
11374SOL     OW36018   7.159   2.705   2.528
11374SOL    HW136019   7.079   2.742   2.489
11374SOL    HW236020   7.197   2.778   2.578
11375SOL     OW36021  11.582  14.741   0.544
11375SOL    HW136022  11.630  14.735   0.626
11375SOL    HW236023  11.585  14.652   0.509
11376SOL     OW36024   1.795   0.532   5.882
11376SOL    HW136025   1.705   0.564   5.880
11376SOL    HW236026   1.847   0.604   5.845
11377SOL     OW36027   1.062   4.450   8.490
11377SOL    HW136028   1.117   4.395   8.435
11377SOL    HW236029   1.110   4.533   8.496
11378SOL     OW36030   9.136  10.082   8.199
11378SOL    HW136031   9.228  10.061   8.188
11378SOL    HW236032   9.092  10.040   8.125
11379SOL     OW36033   0.264  12.131  13.765
11379SOL    HW136034   0.325  12.185  13.716
11379SOL    HW236035   0.177  12.158  13.735
11380SOL     OW36036   0.612   0.720   5.031
11380SOL    HW136037   0.611   0.657   5.103
11380SOL    HW236038   0.520   0.743   5.018
11381SOL     OW36039   4.559   5.468  14.417
11381SOL    HW136040   4.549   5.561  14.397
11381SOL    HW236041   4.579   5.465  14.510
11382SOL     OW36042   9.574   6.042   6.222
11382SOL    HW136043   9.584   5.948   6.205
11382SOL    HW236044   9.521   6.047   6.301
11383SOL     OW36045  13.167   6.497   1.701
11383SOL    HW136046  13.108   6.571   1.716
11383SOL    HW236047  13.158   6.477   1.608
11384SOL     OW36048   9.619   1.963   1.725
11384SOL    HW136049   9.527   1.971   1.701
11384SOL    HW236050   9.656   1.905   1.659
11385SOL     OW36051   6.723   7.690   7.251
11385SOL    HW136052   6.781   7.705   7.326
11385SOL    HW236053   6.707   7.777   7.215
11386SOL     OW36054  10.240   2.177  10.637
11386SOL    HW136055  10.152   2.140  10.646
11386SOL    HW236056  10.298   2.102  10.640
11387SOL     OW36057  14.707   0.115   4.187
11387SOL    HW136058  14.666   0.102   4.102
11387SOL    HW236059  14.793   0.153   4.166
11388SOL     OW36060   8.231   6.887  11.178
11388SOL    HW136061   8.217   6.925  11.264
11388SOL    HW236062   8.205   6.955  11.116
11389SOL     OW36063  14.065  13.321  14.494
11389SOL    HW136064  13.974  13.313  14.466
11389SOL    HW236065  14.080  13.245  14.550
11390SOL     OW36066  11.164  13.692  11.884
11390SOL    HW136067  11.177  13.665  11.793
11390SOL    HW236068  11.071  13.679  11.900
11391SOL     OW36069  12.411  13.749   7.793
11391SOL    HW136070  12.442  13.752   7.884
11391SOL    HW236071  12.411  13.840   7.764
11392SOL     OW36072   9.020  10.301   2.937
11392SOL    HW136073   9.007  10.361   3.010
11392SOL    HW236074   9.067  10.354   2.872
11393SOL     OW36075   7.302  13.728  12.685
11393SOL    HW136076   7.383  13.774  12.663
11393SOL    HW236077   7.331  13.645  12.723
11394SOL     OW36078   5.364   1.405   8.899
11394SOL    HW136079   5.392   1.495   8.881
11394SOL    HW236080   5.416   1.351   8.839
11395SOL     OW36081   0.415  14.260   7.954
11395SOL    HW136082   0.482  14.322   7.924
11395SOL    HW236083   0.365  14.308   8.020
11396SOL     OW36084   3.355  12.394   5.575
11396SOL    HW136085   3.367  12.467   5.637
11396SOL    HW236086   3.294  12.428   5.510
11397SOL     OW36087   2.446   5.172   5.042
11397SOL    HW136088   2.433   5.078   5.054
11397SOL    HW236089   2.416   5.211   5.123
11398SOL     OW36090   8.719  14.153   7.583
11398SOL    HW136091   8.738  14.119   7.496
11398SOL    HW236092   8.800  14.197   7.610
11399SOL     OW36093   5.010   9.941  13.979
11399SOL    HW136094   5.090   9.985  14.005
11399SOL    HW236095   4.943   9.974  14.038
11400SOL     OW36096   7.035   0.756   0.134
11400SOL    HW136097   7.055   0.693   0.065
11400SOL    HW236098   7.094   0.830   0.116
11401SOL     OW36099   4.635   3.018   6.075
11401SOL    HW136100   4.698   3.084   6.104
11401SOL    HW236101   4.555   3.066   6.057
11402SOL     OW36102  10.302   3.106   7.526
11402SOL    HW136103  10.268   3.016   7.529
11402SOL    HW236104  10.262   3.149   7.602
11403SOL     OW36105   8.567   6.055  12.372
11403SOL    HW136106   8.512   6.092  12.303
11403SOL    HW236107   8.591   5.968  12.341
11404SOL     OW36108   5.979   1.457   6.605
11404SOL    HW136109   6.057   1.487   6.652
11404SOL    HW236110   6.001   1.465   6.513
11405SOL     OW36111   4.231   8.593  12.300
11405SOL    HW136112   4.321   8.625  12.297
11405SOL    HW236113   4.179   8.663  12.260
11406SOL     OW36114   3.619   5.570   1.775
11406SOL    HW136115   3.587   5.535   1.692
11406SOL    HW236116   3.550   5.628   1.805
11407SOL     OW36117   2.405   8.606  12.561
11407SOL    HW136118   2.453   8.621  12.642
11407SOL    HW236119   2.332   8.549  12.587
11408SOL     OW36120   5.926   4.981   8.817
11408SOL    HW136121   5.836   4.959   8.792
11408SOL    HW236122   5.976   4.901   8.799
11409SOL     OW36123  11.957   9.391  10.204
11409SOL    HW136124  11.865   9.416  10.201
11409SOL    HW236125  11.975   9.378  10.297
11410SOL     OW36126   3.018   6.165   4.852
11410SOL    HW136127   3.071   6.240   4.881
11410SOL    HW236128   2.927   6.192   4.868
11411SOL     OW36129   6.875   9.727  10.809
11411SOL    HW136130   6.812   9.765  10.747
11411SOL    HW236131   6.960   9.747  10.771
11412SOL     OW36132   8.754   5.875   7.211
11412SOL    HW136133   8.680   5.823   7.244
11412SOL    HW236134   8.802   5.900   7.290
11413SOL     OW36135   4.114   8.356   3.808
11413SOL    HW136136   4.079   8.267   3.805
11413SOL    HW236137   4.205   8.346   3.834
11414SOL     OW36138   2.742   9.136   1.753
11414SOL    HW136139   2.817   9.184   1.719
11414SOL    HW236140   2.695   9.200   1.807
11415SOL     OW36141  11.007   8.834  11.180
11415SOL    HW136142  10.934   8.778  11.208
11415SOL    HW236143  10.965   8.914  11.149
11416SOL     OW36144   9.953   5.766  12.318
11416SOL    HW136145   9.963   5.725  12.233
11416SOL    HW236146   9.964   5.695  12.381
11417SOL     OW36147   0.090   5.384   3.616
11417SOL    HW136148   0.057   5.414   3.701
11417SOL    HW236149   0.182   5.363   3.633
11418SOL     OW36150   2.681  13.907  11.969
11418SOL    HW136151   2.670  13.895  11.875
11418SOL    HW236152   2.637  13.831  12.008
11419SOL     OW36153   2.380   7.482   3.300
11419SOL    HW136154   2.452   7.442   3.251
11419SOL    HW236155   2.416   7.564   3.334
11420SOL     OW36156  13.018  13.572  11.860
11420SOL    HW136157  13.055  13.654  11.828
11420SOL    HW236158  13.049  13.565  11.950
11421SOL     OW36159  13.392   1.663   4.257
11421SOL    HW136160  13.308   1.629   4.286
11421SOL    HW236161  13.450   1.654   4.333
11422SOL     OW36162  11.471   8.177   2.104
11422SOL    HW136163  11.499   8.187   2.195
11422SOL    HW236164  11.382   8.142   2.109
11423SOL     OW36165   8.993   3.077   7.055
11423SOL    HW136166   8.920   3.111   7.107
11423SOL    HW236167   9.050   3.035   7.119
11424SOL     OW36168   7.178  10.038   1.562
11424SOL    HW136169   7.139  10.059   1.647
11424SOL    HW236170   7.106  10.001   1.511
11425SOL     OW36171  11.831   3.969  10.356
11425SOL    HW136172  11.842   4.057  10.322
11425SOL    HW236173  11.785   3.981  10.439
11426SOL     OW36174  11.418   3.011   5.220
11426SOL    HW136175  11.349   2.950   5.248
11426SOL    HW236176  11.370   3.081   5.175
11427SOL     OW36177  13.012  10.354   8.738
11427SOL    HW136178  13.050  10.367   8.651
11427SOL    HW236179  12.981  10.264   8.738
11428SOL     OW36180   0.318   4.670  10.993
11428SOL    HW136181   0.398   4.622  11.015
11428SOL    HW236182   0.312   4.738  11.061
11429SOL     OW36183   3.279  13.728   8.023
11429SOL    HW136184   3.185  13.720   8.037
11429SOL    HW236185   3.316  13.651   8.066
11430SOL     OW36186   3.683   2.386  14.284
11430SOL    HW136187   3.698   2.412  14.376
11430SOL    HW236188   3.698   2.467  14.235
11431SOL     OW36189   2.286  11.324   7.034
11431SOL    HW136190   2.256  11.237   7.008
11431SOL    HW236191   2.312  11.313   7.126
11432SOL     OW36192   1.271  13.264   5.933
11432SOL    HW136193   1.262  13.214   6.014
11432SOL    HW236194   1.299  13.351   5.962
11433SOL     OW36195  12.608   5.102   3.639
11433SOL    HW136196  12.532   5.123   3.584
11433SOL    HW236197  12.571   5.060   3.717
11434SOL     OW36198   4.550  13.828   0.092
11434SOL    HW136199   4.624  13.778   0.058
11434SOL    HW236200   4.566  13.836   0.186
11435SOL     OW36201   0.419   5.612   1.636
11435SOL    HW136202   0.501   5.610   1.587
11435SOL    HW236203   0.390   5.703   1.632
11436SOL     OW36204   5.855  12.999   2.475
11436SOL    HW136205   5.854  13.093   2.461
11436SOL    HW236206   5.873  12.988   2.568
11437SOL     OW36207   5.895   9.258   1.061
11437SOL    HW136208   5.873   9.343   1.023
11437SOL    HW236209   5.812   9.210   1.061
11438SOL     OW36210   5.112   1.964   7.138
11438SOL    HW136211   5.166   1.974   7.216
11438SOL    HW236212   5.025   1.993   7.165
11439SOL     OW36213   1.597   8.743   5.497
11439SOL    HW136214   1.586   8.670   5.436
11439SOL    HW236215   1.611   8.702   5.582
11440SOL     OW36216  11.909   8.912   3.536
11440SOL    HW136217  11.865   8.878   3.615
11440SOL    HW236218  11.955   8.990   3.566
11441SOL     OW36219  12.458  14.696  14.088
11441SOL    HW136220  12.423  14.607  14.091
11441SOL    HW236221  12.442  14.725  13.998
11442SOL     OW36222   4.894   4.021   8.599
11442SOL    HW136223   4.958   4.091   8.615
11442SOL    HW236224   4.946   3.941   8.599
11443SOL     OW36225   0.955   3.782   2.062
11443SOL    HW136226   0.866   3.776   2.095
11443SOL    HW236227   0.962   3.870   2.025
11444SOL     OW36228   9.402   2.680   7.893
11444SOL    HW136229   9.488   2.722   7.890
11444SOL    HW236230   9.418   2.595   7.935
11445SOL     OW36231  10.850   3.329   9.646
11445SOL    HW136232  10.902   3.252   9.670
11445SOL    HW236233  10.872   3.394   9.713
11446SOL     OW36234   5.632   9.164  12.236
11446SOL    HW136235   5.574   9.113  12.293
11446SOL    HW236236   5.573   9.208  12.175
11447SOL     OW36237  14.004   2.902  13.596
11447SOL    HW136238  14.034   2.857  13.517
11447SOL    HW236239  13.947   2.839  13.639
11448SOL     OW36240  14.359   1.463   2.320
11448SOL    HW136241  14.354   1.392   2.384
11448SOL    HW236242  14.333   1.542   2.368
11449SOL     OW36243   2.797  12.933   1.791
11449SOL    HW136244   2.788  12.857   1.849
11449SOL    HW236245   2.746  13.002   1.833
11450SOL     OW36246   4.345   4.548  12.809
11450SOL    HW136247   4.262   4.551  12.857
11450SOL    HW236248   4.323   4.574  12.720
11451SOL     OW36249  14.815   6.947  13.535
11451SOL    HW136250  14.824   7.015  13.468
11451SOL    HW236251   0.029   6.906  13.540
11452SOL     OW36252   5.749   5.616   2.398
11452SOL    HW136253   5.801   5.694   2.411
11452SOL    HW236254   5.704   5.602   2.481
11453SOL     OW36255   4.949  10.097   7.541
11453SOL    HW136256   4.987  10.010   7.531
11453SOL    HW236257   4.856  10.081   7.561
11454SOL     OW36258   6.826   6.098  11.765
11454SOL    HW136259   6.835   6.086  11.860
11454SOL    HW236260   6.789   6.015  11.735
11455SOL     OW36261  14.371   7.287   4.464
11455SOL    HW136262  14.321   7.328   4.394
11455SOL    HW236263  14.456   7.266   4.424
11456SOL     OW36264   2.527  12.179   5.372
11456SOL    HW136265   2.442  12.211   5.341
11456SOL    HW236266   2.520  12.084   5.368
11457SOL     OW36267   5.200  11.710   2.979
11457SOL    HW136268   5.257  11.763   2.924
11457SOL    HW236269   5.163  11.644   2.920
11458SOL     OW36270   4.247   6.013  11.116
11458SOL    HW136271   4.186   5.947  11.150
11458SOL    HW236272   4.197   6.094  11.115
11459SOL     OW36273   0.932  14.648   9.360
11459SOL    HW136274   0.997  14.613   9.421
11459SOL    HW236275   0.847  14.625   9.398
11460SOL     OW36276   9.054  14.814   1.066
11460SOL    HW136277   9.009  14.840   0.985
11460SOL    HW236278   8.996  14.843   1.136
11461SOL     OW36279  11.204   8.759   4.930
11461SOL    HW136280  11.115   8.736   4.954
11461SOL    HW236281  11.259   8.702   4.984
11462SOL     OW36282   2.127  10.333   9.266
11462SOL    HW136283   2.212  10.289   9.271
11462SOL    HW236284   2.125  10.372   9.179
11463SOL     OW36285   7.871   8.827   9.765
11463SOL    HW136286   7.934   8.814   9.836
11463SOL    HW236287   7.789   8.792   9.798
11464SOL     OW36288  11.140  13.263   0.294
11464SOL    HW136289  11.095  13.198   0.240
11464SOL    HW236290  11.117  13.348   0.255
11465SOL     OW36291   7.857   3.108   8.838
11465SOL    HW136292   7.769   3.136   8.864
11465SOL    HW236293   7.841   3.038   8.774
11466SOL     OW36294   8.089   7.380   3.668
11466SOL    HW136295   8.158   7.347   3.726
11466SOL    HW236296   8.096   7.475   3.674
11467SOL     OW36297   2.603   2.719   1.526
11467SOL    HW136298   2.574   2.729   1.616
11467SOL    HW236299   2.651   2.636   1.526
11468SOL     OW36300  13.406   6.747   1.922
11468SOL    HW136301  13.312   6.758   1.939
11468SOL    HW236302  13.446   6.826   1.958
11469SOL     OW36303  11.076   9.571  14.821
11469SOL    HW136304  10.985   9.560  14.793
11469SOL    HW236305  11.091   9.666  14.816
11470SOL     OW36306   9.891   5.057   0.363
11470SOL    HW136307   9.870   5.104   0.281
11470SOL    HW236308   9.965   5.105   0.400
11471SOL     OW36309   1.758   8.449  14.026
11471SOL    HW136310   1.794   8.439  13.938
11471SOL    HW236311   1.830   8.425  14.084
11472SOL     OW36312   5.368   1.834   2.308
11472SOL    HW136313   5.363   1.738   2.308
11472SOL    HW236314   5.322   1.860   2.228
11473SOL     OW36315   2.359  13.204  13.536
11473SOL    HW136316   2.274  13.166  13.517
11473SOL    HW236317   2.383  13.169  13.622
11474SOL     OW36318   2.521   5.619  11.525
11474SOL    HW136319   2.559   5.697  11.566
11474SOL    HW236320   2.459   5.653  11.461
11475SOL     OW36321  13.223   7.096  13.804
11475SOL    HW136322  13.225   7.104  13.899
11475SOL    HW236323  13.143   7.047  13.785
11476SOL     OW36324   7.283   0.688   3.468
11476SOL    HW136325   7.240   0.603   3.459
11476SOL    HW236326   7.347   0.690   3.397
11477SOL     OW36327   8.845   0.647  12.439
11477SOL    HW136328   8.879   0.728  12.400
11477SOL    HW236329   8.896   0.635  12.519
11478SOL     OW36330   9.886   2.500   6.969
11478SOL    HW136331   9.967   2.549   6.984
11478SOL    HW236332   9.829   2.561   6.923
11479SOL     OW36333   1.128   2.257  11.132
11479SOL    HW136334   1.217   2.291  11.137
11479SOL    HW236335   1.073   2.329  11.163
11480SOL     OW36336   5.077   5.919  14.130
11480SOL    HW136337   5.058   5.999  14.081
11480SOL    HW236338   5.168   5.897  14.107
11481SOL     OW36339  12.272   6.091  13.381
11481SOL    HW136340  12.317   6.122  13.459
11481SOL    HW236341  12.197   6.150  13.372
11482SOL     OW36342  11.042   7.135   5.606
11482SOL    HW136343  11.013   7.071   5.541
11482SOL    HW236344  10.994   7.215   5.583
11483SOL     OW36345  11.970   3.159   4.475
11483SOL    HW136346  12.010   3.094   4.533
11483SOL    HW236347  11.876   3.141   4.481
11484SOL     OW36348   8.743   8.571   7.064
11484SOL    HW136349   8.748   8.612   7.150
11484SOL    HW236350   8.650   8.573   7.041
11485SOL     OW36351  11.507   4.277   8.949
11485SOL    HW136352  11.472   4.345   9.006
11485SOL    HW236353  11.456   4.284   8.869
11486SOL     OW36354   0.500  12.662   8.087
11486SOL    HW136355   0.548  12.647   8.006
11486SOL    HW236356   0.408  12.666   8.059
11487SOL     OW36357   5.078   3.814   4.923
11487SOL    HW136358   5.009   3.849   4.979
11487SOL    HW236359   5.140   3.887   4.913
11488SOL     OW36360   3.870   4.046   6.904
11488SOL    HW136361   3.961   4.051   6.875
11488SOL    HW236362   3.824   4.005   6.830
11489SOL     OW36363   6.134   1.475   5.933
11489SOL    HW136364   6.208   1.415   5.923
11489SOL    HW236365   6.087   1.469   5.849
11490SOL     OW36366  11.855   8.599   0.646
11490SOL    HW136367  11.881   8.689   0.667
11490SOL    HW236368  11.760   8.603   0.635
11491SOL     OW36369   9.116   9.911   6.275
11491SOL    HW136370   9.087   9.923   6.365
11491SOL    HW236371   9.036   9.904   6.224
11492SOL     OW36372  13.047   3.233  13.897
11492SOL    HW136373  13.033   3.283  13.977
11492SOL    HW236374  13.004   3.149  13.912
11493SOL     OW36375  11.262  14.807   8.783
11493SOL    HW136376  11.167  14.811   8.778
11493SOL    HW236377  11.290  14.780   8.696
11494SOL     OW36378  12.168  12.681  13.849
11494SOL    HW136379  12.198  12.771  13.862
11494SOL    HW236380  12.217  12.630  13.914
11495SOL     OW36381  14.370   0.840   7.685
11495SOL    HW136382  14.409   0.926   7.696
11495SOL    HW236383  14.276   0.857   7.675
11496SOL     OW36384  14.334   3.906   9.672
11496SOL    HW136385  14.354   3.818   9.640
11496SOL    HW236386  14.247   3.898   9.712
11497SOL     OW36387  10.894  14.720   1.545
11497SOL    HW136388  10.804  14.729   1.574
11497SOL    HW236389  10.908  14.792   1.484
11498SOL     OW36390   3.474   9.952   1.543
11498SOL    HW136391   3.391   9.904   1.543
11498SOL    HW236392   3.453  10.036   1.502
11499SOL     OW36393  10.204  12.711   8.741
11499SOL    HW136394  10.199  12.742   8.831
11499SOL    HW236395  10.135  12.759   8.695
11500SOL     OW36396   8.981  13.990   1.248
11500SOL    HW136397   8.960  13.972   1.340
11500SOL    HW236398   8.911  13.948   1.198
11501SOL     OW36399  10.093  13.416   4.593
11501SOL    HW136400  10.007  13.449   4.565
11501SOL    HW236401  10.075  13.367   4.673
11502SOL     OW36402   5.973   0.701   0.417
11502SOL    HW136403   6.023   0.772   0.457
11502SOL    HW236404   5.937   0.652   0.491
11503SOL     OW36405   8.873   2.745   1.134
11503SOL    HW136406   8.852   2.686   1.062
11503SOL    HW236407   8.789   2.782   1.161
11504SOL     OW36408  14.735  11.242  10.696
11504SOL    HW136409  14.774  11.178  10.636
11504SOL    HW236410  14.660  11.197  10.734
11505SOL     OW36411  13.895   0.354   7.230
11505SOL    HW136412  13.883   0.404   7.149
11505SOL    HW236413  13.840   0.276   7.218
11506SOL     OW36414   4.614   7.813   6.629
11506SOL    HW136415   4.535   7.860   6.654
11506SOL    HW236416   4.685   7.877   6.638
11507SOL     OW36417  14.159   5.902   2.255
11507SOL    HW136418  14.198   5.859   2.179
11507SOL    HW236419  14.171   5.995   2.239
11508SOL     OW36420  14.283   4.522   6.017
11508SOL    HW136421  14.283   4.506   6.111
11508SOL    HW236422  14.306   4.614   6.008
11509SOL     OW36423  11.197   9.727   1.830
11509SOL    HW136424  11.224   9.802   1.778
11509SOL    HW236425  11.142   9.675   1.771
11510SOL     OW36426  11.408   9.537   8.367
11510SOL    HW136427  11.453   9.495   8.440
11510SOL    HW236428  11.325   9.491   8.360
11511SOL     OW36429   4.421   4.599  12.340
11511SOL    HW136430   4.492   4.647  12.383
11511SOL    HW236431   4.464   4.523  12.300
11512SOL     OW36432  10.490  14.641   3.577
11512SOL    HW136433  10.472  14.680   3.663
11512SOL    HW236434  10.403  14.617   3.543
11513SOL     OW36435   6.936   3.315  14.554
11513SOL    HW136436   6.932   3.410  14.550
11513SOL    HW236437   6.940   3.287  14.463
11514SOL     OW36438   6.114   8.332   0.489
11514SOL    HW136439   6.116   8.410   0.433
11514SOL    HW236440   6.032   8.288   0.466
11515SOL     OW36441   6.584   3.347   2.839
11515SOL    HW136442   6.657   3.318   2.895
11515SOL    HW236443   6.527   3.271   2.833
11516SOL     OW36444   0.115  13.596   9.556
11516SOL    HW136445   0.175  13.571   9.627
11516SOL    HW236446   0.147  13.548   9.480
11517SOL     OW36447  10.613   2.078  13.978
11517SOL    HW136448  10.705   2.066  13.955
11517SOL    HW236449  10.602   2.173  13.986
11518SOL     OW36450   7.677   4.645  12.181
11518SOL    HW136451   7.744   4.577  12.180
11518SOL    HW236452   7.666   4.668  12.273
11519SOL     OW36453   5.724   6.732  13.655
11519SOL    HW136454   5.723   6.721  13.560
11519SOL    HW236455   5.734   6.644  13.690
11520SOL     OW36456   0.067   0.745   7.662
11520SOL    HW136457   0.141   0.684   7.663
11520SOL    HW236458   0.017   0.721   7.584
11521SOL     OW36459   2.570  14.216  14.497
11521SOL    HW136460   2.545  14.216  14.589
11521SOL    HW236461   2.580  14.123  14.475
11522SOL     OW36462   0.064   7.049   3.684
11522SOL    HW136463   0.077   7.012   3.772
11522SOL    HW236464   0.061   6.972   3.626
11523SOL     OW36465   3.019   9.143  10.296
11523SOL    HW136466   2.931   9.166  10.264
11523SOL    HW236467   3.038   9.211  10.361
11524SOL     OW36468   4.268   0.405   9.344
11524SOL    HW136469   4.245   0.331   9.401
11524SOL    HW236470   4.273   0.480   9.403
11525SOL     OW36471  12.574   7.441   0.990
11525SOL    HW136472  12.501   7.431   1.052
11525SOL    HW236473  12.587   7.536   0.985
11526SOL     OW36474  13.457  11.737  10.006
11526SOL    HW136475  13.414  11.771  10.085
11526SOL    HW236476  13.523  11.676  10.038
11527SOL     OW36477  14.857   1.192   6.089
11527SOL    HW136478   0.068   1.218   6.051
11527SOL    HW236479  14.850   1.099   6.068
11528SOL     OW36480  11.079   6.399  12.432
11528SOL    HW136481  11.071   6.304  12.431
11528SOL    HW236482  11.142   6.419  12.362
11529SOL     OW36483   4.904  13.652   6.423
11529SOL    HW136484   4.922  13.734   6.468
11529SOL    HW236485   4.989  13.609   6.415
11530SOL     OW36486   0.132  12.629   4.780
11530SOL    HW136487   0.104  12.539   4.798
11530SOL    HW236488   0.217  12.620   4.737
11531SOL     OW36489  12.550   3.578   1.263
11531SOL    HW136490  12.536   3.545   1.352
11531SOL    HW236491  12.463   3.607   1.235
11532SOL     OW36492   6.987  13.621   2.467
11532SOL    HW136493   6.973  13.530   2.439
11532SOL    HW236494   7.070  13.646   2.426
11533SOL     OW36495   3.364  11.828   9.208
11533SOL    HW136496   3.270  11.840   9.227
11533SOL    HW236497   3.367  11.803   9.116
11534SOL     OW36498   8.366   8.123   9.181
11534SOL    HW136499   8.450   8.155   9.214
11534SOL    HW236500   8.314   8.109   9.259
11535SOL     OW36501   6.213   4.085   0.252
11535SOL    HW136502   6.286   4.075   0.313
11535SOL    HW236503   6.209   4.179   0.234
11536SOL     OW36504   0.323   6.725   1.217
11536SOL    HW136505   0.305   6.643   1.171
11536SOL    HW236506   0.282   6.792   1.162
11537SOL     OW36507   7.791  14.240   3.802
11537SOL    HW136508   7.759  14.256   3.714
11537SOL    HW236509   7.712  14.219   3.853
11538SOL     OW36510   8.643  14.146  14.597
11538SOL    HW136511   8.715  14.105  14.644
11538SOL    HW236512   8.670  14.143  14.505
11539SOL     OW36513  11.269   1.789  13.678
11539SOL    HW136514  11.272   1.706  13.630
11539SOL    HW236515  11.324   1.775  13.755
11540SOL     OW36516  10.652   1.658  10.666
11540SOL    HW136517  10.641   1.741  10.713
11540SOL    HW236518  10.743   1.633  10.683
11541SOL     OW36519   0.908  12.159   6.762
11541SOL    HW136520   0.827  12.210   6.754
11541SOL    HW236521   0.880  12.068   6.756
11542SOL     OW36522   2.902   4.529  14.325
11542SOL    HW136523   2.865   4.441  14.337
11542SOL    HW236524   2.986   4.513  14.282
11543SOL     OW36525  13.590   1.910   5.463
11543SOL    HW136526  13.515   1.946   5.511
11543SOL    HW236527  13.566   1.819   5.446
11544SOL     OW36528  14.107   6.116   8.188
11544SOL    HW136529  14.180   6.098   8.128
11544SOL    HW236530  14.029   6.089   8.140
11545SOL     OW36531   6.188   6.600   3.222
11545SOL    HW136532   6.254   6.625   3.288
11545SOL    HW236533   6.107   6.591   3.272
11546SOL     OW36534   1.626  14.009   8.879
11546SOL    HW136535   1.626  13.927   8.930
11546SOL    HW236536   1.716  14.016   8.847
11547SOL     OW36537  14.289  11.209   1.841
11547SOL    HW136538  14.374  11.253   1.841
11547SOL    HW236539  14.229  11.274   1.803
11548SOL     OW36540   9.902   7.022   1.296
11548SOL    HW136541   9.834   6.961   1.267
11548SOL    HW236542   9.865   7.063   1.374
11549SOL     OW36543   9.575   5.328   0.663
11549SOL    HW136544   9.628   5.249   0.665
11549SOL    HW236545   9.506   5.310   0.599
11550SOL     OW36546   1.178  10.662  14.704
11550SOL    HW136547   1.220  10.722  14.642
11550SOL    HW236548   1.088  10.656  14.674
11551SOL     OW36549  11.187   4.176   0.548
11551SOL    HW136550  11.205   4.251   0.492
11551SOL    HW236551  11.229   4.103   0.503
11552SOL     OW36552   2.240  14.054   7.496
11552SOL    HW136553   2.154  14.089   7.471
11552SOL    HW236554   2.247  14.071   7.590
11553SOL     OW36555   6.093  14.112   0.246
11553SOL    HW136556   6.131  14.171   0.311
11553SOL    HW236557   6.137  14.136   0.164
11554SOL     OW36558  14.580   7.147   5.692
11554SOL    HW136559  14.527   7.068   5.700
11554SOL    HW236560  14.630   7.134   5.611
11555SOL     OW36561   8.038  11.888   9.598
11555SOL    HW136562   8.002  11.828   9.663
11555SOL    HW236563   8.039  11.838   9.517
11556SOL     OW36564  13.764   6.568   2.070
11556SOL    HW136565  13.725   6.623   2.137
11556SOL    HW236566  13.808   6.498   2.119
11557SOL     OW36567   5.765   6.788  14.479
11557SOL    HW136568   5.804   6.762  14.563
11557SOL    HW236569   5.776   6.711  14.423
11558SOL     OW36570  14.754   1.487   8.845
11558SOL    HW136571  14.772   1.405   8.891
11558SOL    HW236572  14.774   1.467   8.753
11559SOL     OW36573   6.125  11.106   0.973
11559SOL    HW136574   6.117  11.066   0.887
11559SOL    HW236575   6.091  11.195   0.962
11560SOL     OW36576   2.835  11.140   4.578
11560SOL    HW136577   2.893  11.092   4.520
11560SOL    HW236578   2.783  11.196   4.520
11561SOL     OW36579  14.436   5.288   4.006
11561SOL    HW136580  14.486   5.346   3.949
11561SOL    HW236581  14.498   5.264   4.075
11562SOL     OW36582   9.373  14.768   4.354
11562SOL    HW136583   9.349  14.851   4.395
11562SOL    HW236584   9.462  14.782   4.321
11563SOL     OW36585   6.367  11.349   1.837
11563SOL    HW136586   6.279  11.314   1.852
11563SOL    HW236587   6.399  11.371   1.925
11564SOL     OW36588  10.697   5.290  14.068
11564SOL    HW136589  10.705   5.232  14.143
11564SOL    HW236590  10.688   5.232  13.993
11565SOL     OW36591  10.588  13.234  12.259
11565SOL    HW136592  10.673  13.274  12.277
11565SOL    HW236593  10.607  13.159  12.202
11566SOL     OW36594  13.762  14.362   2.486
11566SOL    HW136595  13.778  14.451   2.517
11566SOL    HW236596  13.791  14.306   2.558
11567SOL     OW36597   1.061   2.077  14.405
11567SOL    HW136598   1.085   2.038  14.489
11567SOL    HW236599   1.063   2.003  14.344
11568SOL     OW36600  14.134   2.044  14.444
11568SOL    HW136601  14.081   1.970  14.474
11568SOL    HW236602  14.223   2.008  14.438
11569SOL     OW36603   9.687   8.911  10.026
11569SOL    HW136604   9.591   8.903  10.021
11569SOL    HW236605   9.713   8.848  10.092
11570SOL     OW36606   7.199   2.764   6.646
11570SOL    HW136607   7.167   2.675   6.637
11570SOL    HW236608   7.193   2.783   6.740
11571SOL     OW36609  12.136   2.290  13.988
11571SOL    HW136610  12.218   2.327  13.958
11571SOL    HW236611  12.144   2.196  13.972
11572SOL     OW36612  14.609   5.996   8.769
11572SOL    HW136613  14.674   6.061   8.741
11572SOL    HW236614  14.533   6.015   8.713
11573SOL     OW36615  12.069  11.879   4.374
11573SOL    HW136616  12.014  11.807   4.342
11573SOL    HW236617  12.140  11.886   4.310
11574SOL     OW36618   3.715  10.242   9.738
11574SOL    HW136619   3.779  10.238   9.809
11574SOL    HW236620   3.767  10.258   9.660
11575SOL     OW36621   6.810  14.500   4.041
11575SOL    HW136622   6.884  14.547   4.079
11575SOL    HW236623   6.837  14.482   3.951
11576SOL     OW36624   5.275   2.809   2.897
11576SOL    HW136625   5.192   2.799   2.945
11576SOL    HW236626   5.282   2.728   2.846
11577SOL     OW36627   0.069   5.545   1.686
11577SOL    HW136628  14.851   5.549   1.718
11577SOL    HW236629   0.060   5.543   1.591
11578SOL     OW36630   6.019   9.412   3.192
11578SOL    HW136631   6.057   9.371   3.269
11578SOL    HW236632   5.947   9.465   3.226
11579SOL     OW36633   9.449   0.676  11.462
11579SOL    HW136634   9.505   0.652  11.388
11579SOL    HW236635   9.382   0.607  11.464
11580SOL     OW36636  13.995  12.478   9.486
11580SOL    HW136637  14.004  12.501   9.393
11580SOL    HW236638  13.980  12.383   9.486
11581SOL     OW36639   6.853   2.456   4.212
11581SOL    HW136640   6.901   2.506   4.279
11581SOL    HW236641   6.787   2.517   4.179
11582SOL     OW36642   2.577   9.987   7.832
11582SOL    HW136643   2.497   9.943   7.861
11582SOL    HW236644   2.554  10.080   7.829
11583SOL     OW36645  13.121   6.436   5.070
11583SOL    HW136646  13.144   6.526   5.095
11583SOL    HW236647  13.042   6.446   5.017
11584SOL     OW36648   4.463   1.807   8.584
11584SOL    HW136649   4.448   1.849   8.669
11584SOL    HW236650   4.555   1.823   8.565
11585SOL     OW36651   0.361   4.622   5.429
11585SOL    HW136652   0.275   4.624   5.385
11585SOL    HW236653   0.416   4.568   5.372
11586SOL     OW36654  13.754   2.404  12.445
11586SOL    HW136655  13.810   2.400  12.367
11586SOL    HW236656  13.717   2.492  12.443
11587SOL     OW36657  12.795   8.898   0.870
11587SOL    HW136658  12.790   8.866   0.780
11587SOL    HW236659  12.827   8.823   0.921
11588SOL     OW36660   5.736  11.018   7.798
11588SOL    HW136661   5.696  10.947   7.747
11588SOL    HW236662   5.689  11.017   7.881
11589SOL     OW36663   9.411   7.749   6.828
11589SOL    HW136664   9.491   7.796   6.851
11589SOL    HW236665   9.380   7.711   6.910
11590SOL     OW36666   0.704   4.467   4.449
11590SOL    HW136667   0.758   4.546   4.452
11590SOL    HW236668   0.726   4.425   4.366
11591SOL     OW36669   0.333  11.737   3.842
11591SOL    HW136670   0.291  11.700   3.764
11591SOL    HW236671   0.305  11.679   3.913
11592SOL     OW36672   7.574   0.971   1.366
11592SOL    HW136673   7.507   0.977   1.298
11592SOL    HW236674   7.646   0.924   1.324
11593SOL     OW36675  12.666  13.779   0.949
11593SOL    HW136676  12.718  13.774   0.868
11593SOL    HW236677  12.640  13.688   0.966
11594SOL     OW36678   8.802  13.871   5.815
11594SOL    HW136679   8.799  13.960   5.781
11594SOL    HW236680   8.788  13.815   5.738
11595SOL     OW36681  13.868   3.803   4.991
11595SOL    HW136682  13.935   3.852   5.039
11595SOL    HW236683  13.867   3.717   5.033
11596SOL     OW36684   9.012  10.735   2.226
11596SOL    HW136685   9.097  10.718   2.185
11596SOL    HW236686   9.022  10.821   2.266
11597SOL     OW36687   8.011  12.868   8.588
11597SOL    HW136688   8.085  12.884   8.646
11597SOL    HW236689   7.958  12.948   8.593
11598SOL     OW36690  12.638  14.868   7.719
11598SOL    HW136691  12.567   0.048   7.757
11598SOL    HW236692  12.680   0.054   7.656
11599SOL     OW36693   7.280   4.663   2.531
11599SOL    HW136694   7.352   4.705   2.484
11599SOL    HW236695   7.201   4.703   2.493
11600SOL     OW36696   8.274   0.723  12.700
11600SOL    HW136697   8.189   0.710  12.741
11600SOL    HW236698   8.335   0.673  12.755
11601SOL     OW36699   2.952   2.545  11.656
11601SOL    HW136700   3.006   2.467  11.670
11601SOL    HW236701   2.989   2.585  11.577
11602SOL     OW36702  11.796   3.246   2.168
11602SOL    HW136703  11.784   3.246   2.263
11602SOL    HW236704  11.799   3.154   2.143
11603SOL     OW36705   1.364   0.463   8.985
11603SOL    HW136706   1.346   0.496   9.073
11603SOL    HW236707   1.359   0.368   8.995
11604SOL     OW36708   0.176   6.663  10.848
11604SOL    HW136709   0.150   6.663  10.756
11604SOL    HW236710   0.223   6.746  10.859
11605SOL     OW36711   7.982   9.503  12.955
11605SOL    HW136712   8.048   9.514  13.024
11605SOL    HW236713   8.027   9.528  12.874
11606SOL     OW36714  12.530   9.026   4.569
11606SOL    HW136715  12.625   9.031   4.560
11606SOL    HW236716  12.496   9.100   4.518
11607SOL     OW36717   6.580   9.593   4.298
11607SOL    HW136718   6.510   9.657   4.284
11607SOL    HW236719   6.659   9.647   4.310
11608SOL     OW36720   8.870   7.118   0.147
11608SOL    HW136721   8.797   7.085   0.095
11608SOL    HW236722   8.833   7.133   0.234
11609SOL     OW36723   8.712   8.937   9.431
11609SOL    HW136724   8.637   8.905   9.381
11609SOL    HW236725   8.684   8.931   9.522
11610SOL     OW36726   9.292  11.307  12.975
11610SOL    HW136727   9.313  11.264  13.058
11610SOL    HW236728   9.316  11.242  12.909
11611SOL     OW36729  12.303   6.528   0.259
11611SOL    HW136730  12.315   6.612   0.303
11611SOL    HW236731  12.262   6.551   0.176
11612SOL     OW36732   0.904   9.205  14.713
11612SOL    HW136733   0.900   9.110  14.723
11612SOL    HW236734   0.844   9.224  14.640
11613SOL     OW36735  13.804   9.089   9.147
11613SOL    HW136736  13.764   9.019   9.198
11613SOL    HW236737  13.848   9.143   9.212
11614SOL     OW36738   9.277  13.529   9.228
11614SOL    HW136739   9.242  13.618   9.225
11614SOL    HW236740   9.200  13.474   9.243
11615SOL     OW36741   1.151   6.244   4.688
11615SOL    HW136742   1.069   6.194   4.687
11615SOL    HW236743   1.175   6.250   4.780
11616SOL     OW36744   5.688   7.110   5.040
11616SOL    HW136745   5.751   7.120   4.969
11616SOL    HW236746   5.730   7.154   5.115
11617SOL     OW36747  11.100  11.046   1.823
11617SOL    HW136748  11.080  11.015   1.734
11617SOL    HW236749  11.161  11.118   1.809
11618SOL     OW36750   4.644   2.264   9.781
11618SOL    HW136751   4.606   2.208   9.848
11618SOL    HW236752   4.575   2.326   9.759
11619SOL     OW36753   6.478  11.296  13.079
11619SOL    HW136754   6.409  11.340  13.028
11619SOL    HW236755   6.445  11.207  13.091
11620SOL     OW36756   4.168   6.141   4.354
11620SOL    HW136757   4.084   6.172   4.387
11620SOL    HW236758   4.227   6.146   4.429
11621SOL     OW36759   5.750   4.798   2.981
11621SOL    HW136760   5.738   4.738   3.054
11621SOL    HW236761   5.708   4.879   3.010
11622SOL     OW36762   9.197   5.188   1.431
11622SOL    HW136763   9.239   5.148   1.506
11622SOL    HW236764   9.194   5.282   1.452
11623SOL     OW36765  13.973   0.171  11.503
11623SOL    HW136766  13.931   0.115  11.437
11623SOL    HW236767  13.901   0.198  11.561
11624SOL     OW36768   8.929  13.984   0.361
11624SOL    HW136769   9.006  14.036   0.338
11624SOL    HW236770   8.963  13.916   0.419
11625SOL     OW36771   6.342   5.563  10.362
11625SOL    HW136772   6.413   5.598  10.309
11625SOL    HW236773   6.264   5.575  10.308
11626SOL     OW36774  12.926  11.060   4.046
11626SOL    HW136775  12.834  11.049   4.021
11626SOL    HW236776  12.975  11.025   3.972
11627SOL     OW36777   5.015   3.945   2.710
11627SOL    HW136778   4.934   3.977   2.671
11627SOL    HW236779   5.082   3.959   2.643
11628SOL     OW36780   0.427   3.919   9.963
11628SOL    HW136781   0.518   3.940   9.982
11628SOL    HW236782   0.382   3.925  10.047
11629SOL     OW36783   0.472   6.001  14.142
11629SOL    HW136784   0.559   5.964  14.133
11629SOL    HW236785   0.414   5.925  14.147
11630SOL     OW36786   7.751   8.784   7.588
11630SOL    HW136787   7.757   8.688   7.592
11630SOL    HW236788   7.664   8.804   7.621
11631SOL     OW36789  10.307   4.345   7.911
11631SOL    HW136790  10.338   4.418   7.966
11631SOL    HW236791  10.326   4.374   7.821
11632SOL     OW36792  11.847   1.660   2.772
11632SOL    HW136793  11.924   1.623   2.814
11632SOL    HW236794  11.878   1.687   2.685
11633SOL     OW36795  13.746   7.956   0.832
11633SOL    HW136796  13.819   7.913   0.876
11633SOL    HW236797  13.778   8.044   0.814
11634SOL     OW36798   4.320   1.411   9.795
11634SOL    HW136799   4.297   1.386   9.705
11634SOL    HW236800   4.239   1.445   9.832
11635SOL     OW36801  12.851  13.384  10.073
11635SOL    HW136802  12.849  13.465  10.021
11635SOL    HW236803  12.874  13.316  10.010
11636SOL     OW36804   2.770  12.090   7.441
11636SOL    HW136805   2.708  12.113   7.372
11636SOL    HW236806   2.762  12.160   7.506
11637SOL     OW36807   4.092   7.500  10.236
11637SOL    HW136808   4.093   7.414  10.278
11637SOL    HW236809   4.046   7.485  10.153
11638SOL     OW36810   9.978   3.073   3.002
11638SOL    HW136811   9.999   2.990   2.959
11638SOL    HW236812  10.055   3.127   2.986
11639SOL     OW36813  11.157   3.051   1.994
11639SOL    HW136814  11.149   3.115   2.064
11639SOL    HW236815  11.239   3.072   1.951
11640SOL     OW36816   5.331   6.121   2.095
11640SOL    HW136817   5.263   6.083   2.039
11640SOL    HW236818   5.395   6.050   2.107
11641SOL     OW36819   1.468  14.209   4.534
11641SOL    HW136820   1.556  14.180   4.512
11641SOL    HW236821   1.472  14.304   4.531
11642SOL     OW36822   9.883   0.830   0.388
11642SOL    HW136823   9.856   0.795   0.473
11642SOL    HW236824   9.945   0.899   0.410
11643SOL     OW36825  14.199   9.489  14.314
11643SOL    HW136826  14.158   9.571  14.340
11643SOL    HW236827  14.258   9.513  14.242
11644SOL     OW36828   3.575  12.948  11.269
11644SOL    HW136829   3.614  12.871  11.227
11644SOL    HW236830   3.524  12.912  11.342
11645SOL     OW36831  12.944   5.029   4.355
11645SOL    HW136832  12.960   5.119   4.326
11645SOL    HW236833  13.031   4.989   4.355
11646SOL     OW36834  12.113   1.454  14.428
11646SOL    HW136835  12.079   1.367  14.448
11646SOL    HW236836  12.097   1.505  14.508
11647SOL     OW36837   8.227  12.364   4.890
11647SOL    HW136838   8.317  12.337   4.871
11647SOL    HW236839   8.237  12.446   4.940
11648SOL     OW36840   8.812  10.749  13.933
11648SOL    HW136841   8.786  10.841  13.934
11648SOL    HW236842   8.735  10.702  13.900
11649SOL     OW36843   4.279   9.512   0.701
11649SOL    HW136844   4.296   9.587   0.643
11649SOL    HW236845   4.335   9.442   0.666
11650SOL     OW36846   4.245  10.021  14.791
11650SOL    HW136847   4.271  10.061   0.002
11650SOL    HW236848   4.281  10.080  14.724
11651SOL     OW36849   0.328  10.803  10.220
11651SOL    HW136850   0.236  10.816  10.241
11651SOL    HW236851   0.364  10.757  10.295
11652SOL     OW36852   9.547   3.505   7.940
11652SOL    HW136853   9.630   3.493   7.895
11652SOL    HW236854   9.495   3.560   7.881
11653SOL     OW36855   5.079   1.967   8.745
11653SOL    HW136856   5.097   1.876   8.720
11653SOL    HW236857   5.149   1.990   8.805
11654SOL     OW36858  11.515  13.622   6.391
11654SOL    HW136859  11.469  13.550   6.434
11654SOL    HW236860  11.542  13.679   6.462
11655SOL     OW36861  13.413   9.201   5.665
11655SOL    HW136862  13.376   9.206   5.753
11655SOL    HW236863  13.405   9.289   5.630
11656SOL     OW36864   1.406   4.633   6.041
11656SOL    HW136865   1.485   4.581   6.053
11656SOL    HW236866   1.370   4.604   5.957
11657SOL     OW36867   3.823   2.623   9.221
11657SOL    HW136868   3.852   2.534   9.240
11657SOL    HW236869   3.879   2.678   9.276
11658SOL     OW36870   2.920   2.513   7.688
11658SOL    HW136871   2.893   2.541   7.601
11658SOL    HW236872   2.861   2.561   7.747
11659SOL     OW36873   5.653   9.378   8.302
11659SOL    HW136874   5.639   9.288   8.275
11659SOL    HW236875   5.620   9.431   8.230
11660SOL     OW36876   2.692   2.675   5.808
11660SOL    HW136877   2.764   2.729   5.776
11660SOL    HW236878   2.713   2.659   5.900
11661SOL     OW36879  10.702   8.661   4.443
11661SOL    HW136880  10.632   8.656   4.378
11661SOL    HW236881  10.660   8.637   4.526
11662SOL     OW36882  13.142  12.747   7.603
11662SOL    HW136883  13.175  12.814   7.662
11662SOL    HW236884  13.182  12.768   7.518
11663SOL     OW36885  14.002  10.198   4.620
11663SOL    HW136886  13.915  10.237   4.629
11663SOL    HW236887  14.033  10.189   4.710
11664SOL     OW36888   3.651  13.852   1.493
11664SOL    HW136889   3.623  13.918   1.557
11664SOL    HW236890   3.743  13.837   1.514
11665SOL     OW36891   1.367   7.195   6.440
11665SOL    HW136892   1.288   7.248   6.448
11665SOL    HW236893   1.435   7.247   6.484
11666SOL     OW36894   1.415  14.691  13.084
11666SOL    HW136895   1.371  14.645  13.012
11666SOL    HW236896   1.411  14.783  13.060
11667SOL     OW36897   2.920   5.470   0.470
11667SOL    HW136898   2.996   5.525   0.449
11667SOL    HW236899   2.952   5.381   0.461
11668SOL     OW36900  11.125   2.343  11.850
11668SOL    HW136901  11.196   2.396  11.887
11668SOL    HW236902  11.106   2.278  11.917
11669SOL     OW36903   6.339   0.454  12.608
11669SOL    HW136904   6.362   0.385  12.546
11669SOL    HW236905   6.352   0.415  12.694
11670SOL     OW36906  10.029  11.729  10.266
11670SOL    HW136907  10.077  11.733  10.183
11670SOL    HW236908   9.959  11.793  10.256
11671SOL     OW36909  10.681  11.978   0.002
11671SOL    HW136910  10.594  12.016  14.860
11671SOL    HW236911  10.711  12.020   0.083
11672SOL     OW36912   1.848  13.810   8.322
11672SOL    HW136913   1.812  13.735   8.274
11672SOL    HW236914   1.860  13.778   8.411
11673SOL     OW36915   7.892  10.529   5.209
11673SOL    HW136916   7.857  10.597   5.267
11673SOL    HW236917   7.836  10.534   5.131
11674SOL     OW36918   5.693   8.544  10.656
11674SOL    HW136919   5.712   8.463  10.705
11674SOL    HW236920   5.767   8.554  10.597
11675SOL     OW36921   0.344   0.060  10.996
11675SOL    HW136922   0.409   0.046  11.064
11675SOL    HW236923   0.390   0.110  10.928
11676SOL     OW36924   9.524   2.528  10.775
11676SOL    HW136925   9.602   2.577  10.801
11676SOL    HW236926   9.557   2.458  10.719
11677SOL     OW36927   4.064   9.751  10.673
11677SOL    HW136928   4.063   9.731  10.767
11677SOL    HW236929   3.999   9.820  10.662
11678SOL     OW36930  11.032   7.017  12.564
11678SOL    HW136931  11.106   7.063  12.605
11678SOL    HW236932  10.971   7.087  12.539
11679SOL     OW36933  10.231  13.254   5.282
11679SOL    HW136934  10.205  13.335   5.327
11679SOL    HW236935  10.300  13.281   5.222
11680SOL     OW36936   0.798   3.053   1.046
11680SOL    HW136937   0.873   3.088   0.998
11680SOL    HW236938   0.736   3.025   0.978
11681SOL     OW36939  10.664   2.334   4.654
11681SOL    HW136940  10.724   2.333   4.579
11681SOL    HW236941  10.579   2.310   4.617
11682SOL     OW36942  12.155   2.004   1.845
11682SOL    HW136943  12.195   1.917   1.838
11682SOL    HW236944  12.214   2.062   1.796
11683SOL     OW36945  11.947   5.469   7.136
11683SOL    HW136946  11.883   5.514   7.082
11683SOL    HW236947  11.916   5.480   7.226
11684SOL     OW36948   9.958   9.155  10.418
11684SOL    HW136949   9.873   9.147  10.375
11684SOL    HW236950  10.017   9.184  10.348
11685SOL     OW36951   1.174   7.684  14.594
11685SOL    HW136952   1.159   7.724  14.679
11685SOL    HW236953   1.089   7.648  14.568
11686SOL     OW36954   7.080   5.019   9.304
11686SOL    HW136955   7.001   5.071   9.318
11686SOL    HW236956   7.077   4.953   9.373
11687SOL     OW36957  10.284   6.288   7.952
11687SOL    HW136958  10.303   6.197   7.971
11687SOL    HW236959  10.370   6.330   7.949
11688SOL     OW36960   0.905  14.341  12.989
11688SOL    HW136961   0.903  14.382  12.902
11688SOL    HW236962   0.901  14.247  12.972
11689SOL     OW36963  13.494  13.737   7.920
11689SOL    HW136964  13.398  13.736   7.921
11689SOL    HW236965  13.518  13.647   7.900
11690SOL     OW36966   1.708   7.348   5.465
11690SOL    HW136967   1.648   7.293   5.414
11690SOL    HW236968   1.786   7.294   5.476
11691SOL     OW36969   3.752  11.061  11.528
11691SOL    HW136970   3.830  11.006  11.523
11691SOL    HW236971   3.762  11.123  11.456
11692SOL     OW36972   6.569   2.490   3.572
11692SOL    HW136973   6.474   2.499   3.565
11692SOL    HW236974   6.604   2.565   3.524
11693SOL     OW36975   3.980   1.912   8.528
11693SOL    HW136976   3.998   2.006   8.532
11693SOL    HW236977   3.967   1.886   8.619
11694SOL     OW36978   1.513  14.218   0.255
11694SOL    HW136979   1.593  14.260   0.287
11694SOL    HW236980   1.476  14.280   0.193
11695SOL     OW36981   8.240  12.702  12.511
11695SOL    HW136982   8.265  12.767  12.577
11695SOL    HW236983   8.322  12.658  12.488
11696SOL     OW36984  12.082  11.472  13.905
11696SOL    HW136985  12.058  11.462  13.997
11696SOL    HW236986  12.108  11.383  13.878
11697SOL     OW36987   0.508   6.676   7.788
11697SOL    HW136988   0.466   6.667   7.702
11697SOL    HW236989   0.524   6.770   7.796
11698SOL     OW36990   4.866   8.518   4.395
11698SOL    HW136991   4.911   8.597   4.365
11698SOL    HW236992   4.910   8.446   4.350
11699SOL     OW36993   4.161   9.278   2.374
11699SOL    HW136994   4.093   9.268   2.307
11699SOL    HW236995   4.113   9.304   2.453
11700SOL     OW36996   5.923   9.643   7.750
11700SOL    HW136997   6.016   9.665   7.743
11700SOL    HW236998   5.877   9.722   7.721
11701SOL     OW36999   0.144   5.108   0.983
11701SOL    HW137000   0.089   5.169   0.935
11701SOL    HW237001   0.087   5.074   1.052
11702SOL     OW37002   8.351   4.857   0.311
11702SOL    HW137003   8.275   4.802   0.331
11702SOL    HW237004   8.416   4.832   0.377
11703SOL     OW37005   7.484   1.792  13.579
11703SOL    HW137006   7.458   1.709  13.539
11703SOL    HW237007   7.486   1.773  13.673
11704SOL     OW37008  10.376   4.795  13.652
11704SOL    HW137009  10.350   4.882  13.681
11704SOL    HW237010  10.336   4.785  13.566
11705SOL     OW37011  14.124   5.390  11.892
11705SOL    HW137012  14.096   5.313  11.842
11705SOL    HW237013  14.142   5.457  11.826
11706SOL     OW37014   7.341   8.251   0.370
11706SOL    HW137015   7.373   8.279   0.457
11706SOL    HW237016   7.409   8.192   0.338
11707SOL     OW37017  10.998   1.914   2.339
11707SOL    HW137018  11.087   1.950   2.341
11707SOL    HW237019  11.010   1.824   2.309
11708SOL     OW37020  12.978  11.171   5.773
11708SOL    HW137021  13.025  11.087   5.768
11708SOL    HW237022  13.006  11.209   5.856
11709SOL     OW37023   2.016   8.744  14.415
11709SOL    HW137024   1.965   8.769  14.493
11709SOL    HW237025   1.950   8.717  14.351
11710SOL     OW37026  14.214   5.723  12.580
11710SOL    HW137027  14.289   5.674  12.615
11710SOL    HW237028  14.174   5.662  12.518
11711SOL     OW37029   7.992   6.024  13.871
11711SOL    HW137030   7.926   5.983  13.815
11711SOL    HW237031   8.062   6.051  13.811
11712SOL     OW37032   6.053   3.219   1.470
11712SOL    HW137033   6.022   3.160   1.539
11712SOL    HW237034   6.065   3.303   1.514
11713SOL     OW37035   2.506  11.431   2.851
11713SOL    HW137036   2.427  11.479   2.828
11713SOL    HW237037   2.478  11.340   2.859
11714SOL     OW37038   1.404   1.640   7.527
11714SOL    HW137039   1.443   1.654   7.613
11714SOL    HW237040   1.344   1.713   7.515
11715SOL     OW37041   1.233  10.563   3.790
11715SOL    HW137042   1.141  10.564   3.764
11715SOL    HW237043   1.250  10.472   3.814
11716SOL     OW37044   8.605   5.033   8.486
11716SOL    HW137045   8.574   5.011   8.574
11716SOL    HW237046   8.700   5.045   8.496
11717SOL     OW37047   0.221  11.108  13.650
11717SOL    HW137048   0.301  11.077  13.607
11717SOL    HW237049   0.252  11.177  13.710
11718SOL     OW37050  10.371   0.725   1.379
11718SOL    HW137051  10.421   0.671   1.317
11718SOL    HW237052  10.338   0.662   1.444
11719SOL     OW37053   4.321   7.815   7.988
11719SOL    HW137054   4.267   7.765   7.926
11719SOL    HW237055   4.410   7.784   7.973
11720SOL     OW37056  11.648  14.119  12.381
11720SOL    HW137057  11.639  14.037  12.332
11720SOL    HW237058  11.735  14.112  12.422
11721SOL     OW37059   6.375   6.185  12.840
11721SOL    HW137060   6.424   6.233  12.907
11721SOL    HW237061   6.440   6.161  12.775
11722SOL     OW37062   6.540   5.030  12.523
11722SOL    HW137063   6.615   5.025  12.583
11722SOL    HW237064   6.464   5.015  12.578
11723SOL     OW37065   7.450   2.397  11.524
11723SOL    HW137066   7.363   2.431  11.545
11723SOL    HW237067   7.433   2.315  11.478
11724SOL     OW37068   3.460   2.328  14.761
11724SOL    HW137069   3.552   2.352  14.754
11724SOL    HW237070   3.413   2.411  14.755
11725SOL     OW37071   4.372   7.579   0.812
11725SOL    HW137072   4.460   7.614   0.827
11725SOL    HW237073   4.344   7.622   0.731
11726SOL     OW37074   5.990  10.131   7.616
11726SOL    HW137075   6.075  10.099   7.646
11726SOL    HW237076   5.929  10.061   7.637
11727SOL     OW37077  11.718  10.495  14.764
11727SOL    HW137078  11.777  10.552  14.714
11727SOL    HW237079  11.771  10.461  14.835
11728SOL     OW37080  10.144   5.513   1.577
11728SOL    HW137081  10.148   5.499   1.672
11728SOL    HW237082  10.226   5.559   1.556
11729SOL     OW37083   7.682   5.080   9.935
11729SOL    HW137084   7.693   5.109   9.844
11729SOL    HW237085   7.756   5.022   9.951
11730SOL     OW37086   7.903  12.005   4.420
11730SOL    HW137087   7.975  12.030   4.478
11730SOL    HW237088   7.929  11.920   4.385
11731SOL     OW37089   2.745   1.784   8.599
11731SOL    HW137090   2.715   1.704   8.643
11731SOL    HW237091   2.820   1.755   8.547
11732SOL     OW37092   7.817  13.029   5.942
11732SOL    HW137093   7.891  12.977   5.910
11732SOL    HW237094   7.822  13.022   6.037
11733SOL     OW37095   6.481   4.873   6.915
11733SOL    HW137096   6.459   4.953   6.868
11733SOL    HW237097   6.402   4.819   6.909
11734SOL     OW37098  13.335  12.021   5.494
11734SOL    HW137099  13.354  11.955   5.561
11734SOL    HW237100  13.344  11.974   5.411
11735SOL     OW37101  12.163   7.110  13.877
11735SOL    HW137102  12.104   7.185  13.879
11735SOL    HW237103  12.219   7.121  13.954
11736SOL     OW37104  14.394   8.034   3.674
11736SOL    HW137105  14.459   7.966   3.690
11736SOL    HW237106  14.442   8.116   3.681
11737SOL     OW37107   8.183  11.637  10.382
11737SOL    HW137108   8.142  11.611  10.300
11737SOL    HW237109   8.196  11.555  10.430
11738SOL     OW37110   7.863   5.385  13.628
11738SOL    HW137111   7.799   5.434  13.679
11738SOL    HW237112   7.903   5.325  13.690
11739SOL     OW37113   7.737  13.050   2.746
11739SOL    HW137114   7.647  13.020   2.730
11739SOL    HW237115   7.742  13.136   2.704
11740SOL     OW37116  14.678  12.888   5.928
11740SOL    HW137117  14.683  12.901   6.023
11740SOL    HW237118  14.617  12.955   5.898
11741SOL     OW37119   6.759   5.105   3.063
11741SOL    HW137120   6.672   5.095   3.104
11741SOL    HW237121   6.798   5.179   3.109
11742SOL     OW37122   8.344  14.847   6.894
11742SOL    HW137123   8.420  14.821   6.946
11742SOL    HW237124   8.342   0.070   6.899
11743SOL     OW37125  12.596  12.564   9.603
11743SOL    HW137126  12.609  12.559   9.508
11743SOL    HW237127  12.555  12.650   9.617
11744SOL     OW37128  13.345   7.802   7.629
11744SOL    HW137129  13.274   7.777   7.570
11744SOL    HW237130  13.303   7.814   7.714
11745SOL     OW37131   1.884   1.803   9.982
11745SOL    HW137132   1.929   1.871   9.932
11745SOL    HW237133   1.841   1.850  10.053
11746SOL     OW37134   1.067   2.255  10.455
11746SOL    HW137135   0.973   2.238  10.440
11746SOL    HW237136   1.101   2.170  10.485
11747SOL     OW37137   0.350   8.722  10.932
11747SOL    HW137138   0.272   8.743  10.983
11747SOL    HW237139   0.327   8.642  10.885
11748SOL     OW37140   0.228   7.953  14.059
11748SOL    HW137141   0.236   7.858  14.062
11748SOL    HW237142   0.248   7.976  13.969
11749SOL     OW37143   7.174  11.565   5.331
11749SOL    HW137144   7.140  11.547   5.243
11749SOL    HW237145   7.251  11.509   5.339
11750SOL     OW37146   2.736   2.768   6.480
11750SOL    HW137147   2.653   2.737   6.515
11750SOL    HW237148   2.752   2.851   6.526
11751SOL     OW37149  10.386   9.061   5.387
11751SOL    HW137150  10.292   9.070   5.397
11751SOL    HW237151  10.423   9.131   5.441
11752SOL     OW37152  10.259  11.579   8.913
11752SOL    HW137153  10.196  11.553   8.846
11752SOL    HW237154  10.294  11.497   8.947
11753SOL     OW37155  14.069   8.438   7.042
11753SOL    HW137156  14.158   8.413   7.016
11753SOL    HW237157  14.068   8.430   7.137
11754SOL     OW37158   5.367   3.657   8.474
11754SOL    HW137159   5.436   3.624   8.531
11754SOL    HW237160   5.393   3.747   8.454
11755SOL     OW37161   6.768  14.212   2.199
11755SOL    HW137162   6.835  14.148   2.223
11755SOL    HW237163   6.787  14.234   2.107
11756SOL     OW37164   8.500   3.023  12.981
11756SOL    HW137165   8.408   3.045  12.966
11756SOL    HW237166   8.503   2.992  13.071
11757SOL     OW37167  10.753  10.243  11.983
11757SOL    HW137168  10.748  10.267  12.076
11757SOL    HW237169  10.669  10.272  11.947
11758SOL     OW37170   3.325   2.710   1.138
11758SOL    HW137171   3.310   2.700   1.044
11758SOL    HW237172   3.364   2.627   1.166
11759SOL     OW37173   5.736  14.756   9.440
11759SOL    HW137174   5.691  14.796   9.514
11759SOL    HW237175   5.805  14.818   9.418
11760SOL     OW37176   2.297   5.506  11.196
11760SOL    HW137177   2.260   5.451  11.264
11760SOL    HW237178   2.300   5.594  11.234
11761SOL     OW37179  14.183   0.738   7.964
11761SOL    HW137180  14.221   0.670   7.907
11761SOL    HW237181  14.257   0.768   8.017
11762SOL     OW37182   7.282   8.440   4.611
11762SOL    HW137183   7.296   8.347   4.628
11762SOL    HW237184   7.352   8.464   4.550
11763SOL     OW37185  10.535   6.990   7.196
11763SOL    HW137186  10.467   6.976   7.261
11763SOL    HW237187  10.565   6.902   7.173
11764SOL     OW37188  14.776   2.855   2.787
11764SOL    HW137189  14.729   2.938   2.797
11764SOL    HW237190  14.837   2.852   2.860
11765SOL     OW37191   7.925   5.785   8.500
11765SOL    HW137192   7.833   5.788   8.528
11765SOL    HW237193   7.949   5.877   8.490
11766SOL     OW37194   9.063  14.659   4.057
11766SOL    HW137195   9.008  14.698   3.989
11766SOL    HW237196   9.004  14.601   4.105
11767SOL     OW37197   3.856   6.891   2.438
11767SOL    HW137198   3.810   6.910   2.356
11767SOL    HW237199   3.838   6.967   2.493
11768SOL     OW37200   9.203   2.137   2.097
11768SOL    HW137201   9.177   2.123   2.188
11768SOL    HW237202   9.201   2.232   2.085
11769SOL     OW37203   2.852  11.717  13.607
11769SOL    HW137204   2.769  11.686  13.570
11769SOL    HW237205   2.892  11.767  13.536
11770SOL     OW37206  12.759  11.363   3.917
11770SOL    HW137207  12.772  11.301   3.989
11770SOL    HW237208  12.711  11.313   3.850
11771SOL     OW37209   8.964  11.053   4.584
11771SOL    HW137210   8.887  11.071   4.638
11771SOL    HW237211   8.952  11.107   4.506
11772SOL     OW37212  13.839   2.113   1.543
11772SOL    HW137213  13.803   2.088   1.458
11772SOL    HW237214  13.890   2.192   1.525
11773SOL     OW37215   2.759   4.564   5.731
11773SOL    HW137216   2.769   4.651   5.770
11773SOL    HW237217   2.665   4.550   5.726
11774SOL     OW37218  11.516   1.865   3.621
11774SOL    HW137219  11.511   1.802   3.549
11774SOL    HW237220  11.474   1.822   3.695
11775SOL     OW37221   9.459  11.069   6.391
11775SOL    HW137222   9.484  11.027   6.308
11775SOL    HW237223   9.463  11.162   6.372
11776SOL     OW37224  12.602   3.040   3.861
11776SOL    HW137225  12.582   3.133   3.862
11776SOL    HW237226  12.648   3.026   3.778
11777SOL     OW37227  12.963   5.439   7.663
11777SOL    HW137228  12.977   5.365   7.722
11777SOL    HW237229  12.870   5.434   7.640
11778SOL     OW37230   5.114   1.522   5.730
11778SOL    HW137231   5.140   1.565   5.648
11778SOL    HW237232   5.196   1.512   5.778
11779SOL     OW37233  14.515  12.989  10.864
11779SOL    HW137234  14.600  13.010  10.903
11779SOL    HW237235  14.470  13.073  10.856
11780SOL     OW37236  14.171   5.710   3.280
11780SOL    HW137237  14.140   5.727   3.369
11780SOL    HW237238  14.127   5.776   3.226
11781SOL     OW37239   6.459   6.020   5.319
11781SOL    HW137240   6.464   6.037   5.413
11781SOL    HW237241   6.468   5.925   5.312
11782SOL     OW37242  13.111  13.623   1.579
11782SOL    HW137243  13.200  13.646   1.554
11782SOL    HW237244  13.059  13.640   1.500
11783SOL     OW37245   7.389   5.388   7.767
11783SOL    HW137246   7.354   5.454   7.827
11783SOL    HW237247   7.338   5.399   7.687
11784SOL     OW37248   3.909   6.965   5.082
11784SOL    HW137249   3.937   6.971   5.174
11784SOL    HW237250   3.983   7.002   5.033
11785SOL     OW37251   7.440  10.215  11.962
11785SOL    HW137252   7.462  10.291  12.016
11785SOL    HW237253   7.469  10.140  12.014
11786SOL     OW37254   1.327   1.908   4.958
11786SOL    HW137255   1.337   1.912   5.053
11786SOL    HW237256   1.295   1.995   4.934
11787SOL     OW37257   2.230  13.962   9.694
11787SOL    HW137258   2.280  13.987   9.617
11787SOL    HW237259   2.140  13.990   9.675
11788SOL     OW37260   0.632   7.525  14.174
11788SOL    HW137261   0.710   7.506  14.226
11788SOL    HW237262   0.585   7.591  14.224
11789SOL     OW37263   2.302   3.051   9.247
11789SOL    HW137264   2.328   3.129   9.296
11789SOL    HW237265   2.381   2.998   9.243
11790SOL     OW37266   7.142   6.189   1.689
11790SOL    HW137267   7.136   6.283   1.676
11790SOL    HW237268   7.104   6.174   1.776
11791SOL     OW37269  13.780   5.066  14.613
11791SOL    HW137270  13.779   5.159  14.634
11791SOL    HW237271  13.872   5.046  14.596
11792SOL     OW37272   5.221  13.810  10.884
11792SOL    HW137273   5.200  13.731  10.934
11792SOL    HW237274   5.220  13.880  10.949
11793SOL     OW37275  13.126   6.335   1.906
11793SOL    HW137276  13.078   6.394   1.964
11793SOL    HW237277  13.136   6.384   1.824
11794SOL     OW37278   7.568  10.690  13.570
11794SOL    HW137279   7.578  10.597  13.591
11794SOL    HW237280   7.604  10.698  13.482
11795SOL     OW37281  14.022   8.712   6.458
11795SOL    HW137282  13.955   8.673   6.402
11795SOL    HW237283  13.985   8.797   6.483
11796SOL     OW37284   6.247   9.544   8.213
11796SOL    HW137285   6.247   9.604   8.287
11796SOL    HW237286   6.193   9.587   8.147
11797SOL     OW37287  13.742   6.322  12.293
11797SOL    HW137288  13.769   6.360  12.377
11797SOL    HW237289  13.646   6.318  12.299
11798SOL     OW37290   3.069   5.566   3.792
11798SOL    HW137291   3.157   5.548   3.759
11798SOL    HW237292   3.068   5.527   3.880
11799SOL     OW37293  14.552   4.041  11.051
11799SOL    HW137294  14.493   4.009  10.983
11799SOL    HW237295  14.544   4.136  11.046
11800SOL     OW37296   9.149   0.280  14.201
11800SOL    HW137297   9.072   0.333  14.183
11800SOL    HW237298   9.154   0.276  14.297
11801SOL     OW37299   1.391   1.955   3.980
11801SOL    HW137300   1.297   1.939   3.982
11801SOL    HW237301   1.400   2.038   3.933
11802SOL     OW37302  14.458   3.072   2.486
11802SOL    HW137303  14.474   3.143   2.549
11802SOL    HW237304  14.465   2.992   2.538
11803SOL     OW37305   9.044   0.705   9.685
11803SOL    HW137306   9.048   0.754   9.767
11803SOL    HW237307   8.966   0.649   9.694
11804SOL     OW37308   7.234  12.840   4.039
11804SOL    HW137309   7.187  12.759   4.055
11804SOL    HW237310   7.320  12.813   4.006
11805SOL     OW37311  13.028  11.824  10.694
11805SOL    HW137312  12.935  11.818  10.673
11805SOL    HW237313  13.031  11.848  10.787
11806SOL     OW37314  14.463   2.590  14.640
11806SOL    HW137315  14.457   2.598  14.544
11806SOL    HW237316  14.376   2.616  14.671
11807SOL     OW37317   5.683  13.900  10.889
11807SOL    HW137318   5.702  13.993  10.876
11807SOL    HW237319   5.591  13.898  10.914
11808SOL     OW37320   7.852   5.360  10.248
11808SOL    HW137321   7.782   5.320  10.197
11808SOL    HW237322   7.813   5.374  10.335
11809SOL     OW37323   3.910  14.269  10.878
11809SOL    HW137324   3.898  14.363  10.868
11809SOL    HW237325   3.950  14.241  10.796
11810SOL     OW37326   1.344   1.047  10.939
11810SOL    HW137327   1.269   1.088  10.896
11810SOL    HW237328   1.338   1.075  11.031
11811SOL     OW37329  11.903   4.522   1.776
11811SOL    HW137330  11.961   4.593   1.749
11811SOL    HW237331  11.903   4.526   1.872
11812SOL     OW37332  10.561   5.479   7.375
11812SOL    HW137333  10.527   5.395   7.406
11812SOL    HW237334  10.585   5.526   7.455
11813SOL     OW37335   4.870   3.783   9.128
11813SOL    HW137336   4.964   3.796   9.112
11813SOL    HW237337   4.833   3.773   9.040
11814SOL     OW37338   9.555  13.761   5.282
11814SOL    HW137339   9.505  13.835   5.318
11814SOL    HW237340   9.515  13.745   5.197
11815SOL     OW37341  11.264  13.442   9.031
11815SOL    HW137342  11.309  13.358   9.043
11815SOL    HW237343  11.193  13.440   9.095
11816SOL     OW37344  10.497   4.790  10.772
11816SOL    HW137345  10.563   4.720  10.770
11816SOL    HW237346  10.499   4.827  10.683
11817SOL     OW37347   7.962  13.159   2.408
11817SOL    HW137348   7.954  13.083   2.466
11817SOL    HW237349   7.937  13.126   2.322
11818SOL     OW37350   3.553   0.367  11.007
11818SOL    HW137351   3.517   0.351  10.920
11818SOL    HW237352   3.479   0.352  11.066
11819SOL     OW37353   9.275   4.959   7.117
11819SOL    HW137354   9.217   4.962   7.040
11819SOL    HW237355   9.337   4.889   7.097
11820SOL     OW37356  12.004  11.336   8.196
11820SOL    HW137357  11.986  11.277   8.269
11820SOL    HW237358  11.966  11.420   8.223
11821SOL     OW37359  12.018   2.565  12.267
11821SOL    HW137360  12.044   2.512  12.342
11821SOL    HW237361  12.061   2.525  12.192
11822SOL     OW37362  10.285   5.838  11.985
11822SOL    HW137363  10.310   5.841  11.892
11822SOL    HW237364  10.190   5.847  11.985
11823SOL     OW37365   0.768   6.469   3.474
11823SOL    HW137366   0.692   6.455   3.531
11823SOL    HW237367   0.844   6.450   3.530
11824SOL     OW37368   9.242   1.583  12.151
11824SOL    HW137369   9.291   1.506  12.178
11824SOL    HW237370   9.265   1.650  12.216
11825SOL     OW37371   4.090   7.036  11.541
11825SOL    HW137372   4.167   6.995  11.580
11825SOL    HW237373   4.077   6.988  11.459
11826SOL     OW37374  11.269  14.505   7.590
11826SOL    HW137375  11.203  14.452   7.545
11826SOL    HW237376  11.246  14.499   7.683
11827SOL     OW37377  11.785   7.665   8.564
11827SOL    HW137378  11.712   7.665   8.625
11827SOL    HW237379  11.794   7.573   8.537
11828SOL     OW37380   4.196  13.666   0.377
11828SOL    HW137381   4.100  13.664   0.385
11828SOL    HW237382   4.212  13.693   0.287
11829SOL     OW37383   5.768   6.910   7.172
11829SOL    HW137384   5.844   6.942   7.220
11829SOL    HW237385   5.694   6.927   7.230
11830SOL     OW37386   9.836   7.619  11.136
11830SOL    HW137387   9.897   7.691  11.128
11830SOL    HW237388   9.890   7.540  11.132
11831SOL     OW37389   9.166   8.261  14.021
11831SOL    HW137390   9.126   8.297  14.100
11831SOL    HW237391   9.099   8.204  13.984
11832SOL     OW37392   6.980   8.816   3.447
11832SOL    HW137393   6.998   8.750   3.380
11832SOL    HW237394   6.925   8.771   3.511
11833SOL     OW37395   6.617   0.192   7.980
11833SOL    HW137396   6.668   0.245   8.042
11833SOL    HW237397   6.529   0.188   8.019
11834SOL     OW37398   5.439   6.381   9.645
11834SOL    HW137399   5.534   6.377   9.644
11834SOL    HW237400   5.416   6.421   9.561
11835SOL     OW37401   6.599  12.294  10.316
11835SOL    HW137402   6.524  12.246  10.351
11835SOL    HW237403   6.675  12.259  10.363
11836SOL     OW37404   2.606   8.249  14.129
11836SOL    HW137405   2.655   8.327  14.156
11836SOL    HW237406   2.539   8.282  14.070
11837SOL     OW37407  11.031   1.026   1.315
11837SOL    HW137408  11.126   1.030   1.323
11837SOL    HW237409  11.003   1.117   1.313
11838SOL     OW37410   2.300   5.139   7.752
11838SOL    HW137411   2.367   5.146   7.820
11838SOL    HW237412   2.217   5.142   7.800
11839SOL     OW37413   0.471   2.744  10.236
11839SOL    HW137414   0.547   2.796  10.212
11839SOL    HW237415   0.499   2.696  10.314
11840SOL     OW37416   7.849  13.439   0.757
11840SOL    HW137417   7.921  13.428   0.819
11840SOL    HW237418   7.845  13.534   0.741
11841SOL     OW37419  14.789   7.736   7.506
11841SOL    HW137420  14.823   7.774   7.587
11841SOL    HW237421  14.696   7.721   7.524
11842SOL     OW37422  10.915   2.220  10.353
11842SOL    HW137423  10.835   2.220  10.300
11842SOL    HW237424  10.884   2.228  10.443
11843SOL     OW37425  12.277   8.449  11.272
11843SOL    HW137426  12.198   8.476  11.318
11843SOL    HW237427  12.304   8.369  11.316
11844SOL     OW37428   8.015   4.011   1.043
11844SOL    HW137429   7.932   4.028   0.998
11844SOL    HW237430   8.034   4.093   1.089
11845SOL     OW37431  12.432   0.975   4.336
11845SOL    HW137432  12.409   0.899   4.282
11845SOL    HW237433  12.355   0.991   4.391
11846SOL     OW37434   8.565   5.215   0.131
11846SOL    HW137435   8.557   5.209   0.036
11846SOL    HW237436   8.658   5.203   0.148
11847SOL     OW37437  14.855   9.113  12.994
11847SOL    HW137438   0.038   9.191  12.999
11847SOL    HW237439  14.856   9.077  13.083
11848SOL     OW37440   5.752   8.279  10.793
11848SOL    HW137441   5.836   8.243  10.764
11848SOL    HW237442   5.764   8.295  10.887
11849SOL     OW37443  10.966   0.715   7.746
11849SOL    HW137444  10.882   0.703   7.702
11849SOL    HW237445  11.019   0.767   7.685
11850SOL     OW37446   8.906   2.009  11.910
11850SOL    HW137447   8.964   2.073  11.868
11850SOL    HW237448   8.966   1.947  11.951
11851SOL     OW37449   5.220   6.719   8.545
11851SOL    HW137450   5.240   6.647   8.605
11851SOL    HW237451   5.289   6.715   8.479
11852SOL     OW37452   9.212  12.979   7.489
11852SOL    HW137453   9.271  13.054   7.478
11852SOL    HW237454   9.233  12.944   7.575
11853SOL     OW37455   0.385  14.711  12.525
11853SOL    HW137456   0.399  14.690  12.617
11853SOL    HW237457   0.367  14.626  12.484
11854SOL     OW37458   7.102   6.634   1.309
11854SOL    HW137459   7.069   6.667   1.392
11854SOL    HW237460   7.171   6.695   1.284
11855SOL     OW37461   8.826  12.806  13.860
11855SOL    HW137462   8.859  12.844  13.778
11855SOL    HW237463   8.904  12.783  13.909
11856SOL     OW37464  11.492  10.329   7.942
11856SOL    HW137465  11.527  10.368   8.023
11856SOL    HW237466  11.545  10.367   7.872
11857SOL     OW37467   5.317   5.096  14.376
11857SOL    HW137468   5.391   5.060  14.327
11857SOL    HW237469   5.242   5.043  14.350
11858SOL     OW37470  14.033   0.992  12.589
11858SOL    HW137471  14.056   1.010  12.498
11858SOL    HW237472  13.961   0.929  12.584
11859SOL     OW37473   3.560   5.306   0.895
11859SOL    HW137474   3.574   5.247   0.821
11859SOL    HW237475   3.648   5.333   0.921
11860SOL     OW37476  13.502   9.519  11.137
11860SOL    HW137477  13.537   9.601  11.172
11860SOL    HW237478  13.518   9.525  11.043
11861SOL     OW37479   8.844   7.652  13.594
11861SOL    HW137480   8.892   7.733  13.614
11861SOL    HW237481   8.899   7.582  13.629
11862SOL     OW37482   2.830  13.671  10.867
11862SOL    HW137483   2.736  13.690  10.861
11862SOL    HW237484   2.840  13.585  10.827
11863SOL     OW37485  11.715  11.651   1.092
11863SOL    HW137486  11.689  11.741   1.072
11863SOL    HW237487  11.811  11.656   1.100
11864SOL     OW37488   9.651   8.970  11.494
11864SOL    HW137489   9.623   9.046  11.546
11864SOL    HW237490   9.676   8.905  11.559
11865SOL     OW37491   2.033  13.400   2.105
11865SOL    HW137492   1.972  13.475   2.101
11865SOL    HW237493   2.098  13.419   2.037
11866SOL     OW37494  12.993   3.599   5.495
11866SOL    HW137495  12.939   3.675   5.519
11866SOL    HW237496  12.995   3.601   5.400
11867SOL     OW37497   5.648   9.147   2.654
11867SOL    HW137498   5.671   9.233   2.618
11867SOL    HW237499   5.591   9.108   2.589
11868SOL     OW37500   5.944   9.433   4.738
11868SOL    HW137501   5.905   9.475   4.815
11868SOL    HW237502   5.956   9.342   4.764
11869SOL     OW37503  10.168  11.762  14.470
11869SOL    HW137504  10.084  11.768  14.516
11869SOL    HW237505  10.226  11.821  14.518
11870SOL     OW37506   1.743   2.170   3.052
11870SOL    HW137507   1.774   2.085   3.020
11870SOL    HW237508   1.667   2.189   2.998
11871SOL     OW37509   3.207   8.778  14.803
11871SOL    HW137510   3.263   8.796   0.006
11871SOL    HW237511   3.256   8.714  14.751
11872SOL     OW37512   3.239   7.511   9.298
11872SOL    HW137513   3.192   7.484   9.377
11872SOL    HW237514   3.176   7.566   9.251
11873SOL     OW37515   2.550   0.171  11.740
11873SOL    HW137516   2.524   0.086  11.705
11873SOL    HW237517   2.601   0.211  11.670
11874SOL     OW37518   2.229  14.076  12.679
11874SOL    HW137519   2.134  14.087  12.686
11874SOL    HW237520   2.262  14.084  12.768
11875SOL     OW37521   3.051   5.549   7.481
11875SOL    HW137522   3.127   5.529   7.536
11875SOL    HW237523   2.990   5.594   7.540
11876SOL     OW37524  10.851   1.609   7.200
11876SOL    HW137525  10.879   1.693   7.235
11876SOL    HW237526  10.815   1.562   7.276
11877SOL     OW37527   1.821  11.935  12.190
11877SOL    HW137528   1.732  11.903  12.203
11877SOL    HW237529   1.868  11.863  12.148
11878SOL     OW37530   5.611  10.564  13.196
11878SOL    HW137531   5.650  10.635  13.144
11878SOL    HW237532   5.598  10.602  13.283
11879SOL     OW37533  10.542   2.192  12.895
11879SOL    HW137534  10.492   2.270  12.919
11879SOL    HW237535  10.478   2.135  12.852
11880SOL     OW37536  14.402   3.490  14.795
11880SOL    HW137537  14.417   3.483  14.700
11880SOL    HW237538  14.419   3.582  14.815
11881SOL     OW37539  11.487   8.300   7.547
11881SOL    HW137540  11.431   8.377   7.541
11881SOL    HW237541  11.535   8.299   7.464
11882SOL     OW37542   6.565   4.743  10.193
11882SOL    HW137543   6.590   4.684  10.265
11882SOL    HW237544   6.627   4.723  10.123
11883SOL     OW37545  10.861   1.739   4.698
11883SOL    HW137546  10.841   1.683   4.623
11883SOL    HW237547  10.780   1.787   4.715
11884SOL     OW37548   3.674  11.864   4.050
11884SOL    HW137549   3.726  11.883   3.972
11884SOL    HW237550   3.735  11.870   4.123
11885SOL     OW37551   5.825   5.112   6.042
11885SOL    HW137552   5.842   5.152   6.127
11885SOL    HW237553   5.868   5.169   5.979
11886SOL     OW37554  14.111   9.541   0.619
11886SOL    HW137555  14.172   9.612   0.635
11886SOL    HW237556  14.029   9.570   0.658
11887SOL     OW37557   2.401  14.072   8.981
11887SOL    HW137558   2.357  14.157   8.973
11887SOL    HW237559   2.491  14.089   8.953
11888SOL     OW37560   5.980   3.437   0.612
11888SOL    HW137561   5.904   3.477   0.655
11888SOL    HW237562   5.942   3.381   0.545
11889SOL     OW37563   4.548   5.393   7.429
11889SOL    HW137564   4.586   5.307   7.412
11889SOL    HW237565   4.573   5.413   7.519
11890SOL     OW37566   3.749   2.948  11.313
11890SOL    HW137567   3.772   2.858  11.290
11890SOL    HW237568   3.818   2.976  11.373
11891SOL     OW37569   9.419  11.565  13.385
11891SOL    HW137570   9.468  11.577  13.304
11891SOL    HW237571   9.447  11.638  13.441
11892SOL     OW37572   8.665  13.961  12.765
11892SOL    HW137573   8.597  13.901  12.735
11892SOL    HW237574   8.732  13.958  12.696
11893SOL     OW37575   3.112  13.831   0.522
11893SOL    HW137576   3.200  13.802   0.497
11893SOL    HW237577   3.124  13.922   0.551
11894SOL     OW37578  11.984  12.199   4.850
11894SOL    HW137579  12.010  12.159   4.767
11894SOL    HW237580  11.889  12.213   4.841
11895SOL     OW37581   2.227   4.038   5.594
11895SOL    HW137582   2.313   4.080   5.587
11895SOL    HW237583   2.238   3.972   5.663
11896SOL     OW37584  13.013   8.437   3.685
11896SOL    HW137585  13.072   8.481   3.623
11896SOL    HW237586  13.021   8.344   3.664
11897SOL     OW37587  10.651   8.910   7.745
11897SOL    HW137588  10.607   8.860   7.814
11897SOL    HW237589  10.580   8.940   7.689
11898SOL     OW37590  13.966   7.037   3.048
11898SOL    HW137591  14.036   6.972   3.047
11898SOL    HW237592  13.890   6.991   3.013
11899SOL     OW37593   6.669  12.548  10.503
11899SOL    HW137594   6.719  12.471  10.476
11899SOL    HW237595   6.623  12.575  10.423
11900SOL     OW37596   0.841  14.368  12.261
11900SOL    HW137597   0.931  14.367  12.228
11900SOL    HW237598   0.831  14.283  12.305
11901SOL     OW37599   2.335   4.923   3.956
11901SOL    HW137600   2.247   4.887   3.946
11901SOL    HW237601   2.347   4.979   3.879
11902SOL     OW37602   0.487   7.889  10.191
11902SOL    HW137603   0.485   7.881  10.096
11902SOL    HW237604   0.505   7.801  10.223
11903SOL     OW37605  13.721   5.904   1.100
11903SOL    HW137606  13.681   5.970   1.044
11903SOL    HW237607  13.666   5.827   1.090
11904SOL     OW37608   5.077   7.686  13.269
11904SOL    HW137609   5.030   7.658  13.348
11904SOL    HW237610   5.047   7.775  13.253
11905SOL     OW37611   3.978   3.770  13.682
11905SOL    HW137612   3.935   3.688  13.659
11905SOL    HW237613   3.949   3.832  13.615
11906SOL     OW37614   0.061  13.799   3.360
11906SOL    HW137615   0.066  13.704   3.366
11906SOL    HW237616  14.846  13.816   3.324
11907SOL     OW37617   4.030   3.208   8.048
11907SOL    HW137618   3.955   3.170   8.094
11907SOL    HW237619   4.105   3.188   8.104
11908SOL     OW37620  11.996   0.119   5.059
11908SOL    HW137621  12.063   0.064   5.100
11908SOL    HW237622  12.003   0.204   5.103
11909SOL     OW37623   1.524  12.874   3.496
11909SOL    HW137624   1.514  12.801   3.435
11909SOL    HW237625   1.603  12.919   3.467
11910SOL     OW37626   0.595   1.273  13.379
11910SOL    HW137627   0.566   1.182  13.375
11910SOL    HW237628   0.539   1.319  13.315
11911SOL     OW37629  14.267   9.605   0.977
11911SOL    HW137630  14.260   9.533   1.039
11911SOL    HW237631  14.350   9.590   0.931
11912SOL     OW37632  11.053   3.999   3.867
11912SOL    HW137633  11.101   3.941   3.808
11912SOL    HW237634  10.997   4.050   3.808
11913SOL     OW37635  10.086  10.016   5.150
11913SOL    HW137636  10.004   9.968   5.163
11913SOL    HW237637  10.065  10.107   5.175
11914SOL     OW37638  10.411  10.516   1.037
11914SOL    HW137639  10.439  10.608   1.031
11914SOL    HW237640  10.321  10.516   1.003
11915SOL     OW37641   2.994   3.947   7.564
11915SOL    HW137642   3.062   3.990   7.512
11915SOL    HW237643   2.994   3.857   7.533
11916SOL     OW37644   5.106   7.118   4.415
11916SOL    HW137645   5.095   7.202   4.369
11916SOL    HW237646   5.131   7.143   4.504
11917SOL     OW37647   3.437   5.450   4.658
11917SOL    HW137648   3.525   5.477   4.631
11917SOL    HW237649   3.381   5.522   4.630
11918SOL     OW37650   5.325   6.131  14.833
11918SOL    HW137651   5.313   6.223  14.809
11918SOL    HW237652   5.333   6.086  14.750
11919SOL     OW37653   6.872   2.619   4.527
11919SOL    HW137654   6.855   2.527   4.546
11919SOL    HW237655   6.946   2.618   4.466
11920SOL     OW37656  14.364  13.504   5.440
11920SOL    HW137657  14.366  13.565   5.366
11920SOL    HW237658  14.429  13.539   5.502
11921SOL     OW37659   2.066  13.595   0.983
11921SOL    HW137660   2.145  13.631   1.024
11921SOL    HW237661   1.999  13.600   1.052
11922SOL     OW37662  12.257   3.987   4.649
11922SOL    HW137663  12.252   3.892   4.651
11922SOL    HW237664  12.186   4.013   4.589
11923SOL     OW37665  13.262   9.313   0.764
11923SOL    HW137666  13.348   9.350   0.783
11923SOL    HW237667  13.266   9.291   0.670
11924SOL     OW37668  13.515   6.773   2.804
11924SOL    HW137669  13.469   6.802   2.725
11924SOL    HW237670  13.445   6.739   2.861
11925SOL     OW37671  11.994   8.016  11.379
11925SOL    HW137672  11.917   7.960  11.371
11925SOL    HW237673  12.067   7.955  11.394
11926SOL     OW37674   5.743   5.657   0.093
11926SOL    HW137675   5.649   5.669   0.080
11926SOL    HW237676   5.751   5.631   0.185
11927SOL     OW37677   7.747  10.077  14.543
11927SOL    HW137678   7.799  10.045  14.469
11927SOL    HW237679   7.772  10.168  14.552
11928SOL     OW37680   2.609   6.569  11.176
11928SOL    HW137681   2.522   6.585  11.212
11928SOL    HW237682   2.659   6.646  11.202
11929SOL     OW37683   8.898   7.717   9.076
11929SOL    HW137684   8.820   7.734   9.129
11929SOL    HW237685   8.919   7.801   9.035
11930SOL     OW37686  12.859   2.001   9.163
11930SOL    HW137687  12.779   1.994   9.112
11930SOL    HW237688  12.907   2.074   9.123
11931SOL     OW37689   3.373   2.429   8.168
11931SOL    HW137690   3.345   2.410   8.079
11931SOL    HW237691   3.468   2.439   8.162
11932SOL     OW37692  11.946   5.599  13.416
11932SOL    HW137693  11.864   5.551  13.404
11932SOL    HW237694  11.970   5.628  13.328
11933SOL     OW37695   5.547  10.549   8.296
11933SOL    HW137696   5.533  10.643   8.310
11933SOL    HW237697   5.497  10.529   8.216
11934SOL     OW37698   2.874   0.521  10.341
11934SOL    HW137699   2.877   0.454  10.273
11934SOL    HW237700   2.965   0.551  10.349
11935SOL     OW37701  12.791  12.114  10.571
11935SOL    HW137702  12.739  12.072  10.640
11935SOL    HW237703  12.791  12.051  10.499
11936SOL     OW37704   2.707   5.839   9.477
11936SOL    HW137705   2.647   5.825   9.551
11936SOL    HW237706   2.650   5.868   9.406
11937SOL     OW37707  14.773   7.160   2.822
11937SOL    HW137708  14.781   7.246   2.780
11937SOL    HW237709  14.680   7.139   2.814
11938SOL     OW37710   1.914  13.670  14.563
11938SOL    HW137711   1.872  13.740  14.513
11938SOL    HW237712   1.843  13.633  14.616
11939SOL     OW37713   0.682  13.229   3.574
11939SOL    HW137714   0.647  13.315   3.554
11939SOL    HW237715   0.734  13.205   3.497
11940SOL     OW37716   2.766   2.198   9.623
11940SOL    HW137717   2.774   2.247   9.541
11940SOL    HW237718   2.853   2.162   9.638
11941SOL     OW37719   9.590   6.136   4.016
11941SOL    HW137720   9.565   6.060   4.068
11941SOL    HW237721   9.630   6.196   4.079
11942SOL     OW37722  13.769  10.041   4.886
11942SOL    HW137723  13.729  10.125   4.866
11942SOL    HW237724  13.728  10.013   4.968
11943SOL     OW37725  12.005  11.549   7.718
11943SOL    HW137726  11.920  11.578   7.753
11943SOL    HW237727  12.014  11.459   7.749
11944SOL     OW37728  11.496   9.759  10.697
11944SOL    HW137729  11.527   9.696  10.632
11944SOL    HW237730  11.407   9.780  10.670
11945SOL     OW37731   4.418   3.635   9.969
11945SOL    HW137732   4.329   3.670   9.959
11945SOL    HW237733   4.475   3.708   9.946
11946SOL     OW37734  13.697   2.019   8.847
11946SOL    HW137735  13.733   1.947   8.897
11946SOL    HW237736  13.718   1.999   8.756
11947SOL     OW37737   3.319   4.666   4.994
11947SOL    HW137738   3.305   4.713   4.912
11947SOL    HW237739   3.414   4.668   5.006
11948SOL     OW37740   1.267   5.923   6.539
11948SOL    HW137741   1.242   6.000   6.487
11948SOL    HW237742   1.362   5.927   6.543
11949SOL     OW37743   4.811   1.935   4.589
11949SOL    HW137744   4.834   1.922   4.681
11949SOL    HW237745   4.859   1.866   4.542
11950SOL     OW37746  12.928   2.397   9.473
11950SOL    HW137747  12.923   2.305   9.500
11950SOL    HW237748  12.866   2.442   9.530
11951SOL     OW37749   9.227   7.602   4.492
11951SOL    HW137750   9.192   7.679   4.537
11951SOL    HW237751   9.172   7.530   4.523
11952SOL     OW37752   5.854  11.314   8.470
11952SOL    HW137753   5.868  11.240   8.529
11952SOL    HW237754   5.895  11.287   8.388
11953SOL     OW37755   8.184   3.391   1.865
11953SOL    HW137756   8.270   3.384   1.906
11953SOL    HW237757   8.124   3.408   1.937
11954SOL     OW37758   6.873  11.754   7.044
11954SOL    HW137759   6.884  11.660   7.055
11954SOL    HW237760   6.930  11.777   6.971
11955SOL     OW37761   8.604   0.512   0.741
11955SOL    HW137762   8.597   0.574   0.814
11955SOL    HW237763   8.517   0.473   0.733
11956SOL     OW37764   5.207   9.697   8.334
11956SOL    HW137765   5.126   9.652   8.309
11956SOL    HW237766   5.228   9.752   8.259
11957SOL     OW37767   5.114   1.450  11.868
11957SOL    HW137768   5.155   1.515  11.811
11957SOL    HW237769   5.086   1.381  11.808
11958SOL     OW37770  13.436   6.125   7.464
11958SOL    HW137771  13.376   6.061   7.503
11958SOL    HW237772  13.521   6.103   7.501
11959SOL     OW37773   4.210  12.532   4.489
11959SOL    HW137774   4.120  12.508   4.512
11959SOL    HW237775   4.213  12.627   4.499
11960SOL     OW37776   3.973   1.663  11.243
11960SOL    HW137777   3.998   1.585  11.193
11960SOL    HW237778   3.934   1.628  11.323
11961SOL     OW37779   4.952  14.413   6.677
11961SOL    HW137780   4.876  14.429   6.733
11961SOL    HW237781   4.967  14.318   6.683
11962SOL     OW37782   4.321  11.828  14.034
11962SOL    HW137783   4.351  11.895  14.096
11962SOL    HW237784   4.397  11.812  13.978
11963SOL     OW37785  11.525  12.395  11.296
11963SOL    HW137786  11.478  12.459  11.349
11963SOL    HW237787  11.617  12.411  11.316
11964SOL     OW37788   5.621   5.361   2.189
11964SOL    HW137789   5.575   5.404   2.261
11964SOL    HW237790   5.597   5.412   2.111
11965SOL     OW37791   4.915  14.745  12.511
11965SOL    HW137792   4.942  14.654  12.510
11965SOL    HW237793   4.975  14.788  12.450
11966SOL     OW37794   3.139   7.062   9.970
11966SOL    HW137795   3.228   7.080  10.000
11966SOL    HW237796   3.149   6.996   9.902
11967SOL     OW37797  12.448  12.986  12.835
11967SOL    HW137798  12.471  12.915  12.895
11967SOL    HW237799  12.489  13.063  12.873
11968SOL     OW37800   2.740   4.748   0.841
11968SOL    HW137801   2.663   4.701   0.808
11968SOL    HW237802   2.798   4.755   0.765
11969SOL     OW37803   3.974   3.222  13.982
11969SOL    HW137804   4.022   3.228  13.899
11969SOL    HW237805   3.901   3.163  13.964
11970SOL     OW37806  10.987  14.495   1.315
11970SOL    HW137807  10.981  14.561   1.384
11970SOL    HW237808  10.914  14.436   1.332
11971SOL     OW37809  14.145  10.034   8.763
11971SOL    HW137810  14.151   9.957   8.820
11971SOL    HW237811  14.130  10.107   8.823
11972SOL     OW37812  13.017  13.722   7.229
11972SOL    HW137813  13.050  13.812   7.229
11972SOL    HW237814  13.095  13.668   7.216
11973SOL     OW37815   9.539  10.804   3.158
11973SOL    HW137816   9.554  10.880   3.214
11973SOL    HW237817   9.469  10.831   3.098
11974SOL     OW37818   2.324   1.008   6.523
11974SOL    HW137819   2.245   0.961   6.548
11974SOL    HW237820   2.381   0.941   6.484
11975SOL     OW37821   6.952   1.053   7.435
11975SOL    HW137822   6.963   1.148   7.422
11975SOL    HW237823   7.042   1.019   7.433
11976SOL     OW37824   3.871  14.583   4.134
11976SOL    HW137825   3.957  14.622   4.152
11976SOL    HW237826   3.811  14.630   4.191
11977SOL     OW37827   3.112   0.836  10.809
11977SOL    HW137828   3.072   0.791  10.734
11977SOL    HW237829   3.116   0.769  10.877
11978SOL     OW37830  12.382  12.136   7.306
11978SOL    HW137831  12.328  12.214   7.320
11978SOL    HW237832  12.404  12.138   7.213
11979SOL     OW37833   0.037  12.184  13.632
11979SOL    HW137834  14.846  12.119  13.604
11979SOL    HW237835  14.857  12.258  13.663
11980SOL     OW37836   2.453  10.354   8.276
11980SOL    HW137837   2.383  10.338   8.212
11980SOL    HW237838   2.522  10.395   8.225
11981SOL     OW37839   2.179   2.195   0.270
11981SOL    HW137840   2.156   2.254   0.199
11981SOL    HW237841   2.266   2.163   0.247
11982SOL     OW37842   2.966  14.484   3.627
11982SOL    HW137843   2.880  14.505   3.663
11982SOL    HW237844   2.992  14.404   3.671
11983SOL     OW37845   0.889   8.140  12.480
11983SOL    HW137846   0.887   8.130  12.575
11983SOL    HW237847   0.982   8.152  12.460
11984SOL     OW37848   0.272   9.577  10.083
11984SOL    HW137849   0.317   9.661  10.072
11984SOL    HW237850   0.298   9.547  10.170
11985SOL     OW37851  11.476   6.373  11.731
11985SOL    HW137852  11.566   6.387  11.702
11985SOL    HW237853  11.468   6.425  11.810
11986SOL     OW37854   4.550   3.551   9.415
11986SOL    HW137855   4.542   3.459   9.441
11986SOL    HW237856   4.623   3.552   9.353
11987SOL     OW37857   4.731  10.480   7.054
11987SOL    HW137858   4.825  10.498   7.055
11987SOL    HW237859   4.703  10.490   7.145
11988SOL     OW37860  13.143   6.138  11.618
11988SOL    HW137861  13.164   6.045  11.608
11988SOL    HW237862  13.229   6.180  11.627
11989SOL     OW37863  12.431   1.511   9.933
11989SOL    HW137864  12.496   1.525   9.865
11989SOL    HW237865  12.481   1.502  10.014
11990SOL     OW37866   7.777   3.329   4.135
11990SOL    HW137867   7.871   3.328   4.157
11990SOL    HW237868   7.757   3.238   4.113
11991SOL     OW37869  13.109  13.333   5.879
11991SOL    HW137870  13.053  13.255   5.882
11991SOL    HW237871  13.099  13.366   5.790
11992SOL     OW37872   7.559   8.129   5.683
11992SOL    HW137873   7.495   8.178   5.733
11992SOL    HW237874   7.521   8.042   5.673
11993SOL     OW37875  12.852   0.499   8.043
11993SOL    HW137876  12.819   0.482   7.955
11993SOL    HW237877  12.887   0.415   8.072
11994SOL     OW37878  10.773   8.870  13.641
11994SOL    HW137879  10.692   8.916  13.620
11994SOL    HW237880  10.777   8.798  13.578
11995SOL     OW37881   5.618   4.260  12.926
11995SOL    HW137882   5.579   4.177  12.952
11995SOL    HW237883   5.619   4.257  12.830
11996SOL     OW37884   2.941   0.950   2.616
11996SOL    HW137885   2.856   0.983   2.645
11996SOL    HW237886   2.999   0.964   2.691
11997SOL     OW37887   1.339  13.034   7.750
11997SOL    HW137888   1.355  12.982   7.829
11997SOL    HW237889   1.402  13.000   7.687
11998SOL     OW37890  12.899   8.237   0.614
11998SOL    HW137891  12.853   8.207   0.536
11998SOL    HW237892  12.830   8.255   0.678
11999SOL     OW37893   6.139  10.845   3.942
11999SOL    HW137894   6.192  10.900   3.884
11999SOL    HW237895   6.071  10.810   3.886
12000SOL     OW37896   0.477   2.611   0.747
12000SOL    HW137897   0.530   2.595   0.825
12000SOL    HW237898   0.398   2.655   0.780
12001SOL     OW37899   0.576  14.417   6.415
12001SOL    HW137900   0.636  14.412   6.489
12001SOL    HW237901   0.633  14.426   6.338
12002SOL     OW37902  14.861  12.999   1.453
12002SOL    HW137903  14.787  12.939   1.462
12002SOL    HW237904  14.838  13.054   1.377
12003SOL     OW37905   3.679  14.746   9.667
12003SOL    HW137906   3.722  14.666   9.696
12003SOL    HW237907   3.595  14.717   9.631
12004SOL     OW37908   4.967   2.987   4.034
12004SOL    HW137909   4.927   3.061   3.987
12004SOL    HW237910   5.061   3.007   4.034
12005SOL     OW37911   2.856  10.272  14.477
12005SOL    HW137912   2.782  10.277  14.416
12005SOL    HW237913   2.868  10.361  14.508
12006SOL     OW37914   1.104   4.478   5.953
12006SOL    HW137915   1.080   4.570   5.965
12006SOL    HW237916   1.139   4.473   5.864
12007SOL     OW37917   3.600  13.927  14.588
12007SOL    HW137918   3.612  13.842  14.630
12007SOL    HW237919   3.669  13.982  14.625
12008SOL     OW37920   5.928   2.631   2.884
12008SOL    HW137921   5.897   2.666   2.967
12008SOL    HW237922   6.004   2.577   2.907
12009SOL     OW37923   8.073   8.332   9.216
12009SOL    HW137924   7.982   8.339   9.188
12009SOL    HW237925   8.071   8.266   9.286
12010SOL     OW37926   8.543   1.887  12.418
12010SOL    HW137927   8.592   1.858  12.494
12010SOL    HW237928   8.481   1.817  12.400
12011SOL     OW37929   4.754   0.043   2.855
12011SOL    HW137930   4.708   0.108   2.802
12011SOL    HW237931   4.846   0.056   2.834
12012SOL     OW37932  11.189  11.881   3.394
12012SOL    HW137933  11.226  11.912   3.476
12012SOL    HW237934  11.263  11.884   3.332
12013SOL     OW37935   9.159  13.320   2.064
12013SOL    HW137936   9.140  13.237   2.108
12013SOL    HW237937   9.189  13.378   2.134
12014SOL     OW37938  10.815   1.282  11.594
12014SOL    HW137939  10.848   1.247  11.512
12014SOL    HW237940  10.809   1.376  11.579
12015SOL     OW37941   9.729  12.042  10.146
12015SOL    HW137942   9.643  12.043  10.103
12015SOL    HW237943   9.760  12.133  10.139
12016SOL     OW37944   2.734   9.522  12.466
12016SOL    HW137945   2.776   9.586  12.524
12016SOL    HW237946   2.661   9.570  12.427
12017SOL     OW37947  12.679  13.269   5.556
12017SOL    HW137948  12.728  13.290   5.635
12017SOL    HW237949  12.656  13.354   5.518
12018SOL     OW37950   0.213   6.979   4.172
12018SOL    HW137951   0.282   7.040   4.198
12018SOL    HW237952   0.184   6.939   4.254
12019SOL     OW37953  11.996  12.583  14.048
12019SOL    HW137954  11.903  12.596  14.064
12019SOL    HW237955  12.014  12.632  13.967
12020SOL     OW37956   3.337  14.098   4.730
12020SOL    HW137957   3.405  14.143   4.680
12020SOL    HW237958   3.261  14.157   4.728
12021SOL     OW37959  13.662   6.081   3.303
12021SOL    HW137960  13.678   6.145   3.373
12021SOL    HW237961  13.587   6.117   3.255
12022SOL     OW37962   6.348  10.143  10.141
12022SOL    HW137963   6.369  10.095  10.220
12022SOL    HW237964   6.253  10.134  10.132
12023SOL     OW37965  11.721   6.474   1.987
12023SOL    HW137966  11.768   6.493   2.068
12023SOL    HW237967  11.685   6.386   2.000
12024SOL     OW37968   7.390  12.347  11.975
12024SOL    HW137969   7.313  12.312  12.021
12024SOL    HW237970   7.372  12.441  11.969
12025SOL     OW37971  10.378  12.983   3.896
12025SOL    HW137972  10.392  13.068   3.938
12025SOL    HW237973  10.429  12.921   3.949
12026SOL     OW37974  13.577   7.383   3.036
12026SOL    HW137975  13.647   7.388   2.971
12026SOL    HW237976  13.622   7.364   3.119
12027SOL     OW37977   8.579   7.747   7.174
12027SOL    HW137978   8.566   7.833   7.216
12027SOL    HW237979   8.491   7.720   7.148
12028SOL     OW37980   0.234  14.114  10.731
12028SOL    HW137981   0.214  14.024  10.757
12028SOL    HW237982   0.278  14.152  10.807
12029SOL     OW37983  12.407  10.630   7.987
12029SOL    HW137984  12.423  10.538   8.011
12029SOL    HW237985  12.333  10.656   8.041
12030SOL     OW37986   0.792   8.599   3.292
12030SOL    HW137987   0.846   8.564   3.221
12030SOL    HW237988   0.854   8.643   3.350
12031SOL     OW37989  12.025   5.438  13.845
12031SOL    HW137990  11.943   5.388  13.852
12031SOL    HW237991  12.038   5.448  13.750
12032SOL     OW37992   8.787   7.207   5.373
12032SOL    HW137993   8.775   7.222   5.467
12032SOL    HW237994   8.760   7.117   5.358
12033SOL     OW37995   8.389  14.368   8.077
12033SOL    HW137996   8.294  14.368   8.064
12033SOL    HW237997   8.406  14.447   8.128
12034SOL     OW37998   6.031   0.699  14.235
12034SOL    HW137999   5.955   0.744  14.274
12034SOL    HW238000   5.998   0.664  14.153
12035SOL     OW38001   5.445   2.775   7.823
12035SOL    HW138002   5.487   2.780   7.738
12035SOL    HW238003   5.361   2.821   7.811
12036SOL     OW38004   3.086   2.148   9.078
12036SOL    HW138005   3.124   2.211   9.016
12036SOL    HW238006   3.156   2.084   9.093
12037SOL     OW38007   0.471  11.006   8.974
12037SOL    HW138008   0.452  10.988   9.066
12037SOL    HW238009   0.563  10.979   8.964
12038SOL     OW38010   1.741   2.259   1.729
12038SOL    HW138011   1.820   2.251   1.782
12038SOL    HW238012   1.679   2.307   1.784
12039SOL     OW38013  11.165  10.871   8.087
12039SOL    HW138014  11.084  10.891   8.041
12039SOL    HW238015  11.181  10.778   8.070
12040SOL     OW38016   5.807  10.679   5.344
12040SOL    HW138017   5.867  10.747   5.314
12040SOL    HW238018   5.730  10.688   5.288
12041SOL     OW38019   6.404   4.558   5.552
12041SOL    HW138020   6.435   4.529   5.639
12041SOL    HW238021   6.437   4.647   5.544
12042SOL     OW38022   4.700   4.506   6.467
12042SOL    HW138023   4.645   4.455   6.407
12042SOL    HW238024   4.788   4.471   6.454
12043SOL     OW38025   9.370   7.328   0.827
12043SOL    HW138026   9.337   7.417   0.813
12043SOL    HW238027   9.292   7.276   0.845
12044SOL     OW38028   9.648   4.386  12.853
12044SOL    HW138029   9.683   4.375  12.941
12044SOL    HW238030   9.563   4.429  12.866
12045SOL     OW38031   7.575  10.552   7.478
12045SOL    HW138032   7.597  10.587   7.392
12045SOL    HW238033   7.538  10.626   7.526
12046SOL     OW38034  13.848  14.744  10.856
12046SOL    HW138035  13.892  14.782  10.780
12046SOL    HW238036  13.868  14.650  10.852
12047SOL     OW38037  13.124  14.280   9.860
12047SOL    HW138038  13.059  14.210   9.865
12047SOL    HW238039  13.207  14.234   9.851
12048SOL     OW38040  11.221  10.070   0.968
12048SOL    HW138041  11.189  10.146   0.919
12048SOL    HW238042  11.149  10.008   0.966
12049SOL     OW38043  10.394   6.283   4.369
12049SOL    HW138044  10.356   6.293   4.282
12049SOL    HW238045  10.318   6.285   4.428
12050SOL     OW38046   8.267  12.643   9.674
12050SOL    HW138047   8.215  12.571   9.709
12050SOL    HW238048   8.354  12.605   9.658
12051SOL     OW38049   4.483  12.450   4.534
12051SOL    HW138050   4.524  12.511   4.472
12051SOL    HW238051   4.389  12.464   4.523
12052SOL     OW38052  14.469  11.513   6.619
12052SOL    HW138053  14.553  11.556   6.604
12052SOL    HW238054  14.460  11.452   6.546
12053SOL     OW38055   1.772   1.268   6.657
12053SOL    HW138056   1.714   1.208   6.705
12053SOL    HW238057   1.766   1.350   6.706
12054SOL     OW38058   3.807   7.041   1.506
12054SOL    HW138059   3.746   7.040   1.580
12054SOL    HW238060   3.829   6.948   1.493
12055SOL     OW38061  10.352   5.088   2.396
12055SOL    HW138062  10.323   5.145   2.467
12055SOL    HW238063  10.288   5.017   2.393
12056SOL     OW38064   6.699   4.096  11.837
12056SOL    HW138065   6.765   4.072  11.902
12056SOL    HW238066   6.734   4.064  11.754
12057SOL     OW38067  10.289   6.139   9.618
12057SOL    HW138068  10.203   6.098   9.622
12057SOL    HW238069  10.345   6.073   9.576
12058SOL     OW38070   2.965   0.521  14.318
12058SOL    HW138071   3.015   0.501  14.397
12058SOL    HW238072   2.874   0.506  14.343
12059SOL     OW38073   3.831   2.947   7.926
12059SOL    HW138074   3.920   2.970   7.900
12059SOL    HW238075   3.775   3.003   7.872
12060SOL     OW38076   6.522   7.267  13.113
12060SOL    HW138077   6.485   7.182  13.090
12060SOL    HW238078   6.594   7.279  13.051
12061SOL     OW38079  12.736  12.639   5.729
12061SOL    HW138080  12.804  12.608   5.789
12061SOL    HW238081  12.784  12.678   5.656
12062SOL     OW38082   7.456   2.041   6.350
12062SOL    HW138083   7.549   2.053   6.331
12062SOL    HW238084   7.452   2.037   6.445
12063SOL     OW38085   4.103  11.488  14.314
12063SOL    HW138086   4.125  11.465  14.224
12063SOL    HW238087   4.135  11.415  14.366
12064SOL     OW38088  10.885   1.386   9.799
12064SOL    HW138089  10.819   1.320   9.823
12064SOL    HW238090  10.963   1.362   9.849
12065SOL     OW38091   2.222   3.393   1.402
12065SOL    HW138092   2.210   3.308   1.445
12065SOL    HW238093   2.316   3.410   1.409
12066SOL     OW38094   1.723   7.479   2.944
12066SOL    HW138095   1.630   7.499   2.951
12066SOL    HW238096   1.755   7.483   3.034
12067SOL     OW38097   6.569   4.240   4.592
12067SOL    HW138098   6.521   4.158   4.579
12067SOL    HW238099   6.637   4.238   4.525
12068SOL     OW38100   4.008   2.980   3.037
12068SOL    HW138101   4.092   2.936   3.048
12068SOL    HW238102   4.020   3.066   3.079
12069SOL     OW38103   3.493  13.675   4.278
12069SOL    HW138104   3.561  13.609   4.266
12069SOL    HW238105   3.431  13.636   4.340
12070SOL     OW38106   6.519   2.529   7.210
12070SOL    HW138107   6.497   2.476   7.134
12070SOL    HW238108   6.445   2.587   7.222
12071SOL     OW38109   3.981   0.514   3.321
12071SOL    HW138110   4.030   0.457   3.380
12071SOL    HW238111   3.897   0.470   3.309
12072SOL     OW38112   0.231   4.005  13.302
12072SOL    HW138113   0.158   4.067  13.296
12072SOL    HW238114   0.211   3.938  13.237
12073SOL     OW38115   4.204   7.921   7.089
12073SOL    HW138116   4.127   7.914   7.033
12073SOL    HW238117   4.266   7.858   7.053
12074SOL     OW38118   2.290   9.325  13.649
12074SOL    HW138119   2.288   9.247  13.592
12074SOL    HW238120   2.207   9.370  13.631
12075SOL     OW38121   7.593  12.918   2.430
12075SOL    HW138122   7.647  12.877   2.497
12075SOL    HW238123   7.504  12.893   2.452
12076SOL     OW38124   4.092   1.765   9.835
12076SOL    HW138125   4.095   1.734   9.925
12076SOL    HW238126   4.002   1.795   9.822
12077SOL     OW38127   3.432   5.289  10.378
12077SOL    HW138128   3.524   5.309  10.364
12077SOL    HW238129   3.432   5.200  10.413
12078SOL     OW38130  12.798   1.977  13.002
12078SOL    HW138131  12.858   1.945  13.070
12078SOL    HW238132  12.747   1.900  12.977
12079SOL     OW38133  12.373   3.771   0.693
12079SOL    HW138134  12.329   3.844   0.649
12079SOL    HW238135  12.396   3.806   0.779
12080SOL     OW38136   6.639   8.789   9.355
12080SOL    HW138137   6.708   8.777   9.289
12080SOL    HW238138   6.608   8.700   9.373
12081SOL     OW38139  10.001   5.742   0.303
12081SOL    HW138140  10.094   5.762   0.319
12081SOL    HW238141   9.954   5.818   0.337
12082SOL     OW38142   5.438   0.487  13.089
12082SOL    HW138143   5.386   0.482  13.169
12082SOL    HW238144   5.376   0.469  13.019
12083SOL     OW38145   5.755   2.255  11.362
12083SOL    HW138146   5.661   2.273  11.355
12083SOL    HW238147   5.784   2.307  11.437
12084SOL     OW38148  11.422   1.571   2.424
12084SOL    HW138149  11.394   1.488   2.464
12084SOL    HW238150  11.351   1.632   2.442
12085SOL     OW38151   8.016   2.272   1.054
12085SOL    HW138152   7.990   2.185   1.084
12085SOL    HW238153   8.039   2.260   0.962
12086SOL     OW38154  10.308   7.457   4.810
12086SOL    HW138155  10.361   7.398   4.864
12086SOL    HW238156  10.240   7.489   4.869
12087SOL     OW38157   6.321   4.113   5.002
12087SOL    HW138158   6.245   4.076   4.958
12087SOL    HW238159   6.285   4.171   5.068
12088SOL     OW38160   7.107   1.838  12.684
12088SOL    HW138161   7.202   1.852  12.680
12088SOL    HW238162   7.071   1.898  12.619
12089SOL     OW38163  12.342   1.326  12.230
12089SOL    HW138164  12.364   1.321  12.137
12089SOL    HW238165  12.418   1.289  12.275
12090SOL     OW38166   5.032  13.531   5.766
12090SOL    HW138167   4.974  13.529   5.690
12090SOL    HW238168   5.075  13.617   5.761
12091SOL     OW38169  11.502  12.049  12.449
12091SOL    HW138170  11.412  12.028  12.425
12091SOL    HW238171  11.538  12.095  12.373
12092SOL     OW38172   3.242  10.225   0.149
12092SOL    HW138173   3.254  10.156   0.084
12092SOL    HW238174   3.213  10.301   0.099
12093SOL     OW38175   3.665   9.397   7.860
12093SOL    HW138176   3.759   9.406   7.878
12093SOL    HW238177   3.647   9.303   7.874
12094SOL     OW38178   8.295  12.843  13.075
12094SOL    HW138179   8.206  12.861  13.046
12094SOL    HW238180   8.306  12.897  13.153
12095SOL     OW38181   6.852   0.233   0.993
12095SOL    HW138182   6.815   0.175   0.927
12095SOL    HW238183   6.897   0.301   0.943
12096SOL     OW38184   8.813   6.131  10.009
12096SOL    HW138185   8.808   6.127  10.105
12096SOL    HW238186   8.768   6.212   9.986
12097SOL     OW38187   9.423   1.303   9.244
12097SOL    HW138188   9.468   1.276   9.325
12097SOL    HW238189   9.337   1.262   9.250
12098SOL     OW38190   9.234  11.114  11.861
12098SOL    HW138191   9.236  11.085  11.952
12098SOL    HW238192   9.310  11.172  11.853
12099SOL     OW38193  11.236   7.006   8.155
12099SOL    HW138194  11.250   7.100   8.165
12099SOL    HW238195  11.157   7.000   8.101
12100SOL     OW38196   3.805   0.826   6.515
12100SOL    HW138197   3.756   0.849   6.436
12100SOL    HW238198   3.764   0.745   6.546
12101SOL     OW38199   9.992   2.182   1.957
12101SOL    HW138200  10.021   2.118   1.892
12101SOL    HW238201   9.903   2.203   1.932
12102SOL     OW38202  10.560  10.048  13.576
12102SOL    HW138203  10.480  10.081  13.617
12102SOL    HW238204  10.623  10.120  13.584
12103SOL     OW38205   0.415  14.857   1.393
12103SOL    HW138206   0.505   0.015   1.405
12103SOL    HW238207   0.423  14.773   1.349
12104SOL     OW38208  10.490   9.067   1.452
12104SOL    HW138209  10.580   9.035   1.441
12104SOL    HW238210  10.455   9.071   1.364
12105SOL     OW38211   8.832  12.653   9.292
12105SOL    HW138212   8.899  12.589   9.270
12105SOL    HW238213   8.768  12.646   9.221
12106SOL     OW38214   9.741   5.512  11.005
12106SOL    HW138215   9.686   5.569  10.951
12106SOL    HW238216   9.700   5.512  11.091
12107SOL     OW38217  12.168   9.843   2.192
12107SOL    HW138218  12.199   9.787   2.122
12107SOL    HW238219  12.082   9.807   2.215
12108SOL     OW38220   6.917   7.582   1.675
12108SOL    HW138221   6.979   7.523   1.718
12108SOL    HW238222   6.867   7.525   1.616
12109SOL     OW38223   0.287   5.215  14.509
12109SOL    HW138224   0.219   5.182  14.567
12109SOL    HW238225   0.366   5.221  14.563
12110SOL     OW38226   0.013  12.337  11.885
12110SOL    HW138227   0.054  12.422  11.869
12110SOL    HW238228  14.852  12.343  11.975
12111SOL     OW38229  12.518   9.896   9.378
12111SOL    HW138230  12.579   9.915   9.450
12111SOL    HW238231  12.541   9.807   9.351
12112SOL     OW38232   7.065   8.938  11.033
12112SOL    HW138233   7.017   9.013  11.071
12112SOL    HW238234   7.035   8.863  11.085
12113SOL     OW38235   6.308   9.693   1.012
12113SOL    HW138236   6.248   9.729   0.947
12113SOL    HW238237   6.289   9.599   1.012
12114SOL     OW38238  10.888   2.618   9.091
12114SOL    HW138239  10.829   2.544   9.103
12114SOL    HW238240  10.831   2.694   9.083
12115SOL     OW38241   1.590   9.420   0.690
12115SOL    HW138242   1.538   9.465   0.624
12115SOL    HW238243   1.631   9.490   0.741
12116SOL     OW38244   5.529   9.446  13.755
12116SOL    HW138245   5.464   9.383  13.786
12116SOL    HW238246   5.600   9.392  13.720
12117SOL     OW38247   4.632   3.654   7.748
12117SOL    HW138248   4.543   3.689   7.751
12117SOL    HW238249   4.625   3.567   7.787
12118SOL     OW38250   9.302  10.875   5.724
12118SOL    HW138251   9.265  10.795   5.760
12118SOL    HW238252   9.334  10.851   5.638
12119SOL     OW38253  14.387  11.870   8.848
12119SOL    HW138254  14.323  11.811   8.888
12119SOL    HW238255  14.358  11.881   8.758
12120SOL     OW38256  11.627   3.632  12.894
12120SOL    HW138257  11.673   3.557  12.932
12120SOL    HW238258  11.692   3.674  12.837
12121SOL     OW38259   8.689   6.284  11.525
12121SOL    HW138260   8.604   6.319  11.549
12121SOL    HW238261   8.748   6.312  11.595
12122SOL     OW38262   0.364   8.658   3.345
12122SOL    HW138263   0.428   8.609   3.294
12122SOL    HW238264   0.328   8.593   3.406
12123SOL     OW38265   2.368   5.990   9.030
12123SOL    HW138266   2.439   5.960   8.974
12123SOL    HW238267   2.289   5.952   8.993
12124SOL     OW38268   4.293   2.389  12.400
12124SOL    HW138269   4.374   2.438  12.412
12124SOL    HW238270   4.298   2.355  12.311
12125SOL     OW38271  13.310   7.092   9.332
12125SOL    HW138272  13.376   7.027   9.308
12125SOL    HW238273  13.341   7.173   9.293
12126SOL     OW38274   4.876   5.633   6.954
12126SOL    HW138275   4.811   5.645   7.023
12126SOL    HW238276   4.835   5.671   6.876
12127SOL     OW38277   2.768   9.975   0.154
12127SOL    HW138278   2.751  10.063   0.188
12127SOL    HW238279   2.776   9.920   0.232
12128SOL     OW38280   1.340   4.560  12.960
12128SOL    HW138281   1.289   4.531  13.036
12128SOL    HW238282   1.286   4.626  12.918
12129SOL     OW38283  10.458   7.718   6.093
12129SOL    HW138284  10.520   7.662   6.140
12129SOL    HW238285  10.382   7.662   6.077
12130SOL     OW38286   1.705   5.447  10.148
12130SOL    HW138287   1.775   5.428  10.086
12130SOL    HW238288   1.632   5.390  10.120
12131SOL     OW38289   6.021  10.443   0.756
12131SOL    HW138290   6.069  10.386   0.695
12131SOL    HW238291   5.938  10.462   0.711
12132SOL     OW38292   2.003   6.932  12.827
12132SOL    HW138293   2.087   6.892  12.849
12132SOL    HW238294   1.968   6.877  12.757
12133SOL     OW38295  12.274   0.311   3.369
12133SOL    HW138296  12.252   0.273   3.453
12133SOL    HW238297  12.238   0.400   3.373
12134SOL     OW38298  11.747   5.473   9.050
12134SOL    HW138299  11.685   5.447   8.983
12134SOL    HW238300  11.789   5.391   9.077
12135SOL     OW38301   7.495   6.890   6.708
12135SOL    HW138302   7.434   6.868   6.638
12135SOL    HW238303   7.440   6.908   6.784
12136SOL     OW38304   3.355  14.773   9.827
12136SOL    HW138305   3.391  14.857   9.799
12136SOL    HW238306   3.395  14.757   9.912
12137SOL     OW38307   6.590   5.659   5.013
12137SOL    HW138308   6.551   5.641   5.099
12137SOL    HW238309   6.521   5.638   4.950
12138SOL     OW38310   7.127   9.907   0.664
12138SOL    HW138311   7.057   9.962   0.630
12138SOL    HW238312   7.131   9.928   0.758
12139SOL     OW38313  14.314   9.881  11.653
12139SOL    HW138314  14.382   9.935  11.614
12139SOL    HW238315  14.313   9.906  11.745
12140SOL     OW38316   4.519   6.055  11.043
12140SOL    HW138317   4.552   6.061  11.132
12140SOL    HW238318   4.424   6.053  11.053
12141SOL     OW38319   9.852   0.502  10.860
12141SOL    HW138320   9.945   0.515  10.846
12141SOL    HW238321   9.847   0.423  10.915
12142SOL     OW38322   5.709   1.724   1.336
12142SOL    HW138323   5.730   1.651   1.278
12142SOL    HW238324   5.793   1.766   1.353
12143SOL     OW38325   6.955  11.275   7.980
12143SOL    HW138326   6.988  11.264   7.891
12143SOL    HW238327   7.018  11.229   8.035
12144SOL     OW38328   8.680  11.641   7.496
12144SOL    HW138329   8.589  11.612   7.485
12144SOL    HW238330   8.674  11.737   7.495
12145SOL     OW38331   7.132   7.485  10.191
12145SOL    HW138332   7.128   7.395  10.157
12145SOL    HW238333   7.109   7.540  10.116
12146SOL     OW38334   8.346  13.955  11.242
12146SOL    HW138335   8.328  13.919  11.155
12146SOL    HW238336   8.402  14.031  11.226
12147SOL     OW38337  14.727   6.526  13.752
12147SOL    HW138338  14.673   6.573  13.688
12147SOL    HW238339  14.668   6.462  13.791
12148SOL     OW38340   8.558   3.384   5.897
12148SOL    HW138341   8.636   3.404   5.948
12148SOL    HW238342   8.485   3.396   5.958
12149SOL     OW38343   8.788  11.024  13.949
12149SOL    HW138344   8.866  11.076  13.930
12149SOL    HW238345   8.716  11.087  13.947
12150SOL     OW38346  13.990   1.377   9.104
12150SOL    HW138347  13.939   1.307   9.145
12150SOL    HW238348  14.005   1.346   9.015
12151SOL     OW38349   4.785  13.304   1.188
12151SOL    HW138350   4.790  13.309   1.092
12151SOL    HW238351   4.765  13.212   1.206
12152SOL     OW38352   8.375   7.457   6.253
12152SOL    HW138353   8.438   7.406   6.304
12152SOL    HW238354   8.322   7.503   6.318
12153SOL     OW38355   7.457   6.136  10.893
12153SOL    HW138356   7.494   6.063  10.943
12153SOL    HW238357   7.414   6.190  10.958
12154SOL     OW38358  13.765  13.003  11.701
12154SOL    HW138359  13.781  12.909  11.711
12154SOL    HW238360  13.680  13.017  11.743
12155SOL     OW38361   8.424  14.509   8.992
12155SOL    HW138362   8.399  14.494   8.901
12155SOL    HW238363   8.465  14.595   8.993
12156SOL     OW38364  13.657   7.565   2.298
12156SOL    HW138365  13.663   7.650   2.255
12156SOL    HW238366  13.730   7.515   2.262
12157SOL     OW38367   5.598  11.218   1.566
12157SOL    HW138368   5.608  11.289   1.502
12157SOL    HW238369   5.586  11.262   1.650
12158SOL     OW38370   5.181   5.327   9.048
12158SOL    HW138371   5.250   5.351   9.110
12158SOL    HW238372   5.119   5.276   9.100
12159SOL     OW38373   7.747  10.212   4.191
12159SOL    HW138374   7.781  10.134   4.235
12159SOL    HW238375   7.662  10.228   4.233
12160SOL     OW38376   7.990  13.975  13.121
12160SOL    HW138377   8.004  14.015  13.206
12160SOL    HW238378   8.014  13.883  13.133
12161SOL     OW38379   9.525   2.058  10.777
12161SOL    HW138380   9.522   2.146  10.739
12161SOL    HW238381   9.451   2.013  10.737
12162SOL     OW38382  13.730  13.263   8.207
12162SOL    HW138383  13.662  13.328   8.189
12162SOL    HW238384  13.684  13.191   8.251
12163SOL     OW38385   2.128  12.353   9.363
12163SOL    HW138386   2.190  12.355   9.436
12163SOL    HW238387   2.174  12.308   9.293
12164SOL     OW38388   6.310   7.518   4.164
12164SOL    HW138389   6.348   7.460   4.098
12164SOL    HW238390   6.248   7.572   4.115
12165SOL     OW38391   1.079   2.023  12.758
12165SOL    HW138392   1.046   2.086  12.821
12165SOL    HW238393   1.026   2.037  12.680
12166SOL     OW38394  14.197  12.668   8.217
12166SOL    HW138395  14.269  12.720   8.182
12166SOL    HW238396  14.157  12.724   8.284
12167SOL     OW38397  12.604  12.661   4.830
12167SOL    HW138398  12.579  12.582   4.784
12167SOL    HW238399  12.531  12.678   4.890
12168SOL     OW38400  11.418   5.997   9.143
12168SOL    HW138401  11.444   5.948   9.222
12168SOL    HW238402  11.478   5.967   9.075
12169SOL     OW38403   5.790   5.815   2.029
12169SOL    HW138404   5.812   5.886   2.090
12169SOL    HW238405   5.781   5.738   2.084
12170SOL     OW38406   1.640   1.272   7.941
12170SOL    HW138407   1.724   1.301   7.977
12170SOL    HW238408   1.582   1.265   8.017
12171SOL     OW38409   7.054   0.681   1.837
12171SOL    HW138410   7.092   0.634   1.911
12171SOL    HW238411   7.067   0.774   1.858
12172SOL     OW38412  11.450   3.088   4.755
12172SOL    HW138413  11.431   3.129   4.671
12172SOL    HW238414  11.372   3.037   4.775
12173SOL     OW38415  12.777   2.688  12.557
12173SOL    HW138416  12.867   2.720  12.570
12173SOL    HW238417  12.745   2.738  12.483
12174SOL     OW38418  12.549  13.975   3.978
12174SOL    HW138419  12.603  13.932   3.912
12174SOL    HW238420  12.485  13.909   4.004
12175SOL     OW38421   1.705   4.557   6.492
12175SOL    HW138422   1.728   4.611   6.416
12175SOL    HW238423   1.644   4.611   6.541
12176SOL     OW38424   4.653   5.412   2.379
12176SOL    HW138425   4.642   5.372   2.293
12176SOL    HW238426   4.720   5.359   2.422
12177SOL     OW38427   2.451  13.741  10.076
12177SOL    HW138428   2.463  13.743   9.981
12177SOL    HW238429   2.387  13.671  10.091
12178SOL     OW38430   0.218   2.316   8.203
12178SOL    HW138431   0.133   2.345   8.170
12178SOL    HW238432   0.248   2.251   8.140
12179SOL     OW38433   3.681  11.076   1.003
12179SOL    HW138434   3.701  11.160   1.045
12179SOL    HW238435   3.606  11.094   0.947
12180SOL     OW38436   3.084  12.058  14.317
12180SOL    HW138437   3.119  11.978  14.358
12180SOL    HW238438   3.003  12.030  14.275
12181SOL     OW38439   0.428   5.336   9.481
12181SOL    HW138440   0.416   5.430   9.490
12181SOL    HW238441   0.400   5.317   9.391
12182SOL     OW38442   9.502  13.426   2.814
12182SOL    HW138443   9.427  13.377   2.848
12182SOL    HW238444   9.463  13.499   2.765
12183SOL     OW38445  13.688   0.174   9.782
12183SOL    HW138446  13.662   0.262   9.810
12183SOL    HW238447  13.747   0.144   9.851
12184SOL     OW38448   3.479  12.045   3.747
12184SOL    HW138449   3.474  11.960   3.702
12184SOL    HW238450   3.438  12.029   3.832
12185SOL     OW38451   0.599   3.172   7.628
12185SOL    HW138452   0.611   3.106   7.696
12185SOL    HW238453   0.525   3.224   7.658
12186SOL     OW38454   7.775   6.156   8.643
12186SOL    HW138455   7.813   6.082   8.689
12186SOL    HW238456   7.702   6.184   8.699
12187SOL     OW38457  14.531  11.084  12.374
12187SOL    HW138458  14.620  11.119  12.368
12187SOL    HW238459  14.516  11.075  12.469
12188SOL     OW38460   1.816  11.921   8.871
12188SOL    HW138461   1.805  11.962   8.957
12188SOL    HW238462   1.885  11.856   8.884
12189SOL     OW38463   4.139   0.315  11.766
12189SOL    HW138464   4.217   0.343  11.717
12189SOL    HW238465   4.095   0.253  11.708
12190SOL     OW38466  14.844  12.008  11.932
12190SOL    HW138467   0.008  11.920  11.916
12190SOL    HW238468  14.809  12.035  11.847
12191SOL     OW38469   5.033   8.140  14.852
12191SOL    HW138470   5.106   8.082  14.830
12191SOL    HW238471   5.075   8.220   0.011
12192SOL     OW38472   4.205   5.908   2.708
12192SOL    HW138473   4.239   5.855   2.636
12192SOL    HW238474   4.113   5.883   2.714
12193SOL     OW38475  13.508   2.601   6.250
12193SOL    HW138476  13.458   2.592   6.169
12193SOL    HW238477  13.590   2.554   6.233
12194SOL     OW38478   1.724   9.524  11.437
12194SOL    HW138479   1.705   9.549  11.528
12194SOL    HW238480   1.820   9.523  11.432
12195SOL     OW38481  12.894  13.035   8.178
12195SOL    HW138482  12.898  13.044   8.083
12195SOL    HW238483  12.944  12.955   8.197
12196SOL     OW38484   7.732   5.084  10.831
12196SOL    HW138485   7.666   5.147  10.859
12196SOL    HW238486   7.794   5.080  10.904
12197SOL     OW38487  11.718   2.407  14.745
12197SOL    HW138488  11.753   2.470  14.682
12197SOL    HW238489  11.703   2.327  14.694
12198SOL     OW38490   2.028   1.203  11.620
12198SOL    HW138491   1.997   1.117  11.593
12198SOL    HW238492   2.094   1.227  11.556
12199SOL     OW38493  11.039  14.241   8.154
12199SOL    HW138494  10.959  14.231   8.206
12199SOL    HW238495  11.081  14.319   8.189
12200SOL     OW38496  12.794  13.947   4.830
12200SOL    HW138497  12.749  13.990   4.903
12200SOL    HW238498  12.728  13.890   4.791
12201SOL     OW38499   2.647   4.476   5.040
12201SOL    HW138500   2.666   4.411   5.107
12201SOL    HW238501   2.669   4.560   5.081
12202SOL     OW38502  11.575  12.651   3.898
12202SOL    HW138503  11.599  12.744   3.898
12202SOL    HW238504  11.498  12.646   3.954
12203SOL     OW38505  12.021  11.648   7.150
12203SOL    HW138506  11.945  11.674   7.203
12203SOL    HW238507  11.984  11.592   7.082
12204SOL     OW38508  12.384   9.504  14.297
12204SOL    HW138509  12.319   9.550  14.244
12204SOL    HW238510  12.362   9.528  14.387
12205SOL     OW38511   1.816   4.235  13.753
12205SOL    HW138512   1.896   4.206  13.797
12205SOL    HW238513   1.773   4.294  13.815
12206SOL     OW38514  12.287   3.325   7.499
12206SOL    HW138515  12.369   3.347   7.456
12206SOL    HW238516  12.223   3.386   7.462
12207SOL     OW38517   8.135  13.263   4.473
12207SOL    HW138518   8.159  13.312   4.394
12207SOL    HW238519   8.218  13.227   4.504
12208SOL     OW38520  13.411   9.793   3.131
12208SOL    HW138521  13.388   9.751   3.048
12208SOL    HW238522  13.357   9.871   3.135
12209SOL     OW38523  14.796   5.699   7.099
12209SOL    HW138524   0.001   5.714   7.045
12209SOL    HW238525  14.770   5.609   7.079
12210SOL     OW38526  13.514   9.069   4.887
12210SOL    HW138527  13.542   9.155   4.854
12210SOL    HW238528  13.459   9.089   4.963
12211SOL     OW38529  14.209   0.593   6.531
12211SOL    HW138530  14.229   0.509   6.491
12211SOL    HW238531  14.174   0.647   6.460
12212SOL     OW38532  14.470   0.243   1.477
12212SOL    HW138533  14.530   0.203   1.414
12212SOL    HW238534  14.416   0.302   1.424
12213SOL     OW38535   3.659   5.082   2.056
12213SOL    HW138536   3.659   5.174   2.029
12213SOL    HW238537   3.752   5.058   2.056
12214SOL     OW38538   4.413   6.926   6.937
12214SOL    HW138539   4.434   6.929   7.030
12214SOL    HW238540   4.424   7.016   6.906
12215SOL     OW38541   3.519   0.453   4.737
12215SOL    HW138542   3.435   0.484   4.702
12215SOL    HW238543   3.585   0.491   4.679
12216SOL     OW38544  10.246   6.139   6.869
12216SOL    HW138545  10.296   6.219   6.853
12216SOL    HW238546  10.163   6.154   6.824
12217SOL     OW38547   4.029   5.853  12.321
12217SOL    HW138548   3.941   5.816  12.314
12217SOL    HW238549   4.086   5.786  12.283
12218SOL     OW38550  12.544   8.484   8.112
12218SOL    HW138551  12.615   8.430   8.078
12218SOL    HW238552  12.490   8.422   8.162
12219SOL     OW38553   7.474  14.242   8.525
12219SOL    HW138554   7.468  14.197   8.609
12219SOL    HW238555   7.449  14.176   8.460
12220SOL     OW38556  10.061   6.325  11.645
12220SOL    HW138557  10.019   6.355  11.725
12220SOL    HW238558  10.095   6.405  11.605
12221SOL     OW38559   0.689   1.404   5.575
12221SOL    HW138560   0.719   1.372   5.490
12221SOL    HW238561   0.750   1.364   5.638
12222SOL     OW38562   7.795   9.334  10.480
12222SOL    HW138563   7.762   9.283  10.554
12222SOL    HW238564   7.784   9.426  10.507
12223SOL     OW38565  10.124   2.271   4.115
12223SOL    HW138566  10.067   2.344   4.088
12223SOL    HW238567  10.072   2.223   4.179
12224SOL     OW38568  12.971   4.045  10.080
12224SOL    HW138569  13.017   3.963  10.096
12224SOL    HW238570  13.023   4.111  10.127
12225SOL     OW38571  12.494   6.681   0.906
12225SOL    HW138572  12.550   6.751   0.872
12225SOL    HW238573  12.439   6.724   0.971
12226SOL     OW38574   6.695  12.810  14.490
12226SOL    HW138575   6.671  12.894  14.530
12226SOL    HW238576   6.688  12.747  14.561
12227SOL     OW38577  12.118   1.046   8.673
12227SOL    HW138578  12.193   1.083   8.719
12227SOL    HW238579  12.083   1.118   8.621
12228SOL     OW38580   9.545   5.027   5.282
12228SOL    HW138581   9.548   5.117   5.251
12228SOL    HW238582   9.454   5.000   5.270
12229SOL     OW38583   6.278   6.226  10.794
12229SOL    HW138584   6.204   6.177  10.757
12229SOL    HW238585   6.259   6.231  10.888
12230SOL     OW38586   2.118   9.985   1.368
12230SOL    HW138587   2.105  10.023   1.281
12230SOL    HW238588   2.207  10.009   1.392
12231SOL     OW38589  10.113   3.969   9.411
12231SOL    HW138590  10.061   3.926   9.343
12231SOL    HW238591  10.199   3.981   9.371
12232SOL     OW38592   9.108  10.294   6.990
12232SOL    HW138593   9.143  10.351   6.922
12232SOL    HW238594   9.174  10.225   6.999
12233SOL     OW38595   6.351   8.997   1.909
12233SOL    HW138596   6.337   8.907   1.879
12233SOL    HW238597   6.351   8.990   2.005
12234SOL     OW38598   9.133   0.912   2.278
12234SOL    HW138599   9.113   0.979   2.213
12234SOL    HW238600   9.181   0.845   2.230
12235SOL     OW38601  13.999   0.013   9.365
12235SOL    HW138602  13.988   0.066   9.444
12235SOL    HW238603  13.940   0.052   9.301
12236SOL     OW38604  10.095   2.823   3.260
12236SOL    HW138605  10.114   2.760   3.330
12236SOL    HW238606  10.118   2.908   3.298
12237SOL     OW38607  13.544  14.181   0.690
12237SOL    HW138608  13.448  14.179   0.680
12237SOL    HW238609  13.557  14.190   0.785
12238SOL     OW38610   5.768   6.205   3.173
12238SOL    HW138611   5.686   6.163   3.146
12238SOL    HW238612   5.831   6.178   3.107
12239SOL     OW38613   6.832   6.306  12.466
12239SOL    HW138614   6.870   6.238  12.522
12239SOL    HW238615   6.833   6.268  12.378
12240SOL     OW38616   1.333  13.621   4.397
12240SOL    HW138617   1.416  13.603   4.352
12240SOL    HW238618   1.323  13.549   4.459
12241SOL     OW38619   4.163  11.964   6.666
12241SOL    HW138620   4.215  11.940   6.590
12241SOL    HW238621   4.077  11.925   6.649
12242SOL     OW38622   0.973   2.335   8.926
12242SOL    HW138623   0.977   2.406   8.862
12242SOL    HW238624   0.934   2.375   9.004
12243SOL     OW38625   4.647   3.729   1.218
12243SOL    HW138626   4.735   3.712   1.250
12243SOL    HW238627   4.624   3.650   1.168
12244SOL     OW38628   1.468   4.825  11.855
12244SOL    HW138629   1.403   4.830  11.925
12244SOL    HW238630   1.529   4.896  11.874
12245SOL     OW38631   3.903   0.247   1.584
12245SOL    HW138632   3.952   0.190   1.525
12245SOL    HW238633   3.824   0.271   1.536
12246SOL     OW38634   2.696   7.415   0.738
12246SOL    HW138635   2.778   7.386   0.698
12246SOL    HW238636   2.637   7.340   0.729
12247SOL     OW38637   7.914   4.180  10.635
12247SOL    HW138638   7.825   4.213  10.636
12247SOL    HW238639   7.905   4.085  10.632
12248SOL     OW38640   5.246   2.398   0.421
12248SOL    HW138641   5.174   2.455   0.448
12248SOL    HW238642   5.203   2.326   0.374
12249SOL     OW38643   6.214  11.583   6.977
12249SOL    HW138644   6.195  11.515   6.912
12249SOL    HW238645   6.135  11.587   7.031
12250SOL     OW38646   2.094   1.201  11.037
12250SOL    HW138647   2.126   1.118  11.073
12250SOL    HW238648   2.049   1.176  10.956
12251SOL     OW38649  10.111  14.034   8.324
12251SOL    HW138650  10.060  13.968   8.277
12251SOL    HW238651  10.123  13.996   8.411
12252SOL     OW38652   4.459  13.263   1.280
12252SOL    HW138653   4.419  13.350   1.277
12252SOL    HW238654   4.440  13.230   1.368
12253SOL     OW38655  13.325   6.723   4.755
12253SOL    HW138656  13.330   6.686   4.842
12253SOL    HW238657  13.329   6.648   4.696
12254SOL     OW38658   4.592   7.032   8.646
12254SOL    HW138659   4.545   7.032   8.729
12254SOL    HW238660   4.533   7.076   8.585
12255SOL     OW38661   4.611  14.390  12.141
12255SOL    HW138662   4.537  14.335  12.169
12255SOL    HW238663   4.688  14.336  12.159
12256SOL     OW38664   9.054  12.179  13.668
12256SOL    HW138665   8.969  12.139  13.687
12256SOL    HW238666   9.109  12.105  13.642
12257SOL     OW38667   6.734   3.302  13.096
12257SOL    HW138668   6.791   3.249  13.041
12257SOL    HW238669   6.666   3.240  13.126
12258SOL     OW38670  10.942  12.299   5.696
12258SOL    HW138671  10.868  12.352   5.726
12258SOL    HW238672  10.901  12.221   5.659
12259SOL     OW38673   6.473   0.814   0.930
12259SOL    HW138674   6.563   0.782   0.938
12259SOL    HW238675   6.475   0.872   0.854
12260SOL     OW38676   5.302  13.396  10.723
12260SOL    HW138677   5.245  13.319  10.723
12260SOL    HW238678   5.258  13.459  10.780
12261SOL     OW38679  14.496   8.158   1.461
12261SOL    HW138680  14.472   8.109   1.383
12261SOL    HW238681  14.412   8.181   1.502
12262SOL     OW38682   0.238  14.326  10.360
12262SOL    HW138683   0.181  14.275  10.418
12262SOL    HW238684   0.325  14.318  10.400
12263SOL     OW38685   9.960   3.030   5.840
12263SOL    HW138686   9.866   3.028   5.820
12263SOL    HW238687   9.985   3.121   5.824
12264SOL     OW38688   8.937   5.538  10.971
12264SOL    HW138689   8.967   5.619  11.012
12264SOL    HW238690   9.017   5.487  10.957
12265SOL     OW38691   4.132   3.817  13.290
12265SOL    HW138692   4.102   3.883  13.227
12265SOL    HW238693   4.221   3.845  13.313
12266SOL     OW38694  12.937   7.123   8.822
12266SOL    HW138695  12.883   7.193   8.788
12266SOL    HW238696  12.887   7.087   8.896
12267SOL     OW38697  13.470   3.930   1.600
12267SOL    HW138698  13.454   3.928   1.505
12267SOL    HW238699  13.470   3.837   1.625
12268SOL     OW38700  13.038   6.463   0.858
12268SOL    HW138701  12.978   6.491   0.928
12268SOL    HW238702  13.097   6.538   0.847
12269SOL     OW38703  13.803  14.351  11.982
12269SOL    HW138704  13.804  14.269  12.032
12269SOL    HW238705  13.744  14.408  12.031
12270SOL     OW38706   8.654  10.209  10.063
12270SOL    HW138707   8.579  10.259  10.031
12270SOL    HW238708   8.614  10.130  10.101
12271SOL     OW38709  13.285   6.511   9.815
12271SOL    HW138710  13.326   6.597   9.824
12271SOL    HW238711  13.192   6.527   9.832
12272SOL     OW38712   0.051   5.595   8.178
12272SOL    HW138713   0.059   5.685   8.147
12272SOL    HW238714   0.121   5.547   8.133
12273SOL     OW38715   4.286  10.000   2.299
12273SOL    HW138716   4.195  10.021   2.275
12273SOL    HW238717   4.322   9.960   2.220
12274SOL     OW38718   2.543  12.329  12.177
12274SOL    HW138719   2.577  12.369  12.257
12274SOL    HW238720   2.486  12.395  12.139
12275SOL     OW38721   3.917  14.259   9.031
12275SOL    HW138722   3.858  14.325   8.994
12275SOL    HW238723   3.901  14.262   9.125
12276SOL     OW38724  14.475   3.037   9.275
12276SOL    HW138725  14.396   3.092   9.275
12276SOL    HW238726  14.535   3.083   9.216
12277SOL     OW38727  14.315  10.567   0.617
12277SOL    HW138728  14.363  10.591   0.537
12277SOL    HW238729  14.341  10.634   0.681
12278SOL     OW38730   6.214  14.822   4.177
12278SOL    HW138731   6.137  14.825   4.233
12278SOL    HW238732   6.195   0.011   4.106
12279SOL     OW38733   4.728   6.222  13.181
12279SOL    HW138734   4.772   6.141  13.157
12279SOL    HW238735   4.766   6.288  13.123
12280SOL     OW38736   6.074   9.546   8.965
12280SOL    HW138737   6.037   9.467   8.926
12280SOL    HW238738   6.072   9.528   9.059
12281SOL     OW38739  10.484  13.753   8.426
12281SOL    HW138740  10.577  13.736   8.415
12281SOL    HW238741  10.480  13.824   8.490
12282SOL     OW38742  10.609   2.428  13.313
12282SOL    HW138743  10.558   2.502  13.346
12282SOL    HW238744  10.568   2.351  13.353
12283SOL     OW38745   8.887   5.002   7.723
12283SOL    HW138746   8.839   5.079   7.753
12283SOL    HW238747   8.827   4.929   7.737
12284SOL     OW38748   8.252   4.187  11.877
12284SOL    HW138749   8.283   4.152  11.793
12284SOL    HW238750   8.171   4.234  11.855
12285SOL     OW38751  14.531  12.057   2.472
12285SOL    HW138752  14.525  12.149   2.497
12285SOL    HW238753  14.604  12.023   2.523
12286SOL     OW38754  14.032  11.401   2.696
12286SOL    HW138755  14.102  11.357   2.744
12286SOL    HW238756  14.034  11.491   2.728
12287SOL     OW38757   1.939   9.970  12.741
12287SOL    HW138758   1.981  10.027  12.677
12287SOL    HW238759   1.863  10.020  12.772
12288SOL     OW38760   6.661   4.646   4.626
12288SOL    HW138761   6.680   4.560   4.664
12288SOL    HW238762   6.731   4.702   4.660
12289SOL     OW38763   3.705   3.274  14.134
12289SOL    HW138764   3.679   3.297  14.045
12289SOL    HW238765   3.800   3.260  14.129
12290SOL     OW38766   3.372   3.449   3.609
12290SOL    HW138767   3.413   3.535   3.616
12290SOL    HW238768   3.289   3.466   3.564
12291SOL     OW38769   8.923   1.045  12.844
12291SOL    HW138770   8.843   0.998  12.821
12291SOL    HW238771   8.909   1.074  12.934
12292SOL     OW38772   2.045   6.722   2.094
12292SOL    HW138773   2.005   6.662   2.030
12292SOL    HW238774   2.125   6.752   2.052
12293SOL     OW38775  12.336  13.342   9.409
12293SOL    HW138776  12.430  13.323   9.407
12293SOL    HW238777  12.309  13.335   9.317
12294SOL     OW38778   9.761   2.166   1.140
12294SOL    HW138779   9.674   2.134   1.115
12294SOL    HW238780   9.804   2.089   1.179
12295SOL     OW38781   9.838   6.246   3.679
12295SOL    HW138782   9.831   6.282   3.590
12295SOL    HW238783   9.924   6.202   3.680
12296SOL     OW38784  11.834   2.479   0.652
12296SOL    HW138785  11.915   2.492   0.602
12296SOL    HW238786  11.779   2.553   0.626
12297SOL     OW38787   6.030   7.754   7.433
12297SOL    HW138788   6.117   7.765   7.470
12297SOL    HW238789   5.977   7.822   7.476
12298SOL     OW38790  11.018   6.162  14.264
12298SOL    HW138791  10.924   6.179  14.271
12298SOL    HW238792  11.057   6.249  14.256
12299SOL     OW38793   7.719   2.560   5.720
12299SOL    HW138794   7.656   2.589   5.786
12299SOL    HW238795   7.741   2.470   5.745
12300SOL     OW38796   2.825  10.695  14.842
12300SOL    HW138797   2.837  10.603  14.819
12300SOL    HW238798   2.780  10.693   0.054
12301SOL     OW38799  12.839  11.225   7.494
12301SOL    HW138800  12.760  11.237   7.441
12301SOL    HW238801  12.811  11.244   7.584
12302SOL     OW38802   0.853  13.494   3.635
12302SOL    HW138803   0.855  13.567   3.697
12302SOL    HW238804   0.760  13.469   3.631
12303SOL     OW38805  13.865   5.978   3.994
12303SOL    HW138806  13.772   5.970   3.974
12303SOL    HW238807  13.877   6.072   4.010
12304SOL     OW38808   1.047   0.007   6.838
12304SOL    HW138809   0.992  14.819   6.787
12304SOL    HW238810   1.118   0.031   6.778
12305SOL     OW38811   2.767  10.341  14.835
12305SOL    HW138812   2.767  10.343   0.059
12305SOL    HW238813   2.675  10.349  14.811
12306SOL     OW38814   0.201  14.635   6.652
12306SOL    HW138815   0.218  14.729   6.658
12306SOL    HW238816   0.118  14.629   6.605
12307SOL     OW38817  10.061   5.081  13.620
12307SOL    HW138818  10.124   5.038  13.678
12307SOL    HW238819  10.102   5.077  13.534
12308SOL     OW38820   5.955   9.148   2.763
12308SOL    HW138821   5.866   9.122   2.788
12308SOL    HW238822   5.990   9.190   2.842
12309SOL     OW38823   6.457   2.618   8.348
12309SOL    HW138824   6.533   2.579   8.305
12309SOL    HW238825   6.421   2.678   8.283
12310SOL     OW38826   4.009   4.270   3.827
12310SOL    HW138827   4.010   4.363   3.849
12310SOL    HW238828   3.978   4.226   3.906
12311SOL     OW38829   4.919   7.419   1.723
12311SOL    HW138830   4.921   7.430   1.818
12311SOL    HW238831   4.832   7.383   1.705
12312SOL     OW38832   4.158  10.366   4.635
12312SOL    HW138833   4.186  10.370   4.543
12312SOL    HW238834   4.225  10.313   4.678
12313SOL     OW38835   6.562  12.634   7.494
12313SOL    HW138836   6.477  12.614   7.534
12313SOL    HW238837   6.540  12.660   7.404
12314SOL     OW38838   2.978   6.284   5.914
12314SOL    HW138839   3.067   6.251   5.920
12314SOL    HW238840   2.924   6.215   5.954
12315SOL     OW38841   3.986   6.587   4.095
12315SOL    HW138842   4.027   6.575   4.009
12315SOL    HW238843   3.979   6.499   4.131
12316SOL     OW38844   3.368   2.738   2.676
12316SOL    HW138845   3.330   2.692   2.751
12316SOL    HW238846   3.438   2.791   2.714
12317SOL     OW38847   1.265  12.941   3.946
12317SOL    HW138848   1.203  12.967   4.015
12317SOL    HW238849   1.209  12.922   3.871
12318SOL     OW38850   5.635   4.376   7.376
12318SOL    HW138851   5.575   4.322   7.326
12318SOL    HW238852   5.580   4.422   7.439
12319SOL     OW38853   9.770  13.764  13.776
12319SOL    HW138854   9.760  13.671  13.759
12319SOL    HW238855   9.804  13.800  13.694
12320SOL     OW38856   2.098   4.985  12.294
12320SOL    HW138857   2.178   4.975  12.243
12320SOL    HW238858   2.031   4.941  12.242
12321SOL     OW38859   5.060   9.751   2.797
12321SOL    HW138860   5.026   9.787   2.715
12321SOL    HW238861   5.153   9.735   2.779
12322SOL     OW38862  14.009   8.782   9.949
12322SOL    HW138863  14.071   8.771  10.021
12322SOL    HW238864  13.988   8.693   9.921
12323SOL     OW38865   4.591  10.487   5.287
12323SOL    HW138866   4.680  10.469   5.258
12323SOL    HW238867   4.578  10.429   5.362
12324SOL     OW38868  10.922   6.194   7.792
12324SOL    HW138869  10.913   6.111   7.745
12324SOL    HW238870  10.892   6.174   7.881
12325SOL     OW38871   5.559   3.146   5.237
12325SOL    HW138872   5.549   3.206   5.311
12325SOL    HW238873   5.522   3.063   5.269
12326SOL     OW38874   9.230   7.597   6.031
12326SOL    HW138875   9.176   7.672   6.006
12326SOL    HW238876   9.254   7.613   6.122
12327SOL     OW38877   6.054   1.527  11.791
12327SOL    HW138878   6.141   1.535  11.752
12327SOL    HW238879   6.063   1.569  11.877
12328SOL     OW38880   7.733   7.124  11.111
12328SOL    HW138881   7.805   7.143  11.171
12328SOL    HW238882   7.738   7.192  11.044
12329SOL     OW38883  14.217  11.745   7.660
12329SOL    HW138884  14.157  11.718   7.590
12329SOL    HW238885  14.262  11.822   7.625
12330SOL     OW38886   8.537   1.077   4.140
12330SOL    HW138887   8.606   1.139   4.115
12330SOL    HW238888   8.579   0.991   4.134
12331SOL     OW38889   0.475   0.706  14.201
12331SOL    HW138890   0.490   0.793  14.163
12331SOL    HW238891   0.504   0.715  14.292
12332SOL     OW38892   6.923   5.805   8.801
12332SOL    HW138893   6.947   5.715   8.780
12332SOL    HW238894   6.880   5.799   8.886
12333SOL     OW38895   6.387  10.470   6.730
12333SOL    HW138896   6.375  10.378   6.706
12333SOL    HW238897   6.304  10.512   6.708
12334SOL     OW38898   4.731   8.112   6.017
12334SOL    HW138899   4.745   8.089   6.108
12334SOL    HW238900   4.775   8.043   5.968
12335SOL     OW38901   0.007   5.785   9.556
12335SOL    HW138902   0.094   5.745   9.559
12335SOL    HW238903  14.853   5.779   9.464
12336SOL     OW38904  11.980   0.420   5.556
12336SOL    HW138905  11.965   0.510   5.525
12336SOL    HW238906  12.000   0.430   5.649
12337SOL     OW38907   3.507   0.137   9.739
12337SOL    HW138908   3.506   0.220   9.692
12337SOL    HW238909   3.600   0.113   9.745
12338SOL     OW38910   9.813   4.832   1.616
12338SOL    HW138911   9.862   4.890   1.675
12338SOL    HW238912   9.800   4.752   1.667
12339SOL     OW38913  12.269   1.945   7.224
12339SOL    HW138914  12.325   2.020   7.204
12339SOL    HW238915  12.207   1.942   7.152
12340SOL     OW38916  12.610   9.623   9.265
12340SOL    HW138917  12.661   9.642   9.186
12340SOL    HW238918  12.673   9.630   9.336
12341SOL     OW38919  13.644   3.418  13.742
12341SOL    HW138920  13.693   3.421  13.660
12341SOL    HW238921  13.712   3.411  13.809
12342SOL     OW38922   3.279   0.421   3.335
12342SOL    HW138923   3.201   0.381   3.374
12342SOL    HW238924   3.261   0.422   3.241
12343SOL     OW38925   2.864   6.380   1.537
12343SOL    HW138926   2.938   6.430   1.570
12343SOL    HW238927   2.903   6.306   1.490
12344SOL     OW38928   8.105   4.957   6.100
12344SOL    HW138929   8.116   4.942   6.006
12344SOL    HW238930   8.015   4.990   6.108
12345SOL     OW38931   6.583   2.749   8.768
12345SOL    HW138932   6.551   2.659   8.774
12345SOL    HW238933   6.676   2.740   8.747
12346SOL     OW38934   5.489   3.187   7.974
12346SOL    HW138935   5.405   3.146   7.993
12346SOL    HW238936   5.469   3.280   7.960
12347SOL     OW38937   3.100   7.272   1.157
12347SOL    HW138938   3.193   7.273   1.136
12347SOL    HW238939   3.078   7.180   1.168
12348SOL     OW38940  11.388   8.348  13.398
12348SOL    HW138941  11.437   8.351  13.316
12348SOL    HW238942  11.451   8.371  13.465
12349SOL     OW38943  13.953   5.481  13.834
12349SOL    HW138944  13.996   5.542  13.774
12349SOL    HW238945  13.927   5.407  13.778
12350SOL     OW38946   8.150  12.756   6.746
12350SOL    HW138947   8.071  12.703   6.739
12350SOL    HW238948   8.198  12.739   6.665
12351SOL     OW38949   2.000   8.787   2.049
12351SOL    HW138950   1.999   8.762   2.141
12351SOL    HW238951   2.019   8.706   2.002
12352SOL     OW38952  11.605   8.611   4.593
12352SOL    HW138953  11.528   8.597   4.648
12352SOL    HW238954  11.663   8.665   4.647
12353SOL     OW38955  14.726   6.225   0.922
12353SOL    HW138956  14.770   6.178   0.993
12353SOL    HW238957  14.780   6.208   0.845
12354SOL     OW38958  12.072   3.646   9.069
12354SOL    HW138959  12.073   3.559   9.110
12354SOL    HW238960  11.988   3.683   9.094
12355SOL     OW38961  10.965   0.485  12.871
12355SOL    HW138962  10.963   0.515  12.962
12355SOL    HW238963  10.884   0.435  12.860
12356SOL     OW38964   1.380   1.840   0.949
12356SOL    HW138965   1.292   1.832   0.912
12356SOL    HW238966   1.382   1.929   0.985
12357SOL     OW38967   2.171   0.781   7.860
12357SOL    HW138968   2.150   0.733   7.941
12357SOL    HW238969   2.141   0.722   7.790
12358SOL     OW38970  13.157  10.496   0.018
12358SOL    HW138971  13.065  10.515   0.035
12358SOL    HW238972  13.193  10.578  14.856
12359SOL     OW38973   1.016   1.603   3.879
12359SOL    HW138974   0.947   1.598   3.945
12359SOL    HW238975   1.086   1.547   3.912
12360SOL     OW38976   6.693   6.805   9.737
12360SOL    HW138977   6.708   6.809   9.831
12360SOL    HW238978   6.640   6.726   9.725
12361SOL     OW38979   3.640   1.430   8.333
12361SOL    HW138980   3.571   1.480   8.288
12361SOL    HW238981   3.704   1.496   8.358
12362SOL     OW38982   9.411  12.039  11.972
12362SOL    HW138983   9.500  12.066  11.992
12362SOL    HW238984   9.420  11.978  11.898
12363SOL     OW38985   3.520  13.273   9.638
12363SOL    HW138986   3.494  13.181   9.625
12363SOL    HW238987   3.460  13.305   9.705
12364SOL     OW38988   1.179  13.398  12.360
12364SOL    HW138989   1.211  13.434  12.442
12364SOL    HW238990   1.177  13.472  12.300
12365SOL     OW38991   5.446   7.221   3.000
12365SOL    HW138992   5.485   7.289   2.945
12365SOL    HW238993   5.368   7.193   2.951
12366SOL     OW38994  12.221   2.025  11.960
12366SOL    HW138995  12.269   2.017  12.043
12366SOL    HW238996  12.238   1.943  11.914
12367SOL     OW38997   9.711   2.621   5.293
12367SOL    HW138998   9.632   2.596   5.245
12367SOL    HW238999   9.720   2.555   5.361
12368SOL     OW39000  11.657   6.816  12.138
12368SOL    HW139001  11.628   6.808  12.228
12368SOL    HW239002  11.577   6.828  12.087
12369SOL     OW39003   6.877   0.526   6.937
12369SOL    HW139004   6.938   0.481   6.996
12369SOL    HW239005   6.827   0.584   6.994
12370SOL     OW39006  11.683  11.107  11.009
12370SOL    HW139007  11.760  11.110  11.067
12370SOL    HW239008  11.719  11.085  10.923
12371SOL     OW39009   9.707   2.895   1.143
12371SOL    HW139010   9.787   2.948   1.146
12371SOL    HW239011   9.692   2.871   1.235
12372SOL     OW39012   7.485  10.644   6.494
12372SOL    HW139013   7.423  10.711   6.465
12372SOL    HW239014   7.503  10.593   6.415
12373SOL     OW39015   1.667   5.058   8.766
12373SOL    HW139016   1.639   4.968   8.750
12373SOL    HW239017   1.762   5.055   8.756
12374SOL     OW39018   5.080   9.948   6.312
12374SOL    HW139019   5.085   9.896   6.393
12374SOL    HW239020   5.082  10.039   6.343
12375SOL     OW39021  12.868   2.064   5.273
12375SOL    HW139022  12.883   2.158   5.265
12375SOL    HW239023  12.889   2.029   5.185
12376SOL     OW39024  10.767   0.960   1.772
12376SOL    HW139025  10.770   0.907   1.851
12376SOL    HW239026  10.747   0.898   1.702
12377SOL     OW39027  13.538   3.336   1.174
12377SOL    HW139028  13.443   3.322   1.178
12377SOL    HW239029  13.561   3.314   1.084
12378SOL     OW39030   2.543   9.865   8.206
12378SOL    HW139031   2.481   9.935   8.185
12378SOL    HW239032   2.598   9.901   8.275
12379SOL     OW39033   3.201   5.020   3.260
12379SOL    HW139034   3.114   5.049   3.234
12379SOL    HW239035   3.257   5.096   3.246
12380SOL     OW39036   5.382   5.129   0.539
12380SOL    HW139037   5.303   5.135   0.484
12380SOL    HW239038   5.425   5.214   0.528
12381SOL     OW39039   9.785   2.419  14.833
12381SOL    HW139040   9.842   2.493  14.809
12381SOL    HW239041   9.779   2.366  14.754
12382SOL     OW39042  10.593  13.909   7.265
12382SOL    HW139043  10.662  13.946   7.321
12382SOL    HW239044  10.624  13.820   7.246
12383SOL     OW39045   9.234   8.761   3.743
12383SOL    HW139046   9.232   8.805   3.658
12383SOL    HW239047   9.324   8.774   3.775
12384SOL     OW39048   0.457   6.351  10.988
12384SOL    HW139049   0.487   6.305  11.066
12384SOL    HW239050   0.436   6.440  11.018
12385SOL     OW39051   6.282  12.837  12.620
12385SOL    HW139052   6.293  12.865  12.711
12385SOL    HW239053   6.187  12.830  12.609
12386SOL     OW39054   0.268  13.588   6.019
12386SOL    HW139055   0.338  13.652   6.031
12386SOL    HW239056   0.313  13.504   6.008
12387SOL     OW39057   4.178  13.640   9.301
12387SOL    HW139058   4.224  13.724   9.295
12387SOL    HW239059   4.244  13.576   9.276
12388SOL     OW39060   5.714   0.796   3.069
12388SOL    HW139061   5.722   0.886   3.036
12388SOL    HW239062   5.694   0.807   3.162
12389SOL     OW39063   4.627   5.644  14.145
12389SOL    HW139064   4.708   5.691  14.160
12389SOL    HW239065   4.573   5.663  14.221
12390SOL     OW39066   1.932  10.258  10.280
12390SOL    HW139067   1.992  10.184  10.279
12390SOL    HW239068   1.985  10.332  10.251
12391SOL     OW39069   6.547   6.060  11.546
12391SOL    HW139070   6.562   6.154  11.556
12391SOL    HW239071   6.504   6.051  11.461
12392SOL     OW39072   3.480   4.216   3.966
12392SOL    HW139073   3.424   4.293   3.974
12392SOL    HW239074   3.477   4.193   3.873
12393SOL     OW39075   5.252   3.306  13.969
12393SOL    HW139076   5.251   3.389  14.017
12393SOL    HW239077   5.163   3.273  13.976
12394SOL     OW39078   6.142  10.798   0.030
12394SOL    HW139079   6.168  10.741   0.102
12394SOL    HW239080   6.173  10.753  14.824
12395SOL     OW39081   8.291  14.818   2.919
12395SOL    HW139082   8.302   0.033   2.880
12395SOL    HW239083   8.352  14.762   2.870
12396SOL     OW39084   4.854  12.649   7.989
12396SOL    HW139085   4.942  12.689   7.990
12396SOL    HW239086   4.866  12.566   7.944
12397SOL     OW39087  14.034   7.605  12.845
12397SOL    HW139088  13.971   7.605  12.773
12397SOL    HW239089  14.077   7.520  12.839
12398SOL     OW39090  10.046  11.527   3.933
12398SOL    HW139091  10.008  11.565   4.013
12398SOL    HW239092   9.971  11.509   3.877
12399SOL     OW39093  13.811   5.063  12.459
12399SOL    HW139094  13.782   4.985  12.411
12399SOL    HW239095  13.837   5.030  12.545
12400SOL     OW39096   7.590  12.375   1.114
12400SOL    HW139097   7.616  12.339   1.029
12400SOL    HW239098   7.662  12.434   1.137
12401SOL     OW39099   5.072   8.175  13.226
12401SOL    HW139100   5.049   8.104  13.166
12401SOL    HW239101   5.064   8.255  13.173
12402SOL     OW39102   1.208   2.237   2.140
12402SOL    HW139103   1.136   2.267   2.085
12402SOL    HW239104   1.226   2.148   2.109
12403SOL     OW39105   7.423   6.416   9.377
12403SOL    HW139106   7.413   6.360   9.300
12403SOL    HW239107   7.488   6.481   9.351
12404SOL     OW39108  13.714   9.597   5.742
12404SOL    HW139109  13.721   9.605   5.647
12404SOL    HW239110  13.675   9.510   5.755
12405SOL     OW39111   5.997   1.119   5.082
12405SOL    HW139112   5.972   1.138   4.992
12405SOL    HW239113   6.067   1.054   5.074
12406SOL     OW39114  11.349   3.506   1.106
12406SOL    HW139115  11.321   3.417   1.084
12406SOL    HW239116  11.271   3.547   1.143
12407SOL     OW39117   7.355   6.104   0.271
12407SOL    HW139118   7.336   6.038   0.204
12407SOL    HW239119   7.442   6.081   0.303
12408SOL     OW39120   2.614   8.808   3.232
12408SOL    HW139121   2.668   8.835   3.305
12408SOL    HW239122   2.666   8.741   3.187
12409SOL     OW39123  14.116   7.936   2.781
12409SOL    HW139124  14.049   7.882   2.739
12409SOL    HW239125  14.199   7.896   2.755
12410SOL     OW39126  13.880   7.142   1.366
12410SOL    HW139127  13.865   7.214   1.304
12410SOL    HW239128  13.849   7.064   1.320
12411SOL     OW39129   6.280   0.812  10.342
12411SOL    HW139130   6.270   0.791  10.435
12411SOL    HW239131   6.224   0.749  10.297
12412SOL     OW39132   2.552   3.271  12.448
12412SOL    HW139133   2.647   3.285  12.445
12412SOL    HW239134   2.515   3.359  12.459
12413SOL     OW39135  12.882   2.158   8.391
12413SOL    HW139136  12.863   2.204   8.310
12413SOL    HW239137  12.866   2.066   8.371
12414SOL     OW39138   9.575   9.237   8.647
12414SOL    HW139139   9.593   9.191   8.729
12414SOL    HW239140   9.526   9.175   8.594
12415SOL     OW39141  12.435  13.747  12.381
12415SOL    HW139142  12.378  13.739  12.458
12415SOL    HW239143  12.379  13.726  12.307
12416SOL     OW39144   2.219   2.128   7.355
12416SOL    HW139145   2.134   2.098   7.386
12416SOL    HW239146   2.269   2.146   7.435
12417SOL     OW39147   4.824   8.296  14.680
12417SOL    HW139148   4.886   8.281  14.608
12417SOL    HW239149   4.877   8.293  14.759
12418SOL     OW39150   1.514   6.919   8.654
12418SOL    HW139151   1.562   6.920   8.571
12418SOL    HW239152   1.522   7.009   8.687
12419SOL     OW39153   8.242   0.680   3.707
12419SOL    HW139154   8.260   0.601   3.656
12419SOL    HW239155   8.148   0.695   3.697
12420SOL     OW39156   8.615  10.551   1.211
12420SOL    HW139157   8.685  10.501   1.170
12420SOL    HW239158   8.594  10.503   1.292
12421SOL     OW39159   6.582   8.251   8.955
12421SOL    HW139160   6.503   8.221   8.911
12421SOL    HW239161   6.646   8.263   8.884
12422SOL     OW39162   7.830   5.760   0.049
12422SOL    HW139163   7.853   5.743  14.830
12422SOL    HW239164   7.909   5.737   0.098
12423SOL     OW39165   7.714  13.894  11.344
12423SOL    HW139166   7.693  13.807  11.312
12423SOL    HW239167   7.810  13.898  11.341
12424SOL     OW39168  14.264  14.146  13.865
12424SOL    HW139169  14.283  14.197  13.785
12424SOL    HW239170  14.185  14.097  13.844
12425SOL     OW39171   6.190   2.099   4.387
12425SOL    HW139172   6.114   2.041   4.395
12425SOL    HW239173   6.186   2.131   4.297
12426SOL     OW39174   3.666   4.518   9.182
12426SOL    HW139175   3.734   4.469   9.228
12426SOL    HW239176   3.603   4.452   9.154
12427SOL     OW39177  11.259   8.846   3.004
12427SOL    HW139178  11.262   8.785   3.077
12427SOL    HW239179  11.227   8.794   2.930
12428SOL     OW39180   7.394   5.514   0.790
12428SOL    HW139181   7.470   5.538   0.737
12428SOL    HW239182   7.373   5.424   0.763
12429SOL     OW39183   2.034   8.700   8.934
12429SOL    HW139184   2.076   8.775   8.892
12429SOL    HW239185   2.007   8.645   8.861
12430SOL     OW39186   4.800  12.286   4.348
12430SOL    HW139187   4.824  12.338   4.271
12430SOL    HW239188   4.882  12.248   4.378
12431SOL     OW39189  13.056   0.431  12.211
12431SOL    HW139190  13.024   0.341  12.205
12431SOL    HW239191  13.078   0.455  12.121
12432SOL     OW39192   0.463   8.865  11.218
12432SOL    HW139193   0.463   8.769  11.219
12432SOL    HW239194   0.556   8.889  11.221
12433SOL     OW39195   0.594   5.742  14.706
12433SOL    HW139196   0.674   5.693  14.688
12433SOL    HW239197   0.622   5.834  14.705
12434SOL     OW39198   8.265   5.221   6.331
12434SOL    HW139199   8.179   5.257   6.312
12434SOL    HW239200   8.307   5.210   6.246
12435SOL     OW39201   5.841   0.114   1.128
12435SOL    HW139202   5.910   0.049   1.116
12435SOL    HW239203   5.830   0.153   1.041
12436SOL     OW39204   7.224  12.684  13.591
12436SOL    HW139205   7.303  12.656  13.544
12436SOL    HW239206   7.152  12.649  13.539
12437SOL     OW39207   2.651   1.204   0.855
12437SOL    HW139208   2.608   1.282   0.820
12437SOL    HW239209   2.618   1.196   0.944
12438SOL     OW39210   0.238   1.281  13.441
12438SOL    HW139211   0.223   1.340  13.367
12438SOL    HW239212   0.303   1.326  13.495
12439SOL     OW39213   2.241   5.813   3.299
12439SOL    HW139214   2.262   5.888   3.353
12439SOL    HW239215   2.270   5.737   3.350
12440SOL     OW39216   5.534   6.145   5.107
12440SOL    HW139217   5.548   6.092   5.186
12440SOL    HW239218   5.616   6.139   5.059
12441SOL     OW39219   3.878  13.626   2.546
12441SOL    HW139220   3.948  13.614   2.482
12441SOL    HW239221   3.798  13.603   2.498
12442SOL     OW39222  13.756  13.842   5.383
12442SOL    HW139223  13.668  13.879   5.383
12442SOL    HW239224  13.797  13.880   5.305
12443SOL     OW39225  13.268   8.716   6.750
12443SOL    HW139226  13.309   8.646   6.698
12443SOL    HW239227  13.184   8.680   6.776
12444SOL     OW39228   8.578   9.396  12.326
12444SOL    HW139229   8.554   9.389  12.233
12444SOL    HW239230   8.538   9.318  12.366
12445SOL     OW39231  11.852   8.020  14.193
12445SOL    HW139232  11.905   8.054  14.265
12445SOL    HW239233  11.819   8.098  14.148
12446SOL     OW39234   8.113   8.592   4.683
12446SOL    HW139235   8.092   8.533   4.755
12446SOL    HW239236   8.172   8.541   4.627
12447SOL     OW39237  13.408   2.415  10.253
12447SOL    HW139238  13.497   2.429  10.286
12447SOL    HW239239  13.369   2.353  10.314
12448SOL     OW39240  13.418  12.486  10.073
12448SOL    HW139241  13.431  12.553  10.007
12448SOL    HW239242  13.396  12.534  10.153
12449SOL     OW39243   4.171   9.224   9.762
12449SOL    HW139244   4.213   9.283   9.699
12449SOL    HW239245   4.234   9.219   9.834
12450SOL     OW39246  10.520  14.132  14.202
12450SOL    HW139247  10.549  14.104  14.289
12450SOL    HW239248  10.425  14.142  14.209
12451SOL     OW39249   2.358  13.616   0.639
12451SOL    HW139250   2.400  13.602   0.724
12451SOL    HW239251   2.312  13.534   0.620
12452SOL     OW39252  12.597   7.875   1.187
12452SOL    HW139253  12.690   7.872   1.166
12452SOL    HW239254  12.583   7.800   1.245
12453SOL     OW39255   2.265   4.395  13.508
12453SOL    HW139256   2.347   4.385  13.459
12453SOL    HW239257   2.198   4.405  13.441
12454SOL     OW39258  13.435  13.414   6.140
12454SOL    HW139259  13.426  13.384   6.050
12454SOL    HW239260  13.472  13.502   6.132
12455SOL     OW39261   2.356   9.340   0.906
12455SOL    HW139262   2.344   9.398   0.831
12455SOL    HW239263   2.447   9.311   0.900
12456SOL     OW39264   6.798  10.837   8.222
12456SOL    HW139265   6.711  10.801   8.239
12456SOL    HW239266   6.858  10.777   8.268
12457SOL     OW39267  13.286   7.026  12.541
12457SOL    HW139268  13.250   7.096  12.486
12457SOL    HW239269  13.270   6.946  12.492
12458SOL     OW39270   7.622   1.261   6.533
12458SOL    HW139271   7.603   1.171   6.507
12458SOL    HW239272   7.543   1.310   6.508
12459SOL     OW39273   4.829  12.650  13.947
12459SOL    HW139274   4.825  12.626  14.040
12459SOL    HW239275   4.784  12.734  13.942
12460SOL     OW39276   1.732  13.114   9.702
12460SOL    HW139277   1.652  13.095   9.653
12460SOL    HW239278   1.756  13.031   9.742
12461SOL     OW39279  12.186  13.155   1.702
12461SOL    HW139280  12.114  13.194   1.652
12461SOL    HW239281  12.196  13.211   1.778
12462SOL     OW39282  10.174   1.688  12.428
12462SOL    HW139283  10.196   1.616  12.369
12462SOL    HW239284  10.183   1.651  12.516
12463SOL     OW39285  11.569  10.811  11.735
12463SOL    HW139286  11.498  10.747  11.743
12463SOL    HW239287  11.530  10.883  11.685
12464SOL     OW39288   8.957   3.921   9.132
12464SOL    HW139289   8.918   3.889   9.213
12464SOL    HW239290   8.896   3.986   9.100
12465SOL     OW39291  11.340  14.256   5.503
12465SOL    HW139292  11.306  14.332   5.456
12465SOL    HW239293  11.304  14.265   5.591
12466SOL     OW39294   8.787   1.785   0.604
12466SOL    HW139295   8.797   1.861   0.661
12466SOL    HW239296   8.846   1.719   0.640
12467SOL     OW39297  13.087  10.126   6.103
12467SOL    HW139298  13.024  10.144   6.173
12467SOL    HW239299  13.091  10.207   6.053
12468SOL     OW39300  10.054   3.950  11.410
12468SOL    HW139301  10.037   3.975  11.501
12468SOL    HW239302  10.018   3.862  11.402
12469SOL     OW39303   1.251  11.910  11.083
12469SOL    HW139304   1.299  11.989  11.108
12469SOL    HW239305   1.240  11.917  10.989
12470SOL     OW39306  10.971  10.134   5.195
12470SOL    HW139307  11.063  10.140   5.220
12470SOL    HW239308  10.950  10.041   5.205
12471SOL     OW39309   3.525   2.315   7.304
12471SOL    HW139310   3.433   2.314   7.279
12471SOL    HW239311   3.563   2.388   7.255
12472SOL     OW39312   3.623  12.818  14.240
12472SOL    HW139313   3.622  12.777  14.154
12472SOL    HW239314   3.708  12.794  14.277
12473SOL     OW39315   6.652   8.986   1.069
12473SOL    HW139316   6.576   9.041   1.087
12473SOL    HW239317   6.694   9.028   0.994
12474SOL     OW39318  13.320   9.830  13.724
12474SOL    HW139319  13.259   9.823  13.651
12474SOL    HW239320  13.281   9.895  13.782
12475SOL     OW39321   7.930  14.788  10.845
12475SOL    HW139322   7.855  14.808  10.788
12475SOL    HW239323   7.909  14.833  10.927
12476SOL     OW39324   5.036   0.349  11.743
12476SOL    HW139325   5.131   0.342  11.757
12476SOL    HW239326   5.027   0.416  11.676
12477SOL     OW39327   5.698   6.746   5.989
12477SOL    HW139328   5.731   6.741   6.079
12477SOL    HW239329   5.673   6.656   5.967
12478SOL     OW39330   9.046   2.131   3.378
12478SOL    HW139331   9.030   2.211   3.327
12478SOL    HW239332   8.959   2.094   3.392
12479SOL     OW39333   6.375  11.167   4.254
12479SOL    HW139334   6.317  11.094   4.233
12479SOL    HW239335   6.334  11.209   4.330
12480SOL     OW39336  11.302   4.035  10.042
12480SOL    HW139337  11.251   3.985   9.978
12480SOL    HW239338  11.237   4.091  10.085
12481SOL     OW39339   2.581  11.802   0.890
12481SOL    HW139340   2.557  11.870   0.954
12481SOL    HW239341   2.531  11.823   0.812
12482SOL     OW39342   6.636   9.589   7.062
12482SOL    HW139343   6.714   9.626   7.104
12482SOL    HW239344   6.593   9.665   7.023
12483SOL     OW39345   0.703  14.569  13.443
12483SOL    HW139346   0.732  14.513  13.371
12483SOL    HW239347   0.609  14.577  13.431
12484SOL     OW39348  12.432  14.146   0.279
12484SOL    HW139349  12.364  14.079   0.283
12484SOL    HW239350  12.479  14.138   0.362
12485SOL     OW39351  14.775   9.741   2.359
12485SOL    HW139352  14.799   9.675   2.424
12485SOL    HW239353  14.834   9.726   2.286
12486SOL     OW39354   2.187   1.081   8.213
12486SOL    HW139355   2.154   1.044   8.131
12486SOL    HW239356   2.233   1.008   8.256
12487SOL     OW39357   7.059   7.332   0.313
12487SOL    HW139358   7.030   7.363   0.228
12487SOL    HW239359   7.089   7.410   0.359
12488SOL     OW39360   1.578   9.693   8.003
12488SOL    HW139361   1.620   9.757   8.061
12488SOL    HW239362   1.565   9.740   7.921
12489SOL     OW39363   8.182  11.452  11.285
12489SOL    HW139364   8.206  11.364  11.315
12489SOL    HW239365   8.247  11.472  11.217
12490SOL     OW39366   4.264  13.999   8.714
12490SOL    HW139367   4.178  14.025   8.747
12490SOL    HW239368   4.296  13.935   8.778
12491SOL     OW39369   8.296  12.526  13.550
12491SOL    HW139370   8.328  12.562  13.467
12491SOL    HW239371   8.225  12.467  13.525
12492SOL     OW39372   9.850   3.651  13.092
12492SOL    HW139373   9.782   3.696  13.144
12492SOL    HW239374   9.807   3.572  13.060
12493SOL     OW39375   7.709  11.872   3.756
12493SOL    HW139376   7.685  11.906   3.843
12493SOL    HW239377   7.728  11.950   3.705
12494SOL     OW39378   3.704  13.606  12.514
12494SOL    HW139379   3.670  13.590  12.426
12494SOL    HW239380   3.742  13.522  12.540
12495SOL     OW39381  14.180   7.384  12.815
12495SOL    HW139382  14.227   7.368  12.734
12495SOL    HW239383  14.241   7.356  12.884
12496SOL     OW39384  10.729  10.354   6.904
12496SOL    HW139385  10.717  10.310   6.988
12496SOL    HW239386  10.823  10.370   6.898
12497SOL     OW39387   4.367   2.545   5.359
12497SOL    HW139388   4.460   2.530   5.374
12497SOL    HW239389   4.359   2.552   5.264
12498SOL     OW39390  13.975  14.160   9.636
12498SOL    HW139391  14.004  14.076   9.671
12498SOL    HW239392  13.977  14.219   9.711
12499SOL     OW39393  12.812   2.883   9.673
12499SOL    HW139394  12.841   2.932   9.750
12499SOL    HW239395  12.717   2.876   9.683
12500SOL     OW39396   2.774   4.328  11.448
12500SOL    HW139397   2.835   4.261  11.417
12500SOL    HW239398   2.828   4.386  11.502
12501SOL     OW39399   7.014   8.340   2.762
12501SOL    HW139400   7.088   8.304   2.714
12501SOL    HW239401   7.021   8.435   2.750
12502SOL     OW39402   7.431   7.479  13.118
12502SOL    HW139403   7.418   7.469  13.212
12502SOL    HW239404   7.371   7.416  13.078
12503SOL     OW39405   2.653   8.957   3.666
12503SOL    HW139406   2.654   9.048   3.698
12503SOL    HW239407   2.719   8.913   3.719
12504SOL     OW39408   4.369  11.160   5.296
12504SOL    HW139409   4.356  11.154   5.201
12504SOL    HW239410   4.456  11.125   5.311
12505SOL     OW39411  10.097   2.732  10.175
12505SOL    HW139412  10.140   2.652  10.205
12505SOL    HW239413  10.156   2.768  10.109
12506SOL     OW39414  10.144  14.062   2.226
12506SOL    HW139415  10.136  13.998   2.296
12506SOL    HW239416  10.238  14.073   2.214
12507SOL     OW39417  12.193  14.177   1.175
12507SOL    HW139418  12.111  14.162   1.223
12507SOL    HW239419  12.219  14.090   1.146
12508SOL     OW39420  10.611  14.100   2.902
12508SOL    HW139421  10.528  14.108   2.854
12508SOL    HW239422  10.678  14.105   2.834
12509SOL     OW39423   9.743   5.609   1.568
12509SOL    HW139424   9.784   5.549   1.630
12509SOL    HW239425   9.655   5.624   1.604
12510SOL     OW39426   3.876   8.182  13.554
12510SOL    HW139427   3.912   8.244  13.490
12510SOL    HW239428   3.786   8.167  13.525
12511SOL     OW39429   1.460   4.059  10.296
12511SOL    HW139430   1.544   4.090  10.262
12511SOL    HW239431   1.465   4.076  10.390
12512SOL     OW39432  13.558   4.769   2.790
12512SOL    HW139433  13.622   4.764   2.860
12512SOL    HW239434  13.475   4.743   2.831
12513SOL     OW39435  11.182   1.141  10.140
12513SOL    HW139436  11.230   1.180  10.212
12513SOL    HW239437  11.249   1.107  10.081
12514SOL     OW39438  10.282   7.069  14.000
12514SOL    HW139439  10.193   7.056  13.967
12514SOL    HW239440  10.338   7.024  13.937
12515SOL     OW39441  13.457   2.001  14.083
12515SOL    HW139442  13.542   2.012  14.125
12515SOL    HW239443  13.412   2.085  14.097
12516SOL     OW39444   4.811   9.431   0.753
12516SOL    HW139445   4.800   9.337   0.768
12516SOL    HW239446   4.730   9.460   0.711
12517SOL     OW39447   3.507   9.171  14.710
12517SOL    HW139448   3.474   9.098  14.657
12517SOL    HW239449   3.586   9.137  14.751
12518SOL     OW39450   3.104   3.624   5.680
12518SOL    HW139451   3.012   3.603   5.664
12518SOL    HW239452   3.129   3.569   5.755
12519SOL     OW39453  12.187   3.069   9.636
12519SOL    HW139454  12.167   2.981   9.669
12519SOL    HW239455  12.104   3.115   9.641
12520SOL     OW39456   2.583  14.419   5.971
12520SOL    HW139457   2.501  14.434   6.017
12520SOL    HW239458   2.560  14.363   5.897
12521SOL     OW39459  14.139   3.348   1.642
12521SOL    HW139460  14.159   3.442   1.639
12521SOL    HW239461  14.224   3.306   1.629
12522SOL     OW39462  10.621   6.329   5.533
12522SOL    HW139463  10.666   6.247   5.552
12522SOL    HW239464  10.556   6.337   5.603
12523SOL     OW39465   1.419  11.581  10.288
12523SOL    HW139466   1.426  11.656  10.347
12523SOL    HW239467   1.335  11.541  10.308
12524SOL     OW39468   6.455   8.559  12.638
12524SOL    HW139469   6.480   8.623  12.571
12524SOL    HW239470   6.480   8.474  12.600
12525SOL     OW39471  12.997   0.979   8.712
12525SOL    HW139472  13.005   0.986   8.807
12525SOL    HW239473  12.962   0.891   8.698
12526SOL     OW39474   9.756   1.245  13.089
12526SOL    HW139475   9.793   1.263  13.002
12526SOL    HW239476   9.832   1.221  13.142
12527SOL     OW39477  13.183   7.832  11.576
12527SOL    HW139478  13.236   7.767  11.622
12527SOL    HW239479  13.098   7.830  11.621
12528SOL     OW39480   5.251   1.521  14.424
12528SOL    HW139481   5.305   1.523  14.502
12528SOL    HW239482   5.180   1.461  14.445
12529SOL     OW39483   9.680  11.410  10.732
12529SOL    HW139484   9.634  11.471  10.791
12529SOL    HW239485   9.610  11.366  10.685
12530SOL     OW39486   3.922  13.388  14.155
12530SOL    HW139487   3.945  13.385  14.062
12530SOL    HW239488   3.941  13.300  14.187
12531SOL     OW39489   4.632   8.374   7.014
12531SOL    HW139490   4.656   8.458   7.053
12531SOL    HW239491   4.626   8.392   6.920
12532SOL     OW39492   2.905   4.280  14.864
12532SOL    HW139493   2.856   4.200   0.013
12532SOL    HW239494   2.886   4.339   0.064
12533SOL     OW39495   3.698   6.128   3.484
12533SOL    HW139496   3.790   6.106   3.468
12533SOL    HW239497   3.697   6.224   3.479
12534SOL     OW39498   5.319   4.204   1.357
12534SOL    HW139499   5.392   4.264   1.371
12534SOL    HW239500   5.319   4.148   1.434
12535SOL     OW39501  10.706   4.095   7.774
12535SOL    HW139502  10.764   4.170   7.781
12535SOL    HW239503  10.623   4.125   7.810
12536SOL     OW39504   1.682   3.889  12.309
12536SOL    HW139505   1.651   3.823  12.247
12536SOL    HW239506   1.717   3.959  12.255
12537SOL     OW39507   1.609  11.801   8.041
12537SOL    HW139508   1.606  11.855   8.119
12537SOL    HW239509   1.680  11.838   7.989
12538SOL     OW39510   4.219   9.926   1.242
12538SOL    HW139511   4.175  10.003   1.277
12538SOL    HW239512   4.299   9.960   1.200
12539SOL     OW39513   8.484  12.316   2.901
12539SOL    HW139514   8.503  12.223   2.914
12539SOL    HW239515   8.483  12.327   2.806
12540SOL     OW39516   3.208  13.847   6.375
12540SOL    HW139517   3.282  13.787   6.382
12540SOL    HW239518   3.171  13.850   6.463
12541SOL     OW39519  13.446   1.964   1.319
12541SOL    HW139520  13.406   1.932   1.399
12541SOL    HW239521  13.504   1.893   1.291
12542SOL     OW39522   9.084  10.318   4.362
12542SOL    HW139523   9.007  10.371   4.341
12542SOL    HW239524   9.069  10.235   4.317
12543SOL     OW39525   5.011  10.998   9.897
12543SOL    HW139526   4.982  11.062   9.962
12543SOL    HW239527   5.095  10.966   9.929
12544SOL     OW39528   4.777   4.971   6.874
12544SOL    HW139529   4.781   4.993   6.781
12544SOL    HW239530   4.863   4.933   6.893
12545SOL     OW39531   9.837  11.231   7.301
12545SOL    HW139532   9.925  11.223   7.264
12545SOL    HW239533   9.779  11.193   7.235
12546SOL     OW39534  14.860   2.761   9.730
12546SOL    HW139535   0.059   2.816   9.697
12546SOL    HW239536  14.803   2.747   9.655
12547SOL     OW39537   9.852  10.593  10.588
12547SOL    HW139538   9.804  10.572  10.508
12547SOL    HW239539   9.943  10.570  10.569
12548SOL     OW39540   9.545   4.397  11.702
12548SOL    HW139541   9.537   4.404  11.797
12548SOL    HW239542   9.600   4.319  11.689
12549SOL     OW39543  13.536   1.780   9.165
12549SOL    HW139544  13.480   1.839   9.215
12549SOL    HW239545  13.563   1.713   9.228
12550SOL     OW39546   1.124   4.953   2.916
12550SOL    HW139547   1.130   4.998   2.831
12550SOL    HW239548   1.089   5.019   2.976
12551SOL     OW39549   4.315  11.111  11.410
12551SOL    HW139550   4.405  11.079  11.404
12551SOL    HW239551   4.261  11.034  11.392
12552SOL     OW39552  10.050   3.025   1.990
12552SOL    HW139553  10.030   2.955   1.928
12552SOL    HW239554  10.145   3.025   1.997
12553SOL     OW39555   4.075  13.548   3.253
12553SOL    HW139556   4.139  13.592   3.308
12553SOL    HW239557   4.078  13.456   3.281
12554SOL     OW39558  13.770   8.612   9.085
12554SOL    HW139559  13.860   8.618   9.055
12554SOL    HW239560  13.774   8.561   9.166
12555SOL     OW39561  10.179   7.613   4.214
12555SOL    HW139562  10.194   7.655   4.299
12555SOL    HW239563  10.265   7.612   4.172
12556SOL     OW39564   8.975   4.917  11.734
12556SOL    HW139565   8.904   4.953  11.787
12556SOL    HW239566   8.981   4.825  11.759
12557SOL     OW39567   9.835   9.136  11.314
12557SOL    HW139568   9.802   9.070  11.253
12557SOL    HW239569   9.757   9.181  11.346
12558SOL     OW39570   8.043   8.810   3.221
12558SOL    HW139571   8.049   8.721   3.187
12558SOL    HW239572   8.015   8.799   3.312
12559SOL     OW39573   9.098  13.420   1.586
12559SOL    HW139574   9.121  13.492   1.644
12559SOL    HW239575   9.065  13.462   1.506
12560SOL     OW39576   2.364  13.015   5.064
12560SOL    HW139577   2.282  13.063   5.071
12560SOL    HW239578   2.360  12.951   5.136
12561SOL     OW39579  11.430  10.052   7.440
12561SOL    HW139580  11.473  10.129   7.402
12561SOL    HW239581  11.496   9.983   7.433
12562SOL     OW39582  10.245  12.853   0.704
12562SOL    HW139583  10.230  12.927   0.763
12562SOL    HW239584  10.259  12.778   0.761
12563SOL     OW39585   4.668  10.305  10.527
12563SOL    HW139586   4.587  10.282  10.483
12563SOL    HW239587   4.685  10.396  10.502
12564SOL     OW39588  12.438   6.715  13.373
12564SOL    HW139589  12.397   6.698  13.288
12564SOL    HW239590  12.386   6.666  13.436
12565SOL     OW39591   6.629  12.490  13.367
12565SOL    HW139592   6.541  12.455  13.384
12565SOL    HW239593   6.615  12.558  13.301
12566SOL     OW39594   4.897   0.244   4.742
12566SOL    HW139595   4.889   0.190   4.663
12566SOL    HW239596   4.828   0.211   4.800
12567SOL     OW39597   0.668  10.987   6.736
12567SOL    HW139598   0.574  10.975   6.730
12567SOL    HW239599   0.705  10.900   6.716
12568SOL     OW39600   6.944   8.604   9.599
12568SOL    HW139601   6.906   8.518   9.613
12568SOL    HW239602   7.009   8.591   9.530
12569SOL     OW39603   3.982   1.067   2.342
12569SOL    HW139604   3.991   1.027   2.429
12569SOL    HW239605   3.888   1.078   2.330
12570SOL     OW39606  10.475  10.740   0.687
12570SOL    HW139607  10.478  10.821   0.636
12570SOL    HW239608  10.411  10.759   0.756
12571SOL     OW39609   6.628   5.942  13.840
12571SOL    HW139610   6.697   5.917  13.901
12571SOL    HW239611   6.607   6.033  13.865
12572SOL     OW39612   8.067  13.889   0.744
12572SOL    HW139613   8.142  13.943   0.766
12572SOL    HW239614   8.018  13.881   0.826
12573SOL     OW39615  12.442   5.060   2.685
12573SOL    HW139616  12.352   5.086   2.702
12573SOL    HW239617  12.439   5.015   2.600
12574SOL     OW39618   5.856   7.024   5.704
12574SOL    HW139619   5.836   7.083   5.631
12574SOL    HW239620   5.830   7.072   5.782
12575SOL     OW39621  10.801   5.987   0.573
12575SOL    HW139622  10.754   6.060   0.614
12575SOL    HW239623  10.733   5.920   0.560
12576SOL     OW39624  10.023   5.342  10.703
12576SOL    HW139625   9.939   5.381  10.678
12576SOL    HW239626  10.004   5.248  10.706
12577SOL     OW39627   0.938   1.253   9.486
12577SOL    HW139628   0.950   1.166   9.447
12577SOL    HW239629   0.881   1.237   9.562
12578SOL     OW39630   8.312   8.578  13.271
12578SOL    HW139631   8.406   8.592  13.268
12578SOL    HW239632   8.300   8.486  13.245
12579SOL     OW39633   1.349   6.396   8.793
12579SOL    HW139634   1.407   6.432   8.725
12579SOL    HW239635   1.407   6.381   8.868
12580SOL     OW39636   1.154  10.355   7.928
12580SOL    HW139637   1.106  10.405   7.862
12580SOL    HW239638   1.149  10.409   8.007
12581SOL     OW39639  10.571  12.099   1.938
12581SOL    HW139640  10.500  12.034   1.942
12581SOL    HW239641  10.646  12.050   1.906
12582SOL     OW39642   4.377  14.022   5.027
12582SOL    HW139643   4.368  14.043   5.120
12582SOL    HW239644   4.352  13.930   5.021
12583SOL     OW39645   0.661  11.794   7.367
12583SOL    HW139646   0.755  11.812   7.376
12583SOL    HW239647   0.620  11.880   7.369
12584SOL     OW39648   7.692  12.133  13.042
12584SOL    HW139649   7.730  12.215  13.075
12584SOL    HW239650   7.751  12.106  12.971
12585SOL     OW39651   6.015   4.517   6.150
12585SOL    HW139652   6.060   4.600   6.167
12585SOL    HW239653   5.923   4.542   6.140
12586SOL     OW39654   8.772   9.228   1.679
12586SOL    HW139655   8.792   9.233   1.772
12586SOL    HW239656   8.809   9.144   1.651
12587SOL     OW39657   3.051   4.296   9.885
12587SOL    HW139658   3.043   4.226   9.950
12587SOL    HW239659   2.965   4.300   9.844
12588SOL     OW39660   9.060  14.405   7.222
12588SOL    HW139661   9.041  14.315   7.246
12588SOL    HW239662   9.142  14.425   7.268
12589SOL     OW39663  11.562   3.060   8.932
12589SOL    HW139664  11.656   3.060   8.952
12589SOL    HW239665  11.527   3.132   8.985
12590SOL     OW39666   3.557   8.800   6.602
12590SOL    HW139667   3.610   8.777   6.525
12590SOL    HW239668   3.503   8.722   6.617
12591SOL     OW39669  10.992  12.216   8.174
12591SOL    HW139670  10.989  12.309   8.152
12591SOL    HW239671  10.943  12.209   8.256
12592SOL     OW39672   9.705   1.686   7.854
12592SOL    HW139673   9.761   1.762   7.869
12592SOL    HW239674   9.766   1.616   7.830
12593SOL     OW39675   0.935   6.062   4.639
12593SOL    HW139676   0.931   5.970   4.664
12593SOL    HW239677   0.973   6.062   4.551
12594SOL     OW39678   6.933   8.049   9.170
12594SOL    HW139679   6.847   8.034   9.131
12594SOL    HW239680   6.975   7.963   9.168
12595SOL     OW39681   7.934  12.926   2.559
12595SOL    HW139682   7.896  12.961   2.640
12595SOL    HW239683   7.912  12.833   2.562
12596SOL     OW39684  14.160   8.022   2.135
12596SOL    HW139685  14.094   7.970   2.181
12596SOL    HW239686  14.214   8.059   2.204
12597SOL     OW39687   4.271   9.586   0.431
12597SOL    HW139688   4.275   9.507   0.377
12597SOL    HW239689   4.254   9.657   0.369
12598SOL     OW39690   0.823   9.608   3.253
12598SOL    HW139691   0.866   9.629   3.170
12598SOL    HW239692   0.788   9.520   3.241
12599SOL     OW39693   5.596  10.549   4.269
12599SOL    HW139694   5.630  10.574   4.183
12599SOL    HW239695   5.617  10.624   4.325
12600SOL     OW39696  14.073   8.561   3.311
12600SOL    HW139697  14.041   8.517   3.233
12600SOL    HW239698  14.100   8.490   3.369
12601SOL     OW39699   8.968   6.615  12.645
12601SOL    HW139700   8.966   6.577  12.558
12601SOL    HW239701   8.936   6.546  12.703
12602SOL     OW39702   8.507   9.407  13.390
12602SOL    HW139703   8.591   9.446  13.411
12602SOL    HW239704   8.490   9.433  13.300
12603SOL     OW39705  14.201   5.186   9.112
12603SOL    HW139706  14.243   5.137   9.042
12603SOL    HW239707  14.140   5.124   9.152
12604SOL     OW39708   0.316  14.492  13.747
12604SOL    HW139709   0.297  14.579  13.782
12604SOL    HW239710   0.299  14.433  13.821
12605SOL     OW39711   9.836   7.038   0.001
12605SOL    HW139712   9.863   6.966   0.058
12605SOL    HW239713   9.870   7.015  14.788
12606SOL     OW39714   1.296  12.881   5.902
12606SOL    HW139715   1.290  12.879   5.807
12606SOL    HW239716   1.208  12.908   5.930
12607SOL     OW39717   3.460  11.389   0.598
12607SOL    HW139718   3.530  11.323   0.596
12607SOL    HW239719   3.379  11.338   0.595
12608SOL     OW39720   8.640   5.988   2.767
12608SOL    HW139721   8.587   6.034   2.702
12608SOL    HW239722   8.596   6.005   2.850
12609SOL     OW39723   2.177  10.801   5.762
12609SOL    HW139724   2.164  10.824   5.854
12609SOL    HW239725   2.271  10.814   5.747
12610SOL     OW39726  11.370   8.122   5.524
12610SOL    HW139727  11.319   8.042   5.523
12610SOL    HW239728  11.448   8.100   5.575
12611SOL     OW39729  13.836   3.136   1.197
12611SOL    HW139730  13.908   3.077   1.221
12611SOL    HW239731  13.871   3.224   1.212
12612SOL     OW39732   8.592  10.347   4.641
12612SOL    HW139733   8.636  10.296   4.709
12612SOL    HW239734   8.594  10.437   4.675
12613SOL     OW39735  14.539   2.669   8.115
12613SOL    HW139736  14.479   2.597   8.135
12613SOL    HW239737  14.499   2.713   8.040
12614SOL     OW39738   8.473   5.918   1.848
12614SOL    HW139739   8.471   5.872   1.764
12614SOL    HW239740   8.385   5.955   1.856
12615SOL     OW39741   0.790   1.147  14.188
12615SOL    HW139742   0.865   1.089  14.170
12615SOL    HW239743   0.824   1.235  14.171
12616SOL     OW39744   9.963   5.367  12.321
12616SOL    HW139745   9.932   5.451  12.355
12616SOL    HW239746  10.025   5.391  12.252
12617SOL     OW39747  13.740  11.798   8.607
12617SOL    HW139748  13.783  11.884   8.612
12617SOL    HW239749  13.665  11.805   8.665
12618SOL     OW39750   2.858   8.311   7.914
12618SOL    HW139751   2.787   8.287   7.854
12618SOL    HW239752   2.930   8.338   7.857
12619SOL     OW39753   5.307   8.102  12.644
12619SOL    HW139754   5.393   8.086  12.605
12619SOL    HW239755   5.281   8.017  12.681
12620SOL     OW39756   4.924   3.018   6.275
12620SOL    HW139757   4.884   2.950   6.329
12620SOL    HW239758   4.978   3.069   6.335
12621SOL     OW39759  14.736   3.497   3.285
12621SOL    HW139760  14.810   3.437   3.277
12621SOL    HW239761  14.659   3.439   3.287
12622SOL     OW39762   5.384   2.224  12.493
12622SOL    HW139763   5.385   2.222  12.589
12622SOL    HW239764   5.292   2.240  12.471
12623SOL     OW39765   1.191   7.243   8.292
12623SOL    HW139766   1.191   7.322   8.346
12623SOL    HW239767   1.098   7.218   8.287
12624SOL     OW39768   5.570   6.229  10.082
12624SOL    HW139769   5.635   6.190  10.025
12624SOL    HW239770   5.531   6.299  10.029
12625SOL     OW39771  11.047   0.168   4.824
12625SOL    HW139772  11.065   0.261   4.837
12625SOL    HW239773  11.105   0.142   4.753
12626SOL     OW39774  14.222   8.769   6.688
12626SOL    HW139775  14.147   8.763   6.629
12626SOL    HW239776  14.261   8.855   6.668
12627SOL     OW39777   1.292   5.720  10.383
12627SOL    HW139778   1.282   5.792  10.321
12627SOL    HW239779   1.386   5.708  10.391
12628SOL     OW39780   0.289  12.972   4.329
12628SOL    HW139781   0.215  12.977   4.390
12628SOL    HW239782   0.252  12.935   4.249
12629SOL     OW39783   4.010   0.077  10.443
12629SOL    HW139784   4.046  14.864  10.418
12629SOL    HW239785   4.025   0.082  10.537
12630SOL     OW39786  13.052   7.353  12.631
12630SOL    HW139787  13.004   7.436  12.628
12630SOL    HW239788  13.100   7.356  12.714
12631SOL     OW39789  14.732   5.575   5.365
12631SOL    HW139790  14.711   5.486   5.395
12631SOL    HW239791  14.648   5.620   5.361
12632SOL     OW39792   4.767   8.793   9.153
12632SOL    HW139793   4.738   8.787   9.244
12632SOL    HW239794   4.838   8.729   9.146
12633SOL     OW39795   3.188   3.045  11.770
12633SOL    HW139796   3.267   3.085  11.734
12633SOL    HW239797   3.179   3.083  11.856
12634SOL     OW39798   7.013   2.629   6.378
12634SOL    HW139799   7.066   2.601   6.453
12634SOL    HW239800   7.046   2.716   6.357
12635SOL     OW39801   4.735   2.735   9.953
12635SOL    HW139802   4.646   2.711   9.979
12635SOL    HW239803   4.789   2.710  10.028
12636SOL     OW39804  10.787   5.904   1.352
12636SOL    HW139805  10.824   5.889   1.265
12636SOL    HW239806  10.860   5.888   1.412
12637SOL     OW39807  11.431   7.038   2.441
12637SOL    HW139808  11.394   7.015   2.356
12637SOL    HW239809  11.491   7.111   2.422
12638SOL     OW39810  14.323  14.292  13.634
12638SOL    HW139811  14.387  14.360  13.614
12638SOL    HW239812  14.282  14.272  13.550
12639SOL     OW39813  14.828  12.117   0.280
12639SOL    HW139814   0.050  12.114   0.292
12639SOL    HW239815  14.798  12.184   0.342
12640SOL     OW39816   1.520   8.353  10.947
12640SOL    HW139817   1.517   8.446  10.969
12640SOL    HW239818   1.455   8.313  11.005
12641SOL     OW39819   0.463   2.471   8.231
12641SOL    HW139820   0.370   2.451   8.228
12641SOL    HW239821   0.506   2.386   8.219
12642SOL     OW39822  13.900  12.847   9.778
12642SOL    HW139823  13.964  12.864   9.709
12642SOL    HW239824  13.890  12.751   9.778
12643SOL     OW39825   1.893   4.582   3.916
12643SOL    HW139826   1.815   4.534   3.944
12643SOL    HW239827   1.888   4.666   3.963
12644SOL     OW39828   1.321   9.653   8.052
12644SOL    HW139829   1.316   9.690   7.964
12644SOL    HW239830   1.414   9.659   8.075
12645SOL     OW39831   9.056  14.606  10.726
12645SOL    HW139832   9.085  14.545  10.793
12645SOL    HW239833   9.036  14.551  10.650
12646SOL     OW39834   7.032   4.837  12.223
12646SOL    HW139835   7.085   4.792  12.289
12646SOL    HW239836   7.094   4.893  12.177
12647SOL     OW39837   6.185  13.678   0.285
12647SOL    HW139838   6.252  13.740   0.312
12647SOL    HW239839   6.104  13.730   0.282
12648SOL     OW39840   3.190   4.690   6.478
12648SOL    HW139841   3.199   4.601   6.513
12648SOL    HW239842   3.241   4.744   6.538
12649SOL     OW39843   7.918   7.064   1.736
12649SOL    HW139844   7.921   7.014   1.818
12649SOL    HW239845   7.849   7.022   1.684
12650SOL     OW39846   6.878   0.043  11.878
12650SOL    HW139847   6.913   0.068  11.793
12650SOL    HW239848   6.917  14.830  11.897
12651SOL     OW39849   3.887   8.631   5.874
12651SOL    HW139850   3.840   8.712   5.855
12651SOL    HW239851   3.974   8.659   5.902
12652SOL     OW39852   8.394   5.284   3.998
12652SOL    HW139853   8.323   5.297   4.061
12652SOL    HW239854   8.473   5.307   4.046
12653SOL     OW39855  13.469  14.242  11.330
12653SOL    HW139856  13.439  14.326  11.295
12653SOL    HW239857  13.558  14.260  11.361
12654SOL     OW39858   3.162   5.774  10.908
12654SOL    HW139859   3.099   5.788  10.837
12654SOL    HW239860   3.240   5.740  10.864
12655SOL     OW39861  10.099   0.311  13.893
12655SOL    HW139862  10.081   0.397  13.856
12655SOL    HW239863  10.068   0.249  13.827
12656SOL     OW39864   7.445   9.539   0.402
12656SOL    HW139865   7.463   9.545   0.496
12656SOL    HW239866   7.367   9.484   0.395
12657SOL     OW39867  13.845   5.337   3.150
12657SOL    HW139868  13.920   5.352   3.208
12657SOL    HW239869  13.883   5.310   3.067
12658SOL     OW39870   2.013   9.614   2.723
12658SOL    HW139871   2.033   9.695   2.769
12658SOL    HW239872   1.980   9.555   2.792
12659SOL     OW39873   1.391  12.438   9.389
12659SOL    HW139874   1.423  12.356   9.351
12659SOL    HW239875   1.306  12.452   9.349
12660SOL     OW39876   0.410  11.760   5.918
12660SOL    HW139877   0.371  11.683   5.877
12660SOL    HW239878   0.488  11.778   5.865
12661SOL     OW39879   5.508  10.206   5.939
12661SOL    HW139880   5.528  10.122   5.980
12661SOL    HW239881   5.498  10.267   6.012
12662SOL     OW39882  14.240   5.127  10.188
12662SOL    HW139883  14.310   5.063  10.178
12662SOL    HW239884  14.224   5.160  10.099
12663SOL     OW39885   1.768  12.832   6.462
12663SOL    HW139886   1.703  12.815   6.393
12663SOL    HW239887   1.715  12.857   6.538
12664SOL     OW39888   3.213   0.182  12.273
12664SOL    HW139889   3.137   0.221  12.316
12664SOL    HW239890   3.288   0.228  12.311
12665SOL     OW39891   9.592   4.657   5.073
12665SOL    HW139892   9.580   4.568   5.039
12665SOL    HW239893   9.668   4.650   5.131
12666SOL     OW39894  14.548   2.915  13.800
12666SOL    HW139895  14.567   2.853  13.730
12666SOL    HW239896  14.453   2.908  13.813
12667SOL     OW39897   0.351  10.548   3.154
12667SOL    HW139898   0.262  10.561   3.121
12667SOL    HW239899   0.392  10.490   3.090
12668SOL     OW39900   7.035  14.773  10.392
12668SOL    HW139901   7.127  14.775  10.366
12668SOL    HW239902   7.012  14.680  10.395
12669SOL     OW39903   5.664  13.713   4.796
12669SOL    HW139904   5.681  13.799   4.757
12669SOL    HW239905   5.645  13.732   4.888
12670SOL     OW39906  14.376   6.172   3.272
12670SOL    HW139907  14.432   6.094   3.276
12670SOL    HW239908  14.403   6.216   3.191
12671SOL     OW39909  14.506  10.510   6.248
12671SOL    HW139910  14.451  10.513   6.170
12671SOL    HW239911  14.468  10.441   6.302
12672SOL     OW39912  10.821  12.403   0.942
12672SOL    HW139913  10.896  12.344   0.931
12672SOL    HW239914  10.747  12.355   0.904
12673SOL     OW39915   2.983   1.007  13.157
12673SOL    HW139916   2.972   1.101  13.165
12673SOL    HW239917   3.071   0.990  13.189
12674SOL     OW39918   3.129  12.616  13.079
12674SOL    HW139919   3.063  12.548  13.064
12674SOL    HW239920   3.091  12.671  13.148
12675SOL     OW39921  14.687   7.338   1.132
12675SOL    HW139922  14.688   7.265   1.071
12675SOL    HW239923  14.652   7.412   1.081
12676SOL     OW39924   8.774   5.719   5.817
12676SOL    HW139925   8.801   5.689   5.730
12676SOL    HW239926   8.692   5.672   5.834
12677SOL     OW39927   1.053   7.449   1.695
12677SOL    HW139928   0.966   7.456   1.656
12677SOL    HW239929   1.075   7.356   1.688
12678SOL     OW39930  11.412   1.369   2.811
12678SOL    HW139931  11.497   1.413   2.809
12678SOL    HW239932  11.350   1.436   2.782
12679SOL     OW39933  10.955   9.597  14.472
12679SOL    HW139934  11.009   9.597  14.393
12679SOL    HW239935  10.948   9.689  14.497
12680SOL     OW39936   6.655   5.360   4.672
12680SOL    HW139937   6.673   5.375   4.765
12680SOL    HW239938   6.737   5.326   4.637
12681SOL     OW39939   6.621  14.811   1.060
12681SOL    HW139940   6.542  14.855   1.092
12681SOL    HW239941   6.677  14.803   1.137
12682SOL     OW39942  11.975   2.835  12.231
12682SOL    HW139943  11.994   2.743  12.249
12682SOL    HW239944  11.879   2.841  12.233
12683SOL     OW39945  11.660   7.973   0.488
12683SOL    HW139946  11.745   7.946   0.522
12683SOL    HW239947  11.631   7.900   0.433
12684SOL     OW39948   0.114  12.313  14.046
12684SOL    HW139949   0.027  12.272  14.047
12684SOL    HW239950   0.107  12.385  13.984
12685SOL     OW39951   2.515  13.318   5.570
12685SOL    HW139952   2.593  13.333   5.624
12685SOL    HW239953   2.549  13.289   5.486
12686SOL     OW39954   5.630   6.348  12.574
12686SOL    HW139955   5.674   6.431  12.558
12686SOL    HW239956   5.695   6.296  12.622
12687SOL     OW39957  12.473   7.833   2.768
12687SOL    HW139958  12.502   7.901   2.707
12687SOL    HW239959  12.548   7.821   2.827
12688SOL     OW39960  12.877   6.873   8.459
12688SOL    HW139961  12.882   6.817   8.382
12688SOL    HW239962  12.841   6.817   8.528
12689SOL     OW39963  14.655  11.571   9.747
12689SOL    HW139964  14.625  11.488   9.784
12689SOL    HW239965  14.583  11.632   9.761
12690SOL     OW39966   1.515   6.261   3.985
12690SOL    HW139967   1.519   6.339   4.041
12690SOL    HW239968   1.497   6.296   3.898
12691SOL     OW39969   8.832  14.805   2.993
12691SOL    HW139970   8.883  14.818   2.913
12691SOL    HW239971   8.760  14.747   2.967
12692SOL     OW39972   9.004   7.784  10.133
12692SOL    HW139973   8.988   7.879  10.135
12692SOL    HW239974   8.964   7.756  10.050
12693SOL     OW39975   7.403  10.671  13.246
12693SOL    HW139976   7.365  10.623  13.172
12693SOL    HW239977   7.396  10.611  13.320
12694SOL     OW39978   8.319   1.687   4.868
12694SOL    HW139979   8.257   1.691   4.795
12694SOL    HW239980   8.263   1.681   4.946
12695SOL     OW39981   0.400  12.225   0.513
12695SOL    HW139982   0.461  12.272   0.569
12695SOL    HW239983   0.351  12.168   0.574
12696SOL     OW39984   1.507   8.777  10.518
12696SOL    HW139985   1.435   8.840  10.530
12696SOL    HW239986   1.472   8.713  10.456
12697SOL     OW39987  10.978  11.298   6.364
12697SOL    HW139988  11.010  11.232   6.302
12697SOL    HW239989  10.891  11.320   6.332
12698SOL     OW39990   6.997   0.835   7.205
12698SOL    HW139991   6.965   0.864   7.291
12698SOL    HW239992   6.976   0.908   7.147
12699SOL     OW39993   6.050   6.858   2.625
12699SOL    HW139994   6.026   6.904   2.705
12699SOL    HW239995   5.966   6.834   2.585
12700SOL     OW39996  10.628   7.320   1.427
12700SOL    HW139997  10.547   7.372   1.430
12700SOL    HW239998  10.601   7.232   1.453
12701SOL     OW39999   7.939  11.340  11.702
12701SOL    HW140000   7.979  11.419  11.666
12701SOL    HW240001   7.989  11.268  11.662
12702SOL     OW40002  13.858  14.338  13.247
12702SOL    HW140003  13.932  14.343  13.187
12702SOL    HW240004  13.801  14.410  13.221
12703SOL     OW40005  11.029   1.547   1.052
12703SOL    HW140006  10.992   1.536   1.139
12703SOL    HW240007  11.081   1.468   1.037
12704SOL     OW40008  10.813   8.449  13.187
12704SOL    HW140009  10.870   8.372  13.186
12704SOL    HW240010  10.854   8.508  13.251
12705SOL     OW40011   5.993  10.688  11.976
12705SOL    HW140012   5.926  10.748  11.943
12705SOL    HW240013   6.025  10.728  12.057
12706SOL     OW40014   8.975  13.257   3.673
12706SOL    HW140015   9.068  13.255   3.649
12706SOL    HW240016   8.942  13.171   3.648
12707SOL     OW40017  13.357   3.449   6.660
12707SOL    HW140018  13.418   3.398   6.607
12707SOL    HW240019  13.328   3.521   6.602
12708SOL     OW40020  14.536   5.687   0.721
12708SOL    HW140021  14.592   5.679   0.643
12708SOL    HW240022  14.563   5.770   0.761
12709SOL     OW40023  10.948   7.561   1.010
12709SOL    HW140024  10.855   7.567   1.033
12709SOL    HW240025  10.993   7.613   1.075
12710SOL     OW40026   9.017  12.469   3.020
12710SOL    HW140027   8.943  12.408   3.020
12710SOL    HW240028   9.058  12.457   2.934
12711SOL     OW40029   3.598  13.461   2.784
12711SOL    HW140030   3.519  13.508   2.760
12711SOL    HW240031   3.585  13.439   2.877
12712SOL     OW40032   5.895   6.045   7.506
12712SOL    HW140033   5.936   6.084   7.584
12712SOL    HW240034   5.953   6.068   7.434
12713SOL     OW40035  14.675   1.331  11.601
12713SOL    HW140036  14.682   1.362  11.511
12713SOL    HW240037  14.617   1.393  11.644
12714SOL     OW40038  11.532   8.782   3.340
12714SOL    HW140039  11.468   8.842   3.303
12714SOL    HW240040  11.480   8.719   3.391
12715SOL     OW40041  13.971   8.028  10.393
12715SOL    HW140042  14.003   7.939  10.379
12715SOL    HW240043  13.892   8.018  10.446
12716SOL     OW40044  12.354  12.741   7.465
12716SOL    HW140045  12.277  12.796   7.453
12716SOL    HW240046  12.371  12.742   7.559
12717SOL     OW40047   0.975  13.760   5.537
12717SOL    HW140048   1.016  13.758   5.450
12717SOL    HW240049   1.046  13.784   5.596
12718SOL     OW40050   7.351   0.122   1.146
12718SOL    HW140051   7.306   0.037   1.141
12718SOL    HW240052   7.342   0.159   1.058
12719SOL     OW40053  10.066   6.374   3.324
12719SOL    HW140054  10.055   6.447   3.262
12719SOL    HW240055  10.071   6.417   3.410
12720SOL     OW40056  10.612   9.622   8.001
12720SOL    HW140057  10.544   9.562   8.033
12720SOL    HW240058  10.635   9.590   7.914
12721SOL     OW40059  13.205   1.249   3.315
12721SOL    HW140060  13.235   1.255   3.405
12721SOL    HW240061  13.268   1.192   3.272
12722SOL     OW40062   2.033   1.451  11.834
12722SOL    HW140063   2.109   1.448  11.775
12722SOL    HW240064   1.964   1.493  11.782
12723SOL     OW40065   2.418  11.033   4.332
12723SOL    HW140066   2.508  11.009   4.311
12723SOL    HW240067   2.391  11.090   4.259
12724SOL     OW40068  10.461  10.536   9.705
12724SOL    HW140069  10.422  10.621   9.684
12724SOL    HW240070  10.554  10.556   9.719
12725SOL     OW40071  12.660   8.268  13.135
12725SOL    HW140072  12.725   8.337  13.146
12725SOL    HW240073  12.589   8.292  13.195
12726SOL     OW40074   5.452   3.490   7.970
12726SOL    HW140075   5.439   3.509   7.877
12726SOL    HW240076   5.534   3.533   7.992
12727SOL     OW40077  12.817  10.803   0.049
12727SOL    HW140078  12.794  10.876  14.864
12727SOL    HW240079  12.784  10.829   0.135
12728SOL     OW40080   0.619   4.906   1.193
12728SOL    HW140081   0.648   4.817   1.212
12728SOL    HW240082   0.607   4.908   1.098
12729SOL     OW40083   5.289  13.201   2.338
12729SOL    HW140084   5.298  13.214   2.244
12729SOL    HW240085   5.275  13.289   2.373
12730SOL     OW40086  14.046  13.268   4.234
12730SOL    HW140087  14.086  13.355   4.228
12730SOL    HW240088  13.958  13.284   4.269
12731SOL     OW40089   1.358  11.275  14.447
12731SOL    HW140090   1.445  11.293  14.483
12731SOL    HW240091   1.374  11.244  14.358
12732SOL     OW40092   8.820  13.050  10.768
12732SOL    HW140093   8.731  13.072  10.741
12732SOL    HW240094   8.874  13.123  10.736
12733SOL     OW40095   8.283  14.551   2.126
12733SOL    HW140096   8.356  14.603   2.159
12733SOL    HW240097   8.205  14.596   2.158
12734SOL     OW40098   7.769  13.851  14.774
12734SOL    HW140099   7.733  13.940  14.784
12734SOL    HW240100   7.851  13.864  14.726
12735SOL     OW40101   1.856   6.588   0.555
12735SOL    HW140102   1.846   6.653   0.485
12735SOL    HW240103   1.850   6.639   0.636
12736SOL     OW40104   9.727  12.518  11.434
12736SOL    HW140105   9.655  12.531  11.495
12736SOL    HW240106   9.750  12.426  11.442
12737SOL     OW40107  12.760   7.852  10.232
12737SOL    HW140108  12.780   7.808  10.315
12737SOL    HW240109  12.709   7.929  10.257
12738SOL     OW40110   1.106   3.895   7.744
12738SOL    HW140111   1.028   3.840   7.734
12738SOL    HW240112   1.174   3.849   7.695
12739SOL     OW40113   3.963  14.497  13.404
12739SOL    HW140114   3.957  14.546  13.322
12739SOL    HW240115   3.873  14.472  13.424
12740SOL     OW40116  11.186  10.213  10.524
12740SOL    HW140117  11.201  10.304  10.550
12740SOL    HW240118  11.123  10.180  10.588
12741SOL     OW40119   0.655   4.094   8.703
12741SOL    HW140120   0.737   4.068   8.660
12741SOL    HW240121   0.664   4.188   8.719
12742SOL     OW40122  11.219   6.729  13.842
12742SOL    HW140123  11.153   6.765  13.902
12742SOL    HW240124  11.177   6.651  13.805
12743SOL     OW40125   4.900  11.281   4.479
12743SOL    HW140126   4.924  11.351   4.417
12743SOL    HW240127   4.983  11.257   4.521
12744SOL     OW40128   7.027  11.812   1.453
12744SOL    HW140129   6.985  11.877   1.397
12744SOL    HW240130   6.956  11.777   1.507
12745SOL     OW40131  13.712   7.595   9.788
12745SOL    HW140132  13.687   7.679   9.826
12745SOL    HW240133  13.677   7.597   9.699
12746SOL     OW40134   5.344   0.848   3.115
12746SOL    HW140135   5.433   0.816   3.103
12746SOL    HW240136   5.351   0.919   3.178
12747SOL     OW40137   7.094  13.495  10.107
12747SOL    HW140138   7.065  13.585  10.121
12747SOL    HW240139   7.030  13.459  10.045
12748SOL     OW40140   9.586  10.424   1.437
12748SOL    HW140141   9.524  10.409   1.508
12748SOL    HW240142   9.671  10.395   1.472
12749SOL     OW40143  12.525   1.499   5.121
12749SOL    HW140144  12.581   1.489   5.198
12749SOL    HW240145  12.541   1.588   5.091
12750SOL     OW40146   1.497  10.982   3.682
12750SOL    HW140147   1.527  11.070   3.658
12750SOL    HW240148   1.567  10.947   3.738
12751SOL     OW40149   3.463   7.988  14.635
12751SOL    HW140150   3.493   7.919  14.576
12751SOL    HW240151   3.533   8.054  14.632
12752SOL     OW40152  12.045  13.081   2.145
12752SOL    HW140153  12.038  13.159   2.091
12752SOL    HW240154  11.955  13.060   2.169
12753SOL     OW40155  11.645  13.486  14.317
12753SOL    HW140156  11.642  13.537  14.237
12753SOL    HW240157  11.698  13.409  14.294
12754SOL     OW40158   6.113  11.310   9.803
12754SOL    HW140159   6.109  11.379   9.737
12754SOL    HW240160   6.063  11.238   9.765
12755SOL     OW40161   0.494  13.307   9.408
12755SOL    HW140162   0.479  13.351   9.324
12755SOL    HW240163   0.420  13.246   9.415
12756SOL     OW40164  13.019  11.094   6.559
12756SOL    HW140165  13.005  11.139   6.475
12756SOL    HW240166  13.032  11.165   6.622
12757SOL     OW40167   5.212   5.102   7.786
12757SOL    HW140168   5.164   5.106   7.704
12757SOL    HW240169   5.280   5.168   7.777
12758SOL     OW40170   1.410   1.838  12.325
12758SOL    HW140171   1.478   1.856  12.260
12758SOL    HW240172   1.422   1.907  12.391
12759SOL     OW40173   1.547   6.905  10.415
12759SOL    HW140174   1.466   6.860  10.440
12759SOL    HW240175   1.566   6.872  10.328
12760SOL     OW40176   2.309  10.228  14.004
12760SOL    HW140177   2.377  10.163  14.018
12760SOL    HW240178   2.293  10.265  14.091
12761SOL     OW40179  10.027  12.036   6.459
12761SOL    HW140180  10.034  12.018   6.366
12761SOL    HW240181  10.084  11.971   6.501
12762SOL     OW40182  12.240   0.717   5.699
12762SOL    HW140183  12.321   0.679   5.664
12762SOL    HW240184  12.212   0.779   5.632
12763SOL     OW40185  14.346   5.862   8.088
12763SOL    HW140186  14.433   5.832   8.061
12763SOL    HW240187  14.342   5.842   8.181
12764SOL     OW40188   5.318   2.674  12.221
12764SOL    HW140189   5.285   2.658  12.310
12764SOL    HW240190   5.273   2.754  12.194
12765SOL     OW40191   1.906  12.719  10.322
12765SOL    HW140192   1.928  12.684  10.236
12765SOL    HW240193   1.857  12.649  10.365
12766SOL     OW40194   8.301  11.792   4.223
12766SOL    HW140195   8.234  11.763   4.284
12766SOL    HW240196   8.371  11.827   4.278
12767SOL     OW40197   8.735  11.875   1.437
12767SOL    HW140198   8.804  11.874   1.503
12767SOL    HW240199   8.756  11.803   1.378
12768SOL     OW40200   5.458   4.491  12.974
12768SOL    HW140201   5.521   4.421  12.960
12768SOL    HW240202   5.423   4.476  13.062
12769SOL     OW40203  14.690  13.716   5.377
12769SOL    HW140204  14.778  13.733   5.343
12769SOL    HW240205  14.704  13.660   5.453
12770SOL     OW40206   6.785  14.663   9.773
12770SOL    HW140207   6.700  14.677   9.731
12770SOL    HW240208   6.846  14.649   9.700
12771SOL     OW40209   5.463  11.534  12.731
12771SOL    HW140210   5.489  11.557  12.820
12771SOL    HW240211   5.445  11.617  12.688
12772SOL     OW40212  10.428   8.239   0.981
12772SOL    HW140213  10.491   8.196   0.923
12772SOL    HW240214  10.445   8.201   1.067
12773SOL     OW40215   5.163   8.121  12.385
12773SOL    HW140216   5.206   8.123  12.470
12773SOL    HW240217   5.171   8.210  12.352
12774SOL     OW40218   3.973  14.241   6.157
12774SOL    HW140219   3.963  14.336   6.154
12774SOL    HW240220   3.931  14.210   6.077
12775SOL     OW40221  13.587   4.308   4.743
12775SOL    HW140222  13.611   4.358   4.821
12775SOL    HW240223  13.534   4.369   4.691
12776SOL     OW40224   1.438  12.257   1.260
12776SOL    HW140225   1.509  12.239   1.199
12776SOL    HW240226   1.409  12.345   1.238
12777SOL     OW40227   5.773  10.657   9.589
12777SOL    HW140228   5.846  10.626   9.643
12777SOL    HW240229   5.699  10.665   9.650
12778SOL     OW40230  10.474   8.930   0.427
12778SOL    HW140231  10.390   8.967   0.455
12778SOL    HW240232  10.538   8.998   0.447
12779SOL     OW40233   6.241  12.597   4.970
12779SOL    HW140234   6.186  12.521   4.949
12779SOL    HW240235   6.306  12.563   5.032
12780SOL     OW40236   4.967   1.045   9.897
12780SOL    HW140237   5.056   1.070   9.873
12780SOL    HW240238   4.914   1.122   9.875
12781SOL     OW40239   3.685   2.017   8.648
12781SOL    HW140240   3.701   2.084   8.581
12781SOL    HW240241   3.599   1.981   8.625
12782SOL     OW40242  11.199   8.390   1.201
12782SOL    HW140243  11.208   8.297   1.180
12782SOL    HW240244  11.265   8.406   1.269
12783SOL     OW40245   4.283   9.802  14.026
12783SOL    HW140246   4.364   9.815  14.076
12783SOL    HW240247   4.276   9.707  14.017
12784SOL     OW40248   7.557   9.502   2.666
12784SOL    HW140249   7.639   9.482   2.621
12784SOL    HW240250   7.488   9.479   2.603
12785SOL     OW40251  13.318   0.440  11.626
12785SOL    HW140252  13.236   0.391  11.618
12785SOL    HW240253  13.290   0.529  11.648
12786SOL     OW40254   6.694  10.672   2.297
12786SOL    HW140255   6.606  10.703   2.319
12786SOL    HW240256   6.681  10.580   2.271
12787SOL     OW40257  12.717   6.772   4.324
12787SOL    HW140258  12.672   6.714   4.386
12787SOL    HW240259  12.730   6.853   4.373
12788SOL     OW40260  10.118   1.473  11.212
12788SOL    HW140261  10.097   1.468  11.305
12788SOL    HW240262  10.166   1.556  11.202
12789SOL     OW40263  14.856   5.369   6.374
12789SOL    HW140264  14.810   5.411   6.302
12789SOL    HW240265   0.076   5.390   6.359
12790SOL     OW40266   9.474  11.725   2.899
12790SOL    HW140267   9.426  11.707   2.818
12790SOL    HW240268   9.552  11.669   2.892
12791SOL     OW40269   9.905   7.055  12.461
12791SOL    HW140270   9.964   7.030  12.390
12791SOL    HW240271   9.846   7.120  12.422
12792SOL     OW40272   5.689  10.257  10.643
12792SOL    HW140273   5.703  10.166  10.615
12792SOL    HW240274   5.759  10.307  10.602
12793SOL     OW40275   1.058   0.542   2.312
12793SOL    HW140276   0.991   0.610   2.305
12793SOL    HW240277   1.141   0.590   2.304
12794SOL     OW40278  14.562   8.336   5.605
12794SOL    HW140279  14.511   8.412   5.576
12794SOL    HW240280  14.653   8.365   5.604
12795SOL     OW40281   2.766   6.872  11.835
12795SOL    HW140282   2.848   6.910  11.866
12795SOL    HW240283   2.783   6.845  11.745
12796SOL     OW40284   6.074   9.542   3.856
12796SOL    HW140285   6.072   9.456   3.815
12796SOL    HW240286   6.146   9.588   3.812
12797SOL     OW40287  10.442  11.544   6.907
12797SOL    HW140288  10.454  11.558   6.813
12797SOL    HW240289  10.347  11.551   6.919
12798SOL     OW40290   4.509   8.834   2.748
12798SOL    HW140291   4.417   8.827   2.770
12798SOL    HW240292   4.546   8.749   2.773
12799SOL     OW40293   3.632  10.348  10.351
12799SOL    HW140294   3.547  10.365  10.393
12799SOL    HW240295   3.658  10.262  10.384
12800SOL     OW40296   3.201   3.642  14.205
12800SOL    HW140297   3.246   3.710  14.256
12800SOL    HW240298   3.163   3.584  14.271
12801SOL     OW40299   1.674   2.033   8.747
12801SOL    HW140300   1.737   1.964   8.771
12801SOL    HW240301   1.652   2.014   8.656
12802SOL     OW40302  13.790   8.594   3.196
12802SOL    HW140303  13.819   8.536   3.125
12802SOL    HW240304  13.777   8.536   3.271
12803SOL     OW40305   2.743  11.256   5.825
12803SOL    HW140306   2.700  11.205   5.894
12803SOL    HW240307   2.721  11.210   5.744
12804SOL     OW40308   1.548  13.042   5.859
12804SOL    HW140309   1.457  13.012   5.861
12804SOL    HW240310   1.586  12.999   5.782
12805SOL     OW40311   7.353   3.036   0.319
12805SOL    HW140312   7.377   2.958   0.270
12805SOL    HW240313   7.414   3.103   0.288
12806SOL     OW40314  13.253   5.946   0.185
12806SOL    HW140315  13.338   5.978   0.155
12806SOL    HW240316  13.208   6.024   0.218
12807SOL     OW40317   9.743   3.889  12.516
12807SOL    HW140318   9.831   3.925  12.525
12807SOL    HW240319   9.755   3.810  12.464
12808SOL     OW40320   9.897   7.023  14.368
12808SOL    HW140321   9.969   7.079  14.339
12808SOL    HW240322   9.858   6.990  14.287
12809SOL     OW40323   6.936   7.365   3.351
12809SOL    HW140324   6.905   7.415   3.275
12809SOL    HW240325   6.987   7.428   3.401
12810SOL     OW40326  13.841   1.868   8.666
12810SOL    HW140327  13.804   1.788   8.628
12810SOL    HW240328  13.934   1.848   8.676
12811SOL     OW40329  13.146  13.940   0.488
12811SOL    HW140330  13.082  13.969   0.422
12811SOL    HW240331  13.127  13.847   0.500
12812SOL     OW40332   3.387   3.525   2.685
12812SOL    HW140333   3.299   3.520   2.647
12812SOL    HW240334   3.440   3.566   2.617
12813SOL     OW40335   9.946  14.664   4.766
12813SOL    HW140336  10.002  14.678   4.689
12813SOL    HW240337   9.860  14.643   4.730
12814SOL     OW40338  14.825  13.186   6.597
12814SOL    HW140339   0.041  13.178   6.634
12814SOL    HW240340  14.839  13.211   6.506
12815SOL     OW40341   8.241   6.781   1.025
12815SOL    HW140342   8.188   6.783   0.945
12815SOL    HW240343   8.227   6.866   1.066
12816SOL     OW40344  10.069   3.531   9.775
12816SOL    HW140345  10.062   3.591   9.849
12816SOL    HW240346  10.038   3.582   9.700
12817SOL     OW40347  11.489   4.534   3.898
12817SOL    HW140348  11.530   4.573   3.975
12817SOL    HW240349  11.540   4.454   3.882
12818SOL     OW40350  11.473   6.801  10.421
12818SOL    HW140351  11.437   6.864  10.483
12818SOL    HW240352  11.536   6.750  10.472
12819SOL     OW40353   2.704  12.519   3.856
12819SOL    HW140354   2.743  12.576   3.922
12819SOL    HW240355   2.610  12.518   3.878
12820SOL     OW40356  13.181   4.244   0.436
12820SOL    HW140357  13.115   4.197   0.488
12820SOL    HW240358  13.147   4.242   0.347
12821SOL     OW40359  10.618  11.689   1.105
12821SOL    HW140360  10.700  11.709   1.149
12821SOL    HW240361  10.642  11.666   1.016
12822SOL     OW40362  14.670   0.693   5.512
12822SOL    HW140363  14.615   0.618   5.488
12822SOL    HW240364  14.613   0.769   5.504
12823SOL     OW40365  13.332   3.457  10.408
12823SOL    HW140366  13.409   3.436  10.355
12823SOL    HW240367  13.354   3.423  10.495
12824SOL     OW40368  14.528   9.408  14.737
12824SOL    HW140369  14.455   9.422  14.678
12824SOL    HW240370  14.517   9.318  14.769
12825SOL     OW40371   5.861   4.404   0.510
12825SOL    HW140372   5.939   4.455   0.529
12825SOL    HW240373   5.893   4.329   0.460
12826SOL     OW40374  10.049  14.727  13.853
12826SOL    HW140375  10.129  14.700  13.897
12826SOL    HW240376   9.982  14.722  13.921
12827SOL     OW40377   4.643   3.921   8.584
12827SOL    HW140378   4.637   3.881   8.497
12827SOL    HW240379   4.735   3.945   8.593
12828SOL     OW40380  11.358  11.212   7.200
12828SOL    HW140381  11.435  11.268   7.211
12828SOL    HW240382  11.295  11.246   7.263
12829SOL     OW40383   1.265   4.826  12.015
12829SOL    HW140384   1.203   4.823  11.943
12829SOL    HW240385   1.225   4.887  12.078
12830SOL     OW40386  12.133   8.345   0.109
12830SOL    HW140387  12.062   8.345   0.172
12830SOL    HW240388  12.172   8.258   0.117
12831SOL     OW40389   8.225  10.652   3.432
12831SOL    HW140390   8.301  10.597   3.451
12831SOL    HW240391   8.252  10.740   3.456
12832SOL     OW40392   7.156   2.245   0.377
12832SOL    HW140393   7.173   2.175   0.314
12832SOL    HW240394   7.064   2.233   0.401
12833SOL     OW40395  12.478  13.547   1.904
12833SOL    HW140396  12.478  13.532   1.809
12833SOL    HW240397  12.552  13.607   1.918
12834SOL     OW40398   3.409   0.796  14.557
12834SOL    HW140399   3.393   0.886  14.526
12834SOL    HW240400   3.501   0.796  14.583
12835SOL     OW40401   0.462   2.866   8.118
12835SOL    HW140402   0.517   2.791   8.139
12835SOL    HW240403   0.522   2.932   8.084
12836SOL     OW40404   7.469   4.009   5.987
12836SOL    HW140405   7.453   4.004   5.893
12836SOL    HW240406   7.436   3.926   6.021
12837SOL     OW40407  13.890  12.630  12.738
12837SOL    HW140408  13.944  12.702  12.707
12837SOL    HW240409  13.801  12.664  12.738
12838SOL     OW40410   9.815   5.184   0.997
12838SOL    HW140411   9.774   5.269   0.978
12838SOL    HW240412   9.743   5.122   0.992
12839SOL     OW40413   3.705  11.757  13.621
12839SOL    HW140414   3.638  11.819  13.595
12839SOL    HW240415   3.663  11.671  13.614
12840SOL     OW40416   6.603  13.070   1.814
12840SOL    HW140417   6.539  13.088   1.883
12840SOL    HW240418   6.575  12.987   1.776
12841SOL     OW40419  13.050  12.387  13.166
12841SOL    HW140420  12.981  12.450  13.187
12841SOL    HW240421  13.003  12.308  13.141
12842SOL     OW40422  14.231  11.770   0.191
12842SOL    HW140423  14.233  11.683   0.152
12842SOL    HW240424  14.203  11.828   0.120
12843SOL     OW40425   6.474   3.258   6.036
12843SOL    HW140426   6.437   3.233   5.951
12843SOL    HW240427   6.568   3.251   6.024
12844SOL     OW40428  13.153   5.434   2.241
12844SOL    HW140429  13.233   5.486   2.250
12844SOL    HW240430  13.184   5.343   2.240
12845SOL     OW40431  12.231   4.218   2.426
12845SOL    HW140432  12.217   4.128   2.395
12845SOL    HW240433  12.321   4.218   2.459
12846SOL     OW40434  10.382   1.066   6.885
12846SOL    HW140435  10.313   1.117   6.930
12846SOL    HW240436  10.362   1.075   6.792
12847SOL     OW40437   2.419   8.136   6.881
12847SOL    HW140438   2.370   8.144   6.800
12847SOL    HW240439   2.380   8.061   6.926
12848SOL     OW40440  11.478   6.551   3.944
12848SOL    HW140441  11.424   6.476   3.972
12848SOL    HW240442  11.429   6.628   3.973
12849SOL     OW40443  11.217   3.879   1.032
12849SOL    HW140444  11.244   3.790   1.055
12849SOL    HW240445  11.129   3.869   0.998
12850SOL     OW40446  13.940  13.601   5.572
12850SOL    HW140447  13.853  13.631   5.547
12850SOL    HW240448  13.925  13.543   5.646
12851SOL     OW40449   2.810  14.223   8.115
12851SOL    HW140450   2.805  14.128   8.106
12851SOL    HW240451   2.834  14.237   8.206
12852SOL     OW40452   9.654   7.085   8.350
12852SOL    HW140453   9.748   7.100   8.357
12852SOL    HW240454   9.614   7.167   8.378
12853SOL     OW40455  11.036  13.429   2.396
12853SOL    HW140456  11.078  13.354   2.354
12853SOL    HW240457  11.028  13.404   2.488
12854SOL     OW40458   8.473   9.914   4.597
12854SOL    HW140459   8.542   9.856   4.629
12854SOL    HW240460   8.478   9.992   4.652
12855SOL     OW40461  12.776  10.618   8.038
12855SOL    HW140462  12.845  10.630   7.973
12855SOL    HW240463  12.735  10.704   8.046
12856SOL     OW40464  13.667  13.711  12.101
12856SOL    HW140465  13.686  13.637  12.042
12856SOL    HW240466  13.734  13.704  12.169
12857SOL     OW40467   7.327  14.364  13.131
12857SOL    HW140468   7.384  14.330  13.063
12857SOL    HW240469   7.255  14.301  13.136
12858SOL     OW40470   8.011  14.711  12.377
12858SOL    HW140471   8.010  14.662  12.459
12858SOL    HW240472   8.042  14.648  12.312
12859SOL     OW40473   0.368  14.417   3.708
12859SOL    HW140474   0.402  14.335   3.744
12859SOL    HW240475   0.326  14.392   3.626
12860SOL     OW40476  14.739  12.340   7.814
12860SOL    HW140477  14.768  12.347   7.905
12860SOL    HW240478  14.700  12.253   7.808
12861SOL     OW40479   9.082   4.630   4.259
12861SOL    HW140480   9.043   4.577   4.329
12861SOL    HW240481   9.007   4.666   4.212
12862SOL     OW40482   6.144   6.689  13.707
12862SOL    HW140483   6.230   6.649  13.719
12862SOL    HW240484   6.152   6.740  13.626
12863SOL     OW40485   4.312   7.391   8.092
12863SOL    HW140486   4.231   7.363   8.049
12863SOL    HW240487   4.286   7.466   8.145
12864SOL     OW40488   5.989  13.444   7.506
12864SOL    HW140489   5.901  13.412   7.525
12864SOL    HW240490   5.975  13.531   7.467
12865SOL     OW40491  13.302   5.031  11.700
12865SOL    HW140492  13.326   4.996  11.614
12865SOL    HW240493  13.379   5.015  11.754
12866SOL     OW40494   5.190   4.877   0.770
12866SOL    HW140495   5.174   4.869   0.676
12866SOL    HW240496   5.181   4.788   0.803
12867SOL     OW40497   9.673  11.926  11.559
12867SOL    HW140498   9.724  11.845  11.565
12867SOL    HW240499   9.735  11.995  11.584
12868SOL     OW40500  11.424   4.166   2.945
12868SOL    HW140501  11.380   4.081   2.949
12868SOL    HW240502  11.514   4.145   2.920
12869SOL     OW40503   2.768  13.482   7.963
12869SOL    HW140504   2.694  13.426   7.939
12869SOL    HW240505   2.781  13.538   7.887
12870SOL     OW40506   2.874   6.074  10.047
12870SOL    HW140507   2.910   6.149  10.094
12870SOL    HW240508   2.918   6.075   9.962
12871SOL     OW40509   1.272   9.340   9.367
12871SOL    HW140510   1.289   9.319   9.458
12871SOL    HW240511   1.340   9.403   9.343
12872SOL     OW40512  13.920   1.368  10.497
12872SOL    HW140513  13.941   1.437  10.434
12872SOL    HW240514  13.917   1.288  10.445
12873SOL     OW40515   3.609  10.658  13.693
12873SOL    HW140516   3.611  10.577  13.743
12873SOL    HW240517   3.543  10.712  13.738
12874SOL     OW40518   0.324   8.451  12.722
12874SOL    HW140519   0.362   8.431  12.807
12874SOL    HW240520   0.400   8.473  12.667
12875SOL     OW40521  12.667   4.307   0.096
12875SOL    HW140522  12.577   4.332   0.076
12875SOL    HW240523  12.678   4.326   0.189
12876SOL     OW40524  14.202   7.794   1.979
12876SOL    HW140525  14.245   7.873   2.011
12876SOL    HW240526  14.113   7.822   1.956
12877SOL     OW40527  10.386   2.080   7.507
12877SOL    HW140528  10.326   2.132   7.453
12877SOL    HW240529  10.442   2.034   7.444
12878SOL     OW40530   6.889   1.575  10.970
12878SOL    HW140531   6.925   1.591  10.883
12878SOL    HW240532   6.841   1.655  10.991
12879SOL     OW40533  13.512   4.432  12.800
12879SOL    HW140534  13.556   4.497  12.855
12879SOL    HW240535  13.468   4.484  12.733
12880SOL     OW40536   7.091  11.310   4.179
12880SOL    HW140537   6.996  11.300   4.171
12880SOL    HW240538   7.115  11.365   4.104
12881SOL     OW40539   8.422   6.344   2.046
12881SOL    HW140540   8.352   6.279   2.040
12881SOL    HW240541   8.499   6.302   2.008
12882SOL     OW40542   3.454   7.392   1.384
12882SOL    HW140543   3.536   7.440   1.399
12882SOL    HW240544   3.392   7.460   1.356
12883SOL     OW40545   8.844  13.587  12.406
12883SOL    HW140546   8.783  13.604  12.334
12883SOL    HW240547   8.930  13.579  12.363
12884SOL     OW40548  11.198   4.551  10.525
12884SOL    HW140549  11.131   4.501  10.480
12884SOL    HW240550  11.174   4.546  10.618
12885SOL     OW40551   6.249   4.788   1.075
12885SOL    HW140552   6.284   4.855   1.133
12885SOL    HW240553   6.312   4.717   1.080
12886SOL     OW40554  13.500   9.163   1.997
12886SOL    HW140555  13.464   9.152   1.909
12886SOL    HW240556  13.588   9.126   1.992
12887SOL     OW40557   3.478   6.751  12.805
12887SOL    HW140558   3.519   6.764  12.720
12887SOL    HW240559   3.518   6.671  12.840
12888SOL     OW40560   7.401   1.015   0.082
12888SOL    HW140561   7.308   1.032   0.065
12888SOL    HW240562   7.439   0.999  14.868
12889SOL     OW40563  12.366   3.014   7.285
12889SOL    HW140564  12.340   3.105   7.275
12889SOL    HW240565  12.321   2.968   7.213
12890SOL     OW40566  13.181   6.696   7.281
12890SOL    HW140567  13.174   6.600   7.280
12890SOL    HW240568  13.210   6.719   7.193
12891SOL     OW40569   9.003  10.015   7.224
12891SOL    HW140570   8.951  10.027   7.145
12891SOL    HW240571   9.092  10.036   7.198
12892SOL     OW40572   2.799  12.640   8.896
12892SOL    HW140573   2.884  12.606   8.867
12892SOL    HW240574   2.736  12.575   8.866
12893SOL     OW40575   9.381   1.571  13.837
12893SOL    HW140576   9.290   1.595  13.856
12893SOL    HW240577   9.383   1.476  13.848
12894SOL     OW40578   8.529   3.101   0.190
12894SOL    HW140579   8.585   3.074   0.262
12894SOL    HW240580   8.557   3.190   0.170
12895SOL     OW40581  10.306   7.958  12.034
12895SOL    HW140582  10.355   7.883  12.067
12895SOL    HW240583  10.373   8.019  12.002
12896SOL     OW40584   2.546   6.180  14.424
12896SOL    HW140585   2.562   6.095  14.382
12896SOL    HW240586   2.633   6.214  14.443
12897SOL     OW40587   1.883  10.298  13.275
12897SOL    HW140588   1.866  10.360  13.204
12897SOL    HW240589   1.968  10.326  13.311
12898SOL     OW40590   0.968   6.654   6.824
12898SOL    HW140591   0.954   6.596   6.749
12898SOL    HW240592   0.973   6.741   6.786
12899SOL     OW40593   1.247   9.690   0.710
12899SOL    HW140594   1.243   9.767   0.767
12899SOL    HW240595   1.192   9.625   0.754
12900SOL     OW40596   0.393   7.345   2.684
12900SOL    HW140597   0.363   7.344   2.593
12900SOL    HW240598   0.371   7.433   2.715
12901SOL     OW40599   4.333  14.355   2.574
12901SOL    HW140600   4.339  14.411   2.651
12901SOL    HW240601   4.309  14.268   2.609
12902SOL     OW40602  11.967   8.391   4.782
12902SOL    HW140603  11.892   8.396   4.842
12902SOL    HW240604  12.043   8.379   4.840
12903SOL     OW40605   2.407  13.713   4.786
12903SOL    HW140606   2.384  13.759   4.866
12903SOL    HW240607   2.369  13.766   4.716
12904SOL     OW40608   5.410  13.067   8.159
12904SOL    HW140609   5.489  13.047   8.109
12904SOL    HW240610   5.397  12.991   8.215
12905SOL     OW40611   0.547   6.926   4.076
12905SOL    HW140612   0.586   6.867   4.011
12905SOL    HW240613   0.567   6.885   4.160
12906SOL     OW40614   2.888   9.868  12.221
12906SOL    HW140615   2.836   9.826  12.152
12906SOL    HW240616   2.823   9.906  12.280
12907SOL     OW40617   1.687   5.396   5.460
12907SOL    HW140618   1.628   5.456   5.506
12907SOL    HW240619   1.713   5.333   5.526
12908SOL     OW40620   6.642  13.643   6.693
12908SOL    HW140621   6.548  13.640   6.711
12908SOL    HW240622   6.654  13.718   6.635
12909SOL     OW40623   3.354   7.719   7.995
12909SOL    HW140624   3.404   7.792   7.959
12909SOL    HW240625   3.406   7.687   8.069
12910SOL     OW40626   7.814   5.358   5.604
12910SOL    HW140627   7.805   5.430   5.541
12910SOL    HW240628   7.824   5.280   5.549
12911SOL     OW40629  10.122   4.565   0.168
12911SOL    HW140630  10.156   4.521   0.246
12911SOL    HW240631  10.047   4.512   0.142
12912SOL     OW40632   0.270  14.223   5.782
12912SOL    HW140633   0.337  14.181   5.835
12912SOL    HW240634   0.302  14.217   5.693
12913SOL     OW40635   2.422   5.578   1.057
12913SOL    HW140636   2.418   5.666   1.018
12913SOL    HW240637   2.443   5.593   1.149
12914SOL     OW40638   5.335   0.576  12.157
12914SOL    HW140639   5.256   0.625  12.180
12914SOL    HW240640   5.391   0.585  12.234
12915SOL     OW40641   8.391   4.216  13.140
12915SOL    HW140642   8.426   4.225  13.052
12915SOL    HW240643   8.447   4.270  13.195
12916SOL     OW40644  14.465   2.184   6.837
12916SOL    HW140645  14.409   2.258   6.858
12916SOL    HW240646  14.502   2.156   6.921
12917SOL     OW40647   2.873  13.882   9.044
12917SOL    HW140648   2.925  13.942   9.097
12917SOL    HW240649   2.879  13.798   9.091
12918SOL     OW40650  14.085   8.084   3.187
12918SOL    HW140651  14.175   8.066   3.213
12918SOL    HW240652  14.041   8.112   3.267
12919SOL     OW40653  14.417   4.230   0.408
12919SOL    HW140654  14.468   4.155   0.437
12919SOL    HW240655  14.326   4.198   0.407
12920SOL     OW40656   2.542   8.233   7.085
12920SOL    HW140657   2.601   8.159   7.098
12920SOL    HW240658   2.490   8.208   7.008
12921SOL     OW40659   6.140   4.850  14.668
12921SOL    HW140660   6.151   4.872  14.576
12921SOL    HW240661   6.089   4.923  14.704
12922SOL     OW40662  10.511  10.277   7.837
12922SOL    HW140663  10.537  10.201   7.785
12922SOL    HW240664  10.556  10.265   7.920
12923SOL     OW40665   1.990  13.066   0.982
12923SOL    HW140666   2.056  13.027   1.039
12923SOL    HW240667   2.024  13.054   0.893
12924SOL     OW40668   2.443   7.899   3.272
12924SOL    HW140669   2.497   7.827   3.304
12924SOL    HW240670   2.384   7.920   3.345
12925SOL     OW40671   9.615   1.608   0.495
12925SOL    HW140672   9.567   1.544   0.548
12925SOL    HW240673   9.554   1.681   0.485
12926SOL     OW40674   9.213   7.196   5.115
12926SOL    HW140675   9.186   7.192   5.206
12926SOL    HW240676   9.299   7.238   5.116
12927SOL     OW40677   4.295   8.142  13.305
12927SOL    HW140678   4.272   8.156  13.213
12927SOL    HW240679   4.221   8.092  13.340
12928SOL     OW40680   1.915   0.541   9.829
12928SOL    HW140681   1.835   0.574   9.788
12928SOL    HW240682   1.891   0.531   9.922
12929SOL     OW40683   4.247   1.879   3.653
12929SOL    HW140684   4.312   1.949   3.646
12929SOL    HW240685   4.193   1.902   3.728
12930SOL     OW40686   1.344   0.100   8.928
12930SOL    HW140687   1.433   0.114   8.962
12930SOL    HW240688   1.336   0.005   8.918
12931SOL     OW40689   3.344   4.441   3.946
12931SOL    HW140690   3.338   4.493   3.866
12931SOL    HW240691   3.349   4.505   4.016
12932SOL     OW40692  11.441  11.450   6.661
12932SOL    HW140693  11.457  11.371   6.712
12932SOL    HW240694  11.402  11.419   6.580
12933SOL     OW40695  12.757   4.532   9.400
12933SOL    HW140696  12.741   4.501   9.311
12933SOL    HW240697  12.724   4.621   9.402
12934SOL     OW40698   9.939   3.829   7.585
12934SOL    HW140699   9.900   3.872   7.509
12934SOL    HW240700  10.029   3.863   7.588
12935SOL     OW40701   0.343   4.368   6.634
12935SOL    HW140702   0.314   4.293   6.582
12935SOL    HW240703   0.397   4.329   6.703
12936SOL     OW40704  14.141  10.462   2.445
12936SOL    HW140705  14.166  10.530   2.382
12936SOL    HW240706  14.065  10.420   2.405
12937SOL     OW40707   3.561   6.634   8.642
12937SOL    HW140708   3.548   6.557   8.698
12937SOL    HW240709   3.538   6.708   8.699
12938SOL     OW40710   7.357   9.409   8.336
12938SOL    HW140711   7.368   9.487   8.390
12938SOL    HW240712   7.407   9.341   8.382
12939SOL     OW40713  12.941   9.867   6.423
12939SOL    HW140714  12.928   9.885   6.330
12939SOL    HW240715  12.852   9.852   6.456
12940SOL     OW40716   0.135   1.552   4.596
12940SOL    HW140717   0.184   1.581   4.519
12940SOL    HW240718   0.118   1.632   4.645
12941SOL     OW40719   2.078   3.491  13.281
12941SOL    HW140720   2.147   3.484  13.346
12941SOL    HW240721   2.112   3.443  13.205
12942SOL     OW40722   5.552   2.887  12.971
12942SOL    HW140723   5.577   2.833  12.897
12942SOL    HW240724   5.635   2.925  13.002
12943SOL     OW40725   1.780  10.764   5.207
12943SOL    HW140726   1.789  10.858   5.191
12943SOL    HW240727   1.835  10.747   5.283
12944SOL     OW40728   6.127   3.609   5.823
12944SOL    HW140729   6.064   3.537   5.816
12944SOL    HW240730   6.108   3.649   5.907
12945SOL     OW40731   1.686   8.026   3.944
12945SOL    HW140732   1.657   8.064   4.027
12945SOL    HW240733   1.782   8.024   3.951
12946SOL     OW40734   0.740   3.974  12.980
12946SOL    HW140735   0.701   3.940  12.899
12946SOL    HW240736   0.796   3.903  13.011
12947SOL     OW40737   0.177   3.792  13.726
12947SOL    HW140738   0.103   3.752  13.770
12947SOL    HW240739   0.141   3.829  13.645
12948SOL     OW40740  11.442   5.471   4.837
12948SOL    HW140741  11.347   5.474   4.846
12948SOL    HW240742  11.475   5.500   4.922
12949SOL     OW40743  10.549   3.325   4.174
12949SOL    HW140744  10.515   3.366   4.094
12949SOL    HW240745  10.491   3.250   4.189
12950SOL     OW40746   7.271   9.955   6.526
12950SOL    HW140747   7.252   9.982   6.615
12950SOL    HW240748   7.199   9.898   6.502
12951SOL     OW40749   5.237   1.781   9.935
12951SOL    HW140750   5.227   1.842  10.008
12951SOL    HW240751   5.157   1.792   9.883
12952SOL     OW40752   5.208  10.207  13.791
12952SOL    HW140753   5.192  10.157  13.871
12952SOL    HW240754   5.295  10.179  13.762
12953SOL     OW40755  13.245   4.053   9.772
12953SOL    HW140756  13.242   4.144   9.803
12953SOL    HW240757  13.304   4.056   9.697
12954SOL     OW40758   5.990   5.297   2.852
12954SOL    HW140759   6.063   5.253   2.807
12954SOL    HW240760   5.939   5.225   2.891
12955SOL     OW40761   9.364   5.108   6.493
12955SOL    HW140762   9.371   5.203   6.480
12955SOL    HW240763   9.348   5.099   6.587
12956SOL     OW40764   2.440  13.210   0.917
12956SOL    HW140765   2.492  13.202   0.837
12956SOL    HW240766   2.358  13.249   0.889
12957SOL     OW40767  13.583   7.893   3.418
12957SOL    HW140768  13.635   7.922   3.343
12957SOL    HW240769  13.629   7.815   3.450
12958SOL     OW40770  14.671   5.599   4.961
12958SOL    HW140771  14.711   5.602   4.874
12958SOL    HW240772  14.660   5.506   4.980
12959SOL     OW40773  10.992   7.697   2.267
12959SOL    HW140774  11.087   7.701   2.282
12959SOL    HW240775  10.970   7.780   2.225
12960SOL     OW40776  11.920   5.420  11.459
12960SOL    HW140777  11.938   5.504  11.500
12960SOL    HW240778  11.825   5.410  11.466
12961SOL     OW40779   8.959  13.927   9.762
12961SOL    HW140780   8.980  13.922   9.669
12961SOL    HW240781   8.956  14.020   9.781
12962SOL     OW40782  11.132   5.727   3.019
12962SOL    HW140783  11.139   5.641   2.976
12962SOL    HW240784  11.165   5.789   2.954
12963SOL     OW40785   9.793   9.461  10.132
12963SOL    HW140786   9.780   9.413  10.050
12963SOL    HW240787   9.812   9.551  10.105
12964SOL     OW40788  10.962  11.779   8.823
12964SOL    HW140789  10.893  11.842   8.801
12964SOL    HW240790  10.931  11.737   8.904
12965SOL     OW40791  12.248  14.846   9.506
12965SOL    HW140792  12.325  14.805   9.465
12965SOL    HW240793  12.185  14.854   9.436
12966SOL     OW40794   4.198  11.423  11.873
12966SOL    HW140795   4.242  11.351  11.917
12966SOL    HW240796   4.262  11.459  11.812
12967SOL     OW40797  12.972   8.724  14.239
12967SOL    HW140798  12.884   8.718  14.202
12967SOL    HW240799  13.029   8.740  14.164
12968SOL     OW40800   0.206   0.571  10.214
12968SOL    HW140801   0.152   0.552  10.137
12968SOL    HW240802   0.272   0.501  10.214
12969SOL     OW40803   0.270   9.155   3.742
12969SOL    HW140804   0.203   9.222   3.757
12969SOL    HW240805   0.285   9.156   3.647
12970SOL     OW40806  13.298  12.186   4.547
12970SOL    HW140807  13.337  12.256   4.494
12970SOL    HW240808  13.227  12.228   4.595
12971SOL     OW40809  10.191   1.000   8.757
12971SOL    HW140810  10.186   1.091   8.730
12971SOL    HW240811  10.103   0.979   8.788
12972SOL     OW40812  13.248   8.787   5.369
12972SOL    HW140813  13.284   8.727   5.434
12972SOL    HW240814  13.184   8.839   5.418
12973SOL     OW40815  10.221   1.384   5.299
12973SOL    HW140816  10.156   1.384   5.228
12973SOL    HW240817  10.250   1.475   5.304
12974SOL     OW40818   5.212  10.093   9.356
12974SOL    HW140819   5.193  10.007   9.392
12974SOL    HW240820   5.294  10.119   9.398
12975SOL     OW40821   2.819   2.668   0.765
12975SOL    HW140822   2.740   2.720   0.758
12975SOL    HW240823   2.804   2.593   0.707
12976SOL     OW40824   9.551   1.977  11.237
12976SOL    HW140825   9.489   1.905  11.232
12976SOL    HW240826   9.530   2.032  11.161
12977SOL     OW40827   8.031   7.788   6.806
12977SOL    HW140828   7.988   7.796   6.720
12977SOL    HW240829   7.959   7.793   6.869
12978SOL     OW40830  12.807   6.625   5.612
12978SOL    HW140831  12.859   6.666   5.681
12978SOL    HW240832  12.735   6.583   5.657
12979SOL     OW40833   8.082   5.826   3.553
12979SOL    HW140834   8.163   5.784   3.522
12979SOL    HW240835   8.094   5.919   3.531
12980SOL     OW40836   1.337  14.692  11.551
12980SOL    HW140837   1.337  14.627  11.621
12980SOL    HW240838   1.398  14.658  11.486
12981SOL     OW40839   5.281  10.784  10.612
12981SOL    HW140840   5.208  10.728  10.585
12981SOL    HW240841   5.249  10.873  10.597
12982SOL     OW40842   6.720   4.852   2.069
12982SOL    HW140843   6.681   4.778   2.114
12982SOL    HW240844   6.799   4.817   2.028
12983SOL     OW40845   4.903  13.839   3.982
12983SOL    HW140846   4.958  13.900   3.932
12983SOL    HW240847   4.964  13.792   4.039
12984SOL     OW40848  11.335   3.649   9.045
12984SOL    HW140849  11.417   3.636   9.092
12984SOL    HW240850  11.291   3.719   9.092
12985SOL     OW40851   3.597   1.785   3.755
12985SOL    HW140852   3.651   1.775   3.677
12985SOL    HW240853   3.601   1.879   3.774
12986SOL     OW40854   9.162  12.076  10.503
12986SOL    HW140855   9.224  12.003  10.506
12986SOL    HW240856   9.204  12.145  10.554
12987SOL     OW40857   0.876  12.926   0.607
12987SOL    HW140858   0.954  12.954   0.558
12987SOL    HW240859   0.873  12.831   0.595
12988SOL     OW40860  14.094   1.722   9.370
12988SOL    HW140861  14.132   1.786   9.310
12988SOL    HW240862  14.038   1.773   9.428
12989SOL     OW40863   7.163   8.156   5.771
12989SOL    HW140864   7.224   8.121   5.836
12989SOL    HW240865   7.175   8.251   5.776
12990SOL     OW40866  10.143   1.207   5.040
12990SOL    HW140867  10.107   1.143   4.979
12990SOL    HW240868  10.078   1.277   5.043
12991SOL     OW40869   7.651   1.201   8.744
12991SOL    HW140870   7.649   1.274   8.683
12991SOL    HW240871   7.734   1.211   8.792
12992SOL     OW40872   3.115   1.065   2.424
12992SOL    HW140873   3.144   1.138   2.479
12992SOL    HW240874   3.062   1.010   2.483
12993SOL     OW40875   4.072   1.920   4.842
12993SOL    HW140876   3.989   1.967   4.849
12993SOL    HW240877   4.065   1.851   4.908
12994SOL     OW40878   9.080   4.875   1.448
12994SOL    HW140879   9.041   4.932   1.515
12994SOL    HW240880   9.007   4.853   1.390
12995SOL     OW40881   3.860   3.241  11.726
12995SOL    HW140882   3.918   3.303  11.770
12995SOL    HW240883   3.920   3.176  11.689
12996SOL     OW40884   4.885   8.313   2.634
12996SOL    HW140885   4.896   8.357   2.550
12996SOL    HW240886   4.962   8.258   2.644
12997SOL     OW40887  10.534   2.640   2.301
12997SOL    HW140888  10.502   2.645   2.211
12997SOL    HW240889  10.516   2.726   2.339
12998SOL     OW40890   1.361   6.608  12.982
12998SOL    HW140891   1.399   6.556  13.053
12998SOL    HW240892   1.419   6.592  12.907
12999SOL     OW40893   2.448  12.961   7.598
12999SOL    HW140894   2.496  13.043   7.589
12999SOL    HW240895   2.375  12.968   7.537
13000SOL     OW40896   2.614   2.358   9.200
13000SOL    HW140897   2.607   2.438   9.148
13000SOL    HW240898   2.696   2.369   9.249
13001SOL     OW40899   2.400   8.514   9.523
13001SOL    HW140900   2.371   8.455   9.455
13001SOL    HW240901   2.493   8.530   9.504
13002SOL     OW40902  11.298   1.501   5.263
13002SOL    HW140903  11.368   1.483   5.326
13002SOL    HW240904  11.334   1.471   5.179
13003SOL     OW40905   9.588  12.070  12.286
13003SOL    HW140906   9.656  12.085  12.351
13003SOL    HW240907   9.627  12.095  12.203
13004SOL     OW40908  12.664   6.227   7.551
13004SOL    HW140909  12.636   6.135   7.556
13004SOL    HW240910  12.679   6.242   7.458
13005SOL     OW40911   7.315  10.361   2.296
13005SOL    HW140912   7.290  10.416   2.370
13005SOL    HW240913   7.406  10.337   2.312
13006SOL     OW40914   1.841   7.448   5.063
13006SOL    HW140915   1.750   7.456   5.091
13006SOL    HW240916   1.889   7.508   5.120
13007SOL     OW40917   4.898   9.516  13.174
13007SOL    HW140918   4.924   9.424  13.169
13007SOL    HW240919   4.940   9.548  13.254
13008SOL     OW40920   1.196   5.495   9.646
13008SOL    HW140921   1.203   5.577   9.596
13008SOL    HW240922   1.276   5.494   9.700
13009SOL     OW40923   2.118  11.790   6.641
13009SOL    HW140924   2.065  11.739   6.580
13009SOL    HW240925   2.162  11.855   6.586
13010SOL     OW40926  13.177   1.364   2.541
13010SOL    HW140927  13.223   1.390   2.461
13010SOL    HW240928  13.238   1.386   2.612
13011SOL     OW40929  13.340  10.099   0.581
13011SOL    HW140930  13.257  10.078   0.539
13011SOL    HW240931  13.386  10.154   0.517
13012SOL     OW40932  11.794   0.849  13.886
13012SOL    HW140933  11.865   0.821  13.828
13012SOL    HW240934  11.714   0.822  13.842
13013SOL     OW40935  12.402   6.679   1.998
13013SOL    HW140936  12.460   6.632   2.057
13013SOL    HW240937  12.444   6.764   1.985
13014SOL     OW40938   0.086   5.650  11.439
13014SOL    HW140939   0.000   5.628  11.477
13014SOL    HW240940   0.066   5.678  11.350
13015SOL     OW40941   3.743   1.806   5.020
13015SOL    HW140942   3.666   1.860   5.038
13015SOL    HW240943   3.713   1.743   4.955
13016SOL     OW40944   6.607  14.032  11.674
13016SOL    HW140945   6.538  14.036  11.607
13016SOL    HW240946   6.649  13.947  11.659
13017SOL     OW40947   5.177   0.186  13.647
13017SOL    HW140948   5.227   0.268  13.645
13017SOL    HW240949   5.203   0.141  13.567
13018SOL     OW40950   9.412   5.924   1.955
13018SOL    HW140951   9.442   5.959   1.871
13018SOL    HW240952   9.491   5.916   2.008
13019SOL     OW40953   0.795   7.040  12.690
13019SOL    HW140954   0.789   7.109  12.624
13019SOL    HW240955   0.760   6.962  12.646
13020SOL     OW40956   9.915   7.599  13.448
13020SOL    HW140957   9.878   7.542  13.381
13020SOL    HW240958   9.997   7.556  13.474
13021SOL     OW40959   5.906   2.361   2.651
13021SOL    HW140960   5.917   2.456   2.640
13021SOL    HW240961   5.990   2.324   2.627
13022SOL     OW40962  14.396   0.369   2.423
13022SOL    HW140963  14.489   0.348   2.433
13022SOL    HW240964  14.352   0.312   2.486
13023SOL     OW40965   0.689   4.514   5.936
13023SOL    HW140966   0.619   4.558   5.887
13023SOL    HW240967   0.769   4.535   5.887
13024SOL     OW40968   3.131   8.527   4.307
13024SOL    HW140969   3.174   8.519   4.222
13024SOL    HW240970   3.164   8.608   4.344
13025SOL     OW40971   8.362  12.972   1.421
13025SOL    HW140972   8.427  13.030   1.383
13025SOL    HW240973   8.372  12.890   1.373
13026SOL     OW40974   1.704   6.519  10.497
13026SOL    HW140975   1.645   6.536  10.571
13026SOL    HW240976   1.782   6.570  10.515
13027SOL     OW40977  11.915   5.915   6.386
13027SOL    HW140978  11.867   5.846   6.431
13027SOL    HW240979  11.931   5.881   6.298
13028SOL     OW40980   2.086   0.734   3.122
13028SOL    HW140981   2.042   0.650   3.137
13028SOL    HW240982   2.099   0.769   3.210
13029SOL     OW40983  13.339   6.818   3.244
13029SOL    HW140984  13.434   6.818   3.233
13029SOL    HW240985  13.319   6.904   3.280
13030SOL     OW40986   3.825   1.640   4.651
13030SOL    HW140987   3.778   1.610   4.729
13030SOL    HW240988   3.756   1.656   4.587
13031SOL     OW40989   8.257   3.609   6.702
13031SOL    HW140990   8.330   3.669   6.689
13031SOL    HW240991   8.298   3.523   6.716
13032SOL     OW40992   7.785   1.247   3.923
13032SOL    HW140993   7.703   1.296   3.921
13032SOL    HW240994   7.777   1.190   4.000
13033SOL     OW40995   4.937   0.158   9.904
13033SOL    HW140996   4.991   0.202   9.970
13033SOL    HW240997   4.997   0.102   9.857
13034SOL     OW40998  14.451   3.404   6.996
13034SOL    HW140999  14.513   3.397   7.068
13034SOL    HW241000  14.494   3.463   6.933
13035SOL     OW41001  14.550  13.594   8.176
13035SOL    HW141002  14.603  13.640   8.241
13035SOL    HW241003  14.587  13.505   8.174
13036SOL     OW41004   4.945   2.028   5.233
13036SOL    HW141005   5.030   2.019   5.192
13036SOL    HW241006   4.896   1.951   5.205
13037SOL     OW41007  11.047   6.546   8.753
13037SOL    HW141008  11.075   6.622   8.803
13037SOL    HW241009  11.125   6.518   8.706
13038SOL     OW41010   6.242   0.548   5.545
13038SOL    HW141011   6.239   0.638   5.512
13038SOL    HW241012   6.153   0.515   5.532
13039SOL     OW41013   4.792   1.655   2.265
13039SOL    HW141014   4.786   1.563   2.243
13039SOL    HW241015   4.885   1.676   2.257
13040SOL     OW41016   7.051   8.220   9.383
13040SOL    HW141017   6.962   8.230   9.416
13040SOL    HW241018   7.041   8.171   9.301
13041SOL     OW41019   4.187  13.315  11.770
13041SOL    HW141020   4.196  13.247  11.703
13041SOL    HW241021   4.092  13.323  11.782
13042SOL     OW41022   0.768   2.881   6.496
13042SOL    HW141023   0.842   2.865   6.438
13042SOL    HW241024   0.694   2.840   6.452
13043SOL     OW41025  10.024   0.391   8.063
13043SOL    HW141026  10.093   0.444   8.023
13043SOL    HW241027  10.017   0.423   8.152
13044SOL     OW41028   1.862   5.401   5.982
13044SOL    HW141029   1.905   5.316   5.990
13044SOL    HW241030   1.825   5.417   6.069
13045SOL     OW41031  10.361  10.163   4.842
13045SOL    HW141032  10.445  10.206   4.824
13045SOL    HW241033  10.302  10.233   4.867
13046SOL     OW41034   5.432  10.661  13.685
13046SOL    HW141035   5.357  10.604  13.670
13046SOL    HW241036   5.438  10.669  13.780
13047SOL     OW41037   3.373   8.956   8.775
13047SOL    HW141038   3.330   9.038   8.750
13047SOL    HW241039   3.346   8.893   8.708
13048SOL     OW41040   3.868  14.413   3.638
13048SOL    HW141041   3.951  14.435   3.681
13048SOL    HW241042   3.816  14.493   3.644
13049SOL     OW41043  13.690   9.431  10.695
13049SOL    HW141044  13.769   9.387  10.724
13049SOL    HW241045  13.714   9.469  10.611
13050SOL     OW41046   6.523   8.037   9.883
13050SOL    HW141047   6.430   8.014   9.889
13050SOL    HW241048   6.562   7.994   9.959
13051SOL     OW41049   2.772   7.460  14.148
13051SOL    HW141050   2.817   7.544  14.157
13051SOL    HW241051   2.723   7.451  14.229
13052SOL     OW41052  10.940   3.383  12.536
13052SOL    HW141053  10.936   3.463  12.588
13052SOL    HW241054  11.028   3.349  12.553
13053SOL     OW41055   7.572   0.155   3.499
13053SOL    HW141056   7.641   0.128   3.438
13053SOL    HW241057   7.586   0.249   3.510
13054SOL     OW41058   2.222   4.458  10.203
13054SOL    HW141059   2.183   4.371  10.201
13054SOL    HW241060   2.306   4.448  10.159
13055SOL     OW41061  12.527   0.647  10.822
13055SOL    HW141062  12.608   0.695  10.805
13055SOL    HW241063  12.458   0.706  10.793
13056SOL     OW41064   9.831   3.604   2.607
13056SOL    HW141065   9.759   3.541   2.612
13056SOL    HW241066   9.787   3.689   2.594
13057SOL     OW41067   3.670   7.436   0.617
13057SOL    HW141068   3.751   7.457   0.571
13057SOL    HW241069   3.603   7.435   0.549
13058SOL     OW41070   4.622   6.493   6.966
13058SOL    HW141071   4.598   6.505   7.058
13058SOL    HW241072   4.679   6.567   6.946
13059SOL     OW41073  14.003  13.171   0.716
13059SOL    HW141074  14.036  13.253   0.752
13059SOL    HW241075  13.943  13.198   0.647
13060SOL     OW41076   4.721   5.473  10.594
13060SOL    HW141077   4.711   5.435  10.507
13060SOL    HW241078   4.768   5.555  10.579
13061SOL     OW41079   7.406   7.228   6.848
13061SOL    HW141080   7.461   7.171   6.794
13061SOL    HW241081   7.319   7.187   6.844
13062SOL     OW41082   7.400  10.034   1.259
13062SOL    HW141083   7.439   9.960   1.305
13062SOL    HW241084   7.414  10.013   1.166
13063SOL     OW41085   8.881   8.229   7.064
13063SOL    HW141086   8.793   8.192   7.072
13063SOL    HW241087   8.866   8.324   7.061
13064SOL     OW41088  10.283   2.040   7.972
13064SOL    HW141089  10.232   2.076   7.899
13064SOL    HW241090  10.359   1.999   7.932
13065SOL     OW41091   1.350  10.819  12.960
13065SOL    HW141092   1.365  10.914  12.958
13065SOL    HW241093   1.386  10.792  13.045
13066SOL     OW41094  14.336  14.843   1.463
13066SOL    HW141095  14.296  14.827   1.377
13066SOL    HW241096  14.429  14.860   1.443
13067SOL     OW41097  13.133   9.138   4.735
13067SOL    HW141098  13.194   9.077   4.693
13067SOL    HW241099  13.189   9.208   4.769
13068SOL     OW41100   4.599  12.700   8.991
13068SOL    HW141101   4.521  12.692   9.046
13068SOL    HW241102   4.606  12.793   8.973
13069SOL     OW41103   8.319  10.339   2.100
13069SOL    HW141104   8.266  10.305   2.173
13069SOL    HW241105   8.286  10.428   2.085
13070SOL     OW41106  13.000   0.165   4.206
13070SOL    HW141107  13.078   0.114   4.228
13070SOL    HW241108  13.035   0.247   4.171
13071SOL     OW41109   7.854   9.308  13.107
13071SOL    HW141110   7.815   9.365  13.173
13071SOL    HW241111   7.896   9.367  13.045
13072SOL     OW41112   2.542  11.081   9.428
13072SOL    HW141113   2.518  11.125   9.510
13072SOL    HW241114   2.549  10.988   9.452
13073SOL     OW41115   3.316  10.636   1.738
13073SOL    HW141116   3.394  10.597   1.697
13073SOL    HW241117   3.330  10.624   1.832
13074SOL     OW41118  13.805   3.226   7.993
13074SOL    HW141119  13.744   3.167   8.037
13074SOL    HW241120  13.748   3.284   7.941
13075SOL     OW41121   2.040   8.038   3.055
13075SOL    HW141122   2.011   8.111   3.001
13075SOL    HW241123   1.973   7.971   3.044
13076SOL     OW41124   1.623  14.329   1.988
13076SOL    HW141125   1.576  14.411   1.974
13076SOL    HW241126   1.558  14.260   1.975
13077SOL     OW41127  10.371   0.346   8.205
13077SOL    HW141128  10.323   0.298   8.272
13077SOL    HW241129  10.400   0.279   8.143
13078SOL     OW41130   1.546   3.021   5.729
13078SOL    HW141131   1.576   2.972   5.805
13078SOL    HW241132   1.494   3.093   5.765
13079SOL     OW41133   7.786   8.985   7.999
13079SOL    HW141134   7.864   9.021   8.042
13079SOL    HW241135   7.718   9.049   8.016
13080SOL     OW41136  13.683   0.025  14.870
13080SOL    HW141137  13.682  14.818   0.050
13080SOL    HW241138  13.695   0.096   0.061
13081SOL     OW41139   4.727   6.582   9.111
13081SOL    HW141140   4.770   6.642   9.171
13081SOL    HW241141   4.780   6.502   9.114
13082SOL     OW41142  12.355   1.488   1.508
13082SOL    HW141143  12.385   1.430   1.438
13082SOL    HW241144  12.264   1.507   1.486
13083SOL     OW41145  14.534  12.348   1.783
13083SOL    HW141146  14.489  12.420   1.739
13083SOL    HW241147  14.610  12.389   1.825
13084SOL     OW41148   8.122  11.018   7.779
13084SOL    HW141149   8.084  11.016   7.866
13084SOL    HW241150   8.197  10.959   7.783
13085SOL     OW41151   9.880  10.755   5.283
13085SOL    HW141152   9.934  10.751   5.204
13085SOL    HW241153   9.882  10.847   5.309
13086SOL     OW41154   1.966   6.215  11.688
13086SOL    HW141155   1.916   6.244  11.613
13086SOL    HW241156   1.918   6.139  11.721
13087SOL     OW41157   1.541   6.491   5.928
13087SOL    HW141158   1.548   6.438   5.849
13087SOL    HW241159   1.558   6.581   5.897
13088SOL     OW41160   8.310  10.608   6.380
13088SOL    HW141161   8.296  10.669   6.308
13088SOL    HW241162   8.288  10.522   6.344
13089SOL     OW41163  13.188   7.647  13.345
13089SOL    HW141164  13.152   7.582  13.406
13089SOL    HW241165  13.113   7.702  13.323
13090SOL     OW41166   6.690   1.093   8.945
13090SOL    HW141167   6.682   1.109   9.039
13090SOL    HW241168   6.767   1.037   8.937
13091SOL     OW41169   1.074   5.317   3.703
13091SOL    HW141170   1.101   5.407   3.685
13091SOL    HW241171   1.020   5.292   3.628
13092SOL     OW41172  14.860   5.400  14.575
13092SOL    HW141173  14.865   5.313  14.537
13092SOL    HW241174  14.776   5.401  14.621
13093SOL     OW41175   7.153   0.829   9.450
13093SOL    HW141176   7.152   0.762   9.381
13093SOL    HW241177   7.234   0.879   9.434
13094SOL     OW41178   2.649   1.191   5.613
13094SOL    HW141179   2.656   1.178   5.707
13094SOL    HW241180   2.568   1.147   5.588
13095SOL     OW41181   2.516  12.699   8.790
13095SOL    HW141182   2.505  12.646   8.869
13095SOL    HW241183   2.470  12.781   8.810
13096SOL     OW41184  12.634  10.558   6.337
13096SOL    HW141185  12.613  10.576   6.245
13096SOL    HW241186  12.673  10.640   6.369
13097SOL     OW41187   5.533   7.458   2.873
13097SOL    HW141188   5.613   7.501   2.901
13097SOL    HW241189   5.463   7.520   2.896
13098SOL     OW41190   1.380   5.984   7.436
13098SOL    HW141191   1.370   6.071   7.399
13098SOL    HW241192   1.384   5.999   7.531
13099SOL     OW41193  11.091  11.628   3.390
13099SOL    HW141194  11.137  11.712   3.386
13099SOL    HW241195  11.108  11.596   3.479
13100SOL     OW41196   7.084   3.059  13.030
13100SOL    HW141197   7.139   3.007  12.972
13100SOL    HW241198   7.018   3.098  12.972
13101SOL     OW41199   7.518   3.855   7.593
13101SOL    HW141200   7.560   3.941   7.590
13101SOL    HW241201   7.424   3.873   7.590
13102SOL     OW41202  13.400   8.058   0.024
13102SOL    HW141203  13.400   8.006  14.816
13102SOL    HW241204  13.310   8.090   0.033
13103SOL     OW41205  14.159   3.387   4.007
13103SOL    HW141206  14.085   3.400   3.946
13103SOL    HW241207  14.135   3.310   4.058
13104SOL     OW41208  13.578  13.716   0.560
13104SOL    HW141209  13.502  13.706   0.502
13104SOL    HW241210  13.540  13.729   0.647
13105SOL     OW41211   0.920  11.753   7.950
13105SOL    HW141212   0.937  11.840   7.986
13105SOL    HW241213   0.863  11.769   7.875
13106SOL     OW41214  13.073   4.814   5.760
13106SOL    HW141215  13.019   4.884   5.797
13106SOL    HW241216  13.097   4.761   5.836
13107SOL     OW41217   3.056  10.120   6.471
13107SOL    HW141218   3.033  10.046   6.415
13107SOL    HW241219   3.040  10.089   6.560
13108SOL     OW41220  12.981   8.904  10.721
13108SOL    HW141221  12.925   8.971  10.760
13108SOL    HW241222  13.070   8.933  10.739
13109SOL     OW41223  13.535   7.354   1.595
13109SOL    HW141224  13.509   7.267   1.626
13109SOL    HW241225  13.470   7.413   1.633
13110SOL     OW41226   8.830  13.086   1.163
13110SOL    HW141227   8.747  13.059   1.203
13110SOL    HW241228   8.836  13.035   1.082
13111SOL     OW41229   7.975   7.873  12.755
13111SOL    HW141230   7.914   7.832  12.694
13111SOL    HW241231   7.985   7.808  12.825
13112SOL     OW41232   4.417  12.920  14.552
13112SOL    HW141233   4.418  12.944  14.645
13112SOL    HW241234   4.325  12.925  14.527
13113SOL     OW41235  14.870   0.217   1.315
13113SOL    HW141236   0.026   0.133   1.280
13113SOL    HW241237   0.003   0.207   1.410
13114SOL     OW41238  13.891   6.054  10.301
13114SOL    HW141239  13.818   6.008  10.259
13114SOL    HW241240  13.966   6.038  10.243
13115SOL     OW41241   2.622   7.478  14.402
13115SOL    HW141242   2.599   7.569  14.386
13115SOL    HW241243   2.540   7.437  14.431
13116SOL     OW41244   6.786   8.270   5.663
13116SOL    HW141245   6.816   8.294   5.751
13116SOL    HW241246   6.805   8.176   5.656
13117SOL     OW41247   2.706   1.386   1.726
13117SOL    HW141248   2.611   1.399   1.721
13117SOL    HW241249   2.718   1.327   1.801
13118SOL     OW41250   7.214   1.046  12.593
13118SOL    HW141251   7.178   1.120  12.643
13118SOL    HW241252   7.308   1.064  12.587
13119SOL     OW41253   2.911   5.439  12.296
13119SOL    HW141254   2.864   5.478  12.223
13119SOL    HW241255   2.857   5.457  12.373
13120SOL     OW41256  10.871   2.008   3.360
13120SOL    HW141257  10.822   1.933   3.328
13120SOL    HW241258  10.808   2.079   3.362
13121SOL     OW41259   7.668   2.265  13.289
13121SOL    HW141260   7.615   2.230  13.216
13121SOL    HW241261   7.735   2.199  13.303
13122SOL     OW41262  13.264  12.299  11.528
13122SOL    HW141263  13.272  12.206  11.549
13122SOL    HW241264  13.352  12.325  11.502
13123SOL     OW41265   3.401   1.111   2.437
13123SOL    HW141266   3.425   1.157   2.356
13123SOL    HW241267   3.329   1.054   2.411
13124SOL     OW41268   6.967   0.044  12.275
13124SOL    HW141269   7.043   0.079  12.321
13124SOL    HW241270   6.942   0.114  12.214
13125SOL     OW41271   5.288  11.375  13.695
13125SOL    HW141272   5.249  11.365  13.608
13125SOL    HW241273   5.279  11.289  13.736
13126SOL     OW41274   0.482   6.776   9.479
13126SOL    HW141275   0.390   6.801   9.471
13126SOL    HW241276   0.494   6.708   9.413
13127SOL     OW41277  12.081   7.812  14.205
13127SOL    HW141278  12.043   7.725  14.197
13127SOL    HW241279  12.176   7.797  14.200
13128SOL     OW41280   3.863   1.538   7.217
13128SOL    HW141281   3.768   1.551   7.212
13128SOL    HW241282   3.898   1.601   7.154
13129SOL     OW41283  10.989   5.346   5.813
13129SOL    HW141284  10.942   5.397   5.880
13129SOL    HW241285  11.056   5.407   5.781
13130SOL     OW41286   0.647   2.566   0.966
13130SOL    HW141287   0.644   2.481   0.922
13130SOL    HW241288   0.727   2.607   0.932
13131SOL     OW41289   8.598   4.760  12.000
13131SOL    HW141290   8.555   4.844  12.017
13131SOL    HW241291   8.567   4.702  12.069
13132SOL     OW41292  11.861   9.827   0.012
13132SOL    HW141293  11.826   9.746  14.848
13132SOL    HW241294  11.814   9.897  14.840
13133SOL     OW41295   6.032   6.726   7.728
13133SOL    HW141296   6.119   6.747   7.696
13133SOL    HW241297   5.972   6.772   7.669
13134SOL     OW41298  12.815   5.882   0.209
13134SOL    HW141299  12.886   5.833   0.252
13134SOL    HW241300  12.802   5.958   0.266
13135SOL     OW41301  11.368   2.731  12.079
13135SOL    HW141302  11.336   2.756  12.166
13135SOL    HW241303  11.361   2.811  12.027
13136SOL     OW41304   9.184   3.172  14.159
13136SOL    HW141305   9.155   3.148  14.071
13136SOL    HW241306   9.163   3.095  14.212
13137SOL     OW41307   5.886   5.232  12.797
13137SOL    HW141308   5.914   5.323  12.810
13137SOL    HW241309   5.867   5.226  12.703
13138SOL     OW41310   3.837  10.749   5.418
13138SOL    HW141311   3.835  10.800   5.337
13138SOL    HW241312   3.745  10.732   5.438
13139SOL     OW41313   4.111  10.589   3.256
13139SOL    HW141314   4.095  10.621   3.167
13139SOL    HW241315   4.158  10.507   3.244
13140SOL     OW41316   0.636  11.210  14.171
13140SOL    HW141317   0.555  11.174  14.207
13140SOL    HW241318   0.686  11.133  14.143
13141SOL     OW41319   8.153   1.900  11.196
13141SOL    HW141320   8.104   1.834  11.245
13141SOL    HW241321   8.154   1.867  11.106
13142SOL     OW41322   4.978   9.778   6.506
13142SOL    HW141323   4.893   9.743   6.479
13142SOL    HW241324   4.961   9.822   6.589
13143SOL     OW41325   2.211   9.695   9.131
13143SOL    HW141326   2.206   9.609   9.173
13143SOL    HW241327   2.134   9.699   9.075
13144SOL     OW41328  10.667   3.831  10.170
13144SOL    HW141329  10.602   3.900  10.153
13144SOL    HW241330  10.692   3.801  10.082
13145SOL     OW41331   5.017   3.062  12.391
13145SOL    HW141332   5.080   3.119  12.434
13145SOL    HW241333   5.050   2.973  12.407
13146SOL     OW41334   5.013  13.099   7.320
13146SOL    HW141335   4.942  13.128   7.377
13146SOL    HW241336   4.982  13.117   7.231
13147SOL     OW41337   5.736  13.456   8.123
13147SOL    HW141338   5.774  13.525   8.069
13147SOL    HW241339   5.662  13.498   8.167
13148SOL     OW41340   9.390   2.814  14.694
13148SOL    HW141341   9.430   2.752  14.633
13148SOL    HW241342   9.346   2.878  14.637
13149SOL     OW41343   4.596   9.564   6.631
13149SOL    HW141344   4.638   9.480   6.612
13149SOL    HW241345   4.637   9.626   6.571
13150SOL     OW41346   3.023  10.385  13.824
13150SOL    HW141347   3.017  10.381  13.920
13150SOL    HW241348   3.061  10.301  13.800
13151SOL     OW41349   5.380  10.339   8.363
13151SOL    HW141350   5.405  10.265   8.419
13151SOL    HW241351   5.451  10.402   8.373
13152SOL     OW41352   1.116   6.485  13.161
13152SOL    HW141353   1.115   6.553  13.093
13152SOL    HW241354   1.178   6.420  13.128
13153SOL     OW41355   5.232   3.934   8.726
13153SOL    HW141356   5.311   3.944   8.673
13153SOL    HW241357   5.262   3.947   8.816
13154SOL     OW41358   0.888  13.287   4.151
13154SOL    HW141359   0.828  13.279   4.225
13154SOL    HW241360   0.832  13.286   4.074
13155SOL     OW41361   1.972   8.506   1.988
13155SOL    HW141362   1.933   8.522   2.073
13155SOL    HW241363   1.914   8.441   1.947
13156SOL     OW41364  10.864  14.016   3.780
13156SOL    HW141365  10.787  13.967   3.749
13156SOL    HW241366  10.911  14.039   3.700
13157SOL     OW41367  11.619  12.363  11.800
13157SOL    HW141368  11.647  12.271  11.797
13157SOL    HW241369  11.563  12.368  11.877
13158SOL     OW41370   3.128  13.021   4.935
13158SOL    HW141371   3.191  12.950   4.943
13158SOL    HW241372   3.047  12.984   4.970
13159SOL     OW41373   0.194   5.578   1.428
13159SOL    HW141374   0.248   5.606   1.502
13159SOL    HW241375   0.252   5.524   1.375
13160SOL     OW41376   1.651  13.013   7.119
13160SOL    HW141377   1.612  13.097   7.094
13160SOL    HW241378   1.589  12.948   7.086
13161SOL     OW41379   9.131   8.521   2.259
13161SOL    HW141380   9.209   8.468   2.277
13161SOL    HW241381   9.062   8.457   2.242
13162SOL     OW41382   1.777   2.178  13.505
13162SOL    HW141383   1.773   2.083  13.488
13162SOL    HW241384   1.705   2.194  13.566
13163SOL     OW41385   8.778   0.186   2.179
13163SOL    HW141386   8.874   0.186   2.172
13163SOL    HW241387   8.756   0.276   2.205
13164SOL     OW41388   6.123   5.266  11.967
13164SOL    HW141389   6.047   5.226  12.010
13164SOL    HW241390   6.124   5.356  11.998
13165SOL     OW41391  12.186  12.288   9.330
13165SOL    HW141392  12.141  12.310   9.249
13165SOL    HW241393  12.117  12.254   9.387
13166SOL     OW41394  11.360  12.476  13.931
13166SOL    HW141395  11.416  12.484  14.008
13166SOL    HW241396  11.315  12.560  13.925
13167SOL     OW41397   1.470   5.698   7.431
13167SOL    HW141398   1.526   5.670   7.503
13167SOL    HW241399   1.383   5.708   7.470
13168SOL     OW41400   7.880   1.115   4.297
13168SOL    HW141401   7.901   1.202   4.264
13168SOL    HW241402   7.786   1.105   4.283
13169SOL     OW41403  13.564  11.974   2.468
13169SOL    HW141404  13.641  12.012   2.424
13169SOL    HW241405  13.503  11.955   2.396
13170SOL     OW41406   3.187  12.763  11.537
13170SOL    HW141407   3.141  12.790  11.616
13170SOL    HW241408   3.143  12.682  11.509
13171SOL     OW41409   4.330  12.979   7.363
13171SOL    HW141410   4.374  12.896   7.380
13171SOL    HW241411   4.364  13.038   7.431
13172SOL     OW41412   0.307   8.065   8.844
13172SOL    HW141413   0.299   7.991   8.905
13172SOL    HW241414   0.319   8.024   8.759
13173SOL     OW41415   2.300   4.916   6.848
13173SOL    HW141416   2.222   4.969   6.865
13173SOL    HW241417   2.310   4.863   6.927
13174SOL     OW41418  11.135   8.014   3.011
13174SOL    HW141419  11.204   8.059   2.961
13174SOL    HW241420  11.054   8.039   2.967
13175SOL     OW41421   8.376  14.226   8.455
13175SOL    HW141422   8.333  14.282   8.518
13175SOL    HW241423   8.310  14.210   8.387
13176SOL     OW41424   7.420   0.603  13.945
13176SOL    HW141425   7.337   0.650  13.935
13176SOL    HW241426   7.398   0.512  13.925
13177SOL     OW41427  11.868  11.205   8.671
13177SOL    HW141428  11.857  11.111   8.657
13177SOL    HW241429  11.929  11.232   8.601
13178SOL     OW41430   8.590   1.957   4.550
13178SOL    HW141431   8.521   2.021   4.572
13178SOL    HW241432   8.544   1.890   4.500
13179SOL     OW41433  10.968   8.260   8.774
13179SOL    HW141434  10.955   8.341   8.725
13179SOL    HW241435  10.886   8.213   8.766
13180SOL     OW41436   3.461   3.004   2.973
13180SOL    HW141437   3.538   2.989   3.026
13180SOL    HW241438   3.488   2.980   2.884
13181SOL     OW41439   2.280   4.036   4.497
13181SOL    HW141440   2.341   4.078   4.557
13181SOL    HW241441   2.320   3.951   4.477
13182SOL     OW41442  11.368  12.681   9.460
13182SOL    HW141443  11.278  12.659   9.434
13182SOL    HW241444  11.376  12.648   9.549
13183SOL     OW41445   6.800   3.596  12.503
13183SOL    HW141446   6.775   3.635  12.420
13183SOL    HW241447   6.768   3.506  12.497
13184SOL     OW41448   3.771  10.489   8.274
13184SOL    HW141449   3.710  10.548   8.231
13184SOL    HW241450   3.787  10.529   8.360
13185SOL     OW41451   8.912  13.030   6.154
13185SOL    HW141452   8.844  13.096   6.141
13185SOL    HW241453   8.941  13.008   6.065
13186SOL     OW41454   1.866   9.433   6.286
13186SOL    HW141455   1.947   9.471   6.253
13186SOL    HW241456   1.878   9.338   6.274
13187SOL     OW41457  11.620   6.015   7.044
13187SOL    HW141458  11.709   5.985   7.063
13187SOL    HW241459  11.583   6.037   7.129
13188SOL     OW41460   0.741   8.440   3.490
13188SOL    HW141461   0.743   8.500   3.416
13188SOL    HW241462   0.656   8.396   3.483
13189SOL     OW41463   6.270   7.766   4.739
13189SOL    HW141464   6.313   7.790   4.657
13189SOL    HW241465   6.219   7.688   4.717
13190SOL     OW41466  11.044  10.662   7.782
13190SOL    HW141467  11.045  10.661   7.878
13190SOL    HW241468  11.137  10.670   7.758
13191SOL     OW41469   1.425   8.331   7.812
13191SOL    HW141470   1.435   8.424   7.833
13191SOL    HW241471   1.392   8.292   7.893
13192SOL     OW41472  10.399   0.897   0.980
13192SOL    HW141473  10.436   0.825   0.930
13192SOL    HW241474  10.471   0.929   1.034
13193SOL     OW41475   7.267   5.542   8.706
13193SOL    HW141476   7.343   5.578   8.752
13193SOL    HW241477   7.264   5.590   8.623
13194SOL     OW41478  14.396  10.945   8.848
13194SOL    HW141479  14.479  10.898   8.853
13194SOL    HW241480  14.334  10.880   8.814
13195SOL     OW41481   2.064   2.546   9.016
13195SOL    HW141482   2.149   2.503   9.005
13195SOL    HW241483   2.031   2.556   8.926
13196SOL     OW41484   9.031   5.662  10.536
13196SOL    HW141485   8.962   5.715  10.575
13196SOL    HW241486   9.002   5.572  10.550
13197SOL     OW41487   4.889   3.636   8.726
13197SOL    HW141488   4.904   3.681   8.643
13197SOL    HW241489   4.963   3.577   8.735
13198SOL     OW41490  12.672  10.896  14.523
13198SOL    HW141491  12.587  10.915  14.482
13198SOL    HW241492  12.678  10.800  14.521
13199SOL     OW41493   3.791  13.640   6.055
13199SOL    HW141494   3.789  13.700   6.130
13199SOL    HW241495   3.788  13.553   6.095
13200SOL     OW41496   3.427   0.165   8.219
13200SOL    HW141497   3.377   0.096   8.264
13200SOL    HW241498   3.452   0.125   8.136
13201SOL     OW41499   8.018   9.600   3.688
13201SOL    HW141500   7.976   9.637   3.766
13201SOL    HW241501   8.071   9.528   3.722
13202SOL     OW41502   0.932  13.130  14.458
13202SOL    HW141503   0.902  13.092  14.540
13202SOL    HW241504   0.903  13.222  14.461
13203SOL     OW41505   9.745  13.004   0.835
13203SOL    HW141506   9.809  12.953   0.785
13203SOL    HW241507   9.798  13.065   0.886
13204SOL     OW41508   3.823   0.962   5.993
13204SOL    HW141509   3.877   1.038   6.017
13204SOL    HW241510   3.776   0.989   5.914
13205SOL     OW41511  14.151   6.442   5.572
13205SOL    HW141512  14.080   6.506   5.565
13205SOL    HW241513  14.218   6.474   5.513
13206SOL     OW41514  12.655   0.377  11.250
13206SOL    HW141515  12.744   0.342  11.245
13206SOL    HW241516  12.653   0.446  11.185
13207SOL     OW41517  14.193  10.755   8.787
13207SOL    HW141518  14.105  10.756   8.824
13207SOL    HW241519  14.201  10.668   8.746
13208SOL     OW41520   7.221   2.097   7.289
13208SOL    HW141521   7.249   2.006   7.278
13208SOL    HW241522   7.302   2.145   7.309
13209SOL     OW41523   4.800  14.858   0.854
13209SOL    HW141524   4.880   0.008   0.901
13209SOL    HW241525   4.743   0.062   0.866
13210SOL     OW41526  12.532  10.624   7.015
13210SOL    HW141527  12.606  10.659   6.966
13210SOL    HW241528  12.527  10.532   6.990
13211SOL     OW41529   3.297   7.237  12.201
13211SOL    HW141530   3.341   7.238  12.286
13211SOL    HW241531   3.352   7.292  12.145
13212SOL     OW41532   4.990  14.733   4.626
13212SOL    HW141533   5.015  14.647   4.592
13212SOL    HW241534   5.069  14.764   4.671
13213SOL     OW41535  13.599   1.399   3.830
13213SOL    HW141536  13.530   1.334   3.846
13213SOL    HW241537  13.571   1.443   3.750
13214SOL     OW41538   3.438  13.536   5.693
13214SOL    HW141539   3.485  13.482   5.757
13214SOL    HW241540   3.348  13.504   5.697
13215SOL     OW41541   1.498   2.333   6.087
13215SOL    HW141542   1.531   2.419   6.114
13215SOL    HW241543   1.433   2.310   6.154
13216SOL     OW41544   0.092  14.105   3.292
13216SOL    HW141545   0.108  14.105   3.387
13216SOL    HW241546  14.871  14.123   3.283
13217SOL     OW41547   2.702  12.944   6.388
13217SOL    HW141548   2.712  12.933   6.482
13217SOL    HW241549   2.608  12.935   6.372
13218SOL     OW41550   3.285  10.173   3.669
13218SOL    HW141551   3.223  10.131   3.729
13218SOL    HW241552   3.371  10.158   3.708
13219SOL     OW41553   1.560   2.705  10.386
13219SOL    HW141554   1.491   2.755  10.430
13219SOL    HW241555   1.548   2.725  10.294
13220SOL     OW41556  13.053   9.368   1.931
13220SOL    HW141557  13.145   9.385   1.947
13220SOL    HW241558  13.033   9.289   1.981
13221SOL     OW41559   8.475  13.210  13.385
13221SOL    HW141560   8.404  13.240  13.327
13221SOL    HW241561   8.446  13.235  13.473
13222SOL     OW41562  12.720   6.758  14.167
13222SOL    HW141563  12.688   6.710  14.244
13222SOL    HW241564  12.645   6.760  14.108
13223SOL     OW41565  14.205   7.801   6.057
13223SOL    HW141566  14.223   7.783   6.150
13223SOL    HW241567  14.184   7.894   6.054
13224SOL     OW41568   0.498   5.234  14.743
13224SOL    HW141569   0.549   5.213  14.821
13224SOL    HW241570   0.462   5.321  14.760
13225SOL     OW41571   5.647  11.368   4.867
13225SOL    HW141572   5.708  11.346   4.937
13225SOL    HW241573   5.570  11.313   4.885
13226SOL     OW41574   1.739   4.404   5.205
13226SOL    HW141575   1.796   4.438   5.274
13226SOL    HW241576   1.747   4.467   5.133
13227SOL     OW41577  11.868   0.179  12.224
13227SOL    HW141578  11.924   0.106  12.252
13227SOL    HW241579  11.895   0.196  12.134
13228SOL     OW41580  12.438   4.240   5.101
13228SOL    HW141581  12.500   4.313   5.108
13228SOL    HW241582  12.478   4.179   5.039
13229SOL     OW41583   9.151  13.917  12.098
13229SOL    HW141584   9.079  13.955  12.149
13229SOL    HW241585   9.211  13.990  12.084
13230SOL     OW41586   8.349   0.835  11.355
13230SOL    HW141587   8.321   0.748  11.383
13230SOL    HW241588   8.396   0.820  11.273
13231SOL     OW41589   4.662   5.537   7.630
13231SOL    HW141590   4.594   5.528   7.697
13231SOL    HW241591   4.741   5.560   7.679
13232SOL     OW41592  13.999  13.922   7.086
13232SOL    HW141593  13.908  13.948   7.102
13232SOL    HW241594  14.040  13.924   7.172
13233SOL     OW41595   2.168   7.193  12.958
13233SOL    HW141596   2.088   7.199  12.906
13233SOL    HW241597   2.206   7.109  12.932
13234SOL     OW41598   3.835   0.749  11.083
13234SOL    HW141599   3.898   0.763  11.153
13234SOL    HW241600   3.754   0.725  11.128
13235SOL     OW41601   7.560   1.930   3.546
13235SOL    HW141602   7.636   1.884   3.581
13235SOL    HW241603   7.517   1.967   3.624
13236SOL     OW41604  10.866  14.301   8.765
13236SOL    HW141605  10.847  14.257   8.847
13236SOL    HW241606  10.780  14.322   8.729
13237SOL     OW41607   1.705  14.444   1.165
13237SOL    HW141608   1.668  14.486   1.243
13237SOL    HW241609   1.675  14.499   1.093
13238SOL     OW41610   9.114   7.048  12.438
13238SOL    HW141611   9.134   6.957  12.461
13238SOL    HW241612   9.172   7.068  12.365
13239SOL     OW41613   1.350   0.236  10.635
13239SOL    HW141614   1.391   0.294  10.699
13239SOL    HW241615   1.324   0.295  10.564
13240SOL     OW41616   2.110  10.098   1.690
13240SOL    HW141617   2.068  10.017   1.660
13240SOL    HW241618   2.108  10.156   1.613
13241SOL     OW41619   4.520  11.865   7.904
13241SOL    HW141620   4.451  11.911   7.857
13241SOL    HW241621   4.475  11.822   7.977
13242SOL     OW41622  14.668  14.296  11.138
13242SOL    HW141623  14.621  14.376  11.116
13242SOL    HW241624  14.600  14.231  11.154
13243SOL     OW41625   9.535  11.749   5.884
13243SOL    HW141626   9.605  11.776   5.943
13243SOL    HW241627   9.458  11.741   5.940
13244SOL     OW41628   2.730   0.023  13.922
13244SOL    HW141629   2.635   0.019  13.932
13244SOL    HW241630   2.753  14.813  13.878
13245SOL     OW41631   2.510   3.481  11.860
13245SOL    HW141632   2.581   3.496  11.797
13245SOL    HW241633   2.526   3.393  11.894
13246SOL     OW41634   0.930  12.329   5.355
13246SOL    HW141635   0.913  12.253   5.410
13246SOL    HW241636   0.898  12.303   5.268
13247SOL     OW41637   2.078  12.007   0.620
13247SOL    HW141638   2.170  12.024   0.599
13247SOL    HW241639   2.079  11.921   0.661
13248SOL     OW41640   6.287   2.320   5.598
13248SOL    HW141641   6.344   2.250   5.629
13248SOL    HW241642   6.325   2.400   5.633
13249SOL     OW41643   1.743   7.666   5.961
13249SOL    HW141644   1.760   7.595   6.023
13249SOL    HW241645   1.750   7.625   5.875
13250SOL     OW41646  13.258   7.753   0.768
13250SOL    HW141647  13.231   7.714   0.851
13250SOL    HW241648  13.340   7.709   0.747
13251SOL     OW41649   6.399  10.215   4.883
13251SOL    HW141650   6.332  10.230   4.817
13251SOL    HW241651   6.443  10.299   4.892
13252SOL     OW41652  13.748  13.074   0.216
13252SOL    HW141653  13.758  13.057   0.122
13252SOL    HW241654  13.781  12.995   0.258
13253SOL     OW41655  10.051  11.469   0.846
13253SOL    HW141656  10.001  11.388   0.853
13253SOL    HW241657  10.010  11.517   0.774
13254SOL     OW41658   1.721   2.473   0.462
13254SOL    HW141659   1.664   2.408   0.503
13254SOL    HW241660   1.797   2.423   0.432
13255SOL     OW41661  10.227   7.030   5.428
13255SOL    HW141662  10.170   7.099   5.393
13255SOL    HW241663  10.237   6.968   5.356
13256SOL     OW41664  11.357  11.079   6.196
13256SOL    HW141665  11.399  11.162   6.218
13256SOL    HW241666  11.365  11.072   6.101
13257SOL     OW41667   0.879   5.033   9.737
13257SOL    HW141668   0.925   5.014   9.819
13257SOL    HW241669   0.788   5.011   9.756
13258SOL     OW41670  14.616  13.200   3.667
13258SOL    HW141671  14.558  13.136   3.624
13258SOL    HW241672  14.672  13.232   3.596
13259SOL     OW41673  12.941   8.610   8.643
13259SOL    HW141674  12.910   8.663   8.570
13259SOL    HW241675  12.871   8.547   8.658
13260SOL     OW41676   5.693  12.596  14.334
13260SOL    HW141677   5.679  12.504  14.310
13260SOL    HW241678   5.763  12.625  14.275
13261SOL     OW41679   3.928   4.877   5.242
13261SOL    HW141680   3.852   4.901   5.296
13261SOL    HW241681   3.987   4.833   5.303
13262SOL     OW41682  11.180  10.049   4.272
13262SOL    HW141683  11.222   9.986   4.331
13262SOL    HW241684  11.157   9.997   4.195
13263SOL     OW41685  12.744   3.562   2.328
13263SOL    HW141686  12.808   3.532   2.393
13263SOL    HW241687  12.663   3.518   2.353
13264SOL     OW41688   7.902  12.523   1.858
13264SOL    HW141689   7.910  12.427   1.858
13264SOL    HW241690   7.952  12.551   1.934
13265SOL     OW41691   4.359   2.494  10.605
13265SOL    HW141692   4.389   2.550  10.676
13265SOL    HW241693   4.372   2.405  10.638
13266SOL     OW41694   3.621   9.992   7.215
13266SOL    HW141695   3.666  10.014   7.133
13266SOL    HW241696   3.577  10.073   7.240
13267SOL     OW41697  11.346  11.339   7.679
13267SOL    HW141698  11.382  11.408   7.623
13267SOL    HW241699  11.372  11.257   7.636
13268SOL     OW41700   2.623   3.496   1.856
13268SOL    HW141701   2.577   3.571   1.895
13268SOL    HW241702   2.565   3.468   1.785
13269SOL     OW41703   7.509   1.131   6.798
13269SOL    HW141704   7.570   1.058   6.800
13269SOL    HW241705   7.541   1.188   6.728
13270SOL     OW41706  14.701   2.206  12.318
13270SOL    HW141707  14.785   2.172  12.350
13270SOL    HW241708  14.641   2.197  12.392
13271SOL     OW41709  12.825  11.834   3.680
13271SOL    HW141710  12.784  11.848   3.765
13271SOL    HW241711  12.799  11.910   3.628
13272SOL     OW41712   7.329   7.739  10.224
13272SOL    HW141713   7.414   7.700  10.204
13272SOL    HW241714   7.307   7.790  10.146
13273SOL     OW41715   4.728   6.853   6.370
13273SOL    HW141716   4.728   6.948   6.381
13273SOL    HW241717   4.772   6.819   6.449
13274SOL     OW41718   5.243   6.899  12.602
13274SOL    HW141719   5.268   6.986  12.570
13274SOL    HW241720   5.229   6.911  12.696
13275SOL     OW41721  14.264   6.817   7.856
13275SOL    HW141722  14.247   6.803   7.949
13275SOL    HW241723  14.180   6.844   7.819
13276SOL     OW41724  11.366  14.270   1.027
13276SOL    HW141725  11.291  14.292   1.082
13276SOL    HW241726  11.330  14.215   0.958
13277SOL     OW41727   0.116  12.473   3.350
13277SOL    HW141728   0.082  12.387   3.373
13277SOL    HW241729   0.141  12.466   3.258
13278SOL     OW41730  13.754   3.620   9.688
13278SOL    HW141731  13.846   3.612   9.661
13278SOL    HW241732  13.712   3.668   9.617
13279SOL     OW41733   4.078   5.307   3.088
13279SOL    HW141734   3.987   5.332   3.106
13279SOL    HW241735   4.130   5.380   3.122
13280SOL     OW41736   1.249  13.511   0.389
13280SOL    HW141737   1.341  13.530   0.371
13280SOL    HW241738   1.245  13.496   0.484
13281SOL     OW41739  13.249  10.956   2.780
13281SOL    HW141740  13.220  11.019   2.846
13281SOL    HW241741  13.334  10.926   2.810
13282SOL     OW41742   9.013  10.075  12.323
13282SOL    HW141743   9.068  10.110  12.393
13282SOL    HW241744   9.053  10.110  12.243
13283SOL     OW41745   3.845  12.880  11.402
13283SOL    HW141746   3.890  12.964  11.392
13283SOL    HW241747   3.753  12.904  11.417
13284SOL     OW41748   2.173   5.545   4.429
13284SOL    HW141749   2.141   5.490   4.358
13284SOL    HW241750   2.095   5.572   4.477
13285SOL     OW41751  11.956   8.410  12.947
13285SOL    HW141752  12.000   8.400  13.031
13285SOL    HW241753  12.026   8.434  12.886
13286SOL     OW41754   4.533   7.575   1.694
13286SOL    HW141755   4.487   7.599   1.614
13286SOL    HW241756   4.566   7.658   1.728
13287SOL     OW41757   0.475   6.527   2.294
13287SOL    HW141758   0.529   6.503   2.218
13287SOL    HW241759   0.467   6.445   2.343
13288SOL     OW41760  14.001  11.245   4.005
13288SOL    HW141761  13.925  11.282   3.958
13288SOL    HW241762  13.964  11.208   4.084
13289SOL     OW41763   8.960  11.951  11.378
13289SOL    HW141764   8.963  11.874  11.321
13289SOL    HW241765   8.867  11.972  11.386
13290SOL     OW41766   2.587   9.255   9.895
13290SOL    HW141767   2.566   9.291   9.809
13290SOL    HW241768   2.520   9.290   9.953
13291SOL     OW41769   3.506   0.124   3.617
13291SOL    HW141770   3.516   0.215   3.592
13291SOL    HW241771   3.413   0.114   3.637
13292SOL     OW41772   7.049   3.109   7.112
13292SOL    HW141773   7.136   3.082   7.082
13292SOL    HW241774   7.027   3.047   7.181
13293SOL     OW41775   1.232   2.339   3.778
13293SOL    HW141776   1.228   2.370   3.688
13293SOL    HW241777   1.240   2.418   3.831
13294SOL     OW41778  14.101  12.644   3.630
13294SOL    HW141779  14.165  12.593   3.680
13294SOL    HW241780  14.124  12.627   3.539
13295SOL     OW41781   7.686  11.920   9.158
13295SOL    HW141782   7.747  11.993   9.147
13295SOL    HW241783   7.691  11.899   9.251
13296SOL     OW41784   4.093   4.225  12.740
13296SOL    HW141785   4.104   4.167  12.665
13296SOL    HW241786   4.008   4.200  12.777
13297SOL     OW41787  12.217   8.106   2.613
13297SOL    HW141788  12.192   8.064   2.695
13297SOL    HW241789  12.310   8.088   2.603
13298SOL     OW41790   7.983   1.065   7.541
13298SOL    HW141791   8.039   1.143   7.550
13298SOL    HW241792   8.041   0.992   7.562
13299SOL     OW41793   4.845  13.903   3.574
13299SOL    HW141794   4.888  13.819   3.557
13299SOL    HW241795   4.822  13.936   3.487
13300SOL     OW41796  12.563  12.803   1.623
13300SOL    HW141797  12.482  12.854   1.633
13300SOL    HW241798  12.533  12.714   1.607
13301SOL     OW41799   2.318   1.444  12.858
13301SOL    HW141800   2.412   1.428  12.859
13301SOL    HW241801   2.279   1.358  12.869
13302SOL     OW41802   8.688  12.186  10.322
13302SOL    HW141803   8.594  12.182  10.336
13302SOL    HW241804   8.719  12.097  10.341
13303SOL     OW41805   7.578   9.242  11.249
13303SOL    HW141806   7.593   9.267  11.341
13303SOL    HW241807   7.483   9.230  11.244
13304SOL     OW41808   2.980  14.440   4.242
13304SOL    HW141809   2.971  14.362   4.188
13304SOL    HW241810   3.039  14.415   4.312
13305SOL     OW41811   6.316   5.575   4.293
13305SOL    HW141812   6.271   5.505   4.245
13305SOL    HW241813   6.271   5.655   4.267
13306SOL     OW41814   6.677   4.804  14.407
13306SOL    HW141815   6.752   4.746  14.393
13306SOL    HW241816   6.639   4.774  14.489
13307SOL     OW41817  14.209   5.631   2.075
13307SOL    HW141818  14.128   5.673   2.047
13307SOL    HW241819  14.180   5.553   2.124
13308SOL     OW41820   8.467   4.090   7.123
13308SOL    HW141821   8.407   4.022   7.155
13308SOL    HW241822   8.524   4.109   7.198
13309SOL     OW41823   0.872   0.788   3.367
13309SOL    HW141824   0.840   0.831   3.288
13309SOL    HW241825   0.957   0.829   3.383
13310SOL     OW41826   3.654   0.982   9.702
13310SOL    HW141827   3.579   0.971   9.760
13310SOL    HW241828   3.725   1.008   9.760
13311SOL     OW41829   9.506   5.266  10.350
13311SOL    HW141830   9.521   5.192  10.409
13311SOL    HW241831   9.489   5.226  10.265
13312SOL     OW41832  14.081   8.106   2.403
13312SOL    HW141833  14.075   8.015   2.431
13312SOL    HW241834  14.058   8.156   2.481
13313SOL     OW41835   9.251   4.407  11.720
13313SOL    HW141836   9.257   4.328  11.774
13313SOL    HW241837   9.341   4.422  11.689
13314SOL     OW41838   7.998   0.269   5.367
13314SOL    HW141839   7.979   0.213   5.443
13314SOL    HW241840   7.919   0.322   5.356
13315SOL     OW41841   0.531  11.570  13.601
13315SOL    HW141842   0.471  11.587  13.674
13315SOL    HW241843   0.519  11.478  13.581
13316SOL     OW41844   9.779  12.288   1.604
13316SOL    HW141845   9.870  12.290   1.636
13316SOL    HW241846   9.736  12.358   1.653
13317SOL     OW41847  14.373   9.600   9.308
13317SOL    HW141848  14.335   9.642   9.385
13317SOL    HW241849  14.298   9.581   9.251
13318SOL     OW41850  13.002   3.736   6.447
13318SOL    HW141851  13.022   3.780   6.530
13318SOL    HW241852  12.983   3.646   6.472
13319SOL     OW41853   6.627  13.924   2.527
13319SOL    HW141854   6.636  14.016   2.501
13319SOL    HW241855   6.700  13.908   2.586
13320SOL     OW41856  12.819  14.670   0.079
13320SOL    HW141857  12.765  14.592   0.086
13320SOL    HW241858  12.777  14.722   0.010
13321SOL     OW41859   8.788   1.716   9.774
13321SOL    HW141860   8.762   1.735   9.865
13321SOL    HW241861   8.801   1.621   9.772
13322SOL     OW41862  10.231   3.277   9.113
13322SOL    HW141863  10.241   3.251   9.022
13322SOL    HW241864  10.180   3.207   9.153
13323SOL     OW41865   5.517   9.366   4.225
13323SOL    HW141866   5.574   9.295   4.196
13323SOL    HW241867   5.507   9.352   4.319
13324SOL     OW41868   2.102   2.444   9.909
13324SOL    HW141869   2.063   2.527   9.935
13324SOL    HW241870   2.190   2.446   9.946
13325SOL     OW41871   3.337   4.112   4.869
13325SOL    HW141872   3.360   4.034   4.819
13325SOL    HW241873   3.242   4.105   4.883
13326SOL     OW41874   9.422  11.320   7.812
13326SOL    HW141875   9.356  11.261   7.775
13326SOL    HW241876   9.463  11.269   7.882
13327SOL     OW41877  14.617  12.807   4.588
13327SOL    HW141878  14.543  12.828   4.646
13327SOL    HW241879  14.576  12.783   4.505
13328SOL     OW41880   2.562  14.472   2.394
13328SOL    HW141881   2.475  14.479   2.434
13328SOL    HW241882   2.621  14.507   2.460
13329SOL     OW41883   4.009  13.785  11.559
13329SOL    HW141884   3.977  13.799  11.648
13329SOL    HW241885   4.090  13.736  11.571
13330SOL     OW41886   2.879  11.580  14.078
13330SOL    HW141887   2.973  11.598  14.084
13330SOL    HW241888   2.865  11.563  13.985
13331SOL     OW41889   6.386   5.174   3.695
13331SOL    HW141890   6.469   5.149   3.656
13331SOL    HW241891   6.365   5.102   3.755
13332SOL     OW41892   7.611   8.820   2.344
13332SOL    HW141893   7.692   8.836   2.393
13332SOL    HW241894   7.552   8.891   2.371
13333SOL     OW41895  11.578  11.497  10.769
13333SOL    HW141896  11.625  11.514  10.851
13333SOL    HW241897  11.548  11.583  10.740
13334SOL     OW41898   0.185  12.482  14.237
13334SOL    HW141899   0.201  12.423  14.311
13334SOL    HW241900   0.167  12.423  14.163
13335SOL     OW41901  11.273   2.836   9.379
13335SOL    HW141902  11.178   2.839   9.369
13335SOL    HW241903  11.306   2.830   9.290
13336SOL     OW41904  13.301   6.970   3.775
13336SOL    HW141905  13.311   6.897   3.714
13336SOL    HW241906  13.297   6.930   3.862
13337SOL     OW41907  14.317   9.220  10.446
13337SOL    HW141908  14.263   9.255  10.374
13337SOL    HW241909  14.407   9.231  10.416
13338SOL     OW41910   8.455  12.076  11.275
13338SOL    HW141911   8.512  12.077  11.198
13338SOL    HW241912   8.368  12.057  11.240
13339SOL     OW41913   5.551  14.184   5.099
13339SOL    HW141914   5.540  14.115   5.165
13339SOL    HW241915   5.574  14.262   5.149
13340SOL     OW41916   9.666   0.060   2.017
13340SOL    HW141917   9.757   0.059   2.047
13340SOL    HW241918   9.635  14.843   2.032
13341SOL     OW41919  12.183  13.679   3.261
13341SOL    HW141920  12.100  13.680   3.309
13341SOL    HW241921  12.159  13.695   3.170
13342SOL     OW41922   3.240   9.493   6.536
13342SOL    HW141923   3.273   9.462   6.620
13342SOL    HW241924   3.318   9.512   6.484
13343SOL     OW41925  10.547   0.138   5.542
13343SOL    HW141926  10.509   0.079   5.607
13343SOL    HW241927  10.605   0.083   5.490
13344SOL     OW41928   5.707  12.270   3.541
13344SOL    HW141929   5.657  12.352   3.532
13344SOL    HW241930   5.653  12.205   3.496
13345SOL     OW41931  13.355   8.320   7.738
13345SOL    HW141932  13.354   8.255   7.807
13345SOL    HW241933  13.360   8.404   7.784
13346SOL     OW41934   6.003   8.903  10.361
13346SOL    HW141935   5.939   8.853  10.310
13346SOL    HW241936   6.065   8.935  10.296
13347SOL     OW41937  12.803  11.662   5.121
13347SOL    HW141938  12.805  11.582   5.172
13347SOL    HW241939  12.854  11.642   5.043
13348SOL     OW41940   2.729  11.827   7.894
13348SOL    HW141941   2.820  11.856   7.893
13348SOL    HW241942   2.704  11.824   7.802
13349SOL     OW41943   6.345   1.643   0.140
13349SOL    HW141944   6.289   1.679   0.071
13349SOL    HW241945   6.312   1.682   0.221
13350SOL     OW41946  14.764  13.912  12.258
13350SOL    HW141947  14.670  13.928  12.247
13350SOL    HW241948  14.775  13.900  12.352
13351SOL     OW41949   2.144   5.959  11.514
13351SOL    HW141950   2.211   6.023  11.490
13351SOL    HW241951   2.167   5.933  11.603
13352SOL     OW41952   2.219   1.065   7.514
13352SOL    HW141953   2.285   1.069   7.445
13352SOL    HW241954   2.266   1.031   7.590
13353SOL     OW41955   2.917   4.200  12.348
13353SOL    HW141956   2.971   4.279  12.351
13353SOL    HW241957   2.979   4.128  12.346
13354SOL     OW41958   4.712   7.892   1.458
13354SOL    HW141959   4.736   7.884   1.366
13354SOL    HW241960   4.633   7.946   1.457
13355SOL     OW41961  14.467  14.456  10.107
13355SOL    HW141962  14.469  14.524  10.176
13355SOL    HW241963  14.519  14.493  10.036
13356SOL     OW41964   3.853   6.369  11.862
13356SOL    HW141965   3.896   6.410  11.787
13356SOL    HW241966   3.772   6.333  11.827
13357SOL     OW41967   6.974   9.165  11.156
13357SOL    HW141968   6.941   9.202  11.074
13357SOL    HW241969   7.026   9.235  11.195
13358SOL     OW41970  12.097   4.834   3.977
13358SOL    HW141971  12.168   4.770   3.976
13358SOL    HW241972  12.030   4.797   3.921
13359SOL     OW41973  13.307   7.505   1.716
13359SOL    HW141974  13.253   7.484   1.792
13359SOL    HW241975  13.245   7.532   1.649
13360SOL     OW41976   6.259   5.156   5.567
13360SOL    HW141977   6.306   5.184   5.488
13360SOL    HW241978   6.241   5.063   5.553
13361SOL     OW41979  11.758  14.576   8.841
13361SOL    HW141980  11.717  14.627   8.910
13361SOL    HW241981  11.743  14.485   8.866
13362SOL     OW41982   7.464   8.896   4.191
13362SOL    HW141983   7.492   8.937   4.273
13362SOL    HW241984   7.370   8.881   4.202
13363SOL     OW41985  13.859   2.114   2.676
13363SOL    HW141986  13.783   2.172   2.674
13363SOL    HW241987  13.898   2.122   2.588
13364SOL     OW41988  10.924  14.308   2.983
13364SOL    HW141989  10.976  14.355   2.917
13364SOL    HW241990  10.974  14.230   3.003
13365SOL     OW41991   0.645  10.242   1.948
13365SOL    HW141992   0.703  10.308   1.987
13365SOL    HW241993   0.675  10.159   1.984
13366SOL     OW41994  13.261   2.817   4.773
13366SOL    HW141995  13.223   2.816   4.685
13366SOL    HW241996  13.197   2.770   4.827
13367SOL     OW41997  13.337   0.795  11.955
13367SOL    HW141998  13.331   0.703  11.980
13367SOL    HW241999  13.309   0.797  11.863
13368SOL     OW42000  11.486   6.433  12.928
13368SOL    HW142001  11.425   6.506  12.915
13368SOL    HW242002  11.465   6.399  13.014
13369SOL     OW42003  11.688   0.146   6.630
13369SOL    HW142004  11.663   0.117   6.543
13369SOL    HW242005  11.606   0.177   6.669
13370SOL     OW42006   2.776   2.416   0.612
13370SOL    HW142007   2.756   2.430   0.520
13370SOL    HW242008   2.838   2.343   0.613
13371SOL     OW42009   3.803   6.811  12.831
13371SOL    HW142010   3.795   6.904  12.811
13371SOL    HW242011   3.883   6.783  12.787
13372SOL     OW42012   2.783   5.366  13.277
13372SOL    HW142013   2.701   5.350  13.323
13372SOL    HW242014   2.760   5.364  13.184
13373SOL     OW42015   8.442   6.366   9.279
13373SOL    HW142016   8.365   6.416   9.308
13373SOL    HW242017   8.411   6.318   9.202
13374SOL     OW42018   7.414   6.376   2.974
13374SOL    HW142019   7.477   6.366   3.046
13374SOL    HW242020   7.442   6.456   2.929
13375SOL     OW42021   7.677   2.045  10.288
13375SOL    HW142022   7.708   1.960  10.319
13375SOL    HW242023   7.684   2.040  10.193
13376SOL     OW42024   2.681   2.218  10.546
13376SOL    HW142025   2.659   2.125  10.544
13376SOL    HW242026   2.633   2.256  10.473
13377SOL     OW42027  11.341   9.610   6.337
13377SOL    HW142028  11.346   9.545   6.267
13377SOL    HW242029  11.248   9.635   6.340
13378SOL     OW42030   4.303   3.644  10.347
13378SOL    HW142031   4.339   3.594  10.274
13378SOL    HW242032   4.348   3.728  10.343
13379SOL     OW42033   6.172  11.163   6.366
13379SOL    HW142034   6.193  11.091   6.427
13379SOL    HW242035   6.255  11.209   6.355
13380SOL     OW42036   5.083  10.238   1.514
13380SOL    HW142037   5.146  10.308   1.530
13380SOL    HW242038   5.137  10.162   1.494
13381SOL     OW42039   2.026   1.139  10.450
13381SOL    HW142040   2.092   1.074  10.475
13381SOL    HW242041   2.013   1.126  10.357
13382SOL     OW42042   9.385   6.940   2.049
13382SOL    HW142043   9.376   6.845   2.040
13382SOL    HW242044   9.385   6.973   1.958
13383SOL     OW42045   4.789   4.853   5.856
13383SOL    HW142046   4.833   4.904   5.924
13383SOL    HW242047   4.860   4.809   5.809
13384SOL     OW42048  14.239   5.224   1.694
13384SOL    HW142049  14.191   5.185   1.767
13384SOL    HW242050  14.175   5.280   1.650
13385SOL     OW42051   3.923   7.654   7.028
13385SOL    HW142052   3.978   7.733   7.025
13385SOL    HW242053   3.901   7.644   7.121
13386SOL     OW42054   0.220  11.799   4.708
13386SOL    HW142055   0.316  11.802   4.710
13386SOL    HW242056   0.199  11.804   4.615
13387SOL     OW42057  10.840   0.937  13.385
13387SOL    HW142058  10.832   1.013  13.443
13387SOL    HW242059  10.929   0.941  13.352
13388SOL     OW42060  11.649   1.834   6.567
13388SOL    HW142061  11.566   1.791   6.547
13388SOL    HW242062  11.711   1.794   6.506
13389SOL     OW42063  11.192   9.611   3.406
13389SOL    HW142064  11.157   9.665   3.477
13389SOL    HW242065  11.132   9.625   3.333
13390SOL     OW42066   0.056  11.785   7.766
13390SOL    HW142067   0.045  11.714   7.830
13390SOL    HW242068  14.839  11.810   7.743
13391SOL     OW42069   3.802   3.597  12.413
13391SOL    HW142070   3.885   3.616  12.368
13391SOL    HW242071   3.750   3.676  12.400
13392SOL     OW42072  10.176  13.185   2.190
13392SOL    HW142073  10.092  13.227   2.209
13392SOL    HW242074  10.201  13.217   2.104
13393SOL     OW42075   9.232  10.501   3.564
13393SOL    HW142076   9.279  10.585   3.559
13393SOL    HW242077   9.301  10.435   3.566
13394SOL     OW42078   8.863   1.170   6.532
13394SOL    HW142079   8.910   1.164   6.616
13394SOL    HW242080   8.772   1.151   6.555
13395SOL     OW42081   5.231   8.838   7.314
13395SOL    HW142082   5.162   8.811   7.375
13395SOL    HW242083   5.291   8.763   7.312
13396SOL     OW42084   4.994   9.838   4.775
13396SOL    HW142085   4.909   9.882   4.769
13396SOL    HW242086   5.044   9.873   4.701
13397SOL     OW42087   6.070   9.216   4.270
13397SOL    HW142088   6.136   9.283   4.289
13397SOL    HW242089   6.073   9.206   4.175
13398SOL     OW42090   5.880   9.342  11.556
13398SOL    HW142091   5.929   9.367  11.634
13398SOL    HW242092   5.899   9.249  11.545
13399SOL     OW42093  13.514  13.315  11.414
13399SOL    HW142094  13.522  13.347  11.324
13399SOL    HW242095  13.582  13.361  11.463
13400SOL     OW42096   3.787   3.456  11.013
13400SOL    HW142097   3.821   3.405  10.939
13400SOL    HW242098   3.755   3.390  11.074
13401SOL     OW42099  11.785   2.729   1.096
13401SOL    HW142100  11.867   2.771   1.069
13401SOL    HW242101  11.770   2.662   1.030
13402SOL     OW42102   3.608  10.142   7.536
13402SOL    HW142103   3.576  10.052   7.531
13402SOL    HW242104   3.667  10.151   7.461
13403SOL     OW42105   0.852   2.759   0.880
13403SOL    HW142106   0.786   2.829   0.878
13403SOL    HW242107   0.841   2.714   0.796
13404SOL     OW42108   4.183   9.939   6.075
13404SOL    HW142109   4.232  10.020   6.061
13404SOL    HW242110   4.093   9.967   6.089
13405SOL     OW42111  10.578   0.354   6.064
13405SOL    HW142112  10.619   0.385   5.983
13405SOL    HW242113  10.549   0.265   6.044
13406SOL     OW42114  13.769   5.054   8.912
13406SOL    HW142115  13.840   5.081   8.971
13406SOL    HW242116  13.797   5.086   8.826
13407SOL     OW42117   9.657   8.674  11.555
13407SOL    HW142118   9.679   8.647  11.466
13407SOL    HW242119   9.561   8.673  11.557
13408SOL     OW42120   3.943   9.456   3.613
13408SOL    HW142121   4.000   9.379   3.610
13408SOL    HW242122   3.873   9.431   3.673
13409SOL     OW42123  14.574  14.204   1.031
13409SOL    HW142124  14.540  14.292   1.045
13409SOL    HW242125  14.517  14.147   1.083
13410SOL     OW42126   2.973  12.347   1.239
13410SOL    HW142127   3.019  12.271   1.203
13410SOL    HW242128   2.987  12.417   1.175
13411SOL     OW42129   3.685   6.065   5.962
13411SOL    HW142130   3.624   6.063   5.889
13411SOL    HW242131   3.654   6.138   6.017
13412SOL     OW42132   3.955   5.433  13.515
13412SOL    HW142133   4.003   5.352  13.531
13412SOL    HW242134   4.018   5.503  13.536
13413SOL     OW42135   0.147  11.900   3.636
13413SOL    HW142136   0.213  11.947   3.686
13413SOL    HW242137   0.177  11.809   3.636
13414SOL     OW42138  12.130  11.298  14.743
13414SOL    HW142139  12.198  11.253  14.793
13414SOL    HW242140  12.168  11.308  14.655
13415SOL     OW42141   1.538  12.129   6.339
13415SOL    HW142142   1.484  12.053   6.320
13415SOL    HW242143   1.589  12.104   6.416
13416SOL     OW42144   7.395   4.409   0.154
13416SOL    HW142145   7.441   4.480   0.109
13416SOL    HW242146   7.463   4.345   0.174
13417SOL     OW42147   7.165   1.259  10.481
13417SOL    HW142148   7.121   1.197  10.539
13417SOL    HW242149   7.193   1.207  10.406
13418SOL     OW42150  13.408  10.246  14.567
13418SOL    HW142151  13.491  10.258  14.613
13418SOL    HW242152  13.363  10.177  14.616
13419SOL     OW42153   6.103  13.609   8.343
13419SOL    HW142154   6.037  13.591   8.410
13419SOL    HW242155   6.186  13.607   8.390
13420SOL     OW42156  13.379  11.345  12.466
13420SOL    HW142157  13.320  11.370  12.537
13420SOL    HW242158  13.322  11.328  12.391
13421SOL     OW42159   5.609   0.183   8.352
13421SOL    HW142160   5.567   0.097   8.354
13421SOL    HW242161   5.648   0.189   8.265
13422SOL     OW42162   0.889   6.077   5.515
13422SOL    HW142163   0.883   6.005   5.578
13422SOL    HW242164   0.981   6.101   5.514
13423SOL     OW42165   2.969   1.927   1.507
13423SOL    HW142166   2.969   2.004   1.565
13423SOL    HW242167   3.053   1.885   1.524
13424SOL     OW42168   1.475   9.754  13.255
13424SOL    HW142169   1.544   9.809  13.218
13424SOL    HW242170   1.518   9.708  13.327
13425SOL     OW42171   0.230  11.591   9.797
13425SOL    HW142172   0.167  11.519   9.795
13425SOL    HW242173   0.190  11.657   9.854
13426SOL     OW42174  12.332   6.099   0.876
13426SOL    HW142175  12.311   6.182   0.833
13426SOL    HW242176  12.267   6.037   0.841
13427SOL     OW42177  10.189   0.181   6.934
13427SOL    HW142178  10.102   0.189   6.895
13427SOL    HW242179  10.190   0.093   6.972
13428SOL     OW42180  11.736   2.721   6.302
13428SOL    HW142181  11.714   2.814   6.296
13428SOL    HW242182  11.653   2.676   6.289
13429SOL     OW42183   3.346   8.839   8.172
13429SOL    HW142184   3.388   8.855   8.257
13429SOL    HW242185   3.333   8.926   8.135
13430SOL     OW42186   6.275   2.399   8.312
13430SOL    HW142187   6.324   2.460   8.369
13430SOL    HW242188   6.343   2.345   8.272
13431SOL     OW42189   2.578   2.672  12.444
13431SOL    HW142190   2.488   2.643  12.454
13431SOL    HW242191   2.597   2.719  12.525
13432SOL     OW42192   8.826   5.005  10.428
13432SOL    HW142193   8.885   5.064  10.381
13432SOL    HW242194   8.880   4.928  10.448
13433SOL     OW42195  11.390   4.547   6.838
13433SOL    HW142196  11.315   4.607   6.845
13433SOL    HW242197  11.367   4.473   6.895
13434SOL     OW42198  13.470   7.516   8.663
13434SOL    HW142199  13.504   7.437   8.704
13434SOL    HW242200  13.542   7.579   8.665
13435SOL     OW42201   1.084   8.272   0.732
13435SOL    HW142202   1.009   8.231   0.688
13435SOL    HW242203   1.113   8.206   0.795
13436SOL     OW42204   3.492   2.356   9.104
13436SOL    HW142205   3.570   2.407   9.125
13436SOL    HW242206   3.508   2.322   9.016
13437SOL     OW42207   9.431   5.170  10.748
13437SOL    HW142208   9.393   5.256  10.730
13437SOL    HW242209   9.358   5.119  10.783
13438SOL     OW42210   9.510   6.285  11.294
13438SOL    HW142211   9.521   6.221  11.363
13438SOL    HW242212   9.499   6.233  11.214
13439SOL     OW42213   9.292   8.386  10.781
13439SOL    HW142214   9.339   8.354  10.858
13439SOL    HW242215   9.259   8.306  10.739
13440SOL     OW42216  12.502   6.738   6.175
13440SOL    HW142217  12.578   6.745   6.118
13440SOL    HW242218  12.491   6.826   6.210
13441SOL     OW42219   2.093  10.945   1.345
13441SOL    HW142220   2.183  10.923   1.370
13441SOL    HW242221   2.092  10.938   1.249
13442SOL     OW42222  11.988   4.577  11.999
13442SOL    HW142223  11.940   4.653  12.034
13442SOL    HW242224  11.925   4.505  12.002
13443SOL     OW42225   7.563  11.220  14.278
13443SOL    HW142226   7.582  11.257  14.192
13443SOL    HW242227   7.646  11.182  14.307
13444SOL     OW42228   5.669  10.008   1.681
13444SOL    HW142229   5.730   9.958   1.627
13444SOL    HW242230   5.721  10.079   1.717
13445SOL     OW42231   9.779   2.700   9.832
13445SOL    HW142232   9.694   2.690   9.875
13445SOL    HW242233   9.773   2.647   9.753
13446SOL     OW42234  13.079  13.408   5.348
13446SOL    HW142235  13.060  13.440   5.260
13446SOL    HW242236  13.127  13.327   5.334
13447SOL     OW42237   6.494   9.990   0.354
13447SOL    HW142238   6.582   9.953   0.363
13447SOL    HW242239   6.448   9.929   0.297
13448SOL     OW42240   0.918   1.107  10.349
13448SOL    HW142241   0.936   1.030  10.403
13448SOL    HW242242   0.976   1.174  10.384
13449SOL     OW42243  12.167   7.266   9.300
13449SOL    HW142244  12.194   7.311   9.381
13449SOL    HW242245  12.075   7.246   9.314
13450SOL     OW42246  14.332   9.146  14.274
13450SOL    HW142247  14.299   9.171  14.188
13450SOL    HW242248  14.262   9.094  14.313
13451SOL     OW42249  13.299   6.086   9.587
13451SOL    HW142250  13.331   6.063   9.500
13451SOL    HW242251  13.342   6.024   9.645
13452SOL     OW42252  13.697  13.063   6.053
13452SOL    HW142253  13.720  12.983   6.005
13452SOL    HW242254  13.625  13.037   6.109
13453SOL     OW42255  13.795  13.872   9.760
13453SOL    HW142256  13.765  13.818   9.687
13453SOL    HW242257  13.721  13.929   9.780
13454SOL     OW42258   8.189  11.146   4.263
13454SOL    HW142259   8.126  11.098   4.316
13454SOL    HW242260   8.138  11.177   4.187
13455SOL     OW42261   3.499   1.403   3.866
13455SOL    HW142262   3.498   1.494   3.896
13455SOL    HW242263   3.439   1.359   3.925
13456SOL     OW42264   6.280  14.753   0.004
13456SOL    HW142265   6.246  14.818   0.066
13456SOL    HW242266   6.275  14.797  14.791
13457SOL     OW42267   3.438  13.902  13.215
13457SOL    HW142268   3.356  13.944  13.188
13457SOL    HW242269   3.505  13.944  13.160
13458SOL     OW42270   7.838   3.791  14.449
13458SOL    HW142271   7.748   3.817  14.471
13458SOL    HW242272   7.880   3.872  14.421
13459SOL     OW42273   6.436  14.470  10.904
13459SOL    HW142274   6.457  14.521  10.825
13459SOL    HW242275   6.347  14.498  10.927
13460SOL     OW42276   2.835   8.159  11.535
13460SOL    HW142277   2.926   8.174  11.508
13460SOL    HW242278   2.836   8.169  11.631
13461SOL     OW42279  11.480   0.707   7.674
13461SOL    HW142280  11.562   0.712   7.722
13461SOL    HW242281  11.422   0.770   7.716
13462SOL     OW42282   5.041   8.241   5.857
13462SOL    HW142283   5.072   8.320   5.901
13462SOL    HW242284   5.056   8.170   5.919
13463SOL     OW42285  11.130   4.740  12.709
13463SOL    HW142286  11.069   4.690  12.655
13463SOL    HW242287  11.103   4.831  12.699
13464SOL     OW42288  14.694  14.543  11.655
13464SOL    HW142289  14.689  14.638  11.644
13464SOL    HW242290  14.775  14.529  11.704
13465SOL     OW42291  12.306  11.076   1.903
13465SOL    HW142292  12.401  11.063   1.904
13465SOL    HW242293  12.276  11.034   1.984
13466SOL     OW42294   4.814   4.471  11.614
13466SOL    HW142295   4.818   4.543  11.551
13466SOL    HW242296   4.745   4.496  11.675
13467SOL     OW42297  14.737  14.843   6.510
13467SOL    HW142298  14.767   0.005   6.426
13467SOL    HW242299  14.645  14.867   6.515
13468SOL     OW42300   9.695  10.523   6.457
13468SOL    HW142301   9.724  10.540   6.367
13468SOL    HW242302   9.775  10.531   6.509
13469SOL     OW42303  11.016   0.215   0.031
13469SOL    HW142304  11.089   0.158   0.008
13469SOL    HW242305  10.959   0.161   0.085
13470SOL     OW42306   0.868   8.039   0.607
13470SOL    HW142307   0.899   7.962   0.560
13470SOL    HW242308   0.787   8.064   0.562
13471SOL     OW42309   6.528  11.910   1.137
13471SOL    HW142310   6.440  11.942   1.117
13471SOL    HW242311   6.584  11.988   1.130
13472SOL     OW42312   0.130   0.649   1.096
13472SOL    HW142313   0.061   0.663   1.032
13472SOL    HW242314   0.086   0.657   1.181
13473SOL     OW42315   6.379   3.551  10.442
13473SOL    HW142316   6.302   3.589  10.484
13473SOL    HW242317   6.378   3.459  10.468
13474SOL     OW42318   5.619  11.508  13.933
13474SOL    HW142319   5.575  11.566  13.994
13474SOL    HW242320   5.693  11.472  13.982
13475SOL     OW42321  14.277  13.056   4.869
13475SOL    HW142322  14.283  13.107   4.950
13475SOL    HW242323  14.186  13.027   4.866
13476SOL     OW42324  10.897   8.598  11.693
13476SOL    HW142325  10.931   8.561  11.775
13476SOL    HW242326  10.860   8.683  11.719
13477SOL     OW42327   4.733   1.644  11.922
13477SOL    HW142328   4.685   1.584  11.979
13477SOL    HW242329   4.777   1.587  11.859
13478SOL     OW42330   5.675   8.828   4.728
13478SOL    HW142331   5.740   8.823   4.799
13478SOL    HW242332   5.595   8.792   4.766
13479SOL     OW42333   3.115   9.143  14.678
13479SOL    HW142334   3.185   9.100  14.628
13479SOL    HW242335   3.054   9.174  14.611
13480SOL     OW42336   2.871   4.337   2.530
13480SOL    HW142337   2.910   4.420   2.560
13480SOL    HW242338   2.807   4.363   2.464
13481SOL     OW42339  13.803   9.576  11.000
13481SOL    HW142340  13.732   9.565  10.936
13481SOL    HW242341  13.839   9.662  10.980
13482SOL     OW42342   7.082   1.772  14.407
13482SOL    HW142343   7.013   1.732  14.460
13482SOL    HW242344   7.164   1.743  14.447
13483SOL     OW42345   9.196  14.650   6.545
13483SOL    HW142346   9.191  14.720   6.610
13483SOL    HW242347   9.106  14.619   6.536
13484SOL     OW42348   4.329  13.101   8.743
13484SOL    HW142349   4.341  13.009   8.718
13484SOL    HW242350   4.317  13.147   8.660
13485SOL     OW42351   4.461   8.727  10.783
13485SOL    HW142352   4.431   8.643  10.746
13485SOL    HW242353   4.505   8.703  10.864
13486SOL     OW42354  10.565   5.062   6.459
13486SOL    HW142355  10.499   5.032   6.397
13486SOL    HW242356  10.640   5.086   6.404
13487SOL     OW42357   5.244  13.190   5.471
13487SOL    HW142358   5.273  13.100   5.461
13487SOL    HW242359   5.321  13.243   5.451
13488SOL     OW42360   3.795   2.719   6.143
13488SOL    HW142361   3.722   2.727   6.081
13488SOL    HW242362   3.759   2.668   6.215
13489SOL     OW42363   9.663   1.913   6.498
13489SOL    HW142364   9.631   1.883   6.413
13489SOL    HW242365   9.726   1.846   6.524
13490SOL     OW42366   7.827  14.812  11.112
13490SOL    HW142367   7.887  14.738  11.114
13490SOL    HW242368   7.739  14.772  11.111
13491SOL     OW42369  10.676   9.144   8.318
13491SOL    HW142370  10.710   9.233   8.309
13491SOL    HW242371  10.586   9.149   8.286
13492SOL     OW42372  12.980   2.591   7.540
13492SOL    HW142373  13.042   2.616   7.472
13492SOL    HW242374  12.910   2.656   7.534
13493SOL     OW42375   2.617   0.765  12.518
13493SOL    HW142376   2.660   0.739  12.437
13493SOL    HW242377   2.688   0.775  12.581
13494SOL     OW42378  10.161  11.002   4.972
13494SOL    HW142379  10.092  11.069   4.967
13494SOL    HW242380  10.138  10.939   4.904
13495SOL     OW42381  10.192   8.277   2.620
13495SOL    HW142382  10.173   8.275   2.714
13495SOL    HW242383  10.115   8.237   2.579
13496SOL     OW42384   5.093   6.213   9.578
13496SOL    HW142385   5.096   6.286   9.639
13496SOL    HW242386   5.162   6.153   9.609
13497SOL     OW42387   4.886  11.852   0.393
13497SOL    HW142388   4.903  11.929   0.339
13497SOL    HW242389   4.971  11.807   0.397
13498SOL     OW42390  11.713   8.726  14.172
13498SOL    HW142391  11.688   8.754  14.084
13498SOL    HW242392  11.769   8.650  14.158
13499SOL     OW42393   4.391   1.449   3.428
13499SOL    HW142394   4.484   1.455   3.451
13499SOL    HW242395   4.347   1.502   3.494
13500SOL     OW42396   9.063   8.061  13.474
13500SOL    HW142397   9.007   8.000  13.523
13500SOL    HW242398   9.020   8.071  13.389
13501SOL     OW42399   7.232  11.001  14.600
13501SOL    HW142400   7.216  11.076  14.657
13501SOL    HW242401   7.160  10.940  14.619
13502SOL     OW42402   5.883  11.821   3.113
13502SOL    HW142403   5.859  11.776   3.194
13502SOL    HW242404   5.976  11.800   3.101
13503SOL     OW42405   5.692  12.109   7.603
13503SOL    HW142406   5.717  12.109   7.510
13503SOL    HW242407   5.603  12.143   7.603
13504SOL     OW42408   8.201   0.343   7.392
13504SOL    HW142409   8.290   0.372   7.374
13504SOL    HW242410   8.159   0.338   7.306
13505SOL     OW42411   0.250   6.904  10.495
13505SOL    HW142412   0.183   6.948  10.546
13505SOL    HW242413   0.249   6.948  10.410
13506SOL     OW42414   9.918   9.324   5.277
13506SOL    HW142415   9.902   9.292   5.188
13506SOL    HW242416   9.893   9.416   5.274
13507SOL     OW42417   4.676  10.358   4.332
13507SOL    HW142418   4.644  10.448   4.324
13507SOL    HW242419   4.697  10.332   4.242
13508SOL     OW42420   5.937  12.140   3.626
13508SOL    HW142421   6.014  12.187   3.594
13508SOL    HW242422   5.863  12.189   3.590
13509SOL     OW42423   8.581   7.392   7.385
13509SOL    HW142424   8.554   7.347   7.465
13509SOL    HW242425   8.666   7.431   7.407
13510SOL     OW42426  12.285   6.469  13.016
13510SOL    HW142427  12.286   6.380  12.980
13510SOL    HW242428  12.244   6.522  12.948
13511SOL     OW42429   3.309   7.182  14.647
13511SOL    HW142430   3.308   7.271  14.680
13511SOL    HW242431   3.260   7.132  14.711
13512SOL     OW42432   7.601  10.417  13.610
13512SOL    HW142433   7.525  10.421  13.667
13512SOL    HW242434   7.616  10.324  13.595
13513SOL     OW42435  13.352  14.278  13.951
13513SOL    HW142436  13.422  14.259  13.887
13513SOL    HW242437  13.282  14.218  13.928
13514SOL     OW42438   3.432  12.997   7.767
13514SOL    HW142439   3.459  13.034   7.851
13514SOL    HW242440   3.500  13.024   7.705
13515SOL     OW42441  10.469  13.702  13.526
13515SOL    HW142442  10.380  13.690  13.559
13515SOL    HW242443  10.482  13.796  13.523
13516SOL     OW42444   3.555   9.024  13.934
13516SOL    HW142445   3.578   9.112  13.965
13516SOL    HW242446   3.566   8.968  14.010
13517SOL     OW42447   8.421   5.926   5.890
13517SOL    HW142448   8.386   5.921   5.979
13517SOL    HW242449   8.387   5.849   5.845
13518SOL     OW42450  10.764  12.063   1.458
13518SOL    HW142451  10.826  12.135   1.466
13518SOL    HW242452  10.696  12.097   1.400
13519SOL     OW42453  10.580   0.247   0.976
13519SOL    HW142454  10.665   0.206   0.962
13519SOL    HW242455  10.595   0.308   1.049
13520SOL     OW42456  11.721   5.089   9.280
13520SOL    HW142457  11.671   5.096   9.199
13520SOL    HW242458  11.696   5.005   9.318
13521SOL     OW42459  11.197   5.597  10.745
13521SOL    HW142460  11.267   5.532  10.734
13521SOL    HW242461  11.188   5.606  10.840
13522SOL     OW42462  10.724   0.010   8.027
13522SOL    HW142463  10.790  14.847   7.969
13522SOL    HW242464  10.703  14.811   8.087
13523SOL     OW42465   6.523   1.671   9.407
13523SOL    HW142466   6.543   1.758   9.371
13523SOL    HW242467   6.569   1.669   9.491
13524SOL     OW42468   7.181   0.849  10.586
13524SOL    HW142469   7.223   0.773  10.625
13524SOL    HW242470   7.246   0.884  10.525
13525SOL     OW42471   0.842   0.609   1.852
13525SOL    HW142472   0.903   0.535   1.857
13525SOL    HW242473   0.897   0.685   1.834
13526SOL     OW42474  12.620   6.751  10.727
13526SOL    HW142475  12.700   6.730  10.774
13526SOL    HW242476  12.636   6.719  10.638
13527SOL     OW42477  10.252  14.740   2.066
13527SOL    HW142478  10.347  14.752   2.076
13527SOL    HW242479  10.224  14.814   2.012
13528SOL     OW42480   4.367   6.010   6.394
13528SOL    HW142481   4.297   5.960   6.351
13528SOL    HW242482   4.353   6.100   6.364
13529SOL     OW42483   8.118   8.069   4.526
13529SOL    HW142484   8.159   7.984   4.539
13529SOL    HW242485   8.032   8.060   4.568
13530SOL     OW42486   9.868   3.624   5.559
13530SOL    HW142487   9.922   3.627   5.480
13530SOL    HW242488   9.925   3.584   5.625
13531SOL     OW42489   2.818   4.570   6.093
13531SOL    HW142490   2.913   4.573   6.106
13531SOL    HW242491   2.788   4.660   6.111
13532SOL     OW42492   4.096   8.954  13.725
13532SOL    HW142493   4.059   9.040  13.703
13532SOL    HW242494   4.079   8.900  13.648
13533SOL     OW42495  14.458   4.543   9.457
13533SOL    HW142496  14.430   4.618   9.405
13533SOL    HW242497  14.377   4.499   9.482
13534SOL     OW42498   7.150   4.161   4.454
13534SOL    HW142499   7.077   4.098   4.457
13534SOL    HW242500   7.165   4.183   4.546
13535SOL     OW42501   7.595   4.658   1.050
13535SOL    HW142502   7.571   4.641   0.959
13535SOL    HW242503   7.511   4.669   1.095
13536SOL     OW42504   4.699   8.173   7.421
13536SOL    HW142505   4.740   8.234   7.360
13536SOL    HW242506   4.750   8.092   7.412
13537SOL     OW42507   7.422   8.784   6.156
13537SOL    HW142508   7.478   8.796   6.232
13537SOL    HW242509   7.372   8.704   6.176
13538SOL     OW42510  11.465   8.159  13.826
13538SOL    HW142511  11.527   8.231  13.838
13538SOL    HW242512  11.414   8.157  13.907
13539SOL     OW42513   6.405   6.766  13.126
13539SOL    HW142514   6.422   6.741  13.217
13539SOL    HW242515   6.312   6.746  13.113
13540SOL     OW42516  12.683   7.524  11.816
13540SOL    HW142517  12.645   7.610  11.835
13540SOL    HW242518  12.627   7.488  11.747
13541SOL     OW42519  12.385   9.958   6.451
13541SOL    HW142520  12.413   9.867   6.458
13541SOL    HW242521  12.444  10.005   6.509
13542SOL     OW42522   4.817   2.809   6.448
13542SOL    HW142523   4.746   2.777   6.393
13542SOL    HW242524   4.775   2.839   6.528
13543SOL     OW42525   3.842   6.163   2.745
13543SOL    HW142526   3.775   6.194   2.806
13543SOL    HW242527   3.816   6.200   2.661
13544SOL     OW42528   0.007  13.222   9.483
13544SOL    HW142529  14.805  13.263   9.438
13544SOL    HW242530   0.006  13.131   9.453
13545SOL     OW42531   4.556   5.203   8.201
13545SOL    HW142532   4.464   5.214   8.223
13545SOL    HW242533   4.571   5.263   8.128
13546SOL     OW42534   2.598   7.424   3.790
13546SOL    HW142535   2.534   7.373   3.740
13546SOL    HW242536   2.649   7.470   3.725
13547SOL     OW42537   5.703   3.812   4.891
13547SOL    HW142538   5.791   3.828   4.857
13547SOL    HW242539   5.713   3.738   4.950
13548SOL     OW42540   5.041   0.616  10.140
13548SOL    HW142541   4.972   0.651  10.085
13548SOL    HW242542   5.115   0.602  10.080
13549SOL     OW42543   8.061   2.425   5.631
13549SOL    HW142544   8.024   2.453   5.548
13549SOL    HW242545   8.105   2.502   5.666
13550SOL     OW42546   2.785   7.425   1.825
13550SOL    HW142547   2.757   7.497   1.881
13550SOL    HW242548   2.819   7.359   1.886
13551SOL     OW42549   9.725  14.295   9.200
13551SOL    HW142550   9.683  14.307   9.115
13551SOL    HW242551   9.701  14.373   9.250
13552SOL     OW42552  12.717  10.069  11.604
13552SOL    HW142553  12.690   9.982  11.632
13552SOL    HW242554  12.653  10.128  11.644
13553SOL     OW42555  11.118  14.307   1.145
13553SOL    HW142556  11.050  14.269   1.090
13553SOL    HW242557  11.072  14.367   1.203
13554SOL     OW42558  13.066  10.532  12.739
13554SOL    HW142559  13.042  10.466  12.803
13554SOL    HW242560  13.139  10.580  12.779
13555SOL     OW42561   2.482  10.452   1.257
13555SOL    HW142562   2.442  10.385   1.201
13555SOL    HW242563   2.575  10.449   1.234
13556SOL     OW42564   7.690   9.638   2.853
13556SOL    HW142565   7.647   9.573   2.797
13556SOL    HW242566   7.627   9.709   2.861
13557SOL     OW42567  10.316  10.313   8.054
13557SOL    HW142568  10.264  10.383   8.014
13557SOL    HW242569  10.373  10.283   7.983
13558SOL     OW42570   8.241   9.936   7.828
13558SOL    HW142571   8.236  10.020   7.872
13558SOL    HW242572   8.213   9.953   7.738
13559SOL     OW42573  12.464   9.814   2.716
13559SOL    HW142574  12.510   9.886   2.673
13559SOL    HW242575  12.379   9.851   2.739
13560SOL     OW42576   8.011  12.973   4.342
13560SOL    HW142577   8.049  13.057   4.318
13560SOL    HW242578   8.039  12.959   4.433
13561SOL     OW42579  10.130   7.498  12.941
13561SOL    HW142580  10.159   7.463  13.025
13561SOL    HW242581  10.158   7.590  12.941
13562SOL     OW42582   4.169  12.034   3.797
13562SOL    HW142583   4.191  12.102   3.734
13562SOL    HW242584   4.247  12.025   3.851
13563SOL     OW42585   5.258   8.849   9.642
13563SOL    HW142586   5.301   8.836   9.726
13563SOL    HW242587   5.200   8.774   9.634
13564SOL     OW42588   6.303   4.700  12.748
13564SOL    HW142589   6.297   4.795  12.735
13564SOL    HW242590   6.212   4.670  12.743
13565SOL     OW42591   8.705  14.723  14.148
13565SOL    HW142592   8.624  14.700  14.194
13565SOL    HW242593   8.733  14.642  14.107
13566SOL     OW42594  11.165  12.502   2.358
13566SOL    HW142595  11.130  12.453   2.284
13566SOL    HW242596  11.120  12.467   2.435
13567SOL     OW42597   4.069   9.354   2.907
13567SOL    HW142598   4.145   9.398   2.869
13567SOL    HW242599   4.105   9.304   2.980
13568SOL     OW42600   5.667  12.207   6.014
13568SOL    HW142601   5.680  12.118   6.048
13568SOL    HW242602   5.577  12.228   6.037
13569SOL     OW42603   2.445  13.244  13.959
13569SOL    HW142604   2.354  13.220  13.975
13569SOL    HW242605   2.444  13.340  13.957
13570SOL     OW42606   9.832  12.496   1.373
13570SOL    HW142607   9.863  12.494   1.282
13570SOL    HW242608   9.817  12.404   1.395
13571SOL     OW42609   8.718  14.830  12.249
13571SOL    HW142610   8.774  14.752  12.252
13571SOL    HW242611   8.738  14.870  12.165
13572SOL     OW42612  12.418   6.914   4.390
13572SOL    HW142613  12.361   6.983   4.357
13572SOL    HW242614  12.501   6.958   4.409
13573SOL     OW42615   0.537  10.572   2.262
13573SOL    HW142616   0.631  10.563   2.279
13573SOL    HW242617   0.497  10.498   2.308
13574SOL     OW42618   0.495   2.053   4.067
13574SOL    HW142619   0.451   2.131   4.102
13574SOL    HW242620   0.544   2.018   4.141
13575SOL     OW42621   0.931  10.786  13.747
13575SOL    HW142622   0.843  10.815  13.772
13575SOL    HW242623   0.924  10.691  13.741
13576SOL     OW42624   7.493  10.260   4.283
13576SOL    HW142625   7.467  10.198   4.352
13576SOL    HW242626   7.446  10.341   4.305
13577SOL     OW42627   3.052   2.554   5.172
13577SOL    HW142628   3.108   2.505   5.111
13577SOL    HW242629   2.985   2.491   5.198
13578SOL     OW42630   7.874   7.849  11.856
13578SOL    HW142631   7.804   7.819  11.799
13578SOL    HW242632   7.942   7.879  11.797
13579SOL     OW42633   3.002   2.834   1.371
13579SOL    HW142634   2.978   2.743   1.351
13579SOL    HW242635   2.928   2.885   1.340
13580SOL     OW42636   9.002  13.173   1.849
13580SOL    HW142637   8.985  13.104   1.914
13580SOL    HW242638   9.095  13.164   1.828
13581SOL     OW42639  10.727   3.984   9.249
13581SOL    HW142640  10.752   4.042   9.177
13581SOL    HW242641  10.770   3.901   9.228
13582SOL     OW42642   3.823   2.661   2.073
13582SOL    HW142643   3.903   2.617   2.044
13582SOL    HW242644   3.825   2.746   2.030
13583SOL     OW42645   9.343   7.530  12.545
13583SOL    HW142646   9.326   7.503  12.636
13583SOL    HW242647   9.308   7.459  12.492
13584SOL     OW42648   9.324   3.815  14.812
13584SOL    HW142649   9.319   3.723  14.786
13584SOL    HW242650   9.328   3.864  14.730
13585SOL     OW42651   7.205   2.056  14.530
13585SOL    HW142652   7.147   2.046  14.455
13585SOL    HW242653   7.173   2.135  14.574
13586SOL     OW42654  11.156   2.998   6.092
13586SOL    HW142655  11.112   3.042   6.165
13586SOL    HW242656  11.147   3.058   6.019
13587SOL     OW42657  12.258   0.315   4.858
13587SOL    HW142658  12.253   0.304   4.763
13587SOL    HW242659  12.167   0.316   4.887
13588SOL     OW42660  11.062   9.213   9.574
13588SOL    HW142661  10.968   9.228   9.566
13588SOL    HW242662  11.071   9.122   9.599
13589SOL     OW42663  11.563   6.135   4.028
13589SOL    HW142664  11.518   6.079   3.964
13589SOL    HW242665  11.646   6.157   3.986
13590SOL     OW42666  12.739   2.313  11.627
13590SOL    HW142667  12.817   2.280  11.583
13590SOL    HW242668  12.709   2.385  11.572
13591SOL     OW42669   3.633  12.543  12.558
13591SOL    HW142670   3.610  12.570  12.646
13591SOL    HW242671   3.667  12.454  12.569
13592SOL     OW42672   3.366   2.950  10.655
13592SOL    HW142673   3.290   2.916  10.608
13592SOL    HW242674   3.439   2.896  10.626
13593SOL     OW42675   8.674   1.607  11.835
13593SOL    HW142676   8.751   1.661  11.815
13593SOL    HW242677   8.705   1.517  11.824
13594SOL     OW42678  12.274   6.388   9.693
13594SOL    HW142679  12.202   6.326   9.685
13594SOL    HW242680  12.232   6.471   9.714
13595SOL     OW42681  10.211  10.172   7.053
13595SOL    HW142682  10.274  10.192   6.984
13595SOL    HW242683  10.250  10.098   7.100
13596SOL     OW42684   1.472   2.644   9.321
13596SOL    HW142685   1.506   2.733   9.320
13596SOL    HW242686   1.477   2.616   9.412
13597SOL     OW42687   7.638  10.288  13.142
13597SOL    HW142688   7.587  10.354  13.189
13597SOL    HW242689   7.677  10.235  13.211
13598SOL     OW42690  11.128  13.465  14.005
13598SOL    HW142691  11.115  13.538  14.065
13598SOL    HW242692  11.072  13.484  13.930
13599SOL     OW42693   9.854   4.653  11.043
13599SOL    HW142694   9.846   4.565  11.006
13599SOL    HW242695   9.836   4.641  11.136
13600SOL     OW42696   8.721   7.506   7.127
13600SOL    HW142697   8.811   7.537   7.124
13600SOL    HW242698   8.671   7.579   7.164
13601SOL     OW42699   3.104  11.188  12.925
13601SOL    HW142700   3.160  11.163  12.998
13601SOL    HW242701   3.154  11.254  12.877
13602SOL     OW42702   6.307  11.837   6.398
13602SOL    HW142703   6.391  11.792   6.407
13602SOL    HW242704   6.277  11.814   6.310
13603SOL     OW42705   1.842   1.398   7.585
13603SOL    HW142706   1.892   1.346   7.648
13603SOL    HW242707   1.886   1.383   7.501
13604SOL     OW42708   5.822  12.001  10.658
13604SOL    HW142709   5.906  11.959  10.673
13604SOL    HW242710   5.820  12.017  10.564
13605SOL     OW42711  12.634  10.218   3.026
13605SOL    HW142712  12.568  10.155   3.054
13605SOL    HW242713  12.688  10.232   3.104
13606SOL     OW42714   7.492  13.277   1.409
13606SOL    HW142715   7.456  13.258   1.495
13606SOL    HW242716   7.507  13.372   1.409
13607SOL     OW42717   6.682   9.787   2.800
13607SOL    HW142718   6.689   9.843   2.877
13607SOL    HW242719   6.771   9.757   2.784
13608SOL     OW42720   0.901   1.800  11.190
13608SOL    HW142721   0.876   1.887  11.219
13608SOL    HW242722   0.942   1.814  11.104
13609SOL     OW42723   4.487  10.581  10.386
13609SOL    HW142724   4.429  10.545  10.454
13609SOL    HW242725   4.571  10.590  10.430
13610SOL     OW42726   1.155   9.566  12.328
13610SOL    HW142727   1.161   9.503  12.257
13610SOL    HW242728   1.215   9.636  12.303
13611SOL     OW42729   0.629   5.071   2.657
13611SOL    HW142730   0.658   5.058   2.567
13611SOL    HW242731   0.567   5.143   2.652
13612SOL     OW42732   1.523   6.201   8.965
13612SOL    HW142733   1.570   6.252   9.031
13612SOL    HW242734   1.430   6.211   8.989
13613SOL     OW42735   5.384   0.360  13.572
13613SOL    HW142736   5.363   0.436  13.626
13613SOL    HW242737   5.478   0.348  13.582
13614SOL     OW42738   3.080  14.018   8.243
13614SOL    HW142739   3.065  14.057   8.329
13614SOL    HW242740   2.995  13.984   8.217
13615SOL     OW42741   4.633   0.730   8.838
13615SOL    HW142742   4.547   0.759   8.870
13615SOL    HW242743   4.640   0.640   8.869
13616SOL     OW42744  11.899   3.339   0.847
13616SOL    HW142745  11.891   3.299   0.760
13616SOL    HW242746  11.809   3.348   0.878
13617SOL     OW42747   4.409  14.313   0.910
13617SOL    HW142748   4.427  14.368   0.833
13617SOL    HW242749   4.330  14.351   0.948
13618SOL     OW42750   7.288  14.373  14.574
13618SOL    HW142751   7.321  14.287  14.547
13618SOL    HW242752   7.359  14.434  14.550
13619SOL     OW42753   9.980   4.881  11.360
13619SOL    HW142754   9.956   4.970  11.337
13619SOL    HW242755   9.934   4.863  11.442
13620SOL     OW42756   7.462   6.498  11.307
13620SOL    HW142757   7.509   6.416  11.321
13620SOL    HW242758   7.490   6.555  11.379
13621SOL     OW42759  11.954   5.867   2.067
13621SOL    HW142760  11.888   5.840   2.131
13621SOL    HW242761  12.022   5.799   2.073
13622SOL     OW42762  13.013   5.319  11.499
13622SOL    HW142763  12.952   5.257  11.539
13622SOL    HW242764  12.957   5.390  11.467
13623SOL     OW42765  11.609  12.773   1.182
13623SOL    HW142766  11.624  12.679   1.171
13623SOL    HW242767  11.515  12.780   1.200
13624SOL     OW42768   6.809  14.676   7.044
13624SOL    HW142769   6.870  14.640   7.110
13624SOL    HW242770   6.782  14.760   7.081
13625SOL     OW42771   2.760  13.186   7.752
13625SOL    HW142772   2.811  13.107   7.735
13625SOL    HW242773   2.757  13.193   7.847
13626SOL     OW42774   3.884   4.405   3.461
13626SOL    HW142775   3.791   4.386   3.468
13626SOL    HW242776   3.927   4.329   3.500
13627SOL     OW42777   2.785   6.741  14.082
13627SOL    HW142778   2.692   6.735  14.058
13627SOL    HW242779   2.806   6.654  14.117
13628SOL     OW42780   7.056   1.590   3.307
13628SOL    HW142781   7.133   1.626   3.262
13628SOL    HW242782   7.084   1.582   3.398
13629SOL     OW42783  14.023   4.007   6.051
13629SOL    HW142784  13.927   4.000   6.060
13629SOL    HW242785  14.043   4.098   6.072
13630SOL     OW42786   8.552   9.096  10.341
13630SOL    HW142787   8.633   9.145  10.355
13630SOL    HW242788   8.576   9.026  10.280
13631SOL     OW42789  14.401  12.354   2.199
13631SOL    HW142790  14.362  12.267   2.198
13631SOL    HW242791  14.489  12.341   2.164
13632SOL     OW42792  12.983   5.961   2.494
13632SOL    HW142793  13.058   5.931   2.443
13632SOL    HW242794  12.945   5.882   2.531
13633SOL     OW42795   2.771   7.205  10.204
13633SOL    HW142796   2.690   7.158  10.225
13633SOL    HW242797   2.825   7.142  10.158
13634SOL     OW42798   2.790   3.010  11.800
13634SOL    HW142799   2.793   2.917  11.781
13634SOL    HW242800   2.698   3.034  11.789
13635SOL     OW42801   0.827  12.790  13.193
13635SOL    HW142802   0.916  12.773  13.223
13635SOL    HW242803   0.771  12.756  13.263
13636SOL     OW42804   8.402   4.723   5.348
13636SOL    HW142805   8.392   4.805   5.298
13636SOL    HW242806   8.323   4.673   5.328
13637SOL     OW42807   2.748   6.690   3.972
13637SOL    HW142808   2.813   6.731   4.030
13637SOL    HW242809   2.709   6.620   4.025
13638SOL     OW42810  10.633  11.610  10.312
13638SOL    HW142811  10.691  11.534  10.317
13638SOL    HW242812  10.634  11.647  10.400
13639SOL     OW42813  11.688   1.217  10.507
13639SOL    HW142814  11.725   1.129  10.508
13639SOL    HW242815  11.615   1.211  10.445
13640SOL     OW42816   2.868   7.567   6.828
13640SOL    HW142817   2.839   7.619   6.903
13640SOL    HW242818   2.963   7.563   6.836
13641SOL     OW42819  11.446  12.830  10.894
13641SOL    HW142820  11.502  12.865  10.964
13641SOL    HW242821  11.487  12.747  10.870
13642SOL     OW42822  13.929   2.719   7.263
13642SOL    HW142823  13.858   2.656   7.261
13642SOL    HW242824  14.006   2.669   7.289
13643SOL     OW42825  12.627   8.939   8.139
13643SOL    HW142826  12.720   8.953   8.159
13643SOL    HW242827  12.624   8.932   8.044
13644SOL     OW42828  10.627   8.485   1.921
13644SOL    HW142829  10.563   8.526   1.979
13644SOL    HW242830  10.700   8.548   1.917
13645SOL     OW42831  14.450   6.347   2.638
13645SOL    HW142832  14.456   6.347   2.543
13645SOL    HW242833  14.406   6.429   2.659
13646SOL     OW42834  13.769   1.714   0.399
13646SOL    HW142835  13.750   1.798   0.357
13646SOL    HW242836  13.863   1.717   0.417
13647SOL     OW42837  14.795  10.267   2.334
13647SOL    HW142838  14.708  10.231   2.317
13647SOL    HW242839  14.852  10.190   2.339
13648SOL     OW42840   4.437   7.086   7.254
13648SOL    HW142841   4.349   7.055   7.273
13648SOL    HW242842   4.425   7.161   7.195
13649SOL     OW42843   5.564   4.122   7.882
13649SOL    HW142844   5.527   4.075   7.807
13649SOL    HW242845   5.589   4.207   7.846
13650SOL     OW42846   8.943   4.651  11.730
13650SOL    HW142847   8.990   4.605  11.660
13650SOL    HW242848   8.873   4.591  11.754
13651SOL     OW42849   2.767   5.334   6.205
13651SOL    HW142850   2.782   5.277   6.280
13651SOL    HW242851   2.728   5.413   6.242
13652SOL     OW42852   6.115   4.357  11.705
13652SOL    HW142853   6.082   4.375  11.793
13652SOL    HW242854   6.192   4.414  11.697
13653SOL     OW42855   3.725   2.898   9.434
13653SOL    HW142856   3.662   2.828   9.453
13653SOL    HW242857   3.808   2.853   9.420
13654SOL     OW42858  13.001   1.651   6.012
13654SOL    HW142859  13.043   1.596   6.078
13654SOL    HW242860  13.074   1.692   5.965
13655SOL     OW42861   0.600   1.278  11.723
13655SOL    HW142862   0.636   1.333  11.654
13655SOL    HW242863   0.505   1.291  11.717
13656SOL     OW42864  12.719  11.363   6.824
13656SOL    HW142865  12.802  11.381   6.869
13656SOL    HW242866  12.662  11.435   6.850
13657SOL     OW42867   6.810   4.975   0.667
13657SOL    HW142868   6.723   5.014   0.669
13657SOL    HW242869   6.854   5.018   0.594
13658SOL     OW42870   8.338  13.524  11.853
13658SOL    HW142871   8.399  13.551  11.921
13658SOL    HW242872   8.252  13.532  11.893
13659SOL     OW42873   2.764  10.026   6.244
13659SOL    HW142874   2.678  10.013   6.283
13659SOL    HW242875   2.748  10.084   6.169
13660SOL     OW42876   4.250   0.522   9.733
13660SOL    HW142877   4.223   0.471   9.810
13660SOL    HW242878   4.171   0.526   9.679
13661SOL     OW42879   7.503  10.177  14.644
13661SOL    HW142880   7.434  10.149  14.583
13661SOL    HW242881   7.575  10.117  14.627
13662SOL     OW42882   8.198   6.349   8.635
13662SOL    HW142883   8.148   6.398   8.701
13662SOL    HW242884   8.185   6.398   8.554
13663SOL     OW42885   8.852  13.714   1.904
13663SOL    HW142886   8.930  13.658   1.902
13663SOL    HW242887   8.815  13.700   1.991
13664SOL     OW42888  14.643  14.313   2.392
13664SOL    HW142889  14.723  14.287   2.347
13664SOL    HW242890  14.583  14.339   2.322
13665SOL     OW42891   3.192   7.077  11.582
13665SOL    HW142892   3.198   7.007  11.516
13665SOL    HW242893   3.176   7.156  11.531
13666SOL     OW42894  14.547   8.296   0.610
13666SOL    HW142895  14.498   8.267   0.533
13666SOL    HW242896  14.526   8.231   0.678
13667SOL     OW42897  11.052  13.826   1.028
13667SOL    HW142898  11.053  13.853   1.119
13667SOL    HW242899  11.002  13.745   1.027
13668SOL     OW42900   5.365  14.731   0.768
13668SOL    HW142901   5.432  14.772   0.822
13668SOL    HW242902   5.415  14.681   0.702
13669SOL     OW42903  10.675   2.867   7.339
13669SOL    HW142904  10.762   2.906   7.352
13669SOL    HW242905  10.615   2.942   7.339
13670SOL     OW42906   2.133  13.192   9.272
13670SOL    HW142907   2.093  13.279   9.264
13670SOL    HW242908   2.100  13.157   9.355
13671SOL     OW42909   7.313   1.438   0.062
13671SOL    HW142910   7.351   1.518   0.025
13671SOL    HW242911   7.370   1.368   0.029
13672SOL     OW42912   0.958   2.729   6.322
13672SOL    HW142913   0.962   2.646   6.369
13672SOL    HW242914   0.950   2.705   6.230
13673SOL     OW42915  12.603   7.704   4.420
13673SOL    HW142916  12.616   7.762   4.496
13673SOL    HW242917  12.569   7.761   4.352
13674SOL     OW42918   0.704  12.107   0.931
13674SOL    HW142919   0.694  12.078   1.022
13674SOL    HW242920   0.768  12.047   0.893
13675SOL     OW42921   4.906  14.358   1.195
13675SOL    HW142922   4.985  14.321   1.155
13675SOL    HW242923   4.843  14.363   1.123
13676SOL     OW42924   6.293   6.094   8.905
13676SOL    HW142925   6.241   6.174   8.900
13676SOL    HW242926   6.233   6.028   8.940
13677SOL     OW42927   1.325   8.081   2.036
13677SOL    HW142928   1.314   7.998   1.989
13677SOL    HW242929   1.417   8.104   2.022
13678SOL     OW42930   3.517   2.981   0.338
13678SOL    HW142931   3.607   2.951   0.328
13678SOL    HW242932   3.465   2.921   0.284
13679SOL     OW42933   7.402   9.721   2.833
13679SOL    HW142934   7.447   9.672   2.764
13679SOL    HW242935   7.322   9.753   2.791
13680SOL     OW42936  14.756  10.551   7.183
13680SOL    HW142937  14.845  10.586   7.179
13680SOL    HW242938  14.710  10.597   7.113
13681SOL     OW42939   7.099  12.132   5.787
13681SOL    HW142940   7.063  12.221   5.790
13681SOL    HW242941   7.147  12.123   5.868
13682SOL     OW42942   7.734   8.154   2.211
13682SOL    HW142943   7.727   8.240   2.251
13682SOL    HW242944   7.757   8.096   2.284
13683SOL     OW42945   1.679  12.532   5.378
13683SOL    HW142946   1.658  12.522   5.285
13683SOL    HW242947   1.772  12.556   5.378
13684SOL     OW42948  10.437   6.550   4.842
13684SOL    HW142949  10.484   6.610   4.901
13684SOL    HW242950  10.506   6.494   4.806
13685SOL     OW42951   5.682   5.739   5.302
13685SOL    HW142952   5.635   5.821   5.286
13685SOL    HW242953   5.679   5.728   5.397
13686SOL     OW42954  13.110  13.262  13.017
13686SOL    HW142955  13.067  13.332  12.969
13686SOL    HW242956  13.197  13.296  13.037
13687SOL     OW42957  12.518   4.269   2.481
13687SOL    HW142958  12.469   4.297   2.558
13687SOL    HW242959  12.572   4.196   2.512
13688SOL     OW42960   7.667   3.737  10.978
13688SOL    HW142961   7.613   3.682  10.921
13688SOL    HW242962   7.741   3.682  11.002
13689SOL     OW42963   6.810  12.628   0.482
13689SOL    HW142964   6.882  12.659   0.427
13689SOL    HW242965   6.773  12.708   0.520
13690SOL     OW42966   8.446   5.270   3.446
13690SOL    HW142967   8.529   5.222   3.453
13690SOL    HW242968   8.382   5.211   3.486
13691SOL     OW42969  13.488  13.969  12.544
13691SOL    HW142970  13.405  13.952  12.499
13691SOL    HW242971  13.463  14.024  12.619
13692SOL     OW42972   5.615   6.468   4.863
13692SOL    HW142973   5.693   6.499   4.817
13692SOL    HW242974   5.601   6.379   4.831
13693SOL     OW42975  14.049   5.763   4.089
13693SOL    HW142976  13.998   5.726   4.161
13693SOL    HW242977  14.009   5.849   4.073
13694SOL     OW42978   8.829  14.731  12.602
13694SOL    HW142979   8.881  14.795  12.553
13694SOL    HW242980   8.765  14.783  12.650
13695SOL     OW42981   3.810   4.779   4.800
13695SOL    HW142982   3.802   4.873   4.783
13695SOL    HW242983   3.821   4.740   4.713
13696SOL     OW42984  11.149  12.693  10.273
13696SOL    HW142985  11.208  12.626  10.238
13696SOL    HW242986  11.079  12.643  10.316
13697SOL     OW42987  10.694   7.752   1.218
13697SOL    HW142988  10.734   7.835   1.191
13697SOL    HW242989  10.616   7.744   1.162
13698SOL     OW42990   0.600  12.597  11.197
13698SOL    HW142991   0.689  12.606  11.163
13698SOL    HW242992   0.561  12.684  11.186
13699SOL     OW42993  11.996  13.538  12.410
13699SOL    HW142994  12.015  13.469  12.473
13699SOL    HW242995  12.082  13.558  12.371
13700SOL     OW42996   0.322  12.015   3.821
13700SOL    HW142997   0.315  11.929   3.863
13700SOL    HW242998   0.377  12.066   3.882
13701SOL     OW42999   8.896  12.132  13.369
13701SOL    HW143000   8.920  12.186  13.293
13701SOL    HW243001   8.866  12.195  13.434
13702SOL     OW43002   7.907   6.463   9.142
13702SOL    HW143003   7.929   6.556   9.135
13702SOL    HW243004   7.816   6.462   9.174
13703SOL     OW43005   9.466  12.443   4.500
13703SOL    HW143006   9.470  12.434   4.595
13703SOL    HW243007   9.488  12.534   4.483
13704SOL     OW43008  14.285   4.710   6.475
13704SOL    HW143009  14.342   4.741   6.546
13704SOL    HW243010  14.332   4.636   6.436
13705SOL     OW43011  13.956  11.616  13.682
13705SOL    HW143012  13.957  11.566  13.764
13705SOL    HW243013  13.968  11.550  13.614
13706SOL     OW43014   2.944   8.719   8.072
13706SOL    HW143015   2.881   8.648   8.057
13706SOL    HW243016   2.993   8.691   8.149
13707SOL     OW43017   8.313  13.514  10.477
13707SOL    HW143018   8.308  13.506  10.572
13707SOL    HW243019   8.380  13.451  10.451
13708SOL     OW43020  10.686  10.811  10.867
13708SOL    HW143021  10.703  10.791  10.959
13708SOL    HW243022  10.644  10.897  10.869
13709SOL     OW43023   1.562  13.506  10.171
13709SOL    HW143024   1.548  13.489  10.265
13709SOL    HW243025   1.533  13.426  10.128
13710SOL     OW43026   1.431   4.096  12.609
13710SOL    HW143027   1.460   4.009  12.583
13710SOL    HW243028   1.485   4.156  12.558
13711SOL     OW43029  10.961   7.295   1.081
13711SOL    HW143030  11.047   7.253   1.081
13711SOL    HW243031  10.971   7.369   1.021
13712SOL     OW43032   0.405  12.081   8.689
13712SOL    HW143033   0.406  11.995   8.730
13712SOL    HW243034   0.358  12.137   8.750
13713SOL     OW43035   4.673   4.463  11.947
13713SOL    HW143036   4.759   4.422  11.935
13713SOL    HW243037   4.676   4.542  11.893
13714SOL     OW43038   1.958   1.458  14.143
13714SOL    HW143039   2.034   1.480  14.089
13714SOL    HW243040   1.995   1.409  14.217
13715SOL     OW43041   0.560   1.256   3.289
13715SOL    HW143042   0.478   1.248   3.338
13715SOL    HW243043   0.534   1.296   3.206
13716SOL     OW43044  11.524   5.317  13.299
13716SOL    HW143045  11.437   5.282  13.282
13716SOL    HW243046  11.580   5.276  13.232
13717SOL     OW43047  12.632   7.218   2.624
13717SOL    HW143048  12.579   7.281   2.673
13717SOL    HW243049  12.722   7.247   2.638
13718SOL     OW43050  14.585   4.867   6.234
13718SOL    HW143051  14.674   4.831   6.234
13718SOL    HW243052  14.567   4.886   6.326
13719SOL     OW43053  12.525   9.554   2.795
13719SOL    HW143054  12.455   9.492   2.774
13719SOL    HW243055  12.501   9.634   2.750
13720SOL     OW43056  14.849   4.580   5.940
13720SOL    HW143057  14.774   4.640   5.934
13720SOL    HW243058  14.868   4.557   5.849
13721SOL     OW43059   2.253  13.158   8.766
13721SOL    HW143060   2.348  13.148   8.771
13721SOL    HW243061   2.237  13.193   8.679
13722SOL     OW43062   4.627   2.214   0.099
13722SOL    HW143063   4.534   2.223   0.079
13722SOL    HW243064   4.667   2.182   0.018
13723SOL     OW43065   3.145  10.773   0.922
13723SOL    HW143066   3.120  10.863   0.941
13723SOL    HW243067   3.214  10.753   0.985
13724SOL     OW43068   0.651  10.615   0.811
13724SOL    HW143069   0.710  10.577   0.876
13724SOL    HW243070   0.576  10.645   0.861
13725SOL     OW43071   8.699   4.189   2.929
13725SOL    HW143072   8.779   4.142   2.955
13725SOL    HW243073   8.647   4.123   2.882
13726SOL     OW43074   1.933   9.261  11.821
13726SOL    HW143075   1.914   9.172  11.851
13726SOL    HW243076   1.942   9.253  11.726
13727SOL     OW43077  12.650  12.398   3.122
13727SOL    HW143078  12.668  12.471   3.181
13727SOL    HW243079  12.719  12.334   3.141
13728SOL     OW43080  14.388  13.455   6.375
13728SOL    HW143081  14.360  13.515   6.306
13728SOL    HW243082  14.320  13.388   6.378
13729SOL     OW43083  10.869   9.150  14.779
13729SOL    HW143084  10.876   9.055  14.768
13729SOL    HW243085  10.928   9.185  14.712
13730SOL     OW43086  13.108   6.887  11.482
13730SOL    HW143087  13.118   6.979  11.506
13730SOL    HW243088  13.195   6.859  11.455
13731SOL     OW43089  14.307   3.467   7.387
13731SOL    HW143090  14.345   3.412   7.318
13731SOL    HW243091  14.323   3.419   7.468
13732SOL     OW43092  13.805   4.409   8.857
13732SOL    HW143093  13.863   4.452   8.919
13732SOL    HW243094  13.748   4.478   8.825
13733SOL     OW43095   0.757  13.691  12.476
13733SOL    HW143096   0.815  13.752  12.522
13733SOL    HW243097   0.790  13.689  12.386
13734SOL     OW43098  10.543   9.876  10.825
13734SOL    HW143099  10.522   9.812  10.893
13734SOL    HW243100  10.494   9.954  10.849
13735SOL     OW43101  10.951   5.371   1.951
13735SOL    HW143102  11.031   5.318   1.958
13735SOL    HW243103  10.908   5.341   1.871
13736SOL     OW43104  10.739   0.040   6.064
13736SOL    HW143105  10.808   0.103   6.083
13736SOL    HW243106  10.759  14.836   6.118
13737SOL     OW43107   6.965  10.124  11.351
13737SOL    HW143108   6.958  10.066  11.427
13737SOL    HW243109   6.883  10.110  11.303
13738SOL     OW43110  12.855  11.239   4.651
13738SOL    HW143111  12.943  11.207   4.629
13738SOL    HW243112  12.796  11.170   4.620
13739SOL     OW43113  14.695   7.977  13.102
13739SOL    HW143114  14.713   7.972  13.196
13739SOL    HW243115  14.722   8.065  13.077
13740SOL     OW43116   3.401   3.683   5.260
13740SOL    HW143117   3.338   3.709   5.192
13740SOL    HW243118   3.362   3.713   5.342
13741SOL     OW43119   8.647   2.228   4.755
13741SOL    HW143120   8.575   2.238   4.692
13741SOL    HW243121   8.724   2.212   4.701
13742SOL     OW43122   7.931   0.111  13.469
13742SOL    HW143123   7.914   0.051  13.541
13742SOL    HW243124   7.919   0.059  13.390
13743SOL     OW43125   1.502   4.292   4.980
13743SOL    HW143126   1.492   4.224   4.915
13743SOL    HW243127   1.587   4.332   4.961
13744SOL     OW43128  11.391   9.610   4.815
13744SOL    HW143129  11.436   9.560   4.883
13744SOL    HW243130  11.454   9.614   4.742
13745SOL     OW43131  12.840  10.605   9.294
13745SOL    HW143132  12.817  10.618   9.202
13745SOL    HW243133  12.843  10.693   9.331
13746SOL     OW43134   1.962  14.405  12.680
13746SOL    HW143135   1.973  14.384  12.587
13746SOL    HW243136   1.920  14.491  12.680
13747SOL     OW43137  10.128  11.149  12.511
13747SOL    HW143138  10.128  11.239  12.544
13747SOL    HW243139  10.108  11.158  12.418
13748SOL     OW43140  10.990   4.642   4.595
13748SOL    HW143141  11.027   4.632   4.507
13748SOL    HW243142  11.013   4.731   4.620
13749SOL     OW43143   6.390   2.393  10.980
13749SOL    HW143144   6.359   2.412  10.891
13749SOL    HW243145   6.350   2.461  11.034
13750SOL     OW43146  14.697  13.936   2.227
13750SOL    HW143147  14.691  13.893   2.312
13750SOL    HW243148  14.740  14.019   2.244
13751SOL     OW43149   2.104  12.202  12.500
13751SOL    HW143150   2.153  12.208  12.418
13751SOL    HW243151   2.014  12.187  12.473
13752SOL     OW43152   0.748  13.468  11.599
13752SOL    HW143153   0.685  13.412  11.644
13752SOL    HW243154   0.781  13.527  11.667
13753SOL     OW43155   4.057  10.385   8.897
13753SOL    HW143156   3.980  10.337   8.867
13753SOL    HW243157   4.125  10.365   8.832
13754SOL     OW43158  12.386  14.349   9.200
13754SOL    HW143159  12.452  14.401   9.153
13754SOL    HW243160  12.436  14.302   9.267
13755SOL     OW43161   8.078   2.661   3.159
13755SOL    HW143162   8.007   2.598   3.170
13755SOL    HW243163   8.155   2.617   3.195
13756SOL     OW43164   7.871   1.354   3.524
13756SOL    HW143165   7.825   1.281   3.482
13756SOL    HW243166   7.922   1.394   3.453
13757SOL     OW43167   1.742   5.844   9.986
13757SOL    HW143168   1.689   5.894   9.924
13757SOL    HW243169   1.777   5.771   9.935
13758SOL     OW43170   5.210   2.462   5.374
13758SOL    HW143171   5.164   2.471   5.458
13758SOL    HW243172   5.154   2.404   5.323
13759SOL     OW43173   8.849   2.820  12.373
13759SOL    HW143174   8.766   2.867  12.385
13759SOL    HW243175   8.913   2.871  12.422
13760SOL     OW43176  13.577  10.137  13.700
13760SOL    HW143177  13.559  10.100  13.786
13760SOL    HW243178  13.630  10.215  13.718
13761SOL     OW43179   4.866   8.084  10.517
13761SOL    HW143180   4.947   8.035  10.507
13761SOL    HW243181   4.831   8.056  10.601
13762SOL     OW43182   0.794   2.266   0.641
13762SOL    HW143183   0.873   2.320   0.638
13762SOL    HW243184   0.754   2.279   0.554
13763SOL     OW43185   7.955   7.539  11.715
13763SOL    HW143186   7.870   7.546  11.672
13763SOL    HW243187   7.957   7.450  11.749
13764SOL     OW43188  14.651  14.579   4.928
13764SOL    HW143189  14.603  14.658   4.905
13764SOL    HW243190  14.719  14.572   4.862
13765SOL     OW43191   9.550   7.376   1.800
13765SOL    HW143192   9.614   7.401   1.867
13765SOL    HW243193   9.567   7.283   1.784
13766SOL     OW43194   8.562   9.169   2.847
13766SOL    HW143195   8.513   9.200   2.770
13766SOL    HW243196   8.632   9.116   2.810
13767SOL     OW43197   0.361   9.413   9.714
13767SOL    HW143198   0.294   9.346   9.701
13767SOL    HW243199   0.369   9.422   9.809
13768SOL     OW43200  13.443  10.248   0.285
13768SOL    HW143201  13.509  10.265   0.218
13768SOL    HW243202  13.379  10.318   0.274
13769SOL     OW43203   4.138  12.799  10.608
13769SOL    HW143204   4.161  12.748  10.530
13769SOL    HW243205   4.167  12.747  10.682
13770SOL     OW43206   7.382   3.500   7.706
13770SOL    HW143207   7.413   3.571   7.762
13770SOL    HW243208   7.327   3.446   7.763
13771SOL     OW43209  10.506   7.882   0.281
13771SOL    HW143210  10.584   7.931   0.257
13771SOL    HW243211  10.449   7.887   0.204
13772SOL     OW43212  10.365  12.142  12.737
13772SOL    HW143213  10.340  12.075  12.801
13772SOL    HW243214  10.292  12.204  12.736
13773SOL     OW43215  12.506   3.001  10.259
13773SOL    HW143216  12.534   2.929  10.202
13773SOL    HW243217  12.410   3.000  10.253
13774SOL     OW43218   2.678   5.248  12.674
13774SOL    HW143219   2.727   5.265  12.593
13774SOL    HW243220   2.736   5.276  12.744
13775SOL     OW43221  13.839   8.665   9.486
13775SOL    HW143222  13.772   8.719   9.528
13775SOL    HW243223  13.903   8.728   9.452
13776SOL     OW43224   4.760   4.250  11.112
13776SOL    HW143225   4.844   4.269  11.151
13776SOL    HW243226   4.766   4.285  11.023
13777SOL     OW43227   1.834  10.735   5.871
13777SOL    HW143228   1.853  10.655   5.822
13777SOL    HW243229   1.902  10.738   5.939
13778SOL     OW43230  10.551   6.176   6.543
13778SOL    HW143231  10.540   6.083   6.524
13778SOL    HW243232  10.598   6.179   6.626
13779SOL     OW43233  13.952  10.950  13.775
13779SOL    HW143234  13.908  11.030  13.747
13779SOL    HW243235  13.886  10.881  13.765
13780SOL     OW43236   1.245   5.897   0.840
13780SOL    HW143237   1.198   5.935   0.766
13780SOL    HW243238   1.178   5.852   0.890
13781SOL     OW43239   9.990   7.150  13.247
13781SOL    HW143240   9.918   7.141  13.185
13781SOL    HW243241  10.000   7.063  13.285
13782SOL     OW43242  14.704   6.969  11.345
13782SOL    HW143243  14.734   7.011  11.425
13782SOL    HW243244  14.609   6.981  11.345
13783SOL     OW43245   5.951   0.651  13.467
13783SOL    HW143246   5.861   0.685  13.472
13783SOL    HW243247   5.946   0.564  13.506
13784SOL     OW43248   7.882   2.449  12.291
13784SOL    HW143249   7.796   2.485  12.268
13784SOL    HW243250   7.934   2.525  12.317
13785SOL     OW43251  12.372   8.604  10.872
13785SOL    HW143252  12.389   8.513  10.849
13785SOL    HW243253  12.397   8.611  10.964
13786SOL     OW43254   7.298  11.369   5.540
13786SOL    HW143255   7.387  11.369   5.506
13786SOL    HW243256   7.305  11.331   5.628
13787SOL     OW43257   8.457  10.057   4.012
13787SOL    HW143258   8.364  10.048   3.994
13787SOL    HW243259   8.474  10.151   4.005
13788SOL     OW43260   5.814   3.916   4.031
13788SOL    HW143261   5.726   3.886   4.009
13788SOL    HW243262   5.833   3.876   4.116
13789SOL     OW43263   1.659   3.047  13.442
13789SOL    HW143264   1.679   2.970  13.496
13789SOL    HW243265   1.661   3.120  13.504
13790SOL     OW43266   4.963   7.457   7.457
13790SOL    HW143267   5.048   7.469   7.416
13790SOL    HW243268   4.978   7.473   7.550
13791SOL     OW43269   4.425  14.358   2.273
13791SOL    HW143270   4.362  14.400   2.331
13791SOL    HW243271   4.385  14.274   2.250
13792SOL     OW43272  13.972   5.983   2.443
13792SOL    HW143273  14.049   5.983   2.385
13792SOL    HW243274  13.898   5.995   2.383
13793SOL     OW43275   6.967   1.094   5.558
13793SOL    HW143276   7.059   1.121   5.550
13793SOL    HW243277   6.945   1.058   5.472
13794SOL     OW43278  12.945  10.930   4.907
13794SOL    HW143279  12.853  10.932   4.883
13794SOL    HW243280  12.963  10.838   4.926
13795SOL     OW43281  13.007   3.992   7.658
13795SOL    HW143282  12.972   4.043   7.585
13795SOL    HW243283  13.039   3.911   7.617
13796SOL     OW43284  11.550  10.989  10.740
13796SOL    HW143285  11.475  11.045  10.763
13796SOL    HW243286  11.511  10.902  10.727
13797SOL     OW43287  14.009   4.309   5.036
13797SOL    HW143288  13.996   4.402   5.015
13797SOL    HW243289  14.023   4.267   4.951
13798SOL     OW43290   4.791   9.957   9.213
13798SOL    HW143291   4.724   9.990   9.273
13798SOL    HW243292   4.869  10.010   9.232
13799SOL     OW43293   1.345  12.926   9.337
13799SOL    HW143294   1.391  12.842   9.341
13799SOL    HW243295   1.414  12.991   9.329
13800SOL     OW43296   0.489   6.422   4.303
13800SOL    HW143297   0.550   6.352   4.281
13800SOL    HW243298   0.526   6.500   4.260
13801SOL     OW43299   8.034  11.307   3.747
13801SOL    HW143300   7.942  11.284   3.736
13801SOL    HW243301   8.076  11.274   3.667
13802SOL     OW43302  13.295  14.140  10.359
13802SOL    HW143303  13.287  14.120  10.452
13802SOL    HW243304  13.376  14.192  10.352
13803SOL     OW43305   1.837   0.919   0.742
13803SOL    HW143306   1.905   0.986   0.736
13803SOL    HW243307   1.863   0.864   0.816
13804SOL     OW43308   1.358   6.967   9.116
13804SOL    HW143309   1.324   7.056   9.106
13804SOL    HW243310   1.309   6.916   9.051
13805SOL     OW43311  11.511  13.659   3.987
13805SOL    HW143312  11.500  13.690   3.897
13805SOL    HW243313  11.428  13.616   4.008
13806SOL     OW43314  10.941   5.846   2.567
13806SOL    HW143315  10.875   5.777   2.557
13806SOL    HW243316  10.914   5.913   2.503
13807SOL     OW43317   0.648   4.350  12.124
13807SOL    HW143318   0.711   4.401  12.073
13807SOL    HW243319   0.702   4.298  12.184
13808SOL     OW43320  10.401   9.382   2.515
13808SOL    HW143321  10.352   9.368   2.595
13808SOL    HW243322  10.463   9.309   2.511
13809SOL     OW43323   2.133   9.007   4.907
13809SOL    HW143324   2.094   8.921   4.890
13809SOL    HW243325   2.193   9.020   4.833
13810SOL     OW43326   9.185   2.247   1.156
13810SOL    HW143327   9.270   2.291   1.151
13810SOL    HW243328   9.136   2.282   1.081
13811SOL     OW43329  11.854  10.150  11.552
13811SOL    HW143330  11.927  10.154  11.490
13811SOL    HW243331  11.883  10.201  11.627
13812SOL     OW43332  12.553  13.881   4.412
13812SOL    HW143333  12.589  13.798   4.381
13812SOL    HW243334  12.601  13.947   4.363
13813SOL     OW43335  11.118   8.378   9.588
13813SOL    HW143336  11.112   8.282   9.581
13813SOL    HW243337  11.029   8.409   9.570
13814SOL     OW43338   5.683   5.223   9.097
13814SOL    HW143339   5.648   5.301   9.140
13814SOL    HW243340   5.687   5.157   9.166
13815SOL     OW43341   8.021   5.128  14.728
13815SOL    HW143342   8.055   5.040  14.744
13815SOL    HW243343   7.928   5.116  14.713
13816SOL     OW43344  10.071  11.601   2.950
13816SOL    HW143345  10.050  11.650   3.029
13816SOL    HW243346  10.128  11.659   2.900
13817SOL     OW43347   4.069   7.000  12.469
13817SOL    HW143348   4.074   7.071  12.533
13817SOL    HW243349   4.160   6.988  12.441
13818SOL     OW43350   9.124   0.363   2.745
13818SOL    HW143351   9.046   0.306   2.746
13818SOL    HW243352   9.089   0.451   2.734
13819SOL     OW43353   6.693  10.693  14.303
13819SOL    HW143354   6.767  10.737  14.345
13819SOL    HW243355   6.624  10.760  14.299
13820SOL     OW43356   6.260   8.780   3.326
13820SOL    HW143357   6.170   8.749   3.326
13820SOL    HW243358   6.311   8.705   3.295
13821SOL     OW43359   6.880  10.864   2.421
13821SOL    HW143360   6.833  10.789   2.384
13821SOL    HW243361   6.971  10.850   2.396
13822SOL     OW43362  12.483   4.852   5.452
13822SOL    HW143363  12.443   4.883   5.371
13822SOL    HW243364  12.441   4.768   5.469
13823SOL     OW43365  13.815   6.760  12.293
13823SOL    HW143366  13.729   6.731  12.261
13823SOL    HW243367  13.796   6.806  12.374
13824SOL     OW43368   5.567   9.926  14.289
13824SOL    HW143369   5.494   9.978  14.257
13824SOL    HW243370   5.621   9.909  14.212
13825SOL     OW43371   2.544   3.129   0.888
13825SOL    HW143372   2.605   3.149   0.816
13825SOL    HW243373   2.578   3.048   0.925
13826SOL     OW43374  11.302   0.104   1.643
13826SOL    HW143375  11.224   0.146   1.609
13826SOL    HW243376  11.272   0.055   1.720
13827SOL     OW43377  10.765   9.135  10.928
13827SOL    HW143378  10.805   9.065  10.875
13827SOL    HW243379  10.806   9.215  10.896
13828SOL     OW43380  11.678  14.462  12.205
13828SOL    HW143381  11.762  14.426  12.176
13828SOL    HW243382  11.625  14.467  12.125
13829SOL     OW43383   1.017   9.986   9.041
13829SOL    HW143384   1.096   9.997   8.987
13829SOL    HW243385   0.948   9.970   8.977
13830SOL     OW43386  10.280   9.176  11.481
13830SOL    HW143387  10.284   9.202  11.573
13830SOL    HW243388  10.337   9.099  11.476
13831SOL     OW43389   0.631   5.470  10.314
13831SOL    HW143390   0.724   5.489  10.327
13831SOL    HW243391   0.610   5.407  10.383
13832SOL     OW43392   3.133   8.967  13.808
13832SOL    HW143393   3.105   9.021  13.883
13832SOL    HW243394   3.068   8.985  13.740
13833SOL     OW43395   4.524  13.950   9.308
13833SOL    HW143396   4.582  14.025   9.289
13833SOL    HW243397   4.436  13.983   9.289
13834SOL     OW43398   8.721  13.494  11.881
13834SOL    HW143399   8.789  13.556  11.905
13834SOL    HW243400   8.735  13.419  11.939
13835SOL     OW43401  14.610   2.980   5.162
13835SOL    HW143402  14.531   2.979   5.109
13835SOL    HW243403  14.578   2.985   5.252
13836SOL     OW43404   2.167   6.931  12.325
13836SOL    HW143405   2.221   6.853  12.339
13836SOL    HW243406   2.083   6.897  12.294
13837SOL     OW43407  11.001   2.453   9.440
13837SOL    HW143408  11.071   2.515   9.461
13837SOL    HW243409  11.046   2.376   9.408
13838SOL     OW43410  13.659  12.218   3.931
13838SOL    HW143411  13.695  12.130   3.927
13838SOL    HW243412  13.712  12.263   3.997
13839SOL     OW43413  11.235   7.553  14.774
13839SOL    HW143414  11.250   7.635  14.727
13839SOL    HW243415  11.263   7.485  14.712
13840SOL     OW43416   8.457   1.726  14.038
13840SOL    HW143417   8.486   1.805  14.083
13840SOL    HW243418   8.397   1.684  14.100
13841SOL     OW43419  14.632   6.555   4.681
13841SOL    HW143420  14.708   6.606   4.711
13841SOL    HW243421  14.575   6.550   4.757
13842SOL     OW43422   7.241  11.514   5.892
13842SOL    HW143423   7.242  11.451   5.964
13842SOL    HW243424   7.325  11.500   5.848
13843SOL     OW43425  14.374  12.841   9.708
13843SOL    HW143426  14.379  12.865   9.800
13843SOL    HW243427  14.449  12.884   9.667
13844SOL     OW43428  13.927  13.629  14.185
13844SOL    HW143429  13.918  13.709  14.133
13844SOL    HW243430  13.888  13.560  14.131
13845SOL     OW43431   8.075   9.886   5.199
13845SOL    HW143432   8.029   9.963   5.233
13845SOL    HW243433   8.092   9.907   5.107
13846SOL     OW43434   7.590   4.438   5.254
13846SOL    HW143435   7.559   4.429   5.344
13846SOL    HW243436   7.657   4.371   5.245
13847SOL     OW43437   5.504   8.038   4.493
13847SOL    HW143438   5.570   8.106   4.505
13847SOL    HW243439   5.513   8.013   4.401
13848SOL     OW43440   4.995   1.462   8.407
13848SOL    HW143441   4.967   1.389   8.351
13848SOL    HW243442   5.033   1.419   8.484
13849SOL     OW43443   8.499   2.000  14.490
13849SOL    HW143444   8.529   1.916  14.456
13849SOL    HW243445   8.527   1.999  14.582
13850SOL     OW43446  12.705   8.654   2.279
13850SOL    HW143447  12.685   8.611   2.196
13850SOL    HW243448  12.801   8.658   2.281
13851SOL     OW43449  14.793   8.570  12.357
13851SOL    HW143450  14.701   8.581  12.330
13851SOL    HW243451  14.844   8.594  12.280
13852SOL     OW43452   2.419   6.580   1.434
13852SOL    HW143453   2.362   6.504   1.438
13852SOL    HW243454   2.501   6.548   1.396
13853SOL     OW43455   1.089  11.830   6.267
13853SOL    HW143456   1.050  11.846   6.353
13853SOL    HW243457   1.022  11.783   6.218
13854SOL     OW43458   8.090   2.898   2.941
13854SOL    HW143459   8.124   2.843   3.012
13854SOL    HW243460   8.088   2.839   2.865
13855SOL     OW43461  12.198  13.619   1.947
13855SOL    HW143462  12.278  13.578   1.915
13855SOL    HW243463  12.182  13.578   2.032
13856SOL     OW43464  10.340   7.907   6.797
13856SOL    HW143465  10.396   7.924   6.721
13856SOL    HW243466  10.295   7.990   6.812
13857SOL     OW43467   2.765   9.745  14.230
13857SOL    HW143468   2.836   9.745  14.295
13857SOL    HW243469   2.790   9.678  14.167
13858SOL     OW43470   4.925  14.194  14.668
13858SOL    HW143471   4.893  14.113  14.629
13858SOL    HW243472   4.966  14.241  14.595
13859SOL     OW43473   6.628   8.555   5.639
13859SOL    HW143474   6.582   8.516   5.565
13859SOL    HW243475   6.718   8.524   5.630
13860SOL     OW43476   8.315   2.743  11.590
13860SOL    HW143477   8.385   2.699  11.540
13860SOL    HW243478   8.358   2.817  11.631
13861SOL     OW43479  11.298   4.307   3.278
13861SOL    HW143480  11.278   4.329   3.187
13861SOL    HW243481  11.348   4.225   3.272
13862SOL     OW43482  12.915  10.863   0.702
13862SOL    HW143483  12.822  10.884   0.697
13862SOL    HW243484  12.937  10.832   0.615
13863SOL     OW43485  11.038   8.129   1.882
13863SOL    HW143486  10.984   8.207   1.897
13863SOL    HW243487  11.069   8.105   1.969
13864SOL     OW43488  12.168   1.603   4.061
13864SOL    HW143489  12.158   1.646   4.146
13864SOL    HW243490  12.146   1.672   3.997
13865SOL     OW43491   3.041  14.668   6.976
13865SOL    HW143492   3.039  14.583   6.931
13865SOL    HW243493   3.010  14.648   7.065
13866SOL     OW43494  14.404   7.624   6.904
13866SOL    HW143495  14.324   7.575   6.883
13866SOL    HW243496  14.402   7.633   6.999
13867SOL     OW43497  11.238   7.613   6.160
13867SOL    HW143498  11.154   7.649   6.133
13867SOL    HW243499  11.303   7.670   6.118
13868SOL     OW43500   4.675   0.336   3.390
13868SOL    HW143501   4.604   0.295   3.439
13868SOL    HW243502   4.680   0.286   3.308
13869SOL     OW43503   0.744  11.147  13.223
13869SOL    HW143504   0.784  11.071  13.180
13869SOL    HW243505   0.801  11.165  13.297
13870SOL     OW43506  13.662  13.800   6.246
13870SOL    HW143507  13.633  13.771   6.333
13870SOL    HW243508  13.611  13.880   6.230
13871SOL     OW43509   5.541   3.647   0.197
13871SOL    HW143510   5.463   3.661   0.251
13871SOL    HW243511   5.509   3.605   0.117
13872SOL     OW43512  14.007   3.010   1.903
13872SOL    HW143513  14.100   3.017   1.884
13872SOL    HW243514  13.964   3.061   1.834
13873SOL     OW43515   0.186   8.887   3.121
13873SOL    HW143516   0.271   8.930   3.118
13873SOL    HW243517   0.191   8.820   3.053
13874SOL     OW43518  10.616   0.821   4.234
13874SOL    HW143519  10.629   0.841   4.327
13874SOL    HW243520  10.522   0.807   4.225
13875SOL     OW43521  14.382   7.928   2.303
13875SOL    HW143522  14.366   7.870   2.378
13875SOL    HW243523  14.449   7.989   2.334
13876SOL     OW43524  12.528  14.775  10.004
13876SOL    HW143525  12.623  14.770  10.006
13876SOL    HW243526  12.500  14.694   9.963
13877SOL     OW43527   0.277   2.878   6.098
13877SOL    HW143528   0.267   2.934   6.175
13877SOL    HW243529   0.209   2.907   6.037
13878SOL     OW43530   3.850   4.383  11.558
13878SOL    HW143531   3.810   4.381  11.645
13878SOL    HW243532   3.787   4.433  11.504
13879SOL     OW43533   8.208  13.169  10.389
13879SOL    HW143534   8.198  13.185  10.295
13879SOL    HW243535   8.142  13.224  10.430
13880SOL     OW43536  12.870   3.001  10.507
13880SOL    HW143537  12.776   2.984  10.515
13880SOL    HW243538  12.876   3.096  10.495
13881SOL     OW43539   7.368   4.121   2.247
13881SOL    HW143540   7.279   4.098   2.222
13881SOL    HW243541   7.386   4.202   2.201
13882SOL     OW43542   4.287   1.578  14.229
13882SOL    HW143543   4.314   1.620  14.310
13882SOL    HW243544   4.369   1.557  14.184
13883SOL     OW43545   6.305  14.764  10.457
13883SOL    HW143546   6.278  14.679  10.421
13883SOL    HW243547   6.337  14.813  10.382
13884SOL     OW43548  10.182   2.809   7.935
13884SOL    HW143549  10.106   2.866   7.924
13884SOL    HW243550  10.159   2.729   7.887
13885SOL     OW43551   2.351   8.403  10.821
13885SOL    HW143552   2.306   8.353  10.889
13885SOL    HW243553   2.309   8.376  10.740
13886SOL     OW43554   6.897   2.175   5.874
13886SOL    HW143555   6.897   2.107   5.941
13886SOL    HW243556   6.805   2.191   5.855
13887SOL     OW43557   2.354  13.168   5.847
13887SOL    HW143558   2.390  13.249   5.811
13887SOL    HW243559   2.278  13.149   5.791
13888SOL     OW43560   4.951   2.732  11.989
13888SOL    HW143561   5.012   2.799  11.957
13888SOL    HW243562   4.869   2.751  11.944
13889SOL     OW43563   1.745   9.838   6.967
13889SOL    HW143564   1.739   9.765   6.905
13889SOL    HW243565   1.670   9.826   7.025
13890SOL     OW43566   3.994   0.834   6.198
13890SOL    HW143567   3.981   0.741   6.182
13890SOL    HW243568   3.944   0.878   6.129
13891SOL     OW43569   4.524  13.693   7.904
13891SOL    HW143570   4.510  13.778   7.863
13891SOL    HW243571   4.506  13.630   7.834
13892SOL     OW43572  10.904   1.458   7.806
13892SOL    HW143573  10.886   1.366   7.787
13892SOL    HW243574  10.955   1.488   7.731
13893SOL     OW43575   7.839  12.674  11.028
13893SOL    HW143576   7.869  12.669  10.937
13893SOL    HW243577   7.750  12.638  11.025
13894SOL     OW43578   0.511   7.056   7.595
13894SOL    HW143579   0.545   7.144   7.577
13894SOL    HW243580   0.517   7.011   7.511
13895SOL     OW43581   7.288  14.011   3.944
13895SOL    HW143582   7.227  14.080   3.970
13895SOL    HW243583   7.233  13.946   3.901
13896SOL     OW43584   9.641   7.406   4.355
13896SOL    HW143585   9.723   7.415   4.404
13896SOL    HW243586   9.666   7.417   4.264
13897SOL     OW43587  10.662   5.046   2.927
13897SOL    HW143588  10.638   4.977   2.865
13897SOL    HW243589  10.654   5.004   3.013
13898SOL     OW43590  12.815  11.555  11.678
13898SOL    HW143591  12.776  11.538  11.593
13898SOL    HW243592  12.749  11.527  11.741
13899SOL     OW43593   4.141   7.853  12.135
13899SOL    HW143594   4.108   7.943  12.143
13899SOL    HW243595   4.074   7.806  12.087
13900SOL     OW43596   0.172  13.761  11.237
13900SOL    HW143597   0.225  13.803  11.304
13900SOL    HW243598   0.122  13.832  11.197
13901SOL     OW43599   9.272  14.116  10.906
13901SOL    HW143600   9.334  14.064  10.855
13901SOL    HW243601   9.200  14.134  10.847
13902SOL     OW43602   5.377   6.452   3.840
13902SOL    HW143603   5.305   6.437   3.901
13902SOL    HW243604   5.381   6.372   3.788
13903SOL     OW43605   7.707   5.181   0.648
13903SOL    HW143606   7.651   5.255   0.675
13903SOL    HW243607   7.647   5.120   0.605
13904SOL     OW43608   7.126   0.571   8.962
13904SOL    HW143609   7.090   0.495   9.006
13904SOL    HW243610   7.110   0.644   9.022
13905SOL     OW43611   4.896  10.068   8.588
13905SOL    HW143612   4.908  10.013   8.511
13905SOL    HW243613   4.948  10.027   8.656
13906SOL     OW43614   9.116   0.200   2.027
13906SOL    HW143615   9.169   0.230   1.953
13906SOL    HW243616   9.152   0.114   2.049
13907SOL     OW43617  11.309   7.918  12.838
13907SOL    HW143618  11.331   7.979  12.908
13907SOL    HW243619  11.276   7.841  12.884
13908SOL     OW43620   2.456  13.266   3.430
13908SOL    HW143621   2.514  13.194   3.456
13908SOL    HW243622   2.472  13.333   3.496
13909SOL     OW43623   3.230   5.120   2.310
13909SOL    HW143624   3.156   5.089   2.362
13909SOL    HW243625   3.280   5.041   2.289
13910SOL     OW43626  11.595  10.972   4.675
13910SOL    HW143627  11.520  10.997   4.729
13910SOL    HW243628  11.561  10.907   4.614
13911SOL     OW43629  10.840  13.402   6.567
13911SOL    HW143630  10.798  13.379   6.484
13911SOL    HW243631  10.826  13.325   6.623
13912SOL     OW43632  14.037   6.750   0.218
13912SOL    HW143633  14.055   6.677   0.277
13912SOL    HW243634  14.120   6.798   0.213
13913SOL     OW43635  12.555   6.998   5.091
13913SOL    HW143636  12.602   7.000   5.008
13913SOL    HW243637  12.613   6.951   5.150
13914SOL     OW43638  10.708   2.806   9.073
13914SOL    HW143639  10.681   2.897   9.062
13914SOL    HW243640  10.628   2.755   9.059
13915SOL     OW43641   2.425   0.196   6.410
13915SOL    HW143642   2.460   0.255   6.477
13915SOL    HW243643   2.498   0.137   6.391
13916SOL     OW43644   9.764   0.995   2.606
13916SOL    HW143645   9.699   0.936   2.642
13916SOL    HW243646   9.843   0.942   2.597
13917SOL     OW43647   5.414   6.396   6.634
13917SOL    HW143648   5.356   6.463   6.598
13917SOL    HW243649   5.462   6.441   6.704
13918SOL     OW43650   6.605  14.178   4.078
13918SOL    HW143651   6.614  14.263   4.121
13918SOL    HW243652   6.539  14.192   4.010
13919SOL     OW43653   1.099   9.032   7.218
13919SOL    HW143654   1.142   9.041   7.304
13919SOL    HW243655   1.046   8.953   7.227
13920SOL     OW43656  13.741  13.350   7.356
13920SOL    HW143657  13.670  13.358   7.419
13920SOL    HW243658  13.739  13.258   7.330
13921SOL     OW43659  10.615   9.189   5.830
13921SOL    HW143660  10.569   9.177   5.913
13921SOL    HW243661  10.552   9.163   5.763
13922SOL     OW43662   3.664   6.805   0.823
13922SOL    HW143663   3.675   6.718   0.785
13922SOL    HW243664   3.753   6.836   0.838
13923SOL     OW43665   2.581  14.791  13.534
13923SOL    HW143666   2.630   0.001  13.527
13923SOL    HW243667   2.626  14.731  13.475
13924SOL     OW43668   5.650   3.133   4.531
13924SOL    HW143669   5.673   3.040   4.531
13924SOL    HW243670   5.665   3.161   4.621
13925SOL     OW43671  14.380  12.421   9.503
13925SOL    HW143672  14.414  12.510   9.499
13925SOL    HW243673  14.300  12.428   9.555
13926SOL     OW43674  13.269  10.616   9.177
13926SOL    HW143675  13.313  10.534   9.158
13926SOL    HW243676  13.214  10.596   9.253
13927SOL     OW43677   2.215   4.258   7.315
13927SOL    HW143678   2.263   4.317   7.373
13927SOL    HW243679   2.204   4.178   7.367
13928SOL     OW43680   6.420   5.843  12.764
13928SOL    HW143681   6.373   5.893  12.697
13928SOL    HW243682   6.418   5.899  12.842
13929SOL     OW43683   0.315   3.209   2.224
13929SOL    HW143684   0.272   3.185   2.142
13929SOL    HW243685   0.265   3.284   2.257
13930SOL     OW43686   4.251   9.243   4.578
13930SOL    HW143687   4.329   9.257   4.631
13930SOL    HW243688   4.264   9.299   4.502
13931SOL     OW43689  10.663   0.468  11.867
13931SOL    HW143690  10.756   0.449  11.883
13931SOL    HW243691  10.665   0.532  11.796
13932SOL     OW43692   2.810   5.857   6.875
13932SOL    HW143693   2.902   5.861   6.847
13932SOL    HW243694   2.814   5.860   6.970
13933SOL     OW43695  13.379   8.892   4.053
13933SOL    HW143696  13.448   8.922   4.113
13933SOL    HW243697  13.309   8.861   4.110
13934SOL     OW43698  12.152   5.887   1.737
13934SOL    HW143699  12.152   5.982   1.751
13934SOL    HW243700  12.062   5.868   1.709
13935SOL     OW43701   2.058   2.656   5.390
13935SOL    HW143702   2.023   2.583   5.339
13935SOL    HW243703   2.143   2.624   5.421
13936SOL     OW43704  13.090   1.743   3.914
13936SOL    HW143705  13.079   1.829   3.953
13936SOL    HW243706  13.003   1.705   3.915
13937SOL     OW43707   3.565   3.568   8.575
13937SOL    HW143708   3.581   3.595   8.484
13937SOL    HW243709   3.614   3.632   8.627
13938SOL     OW43710   9.845   6.162   9.214
13938SOL    HW143711   9.927   6.211   9.224
13938SOL    HW243712   9.862   6.078   9.256
13939SOL     OW43713  14.717   4.878  10.306
13939SOL    HW143714  14.729   4.839  10.393
13939SOL    HW243715  14.793   4.936  10.296
13940SOL     OW43716   2.554   9.218   9.346
13940SOL    HW143717   2.517   9.224   9.434
13940SOL    HW243718   2.557   9.309   9.315
13941SOL     OW43719   9.709  10.423   8.302
13941SOL    HW143720   9.736  10.496   8.358
13941SOL    HW243721   9.714  10.346   8.358
13942SOL     OW43722   9.098  12.731  13.917
13942SOL    HW143723   9.166  12.669  13.945
13942SOL    HW243724   9.083  12.786  13.994
13943SOL     OW43725  10.936  10.326  13.793
13943SOL    HW143726  10.862  10.284  13.750
13943SOL    HW243727  10.897  10.379  13.862
13944SOL     OW43728   8.065   7.420   8.154
13944SOL    HW143729   8.123   7.488   8.188
13944SOL    HW243730   8.009   7.397   8.228
13945SOL     OW43731   1.139   1.020   9.624
13945SOL    HW143732   1.093   1.038   9.706
13945SOL    HW243733   1.208   1.087   9.621
13946SOL     OW43734   6.160  10.497   9.486
13946SOL    HW143735   6.106  10.540   9.552
13946SOL    HW243736   6.169  10.562   9.416
13947SOL     OW43737   1.455  10.668   3.367
13947SOL    HW143738   1.464  10.575   3.346
13947SOL    HW243739   1.444  10.670   3.462
13948SOL     OW43740   0.985   9.147   0.354
13948SOL    HW143741   1.011   9.228   0.398
13948SOL    HW243742   0.894   9.163   0.327
13949SOL     OW43743   7.136   4.037   5.545
13949SOL    HW143744   7.063   4.082   5.588
13949SOL    HW243745   7.111   4.034   5.453
13950SOL     OW43746   3.617  12.534   5.249
13950SOL    HW143747   3.683  12.481   5.294
13950SOL    HW243748   3.539  12.527   5.304
13951SOL     OW43749   9.943   8.186   2.563
13951SOL    HW143750   9.932   8.275   2.530
13951SOL    HW243751   9.855   8.148   2.558
13952SOL     OW43752  11.373   2.692   3.216
13952SOL    HW143753  11.408   2.733   3.295
13952SOL    HW243754  11.335   2.610   3.246
13953SOL     OW43755   4.379   8.342  14.197
13953SOL    HW143756   4.470   8.313  14.208
13953SOL    HW243757   4.386   8.437  14.185
13954SOL     OW43758  13.414  10.157  11.444
13954SOL    HW143759  13.378  10.180  11.358
13954SOL    HW243760  13.452  10.238  11.477
13955SOL     OW43761  11.735   0.502  13.639
13955SOL    HW143762  11.672   0.556  13.592
13955SOL    HW243763  11.806   0.563  13.662
13956SOL     OW43764   8.718  11.584  10.947
13956SOL    HW143765   8.785  11.620  10.888
13956SOL    HW243766   8.677  11.514  10.896
13957SOL     OW43767   6.575   1.597  10.258
13957SOL    HW143768   6.629   1.529  10.297
13957SOL    HW243769   6.538   1.645  10.333
13958SOL     OW43770  10.493   2.422   5.950
13958SOL    HW143771  10.543   2.352   5.907
13958SOL    HW243772  10.541   2.502   5.929
13959SOL     OW43773   9.237   2.314   0.808
13959SOL    HW143774   9.322   2.297   0.768
13959SOL    HW243775   9.202   2.388   0.759
13960SOL     OW43776  11.126   1.024   3.746
13960SOL    HW143777  11.181   1.086   3.699
13960SOL    HW243778  11.097   0.962   3.679
13961SOL     OW43779   6.769   6.905   2.667
13961SOL    HW143780   6.762   6.888   2.761
13961SOL    HW243781   6.863   6.912   2.650
13962SOL     OW43782  10.270   6.532   8.942
13962SOL    HW143783  10.236   6.563   9.026
13962SOL    HW243784  10.324   6.604   8.909
13963SOL     OW43785   6.057   3.813   9.000
13963SOL    HW143786   6.017   3.879   9.056
13963SOL    HW243787   6.124   3.772   9.055
13964SOL     OW43788  13.217  10.566   2.791
13964SOL    HW143789  13.311  10.569   2.809
13964SOL    HW243790  13.180  10.514   2.862
13965SOL     OW43791   4.641  14.272   4.511
13965SOL    HW143792   4.582  14.340   4.544
13965SOL    HW243793   4.605  14.249   4.426
13966SOL     OW43794   4.374   6.767   5.983
13966SOL    HW143795   4.422   6.838   6.025
13966SOL    HW243796   4.427   6.689   5.997
13967SOL     OW43797   5.449   2.830  10.938
13967SOL    HW143798   5.472   2.901  10.878
13967SOL    HW243799   5.530   2.781  10.950
13968SOL     OW43800  10.062   5.878   5.046
13968SOL    HW143801  10.041   5.896   4.954
13968SOL    HW243802   9.981   5.894   5.093
13969SOL     OW43803   5.306  10.222  13.199
13969SOL    HW143804   5.359  10.146  13.175
13969SOL    HW243805   5.323  10.234  13.292
13970SOL     OW43806   3.437  10.232   1.944
13970SOL    HW143807   3.378  10.164   1.913
13970SOL    HW243808   3.506  10.236   1.877
13971SOL     OW43809   9.919   3.187  13.215
13971SOL    HW143810   9.856   3.189  13.287
13971SOL    HW243811   9.998   3.228  13.251
13972SOL     OW43812   9.592   1.392   2.058
13972SOL    HW143813   9.528   1.455   2.025
13972SOL    HW243814   9.640   1.440   2.126
13973SOL     OW43815   9.064   3.623  13.056
13973SOL    HW143816   9.052   3.713  13.089
13973SOL    HW243817   9.079   3.571  13.135
13974SOL     OW43818   3.592   3.492  12.582
13974SOL    HW143819   3.663   3.511  12.521
13974SOL    HW243820   3.528   3.561  12.566
13975SOL     OW43821   3.394  13.061   4.654
13975SOL    HW143822   3.326  13.098   4.598
13975SOL    HW243823   3.346  13.018   4.725
13976SOL     OW43824  11.150   7.923   2.575
13976SOL    HW143825  11.061   7.944   2.546
13976SOL    HW243826  11.199   7.912   2.494
13977SOL     OW43827   4.863  13.317  14.467
13977SOL    HW143828   4.914  13.307  14.387
13977SOL    HW243829   4.803  13.242  14.467
13978SOL     OW43830   4.543   1.363   8.650
13978SOL    HW143831   4.499   1.438   8.689
13978SOL    HW243832   4.489   1.339   8.575
13979SOL     OW43833   9.356   0.092   7.333
13979SOL    HW143834   9.427   0.150   7.360
13979SOL    HW243835   9.277   0.144   7.344
13980SOL     OW43836   4.101   2.559   6.435
13980SOL    HW143837   4.165   2.488   6.434
13980SOL    HW243838   4.119   2.610   6.356
13981SOL     OW43839   1.677  12.099  10.090
13981SOL    HW143840   1.617  12.124  10.160
13981SOL    HW243841   1.621  12.084  10.014
13982SOL     OW43842   0.279   6.227   0.148
13982SOL    HW143843   0.296   6.137   0.119
13982SOL    HW243844   0.204   6.255   0.094
13983SOL     OW43845  10.624  12.446   8.070
13983SOL    HW143846  10.606  12.411   7.983
13983SOL    HW243847  10.541  12.436   8.117
13984SOL     OW43848   6.612   7.009   0.695
13984SOL    HW143849   6.680   6.943   0.685
13984SOL    HW243850   6.531   6.964   0.675
13985SOL     OW43851   9.288   4.909   5.259
13985SOL    HW143852   9.228   4.984   5.258
13985SOL    HW243853   9.295   4.882   5.167
13986SOL     OW43854   8.291   8.704   8.093
13986SOL    HW143855   8.283   8.641   8.165
13986SOL    HW243856   8.365   8.672   8.041
13987SOL     OW43857  11.518   7.771  10.591
13987SOL    HW143858  11.569   7.843  10.627
13987SOL    HW243859  11.443   7.762  10.650
13988SOL     OW43860   4.643   0.231   5.438
13988SOL    HW143861   4.647   0.324   5.415
13988SOL    HW243862   4.612   0.230   5.528
13989SOL     OW43863   4.948   8.269   3.917
13989SOL    HW143864   4.954   8.221   3.999
13989SOL    HW243865   5.011   8.226   3.859
13990SOL     OW43866   5.802   8.675  13.036
13990SOL    HW143867   5.728   8.616  13.026
13990SOL    HW243868   5.868   8.642  12.974
13991SOL     OW43869   7.270  12.149   4.104
13991SOL    HW143870   7.274  12.114   4.194
13991SOL    HW243871   7.283  12.243   4.114
13992SOL     OW43872   8.347  12.194   9.721
13992SOL    HW143873   8.360  12.160   9.633
13992SOL    HW243874   8.265  12.156   9.751
13993SOL     OW43875   9.289   4.643  11.921
13993SOL    HW143876   9.280   4.599  11.836
13993SOL    HW243877   9.245   4.584  11.983
13994SOL     OW43878   5.870  10.261   3.546
13994SOL    HW143879   5.927  10.208   3.491
13994SOL    HW243880   5.802  10.293   3.486
13995SOL     OW43881   5.465  13.278  12.706
13995SOL    HW143882   5.478  13.279  12.611
13995SOL    HW243883   5.502  13.195  12.735
13996SOL     OW43884   1.723   1.028  14.595
13996SOL    HW143885   1.813   1.038  14.625
13996SOL    HW243886   1.685   0.963  14.655
13997SOL     OW43887  11.618  14.561   6.240
13997SOL    HW143888  11.529  14.573   6.205
13997SOL    HW243889  11.604  14.519   6.325
13998SOL     OW43890   5.954  11.420   1.222
13998SOL    HW143891   6.003  11.501   1.238
13998SOL    HW243892   5.961  11.406   1.128
13999SOL     OW43893   3.754   1.538   0.796
13999SOL    HW143894   3.685   1.487   0.754
13999SOL    HW243895   3.744   1.520   0.890
14000SOL     OW43896  13.624  11.159   7.827
14000SOL    HW143897  13.647  11.092   7.763
14000SOL    HW243898  13.569  11.113   7.891
14001SOL     OW43899   7.187  12.047  11.844
14001SOL    HW143900   7.257  12.102  11.879
14001SOL    HW243901   7.145  12.102  11.778
14002SOL     OW43902   7.566   0.041  13.613
14002SOL    HW143903   7.484   0.066  13.654
14002SOL    HW243904   7.611   0.123  13.596
14003SOL     OW43905  12.026  10.037   5.210
14003SOL    HW143906  12.073   9.960   5.242
14003SOL    HW243907  11.988  10.077   5.289
14004SOL     OW43908   9.042   1.342   0.480
14004SOL    HW143909   9.074   1.420   0.434
14004SOL    HW243910   9.014   1.283   0.411
14005SOL     OW43911  10.820   2.070  13.311
14005SOL    HW143912  10.819   1.977  13.290
14005SOL    HW243913  10.875   2.077  13.389
14006SOL     OW43914   0.993   3.091  11.865
14006SOL    HW143915   0.952   3.070  11.950
14006SOL    HW243916   0.960   3.023  11.806
14007SOL     OW43917   6.336   2.107   7.564
14007SOL    HW143918   6.248   2.078   7.589
14007SOL    HW243919   6.322   2.154   7.482
14008SOL     OW43920   7.102  11.444  10.780
14008SOL    HW143921   7.108  11.527  10.827
14008SOL    HW243922   7.188  11.432  10.740
14009SOL     OW43923  14.706   8.196   1.642
14009SOL    HW143924  14.760   8.256   1.591
14009SOL    HW243925  14.639   8.166   1.580
14010SOL     OW43926   0.554   2.547  10.474
14010SOL    HW143927   0.502   2.468  10.459
14010SOL    HW243928   0.644   2.516  10.483
14011SOL     OW43929  11.941   6.950  10.099
14011SOL    HW143930  11.853   6.949  10.136
14011SOL    HW243931  11.980   7.031  10.132
14012SOL     OW43932   7.523   3.573  10.827
14012SOL    HW143933   7.471   3.493  10.824
14012SOL    HW243934   7.523   3.605  10.737
14013SOL     OW43935  10.029   8.826   4.788
14013SOL    HW143936  10.095   8.863   4.847
14013SOL    HW243937   9.947   8.832   4.837
14014SOL     OW43938  10.242  11.684   1.967
14014SOL    HW143939  10.290  11.613   2.011
14014SOL    HW243940  10.166  11.700   2.023
14015SOL     OW43941   4.882   9.243   9.715
14015SOL    HW143942   4.956   9.191   9.681
14015SOL    HW243943   4.828   9.180   9.762
14016SOL     OW43944   7.899   0.815  14.853
14016SOL    HW143945   7.885   0.721  14.844
14016SOL    HW243946   7.969   0.835  14.790
14017SOL     OW43947   7.182   4.285   8.335
14017SOL    HW143948   7.191   4.357   8.397
14017SOL    HW243949   7.105   4.307   8.283
14018SOL     OW43950   7.288   3.146  12.180
14018SOL    HW143951   7.379   3.173  12.173
14018SOL    HW243952   7.272   3.095  12.100
14019SOL     OW43953   0.206   3.746   0.522
14019SOL    HW143954   0.245   3.822   0.478
14019SOL    HW243955   0.134   3.783   0.573
14020SOL     OW43956   5.655   5.556  11.298
14020SOL    HW143957   5.611   5.473  11.280
14020SOL    HW243958   5.589   5.623  11.281
14021SOL     OW43959  14.435   1.975   3.363
14021SOL    HW143960  14.510   1.917   3.375
14021SOL    HW243961  14.374   1.950   3.432
14022SOL     OW43962   1.746   2.481  14.604
14022SOL    HW143963   1.752   2.556  14.544
14022SOL    HW243964   1.654   2.456  14.601
14023SOL     OW43965   8.940   7.117  14.373
14023SOL    HW143966   8.970   7.156  14.455
14023SOL    HW243967   9.005   7.051  14.352
14024SOL     OW43968   0.177   8.455  14.487
14024SOL    HW143969   0.181   8.535  14.539
14024SOL    HW243970   0.133   8.481  14.406
14025SOL     OW43971   6.460   3.369  14.764
14025SOL    HW143972   6.414   3.301  14.715
14025SOL    HW243973   6.520   3.321  14.821
14026SOL     OW43974  10.583  13.945   8.621
14026SOL    HW143975  10.672  13.928   8.650
14026SOL    HW243976  10.553  14.017   8.678
14027SOL     OW43977   5.010   3.962  14.667
14027SOL    HW143978   5.097   3.930  14.688
14027SOL    HW243979   5.023   4.052  14.636
14028SOL     OW43980   7.915   7.244   1.020
14028SOL    HW143981   7.862   7.227   0.942
14028SOL    HW243982   7.992   7.290   0.988
14029SOL     OW43983  11.959  10.878  14.501
14029SOL    HW143984  11.892  10.911  14.441
14029SOL    HW243985  11.972  10.950  14.564
14030SOL     OW43986  11.912   4.008   4.755
14030SOL    HW143987  11.943   3.971   4.672
14030SOL    HW243988  11.923   4.102   4.744
14031SOL     OW43989   1.697   2.773   5.299
14031SOL    HW143990   1.691   2.707   5.369
14031SOL    HW243991   1.718   2.722   5.221
14032SOL     OW43992  12.492  10.823   8.852
14032SOL    HW143993  12.566  10.883   8.841
14032SOL    HW243994  12.446  10.856   8.929
14033SOL     OW43995   5.328  13.598   3.573
14033SOL    HW143996   5.408  13.620   3.623
14033SOL    HW243997   5.335  13.649   3.493
14034SOL     OW43998   7.142  12.903   2.224
14034SOL    HW143999   7.124  12.816   2.258
14034SOL    HW244000   7.060  12.951   2.237
14035SOL     OW44001  11.250   5.980   7.112
14035SOL    HW144002  11.219   6.001   7.024
14035SOL    HW244003  11.318   5.914   7.098
14036SOL     OW44004  10.615   6.971  14.116
14036SOL    HW144005  10.672   6.951  14.042
14036SOL    HW244006  10.541   6.910  14.108
14037SOL     OW44007   5.238   5.595   0.189
14037SOL    HW144008   5.283   5.515   0.161
14037SOL    HW244009   5.309   5.658   0.203
14038SOL     OW44010  12.406   2.208   9.199
14038SOL    HW144011  12.490   2.216   9.154
14038SOL    HW244012  12.419   2.134   9.259
14039SOL     OW44013   9.171   6.695   0.085
14039SOL    HW144014   9.186   6.789   0.095
14039SOL    HW244015   9.094   6.689   0.028
14040SOL     OW44016  11.971   7.532   1.015
14040SOL    HW144017  12.057   7.573   1.008
14040SOL    HW244018  11.987   7.449   1.061
14041SOL     OW44019   7.903  13.471  14.566
14041SOL    HW144020   7.942  13.553  14.534
14041SOL    HW244021   7.972  13.431  14.618
14042SOL     OW44022   0.831   8.277   1.777
14042SOL    HW144023   0.896   8.208   1.767
14042SOL    HW244024   0.750   8.231   1.797
14043SOL     OW44025  10.883  12.031   6.390
14043SOL    HW144026  10.896  12.046   6.484
14043SOL    HW244027  10.971  12.031   6.354
14044SOL     OW44028  13.575   6.474   7.307
14044SOL    HW144029  13.642   6.407   7.319
14044SOL    HW244030  13.496   6.425   7.286
14045SOL     OW44031   5.213   9.631   9.961
14045SOL    HW144032   5.196   9.696  10.029
14045SOL    HW244033   5.143   9.645   9.896
14046SOL     OW44034   5.338   6.416   5.421
14046SOL    HW144035   5.413   6.390   5.474
14046SOL    HW244036   5.359   6.504   5.390
14047SOL     OW44037   5.272   9.549  10.723
14047SOL    HW144038   5.323   9.548  10.643
14047SOL    HW244039   5.309   9.478  10.776
14048SOL     OW44040  10.750   0.997  11.714
14048SOL    HW144041  10.665   0.992  11.758
14048SOL    HW244042  10.760   1.089  11.690
14049SOL     OW44043   6.975  13.767   8.953
14049SOL    HW144044   6.930  13.740   9.033
14049SOL    HW244045   7.060  13.799   8.982
14050SOL     OW44046   1.125   7.276   5.228
14050SOL    HW144047   1.040   7.239   5.254
14050SOL    HW244048   1.129   7.361   5.271
14051SOL     OW44049  11.761  11.951   6.748
14051SOL    HW144050  11.829  11.894   6.784
14051SOL    HW244051  11.768  12.033   6.798
14052SOL     OW44052   4.873  14.262  13.735
14052SOL    HW144053   4.807  14.235  13.798
14052SOL    HW244054   4.914  14.180  13.706
14053SOL     OW44055   4.808   8.722   4.158
14053SOL    HW144056   4.857   8.655   4.109
14053SOL    HW244057   4.873   8.760   4.218
14054SOL     OW44058   3.930   5.103   1.848
14054SOL    HW144059   4.023   5.112   1.829
14054SOL    HW244060   3.911   5.011   1.830
14055SOL     OW44061   1.151  11.035   8.509
14055SOL    HW144062   1.168  10.948   8.546
14055SOL    HW244063   1.087  11.075   8.568
14056SOL     OW44064   8.903   5.862  10.075
14056SOL    HW144065   8.930   5.872  10.166
14056SOL    HW244066   8.897   5.951  10.041
14057SOL     OW44067   6.645  14.406   8.644
14057SOL    HW144068   6.675  14.386   8.555
14057SOL    HW244069   6.551  14.391   8.642
14058SOL     OW44070   4.121   5.731   6.605
14058SOL    HW144071   4.076   5.646   6.603
14058SOL    HW244072   4.083   5.777   6.680
14059SOL     OW44073  12.920   6.838  13.325
14059SOL    HW144074  12.842   6.813  13.274
14059SOL    HW244075  12.892   6.915  13.374
14060SOL     OW44076   7.087   5.272   2.383
14060SOL    HW144077   7.111   5.362   2.405
14060SOL    HW244078   7.170   5.228   2.371
14061SOL     OW44079   1.271   5.616   3.913
14061SOL    HW144080   1.353   5.641   3.954
14061SOL    HW244081   1.296   5.547   3.851
14062SOL     OW44082   2.521   7.500   5.445
14062SOL    HW144083   2.544   7.446   5.521
14062SOL    HW244084   2.595   7.491   5.386
14063SOL     OW44085   8.244   3.465  13.757
14063SOL    HW144086   8.247   3.421  13.842
14063SOL    HW244087   8.157   3.445  13.723
14064SOL     OW44088  13.507   6.783  14.573
14064SOL    HW144089  13.548   6.724  14.510
14064SOL    HW244090  13.581   6.821  14.622
14065SOL     OW44091  10.298  11.214   9.426
14065SOL    HW144092  10.229  11.147   9.423
14065SOL    HW244093  10.269  11.275   9.494
14066SOL     OW44094  14.348   0.082  13.489
14066SOL    HW144095  14.379   0.089  13.399
14066SOL    HW244096  14.365   0.167  13.528
14067SOL     OW44097   6.263   6.266   2.712
14067SOL    HW144098   6.294   6.215   2.787
14067SOL    HW244099   6.219   6.341   2.751
14068SOL     OW44100  11.372   4.303   8.445
14068SOL    HW144101  11.276   4.309   8.450
14068SOL    HW244102  11.400   4.393   8.426
14069SOL     OW44103   0.910   6.460  14.169
14069SOL    HW144104   0.916   6.536  14.227
14069SOL    HW244105   0.898   6.497  14.082
14070SOL     OW44106   7.407  13.659   6.187
14070SOL    HW144107   7.428  13.706   6.268
14070SOL    HW244108   7.491  13.654   6.141
14071SOL     OW44109   2.481   6.066  14.082
14071SOL    HW144110   2.393   6.101  14.095
14071SOL    HW244111   2.491   6.061  13.987
14072SOL     OW44112  14.480   4.777  10.583
14072SOL    HW144113  14.452   4.829  10.659
14072SOL    HW244114  14.428   4.812  10.511
14073SOL     OW44115   2.990   5.498  10.136
14073SOL    HW144116   2.908   5.487  10.087
14073SOL    HW244117   3.021   5.409  10.152
14074SOL     OW44118   2.023   1.162  12.146
14074SOL    HW144119   2.067   1.184  12.228
14074SOL    HW244120   1.938   1.126  12.173
14075SOL     OW44121   1.686   2.107   0.348
14075SOL    HW144122   1.643   2.105   0.263
14075SOL    HW244123   1.615   2.101   0.412
14076SOL     OW44124   5.464   4.861   4.308
14076SOL    HW144125   5.499   4.812   4.383
14076SOL    HW244126   5.497   4.814   4.231
14077SOL     OW44127   0.714   6.298   8.785
14077SOL    HW144128   0.771   6.232   8.747
14077SOL    HW244129   0.739   6.380   8.742
14078SOL     OW44130   5.712   3.246   1.678
14078SOL    HW144131   5.803   3.228   1.699
14078SOL    HW244132   5.665   3.233   1.760
14079SOL     OW44133   6.441   9.414   3.764
14079SOL    HW144134   6.446   9.429   3.858
14079SOL    HW244135   6.525   9.444   3.730
14080SOL     OW44136  13.051   9.305  12.217
14080SOL    HW144137  13.012   9.219  12.236
14080SOL    HW244138  13.056   9.308  12.121
14081SOL     OW44139   6.904   2.293   6.642
14081SOL    HW144140   6.862   2.231   6.702
14081SOL    HW244141   6.832   2.324   6.586
14082SOL     OW44142   3.385  10.913  11.323
14082SOL    HW144143   3.408  10.990  11.374
14082SOL    HW244144   3.292  10.899  11.339
14083SOL     OW44145   0.225  12.005   9.839
14083SOL    HW144146   0.157  11.940   9.856
14083SOL    HW244147   0.206  12.076   9.900
14084SOL     OW44148   8.757   7.499   8.202
14084SOL    HW144149   8.843   7.488   8.242
14084SOL    HW244150   8.726   7.410   8.186
14085SOL     OW44151  14.287  13.506   8.883
14085SOL    HW144152  14.330  13.547   8.808
14085SOL    HW244153  14.251  13.579   8.933
14086SOL     OW44154   5.595   7.691   2.109
14086SOL    HW144155   5.550   7.624   2.160
14086SOL    HW244156   5.612   7.762   2.172
14087SOL     OW44157   0.397   2.244  12.085
14087SOL    HW144158   0.430   2.314  12.142
14087SOL    HW244159   0.384   2.287  12.001
14088SOL     OW44160   5.148  11.681   5.649
14088SOL    HW144161   5.180  11.597   5.682
14088SOL    HW244162   5.065  11.696   5.696
14089SOL     OW44163   2.643   3.450   6.513
14089SOL    HW144164   2.736   3.461   6.533
14089SOL    HW244165   2.608   3.539   6.511
14090SOL     OW44166   8.228   0.396   4.125
14090SOL    HW144167   8.183   0.348   4.194
14090SOL    HW244168   8.164   0.461   4.095
14091SOL     OW44169  13.843   2.155  11.898
14091SOL    HW144170  13.773   2.219  11.905
14091SOL    HW244171  13.894   2.167  11.979
14092SOL     OW44172   4.338   4.021   3.431
14092SOL    HW144173   4.275   4.002   3.361
14092SOL    HW244174   4.298   3.985   3.510
14093SOL     OW44175   9.876   4.667   2.197
14093SOL    HW144176   9.786   4.699   2.202
14093SOL    HW244177   9.925   4.738   2.156
14094SOL     OW44178  14.853  13.955  10.958
14094SOL    HW144179  14.796  13.979  10.885
14094SOL    HW244180   0.048  13.900  10.918
14095SOL     OW44181   4.227   7.579  11.911
14095SOL    HW144182   4.284   7.648  11.945
14095SOL    HW244183   4.183   7.543  11.988
14096SOL     OW44184   7.211  13.380   3.325
14096SOL    HW144185   7.305  13.396   3.330
14096SOL    HW244186   7.170  13.460   3.359
14097SOL     OW44187   0.243   2.349   7.805
14097SOL    HW144188   0.191   2.295   7.864
14097SOL    HW244189   0.244   2.435   7.846
14098SOL     OW44190   6.185  10.346   5.444
14098SOL    HW144191   6.100  10.367   5.481
14098SOL    HW244192   6.194  10.251   5.456
14099SOL     OW44193   3.380  12.712  12.168
14099SOL    HW144194   3.308  12.722  12.106
14099SOL    HW244195   3.415  12.624  12.150
14100SOL     OW44196   6.921  13.465   3.133
14100SOL    HW144197   6.941  13.554   3.104
14100SOL    HW244198   6.982  13.410   3.084
14101SOL     OW44199   8.969   0.858   8.293
14101SOL    HW144200   9.042   0.889   8.347
14101SOL    HW244201   9.009   0.802   8.227
14102SOL     OW44202   2.369   4.689   8.133
14102SOL    HW144203   2.432   4.681   8.204
14102SOL    HW244204   2.297   4.631   8.158
14103SOL     OW44205  11.528  10.600   2.353
14103SOL    HW144206  11.502  10.691   2.362
14103SOL    HW244207  11.518  10.563   2.440
14104SOL     OW44208   4.384   9.293  10.798
14104SOL    HW144209   4.413   9.382  10.777
14104SOL    HW244210   4.447   9.236  10.754
14105SOL     OW44211   5.584   1.412   4.309
14105SOL    HW144212   5.561   1.319   4.310
14105SOL    HW244213   5.526   1.451   4.244
14106SOL     OW44214   6.823  14.470   3.745
14106SOL    HW144215   6.840  14.393   3.691
14106SOL    HW244216   6.728  14.468   3.760
14107SOL     OW44217  10.818   8.892  12.764
14107SOL    HW144218  10.740   8.837  12.761
14107SOL    HW244219  10.786   8.979  12.739
14108SOL     OW44220   3.618   9.721   0.116
14108SOL    HW144221   3.527   9.695   0.105
14108SOL    HW244222   3.668   9.643   0.095
14109SOL     OW44223   6.678   2.583  10.823
14109SOL    HW144224   6.647   2.607  10.910
14109SOL    HW244225   6.598   2.566  10.773
14110SOL     OW44226   8.561  10.852   7.630
14110SOL    HW144227   8.629  10.878   7.567
14110SOL    HW244228   8.587  10.765   7.659
14111SOL     OW44229   6.257  12.356  14.284
14111SOL    HW144230   6.349  12.373  14.263
14111SOL    HW244231   6.208  12.425  14.238
14112SOL     OW44232  13.309  14.225  14.586
14112SOL    HW144233  13.308  14.132  14.605
14112SOL    HW244234  13.350  14.232  14.500
14113SOL     OW44235   7.549   9.523  13.098
14113SOL    HW144236   7.615   9.585  13.068
14113SOL    HW244237   7.491   9.510  13.023
14114SOL     OW44238   9.782   9.860   5.690
14114SOL    HW144239   9.796   9.953   5.678
14114SOL    HW244240   9.838   9.837   5.765
14115SOL     OW44241  12.250   2.040  10.657
14115SOL    HW144242  12.340   2.013  10.636
14115SOL    HW244243  12.216   2.076  10.574
14116SOL     OW44244   0.592   5.900   2.331
14116SOL    HW144245   0.537   5.857   2.266
14116SOL    HW244246   0.602   5.835   2.401
14117SOL     OW44247   9.648   4.838   2.311
14117SOL    HW144248   9.660   4.896   2.386
14117SOL    HW244249   9.667   4.750   2.345
14118SOL     OW44250   0.785  13.561  11.853
14118SOL    HW144251   0.786  13.583  11.947
14118SOL    HW244252   0.696  13.583  11.825
14119SOL     OW44253  13.550  10.267  10.509
14119SOL    HW144254  13.532  10.357  10.534
14119SOL    HW244255  13.575  10.223  10.590
14120SOL     OW44256  13.220  14.129   1.664
14120SOL    HW144257  13.211  14.161   1.574
14120SOL    HW244258  13.140  14.157   1.708
14121SOL     OW44259   6.575  12.914   5.914
14121SOL    HW144260   6.590  12.828   5.875
14121SOL    HW244261   6.572  12.896   6.008
14122SOL     OW44262   1.858   7.140   1.955
14122SOL    HW144263   1.890   7.085   2.026
14122SOL    HW244264   1.875   7.230   1.985
14123SOL     OW44265   4.590  11.261  11.968
14123SOL    HW144266   4.648  11.324  11.925
14123SOL    HW244267   4.502  11.293  11.950
14124SOL     OW44268   8.126   6.524  12.178
14124SOL    HW144269   8.168   6.581  12.241
14124SOL    HW244270   8.151   6.560  12.092
14125SOL     OW44271   8.897   1.997   3.735
14125SOL    HW144272   8.801   1.997   3.741
14125SOL    HW244273   8.915   2.009   3.642
14126SOL     OW44274   8.005   5.316  14.224
14126SOL    HW144275   8.100   5.317  14.232
14126SOL    HW244276   7.983   5.224  14.211
14127SOL     OW44277  10.139   0.684  11.516
14127SOL    HW144278  10.057   0.634  11.513
14127SOL    HW244279  10.190   0.651  11.442
14128SOL     OW44280   2.356  14.803   0.520
14128SOL    HW144281   2.378  14.822   0.429
14128SOL    HW244282   2.263  14.825   0.528
14129SOL     OW44283   7.125   4.348   5.230
14129SOL    HW144284   7.182   4.281   5.192
14129SOL    HW244285   7.060   4.366   5.162
14130SOL     OW44286   9.170   8.243  10.583
14130SOL    HW144287   9.114   8.297  10.527
14130SOL    HW244288   9.144   8.153  10.564
14131SOL     OW44289   0.292  13.944   9.172
14131SOL    HW144290   0.300  13.881   9.243
14131SOL    HW244291   0.301  14.029   9.215
14132SOL     OW44292   1.187   3.227   4.431
14132SOL    HW144293   1.206   3.245   4.523
14132SOL    HW244294   1.161   3.312   4.395
14133SOL     OW44295   7.642  13.603  10.930
14133SOL    HW144296   7.688  13.684  10.952
14133SOL    HW244297   7.550  13.629  10.920
14134SOL     OW44298   8.299   5.322  12.296
14134SOL    HW144299   8.263   5.324  12.385
14134SOL    HW244300   8.227   5.351  12.240
14135SOL     OW44301   4.525  14.622   0.481
14135SOL    HW144302   4.588  14.674   0.531
14135SOL    HW244303   4.579  14.563   0.428
14136SOL     OW44304   4.681   0.319   7.298
14136SOL    HW144305   4.628   0.290   7.373
14136SOL    HW244306   4.639   0.400   7.269
14137SOL     OW44307  10.368   8.739   7.831
14137SOL    HW144308  10.314   8.668   7.867
14137SOL    HW244309  10.399   8.787   7.907
14138SOL     OW44310   5.607  10.696   0.143
14138SOL    HW144311   5.581  10.774   0.192
14138SOL    HW244312   5.685  10.724   0.095
14139SOL     OW44313   6.009  11.810  10.638
14139SOL    HW144314   6.074  11.816  10.708
14139SOL    HW244315   6.032  11.730  10.590
14140SOL     OW44316  14.625  11.310  12.664
14140SOL    HW144317  14.555  11.270  12.614
14140SOL    HW244318  14.609  11.404  12.658
14141SOL     OW44319   0.794   3.740   3.567
14141SOL    HW144320   0.864   3.772   3.510
14141SOL    HW244321   0.813   3.648   3.580
14142SOL     OW44322   4.425   6.330   2.537
14142SOL    HW144323   4.459   6.324   2.448
14142SOL    HW244324   4.364   6.404   2.534
14143SOL     OW44325   0.908   6.956   5.564
14143SOL    HW144326   0.911   6.929   5.472
14143SOL    HW244327   1.000   6.953   5.593
14144SOL     OW44328   0.423  10.842   2.976
14144SOL    HW144329   0.385  10.790   3.047
14144SOL    HW244330   0.508  10.801   2.959
14145SOL     OW44331   9.281   7.131   8.368
14145SOL    HW144332   9.285   7.188   8.445
14145SOL    HW244333   9.343   7.061   8.387
14146SOL     OW44334   4.438  13.757  11.222
14146SOL    HW144335   4.388  13.752  11.141
14146SOL    HW244336   4.399  13.829  11.271
14147SOL     OW44337  14.198   2.828  10.253
14147SOL    HW144338  14.151   2.745  10.243
14147SOL    HW244339  14.280   2.816  10.206
14148SOL     OW44340   8.719   7.644   6.005
14148SOL    HW144341   8.630   7.613   5.989
14148SOL    HW244342   8.733   7.713   5.940
14149SOL     OW44343   9.828  11.135   7.923
14149SOL    HW144344   9.859  11.216   7.884
14149SOL    HW244345   9.886  11.121   7.998
14150SOL     OW44346   5.016   6.210   8.299
14150SOL    HW144347   4.972   6.191   8.382
14150SOL    HW244348   4.997   6.302   8.282
14151SOL     OW44349  12.235   9.877   2.468
14151SOL    HW144350  12.254   9.968   2.445
14151SOL    HW244351  12.154   9.883   2.519
14152SOL     OW44352   8.130   3.654   7.115
14152SOL    HW144353   8.207   3.609   7.080
14152SOL    HW244354   8.057   3.595   7.095
14153SOL     OW44355  10.153  14.391   1.045
14153SOL    HW144356  10.244  14.389   1.077
14153SOL    HW244357  10.109  14.322   1.095
14154SOL     OW44358   1.240   3.139   4.758
14154SOL    HW144359   1.194   3.070   4.710
14154SOL    HW244360   1.179   3.213   4.757
14155SOL     OW44361  14.722   3.829   8.929
14155SOL    HW144362  14.763   3.874   9.003
14155SOL    HW244363  14.788   3.831   8.860
14156SOL     OW44364   8.707  11.738   5.964
14156SOL    HW144365   8.679  11.783   5.885
14156SOL    HW244366   8.629  11.735   6.020
14157SOL     OW44367   6.388   8.273   3.102
14157SOL    HW144368   6.331   8.349   3.095
14157SOL    HW244369   6.420   8.258   3.013
14158SOL     OW44370   3.246   4.387   2.603
14158SOL    HW144371   3.303   4.425   2.670
14158SOL    HW244372   3.232   4.459   2.541
14159SOL     OW44373  12.083   2.770   9.778
14159SOL    HW144374  12.119   2.748   9.864
14159SOL    HW244375  12.005   2.715   9.769
14160SOL     OW44376  12.866   0.611   5.097
14160SOL    HW144377  12.933   0.545   5.114
14160SOL    HW244378  12.797   0.593   5.161
14161SOL     OW44379   6.646   1.739   9.643
14161SOL    HW144380   6.596   1.742   9.725
14161SOL    HW244381   6.645   1.829   9.611
14162SOL     OW44382   7.810  13.363  10.263
14162SOL    HW144383   7.767  13.307  10.328
14162SOL    HW244384   7.898  13.378  10.299
14163SOL     OW44385   3.010   5.961   8.363
14163SOL    HW144386   2.961   5.881   8.344
14163SOL    HW244387   2.991   6.019   8.288
14164SOL     OW44388   9.434  13.841   5.666
14164SOL    HW144389   9.505  13.778   5.655
14164SOL    HW244390   9.461  13.896   5.740
14165SOL     OW44391  12.872   4.039   1.448
14165SOL    HW144392  12.966   4.040   1.467
14165SOL    HW244393  12.856   3.952   1.412
14166SOL     OW44394  14.099   6.666   1.477
14166SOL    HW144395  14.108   6.754   1.514
14166SOL    HW244396  14.017   6.669   1.428
14167SOL     OW44397   3.028   4.985  13.516
14167SOL    HW144398   3.021   4.890  13.509
14167SOL    HW244399   3.085   4.999  13.592
14168SOL     OW44400  14.112  10.713   7.649
14168SOL    HW144401  14.170  10.777   7.607
14168SOL    HW244402  14.127  10.726   7.743
14169SOL     OW44403   6.736   1.588   6.333
14169SOL    HW144404   6.825   1.566   6.360
14169SOL    HW244405   6.693   1.617   6.413
14170SOL     OW44406  12.883  13.705  11.645
14170SOL    HW144407  12.915  13.636  11.703
14170SOL    HW244408  12.936  13.698  11.566
14171SOL     OW44409   5.299   6.296   3.650
14171SOL    HW144410   5.220   6.244   3.667
14171SOL    HW244411   5.339   6.255   3.573
14172SOL     OW44412   7.334   5.284   8.006
14172SOL    HW144413   7.367   5.262   7.918
14172SOL    HW244414   7.271   5.355   7.991
14173SOL     OW44415   8.515   3.914   9.905
14173SOL    HW144416   8.508   3.822   9.929
14173SOL    HW244417   8.566   3.953   9.976
14174SOL     OW44418  12.582   1.515   3.418
14174SOL    HW144419  12.517   1.555   3.476
14174SOL    HW244420  12.546   1.430   3.396
14175SOL     OW44421   7.637  12.380   5.124
14175SOL    HW144422   7.596  12.303   5.164
14175SOL    HW244423   7.643  12.358   5.031
14176SOL     OW44424   0.147   0.614   6.086
14176SOL    HW144425   0.215   0.551   6.109
14176SOL    HW244426   0.166   0.639   5.996
14177SOL     OW44427   4.796   0.245   9.231
14177SOL    HW144428   4.702   0.252   9.249
14177SOL    HW244429   4.812   0.311   9.163
14178SOL     OW44430   7.322   1.553   8.476
14178SOL    HW144431   7.379   1.596   8.412
14178SOL    HW244432   7.371   1.475   8.503
14179SOL     OW44433  11.095   3.447   4.268
14179SOL    HW144434  11.075   3.355   4.286
14179SOL    HW244435  11.086   3.455   4.173
14180SOL     OW44436   9.369   0.387  14.037
14180SOL    HW144437   9.388   0.472  14.076
14180SOL    HW244438   9.323   0.339  14.106
14181SOL     OW44439   2.480   4.982   7.535
14181SOL    HW144440   2.395   5.021   7.516
14181SOL    HW244441   2.517   5.037   7.604
14182SOL     OW44442  12.603   8.615   3.283
14182SOL    HW144443  12.637   8.582   3.366
14182SOL    HW244444  12.572   8.704   3.304
14183SOL     OW44445   2.377   0.747  11.433
14183SOL    HW144446   2.287   0.719  11.451
14183SOL    HW244447   2.428   0.716  11.507
14184SOL     OW44448  13.330  14.730   7.040
14184SOL    HW144449  13.411  14.688   7.012
14184SOL    HW244450  13.297  14.673   7.110
14185SOL     OW44451   8.916   1.405   7.707
14185SOL    HW144452   8.955   1.443   7.786
14185SOL    HW244453   8.978   1.427   7.637
14186SOL     OW44454  13.757   4.068   3.666
14186SOL    HW144455  13.755   4.069   3.761
14186SOL    HW244456  13.835   4.119   3.643
14187SOL     OW44457  14.770  14.317   1.300
14187SOL    HW144458  14.758  14.222   1.293
14187SOL    HW244459  14.823  14.340   1.224
14188SOL     OW44460  12.195  12.031  12.505
14188SOL    HW144461  12.189  12.017  12.411
14188SOL    HW244462  12.228  12.121  12.514
14189SOL     OW44463   1.739   6.038   2.251
14189SOL    HW144464   1.822   6.026   2.206
14189SOL    HW244465   1.763   6.065   2.340
14190SOL     OW44466   6.652  10.133   3.425
14190SOL    HW144467   6.690  10.056   3.381
14190SOL    HW244468   6.638  10.105   3.515
14191SOL     OW44469  11.787   8.227  10.898
14191SOL    HW144470  11.835   8.227  10.816
14191SOL    HW244471  11.849   8.193  10.962
14192SOL     OW44472   9.702  12.041   1.591
14192SOL    HW144473   9.741  12.129   1.600
14192SOL    HW244474   9.664  12.023   1.677
14193SOL     OW44475   7.583   7.898   4.262
14193SOL    HW144476   7.631   7.820   4.234
14193SOL    HW244477   7.491   7.870   4.263
14194SOL     OW44478   2.039  14.815   2.929
14194SOL    HW144479   2.093  14.781   3.000
14194SOL    HW244480   1.965  14.755   2.924
14195SOL     OW44481   6.816  12.174  11.834
14195SOL    HW144482   6.878  12.101  11.832
14195SOL    HW244483   6.784  12.177  11.924
14196SOL     OW44484   5.668   0.891   1.104
14196SOL    HW144485   5.643   0.874   1.195
14196SOL    HW244486   5.682   0.804   1.066
14197SOL     OW44487  10.487  10.877   3.454
14197SOL    HW144488  10.447  10.964   3.442
14197SOL    HW244489  10.491  10.841   3.365
14198SOL     OW44490   7.803   6.182   9.930
14198SOL    HW144491   7.830   6.269   9.961
14198SOL    HW244492   7.845   6.121   9.991
14199SOL     OW44493  11.512   8.089   9.632
14199SOL    HW144494  11.471   8.174   9.618
14199SOL    HW244495  11.526   8.084   9.726
14200SOL     OW44496   8.529   8.193   0.105
14200SOL    HW144497   8.581   8.270   0.129
14200SOL    HW244498   8.459   8.190   0.171
14201SOL     OW44499   4.695  11.734   5.421
14201SOL    HW144500   4.781  11.762   5.452
14201SOL    HW244501   4.666  11.805   5.364
14202SOL     OW44502   0.597   8.196  11.240
14202SOL    HW144503   0.646   8.116  11.226
14202SOL    HW244504   0.546   8.207  11.159
14203SOL     OW44505   1.334   7.783   0.971
14203SOL    HW144506   1.336   7.867   1.017
14203SOL    HW244507   1.391   7.796   0.895
14204SOL     OW44508  13.090   7.808   6.760
14204SOL    HW144509  13.120   7.745   6.825
14204SOL    HW244510  13.056   7.881   6.812
14205SOL     OW44511   1.784   8.715  13.532
14205SOL    HW144512   1.803   8.626  13.563
14205SOL    HW244513   1.761   8.763  13.611
14206SOL     OW44514  12.238   5.664   1.032
14206SOL    HW144515  12.207   5.585   1.076
14206SOL    HW244516  12.309   5.697   1.087
14207SOL     OW44517   4.032   8.709   3.928
14207SOL    HW144518   3.963   8.691   3.991
14207SOL    HW244519   4.092   8.768   3.973
14208SOL     OW44520  14.295   5.126   2.479
14208SOL    HW144521  14.346   5.141   2.558
14208SOL    HW244522  14.359   5.127   2.408
14209SOL     OW44523  14.226   1.432   9.581
14209SOL    HW144524  14.290   1.362   9.586
14209SOL    HW244525  14.277   1.513   9.582
14210SOL     OW44526   8.307   4.533   3.668
14210SOL    HW144527   8.221   4.534   3.711
14210SOL    HW244528   8.369   4.554   3.738
14211SOL     OW44529   8.809   8.493  12.632
14211SOL    HW144530   8.875   8.485  12.563
14211SOL    HW244531   8.860   8.501  12.713
14212SOL     OW44532  10.935  10.016  13.862
14212SOL    HW144533  11.022  10.053  13.877
14212SOL    HW244534  10.947   9.955  13.789
14213SOL     OW44535   1.084   7.435   7.483
14213SOL    HW144536   1.061   7.347   7.452
14213SOL    HW244537   1.166   7.455   7.437
14214SOL     OW44538  13.488   7.912   4.571
14214SOL    HW144539  13.540   7.837   4.599
14214SOL    HW244540  13.480   7.967   4.649
14215SOL     OW44541   8.964   8.836   7.837
14215SOL    HW144542   8.874   8.843   7.868
14215SOL    HW244543   9.007   8.914   7.871
14216SOL     OW44544   8.072   0.341   0.956
14216SOL    HW144545   8.107   0.430   0.956
14216SOL    HW244546   8.092   0.308   1.044
14217SOL     OW44547   3.447   6.492   3.529
14217SOL    HW144548   3.414   6.448   3.450
14217SOL    HW244549   3.421   6.583   3.517
14218SOL     OW44550   8.499   3.216   2.126
14218SOL    HW144551   8.587   3.249   2.110
14218SOL    HW244552   8.482   3.155   2.055
14219SOL     OW44553  10.514   7.369   2.167
14219SOL    HW144554  10.428   7.385   2.207
14219SOL    HW244555  10.510   7.415   2.083
14220SOL     OW44556   3.249   4.781   2.504
14220SOL    HW144557   3.269   4.817   2.417
14220SOL    HW244558   3.314   4.820   2.562
14221SOL     OW44559   7.206  14.324   9.183
14221SOL    HW144560   7.195  14.372   9.101
14221SOL    HW244561   7.155  14.244   9.170
14222SOL     OW44562   2.869   8.296   2.635
14222SOL    HW144563   2.861   8.202   2.618
14222SOL    HW244564   2.887   8.334   2.549
14223SOL     OW44565   3.705   8.018   1.695
14223SOL    HW144566   3.778   7.966   1.729
14223SOL    HW244567   3.657   7.958   1.638
14224SOL     OW44568  11.132  12.736  12.170
14224SOL    HW144569  11.192  12.749  12.244
14224SOL    HW244570  11.076  12.663  12.198
14225SOL     OW44571  10.999  10.557  10.955
14225SOL    HW144572  10.911  10.525  10.973
14225SOL    HW244573  11.037  10.572  11.042
14226SOL     OW44574   9.652   8.974  10.801
14226SOL    HW144575   9.719   8.906  10.798
14226SOL    HW244576   9.571   8.927  10.817
14227SOL     OW44577  14.854   6.653   4.451
14227SOL    HW144578  14.818   6.577   4.496
14227SOL    HW244579   0.068   6.624   4.421
14228SOL     OW44580   9.292   6.578  12.388
14228SOL    HW144581   9.250   6.525  12.456
14228SOL    HW244582   9.385   6.564  12.400
14229SOL     OW44583  14.731   6.442   7.128
14229SOL    HW144584  14.648   6.396   7.143
14229SOL    HW244585  14.713   6.501   7.055
14230SOL     OW44586   4.423  14.476   3.141
14230SOL    HW144587   4.342  14.526   3.128
14230SOL    HW244588   4.491  14.542   3.150
14231SOL     OW44589  12.330  10.606   9.704
14231SOL    HW144590  12.278  10.648   9.773
14231SOL    HW244591  12.419  10.602   9.740
14232SOL     OW44592   1.759  13.453  13.595
14232SOL    HW144593   1.696  13.480  13.528
14232SOL    HW244594   1.815  13.529  13.607
14233SOL     OW44595   4.214  14.825   5.483
14233SOL    HW144596   4.203   0.036   5.437
14233SOL    HW244597   4.147  14.768   5.445
14234SOL     OW44598   1.104  14.024   6.935
14234SOL    HW144599   1.064  14.026   7.022
14234SOL    HW244600   1.031  14.025   6.874
14235SOL     OW44601  10.826  14.549  11.218
14235SOL    HW144602  10.882  14.502  11.156
14235SOL    HW244603  10.865  14.636  11.225
14236SOL     OW44604   1.941  13.174  14.347
14236SOL    HW144605   1.853  13.141  14.366
14236SOL    HW244606   1.999  13.102  14.372
14237SOL     OW44607  11.577   1.147  11.603
14237SOL    HW144608  11.620   1.083  11.660
14237SOL    HW244609  11.648   1.199  11.566
14238SOL     OW44610   6.261  11.256   4.480
14238SOL    HW144611   6.306  11.279   4.562
14238SOL    HW244612   6.171  11.288   4.492
14239SOL     OW44613  13.893   3.060   3.624
14239SOL    HW144614  13.842   2.982   3.606
14239SOL    HW244615  13.979   3.043   3.585
14240SOL     OW44616   9.344   9.107   0.896
14240SOL    HW144617   9.386   9.048   0.834
14240SOL    HW244618   9.274   9.055   0.936
14241SOL     OW44619  10.083   2.877   8.337
14241SOL    HW144620  10.130   2.933   8.398
14241SOL    HW244621  10.144   2.865   8.264
14242SOL     OW44622   1.429   0.058  12.977
14242SOL    HW144623   1.448   0.114  12.902
14242SOL    HW244624   1.383   0.115  13.039
14243SOL     OW44625  12.299  10.014  13.972
14243SOL    HW144626  12.278  10.026  13.879
14243SOL    HW244627  12.238   9.945  14.001
14244SOL     OW44628  10.657  11.651   0.848
14244SOL    HW144629  10.618  11.705   0.779
14244SOL    HW244630  10.644  11.561   0.819
14245SOL     OW44631  12.107   4.042  13.005
14245SOL    HW144632  12.036   4.083  13.054
14245SOL    HW244633  12.085   4.057  12.913
14246SOL     OW44634  13.097   2.411  14.164
14246SOL    HW144635  13.004   2.403  14.142
14246SOL    HW244636  13.100   2.404  14.260
14247SOL     OW44637  14.621   7.747   3.133
14247SOL    HW144638  14.574   7.689   3.193
14247SOL    HW244639  14.706   7.760   3.173
14248SOL     OW44640   7.813   4.728   5.438
14248SOL    HW144641   7.845   4.648   5.479
14248SOL    HW244642   7.823   4.713   5.344
14249SOL     OW44643   3.961   9.258  10.460
14249SOL    HW144644   3.907   9.298  10.528
14249SOL    HW244645   3.944   9.311  10.382
14250SOL     OW44646  13.573  12.930   6.897
14250SOL    HW144647  13.528  13.013   6.883
14250SOL    HW244648  13.653  12.938   6.845
14251SOL     OW44649   9.785  13.167  12.321
14251SOL    HW144650   9.795  13.117  12.402
14251SOL    HW244651   9.741  13.107  12.261
14252SOL     OW44652   4.910   5.003  11.221
14252SOL    HW144653   4.858   5.068  11.175
14252SOL    HW244654   4.985   4.987  11.164
14253SOL     OW44655   4.835   2.397  11.711
14253SOL    HW144656   4.803   2.382  11.800
14253SOL    HW244657   4.931   2.400  11.720
14254SOL     OW44658   0.759  10.352  13.224
14254SOL    HW144659   0.749  10.424  13.162
14254SOL    HW244660   0.696  10.286  13.195
14255SOL     OW44661  13.386  10.115   0.840
14255SOL    HW144662  13.315  10.167   0.876
14255SOL    HW244663  13.355  10.088   0.753
14256SOL     OW44664   9.499   6.912  13.780
14256SOL    HW144665   9.437   6.966  13.732
14256SOL    HW244666   9.465   6.823  13.772
14257SOL     OW44667   6.709  13.632   2.702
14257SOL    HW144668   6.800  13.603   2.711
14257SOL    HW244669   6.714  13.727   2.697
14258SOL     OW44670  12.098  10.459   2.116
14258SOL    HW144671  12.156  10.425   2.184
14258SOL    HW244672  12.012  10.424   2.138
14259SOL     OW44673   4.446   6.577   5.628
14259SOL    HW144674   4.506   6.516   5.585
14259SOL    HW244675   4.475   6.581   5.719
14260SOL     OW44676  14.808   3.255   8.392
14260SOL    HW144677  14.842   3.192   8.328
14260SOL    HW244678  14.716   3.229   8.404
14261SOL     OW44679  11.876   7.309  10.737
14261SOL    HW144680  11.850   7.262  10.658
14261SOL    HW244681  11.796   7.352  10.767
14262SOL     OW44682   1.979   6.488  12.837
14262SOL    HW144683   2.055   6.489  12.895
14262SOL    HW244684   1.999   6.419  12.773
14263SOL     OW44685  14.371  10.731   1.883
14263SOL    HW144686  14.370  10.672   1.808
14263SOL    HW244687  14.424  10.685   1.949
14264SOL     OW44688   2.117   2.807  13.206
14264SOL    HW144689   2.098   2.896  13.235
14264SOL    HW244690   2.126   2.756  13.286
14265SOL     OW44691   8.288   7.256   8.379
14265SOL    HW144692   8.333   7.334   8.346
14265SOL    HW244693   8.243   7.286   8.458
14266SOL     OW44694   6.050   2.012   1.012
14266SOL    HW144695   5.986   2.018   0.942
14266SOL    HW244696   6.127   2.058   0.979
14267SOL     OW44697   0.620   5.120   3.379
14267SOL    HW144698   0.673   5.102   3.301
14267SOL    HW244699   0.536   5.077   3.361
14268SOL     OW44700   1.912   1.965  13.295
14268SOL    HW144701   1.872   2.050  13.278
14268SOL    HW244702   1.860   1.903  13.245
14269SOL     OW44703   5.600   8.524   1.523
14269SOL    HW144704   5.635   8.541   1.610
14269SOL    HW244705   5.673   8.538   1.464
14270SOL     OW44706  12.473  11.903  10.237
14270SOL    HW144707  12.385  11.916  10.202
14270SOL    HW244708  12.461  11.839  10.307
14271SOL     OW44709   1.117  14.147   3.868
14271SOL    HW144710   1.071  14.066   3.850
14271SOL    HW244711   1.163  14.131   3.950
14272SOL     OW44712   2.363  12.386   7.235
14272SOL    HW144713   2.442  12.419   7.276
14272SOL    HW244714   2.342  12.450   7.167
14273SOL     OW44715   1.942   7.417   8.795
14273SOL    HW144716   1.849   7.427   8.816
14273SOL    HW244717   1.979   7.503   8.810
14274SOL     OW44718  14.835   2.511   3.995
14274SOL    HW144719   0.019   2.464   3.934
14274SOL    HW244720  14.756   2.458   4.002
14275SOL     OW44721   0.567   6.432   8.289
14275SOL    HW144722   0.577   6.432   8.193
14275SOL    HW244723   0.539   6.342   8.309
14276SOL     OW44724   7.996   7.032  10.393
14276SOL    HW144725   7.955   7.081  10.322
14276SOL    HW244726   8.007   6.943  10.358
14277SOL     OW44727   2.165   8.002   0.090
14277SOL    HW144728   2.185   8.095   0.102
14277SOL    HW244729   2.251   7.960   0.090
14278SOL     OW44730   8.339  10.019   6.311
14278SOL    HW144731   8.433  10.018   6.291
14278SOL    HW244732   8.332   9.980   6.398
14279SOL     OW44733   2.270   5.600  11.708
14279SOL    HW144734   2.318   5.561  11.781
14279SOL    HW244735   2.331   5.598  11.635
14280SOL     OW44736  11.026  14.446   4.037
14280SOL    HW144737  11.058  14.415   3.952
14280SOL    HW244738  10.977  14.372   4.073
14281SOL     OW44739   8.867   6.919   0.854
14281SOL    HW144740   8.928   6.965   0.911
14281SOL    HW244741   8.922   6.873   0.791
14282SOL     OW44742  12.445  14.566   6.855
14282SOL    HW144743  12.533  14.554   6.891
14282SOL    HW244744  12.405  14.632   6.912
14283SOL     OW44745   1.799   8.609   3.681
14283SOL    HW144746   1.789   8.699   3.650
14283SOL    HW244747   1.886   8.582   3.649
14284SOL     OW44748   5.780  10.829   2.755
14284SOL    HW144749   5.819  10.774   2.687
14284SOL    HW244750   5.726  10.769   2.807
14285SOL     OW44751  10.516   3.756  10.775
14285SOL    HW144752  10.601   3.720  10.751
14285SOL    HW244753  10.480   3.790  10.692
14286SOL     OW44754   0.475  11.325  10.364
14286SOL    HW144755   0.479  11.353  10.273
14286SOL    HW244756   0.494  11.404  10.415
14287SOL     OW44757   5.231   4.806   7.134
14287SOL    HW144758   5.267   4.878   7.187
14287SOL    HW244759   5.199   4.743   7.198
14288SOL     OW44760   7.196   5.074   8.590
14288SOL    HW144761   7.269   5.076   8.651
14288SOL    HW244762   7.220   5.135   8.520
14289SOL     OW44763   3.210   6.574   9.576
14289SOL    HW144764   3.258   6.603   9.499
14289SOL    HW244765   3.134   6.632   9.581
14290SOL     OW44766   6.444  10.392   5.742
14290SOL    HW144767   6.477  10.394   5.832
14290SOL    HW244768   6.445  10.300   5.718
14291SOL     OW44769   1.819   9.885  13.473
14291SOL    HW144770   1.883   9.928  13.529
14291SOL    HW244771   1.820   9.935  13.391
14292SOL     OW44772  11.323  12.358   3.768
14292SOL    HW144773  11.417  12.345   3.760
14292SOL    HW244774  11.301  12.329   3.856
14293SOL     OW44775  14.764   3.712  11.416
14293SOL    HW144776  14.837   3.707  11.479
14293SOL    HW244777  14.803   3.749  11.337
14294SOL     OW44778   3.946   2.364   2.040
14294SOL    HW144779   3.998   2.287   2.065
14294SOL    HW244780   4.011   2.431   2.018
14295SOL     OW44781   0.957   5.053   3.735
14295SOL    HW144782   1.008   5.133   3.740
14295SOL    HW244783   0.967   5.013   3.822
14296SOL     OW44784  14.031  13.582  13.443
14296SOL    HW144785  14.048  13.628  13.525
14296SOL    HW244786  14.097  13.615  13.383
14297SOL     OW44787   0.094   4.982  11.604
14297SOL    HW144788   0.158   4.913  11.624
14297SOL    HW244789   0.100   4.993  11.509
14298SOL     OW44790   7.074   2.554  11.627
14298SOL    HW144791   7.123   2.513  11.556
14298SOL    HW244792   7.141   2.579  11.691
14299SOL     OW44793  10.156   9.206   0.945
14299SOL    HW144794  10.121   9.294   0.928
14299SOL    HW244795  10.089   9.164   0.998
14300SOL     OW44796  12.699  13.525   7.029
14300SOL    HW144797  12.633  13.489   6.969
14300SOL    HW244798  12.665  13.504   7.116
14301SOL     OW44799   8.692   3.415  13.816
14301SOL    HW144800   8.603   3.412  13.851
14301SOL    HW244801   8.681   3.433  13.722
14302SOL     OW44802  12.302   4.645   9.383
14302SOL    HW144803  12.312   4.739   9.370
14302SOL    HW244804  12.223   4.637   9.437
14303SOL     OW44805   4.780  12.839  10.839
14303SOL    HW144806   4.832  12.905  10.794
14303SOL    HW244807   4.843  12.792  10.894
14304SOL     OW44808   2.364   6.732   9.932
14304SOL    HW144809   2.458   6.734   9.919
14304SOL    HW244810   2.334   6.659   9.879
14305SOL     OW44811   5.381   5.604   5.010
14305SOL    HW144812   5.468   5.637   5.033
14305SOL    HW244813   5.320   5.667   5.050
14306SOL     OW44814   3.810   2.881   1.176
14306SOL    HW144815   3.872   2.954   1.178
14306SOL    HW244816   3.726   2.921   1.199
14307SOL     OW44817   9.037   8.150   3.839
14307SOL    HW144818   8.968   8.208   3.805
14307SOL    HW244819   9.111   8.208   3.857
14308SOL     OW44820   9.472   8.432   9.207
14308SOL    HW144821   9.534   8.453   9.137
14308SOL    HW244822   9.503   8.482   9.283
14309SOL     OW44823  10.522   9.662  12.779
14309SOL    HW144824  10.458   9.632  12.843
14309SOL    HW244825  10.472   9.719  12.721
14310SOL     OW44826   4.710   7.070   9.995
14310SOL    HW144827   4.750   6.996  10.040
14310SOL    HW244828   4.770   7.091   9.924
14311SOL     OW44829   6.149   9.346   3.418
14311SOL    HW144830   6.202   9.423   3.438
14311SOL    HW244831   6.211   9.274   3.417
14312SOL     OW44832  13.002   2.823   3.146
14312SOL    HW144833  12.949   2.886   3.097
14312SOL    HW244834  13.062   2.786   3.081
14313SOL     OW44835   3.261  10.404  10.243
14313SOL    HW144836   3.210  10.330  10.275
14313SOL    HW244837   3.207  10.443  10.174
14314SOL     OW44838   2.719  11.760   8.286
14314SOL    HW144839   2.723  11.675   8.328
14314SOL    HW244840   2.805  11.799   8.303
14315SOL     OW44841  13.233   1.313  14.342
14315SOL    HW144842  13.181   1.263  14.406
14315SOL    HW244843  13.250   1.251  14.271
14316SOL     OW44844   1.086  12.853   4.215
14316SOL    HW144845   1.043  12.879   4.297
14316SOL    HW244846   1.048  12.910   4.149
14317SOL     OW44847   7.505   7.950   8.890
14317SOL    HW144848   7.583   7.895   8.882
14317SOL    HW244849   7.432   7.892   8.870
14318SOL     OW44850  12.385   1.592  10.674
14318SOL    HW144851  12.306   1.642  10.694
14318SOL    HW244852  12.356   1.526  10.610
14319SOL     OW44853  14.567   0.860   5.962
14319SOL    HW144854  14.538   0.904   5.882
14319SOL    HW244855  14.514   0.780   5.967
14320SOL     OW44856   8.273   3.318   2.253
14320SOL    HW144857   8.302   3.334   2.343
14320SOL    HW244858   8.353   3.294   2.206
14321SOL     OW44859  14.495  14.487  13.534
14321SOL    HW144860  14.520  14.513  13.445
14321SOL    HW244861  14.575  14.449  13.571
14322SOL     OW44862   5.281   3.430   9.059
14322SOL    HW144863   5.373   3.404   9.064
14322SOL    HW244864   5.279   3.498   8.992
14323SOL     OW44865  12.586   9.944  13.700
14323SOL    HW144866  12.591   9.919  13.793
14323SOL    HW244867  12.515  10.007  13.696
14324SOL     OW44868   2.047   4.811   9.371
14324SOL    HW144869   2.097   4.835   9.449
14324SOL    HW244870   2.091   4.857   9.299
14325SOL     OW44871   8.472  12.321  13.573
14325SOL    HW144872   8.451  12.413  13.592
14325SOL    HW244873   8.545  12.300  13.631
14326SOL     OW44874   9.867   3.345   2.233
14326SOL    HW144875   9.839   3.284   2.164
14326SOL    HW244876   9.805   3.330   2.305
14327SOL     OW44877   2.779  13.711  12.706
14327SOL    HW144878   2.858  13.765  12.708
14327SOL    HW244879   2.808  13.626  12.740
14328SOL     OW44880  10.461  12.244  12.995
14328SOL    HW144881  10.367  12.235  13.004
14328SOL    HW244882  10.488  12.164  12.949
14329SOL     OW44883   3.200   8.812   1.985
14329SOL    HW144884   3.246   8.893   1.961
14329SOL    HW244885   3.120   8.842   2.028
14330SOL     OW44886   4.299   9.517  13.987
14330SOL    HW144887   4.304   9.444  13.925
14330SOL    HW244888   4.252   9.482  14.063
14331SOL     OW44889   7.942   7.615  12.073
14331SOL    HW144890   7.876   7.663  12.123
14331SOL    HW244891   7.930   7.644  11.983
14332SOL     OW44892  10.670   3.089   3.363
14332SOL    HW144893  10.746   3.032   3.357
14332SOL    HW244894  10.611   3.058   3.294
14333SOL     OW44895   6.740  10.228  14.290
14333SOL    HW144896   6.697  10.219  14.374
14333SOL    HW244897   6.744  10.323  14.274
14334SOL     OW44898   0.277   0.975   9.935
14334SOL    HW144899   0.309   0.895   9.892
14334SOL    HW244900   0.238   1.026   9.864
14335SOL     OW44901   8.872  11.122   2.915
14335SOL    HW144902   8.852  11.081   2.999
14335SOL    HW244903   8.967  11.121   2.909
14336SOL     OW44904  10.628   1.098  13.695
14336SOL    HW144905  10.590   1.177  13.655
14336SOL    HW244906  10.590   1.026  13.645
14337SOL     OW44907   7.292   6.260   2.601
14337SOL    HW144908   7.270   6.269   2.693
14337SOL    HW244909   7.358   6.327   2.585
14338SOL     OW44910  11.327  11.162  13.346
14338SOL    HW144911  11.252  11.162  13.285
14338SOL    HW244912  11.335  11.253  13.373
14339SOL     OW44913   3.637   1.028   5.589
14339SOL    HW144914   3.554   0.983   5.604
14339SOL    HW244915   3.637   1.049   5.496
14340SOL     OW44916   7.684   1.708   4.578
14340SOL    HW144917   7.706   1.744   4.665
14340SOL    HW244918   7.592   1.683   4.585
14341SOL     OW44919   7.241   3.552   3.969
14341SOL    HW144920   7.155   3.568   4.008
14341SOL    HW244921   7.270   3.639   3.939
14342SOL     OW44922   9.609   4.195   3.524
14342SOL    HW144923   9.613   4.273   3.468
14342SOL    HW244924   9.663   4.130   3.479
14343SOL     OW44925  10.639   0.953  12.130
14343SOL    HW144926  10.559   0.974  12.179
14343SOL    HW244927  10.613   0.960  12.038
14344SOL     OW44928   4.057  12.883   7.554
14344SOL    HW144929   4.058  12.979   7.557
14344SOL    HW244930   4.078  12.862   7.463
14345SOL     OW44931   5.337   2.490   6.238
14345SOL    HW144932   5.291   2.410   6.211
14345SOL    HW244933   5.419   2.488   6.189
14346SOL     OW44934   3.939   6.982   9.600
14346SOL    HW144935   3.920   7.074   9.583
14346SOL    HW244936   3.853   6.940   9.600
14347SOL     OW44937  10.862   2.561   5.751
14347SOL    HW144938  10.865   2.648   5.711
14347SOL    HW244939  10.950   2.526   5.738
14348SOL     OW44940   0.142   3.099   7.987
14348SOL    HW144941   0.186   3.136   8.063
14348SOL    HW244942   0.061   3.149   7.980
14349SOL     OW44943   2.705   9.536  14.043
14349SOL    HW144944   2.649   9.461  14.023
14349SOL    HW244945   2.745   9.559  13.959
14350SOL     OW44946  12.472   8.130   6.052
14350SOL    HW144947  12.455   8.218   6.086
14350SOL    HW244948  12.394   8.108   6.001
14351SOL     OW44949  12.873   3.583   7.936
14351SOL    HW144950  12.833   3.530   7.867
14351SOL    HW244951  12.823   3.665   7.934
14352SOL     OW44952  14.484   2.494   8.482
14352SOL    HW144953  14.467   2.565   8.419
14352SOL    HW244954  14.397   2.470   8.514
14353SOL     OW44955   6.353   5.296  11.099
14353SOL    HW144956   6.375   5.221  11.043
14353SOL    HW244957   6.270   5.272  11.139
14354SOL     OW44958   0.420   1.003   3.801
14354SOL    HW144959   0.414   0.944   3.876
14354SOL    HW244960   0.443   1.088   3.839
14355SOL     OW44961   7.280  14.766  10.319
14355SOL    HW144962   7.329  14.842  10.287
14355SOL    HW244963   7.300  14.696  10.257
14356SOL     OW44964   6.524  14.465   1.599
14356SOL    HW144965   6.559  14.482   1.512
14356SOL    HW244966   6.465  14.390   1.587
14357SOL     OW44967   6.478   1.148   4.190
14357SOL    HW144968   6.554   1.106   4.231
14357SOL    HW244969   6.484   1.122   4.098
14358SOL     OW44970   6.708   8.913   8.971
14358SOL    HW144971   6.622   8.887   9.004
14358SOL    HW244972   6.770   8.873   9.032
14359SOL     OW44973  12.306  14.801   1.545
14359SOL    HW144974  12.344   0.013   1.568
14359SOL    HW244975  12.313  14.749   1.625
14360SOL     OW44976  11.262   4.123   2.497
14360SOL    HW144977  11.191   4.068   2.530
14360SOL    HW244978  11.236   4.144   2.407
14361SOL     OW44979   2.043  10.657   4.899
14361SOL    HW144980   2.056  10.712   4.822
14361SOL    HW244981   2.089  10.576   4.879
14362SOL     OW44982  11.194   7.199  13.934
14362SOL    HW144983  11.165   7.224  14.021
14362SOL    HW244984  11.243   7.118  13.947
14363SOL     OW44985  10.257   4.416  12.395
14363SOL    HW144986  10.226   4.326  12.398
14363SOL    HW244987  10.183   4.469  12.424
14364SOL     OW44988  11.586  14.256   4.809
14364SOL    HW144989  11.638  14.288   4.736
14364SOL    HW244990  11.541  14.334   4.843
14365SOL     OW44991  12.708   6.402   9.348
14365SOL    HW144992  12.664   6.375   9.429
14365SOL    HW244993  12.748   6.322   9.315
14366SOL     OW44994   0.874   2.545   0.050
14366SOL    HW144995   0.917   2.618   0.006
14366SOL    HW244996   0.816   2.586   0.114
14367SOL     OW44997   5.725   3.001   9.444
14367SOL    HW144998   5.645   2.955   9.468
14367SOL    HW244999   5.721   3.084   9.491
14368SOL     OW45000   8.867   9.486   7.069
14368SOL    HW145001   8.950   9.533   7.060
14368SOL    HW245002   8.820   9.504   6.988
14369SOL     OW45003  11.167  12.004   8.303
14369SOL    HW145004  11.124  12.079   8.262
14369SOL    HW245005  11.250  12.039   8.337
14370SOL     OW45006  13.309  14.528  13.021
14370SOL    HW145007  13.225  14.535  13.065
14370SOL    HW245008  13.373  14.523  13.093
14371SOL     OW45009   3.320  14.244   2.200
14371SOL    HW145010   3.341  14.220   2.110
14371SOL    HW245011   3.268  14.170   2.233
14372SOL     OW45012   7.965   4.934   2.380
14372SOL    HW145013   8.041   4.971   2.427
14372SOL    HW245014   7.915   5.010   2.351
14373SOL     OW45015   0.252   3.520   0.729
14373SOL    HW145016   0.265   3.591   0.666
14373SOL    HW245017   0.325   3.530   0.790
14374SOL     OW45018   2.154  12.116  14.443
14374SOL    HW145019   2.232  12.108  14.388
14374SOL    HW245020   2.115  12.029  14.444
14375SOL     OW45021  11.198   9.233  13.735
14375SOL    HW145022  11.208   9.147  13.774
14375SOL    HW245023  11.112   9.263  13.765
14376SOL     OW45024   3.264  11.702   2.995
14376SOL    HW145025   3.279  11.692   2.901
14376SOL    HW245026   3.346  11.674   3.036
14377SOL     OW45027  12.334   0.778   0.454
14377SOL    HW145028  12.281   0.747   0.528
14377SOL    HW245029  12.353   0.699   0.403
14378SOL     OW45030   3.864   6.863  13.089
14378SOL    HW145031   3.813   6.791  13.125
14378SOL    HW245032   3.869   6.845  12.995
14379SOL     OW45033   3.500  10.125   3.004
14379SOL    HW145034   3.479  10.207   3.047
14379SOL    HW245035   3.442  10.061   3.046
14380SOL     OW45036  10.453  10.358   1.757
14380SOL    HW145037  10.496  10.371   1.841
14380SOL    HW245038  10.483  10.272   1.728
14381SOL     OW45039  13.161   1.922  14.106
14381SOL    HW145040  13.210   1.985  14.053
14381SOL    HW245041  13.190   1.939  14.196
14382SOL     OW45042   2.078  10.571  13.621
14382SOL    HW145043   2.058  10.530  13.537
14382SOL    HW245044   1.993  10.579  13.665
14383SOL     OW45045   7.622   0.708  13.600
14383SOL    HW145046   7.536   0.669  13.614
14383SOL    HW245047   7.675   0.676  13.673
14384SOL     OW45048  12.113   4.687   4.598
14384SOL    HW145049  12.140   4.705   4.688
14384SOL    HW245050  12.162   4.608   4.574
14385SOL     OW45051   5.352  12.945  13.216
14385SOL    HW145052   5.335  12.973  13.126
14385SOL    HW245053   5.268  12.956  13.261
14386SOL     OW45054   5.885  13.414   9.275
14386SOL    HW145055   5.842  13.400   9.191
14386SOL    HW245056   5.964  13.360   9.271
14387SOL     OW45057  10.858  12.310   2.715
14387SOL    HW145058  10.939  12.342   2.674
14387SOL    HW245059  10.882  12.294   2.806
14388SOL     OW45060  14.309  11.824   9.253
14388SOL    HW145061  14.374  11.892   9.235
14388SOL    HW245062  14.322  11.803   9.346
14389SOL     OW45063   1.130   1.893   8.846
14389SOL    HW145064   1.117   1.943   8.926
14389SOL    HW245065   1.218   1.917   8.816
14390SOL     OW45066  14.576   1.204   4.178
14390SOL    HW145067  14.637   1.224   4.107
14390SOL    HW245068  14.630   1.162   4.245
14391SOL     OW45069  14.821   3.184  12.918
14391SOL    HW145070  14.768   3.121  12.868
14391SOL    HW245071  14.848   3.135  12.996
14392SOL     OW45072   0.601   3.187   7.068
14392SOL    HW145073   0.601   3.199   7.163
14392SOL    HW245074   0.693   3.195   7.043
14393SOL     OW45075   0.706   0.630   8.896
14393SOL    HW145076   0.707   0.719   8.933
14393SOL    HW245077   0.786   0.590   8.929
14394SOL     OW45078   6.590  11.647  12.346
14394SOL    HW145079   6.550  11.617  12.264
14394SOL    HW245080   6.667  11.590  12.357
14395SOL     OW45081   2.298   4.701   1.670
14395SOL    HW145082   2.233   4.753   1.623
14395SOL    HW245083   2.331   4.639   1.605
14396SOL     OW45084  10.107   5.616   3.108
14396SOL    HW145085  10.100   5.586   3.017
14396SOL    HW245086  10.200   5.634   3.120
14397SOL     OW45087   8.914   7.688   6.858
14397SOL    HW145088   8.997   7.663   6.817
14397SOL    HW245089   8.923   7.662   6.949
14398SOL     OW45090   8.708   4.229  13.175
14398SOL    HW145091   8.676   4.181  13.099
14398SOL    HW245092   8.759   4.302  13.139
14399SOL     OW45093   6.150   8.339   5.178
14399SOL    HW145094   6.108   8.419   5.149
14399SOL    HW245095   6.096   8.269   5.141
14400SOL     OW45096  10.075  10.512  13.942
14400SOL    HW145097  10.002  10.574  13.929
14400SOL    HW245098  10.139  10.562  13.994
14401SOL     OW45099   0.862   4.485   1.578
14401SOL    HW145100   0.927   4.522   1.638
14401SOL    HW245101   0.794   4.449   1.635
14402SOL     OW45102  11.990  12.397   1.994
14402SOL    HW145103  11.900  12.391   2.025
14402SOL    HW245104  12.025  12.475   2.036
14403SOL     OW45105   2.490   6.389  12.115
14403SOL    HW145106   2.541   6.466  12.141
14403SOL    HW245107   2.530   6.316  12.162
14404SOL     OW45108  14.664   1.763  14.334
14404SOL    HW145109  14.641   1.732  14.422
14404SOL    HW245110  14.759   1.778  14.338
14405SOL     OW45111  10.914   5.379  13.229
14405SOL    HW145112  10.944   5.369  13.139
14405SOL    HW245113  10.833   5.431  13.222
14406SOL     OW45114   4.962   3.344  10.975
14406SOL    HW145115   5.010   3.422  11.005
14406SOL    HW245116   4.968   3.347  10.880
14407SOL     OW45117  14.844   7.040   4.686
14407SOL    HW145118   0.063   7.056   4.709
14407SOL    HW245119  14.796   7.112   4.727
14408SOL     OW45120   2.777   2.992   9.748
14408SOL    HW145121   2.862   3.013   9.787
14408SOL    HW245122   2.753   2.908   9.786
14409SOL     OW45123   3.271   6.029   1.810
14409SOL    HW145124   3.203   6.089   1.841
14409SOL    HW245125   3.248   5.945   1.848
14410SOL     OW45126   8.637  11.461   8.788
14410SOL    HW145127   8.574  11.533   8.777
14410SOL    HW245128   8.623  11.405   8.712
14411SOL     OW45129   6.446  13.783   3.806
14411SOL    HW145130   6.396  13.864   3.799
14411SOL    HW245131   6.380  13.714   3.816
14412SOL     OW45132   5.872   8.080   8.865
14412SOL    HW145133   5.802   8.026   8.902
14412SOL    HW245134   5.860   8.072   8.770
14413SOL     OW45135   7.332   2.877  10.145
14413SOL    HW145136   7.378   2.880  10.062
14413SOL    HW245137   7.386   2.927  10.205
14414SOL     OW45138   2.529  10.321   4.701
14414SOL    HW145139   2.618  10.315   4.736
14414SOL    HW245140   2.529  10.400   4.648
14415SOL     OW45141   1.914   3.232  12.457
14415SOL    HW145142   1.838   3.179  12.431
14415SOL    HW245143   1.878   3.298  12.516
14416SOL     OW45144  14.444  11.764   9.766
14416SOL    HW145145  14.482  11.842   9.807
14416SOL    HW245146  14.354  11.789   9.745
14417SOL     OW45147   8.186   4.908   3.979
14417SOL    HW145148   8.144   4.986   4.017
14417SOL    HW245149   8.261   4.943   3.930
14418SOL     OW45150  13.428  11.846   5.667
14418SOL    HW145151  13.489  11.814   5.602
14418SOL    HW245152  13.378  11.769   5.694
14419SOL     OW45153  11.516  14.832  13.671
14419SOL    HW145154  11.518   0.047  13.634
14419SOL    HW245155  11.529  14.846  13.765
14420SOL     OW45156   6.088   0.845   2.527
14420SOL    HW145157   6.013   0.896   2.496
14420SOL    HW245158   6.061   0.815   2.614
14421SOL     OW45159   3.349   6.353  13.770
14421SOL    HW145160   3.290   6.283  13.798
14421SOL    HW245161   3.407   6.367  13.844
14422SOL     OW45162  14.138   4.555   3.737
14422SOL    HW145163  14.216   4.505   3.713
14422SOL    HW245164  14.161   4.646   3.719
14423SOL     OW45165  11.461   0.617   3.003
14423SOL    HW145166  11.550   0.651   2.993
14423SOL    HW245167  11.446   0.619   3.098
14424SOL     OW45168   6.819   1.169   4.650
14424SOL    HW145169   6.885   1.205   4.709
14424SOL    HW245170   6.847   1.194   4.563
14425SOL     OW45171   2.663  10.105   2.375
14425SOL    HW145172   2.618  10.153   2.445
14425SOL    HW245173   2.592  10.076   2.317
14426SOL     OW45174   3.668   3.476   0.397
14426SOL    HW145175   3.667   3.502   0.489
14426SOL    HW245176   3.633   3.386   0.398
14427SOL     OW45177   5.216   8.442   6.269
14427SOL    HW145178   5.161   8.430   6.346
14427SOL    HW245179   5.254   8.530   6.281
14428SOL     OW45180  10.941   2.205   8.483
14428SOL    HW145181  10.896   2.170   8.560
14428SOL    HW245182  11.017   2.250   8.519
14429SOL     OW45183   1.774   0.669   6.183
14429SOL    HW145184   1.764   0.633   6.094
14429SOL    HW245185   1.835   0.742   6.173
14430SOL     OW45186   2.346   0.777   5.905
14430SOL    HW145187   2.311   0.734   5.827
14430SOL    HW245188   2.298   0.860   5.910
14431SOL     OW45189   9.647   8.194   3.589
14431SOL    HW145190   9.574   8.221   3.644
14431SOL    HW245191   9.608   8.141   3.520
14432SOL     OW45192   1.451   8.363  11.349
14432SOL    HW145193   1.399   8.336  11.424
14432SOL    HW245194   1.499   8.440  11.379
14433SOL     OW45195  11.556   8.341  13.187
14433SOL    HW145196  11.605   8.270  13.146
14433SOL    HW245197  11.605   8.420  13.164
14434SOL     OW45198  10.917  13.691   9.366
14434SOL    HW145199  10.987  13.733   9.316
14434SOL    HW245200  10.953  13.680   9.454
14435SOL     OW45201   1.886   3.830   5.798
14435SOL    HW145202   1.804   3.825   5.750
14435SOL    HW245203   1.943   3.765   5.756
14436SOL     OW45204   2.155   5.949   8.848
14436SOL    HW145205   2.070   5.912   8.874
14436SOL    HW245206   2.142   6.044   8.856
14437SOL     OW45207   0.994   4.335  11.984
14437SOL    HW145208   0.954   4.253  12.012
14437SOL    HW245209   1.088   4.324  12.000
14438SOL     OW45210   6.608   1.782   5.347
14438SOL    HW145211   6.637   1.694   5.323
14438SOL    HW245212   6.571   1.817   5.267
14439SOL     OW45213  14.502  12.105  14.709
14439SOL    HW145214  14.543  12.142  14.787
14439SOL    HW245215  14.572  12.104  14.643
14440SOL     OW45216  11.664  11.883   7.380
14440SOL    HW145217  11.703  11.806   7.422
14440SOL    HW245218  11.716  11.897   7.301
14441SOL     OW45219  11.524   7.236   1.345
14441SOL    HW145220  11.474   7.159   1.317
14441SOL    HW245221  11.478   7.310   1.305
14442SOL     OW45222   0.438   3.915  13.005
14442SOL    HW145223   0.343   3.904  13.015
14442SOL    HW245224   0.474   3.896  13.091
14443SOL     OW45225   6.212  13.124  14.499
14443SOL    HW145226   6.242  13.165  14.580
14443SOL    HW245227   6.184  13.036  14.525
14444SOL     OW45228  13.823   1.483  14.129
14444SOL    HW145229  13.731   1.457  14.128
14444SOL    HW245230  13.862   1.435  14.056
14445SOL     OW45231   3.581   8.313  11.898
14445SOL    HW145232   3.623   8.398  11.882
14445SOL    HW245233   3.637   8.250  11.853
14446SOL     OW45234   0.961   2.110  14.726
14446SOL    HW145235   0.914   2.178  14.676
14446SOL    HW245236   0.954   2.032  14.671
14447SOL     OW45237   9.852   5.767   5.997
14447SOL    HW145238   9.821   5.797   6.082
14447SOL    HW245239   9.846   5.843   5.940
14448SOL     OW45240   5.729   1.017  14.700
14448SOL    HW145241   5.738   1.096  14.754
14448SOL    HW245242   5.644   0.981  14.725
14449SOL     OW45243   3.277   4.199   7.615
14449SOL    HW145244   3.285   4.105   7.633
14449SOL    HW245245   3.286   4.241   7.700
14450SOL     OW45246   5.271   9.236   9.969
14450SOL    HW145247   5.254   9.251   9.876
14450SOL    HW245248   5.294   9.143   9.975
14451SOL     OW45249  11.614   5.637   6.064
14451SOL    HW145250  11.651   5.599   5.984
14451SOL    HW245251  11.689   5.671   6.112
14452SOL     OW45252   3.635   0.752  12.219
14452SOL    HW145253   3.698   0.726  12.152
14452SOL    HW245254   3.638   0.681  12.284
14453SOL     OW45255   9.946   8.966   6.834
14453SOL    HW145256  10.004   9.003   6.901
14453SOL    HW245257   9.858   8.987   6.864
14454SOL     OW45258  14.091   3.681   6.432
14454SOL    HW145259  14.103   3.767   6.392
14454SOL    HW245260  14.171   3.668   6.484
14455SOL     OW45261   8.232   8.259  11.401
14455SOL    HW145262   8.316   8.301  11.420
14455SOL    HW245263   8.255   8.168  11.380
14456SOL     OW45264   0.877   1.093  12.459
14456SOL    HW145265   0.880   1.177  12.413
14456SOL    HW245266   0.792   1.055  12.435
14457SOL     OW45267   0.162  12.872   3.755
14457SOL    HW145268   0.103  12.938   3.790
14457SOL    HW245269   0.120  12.789   3.773
14458SOL     OW45270  12.152   5.871   7.854
14458SOL    HW145271  12.185   5.953   7.817
14458SOL    HW245272  12.170   5.877   7.948
14459SOL     OW45273   5.981   2.695   5.992
14459SOL    HW145274   6.021   2.763   6.046
14459SOL    HW245275   5.899   2.733   5.961
14460SOL     OW45276   8.481   4.970  10.351
14460SOL    HW145277   8.467   5.028  10.426
14460SOL    HW245278   8.444   5.018  10.277
14461SOL     OW45279   1.557   0.141  12.196
14461SOL    HW145280   1.503   0.094  12.259
14461SOL    HW245281   1.502   0.149  12.118
14462SOL     OW45282   9.930  14.860   3.012
14462SOL    HW145283  10.003  14.802   2.990
14462SOL    HW245284   9.872  14.807   3.066
14463SOL     OW45285   4.031  11.944   9.859
14463SOL    HW145286   3.967  11.987   9.802
14463SOL    HW245287   3.988  11.938   9.944
14464SOL     OW45288   8.354  13.549  13.387
14464SOL    HW145289   8.311  13.477  13.432
14464SOL    HW245290   8.370  13.614  13.456
14465SOL     OW45291  11.544   3.615   2.016
14465SOL    HW145292  11.482   3.634   1.945
14465SOL    HW245293  11.493   3.566   2.080
14466SOL     OW45294  13.080  10.469   6.262
14466SOL    HW145295  13.094  10.386   6.308
14466SOL    HW245296  13.050  10.529   6.330
14467SOL     OW45297  10.727   5.913   4.550
14467SOL    HW145298  10.633   5.929   4.555
14467SOL    HW245299  10.739   5.867   4.466
14468SOL     OW45300  11.503   4.540  10.356
14468SOL    HW145301  11.548   4.513  10.435
14468SOL    HW245302  11.488   4.459  10.308
14469SOL     OW45303  14.723  14.071   4.469
14469SOL    HW145304  14.801  14.112   4.432
14469SOL    HW245305  14.729  14.090   4.563
14470SOL     OW45306   7.338   7.489  10.430
14470SOL    HW145307   7.306   7.404  10.461
14470SOL    HW245308   7.422   7.469  10.389
14471SOL     OW45309   0.452  14.116  11.485
14471SOL    HW145310   0.528  14.135  11.541
14471SOL    HW245311   0.376  14.139  11.540
14472SOL     OW45312   0.639  11.299   4.558
14472SOL    HW145313   0.657  11.259   4.472
14472SOL    HW245314   0.622  11.224   4.615
14473SOL     OW45315   7.290  12.346   2.607
14473SOL    HW145316   7.201  12.329   2.638
14473SOL    HW245317   7.277  12.387   2.521
14474SOL     OW45318   7.734   4.043   5.304
14474SOL    HW145319   7.691   3.958   5.295
14474SOL    HW245320   7.673   4.095   5.356
14475SOL     OW45321   2.732  13.183   4.420
14475SOL    HW145322   2.813  13.156   4.377
14475SOL    HW245323   2.669  13.194   4.348
14476SOL     OW45324   0.653   5.581   3.305
14476SOL    HW145325   0.620   5.504   3.259
14476SOL    HW245326   0.644   5.652   3.243
14477SOL     OW45327   6.567   1.874   1.500
14477SOL    HW145328   6.525   1.849   1.582
14477SOL    HW245329   6.501   1.928   1.455
14478SOL     OW45330  10.635   4.965  11.873
14478SOL    HW145331  10.609   4.875  11.890
14478SOL    HW245332  10.558   5.017  11.895
14479SOL     OW45333   0.540  12.937   7.425
14479SOL    HW145334   0.555  12.876   7.353
14479SOL    HW245335   0.447  12.926   7.446
14480SOL     OW45336   1.513  11.905   0.490
14480SOL    HW145337   1.419  11.916   0.508
14480SOL    HW245338   1.529  11.956   0.411
14481SOL     OW45339   6.495   5.102   3.421
14481SOL    HW145340   6.428   5.170   3.418
14481SOL    HW245341   6.506   5.075   3.330
14482SOL     OW45342   5.754   8.071   0.115
14482SOL    HW145343   5.719   8.151   0.076
14482SOL    HW245344   5.741   8.004   0.048
14483SOL     OW45345   1.053  13.630  13.803
14483SOL    HW145346   1.133  13.592  13.767
14483SOL    HW245347   1.082  13.673  13.884
14484SOL     OW45348   5.777  13.092   5.698
14484SOL    HW145349   5.750  13.117   5.786
14484SOL    HW245350   5.704  13.116   5.642
14485SOL     OW45351   9.463   8.765   1.179
14485SOL    HW145352   9.489   8.775   1.271
14485SOL    HW245353   9.486   8.849   1.138
14486SOL     OW45354  12.523  10.679  10.813
14486SOL    HW145355  12.602  10.650  10.859
14486SOL    HW245356  12.547  10.763  10.776
14487SOL     OW45357   3.942  11.478  13.592
14487SOL    HW145358   3.900  11.397  13.564
14487SOL    HW245359   3.869  11.539  13.605
14488SOL     OW45360  12.298  14.620  12.591
14488SOL    HW145361  12.258  14.601  12.507
14488SOL    HW245362  12.264  14.706  12.616
14489SOL     OW45363   0.643   6.338  14.134
14489SOL    HW145364   0.696   6.332  14.214
14489SOL    HW245365   0.695   6.292  14.068
14490SOL     OW45366   4.821   4.637   7.575
14490SOL    HW145367   4.900   4.683   7.605
14490SOL    HW245368   4.750   4.698   7.595
14491SOL     OW45369  12.032  11.341   7.938
14491SOL    HW145370  12.074  11.427   7.939
14491SOL    HW245371  12.008  11.325   8.030
14492SOL     OW45372  10.191  10.452   2.378
14492SOL    HW145373  10.274  10.409   2.402
14492SOL    HW245374  10.211  10.546   2.380
14493SOL     OW45375  14.239   8.104  11.773
14493SOL    HW145376  14.232   8.184  11.825
14493SOL    HW245377  14.237   8.033  11.838
14494SOL     OW45378   6.808  13.491  10.817
14494SOL    HW145379   6.852  13.506  10.901
14494SOL    HW245380   6.879  13.492  10.753
14495SOL     OW45381  14.115   5.782   1.562
14495SOL    HW145382  14.144   5.753   1.475
14495SOL    HW245383  14.107   5.702   1.613
14496SOL     OW45384  10.942  13.643   7.434
14496SOL    HW145385  10.973  13.681   7.516
14496SOL    HW245386  10.977  13.554   7.433
14497SOL     OW45387  13.052   6.604   4.086
14497SOL    HW145388  13.144   6.585   4.068
14497SOL    HW245389  13.024   6.658   4.012
14498SOL     OW45390   7.108   9.202   2.249
14498SOL    HW145391   7.021   9.243   2.248
14498SOL    HW245392   7.128   9.186   2.156
14499SOL     OW45393   1.709   8.891   4.865
14499SOL    HW145394   1.675   8.804   4.844
14499SOL    HW245395   1.761   8.878   4.944
14500SOL     OW45396   8.398   6.510  14.673
14500SOL    HW145397   8.455   6.587  14.670
14500SOL    HW245398   8.310   6.545  14.662
14501SOL     OW45399  12.651  12.231   2.121
14501SOL    HW145400  12.604  12.259   2.200
14501SOL    HW245401  12.691  12.147   2.146
14502SOL     OW45402  12.523  11.493   9.638
14502SOL    HW145403  12.454  11.546   9.677
14502SOL    HW245404  12.483  11.406   9.629
14503SOL     OW45405   8.870  14.341   6.634
14503SOL    HW145406   8.842  14.373   6.720
14503SOL    HW245407   8.914  14.416   6.594
14504SOL     OW45408   3.341   0.528   7.270
14504SOL    HW145409   3.380   0.459   7.217
14504SOL    HW245410   3.415   0.572   7.310
14505SOL     OW45411  13.303   4.638   0.816
14505SOL    HW145412  13.243   4.606   0.884
14505SOL    HW245413  13.381   4.585   0.826
14506SOL     OW45414   0.361   2.726   1.786
14506SOL    HW145415   0.445   2.761   1.815
14506SOL    HW245416   0.374   2.707   1.693
14507SOL     OW45417   5.263   7.384   1.208
14507SOL    HW145418   5.173   7.402   1.234
14507SOL    HW245419   5.286   7.303   1.253
14508SOL     OW45420   5.185   5.139   9.986
14508SOL    HW145421   5.248   5.138   9.914
14508SOL    HW245422   5.125   5.067   9.967
14509SOL     OW45423   5.304  12.526   7.315
14509SOL    HW145424   5.309  12.598   7.377
14509SOL    HW245425   5.394  12.494   7.308
14510SOL     OW45426   5.319   4.657   4.756
14510SOL    HW145427   5.364   4.740   4.738
14510SOL    HW245428   5.246   4.656   4.694
14511SOL     OW45429   8.943   8.797   3.553
14511SOL    HW145430   8.901   8.751   3.481
14511SOL    HW245431   8.874   8.808   3.618
14512SOL     OW45432  11.479   7.140   0.165
14512SOL    HW145433  11.418   7.139   0.239
14512SOL    HW245434  11.515   7.052   0.162
14513SOL     OW45435  14.342   7.456   5.191
14513SOL    HW145436  14.380   7.415   5.269
14513SOL    HW245437  14.348   7.550   5.209
14514SOL     OW45438   7.480  12.891   9.721
14514SOL    HW145439   7.530  12.815   9.692
14514SOL    HW245440   7.402  12.854   9.763
14515SOL     OW45441  13.055   1.127  14.470
14515SOL    HW145442  12.960   1.124  14.464
14515SOL    HW245443  13.086   1.070  14.399
14516SOL     OW45444  14.045   0.365   2.001
14516SOL    HW145445  14.036   0.330   1.913
14516SOL    HW245446  14.040   0.289   2.059
14517SOL     OW45447   2.040   2.377   6.402
14517SOL    HW145448   1.988   2.327   6.466
14517SOL    HW245449   2.098   2.430   6.456
14518SOL     OW45450   2.143   0.495   9.665
14518SOL    HW145451   2.119   0.538   9.583
14518SOL    HW245452   2.075   0.523   9.727
14519SOL     OW45453   7.646  13.158  13.931
14519SOL    HW145454   7.607  13.163  14.018
14519SOL    HW245455   7.740  13.168  13.945
14520SOL     OW45456  12.437   5.796   1.190
14520SOL    HW145457  12.526   5.789   1.227
14520SOL    HW245458  12.385   5.835   1.260
14521SOL     OW45459   1.646   1.918  13.484
14521SOL    HW145460   1.551   1.915  13.496
14521SOL    HW245461   1.666   1.839  13.433
14522SOL     OW45462  12.121   0.990  11.239
14522SOL    HW145463  12.027   0.996  11.255
14522SOL    HW245464  12.141   1.068  11.188
14523SOL     OW45465   4.041   9.550   1.905
14523SOL    HW145466   4.075   9.466   1.875
14523SOL    HW245467   3.947   9.535   1.917
14524SOL     OW45468   7.809  13.940   6.628
14524SOL    HW145469   7.844  13.854   6.649
14524SOL    HW245470   7.731  13.949   6.684
14525SOL     OW45471   0.319   1.149   7.940
14525SOL    HW145472   0.275   1.174   8.021
14525SOL    HW245473   0.316   1.053   7.940
14526SOL     OW45474   2.453   6.288   0.637
14526SOL    HW145475   2.542   6.307   0.608
14526SOL    HW245476   2.435   6.354   0.704
14527SOL     OW45477   7.045   3.682   8.587
14527SOL    HW145478   6.989   3.667   8.510
14527SOL    HW245479   7.134   3.689   8.550
14528SOL     OW45480   0.623  10.461   8.970
14528SOL    HW145481   0.550  10.427   9.021
14528SOL    HW245482   0.629  10.401   8.895
14529SOL     OW45483  14.211   9.503   5.852
14529SOL    HW145484  14.119   9.479   5.862
14529SOL    HW245485  14.233   9.478   5.762
14530SOL     OW45486   6.612   8.606  13.601
14530SOL    HW145487   6.677   8.675  13.618
14530SOL    HW245488   6.597   8.612  13.507
14531SOL     OW45489  13.036   1.275  14.739
14531SOL    HW145490  13.127   1.295  14.764
14531SOL    HW245491  13.043   1.240  14.650
14532SOL     OW45492   2.150  10.853   5.117
14532SOL    HW145493   2.117  10.783   5.060
14532SOL    HW245494   2.107  10.837   5.201
14533SOL     OW45495   1.217   2.233   9.914
14533SOL    HW145496   1.135   2.271   9.946
14533SOL    HW245497   1.204   2.224   9.819
14534SOL     OW45498   1.637  14.089   6.048
14534SOL    HW145499   1.677  14.002   6.053
14534SOL    HW245500   1.559  14.076   5.994
14535SOL     OW45501   9.485   9.172   4.789
14535SOL    HW145502   9.460   9.087   4.753
14535SOL    HW245503   9.547   9.209   4.726
14536SOL     OW45504   1.851   7.273   0.531
14536SOL    HW145505   1.780   7.286   0.469
14536SOL    HW245506   1.834   7.337   0.601
14537SOL     OW45507   6.350  10.269   2.998
14537SOL    HW145508   6.443  10.291   3.001
14537SOL    HW245509   6.308  10.335   3.052
14538SOL     OW45510  12.722   5.049  12.846
14538SOL    HW145511  12.703   4.955  12.844
14538SOL    HW245512  12.816   5.054  12.865
14539SOL     OW45513  10.449   9.770   9.937
14539SOL    HW145514  10.439   9.730   9.851
14539SOL    HW245515  10.461   9.696   9.997
14540SOL     OW45516  11.098   0.420   8.133
14540SOL    HW145517  11.016   0.371   8.124
14540SOL    HW245518  11.086   0.473   8.211
14541SOL     OW45519   4.127  11.398   4.061
14541SOL    HW145520   4.139  11.308   4.031
14541SOL    HW245521   4.212  11.439   4.046
14542SOL     OW45522   8.896   7.656   2.823
14542SOL    HW145523   8.810   7.666   2.782
14542SOL    HW245524   8.924   7.568   2.800
14543SOL     OW45525   5.680  10.927   3.375
14543SOL    HW145526   5.696  10.844   3.330
14543SOL    HW245527   5.735  10.990   3.328
14544SOL     OW45528  12.609  12.793   9.189
14544SOL    HW145529  12.519  12.793   9.156
14544SOL    HW245530  12.611  12.865   9.252
14545SOL     OW45531  12.301   5.908   6.452
14545SOL    HW145532  12.220   5.934   6.497
14545SOL    HW245533  12.368   5.908   6.520
14546SOL     OW45534   3.629   8.779  12.313
14546SOL    HW145535   3.668   8.795  12.227
14546SOL    HW245536   3.621   8.866  12.352
14547SOL     OW45537   1.822   2.662   6.961
14547SOL    HW145538   1.751   2.680   7.022
14547SOL    HW245539   1.899   2.704   7.000
14548SOL     OW45540   1.363  11.133   9.238
14548SOL    HW145541   1.447  11.179   9.232
14548SOL    HW245542   1.365  11.092   9.325
14549SOL     OW45543   2.583  11.144   6.021
14549SOL    HW145544   2.514  11.210   6.012
14549SOL    HW245545   2.632  11.171   6.099
14550SOL     OW45546   7.532   6.127   8.869
14550SOL    HW145547   7.514   6.126   8.775
14550SOL    HW245548   7.487   6.205   8.902
14551SOL     OW45549   7.919   7.345  14.294
14551SOL    HW145550   7.863   7.297  14.233
14551SOL    HW245551   7.866   7.356  14.372
14552SOL     OW45552   0.999  11.349   9.550
14552SOL    HW145553   0.920  11.304   9.580
14552SOL    HW245554   0.994  11.344   9.454
14553SOL     OW45555   7.920   4.727   2.119
14553SOL    HW145556   7.978   4.792   2.080
14553SOL    HW245557   7.867   4.696   2.046
14554SOL     OW45558   8.860   1.239   4.143
14554SOL    HW145559   8.936   1.188   4.118
14554SOL    HW245560   8.822   1.268   4.060
14555SOL     OW45561  13.171  12.062  14.601
14555SOL    HW145562  13.219  12.139  14.572
14555SOL    HW245563  13.109  12.043  14.530
14556SOL     OW45564  14.741  14.698   1.485
14556SOL    HW145565  14.750  14.605   1.503
14556SOL    HW245566  14.700  14.734   1.563
14557SOL     OW45567   2.735   0.740   6.036
14557SOL    HW145568   2.778   0.655   6.028
14557SOL    HW245569   2.791   0.791   6.094
14558SOL     OW45570   8.667  12.926   9.704
14558SOL    HW145571   8.604  12.998   9.710
14558SOL    HW245572   8.734  12.958   9.644
14559SOL     OW45573   3.821  13.467   8.895
14559SOL    HW145574   3.898  13.451   8.950
14559SOL    HW245575   3.853  13.525   8.826
14560SOL     OW45576   5.625  14.049   3.911
14560SOL    HW145577   5.581  13.994   3.975
14560SOL    HW245578   5.594  14.017   3.826
14561SOL     OW45579   3.531  13.725   1.755
14561SOL    HW145580   3.495  13.693   1.672
14561SOL    HW245581   3.567  13.811   1.734
14562SOL     OW45582   2.354   4.194  14.577
14562SOL    HW145583   2.439   4.233  14.557
14562SOL    HW245584   2.373   4.101  14.592
14563SOL     OW45585  11.925   4.134   3.618
14563SOL    HW145586  11.833   4.145   3.642
14563SOL    HW245587  11.940   4.202   3.552
14564SOL     OW45588   1.009   0.466   1.346
14564SOL    HW145589   0.951   0.476   1.421
14564SOL    HW245590   0.991   0.378   1.313
14565SOL     OW45591   1.741   2.013  13.785
14565SOL    HW145592   1.666   1.960  13.757
14565SOL    HW245593   1.809   1.994  13.721
14566SOL     OW45594  14.603  14.517  14.385
14566SOL    HW145595  14.593  14.507  14.290
14566SOL    HW245596  14.557  14.598  14.406
14567SOL     OW45597   2.564   5.883   8.652
14567SOL    HW145598   2.658   5.890   8.636
14567SOL    HW245599   2.547   5.789   8.656
14568SOL     OW45600   6.592  10.092   1.358
14568SOL    HW145601   6.663  10.029   1.343
14568SOL    HW245602   6.524  10.066   1.296
14569SOL     OW45603  14.033   6.558  11.371
14569SOL    HW145604  14.050   6.632  11.428
14569SOL    HW245605  14.052   6.590  11.283
14570SOL     OW45606   0.738   0.072   3.052
14570SOL    HW145607   0.705   0.120   2.976
14570SOL    HW245608   0.660   0.042   3.098
14571SOL     OW45609   5.245  11.283  12.350
14571SOL    HW145610   5.205  11.307  12.433
14571SOL    HW245611   5.271  11.366  12.310
14572SOL     OW45612   1.043   4.749   9.768
14572SOL    HW145613   1.021   4.790   9.851
14572SOL    HW245614   0.961   4.750   9.718
14573SOL     OW45615  14.445   6.365   3.759
14573SOL    HW145616  14.438   6.272   3.742
14573SOL    HW245617  14.426   6.374   3.852
14574SOL     OW45618   9.905  10.870   3.035
14574SOL    HW145619   9.973  10.829   2.981
14574SOL    HW245620   9.877  10.800   3.094
14575SOL     OW45621  13.021  11.958   6.040
14575SOL    HW145622  13.020  12.046   6.003
14575SOL    HW245623  12.983  11.902   5.973
14576SOL     OW45624   3.829  13.265   5.629
14576SOL    HW145625   3.750  13.242   5.582
14576SOL    HW245626   3.800  13.328   5.695
14577SOL     OW45627   5.494   2.475   2.004
14577SOL    HW145628   5.429   2.465   1.934
14577SOL    HW245629   5.578   2.461   1.960
14578SOL     OW45630  13.662   0.408   1.482
14578SOL    HW145631  13.570   0.382   1.486
14578SOL    HW245632  13.698   0.381   1.567
14579SOL     OW45633   4.101   4.611   8.840
14579SOL    HW145634   4.124   4.684   8.782
14579SOL    HW245635   4.184   4.568   8.859
14580SOL     OW45636  14.139  13.003   1.515
14580SOL    HW145637  14.095  12.972   1.435
14580SOL    HW245638  14.128  12.932   1.578
14581SOL     OW45639   4.258   7.399   1.700
14581SOL    HW145640   4.163   7.391   1.706
14581SOL    HW245641   4.273   7.493   1.689
14582SOL     OW45642  14.369  14.111   9.508
14582SOL    HW145643  14.332  14.140   9.424
14582SOL    HW245644  14.309  14.147   9.574
14583SOL     OW45645  11.701   1.264   5.115
14583SOL    HW145646  11.658   1.186   5.080
14583SOL    HW245647  11.669   1.336   5.060
14584SOL     OW45648  13.220  12.327   0.148
14584SOL    HW145649  13.276  12.264   0.102
14584SOL    HW245650  13.164  12.272   0.203
14585SOL     OW45651   0.856   2.640   8.170
14585SOL    HW145652   0.860   2.632   8.075
14585SOL    HW245653   0.852   2.550   8.202
14586SOL     OW45654   1.447   4.806   0.168
14586SOL    HW145655   1.448   4.814   0.263
14586SOL    HW245656   1.500   4.728   0.150
14587SOL     OW45657   0.209   3.021  14.308
14587SOL    HW145658   0.281   2.998  14.368
14587SOL    HW245659   0.189   3.112  14.330
14588SOL     OW45660  13.902   0.015   4.663
14588SOL    HW145661  13.956  14.822   4.619
14588SOL    HW245662  13.938   0.099   4.635
14589SOL     OW45663  10.180   4.823   9.163
14589SOL    HW145664  10.142   4.799   9.079
14589SOL    HW245665  10.106   4.829   9.223
14590SOL     OW45666   5.583   7.069   1.176
14590SOL    HW145667   5.636   7.014   1.233
14590SOL    HW245668   5.643   7.100   1.108
14591SOL     OW45669   0.529   4.840  11.443
14591SOL    HW145670   0.621   4.868  11.439
14591SOL    HW245671   0.479   4.922  11.441
14592SOL     OW45672   5.209  14.135   5.812
14592SOL    HW145673   5.253  14.116   5.729
14592SOL    HW245674   5.276  14.180   5.865
14593SOL     OW45675   7.720   4.502   9.040
14593SOL    HW145676   7.626   4.485   9.044
14593SOL    HW245677   7.729   4.593   9.066
14594SOL     OW45678  10.950  14.607  12.802
14594SOL    HW145679  11.006  14.546  12.754
14594SOL    HW245680  10.863  14.595  12.765
14595SOL     OW45681   8.654   9.833  11.601
14595SOL    HW145682   8.657   9.740  11.580
14595SOL    HW245683   8.744   9.863  11.592
14596SOL     OW45684   0.223   4.513   4.616
14596SOL    HW145685   0.226   4.429   4.661
14596SOL    HW245686   0.222   4.578   4.686
14597SOL     OW45687  11.166   8.258  11.312
14597SOL    HW145688  11.238   8.195  11.317
14597SOL    HW245689  11.175   8.311  11.391
14598SOL     OW45690   1.954   5.385   1.586
14598SOL    HW145691   2.049   5.377   1.574
14598SOL    HW245692   1.934   5.475   1.562
14599SOL     OW45693  13.964   9.381   8.757
14599SOL    HW145694  13.986   9.360   8.848
14599SOL    HW245695  13.934   9.471   8.759
14600SOL     OW45696  13.405   6.473   1.853
14600SOL    HW145697  13.321   6.464   1.809
14600SOL    HW245698  13.403   6.561   1.891
14601SOL     OW45699  12.433  11.934   5.422
14601SOL    HW145700  12.400  11.938   5.511
14601SOL    HW245701  12.517  11.981   5.425
14602SOL     OW45702   4.806   7.257   8.402
14602SOL    HW145703   4.769   7.243   8.315
14602SOL    HW245704   4.761   7.193   8.457
14603SOL     OW45705  12.846   3.594   9.134
14603SOL    HW145706  12.795   3.532   9.083
14603SOL    HW245707  12.789   3.617   9.208
14604SOL     OW45708  10.105   0.689   2.136
14604SOL    HW145709  10.040   0.697   2.066
14604SOL    HW245710  10.110   0.777   2.173
14605SOL     OW45711   8.280   1.383   1.058
14605SOL    HW145712   8.213   1.331   1.013
14605SOL    HW245713   8.232   1.436   1.121
14606SOL     OW45714   4.799  13.045   3.161
14606SOL    HW145715   4.744  12.987   3.108
14606SOL    HW245716   4.886  13.036   3.122
14607SOL     OW45717   5.831   2.142   4.484
14607SOL    HW145718   5.815   2.095   4.565
14607SOL    HW245719   5.901   2.204   4.505
14608SOL     OW45720  11.245   2.023   2.006
14608SOL    HW145721  11.236   2.081   2.082
14608SOL    HW245722  11.177   2.053   1.945
14609SOL     OW45723  10.374  12.091   5.718
14609SOL    HW145724  10.300  12.041   5.751
14609SOL    HW245725  10.441  12.026   5.698
14610SOL     OW45726  11.958   7.854  13.126
14610SOL    HW145727  11.947   7.921  13.059
14610SOL    HW245728  11.893   7.787  13.104
14611SOL     OW45729   7.909   0.273   6.243
14611SOL    HW145730   7.823   0.230   6.246
14611SOL    HW245731   7.894   0.357   6.287
14612SOL     OW45732   5.654   2.178   0.627
14612SOL    HW145733   5.570   2.220   0.644
14612SOL    HW245734   5.685   2.217   0.545
14613SOL     OW45735   2.543  13.148   2.692
14613SOL    HW145736   2.581  13.234   2.674
14613SOL    HW245737   2.550  13.100   2.610
14614SOL     OW45738   1.069   9.164  10.242
14614SOL    HW145739   0.998   9.177  10.304
14614SOL    HW245740   1.141   9.128  10.295
14615SOL     OW45741  10.977  14.623   7.593
14615SOL    HW145742  10.892  14.628   7.637
14615SOL    HW245743  10.966  14.552   7.530
14616SOL     OW45744   3.398   3.653  13.138
14616SOL    HW145745   3.390   3.687  13.228
14616SOL    HW245746   3.337   3.706  13.087
14617SOL     OW45747  14.587   5.637  10.150
14617SOL    HW145748  14.529   5.563  10.172
14617SOL    HW245749  14.654   5.599  10.094
14618SOL     OW45750  12.848   0.743   3.505
14618SOL    HW145751  12.877   0.834   3.502
14618SOL    HW245752  12.754   0.748   3.522
14619SOL     OW45753   2.279   3.192   8.498
14619SOL    HW145754   2.342   3.261   8.519
14619SOL    HW245755   2.326   3.110   8.516
14620SOL     OW45756   9.359   1.966   9.694
14620SOL    HW145757   9.268   1.943   9.712
14620SOL    HW245758   9.406   1.940   9.773
14621SOL     OW45759  12.871   5.841   9.500
14621SOL    HW145760  12.840   5.839   9.591
14621SOL    HW245761  12.957   5.800   9.504
14622SOL     OW45762   7.202   5.726   7.599
14622SOL    HW145763   7.246   5.768   7.525
14622SOL    HW245764   7.247   5.762   7.676
14623SOL     OW45765   8.831   5.325   0.952
14623SOL    HW145766   8.821   5.251   0.893
14623SOL    HW245767   8.861   5.286   1.034
14624SOL     OW45768   8.368   7.037   6.434
14624SOL    HW145769   8.300   6.997   6.379
14624SOL    HW245770   8.450   6.997   6.404
14625SOL     OW45771   9.126   8.430   2.845
14625SOL    HW145772   9.058   8.364   2.830
14625SOL    HW245773   9.168   8.440   2.759
14626SOL     OW45774  10.857   4.680   5.819
14626SOL    HW145775  10.904   4.603   5.850
14626SOL    HW245776  10.857   4.740   5.894
14627SOL     OW45777   6.423  13.965  11.428
14627SOL    HW145778   6.366  14.029  11.470
14627SOL    HW245779   6.437  13.999  11.340
14628SOL     OW45780   6.065   7.017   3.663
14628SOL    HW145781   6.144   6.974   3.630
14628SOL    HW245782   6.028   6.954   3.725
14629SOL     OW45783   6.261   6.779   0.025
14629SOL    HW145784   6.203   6.710   0.056
14629SOL    HW245785   6.263   6.843   0.096
14630SOL     OW45786   2.611   7.233   1.746
14630SOL    HW145787   2.654   7.206   1.665
14630SOL    HW245788   2.647   7.319   1.766
14631SOL     OW45789   5.952  11.833   8.972
14631SOL    HW145790   5.906  11.916   8.984
14631SOL    HW245791   5.935  11.784   9.053
14632SOL     OW45792   6.327  13.333   3.275
14632SOL    HW145793   6.284  13.266   3.221
14632SOL    HW245794   6.386  13.283   3.332
14633SOL     OW45795  11.647  10.968   8.376
14633SOL    HW145796  11.731  10.999   8.343
14633SOL    HW245797  11.582  11.027   8.338
14634SOL     OW45798   7.674  11.983   6.974
14634SOL    HW145799   7.597  12.040   6.969
14634SOL    HW245800   7.728  12.023   7.042
14635SOL     OW45801   3.434  12.611  13.210
14635SOL    HW145802   3.472  12.682  13.159
14635SOL    HW245803   3.387  12.557  13.146
14636SOL     OW45804   0.483   8.194   1.588
14636SOL    HW145805   0.567   8.179   1.545
14636SOL    HW245806   0.456   8.281   1.559
14637SOL     OW45807   4.194   2.856  10.657
14637SOL    HW145808   4.264   2.852  10.592
14637SOL    HW245809   4.176   2.950  10.667
14638SOL     OW45810  10.057   0.510  12.597
14638SOL    HW145811  10.041   0.555  12.515
14638SOL    HW245812  10.132   0.453  12.579
14639SOL     OW45813   6.812  14.435   4.426
14639SOL    HW145814   6.822  14.351   4.471
14639SOL    HW245815   6.744  14.419   4.361
14640SOL     OW45816  13.542  13.393   7.528
14640SOL    HW145817  13.561  13.439   7.609
14640SOL    HW245818  13.481  13.450   7.481
14641SOL     OW45819  13.918  10.986  13.458
14641SOL    HW145820  13.895  11.040  13.533
14641SOL    HW245821  14.008  10.958  13.475
14642SOL     OW45822   0.812   1.220  13.203
14642SOL    HW145823   0.781   1.290  13.144
14642SOL    HW245824   0.751   1.224  13.277
14643SOL     OW45825   8.790  13.271  12.040
14643SOL    HW145826   8.712  13.218  12.026
14643SOL    HW245827   8.791  13.289  12.134
14644SOL     OW45828   2.198   8.520   4.416
14644SOL    HW145829   2.112   8.560   4.403
14644SOL    HW245830   2.254   8.561   4.350
14645SOL     OW45831  14.334   9.823  13.986
14645SOL    HW145832  14.387   9.764  13.932
14645SOL    HW245833  14.308   9.770  14.060
14646SOL     OW45834  10.347   3.044  10.008
14646SOL    HW145835  10.362   3.051  10.102
14646SOL    HW245836  10.304   3.127   9.985
14647SOL     OW45837   4.524   3.488  11.798
14647SOL    HW145838   4.530   3.430  11.723
14647SOL    HW245839   4.575   3.565  11.774
14648SOL     OW45840   7.458  14.283   8.923
14648SOL    HW145841   7.527  14.219   8.903
14648SOL    HW245842   7.504  14.354   8.968
14649SOL     OW45843  10.523   1.658   5.510
14649SOL    HW145844  10.433   1.654   5.544
14649SOL    HW245845  10.537   1.572   5.470
14650SOL     OW45846   7.633  10.731  11.738
14650SOL    HW145847   7.632  10.687  11.653
14650SOL    HW245848   7.672  10.816  11.721
14651SOL     OW45849   6.588  14.612   9.558
14651SOL    HW145850   6.626  14.566   9.483
14651SOL    HW245851   6.533  14.547   9.602
14652SOL     OW45852  11.179   5.929   2.370
14652SOL    HW145853  11.253   5.946   2.311
14652SOL    HW245854  11.113   5.994   2.345
14653SOL     OW45855   5.675   7.942  13.849
14653SOL    HW145856   5.731   8.007  13.891
14653SOL    HW245857   5.722   7.859  13.858
14654SOL     OW45858  13.660   2.595   4.371
14654SOL    HW145859  13.723   2.651   4.323
14654SOL    HW245860  13.715   2.543   4.429
14655SOL     OW45861  13.677  14.781   0.726
14655SOL    HW145862  13.697  14.854   0.785
14655SOL    HW245863  13.598  14.808   0.680
14656SOL     OW45864  10.803   1.727   0.989
14656SOL    HW145865  10.749   1.733   1.067
14656SOL    HW245866  10.892   1.713   1.022
14657SOL     OW45867   0.684  13.321   3.960
14657SOL    HW145868   0.592  13.296   3.965
14657SOL    HW245869   0.685  13.413   3.986
14658SOL     OW45870  13.234   4.291   6.127
14658SOL    HW145871  13.214   4.267   6.036
14658SOL    HW245872  13.205   4.382   6.135
14659SOL     OW45873  12.245   0.454  14.020
14659SOL    HW145874  12.199   0.536  14.040
14659SOL    HW245875  12.196   0.387  14.067
14660SOL     OW45876   0.692  14.379   2.767
14660SOL    HW145877   0.766  14.324   2.740
14660SOL    HW245878   0.688  14.448   2.700
14661SOL     OW45879   8.239   0.816   5.271
14661SOL    HW145880   8.177   0.822   5.199
14661SOL    HW245881   8.287   0.898   5.269
14662SOL     OW45882  10.522   3.437  12.101
14662SOL    HW145883  10.533   3.485  12.018
14662SOL    HW245884  10.496   3.349  12.075
14663SOL     OW45885   6.039   4.513  13.131
14663SOL    HW145886   5.969   4.576  13.115
14663SOL    HW245887   6.030   4.449  13.059
14664SOL     OW45888   2.806   2.727   9.199
14664SOL    HW145889   2.747   2.796   9.228
14664SOL    HW245890   2.820   2.673   9.276
14665SOL     OW45891   9.460  12.729  11.130
14665SOL    HW145892   9.509  12.791  11.076
14665SOL    HW245893   9.496  12.741  11.218
14666SOL     OW45894   7.831  12.013  13.576
14666SOL    HW145895   7.867  12.045  13.659
14666SOL    HW245896   7.779  11.937  13.601
14667SOL     OW45897  12.891   1.541   9.916
14667SOL    HW145898  12.814   1.499   9.878
14667SOL    HW245899  12.918   1.606   9.852
14668SOL     OW45900   1.932   4.145   0.001
14668SOL    HW145901   1.946   4.055   0.031
14668SOL    HW245902   1.953   4.199   0.078
14669SOL     OW45903   8.386  13.713   9.057
14669SOL    HW145904   8.405  13.623   9.028
14669SOL    HW245905   8.468  13.761   9.042
14670SOL     OW45906  10.092  13.791   0.982
14670SOL    HW145907  10.036  13.867   0.967
14670SOL    HW245908  10.056  13.723   0.925
14671SOL     OW45909   4.775   4.899   2.353
14671SOL    HW145910   4.820   4.815   2.341
14671SOL    HW245911   4.770   4.909   2.448
14672SOL     OW45912   6.985  12.268   2.363
14672SOL    HW145913   7.065  12.242   2.318
14672SOL    HW245914   6.978  12.362   2.347
14673SOL     OW45915  12.121  11.457  10.381
14673SOL    HW145916  12.144  11.380  10.433
14673SOL    HW245917  12.027  11.469  10.395
14674SOL     OW45918   7.697  12.308   5.800
14674SOL    HW145919   7.696  12.347   5.887
14674SOL    HW245920   7.649  12.369   5.745
14675SOL     OW45921   3.911   4.164   8.342
14675SOL    HW145922   3.882   4.228   8.407
14675SOL    HW245923   3.831   4.131   8.303
14676SOL     OW45924   1.294   9.780   2.120
14676SOL    HW145925   1.361   9.728   2.165
14676SOL    HW245926   1.330   9.795   2.033
14677SOL     OW45927   8.424   3.440   0.520
14677SOL    HW145928   8.361   3.427   0.448
14677SOL    HW245929   8.403   3.370   0.582
14678SOL     OW45930   0.203   7.296  14.773
14678SOL    HW145931   0.185   7.211  14.814
14678SOL    HW245932   0.289   7.321  14.807
14679SOL     OW45933   7.049   9.452  12.140
14679SOL    HW145934   7.056   9.439  12.235
14679SOL    HW245935   6.995   9.531  12.130
14680SOL     OW45936  13.749  10.880   3.988
14680SOL    HW145937  13.700  10.905   4.067
14680SOL    HW245938  13.750  10.785   3.989
14681SOL     OW45939   0.531   8.409   0.628
14681SOL    HW145940   0.531   8.398   0.533
14681SOL    HW245941   0.445   8.446   0.648
14682SOL     OW45942  10.408   2.638   6.389
14682SOL    HW145943  10.431   2.586   6.466
14682SOL    HW245944  10.332   2.592   6.352
14683SOL     OW45945   2.608   3.547  14.630
14683SOL    HW145946   2.566   3.575  14.549
14683SOL    HW245947   2.630   3.455  14.616
14684SOL     OW45948   8.230   6.502   2.271
14684SOL    HW145949   8.176   6.462   2.202
14684SOL    HW245950   8.177   6.493   2.351
14685SOL     OW45951  14.360  11.607   2.834
14685SOL    HW145952  14.445  11.574   2.864
14685SOL    HW245953  14.380  11.691   2.792
14686SOL     OW45954   9.372  10.973  10.365
14686SOL    HW145955   9.343  11.048  10.416
14686SOL    HW245956   9.341  10.896  10.413
14687SOL     OW45957   6.486   3.640   2.251
14687SOL    HW145958   6.576   3.649   2.221
14687SOL    HW245959   6.475   3.708   2.317
14688SOL     OW45960   5.077   6.451   9.730
14688SOL    HW145961   5.102   6.408   9.812
14688SOL    HW245962   4.987   6.481   9.746
14689SOL     OW45963   5.699   4.001   6.485
14689SOL    HW145964   5.705   4.087   6.442
14689SOL    HW245965   5.615   4.003   6.531
14690SOL     OW45966   8.760   1.301   0.794
14690SOL    HW145967   8.721   1.278   0.709
14690SOL    HW245968   8.748   1.396   0.800
14691SOL     OW45969  12.108   7.586  10.676
14691SOL    HW145970  12.149   7.629  10.601
14691SOL    HW245971  12.015   7.581  10.652
14692SOL     OW45972   8.793   8.311   6.004
14692SOL    HW145973   8.825   8.282   6.089
14692SOL    HW245974   8.712   8.358   6.023
14693SOL     OW45975  12.926  13.249  14.589
14693SOL    HW145976  12.910  13.233  14.682
14693SOL    HW245977  13.021  13.245  14.580
14694SOL     OW45978   9.877  10.077  11.482
14694SOL    HW145979   9.856  10.056  11.573
14694SOL    HW245980   9.808  10.138  11.455
14695SOL     OW45981  12.670  10.241   9.961
14695SOL    HW145982  12.734  10.178   9.929
14695SOL    HW245983  12.643  10.290   9.883
14696SOL     OW45984  11.058   4.286   8.875
14696SOL    HW145985  10.976   4.324   8.842
14696SOL    HW245986  11.063   4.200   8.833
14697SOL     OW45987  11.420   3.599   4.286
14697SOL    HW145988  11.327   3.607   4.310
14697SOL    HW245989  11.459   3.550   4.358
14698SOL     OW45990   7.658   7.195   7.936
14698SOL    HW145991   7.591   7.227   7.996
14698SOL    HW245992   7.650   7.251   7.859
14699SOL     OW45993  13.769   7.204   4.731
14699SOL    HW145994  13.823   7.236   4.803
14699SOL    HW245995  13.829   7.200   4.656
14700SOL     OW45996   5.793  11.694   7.210
14700SOL    HW145997   5.705  11.726   7.190
14700SOL    HW245998   5.785  11.598   7.204
14701SOL     OW45999  11.517   3.183   3.265
14701SOL    HW146000  11.568   3.103   3.281
14701SOL    HW246001  11.480   3.170   3.178
14702SOL     OW46002  12.709   5.488   3.917
14702SOL    HW146003  12.622   5.458   3.942
14702SOL    HW246004  12.693   5.566   3.863
14703SOL     OW46005   0.827   9.601  10.986
14703SOL    HW146006   0.898   9.659  10.959
14703SOL    HW246007   0.823   9.534  10.918
14704SOL     OW46008   4.797   7.915  12.939
14704SOL    HW146009   4.832   7.961  12.863
14704SOL    HW246010   4.765   7.832  12.904
14705SOL     OW46011   2.387   7.235  13.558
14705SOL    HW146012   2.380   7.190  13.474
14705SOL    HW246013   2.314   7.201  13.609
14706SOL     OW46014   7.394   2.589   4.876
14706SOL    HW146015   7.415   2.518   4.816
14706SOL    HW246016   7.349   2.654   4.822
14707SOL     OW46017   1.845  13.250   8.009
14707SOL    HW146018   1.772  13.272   8.067
14707SOL    HW246019   1.812  13.178   7.956
14708SOL     OW46020   6.088   0.083   3.113
14708SOL    HW146021   6.032   0.151   3.150
14708SOL    HW246022   6.177   0.108   3.138
14709SOL     OW46023   8.898   4.020  11.527
14709SOL    HW146024   8.936   4.092  11.476
14709SOL    HW246025   8.813   4.052  11.555
14710SOL     OW46026   2.876  13.673   8.659
14710SOL    HW146027   2.910  13.703   8.574
14710SOL    HW246028   2.928  13.596   8.679
14711SOL     OW46029   7.076   9.060   8.995
14711SOL    HW146030   7.005   9.105   8.949
14711SOL    HW246031   7.052   8.967   8.992
14712SOL     OW46032   1.780  11.376   8.127
14712SOL    HW146033   1.698  11.423   8.140
14712SOL    HW246034   1.831  11.431   8.067
14713SOL     OW46035   3.589   5.142   0.679
14713SOL    HW146036   3.670   5.164   0.725
14713SOL    HW246037   3.598   5.182   0.593
14714SOL     OW46038   6.852   2.117   0.413
14714SOL    HW146039   6.853   2.046   0.477
14714SOL    HW246040   6.848   2.073   0.328
14715SOL     OW46041   3.788   9.030  13.491
14715SOL    HW146042   3.845   8.974  13.543
14715SOL    HW246043   3.781   9.111  13.541
14716SOL     OW46044  10.744   8.354   3.559
14716SOL    HW146045  10.772   8.320   3.644
14716SOL    HW246046  10.648   8.347   3.561
14717SOL     OW46047  11.224   4.315   1.511
14717SOL    HW146048  11.296   4.368   1.476
14717SOL    HW246049  11.184   4.369   1.579
14718SOL     OW46050   2.406   0.738  14.860
14718SOL    HW146051   2.500   0.754  14.867
14718SOL    HW246052   2.376   0.735   0.079
14719SOL     OW46053   9.120   9.585  13.956
14719SOL    HW146054   9.067   9.611  13.880
14719SOL    HW246055   9.203   9.631  13.944
14720SOL     OW46056  12.866   4.724   9.043
14720SOL    HW146057  12.940   4.689   9.093
14720SOL    HW246058  12.905   4.751   8.960
14721SOL     OW46059   3.922   8.343   5.356
14721SOL    HW146060   3.842   8.291   5.359
14721SOL    HW246061   3.958   8.336   5.444
14722SOL     OW46062   4.326   2.208   9.440
14722SOL    HW146063   4.365   2.125   9.465
14722SOL    HW246064   4.370   2.231   9.358
14723SOL     OW46065  12.838   1.781  10.844
14723SOL    HW146066  12.883   1.814  10.766
14723SOL    HW246067  12.896   1.804  10.917
14724SOL     OW46068  14.807   9.002   3.053
14724SOL    HW146069  14.779   8.969   2.967
14724SOL    HW246070   0.021   8.963   3.066
14725SOL     OW46071   5.698   5.541  12.950
14725SOL    HW146072   5.792   5.534  12.940
14725SOL    HW246073   5.665   5.555  12.861
14726SOL     OW46074  10.620   9.820  12.069
14726SOL    HW146075  10.669   9.850  11.993
14726SOL    HW246076  10.617   9.896  12.127
14727SOL     OW46077  10.595  13.243   7.918
14727SOL    HW146078  10.566  13.181   7.851
14727SOL    HW246079  10.585  13.195   8.000
14728SOL     OW46080   0.252   8.321   6.709
14728SOL    HW146081   0.291   8.293   6.627
14728SOL    HW246082   0.240   8.241   6.759
14729SOL     OW46083   7.639   4.073   2.093
14729SOL    HW146084   7.707   4.027   2.141
14729SOL    HW246085   7.558   4.056   2.142
14730SOL     OW46086   8.512   6.980  13.219
14730SOL    HW146087   8.480   7.058  13.174
14730SOL    HW246088   8.606   6.978  13.199
14731SOL     OW46089   5.778   5.825  12.316
14731SOL    HW146090   5.845   5.762  12.341
14731SOL    HW246091   5.709   5.815  12.381
14732SOL     OW46092   1.225   6.349   3.041
14732SOL    HW146093   1.145   6.306   3.011
14732SOL    HW246094   1.295   6.310   2.989
14733SOL     OW46095   2.624  10.574   2.619
14733SOL    HW146096   2.691  10.513   2.651
14733SOL    HW246097   2.548  10.518   2.601
14734SOL     OW46098  13.097  13.352   6.321
14734SOL    HW146099  13.010  13.322   6.296
14734SOL    HW246100  13.108  13.322   6.412
14735SOL     OW46101   9.742  11.003   2.166
14735SOL    HW146102   9.810  11.066   2.142
14735SOL    HW246103   9.771  10.920   2.129
14736SOL     OW46104  13.233  14.473   6.492
14736SOL    HW146105  13.139  14.455   6.501
14736SOL    HW246106  13.273  14.430   6.567
14737SOL     OW46107   7.849  11.608   6.082
14737SOL    HW146108   7.827  11.647   6.167
14737SOL    HW246109   7.895  11.527   6.104
14738SOL     OW46110   2.013   4.815   8.257
14738SOL    HW146111   1.932   4.847   8.218
14738SOL    HW246112   2.014   4.852   8.345
14739SOL     OW46113   0.165  10.160  13.075
14739SOL    HW146114   0.084  10.141  13.027
14739SOL    HW246115   0.218  10.081  13.063
14740SOL     OW46116  13.986   4.340  10.883
14740SOL    HW146117  14.043   4.417  10.889
14740SOL    HW246118  14.046   4.266  10.890
14741SOL     OW46119  10.890   0.640   9.827
14741SOL    HW146120  10.872   0.683   9.910
14741SOL    HW246121  10.985   0.629   9.825
14742SOL     OW46122  13.922   6.835   4.556
14742SOL    HW146123  13.933   6.885   4.637
14742SOL    HW246124  13.960   6.891   4.489
14743SOL     OW46125   8.957  10.638  14.565
14743SOL    HW146126   9.005  10.705  14.614
14743SOL    HW246127   9.005  10.629  14.483
14744SOL     OW46128  11.402   6.586   0.760
14744SOL    HW146129  11.439   6.499   0.743
14744SOL    HW246130  11.319   6.586   0.712
14745SOL     OW46131   8.988   2.558   6.840
14745SOL    HW146132   8.995   2.492   6.909
14745SOL    HW246133   9.020   2.639   6.880
14746SOL     OW46134  10.948   8.539   7.125
14746SOL    HW146135  10.927   8.598   7.197
14746SOL    HW246136  10.913   8.454   7.153
14747SOL     OW46137   5.149   5.045   8.428
14747SOL    HW146138   5.224   5.104   8.432
14747SOL    HW246139   5.080   5.089   8.478
14748SOL     OW46140   8.922  10.039   1.927
14748SOL    HW146141   8.863  10.101   1.969
14748SOL    HW246142   8.882   9.953   1.942
14749SOL     OW46143   1.969   7.141   7.953
14749SOL    HW146144   1.881   7.108   7.972
14749SOL    HW246145   1.955   7.232   7.925
14750SOL     OW46146  14.120  11.701   7.416
14750SOL    HW146147  14.188  11.753   7.374
14750SOL    HW246148  14.071  11.663   7.344
14751SOL     OW46149   5.500  10.583  10.835
14751SOL    HW146150   5.455  10.667  10.845
14751SOL    HW246151   5.501  10.568  10.740
14752SOL     OW46152   7.231   8.745  11.800
14752SOL    HW146153   7.298   8.765  11.865
14752SOL    HW246154   7.159   8.805  11.821
14753SOL     OW46155  12.677   4.629   1.413
14753SOL    HW146156  12.719   4.658   1.332
14753SOL    HW246157  12.598   4.682   1.421
14754SOL     OW46158   4.416  11.851   4.639
14754SOL    HW146159   4.339  11.801   4.667
14754SOL    HW246160   4.484  11.784   4.627
14755SOL     OW46161   5.986  13.752  13.972
14755SOL    HW146162   6.019  13.842  13.963
14755SOL    HW246163   5.906  13.762  14.024
14756SOL     OW46164   0.376   5.496   8.831
14756SOL    HW146165   0.415   5.582   8.816
14756SOL    HW246166   0.309   5.511   8.898
14757SOL     OW46167  12.652   1.162   9.698
14757SOL    HW146168  12.575   1.106   9.704
14757SOL    HW246169  12.658   1.184   9.605
14758SOL     OW46170  12.822  13.467   8.535
14758SOL    HW146171  12.765  13.401   8.495
14758SOL    HW246172  12.809  13.546   8.482
14759SOL     OW46173   2.182   6.985   9.618
14759SOL    HW146174   2.116   7.014   9.555
14759SOL    HW246175   2.138   6.916   9.667
14760SOL     OW46176   5.312   2.930  13.344
14760SOL    HW146177   5.359   2.985  13.281
14760SOL    HW246178   5.356   2.845  13.340
14761SOL     OW46179   5.188   1.785  11.799
14761SOL    HW146180   5.133   1.717  11.761
14761SOL    HW246181   5.206   1.845  11.727
14762SOL     OW46182  11.994   3.122   5.772
14762SOL    HW146183  11.960   3.211   5.764
14762SOL    HW246184  12.055   3.126   5.846
14763SOL     OW46185   6.532  10.819   5.563
14763SOL    HW146186   6.550  10.892   5.623
14763SOL    HW246187   6.437  10.812   5.562
14764SOL     OW46188   8.403  14.320   0.127
14764SOL    HW146189   8.322  14.348   0.169
14764SOL    HW246190   8.461  14.298   0.199
14765SOL     OW46191  12.044   5.515  12.436
14765SOL    HW146192  12.014   5.602  12.465
14765SOL    HW246193  11.975   5.484  12.378
14766SOL     OW46194   3.180   0.621   9.860
14766SOL    HW146195   3.197   0.532   9.890
14766SOL    HW246196   3.128   0.661   9.930
14767SOL     OW46197   6.485   8.919   7.288
14767SOL    HW146198   6.433   8.919   7.368
14767SOL    HW246199   6.514   8.829   7.278
14768SOL     OW46200   0.808  14.073   9.721
14768SOL    HW146201   0.728  14.075   9.774
14768SOL    HW246202   0.874  14.118   9.774
14769SOL     OW46203   1.064   2.995   4.606
14769SOL    HW146204   1.002   3.053   4.562
14769SOL    HW246205   1.124   2.967   4.537
14770SOL     OW46206   3.742   8.139  14.413
14770SOL    HW146207   3.822   8.182  14.385
14770SOL    HW246208   3.677   8.210  14.419
14771SOL     OW46209  10.889  11.187   6.800
14771SOL    HW146210  10.869  11.096   6.821
14771SOL    HW246211  10.804  11.226   6.778
14772SOL     OW46212   3.081   9.675  11.344
14772SOL    HW146213   3.122   9.661  11.259
14772SOL    HW246214   2.987   9.674  11.326
14773SOL     OW46215   3.320  13.736   2.400
14773SOL    HW146216   3.269  13.767   2.325
14773SOL    HW246217   3.392  13.685   2.361
14774SOL     OW46218  10.812  13.756   4.695
14774SOL    HW146219  10.833  13.815   4.768
14774SOL    HW246220  10.755  13.690   4.734
14775SOL     OW46221   4.016   9.636  14.002
14775SOL    HW146222   4.048   9.699  13.937
14775SOL    HW246223   3.955   9.686  14.056
14776SOL     OW46224   0.010   4.172   2.530
14776SOL    HW146225   0.024   4.217   2.446
14776SOL    HW246226   0.089   4.189   2.580
14777SOL     OW46227   3.944  12.590  10.765
14777SOL    HW146228   3.991  12.633  10.836
14777SOL    HW246229   3.958  12.496  10.779
14778SOL     OW46230   4.808   1.205   7.863
14778SOL    HW146231   4.884   1.247   7.822
14778SOL    HW246232   4.778   1.268   7.929
14779SOL     OW46233  12.978  14.233   0.127
14779SOL    HW146234  12.987  14.315   0.175
14779SOL    HW246235  12.920  14.254   0.054
14780SOL     OW46236   1.534   8.217   4.988
14780SOL    HW146237   1.456   8.169   4.963
14780SOL    HW246238   1.504   8.280   5.053
14781SOL     OW46239   0.344   7.437   4.711
14781SOL    HW146240   0.283   7.474   4.775
14781SOL    HW246241   0.429   7.475   4.734
14782SOL     OW46242   9.452  11.020   2.705
14782SOL    HW146243   9.545  11.002   2.712
14782SOL    HW246244   9.444  11.073   2.626
14783SOL     OW46245   2.949   5.741  11.149
14783SOL    HW146246   3.006   5.818  11.143
14783SOL    HW246247   2.883   5.766  11.214
14784SOL     OW46248   8.983   7.954   6.529
14784SOL    HW146249   8.930   7.882   6.495
14784SOL    HW246250   8.973   7.948   6.624
14785SOL     OW46251   9.408  11.574  12.319
14785SOL    HW146252   9.424  11.640  12.386
14785SOL    HW246253   9.331  11.607  12.272
14786SOL     OW46254   2.202   2.024   4.355
14786SOL    HW146255   2.161   2.093   4.407
14786SOL    HW246256   2.159   2.028   4.270
14787SOL     OW46257   6.821   2.401   2.762
14787SOL    HW146258   6.727   2.398   2.780
14787SOL    HW246259   6.827   2.416   2.668
14788SOL     OW46260   5.338   6.625  12.612
14788SOL    HW146261   5.419   6.628  12.663
14788SOL    HW246262   5.332   6.713  12.573
14789SOL     OW46263   7.026  14.079   2.626
14789SOL    HW146264   6.975  14.144   2.675
14789SOL    HW246265   7.107  14.070   2.676
14790SOL     OW46266   7.667   9.436  12.638
14790SOL    HW146267   7.697   9.351  12.668
14790SOL    HW246268   7.656   9.426  12.543
14791SOL     OW46269  12.633   0.705   4.776
14791SOL    HW146270  12.617   0.661   4.692
14791SOL    HW246271  12.719   0.672   4.803
14792SOL     OW46272   0.287  13.614   8.734
14792SOL    HW146273   0.316  13.623   8.825
14792SOL    HW246274   0.369  13.600   8.685
14793SOL     OW46275  14.479   6.914   6.049
14793SOL    HW146276  14.411   6.930   6.114
14793SOL    HW246277  14.519   6.831   6.075
14794SOL     OW46278   2.680  11.048   6.518
14794SOL    HW146279   2.726  10.987   6.460
14794SOL    HW246280   2.696  11.014   6.606
14795SOL     OW46281   4.619  13.268  12.172
14795SOL    HW146282   4.581  13.186  12.139
14795SOL    HW246283   4.656  13.245  12.257
14796SOL     OW46284   4.346   4.026  13.924
14796SOL    HW146285   4.380   3.958  13.866
14796SOL    HW246286   4.314   4.094  13.865
14797SOL     OW46287  13.484   4.636  10.335
14797SOL    HW146288  13.507   4.615  10.426
14797SOL    HW246289  13.435   4.718  10.342
14798SOL     OW46290   9.413  14.039   5.018
14798SOL    HW146291   9.457  14.099   5.078
14798SOL    HW246292   9.405  14.088   4.937
14799SOL     OW46293   6.537  10.927   6.315
14799SOL    HW146294   6.467  10.922   6.379
14799SOL    HW246295   6.617  10.939   6.368
14800SOL     OW46296   0.554  12.881   3.467
14800SOL    HW146297   0.486  12.820   3.440
14800SOL    HW246298   0.560  12.871   3.562
14801SOL     OW46299   0.432   1.814   5.892
14801SOL    HW146300   0.389   1.794   5.809
14801SOL    HW246301   0.495   1.743   5.905
14802SOL     OW46302   3.607   4.754  13.835
14802SOL    HW146303   3.531   4.755  13.893
14802SOL    HW246304   3.572   4.784  13.751
14803SOL     OW46305  13.573   2.631  12.487
14803SOL    HW146306  13.652   2.684  12.476
14803SOL    HW246307  13.513   2.688  12.535
14804SOL     OW46308   1.207   9.202   7.678
14804SOL    HW146309   1.289   9.251   7.690
14804SOL    HW246310   1.138   9.264   7.703
14805SOL     OW46311   7.815  12.651   2.872
14805SOL    HW146312   7.789  12.590   2.941
14805SOL    HW246313   7.890  12.698   2.909
14806SOL     OW46314   3.035   2.036   1.082
14806SOL    HW146315   3.028   2.090   1.161
14806SOL    HW246316   3.004   2.092   1.012
14807SOL     OW46317  13.058  11.312   5.986
14807SOL    HW146318  13.053  11.331   6.080
14807SOL    HW246319  13.075  11.397   5.945
14808SOL     OW46320   6.669  10.796   3.736
14808SOL    HW146321   6.634  10.716   3.775
14808SOL    HW246322   6.764  10.786   3.740
14809SOL     OW46323   9.122   4.509   4.573
14809SOL    HW146324   9.188   4.543   4.512
14809SOL    HW246325   9.041   4.552   4.546
14810SOL     OW46326   2.818   2.422  12.646
14810SOL    HW146327   2.843   2.509  12.616
14810SOL    HW246328   2.809   2.370  12.566
14811SOL     OW46329  14.706   3.704   2.568
14811SOL    HW146330  14.790   3.685   2.526
14811SOL    HW246331  14.649   3.732   2.496
14812SOL     OW46332  10.277   5.257   9.749
14812SOL    HW146333  10.287   5.345   9.712
14812SOL    HW246334  10.266   5.200   9.673
14813SOL     OW46335  13.677   7.099  11.630
14813SOL    HW146336  13.751   7.052  11.670
14813SOL    HW246337  13.655   7.047  11.553
14814SOL     OW46338   4.323   0.909  10.679
14814SOL    HW146339   4.323   0.891  10.585
14814SOL    HW246340   4.250   0.858  10.714
14815SOL     OW46341   0.829  11.932   5.919
14815SOL    HW146342   0.750  11.986   5.919
14815SOL    HW246343   0.894  11.985   5.875
14816SOL     OW46344  11.726  11.419   2.540
14816SOL    HW146345  11.648  11.414   2.595
14816SOL    HW246346  11.796  11.382   2.594
14817SOL     OW46347   7.433  10.799  14.106
14817SOL    HW146348   7.388  10.747  14.039
14817SOL    HW246349   7.486  10.736  14.154
14818SOL     OW46350   1.265   8.658   1.614
14818SOL    HW146351   1.308   8.689   1.534
14818SOL    HW246352   1.174   8.642   1.587
14819SOL     OW46353   4.260   6.732  10.684
14819SOL    HW146354   4.183   6.725  10.627
14819SOL    HW246355   4.305   6.649  10.673
14820SOL     OW46356  10.141   4.677  11.247
14820SOL    HW146357  10.122   4.616  11.317
14820SOL    HW246358  10.075   4.746  11.256
14821SOL     OW46359   9.164   2.981   4.199
14821SOL    HW146360   9.242   3.010   4.150
14821SOL    HW246361   9.174   2.886   4.206
14822SOL     OW46362  12.789   4.399   0.414
14822SOL    HW146363  12.698   4.390   0.388
14822SOL    HW246364  12.787   4.403   0.510
14823SOL     OW46365   9.998  11.743   2.099
14823SOL    HW146366   9.933  11.676   2.076
14823SOL    HW246367   9.953  11.799   2.162
14824SOL     OW46368  11.264   0.006   0.650
14824SOL    HW146369  11.300  14.790   0.660
14824SOL    HW246370  11.269   0.044   0.737
14825SOL     OW46371   7.463   2.394   1.787
14825SOL    HW146372   7.550   2.432   1.800
14825SOL    HW246373   7.404   2.469   1.782
14826SOL     OW46374   1.098   3.114   7.842
14826SOL    HW146375   1.063   3.129   7.929
14826SOL    HW246376   1.172   3.054   7.856
14827SOL     OW46377   2.386   4.372   7.494
14827SOL    HW146378   2.479   4.356   7.478
14827SOL    HW246379   2.376   4.362   7.589
14828SOL     OW46380  10.148   0.145   6.188
14828SOL    HW146381  10.168   0.086   6.261
14828SOL    HW246382  10.164   0.233   6.224
14829SOL     OW46383   0.568   2.959   1.752
14829SOL    HW146384   0.485   3.007   1.751
14829SOL    HW246385   0.589   2.944   1.660
14830SOL     OW46386   2.635  11.461   9.909
14830SOL    HW146387   2.722  11.451   9.947
14830SOL    HW246388   2.581  11.397   9.956
14831SOL     OW46389   4.209   5.575  10.842
14831SOL    HW146390   4.187   5.665  10.817
14831SOL    HW246391   4.187   5.523  10.765
14832SOL     OW46392  13.435   9.883  11.468
14832SOL    HW146393  13.439   9.881  11.564
14832SOL    HW246394  13.419   9.974  11.447
14833SOL     OW46395  12.539  12.044  10.751
14833SOL    HW146396  12.475  12.096  10.702
14833SOL    HW246397  12.486  11.996  10.816
14834SOL     OW46398  13.676   7.397   4.980
14834SOL    HW146399  13.712   7.407   5.068
14834SOL    HW246400  13.737   7.444   4.923
14835SOL     OW46401   4.091   8.561  14.527
14835SOL    HW146402   4.092   8.620  14.451
14835SOL    HW246403   4.001   8.565  14.559
14836SOL     OW46404   8.013  10.089   5.990
14836SOL    HW146405   7.993  10.039   6.069
14836SOL    HW246406   7.930  10.127   5.964
14837SOL     OW46407   3.665   5.958  10.598
14837SOL    HW146408   3.681   6.052  10.584
14837SOL    HW246409   3.624   5.929  10.516
14838SOL     OW46410   2.175   5.188   9.024
14838SOL    HW146411   2.243   5.242   9.064
14838SOL    HW246412   2.095   5.238   9.036
14839SOL     OW46413   9.805  10.556  11.877
14839SOL    HW146414   9.851  10.472  11.882
14839SOL    HW246415   9.723  10.541  11.925
14840SOL     OW46416  14.439   0.844   0.465
14840SOL    HW146417  14.475   0.932   0.456
14840SOL    HW246418  14.494   0.802   0.531
14841SOL     OW46419  13.418   6.752  10.565
14841SOL    HW146420  13.387   6.757  10.656
14841SOL    HW246421  13.505   6.712  10.571
14842SOL     OW46422  10.910   7.689  13.543
14842SOL    HW146423  10.954   7.625  13.599
14842SOL    HW246424  10.980   7.743  13.507
14843SOL     OW46425  10.045  12.899   6.110
14843SOL    HW146426  10.116  12.869   6.053
14843SOL    HW246427  10.026  12.825   6.167
14844SOL     OW46428  10.948   1.891  14.589
14844SOL    HW146429  10.902   1.925  14.512
14844SOL    HW246430  11.029   1.854  14.554
14845SOL     OW46431   6.737   6.880  13.724
14845SOL    HW146432   6.792   6.900  13.648
14845SOL    HW246433   6.746   6.957  13.781
14846SOL     OW46434   3.736   0.411  13.926
14846SOL    HW146435   3.755   0.417  13.833
14846SOL    HW246436   3.790   0.479  13.966
14847SOL     OW46437   6.717   0.637  14.458
14847SOL    HW146438   6.676   0.719  14.432
14847SOL    HW246439   6.754   0.655  14.544
14848SOL     OW46440   9.101   6.824  10.572
14848SOL    HW146441   9.170   6.758  10.572
14848SOL    HW246442   9.138   6.898  10.621
14849SOL     OW46443   5.210  10.472   7.500
14849SOL    HW146444   5.288  10.520   7.527
14849SOL    HW246445   5.244  10.397   7.451
14850SOL     OW46446   3.174  13.305   2.359
14850SOL    HW146447   3.129  13.389   2.370
14850SOL    HW246448   3.106  13.245   2.329
14851SOL     OW46449   2.553   1.111  10.823
14851SOL    HW146450   2.465   1.146  10.814
14851SOL    HW246451   2.592   1.160  10.896
14852SOL     OW46452   1.609   0.641  14.648
14852SOL    HW146453   1.572   0.564  14.692
14852SOL    HW246454   1.677   0.672  14.707
14853SOL     OW46455  13.764   1.638   8.498
14853SOL    HW146456  13.772   1.652   8.404
14853SOL    HW246457  13.823   1.564   8.516
14854SOL     OW46458   6.822  11.871   3.509
14854SOL    HW146459   6.893  11.891   3.570
14854SOL    HW246460   6.743  11.874   3.563
14855SOL     OW46461   9.353  12.721   4.249
14855SOL    HW146462   9.342  12.750   4.340
14855SOL    HW246463   9.435  12.761   4.222
14856SOL     OW46464   0.744   0.807   5.621
14856SOL    HW146465   0.826   0.758   5.622
14856SOL    HW246466   0.771   0.899   5.619
14857SOL     OW46467   9.749   3.169   7.838
14857SOL    HW146468   9.674   3.185   7.895
14857SOL    HW246469   9.714   3.120   7.764
14858SOL     OW46470  10.916   2.739   8.265
14858SOL    HW146471  10.970   2.665   8.291
14858SOL    HW246472  10.828   2.703   8.256
14859SOL     OW46473  12.966   7.744  12.188
14859SOL    HW146474  12.938   7.768  12.100
14859SOL    HW246475  12.965   7.648  12.188
14860SOL     OW46476   2.632   0.483   4.499
14860SOL    HW146477   2.558   0.544   4.501
14860SOL    HW246478   2.692   0.517   4.565
14861SOL     OW46479  10.133   5.401   4.987
14861SOL    HW146480  10.195   5.334   5.016
14861SOL    HW246481  10.102   5.369   4.903
14862SOL     OW46482  12.144  14.769   5.139
14862SOL    HW146483  12.106  14.684   5.116
14862SOL    HW246484  12.195  14.752   5.218
14863SOL     OW46485  12.676  13.712  10.117
14863SOL    HW146486  12.734  13.776  10.159
14863SOL    HW246487  12.588  13.745  10.134
14864SOL     OW46488   2.256   7.666   2.625
14864SOL    HW146489   2.221   7.629   2.706
14864SOL    HW246490   2.270   7.759   2.644
14865SOL     OW46491  14.050   6.388  13.701
14865SOL    HW146492  13.983   6.456  13.700
14865SOL    HW246493  14.034   6.337  13.621
14866SOL     OW46494   0.613  10.002  12.791
14866SOL    HW146495   0.583  10.055  12.717
14866SOL    HW246496   0.634  10.067  12.859
14867SOL     OW46497   1.917   7.990   7.419
14867SOL    HW146498   1.838   8.025   7.459
14867SOL    HW246499   1.982   7.989   7.490
14868SOL     OW46500  12.669   4.422  11.927
14868SOL    HW146501  12.726   4.485  11.972
14868SOL    HW246502  12.662   4.348  11.988
14869SOL     OW46503   9.713   7.748  14.531
14869SOL    HW146504   9.779   7.796  14.481
14869SOL    HW246505   9.755   7.664  14.551
14870SOL     OW46506  12.258   4.277   5.432
14870SOL    HW146507  12.208   4.311   5.506
14870SOL    HW246508  12.192   4.246   5.370
14871SOL     OW46509  10.363   0.611   4.992
14871SOL    HW146510  10.418   0.663   4.934
14871SOL    HW246511  10.424   0.550   5.034
14872SOL     OW46512  13.266   7.697   8.603
14872SOL    HW146513  13.307   7.784   8.603
14872SOL    HW246514  13.337   7.637   8.625
14873SOL     OW46515  14.389   5.381   6.503
14873SOL    HW146516  14.312   5.405   6.556
14873SOL    HW246517  14.457   5.361   6.567
14874SOL     OW46518   4.399   2.725  12.188
14874SOL    HW146519   4.419   2.818  12.187
14874SOL    HW246520   4.480   2.682  12.163
14875SOL     OW46521  13.661  10.677   1.347
14875SOL    HW146522  13.569  10.676   1.324
14875SOL    HW246523  13.705  10.716   1.271
14876SOL     OW46524   1.586   5.558  11.748
14876SOL    HW146525   1.663   5.526  11.795
14876SOL    HW246526   1.511   5.527  11.799
14877SOL     OW46527   0.365  13.306  10.999
14877SOL    HW146528   0.298  13.252  10.958
14877SOL    HW246529   0.316  13.374  11.045
14878SOL     OW46530   2.676   2.335   8.478
14878SOL    HW146531   2.767   2.305   8.478
14878SOL    HW246532   2.664   2.373   8.565
14879SOL     OW46533   9.396  12.914   5.594
14879SOL    HW146534   9.425  12.996   5.633
14879SOL    HW246535   9.328  12.881   5.653
14880SOL     OW46536  14.287   8.499  10.021
14880SOL    HW146537  14.378   8.528  10.034
14880SOL    HW246538  14.259   8.544   9.942
14881SOL     OW46539   9.071  12.607   9.645
14881SOL    HW146540   9.150  12.622   9.594
14881SOL    HW246541   9.036  12.694   9.664
14882SOL     OW46542   5.197   6.691  10.821
14882SOL    HW146543   5.278   6.645  10.803
14882SOL    HW246544   5.199   6.708  10.915
14883SOL     OW46545   1.853  13.718   7.215
14883SOL    HW146546   1.948  13.726   7.228
14883SOL    HW246547   1.824  13.807   7.193
14884SOL     OW46548  12.621  13.857   5.362
14884SOL    HW146549  12.528  13.838   5.351
14884SOL    HW246550  12.664  13.772   5.348
14885SOL     OW46551  12.567   5.506   1.566
14885SOL    HW146552  12.590   5.537   1.479
14885SOL    HW246553  12.640   5.532   1.622
14886SOL     OW46554   9.392   7.465   8.217
14886SOL    HW146555   9.308   7.421   8.200
14886SOL    HW246556   9.456   7.412   8.169
14887SOL     OW46557   2.930   1.951  13.387
14887SOL    HW146558   2.924   1.962  13.292
14887SOL    HW246559   2.938   2.040  13.421
14888SOL     OW46560  14.488   9.736   2.835
14888SOL    HW146561  14.457   9.774   2.753
14888SOL    HW246562  14.409   9.720   2.886
14889SOL     OW46563  12.945   0.632   4.829
14889SOL    HW146564  12.898   0.636   4.913
14889SOL    HW246565  13.026   0.585   4.849
14890SOL     OW46566  13.222  14.656   2.587
14890SOL    HW146567  13.177  14.730   2.547
14890SOL    HW246568  13.276  14.620   2.516
14891SOL     OW46569  11.181  13.092   9.050
14891SOL    HW146570  11.264  13.109   9.094
14891SOL    HW246571  11.150  13.010   9.087
14892SOL     OW46572   1.303  11.061  13.138
14892SOL    HW146573   1.231  11.009  13.173
14892SOL    HW246574   1.265  11.147  13.121
14893SOL     OW46575   9.539  12.473  11.210
14893SOL    HW146576   9.497  12.553  11.179
14893SOL    HW246577   9.605  12.503  11.273
14894SOL     OW46578   5.845   5.520  10.178
14894SOL    HW146579   5.799   5.440  10.153
14894SOL    HW246580   5.798   5.552  10.255
14895SOL     OW46581   2.186   7.866  13.868
14895SOL    HW146582   2.235   7.823  13.797
14895SOL    HW246583   2.095   7.845  13.850
14896SOL     OW46584   1.525  11.857   4.735
14896SOL    HW146585   1.491  11.944   4.754
14896SOL    HW246586   1.447  11.802   4.724
14897SOL     OW46587  13.709   2.904  14.724
14897SOL    HW146588  13.746   2.826  14.764
14897SOL    HW246589  13.769   2.975  14.747
14898SOL     OW46590   5.827   2.026  13.673
14898SOL    HW146591   5.733   2.032  13.655
14898SOL    HW246592   5.862   1.977  13.599
14899SOL     OW46593   4.082  11.321  12.553
14899SOL    HW146594   4.040  11.395  12.597
14899SOL    HW246595   4.082  11.346  12.460
14900SOL     OW46596  10.297   1.043  10.817
14900SOL    HW146597  10.215   1.035  10.769
14900SOL    HW246598  10.330   0.953  10.823
14901SOL     OW46599   2.832   0.669   0.599
14901SOL    HW146600   2.871   0.753   0.577
14901SOL    HW246601   2.876   0.643   0.681
14902SOL     OW46602   4.239  10.864   8.155
14902SOL    HW146603   4.243  10.960   8.162
14902SOL    HW246604   4.147  10.842   8.169
14903SOL     OW46605  13.405   9.888   3.749
14903SOL    HW146606  13.489   9.851   3.776
14903SOL    HW246607  13.429   9.960   3.690
14904SOL     OW46608  12.684   1.717   3.235
14904SOL    HW146609  12.589   1.729   3.235
14904SOL    HW246610  12.698   1.638   3.287
14905SOL     OW46611   2.928  10.118  14.700
14905SOL    HW146612   2.909  10.188  14.638
14905SOL    HW246613   2.898  10.152  14.784
14906SOL     OW46614  12.764  12.926  14.117
14906SOL    HW146615  12.761  12.978  14.197
14906SOL    HW246616  12.679  12.881  14.114
14907SOL     OW46617   5.244   4.770   3.904
14907SOL    HW146618   5.215   4.813   3.984
14907SOL    HW246619   5.275   4.842   3.848
14908SOL     OW46620   5.771   6.010  11.365
14908SOL    HW146621   5.691   6.040  11.322
14908SOL    HW246622   5.787   5.923  11.328
14909SOL     OW46623   7.075   1.465  11.205
14909SOL    HW146624   7.112   1.490  11.290
14909SOL    HW246625   7.019   1.539  11.182
14910SOL     OW46626  11.716   3.136   2.887
14910SOL    HW146627  11.647   3.076   2.856
14910SOL    HW246628  11.741   3.100   2.972
14911SOL     OW46629   6.594  10.255   7.715
14911SOL    HW146630   6.636  10.307   7.784
14911SOL    HW246631   6.583  10.168   7.754
14912SOL     OW46632   3.156  10.988   5.608
14912SOL    HW146633   3.248  10.977   5.634
14912SOL    HW246634   3.110  11.004   5.690
14913SOL     OW46635   8.747  10.918   7.414
14913SOL    HW146636   8.823  10.894   7.361
14913SOL    HW246637   8.759  11.011   7.433
14914SOL     OW46638  13.740   8.729  14.429
14914SOL    HW146639  13.726   8.816  14.392
14914SOL    HW246640  13.666   8.677  14.398
14915SOL     OW46641  10.193   3.907  13.593
14915SOL    HW146642  10.212   3.903  13.687
14915SOL    HW246643  10.232   3.827  13.558
14916SOL     OW46644  11.545   2.849   0.993
14916SOL    HW146645  11.639   2.861   1.001
14916SOL    HW246646  11.529   2.759   1.022
14917SOL     OW46647  12.228   6.667   4.772
14917SOL    HW146648  12.305   6.687   4.719
14917SOL    HW246649  12.262   6.610   4.841
14918SOL     OW46650   3.299  11.736   6.709
14918SOL    HW146651   3.311  11.693   6.794
14918SOL    HW246652   3.358  11.690   6.650
14919SOL     OW46653   4.300   4.420   9.394
14919SOL    HW146654   4.292   4.462   9.480
14919SOL    HW246655   4.384   4.374   9.398
14920SOL     OW46656  12.089  13.229   4.330
14920SOL    HW146657  12.040  13.285   4.390
14920SOL    HW246658  12.061  13.256   4.243
14921SOL     OW46659   6.596   2.631  14.861
14921SOL    HW146660   6.658   2.665  14.796
14921SOL    HW246661   6.510   2.661  14.830
14922SOL     OW46662   0.170   0.385  10.913
14922SOL    HW146663   0.265   0.372  10.908
14922SOL    HW246664   0.138   0.311  10.964
14923SOL     OW46665   9.222   9.813  10.905
14923SOL    HW146666   9.266   9.811  10.820
14923SOL    HW246667   9.285   9.773  10.965
14924SOL     OW46668  12.465   9.343   1.251
14924SOL    HW146669  12.400   9.330   1.320
14924SOL    HW246670  12.544   9.373   1.297
14925SOL     OW46671  10.942   8.114  10.569
14925SOL    HW146672  10.848   8.096  10.572
14925SOL    HW246673  10.949   8.198  10.523
14926SOL     OW46674   4.775   4.779   4.382
14926SOL    HW146675   4.721   4.737   4.315
14926SOL    HW246676   4.853   4.808   4.334
14927SOL     OW46677   2.800   9.120   0.272
14927SOL    HW146678   2.747   9.045   0.245
14927SOL    HW246679   2.841   9.092   0.353
14928SOL     OW46680   4.427   4.738   2.899
14928SOL    HW146681   4.500   4.799   2.892
14928SOL    HW246682   4.379   4.767   2.977
14929SOL     OW46683  10.626   6.660   0.957
14929SOL    HW146684  10.671   6.576   0.964
14929SOL    HW246685  10.646   6.691   0.869
14930SOL     OW46686   9.062   7.490  12.064
14930SOL    HW146687   8.969   7.511  12.071
14930SOL    HW246688   9.106   7.574  12.061
14931SOL     OW46689   0.420   1.425   9.376
14931SOL    HW146690   0.386   1.457   9.292
14931SOL    HW246691   0.510   1.456   9.378
14932SOL     OW46692   7.505   4.439   5.515
14932SOL    HW146693   7.424   4.483   5.488
14932SOL    HW246694   7.523   4.476   5.602
14933SOL     OW46695   2.372  14.028  11.532
14933SOL    HW146696   2.408  13.952  11.486
14933SOL    HW246697   2.330  13.991  11.610
14934SOL     OW46698   5.912   6.566  10.227
14934SOL    HW146699   5.971   6.555  10.152
14934SOL    HW246700   5.955   6.629  10.283
14935SOL     OW46701  12.135  11.098   2.975
14935SOL    HW146702  12.214  11.078   3.025
14935SOL    HW246703  12.070  11.036   3.009
14936SOL     OW46704   5.070  11.102   5.338
14936SOL    HW146705   5.156  11.076   5.305
14936SOL    HW246706   5.020  11.021   5.343
14937SOL     OW46707   1.244  11.096  10.012
14937SOL    HW146708   1.331  11.115   9.979
14937SOL    HW246709   1.207  11.033   9.950
14938SOL     OW46710   7.166   5.373   7.310
14938SOL    HW146711   7.244   5.400   7.261
14938SOL    HW246712   7.187   5.285   7.342
14939SOL     OW46713   4.998  13.813  14.619
14939SOL    HW146714   5.064  13.803  14.689
14939SOL    HW246715   5.039  13.772  14.543
14940SOL     OW46716  11.531   7.863   8.506
14940SOL    HW146717  11.594   7.920   8.551
14940SOL    HW246718  11.543   7.778   8.547
14941SOL     OW46719   9.703   8.680   9.452
14941SOL    HW146720   9.666   8.762   9.485
14941SOL    HW246721   9.687   8.683   9.357
14942SOL     OW46722   5.352   4.944  13.937
14942SOL    HW146723   5.377   4.893  13.860
14942SOL    HW246724   5.303   5.018  13.903
14943SOL     OW46725  13.692   2.589   7.200
14943SOL    HW146726  13.624   2.569   7.263
14943SOL    HW246727  13.675   2.530   7.126
14944SOL     OW46728  13.132   0.765   6.785
14944SOL    HW146729  13.123   0.859   6.767
14944SOL    HW246730  13.046   0.728   6.763
14945SOL     OW46731  13.505   4.900  10.946
14945SOL    HW146732  13.501   4.996  10.949
14945SOL    HW246733  13.587   4.878  10.990
14946SOL     OW46734   6.518  13.163   9.724
14946SOL    HW146735   6.431  13.126   9.707
14946SOL    HW246736   6.579  13.097   9.692
14947SOL     OW46737   7.801   3.321   9.832
14947SOL    HW146738   7.762   3.408   9.819
14947SOL    HW246739   7.754   3.264   9.772
14948SOL     OW46740  11.084   3.503  14.571
14948SOL    HW146741  11.127   3.455  14.642
14948SOL    HW246742  10.991   3.489  14.586
14949SOL     OW46743  14.708   7.140   0.917
14949SOL    HW146744  14.642   7.073   0.902
14949SOL    HW246745  14.723   7.179   0.831
14950SOL     OW46746   4.691   5.013   5.632
14950SOL    HW146747   4.600   4.993   5.612
14950SOL    HW246748   4.706   4.975   5.718
14951SOL     OW46749  13.230  10.918   5.004
14951SOL    HW146750  13.264  10.966   4.929
14951SOL    HW246751  13.135  10.923   4.995
14952SOL     OW46752   5.672  14.217   2.626
14952SOL    HW146753   5.600  14.278   2.643
14952SOL    HW246754   5.635  14.152   2.566
14953SOL     OW46755   2.829   9.802   3.696
14953SOL    HW146756   2.824   9.707   3.692
14953SOL    HW246757   2.894   9.820   3.764
14954SOL     OW46758   7.243   5.226   2.023
14954SOL    HW146759   7.190   5.264   1.952
14954SOL    HW246760   7.307   5.294   2.043
14955SOL     OW46761   1.512   7.835  14.128
14955SOL    HW146762   1.439   7.828  14.067
14955SOL    HW246763   1.480   7.896  14.196
14956SOL     OW46764  14.102   6.061   6.016
14956SOL    HW146765  14.135   6.071   5.927
14956SOL    HW246766  14.121   5.970   6.038
14957SOL     OW46767   7.036  14.591  13.411
14957SOL    HW146768   6.977  14.664  13.397
14957SOL    HW246769   6.980  14.513  13.406
14958SOL     OW46770  10.428   6.007   4.360
14958SOL    HW146771  10.452   5.967   4.443
14958SOL    HW246772  10.434   6.101   4.375
14959SOL     OW46773  14.233  10.130   5.194
14959SOL    HW146774  14.139  10.149   5.195
14959SOL    HW246775  14.263  10.157   5.281
14960SOL     OW46776   3.918   1.957   3.754
14960SOL    HW146777   3.976   1.919   3.821
14960SOL    HW246778   3.968   2.030   3.719
14961SOL     OW46779   2.813  13.764   1.901
14961SOL    HW146780   2.892  13.726   1.862
14961SOL    HW246781   2.741  13.722   1.855
14962SOL     OW46782   5.838   6.367   5.611
14962SOL    HW146783   5.889   6.400   5.537
14962SOL    HW246784   5.903   6.333   5.672
14963SOL     OW46785  10.031  12.278   5.258
14963SOL    HW146786   9.999  12.333   5.186
14963SOL    HW246787  10.006  12.326   5.337
14964SOL     OW46788   4.081   4.054   4.557
14964SOL    HW146789   4.142   3.986   4.530
14964SOL    HW246790   4.121   4.094   4.634
14965SOL     OW46791   9.304   0.896  14.107
14965SOL    HW146792   9.376   0.890  14.170
14965SOL    HW246793   9.341   0.942  14.032
14966SOL     OW46794   8.576   2.952   7.697
14966SOL    HW146795   8.499   2.902   7.674
14966SOL    HW246796   8.624   2.896   7.758
14967SOL     OW46797   1.678   7.643  13.892
14967SOL    HW146798   1.585   7.669  13.894
14967SOL    HW246799   1.677   7.553  13.861
14968SOL     OW46800   0.079  11.819   9.430
14968SOL    HW146801   0.010  11.880   9.404
14968SOL    HW246802   0.049  11.783   9.514
14969SOL     OW46803  12.426  13.598   6.241
14969SOL    HW146804  12.521  13.608   6.236
14969SOL    HW246805  12.407  13.524   6.183
14970SOL     OW46806   3.657   4.286  11.793
14970SOL    HW146807   3.639   4.333  11.874
14970SOL    HW246808   3.577   4.294  11.742
14971SOL     OW46809   6.010   2.128   9.118
14971SOL    HW146810   5.998   2.099   9.027
14971SOL    HW246811   5.952   2.203   9.127
14972SOL     OW46812   2.740   4.757   8.707
14972SOL    HW146813   2.835   4.748   8.699
14972SOL    HW246814   2.713   4.803   8.628
14973SOL     OW46815   0.638   3.088   3.354
14973SOL    HW146816   0.674   3.124   3.273
14973SOL    HW246817   0.558   3.139   3.369
14974SOL     OW46818  11.146  10.128  13.013
14974SOL    HW146819  11.205  10.121  13.088
14974SOL    HW246820  11.189  10.079  12.943
14975SOL     OW46821   9.760  13.180   7.649
14975SOL    HW146822   9.760  13.116   7.719
14975SOL    HW246823   9.760  13.128   7.569
14976SOL     OW46824  12.522  13.613   2.607
14976SOL    HW146825  12.550  13.551   2.674
14976SOL    HW246826  12.563  13.581   2.526
14977SOL     OW46827  14.850   4.287  10.355
14977SOL    HW146828   0.049   4.330  10.403
14977SOL    HW246829  14.834   4.345  10.280
14978SOL     OW46830  11.435  12.515  14.626
14978SOL    HW146831  11.485  12.489  14.703
14978SOL    HW246832  11.346  12.485  14.644
14979SOL     OW46833   0.297  13.164   0.160
14979SOL    HW146834   0.242  13.098   0.202
14979SOL    HW246835   0.296  13.141   0.068
14980SOL     OW46836   7.775   1.136   8.384
14980SOL    HW146837   7.851   1.124   8.327
14980SOL    HW246838   7.738   1.220   8.358
14981SOL     OW46839   2.270   5.343   4.644
14981SOL    HW146840   2.185   5.306   4.621
14981SOL    HW246841   2.279   5.420   4.588
14982SOL     OW46842  14.300   6.259  13.801
14982SOL    HW146843  14.359   6.280  13.728
14982SOL    HW246844  14.224   6.316  13.787
14983SOL     OW46845   6.129   9.495   4.129
14983SOL    HW146846   6.127   9.523   4.038
14983SOL    HW246847   6.090   9.407   4.128
14984SOL     OW46848   0.578   0.149   8.557
14984SOL    HW146849   0.502   0.178   8.507
14984SOL    HW246850   0.650   0.148   8.494
14985SOL     OW46851  12.151  12.486   6.944
14985SOL    HW146852  12.156  12.571   6.988
14985SOL    HW246853  12.240  12.453   6.945
14986SOL     OW46854   6.459   4.696  14.112
14986SOL    HW146855   6.469   4.749  14.192
14986SOL    HW246856   6.458   4.606  14.143
14987SOL     OW46857   1.860  12.508  12.260
14987SOL    HW146858   1.850  12.553  12.344
14987SOL    HW246859   1.860  12.578  12.195
14988SOL     OW46860   3.081  12.213   2.629
14988SOL    HW146861   3.034  12.133   2.652
14988SOL    HW246862   3.119  12.195   2.543
14989SOL     OW46863  14.713  12.918   8.080
14989SOL    HW146864  14.706  12.861   8.003
14989SOL    HW246865  14.719  13.006   8.043
14990SOL     OW46866   1.422   7.778  14.545
14990SOL    HW146867   1.445   7.822  14.627
14990SOL    HW246868   1.331   7.749  14.559
14991SOL     OW46869   2.385   2.214   7.530
14991SOL    HW146870   2.460   2.166   7.567
14991SOL    HW246871   2.414   2.305   7.527
14992SOL     OW46872   8.052   5.894  10.680
14992SOL    HW146873   8.040   5.939  10.596
14992SOL    HW246874   8.146   5.886  10.690
14993SOL     OW46875   7.072  12.099  11.335
14993SOL    HW146876   7.137  12.057  11.280
14993SOL    HW246877   7.017  12.149  11.274
14994SOL     OW46878  13.260   8.995  12.125
14994SOL    HW146879  13.284   8.925  12.064
14994SOL    HW246880  13.339   9.009  12.177
14995SOL     OW46881  10.886  12.510   8.174
14995SOL    HW146882  10.800  12.476   8.153
14995SOL    HW246883  10.869  12.583   8.233
14996SOL     OW46884  13.192   2.884   8.725
14996SOL    HW146885  13.218   2.861   8.814
14996SOL    HW246886  13.233   2.817   8.670
14997SOL     OW46887   4.725  12.144  12.732
14997SOL    HW146888   4.753  12.053  12.734
14997SOL    HW246889   4.689  12.160  12.819
14998SOL     OW46890  12.856   0.854  14.835
14998SOL    HW146891  12.776   0.826   0.007
14998SOL    HW246892  12.852   0.950  14.836
14999SOL     OW46893   9.876   2.969  11.497
14999SOL    HW146894   9.919   2.948  11.580
14999SOL    HW246895   9.863   3.064  11.499
15000SOL     OW46896   1.950  11.853   8.141
15000SOL    HW146897   1.899  11.883   8.216
15000SOL    HW246898   2.037  11.836   8.176
15001SOL     OW46899   8.924   3.576   8.180
15001SOL    HW146900   8.877   3.493   8.190
15001SOL    HW246901   8.985   3.561   8.108
15002SOL     OW46902  14.184   9.046  10.952
15002SOL    HW146903  14.238   8.970  10.973
15002SOL    HW246904  14.245   9.109  10.915
15003SOL     OW46905   1.531  13.788  10.149
15003SOL    HW146906   1.537  13.827  10.062
15003SOL    HW246907   1.535  13.693  10.133
15004SOL     OW46908   1.982  13.519  10.551
15004SOL    HW146909   2.076  13.520  10.532
15004SOL    HW246910   1.966  13.431  10.586
15005SOL     OW46911  14.409  13.876   2.565
15005SOL    HW146912  14.431  13.844   2.653
15005SOL    HW246913  14.474  13.944   2.547
15006SOL     OW46914  11.756   4.327   0.449
15006SOL    HW146915  11.683   4.272   0.421
15006SOL    HW246916  11.720   4.382   0.519
15007SOL     OW46917   7.556   5.152   5.690
15007SOL    HW146918   7.596   5.078   5.643
15007SOL    HW246919   7.622   5.221   5.685
15008SOL     OW46920   2.350  14.700  14.445
15008SOL    HW146921   2.364  14.610  14.475
15008SOL    HW246922   2.290  14.691  14.371
15009SOL     OW46923  11.718   6.955   0.351
15009SOL    HW146924  11.676   6.943   0.266
15009SOL    HW246925  11.704   6.871   0.396
15010SOL     OW46926   6.588   2.509  12.246
15010SOL    HW146927   6.643   2.436  12.218
15010SOL    HW246928   6.647   2.585  12.247
15011SOL     OW46929   6.472  11.259   1.210
15011SOL    HW146930   6.474  11.354   1.199
15011SOL    HW246931   6.379  11.238   1.223
15012SOL     OW46932  10.662  10.952   8.442
15012SOL    HW146933  10.726  10.911   8.384
15012SOL    HW246934  10.707  11.028   8.478
15013SOL     OW46935   1.264   0.188   5.712
15013SOL    HW146936   1.341   0.148   5.672
15013SOL    HW246937   1.230   0.120   5.771
15014SOL     OW46938  14.354   6.757  11.852
15014SOL    HW146939  14.323   6.763  11.942
15014SOL    HW246940  14.406   6.676  11.850
15015SOL     OW46941   4.171   8.368  12.121
15015SOL    HW146942   4.175   8.420  12.201
15015SOL    HW246943   4.253   8.389  12.075
15016SOL     OW46944   4.149  14.062  12.489
15016SOL    HW146945   4.200  14.095  12.562
15016SOL    HW246946   4.134  13.970  12.509
15017SOL     OW46947   6.273   0.784  12.819
15017SOL    HW146948   6.229   0.737  12.748
15017SOL    HW246949   6.263   0.728  12.896
15018SOL     OW46950   9.536  11.597  14.187
15018SOL    HW146951   9.478  11.593  14.111
15018SOL    HW246952   9.476  11.602  14.262
15019SOL     OW46953   3.324   9.469   2.990
15019SOL    HW146954   3.380   9.473   2.912
15019SOL    HW246955   3.360   9.536   3.048
15020SOL     OW46956  11.723   6.743   2.197
15020SOL    HW146957  11.684   6.756   2.284
15020SOL    HW246958  11.692   6.818   2.146
15021SOL     OW46959   8.751   9.738  14.287
15021SOL    HW146960   8.706   9.653  14.297
15021SOL    HW246961   8.720   9.790  14.361
15022SOL     OW46962   0.641   1.034   4.235
15022SOL    HW146963   0.667   0.947   4.205
15022SOL    HW246964   0.619   1.021   4.328
15023SOL     OW46965   0.629  13.754   1.858
15023SOL    HW146966   0.572  13.685   1.892
15023SOL    HW246967   0.717  13.730   1.889
15024SOL     OW46968   7.857   4.207   4.178
15024SOL    HW146969   7.888   4.118   4.160
15024SOL    HW246970   7.762   4.202   4.171
15025SOL     OW46971   4.533   9.489   0.215
15025SOL    HW146972   4.544   9.401   0.177
15025SOL    HW246973   4.439   9.503   0.215
15026SOL     OW46974   6.959  14.371   1.000
15026SOL    HW146975   7.010  14.333   1.071
15026SOL    HW246976   6.886  14.416   1.045
15027SOL     OW46977   2.571   7.273   2.647
15027SOL    HW146978   2.484   7.290   2.683
15027SOL    HW246979   2.578   7.335   2.574
15028SOL     OW46980   1.175  10.555  14.267
15028SOL    HW146981   1.084  10.583  14.256
15028SOL    HW246982   1.223  10.605  14.201
15029SOL     OW46983   8.767   0.753   6.440
15029SOL    HW146984   8.817   0.672   6.453
15029SOL    HW246985   8.800   0.813   6.507
15030SOL     OW46986   0.505   7.328   1.164
15030SOL    HW146987   0.459   7.361   1.087
15030SOL    HW246988   0.517   7.235   1.147
15031SOL     OW46989   0.160   5.500  12.866
15031SOL    HW146990   0.138   5.577  12.813
15031SOL    HW246991   0.126   5.521  12.953
15032SOL     OW46992   0.383   4.315  13.832
15032SOL    HW146993   0.443   4.318  13.907
15032SOL    HW246994   0.441   4.314  13.756
15033SOL     OW46995  13.432  10.078  13.474
15033SOL    HW146996  13.500  10.071  13.542
15033SOL    HW246997  13.369  10.140  13.510
15034SOL     OW46998  14.422  12.951  14.244
15034SOL    HW146999  14.342  13.000  14.261
15034SOL    HW247000  14.493  13.014  14.259
15035SOL     OW47001  14.292  10.081   2.631
15035SOL    HW147002  14.309   9.988   2.642
15035SOL    HW247003  14.236  10.086   2.553
15036SOL     OW47004   0.196   6.897   1.044
15036SOL    HW147005   0.170   6.910   0.953
15036SOL    HW247006   0.116   6.913   1.095
15037SOL     OW47007  12.005   0.344   6.100
15037SOL    HW147008  11.994   0.269   6.042
15037SOL    HW247009  12.045   0.411   6.046
15038SOL     OW47010   4.715   2.046   6.736
15038SOL    HW147011   4.762   1.989   6.675
15038SOL    HW247012   4.771   2.048   6.814
15039SOL     OW47013  14.571  10.161  13.202
15039SOL    HW147014  14.477  10.167  13.222
15039SOL    HW247015  14.611  10.228  13.257
15040SOL     OW47016  14.002  11.604   0.992
15040SOL    HW147017  13.927  11.546   1.005
15040SOL    HW247018  14.078  11.549   1.010
15041SOL     OW47019  14.356  10.175   9.421
15041SOL    HW147020  14.394  10.209   9.502
15041SOL    HW247021  14.405  10.220   9.352
15042SOL     OW47022   6.934  12.762   5.089
15042SOL    HW147023   6.921  12.856   5.101
15042SOL    HW247024   6.858  12.733   5.040
15043SOL     OW47025   0.785   6.908   7.723
15043SOL    HW147026   0.732   6.960   7.663
15043SOL    HW247027   0.850   6.969   7.758
15044SOL     OW47028  11.471   7.751   2.725
15044SOL    HW147029  11.378   7.751   2.745
15044SOL    HW247030  11.491   7.659   2.709
15045SOL     OW47031   1.848   0.196   0.953
15045SOL    HW147032   1.813   0.268   1.007
15045SOL    HW247033   1.846   0.120   1.010
15046SOL     OW47034  13.890  12.668   8.789
15046SOL    HW147035  13.973  12.623   8.805
15046SOL    HW247036  13.886  12.736   8.857
15047SOL     OW47037  14.031   5.221  12.092
15047SOL    HW147038  13.960   5.230  12.028
15047SOL    HW247039  14.110   5.243  12.043
15048SOL     OW47040   8.915   5.542  14.044
15048SOL    HW147041   8.908   5.472  14.109
15048SOL    HW247042   8.920   5.498  13.960
15049SOL     OW47043   0.637   0.642   3.970
15049SOL    HW147044   0.596   0.674   3.890
15049SOL    HW247045   0.648   0.548   3.956
15050SOL     OW47046   3.814   8.435   1.355
15050SOL    HW147047   3.830   8.364   1.418
15050SOL    HW247048   3.721   8.453   1.362
15051SOL     OW47049   2.751   4.062  12.055
15051SOL    HW147050   2.846   4.049  12.051
15051SOL    HW247051   2.716   3.977  12.082
15052SOL     OW47052   8.168   9.422  10.093
15052SOL    HW147053   8.196   9.508  10.124
15052SOL    HW247054   8.234   9.361  10.128
15053SOL     OW47055   1.910   2.989   8.927
15053SOL    HW147056   1.931   3.039   8.848
15053SOL    HW247057   1.853   2.919   8.897
15054SOL     OW47058  11.723   1.384   3.688
15054SOL    HW147059  11.779   1.307   3.677
15054SOL    HW247060  11.720   1.424   3.601
15055SOL     OW47061   0.666   8.556   6.960
15055SOL    HW147062   0.627   8.507   7.033
15055SOL    HW247063   0.669   8.646   6.991
15056SOL     OW47064   0.459  13.719   3.845
15056SOL    HW147065   0.487  13.797   3.893
15056SOL    HW247066   0.516  13.649   3.877
15057SOL     OW47067  13.463  14.225   2.587
15057SOL    HW147068  13.492  14.305   2.631
15057SOL    HW247069  13.510  14.154   2.631
15058SOL     OW47070   9.766   9.751   1.525
15058SOL    HW147071   9.862   9.755   1.516
15058SOL    HW247072   9.751   9.761   1.619
15059SOL     OW47073  14.377   2.144   6.551
15059SOL    HW147074  14.377   2.205   6.625
15059SOL    HW247075  14.285   2.119   6.540
15060SOL     OW47076   5.122   9.473   0.715
15060SOL    HW147077   5.080   9.390   0.739
15060SOL    HW247078   5.051   9.528   0.684
15061SOL     OW47079  10.870   0.893   6.042
15061SOL    HW147080  10.813   0.826   6.006
15061SOL    HW247081  10.948   0.892   5.986
15062SOL     OW47082   3.993  12.194   6.903
15062SOL    HW147083   3.968  12.161   6.990
15062SOL    HW247084   4.087  12.177   6.898
15063SOL     OW47085   9.437   0.718   7.939
15063SOL    HW147086   9.466   0.781   7.873
15063SOL    HW247087   9.505   0.650   7.940
15064SOL     OW47088  13.397   6.276   9.872
15064SOL    HW147089  13.356   6.355   9.836
15064SOL    HW247090  13.326   6.228   9.913
15065SOL     OW47091   6.801  10.293  10.171
15065SOL    HW147092   6.879  10.243  10.193
15065SOL    HW247093   6.805  10.303  10.076
15066SOL     OW47094  10.324   4.489   9.509
15066SOL    HW147095  10.337   4.573   9.465
15066SOL    HW247096  10.257   4.445   9.458
15067SOL     OW47097   7.539   8.942  11.919
15067SOL    HW147098   7.556   8.902  11.834
15067SOL    HW247099   7.476   9.012  11.900
15068SOL     OW47100  13.802  13.465   0.875
15068SOL    HW147101  13.765  13.378   0.861
15068SOL    HW247102  13.801  13.506   0.789
15069SOL     OW47103   8.151   0.060  12.336
15069SOL    HW147104   8.164   0.042  12.243
15069SOL    HW247105   8.090  14.864  12.365
15070SOL     OW47106  14.610   5.237   8.680
15070SOL    HW147107  14.574   5.325   8.692
15070SOL    HW247108  14.616   5.202   8.769
15071SOL     OW47109   4.392  10.817   8.993
15071SOL    HW147110   4.352  10.750   8.938
15071SOL    HW247111   4.473  10.778   9.024
15072SOL     OW47112  10.284   4.030  10.729
15072SOL    HW147113  10.371   4.050  10.695
15072SOL    HW247114  10.298   4.002  10.819
15073SOL     OW47115   1.299  13.513  14.361
15073SOL    HW147116   1.259  13.594  14.393
15073SOL    HW247117   1.366  13.543  14.299
15074SOL     OW47118   3.014  14.573   6.045
15074SOL    HW147119   2.955  14.511   6.086
15074SOL    HW247120   3.081  14.590   6.110
15075SOL     OW47121   9.609  14.689   8.428
15075SOL    HW147122   9.628  14.758   8.491
15075SOL    HW247123   9.613  14.607   8.478
15076SOL     OW47124   1.325   4.821   6.417
15076SOL    HW147125   1.277   4.813   6.499
15076SOL    HW247126   1.332   4.915   6.401
15077SOL     OW47127  11.798   8.335   6.093
15077SOL    HW147128  11.879   8.283   6.087
15077SOL    HW247129  11.825   8.416   6.135
15078SOL     OW47130   6.464   4.634   1.153
15078SOL    HW147131   6.457   4.562   1.090
15078SOL    HW247132   6.534   4.608   1.212
15079SOL     OW47133   2.240   4.007   3.871
15079SOL    HW147134   2.150   3.974   3.877
15079SOL    HW247135   2.235   4.079   3.807
15080SOL     OW47136  13.923   5.371   7.441
15080SOL    HW147137  13.949   5.444   7.497
15080SOL    HW247138  13.986   5.372   7.369
15081SOL     OW47139   5.033   5.253   6.903
15081SOL    HW147140   5.093   5.187   6.869
15081SOL    HW247141   4.979   5.278   6.829
15082SOL     OW47142   8.050  14.719   2.013
15082SOL    HW147143   8.035  14.786   2.081
15082SOL    HW247144   8.135  14.742   1.976
15083SOL     OW47145   9.423   5.460  10.823
15083SOL    HW147146   9.518   5.468  10.832
15083SOL    HW247147   9.406   5.480  10.732
15084SOL     OW47148   2.991   3.723  13.984
15084SOL    HW147149   3.073   3.703  14.029
15084SOL    HW247150   2.931   3.751  14.053
15085SOL     OW47151  14.156  11.607  10.579
15085SOL    HW147152  14.103  11.528  10.589
15085SOL    HW247153  14.212  11.609  10.657
15086SOL     OW47154  11.310   0.725   4.048
15086SOL    HW147155  11.230   0.777   4.050
15086SOL    HW247156  11.328   0.706   4.140
15087SOL     OW47157   5.042   3.732   0.636
15087SOL    HW147158   4.995   3.802   0.680
15087SOL    HW247159   5.032   3.750   0.543
15088SOL     OW47160  13.299   2.230   3.309
15088SOL    HW147161  13.324   2.225   3.401
15088SOL    HW247162  13.242   2.307   3.304
15089SOL     OW47163  14.249  13.046  10.391
15089SOL    HW147164  14.184  13.029  10.458
15089SOL    HW247165  14.221  13.129  10.351
15090SOL     OW47166   8.088   9.947   2.298
15090SOL    HW147167   8.086   9.983   2.209
15090SOL    HW247168   8.091   9.852   2.286
15091SOL     OW47169  10.537   5.516  14.154
15091SOL    HW147170  10.568   5.426  14.145
15091SOL    HW247171  10.549   5.554  14.067
15092SOL     OW47172  12.699   7.303   0.387
15092SOL    HW147173  12.733   7.220   0.422
15092SOL    HW247174  12.756   7.321   0.312
15093SOL     OW47175   8.413   8.040  11.788
15093SOL    HW147176   8.391   7.965  11.732
15093SOL    HW247177   8.346   8.038  11.857
15094SOL     OW47178  14.042   9.680   0.247
15094SOL    HW147179  14.020   9.669   0.154
15094SOL    HW247180  14.099   9.605   0.267
15095SOL     OW47181   1.523   2.615  14.017
15095SOL    HW147182   1.464   2.608  14.092
15095SOL    HW247183   1.556   2.705  14.021
15096SOL     OW47184  14.675   1.754   8.643
15096SOL    HW147185  14.687   1.849   8.632
15096SOL    HW247186  14.734   1.730   8.714
15097SOL     OW47187   5.137   9.966   8.641
15097SOL    HW147188   5.222  10.003   8.664
15097SOL    HW247189   5.138   9.961   8.545
15098SOL     OW47190   6.526   6.132   9.855
15098SOL    HW147191   6.591   6.116   9.787
15098SOL    HW247192   6.443   6.142   9.807
15099SOL     OW47193   9.774  10.980   9.654
15099SOL    HW147194   9.765  11.052   9.591
15099SOL    HW247195   9.719  10.910   9.619
15100SOL     OW47196   8.971   5.569   4.810
15100SOL    HW147197   8.900   5.623   4.844
15100SOL    HW247198   9.049   5.601   4.856
15101SOL     OW47199   3.986  10.787   0.004
15101SOL    HW147200   4.035  10.852   0.055
15101SOL    HW247201   4.043  10.710   0.003
15102SOL     OW47202   6.665   9.869   3.360
15102SOL    HW147203   6.612   9.878   3.439
15102SOL    HW247204   6.626   9.796   3.312
15103SOL     OW47205  11.747   2.901   9.411
15103SOL    HW147206  11.749   2.808   9.436
15103SOL    HW247207  11.745   2.900   9.316
15104SOL     OW47208  14.015   5.612   7.521
15104SOL    HW147209  13.959   5.655   7.456
15104SOL    HW247210  13.999   5.660   7.602
15105SOL     OW47211   1.726   9.246   3.993
15105SOL    HW147212   1.773   9.165   4.008
15105SOL    HW247213   1.793   9.308   3.966
15106SOL     OW47214  13.211  10.896  12.733
15106SOL    HW147215  13.268  10.864  12.802
15106SOL    HW247216  13.270  10.934  12.668
15107SOL     OW47217   6.212   7.749  11.205
15107SOL    HW147218   6.249   7.727  11.120
15107SOL    HW247219   6.128   7.703  11.208
15108SOL     OW47220   2.030   5.836  14.027
15108SOL    HW147221   2.061   5.859  14.114
15108SOL    HW247222   2.080   5.756  14.005
15109SOL     OW47223   8.571   7.278   0.795
15109SOL    HW147224   8.557   7.311   0.883
15109SOL    HW247225   8.665   7.259   0.791
15110SOL     OW47226   3.867   3.826   9.068
15110SOL    HW147227   3.903   3.749   9.024
15110SOL    HW247228   3.909   3.900   9.025
15111SOL     OW47229   0.741   9.563   7.498
15111SOL    HW147230   0.800   9.638   7.509
15111SOL    HW247231   0.733   9.526   7.586
15112SOL     OW47232   8.896   9.803   8.096
15112SOL    HW147233   8.831   9.836   8.035
15112SOL    HW247234   8.877   9.709   8.103
15113SOL     OW47235   4.991   2.305  14.591
15113SOL    HW147236   5.034   2.387  14.569
15113SOL    HW247237   5.012   2.290  14.683
15114SOL     OW47238  14.036   4.334  11.430
15114SOL    HW147239  14.080   4.261  11.387
15114SOL    HW247240  14.041   4.406  11.368
15115SOL     OW47241  12.803   1.872  11.451
15115SOL    HW147242  12.811   1.922  11.533
15115SOL    HW247243  12.730   1.914  11.405
15116SOL     OW47244   3.739  13.017   1.519
15116SOL    HW147245   3.715  13.109   1.524
15116SOL    HW247246   3.777  12.997   1.605
15117SOL     OW47247  11.305   3.242   2.147
15117SOL    HW147248  11.305   3.250   2.242
15117SOL    HW247249  11.383   3.190   2.127
15118SOL     OW47250  14.549  12.583  11.644
15118SOL    HW147251  14.561  12.677  11.634
15118SOL    HW247252  14.592  12.545  11.567
15119SOL     OW47253   0.904  11.627  12.339
15119SOL    HW147254   0.830  11.573  12.312
15119SOL    HW247255   0.981  11.574  12.318
15120SOL     OW47256   6.482   4.510   3.925
15120SOL    HW147257   6.540   4.434   3.919
15120SOL    HW247258   6.408   4.486   3.869
15121SOL     OW47259   0.922   8.777   8.496
15121SOL    HW147260   0.891   8.699   8.451
15121SOL    HW247261   0.964   8.745   8.576
15122SOL     OW47262   2.681   9.896   4.731
15122SOL    HW147263   2.589   9.870   4.730
15122SOL    HW247264   2.682   9.980   4.684
15123SOL     OW47265   1.497   1.401   8.974
15123SOL    HW147266   1.446   1.372   9.050
15123SOL    HW247267   1.525   1.320   8.931
15124SOL     OW47268   0.740  13.101  11.779
15124SOL    HW147269   0.685  13.178  11.762
15124SOL    HW247270   0.829  13.130  11.760
15125SOL     OW47271   7.737   1.514   2.854
15125SOL    HW147272   7.685   1.576   2.904
15125SOL    HW247273   7.675   1.448   2.824
15126SOL     OW47274   8.048  12.897  12.977
15126SOL    HW147275   8.019  12.812  13.010
15126SOL    HW247276   8.023  12.896  12.885
15127SOL     OW47277   8.432   5.159   3.201
15127SOL    HW147278   8.413   5.205   3.282
15127SOL    HW247279   8.526   5.173   3.187
15128SOL     OW47280   0.810   6.561  11.199
15128SOL    HW147281   0.808   6.574  11.104
15128SOL    HW247282   0.902   6.572  11.223
15129SOL     OW47283  10.493  14.437   9.485
15129SOL    HW147284  10.583  14.434   9.451
15129SOL    HW247285  10.484  14.525   9.521
15130SOL     OW47286   6.781   1.352   7.926
15130SOL    HW147287   6.741   1.375   8.010
15130SOL    HW247288   6.873   1.336   7.947
15131SOL     OW47289   1.299   4.199  13.966
15131SOL    HW147290   1.285   4.162  13.879
15131SOL    HW247291   1.212   4.229  13.994
15132SOL     OW47292  13.324  10.447   7.566
15132SOL    HW147293  13.319  10.369   7.621
15132SOL    HW247294  13.383  10.506   7.613
15133SOL     OW47295  12.266   8.164  10.424
15133SOL    HW147296  12.243   8.083  10.470
15133SOL    HW247297  12.278   8.137  10.333
15134SOL     OW47298  10.141   6.003  14.389
15134SOL    HW147299  10.188   6.042  14.316
15134SOL    HW247300  10.183   6.039  14.467
15135SOL     OW47301   4.196   1.404  12.130
15135SOL    HW147302   4.105   1.377  12.117
15135SOL    HW247303   4.212   1.466  12.058
15136SOL     OW47304   0.978  14.248  11.013
15136SOL    HW147305   0.989  14.186  10.941
15136SOL    HW247306   0.912  14.310  10.982
15137SOL     OW47307   6.372  13.546   5.200
15137SOL    HW147308   6.312  13.618   5.181
15137SOL    HW247309   6.392  13.556   5.293
15138SOL     OW47310   9.874   6.868   0.223
15138SOL    HW147311   9.949   6.841   0.277
15138SOL    HW247312   9.806   6.805   0.244
15139SOL     OW47313   3.583  13.442  12.824
15139SOL    HW147314   3.525  13.422  12.898
15139SOL    HW247315   3.525  13.481  12.758
15140SOL     OW47316   9.708   5.542   5.857
15140SOL    HW147317   9.706   5.621   5.912
15140SOL    HW247318   9.651   5.563   5.783
15141SOL     OW47319  12.496   5.649   9.813
15141SOL    HW147320  12.569   5.596   9.845
15141SOL    HW247321  12.432   5.647   9.884
15142SOL     OW47322   0.721   3.624  12.249
15142SOL    HW147323   0.634   3.621  12.211
15142SOL    HW247324   0.775   3.667  12.183
15143SOL     OW47325   5.898   4.115   9.975
15143SOL    HW147326   5.819   4.068   9.949
15143SOL    HW247327   5.866   4.193  10.020
15144SOL     OW47328  13.017   5.909   3.615
15144SOL    HW147329  13.112   5.899   3.623
15144SOL    HW247330  12.981   5.849   3.679
15145SOL     OW47331   3.847   5.185   7.740
15145SOL    HW147332   3.896   5.163   7.661
15145SOL    HW247333   3.892   5.262   7.776
15146SOL     OW47334   9.478   3.540   9.037
15146SOL    HW147335   9.431   3.579   8.963
15146SOL    HW247336   9.428   3.462   9.059
15147SOL     OW47337  11.145   3.614   4.775
15147SOL    HW147338  11.178   3.659   4.852
15147SOL    HW247339  11.187   3.658   4.701
15148SOL     OW47340  13.692   7.691  10.465
15148SOL    HW147341  13.739   7.665  10.386
15148SOL    HW247342  13.632   7.759  10.436
15149SOL     OW47343  11.032  10.552   2.054
15149SOL    HW147344  10.955  10.519   2.101
15149SOL    HW247345  11.088  10.475   2.042
15150SOL     OW47346   2.967   5.561  12.769
15150SOL    HW147347   3.053   5.600  12.752
15150SOL    HW247348   2.961   5.488  12.707
15151SOL     OW47349   8.896  10.069   7.745
15151SOL    HW147350   8.852  10.148   7.715
15151SOL    HW247351   8.962  10.052   7.677
15152SOL     OW47352   5.877   4.491  10.321
15152SOL    HW147353   5.825   4.560  10.361
15152SOL    HW247354   5.954   4.537  10.286
15153SOL     OW47355   1.274   2.279   0.488
15153SOL    HW147356   1.210   2.252   0.421
15153SOL    HW247357   1.345   2.216   0.479
15154SOL     OW47358   3.804   6.875  14.685
15154SOL    HW147359   3.764   6.961  14.699
15154SOL    HW247360   3.736   6.824  14.641
15155SOL     OW47361   7.810   8.338   3.748
15155SOL    HW147362   7.763   8.348   3.666
15155SOL    HW247363   7.757   8.386   3.812
15156SOL     OW47364   3.661   1.366   7.856
15156SOL    HW147365   3.653   1.440   7.917
15156SOL    HW247366   3.668   1.406   7.770
15157SOL     OW47367   5.070  12.790   2.099
15157SOL    HW147368   4.983  12.827   2.090
15157SOL    HW247369   5.069  12.711   2.045
15158SOL     OW47370   3.982   3.720   2.652
15158SOL    HW147371   3.987   3.672   2.569
15158SOL    HW247372   4.037   3.797   2.638
15159SOL     OW47373  11.494  10.982   9.683
15159SOL    HW147374  11.543  10.904   9.711
15159SOL    HW247375  11.428  10.994   9.751
15160SOL     OW47376   2.217  11.666   4.303
15160SOL    HW147377   2.296  11.671   4.249
15160SOL    HW247378   2.147  11.644   4.242
15161SOL     OW47379   1.175   7.416  10.691
15161SOL    HW147380   1.187   7.500  10.647
15161SOL    HW247381   1.163   7.438  10.783
15162SOL     OW47382  14.019  10.163   4.912
15162SOL    HW147383  13.987  10.251   4.934
15162SOL    HW247384  13.939  10.112   4.899
15163SOL     OW47385  14.782   9.924   1.376
15163SOL    HW147386  14.812   9.949   1.289
15163SOL    HW247387  14.687   9.918   1.367
15164SOL     OW47388   3.112   5.946   4.726
15164SOL    HW147389   3.076   6.019   4.777
15164SOL    HW247390   3.164   5.897   4.789
15165SOL     OW47391   2.149   7.832  12.770
15165SOL    HW147392   2.200   7.869  12.842
15165SOL    HW247393   2.097   7.763  12.810
15166SOL     OW47394   6.989  12.079   7.241
15166SOL    HW147395   6.986  12.142   7.170
15166SOL    HW247396   6.904  12.088   7.285
15167SOL     OW47397  14.171   3.823   5.420
15167SOL    HW147398  14.129   3.769   5.353
15167SOL    HW247399  14.098   3.870   5.462
15168SOL     OW47400   7.967   2.169   0.280
15168SOL    HW147401   8.041   2.131   0.329
15168SOL    HW247402   7.904   2.193   0.347
15169SOL     OW47403   1.262  13.736   3.898
15169SOL    HW147404   1.356  13.747   3.884
15169SOL    HW247405   1.223  13.742   3.811
15170SOL     OW47406   7.736   4.217   0.879
15170SOL    HW147407   7.736   4.194   0.971
15170SOL    HW247408   7.777   4.143   0.835
15171SOL     OW47409   0.742  11.414  14.491
15171SOL    HW147410   0.672  11.348  14.486
15171SOL    HW247411   0.821  11.366  14.469
15172SOL     OW47412  12.749   2.269   9.996
15172SOL    HW147413  12.834   2.301  10.026
15172SOL    HW247414  12.769   2.195   9.939
15173SOL     OW47415  10.016   3.028   6.223
15173SOL    HW147416   9.945   2.966   6.210
15173SOL    HW247417  10.082   2.979   6.272
15174SOL     OW47418   3.641   1.699   4.046
15174SOL    HW147419   3.677   1.670   3.962
15174SOL    HW247420   3.714   1.743   4.090
15175SOL     OW47421  12.073   3.815  10.288
15175SOL    HW147422  12.024   3.896  10.301
15175SOL    HW247423  12.164   3.839  10.308
15176SOL     OW47424  13.693  14.331   9.353
15176SOL    HW147425  13.722  14.421   9.337
15176SOL    HW247426  13.631  14.313   9.282
15177SOL     OW47427  12.103   0.037   3.913
15177SOL    HW147428  12.175  14.848   3.906
15177SOL    HW247429  12.097   0.077   3.826
15178SOL     OW47430   9.638  13.856  11.297
15178SOL    HW147431   9.559  13.853  11.350
15178SOL    HW247432   9.642  13.771  11.253
15179SOL     OW47433  12.928   7.282  11.234
15179SOL    HW147434  12.894   7.297  11.146
15179SOL    HW247435  13.023   7.287  11.225
15180SOL     OW47436   6.537  14.026   8.116
15180SOL    HW147437   6.468  13.961   8.127
15180SOL    HW247438   6.494  14.111   8.129
15181SOL     OW47439   8.594   1.143   6.607
15181SOL    HW147440   8.545   1.074   6.562
15181SOL    HW247441   8.528   1.208   6.629
15182SOL     OW47442   3.735  13.665   7.787
15182SOL    HW147443   3.771  13.681   7.875
15182SOL    HW247444   3.650  13.709   7.788
15183SOL     OW47445  11.262   1.444   7.941
15183SOL    HW147446  11.250   1.440   7.846
15183SOL    HW247447  11.209   1.372   7.976
15184SOL     OW47448   1.389  13.151   0.862
15184SOL    HW147449   1.448  13.198   0.921
15184SOL    HW247450   1.339  13.221   0.819
15185SOL     OW47451  11.235  13.628  10.780
15185SOL    HW147452  11.291  13.703  10.800
15185SOL    HW247453  11.181  13.658  10.706
15186SOL     OW47454   5.283   5.758   9.516
15186SOL    HW147455   5.203   5.717   9.483
15186SOL    HW247456   5.317   5.808   9.441
15187SOL     OW47457   1.669  12.855  10.022
15187SOL    HW147458   1.740  12.918  10.012
15187SOL    HW247459   1.712  12.770  10.015
15188SOL     OW47460   3.591   6.259   1.370
15188SOL    HW147461   3.661   6.269   1.305
15188SOL    HW247462   3.630   6.287   1.453
15189SOL     OW47463   5.042  12.833   9.434
15189SOL    HW147464   4.976  12.850   9.367
15189SOL    HW247465   5.040  12.738   9.446
15190SOL     OW47466   0.958   8.736   7.744
15190SOL    HW147467   1.027   8.678   7.777
15190SOL    HW247468   1.006   8.811   7.708
15191SOL     OW47469   4.459   4.182   9.440
15191SOL    HW147470   4.378   4.131   9.446
15191SOL    HW247471   4.506   4.163   9.522
15192SOL     OW47472   6.623  11.170   8.172
15192SOL    HW147473   6.670  11.117   8.237
15192SOL    HW247474   6.530  11.155   8.191
15193SOL     OW47475   7.082   9.613   2.459
15193SOL    HW147476   7.098   9.604   2.365
15193SOL    HW247477   7.041   9.530   2.485
15194SOL     OW47478   4.017   2.790   3.407
15194SOL    HW147479   4.052   2.758   3.490
15194SOL    HW247480   4.087   2.846   3.372
15195SOL     OW47481   1.428   8.185   9.125
15195SOL    HW147482   1.434   8.145   9.212
15195SOL    HW247483   1.389   8.271   9.141
15196SOL     OW47484   6.662  12.875   7.243
15196SOL    HW147485   6.756  12.887   7.226
15196SOL    HW247486   6.623  12.960   7.221
15197SOL     OW47487  10.047  10.190   1.837
15197SOL    HW147488   9.952  10.179   1.838
15197SOL    HW247489  10.062  10.278   1.872
15198SOL     OW47490   9.151   0.825   9.913
15198SOL    HW147491   9.238   0.866   9.917
15198SOL    HW247492   9.095   0.885   9.963
15199SOL     OW47493   0.121  13.923   8.958
15199SOL    HW147494   0.175  13.911   8.880
15199SOL    HW247495   0.181  13.907   9.031
15200SOL     OW47496   3.485  13.413  12.326
15200SOL    HW147497   3.502  13.331  12.280
15200SOL    HW247498   3.476  13.479  12.257
15201SOL     OW47499   2.374  11.998  13.596
15201SOL    HW147500   2.314  12.070  13.614
15201SOL    HW247501   2.441  12.037  13.540
15202SOL     OW47502   4.893  11.221   1.321
15202SOL    HW147503   4.920  11.222   1.229
15202SOL    HW247504   4.880  11.314   1.344
15203SOL     OW47505   1.403   6.806  12.443
15203SOL    HW147506   1.371   6.805  12.533
15203SOL    HW247507   1.325   6.824  12.390
15204SOL     OW47508   9.685  11.379   6.913
15204SOL    HW147509   9.612  11.320   6.936
15204SOL    HW247510   9.746  11.323   6.864
15205SOL     OW47511   4.691   3.391  11.384
15205SOL    HW147512   4.632   3.464  11.404
15205SOL    HW247513   4.778   3.431  11.382
15206SOL     OW47514  12.013   6.817   0.973
15206SOL    HW147515  11.934   6.778   0.936
15206SOL    HW247516  12.083   6.795   0.912
15207SOL     OW47517  12.152   1.467   0.944
15207SOL    HW147518  12.125   1.559   0.945
15207SOL    HW247519  12.182   1.452   0.854
15208SOL     OW47520   9.142   3.654   0.197
15208SOL    HW147521   9.096   3.616   0.122
15208SOL    HW247522   9.074   3.659   0.265
15209SOL     OW47523  13.257  11.122   3.635
15209SOL    HW147524  13.281  11.152   3.547
15209SOL    HW247525  13.303  11.181   3.694
15210SOL     OW47526   0.070  11.367   9.718
15210SOL    HW147527   0.013  11.312   9.771
15210SOL    HW247528   0.053  11.339   9.628
15211SOL     OW47529  12.017   8.135   0.619
15211SOL    HW147530  12.016   8.182   0.702
15211SOL    HW247531  12.067   8.056   0.636
15212SOL     OW47532   9.054   9.609   6.195
15212SOL    HW147533   9.072   9.542   6.129
15212SOL    HW247534   9.125   9.599   6.259
15213SOL     OW47535   4.261   3.944   8.465
15213SOL    HW147536   4.233   3.896   8.388
15213SOL    HW247537   4.292   4.028   8.431
15214SOL     OW47538  13.515  10.007   5.996
15214SOL    HW147539  13.513   9.936   5.932
15214SOL    HW247540  13.564  10.076   5.952
15215SOL     OW47541   5.452  14.659  12.004
15215SOL    HW147542   5.456  14.609  11.922
15215SOL    HW247543   5.418  14.745  11.978
15216SOL     OW47544  14.393   4.289  12.642
15216SOL    HW147545  14.404   4.359  12.577
15216SOL    HW247546  14.361   4.334  12.720
15217SOL     OW47547   2.358   3.373  14.089
15217SOL    HW147548   2.389   3.412  14.171
15217SOL    HW247549   2.432   3.322  14.057
15218SOL     OW47550  13.824  10.466  11.889
15218SOL    HW147551  13.850  10.418  11.810
15218SOL    HW247552  13.729  10.475  11.882
15219SOL     OW47553   8.496   1.811   0.623
15219SOL    HW147554   8.493   1.893   0.574
15219SOL    HW247555   8.589   1.789   0.629
15220SOL     OW47556  12.112   8.339   7.831
15220SOL    HW147557  12.029   8.323   7.876
15220SOL    HW247558  12.177   8.288   7.879
15221SOL     OW47559  10.483   6.010  12.074
15221SOL    HW147560  10.442   5.931  12.039
15221SOL    HW247561  10.411   6.061  12.109
15222SOL     OW47562   9.959   5.959   3.343
15222SOL    HW147563   9.947   5.867   3.319
15222SOL    HW247564   9.897   6.006   3.287
15223SOL     OW47565  14.053   8.167   7.405
15223SOL    HW147566  13.994   8.142   7.477
15223SOL    HW247567  14.035   8.102   7.337
15224SOL     OW47568  11.481  13.427   7.426
15224SOL    HW147569  11.403  13.395   7.381
15224SOL    HW247570  11.472  13.523   7.423
15225SOL     OW47571   3.608   7.671   6.564
15225SOL    HW147572   3.679   7.719   6.523
15225SOL    HW247573   3.530   7.725   6.549
15226SOL     OW47574  11.085  12.701   5.944
15226SOL    HW147575  11.113  12.700   5.853
15226SOL    HW247576  11.019  12.631   5.949
15227SOL     OW47577   0.889  12.424   4.333
15227SOL    HW147578   0.817  12.390   4.280
15227SOL    HW247579   0.938  12.482   4.274
15228SOL     OW47580   1.466   7.265   9.777
15228SOL    HW147581   1.389   7.256   9.721
15228SOL    HW247582   1.533   7.211   9.734
15229SOL     OW47583  11.932  11.215   3.326
15229SOL    HW147584  11.877  11.155   3.377
15229SOL    HW247585  11.997  11.158   3.285
15230SOL     OW47586   8.931  12.712   2.152
15230SOL    HW147587   8.987  12.741   2.080
15230SOL    HW247588   8.951  12.774   2.223
15231SOL     OW47589   3.507   8.754   5.820
15231SOL    HW147590   3.580   8.741   5.759
15231SOL    HW247591   3.542   8.728   5.905
15232SOL     OW47592  12.243   9.385   5.951
15232SOL    HW147593  12.165   9.391   6.005
15232SOL    HW247594  12.247   9.293   5.925
15233SOL     OW47595   6.910   7.008   6.846
15233SOL    HW147596   6.818   7.024   6.869
15233SOL    HW247597   6.935   6.931   6.896
15234SOL     OW47598   4.163   1.070   1.288
15234SOL    HW147599   4.210   1.145   1.252
15234SOL    HW247600   4.072   1.099   1.293
15235SOL     OW47601  13.739  12.397   2.994
15235SOL    HW147602  13.648  12.397   3.023
15235SOL    HW247603  13.752  12.483   2.955
15236SOL     OW47604   2.060   4.957   9.907
15236SOL    HW147605   2.101   4.970   9.993
15236SOL    HW247606   2.078   4.865   9.886
15237SOL     OW47607   3.418  13.017   9.589
15237SOL    HW147608   3.459  12.943   9.632
15237SOL    HW247609   3.450  13.013   9.498
15238SOL     OW47610  13.024   0.214   6.471
15238SOL    HW147611  13.074   0.151   6.420
15238SOL    HW247612  12.979   0.268   6.406
15239SOL     OW47613   0.633   7.788   4.151
15239SOL    HW147614   0.688   7.848   4.101
15239SOL    HW247615   0.647   7.814   4.242
15240SOL     OW47616   2.352  14.112  12.404
15240SOL    HW147617   2.335  14.092  12.496
15240SOL    HW247618   2.378  14.028  12.365
15241SOL     OW47619  11.442   4.014   6.268
15241SOL    HW147620  11.403   4.101   6.277
15241SOL    HW247621  11.416   3.968   6.347
15242SOL     OW47622  10.425  11.995   3.605
15242SOL    HW147623  10.473  11.917   3.578
15242SOL    HW247624  10.492  12.053   3.641
15243SOL     OW47625  10.584   0.497   8.377
15243SOL    HW147626  10.590   0.593   8.375
15243SOL    HW247627  10.534   0.475   8.298
15244SOL     OW47628   6.922   4.733  14.176
15244SOL    HW147629   6.874   4.708  14.255
15244SOL    HW247630   6.853   4.757  14.113
15245SOL     OW47631   8.329  11.771  11.406
15245SOL    HW147632   8.319  11.714  11.482
15245SOL    HW247633   8.329  11.859  11.441
15246SOL     OW47634   4.397   2.686   2.004
15246SOL    HW147635   4.400   2.704   2.098
15246SOL    HW247636   4.470   2.626   1.988
15247SOL     OW47637   5.252   9.160   3.929
15247SOL    HW147638   5.274   9.106   3.852
15247SOL    HW247639   5.157   9.151   3.938
15248SOL     OW47640   5.707   6.269  11.506
15248SOL    HW147641   5.728   6.311  11.423
15248SOL    HW247642   5.682   6.180  11.483
15249SOL     OW47643  10.746  14.268  10.919
15249SOL    HW147644  10.738  14.363  10.908
15249SOL    HW247645  10.739  14.254  11.014
15250SOL     OW47646   1.217   0.592   6.614
15250SOL    HW147647   1.222   0.565   6.706
15250SOL    HW247648   1.172   0.520   6.570
15251SOL     OW47649   9.040  11.441   5.230
15251SOL    HW147650   9.029  11.380   5.157
15251SOL    HW247651   9.063  11.385   5.304
15252SOL     OW47652   1.186  13.976   0.943
15252SOL    HW147653   1.224  14.000   1.028
15252SOL    HW247654   1.252  13.921   0.902
15253SOL     OW47655   1.051   3.113   9.281
15253SOL    HW147656   0.975   3.120   9.339
15253SOL    HW247657   1.111   3.182   9.311
15254SOL     OW47658   7.828   5.774   6.920
15254SOL    HW147659   7.839   5.782   7.015
15254SOL    HW247660   7.736   5.754   6.908
15255SOL     OW47661  10.252   6.711  10.314
15255SOL    HW147662  10.223   6.709  10.223
15255SOL    HW247663  10.347   6.714  10.309
15256SOL     OW47664  10.702   6.851   2.758
15256SOL    HW147665  10.651   6.884   2.832
15256SOL    HW247666  10.639   6.803   2.705
15257SOL     OW47667   0.523  12.277   3.686
15257SOL    HW147668   0.593  12.222   3.721
15257SOL    HW247669   0.504  12.339   3.757
15258SOL     OW47670   4.369  10.773   6.311
15258SOL    HW147671   4.461  10.788   6.291
15258SOL    HW247672   4.329  10.751   6.226
15259SOL     OW47673  10.782   3.173   3.986
15259SOL    HW147674  10.758   3.085   3.957
15259SOL    HW247675  10.808   3.161   4.078
15260SOL     OW47676   4.748   8.939   2.810
15260SOL    HW147677   4.654   8.924   2.803
15260SOL    HW247678   4.785   8.852   2.824
15261SOL     OW47679  14.147  14.458   3.741
15261SOL    HW147680  14.233  14.499   3.732
15261SOL    HW247681  14.167  14.367   3.763
15262SOL     OW47682   1.980   4.392   6.224
15262SOL    HW147683   2.068   4.400   6.189
15262SOL    HW247684   1.952   4.482   6.243
15263SOL     OW47685   5.484   3.599   2.943
15263SOL    HW147686   5.408   3.541   2.953
15263SOL    HW247687   5.462   3.677   2.994
15264SOL     OW47688  11.796   3.592   0.365
15264SOL    HW147689  11.888   3.611   0.348
15264SOL    HW247690  11.789   3.595   0.461
15265SOL     OW47691   5.329   0.319  11.769
15265SOL    HW147692   5.394   0.385  11.791
15265SOL    HW247693   5.329   0.260  11.845
15266SOL     OW47694   0.175   1.943   8.518
15266SOL    HW147695   0.218   2.023   8.488
15266SOL    HW247696   0.219   1.923   8.601
15267SOL     OW47697  11.713   3.539   8.255
15267SOL    HW147698  11.756   3.623   8.272
15267SOL    HW247699  11.700   3.501   8.342
15268SOL     OW47700   5.342  12.435   3.890
15268SOL    HW147701   5.437  12.439   3.888
15268SOL    HW247702   5.316  12.504   3.951
15269SOL     OW47703  11.129  13.387  13.701
15269SOL    HW147704  11.084  13.469  13.718
15269SOL    HW247705  11.101  13.361  13.613
15270SOL     OW47706   2.595   9.933  11.951
15270SOL    HW147707   2.502   9.932  11.971
15270SOL    HW247708   2.626   9.846  11.973
15271SOL     OW47709   7.121  10.924   0.888
15271SOL    HW147710   7.037  10.885   0.913
15271SOL    HW247711   7.130  11.000   0.944
15272SOL     OW47712  10.296  13.475   2.695
15272SOL    HW147713  10.340  13.403   2.741
15272SOL    HW247714  10.318  13.462   2.603
15273SOL     OW47715  10.444   2.621   5.097
15273SOL    HW147716  10.387   2.567   5.151
15273SOL    HW247717  10.496   2.558   5.047
15274SOL     OW47718   6.335   8.404  14.513
15274SOL    HW147719   6.359   8.431  14.424
15274SOL    HW247720   6.365   8.313  14.519
15275SOL     OW47721  11.315   2.932   6.357
15275SOL    HW147722  11.307   2.992   6.283
15275SOL    HW247723  11.259   2.858   6.334
15276SOL     OW47724   5.351   4.896   9.507
15276SOL    HW147725   5.396   4.958   9.451
15276SOL    HW247726   5.410   4.882   9.581
15277SOL     OW47727  12.922   6.931  14.246
15277SOL    HW147728  12.883   7.017  14.252
15277SOL    HW247729  12.849   6.872  14.229
15278SOL     OW47730  14.744   0.586   6.960
15278SOL    HW147731  14.764   0.529   6.885
15278SOL    HW247732  14.816   0.571   7.021
15279SOL     OW47733  14.806   7.211   0.123
15279SOL    HW147734  14.809   7.279   0.056
15279SOL    HW247735  14.765   7.253   0.199
15280SOL     OW47736  10.733  14.313   9.875
15280SOL    HW147737  10.759  14.336   9.786
15280SOL    HW247738  10.639  14.331   9.878
15281SOL     OW47739   5.328  14.181  14.541
15281SOL    HW147740   5.299  14.095  14.571
15281SOL    HW247741   5.365  14.164  14.454
15282SOL     OW47742  12.130   7.270  11.652
15282SOL    HW147743  12.124   7.175  11.639
15282SOL    HW247744  12.190   7.300  11.583
15283SOL     OW47745  14.810   9.294   1.938
15283SOL    HW147746  14.746   9.254   1.998
15283SOL    HW247747  14.776   9.274   1.851
15284SOL     OW47748  11.277  13.339  12.885
15284SOL    HW147749  11.348  13.325  12.822
15284SOL    HW247750  11.322  13.371  12.964
15285SOL     OW47751   4.429   0.095   5.906
15285SOL    HW147752   4.515   0.059   5.885
15285SOL    HW247753   4.371   0.019   5.904
15286SOL     OW47754  14.019  12.614   3.055
15286SOL    HW147755  14.099  12.660   3.081
15286SOL    HW247756  13.965  12.614   3.134
15287SOL     OW47757   3.650   9.373  12.476
15287SOL    HW147758   3.688   9.318  12.545
15287SOL    HW247759   3.576   9.417  12.518
15288SOL     OW47760   0.359   8.446   2.840
15288SOL    HW147761   0.287   8.394   2.876
15288SOL    HW247762   0.390   8.395   2.766
15289SOL     OW47763   2.168  12.531   7.075
15289SOL    HW147764   2.160  12.466   7.005
15289SOL    HW247765   2.223  12.600   7.037
15290SOL     OW47766   3.265   8.258   4.760
15290SOL    HW147767   3.226   8.250   4.674
15290SOL    HW247768   3.357   8.235   4.747
15291SOL     OW47769  13.811  10.075   9.875
15291SOL    HW147770  13.727  10.116   9.898
15291SOL    HW247771  13.877  10.137   9.905
15292SOL     OW47772  12.711  12.531   0.168
15292SOL    HW147773  12.698  12.618   0.207
15292SOL    HW247774  12.806  12.523   0.159
15293SOL     OW47775   5.041  10.678  12.831
15293SOL    HW147776   4.986  10.636  12.765
15293SOL    HW247777   5.011  10.640  12.914
15294SOL     OW47778  12.955   1.073   4.068
15294SOL    HW147779  12.977   1.067   4.161
15294SOL    HW247780  12.895   0.999   4.053
15295SOL     OW47781  10.722   4.082  11.846
15295SOL    HW147782  10.676   4.166  11.851
15295SOL    HW247783  10.814   4.106  11.841
15296SOL     OW47784   9.062   3.228   2.660
15296SOL    HW147785   9.143   3.181   2.680
15296SOL    HW247786   8.995   3.160   2.653
15297SOL     OW47787   7.584   8.709   3.443
15297SOL    HW147788   7.515   8.646   3.424
15297SOL    HW247789   7.582   8.718   3.538
15298SOL     OW47790   4.982   9.621   0.524
15298SOL    HW147791   4.998   9.644   0.432
15298SOL    HW247792   4.961   9.703   0.567
15299SOL     OW47793  13.497   4.639   6.030
15299SOL    HW147794  13.441   4.677   6.097
15299SOL    HW247795  13.469   4.681   5.948
15300SOL     OW47796  12.247   7.633  14.540
15300SOL    HW147797  12.266   7.610  14.449
15300SOL    HW247798  12.197   7.558  14.573
15301SOL     OW47799  14.828   3.362   9.088
15301SOL    HW147800   0.050   3.344   9.081
15301SOL    HW247801  14.788   3.277   9.101
15302SOL     OW47802   8.275  11.447  14.311
15302SOL    HW147803   8.249  11.489  14.392
15302SOL    HW247804   8.194  11.405  14.279
15303SOL     OW47805   5.931   0.208  12.963
15303SOL    HW147806   5.972   0.149  13.026
15303SOL    HW247807   5.942   0.164  12.879
15304SOL     OW47808   2.357   1.370  12.480
15304SOL    HW147809   2.434   1.356  12.536
15304SOL    HW247810   2.323   1.455  12.507
15305SOL     OW47811   7.358   9.003   8.788
15305SOL    HW147812   7.327   9.049   8.866
15305SOL    HW247813   7.441   9.045   8.766
15306SOL     OW47814   0.797  12.721   6.196
15306SOL    HW147815   0.855  12.650   6.167
15306SOL    HW247816   0.854  12.783   6.241
15307SOL     OW47817   7.519  14.811   9.682
15307SOL    HW147818   7.563  14.730   9.705
15307SOL    HW247819   7.427  14.786   9.670
15308SOL     OW47820  13.611  10.567  13.758
15308SOL    HW147821  13.567  10.514  13.824
15308SOL    HW247822  13.683  10.513  13.727
15309SOL     OW47823   5.415   5.788  13.452
15309SOL    HW147824   5.430   5.732  13.528
15309SOL    HW247825   5.336   5.753  13.412
15310SOL     OW47826   7.208   7.622  12.482
15310SOL    HW147827   7.181   7.594  12.569
15310SOL    HW247828   7.134   7.674  12.450
15311SOL     OW47829   9.537   9.695  11.879
15311SOL    HW147830   9.610   9.656  11.833
15311SOL    HW247831   9.463   9.637  11.862
15312SOL     OW47832   7.930   2.570   1.361
15312SOL    HW147833   8.018   2.566   1.325
15312SOL    HW247834   7.942   2.573   1.456
15313SOL     OW47835  12.640   5.947  10.476
15313SOL    HW147836  12.550   5.914  10.481
15313SOL    HW247837  12.645   6.013  10.545
15314SOL     OW47838   8.239   5.323   9.010
15314SOL    HW147839   8.283   5.355   9.089
15314SOL    HW247840   8.260   5.229   9.008
15315SOL     OW47841   1.816   2.981   9.437
15315SOL    HW147842   1.755   2.958   9.367
15315SOL    HW247843   1.903   2.966   9.400
15316SOL     OW47844  14.218   1.036   7.946
15316SOL    HW147845  14.310   1.043   7.918
15316SOL    HW247846  14.185   0.959   7.900
15317SOL     OW47847   0.659   1.729  12.664
15317SOL    HW147848   0.727   1.664  12.646
15317SOL    HW247849   0.577   1.681  12.656
15318SOL     OW47850  12.021   1.141   3.694
15318SOL    HW147851  12.106   1.102   3.714
15318SOL    HW247852  12.039   1.202   3.623
15319SOL     OW47853   6.759   1.444   0.185
15319SOL    HW147854   6.791   1.517   0.239
15319SOL    HW247855   6.674   1.421   0.224
15320SOL     OW47856  11.755   1.330  11.484
15320SOL    HW147857  11.767   1.424  11.497
15320SOL    HW247858  11.710   1.324  11.399
15321SOL     OW47859   4.938   5.549   7.687
15321SOL    HW147860   4.981   5.634   7.678
15321SOL    HW247861   4.919   5.541   7.780
15322SOL     OW47862   8.619   4.037  10.154
15322SOL    HW147863   8.672   4.101  10.106
15322SOL    HW247864   8.681   3.967  10.177
15323SOL     OW47865   4.764   1.778   8.599
15323SOL    HW147866   4.759   1.871   8.624
15323SOL    HW247867   4.764   1.731   8.682
15324SOL     OW47868  14.041   4.711   6.303
15324SOL    HW147869  14.071   4.719   6.393
15324SOL    HW247870  14.103   4.763   6.252
15325SOL     OW47871  10.046   1.754  11.302
15325SOL    HW147872  10.053   1.701  11.381
15325SOL    HW247873   9.954   1.782  11.299
15326SOL     OW47874   3.968   5.317   6.934
15326SOL    HW147875   4.012   5.402   6.926
15326SOL    HW247876   3.987   5.288   7.023
15327SOL     OW47877  14.494   1.625  10.771
15327SOL    HW147878  14.455   1.697  10.820
15327SOL    HW247879  14.427   1.557  10.770
15328SOL     OW47880   1.071  14.791  13.142
15328SOL    HW147881   1.046  14.728  13.210
15328SOL    HW247882   1.119  14.859  13.189
15329SOL     OW47883   6.707   2.860  11.457
15329SOL    HW147884   6.752   2.782  11.489
15329SOL    HW247885   6.635   2.874  11.519
15330SOL     OW47886   7.018  10.399   4.376
15330SOL    HW147887   7.042  10.479   4.424
15330SOL    HW247888   7.077  10.332   4.411
15331SOL     OW47889   4.728   8.646  12.029
15331SOL    HW147890   4.678   8.648  12.111
15331SOL    HW247891   4.734   8.738  12.003
15332SOL     OW47892   2.406   0.708  12.229
15332SOL    HW147893   2.464   0.769  12.183
15332SOL    HW247894   2.319   0.749  12.223
15333SOL     OW47895   2.099   2.926   7.814
15333SOL    HW147896   2.141   2.994   7.761
15333SOL    HW247897   2.171   2.868   7.840
15334SOL     OW47898   3.274  14.114  12.558
15334SOL    HW147899   3.205  14.130  12.494
15334SOL    HW247900   3.318  14.199  12.568
15335SOL     OW47901   5.197   2.819   1.821
15335SOL    HW147902   5.256   2.762   1.772
15335SOL    HW247903   5.252   2.858   1.889
15336SOL     OW47904  12.185   7.207   8.567
15336SOL    HW147905  12.141   7.122   8.571
15336SOL    HW247906  12.209   7.225   8.658
15337SOL     OW47907  10.671   4.527   5.661
15337SOL    HW147908  10.723   4.460   5.617
15337SOL    HW247909  10.736   4.585   5.702
15338SOL     OW47910   9.498   9.281  11.192
15338SOL    HW147911   9.422   9.305  11.139
15338SOL    HW247912   9.480   9.191  11.221
15339SOL     OW47913  11.700   1.676   9.419
15339SOL    HW147914  11.761   1.609   9.387
15339SOL    HW247915  11.678   1.727   9.341
15340SOL     OW47916   2.524  13.645   9.629
15340SOL    HW147917   2.434  13.669   9.609
15340SOL    HW247918   2.564  13.726   9.660
15341SOL     OW47919  10.197   4.455   8.185
15341SOL    HW147920  10.157   4.485   8.266
15341SOL    HW247921  10.164   4.516   8.119
15342SOL     OW47922   8.347  14.180  14.762
15342SOL    HW147923   8.366  14.218  14.848
15342SOL    HW247924   8.428  14.190  14.713
15343SOL     OW47925   3.834  11.145  10.043
15343SOL    HW147926   3.820  11.192   9.960
15343SOL    HW247927   3.873  11.062  10.017
15344SOL     OW47928   4.747  11.990   2.837
15344SOL    HW147929   4.822  11.940   2.804
15344SOL    HW247930   4.771  12.081   2.825
15345SOL     OW47931  11.687  10.129   2.395
15345SOL    HW147932  11.625  10.146   2.324
15345SOL    HW247933  11.764  10.093   2.351
15346SOL     OW47934  14.225   8.481  13.370
15346SOL    HW147935  14.140   8.465  13.410
15346SOL    HW247936  14.286   8.484  13.444
15347SOL     OW47937   5.129   2.411  11.703
15347SOL    HW147938   5.175   2.327  11.701
15347SOL    HW247939   5.177   2.463  11.768
15348SOL     OW47940  11.093  11.879   4.739
15348SOL    HW147941  11.105  11.784   4.739
15348SOL    HW247942  11.081  11.901   4.646
15349SOL     OW47943   7.913  14.343  10.659
15349SOL    HW147944   7.822  14.371  10.649
15349SOL    HW247945   7.942  14.321  10.571
15350SOL     OW47946   3.736   9.325   8.687
15350SOL    HW147947   3.664   9.387   8.692
15350SOL    HW247948   3.701   9.251   8.638
15351SOL     OW47949  14.469   8.074  10.427
15351SOL    HW147950  14.380   8.061  10.394
15351SOL    HW247951  14.525   8.059  10.351
15352SOL     OW47952   9.168  12.072   1.482
15352SOL    HW147953   9.261  12.085   1.463
15352SOL    HW247954   9.164  11.985   1.522
15353SOL     OW47955   8.978   8.456  12.852
15353SOL    HW147956   9.011   8.540  12.821
15353SOL    HW247957   8.959   8.471  12.945
15354SOL     OW47958   3.298   8.579   1.350
15354SOL    HW147959   3.267   8.605   1.437
15354SOL    HW247960   3.236   8.511   1.322
15355SOL     OW47961  10.659  12.472   2.184
15355SOL    HW147962  10.678  12.378   2.194
15355SOL    HW247963  10.604  12.494   2.259
15356SOL     OW47964  11.248   1.871   6.640
15356SOL    HW147965  11.288   1.852   6.555
15356SOL    HW247966  11.298   1.945   6.674
15357SOL     OW47967  14.853   8.965   8.775
15357SOL    HW147968   0.049   8.911   8.737
15357SOL    HW247969  14.819   9.016   8.702
15358SOL     OW47970  10.638   3.873   5.488
15358SOL    HW147971  10.629   3.898   5.396
15358SOL    HW247972  10.556   3.828   5.509
15359SOL     OW47973   4.090   9.197   8.584
15359SOL    HW147974   4.041   9.122   8.550
15359SOL    HW247975   4.088   9.187   8.679
15360SOL     OW47976  14.486   2.403   0.575
15360SOL    HW147977  14.479   2.333   0.509
15360SOL    HW247978  14.397   2.414   0.608
15361SOL     OW47979  10.535   4.985  11.493
15361SOL    HW147980  10.611   4.931  11.515
15361SOL    HW247981  10.515   4.963  11.402
15362SOL     OW47982   7.967   2.567  12.618
15362SOL    HW147983   7.978   2.563  12.523
15362SOL    HW247984   8.051   2.600  12.650
15363SOL     OW47985  13.098  10.607   9.653
15363SOL    HW147986  13.102  10.701   9.674
15363SOL    HW247987  13.183  10.573   9.679
15364SOL     OW47988   7.063  14.141   4.921
15364SOL    HW147989   7.039  14.230   4.895
15364SOL    HW247990   6.988  14.088   4.896
15365SOL     OW47991   7.601   0.803   1.798
15365SOL    HW147992   7.615   0.714   1.766
15365SOL    HW247993   7.506   0.815   1.797
15366SOL     OW47994  12.156  12.460  11.631
15366SOL    HW147995  12.226  12.470  11.696
15366SOL    HW247996  12.200  12.424  11.554
15367SOL     OW47997   8.176   2.054   0.435
15367SOL    HW147998   8.134   2.014   0.511
15367SOL    HW247999   8.240   1.989   0.406
15368SOL     OW48000   5.742  14.656  11.600
15368SOL    HW148001   5.804  14.620  11.536
15368SOL    HW248002   5.663  14.603  11.589
15369SOL     OW48003  13.171   7.578  10.874
15369SOL    HW148004  13.186   7.536  10.959
15369SOL    HW248005  13.077   7.570  10.860
15370SOL     OW48006  11.970   8.301  11.277
15370SOL    HW148007  11.983   8.377  11.333
15370SOL    HW248008  12.016   8.230  11.322
15371SOL     OW48009  11.693   3.991   6.193
15371SOL    HW148010  11.601   3.976   6.215
15371SOL    HW248011  11.719   4.065   6.248
15372SOL     OW48012  10.484   1.066   5.108
15372SOL    HW148013  10.557   1.128   5.112
15372SOL    HW248014  10.437   1.081   5.190
15373SOL     OW48015   2.575  11.264  14.370
15373SOL    HW148016   2.663  11.234  14.349
15373SOL    HW248017   2.517  11.196  14.335
15374SOL     OW48018  10.218   4.677  13.879
15374SOL    HW148019  10.274   4.708  13.809
15374SOL    HW248020  10.195   4.587  13.854
15375SOL     OW48021  12.969  10.162   5.472
15375SOL    HW148022  12.892  10.110   5.496
15375SOL    HW248023  12.968  10.165   5.377
15376SOL     OW48024   8.223  12.816  11.630
15376SOL    HW148025   8.149  12.857  11.585
15376SOL    HW248026   8.228  12.861  11.715
15377SOL     OW48027  13.832   7.801   5.954
15377SOL    HW148028  13.911   7.753   5.929
15377SOL    HW248029  13.773   7.792   5.879
15378SOL     OW48030   2.812   5.059  13.185
15378SOL    HW148031   2.833   5.009  13.107
15378SOL    HW248032   2.745   5.121  13.157
15379SOL     OW48033   8.190  11.837   2.838
15379SOL    HW148034   8.145  11.764   2.881
15379SOL    HW248035   8.147  11.847   2.754
15380SOL     OW48036   9.873   1.419   8.727
15380SOL    HW148037   9.826   1.337   8.709
15380SOL    HW248038   9.962   1.403   8.694
15381SOL     OW48039   5.952  12.989   0.216
15381SOL    HW148040   5.910  12.949   0.292
15381SOL    HW248041   5.901  12.958   0.141
15382SOL     OW48042   6.489   6.112  13.624
15382SOL    HW148043   6.545   6.105  13.547
15382SOL    HW248044   6.493   6.026  13.666
15383SOL     OW48045   2.663  11.010  13.623
15383SOL    HW148046   2.588  10.959  13.651
15383SOL    HW248047   2.730  10.945  13.600
15384SOL     OW48048   4.975   1.721   8.305
15384SOL    HW148049   5.049   1.772   8.339
15384SOL    HW248050   4.982   1.637   8.350
15385SOL     OW48051  12.242   0.899   7.340
15385SOL    HW148052  12.210   0.986   7.314
15385SOL    HW248053  12.334   0.913   7.361
15386SOL     OW48054   5.147   3.589   6.011
15386SOL    HW148055   5.068   3.604   6.063
15386SOL    HW248056   5.151   3.494   6.001
15387SOL     OW48057   5.043   4.218   6.749
15387SOL    HW148058   5.033   4.296   6.804
15387SOL    HW248059   4.967   4.220   6.691
15388SOL     OW48060  11.408   5.574  13.174
15388SOL    HW148061  11.431   5.580  13.082
15388SOL    HW248062  11.443   5.490  13.202
15389SOL     OW48063   7.242  10.325   8.206
15389SOL    HW148064   7.165  10.373   8.235
15389SOL    HW248065   7.246  10.250   8.265
15390SOL     OW48066   7.055   7.866   7.212
15390SOL    HW148067   7.017   7.807   7.276
15390SOL    HW248068   7.149   7.859   7.226
15391SOL     OW48069   0.066  10.461   3.091
15391SOL    HW148070  14.853  10.470   3.048
15391SOL    HW248071   0.049  10.481   3.183
15392SOL     OW48072   7.064   6.918   2.613
15392SOL    HW148073   7.084   6.975   2.539
15392SOL    HW248074   7.146   6.913   2.662
15393SOL     OW48075   9.323   8.671  14.852
15393SOL    HW148076   9.404   8.716  14.825
15393SOL    HW248077   9.256   8.704  14.791
15394SOL     OW48078   4.450   2.425   2.258
15394SOL    HW148079   4.427   2.344   2.212
15394SOL    HW248080   4.380   2.438   2.321
15395SOL     OW48081  13.276  12.926   0.357
15395SOL    HW148082  13.253  12.881   0.438
15395SOL    HW248083  13.240  12.871   0.288
15396SOL     OW48084   2.468  10.271   3.194
15396SOL    HW148085   2.400  10.264   3.260
15396SOL    HW248086   2.452  10.355   3.152
15397SOL     OW48087   1.803   8.077   3.482
15397SOL    HW148088   1.772   8.045   3.397
15397SOL    HW248089   1.723   8.105   3.528
15398SOL     OW48090   1.654   3.387   7.343
15398SOL    HW148091   1.674   3.319   7.407
15398SOL    HW248092   1.561   3.378   7.325
15399SOL     OW48093   6.603  12.249  13.001
15399SOL    HW148094   6.653  12.329  12.988
15399SOL    HW248095   6.522  12.263  12.952
15400SOL     OW48096  13.082   2.779   2.401
15400SOL    HW148097  13.125   2.834   2.336
15400SOL    HW248098  13.154   2.742   2.453
15401SOL     OW48099   2.378   2.593  10.987
15401SOL    HW148100   2.294   2.551  11.007
15401SOL    HW248101   2.433   2.574  11.064
15402SOL     OW48102  11.335  13.852   8.522
15402SOL    HW148103  11.367  13.935   8.559
15402SOL    HW248104  11.242  13.867   8.508
15403SOL     OW48105  11.473   3.252  13.462
15403SOL    HW148106  11.382   3.237  13.486
15403SOL    HW248107  11.495   3.338  13.498
15404SOL     OW48108  12.626  12.438   5.129
15404SOL    HW148109  12.696  12.373   5.136
15404SOL    HW248110  12.662  12.516   5.171
15405SOL     OW48111   7.997   9.461  14.529
15405SOL    HW148112   8.003   9.464  14.625
15405SOL    HW248113   7.903   9.470  14.511
15406SOL     OW48114   7.696  12.667  11.700
15406SOL    HW148115   7.723  12.662  11.791
15406SOL    HW248116   7.778  12.676  11.651
15407SOL     OW48117   2.436   2.051   8.789
15407SOL    HW148118   2.393   1.973   8.822
15407SOL    HW248119   2.501   2.018   8.726
15408SOL     OW48120  11.427   0.952   6.919
15408SOL    HW148121  11.495   0.893   6.949
15408SOL    HW248122  11.358   0.945   6.985
15409SOL     OW48123   0.106   2.966   5.175
15409SOL    HW148124   0.048   2.960   5.251
15409SOL    HW248125   0.071   3.038   5.123
15410SOL     OW48126   7.143   2.841   6.911
15410SOL    HW148127   7.198   2.916   6.935
15410SOL    HW248128   7.110   2.809   6.995
15411SOL     OW48129   6.135   6.700  13.068
15411SOL    HW148130   6.135   6.638  12.995
15411SOL    HW248131   6.113   6.648  13.144
15412SOL     OW48132  11.906   9.934   2.695
15412SOL    HW148133  11.829   9.966   2.740
15412SOL    HW248134  11.927   9.851   2.738
15413SOL     OW48135   7.918   0.496   0.589
15413SOL    HW148136   7.856   0.511   0.517
15413SOL    HW248137   7.863   0.477   0.665
15414SOL     OW48138  13.503   2.333   3.838
15414SOL    HW148139  13.572   2.270   3.818
15414SOL    HW248140  13.431   2.279   3.872
15415SOL     OW48141  14.142  14.209  13.195
15415SOL    HW148142  14.133  14.198  13.101
15415SOL    HW248143  14.225  14.255  13.206
15416SOL     OW48144   7.020   5.740   9.905
15416SOL    HW148145   6.952   5.685   9.944
15416SOL    HW248146   7.094   5.681   9.893
15417SOL     OW48147   8.294   5.343  10.487
15417SOL    HW148148   8.224   5.403  10.461
15417SOL    HW248149   8.281   5.265  10.432
15418SOL     OW48150   6.150   9.166  14.790
15418SOL    HW148151   6.072   9.188  14.738
15418SOL    HW248152   6.121   9.095  14.847
15419SOL     OW48153   2.502   2.524   2.394
15419SOL    HW148154   2.498   2.516   2.489
15419SOL    HW248155   2.594   2.544   2.375
15420SOL     OW48156   3.357  12.560   0.106
15420SOL    HW148157   3.315  12.489   0.057
15420SOL    HW248158   3.426  12.591   0.047
15421SOL     OW48159   5.133   7.622  13.018
15421SOL    HW148160   5.096   7.653  13.100
15421SOL    HW248161   5.083   7.543  12.996
15422SOL     OW48162   4.302   1.174  12.180
15422SOL    HW148163   4.370   1.182  12.114
15422SOL    HW248164   4.248   1.253  12.168
15423SOL     OW48165   4.338   2.523   7.636
15423SOL    HW148166   4.377   2.458   7.694
15423SOL    HW248167   4.255   2.547   7.677
15424SOL     OW48168   3.340   9.308   9.654
15424SOL    HW148169   3.309   9.395   9.681
15424SOL    HW248170   3.435   9.318   9.646
15425SOL     OW48171  14.078   5.686   6.604
15425SOL    HW148172  13.983   5.676   6.614
15425SOL    HW248173  14.088   5.768   6.556
15426SOL     OW48174  11.556   0.217   2.590
15426SOL    HW148175  11.588   0.251   2.673
15426SOL    HW248176  11.636   0.195   2.541
15427SOL     OW48177  11.539  11.256   9.921
15427SOL    HW148178  11.518  11.253   9.828
15427SOL    HW248179  11.606  11.188   9.932
15428SOL     OW48180  11.536   5.098  13.947
15428SOL    HW148181  11.511   5.061  14.032
15428SOL    HW248182  11.474   5.170  13.933
15429SOL     OW48183  10.127   3.441   9.324
15429SOL    HW148184  10.068   3.370   9.352
15429SOL    HW248185  10.175   3.404   9.250
15430SOL     OW48186   1.429   4.970   9.157
15430SOL    HW148187   1.406   5.022   9.080
15430SOL    HW248188   1.389   5.016   9.231
15431SOL     OW48189   6.036  11.809   2.009
15431SOL    HW148190   6.125  11.839   2.027
15431SOL    HW248191   5.980  11.875   2.049
15432SOL     OW48192   7.449  14.491   2.314
15432SOL    HW148193   7.454  14.401   2.282
15432SOL    HW248194   7.356  14.514   2.306
15433SOL     OW48195  13.103   6.006  10.958
15433SOL    HW148196  13.074   6.085  11.004
15433SOL    HW248197  13.084   6.023  10.866
15434SOL     OW48198   2.272  14.338   9.068
15434SOL    HW148199   2.366  14.344   9.082
15434SOL    HW248200   2.239  14.426   9.085
15435SOL     OW48201   9.142   9.242  13.640
15435SOL    HW148202   9.132   9.256  13.734
15435SOL    HW248203   9.116   9.325  13.601
15436SOL     OW48204   6.371   3.395  11.509
15436SOL    HW148205   6.305   3.452  11.470
15436SOL    HW248206   6.429   3.371  11.437
15437SOL     OW48207   5.178   7.568  10.185
15437SOL    HW148208   5.257   7.554  10.133
15437SOL    HW248209   5.126   7.630  10.134
15438SOL     OW48210   5.483   0.254   5.474
15438SOL    HW148211   5.520   0.341   5.484
15438SOL    HW248212   5.469   0.245   5.380
15439SOL     OW48213   3.498   4.304   0.453
15439SOL    HW148214   3.542   4.381   0.491
15439SOL    HW248215   3.469   4.333   0.367
15440SOL     OW48216   3.901   3.931  13.432
15440SOL    HW148217   3.913   4.026  13.445
15440SOL    HW248218   3.971   3.906  13.372
15441SOL     OW48219   3.877  13.074   3.119
15441SOL    HW148220   3.828  13.001   3.156
15441SOL    HW248221   3.959  13.036   3.090
15442SOL     OW48222   9.790  11.401   3.804
15442SOL    HW148223   9.782  11.378   3.712
15442SOL    HW248224   9.742  11.484   3.811
15443SOL     OW48225   7.814   8.621  13.864
15443SOL    HW148226   7.806   8.600  13.957
15443SOL    HW248227   7.903   8.594  13.841
15444SOL     OW48228   4.065   1.386  11.180
15444SOL    HW148229   4.086   1.397  11.087
15444SOL    HW248230   4.145   1.349  11.218
15445SOL     OW48231  11.080   2.914  11.827
15445SOL    HW148232  11.171   2.944  11.825
15445SOL    HW248233  11.040   2.966  11.897
15446SOL     OW48234   1.379   9.784  10.721
15446SOL    HW148235   1.447   9.720  10.742
15446SOL    HW248236   1.422   9.849  10.666
15447SOL     OW48237   1.823   9.555  10.365
15447SOL    HW148238   1.910   9.516  10.352
15447SOL    HW248239   1.840   9.649  10.369
15448SOL     OW48240   2.210   2.562  13.970
15448SOL    HW148241   2.204   2.540  13.877
15448SOL    HW248242   2.143   2.628  13.984
15449SOL     OW48243   9.780   2.095  12.072
15449SOL    HW148244   9.853   2.141  12.113
15449SOL    HW248245   9.820   2.044  12.002
15450SOL     OW48246   8.499  10.305   5.296
15450SOL    HW148247   8.431  10.365   5.266
15450SOL    HW248248   8.460  10.218   5.289
15451SOL     OW48249  10.012   3.838   8.480
15451SOL    HW148250   9.968   3.766   8.434
15451SOL    HW248251   9.984   3.830   8.571
15452SOL     OW48252   7.025  10.872  12.724
15452SOL    HW148253   6.939  10.875  12.681
15452SOL    HW248254   7.037  10.961  12.759
15453SOL     OW48255  11.646   4.435   6.141
15453SOL    HW148256  11.731   4.392   6.131
15453SOL    HW248257  11.636   4.445   6.235
15454SOL     OW48258  11.934  10.695   4.828
15454SOL    HW148259  11.864  10.634   4.802
15454SOL    HW248260  11.919  10.772   4.773
15455SOL     OW48261   9.546  10.747   1.125
15455SOL    HW148262   9.637  10.764   1.100
15455SOL    HW248263   9.507  10.834   1.131
15456SOL     OW48264   0.574  10.836   2.747
15456SOL    HW148265   0.595  10.802   2.661
15456SOL    HW248266   0.482  10.812   2.760
15457SOL     OW48267  13.964  10.578   4.162
15457SOL    HW148268  14.036  10.598   4.103
15457SOL    HW248269  13.994  10.502   4.211
15458SOL     OW48270  13.462  13.521   3.351
15458SOL    HW148271  13.506  13.543   3.268
15458SOL    HW248272  13.373  13.553   3.340
15459SOL     OW48273   7.307  12.535   0.745
15459SOL    HW148274   7.333  12.613   0.793
15459SOL    HW248275   7.223  12.558   0.704
15460SOL     OW48276  10.892  14.004  12.101
15460SOL    HW148277  10.909  14.084  12.151
15460SOL    HW248278  10.820  13.961  12.147
15461SOL     OW48279  11.403   7.399   1.725
15461SOL    HW148280  11.367   7.311   1.737
15461SOL    HW248281  11.495   7.385   1.704
15462SOL     OW48282   9.574   1.687   1.297
15462SOL    HW148283   9.516   1.635   1.240
15462SOL    HW248284   9.628   1.737   1.236
15463SOL     OW48285  13.900  11.003   5.693
15463SOL    HW148286  13.895  11.034   5.783
15463SOL    HW248287  13.919  11.081   5.642
15464SOL     OW48288   7.186  13.501   8.824
15464SOL    HW148289   7.138  13.466   8.749
15464SOL    HW248290   7.145  13.460   8.900
15465SOL     OW48291  11.554  13.955   8.123
15465SOL    HW148292  11.532  14.012   8.197
15465SOL    HW248293  11.606  13.885   8.162
15466SOL     OW48294   0.804   1.843   6.138
15466SOL    HW148295   0.895   1.814   6.152
15466SOL    HW248296   0.752   1.764   6.149
15467SOL     OW48297   6.172   4.361   8.804
15467SOL    HW148298   6.197   4.391   8.717
15467SOL    HW248299   6.137   4.439   8.848
15468SOL     OW48300   4.832   8.888  14.148
15468SOL    HW148301   4.869   8.802  14.127
15468SOL    HW248302   4.892   8.950  14.107
15469SOL     OW48303   7.337   8.296   1.116
15469SOL    HW148304   7.265   8.355   1.137
15469SOL    HW248305   7.376   8.274   1.201
15470SOL     OW48306  14.449   9.452   9.647
15470SOL    HW148307  14.500   9.441   9.567
15470SOL    HW248308  14.358   9.438   9.620
15471SOL     OW48309   3.145   9.285   4.112
15471SOL    HW148310   3.130   9.271   4.018
15471SOL    HW248311   3.137   9.380   4.124
15472SOL     OW48312   6.783   1.013   3.273
15472SOL    HW148313   6.708   1.072   3.284
15472SOL    HW248314   6.842   1.035   3.345
15473SOL     OW48315  14.300  12.232  11.410
15473SOL    HW148316  14.294  12.141  11.382
15473SOL    HW248317  14.247  12.281  11.347
15474SOL     OW48318   8.915   3.385   6.428
15474SOL    HW148319   8.923   3.291   6.412
15474SOL    HW248320   8.826   3.407   6.399
15475SOL     OW48321  10.974   7.480   0.324
15475SOL    HW148322  10.967   7.562   0.372
15475SOL    HW248323  10.943   7.413   0.385
15476SOL     OW48324  10.034  10.776   7.345
15476SOL    HW148325  10.029  10.845   7.411
15476SOL    HW248326  10.041  10.695   7.394
15477SOL     OW48327   3.821   1.761   3.575
15477SOL    HW148328   3.838   1.838   3.629
15477SOL    HW248329   3.884   1.766   3.504
15478SOL     OW48330   4.183  10.766  10.927
15478SOL    HW148331   4.110  10.826  10.910
15478SOL    HW248332   4.143  10.690  10.968
15479SOL     OW48333   3.612   4.934   5.464
15479SOL    HW148334   3.637   4.891   5.382
15479SOL    HW248335   3.591   4.862   5.523
15480SOL     OW48336   2.008   6.893  11.959
15480SOL    HW148337   1.947   6.965  11.974
15480SOL    HW248338   2.067   6.925  11.891
15481SOL     OW48339   6.844   6.414  11.352
15481SOL    HW148340   6.774   6.457  11.301
15481SOL    HW248341   6.853   6.328  11.313
15482SOL     OW48342   2.734   4.385  12.065
15482SOL    HW148343   2.641   4.400  12.079
15482SOL    HW248344   2.755   4.310  12.121
15483SOL     OW48345  13.037   7.884   8.337
15483SOL    HW148346  12.993   7.898   8.421
15483SOL    HW248347  12.970   7.844   8.282
15484SOL     OW48348   4.094  11.172  11.986
15484SOL    HW148349   4.153  11.125  12.045
15484SOL    HW248350   4.021  11.198  12.041
15485SOL     OW48351  13.541   3.809   8.565
15485SOL    HW148352  13.491   3.728   8.576
15485SOL    HW248353  13.484   3.865   8.512
15486SOL     OW48354   2.407   2.732   3.608
15486SOL    HW148355   2.315   2.747   3.629
15486SOL    HW248356   2.455   2.788   3.669
15487SOL     OW48357   8.490   1.742   1.786
15487SOL    HW148358   8.449   1.693   1.715
15487SOL    HW248359   8.506   1.676   1.854
15488SOL     OW48360  11.026   2.627  11.914
15488SOL    HW148361  11.094   2.693  11.907
15488SOL    HW248362  11.056   2.555  11.857
15489SOL     OW48363   7.562   1.797  12.109
15489SOL    HW148364   7.504   1.741  12.057
15489SOL    HW248365   7.526   1.885  12.099
15490SOL     OW48366   2.358   2.386  14.396
15490SOL    HW148367   2.450   2.363  14.406
15490SOL    HW248368   2.359   2.470  14.350
15491SOL     OW48369  14.328  14.383  14.531
15491SOL    HW148370  14.331  14.476  14.551
15491SOL    HW248371  14.414  14.363  14.494
15492SOL     OW48372  13.524  12.666  11.287
15492SOL    HW148373  13.444  12.710  11.259
15492SOL    HW248374  13.590  12.695  11.224
15493SOL     OW48375  10.680  11.404   2.276
15493SOL    HW148376  10.716  11.493   2.281
15493SOL    HW248377  10.603  11.407   2.332
15494SOL     OW48378   5.899  14.367   2.848
15494SOL    HW148379   5.914  14.454   2.886
15494SOL    HW248380   5.809  14.346   2.872
15495SOL     OW48381  10.270   5.234   6.419
15495SOL    HW148382  10.330   5.304   6.445
15495SOL    HW248383  10.188   5.278   6.398
15496SOL     OW48384   6.306   6.315  12.169
15496SOL    HW148385   6.227   6.367  12.182
15496SOL    HW248386   6.275   6.234  12.128
15497SOL     OW48387  12.783   4.622   0.230
15497SOL    HW148388  12.706   4.668   0.263
15497SOL    HW248389  12.785   4.540   0.279
15498SOL     OW48390   2.712  10.955   4.353
15498SOL    HW148391   2.716  10.900   4.432
15498SOL    HW248392   2.800  10.994   4.347
15499SOL     OW48393   1.137   5.268   7.220
15499SOL    HW148394   1.147   5.247   7.127
15499SOL    HW248395   1.124   5.183   7.262
15500SOL     OW48396   4.640   9.074   7.819
15500SOL    HW148397   4.651   8.999   7.760
15500SOL    HW248398   4.588   9.137   7.769
15501SOL     OW48399   9.208   5.259  14.051
15501SOL    HW148400   9.118   5.264  14.082
15501SOL    HW248401   9.232   5.349  14.031
15502SOL     OW48402  13.632   8.327   6.792
15502SOL    HW148403  13.610   8.312   6.884
15502SOL    HW248404  13.728   8.322   6.789
15503SOL     OW48405   7.806   5.524  14.506
15503SOL    HW148406   7.755   5.465  14.451
15503SOL    HW248407   7.743   5.560  14.568
15504SOL     OW48408   4.489   0.497   6.410
15504SOL    HW148409   4.544   0.575   6.413
15504SOL    HW248410   4.430   0.506   6.485
15505SOL     OW48411  10.729   2.616   4.730
15505SOL    HW148412  10.804   2.660   4.689
15505SOL    HW248413  10.735   2.526   4.698
15506SOL     OW48414   5.225   5.071   6.789
15506SOL    HW148415   5.226   5.002   6.724
15506SOL    HW248416   5.298   5.051   6.848
15507SOL     OW48417   3.709  10.714   7.354
15507SOL    HW148418   3.673  10.793   7.313
15507SOL    HW248419   3.632  10.662   7.376
15508SOL     OW48420  10.257  12.716   7.006
15508SOL    HW148421  10.253  12.724   6.911
15508SOL    HW248422  10.320  12.783   7.033
15509SOL     OW48423   4.203  12.239   2.117
15509SOL    HW148424   4.265  12.280   2.056
15509SOL    HW248425   4.117  12.264   2.085
15510SOL     OW48426   5.155  10.845   2.568
15510SOL    HW148427   5.193  10.813   2.486
15510SOL    HW248428   5.153  10.940   2.558
15511SOL     OW48429   6.211   8.017   4.492
15511SOL    HW148430   6.120   7.995   4.474
15511SOL    HW248431   6.213   8.113   4.492
15512SOL     OW48432   8.895   6.271   7.567
15512SOL    HW148433   8.926   6.297   7.653
15512SOL    HW248434   8.878   6.353   7.521
15513SOL     OW48435   1.421   8.969   2.373
15513SOL    HW148436   1.385   8.994   2.288
15513SOL    HW248437   1.432   8.874   2.367
15514SOL     OW48438   0.622   2.631   4.160
15514SOL    HW148439   0.670   2.551   4.178
15514SOL    HW248440   0.688   2.701   4.167
15515SOL     OW48441   5.075  11.718  11.459
15515SOL    HW148442   5.136  11.644  11.463
15515SOL    HW248443   5.052  11.724  11.366
15516SOL     OW48444   5.772   6.601  12.590
15516SOL    HW148445   5.857   6.591  12.547
15516SOL    HW248446   5.791   6.655  12.667
15517SOL     OW48447   3.655   7.664  13.115
15517SOL    HW148448   3.601   7.728  13.070
15517SOL    HW248449   3.713   7.629  13.048
15518SOL     OW48450   3.795  12.011   9.743
15518SOL    HW148451   3.805  12.092   9.794
15518SOL    HW248452   3.701  12.006   9.725
15519SOL     OW48453   3.391   5.139   7.566
15519SOL    HW148454   3.480   5.107   7.581
15519SOL    HW248455   3.362   5.172   7.651
15520SOL     OW48456   7.162  11.637   1.001
15520SOL    HW148457   7.180  11.564   0.942
15520SOL    HW248458   7.128  11.597   1.080
15521SOL     OW48459   1.824  14.275   3.388
15521SOL    HW148460   1.855  14.187   3.409
15521SOL    HW248461   1.903  14.326   3.375
15522SOL     OW48462   4.145   8.584   5.591
15522SOL    HW148463   4.064   8.628   5.614
15522SOL    HW248464   4.119   8.495   5.567
15523SOL     OW48465  12.614   7.997   6.220
15523SOL    HW148466  12.656   8.064   6.273
15523SOL    HW248467  12.558   8.045   6.159
15524SOL     OW48468  11.284   6.875   6.312
15524SOL    HW148469  11.329   6.923   6.381
15524SOL    HW248470  11.247   6.943   6.255
15525SOL     OW48471  11.174   1.323  12.434
15525SOL    HW148472  11.264   1.356  12.430
15525SOL    HW248473  11.160   1.283  12.348
15526SOL     OW48474   4.684  10.240   6.870
15526SOL    HW148475   4.698  10.308   6.936
15526SOL    HW248476   4.642  10.169   6.917
15527SOL     OW48477   2.058  14.681   1.666
15527SOL    HW148478   1.989  14.640   1.615
15527SOL    HW248479   2.028  14.674   1.757
15528SOL     OW48480   6.543  10.977   8.777
15528SOL    HW148481   6.457  11.003   8.809
15528SOL    HW248482   6.588  10.945   8.855
15529SOL     OW48483   4.893  12.736   5.739
15529SOL    HW148484   4.941  12.707   5.817
15529SOL    HW248485   4.800  12.731   5.765
15530SOL     OW48486   0.094   0.002   1.171
15530SOL    HW148487   0.172  14.851   1.121
15530SOL    HW248488   0.105  14.830   1.255
15531SOL     OW48489   5.418   4.414   4.095
15531SOL    HW148490   5.419   4.366   4.012
15531SOL    HW248491   5.417   4.345   4.162
15532SOL     OW48492  10.264  14.178   0.665
15532SOL    HW148493  10.211  14.242   0.713
15532SOL    HW248494  10.229  14.181   0.576
15533SOL     OW48495   1.470   5.320  10.107
15533SOL    HW148496   1.417   5.340  10.184
15533SOL    HW248497   1.427   5.245  10.066
15534SOL     OW48498  10.632  12.211   3.629
15534SOL    HW148499  10.669  12.298   3.619
15534SOL    HW248500  10.705  12.152   3.613
15535SOL     OW48501  14.856   1.780  13.771
15535SOL    HW148502   0.025   1.854  13.726
15535SOL    HW248503  14.807   1.820  13.842
15536SOL     OW48504  12.080   7.394   7.739
15536SOL    HW148505  12.102   7.350   7.821
15536SOL    HW248506  12.078   7.487   7.761
15537SOL     OW48507   5.848   9.557  14.336
15537SOL    HW148508   5.863   9.637  14.286
15537SOL    HW248509   5.762   9.526  14.308
15538SOL     OW48510   0.840   9.529  12.165
15538SOL    HW148511   0.785   9.451  12.155
15538SOL    HW248512   0.794   9.584  12.228
15539SOL     OW48513  10.781   8.823  11.555
15539SOL    HW148514  10.852   8.877  11.520
15539SOL    HW248515  10.768   8.755  11.488
15540SOL     OW48516   6.421   4.574   9.410
15540SOL    HW148517   6.336   4.532   9.421
15540SOL    HW248518   6.428   4.589   9.316
15541SOL     OW48519  12.814   4.178  13.284
15541SOL    HW148520  12.736   4.146  13.330
15541SOL    HW248521  12.791   4.173  13.191
15542SOL     OW48522   5.752   2.558   7.011
15542SOL    HW148523   5.703   2.567   6.929
15542SOL    HW248524   5.761   2.647   7.044
15543SOL     OW48525  11.900  13.228   6.155
15543SOL    HW148526  11.980  13.191   6.120
15543SOL    HW248527  11.831  13.196   6.098
15544SOL     OW48528  13.956   0.568   7.686
15544SOL    HW148529  13.949   0.662   7.668
15544SOL    HW248530  13.885   0.550   7.748
15545SOL     OW48531   0.546  13.078   4.843
15545SOL    HW148532   0.510  13.122   4.920
15545SOL    HW248533   0.641  13.076   4.860
15546SOL     OW48534  12.800   8.091   3.648
15546SOL    HW148535  12.771   8.023   3.587
15546SOL    HW248536  12.881   8.125   3.609
15547SOL     OW48537   9.156   6.214   2.859
15547SOL    HW148538   9.152   6.297   2.812
15547SOL    HW248539   9.093   6.224   2.930
15548SOL     OW48540   3.007   9.018  10.027
15548SOL    HW148541   2.927   8.972  10.054
15548SOL    HW248542   3.030   9.072  10.102
15549SOL     OW48543   9.798  10.967  10.964
15549SOL    HW148544   9.785  10.910  10.889
15549SOL    HW248545   9.819  11.053  10.927
15550SOL     OW48546   6.880  12.047   0.779
15550SOL    HW148547   6.916  11.996   0.851
15550SOL    HW248548   6.787  12.055   0.799
15551SOL     OW48549   9.730   9.141   4.387
15551SOL    HW148550   9.703   9.074   4.449
15551SOL    HW248551   9.794   9.096   4.331
15552SOL     OW48552   1.172  12.062  10.053
15552SOL    HW148553   1.250  12.057   9.997
15552SOL    HW248554   1.114  12.123  10.007
15553SOL     OW48555  10.454   0.925  10.611
15553SOL    HW148556  10.517   0.891  10.674
15553SOL    HW248557  10.456   1.020  10.623
15554SOL     OW48558  12.735   0.253   0.972
15554SOL    HW148559  12.826   0.231   0.951
15554SOL    HW248560  12.735   0.348   0.985
15555SOL     OW48561   6.139   9.198  14.048
15555SOL    HW148562   6.074   9.266  14.033
15555SOL    HW248563   6.223   9.244  14.043
15556SOL     OW48564  10.474   8.704  14.142
15556SOL    HW148565  10.533   8.703  14.066
15556SOL    HW248566  10.457   8.612  14.160
15557SOL     OW48567   3.896  10.561  11.274
15557SOL    HW148568   3.866  10.602  11.355
15557SOL    HW248569   3.828  10.496  11.254
15558SOL     OW48570  10.764   3.240   9.950
15558SOL    HW148571  10.860   3.244   9.955
15558SOL    HW248572  10.737   3.331   9.944
15559SOL     OW48573   6.309   9.523  12.083
15559SOL    HW148574   6.239   9.583  12.059
15559SOL    HW248575   6.284   9.491  12.170
15560SOL     OW48576   6.635   7.942   5.649
15560SOL    HW148577   6.687   8.008   5.695
15560SOL    HW248578   6.692   7.866   5.643
15561SOL     OW48579   3.439   7.369   6.942
15561SOL    HW148580   3.402   7.434   6.882
15561SOL    HW248581   3.438   7.411   7.027
15562SOL     OW48582   5.464   4.809  11.945
15562SOL    HW148583   5.546   4.776  11.908
15562SOL    HW248584   5.468   4.903  11.931
15563SOL     OW48585   5.191   3.254   8.564
15563SOL    HW148586   5.216   3.219   8.479
15563SOL    HW248587   5.274   3.274   8.607
15564SOL     OW48588   8.823   6.266   9.030
15564SOL    HW148589   8.734   6.230   9.018
15564SOL    HW248590   8.860   6.213   9.101
15565SOL     OW48591   4.704   5.195   8.634
15565SOL    HW148592   4.618   5.235   8.625
15565SOL    HW248593   4.721   5.195   8.728
15566SOL     OW48594  11.882  13.524   2.401
15566SOL    HW148595  11.908  13.455   2.462
15566SOL    HW248596  11.826  13.582   2.453
15567SOL     OW48597   9.887   9.170   7.261
15567SOL    HW148598   9.806   9.121   7.272
15567SOL    HW248599   9.943   9.113   7.208
15568SOL     OW48600  13.435  10.265  14.289
15568SOL    HW148601  13.353  10.290  14.245
15568SOL    HW248602  13.418  10.283  14.382
15569SOL     OW48603   6.328   4.338   7.049
15569SOL    HW148604   6.413   4.296   7.056
15569SOL    HW248605   6.338   4.421   7.095
15570SOL     OW48606   4.415  14.238   9.608
15570SOL    HW148607   4.323  14.264   9.614
15570SOL    HW248608   4.418  14.149   9.642
15571SOL     OW48609  14.678  11.025   8.165
15571SOL    HW148610  14.601  10.984   8.126
15571SOL    HW248611  14.749  10.964   8.147
15572SOL     OW48612   4.100   5.391  11.664
15572SOL    HW148613   4.026   5.445  11.638
15572SOL    HW248614   4.164   5.454  11.700
15573SOL     OW48615  13.743   4.401  10.746
15573SOL    HW148616  13.746   4.308  10.725
15573SOL    HW248617  13.821   4.417  10.799
15574SOL     OW48618  13.173   6.872   6.738
15574SOL    HW148619  13.082   6.870   6.766
15574SOL    HW248620  13.210   6.950   6.779
15575SOL     OW48621  14.066   7.712   5.098
15575SOL    HW148622  14.005   7.777   5.134
15575SOL    HW248623  14.131   7.699   5.167
15576SOL     OW48624  11.802  10.114   5.788
15576SOL    HW148625  11.735  10.119   5.719
15576SOL    HW248626  11.817  10.205   5.813
15577SOL     OW48627  13.675  14.680  13.326
15577SOL    HW148628  13.769  14.676  13.341
15577SOL    HW248629  13.640  14.731  13.399
15578SOL     OW48630   0.567   1.764   1.664
15578SOL    HW148631   0.476   1.737   1.677
15578SOL    HW248632   0.618   1.701   1.715
15579SOL     OW48633   4.668   2.358  10.823
15579SOL    HW148634   4.596   2.296  10.808
15579SOL    HW248635   4.708   2.328  10.905
15580SOL     OW48636   8.492  14.679   7.654
15580SOL    HW148637   8.487  14.583   7.650
15580SOL    HW248638   8.423  14.704   7.715
15581SOL     OW48639   2.601   9.391  11.386
15581SOL    HW148640   2.690   9.426  11.381
15581SOL    HW248641   2.555   9.451  11.445
15582SOL     OW48642   9.270   2.080  12.390
15582SOL    HW148643   9.301   1.996  12.356
15582SOL    HW248644   9.179   2.085  12.361
15583SOL     OW48645   9.294   3.872   7.977
15583SOL    HW148646   9.298   3.961   8.012
15583SOL    HW248647   9.283   3.884   7.883
15584SOL     OW48648   6.940  11.851  12.019
15584SOL    HW148649   6.878  11.782  12.042
15584SOL    HW248650   6.946  11.847  11.924
15585SOL     OW48651   8.756   8.694   4.777
15585SOL    HW148652   8.798   8.749   4.843
15585SOL    HW248653   8.662   8.712   4.787
15586SOL     OW48654  12.078   0.436   3.666
15586SOL    HW148655  12.130   0.357   3.657
15586SOL    HW248656  12.099   0.489   3.589
15587SOL     OW48657  11.750   5.047   1.748
15587SOL    HW148658  11.818   5.113   1.730
15587SOL    HW248659  11.687   5.093   1.804
15588SOL     OW48660   5.034  11.991   8.059
15588SOL    HW148661   5.051  12.014   8.150
15588SOL    HW248662   5.054  11.898   8.053
15589SOL     OW48663   9.546   5.325   8.962
15589SOL    HW148664   9.601   5.351   9.036
15589SOL    HW248665   9.466   5.376   8.974
15590SOL     OW48666   5.407  10.663   6.444
15590SOL    HW148667   5.497  10.632   6.452
15590SOL    HW248668   5.372  10.618   6.367
15591SOL     OW48669   4.030   2.458   5.230
15591SOL    HW148670   3.981   2.474   5.149
15591SOL    HW248671   3.963   2.453   5.298
15592SOL     OW48672   5.564   5.182   6.902
15592SOL    HW148673   5.532   5.092   6.901
15592SOL    HW248674   5.508   5.226   6.966
15593SOL     OW48675   3.279   2.436   0.602
15593SOL    HW148676   3.300   2.361   0.658
15593SOL    HW248677   3.185   2.431   0.589
15594SOL     OW48678   4.441   7.864  13.219
15594SOL    HW148679   4.476   7.947  13.252
15594SOL    HW248680   4.346   7.878  13.215
15595SOL     OW48681   3.766   6.841  10.773
15595SOL    HW148682   3.805   6.923  10.744
15595SOL    HW248683   3.675   6.863  10.792
15596SOL     OW48684   9.489   8.487  14.004
15596SOL    HW148685   9.446   8.572  14.016
15596SOL    HW248686   9.514   8.485  13.911
15597SOL     OW48687   9.046   5.147   0.349
15597SOL    HW148688   9.015   5.206   0.418
15597SOL    HW248689   9.125   5.106   0.386
15598SOL     OW48690  13.132   8.459   6.547
15598SOL    HW148691  13.108   8.366   6.542
15598SOL    HW248692  13.225   8.458   6.569
15599SOL     OW48693   8.716   0.595   9.260
15599SOL    HW148694   8.701   0.519   9.316
15599SOL    HW248695   8.636   0.604   9.208
15600SOL     OW48696   4.206   4.290   3.134
15600SOL    HW148697   4.113   4.307   3.151
15600SOL    HW248698   4.246   4.291   3.221
15601SOL     OW48699   3.921   7.934  11.618
15601SOL    HW148700   3.990   7.948  11.554
15601SOL    HW248701   3.953   7.978  11.697
15602SOL     OW48702  10.887   6.552   9.960
15602SOL    HW148703  10.862   6.461   9.943
15602SOL    HW248704  10.964   6.545  10.016
15603SOL     OW48705  13.108   4.240  13.396
15603SOL    HW148706  13.016   4.220  13.378
15603SOL    HW248707  13.105   4.302  13.468
15604SOL     OW48708   3.250  14.571   3.679
15604SOL    HW148709   3.221  14.624   3.605
15604SOL    HW248710   3.339  14.544   3.655
15605SOL     OW48711   5.782   1.937   8.240
15605SOL    HW148712   5.823   1.935   8.326
15605SOL    HW248713   5.735   2.020   8.237
15606SOL     OW48714   8.026   2.829   5.265
15606SOL    HW148715   7.938   2.865   5.254
15606SOL    HW248716   8.056   2.864   5.348
15607SOL     OW48717   5.594  14.524  11.292
15607SOL    HW148718   5.609  14.606  11.338
15607SOL    HW248719   5.500  14.511  11.293
15608SOL     OW48720   0.601   5.623  12.118
15608SOL    HW148721   0.655   5.548  12.094
15608SOL    HW248722   0.654   5.674  12.179
15609SOL     OW48723   6.366   3.789   5.336
15609SOL    HW148724   6.432   3.852   5.367
15609SOL    HW248725   6.283   3.834   5.350
15610SOL     OW48726   7.984  11.180   1.621
15610SOL    HW148727   8.005  11.139   1.705
15610SOL    HW248728   8.052  11.148   1.561
15611SOL     OW48729   3.639   3.125   8.834
15611SOL    HW148730   3.701   3.054   8.852
15611SOL    HW248731   3.694   3.200   8.809
15612SOL     OW48732   9.463   3.156   6.207
15612SOL    HW148733   9.383   3.203   6.227
15612SOL    HW248734   9.498   3.130   6.292
15613SOL     OW48735   7.671  12.121   9.494
15613SOL    HW148736   7.669  12.093   9.403
15613SOL    HW248737   7.725  12.200   9.493
15614SOL     OW48738   4.333  11.492  10.244
15614SOL    HW148739   4.251  11.454  10.213
15614SOL    HW248740   4.336  11.579  10.204
15615SOL     OW48741   2.478   2.231   0.516
15615SOL    HW148742   2.442   2.318   0.498
15615SOL    HW248743   2.401   2.175   0.529
15616SOL     OW48744  12.788  12.353   4.378
15616SOL    HW148745  12.809  12.341   4.285
15616SOL    HW248746  12.706  12.305   4.390
15617SOL     OW48747  13.584  10.603   5.764
15617SOL    HW148748  13.553  10.523   5.722
15617SOL    HW248749  13.676  10.587   5.782
15618SOL     OW48750  11.126   7.267   3.130
15618SOL    HW148751  11.071   7.270   3.052
15618SOL    HW248752  11.164   7.179   3.129
15619SOL     OW48753  14.867   5.017   1.213
15619SOL    HW148754   0.056   4.969   1.269
15619SOL    HW248755  14.828   5.082   1.272
15620SOL     OW48756  12.852   9.744   7.874
15620SOL    HW148757  12.881   9.668   7.925
15620SOL    HW248758  12.782   9.710   7.818
15621SOL     OW48759   1.781   0.807  13.913
15621SOL    HW148760   1.767   0.772  13.825
15621SOL    HW248761   1.784   0.902  13.900
15622SOL     OW48762  12.756   1.966   4.066
15622SOL    HW148763  12.849   1.987   4.074
15622SOL    HW248764  12.750   1.914   3.986
15623SOL     OW48765   9.232  14.559  12.594
15623SOL    HW148766   9.255  14.467  12.582
15623SOL    HW248767   9.199  14.564  12.684
15624SOL     OW48768  11.847   8.849   7.190
15624SOL    HW148769  11.767   8.821   7.145
15624SOL    HW248770  11.918   8.822   7.132
15625SOL     OW48771  10.846   0.996  12.632
15625SOL    HW148772  10.925   1.008  12.580
15625SOL    HW248773  10.775   0.993  12.568
15626SOL     OW48774   3.977  12.100   7.181
15626SOL    HW148775   4.016  12.186   7.200
15626SOL    HW248776   3.963  12.061   7.268
15627SOL     OW48777  14.237  12.352   4.480
15627SOL    HW148778  14.298  12.426   4.475
15627SOL    HW248779  14.232  12.332   4.573
15628SOL     OW48780  13.547   5.411  14.694
15628SOL    HW148781  13.497   5.330  14.699
15628SOL    HW248782  13.516   5.454  14.614
15629SOL     OW48783   0.198  10.685   6.917
15629SOL    HW148784   0.265  10.671   6.984
15629SOL    HW248785   0.145  10.758   6.950
15630SOL     OW48786   3.570   7.545  11.831
15630SOL    HW148787   3.510   7.619  11.837
15630SOL    HW248788   3.576   7.527  11.737
15631SOL     OW48789   5.342   4.108   2.096
15631SOL    HW148790   5.394   4.078   2.170
15631SOL    HW248791   5.366   4.201   2.086
15632SOL     OW48792  13.081   5.677   1.466
15632SOL    HW148793  13.053   5.768   1.454
15632SOL    HW248794  13.141   5.679   1.540
15633SOL     OW48795   7.060  10.188   1.809
15633SOL    HW148796   7.007  10.225   1.880
15633SOL    HW248797   7.031  10.236   1.731
15634SOL     OW48798   9.368   8.277  12.141
15634SOL    HW148799   9.333   8.317  12.221
15634SOL    HW248800   9.350   8.184  12.150
15635SOL     OW48801   2.053   5.498  11.582
15635SOL    HW148802   2.136   5.532  11.616
15635SOL    HW248803   1.995   5.574  11.579
15636SOL     OW48804   8.093   2.647   4.857
15636SOL    HW148805   8.092   2.735   4.895
15636SOL    HW248806   8.171   2.646   4.801
15637SOL     OW48807   9.945  12.951   4.113
15637SOL    HW148808  10.019  12.964   4.172
15637SOL    HW248809   9.918  12.861   4.127
15638SOL     OW48810  12.283   9.329   7.827
15638SOL    HW148811  12.252   9.264   7.890
15638SOL    HW248812  12.203   9.373   7.797
15639SOL     OW48813   2.028   0.719  10.521
15639SOL    HW148814   1.972   0.781  10.474
15639SOL    HW248815   2.036   0.645  10.461
15640SOL     OW48816   4.274   6.758  11.205
15640SOL    HW148817   4.298   6.782  11.115
15640SOL    HW248818   4.194   6.808  11.223
15641SOL     OW48819  12.520   8.153   5.426
15641SOL    HW148820  12.487   8.128   5.513
15641SOL    HW248821  12.441   8.169   5.375
15642SOL     OW48822   1.036  12.009   5.332
15642SOL    HW148823   0.991  12.033   5.251
15642SOL    HW248824   1.113  11.959   5.303
15643SOL     OW48825   6.808   0.070  10.515
15643SOL    HW148826   6.879   0.013  10.486
15643SOL    HW248827   6.840   0.159  10.501
15644SOL     OW48828   9.122   4.744   0.654
15644SOL    HW148829   9.212   4.712   0.643
15644SOL    HW248830   9.096   4.712   0.740
15645SOL     OW48831   5.692   9.524   1.052
15645SOL    HW148832   5.739   9.561   0.978
15645SOL    HW248833   5.632   9.460   1.014
15646SOL     OW48834   5.437   0.188   6.791
15646SOL    HW148835   5.488   0.108   6.803
15646SOL    HW248836   5.501   0.258   6.801
15647SOL     OW48837  13.629  11.071  13.337
15647SOL    HW148838  13.703  11.069  13.277
15647SOL    HW248839  13.652  11.010  13.407
15648SOL     OW48840   3.935   0.237   8.212
15648SOL    HW148841   3.874   0.222   8.284
15648SOL    HW248842   3.951   0.151   8.175
15649SOL     OW48843   9.369   8.825   5.069
15649SOL    HW148844   9.362   8.855   4.978
15649SOL    HW248845   9.404   8.736   5.061
15650SOL     OW48846   2.936   9.154  13.259
15650SOL    HW148847   2.905   9.064  13.270
15650SOL    HW248848   2.951   9.185  13.348
15651SOL     OW48849   6.083  13.360  11.390
15651SOL    HW148850   6.080  13.370  11.295
15651SOL    HW248851   5.991  13.354  11.417
15652SOL     OW48852   0.889  10.724   8.014
15652SOL    HW148853   0.914  10.816   8.011
15652SOL    HW248854   0.796  10.723   7.990
15653SOL     OW48855   7.774   3.239   1.968
15653SOL    HW148856   7.755   3.272   1.880
15653SOL    HW248857   7.869   3.244   1.975
15654SOL     OW48858  11.087   1.212  13.650
15654SOL    HW148859  11.171   1.257  13.647
15654SOL    HW248860  11.041   1.250  13.725
15655SOL     OW48861  14.667   8.093   4.071
15655SOL    HW148862  14.666   8.066   4.162
15655SOL    HW248863  14.575   8.104   4.048
15656SOL     OW48864   5.327   7.823  10.983
15656SOL    HW148865   5.353   7.914  10.965
15656SOL    HW248866   5.283   7.827  11.068
15657SOL     OW48867   5.746   2.174   5.949
15657SOL    HW148868   5.795   2.187   5.868
15657SOL    HW248869   5.767   2.252   6.002
15658SOL     OW48870   4.851  12.256   5.517
15658SOL    HW148871   4.841  12.171   5.558
15658SOL    HW248872   4.862  12.317   5.590
15659SOL     OW48873  13.502   8.251   9.052
15659SOL    HW148874  13.441   8.211   8.990
15659SOL    HW248875  13.549   8.317   9.001
15660SOL     OW48876   8.073   1.398   6.424
15660SOL    HW148877   8.038   1.486   6.407
15660SOL    HW248878   8.055   1.350   6.344
15661SOL     OW48879   1.519   5.708   4.009
15661SOL    HW148880   1.549   5.783   4.060
15661SOL    HW248881   1.598   5.676   3.965
15662SOL     OW48882  10.755  11.703  10.557
15662SOL    HW148883  10.715  11.660  10.633
15662SOL    HW248884  10.785  11.787  10.591
15663SOL     OW48885   5.632   2.708  13.812
15663SOL    HW148886   5.591   2.752  13.887
15663SOL    HW248887   5.710   2.760  13.794
15664SOL     OW48888   2.853  13.109   1.592
15664SOL    HW148889   2.813  13.090   1.507
15664SOL    HW248890   2.847  13.026   1.640
15665SOL     OW48891  10.460   4.426  13.630
15665SOL    HW148892  10.531   4.367  13.606
15665SOL    HW248893  10.504   4.500  13.672
15666SOL     OW48894   0.973   3.889  12.746
15666SOL    HW148895   0.961   3.984  12.755
15666SOL    HW248896   0.946   3.869  12.657
15667SOL     OW48897   1.392   7.597  12.575
15667SOL    HW148898   1.306   7.568  12.606
15667SOL    HW248899   1.404   7.553  12.491
15668SOL     OW48900   2.957   3.332   8.845
15668SOL    HW148901   3.034   3.380   8.875
15668SOL    HW248902   2.933   3.276   8.918
15669SOL     OW48903   2.831   4.409  13.828
15669SOL    HW148904   2.791   4.430  13.913
15669SOL    HW248905   2.876   4.490  13.802
15670SOL     OW48906  10.437  10.343   6.233
15670SOL    HW148907  10.506  10.409   6.224
15670SOL    HW248908  10.443  10.290   6.154
15671SOL     OW48909  13.464  11.730   3.638
15671SOL    HW148910  13.555  11.742   3.662
15671SOL    HW248911  13.424  11.685   3.712
15672SOL     OW48912  13.304   7.086   1.253
15672SOL    HW148913  13.389   7.043   1.268
15672SOL    HW248914  13.327   7.178   1.239
15673SOL     OW48915   2.988   8.550   6.414
15673SOL    HW148916   2.893   8.563   6.424
15673SOL    HW248917   3.000   8.529   6.322
15674SOL     OW48918  11.048   1.191   7.972
15674SOL    HW148919  11.082   1.192   7.882
15674SOL    HW248920  11.093   1.118   8.014
15675SOL     OW48921   4.020  11.282   3.652
15675SOL    HW148922   3.925  11.294   3.653
15675SOL    HW248923   4.055  11.363   3.688
15676SOL     OW48924   1.517   7.530   9.649
15676SOL    HW148925   1.550   7.453   9.603
15676SOL    HW248926   1.434   7.502   9.686
15677SOL     OW48927   5.864   6.545   8.407
15677SOL    HW148928   5.912   6.519   8.328
15677SOL    HW248929   5.781   6.579   8.375
15678SOL     OW48930   7.811   0.022  11.881
15678SOL    HW148931   7.859   0.078  11.941
15678SOL    HW248932   7.877  14.838  11.842
15679SOL     OW48933  10.556  12.741  10.362
15679SOL    HW148934  10.484  12.799  10.337
15679SOL    HW248935  10.624  12.799  10.394
15680SOL     OW48936  10.146   6.138   7.119
15680SOL    HW148937  10.198   6.153   7.040
15680SOL    HW248938  10.086   6.067   7.095
15681SOL     OW48939  13.229  13.457   4.111
15681SOL    HW148940  13.146  13.494   4.081
15681SOL    HW248941  13.294  13.523   4.088
15682SOL     OW48942   5.059   1.198   0.770
15682SOL    HW148943   5.060   1.276   0.827
15682SOL    HW248944   5.006   1.135   0.818
15683SOL     OW48945  11.966   3.107   2.494
15683SOL    HW148946  11.919   3.025   2.479
15683SOL    HW248947  11.948   3.128   2.586
15684SOL     OW48948  14.168   4.505   4.120
15684SOL    HW148949  14.147   4.465   4.204
15684SOL    HW248950  14.105   4.577   4.111
15685SOL     OW48951   4.276  12.483   6.882
15685SOL    HW148952   4.249  12.523   6.799
15685SOL    HW248953   4.195  12.449   6.920
15686SOL     OW48954   4.478   0.456  14.442
15686SOL    HW148955   4.524   0.528  14.399
15686SOL    HW248956   4.543   0.385  14.446
15687SOL     OW48957  10.665   7.629   4.314
15687SOL    HW148958  10.715   7.642   4.234
15687SOL    HW248959  10.695   7.544   4.347
15688SOL     OW48960   3.912   6.113   7.425
15688SOL    HW148961   3.883   6.173   7.357
15688SOL    HW248962   3.893   6.159   7.507
15689SOL     OW48963   4.132  12.322   7.209
15689SOL    HW148964   4.145  12.417   7.204
15689SOL    HW248965   4.217  12.285   7.185
15690SOL     OW48966   1.421   5.457  14.406
15690SOL    HW148967   1.510   5.482  14.381
15690SOL    HW248968   1.431   5.373  14.452
15691SOL     OW48969   4.637  13.174   6.937
15691SOL    HW148970   4.571  13.227   6.893
15691SOL    HW248971   4.625  13.194   7.030
15692SOL     OW48972  11.578  14.130   3.667
15692SOL    HW148973  11.573  14.212   3.618
15692SOL    HW248974  11.530  14.148   3.748
15693SOL     OW48975   7.499  11.017   9.126
15693SOL    HW148976   7.442  11.041   9.053
15693SOL    HW248977   7.447  10.958   9.180
15694SOL     OW48978  11.061  10.232  13.328
15694SOL    HW148979  11.001  10.197  13.394
15694SOL    HW248980  11.144  10.186  13.344
15695SOL     OW48981  11.876   2.589   2.290
15695SOL    HW148982  11.961   2.582   2.334
15695SOL    HW248983  11.814   2.550   2.351
15696SOL     OW48984   1.791   6.303   1.401
15696SOL    HW148985   1.779   6.212   1.372
15696SOL    HW248986   1.713   6.349   1.371
15697SOL     OW48987  14.623   1.032  12.184
15697SOL    HW148988  14.702   1.022  12.237
15697SOL    HW248989  14.598   0.943  12.160
15698SOL     OW48990   1.579   2.372  11.872
15698SOL    HW148991   1.515   2.398  11.806
15698SOL    HW248992   1.659   2.354  11.822
15699SOL     OW48993   5.284   3.724  12.676
15699SOL    HW148994   5.345   3.704  12.605
15699SOL    HW248995   5.231   3.796  12.642
15700SOL     OW48996  14.143   2.841   4.587
15700SOL    HW148997  14.212   2.782   4.618
15700SOL    HW248998  14.070   2.783   4.567
15701SOL     OW48999   1.520  14.644  10.089
15701SOL    HW149000   1.570  14.693  10.024
15701SOL    HW249001   1.585  14.605  10.146
15702SOL     OW49002   8.770   9.855   7.848
15702SOL    HW149003   8.834   9.911   7.804
15702SOL    HW249004   8.687   9.901   7.836
15703SOL     OW49005  14.485   4.391   5.898
15703SOL    HW149006  14.417   4.426   5.954
15703SOL    HW249007  14.454   4.406   5.809
15704SOL     OW49008   2.064   7.821   7.817
15704SOL    HW149009   2.131   7.846   7.880
15704SOL    HW249010   2.087   7.868   7.737
15705SOL     OW49011  13.898   8.747  12.306
15705SOL    HW149012  13.857   8.755  12.392
15705SOL    HW249013  13.942   8.831  12.292
15706SOL     OW49014  14.276   1.662   2.837
15706SOL    HW149015  14.346   1.708   2.791
15706SOL    HW249016  14.299   1.671   2.930
15707SOL     OW49017  14.041   0.215   5.032
15707SOL    HW149018  14.055   0.249   4.944
15707SOL    HW249019  14.111   0.255   5.084
15708SOL     OW49020   4.612   8.855  11.493
15708SOL    HW149021   4.639   8.776  11.445
15708SOL    HW249022   4.694   8.895  11.521
15709SOL     OW49023   4.732   7.465   8.107
15709SOL    HW149024   4.664   7.429   8.050
15709SOL    HW249025   4.793   7.392   8.120
15710SOL     OW49026   1.547   1.524   2.399
15710SOL    HW149027   1.518   1.609   2.431
15710SOL    HW249028   1.467   1.473   2.389
15711SOL     OW49029  14.377  11.264   7.914
15711SOL    HW149030  14.330  11.244   7.833
15711SOL    HW249031  14.356  11.192   7.972
15712SOL     OW49032   2.631   8.904   0.229
15712SOL    HW149033   2.554   8.927   0.280
15712SOL    HW249034   2.597   8.859   0.152
15713SOL     OW49035   2.955   5.509   1.698
15713SOL    HW149036   2.988   5.543   1.615
15713SOL    HW249037   3.020   5.538   1.762
15714SOL     OW49038  10.415   0.780  13.141
15714SOL    HW149039  10.407   0.800  13.235
15714SOL    HW249040  10.506   0.802  13.121
15715SOL     OW49041   2.819   5.956   8.629
15715SOL    HW149042   2.836   5.905   8.708
15715SOL    HW249043   2.863   5.907   8.559
15716SOL     OW49044  12.152   1.014   8.029
15716SOL    HW149045  12.154   1.100   7.987
15716SOL    HW249046  12.151   0.952   7.957
15717SOL     OW49047  11.450  14.567   7.982
15717SOL    HW149048  11.502  14.499   7.939
15717SOL    HW249049  11.428  14.629   7.912
15718SOL     OW49050   7.876  10.963   0.634
15718SOL    HW149051   7.781  10.969   0.640
15718SOL    HW249052   7.893  10.879   0.593
15719SOL     OW49053   6.861  10.678   9.030
15719SOL    HW149054   6.876  10.613   8.961
15719SOL    HW249055   6.940  10.732   9.030
15720SOL     OW49056   4.456   4.978  14.788
15720SOL    HW149057   4.369   5.014  14.804
15720SOL    HW249058   4.485   4.948   0.002
15721SOL     OW49059   1.031   4.805  11.344
15721SOL    HW149060   1.080   4.818  11.263
15721SOL    HW249061   0.943   4.838  11.324
15722SOL     OW49062   1.656   5.202   9.296
15722SOL    HW149063   1.675   5.110   9.281
15722SOL    HW249064   1.699   5.248   9.223
15723SOL     OW49065   2.554   9.795  13.696
15723SOL    HW149066   2.578   9.826  13.609
15723SOL    HW249067   2.546   9.700  13.687
15724SOL     OW49068   6.287  13.078   6.250
15724SOL    HW149069   6.291  13.173   6.260
15724SOL    HW249070   6.263  13.045   6.336
15725SOL     OW49071  11.222  12.729   7.300
15725SOL    HW149072  11.294  12.674   7.272
15725SOL    HW249073  11.214  12.712   7.394
15726SOL     OW49074   7.274  14.643   7.819
15726SOL    HW149075   7.308  14.683   7.899
15726SOL    HW249076   7.210  14.579   7.849
15727SOL     OW49077   2.819   3.728  14.587
15727SOL    HW149078   2.733   3.687  14.595
15727SOL    HW249079   2.873   3.682  14.651
15728SOL     OW49080  12.888  10.631   8.411
15728SOL    HW149081  12.822  10.700   8.409
15728SOL    HW249082  12.842  10.552   8.382
15729SOL     OW49083   7.172  12.793   0.896
15729SOL    HW149084   7.112  12.721   0.915
15729SOL    HW249085   7.251  12.773   0.945
15730SOL     OW49086  11.552   9.791   7.984
15730SOL    HW149087  11.552   9.875   8.030
15730SOL    HW249088  11.558   9.725   8.053
15731SOL     OW49089   7.190   0.538   4.703
15731SOL    HW149090   7.131   0.542   4.627
15731SOL    HW249091   7.148   0.477   4.763
15732SOL     OW49092  13.832   6.303   1.250
15732SOL    HW149093  13.777   6.297   1.329
15732SOL    HW249094  13.815   6.391   1.216
15733SOL     OW49095   9.989   7.432   8.983
15733SOL    HW149096  10.011   7.513   8.937
15733SOL    HW249097   9.997   7.364   8.917
15734SOL     OW49098  14.186   6.263   1.541
15734SOL    HW149099  14.222   6.182   1.577
15734SOL    HW249100  14.230   6.273   1.457
15735SOL     OW49101  13.129   6.887   9.212
15735SOL    HW149102  13.059   6.866   9.274
15735SOL    HW249103  13.167   6.968   9.246
15736SOL     OW49104   1.226   8.580   6.445
15736SOL    HW149105   1.179   8.602   6.526
15736SOL    HW249106   1.166   8.604   6.375
15737SOL     OW49107   8.603   1.618   3.318
15737SOL    HW149108   8.568   1.529   3.317
15737SOL    HW249109   8.681   1.614   3.263
15738SOL     OW49110   1.393   3.966   7.323
15738SOL    HW149111   1.460   4.035   7.316
15738SOL    HW249112   1.321   3.999   7.269
15739SOL     OW49113   7.381  14.683  11.336
15739SOL    HW149114   7.414  14.649  11.419
15739SOL    HW249115   7.384  14.778  11.346
15740SOL     OW49116  12.910   6.744   9.335
15740SOL    HW149117  12.967   6.677   9.372
15740SOL    HW249118  12.894   6.715   9.245
15741SOL     OW49119   1.911   6.456   3.129
15741SOL    HW149120   1.993   6.505   3.133
15741SOL    HW249121   1.872   6.468   3.216
15742SOL     OW49122   7.610   3.286  12.680
15742SOL    HW149123   7.681   3.347  12.697
15742SOL    HW249124   7.608   3.229  12.757
15743SOL     OW49125  10.291  12.428  11.956
15743SOL    HW149126  10.205  12.450  11.921
15743SOL    HW249127  10.307  12.494  12.023
15744SOL     OW49128   7.235   7.134   9.361
15744SOL    HW149129   7.217   7.182   9.280
15744SOL    HW249130   7.176   7.058   9.357
15745SOL     OW49131   4.700   6.862   3.308
15745SOL    HW149132   4.736   6.805   3.240
15745SOL    HW249133   4.608   6.869   3.286
15746SOL     OW49134   7.896   4.057   2.839
15746SOL    HW149135   7.819   4.100   2.803
15746SOL    HW249136   7.886   4.064   2.934
15747SOL     OW49137   4.277  12.364   5.147
15747SOL    HW149138   4.265  12.331   5.236
15747SOL    HW249139   4.372  12.372   5.137
15748SOL     OW49140   0.100   0.141  11.085
15748SOL    HW149141   0.109   0.154  11.179
15748SOL    HW249142   0.185   0.106  11.057
15749SOL     OW49143   5.157  10.536   0.940
15749SOL    HW149144   5.087  10.551   1.003
15749SOL    HW249145   5.216  10.473   0.982
15750SOL     OW49146   9.851   4.697   6.876
15750SOL    HW149147   9.802   4.692   6.958
15750SOL    HW249148   9.789   4.732   6.813
15751SOL     OW49149   6.353  13.480   8.925
15751SOL    HW149150   6.358  13.430   9.006
15751SOL    HW249151   6.431  13.455   8.876
15752SOL     OW49152   6.487   4.453  14.604
15752SOL    HW149153   6.445   4.532  14.638
15752SOL    HW249154   6.479   4.462  14.509
15753SOL     OW49155   3.672   5.640  13.436
15753SOL    HW149156   3.673   5.724  13.391
15753SOL    HW249157   3.765   5.621  13.453
15754SOL     OW49158  10.426  13.957  14.440
15754SOL    HW149159  10.342  13.919  14.416
15754SOL    HW249160  10.487  13.925  14.373
15755SOL     OW49161   0.627   4.282   1.370
15755SOL    HW149162   0.615   4.254   1.280
15755SOL    HW249163   0.715   4.320   1.373
15756SOL     OW49164   4.689   3.053   3.212
15756SOL    HW149165   4.669   3.138   3.251
15756SOL    HW249166   4.775   3.064   3.172
15757SOL     OW49167  13.043  11.458   5.353
15757SOL    HW149168  12.956  11.464   5.314
15757SOL    HW249169  13.029  11.411   5.435
15758SOL     OW49170   6.439   5.506  13.972
15758SOL    HW149171   6.434   5.457  14.054
15758SOL    HW249172   6.429   5.439  13.904
15759SOL     OW49173  11.711  11.245  12.367
15759SOL    HW149174  11.679  11.177  12.427
15759SOL    HW249175  11.750  11.311  12.424
15760SOL     OW49176   5.579   6.714   3.053
15760SOL    HW149177   5.536   6.782   3.105
15760SOL    HW249178   5.638   6.762   2.995
15761SOL     OW49179   3.507  13.508  10.076
15761SOL    HW149180   3.488  13.600  10.059
15761SOL    HW249181   3.602  13.503  10.075
15762SOL     OW49182   4.197   1.059  14.570
15762SOL    HW149183   4.208   1.076  14.476
15762SOL    HW249184   4.117   1.007  14.576
15763SOL     OW49185   2.884   6.490   0.894
15763SOL    HW149186   2.862   6.406   0.934
15763SOL    HW249187   2.868   6.477   0.801
15764SOL     OW49188  11.868  12.091  11.010
15764SOL    HW149189  11.818  12.059  11.085
15764SOL    HW249190  11.831  12.045  10.935
15765SOL     OW49191   8.856   2.782   7.454
15765SOL    HW149192   8.907   2.859   7.481
15765SOL    HW249193   8.921   2.713   7.444
15766SOL     OW49194  13.718   6.019   6.484
15766SOL    HW149195  13.809   6.046   6.477
15766SOL    HW249196  13.717   5.955   6.556
15767SOL     OW49197   9.488   3.493   5.752
15767SOL    HW149198   9.560   3.488   5.814
15767SOL    HW249199   9.505   3.573   5.702
15768SOL     OW49200  14.768   8.202   0.322
15768SOL    HW149201  14.738   8.130   0.379
15768SOL    HW249202  14.781   8.276   0.381
15769SOL     OW49203   2.014  11.070   3.640
15769SOL    HW149204   1.973  11.015   3.574
15769SOL    HW249205   2.105  11.079   3.611
15770SOL     OW49206   5.069   8.961   8.284
15770SOL    HW149207   5.157   8.998   8.296
15770SOL    HW249208   5.030   8.963   8.371
15771SOL     OW49209   0.071   0.699   6.744
15771SOL    HW149210   0.101   0.611   6.764
15771SOL    HW249211   0.002   0.688   6.679
15772SOL     OW49212   5.885   7.869   4.364
15772SOL    HW149213   5.861   7.787   4.407
15772SOL    HW249214   5.975   7.855   4.334
15773SOL     OW49215   1.185   2.625  10.059
15773SOL    HW149216   1.234   2.685  10.114
15773SOL    HW249217   1.169   2.548  10.115
15774SOL     OW49218  13.577  11.082  11.291
15774SOL    HW149219  13.487  11.075  11.257
15774SOL    HW249220  13.576  11.162  11.343
15775SOL     OW49221   4.982  12.399  12.873
15775SOL    HW149222   4.945  12.376  12.787
15775SOL    HW249223   5.034  12.322  12.897
15776SOL     OW49224   8.493   2.055   0.214
15776SOL    HW149225   8.574   2.095   0.181
15776SOL    HW249226   8.503   1.962   0.195
15777SOL     OW49227   6.700   8.206   2.290
15777SOL    HW149228   6.760   8.230   2.361
15777SOL    HW249229   6.615   8.238   2.318
15778SOL     OW49230  10.610  14.465   2.111
15778SOL    HW149231  10.530  14.449   2.060
15778SOL    HW249232  10.681  14.435   2.053
15779SOL     OW49233   0.402   0.243  11.498
15779SOL    HW149234   0.430   0.319  11.446
15779SOL    HW249235   0.471   0.178  11.484
15780SOL     OW49236   3.152   3.036   3.442
15780SOL    HW149237   3.109   2.953   3.424
15780SOL    HW249238   3.210   3.018   3.516
15781SOL     OW49239   4.518   7.773  11.329
15781SOL    HW149240   4.429   7.787  11.361
15781SOL    HW249241   4.531   7.678  11.334
15782SOL     OW49242  10.140  13.066   5.509
15782SOL    HW149243  10.071  13.114   5.463
15782SOL    HW249244  10.120  12.974   5.494
15783SOL     OW49245   8.412   1.792   1.244
15783SOL    HW149246   8.503   1.762   1.251
15783SOL    HW249247   8.403   1.817   1.152
15784SOL     OW49248  12.339   6.569  14.325
15784SOL    HW149249  12.368   6.477  14.321
15784SOL    HW249250  12.325   6.586  14.418
15785SOL     OW49251  13.010  10.240   7.029
15785SOL    HW149252  13.097  10.222   7.064
15785SOL    HW249253  13.005  10.189   6.949
15786SOL     OW49254   5.948   6.817   3.809
15786SOL    HW149255   6.006   6.754   3.851
15786SOL    HW249256   5.930   6.778   3.723
15787SOL     OW49257   7.742   0.528  11.886
15787SOL    HW149258   7.649   0.507  11.878
15787SOL    HW249259   7.744   0.620  11.911
15788SOL     OW49260   7.149   0.204   6.130
15788SOL    HW149261   7.063   0.216   6.090
15788SOL    HW249262   7.211   0.208   6.057
15789SOL     OW49263   6.823  11.960  14.754
15789SOL    HW149264   6.771  11.896  14.706
15789SOL    HW249265   6.855  12.020  14.686
15790SOL     OW49266   0.256   9.756   8.390
15790SOL    HW149267   0.297   9.758   8.476
15790SOL    HW249268   0.221   9.844   8.378
15791SOL     OW49269   3.230   4.488  13.875
15791SOL    HW149270   3.224   4.572  13.921
15791SOL    HW249271   3.323   4.479  13.853
15792SOL     OW49272   5.231  12.367   5.167
15792SOL    HW149273   5.142  12.356   5.200
15792SOL    HW249274   5.253  12.283   5.129
15793SOL     OW49275  13.442   8.818   3.793
15793SOL    HW149276  13.483   8.899   3.763
15793SOL    HW249277  13.453   8.819   3.888
15794SOL     OW49278   0.445   3.459   6.700
15794SOL    HW149279   0.525   3.432   6.654
15794SOL    HW249280   0.374   3.414   6.654
15795SOL     OW49281   2.629  10.122  10.720
15795SOL    HW149282   2.552  10.075  10.690
15795SOL    HW249283   2.596  10.208  10.747
15796SOL     OW49284  13.789   3.854   8.965
15796SOL    HW149285  13.797   3.763   8.993
15796SOL    HW249286  13.707   3.885   9.004
15797SOL     OW49287  14.657   4.284  11.368
15797SOL    HW149288  14.699   4.304  11.452
15797SOL    HW249289  14.634   4.370  11.332
15798SOL     OW49290   6.914   9.069   5.750
15798SOL    HW149291   7.010   9.064   5.754
15798SOL    HW249292   6.884   9.014   5.823
15799SOL     OW49293  10.647   5.987  11.393
15799SOL    HW149294  10.608   5.909  11.355
15799SOL    HW249295  10.710   5.952  11.457
15800SOL     OW49296   6.000  10.701   1.147
15800SOL    HW149297   6.047  10.784   1.152
15800SOL    HW249298   6.064  10.639   1.110
15801SOL     OW49299   2.588   1.243  13.583
15801SOL    HW149300   2.509   1.276  13.625
15801SOL    HW249301   2.660   1.277  13.636
15802SOL     OW49302  12.163   6.442  12.572
15802SOL    HW149303  12.245   6.393  12.573
15802SOL    HW249304  12.104   6.391  12.627
15803SOL     OW49305  14.116   3.095   0.508
15803SOL    HW149306  14.075   3.153   0.573
15803SOL    HW249307  14.194   3.143   0.479
15804SOL     OW49308   8.581  14.037   8.436
15804SOL    HW149309   8.593  14.024   8.530
15804SOL    HW249310   8.507  14.097   8.429
15805SOL     OW49311  12.385   7.095  10.583
15805SOL    HW149312  12.324   7.021  10.587
15805SOL    HW249313  12.456   7.064  10.527
15806SOL     OW49314   8.790  10.003   8.477
15806SOL    HW149315   8.816  10.066   8.544
15806SOL    HW249316   8.873   9.967   8.444
15807SOL     OW49317   0.323  14.390  13.216
15807SOL    HW149318   0.328  14.480  13.184
15807SOL    HW249319   0.411  14.371  13.249
15808SOL     OW49320  11.232   6.039   3.611
15808SOL    HW149321  11.213   6.116   3.557
15808SOL    HW249322  11.259   6.075   3.696
15809SOL     OW49323   7.456  14.523  13.310
15809SOL    HW149324   7.416  14.596  13.264
15809SOL    HW249325   7.423  14.444  13.266
15810SOL     OW49326   7.077  13.190   4.863
15810SOL    HW149327   7.051  13.155   4.778
15810SOL    HW249328   7.155  13.139   4.886
15811SOL     OW49329   9.177  12.083   1.121
15811SOL    HW149330   9.161  12.009   1.062
15811SOL    HW249331   9.097  12.091   1.172
15812SOL     OW49332  12.067  14.035  14.344
15812SOL    HW149333  12.088  14.075  14.260
15812SOL    HW249334  12.033  14.107  14.397
15813SOL     OW49335   6.977   0.429   9.410
15813SOL    HW149336   6.941   0.369   9.476
15813SOL    HW249337   6.936   0.513   9.429
15814SOL     OW49338   3.855  10.239   8.820
15814SOL    HW149339   3.775  10.275   8.781
15814SOL    HW249340   3.874  10.161   8.767
15815SOL     OW49341   0.710  12.544   4.091
15815SOL    HW149342   0.800  12.572   4.110
15815SOL    HW249343   0.657  12.622   4.108
15816SOL     OW49344  10.585   2.191   9.401
15816SOL    HW149345  10.669   2.220   9.435
15816SOL    HW249346  10.520   2.236   9.456
15817SOL     OW49347   1.570   7.668   4.767
15817SOL    HW149348   1.565   7.763   4.765
15817SOL    HW249349   1.651   7.649   4.814
15818SOL     OW49350  10.505  12.387  10.975
15818SOL    HW149351  10.459  12.351  11.052
15818SOL    HW249352  10.525  12.311  10.921
15819SOL     OW49353  10.781   6.791   8.250
15819SOL    HW149354  10.762   6.876   8.209
15819SOL    HW249355  10.870   6.800   8.284
15820SOL     OW49356  11.231   3.213   2.431
15820SOL    HW149357  11.147   3.179   2.464
15820SOL    HW249358  11.295   3.147   2.457
15821SOL     OW49359  14.658   3.610   6.055
15821SOL    HW149360  14.698   3.617   5.968
15821SOL    HW249361  14.707   3.541   6.099
15822SOL     OW49362   2.170   2.722   2.204
15822SOL    HW149363   2.074   2.720   2.199
15822SOL    HW249364   2.195   2.794   2.147
15823SOL     OW49365   3.652   5.440  14.276
15823SOL    HW149366   3.694   5.508  14.329
15823SOL    HW249367   3.633   5.483  14.192
15824SOL     OW49368  10.083   7.845   9.551
15824SOL    HW149369  10.017   7.868   9.485
15824SOL    HW249370  10.035   7.847   9.634
15825SOL     OW49371   5.462   8.940   1.974
15825SOL    HW149372   5.460   8.891   2.056
15825SOL    HW249373   5.526   8.893   1.920
15826SOL     OW49374  13.194   2.047  12.976
15826SOL    HW149375  13.229   2.019  12.892
15826SOL    HW249376  13.268   2.043  13.036
15827SOL     OW49377   7.337   3.431  13.717
15827SOL    HW149378   7.334   3.446  13.623
15827SOL    HW249379   7.306   3.341  13.729
15828SOL     OW49380  10.111   8.480   6.122
15828SOL    HW149381  10.093   8.529   6.042
15828SOL    HW249382  10.026   8.470   6.164
15829SOL     OW49383   5.377   7.225  11.389
15829SOL    HW149384   5.319   7.205  11.462
15829SOL    HW249385   5.320   7.267  11.324
15830SOL     OW49386   8.966   8.836   2.935
15830SOL    HW149387   8.908   8.880   2.997
15830SOL    HW249388   8.918   8.758   2.908
15831SOL     OW49389  10.183   5.581   5.515
15831SOL    HW149390  10.157   5.489   5.507
15831SOL    HW249391  10.182   5.615   5.426
15832SOL     OW49392  13.973   3.473  12.381
15832SOL    HW149393  14.030   3.511  12.447
15832SOL    HW249394  13.983   3.378  12.393
15833SOL     OW49395   6.553   0.536   8.373
15833SOL    HW149396   6.616   0.515   8.442
15833SOL    HW249397   6.496   0.602   8.412
15834SOL     OW49398  14.270  12.162  13.251
15834SOL    HW149399  14.345  12.221  13.256
15834SOL    HW249400  14.310  12.075  13.238
15835SOL     OW49401   2.164  13.643   8.399
15835SOL    HW149402   2.222  13.699   8.347
15835SOL    HW249403   2.223  13.595   8.457
15836SOL     OW49404  13.722   2.936   4.861
15836SOL    HW149405  13.656   2.881   4.819
15836SOL    HW249406  13.782   2.958   4.789
15837SOL     OW49407   5.211   5.148   0.777
15837SOL    HW149408   5.212   5.054   0.793
15837SOL    HW249409   5.285   5.164   0.719
15838SOL     OW49410   2.368  12.542   1.308
15838SOL    HW149411   2.338  12.633   1.303
15838SOL    HW249412   2.433  12.543   1.379
15839SOL     OW49413   5.892   1.827   6.298
15839SOL    HW149414   5.876   1.818   6.392
15839SOL    HW249415   5.836   1.899   6.271
15840SOL     OW49416   4.619  13.786   1.297
15840SOL    HW149417   4.616  13.880   1.282
15840SOL    HW249418   4.554  13.771   1.365
15841SOL     OW49419   1.083   0.096   1.437
15841SOL    HW149420   1.003   0.070   1.483
15841SOL    HW249421   1.067   0.072   1.346
15842SOL     OW49422   5.029   5.837   9.796
15842SOL    HW149423   5.058   5.902   9.860
15842SOL    HW249424   5.091   5.765   9.805
15843SOL     OW49425   5.805   5.118  14.531
15843SOL    HW149426   5.743   5.078  14.592
15843SOL    HW249427   5.784   5.079  14.446
15844SOL     OW49428   1.063   5.736   4.067
15844SOL    HW149429   1.085   5.674   3.997
15844SOL    HW249430   1.079   5.822   4.029
15845SOL     OW49431  11.651   0.019   4.260
15845SOL    HW149432  11.625   0.111   4.266
15845SOL    HW249433  11.731   0.013   4.312
15846SOL     OW49434   7.085   2.096   4.470
15846SOL    HW149435   7.151   2.128   4.409
15846SOL    HW249436   7.004   2.139   4.442
15847SOL     OW49437   8.746  14.142   5.773
15847SOL    HW149438   8.796  14.205   5.721
15847SOL    HW249439   8.702  14.196   5.839
15848SOL     OW49440   3.959  13.079   6.173
15848SOL    HW149441   4.044  13.066   6.129
15848SOL    HW249442   3.958  13.172   6.194
15849SOL     OW49443   1.630   9.470  10.197
15849SOL    HW149444   1.573   9.436  10.265
15849SOL    HW249445   1.706   9.504  10.243
15850SOL     OW49446   5.570   1.302   6.275
15850SOL    HW149447   5.610   1.216   6.289
15850SOL    HW249448   5.644   1.361   6.259
15851SOL     OW49449   8.030  14.651   0.957
15851SOL    HW149450   7.942  14.649   0.917
15851SOL    HW249451   8.073  14.725   0.915
15852SOL     OW49452  12.791  10.414   6.501
15852SOL    HW149453  12.855  10.468   6.548
15852SOL    HW249454  12.763  10.469   6.428
15853SOL     OW49455   2.607   5.858   1.161
15853SOL    HW149456   2.664   5.801   1.212
15853SOL    HW249457   2.659   5.879   1.083
15854SOL     OW49458   2.148   7.084   2.928
15854SOL    HW149459   2.172   7.038   3.008
15854SOL    HW249460   2.056   7.108   2.941
15855SOL     OW49461  12.365   3.488   0.896
15855SOL    HW149462  12.425   3.535   0.954
15855SOL    HW249463  12.361   3.542   0.817
15856SOL     OW49464  14.186  11.498   0.453
15856SOL    HW149465  14.119  11.478   0.387
15856SOL    HW249466  14.169  11.590   0.477
15857SOL     OW49467   6.991   9.485  13.730
15857SOL    HW149468   6.917   9.487  13.670
15857SOL    HW249469   6.976   9.407  13.784
15858SOL     OW49470   0.967  12.649   0.617
15858SOL    HW149471   0.925  12.574   0.574
15858SOL    HW249472   1.060  12.628   0.615
15859SOL     OW49473   8.711   8.866   6.845
15859SOL    HW149474   8.728   8.772   6.847
15859SOL    HW249475   8.672   8.885   6.930
15860SOL     OW49476   4.818   6.505   4.726
15860SOL    HW149477   4.863   6.521   4.644
15860SOL    HW249478   4.748   6.570   4.729
15861SOL     OW49479  12.535  11.233   9.384
15861SOL    HW149480  12.581  11.174   9.324
15861SOL    HW249481  12.602  11.294   9.414
15862SOL     OW49482   9.584  14.160   4.170
15862SOL    HW149483   9.517  14.227   4.156
15862SOL    HW249484   9.560  14.119   4.253
15863SOL     OW49485   0.804   9.987   0.813
15863SOL    HW149486   0.714  10.019   0.811
15863SOL    HW249487   0.798   9.896   0.783
15864SOL     OW49488   2.291   5.639   8.085
15864SOL    HW149489   2.305   5.721   8.133
15864SOL    HW249490   2.223   5.593   8.134
15865SOL     OW49491   7.985   1.834  13.587
15865SOL    HW149492   8.036   1.787  13.653
15865SOL    HW249493   8.015   1.924  13.593
15866SOL     OW49494  10.328   6.367   9.802
15866SOL    HW149495  10.303   6.379   9.893
15866SOL    HW249496  10.300   6.279   9.780
15867SOL     OW49497   6.222  12.444   6.401
15867SOL    HW149498   6.241  12.364   6.352
15867SOL    HW249499   6.188  12.413   6.485
15868SOL     OW49500  14.789   6.050   1.154
15868SOL    HW149501  14.814   5.965   1.192
15868SOL    HW249502  14.700   6.037   1.123
15869SOL     OW49503   9.876   8.186   3.257
15869SOL    HW149504   9.872   8.172   3.352
15869SOL    HW249505   9.813   8.255   3.241
15870SOL     OW49506  10.693   4.034   4.077
15870SOL    HW149507  10.706   4.082   3.995
15870SOL    HW249508  10.747   3.956   4.068
15871SOL     OW49509   3.140  11.271   9.418
15871SOL    HW149510   3.194  11.260   9.340
15871SOL    HW249511   3.181  11.342   9.467
15872SOL     OW49512  11.419   8.095   7.201
15872SOL    HW149513  11.356   8.166   7.201
15872SOL    HW249514  11.432   8.073   7.108
15873SOL     OW49515   7.541   1.265  14.858
15873SOL    HW149516   7.497   1.220   0.058
15873SOL    HW249517   7.633   1.240  14.867
15874SOL     OW49518  12.008   8.684  14.413
15874SOL    HW149519  12.048   8.717  14.333
15874SOL    HW249520  11.952   8.756  14.443
15875SOL     OW49521  13.711   2.077  11.220
15875SOL    HW149522  13.692   2.164  11.255
15875SOL    HW249523  13.724   2.022  11.297
15876SOL     OW49524   6.832   5.902   2.389
15876SOL    HW149525   6.902   5.851   2.430
15876SOL    HW249526   6.854   5.902   2.296
15877SOL     OW49527   3.622  14.610  10.656
15877SOL    HW149528   3.608  14.625  10.750
15877SOL    HW249529   3.694  14.668  10.633
15878SOL     OW49530   1.016   6.256   8.133
15878SOL    HW149531   0.929   6.225   8.107
15878SOL    HW249532   1.054   6.183   8.181
15879SOL     OW49533  11.256   2.579   7.784
15879SOL    HW149534  11.346   2.612   7.792
15879SOL    HW249535  11.255   2.535   7.700
15880SOL     OW49536   3.232  12.528   4.711
15880SOL    HW149537   3.248  12.620   4.731
15880SOL    HW249538   3.213  12.527   4.617
15881SOL     OW49539   5.671   6.973   5.394
15881SOL    HW149540   5.740   6.913   5.419
15881SOL    HW249541   5.697   7.057   5.433
15882SOL     OW49542   9.116   2.873   9.894
15882SOL    HW149543   9.035   2.919   9.917
15882SOL    HW249544   9.121   2.800   9.956
15883SOL     OW49545   4.148   2.740  11.509
15883SOL    HW149546   4.171   2.813  11.452
15883SOL    HW249547   4.210   2.671  11.485
15884SOL     OW49548   2.218   8.624  13.581
15884SOL    HW149549   2.229   8.538  13.543
15884SOL    HW249550   2.271   8.622  13.661
15885SOL     OW49551  11.684  11.664   2.453
15885SOL    HW149552  11.770  11.687   2.416
15885SOL    HW249553  11.682  11.568   2.449
15886SOL     OW49554   7.035  14.752   8.678
15886SOL    HW149555   6.968  14.810   8.714
15886SOL    HW249556   7.062  14.697   8.751
15887SOL     OW49557   9.602  10.376   6.140
15887SOL    HW149558   9.520  10.392   6.093
15887SOL    HW249559   9.588  10.292   6.184
15888SOL     OW49560  14.258   7.738   8.103
15888SOL    HW149561  14.165   7.760   8.093
15888SOL    HW249562  14.262   7.644   8.090
15889SOL     OW49563   5.531   0.035   1.984
15889SOL    HW149564   5.552   0.019   2.076
15889SOL    HW249565   5.508  14.822   1.949
15890SOL     OW49566   9.059   3.378   8.932
15890SOL    HW149567   8.974   3.338   8.914
15890SOL    HW249568   9.059   3.391   9.027
15891SOL     OW49569  14.471   3.798  11.179
15891SOL    HW149570  14.438   3.773  11.092
15891SOL    HW249571  14.496   3.890  11.169
15892SOL     OW49572  11.028   7.053  10.850
15892SOL    HW149573  11.012   6.976  10.904
15892SOL    HW249574  10.994   7.028  10.764
15893SOL     OW49575   9.900   0.134   5.300
15893SOL    HW149576   9.992   0.131   5.325
15893SOL    HW249577   9.895   0.204   5.234
15894SOL     OW49578   3.869   1.742   7.705
15894SOL    HW149579   3.855   1.731   7.611
15894SOL    HW249580   3.802   1.803   7.732
15895SOL     OW49581  14.430  14.181   6.442
15895SOL    HW149582  14.437  14.115   6.374
15895SOL    HW249583  14.479  14.256   6.408
15896SOL     OW49584   5.653  11.399   1.760
15896SOL    HW149585   5.652  11.488   1.724
15896SOL    HW249586   5.685  11.410   1.849
15897SOL     OW49587   6.181   6.292  13.896
15897SOL    HW149588   6.237   6.335  13.960
15897SOL    HW249589   6.219   6.204  13.887
15898SOL     OW49590  10.137  12.332   3.411
15898SOL    HW149591  10.220  12.364   3.444
15898SOL    HW249592  10.138  12.238   3.429
15899SOL     OW49593   4.757  11.599  12.767
15899SOL    HW149594   4.761  11.598  12.671
15899SOL    HW249595   4.845  11.573  12.795
15900SOL     OW49596   5.883  13.952   4.830
15900SOL    HW149597   5.852  13.904   4.906
15900SOL    HW249598   5.974  13.926   4.820
15901SOL     OW49599   7.307   0.584   6.567
15901SOL    HW149600   7.308   0.554   6.476
15901SOL    HW249601   7.227   0.635   6.574
15902SOL     OW49602   2.547   9.527   3.126
15902SOL    HW149603   2.526   9.561   3.039
15902SOL    HW249604   2.609   9.456   3.110
15903SOL     OW49605   1.133  13.007  14.313
15903SOL    HW149606   1.158  13.066  14.242
15903SOL    HW249607   1.081  13.061  14.372
15904SOL     OW49608   0.222   8.748   9.346
15904SOL    HW149609   0.264   8.684   9.289
15904SOL    HW249610   0.254   8.727   9.434
15905SOL     OW49611  10.578   2.964   3.108
15905SOL    HW149612  10.645   2.895   3.115
15905SOL    HW249613  10.497   2.917   3.091
15906SOL     OW49614  12.371  11.498   7.400
15906SOL    HW149615  12.342  11.408   7.384
15906SOL    HW249616  12.404  11.528   7.316
15907SOL     OW49617  10.433   4.546   4.379
15907SOL    HW149618  10.490   4.622   4.373
15907SOL    HW249619  10.382   4.546   4.298
15908SOL     OW49620   1.094  14.401   5.641
15908SOL    HW149621   1.071  14.313   5.670
15908SOL    HW249622   1.070  14.458   5.714
15909SOL     OW49623   7.178  13.519   2.080
15909SOL    HW149624   7.236  13.576   2.131
15909SOL    HW249625   7.115  13.579   2.040
15910SOL     OW49626   2.747  14.813  11.780
15910SOL    HW149627   2.707  14.751  11.840
15910SOL    HW249628   2.719   0.027  11.811
15911SOL     OW49629   9.243   6.774   2.952
15911SOL    HW149630   9.285   6.699   2.994
15911SOL    HW249631   9.201   6.738   2.874
15912SOL     OW49632   7.047   1.680   2.724
15912SOL    HW149633   7.016   1.769   2.738
15912SOL    HW249634   7.005   1.629   2.793
15913SOL     OW49635  12.358   3.925  14.694
15913SOL    HW149636  12.288   3.928  14.628
15913SOL    HW249637  12.352   4.009  14.739
15914SOL     OW49638   5.712   2.003   1.090
15914SOL    HW149639   5.655   1.933   1.058
15914SOL    HW249640   5.755   2.037   1.011
15915SOL     OW49641   3.531  14.012   2.079
15915SOL    HW149642   3.453  13.969   2.115
15915SOL    HW249643   3.600  13.947   2.087
15916SOL     OW49644  14.540  12.641  10.291
15916SOL    HW149645  14.514  12.628  10.200
15916SOL    HW249646  14.577  12.729  10.293
15917SOL     OW49647   9.092   9.325   3.283
15917SOL    HW149648   9.048   9.270   3.218
15917SOL    HW249649   9.052   9.299   3.366
15918SOL     OW49650   0.086  10.383   4.349
15918SOL    HW149651   0.012  10.430   4.310
15918SOL    HW249652   0.084  10.407   4.441
15919SOL     OW49653  10.848   8.432  10.201
15919SOL    HW149654  10.872   8.350  10.157
15919SOL    HW249655  10.899   8.499  10.156
15920SOL     OW49656  10.598   2.067   6.633
15920SOL    HW149657  10.562   2.135   6.690
15920SOL    HW249658  10.566   2.089   6.546
15921SOL     OW49659  12.838   2.378  13.214
15921SOL    HW149660  12.908   2.319  13.241
15921SOL    HW249661  12.775   2.321  13.169
15922SOL     OW49662  13.043   6.792   3.863
15922SOL    HW149663  13.088   6.795   3.779
15922SOL    HW249664  13.020   6.883   3.881
15923SOL     OW49665   9.701   7.553   2.258
15923SOL    HW149666   9.753   7.611   2.313
15923SOL    HW249667   9.668   7.486   2.317
15924SOL     OW49668   4.902   0.187   9.492
15924SOL    HW149669   4.989   0.164   9.460
15924SOL    HW249670   4.850   0.200   9.413
15925SOL     OW49671  11.697   1.099   1.900
15925SOL    HW149672  11.743   1.083   1.817
15925SOL    HW249673  11.764   1.140   1.956
15926SOL     OW49674   7.036  10.482   5.063
15926SOL    HW149675   7.063  10.444   5.147
15926SOL    HW249676   6.962  10.428   5.035
15927SOL     OW49677   5.536   3.922  14.044
15927SOL    HW149678   5.579   3.838  14.060
15927SOL    HW249679   5.559   3.944  13.954
15928SOL     OW49680  11.245  14.648   4.066
15928SOL    HW149681  11.161  14.606   4.049
15928SOL    HW249682  11.276  14.608   4.147
15929SOL     OW49683   8.362   6.401   5.527
15929SOL    HW149684   8.379   6.492   5.549
15929SOL    HW249685   8.267   6.396   5.518
15930SOL     OW49686  14.270  10.928   3.535
15930SOL    HW149687  14.290  10.858   3.596
15930SOL    HW249688  14.182  10.908   3.504
15931SOL     OW49689   0.768  12.083   2.041
15931SOL    HW149690   0.861  12.072   2.025
15931SOL    HW249691   0.728  12.001   2.009
15932SOL     OW49692  10.773   4.466  13.025
15932SOL    HW149693  10.710   4.518  13.075
15932SOL    HW249694  10.724   4.441  12.946
15933SOL     OW49695  11.088   6.819   6.495
15933SOL    HW149696  11.076   6.725   6.482
15933SOL    HW249697  11.167   6.841   6.446
15934SOL     OW49698   5.705  10.727   3.154
15934SOL    HW149699   5.624  10.690   3.118
15934SOL    HW249700   5.757  10.650   3.178
15935SOL     OW49701   0.013  10.366   5.868
15935SOL    HW149702  14.845  10.387   5.952
15935SOL    HW249703   0.090  10.314   5.891
15936SOL     OW49704   5.011  13.862  11.381
15936SOL    HW149705   5.100  13.827  11.375
15936SOL    HW249706   4.955  13.791  11.350
15937SOL     OW49707   2.820   4.068   9.775
15937SOL    HW149708   2.767   4.001   9.818
15937SOL    HW249709   2.892   4.084   9.836
15938SOL     OW49710   4.100   5.142   7.147
15938SOL    HW149711   4.126   5.051   7.129
15938SOL    HW249712   4.182   5.189   7.160
15939SOL     OW49713   8.462   5.636   2.103
15939SOL    HW149714   8.516   5.652   2.181
15939SOL    HW249715   8.399   5.708   2.103
15940SOL     OW49716  11.981   2.571   6.731
15940SOL    HW149717  12.018   2.649   6.774
15940SOL    HW249718  12.023   2.497   6.776
15941SOL     OW49719   0.593   1.562   2.340
15941SOL    HW149720   0.650   1.584   2.413
15941SOL    HW249721   0.525   1.629   2.342
15942SOL     OW49722   3.745  14.757   6.360
15942SOL    HW149723   3.743  14.744   6.455
15942SOL    HW249724   3.820  14.813   6.345
15943SOL     OW49725   1.507   0.474   1.635
15943SOL    HW149726   1.543   0.496   1.549
15943SOL    HW249727   1.412   0.478   1.623
15944SOL     OW49728  10.990   6.389   0.385
15944SOL    HW149729  10.977   6.483   0.381
15944SOL    HW249730  10.903   6.352   0.369
15945SOL     OW49731   8.120  11.916   9.072
15945SOL    HW149732   8.070  11.983   9.025
15945SOL    HW249733   8.172  11.873   9.005
15946SOL     OW49734  10.293   9.370  11.998
15946SOL    HW149735  10.301   9.311  12.073
15946SOL    HW249736  10.376   9.416  11.995
15947SOL     OW49737   9.321  10.859  13.086
15947SOL    HW149738   9.365  10.843  13.002
15947SOL    HW249739   9.392  10.869  13.149
15948SOL     OW49740   8.005   5.097   1.907
15948SOL    HW149741   8.055   5.023   1.872
15948SOL    HW249742   7.917   5.087   1.869
15949SOL     OW49743  13.219   3.712  13.060
15949SOL    HW149744  13.291   3.740  13.116
15949SOL    HW249745  13.260   3.672  12.984
15950SOL     OW49746  11.628   0.114   5.732
15950SOL    HW149747  11.556   0.163   5.692
15950SOL    HW249748  11.595   0.089   5.819
15951SOL     OW49749   7.839  10.569  12.421
15951SOL    HW149750   7.748  10.550  12.443
15951SOL    HW249751   7.876  10.484  12.397
15952SOL     OW49752  12.022   3.050  12.091
15952SOL    HW149753  12.016   2.985  12.160
15952SOL    HW249754  11.932   3.067  12.065
15953SOL     OW49755   2.449   1.506   8.932
15953SOL    HW149756   2.376   1.524   8.991
15953SOL    HW249757   2.411   1.516   8.844
15954SOL     OW49758   0.944   8.782   9.736
15954SOL    HW149759   0.901   8.858   9.697
15954SOL    HW249760   0.877   8.714   9.734
15955SOL     OW49761   1.346   1.418   3.681
15955SOL    HW149762   1.428   1.467   3.670
15955SOL    HW249763   1.277   1.483   3.668
15956SOL     OW49764  14.253  12.570   4.674
15956SOL    HW149765  14.337  12.612   4.696
15956SOL    HW249766  14.192  12.644   4.663
15957SOL     OW49767   1.099  10.407   0.492
15957SOL    HW149768   1.040  10.401   0.417
15957SOL    HW249769   1.182  10.372   0.460
15958SOL     OW49770   3.494   7.706  12.746
15958SOL    HW149771   3.558   7.738  12.682
15958SOL    HW249772   3.517   7.614  12.759
15959SOL     OW49773  13.008  12.339  10.371
15959SOL    HW149774  13.013  12.400  10.445
15959SOL    HW249775  13.010  12.395  10.294
15960SOL     OW49776   1.434   3.977   4.291
15960SOL    HW149777   1.468   3.922   4.220
15960SOL    HW249778   1.388   3.916   4.349
15961SOL     OW49779   2.045  14.846  12.248
15961SOL    HW149780   2.054  14.849  12.344
15961SOL    HW249781   1.956   0.004  12.232
15962SOL     OW49782  13.125   0.226   1.904
15962SOL    HW149783  13.128   0.316   1.935
15962SOL    HW249784  13.189   0.179   1.958
15963SOL     OW49785   0.187   7.215   0.822
15963SOL    HW149786   0.139   7.140   0.856
15963SOL    HW249787   0.272   7.179   0.796
15964SOL     OW49788   9.079   4.207   1.050
15964SOL    HW149789   9.071   4.295   1.013
15964SOL    HW249790   9.106   4.221   1.141
15965SOL     OW49791   3.718   6.759   8.189
15965SOL    HW149792   3.750   6.737   8.277
15965SOL    HW249793   3.796   6.762   8.134
15966SOL     OW49794  14.283  11.466  13.742
15966SOL    HW149795  14.286  11.561  13.751
15966SOL    HW249796  14.211  11.450  13.681
15967SOL     OW49797   4.911   2.913  11.078
15967SOL    HW149798   4.995   2.885  11.116
15967SOL    HW249799   4.918   3.008  11.073
15968SOL     OW49800  10.623   2.680   7.122
15968SOL    HW149801  10.543   2.697   7.172
15968SOL    HW249802  10.656   2.767   7.099
15969SOL     OW49803   1.081   9.086   9.976
15969SOL    HW149804   1.073   9.113  10.067
15969SOL    HW249805   1.136   9.007   9.979
15970SOL     OW49806   1.012   1.874   7.384
15970SOL    HW149807   0.968   1.791   7.400
15970SOL    HW249808   1.099   1.848   7.351
15971SOL     OW49809  10.456   2.520   4.239
15971SOL    HW149810  10.551   2.511   4.231
15971SOL    HW249811  10.423   2.430   4.233
15972SOL     OW49812  14.720   2.648  14.651
15972SOL    HW149813  14.753   2.558  14.645
15972SOL    HW249814  14.626   2.638  14.661
15973SOL     OW49815  13.389  11.376  14.079
15973SOL    HW149816  13.442  11.357  14.002
15973SOL    HW249817  13.443  11.346  14.153
15974SOL     OW49818   8.841  12.703  13.467
15974SOL    HW149819   8.777  12.631  13.468
15974SOL    HW249820   8.916  12.667  13.420
15975SOL     OW49821   1.054   1.651   7.555
15975SOL    HW149822   1.117   1.723   7.561
15975SOL    HW249823   1.081   1.591   7.624
15976SOL     OW49824   0.169  12.547   8.780
15976SOL    HW149825   0.102  12.494   8.737
15976SOL    HW249826   0.252  12.515   8.744
15977SOL     OW49827   1.117  13.794   7.258
15977SOL    HW149828   1.126  13.706   7.221
15977SOL    HW249829   1.205  13.816   7.290
15978SOL     OW49830  12.099   7.298   7.987
15978SOL    HW149831  12.149   7.252   8.054
15978SOL    HW249832  12.074   7.381   8.029
15979SOL     OW49833   7.022  14.571   5.446
15979SOL    HW149834   6.948  14.529   5.404
15979SOL    HW249835   7.098  14.520   5.418
15980SOL     OW49836   8.174  12.706   7.268
15980SOL    HW149837   8.176  12.683   7.175
15980SOL    HW249838   8.244  12.770   7.278
15981SOL     OW49839   9.518   7.693   0.915
15981SOL    HW149840   9.432   7.729   0.895
15981SOL    HW249841   9.538   7.636   0.841
15982SOL     OW49842   1.440  12.641  13.680
15982SOL    HW149843   1.413  12.555  13.648
15982SOL    HW249844   1.473  12.625  13.769
15983SOL     OW49845   9.708   3.236   1.315
15983SOL    HW149846   9.716   3.190   1.399
15983SOL    HW249847   9.708   3.329   1.339
15984SOL     OW49848  11.764   2.840   8.431
15984SOL    HW149849  11.703   2.868   8.363
15984SOL    HW249850  11.751   2.746   8.438
15985SOL     OW49851   0.763   6.071  11.001
15985SOL    HW149852   0.748   6.064  10.907
15985SOL    HW249853   0.853   6.043  11.014
15986SOL     OW49854   1.189   0.340   7.764
15986SOL    HW149855   1.138   0.372   7.838
15986SOL    HW249856   1.182   0.244   7.770
15987SOL     OW49857  14.092   8.717   5.714
15987SOL    HW149858  14.123   8.635   5.752
15987SOL    HW249859  14.021   8.744   5.772
15988SOL     OW49860   8.991   3.146   4.654
15988SOL    HW149861   8.927   3.082   4.623
15988SOL    HW249862   8.940   3.209   4.704
15989SOL     OW49863   9.350   5.866  11.728
15989SOL    HW149864   9.273   5.879  11.783
15989SOL    HW249865   9.334   5.919  11.650
15990SOL     OW49866   0.912   6.267   6.307
15990SOL    HW149867   0.981   6.332   6.297
15990SOL    HW249868   0.917   6.241   6.399
15991SOL     OW49869  12.846  10.917  11.728
15991SOL    HW149870  12.942  10.916  11.736
15991SOL    HW249871  12.820  11.003  11.761
15992SOL     OW49872   0.089   3.013  10.681
15992SOL    HW149873   0.104   2.932  10.632
15992SOL    HW249874   0.152   3.009  10.753
15993SOL     OW49875   7.683  11.812   1.294
15993SOL    HW149876   7.766  11.767   1.278
15993SOL    HW249877   7.708  11.903   1.312
15994SOL     OW49878  12.659  11.037   3.191
15994SOL    HW149879  12.692  10.947   3.196
15994SOL    HW249880  12.707  11.076   3.118
15995SOL     OW49881   2.932   7.738  14.268
15995SOL    HW149882   2.965   7.738  14.359
15995SOL    HW249883   3.001   7.782  14.219
15996SOL     OW49884   3.497   3.714  13.676
15996SOL    HW149885   3.497   3.660  13.597
15996SOL    HW249886   3.583   3.699  13.716
15997SOL     OW49887   3.848   0.121   7.456
15997SOL    HW149888   3.883   0.160   7.536
15997SOL    HW249889   3.766   0.169   7.440
15998SOL     OW49890   7.063  14.234   6.007
15998SOL    HW149891   7.014  14.316   6.020
15998SOL    HW249892   7.016  14.170   6.060
15999SOL     OW49893   8.972   3.560   1.179
15999SOL    HW149894   8.910   3.543   1.249
15999SOL    HW249895   8.967   3.654   1.165
16000SOL     OW49896   1.717   0.217  13.851
16000SOL    HW149897   1.652   0.262  13.905
16000SOL    HW249898   1.801   0.241  13.889
16001SOL     OW49899   2.021   4.234   7.106
16001SOL    HW149900   2.082   4.202   7.039
16001SOL    HW249901   2.072   4.232   7.187
16002SOL     OW49902   4.354   3.028  13.821
16002SOL    HW149903   4.310   2.949  13.854
16002SOL    HW249904   4.331   3.031  13.728
16003SOL     OW49905  12.956   1.077  14.030
16003SOL    HW149906  12.994   1.036  13.953
16003SOL    HW249907  12.966   1.171  14.016
16004SOL     OW49908   3.590   6.635   3.763
16004SOL    HW149909   3.577   6.669   3.852
16004SOL    HW249910   3.540   6.694   3.707
16005SOL     OW49911  12.011  13.643   5.631
16005SOL    HW149912  11.916  13.641   5.648
16005SOL    HW249913  12.042  13.720   5.679
16006SOL     OW49914  11.516   7.018  11.597
16006SOL    HW149915  11.527   6.970  11.515
16006SOL    HW249916  11.487   7.105  11.569
16007SOL     OW49917   4.962  10.604   1.150
16007SOL    HW149918   4.885  10.573   1.198
16007SOL    HW249919   4.931  10.681   1.103
16008SOL     OW49920   1.014  13.422   5.997
16008SOL    HW149921   1.047  13.483   6.063
16008SOL    HW249922   1.093  13.387   5.956
16009SOL     OW49923   3.644   3.708   0.922
16009SOL    HW149924   3.577   3.734   0.858
16009SOL    HW249925   3.596   3.700   1.004
16010SOL     OW49926   3.394  10.919   6.381
16010SOL    HW149927   3.397  10.825   6.364
16010SOL    HW249928   3.485  10.945   6.389
16011SOL     OW49929  10.923   5.358   6.511
16011SOL    HW149930  10.903   5.294   6.579
16011SOL    HW249931  10.994   5.411   6.548
16012SOL     OW49932   2.444   6.820   0.149
16012SOL    HW149933   2.464   6.872   0.071
16012SOL    HW249934   2.351   6.838   0.167
16013SOL     OW49935  11.344   6.813   4.999
16013SOL    HW149936  11.354   6.862   4.918
16013SOL    HW249937  11.252   6.823   5.022
16014SOL     OW49938   2.114   1.296  11.272
16014SOL    HW149939   2.203   1.331  11.268
16014SOL    HW249940   2.094   1.272  11.182
16015SOL     OW49941   8.845   0.940  10.076
16015SOL    HW149942   8.775   0.908  10.019
16015SOL    HW249943   8.892   1.003  10.023
16016SOL     OW49944   7.867   9.671   5.633
16016SOL    HW149945   7.922   9.674   5.711
16016SOL    HW249946   7.925   9.642   5.563
16017SOL     OW49947   3.702  12.147   2.002
16017SOL    HW149948   3.655  12.079   2.050
16017SOL    HW249949   3.633  12.210   1.977
16018SOL     OW49950  10.695   5.442   2.026
16018SOL    HW149951  10.781   5.407   2.000
16018SOL    HW249952  10.716   5.523   2.073
16019SOL     OW49953   2.962  11.078   4.317
16019SOL    HW149954   2.994  11.135   4.247
16019SOL    HW249955   3.023  11.092   4.389
16020SOL     OW49956  10.624  12.306   7.286
16020SOL    HW149957  10.710  12.279   7.253
16020SOL    HW249958  10.572  12.321   7.207
16021SOL     OW49959   2.791  14.066   4.282
16021SOL    HW149960   2.728  14.050   4.212
16021SOL    HW249961   2.873  14.029   4.250
16022SOL     OW49962   9.463   8.675  12.147
16022SOL    HW149963   9.393   8.738  12.165
16022SOL    HW249964   9.536   8.705  12.201
16023SOL     OW49965  12.013   5.677  11.583
16023SOL    HW149966  12.098   5.721  11.589
16023SOL    HW249967  11.969   5.721  11.510
16024SOL     OW49968  11.941  12.627   7.911
16024SOL    HW149969  11.878  12.625   7.983
16024SOL    HW249970  11.887  12.638   7.832
16025SOL     OW49971   4.879  11.377   0.366
16025SOL    HW149972   4.968  11.412   0.368
16025SOL    HW249973   4.838  11.408   0.446
16026SOL     OW49974  10.072   6.903   2.533
16026SOL    HW149975  10.146   6.962   2.520
16026SOL    HW249976  10.073   6.846   2.456
16027SOL     OW49977   1.319  13.304  14.564
16027SOL    HW149978   1.233  13.291  14.603
16027SOL    HW249979   1.304  13.367  14.493
16028SOL     OW49980   5.035  14.675   5.979
16028SOL    HW149981   5.105  14.633   5.930
16028SOL    HW249982   5.044  14.641   6.068
16029SOL     OW49983   4.649  11.358   2.748
16029SOL    HW149984   4.700  11.306   2.686
16029SOL    HW249985   4.641  11.444   2.707
16030SOL     OW49986   0.973   9.467   9.682
16030SOL    HW149987   1.020   9.488   9.601
16030SOL    HW249988   1.035   9.414   9.732
16031SOL     OW49989   0.221   9.616   0.369
16031SOL    HW149990   0.297   9.650   0.321
16031SOL    HW249991   0.151   9.680   0.352
16032SOL     OW49992   2.210   6.204   7.516
16032SOL    HW149993   2.224   6.220   7.423
16032SOL    HW249994   2.253   6.279   7.559
16033SOL     OW49995   4.370   8.950  13.858
16033SOL    HW149996   4.425   8.880  13.822
16033SOL    HW249997   4.295   8.954  13.800
16034SOL     OW49998   0.761   2.433   7.887
16034SOL    HW149999   0.757   2.337   7.888
16034SOL    HW250000   0.847   2.453   7.850
16035SOL     OW50001  10.426   2.002  10.930
16035SOL    HW150002  10.435   2.095  10.951
16035SOL    HW250003  10.399   1.961  11.012
16036SOL     OW50004  10.591   4.270   1.074
16036SOL    HW150005  10.649   4.242   1.144
16036SOL    HW250006  10.555   4.354   1.104
16037SOL     OW50007   2.286   7.305   1.947
16037SOL    HW150008   2.297   7.276   1.857
16037SOL    HW250009   2.198   7.276   1.971
16038SOL     OW50010   5.959   9.253   2.503
16038SOL    HW150011   5.952   9.222   2.593
16038SOL    HW250012   5.954   9.348   2.510
16039SOL     OW50013   4.709   4.124  12.457
16039SOL    HW150014   4.730   4.136  12.364
16039SOL    HW250015   4.681   4.211  12.486
16040SOL     OW50016   8.949   2.888  12.751
16040SOL    HW150017   8.865   2.921  12.782
16040SOL    HW250018   9.002   2.878  12.830
16041SOL     OW50019  14.446   7.995   1.207
16041SOL    HW150020  14.471   7.943   1.283
16041SOL    HW250021  14.526   8.003   1.155
16042SOL     OW50022   8.379  11.366   2.578
16042SOL    HW150023   8.474  11.354   2.568
16042SOL    HW250024   8.341  11.284   2.545
16043SOL     OW50025   5.703  11.382  13.280
16043SOL    HW150026   5.681  11.443  13.351
16043SOL    HW250027   5.725  11.438  13.206
16044SOL     OW50028   1.622  10.688   8.285
16044SOL    HW150029   1.592  10.777   8.266
16044SOL    HW250030   1.610  10.641   8.203
16045SOL     OW50031   2.424   0.091   4.619
16045SOL    HW150032   2.441   0.169   4.672
16045SOL    HW250033   2.364   0.039   4.672
16046SOL     OW50034   3.090  11.702  12.354
16046SOL    HW150035   3.184  11.702  12.333
16046SOL    HW250036   3.048  11.734  12.274
16047SOL     OW50037   7.579   3.657  10.562
16047SOL    HW150038   7.664   3.613  10.570
16047SOL    HW250039   7.595   3.729  10.501
16048SOL     OW50040   0.461   8.356   7.065
16048SOL    HW150041   0.381   8.328   7.020
16048SOL    HW250042   0.522   8.284   7.052
16049SOL     OW50043   9.209   2.196   7.535
16049SOL    HW150044   9.158   2.165   7.610
16049SOL    HW250045   9.291   2.146   7.540
16050SOL     OW50046   0.805   5.817   3.972
16050SOL    HW150047   0.896   5.786   3.973
16050SOL    HW250048   0.763   5.764   3.903
16051SOL     OW50049   6.426   8.024   5.005
16051SOL    HW150050   6.421   7.934   4.973
16051SOL    HW250051   6.481   8.018   5.083
16052SOL     OW50052   9.485   2.900  12.784
16052SOL    HW150053   9.406   2.868  12.829
16052SOL    HW250054   9.514   2.825  12.732
16053SOL     OW50055  10.473   7.887   4.047
16053SOL    HW150056  10.411   7.889   3.975
16053SOL    HW250057  10.539   7.953   4.025
16054SOL     OW50058   2.413   5.785  12.718
16054SOL    HW150059   2.455   5.871  12.713
16054SOL    HW250060   2.399   5.771  12.812
16055SOL     OW50061   4.714  13.203   4.789
16055SOL    HW150062   4.709  13.153   4.870
16055SOL    HW250063   4.808  13.215   4.773
16056SOL     OW50064   5.890  10.741   2.488
16056SOL    HW150065   5.850  10.667   2.443
16056SOL    HW250066   5.909  10.803   2.417
16057SOL     OW50067   8.301   0.539   4.352
16057SOL    HW150068   8.320   0.489   4.273
16057SOL    HW250069   8.239   0.607   4.323
16058SOL     OW50070  13.955  11.462   0.283
16058SOL    HW150071  13.994  11.478   0.197
16058SOL    HW250072  13.963  11.367   0.295
16059SOL     OW50073   0.710   3.123  12.034
16059SOL    HW150074   0.775   3.082  12.091
16059SOL    HW250075   0.724   3.217  12.044
16060SOL     OW50076   3.119   0.238   9.432
16060SOL    HW150077   3.067   0.177   9.380
16060SOL    HW250078   3.192   0.186   9.465
16061SOL     OW50079   2.161  10.355   6.424
16061SOL    HW150080   2.099  10.424   6.449
16061SOL    HW250081   2.107  10.276   6.420
16062SOL     OW50082   9.838   1.081   5.650
16062SOL    HW150083   9.875   1.109   5.567
16062SOL    HW250084   9.814   1.162   5.695
16063SOL     OW50085  14.181   8.463   0.591
16063SOL    HW150086  14.188   8.527   0.662
16063SOL    HW250087  14.204   8.512   0.512
16064SOL     OW50088   7.072  10.912  11.912
16064SOL    HW150089   7.007  10.843  11.902
16064SOL    HW250090   7.081  10.949  11.824
16065SOL     OW50091   3.011  13.210   7.920
16065SOL    HW150092   3.100  13.200   7.952
16065SOL    HW250093   2.996  13.131   7.868
16066SOL     OW50094  14.717   9.622   9.005
16066SOL    HW150095  14.682   9.655   9.088
16066SOL    HW250096  14.792   9.569   9.030
16067SOL     OW50097   2.829   5.860   5.513
16067SOL    HW150098   2.827   5.764   5.516
16067SOL    HW250099   2.909   5.881   5.466
16068SOL     OW50100   3.805  11.434   3.613
16068SOL    HW150101   3.739  11.412   3.678
16068SOL    HW250102   3.816  11.529   3.621
16069SOL     OW50103   1.014   4.935   3.460
16069SOL    HW150104   0.950   4.876   3.499
16069SOL    HW250105   1.019   5.009   3.520
16070SOL     OW50106   3.232   9.416  11.084
16070SOL    HW150107   3.306   9.399  11.142
16070SOL    HW250108   3.223   9.512  11.083
16071SOL     OW50109  10.474   2.201  14.287
16071SOL    HW150110  10.439   2.251  14.213
16071SOL    HW250111  10.427   2.118  14.285
16072SOL     OW50112   1.593  10.462   4.741
16072SOL    HW150113   1.657  10.508   4.795
16072SOL    HW250114   1.643  10.432   4.665
16073SOL     OW50115  14.296   3.555   5.317
16073SOL    HW150116  14.252   3.615   5.378
16073SOL    HW250117  14.357   3.611   5.269
16074SOL     OW50118   2.041  13.203   0.643
16074SOL    HW150119   2.098  13.133   0.675
16074SOL    HW250120   1.962  13.159   0.613
16075SOL     OW50121   7.195   3.881   6.205
16075SOL    HW150122   7.124   3.840   6.255
16075SOL    HW250123   7.210   3.822   6.131
16076SOL     OW50124   9.618  12.906  11.004
16076SOL    HW150125   9.668  12.870  10.931
16076SOL    HW250126   9.555  12.965  10.962
16077SOL     OW50127   6.314  10.379  13.512
16077SOL    HW150128   6.342  10.370  13.604
16077SOL    HW250129   6.242  10.441  13.516
16078SOL     OW50130  11.723   4.792   5.227
16078SOL    HW150131  11.686   4.856   5.288
16078SOL    HW250132  11.690   4.708   5.258
16079SOL     OW50133   9.628   8.821   4.438
16079SOL    HW150134   9.613   8.728   4.457
16079SOL    HW250135   9.674   8.853   4.516
16080SOL     OW50136   5.426   5.262   1.487
16080SOL    HW150137   5.516   5.241   1.461
16080SOL    HW250138   5.385   5.177   1.502
16081SOL     OW50139   0.641  14.699   5.336
16081SOL    HW150140   0.716  14.673   5.390
16081SOL    HW250141   0.614  14.619   5.292
16082SOL     OW50142  10.129   5.355  11.101
16082SOL    HW150143  10.095   5.401  11.024
16082SOL    HW250144  10.220   5.336  11.079
16083SOL     OW50145   2.587   5.772   3.078
16083SOL    HW150146   2.642   5.849   3.066
16083SOL    HW250147   2.646   5.697   3.067
16084SOL     OW50148  12.202   9.034   4.482
16084SOL    HW150149  12.210   9.056   4.389
16084SOL    HW250150  12.161   8.947   4.483
16085SOL     OW50151  10.018  10.595  12.655
16085SOL    HW150152  10.063  10.579  12.572
16085SOL    HW250153  10.039  10.686  12.676
16086SOL     OW50154   2.896   2.152   2.440
16086SOL    HW150155   2.834   2.207   2.488
16086SOL    HW250156   2.914   2.079   2.499
16087SOL     OW50157   2.793  13.182  12.957
16087SOL    HW150158   2.872  13.151  13.002
16087SOL    HW250159   2.794  13.137  12.873
16088SOL     OW50160   1.266  14.377   0.044
16088SOL    HW150161   1.250  14.470   0.028
16088SOL    HW250162   1.224  14.360   0.128
16089SOL     OW50163   8.293   3.615   2.223
16089SOL    HW150164   8.310   3.521   2.234
16089SOL    HW250165   8.198   3.623   2.237
16090SOL     OW50166   2.278  11.995  11.750
16090SOL    HW150167   2.273  12.049  11.829
16090SOL    HW250168   2.291  12.059  11.679
16091SOL     OW50169  10.102   1.274   3.989
16091SOL    HW150170  10.021   1.316   4.018
16091SOL    HW250171  10.168   1.344   3.992
16092SOL     OW50172   5.983   3.802  10.782
16092SOL    HW150173   5.906   3.750  10.758
16092SOL    HW250174   5.978   3.810  10.877
16093SOL     OW50175   6.111  14.340  14.254
16093SOL    HW150176   6.166  14.367  14.328
16093SOL    HW250177   6.172  14.321  14.183
16094SOL     OW50178  11.977   1.522  12.348
16094SOL    HW150179  12.061   1.492  12.382
16094SOL    HW250180  11.998   1.599  12.295
16095SOL     OW50181   7.903   7.148  10.169
16095SOL    HW150182   7.869   7.220  10.117
16095SOL    HW250183   7.915   7.076  10.106
16096SOL     OW50184   8.104  14.839   6.727
16096SOL    HW150185   8.158  14.854   6.804
16096SOL    HW250186   8.166  14.814   6.659
16097SOL     OW50187   8.438   6.154   5.449
16097SOL    HW150188   8.354   6.134   5.408
16097SOL    HW250189   8.430   6.246   5.475
16098SOL     OW50190   5.092   6.683   0.754
16098SOL    HW150191   5.179   6.706   0.720
16098SOL    HW250192   5.034   6.749   0.715
16099SOL     OW50193   5.798   2.449   5.978
16099SOL    HW150194   5.859   2.521   5.963
16099SOL    HW250195   5.759   2.434   5.892
16100SOL     OW50196   5.837   6.904   0.581
16100SOL    HW150197   5.864   6.978   0.634
16100SOL    HW250198   5.913   6.885   0.526
16101SOL     OW50199   5.269   0.936  10.402
16101SOL    HW150200   5.189   0.929  10.350
16101SOL    HW250201   5.337   0.961  10.340
16102SOL     OW50202   0.900  10.145   9.701
16102SOL    HW150203   0.989  10.175   9.718
16102SOL    HW250204   0.857  10.147   9.787
16103SOL     OW50205  11.405   5.380  11.124
16103SOL    HW150206  11.359   5.306  11.163
16103SOL    HW250207  11.358   5.457  11.157
16104SOL     OW50208   2.819   9.534  11.172
16104SOL    HW150209   2.798   9.517  11.080
16104SOL    HW250210   2.878   9.463  11.197
16105SOL     OW50211   7.835   6.832   5.704
16105SOL    HW150212   7.808   6.776   5.776
16105SOL    HW250213   7.920   6.796   5.676
16106SOL     OW50214   2.223  13.727   6.917
16106SOL    HW150215   2.163  13.790   6.957
16106SOL    HW250216   2.169  13.650   6.899
16107SOL     OW50217  12.045  10.809  10.567
16107SOL    HW150218  12.137  10.783  10.558
16107SOL    HW250219  12.032  10.874  10.498
16108SOL     OW50220   6.266   4.908  14.090
16108SOL    HW150221   6.288   4.947  14.006
16108SOL    HW250222   6.294   4.817  14.083
16109SOL     OW50223   5.687   0.850   6.787
16109SOL    HW150224   5.658   0.837   6.877
16109SOL    HW250225   5.746   0.925   6.791
16110SOL     OW50226  12.677   6.494  11.407
16110SOL    HW150227  12.677   6.499  11.502
16110SOL    HW250228  12.702   6.403  11.388
16111SOL     OW50229   3.970   0.979   8.916
16111SOL    HW150230   3.929   1.039   8.854
16111SOL    HW250231   3.902   0.959   8.980
16112SOL     OW50232   2.589  13.793   1.557
16112SOL    HW150233   2.670  13.745   1.538
16112SOL    HW250234   2.611  13.884   1.539
16113SOL     OW50235  13.187   9.903   1.553
16113SOL    HW150236  13.129   9.945   1.489
16113SOL    HW250237  13.137   9.827   1.583
16114SOL     OW50238  13.326   3.562  12.145
16114SOL    HW150239  13.326   3.593  12.054
16114SOL    HW250240  13.268   3.487  12.144
16115SOL     OW50241  11.872   8.421   7.342
16115SOL    HW150242  11.896   8.456   7.428
16115SOL    HW250243  11.776   8.419   7.343
16116SOL     OW50244  14.010   8.659   8.755
16116SOL    HW150245  14.102   8.669   8.729
16116SOL    HW250246  13.968   8.617   8.680
16117SOL     OW50247   7.218   2.151   1.173
16117SOL    HW150248   7.200   2.240   1.143
16117SOL    HW250249   7.229   2.101   1.092
16118SOL     OW50250   3.052   9.867   9.769
16118SOL    HW150251   3.147   9.869   9.780
16118SOL    HW250252   3.020   9.824   9.848
16119SOL     OW50253   2.497   4.592  14.132
16119SOL    HW150254   2.489   4.599  14.037
16119SOL    HW250255   2.577   4.542  14.145
16120SOL     OW50256   0.670   4.060   8.982
16120SOL    HW150257   0.598   4.112   9.018
16120SOL    HW250258   0.649   4.050   8.889
16121SOL     OW50259   1.076  11.896   3.695
16121SOL    HW150260   1.031  11.944   3.764
16121SOL    HW250261   1.164  11.881   3.730
16122SOL     OW50262   7.722   4.757  13.735
16122SOL    HW150263   7.630   4.737  13.750
16122SOL    HW250264   7.746   4.706  13.658
16123SOL     OW50265   7.306   7.073   8.010
16123SOL    HW150266   7.300   7.001   7.946
16123SOL    HW250267   7.216   7.103   8.020
16124SOL     OW50268   2.558   6.658   9.394
16124SOL    HW150269   2.634   6.621   9.438
16124SOL    HW250270   2.487   6.598   9.414
16125SOL     OW50271   8.253   8.261  14.473
16125SOL    HW150272   8.288   8.238  14.559
16125SOL    HW250273   8.317   8.323  14.437
16126SOL     OW50274   0.312  11.565  13.802
16126SOL    HW150275   0.231  11.606  13.833
16126SOL    HW250276   0.381  11.607  13.853
16127SOL     OW50277   9.437   7.580  10.804
16127SOL    HW150278   9.378   7.566  10.730
16127SOL    HW250279   9.414   7.512  10.867
16128SOL     OW50280   0.131   3.551  10.663
16128SOL    HW150281   0.179   3.469  10.677
16128SOL    HW250282   0.162   3.584  10.579
16129SOL     OW50283  11.675  13.530   0.845
16129SOL    HW150284  11.583  13.505   0.853
16129SOL    HW250285  11.699  13.506   0.756
16130SOL     OW50286   2.288   5.343   1.058
16130SOL    HW150287   2.286   5.320   1.152
16130SOL    HW250288   2.335   5.426   1.055
16131SOL     OW50289   4.816   2.666  10.911
16131SOL    HW150290   4.890   2.605  10.904
16131SOL    HW250291   4.846   2.733  10.973
16132SOL     OW50292  12.741   1.012  13.050
16132SOL    HW150293  12.736   1.045  12.961
16132SOL    HW250294  12.701   1.081  13.104
16133SOL     OW50295   1.260   2.331  13.244
16133SOL    HW150296   1.209   2.294  13.316
16133SOL    HW250297   1.313   2.400  13.284
16134SOL     OW50298   9.507   4.372   2.228
16134SOL    HW150299   9.559   4.324   2.292
16134SOL    HW250300   9.418   4.338   2.239
16135SOL     OW50301  13.106   0.037  11.346
16135SOL    HW150302  13.178   0.094  11.321
16135SOL    HW250303  13.137  14.821  11.327
16136SOL     OW50304   5.913  13.170   1.223
16136SOL    HW150305   5.858  13.226   1.278
16136SOL    HW250306   5.966  13.120   1.285
16137SOL     OW50307   5.123   1.968  14.016
16137SOL    HW150308   5.208   1.929  14.039
16137SOL    HW250309   5.142   2.025  13.942
16138SOL     OW50310   0.204   0.425   2.894
16138SOL    HW150311   0.239   0.336   2.906
16138SOL    HW250312   0.186   0.431   2.800
16139SOL     OW50313   1.461   8.392  13.992
16139SOL    HW150314   1.501   8.443  13.922
16139SOL    HW250315   1.527   8.326  14.015
16140SOL     OW50316   6.761   4.982   9.623
16140SOL    HW150317   6.772   4.887   9.618
16140SOL    HW250318   6.685   4.995   9.679
16141SOL     OW50319   0.475   4.119   4.569
16141SOL    HW150320   0.526   4.040   4.580
16141SOL    HW250321   0.539   4.190   4.571
16142SOL     OW50322   6.318   8.788   1.735
16142SOL    HW150323   6.281   8.701   1.722
16142SOL    HW250324   6.413   8.776   1.724
16143SOL     OW50325  10.197   1.190   1.512
16143SOL    HW150326  10.178   1.174   1.604
16143SOL    HW250327  10.114   1.220   1.475
16144SOL     OW50328   1.720  10.053   4.880
16144SOL    HW150329   1.762  10.040   4.965
16144SOL    HW250330   1.686   9.966   4.857
16145SOL     OW50331   7.095   5.164   3.024
16145SOL    HW150332   7.121   5.220   2.951
16145SOL    HW250333   7.000   5.154   3.015
16146SOL     OW50334  14.452   1.194   0.156
16146SOL    HW150335  14.455   1.198   0.060
16146SOL    HW250336  14.466   1.101   0.176
16147SOL     OW50337   0.107   0.965   1.546
16147SOL    HW150338   0.092   1.059   1.541
16147SOL    HW250339   0.121   0.938   1.455
16148SOL     OW50340  13.391   0.109   4.959
16148SOL    HW150341  13.428   0.048   5.023
16148SOL    HW250342  13.362   0.054   4.886
16149SOL     OW50343  14.063   7.181   6.191
16149SOL    HW150344  14.088   7.212   6.104
16149SOL    HW250345  14.036   7.260   6.238
16150SOL     OW50346  13.394   1.140   5.494
16150SOL    HW150347  13.453   1.094   5.553
16150SOL    HW250348  13.307   1.104   5.514
16151SOL     OW50349   2.333   0.537   6.310
16151SOL    HW150350   2.337   0.550   6.404
16151SOL    HW250351   2.404   0.592   6.275
16152SOL     OW50352  13.716  13.199  13.819
16152SOL    HW150353  13.622  13.192  13.804
16152SOL    HW250354  13.754  13.211  13.732
16153SOL     OW50355  10.384  11.358  13.614
16153SOL    HW150356  10.415  11.447  13.594
16153SOL    HW250357  10.328  11.336  13.539
16154SOL     OW50358   9.345   2.693   8.342
16154SOL    HW150359   9.373   2.763   8.283
16154SOL    HW250360   9.255   2.674   8.315
16155SOL     OW50361   9.382   0.518   7.131
16155SOL    HW150362   9.321   0.567   7.186
16155SOL    HW250363   9.326   0.462   7.077
16156SOL     OW50364  12.425   9.219   3.455
16156SOL    HW150365  12.492   9.203   3.389
16156SOL    HW250366  12.465   9.281   3.516
16157SOL     OW50367   7.856   2.953  12.984
16157SOL    HW150368   7.941   2.965  13.027
16157SOL    HW250369   7.877   2.914  12.900
16158SOL     OW50370  10.403   2.258   4.216
16158SOL    HW150371  10.310   2.247   4.196
16158SOL    HW250372  10.448   2.209   4.146
16159SOL     OW50373   2.956  10.862   5.107
16159SOL    HW150374   2.927  10.772   5.120
16159SOL    HW250375   2.928  10.885   5.018
16160SOL     OW50376  14.271   1.346   7.913
16160SOL    HW150377  14.178   1.365   7.899
16160SOL    HW250378  14.279   1.252   7.899
16161SOL     OW50379   6.711   1.753  14.649
16161SOL    HW150380   6.769   1.719  14.717
16161SOL    HW250381   6.755   1.832  14.617
16162SOL     OW50382   2.475   9.288   5.419
16162SOL    HW150383   2.410   9.219   5.428
16162SOL    HW250384   2.441   9.360   5.472
16163SOL     OW50385  11.256  14.270   1.622
16163SOL    HW150386  11.332  14.221   1.590
16163SOL    HW250387  11.239  14.336   1.554
16164SOL     OW50388   3.256  10.355   5.218
16164SOL    HW150389   3.253  10.443   5.257
16164SOL    HW250390   3.336  10.316   5.253
16165SOL     OW50391  13.437  13.303   4.215
16165SOL    HW150392  13.500  13.297   4.143
16165SOL    HW250393  13.359  13.341   4.176
16166SOL     OW50394   9.459   9.506   2.785
16166SOL    HW150395   9.539   9.484   2.834
16166SOL    HW250396   9.391   9.450   2.822
16167SOL     OW50397   3.201  13.568   4.668
16167SOL    HW150398   3.223  13.541   4.757
16167SOL    HW250399   3.282  13.554   4.618
16168SOL     OW50400   6.964  10.866   9.426
16168SOL    HW150401   6.987  10.782   9.466
16168SOL    HW250402   6.889  10.846   9.369
16169SOL     OW50403   2.855   1.964  14.616
16169SOL    HW150404   2.942   1.990  14.584
16169SOL    HW250405   2.794   2.009  14.559
16170SOL     OW50406   1.640   1.963  12.734
16170SOL    HW150407   1.630   1.986  12.641
16170SOL    HW250408   1.550   1.965  12.769
16171SOL     OW50409  11.560  11.720   3.440
16171SOL    HW150410  11.481  11.714   3.494
16171SOL    HW250411  11.631  11.700   3.501
16172SOL     OW50412   5.676  13.146  10.520
16172SOL    HW150413   5.645  13.159  10.430
16172SOL    HW250414   5.598  13.120  10.569
16173SOL     OW50415  11.057  13.402  10.157
16173SOL    HW150416  11.147  13.414  10.187
16173SOL    HW250417  11.004  13.417  10.235
16174SOL     OW50418  13.373   4.809   6.211
16174SOL    HW150419  13.333   4.845   6.291
16174SOL    HW250420  13.389   4.885   6.156
16175SOL     OW50421   8.709   1.809   3.817
16175SOL    HW150422   8.667   1.778   3.737
16175SOL    HW250423   8.802   1.794   3.803
16176SOL     OW50424  10.577  14.038  12.098
16176SOL    HW150425  10.618  14.079  12.022
16176SOL    HW250426  10.588  13.944  12.084
16177SOL     OW50427   9.270   4.007   6.160
16177SOL    HW150428   9.323   4.075   6.119
16177SOL    HW250429   9.180   4.029   6.136
16178SOL     OW50430   5.583  10.571   5.108
16178SOL    HW150431   5.552  10.633   5.175
16178SOL    HW250432   5.672  10.600   5.088
16179SOL     OW50433  14.669   7.952   5.120
16179SOL    HW150434  14.726   7.977   5.047
16179SOL    HW250435  14.718   7.884   5.167
16180SOL     OW50436   0.126   3.525   7.321
16180SOL    HW150437   0.119   3.516   7.416
16180SOL    HW250438   0.212   3.565   7.308
16181SOL     OW50439   7.650   5.670   4.519
16181SOL    HW150440   7.653   5.713   4.433
16181SOL    HW250441   7.741   5.671   4.550
16182SOL     OW50442   7.355   8.997  10.985
16182SOL    HW150443   7.276   8.948  11.005
16182SOL    HW250444   7.424   8.954  11.036
16183SOL     OW50445   2.523   4.092  10.887
16183SOL    HW150446   2.594   4.046  10.933
16183SOL    HW250447   2.514   4.046  10.804
16184SOL     OW50448  10.994   3.829   4.094
16184SOL    HW150449  10.959   3.752   4.048
16184SOL    HW250450  11.021   3.888   4.024
16185SOL     OW50451   3.693   8.830  13.781
16185SOL    HW150452   3.743   8.822  13.863
16185SOL    HW250453   3.640   8.909  13.793
16186SOL     OW50454  13.537   3.350  10.282
16186SOL    HW150455  13.511   3.272  10.233
16186SOL    HW250456  13.632   3.344  10.290
16187SOL     OW50457  13.477   4.336  10.067
16187SOL    HW150458  13.553   4.277  10.077
16187SOL    HW250459  13.406   4.279  10.037
16188SOL     OW50460   3.464   8.120   8.995
16188SOL    HW150461   3.549   8.117   9.038
16188SOL    HW250462   3.445   8.213   8.984
16189SOL     OW50463   6.110   4.140  12.742
16189SOL    HW150464   6.063   4.057  12.731
16189SOL    HW250465   6.097   4.162  12.835
16190SOL     OW50466   9.991   5.285   1.493
16190SOL    HW150467  10.053   5.358   1.505
16190SOL    HW250468  10.047   5.210   1.472
16191SOL     OW50469   2.337   9.954   5.928
16191SOL    HW150470   2.386   9.956   6.010
16191SOL    HW250471   2.403   9.955   5.859
16192SOL     OW50472  12.895  12.127   4.508
16192SOL    HW150473  12.860  12.163   4.589
16192SOL    HW250474  12.854  12.178   4.439
16193SOL     OW50475  10.072   9.423  12.140
16193SOL    HW150476  10.069   9.517  12.158
16193SOL    HW250477  10.142   9.414  12.075
16194SOL     OW50478   9.535  13.280   1.346
16194SOL    HW150479   9.469  13.212   1.335
16194SOL    HW250480   9.527  13.334   1.267
16195SOL     OW50481   2.894   4.040  14.602
16195SOL    HW150482   2.852   3.956  14.581
16195SOL    HW250483   2.926   4.028  14.691
16196SOL     OW50484   4.467  12.370   4.887
16196SOL    HW150485   4.447  12.324   4.805
16196SOL    HW250486   4.431  12.458   4.873
16197SOL     OW50487  13.319   5.644   0.563
16197SOL    HW150488  13.225   5.634   0.545
16197SOL    HW250489  13.361   5.575   0.511
16198SOL     OW50490   3.443   9.286   4.471
16198SOL    HW150491   3.351   9.265   4.455
16198SOL    HW250492   3.440   9.369   4.519
16199SOL     OW50493  10.853   0.272   8.125
16199SOL    HW150494  10.800   0.285   8.204
16199SOL    HW250495  10.816   0.194   8.084
16200SOL     OW50496   5.094  10.229   7.768
16200SOL    HW150497   5.066  10.199   7.681
16200SOL    HW250498   5.012  10.238   7.817
16201SOL     OW50499   3.905  13.422  13.200
16201SOL    HW150500   3.811  13.425  13.218
16201SOL    HW250501   3.942  13.486  13.261
16202SOL     OW50502  10.401  13.279  13.975
16202SOL    HW150503  10.348  13.359  13.978
16202SOL    HW250504  10.392  13.247  13.885
16203SOL     OW50505   6.417  11.359   3.558
16203SOL    HW150506   6.416  11.265   3.578
16203SOL    HW250507   6.352  11.396   3.618
16204SOL     OW50508   5.383   4.903  12.302
16204SOL    HW150509   5.429   4.821  12.287
16204SOL    HW250510   5.425   4.941  12.379
16205SOL     OW50511   0.212   7.499  11.493
16205SOL    HW150512   0.305   7.520  11.503
16205SOL    HW250513   0.180   7.489  11.583
16206SOL     OW50514   8.130   4.121   2.096
16206SOL    HW150515   8.058   4.164   2.049
16206SOL    HW250516   8.135   4.034   2.056
16207SOL     OW50517   7.040   0.862   8.711
16207SOL    HW150518   7.032   0.921   8.636
16207SOL    HW250519   7.134   0.847   8.720
16208SOL     OW50520   5.318   9.312  10.916
16208SOL    HW150521   5.373   9.359  10.979
16208SOL    HW250522   5.362   9.228  10.904
16209SOL     OW50523  10.480  10.883   1.691
16209SOL    HW150524  10.511  10.963   1.733
16209SOL    HW250525  10.505  10.892   1.599
16210SOL     OW50526  14.823   2.059   3.866
16210SOL    HW150527  14.857   1.997   3.930
16210SOL    HW250528   0.016   2.129   3.863
16211SOL     OW50529  10.168   6.864   3.643
16211SOL    HW150530  10.129   6.793   3.593
16211SOL    HW250531  10.126   6.859   3.729
16212SOL     OW50532   9.028   0.823   9.415
16212SOL    HW150533   9.040   0.792   9.505
16212SOL    HW250534   9.109   0.869   9.394
16213SOL     OW50535   4.711  14.335   6.401
16213SOL    HW150536   4.752  14.253   6.427
16213SOL    HW250537   4.656  14.312   6.326
16214SOL     OW50538   7.798   6.390  10.285
16214SOL    HW150539   7.741   6.465  10.304
16214SOL    HW250540   7.745   6.334  10.228
16215SOL     OW50541   8.852   0.733   3.718
16215SOL    HW150542   8.936   0.770   3.745
16215SOL    HW250543   8.829   0.672   3.788
16216SOL     OW50544   5.573  12.798  12.346
16216SOL    HW150545   5.586  12.844  12.263
16216SOL    HW250546   5.660  12.765  12.369
16217SOL     OW50547   8.619  10.608   4.731
16217SOL    HW150548   8.708  10.578   4.751
16217SOL    HW250549   8.621  10.702   4.747
16218SOL     OW50550   7.297  10.836   9.581
16218SOL    HW150551   7.255  10.800   9.659
16218SOL    HW250552   7.264  10.926   9.575
16219SOL     OW50553   4.219   6.447   9.160
16219SOL    HW150554   4.170   6.519   9.199
16219SOL    HW250555   4.311   6.467   9.181
16220SOL     OW50556   1.586   1.152   2.405
16220SOL    HW150557   1.614   1.239   2.376
16220SOL    HW250558   1.530   1.169   2.481
16221SOL     OW50559   6.949   5.017   5.530
16221SOL    HW150560   6.951   5.103   5.572
16221SOL    HW250561   6.989   5.032   5.443
16222SOL     OW50562   7.896  10.109   5.336
16222SOL    HW150563   7.911  10.117   5.431
16222SOL    HW250564   7.805  10.134   5.324
16223SOL     OW50565   0.223   6.556   1.443
16223SOL    HW150566   0.238   6.461   1.451
16223SOL    HW250567   0.231   6.573   1.350
16224SOL     OW50568   5.604   9.822  11.725
16224SOL    HW150569   5.697   9.813  11.703
16224SOL    HW250570   5.576   9.900  11.677
16225SOL     OW50571   3.211   1.329   2.581
16225SOL    HW150572   3.211   1.382   2.501
16225SOL    HW250573   3.299   1.292   2.586
16226SOL     OW50574  11.910   2.186   7.958
16226SOL    HW150575  11.875   2.206   7.871
16226SOL    HW250576  11.833   2.186   8.015
16227SOL     OW50577   8.165   7.049   6.945
16227SOL    HW150578   8.071   7.061   6.931
16227SOL    HW250579   8.198   7.138   6.959
16228SOL     OW50580  10.223   3.379   4.757
16228SOL    HW150581  10.198   3.300   4.708
16228SOL    HW250582  10.185   3.451   4.706
16229SOL     OW50583   9.002   2.481   4.099
16229SOL    HW150584   8.950   2.437   4.032
16229SOL    HW250585   9.082   2.430   4.106
16230SOL     OW50586   1.510   9.821  14.721
16230SOL    HW150587   1.558   9.833  14.803
16230SOL    HW250588   1.482   9.730  14.722
16231SOL     OW50589   4.292  14.049  10.344
16231SOL    HW150590   4.385  14.027  10.344
16231SOL    HW250591   4.265  14.039  10.252
16232SOL     OW50592   4.938   1.764   0.350
16232SOL    HW150593   4.911   1.742   0.439
16232SOL    HW250594   4.946   1.679   0.306
16233SOL     OW50595  10.309   6.354   0.645
16233SOL    HW150596  10.353   6.353   0.730
16233SOL    HW250597  10.224   6.394   0.662
16234SOL     OW50598  11.403  11.002   3.359
16234SOL    HW150599  11.461  10.954   3.418
16234SOL    HW250600  11.381  10.939   3.291
16235SOL     OW50601   1.995   6.523  11.319
16235SOL    HW150602   2.050   6.499  11.394
16235SOL    HW250603   2.057   6.533  11.247
16236SOL     OW50604   5.433   5.110   9.345
16236SOL    HW150605   5.436   5.206   9.348
16236SOL    HW250606   5.402   5.090   9.257
16237SOL     OW50607   4.115   0.604   3.101
16237SOL    HW150608   4.051   0.576   3.034
16237SOL    HW250609   4.063   0.611   3.181
16238SOL     OW50610   6.156   4.417   4.990
16238SOL    HW150611   6.150   4.451   5.079
16238SOL    HW250612   6.067   4.392   4.967
16239SOL     OW50613  12.993   8.052   6.918
16239SOL    HW150614  13.001   8.109   6.841
16239SOL    HW250615  13.033   8.103   6.989
16240SOL     OW50616  14.657   9.943  12.894
16240SOL    HW150617  14.567   9.924  12.923
16240SOL    HW250618  14.712   9.896  12.956
16241SOL     OW50619   7.089   9.777   7.188
16241SOL    HW150620   7.160   9.775   7.124
16241SOL    HW250621   7.052   9.865   7.181
16242SOL     OW50622   1.170  10.159  11.253
16242SOL    HW150623   1.221  10.117  11.183
16242SOL    HW250624   1.165  10.251  11.227
16243SOL     OW50625  12.227   3.270  14.570
16243SOL    HW150626  12.212   3.299  14.660
16243SOL    HW250627  12.188   3.183  14.566
16244SOL     OW50628   9.123   8.571   7.751
16244SOL    HW150629   9.076   8.651   7.777
16244SOL    HW250630   9.054   8.504   7.744
16245SOL     OW50631   1.418  12.464  12.669
16245SOL    HW150632   1.372  12.547  12.661
16245SOL    HW250633   1.429  12.433  12.579
16246SOL     OW50634   2.297   5.604   3.479
16246SOL    HW150635   2.248   5.593   3.560
16246SOL    HW250636   2.316   5.515   3.449
16247SOL     OW50637   4.720  11.689   2.911
16247SOL    HW150638   4.781  11.673   2.839
16247SOL    HW250639   4.677  11.771   2.888
16248SOL     OW50640   5.936  11.379  11.259
16248SOL    HW150641   5.881  11.408  11.185
16248SOL    HW250642   6.004  11.325  11.219
16249SOL     OW50643   9.947   5.643  12.095
16249SOL    HW150644   9.914   5.554  12.082
16249SOL    HW250645   9.955   5.678  12.006
16250SOL     OW50646   2.061  12.380   6.175
16250SOL    HW150647   2.129  12.430   6.130
16250SOL    HW250648   1.978  12.417   6.143
16251SOL     OW50649  13.545   6.103   5.781
16251SOL    HW150650  13.482   6.094   5.853
16251SOL    HW250651  13.496   6.078   5.703
16252SOL     OW50652   4.598   6.345  11.693
16252SOL    HW150653   4.523   6.323  11.748
16252SOL    HW250654   4.582   6.436  11.666
16253SOL     OW50655   0.017  12.721  10.369
16253SOL    HW150656  14.803  12.758  10.353
16253SOL    HW250657   0.009  12.629  10.346
16254SOL     OW50658   9.613  12.285   9.556
16254SOL    HW150659   9.681  12.257   9.618
16254SOL    HW250660   9.594  12.376   9.582
16255SOL     OW50661  12.926  11.924   6.732
16255SOL    HW150662  12.927  11.938   6.826
16255SOL    HW250663  12.872  11.846   6.719
16256SOL     OW50664   4.544  11.058  13.724
16256SOL    HW150665   4.520  11.131  13.668
16256SOL    HW250666   4.527  10.980  13.671
16257SOL     OW50667   4.151  14.172   3.973
16257SOL    HW150668   4.235  14.128   3.981
16257SOL    HW250669   4.096  14.110   3.925
16258SOL     OW50670  10.210   5.444  11.467
16258SOL    HW150671  10.273   5.373  11.468
16258SOL    HW250672  10.126   5.401  11.450
16259SOL     OW50673   7.767  12.143  13.359
16259SOL    HW150674   7.796  12.093  13.435
16259SOL    HW250675   7.708  12.084  13.312
16260SOL     OW50676  11.827   2.776   1.745
16260SOL    HW150677  11.811   2.792   1.838
16260SOL    HW250678  11.905   2.828   1.725
16261SOL     OW50679   1.334   4.796   1.414
16261SOL    HW150680   1.243   4.823   1.418
16261SOL    HW250681   1.382   4.864   1.461
16262SOL     OW50682   5.417   4.449   7.550
16262SOL    HW150683   5.466   4.424   7.628
16262SOL    HW250684   5.408   4.544   7.556
16263SOL     OW50685   0.304   9.588   2.729
16263SOL    HW150686   0.400   9.593   2.731
16263SOL    HW250687   0.276   9.645   2.800
16264SOL     OW50688   8.141   6.334   1.448
16264SOL    HW150689   8.111   6.412   1.402
16264SOL    HW250690   8.075   6.318   1.515
16265SOL     OW50691  12.428   6.272  11.624
16265SOL    HW150692  12.507   6.309  11.662
16265SOL    HW250693  12.382   6.346  11.585
16266SOL     OW50694   8.785  10.257   9.031
16266SOL    HW150695   8.741  10.319   8.973
16266SOL    HW250696   8.861  10.228   8.981
16267SOL     OW50697   3.588   8.643   3.197
16267SOL    HW150698   3.620   8.712   3.256
16267SOL    HW250699   3.650   8.644   3.124
16268SOL     OW50700  12.444   1.986   7.699
16268SOL    HW150701  12.406   2.060   7.746
16268SOL    HW250702  12.465   1.923   7.768
16269SOL     OW50703   7.488  12.770   4.910
16269SOL    HW150704   7.561  12.832   4.903
16269SOL    HW250705   7.492  12.719   4.829
16270SOL     OW50706   2.474  13.434  10.344
16270SOL    HW150707   2.462  13.394  10.258
16270SOL    HW250708   2.473  13.528  10.327
16271SOL     OW50709   6.794   9.894   0.633
16271SOL    HW150710   6.732   9.966   0.645
16271SOL    HW250711   6.789   9.875   0.540
16272SOL     OW50712   9.495  12.649   3.045
16272SOL    HW150713   9.542  12.682   3.122
16272SOL    HW250714   9.434  12.585   3.080
16273SOL     OW50715   6.315   5.590  14.793
16273SOL    HW150716   6.336   5.531  14.865
16273SOL    HW250717   6.373   5.666  14.806
16274SOL     OW50718   0.343  13.824   8.415
16274SOL    HW150719   0.346  13.846   8.321
16274SOL    HW250720   0.427  13.783   8.433
16275SOL     OW50721  12.087  12.004   9.277
16275SOL    HW150722  12.080  11.992   9.183
16275SOL    HW250723  12.013  12.060   9.300
16276SOL     OW50724   3.868  11.356   5.716
16276SOL    HW150725   3.955  11.337   5.680
16276SOL    HW250726   3.867  11.451   5.727
16277SOL     OW50727  12.705   7.022  10.200
16277SOL    HW150728  12.682   7.102  10.153
16277SOL    HW250729  12.801   7.019  10.198
16278SOL     OW50730  14.012   4.225  10.604
16278SOL    HW150731  14.007   4.265  10.691
16278SOL    HW250732  13.963   4.284  10.548
16279SOL     OW50733   1.487  11.352   2.135
16279SOL    HW150734   1.547  11.287   2.098
16279SOL    HW250735   1.494  11.427   2.076
16280SOL     OW50736   8.767  12.566   9.557
16280SOL    HW150737   8.768  12.600   9.468
16280SOL    HW250738   8.859  12.543   9.575
16281SOL     OW50739   6.604   3.490   6.341
16281SOL    HW150740   6.678   3.465   6.287
16281SOL    HW250741   6.528   3.484   6.283
16282SOL     OW50742  10.017   0.080   0.426
16282SOL    HW150743   9.971   0.163   0.416
16282SOL    HW250744  10.110   0.102   0.417
16283SOL     OW50745   8.233   3.710   2.877
16283SOL    HW150746   8.198   3.796   2.900
16283SOL    HW250747   8.296   3.727   2.807
16284SOL     OW50748  12.513   5.378   6.174
16284SOL    HW150749  12.450   5.374   6.102
16284SOL    HW250750  12.462   5.360   6.252
16285SOL     OW50751   4.675   9.508  13.482
16285SOL    HW150752   4.755   9.463  13.507
16285SOL    HW250753   4.620   9.504  13.560
16286SOL     OW50754  10.585  13.948  11.331
16286SOL    HW150755  10.656  13.906  11.282
16286SOL    HW250756  10.508  13.894  11.313
16287SOL     OW50757   5.767   2.886  11.441
16287SOL    HW150758   5.846   2.839  11.416
16287SOL    HW250759   5.733   2.922  11.359
16288SOL     OW50760  13.895  13.369   1.793
16288SOL    HW150761  13.926  13.458   1.778
16288SOL    HW250762  13.974  13.318   1.807
16289SOL     OW50763  14.600   7.182   3.162
16289SOL    HW150764  14.527   7.235   3.130
16289SOL    HW250765  14.560   7.099   3.188
16290SOL     OW50766   5.400   5.905  10.619
16290SOL    HW150767   5.465   5.973  10.638
16290SOL    HW250768   5.334   5.918  10.687
16291SOL     OW50769   2.417  10.795   2.345
16291SOL    HW150770   2.357  10.766   2.414
16291SOL    HW250771   2.400  10.734   2.273
16292SOL     OW50772   9.480   6.054   2.540
16292SOL    HW150773   9.452   6.125   2.482
16292SOL    HW250774   9.400   6.028   2.586
16293SOL     OW50775  10.913   9.334   1.513
16293SOL    HW150776  10.895   9.252   1.466
16293SOL    HW250777  10.879   9.318   1.601
16294SOL     OW50778   2.099   4.931   1.294
16294SOL    HW150779   2.008   4.933   1.263
16294SOL    HW250780   2.147   4.886   1.225
16295SOL     OW50781  12.550   1.718  13.209
16295SOL    HW150782  12.544   1.759  13.122
16295SOL    HW250783  12.589   1.786  13.265
16296SOL     OW50784   1.220   0.185   7.260
16296SOL    HW150785   1.203   0.233   7.341
16296SOL    HW250786   1.140   0.135   7.245
16297SOL     OW50787  10.138   5.589   7.505
16297SOL    HW150788  10.139   5.576   7.600
16297SOL    HW250789  10.070   5.529   7.473
16298SOL     OW50790   8.986  11.849   3.204
16298SOL    HW150791   8.982  11.754   3.200
16298SOL    HW250792   8.897  11.877   3.181
16299SOL     OW50793   0.560  10.468   8.527
16299SOL    HW150794   0.569  10.554   8.568
16299SOL    HW250795   0.610  10.475   8.445
16300SOL     OW50796  13.238  11.376   7.148
16300SOL    HW150797  13.323  11.383   7.190
16300SOL    HW250798  13.178  11.351   7.219
16301SOL     OW50799   3.430   7.392  10.877
16301SOL    HW150800   3.416   7.297  10.873
16301SOL    HW250801   3.525   7.403  10.869
16302SOL     OW50802   5.206   8.072   1.219
16302SOL    HW150803   5.246   8.143   1.170
16302SOL    HW250804   5.258   8.066   1.300
16303SOL     OW50805   5.272   3.095  14.166
16303SOL    HW150806   5.262   3.171  14.108
16303SOL    HW250807   5.235   3.022  14.117
16304SOL     OW50808   9.771   7.483   2.721
16304SOL    HW150809   9.747   7.505   2.811
16304SOL    HW250810   9.741   7.557   2.669
16305SOL     OW50811  11.815   2.303   1.040
16305SOL    HW150812  11.813   2.393   1.007
16305SOL    HW250813  11.827   2.313   1.134
16306SOL     OW50814  14.346   1.398   5.389
16306SOL    HW150815  14.393   1.348   5.323
16306SOL    HW250816  14.339   1.486   5.353
16307SOL     OW50817  11.176   2.901   6.856
16307SOL    HW150818  11.180   2.990   6.890
16307SOL    HW250819  11.151   2.911   6.764
16308SOL     OW50820   1.969   7.999  14.294
16308SOL    HW150821   1.906   7.949  14.242
16308SOL    HW250822   1.918   8.036  14.365
16309SOL     OW50823   5.202  12.629   3.657
16309SOL    HW150824   5.167  12.575   3.727
16309SOL    HW250825   5.266  12.573   3.613
16310SOL     OW50826   7.363   9.333   4.621
16310SOL    HW150827   7.277   9.292   4.617
16310SOL    HW250828   7.370   9.367   4.710
16311SOL     OW50829   1.369   3.272   7.166
16311SOL    HW150830   1.437   3.205   7.164
16311SOL    HW250831   1.294   3.232   7.124
16312SOL     OW50832   6.274   5.922   8.452
16312SOL    HW150833   6.256   6.012   8.479
16312SOL    HW250834   6.364   5.906   8.478
16313SOL     OW50835   0.981   1.410   7.796
16313SOL    HW150836   0.993   1.383   7.887
16313SOL    HW250837   0.904   1.467   7.798
16314SOL     OW50838   6.611  12.086   5.973
16314SOL    HW150839   6.655  12.045   6.047
16314SOL    HW250840   6.518  12.079   5.994
16315SOL     OW50841   0.559   4.379   8.434
16315SOL    HW150842   0.597   4.330   8.360
16315SOL    HW250843   0.611   4.459   8.440
16316SOL     OW50844  13.327   7.218   6.284
16316SOL    HW150845  13.344   7.311   6.296
16316SOL    HW250846  13.407   7.183   6.245
16317SOL     OW50847   0.759   2.386  13.817
16317SOL    HW150848   0.818   2.319  13.852
16317SOL    HW250849   0.803   2.419  13.739
16318SOL     OW50850   6.173   7.924   1.753
16318SOL    HW150851   6.097   7.887   1.707
16318SOL    HW250852   6.159   7.900   1.845
16319SOL     OW50853   6.472  13.880   8.560
16319SOL    HW150854   6.552  13.829   8.559
16319SOL    HW250855   6.483  13.941   8.633
16320SOL     OW50856   1.020   0.285   5.922
16320SOL    HW150857   1.057   0.361   5.877
16320SOL    HW250858   1.037   0.301   6.014
16321SOL     OW50859   3.377   9.741   9.113
16321SOL    HW150860   3.385   9.647   9.098
16321SOL    HW250861   3.343   9.776   9.031
16322SOL     OW50862   5.369   9.849   9.066
16322SOL    HW150863   5.338   9.760   9.046
16322SOL    HW250864   5.289   9.900   9.077
16323SOL     OW50865  13.843  13.167  12.300
16323SOL    HW150866  13.924  13.120  12.280
16323SOL    HW250867  13.806  13.122  12.376
16324SOL     OW50868   3.441   7.547  12.479
16324SOL    HW150869   3.350   7.539  12.507
16324SOL    HW250870   3.466   7.459  12.453
16325SOL     OW50871   5.669   6.736   6.727
16325SOL    HW150872   5.730   6.669   6.758
16325SOL    HW250873   5.725   6.810   6.704
16326SOL     OW50874   4.498  13.025   1.119
16326SOL    HW150875   4.410  13.005   1.087
16326SOL    HW250876   4.491  13.113   1.156
16327SOL     OW50877   8.578   0.343  13.885
16327SOL    HW150878   8.641   0.296  13.940
16327SOL    HW250879   8.615   0.339  13.797
16328SOL     OW50880  12.602   4.120   3.346
16328SOL    HW150881  12.617   4.214   3.354
16328SOL    HW250882  12.585   4.090   3.435
16329SOL     OW50883   4.663  13.925   9.941
16329SOL    HW150884   4.609  13.986   9.891
16329SOL    HW250885   4.602  13.880   9.998
16330SOL     OW50886   0.519   6.212   9.677
16330SOL    HW150887   0.483   6.210   9.588
16330SOL    HW250888   0.573   6.291   9.679
16331SOL     OW50889  13.601   9.982   2.907
16331SOL    HW150890  13.552  10.029   2.839
16331SOL    HW250891  13.587   9.890   2.888
16332SOL     OW50892   4.558   8.912   2.480
16332SOL    HW150893   4.538   8.878   2.568
16332SOL    HW250894   4.512   8.852   2.421
16333SOL     OW50895   5.005   9.547   5.975
16333SOL    HW150896   5.055   9.620   6.011
16333SOL    HW250897   4.971   9.579   5.892
16334SOL     OW50898   4.251   7.404  12.517
16334SOL    HW150899   4.160   7.393  12.543
16334SOL    HW250900   4.260   7.354  12.436
16335SOL     OW50901   1.119  10.008  13.845
16335SOL    HW150902   1.162  10.074  13.899
16335SOL    HW250903   1.125  10.043  13.756
16336SOL     OW50904   5.986   4.754   1.038
16336SOL    HW150905   6.080   4.768   1.036
16336SOL    HW250906   5.975   4.661   1.020
16337SOL     OW50907  11.364   2.864   2.077
16337SOL    HW150908  11.330   2.836   1.992
16337SOL    HW250909  11.378   2.783   2.125
16338SOL     OW50910  11.507   9.698   5.169
16338SOL    HW150911  11.597   9.676   5.193
16338SOL    HW250912  11.454   9.671   5.244
16339SOL     OW50913  13.710   0.619   1.768
16339SOL    HW150914  13.770   0.618   1.693
16339SOL    HW250915  13.738   0.695   1.820
16340SOL     OW50916   9.331  11.179  13.916
16340SOL    HW150917   9.415  11.147  13.883
16340SOL    HW250918   9.353  11.226  13.996
16341SOL     OW50919   2.955  11.371   1.789
16341SOL    HW150920   3.043  11.392   1.756
16341SOL    HW250921   2.925  11.299   1.733
16342SOL     OW50922   7.208   3.553   5.963
16342SOL    HW150923   7.238   3.618   5.900
16342SOL    HW250924   7.122   3.527   5.931
16343SOL     OW50925  14.281  11.960   7.531
16343SOL    HW150926  14.239  11.990   7.450
16343SOL    HW250927  14.289  12.039   7.584
16344SOL     OW50928  11.921   0.943  11.543
16344SOL    HW150929  11.933   0.849  11.550
16344SOL    HW250930  12.006   0.980  11.567
16345SOL     OW50931   1.543   8.020   7.908
16345SOL    HW150932   1.465   7.996   7.858
16345SOL    HW250933   1.514   8.020   7.999
16346SOL     OW50934   2.626  12.970  11.846
16346SOL    HW150935   2.634  12.901  11.780
16346SOL    HW250936   2.613  13.051  11.795
16347SOL     OW50937   3.224  10.900   3.380
16347SOL    HW150938   3.298  10.930   3.433
16347SOL    HW250939   3.264  10.843   3.314
16348SOL     OW50940  10.988  11.253  11.689
16348SOL    HW150941  10.927  11.229  11.759
16348SOL    HW250942  10.983  11.181  11.627
16349SOL     OW50943  10.481   5.447  10.661
16349SOL    HW150944  10.521   5.437  10.575
16349SOL    HW250945  10.421   5.521  10.652
16350SOL     OW50946  12.009   8.774   4.448
16350SOL    HW150947  11.989   8.709   4.516
16350SOL    HW250948  11.937   8.836   4.453
16351SOL     OW50949   2.007   8.683   4.658
16351SOL    HW150950   1.995   8.746   4.587
16351SOL    HW250951   2.096   8.698   4.690
16352SOL     OW50952   9.324   6.975   7.780
16352SOL    HW150953   9.275   7.042   7.733
16352SOL    HW250954   9.308   6.993   7.872
16353SOL     OW50955   4.034   9.778   0.866
16353SOL    HW150956   4.058   9.786   0.958
16353SOL    HW250957   4.011   9.685   0.856
16354SOL     OW50958   9.999   2.226   0.490
16354SOL    HW150959   9.997   2.314   0.451
16354SOL    HW250960   9.963   2.169   0.422
16355SOL     OW50961   3.021   2.752   8.513
16355SOL    HW150962   3.028   2.848   8.510
16355SOL    HW250963   2.931   2.734   8.486
16356SOL     OW50964   8.254   2.444  12.922
16356SOL    HW150965   8.192   2.479  12.986
16356SOL    HW250966   8.287   2.363  12.962
16357SOL     OW50967  14.579   1.950   9.097
16357SOL    HW150968  14.651   2.003   9.130
16357SOL    HW250969  14.621   1.870   9.065
16358SOL     OW50970   8.168  13.869  10.004
16358SOL    HW150971   8.219  13.949  10.015
16358SOL    HW250972   8.188  13.840   9.915
16359SOL     OW50973   5.992  12.812   7.821
16359SOL    HW150974   6.059  12.783   7.883
16359SOL    HW250975   5.929  12.740   7.817
16360SOL     OW50976   9.944  13.614   4.894
16360SOL    HW150977  10.010  13.580   4.955
16360SOL    HW250978   9.861  13.581   4.928
16361SOL     OW50979  11.512   2.953   7.436
16361SOL    HW150980  11.512   2.885   7.503
16361SOL    HW250981  11.466   2.914   7.362
16362SOL     OW50982   4.142   8.354  14.689
16362SOL    HW150983   4.066   8.314  14.730
16362SOL    HW250984   4.106   8.409  14.620
16363SOL     OW50985   8.566  10.040   7.585
16363SOL    HW150986   8.493  10.079   7.537
16363SOL    HW250987   8.620  10.115   7.612
16364SOL     OW50988   1.940   1.696   0.075
16364SOL    HW150989   2.001   1.651   0.017
16364SOL    HW250990   1.995   1.740   0.140
16365SOL     OW50991   7.959   5.331   9.163
16365SOL    HW150992   8.036   5.388   9.170
16365SOL    HW250993   7.990   5.245   9.192
16366SOL     OW50994  10.069   2.659   9.601
16366SOL    HW150995   9.993   2.602   9.610
16366SOL    HW250996  10.059   2.724   9.671
16367SOL     OW50997   8.720   3.465   9.366
16367SOL    HW150998   8.699   3.558   9.362
16367SOL    HW250999   8.733   3.447   9.459
16368SOL     OW51000  13.713   1.097  13.595
16368SOL    HW151001  13.617   1.093  13.594
16368SOL    HW251002  13.741   1.031  13.532
16369SOL     OW51003   7.647   3.066  12.864
16369SOL    HW151004   7.601   3.002  12.810
16369SOL    HW251005   7.718   3.016  12.905
16370SOL     OW51006   6.813   8.732  10.015
16370SOL    HW151007   6.846   8.742   9.925
16370SOL    HW251008   6.805   8.637  10.026
16371SOL     OW51009   5.101  10.345  14.624
16371SOL    HW151010   5.079  10.272  14.682
16371SOL    HW251011   5.027  10.352  14.564
16372SOL     OW51012  12.068   5.725   6.642
16372SOL    HW151013  12.059   5.814   6.609
16372SOL    HW251014  12.163   5.710   6.647
16373SOL     OW51015   7.223  10.472  13.414
16373SOL    HW151016   7.148  10.412  13.415
16373SOL    HW251017   7.186  10.558  13.431
16374SOL     OW51018  12.426   2.152   3.888
16374SOL    HW151019  12.346   2.141   3.938
16374SOL    HW251020  12.492   2.178   3.952
16375SOL     OW51021  11.703   5.982  11.275
16375SOL    HW151022  11.699   6.072  11.308
16375SOL    HW251023  11.613   5.950  11.282
16376SOL     OW51024   3.014   5.470   3.265
16376SOL    HW151025   2.986   5.545   3.212
16376SOL    HW251026   2.938   5.449   3.319
16377SOL     OW51027   0.602  12.537  14.852
16377SOL    HW151028   0.606  12.467   0.045
16377SOL    HW251029   0.585  12.492  14.769
16378SOL     OW51030   9.809  14.439   2.822
16378SOL    HW151031   9.795  14.346   2.808
16378SOL    HW251032   9.721  14.473   2.841
16379SOL     OW51033   4.450  12.171   4.540
16379SOL    HW151034   4.403  12.148   4.620
16379SOL    HW251035   4.460  12.266   4.545
16380SOL     OW51036  11.902   5.813  14.390
16380SOL    HW151037  11.943   5.743  14.441
16380SOL    HW251038  11.863   5.769  14.314
16381SOL     OW51039   5.894  14.226   4.063
16381SOL    HW151040   5.890  14.309   4.109
16381SOL    HW251041   5.820  14.175   4.099
16382SOL     OW51042  13.020   4.098  12.905
16382SOL    HW151043  13.050   4.115  12.994
16382SOL    HW251044  13.076   4.027  12.874
16383SOL     OW51045   4.797   5.280   9.436
16383SOL    HW151046   4.865   5.345   9.417
16383SOL    HW251047   4.736   5.327   9.493
16384SOL     OW51048   0.082   3.886  13.500
16384SOL    HW151049   0.017   3.819  13.477
16384SOL    HW251050   0.128   3.903  13.418
16385SOL     OW51051   3.906   1.656  11.552
16385SOL    HW151052   3.816   1.657  11.584
16385SOL    HW251053   3.956   1.615  11.622
16386SOL     OW51054   4.853  11.954   9.560
16386SOL    HW151055   4.777  11.924   9.511
16386SOL    HW251056   4.927  11.913   9.516
16387SOL     OW51057   2.342   2.851  12.667
16387SOL    HW151058   2.266   2.878  12.616
16387SOL    HW251059   2.414   2.903  12.633
16388SOL     OW51060   3.437  14.459  13.578
16388SOL    HW151061   3.414  14.525  13.512
16388SOL    HW251062   3.521  14.488  13.614
16389SOL     OW51063  13.754   8.369   1.211
16389SOL    HW151064  13.811   8.326   1.147
16389SOL    HW251065  13.667   8.368   1.171
16390SOL     OW51066   3.260   9.214   8.785
16390SOL    HW151067   3.315   9.287   8.758
16390SOL    HW251068   3.172   9.238   8.755
16391SOL     OW51069   8.903  13.465   4.565
16391SOL    HW151070   8.904  13.393   4.502
16391SOL    HW251071   8.994  13.493   4.570
16392SOL     OW51072  11.988   7.624   6.787
16392SOL    HW151073  12.018   7.709   6.754
16392SOL    HW251074  11.998   7.631   6.882
16393SOL     OW51075  13.238  13.635   8.766
16393SOL    HW151076  13.268  13.547   8.746
16393SOL    HW251077  13.299  13.668   8.832
16394SOL     OW51078   6.728   3.325  12.537
16394SOL    HW151079   6.791   3.342  12.608
16394SOL    HW251080   6.716   3.230  12.539
16395SOL     OW51081   6.571   7.293   5.438
16395SOL    HW151082   6.607   7.222   5.493
16395SOL    HW251083   6.642   7.357   5.433
16396SOL     OW51084   2.762   5.995  12.465
16396SOL    HW151085   2.786   6.004  12.557
16396SOL    HW251086   2.796   6.074  12.423
16397SOL     OW51087   6.826   1.933   5.483
16397SOL    HW151088   6.749   1.893   5.443
16397SOL    HW251089   6.820   1.907   5.575
16398SOL     OW51090   9.939   7.796   5.736
16398SOL    HW151091  10.031   7.797   5.708
16398SOL    HW251092   9.924   7.883   5.772
16399SOL     OW51093  14.829  12.254   3.725
16399SOL    HW151094  14.836  12.168   3.766
16399SOL    HW251095   0.042  12.296   3.742
16400SOL     OW51096   8.051   7.092   4.742
16400SOL    HW151097   8.049   7.114   4.835
16400SOL    HW251098   7.959   7.074   4.720
16401SOL     OW51099   1.493   2.169   5.190
16401SOL    HW151100   1.542   2.087   5.193
16401SOL    HW251101   1.446   2.166   5.106
16402SOL     OW51102  10.313   8.637   7.217
16402SOL    HW151103  10.364   8.572   7.265
16402SOL    HW251104  10.259   8.679   7.285
16403SOL     OW51105   4.365  14.391   6.346
16403SOL    HW151106   4.373  14.482   6.318
16403SOL    HW251107   4.366  14.341   6.264
16404SOL     OW51108   1.658   5.947   8.919
16404SOL    HW151109   1.590   5.959   8.853
16404SOL    HW251110   1.638   6.010   8.987
16405SOL     OW51111   7.319  10.895  10.764
16405SOL    HW151112   7.333  10.889  10.858
16405SOL    HW251113   7.239  10.845  10.747
16406SOL     OW51114   5.552   9.339  11.766
16406SOL    HW151115   5.573   9.413  11.710
16406SOL    HW251116   5.636   9.297  11.783
16407SOL     OW51117   1.899   0.238   0.496
16407SOL    HW151118   1.838   0.311   0.487
16407SOL    HW251119   1.858   0.167   0.446
16408SOL     OW51120  14.679   0.341   5.741
16408SOL    HW151121  14.742   0.277   5.772
16408SOL    HW251122  14.721   0.426   5.755
16409SOL     OW51123  12.568   2.321   6.743
16409SOL    HW151124  12.654   2.365   6.740
16409SOL    HW251125  12.571   2.269   6.823
16410SOL     OW51126   6.685   4.301   7.877
16410SOL    HW151127   6.618   4.318   7.944
16410SOL    HW251128   6.696   4.385   7.832
16411SOL     OW51129  11.256  13.118  10.826
16411SOL    HW151130  11.200  13.194  10.812
16411SOL    HW251131  11.322  13.123  10.756
16412SOL     OW51132   9.016   0.520   7.754
16412SOL    HW151133   9.075   0.582   7.796
16412SOL    HW251134   8.930   0.538   7.793
16413SOL     OW51135   3.715   5.788   3.255
16413SOL    HW151136   3.719   5.881   3.232
16413SOL    HW251137   3.804   5.768   3.287
16414SOL     OW51138   4.872   6.226   9.426
16414SOL    HW151139   4.930   6.219   9.502
16414SOL    HW251140   4.859   6.321   9.416
16415SOL     OW51141   7.222   3.092   4.265
16415SOL    HW151142   7.273   3.149   4.207
16415SOL    HW251143   7.253   3.004   4.244
16416SOL     OW51144   7.033   0.388  10.945
16416SOL    HW151145   6.981   0.317  10.907
16416SOL    HW251146   6.997   0.468  10.906
16417SOL     OW51147   3.580  10.294  13.261
16417SOL    HW151148   3.508  10.352  13.238
16417SOL    HW251149   3.640  10.348  13.312
16418SOL     OW51150   4.393   1.896   6.493
16418SOL    HW151151   4.409   1.850   6.575
16418SOL    HW251152   4.427   1.837   6.426
16419SOL     OW51153   6.692   4.560   3.259
16419SOL    HW151154   6.748   4.593   3.329
16419SOL    HW251155   6.753   4.534   3.190
16420SOL     OW51156   6.981   8.339  13.175
16420SOL    HW151157   6.923   8.272  13.139
16420SOL    HW251158   6.925   8.390  13.234
16421SOL     OW51159   0.439   9.699   5.738
16421SOL    HW151160   0.436   9.794   5.731
16421SOL    HW251161   0.420   9.667   5.650
16422SOL     OW51162   0.214   6.727   3.392
16422SOL    HW151163   0.146   6.674   3.352
16422SOL    HW251164   0.273   6.748   3.319
16423SOL     OW51165   7.458  14.150  12.619
16423SOL    HW151166   7.379  14.136  12.567
16423SOL    HW251167   7.489  14.237  12.593
16424SOL     OW51168  13.990   9.623   9.838
16424SOL    HW151169  13.983   9.609   9.743
16424SOL    HW251170  13.922   9.687   9.857
16425SOL     OW51171   9.084   5.184  13.363
16425SOL    HW151172   9.140   5.140  13.300
16425SOL    HW251173   9.010   5.217  13.311
16426SOL     OW51174   7.848   1.181   0.500
16426SOL    HW151175   7.785   1.109   0.497
16426SOL    HW251176   7.795   1.258   0.519
16427SOL     OW51177   1.228   9.686   8.712
16427SOL    HW151178   1.145   9.661   8.672
16427SOL    HW251179   1.261   9.758   8.658
16428SOL     OW51180  12.588  10.841   4.200
16428SOL    HW151181  12.532  10.836   4.278
16428SOL    HW251182  12.608  10.750   4.180
16429SOL     OW51183   8.191   7.533  14.565
16429SOL    HW151184   8.174   7.522  14.471
16429SOL    HW251185   8.238   7.616  14.571
16430SOL     OW51186   8.623   9.720   3.134
16430SOL    HW151187   8.682   9.649   3.107
16430SOL    HW251188   8.632   9.786   3.066
16431SOL     OW51189  11.415   3.755   3.700
16431SOL    HW151190  11.370   3.823   3.650
16431SOL    HW251191  11.366   3.747   3.781
16432SOL     OW51192  14.443   4.395   1.426
16432SOL    HW151193  14.494   4.358   1.353
16432SOL    HW251194  14.509   4.424   1.489
16433SOL     OW51195   1.854   2.792   8.349
16433SOL    HW151196   1.945   2.811   8.372
16433SOL    HW251197   1.813   2.878   8.340
16434SOL     OW51198   4.247   9.528   4.684
16434SOL    HW151199   4.256   9.442   4.725
16434SOL    HW251200   4.287   9.588   4.747
16435SOL     OW51201   2.872   6.028   9.341
16435SOL    HW151202   2.788   5.984   9.350
16435SOL    HW251203   2.894   6.057   9.430
16436SOL     OW51204  12.968   2.315   7.757
16436SOL    HW151205  13.022   2.320   7.678
16436SOL    HW251206  12.978   2.400   7.798
16437SOL     OW51207   2.016   7.315   8.265
16437SOL    HW151208   2.038   7.223   8.284
16437SOL    HW251209   2.029   7.360   8.348
16438SOL     OW51210   4.401   9.291   6.551
16438SOL    HW151211   4.317   9.269   6.590
16438SOL    HW251212   4.460   9.303   6.625
16439SOL     OW51213   2.809   4.207   1.078
16439SOL    HW151214   2.780   4.129   1.031
16439SOL    HW251215   2.861   4.255   1.014
16440SOL     OW51216  14.323   4.737  10.358
16440SOL    HW151217  14.278   4.750  10.274
16440SOL    HW251218  14.407   4.697  10.333
16441SOL     OW51219  11.916   3.507  14.271
16441SOL    HW151220  11.941   3.583  14.218
16441SOL    HW251221  11.999   3.475  14.306
16442SOL     OW51222  12.847   2.314  14.161
16442SOL    HW151223  12.780   2.322  14.229
16442SOL    HW251224  12.797   2.304  14.080
16443SOL     OW51225   5.184  14.712  10.439
16443SOL    HW151226   5.155  14.661  10.363
16443SOL    HW251227   5.247  14.654  10.483
16444SOL     OW51228  11.893   7.320   5.356
16444SOL    HW151229  11.803   7.338   5.385
16444SOL    HW251230  11.896   7.225   5.346
16445SOL     OW51231  11.773   2.024   8.361
16445SOL    HW151232  11.768   1.939   8.405
16445SOL    HW251233  11.733   2.009   8.276
16446SOL     OW51234  14.171   5.637   6.302
16446SOL    HW151235  14.120   5.634   6.382
16446SOL    HW251236  14.174   5.546   6.271
16447SOL     OW51237  12.509  11.891  13.154
16447SOL    HW151238  12.596  11.897  13.116
16447SOL    HW251239  12.451  11.872  13.080
16448SOL     OW51240   8.991   0.174  14.550
16448SOL    HW151241   8.960   0.125  14.474
16448SOL    HW251242   9.052   0.238  14.513
16449SOL     OW51243   5.289   1.452   8.551
16449SOL    HW151244   5.369   1.399   8.556
16449SOL    HW251245   5.226   1.406   8.606
16450SOL     OW51246  10.229   3.192   6.806
16450SOL    HW151247  10.260   3.188   6.896
16450SOL    HW251248  10.226   3.101   6.777
16451SOL     OW51249   1.236  10.824   3.309
16451SOL    HW151250   1.154  10.783   3.336
16451SOL    HW251251   1.303  10.757   3.324
16452SOL     OW51252   5.319   1.003   8.352
16452SOL    HW151253   5.364   0.921   8.366
16452SOL    HW251254   5.231   0.989   8.388
16453SOL     OW51255  12.936   4.672   7.844
16453SOL    HW151256  12.860   4.627   7.879
16453SOL    HW251257  13.011   4.625   7.881
16454SOL     OW51258  11.714   9.193   7.420
16454SOL    HW151259  11.779   9.235   7.364
16454SOL    HW251260  11.759   9.183   7.504
16455SOL     OW51261   5.989   7.856   6.354
16455SOL    HW151262   5.963   7.769   6.383
16455SOL    HW251263   6.085   7.855   6.356
16456SOL     OW51264   3.553  11.416   4.631
16456SOL    HW151265   3.587  11.489   4.580
16456SOL    HW251266   3.467  11.445   4.661
16457SOL     OW51267   7.722   6.315   8.415
16457SOL    HW151268   7.701   6.249   8.481
16457SOL    HW251269   7.775   6.379   8.461
16458SOL     OW51270  10.496  11.024   9.391
16458SOL    HW151271  10.579  11.045   9.432
16458SOL    HW251272  10.445  11.106   9.397
16459SOL     OW51273   9.563   6.584   4.711
16459SOL    HW151274   9.489   6.544   4.756
16459SOL    HW251275   9.533   6.596   4.621
16460SOL     OW51276   5.577   6.662  13.341
16460SOL    HW151277   5.562   6.574  13.375
16460SOL    HW251278   5.641   6.650  13.270
16461SOL     OW51279   1.656   7.795   2.240
16461SOL    HW151280   1.561   7.805   2.250
16461SOL    HW251281   1.687   7.777   2.328
16462SOL     OW51282  14.056  10.756   6.595
16462SOL    HW151283  14.031  10.757   6.687
16462SOL    HW251284  14.143  10.716   6.594
16463SOL     OW51285   0.594   0.920   0.321
16463SOL    HW151286   0.529   0.987   0.300
16463SOL    HW251287   0.551   0.864   0.385
16464SOL     OW51288   2.043   3.331   4.459
16464SOL    HW151289   2.029   3.253   4.406
16464SOL    HW251290   1.959   3.345   4.503
16465SOL     OW51291  10.228   7.988   5.685
16465SOL    HW151292  10.182   7.997   5.601
16465SOL    HW251293  10.306   8.042   5.676
16466SOL     OW51294   7.733  10.077  12.154
16466SOL    HW151295   7.727  10.172  12.147
16466SOL    HW251296   7.683  10.056  12.234
16467SOL     OW51297   3.536  13.880  11.679
16467SOL    HW151298   3.604  13.813  11.675
16467SOL    HW251299   3.461  13.835  11.717
16468SOL     OW51300   0.451   1.330   2.926
16468SOL    HW151301   0.402   1.286   2.857
16468SOL    HW251302   0.543   1.323   2.899
16469SOL     OW51303  14.131  13.720  11.997
16469SOL    HW151304  14.070  13.659  12.039
16469SOL    HW251305  14.137  13.794  12.058
16470SOL     OW51306   5.112   9.936   9.882
16470SOL    HW151307   5.030   9.920   9.835
16470SOL    HW251308   5.086   9.988   9.958
16471SOL     OW51309   8.849   1.652  14.238
16471SOL    HW151310   8.799   1.591  14.292
16471SOL    HW251311   8.869   1.725  14.296
16472SOL     OW51312   7.841   1.860   5.715
16472SOL    HW151313   7.798   1.775   5.713
16472SOL    HW251314   7.934   1.841   5.700
16473SOL     OW51315   2.662   4.919   2.519
16473SOL    HW151316   2.691   4.835   2.482
16473SOL    HW251317   2.689   4.983   2.454
16474SOL     OW51318   8.231   4.990  10.995
16474SOL    HW151319   8.260   4.974  10.905
16474SOL    HW251320   8.216   5.085  10.999
16475SOL     OW51321   9.710   4.765  10.310
16475SOL    HW151322   9.680   4.853  10.290
16475SOL    HW251323   9.636   4.709  10.288
16476SOL     OW51324   2.310  10.350   5.423
16476SOL    HW151325   2.349  10.295   5.355
16476SOL    HW251326   2.270  10.288   5.484
16477SOL     OW51327  11.472   1.413   7.101
16477SOL    HW151328  11.525   1.349   7.148
16477SOL    HW251329  11.528   1.443   7.029
16478SOL     OW51330  14.449  12.508  13.794
16478SOL    HW151331  14.453  12.546  13.706
16478SOL    HW251332  14.482  12.577  13.851
16479SOL     OW51333  10.813   6.698  10.789
16479SOL    HW151334  10.853   6.767  10.736
16479SOL    HW251335  10.870   6.691  10.866
16480SOL     OW51336   7.789   5.165   2.415
16480SOL    HW151337   7.817   5.115   2.492
16480SOL    HW251338   7.865   5.218   2.392
16481SOL     OW51339   3.810   9.034   5.322
16481SOL    HW151340   3.808   9.105   5.258
16481SOL    HW251341   3.882   8.978   5.294
16482SOL     OW51342  14.511   4.829   0.930
16482SOL    HW151343  14.532   4.767   0.860
16482SOL    HW251344  14.436   4.790   0.974
16483SOL     OW51345   1.452   5.104   6.467
16483SOL    HW151346   1.537   5.085   6.428
16483SOL    HW251347   1.471   5.130   6.557
16484SOL     OW51348  11.899   0.411   0.890
16484SOL    HW151349  11.962   0.364   0.944
16484SOL    HW251350  11.816   0.399   0.935
16485SOL     OW51351   1.888   4.177   9.157
16485SOL    HW151352   1.910   4.258   9.204
16485SOL    HW251353   1.797   4.188   9.132
16486SOL     OW51354   9.181  11.380  14.854
16486SOL    HW151355   9.248  11.317  14.828
16486SOL    HW251356   9.228  11.444   0.035
16487SOL     OW51357   3.605  14.350  10.651
16487SOL    HW151358   3.613  14.445  10.642
16487SOL    HW251359   3.571  14.320  10.567
16488SOL     OW51360   0.449   2.383  11.824
16488SOL    HW151361   0.442   2.470  11.863
16488SOL    HW251362   0.415   2.394  11.735
16489SOL     OW51363  14.189   9.877   1.562
16489SOL    HW151364  14.226   9.892   1.649
16489SOL    HW251365  14.106   9.924   1.563
16490SOL     OW51366   8.177   7.135  13.261
16490SOL    HW151367   8.250   7.162  13.206
16490SOL    HW251368   8.211   7.138  13.350
16491SOL     OW51369   8.676   1.153   7.987
16491SOL    HW151370   8.748   1.167   8.048
16491SOL    HW251371   8.708   1.087   7.926
16492SOL     OW51372   4.588   6.359   7.897
16492SOL    HW151373   4.629   6.418   7.834
16492SOL    HW251374   4.612   6.394   7.983
16493SOL     OW51375  10.712  11.870   1.691
16493SOL    HW151376  10.616  11.876   1.694
16493SOL    HW251377  10.737  11.922   1.615
16494SOL     OW51378   0.917  14.539  10.877
16494SOL    HW151379   0.947  14.578  10.795
16494SOL    HW251380   0.828  14.509  10.857
16495SOL     OW51381   1.905  12.083   9.075
16495SOL    HW151382   1.995  12.053   9.061
16495SOL    HW251383   1.914  12.170   9.114
16496SOL     OW51384   8.317   9.606   3.471
16496SOL    HW151385   8.359   9.577   3.390
16496SOL    HW251386   8.326   9.532   3.531
16497SOL     OW51387   7.789   7.493   7.397
16497SOL    HW151388   7.850   7.543   7.452
16497SOL    HW251389   7.706   7.495   7.446
16498SOL     OW51390  10.360  12.464   8.728
16498SOL    HW151391  10.321  12.551   8.720
16498SOL    HW251392  10.323  12.414   8.655
16499SOL     OW51393   4.441  12.548  10.054
16499SOL    HW151394   4.420  12.461  10.022
16499SOL    HW251395   4.534  12.545  10.075
16500SOL     OW51396   5.936   0.705   4.337
16500SOL    HW151397   5.906   0.702   4.246
16500SOL    HW251398   6.011   0.645   4.339
16501SOL     OW51399  12.409   8.286   7.140
16501SOL    HW151400  12.492   8.310   7.181
16501SOL    HW251401  12.419   8.193   7.118
16502SOL     OW51402   7.075  12.731  11.445
16502SOL    HW151403   7.162  12.755  11.414
16502SOL    HW251404   7.071  12.765  11.535
16503SOL     OW51405   1.427  11.763   7.866
16503SOL    HW151406   1.493  11.773   7.934
16503SOL    HW251407   1.344  11.775   7.912
16504SOL     OW51408   6.612   4.683   8.902
16504SOL    HW151409   6.525   4.670   8.866
16504SOL    HW251410   6.599   4.738   8.979
16505SOL     OW51411  12.433   4.820  12.819
16505SOL    HW151412  12.471   4.758  12.882
16505SOL    HW251413  12.390   4.765  12.754
16506SOL     OW51414  12.080   3.390   8.069
16506SOL    HW151415  12.047   3.418   7.983
16506SOL    HW251416  12.110   3.471   8.110
16507SOL     OW51417   9.637  11.507   9.882
16507SOL    HW151418   9.717  11.542   9.921
16507SOL    HW251419   9.658  11.497   9.789
16508SOL     OW51420  12.085   0.684  13.217
16508SOL    HW151421  12.180   0.692  13.211
16508SOL    HW251422  12.062   0.617  13.154
16509SOL     OW51423   0.365  11.901   6.536
16509SOL    HW151424   0.307  11.975   6.516
16509SOL    HW251425   0.346  11.836   6.468
16510SOL     OW51426   2.083  13.458   0.159
16510SOL    HW151427   2.039  13.541   0.139
16510SOL    HW251428   2.013  13.402   0.193
16511SOL     OW51429  13.110  11.772   9.103
16511SOL    HW151430  13.178  11.705   9.093
16511SOL    HW251431  13.046  11.732   9.163
16512SOL     OW51432   4.011  14.456  14.300
16512SOL    HW151433   4.048  14.499  14.222
16512SOL    HW251434   4.049  14.505  14.374
16513SOL     OW51435   1.737   3.672   5.226
16513SOL    HW151436   1.667   3.639   5.169
16513SOL    HW251437   1.728   3.767   5.220
16514SOL     OW51438   4.252   7.401   3.683
16514SOL    HW151439   4.199   7.475   3.652
16514SOL    HW251440   4.206   7.369   3.761
16515SOL     OW51441   2.410   0.326   3.892
16515SOL    HW151442   2.417   0.402   3.949
16515SOL    HW251443   2.317   0.307   3.888
16516SOL     OW51444  14.336   8.020   9.678
16516SOL    HW151445  14.331   7.932   9.641
16516SOL    HW251446  14.385   8.071   9.614
16517SOL     OW51447  12.997   3.458   3.753
16517SOL    HW151448  12.992   3.454   3.657
16517SOL    HW251449  13.046   3.379   3.778
16518SOL     OW51450   4.979   8.727   2.450
16518SOL    HW151451   5.057   8.714   2.504
16518SOL    HW251452   4.975   8.822   2.437
16519SOL     OW51453   4.001  10.831   7.758
16519SOL    HW151454   3.965  10.840   7.670
16519SOL    HW251455   4.001  10.920   7.793
16520SOL     OW51456   3.853  10.602   3.814
16520SOL    HW151457   3.836  10.530   3.754
16520SOL    HW251458   3.772  10.653   3.814
16521SOL     OW51459   0.196   3.156   6.137
16521SOL    HW151460   0.211   3.128   6.047
16521SOL    HW251461   0.283   3.177   6.171
16522SOL     OW51462   6.648   8.488   7.379
16522SOL    HW151463   6.580   8.461   7.440
16522SOL    HW251464   6.697   8.407   7.361
16523SOL     OW51465  13.897   1.269   6.181
16523SOL    HW151466  13.830   1.332   6.208
16523SOL    HW251467  13.879   1.254   6.088
16524SOL     OW51468  14.230   7.240   2.249
16524SOL    HW151469  14.315   7.252   2.291
16524SOL    HW251470  14.247   7.251   2.155
16525SOL     OW51471   4.610  13.714   2.256
16525SOL    HW151472   4.676  13.784   2.251
16525SOL    HW251473   4.557  13.736   2.332
16526SOL     OW51474   9.765   4.455   4.089
16526SOL    HW151475   9.846   4.433   4.045
16526SOL    HW251476   9.746   4.545   4.062
16527SOL     OW51477   3.849   7.830  12.019
16527SOL    HW151478   3.840   7.767  11.948
16527SOL    HW251479   3.764   7.826  12.064
16528SOL     OW51480   3.894   4.322   0.974
16528SOL    HW151481   3.886   4.231   1.002
16528SOL    HW251482   3.977   4.352   1.012
16529SOL     OW51483   4.133  10.857   2.276
16529SOL    HW151484   4.080  10.910   2.336
16529SOL    HW251485   4.156  10.779   2.326
16530SOL     OW51486  10.933  14.101   0.011
16530SOL    HW151487  10.849  14.055   0.005
16530SOL    HW251488  10.956  14.098   0.103
16531SOL     OW51489  11.136   0.298   9.892
16531SOL    HW151490  11.172   0.387   9.894
16531SOL    HW251491  11.168   0.257   9.973
16532SOL     OW51492  10.151   0.136  13.517
16532SOL    HW151493  10.111   0.098  13.595
16532SOL    HW251494  10.148   0.230  13.531
16533SOL     OW51495   8.231   5.617   4.817
16533SOL    HW151496   8.256   5.699   4.775
16533SOL    HW251497   8.148   5.637   4.861
16534SOL     OW51498  13.021   3.915  13.355
16534SOL    HW151499  13.101   3.926  13.406
16534SOL    HW251500  12.959   3.978  13.392
16535SOL     OW51501   6.921  10.525   5.354
16535SOL    HW151502   6.834  10.505   5.388
16535SOL    HW251503   6.967  10.442   5.356
16536SOL     OW51504   5.317   1.231  12.544
16536SOL    HW151505   5.222   1.223  12.542
16536SOL    HW251506   5.343   1.225  12.452
16537SOL     OW51507  14.728   0.406   9.268
16537SOL    HW151508  14.816   0.368   9.273
16537SOL    HW251509  14.743   0.500   9.258
16538SOL     OW51510  11.801   8.011   0.873
16538SOL    HW151511  11.828   7.923   0.846
16538SOL    HW251512  11.870   8.069   0.841
16539SOL     OW51513   6.164   0.513  10.665
16539SOL    HW151514   6.097   0.492  10.600
16539SOL    HW251515   6.114   0.539  10.743
16540SOL     OW51516  14.246   6.625   7.474
16540SOL    HW151517  14.301   6.628   7.553
16540SOL    HW251518  14.245   6.533   7.449
16541SOL     OW51519  13.967   7.149   7.101
16541SOL    HW151520  14.001   7.139   7.012
16541SOL    HW251521  13.873   7.130   7.092
16542SOL     OW51522   3.732   9.370  11.290
16542SOL    HW151523   3.744   9.345  11.382
16542SOL    HW251524   3.821   9.381  11.257
16543SOL     OW51525   0.208   3.874  11.782
16543SOL    HW151526   0.224   3.962  11.814
16543SOL    HW251527   0.171   3.886  11.694
16544SOL     OW51528  14.746   7.312   0.385
16544SOL    HW151529  14.778   7.401   0.399
16544SOL    HW251530  14.651   7.318   0.395
16545SOL     OW51531   3.590   1.990  14.393
16545SOL    HW151532   3.515   1.948  14.352
16545SOL    HW251533   3.662   1.927  14.381
16546SOL     OW51534   9.661   2.668   8.969
16546SOL    HW151535   9.675   2.619   8.889
16546SOL    HW251536   9.748   2.700   8.994
16547SOL     OW51537  10.855   5.583   0.374
16547SOL    HW151538  10.823   5.592   0.464
16547SOL    HW251539  10.947   5.556   0.384
16548SOL     OW51540   5.423  11.363  11.573
16548SOL    HW151541   5.425  11.454  11.544
16548SOL    HW251542   5.380  11.366  11.659
16549SOL     OW51543  11.243   5.166  10.059
16549SOL    HW151544  11.264   5.138  10.149
16549SOL    HW251545  11.165   5.220  10.068
16550SOL     OW51546   9.445   5.445   9.216
16550SOL    HW151547   9.392   5.366   9.226
16550SOL    HW251548   9.408   5.505   9.281
16551SOL     OW51549   5.010   5.442  12.294
16551SOL    HW151550   5.006   5.386  12.372
16551SOL    HW251551   4.927   5.490  12.294
16552SOL     OW51552   6.296  14.857   4.481
16552SOL    HW151553   6.225   0.048   4.492
16552SOL    HW251554   6.252  14.774   4.462
16553SOL     OW51555  11.773   1.810   7.515
16553SOL    HW151556  11.829   1.785   7.441
16553SOL    HW251557  11.777   1.906   7.516
16554SOL     OW51558   4.797   6.591   3.166
16554SOL    HW151559   4.864   6.659   3.177
16554SOL    HW251560   4.817   6.552   3.081
16555SOL     OW51561  12.982  13.750   3.142
16555SOL    HW151562  13.065  13.795   3.123
16555SOL    HW251563  12.915  13.809   3.108
16556SOL     OW51564  14.058   6.645   3.568
16556SOL    HW151565  14.092   6.566   3.611
16556SOL    HW251566  14.034   6.703   3.640
16557SOL     OW51567  14.145   0.675   4.609
16557SOL    HW151568  14.131   0.767   4.586
16557SOL    HW251569  14.217   0.647   4.552
16558SOL     OW51570   8.862   7.259  12.078
16558SOL    HW151571   8.790   7.284  12.136
16558SOL    HW251572   8.923   7.332  12.083
16559SOL     OW51573   1.115   6.813   0.778
16559SOL    HW151574   1.078   6.801   0.865
16559SOL    HW251575   1.198   6.858   0.793
16560SOL     OW51576  11.536  10.798   7.978
16560SOL    HW151577  11.545  10.752   7.895
16560SOL    HW251578  11.587  10.746   8.040
16561SOL     OW51579   1.822   9.291   0.422
16561SOL    HW151580   1.857   9.258   0.504
16561SOL    HW251581   1.887   9.265   0.356
16562SOL     OW51582  14.098   8.594   8.349
16562SOL    HW151583  14.051   8.551   8.277
16562SOL    HW251584  14.190   8.570   8.336
16563SOL     OW51585  10.507   5.353  14.674
16563SOL    HW151586  10.418   5.385  14.688
16563SOL    HW251587  10.521   5.290  14.745
16564SOL     OW51588  11.670   9.151   5.424
16564SOL    HW151589  11.730   9.114   5.358
16564SOL    HW251590  11.586   9.157   5.379
16565SOL     OW51591   3.271   2.234   7.969
16565SOL    HW151592   3.208   2.210   8.037
16565SOL    HW251593   3.338   2.167   7.974
16566SOL     OW51594   1.882  10.241  11.212
16566SOL    HW151595   1.824  10.314  11.232
16566SOL    HW251596   1.891  10.193  11.294
16567SOL     OW51597   0.156   2.012   2.257
16567SOL    HW151598   0.110   2.095   2.248
16567SOL    HW251599   0.172   2.003   2.351
16568SOL     OW51600   1.977  12.426   6.462
16568SOL    HW151601   1.974  12.398   6.371
16568SOL    HW251602   1.942  12.515   6.460
16569SOL     OW51603   3.594   5.385   7.735
16569SOL    HW151604   3.603   5.455   7.671
16569SOL    HW251605   3.680   5.345   7.740
16570SOL     OW51606  12.147   7.398   3.121
16570SOL    HW151607  12.102   7.318   3.092
16570SOL    HW251608  12.084   7.442   3.178
16571SOL     OW51609  14.179  10.574   8.529
16571SOL    HW151610  14.131  10.496   8.555
16571SOL    HW251611  14.112  10.640   8.514
16572SOL     OW51612  14.708   5.038   3.881
16572SOL    HW151613  14.688   5.106   3.946
16572SOL    HW251614  14.630   4.983   3.880
16573SOL     OW51615   0.975  10.607   3.644
16573SOL    HW151616   0.947  10.552   3.571
16573SOL    HW251617   0.978  10.696   3.609
16574SOL     OW51618   6.365   0.200   5.302
16574SOL    HW151619   6.414   0.185   5.220
16574SOL    HW251620   6.366   0.114   5.345
16575SOL     OW51621   8.596   0.345   3.754
16575SOL    HW151622   8.562   0.256   3.751
16575SOL    HW251623   8.548   0.387   3.825
16576SOL     OW51624   1.119   3.621   8.112
16576SOL    HW151625   1.118   3.593   8.021
16576SOL    HW251626   1.129   3.540   8.162
16577SOL     OW51627  11.963   7.421   3.594
16577SOL    HW151628  12.058   7.423   3.599
16577SOL    HW251629  11.941   7.328   3.587
16578SOL     OW51630   4.080  12.974   5.668
16578SOL    HW151631   4.073  13.061   5.708
16578SOL    HW251632   4.143  12.986   5.597
16579SOL     OW51633  14.834  10.107   3.791
16579SOL    HW151634  14.805  10.018   3.770
16579SOL    HW251635  14.753  10.156   3.803
16580SOL     OW51636  12.627  14.232   2.180
16580SOL    HW151637  12.646  14.140   2.197
16580SOL    HW251638  12.563  14.257   2.247
16581SOL     OW51639   1.967   2.029   2.175
16581SOL    HW151640   2.056   2.056   2.196
16581SOL    HW251641   1.973   1.997   2.085
16582SOL     OW51642   5.630  13.836  10.053
16582SOL    HW151643   5.636  13.873  10.141
16582SOL    HW251644   5.713  13.857  10.012
16583SOL     OW51645   9.188   9.217   3.648
16583SOL    HW151646   9.184   9.233   3.742
16583SOL    HW251647   9.110   9.261   3.613
16584SOL     OW51648   2.125   8.293  13.075
16584SOL    HW151649   2.169   8.238  13.010
16584SOL    HW251650   2.190   8.359  13.098
16585SOL     OW51651  14.353  13.358   3.057
16585SOL    HW151652  14.426  13.346   3.118
16585SOL    HW251653  14.329  13.270   3.030
16586SOL     OW51654   2.518   8.778   8.494
16586SOL    HW151655   2.592   8.837   8.511
16586SOL    HW251656   2.523   8.761   8.400
16587SOL     OW51657  11.118  14.398  12.723
16587SOL    HW151658  11.207  14.374  12.750
16587SOL    HW251659  11.126  14.417  12.630
16588SOL     OW51660  10.465  10.185   3.568
16588SOL    HW151661  10.544  10.164   3.517
16588SOL    HW251662  10.435  10.268   3.532
16589SOL     OW51663  14.359   3.677   9.140
16589SOL    HW151664  14.377   3.584   9.156
16589SOL    HW251665  14.364   3.686   9.045
16590SOL     OW51666   0.667  14.469   5.079
16590SOL    HW151667   0.592  14.489   5.136
16590SOL    HW251668   0.721  14.409   5.130
16591SOL     OW51669  13.995  13.285  10.764
16591SOL    HW151670  13.991  13.200  10.808
16591SOL    HW251671  13.979  13.348  10.834
16592SOL     OW51672   2.560   9.083   2.046
16592SOL    HW151673   2.474   9.078   2.004
16592SOL    HW251674   2.607   9.007   2.014
16593SOL     OW51675  10.229   6.263   8.245
16593SOL    HW151676  10.234   6.270   8.150
16593SOL    HW251677  10.225   6.353   8.276
16594SOL     OW51678   5.103  10.568   6.778
16594SOL    HW151679   5.150  10.641   6.818
16594SOL    HW251680   5.165  10.531   6.715
16595SOL     OW51681  12.132   4.053  11.668
16595SOL    HW151682  12.063   4.069  11.604
16595SOL    HW251683  12.209   4.031  11.615
16596SOL     OW51684   1.942   4.492  10.323
16596SOL    HW151685   1.919   4.580  10.294
16596SOL    HW251686   2.008   4.462  10.261
16597SOL     OW51687  12.908  10.771   6.123
16597SOL    HW151688  12.877  10.756   6.212
16597SOL    HW251689  12.901  10.866   6.111
16598SOL     OW51690  13.562   0.559   2.489
16598SOL    HW151691  13.535   0.485   2.544
16598SOL    HW251692  13.629   0.521   2.431
16599SOL     OW51693  10.255   3.537   3.359
16599SOL    HW151694  10.310   3.495   3.424
16599SOL    HW251695  10.310   3.604   3.320
16600SOL     OW51696   7.456   1.192   1.690
16600SOL    HW151697   7.422   1.109   1.724
16600SOL    HW251698   7.437   1.255   1.760
16601SOL     OW51699   6.496   8.406  13.108
16601SOL    HW151700   6.567   8.462  13.077
16601SOL    HW251701   6.536   8.319  13.114
16602SOL     OW51702   2.491   8.734  13.990
16602SOL    HW151703   2.507   8.826  13.969
16602SOL    HW251704   2.442   8.737  14.072
16603SOL     OW51705   9.688  13.477   6.393
16603SOL    HW151706   9.724  13.441   6.312
16603SOL    HW251707   9.745  13.442   6.462
16604SOL     OW51708   0.435   8.447   6.065
16604SOL    HW151709   0.485   8.521   6.100
16604SOL    HW251710   0.501   8.385   6.034
16605SOL     OW51711   9.308   4.712  11.150
16605SOL    HW151712   9.353   4.696  11.067
16605SOL    HW251713   9.265   4.629  11.170
16606SOL     OW51714   8.464   1.005   9.865
16606SOL    HW151715   8.398   1.066   9.834
16606SOL    HW251716   8.446   0.995   9.958
16607SOL     OW51717  11.171   6.045   9.585
16607SOL    HW151718  11.204   5.958   9.606
16607SOL    HW251719  11.220   6.072   9.507
16608SOL     OW51720   6.849   8.718   9.216
16608SOL    HW151721   6.938   8.725   9.250
16608SOL    HW251722   6.859   8.686   9.126
16609SOL     OW51723  12.722   9.768  13.262
16609SOL    HW151724  12.808   9.727  13.262
16609SOL    HW251725  12.734   9.849  13.311
16610SOL     OW51726   7.028   5.743  14.001
16610SOL    HW151727   7.117   5.769  13.978
16610SOL    HW251728   7.020   5.654  13.967
16611SOL     OW51729   6.237  13.778   1.906
16611SOL    HW151730   6.156  13.805   1.949
16611SOL    HW251731   6.249  13.687   1.934
16612SOL     OW51732  13.763  14.852   3.952
16612SOL    HW151733  13.760   0.040   3.878
16612SOL    HW251734  13.834  14.792   3.932
16613SOL     OW51735   9.113   5.563   7.275
16613SOL    HW151736   9.078   5.493   7.221
16613SOL    HW251737   9.116   5.639   7.218
16614SOL     OW51738   0.225   1.770  13.380
16614SOL    HW151739   0.133   1.754  13.399
16614SOL    HW251740   0.268   1.768  13.465
16615SOL     OW51741   5.795   5.342   3.880
16615SOL    HW151742   5.876   5.357   3.927
16615SOL    HW251743   5.783   5.420   3.826
16616SOL     OW51744   3.311   1.915  10.348
16616SOL    HW151745   3.370   1.921  10.424
16616SOL    HW251746   3.234   1.869  10.382
16617SOL     OW51747   2.964   2.159   1.639
16617SOL    HW151748   2.883   2.209   1.651
16617SOL    HW251749   3.032   2.225   1.631
16618SOL     OW51750   0.716   4.185   2.915
16618SOL    HW151751   0.674   4.183   3.001
16618SOL    HW251752   0.779   4.113   2.918
16619SOL     OW51753   1.332  11.457   8.465
16619SOL    HW151754   1.277  11.412   8.401
16619SOL    HW251755   1.278  11.529   8.497
16620SOL     OW51756   5.330   5.893   1.643
16620SOL    HW151757   5.412   5.862   1.682
16620SOL    HW251758   5.332   5.860   1.553
16621SOL     OW51759   2.731  10.427  11.767
16621SOL    HW151760   2.687  10.354  11.810
16621SOL    HW251761   2.729  10.498  11.832
16622SOL     OW51762   1.307   7.080   5.324
16622SOL    HW151763   1.251   7.149   5.288
16622SOL    HW251764   1.250   7.004   5.330
16623SOL     OW51765  10.547   1.028   5.778
16623SOL    HW151766  10.469   0.991   5.737
16623SOL    HW251767  10.606   0.954   5.788
16624SOL     OW51768  10.537   3.715   3.560
16624SOL    HW151769  10.630   3.723   3.541
16624SOL    HW251770  10.520   3.778   3.630
16625SOL     OW51771   1.014   5.585   8.422
16625SOL    HW151772   1.089   5.644   8.432
16625SOL    HW251773   1.051   5.503   8.390
16626SOL     OW51774   2.171  13.081   2.693
16626SOL    HW151775   2.186  13.173   2.670
16626SOL    HW251776   2.256  13.050   2.723
16627SOL     OW51777   6.631   3.600   6.663
16627SOL    HW151778   6.599   3.674   6.613
16627SOL    HW251779   6.601   3.523   6.615
16628SOL     OW51780  14.038  14.332  13.896
16628SOL    HW151781  14.003  14.265  13.954
16628SOL    HW251782  13.967  14.396  13.888
16629SOL     OW51783  14.506  10.885  12.146
16629SOL    HW151784  14.501  10.947  12.073
16629SOL    HW251785  14.550  10.933  12.215
16630SOL     OW51786   0.678  14.844   6.394
16630SOL    HW151787   0.621  14.843   6.317
16630SOL    HW251788   0.628  14.798   6.462
16631SOL     OW51789  10.379  10.914  12.123
16631SOL    HW151790  10.415  10.980  12.063
16631SOL    HW251791  10.400  10.948  12.211
16632SOL     OW51792   8.608   3.747   3.862
16632SOL    HW151793   8.515   3.759   3.847
16632SOL    HW251794   8.634   3.824   3.914
16633SOL     OW51795   2.682  13.525   0.390
16633SOL    HW151796   2.697  13.616   0.414
16633SOL    HW251797   2.683  13.477   0.473
16634SOL     OW51798   3.141   4.201   0.253
16634SOL    HW151799   3.161   4.166   0.167
16634SOL    HW251800   3.132   4.125   0.310
16635SOL     OW51801   6.958   2.899  13.848
16635SOL    HW151802   6.903   2.957  13.796
16635SOL    HW251803   7.000   2.957  13.912
16636SOL     OW51804   6.791  14.647   5.626
16636SOL    HW151805   6.750  14.573   5.580
16636SOL    HW251806   6.847  14.606   5.692
16637SOL     OW51807  10.988   1.868   7.608
16637SOL    HW151808  11.036   1.951   7.607
16637SOL    HW251809  10.966   1.854   7.701
16638SOL     OW51810  14.065   6.407   7.684
16638SOL    HW151811  14.104   6.320   7.675
16638SOL    HW251812  14.139   6.466   7.697
16639SOL     OW51813   3.918  12.495  10.322
16639SOL    HW151814   3.995  12.458  10.364
16639SOL    HW251815   3.901  12.577  10.369
16640SOL     OW51816   7.370   8.005   5.395
16640SOL    HW151817   7.432   8.048   5.336
16640SOL    HW251818   7.403   7.916   5.403
16641SOL     OW51819   3.681   3.347   9.275
16641SOL    HW151820   3.753   3.397   9.314
16641SOL    HW251821   3.654   3.400   9.200
16642SOL     OW51822   6.066  10.621  10.489
16642SOL    HW151823   6.143  10.591  10.538
16642SOL    HW251824   6.102  10.664  10.411
16643SOL     OW51825   8.686   4.988   1.133
16643SOL    HW151826   8.610   4.974   1.189
16643SOL    HW251827   8.732   5.062   1.173
16644SOL     OW51828   3.535   5.605  14.783
16644SOL    HW151829   3.486   5.550  14.845
16644SOL    HW251830   3.620   5.617  14.824
16645SOL     OW51831   9.522   6.913   3.873
16645SOL    HW151832   9.538   6.930   3.965
16645SOL    HW251833   9.527   6.818   3.864
16646SOL     OW51834   6.360  12.477  10.228
16646SOL    HW151835   6.322  12.413  10.168
16646SOL    HW251836   6.358  12.436  10.314
16647SOL     OW51837   7.962  12.616  10.771
16647SOL    HW151838   7.934  12.706  10.754
16647SOL    HW251839   8.005  12.588  10.691
16648SOL     OW51840   8.969  13.803  10.636
16648SOL    HW151841   9.062  13.823  10.627
16648SOL    HW251842   8.947  13.831  10.725
16649SOL     OW51843   1.646   6.033   0.330
16649SOL    HW151844   1.697   6.051   0.409
16649SOL    HW251845   1.598   5.953   0.350
16650SOL     OW51846   6.046  10.023  11.857
16650SOL    HW151847   6.131  10.066  11.855
16650SOL    HW251848   6.011  10.041  11.945
16651SOL     OW51849  11.325   6.511  12.589
16651SOL    HW151850  11.392   6.557  12.639
16651SOL    HW251851  11.250   6.505  12.649
16652SOL     OW51852   0.095  11.081   8.843
16652SOL    HW151853   0.141  11.160   8.874
16652SOL    HW251854   0.023  11.115   8.790
16653SOL     OW51855   6.279   5.642   8.646
16653SOL    HW151856   6.369   5.675   8.639
16653SOL    HW251857   6.280   5.587   8.725
16654SOL     OW51858   9.011  13.697  10.355
16654SOL    HW151859   9.037  13.762  10.289
16654SOL    HW251860   9.052  13.728  10.436
16655SOL     OW51861  10.068   7.277  12.634
16655SOL    HW151862  10.012   7.347  12.666
16655SOL    HW251863  10.049   7.203  12.692
16656SOL     OW51864  14.447   5.134   5.389
16656SOL    HW151865  14.364   5.138   5.341
16656SOL    HW251866  14.512   5.113   5.322
16657SOL     OW51867   8.803  10.297  10.485
16657SOL    HW151868   8.840  10.280  10.571
16657SOL    HW251869   8.871  10.271  10.423
16658SOL     OW51870   0.286   7.196   3.843
16658SOL    HW151871   0.246   7.121   3.888
16658SOL    HW251872   0.237   7.203   3.761
16659SOL     OW51873   7.187   8.018   5.045
16659SOL    HW151874   7.212   8.107   5.018
16659SOL    HW251875   7.092   8.017   5.039
16660SOL     OW51876  11.555   6.064   5.358
16660SOL    HW151877  11.459   6.062   5.356
16660SOL    HW251878  11.578   6.011   5.434
16661SOL     OW51879   4.500  13.312   4.602
16661SOL    HW151880   4.562  13.256   4.648
16661SOL    HW251881   4.416  13.268   4.612
16662SOL     OW51882   0.167   6.164   2.541
16662SOL    HW151883   0.197   6.082   2.501
16662SOL    HW251884   0.240   6.190   2.598
16663SOL     OW51885   7.683   7.970  11.109
16663SOL    HW151886   7.590   7.958  11.130
16663SOL    HW251887   7.718   8.020  11.183
16664SOL     OW51888  11.101   3.750  10.906
16664SOL    HW151889  11.109   3.747  11.001
16664SOL    HW251890  11.181   3.792  10.876
16665SOL     OW51891   4.752  11.442  14.697
16665SOL    HW151892   4.753  11.487  14.782
16665SOL    HW251893   4.740  11.349  14.719
16666SOL     OW51894  10.646  11.029   2.941
16666SOL    HW151895  10.671  11.066   2.856
16666SOL    HW251896  10.634  10.935   2.923
16667SOL     OW51897  11.076   6.665   7.702
16667SOL    HW151898  11.094   6.572   7.692
16667SOL    HW251899  11.048   6.674   7.793
16668SOL     OW51900   5.367  14.079   1.796
16668SOL    HW151901   5.295  14.021   1.770
16668SOL    HW251902   5.326  14.143   1.855
16669SOL     OW51903   0.133   1.716   4.818
16669SOL    HW151904   0.207   1.701   4.877
16669SOL    HW251905   0.058   1.729   4.876
16670SOL     OW51906   8.231   0.499  10.639
16670SOL    HW151907   8.254   0.420  10.591
16670SOL    HW251908   8.213   0.564  10.571
16671SOL     OW51909   3.531   7.505   3.811
16671SOL    HW151910   3.581   7.424   3.804
16671SOL    HW251911   3.578   7.557   3.876
16672SOL     OW51912  10.360   8.790   4.527
16672SOL    HW151913  10.383   8.826   4.442
16672SOL    HW251914  10.362   8.864   4.587
16673SOL     OW51915  10.442   7.990  14.657
16673SOL    HW151916  10.436   7.936  14.578
16673SOL    HW251917  10.406   8.074  14.631
16674SOL     OW51918   6.688   9.275  12.041
16674SOL    HW151919   6.666   9.294  12.132
16674SOL    HW251920   6.607   9.243  12.002
16675SOL     OW51921  11.054   6.834   0.224
16675SOL    HW151922  11.049   6.922   0.187
16675SOL    HW251923  11.038   6.775   0.150
16676SOL     OW51924  12.985  10.963  12.610
16676SOL    HW151925  12.923  10.974  12.682
16676SOL    HW251926  13.064  10.926  12.652
16677SOL     OW51927   8.048  11.928   4.878
16677SOL    HW151928   7.970  11.887   4.916
16677SOL    HW251929   8.109  11.937   4.951
16678SOL     OW51930   0.175  10.684  13.570
16678SOL    HW151931   0.199  10.608  13.622
16678SOL    HW251932   0.119  10.649  13.501
16679SOL     OW51933   9.768   1.372   6.596
16679SOL    HW151934   9.793   1.459   6.564
16679SOL    HW251935   9.688   1.387   6.646
16680SOL     OW51936  12.636  11.352  11.756
16680SOL    HW151937  12.628  11.334  11.662
16680SOL    HW251938  12.551  11.325  11.792
16681SOL     OW51939   4.145   7.711  13.709
16681SOL    HW151940   4.208   7.771  13.668
16681SOL    HW251941   4.125   7.752  13.793
16682SOL     OW51942  11.385  14.422   7.036
16682SOL    HW151943  11.355  14.513   7.031
16682SOL    HW251944  11.389  14.403   7.130
16683SOL     OW51945   9.886  12.197  11.014
16683SOL    HW151946   9.917  12.135  11.080
16683SOL    HW251947   9.965  12.222  10.966
16684SOL     OW51948   4.245  12.283   2.866
16684SOL    HW151949   4.250  12.270   2.961
16684SOL    HW251950   4.311  12.349   2.846
16685SOL     OW51951  11.172  14.726  10.448
16685SOL    HW151952  11.224  14.646  10.439
16685SOL    HW251953  11.120  14.712  10.527
16686SOL     OW51954   9.153   4.857   9.749
16686SOL    HW151955   9.164   4.853   9.653
16686SOL    HW251956   9.061   4.837   9.763
16687SOL     OW51957   2.661  11.662   4.359
16687SOL    HW151958   2.737  11.627   4.405
16687SOL    HW251959   2.603  11.693   4.428
16688SOL     OW51960   8.458   7.779   6.435
16688SOL    HW151961   8.385   7.719   6.420
16688SOL    HW251962   8.497   7.792   6.348
16689SOL     OW51963  13.708   1.068  12.832
16689SOL    HW151964  13.630   1.110  12.793
16689SOL    HW251965  13.779   1.090  12.771
16690SOL     OW51966   5.740   8.848   8.095
16690SOL    HW151967   5.821   8.894   8.075
16690SOL    HW251968   5.762   8.788   8.166
16691SOL     OW51969   7.096  10.752  10.783
16691SOL    HW151970   7.060  10.817  10.844
16691SOL    HW251971   7.041  10.759  10.705
16692SOL     OW51972  10.573  10.847   1.444
16692SOL    HW151973  10.517  10.797   1.385
16692SOL    HW251974  10.595  10.926   1.395
16693SOL     OW51975   2.061   4.828   4.279
16693SOL    HW151976   2.035   4.845   4.188
16693SOL    HW251977   2.156   4.844   4.279
16694SOL     OW51978   8.782   4.438   1.804
16694SOL    HW151979   8.704   4.448   1.860
16694SOL    HW251980   8.759   4.484   1.723
16695SOL     OW51981  13.392   5.758  12.936
16695SOL    HW151982  13.379   5.853  12.932
16695SOL    HW251983  13.324   5.727  12.996
16696SOL     OW51984  10.698  10.157  14.606
16696SOL    HW151985  10.776  10.158  14.552
16696SOL    HW251986  10.626  10.143  14.544
16697SOL     OW51987   5.698   3.612   6.652
16697SOL    HW151988   5.750   3.680   6.610
16697SOL    HW251989   5.686   3.643   6.742
16698SOL     OW51990   1.478   5.443   1.415
16698SOL    HW151991   1.466   5.533   1.445
16698SOL    HW251992   1.550   5.410   1.469
16699SOL     OW51993  10.145   9.636   2.523
16699SOL    HW151994  10.134   9.613   2.615
16699SOL    HW251995  10.078   9.702   2.507
16700SOL     OW51996   8.232   3.079   2.583
16700SOL    HW151997   8.285   3.000   2.590
16700SOL    HW251998   8.292   3.145   2.548
16701SOL     OW51999   4.206  11.488  13.619
16701SOL    HW152000   4.211  11.398  13.587
16701SOL    HW252001   4.113  11.510  13.616
16702SOL     OW52002  14.253   6.436  14.420
16702SOL    HW152003  14.230   6.528  14.414
16702SOL    HW252004  14.272   6.421  14.512
16703SOL     OW52005  14.050   2.450  14.342
16703SOL    HW152006  14.032   2.523  14.283
16703SOL    HW252007  14.145   2.435  14.333
16704SOL     OW52008   3.153  10.610   0.178
16704SOL    HW152009   3.201  10.682   0.137
16704SOL    HW252010   3.148  10.543   0.109
16705SOL     OW52011   6.141   2.256   9.708
16705SOL    HW152012   6.230   2.285   9.686
16705SOL    HW252013   6.109   2.321   9.769
16706SOL     OW52014   9.065   0.015  13.385
16706SOL    HW152015   8.977  14.856  13.366
16706SOL    HW252016   9.080   0.084  13.321
16707SOL     OW52017  11.733   9.537  12.065
16707SOL    HW152018  11.803   9.569  12.007
16707SOL    HW252019  11.663   9.511  12.006
16708SOL     OW52020   4.035   5.238  12.390
16708SOL    HW152021   4.025   5.302  12.319
16708SOL    HW252022   3.949   5.199  12.400
16709SOL     OW52023  13.210  11.986   8.189
16709SOL    HW152024  13.304  12.005   8.190
16709SOL    HW252025  13.203  11.897   8.225
16710SOL     OW52026   2.862   3.819   4.366
16710SOL    HW152027   2.785   3.875   4.380
16710SOL    HW252028   2.842   3.772   4.284
16711SOL     OW52029   1.452   6.354  14.684
16711SOL    HW152030   1.419   6.322  14.768
16711SOL    HW252031   1.489   6.440  14.704
16712SOL     OW52032   2.244   2.420   5.018
16712SOL    HW152033   2.256   2.511   4.992
16712SOL    HW252034   2.152   2.402   5.002
16713SOL     OW52035  11.099   6.763   7.071
16713SOL    HW152036  11.159   6.697   7.038
16713SOL    HW252037  11.155   6.830   7.109
16714SOL     OW52038   7.741   2.173   2.979
16714SOL    HW152039   7.828   2.180   2.939
16714SOL    HW252040   7.715   2.264   2.993
16715SOL     OW52041   3.404   4.448  11.450
16715SOL    HW152042   3.410   4.452  11.355
16715SOL    HW252043   3.465   4.515  11.481
16716SOL     OW52044  12.239  12.521  12.050
16716SOL    HW152045  12.296  12.493  11.978
16716SOL    HW252046  12.175  12.450  12.059
16717SOL     OW52047  14.524  12.632  13.535
16717SOL    HW152048  14.578  12.559  13.506
16717SOL    HW252049  14.447  12.629  13.478
16718SOL     OW52050   6.704   1.422   9.508
16718SOL    HW152051   6.620   1.377   9.515
16718SOL    HW252052   6.729   1.411   9.416
16719SOL     OW52053   0.754   4.643   8.720
16719SOL    HW152054   0.703   4.725   8.724
16719SOL    HW252055   0.809   4.646   8.798
16720SOL     OW52056   8.698   7.489   0.438
16720SOL    HW152057   8.669   7.569   0.394
16720SOL    HW252058   8.618   7.437   0.447
16721SOL     OW52059  14.142   7.655   6.570
16721SOL    HW152060  14.080   7.597   6.613
16721SOL    HW252061  14.134   7.634   6.477
16722SOL     OW52062   7.030  11.702   3.100
16722SOL    HW152063   6.988  11.765   3.159
16722SOL    HW252064   7.059  11.755   3.025
16723SOL     OW52065   1.380   2.238  13.620
16723SOL    HW152066   1.402   2.328  13.641
16723SOL    HW252067   1.291   2.242  13.586
16724SOL     OW52068  12.597  11.443   6.055
16724SOL    HW152069  12.509  11.478   6.037
16724SOL    HW252070  12.581  11.355   6.088
16725SOL     OW52071   5.323   0.185   5.687
16725SOL    HW152072   5.389   0.190   5.618
16725SOL    HW252073   5.269   0.110   5.663
16726SOL     OW52074  10.121   6.553  11.522
16726SOL    HW152075  10.030   6.577  11.509
16726SOL    HW252076  10.153   6.614  11.589
16727SOL     OW52077  11.297  11.500   6.021
16727SOL    HW152078  11.229  11.516   5.956
16727SOL    HW252079  11.311  11.585   6.063
16728SOL     OW52080  13.350   0.123  11.216
16728SOL    HW152081  13.384   0.089  11.133
16728SOL    HW252082  13.407   0.197  11.237
16729SOL     OW52083  12.322   8.551   2.997
16729SOL    HW152084  12.287   8.521   3.081
16729SOL    HW252085  12.271   8.504   2.932
16730SOL     OW52086   5.885  12.601   1.490
16730SOL    HW152087   5.894  12.690   1.457
16730SOL    HW252088   5.792  12.580   1.475
16731SOL     OW52089   8.196   8.266   0.687
16731SOL    HW152090   8.121   8.322   0.667
16731SOL    HW252091   8.213   8.219   0.605
16732SOL     OW52092   0.588  10.985   9.317
16732SOL    HW152093   0.643  10.911   9.344
16732SOL    HW252094   0.507  10.944   9.288
16733SOL     OW52095   5.182  13.872   7.184
16733SOL    HW152096   5.234  13.948   7.159
16733SOL    HW252097   5.130  13.902   7.259
16734SOL     OW52098  11.484   7.118  13.179
16734SOL    HW152099  11.451   7.186  13.239
16734SOL    HW252100  11.441   7.038  13.208
16735SOL     OW52101   2.176   3.424   1.756
16735SOL    HW152102   2.188   3.494   1.820
16735SOL    HW252103   2.264   3.405   1.724
16736SOL     OW52104  12.122   1.815   5.104
16736SOL    HW152105  12.202   1.766   5.122
16736SOL    HW252106  12.059   1.783   5.169
16737SOL     OW52107  14.479   4.023  14.090
16737SOL    HW152108  14.501   3.953  14.151
16737SOL    HW252109  14.564   4.052  14.056
16738SOL     OW52110  14.422   8.397   1.655
16738SOL    HW152111  14.467   8.455   1.594
16738SOL    HW252112  14.425   8.443   1.739
16739SOL     OW52113   8.756   2.668   6.159
16739SOL    HW152114   8.762   2.759   6.130
16739SOL    HW252115   8.711   2.623   6.088
16740SOL     OW52116  11.760   7.783   3.248
16740SOL    HW152117  11.742   7.868   3.289
16740SOL    HW252118  11.745   7.798   3.155
16741SOL     OW52119  13.290   4.646   2.758
16741SOL    HW152120  13.324   4.556   2.757
16741SOL    HW252121  13.201   4.637   2.793
16742SOL     OW52122  10.568   0.208   3.485
16742SOL    HW152123  10.603   0.297   3.492
16742SOL    HW252124  10.589   0.167   3.568
16743SOL     OW52125  13.779  14.750   2.942
16743SOL    HW152126  13.776  14.756   3.037
16743SOL    HW252127  13.865  14.783   2.918
16744SOL     OW52128   3.637  14.034   7.430
16744SOL    HW152129   3.730  14.056   7.442
16744SOL    HW252130   3.620  14.052   7.338
16745SOL     OW52131   6.809  14.073   6.769
16745SOL    HW152132   6.844  14.100   6.854
16745SOL    HW252133   6.767  14.151   6.735
16746SOL     OW52134  14.001   1.729   9.809
16746SOL    HW152135  14.023   1.698   9.722
16746SOL    HW252136  14.023   1.657   9.867
16747SOL     OW52137   3.788  13.739   4.370
16747SOL    HW152138   3.759  13.649   4.354
16747SOL    HW252139   3.720  13.793   4.328
16748SOL     OW52140   1.682   6.301  10.150
16748SOL    HW152141   1.669   6.254  10.067
16748SOL    HW252142   1.764   6.348  10.138
16749SOL     OW52143  12.581   5.090  11.337
16749SOL    HW152144  12.607   5.030  11.266
16749SOL    HW252145  12.581   5.036  11.415
16750SOL     OW52146  11.181   0.426   5.163
16750SOL    HW152147  11.244   0.398   5.229
16750SOL    HW252148  11.231   0.428   5.081
16751SOL     OW52149   9.174   4.378   2.945
16751SOL    HW152150   9.149   4.470   2.939
16751SOL    HW252151   9.191   4.364   3.039
16752SOL     OW52152  13.002   5.430   9.746
16752SOL    HW152153  13.045   5.441   9.830
16752SOL    HW252154  13.072   5.438   9.682
16753SOL     OW52155   5.205  14.444  12.077
16753SOL    HW152156   5.177  14.364  12.032
16753SOL    HW252157   5.272  14.481  12.020
16754SOL     OW52158  10.133  12.745   7.535
16754SOL    HW152159  10.195  12.704   7.474
16754SOL    HW252160  10.185  12.809   7.583
16755SOL     OW52161   3.635   6.334   2.090
16755SOL    HW152162   3.693   6.353   2.016
16755SOL    HW252163   3.621   6.419   2.132
16756SOL     OW52164   4.537   9.513  10.146
16756SOL    HW152165   4.534   9.548  10.235
16756SOL    HW252166   4.593   9.575  10.098
16757SOL     OW52167  13.149   6.707  10.498
16757SOL    HW152168  13.101   6.647  10.555
16757SOL    HW252169  13.232   6.662  10.481
16758SOL     OW52170   4.419   5.147  10.595
16758SOL    HW152171   4.488   5.169  10.532
16758SOL    HW252172   4.466   5.120  10.674
16759SOL     OW52173  11.699   2.247   4.040
16759SOL    HW152174  11.714   2.333   3.999
16759SOL    HW252175  11.605   2.247   4.061
16760SOL     OW52176   4.338  13.708  14.470
16760SOL    HW152177   4.263  13.764  14.454
16760SOL    HW252178   4.308  13.620  14.446
16761SOL     OW52179   6.177   3.806   4.210
16761SOL    HW152180   6.084   3.799   4.191
16761SOL    HW252181   6.185   3.783   4.303
16762SOL     OW52182   3.913   8.738  10.578
16762SOL    HW152183   3.892   8.661  10.630
16762SOL    HW252184   3.909   8.708  10.487
16763SOL     OW52185  13.152   5.636   8.233
16763SOL    HW152186  13.168   5.581   8.309
16763SOL    HW252187  13.197   5.591   8.161
16764SOL     OW52188   5.280   4.236   6.169
16764SOL    HW152189   5.324   4.244   6.085
16764SOL    HW252190   5.256   4.326   6.192
16765SOL     OW52191   9.525  10.911  10.137
16765SOL    HW152192   9.495  10.936  10.224
16765SOL    HW252193   9.449  10.870  10.096
16766SOL     OW52194   5.913  13.669   1.852
16766SOL    HW152195   5.854  13.730   1.807
16766SOL    HW252196   5.924  13.707   1.939
16767SOL     OW52197  14.767   4.536   9.407
16767SOL    HW152198  14.809   4.463   9.363
16767SOL    HW252199  14.674   4.513   9.407
16768SOL     OW52200  12.562   4.899   6.196
16768SOL    HW152201  12.617   4.867   6.124
16768SOL    HW252202  12.500   4.958   6.154
16769SOL     OW52203  14.726   3.624   7.805
16769SOL    HW152204  14.739   3.553   7.743
16769SOL    HW252205  14.781   3.695   7.772
16770SOL     OW52206   7.590   2.127   4.403
16770SOL    HW152207   7.666   2.079   4.369
16770SOL    HW252208   7.559   2.074   4.477
16771SOL     OW52209  13.170   3.963   8.193
16771SOL    HW152210  13.103   3.964   8.125
16771SOL    HW252211  13.212   4.049   8.187
16772SOL     OW52212   9.572  12.264   3.036
16772SOL    HW152213   9.602  12.176   3.016
16772SOL    HW252214   9.486  12.252   3.075
16773SOL     OW52215   2.062   6.951  11.415
16773SOL    HW152216   2.057   7.032  11.363
16773SOL    HW252217   2.045   6.979  11.505
16774SOL     OW52218   0.723   6.747   3.360
16774SOL    HW152219   0.661   6.784   3.423
16774SOL    HW252220   0.740   6.659   3.393
16775SOL     OW52221   9.984   0.113   4.275
16775SOL    HW152222   9.932   0.050   4.324
16775SOL    HW252223   9.963   0.097   4.184
16776SOL     OW52224   2.051  10.565   9.744
16776SOL    HW152225   2.066  10.524   9.659
16776SOL    HW252226   2.033  10.492   9.804
16777SOL     OW52227   9.682   4.619   2.459
16777SOL    HW152228   9.733   4.545   2.428
16777SOL    HW252229   9.675   4.606   2.554
16778SOL     OW52230  13.119   2.288   7.507
16778SOL    HW152231  13.184   2.232   7.549
16778SOL    HW252232  13.138   2.281   7.414
16779SOL     OW52233   1.847  13.767  11.927
16779SOL    HW152234   1.805  13.767  11.840
16779SOL    HW252235   1.884  13.679  11.936
16780SOL     OW52236   5.056  13.670   4.500
16780SOL    HW152237   4.967  13.663   4.465
16780SOL    HW252238   5.100  13.591   4.470
16781SOL     OW52239   3.518   1.870  11.696
16781SOL    HW152240   3.433   1.887  11.656
16781SOL    HW252241   3.552   1.956  11.719
16782SOL     OW52242  10.396   1.368   1.455
16782SOL    HW152243  10.309   1.329   1.461
16782SOL    HW252244  10.452   1.309   1.505
16783SOL     OW52245   6.483   4.068  12.187
16783SOL    HW152246   6.524   3.983  12.168
16783SOL    HW252247   6.425   4.084  12.113
16784SOL     OW52248   8.442  13.966   1.541
16784SOL    HW152249   8.415  13.892   1.486
16784SOL    HW252250   8.360  13.998   1.579
16785SOL     OW52251  11.102  12.101  13.447
16785SOL    HW152252  11.042  12.026  13.439
16785SOL    HW252253  11.064  12.155  13.516
16786SOL     OW52254  12.965  13.040   6.164
16786SOL    HW152255  13.058  13.065   6.169
16786SOL    HW252256  12.966  12.953   6.124
16787SOL     OW52257   0.480   9.747   9.164
16787SOL    HW152258   0.516   9.795   9.239
16787SOL    HW252259   0.474   9.657   9.195
16788SOL     OW52260   2.463   2.026   8.184
16788SOL    HW152261   2.555   2.051   8.191
16788SOL    HW252262   2.462   1.952   8.124
16789SOL     OW52263  12.587   2.871   1.361
16789SOL    HW152264  12.529   2.944   1.339
16789SOL    HW252265  12.530   2.794   1.360
16790SOL     OW52266   1.177   9.259   3.887
16790SOL    HW152267   1.216   9.208   3.958
16790SOL    HW252268   1.084   9.264   3.909
16791SOL     OW52269  12.150   8.937   6.607
16791SOL    HW152270  12.188   8.935   6.519
16791SOL    HW252271  12.069   8.888   6.600
16792SOL     OW52272   0.484   8.796  12.717
16792SOL    HW152273   0.488   8.760  12.628
16792SOL    HW252274   0.470   8.890  12.704
16793SOL     OW52275   5.999   1.775  14.573
16793SOL    HW152276   5.913   1.817  14.577
16793SOL    HW252277   5.994   1.718  14.497
16794SOL     OW52278  11.696   8.127   4.171
16794SOL    HW152279  11.718   8.097   4.259
16794SOL    HW252280  11.752   8.203   4.157
16795SOL     OW52281  13.350   4.899   8.932
16795SOL    HW152282  13.394   4.980   8.906
16795SOL    HW252283  13.299   4.924   9.010
16796SOL     OW52284   9.816   0.352   4.206
16796SOL    HW152285   9.788   0.265   4.176
16796SOL    HW252286   9.862   0.336   4.288
16797SOL     OW52287   1.892   6.866   8.619
16797SOL    HW152288   1.827   6.837   8.555
16797SOL    HW252289   1.869   6.957   8.637
16798SOL     OW52290   7.971   2.718   0.037
16798SOL    HW152291   7.876   2.717   0.027
16798SOL    HW252292   8.005   2.721  14.820
16799SOL     OW52293   6.093   6.864   1.571
16799SOL    HW152294   6.156   6.895   1.637
16799SOL    HW252295   6.022   6.826   1.622
16800SOL     OW52296   5.063   2.594   0.190
16800SOL    HW152297   5.138   2.589   0.250
16800SOL    HW252298   4.990   2.618   0.246
16801SOL     OW52299   9.178   7.666   0.379
16801SOL    HW152300   9.180   7.593   0.316
16801SOL    HW252301   9.116   7.637   0.446
16802SOL     OW52302   5.276   8.266   4.084
16802SOL    HW152303   5.277   8.362   4.088
16802SOL    HW252304   5.269   8.238   4.175
16803SOL     OW52305   3.562   1.678  12.744
16803SOL    HW152306   3.527   1.744  12.685
16803SOL    HW252307   3.599   1.728  12.817
16804SOL     OW52308   2.348  14.541   7.948
16804SOL    HW152309   2.319  14.546   7.857
16804SOL    HW252310   2.428  14.489   7.945
16805SOL     OW52311   1.969  13.339   6.735
16805SOL    HW152312   1.921  13.288   6.800
16805SOL    HW252313   2.011  13.272   6.680
16806SOL     OW52314   5.074   4.668  10.381
16806SOL    HW152315   4.997   4.670  10.437
16806SOL    HW252316   5.137   4.725  10.426
16807SOL     OW52317   5.196  10.370   3.090
16807SOL    HW152318   5.259  10.317   3.041
16807SOL    HW252319   5.117  10.371   3.036
16808SOL     OW52320   3.544  11.919   1.259
16808SOL    HW152321   3.525  12.002   1.303
16808SOL    HW252322   3.515  11.852   1.322
16809SOL     OW52323   1.862   5.270   3.422
16809SOL    HW152324   1.842   5.190   3.373
16809SOL    HW252325   1.807   5.263   3.501
16810SOL     OW52326  10.463  12.464  11.434
16810SOL    HW152327  10.515  12.399  11.388
16810SOL    HW252328  10.413  12.508  11.365
16811SOL     OW52329   9.044  11.744  11.708
16811SOL    HW152330   9.034  11.832  11.743
16811SOL    HW252331   8.971  11.734  11.647
16812SOL     OW52332  11.312   5.285   0.984
16812SOL    HW152333  11.367   5.283   0.905
16812SOL    HW252334  11.374   5.306   1.054
16813SOL     OW52335   1.634  13.089   5.152
16813SOL    HW152336   1.579  13.157   5.189
16813SOL    HW252337   1.573  13.019   5.128
16814SOL     OW52338   1.342  11.248  10.605
16814SOL    HW152339   1.280  11.209  10.543
16814SOL    HW252340   1.334  11.194  10.684
16815SOL     OW52341   8.325   0.279  13.237
16815SOL    HW152342   8.383   0.203  13.249
16815SOL    HW252343   8.307   0.279  13.143
16816SOL     OW52344   4.141  12.390  10.144
16816SOL    HW152345   4.107  12.339  10.217
16816SOL    HW252346   4.078  12.461  10.133
16817SOL     OW52347   7.108  10.780  10.176
16817SOL    HW152348   7.108  10.685  10.183
16817SOL    HW252349   7.020  10.807  10.203
16818SOL     OW52350   5.259   9.591   8.585
16818SOL    HW152351   5.237   9.606   8.493
16818SOL    HW252352   5.301   9.505   8.586
16819SOL     OW52353   8.323  11.209  12.655
16819SOL    HW152354   8.258  11.226  12.723
16819SOL    HW252355   8.272  11.203  12.574
16820SOL     OW52356   9.826   6.539   2.632
16820SOL    HW152357   9.732   6.559   2.635
16820SOL    HW252358   9.844   6.523   2.539
16821SOL     OW52359   2.590   6.868   0.415
16821SOL    HW152360   2.557   6.821   0.338
16821SOL    HW252361   2.514   6.875   0.472
16822SOL     OW52362   9.196   8.734   9.415
16822SOL    HW152363   9.239   8.808   9.457
16822SOL    HW252364   9.106   8.763   9.401
16823SOL     OW52365  12.364   5.161   1.790
16823SOL    HW152366  12.417   5.240   1.794
16823SOL    HW252367  12.311   5.162   1.870
16824SOL     OW52368   1.185  14.256  10.380
16824SOL    HW152369   1.228  14.172  10.400
16824SOL    HW252370   1.246  14.302  10.323
16825SOL     OW52371   8.506  14.233   9.039
16825SOL    HW152372   8.483  14.325   9.030
16825SOL    HW252373   8.602  14.233   9.045
16826SOL     OW52374  12.770   9.103   5.902
16826SOL    HW152375  12.694   9.046   5.897
16826SOL    HW252376  12.839   9.047   5.938
16827SOL     OW52377   3.842   7.962  14.571
16827SOL    HW152378   3.808   8.031  14.514
16827SOL    HW252379   3.801   7.881  14.538
16828SOL     OW52380   1.158  10.828  11.012
16828SOL    HW152381   1.150  10.900  10.949
16828SOL    HW252382   1.190  10.871  11.092
16829SOL     OW52383   2.165   2.075   6.114
16829SOL    HW152384   2.098   2.142   6.121
16829SOL    HW252385   2.246   2.124   6.097
16830SOL     OW52386   3.458   0.598   7.624
16830SOL    HW152387   3.394   0.669   7.634
16830SOL    HW252388   3.525   0.616   7.691
16831SOL     OW52389   5.018  11.512  12.748
16831SOL    HW152390   5.024  11.512  12.652
16831SOL    HW252391   5.082  11.447  12.777
16832SOL     OW52392  12.642   5.580  13.061
16832SOL    HW152393  12.591   5.554  12.984
16832SOL    HW252394  12.662   5.673  13.046
16833SOL     OW52395  12.263   1.332   9.185
16833SOL    HW152396  12.300   1.244   9.180
16833SOL    HW252397  12.322   1.386   9.134
16834SOL     OW52398   0.092   4.852  10.470
16834SOL    HW152399   0.169   4.812  10.511
16834SOL    HW252400   0.018   4.819  10.522
16835SOL     OW52401   9.344  10.954  11.288
16835SOL    HW152402   9.302  10.882  11.241
16835SOL    HW252403   9.279  11.024  11.288
16836SOL     OW52404   9.613   2.132   5.319
16836SOL    HW152405   9.567   2.117   5.402
16836SOL    HW252406   9.630   2.044   5.285
16837SOL     OW52407  12.054   9.292  10.918
16837SOL    HW152408  12.075   9.216  10.864
16837SOL    HW252409  12.123   9.355  10.899
16838SOL     OW52410   5.747   1.999  14.296
16838SOL    HW152411   5.840   2.017  14.311
16838SOL    HW252412   5.723   2.055  14.223
16839SOL     OW52413   7.179   6.005   9.172
16839SOL    HW152414   7.086   6.028   9.170
16839SOL    HW252415   7.208   6.033   9.259
16840SOL     OW52416  10.664   8.325  11.610
16840SOL    HW152417  10.725   8.270  11.561
16840SOL    HW252418  10.676   8.413  11.574
16841SOL     OW52419  10.910   2.056  12.351
16841SOL    HW152420  10.980   2.116  12.323
16841SOL    HW252421  10.944   2.015  12.430
16842SOL     OW52422  10.740   5.591  10.796
16842SOL    HW152423  10.686   5.650  10.848
16842SOL    HW252424  10.679   5.552  10.733
16843SOL     OW52425   9.971   4.781  10.386
16843SOL    HW152426  10.013   4.707  10.342
16843SOL    HW252427   9.880   4.776  10.358
16844SOL     OW52428   3.579   9.853   7.896
16844SOL    HW152429   3.493   9.894   7.887
16844SOL    HW252430   3.639   9.912   7.850
16845SOL     OW52431  14.068  14.044   4.049
16845SOL    HW152432  13.979  14.013   4.034
16845SOL    HW252433  14.079  14.039   4.144
16846SOL     OW52434  14.765   8.066   2.525
16846SOL    HW152435  14.825   8.044   2.454
16846SOL    HW252436  14.818   8.118   2.585
16847SOL     OW52437   3.371  10.123  11.063
16847SOL    HW152438   3.352  10.160  11.149
16847SOL    HW252439   3.363  10.029  11.075
16848SOL     OW52440   4.855   3.688   5.784
16848SOL    HW152441   4.788   3.621   5.798
16848SOL    HW252442   4.906   3.655   5.709
16849SOL     OW52443   8.767   6.586   0.626
16849SOL    HW152444   8.784   6.575   0.720
16849SOL    HW252445   8.814   6.665   0.602
16850SOL     OW52446   0.613   1.640   3.801
16850SOL    HW152447   0.666   1.561   3.790
16850SOL    HW252448   0.627   1.690   3.721
16851SOL     OW52449   0.393   2.494  14.071
16851SOL    HW152450   0.315   2.509  14.018
16851SOL    HW252451   0.457   2.458  14.010
16852SOL     OW52452   9.340   3.098   5.986
16852SOL    HW152453   9.408   3.039   5.953
16852SOL    HW252454   9.366   3.117   6.076
16853SOL     OW52455   7.809   3.166   3.377
16853SOL    HW152456   7.812   3.216   3.459
16853SOL    HW252457   7.890   3.188   3.332
16854SOL     OW52458   6.126   2.140  13.864
16854SOL    HW152459   6.060   2.210  13.870
16854SOL    HW252460   6.166   2.152  13.778
16855SOL     OW52461   9.094   7.740  14.446
16855SOL    HW152462   9.096   7.683  14.523
16855SOL    HW252463   9.141   7.819  14.475
16856SOL     OW52464   9.253  14.230   2.703
16856SOL    HW152465   9.337  14.264   2.672
16856SOL    HW252466   9.244  14.145   2.660
16857SOL     OW52467   1.147   1.354   6.578
16857SOL    HW152468   1.152   1.349   6.673
16857SOL    HW252469   1.135   1.263   6.549
16858SOL     OW52470  12.237  14.210   2.903
16858SOL    HW152471  12.309  14.269   2.926
16858SOL    HW252472  12.175  14.265   2.856
16859SOL     OW52473   5.687  12.864   1.263
16859SOL    HW152474   5.605  12.874   1.311
16859SOL    HW252475   5.755  12.871   1.331
16860SOL     OW52476   1.058   6.152   3.843
16860SOL    HW152477   1.140   6.177   3.802
16860SOL    HW252478   1.025   6.233   3.883
16861SOL     OW52479  10.047   9.620   4.809
16861SOL    HW152480  10.135   9.599   4.780
16861SOL    HW252481  10.027   9.704   4.768
16862SOL     OW52482  10.690   0.088   2.785
16862SOL    HW152483  10.672   0.033   2.709
16862SOL    HW252484  10.751   0.154   2.752
16863SOL     OW52485   8.146  11.600   7.679
16863SOL    HW152486   8.156  11.549   7.760
16863SOL    HW252487   8.059  11.576   7.647
16864SOL     OW52488   0.924   2.956   8.221
16864SOL    HW152489   0.956   3.000   8.299
16864SOL    HW252490   0.904   2.867   8.251
16865SOL     OW52491  14.348   5.521   3.192
16865SOL    HW152492  14.293   5.594   3.219
16865SOL    HW252493  14.436   5.546   3.218
16866SOL     OW52494   2.195   8.224   7.859
16866SOL    HW152495   2.114   8.263   7.825
16866SOL    HW252496   2.200   8.255   7.949
16867SOL     OW52497   4.633   4.250   2.819
16867SOL    HW152498   4.653   4.196   2.896
16867SOL    HW252499   4.537   4.254   2.818
16868SOL     OW52500  12.661   0.515   9.306
16868SOL    HW152501  12.684   0.584   9.368
16868SOL    HW252502  12.663   0.435   9.358
16869SOL     OW52503  10.917   5.186   5.331
16869SOL    HW152504  10.870   5.263   5.362
16869SOL    HW252505  10.891   5.116   5.390
16870SOL     OW52506   0.564   4.394  11.545
16870SOL    HW152507   0.658   4.407  11.558
16870SOL    HW252508   0.550   4.301  11.562
16871SOL     OW52509  12.011  13.216  14.064
16871SOL    HW152510  12.071  13.153  14.103
16871SOL    HW252511  12.057  13.248  13.986
16872SOL     OW52512   3.847   1.856   9.868
16872SOL    HW152513   3.781   1.801   9.909
16872SOL    HW252514   3.827   1.944   9.898
16873SOL     OW52515   9.849   7.446  13.232
16873SOL    HW152516   9.804   7.467  13.151
16873SOL    HW252517   9.934   7.412  13.204
16874SOL     OW52518   7.458  10.388   5.826
16874SOL    HW152519   7.416  10.354   5.906
16874SOL    HW252520   7.543  10.419   5.855
16875SOL     OW52521   5.972   1.780   6.584
16875SOL    HW152522   6.038   1.712   6.571
16875SOL    HW252523   5.895   1.733   6.617
16876SOL     OW52524  10.841   0.528  13.867
16876SOL    HW152525  10.872   0.599  13.811
16876SOL    HW252526  10.896   0.535  13.945
16877SOL     OW52527   4.429  14.827   8.568
16877SOL    HW152528   4.471   0.020   8.512
16877SOL    HW252529   4.453  14.743   8.529
16878SOL     OW52530   6.484   5.915  12.017
16878SOL    HW152531   6.478   5.964  12.099
16878SOL    HW252532   6.419   5.956  11.960
16879SOL     OW52533   1.864   5.646   1.518
16879SOL    HW152534   1.769   5.658   1.526
16879SOL    HW252535   1.898   5.734   1.501
16880SOL     OW52536   5.459   2.156   6.133
16880SOL    HW152537   5.380   2.179   6.084
16880SOL    HW252538   5.505   2.240   6.144
16881SOL     OW52539   5.109  13.534   1.639
16881SOL    HW152540   5.134  13.447   1.669
16881SOL    HW252541   5.091  13.583   1.720
16882SOL     OW52542  14.713   9.423   7.345
16882SOL    HW152543  14.698   9.358   7.414
16882SOL    HW252544  14.671   9.386   7.267
16883SOL     OW52545   3.672   7.264   3.051
16883SOL    HW152546   3.736   7.199   3.023
16883SOL    HW252547   3.655   7.315   2.972
16884SOL     OW52548   1.467   8.553   0.540
16884SOL    HW152549   1.459   8.515   0.452
16884SOL    HW252550   1.398   8.510   0.591
16885SOL     OW52551   4.604   9.555   7.070
16885SOL    HW152552   4.591   9.461   7.083
16885SOL    HW252553   4.690   9.573   7.108
16886SOL     OW52554   4.762  11.050  11.974
16886SOL    HW152555   4.690  10.995  12.004
16886SOL    HW252556   4.720  11.132  11.948
16887SOL     OW52557   9.794   8.934   9.575
16887SOL    HW152558   9.821   8.931   9.667
16887SOL    HW252559   9.866   8.979   9.530
16888SOL     OW52560   5.984   4.299   4.652
16888SOL    HW152561   5.921   4.253   4.598
16888SOL    HW252562   5.973   4.391   4.630
16889SOL     OW52563   9.976   4.447   5.510
16889SOL    HW152564  10.004   4.368   5.557
16889SOL    HW252565  10.038   4.514   5.537
16890SOL     OW52566  14.864   1.571   5.396
16890SOL    HW152567   0.033   1.621   5.467
16890SOL    HW252568  14.813   1.636   5.348
16891SOL     OW52569   0.125  13.215   8.800
16891SOL    HW152570   0.140  13.122   8.819
16891SOL    HW252571   0.156  13.227   8.711
16892SOL     OW52572   2.478   1.290  14.300
16892SOL    HW152573   2.506   1.214  14.350
16892SOL    HW252574   2.485   1.363  14.361
16893SOL     OW52575  11.241  12.169   6.081
16893SOL    HW152576  11.236  12.253   6.035
16893SOL    HW252577  11.331  12.165   6.114
16894SOL     OW52578   0.048   2.601  12.995
16894SOL    HW152579   0.112   2.652  12.944
16894SOL    HW252580   0.100   2.557  13.062
16895SOL     OW52581   8.992  11.069  12.900
16895SOL    HW152582   8.983  11.126  12.823
16895SOL    HW252583   9.008  11.129  12.973
16896SOL     OW52584  14.155  13.814   5.990
16896SOL    HW152585  14.060  13.815   5.991
16896SOL    HW252586  14.179  13.826   5.898
16897SOL     OW52587  12.429   3.123   8.213
16897SOL    HW152588  12.412   3.034   8.245
16897SOL    HW252589  12.370   3.133   8.138
16898SOL     OW52590   3.888   7.085   8.587
16898SOL    HW152591   3.857   7.174   8.601
16898SOL    HW252592   3.908   7.052   8.674
16899SOL     OW52593   5.923   3.877   5.537
16899SOL    HW152594   5.999   3.900   5.484
16899SOL    HW252595   5.906   3.785   5.516
16900SOL     OW52596  11.429   4.036   1.079
16900SOL    HW152597  11.350   3.983   1.075
16900SOL    HW252598  11.420   4.087   1.160
16901SOL     OW52599   1.345   1.504   6.049
16901SOL    HW152600   1.410   1.518   5.980
16901SOL    HW252601   1.327   1.591   6.084
16902SOL     OW52602   6.380   6.566   4.856
16902SOL    HW152603   6.390   6.661   4.865
16902SOL    HW252604   6.289   6.549   4.880
16903SOL     OW52605   2.608   0.684   2.020
16903SOL    HW152606   2.702   0.672   2.012
16903SOL    HW252607   2.583   0.632   2.097
16904SOL     OW52608   0.041  10.044   8.985
16904SOL    HW152609  14.851  10.063   9.055
16904SOL    HW252610   0.099  10.120   8.983
16905SOL     OW52611   0.597  14.510   3.002
16905SOL    HW152612   0.636  14.489   2.918
16905SOL    HW252613   0.503  14.495   2.990
16906SOL     OW52614   9.001  13.097   4.776
16906SOL    HW152615   9.032  13.187   4.786
16906SOL    HW252616   9.061  13.044   4.828
16907SOL     OW52617   7.197   1.145   0.992
16907SOL    HW152618   7.111   1.175   0.965
16907SOL    HW252619   7.256   1.176   0.923
16908SOL     OW52620   1.273   9.905  12.254
16908SOL    HW152621   1.306   9.835  12.197
16908SOL    HW252622   1.312   9.886  12.339
16909SOL     OW52623   9.746   2.054   7.329
16909SOL    HW152624   9.718   2.025   7.416
16909SOL    HW252625   9.829   2.099   7.344
16910SOL     OW52626   0.476   7.292   6.375
16910SOL    HW152627   0.549   7.238   6.407
16910SOL    HW252628   0.490   7.377   6.416
16911SOL     OW52629  10.045   8.610   0.489
16911SOL    HW152630  10.002   8.642   0.568
16911SOL    HW252631   9.998   8.529   0.467
16912SOL     OW52632  11.054   8.662   1.750
16912SOL    HW152633  11.086   8.686   1.663
16912SOL    HW252634  11.123   8.607   1.787
16913SOL     OW52635  12.542   9.192   0.845
16913SOL    HW152636  12.497   9.171   0.926
16913SOL    HW252637  12.591   9.273   0.865
16914SOL     OW52638  13.123  10.140   3.950
16914SOL    HW152639  13.212  10.137   3.913
16914SOL    HW252640  13.098  10.048   3.957
16915SOL     OW52641   2.885   3.704   4.987
16915SOL    HW152642   2.970   3.748   4.997
16915SOL    HW252643   2.885   3.637   5.056
16916SOL     OW52644  12.792  11.740   5.525
16916SOL    HW152645  12.742  11.658   5.526
16916SOL    HW252646  12.882  11.712   5.510
16917SOL     OW52647  11.242   8.867  14.476
16917SOL    HW152648  11.319   8.856  14.531
16917SOL    HW252649  11.277   8.871  14.387
16918SOL     OW52650   5.196   6.848   7.248
16918SOL    HW152651   5.258   6.779   7.273
16918SOL    HW252652   5.231   6.928   7.288
16919SOL     OW52653   5.874   0.755   3.680
16919SOL    HW152654   5.839   0.792   3.760
16919SOL    HW252655   5.961   0.794   3.671
16920SOL     OW52656   4.480   7.192  13.967
16920SOL    HW152657   4.430   7.251  13.910
16920SOL    HW252658   4.427   7.112  13.970
16921SOL     OW52659   8.066   5.421   7.070
16921SOL    HW152660   8.075   5.510   7.103
16921SOL    HW252661   8.064   5.430   6.975
16922SOL     OW52662   7.961  11.840  12.055
16922SOL    HW152663   8.016  11.912  12.024
16922SOL    HW252664   8.020  11.764  12.054
16923SOL     OW52665   2.250   1.868   1.101
16923SOL    HW152666   2.248   1.816   1.021
16923SOL    HW252667   2.206   1.813   1.166
16924SOL     OW52668   6.193   3.054  13.011
16924SOL    HW152669   6.170   3.093  12.926
16924SOL    HW252670   6.221   3.129  13.064
16925SOL     OW52671   9.078   2.057   8.929
16925SOL    HW152672   9.140   2.020   8.992
16925SOL    HW252673   9.126   2.127   8.886
16926SOL     OW52674   7.194  14.810  14.486
16926SOL    HW152675   7.180   0.021  14.532
16926SOL    HW252676   7.241  14.756  14.549
16927SOL     OW52677   4.868  14.511  11.281
16927SOL    HW152678   4.877  14.495  11.187
16927SOL    HW252679   4.868  14.606  11.290
16928SOL     OW52680   8.823  14.837   8.510
16928SOL    HW152681   8.743  14.829   8.457
16928SOL    HW252682   8.889  14.788   8.462
16929SOL     OW52683  10.092  13.449   7.310
16929SOL    HW152684  10.019  13.493   7.267
16929SOL    HW252685  10.053  13.369   7.347
16930SOL     OW52686   0.572  10.516   9.780
16930SOL    HW152687   0.593  10.545   9.868
16930SOL    HW252688   0.657  10.494   9.741
16931SOL     OW52689  14.487   5.745  14.046
16931SOL    HW152690  14.501   5.656  14.079
16931SOL    HW252691  14.483   5.800  14.125
16932SOL     OW52692   1.292   6.232   7.278
16932SOL    HW152693   1.348   6.206   7.204
16932SOL    HW252694   1.321   6.321   7.300
16933SOL     OW52695  14.015  10.008   0.956
16933SOL    HW152696  13.962   9.950   0.901
16933SOL    HW252697  14.105   9.980   0.941
16934SOL     OW52698   8.835   3.464   3.024
16934SOL    HW152699   8.814   3.375   2.994
16934SOL    HW252700   8.871   3.451   3.112
16935SOL     OW52701   2.274  11.494   3.610
16935SOL    HW152702   2.230  11.417   3.648
16935SOL    HW252703   2.362  11.464   3.590
16936SOL     OW52704  14.471   3.239   8.096
16936SOL    HW152705  14.453   3.292   8.173
16936SOL    HW252706  14.420   3.159   8.109
16937SOL     OW52707   8.187   4.413   4.952
16937SOL    HW152708   8.114   4.352   4.960
16937SOL    HW252709   8.172   4.459   4.870
16938SOL     OW52710   3.711  11.758   0.533
16938SOL    HW152711   3.725  11.683   0.475
16938SOL    HW252712   3.616  11.760   0.546
16939SOL     OW52713   2.937   3.749  12.976
16939SOL    HW152714   2.983   3.789  13.049
16939SOL    HW252715   2.851   3.727  13.011
16940SOL     OW52716  10.421  10.334  12.758
16940SOL    HW152717  10.449  10.268  12.821
16940SOL    HW252718  10.503  10.367  12.720
16941SOL     OW52719   4.557  11.632   6.093
16941SOL    HW152720   4.642  11.612   6.134
16941SOL    HW252721   4.520  11.701   6.147
16942SOL     OW52722   1.061   1.838   4.887
16942SOL    HW152723   1.152   1.809   4.885
16942SOL    HW252724   1.022   1.792   4.961
16943SOL     OW52725   2.120   4.706  10.145
16943SOL    HW152726   2.089   4.684  10.057
16943SOL    HW252727   2.184   4.637  10.164
16944SOL     OW52728   8.789   3.230   1.985
16944SOL    HW152729   8.811   3.209   1.894
16944SOL    HW252730   8.778   3.326   1.985
16945SOL     OW52731   5.548  12.299   1.453
16945SOL    HW152732   5.549  12.206   1.475
16945SOL    HW252733   5.483  12.306   1.383
16946SOL     OW52734   7.167   3.961  13.433
16946SOL    HW152735   7.262   3.962  13.442
16946SOL    HW252736   7.141   4.053  13.440
16947SOL     OW52737   0.424   9.946   6.522
16947SOL    HW152738   0.394   9.864   6.484
16947SOL    HW252739   0.360  10.011   6.494
16948SOL     OW52740  10.821  13.826  11.253
16948SOL    HW152741  10.786  13.809  11.166
16948SOL    HW252742  10.847  13.739  11.285
16949SOL     OW52743  10.964  11.010  10.860
16949SOL    HW152744  11.052  11.044  10.846
16949SOL    HW252745  10.912  11.048  10.789
16950SOL     OW52746  10.069   9.154  14.371
16950SOL    HW152747  10.158   9.133  14.341
16950SOL    HW252748  10.011   9.118  14.304
16951SOL     OW52749  11.051   8.504   6.864
16951SOL    HW152750  11.013   8.499   6.951
16951SOL    HW252751  11.000   8.441   6.812
16952SOL     OW52752   4.818   4.234   4.675
16952SOL    HW152753   4.848   4.232   4.766
16952SOL    HW252754   4.825   4.326   4.649
16953SOL     OW52755  14.317  13.921   4.918
16953SOL    HW152756  14.385  13.901   4.982
16953SOL    HW252757  14.301  13.837   4.874
16954SOL     OW52758   7.203   2.862  12.060
16954SOL    HW152759   7.252   2.809  12.123
16954SOL    HW252760   7.213   2.816  11.977
16955SOL     OW52761  11.013   3.908   2.184
16955SOL    HW152762  11.059   3.825   2.197
16955SOL    HW252763  10.922   3.882   2.168
16956SOL     OW52764   7.678   4.921   6.260
16956SOL    HW152765   7.732   4.874   6.324
16956SOL    HW252766   7.739   4.981   6.217
16957SOL     OW52767   9.959  13.158  11.394
16957SOL    HW152768   9.930  13.092  11.333
16957SOL    HW252769   9.963  13.239  11.343
16958SOL     OW52770   2.460  10.882   6.483
16958SOL    HW152771   2.513  10.961   6.494
16958SOL    HW252772   2.509  10.814   6.528
16959SOL     OW52773   9.036   6.678   5.130
16959SOL    HW152774   9.062   6.768   5.109
16959SOL    HW252775   8.942   6.684   5.147
16960SOL     OW52776  11.033   4.867   2.022
16960SOL    HW152777  11.081   4.786   2.036
16960SOL    HW252778  10.953   4.857   2.074
16961SOL     OW52779   6.472   9.048  12.463
16961SOL    HW152780   6.521   9.040  12.544
16961SOL    HW252781   6.410   9.119  12.479
16962SOL     OW52782   4.473   5.596  10.023
16962SOL    HW152783   4.459   5.509  10.061
16962SOL    HW252784   4.540   5.636  10.078
16963SOL     OW52785   7.301   8.169   4.689
16963SOL    HW152786   7.342   8.194   4.772
16963SOL    HW252787   7.290   8.075   4.695
16964SOL     OW52788   5.041   1.172   4.782
16964SOL    HW152789   5.044   1.203   4.691
16964SOL    HW252790   5.126   1.131   4.796
16965SOL     OW52791   4.467  11.346   6.852
16965SOL    HW152792   4.438  11.266   6.895
16965SOL    HW252793   4.419  11.416   6.897
16966SOL     OW52794   9.682   2.754  13.549
16966SOL    HW152795   9.766   2.800  13.541
16966SOL    HW252796   9.697   2.670  13.505
16967SOL     OW52797  10.754   9.073   7.365
16967SOL    HW152798  10.705   8.998   7.400
16967SOL    HW252799  10.726   9.147   7.419
16968SOL     OW52800  11.950  13.618   5.939
16968SOL    HW152801  12.039  13.644   5.962
16968SOL    HW252802  11.902  13.623   6.022
16969SOL     OW52803   4.684   4.703   8.293
16969SOL    HW152804   4.736   4.624   8.307
16969SOL    HW252805   4.616   4.676   8.232
16970SOL     OW52806  12.620   8.965  10.457
16970SOL    HW152807  12.533   8.974  10.497
16970SOL    HW252808  12.604   8.969  10.363
16971SOL     OW52809   7.742   8.518   4.691
16971SOL    HW152810   7.720   8.436   4.736
16971SOL    HW252811   7.799   8.491   4.619
16972SOL     OW52812   0.588  11.253  11.901
16972SOL    HW152813   0.581  11.238  11.807
16972SOL    HW252814   0.651  11.324  11.909
16973SOL     OW52815  12.776   4.667   4.855
16973SOL    HW152816  12.744   4.756   4.868
16973SOL    HW252817  12.870   4.678   4.839
16974SOL     OW52818  14.368  12.762   1.529
16974SOL    HW152819  14.357  12.680   1.481
16974SOL    HW252820  14.309  12.755   1.604
16975SOL     OW52821   8.709   5.837   2.517
16975SOL    HW152822   8.716   5.931   2.534
16975SOL    HW252823   8.628   5.810   2.559
16976SOL     OW52824   4.489   0.663   4.497
16976SOL    HW152825   4.416   0.662   4.435
16976SOL    HW252826   4.496   0.573   4.528
16977SOL     OW52827   2.396   1.602   8.432
16977SOL    HW152828   2.341   1.670   8.394
16977SOL    HW252829   2.407   1.537   8.363
16978SOL     OW52830   0.878   0.736   9.474
16978SOL    HW152831   0.803   0.787   9.505
16978SOL    HW252832   0.902   0.682   9.550
16979SOL     OW52833   6.069   2.594  12.895
16979SOL    HW152834   6.107   2.652  12.961
16979SOL    HW252835   6.017   2.531  12.945
16980SOL     OW52836  12.627   9.306   1.766
16980SOL    HW152837  12.565   9.363   1.812
16980SOL    HW252838  12.679   9.366   1.712
16981SOL     OW52839   8.877  12.293   1.683
16981SOL    HW152840   8.971  12.290   1.669
16981SOL    HW252841   8.861  12.233   1.756
16982SOL     OW52842  14.120  13.048   5.639
16982SOL    HW152843  14.165  13.132   5.645
16982SOL    HW252844  14.157  12.995   5.710
16983SOL     OW52845   0.951   2.241   4.380
16983SOL    HW152846   1.033   2.194   4.364
16983SOL    HW252847   0.891   2.174   4.412
16984SOL     OW52848   3.144   7.387  13.160
16984SOL    HW152849   3.191   7.463  13.195
16984SOL    HW252850   3.151   7.397  13.065
16985SOL     OW52851   0.817   6.559   2.631
16985SOL    HW152852   0.750   6.552   2.699
16985SOL    HW252853   0.842   6.651   2.632
16986SOL     OW52854   9.555  12.118   0.089
16986SOL    HW152855   9.605  12.060   0.147
16986SOL    HW252856   9.502  12.171   0.148
16987SOL     OW52857  13.468   2.721   1.957
16987SOL    HW152858  13.373   2.716   1.949
16987SOL    HW252859  13.495   2.630   1.972
16988SOL     OW52860  10.459  12.473   5.300
16988SOL    HW152861  10.433  12.558   5.264
16988SOL    HW252862  10.510  12.432   5.230
16989SOL     OW52863  10.131  12.514  12.232
16989SOL    HW152864  10.045  12.472  12.228
16989SOL    HW252865  10.119  12.597  12.187
16990SOL     OW52866   6.746  12.185  12.094
16990SOL    HW152867   6.652  12.168  12.098
16990SOL    HW252868   6.754  12.278  12.113
16991SOL     OW52869   5.719  10.974  10.433
16991SOL    HW152870   5.778  10.934  10.369
16991SOL    HW252871   5.633  10.938  10.412
16992SOL     OW52872   9.608   2.808   3.558
16992SOL    HW152873   9.599   2.729   3.505
16992SOL    HW252874   9.700   2.809   3.585
16993SOL     OW52875   3.728  14.279  13.617
16993SOL    HW152876   3.753  14.286  13.525
16993SOL    HW252877   3.675  14.200  13.622
16994SOL     OW52878  13.670   8.155   2.913
16994SOL    HW152879  13.684   8.249   2.919
16994SOL    HW252880  13.759   8.118   2.904
16995SOL     OW52881  14.267  14.233   3.893
16995SOL    HW152882  14.279  14.156   3.949
16995SOL    HW252883  14.328  14.297   3.928
16996SOL     OW52884   0.119  14.195  13.667
16996SOL    HW152885   0.169  14.216  13.588
16996SOL    HW252886   0.116  14.278  13.716
16997SOL     OW52887   9.897   8.813   3.835
16997SOL    HW152888   9.878   8.727   3.873
16997SOL    HW252889   9.883   8.800   3.741
16998SOL     OW52890  13.539  11.974   1.528
16998SOL    HW152891  13.472  12.026   1.483
16998SOL    HW252892  13.563  11.906   1.465
16999SOL     OW52893   2.481   8.410   5.421
16999SOL    HW152894   2.558   8.394   5.366
16999SOL    HW252895   2.490   8.501   5.450
17000SOL     OW52896   0.919   9.789   7.600
17000SOL    HW152897   0.964   9.849   7.659
17000SOL    HW252898   0.859   9.844   7.550
17001SOL     OW52899   8.066   0.485   3.444
17001SOL    HW152900   8.030   0.409   3.399
17001SOL    HW252901   7.990   0.531   3.479
17002SOL     OW52902   1.389   5.886   8.760
17002SOL    HW152903   1.361   5.915   8.673
17002SOL    HW252904   1.396   5.791   8.752
17003SOL     OW52905  11.334  12.792   1.174
17003SOL    HW152906  11.286  12.798   1.091
17003SOL    HW252907  11.275  12.832   1.238
17004SOL     OW52908   4.343  10.243   7.864
17004SOL    HW152909   4.373  10.153   7.879
17004SOL    HW252910   4.268  10.234   7.805
17005SOL     OW52911   6.656  14.455   3.171
17005SOL    HW152912   6.673  14.482   3.080
17005SOL    HW252913   6.568  14.420   3.169
17006SOL     OW52914  10.058   8.722  14.727
17006SOL    HW152915  10.114   8.781  14.777
17006SOL    HW252916  10.078   8.741  14.635
17007SOL     OW52917   3.578  14.239   7.177
17007SOL    HW152918   3.539  14.291   7.247
17007SOL    HW252919   3.506  14.223   7.116
17008SOL     OW52920  11.668   9.759  13.138
17008SOL    HW152921  11.754   9.772  13.099
17008SOL    HW252922  11.656   9.664  13.138
17009SOL     OW52923  10.838  14.305  12.535
17009SOL    HW152924  10.843  14.386  12.485
17009SOL    HW252925  10.781  14.248  12.483
17010SOL     OW52926   5.551   2.416   3.661
17010SOL    HW152927   5.645   2.418   3.643
17010SOL    HW252928   5.522   2.505   3.644
17011SOL     OW52929   6.138   5.098  10.684
17011SOL    HW152930   6.065   5.048  10.647
17011SOL    HW252931   6.104   5.186  10.697
17012SOL     OW52932   1.196  11.470   4.194
17012SOL    HW152933   1.176  11.433   4.107
17012SOL    HW252934   1.288  11.449   4.208
17013SOL     OW52935   6.832   9.193   1.201
17013SOL    HW152936   6.802   9.155   1.118
17013SOL    HW252937   6.920   9.158   1.214
17014SOL     OW52938   4.780   5.046  14.208
17014SOL    HW152939   4.724   4.972  14.233
17014SOL    HW252940   4.809   5.025  14.119
17015SOL     OW52941   9.816   0.318  13.406
17015SOL    HW152942   9.804   0.328  13.501
17015SOL    HW252943   9.743   0.264  13.378
17016SOL     OW52944   8.661   0.704  13.961
17016SOL    HW152945   8.578   0.663  13.984
17016SOL    HW252946   8.727   0.638  13.981
17017SOL     OW52947  11.592   4.230   9.296
17017SOL    HW152948  11.687   4.221   9.288
17017SOL    HW252949  11.579   4.271   9.382
17018SOL     OW52950  12.529   4.386  12.649
17018SOL    HW152951  12.619   4.419  12.657
17018SOL    HW252952  12.527   4.344  12.563
17019SOL     OW52953   0.895   9.623   2.298
17019SOL    HW152954   0.898   9.528   2.286
17019SOL    HW252955   0.928   9.659   2.216
17020SOL     OW52956   2.311   2.586   8.692
17020SOL    HW152957   2.219   2.592   8.717
17020SOL    HW252958   2.317   2.503   8.644
17021SOL     OW52959   4.136  10.049   8.674
17021SOL    HW152960   4.160  10.141   8.665
17021SOL    HW252961   4.076  10.032   8.602
17022SOL     OW52962  11.307   9.076  10.504
17022SOL    HW152963  11.238   9.015  10.531
17022SOL    HW252964  11.267   9.163  10.515
17023SOL     OW52965   6.997   3.418   4.834
17023SOL    HW152966   6.998   3.368   4.916
17023SOL    HW252967   6.910   3.404   4.798
17024SOL     OW52968   9.069  14.152   6.522
17024SOL    HW152969   8.992  14.206   6.541
17024SOL    HW252970   9.143  14.211   6.537
17025SOL     OW52971  12.957   3.918  11.333
17025SOL    HW152972  12.868   3.932  11.367
17025SOL    HW252973  12.952   3.944  11.241
17026SOL     OW52974   2.347  10.938  13.000
17026SOL    HW152975   2.413  10.927  12.931
17026SOL    HW252976   2.361  10.864  13.059
17027SOL     OW52977   5.464  13.669   7.263
17027SOL    HW152978   5.495  13.591   7.311
17027SOL    HW252979   5.459  13.737   7.330
17028SOL     OW52980   9.358  11.110  13.204
17028SOL    HW152981   9.297  11.039  13.181
17028SOL    HW252982   9.438  11.065  13.230
17029SOL     OW52983   4.923   6.575   8.140
17029SOL    HW152984   4.928   6.662   8.101
17029SOL    HW252985   5.004   6.566   8.190
17030SOL     OW52986  13.101   6.245   6.330
17030SOL    HW152987  13.181   6.233   6.381
17030SOL    HW252988  13.113   6.329   6.286
17031SOL     OW52989   5.756   1.636   4.376
17031SOL    HW152990   5.830   1.576   4.375
17031SOL    HW252991   5.680   1.582   4.354
17032SOL     OW52992  12.403  11.378  10.291
17032SOL    HW152993  12.459  11.326  10.349
17032SOL    HW252994  12.395  11.324  10.212
17033SOL     OW52995  11.594  13.974  13.579
17033SOL    HW152996  11.592  14.000  13.671
17033SOL    HW252997  11.512  13.927  13.565
17034SOL     OW52998   4.595   3.988   2.292
17034SOL    HW152999   4.577   4.080   2.311
17034SOL    HW253000   4.689   3.984   2.278
17035SOL     OW53001  14.375   4.801   5.800
17035SOL    HW153002  14.387   4.884   5.755
17035SOL    HW253003  14.350   4.826   5.889
17036SOL     OW53004   3.763   1.904  13.737
17036SOL    HW153005   3.737   1.940  13.822
17036SOL    HW253006   3.832   1.842  13.756
17037SOL     OW53007   7.117   3.753   2.979
17037SOL    HW153008   7.071   3.808   3.042
17037SOL    HW253009   7.201   3.798   2.964
17038SOL     OW53010   7.362   8.709   2.652
17038SOL    HW153011   7.285   8.700   2.596
17038SOL    HW253012   7.399   8.621   2.657
17039SOL     OW53013   1.527   8.728   3.568
17039SOL    HW153014   1.567   8.811   3.594
17039SOL    HW253015   1.597   8.681   3.522
17040SOL     OW53016   0.497  10.245  10.073
17040SOL    HW153017   0.483  10.281   9.986
17040SOL    HW253018   0.589  10.221  10.075
17041SOL     OW53019   2.062   8.057  13.620
17041SOL    HW153020   1.981   8.058  13.569
17041SOL    HW253021   2.034   8.073  13.710
17042SOL     OW53022   8.618  14.307   0.304
17042SOL    HW153023   8.678  14.373   0.269
17042SOL    HW253024   8.597  14.338   0.392
17043SOL     OW53025  11.311   5.202   4.398
17043SOL    HW153026  11.264   5.277   4.361
17043SOL    HW253027  11.296   5.209   4.492
17044SOL     OW53028   6.726  12.919  13.800
17044SOL    HW153029   6.741  12.862  13.724
17044SOL    HW253030   6.812  12.927  13.841
17045SOL     OW53031   7.933   6.322   6.720
17045SOL    HW153032   7.885   6.252   6.765
17045SOL    HW253033   7.896   6.402   6.756
17046SOL     OW53034   3.479   4.877   1.990
17046SOL    HW153035   3.530   4.945   2.034
17046SOL    HW253036   3.544   4.817   1.955
17047SOL     OW53037   4.816   4.857   1.753
17047SOL    HW153038   4.740   4.806   1.725
17047SOL    HW253039   4.781   4.918   1.818
17048SOL     OW53040  13.312   6.388   7.637
17048SOL    HW153041  13.232   6.374   7.586
17048SOL    HW253042  13.371   6.318   7.608
17049SOL     OW53043   1.687   2.249  12.571
17049SOL    HW153044   1.734   2.333  12.570
17049SOL    HW253045   1.595   2.274  12.569
17050SOL     OW53046   3.041  10.285  10.626
17050SOL    HW153047   3.031  10.249  10.537
17050SOL    HW253048   3.004  10.217  10.683
17051SOL     OW53049   9.518   5.854  10.619
17051SOL    HW153050   9.510   5.913  10.545
17051SOL    HW253051   9.451   5.787  10.604
17052SOL     OW53052   2.917  10.790   6.802
17052SOL    HW153053   3.009  10.791   6.831
17052SOL    HW253054   2.888  10.881   6.810
17053SOL     OW53055  10.235   5.610  13.359
17053SOL    HW153056  10.158   5.557  13.380
17053SOL    HW253057  10.200   5.696  13.336
17054SOL     OW53058   8.590   9.891   9.453
17054SOL    HW153059   8.598   9.825   9.384
17054SOL    HW253060   8.538   9.848   9.521
17055SOL     OW53061   6.821  11.381   1.982
17055SOL    HW153062   6.740  11.424   2.010
17055SOL    HW253063   6.796  11.290   1.969
17056SOL     OW53064   4.324  11.452   9.268
17056SOL    HW153065   4.229  11.448   9.276
17056SOL    HW253066   4.356  11.401   9.343
17057SOL     OW53067   2.614   8.879   7.147
17057SOL    HW153068   2.566   8.796   7.154
17057SOL    HW253069   2.704   8.856   7.166
17058SOL     OW53070   7.451   3.649  14.367
17058SOL    HW153071   7.387   3.694  14.313
17058SOL    HW253072   7.492   3.586  14.309
17059SOL     OW53073   6.414   7.041  13.038
17059SOL    HW153074   6.435   6.950  13.059
17059SOL    HW253075   6.332   7.058  13.086
17060SOL     OW53076  13.341  14.703   9.380
17060SOL    HW153077  13.353  14.680   9.473
17060SOL    HW253078  13.248  14.724   9.373
17061SOL     OW53079   5.523   2.809  14.067
17061SOL    HW153080   5.525   2.735  14.128
17061SOL    HW253081   5.590   2.868  14.100
17062SOL     OW53082  10.798   7.732  14.638
17062SOL    HW153083  10.756   7.802  14.587
17062SOL    HW253084  10.730   7.665  14.647
17063SOL     OW53085  10.339   8.826   2.046
17063SOL    HW153086  10.388   8.905   2.070
17063SOL    HW253087  10.393   8.754   2.076
17064SOL     OW53088   0.115   8.772   4.739
17064SOL    HW153089   0.198   8.817   4.726
17064SOL    HW253090   0.050   8.829   4.698
17065SOL     OW53091  11.107   7.727   3.321
17065SOL    HW153092  11.181   7.782   3.296
17065SOL    HW253093  11.109   7.654   3.259
17066SOL     OW53094   7.396  13.489   8.506
17066SOL    HW153095   7.466  13.424   8.512
17066SOL    HW253096   7.416  13.538   8.425
17067SOL     OW53097  12.317   0.428   5.902
17067SOL    HW153098  12.360   0.450   5.985
17067SOL    HW253099  12.359   0.484   5.837
17068SOL     OW53100   3.585   0.737   6.753
17068SOL    HW153101   3.510   0.680   6.773
17068SOL    HW253102   3.661   0.684   6.777
17069SOL     OW53103  14.290  11.255  10.588
17069SOL    HW153104  14.265  11.284  10.676
17069SOL    HW253105  14.211  11.213  10.554
17070SOL     OW53106  14.576   8.377  11.307
17070SOL    HW153107  14.584   8.456  11.359
17070SOL    HW253108  14.491   8.340  11.333
17071SOL     OW53109   3.113   5.398   4.711
17071SOL    HW153110   3.030   5.397   4.760
17071SOL    HW253111   3.175   5.355   4.769
17072SOL     OW53112  10.034   4.905   3.027
17072SOL    HW153113  10.107   4.967   3.034
17072SOL    HW253114  10.076   4.820   3.015
17073SOL     OW53115   0.881   9.503   7.063
17073SOL    HW153116   0.925   9.520   6.980
17073SOL    HW253117   0.924   9.424   7.097
17074SOL     OW53118   2.298   8.995   6.932
17074SOL    HW153119   2.308   8.903   6.908
17074SOL    HW253120   2.254   8.993   7.017
17075SOL     OW53121  14.119  14.819  13.756
17075SOL    HW153122  14.188  14.767  13.715
17075SOL    HW253123  14.113  14.786  13.845
17076SOL     OW53124  11.632   5.431  10.227
17076SOL    HW153125  11.698   5.392  10.169
17076SOL    HW253126  11.585   5.356  10.264
17077SOL     OW53127  13.013   2.527   2.355
17077SOL    HW153128  13.063   2.496   2.430
17077SOL    HW253129  13.007   2.622   2.366
17078SOL     OW53130   5.398  14.811  10.199
17078SOL    HW153131   5.490  14.832  10.211
17078SOL    HW253132   5.377  14.749  10.269
17079SOL     OW53133   4.817   6.774   2.517
17079SOL    HW153134   4.904   6.762   2.480
17079SOL    HW253135   4.833   6.790   2.610
17080SOL     OW53136  13.228  13.847  14.244
17080SOL    HW153137  13.158  13.912  14.255
17080SOL    HW253138  13.296  13.895  14.195
17081SOL     OW53139   3.626   8.223  13.964
17081SOL    HW153140   3.605   8.161  13.893
17081SOL    HW253141   3.653   8.167  14.037
17082SOL     OW53142   7.236   7.494   6.746
17082SOL    HW153143   7.171   7.454   6.803
17082SOL    HW253144   7.294   7.422   6.721
17083SOL     OW53145   1.195   8.269   6.138
17083SOL    HW153146   1.270   8.325   6.156
17083SOL    HW253147   1.226   8.207   6.072
17084SOL     OW53148  10.226   8.502   2.107
17084SOL    HW153149  10.186   8.507   2.020
17084SOL    HW253150  10.200   8.416   2.140
17085SOL     OW53151   3.843  14.134   5.490
17085SOL    HW153152   3.757  14.151   5.530
17085SOL    HW253153   3.826  14.137   5.396
17086SOL     OW53154   7.137   7.093   2.413
17086SOL    HW153155   7.187   7.048   2.345
17086SOL    HW253156   7.202   7.147   2.459
17087SOL     OW53157   5.580   0.537   8.747
17087SOL    HW153158   5.505   0.573   8.700
17087SOL    HW253159   5.543   0.493   8.823
17088SOL     OW53160  12.008   9.416   0.533
17088SOL    HW153161  12.094   9.387   0.502
17088SOL    HW253162  11.971   9.465   0.460
17089SOL     OW53163  10.934   6.491   4.689
17089SOL    HW153164  10.984   6.572   4.681
17089SOL    HW253165  10.940   6.450   4.603
17090SOL     OW53166   5.736   6.195   3.730
17090SOL    HW153167   5.825   6.210   3.762
17090SOL    HW253168   5.702   6.125   3.786
17091SOL     OW53169   9.658  12.971   8.107
17091SOL    HW153170   9.731  13.032   8.107
17091SOL    HW253171   9.671  12.917   8.185
17092SOL     OW53172  10.968   2.475   7.371
17092SOL    HW153173  10.889   2.514   7.336
17092SOL    HW253174  10.985   2.521   7.453
17093SOL     OW53175   4.211   5.288   6.489
17093SOL    HW153176   4.211   5.246   6.574
17093SOL    HW253177   4.272   5.362   6.499
17094SOL     OW53178  12.345   0.723   4.797
17094SOL    HW153179  12.439   0.730   4.815
17094SOL    HW253180  12.309   0.675   4.871
17095SOL     OW53181   2.453  11.548   8.520
17095SOL    HW153182   2.373  11.495   8.521
17095SOL    HW253183   2.504  11.515   8.594
17096SOL     OW53184  11.138   5.882   4.908
17096SOL    HW153185  11.073   5.938   4.865
17096SOL    HW253186  11.139   5.802   4.855
17097SOL     OW53187  12.448   8.745  14.178
17097SOL    HW153188  12.379   8.681  14.159
17097SOL    HW253189  12.412   8.829  14.148
17098SOL     OW53190  12.750   3.421  14.312
17098SOL    HW153191  12.696   3.470  14.249
17098SOL    HW253192  12.772   3.486  14.379
17099SOL     OW53193   2.712  12.735   9.165
17099SOL    HW153194   2.660  12.662   9.200
17099SOL    HW253195   2.755  12.699   9.088
17100SOL     OW53196   2.645   3.282  10.965
17100SOL    HW153197   2.660   3.237  11.049
17100SOL    HW253198   2.699   3.234  10.902
17101SOL     OW53199  11.908  10.407   8.425
17101SOL    HW153200  11.865  10.328   8.460
17101SOL    HW253201  11.871  10.418   8.338
17102SOL     OW53202   5.036  14.042   0.581
17102SOL    HW153203   5.076  14.119   0.622
17102SOL    HW253204   5.098  13.971   0.598
17103SOL     OW53205   2.928   3.570   7.699
17103SOL    HW153206   2.893   3.657   7.719
17103SOL    HW253207   2.948   3.532   7.784
17104SOL     OW53208   3.282   4.283   9.678
17104SOL    HW153209   3.241   4.282   9.765
17104SOL    HW253210   3.261   4.197   9.641
17105SOL     OW53211   8.508   7.253   8.611
17105SOL    HW153212   8.520   7.166   8.648
17105SOL    HW253213   8.463   7.238   8.528
17106SOL     OW53214  11.531  14.345   1.341
17106SOL    HW153215  11.522  14.413   1.274
17106SOL    HW253216  11.504  14.389   1.422
17107SOL     OW53217   0.479   0.397   0.003
17107SOL    HW153218   0.488   0.488  14.846
17107SOL    HW253219   0.414   0.401   0.073
17108SOL     OW53220   2.384  14.411  14.075
17108SOL    HW153221   2.394  14.399  14.169
17108SOL    HW253222   2.473  14.430  14.044
17109SOL     OW53223  12.309   3.812  12.651
17109SOL    HW153224  12.271   3.834  12.736
17109SOL    HW253225  12.401   3.792  12.670
17110SOL     OW53226  12.226   6.150   1.722
17110SOL    HW153227  12.250   6.205   1.647
17110SOL    HW253228  12.157   6.200   1.766
17111SOL     OW53229  10.719   9.101   0.928
17111SOL    HW153230  10.717   9.006   0.917
17111SOL    HW253231  10.656   9.134   0.864
17112SOL     OW53232  11.491   3.876  13.342
17112SOL    HW153233  11.485   3.888  13.247
17112SOL    HW253234  11.452   3.955  13.379
17113SOL     OW53235   7.386  12.738  11.899
17113SOL    HW153236   7.459  12.681  11.926
17113SOL    HW253237   7.359  12.782  11.980
17114SOL     OW53238  11.243  10.710  10.282
17114SOL    HW153239  11.296  10.678  10.355
17114SOL    HW253240  11.154  10.687  10.305
17115SOL     OW53241   9.402  11.460   1.703
17115SOL    HW153242   9.366  11.441   1.790
17115SOL    HW253243   9.408  11.555   1.700
17116SOL     OW53244  11.220   4.332   9.097
17116SOL    HW153245  11.149   4.289   9.048
17116SOL    HW253246  11.253   4.399   9.037
17117SOL     OW53247   6.058  11.369  12.698
17117SOL    HW153248   6.073  11.428  12.625
17117SOL    HW253249   6.131  11.307  12.694
17118SOL     OW53250  10.712   6.420  11.921
17118SOL    HW153251  10.639   6.417  11.859
17118SOL    HW253252  10.707   6.336  11.967
17119SOL     OW53253   6.720   4.699   4.154
17119SOL    HW153254   6.760   4.677   4.238
17119SOL    HW253255   6.626   4.691   4.169
17120SOL     OW53256   1.542   6.923  10.831
17120SOL    HW153257   1.609   6.924  10.763
17120SOL    HW253258   1.586   6.960  10.908
17121SOL     OW53259   4.972   4.346   5.235
17121SOL    HW153260   5.019   4.335   5.152
17121SOL    HW253261   4.892   4.392   5.211
17122SOL     OW53262   0.234  11.416  10.591
17122SOL    HW153263   0.204  11.342  10.539
17122SOL    HW253264   0.154  11.461  10.618
17123SOL     OW53265   6.615   0.184  10.228
17123SOL    HW153266   6.709   0.168  10.232
17123SOL    HW253267   6.584   0.166  10.317
17124SOL     OW53268   3.149  14.657   4.205
17124SOL    HW153269   3.228  14.607   4.181
17124SOL    HW253270   3.090  14.591   4.243
17125SOL     OW53271   9.604   3.773   8.865
17125SOL    HW153272   9.573   3.691   8.903
17125SOL    HW253273   9.614   3.754   8.772
17126SOL     OW53274   5.237   8.548   5.527
17126SOL    HW153275   5.160   8.492   5.536
17126SOL    HW253276   5.267   8.564   5.616
17127SOL     OW53277   8.769  13.954  10.514
17127SOL    HW153278   8.737  13.942  10.425
17127SOL    HW253279   8.837  13.888  10.525
17128SOL     OW53280   8.232   8.990  12.185
17128SOL    HW153281   8.238   8.909  12.235
17128SOL    HW253282   8.256   8.966  12.095
17129SOL     OW53283   5.539   8.183   8.962
17129SOL    HW153284   5.613   8.130   8.991
17129SOL    HW253285   5.556   8.270   8.996
17130SOL     OW53286  11.847   6.294   4.153
17130SOL    HW153287  11.916   6.277   4.089
17130SOL    HW253288  11.808   6.377   4.125
17131SOL     OW53289   6.024  13.791  12.775
17131SOL    HW153290   5.994  13.862  12.832
17131SOL    HW253291   5.947  13.735  12.764
17132SOL     OW53292  14.783   2.809   4.526
17132SOL    HW153293  14.805   2.892   4.483
17132SOL    HW253294  14.740   2.758   4.457
17133SOL     OW53295   7.851   6.397   6.483
17133SOL    HW153296   7.903   6.379   6.561
17133SOL    HW253297   7.772   6.440   6.516
17134SOL     OW53298   0.055   1.062   7.395
17134SOL    HW153299   0.012   0.977   7.391
17134SOL    HW253300   0.088   1.067   7.485
17135SOL     OW53301   7.815   5.787   7.225
17135SOL    HW153302   7.749   5.857   7.222
17135SOL    HW253303   7.892   5.829   7.262
17136SOL     OW53304   9.741   0.172   8.251
17136SOL    HW153305   9.808   0.105   8.257
17136SOL    HW253306   9.764   0.222   8.172
17137SOL     OW53307   1.015   3.876   5.991
17137SOL    HW153308   0.951   3.882   6.062
17137SOL    HW253309   1.048   3.786   5.995
17138SOL     OW53310   7.609  14.747   1.045
17138SOL    HW153311   7.546  14.773   0.978
17138SOL    HW253312   7.557  14.702   1.111
17139SOL     OW53313  13.150   1.371   5.988
17139SOL    HW153314  13.196   1.406   5.911
17139SOL    HW253315  13.077   1.321   5.951
17140SOL     OW53316  13.085   9.420   3.292
17140SOL    HW153317  13.116   9.341   3.246
17140SOL    HW253318  13.074   9.392   3.383
17141SOL     OW53319   4.010   3.710   6.287
17141SOL    HW153320   4.039   3.733   6.199
17141SOL    HW253321   3.980   3.792   6.326
17142SOL     OW53322   0.330   6.333   4.002
17142SOL    HW153323   0.253   6.294   4.044
17142SOL    HW253324   0.374   6.260   3.959
17143SOL     OW53325   4.607   2.407   5.925
17143SOL    HW153326   4.620   2.452   5.842
17143SOL    HW253327   4.652   2.461   5.989
17144SOL     OW53328   8.694   0.924  13.248
17144SOL    HW153329   8.754   0.932  13.322
17144SOL    HW253330   8.751   0.931  13.171
17145SOL     OW53331   7.717   1.629  13.513
17145SOL    HW153332   7.674   1.580  13.442
17145SOL    HW253333   7.746   1.710  13.471
17146SOL     OW53334  11.292  12.293   8.169
17146SOL    HW153335  11.334  12.225   8.221
17146SOL    HW253336  11.245  12.246   8.100
17147SOL     OW53337   1.807   1.140  14.119
17147SOL    HW153338   1.783   1.091  14.041
17147SOL    HW253339   1.903   1.138  14.121
17148SOL     OW53340   4.141  11.378   7.696
17148SOL    HW153341   4.066  11.354   7.640
17148SOL    HW253342   4.216  11.336   7.654
17149SOL     OW53343   7.671   3.234   9.048
17149SOL    HW153344   7.594   3.280   9.082
17149SOL    HW253345   7.700   3.288   8.974
17150SOL     OW53346   0.903  14.691   0.026
17150SOL    HW153347   0.887  14.778  14.861
17150SOL    HW253348   0.821  14.668   0.069
17151SOL     OW53349  14.191   3.607  10.140
17151SOL    HW153350  14.103   3.589  10.109
17151SOL    HW253351  14.205   3.700  10.121
17152SOL     OW53352   7.234   9.475  13.162
17152SOL    HW153353   7.301   9.464  13.095
17152SOL    HW253354   7.211   9.568  13.158
17153SOL     OW53355   5.757   4.281  14.129
17153SOL    HW153356   5.663   4.282  14.146
17153SOL    HW253357   5.770   4.350  14.064
17154SOL     OW53358   2.274  11.600   6.999
17154SOL    HW153359   2.319  11.627   6.919
17154SOL    HW253360   2.265  11.505   6.990
17155SOL     OW53361   1.642  13.829  14.071
17155SOL    HW153362   1.622  13.893  14.139
17155SOL    HW253363   1.671  13.882  13.996
17156SOL     OW53364   8.514   9.956   7.852
17156SOL    HW153365   8.423   9.927   7.855
17156SOL    HW253366   8.535   9.960   7.759
17157SOL     OW53367   2.324  14.254   4.360
17157SOL    HW153368   2.229  14.257   4.350
17157SOL    HW253369   2.357  14.315   4.293
17158SOL     OW53370   9.450  12.671   7.480
17158SOL    HW153371   9.389  12.633   7.543
17158SOL    HW253372   9.526  12.612   7.481
17159SOL     OW53373   9.548   4.775  13.149
17159SOL    HW153374   9.530   4.732  13.233
17159SOL    HW253375   9.527   4.867  13.166
17160SOL     OW53376   8.899   3.623   1.731
17160SOL    HW153377   8.977   3.678   1.720
17160SOL    HW253378   8.833   3.663   1.675
17161SOL     OW53379   6.241   8.070  11.707
17161SOL    HW153380   6.250   8.082  11.802
17161SOL    HW253381   6.269   8.154  11.670
17162SOL     OW53382   3.161   7.700   0.698
17162SOL    HW153383   3.067   7.700   0.720
17162SOL    HW253384   3.203   7.668   0.778
17163SOL     OW53385   6.986   0.324  10.461
17163SOL    HW153386   6.992   0.329  10.365
17163SOL    HW253387   6.926   0.395  10.484
17164SOL     OW53388   1.019  10.250   9.344
17164SOL    HW153389   1.073  10.295   9.279
17164SOL    HW253390   0.932  10.288   9.334
17165SOL     OW53391   6.410   4.375   9.847
17165SOL    HW153392   6.386   4.449   9.792
17165SOL    HW253393   6.336   4.315   9.841
17166SOL     OW53394  12.009   8.564  12.340
17166SOL    HW153395  12.053   8.599  12.263
17166SOL    HW253396  12.044   8.615  12.413
17167SOL     OW53397   9.518   2.403   0.297
17167SOL    HW153398   9.483   2.475   0.349
17167SOL    HW253399   9.479   2.325   0.335
17168SOL     OW53400  11.939   5.008   5.186
17168SOL    HW153401  12.007   4.941   5.196
17168SOL    HW253402  11.866   4.976   5.239
17169SOL     OW53403   8.930   3.116   1.768
17169SOL    HW153404   8.988   3.119   1.692
17169SOL    HW253405   8.875   3.039   1.753
17170SOL     OW53406  11.844   8.334  12.379
17170SOL    HW153407  11.907   8.271  12.414
17170SOL    HW253408  11.898   8.410  12.355
17171SOL     OW53409   1.527   9.047   3.935
17171SOL    HW153410   1.497   9.082   3.851
17171SOL    HW253411   1.577   9.119   3.973
17172SOL     OW53412   4.719   3.711   0.262
17172SOL    HW153413   4.718   3.615   0.262
17172SOL    HW253414   4.692   3.734   0.351
17173SOL     OW53415   0.635   3.841  14.790
17173SOL    HW153416   0.634   3.747  14.807
17173SOL    HW253417   0.545   3.863  14.768
17174SOL     OW53418   1.529   1.937  11.692
17174SOL    HW153419   1.474   2.015  11.705
17174SOL    HW253420   1.500   1.875  11.759
17175SOL     OW53421  14.841   9.315  11.839
17175SOL    HW153422  14.783   9.371  11.890
17175SOL    HW253423  14.789   9.237  11.820
17176SOL     OW53424   2.172   2.175  10.079
17176SOL    HW153425   2.221   2.154  10.158
17176SOL    HW253426   2.151   2.268  10.088
17177SOL     OW53427  10.318  10.520   6.964
17177SOL    HW153428  10.273  10.467   6.898
17177SOL    HW253429  10.286  10.609   6.949
17178SOL     OW53430   7.659   4.537   3.929
17178SOL    HW153431   7.676   4.451   3.889
17178SOL    HW253432   7.563   4.542   3.933
17179SOL     OW53433   0.971   5.911  11.332
17179SOL    HW153434   0.892   5.870  11.367
17179SOL    HW253435   0.960   5.909  11.237
17180SOL     OW53436  11.990   5.147  10.393
17180SOL    HW153437  12.081   5.127  10.417
17180SOL    HW253438  11.990   5.147  10.298
17181SOL     OW53439   0.302   3.142  11.223
17181SOL    HW153440   0.267   3.103  11.303
17181SOL    HW253441   0.270   3.232  11.224
17182SOL     OW53442   9.428   8.724   5.907
17182SOL    HW153443   9.459   8.769   5.986
17182SOL    HW253444   9.344   8.765   5.887
17183SOL     OW53445   6.526   0.479   0.329
17183SOL    HW153446   6.489   0.391   0.320
17183SOL    HW253447   6.503   0.524   0.248
17184SOL     OW53448   5.771   5.382   0.346
17184SOL    HW153449   5.683   5.396   0.310
17184SOL    HW253450   5.810   5.315   0.290
17185SOL     OW53451   1.538  11.543   8.124
17185SOL    HW153452   1.449  11.554   8.092
17185SOL    HW253453   1.582  11.626   8.103
17186SOL     OW53454  14.652   0.342   9.799
17186SOL    HW153455  14.745   0.336   9.821
17186SOL    HW253456  14.643   0.289   9.720
17187SOL     OW53457   9.642   5.253   9.489
17187SOL    HW153458   9.574   5.237   9.424
17187SOL    HW253459   9.614   5.333   9.533
17188SOL     OW53460   2.639   3.730   6.493
17188SOL    HW153461   2.640   3.772   6.579
17188SOL    HW253462   2.606   3.797   6.434
17189SOL     OW53463  12.231  11.822  12.687
17189SOL    HW153464  12.141  11.797  12.669
17189SOL    HW253465  12.249  11.893  12.624
17190SOL     OW53466   0.685  10.465   7.514
17190SOL    HW153467   0.776  10.441   7.498
17190SOL    HW253468   0.689  10.522   7.591
17191SOL     OW53469   1.422   4.753   4.236
17191SOL    HW153470   1.439   4.673   4.188
17191SOL    HW253471   1.345   4.734   4.289
17192SOL     OW53472   7.219  14.764   2.507
17192SOL    HW153473   7.227  14.859   2.520
17192SOL    HW253474   7.129  14.744   2.531
17193SOL     OW53475   2.768  11.881   6.238
17193SOL    HW153476   2.837  11.902   6.175
17193SOL    HW253477   2.716  11.961   6.244
17194SOL     OW53478  14.693   7.413   7.502
17194SOL    HW153479  14.606   7.424   7.540
17194SOL    HW253480  14.685   7.452   7.415
17195SOL     OW53481   4.995   4.177  14.212
17195SOL    HW153482   5.049   4.170  14.291
17195SOL    HW253483   4.906   4.185  14.244
17196SOL     OW53484   8.843  10.963   8.954
17196SOL    HW153485   8.855  10.895   9.020
17196SOL    HW253486   8.923  10.959   8.901
17197SOL     OW53487  11.756   5.119   0.963
17197SOL    HW153488  11.695   5.061   0.917
17197SOL    HW253489  11.805   5.060   1.021
17198SOL     OW53490   0.933  14.455   1.225
17198SOL    HW153491   1.027  14.473   1.220
17198SOL    HW253492   0.920  14.423   1.314
17199SOL     OW53493  11.392   5.406  13.500
17199SOL    HW153494  11.305   5.391  13.463
17199SOL    HW253495  11.452   5.369  13.436
17200SOL     OW53496   8.722  13.415   3.623
17200SOL    HW153497   8.699  13.427   3.715
17200SOL    HW253498   8.818  13.410   3.622
17201SOL     OW53499   6.221   1.534   2.514
17201SOL    HW153500   6.306   1.525   2.557
17201SOL    HW253501   6.228   1.479   2.436
17202SOL     OW53502   5.768  11.234  14.793
17202SOL    HW153503   5.705  11.277  14.851
17202SOL    HW253504   5.853  11.245  14.838
17203SOL     OW53505   2.140   1.654   9.461
17203SOL    HW153506   2.103   1.569   9.487
17203SOL    HW253507   2.203   1.674   9.530
17204SOL     OW53508  12.843  12.844   2.453
17204SOL    HW153509  12.902  12.898   2.401
17204SOL    HW253510  12.829  12.895   2.533
17205SOL     OW53511   9.882   2.523   3.224
17205SOL    HW153512   9.847   2.457   3.165
17205SOL    HW253513   9.891   2.479   3.308
17206SOL     OW53514   8.249   5.798  13.454
17206SOL    HW153515   8.326   5.813  13.399
17206SOL    HW253516   8.285   5.765  13.537
17207SOL     OW53517   5.149   8.373   7.376
17207SOL    HW153518   5.139   8.369   7.471
17207SOL    HW253519   5.059   8.377   7.343
17208SOL     OW53520  12.302  12.788   6.372
17208SOL    HW153521  12.302  12.833   6.287
17208SOL    HW253522  12.393  12.790   6.401
17209SOL     OW53523   1.740   2.767   6.517
17209SOL    HW153524   1.685   2.752   6.593
17209SOL    HW253525   1.805   2.697   6.520
17210SOL     OW53526   9.017   2.276  13.002
17210SOL    HW153527   8.940   2.235  12.962
17210SOL    HW253528   8.992   2.291  13.093
17211SOL     OW53529  10.226  13.733   3.385
17211SOL    HW153530  10.217  13.772   3.472
17211SOL    HW253531  10.190  13.645   3.394
17212SOL     OW53532   2.968   2.724   4.911
17212SOL    HW153533   2.931   2.812   4.916
17212SOL    HW253534   2.932   2.678   4.986
17213SOL     OW53535   9.319   6.625   6.018
17213SOL    HW153536   9.368   6.689   5.966
17213SOL    HW253537   9.238   6.670   6.040
17214SOL     OW53538   3.389   1.586   3.539
17214SOL    HW153539   3.361   1.636   3.615
17214SOL    HW253540   3.460   1.637   3.501
17215SOL     OW53541  13.518   9.672  12.877
17215SOL    HW153542  13.431   9.687  12.841
17215SOL    HW253543  13.577   9.711  12.813
17216SOL     OW53544  12.588   7.851   7.879
17216SOL    HW153545  12.622   7.840   7.790
17216SOL    HW253546  12.537   7.932   7.875
17217SOL     OW53547   7.440  11.342  12.872
17217SOL    HW153548   7.419  11.298  12.954
17217SOL    HW253549   7.508  11.288  12.832
17218SOL     OW53550   1.849   5.493  11.801
17218SOL    HW153551   1.923   5.479  11.742
17218SOL    HW253552   1.887   5.488  11.888
17219SOL     OW53553  13.199   1.343  10.489
17219SOL    HW153554  13.162   1.265  10.447
17219SOL    HW253555  13.177   1.332  10.582
17220SOL     OW53556   5.634  10.186   4.451
17220SOL    HW153557   5.711  10.172   4.396
17220SOL    HW253558   5.619  10.281   4.446
17221SOL     OW53559  14.772  13.277   4.784
17221SOL    HW153560  14.824  13.202   4.813
17221SOL    HW253561  14.739  13.316   4.864
17222SOL     OW53562  13.776   1.969  14.159
17222SOL    HW153563  13.820   2.052  14.179
17222SOL    HW253564  13.792   1.957  14.065
17223SOL     OW53565   7.047   3.344   5.111
17223SOL    HW153566   7.023   3.406   5.180
17223SOL    HW253567   7.051   3.259   5.154
17224SOL     OW53568  10.764   6.704  12.720
17224SOL    HW153569  10.720   6.789  12.715
17224SOL    HW253570  10.764   6.671  12.630
17225SOL     OW53571   1.349   9.300   4.556
17225SOL    HW153572   1.402   9.321   4.480
17225SOL    HW253573   1.403   9.324   4.631
17226SOL     OW53574  12.933   6.198   2.360
17226SOL    HW153575  12.961   6.122   2.411
17226SOL    HW253576  12.914   6.265   2.425
17227SOL     OW53577   4.036   0.171   3.952
17227SOL    HW153578   3.977   0.235   3.913
17227SOL    HW253579   3.990   0.141   4.030
17228SOL     OW53580   1.381   4.275   5.887
17228SOL    HW153581   1.453   4.285   5.826
17228SOL    HW253582   1.308   4.323   5.847
17229SOL     OW53583   2.392   9.846   1.059
17229SOL    HW153584   2.371   9.936   1.083
17229SOL    HW253585   2.420   9.805   1.141
17230SOL     OW53586  12.610   4.291   4.229
17230SOL    HW153587  12.693   4.268   4.188
17230SOL    HW253588  12.569   4.352   4.168
17231SOL     OW53589   1.460   0.380   7.155
17231SOL    HW153590   1.419   0.338   7.231
17231SOL    HW253591   1.461   0.312   7.088
17232SOL     OW53592   0.993  12.619  13.595
17232SOL    HW153593   0.940  12.666  13.659
17232SOL    HW253594   1.032  12.688  13.541
17233SOL     OW53595  11.707   3.545  10.037
17233SOL    HW153596  11.619   3.521  10.009
17233SOL    HW253597  11.708   3.640  10.039
17234SOL     OW53598  10.116   4.756  12.372
17234SOL    HW153599  10.030   4.714  12.375
17234SOL    HW253600  10.141   4.752  12.280
17235SOL     OW53601  13.232   7.837   7.878
17235SOL    HW153602  13.270   7.919   7.907
17235SOL    HW253603  13.257   7.773   7.945
17236SOL     OW53604  13.385   6.490  13.026
17236SOL    HW153605  13.397   6.516  13.118
17236SOL    HW253606  13.340   6.406  13.031
17237SOL     OW53607   1.643  13.310   8.180
17237SOL    HW153608   1.572  13.347   8.128
17237SOL    HW253609   1.611  13.224   8.207
17238SOL     OW53610   6.292  13.917   0.375
17238SOL    HW153611   6.381  13.937   0.403
17238SOL    HW253612   6.285  13.957   0.288
17239SOL     OW53613   7.297   7.287  10.764
17239SOL    HW153614   7.296   7.350  10.836
17239SOL    HW253615   7.279   7.203  10.806
17240SOL     OW53616   1.256   0.872   6.664
17240SOL    HW153617   1.254   0.873   6.760
17240SOL    HW253618   1.250   0.779   6.641
17241SOL     OW53619  10.024   5.924  11.991
17241SOL    HW153620   9.978   5.893  11.913
17241SOL    HW253621   9.957   5.923  12.060
17242SOL     OW53622  12.698  12.298  10.375
17242SOL    HW153623  12.784  12.323  10.340
17242SOL    HW253624  12.719  12.247  10.454
17243SOL     OW53625   2.781   6.562  11.728
17243SOL    HW153626   2.700   6.529  11.768
17243SOL    HW253627   2.851   6.530  11.786
17244SOL     OW53628  13.557   0.652   0.655
17244SOL    HW153629  13.572   0.699   0.573
17244SOL    HW253630  13.499   0.580   0.631
17245SOL     OW53631   6.949  11.647   6.707
17245SOL    HW153632   7.002  11.576   6.742
17245SOL    HW253633   6.983  11.661   6.618
17246SOL     OW53634   5.488   4.080   6.749
17246SOL    HW153635   5.394   4.088   6.732
17246SOL    HW253636   5.496   3.999   6.800
17247SOL     OW53637   8.387  10.274   8.757
17247SOL    HW153638   8.391  10.313   8.669
17247SOL    HW253639   8.352  10.186   8.742
17248SOL     OW53640   5.452   7.703   9.527
17248SOL    HW153641   5.539   7.676   9.499
17248SOL    HW253642   5.466   7.747   9.611
17249SOL     OW53643  11.210   4.138  11.632
17249SOL    HW153644  11.298   4.107  11.650
17249SOL    HW253645  11.216   4.233  11.636
17250SOL     OW53646   1.188  10.070   5.071
17250SOL    HW153647   1.164   9.977   5.070
17250SOL    HW253648   1.280  10.071   5.044
17251SOL     OW53649  12.406   0.605   3.687
17251SOL    HW153650  12.344   0.659   3.639
17251SOL    HW253651  12.354   0.563   3.755
17252SOL     OW53652   9.689  14.193   1.027
17252SOL    HW153653   9.682  14.275   1.077
17252SOL    HW253654   9.649  14.127   1.083
17253SOL     OW53655   3.270   8.255  13.475
17253SOL    HW153656   3.247   8.285  13.387
17253SOL    HW253657   3.331   8.321  13.508
17254SOL     OW53658   8.758   7.981  14.391
17254SOL    HW153659   8.839   8.008  14.434
17254SOL    HW253660   8.774   7.997  14.298
17255SOL     OW53661   4.472   3.629   2.223
17255SOL    HW153662   4.379   3.605   2.231
17255SOL    HW253663   4.471   3.724   2.217
17256SOL     OW53664   4.094   8.353   6.166
17256SOL    HW153665   4.042   8.275   6.146
17256SOL    HW253666   4.123   8.339   6.257
17257SOL     OW53667   6.509   0.609  11.638
17257SOL    HW153668   6.506   0.700  11.668
17257SOL    HW253669   6.477   0.558  11.712
17258SOL     OW53670   0.679   5.100  11.118
17258SOL    HW153671   0.636   5.185  11.126
17258SOL    HW253672   0.606   5.038  11.112
17259SOL     OW53673  12.066  11.436   0.109
17259SOL    HW153674  12.087  11.377   0.036
17259SOL    HW253675  11.976  11.414   0.132
17260SOL     OW53676   6.821   4.314   3.070
17260SOL    HW153677   6.872   4.394   3.053
17260SOL    HW253678   6.757   4.310   2.999
17261SOL     OW53679  13.978   4.876   5.295
17261SOL    HW153680  13.911   4.808   5.299
17261SOL    HW253681  13.937   4.953   5.332
17262SOL     OW53682   9.528  13.350  14.792
17262SOL    HW153683   9.522  13.258  14.818
17262SOL    HW253684   9.552  13.348  14.700
17263SOL     OW53685   1.740   9.736   0.077
17263SOL    HW153686   1.725   9.642   0.086
17263SOL    HW253687   1.694   9.775   0.152
17264SOL     OW53688   4.587   0.655  14.298
17264SOL    HW153689   4.542   0.729  14.258
17264SOL    HW253690   4.671   0.650  14.251
17265SOL     OW53691  12.648  13.934   6.075
17265SOL    HW153692  12.648  13.892   6.161
17265SOL    HW253693  12.741  13.937   6.050
17266SOL     OW53694   1.440   0.869   8.174
17266SOL    HW153695   1.424   0.910   8.259
17266SOL    HW253696   1.395   0.926   8.111
17267SOL     OW53697   0.376   4.821   7.129
17267SOL    HW153698   0.467   4.801   7.108
17267SOL    HW253699   0.329   4.740   7.109
17268SOL     OW53700   7.054   8.723  10.877
17268SOL    HW153701   7.068   8.795  10.939
17268SOL    HW253702   7.077   8.645  10.926
17269SOL     OW53703   3.473   0.062   7.609
17269SOL    HW153704   3.418   0.039   7.534
17269SOL    HW253705   3.478   0.158   7.606
17270SOL     OW53706   0.179   2.414   1.112
17270SOL    HW153707   0.157   2.369   1.194
17270SOL    HW253708   0.274   2.414   1.109
17271SOL     OW53709   2.873   4.481  10.082
17271SOL    HW153710   2.838   4.408  10.132
17271SOL    HW253711   2.863   4.455   9.990
17272SOL     OW53712   8.673   5.534  11.333
17272SOL    HW153713   8.662   5.443  11.303
17272SOL    HW253714   8.768   5.545  11.340
17273SOL     OW53715   8.025  10.369   2.649
17273SOL    HW153716   8.019  10.303   2.580
17273SOL    HW253717   7.935  10.382   2.679
17274SOL     OW53718   0.792  14.478   2.181
17274SOL    HW153719   0.861  14.491   2.247
17274SOL    HW253720   0.824  14.405   2.127
17275SOL     OW53721  13.873   0.422   9.837
17275SOL    HW153722  13.882   0.516   9.819
17275SOL    HW253723  13.963   0.392   9.850
17276SOL     OW53724   1.390  11.398   5.469
17276SOL    HW153725   1.393  11.368   5.378
17276SOL    HW253726   1.313  11.455   5.473
17277SOL     OW53727  12.737   4.120   3.643
17277SOL    HW153728  12.698   4.088   3.725
17277SOL    HW253729  12.830   4.127   3.662
17278SOL     OW53730   0.738   2.119   9.506
17278SOL    HW153731   0.746   2.149   9.596
17278SOL    HW253732   0.752   2.024   9.511
17279SOL     OW53733   6.550  13.294   0.358
17279SOL    HW153734   6.508  13.374   0.389
17279SOL    HW253735   6.485  13.225   0.376
17280SOL     OW53736   2.860   2.371  14.746
17280SOL    HW153737   2.826   2.283  14.764
17280SOL    HW253738   2.950   2.368  14.777
17281SOL     OW53739   3.609  14.739   5.288
17281SOL    HW153740   3.645  14.662   5.332
17281SOL    HW253741   3.668  14.811   5.313
17282SOL     OW53742  11.598   7.084   3.410
17282SOL    HW153743  11.661   7.098   3.340
17282SOL    HW253744  11.585   7.171   3.448
17283SOL     OW53745  10.633  12.018   6.320
17283SOL    HW153746  10.727  12.018   6.342
17283SOL    HW253747  10.630  12.045   6.229
17284SOL     OW53748   1.023   3.841  13.403
17284SOL    HW153749   1.006   3.907  13.470
17284SOL    HW253750   1.100   3.873  13.356
17285SOL     OW53751   8.724   6.878   5.652
17285SOL    HW153752   8.772   6.795   5.640
17285SOL    HW253753   8.634   6.851   5.671
17286SOL     OW53754  10.220   3.619   8.688
17286SOL    HW153755  10.250   3.695   8.738
17286SOL    HW253756  10.126   3.634   8.676
17287SOL     OW53757   0.844  11.142   0.383
17287SOL    HW153758   0.786  11.172   0.313
17287SOL    HW253759   0.839  11.047   0.380
17288SOL     OW53760   4.289   5.667   5.191
17288SOL    HW153761   4.302   5.750   5.146
17288SOL    HW253762   4.335   5.677   5.275
17289SOL     OW53763   5.050   0.657   0.814
17289SOL    HW153764   5.011   0.699   0.891
17289SOL    HW253765   5.021   0.710   0.740
17290SOL     OW53766   3.508   5.999   1.337
17290SOL    HW153767   3.517   5.950   1.419
17290SOL    HW253768   3.530   6.089   1.361
17291SOL     OW53769   7.793   4.347  14.289
17291SOL    HW153770   7.729   4.362  14.220
17291SOL    HW253771   7.877   4.340  14.244
17292SOL     OW53772   7.020   7.305  12.192
17292SOL    HW153773   7.061   7.383  12.155
17292SOL    HW253774   7.053   7.300  12.282
17293SOL     OW53775   8.096   7.915   5.534
17293SOL    HW153776   8.158   7.924   5.607
17293SOL    HW253777   8.011   7.904   5.577
17294SOL     OW53778   1.144   1.410   0.565
17294SOL    HW153779   1.178   1.379   0.481
17294SOL    HW253780   1.082   1.479   0.541
17295SOL     OW53781  10.192  12.148  10.610
17295SOL    HW153782  10.287  12.161  10.606
17295SOL    HW253783  10.179  12.092  10.687
17296SOL     OW53784   2.986   3.383   9.255
17296SOL    HW153785   3.080   3.365   9.248
17296SOL    HW253786   2.947   3.338   9.179
17297SOL     OW53787  10.378   8.849   3.271
17297SOL    HW153788  10.315   8.825   3.338
17297SOL    HW253789  10.385   8.772   3.215
17298SOL     OW53790   4.334   4.933  11.633
17298SOL    HW153791   4.400   4.894  11.577
17298SOL    HW253792   4.360   5.025  11.641
17299SOL     OW53793   7.147  13.422  11.118
17299SOL    HW153794   7.082  13.364  11.079
17299SOL    HW253795   7.099  13.502  11.138
17300SOL     OW53796  14.348   3.336   4.318
17300SOL    HW153797  14.358   3.302   4.407
17300SOL    HW253798  14.257   3.318   4.295
17301SOL     OW53799  13.599   6.008  10.521
17301SOL    HW153800  13.607   6.102  10.540
17301SOL    HW253801  13.553   6.004  10.437
17302SOL     OW53802   9.915  11.230   8.639
17302SOL    HW153803   9.928  11.194   8.727
17302SOL    HW253804  10.001  11.264   8.614
17303SOL     OW53805   3.714   7.859  10.838
17303SOL    HW153806   3.771   7.895  10.770
17303SOL    HW253807   3.766   7.862  10.918
17304SOL     OW53808  14.326  11.711   2.424
17304SOL    HW153809  14.274  11.684   2.349
17304SOL    HW253810  14.411  11.668   2.412
17305SOL     OW53811  10.911   0.002  10.715
17305SOL    HW153812  10.843  14.828  10.666
17305SOL    HW253813  10.990  14.822  10.701
17306SOL     OW53814   2.963   6.217   0.563
17306SOL    HW153815   2.948   6.310   0.581
17306SOL    HW253816   2.960   6.211   0.467
17307SOL     OW53817   4.450  12.604  14.198
17307SOL    HW153818   4.507  12.648  14.260
17307SOL    HW253819   4.505  12.535  14.160
17308SOL     OW53820   6.416   4.843   6.258
17308SOL    HW153821   6.496   4.867   6.212
17308SOL    HW253822   6.438   4.850   6.351
17309SOL     OW53823   2.643   6.856   7.627
17309SOL    HW153824   2.571   6.883   7.569
17309SOL    HW253825   2.631   6.908   7.706
17310SOL     OW53826   0.054   4.090  12.498
17310SOL    HW153827   0.023   4.174  12.533
17310SOL    HW253828  14.850   4.033  12.502
17311SOL     OW53829  11.469  10.863   2.363
17311SOL    HW153830  11.395  10.911   2.327
17311SOL    HW253831  11.515  10.927   2.418
17312SOL     OW53832   0.881   0.176   3.242
17312SOL    HW153833   0.890   0.261   3.199
17312SOL    HW253834   0.822   0.127   3.185
17313SOL     OW53835   3.541   2.545  12.336
17313SOL    HW153836   3.519   2.454  12.357
17313SOL    HW253837   3.602   2.538  12.263
17314SOL     OW53838   4.899   7.444   6.561
17314SOL    HW153839   4.992   7.453   6.582
17314SOL    HW253840   4.856   7.424   6.644
17315SOL     OW53841   5.061   8.936   3.175
17315SOL    HW153842   5.028   8.994   3.105
17315SOL    HW253843   5.148   8.970   3.195
17316SOL     OW53844   4.618   8.172   4.719
17316SOL    HW153845   4.666   8.234   4.663
17316SOL    HW253846   4.642   8.197   4.808
17317SOL     OW53847   6.164  10.892  12.825
17317SOL    HW153848   6.089  10.915  12.880
17317SOL    HW253849   6.159  10.953  12.751
17318SOL     OW53850   0.157   5.107   0.141
17318SOL    HW153851   0.150   5.195   0.179
17318SOL    HW253852   0.107   5.051   0.200
17319SOL     OW53853   1.589   2.961  12.681
17319SOL    HW153854   1.505   2.916  12.685
17319SOL    HW253855   1.632   2.939  12.764
17320SOL     OW53856   6.146   7.668   8.641
17320SOL    HW153857   6.186   7.654   8.727
17320SOL    HW253858   6.211   7.720   8.593
17321SOL     OW53859   2.156   8.464   0.037
17321SOL    HW153860   2.082   8.511  14.870
17321SOL    HW253861   2.173   8.509   0.119
17322SOL     OW53862  13.774   1.347   1.650
17322SOL    HW153863  13.713   1.338   1.723
17322SOL    HW253864  13.746   1.281   1.587
17323SOL     OW53865   0.567  12.608   1.639
17323SOL    HW153866   0.609  12.535   1.593
17323SOL    HW253867   0.595  12.686   1.591
17324SOL     OW53868   3.161   9.928  11.248
17324SOL    HW153869   3.246   9.954  11.283
17324SOL    HW253870   3.127   9.864  11.312
17325SOL     OW53871  14.694   9.186   9.904
17325SOL    HW153872  14.707   9.143   9.820
17325SOL    HW253873  14.748   9.136   9.965
17326SOL     OW53874   7.620   2.172  10.530
17326SOL    HW153875   7.636   2.118  10.453
17326SOL    HW253876   7.567   2.245  10.498
17327SOL     OW53877  10.184  11.458   5.315
17327SOL    HW153878  10.214  11.393   5.251
17327SOL    HW253879  10.096  11.429   5.339
17328SOL     OW53880   8.417   7.122   1.133
17328SOL    HW153881   8.373   7.136   1.218
17328SOL    HW253882   8.347   7.092   1.075
17329SOL     OW53883   3.118   7.918   1.894
17329SOL    HW153884   3.213   7.910   1.879
17329SOL    HW253885   3.085   7.829   1.885
17330SOL     OW53886   3.451  12.783   9.759
17330SOL    HW153887   3.433  12.747   9.846
17330SOL    HW253888   3.534  12.744   9.733
17331SOL     OW53889   8.479   7.452   8.320
17331SOL    HW153890   8.553   7.447   8.260
17331SOL    HW253891   8.518   7.447   8.407
17332SOL     OW53892   7.424  10.637  10.306
17332SOL    HW153893   7.343  10.588  10.291
17332SOL    HW253894   7.418  10.712  10.246
17333SOL     OW53895   2.890  12.944   5.079
17333SOL    HW153896   2.795  12.946   5.073
17333SOL    HW253897   2.909  12.868   5.134
17334SOL     OW53898  10.629   7.076   3.013
17334SOL    HW153899  10.665   7.165   3.009
17334SOL    HW253900  10.576   7.068   2.934
17335SOL     OW53901  14.434   2.964   9.726
17335SOL    HW153902  14.410   3.047   9.685
17335SOL    HW253903  14.354   2.911   9.719
17336SOL     OW53904  14.284   8.773  14.779
17336SOL    HW153905  14.355   8.772  14.716
17336SOL    HW253906  14.240   8.689  14.767
17337SOL     OW53907  13.525  10.840  12.421
17337SOL    HW153908  13.490  10.915  12.373
17337SOL    HW253909  13.620  10.847  12.410
17338SOL     OW53910   2.906  14.620   3.168
17338SOL    HW153911   2.938  14.549   3.113
17338SOL    HW253912   2.939  14.599   3.255
17339SOL     OW53913  13.850  14.862  13.767
17339SOL    HW153914  13.818   0.044  13.694
17339SOL    HW253915  13.945  14.865  13.759
17340SOL     OW53916   6.768   1.961   2.625
17340SOL    HW153917   6.738   2.051   2.632
17340SOL    HW253918   6.839   1.963   2.562
17341SOL     OW53919   1.809  11.575  12.455
17341SOL    HW153920   1.770  11.607  12.373
17341SOL    HW253921   1.843  11.653  12.497
17342SOL     OW53922   7.874   1.307   7.371
17342SOL    HW153923   7.801   1.299   7.432
17342SOL    HW253924   7.945   1.258   7.413
17343SOL     OW53925   9.544   9.366   4.398
17343SOL    HW153926   9.501   9.351   4.314
17343SOL    HW253927   9.585   9.282   4.420
17344SOL     OW53928   3.629   0.140   6.589
17344SOL    HW153929   3.654   0.059   6.545
17344SOL    HW253930   3.582   0.112   6.667
17345SOL     OW53931   9.267  11.908  14.478
17345SOL    HW153932   9.332  11.868  14.536
17345SOL    HW253933   9.303  11.995  14.458
17346SOL     OW53934  12.737   8.642   2.546
17346SOL    HW153935  12.645   8.621   2.563
17346SOL    HW253936  12.749   8.627   2.452
17347SOL     OW53937   1.441  13.934   1.659
17347SOL    HW153938   1.372  13.903   1.601
17347SOL    HW253939   1.521  13.927   1.607
17348SOL     OW53940   9.904  10.671   3.861
17348SOL    HW153941   9.881  10.762   3.880
17348SOL    HW253942   9.997  10.664   3.884
17349SOL     OW53943   2.638   7.878   3.041
17349SOL    HW153944   2.605   7.813   2.980
17349SOL    HW253945   2.563   7.897   3.098
17350SOL     OW53946   1.579  10.950  14.204
17350SOL    HW153947   1.562  10.950  14.299
17350SOL    HW253948   1.505  10.997  14.166
17351SOL     OW53949  10.468   5.955  14.671
17351SOL    HW153950  10.524   5.942  14.747
17351SOL    HW253951  10.519   5.921  14.597
17352SOL     OW53952   9.191   3.449   1.314
17352SOL    HW153953   9.131   3.516   1.281
17352SOL    HW253954   9.144   3.408   1.386
17353SOL     OW53955  11.742  11.771   0.752
17353SOL    HW153956  11.796  11.704   0.794
17353SOL    HW253957  11.712  11.826   0.824
17354SOL     OW53958   2.095   6.956   1.375
17354SOL    HW153959   2.177   6.907   1.373
17354SOL    HW253960   2.088   6.994   1.288
17355SOL     OW53961   6.801   1.969   8.449
17355SOL    HW153962   6.796   1.951   8.355
17355SOL    HW253963   6.729   1.917   8.486
17356SOL     OW53964   1.316   8.082   4.894
17356SOL    HW153965   1.260   8.151   4.929
17356SOL    HW253966   1.290   8.003   4.942
17357SOL     OW53967   0.796  13.484  10.881
17357SOL    HW153968   0.801  13.425  10.956
17357SOL    HW253969   0.819  13.570  10.916
17358SOL     OW53970   7.262   0.160   0.154
17358SOL    HW153971   7.345   0.127   0.190
17358SOL    HW253972   7.204   0.084   0.156
17359SOL     OW53973   0.664  11.333   1.923
17359SOL    HW153974   0.715  11.308   2.000
17359SOL    HW253975   0.722  11.314   1.849
17360SOL     OW53976  11.049   9.016   7.506
17360SOL    HW153977  11.125   8.994   7.453
17360SOL    HW253978  10.976   8.970   7.464
17361SOL     OW53979  14.316  13.099  14.000
17361SOL    HW153980  14.297  13.122  14.091
17361SOL    HW253981  14.251  13.148  13.949
17362SOL     OW53982  10.067   8.404   8.763
17362SOL    HW153983   9.990   8.426   8.710
17362SOL    HW253984  10.038   8.330   8.817
17363SOL     OW53985  10.377  14.785   1.284
17363SOL    HW153986  10.439  14.718   1.312
17363SOL    HW253987  10.427  14.866   1.284
17364SOL     OW53988  10.388   0.339   0.439
17364SOL    HW153989  10.449   0.272   0.408
17364SOL    HW253990  10.432   0.422   0.420
17365SOL     OW53991   7.846  14.828   1.400
17365SOL    HW153992   7.847  14.734   1.381
17365SOL    HW253993   7.788  14.836   1.476
17366SOL     OW53994   1.482   2.198   9.645
17366SOL    HW153995   1.498   2.285   9.682
17366SOL    HW253996   1.522   2.137   9.708
17367SOL     OW53997   2.324   7.902   9.075
17367SOL    HW153998   2.314   7.836   9.005
17367SOL    HW253999   2.405   7.876   9.119
17368SOL     OW54000  11.347   9.759  13.762
17368SOL    HW154001  11.372   9.718  13.679
17368SOL    HW254002  11.363   9.852  13.749
17369SOL     OW54003   9.981   7.289  14.254
17369SOL    HW154004   9.992   7.248  14.169
17369SOL    HW254005   9.893   7.325  14.253
17370SOL     OW54006   8.407   0.776  13.508
17370SOL    HW154007   8.367   0.689  13.501
17370SOL    HW254008   8.452   0.775  13.592
17371SOL     OW54009   4.728   0.499   3.774
17371SOL    HW154010   4.634   0.501   3.790
17371SOL    HW254011   4.746   0.409   3.747
17372SOL     OW54012   5.100   0.498   9.227
17372SOL    HW154013   5.073   0.492   9.318
17372SOL    HW254014   5.113   0.407   9.199
17373SOL     OW54015  13.559  14.720   7.887
17373SOL    HW154016  13.506  14.653   7.930
17373SOL    HW254017  13.650  14.691   7.900
17374SOL     OW54018   1.385   8.967   3.015
17374SOL    HW154019   1.379   8.951   3.109
17374SOL    HW254020   1.408   9.059   3.007
17375SOL     OW54021   8.248   2.207   5.682
17375SOL    HW154022   8.240   2.136   5.618
17375SOL    HW254023   8.170   2.260   5.669
17376SOL     OW54024   8.862   0.566   0.222
17376SOL    HW154025   8.901   0.629   0.282
17376SOL    HW254026   8.779   0.542   0.264
17377SOL     OW54027   9.417  13.997   5.428
17377SOL    HW154028   9.325  14.017   5.445
17377SOL    HW254029   9.443  13.940   5.500
17378SOL     OW54030  11.155   7.576   6.438
17378SOL    HW154031  11.153   7.626   6.357
17378SOL    HW254032  11.245   7.545   6.445
17379SOL     OW54033  11.462   4.817   7.241
17379SOL    HW154034  11.501   4.731   7.221
17379SOL    HW254035  11.437   4.852   7.155
17380SOL     OW54036   4.543   6.100   4.981
17380SOL    HW154037   4.499   6.185   4.981
17380SOL    HW254038   4.607   6.106   4.910
17381SOL     OW54039   1.768  14.415   8.837
17381SOL    HW154040   1.841  14.422   8.898
17381SOL    HW254041   1.740  14.505   8.821
17382SOL     OW54042   5.583   1.613   3.750
17382SOL    HW154043   5.667   1.618   3.796
17382SOL    HW254044   5.525   1.671   3.800
17383SOL     OW54045  12.377  14.589  10.617
17383SOL    HW154046  12.416  14.508  10.649
17383SOL    HW254047  12.452  14.644  10.594
17384SOL     OW54048   2.423  14.390  10.260
17384SOL    HW154049   2.487  14.454  10.291
17384SOL    HW254050   2.457  14.306  10.292
17385SOL     OW54051   7.874   7.866   9.891
17385SOL    HW154052   7.792   7.863   9.842
17385SOL    HW254053   7.886   7.959   9.912
17386SOL     OW54054  14.508   0.120   6.481
17386SOL    HW154055  14.470   0.169   6.554
17386SOL    HW254056  14.465   0.034   6.485
17387SOL     OW54057   1.262   6.610  13.965
17387SOL    HW154058   1.229   6.660  14.040
17387SOL    HW254059   1.289   6.526  14.003
17388SOL     OW54060   1.070   0.890  11.265
17388SOL    HW154061   1.099   0.879  11.356
17388SOL    HW254062   1.121   0.826  11.216
17389SOL     OW54063   4.852  13.589   2.149
17389SOL    HW154064   4.878  13.561   2.061
17389SOL    HW254065   4.799  13.667   2.134
17390SOL     OW54066   9.016  11.963   3.865
17390SOL    HW154067   9.071  11.985   3.940
17390SOL    HW254068   9.050  12.016   3.794
17391SOL     OW54069   6.686  10.658   0.700
17391SOL    HW154070   6.656  10.587   0.642
17391SOL    HW254071   6.781  10.655   0.693
17392SOL     OW54072   8.405  11.221   1.050
17392SOL    HW154073   8.368  11.308   1.060
17392SOL    HW254074   8.342  11.163   1.093
17393SOL     OW54075  13.785   6.981  12.500
17393SOL    HW154076  13.757   7.072  12.507
17393SOL    HW254077  13.716   6.931  12.542
17394SOL     OW54078   1.707   0.166   9.673
17394SOL    HW154079   1.704   0.229   9.601
17394SOL    HW254080   1.619   0.127   9.675
17395SOL     OW54081   8.108   9.947   4.920
17395SOL    HW154082   8.112  10.042   4.916
17395SOL    HW254083   8.015   9.926   4.905
17396SOL     OW54084   3.322   8.971   4.834
17396SOL    HW154085   3.272   9.045   4.867
17396SOL    HW254086   3.334   8.914   4.911
17397SOL     OW54087   0.286   6.905   2.429
17397SOL    HW154088   0.238   6.979   2.467
17397SOL    HW254089   0.222   6.834   2.428
17398SOL     OW54090  12.786  14.642  11.952
17398SOL    HW154091  12.857  14.630  11.889
17398SOL    HW254092  12.755  14.553  11.970
17399SOL     OW54093   5.325   7.842   4.956
17399SOL    HW154094   5.296   7.876   4.872
17399SOL    HW254095   5.390   7.775   4.934
17400SOL     OW54096   3.141  14.077   1.339
17400SOL    HW154097   3.187  14.099   1.420
17400SOL    HW254098   3.106  13.989   1.355
17401SOL     OW54099   4.722   0.750   3.626
17401SOL    HW154100   4.715   0.673   3.684
17401SOL    HW254101   4.685   0.720   3.543
17402SOL     OW54102  10.850  10.480   0.993
17402SOL    HW154103  10.912  10.424   1.040
17402SOL    HW254104  10.780  10.421   0.966
17403SOL     OW54105  11.342   1.014   8.802
17403SOL    HW154106  11.335   1.110   8.803
17403SOL    HW254107  11.436   0.998   8.793
17404SOL     OW54108  12.052  10.246   4.096
17404SOL    HW154109  12.120  10.179   4.098
17404SOL    HW254110  12.062  10.287   4.010
17405SOL     OW54111   9.129   5.243   4.803
17405SOL    HW154112   9.166   5.156   4.820
17405SOL    HW254113   9.043   5.240   4.844
17406SOL     OW54114   2.523   5.205   3.532
17406SOL    HW154115   2.565   5.283   3.568
17406SOL    HW254116   2.469   5.239   3.460
17407SOL     OW54117   2.463   4.993   0.719
17407SOL    HW154118   2.400   5.060   0.747
17407SOL    HW254119   2.548   5.036   0.725
17408SOL     OW54120  13.477   8.850   2.009
17408SOL    HW154121  13.430   8.856   1.926
17408SOL    HW254122  13.517   8.763   2.007
17409SOL     OW54123  10.356  13.778   4.756
17409SOL    HW154124  10.400  13.817   4.680
17409SOL    HW254125  10.264  13.775   4.730
17410SOL     OW54126   9.428   9.545   2.515
17410SOL    HW154127   9.384   9.541   2.600
17410SOL    HW254128   9.502   9.486   2.523
17411SOL     OW54129  10.654   0.906  13.171
17411SOL    HW154130  10.640   0.987  13.121
17411SOL    HW254131  10.719   0.930  13.238
17412SOL     OW54132   3.156  12.832   8.814
17412SOL    HW154133   3.118  12.863   8.731
17412SOL    HW254134   3.195  12.909   8.853
17413SOL     OW54135   0.265   1.629   4.109
17413SOL    HW154136   0.283   1.628   4.015
17413SOL    HW254137   0.248   1.721   4.130
17414SOL     OW54138   4.997   6.673  12.811
17414SOL    HW154139   5.028   6.604  12.752
17414SOL    HW254140   5.075   6.722  12.835
17415SOL     OW54141   5.365   6.815   3.479
17415SOL    HW154142   5.336   6.750   3.542
17415SOL    HW254143   5.429   6.868   3.526
17416SOL     OW54144  11.857  12.319   9.668
17416SOL    HW154145  11.890  12.403   9.637
17416SOL    HW254146  11.857  12.327   9.763
17417SOL     OW54147   3.644  13.078   8.594
17417SOL    HW154148   3.674  13.146   8.533
17417SOL    HW254149   3.666  12.996   8.550
17418SOL     OW54150   7.642  12.518  13.708
17418SOL    HW154151   7.638  12.490  13.799
17418SOL    HW254152   7.583  12.459  13.662
17419SOL     OW54153   4.184   5.883  11.895
17419SOL    HW154154   4.137   5.966  11.891
17419SOL    HW254155   4.232   5.879  11.813
17420SOL     OW54156  12.667   7.719   4.783
17420SOL    HW154157  12.710   7.767   4.712
17420SOL    HW254158  12.637   7.787   4.843
17421SOL     OW54159  11.927  11.777   6.848
17421SOL    HW154160  11.973  11.694   6.853
17421SOL    HW254161  11.988  11.841   6.886
17422SOL     OW54162   8.267   7.297   6.990
17422SOL    HW154163   8.289   7.316   7.081
17422SOL    HW254164   8.235   7.380   6.956
17423SOL     OW54165   2.849   2.396   4.248
17423SOL    HW154166   2.754   2.387   4.246
17423SOL    HW254167   2.865   2.489   4.264
17424SOL     OW54168   2.172   0.130   6.377
17424SOL    HW154169   2.111   0.180   6.323
17424SOL    HW254170   2.251   0.183   6.379
17425SOL     OW54171   7.665   8.867  14.236
17425SOL    HW154172   7.614   8.908  14.166
17425SOL    HW254173   7.734   8.932  14.255
17426SOL     OW54174   5.463  12.770  14.328
17426SOL    HW154175   5.531  12.702  14.319
17426SOL    HW254176   5.413  12.743  14.405
17427SOL     OW54177   6.027  12.669   6.968
17427SOL    HW154178   6.084  12.633   7.036
17427SOL    HW254179   5.958  12.713   7.016
17428SOL     OW54180   4.488   4.029   1.641
17428SOL    HW154181   4.582   4.021   1.658
17428SOL    HW254182   4.467   3.953   1.586
17429SOL     OW54183   8.885   1.237  14.175
17429SOL    HW154184   8.900   1.220  14.269
17429SOL    HW254185   8.797   1.274  14.171
17430SOL     OW54186  12.260  11.421   6.608
17430SOL    HW154187  12.219  11.494   6.653
17430SOL    HW254188  12.194  11.391   6.545
17431SOL     OW54189   3.960   7.402   5.780
17431SOL    HW154190   3.953   7.352   5.862
17431SOL    HW254191   3.986   7.338   5.715
17432SOL     OW54192   1.141   3.139   2.483
17432SOL    HW154193   1.144   3.224   2.439
17432SOL    HW254194   1.058   3.100   2.454
17433SOL     OW54195   0.452  11.497  11.057
17433SOL    HW154196   0.469  11.578  11.104
17433SOL    HW254197   0.519  11.436  11.087
17434SOL     OW54198  12.179  11.763  11.950
17434SOL    HW154199  12.222  11.830  12.002
17434SOL    HW254200  12.166  11.802  11.864
17435SOL     OW54201  12.353   6.561   8.021
17435SOL    HW154202  12.316   6.648   8.003
17435SOL    HW254203  12.432   6.579   8.072
17436SOL     OW54204   6.446   0.823   6.778
17436SOL    HW154205   6.390   0.843   6.703
17436SOL    HW254206   6.459   0.729   6.774
17437SOL     OW54207  13.493   2.166  12.261
17437SOL    HW154208  13.488   2.198  12.171
17437SOL    HW254209  13.475   2.243  12.315
17438SOL     OW54210  14.689  13.533  14.810
17438SOL    HW154211  14.770  13.484  14.817
17438SOL    HW254212  14.702  13.609  14.867
17439SOL     OW54213   3.289   6.608   6.511
17439SOL    HW154214   3.344   6.535   6.536
17439SOL    HW254215   3.237   6.575   6.437
17440SOL     OW54216   5.209  11.105   2.442
17440SOL    HW154217   5.278  11.169   2.426
17440SOL    HW254218   5.187  11.071   2.355
17441SOL     OW54219   9.839   3.876   9.772
17441SOL    HW154220   9.785   3.924   9.835
17441SOL    HW254221   9.851   3.938   9.700
17442SOL     OW54222   9.828  11.868   5.960
17442SOL    HW154223   9.858  11.929   5.892
17442SOL    HW254224   9.866  11.784   5.935
17443SOL     OW54225   8.718   9.949   2.956
17443SOL    HW154226   8.674  10.015   2.903
17443SOL    HW254227   8.811   9.971   2.950
17444SOL     OW54228   6.091   3.740   0.889
17444SOL    HW154229   6.035   3.709   0.961
17444SOL    HW254230   6.030   3.771   0.823
17445SOL     OW54231   5.854  14.263   1.505
17445SOL    HW154232   5.949  14.269   1.503
17445SOL    HW254233   5.824  14.319   1.433
17446SOL     OW54234   0.801   4.819   3.911
17446SOL    HW154235   0.765   4.733   3.933
17446SOL    HW254236   0.832   4.854   3.995
17447SOL     OW54237  11.967   0.001   0.182
17447SOL    HW154238  12.056   0.017   0.151
17447SOL    HW254239  11.926   0.087   0.184
17448SOL     OW54240   3.577   0.254   9.319
17448SOL    HW154241   3.493   0.230   9.281
17448SOL    HW254242   3.614   0.172   9.350
17449SOL     OW54243  12.997  11.797   0.114
17449SOL    HW154244  13.009  11.726   0.050
17449SOL    HW254245  13.061  11.863   0.088
17450SOL     OW54246  14.372   3.549   2.537
17450SOL    HW154247  14.363   3.489   2.611
17450SOL    HW254248  14.409   3.496   2.467
17451SOL     OW54249   1.598   8.600   2.568
17451SOL    HW154250   1.513   8.640   2.549
17451SOL    HW254251   1.606   8.603   2.663
17452SOL     OW54252   6.135   4.070   1.867
17452SOL    HW154253   6.074   4.030   1.929
17452SOL    HW254254   6.221   4.038   1.893
17453SOL     OW54255  13.311   9.604   3.773
17453SOL    HW154256  13.317   9.693   3.736
17453SOL    HW254257  13.270   9.552   3.704
17454SOL     OW54258   9.791   2.900  12.179
17454SOL    HW154259   9.757   2.818  12.143
17454SOL    HW254260   9.773   2.965  12.112
17455SOL     OW54261   5.663   1.906   1.870
17455SOL    HW154262   5.579   1.859   1.863
17455SOL    HW254263   5.638   1.998   1.879
17456SOL     OW54264   5.366  12.111   8.671
17456SOL    HW154265   5.325  12.059   8.602
17456SOL    HW254266   5.415  12.179   8.624
17457SOL     OW54267  14.247   6.376  11.442
17457SOL    HW154268  14.312   6.395  11.374
17457SOL    HW254269  14.172   6.431  11.420
17458SOL     OW54270   9.875   5.693  14.393
17458SOL    HW154271   9.852   5.639  14.318
17458SOL    HW254272   9.794   5.700  14.444
17459SOL     OW54273  14.463  11.384  13.931
17459SOL    HW154274  14.387  11.402  13.877
17459SOL    HW254275  14.535  11.373  13.869
17460SOL     OW54276   0.400   8.554  11.561
17460SOL    HW154277   0.335   8.511  11.617
17460SOL    HW254278   0.457   8.600  11.622
17461SOL     OW54279   8.126  14.676   4.028
17461SOL    HW154280   8.043  14.692   4.073
17461SOL    HW254281   8.141  14.582   4.038
17462SOL     OW54282   3.055   9.010   4.723
17462SOL    HW154283   3.151   9.008   4.715
17462SOL    HW254284   3.039   9.057   4.805
17463SOL     OW54285   3.339  12.255   4.861
17463SOL    HW154286   3.321  12.165   4.834
17463SOL    HW254287   3.283  12.309   4.805
17464SOL     OW54288   9.773   1.827   1.911
17464SOL    HW154289   9.713   1.869   1.849
17464SOL    HW254290   9.846   1.796   1.858
17465SOL     OW54291  11.046  12.652  10.836
17465SOL    HW154292  11.092  12.726  10.877
17465SOL    HW254293  10.959  12.686  10.817
17466SOL     OW54294   7.502   7.776  12.517
17466SOL    HW154295   7.414   7.740  12.529
17466SOL    HW254296   7.495   7.866  12.551
17467SOL     OW54297  13.303  11.822   3.859
17467SOL    HW154298  13.370  11.812   3.926
17467SOL    HW254299  13.268  11.910   3.873
17468SOL     OW54300   8.471   4.354   9.586
17468SOL    HW154301   8.470   4.264   9.619
17468SOL    HW254302   8.553   4.391   9.621
17469SOL     OW54303   5.880   7.640   6.919
17469SOL    HW154304   5.784   7.643   6.912
17469SOL    HW254305   5.912   7.677   6.836
17470SOL     OW54306  10.755  14.268   5.362
17470SOL    HW154307  10.808  14.220   5.299
17470SOL    HW254308  10.665  14.256   5.332
17471SOL     OW54309  10.584   8.501   7.544
17471SOL    HW154310  10.565   8.469   7.456
17471SOL    HW254311  10.521   8.571   7.560
17472SOL     OW54312  10.348  13.737   5.123
17472SOL    HW154313  10.397  13.699   5.196
17472SOL    HW254314  10.402  13.719   5.046
17473SOL     OW54315   4.454   4.467   7.554
17473SOL    HW154316   4.522   4.525   7.517
17473SOL    HW254317   4.503   4.403   7.605
17474SOL     OW54318   4.074   8.242   1.261
17474SOL    HW154319   4.154   8.278   1.223
17474SOL    HW254320   4.014   8.317   1.265
17475SOL     OW54321  10.378  11.657   0.956
17475SOL    HW154322  10.371  11.564   0.980
17475SOL    HW254323  10.456  11.688   1.002
17476SOL     OW54324  14.388   2.535  12.916
17476SOL    HW154325  14.392   2.631  12.921
17476SOL    HW254326  14.466   2.506  12.964
17477SOL     OW54327   0.577   3.667   9.066
17477SOL    HW154328   0.555   3.732   9.132
17477SOL    HW254329   0.657   3.626   9.099
17478SOL     OW54330  12.634   8.749   3.967
17478SOL    HW154331  12.608   8.832   3.928
17478SOL    HW254332  12.610   8.757   4.059
17479SOL     OW54333   1.651   6.224   7.165
17479SOL    HW154334   1.666   6.318   7.155
17479SOL    HW254335   1.573   6.206   7.113
17480SOL     OW54336   0.680  12.684   8.544
17480SOL    HW154337   0.611  12.627   8.510
17480SOL    HW254338   0.690  12.753   8.477
17481SOL     OW54339   1.634   3.531  14.803
17481SOL    HW154340   1.548   3.508  14.768
17481SOL    HW254341   1.651   3.619  14.772
17482SOL     OW54342  13.059  10.633   3.393
17482SOL    HW154343  13.007  10.560   3.428
17482SOL    HW254344  13.006  10.710   3.408
17483SOL     OW54345   2.896  14.637   7.207
17483SOL    HW154346   2.805  14.663   7.222
17483SOL    HW254347   2.900  14.546   7.237
17484SOL     OW54348  10.018   4.433   2.018
17484SOL    HW154349  10.040   4.425   2.111
17484SOL    HW254350   9.928   4.400   2.012
17485SOL     OW54351   3.133  14.192   6.007
17485SOL    HW154352   3.096  14.138   6.077
17485SOL    HW254353   3.060  14.209   5.949
17486SOL     OW54354  11.113   1.545   4.432
17486SOL    HW154355  11.022   1.570   4.421
17486SOL    HW254356  11.114   1.493   4.513
17487SOL     OW54357  11.742  11.126   5.010
17487SOL    HW154358  11.656  11.084   5.004
17487SOL    HW254359  11.722  11.220   5.015
17488SOL     OW54360   9.615   4.092   2.032
17488SOL    HW154361   9.561   4.070   2.108
17488SOL    HW254362   9.656   4.009   2.008
17489SOL     OW54363   4.976   8.974   8.542
17489SOL    HW154364   5.008   8.916   8.611
17489SOL    HW254365   4.883   8.952   8.533
17490SOL     OW54366   4.023  13.760   6.380
17490SOL    HW154367   4.011  13.692   6.446
17490SOL    HW254368   4.096  13.728   6.327
17491SOL     OW54369   9.463   4.033   0.773
17491SOL    HW154370   9.530   4.071   0.830
17491SOL    HW254371   9.499   3.947   0.748
17492SOL     OW54372   2.572  11.906  11.380
17492SOL    HW154373   2.636  11.903  11.451
17492SOL    HW254374   2.498  11.854  11.412
17493SOL     OW54375   1.047   3.201   8.102
17493SOL    HW154376   0.990   3.165   8.171
17493SOL    HW254377   1.096   3.271   8.146
17494SOL     OW54378   9.782   1.523   2.573
17494SOL    HW154379   9.728   1.456   2.615
17494SOL    HW254380   9.869   1.512   2.612
17495SOL     OW54381  11.147   3.394   4.928
17495SOL    HW154382  11.142   3.440   5.012
17495SOL    HW254383  11.171   3.462   4.866
17496SOL     OW54384   0.580  13.875  13.777
17496SOL    HW154385   0.563  13.796  13.725
17496SOL    HW254386   0.525  13.942  13.738
17497SOL     OW54387   2.671   8.276   1.035
17497SOL    HW154388   2.737   8.230   1.088
17497SOL    HW254389   2.599   8.293   1.096
17498SOL     OW54390  12.369   5.798  12.350
17498SOL    HW154391  12.301   5.798  12.282
17498SOL    HW254392  12.406   5.710  12.347
17499SOL     OW54393   8.633   1.408   7.695
17499SOL    HW154394   8.726   1.419   7.715
17499SOL    HW254395   8.589   1.418   7.779
17500SOL     OW54396  11.252   7.520  12.389
17500SOL    HW154397  11.240   7.603  12.434
17500SOL    HW254398  11.169   7.473  12.402
17501SOL     OW54399  11.128   3.757  12.728
17501SOL    HW154400  11.208   3.707  12.715
17501SOL    HW254401  11.155   3.833  12.780
17502SOL     OW54402   5.773  11.245   9.369
17502SOL    HW154403   5.818  11.163   9.390
17502SOL    HW254404   5.689  11.238   9.416
17503SOL     OW54405  10.490  12.848   1.786
17503SOL    HW154406  10.475  12.942   1.780
17503SOL    HW254407  10.580  12.835   1.757
17504SOL     OW54408   9.220   8.744  10.299
17504SOL    HW154409   9.215   8.654  10.331
17504SOL    HW254410   9.186   8.740  10.210
17505SOL     OW54411   1.753   3.786   8.169
17505SOL    HW154412   1.832   3.812   8.215
17505SOL    HW254413   1.693   3.860   8.179
17506SOL     OW54414   0.886   8.700   2.855
17506SOL    HW154415   0.942   8.768   2.892
17506SOL    HW254416   0.818   8.749   2.808
17507SOL     OW54417  11.568  14.505  10.220
17507SOL    HW154418  11.513  14.462  10.155
17507SOL    HW254419  11.635  14.550  10.169
17508SOL     OW54420   9.310   2.973   2.962
17508SOL    HW154421   9.385   3.020   2.999
17508SOL    HW254422   9.241   2.984   3.028
17509SOL     OW54423   3.692   7.970   9.970
17509SOL    HW154424   3.761   7.906   9.992
17509SOL    HW254425   3.641   7.927   9.902
17510SOL     OW54426   6.952   4.225   7.543
17510SOL    HW154427   7.020   4.291   7.551
17510SOL    HW254428   6.878   4.270   7.501
17511SOL     OW54429   3.534   1.755   1.696
17511SOL    HW154430   3.537   1.681   1.757
17511SOL    HW254431   3.582   1.825   1.740
17512SOL     OW54432   3.101  11.332  10.994
17512SOL    HW154433   3.115  11.237  10.989
17512SOL    HW254434   3.006  11.342  10.992
17513SOL     OW54435  14.359  14.347   9.708
17513SOL    HW154436  14.283  14.388   9.748
17513SOL    HW254437  14.347  14.360   9.614
17514SOL     OW54438   4.059   1.410   9.667
17514SOL    HW154439   3.987   1.429   9.727
17514SOL    HW254440   4.031   1.333   9.619
17515SOL     OW54441  12.882  12.177   0.051
17515SOL    HW154442  12.947  12.120   0.009
17515SOL    HW254443  12.857  12.131   0.131
17516SOL     OW54444   9.074   7.804  10.806
17516SOL    HW154445   8.982   7.779  10.792
17516SOL    HW254446   9.124   7.725  10.787
17517SOL     OW54447   8.537   7.690  13.897
17517SOL    HW154448   8.557   7.605  13.936
17517SOL    HW254449   8.451   7.713  13.933
17518SOL     OW54450  10.822   8.356   9.520
17518SOL    HW154451  10.797   8.264   9.519
17518SOL    HW254452  10.829   8.379   9.612
17519SOL     OW54453  13.992   6.674   1.951
17519SOL    HW154454  13.942   6.602   1.989
17519SOL    HW254455  14.021   6.726   2.026
17520SOL     OW54456  12.520  11.612  13.720
17520SOL    HW154457  12.562  11.542  13.770
17520SOL    HW254458  12.427  11.591  13.723
17521SOL     OW54459  13.813  11.081   4.336
17521SOL    HW154460  13.823  11.176   4.333
17521SOL    HW254461  13.821  11.059   4.429
17522SOL     OW54462   8.345  12.197  13.362
17522SOL    HW154463   8.387  12.236  13.439
17522SOL    HW254464   8.405  12.214  13.290
17523SOL     OW54465   2.384   5.179   0.189
17523SOL    HW154466   2.307   5.144   0.144
17523SOL    HW254467   2.458   5.139   0.143
17524SOL     OW54468   6.512   0.049  11.234
17524SOL    HW154469   6.559   0.029  11.315
17524SOL    HW254470   6.420   0.032  11.255
17525SOL     OW54471   1.815   2.026   3.511
17525SOL    HW154472   1.867   2.015   3.590
17525SOL    HW254473   1.872   2.073   3.450
17526SOL     OW54474   0.025   5.620   6.134
17526SOL    HW154475   0.050   5.624   6.042
17526SOL    HW254476   0.105   5.596   6.180
17527SOL     OW54477   4.793  13.826   9.698
17527SOL    HW154478   4.709  13.831   9.653
17527SOL    HW254479   4.780  13.875   9.779
17528SOL     OW54480   2.033  14.570   8.675
17528SOL    HW154481   1.983  14.543   8.597
17528SOL    HW254482   1.977  14.636   8.717
17529SOL     OW54483  14.587   8.183  14.378
17529SOL    HW154484  14.646   8.129  14.325
17529SOL    HW254485  14.602   8.155  14.468
17530SOL     OW54486  14.415  10.597   7.257
17530SOL    HW154487  14.489  10.537   7.250
17530SOL    HW254488  14.359  10.575   7.183
17531SOL     OW54489   9.221   4.185   9.896
17531SOL    HW154490   9.195   4.128   9.823
17531SOL    HW254491   9.171   4.152   9.971
17532SOL     OW54492   5.797   8.481   5.452
17532SOL    HW154493   5.870   8.419   5.461
17532SOL    HW254494   5.750   8.475   5.535
17533SOL     OW54495   5.051  13.262   5.665
17533SOL    HW154496   5.120  13.258   5.598
17533SOL    HW254497   5.038  13.356   5.680
17534SOL     OW54498  10.867  12.680   9.574
17534SOL    HW154499  10.878  12.653   9.665
17534SOL    HW254500  10.826  12.605   9.532
17535SOL     OW54501   1.595  10.304  12.152
17535SOL    HW154502   1.557  10.274  12.234
17535SOL    HW254503   1.656  10.374  12.177
17536SOL     OW54504  12.743   6.140   2.898
17536SOL    HW154505  12.648   6.145   2.911
17536SOL    HW254506  12.777   6.114   2.983
17537SOL     OW54507   1.216   1.413   4.151
17537SOL    HW154508   1.248   1.356   4.220
17537SOL    HW254509   1.199   1.496   4.194
17538SOL     OW54510   2.574   3.209   9.410
17538SOL    HW154511   2.586   3.257   9.492
17538SOL    HW254512   2.627   3.130   9.421
17539SOL     OW54513   5.802  13.366   6.438
17539SOL    HW154514   5.855  13.296   6.401
17539SOL    HW254515   5.717  13.325   6.454
17540SOL     OW54516   3.823   2.248   7.211
17540SOL    HW154517   3.772   2.167   7.207
17540SOL    HW254518   3.766   2.314   7.173
17541SOL     OW54519   0.936   8.742  14.662
17541SOL    HW154520   0.901   8.708  14.579
17541SOL    HW254521   1.016   8.788  14.636
17542SOL     OW54522   6.838  12.074   4.972
17542SOL    HW154523   6.901  12.098   4.904
17542SOL    HW254524   6.760  12.046   4.924
17543SOL     OW54525  10.695  12.689   8.012
17543SOL    HW154526  10.668  12.597   8.013
17543SOL    HW254527  10.745  12.700   8.093
17544SOL     OW54528  12.784   4.294   2.151
17544SOL    HW154529  12.716   4.227   2.141
17544SOL    HW254530  12.817   4.282   2.240
17545SOL     OW54531   5.257  10.352  10.487
17545SOL    HW154532   5.179  10.406  10.502
17545SOL    HW254533   5.295  10.340  10.575
17546SOL     OW54534   9.101   7.283   5.639
17546SOL    HW154535   9.041   7.212   5.661
17546SOL    HW254536   9.047   7.363   5.646
17547SOL     OW54537   0.061   4.996   7.766
17547SOL    HW154538  14.856   4.970   7.816
17547SOL    HW254539   0.120   5.035   7.832
17548SOL     OW54540   9.791   8.983  13.573
17548SOL    HW154541   9.736   9.005  13.499
17548SOL    HW254542   9.756   9.034  13.646
17549SOL     OW54543   2.037   1.368  14.411
17549SOL    HW154544   2.115   1.324  14.444
17549SOL    HW254545   2.052   1.461  14.430
17550SOL     OW54546   3.851   4.304   6.726
17550SOL    HW154547   3.889   4.237   6.669
17550SOL    HW254548   3.793   4.257   6.785
17551SOL     OW54549  14.414   0.300   9.577
17551SOL    HW154550  14.500   0.258   9.586
17551SOL    HW254551  14.415   0.338   9.489
17552SOL     OW54552   2.638   6.483   4.121
17552SOL    HW154553   2.546   6.506   4.130
17552SOL    HW254554   2.638   6.400   4.073
17553SOL     OW54555   7.182   5.967   0.927
17553SOL    HW154556   7.239   5.890   0.935
17553SOL    HW254557   7.202   6.020   1.004
17554SOL     OW54558   9.253  11.440  14.431
17554SOL    HW154559   9.193  11.472  14.498
17554SOL    HW254560   9.258  11.510  14.367
17555SOL     OW54561  13.985  12.213   8.416
17555SOL    HW154562  14.069  12.258   8.423
17555SOL    HW254563  13.962  12.190   8.506
17556SOL     OW54564   8.355   4.954   4.937
17556SOL    HW154565   8.360   5.008   4.859
17556SOL    HW254566   8.431   4.895   4.930
17557SOL     OW54567   9.599  10.652   0.414
17557SOL    HW154568   9.631  10.575   0.368
17557SOL    HW254569   9.645  10.726   0.373
17558SOL     OW54570  11.760  13.952  12.619
17558SOL    HW154571  11.808  13.887  12.568
17558SOL    HW254572  11.826  13.993  12.676
17559SOL     OW54573   9.127   7.645   6.715
17559SOL    HW154574   9.153   7.736   6.700
17559SOL    HW254575   9.209   7.596   6.713
17560SOL     OW54576  14.284  10.496  13.180
17560SOL    HW154577  14.253  10.551  13.252
17560SOL    HW254578  14.295  10.409  13.219
17561SOL     OW54579   5.823   9.976   4.257
17561SOL    HW154580   5.826   9.911   4.327
17561SOL    HW254581   5.902   9.958   4.205
17562SOL     OW54582   8.324   0.773  13.934
17562SOL    HW154583   8.370   0.691  13.952
17562SOL    HW254584   8.301   0.806  14.021
17563SOL     OW54585   2.707  11.860   4.725
17563SOL    HW154586   2.789  11.812   4.708
17563SOL    HW254587   2.681  11.833   4.813
17564SOL     OW54588  12.118   2.759  13.152
17564SOL    HW154589  12.082   2.671  13.165
17564SOL    HW254590  12.042   2.811  13.127
17565SOL     OW54591  13.140   2.278   3.708
17565SOL    HW154592  13.079   2.212   3.675
17565SOL    HW254593  13.182   2.236   3.783
17566SOL     OW54594  10.868   1.010  13.776
17566SOL    HW154595  10.939   1.073  13.766
17566SOL    HW254596  10.791   1.055  13.742
17567SOL     OW54597  11.868   2.742   4.852
17567SOL    HW154598  11.845   2.803   4.922
17567SOL    HW254599  11.948   2.700   4.883
17568SOL     OW54600   6.342   7.073  14.358
17568SOL    HW154601   6.342   6.978  14.369
17568SOL    HW254602   6.275   7.089  14.291
17569SOL     OW54603  11.375  10.863   6.708
17569SOL    HW154604  11.284  10.894   6.709
17569SOL    HW254605  11.418  10.913   6.777
17570SOL     OW54606  12.588   6.748   7.386
17570SOL    HW154607  12.679   6.730   7.361
17570SOL    HW254608  12.557   6.808   7.318
17571SOL     OW54609   9.257  13.537   4.173
17571SOL    HW154610   9.262  13.447   4.205
17571SOL    HW254611   9.340  13.577   4.198
17572SOL     OW54612  13.813  11.043  12.650
17572SOL    HW154613  13.773  11.126  12.678
17572SOL    HW254614  13.842  11.002  12.732
17573SOL     OW54615  11.650  13.109  10.840
17573SOL    HW154616  11.572  13.105  10.895
17573SOL    HW254617  11.616  13.112  10.750
17574SOL     OW54618  11.881   7.899   8.524
17574SOL    HW154619  11.884   7.921   8.430
17574SOL    HW254620  11.827   7.820   8.528
17575SOL     OW54621  11.238   7.317  11.692
17575SOL    HW154622  11.317   7.335  11.743
17575SOL    HW254623  11.167   7.357  11.742
17576SOL     OW54624   7.345   9.866  14.738
17576SOL    HW154625   7.376   9.908  14.657
17576SOL    HW254626   7.425   9.850  14.789
17577SOL     OW54627   7.951   2.774  10.804
17577SOL    HW154628   8.034   2.821  10.793
17577SOL    HW254629   7.970   2.708  10.870
17578SOL     OW54630  10.714  13.003   0.530
17578SOL    HW154631  10.768  13.046   0.596
17578SOL    HW254632  10.661  13.074   0.492
17579SOL     OW54633   2.602   1.522   1.006
17579SOL    HW154634   2.563   1.568   0.931
17579SOL    HW254635   2.612   1.589   1.073
17580SOL     OW54636   5.481   8.699   1.794
17580SOL    HW154637   5.564   8.747   1.790
17580SOL    HW254638   5.499   8.618   1.745
17581SOL     OW54639   9.164   6.699   4.669
17581SOL    HW154640   9.135   6.616   4.707
17581SOL    HW254641   9.107   6.765   4.708
17582SOL     OW54642   6.937   9.211  12.557
17582SOL    HW154643   6.852   9.226  12.516
17582SOL    HW254644   6.960   9.121  12.535
17583SOL     OW54645   9.994  11.110   8.891
17583SOL    HW154646  10.066  11.168   8.918
17583SOL    HW254647  10.032  11.022   8.892
17584SOL     OW54648  10.660   0.951   8.164
17584SOL    HW154649  10.735   0.938   8.222
17584SOL    HW254650  10.685   1.024   8.107
17585SOL     OW54651   9.395   9.100   7.862
17585SOL    HW154652   9.394   9.107   7.957
17585SOL    HW254653   9.457   9.168   7.833
17586SOL     OW54654  11.001  12.320  11.939
17586SOL    HW154655  11.096  12.333  11.934
17586SOL    HW254656  10.988  12.275  12.023
17587SOL     OW54657  11.956  14.354   0.231
17587SOL    HW154658  11.864  14.349   0.206
17587SOL    HW254659  11.961  14.306   0.314
17588SOL     OW54660   0.572  12.057  10.114
17588SOL    HW154661   0.631  12.082  10.184
17588SOL    HW254662   0.629  12.027  10.043
17589SOL     OW54663   6.831  10.840   2.838
17589SOL    HW154664   6.822  10.815   2.930
17589SOL    HW254665   6.923  10.823   2.818
17590SOL     OW54666  12.995  11.296   1.777
17590SOL    HW154667  12.918  11.340   1.741
17590SOL    HW254668  13.000  11.214   1.728
17591SOL     OW54669   3.959   7.315  12.898
17591SOL    HW154670   4.025   7.365  12.945
17591SOL    HW254671   3.934   7.245  12.959
17592SOL     OW54672   8.845  10.808   0.486
17592SOL    HW154673   8.900  10.804   0.408
17592SOL    HW254674   8.899  10.771   0.555
17593SOL     OW54675   1.088   2.720  11.284
17593SOL    HW154676   1.168   2.684  11.323
17593SOL    HW254677   1.109   2.812  11.268
17594SOL     OW54678  10.177   7.986   6.033
17594SOL    HW154679  10.237   7.990   5.958
17594SOL    HW254680  10.127   8.067   6.028
17595SOL     OW54681   9.773   1.179   8.672
17595SOL    HW154682   9.694   1.135   8.702
17595SOL    HW254683   9.844   1.118   8.694
17596SOL     OW54684   1.475   2.436  13.065
17596SOL    HW154685   1.462   2.493  12.989
17596SOL    HW254686   1.388   2.400  13.083
17597SOL     OW54687   7.793   3.220   0.068
17597SOL    HW154688   7.791   3.266   0.151
17597SOL    HW254689   7.825   3.132   0.089
17598SOL     OW54690   7.529   5.393   9.344
17598SOL    HW154691   7.441   5.409   9.309
17598SOL    HW254692   7.586   5.393   9.267
17599SOL     OW54693  12.733  14.699  11.255
17599SOL    HW154694  12.794  14.711  11.328
17599SOL    HW254695  12.651  14.672  11.297
17600SOL     OW54696   2.894   9.482   9.152
17600SOL    HW154697   2.884   9.460   9.060
17600SOL    HW254698   2.929   9.403   9.193
17601SOL     OW54699   2.708   5.666   9.200
17601SOL    HW154700   2.677   5.639   9.113
17601SOL    HW254701   2.647   5.624   9.261
17602SOL     OW54702  10.942   2.390   5.117
17602SOL    HW154703  10.920   2.324   5.051
17602SOL    HW254704  11.037   2.380   5.129
17603SOL     OW54705  14.331  13.385  14.419
17603SOL    HW154706  14.374  13.394  14.504
17603SOL    HW254707  14.238  13.381  14.440
17604SOL     OW54708   5.850   1.241  10.241
17604SOL    HW154709   5.792   1.166  10.227
17604SOL    HW254710   5.842   1.293  10.161
17605SOL     OW54711   4.804   3.165   2.494
17605SOL    HW154712   4.712   3.191   2.507
17605SOL    HW254713   4.841   3.160   2.582
17606SOL     OW54714   8.829   9.479  12.203
17606SOL    HW154715   8.747   9.440  12.234
17606SOL    HW254716   8.827   9.569  12.236
17607SOL     OW54717   3.114   9.582   9.410
17607SOL    HW154718   3.081   9.648   9.349
17607SOL    HW254719   3.160   9.519   9.354
17608SOL     OW54720   3.136   7.116   4.075
17608SOL    HW154721   3.200   7.122   4.146
17608SOL    HW254722   3.085   7.038   4.096
17609SOL     OW54723   0.499   0.499   6.745
17609SOL    HW154724   0.580   0.457   6.776
17609SOL    HW254725   0.497   0.480   6.651
17610SOL     OW54726  12.060  14.532   5.111
17610SOL    HW154727  11.977  14.494   5.080
17610SOL    HW254728  12.037  14.577   5.192
17611SOL     OW54729  13.379   9.764   4.789
17611SOL    HW154730  13.442   9.837   4.792
17611SOL    HW254731  13.294   9.806   4.804
17612SOL     OW54732  10.360   8.148  13.550
17612SOL    HW154733  10.352   8.243  13.543
17612SOL    HW254734  10.434   8.134  13.608
17613SOL     OW54735  10.635   0.469   1.120
17613SOL    HW154736  10.687   0.524   1.061
17613SOL    HW254737  10.560   0.524   1.144
17614SOL     OW54738   9.023   3.737  10.309
17614SOL    HW154739   9.089   3.672  10.290
17614SOL    HW254740   9.056   3.783  10.387
17615SOL     OW54741  14.123   7.345   3.331
17615SOL    HW154742  14.198   7.356   3.272
17615SOL    HW254743  14.084   7.433   3.336
17616SOL     OW54744  11.924   3.484   8.701
17616SOL    HW154745  11.961   3.405   8.740
17616SOL    HW254746  11.945   3.554   8.763
17617SOL     OW54747  11.583   9.053  10.565
17617SOL    HW154748  11.610   9.013  10.482
17617SOL    HW254749  11.490   9.073  10.553
17618SOL     OW54750   1.253  11.971   8.004
17618SOL    HW154751   1.200  12.042   8.040
17618SOL    HW254752   1.259  11.907   8.076
17619SOL     OW54753   1.047  12.591   5.885
17619SOL    HW154754   1.075  12.530   5.953
17619SOL    HW254755   1.099  12.569   5.808
17620SOL     OW54756  13.996   1.417   0.271
17620SOL    HW154757  14.065   1.391   0.210
17620SOL    HW254758  13.915   1.392   0.227
17621SOL     OW54759   0.676   1.757   3.565
17621SOL    HW154760   0.760   1.783   3.603
17621SOL    HW254761   0.694   1.743   3.473
17622SOL     OW54762  14.512  14.815   6.927
17622SOL    HW154763  14.569  14.748   6.965
17622SOL    HW254764  14.572   0.007   6.890
17623SOL     OW54765   4.007   1.221   3.092
17623SOL    HW154766   3.923   1.241   3.133
17623SOL    HW254767   4.070   1.273   3.142
17624SOL     OW54768   2.572   4.119   3.742
17624SOL    HW154769   2.522   4.196   3.715
17624SOL    HW254770   2.646   4.155   3.792
17625SOL     OW54771   2.124   4.940  13.108
17625SOL    HW154772   2.116   4.895  13.192
17625SOL    HW254773   2.035   4.951  13.078
17626SOL     OW54774  14.741  14.639  12.417
17626SOL    HW154775  14.818  14.582  12.414
17626SOL    HW254776  14.776  14.727  12.405
17627SOL     OW54777  10.079   4.579   3.725
17627SOL    HW154778  10.000   4.605   3.678
17627SOL    HW254779  10.147   4.639   3.694
17628SOL     OW54780  12.304   4.671   3.985
17628SOL    HW154781  12.381   4.715   4.020
17628SOL    HW254782  12.336   4.618   3.913
17629SOL     OW54783  12.953  11.399   0.049
17629SOL    HW154784  12.902  11.440  14.851
17629SOL    HW254785  12.897  11.328   0.081
17630SOL     OW54786   7.971   6.410  13.728
17630SOL    HW154787   7.951   6.364  13.809
17630SOL    HW254788   7.909   6.375  13.664
17631SOL     OW54789   2.746   7.820   4.408
17631SOL    HW154790   2.789   7.832   4.493
17631SOL    HW254791   2.665   7.872   4.415
17632SOL     OW54792   7.363   8.199   1.378
17632SOL    HW154793   7.288   8.140   1.385
17632SOL    HW254794   7.432   8.156   1.429
17633SOL     OW54795   3.276   8.588   3.651
17633SOL    HW154796   3.264   8.523   3.720
17633SOL    HW254797   3.368   8.612   3.655
17634SOL     OW54798   0.722   7.888  12.717
17634SOL    HW154799   0.724   7.873  12.811
17634SOL    HW254800   0.729   7.983  12.707
17635SOL     OW54801   4.708   2.193   6.517
17635SOL    HW154802   4.735   2.285   6.525
17635SOL    HW254803   4.695   2.164   6.607
17636SOL     OW54804   8.513   1.574   8.333
17636SOL    HW154805   8.593   1.523   8.321
17636SOL    HW254806   8.497   1.616   8.248
17637SOL     OW54807  14.556   5.574   6.879
17637SOL    HW154808  14.466   5.571   6.848
17637SOL    HW254809  14.593   5.651   6.836
17638SOL     OW54810   3.081   8.705   7.424
17638SOL    HW154811   3.137   8.781   7.437
17638SOL    HW254812   3.142   8.632   7.411
17639SOL     OW54813  11.443   2.252   1.357
17639SOL    HW154814  11.534   2.277   1.375
17639SOL    HW254815  11.392   2.327   1.386
17640SOL     OW54816   3.242   9.355  13.726
17640SOL    HW154817   3.330   9.324  13.705
17640SOL    HW254818   3.221   9.418  13.657
17641SOL     OW54819  14.298  11.506  12.351
17641SOL    HW154820  14.287  11.568  12.280
17641SOL    HW254821  14.390  11.479  12.346
17642SOL     OW54822   4.014  13.659   4.706
17642SOL    HW154823   3.963  13.735   4.735
17642SOL    HW254824   3.954  13.609   4.652
17643SOL     OW54825   2.896  13.091  11.743
17643SOL    HW154826   2.903  12.995  11.751
17643SOL    HW254827   2.865  13.120  11.829
17644SOL     OW54828   4.417  13.455   3.814
17644SOL    HW154829   4.386  13.544   3.796
17644SOL    HW254830   4.481  13.465   3.885
17645SOL     OW54831   2.851  14.474  11.639
17645SOL    HW154832   2.923  14.511  11.690
17645SOL    HW254833   2.858  14.380  11.654
17646SOL     OW54834  14.834   7.198   6.422
17646SOL    HW154835  14.793   7.133   6.365
17646SOL    HW254836   0.054   7.199   6.395
17647SOL     OW54837   0.939   7.184   9.050
17647SOL    HW154838   0.883   7.152   9.122
17647SOL    HW254839   0.999   7.112   9.033
17648SOL     OW54840   7.878   0.963  11.612
17648SOL    HW154841   7.888   0.914  11.694
17648SOL    HW254842   7.949   0.933  11.556
17649SOL     OW54843  12.963   1.709   7.898
17649SOL    HW154844  13.017   1.702   7.819
17649SOL    HW254845  13.004   1.779   7.949
17650SOL     OW54846   4.633   2.573  12.117
17650SOL    HW154847   4.604   2.583  12.027
17650SOL    HW254848   4.690   2.648  12.133
17651SOL     OW54849  12.593   6.980  11.184
17651SOL    HW154850  12.642   6.915  11.234
17651SOL    HW254851  12.523   6.930  11.142
17652SOL     OW54852   6.082  11.726   7.681
17652SOL    HW154853   6.163  11.674   7.680
17652SOL    HW254854   6.017  11.668   7.722
17653SOL     OW54855   0.916   4.112   2.515
17653SOL    HW154856   1.001   4.153   2.528
17653SOL    HW254857   0.860   4.182   2.480
17654SOL     OW54858  12.005   4.800   6.893
17654SOL    HW154859  11.949   4.875   6.916
17654SOL    HW254860  11.991   4.737   6.963
17655SOL     OW54861   8.863  11.673   1.305
17655SOL    HW154862   8.863  11.603   1.370
17655SOL    HW254863   8.909  11.635   1.230
17656SOL     OW54864  13.105   5.297  10.665
17656SOL    HW154865  13.108   5.235  10.739
17656SOL    HW254866  13.197   5.306  10.638
17657SOL     OW54867   8.847   0.410   0.812
17657SOL    HW154868   8.810   0.383   0.896
17657SOL    HW254869   8.773   0.410   0.752
17658SOL     OW54870   1.064   8.741   3.947
17658SOL    HW154871   1.108   8.656   3.947
17658SOL    HW254872   1.084   8.778   3.861
17659SOL     OW54873   7.924   5.025  11.027
17659SOL    HW154874   7.874   5.011  11.107
17659SOL    HW254875   8.014   5.002  11.051
17660SOL     OW54876  12.293   7.795   1.455
17660SOL    HW154877  12.377   7.839   1.467
17660SOL    HW254878  12.268   7.767   1.543
17661SOL     OW54879   4.217  12.623  10.412
17661SOL    HW154880   4.231  12.666  10.328
17661SOL    HW254881   4.250  12.534  10.400
17662SOL     OW54882  13.592  12.929   8.647
17662SOL    HW154883  13.574  12.847   8.693
17662SOL    HW254884  13.546  12.919   8.563
17663SOL     OW54885   0.450   2.363   0.590
17663SOL    HW154886   0.469   2.443   0.638
17663SOL    HW254887   0.441   2.296   0.658
17664SOL     OW54888   8.415   7.692   7.623
17664SOL    HW154889   8.443   7.611   7.581
17664SOL    HW254890   8.366   7.663   7.700
17665SOL     OW54891   5.999  11.921  11.707
17665SOL    HW154892   5.905  11.942  11.707
17665SOL    HW254893   6.025  11.925  11.799
17666SOL     OW54894   4.917   2.465   9.084
17666SOL    HW154895   4.929   2.426   9.171
17666SOL    HW254896   4.991   2.432   9.033
17667SOL     OW54897  11.684   5.087   3.127
17667SOL    HW154898  11.761   5.105   3.180
17667SOL    HW254899  11.615   5.068   3.191
17668SOL     OW54900   6.671   5.809   0.969
17668SOL    HW154901   6.690   5.736   0.909
17668SOL    HW254902   6.615   5.868   0.917
17669SOL     OW54903   4.293   0.671  14.224
17669SOL    HW154904   4.277   0.709  14.311
17669SOL    HW254905   4.238   0.721  14.165
17670SOL     OW54906   1.289  11.513   5.138
17670SOL    HW154907   1.372  11.466   5.128
17670SOL    HW254908   1.310  11.587   5.196
17671SOL     OW54909   3.334   4.277   7.879
17671SOL    HW154910   3.335   4.283   7.974
17671SOL    HW254911   3.425   4.260   7.855
17672SOL     OW54912   1.150   5.123  10.502
17672SOL    HW154913   1.057   5.100  10.496
17672SOL    HW254914   1.184   5.067  10.572
17673SOL     OW54915   5.849   2.935   6.932
17673SOL    HW154916   5.891   2.896   6.856
17673SOL    HW254917   5.915   2.994   6.969
17674SOL     OW54918   0.514   8.824   6.278
17674SOL    HW154919   0.474   8.844   6.362
17674SOL    HW254920   0.442   8.828   6.215
17675SOL     OW54921   7.149   5.977  11.180
17675SOL    HW154922   7.172   6.067  11.159
17675SOL    HW254923   7.129   5.978  11.274
17676SOL     OW54924   3.197   1.553   6.765
17676SOL    HW154925   3.170   1.643   6.782
17676SOL    HW254926   3.120   1.510   6.728
17677SOL     OW54927   9.275   6.084   1.054
17677SOL    HW154928   9.204   6.101   0.992
17677SOL    HW254929   9.243   6.121   1.136
17678SOL     OW54930   7.708   3.891   0.310
17678SOL    HW154931   7.631   3.918   0.260
17678SOL    HW254932   7.748   3.822   0.257
17679SOL     OW54933   1.442   2.779   7.386
17679SOL    HW154934   1.475   2.781   7.476
17679SOL    HW254935   1.437   2.871   7.361
17680SOL     OW54936   4.310  12.168   6.526
17680SOL    HW154937   4.327  12.227   6.599
17680SOL    HW254938   4.228  12.123   6.550
17681SOL     OW54939   5.240  10.003  12.198
17681SOL    HW154940   5.215   9.918  12.233
17681SOL    HW254941   5.191  10.066  12.250
17682SOL     OW54942  13.989   5.048  10.635
17682SOL    HW154943  14.053   5.073  10.702
17682SOL    HW254944  14.040   4.999  10.571
17683SOL     OW54945   8.391   9.112   1.676
17683SOL    HW154946   8.437   9.036   1.712
17683SOL    HW254947   8.361   9.160   1.753
17684SOL     OW54948   2.315   3.383  10.809
17684SOL    HW154949   2.407   3.405  10.795
17684SOL    HW254950   2.283   3.355  10.723
17685SOL     OW54951   5.364   3.827   2.750
17685SOL    HW154952   5.421   3.771   2.697
17685SOL    HW254953   5.396   3.815   2.840
17686SOL     OW54954  12.187   3.978   3.547
17686SOL    HW154955  12.205   4.006   3.636
17686SOL    HW254956  12.093   3.990   3.536
17687SOL     OW54957   0.106   6.692   5.720
17687SOL    HW154958   0.094   6.637   5.643
17687SOL    HW254959   0.030   6.673   5.775
17688SOL     OW54960   1.406  14.066   4.764
17688SOL    HW154961   1.393  14.139   4.824
17688SOL    HW254962   1.416  14.107   4.678
17689SOL     OW54963   6.703   4.726   2.688
17689SOL    HW154964   6.673   4.790   2.752
17689SOL    HW254965   6.787   4.759   2.657
17690SOL     OW54966   9.097  10.876   3.408
17690SOL    HW154967   9.039  10.869   3.483
17690SOL    HW254968   9.182  10.849   3.441
17691SOL     OW54969   9.090   6.307  11.103
17691SOL    HW154970   9.083   6.399  11.126
17691SOL    HW254971   9.038   6.261  11.169
17692SOL     OW54972  11.994  13.191  10.505
17692SOL    HW154973  12.088  13.210  10.511
17692SOL    HW254974  11.962  13.205  10.594
17693SOL     OW54975  12.995  13.565   9.733
17693SOL    HW154976  13.067  13.509   9.762
17693SOL    HW254977  12.918  13.529   9.777
17694SOL     OW54978  11.692   0.544   5.799
17694SOL    HW154979  11.662   0.501   5.718
17694SOL    HW254980  11.672   0.637   5.785
17695SOL     OW54981  12.387   7.980   3.598
17695SOL    HW154982  12.301   8.014   3.574
17695SOL    HW254983  12.439   7.987   3.518
17696SOL     OW54984   9.743   9.771  13.577
17696SOL    HW154985   9.834   9.793  13.558
17696SOL    HW254986   9.728   9.806  13.665
17697SOL     OW54987  11.547   6.999  14.111
17697SOL    HW154988  11.462   6.991  14.155
17697SOL    HW254989  11.524   7.011  14.019
17698SOL     OW54990   7.509   8.868  12.508
17698SOL    HW154991   7.417   8.895  12.512
17698SOL    HW254992   7.533   8.850  12.599
17699SOL     OW54993   7.393   3.467   7.451
17699SOL    HW154994   7.412   3.556   7.422
17699SOL    HW254995   7.405   3.470   7.546
17700SOL     OW54996  11.610   7.269   6.610
17700SOL    HW154997  11.626   7.212   6.685
17700SOL    HW254998  11.679   7.334   6.614
17701SOL     OW54999   0.172   9.179   4.442
17701SOL    HW155000   0.209   9.098   4.407
17701SOL    HW255001   0.078   9.162   4.448
17702SOL     OW55002  10.042   6.679   4.649
17702SOL    HW155003   9.988   6.747   4.609
17702SOL    HW255004   9.978   6.622   4.693
17703SOL     OW55005  10.610   3.773   6.740
17703SOL    HW155006  10.635   3.792   6.830
17703SOL    HW255007  10.519   3.803   6.734
17704SOL     OW55008   5.896   9.051  11.028
17704SOL    HW155009   5.930   9.140  11.013
17704SOL    HW255010   5.904   9.008  10.942
17705SOL     OW55011   1.264  11.570   8.070
17705SOL    HW155012   1.172  11.544   8.059
17705SOL    HW255013   1.260  11.656   8.112
17706SOL     OW55014  13.453   6.806   6.345
17706SOL    HW155015  13.518   6.858   6.392
17706SOL    HW255016  13.402   6.763   6.413
17707SOL     OW55017   8.113   8.117   6.669
17707SOL    HW155018   8.172   8.113   6.594
17707SOL    HW255019   8.025   8.113   6.631
17708SOL     OW55020   3.483   1.237   7.262
17708SOL    HW155021   3.478   1.292   7.184
17708SOL    HW255022   3.547   1.169   7.240
17709SOL     OW55023   4.725   4.328  13.845
17709SOL    HW155024   4.718   4.308  13.938
17709SOL    HW255025   4.653   4.388  13.827
17710SOL     OW55026   2.326   9.270   6.189
17710SOL    HW155027   2.256   9.257   6.253
17710SOL    HW255028   2.348   9.362   6.197
17711SOL     OW55029   0.521   3.371  11.972
17711SOL    HW155030   0.495   3.394  11.883
17711SOL    HW255031   0.465   3.425  12.028
17712SOL     OW55032   8.693   4.054   8.747
17712SOL    HW155033   8.672   4.100   8.666
17712SOL    HW255034   8.645   3.972   8.742
17713SOL     OW55035   3.324   5.847   1.220
17713SOL    HW155036   3.392   5.913   1.226
17713SOL    HW255037   3.242   5.896   1.229
17714SOL     OW55038   0.239   0.160   6.327
17714SOL    HW155039   0.152   0.139   6.293
17714SOL    HW255040   0.272   0.228   6.268
17715SOL     OW55041   8.144   9.575  11.848
17715SOL    HW155042   8.152   9.487  11.812
17715SOL    HW255043   8.100   9.562  11.932
17716SOL     OW55044   5.440   4.901   4.716
17716SOL    HW155045   5.500   4.961   4.759
17716SOL    HW255046   5.363   4.954   4.694
17717SOL     OW55047   4.737   5.919   9.366
17717SOL    HW155048   4.816   5.925   9.418
17717SOL    HW255049   4.735   5.999   9.314
17718SOL     OW55050   8.970   1.870   6.159
17718SOL    HW155051   8.942   1.781   6.181
17718SOL    HW255052   9.042   1.888   6.219
17719SOL     OW55053   8.841   6.368   8.606
17719SOL    HW155054   8.760   6.390   8.560
17719SOL    HW255055   8.900   6.441   8.588
17720SOL     OW55056  13.829   4.457   0.438
17720SOL    HW155057  13.818   4.468   0.532
17720SOL    HW255058  13.804   4.541   0.400
17721SOL     OW55059  11.927  10.466   4.225
17721SOL    HW155060  11.834  10.472   4.204
17721SOL    HW255061  11.960  10.394   4.172
17722SOL     OW55062  14.498  12.235   7.563
17722SOL    HW155063  14.508  12.160   7.504
17722SOL    HW255064  14.431  12.207   7.626
17723SOL     OW55065  13.481  13.224   5.604
17723SOL    HW155066  13.412  13.267   5.654
17723SOL    HW255067  13.560  13.236   5.657
17724SOL     OW55068   8.697   6.000  10.534
17724SOL    HW155069   8.670   6.049  10.612
17724SOL    HW255070   8.742   5.923  10.569
17725SOL     OW55071   4.335  10.394   8.198
17725SOL    HW155072   4.355  10.446   8.276
17725SOL    HW255073   4.324  10.459   8.128
17726SOL     OW55074  11.541   9.695   9.223
17726SOL    HW155075  11.472   9.651   9.173
17726SOL    HW255076  11.496   9.767   9.267
17727SOL     OW55077   0.117   1.052   0.681
17727SOL    HW155078   0.193   1.040   0.739
17727SOL    HW255079   0.045   1.007   0.726
17728SOL     OW55080   1.494  10.838  10.093
17728SOL    HW155081   1.534  10.891  10.024
17728SOL    HW255082   1.401  10.835  10.069
17729SOL     OW55083   7.791   2.032   7.590
17729SOL    HW155084   7.792   1.936   7.592
17729SOL    HW255085   7.701   2.056   7.612
17730SOL     OW55086   6.038  11.507   8.902
17730SOL    HW155087   6.072  11.487   8.990
17730SOL    HW255088   6.094  11.578   8.871
17731SOL     OW55089   3.393   9.779   2.316
17731SOL    HW155090   3.430   9.794   2.403
17731SOL    HW255091   3.464   9.799   2.255
17732SOL     OW55092  10.747  10.674   1.175
17732SOL    HW155093  10.664  10.704   1.138
17732SOL    HW255094  10.776  10.604   1.116
17733SOL     OW55095   7.708  10.726   3.062
17733SOL    HW155096   7.771  10.751   2.994
17733SOL    HW255097   7.662  10.807   3.082
17734SOL     OW55098   7.628   6.344   5.270
17734SOL    HW155099   7.656   6.434   5.251
17734SOL    HW255100   7.533   6.346   5.259
17735SOL     OW55101  14.535  13.493  13.912
17735SOL    HW155102  14.454  13.531  13.947
17735SOL    HW255103  14.594  13.491  13.988
17736SOL     OW55104   1.288   5.451   7.369
17736SOL    HW155105   1.345   5.475   7.296
17736SOL    HW255106   1.243   5.372   7.340
17737SOL     OW55107   6.950   1.341   3.198
17737SOL    HW155108   7.003   1.263   3.215
17737SOL    HW255109   7.002   1.413   3.236
17738SOL     OW55110   0.419  10.587   2.003
17738SOL    HW155111   0.459  10.595   2.090
17738SOL    HW255112   0.491  10.560   1.946
17739SOL     OW55113   7.052  12.255   2.735
17739SOL    HW155114   7.044  12.160   2.723
17739SOL    HW255115   7.013  12.272   2.821
17740SOL     OW55116  12.403   3.435   9.900
17740SOL    HW155117  12.340   3.506   9.907
17740SOL    HW255118  12.395   3.404   9.810
17741SOL     OW55119  14.231   0.445   3.973
17741SOL    HW155120  14.266   0.359   3.952
17741SOL    HW255121  14.299   0.506   3.946
17742SOL     OW55122  12.427   0.101   7.963
17742SOL    HW155123  12.381   0.067   8.040
17742SOL    HW255124  12.373   0.071   7.889
17743SOL     OW55125   8.541  11.451   9.550
17743SOL    HW155126   8.631  11.484   9.548
17743SOL    HW255127   8.536  11.390   9.477
17744SOL     OW55128  13.817  10.459  12.768
17744SOL    HW155129  13.904  10.446  12.731
17744SOL    HW255130  13.767  10.502  12.698
17745SOL     OW55131  14.635   2.725   3.353
17745SOL    HW155132  14.578   2.665   3.401
17745SOL    HW255133  14.722   2.712   3.391
17746SOL     OW55134   0.397  13.829  11.068
17746SOL    HW155135   0.401  13.736  11.092
17746SOL    HW255136   0.361  13.872  11.146
17747SOL     OW55137   8.963   6.631   3.063
17747SOL    HW155138   9.057   6.611   3.065
17747SOL    HW255139   8.924   6.556   3.018
17748SOL     OW55140  12.523   9.595   7.385
17748SOL    HW155141  12.468   9.626   7.457
17748SOL    HW255142  12.586   9.666   7.371
17749SOL     OW55143  13.487   6.804  13.720
17749SOL    HW155144  13.547   6.759  13.779
17749SOL    HW255145  13.482   6.893  13.754
17750SOL     OW55146   8.288  12.834   8.121
17750SOL    HW155147   8.337  12.870   8.195
17750SOL    HW255148   8.299  12.900   8.052
17751SOL     OW55149  11.233   5.678   9.033
17751SOL    HW155150  11.226   5.633   8.949
17751SOL    HW255151  11.190   5.763   9.018
17752SOL     OW55152   7.594   9.016   0.455
17752SOL    HW155153   7.520   9.060   0.499
17752SOL    HW255154   7.641   9.086   0.412
17753SOL     OW55155  10.939   8.655  10.928
17753SOL    HW155156  10.977   8.619  11.008
17753SOL    HW255157  10.845   8.636  10.935
17754SOL     OW55158  10.612   6.185   4.079
17754SOL    HW155159  10.633   6.250   4.012
17754SOL    HW255160  10.518   6.195   4.094
17755SOL     OW55161  12.805  12.173   1.402
17755SOL    HW155162  12.794  12.256   1.357
17755SOL    HW255163  12.737  12.116   1.366
17756SOL     OW55164   6.841  10.243   2.899
17756SOL    HW155165   6.928  10.282   2.898
17756SOL    HW255166   6.849  10.166   2.842
17757SOL     OW55167   7.336   9.453   2.204
17757SOL    HW155168   7.325   9.547   2.217
17757SOL    HW255169   7.248   9.417   2.208
17758SOL     OW55170  10.018  11.990   3.210
17758SOL    HW155171  10.061  11.994   3.295
17758SOL    HW255172  10.057  12.063   3.161
17759SOL     OW55173   6.849   6.462  10.992
17759SOL    HW155174   6.768   6.466  11.043
17759SOL    HW255175   6.893   6.383  11.024
17760SOL     OW55176   7.655   1.873   9.045
17760SOL    HW155177   7.647   1.916   9.130
17760SOL    HW255178   7.715   1.800   9.060
17761SOL     OW55179   8.628   8.514   9.162
17761SOL    HW155180   8.648   8.544   9.251
17761SOL    HW255181   8.634   8.419   9.166
17762SOL     OW55182   1.768  13.564  14.767
17762SOL    HW155183   1.676  13.592  14.766
17762SOL    HW255184   1.767  13.478  14.724
17763SOL     OW55185  11.248   8.245   8.377
17763SOL    HW155186  11.284   8.158   8.364
17763SOL    HW255187  11.181   8.253   8.309
17764SOL     OW55188  10.450   3.938   8.680
17764SOL    HW155189  10.538   3.951   8.716
17764SOL    HW255190  10.398   3.907   8.754
17765SOL     OW55191   8.376   0.357  10.862
17765SOL    HW155192   8.315   0.412  10.812
17765SOL    HW255193   8.462   0.392  10.840
17766SOL     OW55194  13.899   3.148  10.595
17766SOL    HW155195  13.945   3.207  10.535
17766SOL    HW255196  13.944   3.159  10.679
17767SOL     OW55197   8.345  10.117  14.301
17767SOL    HW155198   8.300  10.200  14.315
17767SOL    HW255199   8.275  10.052  14.295
17768SOL     OW55200   3.676   2.030   3.835
17768SOL    HW155201   3.770   2.012   3.826
17768SOL    HW255202   3.665   2.116   3.796
17769SOL     OW55203   9.527   0.483  11.717
17769SOL    HW155204   9.594   0.551  11.721
17769SOL    HW255205   9.552   0.429  11.642
17770SOL     OW55206   1.853  11.962  11.512
17770SOL    HW155207   1.926  12.017  11.484
17770SOL    HW255208   1.852  11.970  11.607
17771SOL     OW55209   2.580  12.712   2.682
17771SOL    HW155210   2.673  12.693   2.697
17771SOL    HW255211   2.547  12.738   2.768
17772SOL     OW55212   9.217   8.045  13.041
17772SOL    HW155213   9.310   8.067  13.031
17772SOL    HW255214   9.172   8.106  12.982
17773SOL     OW55215   0.295  14.682  10.951
17773SOL    HW155216   0.241  14.633  11.013
17773SOL    HW255217   0.289  14.773  10.980
17774SOL     OW55218   0.754  12.111   1.249
17774SOL    HW155219   0.775  12.017   1.250
17774SOL    HW255220   0.664  12.116   1.280
17775SOL     OW55221  12.153   8.396   8.885
17775SOL    HW155222  12.059   8.379   8.871
17775SOL    HW255223  12.188   8.407   8.797
17776SOL     OW55224  11.167  11.540   8.867
17776SOL    HW155225  11.160  11.557   8.773
17776SOL    HW255226  11.076  11.531   8.896
17777SOL     OW55227   8.276  13.561   4.667
17777SOL    HW155228   8.216  13.520   4.730
17777SOL    HW255229   8.316  13.633   4.716
17778SOL     OW55230  12.838  11.984   5.002
17778SOL    HW155231  12.923  11.950   4.975
17778SOL    HW255232  12.822  11.944   5.088
17779SOL     OW55233   0.132   9.478  12.478
17779SOL    HW155234   0.215   9.480  12.525
17779SOL    HW255235   0.157   9.487  12.386
17780SOL     OW55236  13.586   9.781   6.968
17780SOL    HW155237  13.567   9.693   6.934
17780SOL    HW255238  13.506   9.807   7.014
17781SOL     OW55239   8.271   6.089  11.717
17781SOL    HW155240   8.206   6.053  11.656
17781SOL    HW255241   8.219   6.130  11.785
17782SOL     OW55242  14.866   8.487   0.189
17782SOL    HW155243  14.790   8.486   0.132
17782SOL    HW255244  14.840   8.436   0.265
17783SOL     OW55245  10.967   0.245   9.311
17783SOL    HW155246  10.947   0.310   9.378
17783SOL    HW255247  11.041   0.282   9.263
17784SOL     OW55248  11.982   2.361   5.298
17784SOL    HW155249  11.928   2.334   5.224
17784SOL    HW255250  11.975   2.290   5.361
17785SOL     OW55251  12.321   7.691  14.138
17785SOL    HW155252  12.284   7.609  14.104
17785SOL    HW255253  12.401   7.664  14.183
17786SOL     OW55254  12.964   0.263   2.571
17786SOL    HW155255  12.924   0.272   2.485
17786SOL    HW255256  12.894   0.226   2.626
17787SOL     OW55257   7.839   0.040   6.936
17787SOL    HW155258   7.891   0.043   7.016
17787SOL    HW255259   7.876   0.109   6.880
17788SOL     OW55260   8.247   8.082   5.747
17788SOL    HW155261   8.284   8.169   5.737
17788SOL    HW255262   8.300   8.042   5.816
17789SOL     OW55263   0.324   3.800   8.691
17789SOL    HW155264   0.312   3.873   8.751
17789SOL    HW255265   0.414   3.771   8.706
17790SOL     OW55266  13.215   8.545   0.100
17790SOL    HW155267  13.250   8.521   0.185
17790SOL    HW255268  13.151   8.614   0.118
17791SOL     OW55269   6.384  11.409   2.597
17791SOL    HW155270   6.310  11.442   2.647
17791SOL    HW255271   6.363  11.318   2.580
17792SOL     OW55272   2.930   5.292   4.368
17792SOL    HW155273   2.835   5.294   4.380
17792SOL    HW255274   2.962   5.238   4.441
17793SOL     OW55275   1.993  12.376   4.658
17793SOL    HW155276   1.923  12.412   4.713
17793SOL    HW255277   1.948  12.325   4.592
17794SOL     OW55278  10.036  14.425   9.069
17794SOL    HW155279  10.000  14.447   9.155
17794SOL    HW255280  10.036  14.330   9.066
17795SOL     OW55281  12.285  13.680   0.093
17795SOL    HW155282  12.345  13.688   0.019
17795SOL    HW255283  12.198  13.682   0.053
17796SOL     OW55284  10.284   0.967   6.584
17796SOL    HW155285  10.353   0.944   6.522
17796SOL    HW255286  10.279   0.893   6.644
17797SOL     OW55287   9.892   5.374  11.306
17797SOL    HW155288   9.818   5.423  11.271
17797SOL    HW255289   9.950   5.360  11.231
17798SOL     OW55290  13.880   3.087   9.457
17798SOL    HW155291  13.833   3.134   9.526
17798SOL    HW255292  13.971   3.116   9.466
17799SOL     OW55293   8.658   6.872   5.955
17799SOL    HW155294   8.608   6.801   5.915
17799SOL    HW255295   8.720   6.899   5.888
17800SOL     OW55296   4.978   9.002   6.277
17800SOL    HW155297   5.045   9.010   6.344
17800SOL    HW255298   4.970   8.908   6.262
17801SOL     OW55299   7.873   3.379   1.366
17801SOL    HW155300   7.894   3.467   1.336
17801SOL    HW255301   7.798   3.352   1.313
17802SOL     OW55302   3.117  10.010   4.236
17802SOL    HW155303   3.050   9.956   4.278
17802SOL    HW255304   3.092  10.100   4.258
17803SOL     OW55305   0.158   0.859   6.447
17803SOL    HW155306   0.231   0.876   6.506
17803SOL    HW255307   0.104   0.938   6.450
17804SOL     OW55308  11.076   1.071  12.519
17804SOL    HW155309  11.055   1.149  12.467
17804SOL    HW255310  11.165   1.047  12.492
17805SOL     OW55311  11.206   8.744  10.667
17805SOL    HW155312  11.300   8.729  10.671
17805SOL    HW255313  11.167   8.656  10.672
17806SOL     OW55314   3.238   9.680   6.985
17806SOL    HW155315   3.248   9.585   6.990
17806SOL    HW255316   3.280   9.704   6.903
17807SOL     OW55317  12.070   9.528   8.389
17807SOL    HW155318  12.115   9.503   8.470
17807SOL    HW255319  12.102   9.466   8.324
17808SOL     OW55320   4.269   9.908   4.759
17808SOL    HW155321   4.294   9.971   4.692
17808SOL    HW255322   4.191   9.946   4.800
17809SOL     OW55323  13.297  10.910   5.254
17809SOL    HW155324  13.288  10.909   5.158
17809SOL    HW255325  13.328  10.822   5.276
17810SOL     OW55326  12.332   6.824   5.157
17810SOL    HW155327  12.399   6.892   5.143
17810SOL    HW255328  12.375   6.743   5.130
17811SOL     OW55329   9.000   5.709   9.821
17811SOL    HW155330   9.085   5.753   9.829
17811SOL    HW255331   8.939   5.768   9.865
17812SOL     OW55332   3.802  14.831   8.536
17812SOL    HW155333   3.865   0.030   8.548
17812SOL    HW255334   3.746  14.861   8.464
17813SOL     OW55335  11.362   3.262   6.282
17813SOL    HW155336  11.453   3.281   6.261
17813SOL    HW255337  11.311   3.326   6.233
17814SOL     OW55338  10.886  10.771   5.812
17814SOL    HW155339  10.863  10.724   5.892
17814SOL    HW255340  10.815  10.834   5.800
17815SOL     OW55341   1.744  10.510   5.134
17815SOL    HW155342   1.757  10.600   5.162
17815SOL    HW255343   1.724  10.517   5.040
17816SOL     OW55344   6.441  14.518   8.969
17816SOL    HW155345   6.362  14.529   9.024
17816SOL    HW255346   6.432  14.430   8.933
17817SOL     OW55347  14.355   8.123   0.079
17817SOL    HW155348  14.261   8.109   0.076
17817SOL    HW255349  14.373   8.179   0.003
17818SOL     OW55350  11.577   0.816   2.019
17818SOL    HW155351  11.634   0.865   2.078
17818SOL    HW255352  11.496   0.804   2.068
17819SOL     OW55353  14.422   0.095   8.633
17819SOL    HW155354  14.515   0.112   8.624
17819SOL    HW255355  14.416   0.005   8.664
17820SOL     OW55356  11.813   5.665   2.778
17820SOL    HW155357  11.808   5.732   2.710
17820SOL    HW255358  11.731   5.675   2.828
17821SOL     OW55359   0.809  13.712   4.272
17821SOL    HW155360   0.882  13.651   4.263
17821SOL    HW255361   0.839  13.793   4.230
17822SOL     OW55362  10.982   1.426  13.144
17822SOL    HW155363  11.073   1.397  13.141
17822SOL    HW255364  10.975   1.475  13.226
17823SOL     OW55365   9.248  14.363   5.813
17823SOL    HW155366   9.184  14.343   5.744
17823SOL    HW255367   9.322  14.305   5.795
17824SOL     OW55368  10.973   3.982   1.588
17824SOL    HW155369  11.027   3.911   1.624
17824SOL    HW255370  10.893   3.980   1.640
17825SOL     OW55371   9.758   6.807   4.784
17825SOL    HW155372   9.704   6.734   4.753
17825SOL    HW255373   9.793   6.846   4.704
17826SOL     OW55374   0.721  11.894  13.817
17826SOL    HW155375   0.749  11.892  13.909
17826SOL    HW255376   0.790  11.943  13.773
17827SOL     OW55377   0.802   1.046  11.721
17827SOL    HW155378   0.771   0.981  11.784
17827SOL    HW255379   0.823   1.123  11.774
17828SOL     OW55380  13.243   9.157   3.245
17828SOL    HW155381  13.326   9.203   3.255
17828SOL    HW255382  13.223   9.124   3.332
17829SOL     OW55383   1.567   1.684  11.354
17829SOL    HW155384   1.515   1.662  11.277
17829SOL    HW255385   1.547   1.614  11.417
17830SOL     OW55386  11.633   8.892  11.445
17830SOL    HW155387  11.642   8.819  11.384
17830SOL    HW255388  11.586   8.959  11.395
17831SOL     OW55389   6.127   5.470   3.535
17831SOL    HW155390   6.061   5.503   3.475
17831SOL    HW255391   6.195   5.537   3.536
17832SOL     OW55392   0.209  12.134  13.410
17832SOL    HW155393   0.181  12.042  13.408
17832SOL    HW255394   0.149  12.176  13.471
17833SOL     OW55395   0.121   6.337   4.786
17833SOL    HW155396   0.200   6.285   4.777
17833SOL    HW255397   0.090   6.319   4.875
17834SOL     OW55398   8.356   3.296   4.894
17834SOL    HW155399   8.374   3.386   4.867
17834SOL    HW255400   8.372   3.243   4.816
17835SOL     OW55401   4.371   9.445   9.953
17835SOL    HW155402   4.415   9.489  10.026
17835SOL    HW255403   4.358   9.355   9.983
17836SOL     OW55404   2.895   3.975   6.585
17836SOL    HW155405   2.821   3.990   6.525
17836SOL    HW255406   2.863   4.003   6.670
17837SOL     OW55407   5.977   1.750  13.144
17837SOL    HW155408   5.964   1.691  13.218
17837SOL    HW255409   5.893   1.797  13.136
17838SOL     OW55410   1.475   6.259   3.432
17838SOL    HW155411   1.565   6.251   3.463
17838SOL    HW255412   1.473   6.211   3.350
17839SOL     OW55413   8.278  12.991   6.264
17839SOL    HW155414   8.280  13.031   6.177
17839SOL    HW255415   8.190  12.953   6.271
17840SOL     OW55416   3.901   2.508  11.614
17840SOL    HW155417   3.930   2.530  11.525
17840SOL    HW255418   3.817   2.552  11.623
17841SOL     OW55419   0.162   5.584   7.415
17841SOL    HW155420   0.222   5.642   7.369
17841SOL    HW255421   0.214   5.506   7.435
17842SOL     OW55422  10.236   2.359   8.973
17842SOL    HW155423  10.313   2.350   9.029
17842SOL    HW255424  10.225   2.272   8.934
17843SOL     OW55425   3.962   1.636   6.656
17843SOL    HW155426   3.901   1.677   6.595
17843SOL    HW255427   3.909   1.619   6.734
17844SOL     OW55428  10.525   5.186   6.882
17844SOL    HW155429  10.547   5.116   6.821
17844SOL    HW255430  10.582   5.172   6.957
17845SOL     OW55431   0.257  13.875   1.524
17845SOL    HW155432   0.284  13.785   1.542
17845SOL    HW255433   0.269  13.885   1.429
17846SOL     OW55434  11.210   1.415   7.654
17846SOL    HW155435  11.266   1.408   7.577
17846SOL    HW255436  11.132   1.462   7.623
17847SOL     OW55437  12.622   5.202   7.712
17847SOL    HW155438  12.579   5.119   7.691
17847SOL    HW255439  12.708   5.178   7.745
17848SOL     OW55440   0.260   5.372   8.168
17848SOL    HW155441   0.319   5.351   8.240
17848SOL    HW255442   0.215   5.289   8.149
17849SOL     OW55443   6.772   6.087  12.045
17849SOL    HW155444   6.788   6.176  12.078
17849SOL    HW255445   6.697   6.056  12.096
17850SOL     OW55446   7.025   3.036  10.365
17850SOL    HW155447   7.028   3.031  10.269
17850SOL    HW255448   7.114   3.017  10.393
17851SOL     OW55449   5.120  13.869   9.162
17851SOL    HW155450   5.137  13.937   9.097
17851SOL    HW255451   5.203  13.822   9.170
17852SOL     OW55452  10.844   2.060  13.869
17852SOL    HW155453  10.888   2.125  13.924
17852SOL    HW255454  10.914   2.023  13.815
17853SOL     OW55455  14.832  13.266  11.256
17853SOL    HW155456   0.030  13.324  11.285
17853SOL    HW255457   0.003  13.202  11.200
17854SOL     OW55458   3.832   8.935   9.237
17854SOL    HW155459   3.753   8.989   9.227
17854SOL    HW255460   3.830   8.906   9.328
17855SOL     OW55461  10.736   3.925  10.556
17855SOL    HW155462  10.799   3.963  10.618
17855SOL    HW255463  10.655   3.973  10.572
17856SOL     OW55464   3.477  13.900   3.244
17856SOL    HW155465   3.502  13.811   3.268
17856SOL    HW255466   3.560  13.944   3.224
17857SOL     OW55467   1.850   3.400   0.368
17857SOL    HW155468   1.889   3.471   0.317
17857SOL    HW255469   1.771   3.437   0.405
17858SOL     OW55470   1.285   8.534  10.492
17858SOL    HW155471   1.316   8.448  10.520
17858SOL    HW255472   1.256   8.576  10.572
17859SOL     OW55473  14.548   2.260  13.649
17859SOL    HW155474  14.493   2.195  13.603
17859SOL    HW255475  14.500   2.279  13.729
17860SOL     OW55476   3.730  11.668   6.093
17860SOL    HW155477   3.734  11.573   6.107
17860SOL    HW255478   3.636  11.686   6.085
17861SOL     OW55479   7.786  10.512   5.661
17861SOL    HW155480   7.872  10.470   5.658
17861SOL    HW255481   7.755  10.498   5.751
17862SOL     OW55482   4.138   3.440  14.703
17862SOL    HW155483   4.138   3.524  14.658
17862SOL    HW255484   4.226   3.432  14.739
17863SOL     OW55485   5.743  13.379   0.790
17863SOL    HW155486   5.811  13.401   0.853
17863SOL    HW255487   5.745  13.283   0.784
17864SOL     OW55488   7.697  12.417  12.361
17864SOL    HW155489   7.657  12.333  12.340
17864SOL    HW255490   7.683  12.428  12.455
17865SOL     OW55491  13.717  12.926   6.474
17865SOL    HW155492  13.626  12.956   6.471
17865SOL    HW255493  13.767  13.001   6.441
17866SOL     OW55494   5.482   4.194   8.774
17866SOL    HW155495   5.445   4.197   8.685
17866SOL    HW255496   5.569   4.232   8.764
17867SOL     OW55497   8.801   5.912  14.387
17867SOL    HW155498   8.759   5.828  14.369
17867SOL    HW255499   8.859   5.895  14.461
17868SOL     OW55500  10.341   6.125  12.620
17868SOL    HW155501  10.356   6.197  12.558
17868SOL    HW255502  10.248   6.105  12.612
17869SOL     OW55503   5.304   5.775   5.715
17869SOL    HW155504   5.292   5.791   5.809
17869SOL    HW255505   5.266   5.688   5.701
17870SOL     OW55506   5.347   3.908   5.111
17870SOL    HW155507   5.384   3.988   5.149
17870SOL    HW255508   5.343   3.847   5.184
17871SOL     OW55509   7.845   8.332   9.024
17871SOL    HW155510   7.767   8.376   8.990
17871SOL    HW255511   7.873   8.274   8.953
17872SOL     OW55512   8.232  13.559   6.466
17872SOL    HW155513   8.287  13.606   6.403
17872SOL    HW255514   8.161  13.522   6.414
17873SOL     OW55515   8.776   6.026   7.732
17873SOL    HW155516   8.848   6.051   7.790
17873SOL    HW255517   8.702   6.079   7.760
17874SOL     OW55518   8.664  13.372  10.768
17874SOL    HW155519   8.683  13.465  10.759
17874SOL    HW255520   8.620  13.348  10.686
17875SOL     OW55521   8.050   9.571   4.444
17875SOL    HW155522   8.117   9.591   4.378
17875SOL    HW255523   7.970   9.558   4.393
17876SOL     OW55524   8.522   0.385   9.792
17876SOL    HW155525   8.489   0.350   9.875
17876SOL    HW255526   8.600   0.434   9.817
17877SOL     OW55527   7.064   9.569  11.487
17877SOL    HW155528   7.150   9.544  11.454
17877SOL    HW255529   7.072   9.560  11.582
17878SOL     OW55530   8.116   4.225  13.152
17878SOL    HW155531   8.122   4.308  13.198
17878SOL    HW255532   8.207   4.202  13.132
17879SOL     OW55533  10.245   0.010   6.454
17879SOL    HW155534  10.155   0.020   6.482
17879SOL    HW255535  10.297   0.034   6.530
17880SOL     OW55536   9.998   2.125   3.821
17880SOL    HW155537   9.980   2.166   3.906
17880SOL    HW255538   9.914   2.087   3.795
17881SOL     OW55539  14.213   8.809  14.477
17881SOL    HW155540  14.202   8.779  14.567
17881SOL    HW255541  14.282   8.753  14.441
17882SOL     OW55542   4.840   6.962  11.312
17882SOL    HW155543   4.788   6.974  11.392
17882SOL    HW255544   4.807   7.029  11.252
17883SOL     OW55545   8.910   0.570  11.998
17883SOL    HW155546   8.942   0.611  11.918
17883SOL    HW255547   8.978   0.589  12.063
17884SOL     OW55548  13.126   9.880  11.803
17884SOL    HW155549  13.211   9.916  11.778
17884SOL    HW255550  13.062   9.935  11.758
17885SOL     OW55551   5.056  12.602   0.433
17885SOL    HW155552   5.128  12.566   0.381
17885SOL    HW255553   4.984  12.541   0.419
17886SOL     OW55554  11.220   9.842  13.417
17886SOL    HW155555  11.232   9.934  13.395
17886SOL    HW255556  11.263   9.795  13.345
17887SOL     OW55557   2.818  10.635  14.248
17887SOL    HW155558   2.860  10.550  14.233
17887SOL    HW255559   2.725  10.614  14.252
17888SOL     OW55560   6.908   9.480   4.857
17888SOL    HW155561   6.977   9.514   4.915
17888SOL    HW255562   6.829   9.481   4.910
17889SOL     OW55563   9.726   6.138  12.380
17889SOL    HW155564   9.643   6.165  12.342
17889SOL    HW255565   9.792   6.177  12.322
17890SOL     OW55566   8.259   9.364  10.416
17890SOL    HW155567   8.290   9.455  10.418
17890SOL    HW255568   8.253   9.338  10.508
17891SOL     OW55569  10.157   2.851   5.007
17891SOL    HW155570  10.123   2.769   4.971
17891SOL    HW255571  10.081   2.892   5.049
17892SOL     OW55572  10.361   3.039   5.497
17892SOL    HW155573  10.345   3.132   5.483
17892SOL    HW255574  10.290   2.994   5.451
17893SOL     OW55575  10.337   0.087  12.421
17893SOL    HW155576  10.312   0.039  12.342
17893SOL    HW255577  10.425   0.119  12.402
17894SOL     OW55578   2.050   2.582   9.451
17894SOL    HW155579   2.023   2.633   9.375
17894SOL    HW255580   2.095   2.645   9.507
17895SOL     OW55581  11.624  11.895   0.975
17895SOL    HW155582  11.536  11.859   0.976
17895SOL    HW255583  11.613  11.988   0.955
17896SOL     OW55584   4.716   4.477  14.097
17896SOL    HW155585   4.653   4.550  14.098
17896SOL    HW255586   4.801   4.519  14.113
17897SOL     OW55587  14.379   3.075   2.207
17897SOL    HW155588  14.415   3.044   2.290
17897SOL    HW255589  14.446   3.132   2.171
17898SOL     OW55590   0.683  11.092   7.360
17898SOL    HW155591   0.634  11.016   7.392
17898SOL    HW255592   0.774  11.061   7.355
17899SOL     OW55593   1.464   0.716  11.004
17899SOL    HW155594   1.421   0.771  11.069
17899SOL    HW255595   1.401   0.709  10.933
17900SOL     OW55596   7.773   1.689   6.917
17900SOL    HW155597   7.736   1.669   6.830
17900SOL    HW255598   7.720   1.763   6.948
17901SOL     OW55599   4.869   8.933  14.450
17901SOL    HW155600   4.958   8.899  14.439
17901SOL    HW255601   4.843   8.961  14.362
17902SOL     OW55602   4.383   9.310  14.407
17902SOL    HW155603   4.344   9.299  14.493
17902SOL    HW255604   4.309   9.316  14.347
17903SOL     OW55605   7.326  10.415   3.230
17903SOL    HW155606   7.404  10.366   3.205
17903SOL    HW255607   7.310  10.389   3.321
17904SOL     OW55608   4.953   0.107   5.690
17904SOL    HW155609   5.045   0.083   5.675
17904SOL    HW255610   4.903   0.040   5.642
17905SOL     OW55611   7.528   1.221  10.659
17905SOL    HW155612   7.455   1.162  10.677
17905SOL    HW255613   7.600   1.164  10.634
17906SOL     OW55614   6.691   5.424  11.048
17906SOL    HW155615   6.620   5.412  11.112
17906SOL    HW255616   6.766   5.451  11.101
17907SOL     OW55617   6.850   2.751   3.154
17907SOL    HW155618   6.810   2.793   3.229
17907SOL    HW255619   6.888   2.822   3.103
17908SOL     OW55620   9.597  10.465   4.302
17908SOL    HW155621   9.624  10.469   4.394
17908SOL    HW255622   9.502  10.460   4.305
17909SOL     OW55623  13.932   2.468   3.012
17909SOL    HW155624  13.989   2.392   2.995
17909SOL    HW255625  13.883   2.479   2.930
17910SOL     OW55626   0.121  10.328   5.012
17910SOL    HW155627   0.150  10.258   4.954
17910SOL    HW255628   0.031  10.345   4.987
17911SOL     OW55629  10.026  12.977   9.562
17911SOL    HW155630  10.113  13.006   9.534
17911SOL    HW255631  10.043  12.928   9.643
17912SOL     OW55632   5.414  13.470  14.275
17912SOL    HW155633   5.459  13.499  14.354
17912SOL    HW255634   5.442  13.532  14.207
17913SOL     OW55635   1.796   5.612   5.157
17913SOL    HW155636   1.717   5.558   5.147
17913SOL    HW255637   1.866   5.550   5.174
17914SOL     OW55638   9.651   5.838   6.519
17914SOL    HW155639   9.651   5.805   6.609
17914SOL    HW255640   9.613   5.926   6.525
17915SOL     OW55641  10.156   7.073   7.576
17915SOL    HW155642  10.102   7.125   7.516
17915SOL    HW255643  10.210   7.019   7.518
17916SOL     OW55644  14.460   4.605  12.923
17916SOL    HW155645  14.519   4.677  12.900
17916SOL    HW255646  14.477   4.589  13.015
17917SOL     OW55647   8.863   0.602  10.739
17917SOL    HW155648   8.940   0.547  10.723
17917SOL    HW255649   8.879   0.680  10.687
17918SOL     OW55650  13.447   9.520   1.115
17918SOL    HW155651  13.484   9.539   1.202
17918SOL    HW255652  13.440   9.606   1.073
17919SOL     OW55653  12.455   4.262   3.940
17919SOL    HW155654  12.512   4.335   3.914
17919SOL    HW255655  12.487   4.187   3.890
17920SOL     OW55656   9.043   7.396   1.080
17920SOL    HW155657   9.133   7.422   1.100
17920SOL    HW255658   8.993   7.421   1.158
17921SOL     OW55659   9.165   6.030  13.431
17921SOL    HW155660   9.222   6.106  13.441
17921SOL    HW255661   9.222   5.955  13.447
17922SOL     OW55662  11.256   7.367   9.272
17922SOL    HW155663  11.195   7.441   9.272
17922SOL    HW255664  11.207   7.295   9.310
17923SOL     OW55665  12.212   8.364   0.691
17923SOL    HW155666  12.291   8.311   0.684
17923SOL    HW255667  12.156   8.333   0.620
17924SOL     OW55668   7.200   6.319  13.576
17924SOL    HW155669   7.264   6.307  13.506
17924SOL    HW255670   7.172   6.410  13.567
17925SOL     OW55671   4.258   4.590   8.350
17925SOL    HW155672   4.235   4.672   8.394
17925SOL    HW255673   4.305   4.539   8.416
17926SOL     OW55674   0.863   3.658  11.986
17926SOL    HW155675   0.945   3.666  11.938
17926SOL    HW255676   0.810   3.732  11.957
17927SOL     OW55677   8.073   9.902   1.042
17927SOL    HW155678   8.161   9.899   1.079
17927SOL    HW255679   8.016   9.899   1.119
17928SOL     OW55680   6.532   4.674   4.387
17928SOL    HW155681   6.479   4.752   4.403
17928SOL    HW255682   6.590   4.668   4.463
17929SOL     OW55683   8.038  12.912   5.831
17929SOL    HW155684   8.070  12.868   5.753
17929SOL    HW255685   8.069  12.859   5.904
17930SOL     OW55686   8.874   1.917   4.569
17930SOL    HW155687   8.870   1.860   4.492
17930SOL    HW255688   8.783   1.924   4.599
17931SOL     OW55689   9.151   1.248   5.267
17931SOL    HW155690   9.243   1.232   5.288
17931SOL    HW255691   9.115   1.160   5.255
17932SOL     OW55692   8.127   4.237   9.167
17932SOL    HW155693   8.148   4.147   9.142
17932SOL    HW255694   8.161   4.245   9.256
17933SOL     OW55695   2.891   0.976   6.570
17933SOL    HW155696   2.985   0.966   6.553
17933SOL    HW255697   2.860   0.887   6.586
17934SOL     OW55698   7.519   8.170   6.418
17934SOL    HW155699   7.612   8.154   6.398
17934SOL    HW255700   7.480   8.191   6.333
17935SOL     OW55701   8.556  12.371  11.305
17935SOL    HW155702   8.638  12.334  11.338
17935SOL    HW255703   8.524  12.307  11.242
17936SOL     OW55704   4.634  11.128  11.026
17936SOL    HW155705   4.619  11.162  10.938
17936SOL    HW255706   4.547  11.098  11.055
17937SOL     OW55707   4.931  11.240   9.421
17937SOL    HW155708   4.973  11.238   9.507
17937SOL    HW255709   4.950  11.153   9.384
17938SOL     OW55710  14.791   8.864   5.817
17938SOL    HW155711  14.749   8.781   5.792
17938SOL    HW255712  14.852   8.840   5.887
17939SOL     OW55713   6.468   4.385   1.404
17939SOL    HW155714   6.416   4.331   1.345
17939SOL    HW255715   6.482   4.331   1.481
17940SOL     OW55716  14.383  13.181   4.143
17940SOL    HW155717  14.396  13.191   4.048
17940SOL    HW255718  14.405  13.267   4.179
17941SOL     OW55719  11.384  10.399   6.731
17941SOL    HW155720  11.373  10.390   6.637
17941SOL    HW255721  11.473  10.366   6.748
17942SOL     OW55722   3.748   7.434   7.690
17942SOL    HW155723   3.673   7.455   7.635
17942SOL    HW255724   3.713   7.424   7.778
17943SOL     OW55725  10.751   4.872  11.608
17943SOL    HW155726  10.785   4.857  11.696
17943SOL    HW255727  10.715   4.787  11.582
17944SOL     OW55728   8.387  14.169   3.292
17944SOL    HW155729   8.327  14.211   3.231
17944SOL    HW255730   8.345  14.178   3.378
17945SOL     OW55731  12.097  11.532   6.834
17945SOL    HW155732  12.047  11.489   6.904
17945SOL    HW255733  12.164  11.583   6.881
17946SOL     OW55734  12.756   4.410   6.342
17946SOL    HW155735  12.772   4.361   6.423
17946SOL    HW255736  12.784   4.351   6.272
17947SOL     OW55737   3.835  12.888  14.535
17947SOL    HW155738   3.814  12.972  14.494
17947SOL    HW255739   3.913  12.906  14.587
17948SOL     OW55740   3.190   6.899   2.444
17948SOL    HW155741   3.248   6.951   2.499
17948SOL    HW255742   3.128   6.860   2.505
17949SOL     OW55743   9.551   9.896   9.259
17949SOL    HW155744   9.596   9.976   9.231
17949SOL    HW255745   9.618   9.848   9.308
17950SOL     OW55746   3.327  11.594   4.777
17950SOL    HW155747   3.246  11.600   4.828
17950SOL    HW255748   3.303  11.621   4.689
17951SOL     OW55749  10.360   1.634   2.369
17951SOL    HW155750  10.393   1.544   2.367
17951SOL    HW255751  10.438   1.689   2.376
17952SOL     OW55752   0.888   7.965   4.140
17952SOL    HW155753   0.930   7.898   4.085
17952SOL    HW255754   0.878   8.041   4.081
17953SOL     OW55755   8.143   6.625   1.737
17953SOL    HW155756   8.203   6.609   1.809
17953SOL    HW255757   8.111   6.538   1.713
17954SOL     OW55758  12.586   8.617  10.538
17954SOL    HW155759  12.594   8.665  10.455
17954SOL    HW255760  12.510   8.560  10.525
17955SOL     OW55761  14.534   4.590  10.213
17955SOL    HW155762  14.479   4.584  10.136
17955SOL    HW255763  14.614   4.633  10.182
17956SOL     OW55764   6.303  10.444  10.614
17956SOL    HW155765   6.264  10.502  10.679
17956SOL    HW255766   6.397  10.447  10.632
17957SOL     OW55767   3.821  11.073   8.528
17957SOL    HW155768   3.757  11.073   8.456
17957SOL    HW255769   3.844  11.165   8.539
17958SOL     OW55770   6.997   5.161   6.797
17958SOL    HW155771   7.042   5.161   6.881
17958SOL    HW255772   7.041   5.093   6.746
17959SOL     OW55773  14.365   4.094   0.037
17959SOL    HW155774  14.280   4.071   0.074
17959SOL    HW255775  14.427   4.039   0.084
17960SOL     OW55776  14.336   2.639   4.675
17960SOL    HW155777  14.329   2.608   4.585
17960SOL    HW255778  14.281   2.578   4.725
17961SOL     OW55779   7.688  11.288  12.461
17961SOL    HW155780   7.693  11.193  12.452
17961SOL    HW255781   7.713  11.322  12.375
17962SOL     OW55782   6.269   8.526  13.130
17962SOL    HW155783   6.351   8.477  13.128
17962SOL    HW255784   6.260   8.563  13.042
17963SOL     OW55785   6.676   9.885   1.674
17963SOL    HW155786   6.754   9.865   1.622
17963SOL    HW255787   6.606   9.834   1.633
17964SOL     OW55788   4.980  10.304  14.153
17964SOL    HW155789   5.062  10.259  14.132
17964SOL    HW255790   4.935  10.313  14.068
17965SOL     OW55791  10.477   8.841   2.404
17965SOL    HW155792  10.461   8.794   2.485
17965SOL    HW255793  10.571   8.858   2.405
17966SOL     OW55794  13.154   4.796  10.693
17966SOL    HW155795  13.136   4.874  10.641
17966SOL    HW255796  13.160   4.828  10.783
17967SOL     OW55797  11.620   3.871   0.401
17967SOL    HW155798  11.685   3.936   0.375
17967SOL    HW255799  11.652   3.789   0.363
17968SOL     OW55800  11.452  13.232   9.131
17968SOL    HW155801  11.545  13.255   9.127
17968SOL    HW255802  11.435  13.217   9.224
17969SOL     OW55803   3.698   2.052  10.308
17969SOL    HW155804   3.645   2.121  10.349
17969SOL    HW255805   3.646   2.024  10.233
17970SOL     OW55806   5.830   6.290   5.315
17970SOL    HW155807   5.851   6.224   5.381
17970SOL    HW255808   5.889   6.363   5.333
17971SOL     OW55809   8.818  11.498  10.077
17971SOL    HW155810   8.849  11.527   9.991
17971SOL    HW255811   8.726  11.475  10.064
17972SOL     OW55812   2.999   1.054  12.874
17972SOL    HW155813   2.948   1.041  12.953
17972SOL    HW255814   3.024   1.146  12.876
17973SOL     OW55815  14.307   0.348   0.521
17973SOL    HW155816  14.329   0.283   0.453
17973SOL    HW255817  14.220   0.379   0.497
17974SOL     OW55818   0.990  12.546  14.271
17974SOL    HW155819   0.900  12.515  14.280
17974SOL    HW255820   0.983  12.627  14.220
17975SOL     OW55821   2.989  11.136  11.780
17975SOL    HW155822   2.974  11.085  11.860
17975SOL    HW255823   3.078  11.114  11.753
17976SOL     OW55824   8.574   6.913   2.131
17976SOL    HW155825   8.557   7.008   2.132
17976SOL    HW255826   8.506   6.877   2.188
17977SOL     OW55827   4.817   6.400  10.186
17977SOL    HW155828   4.760   6.471  10.216
17977SOL    HW255829   4.903   6.421  10.221
17978SOL     OW55830   1.390   1.947   2.980
17978SOL    HW155831   1.425   1.871   3.025
17978SOL    HW255832   1.446   2.020   3.009
17979SOL     OW55833   6.512   6.885   0.236
17979SOL    HW155834   6.478   6.930   0.158
17979SOL    HW255835   6.435   6.847   0.277
17980SOL     OW55836   1.330   5.985   2.743
17980SOL    HW155837   1.381   5.955   2.668
17980SOL    HW255838   1.390   5.978   2.817
17981SOL     OW55839  10.222   2.121   4.645
17981SOL    HW155840  10.195   2.204   4.606
17981SOL    HW255841  10.205   2.131   4.738
17982SOL     OW55842   4.595   6.167   4.705
17982SOL    HW155843   4.690   6.165   4.699
17982SOL    HW255844   4.567   6.083   4.667
17983SOL     OW55845  13.713   2.113  13.819
17983SOL    HW155846  13.747   2.123  13.729
17983SOL    HW255847  13.736   2.024  13.844
17984SOL     OW55848   8.344  11.222   9.915
17984SOL    HW155849   8.304  11.135   9.916
17984SOL    HW255850   8.341  11.249   9.823
17985SOL     OW55851   3.030   2.664   9.773
17985SOL    HW155852   3.031   2.580   9.726
17985SOL    HW255853   3.025   2.730   9.704
17986SOL     OW55854   9.168   6.259   8.996
17986SOL    HW155855   9.102   6.233   8.932
17986SOL    HW255856   9.225   6.182   9.004
17987SOL     OW55857  13.140   7.297   1.419
17987SOL    HW155858  13.195   7.243   1.362
17987SOL    HW255859  13.062   7.244   1.434
17988SOL     OW55860  12.320   0.011   3.273
17988SOL    HW155861  12.396   0.025   3.216
17988SOL    HW255862  12.335  14.798   3.312
17989SOL     OW55863   3.840   3.815   2.395
17989SOL    HW155864   3.838   3.885   2.461
17989SOL    HW255865   3.932   3.805   2.372
17990SOL     OW55866   9.267  10.163  11.885
17990SOL    HW155867   9.243  10.076  11.853
17990SOL    HW255868   9.352  10.181  11.844
17991SOL     OW55869   5.194  13.582   6.900
17991SOL    HW155870   5.252  13.546   6.967
17991SOL    HW255871   5.244  13.575   6.819
17992SOL     OW55872   2.542   6.749   6.442
17992SOL    HW155873   2.622   6.798   6.424
17992SOL    HW255874   2.556   6.711   6.529
17993SOL     OW55875  12.697  12.089   6.913
17993SOL    HW155876  12.746  12.156   6.866
17993SOL    HW255877  12.658  12.035   6.845
17994SOL     OW55878   8.764   3.200   5.517
17994SOL    HW155879   8.721   3.285   5.519
17994SOL    HW255880   8.752   3.164   5.605
17995SOL     OW55881  13.649  11.761   6.413
17995SOL    HW155882  13.587  11.819   6.368
17995SOL    HW255883  13.604  11.736   6.493
17996SOL     OW55884   2.976  14.141  13.313
17996SOL    HW155885   2.919  14.206  13.272
17996SOL    HW255886   2.930  14.118  13.394
17997SOL     OW55887   6.262   2.209   2.206
17997SOL    HW155888   6.265   2.119   2.236
17997SOL    HW255889   6.352   2.230   2.182
17998SOL     OW55890   9.490   7.870   2.804
17998SOL    HW155891   9.455   7.954   2.834
17998SOL    HW255892   9.452   7.806   2.864
17999SOL     OW55893  11.540   7.411   5.146
17999SOL    HW155894  11.462   7.356   5.143
17999SOL    HW255895  11.567   7.410   5.237
18000SOL     OW55896  12.326  10.660   7.734
18000SOL    HW155897  12.412  10.659   7.692
18000SOL    HW255898  12.345  10.653   7.828
18001SOL     OW55899   6.312  14.605   4.047
18001SOL    HW155900   6.278  14.691   4.070
18001SOL    HW255901   6.407  14.616   4.047
18002SOL     OW55902  11.198   5.150   2.657
18002SOL    HW155903  11.227   5.069   2.700
18002SOL    HW255904  11.133   5.186   2.717
18003SOL     OW55905  14.078   6.680  10.946
18003SOL    HW155906  14.031   6.753  10.905
18003SOL    HW255907  14.101   6.623  10.872
18004SOL     OW55908   5.780   7.947   0.534
18004SOL    HW155909   5.695   7.939   0.491
18004SOL    HW255910   5.760   7.939   0.628
18005SOL     OW55911   9.404   6.669   4.221
18005SOL    HW155912   9.435   6.732   4.157
18005SOL    HW255913   9.309   6.668   4.210
18006SOL     OW55914  11.420   0.457   3.988
18006SOL    HW155915  11.418   0.551   4.007
18006SOL    HW255916  11.328   0.431   3.982
18007SOL     OW55917   9.944   6.728  10.692
18007SOL    HW155918   9.964   6.794  10.759
18007SOL    HW255919   9.939   6.646  10.741
18008SOL     OW55920  14.053  13.058  12.597
18008SOL    HW155921  14.054  13.115  12.674
18008SOL    HW255922  13.963  13.027  12.591
18009SOL     OW55923   3.485   6.636   0.350
18009SOL    HW155924   3.438   6.567   0.397
18009SOL    HW255925   3.417   6.682   0.301
18010SOL     OW55926   5.300   4.074   0.298
18010SOL    HW155927   5.354   4.084   0.220
18010SOL    HW255928   5.272   3.983   0.297
18011SOL     OW55929   6.251   1.722  13.644
18011SOL    HW155930   6.216   1.734  13.732
18011SOL    HW255931   6.307   1.798  13.630
18012SOL     OW55932   4.530   2.106  11.862
18012SOL    HW155933   4.579   2.186  11.881
18012SOL    HW255934   4.580   2.036  11.903
18013SOL     OW55935  11.070   5.975   5.445
18013SOL    HW155936  11.039   5.965   5.355
18013SOL    HW255937  11.140   5.911   5.454
18014SOL     OW55938   5.669   3.515  11.595
18014SOL    HW155939   5.700   3.570  11.667
18014SOL    HW255940   5.749   3.484  11.553
18015SOL     OW55941   7.518   2.305   5.481
18015SOL    HW155942   7.594   2.282   5.535
18015SOL    HW255943   7.514   2.236   5.414
18016SOL     OW55944   1.278  10.150  13.992
18016SOL    HW155945   1.337  10.105  14.051
18016SOL    HW255946   1.331  10.219  13.952
18017SOL     OW55947   5.819  14.374  13.943
18017SOL    HW155948   5.751  14.394  13.878
18017SOL    HW255949   5.892  14.340  13.892
18018SOL     OW55950  11.368   4.627   5.855
18018SOL    HW155951  11.286   4.639   5.903
18018SOL    HW255952  11.437   4.640   5.920
18019SOL     OW55953   6.211  10.246  14.124
18019SOL    HW155954   6.150  10.236  14.051
18019SOL    HW255955   6.275  10.176  14.112
18020SOL     OW55956   9.952   9.364   6.488
18020SOL    HW155957   9.924   9.280   6.525
18020SOL    HW255958  10.018   9.341   6.423
18021SOL     OW55959  10.794  14.168   5.672
18021SOL    HW155960  10.735  14.178   5.747
18021SOL    HW255961  10.736  14.153   5.597
18022SOL     OW55962   4.492   2.923   9.634
18022SOL    HW155963   4.497   2.852   9.571
18022SOL    HW255964   4.403   2.919   9.670
18023SOL     OW55965   5.684   2.854   5.457
18023SOL    HW155966   5.773   2.861   5.491
18023SOL    HW255967   5.693   2.812   5.372
18024SOL     OW55968  12.496  13.964  14.664
18024SOL    HW155969  12.555  14.039  14.668
18024SOL    HW255970  12.545  13.892  14.704
18025SOL     OW55971  11.761   5.151  10.586
18025SOL    HW155972  11.746   5.068  10.541
18025SOL    HW255973  11.846   5.181  10.552
18026SOL     OW55974   4.791  13.047   9.733
18026SOL    HW155975   4.875  13.015   9.701
18026SOL    HW255976   4.813  13.106   9.805
18027SOL     OW55977   8.471   6.801   0.575
18027SOL    HW155978   8.500   6.802   0.666
18027SOL    HW255979   8.399   6.863   0.571
18028SOL     OW55980   6.896   0.999  12.555
18028SOL    HW155981   6.912   0.907  12.534
18028SOL    HW255982   6.982   1.040  12.551
18029SOL     OW55983  10.130  11.552   0.227
18029SOL    HW155984  10.100  11.642   0.216
18029SOL    HW255985  10.207  11.559   0.283
18030SOL     OW55986   1.446   8.479   6.902
18030SOL    HW155987   1.528   8.520   6.876
18030SOL    HW255988   1.457   8.387   6.879
18031SOL     OW55989   7.103   4.853   2.357
18031SOL    HW155990   7.145   4.840   2.272
18031SOL    HW255991   7.150   4.927   2.396
18032SOL     OW55992   0.985   6.543   0.738
18032SOL    HW155993   0.980   6.638   0.753
18032SOL    HW255994   1.036   6.510   0.812
18033SOL     OW55995  12.348   6.588  14.593
18033SOL    HW155996  12.422   6.645  14.613
18033SOL    HW255997  12.314   6.561  14.678
18034SOL     OW55998   5.280  11.338   4.510
18034SOL    HW155999   5.251  11.282   4.438
18034SOL    HW256000   5.245  11.297   4.589
18035SOL     OW56001   6.274   8.343  11.116
18035SOL    HW156002   6.292   8.291  11.038
18035SOL    HW256003   6.337   8.414  11.113
18036SOL     OW56004  13.788  10.783  10.484
18036SOL    HW156005  13.872  10.738  10.472
18036SOL    HW256006  13.756  10.752  10.568
18037SOL     OW56007  10.252  10.479  11.234
18037SOL    HW156008  10.322  10.461  11.297
18037SOL    HW256009  10.171  10.474  11.285
18038SOL     OW56010  14.110  10.766  13.370
18038SOL    HW156011  14.057  10.706  13.317
18038SOL    HW256012  14.147  10.710  13.438
18039SOL     OW56013   9.536   2.658  14.514
18039SOL    HW156014   9.625   2.637  14.486
18039SOL    HW256015   9.496   2.701  14.438
18040SOL     OW56016  13.056  10.953   7.308
18040SOL    HW156017  13.145  10.922   7.325
18040SOL    HW256018  13.030  10.908   7.227
18041SOL     OW56019  12.063   7.836   4.845
18041SOL    HW156020  12.124   7.763   4.837
18041SOL    HW256021  12.112   7.903   4.892
18042SOL     OW56022   5.317   9.415  11.855
18042SOL    HW156023   5.403   9.389  11.824
18042SOL    HW256024   5.274   9.456  11.780
18043SOL     OW56025   2.677   3.522  14.217
18043SOL    HW156026   2.677   3.608  14.259
18043SOL    HW256027   2.770   3.501  14.206
18044SOL     OW56028   7.044   4.419   5.478
18044SOL    HW156029   6.951   4.429   5.457
18044SOL    HW256030   7.085   4.405   5.393
18045SOL     OW56031   9.168  14.268   6.984
18045SOL    HW156032   9.139  14.358   7.000
18045SOL    HW256033   9.192  14.268   6.891
18046SOL     OW56034  11.007  11.595   5.100
18046SOL    HW156035  10.950  11.530   5.142
18046SOL    HW256036  11.092  11.552   5.095
18047SOL     OW56037   1.865   3.463   3.838
18047SOL    HW156038   1.812   3.467   3.759
18047SOL    HW256039   1.956   3.460   3.806
18048SOL     OW56040   9.335   4.785   3.122
18048SOL    HW156041   9.332   4.741   3.206
18048SOL    HW256042   9.331   4.878   3.144
18049SOL     OW56043   7.036  13.920   8.635
18049SOL    HW156044   7.091  13.842   8.636
18049SOL    HW256045   6.946  13.886   8.636
18050SOL     OW56046   1.876  13.491  12.732
18050SOL    HW156047   1.923  13.566  12.769
18050SOL    HW256048   1.820  13.461  12.804
18051SOL     OW56049  12.716  10.185   3.901
18051SOL    HW156050  12.664  10.116   3.860
18051SOL    HW256051  12.732  10.153   3.990
18052SOL     OW56052   8.192   8.214   0.954
18052SOL    HW156053   8.205   8.230   0.860
18052SOL    HW256054   8.139   8.135   0.957
18053SOL     OW56055   1.621  12.139   7.483
18053SOL    HW156056   1.618  12.228   7.448
18053SOL    HW256057   1.578  12.085   7.417
18054SOL     OW56058   5.059  11.814  11.193
18054SOL    HW156059   5.154  11.826  11.190
18054SOL    HW256060   5.033  11.809  11.101
18055SOL     OW56061   5.021   4.194   3.982
18055SOL    HW156062   4.983   4.220   4.066
18055SOL    HW256063   5.067   4.271   3.950
18056SOL     OW56064  13.523   6.714   3.843
18056SOL    HW156065  13.554   6.718   3.753
18056SOL    HW256066  13.602   6.717   3.897
18057SOL     OW56067  10.194   2.483   6.694
18057SOL    HW156068  10.126   2.495   6.627
18057SOL    HW256069  10.269   2.533   6.662
18058SOL     OW56070   8.402  13.470   2.296
18058SOL    HW156071   8.383  13.433   2.382
18058SOL    HW256072   8.344  13.422   2.236
18059SOL     OW56073   9.875   6.604   9.057
18059SOL    HW156074   9.834   6.658   8.989
18059SOL    HW256075   9.838   6.638   9.139
18060SOL     OW56076   5.826   0.834  10.510
18060SOL    HW156077   5.734   0.808  10.499
18060SOL    HW256078   5.872   0.791  10.438
18061SOL     OW56079  10.861   0.035   9.426
18061SOL    HW156080  10.895   0.115   9.387
18061SOL    HW256081  10.826  14.857   9.352
18062SOL     OW56082   4.048  10.935  12.938
18062SOL    HW156083   4.003  10.921  13.021
18062SOL    HW256084   4.125  10.878  12.942
18063SOL     OW56085  13.868  11.587  10.835
18063SOL    HW156086  13.896  11.576  10.744
18063SOL    HW256087  13.904  11.672  10.861
18064SOL     OW56088  13.297   8.014   2.873
18064SOL    HW156089  13.310   7.969   2.957
18064SOL    HW256090  13.302   8.107   2.896
18065SOL     OW56091   5.132   5.616  11.840
18065SOL    HW156092   5.088   5.556  11.901
18065SOL    HW256093   5.205   5.566  11.805
18066SOL     OW56094   6.571   9.155   9.547
18066SOL    HW156095   6.609   9.199   9.623
18066SOL    HW256096   6.480   9.137   9.572
18067SOL     OW56097   9.244   4.884   4.137
18067SOL    HW156098   9.191   4.841   4.070
18067SOL    HW256099   9.324   4.912   4.091
18068SOL     OW56100  13.450  10.551   3.134
18068SOL    HW156101  13.492  10.637   3.143
18068SOL    HW256102  13.356  10.571   3.132
18069SOL     OW56103   0.832  12.225  12.246
18069SOL    HW156104   0.744  12.190  12.252
18069SOL    HW256105   0.820  12.320  12.241
18070SOL     OW56106   0.373  10.814   1.854
18070SOL    HW156107   0.423  10.880   1.902
18070SOL    HW256108   0.364  10.741   1.916
18071SOL     OW56109   9.375   0.222   3.989
18071SOL    HW156110   9.347   0.306   4.025
18071SOL    HW256111   9.399   0.243   3.898
18072SOL     OW56112  14.063   2.756  12.780
18072SOL    HW156113  14.077   2.702  12.702
18072SOL    HW256114  14.005   2.826  12.750
18073SOL     OW56115   6.273  13.975   1.514
18073SOL    HW156116   6.254  13.930   1.432
18073SOL    HW256117   6.264  13.908   1.582
18074SOL     OW56118   3.836  11.165  14.705
18074SOL    HW156119   3.931  11.174  14.701
18074SOL    HW256120   3.821  11.092  14.765
18075SOL     OW56121   7.811  12.356   9.595
18075SOL    HW156122   7.868  12.414   9.546
18075SOL    HW256123   7.870  12.311   9.656
18076SOL     OW56124  13.631  13.347  10.555
18076SOL    HW156125  13.572  13.397  10.498
18076SOL    HW256126  13.617  13.256  10.530
18077SOL     OW56127   0.095   0.132   3.889
18077SOL    HW156128   0.047   0.139   3.806
18077SOL    HW256129   0.054   0.195   3.947
18078SOL     OW56130  12.612   7.236  12.150
18078SOL    HW156131  12.522   7.229  12.117
18078SOL    HW256132  12.611   7.184  12.230
18079SOL     OW56133   3.012   1.134   3.674
18079SOL    HW156134   2.934   1.100   3.718
18079SOL    HW256135   2.978   1.171   3.592
18080SOL     OW56136   3.297   8.582   4.920
18080SOL    HW156137   3.363   8.544   4.861
18080SOL    HW256138   3.217   8.582   4.869
18081SOL     OW56139  13.645  12.169   3.353
18081SOL    HW156140  13.717  12.221   3.387
18081SOL    HW256141  13.637  12.096   3.416
18082SOL     OW56142  14.656  11.430  11.219
18082SOL    HW156143  14.639  11.336  11.219
18082SOL    HW256144  14.613  11.463  11.297
18083SOL     OW56145  11.833   0.968   8.906
18083SOL    HW156146  11.886   1.042   8.875
18083SOL    HW256147  11.897   0.906   8.940
18084SOL     OW56148  10.768   2.552   9.531
18084SOL    HW156149  10.854   2.568   9.492
18084SOL    HW256150  10.785   2.542   9.624
18085SOL     OW56151   3.543  10.397   4.079
18085SOL    HW156152   3.476  10.450   4.123
18085SOL    HW256153   3.521  10.403   3.986
18086SOL     OW56154   7.026  12.286   6.999
18086SOL    HW156155   6.989  12.368   7.030
18086SOL    HW256156   6.961  12.254   6.936
18087SOL     OW56157   2.352   7.220   1.678
18087SOL    HW156158   2.336   7.126   1.690
18087SOL    HW256159   2.447   7.229   1.685
18088SOL     OW56160  10.748   9.476   0.508
18088SOL    HW156161  10.747   9.482   0.412
18088SOL    HW256162  10.800   9.398   0.527
18089SOL     OW56163  12.079  10.565  11.769
18089SOL    HW156164  12.149  10.570  11.704
18089SOL    HW256165  12.008  10.518  11.725
18090SOL     OW56166   9.697   5.891  11.290
18090SOL    HW156167   9.613   5.865  11.329
18090SOL    HW256168   9.689   5.868  11.197
18091SOL     OW56169   4.055  13.159   7.501
18091SOL    HW156170   4.059  13.151   7.405
18091SOL    HW256171   4.016  13.245   7.516
18092SOL     OW56172  14.727  11.020  14.658
18092SOL    HW156173  14.801  10.996  14.713
18092SOL    HW256174  14.765  11.070  14.586
18093SOL     OW56175   0.761   8.025   0.875
18093SOL    HW156176   0.777   8.041   0.782
18093SOL    HW256177   0.795   7.937   0.891
18094SOL     OW56178   5.120   1.967   4.117
18094SOL    HW156179   5.204   1.962   4.071
18094SOL    HW256180   5.139   1.936   4.206
18095SOL     OW56181   1.228  13.901   9.100
18095SOL    HW156182   1.288  13.830   9.076
18095SOL    HW256183   1.282  13.980   9.099
18096SOL     OW56184   7.931  10.826   6.968
18096SOL    HW156185   8.009  10.774   6.987
18096SOL    HW256186   7.957  10.917   6.982
18097SOL     OW56187   0.081   5.454   0.943
18097SOL    HW156188   0.115   5.489   1.025
18097SOL    HW256189  14.864   5.487   0.938
18098SOL     OW56190  10.835   6.305   9.871
18098SOL    HW156191  10.796   6.231   9.918
18098SOL    HW256192  10.889   6.264   9.803
18099SOL     OW56193   0.875  11.463   0.487
18099SOL    HW156194   0.958  11.450   0.534
18099SOL    HW256195   0.860  11.381   0.440
18100SOL     OW56196   5.986   6.441   7.716
18100SOL    HW156197   5.915   6.430   7.780
18100SOL    HW256198   6.003   6.535   7.714
18101SOL     OW56199   1.787   2.774   8.846
18101SOL    HW156200   1.760   2.797   8.757
18101SOL    HW256201   1.805   2.680   8.842
18102SOL     OW56202  11.304   4.400   0.793
18102SOL    HW156203  11.222   4.360   0.764
18102SOL    HW256204  11.365   4.326   0.802
18103SOL     OW56205   3.932   3.277   8.537
18103SOL    HW156206   3.840   3.256   8.517
18103SOL    HW256207   3.950   3.354   8.483
18104SOL     OW56208   8.843   9.136   1.388
18104SOL    HW156209   8.907   9.116   1.457
18104SOL    HW256210   8.878   9.215   1.346
18105SOL     OW56211   4.099   3.377  11.518
18105SOL    HW156212   4.138   3.444  11.462
18105SOL    HW256213   4.012   3.363  11.482
18106SOL     OW56214   1.601  12.390   3.037
18106SOL    HW156215   1.686  12.409   2.998
18106SOL    HW256216   1.614  12.403   3.131
18107SOL     OW56217   3.834   1.020  11.034
18107SOL    HW156218   3.804   1.020  11.125
18107SOL    HW256219   3.839   0.928  11.011
18108SOL     OW56220   6.008   5.083   8.344
18108SOL    HW156221   5.916   5.083   8.371
18108SOL    HW256222   6.011   5.022   8.270
18109SOL     OW56223   8.564  13.711  11.322
18109SOL    HW156224   8.518  13.712  11.238
18109SOL    HW256225   8.532  13.633  11.367
18110SOL     OW56226  10.340   3.941   5.411
18110SOL    HW156227  10.315   4.033   5.421
18110SOL    HW256228  10.336   3.906   5.499
18111SOL     OW56229  10.372  11.302   6.131
18111SOL    HW156230  10.335  11.278   6.216
18111SOL    HW256231  10.380  11.397   6.135
18112SOL     OW56232   2.198   0.571  10.924
18112SOL    HW156233   2.287   0.536  10.924
18112SOL    HW256234   2.144   0.502  10.961
18113SOL     OW56235   1.772  13.261   2.913
18113SOL    HW156236   1.814  13.340   2.947
18113SOL    HW256237   1.809  13.251   2.825
18114SOL     OW56238   6.098   3.229   6.720
18114SOL    HW156239   6.058   3.145   6.741
18114SOL    HW256240   6.178   3.231   6.772
18115SOL     OW56241   8.693   4.787   7.094
18115SOL    HW156242   8.717   4.837   7.172
18115SOL    HW256243   8.614   4.740   7.119
18116SOL     OW56244   6.301  13.238   2.222
18116SOL    HW156245   6.225  13.190   2.254
18116SOL    HW256246   6.268  13.326   2.205
18117SOL     OW56247   8.161  10.793  11.548
18117SOL    HW156248   8.150  10.747  11.631
18117SOL    HW256249   8.248  10.767  11.517
18118SOL     OW56250   1.712   7.215   5.062
18118SOL    HW156251   1.754   7.166   5.133
18118SOL    HW256252   1.773   7.286   5.043
18119SOL     OW56253  10.772   7.187  14.058
18119SOL    HW156254  10.714   7.132  14.110
18119SOL    HW256255  10.728   7.198  13.974
18120SOL     OW56256   3.289   5.365   5.847
18120SOL    HW156257   3.255   5.344   5.934
18120SOL    HW256258   3.380   5.389   5.862
18121SOL     OW56259   1.144   3.608  14.621
18121SOL    HW156260   1.063   3.562  14.599
18121SOL    HW256261   1.152   3.676  14.555
18122SOL     OW56262   3.054   1.769  12.603
18122SOL    HW156263   3.133   1.769  12.550
18122SOL    HW256264   2.982   1.762  12.540
18123SOL     OW56265  10.349   6.528  14.007
18123SOL    HW156266  10.398   6.447  14.019
18123SOL    HW256267  10.259   6.500  13.990
18124SOL     OW56268  12.089  13.994   6.082
18124SOL    HW156269  12.082  14.033   5.994
18124SOL    HW256270  11.999  13.994   6.115
18125SOL     OW56271  10.556  13.848  12.775
18125SOL    HW156272  10.626  13.794  12.739
18125SOL    HW256273  10.598  13.932  12.793
18126SOL     OW56274   8.903  14.464   4.241
18126SOL    HW156275   8.818  14.465   4.197
18126SOL    HW256276   8.882  14.467   4.335
18127SOL     OW56277   3.625   8.802  10.082
18127SOL    HW156278   3.690   8.810  10.152
18127SOL    HW256279   3.616   8.708  10.068
18128SOL     OW56280  13.134   6.434  14.034
18128SOL    HW156281  13.191   6.425  13.958
18128SOL    HW256282  13.163   6.365  14.095
18129SOL     OW56283   5.832   2.498  13.418
18129SOL    HW156284   5.771   2.569  13.403
18129SOL    HW256285   5.777   2.424  13.444
18130SOL     OW56286  11.448  13.351   0.175
18130SOL    HW156287  11.448  13.274   0.231
18130SOL    HW256288  11.355  13.374   0.167
18131SOL     OW56289   0.802   7.068  13.044
18131SOL    HW156290   0.836   7.142  12.994
18131SOL    HW256291   0.880   7.023  13.076
18132SOL     OW56292  13.788  13.191  12.959
18132SOL    HW156293  13.707  13.229  12.924
18132SOL    HW256294  13.803  13.113  12.905
18133SOL     OW56295   1.298  11.504   9.821
18133SOL    HW156296   1.392  11.521   9.814
18133SOL    HW256297   1.285  11.424   9.770
18134SOL     OW56298   2.408  14.177   5.185
18134SOL    HW156299   2.502  14.158   5.189
18134SOL    HW256300   2.375  14.156   5.272
18135SOL     OW56301   1.082   3.941  11.911
18135SOL    HW156302   1.097   3.846  11.913
18135SOL    HW256303   1.097   3.965  11.819
18136SOL     OW56304  13.203   4.976   7.744
18136SOL    HW156305  13.242   4.902   7.790
18136SOL    HW256306  13.183   4.942   7.657
18137SOL     OW56307   1.360   8.351   2.788
18137SOL    HW156308   1.304   8.413   2.740
18137SOL    HW256309   1.323   8.349   2.876
18138SOL     OW56310   4.703  14.410   6.085
18138SOL    HW156311   4.655  14.328   6.098
18138SOL    HW256312   4.793  14.390   6.110
18139SOL     OW56313  11.439   7.794   0.309
18139SOL    HW156314  11.461   7.822   0.221
18139SOL    HW256315  11.344   7.803   0.314
18140SOL     OW56316   9.365   9.482  11.400
18140SOL    HW156317   9.333   9.472  11.311
18140SOL    HW256318   9.369   9.393  11.435
18141SOL     OW56319  13.154   2.821   1.725
18141SOL    HW156320  13.059   2.829   1.728
18141SOL    HW256321  13.185   2.906   1.693
18142SOL     OW56322   5.619   0.509   0.702
18142SOL    HW156323   5.548   0.566   0.732
18142SOL    HW256324   5.617   0.434   0.761
18143SOL     OW56325  11.482   1.641   0.984
18143SOL    HW156326  11.423   1.642   0.908
18143SOL    HW256327  11.429   1.673   1.056
18144SOL     OW56328   2.058  10.866   6.032
18144SOL    HW156329   2.015  10.868   6.118
18144SOL    HW256330   2.075  10.958   6.012
18145SOL     OW56331  12.669  12.393   7.473
18145SOL    HW156332  12.582  12.429   7.455
18145SOL    HW256333  12.691  12.343   7.394
18146SOL     OW56334   8.248   3.941   6.136
18146SOL    HW156335   8.291   3.886   6.071
18146SOL    HW256336   8.207   3.879   6.197
18147SOL     OW56337  12.856   6.401   6.925
18147SOL    HW156338  12.784   6.346   6.956
18147SOL    HW256339  12.887   6.445   7.004
18148SOL     OW56340   4.124  14.455   1.550
18148SOL    HW156341   4.215  14.484   1.537
18148SOL    HW256342   4.071  14.532   1.530
18149SOL     OW56343   6.955   1.401  13.539
18149SOL    HW156344   6.892   1.405  13.611
18149SOL    HW256345   7.027   1.347  13.572
18150SOL     OW56346   7.611   5.780   0.671
18150SOL    HW156347   7.589   5.829   0.750
18150SOL    HW256348   7.557   5.821   0.603
18151SOL     OW56349  12.885   5.594   0.237
18151SOL    HW156350  12.946   5.627   0.172
18151SOL    HW256351  12.886   5.659   0.307
18152SOL     OW56352  11.650   3.740   7.434
18152SOL    HW156353  11.660   3.646   7.420
18152SOL    HW256354  11.612   3.748   7.521
18153SOL     OW56355   6.379  12.159   4.168
18153SOL    HW156356   6.388  12.241   4.119
18153SOL    HW256357   6.351  12.095   4.102
18154SOL     OW56358   7.688   0.658   8.710
18154SOL    HW156359   7.691   0.638   8.617
18154SOL    HW256360   7.620   0.724   8.718
18155SOL     OW56361  14.280   3.817   2.550
18155SOL    HW156362  14.350   3.760   2.583
18155SOL    HW256363  14.251   3.776   2.469
18156SOL     OW56364   9.061  11.656   8.472
18156SOL    HW156365   8.990  11.706   8.513
18156SOL    HW256366   9.050  11.567   8.506
18157SOL     OW56367   6.459   1.490   2.666
18157SOL    HW156368   6.440   1.578   2.699
18157SOL    HW256369   6.431   1.431   2.736
18158SOL     OW56370  14.298  10.207   7.192
18158SOL    HW156371  14.340  10.164   7.117
18158SOL    HW256372  14.300  10.300   7.170
18159SOL     OW56373   3.840   6.833  12.366
18159SOL    HW156374   3.889   6.753  12.344
18159SOL    HW256375   3.904   6.886  12.414
18160SOL     OW56376   3.776   1.140   3.464
18160SOL    HW156377   3.850   1.188   3.427
18160SOL    HW256378   3.718   1.208   3.498
18161SOL     OW56379   6.005   1.372   2.562
18161SOL    HW156380   6.003   1.353   2.656
18161SOL    HW256381   6.062   1.449   2.554
18162SOL     OW56382  12.368   9.714  11.267
18162SOL    HW156383  12.310   9.709  11.192
18162SOL    HW256384  12.449   9.752  11.232
18163SOL     OW56385   3.904   5.664   2.999
18163SOL    HW156386   3.971   5.598   2.985
18163SOL    HW256387   3.953   5.745   3.014
18164SOL     OW56388   8.258   5.709   8.528
18164SOL    HW156389   8.244   5.617   8.550
18164SOL    HW256390   8.188   5.756   8.574
18165SOL     OW56391  10.567   7.639  13.003
18165SOL    HW156392  10.544   7.647  13.096
18165SOL    HW256393  10.617   7.719  12.985
18166SOL     OW56394   8.540   5.142   5.295
18166SOL    HW156395   8.513   5.231   5.276
18166SOL    HW256396   8.472   5.087   5.256
18167SOL     OW56397   8.064  13.811   8.064
18167SOL    HW156398   8.096  13.890   8.019
18167SOL    HW256399   8.065  13.835   8.157
18168SOL     OW56400   8.830   3.263   8.928
18168SOL    HW156401   8.814   3.277   9.021
18168SOL    HW256402   8.851   3.170   8.920
18169SOL     OW56403   9.434  13.464  11.031
18169SOL    HW156404   9.391  13.508  10.958
18169SOL    HW256405   9.363  13.431  11.085
18170SOL     OW56406  12.212  12.612   0.063
18170SOL    HW156407  12.297  12.655   0.057
18170SOL    HW256408  12.219  12.553   0.138
18171SOL     OW56409   7.689   9.850   1.850
18171SOL    HW156410   7.649   9.937   1.856
18171SOL    HW256411   7.758   9.851   1.917
18172SOL     OW56412   2.969   8.416   5.682
18172SOL    HW156413   2.888   8.372   5.658
18172SOL    HW256414   2.958   8.506   5.651
18173SOL     OW56415   3.017  11.602   5.324
18173SOL    HW156416   3.069  11.648   5.389
18173SOL    HW256417   2.943  11.660   5.306
18174SOL     OW56418   0.718   6.990   8.211
18174SOL    HW156419   0.732   6.897   8.191
18174SOL    HW256420   0.664   6.989   8.290
18175SOL     OW56421  12.591   9.638   1.183
18175SOL    HW156422  12.635   9.723   1.178
18175SOL    HW256423  12.500   9.658   1.160
18176SOL     OW56424   8.570  14.245   4.663
18176SOL    HW156425   8.535  14.268   4.576
18176SOL    HW256426   8.663  14.268   4.658
18177SOL     OW56427   5.273   6.332   0.832
18177SOL    HW156428   5.253   6.399   0.898
18177SOL    HW256429   5.231   6.364   0.752
18178SOL     OW56430  14.571  11.979   5.746
18178SOL    HW156431  14.494  11.964   5.801
18178SOL    HW256432  14.590  12.072   5.758
18179SOL     OW56433   1.915   2.337   9.179
18179SOL    HW156434   1.987   2.395   9.156
18179SOL    HW256435   1.867   2.324   9.097
18180SOL     OW56436   2.757   4.881  13.629
18180SOL    HW156437   2.730   4.845  13.545
18180SOL    HW256438   2.809   4.959  13.606
18181SOL     OW56439  11.637   9.911  13.447
18181SOL    HW156440  11.572   9.873  13.506
18181SOL    HW256441  11.659   9.841  13.386
18182SOL     OW56442   1.651   1.381  11.196
18182SOL    HW156443   1.648   1.293  11.159
18182SOL    HW256444   1.691   1.370  11.282
18183SOL     OW56445   3.032   1.979   1.853
18183SOL    HW156446   3.042   2.032   1.932
18183SOL    HW256447   3.045   2.040   1.781
18184SOL     OW56448  11.105   0.077   4.342
18184SOL    HW156449  11.175   0.036   4.292
18184SOL    HW256450  11.025   0.050   4.297
18185SOL     OW56451  14.517   8.468   3.541
18185SOL    HW156452  14.519   8.542   3.602
18185SOL    HW256453  14.566   8.399   3.585
18186SOL     OW56454  11.125  14.819   7.271
18186SOL    HW156455  11.077  14.838   7.352
18186SOL    HW256456  11.078  14.746   7.232
18187SOL     OW56457   5.212   5.122  11.133
18187SOL    HW156458   5.267   5.107  11.210
18187SOL    HW256459   5.194   5.034  11.099
18188SOL     OW56460   7.119   2.134   1.425
18188SOL    HW156461   7.171   2.138   1.345
18188SOL    HW256462   7.173   2.085   1.487
18189SOL     OW56463   2.578  10.977   0.904
18189SOL    HW156464   2.501  10.928   0.876
18189SOL    HW256465   2.646  10.910   0.915
18190SOL     OW56466  12.627   9.803   8.122
18190SOL    HW156467  12.545   9.830   8.080
18190SOL    HW256468  12.692   9.865   8.091
18191SOL     OW56469   9.186  10.126   9.162
18191SOL    HW156470   9.251  10.189   9.193
18191SOL    HW256471   9.137  10.101   9.240
18192SOL     OW56472  10.317  14.835   0.454
18192SOL    HW156473  10.255  14.820   0.525
18192SOL    HW256474  10.263  14.831   0.374
18193SOL     OW56475   3.939  10.090   9.596
18193SOL    HW156476   3.889  10.009   9.586
18193SOL    HW256477   3.970  10.110   9.507
18194SOL     OW56478  12.667   1.191   9.366
18194SOL    HW156479  12.710   1.115   9.327
18194SOL    HW256480  12.725   1.264   9.344
18195SOL     OW56481   4.128   4.144  10.507
18195SOL    HW156482   4.060   4.115  10.568
18195SOL    HW256483   4.206   4.094  10.531
18196SOL     OW56484   2.931   7.524   8.657
18196SOL    HW156485   2.852   7.560   8.698
18196SOL    HW256486   2.962   7.594   8.599
18197SOL     OW56487   4.578   4.996  11.944
18197SOL    HW156488   4.523   4.917  11.936
18197SOL    HW256489   4.629   4.997  11.863
18198SOL     OW56490   9.243  13.554  12.990
18198SOL    HW156491   9.149  13.549  12.975
18198SOL    HW256492   9.253  13.618  13.061
18199SOL     OW56493   1.186  12.505   9.217
18199SOL    HW156494   1.106  12.552   9.192
18199SOL    HW256495   1.244  12.518   9.142
18200SOL     OW56496   9.978   8.628   3.305
18200SOL    HW156497   9.917   8.555   3.301
18200SOL    HW256498   9.972   8.670   3.219
18201SOL     OW56499  13.978   6.262   4.656
18201SOL    HW156500  14.002   6.339   4.605
18201SOL    HW256501  14.006   6.282   4.745
18202SOL     OW56502  12.928   7.223  11.752
18202SOL    HW156503  12.859   7.163  11.721
18202SOL    HW256504  12.941   7.198  11.844
18203SOL     OW56505   8.186  11.144  14.512
18203SOL    HW156506   8.180  11.108  14.601
18203SOL    HW256507   8.272  11.186  14.509
18204SOL     OW56508   5.428   3.724   2.110
18204SOL    HW156509   5.333   3.727   2.099
18204SOL    HW256510   5.451   3.811   2.143
18205SOL     OW56511   1.864   6.398   6.351
18205SOL    HW156512   1.812   6.358   6.281
18205SOL    HW256513   1.955   6.385   6.325
18206SOL     OW56514   3.728   0.980   1.253
18206SOL    HW156515   3.775   1.030   1.319
18206SOL    HW256516   3.759   1.015   1.169
18207SOL     OW56517   1.722   6.702  13.618
18207SOL    HW156518   1.728   6.709  13.522
18207SOL    HW256519   1.679   6.783  13.645
18208SOL     OW56520   3.834   4.133  11.385
18208SOL    HW156521   3.921   4.106  11.355
18208SOL    HW256522   3.849   4.161  11.476
18209SOL     OW56523   7.184   7.972   2.375
18209SOL    HW156524   7.227   7.888   2.355
18209SOL    HW256525   7.091   7.951   2.380
18210SOL     OW56526   9.276  14.300   3.671
18210SOL    HW156527   9.287  14.206   3.685
18210SOL    HW256528   9.184  14.317   3.692
18211SOL     OW56529   8.454   4.615  12.611
18211SOL    HW156530   8.441   4.655  12.525
18211SOL    HW256531   8.524   4.551  12.597
18212SOL     OW56532  11.986  10.677   6.563
18212SOL    HW156533  12.048  10.642   6.499
18212SOL    HW256534  12.038  10.737   6.617
18213SOL     OW56535   1.050  12.852  14.740
18213SOL    HW156536   0.965  12.819  14.771
18213SOL    HW256537   1.091  12.776  14.698
18214SOL     OW56538   2.817  12.320   7.606
18214SOL    HW156539   2.832  12.246   7.665
18214SOL    HW256540   2.749  12.371   7.648
18215SOL     OW56541   7.883   4.594   8.668
18215SOL    HW156542   7.962   4.555   8.631
18215SOL    HW256543   7.866   4.542   8.747
18216SOL     OW56544   8.342  12.664   6.228
18216SOL    HW156545   8.337  12.574   6.197
18216SOL    HW256546   8.426  12.668   6.275
18217SOL     OW56547   7.762  11.278   6.311
18217SOL    HW156548   7.751  11.195   6.265
18217SOL    HW256549   7.712  11.267   6.392
18218SOL     OW56550   9.644   5.599   7.046
18218SOL    HW156551   9.669   5.664   7.111
18218SOL    HW256552   9.727   5.568   7.010
18219SOL     OW56553  11.581  10.807   3.455
18219SOL    HW156554  11.521  10.758   3.511
18219SOL    HW256555  11.619  10.741   3.397
18220SOL     OW56556  14.003   5.229   1.125
18220SOL    HW156557  13.968   5.317   1.138
18220SOL    HW256558  14.006   5.218   1.030
18221SOL     OW56559   1.185   8.878   2.231
18221SOL    HW156560   1.179   8.846   2.141
18221SOL    HW256561   1.147   8.807   2.284
18222SOL     OW56562   1.239  10.412   7.503
18222SOL    HW156563   1.247  10.375   7.415
18222SOL    HW256564   1.283  10.349   7.560
18223SOL     OW56565  13.946  11.333   5.785
18223SOL    HW156566  14.005  11.307   5.715
18223SOL    HW256567  13.998  11.391   5.841
18224SOL     OW56568   2.373   6.790   3.914
18224SOL    HW156569   2.433   6.782   3.988
18224SOL    HW256570   2.427   6.823   3.842
18225SOL     OW56571   7.836   8.396  12.281
18225SOL    HW156572   7.926   8.417  12.303
18225SOL    HW256573   7.790   8.395  12.365
18226SOL     OW56574  10.049   1.331   0.100
18226SOL    HW156575  10.003   1.282   0.168
18226SOL    HW256576  10.136   1.292   0.096
18227SOL     OW56577   1.980   1.848   4.006
18227SOL    HW156578   1.949   1.861   3.916
18227SOL    HW256579   2.069   1.815   3.996
18228SOL     OW56580  13.574   2.409   5.702
18228SOL    HW156581  13.539   2.495   5.725
18228SOL    HW256582  13.662   2.427   5.668
18229SOL     OW56583   4.902   9.728   8.857
18229SOL    HW156584   4.991   9.760   8.866
18229SOL    HW256585   4.888   9.720   8.762
18230SOL     OW56586  14.567  13.898   0.709
18230SOL    HW156587  14.626  13.959   0.754
18230SOL    HW256588  14.482  13.940   0.712
18231SOL     OW56589  13.495   9.104   6.907
18231SOL    HW156590  13.411   9.068   6.935
18231SOL    HW256591  13.474   9.159   6.832
18232SOL     OW56592  13.604   5.640   2.553
18232SOL    HW156593  13.611   5.588   2.633
18232SOL    HW256594  13.532   5.700   2.569
18233SOL     OW56595   2.679  13.127   1.931
18233SOL    HW156596   2.601  13.127   1.987
18233SOL    HW256597   2.699  13.219   1.918
18234SOL     OW56598   5.552  10.685   4.717
18234SOL    HW156599   5.597  10.759   4.759
18234SOL    HW256600   5.622  10.639   4.670
18235SOL     OW56601  13.959  13.894  10.332
18235SOL    HW156602  14.032  13.835  10.314
18235SOL    HW256603  13.989  13.949  10.404
18236SOL     OW56604   4.654   1.586   6.479
18236SOL    HW156605   4.592   1.519   6.450
18236SOL    HW256606   4.638   1.660   6.419
18237SOL     OW56607   6.624   3.901  14.167
18237SOL    HW156608   6.540   3.864  14.140
18237SOL    HW256609   6.648   3.852  14.245
18238SOL     OW56610  14.212   7.672   1.673
18238SOL    HW156611  14.182   7.589   1.636
18238SOL    HW256612  14.137   7.704   1.724
18239SOL     OW56613  13.826   5.211   5.767
18239SOL    HW156614  13.864   5.148   5.705
18239SOL    HW256615  13.776   5.156   5.828
18240SOL     OW56616   2.746   4.117  12.828
18240SOL    HW156617   2.835   4.110  12.794
18240SOL    HW256618   2.757   4.154  12.916
18241SOL     OW56619   7.996  14.297  14.090
18241SOL    HW156620   7.913  14.256  14.066
18241SOL    HW256621   7.973  14.360  14.158
18242SOL     OW56622   3.263  12.641  14.302
18242SOL    HW156623   3.319  12.673  14.373
18242SOL    HW256624   3.223  12.561  14.338
18243SOL     OW56625   7.461  12.571   2.665
18243SOL    HW156626   7.523  12.644   2.667
18243SOL    HW256627   7.446  12.555   2.572
18244SOL     OW56628  12.257   6.032   5.761
18244SOL    HW156629  12.325   6.005   5.700
18244SOL    HW256630  12.299   6.101   5.814
18245SOL     OW56631   6.157   3.988   5.383
18245SOL    HW156632   6.128   4.032   5.303
18245SOL    HW256633   6.228   4.044   5.416
18246SOL     OW56634   0.407   6.465  13.941
18246SOL    HW156635   0.417   6.466  14.036
18246SOL    HW256636   0.393   6.373  13.919
18247SOL     OW56637   2.946   9.428  12.775
18247SOL    HW156638   2.923   9.468  12.859
18247SOL    HW256639   2.944   9.334  12.791
18248SOL     OW56640  10.738  10.459  11.011
18248SOL    HW156641  10.709  10.376  10.974
18248SOL    HW256642  10.658  10.507  11.031
18249SOL     OW56643  10.626  13.015   7.372
18249SOL    HW156644  10.711  13.027   7.328
18249SOL    HW256645  10.595  13.104   7.387
18250SOL     OW56646   7.034   1.782   5.413
18250SOL    HW156647   6.978   1.857   5.434
18250SOL    HW256648   7.002   1.752   5.328
18251SOL     OW56649   2.702   8.674  10.888
18251SOL    HW156650   2.711   8.592  10.937
18251SOL    HW256651   2.779   8.676  10.831
18252SOL     OW56652  11.403   2.613   7.093
18252SOL    HW156653  11.365   2.571   7.016
18252SOL    HW256654  11.328   2.653   7.137
18253SOL     OW56655  12.333   1.781   6.225
18253SOL    HW156656  12.406   1.743   6.273
18253SOL    HW256657  12.267   1.799   6.291
18254SOL     OW56658   4.110  13.238  10.392
18254SOL    HW156659   4.034  13.275  10.346
18254SOL    HW256660   4.148  13.313  10.438
18255SOL     OW56661  11.245   0.730  14.083
18255SOL    HW156662  11.217   0.706  14.172
18255SOL    HW256663  11.247   0.647  14.036
18256SOL     OW56664   7.820   6.011  14.258
18256SOL    HW156665   7.800   6.004  14.352
18256SOL    HW256666   7.900   5.961  14.246
18257SOL     OW56667   8.763   1.428   8.898
18257SOL    HW156668   8.849   1.461   8.924
18257SOL    HW256669   8.705   1.456   8.968
18258SOL     OW56670   3.113   1.629   7.573
18258SOL    HW156671   3.128   1.572   7.497
18258SOL    HW256672   3.041   1.589   7.620
18259SOL     OW56673   8.312   8.930  14.864
18259SOL    HW156674   8.379   8.987   0.030
18259SOL    HW256675   8.257   8.989  14.813
18260SOL     OW56676   0.642  12.178   8.931
18260SOL    HW156677   0.580  12.219   8.992
18260SOL    HW256678   0.613  12.087   8.926
18261SOL     OW56679  14.511  11.703   4.152
18261SOL    HW156680  14.606  11.716   4.154
18261SOL    HW256681  14.489  11.672   4.240
18262SOL     OW56682  12.987   4.951  11.524
18262SOL    HW156683  13.012   4.953  11.616
18262SOL    HW256684  12.975   5.043  11.501
18263SOL     OW56685  13.506   2.963   3.746
18263SOL    HW156686  13.420   2.976   3.785
18263SOL    HW256687  13.507   3.022   3.670
18264SOL     OW56688   9.184  10.883  10.749
18264SOL    HW156689   9.089  10.872  10.740
18264SOL    HW256690   9.221  10.803  10.712
18265SOL     OW56691   8.705  13.694  12.165
18265SOL    HW156692   8.782  13.695  12.108
18265SOL    HW256693   8.631  13.702  12.106
18266SOL     OW56694   3.889  13.101  14.191
18266SOL    HW156695   3.858  13.130  14.277
18266SOL    HW256696   3.813  13.112  14.134
18267SOL     OW56697   0.195  10.552   3.919
18267SOL    HW156698   0.245  10.603   3.983
18267SOL    HW256699   0.207  10.461   3.946
18268SOL     OW56700   6.248   3.531  10.837
18268SOL    HW156701   6.263   3.625  10.824
18268SOL    HW256702   6.335   3.495  10.851
18269SOL     OW56703   4.399   5.242   8.588
18269SOL    HW156704   4.392   5.233   8.683
18269SOL    HW256705   4.365   5.329   8.569
18270SOL     OW56706  12.435   9.861   4.303
18270SOL    HW156707  12.387   9.903   4.232
18270SOL    HW256708  12.375   9.865   4.378
18271SOL     OW56709  14.842   7.744  14.499
18271SOL    HW156710  14.778   7.799  14.455
18271SOL    HW256711  14.839   7.661  14.451
18272SOL     OW56712  13.843   3.428   7.099
18272SOL    HW156713  13.919   3.435   7.157
18272SOL    HW256714  13.851   3.342   7.059
18273SOL     OW56715   7.034   5.957  12.199
18273SOL    HW156716   7.119   5.914  12.192
18273SOL    HW256717   7.051   6.048  12.175
18274SOL     OW56718   8.825   4.912   6.911
18274SOL    HW156719   8.781   4.847   6.966
18274SOL    HW256720   8.786   4.996   6.937
18275SOL     OW56721  14.512   3.696   1.917
18275SOL    HW156722  14.470   3.677   2.001
18275SOL    HW256723  14.601   3.724   1.941
18276SOL     OW56724   9.802   7.150   1.539
18276SOL    HW156725   9.845   7.214   1.595
18276SOL    HW256726   9.719   7.132   1.583
18277SOL     OW56727   7.667   2.633  14.208
18277SOL    HW156728   7.650   2.599  14.120
18277SOL    HW256729   7.587   2.681  14.231
18278SOL     OW56730   1.926  10.592   0.996
18278SOL    HW156731   1.993  10.611   0.931
18278SOL    HW256732   1.845  10.584   0.946
18279SOL     OW56733   2.340  10.863   0.784
18279SOL    HW156734   2.303  10.950   0.789
18279SOL    HW256735   2.325  10.835   0.693
18280SOL     OW56736  12.110  11.670   7.461
18280SOL    HW156737  12.059  11.623   7.394
18280SOL    HW256738  12.092  11.624   7.542
18281SOL     OW56739   7.538   2.882   3.940
18281SOL    HW156740   7.548   2.798   3.896
18281SOL    HW256741   7.448   2.882   3.972
18282SOL     OW56742   1.611  14.129  14.516
18282SOL    HW156743   1.659  14.207  14.543
18282SOL    HW256744   1.640  14.061  14.576
18283SOL     OW56745   5.508   6.905   1.972
18283SOL    HW156746   5.590   6.907   2.023
18283SOL    HW256747   5.467   6.989   1.992
18284SOL     OW56748  13.678   6.512  10.170
18284SOL    HW156749  13.605   6.459  10.201
18284SOL    HW256750  13.658   6.600  10.200
18285SOL     OW56751   6.841   8.842  13.888
18285SOL    HW156752   6.923   8.891  13.895
18285SOL    HW256753   6.869   8.751  13.875
18286SOL     OW56754   4.498   8.420   5.116
18286SOL    HW156755   4.446   8.429   5.196
18286SOL    HW256756   4.513   8.510   5.087
18287SOL     OW56757   6.161   1.679   8.002
18287SOL    HW156758   6.106   1.719   7.934
18287SOL    HW256759   6.113   1.694   8.083
18288SOL     OW56760  14.547   7.050   0.495
18288SOL    HW156761  14.572   7.022   0.407
18288SOL    HW256762  14.451   7.044   0.495
18289SOL     OW56763  14.040  14.583  12.147
18289SOL    HW156764  14.051  14.558  12.239
18289SOL    HW256765  14.075  14.671  12.141
18290SOL     OW56766   5.245   8.525   2.296
18290SOL    HW156767   5.169   8.478   2.262
18290SOL    HW256768   5.295   8.549   2.218
18291SOL     OW56769  12.272   8.804  10.643
18291SOL    HW156770  12.180   8.777  10.637
18291SOL    HW256771  12.308   8.750  10.714
18292SOL     OW56772  13.926   3.352   6.042
18292SOL    HW156773  13.999   3.350   5.980
18292SOL    HW256774  13.921   3.443   6.071
18293SOL     OW56775   5.900  10.980  14.435
18293SOL    HW156776   5.951  11.053  14.401
18293SOL    HW256777   5.935  10.903  14.389
18294SOL     OW56778   9.385  13.692  13.770
18294SOL    HW156779   9.297  13.711  13.739
18294SOL    HW256780   9.377  13.610  13.819
18295SOL     OW56781   9.992  11.588   8.289
18295SOL    HW156782   9.967  11.619   8.202
18295SOL    HW256783   9.908  11.576   8.334
18296SOL     OW56784   6.924  10.988   7.054
18296SOL    HW156785   6.926  11.066   6.998
18296SOL    HW256786   6.996  10.934   7.023
18297SOL     OW56787  14.594   4.626  10.933
18297SOL    HW156788  14.569   4.583  10.851
18297SOL    HW256789  14.516   4.674  10.960
18298SOL     OW56790   3.314   4.191   2.861
18298SOL    HW156791   3.252   4.264   2.866
18298SOL    HW256792   3.292   4.147   2.779
18299SOL     OW56793  14.142  14.145  12.931
18299SOL    HW156794  14.189  14.180  12.855
18299SOL    HW256795  14.131  14.052  12.911
18300SOL     OW56796   1.676  13.492   2.509
18300SOL    HW156797   1.769  13.512   2.523
18300SOL    HW256798   1.645  13.563   2.453
18301SOL     OW56799   1.973   0.379  10.061
18301SOL    HW156800   1.904   0.444  10.062
18301SOL    HW256801   2.054   0.429  10.057
18302SOL     OW56802  10.175  13.830  10.738
18302SOL    HW156803  10.125  13.907  10.765
18302SOL    HW256804  10.115  13.780  10.683
18303SOL     OW56805  14.650  12.072   0.906
18303SOL    HW156806  14.705  12.035   0.974
18303SOL    HW256807  14.708  12.083   0.831
18304SOL     OW56808   1.916  10.411  10.898
18304SOL    HW156809   1.977  10.435  10.828
18304SOL    HW256810   1.845  10.475  10.892
18305SOL     OW56811  11.172   2.790   8.591
18305SOL    HW156812  11.128   2.706   8.606
18305SOL    HW256813  11.138   2.847   8.659
18306SOL     OW56814  14.305   2.242   5.865
18306SOL    HW156815  14.347   2.311   5.814
18306SOL    HW256816  14.354   2.240   5.948
18307SOL     OW56817   8.278   8.306  13.236
18307SOL    HW156818   8.215   8.266  13.297
18307SOL    HW256819   8.295   8.237  13.171
18308SOL     OW56820   7.927   0.907  13.964
18308SOL    HW156821   7.891   0.918  14.053
18308SOL    HW256822   7.941   0.813  13.956
18309SOL     OW56823  13.856   9.627   9.514
18309SOL    HW156824  13.774   9.659   9.553
18309SOL    HW256825  13.891   9.702   9.466
18310SOL     OW56826   4.849   7.574   0.441
18310SOL    HW156827   4.859   7.663   0.407
18310SOL    HW256828   4.937   7.537   0.439
18311SOL     OW56829   4.283   4.389   8.569
18311SOL    HW156830   4.189   4.379   8.554
18311SOL    HW256831   4.297   4.354   8.657
18312SOL     OW56832   4.683  11.525  11.373
18312SOL    HW156833   4.684  11.475  11.292
18312SOL    HW256834   4.600  11.572  11.372
18313SOL     OW56835   6.804   3.070   9.707
18313SOL    HW156836   6.773   2.997   9.653
18313SOL    HW256837   6.838   3.133   9.643
18314SOL     OW56838   2.587   8.625  10.000
18314SOL    HW156839   2.553   8.568   9.931
18314SOL    HW256840   2.621   8.701   9.952
18315SOL     OW56841  13.977   9.553  12.101
18315SOL    HW156842  13.944   9.519  12.018
18315SOL    HW256843  13.901   9.596  12.141
18316SOL     OW56844   7.858   5.666  14.145
18316SOL    HW156845   7.807   5.735  14.188
18316SOL    HW256846   7.922   5.639  14.210
18317SOL     OW56847   3.544   3.757   1.193
18317SOL    HW156848   3.453   3.727   1.192
18317SOL    HW256849   3.563   3.775   1.285
18318SOL     OW56850  14.854  11.436   0.722
18318SOL    HW156851  14.769  11.405   0.692
18318SOL    HW256852  14.863  11.523   0.683
18319SOL     OW56853  11.435   0.142   4.328
18319SOL    HW156854  11.467   0.054   4.346
18319SOL    HW256855  11.394   0.136   4.242
18320SOL     OW56856  14.312   6.445   0.919
18320SOL    HW156857  14.258   6.490   0.984
18320SOL    HW256858  14.362   6.381   0.970
18321SOL     OW56859  10.043   1.159  13.185
18321SOL    HW156860  10.025   1.227  13.250
18321SOL    HW256861  10.114   1.196  13.131
18322SOL     OW56862  11.817   6.086   1.176
18322SOL    HW156863  11.872   6.016   1.143
18322SOL    HW256864  11.877   6.161   1.185
18323SOL     OW56865  10.615   4.919   3.217
18323SOL    HW156866  10.582   4.830   3.230
18323SOL    HW256867  10.644   4.947   3.304
18324SOL     OW56868   6.041   3.506   8.465
18324SOL    HW156869   6.097   3.532   8.393
18324SOL    HW256870   6.077   3.551   8.542
18325SOL     OW56871   4.588   8.803   8.945
18325SOL    HW156872   4.677   8.785   8.978
18325SOL    HW256873   4.538   8.824   9.024
18326SOL     OW56874   1.842   5.882   9.201
18326SOL    HW156875   1.803   5.944   9.263
18326SOL    HW256876   1.932   5.873   9.230
18327SOL     OW56877   0.949   0.520   7.616
18327SOL    HW156878   0.911   0.547   7.700
18327SOL    HW256879   0.879   0.472   7.572
18328SOL     OW56880   7.271   4.426   6.873
18328SOL    HW156881   7.333   4.359   6.842
18328SOL    HW256882   7.313   4.509   6.851
18329SOL     OW56883   4.525   2.736  12.875
18329SOL    HW156884   4.454   2.748  12.938
18329SOL    HW256885   4.541   2.823  12.839
18330SOL     OW56886   9.721   1.465   2.301
18330SOL    HW156887   9.803   1.417   2.308
18330SOL    HW256888   9.713   1.511   2.385
18331SOL     OW56889   5.305   8.241   6.055
18331SOL    HW156890   5.260   8.302   6.113
18331SOL    HW256891   5.241   8.172   6.039
18332SOL     OW56892   0.038  13.440  10.840
18332SOL    HW156893   0.129  13.420  10.820
18332SOL    HW256894  14.861  13.408  10.764
18333SOL     OW56895   5.910   9.111   5.528
18333SOL    HW156896   5.994   9.126   5.573
18333SOL    HW256897   5.932   9.053   5.455
18334SOL     OW56898   9.287   5.213   9.208
18334SOL    HW156899   9.225   5.267   9.158
18334SOL    HW256900   9.239   5.192   9.289
18335SOL     OW56901   6.705   5.967   3.385
18335SOL    HW156902   6.707   5.948   3.479
18335SOL    HW256903   6.635   5.912   3.351
18336SOL     OW56904   8.576   1.326   1.554
18336SOL    HW156905   8.607   1.366   1.472
18336SOL    HW256906   8.592   1.232   1.542
18337SOL     OW56907   5.237  11.596   5.357
18337SOL    HW156908   5.247  11.644   5.438
18337SOL    HW256909   5.215  11.507   5.384
18338SOL     OW56910  14.117  13.095   3.315
18338SOL    HW156911  14.099  13.167   3.255
18338SOL    HW256912  14.205  13.065   3.290
18339SOL     OW56913   2.809   7.878   5.830
18339SOL    HW156914   2.858   7.960   5.822
18339SOL    HW256915   2.717   7.904   5.819
18340SOL     OW56916  11.225   8.359   6.176
18340SOL    HW156917  11.156   8.338   6.239
18340SOL    HW256918  11.291   8.407   6.228
18341SOL     OW56919   9.963   4.304  11.514
18341SOL    HW156920   9.929   4.343  11.595
18341SOL    HW256921   9.887   4.261  11.474
18342SOL     OW56922   0.244  13.829  10.205
18342SOL    HW156923   0.314  13.892  10.189
18342SOL    HW256924   0.245  13.815  10.300
18343SOL     OW56925   7.342   2.393  13.756
18343SOL    HW156926   7.397   2.314  13.755
18343SOL    HW256927   7.294   2.390  13.674
18344SOL     OW56928  10.527   6.120  12.358
18344SOL    HW156929  10.498   6.047  12.413
18344SOL    HW256930  10.617   6.136  12.386
18345SOL     OW56931   5.931  12.625   2.369
18345SOL    HW156932   5.934  12.575   2.451
18345SOL    HW256933   5.852  12.680   2.378
18346SOL     OW56934  12.694   6.695  10.482
18346SOL    HW156935  12.785   6.667  10.482
18346SOL    HW256936  12.684   6.744  10.400
18347SOL     OW56937   3.954   0.839  10.568
18347SOL    HW156938   3.927   0.931  10.573
18347SOL    HW256939   4.032   0.840  10.512
18348SOL     OW56940   1.321   7.823  13.069
18348SOL    HW156941   1.306   7.875  12.990
18348SOL    HW256942   1.300   7.882  13.141
18349SOL     OW56943  12.884  11.098   9.052
18349SOL    HW156944  12.965  11.088   9.103
18349SOL    HW256945  12.914  11.127   8.966
18350SOL     OW56946   8.005  10.166   0.050
18350SOL    HW156947   8.013  10.107  14.848
18350SOL    HW256948   8.058  10.242   0.026
18351SOL     OW56949   4.331   3.471  13.390
18351SOL    HW156950   4.342   3.402  13.325
18351SOL    HW256951   4.241   3.501  13.379
18352SOL     OW56952  11.871   9.457   3.277
18352SOL    HW156953  11.788   9.410   3.268
18352SOL    HW256954  11.923   9.402   3.336
18353SOL     OW56955  11.855   0.239   3.422
18353SOL    HW156956  11.881   0.277   3.338
18353SOL    HW256957  11.933   0.194   3.454
18354SOL     OW56958   4.056  14.530   2.303
18354SOL    HW156959   3.973  14.572   2.325
18354SOL    HW256960   4.100  14.593   2.246
18355SOL     OW56961   0.407   9.275  10.793
18355SOL    HW156962   0.446   9.324  10.720
18355SOL    HW256963   0.481   9.248  10.846
18356SOL     OW56964  13.379   1.179   2.661
18356SOL    HW156965  13.372   1.148   2.751
18356SOL    HW256966  13.403   1.272   2.669
18357SOL     OW56967  13.595   6.894  14.182
18357SOL    HW156968  13.595   6.950  14.260
18357SOL    HW256969  13.538   6.940  14.120
18358SOL     OW56970   6.271   5.353   9.323
18358SOL    HW156971   6.283   5.446   9.340
18358SOL    HW256972   6.192   5.349   9.269
18359SOL     OW56973  12.091   2.823   7.195
18359SOL    HW156974  12.013   2.851   7.147
18359SOL    HW256975  12.163   2.835   7.133
18360SOL     OW56976   0.663   0.969   9.111
18360SOL    HW156977   0.588   1.009   9.155
18360SOL    HW256978   0.661   0.877   9.140
18361SOL     OW56979   5.362   9.566  11.373
18361SOL    HW156980   5.456   9.552  11.383
18361SOL    HW256981   5.344   9.646  11.423
18362SOL     OW56982  10.787   5.526   0.630
18362SOL    HW156983  10.862   5.583   0.647
18362SOL    HW256984  10.791   5.459   0.698
18363SOL     OW56985   9.979   0.660  14.032
18363SOL    HW156986   9.970   0.571  14.066
18363SOL    HW256987   9.963   0.716  14.108
18364SOL     OW56988   5.527  10.105  14.780
18364SOL    HW156989   5.493  10.193  14.767
18364SOL    HW256990   5.622  10.115  14.786
18365SOL     OW56991  12.513  12.092  12.137
18365SOL    HW156992  12.531  12.101  12.231
18365SOL    HW256993  12.595  12.061  12.099
18366SOL     OW56994  11.650  12.799   5.780
18366SOL    HW156995  11.734  12.839   5.757
18366SOL    HW256996  11.587  12.837   5.719
18367SOL     OW56997  13.899   2.457   5.441
18367SOL    HW156998  13.957   2.441   5.366
18367SOL    HW256999  13.950   2.431   5.517
18368SOL     OW57000  14.017  12.722  12.074
18368SOL    HW157001  13.980  12.680  12.152
18368SOL    HW257002  13.945  12.722  12.011
18369SOL     OW57003   9.592   0.718   5.774
18369SOL    HW157004   9.640   0.717   5.691
18369SOL    HW257005   9.568   0.810   5.786
18370SOL     OW57006   8.925   9.618   7.742
18370SOL    HW157007   8.864   9.565   7.691
18370SOL    HW257008   8.877   9.643   7.820
18371SOL     OW57009   0.206   7.045  12.815
18371SOL    HW157010   0.282   7.002  12.776
18371SOL    HW257011   0.131   6.990  12.790
18372SOL     OW57012   1.125   9.299   8.754
18372SOL    HW157013   1.109   9.386   8.718
18372SOL    HW257014   1.090   9.304   8.843
18373SOL     OW57015   2.573   0.407   2.814
18373SOL    HW157016   2.524   0.394   2.895
18373SOL    HW257017   2.557   0.498   2.790
18374SOL     OW57018   5.017  13.464  12.365
18374SOL    HW157019   4.981  13.552  12.354
18374SOL    HW257020   5.109  13.478  12.385
18375SOL     OW57021   2.192   6.122  12.606
18375SOL    HW157022   2.157   6.072  12.533
18375SOL    HW257023   2.286   6.131  12.587
18376SOL     OW57024   4.932  13.674   3.396
18376SOL    HW157025   4.902  13.601   3.450
18376SOL    HW257026   4.874  13.672   3.320
18377SOL     OW57027  10.042   7.913  11.923
18377SOL    HW157028  10.000   7.975  11.982
18377SOL    HW257029  10.135   7.920  11.943
18378SOL     OW57030  13.501  13.000  10.250
18378SOL    HW157031  13.420  12.981  10.202
18378SOL    HW257032  13.544  12.916  10.259
18379SOL     OW57033   0.851  14.161   1.617
18379SOL    HW157034   0.798  14.107   1.558
18379SOL    HW257035   0.839  14.250   1.585
18380SOL     OW57036   4.865   9.527   2.204
18380SOL    HW157037   4.884   9.434   2.201
18380SOL    HW257038   4.931   9.567   2.147
18381SOL     OW57039   8.962  10.074   4.438
18381SOL    HW157040   8.882  10.123   4.423
18381SOL    HW257041   8.933   9.983   4.444
18382SOL     OW57042   0.637  14.415  10.810
18382SOL    HW157043   0.592  14.418  10.895
18382SOL    HW257044   0.600  14.489  10.761
18383SOL     OW57045   0.585   2.239   4.339
18383SOL    HW157046   0.589   2.289   4.420
18383SOL    HW257047   0.580   2.147   4.367
18384SOL     OW57048  12.704   9.514   5.513
18384SOL    HW157049  12.641   9.442   5.522
18384SOL    HW257050  12.778   9.476   5.466
18385SOL     OW57051  10.650   1.730   6.414
18385SOL    HW157052  10.644   1.809   6.467
18385SOL    HW257053  10.606   1.752   6.332
18386SOL     OW57054  10.585  11.515   3.877
18386SOL    HW157055  10.610  11.520   3.969
18386SOL    HW257056  10.498  11.554   3.874
18387SOL     OW57057   1.051  13.501  11.919
18387SOL    HW157058   0.983  13.543  11.866
18387SOL    HW257059   1.007  13.476  12.000
18388SOL     OW57060  14.824   8.898  12.284
18388SOL    HW157061  14.851   8.877  12.373
18388SOL    HW257062   0.008   8.845  12.228
18389SOL     OW57063   1.037   5.412  11.922
18389SOL    HW157064   1.054   5.355  11.847
18389SOL    HW257065   1.063   5.499  11.892
18390SOL     OW57066  14.241   7.310   6.453
18390SOL    HW157067  14.158   7.336   6.412
18390SOL    HW257068  14.307   7.323   6.386
18391SOL     OW57069  11.178  12.166   2.426
18391SOL    HW157070  11.234  12.091   2.408
18391SOL    HW257071  11.092  12.129   2.446
18392SOL     OW57072   5.468   0.041   6.156
18392SOL    HW157073   5.468   0.006   6.245
18392SOL    HW257074   5.396  14.867   6.113
18393SOL     OW57075  13.041  13.166  13.279
18393SOL    HW157076  13.094  13.117  13.342
18393SOL    HW257077  13.097  13.172  13.201
18394SOL     OW57078   2.583   7.261  10.809
18394SOL    HW157079   2.495   7.241  10.777
18394SOL    HW257080   2.581   7.355  10.828
18395SOL     OW57081  11.537   2.251   2.885
18395SOL    HW157082  11.596   2.176   2.888
18395SOL    HW257083  11.465   2.227   2.944
18396SOL     OW57084   3.500  13.265   3.246
18396SOL    HW157085   3.526  13.256   3.154
18396SOL    HW257086   3.576  13.307   3.288
18397SOL     OW57087   4.507   8.400  11.304
18397SOL    HW157088   4.493   8.329  11.368
18397SOL    HW257089   4.446   8.379  11.233
18398SOL     OW57090   3.485  13.464   4.578
18398SOL    HW157091   3.574  13.439   4.605
18398SOL    HW257092   3.479  13.557   4.598
18399SOL     OW57093   9.589  13.238   2.236
18399SOL    HW157094   9.511  13.184   2.223
18399SOL    HW257095   9.631  13.241   2.150
18400SOL     OW57096  11.983  13.728  12.876
18400SOL    HW157097  12.073  13.713  12.902
18400SOL    HW257098  11.936  13.651  12.907
18401SOL     OW57099   6.708  13.639  10.381
18401SOL    HW157100   6.624  13.685  10.382
18401SOL    HW257101   6.724  13.622  10.288
18402SOL     OW57102   5.151  11.918  10.718
18402SOL    HW157103   5.225  11.859  10.709
18402SOL    HW257104   5.075  11.860  10.729
18403SOL     OW57105  10.357   1.867   7.254
18403SOL    HW157106  10.340   1.787   7.205
18403SOL    HW257107  10.345   1.937   7.191
18404SOL     OW57108  11.895   9.952   8.576
18404SOL    HW157109  11.925   9.919   8.660
18404SOL    HW257110  11.963   9.926   8.514
18405SOL     OW57111   3.511   3.545   6.915
18405SOL    HW157112   3.528   3.497   6.996
18405SOL    HW257113   3.509   3.637   6.942
18406SOL     OW57114  13.397   1.892   7.774
18406SOL    HW157115  13.479   1.860   7.737
18406SOL    HW257116  13.408   1.880   7.869
18407SOL     OW57117   1.182  11.275   7.018
18407SOL    HW157118   1.271  11.297   6.991
18407SOL    HW257119   1.170  11.185   6.988
18408SOL     OW57120  11.699  10.342   1.001
18408SOL    HW157121  11.668  10.421   1.044
18408SOL    HW257122  11.620  10.289   0.990
18409SOL     OW57123   0.971  13.844   1.399
18409SOL    HW157124   0.887  13.857   1.443
18409SOL    HW257125   0.993  13.930   1.363
18410SOL     OW57126  14.230  13.388   1.890
18410SOL    HW157127  14.226  13.364   1.983
18410SOL    HW257128  14.215  13.307   1.843
18411SOL     OW57129   4.545   4.856   6.997
18411SOL    HW157130   4.595   4.904   6.931
18411SOL    HW257131   4.507   4.923   7.053
18412SOL     OW57132  13.884   1.618  14.454
18412SOL    HW157133  13.968   1.572  14.460
18412SOL    HW257134  13.887   1.663  14.370
18413SOL     OW57135   8.717   9.258   3.214
18413SOL    HW157136   8.771   9.309   3.274
18413SOL    HW257137   8.729   9.301   3.129
18414SOL     OW57138   2.502   3.313   9.656
18414SOL    HW157139   2.457   3.398   9.659
18414SOL    HW257140   2.433   3.250   9.676
18415SOL     OW57141   4.041  12.707   1.509
18415SOL    HW157142   3.972  12.683   1.448
18415SOL    HW257143   4.017  12.662   1.591
18416SOL     OW57144   8.470   9.308   1.241
18416SOL    HW157145   8.506   9.223   1.264
18416SOL    HW257146   8.400   9.289   1.179
18417SOL     OW57147  11.819   0.829   7.513
18417SOL    HW157148  11.824   0.777   7.594
18417SOL    HW257149  11.877   0.784   7.452
18418SOL     OW57150   5.330  12.709  13.558
18418SOL    HW157151   5.263  12.777  13.546
18418SOL    HW257152   5.371  12.732  13.642
18419SOL     OW57153  14.658  14.219  12.857
18419SOL    HW157154  14.640  14.174  12.774
18419SOL    HW257155  14.714  14.159  12.905
18420SOL     OW57156  11.528   8.774   5.449
18420SOL    HW157157  11.593   8.790   5.518
18420SOL    HW257158  11.523   8.678   5.443
18421SOL     OW57159  10.721   2.968  10.239
18421SOL    HW157160  10.632   2.997  10.218
18421SOL    HW257161  10.775   3.046  10.230
18422SOL     OW57162   2.975  11.386  10.080
18422SOL    HW157163   3.031  11.416  10.151
18422SOL    HW257164   3.030  11.328  10.028
18423SOL     OW57165   5.224   0.278   6.940
18423SOL    HW157166   5.255   0.255   6.852
18423SOL    HW257167   5.249   0.370   6.951
18424SOL     OW57168   8.732  12.583   7.655
18424SOL    HW157169   8.682  12.521   7.603
18424SOL    HW257170   8.787  12.629   7.591
18425SOL     OW57171   4.064   5.683  11.550
18425SOL    HW157172   4.108   5.730  11.479
18425SOL    HW257173   4.134   5.663  11.612
18426SOL     OW57174   2.056  14.365   2.252
18426SOL    HW157175   2.001  14.344   2.177
18426SOL    HW257176   2.056  14.461   2.256
18427SOL     OW57177   3.915  12.731   8.727
18427SOL    HW157178   3.957  12.781   8.657
18427SOL    HW257179   3.901  12.644   8.689
18428SOL     OW57180   3.693  12.899  12.618
18428SOL    HW157181   3.701  12.993  12.602
18428SOL    HW257182   3.645  12.866  12.542
18429SOL     OW57183   3.552   2.676   6.063
18429SOL    HW157184   3.507   2.600   6.099
18429SOL    HW257185   3.524   2.749   6.119
18430SOL     OW57186  11.903   8.629   2.318
18430SOL    HW157187  11.844   8.704   2.331
18430SOL    HW257188  11.947   8.647   2.235
18431SOL     OW57189   6.650   8.276   5.051
18431SOL    HW157190   6.637   8.242   5.140
18431SOL    HW257191   6.568   8.319   5.030
18432SOL     OW57192   6.034  10.889   8.223
18432SOL    HW157193   5.949  10.865   8.260
18432SOL    HW257194   6.016  10.909   8.132
18433SOL     OW57195   9.799  13.719   6.533
18433SOL    HW157196   9.791  13.648   6.597
18433SOL    HW257197   9.764  13.682   6.452
18434SOL     OW57198  10.137   9.819   8.515
18434SOL    HW157199  10.064   9.857   8.466
18434SOL    HW257200  10.095   9.778   8.591
18435SOL     OW57201   1.150   9.148   7.987
18435SOL    HW157202   1.150   9.193   7.902
18435SOL    HW257203   1.132   9.218   8.051
18436SOL     OW57204   6.092  10.550   2.190
18436SOL    HW157205   6.098  10.483   2.122
18436SOL    HW257206   6.009  10.593   2.174
18437SOL     OW57207   8.117   9.977   0.724
18437SOL    HW157208   8.047   9.913   0.720
18437SOL    HW257209   8.081  10.048   0.779
18438SOL     OW57210  10.469   3.750   2.141
18438SOL    HW157211  10.407   3.707   2.200
18438SOL    HW257212  10.416   3.777   2.066
18439SOL     OW57213   1.866  10.625  14.017
18439SOL    HW157214   1.827  10.644  14.103
18439SOL    HW257215   1.845  10.533  14.001
18440SOL     OW57216   4.848   5.188  13.552
18440SOL    HW157217   4.761   5.147  13.553
18440SOL    HW257218   4.909   5.115  13.563
18441SOL     OW57219   0.044   8.554   0.655
18441SOL    HW157220   0.003   8.634   0.689
18441SOL    HW257221  14.866   8.483   0.695
18442SOL     OW57222   0.866   1.310   5.774
18442SOL    HW157223   0.953   1.349   5.766
18442SOL    HW257224   0.880   1.230   5.824
18443SOL     OW57225   1.317  13.136   9.002
18443SOL    HW157226   1.328  13.181   8.919
18443SOL    HW257227   1.318  13.043   8.980
18444SOL     OW57228   9.192   9.970   5.675
18444SOL    HW157229   9.126   9.960   5.743
18444SOL    HW257230   9.204   9.882   5.640
18445SOL     OW57231   6.566   6.296  14.578
18445SOL    HW157232   6.473   6.314  14.594
18445SOL    HW257233   6.595   6.369  14.523
18446SOL     OW57234   9.785   7.124   6.388
18446SOL    HW157235   9.846   7.055   6.361
18446SOL    HW257236   9.773   7.177   6.309
18447SOL     OW57237  12.652   2.429  10.705
18447SOL    HW157238  12.714   2.372  10.752
18447SOL    HW257239  12.680   2.518  10.727
18448SOL     OW57240   4.055   1.140   3.975
18448SOL    HW157241   4.005   1.171   3.899
18448SOL    HW257242   3.991   1.090   4.026
18449SOL     OW57243   9.551   7.980   5.247
18449SOL    HW157244   9.504   8.062   5.265
18449SOL    HW257245   9.483   7.914   5.237
18450SOL     OW57246   9.675   5.059   0.020
18450SOL    HW157247   9.595   5.008   0.005
18450SOL    HW257248   9.649   5.125   0.085
18451SOL     OW57249  10.399  13.440   7.676
18451SOL    HW157250  10.466  13.375   7.698
18451SOL    HW257251  10.449  13.519   7.656
18452SOL     OW57252   5.439   9.350   2.815
18452SOL    HW157253   5.444   9.276   2.754
18452SOL    HW257254   5.509   9.409   2.788
18453SOL     OW57255  10.403  10.461  11.451
18453SOL    HW157256  10.485  10.506  11.472
18453SOL    HW257257  10.340  10.495  11.514
18454SOL     OW57258  11.286   3.480   2.037
18454SOL    HW157259  11.299   3.400   2.088
18454SOL    HW257260  11.264   3.449   1.949
18455SOL     OW57261   8.216  14.403   4.055
18455SOL    HW157262   8.296  14.387   4.005
18455SOL    HW257263   8.149  14.350   4.012
18456SOL     OW57264   8.715  13.624   9.284
18456SOL    HW157265   8.761  13.561   9.229
18456SOL    HW257266   8.628  13.588   9.295
18457SOL     OW57267   5.734  11.443   7.642
18457SOL    HW157268   5.791  11.491   7.582
18457SOL    HW257269   5.679  11.510   7.682
18458SOL     OW57270   3.070  14.014   0.875
18458SOL    HW157271   3.132  14.048   0.940
18458SOL    HW257272   3.111  14.034   0.791
18459SOL     OW57273   4.157   5.053   4.157
18459SOL    HW157274   4.187   5.092   4.239
18459SOL    HW257275   4.124   5.127   4.106
18460SOL     OW57276   3.777  10.036   1.023
18460SOL    HW157277   3.697  10.082   0.997
18460SOL    HW257278   3.848  10.090   0.987
18461SOL     OW57279   7.032   6.540  13.613
18461SOL    HW157280   6.973   6.577  13.679
18461SOL    HW257281   6.974   6.490  13.555
18462SOL     OW57282   6.471   4.681   3.357
18462SOL    HW157283   6.400   4.679   3.292
18462SOL    HW257284   6.543   4.634   3.314
18463SOL     OW57285   1.441   7.578  14.171
18463SOL    HW157286   1.487   7.554  14.252
18463SOL    HW257287   1.473   7.665  14.150
18464SOL     OW57288  14.863   5.419  12.523
18464SOL    HW157289  14.844   5.475  12.448
18464SOL    HW257290   0.079   5.445  12.550
18465SOL     OW57291  13.670   0.191  12.095
18465SOL    HW157292  13.673   0.286  12.081
18465SOL    HW257293  13.761   0.163  12.083
18466SOL     OW57294   3.697   4.437  13.997
18466SOL    HW157295   3.780   4.399  13.966
18466SOL    HW257296   3.723   4.490  14.073
18467SOL     OW57297   4.745   9.757  14.072
18467SOL    HW157298   4.804   9.819  14.114
18467SOL    HW257299   4.657   9.791  14.089
18468SOL     OW57300   1.336  14.102   7.659
18468SOL    HW157301   1.248  14.067   7.647
18468SOL    HW257302   1.392  14.024   7.662
18469SOL     OW57303  13.096   2.794  11.182
18469SOL    HW157304  13.112   2.835  11.097
18469SOL    HW257305  13.184   2.776  11.217
18470SOL     OW57306   7.026  11.809   4.901
18470SOL    HW157307   7.008  11.833   4.810
18470SOL    HW257308   6.973  11.870   4.953
18471SOL     OW57309   9.729  11.371   2.517
18471SOL    HW157310   9.670  11.446   2.507
18471SOL    HW257311   9.724  11.349   2.610
18472SOL     OW57312   0.165   3.237   7.242
18472SOL    HW157313   0.177   3.328   7.272
18472SOL    HW257314   0.184   3.241   7.148
18473SOL     OW57315   2.361   5.342   3.355
18473SOL    HW157316   2.279   5.334   3.305
18473SOL    HW257317   2.429   5.350   3.288
18474SOL     OW57318  12.690  11.917  14.739
18474SOL    HW157319  12.685  11.945  14.830
18474SOL    HW257320  12.782  11.892  14.727
18475SOL     OW57321   4.868   4.605  13.203
18475SOL    HW157322   4.831   4.558  13.278
18475SOL    HW257323   4.855   4.697  13.224
18476SOL     OW57324   9.513   3.772   9.837
18476SOL    HW157325   9.605   3.751   9.854
18476SOL    HW257326   9.514   3.864   9.812
18477SOL     OW57327  10.549   5.806  14.454
18477SOL    HW157328  10.504   5.828  14.372
18477SOL    HW257329  10.598   5.727  14.434
18478SOL     OW57330   6.069  13.087   8.724
18478SOL    HW157331   6.086  13.164   8.669
18478SOL    HW257332   5.990  13.048   8.686
18479SOL     OW57333   9.687   3.612   9.232
18479SOL    HW157334   9.627   3.584   9.163
18479SOL    HW257335   9.682   3.542   9.297
18480SOL     OW57336   8.980   3.813   5.251
18480SOL    HW157337   9.075   3.807   5.257
18480SOL    HW257338   8.948   3.737   5.300
18481SOL     OW57339  11.839  14.829   4.535
18481SOL    HW157340  11.870   0.016   4.603
18481SOL    HW257341  11.902  14.840   4.464
18482SOL     OW57342  12.109  11.978   6.861
18482SOL    HW157343  12.111  12.030   6.781
18482SOL    HW257344  12.200  11.970   6.887
18483SOL     OW57345   8.656   7.228   7.843
18483SOL    HW157346   8.673   7.134   7.842
18483SOL    HW257347   8.594   7.240   7.915
18484SOL     OW57348  14.468  11.982  13.627
18484SOL    HW157349  14.378  11.994  13.596
18484SOL    HW257350  14.517  12.051  13.582
18485SOL     OW57351   7.415   3.354  14.683
18485SOL    HW157352   7.415   3.444  14.650
18485SOL    HW257353   7.364   3.305  14.618
18486SOL     OW57354  10.032   9.683   9.665
18486SOL    HW157355  10.004   9.612   9.722
18486SOL    HW257356  10.111   9.717   9.707
18487SOL     OW57357  14.356   5.682   4.424
18487SOL    HW157358  14.441   5.701   4.464
18487SOL    HW257359  14.323   5.768   4.397
18488SOL     OW57360   6.055   3.871   6.880
18488SOL    HW157361   6.001   3.941   6.843
18488SOL    HW257362   6.042   3.797   6.821
18489SOL     OW57363   8.140  10.981  10.298
18489SOL    HW157364   8.135  11.061  10.350
18489SOL    HW257365   8.199  11.003  10.226
18490SOL     OW57366  10.149   5.613   2.085
18490SOL    HW157367  10.218   5.564   2.129
18490SOL    HW257368  10.117   5.674   2.151
18491SOL     OW57369   9.935   0.911   5.867
18491SOL    HW157370  10.001   0.955   5.921
18491SOL    HW257371   9.913   0.974   5.799
18492SOL     OW57372   2.766  10.656   9.288
18492SOL    HW157373   2.730  10.604   9.216
18492SOL    HW257374   2.839  10.704   9.249
18493SOL     OW57375   6.723   4.969  10.350
18493SOL    HW157376   6.751   5.061  10.342
18493SOL    HW257377   6.637   4.966  10.308
18494SOL     OW57378   4.544  12.939   8.855
18494SOL    HW157379   4.463  12.983   8.883
18494SOL    HW257380   4.526  12.911   8.766
18495SOL     OW57381   8.191  12.359   0.036
18495SOL    HW157382   8.186  12.438  14.855
18495SOL    HW257383   8.124  12.301   0.000
18496SOL     OW57384  10.017   1.508   2.713
18496SOL    HW157385  10.085   1.576   2.714
18496SOL    HW257386   9.990   1.501   2.805
18497SOL     OW57387   9.788   0.833   2.996
18497SOL    HW157388   9.769   0.777   3.071
18497SOL    HW257389   9.789   0.922   3.032
18498SOL     OW57390  10.958   1.393   0.656
18498SOL    HW157391  10.866   1.407   0.633
18498SOL    HW257392  10.960   1.397   0.751
18499SOL     OW57393  10.256   0.751   6.746
18499SOL    HW157394  10.291   0.729   6.832
18499SOL    HW257395  10.220   0.668   6.714
18500SOL     OW57396  12.806   3.417  12.839
18500SOL    HW157397  12.833   3.435  12.930
18500SOL    HW257398  12.784   3.324  12.839
18501SOL     OW57399   2.750   0.331   5.467
18501SOL    HW157400   2.778   0.326   5.558
18501SOL    HW257401   2.671   0.277   5.463
18502SOL     OW57402   3.484  11.625   6.552
18502SOL    HW157403   3.529  11.697   6.508
18502SOL    HW257404   3.501  11.548   6.497
18503SOL     OW57405   1.293  11.472  13.578
18503SOL    HW157406   1.352  11.524  13.522
18503SOL    HW257407   1.224  11.533  13.602
18504SOL     OW57408   9.264   0.973   5.850
18504SOL    HW157409   9.234   1.045   5.905
18504SOL    HW257410   9.259   0.896   5.906
18505SOL     OW57411   6.606   9.206  13.547
18505SOL    HW157412   6.633   9.124  13.506
18505SOL    HW257413   6.605   9.186  13.641
18506SOL     OW57414   7.867  13.874   2.219
18506SOL    HW157415   7.961  13.860   2.216
18506SOL    HW257416   7.849  13.935   2.147
18507SOL     OW57417   7.543   4.763   3.310
18507SOL    HW157418   7.555   4.852   3.345
18507SOL    HW257419   7.631   4.727   3.304
18508SOL     OW57420  10.123  12.725   3.546
18508SOL    HW157421  10.107  12.636   3.579
18508SOL    HW257422  10.104  12.782   3.620
18509SOL     OW57423   7.195   0.329  10.663
18509SOL    HW157424   7.194   0.252  10.720
18509SOL    HW257425   7.130   0.310  10.596
18510SOL     OW57426  13.864  10.495  11.153
18510SOL    HW157427  13.918  10.417  11.154
18510SOL    HW257428  13.775  10.462  11.141
18511SOL     OW57429   7.888   1.591   8.922
18511SOL    HW157430   7.861   1.501   8.940
18511SOL    HW257431   7.816   1.627   8.870
18512SOL     OW57432  10.832   6.693   8.625
18512SOL    HW157433  10.796   6.605   8.631
18512SOL    HW257434  10.918   6.687   8.667
18513SOL     OW57435  12.421  12.941   8.892
18513SOL    HW157436  12.344  12.936   8.835
18513SOL    HW257437  12.496  12.938   8.832
18514SOL     OW57438  11.544   0.165   0.086
18514SOL    HW157439  11.489   0.216   0.145
18514SOL    HW257440  11.633   0.177   0.119
18515SOL     OW57441   8.887   1.218   1.723
18515SOL    HW157442   8.794   1.225   1.745
18515SOL    HW257443   8.893   1.252   1.634
18516SOL     OW57444  11.368  10.762  10.765
18516SOL    HW157445  11.280  10.777  10.800
18516SOL    HW257446  11.416  10.721  10.836
18517SOL     OW57447   1.040   8.595   4.969
18517SOL    HW157448   1.125   8.551   4.968
18517SOL    HW257449   0.976   8.523   4.966
18518SOL     OW57450   4.325   5.809  10.568
18518SOL    HW157451   4.329   5.826  10.662
18518SOL    HW257452   4.407   5.764  10.548
18519SOL     OW57453  11.657   1.564  13.898
18519SOL    HW157454  11.571   1.603  13.883
18519SOL    HW257455  11.678   1.586  13.989
18520SOL     OW57456  12.909   2.179   6.641
18520SOL    HW157457  12.909   2.249   6.706
18520SOL    HW257458  12.829   2.194   6.589
18521SOL     OW57459   4.744   1.015   6.265
18521SOL    HW157460   4.662   0.988   6.305
18521SOL    HW257461   4.793   1.058   6.336
18522SOL     OW57462   8.650   1.837  12.679
18522SOL    HW157463   8.624   1.755  12.722
18522SOL    HW257464   8.744   1.842  12.693
18523SOL     OW57465   1.153   9.747   7.471
18523SOL    HW157466   1.144   9.727   7.378
18523SOL    HW257467   1.065   9.738   7.507
18524SOL     OW57468   0.320  13.345   8.951
18524SOL    HW157469   0.252  13.330   8.886
18524SOL    HW257470   0.291  13.424   8.997
18525SOL     OW57471   7.295  11.829  12.948
18525SOL    HW157472   7.357  11.766  12.913
18525SOL    HW257473   7.344  11.910  12.957
18526SOL     OW57474  14.622   6.220   9.281
18526SOL    HW157475  14.718   6.225   9.287
18526SOL    HW257476  14.604   6.221   9.187
18527SOL     OW57477  10.390   4.150   1.725
18527SOL    HW157478  10.443   4.195   1.659
18527SOL    HW257479  10.342   4.220   1.769
18528SOL     OW57480  13.475  12.523   8.012
18528SOL    HW157481  13.391  12.505   8.055
18528SOL    HW257482  13.529  12.447   8.032
18529SOL     OW57483  13.071   1.369  10.771
18529SOL    HW157484  13.083   1.448  10.822
18529SOL    HW257485  13.053   1.301  10.836
18530SOL     OW57486   7.522   9.600  14.467
18530SOL    HW157487   7.478   9.597  14.551
18530SOL    HW257488   7.586   9.528  14.470
18531SOL     OW57489  12.384   3.251  10.233
18531SOL    HW157490  12.464   3.198  10.230
18531SOL    HW257491  12.407   3.331  10.187
18532SOL     OW57492   8.326   4.446   3.036
18532SOL    HW157493   8.244   4.397   3.028
18532SOL    HW257494   8.345   4.476   2.947
18533SOL     OW57495   4.403  14.646   4.006
18533SOL    HW157496   4.347  14.608   4.074
18533SOL    HW257497   4.392  14.740   4.015
18534SOL     OW57498   4.812  14.542  14.153
18534SOL    HW157499   4.796  14.464  14.100
18534SOL    HW257500   4.787  14.517  14.241
18535SOL     OW57501   6.663   0.203   2.885
18535SOL    HW157502   6.580   0.156   2.881
18535SOL    HW257503   6.647   0.283   2.834
18536SOL     OW57504   1.035   6.838   1.318
18536SOL    HW157505   1.116   6.862   1.364
18536SOL    HW257506   0.966   6.885   1.365
18537SOL     OW57507   6.720   8.028   1.111
18537SOL    HW157508   6.649   8.051   1.171
18537SOL    HW257509   6.730   7.933   1.120
18538SOL     OW57510   6.977   7.732   8.033
18538SOL    HW157511   6.959   7.639   8.044
18538SOL    HW257512   6.903   7.777   8.074
18539SOL     OW57513  12.998   1.871   4.636
18539SOL    HW157514  12.927   1.924   4.672
18539SOL    HW257515  13.078   1.917   4.661
18540SOL     OW57516   9.614   7.832   8.429
18540SOL    HW157517   9.543   7.892   8.451
18540SOL    HW257518   9.577   7.775   8.362
18541SOL     OW57519   9.191   7.774   1.981
18541SOL    HW157520   9.199   7.695   2.034
18541SOL    HW257521   9.155   7.744   1.898
18542SOL     OW57522  13.117   1.380   8.431
18542SOL    HW157523  13.188   1.318   8.413
18542SOL    HW257524  13.048   1.327   8.471
18543SOL     OW57525  13.698   7.015   7.601
18543SOL    HW157526  13.675   7.108   7.598
18543SOL    HW257527  13.683   6.984   7.512
18544SOL     OW57528   1.570   9.413   7.990
18544SOL    HW157529   1.574   9.394   8.084
18544SOL    HW257530   1.579   9.508   7.984
18545SOL     OW57531   3.215  10.117   8.531
18545SOL    HW157532   3.178  10.128   8.444
18545SOL    HW257533   3.306  10.147   8.524
18546SOL     OW57534  10.175  13.878  14.373
18546SOL    HW157535  10.188  13.794  14.330
18546SOL    HW257536  10.093  13.868  14.421
18547SOL     OW57537   0.792   2.223   6.187
18547SOL    HW157538   0.777   2.129   6.184
18547SOL    HW257539   0.755   2.256   6.105
18548SOL     OW57540   0.806   3.441   2.570
18548SOL    HW157541   0.845   3.355   2.589
18548SOL    HW257542   0.728   3.444   2.626
18549SOL     OW57543  14.867   4.723   8.780
18549SOL    HW157544  14.778   4.699   8.755
18549SOL    HW257545   0.007   4.812   8.747
18550SOL     OW57546   0.477  13.561  11.904
18550SOL    HW157547   0.472  13.638  11.960
18550SOL    HW257548   0.386  13.532  11.894
18551SOL     OW57549   7.026  10.260  14.617
18551SOL    HW157550   7.082  10.274  14.694
18551SOL    HW257551   7.063  10.184  14.573
18552SOL     OW57552   3.035   3.393   8.281
18552SOL    HW157553   2.955   3.363   8.239
18552SOL    HW257554   3.078   3.313   8.312
18553SOL     OW57555   7.917   5.407   0.290
18553SOL    HW157556   7.901   5.438   0.201
18553SOL    HW257557   7.877   5.475   0.346
18554SOL     OW57558  14.715   5.707  12.939
18554SOL    HW157559  14.658   5.762  12.992
18554SOL    HW257560  14.765   5.656  13.003
18555SOL     OW57561  11.145   2.979   9.074
18555SOL    HW157562  11.082   3.009   9.009
18555SOL    HW257563  11.168   3.059   9.123
18556SOL     OW57564   1.083  13.090  11.537
18556SOL    HW157565   1.134  13.038  11.599
18556SOL    HW257566   1.048  13.162  11.589
18557SOL     OW57567   3.272   3.164   8.526
18557SOL    HW157568   3.337   3.234   8.532
18557SOL    HW257569   3.313   3.088   8.567
18558SOL     OW57570   4.330   3.795  12.734
18558SOL    HW157571   4.316   3.800  12.640
18558SOL    HW257572   4.416   3.836  12.747
18559SOL     OW57573   8.960  12.767   3.677
18559SOL    HW157574   9.029  12.738   3.736
18559SOL    HW257575   8.886  12.709   3.696
18560SOL     OW57576  13.282  11.936   6.137
18560SOL    HW157577  13.312  12.008   6.081
18560SOL    HW257578  13.193  11.918   6.106
18561SOL     OW57579   8.634  14.311   8.771
18561SOL    HW157580   8.587  14.394   8.764
18561SOL    HW257581   8.725  14.336   8.786
18562SOL     OW57582   6.086   3.178   7.405
18562SOL    HW157583   6.062   3.097   7.449
18562SOL    HW257584   6.055   3.247   7.465
18563SOL     OW57585   7.971   8.118   9.681
18563SOL    HW157586   7.879   8.104   9.658
18563SOL    HW257587   7.980   8.081   9.769
18564SOL     OW57588   5.352   5.557  10.682
18564SOL    HW157589   5.388   5.484  10.733
18564SOL    HW257590   5.427   5.595  10.638
18565SOL     OW57591  13.415  11.637  10.696
18565SOL    HW157592  13.473  11.567  10.725
18565SOL    HW257593  13.405  11.693  10.773
18566SOL     OW57594   1.859   6.080   5.193
18566SOL    HW157595   1.804   6.007   5.167
18566SOL    HW257596   1.916   6.044   5.262
18567SOL     OW57597   5.933   0.029   4.298
18567SOL    HW157598   5.949   0.099   4.235
18567SOL    HW257599   5.921   0.074   4.382
18568SOL     OW57600  12.246   6.209  10.301
18568SOL    HW157601  12.214   6.258  10.376
18568SOL    HW257602  12.342   6.216  10.307
18569SOL     OW57603   3.669   6.342  12.088
18569SOL    HW157604   3.607   6.399  12.042
18569SOL    HW257605   3.753   6.360  12.046
18570SOL     OW57606  10.749  11.070   6.501
18570SOL    HW157607  10.763  11.127   6.425
18570SOL    HW257608  10.811  10.999   6.490
18571SOL     OW57609   7.263   2.991   5.044
18571SOL    HW157610   7.173   2.962   5.028
18571SOL    HW257611   7.317   2.937   4.986
18572SOL     OW57612  12.353   4.920   9.756
18572SOL    HW157613  12.375   4.916   9.664
18572SOL    HW257614  12.321   4.832   9.777
18573SOL     OW57615   0.549   2.780   8.582
18573SOL    HW157616   0.563   2.790   8.488
18573SOL    HW257617   0.576   2.865   8.618
18574SOL     OW57618   1.537  10.722   1.098
18574SOL    HW157619   1.450  10.697   1.065
18574SOL    HW257620   1.572  10.641   1.135
18575SOL     OW57621   4.383   1.596  14.494
18575SOL    HW157622   4.401   1.690  14.495
18575SOL    HW257623   4.407   1.566  14.582
18576SOL     OW57624  10.531   4.595   7.527
18576SOL    HW157625  10.557   4.622   7.615
18576SOL    HW257626  10.562   4.666   7.470
18577SOL     OW57627   2.225   9.205   1.200
18577SOL    HW157628   2.146   9.229   1.249
18577SOL    HW257629   2.208   9.117   1.168
18578SOL     OW57630   0.134   9.870  11.228
18578SOL    HW157631   0.224   9.842  11.238
18578SOL    HW257632   0.082   9.800  11.268
18579SOL     OW57633  12.317   3.333   3.692
18579SOL    HW157634  12.368   3.312   3.614
18579SOL    HW257635  12.229   3.300   3.674
18580SOL     OW57636   0.806   6.366   6.657
18580SOL    HW157637   0.842   6.278   6.667
18580SOL    HW257638   0.868   6.411   6.601
18581SOL     OW57639   1.771   7.142  14.595
18581SOL    HW157640   1.730   7.113  14.513
18581SOL    HW257641   1.808   7.228  14.574
18582SOL     OW57642  10.080   9.640   9.094
18582SOL    HW157643  10.091   9.735   9.089
18582SOL    HW257644  10.070   9.622   9.187
18583SOL     OW57645   2.776   5.487   8.883
18583SOL    HW157646   2.708   5.496   8.949
18583SOL    HW257647   2.846   5.438   8.927
18584SOL     OW57648  12.039  11.094   6.701
18584SOL    HW157649  12.076  11.033   6.638
18584SOL    HW257650  11.945  11.094   6.681
18585SOL     OW57651  12.020  11.889   7.329
18585SOL    HW157652  12.025  11.810   7.384
18585SOL    HW257653  12.087  11.876   7.263
18586SOL     OW57654   8.499  13.875  11.533
18586SOL    HW157655   8.542  13.832  11.459
18586SOL    HW257656   8.479  13.803  11.593
18587SOL     OW57657   5.196   5.796   0.783
18587SOL    HW157658   5.204   5.891   0.792
18587SOL    HW257659   5.222   5.762   0.868
18588SOL     OW57660   3.285   6.350   6.077
18588SOL    HW157661   3.299   6.426   6.020
18588SOL    HW257662   3.342   6.366   6.152
18589SOL     OW57663   4.064  10.278  12.146
18589SOL    HW157664   4.014  10.282  12.064
18589SOL    HW257665   4.138  10.221  12.125
18590SOL     OW57666   8.274   2.381   5.225
18590SOL    HW157667   8.201   2.325   5.253
18590SOL    HW257668   8.281   2.447   5.294
18591SOL     OW57669   1.986   8.955   0.095
18591SOL    HW157670   2.046   8.893   0.053
18591SOL    HW257671   1.932   8.901   0.153
18592SOL     OW57672   4.938   2.783  13.595
18592SOL    HW157673   5.009   2.840  13.565
18592SOL    HW257674   4.877   2.843  13.638
18593SOL     OW57675   6.697   9.538   1.857
18593SOL    HW157676   6.628   9.597   1.886
18593SOL    HW257677   6.656   9.485   1.789
18594SOL     OW57678   3.228  14.327   3.384
18594SOL    HW157679   3.244  14.330   3.289
18594SOL    HW257680   3.273  14.247   3.412
18595SOL     OW57681   7.082   7.618   3.378
18595SOL    HW157682   7.170   7.586   3.359
18595SOL    HW257683   7.053   7.658   3.295
18596SOL     OW57684  12.351  14.821  13.358
18596SOL    HW157685  12.441  14.790  13.350
18596SOL    HW257686  12.325  14.796  13.446
18597SOL     OW57687  14.191   1.299  12.019
18597SOL    HW157688  14.173   1.248  11.940
18597SOL    HW257689  14.129   1.372  12.014
18598SOL     OW57690   6.218  14.167   1.785
18598SOL    HW157691   6.134  14.132   1.756
18598SOL    HW257692   6.195  14.242   1.840
18599SOL     OW57693  13.811   9.394   8.528
18599SOL    HW157694  13.731   9.446   8.537
18599SOL    HW257695  13.855   9.404   8.612
18600SOL     OW57696  10.024  10.823   0.328
18600SOL    HW157697   9.980  10.778   0.400
18600SOL    HW257698  10.033  10.757   0.260
18601SOL     OW57699   2.710   4.697  13.064
18601SOL    HW157700   2.799   4.684  13.097
18601SOL    HW257701   2.707   4.788  13.038
18602SOL     OW57702  11.401   0.404   8.808
18602SOL    HW157703  11.317   0.444   8.788
18602SOL    HW257704  11.394   0.316   8.771
18603SOL     OW57705   7.158   4.880   0.868
18603SOL    HW157706   7.236   4.918   0.909
18603SOL    HW257707   7.094   4.951   0.869
18604SOL     OW57708   1.696   5.792   4.427
18604SOL    HW157709   1.625   5.820   4.484
18604SOL    HW257710   1.760   5.753   4.486
18605SOL     OW57711   4.026   7.987   1.328
18605SOL    HW157712   4.099   7.986   1.390
18605SOL    HW257713   4.039   8.067   1.277
18606SOL     OW57714   1.816  10.494   8.063
18606SOL    HW157715   1.747  10.555   8.088
18606SOL    HW257716   1.888  10.514   8.123
18607SOL     OW57717   5.406   2.483   5.647
18607SOL    HW157718   5.330   2.430   5.669
18607SOL    HW257719   5.388   2.517   5.559
18608SOL     OW57720  12.752   2.631   9.548
18608SOL    HW157721  12.802   2.712   9.544
18608SOL    HW257722  12.714   2.622   9.460
18609SOL     OW57723   3.949  13.925   3.430
18609SOL    HW157724   4.037  13.890   3.446
18609SOL    HW257725   3.917  13.949   3.517
18610SOL     OW57726   6.956   0.775   2.826
18610SOL    HW157727   6.914   0.821   2.898
18610SOL    HW257728   6.972   0.843   2.761
18611SOL     OW57729   6.913   0.284   8.351
18611SOL    HW157730   6.982   0.339   8.315
18611SOL    HW257731   6.956   0.200   8.368
18612SOL     OW57732   2.657   6.842   8.709
18612SOL    HW157733   2.737   6.876   8.669
18612SOL    HW257734   2.682   6.823   8.799
18613SOL     OW57735   2.048   2.500   1.111
18613SOL    HW157736   2.102   2.461   1.042
18613SOL    HW257737   2.110   2.520   1.181
18614SOL     OW57738   0.934  12.435   1.050
18614SOL    HW157739   0.880  12.365   1.087
18614SOL    HW257740   0.942  12.411   0.957
18615SOL     OW57741   3.080  11.079  11.277
18615SOL    HW157742   3.112  11.139  11.345
18615SOL    HW257743   3.090  10.992  11.316
18616SOL     OW57744  10.268   3.072   8.528
18616SOL    HW157745  10.347   3.099   8.481
18616SOL    HW257746  10.204   3.141   8.509
18617SOL     OW57747  14.667  10.841  14.334
18617SOL    HW157748  14.580  10.849  14.295
18617SOL    HW257749  14.722  10.805  14.265
18618SOL     OW57750   2.798   1.343   7.350
18618SOL    HW157751   2.788   1.431   7.385
18618SOL    HW257752   2.793   1.354   7.255
18619SOL     OW57753   4.498   3.203   6.955
18619SOL    HW157754   4.480   3.226   6.863
18619SOL    HW257755   4.587   3.233   6.970
18620SOL     OW57756   3.413   7.403   5.630
18620SOL    HW157757   3.342   7.458   5.661
18620SOL    HW257758   3.476   7.401   5.702
18621SOL     OW57759  13.780  10.443   6.752
18621SOL    HW157760  13.732  10.521   6.780
18621SOL    HW257761  13.716  10.372   6.761
18622SOL     OW57762   5.022  12.699   3.443
18622SOL    HW157763   5.049  12.617   3.401
18622SOL    HW257764   5.050  12.689   3.534
18623SOL     OW57765  10.562   9.536   3.577
18623SOL    HW157766  10.557   9.445   3.606
18623SOL    HW257767  10.471   9.562   3.564
18624SOL     OW57768  14.357   4.923  14.720
18624SOL    HW157769  14.351   5.017  14.737
18624SOL    HW257770  14.449   4.903  14.734
18625SOL     OW57771  12.409  12.386  12.905
18625SOL    HW157772  12.324  12.408  12.942
18625SOL    HW257773  12.405  12.291  12.892
18626SOL     OW57774  14.555  10.051   2.054
18626SOL    HW157775  14.480  10.022   2.105
18626SOL    HW257776  14.566  10.143   2.077
18627SOL     OW57777   8.918   4.866   6.184
18627SOL    HW157778   8.905   4.793   6.245
18627SOL    HW257779   8.834   4.911   6.184
18628SOL     OW57780   8.090  13.583   5.928
18628SOL    HW157781   8.146  13.648   5.969
18628SOL    HW257782   8.111  13.588   5.835
18629SOL     OW57783  13.807  12.056  10.453
18629SOL    HW157784  13.802  12.074  10.547
18629SOL    HW257785  13.762  11.972  10.442
18630SOL     OW57786  10.016   4.225  13.712
18630SOL    HW157787  10.003   4.138  13.751
18630SOL    HW257788   9.928   4.252  13.684
18631SOL     OW57789  10.983  14.193   9.558
18631SOL    HW157790  10.968  14.268   9.615
18631SOL    HW257791  10.897  14.172   9.523
18632SOL     OW57792  13.071  10.669  10.907
18632SOL    HW157793  13.091  10.582  10.943
18632SOL    HW257794  12.991  10.656  10.855
18633SOL     OW57795   3.589   4.189  10.103
18633SOL    HW157796   3.673   4.173  10.146
18633SOL    HW257797   3.544   4.104  10.106
18634SOL     OW57798   4.056  14.225  10.423
18634SOL    HW157799   4.143  14.187  10.411
18634SOL    HW257800   3.998  14.163  10.378
18635SOL     OW57801   5.849   9.896   6.358
18635SOL    HW157802   5.804   9.846   6.290
18635SOL    HW257803   5.939   9.865   6.356
18636SOL     OW57804   2.602   3.214   7.970
18636SOL    HW157805   2.658   3.144   8.003
18636SOL    HW257806   2.662   3.282   7.942
18637SOL     OW57807  11.829  11.737   9.078
18637SOL    HW157808  11.801  11.739   8.986
18637SOL    HW257809  11.811  11.826   9.110
18638SOL     OW57810  12.063  14.354   4.224
18638SOL    HW157811  12.064  14.322   4.315
18638SOL    HW257812  12.077  14.448   4.233
18639SOL     OW57813  12.483  12.883  14.157
18639SOL    HW157814  12.507  12.904  14.248
18639SOL    HW257815  12.466  12.968  14.117
18640SOL     OW57816  10.632   8.507   9.366
18640SOL    HW157817  10.684   8.445   9.417
18640SOL    HW257818  10.664   8.593   9.393
18641SOL     OW57819  11.387  14.226   1.889
18641SOL    HW157820  11.427  14.312   1.893
18641SOL    HW257821  11.368  14.212   1.796
18642SOL     OW57822   5.589  12.570   4.140
18642SOL    HW157823   5.520  12.635   4.126
18642SOL    HW257824   5.620  12.550   4.052
18643SOL     OW57825  14.729   3.521  10.512
18643SOL    HW157826  14.782   3.582  10.564
18643SOL    HW257827  14.759   3.435  10.539
18644SOL     OW57828   5.646  11.709   8.327
18644SOL    HW157829   5.700  11.666   8.393
18644SOL    HW257830   5.624  11.794   8.365
18645SOL     OW57831   9.490   9.416   7.092
18645SOL    HW157832   9.577   9.453   7.081
18645SOL    HW257833   9.457   9.455   7.173
18646SOL     OW57834   8.192  11.619   0.301
18646SOL    HW157835   8.275  11.653   0.267
18646SOL    HW257836   8.217  11.559   0.371
18647SOL     OW57837   5.427   2.310   9.900
18647SOL    HW157838   5.465   2.233   9.857
18647SOL    HW257839   5.469   2.385   9.859
18648SOL     OW57840  11.817   2.479   9.269
18648SOL    HW157841  11.761   2.552   9.295
18648SOL    HW257842  11.855   2.446   9.351
18649SOL     OW57843  12.512   9.092  12.146
18649SOL    HW157844  12.495   9.054  12.060
18649SOL    HW257845  12.462   9.037  12.206
18650SOL     OW57846   7.388   8.172   7.580
18650SOL    HW157847   7.357   8.088   7.612
18650SOL    HW257848   7.468   8.189   7.628
18651SOL     OW57849   1.801   1.268  10.536
18651SOL    HW157850   1.741   1.276  10.462
18651SOL    HW257851   1.884   1.243  10.496
18652SOL     OW57852  13.011  12.150   6.624
18652SOL    HW157853  12.988  12.072   6.674
18652SOL    HW257854  13.080  12.122   6.565
18653SOL     OW57855   5.165   5.711   2.907
18653SOL    HW157856   5.071   5.725   2.905
18653SOL    HW257857   5.180   5.637   2.848
18654SOL     OW57858  13.465   9.835  10.419
18654SOL    HW157859  13.458   9.883  10.337
18654SOL    HW257860  13.526   9.764  10.401
18655SOL     OW57861  10.030  10.858   9.764
18655SOL    HW157862   9.935  10.864   9.754
18655SOL    HW257863  10.065  10.901   9.685
18656SOL     OW57864   5.305   1.515  12.517
18656SOL    HW157865   5.260   1.519  12.433
18656SOL    HW257866   5.314   1.421  12.535
18657SOL     OW57867   6.325  12.221  10.368
18657SOL    HW157868   6.308  12.152  10.303
18657SOL    HW257869   6.239  12.250  10.396
18658SOL     OW57870  14.196   6.727   0.811
18658SOL    HW157871  14.203   6.761   0.900
18658SOL    HW257872  14.218   6.634   0.820
18659SOL     OW57873   9.997   4.958   2.717
18659SOL    HW157874   9.934   4.922   2.654
18659SOL    HW257875   9.944   4.976   2.795
18660SOL     OW57876   9.919  12.391   8.321
18660SOL    HW157877   9.938  12.434   8.404
18660SOL    HW257878   9.961  12.446   8.255
18661SOL     OW57879  11.429   1.657  13.104
18661SOL    HW157880  11.441   1.752  13.110
18661SOL    HW257881  11.384   1.644  13.020
18662SOL     OW57882   2.064  10.561   1.243
18662SOL    HW157883   2.024  10.573   1.157
18662SOL    HW257884   1.991  10.552   1.303
18663SOL     OW57885   7.700   6.790   6.121
18663SOL    HW157886   7.633   6.826   6.179
18663SOL    HW257887   7.766   6.754   6.181
18664SOL     OW57888  13.180   0.191   4.550
18664SOL    HW157889  13.143   0.154   4.470
18664SOL    HW257890  13.117   0.167   4.619
18665SOL     OW57891  14.639  12.858   6.306
18665SOL    HW157892  14.571  12.906   6.353
18665SOL    HW257893  14.696  12.824   6.375
18666SOL     OW57894   8.063   7.511   1.041
18666SOL    HW157895   8.145   7.479   1.004
18666SOL    HW257896   8.082   7.601   1.067
18667SOL     OW57897   9.229   3.070   4.763
18667SOL    HW157898   9.295   3.103   4.702
18667SOL    HW257899   9.145   3.093   4.723
18668SOL     OW57900   6.498   3.091   2.640
18668SOL    HW157901   6.496   3.049   2.726
18668SOL    HW257902   6.535   3.178   2.657
18669SOL     OW57903  11.199   5.565   0.086
18669SOL    HW157904  11.158   5.636   0.036
18669SOL    HW257905  11.287   5.598   0.106
18670SOL     OW57906   5.500  14.164  12.429
18670SOL    HW157907   5.457  14.228  12.486
18670SOL    HW257908   5.444  14.086  12.435
18671SOL     OW57909  11.385  10.559   4.708
18671SOL    HW157910  11.367  10.530   4.618
18671SOL    HW257911  11.333  10.638   4.718
18672SOL     OW57912  11.218  13.596   9.994
18672SOL    HW157913  11.220  13.607  10.089
18672SOL    HW257914  11.258  13.676   9.960
18673SOL     OW57915   2.197   0.862   4.272
18673SOL    HW157916   2.255   0.843   4.198
18673SOL    HW257917   2.250   0.919   4.328
18674SOL     OW57918   5.282  10.019  14.299
18674SOL    HW157919   5.331  10.071  14.363
18674SOL    HW257920   5.205   9.988  14.348
18675SOL     OW57921  11.298   1.478   8.863
18675SOL    HW157922  11.276   1.517   8.948
18675SOL    HW257923  11.328   1.551   8.810
18676SOL     OW57924   2.280  10.337   4.171
18676SOL    HW157925   2.288  10.377   4.084
18676SOL    HW257926   2.365  10.351   4.212
18677SOL     OW57927  13.054  10.066   7.496
18677SOL    HW157928  12.960  10.081   7.494
18677SOL    HW257929  13.076  10.036   7.407
18678SOL     OW57930  10.804   0.453   3.895
18678SOL    HW157931  10.839   0.542   3.886
18678SOL    HW257932  10.712   0.460   3.870
18679SOL     OW57933   6.149  12.567   6.726
18679SOL    HW157934   6.079  12.586   6.664
18679SOL    HW257935   6.123  12.614   6.806
18680SOL     OW57936  13.763   8.958   9.886
18680SOL    HW157937  13.822   8.912   9.945
18680SOL    HW257938  13.804   8.952   9.800
18681SOL     OW57939  14.692   4.774   7.209
18681SOL    HW157940  14.696   4.680   7.192
18681SOL    HW257941  14.708   4.815   7.124
18682SOL     OW57942  10.246  14.756  10.654
18682SOL    HW157943  10.210  14.844  10.658
18682SOL    HW257944  10.228  14.718  10.740
18683SOL     OW57945   8.679   6.563  14.137
18683SOL    HW157946   8.598   6.563  14.085
18683SOL    HW257947   8.679   6.479  14.182
18684SOL     OW57948  12.296   6.292   5.882
18684SOL    HW157949  12.265   6.357   5.820
18684SOL    HW257950  12.217   6.266   5.931
18685SOL     OW57951  12.623   9.241   4.840
18685SOL    HW157952  12.573   9.287   4.773
18685SOL    HW257953  12.668   9.170   4.793
18686SOL     OW57954   9.496   9.027  11.263
18686SOL    HW157955   9.559   9.010  11.193
18686SOL    HW257956   9.525   8.972  11.335
18687SOL     OW57957   3.273   1.446  11.852
18687SOL    HW157958   3.270   1.531  11.808
18687SOL    HW257959   3.241   1.463  11.940
18688SOL     OW57960   4.844   3.263   7.259
18688SOL    HW157961   4.813   3.297   7.343
18688SOL    HW257962   4.925   3.311   7.242
18689SOL     OW57963   0.904  14.361   6.735
18689SOL    HW157964   0.948  14.401   6.810
18689SOL    HW257965   0.900  14.431   6.670
18690SOL     OW57966  12.443  10.508  12.510
18690SOL    HW157967  12.501  10.437  12.483
18690SOL    HW257968  12.386  10.469  12.576
18691SOL     OW57969  14.596   1.345   3.873
18691SOL    HW157970  14.666   1.408   3.889
18691SOL    HW257971  14.517   1.387   3.907
18692SOL     OW57972   4.543  14.613  13.740
18692SOL    HW157973   4.619  14.639  13.793
18692SOL    HW257974   4.467  14.636  13.795
18693SOL     OW57975  13.531  12.016  14.584
18693SOL    HW157976  13.475  11.958  14.635
18693SOL    HW257977  13.604  12.038  14.643
18694SOL     OW57978  11.726  14.486   9.227
18694SOL    HW157979  11.658  14.449   9.171
18694SOL    HW257980  11.690  14.570   9.257
18695SOL     OW57981   9.549   7.140   4.340
18695SOL    HW157982   9.456   7.162   4.344
18695SOL    HW257983   9.594   7.219   4.369
18696SOL     OW57984   7.792   1.206   9.921
18696SOL    HW157985   7.809   1.143   9.852
18696SOL    HW257986   7.729   1.267   9.883
18697SOL     OW57987   0.072   9.311   5.672
18697SOL    HW157988   0.124   9.317   5.592
18697SOL    HW257989   0.135   9.289   5.741
18698SOL     OW57990   7.397   1.272   8.721
18698SOL    HW157991   7.397   1.296   8.628
18698SOL    HW257992   7.483   1.234   8.736
18699SOL     OW57993  14.676  11.956   7.589
18699SOL    HW157994  14.677  12.042   7.633
18699SOL    HW257995  14.652  11.894   7.658
18700SOL     OW57996   2.834  13.811  13.006
18700SOL    HW157997   2.753  13.793  13.054
18700SOL    HW257998   2.871  13.888  13.048
18701SOL     OW57999   1.762  14.323   4.012
18701SOL    HW158000   1.740  14.296   3.922
18701SOL    HW258001   1.848  14.285   4.028
18702SOL     OW58002  10.805   3.903  13.953
18702SOL    HW158003  10.863   3.900  13.876
18702SOL    HW258004  10.757   3.984  13.943
18703SOL     OW58005   2.590  11.797  13.196
18703SOL    HW158006   2.556  11.874  13.151
18703SOL    HW258007   2.521  11.732  13.189
18704SOL     OW58008  13.890   4.651  11.554
18704SOL    HW158009  13.873   4.743  11.575
18704SOL    HW258010  13.984   4.640  11.569
18705SOL     OW58011  10.472  10.844   5.610
18705SOL    HW158012  10.417  10.794   5.549
18705SOL    HW258013  10.409  10.886   5.670
18706SOL     OW58014  13.733   3.950  11.299
18706SOL    HW158015  13.747   3.970  11.207
18706SOL    HW258016  13.649   3.993  11.320
18707SOL     OW58017   7.508   3.375   5.316
18707SOL    HW158018   7.541   3.304   5.370
18707SOL    HW258019   7.462   3.432   5.377
18708SOL     OW58020  10.457  12.345   1.015
18708SOL    HW158021  10.363  12.342   0.997
18708SOL    HW258022  10.463  12.342   1.111
18709SOL     OW58023   3.571  11.862   2.706
18709SOL    HW158024   3.499  11.801   2.721
18709SOL    HW258025   3.532  11.948   2.720
18710SOL     OW58026   7.459   4.795   7.424
18710SOL    HW158027   7.435   4.872   7.476
18710SOL    HW258028   7.378   4.771   7.379
18711SOL     OW58029  14.591  10.441  12.513
18711SOL    HW158030  14.545  10.358  12.525
18711SOL    HW258031  14.600  10.450  12.418
18712SOL     OW58032  10.123   0.736  11.113
18712SOL    HW158033  10.080   0.693  11.040
18712SOL    HW258034  10.054   0.791  11.152
18713SOL     OW58035   1.516   6.453   9.816
18713SOL    HW158036   1.452   6.515   9.781
18713SOL    HW258037   1.583   6.507   9.856
18714SOL     OW58038  10.620  11.312   3.729
18714SOL    HW158039  10.709  11.276   3.724
18714SOL    HW258040  10.626  11.385   3.790
18715SOL     OW58041   0.566   1.007   5.074
18715SOL    HW158042   0.582   1.017   5.168
18715SOL    HW258043   0.605   0.923   5.052
18716SOL     OW58044   1.146   4.802  10.148
18716SOL    HW158045   1.235   4.766  10.149
18716SOL    HW258046   1.152   4.882  10.200
18717SOL     OW58047  13.618   0.047  14.105
18717SOL    HW158048  13.633  14.865  14.029
18717SOL    HW258049  13.564   0.119  14.073
18718SOL     OW58050   7.369  11.592   4.819
18718SOL    HW158051   7.349  11.668   4.874
18718SOL    HW258052   7.285  11.553   4.799
18719SOL     OW58053   3.511   2.351  11.819
18719SOL    HW158054   3.433   2.363  11.874
18719SOL    HW258055   3.481   2.368  11.730
18720SOL     OW58056  11.994   1.329  13.891
18720SOL    HW158057  12.037   1.395  13.945
18720SOL    HW258058  12.060   1.259  13.882
18721SOL     OW58059   1.061   0.444  12.948
18721SOL    HW158060   1.076   0.350  12.963
18721SOL    HW258061   1.148   0.483  12.951
18722SOL     OW58062   2.672   9.414   7.130
18722SOL    HW158063   2.669   9.327   7.170
18722SOL    HW258064   2.698   9.398   7.040
18723SOL     OW58065   6.883   7.754   1.394
18723SOL    HW158066   6.959   7.801   1.363
18723SOL    HW258067   6.852   7.805   1.469
18724SOL     OW58068   2.796  10.261   2.196
18724SOL    HW158069   2.870  10.304   2.240
18724SOL    HW258070   2.759  10.203   2.262
18725SOL     OW58071   0.502   0.649  10.797
18725SOL    HW158072   0.485   0.717  10.862
18725SOL    HW258073   0.486   0.691  10.713
18726SOL     OW58074   6.457   0.931   5.631
18726SOL    HW158075   6.389   0.979   5.584
18726SOL    HW258076   6.446   0.957   5.722
18727SOL     OW58077   2.944  10.661   0.335
18727SOL    HW158078   2.931  10.580   0.384
18727SOL    HW258079   3.021  10.645   0.282
18728SOL     OW58080  10.269  12.014   2.907
18728SOL    HW158081  10.233  12.049   2.988
18728SOL    HW258082  10.200  12.029   2.842
18729SOL     OW58083  13.972  11.565   9.022
18729SOL    HW158084  13.984  11.472   9.041
18729SOL    HW258085  13.943  11.568   8.931
18730SOL     OW58086  10.308  12.911  10.476
18730SOL    HW158087  10.271  12.893  10.390
18730SOL    HW258088  10.255  12.859  10.537
18731SOL     OW58089   9.902   7.457  13.883
18731SOL    HW158090   9.995   7.472  13.870
18731SOL    HW258091   9.859   7.514  13.820
18732SOL     OW58092   5.768   1.224  11.313
18732SOL    HW158093   5.769   1.319  11.309
18732SOL    HW258094   5.753   1.195  11.223
18733SOL     OW58095   9.124   1.579   0.882
18733SOL    HW158096   9.172   1.661   0.872
18733SOL    HW258097   9.095   1.577   0.973
18734SOL     OW58098  11.599   7.683   9.995
18734SOL    HW158099  11.593   7.718  10.083
18734SOL    HW258100  11.512   7.696   9.957
18735SOL     OW58101   0.725   4.663  12.027
18735SOL    HW158102   0.664   4.644  12.099
18735SOL    HW258103   0.716   4.757  12.013
18736SOL     OW58104   3.985   1.979  11.723
18736SOL    HW158105   4.028   2.055  11.762
18736SOL    HW258106   3.929   1.945  11.793
18737SOL     OW58107  14.124   0.085   8.579
18737SOL    HW158108  14.111   0.069   8.672
18737SOL    HW258109  14.215   0.114   8.572
18738SOL     OW58110   0.855   7.200   4.465
18738SOL    HW158111   0.851   7.260   4.390
18738SOL    HW258112   0.921   7.136   4.440
18739SOL     OW58113   9.091  12.776   8.627
18739SOL    HW158114   9.169  12.736   8.665
18739SOL    HW258115   9.116  12.796   8.537
18740SOL     OW58116   5.780   2.121  10.420
18740SOL    HW158117   5.873   2.123  10.398
18740SOL    HW258118   5.757   2.212  10.439
18741SOL     OW58119   6.416   7.625   3.236
18741SOL    HW158120   6.415   7.710   3.280
18741SOL    HW258121   6.400   7.645   3.144
18742SOL     OW58122   1.651   4.877   5.936
18742SOL    HW158123   1.705   4.813   5.982
18742SOL    HW258124   1.566   4.874   5.980
18743SOL     OW58125   1.802  13.258   8.801
18743SOL    HW158126   1.723  13.234   8.849
18743SOL    HW258127   1.859  13.181   8.808
18744SOL     OW58128   1.283   0.999   9.117
18744SOL    HW158129   1.198   0.957   9.131
18744SOL    HW258130   1.347   0.935   9.149
18745SOL     OW58131  14.120   4.022   7.424
18745SOL    HW158132  14.212   4.006   7.445
18745SOL    HW258133  14.101   3.961   7.353
18746SOL     OW58134   4.188  12.370   9.240
18746SOL    HW158135   4.119  12.407   9.184
18746SOL    HW258136   4.199  12.435   9.310
18747SOL     OW58137  10.090   6.604   4.134
18747SOL    HW158138  10.079   6.538   4.202
18747SOL    HW258139  10.160   6.660   4.166
18748SOL     OW58140  12.755  13.079   1.115
18748SOL    HW158141  12.677  13.045   1.160
18748SOL    HW258142  12.734  13.070   1.022
18749SOL     OW58143   3.426   1.667   5.698
18749SOL    HW158144   3.435   1.643   5.605
18749SOL    HW258145   3.413   1.584   5.743
18750SOL     OW58146   9.569   4.454  13.642
18750SOL    HW158147   9.613   4.510  13.706
18750SOL    HW258148   9.577   4.501  13.560
18751SOL     OW58149   4.996   1.547   6.335
18751SOL    HW158150   4.997   1.465   6.286
18751SOL    HW258151   4.930   1.601   6.291
18752SOL     OW58152  13.750   4.393   0.699
18752SOL    HW158153  13.819   4.345   0.744
18752SOL    HW258154  13.669   4.348   0.724
18753SOL     OW58155  13.483  12.450   4.571
18753SOL    HW158156  13.518  12.509   4.637
18753SOL    HW258157  13.488  12.500   4.489
18754SOL     OW58158   4.314   5.476   8.235
18754SOL    HW158159   4.330   5.404   8.174
18754SOL    HW258160   4.225   5.461   8.266
18755SOL     OW58161   2.954   8.399  14.715
18755SOL    HW158162   2.943   8.418  14.808
18755SOL    HW258163   2.914   8.313  14.703
18756SOL     OW58164   5.344  10.987  12.070
18756SOL    HW158165   5.322  10.927  12.141
18756SOL    HW258166   5.261  11.001  12.024
18757SOL     OW58167   2.913   4.514   5.477
18757SOL    HW158168   2.914   4.603   5.512
18757SOL    HW258169   2.854   4.466   5.536
18758SOL     OW58170   5.913  12.043   5.100
18758SOL    HW158171   5.890  12.112   5.038
18758SOL    HW258172   5.976  11.988   5.053
18759SOL     OW58173   2.658   9.339  14.269
18759SOL    HW158174   2.686   9.388  14.192
18759SOL    HW258175   2.597   9.398  14.314
18760SOL     OW58176  11.351   8.659   4.710
18760SOL    HW158177  11.329   8.567   4.693
18760SOL    HW258178  11.289   8.687   4.777
18761SOL     OW58179   8.442   9.689   6.078
18761SOL    HW158180   8.418   9.677   6.170
18761SOL    HW258181   8.533   9.660   6.074
18762SOL     OW58182   2.230  12.844   3.324
18762SOL    HW158183   2.171  12.905   3.278
18762SOL    HW258184   2.210  12.857   3.416
18763SOL     OW58185  10.312  13.997   0.102
18763SOL    HW158186  10.321  14.092   0.095
18763SOL    HW258187  10.260  13.972   0.025
18764SOL     OW58188   8.603   3.953   2.836
18764SOL    HW158189   8.685   3.924   2.796
18764SOL    HW258190   8.592   3.896   2.912
18765SOL     OW58191   9.199  12.166  14.826
18765SOL    HW158192   9.284  12.201  14.801
18765SOL    HW258193   9.142  12.185  14.751
18766SOL     OW58194   6.787   1.538   5.679
18766SOL    HW158195   6.817   1.449   5.663
18766SOL    HW258196   6.780   1.577   5.591
18767SOL     OW58197   8.895   5.281  10.800
18767SOL    HW158198   8.839   5.210  10.833
18767SOL    HW258199   8.868   5.358  10.850
18768SOL     OW58200  13.550  11.007  14.780
18768SOL    HW158201  13.496  11.000  14.702
18768SOL    HW258202  13.637  10.980  14.752
18769SOL     OW58203  12.381  11.810   3.333
18769SOL    HW158204  12.357  11.876   3.268
18769SOL    HW258205  12.430  11.743   3.284
18770SOL     OW58206  13.551  10.024  14.279
18770SOL    HW158207  13.513  10.112  14.285
18770SOL    HW258208  13.644  10.039  14.265
18771SOL     OW58209  14.637  13.748  10.055
18771SOL    HW158210  14.658  13.790   9.971
18771SOL    HW258211  14.548  13.779  10.075
18772SOL     OW58212   5.580   3.574   8.923
18772SOL    HW158213   5.628   3.576   8.839
18772SOL    HW258214   5.648   3.556   8.988
18773SOL     OW58215   7.246   6.358  12.395
18773SOL    HW158216   7.211   6.392  12.477
18773SOL    HW258217   7.317   6.418  12.372
18774SOL     OW58218   7.783   2.416   3.831
18774SOL    HW158219   7.846   2.430   3.760
18774SOL    HW258220   7.765   2.323   3.829
18775SOL     OW58221  13.915   0.890  13.582
18775SOL    HW158222  13.860   0.812  13.579
18775SOL    HW258223  13.958   0.886  13.667
18776SOL     OW58224  12.617   0.499   0.038
18776SOL    HW158225  12.613   0.531  14.820
18776SOL    HW258226  12.536   0.449   0.049
18777SOL     OW58227  13.824   8.343   8.583
18777SOL    HW158228  13.825   8.429   8.542
18777SOL    HW258229  13.792   8.359   8.672
18778SOL     OW58230  10.133   3.397  13.556
18778SOL    HW158231  10.097   3.338  13.622
18778SOL    HW258232  10.079   3.476  13.563
18779SOL     OW58233   9.569  11.502   9.605
18779SOL    HW158234   9.498  11.450   9.643
18779SOL    HW258235   9.548  11.509   9.512
18780SOL     OW58236   6.508   2.640  12.791
18780SOL    HW158237   6.528   2.658  12.699
18780SOL    HW258238   6.420   2.603  12.790
18781SOL     OW58239   2.096  12.699  14.335
18781SOL    HW158240   2.143  12.631  14.287
18781SOL    HW258241   2.068  12.656  14.416
18782SOL     OW58242   9.783   5.077  13.551
18782SOL    HW158243   9.719   5.133  13.594
18782SOL    HW258244   9.868   5.115  13.574
18783SOL     OW58245   0.227  11.603  13.273
18783SOL    HW158246   0.223  11.510  13.253
18783SOL    HW258247   0.308  11.614  13.323
18784SOL     OW58248   2.946  10.838  14.347
18784SOL    HW158249   2.869  10.882  14.383
18784SOL    HW258250   2.911  10.764  14.299
18785SOL     OW58251   3.457  11.416  14.355
18785SOL    HW158252   3.525  11.374  14.408
18785SOL    HW258253   3.402  11.344  14.325
18786SOL     OW58254   8.058   8.572  12.052
18786SOL    HW158255   8.153   8.585  12.044
18786SOL    HW258256   8.034   8.620  12.131
18787SOL     OW58257   7.981   6.439  14.458
18787SOL    HW158258   8.051   6.484  14.506
18787SOL    HW258259   7.918   6.413  14.526
18788SOL     OW58260   3.307  11.345   9.150
18788SOL    HW158261   3.349  11.392   9.222
18788SOL    HW258262   3.371  11.278   9.124
18789SOL     OW58263  12.174   2.648  12.646
18789SOL    HW158264  12.167   2.742  12.626
18789SOL    HW258265  12.249   2.642  12.706
18790SOL     OW58266   5.843   0.223   7.171
18790SOL    HW158267   5.832   0.153   7.235
18790SOL    HW258268   5.755   0.257   7.158
18791SOL     OW58269   6.569  14.118   0.156
18791SOL    HW158270   6.579  14.206   0.119
18791SOL    HW258271   6.642  14.068   0.120
18792SOL     OW58272  14.082   1.282   2.125
18792SOL    HW158273  14.144   1.354   2.113
18792SOL    HW258274  14.042   1.271   2.038
18793SOL     OW58275  13.569   2.734   6.472
18793SOL    HW158276  13.572   2.828   6.453
18793SOL    HW258277  13.541   2.694   6.389
18794SOL     OW58278   8.209   1.907  11.543
18794SOL    HW158279   8.206   1.943  11.632
18794SOL    HW258280   8.299   1.878  11.531
18795SOL     OW58281  11.816   7.786   3.931
18795SOL    HW158282  11.792   7.694   3.917
18795SOL    HW258283  11.911   7.783   3.946
18796SOL     OW58284   2.596  11.517   5.437
18796SOL    HW158285   2.632  11.572   5.368
18796SOL    HW258286   2.671  11.473   5.476
18797SOL     OW58287  10.631  11.892  13.317
18797SOL    HW158288  10.671  11.847  13.392
18797SOL    HW258289  10.676  11.976  13.312
18798SOL     OW58290   8.867   0.247  13.547
18798SOL    HW158291   8.875   0.161  13.589
18798SOL    HW258292   8.957   0.271  13.524
18799SOL     OW58293  14.765   4.364  13.946
18799SOL    HW158294  14.823   4.429  13.986
18799SOL    HW258295  14.792   4.361  13.855
18800SOL     OW58296  12.048  12.588   9.846
18800SOL    HW158297  11.978  12.554   9.791
18800SOL    HW258298  12.127  12.542   9.817
18801SOL     OW58299  11.081  13.841   5.937
18801SOL    HW158300  11.174  13.824   5.929
18801SOL    HW258301  11.053  13.868   5.850
18802SOL     OW58302  13.398   8.566   9.743
18802SOL    HW158303  13.464   8.614   9.794
18802SOL    HW258304  13.320   8.621   9.747
18803SOL     OW58305   0.135  12.355   7.382
18803SOL    HW158306   0.183  12.428   7.420
18803SOL    HW258307   0.045  12.386   7.375
18804SOL     OW58308  12.209   1.728   7.371
18804SOL    HW158309  12.275   1.693   7.430
18804SOL    HW258310  12.251   1.804   7.330
18805SOL     OW58311  11.476   8.691   8.280
18805SOL    HW158312  11.487   8.708   8.373
18805SOL    HW258313  11.521   8.763   8.237
18806SOL     OW58314  12.102  14.256  10.929
18806SOL    HW158315  12.117  14.351  10.927
18806SOL    HW258316  12.054  14.238  10.848
18807SOL     OW58317  13.500   2.486  11.779
18807SOL    HW158318  13.516   2.571  11.739
18807SOL    HW258319  13.414   2.493  11.819
18808SOL     OW58320  12.737   7.384   9.696
18808SOL    HW158321  12.681   7.309   9.677
18808SOL    HW258322  12.802   7.351   9.758
18809SOL     OW58323  11.129   7.128   5.133
18809SOL    HW158324  11.144   7.213   5.091
18809SOL    HW258325  11.211   7.109   5.178
18810SOL     OW58326   4.287   2.977  12.729
18810SOL    HW158327   4.194   2.955  12.718
18810SOL    HW258328   4.333   2.920  12.667
18811SOL     OW58329  13.498   0.795   6.352
18811SOL    HW158330  13.545   0.724   6.309
18811SOL    HW258331  13.561   0.833   6.413
18812SOL     OW58332   2.726  14.298   4.474
18812SOL    HW158333   2.743  14.219   4.422
18812SOL    HW258334   2.713  14.367   4.409
18813SOL     OW58335   1.749   8.892   2.627
18813SOL    HW158336   1.735   8.836   2.551
18813SOL    HW258337   1.832   8.936   2.610
18814SOL     OW58338   5.084   7.393   4.380
18814SOL    HW158339   5.041   7.433   4.304
18814SOL    HW258340   5.041   7.433   4.455
18815SOL     OW58341  13.162  12.578   9.050
18815SOL    HW158342  13.198  12.625   9.125
18815SOL    HW258343  13.111  12.507   9.088
18816SOL     OW58344  13.037   2.256  13.565
18816SOL    HW158345  13.085   2.226  13.642
18816SOL    HW258346  13.056   2.350  13.561
18817SOL     OW58347  12.257   5.798  14.687
18817SOL    HW158348  12.218   5.867  14.741
18817SOL    HW258349  12.282   5.842  14.606
18818SOL     OW58350   2.326   3.642   1.085
18818SOL    HW158351   2.256   3.577   1.083
18818SOL    HW258352   2.304   3.704   1.015
18819SOL     OW58353  13.600  10.337   5.703
18819SOL    HW158354  13.648  10.292   5.773
18819SOL    HW258355  13.669  10.373   5.647
18820SOL     OW58356   6.034  12.482  10.761
18820SOL    HW158357   5.945  12.446  10.762
18820SOL    HW258358   6.025  12.572  10.792
18821SOL     OW58359  13.179  11.035   1.835
18821SOL    HW158360  13.100  11.046   1.782
18821SOL    HW258361  13.240  11.100   1.800
18822SOL     OW58362  13.116   4.209   5.214
18822SOL    HW158363  13.131   4.193   5.308
18822SOL    HW258364  13.202   4.195   5.174
18823SOL     OW58365   4.640   3.811  14.763
18823SOL    HW158366   4.727   3.792  14.798
18823SOL    HW258367   4.580   3.789  14.834
18824SOL     OW58368  13.411   2.414   6.795
18824SOL    HW158369  13.387   2.352   6.864
18824SOL    HW258370  13.328   2.441   6.756
18825SOL     OW58371   7.665   7.010  10.250
18825SOL    HW158372   7.682   6.927  10.207
18825SOL    HW258373   7.739   7.066  10.225
18826SOL     OW58374   5.184   3.425   9.598
18826SOL    HW158375   5.272   3.389   9.611
18826SOL    HW258376   5.180   3.444   9.504
18827SOL     OW58377   6.593   7.880   0.169
18827SOL    HW158378   6.583   7.923   0.254
18827SOL    HW258379   6.622   7.791   0.190
18828SOL     OW58380  11.880  13.113   8.140
18828SOL    HW158381  11.914  13.054   8.072
18828SOL    HW258382  11.913  13.199   8.115
18829SOL     OW58383   8.342  11.791  11.731
18829SOL    HW158384   8.368  11.864  11.675
18829SOL    HW258385   8.246  11.797  11.735
18830SOL     OW58386  14.388  11.407   2.136
18830SOL    HW158387  14.450  11.340   2.106
18830SOL    HW258388  14.355  11.447   2.055
18831SOL     OW58389   2.516   2.989  14.212
18831SOL    HW158390   2.493   2.918  14.152
18831SOL    HW258391   2.471   2.966  14.294
18832SOL     OW58392   7.773   8.477   9.258
18832SOL    HW158393   7.775   8.448   9.349
18832SOL    HW258394   7.777   8.397   9.207
18833SOL     OW58395   7.837  10.668   4.536
18833SOL    HW158396   7.787  10.629   4.609
18833SOL    HW258397   7.926  10.674   4.569
18834SOL     OW58398   9.742   3.882   9.169
18834SOL    HW158399   9.719   3.790   9.167
18834SOL    HW258400   9.767   3.902   9.078
18835SOL     OW58401   1.755   5.186   3.690
18835SOL    HW158402   1.845   5.162   3.708
18835SOL    HW258403   1.727   5.124   3.622
18836SOL     OW58404   6.375  10.436   0.789
18836SOL    HW158405   6.327  10.479   0.859
18836SOL    HW258406   6.307  10.401   0.731
18837SOL     OW58407  13.674   2.344  11.633
18837SOL    HW158408  13.649   2.252  11.631
18837SOL    HW258409  13.620   2.383  11.701
18838SOL     OW58410   3.582  13.467   4.893
18838SOL    HW158411   3.616  13.496   4.809
18838SOL    HW258412   3.624  13.382   4.909
18839SOL     OW58413   6.134   0.340   8.034
18839SOL    HW158414   6.133   0.423   8.082
18839SOL    HW258415   6.149   0.365   7.943
18840SOL     OW58416   3.472   2.003  10.138
18840SOL    HW158417   3.433   2.031  10.055
18840SOL    HW258418   3.397   1.980  10.193
18841SOL     OW58419   5.076   4.409  12.813
18841SOL    HW158420   5.030   4.407  12.729
18841SOL    HW258421   5.124   4.327  12.816
18842SOL     OW58422   6.508   4.297   2.821
18842SOL    HW158423   6.451   4.374   2.813
18842SOL    HW258424   6.521   4.268   2.731
18843SOL     OW58425   6.552   4.711  13.362
18843SOL    HW158426   6.522   4.746  13.446
18843SOL    HW258427   6.644   4.737  13.356
18844SOL     OW58428   2.320   7.133   0.809
18844SOL    HW158429   2.305   7.171   0.895
18844SOL    HW258430   2.309   7.039   0.822
18845SOL     OW58431   2.170   9.463   9.249
18845SOL    HW158432   2.112   9.396   9.282
18845SOL    HW258433   2.243   9.465   9.311
18846SOL     OW58434   5.877   1.792   1.757
18846SOL    HW158435   5.806   1.850   1.785
18846SOL    HW258436   5.906   1.829   1.674
18847SOL     OW58437   2.160  12.686  10.603
18847SOL    HW158438   2.200  12.738  10.672
18847SOL    HW258439   2.228  12.678  10.536
18848SOL     OW58440   5.182   5.667  14.735
18848SOL    HW158441   5.184   5.572  14.724
18848SOL    HW258442   5.191   5.681  14.829
18849SOL     OW58443   8.952   6.379   9.959
18849SOL    HW158444   8.951   6.377  10.055
18849SOL    HW258445   8.993   6.462   9.937
18850SOL     OW58446  13.799  11.996   2.662
18850SOL    HW158447  13.706  11.989   2.642
18850SOL    HW258448  13.803  12.037   2.748
18851SOL     OW58449   4.405   4.848   1.037
18851SOL    HW158450   4.469   4.789   1.076
18851SOL    HW258451   4.379   4.805   0.956
18852SOL     OW58452  12.423   5.367   4.314
18852SOL    HW158453  12.459   5.280   4.300
18852SOL    HW258454  12.341   5.367   4.264
18853SOL     OW58455   3.020   0.209  11.671
18853SOL    HW158456   3.020   0.233  11.579
18853SOL    HW258457   3.019   0.113  11.671
18854SOL     OW58458   1.900  14.869   9.345
18854SOL    HW158459   1.929  14.864   9.254
18854SOL    HW258460   1.980   0.002   9.396
18855SOL     OW58461   6.007   1.087   4.177
18855SOL    HW158462   5.969   1.175   4.179
18855SOL    HW258463   5.933   1.029   4.193
18856SOL     OW58464   4.481   7.955   8.335
18856SOL    HW158465   4.451   8.043   8.314
18856SOL    HW258466   4.561   7.943   8.283
18857SOL     OW58467   1.378  13.437   8.986
18857SOL    HW158468   1.289  13.469   8.968
18857SOL    HW258469   1.377  13.413   9.078
18858SOL     OW58470   1.289   5.972  10.000
18858SOL    HW158471   1.257   5.886  10.028
18858SOL    HW258472   1.302   6.021  10.081
18859SOL     OW58473  14.187   3.345  12.752
18859SOL    HW158474  14.119   3.289  12.716
18859SOL    HW258475  14.269   3.306  12.722
18860SOL     OW58476   4.017  13.614   7.349
18860SOL    HW158477   4.018  13.708   7.331
18860SOL    HW258478   4.104  13.596   7.385
18861SOL     OW58479   8.928   4.641   5.311
18861SOL    HW158480   8.924   4.736   5.317
18861SOL    HW258481   8.838   4.612   5.327
18862SOL     OW58482  13.452   4.032  11.297
18862SOL    HW158483  13.401   4.087  11.357
18862SOL    HW258484  13.390   4.010  11.228
18863SOL     OW58485   2.807   5.385   3.432
18863SOL    HW158486   2.754   5.349   3.361
18863SOL    HW258487   2.846   5.309   3.475
18864SOL     OW58488   8.287   6.542   1.964
18864SOL    HW158489   8.347   6.477   2.001
18864SOL    HW258490   8.203   6.526   2.007
18865SOL     OW58491  10.664   2.423  11.236
18865SOL    HW158492  10.660   2.399  11.143
18865SOL    HW258493  10.604   2.497  11.244
18866SOL     OW58494   8.581  11.629   0.179
18866SOL    HW158495   8.488  11.649   0.166
18866SOL    HW258496   8.609  11.691   0.247
18867SOL     OW58497   5.865   9.765   9.109
18867SOL    HW158498   5.920   9.744   9.184
18867SOL    HW258499   5.867   9.861   9.104
18868SOL     OW58500   2.214  10.527   7.820
18868SOL    HW158501   2.245  10.529   7.730
18868SOL    HW258502   2.121  10.505   7.812
18869SOL     OW58503  13.137   6.182   0.266
18869SOL    HW158504  13.076   6.233   0.212
18869SOL    HW258505  13.223   6.221   0.247
18870SOL     OW58506   1.612   0.088  10.409
18870SOL    HW158507   1.554   0.015  10.433
18870SOL    HW258508   1.554   0.152  10.368
18871SOL     OW58509   6.283   9.565   1.532
18871SOL    HW158510   6.253   9.476   1.517
18871SOL    HW258511   6.207   9.620   1.511
18872SOL     OW58512  11.475   8.096   1.676
18872SOL    HW158513  11.535   8.041   1.625
18872SOL    HW258514  11.532   8.149   1.731
18873SOL     OW58515   9.910   6.955   2.234
18873SOL    HW158516   9.824   6.996   2.240
18873SOL    HW258517   9.943   6.980   2.147
18874SOL     OW58518  12.386   5.052   6.073
18874SOL    HW158519  12.343   5.019   5.994
18874SOL    HW258520  12.329   5.123   6.103
18875SOL     OW58521  11.044   4.992  14.656
18875SOL    HW158522  11.087   4.931  14.718
18875SOL    HW258523  11.080   5.078  14.679
18876SOL     OW58524   8.117   8.886   6.174
18876SOL    HW158525   8.051   8.955   6.170
18876SOL    HW258526   8.077   8.811   6.129
18877SOL     OW58527  11.644   1.971   0.521
18877SOL    HW158528  11.651   1.975   0.425
18877SOL    HW258529  11.584   1.898   0.537
18878SOL     OW58530   1.971   0.540   1.128
18878SOL    HW158531   2.010   0.525   1.042
18878SOL    HW258532   1.895   0.483   1.130
18879SOL     OW58533  12.896  13.170   9.161
18879SOL    HW158534  12.951  13.234   9.115
18879SOL    HW258535  12.847  13.126   9.092
18880SOL     OW58536   8.326  10.928  12.149
18880SOL    HW158537   8.281  10.961  12.227
18880SOL    HW258538   8.331  10.834  12.163
18881SOL     OW58539  10.345   8.659   6.096
18881SOL    HW158540  10.279   8.590   6.104
18881SOL    HW258541  10.405   8.628   6.028
18882SOL     OW58542   0.284  12.730  11.017
18882SOL    HW158543   0.359  12.773  11.058
18882SOL    HW258544   0.212  12.743  11.079
18883SOL     OW58545   7.080  11.727  10.769
18883SOL    HW158546   6.987  11.747  10.771
18883SOL    HW258547   7.107  11.747  10.680
18884SOL     OW58548   1.009  13.599   0.559
18884SOL    HW158549   0.961  13.634   0.484
18884SOL    HW258550   1.024  13.675   0.616
18885SOL     OW58551   5.773   8.427   0.187
18885SOL    HW158552   5.852   8.382   0.158
18885SOL    HW258553   5.751   8.486   0.114
18886SOL     OW58554   4.280   2.323   3.735
18886SOL    HW158555   4.359   2.377   3.744
18886SOL    HW258556   4.208   2.384   3.751
18887SOL     OW58557  11.503   8.380   1.913
18887SOL    HW158558  11.584   8.406   1.956
18887SOL    HW258559  11.479   8.298   1.956
18888SOL     OW58560   9.978   6.772  14.831
18888SOL    HW158561   9.988   6.694   0.014
18888SOL    HW258562  10.031   6.839   0.001
18889SOL     OW58563  12.602   8.483   5.890
18889SOL    HW158564  12.545   8.478   5.967
18889SOL    HW258565  12.655   8.403   5.894
18890SOL     OW58566   3.054  14.755   6.367
18890SOL    HW158567   3.129  14.783   6.315
18890SOL    HW258568   3.063  14.804   6.450
18891SOL     OW58569   5.439   4.043  13.763
18891SOL    HW158570   5.418   4.133  13.790
18891SOL    HW258571   5.503   4.054  13.693
18892SOL     OW58572  10.074   8.160   7.679
18892SOL    HW158573   9.983   8.130   7.683
18892SOL    HW258574  10.097   8.179   7.770
18893SOL     OW58575  12.640  10.862  12.757
18893SOL    HW158576  12.731  10.874  12.784
18893SOL    HW258577  12.625  10.768  12.764
18894SOL     OW58578   1.414   6.940   0.072
18894SOL    HW158579   1.461   6.949   0.155
18894SOL    HW258580   1.328   6.906   0.097
18895SOL     OW58581   9.381   0.397   2.872
18895SOL    HW158582   9.370   0.362   2.783
18895SOL    HW258583   9.292   0.416   2.902
18896SOL     OW58584   8.244   8.627   1.639
18896SOL    HW158585   8.211   8.706   1.595
18896SOL    HW258586   8.276   8.572   1.567
18897SOL     OW58587   8.548  13.539   5.696
18897SOL    HW158588   8.554  13.450   5.663
18897SOL    HW258589   8.610  13.542   5.769
18898SOL     OW58590  14.510   0.564   4.700
18898SOL    HW158591  14.498   0.632   4.634
18898SOL    HW258592  14.429   0.566   4.752
18899SOL     OW58593  13.457   0.857  10.696
18899SOL    HW158594  13.380   0.897  10.735
18899SOL    HW258595  13.425   0.776  10.657
18900SOL     OW58596   9.053  11.526   3.151
18900SOL    HW158597   8.973  11.537   3.100
18900SOL    HW258598   9.120  11.506   3.086
18901SOL     OW58599   0.705   8.624   1.451
18901SOL    HW158600   0.776   8.579   1.406
18901SOL    HW258601   0.727   8.616   1.544
18902SOL     OW58602  11.082   4.046   6.387
18902SOL    HW158603  11.153   4.077   6.443
18902SOL    HW258604  11.073   3.953   6.408
18903SOL     OW58605   3.494   9.861  12.766
18903SOL    HW158606   3.488   9.888  12.675
18903SOL    HW258607   3.421   9.801  12.779
18904SOL     OW58608   9.553  10.280  10.314
18904SOL    HW158609   9.503  10.310  10.238
18904SOL    HW258610   9.579  10.191  10.292
18905SOL     OW58611   6.397   5.767   6.476
18905SOL    HW158612   6.386   5.862   6.486
18905SOL    HW258613   6.482   5.749   6.516
18906SOL     OW58614   0.087  14.761   9.802
18906SOL    HW158615   0.087  14.666   9.805
18906SOL    HW258616   0.132  14.783   9.720
18907SOL     OW58617   0.853   5.080  11.846
18907SOL    HW158618   0.934   5.119  11.814
18907SOL    HW258619   0.785   5.144  11.826
18908SOL     OW58620   5.502  11.554  11.872
18908SOL    HW158621   5.432  11.516  11.819
18908SOL    HW258622   5.457  11.607  11.937
18909SOL     OW58623  13.989  13.254   5.299
18909SOL    HW158624  14.062  13.313   5.318
18909SOL    HW258625  13.948  13.290   5.221
18910SOL     OW58626   0.387   6.182  13.946
18910SOL    HW158627   0.414   6.113  14.007
18910SOL    HW258628   0.304   6.153  13.911
18911SOL     OW58629   7.951  11.226   9.235
18911SOL    HW158630   7.876  11.217   9.177
18911SOL    HW258631   8.000  11.145   9.223
18912SOL     OW58632  13.287   3.854   0.380
18912SOL    HW158633  13.199   3.825   0.356
18912SOL    HW258634  13.330   3.871   0.296
18913SOL     OW58635   2.994   0.366  10.143
18913SOL    HW158636   2.940   0.295  10.106
18913SOL    HW258637   3.079   0.326  10.159
18914SOL     OW58638  12.862   8.717  11.305
18914SOL    HW158639  12.894   8.721  11.215
18914SOL    HW258640  12.791   8.781  11.307
18915SOL     OW58641  13.406   1.586   6.049
18915SOL    HW158642  13.450   1.666   6.021
18915SOL    HW258643  13.342   1.568   5.980
18916SOL     OW58644   7.063  14.679  12.907
18916SOL    HW158645   7.095  14.631  12.984
18916SOL    HW258646   6.971  14.656  12.901
18917SOL     OW58647   8.036  13.786   9.379
18917SOL    HW158648   8.045  13.868   9.426
18917SOL    HW258649   8.073  13.803   9.292
18918SOL     OW58650   4.483  14.707   9.950
18918SOL    HW158651   4.452  14.790   9.914
18918SOL    HW258652   4.575  14.722   9.969
18919SOL     OW58653  10.511  13.946  13.669
18919SOL    HW158654  10.418  13.969  13.665
18919SOL    HW258655  10.534  13.953  13.761
18920SOL     OW58656   8.427   9.578   2.806
18920SOL    HW158657   8.363   9.595   2.737
18920SOL    HW258658   8.468   9.663   2.822
18921SOL     OW58659   5.510  12.537   2.506
18921SOL    HW158660   5.482  12.506   2.593
18921SOL    HW258661   5.581  12.478   2.482
18922SOL     OW58662  10.436   6.459   3.045
18922SOL    HW158663  10.355   6.408   3.044
18922SOL    HW258664  10.407   6.550   3.043
18923SOL     OW58665   1.913  10.688  10.028
18923SOL    HW158666   1.973  10.745  10.075
18923SOL    HW258667   1.970  10.630   9.977
18924SOL     OW58668  13.689   6.140  14.477
18924SOL    HW158669  13.634   6.107  14.406
18924SOL    HW258670  13.658   6.229  14.492
18925SOL     OW58671  10.472  12.031   3.972
18925SOL    HW158672  10.544  12.034   3.909
18925SOL    HW258673  10.508  11.987   4.048
18926SOL     OW58674  12.670  14.393   7.826
18926SOL    HW158675  12.590  14.342   7.835
18926SOL    HW258676  12.656  14.472   7.878
18927SOL     OW58677   0.254  12.157   6.597
18927SOL    HW158678   0.252  12.212   6.676
18927SOL    HW258679   0.256  12.220   6.525
18928SOL     OW58680   3.310   0.049   3.194
18928SOL    HW158681   3.371   0.009   3.132
18928SOL    HW258682   3.365   0.079   3.267
18929SOL     OW58683   0.222   4.130   1.079
18929SOL    HW158684   0.154   4.195   1.060
18929SOL    HW258685   0.232   4.134   1.174
18930SOL     OW58686  10.266   1.052  14.324
18930SOL    HW158687  10.328   1.080  14.392
18930SOL    HW258688  10.184   1.094  14.348
18931SOL     OW58689   1.090   9.930  12.874
18931SOL    HW158690   1.061   9.866  12.939
18931SOL    HW258691   1.017   9.992  12.867
18932SOL     OW58692   1.091  13.978  10.496
18932SOL    HW158693   1.165  13.955  10.439
18932SOL    HW258694   1.121  13.953  10.584
18933SOL     OW58695   8.592   7.470   5.317
18933SOL    HW158696   8.639   7.522   5.382
18933SOL    HW258697   8.599   7.380   5.348
18934SOL     OW58698   2.291   3.859   2.091
18934SOL    HW158699   2.291   3.931   2.028
18934SOL    HW258700   2.251   3.896   2.170
18935SOL     OW58701   9.888   4.962  13.320
18935SOL    HW158702   9.863   5.022  13.390
18935SOL    HW258703   9.862   5.007  13.239
18936SOL     OW58704  12.350   9.790   5.358
18936SOL    HW158705  12.356   9.819   5.449
18936SOL    HW258706  12.256   9.785   5.340
18937SOL     OW58707   7.749   4.768   1.483
18937SOL    HW158708   7.764   4.681   1.447
18937SOL    HW258709   7.675   4.803   1.434
18938SOL     OW58710   5.706  13.030   1.066
18938SOL    HW158711   5.753  13.108   1.097
18938SOL    HW258712   5.709  12.969   1.140
18939SOL     OW58713   6.499   9.800  12.533
18939SOL    HW158714   6.575   9.741  12.537
18939SOL    HW258715   6.438   9.756  12.474
18940SOL     OW58716   5.305   6.120   0.294
18940SOL    HW158717   5.374   6.173   0.334
18940SOL    HW258718   5.297   6.154   0.205
18941SOL     OW58719  11.886   1.718   9.023
18941SOL    HW158720  11.837   1.796   9.002
18941SOL    HW258721  11.870   1.703   9.117
18942SOL     OW58722  13.933   7.115  12.320
18942SOL    HW158723  13.885   7.197  12.307
18942SOL    HW258724  13.867   7.052  12.349
18943SOL     OW58725   5.516  12.532   3.319
18943SOL    HW158726   5.480  12.454   3.361
18943SOL    HW258727   5.458  12.603   3.345
18944SOL     OW58728  11.563  14.134  14.383
18944SOL    HW158729  11.623  14.153  14.311
18944SOL    HW258730  11.570  14.210  14.441
18945SOL     OW58731  12.473  13.640   3.607
18945SOL    HW158732  12.440  13.723   3.642
18945SOL    HW258733  12.476  13.654   3.512
18946SOL     OW58734   0.835  13.565   0.763
18946SOL    HW158735   0.893  13.549   0.688
18946SOL    HW258736   0.870  13.644   0.803
18947SOL     OW58737   6.900   1.228   8.361
18947SOL    HW158738   6.912   1.147   8.411
18947SOL    HW258739   6.862   1.290   8.425
18948SOL     OW58740   6.875   0.970  11.032
18948SOL    HW158741   6.785   0.940  11.046
18948SOL    HW258742   6.913   0.975  11.119
18949SOL     OW58743   0.193   0.787   4.201
18949SOL    HW158744   0.178   0.735   4.280
18949SOL    HW258745   0.106   0.816   4.175
18950SOL     OW58746  11.232  14.202   9.960
18950SOL    HW158747  11.230  14.277  10.019
18950SOL    HW258748  11.324  14.181   9.950
18951SOL     OW58749   2.896   0.409  13.544
18951SOL    HW158750   2.902   0.410  13.449
18951SOL    HW258751   2.868   0.498  13.567
18952SOL     OW58752   6.525   8.569   8.929
18952SOL    HW158753   6.444   8.531   8.963
18952SOL    HW258754   6.563   8.501   8.874
18953SOL     OW58755   3.448  13.774   7.778
18953SOL    HW158756   3.376  13.753   7.838
18953SOL    HW258757   3.441  13.709   7.708
18954SOL     OW58758  10.527   3.830   9.075
18954SOL    HW158759  10.540   3.813   9.168
18954SOL    HW258760  10.596   3.780   9.031
18955SOL     OW58761   8.548   7.327   3.312
18955SOL    HW158762   8.635   7.300   3.341
18955SOL    HW258763   8.491   7.304   3.385
18956SOL     OW58764   4.071   2.283   9.400
18956SOL    HW158765   4.071   2.374   9.373
18956SOL    HW258766   4.163   2.263   9.417
18957SOL     OW58767   3.028   1.317   3.446
18957SOL    HW158768   3.074   1.390   3.406
18957SOL    HW258769   2.959   1.357   3.498
18958SOL     OW58770  13.191   6.556   0.198
18958SOL    HW158771  13.261   6.588   0.140
18958SOL    HW258772  13.130   6.512   0.139
18959SOL     OW58773  14.391  13.182   7.925
18959SOL    HW158774  14.398  13.196   8.020
18959SOL    HW258775  14.479  13.196   7.892
18960SOL     OW58776   6.704   0.744  13.170
18960SOL    HW158777   6.753   0.730  13.251
18960SOL    HW258778   6.619   0.776  13.198
18961SOL     OW58779  11.578   2.769   7.667
18961SOL    HW158780  11.616   2.685   7.640
18961SOL    HW258781  11.546   2.752   7.756
18962SOL     OW58782  11.961   4.271   9.605
18962SOL    HW158783  12.023   4.293   9.536
18962SOL    HW258784  11.982   4.181   9.629
18963SOL     OW58785   4.922   2.401  10.998
18963SOL    HW158786   4.877   2.389  11.082
18963SOL    HW258787   4.938   2.311  10.966
18964SOL     OW58788  11.463   1.160   5.999
18964SOL    HW158789  11.414   1.238   5.971
18964SOL    HW258790  11.439   1.093   5.935
18965SOL     OW58791   7.470   9.237  11.559
18965SOL    HW158792   7.555   9.277  11.541
18965SOL    HW258793   7.476   9.149  11.521
18966SOL     OW58794   4.795   9.585   0.194
18966SOL    HW158795   4.715   9.534   0.198
18966SOL    HW258796   4.849   9.553   0.267
18967SOL     OW58797   3.254   6.002  11.057
18967SOL    HW158798   3.344   5.983  11.031
18967SOL    HW258799   3.201   5.956  10.992
18968SOL     OW58800   2.633   5.956   3.934
18968SOL    HW158801   2.540   5.971   3.917
18968SOL    HW258802   2.636   5.873   3.981
18969SOL     OW58803   0.135  14.611  13.026
18969SOL    HW158804   0.074  14.685  13.023
18969SOL    HW258805   0.201  14.638  13.089
18970SOL     OW58806   3.474  11.791   7.782
18970SOL    HW158807   3.508  11.792   7.693
18970SOL    HW258808   3.551  11.801   7.838
18971SOL     OW58809  11.742   6.546  13.652
18971SOL    HW158810  11.831   6.583  13.648
18971SOL    HW258811  11.688   6.617  13.684
18972SOL     OW58812   8.041   7.406  10.299
18972SOL    HW158813   8.043   7.423  10.393
18972SOL    HW258814   7.988   7.326  10.290
18973SOL     OW58815  11.689   2.280   9.823
18973SOL    HW158816  11.645   2.361   9.848
18973SOL    HW258817  11.751   2.306   9.754
18974SOL     OW58818   3.218   8.297   0.909
18974SOL    HW158819   3.281   8.304   0.837
18974SOL    HW258820   3.271   8.279   0.986
18975SOL     OW58821  13.043  14.249   1.824
18975SOL    HW158822  13.022  14.190   1.896
18975SOL    HW258823  12.958  14.285   1.798
18976SOL     OW58824   4.125   1.249   4.248
18976SOL    HW158825   4.109   1.231   4.155
18976SOL    HW258826   4.199   1.193   4.271
18977SOL     OW58827   1.487  14.673   2.960
18977SOL    HW158828   1.448  14.586   2.964
18977SOL    HW258829   1.449  14.721   3.033
18978SOL     OW58830   1.386   2.296  12.419
18978SOL    HW158831   1.293   2.318  12.430
18978SOL    HW258832   1.416   2.353  12.348
18979SOL     OW58833   6.301  11.147   2.565
18979SOL    HW158834   6.308  11.055   2.588
18979SOL    HW258835   6.274  11.147   2.473
18980SOL     OW58836   6.743  11.712   0.953
18980SOL    HW158837   6.803  11.786   0.965
18980SOL    HW258838   6.771  11.673   0.870
18981SOL     OW58839   1.746  12.908  11.422
18981SOL    HW158840   1.723  12.987  11.470
18981SOL    HW258841   1.739  12.932  11.330
18982SOL     OW58842  13.539  11.930   4.498
18982SOL    HW158843  13.544  12.003   4.435
18982SOL    HW258844  13.618  11.879   4.481
18983SOL     OW58845   7.426   2.872   5.971
18983SOL    HW158846   7.395   2.922   5.896
18983SOL    HW258847   7.429   2.781   5.939
18984SOL     OW58848   5.255   2.609   4.825
18984SOL    HW158849   5.227   2.611   4.916
18984SOL    HW258850   5.174   2.605   4.775
18985SOL     OW58851   3.304   7.322   1.733
18985SOL    HW158852   3.301   7.237   1.687
18985SOL    HW258853   3.254   7.381   1.677
18986SOL     OW58854  10.200  11.846  13.878
18986SOL    HW158855  10.126  11.901  13.904
18986SOL    HW258856  10.233  11.810  13.960
18987SOL     OW58857   8.762  12.849   5.004
18987SOL    HW158858   8.838  12.844   4.946
18987SOL    HW258859   8.775  12.779   5.067
18988SOL     OW58860   3.965   9.410   6.233
18988SOL    HW158861   3.985   9.492   6.279
18988SOL    HW258862   3.960   9.435   6.141
18989SOL     OW58863  11.073  10.000   2.029
18989SOL    HW158864  11.078   9.950   2.110
18989SOL    HW258865  11.059   9.934   1.961
18990SOL     OW58866   8.363   3.574   6.982
18990SOL    HW158867   8.447   3.532   7.004
18990SOL    HW258868   8.384   3.633   6.910
18991SOL     OW58869   0.038   9.709  11.738
18991SOL    HW158870  14.830   9.690  11.689
18991SOL    HW258871   0.105   9.720  11.671
18992SOL     OW58872  11.895  10.279  12.816
18992SOL    HW158873  11.879  10.337  12.742
18992SOL    HW258874  11.984  10.300  12.844
18993SOL     OW58875   3.044   9.181   5.223
18993SOL    HW158876   3.065   9.240   5.296
18993SOL    HW258877   2.952   9.161   5.234
18994SOL     OW58878   2.371  10.445   6.556
18994SOL    HW158879   2.398  10.510   6.491
18994SOL    HW258880   2.290  10.408   6.521
18995SOL     OW58881   4.706   2.811  12.413
18995SOL    HW158882   4.763   2.757  12.359
18995SOL    HW258883   4.719   2.900  12.381
18996SOL     OW58884   0.583  13.066  10.345
18996SOL    HW158885   0.650  13.086  10.410
18996SOL    HW258886   0.502  13.057  10.395
18997SOL     OW58887  11.391  12.071   3.999
18997SOL    HW158888  11.375  11.978   3.982
18997SOL    HW258889  11.428  12.104   3.917
18998SOL     OW58890   0.175   3.533   7.599
18998SOL    HW158891   0.109   3.488   7.652
18998SOL    HW258892   0.152   3.626   7.605
18999SOL     OW58893   4.199   4.174   0.211
18999SOL    HW158894   4.244   4.101   0.252
18999SOL    HW258895   4.217   4.164   0.117
19000SOL     OW58896  13.273   6.482   3.727
19000SOL    HW158897  13.188   6.507   3.690
19000SOL    HW258898  13.337   6.514   3.663
19001SOL     OW58899   9.688  14.861   7.927
19001SOL    HW158900   9.711   0.072   7.968
19001SOL    HW258901   9.637  14.814   7.994
19002SOL     OW58902   3.560   2.994   1.304
19002SOL    HW158903   3.572   3.073   1.252
19002SOL    HW258904   3.469   2.996   1.331
19003SOL     OW58905   8.841   9.465  13.334
19003SOL    HW158906   8.853   9.558  13.350
19003SOL    HW258907   8.890   9.447  13.254
19004SOL     OW58908   8.095   5.303  10.113
19004SOL    HW158909   8.081   5.262  10.027
19004SOL    HW258910   8.008   5.329  10.141
19005SOL     OW58911  14.373   4.195   8.458
19005SOL    HW158912  14.327   4.143   8.393
19005SOL    HW258913  14.323   4.184   8.539
19006SOL     OW58914  13.593  10.203   7.796
19006SOL    HW158915  13.525  10.249   7.844
19006SOL    HW258916  13.562  10.112   7.790
19007SOL     OW58917   7.028   8.672   7.932
19007SOL    HW158918   6.975   8.678   8.011
19007SOL    HW258919   6.980   8.611   7.876
19008SOL     OW58920   2.122   6.003  12.840
19008SOL    HW158921   2.149   6.055  12.765
19008SOL    HW258922   2.131   5.912  12.810
19009SOL     OW58923   0.557   5.440   6.820
19009SOL    HW158924   0.554   5.345   6.830
19009SOL    HW258925   0.529   5.474   6.905
19010SOL     OW58926   4.227   4.086  14.816
19010SOL    HW158927   4.148   4.114  14.770
19010SOL    HW258928   4.261   4.013  14.764
19011SOL     OW58929   3.159   0.561  10.413
19011SOL    HW158930   3.214   0.616  10.359
19011SOL    HW258931   3.216   0.491  10.444
19012SOL     OW58932   1.797  14.290   5.969
19012SOL    HW158933   1.751  14.206   5.972
19012SOL    HW258934   1.877  14.272   5.919
19013SOL     OW58935  11.494  10.893   4.374
19013SOL    HW158936  11.406  10.931   4.375
19013SOL    HW258937  11.483  10.805   4.409
19014SOL     OW58938   5.834   8.083  14.050
19014SOL    HW158939   5.844   8.176  14.031
19014SOL    HW258940   5.923   8.049  14.050
19015SOL     OW58941   5.890  14.591  12.334
19015SOL    HW158942   5.893  14.499  12.358
19015SOL    HW258943   5.922  14.593  12.243
19016SOL     OW58944   2.479   0.520   2.366
19016SOL    HW158945   2.480   0.572   2.447
19016SOL    HW258946   2.557   0.548   2.318
19017SOL     OW58947   6.389  10.771   9.806
19017SOL    HW158948   6.461  10.708   9.812
19017SOL    HW258949   6.317  10.730   9.852
19018SOL     OW58950   3.810  12.047  10.875
19018SOL    HW158951   3.720  12.032  10.847
19018SOL    HW258952   3.819  11.995  10.954
19019SOL     OW58953   6.622   2.684  12.545
19019SOL    HW158954   6.710   2.712  12.569
19019SOL    HW258955   6.636   2.610  12.485
19020SOL     OW58956   2.845   1.097   9.496
19020SOL    HW158957   2.930   1.066   9.464
19020SOL    HW258958   2.830   1.048   9.576
19021SOL     OW58959   8.937   5.149   2.340
19021SOL    HW158960   8.924   5.071   2.286
19021SOL    HW258961   8.938   5.116   2.430
19022SOL     OW58962  11.993   4.996   4.898
19022SOL    HW158963  11.972   4.903   4.899
19022SOL    HW258964  11.981   5.024   4.989
19023SOL     OW58965   8.653   3.353   6.326
19023SOL    HW158966   8.617   3.441   6.337
19023SOL    HW258967   8.580   3.301   6.293
19024SOL     OW58968   3.145   0.353   8.538
19024SOL    HW158969   3.213   0.399   8.587
19024SOL    HW258970   3.075   0.417   8.527
19025SOL     OW58971   0.458  13.237  12.968
19025SOL    HW158972   0.431  13.178  13.038
19025SOL    HW258973   0.545  13.207  12.943
19026SOL     OW58974  14.701   4.714   7.956
19026SOL    HW158975  14.744   4.681   7.878
19026SOL    HW258976  14.643   4.644   7.984
19027SOL     OW58977  10.803   8.655  11.214
19027SOL    HW158978  10.815   8.573  11.262
19027SOL    HW258979  10.709   8.664  11.205
19028SOL     OW58980  13.868   9.456  12.466
19028SOL    HW158981  13.868   9.363  12.444
19028SOL    HW258982  13.956   9.473  12.501
19029SOL     OW58983   0.128   8.090  14.871
19029SOL    HW158984   0.220   8.111   0.014
19029SOL    HW258985   0.109   8.126  14.785
19030SOL     OW58986   2.513   9.416   5.183
19030SOL    HW158987   2.516   9.380   5.272
19030SOL    HW258988   2.597   9.460   5.172
19031SOL     OW58989   7.544  11.557   9.183
19031SOL    HW158990   7.459  11.602   9.181
19031SOL    HW258991   7.548  11.510   9.100
19032SOL     OW58992   1.381   1.456   9.600
19032SOL    HW158993   1.287   1.468   9.590
19032SOL    HW258994   1.406   1.516   9.671
19033SOL     OW58995  12.850  13.542  13.180
19033SOL    HW158996  12.900  13.618  13.211
19033SOL    HW258997  12.867  13.474  13.245
19034SOL     OW58998   8.472   2.269  12.997
19034SOL    HW158999   8.547   2.318  12.963
19034SOL    HW259000   8.472   2.187  12.948
19035SOL     OW59001   1.552   5.475  11.092
19035SOL    HW159002   1.546   5.383  11.066
19035SOL    HW259003   1.497   5.481  11.170
19036SOL     OW59004   7.246  11.089   4.830
19036SOL    HW159005   7.187  11.120   4.761
19036SOL    HW259006   7.275  11.169   4.875
19037SOL     OW59007   4.343   9.292   0.522
19037SOL    HW159008   4.373   9.205   0.493
19037SOL    HW259009   4.278   9.318   0.457
19038SOL     OW59010   4.063   2.189   0.058
19038SOL    HW159011   4.055   2.122  14.862
19038SOL    HW259012   4.004   2.160   0.127
19039SOL     OW59013   2.007  12.484  10.079
19039SOL    HW159014   2.012  12.459  10.172
19039SOL    HW259015   2.047  12.411  10.032
19040SOL     OW59016   1.474  11.332   0.724
19040SOL    HW159017   1.500  11.363   0.637
19040SOL    HW259018   1.547  11.276   0.752
19041SOL     OW59019   8.320   7.668   7.110
19041SOL    HW159020   8.276   7.743   7.148
19041SOL    HW259021   8.258   7.636   7.044
19042SOL     OW59022   3.881  14.714  13.696
19042SOL    HW159023   3.826  14.791  13.710
19042SOL    HW259024   3.875  14.666  13.778
19043SOL     OW59025  12.189  10.252  13.585
19043SOL    HW159026  12.166  10.257  13.492
19043SOL    HW259027  12.171  10.340  13.618
19044SOL     OW59028   1.456   7.844   0.740
19044SOL    HW159029   1.392   7.869   0.674
19044SOL    HW259030   1.530   7.904   0.727
19045SOL     OW59031   3.945   2.293   8.068
19045SOL    HW159032   3.945   2.253   7.981
19045SOL    HW259033   3.855   2.282   8.100
19046SOL     OW59034  14.103  13.521   5.354
19046SOL    HW159035  14.180  13.504   5.409
19046SOL    HW259036  14.040  13.564   5.412
19047SOL     OW59037   3.539  13.385  10.745
19047SOL    HW159038   3.559  13.294  10.720
19047SOL    HW259039   3.621  13.419  10.779
19048SOL     OW59040   9.075   6.275  10.802
19048SOL    HW159041   9.091   6.295  10.894
19048SOL    HW259042   8.993   6.225  10.802
19049SOL     OW59043   2.842   3.788  10.874
19049SOL    HW159044   2.920   3.843  10.886
19049SOL    HW259045   2.774   3.830  10.927
19050SOL     OW59046   1.970  13.932   1.048
19050SOL    HW159047   1.926  13.862   1.000
19050SOL    HW259048   1.924  14.011   1.021
19051SOL     OW59049   0.469   3.869  11.511
19051SOL    HW159050   0.543   3.857  11.451
19051SOL    HW259051   0.446   3.781  11.538
19052SOL     OW59052   2.456  14.698   4.403
19052SOL    HW159053   2.440  14.769   4.464
19052SOL    HW259054   2.407  14.624   4.439
19053SOL     OW59055  10.339  11.595   3.896
19053SOL    HW159056  10.304  11.644   3.821
19053SOL    HW259057  10.263  11.580   3.952
19054SOL     OW59058  11.187   0.336   4.158
19054SOL    HW159059  11.092   0.341   4.154
19054SOL    HW259060  11.206   0.242   4.160
19055SOL     OW59061  10.119  14.669  12.507
19055SOL    HW159062  10.200  14.622  12.489
19055SOL    HW259063  10.143  14.735  12.572
19056SOL     OW59064   5.939  14.241  11.511
19056SOL    HW159065   5.944  14.224  11.605
19056SOL    HW259066   5.934  14.155  11.471
19057SOL     OW59067  14.075  14.377  11.953
19057SOL    HW159068  13.981  14.362  11.958
19057SOL    HW259069  14.092  14.443  12.020
19058SOL     OW59070  11.309   9.557   9.853
19058SOL    HW159071  11.356   9.537   9.934
19058SOL    HW259072  11.301   9.473   9.808
19059SOL     OW59073   3.069   7.952  12.082
19059SOL    HW159074   3.011   7.977  12.154
19059SOL    HW259075   3.038   7.865  12.055
19060SOL     OW59076   6.814   3.805   5.023
19060SOL    HW159077   6.776   3.851   5.099
19060SOL    HW259078   6.788   3.714   5.034
19061SOL     OW59079  11.173  10.611   8.032
19061SOL    HW159080  11.162  10.571   8.119
19061SOL    HW259081  11.192  10.537   7.974
19062SOL     OW59082  12.286   6.075  10.030
19062SOL    HW159083  12.204   6.121  10.015
19062SOL    HW259084  12.301   6.082  10.125
19063SOL     OW59085   9.089  13.032  14.648
19063SOL    HW159086   9.059  13.086  14.721
19063SOL    HW259087   9.183  13.049  14.643
19064SOL     OW59088  10.487   0.904  13.595
19064SOL    HW159089  10.482   0.910  13.500
19064SOL    HW259090  10.408   0.855  13.620
19065SOL     OW59091   8.529  13.010  14.635
19065SOL    HW159092   8.581  13.075  14.589
19065SOL    HW259093   8.504  13.052  14.717
19066SOL     OW59094  11.164   4.807   1.134
19066SOL    HW159095  11.233   4.854   1.181
19066SOL    HW259096  11.199   4.719   1.122
19067SOL     OW59097   3.404   8.371  14.055
19067SOL    HW159098   3.482   8.335  14.012
19067SOL    HW259099   3.379   8.305  14.119
19068SOL     OW59100   9.393   6.387   1.362
19068SOL    HW159101   9.316   6.336   1.337
19068SOL    HW259102   9.466   6.341   1.320
19069SOL     OW59103  12.227  11.027   7.652
19069SOL    HW159104  12.183  10.981   7.581
19069SOL    HW259105  12.301  11.071   7.610
19070SOL     OW59106   3.156   5.572  11.637
19070SOL    HW159107   3.108   5.495  11.607
19070SOL    HW259108   3.140   5.637  11.568
19071SOL     OW59109   9.789   4.309  13.107
19071SOL    HW159110   9.708   4.268  13.139
19071SOL    HW259111   9.859   4.250  13.134
19072SOL     OW59112  12.808  11.595   0.581
19072SOL    HW159113  12.802  11.608   0.676
19072SOL    HW259114  12.787  11.681   0.544
19073SOL     OW59115  12.741  11.761  13.838
19073SOL    HW159116  12.673  11.707  13.797
19073SOL    HW259117  12.702  11.849  13.843
19074SOL     OW59118   1.694   0.481   6.972
19074SOL    HW159119   1.675   0.508   7.061
19074SOL    HW259120   1.692   0.385   6.975
19075SOL     OW59121   9.030  10.802  12.777
19075SOL    HW159122   9.023  10.726  12.835
19075SOL    HW259123   9.015  10.877  12.835
19076SOL     OW59124   0.528   8.334   9.198
19076SOL    HW159125   0.448   8.299   9.159
19076SOL    HW259126   0.511   8.336   9.292
19077SOL     OW59127   9.686   3.279   3.631
19077SOL    HW159128   9.603   3.233   3.620
19077SOL    HW259129   9.677   3.359   3.580
19078SOL     OW59130  14.728   1.612   8.424
19078SOL    HW159131  14.815   1.640   8.397
19078SOL    HW259132  14.705   1.672   8.495
19079SOL     OW59133   0.842  10.652   5.809
19079SOL    HW159134   0.874  10.640   5.899
19079SOL    HW259135   0.749  10.633   5.814
19080SOL     OW59136   1.706   9.017  11.534
19080SOL    HW159137   1.625   8.970  11.550
19080SOL    HW259138   1.681   9.109  11.533
19081SOL     OW59139   6.994   4.256  13.013
19081SOL    HW159140   6.983   4.164  12.990
19081SOL    HW259141   6.950   4.304  12.942
19082SOL     OW59142  12.771  10.978   6.792
19082SOL    HW159143  12.681  10.985   6.824
19082SOL    HW259144  12.779  11.049   6.728
19083SOL     OW59145  11.290   9.257   6.070
19083SOL    HW159146  11.236   9.219   6.000
19083SOL    HW259147  11.227   9.282   6.138
19084SOL     OW59148   0.358  12.646   2.058
19084SOL    HW159149   0.321  12.734   2.045
19084SOL    HW259150   0.417  12.656   2.132
19085SOL     OW59151   7.862  10.387   7.202
19085SOL    HW159152   7.818  10.461   7.246
19085SOL    HW259153   7.836  10.395   7.110
19086SOL     OW59154  11.919   0.437  13.419
19086SOL    HW159155  11.857   0.429  13.491
19086SOL    HW259156  11.873   0.401  13.343
19087SOL     OW59157   0.872   7.116   9.326
19087SOL    HW159158   0.918   7.082   9.403
19087SOL    HW259159   0.800   7.168   9.363
19088SOL     OW59160  14.795  12.791  12.370
19088SOL    HW159161  14.843  12.822  12.293
19088SOL    HW259162  14.719  12.850  12.377
19089SOL     OW59163  14.830   8.438   1.589
19089SOL    HW159164   0.024   8.423   1.522
19089SOL    HW259165  14.749   8.451   1.540
19090SOL     OW59166   3.460   3.892  10.632
19090SOL    HW159167   3.528   3.860  10.572
19090SOL    HW259168   3.378   3.879  10.585
19091SOL     OW59169   8.120  13.039  12.498
19091SOL    HW159170   8.083  12.985  12.429
19091SOL    HW259171   8.169  13.108  12.452
19092SOL     OW59172   7.368  10.494   4.351
19092SOL    HW159173   7.328  10.526   4.270
19092SOL    HW259174   7.381  10.572   4.404
19093SOL     OW59175   6.333   1.733   4.594
19093SOL    HW159176   6.242   1.737   4.624
19093SOL    HW259177   6.360   1.643   4.611
19094SOL     OW59178  11.317   3.114   0.026
19094SOL    HW159179  11.236   3.093   0.073
19094SOL    HW259180  11.355   3.186   0.076
19095SOL     OW59181   5.682   0.487   4.702
19095SOL    HW159182   5.612   0.505   4.639
19095SOL    HW259183   5.740   0.563   4.695
19096SOL     OW59184   9.874  12.445  12.217
19096SOL    HW159185   9.846  12.423  12.306
19096SOL    HW259186   9.792  12.445  12.166
19097SOL     OW59187   1.323  11.695   4.863
19097SOL    HW159188   1.327  11.779   4.909
19097SOL    HW259189   1.302  11.631   4.931
19098SOL     OW59190  14.272  14.567   8.424
19098SOL    HW159191  14.331  14.569   8.500
19098SOL    HW259192  14.201  14.510   8.451
19099SOL     OW59193   0.957   5.284   3.397
19099SOL    HW159194   0.868   5.248   3.398
19099SOL    HW259195   1.004   5.230   3.334
19100SOL     OW59196   8.660   8.741   8.654
19100SOL    HW159197   8.725   8.810   8.647
19100SOL    HW259198   8.662   8.715   8.746
19101SOL     OW59199   2.201   5.115  10.461
19101SOL    HW159200   2.196   5.208  10.438
19101SOL    HW259201   2.113   5.082  10.448
19102SOL     OW59202  14.679   5.121   9.379
19102SOL    HW159203  14.748   5.183   9.403
19102SOL    HW259204  14.720   5.035   9.388
19103SOL     OW59205   2.942   4.230  10.669
19103SOL    HW159206   3.002   4.273  10.607
19103SOL    HW259207   2.995   4.164  10.713
19104SOL     OW59208   7.795   0.763   3.176
19104SOL    HW159209   7.715   0.781   3.226
19104SOL    HW259210   7.805   0.668   3.180
19105SOL     OW59211   3.837  12.061   8.108
19105SOL    HW159212   3.886  12.016   8.177
19105SOL    HW259213   3.768  12.000   8.083
19106SOL     OW59214   8.620  13.363   0.491
19106SOL    HW159215   8.653  13.335   0.576
19106SOL    HW259216   8.527  13.343   0.493
19107SOL     OW59217  10.263   5.433  10.374
19107SOL    HW159218  10.260   5.500  10.442
19107SOL    HW259219  10.251   5.480  10.292
19108SOL     OW59220   5.441   8.178  10.158
19108SOL    HW159221   5.523   8.138  10.130
19108SOL    HW259222   5.424   8.246  10.092
19109SOL     OW59223   8.228   8.899   0.394
19109SOL    HW159224   8.316   8.900   0.355
19109SOL    HW259225   8.237   8.841   0.470
19110SOL     OW59226   0.038   4.534   5.635
19110SOL    HW159227   0.063   4.619   5.598
19110SOL    HW259228  14.814   4.537   5.638
19111SOL     OW59229   8.019   7.418   3.176
19111SOL    HW159230   7.975   7.405   3.092
19111SOL    HW259231   7.995   7.342   3.228
19112SOL     OW59232  13.857   6.419   6.750
19112SOL    HW159233  13.801   6.342   6.744
19112SOL    HW259234  13.829   6.464   6.830
19113SOL     OW59235  10.037   1.084   0.453
19113SOL    HW159236   9.976   1.084   0.526
19113SOL    HW259237  10.124   1.081   0.494
19114SOL     OW59238   7.612   6.265  11.326
19114SOL    HW159239   7.665   6.185  11.333
19114SOL    HW259240   7.643   6.308  11.246
19115SOL     OW59241   2.592  12.341   1.967
19115SOL    HW159242   2.622  12.409   2.028
19115SOL    HW259243   2.633  12.364   1.883
19116SOL     OW59244  12.313   4.852   7.982
19116SOL    HW159245  12.294   4.805   8.063
19116SOL    HW259246  12.404   4.882   7.993
19117SOL     OW59247  13.819   3.938   0.501
19117SOL    HW159248  13.786   4.002   0.437
19117SOL    HW259249  13.913   3.934   0.483
19118SOL     OW59250  10.284   8.610   8.428
19118SOL    HW159251  10.316   8.631   8.516
19118SOL    HW259252  10.234   8.530   8.439
19119SOL     OW59253  11.671   2.438   6.186
19119SOL    HW159254  11.657   2.388   6.267
19119SOL    HW259255  11.712   2.375   6.126
19120SOL     OW59256  13.083  14.816   3.521
19120SOL    HW159257  13.149  14.812   3.590
19120SOL    HW259258  13.090   0.032   3.485
19121SOL     OW59259   5.600   8.489   2.059
19121SOL    HW159260   5.504   8.492   2.064
19121SOL    HW259261   5.626   8.581   2.050
19122SOL     OW59262  13.364   4.327   4.011
19122SOL    HW159263  13.337   4.417   3.992
19122SOL    HW259264  13.458   4.326   3.991
19123SOL     OW59265   3.714   3.120  14.578
19123SOL    HW159266   3.689   3.204  14.539
19123SOL    HW259267   3.690   3.127  14.670
19124SOL     OW59268   5.243   6.766   2.055
19124SOL    HW159269   5.265   6.717   2.134
19124SOL    HW259270   5.323   6.764   2.002
19125SOL     OW59271  10.117   7.986   0.763
19125SOL    HW159272  10.049   7.977   0.696
19125SOL    HW259273  10.119   8.080   0.782
19126SOL     OW59274   5.862   1.244   0.205
19126SOL    HW159275   5.825   1.167   0.248
19126SOL    HW259276   5.957   1.232   0.214
19127SOL     OW59277   8.396   2.166   2.868
19127SOL    HW159278   8.360   2.132   2.787
19127SOL    HW259279   8.485   2.196   2.845
19128SOL     OW59280   8.858  14.774   1.370
19128SOL    HW159281   8.787  14.733   1.321
19128SOL    HW259282   8.828  14.776   1.460
19129SOL     OW59283   4.237   4.425   6.774
19129SOL    HW159284   4.319   4.438   6.820
19129SOL    HW259285   4.170   4.434   6.842
19130SOL     OW59286   2.842   6.770   1.485
19130SOL    HW159287   2.784   6.722   1.544
19130SOL    HW259288   2.847   6.715   1.406
19131SOL     OW59289   6.505   2.333  13.185
19131SOL    HW159290   6.485   2.423  13.161
19131SOL    HW259291   6.482   2.327  13.277
19132SOL     OW59292   0.072   4.518  12.131
19132SOL    HW159293   0.128   4.580  12.177
19132SOL    HW259294   0.119   4.496  12.051
19133SOL     OW59295   6.520   5.353   8.056
19133SOL    HW159296   6.575   5.355   7.978
19133SOL    HW259297   6.569   5.402   8.122
19134SOL     OW59298   1.655   1.863   2.185
19134SOL    HW159299   1.632   1.886   2.276
19134SOL    HW259300   1.665   1.947   2.141
19135SOL     OW59301   6.901  12.641   8.781
19135SOL    HW159302   6.977  12.585   8.792
19135SOL    HW259303   6.921  12.694   8.704
19136SOL     OW59304   9.350   4.762   7.857
19136SOL    HW159305   9.278   4.818   7.830
19136SOL    HW259306   9.350   4.690   7.793
19137SOL     OW59307   1.488   0.396   5.087
19137SOL    HW159308   1.501   0.315   5.038
19137SOL    HW259309   1.475   0.368   5.178
19138SOL     OW59310   9.943  13.125  14.352
19138SOL    HW159311  10.001  13.049  14.348
19138SOL    HW259312   9.981  13.188  14.292
19139SOL     OW59313   9.443   6.862   0.418
19139SOL    HW159314   9.432   6.956   0.430
19139SOL    HW259315   9.357   6.825   0.436
19140SOL     OW59316  12.744   7.786   9.782
19140SOL    HW159317  12.839   7.793   9.779
19140SOL    HW259318  12.719   7.758   9.694
19141SOL     OW59319   0.465   1.945  11.672
19141SOL    HW159320   0.505   1.886  11.736
19141SOL    HW259321   0.493   2.033  11.699
19142SOL     OW59322  11.041   9.837  14.808
19142SOL    HW159323  11.095   9.889  14.748
19142SOL    HW259324  10.975   9.898  14.840
19143SOL     OW59325   8.671   6.517  14.443
19143SOL    HW159326   8.726   6.516  14.364
19143SOL    HW259327   8.733   6.499  14.514
19144SOL     OW59328  13.117  12.344   4.713
19144SOL    HW159329  13.033  12.360   4.755
19144SOL    HW259330  13.172  12.306   4.782
19145SOL     OW59331  12.125  10.877   9.660
19145SOL    HW159332  12.070  10.915   9.728
19145SOL    HW259333  12.192  10.943   9.644
19146SOL     OW59334   6.752   6.735  10.019
19146SOL    HW159335   6.812   6.661  10.015
19146SOL    HW259336   6.670   6.697  10.053
19147SOL     OW59337   8.701   7.074   0.387
19147SOL    HW159338   8.721   7.085   0.480
19147SOL    HW259339   8.639   7.144   0.367
19148SOL     OW59340   4.071  10.073   3.195
19148SOL    HW159341   3.983  10.063   3.230
19148SOL    HW259342   4.118   9.995   3.225
19149SOL     OW59343   7.407   6.689   6.395
19149SOL    HW159344   7.482   6.748   6.395
19149SOL    HW259345   7.340   6.737   6.445
19150SOL     OW59346   8.256   2.822   0.025
19150SOL    HW159347   8.174   2.789   0.063
19150SOL    HW259348   8.254   2.916   0.041
19151SOL     OW59349   3.531   1.201   0.389
19151SOL    HW159350   3.512   1.107   0.382
19151SOL    HW259351   3.620   1.210   0.355
19152SOL     OW59352   7.956  10.412   6.651
19152SOL    HW159353   7.893  10.357   6.604
19152SOL    HW259354   7.903  10.457   6.717
19153SOL     OW59355  14.756  11.347   6.717
19153SOL    HW159356  14.700  11.370   6.791
19153SOL    HW259357  14.751  11.252   6.711
19154SOL     OW59358   7.279   6.865  13.183
19154SOL    HW159359   7.216   6.807  13.226
19154SOL    HW259360   7.269   6.846  13.090
19155SOL     OW59361   0.065  10.701   5.041
19155SOL    HW159362  14.871  10.649   4.996
19155SOL    HW259363   0.035  10.705   5.132
19156SOL     OW59364   0.925   5.009   6.070
19156SOL    HW159365   0.900   5.085   6.123
19156SOL    HW259366   0.898   5.032   5.981
19157SOL     OW59367   1.181   3.412  12.806
19157SOL    HW159368   1.150   3.414  12.897
19157SOL    HW259369   1.258   3.469  12.806
19158SOL     OW59370   7.198   0.848  11.525
19158SOL    HW159371   7.252   0.786  11.476
19158SOL    HW259372   7.260   0.909  11.564
19159SOL     OW59373   8.650  12.400   1.224
19159SOL    HW159374   8.598  12.326   1.256
19159SOL    HW259375   8.696  12.433   1.301
19160SOL     OW59376  14.292  10.616   6.646
19160SOL    HW159377  14.303  10.614   6.741
19160SOL    HW259378  14.250  10.532   6.625
19161SOL     OW59379  10.237   0.624  12.073
19161SOL    HW159380  10.266   0.675  12.149
19161SOL    HW259381  10.310   0.567  12.053
19162SOL     OW59382  10.768   1.033   3.589
19162SOL    HW159383  10.838   0.967   3.584
19162SOL    HW259384  10.693   0.985   3.623
19163SOL     OW59385   3.461   9.473  14.326
19163SOL    HW159386   3.425   9.415  14.393
19163SOL    HW259387   3.391   9.537  14.309
19164SOL     OW59388  14.750   4.920   4.210
19164SOL    HW159389  14.783   4.831   4.218
19164SOL    HW259390  14.656   4.909   4.197
19165SOL     OW59391   4.780   8.485  10.726
19165SOL    HW159392   4.812   8.430  10.797
19165SOL    HW259393   4.710   8.538  10.766
19166SOL     OW59394   5.636   3.580   5.264
19166SOL    HW159395   5.596   3.575   5.177
19166SOL    HW259396   5.585   3.520   5.318
19167SOL     OW59397   5.937   1.456  10.692
19167SOL    HW159398   6.027   1.426  10.682
19167SOL    HW259399   5.889   1.412  10.622
19168SOL     OW59400   0.500   7.398   5.595
19168SOL    HW159401   0.418   7.387   5.547
19168SOL    HW259402   0.515   7.312   5.636
19169SOL     OW59403   6.744  10.320   4.329
19169SOL    HW159404   6.785  10.374   4.396
19169SOL    HW259405   6.798  10.334   4.251
19170SOL     OW59406  12.444  11.610   2.771
19170SOL    HW159407  12.502  11.535   2.781
19170SOL    HW259408  12.393  11.612   2.853
19171SOL     OW59409   1.143   3.703   2.739
19171SOL    HW159410   1.070   3.704   2.677
19171SOL    HW259411   1.115   3.760   2.810
19172SOL     OW59412   9.639   0.890   6.778
19172SOL    HW159413   9.718   0.838   6.793
19172SOL    HW259414   9.644   0.913   6.685
19173SOL     OW59415   9.765   8.734   5.150
19173SOL    HW159416   9.811   8.785   5.217
19173SOL    HW259417   9.794   8.644   5.162
19174SOL     OW59418  10.958   4.356  14.651
19174SOL    HW159419  10.951   4.427  14.715
19174SOL    HW259420  10.972   4.277  14.704
19175SOL     OW59421   0.884   9.608  10.317
19175SOL    HW159422   0.906   9.668  10.388
19175SOL    HW259423   0.796   9.577  10.339
19176SOL     OW59424  10.812   6.425   8.618
19176SOL    HW159425  10.907   6.423   8.606
19176SOL    HW259426  10.796   6.366   8.691
19177SOL     OW59427  11.554  12.314   6.803
19177SOL    HW159428  11.631  12.365   6.777
19177SOL    HW259429  11.505  12.302   6.722
19178SOL     OW59430   9.694   6.549   1.225
19178SOL    HW159431   9.674   6.456   1.212
19178SOL    HW259432   9.696   6.585   1.136
19179SOL     OW59433   7.879   2.050  11.272
19179SOL    HW159434   7.804   2.106  11.290
19179SOL    HW259435   7.875   2.033  11.178
19180SOL     OW59436   9.134   5.488   3.601
19180SOL    HW159437   9.152   5.498   3.507
19180SOL    HW259438   9.101   5.398   3.609
19181SOL     OW59439  13.012  10.194   2.696
19181SOL    HW159440  12.998  10.287   2.712
19181SOL    HW259441  13.013  10.186   2.601
19182SOL     OW59442   8.221   5.006   4.265
19182SOL    HW159443   8.242   4.916   4.287
19182SOL    HW259444   8.147   5.029   4.322
19183SOL     OW59445   1.918   7.451  12.841
19183SOL    HW159446   1.877   7.469  12.756
19183SOL    HW259447   1.925   7.355  12.844
19184SOL     OW59448   9.320  14.122  12.013
19184SOL    HW159449   9.412  14.108  11.990
19184SOL    HW259450   9.275  14.127  11.928
19185SOL     OW59451  14.011   5.818  13.473
19185SOL    HW159452  13.936   5.765  13.498
19185SOL    HW259453  13.987   5.855  13.388
19186SOL     OW59454   9.745   6.167  10.931
19186SOL    HW159455   9.787   6.136  11.012
19186SOL    HW259456   9.808   6.148  10.862
19187SOL     OW59457   4.100   7.298  11.664
19187SOL    HW159458   4.061   7.245  11.734
19187SOL    HW259459   4.105   7.239  11.589
19188SOL     OW59460   7.834   3.488   6.404
19188SOL    HW159461   7.921   3.459   6.377
19188SOL    HW259462   7.790   3.513   6.323
19189SOL     OW59463   2.704   5.257   5.485
19189SOL    HW159464   2.745   5.326   5.536
19189SOL    HW259465   2.746   5.176   5.515
19190SOL     OW59466   3.105  11.052   1.357
19190SOL    HW159467   3.183  11.085   1.313
19190SOL    HW259468   3.135  10.973   1.401
19191SOL     OW59469   9.557   6.205  11.961
19191SOL    HW159470   9.573   6.273  11.896
19191SOL    HW259471   9.486   6.239  12.015
19192SOL     OW59472   6.058   6.258   4.332
19192SOL    HW159473   6.149   6.234   4.345
19192SOL    HW259474   6.007   6.183   4.363
19193SOL     OW59475  10.598   4.253  11.568
19193SOL    HW159476  10.691   4.243  11.549
19193SOL    HW259477  10.595   4.302  11.650
19194SOL     OW59478  10.053  10.386   8.252
19194SOL    HW159479   9.995  10.402   8.177
19194SOL    HW259480  10.141  10.377   8.213
19195SOL     OW59481   3.633  11.056   4.086
19195SOL    HW159482   3.651  10.964   4.105
19195SOL    HW259483   3.586  11.055   4.003
19196SOL     OW59484   9.529  14.405   9.689
19196SOL    HW159485   9.613  14.370   9.718
19196SOL    HW259486   9.469  14.331   9.694
19197SOL     OW59487   5.067   1.309  12.566
19197SOL    HW159488   5.047   1.403  12.564
19197SOL    HW259489   5.005   1.270  12.503
19198SOL     OW59490  13.338  10.170  10.374
19198SOL    HW159491  13.388  10.099  10.334
19198SOL    HW259492  13.404  10.222  10.420
19199SOL     OW59493   2.376  10.218   0.486
19199SOL    HW159494   2.408  10.157   0.420
19199SOL    HW259495   2.431  10.202   0.563
19200SOL     OW59496  12.144  14.828  14.428
19200SOL    HW159497  12.216  14.864  14.376
19200SOL    HW259498  12.085  14.788  14.364
19201SOL     OW59499  11.189  12.079   9.401
19201SOL    HW159500  11.229  12.110   9.482
19201SOL    HW259501  11.100  12.055   9.425
19202SOL     OW59502   9.037   1.022  11.012
19202SOL    HW159503   8.963   0.977  10.973
19202SOL    HW259504   9.113   0.967  10.990
19203SOL     OW59505  10.603   0.952   1.147
19203SOL    HW159506  10.577   1.026   1.202
19203SOL    HW259507  10.679   0.915   1.192
19204SOL     OW59508   8.239   8.156   0.182
19204SOL    HW159509   8.224   8.067   0.152
19204SOL    HW259510   8.191   8.211   0.121
19205SOL     OW59511   2.733   3.267   0.690
19205SOL    HW159512   2.699   3.350   0.657
19205SOL    HW259513   2.792   3.293   0.762
19206SOL     OW59514   4.589  13.085  11.392
19206SOL    HW159515   4.638  13.167  11.383
19206SOL    HW259516   4.524  13.105  11.460
19207SOL     OW59517  12.612  13.205   7.401
19207SOL    HW159518  12.604  13.131   7.341
19207SOL    HW259519  12.611  13.166   7.488
19208SOL     OW59520   8.289   7.735  13.998
19208SOL    HW159521   8.251   7.761  14.082
19208SOL    HW259522   8.230   7.667  13.965
19209SOL     OW59523   3.428   1.828   8.591
19209SOL    HW159524   3.446   1.762   8.523
19209SOL    HW259525   3.454   1.785   8.673
19210SOL     OW59526  10.249   2.138  12.252
19210SOL    HW159527  10.197   2.059  12.266
19210SOL    HW259528  10.275   2.134  12.160
19211SOL     OW59529   4.830   1.898   4.096
19211SOL    HW159530   4.895   1.888   4.166
19211SOL    HW259531   4.746   1.884   4.140
19212SOL     OW59532   8.052   8.206   1.298
19212SOL    HW159533   8.038   8.114   1.277
19212SOL    HW259534   7.971   8.233   1.342
19213SOL     OW59535   9.573   1.165   5.950
19213SOL    HW159536   9.557   1.254   5.919
19213SOL    HW259537   9.625   1.177   6.030
19214SOL     OW59538  13.130   5.147   4.920
19214SOL    HW159539  13.135   5.057   4.887
19214SOL    HW259540  13.071   5.191   4.859
19215SOL     OW59541  10.639   5.897   8.547
19215SOL    HW159542  10.631   5.863   8.636
19215SOL    HW259543  10.552   5.890   8.510
19216SOL     OW59544   2.163   6.597   5.413
19216SOL    HW159545   2.089   6.620   5.356
19216SOL    HW259546   2.227   6.558   5.354
19217SOL     OW59547  13.070   9.132   5.226
19217SOL    HW159548  13.121   9.210   5.207
19217SOL    HW259549  13.006   9.127   5.154
19218SOL     OW59550   3.410   3.571  14.557
19218SOL    HW159551   3.501   3.589  14.533
19218SOL    HW259552   3.377   3.655  14.590
19219SOL     OW59553   0.618  14.188  11.715
19219SOL    HW159554   0.610  14.094  11.731
19219SOL    HW259555   0.576  14.229  11.791
19220SOL     OW59556   2.418   1.431   6.714
19220SOL    HW159557   2.366   1.429   6.794
19220SOL    HW259558   2.507   1.453   6.743
19221SOL     OW59559  10.876  13.346   5.877
19221SOL    HW159560  10.969  13.338   5.900
19221SOL    HW259561  10.851  13.433   5.908
19222SOL     OW59562  10.788   7.058   2.581
19222SOL    HW159563  10.781   7.135   2.639
19222SOL    HW259564  10.779   6.983   2.640
19223SOL     OW59565  10.895   4.429   7.075
19223SOL    HW159566  10.845   4.364   7.025
19223SOL    HW259567  10.918   4.496   7.011
19224SOL     OW59568   5.784   8.245   1.266
19224SOL    HW159569   5.845   8.203   1.205
19224SOL    HW259570   5.794   8.338   1.249
19225SOL     OW59571   4.309  12.735  10.170
19225SOL    HW159572   4.329  12.657  10.119
19225SOL    HW259573   4.387  12.750  10.223
19226SOL     OW59574   4.368   3.606   9.666
19226SOL    HW159575   4.300   3.663   9.702
19226SOL    HW259576   4.434   3.666   9.631
19227SOL     OW59577   7.685  13.089   1.415
19227SOL    HW159578   7.664  13.035   1.338
19227SOL    HW259579   7.624  13.163   1.409
19228SOL     OW59580  12.021   0.793  12.866
19228SOL    HW159581  11.992   0.861  12.927
19228SOL    HW259582  11.971   0.810  12.786
19229SOL     OW59583  11.257   1.319  13.117
19229SOL    HW159584  11.338   1.360  13.086
19229SOL    HW259585  11.250   1.239  13.065
19230SOL     OW59586   9.308   5.190   2.219
19230SOL    HW159587   9.234   5.211   2.162
19230SOL    HW259588   9.334   5.102   2.194
19231SOL     OW59589   2.311   7.981  14.512
19231SOL    HW159590   2.352   7.955  14.430
19231SOL    HW259591   2.337   8.072  14.526
19232SOL     OW59592  12.494  13.250   9.113
19232SOL    HW159593  12.409  13.287   9.089
19232SOL    HW259594  12.481  13.155   9.112
19233SOL     OW59595   5.956  14.229   4.762
19233SOL    HW159596   5.951  14.135   4.780
19233SOL    HW259597   5.866  14.254   4.742
19234SOL     OW59598  10.005   9.182   4.546
19234SOL    HW159599  10.019   9.095   4.510
19234SOL    HW259600  10.093   9.219   4.557
19235SOL     OW59601   3.439   8.634  11.686
19235SOL    HW159602   3.427   8.549  11.645
19235SOL    HW259603   3.427   8.618  11.780
19236SOL     OW59604  13.297   3.334   7.385
19236SOL    HW159605  13.314   3.428   7.378
19236SOL    HW259606  13.375   3.293   7.348
19237SOL     OW59607   7.098   0.799   1.133
19237SOL    HW159608   7.135   0.711   1.139
19237SOL    HW259609   7.017   0.794   1.184
19238SOL     OW59610   9.042   4.374   9.134
19238SOL    HW159611   9.064   4.377   9.041
19238SOL    HW259612   9.126   4.361   9.178
19239SOL     OW59613   0.773  10.991   5.553
19239SOL    HW159614   0.739  10.977   5.641
19239SOL    HW259615   0.868  10.982   5.562
19240SOL     OW59616   2.867  11.377   4.736
19240SOL    HW159617   2.797  11.372   4.801
19240SOL    HW259618   2.879  11.287   4.707
19241SOL     OW59619   3.541  13.231   0.781
19241SOL    HW159620   3.453  13.248   0.746
19241SOL    HW259621   3.555  13.301   0.845
19242SOL     OW59622  12.461  10.443  12.031
19242SOL    HW159623  12.521  10.386  12.080
19242SOL    HW259624  12.485  10.532  12.057
19243SOL     OW59625  13.238   7.242   8.938
19243SOL    HW159626  13.159   7.263   8.988
19243SOL    HW259627  13.213   7.256   8.847
19244SOL     OW59628  13.010   0.991  12.505
19244SOL    HW159629  12.965   1.075  12.513
19244SOL    HW259630  12.995   0.964  12.415
19245SOL     OW59631  14.589   5.371  10.711
19245SOL    HW159632  14.618   5.379  10.802
19245SOL    HW259633  14.668   5.392  10.660
19246SOL     OW59634   6.145  12.502   1.451
19246SOL    HW159635   6.138  12.451   1.370
19246SOL    HW259636   6.056  12.534   1.467
19247SOL     OW59637   4.600   4.193  14.775
19247SOL    HW159638   4.577   4.208  14.684
19247SOL    HW259639   4.602   4.280  14.814
19248SOL     OW59640   1.172  10.415  11.208
19248SOL    HW159641   1.224  10.464  11.144
19248SOL    HW259642   1.164  10.475  11.283
19249SOL     OW59643   1.209   2.602   5.507
19249SOL    HW159644   1.300   2.626   5.526
19249SOL    HW259645   1.212   2.566   5.418
19250SOL     OW59646   2.983   7.768   5.358
19250SOL    HW159647   2.964   7.707   5.287
19250SOL    HW259648   2.904   7.767   5.412
19251SOL     OW59649   9.984   8.748  11.113
19251SOL    HW159650  10.034   8.829  11.120
19251SOL    HW259651  10.026   8.688  11.175
19252SOL     OW59652  14.429  10.221   6.084
19252SOL    HW159653  14.457  10.199   6.173
19252SOL    HW259654  14.387  10.140   6.052
19253SOL     OW59655   2.849  11.259   8.907
19253SOL    HW159656   2.814  11.215   8.985
19253SOL    HW259657   2.772  11.276   8.853
19254SOL     OW59658   4.500  11.921  11.473
19254SOL    HW159659   4.423  11.865  11.467
19254SOL    HW259660   4.574  11.860  11.475
19255SOL     OW59661   0.739  14.088   5.754
19255SOL    HW159662   0.813  14.058   5.808
19255SOL    HW259663   0.732  14.022   5.685
19256SOL     OW59664   2.418   2.783  12.948
19256SOL    HW159665   2.385   2.817  12.865
19256SOL    HW259666   2.513   2.779  12.936
19257SOL     OW59667   2.299  13.075   0.095
19257SOL    HW159668   2.299  13.080  14.872
19257SOL    HW259669   2.289  12.982   0.114
19258SOL     OW59670  11.791   2.044   5.689
19258SOL    HW159671  11.840   2.040   5.771
19258SOL    HW259672  11.756   1.956   5.678
19259SOL     OW59673   2.614  11.691   3.524
19259SOL    HW159674   2.708  11.688   3.536
19259SOL    HW259675   2.586  11.599   3.525
19260SOL     OW59676  12.911   7.061   2.682
19260SOL    HW159677  12.971   6.990   2.705
19260SOL    HW259678  12.904   7.055   2.586
19261SOL     OW59679   9.552   8.730   1.966
19261SOL    HW159680   9.643   8.704   1.956
19261SOL    HW259681   9.554   8.799   2.032
19262SOL     OW59682   6.355  13.732   4.733
19262SOL    HW159683   6.450  13.723   4.739
19262SOL    HW259684   6.326  13.653   4.686
19263SOL     OW59685   6.637   7.071   6.881
19263SOL    HW159686   6.596   7.023   6.953
19263SOL    HW259687   6.617   7.163   6.899
19264SOL     OW59688  13.961  10.024   1.627
19264SOL    HW159689  14.000  10.068   1.703
19264SOL    HW259690  13.879  10.070   1.612
19265SOL     OW59691   5.281  12.114   0.033
19265SOL    HW159692   5.226  12.111  14.827
19265SOL    HW259693   5.365  12.079   0.004
19266SOL     OW59694   0.609  14.445  11.603
19266SOL    HW159695   0.588  14.361  11.644
19266SOL    HW259696   0.639  14.501  11.674
19267SOL     OW59697  14.585   0.754   0.678
19267SOL    HW159698  14.597   0.660   0.691
19267SOL    HW259699  14.514   0.777   0.737
19268SOL     OW59700   2.192   6.578   2.254
19268SOL    HW159701   2.249   6.553   2.181
19268SOL    HW259702   2.135   6.646   2.218
19269SOL     OW59703  10.781  14.620   0.574
19269SOL    HW159704  10.716  14.552   0.557
19269SOL    HW259705  10.851  14.574   0.621
19270SOL     OW59706  10.238   6.755  10.996
19270SOL    HW159707  10.292   6.680  11.023
19270SOL    HW259708  10.241   6.752  10.900
19271SOL     OW59709   3.126  11.176  13.429
19271SOL    HW159710   3.168  11.164  13.344
19271SOL    HW259711   3.084  11.092  13.447
19272SOL     OW59712  10.038  13.033  10.009
19272SOL    HW159713  10.046  13.124  10.040
19272SOL    HW259714   9.944  13.014  10.016
19273SOL     OW59715   6.812   1.301   7.308
19273SOL    HW159716   6.823   1.227   7.248
19273SOL    HW259717   6.788   1.260   7.391
19274SOL     OW59718  10.382   9.231  14.692
19274SOL    HW159719  10.428   9.164  14.641
19274SOL    HW259720  10.358   9.298  14.628
19275SOL     OW59721   9.204   7.896   9.257
19275SOL    HW159722   9.216   7.950   9.179
19275SOL    HW259723   9.110   7.877   9.259
19276SOL     OW59724   3.930   6.284   6.108
19276SOL    HW159725   3.836   6.300   6.110
19276SOL    HW259726   3.970   6.367   6.135
19277SOL     OW59727   8.992   5.921   9.539
19277SOL    HW159728   9.052   5.989   9.510
19277SOL    HW259729   8.961   5.951   9.625
19278SOL     OW59730  13.230  14.803  14.291
19278SOL    HW159731  13.190  14.871  14.346
19278SOL    HW259732  13.275  14.746  14.353
19279SOL     OW59733  11.786  11.369  11.464
19279SOL    HW159734  11.799  11.276  11.443
19279SOL    HW259735  11.695  11.386  11.438
19280SOL     OW59736   0.668   5.981   5.344
19280SOL    HW159737   0.723   5.925   5.290
19280SOL    HW259738   0.730   6.032   5.396
19281SOL     OW59739  10.238   1.553  14.760
19281SOL    HW159740  10.150   1.522  14.740
19281SOL    HW259741  10.244   1.639  14.718
19282SOL     OW59742   4.559   9.045   3.924
19282SOL    HW159743   4.577   9.017   3.834
19282SOL    HW259744   4.592   8.973   3.978
19283SOL     OW59745   4.537  11.283  10.193
19283SOL    HW159746   4.452  11.290  10.149
19283SOL    HW259747   4.590  11.351  10.153
19284SOL     OW59748   9.442   9.981   2.054
19284SOL    HW159749   9.366   9.945   2.007
19284SOL    HW259750   9.442  10.074   2.032
19285SOL     OW59751   2.088   1.801   7.198
19285SOL    HW159752   2.075   1.722   7.145
19285SOL    HW259753   2.090   1.769   7.289
19286SOL     OW59754   5.962  12.347  14.820
19286SOL    HW159755   6.000  12.379  14.738
19286SOL    HW259756   6.005  12.399   0.016
19287SOL     OW59757   6.024   5.743   4.751
19287SOL    HW159758   6.098   5.758   4.693
19287SOL    HW259759   5.957   5.804   4.721
19288SOL     OW59760   8.404  13.194   5.391
19288SOL    HW159761   8.441  13.117   5.347
19288SOL    HW259762   8.372  13.249   5.320
19289SOL     OW59763  11.289   1.515   3.539
19289SOL    HW159764  11.222   1.499   3.605
19289SOL    HW259765  11.372   1.508   3.586
19290SOL     OW59766   8.632   4.037   6.614
19290SOL    HW159767   8.697   4.051   6.682
19290SOL    HW259768   8.558   4.092   6.639
19291SOL     OW59769   4.054   1.364  10.074
19291SOL    HW159770   4.009   1.341  10.155
19291SOL    HW259771   4.093   1.450  10.092
19292SOL     OW59772   3.809   4.309   2.289
19292SOL    HW159773   3.772   4.311   2.201
19292SOL    HW259774   3.881   4.372   2.287
19293SOL     OW59775  14.600  10.244   7.854
19293SOL    HW159776  14.568  10.154   7.861
19293SOL    HW259777  14.521  10.298   7.848
19294SOL     OW59778   4.190   3.619   5.175
19294SOL    HW159779   4.268   3.623   5.119
19294SOL    HW259780   4.125   3.673   5.129
19295SOL     OW59781   4.229   8.836   4.625
19295SOL    HW159782   4.196   8.750   4.653
19295SOL    HW259783   4.275   8.818   4.543
19296SOL     OW59784   0.619   4.045  12.139
19296SOL    HW159785   0.691   4.097  12.174
19296SOL    HW259786   0.547   4.107  12.128
19297SOL     OW59787  10.480  11.270   7.045
19297SOL    HW159788  10.562  11.231   7.015
19297SOL    HW259789  10.484  11.361   7.016
19298SOL     OW59790  13.421   2.228  12.982
19298SOL    HW159791  13.453   2.319  12.978
19298SOL    HW259792  13.426   2.197  12.892
19299SOL     OW59793  11.723   9.271   9.620
19299SOL    HW159794  11.708   9.364   9.604
19299SOL    HW259795  11.650   9.227   9.576
19300SOL     OW59796   4.216   9.381  14.650
19300SOL    HW159797   4.253   9.294  14.666
19300SOL    HW259798   4.280   9.441  14.687
19301SOL     OW59799  14.420   2.751  11.232
19301SOL    HW159800  14.391   2.660  11.228
19301SOL    HW259801  14.381   2.785  11.312
19302SOL     OW59802  10.553   0.783   0.483
19302SOL    HW159803  10.536   0.851   0.418
19302SOL    HW259804  10.572   0.831   0.564
19303SOL     OW59805  11.306  13.815   2.533
19303SOL    HW159806  11.318  13.790   2.625
19303SOL    HW259807  11.309  13.911   2.534
19304SOL     OW59808   2.175   6.600   0.871
19304SOL    HW159809   2.094   6.550   0.883
19304SOL    HW259810   2.243   6.533   0.860
19305SOL     OW59811   7.656   5.027   3.382
19305SOL    HW159812   7.719   4.997   3.447
19305SOL    HW259813   7.608   5.098   3.425
19306SOL     OW59814   7.204  13.134  12.955
19306SOL    HW159815   7.227  13.145  12.863
19306SOL    HW259816   7.261  13.063  12.985
19307SOL     OW59817   6.634   5.807   4.190
19307SOL    HW159818   6.550   5.838   4.221
19307SOL    HW259819   6.650   5.856   4.109
19308SOL     OW59820   3.792   8.777   3.380
19308SOL    HW159821   3.795   8.860   3.427
19308SOL    HW259822   3.808   8.711   3.448
19309SOL     OW59823   7.644   8.578   2.954
19309SOL    HW159824   7.634   8.656   3.008
19309SOL    HW259825   7.638   8.505   3.017
19310SOL     OW59826   6.217  10.174   5.139
19310SOL    HW159827   6.221  10.138   5.050
19310SOL    HW259828   6.303  10.155   5.177
19311SOL     OW59829  12.038   8.288  12.108
19311SOL    HW159830  11.944   8.304  12.103
19311SOL    HW259831  12.048   8.195  12.085
19312SOL     OW59832   2.273  14.799   5.379
19312SOL    HW159833   2.276  14.717   5.328
19312SOL    HW259834   2.304  14.866   5.318
19313SOL     OW59835   9.435  13.427  13.921
19313SOL    HW159836   9.470  13.338  13.918
19313SOL    HW259837   9.478  13.467  13.996
19314SOL     OW59838   0.721  13.711   2.327
19314SOL    HW159839   0.715  13.772   2.253
19314SOL    HW259840   0.688  13.628   2.292
19315SOL     OW59841   2.876  12.117  14.062
19315SOL    HW159842   2.813  12.149  13.997
19315SOL    HW259843   2.923  12.196  14.090
19316SOL     OW59844  12.693  10.899   4.866
19316SOL    HW159845  12.637  10.973   4.841
19316SOL    HW259846  12.686  10.837   4.793
19317SOL     OW59847  12.934   1.547  10.946
19317SOL    HW159848  12.886   1.608  10.890
19317SOL    HW259849  12.999   1.602  10.991
19318SOL     OW59850  13.505   0.205  13.408
19318SOL    HW159851  13.531   0.231  13.320
19318SOL    HW259852  13.466   0.119  13.398
19319SOL     OW59853   1.449  13.298  10.966
19319SOL    HW159854   1.386  13.370  10.963
19319SOL    HW259855   1.496  13.311  11.048
19320SOL     OW59856  11.743   4.764   8.181
19320SOL    HW159857  11.724   4.699   8.249
19320SOL    HW259858  11.681   4.835   8.199
19321SOL     OW59859   6.622   4.502   8.440
19321SOL    HW159860   6.603   4.595   8.432
19321SOL    HW259861   6.716   4.498   8.458
19322SOL     OW59862   0.893   1.568   8.661
19322SOL    HW159863   0.871   1.640   8.603
19322SOL    HW259864   0.926   1.499   8.603
19323SOL     OW59865   3.217  14.692   9.505
19323SOL    HW159866   3.207  14.600   9.480
19323SOL    HW259867   3.214  14.691   9.601
19324SOL     OW59868   2.934   1.135  14.578
19324SOL    HW159869   3.008   1.180  14.618
19324SOL    HW259870   2.924   1.055  14.629
19325SOL     OW59871  10.470   0.864  14.735
19325SOL    HW159872  10.387   0.909  14.755
19325SOL    HW259873  10.482   0.877  14.641
19326SOL     OW59874   6.515   0.627   0.092
19326SOL    HW159875   6.536   0.714   0.060
19326SOL    HW259876   6.457   0.590   0.026
19327SOL     OW59877  14.452   7.176   5.317
19327SOL    HW159878  14.465   7.263   5.355
19327SOL    HW259879  14.393   7.131   5.377
19328SOL     OW59880   3.357  14.227   5.457
19328SOL    HW159881   3.326  14.193   5.373
19328SOL    HW259882   3.277  14.252   5.503
19329SOL     OW59883   8.981   1.786  10.814
19329SOL    HW159884   8.901   1.742  10.843
19329SOL    HW259885   9.051   1.724  10.836
19330SOL     OW59886  10.501   3.657   5.581
19330SOL    HW159887  10.532   3.638   5.669
19330SOL    HW259888  10.418   3.704   5.594
19331SOL     OW59889   7.662  12.612   1.715
19331SOL    HW159890   7.607  12.534   1.723
19331SOL    HW259891   7.744  12.589   1.760
19332SOL     OW59892   6.591   5.080   4.197
19332SOL    HW159893   6.548   5.021   4.135
19332SOL    HW259894   6.669   5.032   4.226
19333SOL     OW59895   9.870   3.980  13.030
19333SOL    HW159896   9.943   4.035  13.055
19333SOL    HW259897   9.908   3.917  12.967
19334SOL     OW59898   9.648  14.514  14.120
19334SOL    HW159899   9.727  14.528  14.173
19334SOL    HW259900   9.576  14.543  14.176
19335SOL     OW59901   7.160   3.110   6.742
19335SOL    HW159902   7.106   3.036   6.714
19335SOL    HW259903   7.112   3.187   6.710
19336SOL     OW59904  14.603  12.691  14.634
19336SOL    HW159905  14.547  12.749  14.685
19336SOL    HW259906  14.560  12.686  14.548
19337SOL     OW59907   9.089  13.221  12.240
19337SOL    HW159908   9.060  13.286  12.175
19337SOL    HW259909   9.112  13.272  12.317
19338SOL     OW59910  12.954   4.420  13.892
19338SOL    HW159911  12.878   4.384  13.846
19338SOL    HW259912  12.988   4.347  13.944
19339SOL     OW59913  13.852   0.763   0.182
19339SOL    HW159914  13.765   0.725   0.167
19339SOL    HW259915  13.878   0.731   0.268
19340SOL     OW59916   9.014   2.082   3.967
19340SOL    HW159917   8.975   2.053   3.884
19340SOL    HW259918   9.075   2.151   3.942
19341SOL     OW59919   7.444   7.076   0.634
19341SOL    HW159920   7.532   7.039   0.641
19341SOL    HW259921   7.458   7.171   0.631
19342SOL     OW59922  14.524  12.941   8.821
19342SOL    HW159923  14.584  12.869   8.842
19342SOL    HW259924  14.446  12.924   8.873
19343SOL     OW59925   0.578  10.409  14.024
19343SOL    HW159926   0.583  10.411  14.120
19343SOL    HW259927   0.654  10.357  13.997
19344SOL     OW59928  10.136  12.774   3.085
19344SOL    HW159929  10.205  12.725   3.130
19344SOL    HW259930  10.179  12.855   3.057
19345SOL     OW59931   2.301  12.277  13.249
19345SOL    HW159932   2.282  12.363  13.286
19345SOL    HW259933   2.396  12.275  13.240
19346SOL     OW59934   9.649   0.680  11.234
19346SOL    HW159935   9.707   0.708  11.164
19346SOL    HW259936   9.607   0.601  11.200
19347SOL     OW59937   1.571  12.928  10.985
19347SOL    HW159938   1.627  12.898  10.914
19347SOL    HW259939   1.631  12.939  11.059
19348SOL     OW59940   7.314   0.196  13.131
19348SOL    HW159941   7.310   0.103  13.153
19348SOL    HW259942   7.264   0.204  13.050
19349SOL     OW59943   6.527   6.989   3.370
19349SOL    HW159944   6.617   6.962   3.385
19349SOL    HW259945   6.503   6.946   3.288
19350SOL     OW59946   1.566  11.443   1.490
19350SOL    HW159947   1.605  11.516   1.443
19350SOL    HW259948   1.640  11.393   1.524
19351SOL     OW59949   9.396   6.012  14.870
19351SOL    HW159950   9.338   5.985  14.798
19351SOL    HW259951   9.385   5.943   0.063
19352SOL     OW59952  13.073   1.885   7.102
19352SOL    HW159953  13.146   1.825   7.121
19352SOL    HW259954  13.001   1.828   7.076
19353SOL     OW59955  12.730   3.393   8.999
19353SOL    HW159956  12.759   3.305   8.976
19353SOL    HW259957  12.654   3.409   8.944
19354SOL     OW59958   3.986   0.499   6.545
19354SOL    HW159959   3.903   0.516   6.501
19354SOL    HW259960   4.029   0.432   6.491
19355SOL     OW59961   2.169   7.502   3.118
19355SOL    HW159962   2.104   7.431   3.115
19355SOL    HW259963   2.215   7.488   3.201
19356SOL     OW59964   4.255   7.482   7.064
19356SOL    HW159965   4.268   7.501   7.157
19356SOL    HW259966   4.274   7.564   7.020
19357SOL     OW59967   5.580   8.609  11.358
19357SOL    HW159968   5.662   8.656  11.373
19357SOL    HW259969   5.599   8.551  11.284
19358SOL     OW59970   2.732  13.452  10.093
19358SOL    HW159971   2.797  13.397  10.137
19358SOL    HW259972   2.658  13.394  10.077
19359SOL     OW59973   4.553   4.644   5.690
19359SOL    HW159974   4.552   4.720   5.748
19359SOL    HW259975   4.462   4.616   5.684
19360SOL     OW59976   0.473   5.768   8.908
19360SOL    HW159977   0.550   5.824   8.922
19360SOL    HW259978   0.399   5.828   8.914
19361SOL     OW59979   7.501   7.760   2.409
19361SOL    HW159980   7.583   7.726   2.444
19361SOL    HW259981   7.435   7.732   2.472
19362SOL     OW59982   9.975  10.386   6.880
19362SOL    HW159983  10.060  10.360   6.847
19362SOL    HW259984   9.914  10.322   6.843
19363SOL     OW59985  10.503  13.112  10.906
19363SOL    HW159986  10.413  13.140  10.921
19363SOL    HW259987  10.498  13.049  10.834
19364SOL     OW59988  13.801  11.716   4.304
19364SOL    HW159989  13.826  11.807   4.319
19364SOL    HW259990  13.784  11.681   4.391
19365SOL     OW59991   7.493   4.140   8.976
19365SOL    HW159992   7.562   4.096   9.025
19365SOL    HW259993   7.536   4.169   8.895
19366SOL     OW59994   5.305  10.014   6.583
19366SOL    HW159995   5.343   9.930   6.559
19366SOL    HW259996   5.298  10.062   6.501
19367SOL     OW59997   9.167  10.698   3.111
19367SOL    HW159998   9.254  10.717   3.075
19367SOL    HW259999   9.167  10.743   3.196
19368SOL     OW60000   4.824   0.152  10.945
19368SOL    HW160001   4.840   0.163  10.851
19368SOL    HW260002   4.910   0.127  10.980
19369SOL     OW60003  10.729   7.287  14.598
19369SOL    HW160004  10.721   7.197  14.629
19369SOL    HW260005  10.820   7.310  14.615
19370SOL     OW60006   8.343   9.091   6.090
19370SOL    HW160007   8.387   9.006   6.099
19370SOL    HW260008   8.251   9.072   6.107
19371SOL     OW60009   6.815  10.968   0.769
19371SOL    HW160010   6.796  11.014   0.688
19371SOL    HW260011   6.850  10.884   0.742
19372SOL     OW60012   9.175  10.128   8.458
19372SOL    HW160013   9.165  10.139   8.363
19372SOL    HW260014   9.235  10.054   8.467
19373SOL     OW60015   5.077  10.626  14.017
19373SOL    HW160016   4.989  10.665  14.019
19373SOL    HW260017   5.065  10.538  14.053
19374SOL     OW60018   0.639  13.988   4.337
19374SOL    HW160019   0.631  13.895   4.356
19374SOL    HW260020   0.583  14.001   4.260
19375SOL     OW60021  14.674  13.775   0.388
19375SOL    HW160022  14.751  13.785   0.332
19375SOL    HW260023  14.607  13.827   0.345
19376SOL     OW60024  10.935   5.324   0.866
19376SOL    HW160025  10.882   5.251   0.898
19376SOL    HW260026  10.948   5.305   0.773
19377SOL     OW60027   0.899   7.850  10.474
19377SOL    HW160028   0.966   7.880  10.536
19377SOL    HW260029   0.887   7.757  10.494
19378SOL     OW60030   5.741   3.098   2.847
19378SOL    HW160031   5.693   3.019   2.873
19378SOL    HW260032   5.781   3.129   2.929
19379SOL     OW60033  14.691   9.432  10.200
19379SOL    HW160034  14.657   9.517  10.171
19379SOL    HW260035  14.783   9.433  10.172
19380SOL     OW60036  13.606   9.435   1.796
19380SOL    HW160037  13.647   9.350   1.780
19380SOL    HW260038  13.680   9.496   1.799
19381SOL     OW60039   8.348   3.413  10.200
19381SOL    HW160040   8.436   3.449  10.213
19381SOL    HW260041   8.289   3.488  10.214
19382SOL     OW60042   2.781  12.668   4.831
19382SOL    HW160043   2.769  12.646   4.738
19382SOL    HW260044   2.797  12.762   4.831
19383SOL     OW60045  13.608  12.223   2.234
19383SOL    HW160046  13.628  12.228   2.141
19383SOL    HW260047  13.693  12.221   2.278
19384SOL     OW60048   3.783   2.934   0.368
19384SOL    HW160049   3.870   2.971   0.354
19384SOL    HW260050   3.771   2.937   0.463
19385SOL     OW60051  13.893   1.781   0.756
19385SOL    HW160052  13.861   1.793   0.846
19385SOL    HW260053  13.847   1.848   0.705
19386SOL     OW60054   9.966   8.597  11.874
19386SOL    HW160055  10.054   8.558  11.878
19386SOL    HW260056   9.917   8.553  11.944
19387SOL     OW60057   8.077   1.333   7.164
19387SOL    HW160058   8.148   1.304   7.221
19387SOL    HW260059   7.997   1.309   7.211
19388SOL     OW60060   9.703   1.787   1.515
19388SOL    HW160061   9.701   1.814   1.424
19388SOL    HW260062   9.639   1.716   1.521
19389SOL     OW60063  11.949   9.401  11.560
19389SOL    HW160064  11.960   9.487  11.520
19389SOL    HW260065  11.892   9.416  11.635
19390SOL     OW60066   4.431  13.970   5.575
19390SOL    HW160067   4.379  14.032   5.523
19390SOL    HW260068   4.418  13.998   5.666
19391SOL     OW60069   2.087   5.015   4.966
19391SOL    HW160070   2.038   5.098   4.974
19391SOL    HW260071   2.163   5.038   4.913
19392SOL     OW60072   7.783  10.954  11.734
19392SOL    HW160073   7.814  11.001  11.657
19392SOL    HW260074   7.863  10.930  11.781
19393SOL     OW60075  13.011  10.509   4.215
19393SOL    HW160076  12.991  10.591   4.169
19393SOL    HW260077  12.989  10.527   4.306
19394SOL     OW60078   7.009   2.690   0.564
19394SOL    HW160079   7.003   2.752   0.491
19394SOL    HW260080   7.075   2.627   0.538
19395SOL     OW60081  13.919   5.051   9.159
19395SOL    HW160082  13.886   5.080   9.244
19395SOL    HW260083  13.948   4.961   9.173
19396SOL     OW60084  14.581  12.368  13.969
19396SOL    HW160085  14.605  12.451  14.011
19396SOL    HW260086  14.502  12.389  13.919
19397SOL     OW60087   8.751  11.779   5.148
19397SOL    HW160088   8.773  11.728   5.070
19397SOL    HW260089   8.722  11.864   5.115
19398SOL     OW60090  14.389   6.383   5.683
19398SOL    HW160091  14.299   6.373   5.650
19398SOL    HW260092  14.380   6.374   5.778
19399SOL     OW60093  13.751   9.351  13.439
19399SOL    HW160094  13.772   9.331  13.530
19399SOL    HW260095  13.670   9.303  13.421
19400SOL     OW60096  14.066  12.415   1.729
19400SOL    HW160097  14.040  12.424   1.637
19400SOL    HW260098  13.990  12.444   1.778
19401SOL     OW60099  11.843   0.048   9.625
19401SOL    HW160100  11.885   0.115   9.680
19401SOL    HW260101  11.863  14.838   9.670
19402SOL     OW60102   9.705   1.984   8.708
19402SOL    HW160103   9.751   2.053   8.755
19402SOL    HW260104   9.681   1.920   8.776
19403SOL     OW60105   8.348  10.581   4.663
19403SOL    HW160106   8.424  10.596   4.718
19403SOL    HW260107   8.384  10.550   4.580
19404SOL     OW60108   2.741   2.144  13.863
19404SOL    HW160109   2.682   2.095  13.805
19404SOL    HW260110   2.730   2.235  13.836
19405SOL     OW60111   5.691   6.692   8.230
19405SOL    HW160112   5.638   6.624   8.188
19405SOL    HW260113   5.635   6.770   8.230
19406SOL     OW60114   7.909  13.616   2.402
19406SOL    HW160115   7.819  13.587   2.414
19406SOL    HW260116   7.926  13.673   2.477
19407SOL     OW60117  13.123   4.203   8.646
19407SOL    HW160118  13.051   4.141   8.634
19407SOL    HW260119  13.162   4.178   8.729
19408SOL     OW60120  12.700   9.726   3.903
19408SOL    HW160121  12.775   9.786   3.904
19408SOL    HW260122  12.685   9.705   3.995
19409SOL     OW60123   2.576   6.281   0.378
19409SOL    HW160124   2.559   6.258   0.287
19409SOL    HW260125   2.614   6.202   0.416
19410SOL     OW60126  12.701  10.145  13.017
19410SOL    HW160127  12.714  10.073  12.955
19410SOL    HW260128  12.788  10.184  13.028
19411SOL     OW60129   1.751  10.476   6.370
19411SOL    HW160130   1.825  10.482   6.430
19411SOL    HW260131   1.727  10.384   6.370
19412SOL     OW60132   7.581  11.555  12.973
19412SOL    HW160133   7.606  11.609  12.898
19412SOL    HW260134   7.524  11.487  12.935
19413SOL     OW60135  11.012   6.522   1.260
19413SOL    HW160136  11.023   6.597   1.201
19413SOL    HW260137  11.089   6.468   1.244
19414SOL     OW60138  14.457  13.519  12.971
19414SOL    HW160139  14.421  13.602  13.000
19414SOL    HW260140  14.549  13.537  12.954
19415SOL     OW60141   3.278   2.321  11.942
19415SOL    HW160142   3.190   2.343  11.972
19415SOL    HW260143   3.331   2.322  12.022
19416SOL     OW60144   6.311  11.821   0.753
19416SOL    HW160145   6.375  11.763   0.713
19416SOL    HW260146   6.321  11.904   0.706
19417SOL     OW60147   2.262  11.204  12.477
19417SOL    HW160148   2.217  11.283  12.449
19417SOL    HW260149   2.258  11.207  12.573
19418SOL     OW60150  12.654  12.980   8.746
19418SOL    HW160151  12.701  13.004   8.667
19418SOL    HW260152  12.684  13.044   8.812
19419SOL     OW60153   7.981  11.622   0.585
19419SOL    HW160154   7.983  11.717   0.598
19419SOL    HW260155   7.945  11.610   0.497
19420SOL     OW60156   6.990   7.013   1.554
19420SOL    HW160157   7.002   7.051   1.641
19420SOL    HW260158   7.050   7.061   1.497
19421SOL     OW60159   1.281   3.495   4.743
19421SOL    HW160160   1.202   3.453   4.779
19421SOL    HW260161   1.295   3.571   4.800
19422SOL     OW60162   8.257   4.430   6.914
19422SOL    HW160163   8.246   4.358   6.852
19422SOL    HW260164   8.186   4.418   6.977
19423SOL     OW60165   7.459  10.608  14.589
19423SOL    HW160166   7.500  10.569  14.666
19423SOL    HW260167   7.527  10.607  14.523
19424SOL     OW60168  11.938  10.187   2.596
19424SOL    HW160169  11.980  10.130   2.659
19424SOL    HW260170  11.901  10.128   2.530
19425SOL     OW60171   2.416   2.671   2.073
19425SOL    HW160172   2.338   2.671   2.128
19425SOL    HW260173   2.489   2.684   2.134
19426SOL     OW60174   6.097  12.384  11.081
19426SOL    HW160175   6.146  12.303  11.063
19426SOL    HW260176   6.008  12.354  11.099
19427SOL     OW60177   8.526  12.372   6.450
19427SOL    HW160178   8.603  12.411   6.409
19427SOL    HW260179   8.454  12.390   6.389
19428SOL     OW60180   7.332   8.566   3.436
19428SOL    HW160181   7.339   8.574   3.341
19428SOL    HW260182   7.292   8.480   3.451
19429SOL     OW60183  11.416   0.728   4.965
19429SOL    HW160184  11.381   0.782   5.035
19429SOL    HW260185  11.400   0.638   4.993
19430SOL     OW60186   2.591   5.285   3.943
19430SOL    HW160187   2.577   5.194   3.971
19430SOL    HW260188   2.646   5.278   3.865
19431SOL     OW60189   9.532   2.872   1.442
19431SOL    HW160190   9.525   2.946   1.502
19431SOL    HW260191   9.621   2.839   1.454
19432SOL     OW60192  13.268  12.589   3.848
19432SOL    HW160193  13.313  12.586   3.763
19432SOL    HW260194  13.188  12.637   3.831
19433SOL     OW60195  14.196   0.042   1.875
19433SOL    HW160196  14.204   0.086   1.959
19433SOL    HW260197  14.109   0.002   1.877
19434SOL     OW60198   1.474   6.340   3.725
19434SOL    HW160199   1.417   6.266   3.705
19434SOL    HW260200   1.560   6.316   3.690
19435SOL     OW60201   0.971   6.359   9.048
19435SOL    HW160202   0.897   6.299   9.050
19435SOL    HW260203   1.008   6.350   8.960
19436SOL     OW60204   3.577  13.250   6.318
19436SOL    HW160205   3.570  13.303   6.397
19436SOL    HW260206   3.501  13.193   6.321
19437SOL     OW60207   4.025   2.477  14.243
19437SOL    HW160208   4.104   2.513  14.284
19437SOL    HW260209   4.022   2.386  14.272
19438SOL     OW60210   4.450   6.355  12.069
19438SOL    HW160211   4.386   6.363  11.999
19438SOL    HW260212   4.468   6.262  12.075
19439SOL     OW60213   2.924   2.519   8.705
19439SOL    HW160214   2.900   2.595   8.651
19439SOL    HW260215   2.999   2.480   8.659
19440SOL     OW60216   9.753   6.529  12.081
19440SOL    HW160217   9.666   6.560  12.057
19440SOL    HW260218   9.805   6.609  12.092
19441SOL     OW60219   4.670  11.582   9.099
19441SOL    HW160220   4.609  11.514   9.072
19441SOL    HW260221   4.617  11.662   9.103
19442SOL     OW60222   4.767   6.212   3.799
19442SOL    HW160223   4.780   6.261   3.718
19442SOL    HW260224   4.757   6.121   3.771
19443SOL     OW60225   9.655   5.683  10.801
19443SOL    HW160226   9.588   5.732  10.754
19443SOL    HW260227   9.700   5.632  10.734
19444SOL     OW60228  14.519   0.666   7.820
19444SOL    HW160229  14.465   0.732   7.777
19444SOL    HW260230  14.468   0.585   7.814
19445SOL     OW60231  14.754  10.295  14.816
19445SOL    HW160232  14.739  10.241   0.022
19445SOL    HW260233  14.686  10.362  14.821
19446SOL     OW60234   7.739   6.670  11.129
19446SOL    HW160235   7.651   6.709  11.134
19446SOL    HW260236   7.790   6.735  11.080
19447SOL     OW60237   9.876   3.228   4.851
19447SOL    HW160238   9.784   3.255   4.850
19447SOL    HW260239   9.876   3.145   4.897
19448SOL     OW60240   3.014  10.879   0.483
19448SOL    HW160241   3.077  10.923   0.427
19448SOL    HW260242   2.977  10.809   0.428
19449SOL     OW60243  12.561  12.993   7.239
19449SOL    HW160244  12.496  12.939   7.194
19449SOL    HW260245  12.638  12.937   7.247
19450SOL     OW60246   2.789  10.258  12.279
19450SOL    HW160247   2.856  10.271  12.212
19450SOL    HW260248   2.715  10.312  12.251
19451SOL     OW60249  12.388   3.575  11.306
19451SOL    HW160250  12.295   3.592  11.321
19451SOL    HW260251  12.408   3.500  11.362
19452SOL     OW60252   8.591   6.206   5.210
19452SOL    HW160253   8.519   6.200   5.147
19452SOL    HW260254   8.549   6.199   5.295
19453SOL     OW60255  13.449  11.465   7.333
19453SOL    HW160256  13.508  11.527   7.292
19453SOL    HW260257  13.461  11.479   7.427
19454SOL     OW60258  12.907  14.743  11.453
19454SOL    HW160259  12.960  14.792  11.391
19454SOL    HW260260  12.922  14.787  11.537
19455SOL     OW60261  10.009   9.109   5.094
19455SOL    HW160262  10.066   9.073   5.026
19455SOL    HW260263   9.942   9.158   5.046
19456SOL     OW60264   5.547   2.704   6.091
19456SOL    HW160265   5.629   2.724   6.045
19456SOL    HW260266   5.497   2.651   6.029
19457SOL     OW60267   0.811   1.030   5.889
19457SOL    HW160268   0.788   0.940   5.911
19457SOL    HW260269   0.806   1.077   5.973
19458SOL     OW60270   5.930   5.168   5.384
19458SOL    HW160271   5.982   5.246   5.403
19458SOL    HW260272   5.988   5.114   5.331
19459SOL     OW60273  10.320   5.065   0.647
19459SOL    HW160274  10.304   5.120   0.569
19459SOL    HW260275  10.274   5.110   0.718
19460SOL     OW60276   2.366   7.312   6.241
19460SOL    HW160277   2.376   7.245   6.173
19460SOL    HW260278   2.455   7.346   6.253
19461SOL     OW60279  14.116  13.739   6.559
19461SOL    HW160280  14.057  13.812   6.579
19461SOL    HW260281  14.110  13.728   6.464
19462SOL     OW60282   1.911  13.019   2.768
19462SOL    HW160283   1.997  13.053   2.742
19462SOL    HW260284   1.858  13.027   2.689
19463SOL     OW60285   6.581   5.540  10.829
19463SOL    HW160286   6.633   5.521  10.751
19463SOL    HW260287   6.635   5.510  10.902
19464SOL     OW60288   8.278  10.008   7.572
19464SOL    HW160289   8.257   9.948   7.501
19464SOL    HW260290   8.287  10.093   7.529
19465SOL     OW60291   4.240  10.577   2.420
19465SOL    HW160292   4.252  10.520   2.344
19465SOL    HW260293   4.175  10.532   2.474
19466SOL     OW60294  11.739   7.391   1.397
19466SOL    HW160295  11.803   7.321   1.406
19466SOL    HW260296  11.660   7.348   1.364
19467SOL     OW60297   9.599   3.303  12.243
19467SOL    HW160298   9.595   3.321  12.337
19467SOL    HW260299   9.674   3.246  12.232
19468SOL     OW60300   9.053   1.404   9.558
19468SOL    HW160301   9.100   1.321   9.565
19468SOL    HW260302   9.004   1.398   9.477
19469SOL     OW60303  10.005   2.569   5.780
19469SOL    HW160304  10.046   2.650   5.750
19469SOL    HW260305  10.022   2.506   5.711
19470SOL     OW60306   3.527   5.858  10.393
19470SOL    HW160307   3.464   5.852  10.321
19470SOL    HW260308   3.558   5.768  10.405
19471SOL     OW60309   1.124  12.715   5.191
19471SOL    HW160310   1.076  12.715   5.109
19471SOL    HW260311   1.199  12.658   5.175
19472SOL     OW60312  14.348   4.486   8.595
19472SOL    HW160313  14.369   4.556   8.657
19472SOL    HW260314  14.354   4.528   8.509
19473SOL     OW60315   2.898  12.372   2.104
19473SOL    HW160316   2.904  12.326   2.020
19473SOL    HW260317   2.945  12.455   2.089
19474SOL     OW60318  14.007   5.032   3.837
19474SOL    HW160319  13.934   4.973   3.856
19474SOL    HW260320  14.003   5.099   3.904
19475SOL     OW60321  12.300   5.100  11.383
19475SOL    HW160322  12.392   5.095  11.355
19475SOL    HW260323  12.281   5.013  11.418
19476SOL     OW60324   0.043   9.227  12.346
19476SOL    HW160325   0.027   9.138  12.378
19476SOL    HW260326   0.035   9.282  12.424
19477SOL     OW60327  11.920   0.338   9.366
19477SOL    HW160328  11.849   0.278   9.390
19477SOL    HW260329  11.976   0.286   9.308
19478SOL     OW60330   6.300  12.990   7.313
19478SOL    HW160331   6.363  13.002   7.242
19478SOL    HW260332   6.353  12.991   7.392
19479SOL     OW60333   6.491  10.190   5.477
19479SOL    HW160334   6.417  10.129   5.478
19479SOL    HW260335   6.550  10.157   5.544
19480SOL     OW60336  12.520  10.091   8.104
19480SOL    HW160337  12.444  10.033   8.095
19480SOL    HW260338  12.584  10.055   8.042
19481SOL     OW60339   1.061  12.402   4.960
19481SOL    HW160340   0.972  12.425   4.988
19481SOL    HW260341   1.118  12.440   5.028
19482SOL     OW60342   1.428   1.979   9.272
19482SOL    HW160343   1.439   1.944   9.361
19482SOL    HW260344   1.488   2.054   9.269
19483SOL     OW60345   8.633   4.115   6.020
19483SOL    HW160346   8.691   4.173   5.971
19483SOL    HW260347   8.563   4.093   5.959
19484SOL     OW60348  13.442  13.398  14.769
19484SOL    HW160349  13.479  13.463  14.829
19484SOL    HW260350  13.355  13.431  14.750
19485SOL     OW60351   3.844   2.851   7.152
19485SOL    HW160352   3.758   2.841   7.111
19485SOL    HW260353   3.896   2.898   7.086
19486SOL     OW60354   2.673   1.978  13.091
19486SOL    HW160355   2.596   1.931  13.061
19486SOL    HW260356   2.645   2.069  13.099
19487SOL     OW60357  13.559   6.552   0.483
19487SOL    HW160358  13.548   6.610   0.558
19487SOL    HW260359  13.616   6.482   0.514
19488SOL     OW60360  14.501   3.293  11.762
19488SOL    HW160361  14.453   3.257  11.688
19488SOL    HW260362  14.446   3.271  11.838
19489SOL     OW60363  11.632   2.118   7.913
19489SOL    HW160364  11.667   2.056   7.848
19489SOL    HW260365  11.622   2.065   7.992
19490SOL     OW60366  13.821  14.470   2.861
19490SOL    HW160367  13.838  14.489   2.768
19490SOL    HW260368  13.787  14.553   2.896
19491SOL     OW60369   6.123   3.991   3.221
19491SOL    HW160370   6.190   3.934   3.182
19491SOL    HW260371   6.075   4.027   3.146
19492SOL     OW60372   4.248   5.123   3.540
19492SOL    HW160373   4.232   5.043   3.591
19492SOL    HW260374   4.161   5.150   3.511
19493SOL     OW60375   3.191   4.108  10.536
19493SOL    HW160376   3.176   4.051  10.612
19493SOL    HW260377   3.214   4.047  10.466
19494SOL     OW60378   6.928   5.358  14.484
19494SOL    HW160379   6.892   5.430  14.432
19494SOL    HW260380   6.868   5.349  14.557
19495SOL     OW60381   5.566  14.807   0.085
19495SOL    HW160382   5.573  14.777  14.866
19495SOL    HW260383   5.533   0.024   0.078
19496SOL     OW60384  11.883   3.228  11.017
19496SOL    HW160385  11.941   3.152  11.013
19496SOL    HW260386  11.941   3.303  11.027
19497SOL     OW60387  12.859   7.865   7.163
19497SOL    HW160388  12.900   7.894   7.082
19497SOL    HW260389  12.826   7.778   7.143
19498SOL     OW60390   5.271   8.637  12.866
19498SOL    HW160391   5.297   8.652  12.956
19498SOL    HW260392   5.191   8.585  12.872
19499SOL     OW60393   3.414   0.615   2.796
19499SOL    HW160394   3.479   0.681   2.820
19499SOL    HW260395   3.341   0.664   2.758
19500SOL     OW60396   8.619  11.261   5.145
19500SOL    HW160397   8.692  11.312   5.110
19500SOL    HW260398   8.544  11.321   5.140
19501SOL     OW60399   5.843   0.210   1.392
19501SOL    HW160400   5.817   0.191   1.302
19501SOL    HW260401   5.795   0.146   1.444
19502SOL     OW60402   1.140  10.562   2.590
19502SOL    HW160403   1.051  10.528   2.586
19502SOL    HW260404   1.139  10.637   2.531
19503SOL     OW60405  10.406   9.914  14.664
19503SOL    HW160406  10.431   9.988  14.608
19503SOL    HW260407  10.489   9.883  14.700
19504SOL     OW60408   7.695   1.558  11.919
19504SOL    HW160409   7.763   1.499  11.886
19504SOL    HW260410   7.730   1.646  11.901
19505SOL     OW60411   0.938   6.622  14.424
19505SOL    HW160412   0.894   6.614  14.508
19505SOL    HW260413   1.010   6.559  14.429
19506SOL     OW60414   8.360  14.155   8.767
19506SOL    HW160415   8.423  14.179   8.835
19506SOL    HW260416   8.414  14.132   8.691
19507SOL     OW60417   1.010  13.615  10.467
19507SOL    HW160418   0.965  13.535  10.496
19507SOL    HW260419   0.939  13.671  10.434
19508SOL     OW60420   6.314   0.752   2.459
19508SOL    HW160421   6.337   0.660   2.465
19508SOL    HW260422   6.224   0.757   2.491
19509SOL     OW60423   4.622   7.669  13.776
19509SOL    HW160424   4.582   7.730  13.838
19509SOL    HW260425   4.648   7.594  13.828
19510SOL     OW60426   7.280   0.117   4.238
19510SOL    HW160427   7.331   0.132   4.158
19510SOL    HW260428   7.306   0.189   4.296
19511SOL     OW60429   0.596   3.181   9.816
19511SOL    HW160430   0.657   3.154   9.747
19511SOL    HW260431   0.614   3.274   9.829
19512SOL     OW60432   6.490   6.376  13.633
19512SOL    HW160433   6.562   6.425  13.593
19512SOL    HW260434   6.507   6.285  13.610
19513SOL     OW60435  12.425   4.322  14.622
19513SOL    HW160436  12.469   4.310  14.538
19513SOL    HW260437  12.336   4.290  14.607
19514SOL     OW60438  14.773   7.424   6.291
19514SOL    HW160439  14.827   7.482   6.345
19514SOL    HW260440  14.774   7.340   6.338
19515SOL     OW60441   1.297   7.321   1.265
19515SOL    HW160442   1.272   7.403   1.222
19515SOL    HW260443   1.311   7.345   1.357
19516SOL     OW60444   3.733  11.419   6.537
19516SOL    HW160445   3.670  11.412   6.465
19516SOL    HW260446   3.818  11.399   6.496
19517SOL     OW60447   0.409   7.754   1.247
19517SOL    HW160448   0.364   7.671   1.231
19517SOL    HW260449   0.467   7.765   1.172
19518SOL     OW60450   5.944   3.545   2.077
19518SOL    HW160451   5.977   3.634   2.089
19518SOL    HW260452   5.849   3.554   2.080
19519SOL     OW60453   7.071  11.708  11.151
19519SOL    HW160454   7.114  11.713  11.236
19519SOL    HW260455   7.127  11.651  11.099
19520SOL     OW60456   0.135   1.554  13.786
19520SOL    HW160457   0.068   1.495  13.821
19520SOL    HW260458   0.088   1.636  13.768
19521SOL     OW60459   9.741   6.863  14.173
19521SOL    HW160460   9.725   6.769  14.165
19521SOL    HW260461   9.704   6.901  14.093
19522SOL     OW60462  13.385   3.586   4.405
19522SOL    HW160463  13.411   3.497   4.431
19522SOL    HW260464  13.428   3.643   4.469
19523SOL     OW60465   3.727  14.774   6.093
19523SOL    HW160466   3.639  14.746   6.070
19523SOL    HW260467   3.730  14.770   6.188
19524SOL     OW60468   0.592   0.853   5.323
19524SOL    HW160469   0.683   0.826   5.340
19524SOL    HW260470   0.550   0.773   5.291
19525SOL     OW60471   3.062   0.559  14.798
19525SOL    HW160472   3.087   0.490  14.858
19525SOL    HW260473   3.137   0.618  14.796
19526SOL     OW60474   6.716   6.459   9.301
19526SOL    HW160475   6.733   6.375   9.344
19526SOL    HW260476   6.629   6.485   9.332
19527SOL     OW60477   9.554   7.974   6.040
19527SOL    HW160478   9.590   8.062   6.033
19527SOL    HW260479   9.462   7.988   6.065
19528SOL     OW60480  13.240   8.666   1.278
19528SOL    HW160481  13.171   8.606   1.308
19528SOL    HW260482  13.216   8.686   1.188
19529SOL     OW60483   9.664   8.295  12.827
19529SOL    HW160484   9.689   8.253  12.745
19529SOL    HW260485   9.747   8.326  12.864
19530SOL     OW60486   8.739   7.203   7.143
19530SOL    HW160487   8.792   7.191   7.064
19530SOL    HW260488   8.717   7.296   7.143
19531SOL     OW60489   0.618   4.911  10.353
19531SOL    HW160490   0.604   4.822  10.321
19531SOL    HW260491   0.529   4.946  10.365
19532SOL     OW60492   1.814   6.005   4.683
19532SOL    HW160493   1.882   5.986   4.618
19532SOL    HW260494   1.860   6.050   4.753
19533SOL     OW60495   2.204  13.318   2.597
19533SOL    HW160496   2.285  13.361   2.623
19533SOL    HW260497   2.211  13.309   2.502
19534SOL     OW60498   1.046  10.299  10.953
19534SOL    HW160499   1.010  10.376  10.997
19534SOL    HW260500   0.973  10.237  10.949
19535SOL     OW60501   6.150   1.184   7.235
19535SOL    HW160502   6.132   1.184   7.141
19535SOL    HW260503   6.084   1.126   7.272
19536SOL     OW60504   4.670  14.604   0.917
19536SOL    HW160505   4.691  14.512   0.900
19536SOL    HW260506   4.743  14.654   0.881
19537SOL     OW60507   4.947   9.393  14.165
19537SOL    HW160508   4.944   9.359  14.255
19537SOL    HW260509   4.971   9.485  14.175
19538SOL     OW60510   5.978  13.316   0.438
19538SOL    HW160511   5.944  13.390   0.489
19538SOL    HW260512   5.904  13.255   0.433
19539SOL     OW60513  12.424   9.702   4.714
19539SOL    HW160514  12.519   9.706   4.705
19539SOL    HW260515  12.404   9.608   4.718
19540SOL     OW60516  14.164   3.063   5.774
19540SOL    HW160517  14.178   3.143   5.825
19540SOL    HW260518  14.071   3.064   5.752
19541SOL     OW60519   2.402   6.490   5.258
19541SOL    HW160520   2.389   6.447   5.173
19541SOL    HW260521   2.396   6.583   5.239
19542SOL     OW60522   9.425   1.667   8.618
19542SOL    HW160523   9.478   1.693   8.542
19542SOL    HW260524   9.394   1.579   8.597
19543SOL     OW60525  13.961   8.753   6.083
19543SOL    HW160526  13.966   8.840   6.122
19543SOL    HW260527  14.050   8.718   6.092
19544SOL     OW60528   8.210   3.597   9.811
19544SOL    HW160529   8.256   3.592   9.895
19544SOL    HW260530   8.265   3.547   9.751
19545SOL     OW60531   8.159   5.631  14.601
19545SOL    HW160532   8.250   5.649  14.575
19545SOL    HW260533   8.142   5.543  14.567
19546SOL     OW60534   6.913   8.530   8.376
19546SOL    HW160535   6.973   8.563   8.310
19546SOL    HW260536   6.943   8.571   8.458
19547SOL     OW60537   8.019   5.025  14.194
19547SOL    HW160538   8.082   4.957  14.218
19547SOL    HW260539   7.933   4.983  14.205
19548SOL     OW60540  13.363  11.823   7.919
19548SOL    HW160541  13.366  11.728   7.932
19548SOL    HW260542  13.270  11.842   7.907
19549SOL     OW60543   0.367  12.675   2.610
19549SOL    HW160544   0.433  12.605   2.610
19549SOL    HW260545   0.292  12.637   2.655
19550SOL     OW60546  10.249  14.865   9.880
19550SOL    HW160547  10.199  14.797   9.834
19550SOL    HW260548  10.194   0.017   9.954
19551SOL     OW60549  12.372   2.597  11.470
19551SOL    HW160550  12.420   2.517  11.449
19551SOL    HW260551  12.361   2.594  11.565
19552SOL     OW60552   0.660   3.447   0.344
19552SOL    HW160553   0.636   3.355   0.348
19552SOL    HW260554   0.613   3.487   0.416
19553SOL     OW60555   5.442  14.216   6.818
19553SOL    HW160556   5.420  14.300   6.777
19553SOL    HW260557   5.462  14.238   6.909
19554SOL     OW60558   1.288  10.713   7.546
19554SOL    HW160559   1.228  10.720   7.620
19554SOL    HW260560   1.297  10.619   7.530
19555SOL     OW60561   7.539  13.577  11.287
19555SOL    HW160562   7.510  13.659  11.246
19555SOL    HW260563   7.628  13.565  11.255
19556SOL     OW60564   6.073  11.731   3.859
19556SOL    HW160565   6.018  11.689   3.925
19556SOL    HW260566   6.014  11.788   3.810
19557SOL     OW60567   6.598   0.119  11.819
19557SOL    HW160568   6.689   0.122  11.847
19557SOL    HW260569   6.602   0.132  11.724
19558SOL     OW60570   4.563   2.980   8.719
19558SOL    HW160571   4.509   2.911   8.758
19558SOL    HW260572   4.646   2.975   8.767
19559SOL     OW60573   4.833   3.734   5.044
19559SOL    HW160574   4.754   3.777   5.011
19559SOL    HW260575   4.837   3.759   5.137
19560SOL     OW60576   0.355  12.506   1.809
19560SOL    HW160577   0.428  12.538   1.757
19560SOL    HW260578   0.358  12.557   1.890
19561SOL     OW60579   7.585   7.603  12.044
19561SOL    HW160580   7.602   7.624  12.136
19561SOL    HW260581   7.586   7.687  11.999
19562SOL     OW60582  14.185   7.047  12.803
19562SOL    HW160583  14.151   7.090  12.725
19562SOL    HW260584  14.227   6.967  12.771
19563SOL     OW60585   1.783   9.497  14.568
19563SOL    HW160586   1.738   9.505  14.484
19563SOL    HW260587   1.761   9.409  14.599
19564SOL     OW60588   4.356   4.234  12.814
19564SOL    HW160589   4.348   4.316  12.862
19564SOL    HW260590   4.266   4.202  12.804
19565SOL     OW60591   9.995   4.797   4.358
19565SOL    HW160592  10.008   4.711   4.317
19565SOL    HW260593  10.083   4.829   4.377
19566SOL     OW60594  11.109   9.505  13.952
19566SOL    HW160595  11.080   9.577  13.895
19566SOL    HW260596  11.066   9.427  13.917
19567SOL     OW60597   3.800   1.479   3.583
19567SOL    HW160598   3.823   1.571   3.600
19567SOL    HW260599   3.873   1.446   3.531
19568SOL     OW60600  10.060   8.853   0.343
19568SOL    HW160601  10.068   8.773   0.395
19568SOL    HW260602  10.097   8.922   0.399
19569SOL     OW60603   2.876   1.928   6.892
19569SOL    HW160604   2.809   1.888   6.947
19569SOL    HW260605   2.948   1.948   6.952
19570SOL     OW60606   2.099   4.215  10.167
19570SOL    HW160607   2.095   4.138  10.111
19570SOL    HW260608   2.145   4.186  10.246
19571SOL     OW60609   9.543  14.006   1.154
19571SOL    HW160610   9.451  13.981   1.153
19571SOL    HW260611   9.590  13.923   1.143
19572SOL     OW60612   2.475   2.464   3.548
19572SOL    HW160613   2.504   2.461   3.457
19572SOL    HW260614   2.443   2.554   3.560
19573SOL     OW60615   9.372   6.477  13.228
19573SOL    HW160616   9.364   6.425  13.148
19573SOL    HW260617   9.305   6.440  13.287
19574SOL     OW60618   0.410   0.275   3.706
19574SOL    HW160619   0.457   0.262   3.623
19574SOL    HW260620   0.424   0.193   3.754
19575SOL     OW60621   4.787   5.944   3.716
19575SOL    HW160622   4.863   5.907   3.672
19575SOL    HW260623   4.718   5.879   3.703
19576SOL     OW60624  10.877   0.164   9.058
19576SOL    HW160625  10.906   0.195   9.143
19576SOL    HW260626  10.886   0.239   9.000
19577SOL     OW60627  10.660   6.551   8.414
19577SOL    HW160628  10.690   6.517   8.498
19577SOL    HW260629  10.682   6.644   8.417
19578SOL     OW60630   0.971  11.367  14.045
19578SOL    HW160631   1.062  11.393  14.034
19578SOL    HW260632   0.922  11.450  14.041
19579SOL     OW60633   5.829   9.159   8.523
19579SOL    HW160634   5.876   9.237   8.493
19579SOL    HW260635   5.898   9.099   8.552
19580SOL     OW60636  10.500   1.716   5.237
19580SOL    HW160637  10.566   1.783   5.220
19580SOL    HW260638  10.497   1.708   5.332
19581SOL     OW60639  12.289   7.417  11.440
19581SOL    HW160640  12.207   7.464  11.428
19581SOL    HW260641  12.324   7.407  11.351
19582SOL     OW60642   1.959  11.706   2.979
19582SOL    HW160643   1.886  11.767   2.969
19582SOL    HW260644   1.918  11.622   2.996
19583SOL     OW60645  13.823   8.145   1.386
19583SOL    HW160646  13.802   8.221   1.331
19583SOL    HW260647  13.813   8.070   1.328
19584SOL     OW60648   0.005  13.348   1.948
19584SOL    HW160649  14.795  13.314   1.912
19584SOL    HW260650   0.001  13.442   1.932
19585SOL     OW60651   2.303  10.250   4.981
19585SOL    HW160652   2.258  10.249   4.896
19585SOL    HW260653   2.379  10.308   4.967
19586SOL     OW60654   7.855  13.431  10.841
19586SOL    HW160655   7.778  13.464  10.888
19586SOL    HW260656   7.905  13.510  10.819
19587SOL     OW60657   2.073   8.182  12.631
19587SOL    HW160658   1.984   8.209  12.650
19587SOL    HW260659   2.065   8.122  12.557
19588SOL     OW60660  10.441   0.188   7.198
19588SOL    HW160661  10.401   0.268   7.162
19588SOL    HW260662  10.382   0.163   7.270
19589SOL     OW60663   9.554   2.136  12.477
19589SOL    HW160664   9.462   2.111  12.475
19589SOL    HW260665   9.597   2.069  12.423
19590SOL     OW60666   9.765   0.488   5.957
19590SOL    HW160667   9.709   0.563   5.973
19590SOL    HW260668   9.832   0.520   5.897
19591SOL     OW60669   8.391   3.946  12.872
19591SOL    HW160670   8.458   4.011  12.893
19591SOL    HW260671   8.323   3.996  12.826
19592SOL     OW60672   4.732   0.180   3.115
19592SOL    HW160673   4.676   0.109   3.148
19592SOL    HW260674   4.740   0.162   3.021
19593SOL     OW60675   1.462   7.372  10.942
19593SOL    HW160676   1.397   7.308  10.914
19593SOL    HW260677   1.506   7.331  11.017
19594SOL     OW60678  10.085   7.178  13.806
19594SOL    HW160679  10.039   7.208  13.727
19594SOL    HW260680  10.134   7.255  13.836
19595SOL     OW60681  12.561   8.075   8.149
19595SOL    HW160682  12.529   7.984   8.154
19595SOL    HW260683  12.650   8.071   8.182
19596SOL     OW60684   3.731  11.180   0.619
19596SOL    HW160685   3.692  11.111   0.673
19596SOL    HW260686   3.765  11.244   0.682
19597SOL     OW60687   6.589   2.026  11.570
19597SOL    HW160688   6.643   2.059  11.498
19597SOL    HW260689   6.612   2.080  11.645
19598SOL     OW60690   1.249   0.557   1.550
19598SOL    HW160691   1.176   0.592   1.601
19598SOL    HW260692   1.222   0.469   1.525
19599SOL     OW60693   1.404  13.296  11.473
19599SOL    HW160694   1.493  13.297  11.509
19599SOL    HW260695   1.390  13.205  11.445
19600SOL     OW60696   2.912   9.958   8.181
19600SOL    HW160697   2.976  10.030   8.179
19600SOL    HW260698   2.959   9.883   8.145
19601SOL     OW60699   6.700  11.292   2.688
19601SOL    HW160700   6.646  11.309   2.765
19601SOL    HW260701   6.746  11.211   2.708
19602SOL     OW60702   0.787   0.782   9.853
19602SOL    HW160703   0.791   0.699   9.900
19602SOL    HW260704   0.791   0.849   9.921
19603SOL     OW60705   2.514   8.289   6.534
19603SOL    HW160706   2.431   8.249   6.509
19603SOL    HW260707   2.530   8.356   6.467
19604SOL     OW60708   8.069  14.046  11.384
19604SOL    HW160709   8.118  14.055  11.303
19604SOL    HW260710   8.135  14.035  11.452
19605SOL     OW60711   7.836  14.082   5.595
19605SOL    HW160712   7.794  14.132   5.525
19605SOL    HW260713   7.836  13.992   5.562
19606SOL     OW60714  11.831   6.041   9.615
19606SOL    HW160715  11.736   6.033   9.607
19606SOL    HW260716  11.865   6.002   9.535
19607SOL     OW60717  13.877  12.692  11.347
19607SOL    HW160718  13.908  12.601  11.346
19607SOL    HW260719  13.821  12.697  11.424
19608SOL     OW60720   7.657   1.977   5.065
19608SOL    HW160721   7.746   1.969   5.101
19608SOL    HW260722   7.600   1.959   5.140
19609SOL     OW60723   6.066   5.239   9.952
19609SOL    HW160724   6.004   5.234   9.879
19609SOL    HW260725   6.054   5.328   9.987
19610SOL     OW60726  14.538   5.291  12.904
19610SOL    HW160727  14.526   5.372  12.954
19610SOL    HW260728  14.602   5.313  12.837
19611SOL     OW60729  11.409   4.808   9.649
19611SOL    HW160730  11.501   4.823   9.674
19611SOL    HW260731  11.402   4.713   9.639
19612SOL     OW60732   9.330   2.055   4.809
19612SOL    HW160733   9.417   2.023   4.786
19612SOL    HW260734   9.293   2.087   4.727
19613SOL     OW60735  11.453   9.287   9.455
19613SOL    HW160736  11.411   9.285   9.369
19613SOL    HW260737  11.522   9.353   9.447
19614SOL     OW60738  11.740  14.553   7.408
19614SOL    HW160739  11.725  14.646   7.424
19614SOL    HW260740  11.827  14.549   7.369
19615SOL     OW60741   9.116   3.786   1.661
19615SOL    HW160742   9.095   3.808   1.571
19615SOL    HW260743   9.133   3.871   1.703
19616SOL     OW60744   6.287   1.719   9.071
19616SOL    HW160745   6.200   1.731   9.034
19616SOL    HW260746   6.285   1.631   9.109
19617SOL     OW60747   6.798   0.209   2.578
19617SOL    HW160748   6.828   0.230   2.667
19617SOL    HW260749   6.754   0.124   2.587
19618SOL     OW60750   5.378  14.601   0.126
19618SOL    HW160751   5.434  14.553   0.187
19618SOL    HW260752   5.425  14.684   0.111
19619SOL     OW60753   6.739  14.419   7.830
19619SOL    HW160754   6.759  14.450   7.918
19619SOL    HW260755   6.763  14.491   7.773
19620SOL     OW60756  14.497  13.378   5.744
19620SOL    HW160757  14.451  13.433   5.808
19620SOL    HW260758  14.574  13.345   5.791
19621SOL     OW60759  13.475  10.926   8.272
19621SOL    HW160760  13.439  10.996   8.326
19621SOL    HW260761  13.417  10.851   8.287
19622SOL     OW60762   8.773   4.383   2.666
19622SOL    HW160763   8.686   4.419   2.683
19622SOL    HW260764   8.829   4.459   2.654
19623SOL     OW60765   6.717  10.372  13.245
19623SOL    HW160766   6.667  10.387  13.325
19623SOL    HW260767   6.667  10.417  13.177
19624SOL     OW60768  10.859   3.423  14.745
19624SOL    HW160769  10.790   3.451  14.804
19624SOL    HW260770  10.926   3.385  14.802
19625SOL     OW60771  13.645   5.988   0.112
19625SOL    HW160772  13.618   6.012   0.201
19625SOL    HW260773  13.687   6.067   0.078
19626SOL     OW60774   8.397   0.003   4.822
19626SOL    HW160775   8.436  14.840   4.742
19626SOL    HW260776   8.470   0.010   4.883
19627SOL     OW60777   4.610   7.657   3.789
19627SOL    HW160778   4.656   7.583   3.748
19627SOL    HW260779   4.605   7.723   3.721
19628SOL     OW60780   8.390   9.160  14.559
19628SOL    HW160781   8.342   9.140  14.478
19628SOL    HW260782   8.451   9.230  14.534
19629SOL     OW60783   2.362   6.865   0.871
19629SOL    HW160784   2.391   6.890   0.959
19629SOL    HW260785   2.299   6.795   0.885
19630SOL     OW60786  10.309   2.777   9.960
19630SOL    HW160787  10.323   2.869   9.985
19630SOL    HW260788  10.293   2.780   9.865
19631SOL     OW60789   3.326   0.380   9.940
19631SOL    HW160790   3.284   0.321  10.003
19631SOL    HW260791   3.408   0.405   9.984
19632SOL     OW60792   9.469  11.344  14.541
19632SOL    HW160793   9.532  11.393  14.488
19632SOL    HW260794   9.384  11.369  14.506
19633SOL     OW60795   5.093   5.811   7.689
19633SOL    HW160796   5.141   5.864   7.625
19633SOL    HW260797   5.099   5.860   7.771
19634SOL     OW60798   3.346   0.942   5.062
19634SOL    HW160799   3.291   0.864   5.048
19634SOL    HW260800   3.335   0.961   5.155
19635SOL     OW60801   8.776  12.657  11.236
19635SOL    HW160802   8.730  12.689  11.313
19635SOL    HW260803   8.709  12.609  11.187
19636SOL     OW60804   8.711   1.592  12.448
19636SOL    HW160805   8.640   1.588  12.512
19636SOL    HW260806   8.669   1.573  12.364
19637SOL     OW60807   2.954   3.276   0.079
19637SOL    HW160808   2.997   3.238   0.003
19637SOL    HW260809   3.005   3.245   0.154
19638SOL     OW60810  12.548   0.623   5.854
19638SOL    HW160811  12.575   0.562   5.922
19638SOL    HW260812  12.598   0.703   5.872
19639SOL     OW60813   5.891   5.815   4.395
19639SOL    HW160814   5.861   5.887   4.450
19639SOL    HW260815   5.939   5.758   4.454
19640SOL     OW60816  11.654   2.785  10.443
19640SOL    HW160817  11.741   2.824  10.435
19640SOL    HW260818  11.668   2.703  10.490
19641SOL     OW60819   2.187  11.487  14.525
19641SOL    HW160820   2.166  11.502  14.432
19641SOL    HW260821   2.207  11.574  14.560
19642SOL     OW60822   4.557  12.116   4.963
19642SOL    HW160823   4.527  12.207   4.968
19642SOL    HW260824   4.608  12.112   4.881
19643SOL     OW60825  14.438   2.471  11.290
19643SOL    HW160826  14.493   2.505  11.219
19643SOL    HW260827  14.498   2.418  11.342
19644SOL     OW60828   5.571   5.122   7.591
19644SOL    HW160829   5.588   5.035   7.627
19644SOL    HW260830   5.477   5.122   7.572
19645SOL     OW60831   9.516  13.101  12.297
19645SOL    HW160832   9.523  13.184  12.250
19645SOL    HW260833   9.563  13.117  12.379
19646SOL     OW60834  14.625   0.131   2.646
19646SOL    HW160835  14.616   0.143   2.740
19646SOL    HW260836  14.657   0.216   2.614
19647SOL     OW60837  14.261   5.987  10.870
19647SOL    HW160838  14.266   5.955  10.960
19647SOL    HW260839  14.168   5.982  10.848
19648SOL     OW60840  12.416   0.755   9.110
19648SOL    HW160841  12.384   0.687   9.169
19648SOL    HW260842  12.433   0.710   9.028
19649SOL     OW60843   9.750  12.672   0.257
19649SOL    HW160844   9.796  12.654   0.338
19649SOL    HW260845   9.805  12.634   0.189
19650SOL     OW60846  14.815   2.455   6.527
19650SOL    HW160847  14.827   2.404   6.446
19650SOL    HW260848  14.790   2.390   6.592
19651SOL     OW60849   2.263   1.497   6.918
19651SOL    HW160850   2.182   1.509   6.869
19651SOL    HW260851   2.248   1.417   6.970
19652SOL     OW60852   9.586   8.391  12.376
19652SOL    HW160853   9.605   8.432  12.460
19652SOL    HW260854   9.507   8.435  12.344
19653SOL     OW60855   6.581   5.281   9.712
19653SOL    HW160856   6.651   5.317   9.658
19653SOL    HW260857   6.505   5.336   9.691
19654SOL     OW60858   4.854   9.566  11.924
19654SOL    HW160859   4.842   9.648  11.972
19654SOL    HW260860   4.913   9.589  11.853
19655SOL     OW60861   0.609   4.654   7.298
19655SOL    HW160862   0.547   4.717   7.335
19655SOL    HW260863   0.564   4.570   7.303
19656SOL     OW60864   5.433  12.452  11.575
19656SOL    HW160865   5.387  12.369  11.587
19656SOL    HW260866   5.440  12.488  11.664
19657SOL     OW60867   3.593   0.264  11.589
19657SOL    HW160868   3.599   0.175  11.623
19657SOL    HW260869   3.572   0.317  11.666
19658SOL     OW60870  14.279   1.338  10.537
19658SOL    HW160871  14.220   1.326  10.611
19658SOL    HW260872  14.278   1.433  10.521
19659SOL     OW60873   7.564   5.273  10.969
19659SOL    HW160874   7.492   5.314  10.921
19659SOL    HW260875   7.525   5.195  11.009
19660SOL     OW60876  10.460   0.146   9.743
19660SOL    HW160877  10.542   0.108   9.714
19660SOL    HW260878  10.448   0.114   9.833
19661SOL     OW60879   1.852   4.496  12.825
19661SOL    HW160880   1.844   4.466  12.916
19661SOL    HW260881   1.795   4.436  12.776
19662SOL     OW60882   1.163   1.806   4.649
19662SOL    HW160883   1.226   1.873   4.621
19662SOL    HW260884   1.117   1.846   4.723
19663SOL     OW60885   0.844   7.226   7.685
19663SOL    HW160886   0.878   7.314   7.697
19663SOL    HW260887   0.788   7.233   7.607
19664SOL     OW60888   8.897   8.986  14.826
19664SOL    HW160889   8.835   9.012  14.758
19664SOL    HW260890   8.975   8.958  14.778
19665SOL     OW60891   5.800   8.768   8.597
19665SOL    HW160892   5.871   8.830   8.615
19665SOL    HW260893   5.775   8.734   8.684
19666SOL     OW60894  11.641   9.614  12.386
19666SOL    HW160895  11.573   9.646  12.327
19666SOL    HW260896  11.686   9.546  12.337
19667SOL     OW60897   6.818  13.196   4.425
19667SOL    HW160898   6.827  13.291   4.425
19667SOL    HW260899   6.763  13.177   4.349
19668SOL     OW60900  10.921  13.297   5.444
19668SOL    HW160901  10.848  13.342   5.487
19668SOL    HW260902  10.999  13.346   5.470
19669SOL     OW60903   7.340   7.702   3.506
19669SOL    HW160904   7.276   7.769   3.529
19669SOL    HW260905   7.324   7.631   3.569
19670SOL     OW60906   6.316   9.102   6.770
19670SOL    HW160907   6.386   9.125   6.831
19670SOL    HW260908   6.335   9.153   6.691
19671SOL     OW60909  11.249   2.451   5.351
19671SOL    HW160910  11.219   2.521   5.410
19671SOL    HW260911  11.345   2.457   5.354
19672SOL     OW60912   5.035   4.321  13.556
19672SOL    HW160913   5.018   4.229  13.575
19672SOL    HW260914   5.023   4.366  13.640
19673SOL     OW60915  12.618   0.640   1.614
19673SOL    HW160916  12.537   0.675   1.650
19673SOL    HW260917  12.620   0.549   1.642
19674SOL     OW60918  14.370   3.478   6.662
19674SOL    HW160919  14.372   3.420   6.586
19674SOL    HW260920  14.460   3.512   6.668
19675SOL     OW60921   3.192  11.910  12.093
19675SOL    HW160922   3.128  11.968  12.134
19675SOL    HW260923   3.219  11.957  12.014
19676SOL     OW60924  13.885  11.822   1.148
19676SOL    HW160925  13.874  11.916   1.132
19676SOL    HW260926  13.940  11.792   1.076
19677SOL     OW60927   9.586   1.548   4.438
19677SOL    HW160928   9.554   1.486   4.373
19677SOL    HW260929   9.507   1.593   4.468
19678SOL     OW60930  12.145   7.908   6.708
19678SOL    HW160931  12.215   7.893   6.771
19678SOL    HW260932  12.191   7.933   6.627
19679SOL     OW60933   2.675   2.977   9.480
19679SOL    HW160934   2.604   2.930   9.523
19679SOL    HW260935   2.729   3.011   9.552
19680SOL     OW60936  12.490   6.077   6.160
19680SOL    HW160937  12.434   6.084   6.237
19680SOL    HW260938  12.576   6.057   6.195
19681SOL     OW60939   5.156   3.394   3.321
19681SOL    HW160940   5.203   3.313   3.341
19681SOL    HW260941   5.224   3.454   3.290
19682SOL     OW60942   9.408   6.805   5.015
19682SOL    HW160943   9.400   6.711   5.033
19682SOL    HW260944   9.328   6.843   5.051
19683SOL     OW60945   1.409   8.053   4.357
19683SOL    HW160946   1.393   8.089   4.444
19683SOL    HW260947   1.322   8.049   4.317
19684SOL     OW60948   5.004   4.832   8.001
19684SOL    HW160949   4.984   4.816   7.909
19684SOL    HW260950   4.980   4.751   8.045
19685SOL     OW60951   8.042  13.078  13.738
19685SOL    HW160952   8.001  13.001  13.698
19685SOL    HW260953   8.108  13.042  13.797
19686SOL     OW60954   7.546  10.583   2.048
19686SOL    HW160955   7.572  10.617   1.962
19686SOL    HW260956   7.526  10.661   2.099
19687SOL     OW60957  11.057   4.840   6.506
19687SOL    HW160958  11.073   4.885   6.589
19687SOL    HW260959  10.999   4.899   6.458
19688SOL     OW60960   8.383   3.340   2.493
19688SOL    HW160961   8.458   3.303   2.540
19688SOL    HW260962   8.327   3.376   2.562
19689SOL     OW60963  11.259   7.910  11.188
19689SOL    HW160964  11.259   7.817  11.164
19689SOL    HW260965  11.314   7.953  11.123
19690SOL     OW60966  13.858  10.956   7.228
19690SOL    HW160967  13.834  11.030   7.284
19690SOL    HW260968  13.947  10.933   7.255
19691SOL     OW60969   2.884   3.649   6.412
19691SOL    HW160970   2.794   3.676   6.426
19691SOL    HW260971   2.932   3.692   6.484
19692SOL     OW60972   4.351  10.466   5.141
19692SOL    HW160973   4.311  10.549   5.115
19692SOL    HW260974   4.431  10.491   5.186
19693SOL     OW60975   4.811  11.690  11.012
19693SOL    HW160976   4.856  11.737  10.942
19693SOL    HW260977   4.757  11.756  11.055
19694SOL     OW60978   7.979   7.996   3.633
19694SOL    HW160979   8.056   7.967   3.682
19694SOL    HW260980   7.993   8.090   3.620
19695SOL     OW60981  12.539   3.315   1.906
19695SOL    HW160982  12.488   3.279   1.834
19695SOL    HW260983  12.623   3.339   1.867
19696SOL     OW60984  10.420  12.012   8.763
19696SOL    HW160985  10.334  12.045   8.791
19696SOL    HW260986  10.401  11.957   8.687
19697SOL     OW60987   7.548   6.002   3.071
19697SOL    HW160988   7.581   6.080   3.115
19697SOL    HW260989   7.558   5.932   3.135
19698SOL     OW60990   0.624  11.327   8.796
19698SOL    HW160991   0.553  11.266   8.780
19698SOL    HW260992   0.666  11.295   8.876
19699SOL     OW60993  13.865   4.955  12.707
19699SOL    HW160994  13.958   4.930  12.710
19699SOL    HW260995  13.853   5.010  12.785
19700SOL     OW60996   1.317   3.941  11.112
19700SOL    HW160997   1.295   3.969  11.200
19700SOL    HW260998   1.358   3.855  11.124
19701SOL     OW60999  11.560   5.999   2.454
19701SOL    HW161000  11.632   6.038   2.503
19701SOL    HW261001  11.525   5.931   2.511
19702SOL     OW61002  12.750  14.297   0.419
19702SOL    HW161003  12.807  14.365   0.454
19702SOL    HW261004  12.769  14.296   0.325
19703SOL     OW61005   3.885   2.317   1.092
19703SOL    HW161006   3.809   2.325   1.034
19703SOL    HW261007   3.883   2.396   1.146
19704SOL     OW61008  12.558   6.055   6.539
19704SOL    HW161009  12.535   6.077   6.629
19704SOL    HW261010  12.489   6.097   6.487
19705SOL     OW61011  13.301   8.209  11.896
19705SOL    HW161012  13.381   8.162  11.921
19705SOL    HW261013  13.233   8.142  11.898
19706SOL     OW61014   1.686  12.536  14.773
19706SOL    HW161015   1.756  12.475  14.748
19706SOL    HW261016   1.607  12.498  14.733
19707SOL     OW61017   4.242   8.626   6.320
19707SOL    HW161018   4.266   8.681   6.245
19707SOL    HW261019   4.191   8.554   6.283
19708SOL     OW61020  10.302   4.257   7.547
19708SOL    HW161021  10.351   4.229   7.469
19708SOL    HW261022  10.257   4.178   7.576
19709SOL     OW61023   7.948   6.671   7.570
19709SOL    HW161024   7.998   6.751   7.588
19709SOL    HW261025   7.876   6.701   7.515
19710SOL     OW61026   4.050   6.488  10.351
19710SOL    HW161027   4.082   6.429  10.282
19710SOL    HW261028   3.964   6.453  10.373
19711SOL     OW61029   5.840   3.083   8.283
19711SOL    HW161030   5.925   3.127   8.287
19711SOL    HW261031   5.809   3.101   8.194
19712SOL     OW61032  13.887   3.567  10.140
19712SOL    HW161033  13.863   3.660  10.142
19712SOL    HW261034  13.858   3.537  10.054
19713SOL     OW61035   1.684  11.776  14.079
19713SOL    HW161036   1.589  11.785  14.089
19713SOL    HW261037   1.695  11.721  14.002
19714SOL     OW61038   8.301  12.003   6.875
19714SOL    HW161039   8.221  12.051   6.853
19714SOL    HW261040   8.355  12.067   6.921
19715SOL     OW61041   4.635   9.410  11.780
19715SOL    HW161042   4.662   9.320  11.799
19715SOL    HW261043   4.689   9.464  11.838
19716SOL     OW61044   4.917   0.091  13.499
19716SOL    HW161045   5.011   0.079  13.491
19716SOL    HW261046   4.906   0.150  13.573
19717SOL     OW61047   6.897  10.875   0.009
19717SOL    HW161048   6.836  10.949  14.872
19717SOL    HW261049   6.964  10.908   0.070
19718SOL     OW61050   6.255  14.808   2.040
19718SOL    HW161051   6.268  14.738   1.975
19718SOL    HW261052   6.324  14.792   2.105
19719SOL     OW61053   7.470   2.365   2.090
19719SOL    HW161054   7.459   2.295   2.026
19719SOL    HW261055   7.392   2.420   2.079
19720SOL     OW61056   0.798   8.164  14.763
19720SOL    HW161057   0.787   8.106  14.838
19720SOL    HW261058   0.798   8.106  14.687
19721SOL     OW61059  11.158   4.277   0.106
19721SOL    HW161060  11.092   4.339   0.073
19721SOL    HW261061  11.139   4.195   0.059
19722SOL     OW61062  12.274   1.486  14.735
19722SOL    HW161063  12.272   1.537  14.816
19722SOL    HW261064  12.186   1.493  14.699
19723SOL     OW61065   3.810   6.446   2.603
19723SOL    HW161066   3.758   6.526   2.598
19723SOL    HW261067   3.880   6.465   2.665
19724SOL     OW61068  13.973   1.669   1.193
19724SOL    HW161069  13.923   1.730   1.138
19724SOL    HW261070  14.024   1.726   1.251
19725SOL     OW61071   8.232   1.226  13.585
19725SOL    HW161072   8.222   1.155  13.648
19725SOL    HW261073   8.289   1.290  13.628
19726SOL     OW61074  12.086   7.095  11.992
19726SOL    HW161075  12.057   7.167  12.048
19726SOL    HW261076  12.009   7.039  11.982
19727SOL     OW61077  11.196   1.637   9.226
19727SOL    HW161078  11.248   1.570   9.270
19727SOL    HW261079  11.173   1.699   9.295
19728SOL     OW61080   1.793   3.549  14.491
19728SOL    HW161081   1.884   3.525  14.510
19728SOL    HW261082   1.765   3.601  14.567
19729SOL     OW61083  12.698   5.106   0.136
19729SOL    HW161084  12.695   5.198   0.161
19729SOL    HW261085  12.653   5.102   0.051
19730SOL     OW61086   3.737   3.280   7.239
19730SOL    HW161087   3.700   3.203   7.195
19730SOL    HW261088   3.824   3.291   7.199
19731SOL     OW61089  12.621  10.396   9.748
19731SOL    HW161090  12.579  10.409   9.663
19731SOL    HW261091  12.705  10.442   9.740
19732SOL     OW61092   4.316  12.292   9.956
19732SOL    HW161093   4.278  12.206   9.940
19732SOL    HW261094   4.265  12.329  10.028
19733SOL     OW61095   9.041  14.850   9.078
19733SOL    HW161096   9.014   0.065   9.050
19733SOL    HW261097   9.010  14.842   9.168
19734SOL     OW61098   0.852   3.601  13.224
19734SOL    HW161099   0.921   3.666  13.241
19734SOL    HW261100   0.832   3.613  13.131
19735SOL     OW61101   1.490  14.203   9.822
19735SOL    HW161102   1.534  14.160   9.749
19735SOL    HW261103   1.398  14.178   9.812
19736SOL     OW61104   9.436   7.110   0.421
19736SOL    HW161105   9.470   7.194   0.453
19736SOL    HW261106   9.429   7.122   0.326
19737SOL     OW61107   1.206   9.825   1.420
19737SOL    HW161108   1.256   9.796   1.496
19737SOL    HW261109   1.271   9.867   1.363
19738SOL     OW61110   7.514  13.767   7.084
19738SOL    HW161111   7.525  13.855   7.048
19738SOL    HW261112   7.601  13.727   7.079
19739SOL     OW61113  13.209   9.402  14.547
19739SOL    HW161114  13.206   9.329  14.486
19739SOL    HW261115  13.117   9.426  14.560
19740SOL     OW61116   0.085   9.775   9.630
19740SOL    HW161117   0.066   9.836   9.559
19740SOL    HW261118   0.093   9.690   9.587
19741SOL     OW61119   4.273   7.558   6.365
19741SOL    HW161120   4.212   7.493   6.329
19741SOL    HW261121   4.216   7.626   6.402
19742SOL     OW61122   4.314   4.054  10.762
19742SOL    HW161123   4.407   4.069  10.777
19742SOL    HW261124   4.288   3.992  10.831
19743SOL     OW61125   7.757   1.312  12.369
19743SOL    HW161126   7.684   1.342  12.315
19743SOL    HW261127   7.776   1.224  12.337
19744SOL     OW61128   8.589   8.499  14.533
19744SOL    HW161129   8.638   8.438  14.478
19744SOL    HW261130   8.558   8.567  14.473
19745SOL     OW61131   1.803   9.612  12.756
19745SOL    HW161132   1.832   9.567  12.677
19745SOL    HW261133   1.740   9.677  12.724
19746SOL     OW61134   7.660   1.043   0.801
19746SOL    HW161135   7.709   1.070   0.878
19746SOL    HW261136   7.570   1.070   0.819
19747SOL     OW61137   1.776  12.001   2.153
19747SOL    HW161138   1.749  12.087   2.186
19747SOL    HW261139   1.738  11.995   2.066
19748SOL     OW61140  10.072  12.656  11.761
19748SOL    HW161141  10.025  12.644  11.678
19748SOL    HW261142  10.164  12.646  11.739
19749SOL     OW61143   3.037   2.295   0.721
19749SOL    HW161144   3.060   2.203   0.719
19749SOL    HW261145   2.971   2.302   0.790
19750SOL     OW61146   9.355  10.997   3.570
19750SOL    HW161147   9.419  11.042   3.625
19750SOL    HW261148   9.290  11.063   3.550
19751SOL     OW61149  14.708   9.480  13.679
19751SOL    HW161150  14.738   9.560  13.722
19751SOL    HW261151  14.633   9.451  13.732
19752SOL     OW61152  13.485   8.308   3.856
19752SOL    HW161153  13.400   8.345   3.879
19752SOL    HW261154  13.477   8.287   3.763
19753SOL     OW61155   1.113  11.323   8.332
19753SOL    HW161156   1.047  11.263   8.368
19753SOL    HW261157   1.064  11.378   8.271
19754SOL     OW61158   7.421   5.675  11.030
19754SOL    HW161159   7.326   5.684  11.042
19754SOL    HW261160   7.452   5.765  11.023
19755SOL     OW61161   5.414   0.250   5.208
19755SOL    HW161162   5.345   0.308   5.175
19755SOL    HW261163   5.388   0.163   5.177
19756SOL     OW61164  11.675   2.667   2.684
19756SOL    HW161165  11.730   2.592   2.709
19756SOL    HW261166  11.587   2.642   2.710
19757SOL     OW61167   8.813   6.414   3.499
19757SOL    HW161168   8.884   6.444   3.556
19757SOL    HW261169   8.818   6.469   3.422
19758SOL     OW61170   5.078  12.001  12.130
19758SOL    HW161171   5.100  11.971  12.042
19758SOL    HW261172   5.008  11.942  12.159
19759SOL     OW61173   0.289   2.547   5.383
19759SOL    HW161174   0.261   2.592   5.303
19759SOL    HW261175   0.208   2.508   5.418
19760SOL     OW61176   4.426   3.459   3.961
19760SOL    HW161177   4.332   3.445   3.977
19760SOL    HW261178   4.432   3.549   3.928
19761SOL     OW61179   8.025  12.860   4.099
19761SOL    HW161180   7.952  12.917   4.075
19761SOL    HW261181   8.043  12.880   4.191
19762SOL     OW61182   8.634  11.838   2.641
19762SOL    HW161183   8.714  11.787   2.656
19762SOL    HW261184   8.565  11.771   2.636
19763SOL     OW61185   1.778  12.820   4.631
19763SOL    HW161186   1.773  12.856   4.719
19763SOL    HW261187   1.872  12.818   4.611
19764SOL     OW61188   2.130   4.710  11.220
19764SOL    HW161189   2.186   4.634  11.203
19764SOL    HW261190   2.109   4.703  11.313
19765SOL     OW61191   4.747   5.934  10.266
19765SOL    HW161192   4.699   6.016  10.275
19765SOL    HW261193   4.792   5.942  10.182
19766SOL     OW61194   7.953  12.268  11.584
19766SOL    HW161195   7.894  12.201  11.550
19766SOL    HW261196   7.979  12.236  11.671
19767SOL     OW61197   3.612   6.595   2.170
19767SOL    HW161198   3.607   6.602   2.266
19767SOL    HW261199   3.664   6.671   2.144
19768SOL     OW61200  10.194   3.772   4.146
19768SOL    HW161201  10.280   3.745   4.177
19768SOL    HW261202  10.155   3.693   4.110
19769SOL     OW61203   0.577   5.222   3.674
19769SOL    HW161204   0.587   5.216   3.579
19769SOL    HW261205   0.599   5.135   3.707
19770SOL     OW61206   4.943   2.024   8.417
19770SOL    HW161207   4.914   2.114   8.399
19770SOL    HW261208   4.919   2.009   8.508
19771SOL     OW61209   3.042   2.182  10.183
19771SOL    HW161210   3.013   2.106  10.234
19771SOL    HW261211   3.007   2.166  10.095
19772SOL     OW61212  10.779   6.349  10.239
19772SOL    HW161213  10.843   6.405  10.284
19772SOL    HW261214  10.822   6.264  10.234
19773SOL     OW61215  14.578  10.270   6.759
19773SOL    HW161216  14.549  10.321   6.835
19773SOL    HW261217  14.572  10.331   6.685
19774SOL     OW61218   1.647  12.405   1.125
19774SOL    HW161219   1.697  12.353   1.061
19774SOL    HW261220   1.701  12.402   1.205
19775SOL     OW61221   4.528   0.282   9.257
19775SOL    HW161222   4.470   0.259   9.329
19775SOL    HW261223   4.482   0.352   9.211
19776SOL     OW61224  14.295  13.652   8.232
19776SOL    HW161225  14.388  13.645   8.212
19776SOL    HW261226  14.292  13.667   8.327
19777SOL     OW61227   6.645   9.754  11.617
19777SOL    HW161228   6.694   9.749  11.699
19777SOL    HW261229   6.673   9.676  11.568
19778SOL     OW61230   9.897   8.900   5.526
19778SOL    HW161231   9.815   8.940   5.495
19778SOL    HW261232   9.960   8.917   5.456
19779SOL     OW61233   1.090   7.423   2.757
19779SOL    HW161234   1.075   7.360   2.686
19779SOL    HW261235   1.126   7.500   2.712
19780SOL     OW61236   2.923   5.186  14.497
19780SOL    HW161237   2.966   5.141  14.570
19780SOL    HW261238   2.988   5.185  14.427
19781SOL     OW61239   5.852  12.147   3.059
19781SOL    HW161240   5.764  12.181   3.078
19781SOL    HW261241   5.887  12.124   3.145
19782SOL     OW61242   8.534   3.138   5.763
19782SOL    HW161243   8.628   3.134   5.778
19782SOL    HW261244   8.505   3.216   5.810
19783SOL     OW61245  13.979   1.138   0.397
19783SOL    HW161246  13.972   1.092   0.314
19783SOL    HW261247  14.005   1.227   0.373
19784SOL     OW61248   5.387  14.217  11.741
19784SOL    HW161249   5.325  14.184  11.676
19784SOL    HW261250   5.394  14.147  11.805
19785SOL     OW61251   8.967   7.466  13.775
19785SOL    HW161252   9.015   7.509  13.846
19785SOL    HW261253   8.928   7.389  13.816
19786SOL     OW61254   5.849   3.886  11.431
19786SOL    HW161255   5.754   3.881  11.433
19786SOL    HW261256   5.869   3.954  11.367
19787SOL     OW61257  11.321   5.616   7.410
19787SOL    HW161258  11.309   5.559   7.486
19787SOL    HW261259  11.245   5.675   7.412
19788SOL     OW61260   7.536  13.748   1.597
19788SOL    HW161261   7.625  13.712   1.595
19788SOL    HW261262   7.533  13.799   1.678
19789SOL     OW61263   6.220  10.491   3.965
19789SOL    HW161264   6.248  10.433   3.894
19789SOL    HW261265   6.133  10.459   3.988
19790SOL     OW61266   7.613   5.145  13.988
19790SOL    HW161267   7.664   5.220  14.018
19790SOL    HW261268   7.671   5.070  14.000
19791SOL     OW61269  11.465   5.124   7.420
19791SOL    HW161270  11.470   5.071   7.340
19791SOL    HW261271  11.384   5.095   7.463
19792SOL     OW61272   3.064   4.862  11.213
19792SOL    HW161273   3.089   4.952  11.234
19792SOL    HW261274   2.992   4.871  11.151
19793SOL     OW61275   4.853   3.096   4.580
19793SOL    HW161276   4.892   3.108   4.666
19793SOL    HW261277   4.784   3.163   4.576
19794SOL     OW61278   1.423  10.293  13.547
19794SOL    HW161279   1.507  10.317  13.508
19794SOL    HW261280   1.358  10.341  13.495
19795SOL     OW61281   0.283   1.433  11.964
19795SOL    HW161282   0.197   1.395  11.983
19795SOL    HW261283   0.264   1.506  11.905
19796SOL     OW61284   1.296   3.000   7.313
19796SOL    HW161285   1.216   3.040   7.346
19796SOL    HW261286   1.269   2.953   7.234
19797SOL     OW61287   6.260   8.895   5.798
19797SOL    HW161288   6.188   8.844   5.835
19797SOL    HW261289   6.296   8.838   5.730
19798SOL     OW61290  12.049   4.582   2.281
19798SOL    HW161291  12.109   4.657   2.275
19798SOL    HW261292  12.059   4.551   2.371
19799SOL     OW61293  14.810  13.705  10.263
19799SOL    HW161294   0.012  13.653  10.232
19799SOL    HW261295  14.735  13.672  10.215
19800SOL     OW61296   5.221   1.884   3.554
19800SOL    HW161297   5.241   1.977   3.553
19800SOL    HW261298   5.202   1.863   3.463
19801SOL     OW61299   0.849  10.043   3.444
19801SOL    HW161300   0.781  10.087   3.493
19801SOL    HW261301   0.819   9.952   3.436
19802SOL     OW61302  12.393   9.068   8.863
19802SOL    HW161303  12.338   9.059   8.940
19802SOL    HW261304  12.465   9.126   8.891
19803SOL     OW61305   8.371   2.151   6.842
19803SOL    HW161306   8.355   2.120   6.931
19803SOL    HW261307   8.320   2.093   6.786
19804SOL     OW61308   6.075   1.733   1.087
19804SOL    HW161309   6.161   1.747   1.125
19804SOL    HW261310   6.057   1.814   1.038
19805SOL     OW61311  12.193   3.776   5.800
19805SOL    HW161312  12.172   3.825   5.720
19805SOL    HW261313  12.215   3.688   5.769
19806SOL     OW61314  12.083  14.557   6.522
19806SOL    HW161315  12.121  14.595   6.602
19806SOL    HW261316  12.069  14.631   6.464
19807SOL     OW61317   7.744   0.412   7.377
19807SOL    HW161318   7.670   0.418   7.437
19807SOL    HW261319   7.821   0.413   7.435
19808SOL     OW61320   1.560  12.738   0.503
19808SOL    HW161321   1.561  12.806   0.436
19808SOL    HW261322   1.646  12.696   0.496
19809SOL     OW61323  12.313  12.010  14.718
19809SOL    HW161324  12.326  12.005  14.624
19809SOL    HW261325  12.221  12.035  14.729
19810SOL     OW61326  13.721   9.951   6.792
19810SOL    HW161327  13.815   9.935   6.798
19810SOL    HW261328  13.682   9.884   6.849
19811SOL     OW61329  10.476  13.047   9.219
19811SOL    HW161330  10.502  12.965   9.260
19811SOL    HW261331  10.542  13.110   9.247
19812SOL     OW61332   4.290  11.162   4.347
19812SOL    HW161333   4.325  11.245   4.314
19812SOL    HW261334   4.195  11.175   4.346
19813SOL     OW61335   0.857  11.127   2.341
19813SOL    HW161336   0.881  11.060   2.405
19813SOL    HW261337   0.774  11.162   2.374
19814SOL     OW61338  11.216   3.778  11.164
19814SOL    HW161339  11.210   3.747  11.254
19814SOL    HW261340  11.278   3.718  11.122
19815SOL     OW61341   2.360   0.087   1.932
19815SOL    HW161342   2.375   0.175   1.895
19815SOL    HW261343   2.337   0.034   1.856
19816SOL     OW61344  13.764   4.717  14.516
19816SOL    HW161345  13.855   4.687  14.506
19816SOL    HW261346  13.769   4.812  14.504
19817SOL     OW61347   3.332   6.011   7.060
19817SOL    HW161348   3.272   6.017   7.135
19817SOL    HW261349   3.415   5.981   7.099
19818SOL     OW61350   0.423  12.646   4.774
19818SOL    HW161351   0.487  12.672   4.840
19818SOL    HW261352   0.441  12.704   4.699
19819SOL     OW61353  11.567   9.683   8.824
19819SOL    HW161354  11.602   9.680   8.913
19819SOL    HW261355  11.472   9.681   8.835
19820SOL     OW61356  12.781   7.671  14.045
19820SOL    HW161357  12.863   7.622  14.046
19820SOL    HW261358  12.804   7.755  14.006
19821SOL     OW61359   7.062   7.314   8.109
19821SOL    HW161360   6.987   7.364   8.079
19821SOL    HW261361   7.045   7.224   8.081
19822SOL     OW61362   3.128   4.092   6.524
19822SOL    HW161363   3.049   4.038   6.534
19822SOL    HW261364   3.187   4.062   6.593
19823SOL     OW61365   1.039   7.210   1.344
19823SOL    HW161366   1.090   7.289   1.327
19823SOL    HW261367   1.029   7.169   1.259
19824SOL     OW61368   8.302   0.563   0.800
19824SOL    HW161369   8.233   0.554   0.866
19824SOL    HW261370   8.325   0.656   0.803
19825SOL     OW61371  11.259  12.194  10.308
19825SOL    HW161372  11.345  12.235  10.317
19825SOL    HW261373  11.228  12.222  10.222
19826SOL     OW61374   2.233  10.938   4.505
19826SOL    HW161375   2.304  10.962   4.446
19826SOL    HW261376   2.220  11.016   4.559
19827SOL     OW61377  11.768  12.136   1.470
19827SOL    HW161378  11.785  12.137   1.376
19827SOL    HW261379  11.683  12.092   1.479
19828SOL     OW61380  10.314  12.039   7.165
19828SOL    HW161381  10.361  11.996   7.093
19828SOL    HW261382  10.286  12.123   7.129
19829SOL     OW61383   9.002   0.960   9.132
19829SOL    HW161384   8.995   0.917   9.217
19829SOL    HW261385   9.040   0.893   9.074
19830SOL     OW61386   0.601   2.517  10.037
19830SOL    HW161387   0.571   2.607  10.051
19830SOL    HW261388   0.695   2.525  10.021
19831SOL     OW61389   5.416   0.681   4.914
19831SOL    HW161390   5.471   0.604   4.904
19831SOL    HW261391   5.382   0.676   5.003
19832SOL     OW61392   2.262   1.654   1.601
19832SOL    HW161393   2.313   1.593   1.654
19832SOL    HW261394   2.305   1.653   1.515
19833SOL     OW61395   2.564   2.403  10.739
19833SOL    HW161396   2.504   2.420  10.666
19833SOL    HW261397   2.628   2.342  10.702
19834SOL     OW61398   8.594   2.986  12.410
19834SOL    HW161399   8.526   2.995  12.342
19834SOL    HW261400   8.547   2.957  12.488
19835SOL     OW61401  10.930  13.033  10.857
19835SOL    HW161402  10.878  12.953  10.859
19835SOL    HW261403  10.875  13.097  10.813
19836SOL     OW61404   2.435   6.231   1.949
19836SOL    HW161405   2.416   6.164   1.884
19836SOL    HW261406   2.489   6.186   2.015
19837SOL     OW61407  13.200   9.281   8.024
19837SOL    HW161408  13.167   9.349   8.083
19837SOL    HW261409  13.131   9.270   7.959
19838SOL     OW61410  11.751  12.326   6.196
19838SOL    HW161411  11.755  12.352   6.288
19838SOL    HW261412  11.729  12.407   6.149
19839SOL     OW61413  12.348   7.079  12.064
19839SOL    HW161414  12.383   7.159  12.025
19839SOL    HW261415  12.254   7.084  12.048
19840SOL     OW61416   5.011  14.167   1.937
19840SOL    HW161417   5.038  14.193   2.025
19840SOL    HW261418   5.027  14.244   1.883
19841SOL     OW61419   1.454   5.431  13.675
19841SOL    HW161420   1.525   5.493  13.660
19841SOL    HW261421   1.414   5.420  13.588
19842SOL     OW61422   6.081  10.860  12.176
19842SOL    HW161423   6.004  10.917  12.183
19842SOL    HW261424   6.155  10.920  12.184
19843SOL     OW61425   3.392  13.082   7.059
19843SOL    HW161426   3.474  13.131   7.050
19843SOL    HW261427   3.413  12.995   7.024
19844SOL     OW61428  13.686   8.692   2.792
19844SOL    HW161429  13.658   8.778   2.762
19844SOL    HW261430  13.776   8.704   2.822
19845SOL     OW61431  10.942   8.756   6.479
19845SOL    HW161432  10.973   8.674   6.516
19845SOL    HW261433  11.021   8.800   6.448
19846SOL     OW61434   0.061  13.013   0.936
19846SOL    HW161435   0.029  12.962   1.011
19846SOL    HW261436   0.011  13.094   0.940
19847SOL     OW61437  11.822   7.160   2.596
19847SOL    HW161438  11.837   7.077   2.551
19847SOL    HW261439  11.875   7.223   2.547
19848SOL     OW61440   8.086   5.999   5.060
19848SOL    HW161441   8.051   5.995   4.971
19848SOL    HW261442   8.166   6.051   5.052
19849SOL     OW61443   9.272  14.631   3.345
19849SOL    HW161444   9.324  14.711   3.341
19849SOL    HW261445   9.322  14.567   3.295
19850SOL     OW61446   9.818  14.569   0.705
19850SOL    HW161447   9.809  14.642   0.767
19850SOL    HW261448   9.859  14.608   0.628
19851SOL     OW61449  10.804  11.612   6.879
19851SOL    HW161450  10.734  11.548   6.890
19851SOL    HW261451  10.885  11.560   6.880
19852SOL     OW61452   9.721  13.304   5.791
19852SOL    HW161453   9.715  13.384   5.739
19852SOL    HW261454   9.722  13.334   5.882
19853SOL     OW61455   4.223   1.230   2.303
19853SOL    HW161456   4.195   1.149   2.345
19853SOL    HW261457   4.176   1.299   2.351
19854SOL     OW61458   9.742   0.290   2.561
19854SOL    HW161459   9.680   0.259   2.626
19854SOL    HW261460   9.803   0.217   2.550
19855SOL     OW61461   4.202   2.582   2.418
19855SOL    HW161462   4.163   2.653   2.367
19855SOL    HW261463   4.154   2.504   2.391
19856SOL     OW61464   7.003   2.516   7.343
19856SOL    HW161465   6.987   2.585   7.280
19856SOL    HW261466   6.957   2.440   7.307
19857SOL     OW61467  11.588   5.712   7.498
19857SOL    HW161468  11.676   5.682   7.478
19857SOL    HW261469  11.531   5.637   7.477
19858SOL     OW61470   8.251  12.720   9.287
19858SOL    HW161471   8.339  12.712   9.324
19858SOL    HW261472   8.225  12.630   9.267
19859SOL     OW61473   8.294  11.838   5.744
19859SOL    HW161474   8.260  11.787   5.817
19859SOL    HW261475   8.217  11.877   5.703
19860SOL     OW61476   8.978  14.119   2.482
19860SOL    HW161477   8.924  14.117   2.403
19860SOL    HW261478   9.052  14.061   2.462
19861SOL     OW61479  12.190   0.994   4.520
19861SOL    HW161480  12.118   0.947   4.480
19861SOL    HW261481  12.178   0.982   4.614
19862SOL     OW61482   2.003  12.178   9.845
19862SOL    HW161483   2.049  12.155   9.764
19862SOL    HW261484   1.959  12.261   9.825
19863SOL     OW61485  11.516   1.115   5.485
19863SOL    HW161486  11.421   1.109   5.480
19863SOL    HW261487  11.536   1.208   5.480
19864SOL     OW61488  12.175   2.166  14.516
19864SOL    HW161489  12.170   2.242  14.575
19864SOL    HW261490  12.191   2.092  14.574
19865SOL     OW61491   9.745  10.824   4.058
19865SOL    HW161492   9.807  10.754   4.079
19865SOL    HW261493   9.678  10.781   4.004
19866SOL     OW61494   5.971   2.529   0.073
19866SOL    HW161495   6.063   2.504   0.082
19866SOL    HW261496   5.946   2.497  14.859
19867SOL     OW61497  14.128  14.275  14.779
19867SOL    HW161498  14.196  14.313  14.723
19867SOL    HW261499  14.175  14.212  14.834
19868SOL     OW61500   7.067   7.547  14.410
19868SOL    HW161501   7.051   7.473  14.351
19868SOL    HW261502   6.990   7.549  14.467
19869SOL     OW61503  13.075   4.555   2.314
19869SOL    HW161504  12.991   4.591   2.343
19869SOL    HW261505  13.109   4.621   2.253
19870SOL     OW61506   0.039   4.957   1.532
19870SOL    HW161507   0.057   5.033   1.587
19870SOL    HW261508  14.822   4.971   1.500
19871SOL     OW61509   6.888   1.439  10.679
19871SOL    HW161510   6.852   1.515  10.725
19871SOL    HW261511   6.946   1.398  10.744
19872SOL     OW61512   5.219  14.077  10.318
19872SOL    HW161513   5.173  14.122  10.247
19872SOL    HW261514   5.272  14.010  10.274
19873SOL     OW61515   8.287   0.122   6.177
19873SOL    HW161516   8.245   0.152   6.096
19873SOL    HW261517   8.229   0.152   6.247
19874SOL     OW61518  14.686  11.478   6.305
19874SOL    HW161519  14.647  11.564   6.321
19874SOL    HW261520  14.647  11.449   6.223
19875SOL     OW61521   1.156   8.342  11.222
19875SOL    HW161522   1.165   8.260  11.271
19875SOL    HW261523   1.224   8.337  11.155
19876SOL     OW61524   9.139  10.231  12.122
19876SOL    HW161525   9.165  10.199  12.035
19876SOL    HW261526   9.202  10.301  12.141
19877SOL     OW61527  14.476   0.439  12.336
19877SOL    HW161528  14.417   0.371  12.304
19877SOL    HW261529  14.418   0.514  12.354
19878SOL     OW61530  13.480   4.189  11.978
19878SOL    HW161531  13.481   4.268  12.034
19878SOL    HW261532  13.532   4.214  11.902
19879SOL     OW61533   8.876  11.361   8.493
19879SOL    HW161534   8.967  11.350   8.520
19879SOL    HW261535   8.877  11.352   8.398
19880SOL     OW61536   7.868   6.295  10.886
19880SOL    HW161537   7.963   6.302  10.883
19880SOL    HW261538   7.839   6.315  10.797
19881SOL     OW61539  11.084   7.696  14.431
19881SOL    HW161540  11.138   7.750  14.489
19881SOL    HW261541  11.011   7.753  14.407
19882SOL     OW61542   1.523   6.490   4.158
19882SOL    HW161543   1.566   6.555   4.212
19882SOL    HW261544   1.434   6.483   4.194
19883SOL     OW61545  10.222  11.591   6.485
19883SOL    HW161546  10.165  11.524   6.522
19883SOL    HW261547  10.163  11.659   6.454
19884SOL     OW61548  12.463   1.326   8.487
19884SOL    HW161549  12.530   1.258   8.483
19884SOL    HW261550  12.489   1.390   8.420
19885SOL     OW61551   2.117   4.671  11.482
19885SOL    HW161552   2.203   4.658  11.521
19885SOL    HW261553   2.064   4.708  11.552
19886SOL     OW61554   0.874   4.069   6.151
19886SOL    HW161555   0.820   4.083   6.228
19886SOL    HW261556   0.880   4.155   6.109
19887SOL     OW61557   5.238   5.994   7.439
19887SOL    HW161558   5.320   5.948   7.424
19887SOL    HW261559   5.253   6.044   7.520
19888SOL     OW61560   9.169   6.700   3.641
19888SOL    HW161561   9.205   6.748   3.716
19888SOL    HW261562   9.175   6.762   3.568
19889SOL     OW61563   8.613  14.204   1.119
19889SOL    HW161564   8.643  14.256   1.193
19889SOL    HW261565   8.585  14.269   1.054
19890SOL     OW61566  11.781   2.277  10.215
19890SOL    HW161567  11.689   2.273  10.239
19890SOL    HW261568  11.803   2.371  10.219
19891SOL     OW61569   2.187   6.106   5.731
19891SOL    HW161570   2.154   6.021   5.759
19891SOL    HW261571   2.245   6.087   5.657
19892SOL     OW61572   5.286  10.830  11.450
19892SOL    HW161573   5.296  10.811  11.357
19892SOL    HW261574   5.358  10.890  11.470
19893SOL     OW61575   0.880   4.988   1.709
19893SOL    HW161576   0.841   5.059   1.658
19893SOL    HW261577   0.829   4.985   1.790
19894SOL     OW61578   9.914  10.032   9.182
19894SOL    HW161579   9.853  10.103   9.204
19894SOL    HW261580   9.951  10.005   9.266
19895SOL     OW61581   5.271   9.142   3.202
19895SOL    HW161582   5.261   9.185   3.287
19895SOL    HW261583   5.257   9.212   3.138
19896SOL     OW61584  14.239  13.606  14.650
19896SOL    HW161585  14.214  13.595  14.742
19896SOL    HW261586  14.155  13.614  14.603
19897SOL     OW61587   3.852   3.697   6.853
19897SOL    HW161588   3.882   3.719   6.942
19897SOL    HW261589   3.826   3.605   6.859
19898SOL     OW61590   3.399   8.003   7.150
19898SOL    HW161591   3.473   7.996   7.211
19898SOL    HW261592   3.331   8.048   7.201
19899SOL     OW61593   7.554  14.644   3.732
19899SOL    HW161594   7.537  14.644   3.826
19899SOL    HW261595   7.623  14.579   3.720
19900SOL     OW61596  12.435   9.687   6.368
19900SOL    HW161597  12.354   9.676   6.320
19900SOL    HW261598  12.458   9.599   6.397
19901SOL     OW61599  12.085  12.767   1.261
19901SOL    HW161600  12.073  12.850   1.214
19901SOL    HW261601  12.019  12.768   1.330
19902SOL     OW61602   3.259   7.896  10.502
19902SOL    HW161603   3.352   7.920  10.496
19902SOL    HW261604   3.231   7.886  10.411
19903SOL     OW61605   4.595   5.444  14.694
19903SOL    HW161606   4.620   5.504  14.764
19903SOL    HW261607   4.630   5.359  14.721
19904SOL     OW61608   7.418   2.037   4.605
19904SOL    HW161609   7.351   1.971   4.586
19904SOL    HW261610   7.388   2.079   4.685
19905SOL     OW61611  14.646   4.107   8.046
19905SOL    HW161612  14.695   4.025   8.034
19905SOL    HW261613  14.644   4.146   7.958
19906SOL     OW61614   4.538   7.314   6.061
19906SOL    HW161615   4.529   7.289   6.153
19906SOL    HW261616   4.626   7.286   6.037
19907SOL     OW61617  12.738   2.155  13.620
19907SOL    HW161618  12.830   2.179  13.605
19907SOL    HW261619  12.688   2.218  13.569
19908SOL     OW61620  12.270   2.564   3.693
19908SOL    HW161621  12.180   2.582   3.719
19908SOL    HW261622  12.323   2.613   3.757
19909SOL     OW61623  10.434  13.817   6.217
19909SOL    HW161624  10.509  13.762   6.238
19909SOL    HW261625  10.466  13.878   6.150
19910SOL     OW61626  12.783   3.840  14.745
19910SOL    HW161627  12.750   3.902  14.810
19910SOL    HW261628  12.871   3.817  14.777
19911SOL     OW61629  12.114  11.356   6.138
19911SOL    HW161630  12.039  11.356   6.078
19911SOL    HW261631  12.190  11.372   6.083
19912SOL     OW61632   9.360  12.798   8.178
19912SOL    HW161633   9.449  12.771   8.199
19912SOL    HW261634   9.371  12.874   8.121
19913SOL     OW61635   3.443   7.587   1.143
19913SOL    HW161636   3.510   7.615   1.205
19913SOL    HW261637   3.485   7.519   1.091
19914SOL     OW61638   9.764  10.927   5.021
19914SOL    HW161639   9.773  10.853   4.960
19914SOL    HW261640   9.698  10.899   5.084
19915SOL     OW61641   3.022   6.958   1.564
19915SOL    HW161642   3.102   6.914   1.592
19915SOL    HW261643   2.961   6.888   1.543
19916SOL     OW61644   8.762   0.649  11.619
19916SOL    HW161645   8.713   0.650  11.701
19916SOL    HW261646   8.840   0.701  11.637
19917SOL     OW61647   8.065  12.173   6.893
19917SOL    HW161648   8.029  12.203   6.810
19917SOL    HW261649   8.070  12.252   6.947
19918SOL     OW61650   7.052   8.935   4.440
19918SOL    HW161651   6.991   9.008   4.437
19918SOL    HW261652   6.997   8.857   4.446
19919SOL     OW61653   0.337   8.184  13.875
19919SOL    HW161654   0.318   8.151  13.787
19919SOL    HW261655   0.422   8.227  13.867
19920SOL     OW61656   9.697   5.500  12.629
19920SOL    HW161657   9.640   5.459  12.693
19920SOL    HW261658   9.639   5.558  12.579
19921SOL     OW61659  12.815   7.523   4.482
19921SOL    HW161660  12.744   7.580   4.452
19921SOL    HW261661  12.894   7.558   4.440
19922SOL     OW61662  11.908   8.262   9.879
19922SOL    HW161663  12.000   8.288   9.885
19922SOL    HW261664  11.869   8.328   9.823
19923SOL     OW61665  13.101   7.114   3.550
19923SOL    HW161666  13.049   7.044   3.511
19923SOL    HW261667  13.136   7.077   3.630
19924SOL     OW61668   9.268   6.211   6.091
19924SOL    HW161669   9.298   6.288   6.042
19924SOL    HW261670   9.337   6.195   6.155
19925SOL     OW61671   8.696   6.883  14.870
19925SOL    HW161672   8.664   6.860   0.085
19925SOL    HW261673   8.627   6.855  14.810
19926SOL     OW61674   4.427  11.911  10.233
19926SOL    HW161675   4.437  11.989  10.178
19926SOL    HW261676   4.505  11.859  10.214
19927SOL     OW61677   9.726   0.987   4.742
19927SOL    HW161678   9.754   1.072   4.708
19927SOL    HW261679   9.694   0.939   4.666
19928SOL     OW61680  10.976   1.585   9.449
19928SOL    HW161681  10.957   1.543   9.365
19928SOL    HW261682  11.029   1.521   9.496
19929SOL     OW61683   3.101  14.529  13.058
19929SOL    HW161684   3.190  14.563  13.066
19929SOL    HW261685   3.056  14.562  13.136
19930SOL     OW61686   4.780  13.149   7.468
19930SOL    HW161687   4.759  13.236   7.502
19930SOL    HW261688   4.790  13.095   7.546
19931SOL     OW61689   3.599   1.702   3.400
19931SOL    HW161690   3.652   1.711   3.479
19931SOL    HW261691   3.657   1.729   3.329
19932SOL     OW61692   3.179   7.845   7.321
19932SOL    HW161693   3.158   7.758   7.286
19932SOL    HW261694   3.271   7.858   7.299
19933SOL     OW61695  12.019  11.140  11.730
19933SOL    HW161696  11.953  11.202  11.760
19933SOL    HW261697  12.060  11.108  11.811
19934SOL     OW61698  13.132   7.144  11.573
19934SOL    HW161699  13.199   7.203  11.540
19934SOL    HW261700  13.083   7.195  11.638
19935SOL     OW61701  10.829   0.556   5.254
19935SOL    HW161702  10.773   0.618   5.301
19935SOL    HW261703  10.913   0.560   5.299
19936SOL     OW61704  14.013   0.477  11.488
19936SOL    HW161705  14.091   0.531  11.499
19936SOL    HW261706  14.033   0.418  11.416
19937SOL     OW61707  13.767   0.159  13.531
19937SOL    HW161708  13.685   0.205  13.521
19937SOL    HW261709  13.788   0.127  13.443
19938SOL     OW61710   5.693   1.552   8.802
19938SOL    HW161711   5.601   1.579   8.797
19938SOL    HW261712   5.711   1.545   8.895
19939SOL     OW61713   5.788   2.771  12.425
19939SOL    HW161714   5.717   2.791  12.364
19939SOL    HW261715   5.866   2.811  12.386
19940SOL     OW61716   7.326   1.114   7.931
19940SOL    HW161717   7.352   1.023   7.946
19940SOL    HW261718   7.408   1.161   7.915
19941SOL     OW61719  13.328   3.873   3.798
19941SOL    HW161720  13.330   3.941   3.866
19941SOL    HW261721  13.392   3.808   3.826
19942SOL     OW61722   6.920  10.916   7.699
19942SOL    HW161723   6.918  10.910   7.795
19942SOL    HW261724   6.906  11.008   7.680
19943SOL     OW61725   3.726  10.277   0.444
19943SOL    HW161726   3.670  10.269   0.366
19943SOL    HW261727   3.678  10.338   0.501
19944SOL     OW61728  12.253   1.951   2.681
19944SOL    HW161729  12.225   1.967   2.590
19944SOL    HW261730  12.176   1.973   2.733
19945SOL     OW61731   4.667   5.924   1.537
19945SOL    HW161732   4.661   5.935   1.632
19945SOL    HW261733   4.617   5.998   1.502
19946SOL     OW61734   9.713   1.262   0.589
19946SOL    HW161735   9.764   1.338   0.560
19946SOL    HW261736   9.631   1.299   0.622
19947SOL     OW61737   8.008   1.967  14.279
19947SOL    HW161738   8.083   1.928  14.322
19947SOL    HW261739   7.967   1.895  14.231
19948SOL     OW61740   2.594  12.566   1.530
19948SOL    HW161741   2.539  12.631   1.574
19948SOL    HW261742   2.566  12.482   1.566
19949SOL     OW61743   5.009  10.307  11.159
19949SOL    HW161744   5.090  10.271  11.196
19949SOL    HW261745   5.024  10.308  11.064
19950SOL     OW61746   1.757   8.728   2.403
19950SOL    HW161747   1.679   8.759   2.359
19950SOL    HW261748   1.727   8.654   2.456
19951SOL     OW61749   1.529  11.680  10.765
19951SOL    HW161750   1.503  11.624  10.692
19951SOL    HW261751   1.593  11.741  10.727
19952SOL     OW61752   3.976   8.016  11.133
19952SOL    HW161753   3.901   7.971  11.171
19952SOL    HW261754   3.971   8.105  11.169
19953SOL     OW61755   8.883   4.278   8.305
19953SOL    HW161756   8.953   4.217   8.283
19953SOL    HW261757   8.821   4.271   8.233
19954SOL     OW61758   2.786   0.781  14.474
19954SOL    HW161759   2.709   0.724  14.475
19954SOL    HW261760   2.814   0.784  14.566
19955SOL     OW61761  12.372   6.927   8.667
19955SOL    HW161762  12.371   6.941   8.761
19955SOL    HW261763  12.403   7.010   8.631
19956SOL     OW61764   4.421   2.344   6.698
19956SOL    HW161765   4.499   2.320   6.749
19956SOL    HW261766   4.391   2.426   6.736
19957SOL     OW61767  11.077   8.109   9.533
19957SOL    HW161768  11.047   8.090   9.444
19957SOL    HW261769  11.061   8.029   9.582
19958SOL     OW61770  11.314   0.728   2.559
19958SOL    HW161771  11.221   0.738   2.542
19958SOL    HW261772  11.318   0.681   2.643
19959SOL     OW61773   5.347   0.998  13.446
19959SOL    HW161774   5.368   1.062  13.515
19959SOL    HW261775   5.261   1.025  13.415
19960SOL     OW61776   3.175  14.397  10.605
19960SOL    HW161777   3.105  14.417  10.668
19960SOL    HW261778   3.146  14.318  10.561
19961SOL     OW61779   4.912  10.995   6.132
19961SOL    HW161780   5.000  10.988   6.096
19961SOL    HW261781   4.896  11.089   6.138
19962SOL     OW61782   8.049   4.295   4.357
19962SOL    HW161783   7.962   4.258   4.340
19962SOL    HW261784   8.053   4.304   4.452
19963SOL     OW61785   1.374   9.769   1.108
19963SOL    HW161786   1.345   9.832   1.173
19963SOL    HW261787   1.360   9.812   1.024
19964SOL     OW61788  13.293   3.167  12.879
19964SOL    HW161789  13.290   3.164  12.784
19964SOL    HW261790  13.263   3.081  12.907
19965SOL     OW61791   7.659   9.280  13.894
19965SOL    HW161792   7.597   9.208  13.880
19965SOL    HW261793   7.697   9.297  13.808
19966SOL     OW61794  13.240   6.899  10.968
19966SOL    HW161795  13.228   6.983  11.012
19966SOL    HW261796  13.189   6.837  11.020
19967SOL     OW61797   1.148  13.678   5.040
19967SOL    HW161798   1.182  13.589   5.049
19967SOL    HW261799   1.223  13.730   5.010
19968SOL     OW61800   5.471   4.075   3.685
19968SOL    HW161801   5.464   4.110   3.596
19968SOL    HW261802   5.544   4.013   3.680
19969SOL     OW61803   0.070  14.710  14.725
19969SOL    HW161804   0.001  14.771  14.751
19969SOL    HW261805   0.080  14.722  14.631
19970SOL     OW61806  11.110  14.466  14.495
19970SOL    HW161807  11.044  14.428  14.437
19970SOL    HW261808  11.161  14.390  14.526
19971SOL     OW61809   0.797   1.151   8.408
19971SOL    HW161810   0.730   1.116   8.468
19971SOL    HW261811   0.764   1.237   8.382
19972SOL     OW61812  13.744   4.157  11.821
19972SOL    HW161813  13.794   4.146  11.740
19972SOL    HW261814  13.809   4.147  11.891
19973SOL     OW61815   9.873   3.137  10.072
19973SOL    HW161816   9.850   3.230  10.072
19973SOL    HW261817   9.792   3.092  10.094
19974SOL     OW61818  10.618   6.410   2.084
19974SOL    HW161819  10.654   6.496   2.108
19974SOL    HW261820  10.527   6.414   2.112
19975SOL     OW61821  12.743  11.455  12.784
19975SOL    HW161822  12.664  11.475  12.734
19975SOL    HW261823  12.715  11.458  12.876
19976SOL     OW61824   4.976  13.770   5.024
19976SOL    HW161825   4.997  13.764   4.931
19976SOL    HW261826   4.892  13.725   5.033
19977SOL     OW61827  12.371   0.653   9.510
19977SOL    HW161828  12.291   0.690   9.548
19977SOL    HW261829  12.342   0.611   9.429
19978SOL     OW61830   2.541   4.313   6.593
19978SOL    HW161831   2.446   4.323   6.584
19978SOL    HW261832   2.577   4.396   6.561
19979SOL     OW61833  11.631   9.780  11.232
19979SOL    HW161834  11.588   9.839  11.293
19979SOL    HW261835  11.612   9.692  11.266
19980SOL     OW61836   2.038  14.706   6.325
19980SOL    HW161837   2.054  14.723   6.418
19980SOL    HW261838   2.125  14.698   6.287
19981SOL     OW61839   2.799   4.611   6.707
19981SOL    HW161840   2.848   4.529   6.712
19981SOL    HW261841   2.861   4.674   6.670
19982SOL     OW61842  10.840   2.782  12.243
19982SOL    HW161843  10.823   2.793  12.150
19982SOL    HW261844  10.812   2.864  12.283
19983SOL     OW61845   1.949   2.542   2.216
19983SOL    HW161846   1.985   2.496   2.292
19983SOL    HW261847   1.880   2.598   2.252
19984SOL     OW61848   0.757  14.187   9.400
19984SOL    HW161849   0.713  14.121   9.347
19984SOL    HW261850   0.762  14.264   9.344
19985SOL     OW61851   2.521   1.778  12.834
19985SOL    HW161852   2.602   1.826  12.814
19985SOL    HW261853   2.451   1.839  12.812
19986SOL     OW61854   3.285  12.195  14.176
19986SOL    HW161855   3.225  12.149  14.235
19986SOL    HW261856   3.371  12.185  14.217
19987SOL     OW61857   1.523  13.533   5.722
19987SOL    HW161858   1.581  13.462   5.748
19987SOL    HW261859   1.451  13.490   5.677
19988SOL     OW61860   6.659   8.939   1.958
19988SOL    HW161861   6.690   9.030   1.966
19988SOL    HW261862   6.691   8.909   1.874
19989SOL     OW61863   2.669   1.553   7.489
19989SOL    HW161864   2.655   1.633   7.438
19989SOL    HW261865   2.653   1.580   7.580
19990SOL     OW61866   0.661   2.296   0.411
19990SOL    HW161867   0.597   2.356   0.449
19990SOL    HW261868   0.714   2.351   0.353
19991SOL     OW61869  10.179  11.852  12.578
19991SOL    HW161870  10.157  11.942  12.556
19991SOL    HW261871  10.119  11.828  12.649
19992SOL     OW61872   1.001   0.498  10.435
19992SOL    HW161873   1.024   0.525  10.346
19992SOL    HW261874   1.013   0.403  10.435
19993SOL     OW61875   0.493  10.881   0.989
19993SOL    HW161876   0.451  10.957   1.028
19993SOL    HW261877   0.428  10.847   0.927
19994SOL     OW61878  13.607   5.097   5.359
19994SOL    HW161879  13.552   5.151   5.416
19994SOL    HW261880  13.581   5.007   5.379
19995SOL     OW61881   5.842   5.267   8.617
19995SOL    HW161882   5.766   5.286   8.672
19995SOL    HW261883   5.916   5.268   8.677
19996SOL     OW61884   2.474   9.984   2.250
19996SOL    HW161885   2.446   9.960   2.162
19996SOL    HW261886   2.398   9.963   2.305
19997SOL     OW61887   5.306   6.521   8.948
19997SOL    HW161888   5.372   6.525   8.879
19997SOL    HW261889   5.355   6.542   9.028
19998SOL     OW61890   6.730  11.057  12.306
19998SOL    HW161891   6.766  11.117  12.370
19998SOL    HW261892   6.698  10.983  12.358
19999SOL     OW61893  11.516   2.789   8.903
19999SOL    HW161894  11.455   2.765   8.973
19999SOL    HW261895  11.518   2.884   8.904
20000SOL     OW61896  13.940  14.871   1.807
20000SOL    HW161897  13.880   0.069   1.782
20000SOL    HW261898  13.884  14.797   1.829
20001SOL     OW61899   8.852  12.178   7.323
20001SOL    HW161900   8.859  12.152   7.414
20001SOL    HW261901   8.923  12.130   7.279
20002SOL     OW61902   6.603   3.925   5.344
20002SOL    HW161903   6.639   3.965   5.423
20002SOL    HW261904   6.626   3.984   5.273
20003SOL     OW61905  14.420  14.094   9.873
20003SOL    HW161906  14.413  14.174   9.821
20003SOL    HW261907  14.455  14.029   9.812
20004SOL     OW61908   3.552   1.228  14.585
20004SOL    HW161909   3.554   1.182  14.669
20004SOL    HW261910   3.466   1.269  14.582
20005SOL     OW61911   3.325   7.113  14.379
20005SOL    HW161912   3.306   7.140  14.468
20005SOL    HW261913   3.245   7.132  14.330
20006SOL     OW61914  12.321  11.347   3.034
20006SOL    HW161915  12.297  11.438   3.050
20006SOL    HW261916  12.238  11.304   3.011
20007SOL     OW61917  10.929  10.147   3.063
20007SOL    HW161918  10.993  10.107   3.122
20007SOL    HW261919  10.911  10.233   3.102
20008SOL     OW61920   5.918   3.316  11.729
20008SOL    HW161921   6.009   3.294  11.712
20008SOL    HW261922   5.870   3.235  11.713
20009SOL     OW61923  11.729  11.599   1.817
20009SOL    HW161924  11.758  11.612   1.907
20009SOL    HW261925  11.737  11.505   1.802
20010SOL     OW61926   6.505   1.276  13.241
20010SOL    HW161927   6.478   1.218  13.170
20010SOL    HW261928   6.599   1.260  13.251
20011SOL     OW61929   3.864   2.560  10.509
20011SOL    HW161930   3.906   2.508  10.440
20011SOL    HW261931   3.897   2.649  10.495
20012SOL     OW61932   1.539   1.720  13.916
20012SOL    HW161933   1.461   1.679  13.954
20012SOL    HW261934   1.605   1.651  13.917
20013SOL     OW61935   8.650  10.195  13.650
20013SOL    HW161936   8.709  10.211  13.576
20013SOL    HW261937   8.594  10.123  13.621
20014SOL     OW61938  14.656   9.175   8.603
20014SOL    HW161939  14.592   9.239   8.569
20014SOL    HW261940  14.725   9.229   8.641
20015SOL     OW61941   1.607   9.868   1.914
20015SOL    HW161942   1.665   9.932   1.871
20015SOL    HW261943   1.577   9.912   1.993
20016SOL     OW61944   4.194  14.586  13.590
20016SOL    HW161945   4.288  14.568  13.580
20016SOL    HW261946   4.152  14.523  13.531
20017SOL     OW61947   4.018  11.907   4.822
20017SOL    HW161948   3.996  11.997   4.844
20017SOL    HW261949   4.011  11.860   4.906
20018SOL     OW61950   9.625  11.363  10.166
20018SOL    HW161951   9.602  11.433  10.104
20018SOL    HW261952   9.596  11.283  10.123
20019SOL     OW61953   3.881   3.901   4.518
20019SOL    HW161954   3.813   3.961   4.487
20019SOL    HW261955   3.947   3.958   4.556
20020SOL     OW61956   5.689   1.593  14.503
20020SOL    HW161957   5.740   1.522  14.542
20020SOL    HW261958   5.748   1.668  14.505
20021SOL     OW61959   7.036  11.956   0.273
20021SOL    HW161960   7.023  12.044   0.238
20021SOL    HW261961   7.129  11.952   0.296
20022SOL     OW61962   0.065   8.367   3.884
20022SOL    HW161963   0.041   8.290   3.935
20022SOL    HW261964   0.021   8.440   3.929
20023SOL     OW61965  11.458   3.636   0.903
20023SOL    HW161966  11.424   3.591   0.980
20023SOL    HW261967  11.484   3.565   0.844
20024SOL     OW61968   9.845   1.912   4.757
20024SOL    HW161969   9.884   1.986   4.804
20024SOL    HW261970   9.853   1.838   4.817
20025SOL     OW61971   4.815   7.964   4.956
20025SOL    HW161972   4.791   8.051   4.926
20025SOL    HW261973   4.737   7.930   4.999
20026SOL     OW61974   2.797   2.917  14.151
20026SOL    HW161975   2.717   2.950  14.193
20026SOL    HW261976   2.867   2.944  14.210
20027SOL     OW61977   8.402   8.435  14.287
20027SOL    HW161978   8.437   8.519  14.259
20027SOL    HW261979   8.476   8.375  14.283
20028SOL     OW61980   8.374  10.873  12.457
20028SOL    HW161981   8.291  10.911  12.430
20028SOL    HW261982   8.413  10.939  12.514
20029SOL     OW61983   8.812   6.898  10.232
20029SOL    HW161984   8.723   6.891  10.265
20029SOL    HW261985   8.810   6.972  10.171
20030SOL     OW61986   2.561   5.754   3.483
20030SOL    HW161987   2.499   5.769   3.412
20030SOL    HW261988   2.556   5.661   3.501
20031SOL     OW61989   6.961   9.227   2.953
20031SOL    HW161990   7.018   9.150   2.957
20031SOL    HW261991   6.909   9.223   3.033
20032SOL     OW61992   8.867  13.423   3.288
20032SOL    HW161993   8.788  13.376   3.259
20032SOL    HW261994   8.839  13.470   3.367
20033SOL     OW61995   8.525  13.240  14.784
20033SOL    HW161996   8.572  13.318  14.755
20033SOL    HW261997   8.457  13.273  14.843
20034SOL     OW61998  13.357  10.831   3.116
20034SOL    HW161999  13.270  10.792   3.112
20034SOL    HW262000  13.378  10.854   3.026
20035SOL     OW62001  10.412   2.906   7.128
20035SOL    HW162002  10.435   2.908   7.221
20035SOL    HW262003  10.488   2.944   7.084
20036SOL     OW62004  12.636   6.781  12.656
20036SOL    HW162005  12.544   6.783  12.629
20036SOL    HW262006  12.635   6.803  12.749
20037SOL     OW62007   5.212   7.170   7.153
20037SOL    HW162008   5.234   7.164   7.246
20037SOL    HW262009   5.284   7.125   7.109
20038SOL     OW62010  13.979   7.310   0.550
20038SOL    HW162011  13.920   7.384   0.539
20038SOL    HW262012  13.958   7.274   0.636
20039SOL     OW62013  13.549   3.942  14.169
20039SOL    HW162014  13.549   3.895  14.253
20039SOL    HW262015  13.596   4.023  14.187
20040SOL     OW62016  12.822   2.987   0.939
20040SOL    HW162017  12.791   2.929   0.869
20040SOL    HW262018  12.917   2.977   0.938
20041SOL     OW62019   7.222  14.709   5.959
20041SOL    HW162020   7.285  14.649   5.999
20041SOL    HW262021   7.267  14.794   5.958
20042SOL     OW62022   0.851   0.552   6.036
20042SOL    HW162023   0.820   0.631   5.991
20042SOL    HW262024   0.778   0.491   6.030
20043SOL     OW62025  11.413  13.766   3.746
20043SOL    HW162026  11.462  13.812   3.678
20043SOL    HW262027  11.424  13.673   3.724
20044SOL     OW62028  13.201   0.666  12.838
20044SOL    HW162029  13.121   0.685  12.788
20044SOL    HW262030  13.177   0.682  12.929
20045SOL     OW62031   5.713   8.885  11.389
20045SOL    HW162032   5.678   8.902  11.301
20045SOL    HW262033   5.639   8.902  11.447
20046SOL     OW62034   5.046  11.101   3.669
20046SOL    HW162035   5.066  11.111   3.762
20046SOL    HW262036   4.964  11.149   3.658
20047SOL     OW62037  14.019   2.991  14.445
20047SOL    HW162038  13.967   3.062  14.407
20047SOL    HW262039  13.966   2.913  14.432
20048SOL     OW62040  12.992  10.509  12.308
20048SOL    HW162041  13.005  10.537  12.217
20048SOL    HW262042  12.898  10.491  12.315
20049SOL     OW62043   3.633   6.881   7.646
20049SOL    HW162044   3.720   6.857   7.614
20049SOL    HW262045   3.573   6.845   7.582
20050SOL     OW62046   6.653   8.737   0.063
20050SOL    HW162047   6.636   8.831   0.057
20050SOL    HW262048   6.612   8.700  14.858
20051SOL     OW62049   8.957   7.545   6.550
20051SOL    HW162050   9.000   7.555   6.465
20051SOL    HW262051   9.016   7.589   6.611
20052SOL     OW62052   9.973  10.609   3.212
20052SOL    HW162053   9.947  10.672   3.280
20052SOL    HW262054   9.961  10.523   3.253
20053SOL     OW62055   7.589   5.941   9.441
20053SOL    HW162056   7.580   5.889   9.520
20053SOL    HW262057   7.568   5.880   9.370
20054SOL     OW62058   8.904   9.812   4.447
20054SOL    HW162059   8.934   9.738   4.394
20054SOL    HW262060   8.840   9.774   4.508
20055SOL     OW62061   6.448  10.315   1.420
20055SOL    HW162062   6.447  10.347   1.330
20055SOL    HW262063   6.471  10.222   1.412
20056SOL     OW62064  14.410  10.466   8.379
20056SOL    HW162065  14.350  10.502   8.443
20056SOL    HW262066  14.492  10.454   8.428
20057SOL     OW62067   7.245   8.956   1.422
20057SOL    HW162068   7.154   8.939   1.397
20057SOL    HW262069   7.297   8.915   1.352
20058SOL     OW62070   7.904  10.953   3.815
20058SOL    HW162071   7.886  10.906   3.734
20058SOL    HW262072   7.822  10.997   3.837
20059SOL     OW62073   5.301  11.197   2.169
20059SOL    HW162074   5.379  11.246   2.143
20059SOL    HW262075   5.233  11.228   2.109
20060SOL     OW62076  10.062   4.139   3.035
20060SOL    HW162077  10.157   4.144   3.041
20060SOL    HW262078  10.040   4.048   3.053
20061SOL     OW62079   8.010   1.677  11.016
20061SOL    HW162080   7.915   1.676  11.023
20061SOL    HW262081   8.041   1.667  11.106
20062SOL     OW62082   2.077   2.874  10.846
20062SOL    HW162083   2.034   2.958  10.863
20062SOL    HW262084   2.050   2.818  10.919
20063SOL     OW62085   3.489   8.193  12.660
20063SOL    HW162086   3.547   8.229  12.727
20063SOL    HW262087   3.433   8.266  12.635
20064SOL     OW62088   3.101   1.195  11.899
20064SOL    HW162089   3.028   1.257  11.906
20064SOL    HW262090   3.171   1.233  11.952
20065SOL     OW62091   6.049  10.038   3.746
20065SOL    HW162092   6.140  10.028   3.773
20065SOL    HW262093   6.052  10.032   3.651
20066SOL     OW62094  10.002   9.806  14.727
20066SOL    HW162095  10.034   9.784  14.640
20066SOL    HW262096  10.060   9.759  14.787
20067SOL     OW62097  13.274  14.462  10.025
20067SOL    HW162098  13.202  14.403  10.007
20067SOL    HW262099  13.279  14.519   9.948
20068SOL     OW62100  11.598   8.922   1.201
20068SOL    HW162101  11.536   8.895   1.133
20068SOL    HW262102  11.669   8.858   1.196
20069SOL     OW62103  11.985   6.283   5.212
20069SOL    HW162104  11.893   6.273   5.239
20069SOL    HW262105  12.030   6.209   5.254
20070SOL     OW62106   8.896  10.762   0.848
20070SOL    HW162107   8.907  10.825   0.919
20070SOL    HW262108   8.881  10.678   0.893
20071SOL     OW62109   5.085   4.382   2.012
20071SOL    HW162110   5.154   4.318   1.999
20071SOL    HW262111   5.013   4.351   1.957
20072SOL     OW62112   1.016   2.751   9.000
20072SOL    HW162113   1.004   2.720   9.090
20072SOL    HW262114   1.090   2.701   8.967
20073SOL     OW62115   5.601  14.054   4.853
20073SOL    HW162116   5.605  14.049   4.948
20073SOL    HW262117   5.515  14.019   4.830
20074SOL     OW62118   6.428   9.194   4.899
20074SOL    HW162119   6.493   9.127   4.878
20074SOL    HW262120   6.407   9.178   4.992
20075SOL     OW62121   5.865   0.098   4.872
20075SOL    HW162122   5.957   0.076   4.861
20075SOL    HW262123   5.864   0.172   4.932
20076SOL     OW62124   6.601  14.379   0.033
20076SOL    HW162125   6.693  14.394   0.055
20076SOL    HW262126   6.562  14.467   0.033
20077SOL     OW62127   0.094   8.213   1.908
20077SOL    HW162128  14.872   8.210   1.894
20077SOL    HW262129   0.132   8.209   1.820
20078SOL     OW62130   2.984   3.571  12.763
20078SOL    HW162131   3.072   3.546  12.736
20078SOL    HW262132   2.997   3.650  12.817
20079SOL     OW62133  14.690  12.637   8.765
20079SOL    HW162134  14.717  12.671   8.850
20079SOL    HW262135  14.615  12.581   8.784
20080SOL     OW62136   1.957   0.868   6.911
20080SOL    HW162137   2.007   0.797   6.950
20080SOL    HW262138   1.868   0.857   6.946
20081SOL     OW62139   4.887   3.069   7.527
20081SOL    HW162140   4.808   3.061   7.473
20081SOL    HW262141   4.960   3.061   7.465
20082SOL     OW62142   0.276   6.822   9.019
20082SOL    HW162143   0.370   6.839   9.014
20082SOL    HW262144   0.248   6.868   9.098
20083SOL     OW62145   7.903   6.754   1.137
20083SOL    HW162146   7.913   6.830   1.080
20083SOL    HW262147   7.868   6.686   1.080
20084SOL     OW62148   6.604   0.316  12.482
20084SOL    HW162149   6.637   0.357  12.562
20084SOL    HW262150   6.614   0.222  12.497
20085SOL     OW62151  10.871   3.356   5.401
20085SOL    HW162152  10.854   3.438   5.356
20085SOL    HW262153  10.845   3.288   5.338
20086SOL     OW62154  11.377   8.702   8.644
20086SOL    HW162155  11.309   8.676   8.705
20086SOL    HW262156  11.448   8.735   8.699
20087SOL     OW62157  12.382  14.677   0.397
20087SOL    HW162158  12.435  14.731   0.339
20087SOL    HW262159  12.445  14.614   0.434
20088SOL     OW62160  10.932   0.345   8.854
20088SOL    HW162161  10.862   0.396   8.811
20088SOL    HW262162  10.980   0.305   8.782
20089SOL     OW62163   3.778   8.915   7.263
20089SOL    HW162164   3.688   8.911   7.231
20089SOL    HW262165   3.782   8.848   7.331
20090SOL     OW62166  14.508  12.451   8.773
20090SOL    HW162167  14.467  12.413   8.851
20090SOL    HW262168  14.500  12.383   8.707
20091SOL     OW62169  10.749  10.423   9.435
20091SOL    HW162170  10.825  10.389   9.481
20091SOL    HW262171  10.745  10.516   9.460
20092SOL     OW62172   7.548   5.542  13.234
20092SOL    HW162173   7.608   5.484  13.186
20092SOL    HW262174   7.476   5.485  13.260
20093SOL     OW62175   9.847   2.063   2.427
20093SOL    HW162176   9.760   2.046   2.393
20093SOL    HW262177   9.833   2.114   2.506
20094SOL     OW62178   5.863   7.573   2.087
20094SOL    HW162179   5.924   7.635   2.047
20094SOL    HW262180   5.777   7.612   2.074
20095SOL     OW62181  12.463   5.570   0.498
20095SOL    HW162182  12.532   5.598   0.558
20095SOL    HW262183  12.488   5.607   0.413
20096SOL     OW62184  13.935   0.813   7.482
20096SOL    HW162185  13.840   0.818   7.485
20096SOL    HW262186  13.954   0.753   7.410
20097SOL     OW62187   7.145   3.229   5.448
20097SOL    HW162188   7.051   3.237   5.431
20097SOL    HW262189   7.184   3.224   5.361
20098SOL     OW62190  10.762   7.236   9.908
20098SOL    HW162191  10.720   7.297   9.970
20098SOL    HW262192  10.707   7.158   9.910
20099SOL     OW62193  12.909  10.844   3.478
20099SOL    HW162194  12.885  10.788   3.552
20099SOL    HW262195  12.953  10.919   3.518
20100SOL     OW62196   5.424   9.684  13.764
20100SOL    HW162197   5.469   9.600  13.755
20100SOL    HW262198   5.341   9.662  13.806
20101SOL     OW62199  14.778   5.670  11.905
20101SOL    HW162200  14.744   5.622  11.980
20101SOL    HW262201  14.707   5.670  11.842
20102SOL     OW62202  13.931  13.567   2.615
20102SOL    HW162203  13.867  13.499   2.596
20102SOL    HW262204  13.957  13.551   2.705
20103SOL     OW62205   6.004   9.772   1.397
20103SOL    HW162206   6.084   9.811   1.361
20103SOL    HW262207   5.955   9.846   1.434
20104SOL     OW62208   0.007   2.355   8.686
20104SOL    HW162209   0.024   2.326   8.597
20104SOL    HW262210   0.082   2.323   8.736
20105SOL     OW62211   1.942   0.922  13.500
20105SOL    HW162212   1.893   0.862  13.444
20105SOL    HW262213   1.956   1.000  13.446
20106SOL     OW62214   9.820  14.523   7.560
20106SOL    HW162215   9.891  14.502   7.620
20106SOL    HW262216   9.767  14.588   7.607
20107SOL     OW62217   0.395  14.187  10.935
20107SOL    HW162218   0.371  14.158  11.023
20107SOL    HW262219   0.437  14.272  10.949
20108SOL     OW62220   7.184  13.096  14.346
20108SOL    HW162221   7.262  13.140  14.380
20108SOL    HW262222   7.202  13.003  14.357
20109SOL     OW62223  11.897   2.351  14.495
20109SOL    HW162224  11.841   2.428  14.478
20109SOL    HW262225  11.960   2.351  14.424
20110SOL     OW62226   4.242  12.679   6.659
20110SOL    HW162227   4.284  12.634   6.585
20110SOL    HW262228   4.296  12.757   6.674
20111SOL     OW62229   5.602   0.705  11.627
20111SOL    HW162230   5.537   0.673  11.690
20111SOL    HW262231   5.686   0.682  11.667
20112SOL     OW62232   5.655  13.614   8.741
20112SOL    HW162233   5.743  13.586   8.715
20112SOL    HW262234   5.606  13.532   8.749
20113SOL     OW62235  12.263   5.350  12.497
20113SOL    HW162236  12.184   5.401  12.477
20113SOL    HW262237  12.230   5.271  12.539
20114SOL     OW62238  14.094   4.422   0.254
20114SOL    HW162239  14.093   4.458   0.165
20114SOL    HW262240  14.011   4.451   0.293
20115SOL     OW62241  13.509  10.775   3.501
20115SOL    HW162242  13.591  10.806   3.462
20115SOL    HW262243  13.526  10.774   3.595
20116SOL     OW62244  12.709  14.763  14.192
20116SOL    HW162245  12.715  14.847  14.147
20116SOL    HW262246  12.639  14.717  14.146
20117SOL     OW62247   2.775   0.502  14.649
20117SOL    HW162248   2.841   0.458  14.595
20117SOL    HW262249   2.823   0.570  14.695
20118SOL     OW62250  14.099   9.019   9.045
20118SOL    HW162251  14.004   9.021   9.053
20118SOL    HW262252  14.125   9.112   9.043
20119SOL     OW62253   7.873   9.154  13.341
20119SOL    HW162254   7.867   9.193  13.254
20119SOL    HW262255   7.888   9.061  13.325
20120SOL     OW62256   3.643  13.427   7.405
20120SOL    HW162257   3.594  13.449   7.484
20120SOL    HW262258   3.727  13.395   7.436
20121SOL     OW62259  14.307  11.994  10.231
20121SOL    HW162260  14.312  11.965  10.322
20121SOL    HW262261  14.214  12.011  10.216
20122SOL     OW62262  10.084   9.203  10.182
20122SOL    HW162263  10.064   9.109  10.174
20122SOL    HW262264  10.067   9.238  10.094
20123SOL     OW62265   6.832  10.665   7.974
20123SOL    HW162266   6.905  10.643   7.917
20123SOL    HW262267   6.859  10.746   8.017
20124SOL     OW62268   1.116   2.882   2.244
20124SOL    HW162269   1.200   2.923   2.265
20124SOL    HW262270   1.050   2.947   2.270
20125SOL     OW62271  13.962  14.279   3.894
20125SOL    HW162272  14.021  14.338   3.847
20125SOL    HW262273  14.020  14.222   3.944
20126SOL     OW62274   8.164   3.927   0.850
20126SOL    HW162275   8.100   3.946   0.919
20126SOL    HW262276   8.185   4.012   0.811
20127SOL     OW62277   7.483   6.189   1.177
20127SOL    HW162278   7.483   6.263   1.115
20127SOL    HW262279   7.409   6.135   1.150
20128SOL     OW62280  11.726   8.907   7.746
20128SOL    HW162281  11.658   8.958   7.789
20128SOL    HW262282  11.720   8.932   7.654
20129SOL     OW62283   5.196   8.831  11.897
20129SOL    HW162284   5.246   8.773  11.955
20129SOL    HW262285   5.232   8.815  11.810
20130SOL     OW62286   8.324   6.398   7.546
20130SOL    HW162287   8.318   6.328   7.480
20130SOL    HW262288   8.294   6.477   7.499
20131SOL     OW62289   7.417   3.814  11.295
20131SOL    HW162290   7.468   3.864  11.231
20131SOL    HW262291   7.479   3.751  11.331
20132SOL     OW62292   6.711  12.094  10.073
20132SOL    HW162293   6.693  12.165  10.135
20132SOL    HW262294   6.724  12.017  10.127
20133SOL     OW62295   8.107   7.641   3.354
20133SOL    HW162296   8.096   7.567   3.295
20133SOL    HW262297   8.018   7.677   3.363
20134SOL     OW62298   0.627  13.658   6.208
20134SOL    HW162299   0.662  13.612   6.132
20134SOL    HW262300   0.587  13.590   6.261
20135SOL     OW62301  11.603  11.117   3.976
20135SOL    HW162302  11.547  11.044   4.001
20135SOL    HW262303  11.686  11.100   4.021
20136SOL     OW62304  13.197   8.028   9.375
20136SOL    HW162305  13.233   7.981   9.300
20136SOL    HW262306  13.217   8.120   9.357
20137SOL     OW62307   7.649  10.635   8.697
20137SOL    HW162308   7.649  10.675   8.784
20137SOL    HW262309   7.732  10.662   8.658
20138SOL     OW62310  14.787   3.894   8.000
20138SOL    HW162311  14.773   3.837   7.925
20138SOL    HW262312   0.005   3.877   8.026
20139SOL     OW62313  13.157   8.702  12.189
20139SOL    HW162314  13.230   8.731  12.134
20139SOL    HW262315  13.082   8.754  12.159
20140SOL     OW62316  14.036   3.816   9.814
20140SOL    HW162317  14.012   3.897   9.768
20140SOL    HW262318  14.088   3.846   9.889
20141SOL     OW62319  13.689  10.307  14.701
20141SOL    HW162320  13.757  10.370  14.726
20141SOL    HW262321  13.721  10.268  14.620
20142SOL     OW62322   5.823  13.259   2.403
20142SOL    HW162323   5.760  13.310   2.454
20142SOL    HW262324   5.888  13.323   2.374
20143SOL     OW62325  12.030   9.120  11.562
20143SOL    HW162326  11.977   9.200  11.565
20143SOL    HW262327  12.011   9.075  11.645
20144SOL     OW62328   9.960  10.015  12.464
20144SOL    HW162329   9.933  10.092  12.414
20144SOL    HW262330   9.976  10.048  12.552
20145SOL     OW62331   8.887   3.194  13.038
20145SOL    HW162332   8.837   3.267  13.002
20145SOL    HW262333   8.978   3.222  13.031
20146SOL     OW62334  11.076  12.980   6.488
20146SOL    HW162335  11.012  12.910   6.498
20146SOL    HW262336  11.114  12.991   6.575
20147SOL     OW62337   4.892   5.608   2.872
20147SOL    HW162338   4.892   5.598   2.967
20147SOL    HW262339   4.802   5.630   2.850
20148SOL     OW62340  14.404   2.929   5.917
20148SOL    HW162341  14.312   2.955   5.906
20148SOL    HW262342  14.441   2.997   5.974
20149SOL     OW62343  11.905  13.727  11.028
20149SOL    HW162344  11.928  13.818  11.047
20149SOL    HW262345  11.815  13.731  10.995
20150SOL     OW62346  11.426   9.019   2.852
20150SOL    HW162347  11.345   8.973   2.875
20150SOL    HW262348  11.409   9.054   2.764
20151SOL     OW62349  13.670   5.845   5.773
20151SOL    HW162350  13.602   5.908   5.795
20151SOL    HW262351  13.622   5.763   5.757
20152SOL     OW62352  14.190  12.619   0.929
20152SOL    HW162353  14.207  12.712   0.937
20152SOL    HW262354  14.215  12.598   0.839
20153SOL     OW62355  12.163   5.601   9.788
20153SOL    HW162356  12.239   5.566   9.834
20153SOL    HW262357  12.088   5.556   9.829
20154SOL     OW62358  14.100   7.164  12.550
20154SOL    HW162359  14.033   7.201  12.607
20154SOL    HW262360  14.051   7.127  12.476
20155SOL     OW62361  10.093  11.020   8.231
20155SOL    HW162362  10.046  10.977   8.303
20155SOL    HW262363  10.041  11.097   8.211
20156SOL     OW62364   5.054   4.935   8.880
20156SOL    HW162365   5.012   4.934   8.794
20156SOL    HW262366   5.023   4.856   8.923
20157SOL     OW62367   6.631   6.445   3.630
20157SOL    HW162368   6.704   6.500   3.601
20157SOL    HW262369   6.634   6.369   3.572
20158SOL     OW62370  10.034  12.927   8.186
20158SOL    HW162371   9.981  12.876   8.247
20158SOL    HW262372   9.969  12.975   8.133
20159SOL     OW62373   2.520   9.086  14.143
20159SOL    HW162374   2.497   9.161  14.199
20159SOL    HW262375   2.615   9.083  14.146
20160SOL     OW62376   1.839   3.263   5.657
20160SOL    HW162377   1.861   3.337   5.713
20160SOL    HW262378   1.873   3.187   5.703
20161SOL     OW62379  13.805  13.764  14.554
20161SOL    HW162380  13.755  13.699  14.604
20161SOL    HW262381  13.891  13.723  14.541
20162SOL     OW62382   5.758  10.161   0.950
20162SOL    HW162383   5.706  10.165   1.030
20162SOL    HW262384   5.838  10.209   0.970
20163SOL     OW62385   1.831  11.828  11.257
20163SOL    HW162386   1.818  11.886  11.332
20163SOL    HW262387   1.742  11.810  11.224
20164SOL     OW62388   7.591   6.985  10.861
20164SOL    HW162389   7.530   7.038  10.912
20164SOL    HW262390   7.538   6.952  10.788
20165SOL     OW62391   1.109   8.930   3.222
20165SOL    HW162392   1.080   8.919   3.131
20165SOL    HW262393   1.058   8.866   3.271
20166SOL     OW62394   1.195   4.625   0.718
20166SOL    HW162395   1.248   4.691   0.673
20166SOL    HW262396   1.161   4.670   0.796
20167SOL     OW62397   0.087   8.120  12.416
20167SOL    HW162398   0.016   8.095  12.476
20167SOL    HW262399   0.100   8.043  12.361
20168SOL     OW62400  13.867   2.730   0.467
20168SOL    HW162401  13.931   2.771   0.410
20168SOL    HW262402  13.793   2.791   0.469
20169SOL     OW62403   6.938  14.740   6.797
20169SOL    HW162404   6.886  14.735   6.877
20169SOL    HW262405   7.016  14.687   6.815
20170SOL     OW62406   3.087  11.250   8.202
20170SOL    HW162407   3.063  11.203   8.282
20170SOL    HW262408   3.034  11.329   8.204
20171SOL     OW62409  12.845  14.164   3.456
20171SOL    HW162410  12.773  14.146   3.517
20171SOL    HW262411  12.896  14.232   3.499
20172SOL     OW62412   5.446  11.077   9.834
20172SOL    HW162413   5.438  11.157   9.886
20172SOL    HW262414   5.489  11.105   9.753
20173SOL     OW62415   8.554  14.452   8.296
20173SOL    HW162416   8.628  14.394   8.276
20173SOL    HW262417   8.521  14.419   8.380
20174SOL     OW62418   9.163  14.383   0.633
20174SOL    HW162419   9.221  14.457   0.652
20174SOL    HW262420   9.173  14.368   0.539
20175SOL     OW62421   1.754   0.876   8.410
20175SOL    HW162422   1.688   0.834   8.465
20175SOL    HW262423   1.745   0.969   8.428
20176SOL     OW62424   0.460   3.064  10.164
20176SOL    HW162425   0.382   3.051  10.110
20176SOL    HW262426   0.529   3.014  10.119
20177SOL     OW62427   0.730   5.708   3.534
20177SOL    HW162428   0.817   5.733   3.503
20177SOL    HW262429   0.689   5.666   3.458
20178SOL     OW62430   5.209   5.798  12.908
20178SOL    HW162431   5.286   5.843  12.943
20178SOL    HW262432   5.246   5.728  12.854
20179SOL     OW62433  11.582   6.571  10.758
20179SOL    HW162434  11.530   6.583  10.837
20179SOL    HW262435  11.611   6.480  10.762
20180SOL     OW62436  12.827   5.670   2.143
20180SOL    HW162437  12.881   5.623   2.206
20180SOL    HW262438  12.877   5.749   2.121
20181SOL     OW62439  10.555  12.276   0.235
20181SOL    HW162440  10.580  12.330   0.311
20181SOL    HW262441  10.540  12.189   0.271
20182SOL     OW62442   2.377   6.006   3.430
20182SOL    HW162443   2.333   6.091   3.425
20182SOL    HW262444   2.469   6.028   3.446
20183SOL     OW62445   6.553  11.620  11.322
20183SOL    HW162446   6.596  11.706  11.328
20183SOL    HW262447   6.532  11.610  11.229
20184SOL     OW62448   0.331   4.931   9.231
20184SOL    HW162449   0.396   4.927   9.301
20184SOL    HW262450   0.382   4.937   9.150
20185SOL     OW62451   8.144   2.947   7.549
20185SOL    HW162452   8.210   3.017   7.548
20185SOL    HW262453   8.151   2.909   7.637
20186SOL     OW62454  14.619   5.392   5.831
20186SOL    HW162455  14.589   5.341   5.756
20186SOL    HW262456  14.709   5.364   5.845
20187SOL     OW62457   3.371   5.336  10.687
20187SOL    HW162458   3.361   5.295  10.601
20187SOL    HW262459   3.389   5.428  10.668
20188SOL     OW62460  14.667   4.062   0.987
20188SOL    HW162461  14.684   4.155   0.973
20188SOL    HW262462  14.594   4.059   1.048
20189SOL     OW62463   2.711   0.835   9.159
20189SOL    HW162464   2.702   0.804   9.249
20189SOL    HW262465   2.667   0.920   9.159
20190SOL     OW62466   2.997   8.725   0.647
20190SOL    HW162467   2.977   8.781   0.572
20190SOL    HW262468   2.932   8.748   0.713
20191SOL     OW62469   5.732   5.031  14.300
20191SOL    HW162470   5.649   5.056  14.260
20191SOL    HW262471   5.752   4.945  14.263
20192SOL     OW62472  10.302   5.338   8.323
20192SOL    HW162473  10.238   5.346   8.252
20192SOL    HW262474  10.362   5.412   8.310
20193SOL     OW62475  13.621  10.672   5.196
20193SOL    HW162476  13.578  10.639   5.275
20193SOL    HW262477  13.711  10.638   5.202
20194SOL     OW62478  10.926  11.957   6.947
20194SOL    HW162479  10.920  11.866   6.977
20194SOL    HW262480  11.006  11.990   6.988
20195SOL     OW62481   4.177  11.766   2.733
20195SOL    HW162482   4.123  11.801   2.662
20195SOL    HW262483   4.187  11.839   2.794
20196SOL     OW62484   1.495   0.908   2.770
20196SOL    HW162485   1.585   0.933   2.789
20196SOL    HW262486   1.498   0.878   2.679
20197SOL     OW62487  11.382  11.824   3.864
20197SOL    HW162488  11.450  11.758   3.849
20197SOL    HW262489  11.353  11.848   3.776
20198SOL     OW62490   2.691   6.630   1.673
20198SOL    HW162491   2.765   6.634   1.734
20198SOL    HW262492   2.650   6.545   1.690
20199SOL     OW62493   3.507   2.176   4.257
20199SOL    HW162494   3.495   2.107   4.193
20199SOL    HW262495   3.493   2.257   4.208
20200SOL     OW62496   8.357   9.569  10.741
20200SOL    HW162497   8.296   9.495  10.745
20200SOL    HW262498   8.333   9.615  10.660
20201SOL     OW62499   2.581   9.345   1.869
20201SOL    HW162500   2.550   9.275   1.928
20201SOL    HW262501   2.548   9.425   1.909
20202SOL     OW62502   3.669   2.130  13.563
20202SOL    HW162503   3.712   2.057  13.608
20202SOL    HW262504   3.616   2.088  13.495
20203SOL     OW62505   1.592  14.664   9.690
20203SOL    HW162506   1.643  14.660   9.609
20203SOL    HW262507   1.652  14.631   9.758
20204SOL     OW62508  12.417   4.846  10.940
20204SOL    HW162509  12.429   4.863  10.846
20204SOL    HW262510  12.334   4.889  10.961
20205SOL     OW62511   1.532  10.112  11.264
20205SOL    HW162512   1.574  10.156  11.190
20205SOL    HW262513   1.482  10.041  11.224
20206SOL     OW62514  12.784   2.827   3.558
20206SOL    HW162515  12.765   2.909   3.605
20206SOL    HW262516  12.752   2.758   3.617
20207SOL     OW62517   1.444   9.752   1.544
20207SOL    HW162518   1.505   9.826   1.543
20207SOL    HW262519   1.474   9.697   1.616
20208SOL     OW62520   6.998  10.140   1.227
20208SOL    HW162521   6.996  10.054   1.269
20208SOL    HW262522   6.912  10.148   1.186
20209SOL     OW62523  10.300   0.644  11.292
20209SOL    HW162524  10.248   0.680  11.220
20209SOL    HW262525  10.340   0.565  11.255
20210SOL     OW62526   4.876   9.895   9.764
20210SOL    HW162527   4.831   9.979   9.765
20210SOL    HW262528   4.883   9.872   9.671
20211SOL     OW62529   4.544   9.609   1.005
20211SOL    HW162530   4.457   9.570   1.012
20211SOL    HW262531   4.604   9.535   1.007
20212SOL     OW62532  13.258   2.187  12.072
20212SOL    HW162533  13.197   2.135  12.125
20212SOL    HW262534  13.202   2.232  12.009
20213SOL     OW62535   3.623   9.989   0.539
20213SOL    HW162536   3.628   9.988   0.444
20213SOL    HW262537   3.686   9.923   0.567
20214SOL     OW62538  14.555   9.053  11.098
20214SOL    HW162539  14.630   8.997  11.077
20214SOL    HW262540  14.552   9.116  11.026
20215SOL     OW62541   0.786   4.794   8.169
20215SOL    HW162542   0.834   4.740   8.107
20215SOL    HW262543   0.853   4.847   8.213
20216SOL     OW62544   3.811   5.882  12.871
20216SOL    HW162545   3.854   5.797  12.880
20216SOL    HW262546   3.828   5.927  12.954
20217SOL     OW62547  11.803   0.977   4.645
20217SOL    HW162548  11.832   0.929   4.722
20217SOL    HW262549  11.881   0.982   4.589
20218SOL     OW62550   7.973   5.068  11.716
20218SOL    HW162551   8.002   4.998  11.658
20218SOL    HW262552   7.882   5.046  11.737
20219SOL     OW62553   7.594  10.732   8.964
20219SOL    HW162554   7.535  10.679   9.018
20219SOL    HW262555   7.674  10.681   8.957
20220SOL     OW62556   2.938  13.096  13.704
20220SOL    HW162557   2.902  13.128  13.787
20220SOL    HW262558   2.970  13.175  13.660
20221SOL     OW62559  12.911   1.820  13.702
20221SOL    HW162560  12.965   1.771  13.765
20221SOL    HW262561  12.822   1.793  13.722
20222SOL     OW62562   8.670   9.793  13.405
20222SOL    HW162563   8.699   9.739  13.479
20222SOL    HW262564   8.604   9.851  13.443
20223SOL     OW62565  11.844   9.115   0.459
20223SOL    HW162566  11.905   9.151   0.524
20223SOL    HW262567  11.829   9.187   0.398
20224SOL     OW62568   1.459   2.705   5.604
20224SOL    HW162569   1.551   2.703   5.576
20224SOL    HW262570   1.455   2.778   5.665
20225SOL     OW62571   1.203  13.832  11.210
20225SOL    HW162572   1.197  13.845  11.115
20225SOL    HW262573   1.112  13.829  11.240
20226SOL     OW62574  10.929   5.560   8.897
20226SOL    HW162575  10.915   5.576   8.803
20226SOL    HW262576  10.909   5.644   8.939
20227SOL     OW62577   4.537   5.530  11.276
20227SOL    HW162578   4.623   5.501  11.244
20227SOL    HW262579   4.544   5.625  11.282
20228SOL     OW62580   5.895   9.750   0.214
20228SOL    HW162581   5.890   9.656   0.226
20228SOL    HW262582   5.974   9.763   0.160
20229SOL     OW62583   2.135  14.572  13.609
20229SOL    HW162584   2.227  14.600  13.610
20229SOL    HW262585   2.138  14.479  13.633
20230SOL     OW62586   3.245   3.628  11.429
20230SOL    HW162587   3.266   3.536  11.410
20230SOL    HW262588   3.216   3.664  11.345
20231SOL     OW62589   3.766   6.837  10.423
20231SOL    HW162590   3.740   6.916  10.470
20231SOL    HW262591   3.702   6.771  10.450
20232SOL     OW62592  13.655  13.566   3.528
20232SOL    HW162593  13.577  13.552   3.474
20232SOL    HW262594  13.697  13.642   3.489
20233SOL     OW62595   6.118  11.444   8.155
20233SOL    HW162596   6.090  11.530   8.187
20233SOL    HW262597   6.191  11.464   8.096
20234SOL     OW62598   2.948  12.393   2.435
20234SOL    HW162599   3.029  12.411   2.387
20234SOL    HW262600   2.974  12.331   2.504
20235SOL     OW62601   2.988  14.251   3.794
20235SOL    HW162602   2.928  14.294   3.855
20235SOL    HW262603   2.933  14.190   3.745
20236SOL     OW62604   0.591   7.215   5.331
20236SOL    HW162605   0.618   7.126   5.308
20236SOL    HW262606   0.524   7.204   5.399
20237SOL     OW62607   2.910  14.432  14.052
20237SOL    HW162608   2.937  14.340  14.060
20237SOL    HW262609   2.881  14.456  14.140
20238SOL     OW62610   6.788  12.207  10.506
20238SOL    HW162611   6.875  12.240  10.528
20238SOL    HW262612   6.789  12.116  10.534
20239SOL     OW62613  11.620  10.095   5.170
20239SOL    HW162614  11.689  10.127   5.111
20239SOL    HW262615  11.581  10.022   5.123
20240SOL     OW62616  14.466  14.128   7.868
20240SOL    HW162617  14.437  14.053   7.920
20240SOL    HW262618  14.540  14.164   7.917
20241SOL     OW62619   5.493   0.122  14.567
20241SOL    HW162620   5.405   0.086  14.577
20241SOL    HW262621   5.508   0.124  14.472
20242SOL     OW62622   4.833  12.979   7.688
20242SOL    HW162623   4.807  12.904   7.741
20242SOL    HW262624   4.883  12.942   7.616
20243SOL     OW62625  14.449  13.370   6.774
20243SOL    HW162626  14.374  13.428   6.785
20243SOL    HW262627  14.485  13.362   6.863
20244SOL     OW62628   9.343  13.622   9.491
20244SOL    HW162629   9.292  13.590   9.566
20244SOL    HW262630   9.314  13.568   9.418
20245SOL     OW62631  10.301  14.522   0.181
20245SOL    HW162632  10.382  14.567   0.159
20245SOL    HW262633  10.240  14.592   0.203
20246SOL     OW62634  12.238   5.939  10.766
20246SOL    HW162635  12.144   5.930  10.782
20246SOL    HW262636  12.279   5.881  10.830
20247SOL     OW62637   8.345   8.497   1.429
20247SOL    HW162638   8.441   8.488   1.426
20247SOL    HW262639   8.314   8.435   1.363
20248SOL     OW62640  13.404  12.510   2.613
20248SOL    HW162641  13.385  12.424   2.650
20248SOL    HW262642  13.319  12.541   2.579
20249SOL     OW62643   6.686   2.174   6.850
20249SOL    HW162644   6.632   2.096   6.862
20249SOL    HW262645   6.755   2.166   6.917
20250SOL     OW62646   1.986   3.635   5.639
20250SOL    HW162647   1.980   3.673   5.551
20250SOL    HW262648   2.069   3.588   5.640
20251SOL     OW62649  11.451   5.960   3.026
20251SOL    HW162650  11.394   5.935   3.099
20251SOL    HW262651  11.395   5.954   2.949
20252SOL     OW62652   7.941  10.676  10.566
20252SOL    HW162653   7.878  10.695  10.496
20252SOL    HW262654   8.026  10.674  10.522
20253SOL     OW62655  11.757  14.291   8.591
20253SOL    HW162656  11.842  14.309   8.550
20253SOL    HW262657  11.751  14.195   8.591
20254SOL     OW62658   8.137   4.683   0.310
20254SOL    HW162659   8.167   4.624   0.241
20254SOL    HW262660   8.042   4.671   0.312
20255SOL     OW62661   1.417  12.014   5.541
20255SOL    HW162662   1.502  12.050   5.568
20255SOL    HW262663   1.356  12.046   5.608
20256SOL     OW62664   5.647  11.008   9.195
20256SOL    HW162665   5.595  11.086   9.214
20256SOL    HW262666   5.611  10.974   9.113
20257SOL     OW62667   4.846   7.273   5.660
20257SOL    HW162668   4.810   7.190   5.692
20257SOL    HW262669   4.936   7.251   5.634
20258SOL     OW62670   5.144  13.262   6.613
20258SOL    HW162671   5.226  13.215   6.597
20258SOL    HW262672   5.116  13.233   6.699
20259SOL     OW62673  11.206   6.556   1.576
20259SOL    HW162674  11.215   6.477   1.522
20259SOL    HW262675  11.158   6.526   1.653
20260SOL     OW62676   2.272  14.374  10.639
20260SOL    HW162677   2.192  14.425  10.632
20260SOL    HW262678   2.255  14.295  10.589
20261SOL     OW62679   3.291  10.531   2.969
20261SOL    HW162680   3.295  10.451   2.915
20261SOL    HW262681   3.368  10.526   3.024
20262SOL     OW62682  10.459  14.670  11.178
20262SOL    HW162683  10.504  14.734  11.123
20262SOL    HW262684  10.448  14.594  11.121
20263SOL     OW62685   3.038   3.489  13.158
20263SOL    HW162686   3.034   3.522  13.068
20263SOL    HW262687   2.947   3.469  13.180
20264SOL     OW62688   8.640  13.675   6.172
20264SOL    HW162689   8.609  13.602   6.119
20264SOL    HW262690   8.713  13.711   6.123
20265SOL     OW62691   7.862   4.127   0.354
20265SOL    HW162692   7.832   4.212   0.321
20265SOL    HW262693   7.792   4.067   0.331
20266SOL     OW62694   6.725   5.053  12.729
20266SOL    HW162695   6.792   4.990  12.754
20266SOL    HW262696   6.768   5.138  12.735
20267SOL     OW62697   0.341  14.586  14.343
20267SOL    HW162698   0.352  14.622  14.254
20267SOL    HW262699   0.285  14.510  14.331
20268SOL     OW62700   3.469  14.141  10.454
20268SOL    HW162701   3.530  14.069  10.465
20268SOL    HW262702   3.401  14.125  10.520
20269SOL     OW62703  12.734  13.691   4.394
20269SOL    HW162704  12.823  13.675   4.423
20269SOL    HW262705  12.694  13.604   4.389
20270SOL     OW62706  10.216  12.963  13.097
20270SOL    HW162707  10.157  13.031  13.128
20270SOL    HW262708  10.268  12.940  13.174
20271SOL     OW62709   1.606   5.235   0.955
20271SOL    HW162710   1.541   5.183   1.001
20271SOL    HW262711   1.556   5.307   0.917
20272SOL     OW62712   8.792  12.155   5.516
20272SOL    HW162713   8.760  12.123   5.600
20272SOL    HW262714   8.883  12.124   5.511
20273SOL     OW62715   8.855   5.655   5.561
20273SOL    HW162716   8.837   5.725   5.498
20273SOL    HW262717   8.950   5.646   5.561
20274SOL     OW62718   0.574   5.648   0.467
20274SOL    HW162719   0.648   5.594   0.438
20274SOL    HW262720   0.509   5.639   0.397
20275SOL     OW62721   6.926  10.996   5.012
20275SOL    HW162722   6.937  10.916   5.064
20275SOL    HW262723   6.991  11.056   5.047
20276SOL     OW62724   0.213   4.476  13.681
20276SOL    HW162725   0.283   4.435  13.731
20276SOL    HW262726   0.163   4.403  13.645
20277SOL     OW62727   2.649   6.447   1.377
20277SOL    HW162728   2.683   6.451   1.466
20277SOL    HW262729   2.724   6.469   1.322
20278SOL     OW62730   0.941   4.238   8.886
20278SOL    HW162731   0.959   4.204   8.974
20278SOL    HW262732   0.890   4.168   8.844
20279SOL     OW62733   5.661   9.402   2.437
20279SOL    HW162734   5.691   9.444   2.357
20279SOL    HW262735   5.730   9.421   2.501
20280SOL     OW62736   1.501   1.230   1.113
20280SOL    HW162737   1.586   1.203   1.079
20280SOL    HW262738   1.441   1.160   1.087
20281SOL     OW62739   4.284  10.736   9.417
20281SOL    HW162740   4.223  10.807   9.438
20281SOL    HW262741   4.227  10.662   9.394
20282SOL     OW62742  10.872   2.360   1.981
20282SOL    HW162743  10.958   2.396   1.957
20282SOL    HW262744  10.811   2.432   1.966
20283SOL     OW62745   3.710  11.574   1.222
20283SOL    HW162746   3.708  11.576   1.317
20283SOL    HW262747   3.713  11.667   1.196
20284SOL     OW62748   5.975   8.838  12.015
20284SOL    HW162749   5.886   8.863  12.039
20284SOL    HW262750   5.965   8.795  11.930
20285SOL     OW62751   0.589   3.451   1.197
20285SOL    HW162752   0.505   3.438   1.241
20285SOL    HW262753   0.642   3.376   1.224
20286SOL     OW62754  10.775   4.175   1.283
20286SOL    HW162755  10.870   4.163   1.296
20286SOL    HW262756  10.746   4.221   1.362
20287SOL     OW62757   8.587   4.885   6.103
20287SOL    HW162758   8.643   4.861   6.030
20287SOL    HW262759   8.646   4.922   6.168
20288SOL     OW62760   4.257   4.765   5.202
20288SOL    HW162761   4.268   4.850   5.160
20288SOL    HW262762   4.306   4.772   5.284
20289SOL     OW62763   5.838   7.818  14.300
20289SOL    HW162764   5.920   7.868  14.298
20289SOL    HW262765   5.841   7.770  14.382
20290SOL     OW62766  13.074  11.453   8.602
20290SOL    HW162767  13.040  11.490   8.683
20290SOL    HW262768  13.015  11.380   8.582
20291SOL     OW62769   8.634   4.273  10.670
20291SOL    HW162770   8.572   4.285  10.742
20291SOL    HW262771   8.581   4.236  10.600
20292SOL     OW62772   3.216   5.291   4.960
20292SOL    HW162773   3.121   5.296   4.947
20292SOL    HW262774   3.228   5.297   5.054
20293SOL     OW62775   1.283   3.887   9.212
20293SOL    HW162776   1.300   3.799   9.248
20293SOL    HW262777   1.223   3.871   9.139
20294SOL     OW62778   5.895   0.412  13.137
20294SOL    HW162779   5.906   0.359  13.058
20294SOL    HW262780   5.894   0.502  13.106
20295SOL     OW62781   4.266  10.242   9.183
20295SOL    HW162782   4.182  10.275   9.213
20295SOL    HW262783   4.248  10.202   9.098
20296SOL     OW62784  13.914   5.152  13.132
20296SOL    HW162785  13.874   5.148  13.045
20296SOL    HW262786  14.001   5.112  13.120
20297SOL     OW62787  11.557   8.281   3.376
20297SOL    HW162788  11.573   8.316   3.463
20297SOL    HW262789  11.465   8.253   3.378
20298SOL     OW62790   5.213   5.929   8.476
20298SOL    HW162791   5.259   5.846   8.487
20298SOL    HW262792   5.133   5.919   8.528
20299SOL     OW62793   3.863   2.934  10.688
20299SOL    HW162794   3.819   2.995  10.746
20299SOL    HW262795   3.942   2.909  10.735
20300SOL     OW62796   0.212   3.097   8.837
20300SOL    HW162797   0.200   3.086   8.743
20300SOL    HW262798   0.143   3.044   8.877
20301SOL     OW62799  14.456   0.360   2.871
20301SOL    HW162800  14.419   0.444   2.898
20301SOL    HW262801  14.381   0.310   2.838
20302SOL     OW62802  14.507   8.813   3.528
20302SOL    HW162803  14.581   8.754   3.541
20302SOL    HW262804  14.545   8.900   3.529
20303SOL     OW62805   1.224  14.870  10.669
20303SOL    HW162806   1.295  14.806  10.667
20303SOL    HW262807   1.267   0.081  10.649
20304SOL     OW62808  11.473   8.898  10.851
20304SOL    HW162809  11.550   8.953  10.832
20304SOL    HW262810  11.487   8.819  10.799
20305SOL     OW62811   6.259   1.696   1.544
20305SOL    HW162812   6.309   1.742   1.611
20305SOL    HW262813   6.207   1.632   1.593
20306SOL     OW62814   1.413   7.364  12.324
20306SOL    HW162815   1.472   7.331  12.392
20306SOL    HW262816   1.353   7.291  12.307
20307SOL     OW62817   3.838  12.860   0.783
20307SOL    HW162818   3.846  12.956   0.786
20307SOL    HW262819   3.790  12.842   0.703
20308SOL     OW62820   9.524  13.375   4.666
20308SOL    HW162821   9.460  13.338   4.605
20308SOL    HW262822   9.538  13.464   4.634
20309SOL     OW62823  12.994  11.666   7.685
20309SOL    HW162824  12.984  11.694   7.776
20309SOL    HW262825  12.920  11.607   7.670
20310SOL     OW62826   0.003   1.109  10.026
20310SOL    HW162827   0.067   1.084  10.093
20310SOL    HW262828  14.858   1.027   9.979
20311SOL     OW62829   8.428   0.240  11.418
20311SOL    HW162830   8.434   0.324  11.373
20311SOL    HW262831   8.349   0.248  11.472
20312SOL     OW62832   1.725   0.733   0.554
20312SOL    HW162833   1.630   0.744   0.562
20312SOL    HW262834   1.760   0.782   0.628
20313SOL     OW62835   3.088   2.249   3.361
20313SOL    HW162836   3.080   2.159   3.330
20313SOL    HW262837   3.030   2.299   3.304
20314SOL     OW62838  13.272   4.251   2.983
20314SOL    HW162839  13.278   4.329   2.928
20314SOL    HW262840  13.244   4.182   2.924
20315SOL     OW62841   1.843   4.908   1.584
20315SOL    HW162842   1.785   4.962   1.638
20315SOL    HW262843   1.918   4.890   1.640
20316SOL     OW62844   5.552  12.796  11.627
20316SOL    HW162845   5.469  12.842  11.617
20316SOL    HW262846   5.529  12.703  11.625
20317SOL     OW62847   0.946   1.442   6.175
20317SOL    HW162848   0.979   1.478   6.257
20317SOL    HW262849   0.934   1.519   6.119
20318SOL     OW62850  14.157  13.479   1.183
20318SOL    HW162851  14.158  13.463   1.278
20318SOL    HW262852  14.197  13.566   1.173
20319SOL     OW62853  11.133   8.988  12.208
20319SOL    HW162854  11.186   8.990  12.288
20319SOL    HW262855  11.064   9.052  12.223
20320SOL     OW62856  13.270   0.982   1.544
20320SOL    HW162857  13.308   0.937   1.468
20320SOL    HW262858  13.343   0.988   1.606
20321SOL     OW62859   5.945   0.181  14.481
20321SOL    HW162860   5.874   0.208  14.541
20321SOL    HW262861   5.972   0.263  14.439
20322SOL     OW62862   4.533   5.830  12.458
20322SOL    HW162863   4.473   5.904  12.458
20322SOL    HW262864   4.584   5.840  12.538
20323SOL     OW62865   3.884   2.889   1.896
20323SOL    HW162866   3.972   2.923   1.882
20323SOL    HW262867   3.835   2.962   1.933
20324SOL     OW62868   7.492   4.145  11.687
20324SOL    HW162869   7.470   4.140  11.780
20324SOL    HW262870   7.528   4.059  11.666
20325SOL     OW62871  12.629   5.784   4.856
20325SOL    HW162872  12.545   5.790   4.902
20325SOL    HW262873  12.657   5.875   4.845
20326SOL     OW62874   7.816  11.244   4.919
20326SOL    HW162875   7.798  11.192   4.841
20326SOL    HW262876   7.735  11.241   4.970
20327SOL     OW62877  14.778  12.763   4.853
20327SOL    HW162878  14.861  12.731   4.816
20327SOL    HW262879  14.722  12.778   4.777
20328SOL     OW62880   8.974   2.856   2.361
20328SOL    HW162881   9.031   2.879   2.434
20328SOL    HW262882   8.888   2.841   2.401
20329SOL     OW62883  11.998   6.706  13.375
20329SOL    HW162884  11.965   6.703  13.465
20329SOL    HW262885  12.049   6.625  13.366
20330SOL     OW62886  12.391   2.389  13.989
20330SOL    HW162887  12.357   2.472  13.956
20330SOL    HW262888  12.475   2.378  13.944
20331SOL     OW62889   3.279  12.615  13.983
20331SOL    HW162890   3.218  12.555  14.025
20331SOL    HW262891   3.256  12.701  14.018
20332SOL     OW62892   9.219  14.236   0.884
20332SOL    HW162893   9.275  14.186   0.825
20332SOL    HW262894   9.173  14.298   0.827
20333SOL     OW62895   9.024  14.401   6.028
20333SOL    HW162896   9.057  14.346   5.956
20333SOL    HW262897   9.059  14.361   6.107
20334SOL     OW62898   1.438  13.702   1.827
20334SOL    HW162899   1.470  13.790   1.808
20334SOL    HW262900   1.365  13.689   1.766
20335SOL     OW62901   0.522  13.453  11.353
20335SOL    HW162902   0.615  13.444  11.375
20335SOL    HW262903   0.481  13.374  11.389
20336SOL     OW62904   7.686   0.196   3.265
20336SOL    HW162905   7.637   0.211   3.185
20336SOL    HW262906   7.725   0.281   3.286
20337SOL     OW62907  10.936   9.644   1.667
20337SOL    HW162908  10.882   9.648   1.746
20337SOL    HW262909  10.894   9.705   1.606
20338SOL     OW62910  10.406  11.917   6.899
20338SOL    HW162911  10.378  11.997   6.854
20338SOL    HW262912  10.488  11.941   6.941
20339SOL     OW62913  13.087  12.090  14.048
20339SOL    HW162914  13.178  12.075  14.024
20339SOL    HW262915  13.038  12.026  13.997
20340SOL     OW62916   1.644  10.698   8.021
20340SOL    HW162917   1.595  10.624   7.984
20340SOL    HW262918   1.629  10.769   7.958
20341SOL     OW62919  10.731   8.169   0.613
20341SOL    HW162920  10.821   8.138   0.625
20341SOL    HW262921  10.720   8.172   0.518
20342SOL     OW62922  14.674   7.748   4.897
20342SOL    HW162923  14.587   7.759   4.935
20342SOL    HW262924  14.722   7.827   4.925
20343SOL     OW62925   3.998   0.233  10.939
20343SOL    HW162926   4.080   0.276  10.962
20343SOL    HW262927   3.930   0.297  10.961
20344SOL     OW62928   3.434   6.270   9.779
20344SOL    HW162929   3.492   6.253   9.853
20344SOL    HW262930   3.481   6.235   9.703
20345SOL     OW62931  13.462  13.621   0.064
20345SOL    HW162932  13.452  13.679  14.861
20345SOL    HW262933  13.466  13.680   0.140
20346SOL     OW62934  12.706   1.092  14.786
20346SOL    HW162935  12.613   1.112  14.778
20346SOL    HW262936  12.738   1.154  14.852
20347SOL     OW62937   7.673   3.171   7.477
20347SOL    HW162938   7.753   3.147   7.430
20347SOL    HW262939   7.702   3.235   7.542
20348SOL     OW62940  14.707   5.572   0.949
20348SOL    HW162941  14.656   5.551   1.028
20348SOL    HW262942  14.641   5.581   0.880
20349SOL     OW62943   6.463   5.098   5.750
20349SOL    HW162944   6.385   5.106   5.804
20349SOL    HW262945   6.439   5.138   5.666
20350SOL     OW62946   0.644  10.604  10.018
20350SOL    HW162947   0.625  10.586  10.110
20350SOL    HW262948   0.588  10.679   9.997
20351SOL     OW62949   5.655   3.302   8.159
20351SOL    HW162950   5.587   3.336   8.218
20351SOL    HW262951   5.607   3.254   8.092
20352SOL     OW62952   5.387  14.033   9.401
20352SOL    HW162953   5.306  13.987   9.381
20352SOL    HW262954   5.359  14.123   9.420
20353SOL     OW62955   5.931   8.703   2.279
20353SOL    HW162956   5.873   8.647   2.330
20353SOL    HW262957   6.008   8.715   2.334
20354SOL     OW62958   9.367   8.723  14.360
20354SOL    HW162959   9.310   8.779  14.413
20354SOL    HW262960   9.406   8.662  14.423
20355SOL     OW62961   3.883   3.597  11.989
20355SOL    HW162962   3.918   3.599  12.078
20355SOL    HW262963   3.960   3.588  11.933
20356SOL     OW62964   5.530  10.542   9.436
20356SOL    HW162965   5.596  10.474   9.451
20356SOL    HW262966   5.457  10.518   9.493
20357SOL     OW62967   9.438  11.671   4.745
20357SOL    HW162968   9.415  11.702   4.833
20357SOL    HW262969   9.450  11.750   4.694
20358SOL     OW62970   1.505   9.235  10.858
20358SOL    HW162971   1.488   9.141  10.864
20358SOL    HW262972   1.428   9.275  10.898
20359SOL     OW62973   1.997   4.729  12.779
20359SOL    HW162974   1.981   4.635  12.785
20359SOL    HW262975   2.080   4.742  12.824
20360SOL     OW62976   8.140   4.623  14.427
20360SOL    HW162977   8.183   4.674  14.359
20360SOL    HW262978   8.207   4.562  14.458
20361SOL     OW62979   1.950  13.869  10.414
20361SOL    HW162980   2.005  13.836  10.343
20361SOL    HW262981   1.894  13.795  10.437
20362SOL     OW62982  11.774   4.375   2.429
20362SOL    HW162983  11.710   4.374   2.500
20362SOL    HW262984  11.859   4.370   2.474
20363SOL     OW62985   8.074   0.831   3.200
20363SOL    HW162986   7.984   0.829   3.233
20363SOL    HW262987   8.080   0.913   3.150
20364SOL     OW62988  10.459   1.244  10.216
20364SOL    HW162989  10.389   1.261  10.279
20364SOL    HW262990  10.499   1.162  10.244
20365SOL     OW62991  12.255   6.632  13.588
20365SOL    HW162992  12.307   6.692  13.641
20365SOL    HW262993  12.171   6.626  13.634
20366SOL     OW62994  11.103  10.853   4.477
20366SOL    HW162995  11.154  10.923   4.436
20366SOL    HW262996  11.156  10.826   4.552
20367SOL     OW62997   7.303   6.950   1.762
20367SOL    HW162998   7.271   6.954   1.853
20367SOL    HW262999   7.390   6.912   1.770
20368SOL     OW63000   4.282  11.136  12.593
20368SOL    HW163001   4.207  11.193  12.577
20368SOL    HW263002   4.353  11.174  12.541
20369SOL     OW63003   5.771   1.103   7.553
20369SOL    HW163004   5.781   1.017   7.592
20369SOL    HW263005   5.735   1.086   7.465
20370SOL     OW63006  14.038  14.003  13.658
20370SOL    HW163007  13.957  13.981  13.704
20370SOL    HW263008  14.014  14.078  13.603
20371SOL     OW63009   6.712   4.019   5.560
20371SOL    HW163010   6.790   4.074   5.565
20371SOL    HW263011   6.683   4.010   5.651
20372SOL     OW63012   5.570   1.911   4.065
20372SOL    HW163013   5.522   1.852   4.006
20372SOL    HW263014   5.645   1.859   4.094
20373SOL     OW63015  13.808  14.621   1.361
20373SOL    HW163016  13.860  14.658   1.433
20373SOL    HW263017  13.784  14.534   1.390
20374SOL     OW63018   0.500  12.338   0.163
20374SOL    HW163019   0.528  12.250   0.138
20374SOL    HW263020   0.406  12.339   0.149
20375SOL     OW63021   2.879   7.613   5.764
20375SOL    HW163022   2.866   7.705   5.789
20375SOL    HW263023   2.932   7.576   5.834
20376SOL     OW63024  14.829   1.543   7.475
20376SOL    HW163025  14.835   1.448   7.463
20376SOL    HW263026   0.043   1.576   7.449
20377SOL     OW63027  12.869   9.053   4.744
20377SOL    HW163028  12.962   9.075   4.739
20377SOL    HW263029  12.862   8.968   4.700
20378SOL     OW63030  14.041   4.860   0.262
20378SOL    HW163031  14.034   4.881   0.355
20378SOL    HW263032  14.136   4.857   0.245
20379SOL     OW63033  10.512   2.855   8.785
20379SOL    HW163034  10.442   2.843   8.721
20379SOL    HW263035  10.467   2.869   8.868
20380SOL     OW63036   7.393  11.200  10.091
20380SOL    HW163037   7.318  11.183  10.033
20380SOL    HW263038   7.401  11.121  10.144
20381SOL     OW63039   6.415   8.640  10.637
20381SOL    HW163040   6.380   8.707  10.579
20381SOL    HW263041   6.354   8.567  10.629
20382SOL     OW63042   8.167   5.458   3.141
20382SOL    HW163043   8.126   5.538   3.174
20382SOL    HW263044   8.114   5.387   3.177
20383SOL     OW63045   7.914   2.785   4.651
20383SOL    HW163046   7.839   2.811   4.597
20383SOL    HW263047   7.876   2.759   4.735
20384SOL     OW63048   1.810  13.246   9.369
20384SOL    HW163049   1.850  13.216   9.450
20384SOL    HW263050   1.761  13.170   9.337
20385SOL     OW63051   1.765   3.137  12.862
20385SOL    HW163052   1.735   3.046  12.859
20385SOL    HW263053   1.856   3.132  12.891
20386SOL     OW63054  14.164  12.827   1.741
20386SOL    HW163055  14.186  12.760   1.806
20386SOL    HW263056  14.073  12.849   1.759
20387SOL     OW63057   0.972  11.437   1.505
20387SOL    HW163058   1.025  11.515   1.523
20387SOL    HW263059   1.033  11.364   1.517
20388SOL     OW63060   6.141   0.521   8.259
20388SOL    HW163061   6.186   0.604   8.269
20388SOL    HW263062   6.211   0.456   8.258
20389SOL     OW63063   7.820  14.294   0.664
20389SOL    HW163064   7.791  14.357   0.730
20389SOL    HW263065   7.915  14.304   0.662
20390SOL     OW63066   3.356  10.509   1.983
20390SOL    HW163067   3.438  10.541   2.022
20390SOL    HW263068   3.378  10.421   1.952
20391SOL     OW63069   7.371  13.684  14.354
20391SOL    HW163070   7.303  13.688  14.287
20391SOL    HW263071   7.323  13.690  14.437
20392SOL     OW63072   8.415   5.590   4.446
20392SOL    HW163073   8.490   5.649   4.437
20392SOL    HW263074   8.451   5.502   4.435
20393SOL     OW63075   6.120   3.046  11.514
20393SOL    HW163076   6.145   3.119  11.571
20393SOL    HW263077   6.169   2.971  11.549
20394SOL     OW63078   9.528   8.498   4.060
20394SOL    HW163079   9.501   8.575   4.110
20394SOL    HW263080   9.584   8.448   4.120
20395SOL     OW63081   5.927   7.936   2.727
20395SOL    HW163082   5.855   7.879   2.704
20395SOL    HW263083   6.006   7.884   2.711
20396SOL     OW63084  11.550   3.286   5.977
20396SOL    HW163085  11.530   3.193   5.976
20396SOL    HW263086  11.620   3.296   6.041
20397SOL     OW63087   3.971  10.762   8.229
20397SOL    HW163088   3.972  10.857   8.222
20397SOL    HW263089   3.933  10.733   8.146
20398SOL     OW63090   8.442   9.950  12.413
20398SOL    HW163091   8.357   9.949  12.369
20398SOL    HW263092   8.422   9.966  12.505
20399SOL     OW63093   6.456  12.095   2.179
20399SOL    HW163094   6.508  12.091   2.099
20399SOL    HW263095   6.405  12.175   2.171
20400SOL     OW63096  11.097  12.504   9.052
20400SOL    HW163097  11.192  12.513   9.062
20400SOL    HW263098  11.079  12.413   9.074
20401SOL     OW63099  12.595   4.489   2.069
20401SOL    HW163100  12.660   4.424   2.097
20401SOL    HW263101  12.568   4.532   2.150
20402SOL     OW63102  13.076   1.052   2.534
20402SOL    HW163103  13.127   1.065   2.454
20402SOL    HW263104  13.067   1.139   2.571
20403SOL     OW63105   9.507   9.343  11.898
20403SOL    HW163106   9.428   9.382  11.936
20403SOL    HW263107   9.554   9.307  11.973
20404SOL     OW63108  12.739   0.065  13.170
20404SOL    HW163109  12.698  14.864  13.216
20404SOL    HW263110  12.781   0.117  13.239
20405SOL     OW63111   6.872   4.540   4.012
20405SOL    HW163112   6.829   4.457   4.029
20405SOL    HW263113   6.819   4.605   4.058
20406SOL     OW63114   6.965   8.902   1.257
20406SOL    HW163115   7.029   8.946   1.201
20406SOL    HW263116   6.999   8.813   1.268
20407SOL     OW63117  11.391  14.794   3.328
20407SOL    HW163118  11.303  14.769   3.299
20407SOL    HW263119  11.390   0.017   3.327
20408SOL     OW63120   5.284   8.956   5.041
20408SOL    HW163121   5.325   8.884   5.090
20408SOL    HW263122   5.248   9.013   5.109
20409SOL     OW63123   3.825   5.769   3.742
20409SOL    HW163124   3.825   5.863   3.725
20409SOL    HW263125   3.882   5.758   3.818
20410SOL     OW63126  13.309   1.535  11.679
20410SOL    HW163127  13.301   1.441  11.662
20410SOL    HW263128  13.375   1.541  11.748
20411SOL     OW63129   6.227   2.494  11.586
20411SOL    HW163130   6.302   2.509  11.643
20411SOL    HW263131   6.223   2.573  11.531
20412SOL     OW63132  12.126  11.794   6.617
20412SOL    HW163133  12.057  11.842   6.662
20412SOL    HW263134  12.080  11.741   6.552
20413SOL     OW63135   0.882   3.015  12.921
20413SOL    HW163136   0.796   2.990  12.888
20413SOL    HW263137   0.934   3.031  12.843
20414SOL     OW63138   3.817   5.254  14.221
20414SOL    HW163139   3.888   5.313  14.244
20414SOL    HW263140   3.737   5.304  14.239
20415SOL     OW63141   7.039  11.981   2.717
20415SOL    HW163142   7.044  11.886   2.726
20415SOL    HW263143   6.957  11.996   2.669
20416SOL     OW63144   3.484   3.229   8.192
20416SOL    HW163145   3.469   3.323   8.194
20416SOL    HW263146   3.545   3.214   8.265
20417SOL     OW63147   3.910  13.967   7.806
20417SOL    HW163148   3.904  13.944   7.899
20417SOL    HW263149   3.822  13.951   7.772
20418SOL     OW63150  11.610  13.878   2.649
20418SOL    HW163151  11.619  13.949   2.585
20418SOL    HW263152  11.607  13.922   2.733
20419SOL     OW63153   4.375   3.268  11.318
20419SOL    HW163154   4.373   3.340  11.255
20419SOL    HW263155   4.460   3.226  11.303
20420SOL     OW63156   2.602   9.708   1.551
20420SOL    HW163157   2.657   9.648   1.602
20420SOL    HW263158   2.635   9.700   1.462
20421SOL     OW63159   2.299   8.163   3.639
20421SOL    HW163160   2.362   8.191   3.573
20421SOL    HW263161   2.215   8.197   3.608
20422SOL     OW63162   7.574   4.698   5.152
20422SOL    HW163163   7.611   4.619   5.190
20422SOL    HW263164   7.479   4.685   5.158
20423SOL     OW63165   1.153  11.301   1.260
20423SOL    HW163166   1.085  11.290   1.193
20423SOL    HW263167   1.233  11.317   1.210
20424SOL     OW63168  14.522   5.935   5.839
20424SOL    HW163169  14.600   5.986   5.864
20424SOL    HW263170  14.555   5.846   5.829
20425SOL     OW63171   5.862  10.523   7.308
20425SOL    HW163172   5.919  10.546   7.236
20425SOL    HW263173   5.910  10.455   7.356
20426SOL     OW63174   5.218  13.174   7.505
20426SOL    HW163175   5.233  13.127   7.422
20426SOL    HW263176   5.135  13.219   7.492
20427SOL     OW63177  13.445  13.738   5.215
20427SOL    HW163178  13.397  13.657   5.234
20427SOL    HW263179  13.459  13.735   5.121
20428SOL     OW63180   7.727   1.103   2.837
20428SOL    HW163181   7.698   1.013   2.851
20428SOL    HW263182   7.789   1.097   2.764
20429SOL     OW63183   9.463  14.446   6.848
20429SOL    HW163184   9.499  14.408   6.928
20429SOL    HW263185   9.519  14.521   6.830
20430SOL     OW63186   9.399   4.322  10.116
20430SOL    HW163187   9.476   4.276  10.151
20430SOL    HW263188   9.405   4.307  10.021
20431SOL     OW63189   1.595  13.988   8.306
20431SOL    HW163190   1.676  13.950   8.272
20431SOL    HW263191   1.605  13.987   8.401
20432SOL     OW63192   4.213   8.069  10.652
20432SOL    HW163193   4.193   8.155  10.687
20432SOL    HW263194   4.158   8.008  10.701
20433SOL     OW63195  12.458  11.209   1.032
20433SOL    HW163196  12.485  11.267   1.103
20433SOL    HW263197  12.533  11.150   1.021
20434SOL     OW63198  14.598  11.956   9.236
20434SOL    HW163199  14.659  12.029   9.247
20434SOL    HW263200  14.653  11.878   9.243
20435SOL     OW63201   5.914   0.257   3.844
20435SOL    HW163202   5.900   0.240   3.751
20435SOL    HW263203   5.871   0.341   3.860
20436SOL     OW63204   2.551  11.155   3.609
20436SOL    HW163205   2.539  11.114   3.695
20436SOL    HW263206   2.636  11.123   3.579
20437SOL     OW63207  13.232   0.848  12.186
20437SOL    HW163208  13.266   0.833  12.098
20437SOL    HW263209  13.300   0.899  12.230
20438SOL     OW63210  13.755   9.386   2.430
20438SOL    HW163211  13.786   9.470   2.395
20438SOL    HW263212  13.828   9.326   2.416
20439SOL     OW63213  14.498   7.248  11.291
20439SOL    HW163214  14.451   7.248  11.207
20439SOL    HW263215  14.488   7.160  11.325
20440SOL     OW63216   9.608   5.018   1.035
20440SOL    HW163217   9.513   5.008   1.034
20440SOL    HW263218   9.642   4.929   1.045
20441SOL     OW63219   8.142   7.125   6.589
20441SOL    HW163220   8.208   7.101   6.524
20441SOL    HW263221   8.059   7.118   6.542
20442SOL     OW63222   3.902  11.487  14.488
20442SOL    HW163223   3.968  11.447  14.431
20442SOL    HW263224   3.823  11.435  14.474
20443SOL     OW63225  12.613  12.154   2.398
20443SOL    HW163226  12.519  12.174   2.404
20443SOL    HW263227  12.657  12.233   2.427
20444SOL     OW63228   3.173   3.882  13.852
20444SOL    HW163229   3.185   3.807  13.794
20444SOL    HW263230   3.093   3.864  13.900
20445SOL     OW63231   4.879  10.093  13.779
20445SOL    HW163232   4.910  10.181  13.801
20445SOL    HW263233   4.945  10.034  13.816
20446SOL     OW63234   3.717   5.819   6.693
20446SOL    HW163235   3.751   5.730   6.694
20446SOL    HW263236   3.732   5.850   6.604
20447SOL     OW63237   0.593  10.833   7.432
20447SOL    HW163238   0.524  10.772   7.407
20447SOL    HW263239   0.664  10.777   7.465
20448SOL     OW63240   2.812  11.030   9.846
20448SOL    HW163241   2.872  10.995   9.912
20448SOL    HW263242   2.870  11.064   9.777
20449SOL     OW63243  12.945   0.665  12.429
20449SOL    HW163244  12.957   0.748  12.383
20449SOL    HW263245  12.981   0.599  12.369
20450SOL     OW63246   1.410   5.667  11.310
20450SOL    HW163247   1.438   5.693  11.397
20450SOL    HW263248   1.449   5.731  11.251
20451SOL     OW63249   5.475   6.387   7.901
20451SOL    HW163250   5.497   6.455   7.837
20451SOL    HW263251   5.531   6.313   7.877
20452SOL     OW63252   3.365  13.676  12.711
20452SOL    HW163253   3.377  13.742  12.642
20452SOL    HW263254   3.360  13.593  12.665
20453SOL     OW63255   4.091   4.398   5.391
20453SOL    HW163256   4.112   4.335   5.321
20453SOL    HW263257   4.175   4.417   5.432
20454SOL     OW63258  10.563   3.581   1.903
20454SOL    HW163259  10.567   3.655   1.965
20454SOL    HW263260  10.486   3.598   1.850
20455SOL     OW63261   9.728   1.031  14.100
20455SOL    HW163262   9.728   0.953  14.045
20455SOL    HW263263   9.810   1.076  14.079
20456SOL     OW63264   8.490  12.287  14.558
20456SOL    HW163265   8.426  12.293  14.486
20456SOL    HW263266   8.456  12.218  14.614
20457SOL     OW63267   9.226  14.376   6.484
20457SOL    HW163268   9.299  14.390   6.423
20457SOL    HW263269   9.185  14.462   6.492
20458SOL     OW63270   2.400   6.949   1.719
20458SOL    HW163271   2.464   6.939   1.648
20458SOL    HW263272   2.396   6.863   1.761
20459SOL     OW63273  12.330   3.346   8.333
20459SOL    HW163274  12.272   3.309   8.399
20459SOL    HW263275  12.379   3.271   8.299
20460SOL     OW63276  12.004   6.620   3.596
20460SOL    HW163277  11.999   6.599   3.503
20460SOL    HW263278  11.927   6.675   3.611
20461SOL     OW63279   2.572  13.717  10.849
20461SOL    HW163280   2.486  13.677  10.864
20461SOL    HW263281   2.583  13.778  10.922
20462SOL     OW63282  10.225   0.882   0.380
20462SOL    HW163283  10.313   0.918   0.386
20462SOL    HW263284  10.206   0.877   0.286
20463SOL     OW63285   3.783  11.268   9.101
20463SOL    HW163286   3.835  11.189   9.085
20463SOL    HW263287   3.832  11.338   9.059
20464SOL     OW63288   7.455  10.965   4.655
20464SOL    HW163289   7.536  10.920   4.679
20464SOL    HW263290   7.405  10.970   4.736
20465SOL     OW63291  11.706  12.380   9.318
20465SOL    HW163292  11.704  12.393   9.413
20465SOL    HW263293  11.614  12.381   9.292
20466SOL     OW63294   2.769  13.018   2.563
20466SOL    HW163295   2.823  12.967   2.623
20466SOL    HW263296   2.684  12.974   2.565
20467SOL     OW63297   1.502   9.095   1.520
20467SOL    HW163298   1.501   9.159   1.591
20467SOL    HW263299   1.412   9.064   1.514
20468SOL     OW63300  14.080   3.448  13.371
20468SOL    HW163301  14.089   3.539  13.342
20468SOL    HW263302  14.019   3.408  13.309
20469SOL     OW63303   8.825   6.400   2.990
20469SOL    HW163304   8.837   6.307   3.008
20469SOL    HW263305   8.733   6.409   2.966
20470SOL     OW63306   6.501  13.455  14.329
20470SOL    HW163307   6.517  13.387  14.394
20470SOL    HW263308   6.493  13.408  14.246
20471SOL     OW63309  10.930   5.950   9.847
20471SOL    HW163310  10.992   5.953   9.920
20471SOL    HW263311  10.930   5.859   9.819
20472SOL     OW63312   3.166   4.839   7.759
20472SOL    HW163313   3.183   4.888   7.839
20472SOL    HW263314   3.203   4.894   7.690
20473SOL     OW63315   4.771  10.910  10.313
20473SOL    HW163316   4.685  10.924  10.274
20473SOL    HW263317   4.753  10.865  10.395
20474SOL     OW63318  11.915   5.976   3.645
20474SOL    HW163319  11.827   6.011   3.631
20474SOL    HW263320  11.901   5.885   3.671
20475SOL     OW63321  13.878  13.002   2.862
20475SOL    HW163322  13.899  13.075   2.804
20475SOL    HW263323  13.959  12.952   2.867
20476SOL     OW63324   2.004   1.349   5.040
20476SOL    HW163325   2.030   1.347   4.948
20476SOL    HW263326   1.926   1.293   5.044
20477SOL     OW63327  12.539  11.107  12.886
20477SOL    HW163328  12.579  11.061  12.812
20477SOL    HW263329  12.610  11.117  12.949
20478SOL     OW63330   7.124  13.998   0.592
20478SOL    HW163331   7.105  14.056   0.666
20478SOL    HW263332   7.142  14.058   0.519
20479SOL     OW63333   4.243   8.514   9.223
20479SOL    HW163334   4.288   8.536   9.141
20479SOL    HW263335   4.150   8.512   9.200
20480SOL     OW63336   2.503  13.132   3.811
20480SOL    HW163337   2.551  13.147   3.729
20480SOL    HW263338   2.484  13.038   3.811
20481SOL     OW63339  12.409   8.853   0.287
20481SOL    HW163340  12.317   8.851   0.261
20481SOL    HW263341  12.408   8.832   0.380
20482SOL     OW63342  10.852   9.007  12.387
20482SOL    HW163343  10.795   9.013  12.311
20482SOL    HW263344  10.818   8.934  12.438
20483SOL     OW63345   9.761   7.285   5.224
20483SOL    HW163346   9.804   7.252   5.303
20483SOL    HW263347   9.777   7.218   5.158
20484SOL     OW63348  14.757   5.958   9.095
20484SOL    HW163349  14.662   5.965   9.086
20484SOL    HW263350  14.791   6.033   9.047
20485SOL     OW63351   0.071   0.731   2.734
20485SOL    HW163352   0.022   0.651   2.716
20485SOL    HW263353   0.036   0.763   2.817
20486SOL     OW63354   0.177  10.140  14.471
20486SOL    HW163355   0.094  10.180  14.497
20486SOL    HW263356   0.204  10.089  14.547
20487SOL     OW63357   1.042   3.328  14.127
20487SOL    HW163358   1.024   3.356  14.038
20487SOL    HW263359   1.128   3.364  14.147
20488SOL     OW63360   4.657  10.606  10.141
20488SOL    HW163361   4.599  10.587  10.214
20488SOL    HW263362   4.611  10.673  10.091
20489SOL     OW63363   7.644  14.052  11.906
20489SOL    HW163364   7.667  14.024  11.995
20489SOL    HW263365   7.646  13.972  11.854
20490SOL     OW63366  10.489  14.468  13.748
20490SOL    HW163367  10.487  14.562  13.736
20490SOL    HW263368  10.552  14.436  13.683
20491SOL     OW63369  12.991   5.884  11.188
20491SOL    HW163370  12.930   5.822  11.146
20491SOL    HW263371  13.031   5.931  11.115
20492SOL     OW63372   8.460   4.478   1.884
20492SOL    HW163373   8.379   4.490   1.933
20492SOL    HW263374   8.489   4.567   1.863
20493SOL     OW63375  13.593   1.958   4.026
20493SOL    HW163376  13.513   1.932   4.073
20493SOL    HW263377  13.567   1.960   3.934
20494SOL     OW63378  11.941   3.001   4.003
20494SOL    HW163379  11.974   3.026   4.090
20494SOL    HW263380  11.883   3.073   3.978
20495SOL     OW63381   9.046  12.597  14.758
20495SOL    HW163382   9.084  12.653  14.690
20495SOL    HW263383   8.952  12.606  14.748
20496SOL     OW63384   2.187  13.286   2.312
20496SOL    HW163385   2.127  13.213   2.296
20496SOL    HW263386   2.170  13.347   2.241
20497SOL     OW63387   0.566   2.772   5.941
20497SOL    HW163388   0.488   2.720   5.960
20497SOL    HW263389   0.532   2.857   5.914
20498SOL     OW63390   3.634  12.322   6.767
20498SOL    HW163391   3.684  12.280   6.696
20498SOL    HW263392   3.561  12.262   6.783
20499SOL     OW63393  11.242   3.621   2.408
20499SOL    HW163394  11.266   3.539   2.452
20499SOL    HW263395  11.322   3.673   2.409
20500SOL     OW63396  13.255   1.373  11.156
20500SOL    HW163397  13.236   1.455  11.201
20500SOL    HW263398  13.334   1.339  11.199
20501SOL     OW63399   6.173   1.477   0.843
20501SOL    HW163400   6.182   1.573   0.839
20501SOL    HW263401   6.149   1.459   0.934
20502SOL     OW63402   3.896   4.205   6.137
20502SOL    HW163403   3.917   4.213   6.044
20502SOL    HW263404   3.963   4.258   6.181
20503SOL     OW63405  13.377   1.132   2.240
20503SOL    HW163406  13.283   1.123   2.254
20503SOL    HW263407  13.404   1.048   2.204
20504SOL     OW63408   9.352  13.366  12.021
20504SOL    HW163409   9.296  13.401  11.952
20504SOL    HW263410   9.335  13.271  12.019
20505SOL     OW63411   1.187  11.793   6.782
20505SOL    HW163412   1.210  11.700   6.774
20505SOL    HW263413   1.106  11.794   6.832
20506SOL     OW63414   4.145   9.101   9.503
20506SOL    HW163415   4.169   9.143   9.586
20506SOL    HW263416   4.058   9.134   9.484
20507SOL     OW63417   6.926   5.998  10.518
20507SOL    HW163418   6.930   5.967  10.609
20507SOL    HW263419   6.900   6.090  10.526
20508SOL     OW63420   3.388  14.788   8.679
20508SOL    HW163421   3.333  14.851   8.632
20508SOL    HW263422   3.398  14.825   8.766
20509SOL     OW63423   7.164   7.882  13.489
20509SOL    HW163424   7.239   7.941  13.494
20509SOL    HW263425   7.197   7.798  13.523
20510SOL     OW63426   7.670   3.308   4.673
20510SOL    HW163427   7.689   3.274   4.586
20510SOL    HW263428   7.590   3.359   4.663
20511SOL     OW63429   1.440   8.370   5.644
20511SOL    HW163430   1.515   8.339   5.694
20511SOL    HW263431   1.478   8.401   5.562
20512SOL     OW63432   7.562   8.413   2.062
20512SOL    HW163433   7.612   8.487   2.026
20512SOL    HW263434   7.585   8.411   2.155
20513SOL     OW63435   4.704   4.220   5.875
20513SOL    HW163436   4.653   4.277   5.818
20513SOL    HW263437   4.663   4.134   5.867
20514SOL     OW63438   8.162   1.549  14.466
20514SOL    HW163439   8.094   1.482  14.465
20514SOL    HW263440   8.159   1.586  14.554
20515SOL     OW63441   3.749   9.123   6.999
20515SOL    HW163442   3.694   9.147   7.074
20515SOL    HW263443   3.699   9.055   6.954
20516SOL     OW63444   9.196  13.120   3.607
20516SOL    HW163445   9.144  13.050   3.568
20516SOL    HW263446   9.265  13.138   3.543
20517SOL     OW63447   3.488   3.807   6.965
20517SOL    HW163448   3.429   3.868   6.921
20517SOL    HW263449   3.565   3.859   6.986
20518SOL     OW63450   3.159   8.529   0.540
20518SOL    HW163451   3.089   8.574   0.588
20518SOL    HW263452   3.115   8.493   0.463
20519SOL     OW63453  12.085   2.868   7.476
20519SOL    HW163454  12.136   2.947   7.497
20519SOL    HW263455  12.103   2.851   7.384
20520SOL     OW63456   7.561   7.819   5.984
20520SOL    HW163457   7.517   7.744   6.023
20520SOL    HW263458   7.528   7.894   6.033
20521SOL     OW63459   6.338   5.447   5.945
20521SOL    HW163460   6.358   5.395   5.867
20521SOL    HW263461   6.424   5.463   5.985
20522SOL     OW63462   5.010   1.560   3.505
20522SOL    HW163463   4.967   1.646   3.505
20522SOL    HW263464   4.981   1.519   3.424
20523SOL     OW63465   3.984   9.827   0.434
20523SOL    HW163466   3.977   9.882   0.356
20523SOL    HW263467   4.015   9.743   0.402
20524SOL     OW63468  12.971   5.113   8.641
20524SOL    HW163469  12.913   5.117   8.717
20524SOL    HW263470  13.028   5.038   8.658
20525SOL     OW63471   8.608   0.650   6.242
20525SOL    HW163472   8.520   0.687   6.247
20525SOL    HW263473   8.650   0.679   6.323
20526SOL     OW63474   8.425  14.471   5.425
20526SOL    HW163475   8.386  14.442   5.343
20526SOL    HW263476   8.395  14.408   5.490
20527SOL     OW63477  13.555  13.844   8.734
20527SOL    HW163478  13.492  13.897   8.685
20527SOL    HW263479  13.555  13.882   8.822
20528SOL     OW63480   9.835  11.492   1.847
20528SOL    HW163481   9.828  11.550   1.771
20528SOL    HW263482   9.925  11.459   1.844
20529SOL     OW63483  11.892  12.457  11.989
20529SOL    HW163484  11.845  12.466  12.072
20529SOL    HW263485  11.953  12.385  12.004
20530SOL     OW63486  14.388  11.498   0.271
20530SOL    HW163487  14.325  11.512   0.341
20530SOL    HW263488  14.473  11.518   0.311
20531SOL     OW63489   1.791   3.324   1.037
20531SOL    HW163490   1.787   3.325   0.942
20531SOL    HW263491   1.757   3.410   1.064
20532SOL     OW63492  13.421  10.701   0.269
20532SOL    HW163493  13.465  10.781   0.239
20532SOL    HW263494  13.440  10.698   0.363
20533SOL     OW63495   7.472   2.659   0.951
20533SOL    HW163496   7.553   2.672   1.000
20533SOL    HW263497   7.402   2.676   1.015
20534SOL     OW63498   5.323   1.646   4.102
20534SOL    HW163499   5.231   1.665   4.121
20534SOL    HW263500   5.332   1.553   4.122
20535SOL     OW63501   6.431   4.547   7.668
20535SOL    HW163502   6.523   4.562   7.689
20535SOL    HW263503   6.383   4.600   7.732
20536SOL     OW63504  13.384  12.791  11.845
20536SOL    HW163505  13.477  12.779  11.828
20536SOL    HW263506  13.375  12.882  11.874
20537SOL     OW63507   6.986  12.816  11.699
20537SOL    HW163508   7.041  12.871  11.755
20537SOL    HW263509   6.897  12.842  11.721
20538SOL     OW63510   8.561   1.374   6.316
20538SOL    HW163511   8.646   1.414   6.294
20538SOL    HW263512   8.551   1.391   6.409
20539SOL     OW63513  13.069   4.116   7.419
20539SOL    HW163514  13.059   4.094   7.326
20539SOL    HW263515  13.161   4.095   7.439
20540SOL     OW63516   9.882   5.908   8.818
20540SOL    HW163517   9.922   5.953   8.892
20540SOL    HW263518   9.853   5.823   8.853
20541SOL     OW63519   6.562   6.378  13.006
20541SOL    HW163520   6.578   6.328  13.086
20541SOL    HW263521   6.648   6.405  12.976
20542SOL     OW63522  11.774  14.300   5.952
20542SOL    HW163523  11.816  14.384   5.969
20542SOL    HW263524  11.719  14.285   6.029
20543SOL     OW63525   8.824   6.382  12.742
20543SOL    HW163526   8.772   6.426  12.810
20543SOL    HW263527   8.758   6.340  12.686
20544SOL     OW63528  14.576   5.224   6.345
20544SOL    HW163529  14.506   5.287   6.326
20544SOL    HW263530  14.652   5.278   6.363
20545SOL     OW63531  10.747   3.835  12.683
20545SOL    HW163532  10.662   3.825  12.640
20545SOL    HW263533  10.725   3.850  12.775
20546SOL     OW63534   8.628   5.898  10.905
20546SOL    HW163535   8.722   5.901  10.923
20546SOL    HW263536   8.606   5.805  10.909
20547SOL     OW63537  12.955  11.134   0.082
20547SOL    HW163538  12.909  11.095   0.008
20547SOL    HW263539  12.919  11.088   0.159
20548SOL     OW63540   3.722  12.483  11.457
20548SOL    HW163541   3.746  12.537  11.533
20548SOL    HW263542   3.685  12.403  11.495
20549SOL     OW63543   1.587   6.691   8.806
20549SOL    HW163544   1.530   6.703   8.882
20549SOL    HW263545   1.573   6.768   8.752
20550SOL     OW63546   1.628   8.309   2.721
20550SOL    HW163547   1.568   8.273   2.655
20550SOL    HW263548   1.571   8.340   2.791
20551SOL     OW63549  13.282   2.631  11.562
20551SOL    HW163550  13.378   2.626  11.568
20551SOL    HW263551  13.254   2.540  11.577
20552SOL     OW63552   5.112   8.127  11.026
20552SOL    HW163553   5.088   8.116  11.118
20552SOL    HW263554   5.207   8.138  11.027
20553SOL     OW63555   4.222   7.161   8.208
20553SOL    HW163556   4.276   7.233   8.176
20553SOL    HW263557   4.225   7.096   8.138
20554SOL     OW63558   1.022  11.447  12.748
20554SOL    HW163559   1.017  11.541  12.764
20554SOL    HW263560   0.930  11.420  12.738
20555SOL     OW63561   8.799  12.325   2.856
20555SOL    HW163562   8.741  12.298   2.927
20555SOL    HW263563   8.776  12.267   2.783
20556SOL     OW63564   2.689  14.244   9.583
20556SOL    HW163565   2.597  14.271   9.582
20556SOL    HW263566   2.737  14.323   9.607
20557SOL     OW63567   8.594   9.486   9.883
20557SOL    HW163568   8.521   9.471   9.822
20557SOL    HW263569   8.637   9.401   9.890
20558SOL     OW63570  10.204   5.879   7.528
20558SOL    HW163571  10.239   5.874   7.617
20558SOL    HW263572  10.190   5.788   7.503
20559SOL     OW63573   1.864   3.374   1.708
20559SOL    HW163574   1.955   3.384   1.735
20559SOL    HW263575   1.863   3.292   1.659
20560SOL     OW63576   3.856  13.555   1.695
20560SOL    HW163577   3.952  13.560   1.695
20560SOL    HW263578   3.829  13.617   1.761
20561SOL     OW63579   6.749  14.554   7.461
20561SOL    HW163580   6.791  14.487   7.407
20561SOL    HW263581   6.798  14.634   7.440
20562SOL     OW63582   5.477  14.815   7.429
20562SOL    HW163583   5.387  14.840   7.451
20562SOL    HW263584   5.507  14.768   7.506
20563SOL     OW63585   4.390   7.502   8.812
20563SOL    HW163586   4.351   7.501   8.724
20563SOL    HW263587   4.316   7.519   8.871
20564SOL     OW63588   8.403   4.389   1.379
20564SOL    HW163589   8.333   4.448   1.409
20564SOL    HW263590   8.443   4.356   1.460
20565SOL     OW63591   6.668   1.723   6.064
20565SOL    HW163592   6.687   1.669   6.142
20565SOL    HW263593   6.718   1.681   5.994
20566SOL     OW63594   3.994  14.796   5.963
20566SOL    HW163595   3.948  14.819   6.044
20566SOL    HW263596   4.007   0.008   5.919
20567SOL     OW63597  13.983  14.314   3.024
20567SOL    HW163598  13.982  14.221   3.002
20567SOL    HW263599  13.928  14.356   2.957
20568SOL     OW63600   7.540  12.562   3.127
20568SOL    HW163601   7.568  12.649   3.096
20568SOL    HW263602   7.599  12.501   3.083
20569SOL     OW63603   6.641   2.754  11.087
20569SOL    HW163604   6.546   2.763  11.084
20569SOL    HW263605   6.673   2.841  11.111
20570SOL     OW63606  13.180   5.033  14.510
20570SOL    HW163607  13.250   4.967  14.521
20570SOL    HW263608  13.124   5.020  14.586
20571SOL     OW63609   0.531  11.375  10.111
20571SOL    HW163610   0.575  11.460  10.104
20571SOL    HW263611   0.474  11.372  10.033
20572SOL     OW63612  10.011   5.159   6.903
20572SOL    HW163613  10.046   5.070   6.892
20572SOL    HW263614  10.087   5.216   6.891
20573SOL     OW63615  14.404  11.359   6.390
20573SOL    HW163616  14.406  11.369   6.294
20573SOL    HW263617  14.313  11.336   6.410
20574SOL     OW63618  13.513  13.302   9.337
20574SOL    HW163619  13.503  13.279   9.244
20574SOL    HW263620  13.602  13.276   9.359
20575SOL     OW63621   1.250   5.345   4.112
20575SOL    HW163622   1.273   5.386   4.195
20575SOL    HW263623   1.299   5.262   4.111
20576SOL     OW63624  11.554   7.277  12.968
20576SOL    HW163625  11.470   7.323  12.966
20576SOL    HW263626  11.541   7.205  13.030
20577SOL     OW63627   9.660   5.205   9.930
20577SOL    HW163628   9.613   5.124   9.948
20577SOL    HW263629   9.718   5.183   9.858
20578SOL     OW63630   3.438  13.756   7.164
20578SOL    HW163631   3.436  13.851   7.164
20578SOL    HW263632   3.355  13.730   7.204
20579SOL     OW63633   7.656   0.672   1.435
20579SOL    HW163634   7.624   0.617   1.506
20579SOL    HW263635   7.599   0.650   1.361
20580SOL     OW63636   9.606   7.024  13.992
20580SOL    HW163637   9.570   6.980  13.915
20580SOL    HW263638   9.600   7.117  13.971
20581SOL     OW63639  10.257  11.486   3.261
20581SOL    HW163640  10.266  11.555   3.327
20581SOL    HW263641  10.196  11.424   3.300
20582SOL     OW63642   8.945   8.452   3.514
20582SOL    HW163643   8.853   8.436   3.535
20582SOL    HW263644   8.944   8.525   3.453
20583SOL     OW63645   9.709  11.156   6.555
20583SOL    HW163646   9.794  11.194   6.532
20583SOL    HW263647   9.689  11.097   6.482
20584SOL     OW63648  11.707  11.307   7.544
20584SOL    HW163649  11.797  11.281   7.566
20584SOL    HW263650  11.682  11.369   7.612
20585SOL     OW63651   8.372  10.154  11.770
20585SOL    HW163652   8.303  10.092  11.793
20585SOL    HW263653   8.415  10.114  11.694
20586SOL     OW63654  12.684  12.610  12.471
20586SOL    HW163655  12.686  12.684  12.531
20586SOL    HW263656  12.767  12.563  12.487
20587SOL     OW63657   7.304  11.806   0.617
20587SOL    HW163658   7.231  11.745   0.622
20587SOL    HW263659   7.267  11.891   0.643
20588SOL     OW63660  10.624   7.181   0.657
20588SOL    HW163661  10.552   7.206   0.716
20588SOL    HW263662  10.637   7.087   0.675
20589SOL     OW63663  12.136   3.123   0.166
20589SOL    HW163664  12.084   3.058   0.119
20589SOL    HW263665  12.085   3.204   0.160
20590SOL     OW63666   6.030   3.247   5.580
20590SOL    HW163667   6.037   3.306   5.656
20590SOL    HW263668   5.965   3.288   5.524
20591SOL     OW63669   9.392   9.089   3.491
20591SOL    HW163670   9.324   9.021   3.487
20591SOL    HW263671   9.354   9.158   3.544
20592SOL     OW63672   2.388  14.421   5.534
20592SOL    HW163673   2.352  14.510   5.529
20592SOL    HW263674   2.359  14.388   5.619
20593SOL     OW63675   8.816   6.333   5.199
20593SOL    HW163676   8.811   6.404   5.135
20593SOL    HW263677   8.736   6.282   5.185
20594SOL     OW63678   6.597  11.734   0.116
20594SOL    HW163679   6.660  11.806   0.113
20594SOL    HW263680   6.511  11.776   0.122
20595SOL     OW63681   2.841   3.415  11.471
20595SOL    HW163682   2.849   3.389  11.563
20595SOL    HW263683   2.917   3.376  11.429
20596SOL     OW63684   7.412  11.978   9.379
20596SOL    HW163685   7.389  11.992   9.471
20596SOL    HW263686   7.435  12.065   9.347
20597SOL     OW63687   2.257   9.682  10.889
20597SOL    HW163688   2.181   9.637  10.926
20597SOL    HW263689   2.234   9.775  10.892
20598SOL     OW63690   7.580   0.551   5.882
20598SOL    HW163691   7.589   0.617   5.813
20598SOL    HW263692   7.556   0.601   5.960
20599SOL     OW63693   6.831   5.952   3.139
20599SOL    HW163694   6.872   6.038   3.135
20599SOL    HW263695   6.812   5.939   3.232
20600SOL     OW63696   5.222   9.603   9.035
20600SOL    HW163697   5.244   9.512   9.014
20600SOL    HW263698   5.224   9.649   8.951
20601SOL     OW63699  12.925   1.224   3.858
20601SOL    HW163700  12.842   1.268   3.877
20601SOL    HW263701  12.927   1.150   3.919
20602SOL     OW63702   9.175  12.709   6.208
20602SOL    HW163703   9.235  12.683   6.278
20602SOL    HW263704   9.139  12.626   6.175
20603SOL     OW63705  10.231   3.676  14.319
20603SOL    HW163706  10.145   3.703  14.287
20603SOL    HW263707  10.212   3.623  14.396
20604SOL     OW63708   3.237   9.095   8.257
20604SOL    HW163709   3.237   9.059   8.345
20604SOL    HW263710   3.290   9.175   8.263
20605SOL     OW63711  14.200   9.505   8.423
20605SOL    HW163712  14.152   9.424   8.410
20605SOL    HW263713  14.201   9.546   8.337
20606SOL     OW63714   4.894  11.803  12.138
20606SOL    HW163715   4.801  11.804  12.115
20606SOL    HW263716   4.909  11.714  12.171
20607SOL     OW63717   3.938   6.794  10.207
20607SOL    HW163718   3.853   6.773  10.244
20607SOL    HW263719   3.956   6.884  10.237
20608SOL     OW63720   4.374  10.825  14.218
20608SOL    HW163721   4.413  10.912  14.211
20608SOL    HW263722   4.402  10.779  14.139
20609SOL     OW63723   6.964  10.016   7.477
20609SOL    HW163724   6.924   9.963   7.408
20609SOL    HW263725   6.988   9.953   7.545
20610SOL     OW63726   2.765  13.464   0.915
20610SOL    HW163727   2.777  13.373   0.942
20610SOL    HW263728   2.854  13.499   0.908
20611SOL     OW63729   2.575   8.605  12.804
20611SOL    HW163730   2.643   8.622  12.739
20611SOL    HW263731   2.621   8.568  12.879
20612SOL     OW63732   2.386   0.592   9.628
20612SOL    HW163733   2.309   0.544   9.656
20612SOL    HW263734   2.403   0.563   9.539
20613SOL     OW63735   3.829  12.865   3.303
20613SOL    HW163736   3.910  12.825   3.337
20613SOL    HW263737   3.762  12.838   3.365
20614SOL     OW63738   4.788   9.110   1.648
20614SOL    HW163739   4.709   9.142   1.689
20614SOL    HW263740   4.859   9.144   1.702
20615SOL     OW63741  11.808  12.086  11.856
20615SOL    HW163742  11.843  12.050  11.938
20615SOL    HW263743  11.880  12.077  11.793
20616SOL     OW63744   4.875  10.789  14.142
20616SOL    HW163745   4.906  10.871  14.181
20616SOL    HW263746   4.820  10.750  14.209
20617SOL     OW63747   5.236  14.066   6.880
20617SOL    HW163748   5.269  14.050   6.968
20617SOL    HW263749   5.302  14.122   6.839
20618SOL     OW63750  14.568  12.356   6.532
20618SOL    HW163751  14.574  12.424   6.465
20618SOL    HW263752  14.534  12.401   6.610
20619SOL     OW63753   6.119   7.966   0.871
20619SOL    HW163754   6.121   8.015   0.788
20619SOL    HW263755   6.030   7.931   0.875
20620SOL     OW63756   8.761  12.644   8.104
20620SOL    HW163757   8.729  12.582   8.038
20620SOL    HW263758   8.856  12.633   8.103
20621SOL     OW63759   8.343   1.734  12.281
20621SOL    HW163760   8.292   1.653  12.290
20621SOL    HW263761   8.411   1.713  12.217
20622SOL     OW63762  11.388  11.846   3.223
20622SOL    HW163763  11.463  11.805   3.266
20622SOL    HW263764  11.427  11.914   3.168
20623SOL     OW63765  14.776   0.409  11.958
20623SOL    HW163766  14.856   0.357  11.952
20623SOL    HW263767  14.768   0.452  11.873
20624SOL     OW63768   4.506   5.064   5.898
20624SOL    HW163769   4.525   5.158   5.906
20624SOL    HW263770   4.456   5.044   5.977
20625SOL     OW63771   4.170   2.334   5.776
20625SOL    HW163772   4.233   2.332   5.849
20625SOL    HW263773   4.134   2.245   5.774
20626SOL     OW63774   0.462  12.309   9.126
20626SOL    HW163775   0.492  12.309   9.217
20626SOL    HW263776   0.367  12.319   9.132
20627SOL     OW63777   0.593  13.906   6.788
20627SOL    HW163778   0.581  13.969   6.860
20627SOL    HW263779   0.573  13.956   6.709
20628SOL     OW63780   1.682  10.845   9.065
20628SOL    HW163781   1.592  10.852   9.096
20628SOL    HW263782   1.679  10.779   8.996
20629SOL     OW63783   9.056   2.816   6.932
20629SOL    HW163784   9.076   2.831   7.024
20629SOL    HW263785   8.981   2.873   6.914
20630SOL     OW63786   2.232   8.416   5.350
20630SOL    HW163787   2.326   8.419   5.364
20630SOL    HW263788   2.198   8.492   5.398
20631SOL     OW63789   0.822  11.640  11.483
20631SOL    HW163790   0.903  11.640  11.433
20631SOL    HW263791   0.775  11.717  11.452
20632SOL     OW63792   1.990  13.182  13.041
20632SOL    HW163793   1.949  13.268  13.030
20632SOL    HW263794   2.074  13.190  12.997
20633SOL     OW63795  12.254   3.515   5.754
20633SOL    HW163796  12.185   3.490   5.816
20633SOL    HW263797  12.245   3.454   5.682
20634SOL     OW63798  12.729  10.776   2.268
20634SOL    HW163799  12.820  10.805   2.278
20634SOL    HW263800  12.681  10.856   2.246
20635SOL     OW63801   6.825  13.529   3.384
20635SOL    HW163802   6.855  13.500   3.298
20635SOL    HW263803   6.830  13.450   3.438
20636SOL     OW63804   2.998   0.072  12.474
20636SOL    HW163805   3.036   0.101  12.557
20636SOL    HW263806   2.904   0.072  12.490
20637SOL     OW63807  12.646  10.036   5.178
20637SOL    HW163808  12.682   9.959   5.223
20637SOL    HW263809  12.720  10.069   5.127
20638SOL     OW63810   8.921  13.718   8.959
20638SOL    HW163811   9.006  13.708   9.001
20638SOL    HW263812   8.941  13.733   8.867
20639SOL     OW63813  13.750   8.418   2.925
20639SOL    HW163814  13.704   8.487   2.877
20639SOL    HW263815  13.835   8.411   2.881
20640SOL     OW63816   6.907  11.326   6.350
20640SOL    HW163817   6.954  11.403   6.317
20640SOL    HW263818   6.969  11.254   6.340
20641SOL     OW63819   7.700  13.623  12.836
20641SOL    HW163820   7.777  13.677  12.850
20641SOL    HW263821   7.726  13.536  12.865
20642SOL     OW63822  10.615   8.278   4.620
20642SOL    HW163823  10.708   8.260   4.630
20642SOL    HW263824  10.581   8.205   4.568
20643SOL     OW63825   3.606   5.898   5.545
20643SOL    HW163826   3.675   5.870   5.606
20643SOL    HW263827   3.583   5.986   5.575
20644SOL     OW63828  11.350  14.244   2.365
20644SOL    HW163829  11.338  14.336   2.341
20644SOL    HW263830  11.360  14.198   2.281
20645SOL     OW63831   5.009   3.649  14.073
20645SOL    HW163832   4.924   3.676  14.039
20645SOL    HW263833   5.070   3.666  14.002
20646SOL     OW63834  13.892  11.650   1.536
20646SOL    HW163835  13.980  11.653   1.573
20646SOL    HW263836  13.903  11.604   1.452
20647SOL     OW63837  12.790  14.178  11.445
20647SOL    HW163838  12.784  14.104  11.385
20647SOL    HW263839  12.791  14.138  11.532
20648SOL     OW63840   3.791   3.550  13.571
20648SOL    HW163841   3.842   3.498  13.509
20648SOL    HW263842   3.767   3.489  13.640
20649SOL     OW63843   4.489   5.375   2.696
20649SOL    HW163844   4.494   5.328   2.779
20649SOL    HW263845   4.486   5.307   2.630
20650SOL     OW63846   9.591   0.450   5.116
20650SOL    HW163847   9.655   0.514   5.146
20650SOL    HW263848   9.535   0.497   5.056
20651SOL     OW63849  10.970   2.995   3.410
20651SOL    HW163850  10.977   3.090   3.397
20651SOL    HW263851  10.923   2.986   3.492
20652SOL     OW63852  14.183   8.209  13.662
20652SOL    HW163853  14.150   8.131  13.617
20652SOL    HW263854  14.276   8.211  13.640
20653SOL     OW63855   1.902   5.922   0.076
20653SOL    HW163856   1.819   5.900   0.032
20653SOL    HW263857   1.956   5.960   0.007
20654SOL     OW63858   2.754   4.516  14.082
20654SOL    HW163859   2.818   4.516  14.153
20654SOL    HW263860   2.765   4.600  14.039
20655SOL     OW63861   1.330  11.185  10.911
20655SOL    HW163862   1.249  11.153  10.872
20655SOL    HW263863   1.307  11.205  11.002
20656SOL     OW63864  12.352   1.889   9.072
20656SOL    HW163865  12.345   1.928   9.159
20656SOL    HW263866  12.271   1.840   9.061
20657SOL     OW63867   9.954  10.933  14.855
20657SOL    HW163868   9.944  11.028  14.845
20657SOL    HW263869  10.037  10.913  14.812
20658SOL     OW63870   7.548  14.428   2.601
20658SOL    HW163871   7.491  14.426   2.524
20658SOL    HW263872   7.556  14.521   2.622
20659SOL     OW63873  14.667   7.332  13.156
20659SOL    HW163874  14.599   7.389  13.193
20659SOL    HW263875  14.688   7.373  13.072
20660SOL     OW63876   7.931  12.174   4.110
20660SOL    HW163877   7.891  12.144   4.192
20660SOL    HW263878   7.979  12.098   4.078
20661SOL     OW63879   3.093  12.557   3.061
20661SOL    HW163880   3.078  12.495   2.990
20661SOL    HW263881   3.031  12.628   3.045
20662SOL     OW63882   2.008   0.790  10.112
20662SOL    HW163883   2.008   0.868  10.167
20662SOL    HW263884   2.049   0.817  10.031
20663SOL     OW63885   7.184  14.786   5.600
20663SOL    HW163886   7.107  14.813   5.650
20663SOL    HW263887   7.156  14.707   5.553
20664SOL     OW63888  12.637   6.227   2.072
20664SOL    HW163889  12.590   6.280   2.137
20664SOL    HW263890  12.575   6.217   2.000
20665SOL     OW63891   3.470  12.288   0.479
20665SOL    HW163892   3.514  12.347   0.417
20665SOL    HW263893   3.517  12.205   0.471
20666SOL     OW63894   9.306   8.220  13.296
20666SOL    HW163895   9.219   8.195  13.328
20666SOL    HW263896   9.358   8.140  13.304
20667SOL     OW63897   2.047  14.411  11.968
20667SOL    HW163898   2.075  14.321  11.984
20667SOL    HW263899   2.084  14.461  12.041
20668SOL     OW63900   2.583   2.855  12.219
20668SOL    HW163901   2.666   2.816  12.194
20668SOL    HW263902   2.572   2.832  12.312
20669SOL     OW63903  11.350   6.357  14.036
20669SOL    HW163904  11.263   6.321  14.019
20669SOL    HW263905  11.360   6.353  14.131
20670SOL     OW63906   2.654   2.568   6.848
20670SOL    HW163907   2.630   2.600   6.761
20670SOL    HW263908   2.741   2.604   6.864
20671SOL     OW63909   5.274   4.524   6.522
20671SOL    HW163910   5.339   4.503   6.589
20671SOL    HW263911   5.217   4.447   6.520
20672SOL     OW63912   0.208   3.338   4.964
20672SOL    HW163913   0.140   3.403   4.979
20672SOL    HW263914   0.264   3.343   5.041
20673SOL     OW63915  13.391  13.337   5.875
20673SOL    HW163916  13.298  13.332   5.855
20673SOL    HW263917  13.416  13.247   5.897
20674SOL     OW63918  12.482   8.794   1.166
20674SOL    HW163919  12.548   8.855   1.133
20674SOL    HW263920  12.460   8.827   1.253
20675SOL     OW63921   6.422   8.161   7.676
20675SOL    HW163922   6.463   8.130   7.594
20675SOL    HW263923   6.368   8.087   7.704
20676SOL     OW63924   7.441   0.154   8.229
20676SOL    HW163925   7.369   0.183   8.286
20676SOL    HW263926   7.498   0.104   8.288
20677SOL     OW63927   4.281  12.765  12.966
20677SOL    HW163928   4.280  12.752  12.871
20677SOL    HW263929   4.371  12.790  12.986
20678SOL     OW63930   1.378   4.865   0.782
20678SOL    HW163931   1.438   4.930   0.744
20678SOL    HW263932   1.313   4.918   0.829
20679SOL     OW63933  10.691   8.053  10.585
20679SOL    HW163934  10.651   7.975  10.546
20679SOL    HW263935  10.616   8.104  10.616
20680SOL     OW63936  10.264   6.651   4.480
20680SOL    HW163937  10.202   6.679   4.548
20680SOL    HW263938  10.227   6.569   4.446
20681SOL     OW63939   7.175  11.481   2.317
20681SOL    HW163940   7.143  11.415   2.379
20681SOL    HW263941   7.271  11.476   2.325
20682SOL     OW63942  11.547  13.048   7.481
20682SOL    HW163943  11.559  13.024   7.573
20682SOL    HW263944  11.597  13.129   7.472
20683SOL     OW63945  10.060  10.309   0.700
20683SOL    HW163946  10.075  10.349   0.614
20683SOL    HW263947  10.062  10.215   0.683
20684SOL     OW63948   8.544  10.106  11.993
20684SOL    HW163949   8.476  10.072  11.934
20684SOL    HW263950   8.501  10.178  12.040
20685SOL     OW63951   6.596  12.353   6.368
20685SOL    HW163952   6.662  12.422   6.373
20685SOL    HW263953   6.539  12.380   6.295
20686SOL     OW63954   7.827  14.375  11.556
20686SOL    HW163955   7.778  14.437  11.502
20686SOL    HW263956   7.870  14.317  11.494
20687SOL     OW63957   6.259   4.665   1.683
20687SOL    HW163958   6.291   4.665   1.593
20687SOL    HW263959   6.187   4.728   1.684
20688SOL     OW63960   0.019   1.607  12.857
20688SOL    HW163961  14.804   1.643  12.836
20688SOL    HW263962   0.057   1.588  12.771
20689SOL     OW63963   2.181   5.036   3.433
20689SOL    HW163964   2.200   5.077   3.518
20689SOL    HW263965   2.101   4.985   3.448
20690SOL     OW63966  12.671   6.665   1.823
20690SOL    HW163967  12.680   6.569   1.823
20690SOL    HW263968  12.706   6.692   1.738
20691SOL     OW63969   6.967   1.466   9.084
20691SOL    HW163970   7.009   1.548   9.058
20691SOL    HW263971   7.004   1.400   9.024
20692SOL     OW63972  11.666   0.208   8.181
20692SOL    HW163973  11.639   0.116   8.174
20692SOL    HW263974  11.624   0.252   8.108
20693SOL     OW63975   5.281  10.624   6.206
20693SOL    HW163976   5.220  10.569   6.157
20693SOL    HW263977   5.366  10.607   6.166
20694SOL     OW63978   0.255  14.130  11.168
20694SOL    HW163979   0.291  14.164  11.250
20694SOL    HW263980   0.166  14.103  11.190
20695SOL     OW63981   4.130   8.696   4.337
20695SOL    HW163982   4.205   8.705   4.396
20695SOL    HW263983   4.055   8.689   4.396
20696SOL     OW63984   2.278   3.302  12.126
20696SOL    HW163985   2.346   3.240  12.151
20696SOL    HW263986   2.233   3.322  12.208
20697SOL     OW63987  11.970   0.094  11.451
20697SOL    HW163988  12.021   0.018  11.477
20697SOL    HW263989  11.940   0.074  11.362
20698SOL     OW63990  14.001   6.932   7.249
20698SOL    HW163991  14.013   7.004   7.188
20698SOL    HW263992  14.066   6.947   7.318
20699SOL     OW63993  10.169   8.012   2.348
20699SOL    HW163994  10.111   7.993   2.422
20699SOL    HW263995  10.181   7.928   2.304
20700SOL     OW63996   3.345  12.117  12.810
20700SOL    HW163997   3.369  12.065  12.734
20700SOL    HW263998   3.398  12.197  12.803
20701SOL     OW63999  12.231  10.638   6.130
20701SOL    HW164000  12.296  10.705   6.109
20701SOL    HW264001  12.147  10.679   6.110
20702SOL     OW64002   6.066  13.098   1.468
20702SOL    HW164003   6.139  13.154   1.496
20702SOL    HW264004   6.102  13.010   1.469
20703SOL     OW64005   3.578   4.008   2.489
20703SOL    HW164006   3.574   3.933   2.429
20703SOL    HW264007   3.487   4.032   2.503
20704SOL     OW64008  12.155   3.181   3.314
20704SOL    HW164009  12.107   3.257   3.281
20704SOL    HW264010  12.130   3.175   3.406
20705SOL     OW64011   3.160  13.283   7.435
20705SOL    HW164012   3.193  13.364   7.396
20705SOL    HW264013   3.177  13.216   7.369
20706SOL     OW64014   3.903   6.593   0.997
20706SOL    HW164015   3.975   6.652   0.975
20706SOL    HW264016   3.915   6.573   1.090
20707SOL     OW64017   5.595   5.365  11.566
20707SOL    HW164018   5.686   5.352  11.595
20707SOL    HW264019   5.587   5.460  11.557
20708SOL     OW64020   7.031  11.332   5.796
20708SOL    HW164021   7.126  11.322   5.799
20708SOL    HW264022   7.017  11.425   5.777
20709SOL     OW64023   6.805   9.516   6.604
20709SOL    HW164024   6.878   9.464   6.639
20709SOL    HW264025   6.816   9.511   6.509
20710SOL     OW64026   5.979  12.295   1.838
20710SOL    HW164027   5.892  12.256   1.835
20710SOL    HW264028   6.019  12.274   1.754
20711SOL     OW64029   8.524   1.760  10.994
20711SOL    HW164030   8.613   1.749  10.960
20711SOL    HW264031   8.468   1.757  10.916
20712SOL     OW64032  10.927   3.279   0.439
20712SOL    HW164033  10.850   3.251   0.488
20712SOL    HW264034  10.981   3.324   0.504
20713SOL     OW64035  12.169  11.945  10.540
20713SOL    HW164036  12.126  11.871  10.497
20713SOL    HW264037  12.153  11.932  10.633
20714SOL     OW64038   1.285  12.217   0.503
20714SOL    HW164039   1.378  12.236   0.517
20714SOL    HW264040   1.239  12.283   0.556
20715SOL     OW64041   8.189  12.489   8.353
20715SOL    HW164042   8.145  12.418   8.306
20715SOL    HW264043   8.250  12.525   8.290
20716SOL     OW64044   9.859   6.852   2.695
20716SOL    HW164045   9.926   6.852   2.627
20716SOL    HW264046   9.837   6.760   2.707
20717SOL     OW64047   5.378  10.272  10.718
20717SOL    HW164048   5.386  10.178  10.700
20717SOL    HW264049   5.467  10.306  10.706
20718SOL     OW64050   8.523   7.222   5.560
20718SOL    HW164051   8.496   7.137   5.594
20718SOL    HW264052   8.520   7.280   5.636
20719SOL     OW64053  10.515   5.240   8.838
20719SOL    HW164054  10.454   5.185   8.887
20719SOL    HW264055  10.523   5.319   8.892
20720SOL     OW64056   6.068   8.567   1.300
20720SOL    HW164057   6.143   8.623   1.316
20720SOL    HW264058   6.099   8.479   1.320
20721SOL     OW64059   9.715   8.205  10.062
20721SOL    HW164060   9.807   8.196  10.084
20721SOL    HW264061   9.686   8.117  10.041
20722SOL     OW64062   8.838   7.614  10.243
20722SOL    HW164063   8.812   7.582  10.156
20722SOL    HW264064   8.897   7.687  10.224
20723SOL     OW64065   9.757  13.547   7.421
20723SOL    HW164066   9.736  13.474   7.479
20723SOL    HW264067   9.685  13.608   7.434
20724SOL     OW64068   0.808   1.066  10.100
20724SOL    HW164069   0.834   0.980  10.135
20724SOL    HW264070   0.834   1.128  10.169
20725SOL     OW64071  12.171   7.155  14.283
20725SOL    HW164072  12.179   7.094  14.356
20725SOL    HW264073  12.124   7.105  14.216
20726SOL     OW64074   4.361   3.363   7.127
20726SOL    HW164075   4.422   3.292   7.105
20726SOL    HW264076   4.393   3.438   7.078
20727SOL     OW64077  11.818   5.042   6.009
20727SOL    HW164078  11.789   4.953   5.990
20727SOL    HW264079  11.859   5.072   5.927
20728SOL     OW64080   6.583   2.931  10.854
20728SOL    HW164081   6.547   3.017  10.835
20728SOL    HW264082   6.676   2.947  10.871
20729SOL     OW64083   5.603  13.218   3.346
20729SOL    HW164084   5.521  13.248   3.384
20729SOL    HW264085   5.585  13.128   3.317
20730SOL     OW64086   4.129   5.267   2.521
20730SOL    HW164087   4.114   5.220   2.603
20730SOL    HW264088   4.124   5.359   2.545
20731SOL     OW64089   6.020   6.143  11.392
20731SOL    HW164090   5.930   6.119  11.414
20731SOL    HW264091   6.013   6.189  11.308
20732SOL     OW64092   4.519   6.460   1.348
20732SOL    HW164093   4.551   6.547   1.325
20732SOL    HW264094   4.598   6.413   1.376
20733SOL     OW64095  10.181  10.303   7.442
20733SOL    HW164096  10.150  10.310   7.351
20733SOL    HW264097  10.165  10.212   7.465
20734SOL     OW64098   1.587   8.085  10.273
20734SOL    HW164099   1.650   8.074  10.345
20734SOL    HW264100   1.642   8.092  10.195
20735SOL     OW64101   8.766  12.398  13.135
20735SOL    HW164102   8.785  12.464  13.068
20735SOL    HW264103   8.789  12.315  13.094
20736SOL     OW64104   2.045   7.436   8.485
20736SOL    HW164105   2.118   7.495   8.497
20736SOL    HW264106   1.983   7.459   8.555
20737SOL     OW64107  10.640  11.457  11.524
20737SOL    HW164108  10.688  11.427  11.447
20737SOL    HW264109  10.649  11.552  11.523
20738SOL     OW64110   5.513   1.358   8.108
20738SOL    HW164111   5.497   1.384   8.017
20738SOL    HW264112   5.445   1.403   8.158
20739SOL     OW64113   3.964   1.629   3.154
20739SOL    HW164114   3.970   1.664   3.242
20739SOL    HW264115   3.873   1.601   3.145
20740SOL     OW64116  13.893   4.844   3.449
20740SOL    HW164117  13.819   4.786   3.432
20740SOL    HW264118  13.875   4.881   3.535
20741SOL     OW64119   6.017   5.600  13.649
20741SOL    HW164120   6.030   5.683  13.696
20741SOL    HW264121   5.935   5.612  13.601
20742SOL     OW64122   9.839   5.536   9.428
20742SOL    HW164123   9.799   5.450   9.416
20742SOL    HW264124   9.767   5.598   9.416
20743SOL     OW64125   3.088  12.960   0.775
20743SOL    HW164126   3.101  12.961   0.680
20743SOL    HW264127   3.120  12.874   0.803
20744SOL     OW64128   6.697   2.372  14.183
20744SOL    HW164129   6.714   2.383  14.089
20744SOL    HW264130   6.640   2.294  14.187
20745SOL     OW64131   8.174   9.829   7.374
20745SOL    HW164132   8.224   9.768   7.427
20745SOL    HW264133   8.169   9.788   7.288
20746SOL     OW64134   8.437  10.471   6.108
20746SOL    HW164135   8.467  10.551   6.064
20746SOL    HW264136   8.342  10.471   6.098
20747SOL     OW64137  12.847   2.349   7.478
20747SOL    HW164138  12.886   2.430   7.511
20747SOL    HW264139  12.920   2.302   7.437
20748SOL     OW64140  14.417  12.762  14.031
20748SOL    HW164141  14.418  12.839  14.087
20748SOL    HW264142  14.471  12.786  13.956
20749SOL     OW64143   7.599   8.982  13.992
20749SOL    HW164144   7.539   9.057  13.985
20749SOL    HW264145   7.573   8.924  13.921
20750SOL     OW64146   8.188  10.303  11.587
20750SOL    HW164147   8.268  10.271  11.629
20750SOL    HW264148   8.175  10.245  11.512
20751SOL     OW64149  12.989   3.429  12.344
20751SOL    HW164150  12.915   3.434  12.284
20751SOL    HW264151  13.043   3.505  12.322
20752SOL     OW64152  11.086   6.593  14.463
20752SOL    HW164153  11.101   6.535  14.388
20752SOL    HW264154  11.150   6.564  14.528
20753SOL     OW64155  11.869   2.392  13.990
20753SOL    HW164156  11.873   2.488  13.990
20753SOL    HW264157  11.960   2.364  13.988
20754SOL     OW64158  11.137   4.841   9.765
20754SOL    HW164159  11.155   4.933   9.744
20754SOL    HW264160  11.222   4.797   9.758
20755SOL     OW64161   8.558   8.963  12.140
20755SOL    HW164162   8.640   8.980  12.094
20755SOL    HW264163   8.585   8.926  12.224
20756SOL     OW64164   4.015   5.386  12.122
20756SOL    HW164165   4.016   5.482  12.129
20756SOL    HW264166   3.959   5.369  12.046
20757SOL     OW64167  10.289  11.621   0.441
20757SOL    HW164168  10.342  11.544   0.461
20757SOL    HW264169  10.259  11.652   0.526
20758SOL     OW64170  11.740   2.533  12.292
20758SOL    HW164171  11.834   2.547  12.276
20758SOL    HW264172  11.735   2.500  12.381
20759SOL     OW64173  14.477   9.024   2.033
20759SOL    HW164174  14.490   8.944   2.085
20759SOL    HW264175  14.498   8.998   1.943
20760SOL     OW64176   8.166  14.709   4.920
20760SOL    HW164177   8.229  14.740   4.856
20760SOL    HW264178   8.087  14.692   4.870
20761SOL     OW64179   6.408  10.985   2.875
20761SOL    HW164180   6.374  11.001   2.787
20761SOL    HW264181   6.396  10.891   2.889
20762SOL     OW64182  14.234   7.857  14.260
20762SOL    HW164183  14.256   7.783  14.317
20762SOL    HW264184  14.141   7.873  14.276
20763SOL     OW64185   0.081  11.569   7.365
20763SOL    HW164186   0.051  11.648   7.410
20763SOL    HW264187   0.114  11.600   7.281
20764SOL     OW64188   6.507   2.332  11.373
20764SOL    HW164189   6.416   2.325  11.345
20764SOL    HW264190   6.547   2.250  11.343
20765SOL     OW64191   9.729   2.810   7.157
20765SOL    HW164192   9.746   2.826   7.250
20765SOL    HW264193   9.726   2.715   7.149
20766SOL     OW64194  10.118   6.366   1.601
20766SOL    HW164195  10.155   6.448   1.566
20766SOL    HW264196  10.028   6.365   1.569
20767SOL     OW64197   3.070   6.299   4.617
20767SOL    HW164198   3.081   6.243   4.694
20767SOL    HW264199   3.029   6.242   4.552
20768SOL     OW64200  14.511   2.367   4.936
20768SOL    HW164201  14.564   2.403   4.865
20768SOL    HW264202  14.449   2.437   4.958
20769SOL     OW64203   1.484   1.868   9.507
20769SOL    HW164204   1.565   1.888   9.554
20769SOL    HW264205   1.502   1.784   9.464
20770SOL     OW64206   0.967  13.032   8.159
20770SOL    HW164207   0.994  13.063   8.073
20770SOL    HW264208   0.922  12.949   8.141
20771SOL     OW64209   8.327   8.704   1.223
20771SOL    HW164210   8.386   8.629   1.222
20771SOL    HW264211   8.379   8.775   1.261
20772SOL     OW64212   3.938   6.072  12.737
20772SOL    HW164213   3.896   6.005  12.792
20772SOL    HW264214   3.868   6.134  12.718
20773SOL     OW64215  13.662   6.714  13.503
20773SOL    HW164216  13.734   6.776  13.500
20773SOL    HW264217  13.600   6.752  13.565
20774SOL     OW64218   6.485   1.727  10.467
20774SOL    HW164219   6.485   1.747  10.560
20774SOL    HW264220   6.397   1.751  10.437
20775SOL     OW64221   7.858   4.795   0.034
20775SOL    HW164222   7.880   4.705   0.009
20775SOL    HW264223   7.873   4.798   0.128
20776SOL     OW64224   7.618  12.340   2.617
20776SOL    HW164225   7.531  12.380   2.625
20776SOL    HW264226   7.621  12.274   2.686
20777SOL     OW64227   1.689  10.807  12.717
20777SOL    HW164228   1.775  10.765  12.710
20777SOL    HW264229   1.699  10.869  12.790
20778SOL     OW64230   0.194   4.846   6.607
20778SOL    HW164231   0.193   4.763   6.559
20778SOL    HW264232   0.274   4.841   6.661
20779SOL     OW64233   2.118   2.568   6.561
20779SOL    HW164234   2.109   2.659   6.533
20779SOL    HW264235   2.160   2.574   6.647
20780SOL     OW64236   5.528  13.972   5.238
20780SOL    HW164237   5.506  13.884   5.208
20780SOL    HW264238   5.595  13.959   5.305
20781SOL     OW64239  14.365  14.824  11.589
20781SOL    HW164240  14.296  14.760  11.568
20781SOL    HW264241  14.317   0.034  11.602
20782SOL     OW64242  11.068  10.988   2.899
20782SOL    HW164243  11.048  11.037   2.978
20782SOL    HW264244  11.103  10.904   2.931
20783SOL     OW64245   1.677   9.479  13.759
20783SOL    HW164246   1.660   9.385  13.746
20783SOL    HW264247   1.698   9.511  13.672
20784SOL     OW64248   4.320  12.512   0.866
20784SOL    HW164249   4.232  12.474   0.857
20784SOL    HW264250   4.363  12.456   0.930
20785SOL     OW64251  12.921   1.465  12.376
20785SOL    HW164252  13.002   1.421  12.350
20785SOL    HW264253  12.948   1.552  12.404
20786SOL     OW64254  10.945   7.479   6.581
20786SOL    HW164255  10.901   7.544   6.635
20786SOL    HW264256  11.027   7.522   6.555
20787SOL     OW64257   5.727  10.949   1.928
20787SOL    HW164258   5.697  11.040   1.934
20787SOL    HW264259   5.815  10.951   1.965
20788SOL     OW64260  13.670  11.801   7.038
20788SOL    HW164261  13.645  11.882   6.995
20788SOL    HW264262  13.727  11.756   6.975
20789SOL     OW64263  13.678   6.402   6.358
20789SOL    HW164264  13.763   6.393   6.403
20789SOL    HW264265  13.633   6.320   6.377
20790SOL     OW64266   9.525   2.109   5.577
20790SOL    HW164267   9.454   2.172   5.592
20790SOL    HW264268   9.586   2.126   5.649
20791SOL     OW64269   1.578   4.618   0.780
20791SOL    HW164270   1.557   4.526   0.765
20791SOL    HW264271   1.495   4.664   0.768
20792SOL     OW64272   4.848   7.520  11.109
20792SOL    HW164273   4.916   7.467  11.068
20792SOL    HW264274   4.863   7.609  11.075
20793SOL     OW64275   4.309   7.905   7.686
20793SOL    HW164276   4.291   7.823   7.733
20793SOL    HW264277   4.320   7.879   7.595
20794SOL     OW64278  13.820   5.473   9.341
20794SOL    HW164279  13.901   5.497   9.385
20794SOL    HW264280  13.845   5.402   9.281
20795SOL     OW64281   9.491   1.837   7.713
20795SOL    HW164282   9.456   1.798   7.633
20795SOL    HW264283   9.544   1.768   7.753
20796SOL     OW64284   3.478   7.389   8.753
20796SOL    HW164285   3.492   7.344   8.670
20796SOL    HW264286   3.387   7.418   8.749
20797SOL     OW64287   6.787   3.154   6.012
20797SOL    HW164288   6.823   3.110   5.935
20797SOL    HW264289   6.760   3.082   6.070
20798SOL     OW64290  13.815   4.912  11.610
20798SOL    HW164291  13.739   4.913  11.552
20798SOL    HW264292  13.829   5.003  11.632
20799SOL     OW64293   7.834  11.681  14.437
20799SOL    HW164294   7.877  11.597  14.448
20799SOL    HW264295   7.892  11.744  14.481
20800SOL     OW64296  10.642  10.454  13.130
20800SOL    HW164297  10.577  10.469  13.198
20800SOL    HW264298  10.605  10.384  13.076
20801SOL     OW64299   9.153  11.796   3.478
20801SOL    HW164300   9.212  11.872   3.482
20801SOL    HW264301   9.144  11.768   3.569
20802SOL     OW64302   9.855   9.574   7.340
20802SOL    HW164303   9.773   9.531   7.364
20802SOL    HW264304   9.879   9.625   7.417
20803SOL     OW64305   4.040   5.078   0.449
20803SOL    HW164306   4.071   5.152   0.501
20803SOL    HW264307   3.979   5.117   0.386
20804SOL     OW64308   7.070   0.291  13.329
20804SOL    HW164309   7.154   0.246  13.317
20804SOL    HW264310   7.007   0.220  13.344
20805SOL     OW64311  13.610  11.338  14.255
20805SOL    HW164312  13.705  11.324  14.262
20805SOL    HW264313  13.594  11.419  14.304
20806SOL     OW64314   0.647   2.971   0.827
20806SOL    HW164315   0.561   2.954   0.864
20806SOL    HW264316   0.630   3.012   0.742
20807SOL     OW64317   0.680  11.853   2.491
20807SOL    HW164318   0.664  11.939   2.452
20807SOL    HW264319   0.772  11.855   2.517
20808SOL     OW64320  11.720   2.073  11.301
20808SOL    HW164321  11.713   2.168  11.290
20808SOL    HW264322  11.787   2.047  11.238
20809SOL     OW64323  13.741   9.183   1.750
20809SOL    HW164324  13.801   9.126   1.702
20809SOL    HW264325  13.768   9.176   1.841
20810SOL     OW64326  12.256   3.598   1.913
20810SOL    HW164327  12.352   3.596   1.920
20810SOL    HW264328  12.226   3.609   2.004
20811SOL     OW64329   5.623   1.241  13.073
20811SOL    HW164330   5.707   1.196  13.082
20811SOL    HW264331   5.560   1.184  13.117
20812SOL     OW64332   8.716  13.809   7.835
20812SOL    HW164333   8.655  13.869   7.793
20812SOL    HW264334   8.715  13.731   7.780
20813SOL     OW64335   2.921   3.636   3.818
20813SOL    HW164336   2.964   3.650   3.733
20813SOL    HW264337   2.904   3.724   3.851
20814SOL     OW64338   6.205   1.635  10.064
20814SOL    HW164339   6.297   1.659  10.071
20814SOL    HW264340   6.206   1.545  10.033
20815SOL     OW64341  11.941   4.568   5.537
20815SOL    HW164342  11.942   4.474   5.554
20815SOL    HW264343  11.965   4.576   5.445
20816SOL     OW64344   3.998   1.533  11.812
20816SOL    HW164345   4.019   1.441  11.799
20816SOL    HW264346   4.077   1.570  11.852
20817SOL     OW64347   8.348   4.430   0.490
20817SOL    HW164348   8.305   4.503   0.533
20817SOL    HW264349   8.279   4.386   0.440
20818SOL     OW64350   9.678  11.344  11.710
20818SOL    HW164351   9.763  11.300  11.705
20818SOL    HW264352   9.693  11.417  11.770
20819SOL     OW64353   6.757   0.598   6.313
20819SOL    HW164354   6.707   0.566   6.238
20819SOL    HW264355   6.827   0.652   6.275
20820SOL     OW64356  10.005  13.245  10.166
20820SOL    HW164357  10.010  13.191  10.245
20820SOL    HW264358  10.057  13.323  10.186
20821SOL     OW64359  11.218   2.221   2.266
20821SOL    HW164360  11.131   2.261   2.274
20821SOL    HW264361  11.212   2.140   2.317
20822SOL     OW64362   3.366  14.674  12.516
20822SOL    HW164363   3.402  14.697  12.430
20822SOL    HW264364   3.318  14.752  12.543
20823SOL     OW64365   7.122   7.392   6.490
20823SOL    HW164366   7.065   7.460   6.456
20823SOL    HW264367   7.157   7.427   6.572
20824SOL     OW64368   2.501  14.761   8.231
20824SOL    HW164369   2.408  14.739   8.229
20824SOL    HW264370   2.520  14.797   8.144
20825SOL     OW64371   1.254  13.386   1.612
20825SOL    HW164372   1.287  13.424   1.694
20825SOL    HW264373   1.191  13.320   1.640
20826SOL     OW64374  10.494   2.663  11.333
20826SOL    HW164375  10.463   2.710  11.255
20826SOL    HW264376  10.424   2.673  11.397
20827SOL     OW64377   4.011   8.065  12.514
20827SOL    HW164378   4.005   8.140  12.455
20827SOL    HW264379   4.042   7.993  12.459
20828SOL     OW64380  11.753  10.642   3.288
20828SOL    HW164381  11.797  10.603   3.213
20828SOL    HW264382  11.752  10.572   3.354
20829SOL     OW64383  14.433   0.373  13.532
20829SOL    HW164384  14.343   0.392  13.507
20829SOL    HW264385  14.444   0.415  13.617
20830SOL     OW64386  11.285  13.887  14.655
20830SOL    HW164387  11.358  13.853  14.706
20830SOL    HW264388  11.326  13.923  14.576
20831SOL     OW64389  12.149   0.802   4.208
20831SOL    HW164390  12.237   0.773   4.184
20831SOL    HW264391  12.098   0.791   4.128
20832SOL     OW64392   5.784   7.991   7.941
20832SOL    HW164393   5.731   7.913   7.928
20832SOL    HW264394   5.849   7.966   8.006
20833SOL     OW64395   0.518  12.594   0.575
20833SOL    HW164396   0.481  12.676   0.545
20833SOL    HW264397   0.478  12.527   0.520
20834SOL     OW64398  11.561   3.496   4.482
20834SOL    HW164399  11.535   3.500   4.574
20834SOL    HW264400  11.654   3.477   4.483
20835SOL     OW64401   9.005   9.280   7.686
20835SOL    HW164402   9.000   9.326   7.769
20835SOL    HW264403   8.914   9.272   7.657
20836SOL     OW64404   1.508   8.852  12.778
20836SOL    HW164405   1.454   8.895  12.711
20836SOL    HW264406   1.480   8.891  12.861
20837SOL     OW64407  12.040   1.993   0.500
20837SOL    HW164408  11.990   1.943   0.565
20837SOL    HW264409  12.125   2.007   0.542
20838SOL     OW64410   5.335   5.993  13.956
20838SOL    HW164411   5.419   6.028  13.925
20838SOL    HW264412   5.282   6.071  13.974
20839SOL     OW64413   3.455  11.675   6.073
20839SOL    HW164414   3.425  11.758   6.110
20839SOL    HW264415   3.398  11.609   6.113
20840SOL     OW64416   9.350   8.240   9.389
20840SOL    HW164417   9.419   8.220   9.451
20840SOL    HW264418   9.396   8.269   9.310
20841SOL     OW64419  12.436   6.090   6.780
20841SOL    HW164420  12.418   6.028   6.851
20841SOL    HW264421  12.358   6.143   6.774
20842SOL     OW64422   0.496   7.157   5.729
20842SOL    HW164423   0.587   7.160   5.703
20842SOL    HW264424   0.476   7.063   5.736
20843SOL     OW64425  11.901   9.253   2.543
20843SOL    HW164426  11.813   9.284   2.563
20843SOL    HW264427  11.889   9.161   2.519
20844SOL     OW64428   8.288   5.625   1.530
20844SOL    HW164429   8.199   5.612   1.497
20844SOL    HW264430   8.279   5.615   1.625
20845SOL     OW64431  11.078   1.989   5.665
20845SOL    HW164432  11.167   2.023   5.656
20845SOL    HW264433  11.065   1.980   5.760
20846SOL     OW64434  10.233   6.011  13.617
20846SOL    HW164435  10.149   6.049  13.593
20846SOL    HW264436  10.212   5.925  13.653
20847SOL     OW64437   0.407   7.989  14.543
20847SOL    HW164438   0.316   7.979  14.513
20847SOL    HW264439   0.416   8.082  14.562
20848SOL     OW64440  11.229  11.256   4.872
20848SOL    HW164441  11.306  11.287   4.824
20848SOL    HW264442  11.158  11.260   4.807
20849SOL     OW64443   4.966   2.857  12.769
20849SOL    HW164444   5.027   2.924  12.739
20849SOL    HW264445   4.995   2.777  12.725
20850SOL     OW64446  10.706  12.785   0.245
20850SOL    HW164447  10.769  12.852   0.269
20850SOL    HW264448  10.735  12.754   0.159
20851SOL     OW64449   3.896   6.336   6.492
20851SOL    HW164450   3.978   6.290   6.478
20851SOL    HW264451   3.911   6.423   6.455
20852SOL     OW64452  11.938   1.806  14.631
20852SOL    HW164453  11.935   1.829  14.724
20852SOL    HW264454  11.918   1.887  14.585
20853SOL     OW64455  13.435   1.440  13.319
20853SOL    HW164456  13.443   1.520  13.267
20853SOL    HW264457  13.521   1.399  13.314
20854SOL     OW64458   4.421  11.693   4.906
20854SOL    HW164459   4.447  11.602   4.890
20854SOL    HW264460   4.348  11.708   4.847
20855SOL     OW64461  13.619   7.298   7.656
20855SOL    HW164462  13.571   7.380   7.647
20855SOL    HW264463  13.560   7.241   7.706
20856SOL     OW64464  11.779   5.277  10.026
20856SOL    HW164465  11.815   5.223  10.096
20856SOL    HW264466  11.724   5.217   9.975
20857SOL     OW64467   0.598  14.191   6.953
20857SOL    HW164468   0.553  14.253   7.011
20857SOL    HW264469   0.685  14.181   6.992
20858SOL     OW64470  11.020  10.778   8.976
20858SOL    HW164471  10.997  10.833   8.901
20858SOL    HW264472  11.065  10.837   9.036
20859SOL     OW64473   1.951   3.831  13.752
20859SOL    HW164474   1.906   3.874  13.825
20859SOL    HW264475   2.027   3.790  13.792
20860SOL     OW64476  11.009   1.246  10.404
20860SOL    HW164477  10.980   1.166  10.447
20860SOL    HW264478  10.963   1.245  10.320
20861SOL     OW64479   1.100   4.377   9.444
20861SOL    HW164480   1.053   4.361   9.526
20861SOL    HW264481   1.073   4.464   9.416
20862SOL     OW64482   6.712  11.511   6.307
20862SOL    HW164483   6.726  11.420   6.282
20862SOL    HW264484   6.799  11.546   6.325
20863SOL     OW64485  12.539  11.053   2.240
20863SOL    HW164486  12.628  11.087   2.251
20863SOL    HW264487  12.529  11.042   2.146
20864SOL     OW64488   1.202  10.436   2.346
20864SOL    HW164489   1.133  10.375   2.320
20864SOL    HW264490   1.155  10.515   2.374
20865SOL     OW64491  14.601   1.010  10.733
20865SOL    HW164492  14.648   0.941  10.780
20865SOL    HW264493  14.577   1.073  10.800
20866SOL     OW64494   4.780   3.732  13.912
20866SOL    HW164495   4.731   3.803  13.953
20866SOL    HW264496   4.768   3.746  13.818
20867SOL     OW64497  12.830   5.657   4.301
20867SOL    HW164498  12.917   5.653   4.341
20867SOL    HW264499  12.797   5.743   4.324
20868SOL     OW64500   3.588   0.083   5.088
20868SOL    HW164501   3.667   0.029   5.081
20868SOL    HW264502   3.568   0.085   5.181
20869SOL     OW64503   2.105   9.609   0.150
20869SOL    HW164504   2.023   9.602   0.198
20869SOL    HW264505   2.149   9.525   0.166
20870SOL     OW64506   2.159  13.856   3.547
20870SOL    HW164507   2.112  13.783   3.507
20870SOL    HW264508   2.170  13.919   3.476
20871SOL     OW64509   6.497   5.278  12.121
20871SOL    HW164510   6.531   5.362  12.090
20871SOL    HW264511   6.541   5.263  12.204
20872SOL     OW64512   0.389   5.208   7.769
20872SOL    HW164513   0.318   5.271   7.780
20872SOL    HW264514   0.460   5.242   7.822
20873SOL     OW64515   2.770   4.187  11.180
20873SOL    HW164516   2.843   4.195  11.242
20873SOL    HW264517   2.752   4.276  11.152
20874SOL     OW64518   4.450   0.394  13.822
20874SOL    HW164519   4.514   0.322  13.826
20874SOL    HW264520   4.421   0.406  13.912
20875SOL     OW64521   2.856   4.129   8.905
20875SOL    HW164522   2.872   4.110   8.998
20875SOL    HW264523   2.776   4.181   8.905
20876SOL     OW64524   4.374   5.281  13.737
20876SOL    HW164525   4.394   5.369  13.707
20876SOL    HW264526   4.295   5.291  13.790
20877SOL     OW64527   8.638   6.070  14.197
20877SOL    HW164528   8.570   6.022  14.149
20877SOL    HW264529   8.682   6.002  14.248
20878SOL     OW64530   6.187   9.971  13.920
20878SOL    HW164531   6.124   9.902  13.899
20878SOL    HW264532   6.133  10.047  13.944
20879SOL     OW64533  12.807   5.013   6.932
20879SOL    HW164534  12.716   5.029   6.907
20879SOL    HW264535  12.808   4.921   6.959
20880SOL     OW64536   9.369   6.754   6.606
20880SOL    HW164537   9.339   6.837   6.643
20880SOL    HW264538   9.293   6.696   6.609
20881SOL     OW64539  13.563   9.020   6.273
20881SOL    HW164540  13.614   8.995   6.196
20881SOL    HW264541  13.587   9.110   6.291
20882SOL     OW64542  12.802   4.793  14.151
20882SOL    HW164543  12.840   4.750  14.074
20882SOL    HW264544  12.877   4.809  14.209
20883SOL     OW64545  11.222   9.770   7.346
20883SOL    HW164546  11.189   9.682   7.326
20883SOL    HW264547  11.266   9.797   7.265
20884SOL     OW64548   8.304   0.052   4.133
20884SOL    HW164549   8.251   0.023   4.208
20884SOL    HW264550   8.316   0.146   4.147
20885SOL     OW64551  12.559   2.406   1.110
20885SOL    HW164552  12.507   2.396   1.030
20885SOL    HW264553  12.505   2.369   1.179
20886SOL     OW64554   3.534   1.480   0.553
20886SOL    HW164555   3.486   1.540   0.496
20886SOL    HW264556   3.545   1.400   0.502
20887SOL     OW64557   9.588   7.506   6.476
20887SOL    HW164558   9.572   7.445   6.404
20887SOL    HW264559   9.576   7.593   6.436
20888SOL     OW64560   9.405   2.901   2.025
20888SOL    HW164561   9.437   2.903   1.934
20888SOL    HW264562   9.314   2.927   2.019
20889SOL     OW64563  13.635   0.998  10.535
20889SOL    HW164564  13.593   0.945  10.603
20889SOL    HW264565  13.564   1.051  10.499
20890SOL     OW64566   8.401   8.696   3.890
20890SOL    HW164567   8.398   8.786   3.924
20890SOL    HW264568   8.434   8.706   3.800
20891SOL     OW64569   0.132   4.185   6.464
20891SOL    HW164570   0.083   4.212   6.386
20891SOL    HW264571   0.219   4.162   6.432
20892SOL     OW64572   7.203  10.960  13.173
20892SOL    HW164573   7.264  10.945  13.246
20892SOL    HW264574   7.121  10.985  13.215
20893SOL     OW64575   9.832   1.996  10.788
20893SOL    HW164576   9.811   1.903  10.801
20893SOL    HW264577   9.754   2.042  10.819
20894SOL     OW64578  12.199  10.447  12.005
20894SOL    HW164579  12.174  10.477  11.917
20894SOL    HW264580  12.295  10.443  12.002
20895SOL     OW64581  13.862  14.269  11.715
20895SOL    HW164582  13.931  14.208  11.742
20895SOL    HW264583  13.842  14.319  11.795
20896SOL     OW64584   3.755   6.428   7.919
20896SOL    HW164585   3.794   6.497   7.972
20896SOL    HW264586   3.744   6.468   7.832
20897SOL     OW64587  10.296   7.626  11.222
20897SOL    HW164588  10.279   7.603  11.130
20897SOL    HW264589  10.380   7.584  11.241
20898SOL     OW64590  14.082  12.301   6.736
20898SOL    HW164591  14.154  12.250   6.772
20898SOL    HW264592  14.108  12.392   6.750
20899SOL     OW64593   4.674   0.438   8.114
20899SOL    HW164594   4.767   0.442   8.137
20899SOL    HW264595   4.661   0.513   8.055
20900SOL     OW64596   0.901   7.781   6.186
20900SOL    HW164597   0.913   7.861   6.134
20900SOL    HW264598   0.944   7.713   6.135
20901SOL     OW64599  13.924   7.525   3.775
20901SOL    HW164600  13.868   7.448   3.761
20901SOL    HW264601  13.864   7.595   3.800
20902SOL     OW64602   4.084   5.613   8.916
20902SOL    HW164603   4.104   5.549   8.984
20902SOL    HW264604   4.137   5.689   8.937
20903SOL     OW64605   0.904   1.780   1.549
20903SOL    HW164606   0.930   1.694   1.580
20903SOL    HW264607   0.854   1.763   1.469
20904SOL     OW64608   8.300   5.449   2.413
20904SOL    HW164609   8.345   5.393   2.351
20904SOL    HW264610   8.349   5.441   2.494
20905SOL     OW64611   4.780  11.226   6.170
20905SOL    HW164612   4.711  11.169   6.204
20905SOL    HW264613   4.829  11.253   6.247
20906SOL     OW64614   7.073   5.847   2.493
20906SOL    HW164615   7.136   5.912   2.526
20906SOL    HW264616   7.094   5.767   2.542
20907SOL     OW64617  13.715  11.115   0.842
20907SOL    HW164618  13.771  11.164   0.781
20907SOL    HW264619  13.626  11.138   0.817
20908SOL     OW64620   5.583  10.883   7.979
20908SOL    HW164621   5.524  10.817   7.943
20908SOL    HW264622   5.565  10.883   8.073
20909SOL     OW64623   1.466   4.962  10.951
20909SOL    HW164624   1.447   4.928  11.038
20909SOL    HW264625   1.484   4.884  10.898
20910SOL     OW64626   7.092  11.534   9.217
20910SOL    HW164627   7.125  11.463   9.162
20910SOL    HW264628   6.999  11.538   9.198
20911SOL     OW64629  11.361   8.335   8.962
20911SOL    HW164630  11.381   8.426   8.939
20911SOL    HW264631  11.438   8.304   9.009
20912SOL     OW64632  10.702  11.531   3.126
20912SOL    HW164633  10.772  11.466   3.132
20912SOL    HW264634  10.742  11.607   3.085
20913SOL     OW64635  10.314   5.142  13.113
20913SOL    HW164636  10.286   5.187  13.033
20913SOL    HW264637  10.366   5.068  13.082
20914SOL     OW64638   4.760  10.604   9.845
20914SOL    HW164639   4.806  10.532   9.802
20914SOL    HW264640   4.737  10.570   9.931
20915SOL     OW64641   2.442   9.368   7.924
20915SOL    HW164642   2.468   9.292   7.977
20915SOL    HW264643   2.525   9.408   7.897
20916SOL     OW64644   7.314   0.454   2.895
20916SOL    HW164645   7.249   0.412   2.951
20916SOL    HW264646   7.397   0.414   2.921
20917SOL     OW64647   0.945   3.636   1.133
20917SOL    HW164648   1.006   3.703   1.104
20917SOL    HW264649   0.966   3.623   1.225
20918SOL     OW64650   4.647   2.336   2.934
20918SOL    HW164651   4.572   2.397   2.933
20918SOL    HW264652   4.721   2.389   2.904
20919SOL     OW64653  13.645   1.228   9.731
20919SOL    HW164654  13.652   1.206   9.824
20919SOL    HW264655  13.570   1.178   9.700
20920SOL     OW64656   9.886  13.851   9.201
20920SOL    HW164657   9.962  13.851   9.260
20920SOL    HW264658   9.876  13.760   9.175
20921SOL     OW64659   4.824   1.977   2.951
20921SOL    HW164660   4.833   1.983   3.046
20921SOL    HW264661   4.820   1.884   2.932
20922SOL     OW64662   3.701  13.070  12.281
20922SOL    HW164663   3.625  13.084  12.225
20922SOL    HW264664   3.728  12.980  12.262
20923SOL     OW64665   4.528  13.306   8.790
20923SOL    HW164666   4.548  13.323   8.882
20923SOL    HW264667   4.467  13.233   8.792
20924SOL     OW64668  11.656   2.515   2.990
20924SOL    HW164669  11.738   2.465   2.989
20924SOL    HW264670  11.593   2.458   2.947
20925SOL     OW64671  14.812  11.564  12.741
20925SOL    HW164672   0.019  11.514  12.760
20925SOL    HW264673  14.744  11.524  12.795
20926SOL     OW64674   6.991   8.379   7.063
20926SOL    HW164675   6.970   8.289   7.090
20926SOL    HW264676   6.926   8.400   6.997
20927SOL     OW64677   3.432   6.757  12.032
20927SOL    HW164678   3.428   6.738  12.126
20927SOL    HW264679   3.522   6.733  12.007
20928SOL     OW64680   6.583   1.557   1.492
20928SOL    HW164681   6.537   1.641   1.482
20928SOL    HW264682   6.664   1.579   1.537
20929SOL     OW64683  12.960   3.951   1.734
20929SOL    HW164684  12.868   3.975   1.729
20929SOL    HW264685  12.995   3.970   1.647
20930SOL     OW64686  13.491  13.089   4.826
20930SOL    HW164687  13.445  13.173   4.822
20930SOL    HW264688  13.519  13.074   4.736
20931SOL     OW64689  13.797   8.876   3.571
20931SOL    HW164690  13.843   8.794   3.588
20931SOL    HW264691  13.866   8.937   3.545
20932SOL     OW64692   6.385  11.291   8.317
20932SOL    HW164693   6.332  11.310   8.240
20932SOL    HW264694   6.395  11.196   8.316
20933SOL     OW64695   6.158   2.774  13.081
20933SOL    HW164696   6.194   2.861  13.063
20933SOL    HW264697   6.104   2.787  13.159
20934SOL     OW64698   5.801  13.046   6.623
20934SOL    HW164699   5.724  13.074   6.574
20934SOL    HW264700   5.780  12.958   6.653
20935SOL     OW64701   9.435  10.841   6.569
20935SOL    HW164702   9.450  10.927   6.528
20935SOL    HW264703   9.510  10.829   6.627
20936SOL     OW64704   8.134   9.012   7.306
20936SOL    HW164705   8.137   9.020   7.211
20936SOL    HW264706   8.193   9.081   7.337
20937SOL     OW64707  11.716   6.031  10.597
20937SOL    HW164708  11.810   6.031  10.580
20937SOL    HW264709  11.677   5.991  10.520
20938SOL     OW64710  13.187   4.434   6.839
20938SOL    HW164711  13.185   4.417   6.745
20938SOL    HW264712  13.248   4.369   6.874
20939SOL     OW64713   6.801  13.875  10.885
20939SOL    HW164714   6.723  13.840  10.841
20939SOL    HW264715   6.776  13.963  10.911
20940SOL     OW64716   9.552  14.762  11.742
20940SOL    HW164717   9.501  14.702  11.688
20940SOL    HW264718   9.541  14.729  11.832
20941SOL     OW64719  13.028   2.803  12.632
20941SOL    HW164720  13.022   2.897  12.645
20941SOL    HW264721  13.120   2.782  12.647
20942SOL     OW64722  13.163  10.049   2.283
20942SOL    HW164723  13.254  10.042   2.256
20942SOL    HW264724  13.134   9.959   2.295
20943SOL     OW64725  10.031   9.881  14.220
20943SOL    HW164726   9.987   9.955  14.178
20943SOL    HW264727  10.101   9.921  14.272
20944SOL     OW64728   3.160   3.393   0.710
20944SOL    HW164729   3.092   3.333   0.742
20944SOL    HW264730   3.126   3.426   0.627
20945SOL     OW64731   8.776  12.385   0.273
20945SOL    HW164732   8.719  12.419   0.204
20945SOL    HW264733   8.848  12.344   0.226
20946SOL     OW64734  12.012   0.792   8.683
20946SOL    HW164735  12.030   0.885   8.698
20946SOL    HW264736  11.958   0.766   8.758
20947SOL     OW64737   7.616   1.995  14.718
20947SOL    HW164738   7.546   2.031  14.772
20947SOL    HW264739   7.697   2.018  14.764
20948SOL     OW64740  10.378   9.662   8.422
20948SOL    HW164741  10.410   9.725   8.357
20948SOL    HW264742  10.283   9.674   8.422
20949SOL     OW64743   2.300   5.711   1.673
20949SOL    HW164744   2.368   5.726   1.608
20949SOL    HW264745   2.343   5.660   1.742
20950SOL     OW64746   8.353  10.514   7.810
20950SOL    HW164747   8.404  10.508   7.729
20950SOL    HW264748   8.370  10.431   7.855
20951SOL     OW64749   4.960  10.237   7.265
20951SOL    HW164750   4.958  10.178   7.341
20951SOL    HW264751   4.964  10.178   7.190
20952SOL     OW64752   2.127  13.469   1.286
20952SOL    HW164753   2.196  13.443   1.225
20952SOL    HW264754   2.046  13.444   1.242
20953SOL     OW64755   0.809   5.924  12.814
20953SOL    HW164756   0.903   5.909  12.802
20953SOL    HW264757   0.794   6.012  12.778
20954SOL     OW64758   0.922  14.085  12.774
20954SOL    HW164759   0.829  14.096  12.752
20954SOL    HW264760   0.922  14.043  12.860
20955SOL     OW64761  13.166   9.102   1.375
20955SOL    HW164762  13.184   9.120   1.468
20955SOL    HW264763  13.186   9.184   1.331
20956SOL     OW64764  11.012   7.747   0.138
20956SOL    HW164765  11.069   7.738   0.215
20956SOL    HW264766  10.930   7.782   0.172
20957SOL     OW64767   4.098   5.911   9.573
20957SOL    HW164768   4.043   5.833   9.567
20957SOL    HW264769   4.036   5.984   9.565
20958SOL     OW64770   8.272   8.938  11.600
20958SOL    HW164771   8.227   9.022  11.594
20958SOL    HW264772   8.222   8.879  11.543
20959SOL     OW64773  13.477   0.386   3.147
20959SOL    HW164774  13.424   0.420   3.219
20959SOL    HW264775  13.530   0.461   3.119
20960SOL     OW64776   9.933  12.605  14.644
20960SOL    HW164777   9.876  12.592  14.568
20960SOL    HW264778   9.987  12.526  14.647
20961SOL     OW64779  11.137  10.467  14.171
20961SOL    HW164780  11.100  10.379  14.180
20961SOL    HW264781  11.083  10.522  14.229
20962SOL     OW64782  12.662   1.511   1.490
20962SOL    HW164783  12.611   1.502   1.410
20962SOL    HW264784  12.644   1.431   1.539
20963SOL     OW64785   2.321  14.733   0.226
20963SOL    HW164786   2.259  14.669   0.260
20963SOL    HW264787   2.394  14.680   0.194
20964SOL     OW64788  11.320   3.823   9.439
20964SOL    HW164789  11.334   3.819   9.534
20964SOL    HW264790  11.406   3.840   9.403
20965SOL     OW64791   4.478   8.017   5.332
20965SOL    HW164792   4.503   8.022   5.424
20965SOL    HW264793   4.383   8.032   5.332
20966SOL     OW64794   1.895  12.628  10.636
20966SOL    HW164795   1.979  12.672  10.649
20966SOL    HW264796   1.913  12.560  10.571
20967SOL     OW64797   1.377  11.919   6.337
20967SOL    HW164798   1.402  11.862   6.410
20967SOL    HW264799   1.282  11.909   6.330
20968SOL     OW64800  10.621   3.308  14.609
20968SOL    HW164801  10.643   3.328  14.518
20968SOL    HW264802  10.696   3.260  14.642
20969SOL     OW64803   9.739   8.851   4.901
20969SOL    HW164804   9.729   8.798   4.980
20969SOL    HW264805   9.685   8.929   4.917
20970SOL     OW64806   5.460   3.471   6.713
20970SOL    HW164807   5.532   3.526   6.684
20970SOL    HW264808   5.403   3.531   6.762
20971SOL     OW64809   3.464  12.015   0.573
20971SOL    HW164810   3.489  12.007   0.665
20971SOL    HW264811   3.382  12.065   0.576
20972SOL     OW64812   8.353  14.105   2.253
20972SOL    HW164813   8.307  14.104   2.337
20972SOL    HW264814   8.420  14.173   2.264
20973SOL     OW64815   3.254  10.639   5.682
20973SOL    HW164816   3.194  10.590   5.738
20973SOL    HW264817   3.205  10.654   5.601
20974SOL     OW64818   2.113   7.036   2.646
20974SOL    HW164819   2.149   7.058   2.732
20974SOL    HW264820   2.153   6.953   2.624
20975SOL     OW64821   4.408   6.961  10.371
20975SOL    HW164822   4.465   6.896  10.411
20975SOL    HW264823   4.418   6.948  10.277
20976SOL     OW64824   8.825  10.498   5.114
20976SOL    HW164825   8.877  10.458   5.183
20976SOL    HW264826   8.889  10.519   5.045
20977SOL     OW64827   4.186   9.240   3.183
20977SOL    HW164828   4.196   9.167   3.244
20977SOL    HW264829   4.269   9.242   3.134
20978SOL     OW64830   8.457   7.624   9.730
20978SOL    HW164831   8.387   7.596   9.670
20978SOL    HW264832   8.538   7.614   9.679
20979SOL     OW64833   0.886  10.323   1.373
20979SOL    HW164834   0.817  10.274   1.417
20979SOL    HW264835   0.889  10.287   1.285
20980SOL     OW64836   0.615   9.391   2.457
20980SOL    HW164837   0.698   9.439   2.450
20980SOL    HW264838   0.585   9.383   2.366
20981SOL     OW64839  11.841  12.906  13.799
20981SOL    HW164840  11.872  12.995  13.780
20981SOL    HW264841  11.855  12.895  13.893
20982SOL     OW64842   2.403   6.863  13.741
20982SOL    HW164843   2.425   6.833  13.653
20982SOL    HW264844   2.313   6.833  13.755
20983SOL     OW64845   5.714   8.738   3.201
20983SOL    HW164846   5.756   8.746   3.116
20983SOL    HW264847   5.658   8.816   3.207
20984SOL     OW64848   8.851   4.118  11.867
20984SOL    HW164849   8.803   4.111  11.784
20984SOL    HW264850   8.786   4.150  11.929
20985SOL     OW64851   9.571   0.939   7.304
20985SOL    HW164852   9.623   0.870   7.346
20985SOL    HW264853   9.561   0.909   7.213
20986SOL     OW64854   9.539  13.852   5.937
20986SOL    HW164855   9.589  13.801   6.000
20986SOL    HW264856   9.454  13.866   5.980
20987SOL     OW64857   8.534   3.030  10.107
20987SOL    HW164858   8.600   3.002  10.171
20987SOL    HW264859   8.456   3.048  10.160
20988SOL     OW64860   5.365   2.536   2.242
20988SOL    HW164861   5.438   2.532   2.303
20988SOL    HW264862   5.402   2.509   2.158
20989SOL     OW64863   2.134  11.684   2.247
20989SOL    HW164864   2.162  11.724   2.165
20989SOL    HW264865   2.060  11.737   2.276
20990SOL     OW64866  10.956   0.461   1.782
20990SOL    HW164867  11.034   0.515   1.771
20990SOL    HW264868  10.975   0.405   1.857
20991SOL     OW64869   2.774   0.843   6.882
20991SOL    HW164870   2.817   0.825   6.966
20991SOL    HW264871   2.812   0.778   6.822
20992SOL     OW64872   0.337   9.548   4.614
20992SOL    HW164873   0.348   9.482   4.545
20992SOL    HW264874   0.263   9.516   4.665
20993SOL     OW64875   9.892   8.668   8.140
20993SOL    HW164876   9.961   8.605   8.119
20993SOL    HW264877   9.852   8.688   8.056
20994SOL     OW64878   3.252  13.745  12.228
20994SOL    HW164879   3.208  13.744  12.313
20994SOL    HW264880   3.204  13.810  12.177
20995SOL     OW64881   5.727   7.580   3.674
20995SOL    HW164882   5.718   7.637   3.598
20995SOL    HW264883   5.735   7.639   3.749
20996SOL     OW64884   8.869  14.434  12.312
20996SOL    HW164885   8.910  14.373  12.250
20996SOL    HW264886   8.782  14.450  12.276
20997SOL     OW64887  14.771   9.946   8.774
20997SOL    HW164888  14.803  10.002   8.703
20997SOL    HW264889  14.827   9.966   8.848
20998SOL     OW64890   3.581  11.404   5.440
20998SOL    HW164891   3.506  11.462   5.434
20998SOL    HW264892   3.564  11.350   5.517
20999SOL     OW64893   1.989   4.493   0.441
20999SOL    HW164894   1.903   4.528   0.465
20999SOL    HW264895   2.022   4.454   0.522
21000SOL     OW64896   3.126   5.238   1.435
21000SOL    HW164897   3.215   5.211   1.457
21000SOL    HW264898   3.078   5.233   1.517
21001SOL     OW64899   6.975   2.261   1.629
21001SOL    HW164900   7.055   2.313   1.642
21001SOL    HW264901   6.995   2.205   1.554
21002SOL     OW64902   7.772  11.701  10.482
21002SOL    HW164903   7.765  11.796  10.494
21002SOL    HW264904   7.815  11.670  10.562
21003SOL     OW64905  13.091   9.443  14.021
21003SOL    HW164906  13.104   9.374  13.955
21003SOL    HW264907  13.004   9.424  14.058
21004SOL     OW64908  10.192   4.623   1.952
21004SOL    HW164909  10.195   4.660   2.041
21004SOL    HW264910  10.121   4.559   1.955
21005SOL     OW64911   0.090   5.918   3.408
21005SOL    HW164912   0.052   5.870   3.334
21005SOL    HW264913   0.146   5.984   3.367
21006SOL     OW64914  10.136   6.726   3.278
21006SOL    HW164915  10.089   6.676   3.212
21006SOL    HW264916  10.082   6.803   3.294
21007SOL     OW64917  13.398  14.872  13.280
21007SOL    HW164918  13.389  14.848  13.188
21007SOL    HW264919  13.340  14.811  13.327
21008SOL     OW64920   1.118  13.512  13.300
21008SOL    HW164921   1.200  13.494  13.254
21008SOL    HW264922   1.055  13.529  13.230
21009SOL     OW64923   4.577  11.454   4.880
21009SOL    HW164924   4.623  11.467   4.963
21009SOL    HW264925   4.646  11.430   4.818
21010SOL     OW64926   4.547  14.384  10.553
21010SOL    HW164927   4.561  14.291  10.536
21010SOL    HW264928   4.634  14.423  10.546
21011SOL     OW64929  13.187   2.518  12.193
21011SOL    HW164930  13.132   2.556  12.125
21011SOL    HW264931  13.125   2.485  12.258
21012SOL     OW64932  12.613   0.889   2.037
21012SOL    HW164933  12.666   0.865   1.961
21012SOL    HW264934  12.536   0.933   2.001
21013SOL     OW64935   1.465  14.686   0.513
21013SOL    HW164936   1.546  14.661   0.558
21013SOL    HW264937   1.487  14.680   0.420
21014SOL     OW64938   6.441   4.094   6.640
21014SOL    HW164939   6.484   4.159   6.695
21014SOL    HW264940   6.347   4.109   6.653
21015SOL     OW64941   9.534  12.351   2.050
21015SOL    HW164942   9.588  12.274   2.034
21015SOL    HW264943   9.519  12.389   1.964
21016SOL     OW64944   1.532  12.620   4.514
21016SOL    HW164945   1.457  12.646   4.461
21016SOL    HW264946   1.508  12.647   4.603
21017SOL     OW64947   1.320   4.483   2.814
21017SOL    HW164948   1.270   4.526   2.883
21017SOL    HW264949   1.331   4.392   2.844
21018SOL     OW64950   7.977  12.155   9.339
21018SOL    HW164951   8.022  12.218   9.395
21018SOL    HW264952   8.044  12.092   9.314
21019SOL     OW64953  13.109   2.461   2.065
21019SOL    HW164954  13.045   2.472   2.136
21019SOL    HW264955  13.149   2.376   2.083
21020SOL     OW64956  12.645   7.871  10.682
21020SOL    HW164957  12.636   7.948  10.626
21020SOL    HW264958  12.557   7.855  10.716
21021SOL     OW64959   5.795   2.394   4.096
21021SOL    HW164960   5.716   2.425   4.052
21021SOL    HW264961   5.763   2.353   4.177
21022SOL     OW64962   3.714   1.002   4.980
21022SOL    HW164963   3.647   0.964   4.923
21022SOL    HW264964   3.665   1.031   5.058
21023SOL     OW64965   4.611   2.296  12.821
21023SOL    HW164966   4.641   2.387  12.827
21023SOL    HW264967   4.520   2.302  12.794
21024SOL     OW64968   4.602   3.619   5.199
21024SOL    HW164969   4.589   3.547   5.261
21024SOL    HW264970   4.643   3.688   5.251
21025SOL     OW64971   3.211   9.472  13.015
21025SOL    HW164972   3.221   9.395  12.959
21025SOL    HW264973   3.119   9.470  13.042
21026SOL     OW64974   4.315   8.151   6.957
21026SOL    HW164975   4.275   8.233   6.985
21026SOL    HW264976   4.257   8.082   6.991
21027SOL     OW64977   0.168   9.750  13.385
21027SOL    HW164978   0.180   9.704  13.468
21027SOL    HW264979   0.208   9.693  13.319
21028SOL     OW64980   9.487  12.442  12.758
21028SOL    HW164981   9.399  12.416  12.785
21028SOL    HW264982   9.509  12.516  12.815
21029SOL     OW64983  14.113   1.790  13.406
21029SOL    HW164984  14.191   1.778  13.352
21029SOL    HW264985  14.061   1.712  13.390
21030SOL     OW64986   9.459  12.769   9.022
21030SOL    HW164987   9.479  12.755   9.114
21030SOL    HW264988   9.542  12.755   8.977
21031SOL     OW64989  10.387   2.208   5.679
21031SOL    HW164990  10.460   2.227   5.739
21031SOL    HW264991  10.430   2.178   5.599
21032SOL     OW64992   3.163   6.492   5.874
21032SOL    HW164993   3.126   6.517   5.790
21032SOL    HW264994   3.088   6.466   5.927
21033SOL     OW64995   5.782   8.857   4.991
21033SOL    HW164996   5.753   8.826   5.077
21033SOL    HW264997   5.771   8.952   4.994
21034SOL     OW64998  12.322  11.681   8.769
21034SOL    HW164999  12.358  11.623   8.702
21034SOL    HW265000  12.243  11.636   8.799
21035SOL     OW65001   1.787  14.284   0.137
21035SOL    HW165002   1.870  14.251   0.101
21035SOL    HW265003   1.785  14.250   0.226
21036SOL     OW65004  11.610  11.919   8.437
21036SOL    HW165005  11.540  11.868   8.398
21036SOL    HW265006  11.568  11.964   8.511
21037SOL     OW65007  12.049   7.530  11.413
21037SOL    HW165008  11.996   7.609  11.404
21037SOL    HW265009  11.985   7.459  11.419
21038SOL     OW65010   3.692   9.657  11.336
21038SOL    HW165011   3.699   9.667  11.241
21038SOL    HW265012   3.616   9.600  11.349
21039SOL     OW65013  13.425   9.189   9.177
21039SOL    HW165014  13.461   9.276   9.160
21039SOL    HW265015  13.427   9.181   9.272
21040SOL     OW65016   9.981   7.580  10.563
21040SOL    HW165017   9.986   7.652  10.501
21040SOL    HW265018   9.895   7.590  10.605
21041SOL     OW65019  14.675   0.158   5.377
21041SOL    HW165020  14.724   0.096   5.431
21041SOL    HW265021  14.740   0.224   5.352
21042SOL     OW65022   9.466  14.821   0.826
21042SOL    HW165023   9.434   0.001   0.900
21042SOL    HW265024   9.438  14.871   0.749
21043SOL     OW65025   2.719   8.465  13.847
21043SOL    HW165026   2.655   8.471  13.917
21043SOL    HW265027   2.782   8.535  13.866
21044SOL     OW65028  13.498   0.941   4.646
21044SOL    HW165029  13.564   0.902   4.588
21044SOL    HW265030  13.548   0.976   4.720
21045SOL     OW65031  12.311   8.619  13.122
21045SOL    HW165032  12.317   8.687  13.189
21045SOL    HW265033  12.285   8.665  13.043
21046SOL     OW65034   1.629  10.711   3.816
21046SOL    HW165035   1.679  10.792   3.802
21046SOL    HW265036   1.647  10.688   3.907
21047SOL     OW65037   7.460   0.775  10.729
21047SOL    HW165038   7.496   0.815  10.650
21047SOL    HW265039   7.401   0.707  10.697
21048SOL     OW65040  13.863   0.456   8.354
21048SOL    HW165041  13.892   0.454   8.446
21048SOL    HW265042  13.915   0.389   8.311
21049SOL     OW65043   4.863  12.414   5.743
21049SOL    HW165044   4.900  12.486   5.793
21049SOL    HW265045   4.880  12.336   5.795
21050SOL     OW65046  10.688  14.025   9.955
21050SOL    HW165047  10.744  14.099   9.982
21050SOL    HW265048  10.616  14.065   9.908
21051SOL     OW65049   1.219   3.674  10.187
21051SOL    HW165050   1.230   3.583  10.162
21051SOL    HW265051   1.296   3.719  10.152
21052SOL     OW65052  11.855   8.300   9.156
21052SOL    HW165053  11.884   8.389   9.136
21052SOL    HW265054  11.929   8.245   9.132
21053SOL     OW65055  14.484   0.230   5.101
21053SOL    HW165056  14.547   0.290   5.139
21053SOL    HW265057  14.402   0.280   5.096
21054SOL     OW65058  13.483   4.342   3.161
21054SOL    HW165059  13.428   4.281   3.111
21054SOL    HW265060  13.423   4.385   3.221
21055SOL     OW65061  10.841   3.392   9.057
21055SOL    HW165062  10.816   3.382   9.148
21055SOL    HW265063  10.761   3.373   9.007
21056SOL     OW65064  14.707   3.244   0.178
21056SOL    HW165065  14.667   3.164   0.144
21056SOL    HW265066  14.768   3.214   0.245
21057SOL     OW65067  10.552   5.829   1.207
21057SOL    HW165068  10.477   5.887   1.219
21057SOL    HW265069  10.619   5.863   1.266
21058SOL     OW65070  10.817   9.716   0.638
21058SOL    HW165071  10.757   9.641   0.639
21058SOL    HW265072  10.901   9.678   0.609
21059SOL     OW65073  11.602  12.569  14.398
21059SOL    HW165074  11.584  12.662  14.413
21059SOL    HW265075  11.553  12.523  14.467
21060SOL     OW65076  11.894  13.744   1.565
21060SOL    HW165077  11.968  13.758   1.506
21060SOL    HW265078  11.820  13.724   1.507
21061SOL     OW65079   7.839   6.075   3.708
21061SOL    HW165080   7.811   5.988   3.679
21061SOL    HW265081   7.815   6.133   3.636
21062SOL     OW65082   6.868  10.108  12.037
21062SOL    HW165083   6.943  10.131  11.982
21062SOL    HW265084   6.907  10.076  12.119
21063SOL     OW65085   0.757   5.010   1.949
21063SOL    HW165086   0.792   4.975   2.031
21063SOL    HW265087   0.714   4.936   1.908
21064SOL     OW65088   1.286  10.962  14.183
21064SOL    HW165089   1.218  10.941  14.248
21064SOL    HW265090   1.266  10.905  14.109
21065SOL     OW65091  10.466   4.285   0.497
21065SOL    HW165092  10.422   4.264   0.579
21065SOL    HW265093  10.558   4.297   0.521
21066SOL     OW65094   2.108   4.150  13.605
21066SOL    HW165095   2.151   4.230  13.577
21066SOL    HW265096   2.094   4.162  13.699
21067SOL     OW65097   7.563   9.281   7.477
21067SOL    HW165098   7.624   9.353   7.464
21067SOL    HW265099   7.484   9.322   7.511
21068SOL     OW65100   9.735   3.058   5.230
21068SOL    HW165101   9.673   3.013   5.288
21068SOL    HW265102   9.724   3.151   5.252
21069SOL     OW65103   1.812   2.098   6.359
21069SOL    HW165104   1.738   2.128   6.412
21069SOL    HW265105   1.781   2.105   6.269
21070SOL     OW65106   9.840  12.663   2.379
21070SOL    HW165107   9.776  12.600   2.349
21070SOL    HW265108   9.796  12.711   2.449
21071SOL     OW65109   6.090   5.031  10.342
21071SOL    HW165110   6.031   4.994  10.408
21071SOL    HW265111   6.120   5.114  10.380
21072SOL     OW65112  12.389   5.060   5.605
21072SOL    HW165113  12.443   4.993   5.564
21072SOL    HW265114  12.383   5.129   5.539
21073SOL     OW65115  14.781  13.709  12.004
21073SOL    HW165116  14.736  13.629  12.032
21073SOL    HW265117  14.781  13.765  12.082
21074SOL     OW65118   9.029  14.363   1.320
21074SOL    HW165119   9.048  14.455   1.341
21074SOL    HW265120   9.115  14.321   1.317
21075SOL     OW65121   7.386   2.428   8.546
21075SOL    HW165122   7.427   2.345   8.570
21075SOL    HW265123   7.359   2.415   8.455
21076SOL     OW65124   0.056   5.368   0.148
21076SOL    HW165125  14.839   5.370   0.183
21076SOL    HW265126   0.086   5.459   0.153
21077SOL     OW65127   1.150   7.687   1.572
21077SOL    HW165128   1.236   7.670   1.611
21077SOL    HW265129   1.106   7.602   1.573
21078SOL     OW65130  12.781   2.863   8.384
21078SOL    HW165131  12.751   2.935   8.329
21078SOL    HW265132  12.864   2.893   8.420
21079SOL     OW65133  10.125   5.299   5.526
21079SOL    HW165134  10.095   5.231   5.466
21079SOL    HW265135  10.212   5.270   5.554
21080SOL     OW65136   0.147   5.131  13.586
21080SOL    HW165137   0.131   5.129  13.492
21080SOL    HW265138   0.060   5.129  13.626
21081SOL     OW65139   3.153   4.354   9.423
21081SOL    HW165140   3.062   4.366   9.447
21081SOL    HW265141   3.188   4.294   9.489
21082SOL     OW65142   7.024   1.369   3.502
21082SOL    HW165143   7.086   1.389   3.573
21082SOL    HW265144   7.015   1.274   3.506
21083SOL     OW65145   8.124  13.630  10.112
21083SOL    HW165146   8.042  13.596  10.077
21083SOL    HW265147   8.135  13.715  10.070
21084SOL     OW65148   5.485   1.578   2.317
21084SOL    HW165149   5.529   1.530   2.387
21084SOL    HW265150   5.545   1.570   2.242
21085SOL     OW65151   9.348  14.706  11.054
21085SOL    HW165152   9.332  14.735  11.144
21085SOL    HW265153   9.318  14.778  11.000
21086SOL     OW65154   5.868  11.610   7.481
21086SOL    HW165155   5.885  11.686   7.537
21086SOL    HW265156   5.852  11.647   7.394
21087SOL     OW65157  11.545   5.423  14.291
21087SOL    HW165158  11.485   5.351  14.311
21087SOL    HW265159  11.536   5.437  14.197
21088SOL     OW65160  12.492   7.854   9.567
21088SOL    HW165161  12.567   7.794   9.578
21088SOL    HW265162  12.447   7.851   9.651
21089SOL     OW65163  10.754  13.805   5.769
21089SOL    HW165164  10.818  13.876   5.763
21089SOL    HW265165  10.676  13.846   5.807
21090SOL     OW65166   3.798   9.087   3.169
21090SOL    HW165167   3.757   9.093   3.255
21090SOL    HW265168   3.856   9.163   3.165
21091SOL     OW65169   0.945   3.433  14.494
21091SOL    HW165170   0.995   3.374  14.437
21091SOL    HW265171   0.908   3.376  14.561
21092SOL     OW65172  14.257  13.224   5.095
21092SOL    HW165173  14.171  13.265   5.082
21092SOL    HW265174  14.264  13.213   5.190
21093SOL     OW65175   4.229  14.332   9.137
21093SOL    HW165176   4.260  14.286   9.214
21093SOL    HW265177   4.138  14.303   9.126
21094SOL     OW65178  13.807   1.871  13.093
21094SOL    HW165179  13.820   1.958  13.053
21094SOL    HW265180  13.803   1.811  13.018
21095SOL     OW65181   1.940   5.812  12.046
21095SOL    HW165182   1.925   5.885  12.105
21095SOL    HW265183   1.951   5.852  11.960
21096SOL     OW65184   8.345  10.586   2.606
21096SOL    HW165185   8.316  10.570   2.516
21096SOL    HW265186   8.301  10.667   2.631
21097SOL     OW65187   4.995   8.252   1.263
21097SOL    HW165188   5.069   8.206   1.223
21097SOL    HW265189   5.007   8.344   1.238
21098SOL     OW65190   0.398  13.630   1.385
21098SOL    HW165191   0.440  13.602   1.466
21098SOL    HW265192   0.435  13.573   1.318
21099SOL     OW65193   7.783   3.379  13.347
21099SOL    HW165194   7.704   3.431  13.361
21099SOL    HW265195   7.757   3.315  13.281
21100SOL     OW65196  14.830   5.637   2.569
21100SOL    HW165197  14.802   5.660   2.480
21100SOL    HW265198  14.845   5.721   2.612
21101SOL     OW65199   0.038   3.538   3.790
21101SOL    HW165200  14.845   3.499   3.850
21101SOL    HW265201   0.102   3.468   3.778
21102SOL     OW65202   9.759   9.080  12.335
21102SOL    HW165203   9.835   9.034  12.300
21102SOL    HW265204   9.793   9.163  12.369
21103SOL     OW65205  12.002   4.665   6.345
21103SOL    HW165206  12.069   4.628   6.403
21103SOL    HW265207  12.044   4.740   6.304
21104SOL     OW65208  13.118   9.675   9.018
21104SOL    HW165209  13.027   9.647   9.022
21104SOL    HW265210  13.142   9.668   8.926
21105SOL     OW65211   1.717   9.611   3.796
21105SOL    HW165212   1.790   9.561   3.832
21105SOL    HW265213   1.754   9.696   3.775
21106SOL     OW65214   2.069   8.843  12.038
21106SOL    HW165215   2.165   8.838  12.034
21106SOL    HW265216   2.047   8.922  11.989
21107SOL     OW65217   2.377   7.435  13.348
21107SOL    HW165218   2.391   7.394  13.263
21107SOL    HW265219   2.313   7.379  13.392
21108SOL     OW65220  13.644   1.046   4.837
21108SOL    HW165221  13.648   1.141   4.848
21108SOL    HW265222  13.734   1.021   4.815
21109SOL     OW65223  12.724   8.002  10.918
21109SOL    HW165224  12.733   7.971  10.828
21109SOL    HW265225  12.764   8.089  10.918
21110SOL     OW65226   3.843  14.297   9.296
21110SOL    HW165227   3.837  14.206   9.325
21110SOL    HW265228   3.864  14.346   9.376
21111SOL     OW65229   3.186   0.935   1.593
21111SOL    HW165230   3.155   0.880   1.520
21111SOL    HW265231   3.110   0.988   1.616
21112SOL     OW65232   2.601   2.770   4.901
21112SOL    HW165233   2.648   2.687   4.912
21112SOL    HW265234   2.622   2.820   4.981
21113SOL     OW65235  13.346   2.308  11.252
21113SOL    HW165236  13.291   2.354  11.315
21113SOL    HW265237  13.288   2.242  11.214
21114SOL     OW65238  11.735  10.545   1.736
21114SOL    HW165239  11.826  10.542   1.707
21114SOL    HW265240  11.718  10.458   1.769
21115SOL     OW65241  12.698  13.502   1.215
21115SOL    HW165242  12.685  13.514   1.120
21115SOL    HW265243  12.620  13.455   1.244
21116SOL     OW65244   2.380  13.474   9.831
21116SOL    HW165245   2.461  13.427   9.849
21116SOL    HW265246   2.405  13.545   9.772
21117SOL     OW65247  13.467   0.406   0.555
21117SOL    HW165248  13.456   0.379   0.464
21117SOL    HW265249  13.557   0.382   0.577
21118SOL     OW65250  10.980  10.150   4.712
21118SOL    HW165251  10.926  10.204   4.770
21118SOL    HW265252  11.026  10.214   4.657
21119SOL     OW65253   1.067  10.505   0.093
21119SOL    HW165254   1.068  10.409   0.087
21119SOL    HW265255   1.070  10.535   0.003
21120SOL     OW65256  14.580  11.354   2.451
21120SOL    HW165257  14.511  11.318   2.508
21120SOL    HW265258  14.578  11.448   2.469
21121SOL     OW65259  10.748  12.707   6.083
21121SOL    HW165260  10.778  12.794   6.056
21121SOL    HW265261  10.659  12.701   6.050
21122SOL     OW65262   2.135   7.378   5.063
21122SOL    HW165263   2.060   7.344   5.014
21122SOL    HW265264   2.104   7.384   5.153
21123SOL     OW65265   4.344   8.240   8.317
21123SOL    HW165266   4.266   8.289   8.343
21123SOL    HW265267   4.383   8.294   8.247
21124SOL     OW65268  13.725   8.068   6.600
21124SOL    HW165269  13.750   7.976   6.608
21124SOL    HW265270  13.631   8.066   6.583
21125SOL     OW65271   7.917   7.162   0.090
21125SOL    HW165272   7.909   7.194   0.180
21125SOL    HW265273   7.926   7.242   0.038
21126SOL     OW65274  11.696   7.978  13.445
21126SOL    HW165275  11.718   8.036  13.371
21126SOL    HW265276  11.624   8.023  13.489
21127SOL     OW65277  12.037   2.358  10.093
21127SOL    HW165278  12.125   2.365  10.055
21127SOL    HW265279  12.001   2.277  10.056
21128SOL     OW65280  11.031   0.017  13.193
21128SOL    HW165281  10.970   0.086  13.217
21128SOL    HW265282  11.023   0.009  13.098
21129SOL     OW65283   6.757   7.486  14.161
21129SOL    HW165284   6.702   7.427  14.110
21129SOL    HW265285   6.713   7.571  14.155
21130SOL     OW65286   3.068  12.535  14.658
21130SOL    HW165287   3.059  12.443  14.633
21130SOL    HW265288   3.054  12.535  14.753
21131SOL     OW65289   3.061  10.169  10.322
21131SOL    HW165290   3.075  10.085  10.366
21131SOL    HW265291   2.971  10.193  10.344
21132SOL     OW65292  14.156   4.827   7.301
21132SOL    HW165293  14.208   4.765   7.251
21132SOL    HW265294  14.095   4.772   7.351
21133SOL     OW65295   1.804   0.134   4.196
21133SOL    HW165296   1.888   0.088   4.199
21133SOL    HW265297   1.743   0.071   4.157
21134SOL     OW65298   9.224   7.945   6.797
21134SOL    HW165299   9.250   7.992   6.877
21134SOL    HW265300   9.295   7.882   6.783
21135SOL     OW65301  10.201   0.391   6.307
21135SOL    HW165302  10.161   0.452   6.244
21135SOL    HW265303  10.148   0.401   6.386
21136SOL     OW65304   3.707   8.977   6.427
21136SOL    HW165305   3.621   9.016   6.444
21136SOL    HW265306   3.769   9.034   6.472
21137SOL     OW65307   5.686   4.499  12.203
21137SOL    HW165308   5.701   4.567  12.269
21137SOL    HW265309   5.696   4.544  12.120
21138SOL     OW65310   7.763   3.558   0.618
21138SOL    HW165311   7.848   3.556   0.574
21138SOL    HW265312   7.756   3.473   0.661
21139SOL     OW65313   5.836   2.975   8.716
21139SOL    HW165314   5.905   2.936   8.662
21139SOL    HW265315   5.789   3.033   8.656
21140SOL     OW65316   3.122  10.502   5.902
21140SOL    HW165317   3.059  10.433   5.926
21140SOL    HW265318   3.206  10.470   5.933
21141SOL     OW65319   8.643   4.411  12.564
21141SOL    HW165320   8.729   4.443  12.588
21141SOL    HW265321   8.637   4.427  12.470
21142SOL     OW65322   2.455  13.830   5.803
21142SOL    HW165323   2.425  13.846   5.713
21142SOL    HW265324   2.544  13.863   5.804
21143SOL     OW65325  14.264   3.097  12.174
21143SOL    HW165326  14.358   3.109  12.179
21143SOL    HW265327  14.244   3.096  12.081
21144SOL     OW65328   2.866  12.169   3.192
21144SOL    HW165329   2.936  12.230   3.218
21144SOL    HW265330   2.805  12.170   3.266
21145SOL     OW65331   1.479   9.481   5.896
21145SOL    HW165332   1.494   9.470   5.990
21145SOL    HW265333   1.406   9.543   5.891
21146SOL     OW65334   4.363  14.181   7.229
21146SOL    HW165335   4.349  14.087   7.245
21146SOL    HW265336   4.306  14.201   7.156
21147SOL     OW65337   6.827   1.616  12.029
21147SOL    HW165338   6.868   1.617  12.115
21147SOL    HW265339   6.787   1.529  12.023
21148SOL     OW65340   4.183   4.219  11.135
21148SOL    HW165341   4.131   4.241  11.058
21148SOL    HW265342   4.274   4.228  11.107
21149SOL     OW65343   4.362   1.810   2.976
21149SOL    HW165344   4.425   1.823   3.047
21149SOL    HW265345   4.319   1.727   2.997
21150SOL     OW65346   0.247   4.015   5.744
21150SOL    HW165347   0.230   4.068   5.666
21150SOL    HW265348   0.253   4.079   5.815
21151SOL     OW65349   8.904  14.821   9.845
21151SOL    HW165350   8.869   0.006   9.914
21151SOL    HW265351   8.850  14.841   9.769
21152SOL     OW65352  11.044  13.332   1.731
21152SOL    HW165353  11.119  13.292   1.687
21152SOL    HW265354  11.081  13.369   1.812
21153SOL     OW65355  14.287   4.282   8.993
21153SOL    HW165356  14.364   4.248   8.947
21153SOL    HW265357  14.299   4.254   9.084
21154SOL     OW65358   2.407   6.811   0.602
21154SOL    HW165359   2.314   6.817   0.581
21154SOL    HW265360   2.413   6.847   0.691
21155SOL     OW65361   6.964   5.767   9.158
21155SOL    HW165362   6.916   5.841   9.195
21155SOL    HW265363   6.898   5.700   9.144
21156SOL     OW65364   4.085   6.473  11.103
21156SOL    HW165365   4.110   6.408  11.168
21156SOL    HW265366   4.166   6.494  11.057
21157SOL     OW65367   7.596   8.004   5.248
21157SOL    HW165368   7.579   7.940   5.179
21157SOL    HW265369   7.691   8.001   5.261
21158SOL     OW65370  14.123   8.805   1.249
21158SOL    HW165371  14.039   8.788   1.292
21158SOL    HW265372  14.188   8.801   1.319
21159SOL     OW65373   9.803   5.412  14.833
21159SOL    HW165374   9.841   5.434  14.748
21159SOL    HW265375   9.811   5.492   0.013
21160SOL     OW65376   2.002   7.569   6.568
21160SOL    HW165377   2.050   7.575   6.485
21160SOL    HW265378   1.985   7.660   6.593
21161SOL     OW65379   7.952  10.369   3.013
21161SOL    HW165380   7.998  10.441   3.056
21161SOL    HW265381   7.883  10.413   2.961
21162SOL     OW65382   1.000   9.756   4.866
21162SOL    HW165383   0.937   9.828   4.866
21162SOL    HW265384   0.975   9.702   4.791
21163SOL     OW65385  14.037  12.035  10.288
21163SOL    HW165386  14.034  11.965  10.353
21163SOL    HW265387  13.982  12.104  10.324
21164SOL     OW65388   1.917   5.668   8.708
21164SOL    HW165389   1.937   5.700   8.796
21164SOL    HW265390   1.995   5.691   8.656
21165SOL     OW65391   5.292   8.778   5.269
21165SOL    HW165392   5.218   8.789   5.328
21165SOL    HW265393   5.369   8.784   5.326
21166SOL     OW65394  11.422   9.767  14.595
21166SOL    HW165395  11.405   9.820  14.517
21166SOL    HW265396  11.460   9.828  14.658
21167SOL     OW65397   1.871   1.344   9.205
21167SOL    HW165398   1.960   1.313   9.186
21167SOL    HW265399   1.817   1.306   9.135
21168SOL     OW65400  12.386   3.160   4.131
21168SOL    HW165401  12.416   3.069   4.139
21168SOL    HW265402  12.437   3.195   4.058
21169SOL     OW65403   2.829  10.152  11.382
21169SOL    HW165404   2.816  10.233  11.431
21169SOL    HW265405   2.867  10.180  11.299
21170SOL     OW65406   9.816   1.010   3.665
21170SOL    HW165407   9.842   0.929   3.710
21170SOL    HW265408   9.757   1.053   3.727
21171SOL     OW65409   4.619   6.310   2.725
21171SOL    HW165410   4.531   6.296   2.690
21171SOL    HW265411   4.678   6.284   2.655
21172SOL     OW65412   0.713   7.241   6.065
21172SOL    HW165413   0.757   7.172   6.114
21172SOL    HW265414   0.768   7.318   6.076
21173SOL     OW65415   2.902   0.565   9.975
21173SOL    HW165416   2.888   0.514   9.895
21173SOL    HW265417   2.914   0.500  10.043
21174SOL     OW65418  14.384  14.352   3.045
21174SOL    HW165419  14.358  14.305   3.124
21174SOL    HW265420  14.356  14.295   2.973
21175SOL     OW65421   9.249  10.058   6.986
21175SOL    HW165422   9.245   9.962   6.978
21175SOL    HW265423   9.338  10.081   6.959
21176SOL     OW65424   9.174   0.369   0.111
21176SOL    HW165425   9.216   0.383   0.026
21176SOL    HW265426   9.166   0.457   0.148
21177SOL     OW65427   3.732  12.827   6.513
21177SOL    HW165428   3.710  12.795   6.425
21177SOL    HW265429   3.826  12.816   6.520
21178SOL     OW65430   6.999   9.431   5.425
21178SOL    HW165431   6.964   9.342   5.435
21178SOL    HW265432   7.072   9.421   5.364
21179SOL     OW65433  12.441   7.475   3.887
21179SOL    HW165434  12.431   7.567   3.911
21179SOL    HW265435  12.465   7.432   3.970
21180SOL     OW65436   7.311   4.689   1.138
21180SOL    HW165437   7.223   4.655   1.122
21180SOL    HW265438   7.301   4.784   1.136
21181SOL     OW65439   7.966   1.023   5.059
21181SOL    HW165440   7.945   1.004   4.967
21181SOL    HW265441   8.053   1.061   5.056
21182SOL     OW65442   2.631   5.649   6.818
21182SOL    HW165443   2.670   5.722   6.865
21182SOL    HW265444   2.688   5.575   6.838
21183SOL     OW65445   6.361   1.173   8.074
21183SOL    HW165446   6.267   1.158   8.059
21183SOL    HW265447   6.403   1.150   7.991
21184SOL     OW65448  11.363   8.524   0.772
21184SOL    HW165449  11.412   8.507   0.852
21184SOL    HW265450  11.289   8.578   0.799
21185SOL     OW65451   3.231  13.119   3.846
21185SOL    HW165452   3.258  13.044   3.793
21185SOL    HW265453   3.138  13.129   3.827
21186SOL     OW65454  11.535   7.989   4.913
21186SOL    HW165455  11.530   8.085   4.920
21186SOL    HW265456  11.628   7.971   4.904
21187SOL     OW65457   8.648   9.805   2.494
21187SOL    HW165458   8.603   9.773   2.416
21187SOL    HW265459   8.719   9.860   2.460
21188SOL     OW65460  11.018   1.790  11.074
21188SOL    HW165461  11.065   1.778  11.156
21188SOL    HW265462  11.023   1.704  11.030
21189SOL     OW65463  12.763  13.673   1.919
21189SOL    HW165464  12.801  13.605   1.975
21189SOL    HW265465  12.773  13.753   1.970
21190SOL     OW65466   4.445   8.220  10.896
21190SOL    HW165467   4.532   8.192  10.926
21190SOL    HW265468   4.398   8.139  10.880
21191SOL     OW65469   4.224   2.938   3.317
21191SOL    HW165470   4.225   3.032   3.332
21191SOL    HW265471   4.270   2.926   3.233
21192SOL     OW65472   4.395  11.521  13.153
21192SOL    HW165473   4.324  11.574  13.190
21192SOL    HW265474   4.423  11.570  13.076
21193SOL     OW65475   4.906  11.872  12.497
21193SOL    HW165476   4.838  11.836  12.440
21193SOL    HW265477   4.860  11.896  12.578
21194SOL     OW65478   2.000   4.570   2.444
21194SOL    HW165479   2.084   4.570   2.398
21194SOL    HW265480   2.022   4.548   2.534
21195SOL     OW65481  13.906  11.767  11.120
21195SOL    HW165482  13.867  11.839  11.069
21195SOL    HW265483  13.998  11.790  11.126
21196SOL     OW65484   7.632  14.284  14.322
21196SOL    HW165485   7.638  14.190  14.307
21196SOL    HW265486   7.667  14.297  14.410
21197SOL     OW65487  11.324   7.680   9.906
21197SOL    HW165488  11.305   7.600   9.855
21197SOL    HW265489  11.282   7.750   9.857
21198SOL     OW65490  12.660   2.051  10.361
21198SOL    HW165491  12.648   2.141  10.331
21198SOL    HW265492  12.671   2.000  10.281
21199SOL     OW65493   2.377  11.754  13.999
21199SOL    HW165494   2.445  11.720  14.057
21199SOL    HW265495   2.373  11.691  13.927
21200SOL     OW65496   5.397   6.456  11.045
21200SOL    HW165497   5.402   6.512  10.967
21200SOL    HW265498   5.325   6.396  11.027
21201SOL     OW65499  10.661   6.153   0.724
21201SOL    HW165500  10.590   6.153   0.789
21201SOL    HW265501  10.711   6.232   0.743
21202SOL     OW65502   2.720   3.380   3.338
21202SOL    HW165503   2.780   3.315   3.374
21202SOL    HW265504   2.762   3.464   3.356
21203SOL     OW65505   0.323  11.246   8.891
21203SOL    HW165506   0.292  11.308   8.956
21203SOL    HW265507   0.375  11.183   8.941
21204SOL     OW65508  11.921  12.552  10.569
21204SOL    HW165509  11.981  12.616  10.531
21204SOL    HW265510  11.967  12.468  10.558
21205SOL     OW65511   5.091  14.740   5.365
21205SOL    HW165512   5.018  14.752   5.305
21205SOL    HW265513   5.164  14.712   5.309
21206SOL     OW65514   2.399   9.090   2.983
21206SOL    HW165515   2.440   9.021   2.931
21206SOL    HW265516   2.428   9.171   2.941
21207SOL     OW65517  14.402   7.981   5.181
21207SOL    HW165518  14.370   8.071   5.189
21207SOL    HW265519  14.488   7.990   5.140
21208SOL     OW65520   6.501   4.068  12.912
21208SOL    HW165521   6.484   4.129  12.984
21208SOL    HW265522   6.462   4.110  12.836
21209SOL     OW65523  14.533   9.190   0.394
21209SOL    HW165524  14.473   9.153   0.459
21209SOL    HW265525  14.619   9.186   0.435
21210SOL     OW65526   1.095  13.425  10.858
21210SOL    HW165527   1.002  13.402  10.857
21210SOL    HW265528   1.107  13.483  10.782
21211SOL     OW65529  14.761   8.438   0.461
21211SOL    HW165530  14.689   8.428   0.523
21211SOL    HW265531  14.830   8.483   0.510
21212SOL     OW65532   9.131   1.171  13.976
21212SOL    HW165533   9.048   1.190  14.019
21212SOL    HW265534   9.195   1.168  14.047
21213SOL     OW65535  14.537   1.369  13.491
21213SOL    HW165536  14.505   1.314  13.419
21213SOL    HW265537  14.487   1.340  13.567
21214SOL     OW65538   7.080  11.413   9.527
21214SOL    HW165539   7.022  11.468   9.475
21214SOL    HW265540   7.134  11.367   9.463
21215SOL     OW65541   7.668   4.381  12.041
21215SOL    HW165542   7.756   4.400  12.009
21215SOL    HW265543   7.615   4.455  12.011
21216SOL     OW65544   1.385   4.780  14.395
21216SOL    HW165545   1.407   4.687  14.402
21216SOL    HW265546   1.468   4.823  14.379
21217SOL     OW65547   5.361   1.140   6.366
21217SOL    HW165548   5.423   1.189   6.312
21217SOL    HW265549   5.287   1.123   6.307
21218SOL     OW65550   5.735   5.560  12.102
21218SOL    HW165551   5.716   5.621  12.174
21218SOL    HW265552   5.665   5.576  12.039
21219SOL     OW65553  14.832   1.862  12.019
21219SOL    HW165554  14.766   1.813  11.970
21219SOL    HW265555  14.870   1.797  12.078
21220SOL     OW65556   3.996  12.139   3.581
21220SOL    HW165557   4.081  12.176   3.605
21220SOL    HW265558   3.937  12.169   3.650
21221SOL     OW65559  12.066   4.223   5.233
21221SOL    HW165560  11.972   4.230   5.247
21221SOL    HW265561  12.077   4.144   5.179
21222SOL     OW65562  14.575   1.258   4.744
21222SOL    HW165563  14.614   1.261   4.831
21222SOL    HW265564  14.643   1.222   4.688
21223SOL     OW65565   7.409   8.223   2.378
21223SOL    HW165566   7.463   8.151   2.344
21223SOL    HW265567   7.326   8.215   2.332
21224SOL     OW65568   6.035  13.529  11.880
21224SOL    HW165569   6.002  13.444  11.907
21224SOL    HW265570   6.080  13.512  11.797
21225SOL     OW65571  13.125   3.011  13.556
21225SOL    HW165572  13.193   2.979  13.497
21225SOL    HW265573  13.158   3.095  13.587
21226SOL     OW65574   5.142   3.734   6.631
21226SOL    HW165575   5.208   3.702   6.694
21226SOL    HW265576   5.173   3.821   6.607
21227SOL     OW65577   0.212   0.838   8.277
21227SOL    HW165578   0.291   0.891   8.289
21227SOL    HW265579   0.169   0.877   8.201
21228SOL     OW65580   6.028   9.718   0.453
21228SOL    HW165581   6.010   9.740   0.361
21228SOL    HW265582   6.122   9.706   0.457
21229SOL     OW65583   9.919  12.256  13.148
21229SOL    HW165584   9.858  12.239  13.076
21229SOL    HW265585   9.915  12.351  13.161
21230SOL     OW65586   2.243  10.222  13.181
21230SOL    HW165587   2.211  10.135  13.156
21230SOL    HW265588   2.291  10.253  13.105
21231SOL     OW65589  14.052   7.060   4.261
21231SOL    HW165590  14.113   7.016   4.321
21231SOL    HW265591  14.099   7.064   4.178
21232SOL     OW65592   9.275  12.384  11.291
21232SOL    HW165593   9.284  12.371  11.385
21232SOL    HW265594   9.349  12.439  11.267
21233SOL     OW65595   9.041  14.672   9.640
21233SOL    HW165596   9.009  14.701   9.726
21233SOL    HW265597   9.053  14.754   9.591
21234SOL     OW65598  10.387   0.000   8.587
21234SOL    HW165599  10.318   0.033   8.644
21234SOL    HW265600  10.464  14.864   8.644
21235SOL     OW65601  12.323   8.016  10.194
21235SOL    HW165602  12.268   7.945  10.161
21235SOL    HW265603  12.370   8.047  10.117
21236SOL     OW65604   7.353   5.089   5.165
21236SOL    HW165605   7.393   5.120   5.084
21236SOL    HW265606   7.410   5.019   5.195
21237SOL     OW65607   7.720   1.086   3.138
21237SOL    HW165608   7.704   1.166   3.088
21237SOL    HW265609   7.788   1.040   3.088
21238SOL     OW65610   6.178  11.860   9.646
21238SOL    HW165611   6.183  11.895   9.557
21238SOL    HW265612   6.196  11.767   9.636
21239SOL     OW65613  11.426  13.807  12.086
21239SOL    HW165614  11.430  13.736  12.022
21239SOL    HW265615  11.332  13.825  12.096
21240SOL     OW65616  12.136   7.577   2.223
21240SOL    HW165617  12.132   7.530   2.307
21240SOL    HW265618  12.127   7.509   2.157
21241SOL     OW65619   7.345  10.252  11.690
21241SOL    HW165620   7.262  10.299  11.687
21241SOL    HW265621   7.369  10.250  11.783
21242SOL     OW65622  12.041   5.539   4.704
21242SOL    HW165623  12.044   5.482   4.781
21242SOL    HW265624  11.981   5.610   4.728
21243SOL     OW65625  12.143   2.375   0.170
21243SOL    HW165626  12.087   2.453   0.171
21243SOL    HW265627  12.224   2.404   0.128
21244SOL     OW65628  14.349   6.637   2.175
21244SOL    HW165629  14.431   6.602   2.141
21244SOL    HW265630  14.284   6.569   2.157
21245SOL     OW65631   4.492  14.200  13.527
21245SOL    HW165632   4.529  14.161  13.448
21245SOL    HW265633   4.424  14.260  13.495
21246SOL     OW65634   8.565   8.135  10.133
21246SOL    HW165635   8.481   8.139  10.178
21246SOL    HW265636   8.543   8.151  10.041
21247SOL     OW65637   5.837   0.816   8.259
21247SOL    HW165638   5.899   0.775   8.199
21247SOL    HW265639   5.867   0.789   8.346
21248SOL     OW65640   2.285  13.491   1.982
21248SOL    HW165641   2.315  13.575   2.016
21248SOL    HW265642   2.229  13.514   1.908
21249SOL     OW65643   1.848  13.498  12.327
21249SOL    HW165644   1.803  13.533  12.250
21249SOL    HW265645   1.843  13.568  12.392
21250SOL     OW65646  12.059   2.174   4.746
21250SOL    HW165647  12.146   2.146   4.716
21250SOL    HW265648  12.025   2.098   4.793
21251SOL     OW65649  10.160   2.746  13.217
21251SOL    HW165650  10.094   2.715  13.280
21251SOL    HW265651  10.175   2.837  13.242
21252SOL     OW65652  11.186   2.714   2.988
21252SOL    HW165653  11.102   2.672   3.004
21252SOL    HW265654  11.239   2.693   3.064
21253SOL     OW65655  14.065   3.705   1.845
21253SOL    HW165656  14.018   3.785   1.869
21253SOL    HW265657  14.100   3.671   1.927
21254SOL     OW65658  13.511   7.745   1.216
21254SOL    HW165659  13.449   7.746   1.143
21254SOL    HW265660  13.456   7.745   1.294
21255SOL     OW65661   7.526  14.620   8.297
21255SOL    HW165662   7.579  14.546   8.268
21255SOL    HW265663   7.442  14.582   8.323
21256SOL     OW65664   8.253   3.441  14.749
21256SOL    HW165665   8.303   3.386  14.809
21256SOL    HW265666   8.168   3.397  14.742
21257SOL     OW65667  10.258   0.180   2.907
21257SOL    HW165668  10.236   0.111   2.844
21257SOL    HW265669  10.248   0.261   2.858
21258SOL     OW65670   6.927   8.213   3.470
21258SOL    HW165671   6.931   8.150   3.398
21258SOL    HW265672   6.990   8.281   3.445
21259SOL     OW65673  10.796  13.403   3.639
21259SOL    HW165674  10.840  13.483   3.612
21259SOL    HW265675  10.722  13.395   3.579
21260SOL     OW65676   8.032  11.733   8.721
21260SOL    HW165677   8.028  11.815   8.671
21260SOL    HW265678   8.095  11.751   8.791
21261SOL     OW65679   7.154   2.658   0.188
21261SOL    HW165680   7.233   2.706   0.162
21261SOL    HW265681   7.094   2.668   0.115
21262SOL     OW65682   7.993   9.462   6.921
21262SOL    HW165683   7.963   9.553   6.925
21262SOL    HW265684   7.937   9.417   6.984
21263SOL     OW65685   4.966   8.769  13.012
21263SOL    HW165686   4.945   8.686  12.971
21263SOL    HW265687   4.882   8.814  13.020
21264SOL     OW65688  10.071   6.802  11.208
21264SOL    HW165689  10.137   6.803  11.138
21264SOL    HW265690  10.026   6.886  11.201
21265SOL     OW65691   5.111  11.298  11.700
21265SOL    HW165692   5.123  11.264  11.789
21265SOL    HW265693   5.037  11.247  11.665
21266SOL     OW65694  10.591  12.136  10.865
21266SOL    HW165695  10.651  12.144  10.790
21266SOL    HW265696  10.543  12.055  10.850
21267SOL     OW65697   8.833  10.892   9.326
21267SOL    HW165698   8.800  10.857   9.409
21267SOL    HW265699   8.864  10.980   9.349
21268SOL     OW65700  10.855   4.251   2.735
21268SOL    HW165701  10.837   4.254   2.641
21268SOL    HW265702  10.769   4.253   2.777
21269SOL     OW65703   1.132  10.325   1.215
21269SOL    HW165704   1.044  10.321   1.180
21269SOL    HW265705   1.159  10.416   1.201
21270SOL     OW65706   6.643  12.974   5.600
21270SOL    HW165707   6.645  13.005   5.691
21270SOL    HW265708   6.696  12.895   5.601
21271SOL     OW65709   0.403   8.833   1.759
21271SOL    HW165710   0.319   8.787   1.752
21271SOL    HW265711   0.419   8.866   1.670
21272SOL     OW65712   0.979   9.821   7.093
21272SOL    HW165713   1.013   9.820   7.004
21272SOL    HW265714   1.032   9.756   7.139
21273SOL     OW65715  14.406   8.810   5.462
21273SOL    HW165716  14.343   8.841   5.398
21273SOL    HW265717  14.429   8.887   5.514
21274SOL     OW65718   8.543  12.039  14.269
21274SOL    HW165719   8.480  12.000  14.329
21274SOL    HW265720   8.604  11.969  14.248
21275SOL     OW65721  14.798   9.388   3.313
21275SOL    HW165722  14.822   9.296   3.305
21275SOL    HW265723   0.004   9.430   3.348
21276SOL     OW65724   4.998  11.084  13.723
21276SOL    HW165725   4.970  11.024  13.792
21276SOL    HW265726   4.929  11.150  13.719
21277SOL     OW65727   2.649  14.396   4.731
21277SOL    HW165728   2.666  14.350   4.649
21277SOL    HW265729   2.591  14.337   4.780
21278SOL     OW65730   9.163   8.005   7.381
21278SOL    HW165731   9.199   7.939   7.322
21278SOL    HW265732   9.161   8.085   7.329
21279SOL     OW65733  11.199  11.795  11.269
21279SOL    HW165734  11.172  11.795  11.361
21279SOL    HW265735  11.137  11.735  11.227
21280SOL     OW65736   0.431   2.707  14.246
21280SOL    HW165737   0.492   2.760  14.194
21280SOL    HW265738   0.412   2.631  14.192
21281SOL     OW65739   4.636   6.652   1.956
21281SOL    HW165740   4.556   6.694   1.923
21281SOL    HW265741   4.680   6.618   1.878
21282SOL     OW65742   4.847   9.746  13.529
21282SOL    HW165743   4.832   9.740  13.623
21282SOL    HW265744   4.802   9.671  13.492
21283SOL     OW65745   6.366  13.086  11.033
21283SOL    HW165746   6.346  12.993  11.033
21283SOL    HW265747   6.280  13.129  11.030
21284SOL     OW65748   9.442   8.906   6.700
21284SOL    HW165749   9.531   8.875   6.716
21284SOL    HW265750   9.419   8.956   6.779
21285SOL     OW65751  11.179   9.956   5.384
21285SOL    HW165752  11.258  10.010   5.376
21285SOL    HW265753  11.197   9.900   5.460
21286SOL     OW65754  10.203   4.611   9.755
21286SOL    HW165755  10.244   4.561   9.684
21286SOL    HW265756  10.272   4.669   9.786
21287SOL     OW65757  10.780   9.530   5.543
21287SOL    HW165758  10.849   9.593   5.521
21287SOL    HW265759  10.753   9.495   5.458
21288SOL     OW65760  14.304  10.980   9.384
21288SOL    HW165761  14.246  10.984   9.308
21288SOL    HW265762  14.250  11.011   9.457
21289SOL     OW65763   2.163   6.219   1.796
21289SOL    HW165764   2.133   6.135   1.759
21289SOL    HW265765   2.140   6.283   1.728
21290SOL     OW65766  14.520   3.467  14.525
21290SOL    HW165767  14.572   3.390  14.501
21290SOL    HW265768  14.444   3.464  14.467
21291SOL     OW65769   4.316   8.993   4.920
21291SOL    HW165770   4.364   8.961   4.844
21291SOL    HW265771   4.340   8.932   4.990
21292SOL     OW65772   9.703  11.242   0.608
21292SOL    HW165773   9.774  11.177   0.604
21292SOL    HW265774   9.748  11.326   0.617
21293SOL     OW65775  11.776  13.954  14.749
21293SOL    HW165776  11.860  13.928  14.711
21293SOL    HW265777  11.800  14.010  14.823
21294SOL     OW65778   5.301  12.671   5.350
21294SOL    HW165779   5.353  12.688   5.272
21294SOL    HW265780   5.338  12.590   5.386
21295SOL     OW65781  14.267   8.778   1.505
21295SOL    HW165782  14.196   8.784   1.569
21295SOL    HW265783  14.305   8.692   1.518
21296SOL     OW65784  11.527   6.124   1.666
21296SOL    HW165785  11.441   6.088   1.644
21296SOL    HW265786  11.510   6.191   1.732
21297SOL     OW65787   9.123  12.542   7.429
21297SOL    HW165788   9.166  12.481   7.369
21297SOL    HW265789   9.188  12.559   7.497
21298SOL     OW65790  12.177  12.406   2.908
21298SOL    HW165791  12.272  12.397   2.916
21298SOL    HW265792  12.165  12.472   2.840
21299SOL     OW65793  14.383   5.052   2.725
21299SOL    HW165794  14.380   5.063   2.820
21299SOL    HW265795  14.411   4.961   2.713
21300SOL     OW65796   1.931  12.441   8.133
21300SOL    HW165797   1.876  12.373   8.172
21300SOL    HW265798   1.982  12.475   8.207
21301SOL     OW65799   2.477  12.136   7.153
21301SOL    HW165800   2.436  12.222   7.145
21301SOL    HW265801   2.571  12.153   7.156
21302SOL     OW65802  11.769   3.184   7.703
21302SOL    HW165803  11.787   3.101   7.658
21302SOL    HW265804  11.698   3.163   7.764
21303SOL     OW65805  12.452   5.148   4.545
21303SOL    HW165806  12.424   5.233   4.510
21303SOL    HW265807  12.388   5.086   4.512
21304SOL     OW65808   9.286   9.704   6.363
21304SOL    HW165809   9.302   9.699   6.457
21304SOL    HW265810   9.239   9.787   6.352
21305SOL     OW65811   8.323  14.160   7.718
21305SOL    HW165812   8.322  14.255   7.706
21305SOL    HW265813   8.299  14.124   7.632
21306SOL     OW65814   4.100   0.481   2.753
21306SOL    HW165815   4.156   0.495   2.676
21306SOL    HW265816   4.060   0.566   2.769
21307SOL     OW65817  14.582   8.187  10.649
21307SOL    HW165818  14.524   8.155  10.579
21307SOL    HW265819  14.639   8.249  10.605
21308SOL     OW65820  12.970   7.867   9.353
21308SOL    HW165821  13.036   7.925   9.391
21308SOL    HW265822  12.886   7.906   9.379
21309SOL     OW65823   6.275   7.328   2.577
21309SOL    HW165824   6.292   7.234   2.570
21309SOL    HW265825   6.311   7.353   2.662
21310SOL     OW65826   7.696   9.228  10.737
21310SOL    HW165827   7.677   9.289  10.809
21310SOL    HW265828   7.618   9.173  10.731
21311SOL     OW65829   9.502  14.665   1.051
21311SOL    HW165830   9.423  14.612   1.047
21311SOL    HW265831   9.503  14.713   0.968
21312SOL     OW65832  14.630   3.897   6.467
21312SOL    HW165833  14.684   3.887   6.545
21312SOL    HW265834  14.556   3.837   6.481
21313SOL     OW65835   5.170   8.852   8.934
21313SOL    HW165836   5.175   8.832   8.840
21313SOL    HW265837   5.114   8.929   8.940
21314SOL     OW65838   8.983  10.877   3.661
21314SOL    HW165839   8.893  10.899   3.637
21314SOL    HW265840   8.988  10.897   3.754
21315SOL     OW65841   0.386  11.398  13.090
21315SOL    HW165842   0.468  11.390  13.043
21315SOL    HW265843   0.406  11.366  13.178
21316SOL     OW65844   6.182   4.022   5.890
21316SOL    HW165845   6.249   3.966   5.850
21316SOL    HW265846   6.099   3.988   5.856
21317SOL     OW65847  10.618   2.252   9.749
21317SOL    HW165848  10.688   2.221   9.692
21317SOL    HW265849  10.576   2.322   9.699
21318SOL     OW65850   2.304   1.838   7.543
21318SOL    HW165851   2.377   1.855   7.482
21318SOL    HW265852   2.344   1.839   7.629
21319SOL     OW65853   5.732   8.537   5.963
21319SOL    HW165854   5.815   8.542   5.916
21319SOL    HW265855   5.733   8.451   6.005
21320SOL     OW65856   1.808  13.958   4.144
21320SOL    HW165857   1.735  13.898   4.158
21320SOL    HW265858   1.842  13.975   4.232
21321SOL     OW65859   5.469   9.461   9.321
21321SOL    HW165860   5.526   9.533   9.294
21321SOL    HW265861   5.517   9.382   9.299
21322SOL     OW65862  11.303   7.741  11.698
21322SOL    HW165863  11.307   7.744  11.603
21322SOL    HW265864  11.386   7.779  11.726
21323SOL     OW65865  13.219   5.089   5.719
21323SOL    HW165866  13.213   5.175   5.678
21323SOL    HW265867  13.133   5.074   5.757
21324SOL     OW65868   1.004   2.562   4.186
21324SOL    HW165869   1.030   2.630   4.249
21324SOL    HW265870   0.929   2.519   4.228
21325SOL     OW65871  12.551   5.695   6.828
21325SOL    HW165872  12.645   5.716   6.827
21325SOL    HW265873  12.508   5.776   6.854
21326SOL     OW65874  13.407  13.474  10.433
21326SOL    HW165875  13.341  13.453  10.499
21326SOL    HW265876  13.363  13.456  10.349
21327SOL     OW65877   3.445  13.312  14.646
21327SOL    HW165878   3.476  13.296  14.557
21327SOL    HW265879   3.455  13.406  14.658
21328SOL     OW65880   6.003  10.967   8.850
21328SOL    HW165881   6.011  10.872   8.855
21328SOL    HW265882   5.985  10.995   8.939
21329SOL     OW65883   6.998  12.825   7.111
21329SOL    HW165884   6.924  12.776   7.077
21329SOL    HW265885   7.075  12.777   7.079
21330SOL     OW65886   7.670   4.460   1.499
21330SOL    HW165887   7.663   4.365   1.507
21330SOL    HW265888   7.612   4.482   1.427
21331SOL     OW65889   1.072   8.305  12.221
21331SOL    HW165890   1.076   8.223  12.172
21331SOL    HW265891   1.112   8.284  12.305
21332SOL     OW65892  11.924  11.119   1.195
21332SOL    HW165893  11.971  11.115   1.279
21332SOL    HW265894  11.966  11.051   1.141
21333SOL     OW65895  10.542   0.187  13.907
21333SOL    HW165896  10.513   0.218  13.822
21333SOL    HW265897  10.564   0.267  13.955
21334SOL     OW65898   4.868   6.168   8.541
21334SOL    HW165899   4.918   6.096   8.581
21334SOL    HW265900   4.885   6.243   8.597
21335SOL     OW65901  13.645   7.660   3.536
21335SOL    HW165902  13.595   7.602   3.480
21335SOL    HW265903  13.737   7.645   3.511
21336SOL     OW65904  11.073  13.042   0.132
21336SOL    HW165905  11.011  13.009   0.196
21336SOL    HW265906  11.056  12.990   0.053
21337SOL     OW65907   4.363   6.903   7.952
21337SOL    HW165908   4.426   6.973   7.966
21337SOL    HW265909   4.356   6.896   7.857
21338SOL     OW65910   1.835   1.916   3.797
21338SOL    HW165911   1.830   1.984   3.864
21338SOL    HW265912   1.744   1.904   3.768
21339SOL     OW65913  13.841  13.083   3.132
21339SOL    HW165914  13.850  13.028   3.054
21339SOL    HW265915  13.749  13.108   3.133
21340SOL     OW65916  11.795   9.939   9.360
21340SOL    HW165917  11.721   9.995   9.340
21340SOL    HW265918  11.802   9.940   9.456
21341SOL     OW65919   9.897   8.999  14.178
21341SOL    HW165920   9.961   8.928  14.167
21341SOL    HW265921   9.867   9.018  14.089
21342SOL     OW65922   7.550   0.343   8.439
21342SOL    HW165923   7.609   0.269   8.428
21342SOL    HW265924   7.497   0.321   8.515
21343SOL     OW65925   2.513   4.210   6.263
21343SOL    HW165926   2.514   4.241   6.172
21343SOL    HW265927   2.537   4.287   6.315
21344SOL     OW65928  11.899   2.631   2.027
21344SOL    HW165929  11.892   2.597   2.116
21344SOL    HW265930  11.810   2.658   2.005
21345SOL     OW65931   0.487  10.979   0.257
21345SOL    HW165932   0.512  10.972   0.165
21345SOL    HW265933   0.562  10.946   0.306
21346SOL     OW65934  11.749  13.500   9.054
21346SOL    HW165935  11.729  13.438   8.984
21346SOL    HW265936  11.755  13.447   9.133
21347SOL     OW65937  10.247  14.529  11.635
21347SOL    HW165938  10.215  14.566  11.718
21347SOL    HW265939  10.279  14.605  11.586
21348SOL     OW65940   5.589   8.997   5.519
21348SOL    HW165941   5.651   9.066   5.541
21348SOL    HW265942   5.538   9.033   5.446
21349SOL     OW65943   8.486   2.803  10.835
21349SOL    HW165944   8.506   2.718  10.797
21349SOL    HW265945   8.560   2.859  10.809
21350SOL     OW65946  11.131  14.442  11.178
21350SOL    HW165947  11.133  14.373  11.245
21350SOL    HW265948  11.160  14.520  11.224
21351SOL     OW65949   9.994   3.308   3.190
21351SOL    HW165950  10.002   3.222   3.149
21351SOL    HW265951  10.028   3.369   3.124
21352SOL     OW65952   7.038   4.543  12.331
21352SOL    HW165953   7.059   4.627  12.373
21352SOL    HW265954   6.946   4.529  12.350
21353SOL     OW65955   3.742   5.171  13.969
21353SOL    HW165956   3.715   5.079  13.961
21353SOL    HW265957   3.786   5.175  14.054
21354SOL     OW65958   1.229  11.270  11.759
21354SOL    HW165959   1.196  11.297  11.845
21354SOL    HW265960   1.169  11.311  11.697
21355SOL     OW65961   5.709   4.338   8.391
21355SOL    HW165962   5.713   4.374   8.480
21355SOL    HW265963   5.678   4.410   8.337
21356SOL     OW65964   4.589  13.469  12.753
21356SOL    HW165965   4.651  13.484  12.682
21356SOL    HW265966   4.594  13.375  12.771
21357SOL     OW65967   0.431   2.921  14.500
21357SOL    HW165968   0.417   2.866  14.577
21357SOL    HW265969   0.475   2.864  14.437
21358SOL     OW65970   5.809  10.551   0.599
21358SOL    HW165971   5.731  10.603   0.584
21358SOL    HW265972   5.877  10.615   0.622
21359SOL     OW65973   8.465   0.612   5.711
21359SOL    HW165974   8.445   0.683   5.772
21359SOL    HW265975   8.405   0.542   5.735
21360SOL     OW65976  11.839   5.897   2.639
21360SOL    HW165977  11.927   5.861   2.630
21360SOL    HW265978  11.853   5.991   2.648
21361SOL     OW65979   7.375   9.003   5.492
21361SOL    HW165980   7.295   9.031   5.447
21361SOL    HW265981   7.439   9.070   5.471
21362SOL     OW65982   7.747   1.427   5.502
21362SOL    HW165983   7.690   1.417   5.426
21362SOL    HW265984   7.734   1.346   5.552
21363SOL     OW65985   7.780   2.984   2.057
21363SOL    HW165986   7.774   2.992   2.152
21363SOL    HW265987   7.772   3.074   2.025
21364SOL     OW65988  10.901  10.952   8.802
21364SOL    HW165989  10.964  11.020   8.782
21364SOL    HW265990  10.852  10.939   8.721
21365SOL     OW65991   2.481  12.645  10.668
21365SOL    HW165992   2.526  12.580  10.722
21365SOL    HW265993   2.551  12.685  10.616
21366SOL     OW65994  10.235   9.876   7.657
21366SOL    HW165995  10.221   9.893   7.750
21366SOL    HW265996  10.182   9.942   7.613
21367SOL     OW65997   1.824   2.375   7.445
21367SOL    HW165998   1.845   2.366   7.352
21367SOL    HW265999   1.815   2.285   7.476
21368SOL     OW66000   0.701  11.162   8.554
21368SOL    HW166001   0.751  11.138   8.476
21368SOL    HW266002   0.722  11.254   8.569
21369SOL     OW66003   5.931   7.912  12.580
21369SOL    HW166004   5.904   7.857  12.654
21369SOL    HW266005   5.914   7.858  12.503
21370SOL     OW66006  13.846  11.977   7.303
21370SOL    HW166007  13.853  11.883   7.319
21370SOL    HW266008  13.753  11.997   7.309
21371SOL     OW66009  14.180  14.317   0.471
21371SOL    HW166010  14.216  14.233   0.441
21371SOL    HW266011  14.182  14.311   0.566
21372SOL     OW66012   0.757   4.510  10.480
21372SOL    HW166013   0.798   4.543  10.560
21372SOL    HW266014   0.797   4.424  10.468
21373SOL     OW66015   8.140   8.347   2.221
21373SOL    HW166016   8.162   8.384   2.136
21373SOL    HW266017   8.110   8.258   2.202
21374SOL     OW66018  14.111   9.767  13.433
21374SOL    HW166019  14.069   9.682  13.422
21374SOL    HW266020  14.091   9.792  13.523
21375SOL     OW66021  11.983   0.986   6.850
21375SOL    HW166022  12.071   0.993   6.887
21375SOL    HW266023  11.955   0.897   6.872
21376SOL     OW66024   8.440   2.032   7.293
21376SOL    HW166025   8.409   2.116   7.328
21376SOL    HW266026   8.379   2.010   7.223
21377SOL     OW66027  11.287   1.445   6.171
21377SOL    HW166028  11.204   1.492   6.174
21377SOL    HW266029  11.321   1.459   6.083
21378SOL     OW66030   6.409   3.310   0.647
21378SOL    HW166031   6.412   3.237   0.708
21378SOL    HW266032   6.357   3.377   0.692
21379SOL     OW66033   0.969  11.431  13.570
21379SOL    HW166034   0.936  11.520  13.585
21379SOL    HW266035   0.969  11.390  13.656
21380SOL     OW66036   6.915   0.176   9.533
21380SOL    HW166037   6.986   0.114   9.519
21380SOL    HW266038   6.899   0.174   9.628
21381SOL     OW66039  11.237   1.608   0.388
21381SOL    HW166040  11.146   1.586   0.369
21381SOL    HW266041  11.289   1.551   0.332
21382SOL     OW66042  13.826   9.160   7.087
21382SOL    HW166043  13.768   9.231   7.058
21382SOL    HW266044  13.811   9.154   7.181
21383SOL     OW66045   9.661   3.161   7.450
21383SOL    HW166046   9.616   3.220   7.511
21383SOL    HW266047   9.597   3.146   7.380
21384SOL     OW66048   6.632   0.496   4.296
21384SOL    HW166049   6.631   0.407   4.258
21384SOL    HW266050   6.699   0.542   4.245
21385SOL     OW66051  10.821   4.716   2.246
21385SOL    HW166052  10.842   4.663   2.168
21385SOL    HW266053  10.803   4.652   2.314
21386SOL     OW66054  13.207   3.753   4.933
21386SOL    HW166055  13.299   3.748   4.907
21386SOL    HW266056  13.208   3.803   5.015
21387SOL     OW66057   2.880  12.318  11.847
21387SOL    HW166058   2.856  12.226  11.840
21387SOL    HW266059   2.897  12.345  11.757
21388SOL     OW66060   2.625   5.949   2.393
21388SOL    HW166061   2.689   5.926   2.460
21388SOL    HW266062   2.541   5.952   2.440
21389SOL     OW66063   2.351  11.106   0.427
21389SOL    HW166064   2.261  11.097   0.459
21389SOL    HW266065   2.375  11.196   0.450
21390SOL     OW66066   1.027   2.996   3.658
21390SOL    HW166067   1.026   2.904   3.635
21390SOL    HW266068   0.950   3.009   3.713
21391SOL     OW66069  13.165   6.953  10.000
21391SOL    HW166070  13.223   6.930  10.072
21391SOL    HW266071  13.223   6.990   9.933
21392SOL     OW66072   1.235   1.225   3.514
21392SOL    HW166073   1.142   1.217   3.536
21392SOL    HW266074   1.260   1.312   3.545
21393SOL     OW66075   0.037  14.749   0.295
21393SOL    HW166076  14.833  14.795   0.331
21393SOL    HW266077   0.003  14.702   0.219
21394SOL     OW66078   7.673  13.603   5.163
21394SOL    HW166079   7.767  13.594   5.147
21394SOL    HW266080   7.651  13.526   5.216
21395SOL     OW66081   8.949   2.993   4.925
21395SOL    HW166082   8.971   3.002   5.017
21395SOL    HW266083   9.011   3.050   4.880
21396SOL     OW66084   8.384   8.751   9.651
21396SOL    HW166085   8.450   8.692   9.614
21396SOL    HW266086   8.363   8.812   9.580
21397SOL     OW66087  11.443   4.436   7.582
21397SOL    HW166088  11.493   4.369   7.629
21397SOL    HW266089  11.352   4.416   7.602
21398SOL     OW66090   2.922   1.238  12.240
21398SOL    HW166091   2.889   1.206  12.324
21398SOL    HW266092   2.845   1.241  12.184
21399SOL     OW66093   2.166   4.090   7.519
21399SOL    HW166094   2.093   4.029   7.509
21399SOL    HW266095   2.183   4.092   7.613
21400SOL     OW66096  10.490   6.768  13.342
21400SOL    HW166097  10.431   6.693  13.349
21400SOL    HW266098  10.576   6.734  13.365
21401SOL     OW66099   5.343   9.741   2.753
21401SOL    HW166100   5.370   9.702   2.670
21401SOL    HW266101   5.424   9.773   2.792
21402SOL     OW66102   5.306   0.099   1.067
21402SOL    HW166103   5.276   0.179   1.024
21402SOL    HW266104   5.227   0.045   1.075
21403SOL     OW66105   4.804   6.153   3.097
21403SOL    HW166106   4.884   6.204   3.089
21403SOL    HW266107   4.804   6.095   3.021
21404SOL     OW66108  12.350   0.284   3.090
21404SOL    HW166109  12.301   0.214   3.047
21404SOL    HW266110  12.314   0.288   3.179
21405SOL     OW66111  13.211   3.265   1.668
21405SOL    HW166112  13.282   3.217   1.711
21405SOL    HW266113  13.256   3.322   1.606
21406SOL     OW66114   0.878  10.644  10.858
21406SOL    HW166115   0.911  10.627  10.946
21406SOL    HW266116   0.794  10.598  10.855
21407SOL     OW66117   1.108  14.699  13.806
21407SOL    HW166118   1.019  14.673  13.780
21407SOL    HW266119   1.104  14.795  13.810
21408SOL     OW66120   8.232   5.591  10.248
21408SOL    HW166121   8.319   5.589  10.289
21408SOL    HW266122   8.173   5.568  10.319
21409SOL     OW66123   3.737   7.365  12.172
21409SOL    HW166124   3.793   7.306  12.222
21409SOL    HW266125   3.790   7.388  12.095
21410SOL     OW66126  13.915   3.524  12.967
21410SOL    HW166127  13.862   3.575  12.906
21410SOL    HW266128  14.004   3.555  12.955
21411SOL     OW66129   6.124   9.341   1.474
21411SOL    HW166130   6.097   9.260   1.429
21411SOL    HW266131   6.068   9.345   1.551
21412SOL     OW66132   2.988   1.203   7.484
21412SOL    HW166133   3.070   1.213   7.436
21412SOL    HW266134   2.920   1.223   7.420
21413SOL     OW66135   7.424   1.575   6.437
21413SOL    HW166136   7.405   1.492   6.480
21413SOL    HW266137   7.386   1.641   6.496
21414SOL     OW66138   6.132   8.806   7.630
21414SOL    HW166139   6.222   8.836   7.639
21414SOL    HW266140   6.128   8.767   7.542
21415SOL     OW66141   9.132   4.757   2.339
21415SOL    HW166142   9.110   4.727   2.428
21415SOL    HW266143   9.210   4.707   2.316
21416SOL     OW66144  14.383   3.192  11.544
21416SOL    HW166145  14.333   3.110  11.550
21416SOL    HW266146  14.361   3.227  11.458
21417SOL     OW66147   5.831  14.158   7.555
21417SOL    HW166148   5.775  14.177   7.631
21417SOL    HW266149   5.791  14.206   7.483
21418SOL     OW66150   6.765  13.581  13.647
21418SOL    HW166151   6.677  13.554  13.622
21418SOL    HW266152   6.755  13.670  13.680
21419SOL     OW66153   8.951   5.664   2.308
21419SOL    HW166154   8.994   5.675   2.393
21419SOL    HW266155   8.917   5.750   2.287
21420SOL     OW66156  12.179  14.316  11.418
21420SOL    HW166157  12.238  14.374  11.371
21420SOL    HW266158  12.146  14.369  11.490
21421SOL     OW66159  10.584   0.101  13.522
21421SOL    HW166160  10.553   0.086  13.433
21421SOL    HW266161  10.679   0.098  13.516
21422SOL     OW66162  13.740   4.865  11.115
21422SOL    HW166163  13.786   4.933  11.066
21422SOL    HW266164  13.783   4.784  11.090
21423SOL     OW66165  12.577  14.334   1.246
21423SOL    HW166166  12.484  14.327   1.227
21423SOL    HW266167  12.583  14.408   1.307
21424SOL     OW66168  12.758   5.854  10.249
21424SOL    HW166169  12.702   5.888  10.319
21424SOL    HW266170  12.713   5.879  10.168
21425SOL     OW66171   5.667  14.536  14.119
21425SOL    HW166172   5.719  14.584  14.184
21425SOL    HW266173   5.731  14.483  14.072
21426SOL     OW66174  11.310  12.002   2.895
21426SOL    HW166175  11.351  12.032   2.976
21426SOL    HW266176  11.359  11.924   2.871
21427SOL     OW66177   2.948   3.246   3.792
21427SOL    HW166178   3.028   3.201   3.818
21427SOL    HW266179   2.880   3.179   3.794
21428SOL     OW66180  10.414  10.885   9.919
21428SOL    HW166181  10.443  10.872   9.829
21428SOL    HW266182  10.357  10.811   9.938
21429SOL     OW66183   4.779   6.326  11.891
21429SOL    HW166184   4.721   6.349  11.819
21429SOL    HW266185   4.750   6.381  11.964
21430SOL     OW66186   5.737   0.005   7.303
21430SOL    HW166187   5.688  14.866   7.385
21430SOL    HW266188   5.709  14.805   7.248
21431SOL     OW66189   2.139  14.636   2.330
21431SOL    HW166190   2.218  14.690   2.326
21431SOL    HW266191   2.071  14.696   2.360
21432SOL     OW66192   2.465   6.731   1.837
21432SOL    HW166193   2.521   6.711   1.762
21432SOL    HW266194   2.422   6.649   1.857
21433SOL     OW66195   7.928  13.545   5.042
21433SOL    HW166196   7.961  13.635   5.046
21433SOL    HW266197   7.997  13.496   4.998
21434SOL     OW66198   0.555   1.698   0.574
21434SOL    HW166199   0.545   1.757   0.499
21434SOL    HW266200   0.509   1.618   0.547
21435SOL     OW66201   0.879   5.377  10.430
21435SOL    HW166202   0.956   5.433  10.421
21435SOL    HW266203   0.851   5.389  10.521
21436SOL     OW66204   1.343   9.074  14.446
21436SOL    HW166205   1.425   9.060  14.398
21436SOL    HW266206   1.371   9.094  14.535
21437SOL     OW66207   5.576   6.145  13.952
21437SOL    HW166208   5.597   6.227  13.996
21437SOL    HW266209   5.625   6.078  13.999
21438SOL     OW66210   2.683  14.136   5.221
21438SOL    HW166211   2.656  14.169   5.307
21438SOL    HW266212   2.775  14.164   5.212
21439SOL     OW66213   2.315  11.460   5.576
21439SOL    HW166214   2.348  11.516   5.646
21439SOL    HW266215   2.377  11.472   5.504
21440SOL     OW66216   7.204   6.385   0.803
21440SOL    HW166217   7.152   6.308   0.828
21440SOL    HW266218   7.255   6.356   0.728
21441SOL     OW66219   6.466  14.386  10.611
21441SOL    HW166220   6.379  14.384  10.572
21441SOL    HW266221   6.494  14.294  10.611
21442SOL     OW66222   0.275   8.007   8.582
21442SOL    HW166223   0.223   7.928   8.562
21442SOL    HW266224   0.210   8.076   8.592
21443SOL     OW66225   4.232   4.922   8.238
21443SOL    HW166226   4.157   4.894   8.290
21443SOL    HW266227   4.307   4.906   8.295
21444SOL     OW66228   8.627   1.434  11.304
21444SOL    HW166229   8.611   1.484  11.384
21444SOL    HW266230   8.719   1.450  11.284
21445SOL     OW66231   6.399  11.024   8.219
21445SOL    HW166232   6.361  11.004   8.133
21445SOL    HW266233   6.376  10.949   8.274
21446SOL     OW66234   5.978   2.316   9.924
21446SOL    HW166235   5.963   2.222   9.935
21446SOL    HW266236   5.926   2.357   9.993
21447SOL     OW66237   2.651   6.049   0.877
21447SOL    HW166238   2.624   6.043   0.785
21447SOL    HW266239   2.669   5.959   0.902
21448SOL     OW66240   0.902   9.225   6.807
21448SOL    HW166241   0.893   9.319   6.825
21448SOL    HW266242   0.812   9.196   6.791
21449SOL     OW66243  11.437  12.332  10.944
21449SOL    HW166244  11.362  12.290  10.902
21449SOL    HW266245  11.425  12.314  11.038
21450SOL     OW66246  10.057   2.112  11.217
21450SOL    HW166247  10.034   2.196  11.178
21450SOL    HW266248  10.032   2.047  11.152
21451SOL     OW66249   2.831   3.176   1.639
21451SOL    HW166250   2.773   3.100   1.638
21451SOL    HW266251   2.814   3.221   1.556
21452SOL     OW66252   0.493  13.879   5.507
21452SOL    HW166253   0.447  13.862   5.425
21452SOL    HW266254   0.467  13.968   5.531
21453SOL     OW66255   8.279   6.282   4.483
21453SOL    HW166256   8.219   6.220   4.524
21453SOL    HW266257   8.269   6.267   4.389
21454SOL     OW66258   9.005  13.960  13.754
21454SOL    HW166259   8.978  13.991  13.841
21454SOL    HW266260   8.938  13.995  13.695
21455SOL     OW66261   0.437   6.761   8.230
21455SOL    HW166262   0.501   6.755   8.158
21455SOL    HW266263   0.392   6.844   8.215
21456SOL     OW66264   1.491   5.470   7.184
21456SOL    HW166265   1.560   5.447   7.246
21456SOL    HW266266   1.486   5.566   7.190
21457SOL     OW66267   2.785   2.149  11.631
21457SOL    HW166268   2.879   2.148  11.651
21457SOL    HW266269   2.753   2.232  11.665
21458SOL     OW66270   2.031  14.352  11.699
21458SOL    HW166271   2.041  14.371  11.793
21458SOL    HW266272   1.995  14.432  11.662
21459SOL     OW66273   9.119   9.051   7.865
21459SOL    HW166274   9.093   9.108   7.792
21459SOL    HW266275   9.211   9.070   7.880
21460SOL     OW66276  13.804   5.265  10.624
21460SOL    HW166277  13.718   5.224  10.622
21460SOL    HW266278  13.862   5.197  10.658
21461SOL     OW66279  10.506   3.597  14.539
21461SOL    HW166280  10.552   3.533  14.486
21461SOL    HW266281  10.574   3.641  14.589
21462SOL     OW66282   3.757   9.123  10.695
21462SOL    HW166283   3.831   9.065  10.713
21462SOL    HW266284   3.710   9.128  10.778
21463SOL     OW66285   2.852   2.694   9.473
21463SOL    HW166286   2.815   2.732   9.553
21463SOL    HW266287   2.930   2.745   9.455
21464SOL     OW66288   8.611   2.378   9.524
21464SOL    HW166289   8.674   2.431   9.573
21464SOL    HW266290   8.527   2.397   9.564
21465SOL     OW66291   0.399   4.366  13.193
21465SOL    HW166292   0.422   4.420  13.116
21465SOL    HW266293   0.304   4.361  13.191
21466SOL     OW66294   4.038   1.424   4.456
21466SOL    HW166295   4.052   1.344   4.405
21466SOL    HW266296   3.958   1.463   4.419
21467SOL     OW66297   8.370  13.252  13.667
21467SOL    HW166298   8.320  13.196  13.607
21467SOL    HW266299   8.305  13.308  13.708
21468SOL     OW66300  13.128   8.223  12.645
21468SOL    HW166301  13.074   8.146  12.627
21468SOL    HW266302  13.125   8.274  12.564
21469SOL     OW66303   3.935   9.667  12.543
21469SOL    HW166304   3.861   9.718  12.509
21469SOL    HW266305   3.970   9.622  12.466
21470SOL     OW66306   0.121   7.822   1.312
21470SOL    HW166307   0.160   7.747   1.266
21470SOL    HW266308   0.196   7.869   1.348
21471SOL     OW66309   2.882   1.726  12.927
21471SOL    HW166310   2.832   1.790  12.876
21471SOL    HW266311   2.974   1.751  12.913
21472SOL     OW66312   7.673   3.150   9.599
21472SOL    HW166313   7.676   3.194   9.514
21472SOL    HW266314   7.581   3.152   9.624
21473SOL     OW66315   6.796   0.908   8.433
21473SOL    HW166316   6.711   0.885   8.395
21473SOL    HW266317   6.775   0.948   8.517
21474SOL     OW66318   3.089   6.395   2.416
21474SOL    HW166319   3.159   6.457   2.395
21474SOL    HW266320   3.128   6.309   2.400
21475SOL     OW66321   6.404   9.170   9.008
21475SOL    HW166322   6.464   9.125   8.949
21475SOL    HW266323   6.392   9.256   8.967
21476SOL     OW66324   2.826  12.982   5.516
21476SOL    HW166325   2.918  12.963   5.500
21476SOL    HW266326   2.818  12.982   5.612
21477SOL     OW66327   5.759  13.716   0.948
21477SOL    HW166328   5.780  13.727   0.856
21477SOL    HW266329   5.834  13.752   0.995
21478SOL     OW66330   3.116   8.267  11.169
21478SOL    HW166331   3.207   8.238  11.164
21478SOL    HW266332   3.105   8.325  11.094
21479SOL     OW66333  14.412   0.724   4.208
21479SOL    HW166334  14.412   0.707   4.114
21479SOL    HW266335  14.504   0.739   4.229
21480SOL     OW66336  12.658   9.303   3.305
21480SOL    HW166337  12.695   9.223   3.268
21480SOL    HW266338  12.733   9.348   3.344
21481SOL     OW66339   8.044   2.469   6.031
21481SOL    HW166340   8.039   2.517   5.948
21481SOL    HW266341   7.993   2.522   6.092
21482SOL     OW66342  13.853  11.841   9.936
21482SOL    HW166343  13.864  11.909   9.870
21482SOL    HW266344  13.807  11.884  10.008
21483SOL     OW66345   7.569   2.900   7.497
21483SOL    HW166346   7.567   2.992   7.525
21483SOL    HW266347   7.519   2.854   7.565
21484SOL     OW66348   9.641   7.677   2.591
21484SOL    HW166349   9.582   7.730   2.644
21484SOL    HW266350   9.584   7.620   2.539
21485SOL     OW66351  12.322   2.694  10.847
21485SOL    HW166352  12.361   2.727  10.767
21485SOL    HW266353  12.326   2.599  10.840
21486SOL     OW66354   3.184   3.495  13.891
21486SOL    HW166355   3.245   3.523  13.958
21486SOL    HW266356   3.168   3.573  13.838
21487SOL     OW66357   2.635  14.366   2.917
21487SOL    HW166358   2.675  14.297   2.864
21487SOL    HW266359   2.644  14.335   3.007
21488SOL     OW66360   1.181   6.139   7.712
21488SOL    HW166361   1.106   6.095   7.751
21488SOL    HW266362   1.257   6.090   7.744
21489SOL     OW66363   1.446   4.420   4.348
21489SOL    HW166364   1.419   4.442   4.259
21489SOL    HW266365   1.364   4.403   4.395
21490SOL     OW66366   5.028   4.739   7.318
21490SOL    HW166367   4.946   4.695   7.294
21490SOL    HW266368   5.012   4.832   7.300
21491SOL     OW66369   5.987   5.547   8.563
21491SOL    HW166370   6.012   5.467   8.517
21491SOL    HW266371   5.977   5.521   8.654
21492SOL     OW66372   0.524   4.417   5.310
21492SOL    HW166373   0.545   4.337   5.358
21492SOL    HW266374   0.608   4.461   5.298
21493SOL     OW66375  10.495   7.301  11.774
21493SOL    HW166376  10.573   7.247  11.780
21493SOL    HW266377  10.516   7.367  11.708
21494SOL     OW66378   1.150  12.506  14.541
21494SOL    HW166379   1.141  12.431  14.481
21494SOL    HW266380   1.135  12.582  14.486
21495SOL     OW66381  11.594   9.936  12.347
21495SOL    HW166382  11.592   9.919  12.253
21495SOL    HW266383  11.508   9.972  12.367
21496SOL     OW66384  12.637   8.032   7.211
21496SOL    HW166385  12.586   7.963   7.168
21496SOL    HW266386  12.724   7.995   7.221
21497SOL     OW66387  11.786   7.180  12.314
21497SOL    HW166388  11.811   7.087  12.314
21497SOL    HW266389  11.796   7.207  12.405
21498SOL     OW66390   5.055   5.412  12.014
21498SOL    HW166391   5.054   5.424  12.109
21498SOL    HW266392   4.962   5.403  11.991
21499SOL     OW66393   5.353   2.806   2.171
21499SOL    HW166394   5.363   2.715   2.197
21499SOL    HW266395   5.435   2.828   2.127
21500SOL     OW66396   7.815   2.275  10.706
21500SOL    HW166397   7.765   2.348  10.742
21500SOL    HW266398   7.772   2.255  10.622
21501SOL     OW66399   1.166  10.035   7.484
21501SOL    HW166400   1.238  10.078   7.440
21501SOL    HW266401   1.177   9.942   7.463
21502SOL     OW66402   3.930   4.378   0.546
21502SOL    HW166403   3.918   4.285   0.563
21502SOL    HW266404   3.855   4.420   0.589
21503SOL     OW66405   0.065  12.135  12.150
21503SOL    HW166406   0.020  12.220  12.144
21503SOL    HW266407   0.020  12.079  12.087
21504SOL     OW66408   7.819  12.106   7.159
21504SOL    HW166409   7.860  12.077   7.241
21504SOL    HW266410   7.774  12.187   7.183
21505SOL     OW66411  10.388   9.048   7.720
21505SOL    HW166412  10.317   8.992   7.751
21505SOL    HW266413  10.444   9.059   7.797
21506SOL     OW66414   7.453   5.063  11.725
21506SOL    HW166415   7.445   5.122  11.800
21506SOL    HW266416   7.502   5.112  11.660
21507SOL     OW66417   1.742  14.544   0.172
21507SOL    HW166418   1.765  14.451   0.177
21507SOL    HW266419   1.781  14.575   0.091
21508SOL     OW66420  12.083  14.484  11.616
21508SOL    HW166421  12.080  14.436  11.699
21508SOL    HW266422  12.009  14.545  11.621
21509SOL     OW66423   5.144   5.330   3.325
21509SOL    HW166424   5.154   5.422   3.301
21509SOL    HW266425   5.232   5.301   3.349
21510SOL     OW66426   2.857  10.558   1.837
21510SOL    HW166427   2.810  10.499   1.896
21510SOL    HW266428   2.842  10.645   1.873
21511SOL     OW66429   0.161   9.090   1.739
21511SOL    HW166430   0.253   9.118   1.738
21511SOL    HW266431   0.118   9.147   1.676
21512SOL     OW66432   7.069   7.101   0.178
21512SOL    HW166433   6.994   7.056   0.217
21512SOL    HW266434   7.065   7.190   0.214
21513SOL     OW66435  11.461   9.311   2.258
21513SOL    HW166436  11.449   9.385   2.317
21513SOL    HW266437  11.461   9.234   2.314
21514SOL     OW66438   6.134   1.760   8.512
21514SOL    HW166439   6.194   1.688   8.532
21514SOL    HW266440   6.192   1.835   8.497
21515SOL     OW66441   7.744   4.776   8.017
21515SOL    HW166442   7.733   4.715   8.090
21515SOL    HW266443   7.662   4.825   8.014
21516SOL     OW66444   1.172   2.217   9.360
21516SOL    HW166445   1.215   2.192   9.278
21516SOL    HW266446   1.079   2.216   9.340
21517SOL     OW66447  12.132  10.988   4.403
21517SOL    HW166448  12.130  11.025   4.492
21517SOL    HW266449  12.210  11.028   4.363
21518SOL     OW66450   1.795  14.543   4.771
21518SOL    HW166451   1.809  14.485   4.846
21518SOL    HW266452   1.796  14.486   4.695
21519SOL     OW66453  11.222   5.152   3.798
21519SOL    HW166454  11.180   5.205   3.866
21519SOL    HW266455  11.270   5.215   3.744
21520SOL     OW66456  14.581   3.650   4.794
21520SOL    HW166457  14.514   3.711   4.825
21520SOL    HW266458  14.547   3.563   4.816
21521SOL     OW66459   7.204   5.861   3.214
21521SOL    HW166460   7.122   5.836   3.258
21521SOL    HW266461   7.264   5.882   3.286
21522SOL     OW66462   1.138   3.105   3.878
21522SOL    HW166463   1.077   3.082   3.808
21522SOL    HW266464   1.221   3.120   3.833
21523SOL     OW66465   1.583   4.567  14.416
21523SOL    HW166466   1.596   4.488  14.469
21523SOL    HW266467   1.651   4.628  14.446
21524SOL     OW66468   9.524   4.476   9.129
21524SOL    HW166469   9.550   4.405   9.070
21524SOL    HW266470   9.588   4.545   9.114
21525SOL     OW66471   8.033  14.337  13.626
21525SOL    HW166472   8.121  14.329  13.589
21525SOL    HW266473   8.003  14.247  13.637
21526SOL     OW66474  14.353   3.854   5.775
21526SOL    HW166475  14.385   3.829   5.688
21526SOL    HW266476  14.406   3.801   5.835
21527SOL     OW66477   6.503  12.740   7.054
21527SOL    HW166478   6.446  12.669   7.083
21527SOL    HW266479   6.549  12.767   7.133
21528SOL     OW66480   3.345   0.654   5.580
21528SOL    HW166481   3.430   0.613   5.597
21528SOL    HW266482   3.299   0.591   5.525
21529SOL     OW66483   5.389   9.394  14.081
21529SOL    HW166484   5.300   9.380  14.049
21529SOL    HW266485   5.427   9.306  14.084
21530SOL     OW66486   8.939   6.360   9.673
21530SOL    HW166487   8.937   6.337   9.766
21530SOL    HW266488   8.986   6.443   9.671
21531SOL     OW66489   8.604   5.609   9.949
21531SOL    HW166490   8.536   5.541   9.953
21531SOL    HW266491   8.627   5.615   9.857
21532SOL     OW66492   1.137  11.175   1.657
21532SOL    HW166493   1.071  11.125   1.609
21532SOL    HW266494   1.213  11.178   1.598
21533SOL     OW66495  12.051  10.298  12.423
21533SOL    HW166496  11.978  10.257  12.470
21533SOL    HW266497  12.072  10.235  12.353
21534SOL     OW66498  13.840  12.102   6.323
21534SOL    HW166499  13.767  12.106   6.384
21534SOL    HW266500  13.917  12.119   6.377
21535SOL     OW66501  13.349  10.156   6.649
21535SOL    HW166502  13.398  10.138   6.569
21535SOL    HW266503  13.346  10.072   6.694
21536SOL     OW66504  12.677   6.369  14.104
21536SOL    HW166505  12.691   6.284  14.062
21536SOL    HW266506  12.754   6.421  14.081
21537SOL     OW66507   4.911   6.463  11.050
21537SOL    HW166508   4.862   6.389  11.016
21537SOL    HW266509   4.873   6.539  11.006
21538SOL     OW66510   4.237  12.812   0.338
21538SOL    HW166511   4.254  12.719   0.320
21538SOL    HW266512   4.169  12.836   0.276
21539SOL     OW66513   4.680   3.897  12.609
21539SOL    HW166514   4.682   3.964  12.541
21539SOL    HW266515   4.616   3.930  12.672
21540SOL     OW66516   4.613   5.937   0.506
21540SOL    HW166517   4.703   5.964   0.486
21540SOL    HW266518   4.618   5.897   0.593
21541SOL     OW66519   7.307   8.626   5.440
21541SOL    HW166520   7.225   8.663   5.472
21541SOL    HW266521   7.280   8.560   5.376
21542SOL     OW66522  10.848   5.003  13.479
21542SOL    HW166523  10.821   4.959  13.398
21542SOL    HW266524  10.773   5.058  13.503
21543SOL     OW66525   4.533   8.740   8.698
21543SOL    HW166526   4.565   8.746   8.788
21543SOL    HW266527   4.611   8.755   8.644
21544SOL     OW66528   8.647   2.820   2.043
21544SOL    HW166529   8.725   2.873   2.055
21544SOL    HW266530   8.662   2.742   2.097
21545SOL     OW66531   3.790   0.622   4.378
21545SOL    HW166532   3.788   0.665   4.464
21545SOL    HW266533   3.764   0.532   4.395
21546SOL     OW66534   9.041   8.093  12.354
21546SOL    HW166535   9.013   8.155  12.287
21546SOL    HW266536   9.137   8.091  12.346
21547SOL     OW66537   9.253   2.828   1.477
21547SOL    HW166538   9.347   2.850   1.474
21547SOL    HW266539   9.230   2.808   1.387
21548SOL     OW66540   0.392   7.926   0.406
21548SOL    HW166541   0.395   7.831   0.419
21548SOL    HW266542   0.307   7.942   0.366
21549SOL     OW66543   6.601   7.340   6.905
21549SOL    HW166544   6.556   7.420   6.880
21549SOL    HW266545   6.694   7.360   6.896
21550SOL     OW66546   4.046   0.692   7.276
21550SOL    HW166547   3.984   0.749   7.231
21550SOL    HW266548   4.110   0.752   7.314
21551SOL     OW66549   5.045   8.126   7.876
21551SOL    HW166550   4.979   8.142   7.809
21551SOL    HW266551   5.055   8.030   7.877
21552SOL     OW66552  11.549   4.671   3.421
21552SOL    HW166553  11.473   4.613   3.413
21552SOL    HW266554  11.579   4.659   3.511
21553SOL     OW66555  14.547   6.289   6.394
21553SOL    HW166556  14.585   6.236   6.324
21553SOL    HW266557  14.569   6.379   6.371
21554SOL     OW66558   5.286   2.858   8.642
21554SOL    HW166559   5.376   2.834   8.619
21554SOL    HW266560   5.262   2.924   8.576
21555SOL     OW66561  10.027   7.477   5.449
21555SOL    HW166562  10.040   7.485   5.544
21555SOL    HW266563   9.998   7.563   5.421
21556SOL     OW66564   6.905   4.838   2.539
21556SOL    HW166565   6.974   4.839   2.473
21556SOL    HW266566   6.841   4.902   2.508
21557SOL     OW66567   6.109   1.412   4.158
21557SOL    HW166568   6.016   1.393   4.165
21557SOL    HW266569   6.113   1.485   4.096
21558SOL     OW66570   6.432  11.117   5.429
21558SOL    HW166571   6.495  11.100   5.498
21558SOL    HW266572   6.395  11.032   5.408
21559SOL     OW66573   8.595  13.121  14.123
21559SOL    HW166574   8.513  13.105  14.169
21559SOL    HW266575   8.587  13.071  14.042
21560SOL     OW66576   9.694   9.892   8.196
21560SOL    HW166577   9.777   9.862   8.234
21560SOL    HW266578   9.699   9.865   8.105
21561SOL     OW66579   1.158   0.893  13.819
21561SOL    HW166580   1.207   0.908  13.738
21561SOL    HW266581   1.098   0.968  13.823
21562SOL     OW66582   9.324  12.424   8.260
21562SOL    HW166583   9.296  12.456   8.175
21562SOL    HW266584   9.328  12.329   8.250
21563SOL     OW66585   8.075   4.520   3.219
21563SOL    HW166586   8.096   4.594   3.162
21563SOL    HW266587   8.151   4.511   3.276
21564SOL     OW66588  11.779   7.856   4.904
21564SOL    HW166589  11.873   7.848   4.885
21564SOL    HW266590  11.752   7.768   4.928
21565SOL     OW66591   7.552  12.778  14.805
21565SOL    HW166592   7.506  12.768  14.722
21565SOL    HW266593   7.487  12.818  14.864
21566SOL     OW66594   4.665   6.464   0.878
21566SOL    HW166595   4.579   6.436   0.846
21566SOL    HW266596   4.718   6.475   0.799
21567SOL     OW66597   7.133   8.765  13.910
21567SOL    HW166598   7.184   8.697  13.867
21567SOL    HW266599   7.092   8.721  13.985
21568SOL     OW66600  14.254   0.810   3.577
21568SOL    HW166601  14.177   0.763   3.609
21568SOL    HW266602  14.281   0.761   3.499
21569SOL     OW66603   2.733   1.951  10.163
21569SOL    HW166604   2.748   1.868  10.118
21569SOL    HW266605   2.821   1.984  10.182
21570SOL     OW66606   6.611  10.615   6.773
21570SOL    HW166607   6.535  10.566   6.741
21570SOL    HW266608   6.630  10.577   6.858
21571SOL     OW66609   4.829  11.241   6.507
21571SOL    HW166610   4.818  11.150   6.536
21571SOL    HW266611   4.910  11.240   6.455
21572SOL     OW66612   6.992   3.256   8.292
21572SOL    HW166613   6.898   3.252   8.311
21572SOL    HW266614   7.006   3.346   8.259
21573SOL     OW66615   4.262   1.188  10.096
21573SOL    HW166616   4.183   1.236  10.071
21573SOL    HW266617   4.323   1.256  10.125
21574SOL     OW66618   2.663   2.553   8.274
21574SOL    HW166619   2.605   2.536   8.200
21574SOL    HW266620   2.671   2.468   8.318
21575SOL     OW66621   9.348  13.871  10.303
21575SOL    HW166622   9.266  13.838  10.265
21575SOL    HW266623   9.400  13.792  10.318
21576SOL     OW66624  10.451   5.799  12.368
21576SOL    HW166625  10.376   5.858  12.362
21576SOL    HW266626  10.438   5.736  12.298
21577SOL     OW66627  13.767   1.658   3.034
21577SOL    HW166628  13.766   1.741   2.985
21577SOL    HW266629  13.814   1.597   2.977
21578SOL     OW66630   2.113   5.184   6.993
21578SOL    HW166631   2.180   5.188   7.061
21578SOL    HW266632   2.030   5.184   7.041
21579SOL     OW66633  14.172   5.360  11.318
21579SOL    HW166634  14.263   5.355  11.288
21579SOL    HW266635  14.129   5.417  11.254
21580SOL     OW66636   4.062   6.124  14.320
21580SOL    HW166637   3.998   6.136  14.390
21580SOL    HW266638   4.012   6.083  14.249
21581SOL     OW66639   7.858   4.054  13.190
21581SOL    HW166640   7.898   3.973  13.160
21581SOL    HW266641   7.928   4.119  13.183
21582SOL     OW66642   2.518  14.315  12.548
21582SOL    HW166643   2.451  14.271  12.496
21582SOL    HW266644   2.470  14.353  12.622
21583SOL     OW66645   4.345  12.890   2.593
21583SOL    HW166646   4.252  12.889   2.568
21583SOL    HW266647   4.364  12.801   2.621
21584SOL     OW66648  14.252   8.155   8.055
21584SOL    HW166649  14.241   8.140   8.149
21584SOL    HW266650  14.297   8.239   8.049
21585SOL     OW66651   6.400   0.327   1.068
21585SOL    HW166652   6.477   0.285   1.107
21585SOL    HW266653   6.429   0.353   0.980
21586SOL     OW66654   7.559   0.224  13.262
21586SOL    HW166655   7.479   0.250  13.217
21586SOL    HW266656   7.629   0.269  13.214
21587SOL     OW66657  12.610   2.090   5.180
21587SOL    HW166658  12.554   2.015   5.201
21587SOL    HW266659  12.694   2.069   5.220
21588SOL     OW66660  14.120   5.324   2.085
21588SOL    HW166661  14.103   5.236   2.051
21588SOL    HW266662  14.163   5.309   2.169
21589SOL     OW66663  11.569   4.755  12.416
21589SOL    HW166664  11.661   4.739  12.439
21589SOL    HW266665  11.520   4.722  12.491
21590SOL     OW66666   8.878   5.937  11.000
21590SOL    HW166667   8.883   5.953  11.094
21590SOL    HW266668   8.948   5.874  10.982
21591SOL     OW66669  10.339   7.187  11.966
21591SOL    HW166670  10.389   7.213  11.888
21591SOL    HW266671  10.405   7.177  12.035
21592SOL     OW66672   6.038   4.536   6.717
21592SOL    HW166673   6.031   4.440   6.715
21592SOL    HW266674   6.095   4.557   6.644
21593SOL     OW66675  14.395   0.479   9.781
21593SOL    HW166676  14.397   0.416   9.709
21593SOL    HW266677  14.486   0.506   9.791
21594SOL     OW66678   9.385   3.636   2.636
21594SOL    HW166679   9.386   3.542   2.654
21594SOL    HW266680   9.293   3.656   2.616
21595SOL     OW66681   9.057  12.970   5.733
21595SOL    HW166682   9.092  12.993   5.647
21595SOL    HW266683   9.112  12.896   5.761
21596SOL     OW66684   4.870   5.272   0.624
21596SOL    HW166685   4.833   5.184   0.626
21596SOL    HW266686   4.853   5.304   0.535
21597SOL     OW66687   3.084   5.200   0.375
21597SOL    HW166688   3.022   5.187   0.303
21597SOL    HW266689   3.156   5.249   0.336
21598SOL     OW66690  12.676  10.869  14.014
21598SOL    HW166691  12.599  10.861  14.071
21598SOL    HW266692  12.658  10.811  13.940
21599SOL     OW66693  10.271  11.357   5.027
21599SOL    HW166694  10.270  11.286   5.092
21599SOL    HW266695  10.194  11.340   4.972
21600SOL     OW66696   7.325  10.598  13.946
21600SOL    HW166697   7.333  10.517  13.895
21600SOL    HW266698   7.233  10.622  13.940
21601SOL     OW66699   9.533  11.265  11.485
21601SOL    HW166700   9.586  11.263  11.564
21601SOL    HW266701   9.579  11.208  11.423
21602SOL     OW66702   9.664   1.645   8.238
21602SOL    HW166703   9.702   1.695   8.310
21602SOL    HW266704   9.570   1.663   8.243
21603SOL     OW66705  14.786   2.829   1.333
21603SOL    HW166706  14.826   2.859   1.251
21603SOL    HW266707  14.732   2.754   1.307
21604SOL     OW66708   2.603  12.399   7.795
21604SOL    HW166709   2.605  12.324   7.854
21604SOL    HW266710   2.605  12.476   7.853
21605SOL     OW66711   5.086   3.328   8.237
21605SOL    HW166712   5.062   3.358   8.149
21605SOL    HW266713   5.088   3.233   8.231
21606SOL     OW66714  12.367  12.685  13.114
21606SOL    HW166715  12.344  12.600  13.077
21606SOL    HW266716  12.330  12.684  13.202
21607SOL     OW66717  14.844   2.103   7.503
21607SOL    HW166718   0.053   2.051   7.508
21607SOL    HW266719  14.858   2.175   7.565
21608SOL     OW66720   7.184   5.881  14.354
21608SOL    HW166721   7.240   5.918  14.286
21608SOL    HW266722   7.243   5.864  14.427
21609SOL     OW66723   7.082   4.877   0.589
21609SOL    HW166724   7.103   4.958   0.542
21609SOL    HW266725   7.099   4.898   0.681
21610SOL     OW66726   4.565   8.098   1.783
21610SOL    HW166727   4.547   8.145   1.865
21610SOL    HW266728   4.658   8.078   1.786
21611SOL     OW66729   8.593   4.498   4.408
21611SOL    HW166730   8.520   4.486   4.348
21611SOL    HW266731   8.555   4.540   4.485
21612SOL     OW66732   6.972  13.077   3.019
21612SOL    HW166733   6.901  13.130   2.982
21612SOL    HW266734   7.046  13.137   3.025
21613SOL     OW66735  11.186  14.309  13.584
21613SOL    HW166736  11.233  14.392  13.577
21613SOL    HW266737  11.168  14.300  13.678
21614SOL     OW66738  10.602  11.809   3.517
21614SOL    HW166739  10.604  11.715   3.535
21614SOL    HW266740  10.668  11.822   3.449
21615SOL     OW66741   7.058  13.845  10.792
21615SOL    HW166742   7.114  13.886  10.858
21615SOL    HW266743   6.970  13.871  10.817
21616SOL     OW66744  14.258   0.527   5.541
21616SOL    HW166745  14.213   0.609   5.520
21616SOL    HW266746  14.188   0.463   5.554
21617SOL     OW66747   4.293   7.291  11.289
21617SOL    HW166748   4.272   7.287  11.383
21617SOL    HW266749   4.207   7.297  11.246
21618SOL     OW66750   5.338  13.825  13.166
21618SOL    HW166751   5.328  13.903  13.111
21618SOL    HW266752   5.432  13.807  13.164
21619SOL     OW66753  14.220   7.570   5.704
21619SOL    HW166754  14.275   7.494   5.687
21619SOL    HW266755  14.278   7.634   5.745
21620SOL     OW66756   3.731   7.401  10.094
21620SOL    HW166757   3.812   7.409  10.043
21620SOL    HW266758   3.687   7.485  10.082
21621SOL     OW66759  10.487   2.154   1.824
21621SOL    HW166760  10.568   2.104   1.817
21621SOL    HW266761  10.463   2.175   1.734
21622SOL     OW66762   8.355  10.903  13.986
21622SOL    HW166763   8.274  10.897  14.036
21622SOL    HW266764   8.419  10.939  14.048
21623SOL     OW66765   4.514  10.458   4.808
21623SOL    HW166766   4.493  10.459   4.902
21623SOL    HW266767   4.463  10.385   4.772
21624SOL     OW66768  12.713   9.151   4.409
21624SOL    HW166769  12.649   9.108   4.353
21624SOL    HW266770  12.797   9.135   4.366
21625SOL     OW66771   9.648  11.346   5.079
21625SOL    HW166772   9.726  11.390   5.113
21625SOL    HW266773   9.683  11.277   5.022
21626SOL     OW66774   3.634  13.619   3.113
21626SOL    HW166775   3.630  13.524   3.112
21626SOL    HW266776   3.696  13.640   3.183
21627SOL     OW66777   2.224   1.677  12.267
21627SOL    HW166778   2.319   1.677  12.255
21627SOL    HW266779   2.212   1.654  12.359
21628SOL     OW66780   9.597  14.459   0.352
21628SOL    HW166781   9.691  14.457   0.366
21628SOL    HW266782   9.567  14.370   0.372
21629SOL     OW66783   1.428  10.421   3.218
21629SOL    HW166784   1.384  10.463   3.144
21629SOL    HW266785   1.490  10.360   3.177
21630SOL     OW66786   4.724   7.508   4.154
21630SOL    HW166787   4.817   7.511   4.129
21630SOL    HW266788   4.719   7.564   4.232
21631SOL     OW66789   5.394   1.781   3.864
21631SOL    HW166790   5.352   1.760   3.947
21631SOL    HW266791   5.326   1.768   3.798
21632SOL     OW66792   8.731   1.362  13.288
21632SOL    HW166793   8.711   1.442  13.239
21632SOL    HW266794   8.647   1.319  13.299
21633SOL     OW66795  10.947   5.538   2.792
21633SOL    HW166796  10.941   5.633   2.803
21633SOL    HW266797  11.023   5.513   2.845
21634SOL     OW66798   4.046   2.577   7.683
21634SOL    HW166799   3.973   2.544   7.736
21634SOL    HW266800   4.023   2.553   7.593
21635SOL     OW66801  14.220  14.239  12.689
21635SOL    HW166802  14.292  14.244  12.627
21635SOL    HW266803  14.148  14.287  12.646
21636SOL     OW66804   1.089  11.684  11.083
21636SOL    HW166805   1.024  11.722  11.023
21636SOL    HW266806   1.142  11.758  11.112
21637SOL     OW66807  11.668   3.125  11.561
21637SOL    HW166808  11.617   3.112  11.481
21637SOL    HW266809  11.758   3.137  11.530
21638SOL     OW66810  11.031   5.128  11.250
21638SOL    HW166811  11.019   5.113  11.157
21638SOL    HW266812  10.959   5.081  11.292
21639SOL     OW66813   4.668   1.913   3.471
21639SOL    HW166814   4.635   1.998   3.502
21639SOL    HW266815   4.608   1.850   3.510
21640SOL     OW66816   4.598   9.229   3.627
21640SOL    HW166817   4.692   9.248   3.629
21640SOL    HW266818   4.561   9.286   3.694
21641SOL     OW66819   3.706   5.964   9.712
21641SOL    HW166820   3.614   5.992   9.710
21641SOL    HW266821   3.734   5.980   9.802
21642SOL     OW66822   6.682   7.191  13.726
21642SOL    HW166823   6.705   7.284  13.724
21642SOL    HW266824   6.636   7.176  13.643
21643SOL     OW66825  10.756   2.258   6.768
21643SOL    HW166826  10.800   2.309   6.836
21643SOL    HW266827  10.781   2.167   6.786
21644SOL     OW66828  11.421   2.663   4.383
21644SOL    HW166829  11.499   2.684   4.332
21644SOL    HW266830  11.432   2.570   4.405
21645SOL     OW66831  11.753   7.075   1.221
21645SOL    HW166832  11.699   7.012   1.172
21645SOL    HW266833  11.690   7.125   1.272
21646SOL     OW66834   7.586  12.778   0.737
21646SOL    HW166835   7.611  12.793   0.828
21646SOL    HW266836   7.641  12.837   0.687
21647SOL     OW66837  14.356   9.834  13.640
21647SOL    HW166838  14.277   9.863  13.686
21647SOL    HW266839  14.334   9.844  13.547
21648SOL     OW66840   5.849   5.768  10.638
21648SOL    HW166841   5.787   5.796  10.704
21648SOL    HW266842   5.935   5.791  10.674
21649SOL     OW66843  10.690  14.038   4.846
21649SOL    HW166844  10.639  13.959   4.861
21649SOL    HW266845  10.767  14.028   4.902
21650SOL     OW66846  11.980  11.714   5.214
21650SOL    HW166847  12.049  11.773   5.243
21650SOL    HW266848  11.945  11.754   5.135
21651SOL     OW66849  11.763  12.703  10.796
21651SOL    HW166850  11.691  12.642  10.785
21651SOL    HW266851  11.823  12.683  10.725
21652SOL     OW66852   0.644   6.811  12.550
21652SOL    HW166853   0.593   6.753  12.493
21652SOL    HW266854   0.735   6.784  12.536
21653SOL     OW66855   9.354   0.616   1.145
21653SOL    HW166856   9.328   0.525   1.129
21653SOL    HW266857   9.375   0.619   1.239
21654SOL     OW66858   0.797   3.338   2.273
21654SOL    HW166859   0.878   3.365   2.229
21654SOL    HW266860   0.790   3.397   2.348
21655SOL     OW66861   5.177   3.617   3.782
21655SOL    HW166862   5.112   3.674   3.742
21655SOL    HW266863   5.183   3.542   3.723
21656SOL     OW66864  10.747  10.089   4.576
21656SOL    HW166865  10.722  10.180   4.565
21656SOL    HW266866  10.838  10.092   4.606
21657SOL     OW66867   7.569   1.410  12.157
21657SOL    HW166868   7.622   1.468  12.103
21657SOL    HW266869   7.587   1.322  12.122
21658SOL     OW66870   9.448   7.338   3.788
21658SOL    HW166871   9.459   7.360   3.695
21658SOL    HW266872   9.385   7.267   3.789
21659SOL     OW66873  12.472   6.377   2.264
21659SOL    HW166874  12.397   6.409   2.315
21659SOL    HW266875  12.510   6.455   2.224
21660SOL     OW66876   6.883   8.943   5.403
21660SOL    HW166877   6.902   8.875   5.338
21660SOL    HW266878   6.872   8.896   5.485
21661SOL     OW66879  10.392   3.845  12.014
21661SOL    HW166880  10.467   3.822  12.069
21661SOL    HW266881  10.431   3.883  11.936
21662SOL     OW66882   1.735   9.123   6.075
21662SOL    HW166883   1.665   9.139   6.012
21662SOL    HW266884   1.710   9.041   6.119
21663SOL     OW66885   5.761   3.591   8.726
21663SOL    HW166886   5.808   3.665   8.686
21663SOL    HW266887   5.819   3.559   8.794
21664SOL     OW66888   7.540  14.337  10.650
21664SOL    HW166889   7.445  14.347  10.658
21664SOL    HW266890   7.551  14.274  10.579
21665SOL     OW66891  12.038   8.296   4.103
21665SOL    HW166892  12.079   8.214   4.075
21665SOL    HW266893  12.012   8.280   4.194
21666SOL     OW66894   5.670  11.392   1.374
21666SOL    HW166895   5.656  11.331   1.302
21666SOL    HW266896   5.739  11.451   1.343
21667SOL     OW66897   8.832  12.512   5.365
21667SOL    HW166898   8.903  12.449   5.374
21667SOL    HW266899   8.752  12.460   5.373
21668SOL     OW66900  14.013   3.663   1.328
21668SOL    HW166901  14.054   3.579   1.349
21668SOL    HW266902  14.044   3.723   1.396
21669SOL     OW66903  11.752   6.365   5.777
21669SOL    HW166904  11.776   6.414   5.856
21669SOL    HW266905  11.701   6.291   5.810
21670SOL     OW66906  10.159  11.076   1.049
21670SOL    HW166907  10.115  11.019   1.112
21670SOL    HW266908  10.176  11.157   1.098
21671SOL     OW66909  10.963  14.279   0.801
21671SOL    HW166910  10.968  14.188   0.770
21671SOL    HW266911  11.011  14.329   0.735
21672SOL     OW66912   7.606   8.176   4.236
21672SOL    HW166913   7.657   8.192   4.157
21672SOL    HW266914   7.578   8.085   4.228
21673SOL     OW66915   8.347   6.527   1.112
21673SOL    HW166916   8.300   6.611   1.119
21673SOL    HW266917   8.405   6.527   1.188
21674SOL     OW66918   5.475   9.521  12.284
21674SOL    HW166919   5.486   9.454  12.352
21674SOL    HW266920   5.380   9.532  12.277
21675SOL     OW66921  12.249   3.475  11.704
21675SOL    HW166922  12.180   3.424  11.662
21675SOL    HW266923  12.250   3.444  11.794
21676SOL     OW66924   0.188  14.638   3.430
21676SOL    HW166925   0.277  14.661   3.402
21676SOL    HW266926   0.156  14.716   3.476
21677SOL     OW66927  13.800   5.067   3.641
21677SOL    HW166928  13.723   5.025   3.681
21677SOL    HW266929  13.863   5.074   3.712
21678SOL     OW66930   2.104   2.657   0.590
21678SOL    HW166931   2.036   2.619   0.647
21678SOL    HW266932   2.055   2.702   0.521
21679SOL     OW66933  11.700  14.014   9.738
21679SOL    HW166934  11.672  13.935   9.786
21679SOL    HW266935  11.728  14.074   9.807
21680SOL     OW66936  12.241   1.856  12.852
21680SOL    HW166937  12.213   1.770  12.820
21680SOL    HW266938  12.320   1.877  12.802
21681SOL     OW66939   9.726   5.109   6.824
21681SOL    HW166940   9.819   5.108   6.847
21681SOL    HW266941   9.716   5.181   6.762
21682SOL     OW66942   7.670  14.158   4.124
21682SOL    HW166943   7.625  14.208   4.192
21682SOL    HW266944   7.761  14.188   4.128
21683SOL     OW66945   1.786  12.445  11.575
21683SOL    HW166946   1.822  12.520  11.622
21683SOL    HW266947   1.762  12.478  11.489
21684SOL     OW66948   9.226   7.373  14.735
21684SOL    HW166949   9.173   7.351  14.811
21684SOL    HW266950   9.195   7.460  14.708
21685SOL     OW66951  10.593  11.466   1.413
21685SOL    HW166952  10.504  11.454   1.379
21685SOL    HW266953  10.627  11.377   1.422
21686SOL     OW66954  14.660   9.588   3.424
21686SOL    HW166955  14.716   9.513   3.403
21686SOL    HW266956  14.685   9.656   3.362
21687SOL     OW66957   2.872  12.007   0.629
21687SOL    HW166958   2.882  11.995   0.535
21687SOL    HW266959   2.886  12.101   0.643
21688SOL     OW66960   4.173   1.404   9.367
21688SOL    HW166961   4.149   1.489   9.404
21688SOL    HW266962   4.247   1.375   9.421
21689SOL     OW66963  11.586   8.797   5.057
21689SOL    HW166964  11.635   8.794   4.975
21689SOL    HW266965  11.651   8.779   5.125
21690SOL     OW66966  14.026   4.844  13.254
21690SOL    HW166967  14.102   4.828  13.309
21690SOL    HW266968  14.059   4.895  13.180
21691SOL     OW66969   9.480  14.363  11.666
21691SOL    HW166970   9.566  14.405  11.661
21691SOL    HW266971   9.440  14.400  11.744
21692SOL     OW66972   2.747   1.592   8.824
21692SOL    HW166973   2.690   1.659   8.862
21692SOL    HW266974   2.751   1.524   8.891
21693SOL     OW66975   6.740  11.374  13.015
21693SOL    HW166976   6.647  11.357  13.028
21693SOL    HW266977   6.754  11.463  13.049
21694SOL     OW66978  10.522   4.208   6.144
21694SOL    HW166979  10.505   4.238   6.055
21694SOL    HW266980  10.453   4.249   6.197
21695SOL     OW66981   7.413   9.267   3.456
21695SOL    HW166982   7.411   9.177   3.489
21695SOL    HW266983   7.496   9.302   3.488
21696SOL     OW66984   0.273  10.560   5.591
21696SOL    HW166985   0.342  10.627   5.594
21696SOL    HW266986   0.229  10.576   5.508
21697SOL     OW66987   3.635   9.261   0.218
21697SOL    HW166988   3.586   9.221   0.290
21697SOL    HW266989   3.713   9.207   0.209
21698SOL     OW66990   9.317   2.970   8.727
21698SOL    HW166991   9.290   3.057   8.757
21698SOL    HW266992   9.383   2.942   8.790
21699SOL     OW66993  13.958  12.417  13.683
21699SOL    HW166994  13.935  12.493  13.737
21699SOL    HW266995  14.029  12.374  13.731
21700SOL     OW66996  12.657  13.142   2.484
21700SOL    HW166997  12.573  13.172   2.448
21700SOL    HW266998  12.671  13.056   2.445
21701SOL     OW66999   1.850   3.407   2.963
21701SOL    HW167000   1.894   3.462   3.028
21701SOL    HW267001   1.759   3.438   2.963
21702SOL     OW67002   0.235   1.600   5.759
21702SOL    HW167003   0.176   1.531   5.790
21702SOL    HW267004   0.312   1.552   5.727
21703SOL     OW67005   6.566   5.006   9.818
21703SOL    HW167006   6.557   5.097   9.790
21703SOL    HW267007   6.618   5.010   9.898
21704SOL     OW67008   0.226  14.429   6.132
21704SOL    HW167009   0.166  14.490   6.088
21704SOL    HW267010   0.212  14.443   6.225
21705SOL     OW67011  10.449  13.821   8.844
21705SOL    HW167012  10.445  13.732   8.808
21705SOL    HW267013  10.539  13.830   8.875
21706SOL     OW67014   0.556   3.253   2.368
21706SOL    HW167015   0.496   3.240   2.294
21706SOL    HW267016   0.641   3.269   2.327
21707SOL     OW67017   8.787   7.235   0.970
21707SOL    HW167018   8.774   7.143   0.994
21707SOL    HW267019   8.883   7.245   0.970
21708SOL     OW67020   2.780  13.597   3.722
21708SOL    HW167021   2.839  13.666   3.694
21708SOL    HW267022   2.724  13.639   3.788
21709SOL     OW67023  12.562   4.331  14.243
21709SOL    HW167024  12.488   4.341  14.183
21709SOL    HW267025  12.543   4.250  14.291
21710SOL     OW67026   7.324   2.220   4.364
21710SOL    HW167027   7.351   2.308   4.338
21710SOL    HW267028   7.404   2.179   4.395
21711SOL     OW67029  12.664  14.293  11.102
21711SOL    HW167030  12.607  14.352  11.053
21711SOL    HW267031  12.671  14.332  11.189
21712SOL     OW67032   9.139   0.238   7.371
21712SOL    HW167033   9.100   0.238   7.458
21712SOL    HW267034   9.108   0.319   7.331
21713SOL     OW67035   7.812   7.804  11.499
21713SOL    HW167036   7.817   7.811  11.404
21713SOL    HW267037   7.842   7.889  11.531
21714SOL     OW67038  10.868   5.819  11.039
21714SOL    HW167039  10.776   5.798  11.023
21714SOL    HW267040  10.916   5.743  11.009
21715SOL     OW67041   4.415   5.148  12.857
21715SOL    HW167042   4.349   5.086  12.826
21715SOL    HW267043   4.496   5.118  12.816
21716SOL     OW67044   0.636   6.618   6.713
21716SOL    HW167045   0.729   6.605   6.696
21716SOL    HW267046   0.591   6.575   6.640
21717SOL     OW67047   1.706   7.573   7.046
21717SOL    HW167048   1.722   7.584   7.140
21717SOL    HW267049   1.684   7.481   7.036
21718SOL     OW67050   3.254   9.840   8.874
21718SOL    HW167051   3.178   9.847   8.931
21718SOL    HW267052   3.219   9.835   8.786
21719SOL     OW67053   1.744   9.705   8.718
21719SOL    HW167054   1.802   9.667   8.652
21719SOL    HW267055   1.723   9.632   8.776
21720SOL     OW67056   6.313   1.585  11.206
21720SOL    HW167057   6.303   1.668  11.252
21720SOL    HW267058   6.235   1.534  11.230
21721SOL     OW67059   7.508   8.205   6.903
21721SOL    HW167060   7.564   8.279   6.927
21721SOL    HW267061   7.479   8.168   6.986
21722SOL     OW67062   0.625  12.733  14.058
21722SOL    HW167063   0.532  12.736  14.081
21722SOL    HW267064   0.658  12.821  14.076
21723SOL     OW67065   0.756   4.128   6.398
21723SOL    HW167066   0.735   4.222   6.402
21723SOL    HW267067   0.797   4.110   6.483
21724SOL     OW67068   3.038   5.402  13.473
21724SOL    HW167069   3.020   5.353  13.393
21724SOL    HW267070   3.126   5.374  13.500
21725SOL     OW67071   8.286   8.078  13.576
21725SOL    HW167072   8.326   8.051  13.493
21725SOL    HW267073   8.315   8.012  13.639
21726SOL     OW67074   3.306  11.769  13.960
21726SOL    HW167075   3.350  11.745  13.878
21726SOL    HW267076   3.227  11.716  13.961
21727SOL     OW67077   5.899   2.995   2.101
21727SOL    HW167078   5.914   3.089   2.106
21727SOL    HW267079   5.947   2.967   2.023
21728SOL     OW67080  10.513  12.020   9.582
21728SOL    HW167081  10.512  11.995   9.674
21728SOL    HW267082  10.427  12.058   9.565
21729SOL     OW67083   9.557   7.654  11.112
21729SOL    HW167084   9.512   7.587  11.060
21729SOL    HW267085   9.647   7.623  11.119
21730SOL     OW67086   4.863   6.921  11.961
21730SOL    HW167087   4.944   6.968  11.940
21730SOL    HW267088   4.893   6.842  12.005
21731SOL     OW67089  13.305   1.034   7.314
21731SOL    HW167090  13.246   1.021   7.387
21731SOL    HW267091  13.328   1.126   7.317
21732SOL     OW67092   5.599  13.534  14.487
21732SOL    HW167093   5.571  13.552  14.577
21732SOL    HW267094   5.685  13.576  14.480
21733SOL     OW67095   3.292   3.070   3.226
21733SOL    HW167096   3.229   3.044   3.294
21733SOL    HW267097   3.377   3.047   3.263
21734SOL     OW67098   6.985   4.969  12.785
21734SOL    HW167099   7.004   4.993  12.694
21734SOL    HW267100   7.029   5.037  12.837
21735SOL     OW67101  13.964  13.309   6.970
21735SOL    HW167102  13.872  13.334   6.983
21735SOL    HW267103  14.006  13.331   7.053
21736SOL     OW67104   5.135   4.211   5.052
21736SOL    HW167105   5.228   4.229   5.058
21736SOL    HW267106   5.122   4.178   4.963
21737SOL     OW67107  14.781   2.203  11.688
21737SOL    HW167108  14.866   2.193  11.646
21737SOL    HW267109  14.792   2.276  11.749
21738SOL     OW67110   9.581   5.583   7.998
21738SOL    HW167111   9.585   5.597   7.903
21738SOL    HW267112   9.668   5.550   8.021
21739SOL     OW67113   6.663   0.195  14.036
21739SOL    HW167114   6.671   0.105  14.005
21739SOL    HW267115   6.601   0.236  13.975
21740SOL     OW67116   5.959  13.051  12.572
21740SOL    HW167117   5.943  13.063  12.666
21740SOL    HW267118   5.983  12.959  12.564
21741SOL     OW67119   1.237   9.646  13.176
21741SOL    HW167120   1.322   9.681  13.200
21741SOL    HW267121   1.249   9.614  13.086
21742SOL     OW67122  14.040   4.805   5.026
21742SOL    HW167123  14.000   4.818   5.111
21742SOL    HW267124  14.107   4.874   5.021
21743SOL     OW67125  14.061   4.091  10.220
21743SOL    HW167126  14.041   4.058  10.307
21743SOL    HW267127  13.979   4.130  10.189
21744SOL     OW67128   8.921   8.375   7.517
21744SOL    HW167129   8.832   8.384   7.484
21744SOL    HW267130   8.922   8.424   7.599
21745SOL     OW67131   7.643   5.706  14.713
21745SOL    HW167132   7.719   5.746  14.670
21745SOL    HW267133   7.624   5.765  14.786
21746SOL     OW67134  14.308   1.322  13.247
21746SOL    HW167135  14.286   1.399  13.195
21746SOL    HW267136  14.403   1.313  13.236
21747SOL     OW67137  11.426  11.892  11.163
21747SOL    HW167138  11.438  11.983  11.191
21747SOL    HW267139  11.349  11.862  11.211
21748SOL     OW67140   2.219   1.451   7.503
21748SOL    HW167141   2.289   1.414   7.450
21748SOL    HW267142   2.142   1.399   7.481
21749SOL     OW67143   6.622   0.375   2.017
21749SOL    HW167144   6.590   0.377   1.926
21749SOL    HW267145   6.562   0.315   2.062
21750SOL     OW67146   9.310   3.520   7.051
21750SOL    HW167147   9.238   3.552   7.104
21750SOL    HW267148   9.272   3.450   6.999
21751SOL     OW67149   4.565   0.468   2.736
21751SOL    HW167150   4.574   0.374   2.719
21751SOL    HW267151   4.651   0.505   2.713
21752SOL     OW67152  13.078   4.917   1.234
21752SOL    HW167153  13.121   4.838   1.266
21752SOL    HW267154  13.046   4.892   1.147
21753SOL     OW67155   7.387  10.792   3.991
21753SOL    HW167156   7.470  10.745   3.992
21753SOL    HW267157   7.407  10.878   4.028
21754SOL     OW67158   1.792   0.977   3.773
21754SOL    HW167159   1.814   1.053   3.827
21754SOL    HW267160   1.698   0.986   3.757
21755SOL     OW67161  10.084   4.244  10.764
21755SOL    HW167162  10.131   4.321  10.732
21755SOL    HW267163  10.145   4.172  10.752
21756SOL     OW67164   0.295   7.224   9.124
21756SOL    HW167165   0.357   7.250   9.056
21756SOL    HW267166   0.214   7.204   9.077
21757SOL     OW67167   3.115  12.591   5.558
21757SOL    HW167168   3.027  12.579   5.523
21757SOL    HW267169   3.114  12.546   5.642
21758SOL     OW67170  14.329  14.125   0.038
21758SOL    HW167171  14.272  14.056   0.073
21758SOL    HW267172  14.394  14.139   0.107
21759SOL     OW67173   1.646   8.614   7.635
21759SOL    HW167174   1.576   8.619   7.699
21759SOL    HW267175   1.727   8.614   7.687
21760SOL     OW67176   0.251  10.852   8.331
21760SOL    HW167177   0.339  10.885   8.351
21760SOL    HW267178   0.192  10.923   8.357
21761SOL     OW67179  10.931   6.220   9.617
21761SOL    HW167180  10.897   6.254   9.534
21761SOL    HW267181  11.021   6.192   9.596
21762SOL     OW67182  12.043   4.237   3.271
21762SOL    HW167183  12.046   4.281   3.186
21762SOL    HW267184  11.983   4.290   3.323
21763SOL     OW67185   4.959   1.131  10.143
21763SOL    HW167186   4.874   1.168  10.165
21763SOL    HW267187   4.952   1.109  10.050
21764SOL     OW67188   3.956   7.722   8.626
21764SOL    HW167189   3.890   7.791   8.615
21764SOL    HW267190   4.035   7.769   8.655
21765SOL     OW67191  11.777   3.578   7.743
21765SOL    HW167192  11.718   3.649   7.719
21765SOL    HW267193  11.729   3.528   7.810
21766SOL     OW67194   2.823   7.036  14.567
21766SOL    HW167195   2.777   6.976  14.509
21766SOL    HW267196   2.760   7.108  14.581
21767SOL     OW67197   7.332   3.958   9.618
21767SOL    HW167198   7.322   3.869   9.582
21767SOL    HW267199   7.244   3.981   9.647
21768SOL     OW67200  14.440   0.794   5.340
21768SOL    HW167201  14.360   0.766   5.385
21768SOL    HW267202  14.435   0.752   5.255
21769SOL     OW67203   4.642   4.649   1.367
21769SOL    HW167204   4.724   4.609   1.338
21769SOL    HW267205   4.574   4.594   1.329
21770SOL     OW67206  12.604   0.415   6.682
21770SOL    HW167207  12.585   0.509   6.678
21770SOL    HW267208  12.532   0.378   6.734
21771SOL     OW67209  12.729  10.500   8.766
21771SOL    HW167210  12.727  10.569   8.700
21771SOL    HW267211  12.789  10.434   8.731
21772SOL     OW67212   8.306  14.848  14.396
21772SOL    HW167213   8.370  14.800  14.449
21772SOL    HW267214   8.222  14.809  14.419
21773SOL     OW67215  12.099   1.813  13.261
21773SOL    HW167216  12.059   1.833  13.176
21773SOL    HW267217  12.192   1.832  13.249
21774SOL     OW67218   2.266   0.376   7.864
21774SOL    HW167219   2.245   0.311   7.932
21774SOL    HW267220   2.231   0.338   7.783
21775SOL     OW67221   7.718   6.388  11.105
21775SOL    HW167222   7.714   6.483  11.100
21775SOL    HW267223   7.783   6.364  11.038
21776SOL     OW67224  11.709  11.029   0.342
21776SOL    HW167225  11.679  10.957   0.286
21776SOL    HW267226  11.791  10.999   0.380
21777SOL     OW67227   9.405   1.361   4.606
21777SOL    HW167228   9.483   1.408   4.634
21777SOL    HW267229   9.333   1.421   4.624
21778SOL     OW67230  10.843  10.566  11.717
21778SOL    HW167231  10.877  10.479  11.741
21778SOL    HW267232  10.869  10.577  11.626
21779SOL     OW67233   9.313   3.204   0.332
21779SOL    HW167234   9.286   3.259   0.259
21779SOL    HW267235   9.243   3.212   0.396
21780SOL     OW67236   1.510   2.332   1.888
21780SOL    HW167237   1.488   2.363   1.976
21780SOL    HW267238   1.494   2.407   1.832
21781SOL     OW67239   4.307   2.580   6.796
21781SOL    HW167240   4.299   2.652   6.735
21781SOL    HW267241   4.272   2.614   6.878
21782SOL     OW67242  13.990   8.616  13.646
21782SOL    HW167243  14.020   8.682  13.583
21782SOL    HW267244  13.962   8.542  13.591
21783SOL     OW67245   4.729   3.274   5.780
21783SOL    HW167246   4.650   3.224   5.802
21783SOL    HW267247   4.797   3.239   5.837
21784SOL     OW67248  13.785   8.459   0.261
21784SOL    HW167249  13.786   8.441   0.167
21784SOL    HW267250  13.863   8.416   0.295
21785SOL     OW67251   3.097   4.583  11.946
21785SOL    HW167252   3.147   4.582  12.027
21785SOL    HW267253   3.021   4.638  11.965
21786SOL     OW67254   4.537   7.905   4.719
21786SOL    HW167255   4.577   7.991   4.705
21786SOL    HW267256   4.523   7.871   4.630
21787SOL     OW67257   7.197   3.954   0.378
21787SOL    HW167258   7.219   3.993   0.463
21787SOL    HW267259   7.148   4.022   0.332
21788SOL     OW67260   1.961   5.131   0.593
21788SOL    HW167261   1.919   5.102   0.674
21788SOL    HW267262   2.022   5.199   0.620
21789SOL     OW67263  14.636   4.782  12.866
21789SOL    HW167264  14.626   4.842  12.792
21789SOL    HW267265  14.705   4.821  12.919
21790SOL     OW67266  13.884  13.749  11.816
21790SOL    HW167267  13.808  13.798  11.785
21790SOL    HW267268  13.848  13.676  11.866
21791SOL     OW67269   3.360   9.886   7.175
21791SOL    HW167270   3.453   9.894   7.197
21791SOL    HW267271   3.352   9.797   7.140
21792SOL     OW67272   7.947  13.951  13.927
21792SOL    HW167273   7.944  13.978  14.019
21792SOL    HW267274   7.962  13.857  13.930
21793SOL     OW67275  10.455   4.127  14.472
21793SOL    HW167276  10.418   4.072  14.541
21793SOL    HW267277  10.535   4.163  14.510
21794SOL     OW67278  10.598   6.376   3.589
21794SOL    HW167279  10.647   6.305   3.548
21794SOL    HW267280  10.540   6.408   3.520
21795SOL     OW67281  12.900   8.320   5.478
21795SOL    HW167282  12.830   8.276   5.430
21795SOL    HW267283  12.979   8.301   5.427
21796SOL     OW67284   4.849   1.668   7.255
21796SOL    HW167285   4.912   1.706   7.193
21796SOL    HW267286   4.856   1.574   7.240
21797SOL     OW67287  11.106  13.465   3.003
21797SOL    HW167288  11.114  13.551   2.962
21797SOL    HW267289  11.080  13.485   3.094
21798SOL     OW67290   1.672  14.434  14.408
21798SOL    HW167291   1.597  14.393  14.364
21798SOL    HW267292   1.748  14.388  14.372
21799SOL     OW67293   7.618   1.484   4.834
21799SOL    HW167294   7.572   1.445   4.760
21799SOL    HW267295   7.561   1.555   4.863
21800SOL     OW67296   2.243   1.503  13.189
21800SOL    HW167297   2.280   1.488  13.102
21800SOL    HW267298   2.312   1.476  13.249
21801SOL     OW67299   5.750  11.352  14.383
21801SOL    HW167300   5.699  11.335  14.463
21801SOL    HW267301   5.810  11.278  14.376
21802SOL     OW67302  13.614   5.322  13.097
21802SOL    HW167303  13.570   5.237  13.104
21802SOL    HW267304  13.577   5.373  13.168
21803SOL     OW67305   3.907   4.035   9.409
21803SOL    HW167306   3.972   3.965   9.402
21803SOL    HW267307   3.847   4.019   9.335
21804SOL     OW67308   0.267  14.867   3.748
21804SOL    HW167309   0.209   0.036   3.812
21804SOL    HW267310   0.268  14.775   3.773
21805SOL     OW67311   9.918   2.884   4.600
21805SOL    HW167312   9.948   2.839   4.679
21805SOL    HW267313   9.978   2.855   4.531
21806SOL     OW67314   2.187   0.953   0.469
21806SOL    HW167315   2.252   0.979   0.404
21806SOL    HW267316   2.186   0.858   0.466
21807SOL     OW67317  12.056  11.395   6.407
21807SOL    HW167318  11.980  11.336   6.404
21807SOL    HW267319  12.109  11.369   6.332
21808SOL     OW67320   1.136  12.745   8.077
21808SOL    HW167321   1.188  12.675   8.036
21808SOL    HW267322   1.087  12.783   8.005
21809SOL     OW67323  11.682  14.431  12.523
21809SOL    HW167324  11.664  14.398  12.435
21809SOL    HW267325  11.612  14.494  12.540
21810SOL     OW67326   9.330   5.074   8.267
21810SOL    HW167327   9.281   5.156   8.265
21810SOL    HW267328   9.370   5.072   8.354
21811SOL     OW67329  13.746   8.812   6.769
21811SOL    HW167330  13.804   8.742   6.741
21811SOL    HW267331  13.685   8.825   6.696
21812SOL     OW67332   2.443   0.254   7.347
21812SOL    HW167333   2.516   0.227   7.403
21812SOL    HW267334   2.447   0.349   7.346
21813SOL     OW67335  12.424  13.512  10.196
21813SOL    HW167336  12.354  13.463  10.239
21813SOL    HW267337  12.443  13.584  10.255
21814SOL     OW67338  14.238   4.378   7.866
21814SOL    HW167339  14.280   4.459   7.896
21814SOL    HW267340  14.296   4.308   7.899
21815SOL     OW67341   2.969  10.706   5.407
21815SOL    HW167342   2.940  10.795   5.390
21815SOL    HW267343   2.918  10.653   5.346
21816SOL     OW67344   2.316   0.165   4.383
21816SOL    HW167345   2.351   0.251   4.358
21816SOL    HW267346   2.345   0.152   4.473
21817SOL     OW67347   5.095   3.371   6.210
21817SOL    HW167348   5.103   3.301   6.275
21817SOL    HW267349   5.026   3.341   6.151
21818SOL     OW67350  11.216  13.418   7.304
21818SOL    HW167351  11.136  13.382   7.342
21818SOL    HW267352  11.185  13.473   7.232
21819SOL     OW67353  12.334  11.543  10.529
21819SOL    HW167354  12.268  11.519  10.464
21819SOL    HW267355  12.401  11.475  10.521
21820SOL     OW67356   4.444  14.783   3.170
21820SOL    HW167357   4.426  14.868   3.131
21820SOL    HW267358   4.452  14.801   3.264
21821SOL     OW67359  10.541   6.980  14.404
21821SOL    HW167360  10.556   6.947  14.315
21821SOL    HW267361  10.492   7.061  14.391
21822SOL     OW67362   1.166  13.578  12.958
21822SOL    HW167363   1.074  13.550  12.962
21822SOL    HW267364   1.170  13.635  12.881
21823SOL     OW67365   0.875  13.173   5.772
21823SOL    HW167366   0.829  13.136   5.848
21823SOL    HW267367   0.818  13.244   5.742
21824SOL     OW67368   0.817   1.631   0.620
21824SOL    HW167369   0.839   1.674   0.703
21824SOL    HW267370   0.736   1.674   0.592
21825SOL     OW67371  10.775   7.102   9.257
21825SOL    HW167372  10.797   7.158   9.332
21825SOL    HW267373  10.721   7.032   9.294
21826SOL     OW67374   3.727  14.401   2.096
21826SOL    HW167375   3.779  14.477   2.070
21826SOL    HW267376   3.787  14.348   2.149
21827SOL     OW67377   4.621   8.764   0.409
21827SOL    HW167378   4.615   8.831   0.477
21827SOL    HW267379   4.643   8.684   0.455
21828SOL     OW67380  12.634  11.069   9.201
21828SOL    HW167381  12.575  11.059   9.127
21828SOL    HW267382  12.722  11.059   9.163
21829SOL     OW67383   0.400  12.821   5.229
21829SOL    HW167384   0.388  12.728   5.249
21829SOL    HW267385   0.454  12.854   5.301
21830SOL     OW67386  12.152   3.997   2.700
21830SOL    HW167387  12.238   4.023   2.669
21830SOL    HW267388  12.107   3.964   2.622
21831SOL     OW67389   9.180   9.984   4.611
21831SOL    HW167390   9.262  10.004   4.565
21831SOL    HW267391   9.111  10.009   4.550
21832SOL     OW67392   6.926  12.452   9.074
21832SOL    HW167393   6.992  12.520   9.060
21832SOL    HW267394   6.890  12.471   9.161
21833SOL     OW67395   1.459  12.929   4.976
21833SOL    HW167396   1.449  12.834   4.984
21833SOL    HW267397   1.461  12.945   4.882
21834SOL     OW67398   4.838   1.868   1.619
21834SOL    HW167399   4.744   1.885   1.616
21834SOL    HW267400   4.849   1.784   1.574
21835SOL     OW67401  11.055  12.821   2.501
21835SOL    HW167402  11.024  12.837   2.590
21835SOL    HW267403  11.096  12.734   2.505
21836SOL     OW67404  12.967   7.810   6.301
21836SOL    HW167405  13.047   7.799   6.249
21836SOL    HW267406  12.902   7.842   6.238
21837SOL     OW67407   6.007   4.209   5.652
21837SOL    HW167408   5.978   4.271   5.718
21837SOL    HW267409   6.014   4.126   5.699
21838SOL     OW67410   4.755  10.238  10.207
21838SOL    HW167411   4.707  10.239  10.125
21838SOL    HW267412   4.688  10.217  10.273
21839SOL     OW67413  13.394   5.155   4.021
21839SOL    HW167414  13.384   5.212   4.097
21839SOL    HW267415  13.318   5.175   3.966
21840SOL     OW67416   6.358   5.549   2.007
21840SOL    HW167417   6.399   5.632   2.030
21840SOL    HW267418   6.377   5.492   2.082
21841SOL     OW67419   9.016  14.201   8.555
21841SOL    HW167420   8.925  14.216   8.531
21841SOL    HW267421   9.052  14.288   8.570
21842SOL     OW67422  13.898   5.759   4.810
21842SOL    HW167423  13.945   5.814   4.747
21842SOL    HW267424  13.858   5.690   4.757
21843SOL     OW67425  14.370   0.479   8.219
21843SOL    HW167426  14.447   0.507   8.169
21843SOL    HW267427  14.345   0.395   8.180
21844SOL     OW67428   1.026   3.475   7.886
21844SOL    HW167429   1.021   3.384   7.858
21844SOL    HW267430   1.119   3.498   7.877
21845SOL     OW67431  12.500   0.054  13.006
21845SOL    HW167432  12.558   0.063  13.082
21845SOL    HW267433  12.549  14.871  12.945
21846SOL     OW67434   9.274   6.355  12.017
21846SOL    HW167435   9.186   6.353  12.054
21846SOL    HW267436   9.318   6.425  12.065
21847SOL     OW67437   7.833   3.535   3.939
21847SOL    HW167438   7.839   3.450   3.982
21847SOL    HW267439   7.743   3.563   3.953
21848SOL     OW67440  12.171   5.675   2.086
21848SOL    HW167441  12.199   5.661   1.996
21848SOL    HW267442  12.234   5.737   2.122
21849SOL     OW67443  11.111   2.182   7.074
21849SOL    HW167444  11.199   2.215   7.055
21849SOL    HW267445  11.121   2.087   7.077
21850SOL     OW67446   2.243   8.071   5.250
21850SOL    HW167447   2.285   8.110   5.327
21850SOL    HW267448   2.314   8.062   5.186
21851SOL     OW67449   3.885   6.211   4.672
21851SOL    HW167450   3.950   6.224   4.742
21851SOL    HW267451   3.829   6.289   4.677
21852SOL     OW67452  14.128  14.714  14.006
21852SOL    HW167453  14.080  14.741  14.084
21852SOL    HW267454  14.163  14.628  14.028
21853SOL     OW67455  12.913   5.542   0.627
21853SOL    HW167456  12.958   5.592   0.696
21853SOL    HW267457  12.905   5.454   0.662
21854SOL     OW67458   2.600   3.214   4.171
21854SOL    HW167459   2.561   3.135   4.134
21854SOL    HW267460   2.575   3.284   4.111
21855SOL     OW67461   6.067  12.062  14.658
21855SOL    HW167462   6.042  12.006  14.585
21855SOL    HW267463   6.027  12.147  14.638
21856SOL     OW67464   0.793   3.787   6.789
21856SOL    HW167465   0.815   3.698   6.761
21856SOL    HW267466   0.803   3.841   6.710
21857SOL     OW67467  10.462  10.456   0.678
21857SOL    HW167468  10.477  10.550   0.669
21857SOL    HW267469  10.414  10.432   0.599
21858SOL     OW67470   7.758  14.330  13.409
21858SOL    HW167471   7.767  14.343  13.504
21858SOL    HW267472   7.843  14.355  13.373
21859SOL     OW67473   9.325  14.846   9.922
21859SOL    HW167474   9.262  14.835   9.993
21859SOL    HW267475   9.381  14.769   9.927
21860SOL     OW67476   9.357  13.733   7.668
21860SOL    HW167477   9.435  13.786   7.653
21860SOL    HW267478   9.284  13.794   7.656
21861SOL     OW67479   5.931   3.530  14.427
21861SOL    HW167480   5.883   3.447  14.430
21861SOL    HW267481   5.925   3.558  14.336
21862SOL     OW67482   9.028   4.369   3.716
21862SOL    HW167483   9.109   4.390   3.670
21862SOL    HW267484   8.960   4.374   3.648
21863SOL     OW67485   9.277  14.278   1.188
21863SOL    HW167486   9.321  14.362   1.203
21863SOL    HW267487   9.268  14.272   1.093
21864SOL     OW67488  10.219  11.192   0.792
21864SOL    HW167489  10.226  11.120   0.729
21864SOL    HW267490  10.146  11.168   0.849
21865SOL     OW67491   4.438  10.128   8.158
21865SOL    HW167492   4.389  10.209   8.139
21865SOL    HW267493   4.501  10.153   8.225
21866SOL     OW67494  10.938  12.326   0.314
21866SOL    HW167495  10.995  12.336   0.390
21866SOL    HW267496  10.850  12.321   0.352
21867SOL     OW67497   8.536   4.749   1.884
21867SOL    HW167498   8.581   4.793   1.812
21867SOL    HW267499   8.455   4.800   1.895
21868SOL     OW67500   6.139   0.954  14.306
21868SOL    HW167501   6.158   1.001  14.225
21868SOL    HW267502   6.146   0.862  14.284
21869SOL     OW67503  12.803   3.580   2.064
21869SOL    HW167504  12.892   3.546   2.053
21869SOL    HW267505  12.789   3.577   2.158
21870SOL     OW67506   7.859   3.147   6.395
21870SOL    HW167507   7.766   3.169   6.388
21870SOL    HW267508   7.883   3.118   6.308
21871SOL     OW67509   5.682  14.315   2.097
21871SOL    HW167510   5.719  14.370   2.028
21871SOL    HW267511   5.601  14.360   2.122
21872SOL     OW67512   9.537  12.622   8.325
21872SOL    HW167513   9.479  12.678   8.376
21872SOL    HW267514   9.486  12.544   8.308
21873SOL     OW67515  12.787  14.829   3.065
21873SOL    HW167516  12.810  14.737   3.053
21873SOL    HW267517  12.824  14.851   3.151
21874SOL     OW67518   3.083   9.039   7.271
21874SOL    HW167519   3.017   9.072   7.332
21874SOL    HW267520   3.033   9.011   7.195
21875SOL     OW67521  11.132   5.770   1.226
21875SOL    HW167522  11.053   5.764   1.172
21875SOL    HW267523  11.188   5.833   1.181
21876SOL     OW67524  13.815  14.295  10.499
21876SOL    HW167525  13.900  14.253  10.487
21876SOL    HW267526  13.828  14.385  10.469
21877SOL     OW67527   8.887  10.848  11.407
21877SOL    HW167528   8.921  10.893  11.484
21877SOL    HW267529   8.895  10.755  11.428
21878SOL     OW67530   2.389  12.362  12.549
21878SOL    HW167531   2.338  12.427  12.598
21878SOL    HW267532   2.438  12.413  12.485
21879SOL     OW67533   2.070   9.615  13.767
21879SOL    HW167534   1.999   9.551  13.756
21879SOL    HW267535   2.106   9.626  13.679
21880SOL     OW67536   8.875   5.566  13.386
21880SOL    HW167537   8.825   5.634  13.341
21880SOL    HW267538   8.962   5.569  13.346
21881SOL     OW67539   2.477   8.518  11.263
21881SOL    HW167540   2.419   8.530  11.338
21881SOL    HW267541   2.548   8.463  11.296
21882SOL     OW67542  14.284  11.993   6.769
21882SOL    HW167543  14.319  11.904   6.757
21882SOL    HW267544  14.325  12.045   6.700
21883SOL     OW67545  11.294   8.086   5.248
21883SOL    HW167546  11.313   8.118   5.336
21883SOL    HW267547  11.199   8.089   5.242
21884SOL     OW67548   6.906   9.078  13.609
21884SOL    HW167549   6.981   9.019  13.616
21884SOL    HW267550   6.902   9.101  13.516
21885SOL     OW67551  11.122  10.269   9.439
21885SOL    HW167552  11.169  10.239   9.361
21885SOL    HW267553  11.090  10.356   9.416
21886SOL     OW67554  10.047   6.014   9.615
21886SOL    HW167555  10.001   5.969   9.545
21886SOL    HW267556   9.987   6.011   9.689
21887SOL     OW67557   8.470   0.103   8.447
21887SOL    HW167558   8.536   0.129   8.382
21887SOL    HW267559   8.508   0.129   8.531
21888SOL     OW67560   5.414   8.142  14.241
21888SOL    HW167561   5.420   8.050  14.214
21888SOL    HW267562   5.488   8.184  14.197
21889SOL     OW67563   1.107   1.843   3.956
21889SOL    HW167564   1.109   1.750   3.932
21889SOL    HW267565   1.046   1.847   4.030
21890SOL     OW67566  10.748   2.410  12.736
21890SOL    HW167567  10.703   2.326  12.740
21890SOL    HW267568  10.679   2.475  12.751
21891SOL     OW67569   7.984   2.454  14.256
21891SOL    HW167570   7.968   2.448  14.162
21891SOL    HW267571   8.041   2.380  14.276
21892SOL     OW67572  10.468   4.490  10.190
21892SOL    HW167573  10.521   4.553  10.141
21892SOL    HW267574  10.451   4.420  10.128
21893SOL     OW67575   1.893   8.026  13.186
21893SOL    HW167576   1.929   8.106  13.148
21893SOL    HW267577   1.969   7.980  13.222
21894SOL     OW67578   3.282  11.498  11.154
21894SOL    HW167579   3.206  11.464  11.108
21894SOL    HW267580   3.354  11.441  11.127
21895SOL     OW67581   0.681   1.266  14.474
21895SOL    HW167582   0.758   1.260  14.531
21895SOL    HW267583   0.687   1.354  14.436
21896SOL     OW67584  11.889   5.878  13.390
21896SOL    HW167585  11.917   5.796  13.431
21896SOL    HW267586  11.823   5.914  13.450
21897SOL     OW67587   4.719  11.440   1.487
21897SOL    HW167588   4.699  11.523   1.531
21897SOL    HW267589   4.770  11.466   1.410
21898SOL     OW67590  12.912  14.618  14.629
21898SOL    HW167591  12.843  14.592  14.568
21898SOL    HW267592  12.968  14.541  14.637
21899SOL     OW67593   8.901  13.703  11.954
21899SOL    HW167594   8.864  13.765  11.890
21899SOL    HW267595   8.995  13.719  11.951
21900SOL     OW67596  12.913  10.747  11.502
21900SOL    HW167597  12.835  10.703  11.470
21900SOL    HW267598  12.879  10.820  11.555
21901SOL     OW67599  10.858   5.465   9.931
21901SOL    HW167600  10.816   5.415   9.861
21901SOL    HW267601  10.785   5.498   9.984
21902SOL     OW67602  12.599   5.427  14.529
21902SOL    HW167603  12.602   5.336  14.559
21902SOL    HW267604  12.615   5.479  14.608
21903SOL     OW67605  10.163   0.859   7.045
21903SOL    HW167606  10.071   0.855   7.068
21903SOL    HW267607  10.168   0.926   6.976
21904SOL     OW67608   4.598   4.969   2.867
21904SOL    HW167609   4.595   5.049   2.920
21904SOL    HW267610   4.659   4.988   2.797
21905SOL     OW67611   2.591   3.103   3.505
21905SOL    HW167612   2.581   3.044   3.579
21905SOL    HW267613   2.604   3.189   3.544
21906SOL     OW67614  11.576  10.491  13.270
21906SOL    HW167615  11.524  10.443  13.206
21906SOL    HW267616  11.555  10.449  13.354
21907SOL     OW67617   2.697   6.983  10.794
21907SOL    HW167618   2.689   7.078  10.793
21907SOL    HW267619   2.681   6.958  10.885
21908SOL     OW67620   3.314  14.674   5.828
21908SOL    HW167621   3.240  14.736   5.835
21908SOL    HW267622   3.289  14.616   5.756
21909SOL     OW67623   2.464   3.966  10.651
21909SOL    HW167624   2.474   3.873  10.669
21909SOL    HW267625   2.372   3.977  10.627
21910SOL     OW67626   7.797   0.230   4.899
21910SOL    HW167627   7.841   0.194   4.976
21910SOL    HW267628   7.717   0.178   4.890
21911SOL     OW67629   8.817   4.408  14.811
21911SOL    HW167630   8.803   4.479   0.001
21911SOL    HW267631   8.779   4.331  14.853
21912SOL     OW67632  13.806  13.130  13.433
21912SOL    HW167633  13.883  13.078  13.408
21912SOL    HW267634  13.842  13.202  13.485
21913SOL     OW67635   6.307   7.989   2.968
21913SOL    HW167636   6.351   8.068   2.937
21913SOL    HW267637   6.215   8.003   2.947
21914SOL     OW67638   4.366   2.319  11.869
21914SOL    HW167639   4.417   2.244  11.839
21914SOL    HW267640   4.352   2.372  11.790
21915SOL     OW67641  11.316   6.726  12.236
21915SOL    HW167642  11.329   6.806  12.186
21915SOL    HW267643  11.389   6.724  12.298
21916SOL     OW67644   9.719   7.466  12.991
21916SOL    HW167645   9.683   7.536  12.937
21916SOL    HW267646   9.660   7.392  12.978
21917SOL     OW67647  10.321   7.394   3.515
21917SOL    HW167648  10.229   7.419   3.522
21917SOL    HW267649  10.336   7.333   3.587
21918SOL     OW67650  13.499  12.624   5.502
21918SOL    HW167651  13.519  12.536   5.532
21918SOL    HW267652  13.488  12.616   5.407
21919SOL     OW67653   9.543   0.602  12.086
21919SOL    HW167654   9.596   0.573  12.011
21919SOL    HW267655   9.462   0.633  12.047
21920SOL     OW67656   5.334  10.226   3.932
21920SOL    HW167657   5.304  10.245   4.021
21920SOL    HW267658   5.369  10.308   3.900
21921SOL     OW67659   7.291   5.652  11.767
21921SOL    HW167660   7.369   5.623  11.721
21921SOL    HW267661   7.218   5.622  11.712
21922SOL     OW67662   8.759   5.745   7.662
21922SOL    HW167663   8.726   5.672   7.715
21922SOL    HW267664   8.766   5.818   7.724
21923SOL     OW67665   0.867   9.134  12.714
21923SOL    HW167666   0.857   9.101  12.625
21923SOL    HW267667   0.961   9.148  12.724
21924SOL     OW67668  13.859   3.130  14.772
21924SOL    HW167669  13.941   3.167  14.742
21924SOL    HW267670  13.806   3.205  14.797
21925SOL     OW67671   5.935   3.819   0.702
21925SOL    HW167672   5.956   3.855   0.615
21925SOL    HW267673   5.873   3.749   0.685
21926SOL     OW67674   7.212   2.514   6.903
21926SOL    HW167675   7.140   2.499   6.963
21926SOL    HW267676   7.284   2.546   6.958
21927SOL     OW67677   2.405   3.317   6.613
21927SOL    HW167678   2.496   3.325   6.582
21927SOL    HW267679   2.374   3.407   6.617
21928SOL     OW67680   4.052   5.190   9.033
21928SOL    HW167681   4.040   5.108   8.985
21928SOL    HW267682   3.963   5.220   9.052
21929SOL     OW67683   9.337  12.600   2.747
21929SOL    HW167684   9.423  12.613   2.707
21929SOL    HW267685   9.334  12.664   2.819
21930SOL     OW67686  11.538  10.700   8.345
21930SOL    HW167687  11.613  10.700   8.286
21930SOL    HW267688  11.531  10.790   8.375
21931SOL     OW67689   9.286  10.177   3.131
21931SOL    HW167690   9.203  10.149   3.168
21931SOL    HW267691   9.302  10.116   3.059
21932SOL     OW67692   8.763   8.722   8.199
21932SOL    HW167693   8.817   8.767   8.263
21932SOL    HW267694   8.692   8.683   8.250
21933SOL     OW67695   6.021   4.704   4.988
21933SOL    HW167696   6.109   4.727   4.958
21933SOL    HW267697   6.037   4.640   5.058
21934SOL     OW67698  12.985   8.449   2.341
21934SOL    HW167699  12.963   8.408   2.257
21934SOL    HW267700  13.022   8.378   2.394
21935SOL     OW67701   1.217  12.730   1.178
21935SOL    HW167702   1.228  12.799   1.113
21935SOL    HW267703   1.124  12.705   1.171
21936SOL     OW67704   1.678  13.249   1.826
21936SOL    HW167705   1.651  13.340   1.819
21936SOL    HW267706   1.744  13.238   1.757
21937SOL     OW67707   2.223   3.508   5.689
21937SOL    HW167708   2.247   3.427   5.734
21937SOL    HW267709   2.282   3.514   5.615
21938SOL     OW67710   8.853   8.515   9.385
21938SOL    HW167711   8.884   8.601   9.359
21938SOL    HW267712   8.867   8.511   9.480
21939SOL     OW67713   3.195  14.674   8.955
21939SOL    HW167714   3.255  14.705   9.023
21939SOL    HW267715   3.247  14.610   8.905
21940SOL     OW67716  13.912   8.293  10.308
21940SOL    HW167717  13.996   8.327  10.278
21940SOL    HW267718  13.926   8.200  10.321
21941SOL     OW67719  13.820   9.167  13.925
21941SOL    HW167720  13.817   9.118  13.843
21941SOL    HW267721  13.817   9.100  13.993
21942SOL     OW67722  10.856   8.033   6.436
21942SOL    HW167723  10.776   8.085   6.450
21942SOL    HW267724  10.824   7.945   6.415
21943SOL     OW67725  10.182   6.117   2.531
21943SOL    HW167726  10.172   6.201   2.486
21943SOL    HW267727  10.094   6.094   2.559
21944SOL     OW67728  10.213  10.414   9.827
21944SOL    HW167729  10.308  10.414   9.840
21944SOL    HW267730  10.197  10.338   9.771
21945SOL     OW67731   3.473  11.623   0.224
21945SOL    HW167732   3.486  11.716   0.205
21945SOL    HW267733   3.403  11.596   0.164
21946SOL     OW67734   3.650  11.246   6.755
21946SOL    HW167735   3.562  11.272   6.780
21946SOL    HW267736   3.678  11.312   6.692
21947SOL     OW67737  14.442  12.086   9.020
21947SOL    HW167738  14.413  12.037   8.943
21947SOL    HW267739  14.480  12.020   9.078
21948SOL     OW67740   7.990  13.804   5.074
21948SOL    HW167741   7.911  13.831   5.122
21948SOL    HW267742   8.037  13.886   5.058
21949SOL     OW67743   6.896   4.141   1.991
21949SOL    HW167744   6.930   4.207   1.931
21949SOL    HW267745   6.801   4.151   1.986
21950SOL     OW67746  13.005  12.362   9.117
21950SOL    HW167747  13.002  12.309   9.197
21950SOL    HW267748  12.913  12.372   9.092
21951SOL     OW67749  14.436  10.583   9.023
21951SOL    HW167750  14.353  10.610   9.063
21951SOL    HW267751  14.455  10.653   8.960
21952SOL     OW67752   6.903   7.881   0.940
21952SOL    HW167753   6.859   7.800   0.965
21952SOL    HW267754   6.868   7.947   1.000
21953SOL     OW67755  10.199  13.464   6.730
21953SOL    HW167756  10.234  13.378   6.709
21953SOL    HW267757  10.186  13.507   6.645
21954SOL     OW67758   4.565   9.947  10.450
21954SOL    HW167759   4.480   9.930  10.410
21954SOL    HW267760   4.628   9.926  10.381
21955SOL     OW67761   9.509   6.959   4.130
21955SOL    HW167762   9.427   7.007   4.114
21955SOL    HW267763   9.554   7.009   4.197
21956SOL     OW67764   5.355   6.715  11.753
21956SOL    HW167765   5.266   6.746  11.767
21956SOL    HW267766   5.406   6.794  11.734
21957SOL     OW67767  13.392   5.854  10.039
21957SOL    HW167768  13.373   5.788  10.106
21957SOL    HW267769  13.312   5.860   9.987
21958SOL     OW67770   0.476  10.299  10.843
21958SOL    HW167771   0.521  10.214  10.835
21958SOL    HW267772   0.388  10.282  10.809
21959SOL     OW67773  10.893   7.868   3.777
21959SOL    HW167774  10.937   7.804   3.834
21959SOL    HW267775  10.900   7.830   3.689
21960SOL     OW67776  13.825  14.503  12.400
21960SOL    HW167777  13.803  14.464  12.315
21960SOL    HW267778  13.742  14.507  12.447
21961SOL     OW67779   0.002  14.164   3.909
21961SOL    HW167780  14.827  14.086   3.880
21961SOL    HW267781   0.063  14.183   3.838
21962SOL     OW67782   6.150   4.847  13.490
21962SOL    HW167783   6.112   4.822  13.574
21962SOL    HW267784   6.078   4.837  13.427
21963SOL     OW67785  13.293   8.289   8.176
21963SOL    HW167786  13.246   8.372   8.176
21963SOL    HW267787  13.247   8.235   8.239
21964SOL     OW67788  12.454  13.670   8.611
21964SOL    HW167789  12.413  13.709   8.689
21964SOL    HW267790  12.449  13.576   8.626
21965SOL     OW67791  10.454  13.133   8.968
21965SOL    HW167792  10.453  13.077   9.045
21965SOL    HW267793  10.515  13.204   8.990
21966SOL     OW67794   3.588  12.642  13.980
21966SOL    HW167795   3.567  12.721  13.930
21966SOL    HW267796   3.522  12.578  13.954
21967SOL     OW67797   4.639   6.760  11.053
21967SOL    HW167798   4.703   6.747  10.982
21967SOL    HW267799   4.693   6.776  11.130
21968SOL     OW67800   2.017  12.546  14.548
21968SOL    HW167801   1.948  12.485  14.521
21968SOL    HW267802   1.982  12.588  14.626
21969SOL     OW67803  13.346   3.659   9.426
21969SOL    HW167804  13.356   3.592   9.358
21969SOL    HW267805  13.251   3.672   9.433
21970SOL     OW67806  10.606  12.790   1.231
21970SOL    HW167807  10.655  12.735   1.170
21970SOL    HW267808  10.620  12.751   1.317
21971SOL     OW67809   3.200   1.218   6.635
21971SOL    HW167810   3.296   1.224   6.632
21971SOL    HW267811   3.179   1.145   6.577
21972SOL     OW67812   6.257  11.376  12.924
21972SOL    HW167813   6.260  11.303  12.861
21972SOL    HW267814   6.249  11.454  12.869
21973SOL     OW67815   2.569   8.084  10.812
21973SOL    HW167816   2.581   8.142  10.887
21973SOL    HW267817   2.502   8.127  10.759
21974SOL     OW67818   3.923  12.610   7.980
21974SOL    HW167819   3.971  12.666   7.919
21974SOL    HW267820   3.885  12.670   8.044
21975SOL     OW67821   0.452   9.083  12.676
21975SOL    HW167822   0.479   9.053  12.589
21975SOL    HW267823   0.502   9.163  12.691
21976SOL     OW67824   9.280   8.713   8.320
21976SOL    HW167825   9.329   8.748   8.393
21976SOL    HW267826   9.346   8.688   8.255
21977SOL     OW67827  14.257  12.979   5.882
21977SOL    HW167828  14.170  12.995   5.921
21977SOL    HW267829  14.259  12.885   5.867
21978SOL     OW67830  12.912   4.344   3.869
21978SOL    HW167831  12.934   4.437   3.875
21978SOL    HW267832  12.957   4.314   3.790
21979SOL     OW67833   8.737   0.016   0.145
21979SOL    HW167834   8.799  14.830   0.102
21979SOL    HW267835   8.786   0.097   0.160
21980SOL     OW67836   4.985  14.450   8.590
21980SOL    HW167837   5.044  14.450   8.665
21980SOL    HW267838   4.915  14.511   8.613
21981SOL     OW67839   8.353   8.347   7.132
21981SOL    HW167840   8.305   8.351   7.215
21981SOL    HW267841   8.289   8.312   7.070
21982SOL     OW67842  11.592  14.059  13.840
21982SOL    HW167843  11.571  14.138  13.790
21982SOL    HW267844  11.615  14.092  13.927
21983SOL     OW67845  14.650   1.670   2.573
21983SOL    HW167846  14.697   1.672   2.489
21983SOL    HW267847  14.646   1.761   2.600
21984SOL     OW67848   1.742   3.264  13.597
21984SOL    HW167849   1.692   3.323  13.654
21984SOL    HW267850   1.771   3.320  13.525
21985SOL     OW67851   9.467  10.379  11.445
21985SOL    HW167852   9.434  10.462  11.481
21985SOL    HW267853   9.398  10.316  11.464
21986SOL     OW67854  13.747   1.587   6.016
21986SOL    HW167855  13.702   1.525   6.073
21986SOL    HW267856  13.676   1.635   5.973
21987SOL     OW67857   9.831  12.972   1.480
21987SOL    HW167858   9.751  12.990   1.530
21987SOL    HW267859   9.818  12.883   1.446
21988SOL     OW67860   0.268   8.456   8.125
21988SOL    HW167861   0.261   8.521   8.195
21988SOL    HW267862   0.348   8.407   8.146
21989SOL     OW67863  13.008   2.571   8.239
21989SOL    HW167864  13.034   2.482   8.215
21989SOL    HW267865  12.913   2.566   8.251
21990SOL     OW67866   8.655   2.599   4.141
21990SOL    HW167867   8.639   2.684   4.100
21990SOL    HW267868   8.744   2.605   4.175
21991SOL     OW67869   5.519   2.218  12.917
21991SOL    HW167870   5.548   2.131  12.889
21991SOL    HW267871   5.598   2.259  12.952
21992SOL     OW67872   8.738   0.434   5.367
21992SOL    HW167873   8.662   0.377   5.379
21992SOL    HW267874   8.811   0.374   5.354
21993SOL     OW67875  13.387   5.889   0.484
21993SOL    HW167876  13.376   5.802   0.523
21993SOL    HW267877  13.305   5.906   0.439
21994SOL     OW67878  10.164   4.142   6.576
21994SOL    HW167879  10.232   4.144   6.509
21994SOL    HW267880  10.112   4.064   6.555
21995SOL     OW67881   0.890  14.241  11.635
21995SOL    HW167882   0.896  14.267  11.543
21995SOL    HW267883   0.797  14.243  11.655
21996SOL     OW67884   8.323   3.067   4.545
21996SOL    HW167885   8.394   3.097   4.602
21996SOL    HW267886   8.275   3.005   4.600
21997SOL     OW67887   0.042   1.822  10.594
21997SOL    HW167888   0.054   1.912  10.564
21997SOL    HW267889   0.083   1.768  10.526
21998SOL     OW67890   6.635  11.395   9.873
21998SOL    HW167891   6.692  11.339   9.820
21998SOL    HW267892   6.669  11.483   9.859
21999SOL     OW67893   1.740   9.349   0.013
21999SOL    HW167894   1.779   9.348  14.798
21999SOL    HW267895   1.751   9.260   0.046
22000SOL     OW67896  11.377  12.775   3.621
22000SOL    HW167897  11.379  12.752   3.528
22000SOL    HW267898  11.322  12.708   3.661
22001SOL     OW67899   7.445   3.769   3.406
22001SOL    HW167900   7.475   3.691   3.361
22001SOL    HW267901   7.486   3.764   3.493
22002SOL     OW67902  10.251  11.896   9.704
22002SOL    HW167903  10.274  11.987   9.718
22002SOL    HW267904  10.328  11.847   9.733
22003SOL     OW67905   9.438  10.237   9.068
22003SOL    HW167906   9.439  10.212   8.975
22003SOL    HW267907   9.416  10.156   9.114
22004SOL     OW67908   9.393   5.830   2.899
22004SOL    HW167909   9.360   5.854   2.813
22004SOL    HW267910   9.385   5.910   2.951
22005SOL     OW67911  11.261   8.667   5.644
22005SOL    HW167912  11.296   8.579   5.633
22005SOL    HW267913  11.171   8.661   5.612
22006SOL     OW67914   5.646   6.602  14.281
22006SOL    HW167915   5.576   6.609  14.346
22006SOL    HW267916   5.696   6.525  14.308
22007SOL     OW67917   8.508   8.318   2.154
22007SOL    HW167918   8.441   8.251   2.146
22007SOL    HW267919   8.534   8.337   2.064
22008SOL     OW67920   2.604   6.163   8.719
22008SOL    HW167921   2.605   6.069   8.705
22008SOL    HW267922   2.624   6.201   8.634
22009SOL     OW67923   8.173   4.411  12.376
22009SOL    HW167924   8.148   4.502  12.366
22009SOL    HW267925   8.215   4.388  12.293
22010SOL     OW67926   8.444  10.816   3.103
22010SOL    HW167927   8.447  10.896   3.050
22010SOL    HW267928   8.513  10.828   3.168
22011SOL     OW67929   5.469   1.770   5.398
22011SOL    HW167930   5.520   1.761   5.317
22011SOL    HW267931   5.480   1.861   5.423
22012SOL     OW67932   7.040   1.181  12.172
22012SOL    HW167933   7.126   1.200  12.211
22012SOL    HW267934   7.041   1.087  12.157
22013SOL     OW67935   8.428   0.145   3.103
22013SOL    HW167936   8.504   0.193   3.136
22013SOL    HW267937   8.381   0.209   3.050
22014SOL     OW67938   4.644  12.131   6.802
22014SOL    HW167939   4.709  12.165   6.740
22014SOL    HW267940   4.688  12.057   6.843
22015SOL     OW67941   5.383  14.232  12.185
22015SOL    HW167942   5.411  14.197  12.269
22015SOL    HW267943   5.288  14.223  12.186
22016SOL     OW67944  11.919   9.708  13.002
22016SOL    HW167945  11.930   9.792  12.956
22016SOL    HW267946  11.947   9.643  12.938
22017SOL     OW67947   4.762  11.220   2.443
22017SOL    HW167948   4.839  11.271   2.471
22017SOL    HW267949   4.709  11.282   2.393
22018SOL     OW67950   5.421   3.831   7.868
22018SOL    HW167951   5.486   3.763   7.886
22018SOL    HW267952   5.419   3.837   7.772
22019SOL     OW67953   7.758   5.102   5.449
22019SOL    HW167954   7.707   5.055   5.383
22019SOL    HW267955   7.839   5.053   5.456
22020SOL     OW67956   8.589   8.948   9.685
22020SOL    HW167957   8.498   8.917   9.683
22020SOL    HW267958   8.590   9.013   9.755
22021SOL     OW67959  10.419   7.086   6.974
22021SOL    HW167960  10.449   7.029   7.045
22021SOL    HW267961  10.399   7.026   6.902
22022SOL     OW67962   8.083   9.628   9.834
22022SOL    HW167963   8.055   9.637   9.925
22022SOL    HW267964   8.037   9.551   9.803
22023SOL     OW67965  12.002  10.278   7.923
22023SOL    HW167966  12.013  10.236   8.008
22023SOL    HW267967  11.911  10.259   7.899
22024SOL     OW67968   6.358   2.377   8.588
22024SOL    HW167969   6.452   2.373   8.572
22024SOL    HW267970   6.350   2.373   8.684
22025SOL     OW67971   5.023   0.358   3.706
22025SOL    HW167972   5.116   0.378   3.719
22025SOL    HW267973   4.977   0.424   3.758
22026SOL     OW67974   1.258   7.970   5.357
22026SOL    HW167975   1.181   7.953   5.411
22026SOL    HW267976   1.282   8.061   5.376
22027SOL     OW67977   5.197   1.646  10.597
22027SOL    HW167978   5.157   1.560  10.585
22027SOL    HW267979   5.265   1.632  10.663
22028SOL     OW67980   6.356   1.211   6.174
22028SOL    HW167981   6.336   1.119   6.157
22028SOL    HW267982   6.277   1.258   6.146
22029SOL     OW67983  11.521  10.122   4.217
22029SOL    HW167984  11.601  10.090   4.257
22029SOL    HW267985  11.530  10.102   4.124
22030SOL     OW67986   8.223   6.213  14.331
22030SOL    HW167987   8.276   6.289  14.353
22030SOL    HW267988   8.132   6.242  14.343
22031SOL     OW67989  11.881  14.146   6.787
22031SOL    HW167990  11.806  14.105   6.744
22031SOL    HW267991  11.902  14.222   6.732
22032SOL     OW67992   2.543  13.359   7.827
22032SOL    HW167993   2.463  13.407   7.802
22032SOL    HW267994   2.557  13.297   7.755
22033SOL     OW67995   4.752   6.615   1.714
22033SOL    HW167996   4.727   6.666   1.637
22033SOL    HW267997   4.839   6.581   1.693
22034SOL     OW67998   5.547   5.856   1.827
22034SOL    HW167999   5.581   5.943   1.806
22034SOL    HW268000   5.619   5.796   1.806
22035SOL     OW68001  12.391   3.986   5.213
22035SOL    HW168002  12.349   4.056   5.163
22035SOL    HW268003  12.381   3.909   5.158
22036SOL     OW68004   0.458   3.576   8.197
22036SOL    HW168005   0.369   3.612   8.194
22036SOL    HW268006   0.514   3.651   8.214
22037SOL     OW68007  11.464  11.712   1.918
22037SOL    HW168008  11.557  11.697   1.902
22037SOL    HW268009  11.424  11.710   1.831
22038SOL     OW68010  14.438   8.531   4.598
22038SOL    HW168011  14.477   8.602   4.649
22038SOL    HW268012  14.510   8.498   4.544
22039SOL     OW68013   5.237   4.464  12.487
22039SOL    HW168014   5.145   4.486  12.505
22039SOL    HW268015   5.246   4.374  12.518
22040SOL     OW68016   2.748   7.401   8.989
22040SOL    HW168017   2.717   7.320   8.949
22040SOL    HW268018   2.802   7.372   9.063
22041SOL     OW68019   7.536   9.073   0.833
22041SOL    HW168020   7.501   8.999   0.785
22041SOL    HW268021   7.578   9.035   0.910
22042SOL     OW68022  14.740   2.503   7.488
22042SOL    HW168023  14.805   2.449   7.535
22042SOL    HW268024  14.730   2.581   7.543
22043SOL     OW68025  10.279   0.183   3.923
22043SOL    HW168026  10.335   0.208   3.996
22043SOL    HW268027  10.286   0.257   3.862
22044SOL     OW68028  13.117   0.858   0.384
22044SOL    HW168029  13.052   0.791   0.403
22044SOL    HW268030  13.180   0.852   0.456
22045SOL     OW68031   7.595   9.979   0.871
22045SOL    HW168032   7.665  10.020   0.921
22045SOL    HW268033   7.515  10.009   0.913
22046SOL     OW68034  10.410   7.139   4.785
22046SOL    HW168035  10.399   7.046   4.801
22046SOL    HW268036  10.412   7.179   4.872
22047SOL     OW68037   2.234   2.347  12.778
22047SOL    HW168038   2.227   2.434  12.738
22047SOL    HW268039   2.205   2.286  12.709
22048SOL     OW68040   5.102   2.742  13.309
22048SOL    HW168041   5.062   2.780  13.231
22048SOL    HW268042   5.159   2.811  13.344
22049SOL     OW68043  11.499   3.252  10.224
22049SOL    HW168044  11.537   3.178  10.178
22049SOL    HW268045  11.551   3.260  10.304
22050SOL     OW68046   9.075   1.511   5.413
22050SOL    HW168047   9.087   1.453   5.338
22050SOL    HW268048   9.082   1.453   5.489
22051SOL     OW68049   7.403   5.921   5.432
22051SOL    HW168050   7.329   5.861   5.420
22051SOL    HW268051   7.363   6.004   5.456
22052SOL     OW68052   4.778  13.271  11.450
22052SOL    HW168053   4.830  13.191  11.438
22052SOL    HW268054   4.774  13.282  11.545
22053SOL     OW68055  13.316  12.719  11.107
22053SOL    HW168056  13.254  12.764  11.050
22053SOL    HW268057  13.261  12.674  11.171
22054SOL     OW68058  13.630  13.874  11.763
22054SOL    HW168059  13.624  13.934  11.838
22054SOL    HW268060  13.580  13.918  11.694
22055SOL     OW68061   9.891   0.138   6.897
22055SOL    HW168062   9.865   0.160   6.986
22055SOL    HW268063   9.911   0.044   6.899
22056SOL     OW68064  11.360   8.592   5.114
22056SOL    HW168065  11.428   8.651   5.147
22056SOL    HW268066  11.372   8.512   5.165
22057SOL     OW68067  10.741   6.724  14.820
22057SOL    HW168068  10.740   6.644  14.768
22057SOL    HW268069  10.726   6.794  14.755
22058SOL     OW68070  11.153   3.609  14.868
22058SOL    HW168071  11.230   3.604  14.812
22058SOL    HW268072  11.161   3.536   0.056
22059SOL     OW68073  10.725   3.941   8.764
22059SOL    HW168074  10.728   3.850   8.795
22059SOL    HW268075  10.807   3.952   8.716
22060SOL     OW68076   6.284   8.711  12.001
22060SOL    HW168077   6.204   8.683  12.046
22060SOL    HW268078   6.268   8.693  11.909
22061SOL     OW68079   0.004   5.249   7.554
22061SOL    HW168080  14.854   5.187   7.623
22061SOL    HW268081  14.865   5.200   7.473
22062SOL     OW68082   4.431  11.292   0.211
22062SOL    HW168083   4.432  11.356   0.283
22062SOL    HW268084   4.435  11.345   0.132
22063SOL     OW68085   4.778   2.786   5.603
22063SOL    HW168086   4.850   2.823   5.655
22063SOL    HW268087   4.739   2.861   5.559
22064SOL     OW68088   1.644  11.548   8.395
22064SOL    HW168089   1.559  11.509   8.417
22064SOL    HW268090   1.634  11.578   8.305
22065SOL     OW68091   4.861   5.407  14.233
22065SOL    HW168092   4.783   5.458  14.213
22065SOL    HW268093   4.931   5.447  14.181
22066SOL     OW68094   5.512  11.678   0.630
22066SOL    HW168095   5.465  11.658   0.711
22066SOL    HW268096   5.444  11.686   0.564
22067SOL     OW68097   8.005   1.730   2.421
22067SOL    HW168098   7.994   1.822   2.398
22067SOL    HW268099   8.058   1.731   2.501
22068SOL     OW68100   2.997   9.106   9.528
22068SOL    HW168101   2.984   9.198   9.553
22068SOL    HW268102   2.931   9.090   9.461
22069SOL     OW68103   9.860   0.702   9.161
22069SOL    HW168104   9.948   0.716   9.127
22069SOL    HW268105   9.847   0.775   9.222
22070SOL     OW68106   8.042   9.006   0.226
22070SOL    HW168107   8.104   8.958   0.280
22070SOL    HW268108   7.984   9.049   0.289
22071SOL     OW68109   1.003   0.327  11.432
22071SOL    HW168110   1.053   0.404  11.459
22071SOL    HW268111   1.041   0.302  11.348
22072SOL     OW68112   4.644  10.747   6.324
22072SOL    HW168113   4.667  10.686   6.255
22072SOL    HW268114   4.724  10.756   6.376
22073SOL     OW68115   2.672   5.028  10.041
22073SOL    HW168116   2.735   5.017  10.113
22073SOL    HW268117   2.588   5.001  10.079
22074SOL     OW68118   3.475   4.037   7.200
22074SOL    HW168119   3.557   4.015   7.157
22074SOL    HW268120   3.465   3.972   7.269
22075SOL     OW68121   5.581   7.243   2.529
22075SOL    HW168122   5.623   7.166   2.568
22075SOL    HW268123   5.488   7.233   2.550
22076SOL     OW68124   6.003   7.512  10.051
22076SOL    HW168125   5.999   7.417  10.058
22076SOL    HW268126   6.061   7.528   9.976
22077SOL     OW68127  12.934   9.156  11.797
22077SOL    HW168128  12.918   9.134  11.888
22077SOL    HW268129  12.904   9.247  11.789
22078SOL     OW68130   1.528  11.747   5.691
22078SOL    HW168131   1.492  11.813   5.632
22078SOL    HW268132   1.451  11.705   5.729
22079SOL     OW68133   8.388   6.993   2.359
22079SOL    HW168134   8.327   6.995   2.433
22079SOL    HW268135   8.457   7.055   2.383
22080SOL     OW68136   8.459  12.856  14.257
22080SOL    HW168137   8.458  12.858  14.353
22080SOL    HW268138   8.386  12.911  14.231
22081SOL     OW68139   7.447  13.313   9.838
22081SOL    HW168140   7.374  13.287   9.894
22081SOL    HW268141   7.494  13.379   9.888
22082SOL     OW68142   6.686   1.835  13.044
22082SOL    HW168143   6.711   1.830  13.136
22082SOL    HW268144   6.762   1.873  13.001
22083SOL     OW68145  13.087   4.559   7.375
22083SOL    HW168146  13.157   4.592   7.431
22083SOL    HW268147  13.130   4.542   7.291
22084SOL     OW68148   4.555  10.849   6.047
22084SOL    HW168149   4.521  10.788   5.981
22084SOL    HW268150   4.496  10.924   6.041
22085SOL     OW68151   0.218   8.641   4.333
22085SOL    HW168152   0.286   8.639   4.401
22085SOL    HW268153   0.263   8.676   4.256
22086SOL     OW68154   4.807   0.056   9.016
22086SOL    HW168155   4.832   0.148   9.006
22086SOL    HW268156   4.712   0.058   9.024
22087SOL     OW68157  14.215  11.296   2.353
22087SOL    HW168158  14.272  11.319   2.279
22087SOL    HW268159  14.273  11.297   2.429
22088SOL     OW68160   2.194  14.674  10.360
22088SOL    HW168161   2.172  14.591  10.319
22088SOL    HW268162   2.145  14.674  10.442
22089SOL     OW68163   8.890  12.757  14.480
22089SOL    HW168164   8.837  12.810  14.420
22089SOL    HW268165   8.826  12.710  14.533
22090SOL     OW68166   3.239   2.119  14.247
22090SOL    HW168167   3.318   2.165  14.275
22090SOL    HW268168   3.263   2.079  14.164
22091SOL     OW68169  14.560   2.140   9.870
22091SOL    HW168170  14.496   2.133   9.940
22091SOL    HW268171  14.590   2.231   9.874
22092SOL     OW68172  14.827   8.933   0.155
22092SOL    HW168173  14.790   8.909   0.240
22092SOL    HW268174  14.776   9.009   0.127
22093SOL     OW68175   5.397   1.471   5.061
22093SOL    HW168176   5.487   1.506   5.065
22093SOL    HW268177   5.343   1.549   5.048
22094SOL     OW68178  12.910  11.802  11.628
22094SOL    HW168179  12.893  11.714  11.660
22094SOL    HW268180  12.880  11.801  11.537
22095SOL     OW68181   0.875   2.184  13.365
22095SOL    HW168182   0.824   2.217  13.291
22095SOL    HW268183   0.877   2.089  13.352
22096SOL     OW68184   3.183   2.496   1.409
22096SOL    HW168185   3.102   2.539   1.384
22096SOL    HW268186   3.251   2.539   1.356
22097SOL     OW68187   7.415  13.458  14.640
22097SOL    HW168188   7.344  13.521  14.624
22097SOL    HW268189   7.495  13.510  14.637
22098SOL     OW68190  12.623   3.929   8.954
22098SOL    HW168191  12.587   3.909   9.040
22098SOL    HW268192  12.676   3.852   8.932
22099SOL     OW68193   7.467   5.768   2.780
22099SOL    HW168194   7.467   5.830   2.706
22099SOL    HW268195   7.374   5.754   2.799
22100SOL     OW68196  14.540  12.072  10.704
22100SOL    HW168197  14.609  12.126  10.666
22100SOL    HW268198  14.535  12.099  10.795
22101SOL     OW68199   9.937   8.877  12.255
22101SOL    HW168200   9.993   8.806  12.287
22101SOL    HW268201   9.929   8.862  12.161
22102SOL     OW68202   8.946   3.285   0.057
22102SOL    HW168203   8.916   3.201   0.092
22102SOL    HW268204   8.866   3.338   0.050
22103SOL     OW68205   3.558  11.698  11.558
22103SOL    HW168206   3.528  11.764  11.620
22103SOL    HW268207   3.651  11.715  11.547
22104SOL     OW68208   1.254   1.740   0.266
22104SOL    HW168209   1.320   1.806   0.243
22104SOL    HW268210   1.283   1.706   0.350
22105SOL     OW68211   0.399   3.282   0.755
22105SOL    HW168212   0.327   3.342   0.731
22105SOL    HW268213   0.369   3.240   0.836
22106SOL     OW68214   8.442  14.577   4.733
22106SOL    HW168215   8.462  14.506   4.672
22106SOL    HW268216   8.525  14.623   4.743
22107SOL     OW68217   3.288  14.467  10.841
22107SOL    HW168218   3.279  14.447  10.748
22107SOL    HW268219   3.372  14.429  10.866
22108SOL     OW68220   2.274   4.414  14.739
22108SOL    HW168221   2.330   4.483  14.703
22108SOL    HW268222   2.256   4.357  14.664
22109SOL     OW68223  11.557   9.536   6.594
22109SOL    HW168224  11.557   9.631   6.588
22109SOL    HW268225  11.544   9.518   6.687
22110SOL     OW68226   7.884  13.029   7.746
22110SOL    HW168227   7.933  13.003   7.668
22110SOL    HW268228   7.948  13.025   7.817
22111SOL     OW68229   5.120   9.605   6.313
22111SOL    HW168230   5.091   9.673   6.374
22111SOL    HW268231   5.206   9.634   6.284
22112SOL     OW68232   5.667   6.216   4.734
22112SOL    HW168233   5.733   6.167   4.783
22112SOL    HW268234   5.614   6.148   4.692
22113SOL     OW68235   6.766   2.719   6.349
22113SOL    HW168236   6.799   2.807   6.333
22113SOL    HW268237   6.842   2.671   6.382
22114SOL     OW68238   6.148  13.431   1.476
22114SOL    HW168239   6.200  13.358   1.443
22114SOL    HW268240   6.202  13.509   1.458
22115SOL     OW68241   4.966   8.534  11.314
22115SOL    HW168242   5.012   8.460  11.355
22115SOL    HW268243   4.925   8.496  11.236
22116SOL     OW68244  12.539   5.332   3.135
22116SOL    HW168245  12.537   5.395   3.063
22116SOL    HW268246  12.448   5.304   3.145
22117SOL     OW68247   2.002   1.879  14.740
22117SOL    HW168248   2.088   1.899  14.703
22117SOL    HW268249   2.001   1.783  14.747
22118SOL     OW68250  11.939   8.173   8.522
22118SOL    HW168251  11.896   8.212   8.445
22118SOL    HW268252  11.910   8.081   8.521
22119SOL     OW68253   3.983  10.973   4.299
22119SOL    HW168254   3.969  11.064   4.325
22119SOL    HW268255   3.974  10.973   4.203
22120SOL     OW68256   9.930   9.555  13.194
22120SOL    HW168257   9.985   9.477  13.195
22120SOL    HW268258   9.947   9.595  13.108
22121SOL     OW68259  11.621  14.591   9.706
22121SOL    HW168260  11.550  14.529   9.722
22121SOL    HW268261  11.588  14.674   9.739
22122SOL     OW68262   6.702  12.125  13.229
22122SOL    HW168263   6.651  12.112  13.148
22122SOL    HW268264   6.636  12.130  13.298
22123SOL     OW68265   7.068  13.367   8.616
22123SOL    HW168266   7.092  13.340   8.527
22123SOL    HW268267   6.975  13.347   8.623
22124SOL     OW68268  12.492   5.351  11.369
22124SOL    HW168269  12.500   5.343  11.274
22124SOL    HW268270  12.472   5.262  11.400
22125SOL     OW68271   4.305   4.480   5.617
22125SOL    HW168272   4.261   4.493   5.700
22125SOL    HW268273   4.279   4.392   5.589
22126SOL     OW68274   7.554  11.338   7.367
22126SOL    HW168275   7.599  11.402   7.312
22126SOL    HW268276   7.470  11.379   7.386
22127SOL     OW68277   9.211   4.277   1.930
22127SOL    HW168278   9.293   4.299   1.887
22127SOL    HW268279   9.158   4.235   1.861
22128SOL     OW68280  12.303   3.910  10.385
22128SOL    HW168281  12.318   3.972  10.456
22128SOL    HW268282  12.368   3.842  10.399
22129SOL     OW68283  11.722  12.109   0.799
22129SOL    HW168284  11.750  12.181   0.743
22129SOL    HW268285  11.768  12.032   0.764
22130SOL     OW68286  10.415   9.540   9.634
22130SOL    HW168287  10.383   9.602   9.569
22130SOL    HW268288  10.510   9.548   9.631
22131SOL     OW68289   2.055  10.458   5.407
22131SOL    HW168290   2.020  10.421   5.326
22131SOL    HW268291   2.137  10.409   5.422
22132SOL     OW68292   5.128  13.435   8.943
22132SOL    HW168293   5.144  13.392   9.028
22132SOL    HW268294   5.057  13.497   8.961
22133SOL     OW68295   5.903   1.901   8.485
22133SOL    HW168296   5.849   1.875   8.560
22133SOL    HW268297   5.982   1.847   8.492
22134SOL     OW68298   7.674  14.629   2.337
22134SOL    HW168299   7.729  14.553   2.357
22134SOL    HW268300   7.585  14.597   2.350
22135SOL     OW68301   0.844   3.277  14.691
22135SOL    HW168302   0.762   3.239  14.659
22135SOL    HW268303   0.901   3.202  14.707
22136SOL     OW68304  13.872   6.069   6.171
22136SOL    HW168305  13.817   6.123   6.114
22136SOL    HW268306  13.958   6.069   6.129
22137SOL     OW68307   0.550   4.570  11.777
22137SOL    HW168308   0.559   4.665  11.775
22137SOL    HW268309   0.606   4.539  11.706
22138SOL     OW68310   9.981   7.352  11.140
22138SOL    HW168311   9.995   7.308  11.224
22138SOL    HW268312   9.991   7.282  11.075
22139SOL     OW68313   9.290   5.419  11.251
22139SOL    HW168314   9.263   5.362  11.178
22139SOL    HW268315   9.339   5.362  11.310
22140SOL     OW68316   8.863   6.173   5.817
22140SOL    HW168317   8.822   6.097   5.776
22140SOL    HW268318   8.795   6.209   5.874
22141SOL     OW68319   6.813   9.617   2.093
22141SOL    HW168320   6.781   9.589   2.007
22141SOL    HW268321   6.787   9.548   2.153
22142SOL     OW68322  10.846   5.757   5.064
22142SOL    HW168323  10.787   5.683   5.053
22142SOL    HW268324  10.790   5.834   5.050
22143SOL     OW68325   0.298   2.146   6.064
22143SOL    HW168326   0.217   2.114   6.105
22143SOL    HW268327   0.367   2.124   6.127
22144SOL     OW68328  13.558   5.522   9.401
22144SOL    HW168329  13.573   5.594   9.462
22144SOL    HW268330  13.644   5.505   9.362
22145SOL     OW68331   9.459  11.898   6.242
22145SOL    HW168332   9.369  11.909   6.209
22145SOL    HW268333   9.513  11.947   6.181
22146SOL     OW68334  14.127   0.320   4.763
22146SOL    HW168335  14.188   0.247   4.752
22146SOL    HW268336  14.115   0.355   4.675
22147SOL     OW68337   6.432   9.333   5.272
22147SOL    HW168338   6.400   9.311   5.359
22147SOL    HW268339   6.518   9.372   5.287
22148SOL     OW68340   6.561   3.639   5.802
22148SOL    HW168341   6.543   3.613   5.712
22148SOL    HW268342   6.475   3.666   5.837
22149SOL     OW68343   9.507  11.162   9.996
22149SOL    HW168344   9.532  11.078  10.033
22149SOL    HW268345   9.569  11.176   9.924
22150SOL     OW68346  14.819   2.467  10.140
22150SOL    HW168347  14.780   2.547  10.175
22150SOL    HW268348   0.017   2.498  10.083
22151SOL     OW68349  11.311   7.768   8.225
22151SOL    HW168350  11.360   7.709   8.282
22151SOL    HW268351  11.322   7.731   8.137
22152SOL     OW68352   3.542   6.954   8.490
22152SOL    HW168353   3.455   6.954   8.450
22152SOL    HW268354   3.528   6.921   8.578
22153SOL     OW68355  11.308   2.467  13.054
22153SOL    HW168356  11.244   2.467  12.983
22153SOL    HW268357  11.281   2.539  13.112
22154SOL     OW68358   3.210   3.787  10.540
22154SOL    HW168359   3.231   3.711  10.486
22154SOL    HW268360   3.179   3.749  10.623
22155SOL     OW68361   2.394   5.493  11.970
22155SOL    HW168362   2.407   5.588  11.979
22155SOL    HW268363   2.330   5.471  12.038
22156SOL     OW68364   4.603   1.093   4.037
22156SOL    HW168365   4.628   1.087   3.945
22156SOL    HW268366   4.508   1.097   4.036
22157SOL     OW68367  11.396  12.211   6.588
22157SOL    HW168368  11.448  12.157   6.529
22157SOL    HW268369  11.344  12.267   6.530
22158SOL     OW68370   2.137   6.449   2.503
22158SOL    HW168371   2.108   6.522   2.558
22158SOL    HW268372   2.138   6.485   2.414
22159SOL     OW68373  10.844   6.599  10.413
22159SOL    HW168374  10.841   6.651  10.333
22159SOL    HW268375  10.793   6.650  10.476
22160SOL     OW68376  13.104  11.668  12.458
22160SOL    HW168377  13.014  11.655  12.488
22160SOL    HW268378  13.158  11.648  12.535
22161SOL     OW68379  14.290  10.842   8.486
22161SOL    HW168380  14.267  10.754   8.517
22161SOL    HW268381  14.382  10.836   8.463
22162SOL     OW68382   2.977  12.011   3.590
22162SOL    HW168383   2.962  11.964   3.508
22162SOL    HW268384   3.026  12.089   3.565
22163SOL     OW68385  12.452   8.730   8.062
22163SOL    HW168386  12.507   8.792   8.109
22163SOL    HW268387  12.494   8.645   8.075
22164SOL     OW68388   2.180   3.186  14.102
22164SOL    HW168389   2.192   3.138  14.020
22164SOL    HW268390   2.251   3.250  14.103
22165SOL     OW68391   8.177   8.994  13.771
22165SOL    HW168392   8.221   9.079  13.768
22165SOL    HW268393   8.211   8.953  13.851
22166SOL     OW68394   2.350   0.805   2.005
22166SOL    HW168395   2.395   0.868   1.948
22166SOL    HW268396   2.414   0.736   2.019
22167SOL     OW68397   5.014   1.846  12.453
22167SOL    HW168398   5.085   1.889  12.500
22167SOL    HW268399   4.938   1.903  12.468
22168SOL     OW68400   5.810   1.918   0.595
22168SOL    HW168401   5.766   2.003   0.590
22168SOL    HW268402   5.791   1.876   0.511
22169SOL     OW68403   4.005   6.587   0.241
22169SOL    HW168404   4.052   6.640   0.176
22169SOL    HW268405   4.049   6.502   0.239
22170SOL     OW68406   8.947   0.208  11.625
22170SOL    HW168407   8.859   0.210  11.661
22170SOL    HW268408   9.001   0.172  11.697
22171SOL     OW68409   5.522   4.430   2.370
22171SOL    HW168410   5.432   4.464   2.362
22171SOL    HW268411   5.523   4.352   2.315
22172SOL     OW68412   1.728  10.447   9.792
22172SOL    HW168413   1.749  10.434   9.699
22172SOL    HW268414   1.796  10.505   9.825
22173SOL     OW68415   1.689   6.806  11.481
22173SOL    HW168416   1.747   6.876  11.452
22173SOL    HW268417   1.744   6.727  11.478
22174SOL     OW68418   9.199   2.462   7.479
22174SOL    HW168419   9.209   2.367   7.484
22174SOL    HW268420   9.132   2.483   7.544
22175SOL     OW68421   0.004   4.739  12.334
22175SOL    HW168422  14.827   4.820  12.326
22175SOL    HW268423   0.094   4.767  12.351
22176SOL     OW68424   8.914   5.036  14.390
22176SOL    HW168425   8.954   4.951  14.372
22176SOL    HW268426   8.985   5.091  14.421
22177SOL     OW68427   6.762  13.170  10.851
22177SOL    HW168428   6.746  13.140  10.940
22177SOL    HW268429   6.768  13.265  10.858
22178SOL     OW68430  11.986   0.336   2.576
22178SOL    HW168431  11.913   0.288   2.537
22178SOL    HW268432  11.991   0.417   2.526
22179SOL     OW68433   1.578   7.759  10.296
22179SOL    HW168434   1.539   7.671  10.295
22179SOL    HW268435   1.511   7.815  10.257
22180SOL     OW68436   0.518  12.996   0.747
22180SOL    HW168437   0.531  13.020   0.655
22180SOL    HW268438   0.442  13.048   0.774
22181SOL     OW68439   7.538   6.667  11.511
22181SOL    HW168440   7.617   6.720  11.522
22181SOL    HW268441   7.557   6.586  11.559
22182SOL     OW68442   1.010   5.110   8.412
22182SOL    HW168443   1.033   5.018   8.405
22182SOL    HW268444   1.046   5.138   8.496
22183SOL     OW68445   6.183  11.732  10.880
22183SOL    HW168446   6.104  11.781  10.904
22183SOL    HW268447   6.205  11.683  10.959
22184SOL     OW68448   8.214   7.794   5.048
22184SOL    HW168449   8.183   7.752   5.128
22184SOL    HW268450   8.167   7.750   4.978
22185SOL     OW68451   9.389   0.546   1.419
22185SOL    HW168452   9.459   0.530   1.482
22185SOL    HW268453   9.311   0.560   1.474
22186SOL     OW68454   4.392  13.092  10.717
22186SOL    HW168455   4.374  13.127  10.804
22186SOL    HW268456   4.305  13.078  10.678
22187SOL     OW68457  11.851   1.201  12.795
22187SOL    HW168458  11.923   1.161  12.843
22187SOL    HW268459  11.893   1.254  12.727
22188SOL     OW68460   7.665   5.805   8.560
22188SOL    HW168461   7.597   5.806   8.627
22188SOL    HW268462   7.631   5.859   8.489
22189SOL     OW68463   2.180   8.179   7.142
22189SOL    HW168464   2.159   8.097   7.097
22189SOL    HW268465   2.105   8.195   7.199
22190SOL     OW68466   1.738  14.169   7.950
22190SOL    HW168467   1.828  14.175   7.919
22190SOL    HW268468   1.692  14.241   7.907
22191SOL     OW68469  11.230   3.567  13.365
22191SOL    HW168470  11.266   3.499  13.421
22191SOL    HW268471  11.172   3.618  13.423
22192SOL     OW68472   0.801  10.743   6.302
22192SOL    HW168473   0.814  10.669   6.361
22192SOL    HW268474   0.851  10.720   6.223
22193SOL     OW68475  11.580  14.647   6.536
22193SOL    HW168476  11.512  14.590   6.572
22193SOL    HW268477  11.535  14.730   6.520
22194SOL     OW68478   7.022   9.943  13.682
22194SOL    HW168479   7.104   9.989  13.661
22194SOL    HW268480   7.050   9.856  13.709
22195SOL     OW68481   4.853   9.419   7.494
22195SOL    HW168482   4.778   9.361   7.510
22195SOL    HW268483   4.925   9.359   7.474
22196SOL     OW68484   5.154   5.657  12.358
22196SOL    HW168485   5.133   5.706  12.279
22196SOL    HW268486   5.119   5.569  12.343
22197SOL     OW68487  10.603   3.275   5.577
22197SOL    HW168488  10.658   3.297   5.502
22197SOL    HW268489  10.604   3.179   5.579
22198SOL     OW68490   1.272   0.440   3.420
22198SOL    HW168491   1.334   0.511   3.439
22198SOL    HW268492   1.306   0.400   3.340
22199SOL     OW68493  13.330   0.092   0.189
22199SOL    HW168494  13.278   0.053   0.120
22199SOL    HW268495  13.349   0.020   0.250
22200SOL     OW68496   1.847  10.094  14.594
22200SOL    HW168497   1.941  10.074  14.590
22200SOL    HW268498   1.824  10.084  14.686
22201SOL     OW68499   7.341   2.701   7.567
22201SOL    HW168500   7.310   2.642   7.498
22201SOL    HW268501   7.313   2.788   7.539
22202SOL     OW68502   8.894   3.597   0.355
22202SOL    HW168503   8.848   3.557   0.429
22202SOL    HW268504   8.870   3.543   0.280
22203SOL     OW68505   0.801   4.755  13.779
22203SOL    HW168506   0.764   4.749  13.691
22203SOL    HW268507   0.788   4.846  13.804
22204SOL     OW68508   4.250   1.042   6.989
22204SOL    HW168509   4.299   1.110   7.036
22204SOL    HW268510   4.176   1.090   6.949
22205SOL     OW68511  10.837   7.944   5.169
22205SOL    HW168512  10.759   7.999   5.162
22205SOL    HW268513  10.890   7.987   5.235
22206SOL     OW68514   3.194  12.761   9.643
22206SOL    HW168515   3.268  12.794   9.693
22206SOL    HW268516   3.233  12.725   9.563
22207SOL     OW68517   3.048  13.959   6.182
22207SOL    HW168518   2.958  13.954   6.215
22207SOL    HW268519   3.100  13.916   6.249
22208SOL     OW68520   9.256   7.545   5.461
22208SOL    HW168521   9.183   7.535   5.521
22208SOL    HW268522   9.305   7.463   5.470
22209SOL     OW68523   0.557  12.338  11.169
22209SOL    HW168524   0.563  12.434  11.177
22209SOL    HW268525   0.640  12.306  11.204
22210SOL     OW68526   1.865   3.082  14.511
22210SOL    HW168527   1.877   3.015  14.443
22210SOL    HW268528   1.845   3.162  14.463
22211SOL     OW68529   7.103   3.448  12.045
22211SOL    HW168530   7.074   3.538  12.062
22211SOL    HW268531   7.102   3.406  12.131
22212SOL     OW68532   8.239   0.387   3.623
22212SOL    HW168533   8.307   0.332   3.584
22212SOL    HW268534   8.181   0.409   3.551
22213SOL     OW68535   7.640   4.909   4.222
22213SOL    HW168536   7.574   4.931   4.287
22213SOL    HW268537   7.624   4.816   4.203
22214SOL     OW68538  10.569  12.693  13.610
22214SOL    HW168539  10.591  12.778  13.572
22214SOL    HW268540  10.564  12.634  13.534
22215SOL     OW68541   8.666   1.719  13.198
22215SOL    HW168542   8.700   1.749  13.114
22215SOL    HW268543   8.639   1.799  13.242
22216SOL     OW68544  12.153  12.015   0.183
22216SOL    HW168545  12.143  12.040   0.275
22216SOL    HW268546  12.228  11.955   0.183
22217SOL     OW68547  14.321   5.195   8.633
22217SOL    HW168548  14.334   5.238   8.718
22217SOL    HW268549  14.397   5.138   8.624
22218SOL     OW68550  13.975  10.704   0.967
22218SOL    HW168551  14.018  10.664   1.042
22218SOL    HW268552  14.012  10.792   0.961
22219SOL     OW68553  12.265   6.875  11.409
22219SOL    HW168554  12.191   6.932  11.428
22219SOL    HW268555  12.254   6.801  11.469
22220SOL     OW68556   2.945   7.824   2.242
22220SOL    HW168557   2.963   7.900   2.187
22220SOL    HW268558   3.024   7.769   2.234
22221SOL     OW68559   4.204   4.664  12.004
22221SOL    HW168560   4.206   4.601  12.076
22221SOL    HW268561   4.294   4.665  11.971
22222SOL     OW68562  10.731   2.383   8.873
22222SOL    HW168563  10.798   2.438   8.833
22222SOL    HW268564  10.659   2.442   8.892
22223SOL     OW68565   9.143  11.182   0.434
22223SOL    HW168566   9.129  11.268   0.475
22223SOL    HW268567   9.118  11.195   0.343
22224SOL     OW68568  12.052  12.839   0.605
22224SOL    HW168569  12.052  12.850   0.509
22224SOL    HW268570  12.086  12.751   0.619
22225SOL     OW68571   0.211   6.004  11.744
22225SOL    HW168572   0.159   5.988  11.823
22225SOL    HW268573   0.146   6.023  11.677
22226SOL     OW68574   4.198   7.650   4.890
22226SOL    HW168575   4.146   7.697   4.955
22226SOL    HW268576   4.141   7.642   4.814
22227SOL     OW68577   4.660   7.719   2.048
22227SOL    HW168578   4.751   7.731   2.073
22227SOL    HW268579   4.650   7.766   1.965
22228SOL     OW68580   7.487   5.397   0.316
22228SOL    HW168581   7.520   5.483   0.291
22228SOL    HW268582   7.428   5.415   0.390
22229SOL     OW68583   9.396   7.983   2.510
22229SOL    HW168584   9.366   7.932   2.435
22229SOL    HW268585   9.351   7.944   2.585
22230SOL     OW68586  12.387   2.301   1.292
22230SOL    HW168587  12.316   2.327   1.350
22230SOL    HW268588  12.355   2.221   1.250
22231SOL     OW68589  10.203   6.910  12.405
22231SOL    HW168590  10.155   6.858  12.470
22231SOL    HW268591  10.257   6.846  12.359
22232SOL     OW68592   0.601   3.940  13.288
22232SOL    HW168593   0.574   3.852  13.312
22232SOL    HW268594   0.555   3.997  13.349
22233SOL     OW68595  10.851   7.417  11.606
22233SOL    HW168596  10.813   7.404  11.693
22233SOL    HW268597  10.929   7.470  11.622
22234SOL     OW68598  10.827   4.135   6.374
22234SOL    HW168599  10.792   4.105   6.290
22234SOL    HW268600  10.917   4.103   6.376
22235SOL     OW68601   6.291   4.543   0.408
22235SOL    HW168602   6.358   4.608   0.387
22235SOL    HW268603   6.340   4.462   0.423
22236SOL     OW68604  13.688  12.745   0.084
22236SOL    HW168605  13.657  12.754   0.174
22236SOL    HW268606  13.615  12.774   0.030
22237SOL     OW68607  14.758   7.161   9.148
22237SOL    HW168608  14.692   7.145   9.081
22237SOL    HW268609  14.840   7.129   9.109
22238SOL     OW68610  12.085   1.764  11.613
22238SOL    HW168611  12.080   1.852  11.576
22238SOL    HW268612  12.133   1.714  11.547
22239SOL     OW68613   8.770   8.260   1.899
22239SOL    HW168614   8.764   8.165   1.890
22239SOL    HW268615   8.720   8.295   1.826
22240SOL     OW68616   0.490  11.453   0.120
22240SOL    HW168617   0.401  11.486   0.118
22240SOL    HW268618   0.500  11.405   0.038
22241SOL     OW68619   6.020   2.459  10.631
22241SOL    HW168620   5.978   2.468  10.716
22241SOL    HW268621   6.051   2.547  10.610
22242SOL     OW68622   6.327   3.281   3.747
22242SOL    HW168623   6.302   3.254   3.835
22242SOL    HW268624   6.246   3.278   3.697
22243SOL     OW68625  13.233  13.677   3.409
22243SOL    HW168626  13.291  13.711   3.477
22243SOL    HW268627  13.155  13.733   3.415
22244SOL     OW68628  14.817  11.619  10.505
22244SOL    HW168629  14.800  11.711  10.526
22244SOL    HW268630  14.825  11.576  10.590
22245SOL     OW68631   2.907   0.120   7.493
22245SOL    HW168632   2.963   0.181   7.542
22245SOL    HW268633   2.969   0.059   7.451
22246SOL     OW68634   6.545  12.960   3.716
22246SOL    HW168635   6.622  12.907   3.695
22246SOL    HW268636   6.510  12.921   3.796
22247SOL     OW68637  10.086   9.049   7.081
22247SOL    HW168638  10.080   8.980   7.148
22247SOL    HW268639  10.175   9.041   7.048
22248SOL     OW68640   8.355   0.173   2.784
22248SOL    HW168641   8.403   0.175   2.701
22248SOL    HW268642   8.317   0.261   2.792
22249SOL     OW68643   8.279   9.328   2.696
22249SOL    HW168644   8.237   9.326   2.782
22249SOL    HW268645   8.262   9.417   2.664
22250SOL     OW68646  12.151   5.961   9.391
22250SOL    HW168647  12.222   6.016   9.424
22250SOL    HW268648  12.099   6.020   9.336
22251SOL     OW68649  11.198  10.067  14.005
22251SOL    HW168650  11.249  10.141  13.974
22251SOL    HW268651  11.262   9.997  14.018
22252SOL     OW68652  12.232   6.858   8.441
22252SOL    HW168653  12.275   6.902   8.368
22252SOL    HW268654  12.292   6.869   8.515
22253SOL     OW68655  14.811   2.281   2.683
22253SOL    HW168656  14.766   2.335   2.749
22253SOL    HW268657  14.797   2.327   2.600
22254SOL     OW68658   3.316   0.063  12.581
22254SOL    HW168659   3.322   0.145  12.532
22254SOL    HW268660   3.251   0.080  12.649
22255SOL     OW68661  14.013  11.995  14.096
22255SOL    HW168662  13.976  11.907  14.101
22255SOL    HW268663  13.937  12.052  14.086
22256SOL     OW68664  12.183  10.866   0.207
22256SOL    HW168665  12.095  10.893   0.235
22256SOL    HW268666  12.201  10.787   0.258
22257SOL     OW68667  11.257   6.152  13.640
22257SOL    HW168668  11.301   6.226  13.681
22257SOL    HW268669  11.269   6.080  13.702
22258SOL     OW68670   2.563   4.099  13.339
22258SOL    HW168671   2.641   4.063  13.380
22258SOL    HW268672   2.539   4.173  13.394
22259SOL     OW68673  13.060   1.616  13.406
22259SOL    HW168674  13.021   1.531  13.427
22259SOL    HW268675  13.040   1.672  13.481
22260SOL     OW68676   5.590   0.182   3.541
22260SOL    HW168677   5.684   0.170   3.555
22260SOL    HW268678   5.549   0.118   3.599
22261SOL     OW68679   8.427  13.555   9.309
22261SOL    HW168680   8.419  13.610   9.386
22261SOL    HW268681   8.404  13.612   9.236
22262SOL     OW68682   7.445  10.457   0.986
22262SOL    HW168683   7.510  10.397   1.023
22262SOL    HW268684   7.450  10.442   0.891
22263SOL     OW68685   8.494  12.439   9.097
22263SOL    HW168686   8.422  12.455   9.035
22263SOL    HW268687   8.540  12.522   9.102
22264SOL     OW68688   0.053   8.195   8.585
22264SOL    HW168689   0.001   8.208   8.665
22264SOL    HW268690   0.085   8.282   8.562
22265SOL     OW68691   0.054  14.380   4.683
22265SOL    HW168692   0.060  14.463   4.731
22265SOL    HW268693   0.139  14.369   4.641
22266SOL     OW68694   6.501   3.280   9.969
22266SOL    HW168695   6.589   3.245   9.982
22266SOL    HW268696   6.496   3.356  10.026
22267SOL     OW68697  11.444   0.639   5.410
22267SOL    HW168698  11.393   0.713   5.375
22267SOL    HW268699  11.472   0.590   5.333
22268SOL     OW68700  10.711  11.096   6.091
22268SOL    HW168701  10.734  11.013   6.132
22268SOL    HW268702  10.621  11.084   6.060
22269SOL     OW68703  10.284  12.824   4.329
22269SOL    HW168704  10.198  12.863   4.320
22269SOL    HW268705  10.280  12.744   4.275
22270SOL     OW68706   6.351   0.898   3.154
22270SOL    HW168707   6.392   0.812   3.168
22270SOL    HW268708   6.422   0.961   3.168
22271SOL     OW68709   3.246   8.236   6.537
22271SOL    HW168710   3.232   8.146   6.509
22271SOL    HW268711   3.317   8.230   6.602
22272SOL     OW68712  14.174   2.175   3.973
22272SOL    HW168713  14.111   2.156   4.042
22272SOL    HW268714  14.121   2.209   3.901
22273SOL     OW68715   2.080   6.090   4.095
22273SOL    HW168716   2.040   6.104   4.181
22273SOL    HW268717   2.007   6.079   4.035
22274SOL     OW68718   1.097   5.930   6.273
22274SOL    HW168719   1.137   5.997   6.328
22274SOL    HW268720   1.011   5.915   6.312
22275SOL     OW68721  10.714   5.778   2.395
22275SOL    HW168722  10.645   5.789   2.459
22275SOL    HW268723  10.759   5.697   2.421
22276SOL     OW68724   5.759   7.638   4.532
22276SOL    HW168725   5.671   7.673   4.545
22276SOL    HW268726   5.745   7.551   4.495
22277SOL     OW68727   6.558   3.205  11.880
22277SOL    HW168728   6.603   3.285  11.904
22277SOL    HW268729   6.570   3.198  11.785
22278SOL     OW68730  12.820   5.869   9.865
22278SOL    HW168731  12.778   5.916   9.936
22278SOL    HW268732  12.893   5.926   9.838
22279SOL     OW68733   0.474   9.125  11.586
22279SOL    HW168734   0.440   9.204  11.627
22279SOL    HW268735   0.518   9.079  11.657
22280SOL     OW68736   8.364   9.653  12.249
22280SOL    HW168737   8.375   9.574  12.196
22280SOL    HW268738   8.426   9.716  12.213
22281SOL     OW68739   3.266   6.171   7.922
22281SOL    HW168740   3.236   6.103   7.982
22281SOL    HW268741   3.200   6.240   7.928
22282SOL     OW68742   1.504   4.857  13.716
22282SOL    HW168743   1.535   4.878  13.804
22282SOL    HW268744   1.440   4.926  13.695
22283SOL     OW68745  11.553   9.093   3.456
22283SOL    HW168746  11.605   9.044   3.392
22283SOL    HW268747  11.587   9.182   3.450
22284SOL     OW68748  12.651   1.757   5.120
22284SOL    HW168749  12.624   1.782   5.209
22284SOL    HW268750  12.747   1.752   5.125
22285SOL     OW68751   3.572   5.000   8.054
22285SOL    HW168752   3.484   4.996   8.018
22285SOL    HW268753   3.571   5.076   8.112
22286SOL     OW68754  14.376  11.576   3.840
22286SOL    HW168755  14.349  11.525   3.916
22286SOL    HW268756  14.365  11.517   3.765
22287SOL     OW68757  13.612   7.865   9.764
22287SOL    HW168758  13.637   7.902   9.848
22287SOL    HW268759  13.528   7.906   9.743
22288SOL     OW68760   3.145  10.201   2.777
22288SOL    HW168761   3.070  10.213   2.719
22288SOL    HW268762   3.111  10.219   2.865
22289SOL     OW68763  10.318  13.562   0.800
22289SOL    HW168764  10.237  13.513   0.813
22289SOL    HW268765  10.353  13.529   0.717
22290SOL     OW68766   4.483   3.579   7.028
22290SOL    HW168767   4.552   3.554   6.967
22290SOL    HW268768   4.523   3.646   7.084
22291SOL     OW68769   8.426   7.570  10.180
22291SOL    HW168770   8.380   7.582  10.097
22291SOL    HW268771   8.489   7.641  10.184
22292SOL     OW68772  13.215   8.494   3.881
22292SOL    HW168773  13.213   8.434   3.955
22292SOL    HW268774  13.175   8.446   3.809
22293SOL     OW68775   8.662   2.992   4.875
22293SOL    HW168776   8.748   2.974   4.912
22293SOL    HW268777   8.617   2.907   4.879
22294SOL     OW68778   5.488   0.741   2.717
22294SOL    HW168779   5.395   0.766   2.719
22294SOL    HW268780   5.524   0.791   2.644
22295SOL     OW68781   0.530  12.272   0.765
22295SOL    HW168782   0.574  12.355   0.785
22295SOL    HW268783   0.589  12.205   0.798
22296SOL     OW68784  14.477   7.909   4.596
22296SOL    HW168785  14.403   7.865   4.638
22296SOL    HW268786  14.511   7.968   4.664
22297SOL     OW68787  10.455   3.965   1.210
22297SOL    HW168788  10.438   3.908   1.285
22297SOL    HW268789  10.540   3.937   1.176
22298SOL     OW68790  13.613   5.549   1.795
22298SOL    HW168791  13.698   5.543   1.752
22298SOL    HW268792  13.565   5.615   1.745
22299SOL     OW68793   9.400  14.344   3.386
22299SOL    HW168794   9.338  14.338   3.458
22299SOL    HW268795   9.416  14.253   3.361
22300SOL     OW68796  12.145  11.866   3.988
22300SOL    HW168797  12.182  11.831   3.908
22300SOL    HW268798  12.057  11.827   3.993
22301SOL     OW68799  11.773   1.751   9.681
22301SOL    HW168800  11.762   1.760   9.587
22301SOL    HW268801  11.684   1.743   9.715
22302SOL     OW68802   5.392   4.792  11.526
22302SOL    HW168803   5.472   4.777  11.576
22302SOL    HW268804   5.323   4.797  11.591
22303SOL     OW68805   6.275  14.684   0.961
22303SOL    HW168806   6.366  14.676   0.932
22303SOL    HW268807   6.274  14.643   1.048
22304SOL     OW68808  10.999  10.430  12.713
22304SOL    HW168809  10.959  10.467  12.792
22304SOL    HW268810  10.969  10.339  12.712
22305SOL     OW68811   3.660   1.881   7.813
22305SOL    HW168812   3.660   1.976   7.820
22305SOL    HW268813   3.573   1.859   7.777
22306SOL     OW68814  10.113   3.458   6.825
22306SOL    HW168815  10.178   3.510   6.872
22306SOL    HW268816  10.150   3.370   6.822
22307SOL     OW68817   0.905  10.191   7.469
22307SOL    HW168818   0.892  10.257   7.401
22307SOL    HW268819   0.989  10.150   7.447
22308SOL     OW68820   9.329   1.170   4.055
22308SOL    HW168821   9.312   1.219   4.135
22308SOL    HW268822   9.348   1.237   3.989
22309SOL     OW68823   9.896   6.851   5.000
22309SOL    HW168824   9.840   6.826   4.926
22309SOL    HW268825   9.907   6.771   5.051
22310SOL     OW68826   3.556  11.995  12.985
22310SOL    HW168827   3.614  11.974  12.911
22310SOL    HW268828   3.516  12.079  12.961
22311SOL     OW68829   5.232   4.699   9.947
22311SOL    HW168830   5.157   4.701  10.006
22311SOL    HW268831   5.300   4.653   9.996
22312SOL     OW68832   6.267   1.070  10.212
22312SOL    HW168833   6.275   0.984  10.253
22312SOL    HW268834   6.206   1.118  10.269
22313SOL     OW68835   7.605   9.171   8.079
22313SOL    HW168836   7.607   9.248   8.021
22313SOL    HW268837   7.512   9.154   8.092
22314SOL     OW68838   8.236   1.416  14.006
22314SOL    HW168839   8.329   1.419  14.027
22314SOL    HW268840   8.219   1.325  13.982
22315SOL     OW68841   6.261   2.943   0.873
22315SOL    HW168842   6.331   3.009   0.868
22315SOL    HW268843   6.237   2.927   0.782
22316SOL     OW68844   3.290  14.510   6.884
22316SOL    HW168845   3.237  14.481   6.810
22316SOL    HW268846   3.268  14.450   6.955
22317SOL     OW68847   1.248   5.141  11.960
22317SOL    HW168848   1.178   5.099  12.011
22317SOL    HW268849   1.321   5.147  12.021
22318SOL     OW68850   7.631  10.955   7.308
22318SOL    HW168851   7.665  11.018   7.372
22318SOL    HW268852   7.573  10.898   7.359
22319SOL     OW68853  14.757   5.923   8.433
22319SOL    HW168854  14.791   5.841   8.469
22319SOL    HW268855  14.787   5.990   8.495
22320SOL     OW68856   2.868   0.436   4.335
22320SOL    HW168857   2.785   0.440   4.381
22320SOL    HW268858   2.920   0.373   4.384
22321SOL     OW68859   8.243  12.635  12.816
22321SOL    HW168860   8.266  12.649  12.908
22321SOL    HW268861   8.281  12.710  12.770
22322SOL     OW68862   2.894  10.804   4.552
22322SOL    HW168863   2.968  10.863   4.563
22322SOL    HW268864   2.917  10.727   4.604
22323SOL     OW68865  10.602   0.785   6.888
22323SOL    HW168866  10.687   0.753   6.919
22323SOL    HW268867  10.543   0.710   6.900
22324SOL     OW68868   9.214   9.883  11.876
22324SOL    HW168869   9.160   9.810  11.845
22324SOL    HW268870   9.185   9.897  11.966
22325SOL     OW68871   0.857   1.487   4.769
22325SOL    HW168872   0.777   1.445   4.801
22325SOL    HW268873   0.845   1.580   4.788
22326SOL     OW68874  13.161   5.139   9.672
22326SOL    HW168875  13.134   5.148   9.764
22326SOL    HW268876  13.256   5.139   9.676
22327SOL     OW68877   4.385   9.330   9.575
22327SOL    HW168878   4.442   9.377   9.636
22327SOL    HW268879   4.388   9.380   9.494
22328SOL     OW68880   7.232   4.242  12.605
22328SOL    HW168881   7.179   4.162  12.607
22328SOL    HW268882   7.315   4.218  12.646
22329SOL     OW68883  14.147   6.005   4.887
22329SOL    HW168884  14.081   5.972   4.827
22329SOL    HW268885  14.119   5.974   4.973
22330SOL     OW68886   1.803   4.912   7.098
22330SOL    HW168887   1.754   4.964   7.034
22330SOL    HW268888   1.752   4.831   7.107
22331SOL     OW68889   8.062   5.162   9.510
22331SOL    HW168890   8.006   5.092   9.541
22331SOL    HW268891   8.148   5.143   9.547
22332SOL     OW68892   5.880  12.077   2.755
22332SOL    HW168893   5.928  11.999   2.728
22332SOL    HW268894   5.888  12.079   2.850
22333SOL     OW68895   7.711   6.384  13.913
22333SOL    HW168896   7.666   6.308  13.950
22333SOL    HW268897   7.678   6.390  13.823
22334SOL     OW68898   1.452   3.164   6.683
22334SOL    HW168899   1.530   3.139   6.733
22334SOL    HW268900   1.407   3.082   6.665
22335SOL     OW68901   0.898   6.821   0.016
22335SOL    HW168902   0.817   6.822  14.837
22335SOL    HW268903   0.872   6.788   0.102
22336SOL     OW68904   9.456   2.431   7.999
22336SOL    HW168905   9.425   2.386   8.077
22336SOL    HW268906   9.549   2.410   7.994
22337SOL     OW68907   6.325  13.191  12.791
22337SOL    HW168908   6.330  13.221  12.882
22337SOL    HW268909   6.315  13.096  12.799
22338SOL     OW68910   6.528  13.904  12.759
22338SOL    HW168911   6.533  13.845  12.834
22338SOL    HW268912   6.435  13.903  12.734
22339SOL     OW68913   2.644   8.335  11.354
22339SOL    HW168914   2.686   8.311  11.436
22339SOL    HW268915   2.696   8.290  11.287
22340SOL     OW68916  10.955   7.026   4.950
22340SOL    HW168917  11.001   7.053   5.029
22340SOL    HW268918  10.873   7.075   4.952
22341SOL     OW68919  11.110   7.049   7.767
22341SOL    HW168920  11.195   7.094   7.761
22341SOL    HW268921  11.052   7.099   7.710
22342SOL     OW68922   9.521   6.711   5.428
22342SOL    HW168923   9.582   6.723   5.501
22342SOL    HW268924   9.437   6.694   5.471
22343SOL     OW68925   0.223  13.871   5.085
22343SOL    HW168926   0.277  13.950   5.089
22343SOL    HW268927   0.188  13.870   4.996
22344SOL     OW68928  12.244   7.140   8.157
22344SOL    HW168929  12.312   7.180   8.211
22344SOL    HW268930  12.172   7.124   8.218
22345SOL     OW68931   9.900   1.724   6.284
22345SOL    HW168932   9.829   1.677   6.328
22345SOL    HW268933   9.970   1.729   6.348
22346SOL     OW68934  13.116   4.557  11.118
22346SOL    HW168935  13.195   4.541  11.168
22346SOL    HW268936  13.066   4.619  11.170
22347SOL     OW68937  10.538  12.357   5.977
22347SOL    HW168938  10.590  12.398   6.046
22347SOL    HW268939  10.539  12.264   5.998
22348SOL     OW68940  11.071  13.898   4.287
22348SOL    HW168941  11.088  13.887   4.380
22348SOL    HW268942  10.986  13.941   4.283
22349SOL     OW68943  14.443   6.688  14.336
22349SOL    HW168944  14.361   6.659  14.376
22349SOL    HW268945  14.419   6.711  14.246
22350SOL     OW68946  13.886  12.151  10.901
22350SOL    HW168947  13.981  12.147  10.918
22350SOL    HW268948  13.848  12.175  10.986
22351SOL     OW68949  11.895   2.389   3.001
22351SOL    HW168950  11.925   2.355   3.085
22351SOL    HW268951  11.938   2.334   2.935
22352SOL     OW68952   1.517  14.019   7.976
22352SOL    HW168953   1.598  14.070   7.970
22352SOL    HW268954   1.513  13.969   7.894
22353SOL     OW68955   7.760   8.313   1.092
22353SOL    HW168956   7.840   8.361   1.117
22353SOL    HW268957   7.740   8.259   1.168
22354SOL     OW68958   9.308   9.806   1.436
22354SOL    HW168959   9.246   9.747   1.394
22354SOL    HW268960   9.393   9.766   1.420
22355SOL     OW68961  10.533   4.214  11.055
22355SOL    HW168962  10.555   4.223  11.148
22355SOL    HW268963  10.462   4.150  11.053
22356SOL     OW68964  11.927   1.663   7.333
22356SOL    HW168965  12.018   1.683   7.354
22356SOL    HW268966  11.932   1.607   7.255
22357SOL     OW68967  12.855  11.902   5.286
22357SOL    HW168968  12.841  11.811   5.258
22357SOL    HW268969  12.817  11.907   5.374
22358SOL     OW68970  13.919   6.727   3.152
22358SOL    HW168971  13.874   6.780   3.218
22358SOL    HW268972  14.010   6.727   3.181
22359SOL     OW68973   5.375  11.781   4.843
22359SOL    HW168974   5.392  11.733   4.762
22359SOL    HW268975   5.457  11.828   4.860
22360SOL     OW68976  10.650  14.217   3.836
22360SOL    HW168977  10.745  14.208   3.839
22360SOL    HW268978  10.621  14.196   3.925
22361SOL     OW68979   1.203   5.869   3.121
22361SOL    HW168980   1.176   5.959   3.103
22361SOL    HW268981   1.155   5.816   3.058
22362SOL     OW68982   9.356  11.939   1.307
22362SOL    HW168983   9.268  11.906   1.288
22362SOL    HW268984   9.381  11.987   1.228
22363SOL     OW68985   7.489  14.690   2.666
22363SOL    HW168986   7.471  14.724   2.753
22363SOL    HW268987   7.408  14.706   2.617
22364SOL     OW68988  12.050   6.933  13.253
22364SOL    HW168989  12.023   6.856  13.302
22364SOL    HW268990  12.112   6.899  13.187
22365SOL     OW68991   5.887  10.113   0.265
22365SOL    HW168992   5.898  10.070   0.349
22365SOL    HW268993   5.838  10.193   0.284
22366SOL     OW68994  14.377   9.866  13.008
22366SOL    HW168995  14.304   9.928  13.013
22366SOL    HW268996  14.338   9.787  12.970
22367SOL     OW68997  11.468  13.331   6.134
22367SOL    HW168998  11.484  13.276   6.211
22367SOL    HW268999  11.376  13.355   6.140
22368SOL     OW69000   7.546   4.643   6.518
22368SOL    HW169001   7.632   4.674   6.490
22368SOL    HW269002   7.488   4.665   6.445
22369SOL     OW69003   2.045   0.725   6.414
22369SOL    HW169004   2.085   0.805   6.382
22369SOL    HW269005   1.962   0.752   6.453
22370SOL     OW69006   4.064   4.708  10.225
22370SOL    HW169007   4.150   4.711  10.183
22370SOL    HW269008   4.067   4.630  10.281
22371SOL     OW69009   8.854  12.905   8.911
22371SOL    HW169010   8.901  12.822   8.902
22371SOL    HW269011   8.915  12.964   8.954
22372SOL     OW69012   4.401   7.774   9.138
22372SOL    HW169013   4.334   7.758   9.205
22372SOL    HW269014   4.467   7.707   9.154
22373SOL     OW69015   6.206  12.132  11.119
22373SOL    HW169016   6.151  12.118  11.197
22373SOL    HW269017   6.278  12.069  11.130
22374SOL     OW69018  10.703  11.107  12.671
22374SOL    HW169019  10.699  11.015  12.643
22374SOL    HW269020  10.796  11.122  12.686
22375SOL     OW69021   9.906  10.997   8.446
22375SOL    HW169022   9.888  11.070   8.505
22375SOL    HW269023   9.934  10.926   8.504
22376SOL     OW69024   4.744   9.793   1.309
22376SOL    HW169025   4.823   9.846   1.299
22376SOL    HW269026   4.688   9.843   1.367
22377SOL     OW69027   5.580   1.766   8.098
22377SOL    HW169028   5.493   1.784   8.133
22377SOL    HW269029   5.640   1.797   8.166
22378SOL     OW69030  14.797   8.129   8.342
22378SOL    HW169031  14.826   8.150   8.431
22378SOL    HW269032  14.858   8.177   8.285
22379SOL     OW69033  13.749   9.412  14.254
22379SOL    HW169034  13.798   9.423  14.335
22379SOL    HW269035  13.672   9.361  14.279
22380SOL     OW69036   9.776  14.131   0.309
22380SOL    HW169037   9.794  14.144   0.215
22380SOL    HW269038   9.771  14.220   0.345
22381SOL     OW69039   1.632  10.043  12.013
22381SOL    HW169040   1.555   9.987  12.023
22381SOL    HW269041   1.599  10.131  12.032
22382SOL     OW69042   3.465  10.464   3.812
22382SOL    HW169043   3.391  10.523   3.794
22382SOL    HW269044   3.532  10.490   3.749
22383SOL     OW69045   2.328   7.553   3.657
22383SOL    HW169046   2.404   7.609   3.671
22383SOL    HW269047   2.266   7.580   3.725
22384SOL     OW69048   4.553   8.631   8.138
22384SOL    HW169049   4.628   8.681   8.167
22384SOL    HW269050   4.481   8.694   8.137
22385SOL     OW69051   3.406  12.142   1.667
22385SOL    HW169052   3.354  12.121   1.589
22385SOL    HW269053   3.423  12.057   1.707
22386SOL     OW69054   0.932   3.785   4.539
22386SOL    HW169055   0.942   3.730   4.462
22386SOL    HW269056   0.862   3.846   4.517
22387SOL     OW69057   6.656  10.352   9.630
22387SOL    HW169058   6.718  10.298   9.580
22387SOL    HW269059   6.570  10.319   9.605
22388SOL     OW69060   8.027  14.053   9.481
22388SOL    HW169061   7.950  14.047   9.424
22388SOL    HW269062   7.991  14.046   9.570
22389SOL     OW69063   4.102   2.764   2.221
22389SOL    HW169064   4.091   2.700   2.150
22389SOL    HW269065   4.185   2.807   2.201
22390SOL     OW69066   4.589   3.240   2.837
22390SOL    HW169067   4.543   3.217   2.918
22390SOL    HW269068   4.604   3.334   2.844
22391SOL     OW69069   9.128   3.756  14.444
22391SOL    HW169070   9.116   3.750  14.349
22391SOL    HW269071   9.039   3.755  14.479
22392SOL     OW69072   6.840  11.887   8.396
22392SOL    HW169073   6.887  11.968   8.411
22392SOL    HW269074   6.790  11.873   8.477
22393SOL     OW69075  13.698  13.435  13.646
22393SOL    HW169076  13.775  13.404  13.597
22393SOL    HW269077  13.710  13.530  13.651
22394SOL     OW69078  11.954   8.529   4.561
22394SOL    HW169079  11.935   8.480   4.640
22394SOL    HW269080  12.018   8.475   4.514
22395SOL     OW69081   4.382   4.410   1.076
22395SOL    HW169082   4.415   4.490   1.035
22395SOL    HW269083   4.399   4.423   1.169
22396SOL     OW69084  14.447   5.278   2.122
22396SOL    HW169085  14.538   5.250   2.110
22396SOL    HW269086  14.403   5.199   2.154
22397SOL     OW69087   5.304   8.429  14.155
22397SOL    HW169088   5.384   8.473  14.183
22397SOL    HW269089   5.236   8.464  14.213
22398SOL     OW69090  10.157   7.877   4.726
22398SOL    HW169091  10.144   7.961   4.768
22398SOL    HW269092  10.162   7.897   4.632
22399SOL     OW69093  13.048   5.696   7.570
22399SOL    HW169094  13.038   5.605   7.600
22399SOL    HW269095  12.991   5.703   7.494
22400SOL     OW69096  12.532  14.317   8.562
22400SOL    HW169097  12.615  14.291   8.602
22400SOL    HW269098  12.537  14.284   8.473
22401SOL     OW69099  10.081  14.163   4.552
22401SOL    HW169100  10.174  14.186   4.556
22401SOL    HW269101  10.075  14.081   4.600
22402SOL     OW69102   9.016   6.702   3.356
22402SOL    HW169103   9.075   6.776   3.367
22402SOL    HW269104   9.073   6.625   3.354
22403SOL     OW69105   8.744   9.835   1.202
22403SOL    HW169106   8.705   9.901   1.144
22403SOL    HW269107   8.778   9.768   1.143
22404SOL     OW69108   5.334   2.709   7.412
22404SOL    HW169109   5.356   2.746   7.327
22404SOL    HW269110   5.305   2.784   7.463
22405SOL     OW69111  10.371   7.225   2.480
22405SOL    HW169112  10.351   7.135   2.455
22405SOL    HW269113  10.289   7.273   2.464
22406SOL     OW69114   0.838  13.605   8.272
22406SOL    HW169115   0.849  13.569   8.184
22406SOL    HW269116   0.925  13.598   8.312
22407SOL     OW69117   7.284   6.564   2.723
22407SOL    HW169118   7.217   6.545   2.657
22407SOL    HW269119   7.285   6.659   2.729
22408SOL     OW69120   8.359  11.193   0.654
22408SOL    HW169121   8.384  11.101   0.661
22408SOL    HW269122   8.311  11.212   0.735
22409SOL     OW69123  10.286  10.716   1.578
22409SOL    HW169124  10.350  10.645   1.591
22409SOL    HW269125  10.337  10.796   1.592
22410SOL     OW69126   2.751  11.638  11.229
22410SOL    HW169127   2.742  11.592  11.146
22410SOL    HW269128   2.680  11.603  11.283
22411SOL     OW69129   8.966  12.834  10.230
22411SOL    HW169130   8.953  12.823  10.135
22411SOL    HW269131   9.057  12.862  10.239
22412SOL     OW69132   2.531   2.981   4.042
22412SOL    HW169133   2.520   2.898   4.087
22412SOL    HW269134   2.444   3.021   4.044
22413SOL     OW69135   0.042   7.144   1.342
22413SOL    HW169136   0.005   7.100   1.418
22413SOL    HW269137   0.137   7.142   1.356
22414SOL     OW69138  10.239   6.102  14.636
22414SOL    HW169139  10.318   6.053  14.659
22414SOL    HW269140  10.205   6.133  14.720
22415SOL     OW69141   0.845  12.401  12.722
22415SOL    HW169142   0.812  12.458  12.791
22415SOL    HW269143   0.926  12.443  12.692
22416SOL     OW69144   8.521   6.165   9.746
22416SOL    HW169145   8.558   6.097   9.803
22416SOL    HW269146   8.504   6.120   9.663
22417SOL     OW69147  12.894   2.416   8.765
22417SOL    HW169148  12.812   2.419   8.815
22417SOL    HW269149  12.916   2.507   8.749
22418SOL     OW69150  11.756   9.895  10.004
22418SOL    HW169151  11.846   9.906   9.974
22418SOL    HW269152  11.761   9.900  10.099
22419SOL     OW69153   4.285  10.613  12.110
22419SOL    HW169154   4.371  10.642  12.079
22419SOL    HW269155   4.228  10.689  12.097
22420SOL     OW69156   1.292   2.661   4.206
22420SOL    HW169157   1.205   2.674   4.244
22420SOL    HW269158   1.332   2.748   4.207
22421SOL     OW69159  11.091  12.474   6.133
22421SOL    HW169160  11.149  12.542   6.098
22421SOL    HW269161  11.047  12.516   6.207
22422SOL     OW69162   0.201   8.610   8.350
22422SOL    HW169163   0.126   8.655   8.388
22422SOL    HW269164   0.222   8.541   8.412
22423SOL     OW69165   5.353   2.631   1.711
22423SOL    HW169166   5.419   2.564   1.721
22423SOL    HW269167   5.331   2.629   1.617
22424SOL     OW69168   4.940   5.322   0.346
22424SOL    HW169169   4.944   5.417   0.339
22424SOL    HW269170   4.877   5.296   0.278
22425SOL     OW69171  10.469   0.100  11.104
22425SOL    HW169172  10.450   0.155  11.028
22425SOL    HW269173  10.553   0.134  11.137
22426SOL     OW69174   5.776   7.802   3.847
22426SOL    HW169175   5.827   7.818   3.927
22426SOL    HW269176   5.760   7.889   3.811
22427SOL     OW69177  11.983  14.870  13.446
22427SOL    HW169178  12.012   0.006  13.537
22427SOL    HW269179  11.989  14.776  13.427
22428SOL     OW69180   7.810   3.902   2.501
22428SOL    HW169181   7.864   3.952   2.440
22428SOL    HW269182   7.765   3.838   2.446
22429SOL     OW69183  12.956   7.166   9.597
22429SOL    HW169184  12.922   7.142   9.682
22429SOL    HW269185  13.046   7.133   9.597
22430SOL     OW69186   0.935   7.071   0.921
22430SOL    HW169187   1.018   7.111   0.949
22430SOL    HW269188   0.894   7.040   1.001
22431SOL     OW69189   8.661   2.088   2.454
22431SOL    HW169190   8.624   2.031   2.387
22431SOL    HW269191   8.621   2.060   2.536
22432SOL     OW69192   8.082  13.459   5.371
22432SOL    HW169193   8.152  13.514   5.337
22432SOL    HW269194   8.039  13.423   5.293
22433SOL     OW69195  12.315  11.738   0.499
22433SOL    HW169196  12.392  11.710   0.549
22433SOL    HW269197  12.294  11.664   0.443
22434SOL     OW69198  10.427   1.784   3.524
22434SOL    HW169199  10.503   1.818   3.570
22434SOL    HW269200  10.460   1.710   3.473
22435SOL     OW69201   8.492  11.024   1.981
22435SOL    HW169202   8.523  10.962   2.047
22435SOL    HW269203   8.547  11.101   1.993
22436SOL     OW69204  13.855   3.539   3.902
22436SOL    HW169205  13.908   3.474   3.855
22436SOL    HW269206  13.769   3.536   3.860
22437SOL     OW69207   1.003   9.761   2.101
22437SOL    HW169208   1.078   9.787   2.155
22437SOL    HW269209   1.012   9.815   2.022
22438SOL     OW69210   8.957   8.841  14.467
22438SOL    HW169211   8.943   8.935  14.472
22438SOL    HW269212   9.049   8.829  14.488
22439SOL     OW69213  11.388  13.165   9.394
22439SOL    HW169214  11.448  13.150   9.468
22439SOL    HW269215  11.343  13.247   9.416
22440SOL     OW69216  11.235   6.875   7.602
22440SOL    HW169217  11.165   6.934   7.630
22440SOL    HW269218  11.221   6.796   7.655
22441SOL     OW69219   8.044   9.865   2.573
22441SOL    HW169220   8.134   9.879   2.603
22441SOL    HW269221   8.040   9.909   2.488
22442SOL     OW69222   7.459  11.374   2.554
22442SOL    HW169223   7.472  11.390   2.460
22442SOL    HW269224   7.371  11.408   2.571
22443SOL     OW69225   0.798   8.958  12.935
22443SOL    HW169226   0.805   9.024  12.866
22443SOL    HW269227   0.764   9.007  13.010
22444SOL     OW69228   0.799  14.806   2.744
22444SOL    HW169229   0.804  14.794   2.839
22444SOL    HW269230   0.832   0.022   2.729
22445SOL     OW69231  13.907   8.474   5.983
22445SOL    HW169232  13.848   8.421   6.037
22445SOL    HW269233  13.969   8.410   5.947
22446SOL     OW69234  14.105  11.173   0.126
22446SOL    HW169235  14.178  11.235   0.122
22446SOL    HW269236  14.126  11.116   0.199
22447SOL     OW69237   1.357  11.815   8.651
22447SOL    HW169238   1.303  11.858   8.717
22447SOL    HW269239   1.438  11.794   8.696
22448SOL     OW69240  12.328   7.079   0.532
22448SOL    HW169241  12.356   7.148   0.471
22448SOL    HW269242  12.266   7.026   0.482
22449SOL     OW69243   9.137   2.239   9.305
22449SOL    HW169244   9.217   2.236   9.253
22449SOL    HW269245   9.167   2.250   9.395
22450SOL     OW69246   2.330  13.721  14.205
22450SOL    HW169247   2.294  13.804  14.175
22450SOL    HW269248   2.282  13.702  14.286
22451SOL     OW69249  13.076  10.846  10.621
22451SOL    HW169250  13.017  10.782  10.660
22451SOL    HW269251  13.033  10.930  10.636
22452SOL     OW69252  10.210   2.133   7.725
22452SOL    HW169253  10.253   2.109   7.643
22452SOL    HW269254  10.221   2.227   7.731
22453SOL     OW69255   1.945   1.670   3.377
22453SOL    HW169256   1.917   1.718   3.300
22453SOL    HW269257   1.976   1.738   3.438
22454SOL     OW69258  11.611   9.716   1.645
22454SOL    HW169259  11.684   9.745   1.699
22454SOL    HW269260  11.567   9.798   1.620
22455SOL     OW69261   7.269  14.549   7.186
22455SOL    HW169262   7.352  14.502   7.176
22455SOL    HW269263   7.291  14.640   7.170
22456SOL     OW69264   9.544  12.095   0.917
22456SOL    HW169265   9.593  12.151   0.857
22456SOL    HW269266   9.609  12.037   0.955
22457SOL     OW69267   3.490   4.436  13.789
22457SOL    HW169268   3.560   4.443  13.854
22457SOL    HW269269   3.489   4.344  13.764
22458SOL     OW69270   0.973  10.249   0.095
22458SOL    HW169271   0.904  10.246   0.028
22458SOL    HW269272   0.997  10.157   0.108
22459SOL     OW69273   0.648  12.142  13.178
22459SOL    HW169274   0.646  12.089  13.258
22459SOL    HW269275   0.556  12.157  13.157
22460SOL     OW69276   4.854   7.005   8.620
22460SOL    HW169277   4.759   7.006   8.625
22460SOL    HW269278   4.880   7.094   8.644
22461SOL     OW69279  11.227   4.209   9.689
22461SOL    HW169280  11.143   4.254   9.695
22461SOL    HW269281  11.284   4.255   9.751
22462SOL     OW69282   9.472   7.139  10.869
22462SOL    HW169283   9.393   7.095  10.837
22462SOL    HW269284   9.442   7.226  10.894
22463SOL     OW69285   5.673   5.549  10.699
22463SOL    HW169286   5.636   5.626  10.742
22463SOL    HW269287   5.743   5.584  10.644
22464SOL     OW69288   3.463   9.602   9.431
22464SOL    HW169289   3.409   9.538   9.386
22464SOL    HW269290   3.402   9.655   9.482
22465SOL     OW69291  10.603   1.965   8.286
22465SOL    HW169292  10.583   2.028   8.216
22465SOL    HW269293  10.566   2.005   8.365
22466SOL     OW69294  12.238   7.252   0.735
22466SOL    HW169295  12.155   7.236   0.779
22466SOL    HW269296  12.248   7.178   0.675
22467SOL     OW69297  13.591  11.363  13.232
22467SOL    HW169298  13.564  11.454  13.240
22467SOL    HW269299  13.517  11.319  13.191
22468SOL     OW69300   3.002  14.216  10.441
22468SOL    HW169301   3.054  14.186  10.366
22468SOL    HW269302   2.943  14.143  10.460
22469SOL     OW69303   5.560   7.623  13.416
22469SOL    HW169304   5.533   7.696  13.471
22469SOL    HW269305   5.497   7.624  13.343
22470SOL     OW69306   6.839   2.053   3.005
22470SOL    HW169307   6.773   2.004   3.055
22470SOL    HW269308   6.816   2.145   3.018
22471SOL     OW69309   0.658   0.283   1.915
22471SOL    HW169310   0.717   0.220   1.873
22471SOL    HW269311   0.579   0.280   1.861
22472SOL     OW69312   9.957  13.833   8.772
22472SOL    HW169313  10.021  13.784   8.824
22472SOL    HW269314   9.874  13.788   8.788
22473SOL     OW69315  12.844   8.298  12.820
22473SOL    HW169316  12.890   8.215  12.827
22473SOL    HW269317  12.904   8.355  12.772
22474SOL     OW69318   7.375   7.901   0.754
22474SOL    HW169319   7.426   7.943   0.823
22474SOL    HW269320   7.284   7.908   0.784
22475SOL     OW69321   4.570  11.962   0.370
22475SOL    HW169322   4.483  12.004   0.368
22475SOL    HW269323   4.556  11.876   0.330
22476SOL     OW69324   1.549   5.398   7.743
22476SOL    HW169325   1.462   5.397   7.704
22476SOL    HW269326   1.596   5.326   7.701
22477SOL     OW69327   0.874   7.725  12.535
22477SOL    HW169328   0.938   7.696  12.600
22477SOL    HW269329   0.811   7.778  12.584
22478SOL     OW69330   1.663   5.479  14.040
22478SOL    HW169331   1.645   5.386  14.052
22478SOL    HW269332   1.666   5.515  14.128
22479SOL     OW69333  14.355   2.759  12.017
22479SOL    HW169334  14.262   2.779  12.025
22479SOL    HW269335  14.371   2.756  11.922
22480SOL     OW69336   8.344  10.749   8.329
22480SOL    HW169337   8.288  10.677   8.359
22480SOL    HW269338   8.322  10.759   8.236
22481SOL     OW69339  14.198   0.910  10.598
22481SOL    HW169340  14.279   0.867  10.627
22481SOL    HW269341  14.214   0.933  10.507
22482SOL     OW69342   9.816   0.993  11.709
22482SOL    HW169343   9.803   1.058  11.640
22482SOL    HW269344   9.736   0.941  11.709
22483SOL     OW69345  10.129   1.993  10.381
22483SOL    HW169346  10.180   1.943  10.445
22483SOL    HW269347  10.053   2.024  10.430
22484SOL     OW69348  12.510   0.213  11.579
22484SOL    HW169349  12.481   0.204  11.488
22484SOL    HW269350  12.466   0.292  11.611
22485SOL     OW69351  13.561   2.527   4.096
22485SOL    HW169352  13.569   2.471   4.018
22485SOL    HW269353  13.650   2.555   4.115
22486SOL     OW69354   9.407   6.122   9.353
22486SOL    HW169355   9.399   6.173   9.272
22486SOL    HW269356   9.342   6.052   9.343
22487SOL     OW69357  13.367   8.974   0.735
22487SOL    HW169358  13.294   8.986   0.674
22487SOL    HW269359  13.333   9.004   0.819
22488SOL     OW69360   1.411   9.904   6.480
22488SOL    HW169361   1.372   9.841   6.541
22488SOL    HW269362   1.349   9.977   6.478
22489SOL     OW69363   7.496   0.264   0.854
22489SOL    HW169364   7.463   0.250   0.766
22489SOL    HW269365   7.584   0.299   0.842
22490SOL     OW69366  11.018   0.405   2.622
22490SOL    HW169367  11.017   0.482   2.680
22490SOL    HW269368  11.066   0.434   2.545
22491SOL     OW69369   6.930   1.236   0.953
22491SOL    HW169370   6.887   1.209   0.872
22491SOL    HW269371   6.858   1.259   1.012
22492SOL     OW69372   6.027   2.115   2.035
22492SOL    HW169373   6.052   2.147   2.122
22492SOL    HW269374   6.067   2.029   2.029
22493SOL     OW69375   1.337  11.023   7.243
22493SOL    HW169376   1.263  10.982   7.198
22493SOL    HW269377   1.412  11.005   7.187
22494SOL     OW69378   0.786  10.231  14.785
22494SOL    HW169379   0.694  10.255  14.771
22494SOL    HW269380   0.828  10.248  14.700
22495SOL     OW69381   9.606   6.153   2.927
22495SOL    HW169382   9.626   6.083   2.865
22495SOL    HW269383   9.625   6.234   2.879
22496SOL     OW69384   4.318   7.989  11.772
22496SOL    HW169385   4.266   8.054  11.818
22496SOL    HW269386   4.266   7.966  11.695
22497SOL     OW69387   6.124   7.758   7.174
22497SOL    HW169388   6.069   7.767   7.252
22497SOL    HW269389   6.210   7.789   7.202
22498SOL     OW69390   5.623  13.899  13.436
22498SOL    HW169391   5.549  13.958  13.428
22498SOL    HW269392   5.655  13.913  13.525
22499SOL     OW69393   3.419   9.602   7.354
22499SOL    HW169394   3.353   9.553   7.402
22499SOL    HW269395   3.455   9.664   7.418
22500SOL     OW69396   0.709   1.688  13.770
22500SOL    HW169397   0.666   1.670  13.854
22500SOL    HW269398   0.780   1.624  13.766
22501SOL     OW69399   3.714   4.179   8.738
22501SOL    HW169400   3.807   4.193   8.759
22501SOL    HW269401   3.715   4.108   8.673
22502SOL     OW69402  10.767  14.830  14.077
22502SOL    HW169403  10.835  14.765  14.057
22502SOL    HW269404  10.809   0.042  14.058
22503SOL     OW69405   1.156   1.298   0.820
22503SOL    HW169406   1.128   1.367   0.880
22503SOL    HW269407   1.145   1.336   0.733
22504SOL     OW69408  13.476   8.661   8.313
22504SOL    HW169409  13.534   8.586   8.315
22504SOL    HW269410  13.527   8.731   8.274
22505SOL     OW69411  12.404   9.852   3.829
22505SOL    HW169412  12.403   9.922   3.893
22505SOL    HW269413  12.491   9.812   3.838
22506SOL     OW69414   1.386   2.731   1.549
22506SOL    HW169415   1.426   2.675   1.482
22506SOL    HW269416   1.461   2.765   1.599
22507SOL     OW69417  10.760   9.891   3.852
22507SOL    HW169418  10.715   9.806   3.855
22507SOL    HW269419  10.712   9.941   3.786
22508SOL     OW69420  10.738  13.123  13.042
22508SOL    HW169421  10.658  13.079  13.014
22508SOL    HW269422  10.769  13.071  13.117
22509SOL     OW69423   4.400  14.317   5.643
22509SOL    HW169424   4.359  14.241   5.684
22509SOL    HW269425   4.474  14.338   5.700
22510SOL     OW69426   2.872   0.407   2.742
22510SOL    HW169427   2.907   0.323   2.713
22510SOL    HW269428   2.781   0.389   2.764
22511SOL     OW69429   3.284   2.400  12.609
22511SOL    HW169430   3.318   2.395  12.698
22511SOL    HW269431   3.270   2.494  12.595
22512SOL     OW69432   3.981  14.693  11.479
22512SOL    HW169433   3.911  14.732  11.532
22512SOL    HW269434   4.048  14.667  11.542
22513SOL     OW69435   7.811  11.664   5.382
22513SOL    HW169436   7.895  11.632   5.349
22513SOL    HW269437   7.746  11.619   5.328
22514SOL     OW69438   9.841   7.011   5.207
22514SOL    HW169439   9.760   6.963   5.224
22514SOL    HW269440   9.873   6.975   5.124
22515SOL     OW69441   0.875  14.331   6.022
22515SOL    HW169442   0.964  14.354   6.051
22515SOL    HW269443   0.872  14.236   6.030
22516SOL     OW69444   7.406  13.678   4.740
22516SOL    HW169445   7.321  13.674   4.784
22516SOL    HW269446   7.462  13.619   4.790
22517SOL     OW69447  14.126   6.549  10.715
22517SOL    HW169448  14.183   6.475  10.696
22517SOL    HW269449  14.125   6.601  10.635
22518SOL     OW69450  11.786   2.510   5.593
22518SOL    HW169451  11.812   2.549   5.510
22518SOL    HW269452  11.727   2.438   5.568
22519SOL     OW69453   2.900   5.168  13.875
22519SOL    HW169454   2.864   5.088  13.914
22519SOL    HW269455   2.837   5.191  13.807
22520SOL     OW69456  12.228   6.768   0.352
22520SOL    HW169457  12.219   6.788   0.258
22520SOL    HW269458  12.166   6.828   0.394
22521SOL     OW69459  13.073   3.307  13.309
22521SOL    HW169460  13.137   3.378  13.319
22521SOL    HW269461  13.126   3.229  13.296
22522SOL     OW69462   4.440  12.428   8.329
22522SOL    HW169463   4.346  12.429   8.312
22522SOL    HW269464   4.456  12.343   8.370
22523SOL     OW69465   4.924  11.478   4.311
22523SOL    HW169466   4.854  11.487   4.247
22523SOL    HW269467   4.962  11.566   4.317
22524SOL     OW69468   4.962  11.954   7.647
22524SOL    HW169469   4.930  11.867   7.624
22524SOL    HW269470   4.883  12.006   7.660
22525SOL     OW69471   5.394  12.751   3.358
22525SOL    HW169472   5.448  12.808   3.303
22525SOL    HW269473   5.322  12.807   3.388
22526SOL     OW69474  13.984   2.437  12.991
22526SOL    HW169475  14.064   2.448  12.940
22526SOL    HW269476  14.011   2.388  13.069
22527SOL     OW69477   0.712  11.917  12.099
22527SOL    HW169478   0.703  11.944  12.007
22527SOL    HW269479   0.633  11.951  12.141
22528SOL     OW69480  13.380   0.782  11.444
22528SOL    HW169481  13.418   0.714  11.389
22528SOL    HW269482  13.399   0.864  11.398
22529SOL     OW69483  13.286   2.888   2.786
22529SOL    HW169484  13.263   2.940   2.709
22529SOL    HW269485  13.380   2.903   2.798
22530SOL     OW69486   6.030   2.311  12.746
22530SOL    HW169487   6.089   2.298  12.672
22530SOL    HW269488   6.068   2.260  12.817
22531SOL     OW69489  11.425  10.476  14.506
22531SOL    HW169490  11.412  10.528  14.586
22531SOL    HW269491  11.511  10.436  14.518
22532SOL     OW69492  12.055   3.588  13.029
22532SOL    HW169493  12.063   3.647  12.954
22532SOL    HW269494  12.106   3.632  13.098
22533SOL     OW69495   7.767   3.536  14.557
22533SOL    HW169496   7.830   3.604  14.533
22533SOL    HW269497   7.816   3.454  14.553
22534SOL     OW69498   6.447  14.837  13.919
22534SOL    HW169499   6.474  14.841  13.827
22534SOL    HW269500   6.387   0.039  13.929
22535SOL     OW69501  14.347  11.285   0.104
22535SOL    HW169502  14.423  11.240   0.068
22535SOL    HW269503  14.383  11.356   0.157
22536SOL     OW69504   7.533   1.418   7.355
22536SOL    HW169505   7.460   1.359   7.336
22536SOL    HW269506   7.549   1.464   7.273
22537SOL     OW69507   2.296  12.962   1.672
22537SOL    HW169508   2.371  13.019   1.694
22537SOL    HW269509   2.224  13.023   1.656
22538SOL     OW69510   1.796   4.093  11.153
22538SOL    HW169511   1.739   4.168  11.134
22538SOL    HW269512   1.880   4.132  11.176
22539SOL     OW69513   3.093  12.330   6.612
22539SOL    HW169514   3.039  12.251   6.609
22539SOL    HW269515   3.091  12.363   6.522
22540SOL     OW69516  12.711   0.907   6.436
22540SOL    HW169517  12.783   0.959   6.473
22540SOL    HW269518  12.744   0.878   6.351
22541SOL     OW69519  13.641   8.181   8.447
22541SOL    HW169520  13.709   8.228   8.495
22541SOL    HW269521  13.647   8.214   8.358
22542SOL     OW69522   6.170   9.929   4.808
22542SOL    HW169523   6.097   9.990   4.819
22542SOL    HW269524   6.129   9.849   4.775
22543SOL     OW69525   3.813   2.313  11.134
22543SOL    HW169526   3.775   2.254  11.199
22543SOL    HW269527   3.743   2.329  11.072
22544SOL     OW69528   1.867  11.710   3.240
22544SOL    HW169529   1.852  11.668   3.324
22544SOL    HW269530   1.920  11.647   3.190
22545SOL     OW69531   4.066   9.042   4.678
22545SOL    HW169532   4.124   8.967   4.662
22545SOL    HW269533   4.113   9.117   4.643
22546SOL     OW69534   8.397   2.029   6.386
22546SOL    HW169535   8.330   2.049   6.451
22546SOL    HW269536   8.480   2.049   6.430
22547SOL     OW69537   9.378   2.311   8.464
22547SOL    HW169538   9.432   2.382   8.497
22547SOL    HW269539   9.421   2.231   8.493
22548SOL     OW69540  13.051  12.476   5.361
22548SOL    HW169541  13.142  12.460   5.386
22548SOL    HW269542  13.057  12.516   5.274
22549SOL     OW69543   2.369   3.060   9.882
22549SOL    HW169544   2.432   2.988   9.880
22549SOL    HW269545   2.417   3.134   9.919
22550SOL     OW69546  10.567   9.036  10.422
22550SOL    HW169547  10.587   9.123  10.457
22550SOL    HW269548  10.637   8.980  10.455
22551SOL     OW69549   2.335  13.870   7.802
22551SOL    HW169550   2.378  13.910   7.878
22551SOL    HW269551   2.243  13.866   7.827
22552SOL     OW69552  11.779   0.428   5.224
22552SOL    HW169553  11.778   0.524   5.234
22552SOL    HW269554  11.872   0.405   5.224
22553SOL     OW69555   1.915   9.112   8.111
22553SOL    HW169556   1.985   9.163   8.154
22553SOL    HW269557   1.943   9.021   8.119
22554SOL     OW69558   2.752   5.981   7.531
22554SOL    HW169559   2.739   5.889   7.510
22554SOL    HW269560   2.680   6.026   7.486
22555SOL     OW69561   9.415   0.210  10.179
22555SOL    HW169562   9.474   0.275  10.216
22555SOL    HW269563   9.406   0.235  10.087
22556SOL     OW69564  10.752  13.471   8.389
22556SOL    HW169565  10.713  13.443   8.472
22556SOL    HW269566  10.838  13.430   8.387
22557SOL     OW69567  10.139   8.465   9.550
22557SOL    HW169568  10.078   8.391   9.554
22557SOL    HW269569  10.091   8.537   9.591
22558SOL     OW69570   9.192   2.631  13.735
22558SOL    HW169571   9.179   2.666  13.823
22558SOL    HW269572   9.286   2.613  13.730
22559SOL     OW69573   0.113   8.107   3.292
22559SOL    HW169574   0.164   8.041   3.246
22559SOL    HW269575   0.099   8.069   3.379
22560SOL     OW69576   9.345   4.138   8.096
22560SOL    HW169577   9.277   4.190   8.053
22560SOL    HW269578   9.415   4.201   8.115
22561SOL     OW69579   7.296   1.504   2.265
22561SOL    HW169580   7.230   1.498   2.334
22561SOL    HW269581   7.369   1.550   2.305
22562SOL     OW69582   1.472  13.863  13.102
22562SOL    HW169583   1.413  13.935  13.078
22562SOL    HW269584   1.560  13.900  13.095
22563SOL     OW69585  13.148  14.643   4.105
22563SOL    HW169586  13.076  14.647   4.042
22563SOL    HW269587  13.107  14.613   4.186
22564SOL     OW69588  12.946  14.779  10.381
22564SOL    HW169589  12.930  14.686  10.393
22564SOL    HW269590  12.977  14.787  10.291
22565SOL     OW69591   7.629   7.751  11.697
22565SOL    HW169592   7.596   7.838  11.723
22565SOL    HW269593   7.684   7.768  11.621
22566SOL     OW69594   3.232   1.859   6.564
22566SOL    HW169595   3.207   1.871   6.655
22566SOL    HW269596   3.194   1.935   6.518
22567SOL     OW69597   6.473   9.629   7.370
22567SOL    HW169598   6.547   9.627   7.309
22567SOL    HW269599   6.478   9.546   7.417
22568SOL     OW69600   7.148  13.331   7.416
22568SOL    HW169601   7.150  13.287   7.331
22568SOL    HW269602   7.124  13.421   7.395
22569SOL     OW69603   8.291   5.346  14.333
22569SOL    HW169604   8.289   5.361  14.428
22569SOL    HW269605   8.367   5.395  14.303
22570SOL     OW69606   5.426  11.065   2.711
22570SOL    HW169607   5.494  11.128   2.684
22570SOL    HW269608   5.345  11.102   2.678
22571SOL     OW69609   8.171  11.171   5.215
22571SOL    HW169610   8.147  11.102   5.277
22571SOL    HW269611   8.241  11.132   5.162
22572SOL     OW69612   6.444   0.692   3.522
22572SOL    HW169613   6.463   0.653   3.437
22572SOL    HW269614   6.348   0.698   3.525
22573SOL     OW69615   0.059   5.313   0.712
22573SOL    HW169616   0.075   5.374   0.783
22573SOL    HW269617   0.134   5.253   0.715
22574SOL     OW69618   4.724   7.876  11.996
22574SOL    HW169619   4.760   7.934  11.928
22574SOL    HW269620   4.633   7.863  11.970
22575SOL     OW69621   0.592   2.307  12.393
22575SOL    HW169622   0.661   2.280  12.453
22575SOL    HW269623   0.637   2.363  12.329
22576SOL     OW69624   6.547  10.145  13.647
22576SOL    HW169625   6.566  10.152  13.741
22576SOL    HW269626   6.484  10.073  13.641
22577SOL     OW69627   4.108   0.964  12.844
22577SOL    HW169628   4.124   0.991  12.754
22577SOL    HW269629   4.152   1.031  12.897
22578SOL     OW69630  14.450   2.569   2.547
22578SOL    HW169631  14.501   2.510   2.602
22578SOL    HW269632  14.463   2.536   2.458
22579SOL     OW69633   5.789   5.243   9.824
22579SOL    HW169634   5.721   5.269   9.762
22579SOL    HW269635   5.812   5.154   9.799
22580SOL     OW69636   2.768   5.433  14.073
22580SOL    HW169637   2.774   5.516  14.027
22580SOL    HW269638   2.698   5.386  14.027
22581SOL     OW69639   8.264  11.753  10.905
22581SOL    HW169640   8.247  11.846  10.896
22581SOL    HW269641   8.263  11.737  11.000
22582SOL     OW69642   7.044  13.288   1.367
22582SOL    HW169643   6.980  13.227   1.330
22582SOL    HW269644   7.081  13.242   1.442
22583SOL     OW69645  11.468  13.818   9.529
22583SOL    HW169646  11.557  13.851   9.520
22583SOL    HW269647  11.414  13.897   9.535
22584SOL     OW69648   2.130   1.507   8.997
22584SOL    HW169649   2.096   1.581   9.047
22584SOL    HW269650   2.134   1.435   9.059
22585SOL     OW69651  10.738  11.198  10.149
22585SOL    HW169652  10.708  11.166  10.064
22585SOL    HW269653  10.670  11.172  10.211
22586SOL     OW69654   0.522   1.010  12.604
22586SOL    HW169655   0.466   1.052  12.539
22586SOL    HW269656   0.566   0.939  12.555
22587SOL     OW69657   8.539   3.841   8.731
22587SOL    HW169658   8.463   3.805   8.776
22587SOL    HW269659   8.568   3.772   8.672
22588SOL     OW69660   6.957   0.916  14.719
22588SOL    HW169661   6.968   0.960  14.635
22588SOL    HW269662   6.862   0.908  14.730
22589SOL     OW69663   0.383   7.879  13.376
22589SOL    HW169664   0.471   7.869  13.413
22589SOL    HW269665   0.330   7.814  13.422
22590SOL     OW69666  12.460   7.184  10.205
22590SOL    HW169667  12.487   7.132  10.130
22590SOL    HW269668  12.386   7.136  10.242
22591SOL     OW69669   9.827   0.526  11.522
22591SOL    HW169670   9.748   0.474  11.505
22591SOL    HW269671   9.895   0.483  11.470
22592SOL     OW69672   1.332  10.461   9.239
22592SOL    HW169673   1.373  10.378   9.260
22592SOL    HW269674   1.403  10.526   9.243
22593SOL     OW69675   7.543  11.548   4.600
22593SOL    HW169676   7.479  11.561   4.530
22593SOL    HW269677   7.497  11.573   4.680
22594SOL     OW69678   9.162   8.462   3.125
22594SOL    HW169679   9.145   8.474   3.032
22594SOL    HW269680   9.257   8.470   3.134
22595SOL     OW69681   2.318   7.404   7.526
22595SOL    HW169682   2.364   7.388   7.608
22595SOL    HW269683   2.321   7.321   7.479
22596SOL     OW69684   4.652   3.938  12.020
22596SOL    HW169685   4.743   3.919  12.044
22596SOL    HW269686   4.600   3.878  12.073
22597SOL     OW69687   3.183   3.567   1.787
22597SOL    HW169688   3.161   3.579   1.695
22597SOL    HW269689   3.264   3.617   1.799
22598SOL     OW69690  13.365  10.586   9.679
22598SOL    HW169691  13.405  10.630   9.754
22598SOL    HW269692  13.439  10.553   9.628
22599SOL     OW69693  12.426   7.978   9.178
22599SOL    HW169694  12.428   7.944   9.088
22599SOL    HW269695  12.372   7.915   9.226
22600SOL     OW69696   0.740   9.480  13.779
22600SOL    HW169697   0.819   9.508  13.733
22600SOL    HW269698   0.771   9.437  13.858
22601SOL     OW69699  10.788   4.833   6.319
22601SOL    HW169700  10.758   4.923   6.324
22601SOL    HW269701  10.878   4.838   6.286
22602SOL     OW69702   3.947   3.482  12.844
22602SOL    HW169703   3.994   3.488  12.927
22602SOL    HW269704   4.014   3.461  12.779
22603SOL     OW69705   3.739   3.087   5.041
22603SOL    HW169706   3.653   3.085   5.082
22603SOL    HW269707   3.738   3.166   4.986
22604SOL     OW69708  14.278   7.845   5.552
22604SOL    HW169709  14.313   7.826   5.639
22604SOL    HW269710  14.315   7.931   5.530
22605SOL     OW69711  14.408   9.627   4.078
22605SOL    HW169712  14.501   9.647   4.065
22605SOL    HW269713  14.398   9.538   4.046
22606SOL     OW69714  11.451   7.205   6.073
22606SOL    HW169715  11.365   7.245   6.063
22606SOL    HW269716  11.490   7.249   6.148
22607SOL     OW69717   2.552   0.321   8.575
22607SOL    HW169718   2.506   0.258   8.519
22607SOL    HW269719   2.559   0.400   8.521
22608SOL     OW69720   3.333   5.427  14.103
22608SOL    HW169721   3.237   5.431  14.098
22608SOL    HW269722   3.352   5.423  14.196
22609SOL     OW69723  10.627  10.928   0.273
22609SOL    HW169724  10.597  10.924   0.183
22609SOL    HW269725  10.716  10.891   0.271
22610SOL     OW69726   9.992   0.419   6.938
22610SOL    HW169727   9.956   0.390   7.021
22610SOL    HW269728   9.940   0.496   6.914
22611SOL     OW69729   0.823  10.886   9.456
22611SOL    HW169730   0.787  10.849   9.536
22611SOL    HW269731   0.832  10.980   9.474
22612SOL     OW69732   0.890   5.654   0.857
22612SOL    HW169733   0.951   5.721   0.889
22612SOL    HW269734   0.947   5.585   0.823
22613SOL     OW69735   9.800   8.502   8.668
22613SOL    HW169736   9.802   8.511   8.573
22613SOL    HW269737   9.792   8.591   8.701
22614SOL     OW69738   4.609   5.091  10.377
22614SOL    HW169739   4.658   5.008  10.383
22614SOL    HW269740   4.640   5.131  10.296
22615SOL     OW69741   8.260  12.048   6.530
22615SOL    HW169742   8.351  12.073   6.548
22615SOL    HW269743   8.264  11.955   6.508
22616SOL     OW69744   1.017   3.341   7.514
22616SOL    HW169745   0.988   3.316   7.602
22616SOL    HW269746   1.046   3.258   7.475
22617SOL     OW69747   7.597   1.223   4.129
22617SOL    HW169748   7.519   1.231   4.075
22617SOL    HW269749   7.584   1.286   4.200
22618SOL     OW69750   0.794   6.056   0.876
22618SOL    HW169751   0.836   6.092   0.954
22618SOL    HW269752   0.746   6.129   0.838
22619SOL     OW69753  13.062   7.686   3.244
22619SOL    HW169754  12.973   7.696   3.277
22619SOL    HW269755  13.116   7.676   3.322
22620SOL     OW69756   2.305   0.440   3.337
22620SOL    HW169757   2.286   0.401   3.422
22620SOL    HW269758   2.255   0.388   3.275
22621SOL     OW69759  12.160   0.280   7.436
22621SOL    HW169760  12.107   0.336   7.493
22621SOL    HW269761  12.236   0.257   7.489
22622SOL     OW69762  11.343  11.418   2.733
22622SOL    HW169763  11.352  11.466   2.651
22622SOL    HW269764  11.432  11.416   2.770
22623SOL     OW69765  11.159   9.781   9.025
22623SOL    HW169766  11.230   9.832   8.986
22623SOL    HW269767  11.110   9.747   8.951
22624SOL     OW69768   9.737   4.792   6.262
22624SOL    HW169769   9.770   4.847   6.333
22624SOL    HW269770   9.655   4.833   6.236
22625SOL     OW69771   4.173  12.385   0.533
22625SOL    HW169772   4.230  12.348   0.601
22625SOL    HW269773   4.086  12.351   0.555
22626SOL     OW69774   1.342   8.282   8.065
22626SOL    HW169775   1.252   8.295   8.094
22626SOL    HW269776   1.367   8.197   8.102
22627SOL     OW69777   2.623  13.942  12.737
22627SOL    HW169778   2.635  13.849  12.720
22627SOL    HW269779   2.660  13.985  12.660
22628SOL     OW69780   0.102  14.148   6.029
22628SOL    HW169781   0.163  14.086   5.989
22628SOL    HW269782   0.155  14.226   6.047
22629SOL     OW69783   9.752   0.857   4.977
22629SOL    HW169784   9.716   0.919   5.041
22629SOL    HW269785   9.753   0.906   4.895
22630SOL     OW69786  10.896   5.854   1.094
22630SOL    HW169787  10.959   5.881   1.028
22630SOL    HW269788  10.873   5.764   1.069
22631SOL     OW69789  12.963  14.405   6.491
22631SOL    HW169790  12.895  14.397   6.425
22631SOL    HW269791  12.917  14.431   6.571
22632SOL     OW69792   2.769   3.891  12.486
22632SOL    HW169793   2.863   3.890  12.470
22632SOL    HW269794   2.746   3.799  12.501
22633SOL     OW69795   3.604   5.684   5.362
22633SOL    HW169796   3.687   5.689   5.314
22633SOL    HW269797   3.604   5.763   5.418
22634SOL     OW69798  11.768   7.983   1.297
22634SOL    HW169799  11.862   7.974   1.282
22634SOL    HW269800  11.759   8.070   1.336
22635SOL     OW69801   8.111   7.011   8.818
22635SOL    HW169802   8.144   6.935   8.866
22635SOL    HW269803   8.093   6.978   8.730
22636SOL     OW69804   2.630  12.919  12.295
22636SOL    HW169805   2.595  12.859  12.362
22636SOL    HW269806   2.583  12.895  12.215
22637SOL     OW69807   6.476   7.917   4.461
22637SOL    HW169808   6.393   7.962   4.476
22637SOL    HW269809   6.454   7.843   4.405
22638SOL     OW69810   4.989   1.602   1.748
22638SOL    HW169811   4.979   1.545   1.672
22638SOL    HW269812   5.019   1.544   1.818
22639SOL     OW69813   9.261   1.193   3.267
22639SOL    HW169814   9.241   1.245   3.189
22639SOL    HW269815   9.310   1.118   3.233
22640SOL     OW69816   7.130   5.020   6.042
22640SOL    HW169817   7.117   5.056   5.954
22640SOL    HW269818   7.225   5.010   6.049
22641SOL     OW69819  13.122  10.906   5.743
22641SOL    HW169820  13.209  10.902   5.783
22641SOL    HW269821  13.091  10.815   5.746
22642SOL     OW69822   2.439  14.214   2.603
22642SOL    HW169823   2.453  14.122   2.580
22642SOL    HW269824   2.528  14.249   2.614
22643SOL     OW69825  13.574  14.477  14.405
22643SOL    HW169826  13.592  14.535  14.331
22643SOL    HW269827  13.638  14.502  14.471
22644SOL     OW69828   2.102   7.390   5.335
22644SOL    HW169829   2.043   7.465   5.322
22644SOL    HW269830   2.078   7.357   5.422
22645SOL     OW69831   1.243  12.463  10.778
22645SOL    HW169832   1.297  12.387  10.798
22645SOL    HW269833   1.170  12.428  10.728
22646SOL     OW69834   5.472   3.562  11.418
22646SOL    HW169835   5.545   3.546  11.477
22646SOL    HW269836   5.418   3.627  11.464
22647SOL     OW69837   4.112  14.565   0.981
22647SOL    HW169838   4.144  14.631   0.920
22647SOL    HW269839   4.064  14.615   1.048
22648SOL     OW69840   8.206   8.519   3.379
22648SOL    HW169841   8.113   8.541   3.390
22648SOL    HW269842   8.218   8.512   3.285
22649SOL     OW69843  13.380   8.225   3.618
22649SOL    HW169844  13.406   8.200   3.529
22649SOL    HW269845  13.343   8.145   3.655
22650SOL     OW69846  11.340  10.282   9.600
22650SOL    HW169847  11.263  10.288   9.544
22650SOL    HW269848  11.327  10.352   9.665
22651SOL     OW69849   7.659   1.036   2.283
22651SOL    HW169850   7.648   1.129   2.307
22651SOL    HW269851   7.670   0.992   2.367
22652SOL     OW69852   2.411   5.729   2.689
22652SOL    HW169853   2.320   5.723   2.717
22652SOL    HW269854   2.409   5.788   2.614
22653SOL     OW69855   2.688   2.089   8.615
22653SOL    HW169856   2.621   2.033   8.575
22653SOL    HW269857   2.710   2.152   8.547
22654SOL     OW69858   5.862   8.453   8.966
22654SOL    HW169859   5.789   8.416   9.015
22654SOL    HW269860   5.928   8.383   8.966
22655SOL     OW69861   6.103   6.909   5.810
22655SOL    HW169862   6.116   7.003   5.803
22655SOL    HW269863   6.189   6.871   5.793
22656SOL     OW69864  11.585   6.734   9.951
22656SOL    HW169865  11.574   6.795   9.878
22656SOL    HW269866  11.553   6.781  10.028
22657SOL     OW69867   1.539  12.807   8.541
22657SOL    HW169868   1.500  12.731   8.583
22657SOL    HW269869   1.587  12.771   8.466
22658SOL     OW69870   4.586   1.416  13.021
22658SOL    HW169871   4.681   1.422  13.028
22658SOL    HW269872   4.555   1.506  13.033
22659SOL     OW69873  11.881  11.503   4.068
22659SOL    HW169874  11.839  11.539   3.989
22659SOL    HW269875  11.892  11.410   4.049
22660SOL     OW69876   8.294   0.635   7.202
22660SOL    HW169877   8.386   0.621   7.181
22660SOL    HW269878   8.256   0.547   7.200
22661SOL     OW69879  13.001   1.602   2.848
22661SOL    HW169880  12.960   1.597   2.935
22661SOL    HW269881  12.928   1.587   2.787
22662SOL     OW69882  11.155   5.390   8.935
22662SOL    HW169883  11.201   5.443   9.000
22662SOL    HW269884  11.078   5.442   8.912
22663SOL     OW69885   7.919  10.933   4.805
22663SOL    HW169886   7.995  10.955   4.751
22663SOL    HW269887   7.955  10.921   4.893
22664SOL     OW69888   1.988  11.812   5.941
22664SOL    HW169889   1.917  11.866   5.909
22664SOL    HW269890   2.049  11.874   5.982
22665SOL     OW69891   2.207   0.582  14.109
22665SOL    HW169892   2.231   0.498  14.071
22665SOL    HW269893   2.159   0.627  14.040
22666SOL     OW69894   2.030  10.727   6.653
22666SOL    HW169895   1.995  10.797   6.710
22666SOL    HW269896   2.103  10.768   6.607
22667SOL     OW69897   0.998  12.306   8.361
22667SOL    HW169898   0.985  12.383   8.416
22667SOL    HW269899   0.912  12.264   8.358
22668SOL     OW69900   3.404   5.703   0.590
22668SOL    HW169901   3.381   5.769   0.655
22668SOL    HW269902   3.454   5.637   0.639
22669SOL     OW69903   8.065  10.314   5.210
22669SOL    HW169904   8.005  10.389   5.205
22669SOL    HW269905   8.016  10.248   5.260
22670SOL     OW69906  10.745   0.863   2.694
22670SOL    HW169907  10.789   0.813   2.763
22670SOL    HW269908  10.652   0.856   2.716
22671SOL     OW69909   2.497   4.159  14.157
22671SOL    HW169910   2.449   4.210  14.223
22671SOL    HW269911   2.470   4.197  14.073
22672SOL     OW69912   2.973   3.711   7.368
22672SOL    HW169913   2.927   3.775   7.315
22672SOL    HW269914   2.924   3.629   7.357
22673SOL     OW69915   3.475   5.226  13.326
22673SOL    HW169916   3.432   5.152  13.282
22673SOL    HW269917   3.405   5.267  13.376
22674SOL     OW69918   2.669   3.483   8.304
22674SOL    HW169919   2.630   3.569   8.320
22674SOL    HW269920   2.749   3.482   8.357
22675SOL     OW69921   8.787   1.686  13.479
22675SOL    HW169922   8.858   1.715  13.422
22675SOL    HW269923   8.713   1.742  13.457
22676SOL     OW69924   5.119   1.996  12.947
22676SOL    HW169925   5.148   2.087  12.942
22676SOL    HW269926   5.047   1.990  12.884
22677SOL     OW69927   2.785   5.729   9.886
22677SOL    HW169928   2.879   5.727   9.902
22677SOL    HW269929   2.776   5.771   9.800
22678SOL     OW69930   7.170  11.173   7.287
22678SOL    HW169931   7.162  11.247   7.347
22678SOL    HW269932   7.119  11.103   7.328
22679SOL     OW69933  12.231   6.326  14.187
22679SOL    HW169934  12.151   6.275  14.180
22679SOL    HW269935  12.203   6.410  14.225
22680SOL     OW69936   6.600   2.575   6.085
22680SOL    HW169937   6.535   2.577   6.016
22680SOL    HW269938   6.658   2.649   6.066
22681SOL     OW69939   0.571  11.852  13.613
22681SOL    HW169940   0.619  11.879  13.691
22681SOL    HW269941   0.562  11.757  13.622
22682SOL     OW69942  11.379   7.442   7.688
22682SOL    HW169943  11.470   7.425   7.666
22682SOL    HW269944  11.358   7.523   7.642
22683SOL     OW69945   3.278   7.940   6.401
22683SOL    HW169946   3.276   7.890   6.482
22683SOL    HW269947   3.366   7.926   6.366
22684SOL     OW69948  10.772  12.679  12.924
22684SOL    HW169949  10.702  12.698  12.987
22684SOL    HW269950  10.852  12.705  12.970
22685SOL     OW69951   6.285  13.860  10.118
22685SOL    HW169952   6.216  13.866  10.184
22685SOL    HW269953   6.338  13.785  10.146
22686SOL     OW69954   6.403   7.127   4.292
22686SOL    HW169955   6.412   7.044   4.339
22686SOL    HW269956   6.327   7.114   4.236
22687SOL     OW69957   8.734   7.333   4.400
22687SOL    HW169958   8.770   7.246   4.383
22687SOL    HW269959   8.730   7.339   4.495
22688SOL     OW69960   2.930  14.183  10.063
22688SOL    HW169961   2.950  14.152   9.974
22688SOL    HW269962   2.834  14.190  10.065
22689SOL     OW69963  14.246   4.988   5.008
22689SOL    HW169964  14.324   4.932   5.000
22689SOL    HW269965  14.268   5.067   4.958
22690SOL     OW69966  13.144   1.706  10.000
22690SOL    HW169967  13.096   1.637   9.955
22690SOL    HW269968  13.115   1.698  10.092
22691SOL     OW69969  13.071   9.671  10.327
22691SOL    HW169970  13.002   9.607  10.306
22691SOL    HW269971  13.142   9.651  10.266
22692SOL     OW69972   8.155   4.666   4.372
22692SOL    HW169973   8.060   4.673   4.372
22692SOL    HW269974   8.179   4.657   4.280
22693SOL     OW69975   9.220   1.167   6.906
22693SOL    HW169976   9.226   1.215   6.823
22693SOL    HW269977   9.289   1.102   6.900
22694SOL     OW69978   6.149   3.156  12.031
22694SOL    HW169979   6.239   3.131  12.053
22694SOL    HW269980   6.104   3.073  12.017
22695SOL     OW69981  14.672   7.670  11.908
22695SOL    HW169982  14.691   7.579  11.931
22695SOL    HW269983  14.757   7.713  11.903
22696SOL     OW69984   8.303   4.464  13.456
22696SOL    HW169985   8.384   4.434  13.414
22696SOL    HW269986   8.328   4.544  13.502
22697SOL     OW69987  14.475   1.552   9.745
22697SOL    HW169988  14.463   1.619   9.678
22697SOL    HW269989  14.516   1.479   9.699
22698SOL     OW69990  11.708   9.384   8.534
22698SOL    HW169991  11.642   9.431   8.585
22698SOL    HW269992  11.766   9.452   8.502
22699SOL     OW69993   7.579  14.854   8.411
22699SOL    HW169994   7.520  14.860   8.486
22699SOL    HW269995   7.565  14.765   8.376
22700SOL     OW69996   9.904   2.513   8.339
22700SOL    HW169997   9.914   2.458   8.261
22700SOL    HW269998   9.809   2.526   8.347
22701SOL     OW69999   2.343   8.361   2.470
22701SOL    HW170000   2.288   8.291   2.504
22701SOL    HW270001   2.432   8.331   2.486
22702SOL     OW70002   7.709   2.689   3.593
22702SOL    HW170003   7.783   2.637   3.561
22702SOL    HW270004   7.696   2.756   3.527
22703SOL     OW70005   5.042  10.799  13.218
22703SOL    HW170006   4.968  10.738  13.219
22703SOL    HW270007   5.116  10.746  13.187
22704SOL     OW70008   2.473   0.601  14.221
22704SOL    HW170009   2.385   0.564  14.220
22704SOL    HW270010   2.469   0.674  14.159
22705SOL     OW70011   5.112   2.601  13.939
22705SOL    HW170012   5.095   2.599  14.033
22705SOL    HW270013   5.043   2.546  13.902
22706SOL     OW70014   7.443   8.858   8.122
22706SOL    HW170015   7.377   8.830   8.059
22706SOL    HW270016   7.447   8.953   8.111
22707SOL     OW70017   2.758  13.306   0.232
22707SOL    HW170018   2.712  13.335   0.153
22707SOL    HW270019   2.740  13.374   0.297
22708SOL     OW70020   8.569   6.856  14.389
22708SOL    HW170021   8.650   6.826  14.348
22708SOL    HW270022   8.502   6.844  14.322
22709SOL     OW70023   2.140  13.821   4.065
22709SOL    HW170024   2.061  13.787   4.106
22709SOL    HW270025   2.140  13.783   3.977
22710SOL     OW70026   6.512   4.992  11.046
22710SOL    HW170027   6.536   5.047  10.971
22710SOL    HW270028   6.576   4.921  11.046
22711SOL     OW70029   3.791   6.049   8.917
22711SOL    HW170030   3.766   6.127   8.869
22711SOL    HW270031   3.887   6.045   8.909
22712SOL     OW70032   4.220   4.138   4.757
22712SOL    HW170033   4.197   4.187   4.836
22712SOL    HW270034   4.274   4.199   4.706
22713SOL     OW70035   8.411   9.276   8.514
22713SOL    HW170036   8.458   9.195   8.496
22713SOL    HW270037   8.471   9.327   8.568
22714SOL     OW70038  12.262  11.998  12.075
22714SOL    HW170039  12.350  12.013  12.111
22714SOL    HW270040  12.263  12.040  11.990
22715SOL     OW70041  11.226   5.792   0.602
22715SOL    HW170042  11.291   5.782   0.671
22715SOL    HW270043  11.275   5.786   0.520
22716SOL     OW70044   9.401   6.849   4.654
22716SOL    HW170045   9.439   6.780   4.709
22716SOL    HW270046   9.313   6.818   4.634
22717SOL     OW70047  11.319   0.198   0.921
22717SOL    HW170048  11.350   0.267   0.862
22717SOL    HW270049  11.396   0.176   0.974
22718SOL     OW70050  10.159  12.198   9.434
22718SOL    HW170051  10.114  12.255   9.372
22718SOL    HW270052  10.212  12.258   9.487
22719SOL     OW70053  14.605   4.720   5.950
22719SOL    HW170054  14.605   4.763   6.035
22719SOL    HW270055  14.521   4.744   5.910
22720SOL     OW70056   3.707  11.659  14.051
22720SOL    HW170057   3.794  11.699  14.042
22720SOL    HW270058   3.723  11.579  14.101
22721SOL     OW70059  13.864   1.000   4.560
22721SOL    HW170060  13.840   1.038   4.476
22721SOL    HW270061  13.801   0.929   4.573
22722SOL     OW70062  12.474   7.817   9.911
22722SOL    HW170063  12.488   7.908   9.935
22722SOL    HW270064  12.561   7.777   9.915
22723SOL     OW70065   2.517  10.596  11.569
22723SOL    HW170066   2.611  10.609  11.581
22723SOL    HW270067   2.502  10.614  11.476
22724SOL     OW70068   5.616  11.353   9.987
22724SOL    HW170069   5.526  11.321   9.984
22724SOL    HW270070   5.607  11.444  10.017
22725SOL     OW70071   5.413  11.650   3.141
22725SOL    HW170072   5.348  11.670   3.074
22725SOL    HW270073   5.413  11.555   3.147
22726SOL     OW70074  12.855   5.616  13.429
22726SOL    HW170075  12.871   5.554  13.358
22726SOL    HW270076  12.942   5.647  13.454
22727SOL     OW70077   1.324   6.384  11.735
22727SOL    HW170078   1.307   6.473  11.765
22727SOL    HW270079   1.410   6.363  11.770
22728SOL     OW70080   3.107   6.655   9.845
22728SOL    HW170081   3.126   6.567   9.812
22728SOL    HW270082   3.141   6.656   9.934
22729SOL     OW70083  10.182   3.220   5.986
22729SOL    HW170084  10.117   3.158   6.021
22729SOL    HW270085  10.219   3.175   5.910
22730SOL     OW70086   3.904   2.399  11.966
22730SOL    HW170087   3.963   2.330  11.997
22730SOL    HW270088   3.958   2.450  11.906
22731SOL     OW70089   2.443   8.351   8.119
22731SOL    HW170090   2.470   8.393   8.037
22731SOL    HW270091   2.348   8.340   8.110
22732SOL     OW70092  10.978  12.939  12.075
22732SOL    HW170093  10.925  12.891  12.011
22732SOL    HW270094  11.029  12.871  12.118
22733SOL     OW70095   0.145  13.270   2.788
22733SOL    HW170096   0.155  13.359   2.754
22733SOL    HW270097   0.139  13.215   2.711
22734SOL     OW70098  14.081   0.867  13.814
22734SOL    HW170099  14.117   0.842  13.899
22734SOL    HW270100  14.116   0.955  13.798
22735SOL     OW70101  12.971  14.225   5.865
22735SOL    HW170102  12.919  14.148   5.844
22735SOL    HW270103  13.001  14.258   5.781
22736SOL     OW70104  13.485   1.179   9.424
22736SOL    HW170105  13.552   1.115   9.400
22736SOL    HW270106  13.535   1.257   9.450
22737SOL     OW70107   2.138   3.634   8.576
22737SOL    HW170108   2.125   3.581   8.497
22737SOL    HW270109   2.145   3.724   8.543
22738SOL     OW70110  10.439   8.296   6.203
22738SOL    HW170111  10.475   8.253   6.125
22738SOL    HW270112  10.508   8.288   6.268
22739SOL     OW70113  13.556   3.146   4.097
22739SOL    HW170114  13.608   3.086   4.043
22739SOL    HW270115  13.493   3.089   4.142
22740SOL     OW70116   6.812  12.864   1.123
22740SOL    HW170117   6.809  12.768   1.113
22740SOL    HW270118   6.741  12.883   1.184
22741SOL     OW70119   2.745  11.081   2.359
22741SOL    HW170120   2.652  11.100   2.357
22741SOL    HW270121   2.750  10.986   2.364
22742SOL     OW70122  13.560  10.792  10.931
22742SOL    HW170123  13.507  10.871  10.933
22742SOL    HW270124  13.551  10.754  11.018
22743SOL     OW70125  12.246  12.814   8.218
22743SOL    HW170126  12.227  12.856   8.302
22743SOL    HW270127  12.186  12.740   8.214
22744SOL     OW70128  12.957   6.902   3.472
22744SOL    HW170129  12.934   6.860   3.555
22744SOL    HW270130  12.872   6.918   3.429
22745SOL     OW70131   1.624   7.880   1.410
22745SOL    HW170132   1.685   7.899   1.481
22745SOL    HW270133   1.624   7.785   1.403
22746SOL     OW70134   1.327   5.332   7.626
22746SOL    HW170135   1.275   5.253   7.625
22746SOL    HW270136   1.340   5.353   7.533
22747SOL     OW70137   1.515   9.337   1.182
22747SOL    HW170138   1.521   9.325   1.087
22747SOL    HW270139   1.429   9.377   1.195
22748SOL     OW70140   3.392   4.578  12.409
22748SOL    HW170141   3.378   4.505  12.469
22748SOL    HW270142   3.465   4.627  12.447
22749SOL     OW70143  14.288  14.351   0.744
22749SOL    HW170144  14.213  14.394   0.785
22749SOL    HW270145  14.359  14.358   0.808
22750SOL     OW70146  13.521   1.462  10.075
22750SOL    HW170147  13.605   1.417  10.079
22750SOL    HW270148  13.537   1.540  10.022
22751SOL     OW70149   7.661  10.806  12.562
22751SOL    HW170150   7.666  10.710  12.562
22751SOL    HW270151   7.727  10.833  12.626
22752SOL     OW70152   5.275   4.176   4.159
22752SOL    HW170153   5.189   4.213   4.178
22752SOL    HW270154   5.299   4.127   4.238
22753SOL     OW70155  14.639  14.215  14.274
22753SOL    HW170156  14.551  14.205  14.238
22753SOL    HW270157  14.643  14.307  14.301
22754SOL     OW70158   9.775  12.050   9.289
22754SOL    HW170159   9.867  12.030   9.305
22754SOL    HW270160   9.740  11.972   9.245
22755SOL     OW70161   3.856   9.847   5.053
22755SOL    HW170162   3.930   9.788   5.049
22755SOL    HW270163   3.779   9.790   5.050
22756SOL     OW70164   6.487   9.292  14.318
22756SOL    HW170165   6.405   9.302  14.366
22756SOL    HW270166   6.464   9.315  14.227
22757SOL     OW70167   0.341   5.807   2.979
22757SOL    HW170168   0.304   5.885   3.022
22757SOL    HW270169   0.300   5.805   2.893
22758SOL     OW70170   4.997   4.207  11.313
22758SOL    HW170171   5.082   4.238  11.345
22758SOL    HW270172   5.016   4.121  11.276
22759SOL     OW70173   7.609   9.754   5.971
22759SOL    HW170174   7.621   9.848   5.959
22759SOL    HW270175   7.623   9.717   5.883
22760SOL     OW70176   7.105  12.251   3.837
22760SOL    HW170177   7.140  12.296   3.761
22760SOL    HW270178   7.180  12.207   3.876
22761SOL     OW70179  11.203  11.946   1.114
22761SOL    HW170180  11.218  12.038   1.135
22761SOL    HW270181  11.182  11.945   1.021
22762SOL     OW70182   5.621   0.605   0.438
22762SOL    HW170183   5.700   0.567   0.401
22762SOL    HW270184   5.612   0.565   0.524
22763SOL     OW70185   2.593   7.010  13.279
22763SOL    HW170186   2.538   7.076  13.238
22763SOL    HW270187   2.534   6.938  13.300
22764SOL     OW70188   5.039  14.002  10.768
22764SOL    HW170189   4.972  13.952  10.721
22764SOL    HW270190   5.092  13.936  10.811
22765SOL     OW70191   3.064  12.188   8.725
22765SOL    HW170192   3.016  12.257   8.680
22765SOL    HW270193   3.036  12.194   8.817
22766SOL     OW70194   0.553  12.700   3.787
22766SOL    HW170195   0.527  12.766   3.723
22766SOL    HW270196   0.480  12.697   3.849
22767SOL     OW70197   2.455  14.814  13.853
22767SOL    HW170198   2.454  14.775  13.941
22767SOL    HW270199   2.427  14.743  13.795
22768SOL     OW70200   9.469  13.675  11.430
22768SOL    HW170201   9.488  13.676  11.524
22768SOL    HW270202   9.535  13.617  11.393
22769SOL     OW70203   2.164   9.022  12.320
22769SOL    HW170204   2.215   9.084  12.268
22769SOL    HW270205   2.077   9.021  12.279
22770SOL     OW70206   2.638   6.510   7.603
22770SOL    HW170207   2.721   6.465   7.590
22770SOL    HW270208   2.581   6.475   7.534
22771SOL     OW70209   6.900   5.715  10.995
22771SOL    HW170210   6.907   5.642  10.934
22771SOL    HW270211   6.831   5.771  10.960
22772SOL     OW70212   2.356   7.746   8.045
22772SOL    HW170213   2.328   7.682   8.111
22772SOL    HW270214   2.297   7.820   8.057
22773SOL     OW70215   7.168   4.658   2.884
22773SOL    HW170216   7.250   4.706   2.892
22773SOL    HW270217   7.103   4.725   2.861
22774SOL     OW70218  11.169   9.879   8.575
22774SOL    HW170219  11.255   9.875   8.531
22774SOL    HW270220  11.123   9.801   8.545
22775SOL     OW70221   4.950   4.095   9.272
22775SOL    HW170222   5.010   4.035   9.227
22775SOL    HW270223   4.895   4.131   9.203
22776SOL     OW70224   9.653   4.526   2.055
22776SOL    HW170225   9.728   4.468   2.050
22776SOL    HW270226   9.604   4.496   2.132
22777SOL     OW70227   1.815   5.623   6.990
22777SOL    HW170228   1.827   5.663   6.904
22777SOL    HW270229   1.725   5.592   6.990
22778SOL     OW70230   1.730   2.372   6.952
22778SOL    HW170231   1.752   2.289   6.910
22778SOL    HW270232   1.811   2.423   6.948
22779SOL     OW70233   1.778   3.324   4.575
22779SOL    HW170234   1.694   3.317   4.620
22779SOL    HW270235   1.760   3.377   4.497
22780SOL     OW70236   0.764  14.201   0.018
22780SOL    HW170237   0.680  14.168  14.859
22780SOL    HW270238   0.782  14.278  14.836
22781SOL     OW70239   2.845   8.058   8.731
22781SOL    HW170240   2.823   7.971   8.698
22781SOL    HW270241   2.800   8.063   8.816
22782SOL     OW70242  10.159  10.644   3.953
22782SOL    HW170243  10.138  10.698   4.029
22782SOL    HW270244  10.222  10.579   3.986
22783SOL     OW70245  13.840  13.218   4.450
22783SOL    HW170246  13.848  13.145   4.389
22783SOL    HW270247  13.844  13.176   4.537
22784SOL     OW70248  14.656   9.175   1.741
22784SOL    HW170249  14.568   9.187   1.704
22784SOL    HW270250  14.676   9.083   1.728
22785SOL     OW70251   0.796   4.325   7.123
22785SOL    HW170252   0.852   4.337   7.200
22785SOL    HW270253   0.725   4.268   7.154
22786SOL     OW70254   1.798   5.564   0.681
22786SOL    HW170255   1.856   5.636   0.659
22786SOL    HW270256   1.850   5.509   0.740
22787SOL     OW70257   8.945  12.790   6.762
22787SOL    HW170258   8.866  12.738   6.778
22787SOL    HW270259   8.943  12.858   6.830
22788SOL     OW70260  12.885  10.934  11.142
22788SOL    HW170261  12.836  11.007  11.181
22788SOL    HW270262  12.942  10.976  11.078
22789SOL     OW70263   2.764  14.212   7.011
22789SOL    HW170264   2.846  14.163   7.016
22789SOL    HW270265   2.697  14.151   7.043
22790SOL     OW70266  14.238  13.953  13.458
22790SOL    HW170267  14.201  13.865  13.454
22790SOL    HW270268  14.178  14.003  13.513
22791SOL     OW70269  14.133   3.190  10.445
22791SOL    HW170270  14.212   3.145  10.416
22791SOL    HW270271  14.120   3.260  10.381
22792SOL     OW70272   4.027   4.770   4.292
22792SOL    HW170273   4.106   4.801   4.336
22792SOL    HW270274   4.023   4.822   4.211
22793SOL     OW70275   7.586   2.905   7.840
22793SOL    HW170276   7.534   2.836   7.880
22793SOL    HW270277   7.546   2.987   7.870
22794SOL     OW70278  11.264   6.753   0.423
22794SOL    HW170279  11.178   6.774   0.385
22794SOL    HW270280  11.245   6.687   0.489
22795SOL     OW70281   5.634  13.951   7.246
22795SOL    HW170282   5.564  13.917   7.190
22795SOL    HW270283   5.637  14.045   7.226
22796SOL     OW70284   0.741   4.146   5.196
22796SOL    HW170285   0.803   4.208   5.236
22796SOL    HW270286   0.668   4.144   5.258
22797SOL     OW70287   6.625   7.916   1.869
22797SOL    HW170288   6.644   7.959   1.952
22797SOL    HW270289   6.588   7.985   1.814
22798SOL     OW70290   3.696   2.236  10.583
22798SOL    HW170291   3.667   2.316  10.627
22798SOL    HW270292   3.688   2.168  10.650
22799SOL     OW70293  13.678   4.377   4.404
22799SOL    HW170294  13.625   4.456   4.418
22799SOL    HW270295  13.621   4.319   4.353
22800SOL     OW70296   9.617   3.427  13.587
22800SOL    HW170297   9.587   3.506  13.542
22800SOL    HW270298   9.538   3.388  13.624
22801SOL     OW70299   1.720   4.036   6.280
22801SOL    HW170300   1.753   4.124   6.265
22801SOL    HW270301   1.766   3.981   6.216
22802SOL     OW70302   1.871  12.116   6.614
22802SOL    HW170303   1.893  12.133   6.522
22802SOL    HW270304   1.955  12.104   6.657
22803SOL     OW70305   8.785   6.890   2.650
22803SOL    HW170306   8.756   6.930   2.731
22803SOL    HW270307   8.857   6.946   2.619
22804SOL     OW70308  12.434   0.090   1.969
22804SOL    HW170309  12.485   0.149   2.024
22804SOL    HW270310  12.455   0.002   2.003
22805SOL     OW70311   0.204   3.763   4.733
22805SOL    HW170312   0.249   3.679   4.740
22805SOL    HW270313   0.113   3.740   4.716
22806SOL     OW70314  10.229   6.191   5.260
22806SOL    HW170315  10.302   6.131   5.249
22806SOL    HW270316  10.194   6.202   5.171
22807SOL     OW70317   1.981   7.688   8.784
22807SOL    HW170318   2.045   7.728   8.727
22807SOL    HW270319   1.994   7.730   8.869
22808SOL     OW70320   8.587   4.762  13.669
22808SOL    HW170321   8.515   4.699  13.664
22808SOL    HW270322   8.546   4.845  13.691
22809SOL     OW70323   7.403   0.939  10.399
22809SOL    HW170324   7.491   0.903  10.392
22809SOL    HW270325   7.383   0.973  10.312
22810SOL     OW70326   5.837  14.629   9.212
22810SOL    HW170327   5.805  14.644   9.301
22810SOL    HW270328   5.800  14.545   9.187
22811SOL     OW70329   2.174  12.499   7.517
22811SOL    HW170330   2.151  12.417   7.473
22811SOL    HW270331   2.269  12.493   7.529
22812SOL     OW70332   0.441  12.772   9.849
22812SOL    HW170333   0.462  12.864   9.866
22812SOL    HW270334   0.510  12.741   9.791
22813SOL     OW70335   0.168   4.359   7.007
22813SOL    HW170336   0.233   4.289   7.013
22813SOL    HW270337   0.084   4.314   7.007
22814SOL     OW70338  10.310   3.246   9.721
22814SOL    HW170339  10.365   3.324   9.711
22814SOL    HW270340  10.260   3.262   9.801
22815SOL     OW70341  11.511   7.951   2.548
22815SOL    HW170342  11.518   7.934   2.454
22815SOL    HW270343  11.483   7.867   2.586
22816SOL     OW70344   9.900   9.822   6.472
22816SOL    HW170345   9.931   9.747   6.522
22816SOL    HW270346   9.912   9.796   6.380
22817SOL     OW70347   0.817   0.499   9.724
22817SOL    HW170348   0.910   0.520   9.730
22817SOL    HW270349   0.813   0.405   9.742
22818SOL     OW70350   2.003   2.185   0.701
22818SOL    HW170351   2.014   2.203   0.794
22818SOL    HW270352   1.910   2.203   0.684
22819SOL     OW70353  13.062   7.257  14.574
22819SOL    HW170354  13.103   7.178  14.539
22819SOL    HW270355  13.096   7.264  14.664
22820SOL     OW70356   5.994   1.698   5.624
22820SOL    HW170357   5.913   1.710   5.575
22820SOL    HW270358   5.991   1.763   5.694
22821SOL     OW70359   6.702  11.716   9.118
22821SOL    HW170360   6.709  11.811   9.125
22821SOL    HW270361   6.609  11.699   9.106
22822SOL     OW70362  11.169  10.800   4.086
22822SOL    HW170363  11.145  10.846   4.166
22822SOL    HW270364  11.184  10.709   4.114
22823SOL     OW70365  12.826   7.654   1.064
22823SOL    HW170366  12.841   7.746   1.088
22823SOL    HW270367  12.811   7.657   0.969
22824SOL     OW70368  11.016   6.141   4.777
22824SOL    HW170369  10.998   6.163   4.685
22824SOL    HW270370  11.099   6.183   4.796
22825SOL     OW70371   8.481   7.170   4.606
22825SOL    HW170372   8.450   7.138   4.521
22825SOL    HW270373   8.451   7.261   4.609
22826SOL     OW70374   1.607  10.837  10.758
22826SOL    HW170375   1.564  10.920  10.780
22826SOL    HW270376   1.535  10.777  10.741
22827SOL     OW70377   3.337   8.034   8.574
22827SOL    HW170378   3.327   8.128   8.588
22827SOL    HW270379   3.385   8.003   8.651
22828SOL     OW70380  14.729   9.484  12.875
22828SOL    HW170381  14.742   9.415  12.810
22828SOL    HW270382  14.665   9.543  12.835
22829SOL     OW70383   5.924  12.613  11.492
22829SOL    HW170384   6.016  12.601  11.515
22829SOL    HW270385   5.891  12.525  11.477
22830SOL     OW70386   1.891   8.374   0.831
22830SOL    HW170387   1.898   8.463   0.798
22830SOL    HW270388   1.796   8.359   0.838
22831SOL     OW70389  11.750   2.957   5.808
22831SOL    HW170390  11.838   2.984   5.780
22831SOL    HW270391  11.694   2.974   5.732
22832SOL     OW70392  10.449  11.155   0.091
22832SOL    HW170393  10.505  11.085   0.056
22832SOL    HW270394  10.373  11.110   0.127
22833SOL     OW70395   9.954  11.647   4.147
22833SOL    HW170396   9.893  11.720   4.155
22833SOL    HW270397   9.903  11.570   4.174
22834SOL     OW70398  12.691  11.698   0.809
22834SOL    HW170399  12.611  11.662   0.770
22834SOL    HW270400  12.661  11.771   0.863
22835SOL     OW70401   8.396  12.589   3.597
22835SOL    HW170402   8.354  12.613   3.515
22835SOL    HW270403   8.414  12.495   3.588
22836SOL     OW70404   9.081   8.060   4.819
22836SOL    HW170405   9.024   8.099   4.885
22836SOL    HW270406   9.169   8.084   4.847
22837SOL     OW70407   9.234  13.559  11.373
22837SOL    HW170408   9.309  13.610  11.403
22837SOL    HW270409   9.167  13.624  11.351
22838SOL     OW70410  13.802   6.372   2.548
22838SOL    HW170411  13.820   6.457   2.588
22838SOL    HW270412  13.791   6.313   2.623
22839SOL     OW70413   7.432   8.810   2.918
22839SOL    HW170414   7.422   8.787   2.826
22839SOL    HW270415   7.428   8.906   2.919
22840SOL     OW70416   3.050  13.579  10.134
22840SOL    HW170417   3.112  13.641  10.096
22840SOL    HW270418   3.050  13.599  10.227
22841SOL     OW70419   5.230   0.581   0.585
22841SOL    HW170420   5.158   0.584   0.648
22841SOL    HW270421   5.209   0.506   0.529
22842SOL     OW70422   1.114  12.249   0.007
22842SOL    HW170423   1.114  12.215   0.096
22842SOL    HW270424   1.186  12.311   0.004
22843SOL     OW70425  10.393  10.777   9.278
22843SOL    HW170426  10.298  10.775   9.263
22843SOL    HW270427  10.412  10.868   9.299
22844SOL     OW70428   8.297   4.912   9.271
22844SOL    HW170429   8.280   4.869   9.355
22844SOL    HW270430   8.355   4.985   9.292
22845SOL     OW70431  11.277   5.573   9.814
22845SOL    HW170432  11.329   5.619   9.880
22845SOL    HW270433  11.319   5.487   9.806
22846SOL     OW70434  13.923   7.773   1.898
22846SOL    HW170435  13.918   7.683   1.867
22846SOL    HW270436  13.932   7.826   1.818
22847SOL     OW70437   2.257   8.178   6.398
22847SOL    HW170438   2.163   8.176   6.377
22847SOL    HW270439   2.298   8.132   6.325
22848SOL     OW70440   3.250   5.332  13.774
22848SOL    HW170441   3.301   5.324  13.855
22848SOL    HW270442   3.200   5.413  13.785
22849SOL     OW70443   8.460   8.374   5.030
22849SOL    HW170444   8.393   8.339   5.089
22849SOL    HW270445   8.417   8.377   4.945
22850SOL     OW70446   2.796   9.629  10.292
22850SOL    HW170447   2.812   9.617  10.198
22850SOL    HW270448   2.728   9.697  10.296
22851SOL     OW70449  10.637   4.784   4.106
22851SOL    HW170450  10.689   4.864   4.105
22851SOL    HW270451  10.677   4.729   4.038
22852SOL     OW70452  12.489   2.764  10.608
22852SOL    HW170453  12.477   2.859  10.605
22852SOL    HW270454  12.514   2.740  10.518
22853SOL     OW70455  13.679   1.109   1.514
22853SOL    HW170456  13.765   1.077   1.542
22853SOL    HW270457  13.649   1.045   1.449
22854SOL     OW70458   6.502  10.650  11.681
22854SOL    HW170459   6.562  10.686  11.616
22854SOL    HW270460   6.435  10.605  11.629
22855SOL     OW70461   2.260   8.669  14.261
22855SOL    HW170462   2.240   8.679  14.354
22855SOL    HW270463   2.261   8.758  14.227
22856SOL     OW70464   3.966  10.158   9.902
22856SOL    HW170465   4.000  10.213   9.831
22856SOL    HW270466   3.903  10.214   9.947
22857SOL     OW70467   5.567   8.009  12.981
22857SOL    HW170468   5.589   8.101  12.998
22857SOL    HW270469   5.490   7.993  13.036
22858SOL     OW70470   8.518   2.054   5.648
22858SOL    HW170471   8.432   2.045   5.608
22858SOL    HW270472   8.500   2.070   5.741
22859SOL     OW70473   2.711  13.295   5.290
22859SOL    HW170474   2.738  13.380   5.254
22859SOL    HW270475   2.793  13.249   5.305
22860SOL     OW70476  11.118   8.698   0.683
22860SOL    HW170477  11.099   8.778   0.732
22860SOL    HW270478  11.058   8.633   0.719
22861SOL     OW70479   9.703  13.837   8.966
22861SOL    HW170480   9.763  13.840   9.041
22861SOL    HW270481   9.632  13.896   8.991
22862SOL     OW70482   5.975   1.082   6.179
22862SOL    HW170483   5.969   1.065   6.085
22862SOL    HW270484   6.027   1.163   6.186
22863SOL     OW70485   3.979   8.341   0.245
22863SOL    HW170486   3.884   8.348   0.239
22863SOL    HW270487   4.003   8.281   0.174
22864SOL     OW70488   3.564   7.231  11.550
22864SOL    HW170489   3.512   7.168  11.600
22864SOL    HW270490   3.505   7.307  11.539
22865SOL     OW70491   1.642   2.445  10.410
22865SOL    HW170492   1.630   2.539  10.424
22865SOL    HW270493   1.587   2.425  10.334
22866SOL     OW70494   4.327   9.741  10.573
22866SOL    HW170495   4.237   9.734  10.604
22866SOL    HW270496   4.324   9.811  10.508
22867SOL     OW70497  12.550   3.443   3.288
22867SOL    HW170498  12.606   3.396   3.226
22867SOL    HW270499  12.593   3.528   3.299
22868SOL     OW70500   2.766   6.553  13.824
22868SOL    HW170501   2.831   6.571  13.757
22868SOL    HW270502   2.720   6.636  13.836
22869SOL     OW70503   5.067  10.646   3.448
22869SOL    HW170504   5.030  10.726   3.486
22869SOL    HW270505   5.147  10.675   3.404
22870SOL     OW70506   1.766   8.311   7.545
22870SOL    HW170507   1.711   8.346   7.614
22870SOL    HW270508   1.713   8.319   7.466
22871SOL     OW70509  14.168  12.950   2.142
22871SOL    HW170510  14.127  13.036   2.140
22871SOL    HW270511  14.231  12.952   2.069
22872SOL     OW70512   3.510   3.933  10.144
22872SOL    HW170513   3.603   3.932  10.169
22872SOL    HW270514   3.493   3.844  10.112
22873SOL     OW70515  13.898  14.210   6.184
22873SOL    HW170516  13.820  14.230   6.236
22873SOL    HW270517  13.970  14.219   6.245
22874SOL     OW70518  12.364   1.291   1.006
22874SOL    HW170519  12.280   1.337   1.003
22874SOL    HW270520  12.340   1.199   1.021
22875SOL     OW70521   2.332  13.931  14.459
22875SOL    HW170522   2.399  13.874  14.421
22875SOL    HW270523   2.301  13.884  14.537
22876SOL     OW70524   1.130   0.061   3.292
22876SOL    HW170525   1.053   0.113   3.270
22876SOL    HW270526   1.180   0.117   3.352
22877SOL     OW70527  13.843   1.960   3.531
22877SOL    HW170528  13.756   1.931   3.503
22877SOL    HW270529  13.895   1.960   3.451
22878SOL     OW70530   4.093  10.906   4.026
22878SOL    HW170531   4.184  10.937   4.023
22878SOL    HW270532   4.041  10.986   4.016
22879SOL     OW70533  14.682  14.414  13.711
22879SOL    HW170534  14.757  14.473  13.705
22879SOL    HW270535  14.681  14.387  13.803
22880SOL     OW70536   0.909   8.460   0.409
22880SOL    HW170537   0.878   8.495   0.492
22880SOL    HW270538   0.969   8.526   0.376
22881SOL     OW70539   8.949  10.314   6.227
22881SOL    HW170540   8.878  10.250   6.236
22881SOL    HW270541   8.914  10.380   6.167
22882SOL     OW70542   1.366  10.805   4.739
22882SOL    HW170543   1.374  10.715   4.708
22882SOL    HW270544   1.367  10.859   4.659
22883SOL     OW70545   4.529   7.731  10.182
22883SOL    HW170546   4.612   7.694  10.212
22883SOL    HW270547   4.525   7.711  10.089
22884SOL     OW70548  12.728   8.099   8.412
22884SOL    HW170549  12.658   8.103   8.476
22884SOL    HW270550  12.726   8.008   8.381
22885SOL     OW70551  14.167   1.009   1.745
22885SOL    HW170552  14.084   1.055   1.731
22885SOL    HW270553  14.146   0.940   1.807
22886SOL     OW70554   6.405   8.612   8.312
22886SOL    HW170555   6.487   8.583   8.352
22886SOL    HW270556   6.428   8.627   8.220
22887SOL     OW70557   3.335  12.567   5.336
22887SOL    HW170558   3.279  12.498   5.300
22887SOL    HW270559   3.285  12.603   5.409
22888SOL     OW70560  10.118   9.914  10.200
22888SOL    HW170561  10.198   9.911  10.253
22888SOL    HW270562  10.147   9.945  10.115
22889SOL     OW70563   9.814  13.782   4.324
22889SOL    HW170564   9.816  13.859   4.268
22889SOL    HW270565   9.834  13.709   4.266
22890SOL     OW70566   0.565   2.892   2.581
22890SOL    HW170567   0.524   2.944   2.512
22890SOL    HW270568   0.492   2.851   2.627
22891SOL     OW70569  10.301   1.614   5.081
22891SOL    HW170570  10.215   1.652   5.095
22891SOL    HW270571  10.356   1.653   5.148
22892SOL     OW70572  13.150  13.324   9.551
22892SOL    HW170573  13.132  13.329   9.645
22892SOL    HW270574  13.089  13.259   9.518
22893SOL     OW70575   9.142   0.035   8.565
22893SOL    HW170576   9.168   0.069   8.479
22893SOL    HW270577   9.225   0.008   8.605
22894SOL     OW70578   1.499  14.082   2.457
22894SOL    HW170579   1.460  14.169   2.442
22894SOL    HW270580   1.424  14.022   2.456
22895SOL     OW70581   3.761   9.013   3.519
22895SOL    HW170582   3.689   9.057   3.475
22895SOL    HW270583   3.746   9.027   3.612
22896SOL     OW70584   4.336   9.798   3.757
22896SOL    HW170585   4.413   9.820   3.810
22896SOL    HW270586   4.369   9.732   3.696
22897SOL     OW70587  13.413   3.338   9.672
22897SOL    HW170588  13.380   3.427   9.686
22897SOL    HW270589  13.341   3.282   9.701
22898SOL     OW70590   1.882   5.210  12.137
22898SOL    HW170591   1.853   5.121  12.116
22898SOL    HW270592   1.945   5.231  12.068
22899SOL     OW70593  10.372  10.098   0.444
22899SOL    HW170594  10.362  10.009   0.410
22899SOL    HW270595  10.302  10.108   0.507
22900SOL     OW70596   2.406   2.323  13.005
22900SOL    HW170597   2.409   2.418  13.006
22900SOL    HW270598   2.367   2.301  12.920
22901SOL     OW70599   2.312   3.840   3.018
22901SOL    HW170600   2.337   3.773   3.081
22901SOL    HW270601   2.311   3.795   2.934
22902SOL     OW70602   7.322   0.786   1.316
22902SOL    HW170603   7.244   0.825   1.276
22902SOL    HW270604   7.311   0.801   1.410
22903SOL     OW70605  11.718  13.147   1.560
22903SOL    HW170606  11.731  13.240   1.547
22903SOL    HW270607  11.698  13.139   1.654
22904SOL     OW70608   2.249  13.804   8.983
22904SOL    HW170609   2.239  13.897   8.964
22904SOL    HW270610   2.163  13.766   8.963
22905SOL     OW70611   9.434  12.563   3.482
22905SOL    HW170612   9.477  12.618   3.416
22905SOL    HW270613   9.388  12.625   3.539
22906SOL     OW70614   5.778   0.971  12.175
22906SOL    HW170615   5.715   0.902  12.197
22906SOL    HW270616   5.733   1.026  12.111
22907SOL     OW70617  14.592   6.414   5.099
22907SOL    HW170618  14.525   6.347   5.084
22907SOL    HW270619  14.553   6.494   5.064
22908SOL     OW70620   3.869  10.796   8.934
22908SOL    HW170621   3.798  10.800   8.869
22908SOL    HW270622   3.945  10.764   8.885
22909SOL     OW70623   0.958   7.831   0.455
22909SOL    HW170624   0.871   7.803   0.428
22909SOL    HW270625   1.018   7.771   0.410
22910SOL     OW70626  12.630  13.962   7.965
22910SOL    HW170627  12.570  13.891   7.989
22910SOL    HW270628  12.693  13.965   8.037
22911SOL     OW70629  10.479   2.695   0.643
22911SOL    HW170630  10.404   2.745   0.676
22911SOL    HW270631  10.483   2.717   0.550
22912SOL     OW70632   7.781  11.381  14.466
22912SOL    HW170633   7.813  11.315  14.527
22912SOL    HW270634   7.688  11.361  14.455
22913SOL     OW70635   8.139  10.957   8.418
22913SOL    HW170636   8.193  10.878   8.414
22913SOL    HW270637   8.061  10.930   8.466
22914SOL     OW70638   0.937  13.968   6.719
22914SOL    HW170639   0.966  14.031   6.653
22914SOL    HW270640   0.842  13.979   6.723
22915SOL     OW70641   3.881   0.939   7.919
22915SOL    HW170642   3.807   0.929   7.980
22915SOL    HW270643   3.879   1.031   7.893
22916SOL     OW70644  13.963   9.862   9.393
22916SOL    HW170645  14.019   9.840   9.319
22916SOL    HW270646  13.881   9.893   9.354
22917SOL     OW70647  14.410   8.246  12.987
22917SOL    HW170648  14.481   8.288  12.939
22917SOL    HW270649  14.435   8.253  13.079
22918SOL     OW70650   4.455  12.051   7.308
22918SOL    HW170651   4.539  12.034   7.352
22918SOL    HW270652   4.436  11.970   7.261
22919SOL     OW70653   6.865   6.759  12.169
22919SOL    HW170654   6.834   6.843  12.204
22919SOL    HW270655   6.881   6.705  12.246
22920SOL     OW70656   5.738  12.210   0.026
22920SOL    HW170657   5.806  12.261  14.855
22920SOL    HW270658   5.703  12.268   0.094
22921SOL     OW70659   1.030   1.274   1.346
22921SOL    HW170660   1.052   1.273   1.253
22921SOL    HW270661   0.966   1.204   1.357
22922SOL     OW70662   6.221   0.280   5.039
22922SOL    HW170663   6.137   0.319   5.013
22922SOL    HW270664   6.196   0.202   5.089
22923SOL     OW70665   4.067   3.659   6.014
22923SOL    HW170666   4.113   3.672   5.931
22923SOL    HW270667   3.978   3.633   5.989
22924SOL     OW70668  11.365   7.100   0.976
22924SOL    HW170669  11.312   7.176   1.000
22924SOL    HW270670  11.314   7.056   0.907
22925SOL     OW70671   7.250   1.069   4.255
22925SOL    HW170672   7.166   1.114   4.253
22925SOL    HW270673   7.299   1.105   4.182
22926SOL     OW70674  10.032  10.329  11.834
22926SOL    HW170675  10.083  10.269  11.780
22926SOL    HW270676  10.097  10.390  11.869
22927SOL     OW70677   9.755   6.793  13.787
22927SOL    HW170678   9.700   6.866  13.813
22927SOL    HW270679   9.694   6.720  13.776
22928SOL     OW70680   4.320   7.322  13.758
22928SOL    HW170681   4.308   7.229  13.739
22928SOL    HW270682   4.356   7.358  13.677
22929SOL     OW70683   2.138   0.891   6.700
22929SOL    HW170684   2.146   0.795   6.698
22929SOL    HW270685   2.094   0.909   6.783
22930SOL     OW70686   0.827   9.869  13.259
22930SOL    HW170687   0.733   9.887  13.258
22930SOL    HW270688   0.845   9.827  13.175
22931SOL     OW70689  10.253   9.589   4.524
22931SOL    HW170690  10.223   9.678   4.543
22931SOL    HW270691  10.216   9.569   4.439
22932SOL     OW70692   2.198   5.528  14.223
22932SOL    HW170693   2.119   5.524  14.275
22932SOL    HW270694   2.222   5.436  14.208
22933SOL     OW70695   8.189  13.850   9.170
22933SOL    HW170696   8.249  13.805   9.110
22933SOL    HW270697   8.237  13.928   9.198
22934SOL     OW70698   0.173  12.479   2.720
22934SOL    HW170699   0.088  12.509   2.690
22934SOL    HW270700   0.183  12.391   2.683
22935SOL     OW70701   6.411  13.016   0.024
22935SOL    HW170702   6.472  12.965   0.078
22935SOL    HW270703   6.347  13.051   0.086
22936SOL     OW70704  12.539   9.953  11.218
22936SOL    HW170705  12.604  10.009  11.175
22936SOL    HW270706  12.580   9.867  11.222
22937SOL     OW70707   5.613   6.849   0.281
22937SOL    HW170708   5.614   6.916   0.349
22937SOL    HW270709   5.538   6.870   0.226
22938SOL     OW70710   5.170   8.885   4.775
22938SOL    HW170711   5.264   8.900   4.778
22938SOL    HW270712   5.138   8.914   4.860
22939SOL     OW70713   7.841   1.150  13.497
22939SOL    HW170714   7.930   1.116  13.502
22939SOL    HW270715   7.809   1.123  13.411
22940SOL     OW70716   0.804   2.443   9.774
22940SOL    HW170717   0.888   2.415   9.738
22940SOL    HW270718   0.828   2.503   9.845
22941SOL     OW70719   4.344   1.940   9.974
22941SOL    HW170720   4.328   2.029  10.005
22941SOL    HW270721   4.368   1.891  10.053
22942SOL     OW70722   8.059  13.110  11.563
22942SOL    HW170723   8.061  13.138  11.655
22942SOL    HW270724   7.968  13.084  11.549
22943SOL     OW70725  12.982   3.879   6.716
22943SOL    HW170726  13.031   3.833   6.785
22943SOL    HW270727  13.000   3.971   6.731
22944SOL     OW70728  10.724   5.235   0.591
22944SOL    HW170729  10.683   5.257   0.507
22944SOL    HW270730  10.814   5.268   0.582
22945SOL     OW70731   7.485  10.321  10.258
22945SOL    HW170732   7.531  10.404  10.269
22945SOL    HW270733   7.498  10.298  10.166
22946SOL     OW70734  14.397  11.054   4.479
22946SOL    HW170735  14.484  11.051   4.517
22946SOL    HW270736  14.408  11.102   4.397
22947SOL     OW70737  12.633   8.558   6.423
22947SOL    HW170738  12.700   8.623   6.446
22947SOL    HW270739  12.621   8.569   6.328
22948SOL     OW70740  10.410  11.273   5.726
22948SOL    HW170741  10.499  11.272   5.762
22948SOL    HW270742  10.420  11.239   5.637
22949SOL     OW70743   2.019   1.903   3.225
22949SOL    HW170744   1.978   1.981   3.261
22949SOL    HW270745   2.099   1.891   3.276
22950SOL     OW70746   8.661   0.833   9.929
22950SOL    HW170747   8.646   0.917   9.887
22950SOL    HW270748   8.579   0.814   9.975
22951SOL     OW70749   5.441   2.925   0.754
22951SOL    HW170750   5.504   2.939   0.825
22951SOL    HW270751   5.430   3.012   0.714
22952SOL     OW70752   1.785   6.926   4.580
22952SOL    HW170753   1.791   6.979   4.500
22952SOL    HW270754   1.735   6.979   4.641
22953SOL     OW70755   8.253  12.359   2.265
22953SOL    HW170756   8.319  12.356   2.195
22953SOL    HW270757   8.186  12.297   2.238
22954SOL     OW70758   5.520   9.344   0.926
22954SOL    HW170759   5.427   9.323   0.928
22954SOL    HW270760   5.547   9.324   0.836
22955SOL     OW70761   1.061   5.617  13.295
22955SOL    HW170762   1.065   5.563  13.374
22955SOL    HW270763   0.988   5.677  13.311
22956SOL     OW70764   0.205   1.826  11.265
22956SOL    HW170765   0.152   1.897  11.302
22956SOL    HW270766   0.294   1.845  11.294
22957SOL     OW70767  13.341  12.281   9.255
22957SOL    HW170768  13.417  12.259   9.309
22957SOL    HW270769  13.268  12.235   9.297
22958SOL     OW70770  11.795  11.078   6.071
22958SOL    HW170771  11.834  11.044   5.991
22958SOL    HW270772  11.727  11.138   6.041
22959SOL     OW70773   0.300   2.092   1.587
22959SOL    HW170774   0.295   2.111   1.680
22959SOL    HW270775   0.293   1.996   1.582
22960SOL     OW70776  12.918   0.627  13.697
22960SOL    HW170777  12.887   0.713  13.669
22960SOL    HW270778  12.972   0.645  13.774
22961SOL     OW70779  14.559   7.445   1.354
22961SOL    HW170780  14.584   7.376   1.292
22961SOL    HW270781  14.467   7.462   1.335
22962SOL     OW70782   6.627   8.703   7.543
22962SOL    HW170783   6.665   8.646   7.477
22962SOL    HW270784   6.594   8.643   7.610
22963SOL     OW70785   4.382  14.401   3.412
22963SOL    HW170786   4.412  14.314   3.438
22963SOL    HW270787   4.397  14.404   3.317
22964SOL     OW70788   0.517  12.337  14.247
22964SOL    HW170789   0.500  12.421  14.206
22964SOL    HW270790   0.608  12.317  14.224
22965SOL     OW70791   9.172   8.339   1.918
22965SOL    HW170792   9.118   8.278   1.868
22965SOL    HW270793   9.170   8.306   2.008
22966SOL     OW70794  12.670   6.075   2.479
22966SOL    HW170795  12.706   6.046   2.395
22966SOL    HW270796  12.697   6.007   2.541
22967SOL     OW70797  13.508   4.194   4.296
22967SOL    HW170798  13.421   4.168   4.329
22967SOL    HW270799  13.506   4.173   4.203
22968SOL     OW70800   3.461  11.780   2.169
22968SOL    HW170801   3.367  11.771   2.186
22968SOL    HW270802   3.494  11.690   2.170
22969SOL     OW70803   9.489   1.941   0.824
22969SOL    HW170804   9.578   1.911   0.841
22969SOL    HW270805   9.482   2.024   0.871
22970SOL     OW70806  13.766   6.566   6.954
22970SOL    HW170807  13.779   6.646   7.006
22970SOL    HW270808  13.673   6.567   6.932
22971SOL     OW70809  14.867   6.874   1.516
22971SOL    HW170810  14.829   6.805   1.463
22971SOL    HW270811   0.089   6.856   1.515
22972SOL     OW70812  12.414  10.001   2.161
22972SOL    HW170813  12.378  10.032   2.078
22972SOL    HW270814  12.346   9.943   2.196
22973SOL     OW70815  12.493   2.132   0.001
22973SOL    HW170816  12.426   2.071   0.030
22973SOL    HW270817  12.465   2.159  14.786
22974SOL     OW70818  13.281  13.258   3.800
22974SOL    HW170819  13.333  13.312   3.740
22974SOL    HW270820  13.193  13.258   3.761
22975SOL     OW70821   9.577   2.105   3.483
22975SOL    HW170822   9.568   2.027   3.428
22975SOL    HW270823   9.489   2.119   3.519
22976SOL     OW70824   0.348   0.671   7.739
22976SOL    HW170825   0.367   0.604   7.805
22976SOL    HW270826   0.338   0.622   7.657
22977SOL     OW70827   0.458   0.362   4.289
22977SOL    HW170828   0.541   0.328   4.323
22977SOL    HW270829   0.399   0.362   4.364
22978SOL     OW70830   3.523   3.774   0.701
22978SOL    HW170831   3.531   3.793   0.608
22978SOL    HW270832   3.447   3.825   0.729
22979SOL     OW70833  11.398  10.623  11.797
22979SOL    HW170834  11.361  10.660  11.877
22979SOL    HW270835  11.434  10.538  11.824
22980SOL     OW70836   9.435  11.186   7.205
22980SOL    HW170837   9.439  11.279   7.227
22980SOL    HW270838   9.349  11.158   7.238
22981SOL     OW70839   3.973   4.652  10.586
22981SOL    HW170840   3.923   4.662  10.667
22981SOL    HW270841   3.970   4.739  10.545
22982SOL     OW70842   1.960   5.025  10.396
22982SOL    HW170843   1.905   4.966  10.448
22982SOL    HW270844   1.899   5.068  10.336
22983SOL     OW70845   5.521   0.500   1.894
22983SOL    HW170846   5.512   0.584   1.938
22983SOL    HW270847   5.546   0.522   1.804
22984SOL     OW70848  11.845   5.175   9.579
22984SOL    HW170849  11.861   5.264   9.613
22984SOL    HW270850  11.909   5.164   9.508
22985SOL     OW70851   7.893   4.205  10.903
22985SOL    HW170852   7.819   4.148  10.926
22985SOL    HW270853   7.924   4.171  10.819
22986SOL     OW70854   5.148   0.074   4.011
22986SOL    HW170855   5.085   0.117   3.953
22986SOL    HW270856   5.131  14.853   4.001
22987SOL     OW70857   3.933  12.947  10.405
22987SOL    HW170858   3.923  12.924  10.313
22987SOL    HW270859   4.007  13.008  10.406
22988SOL     OW70860   1.582   1.963   8.484
22988SOL    HW170861   1.521   2.023   8.440
22988SOL    HW270862   1.576   1.882   8.433
22989SOL     OW70863  14.231   1.098   5.372
22989SOL    HW170864  14.317   1.102   5.330
22989SOL    HW270865  14.233   1.167   5.437
22990SOL     OW70866   6.733   8.864  10.676
22990SOL    HW170867   6.796   8.797  10.650
22990SOL    HW270868   6.784   8.946  10.676
22991SOL     OW70869   7.681  11.565   8.530
22991SOL    HW170870   7.754  11.562   8.592
22991SOL    HW270871   7.629  11.640   8.559
22992SOL     OW70872  10.057  14.751  14.820
22992SOL    HW170873  10.029  14.682   0.008
22992SOL    HW270874   9.976  14.797  14.798
22993SOL     OW70875  14.249   0.440  14.091
22993SOL    HW170876  14.168   0.491  14.088
22993SOL    HW270877  14.221   0.349  14.096
22994SOL     OW70878   8.247  11.155   4.841
22994SOL    HW170879   8.304  11.114   4.906
22994SOL    HW270880   8.215  11.235   4.883
22995SOL     OW70881   4.779  13.224   2.737
22995SOL    HW170882   4.697  13.180   2.761
22995SOL    HW270883   4.847  13.172   2.779
22996SOL     OW70884   0.517  13.418   9.168
22996SOL    HW170885   0.453  13.389   9.103
22996SOL    HW270886   0.595  13.441   9.117
22997SOL     OW70887   6.932   4.839   8.421
22997SOL    HW170888   6.929   4.931   8.446
22997SOL    HW270889   6.922   4.838   8.326
22998SOL     OW70890   3.760  10.289   5.488
22998SOL    HW170891   3.852  10.315   5.499
22998SOL    HW270892   3.732  10.333   5.407
22999SOL     OW70893  12.752   2.582   3.422
22999SOL    HW170894  12.820   2.525   3.458
22999SOL    HW270895  12.758   2.662   3.474
23000SOL     OW70896   8.819   3.544   1.389
23000SOL    HW170897   8.743   3.487   1.387
23000SOL    HW270898   8.789   3.625   1.430
23001SOL     OW70899   6.855  14.207   9.528
23001SOL    HW170900   6.878  14.294   9.496
23001SOL    HW270901   6.901  14.146   9.470
23002SOL     OW70902   3.580  10.776  12.765
23002SOL    HW170903   3.590  10.758  12.672
23002SOL    HW270904   3.657  10.829  12.788
23003SOL     OW70905   9.609   1.173   1.038
23003SOL    HW170906   9.578   1.087   1.067
23003SOL    HW270907   9.702   1.161   1.023
23004SOL     OW70908  11.304  10.111  13.504
23004SOL    HW170909  11.214  10.136  13.525
23004SOL    HW270910  11.341  10.080  13.587
23005SOL     OW70911   7.975  11.394   1.833
23005SOL    HW170912   7.946  11.346   1.755
23005SOL    HW270913   7.911  11.465   1.842
23006SOL     OW70914   9.333   0.361   8.628
23006SOL    HW170915   9.397   0.366   8.698
23006SOL    HW270916   9.308   0.268   8.625
23007SOL     OW70917   7.839   2.740  11.958
23007SOL    HW170918   7.851   2.831  11.930
23007SOL    HW270919   7.751   2.739  11.996
23008SOL     OW70920  10.049   7.574   4.544
23008SOL    HW170921  10.080   7.490   4.510
23008SOL    HW270922  10.130   7.623   4.564
23009SOL     OW70923   8.435  14.624   0.571
23009SOL    HW170924   8.344  14.602   0.590
23009SOL    HW270925   8.430  14.701   0.514
23010SOL     OW70926   5.020  10.813   2.865
23010SOL    HW170927   5.091  10.782   2.921
23010SOL    HW270928   4.998  10.738   2.810
23011SOL     OW70929  12.576  10.737   2.590
23011SOL    HW170930  12.495  10.755   2.541
23011SOL    HW270931  12.569  10.790   2.669
23012SOL     OW70932   1.510   1.015  13.323
23012SOL    HW170933   1.490   1.093  13.375
23012SOL    HW270934   1.434   1.003  13.267
23013SOL     OW70935   8.863   5.978   9.768
23013SOL    HW170936   8.776   5.973   9.808
23013SOL    HW270937   8.906   6.051   9.812
23014SOL     OW70938   8.527  12.367   8.758
23014SOL    HW170939   8.619  12.343   8.747
23014SOL    HW270940   8.520  12.453   8.717
23015SOL     OW70941   9.096  14.486   5.002
23015SOL    HW170942   9.141  14.524   4.927
23015SOL    HW270943   9.111  14.547   5.074
23016SOL     OW70944   8.438   8.793   7.578
23016SOL    HW170945   8.343   8.807   7.572
23016SOL    HW270946   8.466   8.783   7.487
23017SOL     OW70947  11.026   3.664  11.984
23017SOL    HW170948  11.050   3.578  12.017
23017SOL    HW270949  11.097   3.722  12.012
23018SOL     OW70950  11.039   4.326   4.147
23018SOL    HW170951  11.095   4.395   4.112
23018SOL    HW270952  10.961   4.327   4.092
23019SOL     OW70953   6.788   8.535  11.224
23019SOL    HW170954   6.737   8.547  11.144
23019SOL    HW270955   6.727   8.491  11.284
23020SOL     OW70956  13.183   8.853  11.331
23020SOL    HW170957  13.106   8.838  11.387
23020SOL    HW270958  13.238   8.912  11.383
23021SOL     OW70959   0.052   7.746  11.862
23021SOL    HW170960   0.114   7.799  11.812
23021SOL    HW270961   0.105   7.706  11.931
23022SOL     OW70962  11.554   9.019   6.851
23022SOL    HW170963  11.645   9.034   6.826
23022SOL    HW270964  11.556   8.940   6.904
23023SOL     OW70965  11.948  12.506   3.224
23023SOL    HW170966  11.980  12.589   3.188
23023SOL    HW270967  11.891  12.471   3.156
23024SOL     OW70968   2.722   5.071  14.682
23024SOL    HW170969   2.757   5.137  14.622
23024SOL    HW270970   2.794   5.010  14.696
23025SOL     OW70971   1.538   9.875  10.517
23025SOL    HW170972   1.524   9.851  10.425
23025SOL    HW270973   1.513   9.967  10.522
23026SOL     OW70974   2.167  11.950   9.139
23026SOL    HW170975   2.250  11.969   9.184
23026SOL    HW270976   2.193  11.908   9.057
23027SOL     OW70977  10.288   1.698  10.287
23027SOL    HW170978  10.366   1.644  10.272
23027SOL    HW270979  10.247   1.706  10.201
23028SOL     OW70980   2.692  13.735  13.922
23028SOL    HW170981   2.739  13.797  13.977
23028SOL    HW270982   2.698  13.773  13.834
23029SOL     OW70983   5.897   4.830   5.245
23029SOL    HW170984   5.845   4.853   5.321
23029SOL    HW270985   5.873   4.740   5.225
23030SOL     OW70986  11.480   3.782   2.443
23030SOL    HW170987  11.555   3.838   2.464
23030SOL    HW270988  11.436   3.770   2.527
23031SOL     OW70989   9.769   4.149   4.360
23031SOL    HW170990   9.674   4.154   4.348
23031SOL    HW270991   9.797   4.240   4.361
23032SOL     OW70992  13.505   0.755  12.998
23032SOL    HW170993  13.589   0.768  12.954
23032SOL    HW270994  13.468   0.677  12.956
23033SOL     OW70995   7.891   2.918   1.751
23033SOL    HW170996   7.932   3.001   1.776
23033SOL    HW270997   7.892   2.919   1.655
23034SOL     OW70998   4.034  10.361   5.527
23034SOL    HW170999   4.107  10.365   5.466
23034SOL    HW271000   4.028  10.269   5.551
23035SOL     OW71001   5.745   9.259   1.421
23035SOL    HW171002   5.804   9.334   1.423
23035SOL    HW271003   5.721   9.244   1.512
23036SOL     OW71004  11.372  13.484   8.294
23036SOL    HW171005  11.294  13.431   8.308
23036SOL    HW271006  11.417  13.484   8.379
23037SOL     OW71007   8.839   2.401   0.194
23037SOL    HW171008   8.764   2.428   0.246
23037SOL    HW271009   8.888   2.481   0.177
23038SOL     OW71010  13.157  12.981  10.347
23038SOL    HW171011  13.161  13.040  10.272
23038SOL    HW271012  13.136  13.038  10.421
23039SOL     OW71013  13.775   4.879   1.266
23039SOL    HW171014  13.716   4.877   1.191
23039SOL    HW271015  13.753   4.801   1.316
23040SOL     OW71016   6.622  11.408  14.647
23040SOL    HW171017   6.560  11.395  14.576
23040SOL    HW271018   6.575  11.381  14.726
23041SOL     OW71019   5.097   9.740   1.117
23041SOL    HW171020   5.046   9.675   1.068
23041SOL    HW271021   5.149   9.687   1.178
23042SOL     OW71022   9.979   5.012  10.962
23042SOL    HW171023  10.036   4.980  11.031
23042SOL    HW271024   9.925   5.079  11.005
23043SOL     OW71025   7.022   3.406   2.816
23043SOL    HW171026   7.013   3.348   2.740
23043SOL    HW271027   7.056   3.488   2.780
23044SOL     OW71028   4.937   0.430   8.180
23044SOL    HW171029   4.925   0.524   8.169
23044SOL    HW271030   5.012   0.423   8.240
23045SOL     OW71031   4.584   9.651   1.865
23045SOL    HW171032   4.657   9.653   1.803
23045SOL    HW271033   4.536   9.571   1.842
23046SOL     OW71034  11.115   9.206   4.150
23046SOL    HW171035  11.178   9.165   4.210
23046SOL    HW271036  11.035   9.214   4.202
23047SOL     OW71037  12.687   7.036   3.865
23047SOL    HW171038  12.781   7.044   3.846
23047SOL    HW271039  12.648   7.113   3.825
23048SOL     OW71040  10.235  12.686   0.941
23048SOL    HW171041  10.141  12.683   0.954
23048SOL    HW271042  10.264  12.762   0.991
23049SOL     OW71043   5.299   9.380   6.475
23049SOL    HW171044   5.234   9.432   6.427
23049SOL    HW271045   5.350   9.338   6.406
23050SOL     OW71046   0.764   4.956  10.722
23050SOL    HW171047   0.742   5.038  10.767
23050SOL    HW271048   0.807   4.983  10.641
23051SOL     OW71049   2.188  12.035   7.148
23051SOL    HW171050   2.196  11.941   7.162
23051SOL    HW271051   2.275  12.070   7.170
23052SOL     OW71052   1.762  12.213   8.850
23052SOL    HW171053   1.831  12.180   8.793
23052SOL    HW271054   1.776  12.166   8.933
23053SOL     OW71055  14.327   8.917   9.290
23053SOL    HW171056  14.261   8.853   9.264
23053SOL    HW271057  14.331   8.979   9.217
23054SOL     OW71058   0.179   4.590   6.133
23054SOL    HW171059   0.207   4.662   6.077
23054SOL    HW271060   0.099   4.558   6.091
23055SOL     OW71061   2.151   3.995   3.149
23055SOL    HW171062   2.224   3.952   3.103
23055SOL    HW271063   2.076   3.939   3.132
23056SOL     OW71064   7.991   1.542  13.963
23056SOL    HW171065   8.082   1.515  13.972
23056SOL    HW271066   7.972   1.531  13.870
23057SOL     OW71067   7.305   8.264   4.958
23057SOL    HW171068   7.387   8.274   5.007
23057SOL    HW271069   7.266   8.352   4.958
23058SOL     OW71070   7.223  12.118   5.302
23058SOL    HW171071   7.144  12.166   5.330
23058SOL    HW271072   7.209  12.029   5.333
23059SOL     OW71073   1.735  11.556   7.259
23059SOL    HW171074   1.656  11.515   7.223
23059SOL    HW271075   1.720  11.650   7.249
23060SOL     OW71076   5.084   4.030   2.104
23060SOL    HW171077   5.083   4.001   2.013
23060SOL    HW271078   5.171   4.069   2.115
23061SOL     OW71079  10.513  13.263  13.433
23061SOL    HW171080  10.606  13.285  13.428
23061SOL    HW271081  10.468  13.347  13.426
23062SOL     OW71082   9.943   6.695   3.557
23062SOL    HW171083   9.895   6.678   3.476
23062SOL    HW271084   9.882   6.747   3.610
23063SOL     OW71085   5.308  14.360   1.979
23063SOL    HW171086   5.240  14.423   1.955
23063SOL    HW271087   5.386  14.414   1.995
23064SOL     OW71088   6.625   5.113  10.824
23064SOL    HW171089   6.699   5.055  10.808
23064SOL    HW271090   6.664   5.194  10.855
23065SOL     OW71091   0.029   7.246   4.977
23065SOL    HW171092   0.020   7.332   5.016
23065SOL    HW271093  14.833   7.243   4.909
23066SOL     OW71094  11.370   2.143  10.963
23066SOL    HW171095  11.424   2.221  10.951
23066SOL    HW271096  11.432   2.074  10.985
23067SOL     OW71097  13.829  11.932   5.188
23067SOL    HW171098  13.807  11.978   5.269
23067SOL    HW271099  13.922  11.911   5.198
23068SOL     OW71100  13.049   8.582   4.886
23068SOL    HW171101  13.144   8.594   4.885
23068SOL    HW271102  13.024   8.603   4.976
23069SOL     OW71103  11.799  14.600  11.391
23069SOL    HW171104  11.834  14.599  11.480
23069SOL    HW271105  11.743  14.522  11.386
23070SOL     OW71106  14.551  12.817  13.054
23070SOL    HW171107  14.513  12.904  13.046
23070SOL    HW271108  14.642  12.833  13.080
23071SOL     OW71109   4.480  10.033  10.067
23071SOL    HW171110   4.447  10.122  10.076
23071SOL    HW271111   4.443  10.003   9.983
23072SOL     OW71112   6.166   4.474   4.122
23072SOL    HW171113   6.207   4.388   4.122
23072SOL    HW271114   6.125   4.481   4.209
23073SOL     OW71115  14.058  12.038   8.864
23073SOL    HW171116  14.049  11.973   8.793
23073SOL    HW271117  14.117  12.104   8.828
23074SOL     OW71118   0.321   7.601   0.583
23074SOL    HW171119   0.322   7.505   0.587
23074SOL    HW271120   0.237   7.622   0.542
23075SOL     OW71121   1.780   7.604   8.396
23075SOL    HW171122   1.763   7.512   8.377
23075SOL    HW271123   1.749   7.617   8.485
23076SOL     OW71124  12.456   7.101   3.007
23076SOL    HW171125  12.432   7.013   3.035
23076SOL    HW271126  12.547   7.093   2.979
23077SOL     OW71127   6.918   5.050  12.524
23077SOL    HW171128   6.985   5.031  12.459
23077SOL    HW271129   6.887   5.138  12.502
23078SOL     OW71130   9.194  14.371   3.131
23078SOL    HW171131   9.271  14.373   3.188
23078SOL    HW271132   9.200  14.287   3.086
23079SOL     OW71133   3.236  14.622   2.216
23079SOL    HW171134   3.326  14.651   2.201
23079SOL    HW271135   3.189  14.647   2.136
23080SOL     OW71136  11.348   1.126   3.616
23080SOL    HW171137  11.404   1.051   3.639
23080SOL    HW271138  11.327   1.113   3.524
23081SOL     OW71139   0.443   2.227  10.950
23081SOL    HW171140   0.354   2.192  10.941
23081SOL    HW271141   0.453   2.286  10.875
23082SOL     OW71142  14.664  14.332   8.985
23082SOL    HW171143  14.640  14.295   9.069
23082SOL    HW271144  14.594  14.305   8.925
23083SOL     OW71145   6.029   8.803   1.819
23083SOL    HW171146   6.112   8.850   1.810
23083SOL    HW271147   6.002   8.784   1.729
23084SOL     OW71148   1.683   5.682   7.632
23084SOL    HW171149   1.762   5.676   7.687
23084SOL    HW271150   1.641   5.597   7.641
23085SOL     OW71151  11.461  13.108   6.876
23085SOL    HW171152  11.507  13.031   6.844
23085SOL    HW271153  11.473  13.107   6.971
23086SOL     OW71154  11.038   9.472   9.586
23086SOL    HW171155  10.961   9.471   9.529
23086SOL    HW271156  11.061   9.380   9.599
23087SOL     OW71157   6.226   5.410   4.089
23087SOL    HW171158   6.247   5.321   4.059
23087SOL    HW271159   6.247   5.466   4.014
23088SOL     OW71160   2.994   4.456   3.373
23088SOL    HW171161   3.060   4.390   3.354
23088SOL    HW271162   3.006   4.523   3.305
23089SOL     OW71163  11.964   1.090  10.570
23089SOL    HW171164  11.912   1.020  10.531
23089SOL    HW271165  12.021   1.046  10.633
23090SOL     OW71166  12.195  13.407  12.657
23090SOL    HW171167  12.213  13.322  12.618
23090SOL    HW271168  12.220  13.397  12.749
23091SOL     OW71169   8.924   3.873   8.219
23091SOL    HW171170   8.984   3.908   8.284
23091SOL    HW271171   8.942   3.779   8.217
23092SOL     OW71172   6.650   0.428   7.112
23092SOL    HW171173   6.712   0.407   7.042
23092SOL    HW271174   6.656   0.524   7.121
23093SOL     OW71175   3.027   2.684  13.519
23093SOL    HW171176   3.039   2.773  13.486
23093SOL    HW271177   3.108   2.664  13.565
23094SOL     OW71178   8.852   8.038   4.260
23094SOL    HW171179   8.800   7.996   4.330
23094SOL    HW271180   8.855   8.130   4.284
23095SOL     OW71181   3.191   1.196   7.320
23095SOL    HW171182   3.141   1.179   7.241
23095SOL    HW271183   3.282   1.197   7.292
23096SOL     OW71184   4.468   2.593   3.330
23096SOL    HW171185   4.408   2.518   3.326
23096SOL    HW271186   4.465   2.631   3.242
23097SOL     OW71187  13.267   4.115  11.527
23097SOL    HW171188  13.248   4.203  11.495
23097SOL    HW271189  13.354   4.122  11.566
23098SOL     OW71190  10.771  13.085  14.645
23098SOL    HW171191  10.756  13.094  14.551
23098SOL    HW271192  10.841  13.020  14.652
23099SOL     OW71193   2.618   1.076   2.373
23099SOL    HW171194   2.674   1.148   2.345
23099SOL    HW271195   2.679   1.006   2.396
23100SOL     OW71196   2.195   1.868   5.454
23100SOL    HW171197   2.108   1.850   5.418
23100SOL    HW271198   2.203   1.963   5.451
23101SOL     OW71199  13.408   6.587   3.534
23101SOL    HW171200  13.454   6.547   3.460
23101SOL    HW271201  13.463   6.661   3.559
23102SOL     OW71202   5.288   0.424   4.361
23102SOL    HW171203   5.225   0.360   4.328
23102SOL    HW271204   5.352   0.434   4.291
23103SOL     OW71205   7.646   5.259   6.403
23103SOL    HW171206   7.558   5.297   6.403
23103SOL    HW271207   7.694   5.312   6.339
23104SOL     OW71208   4.311  10.524   5.605
23104SOL    HW171209   4.318  10.486   5.517
23104SOL    HW271210   4.294  10.617   5.589
23105SOL     OW71211   2.221   6.999   7.643
23105SOL    HW171212   2.205   6.910   7.674
23105SOL    HW271213   2.243   7.048   7.722
23106SOL     OW71214   8.876   3.124   7.610
23106SOL    HW171215   8.871   3.198   7.671
23106SOL    HW271216   8.916   3.053   7.661
23107SOL     OW71217   3.961   3.026   9.022
23107SOL    HW171218   3.982   3.116   9.048
23107SOL    HW271219   3.902   3.035   8.947
23108SOL     OW71220   1.695   1.514  14.068
23108SOL    HW171221   1.786   1.498  14.095
23108SOL    HW271222   1.655   1.427  14.064
23109SOL     OW71223  11.972   2.594  10.997
23109SOL    HW171224  12.060   2.573  10.964
23109SOL    HW271225  11.912   2.554  10.934
23110SOL     OW71226   9.989  14.455  11.921
23110SOL    HW171227   9.912  14.405  11.896
23110SOL    HW271228  10.044  14.393  11.969
23111SOL     OW71229   4.664  12.581   0.580
23111SOL    HW171230   4.748  12.602   0.621
23111SOL    HW271231   4.603  12.644   0.618
23112SOL     OW71232   1.475   2.414   4.009
23112SOL    HW171233   1.477   2.333   3.958
23112SOL    HW271234   1.400   2.463   3.974
23113SOL     OW71235  10.671   3.764   2.810
23113SOL    HW171236  10.752   3.713   2.803
23113SOL    HW271237  10.699   3.855   2.807
23114SOL     OW71238   0.194  10.776   7.204
23114SOL    HW171239   0.161  10.708   7.262
23114SOL    HW271240   0.177  10.858   7.251
23115SOL     OW71241   8.232   7.878   0.081
23115SOL    HW171242   8.275   7.896  14.869
23115SOL    HW271243   8.151   7.833   0.058
23116SOL     OW71244   9.923  11.273   1.613
23116SOL    HW171245   9.971  11.322   1.681
23116SOL    HW271246   9.915  11.184   1.649
23117SOL     OW71247   7.145  14.485   1.318
23117SOL    HW171248   7.079  14.472   1.386
23117SOL    HW271249   7.128  14.415   1.254
23118SOL     OW71250   9.376   5.274  12.799
23118SOL    HW171251   9.376   5.368  12.816
23118SOL    HW271252   9.348   5.266  12.708
23119SOL     OW71253   5.612  14.553   0.673
23119SOL    HW171254   5.567  14.469   0.667
23119SOL    HW271255   5.659  14.549   0.756
23120SOL     OW71256   0.281   0.062  11.320
23120SOL    HW171257   0.360   0.030  11.275
23120SOL    HW271258   0.315   0.124  11.384
23121SOL     OW71259   8.800   0.004   0.985
23121SOL    HW171260   8.819   0.097   0.978
23121SOL    HW271261   8.705  14.871   0.990
23122SOL     OW71262  14.508  10.831   9.495
23122SOL    HW171263  14.471  10.882   9.423
23122SOL    HW271264  14.433  10.806   9.548
23123SOL     OW71265  10.738  11.540  10.833
23123SOL    HW171266  10.765  11.461  10.787
23123SOL    HW271267  10.820  11.583  10.856
23124SOL     OW71268   4.946   2.898   1.752
23124SOL    HW171269   5.031   2.872   1.789
23124SOL    HW271270   4.951   2.993   1.745
23125SOL     OW71271   8.801  14.081  10.027
23125SOL    HW171272   8.758  14.162  10.054
23125SOL    HW271273   8.892  14.091  10.056
23126SOL     OW71274  11.591  10.047  10.988
23126SOL    HW171275  11.639  10.089  10.916
23126SOL    HW271276  11.659  10.020  11.049
23127SOL     OW71277  10.309  14.308   9.276
23127SOL    HW171278  10.309  14.319   9.181
23127SOL    HW271279  10.360  14.381   9.309
23128SOL     OW71280   4.191   4.789  11.137
23128SOL    HW171281   4.198   4.755  11.226
23128SOL    HW271282   4.172   4.883  11.148
23129SOL     OW71283   2.168   8.763  12.398
23129SOL    HW171284   2.149   8.850  12.362
23129SOL    HW271285   2.196   8.711  12.322
23130SOL     OW71286   3.776   4.604   2.748
23130SOL    HW171287   3.768   4.690   2.790
23130SOL    HW271288   3.814   4.623   2.662
23131SOL     OW71289   2.469   0.919  11.243
23131SOL    HW171290   2.436   0.855  11.306
23131SOL    HW271291   2.497   0.867  11.168
23132SOL     OW71292  12.721   2.463   6.408
23132SOL    HW171293  12.768   2.483   6.490
23132SOL    HW271294  12.706   2.369   6.412
23133SOL     OW71295   9.393   1.037  11.849
23133SOL    HW171296   9.479   1.076  11.863
23133SOL    HW271297   9.411   0.946  11.823
23134SOL     OW71298   3.159   0.578   9.037
23134SOL    HW171299   3.113   0.522   9.100
23134SOL    HW271300   3.129   0.666   9.056
23135SOL     OW71301   9.663  12.427  13.196
23135SOL    HW171302   9.673  12.390  13.108
23135SOL    HW271303   9.591  12.489  13.189
23136SOL     OW71304   9.276   2.051   5.771
23136SOL    HW171305   9.209   1.994   5.810
23136SOL    HW271306   9.232   2.134   5.757
23137SOL     OW71307   8.315  10.828   8.665
23137SOL    HW171308   8.359  10.860   8.743
23137SOL    HW271309   8.365  10.865   8.592
23138SOL     OW71310   3.007   4.767   5.604
23138SOL    HW171311   2.937   4.798   5.661
23138SOL    HW271312   3.073   4.731   5.664
23139SOL     OW71313   1.144   6.770   7.627
23139SOL    HW171314   1.223   6.717   7.621
23139SOL    HW271315   1.094   6.730   7.699
23140SOL     OW71316   1.984   9.933   4.616
23140SOL    HW171317   1.962   9.850   4.660
23140SOL    HW271318   1.937   9.929   4.533
23141SOL     OW71319  14.370  13.683   5.731
23141SOL    HW171320  14.283  13.712   5.702
23141SOL    HW271321  14.355  13.597   5.770
23142SOL     OW71322   9.294   3.940  12.901
23142SOL    HW171323   9.311   3.902  12.987
23142SOL    HW271324   9.360   3.900  12.843
23143SOL     OW71325   5.727   2.718   2.248
23143SOL    HW171326   5.674   2.723   2.328
23143SOL    HW271327   5.748   2.625   2.239
23144SOL     OW71328  14.212   8.665  11.143
23144SOL    HW171329  14.249   8.739  11.095
23144SOL    HW271330  14.121   8.691  11.160
23145SOL     OW71331   8.465  12.419   3.204
23145SOL    HW171332   8.483  12.396   3.113
23145SOL    HW271333   8.391  12.363   3.228
23146SOL     OW71334   0.777  14.422   0.285
23146SOL    HW171335   0.797  14.383   0.200
23146SOL    HW271336   0.728  14.501   0.264
23147SOL     OW71337   1.602  14.640   7.998
23147SOL    HW171338   1.577  14.683   7.917
23147SOL    HW271339   1.698  14.639   7.997
23148SOL     OW71340   6.888   1.776   9.950
23148SOL    HW171341   6.814   1.833   9.971
23148SOL    HW271342   6.857   1.688   9.968
23149SOL     OW71343  14.266   2.238  11.349
23149SOL    HW171344  14.283   2.191  11.267
23149SOL    HW271345  14.273   2.330  11.326
23150SOL     OW71346   9.893   8.569   0.913
23150SOL    HW171347   9.853   8.632   0.974
23150SOL    HW271348   9.818   8.521   0.877
23151SOL     OW71349  12.454  11.409   8.982
23151SOL    HW171350  12.415  11.388   9.067
23151SOL    HW271351  12.384  11.453   8.934
23152SOL     OW71352   5.287   3.047   8.095
23152SOL    HW171353   5.210   3.058   8.150
23152SOL    HW271354   5.346   2.993   8.148
23153SOL     OW71355   1.799  11.419   9.722
23153SOL    HW171356   1.726  11.444   9.778
23153SOL    HW271357   1.799  11.484   9.651
23154SOL     OW71358  10.206   5.152   0.883
23154SOL    HW171359  10.219   5.152   0.978
23154SOL    HW271360  10.183   5.243   0.862
23155SOL     OW71361   1.864   3.004  10.572
23155SOL    HW171362   1.850   2.981  10.480
23155SOL    HW271363   1.944   2.956  10.596
23156SOL     OW71364   0.168  11.488   7.937
23156SOL    HW171365   0.099  11.422   7.951
23156SOL    HW271366   0.226  11.477   8.011
23157SOL     OW71367   1.099   2.135   4.892
23157SOL    HW171368   1.094   2.176   4.806
23157SOL    HW271369   1.051   2.053   4.883
23158SOL     OW71370  11.906  12.774   6.924
23158SOL    HW171371  11.933  12.794   6.834
23158SOL    HW271372  11.924  12.855   6.973
23159SOL     OW71373   8.012   1.717   3.856
23159SOL    HW171374   7.960   1.652   3.809
23159SOL    HW271375   8.068   1.757   3.789
23160SOL     OW71376   0.704   3.692   5.138
23160SOL    HW171377   0.797   3.689   5.161
23160SOL    HW271378   0.691   3.778   5.098
23161SOL     OW71379   2.981   1.447   2.662
23161SOL    HW171380   2.977   1.487   2.749
23161SOL    HW271381   3.046   1.377   2.671
23162SOL     OW71382   6.950   2.463   9.383
23162SOL    HW171383   6.922   2.516   9.308
23162SOL    HW271384   6.966   2.526   9.453
23163SOL     OW71385   5.310  13.980   0.634
23163SOL    HW171386   5.332  13.933   0.714
23163SOL    HW271387   5.323  13.917   0.564
23164SOL     OW71388  14.436   2.540  13.547
23164SOL    HW171389  14.391   2.476  13.602
23164SOL    HW271390  14.500   2.488  13.498
23165SOL     OW71391  14.243  13.107   3.009
23165SOL    HW171392  14.296  13.044   3.058
23165SOL    HW271393  14.237  13.069   2.921
23166SOL     OW71394   4.252  14.293  12.014
23166SOL    HW171395   4.336  14.255  11.989
23166SOL    HW271396   4.217  14.232  12.079
23167SOL     OW71397   3.210   3.916   9.078
23167SOL    HW171398   3.209   3.839   9.135
23167SOL    HW271399   3.202   3.991   9.138
23168SOL     OW71400   8.616   2.919   3.706
23168SOL    HW171401   8.635   3.007   3.738
23168SOL    HW271402   8.629   2.925   3.611
23169SOL     OW71403   9.981   8.436   2.384
23169SOL    HW171404   9.900   8.471   2.346
23169SOL    HW271405  10.041   8.510   2.384
23170SOL     OW71406   7.181  13.374   5.826
23170SOL    HW171407   7.256  13.406   5.876
23170SOL    HW271408   7.208  13.379   5.734
23171SOL     OW71409  13.272   0.339  12.351
23171SOL    HW171410  13.194   0.357  12.299
23171SOL    HW271411  13.285   0.418  12.404
23172SOL     OW71412  10.826   5.120   6.648
23172SOL    HW171413  10.864   5.067   6.717
23172SOL    HW271414  10.753   5.067   6.614
23173SOL     OW71415   8.573   4.535  11.128
23173SOL    HW171416   8.653   4.518  11.178
23173SOL    HW271417   8.586   4.623  11.092
23174SOL     OW71418  14.781   9.570   4.672
23174SOL    HW171419  14.687   9.587   4.686
23174SOL    HW271420  14.819   9.656   4.656
23175SOL     OW71421  11.316   8.596   3.456
23175SOL    HW171422  11.382   8.529   3.474
23175SOL    HW271423  11.255   8.591   3.529
23176SOL     OW71424   5.926   6.721   2.000
23176SOL    HW171425   5.939   6.647   2.058
23176SOL    HW271426   5.997   6.781   2.022
23177SOL     OW71427  12.662   1.933   2.328
23177SOL    HW171428  12.717   1.951   2.404
23177SOL    HW271429  12.646   2.019   2.289
23178SOL     OW71430   5.261   8.702   6.319
23178SOL    HW171431   5.189   8.699   6.382
23178SOL    HW271432   5.331   8.749   6.365
23179SOL     OW71433   8.831   0.943  10.815
23179SOL    HW171434   8.869   0.891  10.744
23179SOL    HW271435   8.791   1.017  10.771
23180SOL     OW71436   4.343   6.418   6.491
23180SOL    HW171437   4.379   6.421   6.579
23180SOL    HW271438   4.344   6.509   6.461
23181SOL     OW71439   1.724  11.622   2.539
23181SOL    HW171440   1.663  11.695   2.538
23181SOL    HW271441   1.733  11.596   2.447
23182SOL     OW71442   8.291  10.417  13.334
23182SOL    HW171443   8.282  10.425  13.239
23182SOL    HW271444   8.201  10.410  13.366
23183SOL     OW71445   4.171  10.558   0.040
23183SOL    HW171446   4.147  10.485   0.097
23183SOL    HW271447   4.202  10.626   0.100
23184SOL     OW71448   0.307   3.553   1.081
23184SOL    HW171449   0.349   3.498   1.148
23184SOL    HW271450   0.361   3.541   1.003
23185SOL     OW71451   6.473   0.178  12.840
23185SOL    HW171452   6.455   0.272  12.847
23185SOL    HW271453   6.484   0.149  12.931
23186SOL     OW71454   2.988  12.294  10.433
23186SOL    HW171455   3.054  12.322  10.496
23186SOL    HW271456   3.008  12.202  10.416
23187SOL     OW71457  13.919  10.001   0.012
23187SOL    HW171458  13.914  10.039   0.100
23187SOL    HW271459  13.851   9.933   0.012
23188SOL     OW71460  13.488   8.529   0.551
23188SOL    HW171461  13.463   8.471   0.623
23188SOL    HW271462  13.576   8.559   0.574
23189SOL     OW71463   9.264   5.897  14.658
23189SOL    HW171464   9.320   5.829  14.620
23189SOL    HW271465   9.175   5.867  14.641
23190SOL     OW71466   3.618  12.254  13.875
23190SOL    HW171467   3.536  12.206  13.884
23190SOL    HW271468   3.621  12.281  13.784
23191SOL     OW71469   3.005  11.721   7.567
23191SOL    HW171470   3.028  11.662   7.639
23191SOL    HW271471   3.079  11.781   7.561
23192SOL     OW71472   1.092  12.520   6.422
23192SOL    HW171473   1.016  12.476   6.459
23192SOL    HW271474   1.165  12.460   6.438
23193SOL     OW71475  11.194  10.163   8.453
23193SOL    HW171476  11.130  10.094   8.466
23193SOL    HW271477  11.255  10.154   8.526
23194SOL     OW71478  11.106  13.113  14.583
23194SOL    HW171479  11.151  13.195  14.603
23194SOL    HW271480  11.106  13.108  14.488
23195SOL     OW71481  11.168   6.009  11.749
23195SOL    HW171482  11.244   6.047  11.705
23195SOL    HW271483  11.200   5.984  11.835
23196SOL     OW71484   8.216   3.561   3.820
23196SOL    HW171485   8.206   3.553   3.725
23196SOL    HW271486   8.237   3.654   3.834
23197SOL     OW71487   4.073   0.876  13.171
23197SOL    HW171488   4.113   0.835  13.094
23197SOL    HW271489   4.012   0.810  13.203
23198SOL     OW71490   9.454   1.805   3.441
23198SOL    HW171491   9.417   1.742   3.379
23198SOL    HW271492   9.380   1.830   3.496
23199SOL     OW71493   2.247  10.411   1.707
23199SOL    HW171494   2.194  10.377   1.635
23199SOL    HW271495   2.337  10.395   1.681
23200SOL     OW71496   0.833   6.681   7.534
23200SOL    HW171497   0.800   6.752   7.478
23200SOL    HW271498   0.806   6.705   7.622
23201SOL     OW71499   4.050  13.516  12.989
23201SOL    HW171500   4.010  13.456  13.052
23201SOL    HW271501   3.992  13.513  12.913
23202SOL     OW71502   8.977   3.897  12.867
23202SOL    HW171503   8.905   3.838  12.889
23202SOL    HW271504   9.014   3.861  12.786
23203SOL     OW71505   2.374  11.550  12.536
23203SOL    HW171506   2.294  11.519  12.495
23203SOL    HW271507   2.442  11.536  12.471
23204SOL     OW71508   8.954   9.709  13.416
23204SOL    HW171509   8.988   9.752  13.337
23204SOL    HW271510   8.898   9.775  13.457
23205SOL     OW71511   0.393   0.710   9.920
23205SOL    HW171512   0.449   0.771   9.873
23205SOL    HW271513   0.431   0.624   9.903
23206SOL     OW71514  12.448  12.933   6.718
23206SOL    HW171515  12.471  12.934   6.625
23206SOL    HW271516  12.359  12.968   6.722
23207SOL     OW71517  11.613   0.330   4.969
23207SOL    HW171518  11.643   0.274   5.041
23207SOL    HW271519  11.647   0.287   4.890
23208SOL     OW71520  13.905  14.419   4.663
23208SOL    HW171521  13.905  14.383   4.574
23208SOL    HW271522  13.972  14.487   4.662
23209SOL     OW71523   6.246   9.576  14.189
23209SOL    HW171524   6.302   9.636  14.139
23209SOL    HW271525   6.212   9.516  14.123
23210SOL     OW71526   4.535  10.913  14.844
23210SOL    HW171527   4.572  10.827  14.865
23210SOL    HW271528   4.593  10.947  14.776
23211SOL     OW71529   5.937   9.315   6.913
23211SOL    HW171530   5.869   9.271   6.965
23211SOL    HW271531   5.990   9.243   6.878
23212SOL     OW71532  10.488   6.086   5.227
23212SOL    HW171533  10.541   6.021   5.273
23212SOL    HW271534  10.545   6.163   5.222
23213SOL     OW71535   8.876   9.726   9.481
23213SOL    HW171536   8.835   9.717   9.567
23213SOL    HW271537   8.875   9.637   9.445
23214SOL     OW71538  11.949   0.357   7.734
23214SOL    HW171539  11.854   0.353   7.749
23214SOL    HW271540  11.988   0.332   7.818
23215SOL     OW71541   7.097   1.237  10.178
23215SOL    HW171542   7.038   1.311  10.185
23215SOL    HW271543   7.184   1.274  10.185
23216SOL     OW71544   0.655   8.460   7.823
23216SOL    HW171545   0.663   8.446   7.729
23216SOL    HW271546   0.742   8.441   7.858
23217SOL     OW71547  13.406   8.589   6.503
23217SOL    HW171548  13.483   8.533   6.512
23217SOL    HW271549  13.404   8.613   6.410
23218SOL     OW71550   2.735  12.443  11.512
23218SOL    HW171551   2.747  12.532  11.478
23218SOL    HW271552   2.640  12.430  11.512
23219SOL     OW71553   9.114   1.180  12.288
23219SOL    HW171554   9.185   1.145  12.343
23219SOL    HW271555   9.156   1.196  12.204
23220SOL     OW71556   8.023   5.761  11.677
23220SOL    HW171557   7.954   5.731  11.735
23220SOL    HW271558   8.082   5.686  11.670
23221SOL     OW71559   9.006   4.519  13.487
23221SOL    HW171560   9.061   4.550  13.415
23221SOL    HW271561   9.006   4.591  13.550
23222SOL     OW71562   4.112   9.184   1.098
23222SOL    HW171563   4.038   9.244   1.109
23222SOL    HW271564   4.131   9.152   1.186
23223SOL     OW71565   7.300   8.489   3.174
23223SOL    HW171566   7.345   8.406   3.189
23223SOL    HW271567   7.290   8.495   3.079
23224SOL     OW71568   7.201   1.966   8.824
23224SOL    HW171569   7.126   1.970   8.764
23224SOL    HW271570   7.162   1.943   8.908
23225SOL     OW71571  12.792   3.848   2.302
23225SOL    HW171572  12.767   3.760   2.332
23225SOL    HW271573  12.855   3.878   2.367
23226SOL     OW71574   9.644  13.406   7.607
23226SOL    HW171575   9.695  13.330   7.634
23226SOL    HW271576   9.613  13.445   7.688
23227SOL     OW71577   0.217  12.893  10.134
23227SOL    HW171578   0.150  12.877  10.200
23227SOL    HW271579   0.222  12.811  10.085
23228SOL     OW71580   5.356   6.060   4.647
23228SOL    HW171581   5.388   6.037   4.735
23228SOL    HW271582   5.319   6.148   4.658
23229SOL     OW71583  11.342   3.796   1.427
23229SOL    HW171584  11.361   3.807   1.520
23229SOL    HW271585  11.350   3.884   1.390
23230SOL     OW71586  11.737   1.249   6.317
23230SOL    HW171587  11.681   1.277   6.390
23230SOL    HW271588  11.801   1.190   6.357
23231SOL     OW71589   9.960   4.277   7.478
23231SOL    HW171590  10.039   4.325   7.452
23231SOL    HW271591   9.903   4.282   7.401
23232SOL     OW71592   8.905  12.261  12.273
23232SOL    HW171593   8.958  12.195  12.229
23232SOL    HW271594   8.814  12.234  12.255
23233SOL     OW71595   2.493  14.171   4.852
23233SOL    HW171596   2.504  14.141   4.762
23233SOL    HW271597   2.510  14.094   4.905
23234SOL     OW71598  12.155   3.409  14.355
23234SOL    HW171599  12.171   3.488  14.407
23234SOL    HW271600  12.162   3.337  14.418
23235SOL     OW71601   5.828   6.529   4.746
23235SOL    HW171602   5.866   6.459   4.692
23235SOL    HW271603   5.863   6.610   4.708
23236SOL     OW71604  12.727  14.860   1.675
23236SOL    HW171605  12.752  14.771   1.650
23236SOL    HW271606  12.796   0.016   1.735
23237SOL     OW71607   1.914   8.525   2.264
23237SOL    HW171608   1.887   8.604   2.311
23237SOL    HW271609   1.950   8.468   2.332
23238SOL     OW71610   3.999   8.147   8.484
23238SOL    HW171611   4.020   8.145   8.577
23238SOL    HW271612   4.042   8.070   8.448
23239SOL     OW71613   3.073   5.862   0.413
23239SOL    HW171614   3.154   5.812   0.413
23239SOL    HW271615   3.087   5.931   0.477
23240SOL     OW71616  14.359   4.300   6.940
23240SOL    HW171617  14.377   4.382   6.895
23240SOL    HW271618  14.392   4.313   7.029
23241SOL     OW71619   0.150  10.055   2.391
23241SOL    HW171620   0.119  10.068   2.480
23241SOL    HW271621   0.143   9.961   2.376
23242SOL     OW71622  11.105  14.421   1.861
23242SOL    HW171623  11.145  14.447   1.778
23242SOL    HW271624  11.149  14.339   1.884
23243SOL     OW71625  12.452   5.824   7.232
23243SOL    HW171626  12.512   5.884   7.277
23243SOL    HW271627  12.399   5.786   7.302
23244SOL     OW71628   1.671  10.959   3.064
23244SOL    HW171629   1.674  11.055   3.064
23244SOL    HW271630   1.749  10.933   3.113
23245SOL     OW71631   7.909   0.107   5.646
23245SOL    HW171632   7.953   0.056   5.578
23245SOL    HW271633   7.892   0.043   5.715
23246SOL     OW71634   2.988   2.645   4.205
23246SOL    HW171635   2.924   2.682   4.144
23246SOL    HW271636   3.066   2.629   4.152
23247SOL     OW71637   9.337   6.130   6.366
23247SOL    HW171638   9.313   6.038   6.375
23247SOL    HW271639   9.259   6.178   6.391
23248SOL     OW71640   9.195   7.078  14.069
23248SOL    HW171641   9.256   7.130  14.122
23248SOL    HW271642   9.213   6.987  14.095
23249SOL     OW71643  12.065   0.392   0.314
23249SOL    HW171644  12.105   0.471   0.279
23249SOL    HW271645  12.020   0.421   0.393
23250SOL     OW71646   1.040   5.805   7.198
23250SOL    HW171647   1.067   5.798   7.107
23250SOL    HW271648   1.030   5.900   7.213
23251SOL     OW71649   1.093  10.208   5.746
23251SOL    HW171650   1.145  10.151   5.689
23251SOL    HW271651   1.008  10.214   5.702
23252SOL     OW71652   5.174   9.743  12.362
23252SOL    HW171653   5.257   9.722  12.404
23252SOL    HW271654   5.144   9.659  12.327
23253SOL     OW71655   2.148   4.763   8.956
23253SOL    HW171656   2.169   4.843   9.003
23253SOL    HW271657   2.186   4.693   9.009
23254SOL     OW71658  12.311   7.129   7.801
23254SOL    HW171659  12.340   7.053   7.751
23254SOL    HW271660  12.233   7.099   7.847
23255SOL     OW71661   7.948   3.164  11.604
23255SOL    HW171662   8.019   3.228  11.604
23255SOL    HW271663   7.939   3.138  11.512
23256SOL     OW71664  14.055   1.570   6.495
23256SOL    HW171665  14.066   1.480   6.465
23256SOL    HW271666  14.061   1.624   6.416
23257SOL     OW71667   5.659   3.893   8.793
23257SOL    HW171668   5.697   3.866   8.877
23257SOL    HW271669   5.735   3.901   8.735
23258SOL     OW71670  11.090   9.292   2.402
23258SOL    HW171671  11.075   9.224   2.336
23258SOL    HW271672  11.128   9.365   2.353
23259SOL     OW71673   1.959   0.565  12.074
23259SOL    HW171674   2.027   0.613  12.027
23259SOL    HW271675   1.954   0.480  12.031
23260SOL     OW71676  13.747   2.012   1.295
23260SOL    HW171677  13.680   2.035   1.230
23260SOL    HW271678  13.731   1.920   1.314
23261SOL     OW71679  12.982  12.747  14.084
23261SOL    HW171680  12.911  12.811  14.076
23261SOL    HW271681  13.051  12.795  14.130
23262SOL     OW71682   2.210   4.357   0.408
23262SOL    HW171683   2.225   4.340   0.501
23262SOL    HW271684   2.137   4.419   0.406
23263SOL     OW71685   7.491   3.942  10.142
23263SOL    HW171686   7.406   3.975  10.171
23263SOL    HW271687   7.521   4.007  10.078
23264SOL     OW71688   5.901   9.925   0.828
23264SOL    HW171689   5.956   9.933   0.750
23264SOL    HW271690   5.873  10.015   0.846
23265SOL     OW71691  14.704  13.036   9.142
23265SOL    HW171692  14.756  12.978   9.197
23265SOL    HW271693  14.696  12.990   9.058
23266SOL     OW71694   8.200   4.974   1.445
23266SOL    HW171695   8.226   5.008   1.359
23266SOL    HW271696   8.107   4.996   1.453
23267SOL     OW71697  13.310   4.103   6.761
23267SOL    HW171698  13.368   4.027   6.753
23267SOL    HW271699  13.366   4.171   6.799
23268SOL     OW71700   5.423   2.961   5.480
23268SOL    HW171701   5.378   2.886   5.443
23268SOL    HW271702   5.512   2.931   5.494
23269SOL     OW71703   0.422   3.190   6.417
23269SOL    HW171704   0.454   3.244   6.344
23269SOL    HW271705   0.363   3.247   6.465
23270SOL     OW71706  14.427   7.979   1.969
23270SOL    HW171707  14.480   8.056   1.987
23270SOL    HW271708  14.457   7.914   2.033
23271SOL     OW71709   3.407  13.491   8.512
23271SOL    HW171710   3.458  13.414   8.538
23271SOL    HW271711   3.440  13.512   8.425
23272SOL     OW71712  13.781   0.195   1.776
23272SOL    HW171713  13.733   0.248   1.840
23272SOL    HW271714  13.715   0.164   1.715
23273SOL     OW71715   9.903   1.455   4.101
23273SOL    HW171716   9.979   1.465   4.158
23273SOL    HW271717   9.918   1.517   4.030
23274SOL     OW71718   8.818   2.715   4.577
23274SOL    HW171719   8.815   2.625   4.544
23274SOL    HW271720   8.902   2.750   4.548
23275SOL     OW71721  11.386   5.923   1.933
23275SOL    HW171722  11.371   5.967   1.849
23275SOL    HW271723  11.300   5.916   1.973
23276SOL     OW71724   3.676  11.345   3.871
23276SOL    HW171725   3.611  11.394   3.922
23276SOL    HW271726   3.756  11.349   3.924
23277SOL     OW71727  14.379   7.513   3.911
23277SOL    HW171728  14.302   7.564   3.938
23277SOL    HW271729  14.361   7.425   3.942
23278SOL     OW71730  11.974   6.987  12.334
23278SOL    HW171731  12.012   6.920  12.277
23278SOL    HW271732  12.050   7.025  12.379
23279SOL     OW71733   1.712   0.458   0.482
23279SOL    HW171734   1.635   0.427   0.530
23279SOL    HW271735   1.725   0.548   0.512
23280SOL     OW71736   0.412  14.487   2.399
23280SOL    HW171737   0.402  14.471   2.493
23280SOL    HW271738   0.365  14.569   2.384
23281SOL     OW71739   4.379  14.474   8.955
23281SOL    HW171740   4.316  14.429   9.012
23281SOL    HW271741   4.327  14.502   8.880
23282SOL     OW71742   8.305  12.165   3.315
23282SOL    HW171743   8.264  12.187   3.232
23282SOL    HW271744   8.261  12.085   3.343
23283SOL     OW71745  12.929  10.509  14.328
23283SOL    HW171746  13.002  10.536  14.384
23283SOL    HW271747  12.919  10.415  14.346
23284SOL     OW71748   3.351   5.388  14.363
23284SOL    HW171749   3.420   5.333  14.401
23284SOL    HW271750   3.360   5.471  14.409
23285SOL     OW71751  11.472   5.448   3.740
23285SOL    HW171752  11.429   5.367   3.710
23285SOL    HW271753  11.424   5.518   3.697
23286SOL     OW71754   3.575  12.773  12.412
23286SOL    HW171755   3.606  12.685  12.435
23286SOL    HW271756   3.532  12.763  12.327
23287SOL     OW71757   9.617   3.554   0.795
23287SOL    HW171758   9.535   3.563   0.746
23287SOL    HW271759   9.642   3.644   0.816
23288SOL     OW71760   8.648   0.844  12.067
23288SOL    HW171761   8.743   0.846  12.075
23288SOL    HW271762   8.619   0.929  12.100
23289SOL     OW71763   8.710  10.121   1.638
23289SOL    HW171764   8.770  10.183   1.679
23289SOL    HW271765   8.717  10.042   1.693
23290SOL     OW71766   7.715   2.362   6.399
23290SOL    HW171767   7.747   2.328   6.316
23290SOL    HW271768   7.789   2.352   6.459
23291SOL     OW71769   4.954   6.099  13.028
23291SOL    HW171770   4.954   6.190  12.997
23291SOL    HW271771   4.899   6.052  12.966
23292SOL     OW71772  11.847  12.740  14.332
23292SOL    HW171773  11.796  12.659  14.335
23292SOL    HW271774  11.850  12.769  14.423
23293SOL     OW71775  10.587   2.486   3.178
23293SOL    HW171776  10.510   2.498   3.234
23293SOL    HW271777  10.571   2.543   3.103
23294SOL     OW71778  12.299   3.531   3.387
23294SOL    HW171779  12.327   3.617   3.417
23294SOL    HW271780  12.379   3.487   3.359
23295SOL     OW71781  11.221   0.498   2.252
23295SOL    HW171782  11.292   0.477   2.191
23295SOL    HW271783  11.245   0.454   2.333
23296SOL     OW71784   2.216   9.941  12.489
23296SOL    HW171785   2.172  10.025  12.506
23296SOL    HW271786   2.147   9.876  12.499
23297SOL     OW71787   3.074   7.769  10.638
23297SOL    HW171788   2.993   7.771  10.587
23297SOL    HW271789   3.136   7.821  10.587
23298SOL     OW71790   0.622   6.619   0.588
23298SOL    HW171791   0.636   6.614   0.683
23298SOL    HW271792   0.613   6.528   0.560
23299SOL     OW71793  10.244   9.017   0.551
23299SOL    HW171794  10.221   8.977   0.635
23299SOL    HW271795  10.227   9.110   0.564
23300SOL     OW71796  10.696   8.535  10.919
23300SOL    HW171797  10.662   8.483  10.992
23300SOL    HW271798  10.621   8.587  10.890
23301SOL     OW71799   1.303   6.317  11.459
23301SOL    HW171800   1.277   6.338  11.548
23301SOL    HW271801   1.395   6.343  11.454
23302SOL     OW71802  10.965   2.673   6.845
23302SOL    HW171803  11.026   2.612   6.804
23302SOL    HW271804  11.019   2.747   6.871
23303SOL     OW71805   7.250   1.795  10.497
23303SOL    HW171806   7.256   1.700  10.509
23303SOL    HW271807   7.337   1.821  10.466
23304SOL     OW71808   8.107   9.029  10.885
23304SOL    HW171809   8.173   9.017  10.817
23304SOL    HW271810   8.098   8.943  10.926
23305SOL     OW71811   9.368   4.815   5.009
23305SOL    HW171812   9.432   4.774   5.067
23305SOL    HW271813   9.310   4.744   4.983
23306SOL     OW71814   5.182   9.119  14.667
23306SOL    HW171815   5.185   9.158  14.754
23306SOL    HW271816   5.181   9.193  14.607
23307SOL     OW71817  13.987   0.229  13.961
23307SOL    HW171818  13.917   0.268  14.013
23307SOL    HW271819  13.986   0.277  13.878
23308SOL     OW71820  10.468   8.356  11.064
23308SOL    HW171821  10.431   8.284  11.013
23308SOL    HW271822  10.392   8.394  11.109
23309SOL     OW71823   9.723   8.656   2.482
23309SOL    HW171824   9.723   8.745   2.447
23309SOL    HW271825   9.716   8.600   2.405
23310SOL     OW71826  11.155   5.158   5.752
23310SOL    HW171827  11.135   5.094   5.820
23310SOL    HW271828  11.106   5.236   5.778
23311SOL     OW71829   7.162  10.810   7.606
23311SOL    HW171830   7.092  10.790   7.668
23311SOL    HW271831   7.186  10.901   7.625
23312SOL     OW71832   8.776  12.338   4.258
23312SOL    HW171833   8.693  12.302   4.226
23312SOL    HW271834   8.804  12.399   4.190
23313SOL     OW71835   8.776   9.922  13.177
23313SOL    HW171836   8.776   9.882  13.263
23313SOL    HW271837   8.704   9.985  13.179
23314SOL     OW71838  11.066  11.103   7.119
23314SOL    HW171839  11.085  11.184   7.165
23314SOL    HW271840  11.081  11.034   7.185
23315SOL     OW71841   0.328   9.101   9.935
23315SOL    HW171842   0.404   9.096   9.877
23315SOL    HW271843   0.360   9.069  10.020
23316SOL     OW71844   3.788  12.848   7.414
23316SOL    HW171845   3.744  12.763   7.420
23316SOL    HW271846   3.877  12.828   7.386
23317SOL     OW71847  11.383  13.942  14.377
23317SOL    HW171848  11.337  13.985  14.305
23317SOL    HW271849  11.462  13.994  14.389
23318SOL     OW71850   8.610  10.135   2.793
23318SOL    HW171851   8.556  10.209   2.821
23318SOL    HW271852   8.642  10.161   2.707
23319SOL     OW71853   0.048  10.505   3.358
23319SOL    HW171854   0.085  10.416   3.352
23319SOL    HW271855   0.006  10.508   3.444
23320SOL     OW71856   4.207   7.846   8.688
23320SOL    HW171857   4.295   7.837   8.652
23320SOL    HW271858   4.220   7.859   8.782
23321SOL     OW71859  14.525   7.910  14.797
23321SOL    HW171860  14.457   7.869  14.850
23321SOL    HW271861  14.606   7.899  14.847
23322SOL     OW71862  10.441   2.828   8.403
23322SOL    HW171863  10.426   2.841   8.309
23322SOL    HW271864  10.471   2.913   8.434
23323SOL     OW71865  11.378   8.386   3.905
23323SOL    HW171866  11.297   8.437   3.900
23323SOL    HW271867  11.414   8.407   3.991
23324SOL     OW71868   7.917  10.428  14.481
23324SOL    HW171869   7.996  10.483  14.485
23324SOL    HW271870   7.943  10.346  14.521
23325SOL     OW71871   1.198  13.279   0.256
23325SOL    HW171872   1.124  13.299   0.199
23325SOL    HW271873   1.232  13.364   0.283
23326SOL     OW71874  13.914  11.479  11.090
23326SOL    HW171875  13.890  11.493  10.999
23326SOL    HW271876  13.911  11.566  11.130
23327SOL     OW71877  12.180  13.595   7.720
23327SOL    HW171878  12.267  13.618   7.751
23327SOL    HW271879  12.135  13.679   7.712
23328SOL     OW71880   1.670  10.178   6.362
23328SOL    HW171881   1.760  10.188   6.330
23328SOL    HW271882   1.672  10.100   6.417
23329SOL     OW71883  12.571   5.408   3.633
23329SOL    HW171884  12.596   5.403   3.540
23329SOL    HW271885  12.486   5.451   3.632
23330SOL     OW71886  13.797   7.218   2.419
23330SOL    HW171887  13.768   7.147   2.476
23330SOL    HW271888  13.878   7.249   2.459
23331SOL     OW71889   8.624   6.856  13.492
23331SOL    HW171890   8.717   6.873  13.502
23331SOL    HW271891   8.584   6.943  13.486
23332SOL     OW71892   3.491   3.308   9.014
23332SOL    HW171893   3.560   3.373   9.023
23332SOL    HW271894   3.535   3.229   8.982
23333SOL     OW71895  14.214   0.316   8.045
23333SOL    HW171896  14.129   0.301   8.086
23333SOL    HW271897  14.236   0.232   8.004
23334SOL     OW71898  14.142   0.418  10.334
23334SOL    HW171899  14.105   0.383  10.414
23334SOL    HW271900  14.235   0.396  10.338
23335SOL     OW71901  13.234  14.840  10.170
23335SOL    HW171902  13.310  14.817  10.117
23335SOL    HW271903  13.162  14.790  10.131
23336SOL     OW71904   3.336   8.559   3.192
23336SOL    HW171905   3.296   8.626   3.246
23336SOL    HW271906   3.430   8.573   3.202
23337SOL     OW71907   8.384   7.700  11.915
23337SOL    HW171908   8.446   7.647  11.864
23337SOL    HW271909   8.356   7.768  11.854
23338SOL     OW71910   6.920  10.207   9.268
23338SOL    HW171911   6.893  10.206   9.360
23338SOL    HW271912   6.841  10.186   9.219
23339SOL     OW71913   2.826  11.630  13.255
23339SOL    HW171914   2.751  11.587  13.296
23339SOL    HW271915   2.791  11.709  13.216
23340SOL     OW71916   1.552   8.848  13.661
23340SOL    HW171917   1.564   8.786  13.733
23340SOL    HW271918   1.592   8.929  13.693
23341SOL     OW71919  11.385   3.745   8.802
23341SOL    HW171920  11.349   3.694   8.875
23341SOL    HW271921  11.383   3.836   8.833
23342SOL     OW71922  12.578   5.671   0.748
23342SOL    HW171923  12.634   5.611   0.797
23342SOL    HW271924  12.556   5.740   0.811
23343SOL     OW71925  12.176   6.053   5.307
23343SOL    HW171926  12.135   6.004   5.378
23343SOL    HW271927  12.267   6.023   5.305
23344SOL     OW71928   7.907   8.756  13.065
23344SOL    HW171929   7.856   8.820  13.015
23344SOL    HW271930   7.921   8.798  13.150
23345SOL     OW71931   9.809   5.243  10.975
23345SOL    HW171932   9.814   5.228  10.881
23345SOL    HW271933   9.764   5.327  10.984
23346SOL     OW71934   8.753   0.531   2.474
23346SOL    HW171935   8.729   0.463   2.411
23346SOL    HW271936   8.688   0.524   2.543
23347SOL     OW71937   5.223  14.254   0.754
23347SOL    HW171938   5.237  14.314   0.827
23347SOL    HW271939   5.170  14.184   0.791
23348SOL     OW71940  13.751  12.293   7.764
23348SOL    HW171941  13.760  12.348   7.686
23348SOL    HW271942  13.658  12.274   7.768
23349SOL     OW71943  10.901   6.912   0.703
23349SOL    HW171944  10.868   6.911   0.613
23349SOL    HW271945  10.824   6.929   0.757
23350SOL     OW71946   3.964   4.830   0.787
23350SOL    HW171947   3.902   4.883   0.838
23350SOL    HW271948   3.919   4.747   0.773
23351SOL     OW71949  13.471   0.078  10.976
23351SOL    HW171950  13.515   0.015  10.919
23351SOL    HW271951  13.418   0.132  10.916
23352SOL     OW71952   5.310   1.896  14.629
23352SOL    HW171953   5.287   1.976  14.581
23352SOL    HW271954   5.396   1.916  14.668
23353SOL     OW71955   3.858   4.334   1.589
23353SOL    HW171956   3.929   4.273   1.612
23353SOL    HW271957   3.877   4.359   1.498
23354SOL     OW71958   8.892   0.314   0.420
23354SOL    HW171959   8.896   0.289   0.328
23354SOL    HW271960   8.828   0.385   0.423
23355SOL     OW71961  14.067   0.554   1.715
23355SOL    HW171962  14.093   0.498   1.789
23355SOL    HW271963  14.055   0.493   1.642
23356SOL     OW71964   7.416   7.801  14.159
23356SOL    HW171965   7.413   7.845  14.074
23356SOL    HW271966   7.406   7.871  14.223
23357SOL     OW71967   3.923  13.007  13.323
23357SOL    HW171968   4.002  12.965  13.355
23357SOL    HW271969   3.938  13.101  13.337
23358SOL     OW71970   8.675   1.297  10.450
23358SOL    HW171971   8.658   1.391  10.454
23358SOL    HW271972   8.712   1.283  10.363
23359SOL     OW71973  10.082   6.002  11.576
23359SOL    HW171974  10.099   5.923  11.524
23359SOL    HW271975  10.033   6.059  11.517
23360SOL     OW71976  11.380   6.781   7.394
23360SOL    HW171977  11.340   6.803   7.478
23360SOL    HW271978  11.428   6.700   7.411
23361SOL     OW71979   4.251  13.308   3.465
23361SOL    HW171980   4.202  13.227   3.454
23361SOL    HW271981   4.288  13.326   3.379
23362SOL     OW71982   0.611   4.980   4.912
23362SOL    HW171983   0.684   5.042   4.912
23362SOL    HW271984   0.609   4.946   4.823
23363SOL     OW71985  10.631   0.189   1.594
23363SOL    HW171986  10.640   0.254   1.525
23363SOL    HW271987  10.641   0.239   1.675
23364SOL     OW71988   4.371  14.121  13.948
23364SOL    HW171989   4.427  14.198  13.952
23364SOL    HW271990   4.384  14.087  13.859
23365SOL     OW71991   7.801   9.395   2.584
23365SOL    HW171992   7.833   9.306   2.600
23365SOL    HW271993   7.780   9.396   2.490
23366SOL     OW71994   3.383   1.723   4.164
23366SOL    HW171995   3.473   1.716   4.134
23366SOL    HW271996   3.365   1.817   4.165
23367SOL     OW71997   8.387   4.856  13.972
23367SOL    HW171998   8.423   4.835  13.886
23367SOL    HW271999   8.463   4.878  14.026
23368SOL     OW72000   9.638   6.460   9.973
23368SOL    HW172001   9.603   6.542  10.008
23368SOL    HW272002   9.622   6.396  10.043
23369SOL     OW72003   8.513   6.787   7.325
23369SOL    HW172004   8.606   6.772   7.304
23369SOL    HW272005   8.472   6.805   7.240
23370SOL     OW72006   0.878  12.347   7.116
23370SOL    HW172007   0.965  12.318   7.144
23370SOL    HW272008   0.818  12.280   7.150
23371SOL     OW72009   7.198  11.723  12.512
23371SOL    HW172010   7.178  11.763  12.596
23371SOL    HW272011   7.112  11.701  12.476
23372SOL     OW72012   8.774   8.609  14.705
23372SOL    HW172013   8.806   8.698  14.689
23372SOL    HW272014   8.707   8.595  14.638
23373SOL     OW72015   1.607  14.480   5.101
23373SOL    HW172016   1.635  14.571   5.091
23373SOL    HW272017   1.597  14.468   5.195
23374SOL     OW72018  11.133   4.707   9.338
23374SOL    HW172019  11.079   4.677   9.265
23374SOL    HW272020  11.169   4.627   9.376
23375SOL     OW72021  12.865   6.391   8.888
23375SOL    HW172022  12.957   6.411   8.909
23375SOL    HW272023  12.860   6.296   8.888
23376SOL     OW72024   4.431   6.676  13.146
23376SOL    HW172025   4.399   6.586  13.137
23376SOL    HW272026   4.387   6.723  13.075
23377SOL     OW72027   3.621   2.189   0.810
23377SOL    HW172028   3.648   2.118   0.869
23377SOL    HW272029   3.526   2.193   0.819
23378SOL     OW72030   4.297   8.171   4.332
23378SOL    HW172031   4.335   8.127   4.409
23378SOL    HW272032   4.253   8.248   4.368
23379SOL     OW72033   6.090   4.382  14.341
23379SOL    HW172034   6.088   4.300  14.389
23379SOL    HW272035   6.153   4.436  14.387
23380SOL     OW72036   5.707   4.354   4.489
23380SOL    HW172037   5.739   4.409   4.418
23380SOL    HW272038   5.648   4.411   4.539
23381SOL     OW72039   4.586   3.647   3.125
23381SOL    HW172040   4.577   3.705   3.050
23381SOL    HW272041   4.658   3.589   3.101
23382SOL     OW72042   6.346   7.362  14.139
23382SOL    HW172043   6.379   7.372  14.229
23382SOL    HW272044   6.407   7.301  14.098
23383SOL     OW72045   2.335  14.146  13.901
23383SOL    HW172046   2.380  14.228  13.923
23383SOL    HW272047   2.392  14.077  13.935
23384SOL     OW72048   8.467  14.078   6.328
23384SOL    HW172049   8.499  14.164   6.355
23384SOL    HW272050   8.537  14.018   6.354
23385SOL     OW72051  11.888   0.448  10.713
23385SOL    HW172052  11.971   0.473  10.753
23385SOL    HW272053  11.824   0.509  10.751
23386SOL     OW72054   7.889  13.944   6.370
23386SOL    HW172055   7.864  13.920   6.459
23386SOL    HW272056   7.975  13.984   6.379
23387SOL     OW72057   2.439   4.221   4.633
23387SOL    HW172058   2.389   4.296   4.666
23387SOL    HW272059   2.504   4.203   4.701
23388SOL     OW72060   0.280  11.892  14.044
23388SOL    HW172061   0.294  11.986  14.038
23388SOL    HW272062   0.187  11.880  14.023
23389SOL     OW72063   0.092  11.077   1.380
23389SOL    HW172064   0.004  11.045   1.397
23389SOL    HW272065   0.149  11.003   1.403
23390SOL     OW72066   2.044  11.478   3.308
23390SOL    HW172067   2.114  11.448   3.250
23390SOL    HW272068   2.087  11.537   3.370
23391SOL     OW72069   1.509  11.391   9.434
23391SOL    HW172070   1.426  11.418   9.396
23391SOL    HW272071   1.491  11.383   9.527
23392SOL     OW72072  14.761   6.868   0.679
23392SOL    HW172073  14.754   6.963   0.668
23392SOL    HW272074  14.697   6.848   0.747
23393SOL     OW72075   5.298   2.798   8.951
23393SOL    HW172076   5.249   2.739   8.895
23393SOL    HW272077   5.269   2.886   8.926
23394SOL     OW72078   1.674  14.615   0.700
23394SOL    HW172079   1.737  14.657   0.641
23394SOL    HW272080   1.715  14.531   0.723
23395SOL     OW72081  10.925   3.218   1.900
23395SOL    HW172082  10.843   3.176   1.874
23395SOL    HW272083  10.990   3.182   1.839
23396SOL     OW72084  14.773   5.070   5.826
23396SOL    HW172085  14.823   5.147   5.853
23396SOL    HW272086  14.718   5.049   5.902
23397SOL     OW72087  10.329   8.587   1.592
23397SOL    HW172088  10.397   8.649   1.620
23397SOL    HW272089  10.292   8.625   1.513
23398SOL     OW72090  12.607   1.932   1.319
23398SOL    HW172091  12.557   1.978   1.252
23398SOL    HW272092  12.618   1.843   1.284
23399SOL     OW72093   4.950   6.130  13.979
23399SOL    HW172094   4.962   6.147  13.885
23399SOL    HW272095   4.855   6.131  13.991
23400SOL     OW72096  13.810  11.350   8.726
23400SOL    HW172097  13.729  11.351   8.674
23400SOL    HW272098  13.791  11.289   8.797
23401SOL     OW72099   0.139  12.497  13.867
23401SOL    HW172100   0.227  12.524  13.843
23401SOL    HW272101   0.092  12.493  13.783
23402SOL     OW72102   2.969  10.141  13.431
23402SOL    HW172103   2.973  10.168  13.523
23402SOL    HW272104   2.957  10.223  13.382
23403SOL     OW72105   6.254   8.697  14.286
23403SOL    HW172106   6.226   8.773  14.235
23403SOL    HW272107   6.186   8.686  14.353
23404SOL     OW72108  12.721   0.264   3.907
23404SOL    HW172109  12.724   0.169   3.891
23404SOL    HW272110  12.681   0.272   3.993
23405SOL     OW72111   6.935  11.247  10.875
23405SOL    HW172112   7.001  11.304  10.838
23405SOL    HW272113   6.930  11.272  10.968
23406SOL     OW72114  12.534  13.612   9.409
23406SOL    HW172115  12.459  13.639   9.356
23406SOL    HW272116  12.576  13.542   9.359
23407SOL     OW72117   3.147   7.488  13.817
23407SOL    HW172118   3.129   7.446  13.733
23407SOL    HW272119   3.213   7.432  13.858
23408SOL     OW72120  11.647  13.388   8.810
23408SOL    HW172121  11.663  13.341   8.729
23408SOL    HW272122  11.552  13.395   8.817
23409SOL     OW72123  10.511  11.054   5.391
23409SOL    HW172124  10.474  11.134   5.429
23409SOL    HW272125  10.515  10.992   5.465
23410SOL     OW72126   6.699   0.226   4.260
23410SOL    HW172127   6.776   0.170   4.275
23410SOL    HW272128   6.627   0.165   4.246
23411SOL     OW72129   3.020   8.885   6.663
23411SOL    HW172130   2.940   8.875   6.715
23411SOL    HW272131   3.063   8.962   6.700
23412SOL     OW72132  13.972   3.155   7.248
23412SOL    HW172133  13.981   3.143   7.154
23412SOL    HW272134  14.012   3.240   7.266
23413SOL     OW72135  11.972  13.982   3.185
23413SOL    HW172136  11.930  13.923   3.247
23413SOL    HW272137  11.977  13.931   3.104
23414SOL     OW72138   0.717  14.274   1.110
23414SOL    HW172139   0.708  14.190   1.154
23414SOL    HW272140   0.803  14.306   1.136
23415SOL     OW72141   2.063  10.110   3.776
23415SOL    HW172142   2.064  10.153   3.861
23415SOL    HW272143   2.078  10.182   3.714
23416SOL     OW72144   8.929  11.191  13.634
23416SOL    HW172145   8.838  11.174  13.611
23416SOL    HW272146   8.954  11.117  13.689
23417SOL     OW72147   1.257  11.874   4.266
23417SOL    HW172148   1.228  11.960   4.236
23417SOL    HW272149   1.327  11.892   4.328
23418SOL     OW72150   3.610  10.646  10.521
23418SOL    HW172151   3.693  10.618  10.483
23418SOL    HW272152   3.544  10.593  10.475
23419SOL     OW72153   5.815   9.130   3.242
23419SOL    HW172154   5.761   9.050   3.236
23419SOL    HW272155   5.826   9.144   3.336
23420SOL     OW72156  13.457   2.142   8.880
23420SOL    HW172157  13.410   2.060   8.893
23420SOL    HW272158  13.550   2.117   8.879
23421SOL     OW72159  13.917  11.917  12.524
23421SOL    HW172160  13.871  11.998  12.504
23421SOL    HW272161  14.009  11.938  12.510
23422SOL     OW72162   8.321   8.132  12.330
23422SOL    HW172163   8.337   8.222  12.358
23422SOL    HW272164   8.359   8.078  12.399
23423SOL     OW72165   0.759  11.851  11.327
23423SOL    HW172166   0.752  11.872  11.234
23423SOL    HW272167   0.826  11.911  11.360
23424SOL     OW72168  10.737   2.600   5.047
23424SOL    HW172169  10.812   2.634   4.997
23424SOL    HW272170  10.773   2.526   5.096
23425SOL     OW72171  13.384  11.512   4.022
23425SOL    HW172172  13.325  11.583   4.049
23425SOL    HW272173  13.412  11.471   4.104
23426SOL     OW72174   1.661   8.168  14.370
23426SOL    HW172175   1.649   8.261  14.356
23426SOL    HW272176   1.750   8.159  14.403
23427SOL     OW72177   2.435   0.570  11.217
23427SOL    HW172178   2.419   0.615  11.300
23427SOL    HW272179   2.458   0.640  11.156
23428SOL     OW72180   3.494   0.899  13.633
23428SOL    HW172181   3.483   0.936  13.546
23428SOL    HW272182   3.566   0.836  13.624
23429SOL     OW72183   2.070   1.800   6.300
23429SOL    HW172184   1.990   1.818   6.349
23429SOL    HW272185   2.102   1.886   6.273
23430SOL     OW72186   3.655  11.669   5.209
23430SOL    HW172187   3.632  11.633   5.124
23430SOL    HW272188   3.697  11.597   5.255
23431SOL     OW72189  11.178   4.314  11.916
23431SOL    HW172190  11.271   4.327  11.897
23431SOL    HW272191  11.174   4.303  12.011
23432SOL     OW72192  11.422   1.976   9.882
23432SOL    HW172193  11.353   1.966   9.948
23432SOL    HW272194  11.443   1.887   9.855
23433SOL     OW72195  12.961   0.071  14.380
23433SOL    HW172196  12.990   0.047  14.469
23433SOL    HW272197  12.972  14.863  14.329
23434SOL     OW72198   6.930   3.610   9.987
23434SOL    HW172199   6.972   3.531   9.952
23434SOL    HW272200   6.998   3.651  10.041
23435SOL     OW72201   6.573   3.404  14.062
23435SOL    HW172202   6.651   3.459  14.067
23435SOL    HW272203   6.524   3.425  14.141
23436SOL     OW72204   6.055  13.680   3.390
23436SOL    HW172205   6.034  13.773   3.389
23436SOL    HW272206   5.999  13.641   3.323
23437SOL     OW72207  11.439   0.282   9.835
23437SOL    HW172208  11.507   0.284   9.767
23437SOL    HW272209  11.396   0.367   9.828
23438SOL     OW72210  12.788   9.606   5.982
23438SOL    HW172211  12.830   9.613   5.896
23438SOL    HW272212  12.787   9.512   6.000
23439SOL     OW72213  13.056  12.431   6.949
23439SOL    HW172214  13.087  12.509   6.995
23439SOL    HW272215  12.961  12.441   6.946
23440SOL     OW72216   5.173   9.587  13.085
23440SOL    HW172217   5.120   9.596  13.164
23440SOL    HW272218   5.134   9.514  13.037
23441SOL     OW72219   0.290   6.929  14.240
23441SOL    HW172220   0.377   6.903  14.212
23441SOL    HW272221   0.298   6.943  14.335
23442SOL     OW72222   6.154   7.098   7.190
23442SOL    HW172223   6.066   7.098   7.228
23442SOL    HW272224   6.200   7.028   7.237
23443SOL     OW72225  12.758   8.499   3.784
23443SOL    HW172226  12.837   8.475   3.735
23443SOL    HW272227  12.755   8.594   3.780
23444SOL     OW72228  10.722   9.458  10.248
23444SOL    HW172229  10.719   9.522  10.176
23444SOL    HW272230  10.768   9.383  10.211
23445SOL     OW72231   6.520   9.639   8.236
23445SOL    HW172232   6.486   9.565   8.187
23445SOL    HW272233   6.512   9.613   8.328
23446SOL     OW72234   3.861  11.914   1.218
23446SOL    HW172235   3.905  11.889   1.299
23446SOL    HW272236   3.770  11.932   1.245
23447SOL     OW72237   4.759  11.133   2.008
23447SOL    HW172238   4.727  11.111   2.095
23447SOL    HW272239   4.700  11.202   1.977
23448SOL     OW72240   5.776   5.865   4.674
23448SOL    HW172241   5.736   5.859   4.762
23448SOL    HW272242   5.708   5.905   4.620
23449SOL     OW72243   8.147   9.998   6.543
23449SOL    HW172244   8.184  10.075   6.588
23449SOL    HW272245   8.158   9.926   6.605
23450SOL     OW72246  12.921  11.845   5.805
23450SOL    HW172247  12.832  11.874   5.827
23450SOL    HW272248  12.937  11.882   5.719
23451SOL     OW72249   8.163   1.263   7.822
23451SOL    HW172250   8.218   1.187   7.842
23451SOL    HW272251   8.075   1.228   7.818
23452SOL     OW72252   9.763  13.476   2.871
23452SOL    HW172253   9.686  13.428   2.842
23452SOL    HW272254   9.730  13.564   2.891
23453SOL     OW72255   0.154   5.382   5.574
23453SOL    HW172256   0.225   5.427   5.529
23453SOL    HW272257   0.151   5.421   5.661
23454SOL     OW72258   2.730   0.698  11.443
23454SOL    HW172259   2.661   0.688  11.509
23454SOL    HW272260   2.797   0.751  11.485
23455SOL     OW72261   2.809   6.760  12.377
23455SOL    HW172262   2.902   6.771  12.354
23455SOL    HW272263   2.772   6.848  12.368
23456SOL     OW72264  12.870   7.437  13.326
23456SOL    HW172265  12.807   7.399  13.387
23456SOL    HW272266  12.828   7.518  13.296
23457SOL     OW72267  13.358   7.833   3.097
23457SOL    HW172268  13.310   7.880   3.165
23457SOL    HW272269  13.363   7.743   3.128
23458SOL     OW72270   9.634   8.522   9.021
23458SOL    HW172271   9.721   8.494   8.994
23458SOL    HW272272   9.594   8.558   8.942
23459SOL     OW72273  11.117   5.515   0.967
23459SOL    HW172274  11.066   5.441   0.933
23459SOL    HW272275  11.170   5.478   1.037
23460SOL     OW72276   4.985   7.841   1.588
23460SOL    HW172277   5.018   7.752   1.599
23460SOL    HW272278   4.904   7.830   1.537
23461SOL     OW72279   5.644   4.411   5.330
23461SOL    HW172280   5.580   4.343   5.306
23461SOL    HW272281   5.628   4.426   5.423
23462SOL     OW72282   5.103   0.224   5.370
23462SOL    HW172283   5.026   0.269   5.336
23462SOL    HW272284   5.081   0.131   5.365
23463SOL     OW72285  10.603  12.378   2.843
23463SOL    HW172286  10.638  12.447   2.899
23463SOL    HW272287  10.680  12.340   2.802
23464SOL     OW72288   6.544   9.365   5.754
23464SOL    HW172289   6.516   9.346   5.844
23464SOL    HW272290   6.638   9.380   5.761
23465SOL     OW72291  10.180  12.218  10.962
23465SOL    HW172292  10.228  12.238  11.042
23465SOL    HW272293  10.241  12.165  10.910
23466SOL     OW72294  11.993   8.113   5.486
23466SOL    HW172295  11.934   8.038   5.486
23466SOL    HW272296  11.937   8.188   5.507
23467SOL     OW72297   5.708  10.952   3.723
23467SOL    HW172298   5.766  11.009   3.673
23467SOL    HW272299   5.650  11.012   3.770
23468SOL     OW72300   7.022   7.499   8.363
23468SOL    HW172301   6.988   7.431   8.306
23468SOL    HW272302   7.113   7.475   8.378
23469SOL     OW72303   8.886  10.478  13.657
23469SOL    HW172304   8.878  10.398  13.709
23469SOL    HW272305   8.968  10.467  13.609
23470SOL     OW72306  14.086  12.661  10.435
23470SOL    HW172307  14.067  12.686  10.345
23470SOL    HW272308  14.175  12.692  10.450
23471SOL     OW72309  12.668  10.946  12.040
23471SOL    HW172310  12.719  11.013  11.993
23471SOL    HW272311  12.715  10.934  12.122
23472SOL     OW72312   8.701   8.608   3.115
23472SOL    HW172313   8.754   8.580   3.041
23472SOL    HW272314   8.659   8.528   3.147
23473SOL     OW72315   8.638   0.431  12.845
23473SOL    HW172316   8.559   0.481  12.864
23473SOL    HW272317   8.670   0.402  12.931
23474SOL     OW72318   5.543   3.733  13.784
23474SOL    HW172319   5.619   3.765  13.736
23474SOL    HW272320   5.470   3.786  13.751
23475SOL     OW72321   4.158   6.847   6.242
23475SOL    HW172322   4.183   6.939   6.247
23475SOL    HW272323   4.062   6.848   6.239
23476SOL     OW72324   7.896   1.469   5.076
23476SOL    HW172325   7.832   1.537   5.096
23476SOL    HW272326   7.877   1.400   5.139
23477SOL     OW72327   4.058   2.666   2.883
23477SOL    HW172328   4.113   2.730   2.926
23477SOL    HW272329   4.077   2.583   2.928
23478SOL     OW72330   2.353   7.574   8.806
23478SOL    HW172331   2.341   7.661   8.769
23478SOL    HW272332   2.366   7.517   8.731
23479SOL     OW72333   4.438  14.856   7.817
23479SOL    HW172334   4.450  14.764   7.791
23479SOL    HW272335   4.519   0.027   7.790
23480SOL     OW72336  12.244   9.968   9.215
23480SOL    HW172337  12.275   9.990   9.303
23480SOL    HW272338  12.324   9.958   9.163
23481SOL     OW72339   6.202   6.874  13.502
23481SOL    HW172340   6.191   6.960  13.461
23481SOL    HW272341   6.159   6.813  13.442
23482SOL     OW72342   6.700   6.742  11.123
23482SOL    HW172343   6.625   6.723  11.180
23482SOL    HW272344   6.666   6.732  11.034
23483SOL     OW72345  13.240   5.846   5.714
23483SOL    HW172346  13.147   5.824   5.721
23483SOL    HW272347  13.253   5.915   5.779
23484SOL     OW72348  11.178   0.665   5.751
23484SOL    HW172349  11.154   0.682   5.842
23484SOL    HW272350  11.179   0.569   5.744
23485SOL     OW72351   4.322   6.501   3.547
23485SOL    HW172352   4.389   6.433   3.541
23485SOL    HW272353   4.354   6.561   3.614
23486SOL     OW72354  10.071   6.990  10.264
23486SOL    HW172355  10.149   7.012  10.314
23486SOL    HW272356   9.999   7.005  10.325
23487SOL     OW72357   2.175   6.931   3.164
23487SOL    HW172358   2.200   6.868   3.231
23487SOL    HW272359   2.195   7.016   3.203
23488SOL     OW72360  12.343   1.955  13.328
23488SOL    HW172361  12.275   2.022  13.341
23488SOL    HW272362  12.417   1.986  13.379
23489SOL     OW72363   5.136   0.038  11.651
23489SOL    HW172364   5.133   0.070  11.741
23489SOL    HW272365   5.178  14.824  11.657
23490SOL     OW72366  12.143   2.246   2.037
23490SOL    HW172367  12.123   2.182   1.969
23490SOL    HW272368  12.222   2.214   2.080
23491SOL     OW72369  11.101  12.832   2.235
23491SOL    HW172370  11.071  12.817   2.324
23491SOL    HW272371  11.069  12.920   2.214
23492SOL     OW72372  12.410   6.483   6.907
23492SOL    HW172373  12.335   6.462   6.963
23492SOL    HW272374  12.381   6.460   6.819
23493SOL     OW72375  12.071  13.083  11.741
23493SOL    HW172376  12.107  13.004  11.700
23493SOL    HW272377  11.976  13.071  11.737
23494SOL     OW72378   8.966   3.674   2.855
23494SOL    HW172379   8.968   3.601   2.792
23494SOL    HW272380   8.918   3.639   2.930
23495SOL     OW72381  10.834  11.754   1.245
23495SOL    HW172382  10.902  11.777   1.309
23495SOL    HW272383  10.860  11.800   1.165
23496SOL     OW72384  13.180   9.757   7.534
23496SOL    HW172385  13.084   9.756   7.534
23496SOL    HW272386  13.203   9.749   7.627
23497SOL     OW72387   3.224   4.020  14.115
23497SOL    HW172388   3.222   4.000  14.021
23497SOL    HW272389   3.317   4.033  14.134
23498SOL     OW72390  10.574   0.675  11.719
23498SOL    HW172391  10.598   0.689  11.628
23498SOL    HW272392  10.491   0.627  11.715
23499SOL     OW72393   4.172  11.523   0.629
23499SOL    HW172394   4.125  11.497   0.708
23499SOL    HW272395   4.132  11.606   0.603
23500SOL     OW72396   0.130   9.862  12.174
23500SOL    HW172397   0.043   9.898  12.188
23500SOL    HW272398   0.187   9.939  12.166
23501SOL     OW72399  10.307  12.643  10.738
23501SOL    HW172400  10.269  12.595  10.811
23501SOL    HW272401  10.312  12.734  10.767
23502SOL     OW72402   0.424   9.894   4.872
23502SOL    HW172403   0.381   9.980   4.868
23502SOL    HW272404   0.359   9.837   4.913
23503SOL     OW72405   2.110   6.448   1.141
23503SOL    HW172406   2.108   6.405   1.055
23503SOL    HW272407   2.035   6.508   1.139
23504SOL     OW72408  10.370  11.011   2.657
23504SOL    HW172409  10.357  11.067   2.733
23504SOL    HW272410  10.447  11.047   2.613
23505SOL     OW72411   5.934   8.018   3.257
23505SOL    HW172412   5.874   8.012   3.183
23505SOL    HW272413   5.999   7.950   3.242
23506SOL     OW72414   5.769   5.546  13.491
23506SOL    HW172415   5.697   5.601  13.521
23506SOL    HW272416   5.792   5.581  13.405
23507SOL     OW72417  10.869   1.864   9.831
23507SOL    HW172418  10.897   1.789   9.779
23507SOL    HW272419  10.864   1.831   9.921
23508SOL     OW72420  12.852  10.906  12.246
23508SOL    HW172421  12.834  10.834  12.306
23508SOL    HW272422  12.936  10.941  12.275
23509SOL     OW72423  11.877  13.421  13.819
23509SOL    HW172424  11.908  13.453  13.903
23509SOL    HW272425  11.809  13.483  13.792
23510SOL     OW72426   5.276   7.619   4.678
23510SOL    HW172427   5.189   7.618   4.717
23510SOL    HW272428   5.336   7.620   4.752
23511SOL     OW72429   3.145   2.400   8.941
23511SOL    HW172430   3.175   2.431   9.026
23511SOL    HW272431   3.197   2.451   8.878
23512SOL     OW72432  11.877  14.735  14.811
23512SOL    HW172433  11.971  14.745  14.826
23512SOL    HW272434  11.839  14.740   0.026
23513SOL     OW72435  10.392   4.043   2.200
23513SOL    HW172436  10.401   4.016   2.291
23513SOL    HW272437  10.363   3.965   2.153
23514SOL     OW72438   8.985  10.371  10.705
23514SOL    HW172439   8.948  10.391  10.791
23514SOL    HW272440   9.072  10.337  10.723
23515SOL     OW72441  11.912  11.042   5.197
23515SOL    HW172442  11.975  10.984   5.155
23515SOL    HW272443  11.851  11.066   5.127
23516SOL     OW72444  12.929   9.041  11.555
23516SOL    HW172445  12.909   9.093  11.633
23516SOL    HW272446  12.865   8.970  11.556
23517SOL     OW72447   3.205  12.016   2.901
23517SOL    HW172448   3.287  12.031   2.854
23517SOL    HW272449   3.139  12.003   2.833
23518SOL     OW72450  11.724  13.175   2.820
23518SOL    HW172451  11.803  13.121   2.821
23518SOL    HW272452  11.663  13.130   2.879
23519SOL     OW72453   4.888  11.597  13.131
23519SOL    HW172454   4.816  11.629  13.186
23519SOL    HW272455   4.881  11.648  13.051
23520SOL     OW72456  12.640   7.385   7.288
23520SOL    HW172457  12.560   7.335   7.304
23520SOL    HW272458  12.706   7.341   7.342
23521SOL     OW72459   4.391   8.610   7.066
23521SOL    HW172460   4.327   8.542   7.047
23521SOL    HW272461   4.472   8.563   7.083
23522SOL     OW72462   6.956   1.164   2.133
23522SOL    HW172463   7.012   1.114   2.192
23522SOL    HW272464   7.003   1.247   2.120
23523SOL     OW72465   5.117  12.549  10.185
23523SOL    HW172466   5.126  12.642  10.164
23523SOL    HW272467   5.152  12.541  10.274
23524SOL     OW72468  13.688  11.012   2.752
23524SOL    HW172469  13.714  11.102   2.770
23524SOL    HW272470  13.756  10.978   2.694
23525SOL     OW72471  10.470  10.069  10.557
23525SOL    HW172472  10.433  10.065  10.646
23525SOL    HW272473  10.427  10.143  10.516
23526SOL     OW72474   8.594  10.758  12.279
23526SOL    HW172475   8.530  10.748  12.349
23526SOL    HW272476   8.678  10.766  12.323
23527SOL     OW72477   0.392   2.988   2.374
23527SOL    HW172478   0.382   2.919   2.308
23527SOL    HW272479   0.387   3.069   2.324
23528SOL     OW72480  10.340   6.434   2.150
23528SOL    HW172481  10.283   6.402   2.220
23528SOL    HW272482  10.341   6.363   2.086
23529SOL     OW72483   8.229  13.529  12.801
23529SOL    HW172484   8.307  13.569  12.763
23529SOL    HW272485   8.193  13.474  12.730
23530SOL     OW72486  11.246   1.558  14.215
23530SOL    HW172487  11.222   1.518  14.298
23530SOL    HW272488  11.340   1.546  14.209
23531SOL     OW72489   9.623   5.259   1.550
23531SOL    HW172490   9.566   5.324   1.591
23531SOL    HW272491   9.590   5.251   1.461
23532SOL     OW72492  10.142   5.718   5.256
23532SOL    HW172493  10.118   5.792   5.202
23532SOL    HW272494  10.238   5.725   5.265
23533SOL     OW72495  11.317   2.790   0.145
23533SOL    HW172496  11.257   2.850   0.189
23533SOL    HW272497  11.360   2.843   0.079
23534SOL     OW72498   9.223   4.382  13.043
23534SOL    HW172499   9.205   4.341  12.958
23534SOL    HW272500   9.192   4.472  13.033
23535SOL     OW72501   8.328   0.498   6.116
23535SOL    HW172502   8.335   0.582   6.161
23535SOL    HW272503   8.256   0.510   6.054
23536SOL     OW72504   9.699   3.977   2.400
23536SOL    HW172505   9.664   3.944   2.317
23536SOL    HW272506   9.654   3.926   2.467
23537SOL     OW72507   8.542   6.024  11.693
23537SOL    HW172508   8.447   6.026  11.683
23537SOL    HW272509   8.575   6.020  11.603
23538SOL     OW72510  10.231   6.067   0.483
23538SOL    HW172511  10.247   6.042   0.574
23538SOL    HW272512  10.277   6.149   0.472
23539SOL     OW72513  12.167   5.383   3.462
23539SOL    HW172514  12.114   5.364   3.384
23539SOL    HW272515  12.132   5.325   3.530
23540SOL     OW72516  10.117   5.518  14.082
23540SOL    HW172517  10.025   5.500  14.104
23540SOL    HW272518  10.143   5.444  14.027
23541SOL     OW72519  10.310  12.367   9.631
23541SOL    HW172520  10.255  12.444   9.645
23541SOL    HW272521  10.395  12.403   9.604
23542SOL     OW72522   6.423   6.070   1.270
23542SOL    HW172523   6.478   6.145   1.291
23542SOL    HW272524   6.352   6.073   1.335
23543SOL     OW72525   3.994   6.489   3.513
23543SOL    HW172526   4.040   6.450   3.439
23543SOL    HW272527   4.003   6.583   3.501
23544SOL     OW72528  12.866  12.721   6.756
23544SOL    HW172529  12.796  12.662   6.784
23544SOL    HW272530  12.850  12.801   6.805
23545SOL     OW72531   9.412   1.985   8.885
23545SOL    HW172532   9.448   1.897   8.893
23545SOL    HW272533   9.369   1.985   8.799
23546SOL     OW72534   1.190   9.477   0.342
23546SOL    HW172535   1.096   9.477   0.324
23546SOL    HW272536   1.230   9.515   0.264
23547SOL     OW72537   1.251   0.440  12.076
23547SOL    HW172538   1.273   0.503  12.007
23547SOL    HW272539   1.310   0.464  12.148
23548SOL     OW72540  12.524   0.083   6.729
23548SOL    HW172541  12.589   0.137   6.684
23548SOL    HW272542  12.502   0.015   6.666
23549SOL     OW72543   6.792  10.018   7.125
23549SOL    HW172544   6.771  10.089   7.064
23549SOL    HW272545   6.820   9.945   7.069
23550SOL     OW72546   8.635   8.966   3.522
23550SOL    HW172547   8.661   9.057   3.538
23550SOL    HW272548   8.661   8.949   3.432
23551SOL     OW72549   7.374   8.446   2.894
23551SOL    HW172550   7.457   8.471   2.853
23551SOL    HW272551   7.352   8.361   2.856
23552SOL     OW72552   6.045   4.103   5.142
23552SOL    HW172553   5.967   4.096   5.198
23552SOL    HW272554   6.011   4.129   5.057
23553SOL     OW72555   9.514  10.010   1.244
23553SOL    HW172556   9.506  10.035   1.336
23553SOL    HW272557   9.464  10.076   1.196
23554SOL     OW72558   0.565  12.560   8.990
23554SOL    HW172559   0.499  12.627   9.008
23554SOL    HW272560   0.544  12.488   9.050
23555SOL     OW72561   4.529   8.729  14.295
23555SOL    HW172562   4.544   8.812  14.250
23555SOL    HW272563   4.472   8.679  14.237
23556SOL     OW72564   4.592  11.767  12.054
23556SOL    HW172565   4.525  11.715  12.098
23556SOL    HW272566   4.571  11.858  12.077
23557SOL     OW72567   0.584   1.933   0.184
23557SOL    HW172568   0.490   1.941   0.168
23557SOL    HW272569   0.596   1.961   0.275
23558SOL     OW72570  12.693   0.727  13.414
23558SOL    HW172571  12.630   0.795  13.438
23558SOL    HW272572  12.775   0.754  13.454
23559SOL     OW72573  14.754  12.126   2.284
23559SOL    HW172574  14.711  12.042   2.264
23559SOL    HW272575  14.695  12.169   2.345
23560SOL     OW72576   4.763  12.795   1.450
23560SOL    HW172577   4.847  12.763   1.482
23560SOL    HW272578   4.759  12.886   1.478
23561SOL     OW72579   0.398   2.946   3.947
23561SOL    HW172580   0.343   2.931   4.024
23561SOL    HW272581   0.458   3.015   3.974
23562SOL     OW72582   6.184   9.534   2.186
23562SOL    HW172583   6.250   9.532   2.255
23562SOL    HW272584   6.107   9.572   2.228
23563SOL     OW72585   3.948   9.830  14.350
23563SOL    HW172586   3.943   9.831  14.255
23563SOL    HW272587   3.861   9.801  14.379
23564SOL     OW72588   9.871  13.241   2.588
23564SOL    HW172589   9.835  13.321   2.551
23564SOL    HW272590   9.867  13.177   2.517
23565SOL     OW72591   6.903  12.986  14.016
23565SOL    HW172592   6.954  12.906  14.022
23565SOL    HW272593   6.832  12.974  14.079
23566SOL     OW72594   9.637  13.076  13.133
23566SOL    HW172595   9.657  13.090  13.225
23566SOL    HW272596   9.542  13.088  13.127
23567SOL     OW72597   5.839   5.982   0.900
23567SOL    HW172598   5.881   5.912   0.951
23567SOL    HW272599   5.752   5.990   0.938
23568SOL     OW72600   7.382   9.494   5.676
23568SOL    HW172601   7.464   9.539   5.695
23568SOL    HW272602   7.398   9.403   5.701
23569SOL     OW72603  10.326  13.428   8.889
23569SOL    HW172604  10.357  13.398   8.974
23569SOL    HW272605  10.400  13.477   8.852
23570SOL     OW72606   3.920   8.342   4.623
23570SOL    HW172607   3.851   8.278   4.637
23570SOL    HW272608   3.954   8.323   4.536
23571SOL     OW72609   9.402  10.026   9.677
23571SOL    HW172610   9.443  10.112   9.666
23571SOL    HW272611   9.361  10.009   9.593
23572SOL     OW72612  14.743  13.601  12.897
23572SOL    HW172613  14.751  13.586  12.991
23572SOL    HW272614  14.833  13.609  12.865
23573SOL     OW72615   1.072  13.812   2.826
23573SOL    HW172616   1.119  13.846   2.750
23573SOL    HW272617   1.095  13.719   2.830
23574SOL     OW72618  11.103   0.563  14.544
23574SOL    HW172619  11.088   0.568  14.638
23574SOL    HW272620  11.144   0.477  14.531
23575SOL     OW72621   9.077   4.268   7.580
23575SOL    HW172622   9.027   4.191   7.554
23575SOL    HW272623   9.168   4.241   7.571
23576SOL     OW72624   6.673   1.454  11.831
23576SOL    HW172625   6.741   1.513  11.800
23576SOL    HW272626   6.630   1.422  11.752
23577SOL     OW72627   0.786   5.863   4.783
23577SOL    HW172628   0.702   5.830   4.816
23577SOL    HW272629   0.762   5.937   4.728
23578SOL     OW72630   7.750   1.625   1.245
23578SOL    HW172631   7.817   1.693   1.234
23578SOL    HW272632   7.670   1.673   1.266
23579SOL     OW72633   1.060   5.122  10.912
23579SOL    HW172634   1.114   5.070  10.852
23579SOL    HW272635   1.120   5.148  10.982
23580SOL     OW72636   3.130   9.255  11.651
23580SOL    HW172637   3.178   9.330  11.686
23580SOL    HW272638   3.149   9.256  11.557
23581SOL     OW72639   3.065  11.631  13.367
23581SOL    HW172640   2.979  11.638  13.325
23581SOL    HW272641   3.056  11.557  13.427
23582SOL     OW72642  10.052  11.409  13.572
23582SOL    HW172643  10.076  11.340  13.510
23582SOL    HW272644   9.977  11.374  13.619
23583SOL     OW72645   8.159   0.206  10.422
23583SOL    HW172646   8.151   0.132  10.481
23583SOL    HW272647   8.072   0.245  10.419
23584SOL     OW72648   8.383  14.147   1.835
23584SOL    HW172649   8.291  14.154   1.859
23584SOL    HW272650   8.411  14.238   1.821
23585SOL     OW72651   9.736  13.095  12.843
23585SOL    HW172652   9.765  13.185  12.828
23585SOL    HW272653   9.709  13.093  12.934
23586SOL     OW72654   0.484   9.414   8.396
23586SOL    HW172655   0.547   9.363   8.447
23586SOL    HW272656   0.496   9.504   8.426
23587SOL     OW72657   5.004   1.140  14.032
23587SOL    HW172658   4.926   1.132  13.978
23587SOL    HW272659   5.068   1.083  13.991
23588SOL     OW72660  13.296   0.174   7.393
23588SOL    HW172661  13.268   0.240   7.329
23588SOL    HW272662  13.251   0.199   7.474
23589SOL     OW72663   4.393   8.811   1.669
23589SOL    HW172664   4.329   8.765   1.724
23589SOL    HW272665   4.471   8.816   1.724
23590SOL     OW72666   2.355  12.485   5.778
23590SOL    HW172667   2.267  12.477   5.743
23590SOL    HW272668   2.364  12.578   5.797
23591SOL     OW72669  10.549   7.904   9.581
23591SOL    HW172670  10.475   7.847   9.560
23591SOL    HW272671  10.521   7.991   9.551
23592SOL     OW72672   2.455   1.637   0.783
23592SOL    HW172673   2.374   1.641   0.834
23592SOL    HW272674   2.469   1.728   0.755
23593SOL     OW72675  12.153   8.825   0.221
23593SOL    HW172676  12.177   8.760   0.155
23593SOL    HW272677  12.058   8.814   0.232
23594SOL     OW72678   4.363  10.206  10.658
23594SOL    HW172679   4.273  10.215  10.688
23594SOL    HW272680   4.392  10.122  10.693
23595SOL     OW72681   9.916  10.408   3.387
23595SOL    HW172682   9.922  10.422   3.482
23595SOL    HW272683   9.958  10.323   3.372
23596SOL     OW72684   1.641   0.629   9.867
23596SOL    HW172685   1.684   0.614   9.951
23596SOL    HW272686   1.591   0.709   9.880
23597SOL     OW72687  14.754   3.754   8.235
23597SOL    HW172688  14.772   3.671   8.190
23597SOL    HW272689  14.789   3.821   8.176
23598SOL     OW72690  10.174   9.383  10.855
23598SOL    HW172691  10.112   9.379  10.782
23598SOL    HW272692  10.133   9.331  10.924
23599SOL     OW72693   3.168  12.674   6.254
23599SOL    HW172694   3.135  12.590   6.285
23599SOL    HW272695   3.257  12.655   6.225
23600SOL     OW72696  11.659   5.395   6.467
23600SOL    HW172697  11.588   5.395   6.530
23600SOL    HW272698  11.617   5.371   6.384
23601SOL     OW72699   6.007  11.192  12.119
23601SOL    HW172700   5.941  11.127  12.144
23601SOL    HW272701   6.037  11.229  12.202
23602SOL     OW72702  14.656  13.429   5.015
23602SOL    HW172703  14.560  13.433   5.018
23602SOL    HW272704  14.678  13.348   5.061
23603SOL     OW72705   3.402   7.192  12.973
23603SOL    HW172706   3.452   7.123  12.929
23603SOL    HW272707   3.451   7.209  13.054
23604SOL     OW72708  14.866   0.820   9.447
23604SOL    HW172709   0.033   0.906   9.430
23604SOL    HW272710  14.838   0.789   9.361
23605SOL     OW72711  11.856   8.550   4.981
23605SOL    HW172712  11.945   8.571   4.952
23605SOL    HW272713  11.853   8.581   5.071
23606SOL     OW72714   6.956   9.446   3.527
23606SOL    HW172715   7.033   9.390   3.520
23606SOL    HW272716   6.925   9.457   3.437
23607SOL     OW72717   9.718   9.571   6.826
23607SOL    HW172718   9.724   9.563   6.922
23607SOL    HW272719   9.634   9.531   6.804
23608SOL     OW72720  13.006  11.116   9.766
23608SOL    HW172721  13.089  11.151   9.735
23608SOL    HW272722  13.025  11.025   9.787
23609SOL     OW72723   4.430   1.890  12.503
23609SOL    HW172724   4.429   1.941  12.584
23609SOL    HW272725   4.443   1.954  12.433
23610SOL     OW72726  10.374   0.318   4.157
23610SOL    HW172727  10.458   0.338   4.198
23610SOL    HW272728  10.333   0.255   4.216
23611SOL     OW72729   3.306   1.332   5.249
23611SOL    HW172730   3.285   1.275   5.324
23611SOL    HW272731   3.259   1.292   5.175
23612SOL     OW72732   4.286   1.600   1.127
23612SOL    HW172733   4.268   1.638   1.213
23612SOL    HW272734   4.318   1.674   1.075
23613SOL     OW72735   9.615   1.651   9.604
23613SOL    HW172736   9.692   1.635   9.550
23613SOL    HW272737   9.599   1.746   9.596
23614SOL     OW72738  13.570   5.397   8.461
23614SOL    HW172739  13.652   5.359   8.430
23614SOL    HW272740  13.564   5.482   8.419
23615SOL     OW72741   2.138  14.794  10.842
23615SOL    HW172742   2.231  14.810  10.853
23615SOL    HW272743   2.119  14.821  10.753
23616SOL     OW72744  11.195   1.296   1.020
23616SOL    HW172745  11.232   1.335   0.941
23616SOL    HW272746  11.113   1.255   0.991
23617SOL     OW72747  12.174   5.633   7.184
23617SOL    HW172748  12.237   5.565   7.208
23617SOL    HW272749  12.102   5.585   7.143
23618SOL     OW72750   2.956   4.031   2.878
23618SOL    HW172751   2.990   4.111   2.838
23618SOL    HW272752   2.927   4.059   2.965
23619SOL     OW72753   4.193   6.745   2.780
23619SOL    HW172754   4.271   6.799   2.789
23619SOL    HW272755   4.145   6.784   2.707
23620SOL     OW72756   5.826   7.324   5.260
23620SOL    HW172757   5.828   7.269   5.338
23620SOL    HW272758   5.912   7.311   5.219
23621SOL     OW72759  10.735   6.913   5.068
23621SOL    HW172760  10.697   6.999   5.086
23621SOL    HW272761  10.768   6.919   4.978
23622SOL     OW72762   0.167   9.728   6.582
23622SOL    HW172763   0.166   9.659   6.648
23622SOL    HW272764   0.135   9.686   6.502
23623SOL     OW72765   6.705  12.625   6.063
23623SOL    HW172766   6.669  12.616   5.975
23623SOL    HW272767   6.760  12.703   6.059
23624SOL     OW72768   5.353   0.900   6.038
23624SOL    HW172769   5.377   0.897   5.945
23624SOL    HW272770   5.418   0.959   6.077
23625SOL     OW72771   9.422  10.112   1.486
23625SOL    HW172772   9.366  10.035   1.501
23625SOL    HW272773   9.377  10.183   1.531
23626SOL     OW72774   9.606   6.047  12.944
23626SOL    HW172775   9.543   5.986  12.906
23626SOL    HW272776   9.670   6.063  12.875
23627SOL     OW72777  13.634   9.386   2.752
23627SOL    HW172778  13.645   9.481   2.745
23627SOL    HW272779  13.668   9.351   2.670
23628SOL     OW72780   2.950  11.905   5.420
23628SOL    HW172781   2.915  11.986   5.454
23628SOL    HW272782   2.985  11.928   5.334
23629SOL     OW72783   7.409  14.179  11.848
23629SOL    HW172784   7.388  14.251  11.907
23629SOL    HW272785   7.495  14.148  11.877
23630SOL     OW72786   4.737  10.812   3.378
23630SOL    HW172787   4.823  10.835   3.344
23630SOL    HW272788   4.751  10.802   3.472
23631SOL     OW72789   4.075   4.631   3.078
23631SOL    HW172790   3.980   4.618   3.072
23631SOL    HW272791   4.111   4.578   3.008
23632SOL     OW72792   0.035  11.077  11.011
23632SOL    HW172793   0.095  11.148  10.987
23632SOL    HW272794   0.015  11.092  11.104
23633SOL     OW72795  13.212  10.697  13.256
23633SOL    HW172796  13.261  10.727  13.333
23633SOL    HW272797  13.182  10.609  13.280
23634SOL     OW72798  13.634   0.583  13.864
23634SOL    HW172799  13.575   0.653  13.839
23634SOL    HW272800  13.643   0.591  13.959
23635SOL     OW72801   6.084   0.748   1.478
23635SOL    HW172802   6.160   0.744   1.421
23635SOL    HW272803   6.025   0.811   1.435
23636SOL     OW72804   2.202   8.897   8.828
23636SOL    HW172805   2.198   8.916   8.734
23636SOL    HW272806   2.293   8.913   8.852
23637SOL     OW72807  10.250   0.862   2.443
23637SOL    HW172808  10.292   0.916   2.510
23637SOL    HW272809  10.323   0.832   2.388
23638SOL     OW72810   8.048   6.690   0.335
23638SOL    HW172811   7.998   6.739   0.270
23638SOL    HW272812   7.983   6.635   0.379
23639SOL     OW72813   3.370  14.648  14.310
23639SOL    HW172814   3.279  14.617  14.301
23639SOL    HW272815   3.423  14.576  14.277
23640SOL     OW72816   0.760   1.043   2.448
23640SOL    HW172817   0.824   0.972   2.439
23640SOL    HW272818   0.714   1.044   2.364
23641SOL     OW72819   3.373  10.370   9.882
23641SOL    HW172820   3.436  10.440   9.870
23641SOL    HW272821   3.415  10.311   9.945
23642SOL     OW72822  13.720   3.198   5.944
23642SOL    HW172823  13.651   3.264   5.947
23642SOL    HW272824  13.789   3.233   6.000
23643SOL     OW72825   5.844   1.533   0.384
23643SOL    HW172826   5.752   1.515   0.366
23643SOL    HW272827   5.848   1.553   0.477
23644SOL     OW72828   7.680   2.411   0.563
23644SOL    HW172829   7.648   2.332   0.606
23644SOL    HW272830   7.695   2.385   0.472
23645SOL     OW72831  12.690   9.331   2.152
23645SOL    HW172832  12.667   9.411   2.105
23645SOL    HW272833  12.645   9.338   2.236
23646SOL     OW72834   6.955   4.850  14.493
23646SOL    HW172835   6.969   4.936  14.454
23646SOL    HW272836   7.005   4.790  14.437
23647SOL     OW72837  12.845  11.846   9.285
23647SOL    HW172838  12.867  11.759   9.251
23647SOL    HW272839  12.886  11.850   9.371
23648SOL     OW72840  10.084  12.227  14.154
23648SOL    HW172841  10.041  12.174  14.221
23648SOL    HW272842  10.062  12.184  14.071
23649SOL     OW72843   1.314  13.538  13.679
23649SOL    HW172844   1.336  13.471  13.743
23649SOL    HW272845   1.332  13.497  13.594
23650SOL     OW72846   6.399  10.095   6.042
23650SOL    HW172847   6.481  10.143   6.041
23650SOL    HW272848   6.404  10.040   6.120
23651SOL     OW72849   8.269   6.098   5.732
23651SOL    HW172850   8.312   6.021   5.769
23651SOL    HW272851   8.179   6.094   5.765
23652SOL     OW72852   8.987   4.431   6.565
23652SOL    HW172853   9.078   4.415   6.541
23652SOL    HW272854   8.987   4.428   6.661
23653SOL     OW72855   8.977   0.516   9.168
23653SOL    HW172856   8.915   0.577   9.209
23653SOL    HW272857   9.032   0.487   9.241
23654SOL     OW72858  11.386  13.201   7.178
23654SOL    HW172859  11.374  13.128   7.239
23654SOL    HW272860  11.317  13.263   7.200
23655SOL     OW72861   4.517   6.976  12.220
23655SOL    HW172862   4.528   6.895  12.271
23655SOL    HW272863   4.566   7.041  12.269
23656SOL     OW72864   1.803  13.561   8.943
23656SOL    HW172865   1.725  13.563   8.886
23656SOL    HW272866   1.771  13.589   9.028
23657SOL     OW72867   4.545  13.108   2.783
23657SOL    HW172868   4.566  13.015   2.790
23657SOL    HW272869   4.456  13.109   2.747
23658SOL     OW72870  14.099   2.640   0.934
23658SOL    HW172871  14.037   2.575   0.967
23658SOL    HW272872  14.074   2.653   0.843
23659SOL     OW72873  10.480   6.025  13.469
23659SOL    HW172874  10.407   6.012  13.530
23659SOL    HW272875  10.469   5.957  13.403
23660SOL     OW72876   7.760   7.324  10.049
23660SOL    HW172877   7.697   7.295   9.983
23660SOL    HW272878   7.709   7.377  10.110
23661SOL     OW72879  12.491  13.892  11.996
23661SOL    HW172880  12.489  13.871  11.902
23661SOL    HW272881  12.411  13.854  12.031
23662SOL     OW72882   9.787  12.249   9.781
23662SOL    HW172883   9.868  12.249   9.831
23662SOL    HW272884   9.721  12.215   9.842
23663SOL     OW72885   1.084  13.177   1.072
23663SOL    HW172886   1.123  13.125   1.143
23663SOL    HW272887   1.140  13.254   1.065
23664SOL     OW72888  11.970  14.679  10.371
23664SOL    HW172889  12.020  14.676  10.453
23664SOL    HW272890  12.025  14.729  10.312
23665SOL     OW72891   6.778   6.246  13.217
23665SOL    HW172892   6.846   6.304  13.250
23665SOL    HW272893   6.824   6.165  13.195
23666SOL     OW72894  10.482  12.919   8.025
23666SOL    HW172895  10.546  12.963   8.081
23666SOL    HW272896  10.527  12.841   7.993
23667SOL     OW72897  13.083   5.527  13.852
23667SOL    HW172898  13.089   5.529  13.756
23667SOL    HW272899  13.157   5.472  13.879
23668SOL     OW72900  13.196  12.196   7.830
23668SOL    HW172901  13.238  12.205   7.916
23668SOL    HW272902  13.221  12.275   7.783
23669SOL     OW72903   7.657  11.734  11.361
23669SOL    HW172904   7.738  11.755  11.313
23669SOL    HW272905   7.600  11.808  11.343
23670SOL     OW72906   8.475   8.144   1.200
23670SOL    HW172907   8.425   8.224   1.213
23670SOL    HW272908   8.442   8.108   1.117
23671SOL     OW72909   8.194  10.604   2.039
23671SOL    HW172910   8.127  10.559   2.089
23671SOL    HW272911   8.158  10.612   1.951
23672SOL     OW72912   8.992   8.926   0.508
23672SOL    HW172913   8.947   8.843   0.491
23672SOL    HW272914   9.000   8.930   0.603
23673SOL     OW72915   8.390   6.423  12.430
23673SOL    HW172916   8.341   6.460  12.503
23673SOL    HW272917   8.327   6.365  12.385
23674SOL     OW72918   5.552  12.247  11.300
23674SOL    HW172919   5.483  12.214  11.357
23674SOL    HW272920   5.537  12.205  11.216
23675SOL     OW72921   3.971   9.829  12.739
23675SOL    HW172922   3.991   9.754  12.682
23675SOL    HW272923   3.892   9.802  12.786
23676SOL     OW72924   7.176   4.951   6.736
23676SOL    HW172925   7.265   4.937   6.769
23676SOL    HW272926   7.123   4.885   6.781
23677SOL     OW72927  11.305   2.948   2.921
23677SOL    HW172928  11.253   2.872   2.946
23677SOL    HW272929  11.243   3.007   2.880
23678SOL     OW72930   9.411   1.228  11.643
23678SOL    HW172931   9.427   1.188  11.557
23678SOL    HW272932   9.366   1.160  11.693
23679SOL     OW72933   1.502   9.535  12.540
23679SOL    HW172934   1.519   9.627  12.559
23679SOL    HW272935   1.423   9.514  12.590
23680SOL     OW72936   3.689  13.161  11.425
23680SOL    HW172937   3.627  13.101  11.382
23680SOL    HW272938   3.726  13.212  11.353
23681SOL     OW72939   0.287   5.900  10.678
23681SOL    HW172940   0.298   5.962  10.751
23681SOL    HW272941   0.375   5.884  10.646
23682SOL     OW72942   2.379   8.907   3.329
23682SOL    HW172943   2.415   8.861   3.404
23682SOL    HW272944   2.445   8.896   3.260
23683SOL     OW72945   0.153  14.273   3.086
23683SOL    HW172946   0.099  14.350   3.104
23683SOL    HW272947   0.158  14.226   3.170
23684SOL     OW72948   7.030  14.596   5.797
23684SOL    HW172949   7.056  14.523   5.741
23684SOL    HW272950   7.112  14.625   5.838
23685SOL     OW72951   0.745   2.807   3.509
23685SOL    HW172952   0.708   2.831   3.594
23685SOL    HW272953   0.687   2.845   3.444
23686SOL     OW72954   4.749   4.425   4.315
23686SOL    HW172955   4.740   4.350   4.256
23686SOL    HW272956   4.698   4.494   4.273
23687SOL     OW72957   2.441   3.728   8.177
23687SOL    HW172958   2.398   3.670   8.241
23687SOL    HW272959   2.426   3.685   8.092
23688SOL     OW72960  12.238   4.027   6.342
23688SOL    HW172961  12.151   4.052   6.311
23688SOL    HW272962  12.290   4.107   6.333
23689SOL     OW72963   1.950  11.600   5.574
23689SOL    HW172964   1.989  11.628   5.657
23689SOL    HW272965   1.897  11.523   5.597
23690SOL     OW72966   8.362   7.739   3.269
23690SOL    HW172967   8.286   7.724   3.325
23690SOL    HW272968   8.326   7.743   3.180
23691SOL     OW72969   0.760  13.062  11.258
23691SOL    HW172970   0.759  13.150  11.294
23691SOL    HW272971   0.693  13.063  11.190
23692SOL     OW72972   7.902   0.340   0.237
23692SOL    HW172973   7.924   0.278   0.307
23692SOL    HW272974   7.807   0.348   0.242
23693SOL     OW72975   0.875   3.750   6.292
23693SOL    HW172976   0.900   3.664   6.326
23693SOL    HW272977   0.916   3.813   6.351
23694SOL     OW72978   8.050   5.833   2.831
23694SOL    HW172979   7.994   5.910   2.843
23694SOL    HW272980   8.137   5.869   2.815
23695SOL     OW72981   0.389   0.934   5.549
23695SOL    HW172982   0.458   0.896   5.495
23695SOL    HW272983   0.435   0.990   5.611
23696SOL     OW72984   9.979   5.756   4.339
23696SOL    HW172985   9.981   5.693   4.411
23696SOL    HW272986   9.976   5.841   4.382
23697SOL     OW72987   2.976   7.934   7.148
23697SOL    HW172988   3.017   7.899   7.228
23697SOL    HW272989   3.042   7.993   7.112
23698SOL     OW72990   3.164   7.145   6.669
23698SOL    HW172991   3.167   7.148   6.765
23698SOL    HW272992   3.071   7.149   6.648
23699SOL     OW72993   5.567   9.422   3.234
23699SOL    HW172994   5.620   9.382   3.164
23699SOL    HW272995   5.499   9.470   3.187
23700SOL     OW72996   9.922   7.600  12.502
23700SOL    HW172997   9.935   7.618  12.595
23700SOL    HW272998   9.834   7.563  12.496
23701SOL     OW72999   9.917  10.282   5.564
23701SOL    HW173000   9.835  10.233   5.558
23701SOL    HW273001   9.980  10.229   5.516
23702SOL     OW73002  12.704  10.874  13.093
23702SOL    HW173003  12.728  10.878  13.185
23702SOL    HW273004  12.611  10.853  13.093
23703SOL     OW73005   8.756  13.293   6.373
23703SOL    HW173006   8.706  13.370   6.402
23703SOL    HW273007   8.701  13.218   6.396
23704SOL     OW73008   3.370   3.896  10.966
23704SOL    HW173009   3.448   3.923  11.014
23704SOL    HW273010   3.404   3.847  10.891
23705SOL     OW73011   8.298   5.231   2.657
23705SOL    HW173012   8.354   5.305   2.635
23705SOL    HW273013   8.257   5.257   2.740
23706SOL     OW73014  10.046   5.802   2.278
23706SOL    HW173015   9.956   5.829   2.294
23706SOL    HW273016  10.088   5.880   2.241
23707SOL     OW73017   3.488   9.944   8.735
23707SOL    HW173018   3.402   9.960   8.774
23707SOL    HW273019   3.490   9.850   8.719
23708SOL     OW73020   4.887   6.652   6.555
23708SOL    HW173021   4.954   6.589   6.581
23708SOL    HW273022   4.820   6.598   6.512
23709SOL     OW73023   2.858   5.679   7.660
23709SOL    HW173024   2.880   5.766   7.693
23709SOL    HW273025   2.842   5.627   7.739
23710SOL     OW73026   9.569   5.685  12.455
23710SOL    HW173027   9.574   5.671  12.360
23710SOL    HW273028   9.616   5.767  12.469
23711SOL     OW73029   0.681   4.401   9.466
23711SOL    HW173030   0.674   4.345   9.543
23711SOL    HW273031   0.609   4.463   9.475
23712SOL     OW73032   0.308   5.974   8.304
23712SOL    HW173033   0.346   5.891   8.274
23712SOL    HW273034   0.231   5.986   8.249
23713SOL     OW73035  14.494   7.454   5.402
23713SOL    HW173036  14.512   7.459   5.496
23713SOL    HW273037  14.567   7.500   5.361
23714SOL     OW73038   5.496  13.526   0.812
23714SOL    HW173039   5.520  13.437   0.837
23714SOL    HW273040   5.567  13.556   0.755
23715SOL     OW73041   6.538   4.249   9.288
23715SOL    HW173042   6.568   4.167   9.249
23715SOL    HW273043   6.582   4.317   9.238
23716SOL     OW73044   9.454  13.522   3.143
23716SOL    HW173045   9.373  13.514   3.194
23716SOL    HW273046   9.430  13.578   3.069
23717SOL     OW73047   1.997   9.886   3.102
23717SOL    HW173048   1.939   9.919   3.035
23717SOL    HW273049   1.963   9.798   3.122
23718SOL     OW73050   3.286   0.918   5.658
23718SOL    HW173051   3.325   0.839   5.620
23718SOL    HW273052   3.301   0.909   5.752
23719SOL     OW73053  12.589   3.525   4.166
23719SOL    HW173054  12.599   3.545   4.073
23719SOL    HW273055  12.669   3.558   4.207
23720SOL     OW73056  14.121   5.725   3.619
23720SOL    HW173057  14.194   5.710   3.678
23720SOL    HW273058  14.096   5.816   3.633
23721SOL     OW73059   9.342   8.111   7.008
23721SOL    HW173060   9.249   8.095   7.024
23721SOL    HW273061   9.345   8.193   6.958
23722SOL     OW73062  11.712  10.227  10.145
23722SOL    HW173063  11.642  10.240  10.082
23722SOL    HW273064  11.674  10.172  10.214
23723SOL     OW73065   6.237  10.910   4.739
23723SOL    HW173066   6.196  10.823   4.742
23723SOL    HW273067   6.174  10.964   4.692
23724SOL     OW73068  10.516   9.719   5.199
23724SOL    HW173069  10.527   9.730   5.104
23724SOL    HW273070  10.549   9.631   5.216
23725SOL     OW73071  13.949  10.708   8.514
23725SOL    HW173072  13.912  10.790   8.547
23725SOL    HW273073  13.872  10.654   8.493
23726SOL     OW73074   7.857   0.365   7.136
23726SOL    HW173075   7.842   0.384   7.229
23726SOL    HW273076   7.786   0.307   7.111
23727SOL     OW73077   9.198   9.433   9.749
23727SOL    HW173078   9.105   9.456   9.745
23727SOL    HW273079   9.244   9.517   9.748
23728SOL     OW73080   9.540   3.644  13.434
23728SOL    HW173081   9.606   3.700  13.394
23728SOL    HW273082   9.458   3.667  13.390
23729SOL     OW73083  14.720   7.686   0.590
23729SOL    HW173084  14.797   7.708   0.539
23729SOL    HW273085  14.754   7.663   0.677
23730SOL     OW73086   2.427   5.080   2.424
23730SOL    HW173087   2.451   5.155   2.479
23730SOL    HW273088   2.495   5.015   2.440
23731SOL     OW73089   8.950   0.534   6.463
23731SOL    HW173090   8.993   0.459   6.504
23731SOL    HW273091   8.962   0.520   6.370
23732SOL     OW73092  10.868   7.240   5.355
23732SOL    HW173093  10.775   7.224   5.370
23732SOL    HW273094  10.885   7.323   5.400
23733SOL     OW73095   6.241   6.288  11.542
23733SOL    HW173096   6.250   6.219  11.476
23733SOL    HW273097   6.282   6.365  11.502
23734SOL     OW73098   4.908  14.140  10.996
23734SOL    HW173099   4.959  14.097  10.926
23734SOL    HW273100   4.895  14.071  11.061
23735SOL     OW73101   2.123   0.685   4.453
23735SOL    HW173102   2.036   0.653   4.430
23735SOL    HW273103   2.149   0.739   4.378
23736SOL     OW73104  13.896   1.016   1.199
23736SOL    HW173105  13.820   0.972   1.236
23736SOL    HW273106  13.859   1.079   1.136
23737SOL     OW73107   1.943   2.912   6.663
23737SOL    HW173108   1.895   2.953   6.735
23737SOL    HW273109   1.875   2.878   6.605
23738SOL     OW73110  14.454   6.620  13.452
23738SOL    HW173111  14.358   6.622  13.447
23738SOL    HW273112  14.482   6.612  13.361
23739SOL     OW73113  11.924   2.126   9.671
23739SOL    HW173114  11.947   2.054   9.730
23739SOL    HW273115  11.982   2.197   9.697
23740SOL     OW73116  11.640   2.456  14.175
23740SOL    HW173117  11.608   2.412  14.254
23740SOL    HW273118  11.720   2.409  14.152
23741SOL     OW73119  13.225   8.403  13.669
23741SOL    HW173120  13.294   8.419  13.605
23741SOL    HW273121  13.264   8.427  13.753
23742SOL     OW73122  10.940   7.468   9.000
23742SOL    HW173123  10.957   7.374   8.988
23742SOL    HW273124  11.022   7.502   9.036
23743SOL     OW73125   7.407   6.746  11.893
23743SOL    HW173126   7.333   6.785  11.846
23743SOL    HW273127   7.475   6.814  11.892
23744SOL     OW73128   5.644   4.587   0.954
23744SOL    HW173129   5.663   4.546   0.869
23744SOL    HW273130   5.731   4.599   0.993
23745SOL     OW73131   5.572  10.707   0.585
23745SOL    HW173132   5.575  10.660   0.501
23745SOL    HW273133   5.556  10.638   0.650
23746SOL     OW73134  13.600   5.553   7.189
23746SOL    HW173135  13.548   5.504   7.125
23746SOL    HW273136  13.547   5.630   7.210
23747SOL     OW73137   0.068  11.630  12.100
23747SOL    HW173138   0.016  11.572  12.043
23747SOL    HW273139   0.119  11.570  12.154
23748SOL     OW73140   3.392   0.322   6.134
23748SOL    HW173141   3.361   0.413   6.142
23748SOL    HW273142   3.457   0.313   6.204
23749SOL     OW73143   6.546  14.308   5.602
23749SOL    HW173144   6.600  14.308   5.680
23749SOL    HW273145   6.538  14.216   5.577
23750SOL     OW73146   7.088   1.497  14.731
23750SOL    HW173147   7.100   1.590  14.714
23750SOL    HW273148   7.166   1.471  14.781
23751SOL     OW73149   6.852   0.045   4.460
23751SOL    HW173150   6.917   0.114   4.444
23751SOL    HW273151   6.815   0.067   4.546
23752SOL     OW73152   0.285  14.478   6.420
23752SOL    HW173153   0.377  14.453   6.432
23752SOL    HW273154   0.266  14.533   6.496
23753SOL     OW73155   6.290   8.044  13.885
23753SOL    HW173156   6.199   8.071  13.897
23753SOL    HW273157   6.285   7.965  13.832
23754SOL     OW73158   7.976   1.046   2.325
23754SOL    HW173159   7.963   0.952   2.312
23754SOL    HW273160   7.904   1.087   2.277
23755SOL     OW73161   6.208   5.480  11.665
23755SOL    HW173162   6.218   5.385  11.675
23755SOL    HW273163   6.119   5.498  11.695
23756SOL     OW73164   3.998  12.289  12.772
23756SOL    HW173165   4.066  12.260  12.712
23756SOL    HW273166   4.019  12.247  12.856
23757SOL     OW73167   8.300   6.004   7.575
23757SOL    HW173168   8.366   6.055   7.529
23757SOL    HW273169   8.333   5.998   7.665
23758SOL     OW73170  13.924  11.323   8.448
23758SOL    HW173171  14.009  11.365   8.449
23758SOL    HW273172  13.887  11.339   8.535
23759SOL     OW73173   7.841   4.688   4.263
23759SOL    HW173174   7.888   4.679   4.180
23759SOL    HW273175   7.750   4.666   4.241
23760SOL     OW73176   8.264  10.813   2.222
23760SOL    HW173177   8.359  10.803   2.215
23760SOL    HW273178   8.229  10.733   2.183
23761SOL     OW73179   7.797  13.092  11.242
23761SOL    HW173180   7.846  13.011  11.229
23761SOL    HW273181   7.809  13.113  11.334
23762SOL     OW73182  10.579   3.352   8.989
23762SOL    HW173183  10.532   3.350   8.905
23762SOL    HW273184  10.526   3.410   9.044
23763SOL     OW73185   2.378  10.763   4.093
23763SOL    HW173186   2.387  10.854   4.066
23763SOL    HW273187   2.426  10.758   4.175
23764SOL     OW73188   0.244  13.871  10.838
23764SOL    HW173189   0.247  13.849  10.931
23764SOL    HW273190   0.334  13.857  10.807
23765SOL     OW73191   9.409  14.179   1.436
23765SOL    HW173192   9.401  14.147   1.347
23765SOL    HW273193   9.369  14.111   1.490
23766SOL     OW73194  13.582   4.783   9.249
23766SOL    HW173195  13.575   4.763   9.156
23766SOL    HW273196  13.548   4.873   9.256
23767SOL     OW73197   1.281   9.189  10.456
23767SOL    HW173198   1.236   9.105  10.458
23767SOL    HW273199   1.368   9.171  10.491
23768SOL     OW73200  10.878   0.693   2.511
23768SOL    HW173201  10.793   0.736   2.505
23768SOL    HW273202  10.880   0.634   2.436
23769SOL     OW73203   9.883  11.917  14.088
23769SOL    HW173204   9.865  11.841  14.032
23769SOL    HW273205   9.857  11.993  14.036
23770SOL     OW73206   0.881   9.110  13.360
23770SOL    HW173207   0.896   9.195  13.318
23770SOL    HW273208   0.846   9.131  13.446
23771SOL     OW73209   1.711   9.691   9.682
23771SOL    HW173210   1.775   9.761   9.667
23771SOL    HW273211   1.627   9.728   9.652
23772SOL     OW73212   1.034   8.629  13.920
23772SOL    HW173213   1.031   8.533  13.921
23772SOL    HW273214   1.125   8.650  13.897
23773SOL     OW73215  10.581   8.469  10.343
23773SOL    HW173216  10.585   8.375  10.323
23773SOL    HW273217  10.638   8.510  10.279
23774SOL     OW73218  12.493   3.521   0.424
23774SOL    HW173219  12.439   3.455   0.381
23774SOL    HW273220  12.504   3.590   0.358
23775SOL     OW73221   0.300  13.218   8.552
23775SOL    HW173222   0.288  13.281   8.480
23775SOL    HW273223   0.250  13.141   8.524
23776SOL     OW73224   2.536   7.293   4.607
23776SOL    HW173225   2.545   7.202   4.633
23776SOL    HW273226   2.603   7.340   4.657
23777SOL     OW73227  11.506   4.534   0.920
23777SOL    HW173228  11.560   4.574   0.852
23777SOL    HW273229  11.431   4.497   0.873
23778SOL     OW73230   4.723   0.552   1.944
23778SOL    HW173231   4.760   0.565   1.857
23778SOL    HW273232   4.698   0.460   1.947
23779SOL     OW73233   3.687   8.487   6.502
23779SOL    HW173234   3.723   8.444   6.425
23779SOL    HW273235   3.727   8.574   6.503
23780SOL     OW73236  10.010   1.775  14.184
23780SOL    HW173237   9.956   1.789  14.106
23780SOL    HW273238  10.008   1.859  14.230
23781SOL     OW73239   3.321   0.068  11.633
23781SOL    HW173240   3.344   0.051  11.725
23781SOL    HW273241   3.399   0.042  11.584
23782SOL     OW73242  13.097   3.974  14.801
23782SOL    HW173243  13.185   4.004  14.779
23782SOL    HW273244  13.043   4.053  14.803
23783SOL     OW73245   9.269   9.616   4.233
23783SOL    HW173246   9.237   9.554   4.168
23783SOL    HW273247   9.207   9.689   4.230
23784SOL     OW73248   2.165  12.354   1.326
23784SOL    HW173249   2.234  12.420   1.315
23784SOL    HW273250   2.212  12.272   1.335
23785SOL     OW73251   0.007   6.542   1.225
23785SOL    HW173252  14.838   6.614   1.272
23785SOL    HW273253  14.832   6.537   1.142
23786SOL     OW73254   0.467   9.749   0.408
23786SOL    HW173255   0.464   9.828   0.355
23786SOL    HW273256   0.559   9.738   0.431
23787SOL     OW73257   5.184   7.355   2.224
23787SOL    HW173258   5.221   7.304   2.297
23787SOL    HW273259   5.092   7.366   2.247
23788SOL     OW73260   8.955  12.203  14.668
23788SOL    HW173261   8.928  12.224  14.579
23788SOL    HW273262   8.937  12.109  14.677
23789SOL     OW73263   4.207   8.649  13.965
23789SOL    HW173264   4.222   8.635  13.871
23789SOL    HW273265   4.189   8.743  13.973
23790SOL     OW73266  14.628   7.186  13.547
23790SOL    HW173267  14.710   7.174  13.499
23790SOL    HW273268  14.644   7.142  13.631
23791SOL     OW73269   9.302  13.307   7.247
23791SOL    HW173270   9.347  13.255   7.313
23791SOL    HW273271   9.213  13.318   7.280
23792SOL     OW73272   3.035   5.842   5.085
23792SOL    HW173273   3.084   5.916   5.049
23792SOL    HW273274   3.081   5.765   5.052
23793SOL     OW73275   4.204   2.579   5.696
23793SOL    HW173276   4.205   2.486   5.719
23793SOL    HW273277   4.285   2.614   5.732
23794SOL     OW73278   4.157  14.848  11.977
23794SOL    HW173279   4.095  14.833  11.905
23794SOL    HW273280   4.107  14.831  12.056
23795SOL     OW73281   9.447   0.783  12.935
23795SOL    HW173282   9.461   0.874  12.910
23795SOL    HW273283   9.490   0.774  13.020
23796SOL     OW73284  10.601   9.904   8.690
23796SOL    HW173285  10.569   9.946   8.770
23796SOL    HW273286  10.577   9.966   8.620
23797SOL     OW73287   4.679  12.996  10.416
23797SOL    HW173288   4.645  12.907  10.421
23797SOL    HW273289   4.640  13.032  10.337
23798SOL     OW73290  13.447   5.587  11.107
23798SOL    HW173291  13.389   5.661  11.090
23798SOL    HW273292  13.439   5.531  11.029
23799SOL     OW73293   1.158  10.858  11.932
23799SOL    HW173294   1.195  10.913  11.863
23799SOL    HW273295   1.233  10.816  11.973
23800SOL     OW73296  13.369   8.416   4.711
23800SOL    HW173297  13.295   8.359   4.692
23800SOL    HW273298  13.387   8.461   4.628
23801SOL     OW73299  10.443  12.361   1.288
23801SOL    HW173300  10.501  12.426   1.328
23801SOL    HW273301  10.355  12.390   1.311
23802SOL     OW73302   9.234   2.257   4.307
23802SOL    HW173303   9.238   2.162   4.304
23802SOL    HW273304   9.325   2.285   4.304
23803SOL     OW73305   3.907  12.858  13.856
23803SOL    HW173306   3.918  12.785  13.917
23803SOL    HW273307   3.858  12.821  13.783
23804SOL     OW73308   8.069  10.146  10.208
23804SOL    HW173309   8.066  10.240  10.189
23804SOL    HW273310   8.162  10.125  10.211
23805SOL     OW73311   5.944   5.774  13.915
23805SOL    HW173312   5.905   5.703  13.966
23805SOL    HW273313   6.025   5.796  13.962
23806SOL     OW73314   7.450   1.147  11.819
23806SOL    HW173315   7.458   1.227  11.768
23806SOL    HW273316   7.510   1.085  11.777
23807SOL     OW73317   9.402  10.815   8.724
23807SOL    HW173318   9.461  10.751   8.685
23807SOL    HW273319   9.365  10.770   8.800
23808SOL     OW73320  11.186   0.089  12.104
23808SOL    HW173321  11.221   0.102  12.192
23808SOL    HW273322  11.143   0.172  12.083
23809SOL     OW73323   6.711   8.172  12.555
23809SOL    HW173324   6.746   8.226  12.484
23809SOL    HW273325   6.718   8.229  12.632
23810SOL     OW73326  12.272   4.454   5.855
23810SOL    HW173327  12.256   4.367   5.892
23810SOL    HW273328  12.228   4.453   5.770
23811SOL     OW73329   8.462  13.411   9.729
23811SOL    HW173330   8.411  13.437   9.652
23811SOL    HW273331   8.400  13.414   9.802
23812SOL     OW73332   5.242   9.595   1.289
23812SOL    HW173333   5.195   9.519   1.323
23812SOL    HW273334   5.332   9.583   1.318
23813SOL     OW73335  10.447   3.810   4.685
23813SOL    HW173336  10.513   3.792   4.618
23813SOL    HW273337  10.377   3.856   4.639
23814SOL     OW73338   0.466   2.609   6.692
23814SOL    HW173339   0.381   2.647   6.715
23814SOL    HW273340   0.498   2.570   6.773
23815SOL     OW73341   9.119   1.379   6.433
23815SOL    HW173342   9.049   1.375   6.367
23815SOL    HW273343   9.199   1.393   6.382
23816SOL     OW73344   4.578   7.674   8.903
23816SOL    HW173345   4.531   7.611   8.850
23816SOL    HW273346   4.510   7.728   8.943
23817SOL     OW73347  14.237   5.623  10.462
23817SOL    HW173348  14.229   5.529  10.477
23817SOL    HW273349  14.196   5.637  10.377
23818SOL     OW73350   0.937  13.391   7.335
23818SOL    HW173351   0.903  13.389   7.425
23818SOL    HW273352   0.873  13.443   7.287
23819SOL     OW73353   5.753   7.323   0.310
23819SOL    HW173354   5.815   7.297   0.379
23819SOL    HW273355   5.728   7.412   0.333
23820SOL     OW73356   5.077   9.341   5.332
23820SOL    HW173357   4.986   9.328   5.304
23820SOL    HW273358   5.108   9.414   5.279
23821SOL     OW73359   0.983  14.022  14.858
23821SOL    HW173360   1.033  14.068  14.791
23821SOL    HW273361   0.900  14.069  14.862
23822SOL     OW73362   6.153  13.920   4.798
23822SOL    HW173363   6.219  13.855   4.771
23822SOL    HW273364   6.163  13.992   4.736
23823SOL     OW73365  10.944   2.082   8.250
23823SOL    HW173366  10.962   2.161   8.200
23823SOL    HW273367  10.920   2.113   8.337
23824SOL     OW73368  13.053   3.613  14.623
23824SOL    HW173369  13.039   3.638  14.714
23824SOL    HW273370  13.079   3.521  14.626
23825SOL     OW73371   5.911  12.072   2.056
23825SOL    HW173372   5.926  12.145   1.996
23825SOL    HW273373   5.963  12.093   2.134
23826SOL     OW73374   3.997   5.937   7.660
23826SOL    HW173375   4.057   5.866   7.639
23826SOL    HW273376   3.978   5.977   7.575
23827SOL     OW73377   1.265   5.344  10.637
23827SOL    HW173378   1.219   5.278  10.584
23827SOL    HW273379   1.339   5.296  10.675
23828SOL     OW73380   9.004   4.964  12.734
23828SOL    HW173381   9.068   4.893  12.732
23828SOL    HW273382   9.041   5.027  12.795
23829SOL     OW73383  12.380   4.574  13.813
23829SOL    HW173384  12.324   4.573  13.736
23829SOL    HW273385  12.395   4.667  13.831
23830SOL     OW73386   4.160   4.865   1.453
23830SOL    HW173387   4.107   4.942   1.472
23830SOL    HW273388   4.107   4.791   1.484
23831SOL     OW73389   9.344   9.067   8.130
23831SOL    HW173390   9.417   9.032   8.180
23831SOL    HW273391   9.281   9.096   8.196
23832SOL     OW73392   9.281   0.655   4.085
23832SOL    HW173393   9.364   0.608   4.082
23832SOL    HW273394   9.304   0.746   4.066
23833SOL     OW73395   7.595   4.061  13.135
23833SOL    HW173396   7.626   4.140  13.092
23833SOL    HW273397   7.675   4.020  13.170
23834SOL     OW73398   5.795   7.516  13.594
23834SOL    HW173399   5.819   7.541  13.504
23834SOL    HW273400   5.822   7.425  13.602
23835SOL     OW73401   7.297   7.446  11.339
23835SOL    HW173402   7.262   7.531  11.314
23835SOL    HW273403   7.236   7.413  11.406
23836SOL     OW73404   4.766   0.696   4.592
23836SOL    HW173405   4.674   0.678   4.610
23836SOL    HW273406   4.814   0.630   4.643
23837SOL     OW73407   8.323   2.636   6.145
23837SOL    HW173408   8.384   2.708   6.128
23837SOL    HW273409   8.255   2.674   6.201
23838SOL     OW73410   4.394   5.788   3.145
23838SOL    HW173411   4.411   5.850   3.073
23838SOL    HW273412   4.317   5.823   3.188
23839SOL     OW73413  10.358  10.558  12.213
23839SOL    HW173414  10.409  10.633  12.242
23839SOL    HW273415  10.373  10.491  12.280
23840SOL     OW73416   4.218   4.400   7.446
23840SOL    HW173417   4.157   4.470   7.471
23840SOL    HW273418   4.300   4.423   7.488
23841SOL     OW73419   6.877   5.421  14.153
23841SOL    HW173420   6.959   5.466  14.173
23841SOL    HW273421   6.810   5.488  14.164
23842SOL     OW73422  10.994   8.934   6.179
23842SOL    HW173423  10.945   8.861   6.140
23842SOL    HW273424  11.082   8.925   6.142
23843SOL     OW73425  10.506   6.489   8.029
23843SOL    HW173426  10.597   6.497   8.059
23843SOL    HW273427  10.513   6.454   7.941
23844SOL     OW73428   8.738   7.741   6.538
23844SOL    HW173429   8.789   7.668   6.505
23844SOL    HW273430   8.667   7.751   6.474
23845SOL     OW73431  11.233   1.172  10.721
23845SOL    HW173432  11.246   1.216  10.637
23845SOL    HW273433  11.151   1.209  10.755
23846SOL     OW73434  10.666   3.891   8.432
23846SOL    HW173435  10.737   3.859   8.487
23846SOL    HW273436  10.617   3.812   8.409
23847SOL     OW73437   3.581  11.964   0.988
23847SOL    HW173438   3.569  12.057   0.971
23847SOL    HW273439   3.588  11.957   1.083
23848SOL     OW73440  13.969   9.525   7.060
23848SOL    HW173441  14.033   9.455   7.048
23848SOL    HW273442  13.886   9.479   7.077
23849SOL     OW73443  10.144  14.679   3.714
23849SOL    HW173444  10.148  14.774   3.726
23849SOL    HW273445  10.155  14.667   3.620
23850SOL     OW73446   9.830  14.826   1.481
23850SOL    HW173447   9.838   0.031   1.425
23850SOL    HW273448   9.752  14.781   1.449
23851SOL     OW73449   5.210  11.751   2.239
23851SOL    HW173450   5.249  11.690   2.177
23851SOL    HW273451   5.179  11.696   2.311
23852SOL     OW73452  11.122   7.405   3.742
23852SOL    HW173453  11.079   7.486   3.767
23852SOL    HW273454  11.148   7.419   3.651
23853SOL     OW73455   2.089   2.126   5.139
23853SOL    HW173456   2.077   2.120   5.233
23853SOL    HW273457   2.032   2.058   5.103
23854SOL     OW73458   7.480   5.340  11.317
23854SOL    HW173459   7.519   5.427  11.306
23854SOL    HW273460   7.397   5.345  11.270
23855SOL     OW73461   4.216  11.649   7.768
23855SOL    HW173462   4.211  11.639   7.863
23855SOL    HW273463   4.195  11.562   7.733
23856SOL     OW73464  14.490   8.693  13.497
23856SOL    HW173465  14.464   8.738  13.577
23856SOL    HW273466  14.510   8.603  13.525
23857SOL     OW73467   0.083   8.242  10.694
23857SOL    HW173468  14.871   8.218  10.655
23857SOL    HW273469   0.061   8.306  10.762
23858SOL     OW73470  11.215   9.507   4.615
23858SOL    HW173471  11.262   9.521   4.697
23858SOL    HW273472  11.260   9.562   4.552
23859SOL     OW73473   8.880  13.869  13.424
23859SOL    HW173474   8.860  13.936  13.489
23859SOL    HW273475   8.928  13.917  13.355
23860SOL     OW73476  11.581   8.636   0.308
23860SOL    HW173477  11.503   8.581   0.303
23860SOL    HW273478  11.641   8.587   0.365
23861SOL     OW73479   2.670   4.970  10.857
23861SOL    HW173480   2.740   4.977  10.923
23861SOL    HW273481   2.624   5.054  10.862
23862SOL     OW73482   2.619   5.075   0.059
23862SOL    HW173483   2.625   5.090  14.837
23862SOL    HW273484   2.595   4.983   0.068
23863SOL     OW73485   4.698   2.495   2.335
23863SOL    HW173486   4.612   2.454   2.346
23863SOL    HW273487   4.680   2.577   2.290
23864SOL     OW73488   0.066   6.658  10.613
23864SOL    HW173489   0.027   6.661  10.526
23864SOL    HW273490   0.026   6.731  10.660
23865SOL     OW73491   8.232   6.532   6.565
23865SOL    HW173492   8.175   6.609   6.571
23865SOL    HW273493   8.246   6.506   6.656
23866SOL     OW73494  12.918   0.020   6.178
23866SOL    HW173495  12.914  14.806   6.219
23866SOL    HW273496  13.006   0.052   6.198
23867SOL     OW73497  11.901   1.228   8.816
23867SOL    HW173498  11.927   1.255   8.728
23867SOL    HW273499  11.805   1.237   8.817
23868SOL     OW73500   3.141   1.932   5.011
23868SOL    HW173501   3.177   1.937   4.923
23868SOL    HW273502   3.162   2.016   5.051
23869SOL     OW73503  13.813   8.064   9.625
23869SOL    HW173504  13.905   8.057   9.650
23869SOL    HW273505  13.781   7.974   9.624
23870SOL     OW73506  14.271   4.990   4.166
23870SOL    HW173507  14.289   5.001   4.072
23870SOL    HW273508  14.191   5.040   4.181
23871SOL     OW73509  11.035   8.394   0.699
23871SOL    HW173510  11.028   8.377   0.793
23871SOL    HW273511  11.006   8.313   0.658
23872SOL     OW73512  10.549  12.748  14.452
23872SOL    HW173513  10.573  12.660  14.480
23872SOL    HW273514  10.525  12.793  14.533
23873SOL     OW73515   7.044  14.317  11.187
23873SOL    HW173516   6.981  14.263  11.140
23873SOL    HW273517   7.094  14.255  11.241
23874SOL     OW73518  13.688   4.314   8.184
23874SOL    HW173519  13.758   4.306   8.119
23874SOL    HW273520  13.661   4.224   8.202
23875SOL     OW73521   9.133   9.290   0.703
23875SOL    HW173522   9.195   9.218   0.712
23875SOL    HW273523   9.047   9.248   0.703
23876SOL     OW73524   6.285  12.224  12.501
23876SOL    HW173525   6.228  12.277  12.446
23876SOL    HW273526   6.369  12.224  12.456
23877SOL     OW73527   9.102   9.751   5.906
23877SOL    HW173528   9.119   9.667   5.950
23877SOL    HW273529   9.136   9.738   5.818
23878SOL     OW73530  10.115  10.031   1.613
23878SOL    HW173531  10.137  10.093   1.683
23878SOL    HW273532  10.043  10.072   1.566
23879SOL     OW73533   0.262  12.167  10.584
23879SOL    HW173534   0.327  12.195  10.648
23879SOL    HW273535   0.187  12.139  10.637
23880SOL     OW73536   7.988   1.830  12.351
23880SOL    HW173537   7.935   1.764  12.307
23880SOL    HW273538   8.070   1.784  12.372
23881SOL     OW73539   7.396   9.475  12.897
23881SOL    HW173540   7.463   9.420  12.857
23881SOL    HW273541   7.365   9.531  12.826
23882SOL     OW73542  11.060  11.376   9.197
23882SOL    HW173543  11.014  11.366   9.281
23882SOL    HW273544  11.147  11.410   9.222
23883SOL     OW73545   0.437   0.245  10.590
23883SOL    HW173546   0.465   0.235  10.499
23883SOL    HW273547   0.345   0.221  10.589
23884SOL     OW73548  10.904  13.734  11.627
23884SOL    HW173549  10.908  13.735  11.723
23884SOL    HW273550  10.871  13.821  11.603
23885SOL     OW73551   7.326  11.222   5.774
23885SOL    HW173552   7.411  11.226   5.818
23885SOL    HW273553   7.286  11.142   5.807
23886SOL     OW73554   6.758   9.362   1.390
23886SOL    HW173555   6.760   9.315   1.473
23886SOL    HW273556   6.783   9.297   1.325
23887SOL     OW73557   6.411   5.473  13.398
23887SOL    HW173558   6.422   5.543  13.462
23887SOL    HW273559   6.317   5.458  13.394
23888SOL     OW73560   3.002   0.064  12.092
23888SOL    HW173561   3.074   0.081  12.154
23888SOL    HW273562   3.033  14.863  12.040
23889SOL     OW73563   4.464   7.690   4.438
23889SOL    HW173564   4.459   7.647   4.523
23889SOL    HW273565   4.374   7.688   4.405
23890SOL     OW73566  13.887  10.275   3.251
23890SOL    HW173567  13.830  10.221   3.196
23890SOL    HW273568  13.893  10.227   3.334
23891SOL     OW73569  12.523   8.762  14.450
23891SOL    HW173570  12.474   8.749  14.369
23891SOL    HW273571  12.593   8.696  14.447
23892SOL     OW73572   0.079  14.570   3.170
23892SOL    HW173573   0.076  14.569   3.265
23892SOL    HW273574   0.118  14.655   3.148
23893SOL     OW73575  12.865  13.625   4.054
23893SOL    HW173576  12.936  13.601   3.995
23893SOL    HW273577  12.785  13.608   4.004
23894SOL     OW73578   6.287   5.168   4.014
23894SOL    HW173579   6.321   5.120   4.089
23894SOL    HW273580   6.241   5.102   3.962
23895SOL     OW73581   9.634   8.498   1.287
23895SOL    HW173582   9.628   8.470   1.378
23895SOL    HW273583   9.614   8.591   1.289
23896SOL     OW73584   0.101   0.657   4.448
23896SOL    HW173585   0.143   0.687   4.529
23896SOL    HW273586   0.075   0.567   4.467
23897SOL     OW73587   1.892   5.540   6.414
23897SOL    HW173588   1.838   5.479   6.464
23897SOL    HW273589   1.930   5.486   6.344
23898SOL     OW73590  12.594  11.640   1.696
23898SOL    HW173591  12.590  11.682   1.782
23898SOL    HW273592  12.510  11.595   1.687
23899SOL     OW73593   2.745   2.616   6.116
23899SOL    HW173594   2.833   2.648   6.099
23899SOL    HW273595   2.697   2.693   6.145
23900SOL     OW73596   5.033  13.379  11.353
23900SOL    HW173597   5.113  13.332  11.329
23900SOL    HW273598   4.964  13.312  11.349
23901SOL     OW73599  13.228  11.286  11.446
23901SOL    HW173600  13.223  11.205  11.497
23901SOL    HW273601  13.321  11.306  11.440
23902SOL     OW73602   9.594   2.477   6.020
23902SOL    HW173603   9.524   2.413   6.033
23902SOL    HW273604   9.675   2.427   6.031
23903SOL     OW73605   6.939  10.055   8.154
23903SOL    HW173606   7.002   9.984   8.164
23903SOL    HW273607   6.919  10.083   8.243
23904SOL     OW73608   6.188  10.047   6.739
23904SOL    HW173609   6.190  10.106   6.814
23904SOL    HW273610   6.235   9.969   6.769
23905SOL     OW73611   9.349   8.333   4.804
23905SOL    HW173612   9.274   8.367   4.755
23905SOL    HW273613   9.319   8.248   4.837
23906SOL     OW73614   7.080   7.865  14.080
23906SOL    HW173615   7.144   7.890  14.013
23906SOL    HW273616   7.011   7.821  14.031
23907SOL     OW73617   8.688   6.354   6.456
23907SOL    HW173618   8.650   6.318   6.537
23907SOL    HW273619   8.637   6.433   6.438
23908SOL     OW73620   7.093   1.468   2.457
23908SOL    HW173621   7.084   1.530   2.529
23908SOL    HW273622   7.049   1.389   2.488
23909SOL     OW73623   5.689  14.107   6.704
23909SOL    HW173624   5.713  14.173   6.640
23909SOL    HW273625   5.667  14.156   6.783
23910SOL     OW73626   4.898  12.675   3.139
23910SOL    HW173627   4.805  12.659   3.122
23910SOL    HW273628   4.919  12.617   3.212
23911SOL     OW73629   9.186   4.331  13.380
23911SOL    HW173630   9.125   4.293  13.317
23911SOL    HW273631   9.232   4.399  13.331
23912SOL     OW73632   2.329   2.745   6.320
23912SOL    HW173633   2.270   2.675   6.294
23912SOL    HW273634   2.275   2.805   6.371
23913SOL     OW73635   0.924   3.072   2.289
23913SOL    HW173636   0.896   3.164   2.284
23913SOL    HW273637   0.856   3.024   2.241
23914SOL     OW73638   0.537   7.034   3.789
23914SOL    HW173639   0.481   7.101   3.829
23914SOL    HW273640   0.520   6.955   3.840
23915SOL     OW73641  11.422   4.918   4.769
23915SOL    HW173642  11.471   4.940   4.848
23915SOL    HW273643  11.338   4.885   4.801
23916SOL     OW73644   4.628  10.012   8.378
23916SOL    HW173645   4.625  10.088   8.437
23916SOL    HW273646   4.720   9.986   8.377
23917SOL     OW73647   9.953   9.088   9.405
23917SOL    HW173648   9.896   9.165   9.407
23917SOL    HW273649  10.037   9.122   9.372
23918SOL     OW73650   7.579   1.131  14.294
23918SOL    HW173651   7.608   1.167  14.378
23918SOL    HW273652   7.548   1.207  14.245
23919SOL     OW73653  12.679  14.063   3.646
23919SOL    HW173654  12.587  14.037   3.654
23919SOL    HW273655  12.723  14.015   3.716
23920SOL     OW73656  13.914   5.281  11.465
23920SOL    HW173657  13.941   5.240  11.547
23920SOL    HW273658  13.996   5.293  11.417
23921SOL     OW73659   6.625  14.232   3.673
23921SOL    HW173660   6.609  14.150   3.626
23921SOL    HW273661   6.605  14.211   3.765
23922SOL     OW73662   9.420   6.361   5.935
23922SOL    HW173663   9.410   6.446   5.977
23922SOL    HW273664   9.423   6.380   5.841
23923SOL     OW73665   4.588   8.843   4.113
23923SOL    HW173666   4.525   8.771   4.113
23923SOL    HW273667   4.673   8.801   4.127
23924SOL     OW73668   2.023   8.509  11.277
23924SOL    HW173669   2.096   8.461  11.316
23924SOL    HW273670   2.033   8.493  11.183
23925SOL     OW73671  10.726  12.930  10.461
23925SOL    HW173672  10.801  12.918  10.519
23925SOL    HW273673  10.758  12.987  10.392
23926SOL     OW73674   3.163   4.994  12.264
23926SOL    HW173675   3.157   5.089  12.269
23926SOL    HW273676   3.250   4.974  12.299
23927SOL     OW73677   2.259  11.949   6.490
23927SOL    HW173678   2.334  11.919   6.438
23927SOL    HW273679   2.194  11.972   6.424
23928SOL     OW73680  11.452   3.671  12.289
23928SOL    HW173681  11.476   3.723  12.366
23928SOL    HW273682  11.437   3.583  12.323
23929SOL     OW73683  13.116  11.588   7.991
23929SOL    HW173684  13.045  11.638   8.030
23929SOL    HW273685  13.105  11.600   7.896
23930SOL     OW73686   9.110  13.971   2.874
23930SOL    HW173687   9.033  13.993   2.821
23930SOL    HW273688   9.088  13.888   2.915
23931SOL     OW73689   2.490   5.508   7.220
23931SOL    HW173690   2.477   5.534   7.128
23931SOL    HW273691   2.543   5.429   7.215
23932SOL     OW73692   3.930   3.346   9.458
23932SOL    HW173693   3.996   3.347   9.528
23932SOL    HW273694   3.929   3.435   9.423
23933SOL     OW73695   1.679   7.857  13.305
23933SOL    HW173696   1.633   7.803  13.241
23933SOL    HW273697   1.748   7.900  13.254
23934SOL     OW73698   9.238  13.001   9.595
23934SOL    HW173699   9.246  12.938   9.523
23934SOL    HW273700   9.324  13.041   9.602
23935SOL     OW73701   9.405   2.367   1.072
23935SOL    HW173702   9.489   2.380   1.028
23935SOL    HW273703   9.370   2.456   1.081
23936SOL     OW73704   6.931  12.767  12.618
23936SOL    HW173705   6.838  12.758  12.596
23936SOL    HW273706   6.934  12.838  12.682
23937SOL     OW73707   2.330   1.275  10.920
23937SOL    HW173708   2.245   1.248  10.956
23937SOL    HW273709   2.309   1.340  10.853
23938SOL     OW73710  14.108   8.145  12.667
23938SOL    HW173711  14.165   8.134  12.591
23938SOL    HW273712  14.097   8.056  12.702
23939SOL     OW73713  10.231   8.838  11.723
23939SOL    HW173714  10.317   8.879  11.737
23939SOL    HW273715  10.225   8.828  11.628
23940SOL     OW73716  11.227  11.753   9.828
23940SOL    HW173717  11.232  11.799   9.912
23940SOL    HW273718  11.318  11.734   9.804
23941SOL     OW73719  12.343   8.374  11.025
23941SOL    HW173720  12.263   8.348  10.979
23941SOL    HW273721  12.314   8.399  11.112
23942SOL     OW73722   3.463   9.604   6.395
23942SOL    HW173723   3.455   9.573   6.305
23942SOL    HW273724   3.554   9.632   6.403
23943SOL     OW73725   6.200   7.522   4.677
23943SOL    HW173726   6.260   7.452   4.652
23943SOL    HW273727   6.118   7.477   4.699
23944SOL     OW73728   1.433  10.469   4.336
23944SOL    HW173729   1.399  10.466   4.246
23944SOL    HW273730   1.527  10.450   4.326
23945SOL     OW73731   0.828   9.895   8.845
23945SOL    HW173732   0.825   9.879   8.751
23945SOL    HW273733   0.781   9.821   8.884
23946SOL     OW73734   0.822  11.029   6.952
23946SOL    HW173735   0.851  11.120   6.955
23946SOL    HW273736   0.749  11.030   6.890
23947SOL     OW73737  13.881   0.556  12.858
23947SOL    HW173738  13.844   0.570  12.946
23947SOL    HW273739  13.975   0.555  12.872
23948SOL     OW73740   0.939  13.501   4.750
23948SOL    HW173741   1.005  13.433   4.762
23948SOL    HW273742   0.857  13.453   4.737
23949SOL     OW73743   6.182   8.335   1.367
23949SOL    HW173744   6.179   8.265   1.433
23949SOL    HW273745   6.265   8.321   1.322
23950SOL     OW73746   4.131   7.486  13.534
23950SOL    HW173747   4.072   7.446  13.597
23950SOL    HW273748   4.155   7.569  13.573
23951SOL     OW73749   0.507  13.596   1.623
23951SOL    HW173750   0.567  13.639   1.684
23951SOL    HW273751   0.521  13.502   1.638
23952SOL     OW73752  12.498   2.178   6.970
23952SOL    HW173753  12.558   2.103   6.977
23952SOL    HW273754  12.474   2.198   7.060
23953SOL     OW73755  12.297   6.561   8.441
23953SOL    HW173756  12.376   6.515   8.411
23953SOL    HW273757  12.324   6.602   8.524
23954SOL     OW73758   5.341  13.119   1.685
23954SOL    HW173759   5.292  13.063   1.745
23954SOL    HW273760   5.326  13.081   1.599
23955SOL     OW73761   7.238   2.511   2.009
23955SOL    HW173762   7.226   2.506   1.914
23955SOL    HW273763   7.150   2.512   2.045
23956SOL     OW73764   5.676  14.642  10.574
23956SOL    HW173765   5.768  14.665  10.579
23956SOL    HW273766   5.635  14.691  10.646
23957SOL     OW73767   8.563   9.228  11.846
23957SOL    HW173768   8.481   9.239  11.894
23957SOL    HW273769   8.576   9.133  11.842
23958SOL     OW73770   1.833   3.929   3.596
23958SOL    HW173771   1.878   3.996   3.647
23958SOL    HW273772   1.771   3.890   3.657
23959SOL     OW73773  11.442   5.345   6.651
23959SOL    HW173774  11.420   5.392   6.732
23959SOL    HW273775  11.492   5.269   6.681
23960SOL     OW73776   0.967  11.554   7.726
23960SOL    HW173777   0.910  11.626   7.752
23960SOL    HW273778   1.056  11.590   7.733
23961SOL     OW73779  12.944   7.329  10.282
23961SOL    HW173780  13.011   7.383  10.241
23961SOL    HW273781  12.934   7.254  10.223
23962SOL     OW73782   0.681  11.349  13.008
23962SOL    HW173783   0.680  11.420  13.072
23962SOL    HW273784   0.681  11.269  13.062
23963SOL     OW73785   6.004  10.341   7.459
23963SOL    HW173786   6.001  10.277   7.530
23963SOL    HW273787   6.097  10.356   7.444
23964SOL     OW73788   3.787   3.733   6.080
23964SOL    HW173789   3.787   3.774   6.166
23964SOL    HW273790   3.730   3.787   6.026
23965SOL     OW73791  14.646   1.404   5.404
23965SOL    HW173792  14.664   1.350   5.327
23965SOL    HW273793  14.723   1.460   5.414
23966SOL     OW73794  12.791   5.711   8.945
23966SOL    HW173795  12.743   5.767   8.884
23966SOL    HW273796  12.814   5.633   8.893
23967SOL     OW73797  13.440   1.506  12.589
23967SOL    HW173798  13.381   1.534  12.519
23967SOL    HW273799  13.476   1.587  12.624
23968SOL     OW73800   9.086   4.093  14.447
23968SOL    HW173801   9.140   4.016  14.426
23968SOL    HW273802   9.131   4.135  14.520
23969SOL     OW73803   1.434  11.952   3.428
23969SOL    HW173804   1.481  11.979   3.349
23969SOL    HW273805   1.393  12.032   3.460
23970SOL     OW73806  13.567  13.199   9.063
23970SOL    HW173807  13.569  13.131   9.130
23970SOL    HW273808  13.554  13.152   8.981
23971SOL     OW73809  11.364   5.312  13.898
23971SOL    HW173810  11.317   5.311  13.815
23971SOL    HW273811  11.296   5.302  13.965
23972SOL     OW73812  13.873  11.629   2.164
23972SOL    HW173813  13.845  11.557   2.220
23972SOL    HW273814  13.809  11.698   2.180
23973SOL     OW73815   7.715   2.597   6.776
23973SOL    HW173816   7.792   2.651   6.796
23973SOL    HW273817   7.746   2.507   6.786
23974SOL     OW73818  10.431   5.062  13.999
23974SOL    HW173819  10.437   4.981  14.051
23974SOL    HW273820  10.511   5.061  13.945
23975SOL     OW73821   0.024   8.245   3.594
23975SOL    HW173822   0.021   8.306   3.668
23975SOL    HW273823   0.006   8.299   3.517
23976SOL     OW73824   0.665  10.604   3.341
23976SOL    HW173825   0.573  10.605   3.369
23976SOL    HW273826   0.675  10.520   3.298
23977SOL     OW73827  13.360  14.823   2.372
23977SOL    HW173828  13.434  14.764   2.375
23977SOL    HW273829  13.398   0.038   2.382
23978SOL     OW73830   1.168   1.226   7.060
23978SOL    HW173831   1.092   1.185   7.102
23978SOL    HW273832   1.140   1.316   7.043
23979SOL     OW73833   8.303   3.197  10.595
23979SOL    HW173834   8.392   3.192  10.631
23979SOL    HW273835   8.315   3.184  10.501
23980SOL     OW73836   0.972   8.261   5.871
23980SOL    HW173837   1.031   8.186   5.874
23980SOL    HW273838   1.028   8.334   5.843
23981SOL     OW73839   6.272   0.942   6.166
23981SOL    HW173840   6.323   0.882   6.220
23981SOL    HW273841   6.209   0.886   6.121
23982SOL     OW73842   4.848   7.061   2.283
23982SOL    HW173843   4.871   6.969   2.296
23982SOL    HW273844   4.824   7.068   2.191
23983SOL     OW73845  11.669   7.127   3.089
23983SOL    HW173846  11.739   7.165   3.142
23983SOL    HW273847  11.602   7.196   3.086
23984SOL     OW73848  14.498   6.788  14.077
23984SOL    HW173849  14.494   6.883  14.082
23984SOL    HW273850  14.581   6.770  14.033
23985SOL     OW73851   2.998   2.065   5.583
23985SOL    HW173852   3.020   2.114   5.504
23985SOL    HW273853   3.036   2.117   5.655
23986SOL     OW73854   9.798   6.402   4.519
23986SOL    HW173855   9.754   6.322   4.488
23986SOL    HW273856   9.804   6.391   4.614
23987SOL     OW73857   6.837   1.556   5.928
23987SOL    HW173858   6.845   1.461   5.923
23987SOL    HW273859   6.836   1.585   5.837
23988SOL     OW73860   0.014   0.559   8.105
23988SOL    HW173861   0.024   0.621   8.033
23988SOL    HW273862  14.794   0.535   8.102
23989SOL     OW73863  11.628  13.311   4.742
23989SOL    HW173864  11.590  13.323   4.829
23989SOL    HW273865  11.558  13.332   4.681
23990SOL     OW73866   9.237   1.733   3.744
23990SOL    HW173867   9.212   1.791   3.816
23990SOL    HW273868   9.218   1.784   3.665
23991SOL     OW73869   8.790  12.991   3.808
23991SOL    HW173870   8.722  13.050   3.778
23991SOL    HW273871   8.828  12.954   3.728
23992SOL     OW73872   3.548   0.930   0.350
23992SOL    HW173873   3.468   0.878   0.351
23992SOL    HW273874   3.610   0.880   0.403
23993SOL     OW73875   0.104   8.968  10.633
23993SOL    HW173876   0.033   9.020  10.671
23993SOL    HW273877   0.157   9.031  10.584
23994SOL     OW73878   9.606   6.368   3.759
23994SOL    HW173879   9.699   6.359   3.739
23994SOL    HW273880   9.584   6.288   3.807
23995SOL     OW73881  12.820   8.201  14.316
23995SOL    HW173882  12.862   8.240  14.239
23995SOL    HW273883  12.786   8.275  14.365
23996SOL     OW73884   7.373   9.602   5.426
23996SOL    HW173885   7.454   9.648   5.403
23996SOL    HW273886   7.386   9.573   5.516
23997SOL     OW73887   6.342   8.334   3.818
23997SOL    HW173888   6.409   8.384   3.774
23997SOL    HW273889   6.390   8.264   3.863
23998SOL     OW73890   5.435   9.788   6.373
23998SOL    HW173891   5.436   9.732   6.450
23998SOL    HW273892   5.430   9.728   6.299
23999SOL     OW73893   3.274  11.610   0.033
23999SOL    HW173894   3.183  11.581   0.038
23999SOL    HW273895   3.320  11.537  14.863
24000SOL     OW73896  10.261   3.100   0.183
24000SOL    HW173897  10.210   3.176   0.154
24000SOL    HW273898  10.202   3.053   0.242
24001SOL     OW73899   1.118   6.170   1.439
24001SOL    HW173900   1.094   6.082   1.469
24001SOL    HW273901   1.180   6.156   1.368
24002SOL     OW73902   5.392   8.777   9.859
24002SOL    HW173903   5.384   8.798   9.952
24002SOL    HW273904   5.444   8.697   9.856
24003SOL     OW73905   3.999   3.792  10.630
24003SOL    HW173906   3.928   3.765  10.688
24003SOL    HW273907   4.007   3.887  10.645
24004SOL     OW73908   1.553   3.075   7.233
24004SOL    HW173909   1.583   3.131   7.305
24004SOL    HW273910   1.463   3.053   7.256
24005SOL     OW73911   8.479  12.900   4.303
24005SOL    HW173912   8.477  12.961   4.376
24005SOL    HW273913   8.429  12.824   4.333
24006SOL     OW73914  10.592   1.362   7.763
24006SOL    HW173915  10.537   1.437   7.786
24006SOL    HW273916  10.530   1.292   7.743
24007SOL     OW73917   4.408  14.507  13.454
24007SOL    HW173918   4.395  14.511  13.359
24007SOL    HW273919   4.503  14.511  13.465
24008SOL     OW73920  11.307   2.257   6.091
24008SOL    HW173921  11.325   2.343   6.130
24008SOL    HW273922  11.393   2.217   6.080
24009SOL     OW73923   3.999  11.807   7.881
24009SOL    HW173924   4.063  11.763   7.937
24009SOL    HW273925   4.021  11.900   7.888
24010SOL     OW73926   3.063   3.990   5.204
24010SOL    HW173927   3.089   4.023   5.290
24010SOL    HW273928   3.089   4.059   5.143
24011SOL     OW73929   5.400   7.285   1.888
24011SOL    HW173930   5.438   7.229   1.955
24011SOL    HW273931   5.469   7.296   1.823
24012SOL     OW73932   9.108   8.589  13.949
24012SOL    HW173933   9.063   8.533  14.012
24012SOL    HW273934   9.197   8.597  13.982
24013SOL     OW73935  12.218   2.797   8.488
24013SOL    HW173936  12.272   2.801   8.409
24013SOL    HW273937  12.141   2.851   8.467
24014SOL     OW73938   6.703   6.032   9.685
24014SOL    HW173939   6.790   5.996   9.705
24014SOL    HW273940   6.652   5.955   9.658
24015SOL     OW73941   4.155   3.065   8.531
24015SOL    HW173942   4.119   3.152   8.548
24015SOL    HW273943   4.137   3.015   8.610
24016SOL     OW73944  12.081  13.995  14.777
24016SOL    HW173945  12.167  14.026  14.803
24016SOL    HW273946  12.021  14.034  14.841
24017SOL     OW73947   6.699  11.695  11.706
24017SOL    HW173948   6.710  11.609  11.747
24017SOL    HW273949   6.607  11.697  11.680
24018SOL     OW73950   3.669   2.041   7.159
24018SOL    HW173951   3.680   2.001   7.072
24018SOL    HW273952   3.575   2.038   7.174
24019SOL     OW73953  13.728  11.240   3.617
24019SOL    HW173954  13.692  11.321   3.653
24019SOL    HW273955  13.695  11.172   3.674
24020SOL     OW73956   3.893  10.119   1.889
24020SOL    HW173957   3.959  10.156   1.831
24020SOL    HW273958   3.925  10.031   1.908
24021SOL     OW73959   1.183   9.618  10.991
24021SOL    HW173960   1.196   9.707  11.023
24021SOL    HW273961   1.178   9.627  10.896
24022SOL     OW73962  12.851  11.280   3.584
24022SOL    HW173963  12.776  11.269   3.527
24022SOL    HW273964  12.824  11.347   3.647
24023SOL     OW73965  11.777  11.544  10.070
24023SOL    HW173966  11.686  11.569  10.082
24023SOL    HW273967  11.774  11.468  10.012
24024SOL     OW73968   0.067  14.766  10.670
24024SOL    HW173969   0.088  14.738  10.581
24024SOL    HW273970   0.076  14.687  10.723
24025SOL     OW73971  12.175   0.183  13.660
24025SOL    HW173972  12.166   0.200  13.566
24025SOL    HW273973  12.267   0.160  13.672
24026SOL     OW73974  14.120   8.505   1.379
24026SOL    HW173975  14.048   8.566   1.396
24026SOL    HW273976  14.116   8.487   1.285
24027SOL     OW73977   7.406   7.407   5.999
24027SOL    HW173978   7.395   7.484   6.055
24027SOL    HW273979   7.454   7.439   5.923
24028SOL     OW73980   9.651  13.260   8.921
24028SOL    HW173981   9.705  13.296   8.850
24028SOL    HW273982   9.561  13.287   8.899
24029SOL     OW73983   8.300   7.297  10.224
24029SOL    HW173984   8.349   7.377  10.210
24029SOL    HW273985   8.209   7.326  10.234
24030SOL     OW73986   5.372   0.228   3.928
24030SOL    HW173987   5.308   0.175   3.975
24030SOL    HW273988   5.348   0.217   3.835
24031SOL     OW73989   7.824  11.914   6.708
24031SOL    HW173990   7.883  11.855   6.754
24031SOL    HW273991   7.765  11.948   6.776
24032SOL     OW73992   6.614  10.285  11.834
24032SOL    HW173993   6.700  10.245  11.849
24032SOL    HW273994   6.630  10.379  11.837
24033SOL     OW73995  12.078   6.754   1.262
24033SOL    HW173996  12.051   6.794   1.179
24033SOL    HW273997  12.000   6.706   1.292
24034SOL     OW73998  10.397  11.570   6.237
24034SOL    HW173999  10.314  11.597   6.275
24034SOL    HW274000  10.463  11.620   6.286
24035SOL     OW74001   9.748  12.950   2.658
24035SOL    HW174002   9.776  12.994   2.578
24035SOL    HW274003   9.825  12.901   2.687
24036SOL     OW74004   1.038   6.278  10.527
24036SOL    HW174005   0.946   6.260  10.546
24036SOL    HW274006   1.079   6.192  10.522
24037SOL     OW74007  10.667  12.108  11.141
24037SOL    HW174008  10.645  12.165  11.215
24037SOL    HW274009  10.627  12.152  11.065
24038SOL     OW74010  13.109   2.440   6.169
24038SOL    HW174011  13.021   2.440   6.131
24038SOL    HW274012  13.165   2.476   6.100
24039SOL     OW74013   0.767   3.856   1.051
24039SOL    HW174014   0.822   3.899   0.986
24039SOL    HW274015   0.825   3.792   1.093
24040SOL     OW74016  10.997  10.877   3.760
24040SOL    HW174017  10.988  10.781   3.758
24040SOL    HW274018  10.918  10.907   3.805
24041SOL     OW74019  10.493   5.503   3.472
24041SOL    HW174020  10.413   5.542   3.508
24041SOL    HW274021  10.563   5.565   3.497
24042SOL     OW74022   7.671  13.501  13.327
24042SOL    HW174023   7.692  13.439  13.257
24042SOL    HW274024   7.756  13.532  13.358
24043SOL     OW74025   8.422  11.767   9.461
24043SOL    HW174026   8.473  11.786   9.540
24043SOL    HW274027   8.358  11.702   9.489
24044SOL     OW74028   1.591   0.113  14.600
24044SOL    HW174029   1.611   0.038  14.656
24044SOL    HW274030   1.670   0.166  14.601
24045SOL     OW74031   4.644  13.084  14.485
24045SOL    HW174032   4.569  13.037  14.522
24045SOL    HW274033   4.718  13.024  14.498
24046SOL     OW74034  12.251   4.587   1.378
24046SOL    HW174035  12.226   4.538   1.299
24046SOL    HW274036  12.222   4.533   1.450
24047SOL     OW74037   0.288   8.968  14.244
24047SOL    HW174038   0.329   8.907  14.305
24047SOL    HW274039   0.326   8.947  14.159
24048SOL     OW74040  11.999   5.151   0.867
24048SOL    HW174041  11.903   5.154   0.866
24048SOL    HW274042  12.022   5.175   0.957
24049SOL     OW74043   4.954   3.660   6.451
24049SOL    HW174044   4.892   3.729   6.475
24049SOL    HW274045   5.032   3.679   6.503
24050SOL     OW74046   5.686  13.995   8.169
24050SOL    HW174047   5.710  13.907   8.140
24050SOL    HW274048   5.602  13.984   8.213
24051SOL     OW74049   6.489   9.955   4.966
24051SOL    HW174050   6.453  10.026   4.913
24051SOL    HW274051   6.475   9.983   5.057
24052SOL     OW74052   9.085   8.017   1.930
24052SOL    HW174053   9.126   7.932   1.950
24052SOL    HW274054   9.065   8.012   1.837
24053SOL     OW74055   3.178  10.748   8.705
24053SOL    HW174056   3.095  10.701   8.696
24053SOL    HW274057   3.171  10.792   8.790
24054SOL     OW74058  14.098   6.964   0.725
24054SOL    HW174059  14.119   6.878   0.761
24054SOL    HW274060  14.008   6.956   0.694
24055SOL     OW74061  10.557   3.955  13.189
24055SOL    HW174062  10.573   3.917  13.275
24055SOL    HW274063  10.504   4.032  13.206
24056SOL     OW74064   1.382  14.684   4.888
24056SOL    HW174065   1.414  14.774   4.893
24056SOL    HW274066   1.367  14.659   4.979
24057SOL     OW74067   7.117  12.749  12.896
24057SOL    HW174068   7.071  12.679  12.943
24057SOL    HW274069   7.059  12.825  12.903
24058SOL     OW74070   4.850   4.929   3.045
24058SOL    HW174071   4.778   4.910   2.985
24058SOL    HW274072   4.820   5.004   3.096
24059SOL     OW74073  13.323   0.259   6.071
24059SOL    HW174074  13.346   0.288   5.982
24059SOL    HW274075  13.406   0.227   6.108
24060SOL     OW74076   6.327   4.024   7.792
24060SOL    HW174077   6.347   4.114   7.767
24060SOL    HW274078   6.410   3.989   7.825
24061SOL     OW74079  10.236   1.075   5.538
24061SOL    HW174080  10.265   1.166   5.537
24061SOL    HW274081  10.169   1.070   5.469
24062SOL     OW74082   3.481   2.236  14.351
24062SOL    HW174083   3.534   2.315  14.340
24062SOL    HW274084   3.546   2.165  14.358
24063SOL     OW74085   6.763  13.766  12.755
24063SOL    HW174086   6.700  13.824  12.799
24063SOL    HW274087   6.830  13.825  12.722
24064SOL     OW74088   8.587  10.237  11.480
24064SOL    HW174089   8.587  10.273  11.568
24064SOL    HW274090   8.522  10.167  11.483
24065SOL     OW74091   4.711  11.813   4.582
24065SOL    HW174092   4.708  11.898   4.538
24065SOL    HW274093   4.733  11.833   4.673
24066SOL     OW74094   5.883   7.209   5.516
24066SOL    HW174095   5.935   7.130   5.498
24066SOL    HW274096   5.946   7.270   5.556
24067SOL     OW74097  11.969  13.822   8.988
24067SOL    HW174098  11.890  13.804   9.038
24067SOL    HW274099  12.029  13.861   9.052
24068SOL     OW74100   4.276   3.006   2.701
24068SOL    HW174101   4.205   3.067   2.720
24068SOL    HW274102   4.236   2.940   2.644
24069SOL     OW74103   9.389  11.898  13.373
24069SOL    HW174104   9.324  11.956  13.412
24069SOL    HW274105   9.349  11.869  13.291
24070SOL     OW74106  12.228   3.805   4.351
24070SOL    HW174107  12.314   3.836   4.321
24070SOL    HW274108  12.242   3.780   4.442
24071SOL     OW74109  12.475  12.544   1.788
24071SOL    HW174110  12.406  12.583   1.733
24071SOL    HW274111  12.432  12.529   1.872
24072SOL     OW74112   2.188   3.084   0.303
24072SOL    HW174113   2.101   3.103   0.270
24072SOL    HW274114   2.244   3.150   0.262
24073SOL     OW74115   3.087   2.300   1.239
24073SOL    HW174116   3.106   2.342   1.323
24073SOL    HW274117   3.120   2.361   1.173
24074SOL     OW74118   1.607   5.948  13.333
24074SOL    HW174119   1.647   5.945  13.246
24074SOL    HW274120   1.672   5.993  13.388
24075SOL     OW74121   7.173   1.206  13.514
24075SOL    HW174122   7.114   1.234  13.443
24075SOL    HW274123   7.261   1.223  13.480
24076SOL     OW74124   8.617   8.847   4.097
24076SOL    HW174125   8.572   8.923   4.060
24076SOL    HW274126   8.556   8.774   4.084
24077SOL     OW74127  10.990  10.917   2.636
24077SOL    HW174128  10.996  10.947   2.726
24077SOL    HW274129  10.962  10.826   2.642
24078SOL     OW74130   1.436  11.505   6.477
24078SOL    HW174131   1.432  11.568   6.549
24078SOL    HW274132   1.378  11.434   6.504
24079SOL     OW74133   7.008   7.003   0.674
24079SOL    HW174134   6.955   7.065   0.624
24079SOL    HW274135   7.073   7.057   0.718
24080SOL     OW74136   2.060  11.784   0.303
24080SOL    HW174137   2.072  11.719   0.372
24080SOL    HW274138   1.995  11.746   0.245
24081SOL     OW74139   2.960   6.976   6.122
24081SOL    HW174140   2.966   7.064   6.084
24081SOL    HW274141   2.942   6.992   6.215
24082SOL     OW74142   0.467   3.650  12.177
24082SOL    HW174143   0.448   3.678  12.087
24082SOL    HW274144   0.389   3.600  12.203
24083SOL     OW74145  14.348   4.050   2.655
24083SOL    HW174146  14.314   3.986   2.593
24083SOL    HW274147  14.349   4.004   2.739
24084SOL     OW74148  10.680  14.081   2.311
24084SOL    HW174149  10.722  14.164   2.288
24084SOL    HW274150  10.747  14.031   2.357
24085SOL     OW74151   8.127   1.146   8.121
24085SOL    HW174152   8.162   1.071   8.073
24085SOL    HW274153   8.055   1.178   8.066
24086SOL     OW74154  10.894  14.519  12.386
24086SOL    HW174155  10.985  14.537  12.413
24086SOL    HW274156  10.858  14.604  12.364
24087SOL     OW74157  12.158   6.006   0.670
24087SOL    HW174158  12.190   5.916   0.672
24087SOL    HW274159  12.153   6.028   0.577
24088SOL     OW74160   0.681  11.599  14.707
24088SOL    HW174161   0.605  11.547  14.735
24088SOL    HW274162   0.724  11.545  14.640
24089SOL     OW74163   9.498   4.027  11.627
24089SOL    HW174164   9.523   3.999  11.539
24089SOL    HW274165   9.403   4.038  11.623
24090SOL     OW74166   2.047   0.983   6.276
24090SOL    HW174167   2.007   0.923   6.214
24090SOL    HW274168   1.990   1.060   6.275
24091SOL     OW74169  11.102   3.313  10.393
24091SOL    HW174170  11.185   3.268  10.404
24091SOL    HW274171  11.125   3.401  10.362
24092SOL     OW74172   9.483  10.771  12.818
24092SOL    HW174173   9.523  10.712  12.754
24092SOL    HW274174   9.558  10.815  12.859
24093SOL     OW74175  10.146  11.485  10.812
24093SOL    HW174176  10.149  11.461  10.719
24093SOL    HW274177  10.059  11.458  10.841
24094SOL     OW74178   0.624   4.069   5.642
24094SOL    HW174179   0.575   4.150   5.655
24094SOL    HW274180   0.655   4.045   5.729
24095SOL     OW74181   4.387  12.175   0.728
24095SOL    HW174182   4.383  12.088   0.690
24095SOL    HW274183   4.410  12.161   0.820
24096SOL     OW74184   6.917   8.799  11.211
24096SOL    HW174185   6.859   8.856  11.262
24096SOL    HW274186   6.875   8.713  11.214
24097SOL     OW74187   6.576   5.835   3.048
24097SOL    HW174188   6.665   5.849   3.080
24097SOL    HW274189   6.586   5.770   2.978
24098SOL     OW74190  12.134   1.355  12.059
24098SOL    HW174191  12.160   1.355  12.152
24098SOL    HW274192  12.045   1.320  12.059
24099SOL     OW74193  12.873   6.525   3.112
24099SOL    HW174194  12.949   6.467   3.111
24099SOL    HW274195  12.810   6.480   3.169
24100SOL     OW74196   5.545   7.001  14.396
24100SOL    HW174197   5.492   6.925  14.374
24100SOL    HW274198   5.608   6.969  14.460
24101SOL     OW74199  13.563  11.607   4.963
24101SOL    HW174200  13.635  11.621   5.023
24101SOL    HW274201  13.517  11.691   4.961
24102SOL     OW74202  13.241   7.333   5.974
24102SOL    HW174203  13.243   7.410   6.031
24102SOL    HW274204  13.241   7.258   6.034
24103SOL     OW74205   0.607   9.024  13.773
24103SOL    HW174206   0.641   8.939  13.800
24103SOL    HW274207   0.514   9.008  13.755
24104SOL     OW74208   7.053  10.353   2.487
24104SOL    HW174209   7.117  10.316   2.547
24104SOL    HW274210   6.976  10.296   2.496
24105SOL     OW74211   9.282   9.255  11.595
24105SOL    HW174212   9.218   9.324  11.613
24105SOL    HW274213   9.232   9.187  11.551
24106SOL     OW74214   8.954   4.142   8.719
24106SOL    HW174215   8.989   4.168   8.804
24106SOL    HW274216   8.859   4.146   8.729
24107SOL     OW74217  10.979  12.924   7.676
24107SOL    HW174218  10.938  12.841   7.652
24107SOL    HW274219  11.003  12.914   7.768
24108SOL     OW74220  13.146  14.030   9.143
24108SOL    HW174221  13.157  13.989   9.229
24108SOL    HW274222  13.087  14.104   9.160
24109SOL     OW74223   0.040   4.059  10.220
24109SOL    HW174224  14.830   4.030  10.180
24109SOL    HW274225   0.024   4.150  10.246
24110SOL     OW74226  12.320   7.366   4.984
24110SOL    HW174227  12.367   7.286   5.009
24110SOL    HW274228  12.227   7.341   4.987
24111SOL     OW74229  11.424  14.461   0.162
24111SOL    HW174230  11.426  14.386   0.102
24111SOL    HW274231  11.408  14.537   0.106
24112SOL     OW74232   4.362  10.175   8.936
24112SOL    HW174233   4.336  10.126   8.858
24112SOL    HW274234   4.425  10.118   8.980
24113SOL     OW74235  11.402   2.650  14.514
24113SOL    HW174236  11.386   2.718  14.448
24113SOL    HW274237  11.478   2.682  14.563
24114SOL     OW74238   3.514   2.756  12.790
24114SOL    HW174239   3.439   2.708  12.826
24114SOL    HW274240   3.481   2.844  12.775
24115SOL     OW74241   7.554  12.042   8.923
24115SOL    HW174242   7.583  11.999   8.842
24115SOL    HW274243   7.623  12.021   8.986
24116SOL     OW74244   0.740   2.541   0.282
24116SOL    HW174245   0.821   2.548   0.332
24116SOL    HW274246   0.672   2.577   0.339
24117SOL     OW74247   3.533  11.526   1.652
24117SOL    HW174248   3.486  11.467   1.594
24117SOL    HW274249   3.494  11.511   1.738
24118SOL     OW74250  12.464  12.400   3.692
24118SOL    HW174251  12.549  12.369   3.723
24118SOL    HW274252  12.417  12.424   3.772
24119SOL     OW74253   3.259  11.164  13.168
24119SOL    HW174254   3.313  11.239  13.194
24119SOL    HW274255   3.322  11.096  13.146
24120SOL     OW74256  13.556   8.258  13.661
24120SOL    HW174257  13.575   8.201  13.586
24120SOL    HW274258  13.513   8.334  13.623
24121SOL     OW74259   5.686   1.223  13.493
24121SOL    HW174260   5.648   1.215  13.581
24121SOL    HW274261   5.685   1.134  13.458
24122SOL     OW74262  12.389  10.389   2.597
24122SOL    HW174263  12.318  10.426   2.649
24122SOL    HW274264  12.369  10.295   2.594
24123SOL     OW74265   4.978   8.281   4.321
24123SOL    HW174266   5.000   8.216   4.254
24123SOL    HW274267   5.047   8.272   4.386
24124SOL     OW74268   9.010  13.485   9.248
24124SOL    HW174269   8.941  13.470   9.184
24124SOL    HW274270   8.978  13.444   9.328
24125SOL     OW74271   1.909   6.828   7.481
24125SOL    HW174272   1.921   6.873   7.565
24125SOL    HW274273   1.828   6.865   7.445
24126SOL     OW74274  11.582   4.450   4.718
24126SOL    HW174275  11.510   4.416   4.772
24126SOL    HW274276  11.574   4.545   4.724
24127SOL     OW74277   4.948  10.588  13.691
24127SOL    HW174278   4.899  10.534  13.630
24127SOL    HW274279   4.904  10.673  13.688
24128SOL     OW74280   9.977  12.972  14.113
24128SOL    HW174281  10.016  12.994  14.029
24128SOL    HW274282  10.048  12.979  14.176
24129SOL     OW74283  10.197   6.690   5.557
24129SOL    HW174284  10.203   6.595   5.566
24129SOL    HW274285  10.265   6.713   5.494
24130SOL     OW74286   0.160   8.740   1.502
24130SOL    HW174287   0.083   8.770   1.454
24130SOL    HW274288   0.209   8.688   1.439
24131SOL     OW74289  14.579   7.961   6.220
24131SOL    HW174290  14.572   7.979   6.314
24131SOL    HW274291  14.673   7.961   6.202
24132SOL     OW74292  13.443   7.882   2.636
24132SOL    HW174293  13.487   7.798   2.632
24132SOL    HW274294  13.353   7.864   2.610
24133SOL     OW74295  13.568   8.979   3.396
24133SOL    HW174296  13.494   8.932   3.357
24133SOL    HW274297  13.639   8.916   3.397
24134SOL     OW74298   9.014  10.247  14.531
24134SOL    HW174299   8.947  10.305  14.567
24134SOL    HW274300   8.978  10.217  14.448
24135SOL     OW74301   5.951  10.270   6.047
24135SOL    HW174302   5.998  10.194   6.081
24135SOL    HW274303   6.016  10.318   5.996
24136SOL     OW74304  11.152  12.625   4.673
24136SOL    HW174305  11.126  12.641   4.763
24136SOL    HW274306  11.081  12.573   4.636
24137SOL     OW74307   9.834   5.855   2.458
24137SOL    HW174308   9.848   5.935   2.508
24137SOL    HW274309   9.769   5.878   2.392
24138SOL     OW74310   3.001   7.796  14.517
24138SOL    HW174311   2.944   7.866  14.484
24138SOL    HW274312   2.957   7.763  14.595
24139SOL     OW74313   1.636   6.848   7.126
24139SOL    HW174314   1.677   6.780   7.073
24139SOL    HW274315   1.546   6.853   7.094
24140SOL     OW74316   3.027  13.520   0.873
24140SOL    HW174317   3.050  13.603   0.915
24140SOL    HW274318   3.050  13.533   0.781
24141SOL     OW74319   2.457   9.506  10.339
24141SOL    HW174320   2.449   9.439  10.271
24141SOL    HW274321   2.532   9.559  10.311
24142SOL     OW74322   5.459  11.385   7.073
24142SOL    HW174323   5.474  11.295   7.043
24142SOL    HW274324   5.387  11.377   7.136
24143SOL     OW74325  12.595   9.587  10.238
24143SOL    HW174326  12.513   9.547  10.211
24143SOL    HW274327  12.590   9.678  10.207
24144SOL     OW74328   3.238   4.613   2.956
24144SOL    HW174329   3.297   4.566   2.896
24144SOL    HW274330   3.220   4.696   2.912
24145SOL     OW74331  13.073  11.297   6.712
24145SOL    HW174332  13.060  11.298   6.806
24145SOL    HW274333  13.059  11.388   6.685
24146SOL     OW74334   2.224  13.949   6.311
24146SOL    HW174335   2.289  13.883   6.287
24146SOL    HW274336   2.271  14.033   6.304
24147SOL     OW74337  14.867   4.637   2.667
24147SOL    HW174338   0.026   4.722   2.700
24147SOL    HW274339  14.818   4.600   2.740
24148SOL     OW74340   4.132   7.875   8.406
24148SOL    HW174341   4.068   7.805   8.398
24148SOL    HW274342   4.169   7.865   8.494
24149SOL     OW74343   8.753   6.115   2.491
24149SOL    HW174344   8.748   6.159   2.576
24149SOL    HW274345   8.715   6.177   2.429
24150SOL     OW74346   0.107  12.599   4.316
24150SOL    HW174347   0.054  12.678   4.327
24150SOL    HW274348   0.156  12.615   4.235
24151SOL     OW74349   4.345   2.822  12.480
24151SOL    HW174350   4.376   2.880  12.410
24151SOL    HW274351   4.261   2.789  12.449
24152SOL     OW74352  14.630   4.415   8.646
24152SOL    HW174353  14.692   4.396   8.576
24152SOL    HW274354  14.544   4.411   8.603
24153SOL     OW74355   4.148   8.265   0.486
24153SOL    HW174356   4.134   8.324   0.560
24153SOL    HW274357   4.082   8.291   0.422
24154SOL     OW74358   6.453  11.850  13.009
24154SOL    HW174359   6.408  11.928  13.041
24154SOL    HW274360   6.468  11.868  12.916
24155SOL     OW74361   4.949  11.568   9.541
24155SOL    HW174362   5.033  11.580   9.497
24155SOL    HW274363   4.914  11.657   9.550
24156SOL     OW74364  14.468   9.653  12.801
24156SOL    HW174365  14.432   9.636  12.888
24156SOL    HW274366  14.423   9.591  12.744
24157SOL     OW74367   2.472  13.848   9.814
24157SOL    HW174368   2.534  13.920   9.828
24157SOL    HW274369   2.388  13.891   9.799
24158SOL     OW74370   5.276  14.075   4.312
24158SOL    HW174371   5.276  14.023   4.393
24158SOL    HW274372   5.357  14.126   4.317
24159SOL     OW74373  12.605  14.139   8.332
24159SOL    HW174374  12.632  14.222   8.292
24159SOL    HW274375  12.673  14.120   8.397
24160SOL     OW74376  11.207  13.096  10.039
24160SOL    HW174377  11.233  13.055  10.122
24160SOL    HW274378  11.118  13.065  10.024
24161SOL     OW74379  12.084  10.215   9.819
24161SOL    HW174380  12.003  10.199   9.771
24161SOL    HW274381  12.152  10.177   9.763
24162SOL     OW74382   8.534   1.214   9.663
24162SOL    HW174383   8.550   1.259   9.745
24162SOL    HW274384   8.449   1.171   9.675
24163SOL     OW74385   1.009  13.619   7.007
24163SOL    HW174386   1.008  13.524   6.996
24163SOL    HW274387   1.014  13.653   6.917
24164SOL     OW74388  13.924   1.875   9.519
24164SOL    HW174389  13.916   1.967   9.541
24164SOL    HW274390  13.834   1.848   9.498
24165SOL     OW74391   6.482   6.289   0.204
24165SOL    HW174392   6.493   6.322   0.294
24165SOL    HW274393   6.389   6.270   0.196
24166SOL     OW74394  10.055   8.135  12.126
24166SOL    HW174395  10.039   8.191  12.050
24166SOL    HW274396  10.148   8.112  12.120
24167SOL     OW74397   1.975   5.819   6.727
24167SOL    HW174398   2.035   5.811   6.801
24167SOL    HW274399   2.023   5.781   6.653
24168SOL     OW74400   7.516   0.277  12.085
24168SOL    HW174401   7.522   0.360  12.132
24168SOL    HW274402   7.443   0.231  12.127
24169SOL     OW74403  12.403  13.322  12.839
24169SOL    HW174404  12.470  13.346  12.775
24169SOL    HW274405  12.452  13.281  12.911
24170SOL     OW74406  11.930  11.979   3.745
24170SOL    HW174407  12.016  12.003   3.710
24170SOL    HW274408  11.939  11.886   3.767
24171SOL     OW74409   8.816  10.172   2.602
24171SOL    HW174410   8.864  10.101   2.645
24171SOL    HW274411   8.870  10.250   2.617
24172SOL     OW74412   3.893  12.902  11.085
24172SOL    HW174413   3.841  12.856  11.150
24172SOL    HW274414   3.840  12.899  11.005
24173SOL     OW74415   4.998   9.605  10.500
24173SOL    HW174416   4.964   9.625  10.413
24173SOL    HW274417   5.044   9.522  10.489
24174SOL     OW74418   5.630   0.876   4.508
24174SOL    HW174419   5.557   0.875   4.570
24174SOL    HW274420   5.640   0.785   4.481
24175SOL     OW74421   7.831  12.049  12.833
24175SOL    HW174422   7.901  11.987  12.811
24175SOL    HW274423   7.864  12.134  12.805
24176SOL     OW74424   2.903  10.829   9.553
24176SOL    HW174425   2.964  10.835   9.479
24176SOL    HW274426   2.908  10.738   9.581
24177SOL     OW74427   7.096   2.695  10.709
24177SOL    HW174428   7.077   2.786  10.730
24177SOL    HW274429   7.066   2.646  10.786
24178SOL     OW74430   2.167   3.685   0.624
24178SOL    HW174431   2.081   3.710   0.659
24178SOL    HW274432   2.229   3.708   0.693
24179SOL     OW74433   3.259  12.206   6.033
24179SOL    HW174434   3.276  12.168   6.119
24179SOL    HW274435   3.230  12.133   5.979
24180SOL     OW74436  10.665   9.317   9.942
24180SOL    HW174437  10.588   9.259   9.940
24180SOL    HW274438  10.720   9.280  10.012
24181SOL     OW74439   7.150   3.953  11.934
24181SOL    HW174440   7.129   4.026  11.876
24181SOL    HW274441   7.236   3.975  11.970
24182SOL     OW74442  13.822   9.334  11.435
24182SOL    HW174443  13.836   9.333  11.530
24182SOL    HW274444  13.762   9.407  11.421
24183SOL     OW74445   1.367  11.430  12.310
24183SOL    HW174446   1.404  11.355  12.356
24183SOL    HW274447   1.376  11.503  12.371
24184SOL     OW74448   9.798   0.867  12.873
24184SOL    HW174449   9.801   0.777  12.839
24184SOL    HW274450   9.729   0.865  12.939
24185SOL     OW74451  12.305   7.399   0.148
24185SOL    HW174452  12.361   7.355   0.084
24185SOL    HW274453  12.246   7.330   0.180
24186SOL     OW74454  13.257  12.441   6.433
24186SOL    HW174455  13.163  12.430   6.444
24186SOL    HW274456  13.278  12.521   6.481
24187SOL     OW74457   0.763  12.492   3.827
24187SOL    HW174458   0.749  12.511   3.920
24187SOL    HW274459   0.682  12.520   3.784
24188SOL     OW74460   0.867   8.815  11.019
24188SOL    HW174461   0.786   8.781  10.982
24188SOL    HW274462   0.883   8.762  11.097
24189SOL     OW74463   3.641   1.637   7.935
24189SOL    HW174464   3.604   1.661   8.020
24189SOL    HW274465   3.674   1.719   7.899
24190SOL     OW74466   3.508   0.801   2.503
24190SOL    HW174467   3.537   0.873   2.447
24190SOL    HW274468   3.590   0.759   2.531
24191SOL     OW74469   8.879  14.564  12.960
24191SOL    HW174470   8.873  14.652  12.922
24191SOL    HW274471   8.918  14.578  13.046
24192SOL     OW74472   8.564   2.616   6.666
24192SOL    HW174473   8.619   2.619   6.587
24192SOL    HW274474   8.493   2.678   6.648
24193SOL     OW74475   7.606   5.582   0.097
24193SOL    HW174476   7.665   5.658   0.095
24193SOL    HW274477   7.519   5.618   0.080
24194SOL     OW74478  13.358  11.260  10.842
24194SOL    HW174479  13.331  11.314  10.917
24194SOL    HW274480  13.427  11.311  10.800
24195SOL     OW74481   5.059   2.761   9.955
24195SOL    HW174482   5.022   2.713   9.881
24195SOL    HW274483   5.117   2.698   9.998
24196SOL     OW74484   0.151  12.933   0.220
24196SOL    HW174485   0.135  12.942   0.314
24196SOL    HW274486   0.192  12.846   0.211
24197SOL     OW74487  12.948   5.311   7.290
24197SOL    HW174488  12.985   5.257   7.221
24197SOL    HW274489  12.947   5.254   7.367
24198SOL     OW74490   6.192   7.792  10.288
24198SOL    HW174491   6.183   7.711  10.338
24198SOL    HW274492   6.269   7.835  10.324
24199SOL     OW74493   7.268   5.366  10.872
24199SOL    HW174494   7.247   5.279  10.837
24199SOL    HW274495   7.226   5.427  10.811
24200SOL     OW74496  13.798   7.463   6.870
24200SOL    HW174497  13.810   7.494   6.960
24200SOL    HW274498  13.713   7.420   6.871
24201SOL     OW74499   7.745   7.038  11.903
24201SOL    HW174500   7.728   7.109  11.841
24201SOL    HW274501   7.693   6.965  11.870
24202SOL     OW74502   6.175   0.152  13.749
24202SOL    HW174503   6.209   0.227  13.700
24202SOL    HW274504   6.227   0.151  13.830
24203SOL     OW74505   4.340   8.604  13.725
24203SOL    HW174506   4.401   8.679  13.726
24203SOL    HW274507   4.314   8.597  13.633
24204SOL     OW74508   0.763   3.151  14.320
24204SOL    HW174509   0.851   3.118  14.299
24204SOL    HW274510   0.712   3.135  14.240
24205SOL     OW74511   0.328   3.977   0.392
24205SOL    HW174512   0.311   4.058   0.441
24205SOL    HW274513   0.303   3.998   0.302
24206SOL     OW74514   1.580  11.111   5.800
24206SOL    HW174515   1.587  11.107   5.895
24206SOL    HW274516   1.494  11.150   5.784
24207SOL     OW74517  12.446   6.019   8.245
24207SOL    HW174518  12.387   6.081   8.288
24207SOL    HW274519  12.456   5.947   8.307
24208SOL     OW74520   7.962   2.323   9.921
24208SOL    HW174521   7.963   2.395   9.985
24208SOL    HW274522   7.869   2.308   9.904
24209SOL     OW74523   4.064  12.543  13.880
24209SOL    HW174524   4.056  12.583  13.794
24209SOL    HW274525   4.000  12.589  13.935
24210SOL     OW74526   9.240  14.000  13.571
24210SOL    HW174527   9.195  13.944  13.634
24210SOL    HW274528   9.196  14.085  13.579
24211SOL     OW74529   6.150  12.402   2.507
24211SOL    HW174530   6.134  12.487   2.548
24211SOL    HW274531   6.201  12.353   2.572
24212SOL     OW74532  14.480   0.006   5.253
24212SOL    HW174533  14.480   0.085   5.199
24212SOL    HW274534  14.538   0.027   5.326
24213SOL     OW74535  12.289  13.450   3.018
24213SOL    HW174536  12.255  13.409   3.098
24213SOL    HW274537  12.223  13.516   2.995
24214SOL     OW74538  11.585   1.916   1.081
24214SOL    HW174539  11.610   1.826   1.059
24214SOL    HW274540  11.490   1.912   1.094
24215SOL     OW74541  13.080   2.514  13.241
24215SOL    HW174542  12.985   2.501  13.245
24215SOL    HW274543  13.115   2.432  13.208
24216SOL     OW74544  13.913   0.664   4.750
24216SOL    HW174545  13.844   0.598   4.739
24216SOL    HW274546  13.978   0.642   4.683
24217SOL     OW74547   6.917  14.018   3.570
24217SOL    HW174548   6.863  13.993   3.645
24217SOL    HW274549   6.899  13.951   3.504
24218SOL     OW74550  10.759  11.877  10.297
24218SOL    HW174551  10.750  11.808  10.363
24218SOL    HW274552  10.670  11.907  10.281
24219SOL     OW74553   0.845  10.450   4.609
24219SOL    HW174554   0.850  10.523   4.671
24219SOL    HW274555   0.936  10.433   4.584
24220SOL     OW74556   3.839   7.554   5.431
24220SOL    HW174557   3.837   7.521   5.521
24220SOL    HW274558   3.927   7.531   5.399
24221SOL     OW74559   0.738  13.042   9.094
24221SOL    HW174560   0.748  13.088   9.177
24221SOL    HW274561   0.645  13.021   9.089
24222SOL     OW74562  13.279   1.560   3.514
24222SOL    HW174563  13.301   1.590   3.426
24222SOL    HW274564  13.184   1.554   3.514
24223SOL     OW74565   3.240  14.117  13.347
24223SOL    HW174566   3.237  14.089  13.438
24223SOL    HW274567   3.149  14.115  13.317
24224SOL     OW74568  14.481   6.382   7.822
24224SOL    HW174569  14.405   6.325   7.810
24224SOL    HW274570  14.535   6.366   7.744
24225SOL     OW74571   5.818   1.605   9.720
24225SOL    HW174572   5.840   1.599   9.813
24225SOL    HW274573   5.723   1.588   9.717
24226SOL     OW74574   8.066   1.343   4.218
24226SOL    HW174575   8.007   1.359   4.291
24226SOL    HW274576   8.017   1.373   4.141
24227SOL     OW74577   9.504   6.518   7.718
24227SOL    HW174578   9.415   6.544   7.693
24227SOL    HW274579   9.535   6.590   7.773
24228SOL     OW74580   6.553  10.439   2.247
24228SOL    HW174581   6.460  10.417   2.237
24228SOL    HW274582   6.594  10.402   2.169
24229SOL     OW74583   8.264   9.420   3.994
24229SOL    HW174584   8.217   9.474   3.931
24229SOL    HW274585   8.356   9.425   3.967
24230SOL     OW74586  14.334  11.326  10.876
24230SOL    HW174587  14.380  11.408  10.857
24230SOL    HW274588  14.394  11.257  10.847
24231SOL     OW74589   9.208   5.540   2.228
24231SOL    HW174590   9.217   5.445   2.230
24231SOL    HW274591   9.116   5.555   2.210
24232SOL     OW74592  12.086   0.425   2.939
24232SOL    HW174593  12.016   0.371   2.901
24232SOL    HW274594  12.101   0.493   2.874
24233SOL     OW74595   1.346   6.390   2.596
24233SOL    HW174596   1.279   6.411   2.661
24233SOL    HW274597   1.409   6.335   2.643
24234SOL     OW74598   9.295  12.290   0.608
24234SOL    HW174599   9.221  12.299   0.548
24234SOL    HW274600   9.292  12.198   0.636
24235SOL     OW74601  14.019  13.277   1.523
24235SOL    HW174602  14.050  13.201   1.571
24235SOL    HW274603  14.097  13.332   1.513
24236SOL     OW74604   4.904   5.746   3.469
24236SOL    HW174605   4.922   5.698   3.549
24236SOL    HW274606   4.989   5.781   3.442
24237SOL     OW74607  12.053   3.601   5.261
24237SOL    HW174608  12.043   3.509   5.285
24237SOL    HW274609  11.965   3.638   5.270
24238SOL     OW74610   7.771   7.301   3.413
24238SOL    HW174611   7.860   7.272   3.434
24238SOL    HW274612   7.753   7.263   3.327
24239SOL     OW74613  14.218   0.758   0.344
24239SOL    HW174614  14.301   0.773   0.388
24239SOL    HW274615  14.193   0.844   0.310
24240SOL     OW74616   0.678   7.484   8.852
24240SOL    HW174617   0.631   7.489   8.769
24240SOL    HW274618   0.627   7.537   8.912
24241SOL     OW74619   9.543   2.175  12.987
24241SOL    HW174620   9.586   2.172  12.902
24241SOL    HW274621   9.492   2.093  12.992
24242SOL     OW74622   8.881   8.248   6.313
24242SOL    HW174623   8.791   8.244   6.343
24242SOL    HW274624   8.929   8.288   6.385
24243SOL     OW74625  13.995   8.782  14.278
24243SOL    HW174626  14.056   8.845  14.316
24243SOL    HW274627  13.920   8.782  14.337
24244SOL     OW74628   8.441   4.641  11.438
24244SOL    HW174629   8.457   4.731  11.411
24244SOL    HW274630   8.346   4.634  11.446
24245SOL     OW74631   6.745   6.419  11.974
24245SOL    HW174632   6.767   6.357  11.905
24245SOL    HW274633   6.830   6.450  12.007
24246SOL     OW74634   7.894   1.684  14.186
24246SOL    HW174635   7.934   1.633  14.115
24246SOL    HW274636   7.809   1.712  14.151
24247SOL     OW74637   5.177   5.896  12.540
24247SOL    HW174638   5.156   5.826  12.478
24247SOL    HW274639   5.241   5.950  12.494
24248SOL     OW74640   1.308  10.944   3.899
24248SOL    HW174641   1.225  10.953   3.853
24248SOL    HW274642   1.374  10.937   3.829
24249SOL     OW74643   3.818   1.481   0.315
24249SOL    HW174644   3.839   1.461   0.407
24249SOL    HW274645   3.743   1.540   0.321
24250SOL     OW74646  10.435   4.300   9.963
24250SOL    HW174647  10.370   4.231   9.954
24250SOL    HW274648  10.494   4.287   9.888
24251SOL     OW74649  10.634   3.132   9.587
24251SOL    HW174650  10.612   3.106   9.676
24251SOL    HW274651  10.685   3.213   9.598
24252SOL     OW74652  13.836   8.828  13.245
24252SOL    HW174653  13.828   8.734  13.259
24252SOL    HW274654  13.777   8.846  13.171
24253SOL     OW74655  12.453  12.059   7.552
24253SOL    HW174656  12.386  12.000   7.585
24253SOL    HW274657  12.422  12.084   7.465
24254SOL     OW74658  14.504   7.184  10.537
24254SOL    HW174659  14.413   7.209  10.520
24254SOL    HW274660  14.520   7.110  10.478
24255SOL     OW74661  12.676  12.056   7.671
24255SOL    HW174662  12.660  12.150   7.682
24255SOL    HW274663  12.611  12.028   7.606
24256SOL     OW74664   9.209  13.711   5.681
24256SOL    HW174665   9.215  13.684   5.772
24256SOL    HW274666   9.291  13.758   5.664
24257SOL     OW74667  13.990   6.370  14.571
24257SOL    HW174668  13.959   6.311  14.503
24257SOL    HW274669  14.006   6.453  14.526
24258SOL     OW74670  12.741   9.004   2.082
24258SOL    HW174671  12.739   9.099   2.072
24258SOL    HW274672  12.833   8.982   2.097
24259SOL     OW74673   3.877   3.813   2.917
24259SOL    HW174674   3.782   3.821   2.904
24259SOL    HW274675   3.913   3.812   2.829
24260SOL     OW74676   1.163   9.771   5.155
24260SOL    HW174677   1.188   9.825   5.230
24260SOL    HW274678   1.170   9.681   5.187
24261SOL     OW74679   1.911   3.786  14.070
24261SOL    HW174680   1.965   3.822  14.140
24261SOL    HW274681   1.837   3.845  14.063
24262SOL     OW74682   4.199  14.141   4.396
24262SOL    HW174683   4.129  14.154   4.331
24262SOL    HW274684   4.280  14.149   4.346
24263SOL     OW74685  10.586  13.157   1.689
24263SOL    HW174686  10.492  13.153   1.701
24263SOL    HW274687  10.620  13.177   1.777
24264SOL     OW74688   7.031  12.599  13.861
24264SOL    HW174689   7.039  12.641  13.775
24264SOL    HW274690   7.050  12.669  13.923
24265SOL     OW74691   0.492  12.855  11.156
24265SOL    HW174692   0.528  12.929  11.108
24265SOL    HW274693   0.458  12.893  11.237
24266SOL     OW74694  14.749   5.588   6.630
24266SOL    HW174695  14.782   5.589   6.540
24266SOL    HW274696  14.732   5.680   6.649
24267SOL     OW74697   7.531   6.501  10.585
24267SOL    HW174698   7.539   6.512  10.680
24267SOL    HW274699   7.618   6.523  10.551
24268SOL     OW74700   2.717   9.842  11.720
24268SOL    HW174701   2.655   9.866  11.789
24268SOL    HW274702   2.796   9.893  11.739
24269SOL     OW74703   6.004   2.798   0.852
24269SOL    HW174704   5.951   2.821   0.775
24269SOL    HW274705   6.024   2.883   0.893
24270SOL     OW74706  14.068   8.887  11.922
24270SOL    HW174707  14.139   8.869  11.862
24270SOL    HW274708  14.107   8.944  11.989
24271SOL     OW74709   2.741   1.533   3.806
24271SOL    HW174710   2.679   1.543   3.878
24271SOL    HW274711   2.818   1.493   3.845
24272SOL     OW74712   7.943   3.087   7.352
24272SOL    HW174713   8.022   3.048   7.315
24272SOL    HW274714   7.884   3.097   7.277
24273SOL     OW74715   5.788   9.704   9.935
24273SOL    HW174716   5.838   9.625   9.955
24273SOL    HW274717   5.698   9.682   9.956
24274SOL     OW74718   1.872   2.200  11.920
24274SOL    HW174719   1.830   2.232  11.999
24274SOL    HW274720   1.900   2.111  11.942
24275SOL     OW74721   8.812  10.234  12.422
24275SOL    HW174722   8.874  10.162  12.406
24275SOL    HW274723   8.857  10.312  12.389
24276SOL     OW74724   4.030   8.130   3.379
24276SOL    HW174725   4.096   8.196   3.400
24276SOL    HW274726   3.984   8.165   3.303
24277SOL     OW74727   5.113  12.851  12.869
24277SOL    HW174728   5.091  12.782  12.931
24277SOL    HW274729   5.125  12.806  12.785
24278SOL     OW74730  11.323   1.249   6.356
24278SOL    HW174731  11.253   1.184   6.363
24278SOL    HW274732  11.288   1.314   6.295
24279SOL     OW74733   9.837   4.723   1.876
24279SOL    HW174734   9.826   4.643   1.928
24279SOL    HW274735   9.882   4.783   1.935
24280SOL     OW74736   9.331   2.657   0.966
24280SOL    HW174737   9.291   2.715   1.031
24280SOL    HW274738   9.408   2.705   0.935
24281SOL     OW74739   9.127   8.605   7.439
24281SOL    HW174740   9.168   8.610   7.526
24281SOL    HW274741   9.087   8.518   7.437
24282SOL     OW74742  13.384  11.510  14.693
24282SOL    HW174743  13.480  11.517  14.696
24282SOL    HW274744  13.367  11.417  14.676
24283SOL     OW74745   7.709   0.982   7.492
24283SOL    HW174746   7.799   1.013   7.505
24283SOL    HW274747   7.659   1.061   7.469
24284SOL     OW74748   6.279   0.103  14.318
24284SOL    HW174749   6.370   0.134  14.313
24284SOL    HW274750   6.226   0.177  14.290
24285SOL     OW74751   9.250  13.842   9.619
24285SOL    HW174752   9.256  13.774   9.552
24285SOL    HW274753   9.203  13.914   9.577
24286SOL     OW74754   5.932   0.082   9.164
24286SOL    HW174755   5.927   0.119   9.075
24286SOL    HW274756   5.915   0.157   9.221
24287SOL     OW74757   8.025   4.968   6.367
24287SOL    HW174758   8.070   4.992   6.286
24287SOL    HW274759   8.092   4.972   6.434
24288SOL     OW74760   2.815   0.366   8.698
24288SOL    HW174761   2.756   0.296   8.669
24288SOL    HW274762   2.890   0.320   8.735
24289SOL     OW74763   3.480   9.759  12.162
24289SOL    HW174764   3.563   9.714  12.175
24289SOL    HW274765   3.430   9.740  12.241
24290SOL     OW74766  13.916   9.909   1.200
24290SOL    HW174767  13.935   9.968   1.127
24290SOL    HW274768  13.921   9.964   1.278
24291SOL     OW74769   9.953   3.793  11.085
24291SOL    HW174770   9.903   3.856  11.137
24291SOL    HW274771   9.974   3.723  11.147
24292SOL     OW74772   5.866  11.093   8.648
24292SOL    HW174773   5.915  11.047   8.716
24292SOL    HW274774   5.800  11.143   8.694
24293SOL     OW74775  11.320  11.441  14.372
24293SOL    HW174776  11.347  11.435  14.281
24293SOL    HW274777  11.285  11.529  14.382
24294SOL     OW74778   6.294   3.325   1.800
24294SOL    HW174779   6.234   3.400   1.806
24294SOL    HW274780   6.333   3.333   1.713
24295SOL     OW74781   3.463  12.345   8.027
24295SOL    HW174782   3.500  12.290   8.097
24295SOL    HW274783   3.372  12.315   8.019
24296SOL     OW74784   3.720   1.903  11.354
24296SOL    HW174785   3.694   1.838  11.419
24296SOL    HW274786   3.808   1.931  11.381
24297SOL     OW74787  12.210   4.408   5.104
24297SOL    HW174788  12.173   4.330   5.145
24297SOL    HW274789  12.293   4.378   5.067
24298SOL     OW74790  10.188   1.246   3.712
24298SOL    HW174791  10.165   1.218   3.800
24298SOL    HW274792  10.275   1.209   3.697
24299SOL     OW74793   1.840   0.126  12.797
24299SOL    HW174794   1.934   0.113  12.806
24299SOL    HW274795   1.820   0.095  12.709
24300SOL     OW74796  14.057  14.832  14.520
24300SOL    HW174797  13.970  14.867  14.541
24300SOL    HW274798  14.046  14.792  14.433
24301SOL     OW74799   9.210   4.391  13.635
24301SOL    HW174800   9.179   4.377  13.545
24301SOL    HW274801   9.131   4.400  13.687
24302SOL     OW74802  12.577   1.776   8.521
24302SOL    HW174803  12.539   1.693   8.493
24302SOL    HW274804  12.503   1.836   8.525
24303SOL     OW74805  10.031   0.801   3.595
24303SOL    HW174806   9.964   0.857   3.557
24303SOL    HW274807   9.984   0.750   3.662
24304SOL     OW74808  12.121   1.251   3.473
24304SOL    HW174809  12.152   1.342   3.480
24304SOL    HW274810  12.091   1.243   3.383
24305SOL     OW74811   2.147   2.376   3.598
24305SOL    HW174812   2.139   2.436   3.672
24305SOL    HW274813   2.145   2.432   3.521
24306SOL     OW74814  10.936   9.298   6.721
24306SOL    HW174815  10.960   9.238   6.650
24306SOL    HW274816  10.844   9.280   6.738
24307SOL     OW74817   5.842   9.305   9.302
24307SOL    HW174818   5.855   9.283   9.395
24307SOL    HW274819   5.872   9.228   9.254
24308SOL     OW74820   9.847   1.782   9.433
24308SOL    HW174821   9.921   1.843   9.426
24308SOL    HW274822   9.781   1.829   9.483
24309SOL     OW74823   5.653   3.683   3.754
24309SOL    HW174824   5.583   3.619   3.744
24309SOL    HW274825   5.638   3.722   3.840
24310SOL     OW74826   9.484  10.791  10.685
24310SOL    HW174827   9.544  10.805  10.612
24310SOL    HW274828   9.447  10.704  10.669
24311SOL     OW74829  12.948   2.170   8.974
24311SOL    HW174830  12.954   2.265   8.973
24311SOL    HW274831  12.955   2.144   8.883
24312SOL     OW74832  13.775  13.285   5.490
24312SOL    HW174833  13.850  13.271   5.432
24312SOL    HW274834  13.699  13.265   5.436
24313SOL     OW74835   5.027   2.805   5.750
24313SOL    HW174836   5.040   2.885   5.698
24313SOL    HW274837   5.083   2.818   5.827
24314SOL     OW74838   1.745  13.138  12.933
24314SOL    HW174839   1.798  13.133  13.012
24314SOL    HW274840   1.756  13.052  12.891
24315SOL     OW74841   8.139   2.998  13.163
24315SOL    HW174842   8.136   2.944  13.242
24315SOL    HW274843   8.198   3.069  13.185
24316SOL     OW74844   8.165   3.367   5.763
24316SOL    HW174845   8.238   3.425   5.745
24316SOL    HW274846   8.129   3.398   5.846
24317SOL     OW74847   7.648   3.507   6.589
24317SOL    HW174848   7.616   3.423   6.621
24317SOL    HW274849   7.719   3.485   6.529
24318SOL     OW74850   0.443   9.668   1.210
24318SOL    HW174851   0.521   9.717   1.236
24318SOL    HW274852   0.453   9.655   1.116
24319SOL     OW74853   0.256   5.350  12.030
24319SOL    HW174854   0.217   5.436  12.015
24319SOL    HW274855   0.279   5.349  12.123
24320SOL     OW74856   4.705  10.617  11.489
24320SOL    HW174857   4.767  10.685  11.463
24320SOL    HW274858   4.729  10.541  11.437
24321SOL     OW74859   6.928   2.864   0.789
24321SOL    HW174860   6.968   2.843   0.705
24321SOL    HW274861   6.928   2.960   0.793
24322SOL     OW74862   3.546   2.115   3.224
24322SOL    HW174863   3.580   2.150   3.142
24322SOL    HW274864   3.619   2.065   3.261
24323SOL     OW74865  13.449   4.236  14.445
24323SOL    HW174866  13.472   4.326  14.423
24323SOL    HW274867  13.375   4.215  14.388
24324SOL     OW74868  12.566   3.712  11.114
24324SOL    HW174869  12.512   3.743  11.042
24324SOL    HW274870  12.511   3.650  11.162
24325SOL     OW74871  14.285   0.593   4.833
24325SOL    HW174872  14.239   0.652   4.774
24325SOL    HW274873  14.246   0.507   4.817
24326SOL     OW74874  12.075   8.422   1.299
24326SOL    HW174875  12.026   8.502   1.280
24326SOL    HW274876  12.066   8.410   1.393
24327SOL     OW74877  10.311  13.196  14.221
24327SOL    HW174878  10.361  13.120  14.252
24327SOL    HW274879  10.355  13.223  14.141
24328SOL     OW74880  14.097   3.590  14.054
24328SOL    HW174881  14.014   3.557  14.020
24328SOL    HW274882  14.150   3.608  13.977
24329SOL     OW74883   9.011   5.014  12.253
24329SOL    HW174884   9.067   4.941  12.281
24329SOL    HW274885   8.943   5.019  12.321
24330SOL     OW74886   3.617   8.404  11.455
24330SOL    HW174887   3.656   8.489  11.475
24330SOL    HW274888   3.619   8.398  11.360
24331SOL     OW74889   7.579   3.851   1.124
24331SOL    HW174890   7.606   3.804   1.046
24331SOL    HW274891   7.500   3.805   1.154
24332SOL     OW74892  12.807   2.302   0.874
24332SOL    HW174893  12.764   2.234   0.822
24332SOL    HW274894  12.847   2.254   0.948
24333SOL     OW74895  13.110   3.370   8.298
24333SOL    HW174896  13.022   3.406   8.283
24333SOL    HW274897  13.161   3.444   8.328
24334SOL     OW74898  11.134   7.513   1.250
24334SOL    HW174899  11.045   7.507   1.283
24334SOL    HW274900  11.168   7.595   1.286
24335SOL     OW74901   8.521  13.803  10.757
24335SOL    HW174902   8.611  13.814  10.727
24335SOL    HW274903   8.489  13.727  10.708
24336SOL     OW74904  12.203   8.535   8.231
24336SOL    HW174905  12.136   8.483   8.275
24336SOL    HW274906  12.281   8.479   8.232
24337SOL     OW74907  12.108  12.662   3.547
24337SOL    HW174908  12.072  12.602   3.612
24337SOL    HW274909  12.093  12.749   3.585
24338SOL     OW74910   1.524   2.578   8.016
24338SOL    HW174911   1.465   2.614   8.082
24338SOL    HW274912   1.488   2.491   7.997
24339SOL     OW74913   4.478   0.924   3.319
24339SOL    HW174914   4.438   1.006   3.349
24339SOL    HW274915   4.419   0.856   3.350
24340SOL     OW74916   9.166   1.923   2.310
24340SOL    HW174917   9.242   1.865   2.307
24340SOL    HW274918   9.094   1.869   2.277
24341SOL     OW74919  10.103  13.459   5.921
24341SOL    HW174920  10.154  13.524   5.969
24341SOL    HW274921  10.108  13.380   5.974
24342SOL     OW74922  12.930   7.419   6.930
24342SOL    HW174923  12.873   7.425   6.854
24342SOL    HW274924  12.945   7.325   6.942
24343SOL     OW74925  13.575   9.497   7.164
24343SOL    HW174926  13.583   9.585   7.200
24343SOL    HW274927  13.562   9.441   7.240
24344SOL     OW74928   8.829   9.821  12.568
24344SOL    HW174929   8.876   9.755  12.619
24344SOL    HW274930   8.755   9.846  12.623
24345SOL     OW74931  12.392   2.687   1.444
24345SOL    HW174932  12.399   2.737   1.525
24345SOL    HW274933  12.341   2.610   1.467
24346SOL     OW74934  13.118   2.761  10.148
24346SOL    HW174935  13.171   2.710  10.086
24346SOL    HW274936  13.072   2.695  10.199
24347SOL     OW74937   1.484  14.721   7.755
24347SOL    HW174938   1.529  14.749   7.676
24347SOL    HW274939   1.442  14.639   7.730
24348SOL     OW74940  13.299  10.949   4.193
24348SOL    HW174941  13.363  10.909   4.252
24348SOL    HW274942  13.214  10.930   4.233
24349SOL     OW74943   3.753   8.059  14.847
24349SOL    HW174944   3.756   8.015  14.762
24349SOL    HW274945   3.683   8.123  14.839
24350SOL     OW74946   3.171   8.158  11.890
24350SOL    HW174947   3.182   8.100  11.815
24350SOL    HW274948   3.157   8.100  11.964
24351SOL     OW74949   5.890  12.531   0.774
24351SOL    HW174950   5.951  12.526   0.848
24351SOL    HW274951   5.810  12.490   0.807
24352SOL     OW74952   5.453  14.381   7.633
24352SOL    HW174953   5.440  14.342   7.719
24352SOL    HW274954   5.401  14.462   7.636
24353SOL     OW74955  14.063   2.272   1.631
24353SOL    HW174956  14.010   2.335   1.680
24353SOL    HW274957  14.111   2.224   1.698
24354SOL     OW74958  11.673   8.869   5.664
24354SOL    HW174959  11.687   8.962   5.648
24354SOL    HW274960  11.635   8.865   5.752
24355SOL     OW74961   3.855   4.208  13.433
24355SOL    HW174962   3.781   4.250  13.476
24355SOL    HW274963   3.882   4.269  13.364
24356SOL     OW74964  11.913   7.330   5.990
24356SOL    HW174965  11.883   7.339   6.080
24356SOL    HW274966  11.945   7.240   5.984
24357SOL     OW74967   0.346  10.228   1.966
24357SOL    HW174968   0.357  10.218   2.061
24357SOL    HW274969   0.435  10.236   1.932
24358SOL     OW74970   9.074   9.000   9.201
24358SOL    HW174971   9.011   9.054   9.249
24358SOL    HW274972   9.159   9.041   9.219
24359SOL     OW74973   6.734   7.954   3.238
24359SOL    HW174974   6.685   7.914   3.311
24359SOL    HW274975   6.717   7.895   3.164
24360SOL     OW74976  10.593   8.309  12.745
24360SOL    HW174977  10.628   8.378  12.690
24360SOL    HW274978  10.667   8.284  12.802
24361SOL     OW74979   4.950   3.200   2.075
24361SOL    HW174980   4.904   3.282   2.060
24361SOL    HW274981   4.978   3.205   2.167
24362SOL     OW74982  10.426   9.682   1.075
24362SOL    HW174983  10.388   9.723   0.998
24362SOL    HW274984  10.414   9.746   1.145
24363SOL     OW74985   5.133  10.866   1.526
24363SOL    HW174986   5.108  10.945   1.478
24363SOL    HW274987   5.139  10.894   1.617
24364SOL     OW74988   1.199   9.476  14.626
24364SOL    HW174989   1.237   9.561  14.601
24364SOL    HW274990   1.122   9.467  14.570
24365SOL     OW74991   5.253   0.515  13.279
24365SOL    HW174992   5.257   0.527  13.374
24365SOL    HW274993   5.163   0.538  13.256
24366SOL     OW74994   7.495   1.446  14.341
24366SOL    HW174995   7.406   1.465  14.313
24366SOL    HW274996   7.489   1.440  14.437
24367SOL     OW74997   1.712  10.927  10.307
24367SOL    HW174998   1.712  10.847  10.255
24367SOL    HW274999   1.701  10.997  10.242
24368SOL     OW75000  10.099   9.208  14.649
24368SOL    HW175001  10.092   9.214  14.554
24368SOL    HW275002  10.167   9.142  14.664
24369SOL     OW75003   3.298   2.337   7.729
24369SOL    HW175004   3.237   2.283   7.679
24369SOL    HW275005   3.291   2.305   7.819
24370SOL     OW75006   9.154   2.471   3.785
24370SOL    HW175007   9.158   2.565   3.806
24370SOL    HW275008   9.061   2.453   3.771
24371SOL     OW75009   9.007   8.739   1.259
24371SOL    HW175010   9.076   8.781   1.311
24371SOL    HW275011   8.948   8.810   1.236
24372SOL     OW75012  11.182   0.632  13.587
24372SOL    HW175013  11.108   0.681  13.625
24372SOL    HW275014  11.146   0.593  13.508
24373SOL     OW75015   1.428   9.416   5.154
24373SOL    HW175016   1.488   9.372   5.214
24373SOL    HW275017   1.362   9.350   5.134
24374SOL     OW75018   2.803  12.990   3.934
24374SOL    HW175019   2.755  13.055   3.986
24374SOL    HW275020   2.862  13.042   3.879
24375SOL     OW75021   7.626  12.668   5.951
24375SOL    HW175022   7.661  12.611   6.020
24375SOL    HW275023   7.686  12.743   5.950
24376SOL     OW75024   6.621   0.681   8.744
24376SOL    HW175025   6.629   0.775   8.731
24376SOL    HW275026   6.711   0.648   8.742
24377SOL     OW75027   7.175  10.429   5.731
24377SOL    HW175028   7.193  10.366   5.801
24377SOL    HW275029   7.153  10.375   5.655
24378SOL     OW75030  12.721   5.142   3.046
24378SOL    HW175031  12.675   5.204   3.102
24378SOL    HW275032  12.652   5.085   3.012
24379SOL     OW75033  11.057   2.464   6.338
24379SOL    HW175034  11.043   2.369   6.340
24379SOL    HW275035  11.006   2.498   6.411
24380SOL     OW75036   7.074   1.325  10.877
24380SOL    HW175037   7.075   1.299  10.969
24380SOL    HW275038   7.045   1.246  10.831
24381SOL     OW75039   7.404   2.867   9.859
24381SOL    HW175040   7.354   2.786   9.863
24381SOL    HW275041   7.407   2.890   9.766
24382SOL     OW75042  11.778   0.599   9.551
24382SOL    HW175043  11.747   0.517   9.512
24382SOL    HW275044  11.825   0.643   9.480
24383SOL     OW75045  11.724  12.322   2.019
24383SOL    HW175046  11.711  12.229   2.001
24383SOL    HW275047  11.655  12.366   1.969
24384SOL     OW75048   0.459  14.478   5.688
24384SOL    HW175049   0.400  14.494   5.762
24384SOL    HW275050   0.515  14.407   5.718
24385SOL     OW75051   8.651  11.741   5.404
24385SOL    HW175052   8.724  11.687   5.433
24385SOL    HW275053   8.676  11.770   5.316
24386SOL     OW75054  13.186   9.331   3.562
24386SOL    HW175055  13.159   9.239   3.560
24386SOL    HW275056  13.282   9.328   3.557
24387SOL     OW75057   4.404   3.110   8.052
24387SOL    HW175058   4.348   3.075   7.982
24387SOL    HW275059   4.342   3.137   8.120
24388SOL     OW75060   8.548  11.240  12.818
24388SOL    HW175061   8.602  11.317  12.801
24388SOL    HW275062   8.466  11.257  12.773
24389SOL     OW75063  11.323  13.081   0.408
24389SOL    HW175064  11.274  13.013   0.456
24389SOL    HW275065  11.257  13.145   0.384
24390SOL     OW75066   1.724  10.960  13.930
24390SOL    HW175067   1.800  11.001  13.972
24390SOL    HW275068   1.707  10.882  13.983
24391SOL     OW75069   1.762  12.018   6.937
24391SOL    HW175070   1.775  12.069   7.017
24391SOL    HW275071   1.847  11.978   6.920
24392SOL     OW75072  10.879   2.767  10.607
24392SOL    HW175073  10.911   2.727  10.687
24392SOL    HW275074  10.862   2.694  10.548
24393SOL     OW75075   7.935  11.937   1.970
24393SOL    HW175076   7.958  11.881   2.045
24393SOL    HW275077   7.840  11.927   1.961
24394SOL     OW75078   9.258  10.467  10.281
24394SOL    HW175079   9.193  10.408  10.240
24394SOL    HW275080   9.341  10.444  10.239
24395SOL     OW75081  14.088   0.792   1.935
24395SOL    HW175082  14.029   0.742   1.878
24395SOL    HW275083  14.163   0.734   1.948
24396SOL     OW75084   2.499   7.491   1.881
24396SOL    HW175085   2.575   7.491   1.938
24396SOL    HW275086   2.448   7.415   1.909
24397SOL     OW75087   1.491  13.799   2.983
24397SOL    HW175088   1.497  13.779   2.890
24397SOL    HW275089   1.496  13.714   3.027
24398SOL     OW75090   0.725  10.197   4.412
24398SOL    HW175091   0.771  10.160   4.487
24398SOL    HW275092   0.740  10.291   4.418
24399SOL     OW75093  13.164  11.350  13.813
24399SOL    HW175094  13.155  11.389  13.900
24399SOL    HW275095  13.256  11.326  13.807
24400SOL     OW75096   0.876   3.529   3.277
24400SOL    HW175097   0.939   3.563   3.213
24400SOL    HW275098   0.927   3.517   3.357
24401SOL     OW75099   6.824   3.280   7.454
24401SOL    HW175100   6.849   3.214   7.388
24401SOL    HW275101   6.775   3.345   7.405
24402SOL     OW75102   5.331   4.286  13.836
24402SOL    HW175103   5.257   4.278  13.896
24402SOL    HW275104   5.365   4.374  13.851
24403SOL     OW75105   0.891  10.426   0.719
24403SOL    HW175106   0.961  10.407   0.657
24403SOL    HW275107   0.890  10.522   0.726
24404SOL     OW75108   1.720   8.397   7.235
24404SOL    HW175109   1.715   8.492   7.245
24404SOL    HW275110   1.642   8.364   7.279
24405SOL     OW75111   2.951   1.969   2.626
24405SOL    HW175112   2.905   1.968   2.710
24405SOL    HW275113   2.954   1.878   2.599
24406SOL     OW75114  10.394  13.272   2.845
24406SOL    HW175115  10.479  13.229   2.842
24406SOL    HW275116  10.373  13.276   2.939
24407SOL     OW75117   7.240  14.021  12.130
24407SOL    HW175118   7.328  14.019  12.166
24407SOL    HW275119   7.226  14.113  12.106
24408SOL     OW75120   9.766  12.607  12.617
24408SOL    HW175121   9.785  12.574  12.705
24408SOL    HW275122   9.686  12.659  12.628
24409SOL     OW75123   7.117   9.238   6.421
24409SOL    HW175124   7.081   9.181   6.489
24409SOL    HW275125   7.121   9.183   6.343
24410SOL     OW75126   0.553   5.347  12.308
24410SOL    HW175127   0.607   5.323  12.233
24410SOL    HW275128   0.615   5.385  12.371
24411SOL     OW75129  11.290   1.315   1.291
24411SOL    HW175130  11.270   1.305   1.198
24411SOL    HW275131  11.377   1.355   1.293
24412SOL     OW75132   7.320  13.473  13.938
24412SOL    HW175133   7.235  13.458  13.896
24412SOL    HW275134   7.383  13.434  13.877
24413SOL     OW75135   6.192   3.559   0.424
24413SOL    HW175136   6.132   3.632   0.407
24413SOL    HW275137   6.159   3.518   0.504
24414SOL     OW75138  14.151   9.310  11.471
24414SOL    HW175139  14.226   9.270  11.427
24414SOL    HW275140  14.134   9.390  11.421
24415SOL     OW75141   5.655   5.544   3.671
24415SOL    HW175142   5.599   5.575   3.743
24415SOL    HW275143   5.714   5.617   3.653
24416SOL     OW75144   2.387  11.857   3.419
24416SOL    HW175145   2.434  11.931   3.457
24416SOL    HW275146   2.442  11.781   3.438
24417SOL     OW75147   1.163   2.366  11.619
24417SOL    HW175148   1.115   2.354  11.537
24417SOL    HW275149   1.137   2.453  11.649
24418SOL     OW75150  12.545  12.613  14.374
24418SOL    HW175151  12.571  12.629  14.283
24418SOL    HW275152  12.529  12.519  14.378
24419SOL     OW75153   5.362   8.533   8.561
24419SOL    HW175154   5.392   8.476   8.632
24419SOL    HW275155   5.436   8.590   8.542
24420SOL     OW75156  10.286   3.575   6.999
24420SOL    HW175157  10.380   3.582   6.982
24420SOL    HW275158  10.278   3.500   7.057
24421SOL     OW75159   8.969  11.268   2.692
24421SOL    HW175160   8.902  11.213   2.732
24421SOL    HW275161   9.052  11.226   2.715
24422SOL     OW75162  11.779  12.497   3.532
24422SOL    HW175163  11.817  12.410   3.532
24422SOL    HW275164  11.745  12.509   3.621
24423SOL     OW75165   8.584   5.329   4.762
24423SOL    HW175166   8.550   5.404   4.811
24423SOL    HW275167   8.655   5.366   4.709
24424SOL     OW75168   0.649   2.238   8.162
24424SOL    HW175169   0.723   2.298   8.167
24424SOL    HW275170   0.647   2.208   8.071
24425SOL     OW75171   7.155   8.794   5.840
24425SOL    HW175172   7.232   8.753   5.879
24425SOL    HW275173   7.189   8.874   5.800
24426SOL     OW75174   0.253  12.528  11.256
24426SOL    HW175175   0.344  12.539  11.285
24426SOL    HW275176   0.215  12.467  11.319
24427SOL     OW75177   4.288  10.341   5.380
24427SOL    HW175178   4.285  10.395   5.301
24427SOL    HW275179   4.335  10.262   5.353
24428SOL     OW75180  13.705  13.355   3.750
24428SOL    HW175181  13.738  13.407   3.676
24428SOL    HW275182  13.781  13.341   3.805
24429SOL     OW75183  11.605   0.191  10.420
24429SOL    HW175184  11.557   0.109  10.428
24429SOL    HW275185  11.649   0.185  10.335
24430SOL     OW75186  12.454  14.179   0.847
24430SOL    HW175187  12.529  14.184   0.906
24430SOL    HW275188  12.400  14.255   0.868
24431SOL     OW75189   6.109  14.776  14.295
24431SOL    HW175190   6.048  14.786  14.368
24431SOL    HW275191   6.176  14.844  14.311
24432SOL     OW75192  13.535  14.688   8.495
24432SOL    HW175193  13.568  14.685   8.405
24432SOL    HW275194  13.441  14.707   8.485
24433SOL     OW75195   8.242   8.068   5.016
24433SOL    HW175196   8.277   8.060   5.104
24433SOL    HW275197   8.200   7.984   4.999
24434SOL     OW75198   6.876   7.077   2.339
24434SOL    HW175199   6.930   7.073   2.260
24434SOL    HW275200   6.934   7.046   2.409
24435SOL     OW75201   6.461   9.260   3.197
24435SOL    HW175202   6.397   9.325   3.168
24435SOL    HW275203   6.482   9.209   3.119
24436SOL     OW75204   2.337   2.077   1.290
24436SOL    HW175205   2.379   2.009   1.344
24436SOL    HW275206   2.296   2.028   1.219
24437SOL     OW75207   4.877   1.827   6.036
24437SOL    HW175208   4.837   1.770   6.102
24437SOL    HW275209   4.828   1.810   5.956
24438SOL     OW75210   5.602  13.211   7.390
24438SOL    HW175211   5.529  13.156   7.364
24438SOL    HW275212   5.643  13.164   7.463
24439SOL     OW75213   8.772   0.486   4.178
24439SOL    HW175214   8.855   0.475   4.225
24439SOL    HW275215   8.734   0.566   4.216
24440SOL     OW75216   5.687   1.144   5.146
24440SOL    HW175217   5.592   1.153   5.136
24440SOL    HW275218   5.700   1.135   5.240
24441SOL     OW75219   4.055  14.239  14.100
24441SOL    HW175220   4.033  14.266  14.190
24441SOL    HW275221   4.110  14.161  14.112
24442SOL     OW75222  14.490   1.244  14.745
24442SOL    HW175223  14.417   1.304  14.761
24442SOL    HW275224  14.555   1.297  14.700
24443SOL     OW75225   4.037  10.415   8.548
24443SOL    HW175226   3.988  10.340   8.515
24443SOL    HW275227   4.122  10.378   8.573
24444SOL     OW75228   4.945  10.260  10.892
24444SOL    HW175229   4.944  10.166  10.907
24444SOL    HW275230   4.853  10.286  10.896
24445SOL     OW75231  12.668   4.513   2.578
24445SOL    HW175232  12.762   4.494   2.581
24445SOL    HW275233  12.626   4.427   2.573
24446SOL     OW75234  10.349  10.064   1.464
24446SOL    HW175235  10.401  10.142   1.484
24446SOL    HW275236  10.295  10.051   1.542
24447SOL     OW75237   2.234   9.278  14.820
24447SOL    HW175238   2.243   9.291   0.042
24447SOL    HW275239   2.324   9.273  14.788
24448SOL     OW75240   5.050  14.631   9.330
24448SOL    HW175241   5.107  14.681   9.389
24448SOL    HW275242   5.030  14.693   9.259
24449SOL     OW75243   1.554   9.048  10.494
24449SOL    HW175244   1.612   8.972  10.500
24449SOL    HW275245   1.593   9.112  10.554
24450SOL     OW75246  11.756   7.664   9.438
24450SOL    HW175247  11.761   7.751   9.399
24450SOL    HW275248  11.703   7.677   9.517
24451SOL     OW75249   2.095   6.934   8.078
24451SOL    HW175250   2.101   6.940   8.174
24451SOL    HW275251   2.063   7.020   8.050
24452SOL     OW75252   2.894   8.604   9.759
24452SOL    HW175253   2.833   8.531   9.767
24452SOL    HW275254   2.847   8.678   9.798
24453SOL     OW75255  12.247   7.237   1.369
24453SOL    HW175256  12.255   7.143   1.387
24453SOL    HW275257  12.287   7.280   1.445
24454SOL     OW75258   8.947   0.040  12.436
24454SOL    HW175259   8.886   0.003  12.372
24454SOL    HW275260   9.008   0.092  12.383
24455SOL     OW75261  12.002   7.107   0.822
24455SOL    HW175262  12.010   7.013   0.832
24455SOL    HW275263  12.011   7.142   0.910
24456SOL     OW75264  11.352   5.283   3.582
24456SOL    HW175265  11.380   5.228   3.509
24456SOL    HW275266  11.281   5.336   3.546
24457SOL     OW75267  14.449  14.214   3.675
24457SOL    HW175268  14.496  14.297   3.676
24457SOL    HW275269  14.401  14.212   3.758
24458SOL     OW75270  11.631   4.459  11.521
24458SOL    HW175271  11.699   4.515  11.559
24458SOL    HW275272  11.676   4.409  11.453
24459SOL     OW75273   1.733   6.754   3.266
24459SOL    HW175274   1.663   6.713   3.214
24459SOL    HW275275   1.767   6.682   3.320
24460SOL     OW75276   4.093   7.701   4.559
24460SOL    HW175277   4.162   7.710   4.493
24460SOL    HW275278   4.016   7.671   4.509
24461SOL     OW75279   3.971   7.415  12.443
24461SOL    HW175280   3.953   7.493  12.389
24461SOL    HW275281   3.951   7.342  12.385
24462SOL     OW75282  11.941   8.021   6.349
24462SOL    HW175283  11.857   8.065   6.364
24462SOL    HW275284  11.931   7.936   6.391
24463SOL     OW75285  13.128  14.552   5.847
24463SOL    HW175286  13.046  14.600   5.859
24463SOL    HW275287  13.130  14.531   5.754
24464SOL     OW75288   7.885  12.147   2.257
24464SOL    HW175289   7.893  12.058   2.291
24464SOL    HW275290   7.791  12.165   2.258
24465SOL     OW75291  10.117   6.048  11.204
24465SOL    HW175292  10.203   6.079  11.230
24465SOL    HW275293  10.112   6.067  11.111
24466SOL     OW75294   4.832   9.289   5.206
24466SOL    HW175295   4.737   9.286   5.212
24466SOL    HW275296   4.854   9.218   5.145
24467SOL     OW75297   2.821  13.641   1.134
24467SOL    HW175298   2.813  13.567   1.194
24467SOL    HW275299   2.783  13.610   1.052
24468SOL     OW75300  12.544  11.422   4.417
24468SOL    HW175301  12.525  11.501   4.367
24468SOL    HW275302  12.612  11.449   4.479
24469SOL     OW75303   6.227   5.694   4.970
24469SOL    HW175304   6.304   5.647   4.937
24469SOL    HW275305   6.167   5.695   4.896
24470SOL     OW75306   8.983  13.390  13.417
24470SOL    HW175307   8.967  13.447  13.493
24470SOL    HW275308   8.908  13.331  13.416
24471SOL     OW75309  14.326   7.082  14.516
24471SOL    HW175310  14.364   7.154  14.566
24471SOL    HW275311  14.366   7.003  14.554
24472SOL     OW75312  12.072   0.658   9.785
24472SOL    HW175313  11.982   0.689   9.787
24472SOL    HW275314  12.073   0.587   9.721
24473SOL     OW75315   5.499  11.856   0.963
24473SOL    HW175316   5.592  11.856   0.939
24473SOL    HW275317   5.455  11.813   0.890
24474SOL     OW75318   1.130   1.326   6.026
24474SOL    HW175319   1.056   1.366   6.073
24474SOL    HW275320   1.195   1.396   6.020
24475SOL     OW75321   9.052  14.607   2.512
24475SOL    HW175322   9.136  14.590   2.553
24475SOL    HW275323   9.001  14.528   2.527
24476SOL     OW75324   0.959  12.825   2.492
24476SOL    HW175325   0.882  12.825   2.549
24476SOL    HW275326   0.999  12.739   2.506
24477SOL     OW75327  13.603   5.201   2.457
24477SOL    HW175328  13.564   5.170   2.539
24477SOL    HW275329  13.677   5.255   2.485
24478SOL     OW75330   6.056   5.975  12.384
24478SOL    HW175331   6.031   5.931  12.303
24478SOL    HW275332   5.999   6.051  12.389
24479SOL     OW75333   0.564  12.997  12.503
24479SOL    HW175334   0.495  12.962  12.559
24479SOL    HW275335   0.634  13.021  12.564
24480SOL     OW75336   0.397  12.571   4.263
24480SOL    HW175337   0.471  12.610   4.310
24480SOL    HW275338   0.328  12.563   4.329
24481SOL     OW75339   6.351   3.813  14.764
24481SOL    HW175340   6.436   3.855  14.772
24481SOL    HW275341   6.311   3.824  14.850
24482SOL     OW75342   1.881   9.008  13.983
24482SOL    HW175343   1.947   9.064  13.943
24482SOL    HW275344   1.918   8.982  14.067
24483SOL     OW75345   3.039   3.204   2.692
24483SOL    HW175346   3.127   3.242   2.696
24483SOL    HW275347   2.981   3.280   2.682
24484SOL     OW75348   1.344   9.738   9.930
24484SOL    HW175349   1.327   9.729  10.023
24484SOL    HW275350   1.343   9.648   9.897
24485SOL     OW75351   1.161   0.942  10.144
24485SOL    HW175352   1.163   0.994  10.063
24485SOL    HW275353   1.176   1.005  10.214
24486SOL     OW75354   7.230   6.065   5.753
24486SOL    HW175355   7.167   5.995   5.739
24486SOL    HW275356   7.312   6.031   5.718
24487SOL     OW75357   0.933  12.069   7.145
24487SOL    HW175358   1.006  12.008   7.138
24487SOL    HW275359   0.873  12.043   7.075
24488SOL     OW75360   9.426   6.549  11.544
24488SOL    HW175361   9.404   6.588  11.629
24488SOL    HW275362   9.503   6.597  11.514
24489SOL     OW75363  11.260  12.957  10.292
24489SOL    HW175364  11.227  12.877  10.252
24489SOL    HW275365  11.251  12.942  10.387
24490SOL     OW75366   6.107   8.204   3.868
24490SOL    HW175367   6.026   8.254   3.875
24490SOL    HW275368   6.172   8.269   3.840
24491SOL     OW75369   5.461   6.596   1.048
24491SOL    HW175370   5.507   6.660   0.995
24491SOL    HW275371   5.517   6.518   1.045
24492SOL     OW75372   3.146  13.129   8.802
24492SOL    HW175373   3.170  13.211   8.845
24492SOL    HW275374   3.166  13.144   8.709
24493SOL     OW75375   0.613   9.725  10.730
24493SOL    HW175376   0.624   9.814  10.765
24493SOL    HW275377   0.576   9.676  10.804
24494SOL     OW75378   4.602  13.938  13.024
24494SOL    HW175379   4.609  13.881  13.101
24494SOL    HW275380   4.670  14.004  13.037
24495SOL     OW75381   1.908  11.308   4.716
24495SOL    HW175382   1.833  11.368   4.721
24495SOL    HW275383   1.937  11.298   4.806
24496SOL     OW75384   8.188   8.955   2.288
24496SOL    HW175385   8.126   8.897   2.245
24496SOL    HW275386   8.220   8.905   2.364
24497SOL     OW75387  10.773  10.937   6.790
24497SOL    HW175388  10.767  10.927   6.695
24497SOL    HW275389  10.687  10.912   6.822
24498SOL     OW75390   9.691   6.183  13.474
24498SOL    HW175391   9.695   6.210  13.382
24498SOL    HW275392   9.613   6.227  13.508
24499SOL     OW75393   4.831   5.510   8.220
24499SOL    HW175394   4.892   5.524   8.291
24499SOL    HW275395   4.745   5.509   8.261
24500SOL     OW75396   7.237   9.406   3.709
24500SOL    HW175397   7.269   9.339   3.649
24500SOL    HW275398   7.290   9.483   3.688
24501SOL     OW75399   7.929   9.451  10.226
24501SOL    HW175400   7.932   9.392  10.302
24501SOL    HW275401   8.014   9.439  10.183
24502SOL     OW75402  10.211   3.024  11.483
24502SOL    HW175403  10.163   3.074  11.548
24502SOL    HW275404  10.244   2.947  11.531
24503SOL     OW75405   4.808  11.912   2.429
24503SOL    HW175406   4.847  11.941   2.511
24503SOL    HW275407   4.819  11.817   2.430
24504SOL     OW75408   9.085   8.883   6.077
24504SOL    HW175409   9.142   8.835   6.136
24504SOL    HW275410   9.002   8.890   6.124
24505SOL     OW75411   0.734   9.208   8.071
24505SOL    HW175412   0.668   9.278   8.063
24505SOL    HW275413   0.688   9.136   8.112
24506SOL     OW75414  11.259   2.649   3.792
24506SOL    HW175415  11.203   2.679   3.864
24506SOL    HW275416  11.346   2.641   3.832
24507SOL     OW75417   1.521   8.147   0.172
24507SOL    HW175418   1.506   8.053   0.159
24507SOL    HW275419   1.523   8.158   0.267
24508SOL     OW75420  12.697  14.179   4.693
24508SOL    HW175421  12.769  14.197   4.634
24508SOL    HW275422  12.722  14.097   4.737
24509SOL     OW75423  10.761  14.508   7.753
24509SOL    HW175424  10.820  14.443   7.792
24509SOL    HW275425  10.715  14.547   7.828
24510SOL     OW75426   9.705  14.296   2.501
24510SOL    HW175427   9.713  14.391   2.513
24510SOL    HW275428   9.741  14.259   2.582
24511SOL     OW75429   1.869  10.080  11.477
24511SOL    HW175430   1.914  10.109  11.556
24511SOL    HW275431   1.777  10.076  11.502
24512SOL     OW75432   1.553   3.627  10.315
24512SOL    HW175433   1.515   3.645  10.401
24512SOL    HW275434   1.500   3.678  10.253
24513SOL     OW75435  10.928   9.680   2.453
24513SOL    HW175436  10.854   9.620   2.460
24513SOL    HW275437  10.917   9.740   2.527
24514SOL     OW75438   6.436  12.644   1.829
24514SOL    HW175439   6.396  12.587   1.763
24514SOL    HW275440   6.530  12.629   1.820
24515SOL     OW75441   4.367   9.895  13.380
24515SOL    HW175442   4.341   9.813  13.423
24515SOL    HW275443   4.416   9.866  13.303
24516SOL     OW75444  12.097   5.233   3.677
24516SOL    HW175445  12.031   5.240   3.746
24516SOL    HW275446  12.126   5.142   3.681
24517SOL     OW75447   4.227   2.191   1.718
24517SOL    HW175448   4.191   2.198   1.806
24517SOL    HW275449   4.279   2.111   1.720
24518SOL     OW75450   5.572   4.428   2.904
24518SOL    HW175451   5.541   4.495   2.965
24518SOL    HW275452   5.544   4.460   2.818
24519SOL     OW75453  12.490   2.874   7.591
24519SOL    HW175454  12.471   2.939   7.658
24519SOL    HW275455  12.447   2.907   7.512
24520SOL     OW75456   5.386  10.900   4.308
24520SOL    HW175457   5.338  10.877   4.228
24520SOL    HW275458   5.341  10.977   4.342
24521SOL     OW75459   3.001  10.718  10.846
24521SOL    HW175460   3.030  10.755  10.929
24521SOL    HW275461   3.080  10.678  10.809
24522SOL     OW75462  12.376   7.756  11.248
24522SOL    HW175463  12.422   7.672  11.253
24522SOL    HW275464  12.430   7.810  11.190
24523SOL     OW75465   1.435  13.935   5.875
24523SOL    HW175466   1.384  13.974   5.804
24523SOL    HW275467   1.510  13.895   5.831
24524SOL     OW75468   9.867  14.526  14.269
24524SOL    HW175469   9.885  14.436  14.242
24524SOL    HW275470   9.931  14.545  14.338
24525SOL     OW75471   2.997  10.038   5.630
24525SOL    HW175472   2.988  10.077   5.542
24525SOL    HW275473   3.092  10.037   5.646
24526SOL     OW75474  11.324   1.394   3.101
24526SOL    HW175475  11.372   1.321   3.141
24526SOL    HW275476  11.363   1.403   3.014
24527SOL     OW75477  12.552   4.650  10.560
24527SOL    HW175478  12.534   4.729  10.611
24527SOL    HW275479  12.479   4.644  10.499
24528SOL     OW75480   2.733  10.981  14.443
24528SOL    HW175481   2.763  11.056  14.391
24528SOL    HW275482   2.646  10.961  14.408
24529SOL     OW75483   2.453  13.798   7.188
24529SOL    HW175484   2.520  13.733   7.208
24529SOL    HW275485   2.501  13.880   7.175
24530SOL     OW75486   9.639  10.150   6.279
24530SOL    HW175487   9.561  10.109   6.315
24530SOL    HW275488   9.678  10.083   6.223
24531SOL     OW75489   7.012   5.026   0.172
24531SOL    HW175490   7.045   5.058   0.088
24531SOL    HW275491   7.088   5.026   0.230
24532SOL     OW75492   5.956  10.932   5.275
24532SOL    HW175493   5.987  11.021   5.289
24532SOL    HW275494   6.024  10.891   5.221
24533SOL     OW75495   4.722   1.327   0.274
24533SOL    HW175496   4.711   1.247   0.223
24533SOL    HW275497   4.644   1.331   0.329
24534SOL     OW75498  14.724   1.411   1.364
24534SOL    HW175499  14.734   1.496   1.408
24534SOL    HW275500  14.759   1.425   1.276
24535SOL     OW75501   8.945  13.153   3.035
24535SOL    HW175502   8.916  13.104   3.112
24535SOL    HW275503   9.010  13.096   2.994
24536SOL     OW75504  10.664  13.092   2.811
24536SOL    HW175505  10.642  13.008   2.771
24536SOL    HW275506  10.690  13.148   2.738
24537SOL     OW75507   4.514   0.693   1.506
24537SOL    HW175508   4.550   0.612   1.543
24537SOL    HW275509   4.436   0.710   1.558
24538SOL     OW75510   3.134   2.144   7.620
24538SOL    HW175511   3.143   2.050   7.630
24538SOL    HW275512   3.075   2.155   7.545
24539SOL     OW75513   3.293   0.318   7.813
24539SOL    HW175514   3.322   0.307   7.723
24539SOL    HW275515   3.363   0.368   7.855
24540SOL     OW75516   0.880   2.234  11.694
24540SOL    HW175517   0.929   2.241  11.775
24540SOL    HW275518   0.788   2.236  11.721
24541SOL     OW75519  11.684  11.256   1.328
24541SOL    HW175520  11.637  11.210   1.398
24541SOL    HW275521  11.722  11.186   1.275
24542SOL     OW75522   1.023   0.415   0.797
24542SOL    HW175523   0.964   0.388   0.726
24542SOL    HW275524   0.998   0.360   0.871
24543SOL     OW75525  11.653  11.167   0.016
24543SOL    HW175526  11.692  11.081  14.872
24543SOL    HW275527  11.561  11.147   0.037
24544SOL     OW75528   6.964  10.786   0.606
24544SOL    HW175529   6.909  10.826   0.540
24544SOL    HW275530   7.053  10.791   0.570
24545SOL     OW75531   0.108   6.147   3.702
24545SOL    HW175532   0.132   6.066   3.749
24545SOL    HW275533   0.067   6.116   3.621
24546SOL     OW75534   4.094   0.725  10.762
24546SOL    HW175535   4.080   0.632  10.746
24546SOL    HW275536   4.023   0.768  10.714
24547SOL     OW75537   2.871   8.146   1.190
24547SOL    HW175538   2.843   8.063   1.230
24547SOL    HW275539   2.953   8.167   1.236
24548SOL     OW75540   0.570   2.635   4.597
24548SOL    HW175541   0.609   2.662   4.680
24548SOL    HW275542   0.596   2.544   4.586
24549SOL     OW75543   3.416  13.876  12.550
24549SOL    HW175544   3.467  13.889  12.470
24549SOL    HW275545   3.372  13.960  12.565
24550SOL     OW75546   9.909   4.938   2.019
24550SOL    HW175547   9.843   5.001   1.989
24550SOL    HW275548   9.956   4.984   2.088
24551SOL     OW75549   4.285   5.632   5.896
24551SOL    HW175550   4.354   5.578   5.935
24551SOL    HW275551   4.244   5.574   5.831
24552SOL     OW75552   5.658   3.238  10.657
24552SOL    HW175553   5.733   3.214  10.602
24552SOL    HW275554   5.582   3.226  10.600
24553SOL     OW75555   7.509   4.908  10.837
24553SOL    HW175556   7.471   4.820  10.843
24553SOL    HW275557   7.570   4.913  10.911
24554SOL     OW75558   7.667  13.641  10.281
24554SOL    HW175559   7.640  13.726  10.316
24554SOL    HW275560   7.698  13.592  10.358
24555SOL     OW75561   3.417   6.234  12.260
24555SOL    HW175562   3.441   6.161  12.203
24555SOL    HW275563   3.501   6.267  12.291
24556SOL     OW75564  14.367   4.781  12.301
24556SOL    HW175565  14.332   4.869  12.284
24556SOL    HW275566  14.401   4.753  12.216
24557SOL     OW75567  14.643   3.018   9.526
24557SOL    HW175568  14.599   2.940   9.558
24557SOL    HW275569  14.590   3.046   9.451
24558SOL     OW75570  13.428  14.587   0.709
24558SOL    HW175571  13.386  14.547   0.633
24558SOL    HW275572  13.504  14.633   0.673
24559SOL     OW75573   4.001   6.859   4.053
24559SOL    HW175574   4.004   6.767   4.080
24559SOL    HW275575   3.929   6.863   3.991
24560SOL     OW75576   3.682   5.636   1.137
24560SOL    HW175577   3.587   5.638   1.146
24560SOL    HW275578   3.714   5.690   1.210
24561SOL     OW75579   0.916  12.111  10.564
24561SOL    HW175580   0.952  12.029  10.530
24561SOL    HW275581   0.834  12.085  10.607
24562SOL     OW75582  12.471   1.780   3.847
24562SOL    HW175583  12.539   1.839   3.814
24562SOL    HW275584  12.476   1.788   3.942
24563SOL     OW75585   5.561   1.157   4.268
24563SOL    HW175586   5.496   1.091   4.292
24563SOL    HW275587   5.554   1.164   4.173
24564SOL     OW75588   5.935   7.708   1.717
24564SOL    HW175589   5.907   7.758   1.793
24564SOL    HW275590   6.016   7.665   1.744
24565SOL     OW75591   2.823  12.816  10.274
24565SOL    HW175592   2.907  12.841  10.312
24565SOL    HW275593   2.778  12.898  10.259
24566SOL     OW75594   4.426   8.941  11.049
24566SOL    HW175595   4.353   8.879  11.047
24566SOL    HW275596   4.476   8.916  11.126
24567SOL     OW75597   0.921   9.928  11.989
24567SOL    HW175598   1.001   9.877  12.005
24567SOL    HW275599   0.950  10.004  11.940
24568SOL     OW75600   2.004   5.499   3.836
24568SOL    HW175601   1.919   5.492   3.880
24568SOL    HW275602   1.997   5.576   3.780
24569SOL     OW75603  12.565  11.671   2.499
24569SOL    HW175604  12.507  11.665   2.575
24569SOL    HW275605  12.508  11.698   2.427
24570SOL     OW75606   4.341  12.424  14.760
24570SOL    HW175607   4.344  12.520  14.758
24570SOL    HW275608   4.290  12.400  14.682
24571SOL     OW75609   3.166  11.972   9.971
24571SOL    HW175610   3.128  11.886   9.989
24571SOL    HW275611   3.103  12.034  10.006
24572SOL     OW75612   5.571  11.249   9.588
24572SOL    HW175613   5.594  11.341   9.596
24572SOL    HW275614   5.484  11.249   9.549
24573SOL     OW75615  14.748   6.957  10.435
24573SOL    HW175616  14.767   6.991  10.522
24573SOL    HW275617  14.757   6.862  10.444
24574SOL     OW75618  13.924   2.516  12.246
24574SOL    HW175619  14.014   2.547  12.258
24574SOL    HW275620  13.903   2.537  12.155
24575SOL     OW75621  13.305   6.320   0.856
24575SOL    HW175622  13.299   6.243   0.800
24575SOL    HW275623  13.219   6.361   0.850
24576SOL     OW75624   5.283   1.019  13.798
24576SOL    HW175625   5.318   1.059  13.719
24576SOL    HW275626   5.300   1.083  13.867
24577SOL     OW75627  12.596  10.063   7.244
24577SOL    HW175628  12.510  10.040   7.209
24577SOL    HW275629  12.591  10.156   7.262
24578SOL     OW75630   7.293   9.082   9.273
24578SOL    HW175631   7.267   8.996   9.239
24578SOL    HW275632   7.387   9.086   9.257
24579SOL     OW75633   0.625   2.021   6.024
24579SOL    HW175634   0.549   1.984   5.980
24579SOL    HW275635   0.671   1.945   6.060
24580SOL     OW75636   1.352   4.183  13.539
24580SOL    HW175637   1.436   4.151  13.507
24580SOL    HW275638   1.318   4.111  13.592
24581SOL     OW75639   9.907   8.542  10.184
24581SOL    HW175640   9.880   8.521  10.273
24581SOL    HW275641   9.836   8.509  10.129
24582SOL     OW75642  13.873   1.439   2.930
24582SOL    HW175643  13.924   1.432   2.849
24582SOL    HW275644  13.925   1.392   2.995
24583SOL     OW75645   8.783   6.326  10.598
24583SOL    HW175646   8.803   6.255  10.658
24583SOL    HW275647   8.868   6.352  10.562
24584SOL     OW75648   6.969  13.264   2.663
24584SOL    HW175649   6.917  13.213   2.726
24584SOL    HW275650   6.905  13.322   2.622
24585SOL     OW75651   0.618   5.912   9.266
24585SOL    HW175652   0.523   5.919   9.264
24585SOL    HW275653   0.640   5.895   9.357
24586SOL     OW75654  14.134   1.509   7.699
24586SOL    HW175655  14.202   1.575   7.714
24586SOL    HW275656  14.135   1.494   7.605
24587SOL     OW75657   4.091   0.382   9.894
24587SOL    HW175658   4.088   0.451   9.961
24587SOL    HW275659   4.006   0.339   9.901
24588SOL     OW75660   8.018   8.010   0.961
24588SOL    HW175661   7.991   8.016   1.052
24588SOL    HW275662   7.936   8.006   0.911
24589SOL     OW75663   3.950   1.254  10.325
24589SOL    HW175664   3.958   1.185  10.390
24589SOL    HW275665   3.868   1.298  10.346
24590SOL     OW75666  14.707   2.370   5.884
24590SOL    HW175667  14.763   2.420   5.942
24590SOL    HW275668  14.766   2.314   5.834
24591SOL     OW75669   9.513   6.395   3.337
24591SOL    HW175670   9.468   6.391   3.421
24591SOL    HW275671   9.451   6.436   3.277
24592SOL     OW75672   9.694   2.329  11.232
24592SOL    HW175673   9.613   2.378  11.218
24592SOL    HW275674   9.665   2.240  11.250
24593SOL     OW75675   4.089   8.285  11.048
24593SOL    HW175676   4.071   8.307  10.956
24593SOL    HW275677   4.081   8.190  11.052
24594SOL     OW75678   5.287   2.871   3.612
24594SOL    HW175679   5.283   2.959   3.651
24594SOL    HW275680   5.264   2.885   3.520
24595SOL     OW75681   2.036   9.612   3.208
24595SOL    HW175682   2.027   9.553   3.282
24595SOL    HW275683   2.128   9.637   3.207
24596SOL     OW75684   7.372   0.594   6.896
24596SOL    HW175685   7.281   0.623   6.887
24596SOL    HW275686   7.399   0.573   6.806
24597SOL     OW75687   8.779   0.722   7.296
24597SOL    HW175688   8.762   0.658   7.364
24597SOL    HW275689   8.818   0.797   7.342
24598SOL     OW75690   9.262   9.480  11.137
24598SOL    HW175691   9.207   9.548  11.176
24598SOL    HW275692   9.204   9.436  11.074
24599SOL     OW75693   4.954   3.192  13.725
24599SOL    HW175694   5.017   3.166  13.658
24599SOL    HW275695   4.882   3.233  13.676
24600SOL     OW75696   3.100   2.145   8.161
24600SOL    HW175697   3.026   2.200   8.184
24600SOL    HW275698   3.149   2.134   8.243
24601SOL     OW75699   3.066   5.090   8.064
24601SOL    HW175700   2.985   5.075   8.016
24601SOL    HW275701   3.042   5.077   8.156
24602SOL     OW75702   2.621   5.270   6.729
24602SOL    HW175703   2.664   5.188   6.755
24602SOL    HW275704   2.557   5.286   6.799
24603SOL     OW75705   8.352   6.119  14.854
24603SOL    HW175706   8.365   6.193   0.041
24603SOL    HW275707   8.431   6.119  14.799
24604SOL     OW75708   9.604   2.082   4.761
24604SOL    HW175709   9.681   2.026   4.758
24604SOL    HW275710   9.609   2.126   4.846
24605SOL     OW75711   2.972  11.411   8.639
24605SOL    HW175712   2.883  11.425   8.673
24605SOL    HW275713   3.016  11.495   8.652
24606SOL     OW75714   4.792   3.457   3.054
24606SOL    HW175715   4.852   3.384   3.070
24606SOL    HW275716   4.783   3.460   2.959
24607SOL     OW75717   4.775   4.701   7.173
24607SOL    HW175718   4.759   4.723   7.082
24607SOL    HW275719   4.762   4.606   7.178
24608SOL     OW75720  11.090   9.624  13.566
24608SOL    HW175721  11.165   9.584  13.609
24608SOL    HW275722  11.127   9.697  13.516
24609SOL     OW75723   3.272   1.009  14.454
24609SOL    HW175724   3.219   0.930  14.444
24609SOL    HW275725   3.311   1.023  14.368
24610SOL     OW75726  11.208   6.707   3.163
24610SOL    HW175727  11.187   6.715   3.070
24610SOL    HW275728  11.190   6.616   3.184
24611SOL     OW75729   6.964  12.834   2.723
24611SOL    HW175730   7.045  12.836   2.775
24611SOL    HW275731   6.985  12.884   2.645
24612SOL     OW75732   9.244   4.124  11.160
24612SOL    HW175733   9.187   4.050  11.179
24612SOL    HW275734   9.265   4.161  11.246
24613SOL     OW75735   1.620   8.966   0.472
24613SOL    HW175736   1.588   9.056   0.474
24613SOL    HW275737   1.542   8.913   0.484
24614SOL     OW75738   2.764   8.768   1.246
24614SOL    HW175739   2.751   8.702   1.314
24614SOL    HW275740   2.705   8.839   1.270
24615SOL     OW75741  14.197   6.103   3.668
24615SOL    HW175742  14.185   6.128   3.759
24615SOL    HW275743  14.121   6.047   3.648
24616SOL     OW75744   4.923   8.056   2.806
24616SOL    HW175745   4.852   8.022   2.861
24616SOL    HW275746   4.907   8.019   2.720
24617SOL     OW75747   6.695   8.613   2.906
24617SOL    HW175748   6.772   8.660   2.937
24617SOL    HW275749   6.694   8.532   2.958
24618SOL     OW75750  11.070  12.226   8.681
24618SOL    HW175751  11.068  12.149   8.624
24618SOL    HW275752  11.046  12.192   8.768
24619SOL     OW75753   8.457  12.384   0.610
24619SOL    HW175754   8.376  12.368   0.657
24619SOL    HW275755   8.441  12.465   0.561
24620SOL     OW75756  12.087   7.241   5.089
24620SOL    HW175757  12.041   7.290   5.157
24620SOL    HW275758  12.019   7.212   5.029
24621SOL     OW75759   6.839   9.369   5.768
24621SOL    HW175760   6.895   9.327   5.833
24621SOL    HW275761   6.899   9.416   5.711
24622SOL     OW75762   2.722  11.826   7.586
24622SOL    HW175763   2.746  11.906   7.539
24622SOL    HW275764   2.796  11.767   7.570
24623SOL     OW75765   3.177   8.980   9.672
24623SOL    HW175766   3.125   8.930   9.735
24623SOL    HW275767   3.116   9.043   9.634
24624SOL     OW75768   0.318   4.271   5.180
24624SOL    HW175769   0.310   4.178   5.199
24624SOL    HW275770   0.390   4.300   5.236
24625SOL     OW75771  12.135   1.187   4.334
24625SOL    HW175772  12.121   1.146   4.420
24625SOL    HW275773  12.224   1.221   4.338
24626SOL     OW75774  13.126  10.149  12.724
24626SOL    HW175775  13.215  10.114  12.717
24626SOL    HW275776  13.120  10.213  12.653
24627SOL     OW75777   9.515   3.094   9.496
24627SOL    HW175778   9.421   3.076   9.493
24627SOL    HW275779   9.531   3.153   9.423
24628SOL     OW75780   2.237  10.232   0.225
24628SOL    HW175781   2.272  10.255   0.139
24628SOL    HW275782   2.313  10.199   0.273
24629SOL     OW75783  12.379   5.484   6.931
24629SOL    HW175784  12.435   5.545   6.883
24629SOL    HW275785  12.302   5.536   6.954
24630SOL     OW75786   3.104   0.612   1.643
24630SOL    HW175787   3.044   0.585   1.573
24630SOL    HW275788   3.133   0.529   1.682
24631SOL     OW75789   2.528   7.796  10.820
24631SOL    HW175790   2.492   7.876  10.860
24631SOL    HW275791   2.620   7.817  10.804
24632SOL     OW75792   1.280  13.455   8.267
24632SOL    HW175793   1.281  13.369   8.226
24632SOL    HW275794   1.370  13.469   8.296
24633SOL     OW75795   9.543   8.307   9.843
24633SOL    HW175796   9.532   8.330   9.935
24633SOL    HW275797   9.619   8.358   9.814
24634SOL     OW75798   8.098   4.995  12.125
24634SOL    HW175799   8.057   4.910  12.110
24634SOL    HW275800   8.060   5.052  12.058
24635SOL     OW75801  13.379   2.149   4.646
24635SOL    HW175802  13.351   2.157   4.738
24635SOL    HW275803  13.375   2.238   4.612
24636SOL     OW75804   6.688   4.888   7.409
24636SOL    HW175805   6.770   4.912   7.365
24636SOL    HW275806   6.632   4.855   7.339
24637SOL     OW75807   4.979   0.554   5.018
24637SOL    HW175808   4.982   0.638   4.972
24637SOL    HW275809   4.923   0.498   4.965
24638SOL     OW75810  11.810   4.993   7.727
24638SOL    HW175811  11.881   4.933   7.706
24638SOL    HW275812  11.851   5.062   7.780
24639SOL     OW75813   9.592   5.246   1.224
24639SOL    HW175814   9.606   5.159   1.187
24639SOL    HW275815   9.681   5.283   1.233
24640SOL     OW75816   2.814  12.425  10.017
24640SOL    HW175817   2.734  12.410   9.966
24640SOL    HW275818   2.884  12.413   9.953
24641SOL     OW75819   3.623   4.697  12.520
24641SOL    HW175820   3.563   4.759  12.562
24641SOL    HW275821   3.683   4.752  12.470
24642SOL     OW75822  13.898  10.791   6.012
24642SOL    HW175823  13.815  10.836   5.999
24642SOL    HW275824  13.953  10.855   6.057
24643SOL     OW75825   9.273   5.034   0.468
24643SOL    HW175826   9.321   4.991   0.397
24643SOL    HW275827   9.332   5.028   0.543
24644SOL     OW75828   7.325   6.195  12.809
24644SOL    HW175829   7.401   6.208  12.752
24644SOL    HW275830   7.268   6.136  12.761
24645SOL     OW75831   8.228  14.395   8.615
24645SOL    HW175832   8.259  14.337   8.685
24645SOL    HW275833   8.167  14.454   8.658
24646SOL     OW75834  12.773  10.224   9.006
24646SOL    HW175835  12.734  10.311   8.994
24646SOL    HW275836  12.702  10.171   9.042
24647SOL     OW75837   8.648   3.392  10.596
24647SOL    HW175838   8.672   3.447  10.521
24647SOL    HW275839   8.731   3.356  10.626
24648SOL     OW75840  12.771   3.444   1.812
24648SOL    HW175841  12.770   3.500   1.889
24648SOL    HW275842  12.753   3.504   1.739
24649SOL     OW75843   5.573  14.823   1.207
24649SOL    HW175844   5.589  14.822   1.113
24649SOL    HW275845   5.586   0.042   1.232
24650SOL     OW75846  13.604   5.223   9.524
24650SOL    HW175847  13.611   5.317   9.545
24650SOL    HW275848  13.581   5.181   9.607
24651SOL     OW75849   2.047  13.942   3.797
24651SOL    HW175850   2.026  14.033   3.777
24651SOL    HW275851   2.114  13.917   3.733
24652SOL     OW75852   9.945  14.699   6.818
24652SOL    HW175853  10.015  14.634   6.817
24652SOL    HW275854   9.890  14.676   6.743
24653SOL     OW75855   6.807   0.920  11.590
24653SOL    HW175856   6.859   0.997  11.567
24653SOL    HW275857   6.849   0.886  11.670
24654SOL     OW75858   3.553   1.667   1.945
24654SOL    HW175859   3.566   1.635   2.034
24654SOL    HW275860   3.546   1.762   1.955
24655SOL     OW75861   4.511   7.477   5.267
24655SOL    HW175862   4.605   7.458   5.261
24655SOL    HW275863   4.478   7.416   5.333
24656SOL     OW75864   6.866  12.695  10.607
24656SOL    HW175865   6.894  12.755  10.538
24656SOL    HW275866   6.787  12.654  10.573
24657SOL     OW75867   8.134   3.818  11.674
24657SOL    HW175868   8.225   3.829  11.702
24657SOL    HW275869   8.083   3.844  11.751
24658SOL     OW75870   9.983  10.771  11.014
24658SOL    HW175871   9.993  10.695  10.957
24658SOL    HW275872   9.912  10.822  10.975
24659SOL     OW75873   3.011  13.452   8.753
24659SOL    HW175874   2.996  13.382   8.817
24659SOL    HW275875   3.053  13.407   8.679
24660SOL     OW75876   1.703   8.956   5.249
24660SOL    HW175877   1.686   8.882   5.307
24660SOL    HW275878   1.766   8.924   5.185
24661SOL     OW75879   9.225  13.662  12.436
24661SOL    HW175880   9.320  13.661  12.431
24661SOL    HW275881   9.203  13.751  12.464
24662SOL     OW75882  12.189   6.267   6.814
24662SOL    HW175883  12.210   6.284   6.906
24662SOL    HW275884  12.094   6.272   6.810
24663SOL     OW75885   7.751   4.774  12.740
24663SOL    HW175886   7.805   4.782  12.819
24663SOL    HW275887   7.716   4.685  12.744
24664SOL     OW75888  11.192   0.191   8.891
24664SOL    HW175889  11.269   0.138   8.873
24664SOL    HW275890  11.126   0.160   8.830
24665SOL     OW75891   7.027  14.355   7.648
24665SOL    HW175892   7.060  14.438   7.614
24665SOL    HW275893   6.964  14.325   7.582
24666SOL     OW75894   4.934   8.857   3.946
24666SOL    HW175895   4.984   8.794   3.894
24666SOL    HW275896   4.923   8.815   4.031
24667SOL     OW75897   3.972   2.819  10.461
24667SOL    HW175898   3.951   2.843  10.551
24667SOL    HW275899   4.066   2.800  10.463
24668SOL     OW75900   7.466   8.186  14.496
24668SOL    HW175901   7.414   8.111  14.464
24668SOL    HW275902   7.456   8.183  14.591
24669SOL     OW75903  11.073  11.091   6.226
24669SOL    HW175904  11.041  11.055   6.143
24669SOL    HW275905  11.167  11.101   6.213
24670SOL     OW75906   2.915   9.321   2.354
24670SOL    HW175907   2.848   9.388   2.366
24670SOL    HW275908   2.875   9.242   2.391
24671SOL     OW75909   6.719   1.545   2.880
24671SOL    HW175910   6.723   1.635   2.848
24671SOL    HW275911   6.775   1.545   2.958
24672SOL     OW75912   7.785   4.701   8.445
24672SOL    HW175913   7.810   4.646   8.520
24672SOL    HW275914   7.784   4.790   8.480
24673SOL     OW75915   6.088  12.628  13.591
24673SOL    HW175916   6.104  12.594  13.679
24673SOL    HW275917   6.000  12.599  13.569
24674SOL     OW75918  14.185   1.334   6.813
24674SOL    HW175919  14.143   1.248   6.821
24674SOL    HW275920  14.254   1.334   6.879
24675SOL     OW75921  14.737   0.775   6.548
24675SOL    HW175922  14.666   0.830   6.580
24675SOL    HW275923  14.722   0.769   6.454
24676SOL     OW75924   4.544  13.995  10.304
24676SOL    HW175925   4.585  14.080  10.286
24676SOL    HW275926   4.618  13.935  10.313
24677SOL     OW75927  13.994  13.182   0.358
24677SOL    HW175928  13.918  13.125   0.352
24677SOL    HW275929  13.999  13.225   0.272
24678SOL     OW75930   2.903   0.667   9.657
24678SOL    HW175931   2.960   0.656   9.581
24678SOL    HW275932   2.862   0.581   9.668
24679SOL     OW75933  11.478  11.986  10.386
24679SOL    HW175934  11.388  11.954  10.374
24679SOL    HW275935  11.468  12.064  10.441
24680SOL     OW75936  14.058  12.478   6.268
24680SOL    HW175937  14.063  12.520   6.354
24680SOL    HW275938  13.965  12.475   6.249
24681SOL     OW75939   3.075   6.168  13.563
24681SOL    HW175940   3.020   6.246  13.561
24681SOL    HW275941   3.088   6.145  13.471
24682SOL     OW75942  10.353   1.537   7.864
24682SOL    HW175943  10.274   1.553   7.915
24682SOL    HW275944  10.396   1.622   7.859
24683SOL     OW75945   5.859   7.943  14.643
24683SOL    HW175946   5.783   7.971  14.694
24683SOL    HW275947   5.844   7.850  14.627
24684SOL     OW75948   1.257  10.087   3.151
24684SOL    HW175949   1.289  10.138   3.077
24684SOL    HW275950   1.268  10.144   3.227
24685SOL     OW75951  14.594   0.536   8.066
24685SOL    HW175952  14.560   0.608   8.013
24685SOL    HW275953  14.603   0.463   8.005
24686SOL     OW75954  13.769   1.738   7.311
24686SOL    HW175955  13.724   1.674   7.366
24686SOL    HW275956  13.849   1.694   7.283
24687SOL     OW75957  11.529   1.740   7.521
24687SOL    HW175958  11.623   1.756   7.520
24687SOL    HW275959  11.513   1.687   7.443
24688SOL     OW75960  12.720  10.962   3.886
24688SOL    HW175961  12.683  11.034   3.834
24688SOL    HW275962  12.664  10.887   3.866
24689SOL     OW75963   9.666   6.436   6.595
24689SOL    HW175964   9.599   6.394   6.541
24689SOL    HW275965   9.639   6.528   6.600
24690SOL     OW75966   2.921   7.647  12.360
24690SOL    HW175967   2.919   7.734  12.320
24690SOL    HW275968   2.841   7.605  12.329
24691SOL     OW75969   0.186   5.589  11.931
24691SOL    HW175970   0.214   5.593  11.840
24691SOL    HW275971   0.091   5.602  11.928
24692SOL     OW75972   9.874  13.456  10.567
24692SOL    HW175973   9.830  13.428  10.647
24692SOL    HW275974   9.806  13.454  10.500
24693SOL     OW75975   7.096   1.429   0.238
24693SOL    HW175976   7.035   1.378   0.185
24693SOL    HW275977   7.179   1.426   0.190
24694SOL     OW75978   3.686   5.354  13.606
24694SOL    HW175979   3.775   5.372  13.575
24694SOL    HW275980   3.689   5.372  13.700
24695SOL     OW75981   0.152   5.022   2.477
24695SOL    HW175982   0.077   5.069   2.512
24695SOL    HW275983   0.222   5.037   2.540
24696SOL     OW75984  12.823   3.649  11.222
24696SOL    HW175985  12.744   3.658  11.168
24696SOL    HW275986  12.856   3.738  11.231
24697SOL     OW75987   5.641  13.727  12.340
24697SOL    HW175988   5.727  13.702  12.373
24697SOL    HW275989   5.652  13.728  12.244
24698SOL     OW75990   5.175   2.153  11.699
24698SOL    HW175991   5.142   2.078  11.648
24698SOL    HW275992   5.269   2.154  11.682
24699SOL     OW75993  14.503  10.168  10.570
24699SOL    HW175994  14.496  10.152  10.664
24699SOL    HW275995  14.433  10.116  10.531
24700SOL     OW75996   2.088   3.630   4.845
24700SOL    HW175997   2.085   3.538   4.873
24700SOL    HW275998   2.099   3.680   4.926
24701SOL     OW75999  10.443   7.625   4.147
24701SOL    HW176000  10.501   7.599   4.218
24701SOL    HW276001  10.479   7.708   4.115
24702SOL     OW76002   9.295   1.720   4.298
24702SOL    HW176003   9.330   1.675   4.220
24702SOL    HW276004   9.201   1.726   4.282
24703SOL     OW76005   0.007   9.591  11.057
24703SOL    HW176006   0.024   9.681  11.029
24703SOL    HW276007  14.802   9.597  11.113
24704SOL     OW76008   3.870  11.466   0.535
24704SOL    HW176009   3.795  11.479   0.476
24704SOL    HW276010   3.937  11.429   0.479
24705SOL     OW76011  13.494   9.103   9.443
24705SOL    HW176012  13.568   9.047   9.417
24705SOL    HW276013  13.417   9.049   9.427
24706SOL     OW76014   8.821  10.626  14.214
24706SOL    HW176015   8.883  10.689  14.179
24706SOL    HW276016   8.754  10.618  14.146
24707SOL     OW76017  14.079   3.743   8.766
24707SOL    HW176018  14.171   3.738   8.739
24707SOL    HW276019  14.050   3.652   8.768
24708SOL     OW76020   5.716   3.650  11.826
24708SOL    HW176021   5.790   3.657  11.886
24708SOL    HW276022   5.672   3.735  11.832
24709SOL     OW76023  10.102   6.016   1.138
24709SOL    HW176024  10.147   6.034   1.055
24709SOL    HW276025  10.139   5.933   1.167
24710SOL     OW76026   8.446  11.192   4.194
24710SOL    HW176027   8.351  11.192   4.205
24710SOL    HW276028   8.481  11.201   4.283
24711SOL     OW76029  11.553   8.338   1.502
24711SOL    HW176030  11.500   8.272   1.547
24711SOL    HW276031  11.533   8.326   1.410
24712SOL     OW76032  11.735   1.985  13.608
24712SOL    HW176033  11.754   1.892  13.620
24712SOL    HW276034  11.644   1.994  13.634
24713SOL     OW76035   0.372  11.507   7.483
24713SOL    HW176036   0.304  11.441   7.469
24713SOL    HW276037   0.333  11.589   7.451
24714SOL     OW76038   9.262  12.872  13.131
24714SOL    HW176039   9.312  12.950  13.110
24714SOL    HW276040   9.218  12.893  13.213
24715SOL     OW76041   0.232   2.590   7.895
24715SOL    HW176042   0.313   2.630   7.926
24715SOL    HW276043   0.164   2.654   7.916
24716SOL     OW76044  13.549   4.989  13.457
24716SOL    HW176045  13.641   4.976  13.478
24716SOL    HW276046  13.502   4.961  13.535
24717SOL     OW76047  10.885   1.586  10.433
24717SOL    HW176048  10.855   1.670  10.468
24717SOL    HW276049  10.905   1.533  10.511
24718SOL     OW76050   8.595  14.559   2.188
24718SOL    HW176051   8.664  14.625   2.201
24718SOL    HW276052   8.606  14.532   2.097
24719SOL     OW76053   5.749   1.160   3.286
24719SOL    HW176054   5.767   1.117   3.202
24719SOL    HW276055   5.670   1.212   3.270
24720SOL     OW76056   1.458   1.564  12.167
24720SOL    HW176057   1.447   1.482  12.119
24720SOL    HW276058   1.414   1.630  12.112
24721SOL     OW76059   4.717  14.020  12.103
24721SOL    HW176060   4.718  13.924  12.108
24721SOL    HW276061   4.693  14.048  12.191
24722SOL     OW76062  14.826   6.580   5.915
24722SOL    HW176063  14.819   6.649   5.981
24722SOL    HW276064  14.745   6.531   5.923
24723SOL     OW76065  10.724   2.439   8.555
24723SOL    HW176066  10.737   2.468   8.464
24723SOL    HW276067  10.804   2.393   8.577
24724SOL     OW76068   1.092   9.892   5.863
24724SOL    HW176069   1.135   9.926   5.785
24724SOL    HW276070   1.024   9.957   5.883
24725SOL     OW76071   0.472   4.762   8.444
24725SOL    HW176072   0.490   4.842   8.395
24725SOL    HW276073   0.550   4.708   8.431
24726SOL     OW76074  13.269   6.746  12.432
24726SOL    HW176075  13.228   6.692  12.500
24726SOL    HW276076  13.202   6.752  12.364
24727SOL     OW76077   0.189   0.388  14.403
24727SOL    HW176078   0.281   0.368  14.384
24727SOL    HW276079   0.153   0.304  14.431
24728SOL     OW76080   2.700  14.119  12.542
24728SOL    HW176081   2.782  14.166  12.560
24728SOL    HW276082   2.633  14.188  12.541
24729SOL     OW76083   2.361   7.904  11.070
24729SOL    HW176084   2.278   7.922  11.113
24729SOL    HW276085   2.423   7.965  11.111
24730SOL     OW76086   6.438   2.891  13.857
24730SOL    HW176087   6.430   2.861  13.948
24730SOL    HW276088   6.388   2.828  13.806
24731SOL     OW76089   6.295   6.866  12.301
24731SOL    HW176090   6.379   6.836  12.265
24731SOL    HW276091   6.229   6.818  12.251
24732SOL     OW76092  11.705  11.394   2.187
24732SOL    HW176093  11.636  11.337   2.151
24732SOL    HW276094  11.707  11.373   2.280
24733SOL     OW76095  14.071   8.567   2.307
24733SOL    HW176096  14.064   8.600   2.397
24733SOL    HW276097  14.146   8.507   2.310
24734SOL     OW76098   9.999   1.258  13.716
24734SOL    HW176099  10.009   1.314  13.793
24734SOL    HW276100   9.905   1.244  13.709
24735SOL     OW76101   9.416   0.446   9.291
24735SOL    HW176102   9.346   0.494   9.247
24735SOL    HW276103   9.485   0.511   9.305
24736SOL     OW76104   5.719  12.772   4.774
24736SOL    HW176105   5.761  12.828   4.709
24736SOL    HW276106   5.699  12.831   4.847
24737SOL     OW76107  12.449   6.722   3.695
24737SOL    HW176108  12.492   6.657   3.640
24737SOL    HW276109  12.361   6.731   3.658
24738SOL     OW76110   0.011  11.982   6.470
24738SOL    HW176111   0.004  12.076   6.450
24738SOL    HW276112   0.053  11.978   6.556
24739SOL     OW76113   5.155  11.972   6.690
24739SOL    HW176114   5.226  11.986   6.627
24739SOL    HW276115   5.133  11.880   6.682
24740SOL     OW76116   0.528  14.685  10.799
24740SOL    HW176117   0.559  14.774  10.817
24740SOL    HW276118   0.451  14.675  10.854
24741SOL     OW76119   8.115   9.217   4.774
24741SOL    HW176120   8.191   9.166   4.745
24741SOL    HW276121   8.045   9.153   4.783
24742SOL     OW76122   1.348  11.166   5.595
24742SOL    HW176123   1.376  11.245   5.549
24742SOL    HW276124   1.379  11.094   5.539
24743SOL     OW76125   4.658   3.952  14.522
24743SOL    HW176126   4.737   4.005  14.511
24743SOL    HW276127   4.671   3.906  14.604
24744SOL     OW76128  12.766   2.256  11.242
24744SOL    HW176129  12.803   2.302  11.167
24744SOL    HW276130  12.680   2.296  11.255
24745SOL     OW76131   4.464   5.184  11.498
24745SOL    HW176132   4.475   5.168  11.404
24745SOL    HW276133   4.554   5.194  11.530
24746SOL     OW76134   6.536  12.185  13.452
24746SOL    HW176135   6.500  12.269  13.424
24746SOL    HW276136   6.541  12.192  13.547
24747SOL     OW76137   5.179  10.826   2.278
24747SOL    HW176138   5.241  10.828   2.205
24747SOL    HW276139   5.096  10.853   2.239
24748SOL     OW76140   8.116   4.077  11.214
24748SOL    HW176141   8.130   4.007  11.277
24748SOL    HW276142   8.024   4.101  11.224
24749SOL     OW76143  13.816   6.033   1.451
24749SOL    HW176144  13.842   6.120   1.479
24749SOL    HW276145  13.729   6.020   1.490
24750SOL     OW76146  14.688   9.014   6.346
24750SOL    HW176147  14.728   8.968   6.272
24750SOL    HW276148  14.594   9.006   6.331
24751SOL     OW76149   3.159   7.459   6.758
24751SOL    HW176150   3.223   7.513   6.803
24751SOL    HW276151   3.207   7.380   6.732
24752SOL     OW76152   6.429  12.795   4.898
24752SOL    HW176153   6.401  12.821   4.810
24752SOL    HW276154   6.358  12.739   4.930
24753SOL     OW76155   0.058   1.793  10.125
24753SOL    HW176156   0.152   1.802  10.113
24753SOL    HW276157   0.041   1.699  10.116
24754SOL     OW76158   3.340   7.732   3.032
24754SOL    HW176159   3.307   7.784   3.105
24754SOL    HW276160   3.426   7.702   3.060
24755SOL     OW76161   8.322   0.833   5.833
24755SOL    HW176162   8.334   0.928   5.832
24755SOL    HW276163   8.232   0.819   5.802
24756SOL     OW76164  12.404   5.067   8.409
24756SOL    HW176165  12.413   5.102   8.321
24756SOL    HW276166  12.493   5.064   8.444
24757SOL     OW76167   4.489   2.609   7.188
24757SOL    HW176168   4.526   2.574   7.107
24757SOL    HW276169   4.465   2.699   7.165
24758SOL     OW76170   4.678   8.939  12.779
24758SOL    HW176171   4.721   8.969  12.859
24758SOL    HW276172   4.592   8.908  12.809
24759SOL     OW76173  11.354   8.171   0.184
24759SOL    HW176174  11.334   8.235   0.115
24759SOL    HW276175  11.317   8.089   0.152
24760SOL     OW76176  10.156  10.971   4.645
24760SOL    HW176177  10.196  11.034   4.705
24760SOL    HW276178  10.119  10.904   4.702
24761SOL     OW76179  11.045   2.872  13.407
24761SOL    HW176180  11.002   2.840  13.487
24761SOL    HW276181  10.977   2.921  13.361
24762SOL     OW76182  10.302   4.363   6.283
24762SOL    HW176183  10.298   4.388   6.375
24762SOL    HW276184  10.212   4.337   6.261
24763SOL     OW76185   5.421   4.941   6.126
24763SOL    HW176186   5.471   4.951   6.045
24763SOL    HW276187   5.483   4.958   6.196
24764SOL     OW76188   2.280   7.057  10.493
24764SOL    HW176189   2.292   7.099  10.408
24764SOL    HW276190   2.367   7.026  10.518
24765SOL     OW76191   8.938   7.702   0.522
24765SOL    HW176192   8.911   7.739   0.607
24765SOL    HW276193   8.863   7.650   0.494
24766SOL     OW76194   3.367  13.351  12.949
24766SOL    HW176195   3.398  13.296  12.878
24766SOL    HW276196   3.273  13.359  12.933
24767SOL     OW76197   3.968  13.721  10.110
24767SOL    HW176198   3.921  13.645  10.145
24767SOL    HW276199   3.928  13.736  10.024
24768SOL     OW76200  14.021  12.526   7.986
24768SOL    HW176201  13.928  12.548   7.992
24768SOL    HW276202  14.060  12.566   8.064
24769SOL     OW76203   1.629  13.445   8.532
24769SOL    HW176204   1.571  13.382   8.575
24769SOL    HW276205   1.570  13.513   8.499
24770SOL     OW76206  13.398  11.331   0.243
24770SOL    HW176207  13.355  11.285   0.171
24770SOL    HW276208  13.356  11.417   0.246
24771SOL     OW76209   8.727   3.673   8.538
24771SOL    HW176210   8.732   3.600   8.600
24771SOL    HW276211   8.815   3.681   8.503
24772SOL     OW76212  11.428   3.302   5.589
24772SOL    HW176213  11.362   3.317   5.521
24772SOL    HW276214  11.511   3.327   5.548
24773SOL     OW76215   3.130   2.203   6.844
24773SOL    HW176216   3.094   2.280   6.887
24773SOL    HW276217   3.219   2.228   6.820
24774SOL     OW76218   9.063   5.245   2.119
24774SOL    HW176219   9.023   5.180   2.061
24774SOL    HW276220   9.012   5.241   2.199
24775SOL     OW76221   2.083  10.877   1.071
24775SOL    HW176222   2.138  10.810   1.110
24775SOL    HW276223   2.043  10.835   0.995
24776SOL     OW76224   9.484   6.882   7.242
24776SOL    HW176225   9.579   6.885   7.244
24776SOL    HW276226   9.456   6.957   7.294
24777SOL     OW76227   2.489   2.110   0.264
24777SOL    HW176228   2.496   2.154   0.349
24777SOL    HW276229   2.580   2.105   0.233
24778SOL     OW76230   5.764   6.034  13.121
24778SOL    HW176231   5.714   6.115  13.108
24778SOL    HW276232   5.707   5.979  13.175
24779SOL     OW76233   0.240   6.162   6.953
24779SOL    HW176234   0.249   6.257   6.956
24779SOL    HW276235   0.152   6.144   6.985
24780SOL     OW76236   2.889  10.373   0.400
24780SOL    HW176237   2.795  10.370   0.421
24780SOL    HW276238   2.904  10.295   0.346
24781SOL     OW76239  13.414   9.272   8.269
24781SOL    HW176240  13.387   9.323   8.346
24781SOL    HW276241  13.401   9.332   8.195
24782SOL     OW76242  12.456   5.004   3.834
24782SOL    HW176243  12.512   4.932   3.864
24782SOL    HW276244  12.482   5.079   3.888
24783SOL     OW76245  10.290   0.161   0.946
24783SOL    HW176246  10.319   0.231   0.888
24783SOL    HW276247  10.346   0.087   0.923
24784SOL     OW76248   4.795   1.255   9.910
24784SOL    HW176249   4.762   1.277   9.997
24784SOL    HW276250   4.716   1.243   9.858
24785SOL     OW76251   2.459  12.595   9.997
24785SOL    HW176252   2.471  12.513   9.951
24785SOL    HW276253   2.526  12.595  10.065
24786SOL     OW76254  11.464   4.157   6.797
24786SOL    HW176255  11.476   4.067   6.827
24786SOL    HW276256  11.436   4.205   6.875
24787SOL     OW76257  13.521   8.299   1.633
24787SOL    HW176258  13.514   8.394   1.642
24787SOL    HW276259  13.470   8.279   1.555
24788SOL     OW76260   9.130  11.984  12.760
24788SOL    HW176261   9.194  12.053  12.775
24788SOL    HW276262   9.180  11.912  12.720
24789SOL     OW76263   1.627  13.785   5.374
24789SOL    HW176264   1.541  13.791   5.415
24789SOL    HW276265   1.610  13.797   5.281
24790SOL     OW76266  13.861   5.235  11.888
24790SOL    HW176267  13.825   5.316  11.850
24790SOL    HW276268  13.787   5.175  11.890
24791SOL     OW76269   3.884  13.560  12.284
24791SOL    HW176270   3.826  13.578  12.359
24791SOL    HW276271   3.830  13.578  12.207
24792SOL     OW76272  12.877  12.151   6.261
24792SOL    HW176273  12.815  12.092   6.304
24792SOL    HW276274  12.889  12.114   6.174
24793SOL     OW76275   7.498  10.751   8.145
24793SOL    HW176276   7.593  10.752   8.129
24793SOL    HW276277   7.475  10.658   8.140
24794SOL     OW76278   1.966   7.043   8.972
24794SOL    HW176279   1.979   7.068   8.880
24794SOL    HW276280   2.031   7.095   9.020
24795SOL     OW76281   5.065   4.437   6.926
24795SOL    HW176282   5.147   4.485   6.921
24795SOL    HW276283   5.060   4.408   7.017
24796SOL     OW76284   5.774  13.505  10.136
24796SOL    HW176285   5.845  13.542  10.084
24796SOL    HW276286   5.740  13.580  10.186
24797SOL     OW76287   2.055   5.725   6.451
24797SOL    HW176288   2.014   5.793   6.397
24797SOL    HW276289   1.999   5.648   6.438
24798SOL     OW76290  10.269   6.165   7.375
24798SOL    HW176291  10.236   6.141   7.288
24798SOL    HW276292  10.336   6.099   7.393
24799SOL     OW76293   8.873   4.594   4.460
24799SOL    HW176294   8.818   4.672   4.457
24799SOL    HW276295   8.835   4.536   4.394
24800SOL     OW76296   6.784   2.690   5.299
24800SOL    HW176297   6.780   2.612   5.244
24800SOL    HW276298   6.717   2.748   5.263
24801SOL     OW76299   1.168  13.457   1.933
24801SOL    HW176300   1.155  13.490   2.022
24801SOL    HW276301   1.124  13.372   1.932
24802SOL     OW76302  12.692   5.983   2.166
24802SOL    HW176303  12.784   5.972   2.141
24802SOL    HW276304  12.668   6.069   2.132
24803SOL     OW76305   1.574   9.939   8.699
24803SOL    HW176306   1.632   9.867   8.723
24803SOL    HW276307   1.486   9.901   8.703
24804SOL     OW76308   7.412  13.738   7.917
24804SOL    HW176309   7.338  13.711   7.971
24804SOL    HW276310   7.404  13.686   7.837
24805SOL     OW76311   2.495   4.088  12.099
24805SOL    HW176312   2.487   4.052  12.187
24805SOL    HW276313   2.587   4.075  12.076
24806SOL     OW76314   0.891  11.145  12.160
24806SOL    HW176315   0.982  11.169  12.178
24806SOL    HW276316   0.897  11.062  12.112
24807SOL     OW76317  11.110   3.546   8.735
24807SOL    HW176318  11.101   3.560   8.829
24807SOL    HW276319  11.113   3.451   8.725
24808SOL     OW76320  10.027  10.013  10.979
24808SOL    HW176321  10.048  10.086  10.922
24808SOL    HW276322   9.936   9.991  10.957
24809SOL     OW76323   0.696   4.986   6.770
24809SOL    HW176324   0.724   4.999   6.680
24809SOL    HW276325   0.773   4.948   6.814
24810SOL     OW76326   6.488   4.968   0.053
24810SOL    HW176327   6.478   5.021   0.132
24810SOL    HW276328   6.527   5.028  14.861
24811SOL     OW76329   6.652   5.395   3.926
24811SOL    HW176330   6.625   5.394   4.018
24811SOL    HW276331   6.580   5.439   3.881
24812SOL     OW76332  10.929   7.917   8.820
24812SOL    HW176333  10.990   7.860   8.866
24812SOL    HW276334  10.978   7.947   8.743
24813SOL     OW76335   5.309   4.036   7.154
24813SOL    HW176336   5.318   3.957   7.207
24813SOL    HW276337   5.263   4.007   7.075
24814SOL     OW76338   9.141   1.732  11.396
24814SOL    HW176339   9.208   1.801  11.400
24814SOL    HW276340   9.157   1.680  11.475
24815SOL     OW76341   0.274   2.982  10.998
24815SOL    HW176342   0.292   2.903  11.048
24815SOL    HW276343   0.281   3.054  11.061
24816SOL     OW76344   6.027  14.196   7.879
24816SOL    HW176345   6.120  14.182   7.894
24816SOL    HW276346   5.986  14.182   7.965
24817SOL     OW76347  10.167  11.927   5.757
24817SOL    HW176348  10.165  11.860   5.688
24817SOL    HW276349  10.093  11.984   5.736
24818SOL     OW76350  14.744  12.523   1.032
24818SOL    HW176351  14.705  12.583   0.968
24818SOL    HW276352  14.784  12.580   1.098
24819SOL     OW76353   1.449   6.150  13.825
24819SOL    HW176354   1.544   6.145  13.820
24819SOL    HW276355   1.427   6.228  13.773
24820SOL     OW76356   0.034   3.061  13.143
24820SOL    HW176357   0.102   3.010  13.099
24820SOL    HW276358   0.006   3.006  13.216
24821SOL     OW76359   8.505   8.966   0.426
24821SOL    HW176360   8.553   8.916   0.360
24821SOL    HW276361   8.520   8.920   0.508
24822SOL     OW76362   9.456   5.599  14.193
24822SOL    HW176363   9.429   5.531  14.255
24822SOL    HW276364   9.544   5.624  14.221
24823SOL     OW76365   8.199   0.856   1.050
24823SOL    HW176366   8.279   0.894   1.014
24823SOL    HW276367   8.196   0.886   1.140
24824SOL     OW76368   9.257  11.320   9.677
24824SOL    HW176369   9.163  11.305   9.677
24824SOL    HW276370   9.279  11.336   9.769
24825SOL     OW76371   1.575   7.862   6.001
24825SOL    HW176372   1.648   7.802   5.989
24825SOL    HW276373   1.499   7.815   5.964
24826SOL     OW76374   8.284   9.812  13.979
24826SOL    HW176375   8.251   9.794  13.891
24826SOL    HW276376   8.301   9.725  14.016
24827SOL     OW76377   1.794   0.726   3.879
24827SOL    HW176378   1.794   0.822   3.878
24827SOL    HW276379   1.886   0.702   3.886
24828SOL     OW76380   9.167  12.031   6.706
24828SOL    HW176381   9.243  12.070   6.662
24828SOL    HW276382   9.192  12.026   6.798
24829SOL     OW76383   8.102   3.216   9.440
24829SOL    HW176384   8.105   3.253   9.529
24829SOL    HW276385   8.075   3.289   9.385
24830SOL     OW76386   0.307   4.225   7.347
24830SOL    HW176387   0.323   4.137   7.382
24830SOL    HW276388   0.221   4.250   7.381
24831SOL     OW76389   3.267  13.404  10.630
24831SOL    HW176390   3.358  13.431  10.642
24831SOL    HW276391   3.270  13.343  10.556
24832SOL     OW76392  14.468   9.532   2.282
24832SOL    HW176393  14.508   9.512   2.366
24832SOL    HW276394  14.379   9.558   2.303
24833SOL     OW76395   4.192   5.042  10.682
24833SOL    HW176396   4.262   5.091  10.639
24833SOL    HW276397   4.238   4.973  10.730
24834SOL     OW76398  13.208   4.081  11.986
24834SOL    HW176399  13.293   4.097  11.945
24834SOL    HW276400  13.202   3.985  11.992
24835SOL     OW76401   9.155   8.107  14.259
24835SOL    HW176402   9.217   8.120  14.330
24835SOL    HW276403   9.189   8.030  14.212
24836SOL     OW76404  10.282   4.962   7.996
24836SOL    HW176405  10.233   4.911   7.931
24836SOL    HW276406  10.340   5.017   7.943
24837SOL     OW76407   8.702  11.084   3.957
24837SOL    HW176408   8.739  11.164   3.994
24837SOL    HW276409   8.609  11.089   3.977
24838SOL     OW76410  11.179  14.054   6.867
24838SOL    HW176411  11.178  14.050   6.963
24838SOL    HW276412  11.096  14.016   6.840
24839SOL     OW76413   1.527  14.155   1.093
24839SOL    HW176414   1.592  14.206   1.141
24839SOL    HW276415   1.502  14.210   1.019
24840SOL     OW76416   1.482  11.481   3.265
24840SOL    HW176417   1.403  11.515   3.306
24840SOL    HW276418   1.523  11.557   3.224
24841SOL     OW76419   2.341  10.915   1.866
24841SOL    HW176420   2.329  10.822   1.886
24841SOL    HW276421   2.313  10.924   1.775
24842SOL     OW76422   1.331  13.214   8.114
24842SOL    HW176423   1.306  13.235   8.024
24842SOL    HW276424   1.313  13.121   8.123
24843SOL     OW76425   4.466   0.232   8.121
24843SOL    HW176426   4.375   0.255   8.104
24843SOL    HW276427   4.515   0.312   8.100
24844SOL     OW76428  10.999  14.548   6.502
24844SOL    HW176429  11.083  14.573   6.539
24844SOL    HW276430  10.943  14.624   6.516
24845SOL     OW76431   4.233   8.471   5.936
24845SOL    HW176432   4.195   8.423   6.009
24845SOL    HW276433   4.243   8.405   5.867
24846SOL     OW76434   9.719   3.278  11.079
24846SOL    HW176435   9.666   3.342  11.033
24846SOL    HW276436   9.803   3.277  11.032
24847SOL     OW76437   4.842   8.346  13.397
24847SOL    HW176438   4.752   8.323  13.418
24847SOL    HW276439   4.867   8.284  13.329
24848SOL     OW76440   9.033  14.680   1.731
24848SOL    HW176441   9.060  14.736   1.803
24848SOL    HW276442   9.104  14.618   1.720
24849SOL     OW76443  13.905   1.139  10.162
24849SOL    HW176444  13.849   1.132  10.239
24849SOL    HW276445  13.993   1.154  10.197
24850SOL     OW76446   2.786   0.071  11.181
24850SOL    HW176447   2.795   0.039  11.271
24850SOL    HW276448   2.726   0.009  11.140
24851SOL     OW76449  13.704  10.827  13.786
24851SOL    HW176450  13.685  10.733  13.788
24851SOL    HW276451  13.694  10.851  13.694
24852SOL     OW76452  11.742   9.211  14.345
24852SOL    HW176453  11.748   9.284  14.284
24852SOL    HW276454  11.652   9.178  14.335
24853SOL     OW76455  12.573   4.129   8.768
24853SOL    HW176456  12.523   4.178   8.833
24853SOL    HW276457  12.619   4.062   8.818
24854SOL     OW76458   3.918   2.516  11.335
24854SOL    HW176459   3.883   2.462  11.264
24854SOL    HW276460   3.952   2.594  11.292
24855SOL     OW76461   3.620   9.593   7.137
24855SOL    HW176462   3.670   9.648   7.198
24855SOL    HW276463   3.531   9.590   7.174
24856SOL     OW76464  10.704  10.221   7.126
24856SOL    HW176465  10.649  10.144   7.109
24856SOL    HW276466  10.702  10.231   7.221
24857SOL     OW76467   9.218   8.668  13.321
24857SOL    HW176468   9.219   8.572  13.320
24857SOL    HW276469   9.217   8.693  13.229
24858SOL     OW76470  11.687  11.814   5.158
24858SOL    HW176471  11.772  11.859   5.163
24858SOL    HW276472  11.630  11.875   5.111
24859SOL     OW76473   0.064   6.282   2.254
24859SOL    HW176474   0.090   6.334   2.330
24859SOL    HW276475   0.110   6.324   2.180
24860SOL     OW76476   7.803   4.224   6.109
24860SOL    HW176477   7.817   4.295   6.172
24860SOL    HW276478   7.880   4.227   6.051
24861SOL     OW76479   3.704   3.090  13.855
24861SOL    HW176480   3.716   3.031  13.929
24861SOL    HW276481   3.629   3.053  13.807
24862SOL     OW76482   7.575  10.962  11.156
24862SOL    HW176483   7.506  10.911  11.113
24862SOL    HW276484   7.529  11.017  11.218
24863SOL     OW76485  12.933   4.031   0.251
24863SOL    HW176486  12.962   3.966   0.315
24863SOL    HW276487  13.012   4.080   0.228
24864SOL     OW76488   9.531   7.156  12.468
24864SOL    HW176489   9.608   7.180  12.519
24864SOL    HW276490   9.527   7.221  12.398
24865SOL     OW76491   5.473   6.378  12.817
24865SOL    HW176492   5.527   6.328  12.756
24865SOL    HW276493   5.384   6.365  12.786
24866SOL     OW76494  13.041   1.238   6.958
24866SOL    HW176495  13.057   1.164   7.016
24866SOL    HW276496  13.019   1.311   7.016
24867SOL     OW76497   8.461   5.323   2.254
24867SOL    HW176498   8.451   5.349   2.162
24867SOL    HW276499   8.556   5.323   2.268
24868SOL     OW76500  11.560   9.369   6.386
24868SOL    HW176501  11.632   9.324   6.431
24868SOL    HW276502  11.542   9.446   6.440
24869SOL     OW76503  13.873   9.058   8.255
24869SOL    HW176504  13.935   8.987   8.246
24869SOL    HW276505  13.787   9.018   8.239
24870SOL     OW76506  13.878   7.185   9.609
24870SOL    HW176507  13.939   7.167   9.537
24870SOL    HW276508  13.882   7.280   9.621
24871SOL     OW76509   5.090   3.045  10.837
24871SOL    HW176510   5.067   3.070  10.927
24871SOL    HW276511   5.129   3.124  10.800
24872SOL     OW76512   3.004   0.803   9.193
24872SOL    HW176513   2.909   0.799   9.182
24872SOL    HW276514   3.020   0.758   9.277
24873SOL     OW76515  11.656  10.398   4.351
24873SOL    HW176516  11.719  10.393   4.422
24873SOL    HW276517  11.669  10.316   4.302
24874SOL     OW76518   9.241   3.515   3.028
24874SOL    HW176519   9.279   3.444   2.976
24874SOL    HW276520   9.299   3.590   3.013
24875SOL     OW76521  12.310   9.909   6.185
24875SOL    HW176522  12.268   9.950   6.261
24875SOL    HW276523  12.334   9.822   6.216
24876SOL     OW76524  11.639  14.253   6.179
24876SOL    HW176525  11.702  14.254   6.252
24876SOL    HW276526  11.553  14.259   6.221
24877SOL     OW76527  14.500   8.317  13.237
24877SOL    HW176528  14.463   8.398  13.273
24877SOL    HW276529  14.434   8.250  13.256
24878SOL     OW76530   5.290   0.254  10.258
24878SOL    HW176531   5.352   0.181  10.258
24878SOL    HW276532   5.342   0.328  10.290
24879SOL     OW76533   1.933   0.658  12.534
24879SOL    HW176534   1.970   0.697  12.613
24879SOL    HW276535   1.993   0.588  12.511
24880SOL     OW76536   2.314   7.276  10.754
24880SOL    HW176537   2.279   7.325  10.828
24880SOL    HW276538   2.310   7.336  10.681
24881SOL     OW76539   3.513  11.870  11.779
24881SOL    HW176540   3.575  11.942  11.777
24881SOL    HW276541   3.428  11.911  11.791
24882SOL     OW76542   8.845  14.748   6.663
24882SOL    HW176543   8.798  14.781   6.586
24882SOL    HW276544   8.793  14.780   6.737
24883SOL     OW76545   8.167   5.602   4.344
24883SOL    HW176546   8.153   5.507   4.347
24883SOL    HW276547   8.254   5.614   4.381
24884SOL     OW76548   0.981  14.143   0.976
24884SOL    HW176549   1.025  14.224   0.948
24884SOL    HW276550   1.042  14.074   0.953
24885SOL     OW76551  13.847  12.700   6.355
24885SOL    HW176552  13.905  12.664   6.422
24885SOL    HW276553  13.811  12.780   6.395
24886SOL     OW76554   6.373  12.763   2.567
24886SOL    HW176555   6.324  12.796   2.491
24886SOL    HW276556   6.458  12.739   2.532
24887SOL     OW76557   5.650   9.138   1.045
24887SOL    HW176558   5.618   9.137   1.135
24887SOL    HW276559   5.606   9.214   1.005
24888SOL     OW76560   4.509   4.449   2.514
24888SOL    HW176561   4.486   4.472   2.604
24888SOL    HW276562   4.566   4.520   2.485
24889SOL     OW76563  11.263  11.240   5.334
24889SOL    HW176564  11.178  11.283   5.334
24889SOL    HW276565  11.245  11.152   5.300
24890SOL     OW76566  14.013   2.523   0.559
24890SOL    HW176567  13.949   2.590   0.535
24890SOL    HW276568  13.960   2.450   0.593
24891SOL     OW76569  12.631   6.515   5.832
24891SOL    HW176570  12.629   6.446   5.899
24891SOL    HW276571  12.552   6.500   5.780
24892SOL     OW76572  12.099   4.367  12.782
24892SOL    HW176573  12.025   4.316  12.816
24892SOL    HW276574  12.176   4.328  12.823
24893SOL     OW76575  10.247  11.897   4.375
24893SOL    HW176576  10.226  11.881   4.283
24893SOL    HW276577  10.163  11.921   4.415
24894SOL     OW76578  12.630  12.986   5.603
24894SOL    HW176579  12.692  12.936   5.550
24894SOL    HW276580  12.632  13.074   5.566
24895SOL     OW76581   7.173   0.114   6.901
24895SOL    HW176582   7.108   0.044   6.908
24895SOL    HW276583   7.185   0.144   6.991
24896SOL     OW76584   1.183  13.150   4.157
24896SOL    HW176585   1.094  13.163   4.124
24896SOL    HW276586   1.238  13.199   4.096
24897SOL     OW76587   8.882   2.788  10.581
24897SOL    HW176588   8.841   2.707  10.610
24897SOL    HW276589   8.974   2.778  10.605
24898SOL     OW76590  13.478   3.734   4.868
24898SOL    HW176591  13.539   3.804   4.891
24898SOL    HW276592  13.532   3.654   4.867
24899SOL     OW76593  11.704   6.394   8.623
24899SOL    HW176594  11.714   6.445   8.703
24899SOL    HW276595  11.791   6.396   8.581
24900SOL     OW76596   2.897   7.296  12.250
24900SOL    HW176597   2.811   7.330  12.274
24900SOL    HW276598   2.896   7.292  12.155
24901SOL     OW76599  13.939   9.729   8.074
24901SOL    HW176600  13.939   9.784   7.995
24901SOL    HW276601  13.998   9.657   8.053
24902SOL     OW76602   4.243   3.436   0.168
24902SOL    HW176603   4.302   3.475   0.104
24902SOL    HW276604   4.186   3.507   0.195
24903SOL     OW76605   8.742   5.683   9.717
24903SOL    HW176606   8.734   5.761   9.662
24903SOL    HW276607   8.836   5.662   9.715
24904SOL     OW76608   5.063   7.853  10.462
24904SOL    HW176609   5.122   7.876  10.390
24904SOL    HW276610   5.119   7.851  10.539
24905SOL     OW76611  13.661  14.817   2.575
24905SOL    HW176612  13.659   0.026   2.525
24905SOL    HW276613  13.612  14.836   2.655
24906SOL     OW76614  12.677  10.730   8.612
24906SOL    HW176615  12.672  10.788   8.688
24906SOL    HW276616  12.684  10.790   8.537
24907SOL     OW76617   3.194   2.556  10.265
24907SOL    HW176618   3.099   2.567  10.261
24907SOL    HW276619   3.227   2.595  10.185
24908SOL     OW76620   6.818   5.362   3.178
24908SOL    HW176621   6.776   5.372   3.264
24908SOL    HW276622   6.895   5.419   3.183
24909SOL     OW76623   0.548  10.207   5.708
24909SOL    HW176624   0.580  10.247   5.627
24909SOL    HW276625   0.627  10.177   5.753
24910SOL     OW76626  11.182   2.838  13.942
24910SOL    HW176627  11.171   2.772  13.874
24910SOL    HW276628  11.122   2.813  14.011
24911SOL     OW76629   2.355   7.142   4.265
24911SOL    HW176630   2.264   7.152   4.292
24911SOL    HW276631   2.373   7.219   4.212
24912SOL     OW76632   5.721  12.792  11.046
24912SOL    HW176633   5.799  12.814  11.097
24912SOL    HW276634   5.721  12.696  11.043
24913SOL     OW76635   0.062   6.089  11.527
24913SOL    HW176636   0.038   6.095  11.435
24913SOL    HW276637   0.047   6.176  11.562
24914SOL     OW76638  11.981   7.518   3.325
24914SOL    HW176639  11.960   7.466   3.402
24914SOL    HW276640  11.897   7.552   3.296
24915SOL     OW76641   9.723   2.804  12.434
24915SOL    HW176642   9.737   2.843  12.347
24915SOL    HW276643   9.690   2.716  12.415
24916SOL     OW76644   8.983   4.740  13.618
24916SOL    HW176645   9.064   4.730  13.666
24916SOL    HW276646   8.957   4.831  13.633
24917SOL     OW76647   7.865   7.780  10.696
24917SOL    HW176648   7.794   7.735  10.650
24917SOL    HW276649   7.908   7.833  10.628
24918SOL     OW76650   8.560   2.167   8.312
24918SOL    HW176651   8.594   2.230   8.376
24918SOL    HW276652   8.598   2.083   8.338
24919SOL     OW76653   7.929   4.559  11.564
24919SOL    HW176654   8.009   4.527  11.607
24919SOL    HW276655   7.953   4.567  11.472
24920SOL     OW76656   1.780   2.105   6.854
24920SOL    HW176657   1.849   2.041   6.871
24920SOL    HW276658   1.710   2.055   6.811
24921SOL     OW76659  14.468   7.180   9.573
24921SOL    HW176660  14.474   7.148   9.483
24921SOL    HW276661  14.374   7.178   9.593
24922SOL     OW76662   6.895   2.632  11.897
24922SOL    HW176663   6.897   2.723  11.927
24922SOL    HW276664   6.876   2.638  11.803
24923SOL     OW76665  12.223   9.163   0.271
24923SOL    HW176666  12.145   9.112   0.253
24923SOL    HW276667  12.294   9.114   0.231
24924SOL     OW76668  13.943   2.032  14.842
24924SOL    HW176669  13.878   1.974   0.010
24924SOL    HW276670  13.923   2.029  14.748
24925SOL     OW76671  10.261   0.886   3.470
24925SOL    HW176672  10.225   0.929   3.393
24925SOL    HW276673  10.184   0.863   3.522
24926SOL     OW76674   9.837  12.560   3.785
24926SOL    HW176675   9.766  12.512   3.743
24926SOL    HW276676   9.829  12.649   3.751
24927SOL     OW76677  12.806  12.960   5.813
24927SOL    HW176678  12.744  12.957   5.740
24927SOL    HW276679  12.752  12.949   5.891
24928SOL     OW76680   0.179   2.817  10.233
24928SOL    HW176681   0.260   2.766  10.233
24928SOL    HW276682   0.197   2.890  10.293
24929SOL     OW76683  13.475  13.141   7.465
24929SOL    HW176684  13.479  13.234   7.488
24929SOL    HW276685  13.509  13.096   7.542
24930SOL     OW76686   3.463   0.320   7.171
24930SOL    HW176687   3.432   0.256   7.107
24930SOL    HW276688   3.512   0.268   7.235
24931SOL     OW76689  10.857  14.231  14.554
24931SOL    HW176690  10.920  14.162  14.576
24931SOL    HW276691  10.855  14.287  14.631
24932SOL     OW76692   0.703   0.255   8.265
24932SOL    HW176693   0.756   0.290   8.337
24932SOL    HW276694   0.722   0.161   8.266
24933SOL     OW76695   2.862   2.146   9.937
24933SOL    HW176696   2.858   2.056   9.908
24933SOL    HW276697   2.804   2.194   9.878
24934SOL     OW76698   6.353   0.838  10.754
24934SOL    HW176699   6.445   0.838  10.726
24934SOL    HW276700   6.355   0.872  10.844
24935SOL     OW76701   4.623   5.155   7.708
24935SOL    HW176702   4.705   5.187   7.669
24935SOL    HW276703   4.647   5.073   7.750
24936SOL     OW76704   5.645   6.189   7.827
24936SOL    HW176705   5.689   6.159   7.907
24936SOL    HW276706   5.717   6.211   7.768
24937SOL     OW76707   3.514  11.906   0.320
24937SOL    HW176708   3.477  11.899   0.408
24937SOL    HW276709   3.451  11.959   0.271
24938SOL     OW76710   9.795  10.757  14.738
24938SOL    HW176711   9.847  10.827  14.778
24938SOL    HW276712   9.764  10.706  14.813
24939SOL     OW76713  13.172  13.797  11.812
24939SOL    HW176714  13.207  13.863  11.752
24939SOL    HW276715  13.201  13.825  11.898
24940SOL     OW76716  13.067  11.194  12.493
24940SOL    HW176717  13.028  11.239  12.567
24940SOL    HW276718  13.037  11.104  12.501
24941SOL     OW76719   2.726   0.235   9.544
24941SOL    HW176720   2.764   0.300   9.484
24941SOL    HW276721   2.716   0.156   9.490
24942SOL     OW76722  14.232  11.861  11.856
24942SOL    HW176723  14.279  11.882  11.936
24942SOL    HW276724  14.257  11.771  11.836
24943SOL     OW76725   1.807   4.981   2.799
24943SOL    HW176726   1.883   4.971   2.857
24943SOL    HW276727   1.801   4.896   2.754
24944SOL     OW76728   3.078   2.445   9.621
24944SOL    HW176729   3.141   2.457   9.549
24944SOL    HW276730   3.076   2.350   9.634
24945SOL     OW76731   6.185   6.109  12.018
24945SOL    HW176732   6.097   6.145  12.028
24945SOL    HW276733   6.199   6.106  11.923
24946SOL     OW76734   3.010   8.587  13.364
24946SOL    HW176735   3.066   8.656  13.327
24946SOL    HW276736   3.065   8.508  13.361
24947SOL     OW76737   5.417   7.623  10.338
24947SOL    HW176738   5.454   7.543  10.300
24947SOL    HW276739   5.343   7.644  10.281
24948SOL     OW76740  12.102   7.955  10.967
24948SOL    HW176741  12.097   7.864  10.995
24948SOL    HW276742  12.158   7.998  11.032
24949SOL     OW76743   6.850   1.507  13.780
24949SOL    HW176744   6.815   1.436  13.833
24949SOL    HW276745   6.918   1.547  13.835
24950SOL     OW76746   1.586   0.906   9.149
24950SOL    HW176747   1.641   0.844   9.100
24950SOL    HW276748   1.537   0.851   9.210
24951SOL     OW76749   1.734   1.733   0.899
24951SOL    HW176750   1.693   1.669   0.841
24951SOL    HW276751   1.688   1.723   0.982
24952SOL     OW76752   1.867   1.100   2.273
24952SOL    HW176753   1.898   1.010   2.268
24952SOL    HW276754   1.818   1.105   2.354
24953SOL     OW76755  12.277  13.093   2.934
24953SOL    HW176756  12.250  13.147   3.008
24953SOL    HW276757  12.366  13.064   2.956
24954SOL     OW76758   4.652  11.816  12.408
24954SOL    HW176759   4.668  11.904  12.374
24954SOL    HW276760   4.559  11.815  12.429
24955SOL     OW76761   5.143  11.647   7.332
24955SOL    HW176762   5.090  11.582   7.286
24955SOL    HW276763   5.110  11.731   7.302
24956SOL     OW76764  12.551   8.798   6.214
24956SOL    HW176765  12.578   8.862   6.280
24956SOL    HW276766  12.624   8.736   6.210
24957SOL     OW76767   4.800   2.235  14.388
24957SOL    HW176768   4.865   2.200  14.327
24957SOL    HW276769   4.849   2.258  14.466
24958SOL     OW76770  11.094  13.846   4.601
24958SOL    HW176771  11.031  13.868   4.669
24958SOL    HW276772  11.147  13.776   4.639
24959SOL     OW76773   0.702   3.040   3.002
24959SOL    HW176774   0.658   3.105   2.946
24959SOL    HW276775   0.676   2.956   2.965
24960SOL     OW76776   2.266  10.570   2.659
24960SOL    HW176777   2.301  10.518   2.587
24960SOL    HW276778   2.267  10.510   2.734
24961SOL     OW76779  12.138   3.249   2.181
24961SOL    HW176780  12.078   3.182   2.214
24961SOL    HW276781  12.214   3.200   2.149
24962SOL     OW76782   8.002  13.119  14.507
24962SOL    HW176783   8.089  13.156  14.519
24962SOL    HW276784   7.983  13.075  14.590
24963SOL     OW76785   4.464   1.638   9.983
24963SOL    HW176786   4.449   1.600   9.897
24963SOL    HW276787   4.556   1.665   9.982
24964SOL     OW76788   7.355  13.241  14.496
24964SOL    HW176789   7.374  13.281  14.411
24964SOL    HW276790   7.373  13.310  14.560
24965SOL     OW76791  13.717   6.898  14.718
24965SOL    HW176792  13.811   6.909  14.701
24965SOL    HW276793  13.708   6.908  14.813
24966SOL     OW76794   4.634   6.294   7.455
24966SOL    HW176795   4.718   6.317   7.416
24966SOL    HW276796   4.629   6.199   7.447
24967SOL     OW76797   3.434  13.493   6.165
24967SOL    HW176798   3.477  13.542   6.095
24967SOL    HW276799   3.406  13.411   6.124
24968SOL     OW76800   6.316  13.334  12.183
24968SOL    HW176801   6.236  13.284  12.195
24968SOL    HW276802   6.297  13.420  12.221
24969SOL     OW76803  10.554   0.646   7.335
24969SOL    HW176804  10.571   0.566   7.286
24969SOL    HW276805  10.497   0.697   7.278
24970SOL     OW76806  12.758   0.519   3.992
24970SOL    HW176807  12.734   0.459   3.922
24970SOL    HW276808  12.828   0.572   3.954
24971SOL     OW76809  11.351   5.113  13.293
24971SOL    HW176810  11.381   5.068  13.372
24971SOL    HW276811  11.258   5.091  13.286
24972SOL     OW76812   1.678  11.253   3.318
24972SOL    HW176813   1.750  11.274   3.259
24972SOL    HW276814   1.608  11.314   3.294
24973SOL     OW76815  14.470   8.604  11.496
24973SOL    HW176816  14.486   8.698  11.502
24973SOL    HW276817  14.378   8.596  11.473
24974SOL     OW76818   9.418   9.287   4.175
24974SOL    HW176819   9.342   9.229   4.184
24974SOL    HW276820   9.388   9.357   4.119
24975SOL     OW76821   6.242   1.034   4.358
24975SOL    HW176822   6.327   1.061   4.324
24975SOL    HW276823   6.178   1.083   4.305
24976SOL     OW76824   7.731   5.459   7.869
24976SOL    HW176825   7.689   5.378   7.897
24976SOL    HW276826   7.689   5.481   7.786
24977SOL     OW76827   1.187   7.478   8.473
24977SOL    HW176828   1.206   7.543   8.541
24977SOL    HW276829   1.118   7.518   8.420
24978SOL     OW76830   2.787  12.379   3.620
24978SOL    HW176831   2.756  12.461   3.582
24978SOL    HW276832   2.763  12.385   3.713
24979SOL     OW76833  13.272   7.521   7.923
24979SOL    HW176834  13.201   7.518   7.859
24979SOL    HW276835  13.276   7.432   7.959
24980SOL     OW76836   3.828   3.700  10.875
24980SOL    HW176837   3.856   3.762  10.944
24980SOL    HW276838   3.809   3.619  10.922
24981SOL     OW76839   4.491   2.354  11.203
24981SOL    HW176840   4.543   2.404  11.140
24981SOL    HW276841   4.545   2.353  11.282
24982SOL     OW76842   3.069   4.251   7.902
24982SOL    HW176843   3.047   4.344   7.908
24982SOL    HW276844   3.164   4.249   7.889
24983SOL     OW76845  11.311  10.827  12.382
24983SOL    HW176846  11.394  10.864  12.350
24983SOL    HW276847  11.246  10.895  12.366
24984SOL     OW76848  10.051  14.234   8.101
24984SOL    HW176849  10.101  14.195   8.172
24984SOL    HW276850   9.959  14.218   8.124
24985SOL     OW76851   4.365  12.075   8.264
24985SOL    HW176852   4.319  12.145   8.218
24985SOL    HW276853   4.413  12.119   8.334
24986SOL     OW76854   3.104  10.427   6.729
24986SOL    HW176855   3.032  10.416   6.667
24986SOL    HW276856   3.062  10.427   6.815
24987SOL     OW76857   7.098  13.393   4.264
24987SOL    HW176858   7.028  13.387   4.329
24987SOL    HW276859   7.178  13.394   4.315
24988SOL     OW76860   6.678  13.147  13.409
24988SOL    HW176861   6.723  13.186  13.484
24988SOL    HW276862   6.719  13.188  13.333
24989SOL     OW76863   5.617   9.950   6.492
24989SOL    HW176864   5.706   9.941   6.458
24989SOL    HW276865   5.560   9.920   6.421
24990SOL     OW76866   9.524   5.708   3.606
24990SOL    HW176867   9.468   5.636   3.634
24990SOL    HW276868   9.494   5.783   3.657
24991SOL     OW76869   8.466   5.777   2.604
24991SOL    HW176870   8.432   5.803   2.690
24991SOL    HW276871   8.430   5.841   2.543
24992SOL     OW76872  14.406  13.917  10.075
24992SOL    HW176873  14.427  13.983  10.009
24992SOL    HW276874  14.313  13.899  10.061
24993SOL     OW76875   2.838   6.043   3.754
24993SOL    HW176876   2.896   5.975   3.788
24993SOL    HW276877   2.758   6.035   3.806
24994SOL     OW76878   2.554   6.634   1.039
24994SOL    HW176879   2.623   6.654   1.102
24994SOL    HW276880   2.596   6.643   0.954
24995SOL     OW76881  12.287   9.903   4.525
24995SOL    HW176882  12.340   9.848   4.583
24995SOL    HW276883  12.253   9.972   4.582
24996SOL     OW76884  12.425  12.303   2.927
24996SOL    HW176885  12.498  12.331   2.873
24996SOL    HW276886  12.458  12.309   3.017
24997SOL     OW76887   8.820   0.579   7.058
24997SOL    HW176888   8.864   0.634   6.994
24997SOL    HW276889   8.835   0.623   7.142
24998SOL     OW76890   1.600   6.278  10.817
24998SOL    HW176891   1.572   6.358  10.771
24998SOL    HW276892   1.627   6.219  10.747
24999SOL     OW76893  12.243  13.448   9.974
24999SOL    HW176894  12.320  13.454  10.031
24999SOL    HW276895  12.267  13.497   9.896
25000SOL     OW76896   6.441   3.063  12.072
25000SOL    HW176897   6.487   3.125  12.015
25000SOL    HW276898   6.488   3.066  12.155
25001SOL     OW76899   6.959   2.882  11.683
25001SOL    HW176900   6.945   2.877  11.778
25001SOL    HW276901   6.900   2.816  11.647
25002SOL     OW76902   1.442  13.393   4.057
25002SOL    HW176903   1.424  13.346   3.975
25002SOL    HW276904   1.364  13.446   4.072
25003SOL     OW76905   0.674   4.684  14.234
25003SOL    HW176906   0.634   4.652  14.154
25003SOL    HW276907   0.632   4.768  14.250
25004SOL     OW76908   2.639   0.539   9.669
25004SOL    HW176909   2.552   0.556   9.633
25004SOL    HW276910   2.631   0.559   9.763
25005SOL     OW76911  12.642  12.669   1.270
25005SOL    HW176912  12.736  12.666   1.287
25005SOL    HW276913  12.609  12.584   1.300
25006SOL     OW76914   7.675   8.110   9.614
25006SOL    HW176915   7.611   8.161   9.662
25006SOL    HW276916   7.666   8.021   9.649
25007SOL     OW76917  10.505   6.486   9.229
25007SOL    HW176918  10.540   6.533   9.154
25007SOL    HW276919  10.533   6.537   9.305
25008SOL     OW76920  11.297  14.266   4.424
25008SOL    HW176921  11.237  14.324   4.471
25008SOL    HW276922  11.283  14.180   4.464
25009SOL     OW76923   5.627   3.415   7.468
25009SOL    HW176924   5.666   3.328   7.470
25009SOL    HW276925   5.702   3.475   7.467
25010SOL     OW76926  11.383   3.425  14.487
25010SOL    HW176927  11.374   3.508  14.440
25010SOL    HW276928  11.314   3.426  14.553
25011SOL     OW76929  10.349   8.874  10.876
25011SOL    HW176930  10.338   8.939  10.806
25011SOL    HW276931  10.409   8.916  10.938
25012SOL     OW76932  12.533   8.058   0.993
25012SOL    HW176933  12.616   8.054   0.946
25012SOL    HW276934  12.541   7.993   1.062
25013SOL     OW76935   1.145   0.801  14.426
25013SOL    HW176936   1.169   0.749  14.349
25013SOL    HW276937   1.229   0.818  14.470
25014SOL     OW76938   0.028   4.769   7.416
25014SOL    HW176939   0.096   4.719   7.371
25014SOL    HW276940  14.834   4.785   7.348
25015SOL     OW76941   6.862   7.390  11.146
25015SOL    HW176942   6.830   7.463  11.093
25015SOL    HW276943   6.836   7.311  11.098
25016SOL     OW76944   4.010   0.412   4.587
25016SOL    HW176945   4.052   0.495   4.565
25016SOL    HW276946   4.026   0.401   4.681
25017SOL     OW76947  10.837  14.460  13.807
25017SOL    HW176948  10.805  14.470  13.897
25017SOL    HW276949  10.887  14.540  13.790
25018SOL     OW76950   8.728  14.400   3.856
25018SOL    HW176951   8.675  14.340   3.909
25018SOL    HW276952   8.667  14.435   3.791
25019SOL     OW76953  10.993   3.655   8.039
25019SOL    HW176954  10.951   3.643   8.124
25019SOL    HW276955  10.925   3.631   7.976
25020SOL     OW76956   7.910  13.821   5.800
25020SOL    HW176957   7.965  13.748   5.830
25020SOL    HW276958   7.892  13.801   5.708
25021SOL     OW76959   4.140  12.741   8.900
25021SOL    HW176960   4.213  12.701   8.853
25021SOL    HW276961   4.063  12.720   8.848
25022SOL     OW76962  13.708   3.640   7.435
25022SOL    HW176963  13.680   3.568   7.379
25022SOL    HW276964  13.644   3.709   7.419
25023SOL     OW76965  13.861   0.836  14.364
25023SOL    HW176966  13.831   0.875  14.282
25023SOL    HW276967  13.884   0.911  14.419
25024SOL     OW76968   3.813   3.183  13.622
25024SOL    HW176969   3.766   3.181  13.706
25024SOL    HW276970   3.891   3.130  13.637
25025SOL     OW76971   3.437   3.366  10.338
25025SOL    HW176972   3.361   3.309  10.327
25025SOL    HW276973   3.499   3.336  10.271
25026SOL     OW76974  13.584  13.053   7.720
25026SOL    HW176975  13.553  13.112   7.789
25026SOL    HW276976  13.676  13.075   7.710
25027SOL     OW76977   8.656  13.078   5.308
25027SOL    HW176978   8.742  13.106   5.277
25027SOL    HW276979   8.609  13.050   5.229
25028SOL     OW76980  12.648  13.674  11.456
25028SOL    HW176981  12.738  13.707  11.448
25028SOL    HW276982  12.593  13.753  11.453
25029SOL     OW76983   6.724  13.372   1.757
25029SOL    HW176984   6.726  13.433   1.682
25029SOL    HW276985   6.683  13.293   1.722
25030SOL     OW76986   9.126   3.474   0.636
25030SOL    HW176987   9.077   3.555   0.648
25030SOL    HW276988   9.216   3.497   0.655
25031SOL     OW76989  14.804  12.871   1.990
25031SOL    HW176990  14.784  12.788   2.034
25031SOL    HW276991  14.851  12.922   2.056
25032SOL     OW76992   4.192  10.375  14.370
25032SOL    HW176993   4.127  10.312  14.340
25032SOL    HW276994   4.153  10.413  14.449
25033SOL     OW76995   4.060   6.142  13.714
25033SOL    HW176996   4.110   6.134  13.633
25033SOL    HW276997   4.014   6.225  13.706
25034SOL     OW76998   6.140  13.576   2.405
25034SOL    HW176999   6.196  13.644   2.443
25034SOL    HW277000   6.191  13.495   2.413
25035SOL     OW77001   0.089   7.186  11.903
25035SOL    HW177002   0.121   7.247  11.837
25035SOL    HW277003   0.094   7.100  11.861
25036SOL     OW77004   3.196   7.995   3.077
25036SOL    HW177005   3.174   8.060   3.010
25036SOL    HW277006   3.111   7.963   3.107
25037SOL     OW77007  13.787   0.701   5.260
25037SOL    HW177008  13.830   0.768   5.312
25037SOL    HW277009  13.714   0.746   5.217
25038SOL     OW77010   9.662  11.790   7.541
25038SOL    HW177011   9.645  11.814   7.632
25038SOL    HW277012   9.719  11.713   7.547
25039SOL     OW77013  12.855   2.574  14.025
25039SOL    HW177014  12.812   2.490  14.006
25039SOL    HW277015  12.863   2.616  13.939
25040SOL     OW77016  10.769   4.909  13.229
25040SOL    HW177017  10.749   4.997  13.196
25040SOL    HW277018  10.837   4.877  13.170
25041SOL     OW77019  13.210   9.141  11.724
25041SOL    HW177020  13.247   9.075  11.664
25041SOL    HW277021  13.124   9.106  11.747
25042SOL     OW77022   7.097   9.776   4.752
25042SOL    HW177023   7.179   9.750   4.711
25042SOL    HW277024   7.035   9.782   4.679
25043SOL     OW77025  14.043   8.921  12.605
25043SOL    HW177026  14.104   8.910  12.532
25043SOL    HW277027  13.971   8.863  12.585
25044SOL     OW77028  13.414  14.684   3.087
25044SOL    HW177029  13.439  14.772   3.113
25044SOL    HW277030  13.357  14.696   3.010
25045SOL     OW77031   6.326  14.594   1.879
25045SOL    HW177032   6.364  14.648   1.810
25045SOL    HW277033   6.335  14.504   1.847
25046SOL     OW77034   4.144   9.035   2.562
25046SOL    HW177035   4.162   9.026   2.469
25046SOL    HW277036   4.104   9.122   2.570
25047SOL     OW77037   9.010  10.218   4.102
25047SOL    HW177038   8.962  10.300   4.097
25047SOL    HW277039   8.945  10.154   4.131
25048SOL     OW77040   7.227   9.238   1.478
25048SOL    HW177041   7.277   9.268   1.402
25048SOL    HW277042   7.218   9.144   1.465
25049SOL     OW77043  12.587   1.754   0.730
25049SOL    HW177044  12.660   1.728   0.674
25049SOL    HW277045  12.556   1.672   0.769
25050SOL     OW77046   4.479   6.255   3.831
25050SOL    HW177047   4.573   6.273   3.828
25050SOL    HW277048   4.468   6.177   3.776
25051SOL     OW77049   5.040  13.425   1.197
25051SOL    HW177050   4.969  13.366   1.223
25051SOL    HW277051   4.998  13.509   1.182
25052SOL     OW77052   1.610   0.331  14.354
25052SOL    HW177053   1.661   0.390  14.410
25052SOL    HW277054   1.524   0.327  14.396
25053SOL     OW77055   2.237  13.486   3.958
25053SOL    HW177056   2.183  13.547   3.908
25053SOL    HW277057   2.248  13.528   4.043
25054SOL     OW77058   4.868   6.547   1.090
25054SOL    HW177059   4.960   6.570   1.081
25054SOL    HW277060   4.850   6.487   1.018
25055SOL     OW77061   2.976   1.828   7.746
25055SOL    HW177062   3.067   1.823   7.716
25055SOL    HW277063   2.975   1.901   7.808
25056SOL     OW77064   3.329  12.944  10.434
25056SOL    HW177065   3.330  12.876  10.366
25056SOL    HW277066   3.407  12.926  10.487
25057SOL     OW77067   8.493   0.007   7.112
25057SOL    HW177068   8.450   0.092   7.109
25057SOL    HW277069   8.529   0.001   7.200
25058SOL     OW77070   4.263   6.398  13.327
25058SOL    HW177071   4.276   6.448  13.408
25058SOL    HW277072   4.220   6.459  13.268
25059SOL     OW77073   5.325  10.080   0.482
25059SOL    HW177074   5.407  10.067   0.435
25059SOL    HW277075   5.352  10.092   0.574
25060SOL     OW77076   7.507  14.648   1.981
25060SOL    HW177077   7.517  14.676   2.072
25060SOL    HW277078   7.595  14.622   1.954
25061SOL     OW77079   1.824   3.897  10.947
25061SOL    HW177080   1.915   3.905  10.919
25061SOL    HW277081   1.812   3.967  11.012
25062SOL     OW77082  11.127   0.673   9.320
25062SOL    HW177083  11.110   0.618   9.244
25062SOL    HW277084  11.120   0.762   9.287
25063SOL     OW77085  14.448  13.643   4.354
25063SOL    HW177086  14.465  13.651   4.261
25063SOL    HW277087  14.429  13.550   4.367
25064SOL     OW77088   1.924   1.084   0.360
25064SOL    HW177089   2.004   1.045   0.396
25064SOL    HW277090   1.926   1.175   0.391
25065SOL     OW77091  11.854   6.217  11.929
25065SOL    HW177092  11.831   6.181  11.844
25065SOL    HW277093  11.775   6.204  11.982
25066SOL     OW77094   4.463  12.671   2.365
25066SOL    HW177095   4.488  12.605   2.300
25066SOL    HW277096   4.367  12.669   2.365
25067SOL     OW77097   5.300   4.126   0.964
25067SOL    HW177098   5.264   4.091   0.883
25067SOL    HW277099   5.357   4.198   0.936
25068SOL     OW77100  10.797  13.515  10.600
25068SOL    HW177101  10.804  13.603  10.637
25068SOL    HW277102  10.704  13.493  10.607
25069SOL     OW77103   5.892   1.902   2.466
25069SOL    HW177104   5.829   1.859   2.406
25069SOL    HW277105   5.907   1.988   2.427
25070SOL     OW77106  12.474  10.230   5.271
25070SOL    HW177107  12.459  10.228   5.366
25070SOL    HW277108  12.553  10.178   5.258
25071SOL     OW77109  13.090   0.202   0.527
25071SOL    HW177110  13.024   0.183   0.594
25071SOL    HW277111  13.148   0.266   0.568
25072SOL     OW77112   2.201   1.004   2.129
25072SOL    HW177113   2.224   0.925   2.081
25072SOL    HW277114   2.246   0.995   2.213
25073SOL     OW77115   3.534   2.256  11.519
25073SOL    HW177116   3.561   2.243  11.429
25073SOL    HW277117   3.594   2.201  11.570
25074SOL     OW77118  14.398  10.830   6.530
25074SOL    HW177119  14.375  10.878   6.609
25074SOL    HW277120  14.386  10.738   6.553
25075SOL     OW77121   3.185  12.238  12.405
25075SOL    HW177122   3.265  12.209  12.362
25075SOL    HW277123   3.181  12.186  12.486
25076SOL     OW77124   5.602  11.964   8.441
25076SOL    HW177125   5.539  12.034   8.458
25076SOL    HW277126   5.670  11.977   8.508
25077SOL     OW77127   0.844   0.705   3.015
25077SOL    HW177128   0.912   0.768   3.035
25077SOL    HW277129   0.774   0.756   2.976
25078SOL     OW77130   5.365   0.061   4.881
25078SOL    HW177131   5.449   0.106   4.890
25078SOL    HW277132   5.303   0.115   4.929
25079SOL     OW77133  14.282   7.447   0.715
25079SOL    HW177134  14.223   7.372   0.714
25079SOL    HW277135  14.252   7.500   0.789
25080SOL     OW77136   5.055   4.162   4.572
25080SOL    HW177137   4.967   4.184   4.604
25080SOL    HW277138   5.077   4.234   4.512
25081SOL     OW77139  10.857  12.426  13.816
25081SOL    HW177140  10.799  12.491  13.854
25081SOL    HW277141  10.938  12.474  13.797
25082SOL     OW77142  11.956   7.006   8.645
25082SOL    HW177143  11.866   6.989   8.618
25082SOL    HW277144  11.948   7.048   8.730
25083SOL     OW77145   6.701   8.579  10.942
25083SOL    HW177146   6.761   8.596  10.870
25083SOL    HW277147   6.669   8.490  10.927
25084SOL     OW77148   8.454  10.942   0.674
25084SOL    HW177149   8.515  10.905   0.739
25084SOL    HW277150   8.500  10.934   0.591
25085SOL     OW77151   7.523  10.879  13.142
25085SOL    HW177152   7.470  10.935  13.086
25085SOL    HW277153   7.465  10.806  13.165
25086SOL     OW77154   8.955  10.862  13.709
25086SOL    HW177155   8.961  10.879  13.803
25086SOL    HW277156   8.866  10.828  13.697
25087SOL     OW77157   3.984   4.384   4.431
25087SOL    HW177158   4.031   4.416   4.508
25087SOL    HW277159   4.024   4.299   4.412
25088SOL     OW77160   8.062   6.572   5.625
25088SOL    HW177161   8.074   6.554   5.532
25088SOL    HW277162   8.132   6.633   5.647
25089SOL     OW77163   7.380   9.290  14.499
25089SOL    HW177164   7.301   9.280  14.552
25089SOL    HW277165   7.365   9.370  14.447
25090SOL     OW77166  12.451   7.857  13.931
25090SOL    HW177167  12.364   7.818  13.938
25090SOL    HW277168  12.511   7.783  13.936
25091SOL     OW77169  11.349  12.963   6.034
25091SOL    HW177170  11.336  12.986   6.126
25091SOL    HW277171  11.411  12.891   6.036
25092SOL     OW77172   9.637  12.009   6.800
25092SOL    HW177173   9.606  11.976   6.884
25092SOL    HW277174   9.608  12.100   6.797
25093SOL     OW77175   1.294  10.015   5.666
25093SOL    HW177176   1.330   9.926   5.664
25093SOL    HW277177   1.355  10.064   5.722
25094SOL     OW77178   8.470   7.972   9.531
25094SOL    HW177179   8.541   7.920   9.569
25094SOL    HW277180   8.494   8.063   9.548
25095SOL     OW77181   7.868   9.873   4.693
25095SOL    HW177182   7.808   9.940   4.727
25095SOL    HW277183   7.951   9.918   4.684
25096SOL     OW77184   8.019   0.105   7.160
25096SOL    HW177185   8.025   0.200   7.145
25096SOL    HW277186   8.066   0.090   7.242
25097SOL     OW77187   1.106  13.846  12.224
25097SOL    HW177188   1.112  13.903  12.301
25097SOL    HW277189   1.133  13.901  12.151
25098SOL     OW77190   4.528   4.346  10.861
25098SOL    HW177191   4.468   4.420  10.870
25098SOL    HW277192   4.613   4.386  10.843
25099SOL     OW77193   5.059  13.815   6.115
25099SOL    HW177194   5.152  13.802   6.095
25099SOL    HW277195   5.059  13.870   6.193
25100SOL     OW77196   1.650   7.095  14.843
25100SOL    HW177197   1.610   7.008  14.849
25100SOL    HW277198   1.662   7.108  14.749
25101SOL     OW77199   0.804  11.737   4.539
25101SOL    HW177200   0.856  11.688   4.476
25101SOL    HW277201   0.737  11.674   4.569
25102SOL     OW77202   6.106   1.872  12.697
25102SOL    HW177203   6.084   1.858  12.789
25102SOL    HW277204   6.034   1.925  12.663
25103SOL     OW77205   0.070  11.339   1.995
25103SOL    HW177206   0.045  11.361   1.905
25103SOL    HW277207   0.144  11.279   1.985
25104SOL     OW77208  12.091  12.140   7.479
25104SOL    HW177209  12.085  12.054   7.437
25104SOL    HW277210  12.006  12.151   7.522
25105SOL     OW77211   1.853   0.133  10.039
25105SOL    HW177212   1.886   0.106  10.124
25105SOL    HW277213   1.902   0.212  10.017
25106SOL     OW77214  11.958   6.923  12.649
25106SOL    HW177215  11.926   6.852  12.705
25106SOL    HW277216  11.960   6.885  12.561
25107SOL     OW77217   4.569   4.807  13.047
25107SOL    HW177218   4.495   4.863  13.072
25107SOL    HW277219   4.634   4.820  13.116
25108SOL     OW77220   4.685  10.625  14.308
25108SOL    HW177221   4.632  10.563  14.258
25108SOL    HW277222   4.629  10.653  14.380
25109SOL     OW77223  10.120   9.371   9.065
25109SOL    HW177224  10.121   9.455   9.111
25109SOL    HW277225  10.179   9.384   8.991
25110SOL     OW77226  11.593   9.751   3.055
25110SOL    HW177227  11.538   9.686   3.012
25110SOL    HW277228  11.544   9.833   3.048
25111SOL     OW77229   5.960   8.497  10.601
25111SOL    HW177230   6.042   8.537  10.570
25111SOL    HW277231   5.988   8.417  10.646
25112SOL     OW77232   9.534   6.389  14.519
25112SOL    HW177233   9.602   6.324  14.501
25112SOL    HW277234   9.580   6.473  14.516
25113SOL     OW77235   1.017  10.106  10.243
25113SOL    HW177236   0.946  10.042  10.249
25113SOL    HW277237   1.051  10.095  10.154
25114SOL     OW77238   1.342  10.354  13.786
25114SOL    HW177239   1.425  10.371  13.831
25114SOL    HW277240   1.368  10.329  13.698
25115SOL     OW77241   1.477  14.565  12.495
25115SOL    HW177242   1.433  14.524  12.420
25115SOL    HW277243   1.489  14.494  12.558
25116SOL     OW77244  10.689  11.139   2.674
25116SOL    HW177245  10.649  11.221   2.705
25116SOL    HW277246  10.745  11.166   2.601
25117SOL     OW77247   2.950   2.186   7.412
25117SOL    HW177248   2.859   2.215   7.419
25117SOL    HW277249   2.994   2.256   7.363
25118SOL     OW77250  12.099   7.713   3.648
25118SOL    HW177251  12.167   7.651   3.622
25118SOL    HW277252  12.038   7.660   3.700
25119SOL     OW77253   9.321   0.223   8.989
25119SOL    HW177254   9.278   0.199   9.071
25119SOL    HW277255   9.251   0.229   8.925
25120SOL     OW77256   2.374  12.085   3.219
25120SOL    HW177257   2.372  12.143   3.295
25120SOL    HW277258   2.285  12.051   3.212
25121SOL     OW77259   9.687   4.173  11.695
25121SOL    HW177260   9.739   4.106  11.740
25121SOL    HW277261   9.619   4.124  11.649
25122SOL     OW77262   7.593   1.432   9.438
25122SOL    HW177263   7.622   1.504   9.493
25122SOL    HW277264   7.623   1.353   9.484
25123SOL     OW77265  11.687   0.190  13.690
25123SOL    HW177266  11.641   0.273  13.682
25123SOL    HW277267  11.773   0.212  13.725
25124SOL     OW77268   1.357  12.680   2.370
25124SOL    HW177269   1.416  12.612   2.336
25124SOL    HW277270   1.346  12.740   2.296
25125SOL     OW77271   3.926   5.027   4.784
25125SOL    HW177272   3.940   5.022   4.878
25125SOL    HW277273   4.014   5.019   4.746
25126SOL     OW77274   5.424   4.939   3.704
25126SOL    HW177275   5.481   4.868   3.678
25126SOL    HW277276   5.483   5.012   3.723
25127SOL     OW77277  13.765   1.855   8.263
25127SOL    HW177278  13.783   1.761   8.257
25127SOL    HW277279  13.849   1.894   8.285
25128SOL     OW77280   7.875   3.009  11.881
25128SOL    HW177281   7.798   3.048  11.839
25128SOL    HW277282   7.912   3.080  11.934
25129SOL     OW77283   2.780  11.636   6.365
25129SOL    HW177284   2.781  11.725   6.330
25129SOL    HW277285   2.870  11.605   6.354
25130SOL     OW77286   4.614  11.250  14.412
25130SOL    HW177287   4.581  11.332  14.450
25130SOL    HW277288   4.706  11.268  14.394
25131SOL     OW77289   6.024  14.799   6.813
25131SOL    HW177290   6.037  14.739   6.740
25131SOL    HW277291   6.112  14.824   6.840
25132SOL     OW77292  12.700   0.789   9.818
25132SOL    HW177293  12.629   0.838   9.778
25132SOL    HW277294  12.779   0.837   9.793
25133SOL     OW77295   2.704  12.427   9.342
25133SOL    HW177296   2.766  12.480   9.394
25133SOL    HW277297   2.710  12.340   9.380
25134SOL     OW77298   6.921  10.774   5.179
25134SOL    HW177299   6.864  10.827   5.234
25134SOL    HW277300   6.913  10.685   5.214
25135SOL     OW77301   5.049   2.521   4.639
25135SOL    HW177302   4.961   2.486   4.623
25135SOL    HW277303   5.102   2.486   4.567
25136SOL     OW77304   2.224   4.482  11.867
25136SOL    HW177305   2.229   4.557  11.809
25136SOL    HW277306   2.307   4.436  11.854
25137SOL     OW77307   0.180   2.880   5.531
25137SOL    HW177308   0.140   2.930   5.602
25137SOL    HW277309   0.126   2.899   5.455
25138SOL     OW77310  12.632  13.785   5.657
25138SOL    HW177311  12.551  13.775   5.708
25138SOL    HW277312  12.624  13.872   5.616
25139SOL     OW77313   4.214   6.846   3.737
25139SOL    HW177314   4.278   6.881   3.675
25139SOL    HW277315   4.259   6.851   3.822
25140SOL     OW77316  12.094   5.880   7.218
25140SOL    HW177317  12.003   5.858   7.202
25140SOL    HW277318  12.142   5.798   7.203
25141SOL     OW77319   4.738   9.145   3.016
25141SOL    HW177320   4.733   9.063   2.967
25141SOL    HW277321   4.807   9.195   2.973
25142SOL     OW77322   2.495  11.850   6.023
25142SOL    HW177323   2.561  11.791   6.059
25142SOL    HW277324   2.544  11.912   5.969
25143SOL     OW77325   8.571   8.705   7.791
25143SOL    HW177326   8.535   8.734   7.707
25143SOL    HW277327   8.630   8.775   7.818
25144SOL     OW77328  11.096   8.518   3.650
25144SOL    HW177329  11.115   8.527   3.743
25144SOL    HW277330  11.076   8.424   3.639
25145SOL     OW77331   5.256  12.877   0.646
25145SOL    HW177332   5.350  12.876   0.626
25145SOL    HW277333   5.248  12.825   0.727
25146SOL     OW77334   7.511  10.921   0.346
25146SOL    HW177335   7.499  10.831   0.377
25146SOL    HW277336   7.431  10.940   0.297
25147SOL     OW77337   1.900   9.113  10.751
25147SOL    HW177338   1.953   9.035  10.766
25147SOL    HW277339   1.870   9.104  10.660
25148SOL     OW77340   1.120  12.605  12.847
25148SOL    HW177341   1.202  12.601  12.898
25148SOL    HW277342   1.095  12.697  12.849
25149SOL     OW77343   9.539  14.258  11.024
25149SOL    HW177344   9.578  14.343  11.006
25149SOL    HW277345   9.491  14.269  11.106
25150SOL     OW77346  14.721   1.249   5.200
25150SOL    HW177347  14.782   1.182   5.230
25150SOL    HW277348  14.737   1.256   5.106
25151SOL     OW77349   6.271   8.902   9.948
25151SOL    HW177350   6.213   8.899   9.871
25151SOL    HW277351   6.245   8.825  10.000
25152SOL     OW77352   9.043  12.682   2.725
25152SOL    HW177353   9.129  12.639   2.726
25152SOL    HW277354   8.983  12.614   2.695
25153SOL     OW77355   3.355   9.282  10.526
25153SOL    HW177356   3.429   9.275  10.466
25153SOL    HW277357   3.296   9.345  10.484
25154SOL     OW77358   2.534  11.832   0.465
25154SOL    HW177359   2.533  11.884   0.546
25154SOL    HW277360   2.473  11.760   0.482
25155SOL     OW77361  14.691   7.077  13.821
25155SOL    HW177362  14.596   7.068  13.814
25155SOL    HW277363  14.725   6.988  13.807
25156SOL     OW77364   0.962   7.637  14.855
25156SOL    HW177365   0.903   7.610   0.053
25156SOL    HW277366   0.997   7.554  14.821
25157SOL     OW77367   3.567   6.814   9.102
25157SOL    HW177368   3.598   6.890   9.052
25157SOL    HW277369   3.477   6.836   9.126
25158SOL     OW77370   0.821   1.154   9.013
25158SOL    HW177371   0.771   1.084   9.054
25158SOL    HW277372   0.786   1.235   9.051
25159SOL     OW77373   4.628   7.376  12.057
25159SOL    HW177374   4.629   7.281  12.045
25159SOL    HW277375   4.642   7.412  11.970
25160SOL     OW77376   5.859  14.605   7.648
25160SOL    HW177377   5.892  14.543   7.714
25160SOL    HW277378   5.846  14.687   7.696
25161SOL     OW77379   0.088   6.109   7.760
25161SOL    HW177380   0.042   6.138   7.682
25161SOL    HW277381   0.092   6.187   7.816
25162SOL     OW77382   9.430   4.006   8.905
25162SOL    HW177383   9.403   4.021   8.814
25162SOL    HW277384   9.476   3.922   8.902
25163SOL     OW77385  12.740  13.348   0.769
25163SOL    HW177386  12.685  13.277   0.735
25163SOL    HW277387  12.815  13.351   0.709
25164SOL     OW77388   5.725   6.176   6.144
25164SOL    HW177389   5.717   6.221   6.060
25164SOL    HW277390   5.819   6.161   6.154
25165SOL     OW77391   7.847  14.791  13.642
25165SOL    HW177392   7.765  14.761  13.602
25165SOL    HW277393   7.878  14.716  13.693
25166SOL     OW77394  13.590  14.249   7.909
25166SOL    HW177395  13.681  14.272   7.928
25166SOL    HW277396  13.589  14.153   7.911
25167SOL     OW77397  13.467  12.333  14.164
25167SOL    HW177398  13.510  12.375  14.239
25167SOL    HW277399  13.474  12.239  14.182
25168SOL     OW77400  13.299   2.067   1.127
25168SOL    HW177401  13.301   2.163   1.138
25168SOL    HW277402  13.366   2.035   1.187
25169SOL     OW77403   2.412   4.390   3.547
25169SOL    HW177404   2.484   4.417   3.490
25169SOL    HW277405   2.354   4.466   3.551
25170SOL     OW77406   6.303   0.729   8.289
25170SOL    HW177407   6.264   0.816   8.280
25170SOL    HW277408   6.352   0.733   8.371
25171SOL     OW77409   3.414   1.281   9.518
25171SOL    HW177410   3.322   1.286   9.494
25171SOL    HW277411   3.414   1.257   9.611
25172SOL     OW77412  10.914   2.908   5.044
25172SOL    HW177413  10.993   2.855   5.034
25172SOL    HW277414  10.862   2.889   4.966
25173SOL     OW77415  12.968   3.544  11.728
25173SOL    HW177416  13.033   3.594  11.777
25173SOL    HW277417  12.903   3.609  11.701
25174SOL     OW77418  12.734   7.514  10.259
25174SOL    HW177419  12.777   7.429  10.259
25174SOL    HW277420  12.791   7.571  10.310
25175SOL     OW77421   6.670   2.877   6.060
25175SOL    HW177422   6.610   2.884   5.986
25175SOL    HW277423   6.748   2.835   6.024
25176SOL     OW77424   8.307   1.312   0.449
25176SOL    HW177425   8.373   1.243   0.445
25176SOL    HW277426   8.280   1.313   0.541
25177SOL     OW77427  10.097   9.812   1.405
25177SOL    HW177428  10.131   9.843   1.488
25177SOL    HW277429  10.038   9.881   1.375
25178SOL     OW77430  13.936   2.695   4.455
25178SOL    HW177431  13.973   2.704   4.367
25178SOL    HW277432  13.974   2.614   4.489
25179SOL     OW77433   9.858  14.432   7.047
25179SOL    HW177434   9.896  14.344   7.050
25179SOL    HW277435   9.913  14.484   7.105
25180SOL     OW77436   3.451   4.289   9.099
25180SOL    HW177437   3.452   4.306   9.005
25180SOL    HW277438   3.372   4.334   9.130
25181SOL     OW77439  13.521   4.215   9.195
25181SOL    HW177440  13.561   4.135   9.159
25181SOL    HW277441  13.593   4.260   9.239
25182SOL     OW77442   2.676  12.460   8.226
25182SOL    HW177443   2.656  12.387   8.167
25182SOL    HW277444   2.765  12.487   8.201
25183SOL     OW77445  14.002   9.295  14.233
25183SOL    HW177446  14.067   9.360  14.257
25183SOL    HW277447  13.918   9.340  14.240
25184SOL     OW77448  11.889  12.254  12.595
25184SOL    HW177449  11.798  12.264  12.567
25184SOL    HW277450  11.941  12.299  12.528
25185SOL     OW77451   4.788  14.496   9.261
25185SOL    HW177452   4.724  14.508   9.331
25185SOL    HW277453   4.870  14.531   9.296
25186SOL     OW77454   3.576  10.504   0.482
25186SOL    HW177455   3.570  10.582   0.539
25186SOL    HW277456   3.486  10.489   0.453
25187SOL     OW77457   6.523   1.054   9.670
25187SOL    HW177458   6.447   1.110   9.690
25187SOL    HW277459   6.510   0.976   9.724
25188SOL     OW77460   4.772   2.492   0.387
25188SOL    HW177461   4.710   2.548   0.435
25188SOL    HW277462   4.724   2.466   0.309
25189SOL     OW77463  11.711  10.078  12.863
25189SOL    HW177464  11.777  10.012  12.884
25189SOL    HW277465  11.761  10.155  12.836
25190SOL     OW77466  14.169   5.873   5.665
25190SOL    HW177467  14.222   5.951   5.681
25190SOL    HW277468  14.079   5.905   5.659
25191SOL     OW77469  14.118  14.484   2.496
25191SOL    HW177470  14.141  14.470   2.587
25191SOL    HW277471  14.092  14.397   2.464
25192SOL     OW77472   7.734   9.344   1.694
25192SOL    HW177473   7.695   9.364   1.610
25192SOL    HW277474   7.732   9.248   1.699
25193SOL     OW77475  11.507   0.260  12.261
25193SOL    HW177476  11.544   0.176  12.288
25193SOL    HW277477  11.582   0.315  12.243
25194SOL     OW77478   2.053  10.716   0.162
25194SOL    HW177479   2.082  10.738   0.250
25194SOL    HW277480   2.114  10.761   0.104
25195SOL     OW77481   2.712   1.655   8.207
25195SOL    HW177482   2.708   1.559   8.213
25195SOL    HW277483   2.764   1.681   8.283
25196SOL     OW77484   0.428   1.848   6.162
25196SOL    HW177485   0.478   1.775   6.198
25196SOL    HW277486   0.390   1.815   6.081
25197SOL     OW77487  10.233  12.665   9.402
25197SOL    HW177488  10.309  12.620   9.366
25197SOL    HW277489  10.252  12.674   9.495
25198SOL     OW77490  11.005   7.398  12.775
25198SOL    HW177491  10.970   7.411  12.863
25198SOL    HW277492  10.948   7.449  12.718
25199SOL     OW77493   4.308   7.726  14.293
25199SOL    HW177494   4.307   7.634  14.266
25199SOL    HW277495   4.293   7.723  14.388
25200SOL     OW77496   7.881  13.385   3.155
25200SOL    HW177497   7.850  13.421   3.072
25200SOL    HW277498   7.814  13.322   3.180
25201SOL     OW77499   8.432   7.555  10.464
25201SOL    HW177500   8.431   7.562  10.368
25201SOL    HW277501   8.512   7.507  10.484
25202SOL     OW77502   0.501   6.842  14.042
25202SOL    HW177503   0.428   6.810  13.989
25202SOL    HW277504   0.533   6.765  14.088
25203SOL     OW77505   8.851   2.923   6.512
25203SOL    HW177506   8.755   2.922   6.506
25203SOL    HW277507   8.869   2.897   6.602
25204SOL     OW77508   8.918  12.225  11.842
25204SOL    HW177509   8.922  12.310  11.886
25204SOL    HW277510   8.858  12.173  11.896
25205SOL     OW77511  12.678   6.609   7.948
25205SOL    HW177512  12.609   6.557   7.907
25205SOL    HW277513  12.740   6.545   7.983
25206SOL     OW77514  13.973  11.400   3.714
25206SOL    HW177515  13.978  11.449   3.631
25206SOL    HW277516  13.930  11.318   3.691
25207SOL     OW77517   7.004  12.062  12.159
25207SOL    HW177518   6.927  12.118  12.150
25207SOL    HW277519   6.985  11.985  12.104
25208SOL     OW77520   2.988  13.797  13.560
25208SOL    HW177521   2.989  13.795  13.464
25208SOL    HW277522   3.039  13.720  13.586
25209SOL     OW77523   1.962   8.129   5.762
25209SOL    HW177524   2.010   8.169   5.689
25209SOL    HW277525   1.980   8.036   5.754
25210SOL     OW77526  10.426  13.316   1.058
25210SOL    HW177527  10.499  13.279   1.008
25210SOL    HW277528  10.383  13.240   1.097
25211SOL     OW77529   9.353   6.229  10.433
25211SOL    HW177530   9.446   6.251  10.442
25211SOL    HW277531   9.326   6.201  10.520
25212SOL     OW77532  12.301  12.978   2.263
25212SOL    HW177533  12.214  13.012   2.241
25212SOL    HW277534  12.349  13.054   2.296
25213SOL     OW77535   2.176   1.776   5.129
25213SOL    HW177536   2.254   1.824   5.157
25213SOL    HW277537   2.103   1.828   5.163
25214SOL     OW77538   8.307   1.617   1.625
25214SOL    HW177539   8.321   1.522   1.625
25214SOL    HW277540   8.212   1.626   1.613
25215SOL     OW77541  12.482   0.887   9.427
25215SOL    HW177542  12.428   0.916   9.353
25215SOL    HW277543  12.460   0.795   9.438
25216SOL     OW77544  13.214   6.251  14.259
25216SOL    HW177545  13.132   6.229  14.304
25216SOL    HW277546  13.247   6.327  14.307
25217SOL     OW77547   2.028  11.476   9.095
25217SOL    HW177548   1.998  11.389   9.069
25217SOL    HW277549   2.109  11.489   9.046
25218SOL     OW77550   4.229   4.111  12.025
25218SOL    HW177551   4.322   4.123  12.006
25218SOL    HW277552   4.208   4.179  12.089
25219SOL     OW77553   6.264   2.039   9.237
25219SOL    HW177554   6.184   2.055   9.188
25219SOL    HW277555   6.263   1.945   9.256
25220SOL     OW77556   0.486   9.823  14.406
25220SOL    HW177557   0.506   9.753  14.344
25220SOL    HW277558   0.565   9.876  14.408
25221SOL     OW77559  11.292   7.775   5.308
25221SOL    HW177560  11.315   7.807   5.221
25221SOL    HW277561  11.371   7.731   5.340
25222SOL     OW77562   2.309   6.757   2.462
25222SOL    HW177563   2.292   6.704   2.384
25222SOL    HW277564   2.403   6.778   2.456
25223SOL     OW77565   9.930   6.719   7.007
25223SOL    HW177566   9.976   6.794   6.968
25223SOL    HW277567   9.927   6.739   7.100
25224SOL     OW77568  11.068  14.141   4.616
25224SOL    HW177569  10.997  14.162   4.677
25224SOL    HW277570  11.084  14.048   4.627
25225SOL     OW77571   9.143  10.268   2.172
25225SOL    HW177572   9.191  10.235   2.248
25225SOL    HW277573   9.091  10.194   2.142
25226SOL     OW77574   1.990  13.175   0.055
25226SOL    HW177575   1.955  13.148  14.843
25226SOL    HW277576   2.084  13.184   0.040
25227SOL     OW77577   5.533   3.578   9.399
25227SOL    HW177578   5.485   3.497   9.384
25227SOL    HW277579   5.523   3.596   9.492
25228SOL     OW77580   6.063   3.999   4.545
25228SOL    HW177581   6.032   4.017   4.456
25228SOL    HW277582   6.138   4.057   4.557
25229SOL     OW77583  11.356   6.279   4.069
25229SOL    HW177584  11.432   6.224   4.054
25229SOL    HW277585  11.350   6.287   4.164
25230SOL     OW77586   8.235   0.750   9.646
25230SOL    HW177587   8.259   0.658   9.634
25230SOL    HW277588   8.163   0.765   9.585
25231SOL     OW77589   0.825   2.716  11.757
25231SOL    HW177590   0.786   2.802  11.769
25231SOL    HW277591   0.772   2.658  11.812
25232SOL     OW77592   8.010   6.414   0.856
25232SOL    HW177593   8.065   6.413   0.934
25232SOL    HW277594   8.046   6.346   0.799
25233SOL     OW77595  10.300  13.007   9.453
25233SOL    HW177596  10.324  12.919   9.425
25233SOL    HW277597  10.369  13.064   9.418
25234SOL     OW77598  13.148   4.574   7.997
25234SOL    HW177599  13.106   4.489   8.009
25234SOL    HW277600  13.174   4.600   8.085
25235SOL     OW77601   8.717   2.055   7.403
25235SOL    HW177602   8.696   2.024   7.315
25235SOL    HW277603   8.812   2.047   7.410
25236SOL     OW77604  10.566   9.390  12.640
25236SOL    HW177605  10.597   9.479  12.652
25236SOL    HW277606  10.471   9.397  12.643
25237SOL     OW77607   7.645   0.859  12.739
25237SOL    HW177608   7.669   0.781  12.790
25237SOL    HW277609   7.666   0.932  12.797
25238SOL     OW77610   4.410   3.163   1.712
25238SOL    HW177611   4.463   3.096   1.669
25238SOL    HW277612   4.344   3.113   1.761
25239SOL     OW77613   8.430   2.217   2.027
25239SOL    HW177614   8.451   2.309   2.011
25239SOL    HW277615   8.385   2.188   1.947
25240SOL     OW77616   1.415  14.120  14.074
25240SOL    HW177617   1.466  14.113  13.993
25240SOL    HW277618   1.326  14.141  14.045
25241SOL     OW77619   4.625   3.596  10.805
25241SOL    HW177620   4.568   3.519  10.796
25241SOL    HW277621   4.575   3.656  10.860
25242SOL     OW77622   9.620  10.039  13.609
25242SOL    HW177623   9.638   9.959  13.559
25242SOL    HW277624   9.525  10.046  13.609
25243SOL     OW77625   7.768   8.875   8.614
25243SOL    HW177626   7.752   8.909   8.526
25243SOL    HW277627   7.817   8.794   8.600
25244SOL     OW77628   4.696  11.984   8.387
25244SOL    HW177629   4.638  12.014   8.317
25244SOL    HW277630   4.721  11.895   8.362
25245SOL     OW77631  10.444   6.358   7.332
25245SOL    HW177632  10.509   6.319   7.390
25245SOL    HW277633  10.369   6.298   7.336
25246SOL     OW77634   6.711   1.983   3.331
25246SOL    HW177635   6.787   1.939   3.369
25246SOL    HW277636   6.679   1.922   3.265
25247SOL     OW77637  13.191   4.771   6.780
25247SOL    HW177638  13.173   4.718   6.858
25247SOL    HW277639  13.284   4.757   6.764
25248SOL     OW77640   4.999   6.088   4.662
25248SOL    HW177641   5.062   6.154   4.691
25248SOL    HW277642   4.917   6.112   4.704
25249SOL     OW77643   6.505  12.721   8.110
25249SOL    HW177644   6.435  12.711   8.174
25249SOL    HW277645   6.586  12.709   8.161
25250SOL     OW77646   3.235  13.874   0.224
25250SOL    HW177647   3.251  13.824   0.304
25250SOL    HW277648   3.317  13.869   0.175
25251SOL     OW77649   4.721   3.444   7.436
25251SOL    HW177650   4.708   3.432   7.530
25251SOL    HW277651   4.735   3.538   7.426
25252SOL     OW77652   2.224   5.978   5.437
25252SOL    HW177653   2.164   5.903   5.437
25252SOL    HW277654   2.185   6.040   5.376
25253SOL     OW77655   5.002  10.275   6.363
25253SOL    HW177656   4.995  10.351   6.305
25253SOL    HW277657   5.094  10.275   6.392
25254SOL     OW77658   5.497   2.616   8.557
25254SOL    HW177659   5.551   2.692   8.576
25254SOL    HW277660   5.430   2.615   8.626
25255SOL     OW77661  12.100  11.311   4.241
25255SOL    HW177662  12.152  11.232   4.257
25255SOL    HW277663  12.105  11.324   4.146
25256SOL     OW77664   3.961   6.786   0.019
25256SOL    HW177665   3.968   6.858   0.082
25256SOL    HW277666   3.913   6.824  14.818
25257SOL     OW77667   7.933   7.750  14.527
25257SOL    HW177668   7.993   7.795  14.467
25257SOL    HW277669   7.874   7.701  14.470
25258SOL     OW77670  13.519   0.373  14.236
25258SOL    HW177671  13.430   0.338  14.240
25258SOL    HW277672  13.534   0.409  14.323
25259SOL     OW77673  10.364   7.892   7.817
25259SOL    HW177674  10.304   7.857   7.750
25259SOL    HW277675  10.306   7.917   7.889
25260SOL     OW77676   8.529  10.021   4.860
25260SOL    HW177677   8.508  10.093   4.919
25260SOL    HW277678   8.622  10.004   4.876
25261SOL     OW77679  13.050  14.724   4.512
25261SOL    HW177680  13.038  14.637   4.474
25261SOL    HW277681  13.110  14.768   4.451
25262SOL     OW77682   5.786  11.378   9.067
25262SOL    HW177683   5.809  11.313   9.134
25262SOL    HW277684   5.864  11.432   9.057
25263SOL     OW77685   1.912   9.149   6.287
25263SOL    HW177686   1.908   9.058   6.318
25263SOL    HW277687   1.863   9.148   6.205
25264SOL     OW77688  11.726   9.797  14.123
25264SOL    HW177689  11.816   9.825  14.105
25264SOL    HW277690  11.699   9.750  14.044
25265SOL     OW77691   9.846   0.133   3.374
25265SOL    HW177692   9.773   0.097   3.323
25265SOL    HW277693   9.909   0.163   3.308
25266SOL     OW77694   0.023  14.011   1.187
25266SOL    HW177695   0.037  14.103   1.165
25266SOL    HW277696  14.817  14.011   1.243
25267SOL     OW77697   2.891   3.423  10.854
25267SOL    HW177698   2.799   3.419  10.884
25267SOL    HW277699   2.937   3.361  10.911
25268SOL     OW77700  13.028   1.672  13.963
25268SOL    HW177701  12.988   1.645  14.046
25268SOL    HW277702  13.072   1.754  13.984
25269SOL     OW77703  13.960   4.566   2.863
25269SOL    HW177704  14.009   4.490   2.893
25269SOL    HW277705  14.025   4.636   2.859
25270SOL     OW77706  10.437   2.977   7.761
25270SOL    HW177707  10.380   2.903   7.781
25270SOL    HW277708  10.378   3.044   7.726
25271SOL     OW77709   0.761   8.104   6.803
25271SOL    HW177710   0.721   8.084   6.718
25271SOL    HW277711   0.853   8.120   6.782
25272SOL     OW77712   1.026  12.183   9.865
25272SOL    HW177713   1.056  12.094   9.844
25272SOL    HW277714   1.039  12.233   9.785
25273SOL     OW77715   2.940   6.725   6.628
25273SOL    HW177716   2.891   6.755   6.705
25273SOL    HW277717   3.031   6.742   6.649
25274SOL     OW77718   7.157  13.708   8.463
25274SOL    HW177719   7.199  13.623   8.478
25274SOL    HW277720   7.208  13.749   8.393
25275SOL     OW77721   8.781   2.560  13.181
25275SOL    HW177722   8.689   2.587  13.190
25275SOL    HW277723   8.831   2.640  13.198
25276SOL     OW77724   2.447  10.814   4.591
25276SOL    HW177725   2.362  10.856   4.581
25276SOL    HW277726   2.508  10.886   4.606
25277SOL     OW77727   6.000   2.783  10.903
25277SOL    HW177728   5.915   2.774  10.859
25277SOL    HW277729   6.054   2.831  10.841
25278SOL     OW77730   4.752   2.294  14.104
25278SOL    HW177731   4.772   2.369  14.160
25278SOL    HW277732   4.670   2.259  14.140
25279SOL     OW77733  10.490  10.917   6.855
25279SOL    HW177734  10.406  10.872   6.859
25279SOL    HW277735  10.526  10.907   6.943
25280SOL     OW77736   4.253   3.660  10.969
25280SOL    HW177737   4.299   3.742  10.952
25280SOL    HW277738   4.200   3.678  11.047
25281SOL     OW77739   5.591   5.606   7.997
25281SOL    HW177740   5.577   5.513   7.980
25281SOL    HW277741   5.515   5.649   7.959
25282SOL     OW77742  11.122   0.009   7.787
25282SOL    HW177743  11.087   0.097   7.800
25282SOL    HW277744  11.216   0.017   7.803
25283SOL     OW77745   7.955   7.070   9.583
25283SOL    HW177746   7.876   7.029   9.617
25283SOL    HW277747   7.980   7.134   9.650
25284SOL     OW77748   3.680   7.622  14.726
25284SOL    HW177749   3.686   7.527  14.723
25284SOL    HW277750   3.737   7.648  14.799
25285SOL     OW77751   3.444   4.927  12.619
25285SOL    HW177752   3.380   4.899  12.684
25285SOL    HW277753   3.473   5.013  12.648
25286SOL     OW77754   0.640   6.733   3.881
25286SOL    HW177755   0.735   6.726   3.873
25286SOL    HW277756   0.606   6.705   3.796
25287SOL     OW77757   6.633  14.669  10.843
25287SOL    HW177758   6.573  14.739  10.817
25287SOL    HW277759   6.679  14.704  10.919
25288SOL     OW77760   1.814  11.915   7.904
25288SOL    HW177761   1.856  11.985   7.853
25288SOL    HW277762   1.872  11.902   7.978
25289SOL     OW77763  10.694  11.921   8.147
25289SOL    HW177764  10.743  11.976   8.086
25289SOL    HW277765  10.641  11.982   8.198
25290SOL     OW77766  11.591  14.013   4.918
25290SOL    HW177767  11.621  13.968   4.839
25290SOL    HW277768  11.577  14.103   4.892
25291SOL     OW77769  11.204   5.955  14.173
25291SOL    HW177770  11.283   6.008  14.179
25291SOL    HW277771  11.136   6.009  14.213
25292SOL     OW77772   6.948   1.538   2.232
25292SOL    HW177773   6.999   1.487   2.296
25292SOL    HW277774   6.860   1.499   2.237
25293SOL     OW77775   7.952   2.530   5.398
25293SOL    HW177776   7.932   2.440   5.376
25293SOL    HW277777   8.030   2.551   5.347
25294SOL     OW77778   1.956  11.377  12.692
25294SOL    HW177779   1.871  11.360  12.650
25294SOL    HW277780   1.948  11.466  12.727
25295SOL     OW77781   8.850   9.446   1.529
25295SOL    HW177782   8.809   9.402   1.603
25295SOL    HW277783   8.932   9.481   1.563
25296SOL     OW77784   9.255   1.800   6.072
25296SOL    HW177785   9.250   1.843   6.158
25296SOL    HW277786   9.173   1.822   6.029
25297SOL     OW77787   7.539   5.719   9.293
25297SOL    HW177788   7.621   5.720   9.243
25297SOL    HW277789   7.474   5.682   9.233
25298SOL     OW77790   3.327   4.135   6.365
25298SOL    HW177791   3.250   4.107   6.413
25298SOL    HW277792   3.369   4.054   6.336
25299SOL     OW77793   8.202  13.298  14.097
25299SOL    HW177794   8.291  13.333  14.088
25299SOL    HW277795   8.145  13.368  14.065
25300SOL     OW77796   2.576  14.423  12.276
25300SOL    HW177797   2.570  14.404  12.370
25300SOL    HW277798   2.557  14.339  12.233
25301SOL     OW77799  14.346   1.473   3.589
25301SOL    HW177800  14.323   1.394   3.638
25301SOL    HW277801  14.424   1.448   3.539
25302SOL     OW77802  11.565   2.393   4.852
25302SOL    HW177803  11.527   2.314   4.891
25302SOL    HW277804  11.632   2.361   4.792
25303SOL     OW77805   4.598   7.584  14.543
25303SOL    HW177806   4.538   7.522  14.584
25303SOL    HW277807   4.546   7.663  14.531
25304SOL     OW77808  13.140   7.633   7.490
25304SOL    HW177809  13.074   7.692   7.454
25304SOL    HW277810  13.094   7.584   7.558
25305SOL     OW77811  12.333   1.328   3.691
25305SOL    HW177812  12.246   1.337   3.650
25305SOL    HW277813  12.315   1.326   3.785
25306SOL     OW77814   6.594  12.890  12.052
25306SOL    HW177815   6.532  12.959  12.029
25306SOL    HW277816   6.617  12.908  12.143
25307SOL     OW77817  10.774   0.571   1.330
25307SOL    HW177818  10.738   0.502   1.275
25307SOL    HW277819  10.846   0.607   1.279
25308SOL     OW77820   2.674   8.951   9.598
25308SOL    HW177821   2.738   9.012   9.563
25308SOL    HW277822   2.593   8.970   9.551
25309SOL     OW77823   1.326   7.367  13.869
25309SOL    HW177824   1.335   7.417  13.788
25309SOL    HW277825   1.348   7.428  13.939
25310SOL     OW77826  13.771   7.264   0.228
25310SOL    HW177827  13.724   7.290   0.148
25310SOL    HW277828  13.717   7.296   0.300
25311SOL     OW77829   5.664   9.787  13.702
25311SOL    HW177830   5.668   9.800  13.608
25311SOL    HW277831   5.570   9.781  13.722
25312SOL     OW77832   3.730   2.404  14.842
25312SOL    HW177833   3.824   2.421  14.853
25312SOL    HW277834   3.695   2.406   0.058
25313SOL     OW77835   6.532  10.806   7.228
25313SOL    HW177836   6.486  10.879   7.186
25313SOL    HW277837   6.567  10.754   7.156
25314SOL     OW77838   9.448  13.889   0.412
25314SOL    HW177839   9.541  13.882   0.387
25314SOL    HW277840   9.443  13.849   0.498
25315SOL     OW77841   3.558   4.752   7.404
25315SOL    HW177842   3.582   4.841   7.379
25315SOL    HW277843   3.498   4.763   7.478
25316SOL     OW77844   1.437   4.972   2.852
25316SOL    HW177845   1.344   4.955   2.838
25316SOL    HW277846   1.482   4.906   2.800
25317SOL     OW77847  13.176   8.090   3.341
25317SOL    HW177848  13.213   8.002   3.353
25317SOL    HW277849  13.252   8.147   3.334
25318SOL     OW77850  13.248   9.555  12.165
25318SOL    HW177851  13.278   9.470  12.199
25318SOL    HW277852  13.228   9.537  12.073
25319SOL     OW77853  12.288   2.380   9.932
25319SOL    HW177854  12.275   2.285   9.929
25319SOL    HW277855  12.381   2.392   9.913
25320SOL     OW77856   8.524  12.042   8.841
25320SOL    HW177857   8.542  12.135   8.823
25320SOL    HW277858   8.554  12.029   8.931
25321SOL     OW77859   5.966   0.175  10.758
25321SOL    HW177860   6.000   0.087  10.775
25321SOL    HW277861   6.019   0.232  10.814
25322SOL     OW77862   8.434  10.015  11.553
25322SOL    HW177863   8.387   9.967  11.485
25322SOL    HW277864   8.509   9.960  11.574
25323SOL     OW77865   0.861   9.652  14.678
25323SOL    HW177866   0.946   9.645  14.722
25323SOL    HW277867   0.868   9.733  14.626
25324SOL     OW77868  12.174   7.039   5.549
25324SOL    HW177869  12.180   7.034   5.454
25324SOL    HW277870  12.139   7.127   5.566
25325SOL     OW77871   3.009   7.746  11.773
25325SOL    HW177872   2.987   7.705  11.857
25325SOL    HW277873   3.098   7.718  11.755
25326SOL     OW77874   2.913   0.465   6.859
25326SOL    HW177875   2.834   0.411   6.847
25326SOL    HW277876   2.929   0.503   6.773
25327SOL     OW77877   3.294   0.912   1.842
25327SOL    HW177878   3.296   0.817   1.850
25327SOL    HW277879   3.273   0.928   1.750
25328SOL     OW77880   2.033   3.547   6.743
25328SOL    HW177881   2.025   3.608   6.669
25328SOL    HW277882   1.950   3.557   6.791
25329SOL     OW77883   1.082  13.409  14.211
25329SOL    HW177884   1.171  13.418  14.244
25329SOL    HW277885   1.028  13.397  14.290
25330SOL     OW77886   7.833   4.661   1.180
25330SOL    HW177887   7.895   4.704   1.121
25330SOL    HW277888   7.760   4.637   1.123
25331SOL     OW77889  13.931   4.386   4.287
25331SOL    HW177890  13.856   4.404   4.344
25331SOL    HW277891  13.930   4.291   4.275
25332SOL     OW77892  10.603  12.108   5.409
25332SOL    HW177893  10.657  12.119   5.331
25332SOL    HW277894  10.544  12.183   5.409
25333SOL     OW77895   2.087   5.154   6.691
25333SOL    HW177896   2.082   5.154   6.787
25333SOL    HW277897   2.157   5.216   6.671
25334SOL     OW77898   0.085   8.213   8.141
25334SOL    HW177899   0.169   8.258   8.129
25334SOL    HW277900   0.068   8.172   8.056
25335SOL     OW77901   7.337   7.791   4.286
25335SOL    HW177902   7.302   7.774   4.373
25335SOL    HW277903   7.279   7.858   4.249
25336SOL     OW77904   3.733  11.785   8.958
25336SOL    HW177905   3.811  11.829   8.925
25336SOL    HW277906   3.673  11.783   8.884
25337SOL     OW77907   1.911   8.797   8.448
25337SOL    HW177908   1.839   8.748   8.408
25337SOL    HW277909   1.975   8.730   8.473
25338SOL     OW77910   8.291   7.092   1.404
25338SOL    HW177911   8.299   6.997   1.408
25338SOL    HW277912   8.212   7.112   1.453
25339SOL     OW77913  13.588  14.781   9.229
25339SOL    HW177914  13.625  14.869   9.230
25339SOL    HW277915  13.500  14.791   9.264
25340SOL     OW77916   6.127   1.423  14.583
25340SOL    HW177917   6.134   1.328  14.568
25340SOL    HW277918   6.036   1.436  14.609
25341SOL     OW77919   4.754  14.792   6.685
25341SOL    HW177920   4.745  14.726   6.615
25341SOL    HW277921   4.764   0.002   6.638
25342SOL     OW77922   0.642   1.105   5.429
25342SOL    HW177923   0.632   1.016   5.395
25342SOL    HW277924   0.675   1.156   5.355
25343SOL     OW77925   1.892  14.711   6.080
25343SOL    HW177926   1.906  14.796   6.038
25343SOL    HW277927   1.940  14.716   6.162
25344SOL     OW77928  10.241   2.848   7.565
25344SOL    HW177929  10.192   2.808   7.637
25344SOL    HW277930  10.308   2.784   7.543
25345SOL     OW77931  12.534  14.220   8.849
25345SOL    HW177932  12.555  14.288   8.913
25345SOL    HW277933  12.510  14.144   8.902
25346SOL     OW77934   6.349   7.871   2.039
25346SOL    HW177935   6.401   7.873   1.958
25346SOL    HW277936   6.377   7.949   2.087
25347SOL     OW77937   5.893   5.905   0.184
25347SOL    HW177938   5.974   5.856   0.198
25347SOL    HW277939   5.830   5.863   0.242
25348SOL     OW77940   4.429   8.601   4.100
25348SOL    HW177941   4.425   8.561   4.013
25348SOL    HW277942   4.445   8.529   4.160
25349SOL     OW77943  11.207  13.071   6.740
25349SOL    HW177944  11.199  13.166   6.733
25349SOL    HW277945  11.298  13.057   6.768
25350SOL     OW77946   4.090  13.357   8.439
25350SOL    HW177947   4.165  13.308   8.473
25350SOL    HW277948   4.047  13.296   8.380
25351SOL     OW77949   5.989   4.239  10.710
25351SOL    HW177950   6.027   4.156  10.739
25351SOL    HW277951   6.055   4.276  10.651
25352SOL     OW77952  13.155   8.772   5.084
25352SOL    HW177953  13.192   8.756   5.171
25352SOL    HW277954  13.215   8.727   5.024
25353SOL     OW77955  13.978  14.705   8.263
25353SOL    HW177956  14.062  14.725   8.222
25353SOL    HW277957  14.000  14.671   8.349
25354SOL     OW77958  14.140   4.771  10.148
25354SOL    HW177959  14.057   4.730  10.171
25354SOL    HW277960  14.123   4.819  10.067
25355SOL     OW77961   8.027  14.314  12.731
25355SOL    HW177962   7.937  14.304  12.701
25355SOL    HW277963   8.075  14.244  12.686
25356SOL     OW77964  10.687   1.478   4.161
25356SOL    HW177965  10.738   1.546   4.117
25356SOL    HW277966  10.716   1.396   4.121
25357SOL     OW77967   9.643  12.923  11.953
25357SOL    HW177968   9.628  12.869  12.030
25357SOL    HW277969   9.735  12.908  11.929
25358SOL     OW77970   5.152   7.833   1.903
25358SOL    HW177971   5.220   7.863   1.964
25358SOL    HW277972   5.168   7.884   1.823
25359SOL     OW77973  13.188  10.095   9.088
25359SOL    HW177974  13.211  10.083   8.996
25359SOL    HW277975  13.187  10.007   9.125
25360SOL     OW77976  14.446   5.039   2.261
25360SOL    HW177977  14.400   4.974   2.208
25360SOL    HW277978  14.528   4.995   2.286
25361SOL     OW77979   0.151   6.595   4.962
25361SOL    HW177980   0.170   6.542   4.885
25361SOL    HW277981   0.120   6.679   4.927
25362SOL     OW77982   9.867   8.218   5.017
25362SOL    HW177983   9.797   8.263   4.969
25362SOL    HW277984   9.826   8.138   5.048
25363SOL     OW77985  11.948   7.775   0.850
25363SOL    HW177986  11.939   7.686   0.886
25363SOL    HW277987  11.995   7.763   0.767
25364SOL     OW77988   6.780   3.749   9.233
25364SOL    HW177989   6.777   3.832   9.185
25364SOL    HW277990   6.864   3.710   9.207
25365SOL     OW77991   2.894   3.743  11.202
25365SOL    HW177992   2.805   3.760  11.170
25365SOL    HW277993   2.900   3.647  11.205
25366SOL     OW77994   4.635  13.041  12.644
25366SOL    HW177995   4.543  13.025  12.666
25366SOL    HW277996   4.673  13.077  12.724
25367SOL     OW77997   6.620   9.509   1.045
25367SOL    HW177998   6.545   9.484   1.098
25367SOL    HW277999   6.615   9.605   1.038
25368SOL     OW78000  12.065  14.559   7.886
25368SOL    HW178001  12.024  14.536   7.802
25368SOL    HW278002  12.029  14.496   7.949
25369SOL     OW78003  12.700   8.685   1.792
25369SOL    HW178004  12.668   8.774   1.804
25369SOL    HW278005  12.738   8.685   1.705
25370SOL     OW78006  14.205   2.716   0.607
25370SOL    HW178007  14.116   2.695   0.579
25370SOL    HW278008  14.241   2.633   0.637
25371SOL     OW78009   5.846  10.492  11.632
25371SOL    HW178010   5.903  10.468  11.706
25371SOL    HW278011   5.771  10.534  11.673
25372SOL     OW78012   6.601  10.553   0.936
25372SOL    HW178013   6.622  10.471   0.891
25372SOL    HW278014   6.645  10.620   0.884
25373SOL     OW78015   1.274  10.995   0.071
25373SOL    HW178016   1.199  10.946   0.037
25373SOL    HW278017   1.239  11.082   0.090
25374SOL     OW78018   2.040   9.762  12.586
25374SOL    HW178019   1.993   9.823  12.644
25374SOL    HW278020   1.990   9.680  12.592
25375SOL     OW78021  10.260  14.850   7.801
25375SOL    HW178022  10.234  14.770   7.755
25375SOL    HW278023  10.355  14.853   7.794
25376SOL     OW78024  12.637  11.182   3.729
25376SOL    HW178025  12.655  11.147   3.642
25376SOL    HW278026  12.559  11.237   3.717
25377SOL     OW78027  10.575   4.211   2.521
25377SOL    HW178028  10.506   4.145   2.514
25377SOL    HW278029  10.532   4.288   2.557
25378SOL     OW78030  13.506   9.555  14.482
25378SOL    HW178031  13.416   9.524  14.478
25378SOL    HW278032  13.510   9.626  14.418
25379SOL     OW78033   7.465   5.408   5.587
25379SOL    HW178034   7.455   5.487   5.641
25379SOL    HW278035   7.376   5.372   5.581
25380SOL     OW78036   9.315   0.045   7.994
25380SOL    HW178037   9.337  14.839   7.942
25380SOL    HW278038   9.391   0.058   8.049
25381SOL     OW78039  13.353  10.868   9.328
25381SOL    HW178040  13.306  10.923   9.265
25381SOL    HW278041  13.347  10.780   9.291
25382SOL     OW78042  12.898   1.970  11.680
25382SOL    HW178043  12.839   2.008  11.745
25382SOL    HW278044  12.965   1.924  11.731
25383SOL     OW78045   2.027   4.330   8.027
25383SOL    HW178046   2.044   4.422   8.050
25383SOL    HW278047   1.986   4.334   7.941
25384SOL     OW78048   7.891  10.818   2.831
25384SOL    HW178049   7.964  10.880   2.842
25384SOL    HW278050   7.913  10.770   2.751
25385SOL     OW78051   0.545   9.291  10.165
25385SOL    HW178052   0.474   9.328  10.217
25385SOL    HW278053   0.524   9.198  10.156
25386SOL     OW78054   0.898  10.705   6.987
25386SOL    HW178055   0.841  10.702   6.910
25386SOL    HW278056   0.852  10.654   7.053
25387SOL     OW78057   6.206   8.185   7.991
25387SOL    HW178058   6.189   8.238   8.069
25387SOL    HW278059   6.215   8.096   8.024
25388SOL     OW78060  11.167   3.341   5.451
25388SOL    HW178061  11.147   3.261   5.402
25388SOL    HW278062  11.082   3.380   5.469
25389SOL     OW78063   4.493  10.841   0.326
25389SOL    HW178064   4.438  10.914   0.298
25389SOL    HW278065   4.460  10.817   0.412
25390SOL     OW78066   7.888   8.216   8.740
25390SOL    HW178067   7.870   8.155   8.812
25390SOL    HW278068   7.816   8.203   8.679
25391SOL     OW78069  11.405   8.401   6.821
25391SOL    HW178070  11.346   8.464   6.780
25391SOL    HW278071  11.348   8.327   6.842
25392SOL     OW78072  10.123   0.187   8.333
25392SOL    HW178073  10.040   0.142   8.315
25392SOL    HW278074  10.186   0.145   8.275
25393SOL     OW78075  12.112   5.783   6.269
25393SOL    HW178076  12.168   5.714   6.234
25393SOL    HW278077  12.172   5.840   6.317
25394SOL     OW78078   0.247  12.027  14.630
25394SOL    HW178079   0.282  12.010  14.718
25394SOL    HW278080   0.287  12.110  14.604
25395SOL     OW78081   6.976   1.432  11.751
25395SOL    HW178082   6.987   1.414  11.658
25395SOL    HW278083   7.025   1.362  11.795
25396SOL     OW78084  13.685  10.112   3.142
25396SOL    HW178085  13.615  10.175   3.157
25396SOL    HW278086  13.645  10.043   3.089
25397SOL     OW78087   1.210  11.201  11.470
25397SOL    HW178088   1.274  11.209  11.400
25397SOL    HW278089   1.235  11.268  11.534
25398SOL     OW78090  11.078   8.869  10.239
25398SOL    HW178091  11.112   8.916  10.163
25398SOL    HW278092  11.122   8.784  10.236
25399SOL     OW78093  13.470  11.150  14.428
25399SOL    HW178094  13.543  11.101  14.390
25399SOL    HW278095  13.445  11.212  14.361
25400SOL     OW78096  14.683   1.982   4.414
25400SOL    HW178097  14.726   1.952   4.334
25400SOL    HW278098  14.599   2.018   4.384
25401SOL     OW78099   5.803   5.631   6.761
25401SOL    HW178100   5.780   5.609   6.671
25401SOL    HW278101   5.819   5.547   6.804
25402SOL     OW78102   1.842   0.466   1.647
25402SOL    HW178103   1.792   0.461   1.728
25402SOL    HW278104   1.913   0.403   1.659
25403SOL     OW78105  12.990   0.210   5.444
25403SOL    HW178106  12.995   0.303   5.464
25403SOL    HW278107  13.029   0.166   5.519
25404SOL     OW78108  11.226   7.985   1.700
25404SOL    HW178109  11.315   8.019   1.687
25404SOL    HW278110  11.192   8.035   1.774
25405SOL     OW78111  11.359   0.717  12.818
25405SOL    HW178112  11.266   0.694  12.814
25405SOL    HW278113  11.368   0.789  12.756
25406SOL     OW78114   9.437  11.660  11.569
25406SOL    HW178115   9.360  11.717  11.556
25406SOL    HW278116   9.415  11.608  11.646
25407SOL     OW78117  13.048  12.823   9.979
25407SOL    HW178118  13.094  12.857   9.903
25407SOL    HW278119  12.998  12.748   9.946
25408SOL     OW78120   0.934   2.598   2.875
25408SOL    HW178121   0.873   2.562   2.810
25408SOL    HW278122   1.018   2.558   2.852
25409SOL     OW78123  13.603   0.653   3.944
25409SOL    HW178124  13.602   0.728   3.885
25409SOL    HW278125  13.510   0.635   3.961
25410SOL     OW78126   2.306  14.807  10.001
25410SOL    HW178127   2.387  14.826  10.049
25410SOL    HW278128   2.335  14.778   9.915
25411SOL     OW78129   0.855   6.219   8.497
25411SOL    HW178130   0.836   6.144   8.554
25411SOL    HW278131   0.830   6.190   8.410
25412SOL     OW78132   1.338  12.200   5.294
25412SOL    HW178133   1.357  12.150   5.373
25412SOL    HW278134   1.424  12.214   5.253
25413SOL     OW78135   0.678   7.267   7.476
25413SOL    HW178136   0.729   7.258   7.396
25413SOL    HW278137   0.655   7.360   7.480
25414SOL     OW78138   0.673   5.617   1.523
25414SOL    HW178139   0.690   5.675   1.449
25414SOL    HW278140   0.705   5.531   1.494
25415SOL     OW78141   1.739  11.099   4.611
25415SOL    HW178142   1.822  11.135   4.642
25415SOL    HW278143   1.682  11.100   4.688
25416SOL     OW78144   3.694   8.381   2.750
25416SOL    HW178145   3.726   8.437   2.821
25416SOL    HW278146   3.599   8.382   2.760
25417SOL     OW78147   0.566  10.806   5.946
25417SOL    HW178148   0.572  10.730   5.888
25417SOL    HW278149   0.490  10.788   6.001
25418SOL     OW78150   6.321   0.398   7.814
25418SOL    HW178151   6.260   0.463   7.779
25418SOL    HW278152   6.399   0.448   7.837
25419SOL     OW78153   2.353   1.044  12.674
25419SOL    HW178154   2.379   1.096  12.598
25419SOL    HW278155   2.430   0.992  12.695
25420SOL     OW78156   1.817   1.466  11.002
25420SOL    HW178157   1.892   1.409  10.984
25420SOL    HW278158   1.768   1.419  11.071
25421SOL     OW78159   8.337   7.700   1.102
25421SOL    HW178160   8.275   7.713   1.030
25421SOL    HW278161   8.372   7.613   1.088
25422SOL     OW78162   6.612  11.240   0.989
25422SOL    HW178163   6.575  11.224   1.076
25422SOL    HW278164   6.704  11.216   0.996
25423SOL     OW78165   0.976   7.760   1.227
25423SOL    HW178166   0.977   7.707   1.148
25423SOL    HW278167   0.883   7.782   1.240
25424SOL     OW78168  13.761   2.380   4.545
25424SOL    HW178169  13.715   2.398   4.627
25424SOL    HW278170  13.853   2.375   4.570
25425SOL     OW78171   2.636  12.673   5.559
25425SOL    HW178172   2.646  12.764   5.532
25425SOL    HW278173   2.568  12.638   5.502
25426SOL     OW78174   1.539   7.814  11.189
25426SOL    HW178175   1.534   7.752  11.117
25426SOL    HW278176   1.560   7.760  11.265
25427SOL     OW78177   6.711  12.668   4.945
25427SOL    HW178178   6.634  12.723   4.953
25427SOL    HW278179   6.677  12.579   4.937
25428SOL     OW78180  11.399  11.196  10.454
25428SOL    HW178181  11.340  11.268  10.433
25428SOL    HW278182  11.340  11.124  10.477
25429SOL     OW78183   2.384  14.283  11.442
25429SOL    HW178184   2.311  14.339  11.416
25429SOL    HW278185   2.345  14.222  11.505
25430SOL     OW78186  13.622   3.422   7.254
25430SOL    HW178187  13.698   3.418   7.195
25430SOL    HW278188  13.609   3.331   7.282
25431SOL     OW78189   6.579   5.384   2.220
25431SOL    HW178190   6.657   5.347   2.260
25431SOL    HW278191   6.509   5.323   2.243
25432SOL     OW78192   2.916   5.934  14.411
25432SOL    HW178193   2.947   5.906  14.324
25432SOL    HW278194   2.957   5.873  14.472
25433SOL     OW78195   1.487   5.216   4.991
25433SOL    HW178196   1.564   5.168   5.021
25433SOL    HW278197   1.414   5.173   5.034
25434SOL     OW78198  10.564  14.424   4.590
25434SOL    HW178199  10.630  14.438   4.658
25434SOL    HW278200  10.526  14.339   4.612
25435SOL     OW78201   0.203   1.052   4.414
25435SOL    HW178202   0.246   1.125   4.369
25435SOL    HW278203   0.122   1.090   4.448
25436SOL     OW78204  12.258   8.163  13.495
25436SOL    HW178205  12.236   8.174  13.402
25436SOL    HW278206  12.240   8.071  13.513
25437SOL     OW78207  14.124  13.677   4.087
25437SOL    HW178208  14.076  13.758   4.071
25437SOL    HW278209  14.203  13.685   4.033
25438SOL     OW78210   9.725   9.645   8.427
25438SOL    HW178211   9.773   9.611   8.503
25438SOL    HW278212   9.793   9.666   8.363
25439SOL     OW78213   5.260   4.994   9.093
25439SOL    HW178214   5.188   5.045   9.057
25439SOL    HW278215   5.217   4.927   9.147
25440SOL     OW78216   8.130  14.802   1.424
25440SOL    HW178217   8.186  14.770   1.352
25440SOL    HW278218   8.042  14.803   1.386
25441SOL     OW78219   6.235   2.507   4.069
25441SOL    HW178220   6.157   2.459   4.042
25441SOL    HW278221   6.298   2.491   3.999
25442SOL     OW78222   5.461   3.621  14.588
25442SOL    HW178223   5.465   3.716  14.592
25442SOL    HW278224   5.445   3.600  14.496
25443SOL     OW78225   3.248   8.642  11.103
25443SOL    HW178226   3.247   8.657  11.198
25443SOL    HW278227   3.313   8.573  11.090
25444SOL     OW78228  13.708   9.375   8.257
25444SOL    HW178229  13.631   9.327   8.286
25444SOL    HW278230  13.762   9.386   8.335
25445SOL     OW78231  14.483   1.373  12.094
25445SOL    HW178232  14.534   1.332  12.024
25445SOL    HW278233  14.398   1.391  12.053
25446SOL     OW78234  13.919   3.059  10.988
25446SOL    HW178235  13.910   2.976  10.941
25446SOL    HW278236  14.013   3.077  10.988
25447SOL     OW78237   0.021   2.395   2.423
25447SOL    HW178238   0.004   2.438   2.339
25447SOL    HW278239   0.011   2.465   2.488
25448SOL     OW78240  11.798   3.060  14.600
25448SOL    HW178241  11.772   3.070  14.692
25448SOL    HW278242  11.740   3.119  14.552
25449SOL     OW78243   0.884   4.595  10.713
25449SOL    HW178244   0.944   4.525  10.739
25449SOL    HW278245   0.921   4.675  10.751
25450SOL     OW78246   6.294   0.822   0.488
25450SOL    HW178247   6.269   0.830   0.396
25450SOL    HW278248   6.220   0.859   0.536
25451SOL     OW78249   3.657   8.142  11.219
25451SOL    HW178250   3.652   8.234  11.192
25451SOL    HW278251   3.729   8.139  11.281
25452SOL     OW78252  11.827   8.873   1.956
25452SOL    HW178253  11.811   8.948   2.013
25452SOL    HW278254  11.851   8.911   1.872
25453SOL     OW78255  10.845   6.195  12.543
25453SOL    HW178256  10.850   6.212  12.449
25453SOL    HW278257  10.811   6.276  12.580
25454SOL     OW78258   2.539   2.151  10.137
25454SOL    HW178259   2.457   2.128  10.179
25454SOL    HW278260   2.589   2.069  10.133
25455SOL     OW78261   8.091  12.353  13.525
25455SOL    HW178262   8.034  12.353  13.447
25455SOL    HW278263   8.036  12.389  13.594
25456SOL     OW78264   5.328   6.497   3.345
25456SOL    HW178265   5.261   6.447   3.392
25456SOL    HW278266   5.392   6.520   3.412
25457SOL     OW78267  12.977   0.237   5.121
25457SOL    HW178268  13.065   0.211   5.095
25457SOL    HW278269  12.940   0.159   5.162
25458SOL     OW78270   7.276   2.870  14.784
25458SOL    HW178271   7.274   2.778  14.758
25458SOL    HW278272   7.368   2.886  14.804
25459SOL     OW78273  11.416  11.336  12.955
25459SOL    HW178274  11.467  11.389  13.016
25459SOL    HW278275  11.325  11.354  12.976
25460SOL     OW78276   5.806  13.523  10.429
25460SOL    HW178277   5.863  13.528  10.506
25460SOL    HW278278   5.864  13.494  10.358
25461SOL     OW78279  10.799  11.721   3.836
25461SOL    HW178280  10.737  11.647   3.838
25461SOL    HW278281  10.851  11.710   3.916
25462SOL     OW78282   8.327  11.550  13.909
25462SOL    HW178283   8.415  11.539  13.944
25462SOL    HW278284   8.318  11.644  13.894
25463SOL     OW78285  13.953   3.145   1.661
25463SOL    HW178286  14.014   3.216   1.639
25463SOL    HW278287  13.962   3.083   1.589
25464SOL     OW78288  14.749  10.084   4.092
25464SOL    HW178289  14.731  10.022   4.021
25464SOL    HW278290  14.669  10.135   4.101
25465SOL     OW78291  12.147   7.215   0.253
25465SOL    HW178292  12.107   7.273   0.318
25465SOL    HW278293  12.082   7.147   0.237
25466SOL     OW78294  12.084   4.263  10.691
25466SOL    HW178295  12.126   4.340  10.654
25466SOL    HW278296  12.003   4.297  10.730
25467SOL     OW78297  11.858  13.923  11.357
25467SOL    HW178298  11.809  13.927  11.275
25467SOL    HW278299  11.797  13.955  11.424
25468SOL     OW78300  10.520  14.736  10.876
25468SOL    HW178301  10.432  14.698  10.881
25468SOL    HW278302  10.505  14.827  10.849
25469SOL     OW78303   9.240  12.502   8.501
25469SOL    HW178304   9.145  12.508   8.496
25469SOL    HW278305   9.268  12.485   8.411
25470SOL     OW78306  14.812   2.565  12.034
25470SOL    HW178307   0.025   2.609  12.038
25470SOL    HW278308  14.832   2.473  12.053
25471SOL     OW78309  14.113   7.314   5.966
25471SOL    HW178310  14.118   7.242   5.904
25471SOL    HW278311  14.029   7.356   5.948
25472SOL     OW78312   3.254   7.181   8.343
25472SOL    HW178313   3.337   7.223   8.322
25472SOL    HW278314   3.194   7.254   8.359
25473SOL     OW78315   7.939   3.021  14.749
25473SOL    HW178316   7.926   2.961  14.822
25473SOL    HW278317   7.952   2.963  14.673
25474SOL     OW78318   0.589   4.830  12.702
25474SOL    HW178319   0.635   4.828  12.785
25474SOL    HW278320   0.644   4.778  12.643
25475SOL     OW78321   6.854   0.684   5.860
25475SOL    HW178322   6.891   0.722   5.940
25475SOL    HW278323   6.919   0.619   5.833
25476SOL     OW78324   3.170   9.870   5.040
25476SOL    HW178325   3.107   9.920   4.989
25476SOL    HW278326   3.246   9.861   4.982
25477SOL     OW78327  11.125  12.760   4.284
25477SOL    HW178328  11.084  12.835   4.329
25477SOL    HW278329  11.087  12.761   4.196
25478SOL     OW78330   3.337   5.453   6.936
25478SOL    HW178331   3.273   5.523   6.951
25478SOL    HW278332   3.415   5.498   6.904
25479SOL     OW78333  11.588   6.037   6.433
25479SOL    HW178334  11.589   5.955   6.483
25479SOL    HW278335  11.676   6.072   6.442
25480SOL     OW78336   2.504  10.150  12.727
25480SOL    HW178337   2.596  10.130  12.744
25480SOL    HW278338   2.487  10.112  12.641
25481SOL     OW78339   8.493   6.001   2.359
25481SOL    HW178340   8.496   6.089   2.396
25481SOL    HW278341   8.509   6.013   2.266
25482SOL     OW78342   1.470   0.119  13.769
25482SOL    HW178343   1.458   0.093  13.677
25482SOL    HW278344   1.563   0.141  13.776
25483SOL     OW78345   8.739   0.202  11.181
25483SOL    HW178346   8.722   0.264  11.110
25483SOL    HW278347   8.733   0.116  11.139
25484SOL     OW78348  13.768  11.207  10.582
25484SOL    HW178349  13.707  11.177  10.514
25484SOL    HW278350  13.739  11.163  10.662
25485SOL     OW78351   8.408  13.089   8.669
25485SOL    HW178352   8.421  13.143   8.591
25485SOL    HW278353   8.494  13.086   8.710
25486SOL     OW78354   4.575   6.269   4.183
25486SOL    HW178355   4.569   6.321   4.264
25486SOL    HW278356   4.530   6.187   4.204
25487SOL     OW78357   1.360  12.900  13.687
25487SOL    HW178358   1.376  12.808  13.666
25487SOL    HW278359   1.264  12.909  13.682
25488SOL     OW78360   1.057   0.401   6.183
25488SOL    HW178361   1.128   0.451   6.222
25488SOL    HW278362   1.001   0.467   6.142
25489SOL     OW78363   6.044   6.833   0.396
25489SOL    HW178364   6.049   6.897   0.325
25489SOL    HW278365   6.135   6.802   0.405
25490SOL     OW78366  14.070  10.798  10.896
25490SOL    HW178367  13.997  10.776  10.954
25490SOL    HW278368  14.147  10.799  10.954
25491SOL     OW78369   4.161   0.488  13.435
25491SOL    HW178370   4.224   0.425  13.471
25491SOL    HW278371   4.214   0.564  13.411
25492SOL     OW78372   6.920   4.667   2.273
25492SOL    HW178373   6.976   4.740   2.297
25492SOL    HW278374   6.944   4.597   2.334
25493SOL     OW78375  11.241   0.734  12.504
25493SOL    HW178376  11.172   0.748  12.570
25493SOL    HW278377  11.309   0.797  12.528
25494SOL     OW78378   7.677  11.794  13.321
25494SOL    HW178379   7.629  11.820  13.400
25494SOL    HW278380   7.689  11.700  13.330
25495SOL     OW78381   3.284  12.656  10.392
25495SOL    HW178382   3.250  12.589  10.333
25495SOL    HW278383   3.315  12.608  10.469
25496SOL     OW78384  10.715   9.519   6.163
25496SOL    HW178385  10.671   9.465   6.097
25496SOL    HW278386  10.672   9.604   6.158
25497SOL     OW78387   0.366   3.024   0.857
25497SOL    HW178388   0.312   3.027   0.778
25497SOL    HW278389   0.326   2.957   0.912
25498SOL     OW78390   2.859   1.359   0.681
25498SOL    HW178391   2.902   1.279   0.649
25498SOL    HW278392   2.803   1.329   0.753
25499SOL     OW78393  10.959   7.322   3.348
25499SOL    HW178394  11.024   7.323   3.277
25499SOL    HW278395  10.879   7.355   3.307
25500SOL     OW78396   8.539   3.179   4.695
25500SOL    HW178397   8.579   3.114   4.753
25500SOL    HW278398   8.607   3.245   4.683
25501SOL     OW78399  11.406   2.180   8.615
25501SOL    HW178400  11.413   2.174   8.520
25501SOL    HW278401  11.496   2.177   8.646
25502SOL     OW78402   8.993  14.314   7.940
25502SOL    HW178403   8.900  14.294   7.945
25502SOL    HW278404   9.028  14.247   7.881
25503SOL     OW78405   8.638  13.149   6.122
25503SOL    HW178406   8.611  13.120   6.035
25503SOL    HW278407   8.578  13.221   6.142
25504SOL     OW78408  14.303   0.234  14.414
25504SOL    HW178409  14.324   0.143  14.392
25504SOL    HW278410  14.217   0.248  14.375
25505SOL     OW78411   9.360   1.123   6.132
25505SOL    HW178412   9.436   1.151   6.082
25505SOL    HW278413   9.285   1.148   6.078
25506SOL     OW78414  10.653   4.781  12.280
25506SOL    HW178415  10.650   4.779  12.184
25506SOL    HW278416  10.585   4.719  12.307
25507SOL     OW78417   7.938   0.490  11.733
25507SOL    HW178418   7.910   0.464  11.645
25507SOL    HW278419   7.858   0.490  11.785
25508SOL     OW78420  14.068   0.448   0.480
25508SOL    HW178421  14.014   0.437   0.403
25508SOL    HW278422  14.067   0.542   0.497
25509SOL     OW78423  10.625  10.214  12.968
25509SOL    HW178424  10.633  10.163  12.888
25509SOL    HW278425  10.702  10.192  13.020
25510SOL     OW78426   2.281   9.778   9.830
25510SOL    HW178427   2.221   9.795   9.902
25510SOL    HW278428   2.292   9.863   9.788
25511SOL     OW78429   6.896   4.543  14.675
25511SOL    HW178430   6.946   4.525  14.754
25511SOL    HW278431   6.825   4.479  14.677
25512SOL     OW78432   5.149  12.736   7.917
25512SOL    HW178433   5.171  12.680   7.843
25512SOL    HW278434   5.145  12.824   7.881
25513SOL     OW78435  10.282   9.001  12.105
25513SOL    HW178436  10.264   8.908  12.118
25513SOL    HW278437  10.197   9.039  12.083
25514SOL     OW78438  10.682   8.326   5.128
25514SOL    HW178439  10.611   8.290   5.181
25514SOL    HW278440  10.720   8.251   5.083
25515SOL     OW78441   1.495   1.013   6.347
25515SOL    HW178442   1.464   1.013   6.256
25515SOL    HW278443   1.530   0.925   6.360
25516SOL     OW78444   7.101   0.758  14.340
25516SOL    HW178445   7.038   0.705  14.291
25516SOL    HW278446   7.157   0.798  14.273
25517SOL     OW78447   0.476  12.293  11.846
25517SOL    HW178448   0.452  12.300  11.938
25517SOL    HW278449   0.415  12.228  11.810
25518SOL     OW78450  12.424   3.999  13.644
25518SOL    HW178451  12.423   3.909  13.677
25518SOL    HW278452  12.464   4.050  13.715
25519SOL     OW78453   1.419   2.893   8.789
25519SOL    HW178454   1.407   2.827   8.720
25519SOL    HW278455   1.334   2.938   8.794
25520SOL     OW78456  12.109   4.634  12.752
25520SOL    HW178457  12.181   4.628  12.689
25520SOL    HW278458  12.095   4.543  12.780
25521SOL     OW78459  14.403  12.514   1.167
25521SOL    HW178460  14.449  12.431   1.153
25521SOL    HW278461  14.329  12.510   1.106
25522SOL     OW78462   7.089   4.489  10.364
25522SOL    HW178463   7.133   4.509  10.281
25522SOL    HW278464   7.157   4.447  10.417
25523SOL     OW78465   5.875   5.718   5.559
25523SOL    HW178466   5.780   5.705   5.563
25523SOL    HW278467   5.911   5.641   5.605
25524SOL     OW78468   1.401  12.507   2.861
25524SOL    HW178469   1.447  12.546   2.787
25524SOL    HW278470   1.472  12.476   2.919
25525SOL     OW78471   5.377   9.649   7.936
25525SOL    HW178472   5.300   9.694   7.970
25525SOL    HW278473   5.344   9.565   7.904
25526SOL     OW78474   2.257  12.487   2.755
25526SOL    HW178475   2.351  12.480   2.773
25526SOL    HW278476   2.235  12.576   2.782
25527SOL     OW78477  12.445   7.212  14.554
25527SOL    HW178478  12.505   7.283  14.578
25527SOL    HW278479  12.368   7.226  14.609
25528SOL     OW78480   9.060   2.552  11.165
25528SOL    HW178481   9.141   2.505  11.141
25528SOL    HW278482   9.078   2.643  11.143
25529SOL     OW78483   6.991   8.017  12.219
25529SOL    HW178484   6.992   8.080  12.147
25529SOL    HW278485   6.953   7.938  12.182
25530SOL     OW78486   5.024   9.221   0.713
25530SOL    HW178487   4.995   9.183   0.796
25530SOL    HW278488   4.974   9.173   0.647
25531SOL     OW78489   0.950  10.109   4.618
25531SOL    HW178490   0.989  10.115   4.706
25531SOL    HW278491   1.023  10.126   4.559
25532SOL     OW78492  14.060  13.408  10.350
25532SOL    HW178493  13.983  13.372  10.306
25532SOL    HW278494  14.025  13.451  10.428
25533SOL     OW78495  10.754   4.176   0.153
25533SOL    HW178496  10.680   4.150   0.208
25533SOL    HW278497  10.714   4.223   0.080
25534SOL     OW78498   7.124   9.215   9.436
25534SOL    HW178499   7.035   9.219   9.401
25534SOL    HW278500   7.173   9.165   9.370
25535SOL     OW78501   5.273  11.992   3.040
25535SOL    HW178502   5.336  11.921   3.029
25535SOL    HW278503   5.265  12.030   2.952
25536SOL     OW78504   5.810  13.550   4.511
25536SOL    HW178505   5.742  13.581   4.450
25536SOL    HW278506   5.808  13.454   4.502
25537SOL     OW78507   8.011   8.808  13.560
25537SOL    HW178508   8.058   8.726  13.542
25537SOL    HW278509   8.069   8.857  13.618
25538SOL     OW78510   1.607   1.289   8.289
25538SOL    HW178511   1.683   1.344   8.309
25538SOL    HW278512   1.634   1.201   8.312
25539SOL     OW78513  10.362   2.735   5.855
25539SOL    HW178514  10.441   2.693   5.889
25539SOL    HW278515  10.315   2.764   5.933
25540SOL     OW78516   4.518  14.646   7.104
25540SOL    HW178517   4.525  14.552   7.125
25540SOL    HW278518   4.591  14.663   7.044
25541SOL     OW78519   1.856  11.679   0.154
25541SOL    HW178520   1.834  11.768   0.125
25541SOL    HW278521   1.875  11.632   0.073
25542SOL     OW78522   6.306   3.303   4.365
25542SOL    HW178523   6.322   3.365   4.437
25542SOL    HW278524   6.300   3.358   4.287
25543SOL     OW78525   5.413   0.724  12.735
25543SOL    HW178526   5.339   0.680  12.777
25543SOL    HW278527   5.387   0.816  12.731
25544SOL     OW78528  14.706   0.171  14.434
25544SOL    HW178529  14.794   0.191  14.467
25544SOL    HW278530  14.664   0.256  14.425
25545SOL     OW78531  14.403   4.554  13.650
25545SOL    HW178532  14.354   4.635  13.662
25545SOL    HW278533  14.433   4.531  13.738
25546SOL     OW78534   2.100  11.387  11.691
25546SOL    HW178535   2.151  11.306  11.684
25546SOL    HW278536   2.112  11.430  11.606
25547SOL     OW78537   5.116   2.920   4.837
25547SOL    HW178538   5.032   2.874   4.840
25547SOL    HW278539   5.123   2.950   4.746
25548SOL     OW78540   2.128   6.172   2.485
25548SOL    HW178541   2.221   6.180   2.463
25548SOL    HW278542   2.100   6.262   2.503
25549SOL     OW78543   3.276  11.023  12.031
25549SOL    HW178544   3.321  10.941  12.014
25549SOL    HW278545   3.341  11.091  12.014
25550SOL     OW78546   5.670   5.711  13.149
25550SOL    HW178547   5.620   5.635  13.178
25550SOL    HW278548   5.689   5.693  13.056
25551SOL     OW78549  14.457   7.189  12.084
25551SOL    HW178550  14.381   7.215  12.031
25551SOL    HW278551  14.514   7.142  12.023
25552SOL     OW78552   5.884   0.281  14.092
25552SOL    HW178553   5.910   0.256  14.003
25552SOL    HW278554   5.790   0.295  14.086
25553SOL     OW78555   3.971   9.398   7.539
25553SOL    HW178556   3.942   9.433   7.455
25553SOL    HW278557   3.949   9.466   7.603
25554SOL     OW78558   8.496  14.280   7.252
25554SOL    HW178559   8.534  14.315   7.333
25554SOL    HW278560   8.568  14.284   7.189
25555SOL     OW78561  12.607  12.000   3.152
25555SOL    HW178562  12.666  12.023   3.080
25555SOL    HW278563  12.531  11.961   3.109
25556SOL     OW78564  14.017   8.353   4.360
25556SOL    HW178565  13.988   8.262   4.347
25556SOL    HW278566  14.106   8.355   4.326
25557SOL     OW78567   4.307   9.318  13.596
25557SOL    HW178568   4.361   9.395  13.615
25557SOL    HW278569   4.370   9.249  13.575
25558SOL     OW78570  11.345  13.771  13.910
25558SOL    HW178571  11.329  13.709  13.982
25558SOL    HW278572  11.436  13.797  13.922
25559SOL     OW78573   8.216   3.673  10.175
25559SOL    HW178574   8.246   3.697  10.263
25559SOL    HW278575   8.204   3.757  10.131
25560SOL     OW78576  11.336   0.569   4.276
25560SOL    HW178577  11.402   0.516   4.320
25560SOL    HW278578  11.283   0.505   4.227
25561SOL     OW78579   9.275   5.992  11.508
25561SOL    HW178580   9.180   5.992  11.501
25561SOL    HW278581   9.299   6.084  11.518
25562SOL     OW78582  13.048  13.966   6.935
25562SOL    HW178583  12.956  13.992   6.934
25562SOL    HW278584  13.069  13.946   6.844
25563SOL     OW78585   1.552  12.258  13.434
25563SOL    HW178586   1.633  12.211  13.457
25563SOL    HW278587   1.579  12.320  13.367
25564SOL     OW78588  13.584  14.248   3.073
25564SOL    HW178589  13.602  14.299   3.152
25564SOL    HW278590  13.536  14.309   3.017
25565SOL     OW78591   4.288  12.096   7.517
25565SOL    HW178592   4.311  12.017   7.566
25565SOL    HW278593   4.336  12.088   7.435
25566SOL     OW78594   5.921   5.235   8.911
25566SOL    HW178595   5.930   5.144   8.885
25566SOL    HW278596   5.851   5.234   8.976
25567SOL     OW78597  11.296   4.566   2.309
25567SOL    HW178598  11.372   4.535   2.358
25567SOL    HW278599  11.220   4.533   2.357
25568SOL     OW78600   8.755   8.104  11.348
25568SOL    HW178601   8.748   8.197  11.326
25568SOL    HW278602   8.723   8.099  11.439
25569SOL     OW78603   7.506   4.007   8.078
25569SOL    HW178604   7.540   4.009   8.168
25569SOL    HW278605   7.578   4.042   8.025
25570SOL     OW78606   4.917   5.392  10.818
25570SOL    HW178607   4.889   5.436  10.898
25570SOL    HW278608   4.856   5.423  10.751
25571SOL     OW78609   7.923  13.792   0.162
25571SOL    HW178610   7.848  13.789   0.220
25571SOL    HW278611   7.886  13.810   0.075
25572SOL     OW78612   5.774   1.155   5.503
25572SOL    HW178613   5.787   1.079   5.560
25572SOL    HW278614   5.849   1.152   5.443
25573SOL     OW78615   0.076  14.737  12.739
25573SOL    HW178616   0.159  14.744  12.788
25573SOL    HW278617   0.082  14.806  12.673
25574SOL     OW78618   4.113   9.549   8.321
25574SOL    HW178619   4.054   9.624   8.332
25574SOL    HW278620   4.174   9.555   8.395
25575SOL     OW78621   1.167  10.786   5.425
25575SOL    HW178622   1.175  10.736   5.344
25575SOL    HW278623   1.135  10.723   5.489
25576SOL     OW78624  11.104   4.060   6.833
25576SOL    HW178625  11.143   4.051   6.920
25576SOL    HW278626  11.010   4.046   6.847
25577SOL     OW78627  11.160   3.331   0.564
25577SOL    HW178628  11.253   3.342   0.545
25577SOL    HW278629  11.157   3.310   0.657
25578SOL     OW78630  13.591  12.213   9.981
25578SOL    HW178631  13.535  12.257  10.045
25578SOL    HW278632  13.669  12.188  10.030
25579SOL     OW78633   8.355  13.324   1.593
25579SOL    HW178634   8.415  13.345   1.521
25579SOL    HW278635   8.302  13.251   1.559
25580SOL     OW78636   5.949   5.032  11.468
25580SOL    HW178637   5.936   4.956  11.524
25580SOL    HW278638   6.024   5.009  11.413
25581SOL     OW78639   3.090   8.644   1.585
25581SOL    HW178640   3.131   8.559   1.602
25581SOL    HW278641   2.996   8.628   1.596
25582SOL     OW78642  13.838   1.996   5.395
25582SOL    HW178643  13.891   1.927   5.437
25582SOL    HW278644  13.748   1.966   5.405
25583SOL     OW78645   2.115  13.141   3.599
25583SOL    HW178646   2.180  13.203   3.631
25583SOL    HW278647   2.051  13.134   3.671
25584SOL     OW78648  10.594   0.934  10.834
25584SOL    HW178649  10.588   0.865  10.900
25584SOL    HW278650  10.615   1.013  10.883
25585SOL     OW78651   6.869   3.373   6.267
25585SOL    HW178652   6.818   3.299   6.300
25585SOL    HW278653   6.947   3.334   6.229
25586SOL     OW78654   1.048   1.046   2.211
25586SOL    HW178655   1.127   1.099   2.196
25586SOL    HW278656   1.056   1.015   2.301
25587SOL     OW78657   7.225   4.873   5.305
25587SOL    HW178658   7.154   4.829   5.352
25587SOL    HW278659   7.186   4.955   5.274
25588SOL     OW78660   4.416   6.559   9.315
25588SOL    HW178661   4.505   6.552   9.350
25588SOL    HW278662   4.364   6.592   9.388
25589SOL     OW78663   7.313   9.403   7.574
25589SOL    HW178664   7.256   9.460   7.522
25589SOL    HW278665   7.302   9.433   7.664
25590SOL     OW78666   1.502   3.282  10.055
25590SOL    HW178667   1.570   3.320  10.110
25590SOL    HW278668   1.550   3.248   9.979
25591SOL     OW78669   2.917   7.009   3.560
25591SOL    HW178670   3.005   6.972   3.551
25591SOL    HW278671   2.924   7.068   3.635
25592SOL     OW78672   1.855   8.788   5.079
25592SOL    HW178673   1.883   8.723   5.014
25592SOL    HW278674   1.841   8.737   5.159
25593SOL     OW78675   8.645   7.889  11.145
25593SOL    HW178676   8.675   7.849  11.063
25593SOL    HW278677   8.715   7.950  11.169
25594SOL     OW78678   1.040   6.783   9.237
25594SOL    HW178679   1.057   6.876   9.243
25594SOL    HW278680   0.953   6.772   9.275
25595SOL     OW78681  10.952   6.253   7.041
25595SOL    HW178682  10.906   6.305   6.975
25595SOL    HW278683  10.895   6.256   7.118
25596SOL     OW78684   9.069  12.495   9.908
25596SOL    HW178685   9.046  12.511   9.817
25596SOL    HW278686   9.031  12.409   9.928
25597SOL     OW78687   9.742  13.192   4.650
25597SOL    HW178688   9.688  13.270   4.664
25597SOL    HW278689   9.815  13.203   4.711
25598SOL     OW78690   7.346   2.433   2.356
25598SOL    HW178691   7.413   2.499   2.375
25598SOL    HW278692   7.365   2.404   2.267
25599SOL     OW78693   4.109   1.135   8.674
25599SOL    HW178694   4.143   1.075   8.740
25599SOL    HW278695   4.018   1.109   8.662
25600SOL     OW78696   2.127   8.291   7.547
25600SOL    HW178697   2.070   8.298   7.470
25600SOL    HW278698   2.202   8.346   7.526
25601SOL     OW78699  14.666   6.398  13.357
25601SOL    HW178700  14.599   6.330  13.366
25601SOL    HW278701  14.739   6.367  13.412
25602SOL     OW78702   8.922  10.526   9.856
25602SOL    HW178703   8.895  10.545   9.945
25602SOL    HW278704   8.898  10.435   9.842
25603SOL     OW78705   0.657  12.678   9.685
25603SOL    HW178706   0.741  12.666   9.729
25603SOL    HW278707   0.679  12.721   9.602
25604SOL     OW78708   4.360  10.479  10.598
25604SOL    HW178709   4.316  10.515  10.675
25604SOL    HW278710   4.388  10.392  10.625
25605SOL     OW78711   2.532   0.163   0.500
25605SOL    HW178712   2.480   0.133   0.574
25605SOL    HW278713   2.540   0.086   0.444
25606SOL     OW78714   7.630  13.282   6.765
25606SOL    HW178715   7.660  13.201   6.725
25606SOL    HW278716   7.568  13.254   6.833
25607SOL     OW78717   6.443  11.145   9.108
25607SOL    HW178718   6.384  11.147   9.033
25607SOL    HW278719   6.391  11.105   9.178
25608SOL     OW78720   3.697  10.902  13.373
25608SOL    HW178721   3.628  10.839  13.391
25608SOL    HW278722   3.777  10.858  13.402
25609SOL     OW78723   5.828  13.235   5.313
25609SOL    HW178724   5.807  13.281   5.394
25609SOL    HW278725   5.881  13.160   5.340
25610SOL     OW78726  11.260  14.349  10.247
25610SOL    HW178727  11.319  14.423  10.260
25610SOL    HW278728  11.304  14.276  10.291
25611SOL     OW78729   4.373   5.238   2.419
25611SOL    HW178730   4.278   5.246   2.409
25611SOL    HW278731   4.406   5.238   2.329
25612SOL     OW78732   3.725   7.204   3.755
25612SOL    HW178733   3.731   7.112   3.728
25612SOL    HW278734   3.808   7.243   3.726
25613SOL     OW78735  10.719   8.183  14.466
25613SOL    HW178736  10.689   8.252  14.406
25613SOL    HW278737  10.803   8.215  14.500
25614SOL     OW78738   9.882  11.609  13.236
25614SOL    HW178739   9.972  11.638  13.254
25614SOL    HW278740   9.889  11.514  13.230
25615SOL     OW78741   7.350  10.424  13.702
25615SOL    HW178742   7.307  10.344  13.673
25615SOL    HW278743   7.329  10.488  13.635
25616SOL     OW78744   0.228  11.743   1.218
25616SOL    HW178745   0.269  11.806   1.278
25616SOL    HW278746   0.221  11.663   1.269
25617SOL     OW78747  13.685  11.644  13.518
25617SOL    HW178748  13.767  11.670  13.476
25617SOL    HW278749  13.701  11.658  13.612
25618SOL     OW78750  14.826   9.295  11.361
25618SOL    HW178751   0.035   9.251  11.385
25618SOL    HW278752  14.842   9.331  11.274
25619SOL     OW78753   5.571   2.830   2.444
25619SOL    HW178754   5.559   2.791   2.530
25619SOL    HW278755   5.497   2.890   2.434
25620SOL     OW78756   4.015  13.791   3.878
25620SOL    HW178757   3.958  13.864   3.904
25620SOL    HW278758   4.010  13.730   3.952
25621SOL     OW78759   4.681   9.188  13.375
25621SOL    HW178760   4.745   9.122  13.349
25621SOL    HW278761   4.733   9.268  13.387
25622SOL     OW78762   1.047   6.026  14.678
25622SOL    HW178763   1.113   6.001  14.742
25622SOL    HW278764   1.035   6.120  14.691
25623SOL     OW78765  13.598  11.702   8.386
25623SOL    HW178766  13.636  11.753   8.458
25623SOL    HW278767  13.667  11.696   8.320
25624SOL     OW78768   3.920  14.597  14.520
25624SOL    HW178769   3.851  14.549  14.566
25624SOL    HW278770   3.891  14.688  14.520
25625SOL     OW78771  12.416   3.896   1.324
25625SOL    HW178772  12.352   3.944   1.376
25625SOL    HW278773  12.385   3.905   1.233
25626SOL     OW78774  10.175   6.315   3.859
25626SOL    HW178775  10.107   6.350   3.801
25626SOL    HW278776  10.254   6.311   3.805
25627SOL     OW78777  14.276   2.574   2.195
25627SOL    HW178778  14.338   2.529   2.137
25627SOL    HW278779  14.262   2.513   2.267
25628SOL     OW78780   2.632   8.497   2.621
25628SOL    HW178781   2.587   8.413   2.632
25628SOL    HW278782   2.717   8.485   2.664
25629SOL     OW78783  13.719  11.687   4.575
25629SOL    HW178784  13.808  11.698   4.608
25629SOL    HW278785  13.684  11.613   4.624
25630SOL     OW78786   8.218   6.474   3.868
25630SOL    HW178787   8.126   6.451   3.852
25630SOL    HW278788   8.241   6.533   3.797
25631SOL     OW78789   3.021   9.808   1.212
25631SOL    HW178790   3.043   9.883   1.156
25631SOL    HW278791   3.096   9.799   1.270
25632SOL     OW78792   9.638  11.028   8.248
25632SOL    HW178793   9.636  10.937   8.219
25632SOL    HW278794   9.722  11.037   8.293
25633SOL     OW78795  11.045   8.266   5.002
25633SOL    HW178796  11.071   8.206   4.932
25633SOL    HW278797  11.024   8.348   4.957
25634SOL     OW78798   6.478   7.025   9.903
25634SOL    HW178799   6.416   6.952   9.903
25634SOL    HW278800   6.424   7.103   9.915
25635SOL     OW78801  12.184  11.114   0.367
25635SOL    HW178802  12.223  11.201   0.369
25635SOL    HW278803  12.222  11.072   0.290
25636SOL     OW78804  10.480  10.918  11.764
25636SOL    HW178805  10.451  10.832  11.732
25636SOL    HW278806  10.400  10.970  11.768
25637SOL     OW78807  10.888   0.407   8.551
25637SOL    HW178808  10.869   0.500   8.563
25637SOL    HW278809  10.805   0.371   8.518
25638SOL     OW78810   7.191   5.006  12.095
25638SOL    HW178811   7.213   5.066  12.166
25638SOL    HW278812   7.275   4.975  12.062
25639SOL     OW78813   9.106   3.352   5.580
25639SOL    HW178814   9.111   3.412   5.655
25639SOL    HW278815   9.150   3.273   5.610
25640SOL     OW78816   2.906   0.486   2.312
25640SOL    HW178817   2.983   0.540   2.293
25640SOL    HW278818   2.903   0.481   2.407
25641SOL     OW78819  14.103  12.422   5.333
25641SOL    HW178820  14.043  12.407   5.260
25641SOL    HW278821  14.111  12.517   5.338
25642SOL     OW78822   2.025   5.208   0.944
25642SOL    HW178823   1.961   5.189   1.012
25642SOL    HW278824   2.069   5.124   0.928
25643SOL     OW78825   4.609   9.137  14.387
25643SOL    HW178826   4.661   9.122  14.467
25643SOL    HW278827   4.554   9.213  14.408
25644SOL     OW78828  11.444   7.594   3.759
25644SOL    HW178829  11.459   7.599   3.853
25644SOL    HW278830  11.481   7.510   3.732
25645SOL     OW78831   4.101  11.833   0.803
25645SOL    HW178832   4.157  11.867   0.733
25645SOL    HW278833   4.035  11.781   0.758
25646SOL     OW78834   8.865  13.407   6.782
25646SOL    HW178835   8.932  13.395   6.849
25646SOL    HW278836   8.879  13.335   6.721
25647SOL     OW78837   8.317   9.841   1.172
25647SOL    HW178838   8.381   9.845   1.244
25647SOL    HW278839   8.364   9.877   1.097
25648SOL     OW78840   4.454   9.493  13.067
25648SOL    HW178841   4.468   9.456  13.154
25648SOL    HW278842   4.388   9.436  13.028
25649SOL     OW78843   0.278   0.626  13.282
25649SOL    HW178844   0.267   0.721  13.291
25649SOL    HW278845   0.190   0.593  13.265
25650SOL     OW78846   5.023   2.834  10.681
25650SOL    HW178847   5.057   2.756  10.725
25650SOL    HW278848   5.046   2.906  10.741
25651SOL     OW78849   1.436   9.277   6.350
25651SOL    HW178850   1.364   9.219   6.326
25651SOL    HW278851   1.457   9.323   6.269
25652SOL     OW78852   8.305   5.308   6.934
25652SOL    HW178853   8.239   5.362   6.891
25652SOL    HW278854   8.281   5.309   7.026
25653SOL     OW78855   4.431   9.771   7.147
25653SOL    HW178856   4.502   9.709   7.129
25653SOL    HW278857   4.474   9.846   7.187
25654SOL     OW78858  11.763  11.768   8.247
25654SOL    HW178859  11.699  11.781   8.177
25654SOL    HW278860  11.725  11.813   8.322
25655SOL     OW78861   6.339  12.363   2.241
25655SOL    HW178862   6.303  12.414   2.168
25655SOL    HW278863   6.281  12.382   2.314
25656SOL     OW78864   3.314   1.578   9.284
25656SOL    HW178865   3.258   1.551   9.211
25656SOL    HW278866   3.258   1.635   9.337
25657SOL     OW78867   0.627  11.525   7.359
25657SOL    HW178868   0.536  11.504   7.381
25657SOL    HW278869   0.632  11.620   7.366
25658SOL     OW78870  14.383  14.536   4.769
25658SOL    HW178871  14.328  14.473   4.722
25658SOL    HW278872  14.394  14.498   4.857
25659SOL     OW78873  12.834   9.138  13.453
25659SOL    HW178874  12.820   9.096  13.368
25659SOL    HW278875  12.864   9.067  13.510
25660SOL     OW78876   6.239  14.816   7.414
25660SOL    HW178877   6.169  14.854   7.467
25660SOL    HW278878   6.320  14.843   7.458
25661SOL     OW78879   3.782   2.675   2.425
25661SOL    HW178880   3.698   2.699   2.387
25661SOL    HW278881   3.808   2.596   2.378
25662SOL     OW78882   1.049   3.971   5.025
25662SOL    HW178883   0.976   3.936   4.974
25662SOL    HW278884   1.116   3.993   4.959
25663SOL     OW78885   1.320  13.731   0.747
25663SOL    HW178886   1.389  13.733   0.813
25663SOL    HW278887   1.341  13.803   0.687
25664SOL     OW78888  14.542   6.367  13.933
25664SOL    HW178889  14.489   6.398  14.006
25664SOL    HW278890  14.479   6.331  13.871
25665SOL     OW78891   3.353   0.510  14.571
25665SOL    HW178892   3.334   0.595  14.530
25665SOL    HW278893   3.335   0.446  14.503
25666SOL     OW78894   8.906  12.973   8.605
25666SOL    HW178895   8.941  13.031   8.538
25666SOL    HW278896   8.976  12.910   8.621
25667SOL     OW78897   2.331   2.858  10.992
25667SOL    HW178898   2.338   2.764  10.980
25667SOL    HW278899   2.238   2.877  10.980
25668SOL     OW78900   2.465   1.023   9.458
25668SOL    HW178901   2.430   0.955   9.400
25668SOL    HW278902   2.502   1.089   9.398
25669SOL     OW78903  13.477  11.256   5.047
25669SOL    HW178904  13.428  11.178   5.023
25669SOL    HW278905  13.417  11.329   5.027
25670SOL     OW78906  13.707  13.321   5.181
25670SOL    HW178907  13.668  13.359   5.102
25670SOL    HW278908  13.715  13.395   5.241
25671SOL     OW78909   2.139   5.768  12.725
25671SOL    HW178910   2.129   5.693  12.783
25671SOL    HW278911   2.233   5.773  12.707
25672SOL     OW78912   7.589   4.253   0.271
25672SOL    HW178913   7.614   4.333   0.316
25672SOL    HW278914   7.553   4.196   0.340
25673SOL     OW78915  12.983   8.282   2.110
25673SOL    HW178916  13.060   8.241   2.070
25673SOL    HW278917  12.947   8.339   2.041
25674SOL     OW78918  11.387   7.164   5.019
25674SOL    HW178919  11.411   7.123   4.936
25674SOL    HW278920  11.390   7.094   5.083
25675SOL     OW78921  12.268   4.731  13.389
25675SOL    HW178922  12.226   4.655  13.430
25675SOL    HW278923  12.356   4.732  13.427
25676SOL     OW78924  11.136   3.062  12.491
25676SOL    HW178925  11.122   2.969  12.472
25676SOL    HW278926  11.048   3.096  12.507
25677SOL     OW78927   9.926  10.891   7.826
25677SOL    HW178928   9.884  10.817   7.871
25677SOL    HW278929   9.881  10.968   7.860
25678SOL     OW78930  13.780   4.851   7.358
25678SOL    HW178931  13.820   4.774   7.399
25678SOL    HW278932  13.804   4.924   7.415
25679SOL     OW78933  10.963   1.332   5.032
25679SOL    HW178934  10.982   1.425   5.018
25679SOL    HW278935  10.907   1.331   5.109
25680SOL     OW78936   7.995   3.375   4.898
25680SOL    HW178937   8.043   3.320   4.837
25680SOL    HW278938   7.968   3.451   4.846
25681SOL     OW78939  12.131  10.395   1.656
25681SOL    HW178940  12.201  10.408   1.720
25681SOL    HW278941  12.061  10.352   1.706
25682SOL     OW78942   2.489  10.368   1.534
25682SOL    HW178943   2.570  10.412   1.559
25682SOL    HW278944   2.466  10.408   1.450
25683SOL     OW78945   8.800  14.047   9.132
25683SOL    HW178946   8.881  14.050   9.081
25683SOL    HW278947   8.792  14.134   9.170
25684SOL     OW78948   8.325   7.212  13.538
25684SOL    HW178949   8.362   7.250  13.618
25684SOL    HW278950   8.386   7.238  13.469
25685SOL     OW78951   2.249   3.941  11.967
25685SOL    HW178952   2.323   4.001  11.968
25685SOL    HW278953   2.276   3.869  11.909
25686SOL     OW78954  11.079   2.099   4.578
25686SOL    HW178955  11.070   2.013   4.538
25686SOL    HW278956  11.002   2.107   4.634
25687SOL     OW78957   8.849   5.022   4.278
25687SOL    HW178958   8.823   5.100   4.328
25687SOL    HW278959   8.937   5.043   4.246
25688SOL     OW78960   8.658   7.388   6.302
25688SOL    HW178961   8.729   7.329   6.325
25688SOL    HW278962   8.699   7.458   6.251
25689SOL     OW78963   1.563   7.500   5.110
25689SOL    HW178964   1.472   7.492   5.139
25689SOL    HW278965   1.566   7.450   5.028
25690SOL     OW78966  10.999   5.117  10.343
25690SOL    HW178967  10.980   5.208  10.321
25690SOL    HW278968  11.080   5.122  10.394
25691SOL     OW78969   6.699   3.485   7.305
25691SOL    HW178970   6.725   3.454   7.219
25691SOL    HW278971   6.690   3.580   7.295
25692SOL     OW78972   2.123   0.618   6.083
25692SOL    HW178973   2.217   0.600   6.074
25692SOL    HW278974   2.096   0.565   6.158
25693SOL     OW78975   5.821   1.638   7.342
25693SOL    HW178976   5.834   1.717   7.395
25693SOL    HW278977   5.729   1.616   7.354
25694SOL     OW78978   6.808   0.481  11.247
25694SOL    HW178979   6.777   0.399  11.286
25694SOL    HW278980   6.826   0.538  11.322
25695SOL     OW78981   9.275  12.805   3.259
25695SOL    HW178982   9.245  12.852   3.337
25695SOL    HW278983   9.194  12.777   3.215
25696SOL     OW78984  12.248  12.421   9.747
25696SOL    HW178985  12.293  12.374   9.677
25696SOL    HW278986  12.317  12.471   9.791
25697SOL     OW78987   0.690   5.328   5.381
25697SOL    HW178988   0.784   5.345   5.375
25697SOL    HW278989   0.685   5.241   5.422
25698SOL     OW78990  10.913   4.654  13.660
25698SOL    HW178991  10.819   4.663  13.641
25698SOL    HW278992  10.955   4.665  13.575
25699SOL     OW78993  11.488   4.891   3.275
25699SOL    HW178994  11.417   4.867   3.216
25699SOL    HW278995  11.524   4.808   3.305
25700SOL     OW78996   8.110   0.702   9.000
25700SOL    HW178997   8.152   0.784   8.974
25700SOL    HW278998   8.154   0.635   8.948
25701SOL     OW78999  11.354  14.506   4.272
25701SOL    HW179000  11.359  14.445   4.345
25701SOL    HW279001  11.430  14.486   4.218
25702SOL     OW79002   5.236   3.404   0.617
25702SOL    HW179003   5.317   3.369   0.652
25702SOL    HW279004   5.255   3.496   0.597
25703SOL     OW79005   9.185   6.310   0.853
25703SOL    HW179006   9.246   6.361   0.906
25703SOL    HW279007   9.241   6.257   0.796
25704SOL     OW79008   6.697   4.354   2.229
25704SOL    HW179009   6.749   4.295   2.284
25704SOL    HW279010   6.748   4.363   2.149
25705SOL     OW79011   1.390   4.027   8.234
25705SOL    HW179012   1.478   4.037   8.198
25705SOL    HW279013   1.392   3.941   8.276
25706SOL     OW79014  14.508   0.908   1.343
25706SOL    HW179015  14.539   0.998   1.339
25706SOL    HW279016  14.462   0.902   1.427
25707SOL     OW79017  12.504   4.107  10.263
25707SOL    HW179018  12.554   4.079  10.340
25707SOL    HW279019  12.465   4.190  10.289
25708SOL     OW79020  13.045  13.243  11.113
25708SOL    HW179021  12.990  13.276  11.042
25708SOL    HW279022  13.132  13.277  11.093
25709SOL     OW79023   1.768  12.927   4.903
25709SOL    HW179024   1.703  12.993   4.928
25709SOL    HW279025   1.842  12.943   4.961
25710SOL     OW79026  13.445   7.679  13.283
25710SOL    HW179027  13.357   7.679  13.322
25710SOL    HW279028  13.481   7.594  13.306
25711SOL     OW79029  14.491  13.926   2.038
25711SOL    HW179030  14.514  13.856   1.977
25711SOL    HW279031  14.565  13.931   2.098
25712SOL     OW79032  10.257  13.522   8.597
25712SOL    HW179033  10.181  13.557   8.550
25712SOL    HW279034  10.280  13.443   8.547
25713SOL     OW79035   0.911   7.767   1.893
25713SOL    HW179036   0.916   7.686   1.943
25713SOL    HW279037   0.977   7.758   1.825
25714SOL     OW79038   0.156   4.553   3.896
25714SOL    HW179039   0.102   4.481   3.863
25714SOL    HW279040   0.152   4.619   3.827
25715SOL     OW79041   6.027   5.468   5.670
25715SOL    HW179042   6.074   5.430   5.595
25715SOL    HW279043   6.088   5.532   5.706
25716SOL     OW79044   6.659   3.464  14.577
25716SOL    HW179045   6.614   3.486  14.659
25716SOL    HW279046   6.696   3.377  14.593
25717SOL     OW79047   9.883   2.559  13.575
25717SOL    HW179048   9.835   2.539  13.495
25717SOL    HW279049   9.902   2.473  13.614
25718SOL     OW79050   4.591   3.187   0.840
25718SOL    HW179051   4.530   3.251   0.803
25718SOL    HW279052   4.538   3.137   0.901
25719SOL     OW79053   6.122  14.320  12.610
25719SOL    HW179054   6.187  14.383  12.640
25719SOL    HW279055   6.166  14.269  12.542
25720SOL     OW79056  10.512  11.778   4.619
25720SOL    HW179057  10.443  11.826   4.664
25720SOL    HW279058  10.501  11.799   4.526
25721SOL     OW79059  11.701   3.410   8.943
25721SOL    HW179060  11.791   3.377   8.945
25721SOL    HW279061  11.709   3.501   8.915
25722SOL     OW79062  13.572   7.377   2.495
25722SOL    HW179063  13.588   7.462   2.455
25722SOL    HW279064  13.643   7.321   2.462
25723SOL     OW79065  12.969   1.891  10.566
25723SOL    HW179066  12.961   1.813  10.510
25723SOL    HW279067  12.880   1.928  10.567
25724SOL     OW79068   8.627  12.172   6.863
25724SOL    HW179069   8.563  12.136   6.925
25724SOL    HW279070   8.578  12.183   6.781
25725SOL     OW79071   0.203   9.498   9.411
25725SOL    HW179072   0.142   9.471   9.479
25725SOL    HW279073   0.162   9.574   9.371
25726SOL     OW79074  12.243  12.478   6.451
25726SOL    HW179075  12.252  12.567   6.415
25726SOL    HW279076  12.279  12.421   6.383
25727SOL     OW79077   2.437   9.504   2.344
25727SOL    HW179078   2.393   9.484   2.261
25727SOL    HW279079   2.391   9.581   2.378
25728SOL     OW79080   8.967  12.361   0.046
25728SOL    HW179081   8.995  12.413  14.843
25728SOL    HW279082   9.008  12.275   0.032
25729SOL     OW79083  14.861   1.254   2.275
25729SOL    HW179084  14.786   1.312   2.261
25729SOL    HW279085  14.861   1.196   2.199
25730SOL     OW79086  14.346   6.286   4.727
25730SOL    HW179087  14.352   6.366   4.676
25730SOL    HW279088  14.289   6.308   4.800
25731SOL     OW79089   4.148   6.353   5.891
25731SOL    HW179090   4.127   6.295   5.818
25731SOL    HW279091   4.203   6.301   5.949
25732SOL     OW79092   1.723  11.887   6.409
25732SOL    HW179093   1.652  11.856   6.353
25732SOL    HW279094   1.783  11.932   6.349
25733SOL     OW79095   4.287  10.844   0.651
25733SOL    HW179096   4.196  10.871   0.661
25733SOL    HW279097   4.311  10.809   0.737
25734SOL     OW79098  12.381   2.012  13.015
25734SOL    HW179099  12.329   1.942  12.975
25734SOL    HW279100  12.366   2.002  13.109
25735SOL     OW79101   0.483  14.467   5.301
25735SOL    HW179102   0.401  14.502   5.335
25735SOL    HW279103   0.513  14.407   5.369
25736SOL     OW79104   4.891   0.663   9.725
25736SOL    HW179105   4.913   0.570   9.715
25736SOL    HW279106   4.970   0.709   9.696
25737SOL     OW79107  14.349   5.684   5.818
25737SOL    HW179108  14.292   5.749   5.778
25737SOL    HW279109  14.289   5.624   5.863
25738SOL     OW79110   9.310   9.478   7.323
25738SOL    HW179111   9.281   9.545   7.261
25738SOL    HW279112   9.272   9.505   7.407
25739SOL     OW79113   4.653  11.024   0.853
25739SOL    HW179114   4.700  10.948   0.820
25739SOL    HW279115   4.598  10.990   0.923
25740SOL     OW79116  12.719  13.423  14.756
25740SOL    HW179117  12.697  13.364  14.828
25740SOL    HW279118  12.807  13.455  14.778
25741SOL     OW79119   1.926  14.638   1.195
25741SOL    HW179120   1.868  14.562   1.201
25741SOL    HW279121   2.009  14.602   1.166
25742SOL     OW79122   7.895   5.471   2.668
25742SOL    HW179123   7.830   5.423   2.617
25742SOL    HW279124   7.865   5.562   2.666
25743SOL     OW79125   3.889   3.698   3.970
25743SOL    HW179126   3.968   3.658   4.007
25743SOL    HW279127   3.921   3.765   3.910
25744SOL     OW79128   3.843   5.088   9.661
25744SOL    HW179129   3.899   5.135   9.724
25744SOL    HW279130   3.904   5.061   9.592
25745SOL     OW79131  10.680  14.342   0.257
25745SOL    HW179132  10.643  14.311   0.173
25745SOL    HW279133  10.604  14.376   0.305
25746SOL     OW79134  11.945  11.160   7.608
25746SOL    HW179135  12.006  11.185   7.677
25746SOL    HW279136  11.995  11.102   7.551
25747SOL     OW79137   8.365   4.407   4.024
25747SOL    HW179138   8.294   4.377   3.967
25747SOL    HW279139   8.366   4.502   4.012
25748SOL     OW79140   7.090  13.944   5.993
25748SOL    HW179141   7.136  13.939   6.077
25748SOL    HW279142   7.157  13.968   5.930
25749SOL     OW79143   8.099   1.019   8.714
25749SOL    HW179144   8.130   1.020   8.805
25749SOL    HW279145   8.026   1.080   8.713
25750SOL     OW79146   3.237  11.016   0.398
25750SOL    HW179147   3.178  11.006   0.323
25750SOL    HW279148   3.312  11.064   0.363
25751SOL     OW79149  11.428   9.146  14.870
25751SOL    HW179150  11.373   9.129  14.794
25751SOL    HW279151  11.372   9.199   0.056
25752SOL     OW79152   6.147  10.843   5.084
25752SOL    HW179153   6.129  10.755   5.051
25752SOL    HW279154   6.196  10.886   5.014
25753SOL     OW79155   8.783  10.836   5.229
25753SOL    HW179156   8.828  10.878   5.302
25753SOL    HW279157   8.853  10.805   5.172
25754SOL     OW79158   6.642  12.029   9.810
25754SOL    HW179159   6.596  11.949   9.784
25754SOL    HW279160   6.657  12.019   9.904
25755SOL     OW79161   9.797  14.443  10.215
25755SOL    HW179162   9.731  14.512  10.209
25755SOL    HW279163   9.756  14.375  10.270
25756SOL     OW79164   9.472   1.373   6.455
25756SOL    HW179165   9.437   1.286   6.434
25756SOL    HW279166   9.503   1.365   6.545
25757SOL     OW79167   9.803  10.446   1.613
25757SOL    HW179168   9.771  10.535   1.630
25757SOL    HW279169   9.895  10.458   1.590
25758SOL     OW79170   4.345   2.058  10.997
25758SOL    HW179171   4.287   2.102  11.060
25758SOL    HW279172   4.418   2.118  10.986
25759SOL     OW79173   8.573  10.896  13.157
25759SOL    HW179174   8.589  10.942  13.074
25759SOL    HW279175   8.503  10.835  13.137
25760SOL     OW79176   4.629  14.143   3.916
25760SOL    HW179177   4.673  14.099   3.843
25760SOL    HW279178   4.687  14.130   3.991
25761SOL     OW79179  10.473  14.704   4.528
25761SOL    HW179180  10.466  14.611   4.548
25761SOL    HW279181  10.561  14.728   4.555
25762SOL     OW79182   2.746   9.909  14.498
25762SOL    HW179183   2.703   9.827  14.521
25762SOL    HW279184   2.810   9.923  14.567
25763SOL     OW79185   9.320   3.736   9.268
25763SOL    HW179186   9.253   3.736   9.199
25763SOL    HW279187   9.401   3.714   9.223
25764SOL     OW79188   6.341   9.335   7.897
25764SOL    HW179189   6.309   9.360   7.810
25764SOL    HW279190   6.299   9.252   7.916
25765SOL     OW79191   4.599   9.157   9.339
25765SOL    HW179192   4.671   9.094   9.329
25765SOL    HW279193   4.570   9.145   9.430
25766SOL     OW79194   9.379   1.753  11.669
25766SOL    HW179195   9.333   1.802  11.737
25766SOL    HW279196   9.359   1.661  11.687
25767SOL     OW79197   0.450   6.303   9.100
25767SOL    HW179198   0.465   6.397   9.093
25767SOL    HW279199   0.497   6.277   9.180
25768SOL     OW79200  12.038   5.845   9.723
25768SOL    HW179201  12.068   5.759   9.753
25768SOL    HW279202  12.060   5.846   9.629
25769SOL     OW79203   9.716  12.335   8.124
25769SOL    HW179204   9.763  12.394   8.183
25769SOL    HW279205   9.680  12.392   8.056
25770SOL     OW79206   1.099  10.459   9.522
25770SOL    HW179207   1.084  10.372   9.484
25770SOL    HW279208   1.074  10.520   9.453
25771SOL     OW79209   9.166  10.593  13.606
25771SOL    HW179210   9.119  10.675  13.586
25771SOL    HW279211   9.195  10.603  13.697
25772SOL     OW79212   8.919   5.599   6.868
25772SOL    HW179213   8.863   5.551   6.808
25772SOL    HW279214   8.874   5.683   6.881
25773SOL     OW79215   6.685   6.507  13.521
25773SOL    HW179216   6.745   6.446  13.478
25773SOL    HW279217   6.738   6.551  13.587
25774SOL     OW79218  14.069   4.924   9.643
25774SOL    HW179219  14.050   5.016   9.626
25774SOL    HW279220  14.126   4.924   9.720
25775SOL     OW79221  12.946   8.985   7.646
25775SOL    HW179222  13.025   8.983   7.592
25775SOL    HW279223  12.970   8.939   7.726
25776SOL     OW79224   4.003   8.971   4.068
25776SOL    HW179225   4.006   9.060   4.102
25776SOL    HW279226   4.093   8.951   4.042
25777SOL     OW79227  11.269  12.499   1.301
25777SOL    HW179228  11.189  12.551   1.307
25777SOL    HW279229  11.325  12.549   1.241
25778SOL     OW79230   4.909   2.314   2.297
25778SOL    HW179231   4.834   2.374   2.293
25778SOL    HW279232   4.986   2.370   2.288
25779SOL     OW79233   0.828  11.347   2.926
25779SOL    HW179234   0.814  11.331   2.833
25779SOL    HW279235   0.743  11.327   2.967
25780SOL     OW79236   0.117   9.303  14.114
25780SOL    HW179237   0.120   9.292  14.209
25780SOL    HW279238   0.052   9.239  14.084
25781SOL     OW79239   4.396  13.220  10.942
25781SOL    HW179240   4.444  13.157  10.996
25781SOL    HW279241   4.397  13.300  10.993
25782SOL     OW79242  11.583   7.619   7.590
25782SOL    HW179243  11.494   7.649   7.572
25782SOL    HW279244  11.638   7.668   7.530
25783SOL     OW79245   3.587   7.279   9.718
25783SOL    HW179246   3.510   7.310   9.671
25783SOL    HW279247   3.658   7.281   9.653
25784SOL     OW79248   0.706   3.897   9.748
25784SOL    HW179249   0.765   3.850   9.808
25784SOL    HW279250   0.639   3.934   9.806
25785SOL     OW79251  14.571   0.249  11.261
25785SOL    HW179252  14.586   0.244  11.167
25785SOL    HW279253  14.535   0.336  11.276
25786SOL     OW79254   1.254   2.933  10.064
25786SOL    HW179255   1.203   3.013  10.077
25786SOL    HW279256   1.325   2.938  10.128
25787SOL     OW79257   3.153   5.367   1.024
25787SOL    HW179258   3.204   5.374   0.943
25787SOL    HW279259   3.218   5.359   1.093
25788SOL     OW79260  14.007  10.232   6.393
25788SOL    HW179261  13.935  10.169   6.394
25788SOL    HW279262  13.973  10.308   6.442
25789SOL     OW79263   8.871  11.277   3.478
25789SOL    HW179264   8.857  11.355   3.530
25789SOL    HW279265   8.852  11.204   3.537
25790SOL     OW79266   6.940   0.557   7.905
25790SOL    HW179267   6.956   0.505   7.827
25790SOL    HW279268   7.009   0.531   7.966
25791SOL     OW79269   0.245   8.359   0.195
25791SOL    HW179270   0.157   8.395   0.195
25791SOL    HW279271   0.293   8.411   0.130
25792SOL     OW79272   8.849   5.193   4.505
25792SOL    HW179273   8.824   5.271   4.555
25792SOL    HW279274   8.914   5.149   4.560
25793SOL     OW79275   9.815   9.020   2.466
25793SOL    HW179276   9.761   8.993   2.392
25793SOL    HW279277   9.898   9.045   2.427
25794SOL     OW79278  14.093  13.960   3.229
25794SOL    HW179279  14.188  13.967   3.225
25794SOL    HW279280  14.067  14.032   3.286
25795SOL     OW79281   9.479   3.230   5.682
25795SOL    HW179282   9.471   3.318   5.719
25795SOL    HW279283   9.483   3.243   5.588
25796SOL     OW79284  13.358   0.498  11.982
25796SOL    HW179285  13.362   0.425  12.045
25796SOL    HW279286  13.268   0.496  11.949
25797SOL     OW79287   8.694  13.058   8.745
25797SOL    HW179288   8.762  13.042   8.679
25797SOL    HW279289   8.722  13.007   8.821
25798SOL     OW79290   6.010   5.862  13.037
25798SOL    HW179291   5.929   5.891  13.077
25798SOL    HW279292   6.027   5.924  12.966
25799SOL     OW79293   9.300   2.814   9.679
25799SOL    HW179294   9.284   2.866   9.600
25799SOL    HW279295   9.236   2.847   9.743
25800SOL     OW79296   2.826   5.016   5.507
25800SOL    HW179297   2.919   5.035   5.492
25800SOL    HW279298   2.826   4.928   5.544
25801SOL     OW79299  13.512  11.815   4.029
25801SOL    HW179300  13.497  11.823   4.123
25801SOL    HW279301  13.535  11.723   4.015
25802SOL     OW79302   1.321   0.454  10.475
25802SOL    HW179303   1.380   0.429  10.403
25802SOL    HW279304   1.268   0.525  10.438
25803SOL     OW79305  14.255   9.050   6.535
25803SOL    HW179306  14.280   9.074   6.446
25803SOL    HW279307  14.199   9.122   6.564
25804SOL     OW79308   7.991  11.493  13.333
25804SOL    HW179309   8.026  11.578  13.361
25804SOL    HW279310   8.017  11.433  13.403
25805SOL     OW79311  13.729   3.773   3.643
25805SOL    HW179312  13.739   3.868   3.639
25805SOL    HW279313  13.666   3.759   3.714
25806SOL     OW79314  12.364   2.845  12.952
25806SOL    HW179315  12.396   2.922  12.999
25806SOL    HW279316  12.272   2.865  12.933
25807SOL     OW79317   2.531  14.164   0.649
25807SOL    HW179318   2.499  14.074   0.650
25807SOL    HW279319   2.595  14.168   0.719
25808SOL     OW79320   4.677  11.967  13.867
25808SOL    HW179321   4.615  12.007  13.806
25808SOL    HW279322   4.681  12.029  13.940
25809SOL     OW79323   2.510  10.789  12.661
25809SOL    HW179324   2.464  10.830  12.588
25809SOL    HW279325   2.523  10.859  12.725
25810SOL     OW79326  12.229   4.042   2.168
25810SOL    HW179327  12.162   3.975   2.178
25810SOL    HW279328  12.304   3.995   2.131
25811SOL     OW79329   0.652   4.848   9.407
25811SOL    HW179330   0.703   4.895   9.342
25811SOL    HW279331   0.669   4.755   9.388
25812SOL     OW79332  13.605  11.576  11.669
25812SOL    HW179333  13.668  11.591  11.739
25812SOL    HW279334  13.520  11.585  11.710
25813SOL     OW79335  13.924   0.495   7.006
25813SOL    HW179336  13.847   0.543   6.976
25813SOL    HW279337  13.989   0.508   6.937
25814SOL     OW79338  12.543   5.831   1.880
25814SOL    HW179339  12.546   5.851   1.974
25814SOL    HW279340  12.634   5.817   1.856
25815SOL     OW79341   4.031   5.913  10.403
25815SOL    HW179342   3.993   5.837  10.445
25815SOL    HW279343   4.119   5.919  10.439
25816SOL     OW79344   3.427  12.011   4.016
25816SOL    HW179345   3.468  12.092   4.045
25816SOL    HW279346   3.497  11.946   4.019
25817SOL     OW79347  10.992  10.728  12.734
25817SOL    HW179348  11.009  10.638  12.705
25817SOL    HW279349  11.078  10.771  12.731
25818SOL     OW79350  13.670   1.303  13.344
25818SOL    HW179351  13.721   1.332  13.420
25818SOL    HW279352  13.615   1.232  13.377
25819SOL     OW79353  11.812   5.218  12.038
25819SOL    HW179354  11.745   5.272  11.997
25819SOL    HW279355  11.884   5.279  12.057
25820SOL     OW79356   8.673   3.741   3.057
25820SOL    HW179357   8.715   3.657   3.073
25820SOL    HW279358   8.614   3.754   3.131
25821SOL     OW79359   3.381  13.303  13.252
25821SOL    HW179360   3.372  13.286  13.158
25821SOL    HW279361   3.327  13.381  13.268
25822SOL     OW79362  14.565   0.762   2.160
25822SOL    HW179363  14.489   0.801   2.116
25822SOL    HW279364  14.590   0.689   2.104
25823SOL     OW79365  11.539   9.104   8.660
25823SOL    HW179366  11.503   9.137   8.578
25823SOL    HW279367  11.482   9.030   8.683
25824SOL     OW79368   4.140  11.841   9.395
25824SOL    HW179369   4.055  11.857   9.437
25824SOL    HW279370   4.179  11.928   9.386
25825SOL     OW79371  11.817   4.971   2.688
25825SOL    HW179372  11.802   5.008   2.601
25825SOL    HW279373  11.852   4.883   2.671
25826SOL     OW79374  13.669   2.470   2.308
25826SOL    HW179375  13.705   2.528   2.375
25826SOL    HW279376  13.695   2.382   2.336
25827SOL     OW79377   8.783   8.609  13.721
25827SOL    HW179378   8.867   8.568  13.702
25827SOL    HW279379   8.787   8.694  13.677
25828SOL     OW79380   8.920  12.294   6.643
25828SOL    HW179381   8.848  12.231   6.649
25828SOL    HW279382   8.989  12.256   6.697
25829SOL     OW79383   2.486   9.638  12.443
25829SOL    HW179384   2.449   9.627  12.355
25829SOL    HW279385   2.414   9.618  12.502
25830SOL     OW79386   8.367   2.752   7.748
25830SOL    HW179387   8.313   2.673   7.754
25830SOL    HW279388   8.319   2.817   7.800
25831SOL     OW79389  11.706   6.658  14.156
25831SOL    HW179390  11.773   6.708  14.204
25831SOL    HW279391  11.646   6.725  14.123
25832SOL     OW79392   7.065   8.600  14.106
25832SOL    HW179393   6.991   8.644  14.147
25832SOL    HW279394   7.077   8.521  14.158
25833SOL     OW79395  14.443   9.368   4.086
25833SOL    HW179396  14.538   9.367   4.079
25833SOL    HW279397  14.415   9.283   4.051
25834SOL     OW79398   5.102   1.736  14.548
25834SOL    HW179399   5.182   1.782  14.572
25834SOL    HW279400   5.123   1.693  14.465
25835SOL     OW79401   3.538   2.554   3.417
25835SOL    HW179402   3.498   2.614   3.480
25835SOL    HW279403   3.484   2.474   3.422
25836SOL     OW79404   4.530   7.511  11.287
25836SOL    HW179405   4.558   7.481  11.200
25836SOL    HW279406   4.471   7.442  11.318
25837SOL     OW79407   3.874  10.428   9.948
25837SOL    HW179408   3.927  10.498   9.911
25837SOL    HW279409   3.801  10.473   9.991
25838SOL     OW79410   7.466  12.398   6.140
25838SOL    HW179411   7.543  12.344   6.157
25838SOL    HW279412   7.418  12.352   6.071
25839SOL     OW79413   1.921   3.860  14.563
25839SOL    HW179414   1.944   3.867  14.471
25839SOL    HW279415   1.985   3.799  14.600
25840SOL     OW79416  11.044  13.406   7.984
25840SOL    HW179417  11.093  13.333   8.021
25840SOL    HW279418  11.104  13.480   7.991
25841SOL     OW79419  12.466   4.369   9.201
25841SOL    HW179420  12.531   4.437   9.185
25841SOL    HW279421  12.467   4.356   9.296
25842SOL     OW79422   2.628   9.663   8.752
25842SOL    HW179423   2.622   9.573   8.721
25842SOL    HW279424   2.537   9.688   8.769
25843SOL     OW79425   2.134   8.726   3.435
25843SOL    HW179426   2.056   8.768   3.400
25843SOL    HW279427   2.173   8.681   3.360
25844SOL     OW79428   8.625   8.330   7.627
25844SOL    HW179429   8.639   8.365   7.539
25844SOL    HW279430   8.691   8.374   7.681
25845SOL     OW79431   1.002   7.294   6.070
25845SOL    HW179432   0.995   7.299   5.974
25845SOL    HW279433   1.058   7.218   6.085
25846SOL     OW79434  13.369   1.982   1.788
25846SOL    HW179435  13.338   1.893   1.805
25846SOL    HW279436  13.464   1.974   1.788
25847SOL     OW79437  10.043  11.478   7.110
25847SOL    HW179438  10.064  11.396   7.155
25847SOL    HW279439  10.101  11.480   7.034
25848SOL     OW79440   4.912   0.993   0.117
25848SOL    HW179441   4.915   1.055   0.044
25848SOL    HW279442   4.827   1.008   0.157
25849SOL     OW79443   8.552  14.773  13.437
25849SOL    HW179444   8.476  14.771  13.495
25849SOL    HW279445   8.528  14.716  13.364
25850SOL     OW79446   8.098   1.360   9.651
25850SOL    HW179447   8.033   1.429   9.656
25850SOL    HW279448   8.084   1.321   9.565
25851SOL     OW79449   0.146   2.297  10.380
25851SOL    HW179450   0.090   2.374  10.391
25851SOL    HW279451   0.123   2.263  10.294
25852SOL     OW79452   4.129   8.833  13.271
25852SOL    HW179453   4.184   8.912  13.273
25852SOL    HW279454   4.124   8.809  13.179
25853SOL     OW79455   5.825   0.075   0.818
25853SOL    HW179456   5.843   0.097   0.726
25853SOL    HW279457   5.892   0.010   0.840
25854SOL     OW79458   4.705   3.854   9.332
25854SOL    HW179459   4.635   3.887   9.275
25854SOL    HW279460   4.773   3.823   9.271
25855SOL     OW79461   8.257   2.114  14.707
25855SOL    HW179462   8.257   2.152  14.795
25855SOL    HW279463   8.340   2.067  14.701
25856SOL     OW79464   6.220  14.397   8.351
25856SOL    HW179465   6.195  14.318   8.302
25856SOL    HW279466   6.152  14.406   8.417
25857SOL     OW79467   7.871   3.906   7.091
25857SOL    HW179468   7.786   3.949   7.089
25857SOL    HW279469   7.902   3.909   7.001
25858SOL     OW79470   9.180   5.172   2.693
25858SOL    HW179471   9.106   5.137   2.643
25858SOL    HW279472   9.251   5.177   2.629
25859SOL     OW79473   8.779   0.449   7.454
25859SOL    HW179474   8.705   0.464   7.512
25859SOL    HW279475   8.853   0.489   7.499
25860SOL     OW79476   8.574   2.779  14.575
25860SOL    HW179477   8.488   2.780  14.534
25860SOL    HW279478   8.556   2.784  14.669
25861SOL     OW79479   6.565  13.684   3.552
25861SOL    HW179480   6.533  13.705   3.640
25861SOL    HW279481   6.599  13.595   3.559
25862SOL     OW79482   8.635  12.654   3.304
25862SOL    HW179483   8.590  12.571   3.290
25862SOL    HW279484   8.564  12.716   3.323
25863SOL     OW79485  11.216   2.210   5.216
25863SOL    HW179486  11.219   2.300   5.248
25863SOL    HW279487  11.249   2.157   5.289
25864SOL     OW79488   6.689   7.638   0.935
25864SOL    HW179489   6.597   7.668   0.937
25864SOL    HW279490   6.721   7.655   1.024
25865SOL     OW79491   7.116  12.169   4.512
25865SOL    HW179492   7.147  12.107   4.445
25865SOL    HW279493   7.164  12.249   4.494
25866SOL     OW79494  11.121   4.943   7.988
25866SOL    HW179495  11.063   4.899   8.050
25866SOL    HW279496  11.068   4.951   7.908
25867SOL     OW79497   3.771  13.397   6.181
25867SOL    HW179498   3.697  13.343   6.210
25867SOL    HW279499   3.834  13.392   6.253
25868SOL     OW79500  12.004   6.784   2.687
25868SOL    HW179501  12.048   6.795   2.771
25868SOL    HW279502  11.913   6.810   2.704
25869SOL     OW79503   6.655  10.192   6.172
25869SOL    HW179504   6.658  10.246   6.250
25869SOL    HW279505   6.677  10.104   6.202
25870SOL     OW79506   4.298   5.104   1.951
25870SOL    HW179507   4.359   5.157   2.002
25870SOL    HW279508   4.285   5.025   2.002
25871SOL     OW79509   0.839   0.440   6.709
25871SOL    HW179510   0.805   0.364   6.662
25871SOL    HW279511   0.810   0.515   6.658
25872SOL     OW79512   3.614  10.066   5.566
25872SOL    HW179513   3.683  10.127   5.541
25872SOL    HW279514   3.657   9.981   5.571
25873SOL     OW79515   1.180   9.415  12.578
25873SOL    HW179516   1.181   9.472  12.501
25873SOL    HW279517   1.104   9.358  12.565
25874SOL     OW79518   1.720   3.143   6.784
25874SOL    HW179519   1.740   3.139   6.877
25874SOL    HW279520   1.698   3.235   6.767
25875SOL     OW79521  11.022   1.141   1.910
25875SOL    HW179522  10.999   1.234   1.915
25875SOL    HW279523  10.963   1.105   1.843
25876SOL     OW79524   4.973   4.737  12.222
25876SOL    HW179525   5.040   4.805  12.212
25876SOL    HW279526   4.955   4.735  12.316
25877SOL     OW79527   3.901   6.475  14.424
25877SOL    HW179528   3.862   6.430  14.498
25877SOL    HW279529   3.900   6.411  14.352
25878SOL     OW79530  11.971  10.408  13.868
25878SOL    HW179531  11.952  10.481  13.928
25878SOL    HW279532  12.065  10.417  13.850
25879SOL     OW79533  13.757   1.585  11.465
25879SOL    HW179534  13.669   1.574  11.429
25879SOL    HW279535  13.745   1.581  11.559
25880SOL     OW79536   7.148  10.604   7.411
25880SOL    HW179537   7.188  10.690   7.428
25880SOL    HW279538   7.141  10.564   7.498
25881SOL     OW79539   9.761   8.564   5.743
25881SOL    HW179540   9.760   8.579   5.838
25881SOL    HW279541   9.708   8.484   5.732
25882SOL     OW79542   7.925  10.424  11.554
25882SOL    HW179543   7.859  10.356  11.540
25882SOL    HW279544   8.006  10.376  11.571
25883SOL     OW79545  10.655   5.327   4.147
25883SOL    HW179546  10.661   5.255   4.209
25883SOL    HW279547  10.745   5.338   4.114
25884SOL     OW79548  12.969  12.968  11.154
25884SOL    HW179549  13.024  13.044  11.131
25884SOL    HW279550  12.985  12.955  11.248
25885SOL     OW79551   7.840   1.071  14.167
25885SOL    HW179552   7.849   1.139  14.100
25885SOL    HW279553   7.745   1.064  14.181
25886SOL     OW79554   1.366   5.805  14.686
25886SOL    HW179555   1.408   5.726  14.651
25886SOL    HW279556   1.328   5.847  14.609
25887SOL     OW79557  11.162   7.949   7.773
25887SOL    HW179558  11.096   8.017   7.788
25887SOL    HW279559  11.228   7.992   7.719
25888SOL     OW79560   4.240  10.036   9.544
25888SOL    HW179561   4.168  10.017   9.604
25888SOL    HW279562   4.251   9.956   9.494
25889SOL     OW79563   4.590   0.299  10.918
25889SOL    HW179564   4.586   0.370  10.982
25889SOL    HW279565   4.677   0.260  10.931
25890SOL     OW79566  11.903  12.455  13.541
25890SOL    HW179567  11.986  12.499  13.556
25890SOL    HW279568  11.856  12.464  13.624
25891SOL     OW79569   1.630   7.824   3.755
25891SOL    HW179570   1.664   7.901   3.800
25891SOL    HW279571   1.583   7.776   3.823
25892SOL     OW79572  10.230   3.814   8.074
25892SOL    HW179573  10.238   3.789   7.982
25892SOL    HW279574  10.142   3.786   8.098
25893SOL     OW79575  10.780   0.269  12.829
25893SOL    HW179576  10.831   0.188  12.831
25893SOL    HW279577  10.757   0.282  12.737
25894SOL     OW79578   2.228  12.177   6.634
25894SOL    HW179579   2.208  12.093   6.591
25894SOL    HW279580   2.295  12.156   6.698
25895SOL     OW79581   1.690  10.092   3.089
25895SOL    HW179582   1.677  10.128   3.177
25895SOL    HW279583   1.728  10.165   3.039
25896SOL     OW79584   3.830   0.466   3.995
25896SOL    HW179585   3.771   0.431   3.928
25896SOL    HW279586   3.830   0.560   3.980
25897SOL     OW79587   9.074   0.775   8.601
25897SOL    HW179588   9.009   0.845   8.602
25897SOL    HW279589   9.022   0.694   8.607
25898SOL     OW79590   6.973   9.119  12.241
25898SOL    HW179591   6.914   9.193  12.257
25898SOL    HW279592   6.915   9.048  12.212
25899SOL     OW79593  11.305   0.331   4.725
25899SOL    HW179594  11.366   0.262   4.752
25899SOL    HW279595  11.303   0.326   4.629
25900SOL     OW79596   2.868   3.336   7.581
25900SOL    HW179597   2.899   3.265   7.637
25900SOL    HW279598   2.903   3.415   7.621
25901SOL     OW79599   1.155   6.197  11.839
25901SOL    HW179600   1.061   6.202  11.821
25901SOL    HW279601   1.194   6.260  11.779
25902SOL     OW79602   4.957  11.225  12.610
25902SOL    HW179603   4.974  11.132  12.591
25902SOL    HW279604   5.043  11.259  12.636
25903SOL     OW79605   6.333  12.773  12.173
25903SOL    HW179606   6.328  12.830  12.250
25903SOL    HW279607   6.412  12.802  12.127
25904SOL     OW79608   5.195   0.394   8.834
25904SOL    HW179609   5.190   0.478   8.789
25904SOL    HW279610   5.185   0.329   8.764
25905SOL     OW79611   1.480   5.091   3.734
25905SOL    HW179612   1.521   5.084   3.648
25905SOL    HW279613   1.527   5.162   3.778
25906SOL     OW79614  13.542   9.809   5.811
25906SOL    HW179615  13.513   9.826   5.721
25906SOL    HW279616  13.610   9.742   5.801
25907SOL     OW79617   1.698   2.572   4.028
25907SOL    HW179618   1.619   2.519   4.038
25907SOL    HW279619   1.738   2.541   3.947
25908SOL     OW79620  13.166  10.481   1.964
25908SOL    HW179621  13.170  10.574   1.985
25908SOL    HW279622  13.073  10.463   1.951
25909SOL     OW79623   0.509   7.085  13.872
25909SOL    HW179624   0.489   7.054  13.960
25909SOL    HW279625   0.498   7.008  13.816
25910SOL     OW79626   7.090   7.966   0.220
25910SOL    HW179627   7.163   7.915   0.255
25910SOL    HW279628   7.014   7.907   0.225
25911SOL     OW79629  10.602   2.979   8.173
25911SOL    HW179630  10.688   2.947   8.146
25911SOL    HW279631  10.541   2.912   8.142
25912SOL     OW79632   0.637   8.422  14.524
25912SOL    HW179633   0.563   8.362  14.513
25912SOL    HW279634   0.642   8.469  14.441
25913SOL     OW79635   8.773   0.866   1.426
25913SOL    HW179636   8.787   0.801   1.358
25913SOL    HW279637   8.862   0.887   1.457
25914SOL     OW79638   0.457   5.672  11.727
25914SOL    HW179639   0.462   5.608  11.798
25914SOL    HW279640   0.364   5.680  11.708
25915SOL     OW79641  11.523   8.110  11.506
25915SOL    HW179642  11.585   8.163  11.455
25915SOL    HW279643  11.496   8.166  11.578
25916SOL     OW79644   3.148   0.911   9.767
25916SOL    HW179645   3.110   0.823   9.767
25916SOL    HW279646   3.168   0.929   9.858
25917SOL     OW79647   3.626  14.213   4.929
25917SOL    HW179648   3.559  14.280   4.945
25917SOL    HW279649   3.587  14.157   4.861
25918SOL     OW79650   2.064  12.950  11.653
25918SOL    HW179651   1.991  12.974  11.711
25918SOL    HW279652   2.140  12.994  11.691
25919SOL     OW79653   7.880   9.234   5.763
25919SOL    HW179654   7.867   9.150   5.719
25919SOL    HW279655   7.966   9.264   5.733
25920SOL     OW79656   3.777   5.084   5.886
25920SOL    HW179657   3.754   5.105   5.796
25920SOL    HW279658   3.714   5.017   5.912
25921SOL     OW79659   4.778   5.901  10.547
25921SOL    HW179660   4.866   5.940  10.549
25921SOL    HW279661   4.749   5.913  10.457
25922SOL     OW79662   6.348   8.800  10.436
25922SOL    HW179663   6.409   8.868  10.464
25922SOL    HW279664   6.383   8.771  10.351
25923SOL     OW79665   7.343   4.192  13.412
25923SOL    HW179666   7.422   4.158  13.453
25923SOL    HW279667   7.334   4.281  13.448
25924SOL     OW79668  14.461   5.841   9.811
25924SOL    HW179669  14.399   5.776   9.778
25924SOL    HW279670  14.412   5.923   9.812
25925SOL     OW79671  13.626   8.678   1.076
25925SOL    HW179672  13.589   8.595   1.045
25925SOL    HW279673  13.684   8.706   1.005
25926SOL     OW79674   8.175   7.777  10.300
25926SOL    HW179675   8.079   7.774  10.304
25926SOL    HW279676   8.203   7.691  10.332
25927SOL     OW79677   8.057   5.281  11.557
25927SOL    HW179678   8.129   5.251  11.503
25927SOL    HW279679   8.042   5.210  11.620
25928SOL     OW79680  13.894  13.368   5.751
25928SOL    HW179681  13.855  13.328   5.673
25928SOL    HW279682  13.839  13.444   5.769
25929SOL     OW79683   3.098   9.728   0.453
25929SOL    HW179684   3.011   9.695   0.475
25929SOL    HW279685   3.158   9.662   0.488
25930SOL     OW79686  12.913  11.194   6.284
25930SOL    HW179687  12.918  11.161   6.194
25930SOL    HW279688  12.932  11.287   6.276
25931SOL     OW79689  10.718   3.722  14.666
25931SOL    HW179690  10.801   3.756  14.634
25931SOL    HW279691  10.737   3.692  14.755
25932SOL     OW79692   6.349   3.349   1.531
25932SOL    HW179693   6.298   3.371   1.453
25932SOL    HW279694   6.437   3.333   1.498
25933SOL     OW79695   0.332   3.465   8.792
25933SOL    HW179696   0.400   3.508   8.741
25933SOL    HW279697   0.373   3.446   8.876
25934SOL     OW79698   4.738  11.506   7.343
25934SOL    HW179699   4.818  11.485   7.294
25934SOL    HW279700   4.697  11.576   7.292
25935SOL     OW79701  13.347   7.461   5.235
25935SOL    HW179702  13.314   7.550   5.249
25935SOL    HW279703  13.391   7.439   5.317
25936SOL     OW79704   6.086  10.073   9.513
25936SOL    HW179705   6.134  10.120   9.445
25936SOL    HW279706   6.083  10.134   9.586
25937SOL     OW79707  10.361   9.374   1.763
25937SOL    HW179708  10.330   9.388   1.674
25937SOL    HW279709  10.386   9.282   1.765
25938SOL     OW79710   4.070   8.997  11.712
25938SOL    HW179711   4.011   9.029  11.781
25938SOL    HW279712   4.028   9.025  11.631
25939SOL     OW79713  13.874  10.756   8.871
25939SOL    HW179714  13.843  10.784   8.785
25939SOL    HW279715  13.814  10.796   8.933
25940SOL     OW79716   2.419   7.213   0.431
25940SOL    HW179717   2.411   7.191   0.338
25940SOL    HW279718   2.342   7.266   0.449
25941SOL     OW79719   2.641   7.976   2.715
25941SOL    HW179720   2.728   7.984   2.755
25941SOL    HW279721   2.590   7.926   2.779
25942SOL     OW79722   4.174   4.835   7.507
25942SOL    HW179723   4.160   4.836   7.412
25942SOL    HW279724   4.234   4.908   7.523
25943SOL     OW79725   8.164  14.030  13.706
25943SOL    HW179726   8.152  13.946  13.661
25943SOL    HW279727   8.092  14.033  13.769
25944SOL     OW79728   9.037   3.721  10.734
25944SOL    HW179729   9.100   3.658  10.700
25944SOL    HW279730   8.971   3.728  10.665
25945SOL     OW79731  12.015  12.511   3.770
25945SOL    HW179732  11.987  12.422   3.747
25945SOL    HW279733  11.954  12.538   3.839
25946SOL     OW79734   8.295   6.630   7.428
25946SOL    HW179735   8.225   6.683   7.390
25946SOL    HW279736   8.375   6.664   7.390
25947SOL     OW79737   5.451   5.690   9.122
25947SOL    HW179738   5.461   5.701   9.027
25947SOL    HW279739   5.492   5.768   9.159
25948SOL     OW79740   5.856   8.063   7.258
25948SOL    HW179741   5.833   8.029   7.172
25948SOL    HW279742   5.867   8.158   7.245
25949SOL     OW79743   3.137   2.038  14.751
25949SOL    HW179744   3.128   2.120  14.800
25949SOL    HW279745   3.213   2.053  14.695
25950SOL     OW79746  12.905   9.695   7.537
25950SOL    HW179747  12.845   9.687   7.611
25950SOL    HW279748  12.863   9.758   7.478
25951SOL     OW79749   3.781   1.084  12.558
25951SOL    HW179750   3.770   1.159  12.617
25951SOL    HW279751   3.865   1.101  12.514
25952SOL     OW79752   0.539  11.226  14.520
25952SOL    HW179753   0.539  11.147  14.466
25952SOL    HW279754   0.447  11.241  14.540
25953SOL     OW79755   0.369   0.076   9.325
25953SOL    HW179756   0.324   0.137   9.267
25953SOL    HW279757   0.428   0.130   9.376
25954SOL     OW79758   7.817   5.179   8.194
25954SOL    HW179759   7.813   5.132   8.278
25954SOL    HW279760   7.909   5.205   8.186
25955SOL     OW79761   7.403   7.302   0.023
25955SOL    HW179762   7.383   7.285   0.115
25955SOL    HW279763   7.361   7.386   0.005
25956SOL     OW79764  10.188   4.502   9.260
25956SOL    HW179765  10.219   4.585   9.225
25956SOL    HW279766  10.242   4.436   9.215
25957SOL     OW79767   2.036   3.387   5.059
25957SOL    HW179768   1.984   3.351   5.131
25957SOL    HW279769   2.125   3.357   5.075
25958SOL     OW79770   4.350   5.374   1.720
25958SOL    HW179771   4.335   5.311   1.650
25958SOL    HW279772   4.444   5.369   1.736
25959SOL     OW79773   5.946   2.861   5.533
25959SOL    HW179774   6.027   2.861   5.481
25959SOL    HW279775   5.955   2.938   5.590
25960SOL     OW79776  10.519   2.557   8.871
25960SOL    HW179777  10.512   2.640   8.822
25960SOL    HW279778  10.488   2.579   8.959
25961SOL     OW79779   8.244   4.827   2.217
25961SOL    HW179780   8.204   4.742   2.237
25961SOL    HW279781   8.187   4.892   2.258
25962SOL     OW79782   0.638  10.149  13.098
25962SOL    HW179783   0.616  10.074  13.152
25962SOL    HW279784   0.555  10.179  13.063
25963SOL     OW79785   6.177   2.498   2.927
25963SOL    HW179786   6.178   2.512   3.022
25963SOL    HW279787   6.269   2.509   2.901
25964SOL     OW79788   7.611   0.143   9.126
25964SOL    HW179789   7.659   0.157   9.207
25964SOL    HW279790   7.662   0.190   9.060
25965SOL     OW79791   7.809  10.242  12.671
25965SOL    HW179792   7.878  10.302  12.643
25965SOL    HW279793   7.764  10.289  12.741
25966SOL     OW79794  13.350  10.095  10.818
25966SOL    HW179795  13.437  10.134  10.827
25966SOL    HW279796  13.361  10.026  10.752
25967SOL     OW79797   4.556   6.443   4.391
25967SOL    HW179798   4.501   6.484   4.458
25967SOL    HW279799   4.637   6.494   4.392
25968SOL     OW79800  11.654   6.222   7.365
25968SOL    HW179801  11.578   6.207   7.421
25968SOL    HW279802  11.692   6.304   7.398
25969SOL     OW79803  12.815  10.224   8.107
25969SOL    HW179804  12.807  10.130   8.093
25969SOL    HW279805  12.759  10.263   8.040
25970SOL     OW79806   8.201   4.542  10.802
25970SOL    HW179807   8.144   4.483  10.751
25970SOL    HW279808   8.140   4.591  10.858
25971SOL     OW79809   5.365   6.024  14.569
25971SOL    HW179810   5.369   5.935  14.534
25971SOL    HW279811   5.293   6.066  14.521
25972SOL     OW79812   5.830  14.655   6.123
25972SOL    HW179813   5.846  14.569   6.162
25972SOL    HW279814   5.849  14.642   6.030
25973SOL     OW79815   5.396   3.592  11.794
25973SOL    HW179816   5.487   3.570  11.811
25973SOL    HW279817   5.350   3.509  11.798
25974SOL     OW79818   7.593  10.309  10.628
25974SOL    HW179819   7.648  10.257  10.570
25974SOL    HW279820   7.507  10.268  10.624
25975SOL     OW79821   1.899   3.797  12.444
25975SOL    HW179822   1.875   3.758  12.528
25975SOL    HW279823   1.815   3.825  12.406
25976SOL     OW79824   8.483   1.200   6.103
25976SOL    HW179825   8.474   1.267   6.171
25976SOL    HW279826   8.559   1.148   6.130
25977SOL     OW79827   7.113   7.204  11.963
25977SOL    HW179828   7.063   7.238  12.038
25977SOL    HW279829   7.050   7.202  11.891
25978SOL     OW79830   9.902  13.788   5.091
25978SOL    HW179831   9.911  13.754   5.001
25978SOL    HW279832   9.928  13.714   5.146
25979SOL     OW79833   4.399  12.052   3.936
25979SOL    HW179834   4.468  12.049   3.870
25979SOL    HW279835   4.431  11.996   4.007
25980SOL     OW79836  12.762   0.182  14.836
25980SOL    HW179837  12.835   0.199   0.024
25980SOL    HW279838  12.776   0.244  14.764
25981SOL     OW79839  12.194   6.770   7.970
25981SOL    HW179840  12.133   6.764   8.043
25981SOL    HW279841  12.158   6.839   7.914
25982SOL     OW79842   0.340   7.710   8.631
25982SOL    HW179843   0.254   7.706   8.590
25982SOL    HW279844   0.399   7.666   8.570
25983SOL     OW79845  13.023  12.581  10.857
25983SOL    HW179846  13.053  12.521  10.925
25983SOL    HW279847  12.939  12.614  10.889
25984SOL     OW79848   2.933   2.657   3.050
25984SOL    HW179849   2.944   2.750   3.069
25984SOL    HW279850   2.846   2.651   3.011
25985SOL     OW79851   5.791  11.368   4.640
25985SOL    HW179852   5.776  11.446   4.587
25985SOL    HW279853   5.729  11.376   4.713
25986SOL     OW79854   5.487   1.301  12.784
25986SOL    HW179855   5.430   1.268  12.714
25986SOL    HW279856   5.569   1.254  12.771
25987SOL     OW79857   6.736   8.445  14.670
25987SOL    HW179858   6.696   8.369  14.626
25987SOL    HW279859   6.736   8.421  14.762
25988SOL     OW79860  11.427   5.036   7.069
25988SOL    HW179861  11.456   5.079   6.988
25988SOL    HW279862  11.371   5.100   7.111
25989SOL     OW79863   6.280   9.589   3.429
25989SOL    HW179864   6.368   9.600   3.391
25989SOL    HW279865   6.223   9.640   3.372
25990SOL     OW79866   7.436   2.951   1.685
25990SOL    HW179867   7.450   3.045   1.679
25990SOL    HW279868   7.362   2.933   1.627
25991SOL     OW79869   7.266   4.650   7.599
25991SOL    HW179870   7.347   4.656   7.549
25991SOL    HW279871   7.274   4.719   7.666
25992SOL     OW79872   0.095   8.125   6.266
25992SOL    HW179873   0.067   8.051   6.213
25992SOL    HW279874   0.089   8.200   6.207
25993SOL     OW79875   4.651  13.973  11.608
25993SOL    HW179876   4.672  13.882  11.591
25993SOL    HW279877   4.703  13.996  11.684
25994SOL     OW79878   0.636  14.847  10.240
25994SOL    HW179879   0.603  14.774  10.291
25994SOL    HW279880   0.575   0.047  10.259
25995SOL     OW79881   5.787  12.904   2.020
25995SOL    HW179882   5.759  12.832   1.964
25995SOL    HW279883   5.740  12.889   2.103
25996SOL     OW79884   1.316  12.962   2.221
25996SOL    HW179885   1.255  12.982   2.292
25996SOL    HW279886   1.356  13.046   2.200
25997SOL     OW79887   6.958  12.841  10.379
25997SOL    HW179888   6.903  12.914  10.407
25997SOL    HW279889   7.000  12.871  10.299
25998SOL     OW79890   9.418  10.156   3.836
25998SOL    HW179891   9.496  10.157   3.892
25998SOL    HW279892   9.452  10.180   3.749
25999SOL     OW79893  12.419   3.413   4.941
25999SOL    HW179894  12.489   3.423   4.876
25999SOL    HW279895  12.342   3.388   4.889
26000SOL     OW79896  10.780   1.727   2.978
26000SOL    HW179897  10.793   1.733   3.073
26000SOL    HW279898  10.747   1.813   2.952
26001SOL     OW79899  12.633  11.287   7.350
26001SOL    HW179900  12.613  11.259   7.261
26001SOL    HW279901  12.614  11.381   7.350
26002SOL     OW79902   5.381   8.797  13.120
26002SOL    HW179903   5.404   8.787  13.212
26002SOL    HW279904   5.449   8.854  13.084
26003SOL     OW79905   9.210   7.038   2.862
26003SOL    HW179906   9.267   7.039   2.785
26003SOL    HW279907   9.220   6.950   2.897
26004SOL     OW79908   0.867   2.850   7.186
26004SOL    HW179909   0.856   2.909   7.260
26004SOL    HW279910   0.778   2.823   7.163
26005SOL     OW79911  12.331   1.774   1.805
26005SOL    HW179912  12.405   1.808   1.855
26005SOL    HW279913  12.317   1.686   1.841
26006SOL     OW79914   0.473   4.539   1.088
26006SOL    HW179915   0.552   4.573   1.130
26006SOL    HW279916   0.401   4.572   1.142
26007SOL     OW79917  10.745  10.777   2.862
26007SOL    HW179918  10.774  10.782   2.771
26007SOL    HW279919  10.825  10.791   2.913
26008SOL     OW79920   9.182  11.917   5.280
26008SOL    HW179921   9.125  11.843   5.260
26008SOL    HW279922   9.253  11.880   5.332
26009SOL     OW79923   0.437   3.430   5.730
26009SOL    HW179924   0.434   3.513   5.681
26009SOL    HW279925   0.526   3.397   5.714
26010SOL     OW79926   3.379   6.803   0.036
26010SOL    HW179927   3.456   6.745   0.034
26010SOL    HW279928   3.304   6.743   0.037
26011SOL     OW79929   6.013   4.139   7.519
26011SOL    HW179930   6.010   4.142   7.614
26011SOL    HW279931   6.086   4.196   7.496
26012SOL     OW79932  12.618  11.192   3.438
26012SOL    HW179933  12.534  11.228   3.410
26012SOL    HW279934  12.656  11.156   3.358
26013SOL     OW79935   2.071  12.729  14.789
26013SOL    HW179936   2.064  12.722   0.012
26013SOL    HW279937   2.163  12.711  14.771
26014SOL     OW79938   5.792   7.469  14.024
26014SOL    HW179939   5.748   7.527  14.087
26014SOL    HW279940   5.728   7.401  14.005
26015SOL     OW79941  11.811   4.359  11.914
26015SOL    HW179942  11.735   4.325  11.867
26015SOL    HW279943  11.884   4.304  11.884
26016SOL     OW79944   2.318   0.682   7.540
26016SOL    HW179945   2.343   0.763   7.496
26016SOL    HW279946   2.226   0.696   7.564
26017SOL     OW79947   6.838   5.035  12.185
26017SOL    HW179948   6.883   4.951  12.196
26017SOL    HW279949   6.749   5.018  12.213
26018SOL     OW79950   8.846   4.462  14.303
26018SOL    HW179951   8.926   4.465  14.251
26018SOL    HW279952   8.875   4.439  14.391
26019SOL     OW79953   2.134   2.765   3.680
26019SOL    HW179954   2.060   2.798   3.731
26019SOL    HW279955   2.096   2.742   3.595
26020SOL     OW79956   8.665   5.140  11.114
26020SOL    HW179957   8.646   5.232  11.131
26020SOL    HW279958   8.582   5.094  11.132
26021SOL     OW79959   8.518  10.016  14.545
26021SOL    HW179960   8.436  10.066  14.547
26021SOL    HW279961   8.556  10.035  14.460
26022SOL     OW79962  13.593   5.805   7.487
26022SOL    HW179963  13.513   5.766   7.522
26022SOL    HW279964  13.615   5.874   7.550
26023SOL     OW79965   5.828   8.580   9.603
26023SOL    HW179966   5.758   8.643   9.585
26023SOL    HW279967   5.889   8.628   9.660
26024SOL     OW79968   1.675  12.078   9.388
26024SOL    HW179969   1.728  12.045   9.316
26024SOL    HW279970   1.690  12.017   9.459
26025SOL     OW79971   8.512   5.415  12.446
26025SOL    HW179972   8.476   5.367  12.521
26025SOL    HW279973   8.470   5.376  12.370
26026SOL     OW79974  14.556  13.939  11.652
26026SOL    HW179975  14.498  13.912  11.581
26026SOL    HW279976  14.529  13.886  11.726
26027SOL     OW79977   4.520  11.250   3.218
26027SOL    HW179978   4.508  11.162   3.252
26027SOL    HW279979   4.557  11.238   3.131
26028SOL     OW79980   3.260  14.751  10.572
26028SOL    HW179981   3.328  14.799  10.619
26028SOL    HW279982   3.195  14.730  10.639
26029SOL     OW79983   2.205   0.691   3.474
26029SOL    HW179984   2.208   0.625   3.405
26029SOL    HW279985   2.209   0.640   3.555
26030SOL     OW79986  13.830  12.150   2.908
26030SOL    HW179987  13.879  12.129   2.987
26030SOL    HW279988  13.798  12.239   2.921
26031SOL     OW79989   1.006   9.458   5.829
26031SOL    HW179990   0.930   9.474   5.773
26031SOL    HW279991   1.048   9.381   5.790
26032SOL     OW79992   3.309  13.969  11.965
26032SOL    HW179993   3.323  14.030  12.038
26032SOL    HW279994   3.234  14.005  11.918
26033SOL     OW79995   5.189   4.187   9.632
26033SOL    HW179996   5.109   4.235   9.651
26033SOL    HW279997   5.163   4.122   9.567
26034SOL     OW79998  14.166  14.189   7.419
26034SOL    HW179999  14.176  14.181   7.514
26034SOL    HW280000  14.150  14.099   7.389
26035SOL     OW80001   0.814   9.951   1.748
26035SOL    HW180002   0.898   9.917   1.779
26035SOL    HW280003   0.751   9.881   1.767
26036SOL     OW80004   0.757   7.402   1.300
26036SOL    HW180005   0.777   7.313   1.326
26036SOL    HW280006   0.668   7.397   1.264
26037SOL     OW80007  10.121   6.013   6.420
26037SOL    HW180008  10.123   5.941   6.357
26037SOL    HW280009  10.040   5.998   6.470
26038SOL     OW80010  10.509  14.420   0.528
26038SOL    HW180011  10.472  14.449   0.612
26038SOL    HW280012  10.559  14.341   0.550
26039SOL     OW80013   7.561   1.312  10.124
26039SOL    HW180014   7.599   1.226  10.107
26039SOL    HW280015   7.519   1.303  10.210
26040SOL     OW80016   7.948   8.403   5.845
26040SOL    HW180017   8.029   8.452   5.830
26040SOL    HW280018   7.925   8.367   5.760
26041SOL     OW80019   7.518   0.914  13.852
26041SOL    HW180020   7.583   0.854  13.888
26041SOL    HW280021   7.467   0.860  13.791
26042SOL     OW80022  12.980   8.182   8.920
26042SOL    HW180023  13.028   8.260   8.948
26042SOL    HW280024  12.889   8.201   8.941
26043SOL     OW80025   8.142  10.228   3.511
26043SOL    HW180026   8.237  10.239   3.507
26043SOL    HW280027   8.106  10.309   3.476
26044SOL     OW80028   4.348   8.379  11.089
26044SOL    HW180029   4.254   8.394  11.078
26044SOL    HW280030   4.371   8.316  11.020
26045SOL     OW80031   3.541   2.903   8.453
26045SOL    HW180032   3.490   2.922   8.532
26045SOL    HW280033   3.475   2.879   8.388
26046SOL     OW80034   4.825   8.774  12.594
26046SOL    HW180035   4.773   8.828  12.653
26046SOL    HW280036   4.906   8.757  12.643
26047SOL     OW80037   1.790   2.500   8.256
26047SOL    HW180038   1.780   2.485   8.162
26047SOL    HW280039   1.799   2.595   8.264
26048SOL     OW80040   3.653   2.998   3.896
26048SOL    HW180041   3.574   2.952   3.927
26048SOL    HW280042   3.636   3.015   3.804
26049SOL     OW80043  14.782  11.833   2.990
26049SOL    HW180044  14.766  11.911   2.937
26049SOL    HW280045  14.803  11.868   3.078
26050SOL     OW80046  14.100   5.942   8.390
26050SOL    HW180047  14.100   5.995   8.311
26050SOL    HW280048  14.008   5.922   8.406
26051SOL     OW80049  13.263  11.106   6.691
26051SOL    HW180050  13.319  11.135   6.620
26051SOL    HW280051  13.191  11.169   6.693
26052SOL     OW80052  11.917   2.054  14.491
26052SOL    HW180053  12.006   2.081  14.513
26052SOL    HW280054  11.869   2.136  14.483
26053SOL     OW80055  12.115  13.312   8.343
26053SOL    HW180056  12.044  13.320   8.280
26053SOL    HW280057  12.165  13.393   8.333
26054SOL     OW80058   6.200   2.774   5.774
26054SOL    HW180059   6.127   2.830   5.747
26054SOL    HW280060   6.167   2.685   5.763
26055SOL     OW80061   0.921  10.025  14.030
26055SOL    HW180062   1.006  10.017  13.988
26055SOL    HW280063   0.882   9.938  14.021
26056SOL     OW80064  14.401  10.937   2.914
26056SOL    HW180065  14.385  10.973   3.001
26056SOL    HW280066  14.477  10.985   2.881
26057SOL     OW80067   8.416   3.264   9.227
26057SOL    HW180068   8.404   3.345   9.276
26057SOL    HW280069   8.347   3.266   9.160
26058SOL     OW80070   7.615  12.404  12.936
26058SOL    HW180071   7.520  12.397  12.948
26058SOL    HW280072   7.646  12.313  12.941
26059SOL     OW80073   0.238  12.152   7.209
26059SOL    HW180074   0.235  12.195   7.124
26059SOL    HW280075   0.208  12.219   7.270
26060SOL     OW80076  11.894   1.768  10.219
26060SOL    HW180077  11.930   1.717  10.291
26060SOL    HW280078  11.908   1.859  10.245
26061SOL     OW80079   2.097  13.465   9.310
26061SOL    HW180080   2.041  13.450   9.234
26061SOL    HW280081   2.103  13.560   9.317
26062SOL     OW80082   1.198   3.167  11.075
26062SOL    HW180083   1.292   3.185  11.065
26062SOL    HW280084   1.156   3.227  11.013
26063SOL     OW80085   5.261   1.200   1.529
26063SOL    HW180086   5.221   1.248   1.457
26063SOL    HW280087   5.187   1.164   1.578
26064SOL     OW80088   7.658  11.739   3.493
26064SOL    HW180089   7.716  11.804   3.533
26064SOL    HW280090   7.575  11.749   3.541
26065SOL     OW80091   0.929  13.821  12.627
26065SOL    HW180092   0.900  13.911  12.643
26065SOL    HW280093   0.886  13.769  12.694
26066SOL     OW80094  11.751   4.830   4.468
26066SOL    HW180095  11.829   4.799   4.422
26066SOL    HW280096  11.779   4.910   4.512
26067SOL     OW80097  11.235   6.644   8.553
26067SOL    HW180098  11.326   6.643   8.524
26067SOL    HW280099  11.226   6.725   8.603
26068SOL     OW80100   0.197   0.983   1.296
26068SOL    HW180101   0.240   0.906   1.259
26068SOL    HW280102   0.246   1.057   1.258
26069SOL     OW80103  12.093   7.321   1.154
26069SOL    HW180104  12.056   7.234   1.136
26069SOL    HW280105  12.155   7.306   1.225
26070SOL     OW80106   2.327   2.455   4.588
26070SOL    HW180107   2.417   2.424   4.601
26070SOL    HW280108   2.327   2.544   4.623
26071SOL     OW80109   3.618  14.189   2.309
26071SOL    HW180110   3.564  14.111   2.317
26071SOL    HW280111   3.577  14.241   2.240
26072SOL     OW80112  10.456  13.639   3.224
26072SOL    HW180113  10.417  13.656   3.138
26072SOL    HW280114  10.391  13.672   3.286
26073SOL     OW80115   5.496   6.257   7.432
26073SOL    HW180116   5.440   6.286   7.360
26073SOL    HW280117   5.554   6.191   7.392
26074SOL     OW80118   8.711  11.932   3.055
26074SOL    HW180119   8.623  11.897   3.066
26074SOL    HW280120   8.739  11.901   2.969
26075SOL     OW80121  12.729   1.100  12.747
26075SOL    HW180122  12.798   1.123  12.685
26075SOL    HW280123  12.650   1.139  12.710
26076SOL     OW80124  14.688   8.073   1.109
26076SOL    HW180125  14.765   8.078   1.053
26076SOL    HW280126  14.722   8.043   1.194
26077SOL     OW80127   1.481  13.610   8.391
26077SOL    HW180128   1.410  13.661   8.430
26077SOL    HW280129   1.508  13.661   8.315
26078SOL     OW80130   3.797  12.824   5.532
26078SOL    HW180131   3.790  12.913   5.498
26078SOL    HW280132   3.815  12.835   5.625
26079SOL     OW80133  11.904   2.367  10.523
26079SOL    HW180134  11.894   2.426  10.597
26079SOL    HW280135  11.870   2.416  10.448
26080SOL     OW80136   5.133   9.926  11.257
26080SOL    HW180137   5.083   9.866  11.202
26080SOL    HW280138   5.154  10.000  11.201
26081SOL     OW80139   4.341  12.089   6.095
26081SOL    HW180140   4.330  12.162   6.034
26081SOL    HW280141   4.277  12.106   6.165
26082SOL     OW80142  11.595  14.134  10.791
26082SOL    HW180143  11.500  14.134  10.801
26082SOL    HW280144  11.617  14.225  10.772
26083SOL     OW80145   6.482   3.549   0.895
26083SOL    HW180146   6.401   3.544   0.845
26083SOL    HW280147   6.507   3.641   0.890
26084SOL     OW80148   6.884  13.722   5.111
26084SOL    HW180149   6.794  13.690   5.125
26084SOL    HW280150   6.934  13.685   5.184
26085SOL     OW80151  14.079   8.992   3.508
26085SOL    HW180152  14.109   8.902   3.501
26085SOL    HW280153  14.097   9.017   3.599
26086SOL     OW80154   5.443   1.310   0.021
26086SOL    HW180155   5.455   1.280   0.111
26086SOL    HW280156   5.355   1.283  14.870
26087SOL     OW80157   1.095  14.086   1.355
26087SOL    HW180158   1.160  14.052   1.293
26087SOL    HW280159   1.135  14.164   1.392
26088SOL     OW80160   1.046   3.320   4.748
26088SOL    HW180161   1.025   3.388   4.685
26088SOL    HW280162   0.963   3.300   4.792
26089SOL     OW80163  10.769   4.052   9.527
26089SOL    HW180164  10.748   4.146   9.529
26089SOL    HW280165  10.746   4.024   9.439
26090SOL     OW80166  13.880   4.177   7.329
26090SOL    HW180167  13.919   4.239   7.267
26090SOL    HW280168  13.956   4.137   7.372
26091SOL     OW80169   8.999   0.756   6.896
26091SOL    HW180170   9.041   0.683   6.850
26091SOL    HW280171   9.053   0.832   6.876
26092SOL     OW80172  14.629   3.284   5.613
26092SOL    HW180173  14.546   3.237   5.621
26092SOL    HW280174  14.604   3.374   5.593
26093SOL     OW80175  11.586   3.292   3.667
26093SOL    HW180176  11.580   3.327   3.578
26093SOL    HW280177  11.593   3.370   3.723
26094SOL     OW80178   8.708   6.887  11.195
26094SOL    HW180179   8.717   6.965  11.140
26094SOL    HW280180   8.718   6.814  11.135
26095SOL     OW80181   0.680   9.723   1.829
26095SOL    HW180182   0.698   9.659   1.898
26095SOL    HW280183   0.606   9.688   1.782
26096SOL     OW80184  10.601  10.344   0.904
26096SOL    HW180185  10.537  10.395   0.954
26096SOL    HW280186  10.578  10.360   0.812
26097SOL     OW80187  14.163   7.793   1.420
26097SOL    HW180188  14.232   7.786   1.486
26097SOL    HW280189  14.131   7.883   1.428
26098SOL     OW80190  13.133  12.606   1.660
26098SOL    HW180191  13.052  12.558   1.641
26098SOL    HW280192  13.105  12.696   1.674
26099SOL     OW80193   2.713   6.429  10.364
26099SOL    HW180194   2.792   6.477  10.389
26099SOL    HW280195   2.732   6.338  10.386
26100SOL     OW80196   2.520   8.097   9.192
26100SOL    HW180197   2.569   8.080   9.112
26100SOL    HW280198   2.430   8.072   9.172
26101SOL     OW80199   9.755  11.956   1.059
26101SOL    HW180200   9.838  11.918   1.087
26101SOL    HW280201   9.695  11.882   1.055
26102SOL     OW80202   6.219   1.340  11.331
26102SOL    HW180203   6.214   1.417  11.388
26102SOL    HW280204   6.214   1.265  11.391
26103SOL     OW80205   3.432  13.619   1.116
26103SOL    HW180206   3.497  13.654   1.176
26103SOL    HW280207   3.421  13.687   1.050
26104SOL     OW80208   0.605   4.802   3.282
26104SOL    HW180209   0.660   4.735   3.241
26104SOL    HW280210   0.528   4.809   3.226
26105SOL     OW80211   7.743   0.111   2.215
26105SOL    HW180212   7.832   0.118   2.182
26105SOL    HW280213   7.740   0.173   2.289
26106SOL     OW80214  13.132   0.103   2.915
26106SOL    HW180215  13.189   0.128   2.843
26106SOL    HW280216  13.053   0.068   2.873
26107SOL     OW80217  13.811   5.460   4.036
26107SOL    HW180218  13.796   5.410   3.956
26107SOL    HW280219  13.731   5.513   4.046
26108SOL     OW80220   2.085   8.644   8.627
26108SOL    HW180221   2.151   8.594   8.673
26108SOL    HW280222   2.123   8.732   8.617
26109SOL     OW80223  11.117   7.191   4.192
26109SOL    HW180224  11.171   7.245   4.134
26109SOL    HW280225  11.107   7.108   4.146
26110SOL     OW80226   5.193  13.020   3.866
26110SOL    HW180227   5.250  12.954   3.825
26110SOL    HW280228   5.105  12.997   3.837
26111SOL     OW80229   1.885   2.709  13.567
26111SOL    HW180230   1.899   2.802  13.586
26111SOL    HW280231   1.791   2.700  13.557
26112SOL     OW80232   7.861   3.827   7.846
26112SOL    HW180233   7.817   3.798   7.767
26112SOL    HW280234   7.909   3.906   7.820
26113SOL     OW80235   6.482   1.112   7.182
26113SOL    HW180236   6.445   1.191   7.223
26113SOL    HW280237   6.408   1.073   7.134
26114SOL     OW80238   0.325   6.498   4.600
26114SOL    HW180239   0.370   6.459   4.675
26114SOL    HW280240   0.289   6.423   4.552
26115SOL     OW80241  10.640  13.179   3.080
26115SOL    HW180242  10.604  13.116   3.142
26115SOL    HW280243  10.669  13.126   3.006
26116SOL     OW80244  12.565  14.559  11.038
26116SOL    HW180245  12.579  14.646  11.076
26116SOL    HW280246  12.582  14.571  10.945
26117SOL     OW80247  13.905   6.895   9.183
26117SOL    HW180248  13.842   6.829   9.213
26117SOL    HW280249  13.872   6.978   9.218
26118SOL     OW80250   7.389  11.106   2.384
26118SOL    HW180251   7.421  11.034   2.438
26118SOL    HW280252   7.467  11.141   2.342
26119SOL     OW80253   5.142   7.306   5.166
26119SOL    HW180254   5.078   7.242   5.197
26119SOL    HW280255   5.215   7.299   5.227
26120SOL     OW80256   1.885  13.674  10.163
26120SOL    HW180257   1.820  13.645  10.098
26120SOL    HW280258   1.846  13.751  10.204
26121SOL     OW80259   4.413   1.385   4.159
26121SOL    HW180260   4.337   1.326   4.157
26121SOL    HW280261   4.479   1.337   4.209
26122SOL     OW80262   7.600  11.384  10.092
26122SOL    HW180263   7.527  11.323  10.084
26122SOL    HW280264   7.648  11.374  10.010
26123SOL     OW80265   1.052   1.170   0.097
26123SOL    HW180266   1.002   1.133   0.169
26123SOL    HW280267   1.012   1.256   0.081
26124SOL     OW80268   8.148   5.629   1.765
26124SOL    HW180269   8.151   5.585   1.850
26124SOL    HW280270   8.062   5.670   1.761
26125SOL     OW80271   5.578   7.980   9.881
26125SOL    HW180272   5.552   7.917   9.948
26125SOL    HW280273   5.666   8.007   9.905
26126SOL     OW80274   6.696   6.402   2.857
26126SOL    HW180275   6.709   6.395   2.763
26126SOL    HW280276   6.668   6.315   2.884
26127SOL     OW80277   4.443   7.345   2.052
26127SOL    HW180278   4.372   7.384   2.103
26127SOL    HW280279   4.506   7.314   2.117
26128SOL     OW80280   2.647   1.807   8.992
26128SOL    HW180281   2.665   1.901   8.988
26128SOL    HW280282   2.571   1.799   9.050
26129SOL     OW80283   2.012  13.236  10.597
26129SOL    HW180284   2.105  13.245  10.579
26129SOL    HW280285   1.988  13.151  10.560
26130SOL     OW80286  10.703   7.377   5.894
26130SOL    HW180287  10.625   7.328   5.918
26130SOL    HW280288  10.670   7.451   5.843
26131SOL     OW80289   7.873   4.316   0.140
26131SOL    HW180290   7.778   4.304   0.137
26131SOL    HW280291   7.887   4.404   0.106
26132SOL     OW80292   4.608   3.694   2.604
26132SOL    HW180293   4.529   3.740   2.576
26132SOL    HW280294   4.680   3.742   2.562
26133SOL     OW80295   0.399   2.250   7.043
26133SOL    HW180296   0.327   2.299   7.082
26133SOL    HW280297   0.359   2.198   6.973
26134SOL     OW80298   5.859   1.403  14.644
26134SOL    HW180299   5.831   1.315  14.669
26134SOL    HW280300   5.823   1.460  14.711
26135SOL     OW80301  14.482   5.870  12.987
26135SOL    HW180302  14.432   5.849  12.908
26135SOL    HW280303  14.417   5.867  13.058
26136SOL     OW80304   4.592   9.657  11.507
26136SOL    HW180305   4.674   9.608  11.504
26136SOL    HW280306   4.605   9.730  11.446
26137SOL     OW80307  11.913   1.740  10.674
26137SOL    HW180308  11.875   1.828  10.674
26137SOL    HW280309  11.839   1.681  10.689
26138SOL     OW80310  11.422  13.572   9.649
26138SOL    HW180311  11.503  13.542   9.690
26138SOL    HW280312  11.439  13.664   9.626
26139SOL     OW80313   5.501   5.604   7.556
26139SOL    HW180314   5.433   5.615   7.623
26139SOL    HW280315   5.502   5.688   7.510
26140SOL     OW80316   8.470   8.668   3.359
26140SOL    HW180317   8.404   8.695   3.424
26140SOL    HW280318   8.427   8.598   3.309
26141SOL     OW80319   1.795   7.739   2.827
26141SOL    HW180320   1.767   7.647   2.827
26141SOL    HW280321   1.814   7.757   2.919
26142SOL     OW80322  10.658  11.375  13.339
26142SOL    HW180323  10.606  11.319  13.282
26142SOL    HW280324  10.669  11.324  13.419
26143SOL     OW80325  14.419   3.687   9.537
26143SOL    HW180326  14.497   3.631   9.538
26143SOL    HW280327  14.371   3.659   9.459
26144SOL     OW80328   3.410   5.861  13.516
26144SOL    HW180329   3.468   5.925  13.477
26144SOL    HW280330   3.419   5.875  13.611
26145SOL     OW80331   0.073   0.332   4.822
26145SOL    HW180332  14.869   0.312   4.875
26145SOL    HW280333   0.041   0.335   4.732
26146SOL     OW80334   7.719   9.125  14.813
26146SOL    HW180335   7.693   9.066   0.012
26146SOL    HW280336   7.783   9.075  14.763
26147SOL     OW80337   2.564  11.256   7.540
26147SOL    HW180338   2.505  11.274   7.466
26147SOL    HW280339   2.505  11.244   7.615
26148SOL     OW80340  11.280  13.979   3.835
26148SOL    HW180341  11.237  13.961   3.919
26148SOL    HW280342  11.285  13.894   3.792
26149SOL     OW80343   6.409   2.857  11.204
26149SOL    HW180344   6.487   2.905  11.233
26149SOL    HW280345   6.351   2.925  11.168
26150SOL     OW80346   7.440   2.028  12.979
26150SOL    HW180347   7.446   2.107  13.031
26150SOL    HW280348   7.522   1.981  12.996
26151SOL     OW80349   2.198  14.646  11.529
26151SOL    HW180350   2.282  14.631  11.573
26151SOL    HW280351   2.175  14.736  11.554
26152SOL     OW80352  13.386   6.591  11.325
26152SOL    HW180353  13.470   6.567  11.287
26152SOL    HW280354  13.321   6.557  11.264
26153SOL     OW80355   4.455   5.842   3.938
26153SOL    HW180356   4.402   5.780   3.988
26153SOL    HW280357   4.546   5.817   3.956
26154SOL     OW80358   6.150   5.313   3.752
26154SOL    HW180359   6.137   5.382   3.687
26154SOL    HW280360   6.244   5.298   3.754
26155SOL     OW80361   3.942   6.311   4.414
26155SOL    HW180362   3.901   6.264   4.487
26155SOL    HW280363   3.876   6.310   4.345
26156SOL     OW80364  10.171   6.881  14.183
26156SOL    HW180365  10.111   6.871  14.109
26156SOL    HW280366  10.212   6.967  14.170
26157SOL     OW80367  10.349  14.477   6.686
26157SOL    HW180368  10.408  14.416   6.730
26157SOL    HW280369  10.358  14.456   6.593
26158SOL     OW80370   4.527   7.046  13.170
26158SOL    HW180371   4.535   7.135  13.206
26158SOL    HW280372   4.610   7.031  13.125
26159SOL     OW80373   7.223   5.769  13.000
26159SOL    HW180374   7.185   5.851  12.968
26159SOL    HW280375   7.222   5.777  13.095
26160SOL     OW80376   8.604  11.919   1.845
26160SOL    HW180377   8.517  11.913   1.807
26160SOL    HW280378   8.602  11.859   1.919
26161SOL     OW80379   8.128  13.971   1.636
26161SOL    HW180380   8.127  13.933   1.723
26161SOL    HW280381   8.097  14.061   1.648
26162SOL     OW80382   6.172   9.647   0.748
26162SOL    HW180383   6.186   9.741   0.763
26162SOL    HW280384   6.214   9.630   0.664
26163SOL     OW80385   6.053   6.278   1.488
26163SOL    HW180386   5.990   6.282   1.561
26163SOL    HW280387   6.096   6.363   1.491
26164SOL     OW80388   9.833   1.914   7.960
26164SOL    HW180389   9.835   1.992   7.905
26164SOL    HW280390   9.908   1.924   8.019
26165SOL     OW80391   7.493   7.608   0.968
26165SOL    HW180392   7.403   7.619   0.998
26165SOL    HW280393   7.533   7.694   0.978
26166SOL     OW80394   5.233   8.010   9.504
26166SOL    HW180395   5.183   7.973   9.578
26166SOL    HW280396   5.324   8.010   9.534
26167SOL     OW80397   3.352  11.107  10.696
26167SOL    HW180398   3.386  11.151  10.618
26167SOL    HW280399   3.413  11.035  10.711
26168SOL     OW80400   8.171   1.925   5.165
26168SOL    HW180401   8.166   1.833   5.139
26168SOL    HW280402   8.245   1.960   5.115
26169SOL     OW80403  13.565  10.810   4.983
26169SOL    HW180404  13.560  10.905   4.992
26169SOL    HW280405  13.576  10.778   5.073
26170SOL     OW80406  10.758   1.468   1.787
26170SOL    HW180407  10.796   1.552   1.763
26170SOL    HW280408  10.813   1.402   1.745
26171SOL     OW80409   3.878  10.678  13.592
26171SOL    HW180410   3.797  10.710  13.634
26171SOL    HW280411   3.941  10.748  13.606
26172SOL     OW80412   0.586  14.143   7.316
26172SOL    HW180413   0.534  14.168   7.393
26172SOL    HW280414   0.673  14.126   7.350
26173SOL     OW80415   1.026   9.463   2.803
26173SOL    HW180416   1.091   9.398   2.831
26173SOL    HW280417   1.020   9.450   2.708
26174SOL     OW80418   4.635  12.038   6.057
26174SOL    HW180419   4.546  12.029   6.021
26174SOL    HW280420   4.675  11.952   6.044
26175SOL     OW80421  13.190   5.177  13.331
26175SOL    HW180422  13.162   5.089  13.359
26175SOL    HW280423  13.242   5.210  13.405
26176SOL     OW80424  11.557  12.148  14.727
26176SOL    HW180425  11.537  12.204  14.652
26176SOL    HW280426  11.637  12.102  14.701
26177SOL     OW80427  13.011   2.210  14.359
26177SOL    HW180428  12.960   2.226  14.280
26177SOL    HW280429  12.946   2.203  14.428
26178SOL     OW80430   1.843   4.766  10.249
26178SOL    HW180431   1.829   4.778  10.342
26178SOL    HW280432   1.937   4.782  10.236
26179SOL     OW80433   6.588   0.870   7.352
26179SOL    HW180434   6.575   0.866   7.257
26179SOL    HW280435   6.502   0.852   7.390
26180SOL     OW80436   8.259  13.014   3.948
26180SOL    HW180437   8.213  13.097   3.944
26180SOL    HW280438   8.203  12.957   4.001
26181SOL     OW80439   9.406   2.279   8.204
26181SOL    HW180440   9.383   2.188   8.184
26181SOL    HW280441   9.397   2.285   8.299
26182SOL     OW80442   9.545   2.815   0.110
26182SOL    HW180443   9.544   2.857   0.024
26182SOL    HW280444   9.552   2.722   0.092
26183SOL     OW80445   6.025   8.058  10.355
26183SOL    HW180446   6.099   8.047  10.416
26183SOL    HW280447   6.061   8.031  10.270
26184SOL     OW80448   7.608   6.746   1.314
26184SOL    HW180449   7.670   6.815   1.337
26184SOL    HW280450   7.653   6.693   1.248
26185SOL     OW80451   9.033   5.250   8.037
26185SOL    HW180452   9.010   5.158   8.053
26185SOL    HW280453   8.949   5.292   8.020
26186SOL     OW80454   3.540  12.821  10.964
26186SOL    HW180455   3.557  12.773  11.045
26186SOL    HW280456   3.550  12.913  10.988
26187SOL     OW80457   2.151   9.221   6.449
26187SOL    HW180458   2.063   9.212   6.415
26187SOL    HW280459   2.139   9.244   6.541
26188SOL     OW80460  11.689   3.513  13.271
26188SOL    HW180461  11.748   3.584  13.246
26188SOL    HW280462  11.740   3.433  13.255
26189SOL     OW80463   2.135  10.697   0.847
26189SOL    HW180464   2.224  10.726   0.866
26189SOL    HW280465   2.106  10.753   0.776
26190SOL     OW80466  11.472  11.250   3.290
26190SOL    HW180467  11.432  11.268   3.204
26190SOL    HW280468  11.448  11.160   3.309
26191SOL     OW80469  11.773   9.881  10.295
26191SOL    HW180470  11.835   9.860  10.365
26191SOL    HW280471  11.729   9.961  10.324
26192SOL     OW80472   5.552   2.388  12.331
26192SOL    HW180473   5.623   2.434  12.376
26192SOL    HW280474   5.501   2.348  12.401
26193SOL     OW80475   6.014   4.598  12.725
26193SOL    HW180476   6.007   4.627  12.634
26193SOL    HW280477   6.014   4.502  12.719
26194SOL     OW80478   9.225  10.853  11.051
26194SOL    HW180479   9.306  10.853  10.999
26194SOL    HW280480   9.167  10.793  11.004
26195SOL     OW80481  12.409  13.673  14.487
26195SOL    HW180482  12.489  13.687  14.438
26195SOL    HW280483  12.354  13.748  14.466
26196SOL     OW80484   2.991   4.519  10.868
26196SOL    HW180485   3.017   4.427  10.874
26196SOL    HW280486   3.006   4.542  10.777
26197SOL     OW80487   5.342   9.724   6.644
26197SOL    HW180488   5.316   9.760   6.728
26197SOL    HW280489   5.263   9.727   6.590
26198SOL     OW80490  13.872  11.993   4.309
26198SOL    HW180491  13.919  12.058   4.361
26198SOL    HW280492  13.927  11.978   4.233
26199SOL     OW80493  14.567  12.785   1.053
26199SOL    HW180494  14.542  12.694   1.069
26199SOL    HW280495  14.536  12.832   1.131
26200SOL     OW80496  10.514   4.110   1.465
26200SOL    HW180497  10.555   4.196   1.468
26200SOL    HW280498  10.442   4.120   1.402
26201SOL     OW80499   1.459   6.510   1.748
26201SOL    HW180500   1.422   6.441   1.693
26201SOL    HW280501   1.539   6.536   1.702
26202SOL     OW80502  11.564   0.899   2.684
26202SOL    HW180503  11.524   0.979   2.718
26202SOL    HW280504  11.493   0.836   2.683
26203SOL     OW80505  14.061   3.224   4.949
26203SOL    HW180506  14.118   3.282   4.999
26203SOL    HW280507  14.086   3.136   4.976
26204SOL     OW80508  10.524   7.764   2.944
26204SOL    HW180509  10.492   7.701   2.879
26204SOL    HW280510  10.481   7.738   3.025
26205SOL     OW80511   8.285   1.697  11.943
26205SOL    HW180512   8.378   1.709  11.966
26205SOL    HW280513   8.251   1.786  11.934
26206SOL     OW80514   8.900  12.139   2.443
26206SOL    HW180515   8.964  12.204   2.472
26206SOL    HW280516   8.864  12.104   2.525
26207SOL     OW80517  13.603  10.900   1.514
26207SOL    HW180518  13.648  10.967   1.463
26207SOL    HW280519  13.667  10.829   1.522
26208SOL     OW80520   5.752  10.624  14.596
26208SOL    HW180521   5.772  10.571  14.673
26208SOL    HW280522   5.785  10.572  14.523
26209SOL     OW80523  14.844  12.255   6.837
26209SOL    HW180524   0.034  12.273   6.767
26209SOL    HW280525  14.768  12.217   6.792
26210SOL     OW80526   3.312   8.265  10.507
26210SOL    HW180527   3.277   8.212  10.579
26210SOL    HW280528   3.236   8.312  10.472
26211SOL     OW80529   9.835  13.356  11.210
26211SOL    HW180530   9.754  13.399  11.236
26211SOL    HW280531   9.819  13.327  11.120
26212SOL     OW80532   4.323   3.292   2.534
26212SOL    HW180533   4.294   3.257   2.618
26212SOL    HW280534   4.347   3.383   2.552
26213SOL     OW80535   9.562   6.298   1.133
26213SOL    HW180536   9.526   6.300   1.045
26213SOL    HW280537   9.535   6.213   1.168
26214SOL     OW80538   7.269  10.269  12.746
26214SOL    HW180539   7.323  10.343  12.776
26214SOL    HW280540   7.180  10.302  12.746
26215SOL     OW80541   3.523   7.759   1.905
26215SOL    HW180542   3.523   7.854   1.914
26215SOL    HW280543   3.443   7.739   1.857
26216SOL     OW80544  12.272   6.218  12.904
26216SOL    HW180545  12.283   6.162  12.827
26216SOL    HW280546  12.342   6.191  12.964
26217SOL     OW80547   7.139  10.995  14.222
26217SOL    HW180548   7.122  10.917  14.168
26217SOL    HW280549   7.223  10.977  14.264
26218SOL     OW80550  11.107   8.809   4.347
26218SOL    HW180551  11.129   8.831   4.437
26218SOL    HW280552  11.142   8.882   4.295
26219SOL     OW80553   8.872   1.485   4.696
26219SOL    HW180554   8.795   1.538   4.715
26219SOL    HW280555   8.876   1.422   4.767
26220SOL     OW80556   8.311  12.280  10.528
26220SOL    HW180557   8.231  12.250  10.486
26220SOL    HW280558   8.335  12.210  10.589
26221SOL     OW80559  13.204   1.728  11.935
26221SOL    HW180560  13.259   1.651  11.939
26221SOL    HW280561  13.142   1.717  12.007
26222SOL     OW80562   4.730   7.697   4.392
26222SOL    HW180563   4.635   7.693   4.401
26222SOL    HW280564   4.764   7.658   4.472
26223SOL     OW80565   9.104  12.103   6.423
26223SOL    HW180566   9.078  12.053   6.500
26223SOL    HW280567   9.130  12.188   6.456
26224SOL     OW80568  11.464   9.362   4.124
26224SOL    HW180569  11.471   9.269   4.102
26224SOL    HW280570  11.551   9.385   4.157
26225SOL     OW80571   2.487   6.098   7.483
26225SOL    HW180572   2.506   6.187   7.455
26225SOL    HW280573   2.463   6.107   7.576
26226SOL     OW80574   2.476   6.739   4.149
26226SOL    HW180575   2.415   6.674   4.184
26226SOL    HW280576   2.486   6.802   4.220
26227SOL     OW80577   8.683   7.445   5.037
26227SOL    HW180578   8.648   7.474   5.121
26227SOL    HW280579   8.761   7.395   5.061
26228SOL     OW80580   0.097   5.449   2.728
26228SOL    HW180581   0.090   5.486   2.816
26228SOL    HW280582   0.042   5.505   2.674
26229SOL     OW80583   3.725  12.582   8.250
26229SOL    HW180584   3.815  12.577   8.281
26229SOL    HW280585   3.673  12.594   8.330
26230SOL     OW80586   8.759  13.009   7.562
26230SOL    HW180587   8.720  12.938   7.613
26230SOL    HW280588   8.698  13.082   7.570
26231SOL     OW80589  11.886  11.453   7.014
26231SOL    HW180590  11.808  11.477   6.965
26231SOL    HW280591  11.865  11.367   7.052
26232SOL     OW80592   5.087  13.565   5.466
26232SOL    HW180593   5.087  13.660   5.450
26232SOL    HW280594   5.107  13.526   5.381
26233SOL     OW80595  12.788   0.202   7.536
26233SOL    HW180596  12.853   0.132   7.538
26233SOL    HW280597  12.832   0.276   7.577
26234SOL     OW80598   1.900  12.004   7.227
26234SOL    HW180599   1.854  12.087   7.212
26234SOL    HW280600   1.992  12.025   7.216
26235SOL     OW80601   6.804   0.118   7.418
26235SOL    HW180602   6.771   0.127   7.329
26235SOL    HW280603   6.801   0.207   7.454
26236SOL     OW80604   2.906   3.313   6.709
26236SOL    HW180605   2.890   3.291   6.617
26236SOL    HW280606   2.993   3.351   6.711
26237SOL     OW80607   8.400   6.978   5.628
26237SOL    HW180608   8.318   7.025   5.613
26237SOL    HW280609   8.423   6.999   5.719
26238SOL     OW80610   8.037   8.452   8.723
26238SOL    HW180611   7.985   8.372   8.715
26238SOL    HW280612   8.061   8.455   8.816
26239SOL     OW80613   1.180  12.165   3.242
26239SOL    HW180614   1.228  12.165   3.325
26239SOL    HW280615   1.110  12.100   3.255
26240SOL     OW80616   0.641   5.249   8.167
26240SOL    HW180617   0.616   5.262   8.076
26240SOL    HW280618   0.735   5.235   8.165
26241SOL     OW80619   6.668   5.605   2.335
26241SOL    HW180620   6.597   5.660   2.367
26241SOL    HW280621   6.625   5.537   2.283
26242SOL     OW80622  10.933  11.627  13.698
26242SOL    HW180623  10.882  11.688  13.752
26242SOL    HW280624  11.020  11.627  13.738
26243SOL     OW80625   4.592   0.853   1.783
26243SOL    HW180626   4.611   0.925   1.723
26243SOL    HW280627   4.647   0.781   1.753
26244SOL     OW80628   1.532  12.326   4.696
26244SOL    HW180629   1.543  12.314   4.602
26244SOL    HW280630   1.602  12.387   4.720
26245SOL     OW80631  13.197   8.807   8.272
26245SOL    HW180632  13.186   8.768   8.185
26245SOL    HW280633  13.290   8.796   8.291
26246SOL     OW80634   8.096  13.144   1.744
26246SOL    HW180635   8.024  13.186   1.792
26246SOL    HW280636   8.096  13.054   1.775
26247SOL     OW80637  10.694  14.620   7.219
26247SOL    HW180638  10.623  14.675   7.184
26247SOL    HW280639  10.768  14.639   7.162
26248SOL     OW80640  13.137   0.421  12.733
26248SOL    HW180641  13.088   0.390  12.808
26248SOL    HW280642  13.174   0.505  12.761
26249SOL     OW80643  12.037   8.390   2.085
26249SOL    HW180644  12.057   8.363   1.995
26249SOL    HW280645  12.116   8.435   2.114
26250SOL     OW80646   1.336  13.877  13.815
26250SOL    HW180647   1.391  13.954  13.827
26250SOL    HW280648   1.398  13.805  13.801
26251SOL     OW80649  10.593   3.031   9.870
26251SOL    HW180650  10.514   3.045   9.922
26251SOL    HW280651  10.660   3.086   9.912
26252SOL     OW80652   8.172   6.230  12.948
26252SOL    HW180653   8.201   6.183  12.870
26252SOL    HW280654   8.244   6.218  13.010
26253SOL     OW80655   7.161  12.943   3.186
26253SOL    HW180656   7.134  12.866   3.236
26253SOL    HW280657   7.085  12.965   3.133
26254SOL     OW80658   9.604   8.764   5.679
26254SOL    HW180659   9.654   8.683   5.676
26254SOL    HW280660   9.556   8.760   5.762
26255SOL     OW80661   4.206  13.871  10.091
26255SOL    HW180662   4.128  13.816  10.092
26255SOL    HW280663   4.187  13.938  10.026
26256SOL     OW80664  12.897   3.480   2.534
26256SOL    HW180665  12.969   3.499   2.593
26256SOL    HW280666  12.878   3.387   2.547
26257SOL     OW80667   8.073   1.108   0.323
26257SOL    HW180668   7.987   1.093   0.363
26257SOL    HW280669   8.119   1.165   0.384
26258SOL     OW80670  12.215   4.489   8.607
26258SOL    HW180671  12.266   4.409   8.602
26258SOL    HW280672  12.225   4.530   8.521
26259SOL     OW80673   6.495   6.328   4.938
26259SOL    HW180674   6.457   6.414   4.926
26259SOL    HW280675   6.471   6.303   5.027
26260SOL     OW80676   2.799   7.955  11.870
26260SOL    HW180677   2.722   7.930  11.819
26260SOL    HW280678   2.866   7.892  11.844
26261SOL     OW80679  12.539   2.730  12.129
26261SOL    HW180680  12.559   2.651  12.180
26261SOL    HW280681  12.453   2.757  12.161
26262SOL     OW80682   1.213  13.818   3.639
26262SOL    HW180683   1.279  13.796   3.572
26262SOL    HW280684   1.227  13.911   3.656
26263SOL     OW80685  14.831   1.593   2.062
26263SOL    HW180686  14.839   1.508   2.017
26263SOL    HW280687   0.043   1.636   2.046
26264SOL     OW80688   5.533  11.463   5.674
26264SOL    HW180689   5.575  11.426   5.596
26264SOL    HW280690   5.542  11.396   5.741
26265SOL     OW80691  13.082   3.818   1.066
26265SOL    HW180692  13.151   3.876   1.031
26265SOL    HW280693  13.074   3.844   1.158
26266SOL     OW80694   8.260   6.127   2.083
26266SOL    HW180695   8.256   6.040   2.045
26266SOL    HW280696   8.180   6.135   2.134
26267SOL     OW80697   6.033   0.670   2.299
26267SOL    HW180698   5.990   0.594   2.336
26267SOL    HW280699   6.044   0.730   2.372
26268SOL     OW80700   1.843   6.463   6.768
26268SOL    HW180701   1.881   6.424   6.847
26268SOL    HW280702   1.829   6.388   6.710
26269SOL     OW80703   2.314  13.460  11.390
26269SOL    HW180704   2.274  13.373  11.387
26269SOL    HW280705   2.368  13.464  11.311
26270SOL     OW80706   7.257  10.686   3.657
26270SOL    HW180707   7.314  10.763   3.658
26270SOL    HW280708   7.209  10.691   3.740
26271SOL     OW80709  11.955  12.309  13.835
26271SOL    HW180710  11.901  12.371  13.786
26271SOL    HW280711  11.952  12.228  13.785
26272SOL     OW80712  10.781  13.827   2.942
26272SOL    HW180713  10.752  13.904   2.991
26272SOL    HW280714  10.764  13.849   2.850
26273SOL     OW80715  13.581   8.031  10.233
26273SOL    HW180716  13.579   8.121  10.265
26273SOL    HW280717  13.550   7.979  10.307
26274SOL     OW80718   0.973   0.779   2.573
26274SOL    HW180719   1.011   0.773   2.660
26274SOL    HW280720   0.938   0.692   2.555
26275SOL     OW80721  12.487   5.559   9.518
26275SOL    HW180722  12.473   5.592   9.607
26275SOL    HW280723  12.577   5.527   9.519
26276SOL     OW80724  13.921   4.188   6.532
26276SOL    HW180725  13.845   4.132   6.518
26276SOL    HW280726  13.986   4.159   6.469
26277SOL     OW80727  13.890   8.654   7.827
26277SOL    HW180728  13.920   8.654   7.736
26277SOL    HW280729  13.955   8.706   7.874
26278SOL     OW80730   4.640   0.305  12.227
26278SOL    HW180731   4.691   0.255  12.290
26278SOL    HW280732   4.616   0.243  12.159
26279SOL     OW80733   9.443   8.214   7.389
26279SOL    HW180734   9.372   8.160   7.425
26279SOL    HW280735   9.483   8.160   7.321
26280SOL     OW80736  14.146   7.392  11.409
26280SOL    HW180737  14.201   7.470  11.419
26280SOL    HW280738  14.076   7.420  11.350
26281SOL     OW80739  11.428   4.860  12.217
26281SOL    HW180740  11.498   4.923  12.199
26281SOL    HW280741  11.468   4.793  12.272
26282SOL     OW80742   7.206   1.559   8.094
26282SOL    HW180743   7.253   1.641   8.086
26282SOL    HW280744   7.114   1.582   8.077
26283SOL     OW80745   5.802   1.416   7.024
26283SOL    HW180746   5.829   1.414   7.116
26283SOL    HW280747   5.866   1.473   6.981
26284SOL     OW80748   8.414  11.560   7.288
26284SOL    HW180749   8.386  11.469   7.299
26284SOL    HW280750   8.356  11.610   7.346
26285SOL     OW80751  11.396  10.122   9.830
26285SOL    HW180752  11.346  10.047   9.861
26285SOL    HW280753  11.361  10.140   9.742
26286SOL     OW80754   8.212  13.697   5.251
26286SOL    HW180755   8.202  13.750   5.329
26286SOL    HW280756   8.169  13.747   5.181
26287SOL     OW80757  13.592   9.052   4.188
26287SOL    HW180758  13.558   9.134   4.222
26287SOL    HW280759  13.598   9.065   4.094
26288SOL     OW80760  12.618   8.128  10.595
26288SOL    HW180761  12.632   8.194  10.527
26288SOL    HW280762  12.594   8.178  10.673
26289SOL     OW80763  10.953   8.134   9.056
26289SOL    HW180764  10.950   8.129   8.960
26289SOL    HW280765  10.888   8.200   9.079
26290SOL     OW80766   5.667  12.206  10.273
26290SOL    HW180767   5.705  12.122  10.299
26290SOL    HW280768   5.719  12.272  10.319
26291SOL     OW80769   6.183  12.332   2.010
26291SOL    HW180770   6.157  12.397   2.075
26291SOL    HW280771   6.120  12.343   1.939
26292SOL     OW80772   3.901   9.509   7.284
26292SOL    HW180773   3.866   9.597   7.265
26292SOL    HW280774   3.858   9.452   7.221
26293SOL     OW80775  10.496   2.763   4.701
26293SOL    HW180776  10.459   2.734   4.618
26293SOL    HW280777  10.578   2.714   4.709
26294SOL     OW80778   1.852  13.814  10.882
26294SOL    HW180779   1.820  13.891  10.929
26294SOL    HW280780   1.904  13.849  10.810
26295SOL     OW80781   6.107   3.595   1.249
26295SOL    HW180782   6.190   3.581   1.203
26295SOL    HW280783   6.127   3.660   1.316
26296SOL     OW80784   5.279   3.386  13.713
26296SOL    HW180785   5.275   3.352  13.802
26296SOL    HW280786   5.298   3.309  13.659
26297SOL     OW80787   9.181   4.546  14.809
26297SOL    HW180788   9.106   4.595  14.841
26297SOL    HW280789   9.244   4.549   0.009
26298SOL     OW80790   9.626  14.479   3.938
26298SOL    HW180791   9.542  14.484   3.892
26298SOL    HW280792   9.603  14.489   4.030
26299SOL     OW80793  13.420   4.392   3.509
26299SOL    HW180794  13.438   4.298   3.520
26299SOL    HW280795  13.353   4.395   3.441
26300SOL     OW80796   9.877   7.814   0.328
26300SOL    HW180797   9.797   7.766   0.307
26300SOL    HW280798   9.865   7.900   0.288
26301SOL     OW80799   5.569  12.307   9.973
26301SOL    HW180800   5.539  12.396   9.990
26301SOL    HW280801   5.616  12.282  10.053
26302SOL     OW80802   4.279   4.811  12.279
26302SOL    HW180803   4.273   4.833  12.186
26302SOL    HW280804   4.353   4.750  12.284
26303SOL     OW80805   3.241   2.179   5.098
26303SOL    HW180806   3.336   2.178   5.083
26303SOL    HW280807   3.212   2.262   5.061
26304SOL     OW80808   1.042   9.774   9.765
26304SOL    HW180809   0.994   9.778   9.682
26304SOL    HW280810   1.015   9.691   9.805
26305SOL     OW80811  14.047   9.241  12.156
26305SOL    HW180812  14.074   9.297  12.229
26305SOL    HW280813  13.955   9.266  12.140
26306SOL     OW80814   9.119   9.445   6.458
26306SOL    HW180815   9.051   9.404   6.512
26306SOL    HW280816   9.200   9.432   6.508
26307SOL     OW80817   5.206   9.934  11.908
26307SOL    HW180818   5.283   9.950  11.853
26307SOL    HW280819   5.226   9.976  11.991
26308SOL     OW80820   6.396   7.296   4.639
26308SOL    HW180821   6.471   7.302   4.698
26308SOL    HW280822   6.339   7.230   4.679
26309SOL     OW80823   4.043   2.097  14.192
26309SOL    HW180824   4.022   2.005  14.203
26309SOL    HW280825   4.096   2.119  14.269
26310SOL     OW80826   8.108  11.673  10.087
26310SOL    HW180827   8.064  11.591  10.063
26310SOL    HW280828   8.037  11.730  10.117
26311SOL     OW80829   4.751  11.349   5.903
26311SOL    HW180830   4.768  11.299   5.982
26311SOL    HW280831   4.814  11.421   5.906
26312SOL     OW80832   1.215  12.231  12.159
26312SOL    HW180833   1.137  12.268  12.118
26312SOL    HW280834   1.271  12.307  12.176
26313SOL     OW80835  14.568   0.616  13.677
26313SOL    HW180836  14.570   0.692  13.735
26313SOL    HW280837  14.576   0.653  13.589
26314SOL     OW80838   0.768  10.336  10.180
26314SOL    HW180839   0.828  10.370  10.113
26314SOL    HW280840   0.700  10.402  10.186
26315SOL     OW80841   4.769   8.363   9.839
26315SOL    HW180842   4.760   8.281   9.790
26315SOL    HW280843   4.863   8.371   9.855
26316SOL     OW80844   0.958   3.718  10.186
26316SOL    HW180845   0.957   3.624  10.167
26316SOL    HW280846   1.049   3.744  10.172
26317SOL     OW80847   6.929  11.147   9.508
26317SOL    HW180848   6.870  11.177   9.439
26317SOL    HW280849   6.936  11.053   9.495
26318SOL     OW80850  14.310   8.547   5.787
26318SOL    HW180851  14.305   8.569   5.694
26318SOL    HW280852  14.378   8.479   5.792
26319SOL     OW80853   5.466   6.558   1.990
26319SOL    HW180854   5.546   6.611   1.982
26319SOL    HW280855   5.439   6.544   1.899
26320SOL     OW80856   3.035  12.318   9.059
26320SOL    HW180857   3.003  12.388   9.117
26320SOL    HW280858   3.056  12.246   9.118
26321SOL     OW80859  14.817   2.085   1.620
26321SOL    HW180860  14.833   2.130   1.537
26321SOL    HW280861  14.722   2.070   1.620
26322SOL     OW80862   1.419   9.352   7.756
26322SOL    HW180863   1.486   9.380   7.818
26322SOL    HW280864   1.389   9.433   7.714
26323SOL     OW80865   3.436  11.433   7.006
26323SOL    HW180866   3.451  11.384   6.926
26323SOL    HW280867   3.521  11.472   7.027
26324SOL     OW80868   2.270   1.951   3.300
26324SOL    HW180869   2.339   1.977   3.361
26324SOL    HW280870   2.289   2.001   3.220
26325SOL     OW80871   4.636   4.202  11.719
26325SOL    HW180872   4.695   4.185  11.645
26325SOL    HW280873   4.602   4.116  11.743
26326SOL     OW80874   3.720   6.541   1.732
26326SOL    HW180875   3.627   6.535   1.755
26326SOL    HW280876   3.764   6.556   1.815
26327SOL     OW80877   5.510  11.920  10.448
26327SOL    HW180878   5.448  11.862  10.403
26327SOL    HW280879   5.457  11.994  10.478
26328SOL     OW80880   6.664   2.377   7.385
26328SOL    HW180881   6.664   2.423   7.468
26328SOL    HW280882   6.616   2.434   7.325
26329SOL     OW80883  12.706  14.489   8.807
26329SOL    HW180884  12.764  14.451   8.741
26329SOL    HW280885  12.621  14.493   8.764
26330SOL     OW80886  10.349   1.892   1.308
26330SOL    HW180887  10.350   1.970   1.364
26330SOL    HW280888  10.378   1.821   1.365
26331SOL     OW80889  10.933   7.705   0.484
26331SOL    HW180890  10.840   7.695   0.506
26331SOL    HW280891  10.980   7.664   0.557
26332SOL     OW80892   3.361  10.635  12.225
26332SOL    HW180893   3.353  10.685  12.306
26332SOL    HW280894   3.455  10.626  12.212
26333SOL     OW80895   5.621  13.361   7.737
26333SOL    HW180896   5.610  13.266   7.749
26333SOL    HW280897   5.707  13.379   7.774
26334SOL     OW80898   1.365   2.456   2.144
26334SOL    HW180899   1.302   2.386   2.159
26334SOL    HW280900   1.318   2.536   2.168
26335SOL     OW80901   1.228   8.264   4.041
26335SOL    HW180902   1.159   8.256   3.976
26335SOL    HW280903   1.260   8.354   4.031
26336SOL     OW80904   6.600  14.642   1.370
26336SOL    HW180905   6.677  14.661   1.423
26336SOL    HW280906   6.531  14.698   1.406
26337SOL     OW80907  12.616   3.557   3.895
26337SOL    HW180908  12.587   3.536   3.806
26337SOL    HW280909  12.702   3.598   3.883
26338SOL     OW80910  11.338   0.364   2.475
26338SOL    HW180911  11.422   0.326   2.500
26338SOL    HW280912  11.276   0.327   2.536
26339SOL     OW80913   9.063  14.582  13.176
26339SOL    HW180914   9.071  14.492  13.209
26339SOL    HW280915   9.141  14.626  13.209
26340SOL     OW80916   9.463   2.632   1.306
26340SOL    HW180917   9.474   2.707   1.363
26340SOL    HW280918   9.552   2.613   1.273
26341SOL     OW80919   1.103   7.193   1.614
26341SOL    HW180920   1.058   7.129   1.668
26341SOL    HW280921   1.064   7.182   1.527
26342SOL     OW80922   0.881   7.564   8.006
26342SOL    HW180923   0.954   7.603   7.957
26342SOL    HW280924   0.920   7.541   8.091
26343SOL     OW80925   4.332   9.375  12.645
26343SOL    HW180926   4.327   9.470  12.634
26343SOL    HW280927   4.251   9.352  12.689
26344SOL     OW80928   8.677   0.807  12.996
26344SOL    HW180929   8.598   0.762  13.028
26344SOL    HW280930   8.649   0.897  12.982
26345SOL     OW80931  12.124   6.001   8.115
26345SOL    HW180932  12.115   6.082   8.066
26345SOL    HW280933  12.150   6.029   8.203
26346SOL     OW80934  14.588   3.073   8.386
26346SOL    HW180935  14.599   3.067   8.481
26346SOL    HW280936  14.493   3.072   8.373
26347SOL     OW80937   9.355   8.067   5.649
26347SOL    HW180938   9.300   7.998   5.615
26347SOL    HW280939   9.366   8.128   5.575
26348SOL     OW80940   2.238   0.403   8.506
26348SOL    HW180941   2.263   0.435   8.419
26348SOL    HW280942   2.149   0.369   8.494
26349SOL     OW80943  10.650  14.692   3.230
26349SOL    HW180944  10.667  14.634   3.304
26349SOL    HW280945  10.683  14.645   3.154
26350SOL     OW80946  10.659   1.196  14.443
26350SOL    HW180947  10.592   1.208  14.376
26350SOL    HW280948  10.646   1.270  14.503
26351SOL     OW80949   5.725  11.560   8.571
26351SOL    HW180950   5.656  11.513   8.525
26351SOL    HW280951   5.801  11.501   8.567
26352SOL     OW80952   2.077  14.282  13.626
26352SOL    HW180953   2.113  14.307  13.541
26352SOL    HW280954   2.135  14.213  13.657
26353SOL     OW80955   9.587   5.376   2.454
26353SOL    HW180956   9.605   5.424   2.373
26353SOL    HW280957   9.672   5.366   2.495
26354SOL     OW80958   4.722   8.973  13.099
26354SOL    HW180959   4.791   8.985  13.165
26354SOL    HW280960   4.715   9.059  13.056
26355SOL     OW80961   6.197  14.534   2.190
26355SOL    HW180962   6.251  14.495   2.258
26355SOL    HW280963   6.249  14.609   2.159
26356SOL     OW80964   5.426   5.739  12.359
26356SOL    HW180965   5.336   5.707  12.359
26356SOL    HW280966   5.418   5.834  12.353
26357SOL     OW80967  12.894  14.524   8.349
26357SOL    HW180968  12.886  14.619   8.356
26357SOL    HW280969  12.977  14.510   8.302
26358SOL     OW80970   9.533  11.085   8.636
26358SOL    HW180971   9.508  11.027   8.708
26358SOL    HW280972   9.452  11.129   8.611
26359SOL     OW80973   5.067   5.515   1.564
26359SOL    HW180974   4.971   5.520   1.560
26359SOL    HW280975   5.085   5.473   1.648
26360SOL     OW80976  13.567   0.911   7.272
26360SOL    HW180977  13.489   0.963   7.290
26360SOL    HW280978  13.536   0.821   7.269
26361SOL     OW80979  14.029  10.653   3.199
26361SOL    HW180980  14.056  10.612   3.117
26361SOL    HW280981  13.941  10.619   3.215
26362SOL     OW80982   9.946   0.287  10.562
26362SOL    HW180983   9.866   0.281  10.615
26362SOL    HW280984   9.959   0.198  10.529
26363SOL     OW80985  14.768  12.146   7.366
26363SOL    HW180986  14.676  12.126   7.344
26363SOL    HW280987  14.813  12.146   7.282
26364SOL     OW80988   1.995   5.677   6.083
26364SOL    HW180989   2.075   5.730   6.086
26364SOL    HW280990   1.927   5.734   6.120
26365SOL     OW80991   6.927   6.670   4.588
26365SOL    HW180992   6.866   6.738   4.615
26365SOL    HW280993   6.904   6.595   4.642
26366SOL     OW80994  12.367   8.780  11.458
26366SOL    HW180995  12.275   8.785  11.485
26366SOL    HW280996  12.385   8.866  11.420
26367SOL     OW80997   9.969  14.272  13.139
26367SOL    HW180998   9.936  14.292  13.052
26367SOL    HW280999  10.016  14.351  13.166
26368SOL     OW81000   9.127   5.008   6.887
26368SOL    HW181001   9.093   4.954   6.815
26368SOL    HW281002   9.202   5.054   6.848
26369SOL     OW81003   8.271  12.142  13.669
26369SOL    HW181004   8.329  12.218  13.671
26369SOL    HW281005   8.234  12.142  13.581
26370SOL     OW81006  12.974   9.456   3.719
26370SOL    HW181007  13.018   9.537   3.744
26370SOL    HW281008  13.044   9.399   3.688
26371SOL     OW81009   4.892  11.741   9.050
26371SOL    HW181010   4.944  11.727   8.971
26371SOL    HW281011   4.818  11.682   9.042
26372SOL     OW81012   4.235  13.818   2.823
26372SOL    HW181013   4.185  13.762   2.882
26372SOL    HW281014   4.219  13.782   2.736
26373SOL     OW81015   8.352   3.175  12.765
26373SOL    HW181016   8.274   3.131  12.799
26373SOL    HW281017   8.413   3.104  12.748
26374SOL     OW81018   0.668   7.737   6.825
26374SOL    HW181019   0.659   7.831   6.808
26374SOL    HW281020   0.590   7.714   6.876
26375SOL     OW81021   4.849  12.530   1.837
26375SOL    HW181022   4.879  12.480   1.762
26375SOL    HW281023   4.762  12.561   1.812
26376SOL     OW81024  13.484   3.018   6.804
26376SOL    HW181025  13.517   3.049   6.720
26376SOL    HW281026  13.446   2.932   6.785
26377SOL     OW81027  14.124  10.601  12.696
26377SOL    HW181028  14.161  10.600  12.784
26377SOL    HW281029  14.200  10.588  12.639
26378SOL     OW81030   5.363   9.164  12.935
26378SOL    HW181031   5.300   9.123  12.876
26378SOL    HW281032   5.365   9.255  12.909
26379SOL     OW81033  12.324   2.132   3.489
26379SOL    HW181034  12.271   2.172   3.558
26379SOL    HW281035  12.320   2.195   3.417
26380SOL     OW81036   0.333   7.356   8.473
26380SOL    HW181037   0.345   7.357   8.378
26380SOL    HW281038   0.246   7.319   8.486
26381SOL     OW81039   4.715   6.758   8.904
26381SOL    HW181040   4.747   6.844   8.933
26381SOL    HW281041   4.733   6.700   8.977
26382SOL     OW81042   5.784   1.892  10.602
26382SOL    HW181043   5.850   1.910  10.668
26382SOL    HW281044   5.761   1.978  10.567
26383SOL     OW81045   9.227  12.978   6.209
26383SOL    HW181046   9.204  12.885   6.207
26383SOL    HW281047   9.153  13.021   6.167
26384SOL     OW81048   6.481   5.639   7.987
26384SOL    HW181049   6.512   5.721   7.947
26384SOL    HW281050   6.509   5.571   7.925
26385SOL     OW81051   1.209   4.640   3.951
26385SOL    HW181052   1.280   4.638   3.887
26385SOL    HW281053   1.197   4.733   3.971
26386SOL     OW81054   7.913  10.237   8.208
26386SOL    HW181055   7.927  10.295   8.133
26386SOL    HW281056   7.989  10.252   8.264
26387SOL     OW81057   2.585   4.792   4.895
26387SOL    HW181058   2.633   4.764   4.973
26387SOL    HW281059   2.507   4.836   4.928
26388SOL     OW81060   7.309  11.597   9.407
26388SOL    HW181061   7.272  11.654   9.474
26388SOL    HW281062   7.242  11.592   9.339
26389SOL     OW81063  14.510   3.117   0.511
26389SOL    HW181064  14.483   3.030   0.482
26389SOL    HW281065  14.430   3.158   0.544
26390SOL     OW81066   7.963   5.770   4.006
26390SOL    HW181067   7.939   5.764   3.914
26390SOL    HW281068   7.880   5.787   4.051
26391SOL     OW81069   2.187   7.675   3.849
26391SOL    HW181070   2.092   7.674   3.837
26391SOL    HW281071   2.213   7.763   3.821
26392SOL     OW81072   7.760  12.392   3.069
26392SOL    HW181073   7.739  12.314   3.017
26392SOL    HW281074   7.807  12.358   3.145
26393SOL     OW81075   6.464   4.079  11.422
26393SOL    HW181076   6.471   4.115  11.511
26393SOL    HW281077   6.463   4.155  11.365
26394SOL     OW81078   1.965   6.400   7.320
26394SOL    HW181079   2.028   6.330   7.336
26394SOL    HW281080   1.987   6.433   7.232
26395SOL     OW81081  11.137  12.128   0.249
26395SOL    HW181082  11.145  12.224   0.252
26395SOL    HW281083  11.078  12.107   0.321
26396SOL     OW81084   6.450   9.313   8.622
26396SOL    HW181085   6.453   9.219   8.608
26396SOL    HW281086   6.441   9.351   8.535
26397SOL     OW81087  13.127   1.460   9.785
26397SOL    HW181088  13.069   1.433   9.856
26397SOL    HW281089  13.076   1.525   9.736
26398SOL     OW81090   7.396   3.732  12.252
26398SOL    HW181091   7.384   3.827  12.253
26398SOL    HW281092   7.342   3.700  12.324
26399SOL     OW81093  13.217  13.170  10.114
26399SOL    HW181094  13.178  13.153  10.029
26399SOL    HW281095  13.296  13.220  10.095
26400SOL     OW81096  14.162   2.237  11.803
26400SOL    HW181097  14.220   2.213  11.730
26400SOL    HW281098  14.222   2.266  11.872
26401SOL     OW81099   3.626   3.916   9.741
26401SOL    HW181100   3.631   3.823   9.718
26401SOL    HW281101   3.532   3.935   9.739
26402SOL     OW81102   3.316   6.917   6.900
26402SOL    HW181103   3.315   6.844   6.838
26402SOL    HW281104   3.406   6.950   6.897
26403SOL     OW81105   4.935   5.012   6.021
26403SOL    HW181106   4.987   5.070   5.965
26403SOL    HW281107   4.994   4.940   6.042
26404SOL     OW81108  10.490   5.377   3.796
26404SOL    HW181109  10.446   5.408   3.717
26404SOL    HW281110  10.491   5.282   3.787
26405SOL     OW81111  11.166   1.000  11.571
26405SOL    HW181112  11.223   0.952  11.631
26405SOL    HW281113  11.196   1.090  11.576
26406SOL     OW81114   4.090  13.064   3.472
26406SOL    HW181115   4.060  13.020   3.551
26406SOL    HW281116   4.112  12.993   3.411
26407SOL     OW81117  10.255  10.659   8.174
26407SOL    HW181118  10.325  10.720   8.196
26407SOL    HW281119  10.267  10.641   8.081
26408SOL     OW81120   2.243   1.254  14.498
26408SOL    HW181121   2.286   1.239  14.582
26408SOL    HW281122   2.225   1.165  14.465
26409SOL     OW81123   4.716   9.945   7.622
26409SOL    HW181124   4.653   9.891   7.670
26409SOL    HW281125   4.799   9.900   7.633
26410SOL     OW81126   1.638   3.707   1.872
26410SOL    HW181127   1.642   3.635   1.935
26410SOL    HW281128   1.720   3.701   1.823
26411SOL     OW81129   8.686   7.945   6.824
26411SOL    HW181130   8.633   8.025   6.821
26411SOL    HW281131   8.776   7.976   6.835
26412SOL     OW81132  11.062  11.561  14.761
26412SOL    HW181133  11.143  11.552  14.812
26412SOL    HW281134  10.993  11.530  14.819
26413SOL     OW81135   0.037  14.487   9.810
26413SOL    HW181136   0.079  14.443   9.884
26413SOL    HW281137  14.865  14.417   9.763
26414SOL     OW81138  13.742   2.856   6.876
26414SOL    HW181139  13.787   2.880   6.795
26414SOL    HW281140  13.664   2.911   6.877
26415SOL     OW81141   6.312   8.298   8.383
26415SOL    HW181142   6.272   8.328   8.302
26415SOL    HW281143   6.404   8.325   8.377
26416SOL     OW81144  13.212  12.250  12.104
26416SOL    HW181145  13.216  12.344  12.122
26416SOL    HW281146  13.303  12.220  12.112
26417SOL     OW81147   4.583  12.148   4.132
26417SOL    HW181148   4.515  12.201   4.090
26417SOL    HW281149   4.580  12.174   4.224
26418SOL     OW81150   7.363  14.048  13.413
26418SOL    HW181151   7.443  14.089  13.445
26418SOL    HW281152   7.393  13.980  13.353
26419SOL     OW81153   5.654   3.986   2.873
26419SOL    HW181154   5.702   4.068   2.861
26419SOL    HW281155   5.676   3.935   2.796
26420SOL     OW81156   8.102   2.084  13.668
26420SOL    HW181157   8.177   2.069  13.611
26420SOL    HW281158   8.137   2.133  13.742
26421SOL     OW81159  13.561  10.728  12.672
26421SOL    HW181160  13.564  10.633  12.661
26421SOL    HW281161  13.519  10.761  12.592
26422SOL     OW81162  10.936  10.999  11.427
26422SOL    HW181163  10.849  11.036  11.411
26422SOL    HW281164  10.927  10.953  11.510
26423SOL     OW81165  13.680  11.825  14.060
26423SOL    HW181166  13.748  11.871  14.010
26423SOL    HW281167  13.712  11.825  14.150
26424SOL     OW81168   2.673   3.650   6.905
26424SOL    HW181169   2.631   3.729   6.872
26424SOL    HW281170   2.765   3.675   6.916
26425SOL     OW81171   9.262  14.226   8.716
26425SOL    HW181172   9.225  14.313   8.732
26425SOL    HW281173   9.194  14.178   8.670
26426SOL     OW81174  11.627  13.681   7.781
26426SOL    HW181175  11.651  13.650   7.693
26426SOL    HW281176  11.558  13.621   7.810
26427SOL     OW81177   2.638   3.076  11.510
26427SOL    HW181178   2.601   3.082  11.598
26427SOL    HW281179   2.625   2.985  11.485
26428SOL     OW81180  12.613   1.984   5.839
26428SOL    HW181181  12.660   1.958   5.918
26428SOL    HW281182  12.582   2.072   5.857
26429SOL     OW81183   7.963   6.968   7.408
26429SOL    HW181184   7.919   7.050   7.391
26429SOL    HW281185   7.893   6.904   7.419
26430SOL     OW81186   4.354   1.928  10.281
26430SOL    HW181187   4.378   1.986  10.353
26430SOL    HW281188   4.409   1.851  10.293
26431SOL     OW81189   6.704   9.333  11.693
26431SOL    HW181190   6.705   9.367  11.783
26431SOL    HW281191   6.611   9.337  11.668
26432SOL     OW81192   0.230   1.616  14.104
26432SOL    HW181193   0.236   1.593  14.197
26432SOL    HW281194   0.152   1.673  14.099
26433SOL     OW81195  11.581  11.046   8.930
26433SOL    HW181196  11.634  11.123   8.910
26433SOL    HW281197  11.557  11.010   8.845
26434SOL     OW81198   2.589   8.510   2.305
26434SOL    HW181199   2.657   8.512   2.372
26434SOL    HW281200   2.522   8.570   2.337
26435SOL     OW81201   7.758   1.058   1.808
26435SOL    HW181202   7.698   1.110   1.756
26435SOL    HW281203   7.727   0.968   1.798
26436SOL     OW81204  13.670   4.624   1.321
26436SOL    HW181205  13.607   4.581   1.378
26436SOL    HW281206  13.702   4.554   1.263
26437SOL     OW81207   5.760  10.449   3.019
26437SOL    HW181208   5.808  10.476   3.097
26437SOL    HW281209   5.827  10.411   2.962
26438SOL     OW81210   1.072   6.400   7.176
26438SOL    HW181211   1.151   6.347   7.176
26438SOL    HW281212   1.093   6.475   7.232
26439SOL     OW81213   1.781   2.994   6.029
26439SOL    HW181214   1.755   3.074   5.983
26439SOL    HW281215   1.707   2.975   6.087
26440SOL     OW81216   5.698  10.716   9.208
26440SOL    HW181217   5.718  10.809   9.208
26440SOL    HW281218   5.614  10.709   9.255
26441SOL     OW81219   9.477   8.108   6.322
26441SOL    HW181220   9.410   8.074   6.381
26441SOL    HW281221   9.428   8.156   6.255
26442SOL     OW81222  10.490   4.687   1.956
26442SOL    HW181223  10.398   4.660   1.957
26442SOL    HW281224  10.536   4.617   2.002
26443SOL     OW81225   8.203   9.094   1.399
26443SOL    HW181226   8.219   9.132   1.312
26443SOL    HW281227   8.289   9.089   1.439
26444SOL     OW81228   6.291   6.765  11.762
26444SOL    HW181229   6.339   6.716  11.829
26444SOL    HW281230   6.280   6.701  11.691
26445SOL     OW81231   6.300  12.798  10.945
26445SOL    HW181232   6.218  12.750  10.955
26445SOL    HW281233   6.368  12.730  10.942
26446SOL     OW81234  12.673  10.775   7.814
26446SOL    HW181235  12.628  10.692   7.797
26446SOL    HW281236  12.649  10.831   7.740
26447SOL     OW81237   5.064   9.645   4.991
26447SOL    HW181238   5.093   9.653   4.900
26447SOL    HW281239   4.988   9.702   4.998
26448SOL     OW81240   9.562   7.121   6.563
26448SOL    HW181241   9.625   7.090   6.498
26448SOL    HW281242   9.565   7.216   6.555
26449SOL     OW81243   9.049  13.074   7.930
26449SOL    HW181244   9.075  12.982   7.931
26449SOL    HW281245   9.015  13.089   7.842
26450SOL     OW81246  12.033   8.851   9.502
26450SOL    HW181247  12.105   8.841   9.440
26450SOL    HW281248  11.963   8.797   9.467
26451SOL     OW81249  10.099  13.797   3.663
26451SOL    HW181250  10.124  13.885   3.691
26451SOL    HW281251  10.115  13.742   3.740
26452SOL     OW81252   0.973  13.407   7.816
26452SOL    HW181253   0.967  13.497   7.784
26452SOL    HW281254   1.065  13.383   7.803
26453SOL     OW81255  10.119   7.487  14.413
26453SOL    HW181256  10.183   7.432  14.457
26453SOL    HW281257  10.049   7.427  14.387
26454SOL     OW81258   8.859  13.938   2.656
26454SOL    HW181259   8.906  13.857   2.670
26454SOL    HW281260   8.907  13.982   2.585
26455SOL     OW81261   6.375   5.518   7.286
26455SOL    HW181262   6.424   5.544   7.363
26455SOL    HW281263   6.356   5.425   7.300
26456SOL     OW81264   9.855   5.026  14.449
26456SOL    HW181265   9.907   4.958  14.407
26456SOL    HW281266   9.903   5.107  14.434
26457SOL     OW81267  14.453   6.376  13.595
26457SOL    HW181268  14.440   6.321  13.518
26457SOL    HW281269  14.438   6.465  13.564
26458SOL     OW81270   1.385  11.434   1.159
26458SOL    HW181271   1.368  11.492   1.085
26458SOL    HW281272   1.450  11.481   1.212
26459SOL     OW81273  14.013  11.667   5.285
26459SOL    HW181274  13.968  11.680   5.202
26459SOL    HW281275  13.975  11.587   5.321
26460SOL     OW81276   0.161   1.308   1.716
26460SOL    HW181277   0.108   1.337   1.791
26460SOL    HW281278   0.247   1.289   1.753
26461SOL     OW81279   6.341   1.371   7.287
26461SOL    HW181280   6.281   1.322   7.230
26461SOL    HW281281   6.299   1.456   7.299
26462SOL     OW81282   0.602   9.051   5.220
26462SOL    HW181283   0.513   9.087   5.220
26462SOL    HW281284   0.647   9.100   5.151
26463SOL     OW81285  12.424   3.597  12.075
26463SOL    HW181286  12.504   3.644  12.096
26463SOL    HW281287  12.449   3.505  12.079
26464SOL     OW81288   6.995   6.311  14.515
26464SOL    HW181289   6.928   6.345  14.575
26464SOL    HW281290   7.039   6.242  14.565
26465SOL     OW81291   5.853  11.976   0.423
26465SOL    HW181292   5.858  11.990   0.329
26465SOL    HW281293   5.945  11.976   0.452
26466SOL     OW81294   6.768   0.116   7.143
26466SOL    HW181295   6.737   0.100   7.054
26466SOL    HW281296   6.820   0.196   7.137
26467SOL     OW81297  13.382  13.242  10.674
26467SOL    HW181298  13.409  13.184  10.746
26467SOL    HW281299  13.422  13.204  10.596
26468SOL     OW81300  14.134   1.810   5.272
26468SOL    HW181301  14.228   1.818   5.257
26468SOL    HW281302  14.095   1.883   5.223
26469SOL     OW81303   6.338  14.211   2.600
26469SOL    HW181304   6.278  14.281   2.625
26469SOL    HW281305   6.398  14.251   2.537
26470SOL     OW81306  11.860   9.665   7.932
26470SOL    HW181307  11.846   9.756   7.908
26470SOL    HW281308  11.915   9.669   8.011
26471SOL     OW81309  10.154   2.406   2.254
26471SOL    HW181310  10.107   2.417   2.337
26471SOL    HW281311  10.130   2.318   2.225
26472SOL     OW81312   1.476   5.623   5.446
26472SOL    HW181313   1.524   5.608   5.527
26472SOL    HW281314   1.409   5.555   5.444
26473SOL     OW81315   0.593  12.631   5.010
26473SOL    HW181316   0.577  12.605   5.100
26473SOL    HW281317   0.613  12.724   5.014
26474SOL     OW81318  12.037   8.767  13.965
26474SOL    HW181319  12.001   8.741  13.880
26474SOL    HW281320  12.008   8.857  13.976
26475SOL     OW81321   3.622   0.324   5.823
26475SOL    HW181322   3.718   0.333   5.824
26475SOL    HW281323   3.600   0.300   5.913
26476SOL     OW81324   9.103   7.057   0.349
26476SOL    HW181325   9.150   6.998   0.291
26476SOL    HW281326   9.055   7.115   0.289
26477SOL     OW81327   0.092   1.183   2.528
26477SOL    HW181328   0.074   1.090   2.546
26477SOL    HW281329   0.051   1.199   2.443
26478SOL     OW81330   9.356   5.485  10.192
26478SOL    HW181331   9.429   5.531  10.235
26478SOL    HW281332   9.307   5.554  10.148
26479SOL     OW81333   6.615   9.810   0.995
26479SOL    HW181334   6.666   9.886   0.968
26479SOL    HW281335   6.524   9.835   0.978
26480SOL     OW81336  13.402   4.884   3.989
26480SOL    HW181337  13.377   4.874   3.897
26480SOL    HW281338  13.406   4.978   4.003
26481SOL     OW81339   1.827  10.897   0.450
26481SOL    HW181340   1.885  10.844   0.394
26481SOL    HW281341   1.740  10.861   0.435
26482SOL     OW81342   6.094  13.992  13.923
26482SOL    HW181343   6.140  13.967  14.003
26482SOL    HW281344   6.143  14.068  13.890
26483SOL     OW81345   9.686  10.191   4.268
26483SOL    HW181346   9.693  10.286   4.276
26483SOL    HW281347   9.653  10.163   4.354
26484SOL     OW81348   3.338   9.465   7.949
26484SOL    HW181349   3.346   9.526   7.876
26484SOL    HW281350   3.386   9.507   8.020
26485SOL     OW81351  12.151   4.541   3.686
26485SOL    HW181352  12.123   4.519   3.775
26485SOL    HW281353  12.146   4.459   3.637
26486SOL     OW81354  10.634   2.221   5.797
26486SOL    HW181355  10.679   2.213   5.881
26486SOL    HW281356  10.704   2.237   5.734
26487SOL     OW81357  11.712   1.500  13.040
26487SOL    HW181358  11.646   1.548  13.090
26487SOL    HW281359  11.694   1.408  13.058
26488SOL     OW81360   1.895  13.520  11.412
26488SOL    HW181361   1.883  13.604  11.457
26488SOL    HW281362   1.832  13.522  11.340
26489SOL     OW81363   0.831  12.086   2.648
26489SOL    HW181364   0.755  12.139   2.672
26489SOL    HW281365   0.818  12.004   2.696
26490SOL     OW81366   6.014  11.564   0.765
26490SOL    HW181367   5.932  11.589   0.722
26490SOL    HW281368   6.065  11.522   0.696
26491SOL     OW81369   0.118  12.869   1.179
26491SOL    HW181370   0.057  12.824   1.237
26491SOL    HW281371   0.125  12.957   1.216
26492SOL     OW81372   5.607   6.536   7.722
26492SOL    HW181373   5.666   6.489   7.663
26492SOL    HW281374   5.664   6.589   7.777
26493SOL     OW81375  10.566   3.344   8.549
26493SOL    HW181376  10.583   3.356   8.642
26493SOL    HW281377  10.477   3.378   8.536
26494SOL     OW81378  10.193  11.101   6.833
26494SOL    HW181379  10.167  11.009   6.823
26494SOL    HW281380  10.224  11.107   6.924
26495SOL     OW81381   4.365   5.168  13.295
26495SOL    HW181382   4.396   5.201  13.210
26495SOL    HW281383   4.285   5.218  13.312
26496SOL     OW81384   7.796   4.051   3.706
26496SOL    HW181385   7.722   4.096   3.746
26496SOL    HW281386   7.802   4.088   3.618
26497SOL     OW81387   0.494   8.958  10.945
26497SOL    HW181388   0.444   8.877  10.942
26497SOL    HW281389   0.496   8.983  11.037
26498SOL     OW81390  13.652   7.401   9.264
26498SOL    HW181391  13.717   7.417   9.195
26498SOL    HW281392  13.568   7.412   9.220
26499SOL     OW81393   5.847  11.164  14.054
26499SOL    HW181394   5.836  11.253  14.087
26499SOL    HW281395   5.799  11.163  13.971
26500SOL     OW81396   5.137   0.982   9.188
26500SOL    HW181397   5.145   0.893   9.154
26500SOL    HW281398   5.094   1.030   9.117
26501SOL     OW81399   9.237  11.393   6.728
26501SOL    HW181400   9.312  11.389   6.787
26501SOL    HW281401   9.242  11.313   6.676
26502SOL     OW81402   4.688   6.818   3.567
26502SOL    HW181403   4.645   6.733   3.578
26502SOL    HW281404   4.709   6.822   3.474
26503SOL     OW81405   6.088   7.344   5.133
26503SOL    HW181406   6.117   7.400   5.061
26503SOL    HW281407   6.107   7.395   5.212
26504SOL     OW81408   2.914   8.031   2.710
26504SOL    HW181409   2.923   8.046   2.616
26504SOL    HW281410   2.973   7.958   2.728
26505SOL     OW81411   0.172   7.073   3.228
26505SOL    HW181412   0.250   7.055   3.175
26505SOL    HW281413   0.147   7.162   3.204
26506SOL     OW81414   6.898   8.612   4.428
26506SOL    HW181415   6.900   8.632   4.522
26506SOL    HW281416   6.989   8.599   4.404
26507SOL     OW81417   3.179   5.595   0.477
26507SOL    HW181418   3.202   5.512   0.436
26507SOL    HW281419   3.259   5.624   0.521
26508SOL     OW81420  12.723   1.789   1.532
26508SOL    HW181421  12.665   1.838   1.473
26508SOL    HW281422  12.691   1.699   1.527
26509SOL     OW81423  13.929   8.083  13.866
26509SOL    HW181424  14.015   8.090  13.827
26509SOL    HW281425  13.899   7.995  13.842
26510SOL     OW81426   0.355   6.562  14.788
26510SOL    HW181427   0.447   6.534  14.792
26510SOL    HW281428   0.350   6.617  14.710
26511SOL     OW81429   1.666   0.032   8.436
26511SOL    HW181430   1.633   0.095   8.500
26511SOL    HW281431   1.643  14.819   8.471
26512SOL     OW81432   3.122   7.976  13.529
26512SOL    HW181433   3.120   7.956  13.435
26512SOL    HW281434   3.104   8.069  13.534
26513SOL     OW81435   9.027   0.598   6.208
26513SOL    HW181436   9.051   0.691   6.207
26513SOL    HW281437   8.943   0.595   6.162
26514SOL     OW81438   1.256   5.663   4.909
26514SOL    HW181439   1.249   5.716   4.830
26514SOL    HW281440   1.318   5.594   4.887
26515SOL     OW81441   2.386   3.553   8.406
26515SOL    HW181442   2.437   3.492   8.459
26515SOL    HW281443   2.305   3.507   8.386
26516SOL     OW81444   1.997  13.050   8.822
26516SOL    HW181445   2.086  13.076   8.799
26516SOL    HW281446   2.007  12.969   8.872
26517SOL     OW81447   4.077   5.850  13.766
26517SOL    HW181448   4.163   5.857  13.724
26517SOL    HW281449   4.046   5.940  13.773
26518SOL     OW81450  14.328  12.338  10.083
26518SOL    HW181451  14.335  12.392  10.004
26518SOL    HW281452  14.318  12.249  10.050
26519SOL     OW81453   9.950   2.681   4.091
26519SOL    HW181454  10.031   2.732   4.085
26519SOL    HW281455   9.881   2.745   4.071
26520SOL     OW81456   2.311  14.478   2.486
26520SOL    HW181457   2.235  14.511   2.437
26520SOL    HW281458   2.273  14.426   2.557
26521SOL     OW81459   7.772   2.690   6.484
26521SOL    HW181460   7.778   2.658   6.574
26521SOL    HW281461   7.798   2.783   6.490
26522SOL     OW81462   5.895   1.038  14.407
26522SOL    HW181463   5.990   1.033  14.394
26522SOL    HW281464   5.878   1.131  14.422
26523SOL     OW81465   9.195  13.815  14.753
26523SOL    HW181466   9.100  13.805  14.741
26523SOL    HW281467   9.225  13.726  14.773
26524SOL     OW81468   7.195  12.213   9.542
26524SOL    HW181469   7.222  12.143   9.602
26524SOL    HW281470   7.175  12.287   9.599
26525SOL     OW81471  13.838   7.753   1.499
26525SOL    HW181472  13.882   7.810   1.561
26525SOL    HW281473  13.753   7.735   1.539
26526SOL     OW81474   5.714  13.388   6.098
26526SOL    HW181475   5.670  13.466   6.131
26526SOL    HW281476   5.680  13.317   6.152
26527SOL     OW81477  13.098   2.408   0.690
26527SOL    HW181478  13.005   2.409   0.667
26527SOL    HW281479  13.103   2.357   0.771
26528SOL     OW81480  14.079   5.699  13.731
26528SOL    HW181481  14.142   5.747  13.785
26528SOL    HW281482  14.051   5.762  13.665
26529SOL     OW81483  14.486   3.073   3.042
26529SOL    HW181484  14.398   3.083   3.079
26529SOL    HW281485  14.542   3.057   3.118
26530SOL     OW81486   5.226   8.955   4.406
26530SOL    HW181487   5.220   9.039   4.451
26530SOL    HW281488   5.271   8.974   4.324
26531SOL     OW81489   7.540   9.075   9.088
26531SOL    HW181490   7.494   8.996   9.062
26531SOL    HW281491   7.630   9.046   9.105
26532SOL     OW81492  11.661   0.645   1.543
26532SOL    HW181493  11.632   0.704   1.612
26532SOL    HW281494  11.652   0.557   1.581
26533SOL     OW81495  12.578   2.953  12.673
26533SOL    HW181496  12.617   2.901  12.743
26533SOL    HW281497  12.626   2.926  12.594
26534SOL     OW81498  14.616   9.007  12.157
26534SOL    HW181499  14.642   9.097  12.136
26534SOL    HW281500  14.695   8.967  12.193
26535SOL     OW81501  14.383   9.005   7.993
26535SOL    HW181502  14.449   8.946   7.957
26535SOL    HW281503  14.324   8.949   8.043
26536SOL     OW81504   7.764   5.287  13.405
26536SOL    HW181505   7.807   5.318  13.484
26536SOL    HW281506   7.672   5.312  13.416
26537SOL     OW81507   1.630   9.541   1.622
26537SOL    HW181508   1.639   9.499   1.536
26537SOL    HW281509   1.719   9.545   1.656
26538SOL     OW81510   4.792  14.016  11.843
26538SOL    HW181511   4.783  14.021  11.938
26538SOL    HW281512   4.822  14.104  11.818
26539SOL     OW81513  14.511   4.420   8.193
26539SOL    HW181514  14.468   4.359   8.134
26539SOL    HW281515  14.546   4.365   8.263
26540SOL     OW81516   0.500  11.050   0.571
26540SOL    HW181517   0.566  10.999   0.617
26540SOL    HW281518   0.523  11.141   0.589
26541SOL     OW81519  11.439   2.201  11.439
26541SOL    HW181520  11.442   2.110  11.410
26541SOL    HW281521  11.350   2.229  11.420
26542SOL     OW81522  12.598   7.248   5.257
26542SOL    HW181523  12.688   7.274   5.239
26542SOL    HW281524  12.585   7.169   5.204
26543SOL     OW81525   4.507  13.351   1.008
26543SOL    HW181526   4.422  13.350   0.964
26543SOL    HW281527   4.490  13.311   1.094
26544SOL     OW81528  12.886   9.396   8.279
26544SOL    HW181529  12.812   9.365   8.228
26544SOL    HW281530  12.900   9.328   8.346
26545SOL     OW81531   0.166   8.993   8.044
26545SOL    HW181532   0.130   9.007   7.957
26545SOL    HW281533   0.244   8.940   8.029
26546SOL     OW81534   7.254   6.876   6.556
26546SOL    HW181535   7.172   6.917   6.530
26546SOL    HW281536   7.228   6.797   6.604
26547SOL     OW81537   5.229  12.078  10.270
26547SOL    HW181538   5.265  12.094  10.357
26547SOL    HW281539   5.182  11.995  10.278
26548SOL     OW81540  14.561   9.414   3.147
26548SOL    HW181541  14.531   9.482   3.208
26548SOL    HW281542  14.656   9.422   3.148
26549SOL     OW81543   6.852  14.579   1.927
26549SOL    HW181544   6.786  14.613   1.987
26549SOL    HW281545   6.806  14.513   1.875
26550SOL     OW81546  13.047  14.612   8.034
26550SOL    HW181547  13.023  14.529   8.075
26550SOL    HW281548  13.120  14.645   8.086
26551SOL     OW81549   2.828  11.760   0.453
26551SOL    HW181550   2.843  11.690   0.517
26551SOL    HW281551   2.735  11.781   0.463
26552SOL     OW81552  11.787  14.866  10.683
26552SOL    HW181553  11.876   0.022  10.660
26552SOL    HW281554  11.800  14.781  10.726
26553SOL     OW81555   2.010  14.711  10.614
26553SOL    HW181556   1.974  14.720  10.702
26553SOL    HW281557   2.010  14.800  10.579
26554SOL     OW81558  12.648   2.549  13.541
26554SOL    HW181559  12.584   2.607  13.499
26554SOL    HW281560  12.642   2.467  13.491
26555SOL     OW81561  14.131  10.918  14.844
26555SOL    HW181562  14.226  10.924  14.841
26555SOL    HW281563  14.104  10.995   0.021
26556SOL     OW81564   2.919   6.389   9.965
26556SOL    HW181565   2.978   6.372  10.039
26556SOL    HW281566   2.872   6.468   9.989
26557SOL     OW81567  14.106  13.576   9.210
26557SOL    HW181568  14.193  13.614   9.219
26557SOL    HW281569  14.088  13.535   9.295
26558SOL     OW81570   7.123   5.956   7.431
26558SOL    HW181571   7.213   5.966   7.463
26558SOL    HW281572   7.095   6.046   7.412
26559SOL     OW81573   8.216  12.745   0.797
26559SOL    HW181574   8.212  12.695   0.716
26559SOL    HW281575   8.308  12.771   0.804
26560SOL     OW81576   2.497  14.327   1.937
26560SOL    HW181577   2.491  14.417   1.908
26560SOL    HW281578   2.492  14.333   2.033
26561SOL     OW81579  14.066   3.327   6.657
26561SOL    HW181580  14.137   3.379   6.696
26561SOL    HW281581  14.111   3.256   6.612
26562SOL     OW81582  10.791   4.666   2.972
26562SOL    HW181583  10.771   4.697   2.884
26562SOL    HW281584  10.711   4.681   3.022
26563SOL     OW81585   2.689   2.217   7.926
26563SOL    HW181586   2.599   2.250   7.932
26563SOL    HW281587   2.689   2.164   7.846
26564SOL     OW81588  11.967   8.271  10.678
26564SOL    HW181589  11.989   8.350  10.629
26564SOL    HW281590  12.050   8.240  10.713
26565SOL     OW81591  12.940   5.875   5.765
26565SOL    HW181592  12.863   5.823   5.739
26565SOL    HW281593  12.907   5.935   5.832
26566SOL     OW81594   8.786   1.827   1.904
26566SOL    HW181595   8.752   1.824   1.814
26566SOL    HW281596   8.728   1.889   1.949
26567SOL     OW81597   7.083   7.844   9.504
26567SOL    HW181598   7.137   7.835   9.426
26567SOL    HW281599   6.993   7.841   9.471
26568SOL     OW81600  13.837  14.459   4.966
26568SOL    HW181601  13.920  14.506   4.978
26568SOL    HW281602  13.819  14.466   4.872
26569SOL     OW81603   7.284  13.754  14.588
26569SOL    HW181604   7.350  13.796  14.642
26569SOL    HW281605   7.224  13.713  14.650
26570SOL     OW81606  10.787   5.158   6.308
26570SOL    HW181607  10.717   5.179   6.246
26570SOL    HW281608  10.830   5.242   6.324
26571SOL     OW81609  13.233  14.410   0.473
26571SOL    HW181610  13.204  14.362   0.550
26571SOL    HW281611  13.177  14.378   0.402
26572SOL     OW81612   0.162   7.940   1.668
26572SOL    HW181613   0.247   7.905   1.641
26572SOL    HW281614   0.157   8.026   1.626
26573SOL     OW81615   0.526   6.578   5.055
26573SOL    HW181616   0.558   6.507   5.110
26573SOL    HW281617   0.450   6.613   5.101
26574SOL     OW81618   4.287  10.918   8.666
26574SOL    HW181619   4.355  10.850   8.661
26574SOL    HW281620   4.330  10.991   8.710
26575SOL     OW81621   5.654  11.333  11.077
26575SOL    HW181622   5.634  11.239  11.073
26575SOL    HW281623   5.638  11.356  11.169
26576SOL     OW81624  10.978  12.465  11.681
26576SOL    HW181625  11.027  12.410  11.620
26576SOL    HW281626  10.983  12.418  11.765
26577SOL     OW81627   8.281  14.723  13.544
26577SOL    HW181628   8.214  14.790  13.550
26577SOL    HW281629   8.234  14.643  13.519
26578SOL     OW81630   7.479   7.878  10.527
26578SOL    HW181631   7.429   7.880  10.608
26578SOL    HW281632   7.414   7.862  10.459
26579SOL     OW81633  10.144  12.105   1.896
26579SOL    HW181634  10.087  12.097   1.972
26579SOL    HW281635  10.207  12.173   1.920
26580SOL     OW81636  11.123  14.325   6.356
26580SOL    HW181637  11.049  14.263   6.353
26580SOL    HW281638  11.086  14.404   6.397
26581SOL     OW81639   9.478   0.858   3.794
26581SOL    HW181640   9.429   0.905   3.726
26581SOL    HW281641   9.520   0.786   3.749
26582SOL     OW81642  10.943   4.482   0.358
26582SOL    HW181643  11.016   4.526   0.402
26582SOL    HW281644  10.873   4.481   0.423
26583SOL     OW81645  14.211   7.239  10.439
26583SOL    HW181646  14.201   7.327  10.476
26583SOL    HW281647  14.179   7.180  10.508
26584SOL     OW81648  10.403  14.147   1.943
26584SOL    HW181649  10.408  14.093   2.022
26584SOL    HW281650  10.400  14.237   1.974
26585SOL     OW81651   5.049   9.440  11.660
26585SOL    HW181652   4.965   9.446  11.615
26585SOL    HW281653   5.107   9.500  11.613
26586SOL     OW81654  14.071   6.204   5.456
26586SOL    HW181655  14.093   6.292   5.486
26586SOL    HW281656  14.157   6.163   5.440
26587SOL     OW81657   2.610  10.364   7.133
26587SOL    HW181658   2.530  10.314   7.147
26587SOL    HW281659   2.657  10.316   7.065
26588SOL     OW81660   0.185  12.375   4.127
26588SOL    HW181661   0.267  12.339   4.161
26588SOL    HW281662   0.140  12.407   4.204
26589SOL     OW81663   0.863   2.982  10.269
26589SOL    HW181664   0.921   3.052  10.239
26589SOL    HW281665   0.790   2.982  10.208
26590SOL     OW81666  13.789   9.237   8.931
26590SOL    HW181667  13.796   9.170   9.000
26590SOL    HW281668  13.739   9.195   8.862
26591SOL     OW81669   3.545  10.295   9.444
26591SOL    HW181670   3.588  10.221   9.402
26591SOL    HW281671   3.479  10.255   9.501
26592SOL     OW81672  14.392  10.658   3.799
26592SOL    HW181673  14.421  10.654   3.708
26592SOL    HW281674  14.441  10.732   3.836
26593SOL     OW81675   4.015   5.195   7.501
26593SOL    HW181676   4.019   5.192   7.405
26593SOL    HW281677   3.983   5.283   7.520
26594SOL     OW81678   4.166   1.553   6.459
26594SOL    HW181679   4.160   1.571   6.553
26594SOL    HW281680   4.215   1.627   6.423
26595SOL     OW81681   1.926   3.003   1.939
26595SOL    HW181682   1.853   3.058   1.969
26595SOL    HW281683   1.889   2.914   1.936
26596SOL     OW81684   6.881  13.704  12.289
26596SOL    HW181685   6.853  13.622  12.250
26596SOL    HW281686   6.804  13.737  12.335
26597SOL     OW81687  14.333   7.640   3.064
26597SOL    HW181688  14.363   7.695   3.135
26597SOL    HW281689  14.374   7.677   2.985
26598SOL     OW81690   5.204  12.147   2.796
26598SOL    HW181691   5.203  12.236   2.759
26598SOL    HW281692   5.202  12.089   2.720
26599SOL     OW81693  11.020  11.558  11.611
26599SOL    HW181694  11.041  11.465  11.599
26599SOL    HW281695  10.940  11.558  11.663
26600SOL     OW81696   9.002   3.720   3.656
26600SOL    HW181697   8.913   3.732   3.688
26600SOL    HW281698   9.056   3.777   3.711
26601SOL     OW81699   7.836  10.515  13.120
26601SOL    HW181700   7.785  10.524  13.201
26601SOL    HW281701   7.872  10.427  13.124
26602SOL     OW81702   0.205   2.258  14.037
26602SOL    HW181703   0.285   2.232  13.992
26602SOL    HW281704   0.180   2.180  14.087
26603SOL     OW81705  11.692  10.041  14.298
26603SOL    HW181706  11.728  10.039  14.387
26603SOL    HW281707  11.721   9.958  14.259
26604SOL     OW81708   8.370  13.902  14.839
26604SOL    HW181709   8.333  13.989  14.827
26604SOL    HW281710   8.399  13.901   0.058
26605SOL     OW81711   1.388   3.388   3.224
26605SOL    HW181712   1.387   3.341   3.141
26605SOL    HW281713   1.479   3.410   3.238
26606SOL     OW81714   0.784   6.321   9.413
26606SOL    HW181715   0.872   6.314   9.376
26606SOL    HW281716   0.798   6.314   9.508
26607SOL     OW81717   7.267  13.004  13.506
26607SOL    HW181718   7.327  13.049  13.566
26607SOL    HW281719   7.230  12.933  13.559
26608SOL     OW81720  10.662   3.428  12.646
26608SOL    HW181721  10.751   3.447  12.617
26608SOL    HW281722  10.609   3.431  12.567
26609SOL     OW81723  13.779  14.414   7.054
26609SOL    HW181724  13.761  14.375   7.140
26609SOL    HW281725  13.872  14.435   7.057
26610SOL     OW81726  12.420   6.238  13.210
26610SOL    HW181727  12.445   6.156  13.252
26610SOL    HW281728  12.327   6.227  13.190
26611SOL     OW81729   8.437   0.337  12.154
26611SOL    HW181730   8.451   0.284  12.232
26611SOL    HW281731   8.415   0.424  12.188
26612SOL     OW81732   8.374   9.523   6.650
26612SOL    HW181733   8.290   9.563   6.673
26612SOL    HW281734   8.353   9.431   6.638
26613SOL     OW81735   7.908  14.064   9.729
26613SOL    HW181736   7.905  13.968   9.738
26613SOL    HW281737   7.860  14.097   9.804
26614SOL     OW81738   7.656   3.088  12.509
26614SOL    HW181739   7.741   3.073  12.550
26614SOL    HW281740   7.620   3.163  12.555
26615SOL     OW81741   3.153  14.462  11.799
26615SOL    HW181742   3.190  14.429  11.881
26615SOL    HW281743   3.223  14.451  11.735
26616SOL     OW81744  14.422   1.306   6.989
26616SOL    HW181745  14.416   1.268   7.077
26616SOL    HW281746  14.516   1.309   6.971
26617SOL     OW81747  12.917   3.298   2.807
26617SOL    HW181748  12.950   3.227   2.751
26617SOL    HW281749  12.849   3.257   2.860
26618SOL     OW81750   4.676   3.306  14.221
26618SOL    HW181751   4.668   3.388  14.172
26618SOL    HW281752   4.644   3.328  14.309
26619SOL     OW81753   3.237   3.192  12.871
26619SOL    HW181754   3.194   3.182  12.956
26619SOL    HW281755   3.304   3.259  12.886
26620SOL     OW81756   6.809   6.477   4.011
26620SOL    HW181757   6.801   6.386   3.982
26620SOL    HW281758   6.856   6.472   4.094
26621SOL     OW81759   1.812  13.587   2.156
26621SOL    HW181760   1.876  13.601   2.225
26621SOL    HW281761   1.734  13.634   2.185
26622SOL     OW81762   1.464   1.681  14.822
26622SOL    HW181763   1.454   1.606  14.763
26622SOL    HW281764   1.470   1.642   0.037
26623SOL     OW81765  13.928  12.915   0.761
26623SOL    HW181766  13.918  12.909   0.856
26623SOL    HW281767  13.982  12.993   0.747
26624SOL     OW81768   5.150   0.331  14.327
26624SOL    HW181769   5.098   0.263  14.284
26624SOL    HW281770   5.238   0.294  14.333
26625SOL     OW81771   6.180   8.546   0.858
26625SOL    HW181772   6.180   8.574   0.949
26625SOL    HW281773   6.111   8.480   0.852
26626SOL     OW81774  13.777   5.962   4.268
26626SOL    HW181775  13.760   5.868   4.270
26626SOL    HW281776  13.772   5.985   4.175
26627SOL     OW81777   3.894   7.864   1.916
26627SOL    HW181778   3.815   7.869   1.970
26627SOL    HW281779   3.966   7.861   1.979
26628SOL     OW81780   4.453  13.314  11.819
26628SOL    HW181781   4.480  13.267  11.898
26628SOL    HW281782   4.358  13.321  11.827
26629SOL     OW81783  12.607   4.499   4.455
26629SOL    HW181784  12.680   4.560   4.467
26629SOL    HW281785  12.646   4.423   4.413
26630SOL     OW81786   9.309  12.408   5.489
26630SOL    HW181787   9.252  12.482   5.508
26630SOL    HW281788   9.271  12.369   5.410
26631SOL     OW81789   8.180  12.995  13.939
26631SOL    HW181790   8.237  12.919  13.926
26631SOL    HW281791   8.221  13.044  14.010
26632SOL     OW81792   5.427  10.418   5.405
26632SOL    HW181793   5.458  10.444   5.492
26632SOL    HW281794   5.473  10.337   5.386
26633SOL     OW81795   5.151  10.549   8.427
26633SOL    HW181796   5.056  10.544   8.425
26633SOL    HW281797   5.180  10.458   8.420
26634SOL     OW81798  13.443   0.871  14.333
26634SOL    HW181799  13.470   0.794  14.384
26634SOL    HW281800  13.349   0.858  14.319
26635SOL     OW81801   4.373   9.408   9.291
26635SOL    HW181802   4.440   9.378   9.230
26635SOL    HW281803   4.301   9.346   9.281
26636SOL     OW81804   2.639   9.834   2.513
26636SOL    HW181805   2.573   9.792   2.457
26636SOL    HW281806   2.704   9.868   2.452
26637SOL     OW81807   2.071  13.811  10.668
26637SOL    HW181808   2.112  13.724  10.664
26637SOL    HW281809   2.031  13.822  10.581
26638SOL     OW81810   2.632   6.916  12.986
26638SOL    HW181811   2.573   6.929  13.060
26638SOL    HW281812   2.601   6.978  12.920
26639SOL     OW81813  14.283   1.958   0.243
26639SOL    HW181814  14.373   1.944   0.216
26639SOL    HW281815  14.233   1.955   0.161
26640SOL     OW81816   6.072   2.943   6.741
26640SOL    HW181817   6.056   2.896   6.659
26640SOL    HW281818   6.166   2.934   6.755
26641SOL     OW81819  10.870   6.908   3.651
26641SOL    HW181820  10.958   6.945   3.654
26641SOL    HW281821  10.881   6.822   3.610
26642SOL     OW81822   9.457   3.896   1.103
26642SOL    HW181823   9.374   3.906   1.149
26642SOL    HW281824   9.488   3.986   1.089
26643SOL     OW81825   9.057   1.406  12.428
26643SOL    HW181826   9.037   1.317  12.399
26643SOL    HW281827   9.148   1.402  12.457
26644SOL     OW81828  14.703   1.601   1.578
26644SOL    HW181829  14.693   1.609   1.673
26644SOL    HW281830  14.613   1.608   1.545
26645SOL     OW81831  10.822   2.588   0.091
26645SOL    HW181832  10.882   2.553   0.025
26645SOL    HW281833  10.745   2.531   0.086
26646SOL     OW81834   9.172   2.483  13.409
26646SOL    HW181835   9.221   2.429  13.472
26646SOL    HW281836   9.238   2.510  13.345
26647SOL     OW81837  11.523  12.028   1.445
26647SOL    HW181838  11.448  12.077   1.412
26647SOL    HW281839  11.508  11.938   1.416
26648SOL     OW81840  12.215   2.454   4.642
26648SOL    HW181841  12.308   2.473   4.634
26648SOL    HW281842  12.208   2.407   4.725
26649SOL     OW81843   6.024  12.584   9.448
26649SOL    HW181844   6.095  12.534   9.489
26649SOL    HW281845   5.990  12.639   9.519
26650SOL     OW81846  11.421   1.679   0.709
26650SOL    HW181847  11.424   1.688   0.613
26650SOL    HW281848  11.465   1.757   0.742
26651SOL     OW81849   3.960  13.275   8.197
26651SOL    HW181850   4.013  13.321   8.131
26651SOL    HW281851   3.872  13.272   8.159
26652SOL     OW81852   1.785   1.489   4.228
26652SOL    HW181853   1.761   1.558   4.166
26652SOL    HW281854   1.703   1.466   4.271
26653SOL     OW81855   6.160   8.126  11.446
26653SOL    HW181856   6.193   8.118  11.535
26653SOL    HW281857   6.115   8.042  11.430
26654SOL     OW81858  12.239   2.529   2.400
26654SOL    HW181859  12.277   2.544   2.313
26654SOL    HW281860  12.170   2.465   2.385
26655SOL     OW81861  14.503   1.502   7.275
26655SOL    HW181862  14.417   1.481   7.312
26655SOL    HW281863  14.553   1.421   7.282
26656SOL     OW81864   7.379   6.004   4.992
26656SOL    HW181865   7.458   6.045   4.957
26656SOL    HW281866   7.324   6.078   5.020
26657SOL     OW81867   2.504  14.697   6.504
26657SOL    HW181868   2.431  14.716   6.445
26657SOL    HW281869   2.577  14.673   6.447
26658SOL     OW81870   0.688   3.713  13.635
26658SOL    HW181871   0.598   3.745  13.634
26658SOL    HW281872   0.734   3.770  13.573
26659SOL     OW81873   1.350   0.818   0.636
26659SOL    HW181874   1.292   0.824   0.559
26659SOL    HW281875   1.385   0.906   0.646
26660SOL     OW81876   0.206  12.848   6.666
26660SOL    HW181877   0.231  12.941   6.656
26660SOL    HW281878   0.234  12.808   6.584
26661SOL     OW81879   2.466  14.293   8.728
26661SOL    HW181880   2.552  14.258   8.705
26661SOL    HW281881   2.475  14.388   8.719
26662SOL     OW81882   8.424  13.367   2.545
26662SOL    HW181883   8.417  13.280   2.505
26662SOL    HW281884   8.358  13.368   2.613
26663SOL     OW81885  13.217  11.813   0.355
26663SOL    HW181886  13.163  11.741   0.386
26663SOL    HW281887  13.157  11.888   0.350
26664SOL     OW81888   7.273  12.787  12.442
26664SOL    HW181889   7.220  12.716  12.406
26664SOL    HW281890   7.294  12.759  12.531
26665SOL     OW81891  14.455  11.804   0.349
26665SOL    HW181892  14.376  11.785   0.297
26665SOL    HW281893  14.518  11.837   0.285
26666SOL     OW81894   2.159   5.254   4.041
26666SOL    HW181895   2.194   5.300   3.965
26666SOL    HW281896   2.068   5.237   4.019
26667SOL     OW81897  13.946   6.728   5.893
26667SOL    HW181898  14.039   6.723   5.915
26667SOL    HW281899  13.939   6.806   5.837
26668SOL     OW81900   1.395   9.717  12.763
26668SOL    HW181901   1.303   9.691  12.758
26668SOL    HW281902   1.395   9.798  12.813
26669SOL     OW81903   8.501   9.811   8.834
26669SOL    HW181904   8.509   9.841   8.743
26669SOL    HW281905   8.579   9.845   8.878
26670SOL     OW81906   6.133  13.053   1.072
26670SOL    HW181907   6.043  13.080   1.092
26670SOL    HW281908   6.181  13.135   1.062
26671SOL     OW81909   9.010  11.720  11.165
26671SOL    HW181910   8.971  11.644  11.122
26671SOL    HW281911   9.049  11.686  11.245
26672SOL     OW81912   3.094   9.112   2.777
26672SOL    HW181913   3.014   9.089   2.825
26672SOL    HW281914   3.161   9.119   2.845
26673SOL     OW81915   2.223   3.102   7.656
26673SOL    HW181916   2.243   3.168   7.590
26673SOL    HW281917   2.304   3.094   7.707
26674SOL     OW81918  11.192   3.325   9.000
26674SOL    HW181919  11.163   3.382   9.071
26674SOL    HW281920  11.278   3.293   9.029
26675SOL     OW81921   1.728   2.634  12.713
26675SOL    HW181922   1.806   2.683  12.690
26675SOL    HW281923   1.759   2.567  12.775
26676SOL     OW81924   8.779  13.019   2.649
26676SOL    HW181925   8.860  12.968   2.636
26676SOL    HW281926   8.753  13.000   2.739
26677SOL     OW81927  12.846  10.898  14.264
26677SOL    HW181928  12.913  10.966  14.254
26677SOL    HW281929  12.789  10.930  14.334
26678SOL     OW81930   3.510   5.002   4.767
26678SOL    HW181931   3.569   5.065   4.809
26678SOL    HW281932   3.465   5.053   4.700
26679SOL     OW81933  10.390   2.777   6.885
26679SOL    HW181934  10.473   2.731   6.871
26679SOL    HW281935  10.403   2.827   6.966
26680SOL     OW81936  13.452  13.417   6.978
26680SOL    HW181937  13.381  13.475   7.006
26680SOL    HW281938  13.407  13.341   6.940
26681SOL     OW81939   0.379  14.848   1.062
26681SOL    HW181940   0.396   0.026   1.142
26681SOL    HW281941   0.409   0.032   0.991
26682SOL     OW81942   4.848   6.996   0.251
26682SOL    HW181943   4.912   7.053   0.208
26682SOL    HW281944   4.763   7.026   0.219
26683SOL     OW81945   6.784   8.635  10.358
26683SOL    HW181946   6.788   8.662  10.450
26683SOL    HW281947   6.755   8.714  10.311
26684SOL     OW81948  10.601  13.259   9.657
26684SOL    HW181949  10.664  13.323   9.689
26684SOL    HW281950  10.517  13.303   9.661
26685SOL     OW81951  13.232   1.864   6.783
26685SOL    HW181952  13.287   1.805   6.834
26685SOL    HW281953  13.240   1.949   6.827
26686SOL     OW81954  11.073   1.749  10.773
26686SOL    HW181955  11.091   1.828  10.822
26686SOL    HW281956  11.014   1.777  10.702
26687SOL     OW81957   5.331   5.367   5.909
26687SOL    HW181958   5.348   5.446   5.960
26687SOL    HW281959   5.315   5.299   5.974
26688SOL     OW81960   4.346  11.087  14.729
26688SOL    HW181961   4.393  11.030  14.789
26688SOL    HW281962   4.298  11.147  14.786
26689SOL     OW81963   0.907   2.262   0.100
26689SOL    HW181964   0.949   2.221   0.024
26689SOL    HW281965   0.871   2.343   0.066
26690SOL     OW81966   9.448   1.955   1.325
26690SOL    HW181967   9.400   1.934   1.405
26690SOL    HW281968   9.504   1.879   1.309
26691SOL     OW81969   3.198   6.663   1.090
26691SOL    HW181970   3.247   6.718   1.151
26691SOL    HW281971   3.263   6.634   1.026
26692SOL     OW81972  14.478   8.958   1.404
26692SOL    HW181973  14.471   9.040   1.454
26692SOL    HW281974  14.401   8.908   1.430
26693SOL     OW81975  12.436   4.422  11.185
26693SOL    HW181976  12.382   4.426  11.107
26693SOL    HW281977  12.480   4.337  11.180
26694SOL     OW81978  12.095   0.070   5.415
26694SOL    HW181979  12.166   0.067   5.479
26694SOL    HW281980  12.016   0.079   5.468
26695SOL     OW81981   5.313  13.800  13.993
26695SOL    HW181982   5.260  13.722  14.012
26695SOL    HW281983   5.249  13.871  13.984
26696SOL     OW81984   8.373   2.504   9.638
26696SOL    HW181985   8.321   2.425   9.654
26696SOL    HW281986   8.331   2.545   9.563
26697SOL     OW81987  14.861   2.552   6.052
26697SOL    HW181988  14.859   2.533   6.145
26697SOL    HW281989   0.061   2.498   6.018
26698SOL     OW81990   3.381   8.100  12.419
26698SOL    HW181991   3.440   8.103  12.343
26698SOL    HW281992   3.432   8.139  12.490
26699SOL     OW81993   4.117   4.576   2.813
26699SOL    HW181994   4.092   4.602   2.725
26699SOL    HW281995   4.114   4.481   2.813
26700SOL     OW81996  10.595  11.690   6.380
26700SOL    HW181997  10.595  11.784   6.397
26700SOL    HW281998  10.647  11.653   6.451
26701SOL     OW81999   2.521   5.587   9.036
26701SOL    HW182000   2.449   5.644   9.062
26701SOL    HW282001   2.479   5.503   9.015
26702SOL     OW82002   0.275   3.906   7.704
26702SOL    HW182003   0.291   3.937   7.615
26702SOL    HW282004   0.326   3.965   7.759
26703SOL     OW82005  14.465   3.202   4.796
26703SOL    HW182006  14.462   3.107   4.807
26703SOL    HW282007  14.556   3.220   4.772
26704SOL     OW82008   3.521   0.378   9.642
26704SOL    HW182009   3.576   0.382   9.564
26704SOL    HW282010   3.576   0.415   9.711
26705SOL     OW82011  14.438   8.217   2.988
26705SOL    HW182012  14.458   8.228   3.081
26705SOL    HW282013  14.423   8.123   2.978
26706SOL     OW82014  10.911   9.824   6.637
26706SOL    HW182015  10.838   9.771   6.667
26706SOL    HW282016  10.870   9.900   6.595
26707SOL     OW82017   9.842  11.372   9.599
26707SOL    HW182018   9.759  11.385   9.644
26707SOL    HW282019   9.831  11.289   9.552
26708SOL     OW82020   3.312   0.870  10.082
26708SOL    HW182021   3.273   0.822  10.155
26708SOL    HW282022   3.241   0.924  10.048
26709SOL     OW82023   0.171   8.459   5.095
26709SOL    HW182024   0.166   8.373   5.053
26709SOL    HW282025   0.169   8.439   5.189
26710SOL     OW82026   6.703  10.598   0.215
26710SOL    HW182027   6.615  10.573   0.186
26710SOL    HW282028   6.745  10.515   0.237
26711SOL     OW82029   6.788   2.616   6.860
26711SOL    HW182030   6.803   2.652   6.772
26711SOL    HW282031   6.697   2.585   6.857
26712SOL     OW82032   4.325   3.210   3.337
26712SOL    HW182033   4.393   3.154   3.374
26712SOL    HW282034   4.344   3.297   3.374
26713SOL     OW82035   1.495   1.421   6.287
26713SOL    HW182036   1.570   1.382   6.243
26713SOL    HW282037   1.425   1.419   6.221
26714SOL     OW82038   1.996   5.329   7.898
26714SOL    HW182039   1.907   5.356   7.919
26714SOL    HW282040   2.047   5.410   7.900
26715SOL     OW82041   4.420   6.795  11.460
26715SOL    HW182042   4.378   6.858  11.518
26715SOL    HW282043   4.373   6.803  11.377
26716SOL     OW82044  14.535   8.278   3.257
26716SOL    HW182045  14.563   8.343   3.192
26716SOL    HW282046  14.614   8.228   3.276
26717SOL     OW82047  12.558  12.529   2.643
26717SOL    HW182048  12.620  12.489   2.704
26717SOL    HW282049  12.605  12.536   2.560
26718SOL     OW82050   5.527   9.766   7.746
26718SOL    HW182051   5.541   9.682   7.702
26718SOL    HW282052   5.488   9.743   7.830
26719SOL     OW82053   6.943   0.010   1.325
26719SOL    HW182054   6.867   0.062   1.300
26719SOL    HW282055   6.944  14.809   1.263
26720SOL     OW82056  14.575   4.848   2.518
26720SOL    HW182057  14.629   4.772   2.534
26720SOL    HW282058  14.630   4.907   2.467
26721SOL     OW82059   6.906   9.096   4.162
26721SOL    HW182060   6.830   9.106   4.219
26721SOL    HW282061   6.971   9.158   4.197
26722SOL     OW82062  10.195   7.719   5.619
26722SOL    HW182063  10.244   7.709   5.538
26722SOL    HW282064  10.213   7.809   5.647
26723SOL     OW82065  12.359   3.488   6.958
26723SOL    HW182066  12.367   3.445   6.872
26723SOL    HW282067  12.446   3.522   6.975
26724SOL     OW82068  13.577   0.239  10.135
26724SOL    HW182069  13.654   0.281  10.173
26724SOL    HW282070  13.543   0.183  10.205
26725SOL     OW82071  10.759   9.875   8.949
26725SOL    HW182072  10.681   9.929   8.959
26725SOL    HW282073  10.816   9.926   8.890
26726SOL     OW82074   9.272  11.590   9.286
26726SOL    HW182075   9.265  11.624   9.376
26726SOL    HW282076   9.283  11.668   9.232
26727SOL     OW82077  12.695   5.003   6.409
26727SOL    HW182078  12.618   5.018   6.463
26727SOL    HW282079  12.661   4.958   6.331
26728SOL     OW82080  11.484  12.792   8.038
26728SOL    HW182081  11.437  12.830   7.964
26728SOL    HW282082  11.566  12.840   8.042
26729SOL     OW82083   7.473  13.949   3.313
26729SOL    HW182084   7.396  14.003   3.328
26729SOL    HW282085   7.485  13.900   3.394
26730SOL     OW82086   9.254  10.413   1.976
26730SOL    HW182087   9.195  10.394   1.902
26730SOL    HW282088   9.220  10.361   2.048
26731SOL     OW82089   3.592   0.894   2.062
26731SOL    HW182090   3.500   0.918   2.072
26731SOL    HW282091   3.594   0.837   1.986
26732SOL     OW82092   5.180  14.060   8.984
26732SOL    HW182093   5.259  14.074   8.931
26732SOL    HW282094   5.114  14.117   8.945
26733SOL     OW82095  13.446   4.448   7.225
26733SOL    HW182096  13.520   4.435   7.165
26733SOL    HW282097  13.444   4.543   7.239
26734SOL     OW82098   5.525   5.888   6.807
26734SOL    HW182099   5.459   5.954   6.828
26734SOL    HW282100   5.502   5.858   6.719
26735SOL     OW82101   1.030   7.915   5.496
26735SOL    HW182102   1.077   7.835   5.521
26735SOL    HW282103   0.938   7.890   5.495
26736SOL     OW82104   3.437  12.339   3.112
26736SOL    HW182105   3.453  12.353   3.019
26736SOL    HW282106   3.374  12.267   3.115
26737SOL     OW82107   0.557   0.965   8.619
26737SOL    HW182108   0.529   1.050   8.585
26737SOL    HW282109   0.503   0.951   8.696
26738SOL     OW82110  10.777   2.580  14.063
26738SOL    HW182111  10.862   2.575  14.105
26738SOL    HW282112  10.777   2.665  14.020
26739SOL     OW82113   5.161  14.318   6.292
26739SOL    HW182114   5.206  14.396   6.260
26739SOL    HW282115   5.220  14.283   6.360
26740SOL     OW82116   3.651   1.778  12.440
26740SOL    HW182117   3.736   1.750  12.472
26740SOL    HW282118   3.669   1.860  12.393
26741SOL     OW82119   2.623   0.330  12.530
26741SOL    HW182120   2.660   0.299  12.447
26741SOL    HW282121   2.536   0.362  12.508
26742SOL     OW82122   2.110   4.171   5.130
26742SOL    HW182123   2.070   4.144   5.213
26742SOL    HW282124   2.139   4.089   5.090
26743SOL     OW82125   7.461   8.794  14.441
26743SOL    HW182126   7.435   8.764  14.354
26743SOL    HW282127   7.543   8.842  14.427
26744SOL     OW82128  12.937   5.786  10.578
26744SOL    HW182129  12.970   5.707  10.620
26744SOL    HW282130  12.851   5.801  10.618
26745SOL     OW82131  12.427  10.552  10.425
26745SOL    HW182132  12.412  10.494  10.350
26745SOL    HW282133  12.498  10.610  10.396
26746SOL     OW82134   3.997   3.025   8.314
26746SOL    HW182135   3.940   2.949   8.305
26746SOL    HW282136   4.014   3.031   8.408
26747SOL     OW82137   2.658   3.594  13.527
26747SOL    HW182138   2.597   3.527  13.558
26747SOL    HW282139   2.702   3.625  13.606
26748SOL     OW82140  13.050  12.724   3.568
26748SOL    HW182141  13.056  12.765   3.654
26748SOL    HW282142  12.990  12.651   3.579
26749SOL     OW82143   9.901   4.718  13.405
26749SOL    HW182144   9.881   4.804  13.369
26749SOL    HW282145   9.877   4.657  13.335
26750SOL     OW82146   8.476   6.436   3.978
26750SOL    HW182147   8.500   6.347   4.003
26750SOL    HW282148   8.384   6.443   4.000
26751SOL     OW82149   4.673  11.713   5.696
26751SOL    HW182150   4.587  11.712   5.737
26751SOL    HW282151   4.656  11.707   5.602
26752SOL     OW82152   9.925   5.588   2.579
26752SOL    HW182153   9.897   5.668   2.533
26752SOL    HW282154  10.006   5.563   2.536
26753SOL     OW82155   4.746   2.878  14.512
26753SOL    HW182156   4.736   2.831  14.595
26753SOL    HW282157   4.658   2.907  14.490
26754SOL     OW82158   6.174  13.251   7.153
26754SOL    HW182159   6.152  13.327   7.099
26754SOL    HW282160   6.172  13.285   7.243
26755SOL     OW82161   9.311  13.130  14.806
26755SOL    HW182162   9.256  13.132   0.012
26755SOL    HW282163   9.394  13.095  14.837
26756SOL     OW82164   6.841  10.064  12.594
26756SOL    HW182165   6.881   9.995  12.542
26756SOL    HW282166   6.794  10.118  12.531
26757SOL     OW82167   0.698  10.945  12.384
26757SOL    HW182168   0.664  10.872  12.332
26757SOL    HW282169   0.700  11.018  12.322
26758SOL     OW82170   3.563   2.834   0.927
26758SOL    HW182171   3.612   2.756   0.952
26758SOL    HW282172   3.625   2.906   0.937
26759SOL     OW82173   0.954   9.816  10.853
26759SOL    HW182174   1.044   9.848  10.863
26759SOL    HW282175   0.903   9.868  10.915
26760SOL     OW82176  13.782  12.472   1.173
26760SOL    HW182177  13.774  12.441   1.263
26760SOL    HW282178  13.692  12.491   1.147
26761SOL     OW82179  11.428  10.396   2.846
26761SOL    HW182180  11.397  10.314   2.807
26761SOL    HW282181  11.351  10.454   2.843
26762SOL     OW82182   6.075  12.338  10.304
26762SOL    HW182183   6.005  12.302  10.359
26762SOL    HW282184   6.080  12.430  10.329
26763SOL     OW82185  14.603   2.456  14.177
26763SOL    HW182186  14.684   2.490  14.214
26763SOL    HW282187  14.600   2.364  14.204
26764SOL     OW82188  14.051   3.437   9.043
26764SOL    HW182189  14.115   3.366   9.051
26764SOL    HW282190  13.998   3.432   9.123
26765SOL     OW82191   8.359   2.420   8.323
26765SOL    HW182192   8.287   2.358   8.313
26765SOL    HW282193   8.400   2.424   8.237
26766SOL     OW82194   1.298  13.375  11.920
26766SOL    HW182195   1.229  13.430  11.883
26766SOL    HW282196   1.259  13.336  11.998
26767SOL     OW82197  13.294   6.367   9.596
26767SOL    HW182198  13.277   6.284   9.639
26767SOL    HW282199  13.296   6.431   9.667
26768SOL     OW82200  10.243  12.364  14.506
26768SOL    HW182201  10.256  12.287  14.450
26768SOL    HW282202  10.259  12.439  14.448
26769SOL     OW82203  12.661   1.211   5.780
26769SOL    HW182204  12.689   1.131   5.736
26769SOL    HW282205  12.569   1.195   5.802
26770SOL     OW82206   7.904  14.844   9.293
26770SOL    HW182207   7.872   0.030   9.224
26770SOL    HW282208   7.842  14.772   9.294
26771SOL     OW82209  12.866   1.546  10.190
26771SOL    HW182210  12.796   1.481  10.188
26771SOL    HW282211  12.889   1.561  10.099
26772SOL     OW82212  11.802   3.562  13.906
26772SOL    HW182213  11.827   3.470  13.914
26772SOL    HW282214  11.834   3.588  13.819
26773SOL     OW82215   5.880  13.537   2.302
26773SOL    HW182216   5.907  13.461   2.251
26773SOL    HW282217   5.963  13.581   2.323
26774SOL     OW82218   5.063   5.392   8.782
26774SOL    HW182219   5.001   5.463   8.800
26774SOL    HW282220   5.109   5.379   8.865
26775SOL     OW82221   1.026  10.763   0.514
26775SOL    HW182222   1.031  10.826   0.586
26775SOL    HW282223   0.937  10.728   0.519
26776SOL     OW82224   4.445  10.319  13.115
26776SOL    HW182225   4.397  10.361  13.186
26776SOL    HW282226   4.472  10.391  13.059
26777SOL     OW82227   6.576  10.595  13.100
26777SOL    HW182228   6.586  10.594  13.005
26777SOL    HW282229   6.632  10.666  13.129
26778SOL     OW82230   8.355   2.407   7.464
26778SOL    HW182231   8.299   2.373   7.394
26778SOL    HW282232   8.437   2.430   7.420
26779SOL     OW82233   3.107   1.967  11.152
26779SOL    HW182234   3.147   2.054  11.153
26779SOL    HW282235   3.181   1.906  11.150
26780SOL     OW82236   4.994  13.014  12.264
26780SOL    HW182237   5.035  13.094  12.296
26780SOL    HW282238   5.067  12.952  12.254
26781SOL     OW82239  14.673   7.488   0.844
26781SOL    HW182240  14.590   7.502   0.889
26781SOL    HW282241  14.653   7.423   0.777
26782SOL     OW82242   0.158  13.463  11.666
26782SOL    HW182243   0.206  13.444  11.747
26782SOL    HW282244   0.122  13.551  11.680
26783SOL     OW82245   3.857   5.084   8.715
26783SOL    HW182246   3.803   5.153   8.753
26783SOL    HW282247   3.874   5.113   8.625
26784SOL     OW82248  14.356  11.636   5.755
26784SOL    HW182249  14.325  11.713   5.707
26784SOL    HW282250  14.416  11.672   5.820
26785SOL     OW82251   3.252  13.704   8.580
26785SOL    HW182252   3.254  13.735   8.671
26785SOL    HW282253   3.321  13.637   8.576
26786SOL     OW82254  13.634   7.929   8.350
26786SOL    HW182255  13.723   7.941   8.382
26786SOL    HW282256  13.591   8.012   8.366
26787SOL     OW82257   5.863   6.909   3.273
26787SOL    HW182258   5.780   6.880   3.309
26787SOL    HW282259   5.843   6.992   3.228
26788SOL     OW82260   4.986  14.235   1.571
26788SOL    HW182261   4.925  14.298   1.611
26788SOL    HW282262   4.963  14.151   1.610
26789SOL     OW82263   5.114   3.485   4.820
26789SOL    HW182264   5.192   3.523   4.781
26789SOL    HW282265   5.135   3.475   4.913
26790SOL     OW82266   3.665  13.044   5.888
26790SOL    HW182267   3.702  13.123   5.850
26790SOL    HW282268   3.580  13.034   5.846
26791SOL     OW82269   0.866  14.249   4.238
26791SOL    HW182270   0.893  14.248   4.330
26791SOL    HW282271   0.778  14.288   4.239
26792SOL     OW82272   5.023   2.365   0.010
26792SOL    HW182273   5.110   2.341  14.851
26792SOL    HW282274   5.037   2.444   0.061
26793SOL     OW82275  12.667  11.150   8.397
26793SOL    HW182276  12.745  11.180   8.350
26793SOL    HW282277  12.597  11.206   8.364
26794SOL     OW82278   7.578   3.146   6.503
26794SOL    HW182279   7.588   3.197   6.584
26794SOL    HW282280   7.539   3.063   6.531
26795SOL     OW82281  14.235   8.664  12.769
26795SOL    HW182282  14.203   8.754  12.769
26795SOL    HW282283  14.219   8.633  12.858
26796SOL     OW82284   1.796   5.885   6.177
26796SOL    HW182285   1.722   5.904   6.234
26796SOL    HW282286   1.774   5.929   6.094
26797SOL     OW82287   3.996   9.965   0.165
26797SOL    HW182288   3.941  10.042   0.154
26797SOL    HW282289   4.085   9.998   0.155
26798SOL     OW82290  10.576   3.380   0.759
26798SOL    HW182291  10.602   3.292   0.788
26798SOL    HW282292  10.566   3.430   0.840
26799SOL     OW82293   3.817   6.835   3.548
26799SOL    HW182294   3.832   6.781   3.470
26799SOL    HW282295   3.797   6.922   3.514
26800SOL     OW82296   9.299   7.540   3.409
26800SOL    HW182297   9.302   7.634   3.426
26800SOL    HW282298   9.217   7.511   3.448
26801SOL     OW82299   4.973  11.427   7.212
26801SOL    HW182300   5.029  11.383   7.148
26801SOL    HW282301   4.887  11.386   7.200
26802SOL     OW82302  10.747   1.255   7.421
26802SOL    HW182303  10.822   1.275   7.365
26802SOL    HW282304  10.740   1.160   7.418
26803SOL     OW82305   6.937  12.459  10.231
26803SOL    HW182306   6.966  12.368  10.240
26803SOL    HW282307   7.002  12.510  10.278
26804SOL     OW82308   1.188   8.624   3.145
26804SOL    HW182309   1.194   8.687   3.216
26804SOL    HW282310   1.096   8.599   3.142
26805SOL     OW82311   2.086   3.925   1.400
26805SOL    HW182312   2.030   3.938   1.476
26805SOL    HW282313   2.104   3.831   1.399
26806SOL     OW82314   6.678   4.784   0.478
26806SOL    HW182315   6.745   4.849   0.502
26806SOL    HW282316   6.687   4.715   0.544
26807SOL     OW82317   5.237   2.022   2.967
26807SOL    HW182318   5.315   2.077   2.961
26807SOL    HW282319   5.172   2.067   2.914
26808SOL     OW82320   6.631  12.469   6.834
26808SOL    HW182321   6.598  12.422   6.758
26808SOL    HW282322   6.709  12.515   6.802
26809SOL     OW82323   3.265   9.069   6.122
26809SOL    HW182324   3.323   9.047   6.049
26809SOL    HW282325   3.245   8.985   6.163
26810SOL     OW82326   3.722  11.398   7.009
26810SOL    HW182327   3.765  11.318   6.979
26810SOL    HW282328   3.717  11.454   6.931
26811SOL     OW82329   2.423  10.768   2.782
26811SOL    HW182330   2.393  10.682   2.753
26811SOL    HW282331   2.491  10.749   2.846
26812SOL     OW82332  11.119   8.445   9.073
26812SOL    HW182333  11.058   8.379   9.107
26812SOL    HW282334  11.202   8.398   9.063
26813SOL     OW82335   0.568  12.075   4.467
26813SOL    HW182336   0.634  12.053   4.402
26813SOL    HW282337   0.597  12.029   4.546
26814SOL     OW82338   7.079   1.095   6.579
26814SOL    HW182339   7.170   1.065   6.583
26814SOL    HW282340   7.078   1.175   6.631
26815SOL     OW82341  11.084   0.730   6.613
26815SOL    HW182342  11.056   0.733   6.705
26815SOL    HW282343  11.015   0.681   6.568
26816SOL     OW82344   0.194  12.781   9.705
26816SOL    HW182345   0.242  12.797   9.786
26816SOL    HW282346   0.124  12.846   9.706
26817SOL     OW82347  14.242  11.046  12.380
26817SOL    HW182348  14.337  11.043  12.370
26817SOL    HW282349  14.216  10.955  12.389
26818SOL     OW82350   1.948   7.358   4.128
26818SOL    HW182351   1.974   7.415   4.056
26818SOL    HW282352   1.942   7.416   4.204
26819SOL     OW82353   1.085   6.589   7.369
26819SOL    HW182354   0.998   6.587   7.409
26819SOL    HW282355   1.142   6.548   7.434
26820SOL     OW82356   3.370   7.315   9.546
26820SOL    HW182357   3.371   7.265   9.464
26820SOL    HW282358   3.282   7.354   9.548
26821SOL     OW82359   3.966   5.244   4.538
26821SOL    HW182360   3.981   5.309   4.607
26821SOL    HW282361   3.986   5.290   4.457
26822SOL     OW82362   5.976  10.072   5.532
26822SOL    HW182363   5.969  10.011   5.606
26822SOL    HW282364   5.912  10.140   5.551
26823SOL     OW82365   1.040  14.345   7.441
26823SOL    HW182366   1.101  14.303   7.380
26823SOL    HW282367   1.094  14.371   7.515
26824SOL     OW82368   3.625   0.424  11.821
26824SOL    HW182369   3.695   0.409  11.886
26824SOL    HW282370   3.654   0.500  11.771
26825SOL     OW82371   4.959  14.152   5.750
26825SOL    HW182372   5.051  14.161   5.775
26825SOL    HW282373   4.962  14.106   5.666
26826SOL     OW82374  10.758   8.221  10.988
26826SOL    HW182375  10.815   8.225  11.064
26826SOL    HW282376  10.670   8.229  11.023
26827SOL     OW82377   8.439   5.868   5.555
26827SOL    HW182378   8.443   5.952   5.510
26827SOL    HW282379   8.511   5.817   5.518
26828SOL     OW82380  14.328   2.465   2.919
26828SOL    HW182381  14.344   2.550   2.877
26828SOL    HW282382  14.358   2.476   3.009
26829SOL     OW82383  12.923   9.750   0.109
26829SOL    HW182384  12.946   9.841   0.092
26829SOL    HW282385  12.861   9.727   0.039
26830SOL     OW82386   4.067   7.195   1.479
26830SOL    HW182387   4.055   7.102   1.460
26830SOL    HW282388   4.016   7.209   1.559
26831SOL     OW82389   8.956   5.311   6.841
26831SOL    HW182390   8.894   5.338   6.774
26831SOL    HW282391   9.029   5.273   6.793
26832SOL     OW82392   8.965   7.814   4.718
26832SOL    HW182393   8.909   7.891   4.727
26832SOL    HW282394   9.049   7.849   4.690
26833SOL     OW82395   5.123   5.358   0.662
26833SOL    HW182396   5.030   5.365   0.639
26833SOL    HW282397   5.128   5.280   0.718
26834SOL     OW82398   9.231   6.470   9.319
26834SOL    HW182399   9.147   6.515   9.327
26834SOL    HW282400   9.250   6.440   9.408
26835SOL     OW82401  13.184   9.207  14.355
26835SOL    HW182402  13.168   9.113  14.369
26835SOL    HW282403  13.111   9.236  14.301
26836SOL     OW82404   5.075   8.951   9.223
26836SOL    HW182405   5.044   8.953   9.314
26836SOL    HW282406   5.035   9.028   9.183
26837SOL     OW82407   1.706  10.716   6.676
26837SOL    HW182408   1.778  10.728   6.615
26837SOL    HW282409   1.736  10.647   6.736
26838SOL     OW82410   6.336  11.761   0.201
26838SOL    HW182411   6.397  11.732   0.268
26838SOL    HW282412   6.254  11.717   0.222
26839SOL     OW82413   8.498   4.991  11.522
26839SOL    HW182414   8.505   4.937  11.602
26839SOL    HW282415   8.520   4.931  11.451
26840SOL     OW82416   6.037   8.380   6.201
26840SOL    HW182417   6.043   8.303   6.145
26840SOL    HW282418   5.982   8.351   6.274
26841SOL     OW82419  13.513   3.166   7.019
26841SOL    HW182420  13.440   3.142   7.077
26841SOL    HW282421  13.494   3.123   6.936
26842SOL     OW82422   5.400  14.391   9.319
26842SOL    HW182423   5.324  14.348   9.357
26842SOL    HW282424   5.366  14.440   9.244
26843SOL     OW82425   1.037  11.586   3.976
26843SOL    HW182426   1.049  11.502   3.931
26843SOL    HW282427   0.944  11.606   3.966
26844SOL     OW82428   3.613   9.453   8.120
26844SOL    HW182429   3.607   9.435   8.026
26844SOL    HW282430   3.702   9.428   8.144
26845SOL     OW82431   5.241   2.998  12.204
26845SOL    HW182432   5.296   3.070  12.235
26845SOL    HW282433   5.217   2.950  12.283
26846SOL     OW82434   9.001   9.597  14.729
26846SOL    HW182435   8.913   9.580  14.697
26846SOL    HW282436   9.044   9.642  14.656
26847SOL     OW82437  10.681   2.099  11.143
26847SOL    HW182438  10.691   2.039  11.069
26847SOL    HW282439  10.770   2.128  11.162
26848SOL     OW82440   1.067   6.846   6.427
26848SOL    HW182441   1.146   6.895   6.407
26848SOL    HW282442   1.041   6.806   6.344
26849SOL     OW82443  11.915  10.620  14.624
26849SOL    HW182444  11.949  10.698  14.580
26849SOL    HW282445  11.930  10.549  14.563
26850SOL     OW82446  11.307   6.923   9.082
26850SOL    HW182447  11.320   7.017   9.070
26850SOL    HW282448  11.396   6.888   9.092
26851SOL     OW82449   4.902  10.456   0.604
26851SOL    HW182450   4.893  10.373   0.557
26851SOL    HW282451   4.828  10.457   0.664
26852SOL     OW82452   4.772   5.965   1.057
26852SOL    HW182453   4.866   5.977   1.049
26852SOL    HW282454   4.735   6.014   0.984
26853SOL     OW82455  14.678   4.539   6.863
26853SOL    HW182456  14.653   4.622   6.905
26853SOL    HW282457  14.761   4.558   6.820
26854SOL     OW82458   0.442   1.441   1.037
26854SOL    HW182459   0.452   1.441   0.942
26854SOL    HW282460   0.348   1.432   1.052
26855SOL     OW82461  12.558   7.049   0.661
26855SOL    HW182462  12.483   7.058   0.603
26855SOL    HW282463  12.634   7.069   0.606
26856SOL     OW82464   6.593   3.093   7.923
26856SOL    HW182465   6.532   3.138   7.865
26856SOL    HW282466   6.578   3.000   7.907
26857SOL     OW82467   0.026  11.228   0.027
26857SOL    HW182468  14.838  11.205   0.098
26857SOL    HW282469   0.005  11.319   0.006
26858SOL     OW82470  10.955   2.731   2.333
26858SOL    HW182471  10.866   2.757   2.311
26858SOL    HW282472  11.008   2.810   2.317
26859SOL     OW82473   0.504  10.314  11.355
26859SOL    HW182474   0.462  10.368  11.288
26859SOL    HW282475   0.567  10.372  11.397
26860SOL     OW82476  11.539  14.536   1.559
26860SOL    HW182477  11.589  14.462   1.592
26860SOL    HW282478  11.605  14.595   1.522
26861SOL     OW82479  11.427   8.817   2.600
26861SOL    HW182480  11.465   8.896   2.562
26861SOL    HW282481  11.348   8.847   2.645
26862SOL     OW82482   4.748   0.549   8.484
26862SOL    HW182483   4.681   0.501   8.436
26862SOL    HW282484   4.705   0.578   8.564
26863SOL     OW82485   9.488  12.219  11.123
26863SOL    HW182486   9.526  12.295  11.167
26863SOL    HW282487   9.550  12.199  11.052
26864SOL     OW82488   2.096   7.880  13.293
26864SOL    HW182489   2.148   7.815  13.247
26864SOL    HW282490   2.075   7.839  13.377
26865SOL     OW82491   4.029   8.686   7.958
26865SOL    HW182492   3.973   8.610   7.975
26865SOL    HW282493   3.968   8.759   7.951
26866SOL     OW82494   0.153   9.922  12.906
26866SOL    HW182495   0.144   9.937  12.811
26866SOL    HW282496   0.073   9.877  12.930
26867SOL     OW82497   5.109   2.186   4.636
26867SOL    HW182498   5.062   2.224   4.561
26867SOL    HW282499   5.120   2.094   4.613
26868SOL     OW82500   0.575   5.234   0.634
26868SOL    HW182501   0.611   5.268   0.716
26868SOL    HW282502   0.645   5.179   0.598
26869SOL     OW82503  14.830  11.485  14.839
26869SOL    HW182504  14.822  11.510  14.747
26869SOL    HW282505  14.751  11.520   0.008
26870SOL     OW82506   7.103   4.344   0.737
26870SOL    HW182507   7.008   4.332   0.740
26870SOL    HW282508   7.120   4.419   0.793
26871SOL     OW82509   2.952   5.441  10.499
26871SOL    HW182510   3.009   5.506  10.457
26871SOL    HW282511   2.991   5.357  10.476
26872SOL     OW82512   9.502   8.329   3.325
26872SOL    HW182513   9.456   8.332   3.409
26872SOL    HW282514   9.455   8.392   3.270
26873SOL     OW82515   9.025   8.096   2.421
26873SOL    HW182516   8.933   8.109   2.400
26873SOL    HW282517   9.072   8.123   2.341
26874SOL     OW82518  12.795  12.741   0.698
26874SOL    HW182519  12.727  12.677   0.675
26874SOL    HW282520  12.783  12.755   0.792
26875SOL     OW82521  10.268   7.913  11.099
26875SOL    HW182522  10.230   7.912  11.187
26875SOL    HW282523  10.193   7.906  11.040
26876SOL     OW82524   3.762   0.034   1.704
26876SOL    HW182525   3.816   0.100   1.661
26876SOL    HW282526   3.822  14.833   1.720
26877SOL     OW82527   3.580  14.343   4.280
26877SOL    HW182528   3.602  14.256   4.313
26877SOL    HW282529   3.572  14.397   4.359
26878SOL     OW82530  10.315   9.450   1.506
26878SOL    HW182531  10.238   9.402   1.476
26878SOL    HW282532  10.357   9.481   1.425
26879SOL     OW82533  14.236   2.374   2.372
26879SOL    HW182534  14.290   2.335   2.441
26879SOL    HW282535  14.244   2.312   2.299
26880SOL     OW82536   9.441  11.299  11.210
26880SOL    HW182537   9.458  11.271  11.300
26880SOL    HW282538   9.489  11.237  11.156
26881SOL     OW82539   7.591  10.957   3.128
26881SOL    HW182540   7.495  10.962   3.125
26881SOL    HW282541   7.612  10.951   3.221
26882SOL     OW82542   6.028   8.513  13.585
26882SOL    HW182543   6.078   8.442  13.627
26882SOL    HW282544   6.092   8.557  13.529
26883SOL     OW82545   7.329   8.682   1.509
26883SOL    HW182546   7.386   8.606   1.526
26883SOL    HW282547   7.344   8.739   1.585
26884SOL     OW82548   3.142   0.179   7.282
26884SOL    HW182549   3.100   0.252   7.329
26884SOL    HW282550   3.131   0.201   7.190
26885SOL     OW82551   7.647   1.915   7.016
26885SOL    HW182552   7.570   1.947   6.967
26885SOL    HW282553   7.610   1.870   7.092
26886SOL     OW82554   7.326   3.339  12.631
26886SOL    HW182555   7.333   3.292  12.714
26886SOL    HW282556   7.413   3.377  12.617
26887SOL     OW82557   8.351   9.077   3.365
26887SOL    HW182558   8.345   9.079   3.269
26887SOL    HW282559   8.432   9.030   3.383
26888SOL     OW82560   6.798  12.113  12.723
26888SOL    HW182561   6.714  12.158  12.730
26888SOL    HW282562   6.787  12.055  12.647
26889SOL     OW82563   8.726   7.251  13.342
26889SOL    HW182564   8.756   7.180  13.285
26889SOL    HW282565   8.801   7.311  13.347
26890SOL     OW82566   6.419   3.030  11.525
26890SOL    HW182567   6.352   3.048  11.460
26890SOL    HW282568   6.468   3.112  11.532
26891SOL     OW82569   5.701   7.176   6.266
26891SOL    HW182570   5.781   7.143   6.308
26891SOL    HW282571   5.669   7.244   6.325
26892SOL     OW82572  12.599  11.469  11.503
26892SOL    HW182573  12.546  11.546  11.523
26892SOL    HW282574  12.625  11.480  11.411
26893SOL     OW82575   3.123   0.415   6.327
26893SOL    HW182576   3.207   0.442   6.365
26893SOL    HW282577   3.067   0.492   6.338
26894SOL     OW82578   7.596  14.644  12.946
26894SOL    HW182579   7.546  14.673  13.022
26894SOL    HW282580   7.603  14.722  12.890
26895SOL     OW82581  12.832  12.242   4.134
26895SOL    HW182582  12.788  12.162   4.163
26895SOL    HW282583  12.916  12.212   4.100
26896SOL     OW82584   3.927   0.597   8.381
26896SOL    HW182585   3.938   0.664   8.449
26896SOL    HW282586   4.006   0.605   8.327
26897SOL     OW82587  14.545  10.859   8.368
26897SOL    HW182588  14.536  10.904   8.284
26897SOL    HW282589  14.603  10.915   8.419
26898SOL     OW82590  14.021   0.027   4.065
26898SOL    HW182591  13.944  14.863   4.109
26898SOL    HW282592  13.989   0.108   4.024
26899SOL     OW82593   1.298  12.511   5.141
26899SOL    HW182594   1.348  12.431   5.126
26899SOL    HW282595   1.332  12.545   5.224
26900SOL     OW82596   3.252   2.265   7.168
26900SOL    HW182597   3.297   2.286   7.087
26900SOL    HW282598   3.207   2.346   7.192
26901SOL     OW82599   4.652  13.506   6.086
26901SOL    HW182600   4.737  13.531   6.051
26901SOL    HW282601   4.625  13.581   6.139
26902SOL     OW82602   8.460   4.987   2.712
26902SOL    HW182603   8.390   5.052   2.716
26902SOL    HW282604   8.537   5.035   2.680
26903SOL     OW82605  13.659   0.028   5.701
26903SOL    HW182606  13.708   0.085   5.642
26903SOL    HW282607  13.656  14.816   5.656
26904SOL     OW82608   0.358   4.178  11.379
26904SOL    HW182609   0.412   4.165  11.458
26904SOL    HW282610   0.421   4.176  11.307
26905SOL     OW82611   3.964   6.030   1.419
26905SOL    HW182612   3.980   5.970   1.492
26905SOL    HW282613   3.906   5.982   1.360
26906SOL     OW82614  12.012   1.652   3.396
26906SOL    HW182615  12.000   1.687   3.307
26906SOL    HW282616  11.984   1.723   3.453
26907SOL     OW82617   7.303  11.066   2.131
26907SOL    HW182618   7.209  11.056   2.146
26907SOL    HW282619   7.340  11.073   2.219
26908SOL     OW82620   2.338   6.500   2.032
26908SOL    HW182621   2.418   6.530   2.076
26908SOL    HW282622   2.366   6.426   1.978
26909SOL     OW82623   2.619   7.172  12.145
26909SOL    HW182624   2.586   7.261  12.135
26909SOL    HW282625   2.556   7.118  12.099
26910SOL     OW82626   0.827   4.210  10.471
26910SOL    HW182627   0.918   4.184  10.478
26910SOL    HW282628   0.778   4.127  10.470
26911SOL     OW82629   7.055  13.031   1.202
26911SOL    HW182630   6.982  12.980   1.166
26911SOL    HW282631   7.044  13.025   1.297
26912SOL     OW82632   6.238  10.668  10.750
26912SOL    HW182633   6.226  10.669  10.845
26912SOL    HW282634   6.231  10.759  10.724
26913SOL     OW82635  12.939   3.941  13.642
26913SOL    HW182636  13.021   3.944  13.691
26913SOL    HW282637  12.893   4.021  13.667
26914SOL     OW82638   5.227   8.391  13.653
26914SOL    HW182639   5.234   8.346  13.738
26914SOL    HW282640   5.243   8.322  13.588
26915SOL     OW82641  11.785   8.334   3.982
26915SOL    HW182642  11.857   8.354   4.042
26915SOL    HW282643  11.822   8.272   3.920
26916SOL     OW82644   0.743   9.651   5.239
26916SOL    HW182645   0.678   9.614   5.298
26916SOL    HW282646   0.827   9.636   5.282
26917SOL     OW82647   9.042   6.693   5.503
26917SOL    HW182648   8.957   6.663   5.469
26917SOL    HW282649   9.076   6.751   5.435
26918SOL     OW82650   8.331   4.956   2.006
26918SOL    HW182651   8.406   5.011   2.029
26918SOL    HW282652   8.318   4.900   2.083
26919SOL     OW82653   6.113   4.493   9.411
26919SOL    HW182654   6.170   4.418   9.396
26919SOL    HW282655   6.037   4.477   9.356
26920SOL     OW82656   3.763   5.885   1.266
26920SOL    HW182657   3.672   5.913   1.278
26920SOL    HW282658   3.781   5.900   1.173
26921SOL     OW82659   6.799   3.036  10.723
26921SOL    HW182660   6.807   2.980  10.646
26921SOL    HW282661   6.754   3.114  10.690
26922SOL     OW82662   4.897   3.706   3.236
26922SOL    HW182663   4.939   3.654   3.304
26922SOL    HW282664   4.881   3.645   3.164
26923SOL     OW82665  11.852  11.615  12.907
26923SOL    HW182666  11.938  11.574  12.898
26923SOL    HW282667  11.840  11.627  13.001
26924SOL     OW82668   5.594   3.079   7.697
26924SOL    HW182669   5.568   3.151   7.755
26924SOL    HW282670   5.532   3.084   7.624
26925SOL     OW82671  14.607   4.740   1.570
26925SOL    HW182672  14.586   4.751   1.663
26925SOL    HW282673  14.584   4.824   1.530
26926SOL     OW82674   7.461  13.344  10.795
26926SOL    HW182675   7.463  13.403  10.871
26926SOL    HW282676   7.518  13.386  10.731
26927SOL     OW82677   0.791  14.326  11.997
26927SOL    HW182678   0.776  14.363  12.084
26927SOL    HW282679   0.813  14.235  12.014
26928SOL     OW82680  12.197   9.938   3.660
26928SOL    HW182681  12.139   9.950   3.735
26928SOL    HW282682  12.276   9.898   3.696
26929SOL     OW82683  13.340  11.767   0.881
26929SOL    HW182684  13.436  11.763   0.874
26929SOL    HW282685  13.325  11.807   0.967
26930SOL     OW82686   8.293   4.609   9.190
26930SOL    HW182687   8.337   4.590   9.273
26930SOL    HW282688   8.296   4.705   9.183
26931SOL     OW82689   4.769  12.237  13.648
26931SOL    HW182690   4.828  12.239  13.573
26931SOL    HW282691   4.729  12.150  13.645
26932SOL     OW82692   7.471   5.896   2.221
26932SOL    HW182693   7.532   5.958   2.180
26932SOL    HW282694   7.406   5.952   2.264
26933SOL     OW82695   3.740   6.655   9.660
26933SOL    HW182696   3.783   6.684   9.740
26933SOL    HW282697   3.649   6.639   9.687
26934SOL     OW82698   8.787  12.820   0.405
26934SOL    HW182699   8.821  12.893   0.354
26934SOL    HW282700   8.760  12.755   0.340
26935SOL     OW82701   8.125   6.744   6.072
26935SOL    HW182702   8.054   6.807   6.058
26935SOL    HW282703   8.081   6.660   6.081
26936SOL     OW82704   0.459  14.230  14.737
26936SOL    HW182705   0.474  14.187  14.653
26936SOL    HW282706   0.364  14.227  14.750
26937SOL     OW82707   0.097   9.169   5.238
26937SOL    HW182708   0.114   9.079   5.213
26937SOL    HW282709   0.003   9.173   5.256
26938SOL     OW82710   2.924   3.296  14.101
26938SOL    HW182711   2.973   3.301  14.020
26938SOL    HW282712   2.990   3.290  14.170
26939SOL     OW82713  11.282   1.932  13.135
26939SOL    HW182714  11.266   1.885  13.217
26939SOL    HW282715  11.195   1.960  13.106
26940SOL     OW82716   8.440  11.758  13.227
26940SOL    HW182717   8.386  11.836  13.238
26940SOL    HW282718   8.520  11.778  13.276
26941SOL     OW82719   8.288   6.829  13.327
26941SOL    HW182720   8.232   6.860  13.256
26941SOL    HW282721   8.372   6.873  13.313
26942SOL     OW82722   0.960   2.721  12.891
26942SOL    HW182723   0.909   2.695  12.968
26942SOL    HW282724   0.997   2.806  12.914
26943SOL     OW82725   5.589   0.502   5.443
26943SOL    HW182726   5.625   0.569   5.501
26943SOL    HW282727   5.612   0.532   5.355
26944SOL     OW82728   6.474  12.213   4.977
26944SOL    HW182729   6.402  12.178   5.029
26944SOL    HW282730   6.543  12.233   5.041
26945SOL     OW82731   2.304  12.142   8.088
26945SOL    HW182732   2.320  12.230   8.052
26945SOL    HW282733   2.294  12.156   8.182
26946SOL     OW82734   1.720   3.670   4.367
26946SOL    HW182735   1.694   3.699   4.455
26946SOL    HW282736   1.727   3.751   4.317
26947SOL     OW82737   5.905   7.897   7.608
26947SOL    HW182738   5.835   7.962   7.598
26947SOL    HW282739   5.956   7.929   7.683
26948SOL     OW82740  10.713   6.915   2.315
26948SOL    HW182741  10.803   6.943   2.334
26948SOL    HW282742  10.669   6.994   2.285
26949SOL     OW82743   6.455   9.153   4.351
26949SOL    HW182744   6.495   9.153   4.264
26949SOL    HW282745   6.489   9.231   4.394
26950SOL     OW82746   2.051   1.418   4.766
26950SOL    HW182747   2.101   1.500   4.759
26950SOL    HW282748   2.003   1.413   4.684
26951SOL     OW82749  10.922   0.627  14.344
26951SOL    HW182750  10.995   0.622  14.405
26951SOL    HW282751  10.850   0.666  14.394
26952SOL     OW82752   6.346   0.359   8.346
26952SOL    HW182753   6.427   0.409   8.350
26952SOL    HW282754   6.373   0.268   8.362
26953SOL     OW82755  13.201   5.211  10.335
26953SOL    HW182756  13.171   5.298  10.310
26953SOL    HW282757  13.220   5.167  10.251
26954SOL     OW82758   6.939   8.546   8.987
26954SOL    HW182759   6.993   8.486   8.936
26954SOL    HW282760   6.872   8.491   9.027
26955SOL     OW82761   8.334   0.567   0.509
26955SOL    HW182762   8.321   0.537   0.599
26955SOL    HW282763   8.252   0.547   0.465
26956SOL     OW82764   7.685   4.009   6.229
26956SOL    HW182765   7.684   4.094   6.185
26956SOL    HW282766   7.595   3.995   6.257
26957SOL     OW82767  11.313   3.438  10.934
26957SOL    HW182768  11.379   3.483  10.986
26957SOL    HW282769  11.275   3.373  10.993
26958SOL     OW82770   5.101  14.626   2.621
26958SOL    HW182771   5.030  14.682   2.589
26958SOL    HW282772   5.175  14.686   2.633
26959SOL     OW82773   8.697   1.087   8.808
26959SOL    HW182774   8.630   1.136   8.761
26959SOL    HW282775   8.698   1.125   8.895
26960SOL     OW82776   8.584   0.883   5.895
26960SOL    HW182777   8.558   0.975   5.892
26960SOL    HW282778   8.512   0.839   5.942
26961SOL     OW82779   1.619   2.592   6.115
26961SOL    HW182780   1.706   2.566   6.147
26961SOL    HW282781   1.591   2.661   6.176
26962SOL     OW82782  14.315   7.759   9.580
26962SOL    HW182783  14.359   7.695   9.523
26962SOL    HW282784  14.280   7.706   9.652
26963SOL     OW82785   1.637   1.901   7.755
26963SOL    HW182786   1.726   1.867   7.770
26963SOL    HW282787   1.580   1.825   7.766
26964SOL     OW82788  11.901  14.516   6.856
26964SOL    HW182789  11.970  14.472   6.905
26964SOL    HW282790  11.941  14.598   6.826
26965SOL     OW82791   9.094   5.703   5.245
26965SOL    HW182792   9.120   5.625   5.293
26965SOL    HW282793   9.122   5.776   5.301
26966SOL     OW82794  12.534   7.241   1.471
26966SOL    HW182795  12.519   7.224   1.378
26966SOL    HW282796  12.612   7.297   1.472
26967SOL     OW82797   9.648  12.296   6.686
26967SOL    HW182798   9.703  12.252   6.621
26967SOL    HW282799   9.678  12.387   6.685
26968SOL     OW82800  12.771  10.744   6.922
26968SOL    HW182801  12.808  10.797   6.851
26968SOL    HW282802  12.833  10.755   6.994
26969SOL     OW82803   8.667  10.095   0.025
26969SOL    HW182804   8.683  10.148  14.819
26969SOL    HW282805   8.689  10.153   0.098
26970SOL     OW82806   5.623   7.708   6.890
26970SOL    HW182807   5.602   7.773   6.957
26970SOL    HW282808   5.588   7.746   6.809
26971SOL     OW82809   7.144  14.555   4.578
26971SOL    HW182810   7.091  14.612   4.524
26971SOL    HW282811   7.214  14.525   4.520
26972SOL     OW82812   4.057   4.793   5.472
26972SOL    HW182813   4.142   4.753   5.490
26972SOL    HW282814   4.067   4.884   5.502
26973SOL     OW82815   7.966  11.713   9.790
26973SOL    HW182816   7.897  11.657   9.756
26973SOL    HW282817   8.037  11.652   9.813
26974SOL     OW82818   8.543   1.338   1.064
26974SOL    HW182819   8.449   1.352   1.056
26974SOL    HW282820   8.559   1.337   1.159
26975SOL     OW82821   6.425  10.750  14.563
26975SOL    HW182822   6.406  10.688  14.493
26975SOL    HW282823   6.382  10.832  14.535
26976SOL     OW82824  14.772   6.858  10.739
26976SOL    HW182825  14.781   6.846  10.833
26976SOL    HW282826  14.679   6.848  10.722
26977SOL     OW82827   3.997   2.453  14.871
26977SOL    HW182828   4.037   2.366   0.005
26977SOL    HW282829   4.049   2.507   0.058
26978SOL     OW82830   5.809  11.225  11.775
26978SOL    HW182831   5.725  11.189  11.747
26978SOL    HW282832   5.854  11.247  11.693
26979SOL     OW82833   3.504   6.987  10.353
26979SOL    HW182834   3.581   7.005  10.299
26979SOL    HW282835   3.477   6.899  10.328
26980SOL     OW82836   3.659  10.437  12.442
26980SOL    HW182837   3.575  10.391  12.437
26980SOL    HW282838   3.709  10.389  12.508
26981SOL     OW82839   3.438   0.658  10.301
26981SOL    HW182840   3.458   0.743  10.340
26981SOL    HW282841   3.475   0.663  10.212
26982SOL     OW82842   9.515   6.709   8.269
26982SOL    HW182843   9.524   6.620   8.305
26982SOL    HW282844   9.425   6.713   8.237
26983SOL     OW82845   3.299  14.358   0.983
26983SOL    HW182846   3.255  14.373   0.900
26983SOL    HW282847   3.389  14.333   0.959
26984SOL     OW82848   8.891   5.365   5.011
26984SOL    HW182849   8.954   5.320   5.067
26984SOL    HW282850   8.945   5.413   4.948
26985SOL     OW82851   7.579   2.943  14.864
26985SOL    HW182852   7.619   2.934  14.778
26985SOL    HW282853   7.531   3.026  14.860
26986SOL     OW82854   8.664   1.013   1.194
26986SOL    HW182855   8.755   1.009   1.165
26986SOL    HW282856   8.665   0.976   1.282
26987SOL     OW82857   1.844   5.605   2.124
26987SOL    HW182858   1.916   5.668   2.112
26987SOL    HW282859   1.774   5.657   2.163
26988SOL     OW82860   7.838  10.459   4.247
26988SOL    HW182861   7.811  10.452   4.339
26988SOL    HW282862   7.800  10.383   4.205
26989SOL     OW82863   7.261  11.443   6.514
26989SOL    HW182864   7.329  11.501   6.479
26989SOL    HW282865   7.205  11.424   6.439
26990SOL     OW82866   8.476   1.392   3.321
26990SOL    HW182867   8.383   1.392   3.344
26990SOL    HW282868   8.504   1.302   3.338
26991SOL     OW82869   7.107   2.009   6.808
26991SOL    HW182870   7.099   1.945   6.879
26991SOL    HW282871   7.124   2.092   6.853
26992SOL     OW82872   5.964  13.055   4.222
26992SOL    HW182873   5.887  13.044   4.165
26992SOL    HW282874   6.003  12.967   4.224
26993SOL     OW82875   0.750  12.791   6.514
26993SOL    HW182876   0.805  12.866   6.533
26993SOL    HW282877   0.794  12.717   6.555
26994SOL     OW82878   0.246   6.459  12.901
26994SOL    HW182879   0.284   6.379  12.865
26994SOL    HW282880   0.188   6.429  12.971
26995SOL     OW82881   5.923  11.016   2.605
26995SOL    HW182882   5.927  10.971   2.521
26995SOL    HW282883   5.896  10.949   2.668
26996SOL     OW82884   6.677   2.376   6.501
26996SOL    HW182885   6.607   2.348   6.442
26996SOL    HW282886   6.753   2.387   6.444
26997SOL     OW82887   8.622  13.585   3.440
26997SOL    HW182888   8.644  13.516   3.503
26997SOL    HW282889   8.531  13.567   3.416
26998SOL     OW82890   6.110  12.886  14.636
26998SOL    HW182891   6.109  12.832  14.557
26998SOL    HW282892   6.194  12.867  14.677
26999SOL     OW82893  12.265   9.025  11.373
26999SOL    HW182894  12.210   9.016  11.296
26999SOL    HW282895  12.203   9.038  11.445
27000SOL     OW82896  10.629  12.469   9.625
27000SOL    HW182897  10.680  12.417   9.687
27000SOL    HW282898  10.601  12.546   9.675
27001SOL     OW82899  10.673  10.536   2.194
27001SOL    HW182900  10.684  10.512   2.286
27001SOL    HW282901  10.631  10.623   2.197
27002SOL     OW82902   8.381  11.137  13.779
27002SOL    HW182903   8.371  11.142  13.684
27002SOL    HW282904   8.368  11.044  13.799
27003SOL     OW82905  14.198   3.431   2.765
27003SOL    HW182906  14.223   3.434   2.858
27003SOL    HW282907  14.167   3.519   2.746
27004SOL     OW82908  14.019   3.737   9.075
27004SOL    HW182909  13.964   3.769   9.003
27004SOL    HW282910  14.080   3.676   9.032
27005SOL     OW82911   3.665   5.003  10.722
27005SOL    HW182912   3.609   4.988  10.798
27005SOL    HW282913   3.740   5.052  10.756
27006SOL     OW82914   1.707   6.594   9.951
27006SOL    HW182915   1.696   6.592  10.046
27006SOL    HW282916   1.741   6.681   9.932
27007SOL     OW82917   6.549   2.416   2.778
27007SOL    HW182918   6.514   2.494   2.823
27007SOL    HW282919   6.502   2.414   2.695
27008SOL     OW82920   6.749   4.420   3.643
27008SOL    HW182921   6.784   4.428   3.554
27008SOL    HW282922   6.722   4.509   3.665
27009SOL     OW82923   8.963  11.929   8.534
27009SOL    HW182924   9.001  11.951   8.619
27009SOL    HW282925   8.870  11.915   8.553
27010SOL     OW82926  12.664   9.027   8.747
27010SOL    HW182927  12.631   9.046   8.835
27010SOL    HW282928  12.752   9.067   8.745
27011SOL     OW82929   6.715  14.526   0.689
27011SOL    HW182930   6.705  14.614   0.653
27011SOL    HW282931   6.806  14.521   0.716
27012SOL     OW82932   8.676   7.783  14.818
27012SOL    HW182933   8.635   7.836   0.014
27012SOL    HW282934   8.612   7.716  14.797
27013SOL     OW82935  13.944  13.407   9.799
27013SOL    HW182936  13.877  13.471   9.822
27013SOL    HW282937  14.024  13.442   9.837
27014SOL     OW82938  13.922  10.663  12.408
27014SOL    HW182939  13.864  10.606  12.358
27014SOL    HW282940  13.876  10.747  12.414
27015SOL     OW82941   4.612  10.467  12.915
27015SOL    HW182942   4.597  10.467  12.821
27015SOL    HW282943   4.688  10.410  12.927
27016SOL     OW82944   9.063   1.315   3.884
27016SOL    HW182945   8.975   1.339   3.913
27016SOL    HW282946   9.049   1.238   3.829
27017SOL     OW82947  13.577   7.219  10.705
27017SOL    HW182948  13.491   7.185  10.681
27017SOL    HW282949  13.577   7.309  10.674
27018SOL     OW82950   8.309   1.051   1.572
27018SOL    HW182951   8.309   0.983   1.640
27018SOL    HW282952   8.401   1.079   1.566
27019SOL     OW82953   0.787  12.051   3.554
27019SOL    HW182954   0.849  12.053   3.481
27019SOL    HW282955   0.729  11.978   3.533
27020SOL     OW82956   9.526  13.879   9.653
27020SOL    HW182957   9.562  13.827   9.581
27020SOL    HW282958   9.431  13.871   9.643
27021SOL     OW82959   9.753   8.746  13.929
27021SOL    HW182960   9.672   8.785  13.896
27021SOL    HW282961   9.777   8.681  13.864
27022SOL     OW82962   9.387  13.670   4.639
27022SOL    HW182963   9.325  13.725   4.592
27022SOL    HW282964   9.467  13.674   4.587
27023SOL     OW82965  13.529  10.701  14.663
27023SOL    HW182966  13.510  10.656  14.745
27023SOL    HW282967  13.608  10.657  14.630
27024SOL     OW82968   7.286   4.408  13.603
27024SOL    HW182969   7.275   4.503  13.593
27024SOL    HW282970   7.326   4.398  13.690
27025SOL     OW82971   1.933   0.884   4.158
27025SOL    HW182972   1.996   0.895   4.229
27025SOL    HW282973   1.984   0.849   4.086
27026SOL     OW82974   2.224  13.049   7.490
27026SOL    HW182975   2.208  13.102   7.412
27026SOL    HW282976   2.214  13.109   7.563
27027SOL     OW82977   6.185   8.441   5.815
27027SOL    HW182978   6.146   8.364   5.774
27027SOL    HW282979   6.110   8.496   5.839
27028SOL     OW82980   8.581  14.532   5.668
27028SOL    HW182981   8.497  14.542   5.624
27028SOL    HW282982   8.586  14.606   5.728
27029SOL     OW82983   5.261   6.787  11.077
27029SOL    HW182984   5.238   6.860  11.135
27029SOL    HW282985   5.260   6.710  11.135
27030SOL     OW82986   1.299  11.018   6.410
27030SOL    HW182987   1.287  11.109   6.385
27030SOL    HW282988   1.210  10.983   6.419
27031SOL     OW82989   9.623   1.706   5.943
27031SOL    HW182990   9.591   1.658   6.019
27031SOL    HW282991   9.557   1.689   5.875
27032SOL     OW82992  13.135   8.762   3.834
27032SOL    HW182993  13.129   8.668   3.855
27032SOL    HW282994  13.227   8.783   3.848
27033SOL     OW82995   5.384   1.530   1.245
27033SOL    HW182996   5.336   1.610   1.225
27033SOL    HW282997   5.317   1.470   1.277
27034SOL     OW82998   9.301  12.777   7.250
27034SOL    HW182999   9.340  12.744   7.331
27034SOL    HW283000   9.207  12.771   7.265
27035SOL     OW83001   7.004   2.579   2.080
27035SOL    HW183002   6.924   2.618   2.044
27035SOL    HW283003   7.041   2.647   2.137
27036SOL     OW83004   1.752   7.881   9.356
27036SOL    HW183005   1.670   7.856   9.399
27036SOL    HW283006   1.814   7.812   9.381
27037SOL     OW83007   4.175   0.862  10.425
27037SOL    HW183008   4.255   0.889  10.380
27037SOL    HW283009   4.165   0.769  10.403
27038SOL     OW83010   9.589   8.275   7.642
27038SOL    HW183011   9.549   8.222   7.710
27038SOL    HW283012   9.518   8.290   7.579
27039SOL     OW83013   4.937  14.607   5.548
27039SOL    HW183014   4.995  14.659   5.493
27039SOL    HW283015   4.854  14.605   5.501
27040SOL     OW83016  10.393   3.105  12.691
27040SOL    HW183017  10.365   3.058  12.770
27040SOL    HW283018  10.316   3.156  12.666
27041SOL     OW83019   6.959   9.874   5.640
27041SOL    HW183020   6.876   9.826   5.633
27041SOL    HW283021   7.026   9.810   5.616
27042SOL     OW83022   1.069   0.317   1.719
27042SOL    HW183023   1.108   0.229   1.724
27042SOL    HW283024   1.008   0.311   1.646
27043SOL     OW83025   1.039  13.697   5.276
27043SOL    HW183026   1.054  13.711   5.183
27043SOL    HW283027   0.945  13.678   5.282
27044SOL     OW83028   3.091   4.214   4.678
27044SOL    HW183029   3.146   4.193   4.603
27044SOL    HW283030   3.111   4.305   4.698
27045SOL     OW83031   0.384   2.191   9.807
27045SOL    HW183032   0.346   2.252   9.870
27045SOL    HW283033   0.331   2.202   9.728
27046SOL     OW83034   6.470   3.001   8.810
27046SOL    HW183035   6.402   2.978   8.873
27046SOL    HW283036   6.515   2.919   8.791
27047SOL     OW83037  14.781   1.853   7.211
27047SOL    HW183038  14.717   1.818   7.274
27047SOL    HW283039  14.785   1.786   7.142
27048SOL     OW83040  13.548  13.973   6.840
27048SOL    HW183041  13.495  13.966   6.761
27048SOL    HW283042  13.492  13.940   6.910
27049SOL     OW83043  11.777   9.001   8.740
27049SOL    HW183044  11.832   9.077   8.725
27049SOL    HW283045  11.691   9.027   8.707
27050SOL     OW83046   5.747  13.153   9.419
27050SOL    HW183047   5.669  13.116   9.378
27050SOL    HW283048   5.716  13.233   9.461
27051SOL     OW83049   9.786   8.830  13.077
27051SOL    HW183050   9.874   8.821  13.114
27051SOL    HW283051   9.798   8.822  12.983
27052SOL     OW83052   2.864  10.338  14.168
27052SOL    HW183053   2.783  10.324  14.216
27052SOL    HW283054   2.839  10.333  14.076
27053SOL     OW83055   1.065   8.307   3.307
27053SOL    HW183056   1.161   8.307   3.311
27053SOL    HW283057   1.043   8.395   3.277
27054SOL     OW83058   6.340   2.372   5.921
27054SOL    HW183059   6.292   2.365   6.003
27054SOL    HW283060   6.403   2.301   5.923
27055SOL     OW83061  14.646  12.117   4.203
27055SOL    HW183062  14.575  12.056   4.223
27055SOL    HW283063  14.624  12.152   4.117
27056SOL     OW83064   5.485   3.607   2.415
27056SOL    HW183065   5.427   3.673   2.378
27056SOL    HW283066   5.493   3.631   2.507
27057SOL     OW83067  11.284  13.408   9.465
27057SOL    HW183068  11.327  13.454   9.537
27057SOL    HW283069  11.302  13.461   9.388
27058SOL     OW83070  10.561   7.925   3.659
27058SOL    HW183071  10.634   7.867   3.637
27058SOL    HW283072  10.583   7.962   3.744
27059SOL     OW83073   2.620   8.602   5.656
27059SOL    HW183074   2.697   8.654   5.681
27059SOL    HW283075   2.547   8.643   5.702
27060SOL     OW83076   0.265  13.513   9.341
27060SOL    HW183077   0.266  13.532   9.247
27060SOL    HW283078   0.295  13.423   9.347
27061SOL     OW83079   1.654  10.316   4.290
27061SOL    HW183080   1.626  10.232   4.326
27061SOL    HW283081   1.692  10.295   4.205
27062SOL     OW83082   7.924   7.638   7.598
27062SOL    HW183083   7.999   7.610   7.651
27062SOL    HW283084   7.848   7.602   7.644
27063SOL     OW83085   5.911   4.634  14.621
27063SOL    HW183086   5.904   4.610  14.528
27063SOL    HW283087   5.845   4.580  14.665
27064SOL     OW83088   4.415   0.034   3.681
27064SOL    HW183089   4.356   0.006   3.751
27064SOL    HW283090   4.381   0.118   3.652
27065SOL     OW83091   8.952  12.964   2.329
27065SOL    HW183092   8.883  13.031   2.324
27065SOL    HW283093   8.995  12.980   2.413
27066SOL     OW83094   1.007   2.824   1.145
27066SOL    HW183095   1.075   2.891   1.144
27066SOL    HW283096   0.973   2.824   1.055
27067SOL     OW83097   0.985   1.055   0.756
27067SOL    HW183098   1.042   1.115   0.804
27067SOL    HW283099   0.919   1.111   0.716
27068SOL     OW83100  12.193  11.789   9.839
27068SOL    HW183101  12.184  11.695   9.849
27068SOL    HW283102  12.248  11.799   9.761
27069SOL     OW83103   0.389   4.323  12.602
27069SOL    HW183104   0.468   4.318  12.547
27069SOL    HW283105   0.394   4.410  12.641
27070SOL     OW83106   3.791   0.717   0.409
27070SOL    HW183107   3.851   0.764   0.352
27070SOL    HW283108   3.801   0.625   0.383
27071SOL     OW83109   2.216  10.447   3.217
27071SOL    HW183110   2.293  10.498   3.191
27071SOL    HW283111   2.192  10.400   3.137
27072SOL     OW83112   3.230   3.707   4.798
27072SOL    HW183113   3.174   3.636   4.765
27072SOL    HW283114   3.199   3.721   4.888
27073SOL     OW83115  13.765   4.874  11.891
27073SOL    HW183116  13.774   4.867  11.795
27073SOL    HW283117  13.801   4.792  11.924
27074SOL     OW83118  14.478   8.221   6.589
27074SOL    HW183119  14.404   8.281   6.578
27074SOL    HW283120  14.553   8.269   6.556
27075SOL     OW83121  10.800   0.692   0.939
27075SOL    HW183122  10.850   0.700   1.020
27075SOL    HW283123  10.851   0.632   0.885
27076SOL     OW83124   8.560  14.446   1.304
27076SOL    HW183125   8.468  14.468   1.310
27076SOL    HW283126   8.601  14.521   1.260
27077SOL     OW83127  13.770   8.017   2.003
27077SOL    HW183128  13.726   7.948   1.953
27077SOL    HW283129  13.723   8.097   1.980
27078SOL     OW83130   4.287   8.986  10.658
27078SOL    HW183131   4.296   9.061  10.599
27078SOL    HW283132   4.368   8.986  10.709
27079SOL     OW83133   3.573  13.331   7.121
27079SOL    HW183134   3.523  13.388   7.180
27079SOL    HW283135   3.662  13.332   7.157
27080SOL     OW83136  12.908   7.096  12.617
27080SOL    HW183137  12.947   7.040  12.550
27080SOL    HW283138  12.956   7.179  12.609
27081SOL     OW83139   6.644   5.730  12.685
27081SOL    HW183140   6.566   5.776  12.717
27081SOL    HW283141   6.615   5.687  12.605
27082SOL     OW83142  13.261  14.752  12.733
27082SOL    HW183143  13.168  14.737  12.754
27082SOL    HW283144  13.267  14.847  12.722
27083SOL     OW83145   0.563   5.679   4.131
27083SOL    HW183146   0.633   5.696   4.193
27083SOL    HW283147   0.600   5.616   4.069
27084SOL     OW83148   8.747   0.439  13.376
27084SOL    HW183149   8.772   0.372  13.439
27084SOL    HW283150   8.770   0.522  13.418
27085SOL     OW83151   1.417   4.775  12.328
27085SOL    HW183152   1.333   4.743  12.362
27085SOL    HW283153   1.483   4.725  12.377
27086SOL     OW83154  10.499  10.233   8.774
27086SOL    HW183155  10.521  10.253   8.683
27086SOL    HW283156  10.475  10.318   8.811
27087SOL     OW83157  13.596   0.324   6.733
27087SOL    HW183158  13.688   0.350   6.735
27087SOL    HW283159  13.548   0.400   6.767
27088SOL     OW83160   9.942  12.547   9.481
27088SOL    HW183161   9.981  12.633   9.464
27088SOL    HW283162   9.905  12.554   9.569
27089SOL     OW83163   6.656   6.784   2.179
27089SOL    HW183164   6.577   6.737   2.205
27089SOL    HW283165   6.686   6.827   2.259
27090SOL     OW83166  13.083   1.158   9.723
27090SOL    HW183167  13.089   1.208   9.804
27090SOL    HW283168  13.105   1.221   9.654
27091SOL     OW83169   3.906  11.418  11.895
27091SOL    HW183170   3.885  11.345  11.838
27091SOL    HW283171   4.002  11.425  11.892
27092SOL     OW83172   3.043   8.594  10.436
27092SOL    HW183173   3.136   8.583  10.451
27092SOL    HW283174   3.038   8.658  10.365
27093SOL     OW83175   3.752  14.137  14.031
27093SOL    HW183176   3.788  14.189  13.959
27093SOL    HW283177   3.660  14.123  14.007
27094SOL     OW83178   9.668   8.753  12.331
27094SOL    HW183179   9.713   8.837  12.320
27094SOL    HW283180   9.696   8.722  12.417
27095SOL     OW83181   5.795   2.526  11.177
27095SOL    HW183182   5.764   2.518  11.267
27095SOL    HW283183   5.883   2.490  11.179
27096SOL     OW83184   0.307   1.912   8.751
27096SOL    HW183185   0.378   1.976   8.762
27096SOL    HW283186   0.339   1.833   8.795
27097SOL     OW83187   2.824  11.169   9.178
27097SOL    HW183188   2.849  11.229   9.248
27097SOL    HW283189   2.902  11.115   9.164
27098SOL     OW83190   2.428  12.938   4.386
27098SOL    HW183191   2.335  12.954   4.376
27098SOL    HW283192   2.469  12.985   4.313
27099SOL     OW83193   1.895   3.452   5.863
27099SOL    HW183194   1.967   3.506   5.829
27099SOL    HW283195   1.908   3.451   5.958
27100SOL     OW83196  12.783  10.755   6.390
27100SOL    HW183197  12.747  10.840   6.418
27100SOL    HW283198  12.877  10.764   6.405
27101SOL     OW83199   3.886   0.818   7.082
27101SOL    HW183200   3.900   0.900   7.130
27101SOL    HW283201   3.969   0.803   7.037
27102SOL     OW83202   8.022   8.514   1.389
27102SOL    HW183203   7.941   8.467   1.369
27102SOL    HW283204   8.015   8.534   1.483
27103SOL     OW83205   3.854   5.980   8.463
27103SOL    HW183206   3.771   6.027   8.451
27103SOL    HW283207   3.875   5.947   8.375
27104SOL     OW83208   2.112   9.198   8.616
27104SOL    HW183209   2.160   9.244   8.546
27104SOL    HW283210   2.044   9.149   8.570
27105SOL     OW83211   2.408   2.253   6.048
27105SOL    HW183212   2.474   2.286   6.109
27105SOL    HW283213   2.383   2.329   5.996
27106SOL     OW83214   9.547   2.574   3.419
27106SOL    HW183215   9.501   2.494   3.444
27106SOL    HW283216   9.604   2.548   3.347
27107SOL     OW83217   9.540   8.585   5.051
27107SOL    HW183218   9.534   8.510   5.111
27107SOL    HW283219   9.625   8.624   5.070
27108SOL     OW83220   9.857   6.387  10.367
27108SOL    HW183221   9.931   6.366  10.311
27108SOL    HW283222   9.863   6.481  10.382
27109SOL     OW83223   4.155   1.478  12.368
27109SOL    HW183224   4.229   1.515  12.416
27109SOL    HW283225   4.194   1.420  12.303
27110SOL     OW83226  13.108   7.739  10.226
27110SOL    HW183227  13.030   7.766  10.177
27110SOL    HW283228  13.153   7.821  10.245
27111SOL     OW83229  10.044   0.624   0.373
27111SOL    HW183230  10.070   0.640   0.464
27111SOL    HW283231   9.995   0.702   0.348
27112SOL     OW83232   8.447   7.580  10.824
27112SOL    HW183233   8.435   7.485  10.815
27112SOL    HW283234   8.421   7.599  10.914
27113SOL     OW83235   5.511   6.916   5.612
27113SOL    HW183236   5.565   6.917   5.532
27113SOL    HW283237   5.499   6.823   5.631
27114SOL     OW83238   5.086   8.582   3.533
27114SOL    HW183239   5.046   8.651   3.479
27114SOL    HW283240   5.173   8.569   3.495
27115SOL     OW83241   8.543   8.313   0.468
27115SOL    HW183242   8.480   8.346   0.534
27115SOL    HW283243   8.527   8.368   0.391
27116SOL     OW83244  11.791   2.206  14.271
27116SOL    HW183245  11.877   2.247  14.277
27116SOL    HW283246  11.785   2.175  14.181
27117SOL     OW83247  10.372  10.725   3.678
27117SOL    HW183248  10.412  10.782   3.612
27117SOL    HW283249  10.434  10.727   3.751
27118SOL     OW83250   0.977   9.118   5.597
27118SOL    HW183251   0.905   9.180   5.586
27118SOL    HW283252   1.041   9.165   5.650
27119SOL     OW83253   6.760   2.555  10.522
27119SOL    HW183254   6.714   2.624  10.570
27119SOL    HW283255   6.792   2.598  10.443
27120SOL     OW83256   2.607   5.033   0.408
27120SOL    HW183257   2.524   5.047   0.363
27120SOL    HW283258   2.624   5.115   0.453
27121SOL     OW83259   1.388   5.090   4.093
27121SOL    HW183260   1.340   5.066   4.171
27121SOL    HW283261   1.388   5.012   4.038
27122SOL     OW83262  11.189   9.842   4.805
27122SOL    HW183263  11.223   9.919   4.851
27122SOL    HW283264  11.266   9.787   4.790
27123SOL     OW83265  14.620   4.030  12.240
27123SOL    HW183266  14.694   4.082  12.206
27123SOL    HW283267  14.559   4.024  12.167
27124SOL     OW83268  14.454   8.921  11.487
27124SOL    HW183269  14.478   9.013  11.478
27124SOL    HW283270  14.537   8.874  11.483
27125SOL     OW83271   2.548   3.708  10.702
27125SOL    HW183272   2.632   3.677  10.668
27125SOL    HW283273   2.554   3.691  10.797
27126SOL     OW83274   6.426  12.372  11.422
27126SOL    HW183275   6.422  12.336  11.333
27126SOL    HW283276   6.497  12.436  11.418
27127SOL     OW83277  13.091   8.305   2.544
27127SOL    HW183278  13.121   8.214   2.549
27127SOL    HW283279  13.070   8.328   2.634
27128SOL     OW83280  12.653  11.748   2.932
27128SOL    HW183281  12.607  11.786   2.858
27128SOL    HW283282  12.602  11.773   3.009
27129SOL     OW83283   5.257   4.587   6.241
27129SOL    HW183284   5.242   4.544   6.326
27129SOL    HW283285   5.325   4.652   6.259
27130SOL     OW83286  14.725   5.870  13.619
27130SOL    HW183287  14.737   5.965  13.625
27130SOL    HW283288  14.717   5.841  13.710
27131SOL     OW83289  14.392   9.603  10.662
27131SOL    HW183290  14.457   9.627  10.596
27131SOL    HW283291  14.444   9.583  10.740
27132SOL     OW83292   2.277  10.037  13.413
27132SOL    HW183293   2.356   9.995  13.445
27132SOL    HW283294   2.295  10.056  13.321
27133SOL     OW83295   1.383  14.290  11.378
27133SOL    HW183296   1.323  14.216  11.383
27133SOL    HW283297   1.452  14.260  11.319
27134SOL     OW83298  14.730   5.440   7.067
27134SOL    HW183299  14.737   5.355   7.112
27134SOL    HW283300  14.639   5.443   7.038
27135SOL     OW83301   4.485   5.808  11.260
27135SOL    HW183302   4.480   5.850  11.174
27135SOL    HW283303   4.539   5.867  11.312
27136SOL     OW83304  11.502   7.480  12.556
27136SOL    HW183305  11.497   7.548  12.488
27136SOL    HW283306  11.596   7.472  12.574
27137SOL     OW83307  10.235   3.608   1.824
27137SOL    HW183308  10.182   3.531   1.843
27137SOL    HW283309  10.210   3.634   1.735
27138SOL     OW83310  13.640  10.947   4.204
27138SOL    HW183311  13.715  10.984   4.251
27138SOL    HW283312  13.573  10.935   4.271
27139SOL     OW83313   7.082  12.117  13.044
27139SOL    HW183314   7.122  12.086  12.963
27139SOL    HW283315   7.051  12.205  13.023
27140SOL     OW83316  13.905   4.992   2.040
27140SOL    HW183317  13.970   5.025   1.978
27140SOL    HW283318  13.956   4.945   2.106
27141SOL     OW83319  11.860   4.019   5.410
27141SOL    HW183320  11.864   4.092   5.348
27141SOL    HW283321  11.767   4.006   5.426
27142SOL     OW83322  12.403  14.342   5.104
27142SOL    HW183323  12.464  14.413   5.121
27142SOL    HW283324  12.360  14.326   5.188
27143SOL     OW83325  13.746  14.281  14.136
27143SOL    HW183326  13.720  14.304  14.047
27143SOL    HW283327  13.684  14.213  14.162
27144SOL     OW83328   9.462  12.096   5.278
27144SOL    HW183329   9.409  12.120   5.354
27144SOL    HW283330   9.503  12.013   5.302
27145SOL     OW83331   7.301   8.661  11.399
27145SOL    HW183332   7.342   8.650  11.485
27145SOL    HW283333   7.323   8.581  11.352
27146SOL     OW83334   4.150   8.845  12.187
27146SOL    HW183335   4.109   8.927  12.217
27146SOL    HW283336   4.200   8.871  12.110
27147SOL     OW83337   2.864  12.299  14.424
27147SOL    HW183338   2.769  12.306  14.411
27147SOL    HW283339   2.880  12.205  14.429
27148SOL     OW83340  11.709   8.262   6.937
27148SOL    HW183341  11.744   8.230   7.021
27148SOL    HW283342  11.622   8.223   6.932
27149SOL     OW83343   1.899   6.454  10.274
27149SOL    HW183344   1.911   6.374  10.325
27149SOL    HW283345   1.851   6.513  10.333
27150SOL     OW83346  12.578  12.298  11.884
27150SOL    HW183347  12.594  12.218  11.835
27150SOL    HW283348  12.661  12.318  11.927
27151SOL     OW83349  10.518   5.515   4.625
27151SOL    HW183350  10.562   5.468   4.554
27151SOL    HW283351  10.586   5.571   4.663
27152SOL     OW83352  13.284  13.262   8.563
27152SOL    HW183353  13.223  13.315   8.513
27152SOL    HW283354  13.256  13.273   8.654
27153SOL     OW83355  12.827   1.184  10.926
27153SOL    HW183356  12.922   1.176  10.915
27153SOL    HW283357  12.817   1.249  10.996
27154SOL     OW83358  13.632   7.955   5.788
27154SOL    HW183359  13.580   7.945   5.868
27154SOL    HW283360  13.663   8.045   5.790
27155SOL     OW83361  14.830   1.514  14.488
27155SOL    HW183362  14.781   1.592  14.516
27155SOL    HW283363  14.864   1.477  14.569
27156SOL     OW83364   5.760   9.323   5.900
27156SOL    HW183365   5.668   9.343   5.916
27156SOL    HW283366   5.774   9.237   5.939
27157SOL     OW83367   0.603   4.986   8.302
27157SOL    HW183368   0.637   4.931   8.231
27157SOL    HW283369   0.594   5.073   8.263
27158SOL     OW83370  14.155  13.727  13.238
27158SOL    HW183371  14.117  13.814  13.231
27158SOL    HW283372  14.243  13.736  13.204
27159SOL     OW83373   0.545  14.215   2.958
27159SOL    HW183374   0.581  14.256   2.880
27159SOL    HW283375   0.517  14.128   2.930
27160SOL     OW83376  11.296  11.726   2.775
27160SOL    HW183377  11.318  11.693   2.863
27160SOL    HW283378  11.201  11.719   2.770
27161SOL     OW83379  13.547   8.796   5.050
27161SOL    HW183380  13.528   8.767   5.139
27161SOL    HW283381  13.491   8.873   5.038
27162SOL     OW83382   1.335   4.037  10.648
27162SOL    HW183383   1.372   4.042  10.736
27162SOL    HW283384   1.394   3.978  10.601
27163SOL     OW83385  14.762   7.663  10.789
27163SOL    HW183386  14.750   7.750  10.828
27163SOL    HW283387  14.845   7.631  10.824
27164SOL     OW83388   0.987   3.422   4.295
27164SOL    HW183389   0.986   3.517   4.282
27164SOL    HW283390   1.028   3.387   4.216
27165SOL     OW83391   2.235  13.589  10.027
27165SOL    HW183392   2.262  13.542   9.948
27165SOL    HW283393   2.158  13.638  10.001
27166SOL     OW83394  12.645   3.945  11.305
27166SOL    HW183395  12.640   4.036  11.276
27166SOL    HW283396  12.560   3.908  11.282
27167SOL     OW83397   5.315  11.827  14.425
27167SOL    HW183398   5.242  11.777  14.461
27167SOL    HW283399   5.285  11.918  14.427
27168SOL     OW83400  12.303   4.578   7.010
27168SOL    HW183401  12.340   4.566   6.923
27168SOL    HW283402  12.378   4.571   7.069
27169SOL     OW83403  14.250  10.374   6.357
27169SOL    HW183404  14.161  10.377   6.323
27169SOL    HW283405  14.267  10.281   6.373
27170SOL     OW83406  10.841   9.678  10.367
27170SOL    HW183407  10.782   9.726  10.425
27170SOL    HW283408  10.790   9.602  10.337
27171SOL     OW83409  11.130  10.046   1.383
27171SOL    HW183410  11.153   9.954   1.369
27171SOL    HW283411  11.065  10.065   1.315
27172SOL     OW83412  12.608   3.879   5.651
27172SOL    HW183413  12.549   3.886   5.727
27172SOL    HW283414  12.571   3.940   5.587
27173SOL     OW83415  13.653   2.779   5.966
27173SOL    HW183416  13.704   2.849   6.005
27173SOL    HW283417  13.700   2.699   5.989
27174SOL     OW83418   7.479  13.458   8.976
27174SOL    HW183419   7.426  13.400   8.923
27174SOL    HW283420   7.428  13.471   9.056
27175SOL     OW83421   6.106   8.673  10.452
27175SOL    HW183422   6.062   8.757  10.439
27175SOL    HW283423   6.199   8.695  10.452
27176SOL     OW83424   2.278   3.984  12.991
27176SOL    HW183425   2.236   4.058  12.945
27176SOL    HW283426   2.350   4.024  13.039
27177SOL     OW83427   2.442  10.470  13.625
27177SOL    HW183428   2.440  10.469  13.721
27177SOL    HW283429   2.399  10.389  13.599
27178SOL     OW83430  12.335   0.417   5.573
27178SOL    HW183431  12.402   0.485   5.575
27178SOL    HW283432  12.275   0.444   5.503
27179SOL     OW83433  10.171   7.269  14.825
27179SOL    HW183434  10.083   7.305  14.828
27179SOL    HW283435  10.222   7.324   0.013
27180SOL     OW83436  14.523   9.290   9.384
27180SOL    HW183437  14.617   9.298   9.399
27180SOL    HW283438  14.495   9.220   9.442
27181SOL     OW83439   9.689  13.557   9.782
27181SOL    HW183440   9.747  13.498   9.830
27181SOL    HW283441   9.732  13.643   9.787
27182SOL     OW83442   9.045   2.646   6.137
27182SOL    HW183443   8.958   2.606   6.143
27182SOL    HW283444   9.035   2.718   6.075
27183SOL     OW83445  11.687   4.716  13.806
27183SOL    HW183446  11.643   4.728  13.722
27183SOL    HW283447  11.719   4.626  13.805
27184SOL     OW83448   7.579  14.729   1.490
27184SOL    HW183449   7.573  14.748   1.584
27184SOL    HW283450   7.546  14.808   1.447
27185SOL     OW83451  11.519   6.348   4.803
27185SOL    HW183452  11.533   6.431   4.851
27185SOL    HW283453  11.552   6.281   4.863
27186SOL     OW83454  14.115   9.272  13.663
27186SOL    HW183455  14.141   9.270  13.570
27186SOL    HW283456  14.022   9.247  13.662
27187SOL     OW83457  11.964  10.032   6.626
27187SOL    HW183458  12.027  10.103   6.612
27187SOL    HW283459  11.879  10.070   6.601
27188SOL     OW83460   4.604  12.492  12.715
27188SOL    HW183461   4.627  12.486  12.808
27188SOL    HW283462   4.604  12.585  12.696
27189SOL     OW83463  14.360  12.149   4.926
27189SOL    HW183464  14.373  12.073   4.983
27189SOL    HW283465  14.429  12.210   4.952
27190SOL     OW83466   0.245   1.899   4.072
27190SOL    HW183467   0.270   1.933   3.986
27190SOL    HW283468   0.312   1.934   4.131
27191SOL     OW83469   9.169   2.099  12.040
27191SOL    HW183470   9.182   2.189  12.070
27191SOL    HW283471   9.102   2.064  12.099
27192SOL     OW83472   7.516   9.687   9.300
27192SOL    HW183473   7.421   9.676   9.303
27192SOL    HW283474   7.543   9.645   9.218
27193SOL     OW83475   4.249  11.924   7.739
27193SOL    HW183476   4.203  11.972   7.808
27193SOL    HW283477   4.236  11.832   7.760
27194SOL     OW83478   9.622   6.226  10.399
27194SOL    HW183479   9.647   6.171  10.473
27194SOL    HW283480   9.699   6.280  10.382
27195SOL     OW83481  14.091   3.153  13.186
27195SOL    HW183482  14.102   3.174  13.279
27195SOL    HW283483  14.078   3.059  13.184
27196SOL     OW83484   2.875   8.351   6.209
27196SOL    HW183485   2.854   8.428   6.156
27196SOL    HW283486   2.971   8.352   6.215
27197SOL     OW83487   6.151   8.785   5.266
27197SOL    HW183488   6.231   8.737   5.245
27197SOL    HW283489   6.141   8.774   5.361
27198SOL     OW83490   1.642   1.286   5.210
27198SOL    HW183491   1.624   1.282   5.116
27198SOL    HW283492   1.567   1.243   5.251
27199SOL     OW83493   7.487   3.563   1.171
27199SOL    HW183494   7.400   3.541   1.138
27199SOL    HW283495   7.537   3.589   1.093
27200SOL     OW83496  13.418   7.815  14.424
27200SOL    HW183497  13.328   7.786  14.439
27200SOL    HW283498  13.459   7.742  14.379
27201SOL     OW83499   2.379  10.732   8.075
27201SOL    HW183500   2.345  10.660   8.021
27201SOL    HW283501   2.302  10.765   8.122
27202SOL     OW83502  13.157   3.766  14.059
27202SOL    HW183503  13.184   3.720  14.139
27202SOL    HW283504  13.197   3.853  14.068
27203SOL     OW83505   1.177   5.979   8.566
27203SOL    HW183506   1.090   5.971   8.605
27203SOL    HW283507   1.181   6.070   8.536
27204SOL     OW83508   8.709  12.145   2.658
27204SOL    HW183509   8.679  12.193   2.581
27204SOL    HW283510   8.635  12.088   2.680
27205SOL     OW83511   6.958   5.157   3.466
27205SOL    HW183512   6.938   5.197   3.550
27205SOL    HW283513   6.907   5.207   3.403
27206SOL     OW83514   6.689   3.506   9.258
27206SOL    HW183515   6.638   3.494   9.339
27206SOL    HW283516   6.707   3.600   9.255
27207SOL     OW83517  10.453   7.135   0.346
27207SOL    HW183518  10.390   7.197   0.382
27207SOL    HW283519  10.497   7.183   0.276
27208SOL     OW83520  12.438   7.759   5.550
27208SOL    HW183521  12.428   7.849   5.579
27208SOL    HW283522  12.387   7.707   5.613
27209SOL     OW83523  12.208   3.857   3.201
27209SOL    HW183524  12.122   3.865   3.241
27209SOL    HW283525  12.195   3.883   3.110
27210SOL     OW83526   2.678   8.856  11.864
27210SOL    HW183527   2.770   8.852  11.890
27210SOL    HW283528   2.678   8.842  11.770
27211SOL     OW83529   3.716   6.633  11.763
27211SOL    HW183530   3.643   6.689  11.737
27211SOL    HW283531   3.682   6.543  11.755
27212SOL     OW83532   8.241   8.155  10.979
27212SOL    HW183533   8.168   8.140  11.040
27212SOL    HW283534   8.214   8.233  10.929
27213SOL     OW83535  13.056   0.109  13.419
27213SOL    HW183536  12.975   0.159  13.432
27213SOL    HW283537  13.072   0.113  13.325
27214SOL     OW83538  12.207   0.187   3.613
27214SOL    HW183539  12.297   0.155   3.608
27214SOL    HW283540  12.153   0.109   3.606
27215SOL     OW83541   5.876  11.470  11.006
27215SOL    HW183542   5.796  11.421  11.026
27215SOL    HW283543   5.848  11.562  11.007
27216SOL     OW83544   6.256  11.307   7.104
27216SOL    HW183545   6.248  11.317   7.009
27216SOL    HW283546   6.174  11.342   7.139
27217SOL     OW83547   1.906   7.819  13.786
27217SOL    HW183548   1.854   7.763  13.844
27217SOL    HW283549   1.846   7.843  13.715
27218SOL     OW83550  14.253   2.978  11.230
27218SOL    HW183551  14.198   3.008  11.158
27218SOL    HW283552  14.312   3.051  11.247
27219SOL     OW83553   6.480   1.558   0.629
27219SOL    HW183554   6.462   1.589   0.718
27219SOL    HW283555   6.457   1.632   0.573
27220SOL     OW83556   3.438   6.529  13.583
27220SOL    HW183557   3.524   6.523  13.623
27220SOL    HW283558   3.388   6.457  13.622
27221SOL     OW83559  13.111   7.573   7.207
27221SOL    HW183560  13.149   7.660   7.197
27221SOL    HW283561  13.098   7.563   7.301
27222SOL     OW83562  10.662   7.413  10.099
27222SOL    HW183563  10.681   7.395  10.191
27222SOL    HW283564  10.594   7.481  10.101
27223SOL     OW83565   6.752  12.312   6.015
27223SOL    HW183566   6.700  12.367   6.073
27223SOL    HW283567   6.697  12.237   5.997
27224SOL     OW83568  10.495   3.076  11.054
27224SOL    HW183569  10.436   3.081  11.129
27224SOL    HW283570  10.444   3.035  10.985
27225SOL     OW83571   8.428   1.364   2.636
27225SOL    HW183572   8.436   1.441   2.692
27225SOL    HW283573   8.512   1.319   2.644
27226SOL     OW83574   5.918   5.272  10.750
27226SOL    HW183575   5.936   5.360  10.782
27226SOL    HW283576   5.826   5.256  10.772
27227SOL     OW83577  12.970   4.839  12.334
27227SOL    HW183578  12.910   4.912  12.316
27227SOL    HW283579  12.921   4.780  12.389
27228SOL     OW83580   3.991   1.859   3.370
27228SOL    HW183581   3.974   1.948   3.339
27228SOL    HW283582   4.075   1.865   3.416
27229SOL     OW83583  13.726  14.736   3.220
27229SOL    HW183584  13.758  14.645   3.218
27229SOL    HW283585  13.641  14.731   3.262
27230SOL     OW83586   2.338   9.744   7.802
27230SOL    HW183587   2.344   9.806   7.729
27230SOL    HW283588   2.397   9.673   7.778
27231SOL     OW83589  14.819  12.624   8.113
27231SOL    HW183590  14.816  12.717   8.093
27231SOL    HW283591  14.727  12.599   8.125
27232SOL     OW83592  12.434   4.493  11.816
27232SOL    HW183593  12.403   4.402  11.818
27232SOL    HW283594  12.516   4.492  11.865
27233SOL     OW83595   4.069   7.762   6.501
27233SOL    HW183596   4.129   7.823   6.544
27233SOL    HW283597   4.020   7.723   6.574
27234SOL     OW83598  10.320   3.916  13.883
27234SOL    HW183599  10.264   3.839  13.874
27234SOL    HW283600  10.400   3.884  13.926
27235SOL     OW83601   2.524  12.360   2.762
27235SOL    HW183602   2.574  12.429   2.806
27235SOL    HW283603   2.490  12.306   2.833
27236SOL     OW83604   7.766  14.861  12.392
27236SOL    HW183605   7.715  14.863  12.311
27236SOL    HW283606   7.850  14.822  12.367
27237SOL     OW83607   1.433  13.755  11.948
27237SOL    HW183608   1.478  13.672  11.936
27237SOL    HW283609   1.395  13.775  11.863
27238SOL     OW83610  11.761   6.897   2.836
27238SOL    HW183611  11.737   6.812   2.871
27238SOL    HW283612  11.685   6.926   2.786
27239SOL     OW83613   2.167   5.630  13.265
27239SOL    HW183614   2.085   5.675  13.283
27239SOL    HW283615   2.226   5.659  13.335
27240SOL     OW83616   1.678   4.094   6.712
27240SOL    HW183617   1.616   4.127   6.778
27240SOL    HW283618   1.759   4.142   6.729
27241SOL     OW83619  10.920   3.616  12.697
27241SOL    HW183620  10.854   3.686  12.692
27241SOL    HW283621  11.002   3.662  12.716
27242SOL     OW83622   1.401  11.900   8.390
27242SOL    HW183623   1.489  11.900   8.351
27242SOL    HW283624   1.413  11.862   8.476
27243SOL     OW83625  12.230   8.947   0.995
27243SOL    HW183626  12.290   9.013   1.030
27243SOL    HW283627  12.258   8.865   1.036
27244SOL     OW83628   6.698  13.283   3.162
27244SOL    HW183629   6.746  13.361   3.135
27244SOL    HW283630   6.641  13.312   3.233
27245SOL     OW83631   2.197   4.326   1.317
27245SOL    HW183632   2.165   4.400   1.266
27245SOL    HW283633   2.180   4.350   1.408
27246SOL     OW83634   0.793   8.297   3.079
27246SOL    HW183635   0.792   8.201   3.075
27246SOL    HW283636   0.700   8.321   3.081
27247SOL     OW83637   8.039  10.817  14.193
27247SOL    HW183638   7.957  10.789  14.152
27247SOL    HW283639   8.022  10.907  14.222
27248SOL     OW83640   6.117   5.046  12.296
27248SOL    HW183641   6.121   5.131  12.339
27248SOL    HW283642   6.076   4.989  12.361
27249SOL     OW83643   5.084  13.004   0.271
27249SOL    HW183644   5.030  12.981   0.195
27249SOL    HW283645   5.044  12.957   0.344
27250SOL     OW83646   4.339  13.284   4.923
27250SOL    HW183647   4.361  13.374   4.897
27250SOL    HW283648   4.267  13.294   4.985
27251SOL     OW83649   7.756   3.131   5.530
27251SOL    HW183650   7.839   3.178   5.523
27251SOL    HW283651   7.778   3.048   5.571
27252SOL     OW83652  10.350  10.607  14.689
27252SOL    HW183653  10.367  10.574  14.777
27252SOL    HW283654  10.264  10.571  14.666
27253SOL     OW83655  10.257  13.620   6.103
27253SOL    HW183656  10.345  13.591   6.128
27253SOL    HW283657  10.257  13.714   6.121
27254SOL     OW83658  14.468   6.820   5.440
27254SOL    HW183659  14.549   6.793   5.483
27254SOL    HW283660  14.408   6.840   5.512
27255SOL     OW83661  12.587  10.831  11.794
27255SOL    HW183662  12.602  10.876  11.877
27255SOL    HW283663  12.674  10.812  11.761
27256SOL     OW83664   3.115   7.841   3.859
27256SOL    HW183665   3.085   7.910   3.917
27256SOL    HW283666   3.114   7.762   3.913
27257SOL     OW83667  14.361  13.815  12.989
27257SOL    HW183668  14.444  13.846  12.952
27257SOL    HW283669  14.351  13.865  13.069
27258SOL     OW83670   2.635   9.718  14.644
27258SOL    HW183671   2.682   9.670  14.713
27258SOL    HW283672   2.594   9.649  14.592
27259SOL     OW83673  10.161   3.488   7.900
27259SOL    HW183674  10.219   3.541   7.845
27259SOL    HW283675  10.112   3.551   7.952
27260SOL     OW83676   4.621   8.801   9.536
27260SOL    HW183677   4.589   8.891   9.542
27260SOL    HW283678   4.715   8.808   9.552
27261SOL     OW83679   9.466  12.231   0.323
27261SOL    HW183680   9.427  12.172   0.388
27261SOL    HW283681   9.511  12.296   0.376
27262SOL     OW83682  12.982   7.621  11.281
27262SOL    HW183683  12.935   7.650  11.203
27262SOL    HW283684  12.917   7.622  11.351
27263SOL     OW83685   8.783   0.231   8.861
27263SOL    HW183686   8.812   0.238   8.770
27263SOL    HW283687   8.736   0.148   8.865
27264SOL     OW83688   7.824  13.123   3.980
27264SOL    HW183689   7.786  13.124   3.892
27264SOL    HW283690   7.757  13.081   4.035
27265SOL     OW83691  13.013   2.272   5.946
27265SOL    HW183692  13.085   2.334   5.944
27265SOL    HW283693  12.935   2.325   5.926
27266SOL     OW83694   1.134  11.627   8.888
27266SOL    HW183695   1.172  11.714   8.897
27266SOL    HW283696   1.041  11.639   8.910
27267SOL     OW83697   1.969   0.205  14.327
27267SOL    HW183698   1.907   0.202  14.400
27267SOL    HW283699   1.939   0.136  14.267
27268SOL     OW83700   4.189  11.762  10.103
27268SOL    HW183701   4.247  11.759  10.028
27268SOL    HW283702   4.174  11.855  10.119
27269SOL     OW83703  13.127   5.871   8.419
27269SOL    HW183704  13.148   5.833   8.334
27269SOL    HW283705  13.200   5.845   8.475
27270SOL     OW83706   0.881   6.592   6.494
27270SOL    HW183707   0.852   6.572   6.405
27270SOL    HW283708   0.883   6.688   6.498
27271SOL     OW83709   0.662   3.298   6.567
27271SOL    HW183710   0.583   3.244   6.561
27271SOL    HW283711   0.655   3.359   6.494
27272SOL     OW83712   4.057   9.234   8.845
27272SOL    HW183713   4.062   9.196   8.932
27272SOL    HW283714   4.070   9.328   8.858
27273SOL     OW83715   3.567  10.279   3.544
27273SOL    HW183716   3.493  10.288   3.485
27273SOL    HW283717   3.611  10.364   3.540
27274SOL     OW83718   4.317   9.640  12.567
27274SOL    HW183719   4.366   9.722  12.561
27274SOL    HW283720   4.236   9.656  12.520
27275SOL     OW83721   4.974  10.329   3.867
27275SOL    HW183722   5.032  10.375   3.806
27275SOL    HW283723   5.008  10.239   3.869
27276SOL     OW83724   5.445  14.040   6.193
27276SOL    HW183725   5.501  14.064   6.119
27276SOL    HW283726   5.487  13.964   6.232
27277SOL     OW83727  10.811   1.174  14.113
27277SOL    HW183728  10.728   1.159  14.067
27277SOL    HW283729  10.810   1.112  14.186
27278SOL     OW83730   9.916   2.169   9.515
27278SOL    HW183731   9.845   2.234   9.520
27278SOL    HW283732   9.909   2.119   9.596
27279SOL     OW83733   7.304   0.540   7.687
27279SOL    HW183734   7.223   0.489   7.699
27279SOL    HW283735   7.354   0.524   7.767
27280SOL     OW83736  12.800   8.970   7.163
27280SOL    HW183737  12.886   8.986   7.203
27280SOL    HW283738  12.750   8.926   7.232
27281SOL     OW83739  12.813  12.788   4.730
27281SOL    HW183740  12.738  12.730   4.741
27281SOL    HW283741  12.890  12.731   4.736
27282SOL     OW83742  11.897   2.242  10.842
27282SOL    HW183743  11.862   2.297  10.772
27282SOL    HW283744  11.824   2.233  10.904
27283SOL     OW83745   4.230   1.408   7.273
27283SOL    HW183746   4.321   1.432   7.259
27283SOL    HW283747   4.209   1.437   7.362
27284SOL     OW83748   6.701   4.440   6.623
27284SOL    HW183749   6.606   4.452   6.615
27284SOL    HW283750   6.711   4.361   6.677
27285SOL     OW83751   8.673  10.409   7.873
27285SOL    HW183752   8.596  10.353   7.877
27285SOL    HW283753   8.642  10.496   7.898
27286SOL     OW83754  11.008   4.383   6.669
27286SOL    HW183755  10.954   4.307   6.691
27286SOL    HW283756  11.097   4.348   6.666
27287SOL     OW83757   8.118  12.978  13.278
27287SOL    HW183758   8.066  12.902  13.304
27287SOL    HW283759   8.115  13.037  13.354
27288SOL     OW83760  12.092  11.547  13.403
27288SOL    HW183761  12.099  11.464  13.450
27288SOL    HW283762  12.129  11.528  13.316
27289SOL     OW83763   6.831   2.013  14.667
27289SOL    HW183764   6.746   1.995  14.707
27289SOL    HW283765   6.831   2.107  14.652
27290SOL     OW83766   7.332   3.304  10.415
27290SOL    HW183767   7.313   3.345  10.331
27290SOL    HW283768   7.302   3.214  10.406
27291SOL     OW83769   7.141   1.381   2.006
27291SOL    HW183770   7.179   1.410   2.089
27291SOL    HW283771   7.070   1.442   1.990
27292SOL     OW83772   0.770   7.610   6.603
27292SOL    HW183773   0.775   7.668   6.679
27292SOL    HW283774   0.847   7.554   6.611
27293SOL     OW83775  14.529   9.923   1.560
27293SOL    HW183776  14.515   9.993   1.496
27293SOL    HW283777  14.493   9.845   1.518
27294SOL     OW83778   1.308  14.440   3.555
27294SOL    HW183779   1.340  14.351   3.542
27294SOL    HW283780   1.240  14.432   3.622
27295SOL     OW83781   8.005  10.192   0.861
27295SOL    HW183782   7.937  10.164   0.800
27295SOL    HW283783   7.977  10.279   0.890
27296SOL     OW83784  10.088   1.196  10.346
27296SOL    HW183785  10.131   1.279  10.367
27296SOL    HW283786  10.001   1.203  10.385
27297SOL     OW83787   2.284   1.330   4.444
27297SOL    HW183788   2.194   1.331   4.477
27297SOL    HW283789   2.285   1.256   4.383
27298SOL     OW83790  12.557   8.785   7.683
27298SOL    HW183791  12.507   8.742   7.614
27298SOL    HW283792  12.505   8.770   7.762
27299SOL     OW83793  12.919  12.025   3.877
27299SOL    HW183794  12.967  12.026   3.795
27299SOL    HW283795  12.942  12.108   3.920
27300SOL     OW83796   5.163  13.332  12.986
27300SOL    HW183797   5.194  13.345  12.897
27300SOL    HW283798   5.204  13.250  13.014
27301SOL     OW83799   0.209   9.948  12.553
27301SOL    HW183800   0.257   9.884  12.500
27301SOL    HW283801   0.136   9.899  12.590
27302SOL     OW83802   6.762   1.558   4.184
27302SOL    HW183803   6.762   1.645   4.223
27302SOL    HW283804   6.674   1.549   4.147
27303SOL     OW83805  14.720   4.704   9.170
27303SOL    HW183806  14.810   4.736   9.165
27303SOL    HW283807  14.728   4.619   9.213
27304SOL     OW83808  13.870   8.093   4.378
27304SOL    HW183809  13.805   8.144   4.426
27304SOL    HW283810  13.878   8.012   4.428
27305SOL     OW83811  12.233  10.604  13.485
27305SOL    HW183812  12.150  10.561  13.465
27305SOL    HW283813  12.217  10.697  13.469
27306SOL     OW83814   5.144   6.608   0.380
27306SOL    HW183815   5.056   6.639   0.401
27306SOL    HW283816   5.135   6.567   0.294
27307SOL     OW83817  13.359   2.760   6.006
27307SOL    HW183818  13.308   2.835   5.975
27307SOL    HW283819  13.423   2.799   6.066
27308SOL     OW83820  13.489   5.934   8.005
27308SOL    HW183821  13.407   5.901   7.968
27308SOL    HW283822  13.476   5.930   8.100
27309SOL     OW83823  14.621  12.014   1.965
27309SOL    HW183824  14.689  12.052   1.910
27309SOL    HW283825  14.539  12.049   1.930
27310SOL     OW83826   1.507   7.137   9.412
27310SOL    HW183827   1.581   7.077   9.416
27310SOL    HW283828   1.545   7.223   9.427
27311SOL     OW83829  10.093   1.863   4.637
27311SOL    HW183830  10.133   1.949   4.645
27311SOL    HW283831  10.003   1.875   4.664
27312SOL     OW83832  13.914   7.338   3.038
27312SOL    HW183833  13.866   7.365   3.117
27312SOL    HW283834  13.951   7.253   3.060
27313SOL     OW83835   4.299   0.850   6.724
27313SOL    HW183836   4.275   0.893   6.807
27313SOL    HW283837   4.217   0.816   6.690
27314SOL     OW83838  11.516   3.230   7.583
27314SOL    HW183839  11.607   3.202   7.580
27314SOL    HW283840  11.466   3.157   7.547
27315SOL     OW83841  14.394   6.619   9.388
27315SOL    HW183842  14.311   6.651   9.352
27315SOL    HW283843  14.410   6.673   9.465
27316SOL     OW83844   5.299  10.596   4.392
27316SOL    HW183845   5.297  10.515   4.443
27316SOL    HW283846   5.373  10.585   4.332
27317SOL     OW83847  12.678   1.238   4.227
27317SOL    HW183848  12.772   1.249   4.214
27317SOL    HW283849  12.645   1.327   4.239
27318SOL     OW83850   1.997   7.492   1.298
27318SOL    HW183851   2.034   7.403   1.303
27318SOL    HW283852   2.011   7.529   1.385
27319SOL     OW83853  11.126  10.730   2.872
27319SOL    HW183854  11.151  10.719   2.780
27319SOL    HW283855  11.102  10.643   2.902
27320SOL     OW83856   4.371  10.928   7.340
27320SOL    HW183857   4.340  10.909   7.251
27320SOL    HW283858   4.426  11.006   7.330
27321SOL     OW83859  14.634   5.022   1.402
27321SOL    HW183860  14.554   5.070   1.421
27321SOL    HW283861  14.623   4.992   1.311
27322SOL     OW83862   5.261  10.282   8.880
27322SOL    HW183863   5.259  10.365   8.833
27322SOL    HW283864   5.354  10.257   8.879
27323SOL     OW83865  10.952   3.428  12.864
27323SOL    HW183866  10.919   3.494  12.802
27323SOL    HW283867  11.047   3.437  12.860
27324SOL     OW83868   0.497   0.501  10.364
27324SOL    HW183869   0.470   0.563  10.431
27324SOL    HW283870   0.580   0.537  10.331
27325SOL     OW83871   0.381   1.279  14.195
27325SOL    HW183872   0.458   1.333  14.179
27325SOL    HW283873   0.381   1.266  14.290
27326SOL     OW83874  12.453  11.565   0.678
27326SOL    HW183875  12.496  11.479   0.679
27326SOL    HW283876  12.391  11.562   0.750
27327SOL     OW83877   4.329   3.396   5.326
27327SOL    HW183878   4.248   3.444   5.306
27327SOL    HW283879   4.386   3.413   5.251
27328SOL     OW83880   5.505   3.018   7.097
27328SOL    HW183881   5.533   2.967   7.022
27328SOL    HW283882   5.585   3.059   7.130
27329SOL     OW83883   7.397   4.274  12.161
27329SOL    HW183884   7.467   4.330  12.129
27329SOL    HW283885   7.332   4.334  12.198
27330SOL     OW83886   2.257   9.893   5.244
27330SOL    HW183887   2.279   9.815   5.193
27330SOL    HW283888   2.232   9.858   5.330
27331SOL     OW83889  10.124   4.087  12.730
27331SOL    HW183890  10.103   4.176  12.702
27331SOL    HW283891  10.052   4.034  12.696
27332SOL     OW83892   3.830   1.144   8.734
27332SOL    HW183893   3.824   1.235   8.707
27332SOL    HW283894   3.813   1.094   8.653
27333SOL     OW83895  10.406   4.154  11.793
27333SOL    HW183896  10.457   4.187  11.867
27333SOL    HW283897  10.427   4.211  11.720
27334SOL     OW83898   7.233   6.852   7.837
27334SOL    HW183899   7.163   6.906   7.801
27334SOL    HW283900   7.225   6.768   7.791
27335SOL     OW83901   4.391   2.295   8.096
27335SOL    HW183902   4.343   2.227   8.048
27335SOL    HW283903   4.414   2.359   8.029
27336SOL     OW83904  13.231   3.518  13.939
27336SOL    HW183905  13.214   3.611  13.952
27336SOL    HW283906  13.158   3.474  13.984
27337SOL     OW83907  10.522   4.142  10.185
27337SOL    HW183908  10.520   4.236  10.198
27337SOL    HW283909  10.466   4.126  10.110
27338SOL     OW83910  14.072   3.796  12.991
27338SOL    HW183911  14.145   3.789  12.929
27338SOL    HW283912  14.033   3.881  12.973
27339SOL     OW83913  12.672   1.335   3.819
27339SOL    HW183914  12.613   1.393   3.866
27339SOL    HW283915  12.648   1.345   3.727
27340SOL     OW83916   7.314  13.104   8.108
27340SOL    HW183917   7.249  13.127   8.042
27340SOL    HW283918   7.303  13.170   8.176
27341SOL     OW83919   3.194   4.122  13.313
27341SOL    HW183920   3.243   4.199  13.341
27341SOL    HW283921   3.191   4.066  13.391
27342SOL     OW83922   0.637   5.903   6.627
27342SOL    HW183923   0.636   5.818   6.584
27342SOL    HW283924   0.546   5.933   6.623
27343SOL     OW83925  13.024  10.843   6.477
27343SOL    HW183926  13.104  10.853   6.426
27343SOL    HW283927  13.012  10.928   6.520
27344SOL     OW83928   1.666   8.298   3.579
27344SOL    HW183929   1.739   8.318   3.638
27344SOL    HW283930   1.695   8.330   3.493
27345SOL     OW83931   2.828   4.231   6.116
27345SOL    HW183932   2.914   4.256   6.149
27345SOL    HW283933   2.800   4.306   6.063
27346SOL     OW83934  12.284   8.995  13.163
27346SOL    HW183935  12.310   9.016  13.252
27346SOL    HW283936  12.236   9.072  13.133
27347SOL     OW83937   7.703   6.548  10.066
27347SOL    HW183938   7.784   6.515  10.105
27347SOL    HW283939   7.635   6.487  10.096
27348SOL     OW83940   4.883  13.990   6.017
27348SOL    HW183941   4.953  13.926   6.030
27348SOL    HW283942   4.908  14.038   5.938
27349SOL     OW83943  13.918   8.651  11.911
27349SOL    HW183944  13.960   8.735  11.891
27349SOL    HW283945  13.871   8.667  11.993
27350SOL     OW83946   3.420   7.082  11.722
27350SOL    HW183947   3.335   7.082  11.678
27350SOL    HW283948   3.400   7.101  11.813
27351SOL     OW83949   5.364   3.457   1.538
27351SOL    HW183950   5.384   3.415   1.622
27351SOL    HW283951   5.331   3.387   1.483
27352SOL     OW83952   0.326  12.151   5.786
27352SOL    HW183953   0.287  12.098   5.856
27352SOL    HW283954   0.318  12.096   5.708
27353SOL     OW83955  14.383   8.548   7.749
27353SOL    HW183956  14.398   8.593   7.832
27353SOL    HW283957  14.452   8.482   7.745
27354SOL     OW83958   4.656   7.388   8.864
27354SOL    HW183959   4.627   7.341   8.942
27354SOL    HW283960   4.576   7.406   8.815
27355SOL     OW83961   2.187  11.855   2.966
27355SOL    HW183962   2.192  11.902   2.882
27355SOL    HW283963   2.107  11.803   2.959
27356SOL     OW83964   3.619   3.339  11.641
27356SOL    HW183965   3.712   3.318  11.644
27356SOL    HW283966   3.614   3.420  11.590
27357SOL     OW83967   0.562   7.989   5.265
27357SOL    HW183968   0.487   8.024   5.216
27357SOL    HW283969   0.531   7.906   5.299
27358SOL     OW83970   2.209  13.648  10.305
27358SOL    HW183971   2.186  13.585  10.237
27358SOL    HW283972   2.238  13.726  10.258
27359SOL     OW83973  10.268   1.497   4.020
27359SOL    HW183974  10.279   1.550   3.941
27359SOL    HW283975  10.327   1.537   4.083
27360SOL     OW83976   3.265   0.026  13.218
27360SOL    HW183977   3.196   0.056  13.159
27360SOL    HW283978   3.334   0.092  13.210
27361SOL     OW83979  14.649   4.197   7.791
27361SOL    HW183980  14.616   4.156   7.711
27361SOL    HW283981  14.622   4.289   7.784
27362SOL     OW83982   3.534   1.156   8.226
27362SOL    HW183983   3.531   1.249   8.249
27362SOL    HW283984   3.503   1.153   8.135
27363SOL     OW83985   2.414   6.727  10.425
27363SOL    HW183986   2.448   6.673  10.354
27363SOL    HW283987   2.491   6.746  10.479
27364SOL     OW83988   5.540   0.435   1.385
27364SOL    HW183989   5.513   0.508   1.330
27364SOL    HW283990   5.474   0.367   1.369
27365SOL     OW83991   8.193   0.636   6.553
27365SOL    HW183992   8.113   0.622   6.604
27365SOL    HW283993   8.250   0.686   6.612
27366SOL     OW83994   3.311  13.152   8.391
27366SOL    HW183995   3.359  13.183   8.468
27366SOL    HW283996   3.283  13.232   8.346
27367SOL     OW83997   1.459   1.611  10.650
27367SOL    HW183998   1.521   1.671  10.692
27367SOL    HW283999   1.505   1.527  10.649
27368SOL     OW84000   4.868   8.926   1.431
27368SOL    HW184001   4.864   8.994   1.498
27368SOL    HW284002   4.780   8.887   1.431
27369SOL     OW84003   8.523   7.455  14.024
27369SOL    HW184004   8.605   7.420  14.059
27369SOL    HW284005   8.469   7.472  14.101
27370SOL     OW84006  13.604   1.422   3.398
27370SOL    HW184007  13.683   1.413   3.345
27370SOL    HW284008  13.532   1.426   3.335
27371SOL     OW84009   1.370  12.668  10.354
27371SOL    HW184010   1.277  12.686  10.360
27371SOL    HW284011   1.399  12.716  10.277
27372SOL     OW84012   8.661   5.762  10.187
27372SOL    HW184013   8.747   5.797  10.168
27372SOL    HW284014   8.620   5.749  10.101
27373SOL     OW84015  12.645  14.216   6.717
27373SOL    HW184016  12.573  14.255   6.668
27373SOL    HW284017  12.723  14.259   6.681
27374SOL     OW84018  12.254   9.065   7.508
27374SOL    HW184019  12.190   9.113   7.561
27374SOL    HW284020  12.216   8.978   7.499
27375SOL     OW84021   2.478   5.979  14.849
27375SOL    HW184022   2.475   5.884  14.839
27375SOL    HW284023   2.386   6.006  14.849
27376SOL     OW84024  13.826   5.123  10.372
27376SOL    HW184025  13.820   5.130  10.467
27376SOL    HW284026  13.916   5.148  10.351
27377SOL     OW84027  12.005   1.325   9.072
27377SOL    HW184028  12.100   1.317   9.070
27377SOL    HW284029  11.977   1.298   8.984
27378SOL     OW84030   1.954  11.308   5.005
27378SOL    HW184031   1.976  11.221   5.037
27378SOL    HW284032   1.864  11.322   5.034
27379SOL     OW84033  13.775   9.921  13.708
27379SOL    HW184034  13.747  10.013  13.714
27379SOL    HW284035  13.693   9.872  13.710
27380SOL     OW84036  13.561   9.315   6.322
27380SOL    HW184037  13.508   9.345   6.396
27380SOL    HW284038  13.505   9.329   6.245
27381SOL     OW84039   9.574   0.866  10.029
27381SOL    HW184040   9.624   0.945  10.009
27381SOL    HW284041   9.597   0.805   9.959
27382SOL     OW84042  12.727   0.664   9.087
27382SOL    HW184043  12.687   0.605   9.151
27382SOL    HW284044  12.661   0.731   9.071
27383SOL     OW84045   1.595   1.391  13.252
27383SOL    HW184046   1.648   1.425  13.180
27383SOL    HW284047   1.591   1.464  13.314
27384SOL     OW84048   3.969  12.333  10.939
27384SOL    HW184049   4.059  12.365  10.935
27384SOL    HW284050   3.974  12.253  10.991
27385SOL     OW84051   7.010  11.222  13.467
27385SOL    HW184052   7.055  11.164  13.527
27385SOL    HW284053   7.067  11.299  13.460
27386SOL     OW84054  14.514   3.648   8.490
27386SOL    HW184055  14.570   3.572   8.477
27386SOL    HW284056  14.575   3.721   8.502
27387SOL     OW84057   0.364  13.107   3.081
27387SOL    HW184058   0.421  13.181   3.103
27387SOL    HW284059   0.422  13.032   3.075
27388SOL     OW84060   1.912   4.465  10.586
27388SOL    HW184061   1.924   4.475  10.491
27388SOL    HW284062   1.962   4.537  10.624
27389SOL     OW84063  12.431   9.068   5.671
27389SOL    HW184064  12.413   8.975   5.654
27389SOL    HW284065  12.527   9.073   5.675
27390SOL     OW84066  14.280   4.358   4.445
27390SOL    HW184067  14.363   4.400   4.468
27390SOL    HW284068  14.292   4.266   4.471
27391SOL     OW84069   3.766  12.078   5.297
27391SOL    HW184070   3.765  11.983   5.309
27391SOL    HW284071   3.675  12.104   5.311
27392SOL     OW84072   4.225   5.120  14.868
27392SOL    HW184073   4.265   5.199  14.834
27392SOL    HW284074   4.131   5.134  14.858
27393SOL     OW84075   9.079   8.066  10.211
27393SOL    HW184076   9.141   8.138  10.201
27393SOL    HW284077   8.995   8.109  10.227
27394SOL     OW84078  12.763   8.641   6.196
27394SOL    HW184079  12.783   8.585   6.121
27394SOL    HW284080  12.849   8.663   6.232
27395SOL     OW84081   8.996  11.074   9.508
27395SOL    HW184082   8.928  11.140   9.524
27395SOL    HW284083   9.019  11.041   9.595
27396SOL     OW84084   9.243   0.301  14.496
27396SOL    HW184085   9.245   0.365  14.567
27396SOL    HW284086   9.335   0.285  14.475
27397SOL     OW84087   0.753  13.406  12.442
27397SOL    HW184088   0.682  13.391  12.379
27397SOL    HW284089   0.742  13.497  12.469
27398SOL     OW84090  12.350  11.792  12.948
27398SOL    HW184091  12.334  11.805  12.855
27398SOL    HW284092  12.262  11.784  12.986
27399SOL     OW84093   8.908   7.186   1.528
27399SOL    HW184094   8.914   7.149   1.616
27399SOL    HW284095   8.817   7.171   1.501
27400SOL     OW84096  14.112   6.441   4.517
27400SOL    HW184097  14.051   6.470   4.449
27400SOL    HW284098  14.194   6.425   4.471
27401SOL     OW84099   2.893  10.263   1.363
27401SOL    HW184100   2.972  10.210   1.350
27401SOL    HW284101   2.885  10.270   1.458
27402SOL     OW84102   9.497   6.272  12.593
27402SOL    HW184103   9.466   6.244  12.507
27402SOL    HW284104   9.436   6.233  12.655
27403SOL     OW84105   2.071   4.529  14.389
27403SOL    HW184106   2.160   4.528  14.422
27403SOL    HW284107   2.022   4.579  14.454
27404SOL     OW84108  10.527  11.563  11.980
27404SOL    HW184109  10.513  11.543  11.887
27404SOL    HW284110  10.614  11.527  11.999
27405SOL     OW84111   8.926  14.596   7.038
27405SOL    HW184112   9.018  14.568   7.036
27405SOL    HW284113   8.926  14.672   7.096
27406SOL     OW84114   2.263   6.550   3.554
27406SOL    HW184115   2.358   6.547   3.561
27406SOL    HW284116   2.234   6.582   3.640
27407SOL     OW84117  11.037  12.840   7.928
27407SOL    HW184118  11.034  12.834   8.024
27407SOL    HW284119  11.113  12.787   7.904
27408SOL     OW84120   9.394  13.817   3.368
27408SOL    HW184121   9.383  13.728   3.403
27408SOL    HW284122   9.313  13.833   3.320
27409SOL     OW84123  10.020   6.388   8.991
27409SOL    HW184124   9.972   6.454   9.041
27409SOL    HW284125  10.106   6.384   9.034
27410SOL     OW84126   7.415  13.790   3.764
27410SOL    HW184127   7.337  13.839   3.736
27410SOL    HW284128   7.488  13.836   3.723
27411SOL     OW84129   7.636  14.828  10.010
27411SOL    HW184130   7.664   0.034   9.963
27411SOL    HW284131   7.550  14.807   9.973
27412SOL     OW84132   6.812   5.621  10.063
27412SOL    HW184133   6.718   5.604  10.051
27412SOL    HW284134   6.836   5.565  10.137
27413SOL     OW84135  12.338   4.540   8.360
27413SOL    HW184136  12.409   4.477   8.376
27413SOL    HW284137  12.373   4.599   8.294
27414SOL     OW84138   3.084   7.439   6.001
27414SOL    HW184139   3.044   7.418   6.085
27414SOL    HW284140   3.153   7.502   6.022
27415SOL     OW84141   1.577  11.603   6.236
27415SOL    HW184142   1.544  11.570   6.320
27415SOL    HW284143   1.631  11.532   6.202
27416SOL     OW84144  13.229   0.316  13.792
27416SOL    HW184145  13.171   0.390  13.808
27416SOL    HW284146  13.243   0.317  13.697
27417SOL     OW84147   0.377   0.268   7.494
27417SOL    HW184148   0.307   0.214   7.457
27417SOL    HW284149   0.410   0.216   7.568
27418SOL     OW84150  12.686   2.699   4.748
27418SOL    HW184151  12.712   2.779   4.702
27418SOL    HW284152  12.610   2.725   4.801
27419SOL     OW84153  13.213   3.053   2.595
27419SOL    HW184154  13.256   3.138   2.602
27419SOL    HW284155  13.155   3.062   2.519
27420SOL     OW84156  10.503  13.731   2.126
27420SOL    HW184157  10.591  13.747   2.094
27420SOL    HW284158  10.496  13.636   2.133
27421SOL     OW84159   3.047   2.637  11.413
27421SOL    HW184160   3.093   2.706  11.460
27421SOL    HW284161   3.112   2.568  11.401
27422SOL     OW84162  11.143   7.831  14.673
27422SOL    HW184163  11.176   7.910  14.716
27422SOL    HW284164  11.048   7.841  14.674
27423SOL     OW84165   1.626   5.641  13.618
27423SOL    HW184166   1.709   5.667  13.578
27423SOL    HW284167   1.641   5.646  13.712
27424SOL     OW84168  14.400   2.200   2.193
27424SOL    HW184169  14.404   2.112   2.155
27424SOL    HW284170  14.338   2.247   2.136
27425SOL     OW84171   9.337   4.240  10.714
27425SOL    HW184172   9.261   4.189  10.741
27425SOL    HW284173   9.301   4.323  10.682
27426SOL     OW84174  10.110   9.458  11.573
27426SOL    HW184175  10.178   9.480  11.636
27426SOL    HW284176  10.125   9.519  11.500
27427SOL     OW84177   8.187   0.749  12.246
27427SOL    HW184178   8.264   0.757  12.302
27427SOL    HW284179   8.117   0.795  12.293
27428SOL     OW84180   8.023  13.325   6.831
27428SOL    HW184181   8.099  13.374   6.863
27428SOL    HW284182   7.949  13.359   6.880
27429SOL     OW84183   4.670  12.781   8.192
27429SOL    HW184184   4.720  12.737   8.123
27429SOL    HW284185   4.579  12.767   8.169
27430SOL     OW84186   8.263  12.175   1.133
27430SOL    HW184187   8.277  12.086   1.103
27430SOL    HW284188   8.265  12.169   1.229
27431SOL     OW84189  12.003  12.626   7.361
27431SOL    HW184190  12.029  12.718   7.361
27431SOL    HW284191  11.915  12.626   7.324
27432SOL     OW84192   2.132  12.562  12.404
27432SOL    HW184193   2.150  12.510  12.482
27432SOL    HW284194   2.191  12.637  12.411
27433SOL     OW84195  11.827  14.475   9.512
27433SOL    HW184196  11.770  14.505   9.582
27433SOL    HW284197  11.779  14.495   9.432
27434SOL     OW84198   6.107  10.574  13.541
27434SOL    HW184199   6.141  10.579  13.630
27434SOL    HW284200   6.126  10.660  13.503
27435SOL     OW84201   0.496  12.743   0.149
27435SOL    HW184202   0.534  12.669   0.101
27435SOL    HW284203   0.401  12.729   0.142
27436SOL     OW84204   9.248  14.564   4.788
27436SOL    HW184205   9.326  14.619   4.791
27436SOL    HW284206   9.267  14.499   4.721
27437SOL     OW84207  14.573   9.122   3.166
27437SOL    HW184208  14.633   9.087   3.100
27437SOL    HW284209  14.586   9.217   3.162
27438SOL     OW84210   5.056   8.294   2.250
27438SOL    HW184211   4.963   8.281   2.264
27438SOL    HW284212   5.065   8.302   2.155
27439SOL     OW84213  10.973   3.197   2.555
27439SOL    HW184214  10.903   3.145   2.516
27439SOL    HW284215  10.958   3.286   2.525
27440SOL     OW84216   3.058   0.551   2.605
27440SOL    HW184217   3.132   0.491   2.591
27440SOL    HW284218   2.999   0.503   2.663
27441SOL     OW84219  14.428   1.058  11.143
27441SOL    HW184220  14.476   1.117  11.202
27441SOL    HW284221  14.485   1.049  11.066
27442SOL     OW84222   2.259   4.688   5.151
27442SOL    HW184223   2.215   4.657   5.230
27442SOL    HW284224   2.293   4.609   5.109
27443SOL     OW84225  14.373  11.655   4.428
27443SOL    HW184226  14.345  11.565   4.444
27443SOL    HW284227  14.366  11.698   4.513
27444SOL     OW84228  11.141   3.570  14.329
27444SOL    HW184229  11.227   3.609  14.344
27444SOL    HW284230  11.118   3.528  14.412
27445SOL     OW84231  10.377   3.834  10.553
27445SOL    HW184232  10.394   3.820  10.460
27445SOL    HW284233  10.343   3.924  10.557
27446SOL     OW84234   5.486   4.483  11.355
27446SOL    HW184235   5.453   4.552  11.412
27446SOL    HW284236   5.531   4.530  11.284
27447SOL     OW84237   9.508   8.802   3.861
27447SOL    HW184238   9.511   8.897   3.861
27447SOL    HW284239   9.542   8.776   3.947
27448SOL     OW84240   5.845   0.864   5.080
27448SOL    HW184241   5.753   0.876   5.104
27448SOL    HW284242   5.883   0.951   5.084
27449SOL     OW84243   8.598  11.535   1.113
27449SOL    HW184244   8.592  11.628   1.092
27449SOL    HW284245   8.625  11.534   1.205
27450SOL     OW84246   7.504   7.562   2.157
27450SOL    HW184247   7.588   7.516   2.146
27450SOL    HW284248   7.449   7.499   2.203
27451SOL     OW84249  14.809   6.277   3.861
27451SOL    HW184250  14.848   6.206   3.810
27451SOL    HW284251  14.861   6.354   3.839
27452SOL     OW84252  11.705   3.223   4.727
27452SOL    HW184253  11.715   3.207   4.633
27452SOL    HW284254  11.647   3.153   4.757
27453SOL     OW84255  12.557  12.885   2.368
27453SOL    HW184256  12.620  12.863   2.299
27453SOL    HW284257  12.472  12.883   2.324
27454SOL     OW84258  12.610   3.380   0.636
27454SOL    HW184259  12.548   3.308   0.645
27454SOL    HW284260  12.573   3.435   0.567
27455SOL     OW84261  10.657   8.523   6.981
27455SOL    HW184262  10.675   8.490   6.893
27455SOL    HW284263  10.696   8.458   7.039
27456SOL     OW84264   8.342   3.373  12.990
27456SOL    HW184265   8.248   3.381  12.976
27456SOL    HW284266   8.373   3.324  12.914
27457SOL     OW84267   6.629  10.615   4.409
27457SOL    HW184268   6.551  10.560   4.401
27457SOL    HW284269   6.608  10.694   4.360
27458SOL     OW84270  12.977  13.302  11.370
27458SOL    HW184271  13.004  13.266  11.285
27458SOL    HW284272  13.056  13.302  11.423
27459SOL     OW84273   9.929  10.224   6.050
27459SOL    HW184274   9.980  10.157   6.005
27459SOL    HW284275   9.927  10.298   5.989
27460SOL     OW84276  14.222   8.066  10.313
27460SOL    HW184277  14.190   8.090  10.225
27460SOL    HW284278  14.142   8.050  10.363
27461SOL     OW84279   5.974  12.700  14.861
27461SOL    HW184280   5.998  12.741  14.778
27461SOL    HW284281   6.057  12.674   0.029
27462SOL     OW84282   0.424  10.572  13.861
27462SOL    HW184283   0.434  10.536  13.773
27462SOL    HW284284   0.474  10.512  13.917
27463SOL     OW84285   4.465   7.878  14.595
27463SOL    HW184286   4.399   7.918  14.539
27463SOL    HW284287   4.432   7.892  14.684
27464SOL     OW84288  14.615   9.851  12.433
27464SOL    HW184289  14.660   9.773  12.465
27464SOL    HW284290  14.681   9.896  12.379
27465SOL     OW84291   0.989  14.490   8.417
27465SOL    HW184292   0.977  14.397   8.432
27465SOL    HW284293   1.063  14.495   8.355
27466SOL     OW84294  14.783  10.205  14.564
27466SOL    HW184295  14.756  10.280  14.510
27466SOL    HW284296  14.769  10.235  14.654
27467SOL     OW84297  13.273  12.433   4.318
27467SOL    HW184298  13.207  12.449   4.385
27467SOL    HW284299  13.224  12.430   4.236
27468SOL     OW84300   0.504   1.297   8.185
27468SOL    HW184301   0.454   1.370   8.149
27468SOL    HW284302   0.442   1.251   8.242
27469SOL     OW84303   2.482   1.311  13.991
27469SOL    HW184304   2.548   1.307  14.060
27469SOL    HW284305   2.490   1.228  13.944
27470SOL     OW84306   4.267   9.861   8.863
27470SOL    HW184307   4.212   9.935   8.836
27470SOL    HW284308   4.238   9.789   8.807
27471SOL     OW84309  10.626  10.827   4.267
27471SOL    HW184310  10.663  10.771   4.199
27471SOL    HW284311  10.594  10.904   4.219
27472SOL     OW84312   4.469   3.250  12.977
27472SOL    HW184313   4.447   3.244  12.884
27472SOL    HW284314   4.562   3.227  12.982
27473SOL     OW84315   3.058   5.465  14.541
27473SOL    HW184316   3.008   5.452  14.460
27473SOL    HW284317   2.990   5.477  14.608
27474SOL     OW84318  10.938   2.747   9.350
27474SOL    HW184319  10.916   2.840   9.336
27474SOL    HW284320  10.924   2.707   9.264
27475SOL     OW84321   0.837   5.400  13.545
27475SOL    HW184322   0.743   5.409  13.565
27475SOL    HW284323   0.875   5.483  13.574
27476SOL     OW84324  11.761   6.787  11.725
27476SOL    HW184325  11.784   6.872  11.764
27476SOL    HW284326  11.833   6.768  11.664
27477SOL     OW84327  13.386  13.673  13.866
27477SOL    HW184328  13.304  13.626  13.852
27477SOL    HW284329  13.413  13.700  13.778
27478SOL     OW84330   3.420   0.069   1.344
27478SOL    HW184331   3.446   0.155   1.376
27478SOL    HW284332   3.446   0.009   1.414
27479SOL     OW84333  10.758   2.989   7.764
27479SOL    HW184334  10.773   2.904   7.804
27479SOL    HW284335  10.662   2.999   7.762
27480SOL     OW84336   9.669  14.068   6.848
27480SOL    HW184337   9.629  14.013   6.781
27480SOL    HW284338   9.597  14.091   6.906
27481SOL     OW84339   9.358   4.613   2.585
27481SOL    HW184340   9.323   4.532   2.549
27481SOL    HW284341   9.449   4.594   2.604
27482SOL     OW84342  12.633   6.141   3.398
27482SOL    HW184343  12.600   6.210   3.455
27482SOL    HW284344  12.559   6.116   3.343
27483SOL     OW84345   7.005   3.355  14.053
27483SOL    HW184346   6.998   3.421  14.122
27483SOL    HW284347   6.983   3.402  13.973
27484SOL     OW84348  11.392  13.513   2.576
27484SOL    HW184349  11.346  13.444   2.624
27484SOL    HW284350  11.331  13.587   2.577
27485SOL     OW84351   7.855   0.719   0.269
27485SOL    HW184352   7.940   0.724   0.313
27485SOL    HW284353   7.868   0.767   0.188
27486SOL     OW84354  12.647   9.022  11.439
27486SOL    HW184355  12.704   9.015  11.362
27486SOL    HW284356  12.680   8.958  11.500
27487SOL     OW84357   8.986   3.170   6.784
27487SOL    HW184358   9.049   3.156   6.855
27487SOL    HW284359   9.009   3.104   6.718
27488SOL     OW84360   7.092   5.656   3.974
27488SOL    HW184361   7.103   5.708   3.894
27488SOL    HW284362   7.060   5.571   3.943
27489SOL     OW84363  14.796   6.629   9.801
27489SOL    HW184364   0.014   6.598   9.805
27489SOL    HW284365  14.745   6.554   9.770
27490SOL     OW84366   5.250   1.680   0.527
27490SOL    HW184367   5.300   1.601   0.548
27490SOL    HW284368   5.311   1.733   0.474
27491SOL     OW84369  14.614   7.698  11.579
27491SOL    HW184370  14.670   7.775  11.568
27491SOL    HW284371  14.525   7.731  11.575
27492SOL     OW84372  12.018   6.220  13.498
27492SOL    HW184373  11.923   6.224  13.503
27492SOL    HW284374  12.047   6.211  13.588
27493SOL     OW84375  11.675  13.828  13.126
27493SOL    HW184376  11.611  13.815  13.195
27493SOL    HW284377  11.700  13.740  13.098
27494SOL     OW84378   4.976  14.694   0.427
27494SOL    HW184379   4.965  14.601   0.409
27494SOL    HW284380   5.035  14.697   0.503
27495SOL     OW84381  13.284   3.951   0.949
27495SOL    HW184382  13.263   3.942   0.856
27495SOL    HW284383  13.360   3.895   0.962
27496SOL     OW84384   7.510   1.775  10.881
27496SOL    HW184385   7.419   1.752  10.897
27496SOL    HW284386   7.506   1.859  10.835
27497SOL     OW84387  13.109  13.954   4.820
27497SOL    HW184388  13.026  13.975   4.777
27497SOL    HW284389  13.174  13.961   4.750
27498SOL     OW84390   1.756   9.892   6.161
27498SOL    HW184391   1.673   9.931   6.134
27498SOL    HW284392   1.746   9.877   6.255
27499SOL     OW84393  13.066   1.925   8.569
27499SOL    HW184394  13.032   2.005   8.611
27499SOL    HW284395  13.151   1.911   8.610
27500SOL     OW84396   8.134   6.181   0.716
27500SOL    HW184397   8.225   6.208   0.730
27500SOL    HW284398   8.140   6.095   0.675
27501SOL     OW84399   8.639   2.909   7.274
27501SOL    HW184400   8.579   2.846   7.314
27501SOL    HW284401   8.689   2.945   7.348
27502SOL     OW84402  10.356  13.086   9.754
27502SOL    HW184403  10.350  13.179   9.775
27502SOL    HW284404  10.389  13.085   9.664
27503SOL     OW84405   3.726  12.534   3.317
27503SOL    HW184406   3.747  12.597   3.385
27503SOL    HW284407   3.650  12.486   3.351
27504SOL     OW84408   8.283  12.428  13.807
27504SOL    HW184409   8.278  12.487  13.731
27504SOL    HW284410   8.338  12.475  13.870
27505SOL     OW84411   2.523   3.950   2.578
27505SOL    HW184412   2.542   3.931   2.486
27505SOL    HW284413   2.521   4.046   2.582
27506SOL     OW84414   3.658  12.541   6.427
27506SOL    HW184415   3.721  12.538   6.499
27506SOL    HW284416   3.572  12.541   6.470
27507SOL     OW84417   8.957   0.910   5.592
27507SOL    HW184418   8.931   0.964   5.517
27507SOL    HW284419   9.049   0.890   5.576
27508SOL     OW84420  14.448  14.762   0.491
27508SOL    HW184421  14.404  14.827   0.547
27508SOL    HW284422  14.391  14.686   0.494
27509SOL     OW84423  14.728  12.098  14.567
27509SOL    HW184424  14.747  12.149  14.488
27509SOL    HW284425  14.811  12.096  14.615
27510SOL     OW84426   2.810   9.987  12.920
27510SOL    HW184427   2.880   9.952  12.866
27510SOL    HW284428   2.770   9.910  12.960
27511SOL     OW84429  11.878  13.081  12.349
27511SOL    HW184430  11.965  13.118  12.365
27511SOL    HW284431  11.856  13.110  12.261
27512SOL     OW84432   8.991   5.250   6.445
27512SOL    HW184433   8.915   5.195   6.467
27512SOL    HW284434   9.028   5.209   6.366
27513SOL     OW84435   7.976  10.155   6.886
27513SOL    HW184436   7.886  10.181   6.909
27513SOL    HW284437   7.980  10.163   6.791
27514SOL     OW84438   2.203   1.732  11.688
27514SOL    HW184439   2.159   1.725  11.773
27514SOL    HW284440   2.256   1.652  11.681
27515SOL     OW84441   4.576  11.122   4.837
27515SOL    HW184442   4.522  11.139   4.760
27515SOL    HW284443   4.642  11.190   4.835
27516SOL     OW84444   1.418   3.439   9.087
27516SOL    HW184445   1.513   3.433   9.082
27516SOL    HW284446   1.387   3.374   9.024
27517SOL     OW84447   0.204   5.037  14.757
27517SOL    HW184448   0.286   4.990  14.773
27517SOL    HW284449   0.183   5.078  14.841
27518SOL     OW84450   8.913   5.311  12.264
27518SOL    HW184451   8.940   5.223  12.288
27518SOL    HW284452   8.989   5.350  12.222
27519SOL     OW84453   6.379  11.863   1.397
27519SOL    HW184454   6.424  11.857   1.481
27519SOL    HW284455   6.368  11.772   1.368
27520SOL     OW84456   6.278   8.961   3.795
27520SOL    HW184457   6.214   8.929   3.859
27520SOL    HW284458   6.232   8.955   3.711
27521SOL     OW84459   5.539  13.378  11.119
27521SOL    HW184460   5.557  13.312  11.186
27521SOL    HW284461   5.463  13.344  11.072
27522SOL     OW84462  13.662   3.400   5.580
27522SOL    HW184463  13.684   3.442   5.663
27522SOL    HW284464  13.740   3.349   5.559
27523SOL     OW84465   0.274   3.970   7.429
27523SOL    HW184466   0.223   3.938   7.354
27523SOL    HW284467   0.355   3.919   7.426
27524SOL     OW84468   0.991   1.708   2.029
27524SOL    HW184469   1.061   1.678   1.972
27524SOL    HW284470   1.034   1.728   2.112
27525SOL     OW84471   4.782   0.137   8.448
27525SOL    HW184472   4.854   0.136   8.385
27525SOL    HW284473   4.703   0.132   8.395
27526SOL     OW84474   8.143   4.306  13.621
27526SOL    HW184475   8.141   4.385  13.568
27526SOL    HW284476   8.204   4.325  13.692
27527SOL     OW84477  13.057   1.134   7.489
27527SOL    HW184478  13.038   1.197   7.419
27527SOL    HW284479  13.145   1.158   7.519
27528SOL     OW84480  13.994   1.516   5.943
27528SOL    HW184481  13.984   1.421   5.936
27528SOL    HW284482  13.910   1.548   5.976
27529SOL     OW84483  10.151  11.882  12.248
27529SOL    HW184484  10.198  11.823  12.190
27529SOL    HW284485  10.151  11.838  12.333
27530SOL     OW84486   3.263   3.352   5.432
27530SOL    HW184487   3.187   3.353   5.373
27530SOL    HW284488   3.338   3.343   5.375
27531SOL     OW84489  10.899   7.053   6.122
27531SOL    HW184490  10.900   7.056   6.026
27531SOL    HW284491  10.834   7.119   6.147
27532SOL     OW84492   3.153   7.554   6.461
27532SOL    HW184493   3.061   7.528   6.447
27532SOL    HW284494   3.155   7.582   6.553
27533SOL     OW84495  14.527   4.969   6.466
27533SOL    HW184496  14.460   5.003   6.526
27533SOL    HW284497  14.560   5.047   6.421
27534SOL     OW84498   5.464  13.064   0.949
27534SOL    HW184499   5.551  13.066   0.988
27534SOL    HW284500   5.418  12.994   0.996
27535SOL     OW84501   3.273   4.617   8.074
27535SOL    HW184502   3.318   4.649   7.996
27535SOL    HW284503   3.325   4.541   8.101
27536SOL     OW84504  13.411  11.202  13.095
27536SOL    HW184505  13.328  11.227  13.134
27536SOL    HW284506  13.402  11.225  13.002
27537SOL     OW84507   3.020  14.728   6.676
27537SOL    HW184508   3.115  14.726   6.667
27537SOL    HW284509   3.005  14.703   6.767
27538SOL     OW84510   7.285   0.812   6.403
27538SOL    HW184511   7.304   0.857   6.485
27538SOL    HW284512   7.303   0.877   6.335
27539SOL     OW84513   9.868   5.968   9.814
27539SOL    HW184514   9.865   5.882   9.855
27539SOL    HW284515   9.776   5.989   9.797
27540SOL     OW84516   8.269   7.052  10.019
27540SOL    HW184517   8.266   7.079  10.111
27540SOL    HW284518   8.229   7.125   9.971
27541SOL     OW84519  14.308   6.394  14.688
27541SOL    HW184520  14.297   6.309  14.730
27541SOL    HW284521  14.402   6.407  14.683
27542SOL     OW84522   8.411  10.040   3.238
27542SOL    HW184523   8.367   9.994   3.310
27542SOL    HW284524   8.504  10.029   3.256
27543SOL     OW84525   5.415   1.428   6.490
27543SOL    HW184526   5.446   1.353   6.439
27543SOL    HW284527   5.359   1.477   6.429
27544SOL     OW84528   8.271  12.305   6.630
27544SOL    HW184529   8.317  12.222   6.622
27544SOL    HW284530   8.178  12.283   6.621
27545SOL     OW84531  11.167   1.906   7.091
27545SOL    HW184532  11.228   1.856   7.037
27545SOL    HW284533  11.124   1.840   7.146
27546SOL     OW84534   8.002   1.216   0.713
27546SOL    HW184535   7.955   1.196   0.631
27546SOL    HW284536   8.017   1.130   0.753
27547SOL     OW84537   9.547   4.700  14.122
27547SOL    HW184538   9.584   4.776  14.167
27547SOL    HW284539   9.560   4.627  14.183
27548SOL     OW84540   9.892   4.382   6.498
27548SOL    HW184541   9.891   4.396   6.592
27548SOL    HW284542   9.940   4.457   6.462
27549SOL     OW84543  13.779   9.680   1.047
27549SOL    HW184544  13.742   9.769   1.048
27549SOL    HW284545  13.784   9.656   1.139
27550SOL     OW84546  10.382   4.942  12.649
27550SOL    HW184547  10.469   4.975  12.672
27550SOL    HW284548  10.374   4.959  12.555
27551SOL     OW84549   8.918   7.738   5.365
27551SOL    HW184550   8.830   7.773   5.377
27551SOL    HW284551   8.951   7.780   5.286
27552SOL     OW84552  12.968  13.362   6.992
27552SOL    HW184553  12.904  13.431   6.977
27552SOL    HW284554  12.935  13.315   7.069
27553SOL     OW84555   1.735   8.212  13.799
27553SOL    HW184556   1.644   8.243  13.804
27553SOL    HW284557   1.741   8.171  13.713
27554SOL     OW84558   6.125   5.440   1.858
27554SOL    HW184559   6.183   5.488   1.917
27554SOL    HW284560   6.170   5.357   1.841
27555SOL     OW84561   0.468   5.733   0.199
27555SOL    HW184562   0.531   5.804   0.207
27555SOL    HW284563   0.521   5.654   0.189
27556SOL     OW84564   5.045   5.150   9.202
27556SOL    HW184565   5.031   5.148   9.297
27556SOL    HW284566   4.966   5.109   9.166
27557SOL     OW84567  11.467   1.752   0.440
27557SOL    HW184568  11.387   1.706   0.413
27557SOL    HW284569  11.497   1.795   0.360
27558SOL     OW84570  11.992  11.399   7.415
27558SOL    HW184571  12.087  11.397   7.407
27558SOL    HW284572  11.969  11.313   7.448
27559SOL     OW84573   2.391  11.377   0.840
27559SOL    HW184574   2.365  11.286   0.822
27559SOL    HW284575   2.483  11.369   0.868
27560SOL     OW84576  13.604   2.605   2.649
27560SOL    HW184577  13.541   2.629   2.581
27560SOL    HW284578  13.612   2.684   2.703
27561SOL     OW84579   4.102  12.819   2.124
27561SOL    HW184580   4.158  12.886   2.086
27561SOL    HW284581   4.022  12.866   2.148
27562SOL     OW84582   0.278   5.218   8.467
27562SOL    HW184583   0.359   5.256   8.433
27562SOL    HW284584   0.291   5.213   8.562
27563SOL     OW84585  14.246  11.602   3.109
27563SOL    HW184586  14.309  11.545   3.153
27563SOL    HW284587  14.271  11.598   3.016
27564SOL     OW84588  12.999   3.948   8.922
27564SOL    HW184589  13.084   3.925   8.883
27564SOL    HW284590  12.988   4.041   8.902
27565SOL     OW84591   2.233   7.416   9.744
27565SOL    HW184592   2.140   7.437   9.730
27565SOL    HW284593   2.280   7.477   9.688
27566SOL     OW84594   5.356   1.213  11.690
27566SOL    HW184595   5.353   1.123  11.723
27566SOL    HW284596   5.449   1.237  11.697
27567SOL     OW84597   3.980  12.636   6.325
27567SOL    HW184598   3.971  12.695   6.399
27567SOL    HW284599   4.029  12.562   6.360
27568SOL     OW84600  14.613  10.707   9.851
27568SOL    HW184601  14.568  10.628   9.881
27568SOL    HW284602  14.682  10.721   9.916
27569SOL     OW84603  14.718   9.727   7.406
27569SOL    HW184604  14.684   9.639   7.421
27569SOL    HW284605  14.762   9.750   7.488
27570SOL     OW84606  12.860   9.730   1.446
27570SOL    HW184607  12.876   9.698   1.357
27570SOL    HW284608  12.865   9.825   1.439
27571SOL     OW84609   1.476   3.312   4.723
27571SOL    HW184610   1.461   3.401   4.754
27571SOL    HW284611   1.405   3.261   4.762
27572SOL     OW84612   4.054  11.469   9.257
27572SOL    HW184613   3.969  11.512   9.247
27572SOL    HW284614   4.049  11.428   9.344
27573SOL     OW84615   9.081   9.429   8.964
27573SOL    HW184616   9.041   9.515   8.980
27573SOL    HW284617   9.095   9.427   8.869
27574SOL     OW84618  13.569   5.610   9.110
27574SOL    HW184619  13.493   5.590   9.165
27574SOL    HW284620  13.636   5.638   9.172
27575SOL     OW84621   5.319   1.829  12.845
27575SOL    HW184622   5.346   1.859  12.759
27575SOL    HW284623   5.235   1.872  12.862
27576SOL     OW84624   9.758   0.145   2.836
27576SOL    HW184625   9.814   0.080   2.878
27576SOL    HW284626   9.711   0.187   2.908
27577SOL     OW84627  10.729   7.886  13.982
27577SOL    HW184628  10.673   7.933  14.044
27577SOL    HW284629  10.812   7.934  13.985
27578SOL     OW84630   8.631   7.640   1.266
27578SOL    HW184631   8.585   7.590   1.333
27578SOL    HW284632   8.597   7.729   1.275
27579SOL     OW84633  11.661   0.836   4.987
27579SOL    HW184634  11.641   0.930   4.987
27579SOL    HW284635  11.582   0.795   4.952
27580SOL     OW84636  10.265  13.828   0.422
27580SOL    HW184637  10.271  13.914   0.382
27580SOL    HW284638  10.279  13.844   0.516
27581SOL     OW84639   4.456   7.083   0.295
27581SOL    HW184640   4.478   7.026   0.369
27581SOL    HW284641   4.541   7.109   0.260
27582SOL     OW84642   4.550  10.041   6.964
27582SOL    HW184643   4.544  10.037   7.059
27582SOL    HW284644   4.626   9.988   6.942
27583SOL     OW84645   7.062  10.618   3.497
27583SOL    HW184646   7.134  10.660   3.544
27583SOL    HW284647   7.097  10.598   3.411
27584SOL     OW84648   5.141  12.655   1.732
27584SOL    HW184649   5.177  12.724   1.788
27584SOL    HW284650   5.174  12.574   1.771
27585SOL     OW84651   9.137   3.812  13.954
27585SOL    HW184652   9.172   3.893  13.918
27585SOL    HW284653   9.136   3.752  13.880
27586SOL     OW84654   7.140   0.997  10.038
27586SOL    HW184655   7.234   1.009  10.050
27586SOL    HW284656   7.100   1.071  10.083
27587SOL     OW84657   1.006  10.514  12.399
27587SOL    HW184658   0.997  10.608  12.381
27587SOL    HW284659   1.046  10.509  12.486
27588SOL     OW84660   1.498  10.670  13.207
27588SOL    HW184661   1.468  10.593  13.257
27588SOL    HW284662   1.571  10.637  13.155
27589SOL     OW84663   4.878  12.393  14.429
27589SOL    HW184664   4.829  12.322  14.470
27589SOL    HW284665   4.900  12.452  14.501
27590SOL     OW84666   0.253   8.718  12.385
27590SOL    HW184667   0.207   8.740  12.466
27590SOL    HW284668   0.346   8.723  12.407
27591SOL     OW84669  10.110  14.326   5.436
27591SOL    HW184670  10.163  14.270   5.492
27591SOL    HW284671  10.112  14.283   5.351
27592SOL     OW84672  10.555   1.148  12.621
27592SOL    HW184673  10.463   1.130  12.600
27592SOL    HW284674  10.566   1.241  12.605
27593SOL     OW84675   7.755  14.437   5.455
27593SOL    HW184676   7.720  14.355   5.421
27593SOL    HW284677   7.826  14.459   5.395
27594SOL     OW84678   4.432   1.866   5.958
27594SOL    HW184679   4.376   1.842   6.032
27594SOL    HW284680   4.507   1.910   5.999
27595SOL     OW84681   8.508   6.461   4.670
27595SOL    HW184682   8.457   6.481   4.748
27595SOL    HW284683   8.572   6.396   4.699
27596SOL     OW84684   5.150   7.146   3.382
27596SOL    HW184685   5.201   7.183   3.454
27596SOL    HW284686   5.149   7.052   3.399
27597SOL     OW84687  11.347  11.436   3.435
27597SOL    HW184688  11.272  11.432   3.376
27597SOL    HW284689  11.401  11.361   3.410
27598SOL     OW84690   9.521  14.260   3.106
27598SOL    HW184691   9.452  14.249   3.041
27598SOL    HW284692   9.502  14.193   3.172
27599SOL     OW84693   3.750  13.779  13.162
27599SOL    HW184694   3.695  13.707  13.133
27599SOL    HW284695   3.708  13.857  13.126
27600SOL     OW84696   7.038   4.135  11.753
27600SOL    HW184697   6.999   4.218  11.777
27600SOL    HW284698   7.007   4.117  11.664
27601SOL     OW84699   7.161  13.752  10.549
27601SOL    HW184700   7.169  13.657  10.547
27601SOL    HW284701   7.134  13.773  10.638
27602SOL     OW84702   0.080   1.714   3.876
27602SOL    HW184703   0.174   1.699   3.865
27602SOL    HW284704   0.048   1.732   3.787
27603SOL     OW84705  11.136  11.580   5.810
27603SOL    HW184706  11.045  11.565   5.835
27603SOL    HW284707  11.134  11.663   5.762
27604SOL     OW84708   6.859   0.956   6.428
27604SOL    HW184709   6.928   0.987   6.486
27604SOL    HW284710   6.885   0.866   6.406
27605SOL     OW84711  12.717   4.027   0.062
27605SOL    HW184712  12.689   4.118   0.067
27605SOL    HW284713  12.787   4.020   0.127
27606SOL     OW84714  11.913  12.726  14.607
27606SOL    HW184715  11.975  12.663  14.571
27606SOL    HW284716  11.925  12.719  14.702
27607SOL     OW84717  12.400   3.602   6.508
27607SOL    HW184718  12.399   3.670   6.575
27607SOL    HW284719  12.485   3.611   6.466
27608SOL     OW84720   4.565  11.292   3.759
27608SOL    HW184721   4.623  11.234   3.807
27608SOL    HW284722   4.491  11.236   3.734
27609SOL     OW84723   0.646  13.263   2.615
27609SOL    HW184724   0.573  13.242   2.673
27609SOL    HW284725   0.606  13.276   2.530
27610SOL     OW84726  11.434   2.130   3.562
27610SOL    HW184727  11.463   2.039   3.570
27610SOL    HW284728  11.482   2.177   3.630
27611SOL     OW84729   7.508   2.272  14.533
27611SOL    HW184730   7.504   2.176  14.533
27611SOL    HW284731   7.562   2.293  14.456
27612SOL     OW84732   1.152  12.786  11.126
27612SOL    HW184733   1.085  12.815  11.187
27612SOL    HW284734   1.212  12.861  11.119
27613SOL     OW84735   9.438  12.133  14.480
27613SOL    HW184736   9.421  12.197  14.412
27613SOL    HW284737   9.448  12.185  14.560
27614SOL     OW84738   5.543   3.372   3.207
27614SOL    HW184739   5.546   3.468   3.209
27614SOL    HW284740   5.465   3.349   3.257
27615SOL     OW84741   7.466   8.355  13.567
27615SOL    HW184742   7.517   8.381  13.643
27615SOL    HW284743   7.468   8.431  13.509
27616SOL     OW84744   5.637   1.960   7.725
27616SOL    HW184745   5.580   2.022   7.770
27616SOL    HW284746   5.714   1.952   7.781
27617SOL     OW84747   3.388   7.619   2.524
27617SOL    HW184748   3.325   7.622   2.596
27617SOL    HW284749   3.471   7.648   2.562
27618SOL     OW84750  11.133   1.976   3.318
27618SOL    HW184751  11.042   2.000   3.335
27618SOL    HW284752  11.146   1.896   3.369
27619SOL     OW84753  13.789  10.350  13.691
27619SOL    HW184754  13.855  10.308  13.745
27619SOL    HW284755  13.819  10.336  13.601
27620SOL     OW84756   8.607   0.969  10.513
27620SOL    HW184757   8.663   0.992  10.439
27620SOL    HW284758   8.595   1.052  10.560
27621SOL     OW84759  10.740  14.344   6.096
27621SOL    HW184760  10.669  14.385   6.144
27621SOL    HW284761  10.819  14.367   6.145
27622SOL     OW84762   0.886   2.789  10.768
27622SOL    HW184763   0.950   2.860  10.755
27622SOL    HW284764   0.818   2.806  10.703
27623SOL     OW84765  11.273  10.562   4.190
27623SOL    HW184766  11.257  10.528   4.278
27623SOL    HW284767  11.307  10.487   4.141
27624SOL     OW84768   2.388   9.749  11.258
27624SOL    HW184769   2.366   9.842  11.268
27624SOL    HW284770   2.477   9.741  11.294
27625SOL     OW84771  10.963   9.196  14.324
27625SOL    HW184772  10.976   9.213  14.417
27625SOL    HW284773  10.911   9.116  14.322
27626SOL     OW84774   4.954  14.431   1.882
27626SOL    HW184775   5.034  14.479   1.900
27626SOL    HW284776   4.928  14.457   1.794
27627SOL     OW84777   9.978   7.884   9.801
27627SOL    HW184778   9.975   7.804   9.853
27627SOL    HW284779  10.045   7.938   9.842
27628SOL     OW84780   5.806   4.298  14.404
27628SOL    HW184781   5.818   4.271  14.313
27628SOL    HW284782   5.794   4.393  14.399
27629SOL     OW84783   7.969   6.199   1.193
27629SOL    HW184784   8.037   6.255   1.155
27629SOL    HW284785   7.931   6.153   1.118
27630SOL     OW84786   5.886   7.942   9.651
27630SOL    HW184787   5.822   8.009   9.629
27630SOL    HW284788   5.941   7.936   9.572
27631SOL     OW84789  10.045   9.903   9.006
27631SOL    HW184790   9.982   9.950   9.059
27631SOL    HW284791  10.124   9.957   9.009
27632SOL     OW84792   3.868   9.580   7.998
27632SOL    HW184793   3.860   9.674   8.013
27632SOL    HW284794   3.959   9.559   8.020
27633SOL     OW84795   3.683  13.430  14.281
27633SOL    HW184796   3.773  13.413  14.253
27633SOL    HW284797   3.675  13.525  14.282
27634SOL     OW84798  14.268   1.547  13.536
27634SOL    HW184799  14.351   1.549  13.489
27634SOL    HW284800  14.285   1.489  13.611
27635SOL     OW84801  10.337   1.672   5.855
27635SOL    HW184802  10.363   1.601   5.913
27635SOL    HW284803  10.383   1.749   5.889
27636SOL     OW84804  13.748   1.129   2.744
27636SOL    HW184805  13.728   1.221   2.729
27636SOL    HW284806  13.795   1.101   2.666
27637SOL     OW84807   1.927   9.195   4.416
27637SOL    HW184808   1.884   9.111   4.400
27637SOL    HW284809   1.988   9.204   4.343
27638SOL     OW84810  12.367   3.776  10.938
27638SOL    HW184811  12.332   3.865  10.944
27638SOL    HW284812  12.301   3.727  10.889
27639SOL     OW84813   0.350   8.475  10.742
27639SOL    HW184814   0.428   8.431  10.708
27639SOL    HW284815   0.277   8.437  10.692
27640SOL     OW84816  10.329  12.306  14.040
27640SOL    HW184817  10.248  12.291  14.088
27640SOL    HW284818  10.337  12.231  13.981
27641SOL     OW84819   9.866   1.510   0.493
27641SOL    HW184820   9.778   1.547   0.486
27641SOL    HW284821   9.908   1.532   0.410
27642SOL     OW84822   6.723   9.141   6.140
27642SOL    HW184823   6.810   9.103   6.137
27642SOL    HW284824   6.670   9.076   6.187
27643SOL     OW84825   3.576   9.098   2.756
27643SOL    HW184826   3.621   9.138   2.681
27643SOL    HW284827   3.484   9.092   2.728
27644SOL     OW84828   9.574   3.541   8.200
27644SOL    HW184829   9.591   3.635   8.187
27644SOL    HW284830   9.540   3.511   8.116
27645SOL     OW84831  11.280   9.795  12.461
27645SOL    HW184832  11.286   9.889  12.447
27645SOL    HW284833  11.329   9.756  12.388
27646SOL     OW84834   9.376   9.050  11.862
27646SOL    HW184835   9.465   9.017  11.877
27646SOL    HW284836   9.375   9.078  11.771
27647SOL     OW84837   0.053   0.005   2.637
27647SOL    HW184838  14.858   0.004   2.705
27647SOL    HW284839   0.008  14.848   2.558
27648SOL     OW84840  13.699   0.464  13.460
27648SOL    HW184841  13.622   0.412  13.485
27648SOL    HW284842  13.736   0.417  13.384
27649SOL     OW84843   1.632   8.140   2.021
27649SOL    HW184844   1.617   8.092   1.940
27649SOL    HW284845   1.607   8.230   1.999
27650SOL     OW84846  14.792   4.324  13.655
27650SOL    HW184847  14.757   4.387  13.593
27650SOL    HW284848  14.793   4.241  13.607
27651SOL     OW84849  10.491   0.910   3.565
27651SOL    HW184850  10.403   0.903   3.529
27651SOL    HW284851  10.499   0.834   3.623
27652SOL     OW84852   7.269  12.378  14.488
27652SOL    HW184853   7.200  12.387  14.422
27652SOL    HW284854   7.280  12.467  14.523
27653SOL     OW84855   0.536  11.841   2.786
27653SOL    HW184856   0.568  11.832   2.876
27653SOL    HW284857   0.610  11.811   2.732
27654SOL     OW84858   7.883   6.997   7.108
27654SOL    HW184859   7.899   7.050   7.185
27654SOL    HW284860   7.818   6.933   7.136
27655SOL     OW84861   9.931   2.277  13.607
27655SOL    HW184862   9.902   2.248  13.521
27655SOL    HW284863  10.001   2.217  13.632
27656SOL     OW84864   1.018   3.030  10.830
27656SOL    HW184865   1.076   3.001  10.760
27656SOL    HW284866   1.043   3.122  10.844
27657SOL     OW84867   9.020   6.277   1.708
27657SOL    HW184868   9.071   6.196   1.709
27657SOL    HW284869   8.932   6.248   1.683
27658SOL     OW84870  12.370  13.019   7.827
27658SOL    HW184871  12.385  13.014   7.922
27658SOL    HW284872  12.342  13.109   7.813
27659SOL     OW84873   2.311   2.560  13.465
27659SOL    HW184874   2.294   2.539  13.557
27659SOL    HW284875   2.229   2.537  13.420
27660SOL     OW84876   2.416   8.486   9.120
27660SOL    HW184877   2.493   8.543   9.124
27660SOL    HW284878   2.404   8.458   9.211
27661SOL     OW84879   7.508   0.996   6.117
27661SOL    HW184880   7.555   0.991   6.200
27661SOL    HW284881   7.533   1.080   6.080
27662SOL     OW84882   2.090   5.484   8.191
27662SOL    HW184883   2.011   5.536   8.207
27662SOL    HW284884   2.062   5.394   8.204
27663SOL     OW84885   1.022   5.093   1.400
27663SOL    HW184886   1.064   5.015   1.363
27663SOL    HW284887   0.933   5.064   1.420
27664SOL     OW84888   1.732  10.536   6.925
27664SOL    HW184889   1.663  10.584   6.971
27664SOL    HW284890   1.780  10.490   6.994
27665SOL     OW84891  11.274   0.872   9.045
27665SOL    HW184892  11.346   0.908   9.096
27665SOL    HW284893  11.286   0.908   8.957
27666SOL     OW84894   1.814   7.317   9.131
27666SOL    HW184895   1.748   7.251   9.111
27666SOL    HW284896   1.897   7.269   9.127
27667SOL     OW84897   3.179   5.652   4.855
27667SOL    HW184898   3.217   5.595   4.788
27667SOL    HW284899   3.233   5.638   4.932
27668SOL     OW84900  12.043   2.886  11.545
27668SOL    HW184901  12.056   2.951  11.476
27668SOL    HW284902  11.995   2.933  11.614
27669SOL     OW84903  11.252  14.528   2.297
27669SOL    HW184904  11.246  14.594   2.367
27669SOL    HW284905  11.164  14.524   2.260
27670SOL     OW84906   0.525   3.529  11.662
27670SOL    HW184907   0.556   3.601  11.717
27670SOL    HW284908   0.602   3.475  11.648
27671SOL     OW84909  12.794   2.337   3.842
27671SOL    HW184910  12.735   2.302   3.775
27671SOL    HW284911  12.852   2.264   3.864
27672SOL     OW84912   2.349  13.707  13.479
27672SOL    HW184913   2.414  13.768  13.444
27672SOL    HW284914   2.373  13.623  13.441
27673SOL     OW84915   1.773  12.160   1.567
27673SOL    HW184916   1.801  12.138   1.656
27673SOL    HW284917   1.690  12.115   1.555
27674SOL     OW84918   4.817  10.372   5.217
27674SOL    HW184919   4.912  10.373   5.204
27674SOL    HW284920   4.784  10.316   5.146
27675SOL     OW84921   2.549   7.140   9.393
27675SOL    HW184922   2.472   7.150   9.449
27675SOL    HW284923   2.623   7.132   9.454
27676SOL     OW84924   9.964   0.063  12.344
27676SOL    HW184925  10.016  14.863  12.378
27676SOL    HW284926   9.909   0.090  12.417
27677SOL     OW84927   5.300   2.170  14.228
27677SOL    HW184928   5.364   2.140  14.293
27677SOL    HW284929   5.327   2.128  14.147
27678SOL     OW84930   3.963   9.198   3.486
27678SOL    HW184931   4.050   9.161   3.473
27678SOL    HW284932   3.904   9.123   3.475
27679SOL     OW84933  14.694   8.594   4.918
27679SOL    HW184934  14.783   8.592   4.883
27679SOL    HW284935  14.706   8.611   5.012
27680SOL     OW84936   7.450  14.348   8.086
27680SOL    HW184937   7.476  14.266   8.127
27680SOL    HW284938   7.383  14.384   8.145
27681SOL     OW84939   0.653  10.737  13.596
27681SOL    HW184940   0.667  10.646  13.573
27681SOL    HW284941   0.626  10.779  13.514
27682SOL     OW84942   1.334   3.393  10.500
27682SOL    HW184943   1.323   3.344  10.419
27682SOL    HW284944   1.425   3.425  10.496
27683SOL     OW84945  11.998  14.242   2.804
27683SOL    HW184946  11.966  14.212   2.718
27683SOL    HW284947  11.952  14.187   2.867
27684SOL     OW84948  11.447   8.165  12.016
27684SOL    HW184949  11.388   8.241  12.022
27684SOL    HW284950  11.499   8.168  12.096
27685SOL     OW84951   0.100   6.365  11.594
27685SOL    HW184952   0.118   6.353  11.688
27685SOL    HW284953   0.029   6.429  11.591
27686SOL     OW84954   7.738   3.787  12.276
27686SOL    HW184955   7.654   3.807  12.234
27686SOL    HW284956   7.747   3.853  12.345
27687SOL     OW84957   5.435   4.822   8.665
27687SOL    HW184958   5.373   4.892   8.689
27687SOL    HW284959   5.419   4.808   8.571
27688SOL     OW84960   8.757  14.826   5.526
27688SOL    HW184961   8.727   0.021   5.587
27688SOL    HW284962   8.802  14.762   5.582
27689SOL     OW84963  12.444   9.146   5.011
27689SOL    HW184964  12.480   9.066   5.050
27689SOL    HW284965  12.518   9.189   4.971
27690SOL     OW84966   5.430   1.217  11.392
27690SOL    HW184967   5.524   1.199  11.395
27690SOL    HW284968   5.392   1.156  11.454
27691SOL     OW84969   8.422   2.674  10.378
27691SOL    HW184970   8.369   2.702  10.303
27691SOL    HW284971   8.400   2.736  10.447
27692SOL     OW84972  10.543   7.539   6.534
27692SOL    HW184973  10.475   7.544   6.467
27692SOL    HW284974  10.500   7.498   6.609
27693SOL     OW84975  10.847  12.347   0.628
27693SOL    HW184976  10.867  12.428   0.673
27693SOL    HW284977  10.883  12.278   0.684
27694SOL     OW84978   7.060   8.066   7.698
27694SOL    HW184979   7.037   8.031   7.784
27694SOL    HW284980   7.081   7.989   7.645
27695SOL     OW84981   6.168   6.953  14.716
27695SOL    HW184982   6.219   6.926  14.792
27695SOL    HW284983   6.126   7.035  14.742
27696SOL     OW84984   9.776  12.358   0.071
27696SOL    HW184985   9.843  12.418   0.103
27696SOL    HW284986   9.693  12.397   0.099
27697SOL     OW84987   6.815   9.910  12.856
27697SOL    HW184988   6.778   9.952  12.778
27697SOL    HW284989   6.803   9.975  12.926
27698SOL     OW84990   4.100   4.581   7.586
27698SOL    HW184991   4.140   4.554   7.669
27698SOL    HW284992   4.125   4.673   7.576
27699SOL     OW84993  12.157  14.617   5.394
27699SOL    HW184994  12.238  14.637   5.441
27699SOL    HW284995  12.091  14.674   5.434
27700SOL     OW84996  12.192   0.079  13.995
27700SOL    HW184997  12.205   0.055  13.903
27700SOL    HW284998  12.189  14.867  14.041
27701SOL     OW84999   9.576   7.716   8.983
27701SOL    HW185000   9.634   7.706   8.907
27701SOL    HW285001   9.563   7.811   8.990
27702SOL     OW85002   2.958   6.310   6.286
27702SOL    HW185003   3.015   6.369   6.238
27702SOL    HW285004   2.971   6.333   6.378
27703SOL     OW85005   5.125   7.567   0.748
27703SOL    HW185006   5.212   7.540   0.721
27703SOL    HW285007   5.098   7.503   0.813
27704SOL     OW85008   0.630   9.727  11.131
27704SOL    HW185009   0.687   9.685  11.067
27704SOL    HW285010   0.689   9.767  11.194
27705SOL     OW85011  13.390   4.393   1.495
27705SOL    HW185012  13.421   4.481   1.514
27705SOL    HW285013  13.401   4.345   1.577
27706SOL     OW85014   2.150   6.600  11.097
27706SOL    HW185015   2.129   6.691  11.077
27706SOL    HW285016   2.127   6.552  11.018
27707SOL     OW85017   1.742   7.169   9.928
27707SOL    HW185018   1.748   7.134   9.839
27707SOL    HW285019   1.828   7.209   9.943
27708SOL     OW85020   0.853  14.038   3.617
27708SOL    HW185021   0.764  14.034   3.583
27708SOL    HW285022   0.897  14.102   3.561
27709SOL     OW85023  11.608   1.243   7.284
27709SOL    HW185024  11.658   1.181   7.339
27709SOL    HW285025  11.638   1.329   7.312
27710SOL     OW85026  12.284   2.209   5.892
27710SOL    HW185027  12.248   2.291   5.923
27710SOL    HW285028  12.378   2.225   5.884
27711SOL     OW85029  13.665   4.489   9.925
27711SOL    HW185030  13.589   4.472   9.981
27711SOL    HW285031  13.645   4.571   9.880
27712SOL     OW85032   6.354   2.114   1.014
27712SOL    HW185033   6.429   2.059   1.039
27712SOL    HW285034   6.313   2.137   1.097
27713SOL     OW85035  11.508   0.934  14.518
27713SOL    HW185036  11.530   0.990  14.592
27713SOL    HW285037  11.419   0.904  14.536
27714SOL     OW85038   6.638  12.418   4.326
27714SOL    HW185039   6.571  12.350   4.315
27714SOL    HW285040   6.713  12.372   4.364
27715SOL     OW85041  11.587   7.719   9.690
27715SOL    HW185042  11.671   7.702   9.733
27715SOL    HW285043  11.543   7.782   9.748
27716SOL     OW85044   6.587   4.981  12.231
27716SOL    HW185045   6.520   4.957  12.168
27716SOL    HW285046   6.542   4.983  12.315
27717SOL     OW85047   0.042  13.242  12.924
27717SOL    HW185048   0.018  13.197  13.005
27717SOL    HW285049  14.838  13.231  12.867
27718SOL     OW85050   6.750  14.483   1.131
27718SOL    HW185051   6.689  14.415   1.101
27718SOL    HW285052   6.697  14.542   1.184
27719SOL     OW85053   6.133  12.030   0.477
27719SOL    HW185054   6.119  11.960   0.414
27719SOL    HW285055   6.204  11.999   0.533
27720SOL     OW85056   3.005   1.987   4.104
27720SOL    HW185057   2.966   1.939   4.031
27720SOL    HW285058   3.063   2.051   4.064
27721SOL     OW85059   2.131   2.504   3.833
27721SOL    HW185060   2.158   2.595   3.847
27721SOL    HW285061   2.175   2.456   3.903
27722SOL     OW85062   5.154   8.917  13.150
27722SOL    HW185063   5.239   8.875  13.155
27722SOL    HW285064   5.096   8.850  13.111
27723SOL     OW85065   5.409  11.481   9.195
27723SOL    HW185066   5.343  11.504   9.260
27723SOL    HW285067   5.431  11.564   9.152
27724SOL     OW85068   7.412  10.494  11.347
27724SOL    HW185069   7.326  10.462  11.319
27724SOL    HW285070   7.469  10.416  11.344
27725SOL     OW85071  11.718   1.599   0.483
27725SOL    HW185072  11.652   1.666   0.468
27725SOL    HW285073  11.697   1.564   0.570
27726SOL     OW85074   8.876   8.499   6.496
27726SOL    HW185075   8.966   8.470   6.487
27726SOL    HW285076   8.864   8.510   6.591
27727SOL     OW85077   6.258  10.134   5.823
27727SOL    HW185078   6.278  10.102   5.911
27727SOL    HW285079   6.225  10.223   5.837
27728SOL     OW85080  10.320   3.448  10.256
27728SOL    HW185081  10.263   3.375  10.280
27728SOL    HW285082  10.409   3.415  10.270
27729SOL     OW85083  12.554  10.264  12.465
27729SOL    HW185084  12.537  10.170  12.471
27729SOL    HW285085  12.636  10.277  12.513
27730SOL     OW85086   2.423  14.112  11.231
27730SOL    HW185087   2.341  14.120  11.182
27730SOL    HW285088   2.415  14.176  11.302
27731SOL     OW85089   8.357   3.823   3.798
27731SOL    HW185090   8.368   3.883   3.724
27731SOL    HW285091   8.312   3.876   3.864
27732SOL     OW85092   3.063   9.224  12.468
27732SOL    HW185093   3.159   9.225  12.467
27732SOL    HW285094   3.039   9.152  12.526
27733SOL     OW85095   1.235   5.230  13.948
27733SOL    HW185096   1.311   5.185  13.985
27733SOL    HW285097   1.167   5.162  13.944
27734SOL     OW85098  13.502   5.959   9.343
27734SOL    HW185099  13.517   6.048   9.313
27734SOL    HW285100  13.590   5.924   9.360
27735SOL     OW85101   8.706   6.675   7.838
27735SOL    HW185102   8.641   6.614   7.802
27735SOL    HW285103   8.734   6.635   7.920
27736SOL     OW85104   3.468   4.923  10.038
27736SOL    HW185105   3.493   4.929   9.946
27736SOL    HW285106   3.478   4.830  10.059
27737SOL     OW85107   0.741   6.227   0.201
27737SOL    HW185108   0.797   6.300   0.174
27737SOL    HW285109   0.791   6.180   0.267
27738SOL     OW85110   5.516  14.593  10.044
27738SOL    HW185111   5.456  14.520  10.057
27738SOL    HW285112   5.552  14.611  10.131
27739SOL     OW85113  12.765   4.271   4.870
27739SOL    HW185114  12.807   4.318   4.942
27739SOL    HW285115  12.804   4.309   4.791
27740SOL     OW85116   7.088   8.361  14.237
27740SOL    HW185117   7.027   8.338  14.306
27740SOL    HW285118   7.174   8.339  14.272
27741SOL     OW85119   5.525  12.976  13.853
27741SOL    HW185120   5.453  12.914  13.846
27741SOL    HW285121   5.542  13.004  13.763
27742SOL     OW85122   2.202   8.003   4.831
27742SOL    HW185123   2.173   7.951   4.907
27742SOL    HW285124   2.151   8.084   4.836
27743SOL     OW85125   3.524   9.740   8.494
27743SOL    HW185126   3.613   9.710   8.508
27743SOL    HW285127   3.531   9.836   8.489
27744SOL     OW85128  10.605   1.506  12.277
27744SOL    HW185129  10.645   1.512  12.190
27744SOL    HW285130  10.647   1.575  12.328
27745SOL     OW85131  14.001  13.999   0.315
27745SOL    HW185132  13.923  13.996   0.260
27745SOL    HW285133  13.991  13.924   0.374
27746SOL     OW85134   5.705  10.252   9.883
27746SOL    HW185135   5.706  10.157   9.895
27746SOL    HW285136   5.735  10.265   9.793
27747SOL     OW85137   4.263   1.367  12.656
27747SOL    HW185138   4.328   1.432  12.682
27747SOL    HW285139   4.305   1.317  12.586
27748SOL     OW85140  14.101  10.333  13.457
27748SOL    HW185141  14.088  10.262  13.519
27748SOL    HW285142  14.017  10.342  13.412
27749SOL     OW85143   0.327   9.376   1.830
27749SOL    HW185144   0.323   9.332   1.745
27749SOL    HW285145   0.397   9.331   1.877
27750SOL     OW85146   4.170  12.270   4.918
27750SOL    HW185147   4.194  12.283   5.009
27750SOL    HW285148   4.225  12.198   4.888
27751SOL     OW85149  10.702   1.016   5.549
27751SOL    HW185150  10.670   1.058   5.628
27751SOL    HW285151  10.796   1.010   5.561
27752SOL     OW85152   8.487   0.245  12.715
27752SOL    HW185153   8.543   0.314  12.752
27752SOL    HW285154   8.507   0.245  12.622
27753SOL     OW85155   6.792   1.779   9.074
27753SOL    HW185156   6.884   1.760   9.054
27753SOL    HW285157   6.756   1.810   8.991
27754SOL     OW85158  14.777   0.119   4.442
27754SOL    HW185159  14.731   0.131   4.358
27754SOL    HW285160  14.812   0.031   4.437
27755SOL     OW85161  14.768   8.734   8.899
27755SOL    HW185162  14.683   8.760   8.935
27755SOL    HW285163  14.804   8.815   8.862
27756SOL     OW85164   9.496  14.019   1.778
27756SOL    HW185165   9.526  14.093   1.726
27756SOL    HW285166   9.418  13.987   1.732
27757SOL     OW85167   1.775   8.707   3.086
27757SOL    HW185168   1.740   8.771   3.024
27757SOL    HW285169   1.870   8.714   3.078
27758SOL     OW85170   2.219  13.200   3.330
27758SOL    HW185171   2.173  13.154   3.401
27758SOL    HW285172   2.311  13.199   3.357
27759SOL     OW85173   5.585  14.488  13.181
27759SOL    HW185174   5.514  14.441  13.137
27759SOL    HW285175   5.577  14.578  13.149
27760SOL     OW85176   1.770   9.888   8.927
27760SOL    HW185177   1.778   9.825   8.856
27760SOL    HW285178   1.841   9.866   8.987
27761SOL     OW85179  11.401   5.042   0.581
27761SOL    HW185180  11.433   5.102   0.514
27761SOL    HW285181  11.309   5.027   0.558
27762SOL     OW85182  13.257   0.019   7.635
27762SOL    HW185183  13.343  14.854   7.656
27762SOL    HW285184  13.200  14.816   7.624
27763SOL     OW85185  11.225  12.099  12.015
27763SOL    HW185186  11.237  12.009  11.987
27763SOL    HW285187  11.278  12.150  11.954
27764SOL     OW85188   1.854   4.124   5.710
27764SOL    HW185189   1.852   4.076   5.627
27764SOL    HW285190   1.870   4.057   5.776
27765SOL     OW85191  11.112  13.952   6.304
27765SOL    HW185192  11.156  13.907   6.376
27765SOL    HW285193  11.183  13.978   6.245
27766SOL     OW85194  13.431   8.196   1.904
27766SOL    HW185195  13.490   8.235   1.969
27766SOL    HW285196  13.457   8.236   1.821
27767SOL     OW85197  13.195   2.104   7.988
27767SOL    HW185198  13.243   2.156   7.923
27767SOL    HW285199  13.123   2.065   7.939
27768SOL     OW85200  12.616  12.626   3.839
27768SOL    HW185201  12.635  12.686   3.911
27768SOL    HW285202  12.584  12.547   3.881
27769SOL     OW85203   4.360   6.940  13.958
27769SOL    HW185204   4.284   6.967  14.009
27769SOL    HW285205   4.375   6.849  13.981
27770SOL     OW85206   4.350   5.581  10.297
27770SOL    HW185207   4.284   5.512  10.302
27770SOL    HW285208   4.433   5.535  10.306
27771SOL     OW85209  11.590  10.072  10.341
27771SOL    HW185210  11.568  10.082  10.433
27771SOL    HW285211  11.519  10.020  10.304
27772SOL     OW85212  14.756  10.547   3.585
27772SOL    HW185213  14.722  10.459   3.573
27772SOL    HW285214  14.773  10.554   3.679
27773SOL     OW85215   1.101   4.199   5.175
27773SOL    HW185216   1.166   4.177   5.242
27773SOL    HW285217   1.089   4.118   5.126
27774SOL     OW85218  13.006  13.935  14.639
27774SOL    HW185219  12.961  13.979  14.567
27774SOL    HW285220  13.012  13.844  14.613
27775SOL     OW85221   6.229   4.675   6.852
27775SOL    HW185222   6.153   4.620   6.831
27775SOL    HW285223   6.293   4.615   6.889
27776SOL     OW85224   0.575  12.416   3.460
27776SOL    HW185225   0.588  12.354   3.532
27776SOL    HW285226   0.660  12.422   3.417
27777SOL     OW85227   9.434   2.136  11.021
27777SOL    HW185228   9.339   2.138  11.013
27777SOL    HW285229   9.464   2.098  10.938
27778SOL     OW85230   0.782   0.365  12.101
27778SOL    HW185231   0.699   0.360  12.148
27778SOL    HW285232   0.762   0.326  12.015
27779SOL     OW85233  11.890   7.673   7.950
27779SOL    HW185234  11.946   7.727   7.895
27779SOL    HW285235  11.951   7.620   8.003
27780SOL     OW85236   4.912  10.523   6.223
27780SOL    HW185237   4.973  10.469   6.174
27780SOL    HW285238   4.899  10.601   6.169
27781SOL     OW85239   1.769   4.361   4.843
27781SOL    HW185240   1.784   4.276   4.884
27781SOL    HW285241   1.857   4.395   4.826
27782SOL     OW85242   2.983   6.101   7.403
27782SOL    HW185243   3.015   6.124   7.490
27782SOL    HW285244   2.903   6.051   7.419
27783SOL     OW85245   3.044  10.680   0.683
27783SOL    HW185246   3.058  10.720   0.769
27783SOL    HW285247   3.051  10.753   0.621
27784SOL     OW85248   4.713   2.072  12.204
27784SOL    HW185249   4.805   2.095  12.191
27784SOL    HW285250   4.682   2.132  12.271
27785SOL     OW85251   3.235   3.697   9.616
27785SOL    HW185252   3.270   3.734   9.697
27785SOL    HW285253   3.163   3.755   9.593
27786SOL     OW85254   5.337   8.028  13.132
27786SOL    HW185255   5.250   7.989  13.132
27786SOL    HW285256   5.387   7.975  13.195
27787SOL     OW85257   6.054   5.769  11.586
27787SOL    HW185258   6.031   5.740  11.674
27787SOL    HW285259   5.980   5.823  11.559
27788SOL     OW85260   7.377  11.261  13.153
27788SOL    HW185261   7.381  11.344  13.201
27788SOL    HW285262   7.285  11.254  13.126
27789SOL     OW85263   0.673   0.467  11.159
27789SOL    HW185264   0.712   0.439  11.076
27789SOL    HW285265   0.713   0.553  11.176
27790SOL     OW85266  10.951   4.201  12.355
27790SOL    HW185267  10.953   4.106  12.347
27790SOL    HW285268  11.000   4.232  12.279
27791SOL     OW85269   5.637   0.576   5.190
27791SOL    HW185270   5.611   0.533   5.109
27791SOL    HW285271   5.732   0.568   5.193
27792SOL     OW85272  12.406   1.498   4.654
27792SOL    HW185273  12.353   1.427   4.690
27792SOL    HW285274  12.447   1.538   4.731
27793SOL     OW85275   8.346  10.483   9.766
27793SOL    HW185276   8.413  10.452   9.705
27793SOL    HW285277   8.305  10.403   9.799
27794SOL     OW85278  14.143   7.638   3.615
27794SOL    HW185279  14.188   7.578   3.675
27794SOL    HW285280  14.050   7.628   3.636
27795SOL     OW85281   5.397   1.056  11.981
27795SOL    HW185282   5.307   1.086  11.995
27795SOL    HW285283   5.407   0.983  12.042
27796SOL     OW85284  12.131   1.506   5.300
27796SOL    HW185285  12.062   1.572   5.293
27796SOL    HW285286  12.203   1.541   5.247
27797SOL     OW85287   1.330  12.755   1.426
27797SOL    HW185288   1.320  12.718   1.339
27797SOL    HW285289   1.425  12.753   1.442
27798SOL     OW85290   5.727   1.025   7.296
27798SOL    HW185291   5.763   1.065   7.217
27798SOL    HW285292   5.775   0.942   7.305
27799SOL     OW85293   9.962   8.700   6.924
27799SOL    HW185294   9.900   8.708   6.996
27799SOL    HW285295   9.957   8.784   6.878
27800SOL     OW85296   4.785   2.684   8.162
27800SOL    HW185297   4.738   2.766   8.157
27800SOL    HW285298   4.867   2.705   8.208
27801SOL     OW85299  13.076  11.615   0.447
27801SOL    HW185300  13.070  11.545   0.383
27801SOL    HW285301  13.001  11.601   0.505
27802SOL     OW85302   5.221  12.609   4.448
27802SOL    HW185303   5.215  12.566   4.533
27802SOL    HW285304   5.139  12.656   4.439
27803SOL     OW85305   4.597  10.371   0.090
27803SOL    HW185306   4.632  10.303   0.031
27803SOL    HW285307   4.503  10.368   0.077
27804SOL     OW85308   2.444  12.511   7.590
27804SOL    HW185309   2.485  12.448   7.649
27804SOL    HW285310   2.418  12.584   7.646
27805SOL     OW85311   0.202   1.000   7.651
27805SOL    HW185312   0.183   0.906   7.653
27805SOL    HW285313   0.295   1.007   7.672
27806SOL     OW85314   7.565   7.031   7.048
27806SOL    HW185315   7.570   7.114   7.094
27806SOL    HW285316   7.600   6.967   7.110
27807SOL     OW85317  10.148   6.136   0.028
27807SOL    HW185318  10.140   6.051  14.856
27807SOL    HW285319  10.209   6.119   0.100
27808SOL     OW85320   2.400   3.930   7.002
27808SOL    HW185321   2.364   3.960   6.918
27808SOL    HW285322   2.366   3.841   7.011
27809SOL     OW85323  10.852   5.924   8.399
27809SOL    HW185324  10.767   5.906   8.439
27809SOL    HW285325  10.908   5.950   8.472
27810SOL     OW85326   1.518   0.638   1.865
27810SOL    HW185327   1.551   0.585   1.792
27810SOL    HW285328   1.597   0.663   1.913
27811SOL     OW85329   3.080   3.274  11.422
27811SOL    HW185330   3.165   3.232  11.434
27811SOL    HW285331   3.020   3.221  11.473
27812SOL     OW85332  14.327   7.572   4.366
27812SOL    HW185333  14.339   7.511   4.439
27812SOL    HW285334  14.386   7.539   4.298
27813SOL     OW85335   4.171  12.326   2.378
27813SOL    HW185336   4.224  12.250   2.401
27813SOL    HW285337   4.173  12.328   2.282
27814SOL     OW85338   4.783   5.548   9.814
27814SOL    HW185339   4.802   5.474   9.871
27814SOL    HW285340   4.695   5.531   9.780
27815SOL     OW85341  10.047   6.288   9.406
27815SOL    HW185342  10.134   6.278   9.367
27815SOL    HW285343  10.049   6.231   9.483
27816SOL     OW85344   2.881   0.819   3.273
27816SOL    HW185345   2.835   0.838   3.191
27816SOL    HW285346   2.900   0.725   3.267
27817SOL     OW85347   6.105   5.720   0.284
27817SOL    HW185348   6.083   5.655   0.351
27817SOL    HW285349   6.146   5.792   0.333
27818SOL     OW85350   1.461   9.739  10.299
27818SOL    HW185351   1.512   9.658  10.304
27818SOL    HW285352   1.372   9.710  10.278
27819SOL     OW85353   7.577   3.403   5.939
27819SOL    HW185354   7.559   3.440   5.852
27819SOL    HW285355   7.633   3.327   5.921
27820SOL     OW85356   8.397  11.541  14.813
27820SOL    HW185357   8.403  11.478   0.013
27820SOL    HW285358   8.375  11.624  14.855
27821SOL     OW85359   6.996   8.623   7.320
27821SOL    HW185360   6.970   8.654   7.233
27821SOL    HW285361   7.035   8.537   7.304
27822SOL     OW85362   5.548   5.338  12.420
27822SOL    HW185363   5.599   5.416  12.397
27822SOL    HW285364   5.470   5.343  12.364
27823SOL     OW85365   8.767  13.375   0.725
27823SOL    HW185366   8.717  13.437   0.776
27823SOL    HW285367   8.809  13.318   0.790
27824SOL     OW85368  10.349  14.347  10.245
27824SOL    HW185369  10.279  14.379  10.303
27824SOL    HW285370  10.349  14.409  10.172
27825SOL     OW85371   6.088  11.808   0.365
27825SOL    HW185372   5.997  11.807   0.335
27825SOL    HW285373   6.098  11.726   0.413
27826SOL     OW85374   2.002   8.972   9.304
27826SOL    HW185375   2.005   9.017   9.388
27826SOL    HW285376   1.977   8.882   9.325
27827SOL     OW85377   1.446   3.751   7.144
27827SOL    HW185378   1.405   3.667   7.126
27827SOL    HW285379   1.439   3.761   7.239
27828SOL     OW85380  13.746  14.204   4.320
27828SOL    HW185381  13.798  14.256   4.259
27828SOL    HW285382  13.657  14.208   4.286
27829SOL     OW85383   4.083   8.023  13.424
27829SOL    HW185384   4.013   8.041  13.487
27829SOL    HW285385   4.057   7.941  13.382
27830SOL     OW85386   5.406  10.313  10.987
27830SOL    HW185387   5.448  10.397  10.969
27830SOL    HW285388   5.375  10.283  10.901
27831SOL     OW85389   4.559   1.287   9.771
27831SOL    HW185390   4.526   1.219   9.711
27831SOL    HW285391   4.480   1.328   9.806
27832SOL     OW85392   9.182   1.885   9.473
27832SOL    HW185393   9.134   1.899   9.554
27832SOL    HW285394   9.274   1.894   9.498
27833SOL     OW85395   5.635  10.723  14.351
27833SOL    HW185396   5.722  10.715  14.312
27833SOL    HW285397   5.648  10.699  14.443
27834SOL     OW85398   1.514   9.215   3.025
27834SOL    HW185399   1.588   9.170   3.067
27834SOL    HW285400   1.490   9.284   3.086
27835SOL     OW85401   0.473  12.366  10.731
27835SOL    HW185402   0.476  12.448  10.682
27835SOL    HW285403   0.469  12.394  10.823
27836SOL     OW85404   9.693   8.401   0.852
27836SOL    HW185405   9.675   8.309   0.834
27836SOL    HW285406   9.615   8.432   0.898
27837SOL     OW85407   4.506   4.060   5.134
27837SOL    HW185408   4.569   4.002   5.092
27837SOL    HW285409   4.426   4.051   5.081
27838SOL     OW85410   1.516   1.833   0.662
27838SOL    HW185411   1.584   1.770   0.687
27838SOL    HW285412   1.462   1.842   0.740
27839SOL     OW85413   8.913   9.053  10.984
27839SOL    HW185414   8.907   9.142  11.019
27839SOL    HW285415   8.866   9.056  10.901
27840SOL     OW85416   7.318  14.395  12.007
27840SOL    HW185417   7.333  14.427  12.096
27840SOL    HW285418   7.274  14.467  11.963
27841SOL     OW85419   9.399  10.077   4.401
27841SOL    HW185420   9.482  10.086   4.448
27841SOL    HW285421   9.419  10.021   4.326
27842SOL     OW85422  10.946  10.050   8.455
27842SOL    HW185423  10.891  10.128   8.451
27842SOL    HW285424  10.954  10.022   8.363
27843SOL     OW85425   7.813   9.884   6.731
27843SOL    HW185426   7.883   9.855   6.673
27843SOL    HW285427   7.734   9.882   6.677
27844SOL     OW85428  12.128   8.267  12.461
27844SOL    HW185429  12.115   8.289  12.369
27844SOL    HW285430  12.199   8.203  12.461
27845SOL     OW85431   1.287  12.167   7.741
27845SOL    HW185432   1.288  12.089   7.795
27845SOL    HW285433   1.379  12.190   7.729
27846SOL     OW85434   4.449   6.785  12.875
27846SOL    HW185435   4.535   6.762  12.910
27846SOL    HW285436   4.460   6.874  12.840
27847SOL     OW85437   6.807   6.679  14.500
27847SOL    HW185438   6.872   6.668  14.569
27847SOL    HW285439   6.854   6.726  14.430
27848SOL     OW85440   5.391  12.755   9.441
27848SOL    HW185441   5.374  12.784   9.530
27848SOL    HW285442   5.487  12.755   9.433
27849SOL     OW85443   5.692   6.607   9.948
27849SOL    HW185444   5.774   6.639   9.909
27849SOL    HW285445   5.646   6.687   9.974
27850SOL     OW85446   9.999   3.992   5.569
27850SOL    HW185447   9.927   3.930   5.571
27850SOL    HW285448  10.077   3.940   5.588
27851SOL     OW85449   5.241  14.066  10.986
27851SOL    HW185450   5.323  14.029  11.017
27851SOL    HW285451   5.263  14.110  10.904
27852SOL     OW85452  12.047  10.191   9.238
27852SOL    HW185453  12.038  10.175   9.332
27852SOL    HW285454  12.117  10.133   9.210
27853SOL     OW85455   0.045   7.268   6.100
27853SOL    HW185456  14.865   7.340   6.135
27853SOL    HW285457   0.128   7.310   6.074
27854SOL     OW85458   8.652  12.119  14.856
27854SOL    HW185459   8.731  12.076  14.823
27854SOL    HW285460   8.685  12.186   0.044
27855SOL     OW85461   1.570   3.582  12.439
27855SOL    HW185462   1.551   3.513  12.503
27855SOL    HW285463   1.608   3.535  12.365
27856SOL     OW85464  10.452   1.710   1.486
27856SOL    HW185465  10.439   1.673   1.573
27856SOL    HW285466  10.498   1.642   1.437
27857SOL     OW85467  11.982   4.511   5.220
27857SOL    HW185468  12.055   4.474   5.171
27857SOL    HW285469  11.953   4.585   5.166
27858SOL     OW85470   4.283  10.395   3.140
27858SOL    HW185471   4.289  10.323   3.202
27858SOL    HW285472   4.364  10.445   3.154
27859SOL     OW85473   3.124   9.368  14.256
27859SOL    HW185474   3.122   9.444  14.314
27859SOL    HW285475   3.145   9.404  14.170
27860SOL     OW85476   7.745   0.361   5.376
27860SOL    HW185477   7.698   0.441   5.356
27860SOL    HW285478   7.681   0.291   5.366
27861SOL     OW85479   6.594   5.366   1.092
27861SOL    HW185480   6.649   5.382   1.168
27861SOL    HW285481   6.518   5.319   1.126
27862SOL     OW85482  11.889  11.729   3.883
27862SOL    HW185483  11.843  11.755   3.963
27862SOL    HW285484  11.820  11.717   3.818
27863SOL     OW85485  10.683   7.446   8.509
27863SOL    HW185486  10.632   7.511   8.462
27863SOL    HW285487  10.625   7.370   8.515
27864SOL     OW85488  11.390   9.657  11.798
27864SOL    HW185489  11.461   9.689  11.742
27864SOL    HW285490  11.373   9.728  11.859
27865SOL     OW85491  10.439   6.118   2.623
27865SOL    HW185492  10.456   6.128   2.717
27865SOL    HW285493  10.344   6.127   2.615
27866SOL     OW85494  10.052   0.919  13.571
27866SOL    HW185495   9.974   0.911  13.515
27866SOL    HW285496  10.026   0.879  13.654
27867SOL     OW85497  10.097  10.052   7.493
27867SOL    HW185498  10.025  10.076   7.552
27867SOL    HW285499  10.057   9.998   7.426
27868SOL     OW85500  13.856  13.054   7.737
27868SOL    HW185501  13.916  12.991   7.698
27868SOL    HW285502  13.859  13.035   7.831
27869SOL     OW85503   3.650   1.734   5.853
27869SOL    HW185504   3.689   1.648   5.840
27869SOL    HW285505   3.580   1.739   5.788
27870SOL     OW85506   9.739   3.556   7.394
27870SOL    HW185507   9.722   3.645   7.362
27870SOL    HW285508   9.656   3.530   7.435
27871SOL     OW85509   3.856  11.391   4.432
27871SOL    HW185510   3.933  11.399   4.488
27871SOL    HW285511   3.800  11.464   4.458
27872SOL     OW85512   7.896   6.261   2.306
27872SOL    HW185513   7.878   6.351   2.280
27872SOL    HW285514   7.983   6.265   2.346
27873SOL     OW85515   8.632   6.267   7.779
27873SOL    HW185516   8.651   6.326   7.706
27873SOL    HW285517   8.578   6.320   7.839
27874SOL     OW85518   9.600   4.166  10.184
27874SOL    HW185519   9.661   4.236  10.165
27874SOL    HW285520   9.635   4.123  10.263
27875SOL     OW85521  13.473   2.484   8.226
27875SOL    HW185522  13.512   2.505   8.141
27875SOL    HW285523  13.427   2.401   8.211
27876SOL     OW85524  13.696   6.803   8.746
27876SOL    HW185525  13.774   6.843   8.784
27876SOL    HW285526  13.664   6.743   8.814
27877SOL     OW85527  14.819   2.841   6.038
27877SOL    HW185528  14.816   2.746   6.051
27877SOL    HW285529  14.758   2.858   5.967
27878SOL     OW85530  11.207   1.753   5.300
27878SOL    HW185531  11.163   1.782   5.221
27878SOL    HW285532  11.250   1.671   5.275
27879SOL     OW85533   3.240   8.389  12.288
27879SOL    HW185534   3.301   8.429  12.226
27879SOL    HW285535   3.295   8.362  12.361
27880SOL     OW85536   9.674   5.768   4.551
27880SOL    HW185537   9.651   5.740   4.463
27880SOL    HW285538   9.601   5.823   4.580
27881SOL     OW85539  10.735   9.263  14.499
27881SOL    HW185540  10.686   9.343  14.520
27881SOL    HW285541  10.825   9.284  14.521
27882SOL     OW85542  13.575   2.926   5.631
27882SOL    HW185543  13.556   2.946   5.539
27882SOL    HW285544  13.535   2.998   5.680
27883SOL     OW85545   2.118   0.021   8.228
27883SOL    HW185546   2.173  14.815   8.233
27883SOL    HW285547   2.087   0.034   8.318
27884SOL     OW85548   9.448   0.713  10.237
27884SOL    HW185549   9.495   0.766  10.172
27884SOL    HW285550   9.405   0.778  10.293
27885SOL     OW85551   1.428   6.196   4.667
27885SOL    HW185552   1.335   6.219   4.667
27885SOL    HW285553   1.473   6.278   4.647
27886SOL     OW85554   6.813  11.130  14.121
27886SOL    HW185555   6.738  11.149  14.176
27886SOL    HW285556   6.884  11.184  14.157
27887SOL     OW85557   7.781   2.555   4.385
27887SOL    HW185558   7.843   2.627   4.396
27887SOL    HW285559   7.756   2.559   4.292
27888SOL     OW85560  14.851   0.460   3.096
27888SOL    HW185561  14.809   0.534   3.051
27888SOL    HW285562   0.069   0.461   3.065
27889SOL     OW85563   7.297  14.284   4.576
27889SOL    HW185564   7.285  14.191   4.556
27889SOL    HW285565   7.374  14.287   4.632
27890SOL     OW85566   8.714   9.280   9.137
27890SOL    HW185567   8.739   9.348   9.075
27890SOL    HW285568   8.628   9.307   9.169
27891SOL     OW85569   5.148   5.163   7.168
27891SOL    HW185570   5.143   5.171   7.072
27891SOL    HW285571   5.218   5.224   7.193
27892SOL     OW85572   1.611  13.654   3.542
27892SOL    HW185573   1.660  13.686   3.466
27892SOL    HW285574   1.519  13.668   3.519
27893SOL     OW85575   2.087   8.400   8.425
27893SOL    HW185576   2.084   8.476   8.483
27893SOL    HW285577   2.130   8.332   8.477
27894SOL     OW85578   8.166  11.900   7.759
27894SOL    HW185579   8.101  11.830   7.750
27894SOL    HW285580   8.241  11.858   7.801
27895SOL     OW85581   6.164  10.057   0.172
27895SOL    HW185582   6.167   9.977   0.120
27895SOL    HW285583   6.128  10.030   0.256
27896SOL     OW85584   4.372   2.254   0.083
27896SOL    HW185585   4.381   2.254   0.178
27896SOL    HW285586   4.290   2.207   0.067
27897SOL     OW85587   7.530   0.129   5.406
27897SOL    HW185588   7.445   0.090   5.427
27897SOL    HW285589   7.574   0.063   5.352
27898SOL     OW85590   8.459  14.314  11.067
27898SOL    HW185591   8.432  14.372  11.138
27898SOL    HW285592   8.403  14.339  10.994
27899SOL     OW85593   7.984  13.876   8.932
27899SOL    HW185594   7.988  13.787   8.966
27899SOL    HW285595   8.014  13.931   9.005
27900SOL     OW85596  14.686  12.837   8.369
27900SOL    HW185597  14.699  12.880   8.284
27900SOL    HW285598  14.774  12.816   8.400
27901SOL     OW85599   1.875  11.405   0.523
27901SOL    HW185600   1.853  11.314   0.540
27901SOL    HW285601   1.810  11.434   0.459
27902SOL     OW85602   1.808   0.427   2.153
27902SOL    HW185603   1.768   0.397   2.235
27902SOL    HW285604   1.875   0.361   2.134
27903SOL     OW85605  14.507   3.487   8.210
27903SOL    HW185606  14.567   3.475   8.135
27903SOL    HW285607  14.430   3.528   8.172
27904SOL     OW85608   8.013  10.027   6.309
27904SOL    HW185609   8.059   9.967   6.251
27904SOL    HW285610   8.050  10.010   6.395
27905SOL     OW85611   4.071  11.884  14.866
27905SOL    HW185612   4.080  11.948   0.064
27905SOL    HW285613   4.000  11.917  14.812
27906SOL     OW85614   5.612  12.022   3.634
27906SOL    HW185615   5.527  11.978   3.626
27906SOL    HW285616   5.638  12.006   3.725
27907SOL     OW85617  13.113  11.963   2.942
27907SOL    HW185618  13.144  12.028   3.005
27907SOL    HW285619  13.041  12.008   2.896
27908SOL     OW85620  12.705  13.190  11.436
27908SOL    HW185621  12.686  13.219  11.525
27908SOL    HW285622  12.798  13.210  11.423
27909SOL     OW85623   5.166   9.079  12.771
27909SOL    HW185624   5.119   8.996  12.770
27909SOL    HW285625   5.099   9.144  12.745
27910SOL     OW85626   3.625  13.984   1.745
27910SOL    HW185627   3.718  13.976   1.764
27910SOL    HW285628   3.585  14.007   1.829
27911SOL     OW85629   8.078   1.346   9.950
27911SOL    HW185630   8.081   1.369   9.857
27911SOL    HW285631   8.004   1.395   9.985
27912SOL     OW85632  14.325   2.140   9.717
27912SOL    HW185633  14.354   2.116   9.629
27912SOL    HW285634  14.404   2.133   9.771
27913SOL     OW85635   1.281  10.240   1.543
27913SOL    HW185636   1.254  10.252   1.452
27913SOL    HW285637   1.374  10.262   1.543
27914SOL     OW85638   7.589   8.281   4.511
27914SOL    HW185639   7.542   8.364   4.499
27914SOL    HW285640   7.586   8.239   4.425
27915SOL     OW85641  11.330   0.653  10.708
27915SOL    HW185642  11.305   0.726  10.765
27915SOL    HW285643  11.253   0.638  10.653
27916SOL     OW85644  12.665  13.074   3.883
27916SOL    HW185645  12.692  13.021   3.958
27916SOL    HW285646  12.742  13.077   3.827
27917SOL     OW85647   1.114  14.181   0.204
27917SOL    HW185648   1.044  14.123   0.173
27917SOL    HW285649   1.195  14.139   0.173
27918SOL     OW85650   1.007   1.193  10.695
27918SOL    HW185651   0.929   1.239  10.726
27918SOL    HW285652   1.079   1.233  10.745
27919SOL     OW85653   7.041   3.220  13.298
27919SOL    HW185654   7.128   3.246  13.266
27919SOL    HW285655   7.027   3.133  13.260
27920SOL     OW85656   7.460   3.562   2.633
27920SOL    HW185657   7.451   3.490   2.695
27920SOL    HW285658   7.496   3.634   2.685
27921SOL     OW85659   4.067   2.400   4.870
27921SOL    HW185660   4.151   2.435   4.841
27921SOL    HW285661   4.089   2.315   4.909
27922SOL     OW85662  11.513  10.671  10.982
27922SOL    HW185663  11.592  10.714  11.016
27922SOL    HW285664  11.466  10.643  11.060
27923SOL     OW85665  14.201  13.868   0.156
27923SOL    HW185666  14.130  13.895   0.215
27923SOL    HW285667  14.161  13.804   0.098
27924SOL     OW85668   9.043   4.686   2.606
27924SOL    HW185669   9.100   4.609   2.609
27924SOL    HW285670   8.972   4.665   2.667
27925SOL     OW85671   8.699  12.823  13.243
27925SOL    HW185672   8.751  12.801  13.320
27925SOL    HW285673   8.752  12.889  13.197
27926SOL     OW85674   6.821   5.912  14.021
27926SOL    HW185675   6.875   5.992  14.024
27926SOL    HW285676   6.884   5.841  14.032
27927SOL     OW85677  10.967  11.385  13.568
27927SOL    HW185678  10.940  11.319  13.631
27927SOL    HW285679  10.981  11.465  13.620
27928SOL     OW85680   2.405   0.583  13.604
27928SOL    HW185681   2.495   0.601  13.577
27928SOL    HW285682   2.372   0.668  13.635
27929SOL     OW85683   4.036   0.505   9.569
27929SOL    HW185684   4.014   0.502   9.476
27929SOL    HW285685   3.982   0.576   9.604
27930SOL     OW85686   3.364   6.353  11.214
27930SOL    HW185687   3.388   6.320  11.301
27930SOL    HW285688   3.277   6.391  11.226
27931SOL     OW85689   8.253  13.038   0.509
27931SOL    HW185690   8.209  13.010   0.588
27931SOL    HW285691   8.308  12.963   0.484
27932SOL     OW85692   6.815  12.429   2.666
27932SOL    HW185693   6.850  12.343   2.689
27932SOL    HW285694   6.720  12.420   2.674
27933SOL     OW85695  14.718   4.139  14.128
27933SOL    HW185696  14.808   4.130  14.157
27933SOL    HW285697  14.720   4.206  14.061
27934SOL     OW85698   1.892   2.517   6.213
27934SOL    HW185699   1.976   2.516   6.168
27934SOL    HW285700   1.904   2.461   6.289
27935SOL     OW85701  11.857   9.261   8.738
27935SOL    HW185702  11.803   9.305   8.672
27935SOL    HW285703  11.890   9.333   8.793
27936SOL     OW85704   7.423   1.790  10.120
27936SOL    HW185705   7.449   1.785  10.212
27936SOL    HW285706   7.353   1.856  10.119
27937SOL     OW85707  10.410  11.140   1.493
27937SOL    HW185708  10.502  11.164   1.483
27937SOL    HW285709  10.401  11.116   1.586
27938SOL     OW85710   1.013   6.892   4.177
27938SOL    HW185711   0.961   6.891   4.257
27938SOL    HW285712   1.098   6.928   4.203
27939SOL     OW85713  13.270  12.296   4.951
27939SOL    HW185714  13.323  12.301   5.031
27939SOL    HW285715  13.180  12.305   4.981
27940SOL     OW85716   9.523  10.971  12.017
27940SOL    HW185717   9.590  11.025  11.975
27940SOL    HW285718   9.520  10.892  11.963
27941SOL     OW85719   5.249  14.292   4.816
27941SOL    HW185720   5.201  14.226   4.866
27941SOL    HW285721   5.234  14.268   4.724
27942SOL     OW85722  13.247   2.218   2.182
27942SOL    HW185723  13.291   2.230   2.098
27942SOL    HW285724  13.230   2.124   2.187
27943SOL     OW85725   8.201  13.296   5.551
27943SOL    HW185726   8.274  13.255   5.504
27943SOL    HW285727   8.154  13.346   5.483
27944SOL     OW85728   9.579  13.980   2.264
27944SOL    HW185729   9.657  13.958   2.316
27944SOL    HW285730   9.607  14.051   2.207
27945SOL     OW85731   9.665  14.152   3.872
27945SOL    HW185732   9.596  14.106   3.921
27945SOL    HW285733   9.679  14.233   3.921
27946SOL     OW85734   9.605   8.538  11.942
27946SOL    HW185735   9.565   8.598  12.005
27946SOL    HW285736   9.699   8.550  11.954
27947SOL     OW85737   3.407   5.614  13.458
27947SOL    HW185738   3.499   5.599  13.435
27947SOL    HW285739   3.405   5.702  13.495
27948SOL     OW85740   8.041   7.923  12.090
27948SOL    HW185741   7.982   7.890  12.022
27948SOL    HW285742   8.064   8.011  12.060
27949SOL     OW85743   0.850   3.237  11.218
27949SOL    HW185744   0.860   3.290  11.139
27949SOL    HW285745   0.929   3.254  11.269
27950SOL     OW85746  13.365   0.581   2.242
27950SOL    HW185747  13.404   0.661   2.276
27950SOL    HW285748  13.306   0.552   2.312
27951SOL     OW85749   4.669   1.275  13.556
27951SOL    HW185750   4.598   1.210  13.552
27951SOL    HW285751   4.652   1.332  13.481
27952SOL     OW85752   8.309   8.582  11.536
27952SOL    HW185753   8.333   8.577  11.628
27952SOL    HW285754   8.377   8.532  11.491
27953SOL     OW85755  11.952   5.904  14.055
27953SOL    HW185756  11.980   5.928  13.967
27953SOL    HW285757  11.957   5.809  14.056
27954SOL     OW85758   7.303   5.144  10.467
27954SOL    HW185759   7.296   5.178  10.378
27954SOL    HW285760   7.391   5.169  10.495
27955SOL     OW85761  10.704  10.627   8.310
27955SOL    HW185762  10.746  10.581   8.237
27955SOL    HW285763  10.617  10.649   8.277
27956SOL     OW85764  13.022  10.786   7.064
27956SOL    HW185765  13.028  10.814   6.972
27956SOL    HW285766  13.074  10.705   7.067
27957SOL     OW85767  12.879   1.501   0.686
27957SOL    HW185768  12.870   1.433   0.753
27957SOL    HW285769  12.916   1.576   0.732
27958SOL     OW85770   3.540   2.711   7.246
27958SOL    HW185771   3.595   2.753   7.312
27958SOL    HW285772   3.462   2.768   7.240
27959SOL     OW85773  11.323   6.981  11.811
27959SOL    HW185774  11.350   7.006  11.723
27959SOL    HW285775  11.242   7.030  11.826
27960SOL     OW85776   9.990   8.853   8.704
27960SOL    HW185777  10.048   8.929   8.703
27960SOL    HW285778   9.992   8.822   8.794
27961SOL     OW85779   1.907   0.674   2.044
27961SOL    HW185780   1.952   0.667   1.959
27961SOL    HW285781   1.884   0.584   2.066
27962SOL     OW85782   9.407   5.855  14.162
27962SOL    HW185783   9.448   5.768  14.160
27962SOL    HW285784   9.323   5.843  14.119
27963SOL     OW85785  14.799   0.598   5.740
27963SOL    HW185786  14.728   0.628   5.683
27963SOL    HW285787   0.002   0.650   5.712
27964SOL     OW85788  12.269   7.847   0.079
27964SOL    HW185789  12.177   7.830   0.098
27964SOL    HW285790  12.306   7.759   0.066
27965SOL     OW85791   2.169  13.795  12.909
27965SOL    HW185792   2.181  13.835  12.995
27965SOL    HW285793   2.155  13.868  12.850
27966SOL     OW85794   7.955  11.796  13.181
27966SOL    HW185795   7.968  11.844  13.263
27966SOL    HW285796   7.860  11.786  13.175
27967SOL     OW85797  13.816   8.562   7.028
27967SOL    HW185798  13.909   8.541   7.021
27967SOL    HW285799  13.799   8.620   6.954
27968SOL     OW85800  11.207   6.269  14.831
27968SOL    HW185801  11.286   6.294   0.007
27968SOL    HW285802  11.150   6.231   0.026
27969SOL     OW85803  14.143   8.323   2.123
27969SOL    HW185804  14.094   8.242   2.129
27969SOL    HW285805  14.091   8.379   2.065
27970SOL     OW85806  12.087  13.494   4.146
27970SOL    HW185807  12.164  13.465   4.096
27970SOL    HW285808  12.118  13.570   4.195
27971SOL     OW85809  11.242   4.839   8.603
27971SOL    HW185810  11.321   4.787   8.618
27971SOL    HW285811  11.275   4.928   8.586
27972SOL     OW85812   6.083   5.650   2.540
27972SOL    HW185813   6.137   5.571   2.539
27972SOL    HW285814   6.020   5.635   2.610
27973SOL     OW85815   8.378   3.003   2.878
27973SOL    HW185816   8.290   2.984   2.846
27973SOL    HW285817   8.400   2.930   2.936
27974SOL     OW85818   7.037  11.857   9.633
27974SOL    HW185819   7.130  11.832   9.633
27974SOL    HW285820   7.007  11.837   9.721
27975SOL     OW85821  13.028   8.123  11.277
27975SOL    HW185822  13.010   8.164  11.192
27975SOL    HW285823  13.041   8.031  11.257
27976SOL     OW85824   4.094  13.231  13.302
27976SOL    HW185825   4.111  13.305  13.245
27976SOL    HW285826   4.151  13.161  13.270
27977SOL     OW85827   5.109   5.588  11.237
27977SOL    HW185828   5.118   5.572  11.331
27977SOL    HW285829   5.105   5.683  11.229
27978SOL     OW85830  11.732  10.439   0.721
27978SOL    HW185831  11.662  10.413   0.662
27978SOL    HW285832  11.704  10.407   0.807
27979SOL     OW85833   8.773  13.564  13.120
27979SOL    HW185834   8.710  13.508  13.164
27979SOL    HW285835   8.792  13.634  13.182
27980SOL     OW85836  12.783   1.298   9.924
27980SOL    HW185837  12.768   1.224   9.866
27980SOL    HW285838  12.876   1.295   9.944
27981SOL     OW85839   4.631   5.868   2.519
27981SOL    HW185840   4.603   5.848   2.608
27981SOL    HW285841   4.625   5.785   2.472
27982SOL     OW85842   4.511   9.487  13.727
27982SOL    HW185843   4.488   9.474  13.819
27982SOL    HW285844   4.468   9.569  13.703
27983SOL     OW85845   7.762   8.862   5.936
27983SOL    HW185846   7.734   8.834   5.849
27983SOL    HW285847   7.755   8.783   5.989
27984SOL     OW85848   6.230  10.091   7.723
27984SOL    HW185849   6.318  10.054   7.728
27984SOL    HW285850   6.184  10.053   7.798
27985SOL     OW85851   7.384   3.751  11.823
27985SOL    HW185852   7.305   3.803  11.811
27985SOL    HW285853   7.353   3.664  11.846
27986SOL     OW85854   9.102   7.857   3.225
27986SOL    HW185855   9.012   7.886   3.237
27986SOL    HW285856   9.098   7.762   3.227
27987SOL     OW85857  11.209   9.515  10.714
27987SOL    HW185858  11.162   9.559  10.785
27987SOL    HW285859  11.278   9.465  10.757
27988SOL     OW85860   2.168  13.180   6.644
27988SOL    HW185861   2.237  13.225   6.595
27988SOL    HW285862   2.214  13.114   6.696
27989SOL     OW85863  11.352  11.125   2.421
27989SOL    HW185864  11.288  11.195   2.405
27989SOL    HW285865  11.302  11.055   2.460
27990SOL     OW85866   6.205   9.913  12.444
27990SOL    HW185867   6.149   9.961  12.505
27990SOL    HW285868   6.195   9.821  12.470
27991SOL     OW85869   0.903   5.164   7.718
27991SOL    HW185870   0.857   5.089   7.757
27991SOL    HW285871   0.908   5.229   7.788
27992SOL     OW85872   8.824   5.107   5.238
27992SOL    HW185873   8.823   5.045   5.311
27992SOL    HW285874   8.741   5.155   5.247
27993SOL     OW85875   9.425   8.490   8.549
27993SOL    HW185876   9.501   8.437   8.526
27993SOL    HW285877   9.351   8.445   8.507
27994SOL     OW85878   0.840   6.947  13.701
27994SOL    HW185879   0.813   6.912  13.785
27994SOL    HW285880   0.841   6.872  13.642
27995SOL     OW85881   7.003   5.733   8.127
27995SOL    HW185882   7.004   5.829   8.135
27995SOL    HW285883   6.929   5.715   8.068
27996SOL     OW85884   5.691   8.463   4.122
27996SOL    HW185885   5.708   8.510   4.040
27996SOL    HW285886   5.777   8.454   4.163
27997SOL     OW85887   5.212   5.118  13.115
27997SOL    HW185888   5.260   5.194  13.148
27997SOL    HW285889   5.241   5.045  13.169
27998SOL     OW85890   0.039   6.182   9.318
27998SOL    HW185891   0.094   6.137   9.253
27998SOL    HW285892   0.101   6.208   9.386
27999SOL     OW85893   3.547  10.428  14.460
27999SOL    HW185894   3.616  10.372  14.494
27999SOL    HW285895   3.577  10.453  14.372
28000SOL     OW85896  12.310  12.259   3.533
28000SOL    HW185897  12.354  12.317   3.596
28000SOL    HW285898  12.245  12.315   3.491
28001SOL     OW85899   4.154   2.990   1.653
28001SOL    HW185900   4.156   2.949   1.740
28001SOL    HW285901   4.127   2.920   1.594
28002SOL     OW85902  14.456   3.848   4.954
28002SOL    HW185903  14.520   3.919   4.947
28002SOL    HW285904  14.375   3.892   4.983
28003SOL     OW85905  14.703  14.613   7.536
28003SOL    HW185906  14.720  14.698   7.576
28003SOL    HW285907  14.616  14.589   7.566
28004SOL     OW85908  11.441  12.958   9.779
28004SOL    HW185909  11.536  12.953   9.793
28004SOL    HW285910  11.403  12.915   9.856
28005SOL     OW85911   4.245  10.359   3.676
28005SOL    HW185912   4.281  10.283   3.722
28005SOL    HW285913   4.306  10.430   3.694
28006SOL     OW85914   0.807  13.070   8.622
28006SOL    HW185915   0.820  13.150   8.673
28006SOL    HW285916   0.797  13.002   8.688
28007SOL     OW85917  10.257   8.934  10.017
28007SOL    HW185918  10.327   8.966  10.073
28007SOL    HW285919  10.177   8.963  10.060
28008SOL     OW85920  11.097  14.441   4.533
28008SOL    HW185921  11.080  14.527   4.572
28008SOL    HW285922  11.020  14.423   4.480
28009SOL     OW85923  14.533   2.501   2.005
28009SOL    HW185924  14.604   2.556   1.973
28009SOL    HW285925  14.502   2.453   1.928
28010SOL     OW85926   6.270   2.144  14.629
28010SOL    HW185927   6.250   2.100  14.546
28010SOL    HW285928   6.204   2.112  14.690
28011SOL     OW85929   9.555  12.615  14.030
28011SOL    HW185930   9.579  12.522  14.030
28011SOL    HW285931   9.618  12.656  14.090
28012SOL     OW85932   0.312   9.756   5.244
28012SOL    HW185933   0.280   9.776   5.156
28012SOL    HW285934   0.317   9.841   5.288
28013SOL     OW85935  14.330   8.405   7.205
28013SOL    HW185936  14.321   8.310   7.194
28013SOL    HW285937  14.394   8.415   7.276
28014SOL     OW85938  14.333  12.417   2.712
28014SOL    HW185939  14.258  12.409   2.771
28014SOL    HW285940  14.376  12.498   2.740
28015SOL     OW85941   2.624   2.895   7.049
28015SOL    HW185942   2.710   2.908   7.009
28015SOL    HW285943   2.566   2.954   7.000
28016SOL     OW85944   3.311   2.356   2.795
28016SOL    HW185945   3.223   2.325   2.773
28016SOL    HW285946   3.295   2.439   2.842
28017SOL     OW85947   3.878   0.251   8.846
28017SOL    HW185948   3.950   0.207   8.889
28017SOL    HW285949   3.894   0.344   8.860
28018SOL     OW85950  13.795  11.981  11.547
28018SOL    HW185951  13.851  12.023  11.482
28018SOL    HW285952  13.851  11.914  11.587
28019SOL     OW85953   1.548   1.376   4.313
28019SOL    HW185954   1.556   1.366   4.408
28019SOL    HW285955   1.460   1.344   4.293
28020SOL     OW85956   8.572   4.704  12.842
28020SOL    HW185957   8.548   4.713  12.750
28020SOL    HW285958   8.565   4.792  12.878
28021SOL     OW85959  10.692   5.502  11.798
28021SOL    HW185960  10.625   5.475  11.860
28021SOL    HW285961  10.744   5.422  11.783
28022SOL     OW85962   4.296   6.577  12.200
28022SOL    HW185963   4.266   6.593  12.111
28022SOL    HW285964   4.383   6.537  12.190
28023SOL     OW85965   4.530   0.788   7.581
28023SOL    HW185966   4.513   0.806   7.489
28023SOL    HW285967   4.450   0.814   7.626
28024SOL     OW85968  11.381  11.319  13.661
28024SOL    HW185969  11.366  11.231  13.694
28024SOL    HW285970  11.309  11.336  13.601
28025SOL     OW85971   6.353   2.464   7.646
28025SOL    HW185972   6.361   2.466   7.741
28025SOL    HW285973   6.274   2.514   7.627
28026SOL     OW85974  10.055  14.284  10.944
28026SOL    HW185975  10.072  14.219  11.012
28026SOL    HW285976   9.967  14.262  10.912
28027SOL     OW85977   1.013   1.344   8.446
28027SOL    HW185978   1.079   1.284   8.481
28027SOL    HW285979   0.935   1.290   8.435
28028SOL     OW85980   4.352   8.159   0.111
28028SOL    HW185981   4.431   8.133   0.159
28028SOL    HW285982   4.280   8.139   0.170
28029SOL     OW85983   2.610   1.876  11.994
28029SOL    HW185984   2.534   1.822  11.975
28029SOL    HW285985   2.577   1.943  12.055
28030SOL     OW85986   7.875  10.107   7.246
28030SOL    HW185987   7.782  10.087   7.232
28030SOL    HW285988   7.887  10.192   7.203
28031SOL     OW85989   6.763   8.828   7.176
28031SOL    HW185990   6.719   8.885   7.113
28031SOL    HW285991   6.700   8.759   7.195
28032SOL     OW85992   1.566   4.656   7.875
28032SOL    HW185993   1.487   4.705   7.851
28032SOL    HW285994   1.540   4.564   7.867
28033SOL     OW85995  12.756   4.189   5.606
28033SOL    HW185996  12.665   4.213   5.590
28033SOL    HW285997  12.799   4.202   5.521
28034SOL     OW85998   5.414  13.442  13.655
28034SOL    HW185999   5.457  13.406  13.732
28034SOL    HW286000   5.485  13.463  13.595
28035SOL     OW86001   7.750   4.760   2.344
28035SOL    HW186002   7.743   4.666   2.326
28035SOL    HW286003   7.839   4.783   2.317
28036SOL     OW86004  11.664   4.233   3.685
28036SOL    HW186005  11.715   4.280   3.751
28036SOL    HW286006  11.573   4.247   3.712
28037SOL     OW86007   2.917   9.571  12.124
28037SOL    HW186008   2.975   9.567  12.200
28037SOL    HW286009   2.900   9.480  12.102
28038SOL     OW86010   1.533   6.001   6.696
28038SOL    HW186011   1.570   6.079   6.736
28038SOL    HW286012   1.538   5.934   6.764
28039SOL     OW86013   2.375   4.219   9.991
28039SOL    HW186014   2.412   4.305  10.013
28039SOL    HW286015   2.336   4.232   9.905
28040SOL     OW86016  13.980  12.824  14.411
28040SOL    HW186017  13.909  12.767  14.379
28040SOL    HW286018  13.991  12.890  14.342
28041SOL     OW86019   2.403   5.310   2.222
28041SOL    HW186020   2.438   5.269   2.301
28041SOL    HW286021   2.315   5.272   2.213
28042SOL     OW86022   8.420   4.851   6.471
28042SOL    HW186023   8.403   4.847   6.377
28042SOL    HW286024   8.405   4.942   6.495
28043SOL     OW86025  12.755   7.021   7.597
28043SOL    HW186026  12.765   6.959   7.524
28043SOL    HW286027  12.749   6.966   7.674
28044SOL     OW86028  13.934   3.504  11.749
28044SOL    HW186029  13.851   3.549  11.731
28044SOL    HW286030  13.985   3.513  11.669
28045SOL     OW86031   9.902   3.130   7.339
28045SOL    HW186032   9.845   3.159   7.410
28045SOL    HW286033   9.954   3.059   7.378
28046SOL     OW86034   4.835   7.839  12.525
28046SOL    HW186035   4.817   7.829  12.432
28046SOL    HW286036   4.930   7.831  12.532
28047SOL     OW86037   8.582  13.029  12.632
28047SOL    HW186038   8.674  13.048  12.648
28047SOL    HW286039   8.537  13.062  12.710
28048SOL     OW86040  12.144   5.486   8.582
28048SOL    HW186041  12.188   5.483   8.667
28048SOL    HW286042  12.156   5.398   8.546
28049SOL     OW86043  14.277   1.191   0.527
28049SOL    HW186044  14.182   1.193   0.519
28049SOL    HW286045  14.300   1.098   0.523
28050SOL     OW86046   0.406  14.605  13.427
28050SOL    HW186047   0.416  14.693  13.465
28050SOL    HW286048   0.394  14.621  13.334
28051SOL     OW86049   8.802   9.356  11.773
28051SOL    HW186050   8.814   9.425  11.838
28051SOL    HW286051   8.727   9.305  11.806
28052SOL     OW86052   4.456   2.395  13.277
28052SOL    HW186053   4.542   2.358  13.255
28052SOL    HW286054   4.394   2.325  13.255
28053SOL     OW86055   6.406   7.821   7.267
28053SOL    HW186056   6.387   7.831   7.361
28053SOL    HW286057   6.463   7.745   7.262
28054SOL     OW86058   4.039   8.006   9.329
28054SOL    HW186059   4.118   7.956   9.348
28054SOL    HW286060   4.001   7.962   9.252
28055SOL     OW86061  14.099   4.182   2.749
28055SOL    HW186062  14.151   4.222   2.820
28055SOL    HW286063  14.162   4.170   2.678
28056SOL     OW86064  12.039   9.381   6.348
28056SOL    HW186065  12.012   9.449   6.410
28056SOL    HW286066  11.964   9.322   6.343
28057SOL     OW86067   4.256   1.541   2.154
28057SOL    HW186068   4.264   1.470   2.217
28057SOL    HW286069   4.345   1.574   2.145
28058SOL     OW86070   7.204   3.104   8.976
28058SOL    HW186071   7.239   3.182   8.933
28058SOL    HW286072   7.142   3.138   9.040
28059SOL     OW86073   1.353   2.196   6.320
28059SOL    HW186074   1.401   2.245   6.386
28059SOL    HW286075   1.364   2.105   6.345
28060SOL     OW86076   5.377  13.560   0.461
28060SOL    HW186077   5.440  13.513   0.406
28060SOL    HW286078   5.317  13.492   0.492
28061SOL     OW86079  14.666   5.068  13.353
28061SOL    HW186080  14.759   5.055  13.371
28061SOL    HW286081  14.653   5.029  13.266
28062SOL     OW86082  12.444   1.095   6.875
28062SOL    HW186083  12.445   1.190   6.864
28062SOL    HW286084  12.494   1.062   6.801
28063SOL     OW86085   6.356   8.627  13.706
28063SOL    HW186086   6.319   8.538  13.709
28063SOL    HW286087   6.445   8.615  13.673
28064SOL     OW86088  13.862  10.751   4.344
28064SOL    HW186089  13.879  10.678   4.285
28064SOL    HW286090  13.771  10.775   4.326
28065SOL     OW86091  10.967   5.091  10.936
28065SOL    HW186092  11.003   5.003  10.922
28065SOL    HW286093  10.872   5.079  10.929
28066SOL     OW86094   2.620   7.713  11.426
28066SOL    HW186095   2.638   7.739  11.517
28066SOL    HW286096   2.606   7.796  11.380
28067SOL     OW86097   2.870   3.728   3.088
28067SOL    HW186098   2.959   3.757   3.112
28067SOL    HW286099   2.884   3.655   3.028
28068SOL     OW86100   8.571   7.850   6.185
28068SOL    HW186101   8.585   7.778   6.123
28068SOL    HW286102   8.649   7.904   6.177
28069SOL     OW86103   1.503   4.105   8.626
28069SOL    HW186104   1.569   4.046   8.661
28069SOL    HW286105   1.425   4.051   8.617
28070SOL     OW86106  13.032  11.930   1.269
28070SOL    HW186107  13.021  11.884   1.186
28070SOL    HW286108  13.062  11.862   1.330
28071SOL     OW86109   0.531   5.158   9.656
28071SOL    HW186110   0.506   5.234   9.604
28071SOL    HW286111   0.448   5.119   9.682
28072SOL     OW86112  13.503   3.220   8.804
28072SOL    HW186113  13.510   3.134   8.761
28072SOL    HW286114  13.583   3.265   8.778
28073SOL     OW86115   4.816  12.523  14.201
28073SOL    HW186116   4.814  12.484  14.288
28073SOL    HW286117   4.738  12.489  14.157
28074SOL     OW86118   6.659   1.952   9.975
28074SOL    HW186119   6.697   2.028  10.019
28074SOL    HW286120   6.588   1.989   9.921
28075SOL     OW86121   3.556   1.092  11.450
28075SOL    HW186122   3.616   1.134  11.512
28075SOL    HW286123   3.521   1.016  11.497
28076SOL     OW86124   1.924  10.060  14.067
28076SOL    HW186125   1.893  10.081  14.155
28076SOL    HW286126   1.908  10.140  14.016
28077SOL     OW86127   8.340   9.187   9.924
28077SOL    HW186128   8.329   9.210  10.016
28077SOL    HW286129   8.326   9.269   9.877
28078SOL     OW86130  13.056   1.158   0.985
28078SOL    HW186131  13.132   1.200   1.026
28078SOL    HW286132  13.013   1.227   0.936
28079SOL     OW86133   6.617   5.893  10.103
28079SOL    HW186134   6.706   5.892  10.066
28079SOL    HW286135   6.603   5.985  10.128
28080SOL     OW86136  11.500   2.408   5.341
28080SOL    HW186137  11.508   2.364   5.426
28080SOL    HW286138  11.517   2.339   5.277
28081SOL     OW86139   7.862   3.075  10.059
28081SOL    HW186140   7.899   3.054   9.973
28081SOL    HW286141   7.768   3.080  10.044
28082SOL     OW86142   7.827  13.566  10.087
28082SOL    HW186143   7.795  13.502  10.150
28082SOL    HW286144   7.791  13.650  10.117
28083SOL     OW86145  12.452   4.467  13.331
28083SOL    HW186146  12.406   4.384  13.343
28083SOL    HW286147  12.483   4.465  13.240
28084SOL     OW86148  12.303  10.625  14.615
28084SOL    HW186149  12.304  10.680  14.693
28084SOL    HW286150  12.235  10.560  14.633
28085SOL     OW86151  12.060   4.737  10.441
28085SOL    HW186152  12.064   4.787  10.522
28085SOL    HW286153  11.982   4.769  10.397
28086SOL     OW86154   0.775   5.812  11.481
28086SOL    HW186155   0.814   5.763  11.553
28086SOL    HW286156   0.694   5.847  11.516
28087SOL     OW86157   9.997  11.491  12.310
28087SOL    HW186158  10.064  11.539  12.358
28087SOL    HW286159  10.046  11.437  12.249
28088SOL     OW86160   6.970   1.063   7.028
28088SOL    HW186161   6.996   1.020   6.947
28088SOL    HW286162   6.875   1.072   7.021
28089SOL     OW86163   1.676   2.143  14.376
28089SOL    HW186164   1.700   2.207  14.310
28089SOL    HW286165   1.632   2.073  14.327
28090SOL     OW86166   2.473   6.428   9.630
28090SOL    HW186167   2.492   6.507   9.680
28090SOL    HW286168   2.377   6.425   9.626
28091SOL     OW86169  11.990   4.651   2.910
28091SOL    HW186170  12.059   4.710   2.941
28091SOL    HW286171  11.941   4.627   2.989
28092SOL     OW86172   8.123   0.560   5.966
28092SOL    HW186173   8.028   0.560   5.977
28092SOL    HW286174   8.138   0.519   5.881
28093SOL     OW86175   0.765   1.748   4.753
28093SOL    HW186176   0.822   1.825   4.755
28093SOL    HW286177   0.701   1.764   4.823
28094SOL     OW86178   9.315   2.762  12.266
28094SOL    HW186179   9.250   2.742  12.198
28094SOL    HW286180   9.380   2.816  12.221
28095SOL     OW86181   2.799   4.833   0.020
28095SOL    HW186182   2.855   4.891  14.841
28095SOL    HW286183   2.820   4.855   0.111
28096SOL     OW86184  12.312   6.609   1.187
28096SOL    HW186185  12.352   6.696   1.180
28096SOL    HW286186  12.226   6.625   1.226
28097SOL     OW86187  10.056   2.522   6.045
28097SOL    HW186188  10.111   2.452   6.010
28097SOL    HW286189  10.032   2.574   5.968
28098SOL     OW86190   0.546   0.660  14.810
28098SOL    HW186191   0.490   0.738  14.805
28098SOL    HW286192   0.622   0.681  14.756
28099SOL     OW86193  11.549   1.763  11.219
28099SOL    HW186194  11.482   1.737  11.156
28099SOL    HW286195  11.628   1.715  11.193
28100SOL     OW86196   6.253  11.550   5.537
28100SOL    HW186197   6.202  11.469   5.539
28100SOL    HW286198   6.199  11.609   5.484
28101SOL     OW86199   3.492   7.856   4.738
28101SOL    HW186200   3.501   7.887   4.648
28101SOL    HW286201   3.420   7.793   4.735
28102SOL     OW86202  11.089   9.643   9.259
28102SOL    HW186203  11.068   9.553   9.236
28102SOL    HW286204  11.100   9.688   9.175
28103SOL     OW86205  14.628  13.901   6.642
28103SOL    HW186206  14.669  13.937   6.563
28103SOL    HW286207  14.547  13.860   6.610
28104SOL     OW86208   9.674  13.757   2.970
28104SOL    HW186209   9.673  13.762   3.066
28104SOL    HW286210   9.590  13.794   2.944
28105SOL     OW86211   1.256  10.953   5.079
28105SOL    HW186212   1.214  10.988   5.157
28105SOL    HW286213   1.341  10.922   5.109
28106SOL     OW86214   9.928   4.692  13.670
28106SOL    HW186215   9.942   4.720  13.580
28106SOL    HW286216   9.851   4.741  13.699
28107SOL     OW86217  10.795  13.853   1.972
28107SOL    HW186218  10.820  13.796   2.044
28107SOL    HW286219  10.807  13.799   1.894
28108SOL     OW86220   5.244   5.631   4.545
28108SOL    HW186221   5.255   5.720   4.510
28108SOL    HW286222   5.318   5.620   4.605
28109SOL     OW86223   9.907   4.497   0.869
28109SOL    HW186224   9.969   4.537   0.809
28109SOL    HW286225   9.907   4.404   0.846
28110SOL     OW86226   7.714   1.194   5.636
28110SOL    HW186227   7.740   1.121   5.579
28110SOL    HW286228   7.782   1.197   5.703
28111SOL     OW86229   4.078   5.341  11.393
28111SOL    HW186230   4.127   5.331  11.475
28111SOL    HW286231   4.127   5.408  11.344
28112SOL     OW86232  13.981   3.191  12.417
28112SOL    HW186233  13.957   3.193  12.510
28112SOL    HW286234  13.974   3.099  12.392
28113SOL     OW86235   5.864  12.435  12.926
28113SOL    HW186236   5.778  12.421  12.888
28113SOL    HW286237   5.856  12.519  12.972
28114SOL     OW86238   9.230  13.826   8.067
28114SOL    HW186239   9.216  13.819   8.161
28114SOL    HW286240   9.155  13.782   8.028
28115SOL     OW86241  11.237   0.011   5.441
28115SOL    HW186242  11.142   0.002   5.439
28115SOL    HW286243  11.264  14.846   5.525
28116SOL     OW86244   8.710  14.727   1.625
28116SOL    HW186245   8.617  14.732   1.646
28116SOL    HW286246   8.732  14.634   1.631
28117SOL     OW86247  13.850   5.338   3.771
28117SOL    HW186248  13.784   5.295   3.718
28117SOL    HW286249  13.903   5.387   3.708
28118SOL     OW86250   3.415  11.181   0.927
28118SOL    HW186251   3.419  11.275   0.907
28118SOL    HW286252   3.409  11.139   0.841
28119SOL     OW86253   0.867   5.510  14.652
28119SOL    HW186254   0.957   5.508  14.683
28119SOL    HW286255   0.859   5.434  14.594
28120SOL     OW86256  12.591   9.827   8.758
28120SOL    HW186257  12.605   9.745   8.710
28120SOL    HW286258  12.622   9.895   8.699
28121SOL     OW86259   2.068  11.379   2.841
28121SOL    HW186260   2.101  11.295   2.808
28121SOL    HW286261   1.983  11.390   2.798
28122SOL     OW86262   0.884   8.598  14.442
28122SOL    HW186263   0.889   8.505  14.461
28122SOL    HW286264   0.803   8.608  14.390
28123SOL     OW86265  14.596   1.102  11.740
28123SOL    HW186266  14.583   1.173  11.676
28123SOL    HW286267  14.509   1.063  11.749
28124SOL     OW86268  10.877   1.746  14.822
28124SOL    HW186269  10.879   1.797   0.031
28124SOL    HW286270  10.893   1.810  14.753
28125SOL     OW86271   8.873   4.657  11.141
28125SOL    HW186272   8.905   4.603  11.069
28125SOL    HW286273   8.893   4.746  11.114
28126SOL     OW86274   0.178   1.043   3.214
28126SOL    HW186275   0.185   0.959   3.169
28126SOL    HW286276   0.108   1.030   3.278
28127SOL     OW86277   7.771  10.175   8.865
28127SOL    HW186278   7.863  10.194   8.844
28127SOL    HW286279   7.773  10.143   8.955
28128SOL     OW86280   6.197   2.576   3.209
28128SOL    HW186281   6.210   2.669   3.193
28128SOL    HW286282   6.202   2.566   3.304
28129SOL     OW86283   5.555  14.081  13.179
28129SOL    HW186284   5.561  13.990  13.150
28129SOL    HW286285   5.495  14.078  13.254
28130SOL     OW86286   6.044   9.754  11.135
28130SOL    HW186287   6.004   9.672  11.107
28130SOL    HW286288   6.069   9.798  11.054
28131SOL     OW86289  11.849  14.338  13.651
28131SOL    HW186290  11.782  14.405  13.638
28131SOL    HW286291  11.817  14.261  13.604
28132SOL     OW86292   8.321   2.476   6.568
28132SOL    HW186293   8.363   2.523   6.640
28132SOL    HW286294   8.259   2.417   6.610
28133SOL     OW86295   8.818  13.733   3.504
28133SOL    HW186296   8.746  13.678   3.473
28133SOL    HW286297   8.861  13.680   3.572
28134SOL     OW86298   5.210  11.115   6.492
28134SOL    HW186299   5.207  11.133   6.586
28134SOL    HW286300   5.200  11.020   6.485
28135SOL     OW86301  11.193   1.202   6.838
28135SOL    HW186302  11.190   1.107   6.831
28135SOL    HW286303  11.186   1.233   6.748
28136SOL     OW86304   5.546   2.145   1.933
28136SOL    HW186305   5.489   2.214   1.899
28136SOL    HW286306   5.508   2.122   2.018
28137SOL     OW86307  10.708   1.726   3.669
28137SOL    HW186308  10.682   1.635   3.650
28137SOL    HW286309  10.791   1.718   3.716
28138SOL     OW86310   8.997   8.322  11.672
28138SOL    HW186311   9.033   8.250  11.620
28138SOL    HW286312   9.011   8.400  11.618
28139SOL     OW86313   7.549   0.940  13.238
28139SOL    HW186314   7.546   0.845  13.226
28139SOL    HW286315   7.521   0.954  13.328
28140SOL     OW86316   8.398  10.555   7.334
28140SOL    HW186317   8.342  10.478   7.337
28140SOL    HW286318   8.425  10.562   7.242
28141SOL     OW86319  10.579   6.377  13.752
28141SOL    HW186320  10.491   6.415  13.749
28141SOL    HW286321  10.632   6.442  13.796
28142SOL     OW86322   1.685   7.365   2.699
28142SOL    HW186323   1.612   7.304   2.693
28142SOL    HW286324   1.694   7.384   2.793
28143SOL     OW86325   8.385   3.252  13.996
28143SOL    HW186326   8.443   3.198  14.049
28143SOL    HW286327   8.325   3.293  14.059
28144SOL     OW86328  12.266  10.843  12.415
28144SOL    HW186329  12.325  10.844  12.491
28144SOL    HW286330  12.263  10.751  12.389
28145SOL     OW86331  10.941  13.223   1.255
28145SOL    HW186332  10.898  13.229   1.170
28145SOL    HW286333  11.025  13.181   1.237
28146SOL     OW86334   4.135   0.739  14.012
28146SOL    HW186335   4.083   0.802  13.962
28146SOL    HW286336   4.167   0.677  13.947
28147SOL     OW86337   5.979   5.686   7.107
28147SOL    HW186338   6.012   5.756   7.163
28147SOL    HW286339   6.021   5.607   7.143
28148SOL     OW86340   6.039   3.706  11.797
28148SOL    HW186341   6.045   3.766  11.722
28148SOL    HW286342   6.059   3.620  11.761
28149SOL     OW86343   0.749   6.057   2.980
28149SOL    HW186344   0.675   6.074   3.038
28149SOL    HW286345   0.710   6.048   2.893
28150SOL     OW86346  12.979   1.128   6.080
28150SOL    HW186347  13.008   1.049   6.035
28150SOL    HW286348  13.058   1.164   6.120
28151SOL     OW86349   5.810   4.382  12.588
28151SOL    HW186350   5.792   4.475  12.603
28151SOL    HW286351   5.903   4.379  12.568
28152SOL     OW86352  14.702   9.588  12.252
28152SOL    HW186353  14.644   9.653  12.212
28152SOL    HW286354  14.699   9.609  12.345
28153SOL     OW86355   1.150   8.827   5.068
28153SOL    HW186356   1.112   8.749   5.027
28153SOL    HW286357   1.229   8.845   5.017
28154SOL     OW86358   2.296   2.379   2.256
28154SOL    HW186359   2.218   2.413   2.300
28154SOL    HW286360   2.369   2.424   2.300
28155SOL     OW86361  10.730  11.863   3.061
28155SOL    HW186362  10.721  11.944   3.111
28155SOL    HW286363  10.641  11.830   3.051
28156SOL     OW86364   2.419   9.807   4.747
28156SOL    HW186365   2.375   9.871   4.691
28156SOL    HW286366   2.351   9.780   4.809
28157SOL     OW86367  11.343  12.131   8.849
28157SOL    HW186368  11.251  12.155   8.858
28157SOL    HW286369  11.389  12.181   8.917
28158SOL     OW86370   0.284   0.882   7.932
28158SOL    HW186371   0.219   0.847   7.871
28158SOL    HW286372   0.354   0.817   7.932
28159SOL     OW86373  10.217   7.035   0.934
28159SOL    HW186374  10.250   7.116   0.973
28159SOL    HW286375  10.286   6.971   0.949
28160SOL     OW86376   1.684  10.931   2.613
28160SOL    HW186377   1.588  10.932   2.615
28160SOL    HW286378   1.706  10.883   2.534
28161SOL     OW86379  13.562   9.604   8.873
28161SOL    HW186380  13.598   9.611   8.785
28161SOL    HW286381  13.504   9.680   8.882
28162SOL     OW86382   3.693  11.830  11.059
28162SOL    HW186383   3.663  11.827  10.968
28162SOL    HW286384   3.616  11.810  11.111
28163SOL     OW86385   9.632   4.958   5.596
28163SOL    HW186386   9.657   4.955   5.504
28163SOL    HW286387   9.687   4.891   5.638
28164SOL     OW86388   5.993   3.781   9.827
28164SOL    HW186389   6.044   3.712   9.870
28164SOL    HW286390   6.059   3.837   9.787
28165SOL     OW86391   7.499   9.718  13.557
28165SOL    HW186392   7.463   9.695  13.642
28165SOL    HW286393   7.423   9.734  13.502
28166SOL     OW86394  12.334   3.535   0.151
28166SOL    HW186395  12.367   3.594   0.084
28166SOL    HW286396  12.317   3.453   0.104
28167SOL     OW86397  13.221   9.639   6.952
28167SOL    HW186398  13.288   9.639   6.883
28167SOL    HW286399  13.221   9.729   6.985
28168SOL     OW86400   4.169  13.082   7.187
28168SOL    HW186401   4.223  13.037   7.252
28168SOL    HW286402   4.233  13.126   7.130
28169SOL     OW86403   4.329  13.725  10.367
28169SOL    HW186404   4.255  13.785  10.377
28169SOL    HW286405   4.391  13.753  10.435
28170SOL     OW86406   5.295  10.661  11.180
28170SOL    HW186407   5.202  10.650  11.201
28170SOL    HW286408   5.296  10.677  11.085
28171SOL     OW86409   6.234  11.615   3.369
28171SOL    HW186410   6.190  11.532   3.351
28171SOL    HW286411   6.324  11.601   3.340
28172SOL     OW86412  11.974   5.431   6.657
28172SOL    HW186413  12.033   5.498   6.693
28172SOL    HW286414  12.026   5.388   6.589
28173SOL     OW86415   2.858   0.387   9.759
28173SOL    HW186416   2.945   0.350   9.754
28173SOL    HW286417   2.808   0.342   9.690
28174SOL     OW86418   9.630   0.817   8.642
28174SOL    HW186419   9.585   0.809   8.558
28174SOL    HW286420   9.594   0.896   8.681
28175SOL     OW86421   0.753   2.700  12.201
28175SOL    HW186422   0.816   2.648  12.251
28175SOL    HW286423   0.787   2.790  12.208
28176SOL     OW86424   0.007   8.903  13.711
28176SOL    HW186425   0.088   8.853  13.719
28176SOL    HW286426   0.031   8.992  13.737
28177SOL     OW86427   8.986   9.572   5.660
28177SOL    HW186428   9.076   9.539   5.659
28177SOL    HW286429   8.945   9.534   5.583
28178SOL     OW86430  10.923   3.289   0.144
28178SOL    HW186431  11.008   3.330   0.130
28178SOL    HW286432  10.925   3.262   0.236
28179SOL     OW86433   5.509  13.334   4.558
28179SOL    HW186434   5.478  13.284   4.633
28179SOL    HW286435   5.526  13.269   4.490
28180SOL     OW86436   5.635   5.309   8.160
28180SOL    HW186437   5.557   5.261   8.133
28180SOL    HW286438   5.690   5.311   8.082
28181SOL     OW86439   1.237   7.846   4.199
28181SOL    HW186440   1.324   7.852   4.161
28181SOL    HW286441   1.209   7.937   4.209
28182SOL     OW86442   5.669   3.063   9.815
28182SOL    HW186443   5.693   3.112   9.736
28182SOL    HW286444   5.582   3.094   9.837
28183SOL     OW86445   8.313   2.559  10.939
28183SOL    HW186446   8.274   2.491  10.993
28183SOL    HW286447   8.323   2.634  10.998
28184SOL     OW86448   4.700  14.614   3.754
28184SOL    HW186449   4.687  14.526   3.790
28184SOL    HW286450   4.659  14.611   3.668
28185SOL     OW86451  13.044   5.007  10.082
28185SOL    HW186452  13.037   4.946  10.008
28185SOL    HW286453  12.995   4.964  10.153
28186SOL     OW86454  13.023   2.010   4.029
28186SOL    HW186455  13.021   2.106   4.026
28186SOL    HW286456  13.105   1.989   4.073
28187SOL     OW86457  12.671   7.748   3.861
28187SOL    HW186458  12.706   7.718   3.777
28187SOL    HW286459  12.581   7.713   3.863
28188SOL     OW86460   7.316   3.348  11.412
28188SOL    HW186461   7.236   3.400  11.415
28188SOL    HW286462   7.303   3.288  11.339
28189SOL     OW86463   3.591  10.459   6.211
28189SOL    HW186464   3.641  10.425   6.285
28189SOL    HW286465   3.513  10.405   6.207
28190SOL     OW86466   7.386   7.527   0.314
28190SOL    HW186467   7.460   7.535   0.374
28190SOL    HW286468   7.367   7.433   0.311
28191SOL     OW86469   6.439  11.834   8.830
28191SOL    HW186470   6.418  11.879   8.912
28191SOL    HW286471   6.400  11.889   8.762
28192SOL     OW86472   1.256   0.769  14.151
28192SOL    HW186473   1.348   0.741  14.148
28192SOL    HW286474   1.235   0.791  14.060
28193SOL     OW86475   3.793  11.668   7.121
28193SOL    HW186476   3.812  11.578   7.094
28193SOL    HW286477   3.707  11.663   7.163
28194SOL     OW86478   3.437  12.835  13.850
28194SOL    HW186479   3.467  12.921  13.819
28194SOL    HW286480   3.351  12.824  13.810
28195SOL     OW86481   8.970   2.720   2.109
28195SOL    HW186482   8.957   2.807   2.071
28195SOL    HW286483   9.006   2.738   2.196
28196SOL     OW86484  10.368   5.558   2.279
28196SOL    HW186485  10.354   5.567   2.373
28196SOL    HW286486  10.353   5.466   2.261
28197SOL     OW86487  13.766   9.919   2.297
28197SOL    HW186488  13.858   9.902   2.275
28197SOL    HW286489  13.770   9.980   2.370
28198SOL     OW86490  11.273  12.845   1.773
28198SOL    HW186491  11.198  12.793   1.742
28198SOL    HW286492  11.347  12.813   1.722
28199SOL     OW86493   2.966  11.231   0.093
28199SOL    HW186494   3.033  11.263   0.033
28199SOL    HW286495   3.003  11.242   0.180
28200SOL     OW86496  11.673   9.542   7.493
28200SOL    HW186497  11.645   9.576   7.578
28200SOL    HW286498  11.616   9.466   7.477
28201SOL     OW86499   7.437   4.545  12.229
28201SOL    HW186500   7.437   4.535  12.325
28201SOL    HW286501   7.524   4.579  12.208
28202SOL     OW86502   4.195   8.169  14.293
28202SOL    HW186503   4.172   8.121  14.213
28202SOL    HW286504   4.260   8.233  14.264
28203SOL     OW86505   4.714   5.035   0.341
28203SOL    HW186506   4.805   5.020   0.366
28203SOL    HW286507   4.674   5.075   0.418
28204SOL     OW86508   1.931   2.627  14.451
28204SOL    HW186509   1.936   2.618  14.546
28204SOL    HW286510   1.988   2.558  14.417
28205SOL     OW86511   6.368   4.570   7.218
28205SOL    HW186512   6.436   4.636   7.232
28205SOL    HW286513   6.368   4.518   7.299
28206SOL     OW86514  12.196   6.627   3.968
28206SOL    HW186515  12.276   6.666   4.004
28206SOL    HW286516  12.145   6.702   3.938
28207SOL     OW86517  12.706   1.102   3.023
28207SOL    HW186518  12.662   1.178   3.060
28207SOL    HW286519  12.636   1.039   3.005
28208SOL     OW86520  10.379  12.125   6.347
28208SOL    HW186521  10.324  12.047   6.336
28208SOL    HW286522  10.469  12.090   6.348
28209SOL     OW86523  10.965   4.812   5.605
28209SOL    HW186524  10.886   4.796   5.554
28209SOL    HW286525  10.944   4.777   5.692
28210SOL     OW86526   8.462   8.817   9.315
28210SOL    HW186527   8.511   8.751   9.363
28210SOL    HW286528   8.414   8.865   9.382
28211SOL     OW86529  10.313   3.545  10.873
28211SOL    HW186530  10.383   3.599  10.836
28211SOL    HW286531  10.356   3.490  10.938
28212SOL     OW86532   8.088  10.401   1.702
28212SOL    HW186533   8.039  10.328   1.739
28212SOL    HW286534   8.172  10.363   1.675
28213SOL     OW86535   2.309   3.380   3.525
28213SOL    HW186536   2.383   3.384   3.585
28213SOL    HW286537   2.347   3.351   3.442
28214SOL     OW86538  14.734   6.045   0.127
28214SOL    HW186539  14.761   6.122   0.077
28214SOL    HW286540  14.801   5.979   0.108
28215SOL     OW86541   2.339   1.973  12.776
28215SOL    HW186542   2.308   2.021  12.700
28215SOL    HW286543   2.277   1.995  12.846
28216SOL     OW86544   1.212   7.402  10.040
28216SOL    HW186545   1.237   7.399  10.132
28216SOL    HW286546   1.170   7.317  10.024
28217SOL     OW86547  13.643   1.287   4.968
28217SOL    HW186548  13.552   1.317   4.977
28217SOL    HW286549  13.690   1.332   5.038
28218SOL     OW86550   4.096   2.341   4.408
28218SOL    HW186551   4.105   2.246   4.420
28218SOL    HW286552   4.002   2.355   4.398
28219SOL     OW86553  12.818   2.701   5.632
28219SOL    HW186554  12.863   2.702   5.548
28219SOL    HW286555  12.778   2.788   5.639
28220SOL     OW86556   1.589   9.058  14.344
28220SOL    HW186557   1.614   8.966  14.357
28220SOL    HW286558   1.664   9.097  14.300
28221SOL     OW86559  12.908   1.092  10.191
28221SOL    HW186560  12.850   1.158  10.229
28221SOL    HW286561  12.849   1.027  10.152
28222SOL     OW86562   8.425  14.795   2.100
28222SOL    HW186563   8.490  14.744   2.053
28222SOL    HW286564   8.411   0.000   2.046
28223SOL     OW86565   8.838   1.191  12.357
28223SOL    HW186566   8.930   1.173  12.339
28223SOL    HW286567   8.833   1.195  12.452
28224SOL     OW86568  12.079  10.805   7.780
28224SOL    HW186569  12.168  10.776   7.761
28224SOL    HW286570  12.079  10.898   7.755
28225SOL     OW86571   1.542  12.340   0.576
28225SOL    HW186572   1.608  12.407   0.593
28225SOL    HW286573   1.487  12.341   0.655
28226SOL     OW86574   6.316   2.705   0.303
28226SOL    HW186575   6.344   2.713   0.394
28226SOL    HW286576   6.375   2.640   0.265
28227SOL     OW86577   5.912   2.922  14.393
28227SOL    HW186578   5.946   2.955  14.309
28227SOL    HW286579   5.911   2.827  14.383
28228SOL     OW86580  13.337   0.580   1.698
28228SOL    HW186581  13.243   0.579   1.678
28228SOL    HW286582  13.342   0.594   1.792
28229SOL     OW86583  13.237   7.692   5.381
28229SOL    HW186584  13.186   7.669   5.459
28229SOL    HW286585  13.259   7.784   5.393
28230SOL     OW86586   2.626  11.285   0.269
28230SOL    HW186587   2.629  11.291   0.173
28230SOL    HW286588   2.541  11.322   0.293
28231SOL     OW86589   7.737   9.346   9.486
28231SOL    HW186590   7.770   9.262   9.518
28231SOL    HW286591   7.652   9.356   9.530
28232SOL     OW86592   0.879   3.074   9.966
28232SOL    HW186593   0.910   3.077   9.875
28232SOL    HW286594   0.954   3.040  10.015
28233SOL     OW86595   4.095   8.850   3.511
28233SOL    HW186596   4.110   8.879   3.421
28233SOL    HW286597   4.134   8.763   3.515
28234SOL     OW86598   2.078  11.197  10.607
28234SOL    HW186599   2.014  11.144  10.560
28234SOL    HW286600   2.035  11.281  10.620
28235SOL     OW86601   9.651  11.473   5.523
28235SOL    HW186602   9.583  11.483   5.457
28235SOL    HW286603   9.610  11.420   5.591
28236SOL     OW86604  14.407   2.976   4.975
28236SOL    HW186605  14.423   2.881   4.973
28236SOL    HW286606  14.316   2.984   5.002
28237SOL     OW86607   1.232   1.186   8.588
28237SOL    HW186608   1.232   1.134   8.668
28237SOL    HW286609   1.305   1.246   8.598
28238SOL     OW86610   8.399   0.962  12.709
28238SOL    HW186611   8.479   0.951  12.659
28238SOL    HW286612   8.358   0.876  12.708
28239SOL     OW86613  13.788   3.034   3.990
28239SOL    HW186614  13.847   2.983   4.046
28239SOL    HW286615  13.791   2.990   3.905
28240SOL     OW86616   4.266  13.691  11.571
28240SOL    HW186617   4.306  13.623  11.516
28240SOL    HW286618   4.320  13.768  11.555
28241SOL     OW86619   2.936   1.904   9.802
28241SOL    HW186620   2.976   1.853   9.732
28241SOL    HW286621   3.010   1.947   9.845
28242SOL     OW86622  12.565   7.950  13.672
28242SOL    HW186623  12.651   7.927  13.709
28242SOL    HW286624  12.502   7.919  13.737
28243SOL     OW86625  10.849   2.188  13.016
28243SOL    HW186626  10.809   2.274  13.023
28243SOL    HW286627  10.930   2.203  12.967
28244SOL     OW86628   0.013   1.026   9.243
28244SOL    HW186629  14.847   0.993   9.161
28244SOL    HW286630  14.821   1.089   9.275
28245SOL     OW86631  11.988   6.499   2.622
28245SOL    HW186632  12.022   6.410   2.627
28245SOL    HW286633  12.054   6.552   2.665
28246SOL     OW86634  10.685  12.988   9.621
28246SOL    HW186635  10.663  13.081   9.626
28246SOL    HW286636  10.777  12.983   9.647
28247SOL     OW86637   8.012   1.742   8.557
28247SOL    HW186638   8.020   1.689   8.477
28247SOL    HW286639   8.093   1.725   8.605
28248SOL     OW86640   6.716   3.892  12.702
28248SOL    HW186641   6.753   3.969  12.658
28248SOL    HW286642   6.638   3.871  12.652
28249SOL     OW86643   0.767   3.559   5.397
28249SOL    HW186644   0.723   3.478   5.370
28249SOL    HW286645   0.709   3.628   5.366
28250SOL     OW86646   9.475   4.402   4.169
28250SOL    HW186647   9.560   4.444   4.155
28250SOL    HW286648   9.432   4.408   4.084
28251SOL     OW86649  11.090   5.626  11.051
28251SOL    HW186650  11.109   5.608  11.143
28251SOL    HW286651  11.020   5.565  11.028
28252SOL     OW86652   3.165   6.218   4.129
28252SOL    HW186653   3.180   6.138   4.079
28252SOL    HW286654   3.099   6.266   4.079
28253SOL     OW86655  13.528  14.356  12.567
28253SOL    HW186656  13.497  14.440  12.602
28253SOL    HW286657  13.452  14.299  12.571
28254SOL     OW86658  13.571   3.395   6.195
28254SOL    HW186659  13.528   3.474   6.229
28254SOL    HW286660  13.663   3.405   6.220
28255SOL     OW86661   1.703  10.456  11.248
28255SOL    HW186662   1.653  10.493  11.321
28255SOL    HW286663   1.651  10.477  11.171
28256SOL     OW86664   8.066   3.350  13.031
28256SOL    HW186665   8.078   3.349  13.126
28256SOL    HW286666   8.005   3.422  13.015
28257SOL     OW86667   5.722  12.560  11.174
28257SOL    HW186668   5.791  12.613  11.212
28257SOL    HW286669   5.654  12.556  11.241
28258SOL     OW86670   2.421  14.335   9.492
28258SOL    HW186671   2.331  14.331   9.525
28258SOL    HW286672   2.441  14.429   9.488
28259SOL     OW86673   9.456   1.500   2.357
28259SOL    HW186674   9.524   1.444   2.319
28259SOL    HW286675   9.445   1.468   2.446
28260SOL     OW86676  14.781   7.383   9.531
28260SOL    HW186677  14.687   7.398   9.522
28260SOL    HW286678  14.821   7.449   9.474
28261SOL     OW86679   0.996   5.500   6.376
28261SOL    HW186680   1.047   5.502   6.295
28261SOL    HW286681   1.041   5.562   6.434
28262SOL     OW86682   4.345   5.149   8.834
28262SOL    HW186683   4.286   5.090   8.882
28262SOL    HW286684   4.407   5.180   8.900
28263SOL     OW86685   3.171  12.910  10.013
28263SOL    HW186686   3.250  12.963  10.005
28263SOL    HW286687   3.107  12.967  10.055
28264SOL     OW86688   5.748   4.210   3.188
28264SOL    HW186689   5.769   4.265   3.113
28264SOL    HW286690   5.673   4.159   3.160
28265SOL     OW86691   7.621   8.029  12.331
28265SOL    HW186692   7.578   7.957  12.284
28265SOL    HW286693   7.569   8.106  12.309
28266SOL     OW86694   0.011  14.605  13.739
28266SOL    HW186695  14.830  14.685  13.736
28266SOL    HW286696   0.096  14.631  13.704
28267SOL     OW86697   5.441  12.799   4.080
28267SOL    HW186698   5.434  12.871   4.142
28267SOL    HW286699   5.491  12.835   4.007
28268SOL     OW86700   0.332   1.988   0.103
28268SOL    HW186701   0.259   1.927   0.112
28268SOL    HW286702   0.305   2.066   0.151
28269SOL     OW86703   5.080  12.612  10.478
28269SOL    HW186704   5.157  12.655  10.440
28269SOL    HW286705   5.010  12.678  10.470
28270SOL     OW86706   0.544   4.741   1.496
28270SOL    HW186707   0.480   4.755   1.565
28270SOL    HW286708   0.534   4.815   1.437
28271SOL     OW86709  13.166   8.365   9.463
28271SOL    HW186710  13.087   8.343   9.413
28271SOL    HW286711  13.238   8.349   9.402
28272SOL     OW86712  11.467  14.025  11.657
28272SOL    HW186713  11.467  14.017  11.752
28272SOL    HW286714  11.376  14.007  11.632
28273SOL     OW86715   7.067   3.855  11.149
28273SOL    HW186716   7.016   3.927  11.112
28273SOL    HW286717   7.052   3.861  11.244
28274SOL     OW86718  13.701  13.517   4.196
28274SOL    HW186719  13.778  13.573   4.185
28274SOL    HW286720  13.655  13.554   4.272
28275SOL     OW86721   6.338  13.777   5.444
28275SOL    HW186722   6.418  13.805   5.489
28275SOL    HW286723   6.329  13.685   5.466
28276SOL     OW86724   2.496   0.750  11.027
28276SOL    HW186725   2.585   0.765  10.995
28276SOL    HW286726   2.459   0.688  10.964
28277SOL     OW86727   8.893   2.766   0.571
28277SOL    HW186728   8.972   2.796   0.616
28277SOL    HW286729   8.821   2.787   0.630
28278SOL     OW86730   2.694   4.000   5.054
28278SOL    HW186731   2.744   3.940   4.998
28278SOL    HW286732   2.718   3.976   5.143
28279SOL     OW86733  14.018  10.845   3.897
28279SOL    HW186734  13.941  10.866   3.951
28279SOL    HW286735  14.083  10.815   3.960
28280SOL     OW86736   0.393  14.102  12.714
28280SOL    HW186737   0.332  14.176  12.711
28280SOL    HW286738   0.469  14.135  12.763
28281SOL     OW86739  14.526   0.585   9.541
28281SOL    HW186740  14.465   0.659   9.552
28281SOL    HW286741  14.509   0.553   9.452
28282SOL     OW86742  14.062   2.672   1.491
28282SOL    HW186743  14.062   2.765   1.515
28282SOL    HW286744  14.132   2.664   1.426
28283SOL     OW86745   2.950   8.995  12.323
28283SOL    HW186746   3.012   9.067  12.338
28283SOL    HW286747   2.987   8.922  12.373
28284SOL     OW86748   1.820   7.785   1.162
28284SOL    HW186749   1.751   7.762   1.223
28284SOL    HW286750   1.889   7.823   1.217
28285SOL     OW86751  14.005   3.198   0.752
28285SOL    HW186752  14.053   3.208   0.834
28285SOL    HW286753  13.926   3.251   0.764
28286SOL     OW86754  14.310   1.672   9.107
28286SOL    HW186755  14.247   1.626   9.162
28286SOL    HW286756  14.379   1.607   9.091
28287SOL     OW86757  11.089   2.102  13.459
28287SOL    HW186758  11.116   2.167  13.394
28287SOL    HW286759  11.156   2.034  13.455
28288SOL     OW86760  14.689   8.878   9.478
28288SOL    HW186761  14.738   8.879   9.396
28288SOL    HW286762  14.709   8.792   9.516
28289SOL     OW86763   8.340   6.935   6.746
28289SOL    HW186764   8.311   6.960   6.834
28289SOL    HW286765   8.265   6.952   6.690
28290SOL     OW86766  12.374   0.382   4.272
28290SOL    HW186767  12.433   0.456   4.287
28290SOL    HW286768  12.374   0.334   4.355
28291SOL     OW86769   0.604   5.632  10.739
28291SOL    HW186770   0.661   5.705  10.765
28291SOL    HW286771   0.664   5.561  10.719
28292SOL     OW86772  13.062  10.647   5.741
28292SOL    HW186773  12.983  10.609   5.781
28292SOL    HW286774  13.114  10.572   5.714
28293SOL     OW86775  11.386   0.850   1.647
28293SOL    HW186776  11.302   0.808   1.666
28293SOL    HW286777  11.384   0.866   1.553
28294SOL     OW86778   9.747  13.496   8.068
28294SOL    HW186779   9.814  13.466   8.007
28294SOL    HW286780   9.745  13.591   8.057
28295SOL     OW86781   3.416   6.984   8.026
28295SOL    HW186782   3.486   7.045   8.049
28295SOL    HW286783   3.458   6.917   7.973
28296SOL     OW86784   6.577   4.146   4.929
28296SOL    HW186785   6.569   4.205   4.855
28296SOL    HW286786   6.488   4.138   4.964
28297SOL     OW86787  13.706   6.320  11.991
28297SOL    HW186788  13.613   6.303  11.979
28297SOL    HW286789  13.717   6.327  12.085
28298SOL     OW86790   1.581  12.459   5.852
28298SOL    HW186791   1.486  12.445   5.850
28298SOL    HW286792   1.617  12.394   5.793
28299SOL     OW86793  11.648   2.960   1.928
28299SOL    HW186794  11.556   2.985   1.923
28299SOL    HW286795  11.670   2.965   2.021
28300SOL     OW86796   5.059   0.565   0.184
28300SOL    HW186797   5.122   0.630   0.155
28300SOL    HW286798   4.977   0.589   0.140
28301SOL     OW86799  12.285  10.016   8.626
28301SOL    HW186800  12.242   9.936   8.596
28301SOL    HW286801  12.259  10.024   8.718
28302SOL     OW86802  12.503   5.577   8.414
28302SOL    HW186803  12.426   5.552   8.363
28302SOL    HW286804  12.468   5.605   8.498
28303SOL     OW86805   2.262   0.211  11.906
28303SOL    HW186806   2.276   0.159  11.984
28303SOL    HW286807   2.168   0.225  11.902
28304SOL     OW86808  14.531   9.435   8.122
28304SOL    HW186809  14.437   9.419   8.124
28304SOL    HW286810  14.539   9.527   8.096
28305SOL     OW86811   1.310   4.714  14.690
28305SOL    HW186812   1.342   4.802  14.670
28305SOL    HW286813   1.250   4.693  14.618
28306SOL     OW86814   6.251   3.834   0.156
28306SOL    HW186815   6.181   3.775   0.183
28306SOL    HW286816   6.219   3.921   0.178
28307SOL     OW86817   2.223  11.048   0.164
28307SOL    HW186818   2.283  11.080   0.231
28307SOL    HW286819   2.148  11.107   0.168
28308SOL     OW86820   8.211   5.149   7.753
28308SOL    HW186821   8.195   5.062   7.716
28308SOL    HW286822   8.145   5.159   7.822
28309SOL     OW86823   7.884   3.671   0.907
28309SOL    HW186824   7.974   3.702   0.919
28309SOL    HW286825   7.889   3.611   0.833
28310SOL     OW86826  10.345   9.130   3.282
28310SOL    HW186827  10.343   9.173   3.196
28310SOL    HW286828  10.347   9.036   3.261
28311SOL     OW86829  10.460   7.800   7.020
28311SOL    HW186830  10.542   7.774   6.980
28311SOL    HW286831  10.412   7.845   6.951
28312SOL     OW86832   3.926   4.827   1.779
28312SOL    HW186833   3.992   4.807   1.712
28312SOL    HW286834   3.955   4.778   1.856
28313SOL     OW86835   8.300  13.382   3.166
28313SOL    HW186836   8.238  13.392   3.094
28313SOL    HW286837   8.308  13.288   3.178
28314SOL     OW86838   7.059  11.219   5.118
28314SOL    HW186839   6.984  11.275   5.100
28314SOL    HW286840   7.069  11.222   5.213
28315SOL     OW86841   1.427   7.503   2.249
28315SOL    HW186842   1.510   7.524   2.206
28315SOL    HW286843   1.452   7.464   2.332
28316SOL     OW86844   1.423   2.183   5.528
28316SOL    HW186845   1.392   2.136   5.605
28316SOL    HW286846   1.402   2.126   5.454
28317SOL     OW86847   3.516   2.244   5.110
28317SOL    HW186848   3.545   2.322   5.062
28317SOL    HW286849   3.596   2.193   5.122
28318SOL     OW86850   8.282   4.714   1.238
28318SOL    HW186851   8.221   4.773   1.195
28318SOL    HW286852   8.259   4.718   1.331
28319SOL     OW86853  14.840   1.018   6.318
28319SOL    HW186854  14.846   1.078   6.243
28319SOL    HW286855  14.793   1.069   6.384
28320SOL     OW86856  11.779  13.501   0.599
28320SOL    HW186857  11.736  13.420   0.572
28320SOL    HW286858  11.832  13.526   0.524
28321SOL     OW86859   9.987   9.850   9.459
28321SOL    HW186860  10.035   9.927   9.489
28321SOL    HW286861   9.995   9.788   9.531
28322SOL     OW86862   7.072   8.642  10.320
28322SOL    HW186863   6.989   8.605  10.351
28322SOL    HW286864   7.129   8.641  10.397
28323SOL     OW86865   8.260   0.533  11.447
28323SOL    HW186866   8.319   0.507  11.376
28323SOL    HW286867   8.210   0.454  11.466
28324SOL     OW86868  13.625   2.934   0.493
28324SOL    HW186869  13.554   2.996   0.513
28324SOL    HW286870  13.636   2.940   0.398
28325SOL     OW86871   1.544  13.603   8.774
28325SOL    HW186872   1.494  13.524   8.793
28325SOL    HW286873   1.586  13.584   8.690
28326SOL     OW86874   0.689   6.467   1.738
28326SOL    HW186875   0.607   6.501   1.703
28326SOL    HW286876   0.748   6.543   1.738
28327SOL     OW86877   0.768   1.825   2.104
28327SOL    HW186878   0.846   1.770   2.093
28327SOL    HW286879   0.802   1.909   2.134
28328SOL     OW86880  12.117  13.832  13.202
28328SOL    HW186881  12.026  13.842  13.231
28328SOL    HW286882  12.115  13.757  13.143
28329SOL     OW86883   9.232  12.894   8.951
28329SOL    HW186884   9.272  12.956   8.891
28329SOL    HW286885   9.298  12.879   9.019
28330SOL     OW86886   0.826   1.917   9.146
28330SOL    HW186887   0.857   1.833   9.114
28330SOL    HW286888   0.882   1.937   9.221
28331SOL     OW86889  13.406  11.177   4.374
28331SOL    HW186890  13.447  11.251   4.329
28331SOL    HW286891  13.389  11.114   4.303
28332SOL     OW86892  10.116  10.200  11.492
28332SOL    HW186893  10.035  10.151  11.501
28332SOL    HW286894  10.088  10.289  11.467
28333SOL     OW86895   0.517   7.566   9.310
28333SOL    HW186896   0.518   7.471   9.324
28333SOL    HW286897   0.424   7.589   9.318
28334SOL     OW86898  12.551  10.308   6.548
28334SOL    HW186899  12.632  10.351   6.521
28334SOL    HW286900  12.485  10.376   6.541
28335SOL     OW86901  12.169   9.220   4.247
28335SOL    HW186902  12.112   9.281   4.200
28335SOL    HW286903  12.169   9.141   4.193
28336SOL     OW86904   2.479  14.029   6.918
28336SOL    HW186905   2.445  13.941   6.901
28336SOL    HW286906   2.543  14.016   6.988
28337SOL     OW86907  12.365   7.001   2.171
28337SOL    HW186908  12.426   7.008   2.244
28337SOL    HW286909  12.392   6.921   2.124
28338SOL     OW86910   0.103   2.108   7.184
28338SOL    HW186911   0.066   2.019   7.180
28338SOL    HW286912   0.094   2.141   7.094
28339SOL     OW86913  14.418   9.322  11.818
28339SOL    HW186914  14.324   9.314  11.834
28339SOL    HW286915  14.448   9.232  11.806
28340SOL     OW86916  13.967   3.706   7.369
28340SOL    HW186917  13.946   3.760   7.292
28340SOL    HW286918  13.882   3.688   7.409
28341SOL     OW86919   1.409  13.812   9.696
28341SOL    HW186920   1.403  13.765   9.612
28341SOL    HW286921   1.348  13.766   9.753
28342SOL     OW86922   9.817  10.552   6.157
28342SOL    HW186923   9.749  10.489   6.134
28342SOL    HW286924   9.848  10.586   6.074
28343SOL     OW86925   7.419  10.970   0.026
28343SOL    HW186926   7.434  10.946  14.806
28343SOL    HW286927   7.430  11.065   0.028
28344SOL     OW86928   3.402   0.341   7.561
28344SOL    HW186929   3.314   0.340   7.522
28344SOL    HW286930   3.419   0.433   7.580
28345SOL     OW86931   5.251   3.079   5.680
28345SOL    HW186932   5.320   3.115   5.736
28345SOL    HW286933   5.298   3.038   5.608
28346SOL     OW86934   1.763   1.873   8.170
28346SOL    HW186935   1.695   1.821   8.213
28346SOL    HW286936   1.815   1.809   8.121
28347SOL     OW86937   4.526   9.299   0.998
28347SOL    HW186938   4.451   9.298   0.939
28347SOL    HW286939   4.590   9.240   0.958
28348SOL     OW86940   6.791  11.953  12.490
28348SOL    HW186941   6.832  11.876  12.450
28348SOL    HW286942   6.699  11.947  12.464
28349SOL     OW86943   2.321   9.885  14.648
28349SOL    HW186944   2.386   9.949  14.677
28349SOL    HW286945   2.346   9.865  14.557
28350SOL     OW86946   3.627   2.697   5.786
28350SOL    HW186947   3.672   2.630   5.838
28350SOL    HW286948   3.564   2.736   5.846
28351SOL     OW86949   5.970  14.422  14.535
28351SOL    HW186950   6.058  14.402  14.504
28351SOL    HW286951   5.916  14.417  14.456
28352SOL     OW86952   1.346   4.433   2.234
28352SOL    HW186953   1.429   4.480   2.224
28352SOL    HW286954   1.347   4.402   2.324
28353SOL     OW86955   3.787   1.959  12.283
28353SOL    HW186956   3.835   2.027  12.331
28353SOL    HW286957   3.741   2.006  12.214
28354SOL     OW86958   3.908  13.294   9.185
28354SOL    HW186959   3.859  13.276   9.265
28354SOL    HW286960   3.904  13.389   9.174
28355SOL     OW86961   7.977   9.481   1.039
28355SOL    HW186962   8.030   9.534   1.098
28355SOL    HW286963   7.968   9.397   1.083
28356SOL     OW86964  12.941  10.056  10.192
28356SOL    HW186965  12.984  10.133  10.230
28356SOL    HW286966  13.010   9.990  10.187
28357SOL     OW86967   9.775  14.114   7.502
28357SOL    HW186968   9.848  14.137   7.559
28357SOL    HW286969   9.812  14.056   7.436
28358SOL     OW86970   8.021   8.776   8.858
28358SOL    HW186971   8.011   8.870   8.866
28358SOL    HW286972   8.012   8.757   8.765
28359SOL     OW86973   9.053   3.136  12.248
28359SOL    HW186974   9.032   3.095  12.333
28359SOL    HW286975   9.148   3.131  12.242
28360SOL     OW86976   6.957   1.676  12.272
28360SOL    HW186977   6.947   1.593  12.319
28360SOL    HW286978   7.052   1.686  12.260
28361SOL     OW86979  11.115   6.691   4.724
28361SOL    HW186980  11.193   6.639   4.703
28361SOL    HW286981  11.128   6.774   4.680
28362SOL     OW86982   6.508   6.959   7.098
28362SOL    HW186983   6.441   6.933   7.162
28362SOL    HW286984   6.588   6.967   7.149
28363SOL     OW86985   9.366   9.656   8.791
28363SOL    HW186986   9.365   9.658   8.887
28363SOL    HW286987   9.437   9.595   8.770
28364SOL     OW86988   4.984   9.619   3.473
28364SOL    HW186989   5.078   9.607   3.487
28364SOL    HW286990   4.978   9.666   3.389
28365SOL     OW86991   7.157   2.923   1.846
28365SOL    HW186992   7.075   2.877   1.828
28365SOL    HW286993   7.135   3.016   1.831
28366SOL     OW86994   2.833   0.843   5.578
28366SOL    HW186995   2.878   0.902   5.639
28366SOL    HW286996   2.761   0.806   5.630
28367SOL     OW86997  12.622   6.971  10.456
28367SOL    HW186998  12.699   6.978  10.512
28367SOL    HW286999  12.643   7.026  10.380
28368SOL     OW87000   3.340   5.189   3.688
28368SOL    HW187001   3.247   5.184   3.711
28368SOL    HW287002   3.368   5.097   3.681
28369SOL     OW87003   5.731   9.674   0.792
28369SOL    HW187004   5.802   9.724   0.831
28369SOL    HW287005   5.775   9.600   0.750
28370SOL     OW87006  11.805   2.521   8.936
28370SOL    HW187007  11.823   2.594   8.995
28370SOL    HW287008  11.844   2.445   8.979
28371SOL     OW87009  14.369  11.940   5.933
28371SOL    HW187010  14.291  11.905   5.889
28371SOL    HW287011  14.410  11.863   5.973
28372SOL     OW87012   7.763  14.122  14.536
28372SOL    HW187013   7.846  14.108  14.490
28372SOL    HW287014   7.718  14.037  14.531
28373SOL     OW87015   3.947   4.951   8.957
28373SOL    HW187016   3.907   4.878   9.005
28373SOL    HW287017   3.882   4.976   8.892
28374SOL     OW87018   7.104   1.837  13.286
28374SOL    HW187019   7.089   1.794  13.370
28374SOL    HW287020   7.085   1.770  13.220
28375SOL     OW87021  11.325  12.522   9.674
28375SOL    HW187022  11.236  12.504   9.706
28375SOL    HW287023  11.369  12.437   9.675
28376SOL     OW87024   8.062   0.100   8.271
28376SOL    HW187025   7.985   0.108   8.327
28376SOL    HW287026   8.028   0.063   8.190
28377SOL     OW87027   4.474   9.570   2.185
28377SOL    HW187028   4.527   9.528   2.117
28377SOL    HW287029   4.532   9.634   2.225
28378SOL     OW87030   0.634   7.147   1.740
28378SOL    HW187031   0.595   7.183   1.660
28378SOL    HW287032   0.642   7.053   1.723
28379SOL     OW87033  12.615  10.767   4.655
28379SOL    HW187034  12.553  10.705   4.692
28379SOL    HW287035  12.643  10.727   4.572
28380SOL     OW87036   5.393  14.493  11.785
28380SOL    HW187037   5.377  14.516  11.693
28380SOL    HW287038   5.352  14.407  11.795
28381SOL     OW87039   7.511  12.311  13.530
28381SOL    HW187040   7.534  12.219  13.516
28381SOL    HW287041   7.513  12.349  13.442
28382SOL     OW87042  14.013   2.559  10.709
28382SOL    HW187043  14.103   2.581  10.685
28382SOL    HW287044  13.972   2.532  10.627
28383SOL     OW87045  10.797  12.575   7.034
28383SOL    HW187046  10.822  12.510   6.968
28383SOL    HW287047  10.861  12.563   7.104
28384SOL     OW87048   0.808   5.802  10.817
28384SOL    HW187049   0.851   5.727  10.775
28384SOL    HW287050   0.877   5.843  10.869
28385SOL     OW87051   9.637   7.531   5.241
28385SOL    HW187052   9.638   7.586   5.320
28385SOL    HW287053   9.701   7.462   5.259
28386SOL     OW87054   5.779  10.121   1.989
28386SOL    HW187055   5.796  10.137   2.082
28386SOL    HW287056   5.710  10.183   1.966
28387SOL     OW87057  11.550  13.437  14.803
28387SOL    HW187058  11.489  13.398  14.865
28387SOL    HW287059  11.574  13.366  14.744
28388SOL     OW87060   6.858   5.862   4.350
28388SOL    HW187061   6.799   5.827   4.284
28388SOL    HW287062   6.825   5.950   4.368
28389SOL     OW87063  14.682   3.654   3.714
28389SOL    HW187064  14.773   3.660   3.743
28389SOL    HW287065  14.631   3.688   3.788
28390SOL     OW87066   7.831   4.779   6.432
28390SOL    HW187067   7.901   4.844   6.420
28390SOL    HW287068   7.849   4.740   6.517
28391SOL     OW87069   1.503   4.077   6.503
28391SOL    HW187070   1.564   4.074   6.576
28391SOL    HW287071   1.554   4.046   6.428
28392SOL     OW87072   2.782   8.788   4.446
28392SOL    HW187073   2.718   8.725   4.414
28392SOL    HW287074   2.739   8.829   4.522
28393SOL     OW87075   4.823   5.414  13.687
28393SOL    HW187076   4.829   5.353  13.613
28393SOL    HW287077   4.914   5.425  13.716
28394SOL     OW87078   7.828  11.984   5.143
28394SOL    HW187079   7.856  12.044   5.075
28394SOL    HW287080   7.903  11.925   5.157
28395SOL     OW87081  13.924  14.137   1.230
28395SOL    HW187082  13.952  14.144   1.321
28395SOL    HW287083  13.876  14.218   1.213
28396SOL     OW87084   1.452  10.614   1.395
28396SOL    HW187085   1.433  10.606   1.302
28396SOL    HW287086   1.367  10.621   1.438
28397SOL     OW87087  13.887  11.900   8.997
28397SOL    HW187088  13.948  11.946   8.939
28397SOL    HW287089  13.941  11.871   9.070
28398SOL     OW87090  13.704   9.344   3.774
28398SOL    HW187091  13.670   9.418   3.825
28398SOL    HW287092  13.654   9.345   3.692
28399SOL     OW87093   3.857  12.694  10.503
28399SOL    HW187094   3.887  12.661  10.588
28399SOL    HW287095   3.923  12.759  10.478
28400SOL     OW87096   8.840   2.029   9.862
28400SOL    HW187097   8.875   2.058   9.778
28400SOL    HW287098   8.804   2.108   9.902
28401SOL     OW87099   1.907  11.820  12.473
28401SOL    HW187100   1.893  11.914  12.466
28401SOL    HW287101   1.985  11.812  12.529
28402SOL     OW87102  11.715   9.384   1.416
28402SOL    HW187103  11.650   9.331   1.370
28402SOL    HW287104  11.782   9.401   1.349
28403SOL     OW87105   8.153   4.490  13.243
28403SOL    HW187106   8.192   4.478  13.330
28403SOL    HW287107   8.220   4.536  13.192
28404SOL     OW87108   1.675  13.763   7.551
28404SOL    HW187109   1.754  13.730   7.594
28404SOL    HW287110   1.635  13.686   7.511
28405SOL     OW87111  12.692   6.150   8.216
28405SOL    HW187112  12.763   6.090   8.242
28405SOL    HW287113  12.612   6.098   8.228
28406SOL     OW87114   3.853  10.315   7.402
28406SOL    HW187115   3.933  10.265   7.419
28406SOL    HW287116   3.881  10.386   7.344
28407SOL     OW87117   3.194  11.550   8.388
28407SOL    HW187118   3.288  11.571   8.390
28407SOL    HW287119   3.192  11.454   8.391
28408SOL     OW87120  13.226   6.767   3.586
28408SOL    HW187121  13.288   6.699   3.559
28408SOL    HW287122  13.204   6.813   3.505
28409SOL     OW87123  13.346   8.486  13.930
28409SOL    HW187124  13.411   8.445  13.988
28409SOL    HW287125  13.300   8.548  13.986
28410SOL     OW87126  10.872  13.773   5.325
28410SOL    HW187127  10.855  13.737   5.238
28410SOL    HW287128  10.856  13.700   5.385
28411SOL     OW87129   6.054   2.540   5.761
28411SOL    HW187130   6.024   2.593   5.836
28411SOL    HW287131   6.025   2.451   5.782
28412SOL     OW87132  14.475   7.584   1.002
28412SOL    HW187133  14.528   7.651   1.045
28412SOL    HW287134  14.395   7.630   0.975
28413SOL     OW87135   9.179  10.060  14.712
28413SOL    HW187136   9.136  10.113  14.645
28413SOL    HW287137   9.226  10.123  14.767
28414SOL     OW87138   9.785   2.849  14.753
28414SOL    HW187139   9.836   2.927  14.775
28414SOL    HW287140   9.729   2.877  14.681
28415SOL     OW87141   9.345   7.231  12.162
28415SOL    HW187142   9.426   7.189  12.133
28415SOL    HW287143   9.276   7.169  12.138
28416SOL     OW87144   6.169   0.821  11.096
28416SOL    HW187145   6.212   0.899  11.061
28416SOL    HW287146   6.240   0.759  11.111
28417SOL     OW87147  14.745   3.944   5.443
28417SOL    HW187148  14.713   4.033   5.454
28417SOL    HW287149  14.706   3.896   5.516
28418SOL     OW87150  13.322   7.636  12.519
28418SOL    HW187151  13.295   7.724  12.545
28418SOL    HW287152  13.302   7.632  12.425
28419SOL     OW87153   2.138   5.467   5.925
28419SOL    HW187154   2.118   5.374   5.916
28419SOL    HW287155   2.072   5.500   5.986
28420SOL     OW87156   2.019   9.109   7.107
28420SOL    HW187157   2.017   9.062   7.024
28420SOL    HW287158   1.933   9.094   7.145
28421SOL     OW87159   6.875  11.740   8.847
28421SOL    HW187160   6.805  11.708   8.904
28421SOL    HW287161   6.905  11.822   8.888
28422SOL     OW87162   5.008   8.196   6.261
28422SOL    HW187163   4.915   8.186   6.282
28422SOL    HW287164   5.036   8.110   6.231
28423SOL     OW87165   6.257   4.479   5.955
28423SOL    HW187166   6.323   4.508   5.892
28423SOL    HW287167   6.249   4.551   6.017
28424SOL     OW87168   8.615   8.584  10.239
28424SOL    HW187169   8.596   8.529  10.315
28424SOL    HW287170   8.705   8.560  10.215
28425SOL     OW87171  14.781  12.302   4.344
28425SOL    HW187172  14.713  12.308   4.411
28425SOL    HW287173  14.750  12.232   4.285
28426SOL     OW87174   0.169   1.062  11.323
28426SOL    HW187175   0.158   1.132  11.387
28426SOL    HW287176   0.178   0.983  11.375
28427SOL     OW87177   3.118   3.701   7.091
28427SOL    HW187178   3.039   3.700   7.146
28427SOL    HW287179   3.186   3.661   7.146
28428SOL     OW87180   7.042   0.184  14.159
28428SOL    HW187181   6.999   0.158  14.241
28428SOL    HW287182   7.045   0.279  14.163
28429SOL     OW87183  12.261  12.280  14.553
28429SOL    HW187184  12.351  12.305  14.532
28429SOL    HW287185  12.233  12.227  14.478
28430SOL     OW87186   0.652  10.090   6.598
28430SOL    HW187187   0.579  10.049   6.551
28430SOL    HW287188   0.625  10.182   6.608
28431SOL     OW87189  14.431   5.567  12.608
28431SOL    HW187190  14.353   5.512  12.609
28431SOL    HW287191  14.503   5.506  12.623
28432SOL     OW87192   3.111   9.070   8.494
28432SOL    HW187193   3.067   9.082   8.410
28432SOL    HW287194   3.074   9.138   8.550
28433SOL     OW87195  12.329   1.110   3.120
28433SOL    HW187196  12.329   1.045   3.190
28433SOL    HW287197  12.344   1.194   3.165
28434SOL     OW87198   3.235  12.233   7.972
28434SOL    HW187199   3.189  12.256   7.890
28434SOL    HW287200   3.217  12.140   7.983
28435SOL     OW87201   8.801   3.187   5.804
28435SOL    HW187202   8.829   3.278   5.800
28435SOL    HW287203   8.864   3.145   5.863
28436SOL     OW87204   6.886  14.363   0.043
28436SOL    HW187205   6.934  14.339  14.837
28436SOL    HW287206   6.933  14.437   0.079
28437SOL     OW87207   9.056   7.204   8.122
28437SOL    HW187208   8.972   7.159   8.128
28437SOL    HW287209   9.093   7.199   8.210
28438SOL     OW87210   7.375   9.293   9.865
28438SOL    HW187211   7.470   9.301   9.871
28438SOL    HW287212   7.361   9.208   9.823
28439SOL     OW87213   0.819   9.777   8.036
28439SOL    HW187214   0.860   9.710   7.983
28439SOL    HW287215   0.785   9.841   7.973
28440SOL     OW87216   9.247  10.986   8.593
28440SOL    HW187217   9.195  10.931   8.534
28440SOL    HW287218   9.311  10.926   8.631
28441SOL     OW87219  12.443  12.593  12.321
28441SOL    HW187220  12.523  12.608  12.371
28441SOL    HW287221  12.375  12.639  12.371
28442SOL     OW87222   2.481  12.860   3.690
28442SOL    HW187223   2.575  12.850   3.703
28442SOL    HW287224   2.442  12.784   3.735
28443SOL     OW87225   1.376   6.705  10.844
28443SOL    HW187226   1.435   6.781  10.845
28443SOL    HW287227   1.310   6.727  10.778
28444SOL     OW87228   8.917   4.022   5.424
28444SOL    HW187229   8.988   4.000   5.484
28444SOL    HW287230   8.920   3.954   5.357
28445SOL     OW87231  11.814   9.752  10.713
28445SOL    HW187232  11.724   9.759  10.744
28445SOL    HW287233  11.867   9.749  10.793
28446SOL     OW87234  14.554   5.557   1.184
28446SOL    HW187235  14.563   5.487   1.249
28446SOL    HW287236  14.461   5.554   1.159
28447SOL     OW87237  10.442   0.226  14.337
28447SOL    HW187238  10.395   0.238  14.255
28447SOL    HW287239  10.509   0.161  14.316
28448SOL     OW87240  12.269   4.476   1.878
28448SOL    HW187241  12.357   4.450   1.904
28448SOL    HW287242  12.211   4.420   1.928
28449SOL     OW87243   1.297   3.355   2.877
28449SOL    HW187244   1.390   3.374   2.868
28449SOL    HW287245   1.288   3.264   2.849
28450SOL     OW87246   8.304   2.034  10.061
28450SOL    HW187247   8.334   2.119  10.027
28450SOL    HW287248   8.382   1.996  10.102
28451SOL     OW87249  11.260  10.482   9.790
28451SOL    HW187250  11.292  10.475   9.880
28451SOL    HW287251  11.165  10.472   9.797
28452SOL     OW87252   5.775   5.575   6.491
28452SOL    HW187253   5.795   5.622   6.410
28452SOL    HW287254   5.786   5.483   6.468
28453SOL     OW87255  11.401   3.117   1.384
28453SOL    HW187256  11.329   3.063   1.350
28453SOL    HW287257  11.470   3.106   1.319
28454SOL     OW87258  14.299  13.989   0.863
28454SOL    HW187259  14.268  13.940   0.787
28454SOL    HW287260  14.219  14.017   0.907
28455SOL     OW87261  14.653   9.394  12.015
28455SOL    HW187262  14.683   9.452  12.084
28455SOL    HW287263  14.559   9.410  12.009
28456SOL     OW87264   8.695   2.799   2.432
28456SOL    HW187265   8.644   2.718   2.427
28456SOL    HW287266   8.647   2.861   2.378
28457SOL     OW87267  14.477   5.856   4.151
28457SOL    HW187268  14.494   5.779   4.096
28457SOL    HW287269  14.414   5.825   4.216
28458SOL     OW87270   4.966  14.439  10.077
28458SOL    HW187271   4.973  14.457   9.983
28458SOL    HW287272   4.894  14.495  10.106
28459SOL     OW87273  14.285   5.863   8.621
28459SOL    HW187274  14.198   5.846   8.585
28459SOL    HW287275  14.345   5.845   8.549
28460SOL     OW87276   0.957  11.712   2.523
28460SOL    HW187277   1.032  11.739   2.471
28460SOL    HW287278   0.994  11.679   2.605
28461SOL     OW87279  12.791  11.668   1.235
28461SOL    HW187280  12.812  11.713   1.153
28461SOL    HW287281  12.867  11.685   1.291
28462SOL     OW87282  14.138  11.583   9.801
28462SOL    HW187283  14.193  11.527   9.747
28462SOL    HW287284  14.152  11.550   9.890
28463SOL     OW87285   9.528  10.132  12.731
28463SOL    HW187286   9.588  10.085  12.789
28463SOL    HW287287   9.576  10.144  12.650
28464SOL     OW87288  13.902   6.196   9.958
28464SOL    HW187289  13.856   6.227  10.036
28464SOL    HW287290  13.933   6.276   9.914
28465SOL     OW87291   2.491   2.482   2.656
28465SOL    HW187292   2.518   2.471   2.747
28465SOL    HW287293   2.396   2.471   2.658
28466SOL     OW87294  13.797   7.314  10.478
28466SOL    HW187295  13.710   7.279  10.461
28466SOL    HW287296  13.802   7.321  10.574
28467SOL     OW87297  11.617  12.461   0.127
28467SOL    HW187298  11.596  12.368   0.123
28467SOL    HW287299  11.656  12.480   0.042
28468SOL     OW87300  11.727   1.998  13.167
28468SOL    HW187301  11.761   1.914  13.196
28468SOL    HW287302  11.714   2.048  13.247
28469SOL     OW87303  14.196   7.658   9.819
28469SOL    HW187304  14.114   7.644   9.867
28469SOL    HW287305  14.233   7.738   9.856
28470SOL     OW87306   1.972   6.913  10.882
28470SOL    HW187307   2.050   6.965  10.862
28470SOL    HW287308   1.979   6.895  10.975
28471SOL     OW87309   3.164  10.822   1.498
28471SOL    HW187310   3.088  10.764   1.489
28471SOL    HW287311   3.210  10.789   1.575
28472SOL     OW87312   9.233   7.307  12.402
28472SOL    HW187313   9.264   7.323  12.313
28472SOL    HW287314   9.145   7.345  12.404
28473SOL     OW87315  14.227   9.829   1.286
28473SOL    HW187316  14.175   9.755   1.254
28473SOL    HW287317  14.212   9.830   1.380
28474SOL     OW87318   5.730   8.447   5.195
28474SOL    HW187319   5.641   8.477   5.178
28474SOL    HW287320   5.740   8.455   5.290
28475SOL     OW87321  14.399  10.373   1.178
28475SOL    HW187322  14.369  10.463   1.171
28475SOL    HW287323  14.472  10.377   1.240
28476SOL     OW87324   1.739  12.650   7.224
28476SOL    HW187325   1.783  12.677   7.143
28476SOL    HW287326   1.801  12.591   7.267
28477SOL     OW87327  13.712   7.513   7.135
28477SOL    HW187328  13.617   7.507   7.148
28477SOL    HW287329  13.748   7.453   7.200
28478SOL     OW87330   4.591   6.100   1.783
28478SOL    HW187331   4.613   6.180   1.735
28478SOL    HW287332   4.497   6.108   1.801
28479SOL     OW87333  10.128   3.996   4.770
28479SOL    HW187334  10.206   4.026   4.816
28479SOL    HW287335  10.088   4.076   4.735
28480SOL     OW87336  13.663   3.942   0.747
28480SOL    HW187337  13.692   3.974   0.662
28480SOL    HW287338  13.715   3.863   0.763
28481SOL     OW87339   2.015   8.350  11.965
28481SOL    HW187340   2.003   8.417  12.033
28481SOL    HW287341   1.964   8.382  11.891
28482SOL     OW87342   5.386   9.439   1.509
28482SOL    HW187343   5.381   9.466   1.601
28482SOL    HW287344   5.465   9.480   1.476
28483SOL     OW87345   7.029  12.144   6.436
28483SOL    HW187346   6.989  12.114   6.354
28483SOL    HW287347   7.053  12.063   6.482
28484SOL     OW87348  11.984   6.370   9.086
28484SOL    HW187349  12.068   6.407   9.059
28484SOL    HW287350  12.002   6.331   9.172
28485SOL     OW87351  13.383  13.951  13.508
28485SOL    HW187352  13.339  14.026  13.548
28485SOL    HW287353  13.439  13.989  13.440
28486SOL     OW87354   7.271   2.900  13.827
28486SOL    HW187355   7.318   2.930  13.904
28486SOL    HW287356   7.189   2.863  13.861
28487SOL     OW87357   7.566  10.269   2.364
28487SOL    HW187358   7.575  10.289   2.457
28487SOL    HW287359   7.626  10.195   2.349
28488SOL     OW87360  14.773   3.190   7.000
28488SOL    HW187361  14.719   3.211   6.924
28488SOL    HW287362  14.807   3.102   6.983
28489SOL     OW87363   5.386   3.656   6.182
28489SOL    HW187364   5.337   3.596   6.124
28489SOL    HW287365   5.323   3.724   6.204
28490SOL     OW87366   7.088   4.868  13.697
28490SOL    HW187367   7.086   4.826  13.783
28490SOL    HW287368   7.006   4.918  13.693
28491SOL     OW87369   4.653   5.794   7.850
28491SOL    HW187370   4.604   5.715   7.873
28491SOL    HW287371   4.638   5.854   7.923
28492SOL     OW87372   9.169  13.917   4.714
28492SOL    HW187373   9.229  13.991   4.726
28492SOL    HW287374   9.087  13.946   4.753
28493SOL     OW87375   8.943   7.394   2.712
28493SOL    HW187376   8.988   7.349   2.640
28493SOL    HW287377   8.858   7.351   2.717
28494SOL     OW87378   7.538   1.359   7.804
28494SOL    HW187379   7.554   1.358   7.899
28494SOL    HW287380   7.517   1.451   7.785
28495SOL     OW87381  13.151   9.789  11.188
28495SOL    HW187382  13.148   9.740  11.106
28495SOL    HW287383  13.176   9.878  11.163
28496SOL     OW87384   3.665   3.333  10.153
28496SOL    HW187385   3.749   3.293  10.173
28496SOL    HW287386   3.670   3.420  10.193
28497SOL     OW87387   7.148   6.641   9.548
28497SOL    HW187388   7.078   6.682   9.497
28497SOL    HW287389   7.137   6.676   9.637
28498SOL     OW87390  11.109   8.513   0.134
28498SOL    HW187391  11.162   8.591   0.149
28498SOL    HW287392  11.046   8.513   0.206
28499SOL     OW87393   0.237   7.463  11.227
28499SOL    HW187394   0.198   7.541  11.188
28499SOL    HW287395   0.237   7.482  11.321
28500SOL     OW87396   7.165   0.134  12.457
28500SOL    HW187397   7.259   0.129  12.440
28500SOL    HW287398   7.152   0.087  12.539
28501SOL     OW87399   6.557   7.779   1.441
28501SOL    HW187400   6.493   7.712   1.416
28501SOL    HW287401   6.593   7.748   1.524
28502SOL     OW87402  13.910   2.656   8.696
28502SOL    HW187403  13.905   2.693   8.784
28502SOL    HW287404  13.876   2.567   8.705
28503SOL     OW87405   8.978   2.405   8.305
28503SOL    HW187406   8.882   2.401   8.313
28503SOL    HW287407   8.992   2.439   8.217
28504SOL     OW87408   5.604  12.957   3.926
28504SOL    HW187409   5.685  12.997   3.958
28504SOL    HW287410   5.553  13.031   3.893
28505SOL     OW87411   8.277  11.107   2.502
28505SOL    HW187412   8.355  11.081   2.551
28505SOL    HW287413   8.254  11.029   2.451
28506SOL     OW87414   6.011  10.255   0.979
28506SOL    HW187415   6.061  10.310   1.040
28506SOL    HW287416   6.038  10.285   0.892
28507SOL     OW87417  14.563  10.283   8.592
28507SOL    HW187418  14.614  10.277   8.511
28507SOL    HW287419  14.541  10.192   8.613
28508SOL     OW87420   6.232  11.325   8.787
28508SOL    HW187421   6.245  11.330   8.692
28508SOL    HW287422   6.144  11.360   8.802
28509SOL     OW87423  12.813   5.047   4.082
28509SOL    HW187424  12.768   5.008   4.007
28509SOL    HW287425  12.757   5.120   4.108
28510SOL     OW87426  14.543   8.170  12.373
28510SOL    HW187427  14.518   8.251  12.417
28510SOL    HW287428  14.466   8.144  12.323
28511SOL     OW87429   3.095  12.459  12.696
28511SOL    HW187430   3.078  12.384  12.753
28511SOL    HW287431   3.179  12.439  12.655
28512SOL     OW87432   2.358   8.817   2.065
28512SOL    HW187433   2.444   8.841   2.098
28512SOL    HW287434   2.297   8.872   2.113
28513SOL     OW87435   3.795   8.339   9.894
28513SOL    HW187436   3.700   8.346   9.883
28513SOL    HW287437   3.819   8.257   9.851
28514SOL     OW87438   0.862  10.393   7.821
28514SOL    HW187439   0.887  10.478   7.784
28514SOL    HW287440   0.861  10.406   7.915
28515SOL     OW87441   9.815   0.237   7.987
28515SOL    HW187442   9.892   0.285   8.016
28515SOL    HW287443   9.755   0.305   7.954
28516SOL     OW87444  10.984  11.859   9.741
28516SOL    HW187445  11.044  11.784   9.745
28516SOL    HW287446  11.004  11.909   9.820
28517SOL     OW87447  10.745   4.038   7.136
28517SOL    HW187448  10.743   4.092   7.058
28517SOL    HW287449  10.694   4.087   7.201
28518SOL     OW87450   8.457  12.566  14.530
28518SOL    HW187451   8.509  12.496  14.568
28518SOL    HW287452   8.496  12.581  14.444
28519SOL     OW87453   3.957  12.150  13.709
28519SOL    HW187454   3.946  12.142  13.614
28519SOL    HW287455   3.930  12.240  13.728
28520SOL     OW87456  11.387   1.913  10.834
28520SOL    HW187457  11.438   1.852  10.781
28520SOL    HW287458  11.381   1.992  10.780
28521SOL     OW87459  13.003  10.587   9.969
28521SOL    HW187460  12.954  10.536  10.033
28521SOL    HW287461  13.091  10.593  10.005
28522SOL     OW87462   3.464   5.624  12.463
28522SOL    HW187463   3.551   5.586  12.474
28522SOL    HW287464   3.470   5.710  12.503
28523SOL     OW87465   4.774   6.773   0.825
28523SOL    HW187466   4.824   6.747   0.902
28523SOL    HW287467   4.682   6.766   0.851
28524SOL     OW87468  14.728   2.136   8.105
28524SOL    HW187469  14.670   2.150   8.179
28524SOL    HW287470  14.776   2.056   8.126
28525SOL     OW87471  11.344  10.030   3.692
28525SOL    HW187472  11.333  10.097   3.759
28525SOL    HW287473  11.272   9.969   3.708
28526SOL     OW87474  12.117   2.262   7.048
28526SOL    HW187475  12.066   2.293   7.123
28526SOL    HW287476  12.076   2.180   7.022
28527SOL     OW87477   2.527   3.148  13.980
28527SOL    HW187478   2.490   3.099  13.906
28527SOL    HW287479   2.513   3.090  14.055
28528SOL     OW87480   6.721  11.684  14.635
28528SOL    HW187481   6.686  11.596  14.624
28528SOL    HW287482   6.771  11.701  14.556
28529SOL     OW87483   1.832   0.401   4.161
28529SOL    HW187484   1.834   0.312   4.198
28529SOL    HW287485   1.776   0.392   4.083
28530SOL     OW87486   3.562  12.407   4.840
28530SOL    HW187487   3.487  12.348   4.836
28530SOL    HW287488   3.618  12.370   4.908
28531SOL     OW87489  10.986   0.251   3.760
28531SOL    HW187490  10.925   0.265   3.832
28531SOL    HW287491  11.019   0.339   3.739
28532SOL     OW87492   2.726  13.149  12.426
28532SOL    HW187493   2.749  13.084  12.360
28532SOL    HW287494   2.633  13.136  12.442
28533SOL     OW87495   1.415   6.243   2.870
28533SOL    HW187496   1.487   6.266   2.811
28533SOL    HW287497   1.451   6.174   2.926
28534SOL     OW87498  13.361   7.321  11.543
28534SOL    HW187499  13.393   7.269  11.470
28534SOL    HW287500  13.418   7.398  11.544
28535SOL     OW87501   3.501   5.871  12.541
28535SOL    HW187502   3.501   5.966  12.531
28535SOL    HW287503   3.577   5.853  12.597
28536SOL     OW87504  12.463   6.268   5.233
28536SOL    HW187505  12.376   6.308   5.228
28536SOL    HW287506  12.516   6.333   5.280
28537SOL     OW87507  10.320   3.543   0.021
28537SOL    HW187508  10.240   3.549   0.072
28537SOL    HW287509  10.375   3.615   0.054
28538SOL     OW87510   9.702   9.235   3.749
28538SOL    HW187511   9.620   9.195   3.777
28538SOL    HW287512   9.714   9.206   3.659
28539SOL     OW87513   3.088  10.190   8.292
28539SOL    HW187514   2.994  10.209   8.293
28539SOL    HW287515   3.119  10.226   8.209
28540SOL     OW87516  10.718   7.626  11.973
28540SOL    HW187517  10.725   7.720  11.958
28540SOL    HW287518  10.688   7.619  12.064
28541SOL     OW87519   2.126  10.703   8.754
28541SOL    HW187520   2.046  10.707   8.701
28541SOL    HW287521   2.120  10.779   8.812
28542SOL     OW87522   9.637   4.655  11.368
28542SOL    HW187523   9.630   4.736  11.317
28542SOL    HW287524   9.718   4.615  11.337
28543SOL     OW87525   7.939   2.985   5.690
28543SOL    HW187526   7.950   2.899   5.651
28543SOL    HW287527   8.029   3.015   5.707
28544SOL     OW87528   7.302  12.335  14.200
28544SOL    HW187529   7.385  12.332  14.248
28544SOL    HW287530   7.312  12.409  14.140
28545SOL     OW87531   1.877  14.581  11.653
28545SOL    HW187532   1.928  14.632  11.716
28545SOL    HW287533   1.874  14.636  11.575
28546SOL     OW87534  13.178   1.335   3.038
28546SOL    HW187535  13.092   1.319   2.999
28546SOL    HW287536  13.163   1.327   3.133
28547SOL     OW87537  10.038   3.664   3.734
28547SOL    HW187538   9.993   3.665   3.650
28547SOL    HW287539   9.973   3.697   3.796
28548SOL     OW87540   8.401   9.278   5.507
28548SOL    HW187541   8.482   9.312   5.545
28548SOL    HW287542   8.421   9.187   5.484
28549SOL     OW87543  10.446   2.037   3.360
28549SOL    HW187544  10.474   2.008   3.274
28549SOL    HW287545  10.421   1.956   3.405
28550SOL     OW87546  12.132  12.020  12.977
28550SOL    HW187547  12.050  12.068  12.992
28550SOL    HW287548  12.113  11.931  13.008
28551SOL     OW87549   6.461   6.909  11.959
28551SOL    HW187550   6.547   6.949  11.943
28551SOL    HW287551   6.438   6.868  11.876
28552SOL     OW87552  11.065   5.273  14.345
28552SOL    HW187553  11.002   5.325  14.396
28552SOL    HW287554  11.056   5.185  14.380
28553SOL     OW87555   0.323   1.321   0.072
28553SOL    HW187556   0.287   1.247   0.024
28553SOL    HW287557   0.255   1.345   0.134
28554SOL     OW87558  14.608  12.085  10.415
28554SOL    HW187559  14.620  11.993  10.393
28554SOL    HW287560  14.564  12.084  10.500
28555SOL     OW87561   7.740  12.684   2.621
28555SOL    HW187562   7.761  12.689   2.715
28555SOL    HW287563   7.748  12.591   2.600
28556SOL     OW87564  13.867   4.153   1.690
28556SOL    HW187565  13.875   4.131   1.597
28556SOL    HW287566  13.907   4.240   1.698
28557SOL     OW87567   9.116   8.227  14.603
28557SOL    HW187568   9.115   8.231  14.699
28557SOL    HW287569   9.173   8.299  14.577
28558SOL     OW87570   9.965  13.443   5.381
28558SOL    HW187571   9.877  13.417   5.353
28558SOL    HW287572   9.963  13.438   5.476
28559SOL     OW87573   5.026  11.194   6.335
28559SOL    HW187574   5.069  11.206   6.250
28559SOL    HW287575   5.098  11.181   6.397
28560SOL     OW87576   2.069  10.161  10.541
28560SOL    HW187577   2.088  10.254  10.524
28560SOL    HW287578   2.059  10.156  10.636
28561SOL     OW87579   9.309   9.096   4.516
28561SOL    HW187580   9.320   9.119   4.424
28561SOL    HW287581   9.292   9.002   4.515
28562SOL     OW87582  10.532   8.471   1.068
28562SOL    HW187583  10.544   8.452   1.161
28562SOL    HW287584  10.487   8.394   1.033
28563SOL     OW87585   2.818   4.484  14.607
28563SOL    HW187586   2.863   4.471  14.690
28563SOL    HW287587   2.887   4.489  14.542
28564SOL     OW87588   6.507   9.937  14.522
28564SOL    HW187589   6.521   9.890  14.604
28564SOL    HW287590   6.446   9.882  14.473
28565SOL     OW87591   3.793   8.569   5.606
28565SOL    HW187592   3.752   8.483   5.608
28565SOL    HW287593   3.804   8.593   5.698
28566SOL     OW87594   0.052  12.713   0.389
28566SOL    HW187595   0.061  12.653   0.463
28566SOL    HW287596  14.866  12.668   0.328
28567SOL     OW87597   9.309  13.140  11.233
28567SOL    HW187598   9.389  13.133  11.284
28567SOL    HW287599   9.280  13.050  11.220
28568SOL     OW87600   4.816   9.091  12.182
28568SOL    HW187601   4.836   9.008  12.224
28568SOL    HW287602   4.892   9.108  12.125
28569SOL     OW87603   0.193  10.093   9.883
28569SOL    HW187604   0.184  10.107   9.977
28569SOL    HW287605   0.173  10.000   9.870
28570SOL     OW87606  10.937  12.542   4.532
28570SOL    HW187607  10.877  12.580   4.469
28570SOL    HW287608  10.883  12.523   4.609
28571SOL     OW87609   2.504   8.020   9.722
28571SOL    HW187610   2.457   8.091   9.764
28571SOL    HW287611   2.570   7.994   9.787
28572SOL     OW87612  12.331   3.233   9.191
28572SOL    HW187613  12.307   3.183   9.114
28572SOL    HW287614  12.351   3.167   9.258
28573SOL     OW87615   6.459   8.566  11.688
28573SOL    HW187616   6.381   8.621  11.684
28573SOL    HW287617   6.526   8.614  11.640
28574SOL     OW87618   9.632   4.243   2.420
28574SOL    HW187619   9.651   4.150   2.405
28574SOL    HW287620   9.712   4.278   2.459
28575SOL     OW87621   7.644  12.921  10.662
28575SOL    HW187622   7.571  12.982  10.654
28575SOL    HW287623   7.641  12.892  10.754
28576SOL     OW87624   5.690  11.572   1.156
28576SOL    HW187625   5.639  11.575   1.075
28576SOL    HW287626   5.751  11.646   1.149
28577SOL     OW87627   0.929   0.980   5.297
28577SOL    HW187628   0.925   1.067   5.258
28577SOL    HW287629   0.968   0.994   5.383
28578SOL     OW87630   1.230   1.228   5.129
28578SOL    HW187631   1.220   1.224   5.034
28578SOL    HW287632   1.143   1.211   5.164
28579SOL     OW87633   2.423   9.508   5.564
28579SOL    HW187634   2.449   9.526   5.655
28579SOL    HW287635   2.442   9.588   5.517
28580SOL     OW87636  10.312   4.308   1.390
28580SOL    HW187637  10.391   4.356   1.364
28580SOL    HW287638  10.274   4.361   1.461
28581SOL     OW87639   0.216   3.078   6.675
28581SOL    HW187640   0.294   3.124   6.707
28581SOL    HW287641   0.251   3.011   6.616
28582SOL     OW87642   5.460   8.108   5.837
28582SOL    HW187643   5.425   8.114   5.926
28582SOL    HW287644   5.489   8.017   5.829
28583SOL     OW87645   9.722  12.380   5.779
28583SOL    HW187646   9.744  12.426   5.698
28583SOL    HW287647   9.626  12.372   5.777
28584SOL     OW87648   6.825  12.836   3.798
28584SOL    HW187649   6.910  12.872   3.775
28584SOL    HW287650   6.828  12.823   3.893
28585SOL     OW87651   1.955   1.893   1.952
28585SOL    HW187652   1.983   1.861   1.867
28585SOL    HW287653   1.911   1.819   1.993
28586SOL     OW87654  11.787   3.877   0.678
28586SOL    HW187655  11.865   3.842   0.721
28586SOL    HW287656  11.820   3.916   0.597
28587SOL     OW87657  14.214   2.770   1.806
28587SOL    HW187658  14.276   2.778   1.734
28587SOL    HW287659  14.232   2.846   1.862
28588SOL     OW87660   9.449   8.005  11.454
28588SOL    HW187661   9.515   7.956  11.406
28588SOL    HW287662   9.373   7.947  11.457
28589SOL     OW87663   8.383   0.214  12.404
28589SOL    HW187664   8.300   0.167  12.396
28589SOL    HW287665   8.358   0.306  12.408
28590SOL     OW87666   2.345   6.961   3.567
28590SOL    HW187667   2.295   6.926   3.641
28590SOL    HW287668   2.313   6.912   3.491
28591SOL     OW87669   6.019   6.079   6.102
28591SOL    HW187670   6.027   5.984   6.097
28591SOL    HW287671   6.096   6.112   6.054
28592SOL     OW87672  10.267  11.934   6.580
28592SOL    HW187673  10.263  11.889   6.664
28592SOL    HW287674  10.357  11.968   6.575
28593SOL     OW87675   1.614   8.787  14.405
28593SOL    HW187676   1.541   8.751  14.454
28593SOL    HW287677   1.637   8.719  14.341
28594SOL     OW87678   5.095   3.231   5.056
28594SOL    HW187679   5.181   3.238   5.098
28594SOL    HW287680   5.046   3.171   5.112
28595SOL     OW87681  10.180  11.376  12.129
28595SOL    HW187682  10.180  11.421  12.045
28595SOL    HW287683  10.269  11.388  12.163
28596SOL     OW87684  10.542   3.502  13.609
28596SOL    HW187685  10.512   3.498  13.699
28596SOL    HW287686  10.624   3.553  13.613
28597SOL     OW87687   0.915   9.181   1.527
28597SOL    HW187688   0.937   9.090   1.509
28597SOL    HW287689   0.877   9.213   1.445
28598SOL     OW87690   0.275  13.361  12.830
28598SOL    HW187691   0.201  13.312  12.868
28598SOL    HW287692   0.352  13.319  12.867
28599SOL     OW87693   8.325   1.168   5.412
28599SOL    HW187694   8.337   1.199   5.322
28599SOL    HW287695   8.410   1.179   5.453
28600SOL     OW87696   8.584   7.856  14.122
28600SOL    HW187697   8.589   7.835  14.029
28600SOL    HW287698   8.570   7.771  14.164
28601SOL     OW87699   0.688  14.799  12.489
28601SOL    HW187700   0.666  14.858  12.417
28601SOL    HW287701   0.657  14.845  12.568
28602SOL     OW87702   0.942   8.000   6.498
28602SOL    HW187703   0.894   7.928   6.457
28602SOL    HW287704   0.875   8.065   6.520
28603SOL     OW87705   0.256  13.323   6.278
28603SOL    HW187706   0.316  13.352   6.210
28603SOL    HW287707   0.301  13.252   6.322
28604SOL     OW87708   0.853   0.589   0.121
28604SOL    HW187709   0.864   0.684   0.108
28604SOL    HW287710   0.785   0.582   0.188
28605SOL     OW87711   4.735   6.914  12.653
28605SOL    HW187712   4.651   6.946  12.686
28605SOL    HW287713   4.794   6.918  12.728
28606SOL     OW87714   5.359  14.374   9.717
28606SOL    HW187715   5.403  14.301   9.761
28606SOL    HW287716   5.298  14.408   9.783
28607SOL     OW87717   4.050   2.593   1.685
28607SOL    HW187718   4.017   2.534   1.617
28607SOL    HW287719   3.992   2.669   1.681
28608SOL     OW87720  12.400   8.056  14.230
28608SOL    HW187721  12.459   7.981  14.223
28608SOL    HW287722  12.325   8.033  14.176
28609SOL     OW87723   7.601   2.396   8.958
28609SOL    HW187724   7.598   2.300   8.951
28609SOL    HW287725   7.517   2.425   8.924
28610SOL     OW87726   2.807   4.054   0.151
28610SOL    HW187727   2.801   3.972   0.201
28610SOL    HW287728   2.717   4.071   0.121
28611SOL     OW87729   3.213   9.803  14.859
28611SOL    HW187730   3.239   9.713  14.841
28611SOL    HW287731   3.122   9.808  14.832
28612SOL     OW87732   6.232  13.399   7.411
28612SOL    HW187733   6.287  13.354   7.476
28612SOL    HW287734   6.150  13.415   7.456
28613SOL     OW87735   0.993  14.211   8.511
28613SOL    HW187736   1.048  14.134   8.497
28613SOL    HW287737   0.903  14.179   8.500
28614SOL     OW87738   1.547   6.138  14.107
28614SOL    HW187739   1.500   6.065  14.146
28614SOL    HW287740   1.557   6.114  14.015
28615SOL     OW87741   3.521   3.327  13.393
28615SOL    HW187742   3.610   3.360  13.384
28615SOL    HW287743   3.481   3.343  13.307
28616SOL     OW87744   5.634   3.096   6.796
28616SOL    HW187745   5.709   3.077   6.853
28616SOL    HW287746   5.669   3.153   6.728
28617SOL     OW87747   6.124   1.663  10.322
28617SOL    HW187748   6.173   1.665  10.241
28617SOL    HW287749   6.118   1.569  10.344
28618SOL     OW87750   6.285   3.144   7.035
28618SOL    HW187751   6.298   3.232   7.070
28618SOL    HW287752   6.334   3.143   6.953
28619SOL     OW87753  10.027  12.132   8.553
28619SOL    HW187754   9.944  12.145   8.507
28619SOL    HW287755  10.003  12.133   8.646
28620SOL     OW87756  12.518   7.365  11.604
28620SOL    HW187757  12.593   7.335  11.552
28620SOL    HW287758  12.446   7.369  11.541
28621SOL     OW87759   8.318   1.032  13.764
28621SOL    HW187760   8.396   1.065  13.720
28621SOL    HW287761   8.320   0.937  13.747
28622SOL     OW87762  13.650  13.849   2.232
28622SOL    HW187763  13.589  13.883   2.298
28622SOL    HW287764  13.638  13.908   2.157
28623SOL     OW87765   0.699   3.720  14.451
28623SOL    HW187766   0.753   3.676  14.386
28623SOL    HW287767   0.725   3.680  14.534
28624SOL     OW87768  13.164  10.281  11.548
28624SOL    HW187769  13.173  10.246  11.459
28624SOL    HW287770  13.081  10.245  11.579
28625SOL     OW87771   0.316   5.172   0.563
28625SOL    HW187772   0.410   5.177   0.585
28625SOL    HW287773   0.308   5.220   0.481
28626SOL     OW87774   7.431  10.484   4.718
28626SOL    HW187775   7.421  10.392   4.745
28626SOL    HW287776   7.344  10.522   4.731
28627SOL     OW87777   5.163   3.181  10.271
28627SOL    HW187778   5.102   3.149  10.204
28627SOL    HW287779   5.116   3.251  10.315
28628SOL     OW87780   5.546   8.678   2.446
28628SOL    HW187781   5.498   8.602   2.479
28628SOL    HW287782   5.627   8.642   2.411
28629SOL     OW87783  10.263   7.468   8.478
28629SOL    HW187784  10.254   7.472   8.382
28629SOL    HW287785  10.330   7.402   8.493
28630SOL     OW87786   1.262   1.728   9.254
28630SOL    HW187787   1.270   1.803   9.196
28630SOL    HW287788   1.350   1.716   9.290
28631SOL     OW87789   3.183   1.449   3.704
28631SOL    HW187790   3.263   1.445   3.651
28631SOL    HW287791   3.160   1.357   3.719
28632SOL     OW87792   9.392   0.895   4.053
28632SOL    HW187793   9.426   0.891   3.964
28632SOL    HW287794   9.350   0.981   4.059
28633SOL     OW87795  10.433  13.852   2.511
28633SOL    HW187796  10.427  13.935   2.559
28633SOL    HW287797  10.394  13.787   2.569
28634SOL     OW87798   5.526  10.325   3.624
28634SOL    HW187799   5.553  10.239   3.655
28634SOL    HW287800   5.432  10.316   3.609
28635SOL     OW87801   0.930  13.975   5.891
28635SOL    HW187802   1.004  13.916   5.903
28635SOL    HW287803   0.872  13.958   5.965
28636SOL     OW87804   7.273   0.162   1.643
28636SOL    HW187805   7.228   0.182   1.562
28636SOL    HW287806   7.363   0.194   1.630
28637SOL     OW87807   4.399   3.499  13.046
28637SOL    HW187808   4.304   3.491  13.058
28637SOL    HW287809   4.425   3.415  13.009
28638SOL     OW87810  12.930   5.468   5.015
28638SOL    HW187811  12.973   5.421   5.087
28638SOL    HW287812  12.854   5.509   5.057
28639SOL     OW87813  13.829   8.965  14.117
28639SOL    HW187814  13.905   8.992  14.169
28639SOL    HW287815  13.760   8.952  14.182
28640SOL     OW87816   6.300   8.964   4.746
28640SOL    HW187817   6.286   9.024   4.673
28640SOL    HW287818   6.369   9.004   4.798
28641SOL     OW87819   5.569  10.645   3.565
28641SOL    HW187820   5.547  10.552   3.578
28641SOL    HW287821   5.664  10.646   3.553
28642SOL     OW87822  11.815   0.772  10.970
28642SOL    HW187823  11.792   0.861  10.946
28642SOL    HW287824  11.769   0.717  10.906
28643SOL     OW87825   7.200   1.706   5.924
28643SOL    HW187826   7.172   1.793   5.894
28643SOL    HW287827   7.280   1.723   5.974
28644SOL     OW87828   1.735  12.538   4.709
28644SOL    HW187829   1.709  12.619   4.666
28644SOL    HW287830   1.772  12.566   4.793
28645SOL     OW87831   9.161   5.302  10.248
28645SOL    HW187832   9.221   5.374  10.227
28645SOL    HW287833   9.166   5.294  10.343
28646SOL     OW87834   9.668  11.588   2.792
28646SOL    HW187835   9.695  11.497   2.774
28646SOL    HW287836   9.714  11.611   2.872
28647SOL     OW87837  14.855   9.423   2.337
28647SOL    HW187838  14.837   9.448   2.247
28647SOL    HW287839  14.769   9.414   2.378
28648SOL     OW87840  11.111  14.689  13.350
28648SOL    HW187841  11.038  14.682  13.412
28648SOL    HW287842  11.079  14.749  13.283
28649SOL     OW87843  14.555   5.945   3.242
28649SOL    HW187844  14.639   5.902   3.258
28649SOL    HW287845  14.504   5.882   3.191
28650SOL     OW87846   6.857   7.411  11.555
28650SOL    HW187847   6.833   7.376  11.641
28650SOL    HW287848   6.786   7.382  11.497
28651SOL     OW87849  12.637   5.429  11.698
28651SOL    HW187850  12.671   5.357  11.646
28651SOL    HW287851  12.706   5.448  11.762
28652SOL     OW87852   3.172  12.417  10.630
28652SOL    HW187853   3.218  12.472  10.694
28652SOL    HW287854   3.213  12.331  10.639
28653SOL     OW87855   5.904   3.192  11.048
28653SOL    HW187856   5.899   3.154  10.960
28653SOL    HW287857   5.928   3.284  11.032
28654SOL     OW87858  13.988   3.352   3.781
28654SOL    HW187859  14.029   3.404   3.711
28654SOL    HW287860  14.005   3.261   3.757
28655SOL     OW87861   2.878  10.110   9.060
28655SOL    HW187862   2.956  10.116   9.116
28655SOL    HW287863   2.876  10.193   9.013
28656SOL     OW87864   7.558   9.865   8.802
28656SOL    HW187865   7.464   9.884   8.793
28656SOL    HW287866   7.599   9.917   8.733
28657SOL     OW87867   9.378   9.077  12.315
28657SOL    HW187868   9.364   9.165  12.351
28657SOL    HW287869   9.455   9.044  12.362
28658SOL     OW87870   9.617   0.214  13.930
28658SOL    HW187871   9.633   0.127  13.966
28658SOL    HW287872   9.542   0.247  13.979
28659SOL     OW87873   9.218   5.140  11.777
28659SOL    HW187874   9.145   5.091  11.741
28659SOL    HW287875   9.255   5.083  11.845
28660SOL     OW87876  13.286   2.314  11.647
28660SOL    HW187877  13.248   2.313  11.735
28660SOL    HW287878  13.376   2.284  11.660
28661SOL     OW87879  10.825  11.108   1.256
28661SOL    HW187880  10.851  11.035   1.199
28661SOL    HW287881  10.841  11.186   1.203
28662SOL     OW87882   6.899   5.539  10.312
28662SOL    HW187883   6.992   5.541  10.336
28662SOL    HW287884   6.858   5.602  10.371
28663SOL     OW87885  11.657   2.959   3.496
28663SOL    HW187886  11.653   2.885   3.436
28663SOL    HW287887  11.565   2.978   3.517
28664SOL     OW87888  12.726   0.167   3.453
28664SOL    HW187889  12.777   0.149   3.374
28664SOL    HW287890  12.684   0.251   3.435
28665SOL     OW87891   8.487   4.323   1.653
28665SOL    HW187892   8.434   4.255   1.695
28665SOL    HW287893   8.483   4.397   1.713
28666SOL     OW87894  10.825   8.504   1.527
28666SOL    HW187895  10.917   8.527   1.513
28666SOL    HW287896  10.827   8.445   1.603
28667SOL     OW87897   0.915  11.401   2.054
28667SOL    HW187898   1.002  11.364   2.039
28667SOL    HW287899   0.909  11.475   1.993
28668SOL     OW87900  14.469   6.834  14.560
28668SOL    HW187901  14.411   6.798  14.628
28668SOL    HW287902  14.448   6.782  14.482
28669SOL     OW87903   5.704  12.593  10.490
28669SOL    HW187904   5.698  12.591  10.395
28669SOL    HW287905   5.732  12.682  10.511
28670SOL     OW87906  12.460   1.833   4.117
28670SOL    HW187907  12.467   1.790   4.202
28670SOL    HW287908  12.371   1.869   4.116
28671SOL     OW87909  14.809   0.494  10.854
28671SOL    HW187910   0.029   0.474  10.869
28671SOL    HW287911  14.790   0.455  10.768
28672SOL     OW87912  14.289   8.980   0.097
28672SOL    HW187913  14.194   8.982   0.102
28672SOL    HW287914  14.308   8.911   0.033
28673SOL     OW87915   9.604   1.607  14.625
28673SOL    HW187916   9.606   1.511  14.635
28673SOL    HW287917   9.522   1.633  14.666
28674SOL     OW87918   9.436   7.049   9.389
28674SOL    HW187919   9.391   7.131   9.369
28674SOL    HW287920   9.529   7.073   9.394
28675SOL     OW87921   7.163   8.479   9.451
28675SOL    HW187922   7.125   8.391   9.448
28675SOL    HW287923   7.168   8.505   9.359
28676SOL     OW87924   5.834   4.500   8.018
28676SOL    HW187925   5.751   4.453   8.017
28676SOL    HW287926   5.899   4.433   7.997
28677SOL     OW87927   7.304  14.055   6.886
28677SOL    HW187928   7.359  14.069   6.810
28677SOL    HW287929   7.223  14.018   6.851
28678SOL     OW87930   6.707  12.477   8.899
28678SOL    HW187931   6.779  12.458   8.959
28678SOL    HW287932   6.735  12.556   8.852
28679SOL     OW87933   4.043  12.903  14.318
28679SOL    HW187934   4.125  12.887  14.271
28679SOL    HW287935   3.988  12.951  14.256
28680SOL     OW87936  12.464   2.997   3.398
28680SOL    HW187937  12.457   2.931   3.466
28680SOL    HW287938  12.546   2.976   3.353
28681SOL     OW87939   2.265   0.057  12.114
28681SOL    HW187940   2.310   0.052  12.198
28681SOL    HW287941   2.172   0.056  12.136
28682SOL     OW87942   0.684   3.405  14.339
28682SOL    HW187943   0.746   3.439  14.405
28682SOL    HW287944   0.704   3.312  14.333
28683SOL     OW87945  13.127   2.432   3.205
28683SOL    HW187946  13.059   2.385   3.253
28683SOL    HW287947  13.090   2.446   3.118
28684SOL     OW87948   2.423   9.076   7.646
28684SOL    HW187949   2.376   9.143   7.696
28684SOL    HW287950   2.355   9.012   7.622
28685SOL     OW87951  14.511   6.111   3.602
28685SOL    HW187952  14.445   6.071   3.545
28685SOL    HW287953  14.540   6.040   3.659
28686SOL     OW87954   7.873  10.341   9.502
28686SOL    HW187955   7.865  10.246   9.503
28686SOL    HW287956   7.783  10.373   9.505
28687SOL     OW87957   2.628  10.851   6.092
28687SOL    HW187958   2.624  10.944   6.069
28687SOL    HW287959   2.543  10.832   6.130
28688SOL     OW87960   8.638   9.041   8.163
28688SOL    HW187961   8.549   9.006   8.158
28688SOL    HW287962   8.648   9.070   8.253
28689SOL     OW87963  14.571   3.633   1.557
28689SOL    HW187964  14.521   3.712   1.573
28689SOL    HW287965  14.580   3.629   1.461
28690SOL     OW87966  11.467   9.977   2.451
28690SOL    HW187967  11.554  10.014   2.442
28690SOL    HW287968  11.407  10.050   2.435
28691SOL     OW87969   2.976   3.077   4.303
28691SOL    HW187970   2.931   3.080   4.388
28691SOL    HW287971   3.017   3.164   4.295
28692SOL     OW87972   0.684  13.765  10.969
28692SOL    HW187973   0.668  13.684  11.018
28692SOL    HW287974   0.598  13.806  10.961
28693SOL     OW87975   7.892   5.363   7.506
28693SOL    HW187976   7.819   5.396   7.559
28693SOL    HW287977   7.953   5.436   7.502
28694SOL     OW87978   4.500  12.217  10.217
28694SOL    HW187979   4.455  12.272  10.281
28694SOL    HW287980   4.591  12.213  10.249
28695SOL     OW87981  10.154  14.506   6.878
28695SOL    HW187982  10.130  14.428   6.928
28695SOL    HW287983  10.223  14.476   6.818
28696SOL     OW87984   1.145  10.115  14.590
28696SOL    HW187985   1.168  10.079  14.676
28696SOL    HW287986   1.207  10.074  14.530
28697SOL     OW87987   4.551   1.976   9.152
28697SOL    HW187988   4.606   2.025   9.213
28697SOL    HW287989   4.471   2.029   9.145
28698SOL     OW87990  12.207   4.763   4.841
28698SOL    HW187991  12.235   4.845   4.882
28698SOL    HW287992  12.285   4.707   4.845
28699SOL     OW87993  13.783  12.617   8.263
28699SOL    HW187994  13.829  12.582   8.340
28699SOL    HW287995  13.776  12.711   8.280
28700SOL     OW87996  12.342  13.012   0.441
28700SOL    HW187997  12.331  13.071   0.366
28700SOL    HW287998  12.334  12.924   0.404
28701SOL     OW87999   2.029   6.770   4.139
28701SOL    HW188000   2.079   6.833   4.087
28701SOL    HW288001   2.087   6.748   4.212
28702SOL     OW88002   8.295   4.676   4.113
28702SOL    HW188003   8.384   4.704   4.131
28702SOL    HW288004   8.261   4.741   4.052
28703SOL     OW88005   6.107  12.324  12.260
28703SOL    HW188006   6.077  12.385  12.193
28703SOL    HW288007   6.027  12.293  12.302
28704SOL     OW88008   7.573   3.442  11.094
28704SOL    HW188009   7.612   3.450  11.007
28704SOL    HW288010   7.600   3.355  11.124
28705SOL     OW88011   5.359   8.193   0.829
28705SOL    HW188012   5.283   8.223   0.879
28705SOL    HW288013   5.322   8.155   0.749
28706SOL     OW88014  12.404  10.882  14.727
28706SOL    HW188015  12.336  10.911  14.788
28706SOL    HW288016  12.475  10.850  14.783
28707SOL     OW88017   8.436   2.452   2.627
28707SOL    HW188018   8.398   2.522   2.678
28707SOL    HW288019   8.412   2.372   2.674
28708SOL     OW88020  14.606  10.298   3.552
28708SOL    HW188021  14.590  10.271   3.642
28708SOL    HW288022  14.650  10.224   3.512
28709SOL     OW88023   4.465   7.234   3.012
28709SOL    HW188024   4.399   7.302   3.024
28709SOL    HW288025   4.521   7.266   2.942
28710SOL     OW88026   7.143   5.927  11.466
28710SOL    HW188027   7.171   5.951  11.554
28710SOL    HW288028   7.084   5.853  11.479
28711SOL     OW88029   4.475  12.260   3.692
28711SOL    HW188030   4.491  12.172   3.657
28711SOL    HW288031   4.555  12.309   3.671
28712SOL     OW88032   6.677  11.566  10.626
28712SOL    HW188033   6.588  11.540  10.602
28712SOL    HW288034   6.670  11.589  10.719
28713SOL     OW88035  14.866  11.939  10.464
28713SOL    HW188036  14.852  11.962  10.556
28713SOL    HW288037  14.778  11.919  10.431
28714SOL     OW88038  13.642   5.456   3.266
28714SOL    HW188039  13.720   5.427   3.220
28714SOL    HW288040  13.642   5.407   3.348
28715SOL     OW88041   3.270  10.892   2.893
28715SOL    HW188042   3.305  10.907   2.805
28715SOL    HW288043   3.179  10.921   2.888
28716SOL     OW88044   2.999   9.642   7.549
28716SOL    HW188045   2.916   9.689   7.540
28716SOL    HW288046   3.008   9.594   7.467
28717SOL     OW88047   0.899  14.120   3.122
28717SOL    HW188048   0.840  14.059   3.076
28717SOL    HW288049   0.841  14.185   3.161
28718SOL     OW88050  13.744  12.231  12.179
28718SOL    HW188051  13.721  12.304  12.121
28718SOL    HW288052  13.756  12.157  12.119
28719SOL     OW88053  13.589   1.367  14.138
28719SOL    HW188054  13.557   1.288  14.182
28719SOL    HW288055  13.541   1.369  14.055
28720SOL     OW88056   8.458   1.580   2.799
28720SOL    HW188057   8.464   1.536   2.884
28720SOL    HW288058   8.431   1.670   2.820
28721SOL     OW88059   0.227  12.727  10.742
28721SOL    HW188060   0.263  12.713  10.830
28721SOL    HW288061   0.210  12.639  10.709
28722SOL     OW88062   2.585   8.113  14.809
28722SOL    HW188063   2.550   8.045  14.866
28722SOL    HW288064   2.597   8.189  14.865
28723SOL     OW88065  14.655   2.379   9.289
28723SOL    HW188066  14.588   2.322   9.327
28723SOL    HW288067  14.718   2.392   9.360
28724SOL     OW88068   7.269   0.222   8.441
28724SOL    HW188069   7.187   0.179   8.415
28724SOL    HW288070   7.323   0.152   8.477
28725SOL     OW88071   6.418  11.538  13.255
28725SOL    HW188072   6.371  11.565  13.177
28725SOL    HW288073   6.460  11.455  13.231
28726SOL     OW88074   0.429   8.046  10.665
28726SOL    HW188075   0.381   7.964  10.667
28726SOL    HW288076   0.504   8.031  10.723
28727SOL     OW88077   4.726  14.336   1.001
28727SOL    HW188078   4.633  14.350   1.013
28727SOL    HW288079   4.732  14.265   0.936
28728SOL     OW88080  12.100   2.156   9.236
28728SOL    HW188081  12.111   2.095   9.163
28728SOL    HW288082  12.188   2.192   9.250
28729SOL     OW88083   4.231   4.882  14.147
28729SOL    HW188084   4.280   4.926  14.217
28729SOL    HW288085   4.140   4.901  14.167
28730SOL     OW88086   6.858   1.580   7.520
28730SOL    HW188087   6.931   1.577   7.458
28730SOL    HW288088   6.865   1.498   7.570
28731SOL     OW88089   3.803  12.234  10.478
28731SOL    HW188090   3.772  12.316  10.517
28731SOL    HW288091   3.896  12.230  10.503
28732SOL     OW88092  11.814   3.446  12.980
28732SOL    HW188093  11.900   3.481  13.005
28732SOL    HW288094  11.834   3.365  12.933
28733SOL     OW88095   9.281   7.195   4.291
28733SOL    HW188096   9.263   7.106   4.261
28733SOL    HW288097   9.203   7.219   4.342
28734SOL     OW88098   5.372   1.114   7.824
28734SOL    HW188099   5.409   1.076   7.744
28734SOL    HW288100   5.433   1.183   7.849
28735SOL     OW88101   9.073   2.613  13.037
28735SOL    HW188102   9.074   2.707  13.054
28735SOL    HW288103   9.059   2.606  12.943
28736SOL     OW88104  12.764   5.822  12.996
28736SOL    HW188105  12.713   5.900  13.021
28736SOL    HW288106  12.740   5.807  12.904
28737SOL     OW88107   3.417  12.630  10.013
28737SOL    HW188108   3.365  12.567  10.063
28737SOL    HW288109   3.478  12.667  10.078
28738SOL     OW88110   8.863  12.504   8.851
28738SOL    HW188111   8.817  12.427   8.884
28738SOL    HW288112   8.950  12.500   8.892
28739SOL     OW88113  10.859   1.622  14.387
28739SOL    HW188114  10.848   1.698  14.330
28739SOL    HW288115  10.816   1.550  14.340
28740SOL     OW88116   4.378   4.344   0.715
28740SOL    HW188117   4.331   4.275   0.761
28740SOL    HW288118   4.414   4.301   0.637
28741SOL     OW88119  10.969  10.997  13.877
28741SOL    HW188120  10.970  10.987  13.782
28741SOL    HW288121  10.957  11.091  13.891
28742SOL     OW88122   5.786  12.373   4.041
28742SOL    HW188123   5.757  12.334   4.123
28742SOL    HW288124   5.764  12.306   3.975
28743SOL     OW88125  12.589   0.208   1.429
28743SOL    HW188126  12.595   0.303   1.426
28743SOL    HW288127  12.561   0.188   1.518
28744SOL     OW88128  14.732  11.185  10.338
28744SOL    HW188129  14.637  11.182  10.325
28744SOL    HW288130  14.763  11.248  10.273
28745SOL     OW88131   7.929   8.954   3.833
28745SOL    HW188132   8.002   8.893   3.837
28745SOL    HW288133   7.952   9.022   3.898
28746SOL     OW88134   1.800   8.891   3.539
28746SOL    HW188135   1.860   8.947   3.490
28746SOL    HW288136   1.765   8.830   3.474
28747SOL     OW88137   4.761   2.147   1.402
28747SOL    HW188138   4.831   2.148   1.467
28747SOL    HW288139   4.680   2.143   1.453
28748SOL     OW88140   7.828  10.989   5.674
28748SOL    HW188141   7.843  10.896   5.654
28748SOL    HW288142   7.788  11.024   5.595
28749SOL     OW88143   5.686  11.256   8.778
28749SOL    HW188144   5.726  11.313   8.845
28749SOL    HW288145   5.608  11.221   8.821
28750SOL     OW88146  14.675  14.295  11.565
28750SOL    HW188147  14.672  14.384  11.602
28750SOL    HW288148  14.658  14.238  11.639
28751SOL     OW88149  11.257   4.952   9.419
28751SOL    HW188150  11.207   4.879   9.382
28751SOL    HW288151  11.300   4.916   9.496
28752SOL     OW88152  10.103   6.451   1.873
28752SOL    HW188153  10.079   6.430   1.783
28752SOL    HW288154  10.035   6.408   1.926
28753SOL     OW88155   1.425   9.366  14.572
28753SOL    HW188156   1.338   9.403  14.590
28753SOL    HW288157   1.441   9.386  14.480
28754SOL     OW88158  10.323   0.621   7.633
28754SOL    HW188159  10.347   0.529   7.642
28754SOL    HW288160  10.250   0.633   7.694
28755SOL     OW88161  12.873   3.282  11.498
28755SOL    HW188162  12.926   3.247  11.426
28755SOL    HW288163  12.833   3.361  11.463
28756SOL     OW88164   2.282  10.802   0.057
28756SOL    HW188165   2.260  10.808  14.837
28756SOL    HW288166   2.277  10.892   0.089
28757SOL     OW88167   6.191   4.021  13.070
28757SOL    HW188168   6.204   3.926  13.076
28757SOL    HW288169   6.265   4.058  13.118
28758SOL     OW88170   9.739  11.146  11.336
28758SOL    HW188171   9.815  11.177  11.288
28758SOL    HW288172   9.754  11.052  11.347
28759SOL     OW88173  13.556   3.248  14.199
28759SOL    HW188174  13.486   3.200  14.242
28759SOL    HW288175  13.519   3.274  14.114
28760SOL     OW88176   9.776   4.366  12.117
28760SOL    HW188177   9.855   4.334  12.073
28760SOL    HW288178   9.803   4.379  12.208
28761SOL     OW88179   5.427  12.241   9.251
28761SOL    HW188180   5.424  12.324   9.204
28761SOL    HW288181   5.340  12.203   9.239
28762SOL     OW88182   0.537   9.118   9.772
28762SOL    HW188183   0.614   9.168   9.800
28762SOL    HW288184   0.516   9.154   9.686
28763SOL     OW88185  13.430  11.969  11.815
28763SOL    HW188186  13.350  12.022  11.824
28763SOL    HW288187  13.409  11.887  11.859
28764SOL     OW88188   8.400  12.161   3.982
28764SOL    HW188189   8.307  12.172   3.964
28764SOL    HW288190   8.406  12.161   4.077
28765SOL     OW88191   7.295   2.336   8.305
28765SOL    HW188192   7.209   2.369   8.279
28765SOL    HW288193   7.302   2.252   8.260
28766SOL     OW88194  11.695   5.489  12.657
28766SOL    HW188195  11.627   5.557  12.651
28766SOL    HW288196  11.649   5.412  12.690
28767SOL     OW88197   9.217   8.105   8.657
28767SOL    HW188198   9.225   8.016   8.690
28767SOL    HW288199   9.124   8.125   8.666
28768SOL     OW88200  10.817  13.200   8.092
28768SOL    HW188201  10.883  13.190   8.161
28768SOL    HW288202  10.852  13.268   8.034
28769SOL     OW88203   1.528   1.032   0.371
28769SOL    HW188204   1.572   1.059   0.290
28769SOL    HW288205   1.560   1.093   0.437
28770SOL     OW88206   7.456   4.133   0.494
28770SOL    HW188207   7.391   4.200   0.510
28770SOL    HW288208   7.436   4.063   0.556
28771SOL     OW88209   5.370   1.406   0.896
28771SOL    HW188210   5.428   1.475   0.929
28771SOL    HW288211   5.294   1.452   0.863
28772SOL     OW88212   1.738   7.157   0.862
28772SOL    HW188213   1.756   7.209   0.941
28772SOL    HW288214   1.680   7.212   0.810
28773SOL     OW88215   4.963  14.299  10.434
28773SOL    HW188216   4.960  14.210  10.398
28773SOL    HW288217   4.999  14.288  10.522
28774SOL     OW88218   9.811  11.482   0.629
28774SOL    HW188219   9.738  11.527   0.672
28774SOL    HW288220   9.821  11.527   0.546
28775SOL     OW88221  14.162   8.479  14.759
28775SOL    HW188222  14.102   8.495  14.685
28775SOL    HW288223  14.186   8.386  14.750
28776SOL     OW88224   9.183   5.899   7.791
28776SOL    HW188225   9.155   5.975   7.739
28776SOL    HW288226   9.278   5.897   7.780
28777SOL     OW88227   1.400  12.363   8.290
28777SOL    HW188228   1.366  12.274   8.301
28777SOL    HW288229   1.328  12.420   8.316
28778SOL     OW88230  11.481   6.519   9.053
28778SOL    HW188231  11.543   6.463   9.100
28778SOL    HW288232  11.395   6.492   9.085
28779SOL     OW88233   5.633   1.065   0.870
28779SOL    HW188234   5.667   1.003   0.934
28779SOL    HW288235   5.538   1.054   0.875
28780SOL     OW88236   9.909  13.894   4.651
28780SOL    HW188237   9.857  13.956   4.703
28780SOL    HW288238   9.877  13.906   4.561
28781SOL     OW88239   3.216   7.726   9.982
28781SOL    HW188240   3.234   7.747   9.890
28781SOL    HW288241   3.224   7.631   9.986
28782SOL     OW88242  11.029   3.314   7.380
28782SOL    HW188243  10.940   3.316   7.345
28782SOL    HW288244  11.020   3.275   7.467
28783SOL     OW88245   6.975  13.405   1.858
28783SOL    HW188246   7.010  13.460   1.788
28783SOL    HW288247   6.898  13.362   1.820
28784SOL     OW88248  11.595   4.308   8.094
28784SOL    HW188249  11.546   4.256   8.157
28784SOL    HW288250  11.531   4.371   8.059
28785SOL     OW88251  13.794   9.296  12.103
28785SOL    HW188252  13.720   9.352  12.127
28785SOL    HW288253  13.792   9.293  12.007
28786SOL     OW88254  11.232  12.304   2.820
28786SOL    HW188255  11.312  12.343   2.855
28786SOL    HW288256  11.257  12.216   2.793
28787SOL     OW88257   9.039   0.955  13.670
28787SOL    HW188258   8.997   0.920  13.748
28787SOL    HW288259   9.014   1.048  13.668
28788SOL     OW88260   0.712   0.175   7.303
28788SOL    HW188261   0.713   0.130   7.387
28788SOL    HW288262   0.628   0.149   7.263
28789SOL     OW88263   1.001   4.640   9.378
28789SOL    HW188264   0.980   4.648   9.471
28789SOL    HW288265   0.917   4.656   9.333
28790SOL     OW88266   0.606  13.077   0.479
28790SOL    HW188267   0.592  13.163   0.519
28790SOL    HW288268   0.692  13.082   0.439
28791SOL     OW88269   4.317   7.817  10.338
28791SOL    HW188270   4.386   7.791  10.277
28791SOL    HW288271   4.285   7.734  10.375
28792SOL     OW88272  13.095   6.123  14.677
28792SOL    HW188273  13.051   6.178  14.612
28792SOL    HW288274  13.024   6.073  14.718
28793SOL     OW88275   1.291  12.905   5.633
28793SOL    HW188276   1.265  12.892   5.542
28793SOL    HW288277   1.250  12.988   5.658
28794SOL     OW88278   4.461   0.137   9.638
28794SOL    HW188279   4.477   0.229   9.620
28794SOL    HW288280   4.546   0.102   9.665
28795SOL     OW88281  11.263  12.591  12.887
28795SOL    HW188282  11.341  12.544  12.915
28795SOL    HW288283  11.296  12.673  12.849
28796SOL     OW88284  12.813  12.191   7.352
28796SOL    HW188285  12.847  12.102   7.354
28796SOL    HW288286  12.868  12.239   7.414
28797SOL     OW88287   1.001   2.124   7.264
28797SOL    HW188288   1.095   2.116   7.246
28797SOL    HW288289   0.978   2.043   7.310
28798SOL     OW88290   5.866   3.084   9.994
28798SOL    HW188291   5.947   3.041   9.967
28798SOL    HW288292   5.798   3.044   9.940
28799SOL     OW88293   8.037   3.858  13.114
28799SOL    HW188294   8.115   3.913  13.127
28799SOL    HW288295   8.066   3.770  13.137
28800SOL     OW88296  11.890   5.028   3.321
28800SOL    HW188297  11.857   4.952   3.368
28800SOL    HW288298  11.985   5.020   3.325
28801SOL     OW88299  11.860   3.494   4.807
28801SOL    HW188300  11.872   3.553   4.733
28801SOL    HW288301  11.810   3.421   4.771
28802SOL     OW88302   7.676   3.505   7.410
28802SOL    HW188303   7.620   3.428   7.399
28802SOL    HW288304   7.655   3.560   7.334
28803SOL     OW88305   2.814   7.840   4.671
28803SOL    HW188306   2.823   7.931   4.700
28803SOL    HW288307   2.886   7.794   4.715
28804SOL     OW88308  10.690  10.109   3.411
28804SOL    HW188309  10.729  10.186   3.370
28804SOL    HW288310  10.677  10.047   3.339
28805SOL     OW88311   5.078  14.497   4.540
28805SOL    HW188312   5.033  14.413   4.531
28805SOL    HW288313   5.171  14.474   4.536
28806SOL     OW88314  13.802  10.106   7.634
28806SOL    HW188315  13.882  10.095   7.686
28806SOL    HW288316  13.732  10.105   7.699
28807SOL     OW88317   6.712   4.548   5.426
28807SOL    HW188318   6.740   4.575   5.338
28807SOL    HW288319   6.643   4.610   5.449
28808SOL     OW88320  10.195  14.782   7.056
28808SOL    HW188321  10.140  14.718   7.011
28808SOL    HW288322  10.185  14.761   7.149
28809SOL     OW88323  10.489   3.261   4.887
28809SOL    HW188324  10.424   3.327   4.865
28809SOL    HW288325  10.439   3.186   4.917
28810SOL     OW88326  13.083   2.685   4.061
28810SOL    HW188327  13.169   2.692   4.102
28810SOL    HW288328  13.099   2.639   3.978
28811SOL     OW88329   0.398   1.783   1.064
28811SOL    HW188330   0.428   1.694   1.081
28811SOL    HW288331   0.380   1.820   1.150
28812SOL     OW88332   4.062   2.193   8.558
28812SOL    HW188333   3.994   2.260   8.551
28812SOL    HW288334   4.104   2.193   8.472
28813SOL     OW88335   3.089  11.623  11.803
28813SOL    HW188336   3.176  11.601  11.835
28813SOL    HW288337   3.037  11.545  11.818
28814SOL     OW88338   2.146   6.627   6.150
28814SOL    HW188339   2.056   6.638   6.120
28814SOL    HW288340   2.149   6.668   6.236
28815SOL     OW88341  10.120   8.903   7.330
28815SOL    HW188342  10.159   8.830   7.378
28815SOL    HW288343  10.027   8.898   7.351
28816SOL     OW88344  10.220   2.742  14.018
28816SOL    HW188345  10.229   2.655  14.056
28816SOL    HW288346  10.256   2.734  13.929
28817SOL     OW88347   1.551   1.014   4.120
28817SOL    HW188348   1.461   1.027   4.090
28817SOL    HW288349   1.568   1.088   4.177
28818SOL     OW88350  11.676  14.697   1.425
28818SOL    HW188351  11.768  14.719   1.433
28818SOL    HW288352  11.642  14.757   1.359
28819SOL     OW88353   0.403   9.234   0.579
28819SOL    HW188354   0.365   9.202   0.660
28819SOL    HW288355   0.417   9.156   0.526
28820SOL     OW88356  10.862   6.047   4.050
28820SOL    HW188357  10.774   6.078   4.072
28820SOL    HW288358  10.865   5.957   4.084
28821SOL     OW88359   5.698   5.671   1.124
28821SOL    HW188360   5.787   5.701   1.103
28821SOL    HW288361   5.679   5.605   1.058
28822SOL     OW88362   2.385  10.299  10.240
28822SOL    HW188363   2.456  10.319  10.180
28822SOL    HW288364   2.325  10.243  10.189
28823SOL     OW88365  11.502   6.242   8.544
28823SOL    HW188366  11.572   6.302   8.570
28823SOL    HW288367  11.528   6.158   8.580
28824SOL     OW88368  10.220   8.536   3.530
28824SOL    HW188369  10.195   8.501   3.445
28824SOL    HW288370  10.229   8.630   3.515
28825SOL     OW88371  12.058   9.532   0.091
28825SOL    HW188372  12.148   9.545   0.119
28825SOL    HW288373  12.065   9.497   0.002
28826SOL     OW88374   1.208   1.286  10.863
28826SOL    HW188375   1.277   1.341  10.899
28826SOL    HW288376   1.159   1.256  10.940
28827SOL     OW88377   8.195   7.779   0.903
28827SOL    HW188378   8.164   7.851   0.958
28827SOL    HW288379   8.215   7.820   0.819
28828SOL     OW88380  10.516   7.258  10.389
28828SOL    HW188381  10.595   7.273  10.441
28828SOL    HW288382  10.488   7.346  10.363
28829SOL     OW88383  10.636   6.950   0.799
28829SOL    HW188384  10.541   6.942   0.813
28829SOL    HW288385  10.673   6.938   0.886
28830SOL     OW88386   7.537  13.877   0.560
28830SOL    HW188387   7.483  13.944   0.601
28830SOL    HW288388   7.475  13.809   0.532
28831SOL     OW88389  12.051   6.976  14.470
28831SOL    HW188390  11.976   7.034  14.484
28831SOL    HW288391  12.086   6.960  14.557
28832SOL     OW88392   5.894  13.736  13.363
28832SOL    HW188393   5.834  13.805  13.390
28832SOL    HW288394   5.914  13.689  13.443
28833SOL     OW88395  11.604   7.771   0.810
28833SOL    HW188396  11.619   7.835   0.880
28833SOL    HW288397  11.636   7.689   0.846
28834SOL     OW88398   9.731  12.317  12.942
28834SOL    HW188399   9.663  12.279  12.887
28834SOL    HW288400   9.796  12.351  12.879
28835SOL     OW88401   3.577  11.731   8.693
28835SOL    HW188402   3.482  11.733   8.696
28835SOL    HW288403   3.599  11.640   8.675
28836SOL     OW88404   3.878  11.846   4.237
28836SOL    HW188405   3.920  11.912   4.291
28836SOL    HW288406   3.864  11.771   4.296
28837SOL     OW88407   0.860   3.049   4.068
28837SOL    HW188408   0.838   3.059   3.976
28837SOL    HW288409   0.811   3.118   4.112
28838SOL     OW88410   8.050   4.733   3.669
28838SOL    HW188411   8.001   4.652   3.660
28838SOL    HW288412   8.009   4.777   3.744
28839SOL     OW88413   7.411  10.910   3.678
28839SOL    HW188414   7.391  10.910   3.772
28839SOL    HW288415   7.496  10.953   3.672
28840SOL     OW88416   1.833  12.557   6.225
28840SOL    HW188417   1.755  12.545   6.280
28840SOL    HW288418   1.817  12.640   6.180
28841SOL     OW88419  14.512   0.795   4.541
28841SOL    HW188420  14.600   0.819   4.569
28841SOL    HW288421  14.483   0.869   4.488
28842SOL     OW88422   0.275   4.083  12.754
28842SOL    HW188423   0.320   4.134  12.687
28842SOL    HW288424   0.266   4.143  12.828
28843SOL     OW88425  14.719   3.459  10.243
28843SOL    HW188426  14.634   3.500  10.229
28843SOL    HW288427  14.729   3.456  10.338
28844SOL     OW88428  10.053   1.954   1.782
28844SOL    HW188429  10.007   1.876   1.749
28844SOL    HW288430  10.146   1.928   1.783
28845SOL     OW88431   6.790   6.495  12.886
28845SOL    HW188432   6.748   6.500  12.800
28845SOL    HW288433   6.787   6.584  12.920
28846SOL     OW88434   4.118   9.631  11.131
28846SOL    HW188435   4.144   9.634  11.039
28846SOL    HW288436   4.161   9.553  11.166
28847SOL     OW88437   4.031   4.478  10.399
28847SOL    HW188438   4.062   4.416  10.466
28847SOL    HW288439   3.996   4.551  10.449
28848SOL     OW88440   1.387  10.207   8.704
28848SOL    HW188441   1.444  10.227   8.630
28848SOL    HW288442   1.409  10.274   8.770
28849SOL     OW88443  14.436   7.552  10.648
28849SOL    HW188444  14.418   7.552  10.742
28849SOL    HW288445  14.417   7.641  10.620
28850SOL     OW88446  11.642   7.881   1.953
28850SOL    HW188447  11.698   7.904   2.027
28850SOL    HW288448  11.683   7.922   1.878
28851SOL     OW88449   4.536   3.927   6.881
28851SOL    HW188450   4.541   3.899   6.973
28851SOL    HW288451   4.626   3.952   6.860
28852SOL     OW88452  10.260   9.360   4.262
28852SOL    HW188453  10.182   9.413   4.277
28852SOL    HW288454  10.241   9.311   4.183
28853SOL     OW88455   5.253   0.819  14.285
28853SOL    HW188456   5.210   0.905  14.291
28853SOL    HW288457   5.344   0.840  14.266
28854SOL     OW88458   8.927   1.849   1.614
28854SOL    HW188459   8.882   1.883   1.537
28854SOL    HW288460   8.936   1.924   1.673
28855SOL     OW88461   8.634   6.440   1.608
28855SOL    HW188462   8.553   6.403   1.572
28855SOL    HW288463   8.609   6.525   1.643
28856SOL     OW88464   2.238  10.741  12.809
28856SOL    HW188465   2.327  10.733  12.843
28856SOL    HW288466   2.184  10.690  12.869
28857SOL     OW88467   3.958   0.564   7.790
28857SOL    HW188468   4.016   0.513   7.846
28857SOL    HW288469   3.967   0.524   7.704
28858SOL     OW88470  13.211  13.765   5.417
28858SOL    HW188471  13.206  13.781   5.512
28858SOL    HW288472  13.255  13.680   5.411
28859SOL     OW88473  11.129  10.791  10.849
28859SOL    HW188474  11.093  10.714  10.894
28859SOL    HW288475  11.066  10.861  10.869
28860SOL     OW88476  10.747   9.516   3.908
28860SOL    HW188477  10.685   9.588   3.913
28860SOL    HW288478  10.693   9.437   3.907
28861SOL     OW88479   7.064  10.667   4.525
28861SOL    HW188480   7.016  10.697   4.448
28861SOL    HW288481   7.052  10.737   4.589
28862SOL     OW88482   9.049   5.680   4.311
28862SOL    HW188483   9.019   5.591   4.330
28862SOL    HW288484   8.986   5.714   4.249
28863SOL     OW88485   5.985  14.107   6.060
28863SOL    HW188486   6.053  14.040   6.054
28863SOL    HW288487   6.022  14.183   6.014
28864SOL     OW88488  14.017   0.938  14.588
28864SOL    HW188489  13.987   0.851  14.616
28864SOL    HW288490  14.108   0.924  14.560
28865SOL     OW88491   2.328   3.313  13.343
28865SOL    HW188492   2.355   3.368  13.269
28865SOL    HW288493   2.376   3.349  13.418
28866SOL     OW88494   2.943   1.281  13.225
28866SOL    HW188495   2.983   1.314  13.306
28866SOL    HW288496   2.863   1.237  13.255
28867SOL     OW88497  12.681   0.013  14.497
28867SOL    HW188498  12.758   0.001  14.442
28867SOL    HW288499  12.658   0.106  14.486
28868SOL     OW88500   8.058  13.668   0.359
28868SOL    HW188501   7.970  13.640   0.384
28868SOL    HW288502   8.050  13.694   0.267
28869SOL     OW88503   1.476   5.800   0.387
28869SOL    HW188504   1.414   5.728   0.378
28869SOL    HW288505   1.462   5.831   0.477
28870SOL     OW88506  12.531   8.398   2.612
28870SOL    HW188507  12.601   8.365   2.669
28870SOL    HW288508  12.517   8.488   2.641
28871SOL     OW88509   3.392  14.122   6.371
28871SOL    HW188510   3.363  14.138   6.281
28871SOL    HW288511   3.312  14.097   6.418
28872SOL     OW88512   8.559   1.892   8.000
28872SOL    HW188513   8.603   1.817   8.039
28872SOL    HW288514   8.554   1.870   7.907
28873SOL     OW88515   6.158  12.808  14.163
28873SOL    HW188516   6.213  12.731  14.149
28873SOL    HW288517   6.220  12.877  14.186
28874SOL     OW88518   1.046  14.150   1.831
28874SOL    HW188519   1.091  14.227   1.799
28874SOL    HW288520   0.961  14.151   1.787
28875SOL     OW88521  10.306   3.648  11.574
28875SOL    HW188522  10.214   3.624  11.583
28875SOL    HW288523  10.321   3.714  11.642
28876SOL     OW88524   9.368   0.090   0.522
28876SOL    HW188525   9.333   0.108   0.434
28876SOL    HW288526   9.459   0.064   0.506
28877SOL     OW88527   0.705   9.594   8.216
28877SOL    HW188528   0.631   9.652   8.233
28877SOL    HW288529   0.759   9.641   8.152
28878SOL     OW88530   0.326   2.487  14.639
28878SOL    HW188531   0.293   2.480  14.549
28878SOL    HW288532   0.390   2.416  14.646
28879SOL     OW88533   6.610   5.650  10.301
28879SOL    HW188534   6.596   5.608  10.216
28879SOL    HW288535   6.634   5.740  10.279
28880SOL     OW88536   9.299   6.539   0.253
28880SOL    HW188537   9.240   6.590   0.197
28880SOL    HW288538   9.254   6.456   0.266
28881SOL     OW88539  13.701   2.255   9.834
28881SOL    HW188540  13.654   2.191   9.887
28881SOL    HW288541  13.634   2.293   9.777
28882SOL     OW88542   5.652   1.850  11.500
28882SOL    HW188543   5.664   1.895  11.584
28882SOL    HW288544   5.601   1.911  11.447
28883SOL     OW88545   3.663  10.945  14.436
28883SOL    HW188546   3.595  10.951  14.504
28883SOL    HW288547   3.737  10.905  14.481
28884SOL     OW88548   6.258   3.455   4.130
28884SOL    HW188549   6.183   3.506   4.101
28884SOL    HW288550   6.255   3.375   4.077
28885SOL     OW88551   7.117   7.036   8.890
28885SOL    HW188552   7.189   7.083   8.849
28885SOL    HW288553   7.097   6.964   8.830
28886SOL     OW88554   0.810   9.837  10.146
28886SOL    HW188555   0.814   9.794  10.061
28886SOL    HW288556   0.826   9.767  10.209
28887SOL     OW88557   8.328   5.537   0.386
28887SOL    HW188558   8.374   5.453   0.381
28887SOL    HW288559   8.292   5.539   0.474
28888SOL     OW88560  10.920   3.175   1.356
28888SOL    HW188561  10.972   3.251   1.384
28888SOL    HW288562  10.974   3.132   1.290
28889SOL     OW88563   8.293   7.050  10.286
28889SOL    HW188564   8.263   7.045  10.377
28889SOL    HW288565   8.332   7.137  10.279
28890SOL     OW88566   5.542  12.152   8.986
28890SOL    HW188567   5.540  12.074   8.931
28890SOL    HW288568   5.475  12.137   9.053
28891SOL     OW88569   4.044   2.564   4.633
28891SOL    HW188570   4.017   2.484   4.587
28891SOL    HW288571   4.132   2.544   4.664
28892SOL     OW88572  10.065  11.017  10.749
28892SOL    HW188573   9.979  10.976  10.747
28892SOL    HW288574  10.049  11.107  10.720
28893SOL     OW88575   1.666  11.475   1.052
28893SOL    HW188576   1.681  11.466   0.958
28893SOL    HW288577   1.709  11.400   1.091
28894SOL     OW88578   6.389   9.247   9.983
28894SOL    HW188579   6.343   9.328   9.958
28894SOL    HW288580   6.387   9.248  10.079
28895SOL     OW88581   9.083   5.767  11.070
28895SOL    HW188582   9.138   5.845  11.064
28895SOL    HW288583   9.085   5.743  11.163
28896SOL     OW88584  10.121   6.642   0.663
28896SOL    HW188585  10.116   6.630   0.757
28896SOL    HW288586  10.036   6.610   0.631
28897SOL     OW88587   6.851   9.801  14.028
28897SOL    HW188588   6.788   9.846  14.084
28897SOL    HW288589   6.907   9.752  14.088
28898SOL     OW88590  11.677  13.564  13.720
28898SOL    HW188591  11.584  13.548  13.732
28898SOL    HW288592  11.685  13.660  13.717
28899SOL     OW88593   2.819   1.227  10.174
28899SOL    HW188594   2.834   1.256  10.084
28899SOL    HW288595   2.906   1.203  10.206
28900SOL     OW88596  11.721  10.528  13.671
28900SOL    HW188597  11.798  10.475  13.694
28900SOL    HW288598  11.678  10.478  13.602
28901SOL     OW88599  10.504   4.931   2.002
28901SOL    HW188600  10.561   4.924   2.079
28901SOL    HW288601  10.505   4.844   1.964
28902SOL     OW88602   5.616   5.170  12.841
28902SOL    HW188603   5.706   5.201  12.828
28902SOL    HW288604   5.625   5.096  12.901
28903SOL     OW88605   0.445   7.307   9.332
28903SOL    HW188606   0.378   7.284   9.397
28903SOL    HW288607   0.405   7.284   9.248
28904SOL     OW88608   9.727  11.401   8.131
28904SOL    HW188609   9.668  11.445   8.069
28904SOL    HW288610   9.719  11.451   8.212
28905SOL     OW88611  11.352  11.307  14.738
28905SOL    HW188612  11.425  11.294  14.677
28905SOL    HW288613  11.356  11.230  14.796
28906SOL     OW88614  11.823   0.976   8.395
28906SOL    HW188615  11.877   0.974   8.473
28906SOL    HW288616  11.886   0.975   8.322
28907SOL     OW88617   0.137   8.625  13.429
28907SOL    HW188618   0.101   8.538  13.444
28907SOL    HW288619   0.143   8.632  13.334
28908SOL     OW88620  12.002   1.405   1.424
28908SOL    HW188621  11.948   1.414   1.503
28908SOL    HW288622  12.022   1.495   1.398
28909SOL     OW88623  12.717   9.431   4.451
28909SOL    HW188624  12.709   9.418   4.356
28909SOL    HW288625  12.700   9.344   4.489
28910SOL     OW88626   9.978  11.864   1.859
28910SOL    HW188627  10.044  11.932   1.866
28910SOL    HW288628   9.987  11.814   1.940
28911SOL     OW88629   0.153   8.415  12.090
28911SOL    HW188630   0.061   8.391  12.079
28911SOL    HW288631   0.174   8.390  12.179
28912SOL     OW88632   3.536   9.086  14.371
28912SOL    HW188633   3.543   9.012  14.311
28912SOL    HW288634   3.613   9.139  14.354
28913SOL     OW88635  11.545   1.414   1.291
28913SOL    HW188636  11.616   1.471   1.321
28913SOL    HW288637  11.589   1.336   1.258
28914SOL     OW88638   9.340   0.744  11.949
28914SOL    HW188639   9.336   0.701  11.864
28914SOL    HW288640   9.249   0.757  11.974
28915SOL     OW88641   5.566  10.287   7.591
28915SOL    HW188642   5.579  10.257   7.682
28915SOL    HW288643   5.585  10.381   7.594
28916SOL     OW88644   2.175   7.687  10.040
28916SOL    HW188645   2.266   7.668  10.021
28916SOL    HW288646   2.156   7.639  10.121
28917SOL     OW88647   9.891   1.597  11.698
28917SOL    HW188648   9.939   1.657  11.640
28917SOL    HW288649   9.816   1.647  11.728
28918SOL     OW88650  12.920   0.144   9.345
28918SOL    HW188651  12.942   0.230   9.308
28918SOL    HW288652  12.825   0.147   9.359
28919SOL     OW88653   3.089   8.681   2.649
28919SOL    HW188654   3.031   8.745   2.609
28919SOL    HW288655   3.111   8.719   2.734
28920SOL     OW88656   6.271   2.192  12.591
28920SOL    HW188657   6.333   2.216  12.522
28920SOL    HW288658   6.316   2.125  12.642
28921SOL     OW88659   7.297   8.958   7.424
28921SOL    HW188660   7.364   8.927   7.362
28921SOL    HW288661   7.246   8.880   7.444
28922SOL     OW88662   4.122   6.752  10.935
28922SOL    HW188663   4.064   6.699  10.881
28922SOL    HW288664   4.201   6.764  10.883
28923SOL     OW88665   3.970   2.848   4.660
28923SOL    HW188666   3.968   2.754   4.643
28923SOL    HW288667   4.034   2.882   4.598
28924SOL     OW88668   8.411  13.747  12.076
28924SOL    HW188669   8.358  13.699  12.140
28924SOL    HW288670   8.348  13.801  12.029
28925SOL     OW88671   5.373   4.264  13.559
28925SOL    HW188672   5.343   4.251  13.649
28925SOL    HW288673   5.302   4.229  13.505
28926SOL     OW88674   6.171  11.445  14.239
28926SOL    HW188675   6.088  11.464  14.194
28926SOL    HW288676   6.237  11.489  14.187
28927SOL     OW88677  10.185  10.907   8.929
28927SOL    HW188678  10.202  10.854   8.851
28927SOL    HW288679  10.243  10.982   8.921
28928SOL     OW88680   8.109   7.627   9.345
28928SOL    HW188681   8.200   7.631   9.377
28928SOL    HW288682   8.062   7.577   9.412
28929SOL     OW88683  13.702  11.606   1.753
28929SOL    HW188684  13.637  11.583   1.687
28929SOL    HW288685  13.783  11.616   1.704
28930SOL     OW88686   7.918   7.942  10.923
28930SOL    HW188687   7.836   7.943  10.972
28930SOL    HW288688   7.904   7.877  10.854
28931SOL     OW88689   6.607  14.521   2.325
28931SOL    HW188690   6.702  14.510   2.323
28931SOL    HW288691   6.584  14.540   2.234
28932SOL     OW88692   8.381   8.954   3.953
28932SOL    HW188693   8.380   9.008   3.874
28932SOL    HW288694   8.290   8.927   3.964
28933SOL     OW88695  12.818  14.583  13.568
28933SOL    HW188696  12.777  14.608  13.651
28933SOL    HW288697  12.811  14.487  13.566
28934SOL     OW88698  12.715   8.698  14.155
28934SOL    HW188699  12.620   8.711  14.161
28934SOL    HW288700  12.728   8.661  14.068
28935SOL     OW88701  12.940   0.808   4.599
28935SOL    HW188702  13.031   0.838   4.595
28935SOL    HW288703  12.943   0.732   4.657
28936SOL     OW88704   2.620   5.790  12.341
28936SOL    HW188705   2.698   5.742  12.312
28936SOL    HW288706   2.654   5.862  12.393
28937SOL     OW88707  14.586  13.455   9.836
28937SOL    HW188708  14.650  13.454   9.765
28937SOL    HW288709  14.506  13.418   9.796
28938SOL     OW88710   1.235   2.559   3.926
28938SOL    HW188711   1.278   2.633   3.969
28938SOL    HW288712   1.149   2.554   3.967
28939SOL     OW88713  12.758   3.699   4.310
28939SOL    HW188714  12.765   3.704   4.405
28939SOL    HW288715  12.735   3.788   4.282
28940SOL     OW88716  12.516   2.369   8.676
28940SOL    HW188717  12.553   2.452   8.646
28940SOL    HW288718  12.562   2.302   8.625
28941SOL     OW88719  14.163  14.795   5.794
28941SOL    HW188720  14.168   0.006   5.747
28941SOL    HW288721  14.105  14.741   5.741
28942SOL     OW88722   5.019   4.999   7.321
28942SOL    HW188723   5.105   5.034   7.298
28942SOL    HW288724   4.965   5.011   7.243
28943SOL     OW88725   0.260   3.970   1.820
28943SOL    HW188726   0.293   3.881   1.830
28943SOL    HW288727   0.249   4.002   1.910
28944SOL     OW88728   1.301   6.046   8.034
28944SOL    HW188729   1.395   6.061   8.032
28944SOL    HW288730   1.285   5.984   7.964
28945SOL     OW88731  11.023   4.059   5.717
28945SOL    HW188732  11.077   4.132   5.747
28945SOL    HW288733  11.060   3.982   5.762
28946SOL     OW88734  14.013   5.567   5.293
28946SOL    HW188735  13.974   5.626   5.229
28946SOL    HW288736  14.054   5.625   5.357
28947SOL     OW88737  11.928  13.458   7.804
28947SOL    HW188738  12.001  13.487   7.748
28947SOL    HW288739  11.930  13.519   7.878
28948SOL     OW88740   0.451   0.245   2.915
28948SOL    HW188741   0.507   0.305   2.964
28948SOL    HW288742   0.494   0.236   2.830
28949SOL     OW88743   9.897   4.559  10.695
28949SOL    HW188744   9.859   4.642  10.667
28949SOL    HW288745   9.982   4.583  10.733
28950SOL     OW88746   0.400  13.969   3.004
28950SOL    HW188747   0.423  13.876   3.005
28950SOL    HW288748   0.304  13.970   3.009
28951SOL     OW88749   8.394   3.029   7.116
28951SOL    HW188750   8.472   2.990   7.078
28951SOL    HW288751   8.425   3.081   7.190
28952SOL     OW88752   1.443   3.768   7.967
28952SOL    HW188753   1.419   3.853   7.929
28952SOL    HW288754   1.423   3.777   8.060
28953SOL     OW88755  14.742   1.507   7.135
28953SOL    HW188756  14.661   1.499   7.184
28953SOL    HW288757  14.725   1.464   7.051
28954SOL     OW88758   6.346   3.454   4.595
28954SOL    HW188759   6.325   3.492   4.680
28954SOL    HW288760   6.403   3.380   4.615
28955SOL     OW88761  14.563   8.402   9.124
28955SOL    HW188762  14.624   8.476   9.120
28955SOL    HW288763  14.612   8.332   9.166
28956SOL     OW88764   0.702   0.446   2.194
28956SOL    HW188765   0.777   0.502   2.214
28956SOL    HW288766   0.736   0.384   2.129
28957SOL     OW88767   7.913  12.761   7.342
28957SOL    HW188768   7.867  12.803   7.270
28957SOL    HW288769   8.006  12.767   7.318
28958SOL     OW88770   2.598   1.925  11.713
28958SOL    HW188771   2.610   1.884  11.798
28958SOL    HW288772   2.674   1.984  11.704
28959SOL     OW88773  11.932   8.564   0.953
28959SOL    HW188774  11.944   8.555   0.858
28959SOL    HW288775  11.848   8.522   0.971
28960SOL     OW88776  11.972  10.577  10.393
28960SOL    HW188777  11.972  10.664  10.434
28960SOL    HW288778  11.997  10.517  10.463
28961SOL     OW88779   4.454   9.749   4.085
28961SOL    HW188780   4.441   9.655   4.082
28961SOL    HW288781   4.519   9.767   4.017
28962SOL     OW88782   6.921  13.879   0.437
28962SOL    HW188783   6.977  13.925   0.499
28962SOL    HW288784   6.838  13.867   0.483
28963SOL     OW88785   8.466  10.529   0.092
28963SOL    HW188786   8.416  10.467   0.145
28963SOL    HW288787   8.536  10.559   0.150
28964SOL     OW88788  10.212  14.816   0.184
28964SOL    HW188789  10.300  14.793   0.154
28964SOL    HW288790  10.158  14.812   0.105
28965SOL     OW88791   7.743  10.696  10.402
28965SOL    HW188792   7.717  10.760  10.336
28965SOL    HW288793   7.670  10.693  10.463
28966SOL     OW88794  12.819   3.215   2.367
28966SOL    HW188795  12.907   3.181   2.351
28966SOL    HW288796  12.786   3.236   2.280
28967SOL     OW88797  13.733  10.464   2.964
28967SOL    HW188798  13.712  10.498   3.051
28967SOL    HW288799  13.810  10.408   2.978
28968SOL     OW88800   6.278   7.272   3.296
28968SOL    HW188801   6.197   7.226   3.318
28968SOL    HW288802   6.260   7.315   3.212
28969SOL     OW88803   4.396  11.811   8.148
28969SOL    HW188804   4.388  11.887   8.205
28969SOL    HW288805   4.433  11.743   8.204
28970SOL     OW88806   7.728   9.583  12.873
28970SOL    HW188807   7.816   9.562  12.904
28970SOL    HW288808   7.724   9.543  12.786
28971SOL     OW88809   4.283   0.863  11.830
28971SOL    HW188810   4.191   0.878  11.810
28971SOL    HW288811   4.293   0.895  11.920
28972SOL     OW88812   4.319   8.672  11.144
28972SOL    HW188813   4.379   8.606  11.108
28972SOL    HW288814   4.243   8.668  11.085
28973SOL     OW88815   9.866  13.124   8.058
28973SOL    HW188816   9.886  13.194   8.121
28973SOL    HW288817   9.905  13.154   7.976
28974SOL     OW88818   3.144   6.870   0.550
28974SOL    HW188819   3.149   6.775   0.553
28974SOL    HW288820   3.050   6.888   0.539
28975SOL     OW88821   4.382  13.876   7.300
28975SOL    HW188822   4.388  13.848   7.209
28975SOL    HW288823   4.341  13.803   7.345
28976SOL     OW88824   9.842   4.303   4.898
28976SOL    HW188825   9.895   4.261   4.966
28976SOL    HW288826   9.809   4.230   4.845
28977SOL     OW88827   6.419   3.507  14.274
28977SOL    HW188828   6.334   3.519  14.317
28977SOL    HW288829   6.471   3.583  14.302
28978SOL     OW88830   5.632  12.402   0.588
28978SOL    HW188831   5.608  12.443   0.672
28978SOL    HW288832   5.601  12.463   0.522
28979SOL     OW88833  14.244   6.947   6.229
28979SOL    HW188834  14.178   7.016   6.235
28979SOL    HW288835  14.238   6.901   6.313
28980SOL     OW88836   3.353   8.130   3.240
28980SOL    HW188837   3.408   8.172   3.175
28980SOL    HW288838   3.281   8.091   3.190
28981SOL     OW88839   1.920   6.750   9.840
28981SOL    HW188840   1.969   6.701   9.907
28981SOL    HW288841   1.901   6.686   9.772
28982SOL     OW88842   9.755   9.900   2.708
28982SOL    HW188843   9.740   9.821   2.656
28982SOL    HW288844   9.705   9.886   2.788
28983SOL     OW88845   6.434   8.167   5.810
28983SOL    HW188846   6.502   8.234   5.804
28983SOL    HW288847   6.423   8.136   5.720
28984SOL     OW88848   9.634   6.856   5.230
28984SOL    HW188849   9.564   6.858   5.165
28984SOL    HW288850   9.600   6.804   5.302
28985SOL     OW88851  10.630   8.385   0.721
28985SOL    HW188852  10.677   8.309   0.685
28985SOL    HW288853  10.609   8.359   0.811
28986SOL     OW88854   8.793   7.352   0.656
28986SOL    HW188855   8.770   7.407   0.581
28986SOL    HW288856   8.805   7.413   0.728
28987SOL     OW88857   5.457   1.740   1.793
28987SOL    HW188858   5.362   1.741   1.800
28987SOL    HW288859   5.477   1.666   1.736
28988SOL     OW88860   7.987   0.345   2.230
28988SOL    HW188861   8.070   0.362   2.186
28988SOL    HW288862   7.974   0.420   2.288
28989SOL     OW88863  13.556  12.497  12.072
28989SOL    HW188864  13.500  12.572  12.053
28989SOL    HW288865  13.562  12.450  11.988
28990SOL     OW88866   9.088   1.746  14.578
28990SOL    HW188867   9.066   1.819  14.520
28990SOL    HW288868   9.060   1.668  14.531
28991SOL     OW88869   8.137   3.060   4.349
28991SOL    HW188870   8.199   3.072   4.421
28991SOL    HW288871   8.069   3.002   4.385
28992SOL     OW88872   2.223   6.164  14.126
28992SOL    HW188873   2.191   6.208  14.047
28992SOL    HW288874   2.283   6.227  14.166
28993SOL     OW88875   5.915   0.498   9.158
28993SOL    HW188876   5.935   0.584   9.195
28993SOL    HW288877   5.875   0.450   9.230
28994SOL     OW88878   0.323   8.946   4.720
28994SOL    HW188879   0.378   8.974   4.792
28994SOL    HW288880   0.313   9.023   4.665
28995SOL     OW88881  12.416   9.869  12.396
28995SOL    HW188882  12.327   9.898  12.375
28995SOL    HW288883  12.417   9.776  12.376
28996SOL     OW88884  13.966   9.946  12.879
28996SOL    HW188885  13.911   9.868  12.886
28996SOL    HW288886  14.031   9.936  12.949
28997SOL     OW88887  12.164   3.109  11.361
28997SOL    HW188888  12.164   3.203  11.383
28997SOL    HW288889  12.211   3.104  11.278
28998SOL     OW88890   9.049   6.207   9.447
28998SOL    HW188891   9.137   6.244   9.445
28998SOL    HW288892   9.012   6.238   9.530
28999SOL     OW88893   6.972   0.909   6.781
28999SOL    HW188894   6.988   0.965   6.705
28999SOL    HW288895   6.882   0.878   6.771
29000SOL     OW88896   4.701  12.724   7.777
29000SOL    HW188897   4.714  12.652   7.715
29000SOL    HW288898   4.755  12.700   7.853
29001SOL     OW88899  14.836  12.826   4.409
29001SOL    HW188900  14.787  12.849   4.330
29001SOL    HW288901  14.769  12.799   4.472
29002SOL     OW88902   4.539  10.478  12.647
29002SOL    HW188903   4.539  10.453  12.555
29002SOL    HW288904   4.479  10.416  12.689
29003SOL     OW88905   9.654  11.229  12.682
29003SOL    HW188906   9.741  11.265  12.696
29003SOL    HW288907   9.595  11.295  12.720
29004SOL     OW88908   9.544  11.351   5.779
29004SOL    HW188909   9.628  11.360   5.824
29004SOL    HW288910   9.493  11.295   5.837
29005SOL     OW88911   0.672  13.945  13.310
29005SOL    HW188912   0.601  14.008  13.322
29005SOL    HW288913   0.632  13.860  13.329
29006SOL     OW88914  13.428   3.591  14.135
29006SOL    HW188915  13.441   3.610  14.043
29006SOL    HW288916  13.340   3.554  14.140
29007SOL     OW88917  11.999   0.338  12.949
29007SOL    HW188918  11.940   0.263  12.938
29007SOL    HW288919  12.081   0.300  12.980
29008SOL     OW88920  13.283   3.335   1.086
29008SOL    HW188921  13.281   3.293   1.001
29008SOL    HW288922  13.226   3.411   1.076
29009SOL     OW88923   5.099   1.924  10.221
29009SOL    HW188924   5.012   1.958  10.202
29009SOL    HW288925   5.125   1.968  10.301
29010SOL     OW88926   4.177   0.647   5.672
29010SOL    HW188927   4.264   0.644   5.711
29010SOL    HW288928   4.136   0.724   5.712
29011SOL     OW88929   4.624   7.749   9.579
29011SOL    HW188930   4.615   7.689   9.653
29011SOL    HW288931   4.704   7.721   9.535
29012SOL     OW88932  12.047   4.752   5.974
29012SOL    HW188933  12.066   4.824   6.034
29012SOL    HW288934  11.951   4.749   5.970
29013SOL     OW88935   7.270   9.495   0.749
29013SOL    HW188936   7.326   9.419   0.767
29013SOL    HW288937   7.273   9.546   0.830
29014SOL     OW88938   3.767  13.847   0.377
29014SOL    HW188939   3.711  13.921   0.401
29014SOL    HW288940   3.745  13.827   0.286
29015SOL     OW88941   1.348   0.113   1.739
29015SOL    HW188942   1.377   0.193   1.782
29015SOL    HW288943   1.423   0.053   1.746
29016SOL     OW88944   0.627   8.959   8.124
29016SOL    HW188945   0.579   8.969   8.206
29016SOL    HW288946   0.565   8.916   8.065
29017SOL     OW88947   0.985   4.169   0.562
29017SOL    HW188948   1.020   4.189   0.649
29017SOL    HW288949   1.018   4.239   0.506
29018SOL     OW88950  11.838   7.356   6.240
29018SOL    HW188951  11.748   7.371   6.270
29018SOL    HW288952  11.860   7.269   6.275
29019SOL     OW88953   7.493  10.885   4.221
29019SOL    HW188954   7.430  10.831   4.269
29019SOL    HW288955   7.578  10.855   4.251
29020SOL     OW88956   9.349  13.364   0.769
29020SOL    HW188957   9.361  13.375   0.863
29020SOL    HW288958   9.283  13.430   0.745
29021SOL     OW88959   2.355   9.689   3.734
29021SOL    HW188960   2.284   9.742   3.697
29021SOL    HW288961   2.392   9.744   3.803
29022SOL     OW88962  12.377   9.289  11.051
29022SOL    HW188963  12.332   9.206  11.037
29022SOL    HW288964  12.420   9.279  11.136
29023SOL     OW88965  13.080   0.761   9.182
29023SOL    HW188966  13.043   0.754   9.270
29023SOL    HW288967  13.175   0.759   9.196
29024SOL     OW88968  11.869  10.872   1.403
29024SOL    HW188969  11.915  10.792   1.378
29024SOL    HW288970  11.776  10.851   1.393
29025SOL     OW88971  14.315   3.145   8.524
29025SOL    HW188972  14.243   3.130   8.463
29025SOL    HW288973  14.331   3.059   8.564
29026SOL     OW88974   8.818   7.498  10.695
29026SOL    HW188975   8.783   7.585  10.717
29026SOL    HW288976   8.782   7.479  10.609
29027SOL     OW88977   0.103  11.629   5.432
29027SOL    HW188978   0.133  11.564   5.367
29027SOL    HW288979   0.032  11.675   5.389
29028SOL     OW88980  13.823   6.069   7.761
29028SOL    HW188981  13.737   6.027   7.749
29028SOL    HW288982  13.856   6.033   7.843
29029SOL     OW88983   5.158   1.011   1.831
29029SOL    HW188984   5.092   1.052   1.775
29029SOL    HW288985   5.201   1.083   1.875
29030SOL     OW88986   7.358   4.679  10.893
29030SOL    HW188987   7.292   4.700  10.959
29030SOL    HW288988   7.422   4.626  10.940
29031SOL     OW88989  14.027   9.267   8.336
29031SOL    HW188990  13.972   9.299   8.407
29031SOL    HW288991  13.975   9.198   8.295
29032SOL     OW88992  10.092   6.838   9.853
29032SOL    HW188993  10.122   6.889   9.778
29032SOL    HW288994  10.060   6.756   9.815
29033SOL     OW88995   3.493  12.541   4.608
29033SOL    HW188996   3.527  12.492   4.683
29033SOL    HW288997   3.418  12.589   4.643
29034SOL     OW88998   6.889  10.139  14.845
29034SOL    HW188999   6.959  10.123   0.037
29034SOL    HW289000   6.935  10.168  14.767
29035SOL     OW89001   9.196  11.716   4.384
29035SOL    HW189002   9.166  11.807   4.381
29035SOL    HW289003   9.117  11.665   4.402
29036SOL     OW89004   5.242   5.507   5.690
29036SOL    HW189005   5.266   5.428   5.739
29036SOL    HW289006   5.146   5.505   5.687
29037SOL     OW89007   2.717   0.229  11.526
29037SOL    HW189008   2.651   0.218  11.458
29037SOL    HW289009   2.776   0.155  11.515
29038SOL     OW89010   7.688   4.641  12.444
29038SOL    HW189011   7.622   4.579  12.476
29038SOL    HW289012   7.725   4.679  12.523
29039SOL     OW89013   0.860   1.233   6.574
29039SOL    HW189014   0.897   1.174   6.509
29039SOL    HW289015   0.781   1.189   6.605
29040SOL     OW89016   8.912  11.424  12.246
29040SOL    HW189017   8.853  11.359  12.282
29040SOL    HW289018   8.878  11.508  12.277
29041SOL     OW89019   3.989   1.086  11.521
29041SOL    HW189020   3.916   1.052  11.470
29041SOL    HW289021   3.994   1.179  11.497
29042SOL     OW89022   5.062   7.829   6.637
29042SOL    HW189023   5.152   7.801   6.650
29042SOL    HW289024   5.035   7.866   6.721
29043SOL     OW89025   5.397   0.869   7.431
29043SOL    HW189026   5.394   0.863   7.526
29043SOL    HW289027   5.338   0.799   7.401
29044SOL     OW89028   8.596  10.631   6.418
29044SOL    HW189029   8.505  10.609   6.395
29044SOL    HW289030   8.649  10.584   6.354
29045SOL     OW89031   9.974  12.096   7.575
29045SOL    HW189032  10.025  12.064   7.500
29045SOL    HW289033  10.030  12.163   7.614
29046SOL     OW89034   1.991   8.144   0.673
29046SOL    HW189035   1.954   8.225   0.707
29046SOL    HW289036   2.071   8.170   0.628
29047SOL     OW89037   7.073   3.635   6.745
29047SOL    HW189038   7.075   3.718   6.697
29047SOL    HW289039   7.138   3.581   6.701
29048SOL     OW89040   0.880   0.264  13.414
29048SOL    HW189041   0.821   0.325  13.371
29048SOL    HW289042   0.890   0.192  13.351
29049SOL     OW89043   3.266  10.977   4.372
29049SOL    HW189044   3.272  11.008   4.282
29049SOL    HW289045   3.337  10.913   4.380
29050SOL     OW89046   0.473   9.009   6.908
29050SOL    HW189047   0.528   9.041   6.837
29050SOL    HW289048   0.386   9.001   6.870
29051SOL     OW89049   3.814   9.161  13.165
29051SOL    HW189050   3.880   9.129  13.226
29051SOL    HW289051   3.816   9.099  13.092
29052SOL     OW89052   9.555   1.340   4.245
29052SOL    HW189053   9.486   1.291   4.289
29052SOL    HW289054   9.616   1.273   4.215
29053SOL     OW89055  14.792   2.587   2.592
29053SOL    HW189056  14.745   2.615   2.670
29053SOL    HW289057  14.802   2.667   2.540
29054SOL     OW89058  12.422   2.765   3.823
29054SOL    HW189059  12.483   2.816   3.876
29054SOL    HW289060  12.336   2.786   3.860
29055SOL     OW89061   0.562  13.469   4.953
29055SOL    HW189062   0.558  13.517   5.036
29055SOL    HW289063   0.483  13.497   4.905
29056SOL     OW89064  13.923  11.419  12.864
29056SOL    HW189065  13.948  11.456  12.779
29056SOL    HW289066  13.843  11.370  12.846
29057SOL     OW89067  12.396   1.994  13.756
29057SOL    HW189068  12.314   2.008  13.804
29057SOL    HW289069  12.464   1.998  13.823
29058SOL     OW89070   6.841   6.728  11.369
29058SOL    HW189071   6.781   6.738  11.295
29058SOL    HW289072   6.848   6.816  11.407
29059SOL     OW89073   5.852   8.770  10.597
29059SOL    HW189074   5.881   8.797  10.509
29059SOL    HW289075   5.900   8.689  10.613
29060SOL     OW89076  13.889   9.308   4.235
29060SOL    HW189077  13.952   9.236   4.227
29060SOL    HW289078  13.804   9.267   4.223
29061SOL     OW89079   1.236   2.457   9.451
29061SOL    HW189080   1.235   2.363   9.432
29061SOL    HW289081   1.151   2.488   9.420
29062SOL     OW89082   3.700   8.548   0.730
29062SOL    HW189083   3.726   8.637   0.709
29062SOL    HW289084   3.607   8.555   0.754
29063SOL     OW89085   1.882   2.616  10.223
29063SOL    HW189086   1.798   2.574  10.243
29063SOL    HW289087   1.940   2.544  10.198
29064SOL     OW89088  11.142   3.952   2.683
29064SOL    HW189089  11.201   3.906   2.742
29064SOL    HW289090  11.128   4.037   2.724
29065SOL     OW89091   3.890   7.072   2.931
29065SOL    HW189092   3.935   7.038   3.008
29065SOL    HW289093   3.928   7.158   2.917
29066SOL     OW89094   8.952  10.283   8.543
29066SOL    HW189095   8.972  10.348   8.610
29066SOL    HW289096   9.027  10.223   8.544
29067SOL     OW89097  11.664   2.503  11.483
29067SOL    HW189098  11.587   2.472  11.530
29067SOL    HW289099  11.665   2.598  11.499
29068SOL     OW89100   4.989   3.438  10.028
29068SOL    HW189101   4.953   3.402   9.947
29068SOL    HW289102   5.074   3.473  10.003
29069SOL     OW89103  11.841   1.598  12.118
29069SOL    HW189104  11.879   1.663  12.178
29069SOL    HW289105  11.903   1.594  12.045
29070SOL     OW89106  12.384   4.959  12.511
29070SOL    HW189107  12.434   5.033  12.475
29070SOL    HW289108  12.354   4.991  12.596
29071SOL     OW89109   2.683   3.472   0.031
29071SOL    HW189110   2.591   3.458   0.011
29071SOL    HW289111   2.730   3.430  14.831
29072SOL     OW89112   5.602   2.389   6.171
29072SOL    HW189113   5.661   2.424   6.104
29072SOL    HW289114   5.645   2.408   6.254
29073SOL     OW89115   6.281   3.784   2.036
29073SOL    HW189116   6.334   3.772   2.115
29073SOL    HW289117   6.341   3.764   1.964
29074SOL     OW89118  10.538   8.771   9.185
29074SOL    HW189119  10.624   8.741   9.157
29074SOL    HW289120  10.478   8.702   9.157
29075SOL     OW89121  11.517   4.957   7.650
29075SOL    HW189122  11.541   4.865   7.644
29075SOL    HW289123  11.596   5.004   7.625
29076SOL     OW89124  11.060  11.178   8.763
29076SOL    HW189125  11.015  11.246   8.814
29076SOL    HW289126  11.146  11.171   8.805
29077SOL     OW89127  13.233  12.216   5.744
29077SOL    HW189128  13.145  12.179   5.740
29077SOL    HW289129  13.284  12.161   5.684
29078SOL     OW89130   1.144   3.341   0.306
29078SOL    HW189131   1.134   3.289   0.386
29078SOL    HW289132   1.062   3.391   0.300
29079SOL     OW89133   9.546   7.845  12.576
29079SOL    HW189134   9.632   7.846  12.616
29079SOL    HW289135   9.491   7.896  12.635
29080SOL     OW89136  14.768   0.968   3.613
29080SOL    HW189137  14.728   0.993   3.697
29080SOL    HW289138  14.860   0.950   3.634
29081SOL     OW89139  14.125  13.736  11.695
29081SOL    HW189140  14.188  13.717  11.765
29081SOL    HW289141  14.039  13.728  11.738
29082SOL     OW89142   2.890   6.447   1.238
29082SOL    HW189143   2.956   6.514   1.253
29082SOL    HW289144   2.930   6.387   1.176
29083SOL     OW89145   8.043   0.838  12.477
29083SOL    HW189146   8.112   0.885  12.525
29083SOL    HW289147   8.028   0.760  12.529
29084SOL     OW89148   9.273  10.996   6.048
29084SOL    HW189149   9.269  10.946   6.130
29084SOL    HW289150   9.214  10.949   5.989
29085SOL     OW89151   0.503  11.031   8.322
29085SOL    HW189152   0.538  11.049   8.409
29085SOL    HW289153   0.477  11.117   8.288
29086SOL     OW89154  12.518   7.605   9.054
29086SOL    HW189155  12.429   7.570   9.062
29086SOL    HW289156  12.571   7.529   9.028
29087SOL     OW89157  10.849  11.325   1.045
29087SOL    HW189158  10.928  11.349   1.094
29087SOL    HW289159  10.780  11.380   1.082
29088SOL     OW89160  10.527   3.879   7.694
29088SOL    HW189161  10.519   3.956   7.638
29088SOL    HW289162  10.622   3.865   7.702
29089SOL     OW89163   7.926   9.078  14.400
29089SOL    HW189164   7.847   9.113  14.441
29089SOL    HW289165   7.929   8.987  14.428
29090SOL     OW89166   4.692   0.954   4.281
29090SOL    HW189167   4.663   0.985   4.195
29090SOL    HW289168   4.614   0.961   4.336
29091SOL     OW89169   4.654  14.587   1.456
29091SOL    HW189170   4.661  14.559   1.364
29091SOL    HW289171   4.596  14.662   1.454
29092SOL     OW89172  13.059   3.735   8.316
29092SOL    HW189173  13.089   3.805   8.259
29092SOL    HW289174  12.973   3.711   8.282
29093SOL     OW89175   6.541   1.970   1.203
29093SOL    HW189176   6.482   1.970   1.279
29093SOL    HW289177   6.581   2.057   1.204
29094SOL     OW89178  14.399   3.303   6.466
29094SOL    HW189179  14.318   3.256   6.444
29094SOL    HW289180  14.455   3.290   6.389
29095SOL     OW89181   3.094   3.570  13.460
29095SOL    HW189182   3.099   3.609  13.373
29095SOL    HW289183   3.048   3.487  13.447
29096SOL     OW89184  11.853   6.803  14.322
29096SOL    HW189185  11.872   6.753  14.401
29096SOL    HW289186  11.804   6.879  14.353
29097SOL     OW89187   7.995   5.563   7.818
29097SOL    HW189188   7.996   5.645   7.866
29097SOL    HW289189   7.923   5.513   7.856
29098SOL     OW89190   3.475  10.322   6.714
29098SOL    HW189191   3.466  10.289   6.804
29098SOL    HW289192   3.569  10.320   6.697
29099SOL     OW89193   9.083  13.832  10.112
29099SOL    HW189194   9.147  13.838  10.041
29099SOL    HW289195   9.071  13.923  10.140
29100SOL     OW89196   8.385   0.984  14.547
29100SOL    HW189197   8.395   1.020  14.635
29100SOL    HW289198   8.295   1.005  14.523
29101SOL     OW89199   8.879   6.909   7.070
29101SOL    HW189200   8.842   6.970   7.007
29101SOL    HW289201   8.968   6.893   7.038
29102SOL     OW89202  11.835   1.222   9.261
29102SOL    HW189203  11.889   1.275   9.203
29102SOL    HW289204  11.854   1.255   9.349
29103SOL     OW89205   9.815   9.019   7.741
29103SOL    HW189206   9.763   9.034   7.820
29103SOL    HW289207   9.801   9.097   7.688
29104SOL     OW89208   0.194  10.606   1.134
29104SOL    HW189209   0.128  10.674   1.129
29104SOL    HW289210   0.144  10.525   1.148
29105SOL     OW89211   4.550  13.224   5.208
29105SOL    HW189212   4.645  13.208   5.204
29105SOL    HW289213   4.519  13.163   5.274
29106SOL     OW89214   9.670   1.104  11.928
29106SOL    HW189215   9.726   1.108  11.850
29106SOL    HW289216   9.731   1.088  12.000
29107SOL     OW89217   8.927   0.917  12.422
29107SOL    HW189218   8.893   0.979  12.357
29107SOL    HW289219   8.980   0.970  12.480
29108SOL     OW89220   9.747   9.642  11.701
29108SOL    HW189221   9.759   9.624  11.608
29108SOL    HW289222   9.766   9.559  11.744
29109SOL     OW89223   9.931  12.955  10.744
29109SOL    HW189224   9.846  12.912  10.745
29109SOL    HW289225   9.945  12.979  10.652
29110SOL     OW89226  13.476   3.795  13.488
29110SOL    HW189227  13.535   3.837  13.551
29110SOL    HW289228  13.494   3.701  13.497
29111SOL     OW89229  13.149   4.245   5.881
29111SOL    HW189230  13.077   4.194   5.844
29111SOL    HW289231  13.153   4.323   5.825
29112SOL     OW89232  10.487  13.653   3.729
29112SOL    HW189233  10.473  13.587   3.661
29112SOL    HW289234  10.407  13.651   3.781
29113SOL     OW89235  11.962   0.623  13.719
29113SOL    HW189236  12.007   0.557  13.667
29113SOL    HW289237  12.025   0.648  13.786
29114SOL     OW89238   5.444  14.867  13.724
29114SOL    HW189239   5.379   0.041  13.672
29114SOL    HW289240   5.397  14.839  13.803
29115SOL     OW89241   4.550   9.990   0.096
29115SOL    HW189242   4.540  10.058   0.029
29115SOL    HW289243   4.512   9.912   0.056
29116SOL     OW89244   0.927   9.102   2.703
29116SOL    HW189245   0.975   9.171   2.656
29116SOL    HW289246   0.879   9.056   2.634
29117SOL     OW89247   7.389   1.389   1.899
29117SOL    HW189248   7.442   1.336   1.958
29117SOL    HW289249   7.300   1.380   1.933
29118SOL     OW89250  12.721   8.947   3.450
29118SOL    HW189251  12.673   9.004   3.510
29118SOL    HW289252  12.654   8.891   3.411
29119SOL     OW89253   8.156   2.110   3.076
29119SOL    HW189254   8.196   2.039   3.027
29119SOL    HW289255   8.188   2.098   3.165
29120SOL     OW89256   7.396   5.344   6.145
29120SOL    HW189257   7.412   5.262   6.097
29120SOL    HW289258   7.424   5.413   6.084
29121SOL     OW89259   4.110   3.361   2.150
29121SOL    HW189260   4.055   3.405   2.087
29121SOL    HW289261   4.109   3.269   2.123
29122SOL     OW89262  10.087  10.801  12.284
29122SOL    HW189263  10.119  10.724  12.331
29122SOL    HW289264  10.076  10.867  12.351
29123SOL     OW89265   8.270   1.819   0.307
29123SOL    HW189266   8.217   1.792   0.231
29123SOL    HW289267   8.241   1.762   0.378
29124SOL     OW89268  11.588   8.692   1.048
29124SOL    HW189269  11.589   8.746   0.969
29124SOL    HW289270  11.520   8.627   1.033
29125SOL     OW89271  11.927  13.584   9.975
29125SOL    HW189272  11.960  13.522   9.910
29125SOL    HW289273  11.963  13.669   9.948
29126SOL     OW89274   5.294   1.343   6.748
29126SOL    HW189275   5.325   1.373   6.663
29126SOL    HW289276   5.205   1.311   6.732
29127SOL     OW89277   1.421  11.608   0.759
29127SOL    HW189278   1.358  11.625   0.689
29127SOL    HW289279   1.421  11.513   0.768
29128SOL     OW89280   6.094  13.356  12.680
29128SOL    HW189281   6.172  13.304  12.698
29128SOL    HW289282   6.074  13.399  12.763
29129SOL     OW89283   3.813   9.786  13.041
29129SOL    HW189284   3.900   9.825  13.043
29129SOL    HW289285   3.822   9.712  12.980
29130SOL     OW89286  12.722   4.115   2.968
29130SOL    HW189287  12.750   4.072   3.049
29130SOL    HW289288  12.695   4.202   2.996
29131SOL     OW89289   9.654   4.075  12.201
29131SOL    HW189290   9.733   4.027  12.227
29131SOL    HW289291   9.686   4.162  12.176
29132SOL     OW89292   9.633  10.157   3.999
29132SOL    HW189293   9.616  10.141   4.092
29132SOL    HW289294   9.684  10.238   3.997
29133SOL     OW89295   9.020  14.502   0.855
29133SOL    HW189296   9.012  14.595   0.833
29133SOL    HW289297   9.066  14.463   0.780
29134SOL     OW89298  10.739   6.225  14.304
29134SOL    HW189299  10.734   6.216  14.399
29134SOL    HW289300  10.695   6.308  14.285
29135SOL     OW89301  14.812   6.411   6.656
29135SOL    HW189302  14.749   6.424   6.585
29135SOL    HW289303   0.017   6.374   6.613
29136SOL     OW89304   7.458   9.253   8.562
29136SOL    HW189305   7.404   9.287   8.633
29136SOL    HW289306   7.537   9.221   8.605
29137SOL     OW89307  10.720   7.433  14.208
29137SOL    HW189308  10.765   7.366  14.155
29137SOL    HW289309  10.741   7.515  14.164
29138SOL     OW89310   7.902   8.872   0.637
29138SOL    HW189311   7.998   8.874   0.640
29138SOL    HW289312   7.876   8.878   0.729
29139SOL     OW89313   4.420  11.949  12.197
29139SOL    HW189314   4.461  12.035  12.207
29139SOL    HW289315   4.331  11.961  12.228
29140SOL     OW89316  14.014  13.754   1.064
29140SOL    HW189317  14.065  13.686   1.107
29140SOL    HW289318  14.050  13.758   0.975
29141SOL     OW89319   2.405  10.887   1.538
29141SOL    HW189320   2.349  10.836   1.595
29141SOL    HW289321   2.469  10.824   1.505
29142SOL     OW89322   0.666   0.419   0.930
29142SOL    HW189323   0.725   0.354   0.969
29142SOL    HW289324   0.622   0.371   0.859
29143SOL     OW89325   8.726  10.554   9.372
29143SOL    HW189326   8.785  10.526   9.442
29143SOL    HW289327   8.694  10.473   9.334
29144SOL     OW89328   5.536  10.916   6.460
29144SOL    HW189329   5.537  10.860   6.538
29144SOL    HW289330   5.454  10.894   6.416
29145SOL     OW89331   4.839   3.032   9.909
29145SOL    HW189332   4.900   3.038   9.982
29145SOL    HW289333   4.807   2.941   9.913
29146SOL     OW89334  10.072   5.053  10.726
29146SOL    HW189335  10.167   5.039  10.734
29146SOL    HW289336  10.041   5.058  10.817
29147SOL     OW89337  13.369   6.885  12.200
29147SOL    HW189338  13.445   6.836  12.168
29147SOL    HW289339  13.343   6.839  12.280
29148SOL     OW89340   1.669  10.375   1.777
29148SOL    HW189341   1.747  10.342   1.821
29148SOL    HW289342   1.647  10.456   1.824
29149SOL     OW89343   3.639  12.801   0.549
29149SOL    HW189344   3.563  12.845   0.512
29149SOL    HW289345   3.603  12.740   0.613
29150SOL     OW89346   2.950   1.936   0.269
29150SOL    HW189347   2.932   1.923   0.363
29150SOL    HW289348   2.877   1.990   0.238
29151SOL     OW89349  10.939   2.540   3.186
29151SOL    HW189350  10.997   2.584   3.248
29151SOL    HW289351  10.872   2.499   3.241
29152SOL     OW89352   5.802   9.952   3.835
29152SOL    HW189353   5.778   9.882   3.774
29152SOL    HW289354   5.876   9.995   3.794
29153SOL     OW89355   9.339   1.447  12.998
29153SOL    HW189356   9.380   1.405  12.923
29153SOL    HW289357   9.373   1.537  12.997
29154SOL     OW89358   5.798   3.813   2.676
29154SOL    HW189359   5.879   3.863   2.688
29154SOL    HW289360   5.823   3.739   2.622
29155SOL     OW89361   8.900  13.146   5.890
29155SOL    HW189362   8.948  13.078   5.842
29155SOL    HW289363   8.808  13.124   5.877
29156SOL     OW89364  11.793   9.573   9.606
29156SOL    HW189365  11.730   9.609   9.669
29156SOL    HW289366  11.869   9.548   9.660
29157SOL     OW89367   7.436   2.040  12.132
29157SOL    HW189368   7.449   2.109  12.196
29157SOL    HW289369   7.343   2.045  12.108
29158SOL     OW89370   7.068   6.390  13.061
29158SOL    HW189371   7.069   6.472  13.110
29158SOL    HW289372   6.986   6.391  13.011
29159SOL     OW89373  11.057   7.596  11.709
29159SOL    HW189374  11.023   7.652  11.639
29159SOL    HW289375  11.152   7.603  11.702
29160SOL     OW89376   3.614   6.215   9.986
29160SOL    HW189377   3.703   6.232   9.954
29160SOL    HW289378   3.626   6.159  10.062
29161SOL     OW89379   7.764   8.801  10.299
29161SOL    HW189380   7.733   8.802  10.390
29161SOL    HW289381   7.704   8.859  10.253
29162SOL     OW89382   6.688  13.486   0.079
29162SOL    HW189383   6.638  13.554   0.123
29162SOL    HW289384   6.776  13.493   0.117
29163SOL     OW89385   5.164  14.296   8.117
29163SOL    HW189386   5.112  14.367   8.080
29163SOL    HW289387   5.124  14.279   8.202
29164SOL     OW89388  11.486   6.880   9.735
29164SOL    HW189389  11.441   6.796   9.741
29164SOL    HW289390  11.458   6.917   9.652
29165SOL     OW89391  12.894   3.024   5.002
29165SOL    HW189392  12.804   3.020   5.036
29165SOL    HW289393  12.902   2.947   4.946
29166SOL     OW89394   5.364  11.587   3.721
29166SOL    HW189395   5.343  11.504   3.678
29166SOL    HW289396   5.384  11.564   3.811
29167SOL     OW89397   0.041   6.987   7.831
29167SOL    HW189398  14.836   6.955   7.877
29167SOL    HW289399   0.115   6.949   7.879
29168SOL     OW89400   8.836  12.784   4.335
29168SOL    HW189401   8.803  12.698   4.363
29168SOL    HW289402   8.793  12.799   4.251
29169SOL     OW89403   0.708  13.738   2.592
29169SOL    HW189404   0.796  13.751   2.626
29169SOL    HW289405   0.719  13.721   2.499
29170SOL     OW89406   0.170   1.769   2.070
29170SOL    HW189407   0.128   1.815   2.142
29170SOL    HW289408   0.248   1.820   2.051
29171SOL     OW89409   6.409   3.484   8.994
29171SOL    HW189410   6.386   3.401   9.036
29171SOL    HW289411   6.503   3.478   8.978
29172SOL     OW89412   1.223  10.712  14.038
29172SOL    HW189413   1.176  10.698  13.956
29172SOL    HW289414   1.275  10.632  14.049
29173SOL     OW89415  12.780   4.655   0.809
29173SOL    HW189416  12.700   4.653   0.861
29173SOL    HW289417  12.772   4.733   0.755
29174SOL     OW89418   0.448   8.194   4.596
29174SOL    HW189419   0.458   8.253   4.521
29174SOL    HW289420   0.416   8.112   4.558
29175SOL     OW89421  14.507  11.433  10.588
29175SOL    HW189422  14.442  11.363  10.581
29175SOL    HW289423  14.591  11.389  10.572
29176SOL     OW89424   3.598  10.420   2.795
29176SOL    HW189425   3.515  10.394   2.757
29176SOL    HW289426   3.662  10.360   2.756
29177SOL     OW89427   3.865   6.443  12.432
29177SOL    HW189428   3.910   6.508  12.379
29177SOL    HW289429   3.902   6.453  12.519
29178SOL     OW89430  11.909  11.174   4.792
29178SOL    HW189431  11.860  11.248   4.756
29178SOL    HW289432  11.856  11.145   4.867
29179SOL     OW89433   3.405   5.205   3.254
29179SOL    HW189434   3.486   5.205   3.304
29179SOL    HW289435   3.346   5.261   3.304
29180SOL     OW89436   1.264   2.861   5.100
29180SOL    HW189437   1.228   2.778   5.131
29180SOL    HW289438   1.339   2.879   5.157
29181SOL     OW89439   9.322  10.125   7.267
29181SOL    HW189440   9.283  10.212   7.256
29181SOL    HW289441   9.390  10.120   7.199
29182SOL     OW89442  13.918   1.431   5.457
29182SOL    HW189443  13.988   1.442   5.521
29182SOL    HW289444  13.935   1.498   5.391
29183SOL     OW89445   5.586  11.984  13.628
29183SOL    HW189446   5.568  12.070  13.590
29183SOL    HW289447   5.524  11.975  13.700
29184SOL     OW89448   2.909   9.791   5.470
29184SOL    HW189449   2.981   9.759   5.415
29184SOL    HW289450   2.948   9.861   5.521
29185SOL     OW89451   1.775   4.744   2.640
29185SOL    HW189452   1.692   4.697   2.646
29185SOL    HW289453   1.775   4.782   2.552
29186SOL     OW89454   6.153   2.566   0.795
29186SOL    HW189455   6.094   2.640   0.808
29186SOL    HW289456   6.228   2.584   0.852
29187SOL     OW89457  10.690   6.600  13.891
29187SOL    HW189458  10.652   6.648  13.817
29187SOL    HW289459  10.716   6.667  13.953
29188SOL     OW89460   9.907  11.400  10.970
29188SOL    HW189461   9.868  11.485  10.950
29188SOL    HW289462   9.842  11.357  11.026
29189SOL     OW89463   2.546   2.294   1.288
29189SOL    HW189464   2.639   2.273   1.278
29189SOL    HW289465   2.502   2.209   1.277
29190SOL     OW89466   5.961   2.101   3.304
29190SOL    HW189467   5.875   2.082   3.341
29190SOL    HW289468   6.012   2.022   3.319
29191SOL     OW89469   8.824  10.965   4.167
29191SOL    HW189470   8.867  11.031   4.221
29191SOL    HW289471   8.762  11.014   4.113
29192SOL     OW89472  14.764   2.931   2.082
29192SOL    HW189473  14.717   3.001   2.037
29192SOL    HW289474  14.700   2.895   2.143
29193SOL     OW89475  10.419   5.217   7.227
29193SOL    HW189476  10.351   5.157   7.198
29193SOL    HW289477  10.372   5.295   7.255
29194SOL     OW89478   0.428   4.864  10.067
29194SOL    HW189479   0.346   4.833  10.105
29194SOL    HW289480   0.442   4.950  10.107
29195SOL     OW89481   3.768   2.273  11.702
29195SOL    HW189482   3.707   2.308  11.767
29195SOL    HW289483   3.835   2.341  11.693
29196SOL     OW89484   8.051   3.157   1.363
29196SOL    HW189485   8.144   3.178   1.373
29196SOL    HW289486   8.007   3.242   1.360
29197SOL     OW89487   7.248   0.317  14.454
29197SOL    HW189488   7.223   0.306  14.546
29197SOL    HW289489   7.319   0.255  14.441
29198SOL     OW89490   7.708  10.846   0.169
29198SOL    HW189491   7.638  10.903   0.202
29198SOL    HW289492   7.665  10.762   0.154
29199SOL     OW89493   0.201  13.591   4.693
29199SOL    HW189494   0.172  13.505   4.725
29199SOL    HW289495   0.200  13.583   4.598
29200SOL     OW89496  14.353   8.501  10.438
29200SOL    HW189497  14.375   8.590  10.467
29200SOL    HW289498  14.430   8.473  10.389
29201SOL     OW89499   6.747   9.738   4.775
29201SOL    HW189500   6.837   9.712   4.755
29201SOL    HW289501   6.712   9.664   4.826
29202SOL     OW89502   6.578  13.315   6.759
29202SOL    HW189503   6.534  13.379   6.815
29202SOL    HW289504   6.614  13.250   6.820
29203SOL     OW89505   4.360   0.779   5.408
29203SOL    HW189506   4.266   0.773   5.390
29203SOL    HW289507   4.386   0.864   5.374
29204SOL     OW89508   1.505  12.048  14.234
29204SOL    HW189509   1.453  12.058  14.314
29204SOL    HW289510   1.596  12.045  14.264
29205SOL     OW89511   3.111   7.953   0.064
29205SOL    HW189512   3.147   7.974  14.850
29205SOL    HW289513   3.164   7.880   0.095
29206SOL     OW89514  11.612  12.192   1.033
29206SOL    HW189515  11.681  12.154   1.087
29206SOL    HW289516  11.651  12.201   0.947
29207SOL     OW89517  14.777  12.760  11.015
29207SOL    HW189518  14.808  12.671  11.030
29207SOL    HW289519  14.682  12.753  11.018
29208SOL     OW89520  10.853   8.997   8.720
29208SOL    HW189521  10.833   9.091   8.727
29208SOL    HW289522  10.825   8.961   8.804
29209SOL     OW89523   4.978   8.434   1.652
29209SOL    HW189524   4.910   8.499   1.634
29209SOL    HW289525   4.955   8.359   1.596
29210SOL     OW89526  12.158  13.491   2.717
29210SOL    HW189527  12.064  13.479   2.730
29210SOL    HW289528  12.196  13.478   2.804
29211SOL     OW89529   0.649   8.166  11.941
29211SOL    HW189530   0.715   8.177  12.010
29211SOL    HW289531   0.572   8.212  11.975
29212SOL     OW89532   1.734   1.476  10.727
29212SOL    HW189533   1.789   1.484  10.805
29212SOL    HW289534   1.783   1.419  10.669
29213SOL     OW89535   9.160   3.395   8.378
29213SOL    HW189536   9.083   3.452   8.367
29213SOL    HW289537   9.138   3.338   8.451
29214SOL     OW89538   6.661   8.025   2.554
29214SOL    HW189539   6.600   8.099   2.554
29214SOL    HW289540   6.610   7.952   2.518
29215SOL     OW89541  11.921  11.451   9.270
29215SOL    HW189542  11.871  11.448   9.351
29215SOL    HW289543  11.867  11.404   9.206
29216SOL     OW89544   7.355  11.541   4.249
29216SOL    HW189545   7.274  11.490   4.249
29216SOL    HW289546   7.413  11.495   4.189
29217SOL     OW89547  11.117   1.754   3.500
29217SOL    HW189548  11.073   1.684   3.451
29217SOL    HW289549  11.178   1.708   3.558
29218SOL     OW89550   3.077  11.778   6.550
29218SOL    HW189551   3.161  11.796   6.593
29218SOL    HW289552   3.030  11.722   6.611
29219SOL     OW89553   9.382   1.434   7.374
29219SOL    HW189554   9.459   1.419   7.429
29219SOL    HW289555   9.399   1.517   7.330
29220SOL     OW89556   5.939   5.646  13.235
29220SOL    HW189557   5.861   5.686  13.196
29220SOL    HW289558   5.969   5.710  13.300
29221SOL     OW89559   5.850  14.681  13.220
29221SOL    HW189560   5.761  14.646  13.216
29221SOL    HW289561   5.853  14.727  13.304
29222SOL     OW89562  11.549   5.753   6.866
29222SOL    HW189563  11.513   5.831   6.824
29222SOL    HW289564  11.530   5.765   6.959
29223SOL     OW89565   5.401  12.587  12.268
29223SOL    HW189566   5.445  12.502  12.260
29223SOL    HW289567   5.469  12.646  12.302
29224SOL     OW89568  13.803   8.483  14.210
29224SOL    HW189569  13.832   8.573  14.199
29224SOL    HW289570  13.844   8.435  14.139
29225SOL     OW89571  14.611   1.627  13.458
29225SOL    HW189572  14.587   1.541  13.492
29225SOL    HW289573  14.667   1.608  13.383
29226SOL     OW89574  10.191   1.720  12.875
29226SOL    HW189575  10.172   1.788  12.940
29226SOL    HW289576  10.115   1.662  12.879
29227SOL     OW89577   8.408  11.010  11.065
29227SOL    HW189578   8.423  10.938  11.126
29227SOL    HW289579   8.446  11.087  11.107
29228SOL     OW89580  11.740   1.092  11.809
29228SOL    HW189581  11.831   1.085  11.837
29228SOL    HW289582  11.689   1.068  11.887
29229SOL     OW89583  13.698   2.854   5.140
29229SOL    HW189584  13.686   2.882   5.049
29229SOL    HW289585  13.672   2.762   5.140
29230SOL     OW89586  13.183   8.398  12.439
29230SOL    HW189587  13.188   8.396  12.344
29230SOL    HW289588  13.178   8.492  12.460
29231SOL     OW89589  11.806   4.427  14.181
29231SOL    HW189590  11.780   4.360  14.244
29231SOL    HW289591  11.816   4.506  14.233
29232SOL     OW89592  13.133  11.907  12.053
29232SOL    HW189593  13.160  11.836  12.112
29232SOL    HW289594  13.091  11.971  12.110
29233SOL     OW89595   6.444  14.516  12.356
29233SOL    HW189596   6.444  14.597  12.408
29233SOL    HW289597   6.473  14.543  12.269
29234SOL     OW89598  14.812   1.685   6.802
29234SOL    HW189599   0.013   1.630   6.773
29234SOL    HW289600  14.750   1.684   6.729
29235SOL     OW89601  14.594  14.530  12.113
29235SOL    HW189602  14.663  14.595  12.104
29235SOL    HW289603  14.586  14.491  12.026
29236SOL     OW89604   6.233  13.439   3.573
29236SOL    HW189605   6.273  13.447   3.487
29236SOL    HW289606   6.141  13.420   3.555
29237SOL     OW89607  14.771   9.429   0.490
29237SOL    HW189608  14.838   9.362   0.504
29237SOL    HW289609  14.712   9.392   0.424
29238SOL     OW89610   5.367   8.924   9.363
29238SOL    HW189611   5.351   8.906   9.456
29238SOL    HW289612   5.334   9.012   9.349
29239SOL     OW89613  10.945  10.661  14.240
29239SOL    HW189614  10.915  10.698  14.322
29239SOL    HW289615  10.981  10.735  14.191
29240SOL     OW89616   4.940  11.120   0.447
29240SOL    HW189617   4.940  11.203   0.399
29240SOL    HW289618   4.849  11.091   0.445
29241SOL     OW89619   0.743  11.350   6.231
29241SOL    HW189620   0.697  11.274   6.196
29241SOL    HW289621   0.745  11.412   6.158
29242SOL     OW89622   6.110   1.105   2.767
29242SOL    HW189623   6.152   1.044   2.827
29242SOL    HW289624   6.037   1.056   2.729
29243SOL     OW89625   2.520   2.620   8.859
29243SOL    HW189626   2.488   2.677   8.929
29243SOL    HW289627   2.442   2.602   8.805
29244SOL     OW89628   4.189   4.292   4.970
29244SOL    HW189629   4.120   4.358   4.963
29244SOL    HW289630   4.165   4.239   5.046
29245SOL     OW89631   9.465   6.200  12.317
29245SOL    HW189632   9.396   6.254  12.280
29245SOL    HW289633   9.455   6.115  12.275
29246SOL     OW89634  12.031   5.871   1.043
29246SOL    HW189635  12.031   5.918   0.960
29246SOL    HW289636  12.093   5.799   1.030
29247SOL     OW89637   6.370   8.316  11.654
29247SOL    HW189638   6.458   8.294  11.625
29247SOL    HW289639   6.377   8.405  11.689
29248SOL     OW89640   4.754  10.958   1.658
29248SOL    HW189641   4.753  10.970   1.563
29248SOL    HW289642   4.710  11.035   1.692
29249SOL     OW89643   9.451   0.874   9.495
29249SOL    HW189644   9.390   0.841   9.562
29249SOL    HW289645   9.494   0.795   9.462
29250SOL     OW89646  13.153   6.399   8.673
29250SOL    HW189647  13.242   6.417   8.643
29250SOL    HW289648  13.153   6.304   8.690
29251SOL     OW89649  10.601   1.378   5.444
29251SOL    HW189650  10.675   1.393   5.502
29251SOL    HW289651  10.631   1.312   5.381
29252SOL     OW89652   5.809   5.003   4.149
29252SOL    HW189653   5.833   5.048   4.230
29252SOL    HW289654   5.725   5.042   4.124
29253SOL     OW89655   9.192   8.574   6.466
29253SOL    HW189656   9.284   8.590   6.490
29253SOL    HW289657   9.145   8.649   6.504
29254SOL     OW89658   7.073   3.391   9.728
29254SOL    HW189659   7.154   3.424   9.767
29254SOL    HW289660   7.062   3.304   9.766
29255SOL     OW89661   5.497  13.046   2.842
29255SOL    HW189662   5.484  13.135   2.810
29255SOL    HW289663   5.504  12.993   2.763
29256SOL     OW89664   5.845  12.125   1.505
29256SOL    HW189665   5.882  12.170   1.581
29256SOL    HW289666   5.801  12.048   1.542
29257SOL     OW89667  14.589  10.927   6.941
29257SOL    HW189668  14.537  11.007   6.946
29257SOL    HW289669  14.679  10.958   6.927
29258SOL     OW89670   1.836   5.221  12.547
29258SOL    HW189671   1.803   5.151  12.491
29258SOL    HW289672   1.772   5.291  12.538
29259SOL     OW89673  12.787   4.961   8.921
29259SOL    HW189674  12.781   4.896   8.991
29259SOL    HW289675  12.705   4.951   8.872
29260SOL     OW89676   9.422   2.597   7.129
29260SOL    HW189677   9.382   2.530   7.185
29260SOL    HW289678   9.374   2.590   7.046
29261SOL     OW89679  14.489  14.455   5.846
29261SOL    HW189680  14.430  14.424   5.777
29261SOL    HW289681  14.460  14.411   5.925
29262SOL     OW89682   1.991  14.483   0.472
29262SOL    HW189683   2.063  14.507   0.415
29262SOL    HW289684   2.007  14.391   0.494
29263SOL     OW89685   1.793   2.584  11.652
29263SOL    HW189686   1.828   2.604  11.738
29263SOL    HW289687   1.761   2.494  11.658
29264SOL     OW89688  14.120   2.561  10.301
29264SOL    HW189689  14.060   2.489  10.281
29264SOL    HW289690  14.173   2.571  10.223
29265SOL     OW89691   1.305   8.928  13.514
29265SOL    HW189692   1.385   8.904  13.561
29265SOL    HW289693   1.238   8.933  13.582
29266SOL     OW89694   2.885  13.448   6.998
29266SOL    HW189695   2.928  13.423   6.916
29266SOL    HW289696   2.888  13.368   7.052
29267SOL     OW89697  13.685   3.859  13.668
29267SOL    HW189698  13.689   3.785  13.729
29267SOL    HW289699  13.742   3.925  13.708
29268SOL     OW89700  12.668  12.927   9.737
29268SOL    HW189701  12.644  12.932   9.830
29268SOL    HW289702  12.593  12.886   9.695
29269SOL     OW89703   3.539  14.655   7.267
29269SOL    HW189704   3.630  14.662   7.239
29269SOL    HW289705   3.541  14.671   7.362
29270SOL     OW89706   7.417   7.955   9.324
29270SOL    HW189707   7.398   8.026   9.263
29270SOL    HW289708   7.360   7.884   9.297
29271SOL     OW89709   2.917  14.012   4.567
29271SOL    HW189710   2.872  14.001   4.483
29271SOL    HW289711   2.880  14.092   4.604
29272SOL     OW89712  14.295   3.013   1.932
29272SOL    HW189713  14.375   3.029   1.882
29272SOL    HW289714  14.319   3.035   2.022
29273SOL     OW89715   0.839  11.915   8.923
29273SOL    HW189716   0.790  11.942   8.845
29273SOL    HW289717   0.850  11.996   8.973
29274SOL     OW89718  12.097   1.968   2.446
29274SOL    HW189719  12.079   1.914   2.369
29274SOL    HW289720  12.013   1.976   2.490
29275SOL     OW89721  13.667   7.888  11.550
29275SOL    HW189722  13.607   7.957  11.579
29275SOL    HW289723  13.754   7.922  11.568
29276SOL     OW89724   9.279   4.299  12.652
29276SOL    HW189725   9.317   4.376  12.610
29276SOL    HW289726   9.207   4.273  12.594
29277SOL     OW89727   2.333   5.876   3.027
29277SOL    HW189728   2.285   5.881   3.109
29277SOL    HW289729   2.414   5.830   3.050
29278SOL     OW89730   5.471   9.162   4.939
29278SOL    HW189731   5.406   9.231   4.954
29278SOL    HW289732   5.425   9.081   4.961
29279SOL     OW89733   3.977   1.251   9.463
29279SOL    HW189734   3.904   1.283   9.410
29279SOL    HW289735   4.052   1.302   9.435
29280SOL     OW89736   0.889  10.501   1.782
29280SOL    HW189737   0.982  10.497   1.805
29280SOL    HW289738   0.868  10.414   1.749
29281SOL     OW89739   8.189  12.948  11.106
29281SOL    HW189740   8.214  12.981  11.192
29281SOL    HW289741   8.144  13.021  11.064
29282SOL     OW89742   5.361   9.559   0.201
29282SOL    HW189743   5.318   9.616   0.138
29282SOL    HW289744   5.402   9.619   0.264
29283SOL     OW89745   2.491   8.377   1.260
29283SOL    HW189746   2.498   8.466   1.225
29283SOL    HW289747   2.398   8.356   1.254
29284SOL     OW89748   7.329  10.087   9.454
29284SOL    HW189749   7.295  10.051   9.372
29284SOL    HW289750   7.329  10.182   9.440
29285SOL     OW89751   2.386   9.187  10.536
29285SOL    HW189752   2.357   9.111  10.587
29285SOL    HW289753   2.403   9.254  10.602
29286SOL     OW89754   7.470   1.021  12.986
29286SOL    HW189755   7.493   0.993  13.075
29286SOL    HW289756   7.551   1.059  12.951
29287SOL     OW89757   4.709   9.217  14.038
29287SOL    HW189758   4.680   9.248  14.124
29287SOL    HW289759   4.630   9.215  13.985
29288SOL     OW89760   6.741  14.463  12.404
29288SOL    HW189761   6.693  14.535  12.362
29288SOL    HW289762   6.832  14.478  12.381
29289SOL     OW89763  13.195   5.835   9.819
29289SOL    HW189764  13.137   5.906   9.845
29289SOL    HW289765  13.189   5.833   9.723
29290SOL     OW89766  12.785   8.064   3.001
29290SOL    HW189767  12.715   8.007   3.033
29290SOL    HW289768  12.838   8.083   3.079
29291SOL     OW89769   0.611   8.507   2.240
29291SOL    HW189770   0.671   8.541   2.306
29291SOL    HW289771   0.581   8.584   2.192
29292SOL     OW89772  14.225   1.270  11.049
29292SOL    HW189773  14.185   1.301  11.130
29292SOL    HW289774  14.228   1.175  11.058
29293SOL     OW89775   2.012   8.132  11.807
29293SOL    HW189776   2.005   8.211  11.860
29293SOL    HW289777   2.088   8.085  11.843
29294SOL     OW89778  12.778  11.809   3.960
29294SOL    HW189779  12.838  11.737   3.978
29294SOL    HW289780  12.835  11.885   3.949
29295SOL     OW89781  14.833  12.628   2.617
29295SOL    HW189782  14.747  12.603   2.584
29295SOL    HW289783   0.019  12.619   2.541
29296SOL     OW89784   9.852   4.962   7.471
29296SOL    HW189785   9.779   5.022   7.462
29296SOL    HW289786   9.899   4.992   7.549
29297SOL     OW89787  11.021   4.859   3.432
29297SOL    HW189788  11.030   4.928   3.366
29297SOL    HW289789  11.019   4.906   3.515
29298SOL     OW89790   9.024   3.967   7.756
29298SOL    HW189791   9.074   4.048   7.751
29298SOL    HW289792   8.996   3.962   7.847
29299SOL     OW89793   6.196  13.711   1.411
29299SOL    HW189794   6.273  13.702   1.468
29299SOL    HW289795   6.232  13.708   1.322
29300SOL     OW89796   7.667   5.634   2.412
29300SOL    HW189797   7.692   5.658   2.501
29300SOL    HW289798   7.749   5.640   2.362
29301SOL     OW89799  14.076  12.893   7.646
29301SOL    HW189800  14.165  12.877   7.616
29301SOL    HW289801  14.085  12.949   7.722
29302SOL     OW89802  13.877  10.384  13.074
29302SOL    HW189803  13.931  10.387  12.995
29302SOL    HW289804  13.851  10.292  13.081
29303SOL     OW89805  12.683  10.408   4.954
29303SOL    HW189806  12.742  10.427   5.027
29303SOL    HW289807  12.737  10.361   4.891
29304SOL     OW89808   3.721   1.618   2.429
29304SOL    HW189809   3.723   1.553   2.499
29304SOL    HW289810   3.650   1.678   2.455
29305SOL     OW89811  10.564   5.932  13.979
29305SOL    HW189812  10.623   5.956  14.051
29305SOL    HW289813  10.594   5.986  13.906
29306SOL     OW89814  11.014  13.661   4.168
29306SOL    HW189815  11.043  13.749   4.195
29306SOL    HW289816  10.926  13.675   4.134
29307SOL     OW89817  11.320  11.081   2.804
29307SOL    HW189818  11.340  11.071   2.711
29307SOL    HW289819  11.238  11.034   2.818
29308SOL     OW89820   8.912   6.320  11.710
29308SOL    HW189821   9.004   6.297  11.723
29308SOL    HW289822   8.863   6.246  11.744
29309SOL     OW89823  11.488  13.115  10.329
29309SOL    HW189824  11.420  13.055  10.299
29309SOL    HW289825  11.568  13.082  10.288
29310SOL     OW89826   8.425   9.818   5.374
29310SOL    HW189827   8.426   9.909   5.405
29310SOL    HW289828   8.508   9.782   5.403
29311SOL     OW89829   9.281   1.561   1.638
29311SOL    HW189830   9.337   1.489   1.666
29311SOL    HW289831   9.225   1.579   1.713
29312SOL     OW89832   8.396   3.184   8.830
29312SOL    HW189833   8.369   3.144   8.747
29312SOL    HW289834   8.410   3.276   8.807
29313SOL     OW89835   4.537   4.995   1.603
29313SOL    HW189836   4.594   4.920   1.620
29313SOL    HW289837   4.505   4.981   1.513
29314SOL     OW89838   3.410   4.432  12.963
29314SOL    HW189839   3.343   4.498  12.948
29314SOL    HW289840   3.362   4.349  12.965
29315SOL     OW89841  10.945   5.310   4.330
29315SOL    HW189842  10.867   5.263   4.359
29315SOL    HW289843  10.961   5.376   4.398
29316SOL     OW89844  10.043   3.600  10.880
29316SOL    HW189845  10.012   3.669  10.938
29316SOL    HW289846  10.137   3.594  10.898
29317SOL     OW89847  11.444   6.431  10.234
29317SOL    HW189848  11.439   6.442  10.139
29317SOL    HW289849  11.528   6.469  10.258
29318SOL     OW89850   2.980  10.824  12.581
29318SOL    HW189851   2.990  10.916  12.602
29318SOL    HW289852   3.005  10.778  12.661
29319SOL     OW89853   2.123   0.275   3.891
29319SOL    HW189854   2.109   0.321   3.974
29319SOL    HW289855   2.061   0.314   3.831
29320SOL     OW89856   4.720   0.056   9.656
29320SOL    HW189857   4.780   0.107   9.601
29320SOL    HW289858   4.760  14.842   9.661
29321SOL     OW89859   7.961   4.843   1.021
29321SOL    HW189860   7.994   4.886   0.942
29321SOL    HW289861   7.899   4.906   1.058
29322SOL     OW89862   4.237   2.539  11.220
29322SOL    HW189863   4.183   2.500  11.152
29322SOL    HW289864   4.316   2.485  11.223
29323SOL     OW89865  11.738   2.423   8.108
29323SOL    HW189866  11.746   2.339   8.153
29323SOL    HW289867  11.744   2.488   8.178
29324SOL     OW89868  11.174   8.964   9.650
29324SOL    HW189869  11.240   8.966   9.719
29324SOL    HW289870  11.160   8.871   9.633
29325SOL     OW89871   4.128   3.397  13.032
29325SOL    HW189872   4.108   3.312  12.992
29325SOL    HW289873   4.101   3.387  13.124
29326SOL     OW89874   2.581  13.807   0.912
29326SOL    HW189875   2.591  13.855   0.994
29326SOL    HW289876   2.665  13.819   0.867
29327SOL     OW89877  10.748  10.079  11.636
29327SOL    HW189878  10.756  10.149  11.572
29327SOL    HW289879  10.674  10.026  11.605
29328SOL     OW89880   4.940   0.734  11.714
29328SOL    HW189881   4.883   0.681  11.769
29328SOL    HW289882   4.887   0.811  11.692
29329SOL     OW89883   1.729   7.281   7.045
29329SOL    HW189884   1.724   7.212   7.111
29329SOL    HW289885   1.823   7.295   7.031
29330SOL     OW89886   8.835   3.851   2.216
29330SOL    HW189887   8.826   3.946   2.227
29330SOL    HW289888   8.802   3.834   2.128
29331SOL     OW89889   4.627   6.223  14.668
29331SOL    HW189890   4.626   6.239  14.574
29331SOL    HW289891   4.673   6.140  14.678
29332SOL     OW89892  14.736   6.814   0.946
29332SOL    HW189893  14.666   6.749   0.945
29332SOL    HW289894  14.749   6.833   1.039
29333SOL     OW89895  13.599   5.858   1.973
29333SOL    HW189896  13.642   5.897   2.049
29333SOL    HW289897  13.655   5.882   1.899
29334SOL     OW89898   3.879  11.641  10.293
29334SOL    HW189899   3.943  11.600  10.353
29334SOL    HW289900   3.840  11.711  10.344
29335SOL     OW89901   4.275  14.842  13.579
29335SOL    HW189902   4.202  14.781  13.565
29335SOL    HW289903   4.275   0.026  13.501
29336SOL     OW89904  14.613   7.735   2.189
29336SOL    HW189905  14.682   7.692   2.239
29336SOL    HW289906  14.641   7.827   2.185
29337SOL     OW89907  10.503   9.363   0.542
29337SOL    HW189908  10.483   9.339   0.451
29337SOL    HW289909  10.590   9.403   0.537
29338SOL     OW89910   9.272  10.847  12.644
29338SOL    HW189911   9.185  10.839  12.683
29338SOL    HW289912   9.332  10.842  12.719
29339SOL     OW89913   7.832  13.838   1.249
29339SOL    HW189914   7.870  13.815   1.333
29339SOL    HW289915   7.743  13.869   1.270
29340SOL     OW89916   3.855  11.158  12.557
29340SOL    HW189917   3.940  11.198  12.539
29340SOL    HW289918   3.877  11.074  12.599
29341SOL     OW89919   5.934   4.277   1.661
29341SOL    HW189920   5.919   4.212   1.593
29341SOL    HW289921   5.897   4.238   1.740
29342SOL     OW89922  13.513  14.489  11.774
29342SOL    HW189923  13.535  14.582  11.776
29342SOL    HW289924  13.513  14.463  11.866
29343SOL     OW89925   9.638   1.366   3.648
29343SOL    HW189926   9.610   1.275   3.661
29343SOL    HW289927   9.734   1.362   3.651
29344SOL     OW89928   7.184   8.838   4.202
29344SOL    HW189929   7.139   8.869   4.281
29344SOL    HW289930   7.127   8.865   4.130
29345SOL     OW89931  12.112   4.468  13.102
29345SOL    HW189932  12.161   4.539  13.060
29345SOL    HW289933  12.022   4.499  13.104
29346SOL     OW89934   6.783  10.206   5.183
29346SOL    HW189935   6.803  10.147   5.110
29346SOL    HW289936   6.869  10.231   5.217
29347SOL     OW89937  14.709  13.154   5.105
29347SOL    HW189938  14.792  13.111   5.085
29347SOL    HW289939  14.645  13.106   5.052
29348SOL     OW89940   3.517  10.023   8.404
29348SOL    HW189941   3.505  10.081   8.479
29348SOL    HW289942   3.591  10.060   8.356
29349SOL     OW89943  13.920   8.786   2.898
29349SOL    HW189944  13.973   8.788   2.978
29349SOL    HW289945  13.984   8.791   2.828
29350SOL     OW89946  11.068  10.395   3.904
29350SOL    HW189947  11.035  10.384   3.815
29350SOL    HW289948  11.128  10.469   3.899
29351SOL     OW89949  11.533  14.145  11.259
29351SOL    HW189950  11.608  14.136  11.200
29351SOL    HW289951  11.457  14.152  11.201
29352SOL     OW89952  11.962   7.998   7.830
29352SOL    HW189953  12.057   8.000   7.825
29352SOL    HW289954  11.943   8.025   7.921
29353SOL     OW89955   4.220  11.701   7.421
29353SOL    HW189956   4.160  11.721   7.493
29353SOL    HW289957   4.169  11.716   7.342
29354SOL     OW89958   9.295   8.157   0.583
29354SOL    HW189959   9.324   8.105   0.658
29354SOL    HW289960   9.270   8.092   0.517
29355SOL     OW89961  14.708   7.664   8.888
29355SOL    HW189962  14.620   7.632   8.868
29355SOL    HW289963  14.764   7.589   8.871
29356SOL     OW89964  14.688  10.231  13.525
29356SOL    HW189965  14.656  10.316  13.555
29356SOL    HW289966  14.726  10.191  13.603
29357SOL     OW89967  13.505   5.154   4.902
29357SOL    HW189968  13.504   5.064   4.869
29357SOL    HW289969  13.516   5.208   4.823
29358SOL     OW89970   0.430   5.306   2.273
29358SOL    HW189971   0.526   5.305   2.274
29358SOL    HW289972   0.408   5.349   2.191
29359SOL     OW89973  13.132   9.639   3.121
29359SOL    HW189974  13.041   9.655   3.097
29359SOL    HW289975  13.129   9.566   3.183
29360SOL     OW89976   5.019   9.320   4.184
29360SOL    HW189977   5.053   9.235   4.154
29360SOL    HW289978   5.089   9.382   4.162
29361SOL     OW89979   3.476   5.732   8.936
29361SOL    HW189980   3.416   5.763   9.003
29361SOL    HW289981   3.560   5.724   8.981
29362SOL     OW89982   0.429   0.625   6.302
29362SOL    HW189983   0.339   0.594   6.315
29362SOL    HW289984   0.481   0.576   6.366
29363SOL     OW89985   8.795  12.866  11.906
29363SOL    HW189986   8.701  12.860  11.889
29363SOL    HW289987   8.802  12.902  11.994
29364SOL     OW89988  13.876   4.879  13.723
29364SOL    HW189989  13.931   4.951  13.753
29364SOL    HW289990  13.870   4.891  13.629
29365SOL     OW89991  13.142   6.657  14.232
29365SOL    HW189992  13.181   6.587  14.284
29365SOL    HW289993  13.103   6.611  14.157
29366SOL     OW89994  11.499   2.850   9.787
29366SOL    HW189995  11.478   2.860   9.694
29366SOL    HW289996  11.433   2.788   9.820
29367SOL     OW89997   7.236   9.897   9.267
29367SOL    HW189998   7.181   9.897   9.189
29367SOL    HW289999   7.237   9.805   9.296
29368SOL     OW90000   0.621   9.413   0.115
29368SOL    HW190001   0.692   9.353   0.093
29368SOL    HW290002   0.554   9.358   0.155
29369SOL     OW90003   6.302   1.136  12.202
29369SOL    HW190004   6.264   1.203  12.145
29369SOL    HW290005   6.379   1.178  12.240
29370SOL     OW90006   2.818  12.556   0.557
29370SOL    HW190007   2.836  12.615   0.630
29370SOL    HW290008   2.723  12.547   0.556
29371SOL     OW90009  12.040   0.036   1.643
29371SOL    HW190010  12.072   0.125   1.631
29371SOL    HW290011  12.110  14.853   1.608
29372SOL     OW90012   0.959   0.701   8.147
29372SOL    HW190013   0.991   0.790   8.155
29372SOL    HW290014   1.030   0.646   8.179
29373SOL     OW90015   2.602  10.554  11.260
29373SOL    HW190016   2.674  10.615  11.241
29373SOL    HW290017   2.545  10.560  11.183
29374SOL     OW90018   9.912   2.491   7.341
29374SOL    HW190019   9.967   2.557   7.299
29374SOL    HW290020   9.896   2.425   7.273
29375SOL     OW90021   1.424   0.268   1.109
29375SOL    HW190022   1.396   0.250   1.019
29375SOL    HW290023   1.419   0.363   1.117
29376SOL     OW90024  10.907  13.589  11.394
29376SOL    HW190025  10.910  13.651  11.467
29376SOL    HW290026  10.904  13.503  11.436
29377SOL     OW90027   6.214   7.173   5.779
29377SOL    HW190028   6.174   7.238   5.722
29377SOL    HW290029   6.255   7.110   5.719
29378SOL     OW90030   8.701  10.639   0.270
29378SOL    HW190031   8.758  10.709   0.301
29378SOL    HW290032   8.760  10.577   0.229
29379SOL     OW90033   4.307  11.069   8.963
29379SOL    HW190034   4.327  10.976   8.960
29379SOL    HW290035   4.381  11.109   9.009
29380SOL     OW90036  13.019  10.512   4.748
29380SOL    HW190037  13.013  10.575   4.820
29380SOL    HW290038  13.113  10.506   4.729
29381SOL     OW90039   1.482   1.253  11.689
29381SOL    HW190040   1.443   1.228  11.772
29381SOL    HW290041   1.560   1.197  11.681
29382SOL     OW90042  12.447   5.528  12.317
29382SOL    HW190043  12.409   5.475  12.387
29382SOL    HW290044  12.528   5.563  12.354
29383SOL     OW90045   8.652  14.367  10.363
29383SOL    HW190046   8.557  14.375  10.348
29383SOL    HW290047   8.691  14.394  10.280
29384SOL     OW90048   5.667   6.373  14.080
29384SOL    HW190049   5.636   6.420  14.157
29384SOL    HW290050   5.705   6.441  14.024
29385SOL     OW90051  11.198   7.939  13.730
29385SOL    HW190052  11.157   8.010  13.779
29385SOL    HW290053  11.265   7.904  13.789
29386SOL     OW90054  12.904   7.465  11.667
29386SOL    HW190055  12.827   7.467  11.723
29386SOL    HW290056  12.953   7.388  11.696
29387SOL     OW90057   8.428  11.732   4.900
29387SOL    HW190058   8.451  11.743   4.808
29387SOL    HW290059   8.426  11.821   4.935
29388SOL     OW90060   2.627   8.014  11.484
29388SOL    HW190061   2.716   8.041  11.505
29388SOL    HW290062   2.572   8.062  11.546
29389SOL     OW90063   8.742   1.633  10.837
29389SOL    HW190064   8.754   1.565  10.903
29389SOL    HW290065   8.684   1.594  10.772
29390SOL     OW90066  11.855   9.376  13.164
29390SOL    HW190067  11.927   9.429  13.198
29390SOL    HW290068  11.851   9.301  13.224
29391SOL     OW90069   8.415   4.851  14.518
29391SOL    HW190070   8.340   4.838  14.577
29391SOL    HW290071   8.382   4.829  14.431
29392SOL     OW90072   0.431   9.543  11.444
29392SOL    HW190073   0.464   9.628  11.415
29392SOL    HW290074   0.439   9.487  11.367
29393SOL     OW90075  14.607   1.345   1.719
29393SOL    HW190076  14.610   1.357   1.624
29393SOL    HW290077  14.549   1.269   1.731
29394SOL     OW90078   4.023   1.207   1.804
29394SOL    HW190079   3.962   1.143   1.766
29394SOL    HW290080   4.030   1.181   1.896
29395SOL     OW90081  14.137   4.053  14.338
29395SOL    HW190082  14.048   4.086  14.326
29395SOL    HW290083  14.181   4.070  14.255
29396SOL     OW90084   5.801   4.755  12.211
29396SOL    HW190085   5.861   4.825  12.184
29396SOL    HW290086   5.771   4.782  12.297
29397SOL     OW90087   7.844   8.164   0.496
29397SOL    HW190088   7.884   8.177   0.582
29397SOL    HW290089   7.828   8.252   0.464
29398SOL     OW90090  12.848  14.230  12.312
29398SOL    HW190091  12.804  14.165  12.258
29398SOL    HW290092  12.789  14.305  12.314
29399SOL     OW90093   3.478   4.992   8.683
29399SOL    HW190094   3.451   4.933   8.613
29399SOL    HW290095   3.400   5.045   8.700
29400SOL     OW90096   1.116  10.076   0.436
29400SOL    HW190097   1.037  10.115   0.473
29400SOL    HW290098   1.109  10.092   0.342
29401SOL     OW90099   0.477   0.519   9.506
29401SOL    HW190100   0.385   0.499   9.494
29401SOL    HW290101   0.484   0.613   9.492
29402SOL     OW90102   3.013  10.356   5.560
29402SOL    HW190103   2.940  10.354   5.623
29402SOL    HW290104   2.975  10.392   5.480
29403SOL     OW90105  12.187   3.680   8.816
29403SOL    HW190106  12.164   3.681   8.909
29403SOL    HW290107  12.260   3.742   8.809
29404SOL     OW90108   7.955   0.110   8.638
29404SOL    HW190109   8.041   0.104   8.596
29404SOL    HW290110   7.919   0.021   8.632
29405SOL     OW90111   6.727   2.874   4.057
29405SOL    HW190112   6.782   2.927   4.115
29405SOL    HW290113   6.649   2.928   4.043
29406SOL     OW90114   3.969   6.461   2.831
29406SOL    HW190115   3.901   6.406   2.871
29406SOL    HW290116   3.968   6.542   2.882
29407SOL     OW90117   7.475  11.787   2.785
29407SOL    HW190118   7.419  11.823   2.854
29407SOL    HW290119   7.557  11.766   2.830
29408SOL     OW90120   6.893   0.359   7.693
29408SOL    HW190121   6.912   0.425   7.626
29408SOL    HW290122   6.804   0.331   7.674
29409SOL     OW90123   1.156  13.099   8.719
29409SOL    HW190124   1.174  13.008   8.697
29409SOL    HW290125   1.114  13.095   8.805
29410SOL     OW90126   4.131   4.879   9.792
29410SOL    HW190127   4.128   4.790   9.828
29410SOL    HW290128   4.052   4.886   9.738
29411SOL     OW90129   8.380   2.320   4.973
29411SOL    HW190130   8.342   2.329   5.061
29411SOL    HW290131   8.409   2.409   4.951
29412SOL     OW90132  11.769  13.523   5.301
29412SOL    HW190133  11.715  13.492   5.373
29412SOL    HW290134  11.785  13.615   5.321
29413SOL     OW90135   6.515   8.534   9.292
29413SOL    HW190136   6.455   8.524   9.218
29413SOL    HW290137   6.505   8.453   9.342
29414SOL     OW90138   6.234   6.001  13.838
29414SOL    HW190139   6.315   5.958  13.863
29414SOL    HW290140   6.169   5.969  13.900
29415SOL     OW90141   6.808   9.521  12.732
29415SOL    HW190142   6.855   9.485  12.808
29415SOL    HW290143   6.718   9.488  12.742
29416SOL     OW90144  11.875   3.709  13.674
29416SOL    HW190145  11.833   3.638  13.625
29416SOL    HW290146  11.964   3.676  13.692
29417SOL     OW90147   5.057   6.758   5.123
29417SOL    HW190148   5.100   6.783   5.205
29417SOL    HW290149   5.101   6.810   5.056
29418SOL     OW90150   0.874   3.910   2.705
29418SOL    HW190151   0.857   3.968   2.631
29418SOL    HW290152   0.872   3.822   2.668
29419SOL     OW90153   7.177  11.637   1.280
29419SOL    HW190154   7.139  11.693   1.347
29419SOL    HW290155   7.104  11.584   1.249
29420SOL     OW90156  14.478  10.247   5.403
29420SOL    HW190157  14.453  10.217   5.490
29420SOL    HW290158  14.495  10.167   5.354
29421SOL     OW90159   8.399   4.581   5.065
29421SOL    HW190160   8.361   4.548   4.983
29421SOL    HW290161   8.485   4.614   5.039
29422SOL     OW90162   0.546   6.403   2.074
29422SOL    HW190163   0.541   6.320   2.122
29422SOL    HW290164   0.597   6.383   1.996
29423SOL     OW90165   8.476   3.897   0.525
29423SOL    HW190166   8.428   3.977   0.548
29423SOL    HW290167   8.451   3.834   0.592
29424SOL     OW90168   2.238  10.431   2.907
29424SOL    HW190169   2.320  10.398   2.870
29424SOL    HW290170   2.188  10.353   2.929
29425SOL     OW90171   9.990  14.655   1.827
29425SOL    HW190172   9.950  14.577   1.865
29425SOL    HW290173  10.039  14.622   1.751
29426SOL     OW90174  10.740   0.670  12.746
29426SOL    HW190175  10.686   0.743  12.713
29426SOL    HW290176  10.712   0.595  12.695
29427SOL     OW90177   3.449   9.500   5.163
29427SOL    HW190178   3.436   9.431   5.228
29427SOL    HW290179   3.370   9.497   5.108
29428SOL     OW90180  13.043  12.538  10.189
29428SOL    HW190181  13.139  12.538  10.185
29428SOL    HW290182  13.016  12.497  10.107
29429SOL     OW90183   1.812   7.592   9.136
29429SOL    HW190184   1.720   7.607   9.157
29429SOL    HW290185   1.821   7.497   9.138
29430SOL     OW90186  11.685   7.117  12.771
29430SOL    HW190187  11.678   7.180  12.843
29430SOL    HW290188  11.627   7.045  12.796
29431SOL     OW90189   3.404  12.373   2.803
29431SOL    HW190190   3.330  12.432   2.788
29431SOL    HW290191   3.470  12.402   2.740
29432SOL     OW90192  12.660   2.613   9.293
29432SOL    HW190193  12.737   2.587   9.242
29432SOL    HW290194  12.607   2.666   9.234
29433SOL     OW90195  12.544   0.380  10.106
29433SOL    HW190196  12.466   0.355  10.156
29433SOL    HW290197  12.516   0.375  10.015
29434SOL     OW90198   6.506   9.139   1.764
29434SOL    HW190199   6.569   9.074   1.733
29434SOL    HW290200   6.444   9.089   1.817
29435SOL     OW90201  11.337   9.886   2.177
29435SOL    HW190202  11.400   9.935   2.229
29435SOL    HW290203  11.254   9.896   2.224
29436SOL     OW90204   3.590   9.278   3.695
29436SOL    HW190205   3.645   9.211   3.736
29436SOL    HW290206   3.634   9.361   3.715
29437SOL     OW90207  10.414  12.829   7.373
29437SOL    HW190208  10.344  12.886   7.341
29437SOL    HW290209  10.492  12.885   7.376
29438SOL     OW90210   9.819  13.098   7.033
29438SOL    HW190211   9.731  13.070   7.006
29438SOL    HW290212   9.862  13.018   7.062
29439SOL     OW90213   1.597   8.890   9.538
29439SOL    HW190214   1.593   8.979   9.501
29439SOL    HW290215   1.604   8.904   9.632
29440SOL     OW90216   7.677  12.764   9.564
29440SOL    HW190217   7.744  12.833   9.567
29440SOL    HW290218   7.715  12.697   9.507
29441SOL     OW90219  13.356   2.672   0.037
29441SOL    HW190220  13.336   2.726  14.833
29441SOL    HW290221  13.290   2.696   0.102
29442SOL     OW90222   3.971  13.400   5.358
29442SOL    HW190223   3.876  13.402   5.347
29442SOL    HW290224   3.985  13.430   5.448
29443SOL     OW90225  11.887  11.686  10.605
29443SOL    HW190226  11.922  11.641  10.682
29443SOL    HW290227  11.864  11.615  10.544
29444SOL     OW90228   3.471  13.095   2.455
29444SOL    HW190229   3.507  13.126   2.538
29444SOL    HW290230   3.508  13.007   2.444
29445SOL     OW90231   1.144   0.103  11.253
29445SOL    HW190232   1.120   0.048  11.328
29445SOL    HW290233   1.194   0.046  11.195
29446SOL     OW90234   1.436   0.050  11.394
29446SOL    HW190235   1.365  14.864  11.366
29446SOL    HW290236   1.396   0.106  11.460
29447SOL     OW90237   5.795   0.495   6.987
29447SOL    HW190238   5.746   0.455   7.059
29447SOL    HW290239   5.745   0.471   6.908
29448SOL     OW90240   4.505  14.644  11.665
29448SOL    HW190241   4.600  14.633  11.677
29448SOL    HW290242   4.467  14.613  11.747
29449SOL     OW90243   9.764   7.186   5.792
29449SOL    HW190244   9.782   7.271   5.753
29449SOL    HW290245   9.848   7.159   5.830
29450SOL     OW90246   4.060   3.204   2.681
29450SOL    HW190247   4.031   3.260   2.753
29450SOL    HW290248   3.982   3.151   2.660
29451SOL     OW90249   9.382   2.989   4.032
29451SOL    HW190250   9.444   3.002   3.960
29451SOL    HW290251   9.436   2.958   4.105
29452SOL     OW90252   7.992  12.257   6.626
29452SOL    HW190253   7.905  12.292   6.648
29452SOL    HW290254   7.973  12.176   6.578
29453SOL     OW90255   0.436  10.439   7.168
29453SOL    HW190256   0.358  10.447   7.113
29453SOL    HW290257   0.423  10.358   7.217
29454SOL     OW90258  14.758  13.442   4.376
29454SOL    HW190259  14.781  13.461   4.285
29454SOL    HW290260  14.745  13.528   4.416
29455SOL     OW90261   3.135  14.391   0.263
29455SOL    HW190262   3.167  14.335   0.192
29455SOL    HW290263   3.076  14.453   0.221
29456SOL     OW90264   4.297   7.570   8.555
29456SOL    HW190265   4.342   7.505   8.502
29456SOL    HW290266   4.342   7.652   8.535
29457SOL     OW90267   7.292  14.867   0.416
29457SOL    HW190268   7.198  14.868   0.396
29457SOL    HW290269   7.296  14.838   0.507
29458SOL     OW90270  13.285  10.900   3.772
29458SOL    HW190271  13.374  10.865   3.778
29458SOL    HW290272  13.294  10.983   3.726
29459SOL     OW90273  12.358   7.246   3.247
29459SOL    HW190274  12.355   7.181   3.177
29459SOL    HW290275  12.290   7.309   3.223
29460SOL     OW90276  12.547   3.618   7.581
29460SOL    HW190277  12.457   3.652   7.574
29460SOL    HW290278  12.601   3.697   7.590
29461SOL     OW90279  11.446   2.409  11.181
29461SOL    HW190280  11.469   2.463  11.257
29461SOL    HW290281  11.355   2.384  11.196
29462SOL     OW90282  13.106  12.558   9.331
29462SOL    HW190283  13.079  12.564   9.423
29462SOL    HW290284  13.038  12.504   9.290
29463SOL     OW90285   3.004   9.489   7.318
29463SOL    HW190286   2.991   9.539   7.237
29463SOL    HW290287   3.037   9.404   7.289
29464SOL     OW90288  12.730   3.823   6.629
29464SOL    HW190289  12.781   3.774   6.694
29464SOL    HW290290  12.791   3.889   6.596
29465SOL     OW90291   3.713   2.186   6.576
29465SOL    HW190292   3.702   2.177   6.482
29465SOL    HW290293   3.806   2.207   6.588
29466SOL     OW90294  12.842   4.646   4.458
29466SOL    HW190295  12.831   4.713   4.391
29466SOL    HW290296  12.922   4.671   4.504
29467SOL     OW90297   0.076  14.306   2.008
29467SOL    HW190298   0.171  14.303   2.020
29467SOL    HW290299   0.056  14.227   1.957
29468SOL     OW90300   2.254  13.375  13.196
29468SOL    HW190301   2.205  13.296  13.217
29468SOL    HW290302   2.187  13.440  13.174
29469SOL     OW90303   5.599   5.047  12.144
29469SOL    HW190304   5.537   5.016  12.209
29469SOL    HW290305   5.550   5.048  12.062
29470SOL     OW90306  14.640   2.213   3.950
29470SOL    HW190307  14.583   2.230   3.875
29470SOL    HW290308  14.688   2.134   3.927
29471SOL     OW90309  14.227  12.766   4.440
29471SOL    HW190310  14.235  12.859   4.419
29471SOL    HW290311  14.312  12.728   4.414
29472SOL     OW90312   1.593   3.954   2.926
29472SOL    HW190313   1.657   4.000   2.980
29472SOL    HW290314   1.584   4.008   2.848
29473SOL     OW90315  12.996  12.038  12.519
29473SOL    HW190316  13.018  12.131  12.522
29473SOL    HW290317  13.034  12.007  12.436
29474SOL     OW90318   9.388   4.577   6.510
29474SOL    HW190319   9.444   4.590   6.587
29474SOL    HW290320   9.394   4.660   6.462
29475SOL     OW90321   9.813   0.907   7.672
29475SOL    HW190322   9.851   0.874   7.591
29475SOL    HW290323   9.864   0.985   7.694
29476SOL     OW90324   7.126   5.918   5.473
29476SOL    HW190325   7.095   6.007   5.489
29476SOL    HW290326   7.099   5.869   5.551
29477SOL     OW90327  11.986   1.775   6.201
29477SOL    HW190328  12.030   1.799   6.282
29477SOL    HW290329  11.899   1.747   6.229
29478SOL     OW90330  14.852  14.854   5.493
29478SOL    HW190331   0.075  14.857   5.491
29478SOL    HW290332  14.831  14.766   5.460
29479SOL     OW90333   6.520   0.317   6.222
29479SOL    HW190334   6.590   0.304   6.286
29479SOL    HW290335   6.544   0.397   6.175
29480SOL     OW90336   7.734   9.183   2.800
29480SOL    HW190337   7.808   9.173   2.740
29480SOL    HW290338   7.661   9.138   2.756
29481SOL     OW90339   6.257   1.265   3.263
29481SOL    HW190340   6.176   1.223   3.234
29481SOL    HW290341   6.255   1.257   3.358
29482SOL     OW90342   3.703   8.890  11.661
29482SOL    HW190343   3.625   8.894  11.716
29482SOL    HW290344   3.760   8.959  11.695
29483SOL     OW90345  10.690  12.429   0.431
29483SOL    HW190346  10.632  12.485   0.484
29483SOL    HW290347  10.760  12.405   0.492
29484SOL     OW90348   5.872   2.930   6.263
29484SOL    HW190349   5.830   2.860   6.213
29484SOL    HW290350   5.962   2.900   6.275
29485SOL     OW90351  12.260   2.932   0.363
29485SOL    HW190352  12.277   2.853   0.311
29485SOL    HW290353  12.279   3.005   0.303
29486SOL     OW90354   3.434   0.289   1.697
29486SOL    HW190355   3.347   0.249   1.696
29486SOL    HW290356   3.419   0.380   1.671
29487SOL     OW90357   5.260  13.737  11.835
29487SOL    HW190358   5.184  13.787  11.806
29487SOL    HW290359   5.240  13.714  11.926
29488SOL     OW90360  10.108   1.947  13.624
29488SOL    HW190361  10.145   1.890  13.556
29488SOL    HW290362  10.021   1.970  13.591
29489SOL     OW90363   0.137   2.961   7.044
29489SOL    HW190364   0.224   2.931   7.068
29489SOL    HW290365   0.100   2.997   7.125
29490SOL     OW90366   6.496  12.202  13.736
29490SOL    HW190367   6.553  12.273  13.768
29490SOL    HW290368   6.483  12.146  13.813
29491SOL     OW90369   8.916  12.398   3.389
29491SOL    HW190370   8.928  12.322   3.333
29491SOL    HW290371   8.922  12.473   3.330
29492SOL     OW90372   4.710   4.569  12.445
29492SOL    HW190373   4.723   4.525  12.529
29492SOL    HW290374   4.673   4.654  12.468
29493SOL     OW90375  14.067   5.402  14.742
29493SOL    HW190376  13.987   5.370  14.700
29493SOL    HW290377  14.053   5.496  14.754
29494SOL     OW90378   9.075   7.253   2.962
29494SOL    HW190379   9.060   7.290   2.875
29494SOL    HW290380   9.127   7.174   2.946
29495SOL     OW90381  10.440   8.227   1.460
29495SOL    HW190382  10.361   8.273   1.487
29495SOL    HW290383  10.471   8.184   1.540
29496SOL     OW90384  12.409   6.091  11.410
29496SOL    HW190385  12.467   6.017  11.427
29496SOL    HW290386  12.413   6.144  11.489
29497SOL     OW90387   8.532   8.870   6.464
29497SOL    HW190388   8.583   8.791   6.476
29497SOL    HW290389   8.455   8.858   6.519
29498SOL     OW90390   7.737   3.719   5.896
29498SOL    HW190391   7.685   3.737   5.818
29498SOL    HW290392   7.673   3.710   5.966
29499SOL     OW90393   0.912   6.338   2.997
29499SOL    HW190394   0.880   6.331   3.087
29499SOL    HW290395   0.841   6.302   2.944
29500SOL     OW90396  12.789  11.062   5.144
29500SOL    HW190397  12.848  11.017   5.084
29500SOL    HW290398  12.812  11.029   5.231
29501SOL     OW90399  11.537   3.045   1.170
29501SOL    HW190400  11.632   3.046   1.156
29501SOL    HW290401  11.505   2.978   1.109
29502SOL     OW90402   4.175   7.706   1.758
29502SOL    HW190403   4.204   7.656   1.834
29502SOL    HW290404   4.226   7.787   1.763
29503SOL     OW90405   8.865   3.774  13.442
29503SOL    HW190406   8.936   3.757  13.380
29503SOL    HW290407   8.911   3.793  13.525
29504SOL     OW90408   3.810   6.054  13.430
29504SOL    HW190409   3.895   6.072  13.389
29504SOL    HW290410   3.769   6.139  13.438
29505SOL     OW90411   6.972   4.463   4.518
29505SOL    HW190412   7.046   4.509   4.557
29505SOL    HW290413   6.931   4.529   4.461
29506SOL     OW90414  10.136   4.468  11.416
29506SOL    HW190415  10.187   4.399  11.373
29506SOL    HW290416  10.065   4.423  11.460
29507SOL     OW90417   6.544  11.699   0.665
29507SOL    HW190418   6.558  11.612   0.703
29507SOL    HW290419   6.631  11.740   0.665
29508SOL     OW90420  11.733  13.656  12.520
29508SOL    HW190421  11.806  13.603  12.551
29508SOL    HW290422  11.742  13.655  12.425
29509SOL     OW90423   3.939  12.288   6.072
29509SOL    HW190424   4.016  12.341   6.048
29509SOL    HW290425   3.904  12.331   6.150
29510SOL     OW90426  13.648   8.029   5.343
29510SOL    HW190427  13.699   7.999   5.268
29510SOL    HW290428  13.688   7.986   5.418
29511SOL     OW90429   4.077  14.280  12.861
29511SOL    HW190430   4.006  14.249  12.804
29511SOL    HW290431   4.113  14.200  12.899
29512SOL     OW90432   7.568  13.209  14.196
29512SOL    HW190433   7.615  13.216  14.279
29512SOL    HW290434   7.491  13.265  14.209
29513SOL     OW90435   2.109  11.472   2.410
29513SOL    HW190436   2.191  11.436   2.376
29513SOL    HW290437   2.102  11.558   2.370
29514SOL     OW90438  10.329   2.870   8.170
29514SOL    HW190439  10.327   2.963   8.191
29514SOL    HW290440  10.296   2.865   8.080
29515SOL     OW90441   0.263  12.827  13.958
29515SOL    HW190442   0.306  12.769  13.895
29515SOL    HW290443   0.334  12.878  13.996
29516SOL     OW90444   4.240   0.010   4.468
29516SOL    HW190445   4.302  14.812   4.487
29516SOL    HW290446   4.269   0.046   4.385
29517SOL     OW90447   0.348  10.895  13.494
29517SOL    HW190448   0.300  10.912  13.412
29517SOL    HW290449   0.297  10.828  13.538
29518SOL     OW90450  11.195   5.747   2.586
29518SOL    HW190451  11.190   5.813   2.517
29518SOL    HW290452  11.105   5.739   2.618
29519SOL     OW90453   6.834   9.334   8.223
29519SOL    HW190454   6.858   9.275   8.151
29519SOL    HW290455   6.907   9.327   8.285
29520SOL     OW90456  11.576   5.686  14.420
29520SOL    HW190457  11.560   5.603  14.375
29520SOL    HW290458  11.628   5.662  14.497
29521SOL     OW90459  10.498   6.809   3.533
29521SOL    HW190460  10.574   6.756   3.510
29521SOL    HW290461  10.437   6.747   3.574
29522SOL     OW90462  12.947   0.230   8.438
29522SOL    HW190463  13.034   0.206   8.406
29522SOL    HW290464  12.894   0.239   8.359
29523SOL     OW90465   0.527  13.593   5.184
29523SOL    HW190466   0.486  13.679   5.189
29523SOL    HW290467   0.499  13.549   5.264
29524SOL     OW90468  12.270  11.243   1.366
29524SOL    HW190469  12.225  11.163   1.341
29524SOL    HW290470  12.235  11.264   1.452
29525SOL     OW90471  12.926   7.866   5.790
29525SOL    HW190472  12.900   7.778   5.763
29525SOL    HW290473  12.896   7.922   5.718
29526SOL     OW90474   8.134   6.221   6.058
29526SOL    HW190475   8.205   6.283   6.076
29526SOL    HW290476   8.081   6.222   6.137
29527SOL     OW90477   4.891   3.982   3.306
29527SOL    HW190478   4.801   4.007   3.328
29527SOL    HW290479   4.887   3.887   3.292
29528SOL     OW90480   5.107  10.495   4.663
29528SOL    HW190481   5.143  10.575   4.701
29528SOL    HW290482   5.179  10.458   4.612
29529SOL     OW90483  13.138   7.622   4.492
29529SOL    HW190484  13.193   7.584   4.560
29529SOL    HW290485  13.128   7.714   4.518
29530SOL     OW90486   7.327   3.927  12.544
29530SOL    HW190487   7.412   3.901  12.580
29530SOL    HW290488   7.348   3.962  12.458
29531SOL     OW90489   3.447   1.444  11.359
29531SOL    HW190490   3.409   1.431  11.446
29531SOL    HW290491   3.420   1.532  11.334
29532SOL     OW90492   4.747   3.060   9.655
29532SOL    HW190493   4.668   3.007   9.658
29532SOL    HW290494   4.777   3.063   9.746
29533SOL     OW90495  12.951   5.860   4.830
29533SOL    HW190496  12.927   5.782   4.780
29533SOL    HW290497  13.038   5.841   4.864
29534SOL     OW90498  14.083   9.686  14.464
29534SOL    HW190499  14.146   9.674  14.536
29534SOL    HW290500  14.098   9.775  14.433
29535SOL     OW90501  11.859  14.194   2.572
29535SOL    HW190502  11.800  14.269   2.576
29535SOL    HW290503  11.809  14.126   2.526
29536SOL     OW90504   3.305   6.375  11.716
29536SOL    HW190505   3.280   6.439  11.650
29536SOL    HW290506   3.224   6.330  11.740
29537SOL     OW90507   4.360   2.406   4.353
29537SOL    HW190508   4.278   2.370   4.388
29537SOL    HW290509   4.367   2.369   4.266
29538SOL     OW90510  14.237   8.765   3.608
29538SOL    HW190511  14.244   8.681   3.653
29538SOL    HW290512  14.328   8.793   3.597
29539SOL     OW90513   4.548  10.882   2.665
29539SOL    HW190514   4.512  10.969   2.681
29539SOL    HW290515   4.472  10.826   2.650
29540SOL     OW90516  12.357   5.618   8.020
29540SOL    HW190517  12.416   5.560   7.972
29540SOL    HW290518  12.398   5.704   8.014
29541SOL     OW90519   8.320   6.522   7.956
29541SOL    HW190520   8.243   6.576   7.977
29541SOL    HW290521   8.285   6.450   7.904
29542SOL     OW90522  12.487   4.926  12.252
29542SOL    HW190523  12.450   4.932  12.340
29542SOL    HW290524  12.417   4.958  12.195
29543SOL     OW90525  12.384  10.027  10.842
29543SOL    HW190526  12.385  10.106  10.787
29543SOL    HW290527  12.461   9.977  10.814
29544SOL     OW90528   1.845   2.460  12.391
29544SOL    HW190529   1.875   2.522  12.324
29544SOL    HW290530   1.756   2.488  12.412
29545SOL     OW90531   7.021  14.196  12.260
29545SOL    HW190532   6.970  14.198  12.178
29545SOL    HW290533   7.056  14.107  12.264
29546SOL     OW90534  10.436   4.835   8.978
29546SOL    HW190535  10.461   4.924   8.955
29546SOL    HW290536  10.360   4.846   9.036
29547SOL     OW90537   7.952   8.413   7.483
29547SOL    HW190538   7.892   8.474   7.525
29547SOL    HW290539   7.934   8.329   7.526
29548SOL     OW90540   5.166   2.052   8.098
29548SOL    HW190541   5.195   2.112   8.167
29548SOL    HW290542   5.072   2.040   8.115
29549SOL     OW90543   5.266   2.931   1.099
29549SOL    HW190544   5.253   2.849   1.052
29549SOL    HW290545   5.273   2.997   1.030
29550SOL     OW90546   7.075   1.439   5.102
29550SOL    HW190547   7.054   1.451   5.194
29550SOL    HW290548   7.159   1.393   5.103
29551SOL     OW90549   8.259   4.560   5.596
29551SOL    HW190550   8.281   4.524   5.510
29551SOL    HW290551   8.167   4.585   5.589
29552SOL     OW90552  11.022   2.270   0.994
29552SOL    HW190553  10.934   2.307   0.985
29552SOL    HW290554  11.030   2.248   1.086
29553SOL     OW90555   7.560  11.432  11.249
29553SOL    HW190556   7.619  11.496  11.209
29553SOL    HW290557   7.554  11.458  11.341
29554SOL     OW90558   4.853   2.440   3.840
29554SOL    HW190559   4.920   2.482   3.893
29554SOL    HW290560   4.902   2.395   3.770
29555SOL     OW90561   6.906  12.142   6.178
29555SOL    HW190562   6.845  12.215   6.168
29555SOL    HW290563   6.898  12.094   6.095
29556SOL     OW90564  13.113   0.696   7.965
29556SOL    HW190565  13.106   0.606   7.934
29556SOL    HW290566  13.023   0.729   7.961
29557SOL     OW90567   8.548   1.899   2.285
29557SOL    HW190568   8.475   1.895   2.222
29557SOL    HW290569   8.540   1.820   2.337
29558SOL     OW90570  11.790  12.992   4.459
29558SOL    HW190571  11.791  12.995   4.364
29558SOL    HW290572  11.795  13.084   4.486
29559SOL     OW90573   7.105   8.220   0.754
29559SOL    HW190574   7.102   8.312   0.781
29559SOL    HW290575   7.093   8.222   0.659
29560SOL     OW90576   5.877   8.924   3.485
29560SOL    HW190577   5.955   8.969   3.516
29560SOL    HW290578   5.810   8.992   3.480
29561SOL     OW90579  13.825   0.129  13.278
29561SOL    HW190580  13.758   0.073  13.239
29561SOL    HW290581  13.895   0.133  13.213
29562SOL     OW90582   0.817   7.501   9.456
29562SOL    HW190583   0.865   7.488   9.374
29562SOL    HW290584   0.755   7.429   9.460
29563SOL     OW90585   7.683   7.638   8.653
29563SOL    HW190586   7.616   7.610   8.716
29563SOL    HW290587   7.663   7.588   8.573
29564SOL     OW90588  12.178   7.557  13.317
29564SOL    HW190589  12.197   7.543  13.410
29564SOL    HW290590  12.104   7.499  13.299
29565SOL     OW90591  10.066   5.243   6.098
29565SOL    HW190592  10.037   5.267   6.186
29565SOL    HW290593  10.007   5.290   6.039
29566SOL     OW90594  13.005  11.217   2.574
29566SOL    HW190595  13.004  11.127   2.607
29566SOL    HW290596  12.990  11.208   2.480
29567SOL     OW90597   8.372  10.232   8.174
29567SOL    HW190598   8.462  10.262   8.172
29567SOL    HW290599   8.366  10.179   8.254
29568SOL     OW90600   9.903  13.618   5.753
29568SOL    HW190601   9.971  13.553   5.737
29568SOL    HW290602   9.884  13.611   5.846
29569SOL     OW90603   8.470   9.880  10.555
29569SOL    HW190604   8.489   9.787  10.569
29569SOL    HW290605   8.463   9.916  10.643
29570SOL     OW90606   3.363   0.328   4.493
29570SOL    HW190607   3.355   0.413   4.538
29570SOL    HW290608   3.296   0.331   4.425
29571SOL     OW90609  13.136  10.570  14.518
29571SOL    HW190610  13.147  10.654  14.564
29571SOL    HW290611  13.225  10.539  14.504
29572SOL     OW90612   4.774   7.309   9.307
29572SOL    HW190613   4.767   7.228   9.256
29572SOL    HW290614   4.860   7.344   9.284
29573SOL     OW90615   9.867   1.498   9.460
29573SOL    HW190616   9.879   1.590   9.438
29573SOL    HW290617   9.956   1.462   9.459
29574SOL     OW90618   4.089  10.891  13.581
29574SOL    HW190619   4.114  10.968  13.529
29574SOL    HW290620   4.151  10.891  13.654
29575SOL     OW90621   7.403   0.046   7.754
29575SOL    HW190622   7.351  14.863   7.812
29575SOL    HW290623   7.457  14.857   7.704
29576SOL     OW90624  13.179  13.723   4.328
29576SOL    HW190625  13.148  13.637   4.356
29576SOL    HW290626  13.273  13.722   4.349
29577SOL     OW90627   5.960   3.459  13.673
29577SOL    HW190628   5.957   3.404  13.595
29577SOL    HW290629   5.871   3.457  13.708
29578SOL     OW90630   5.576  14.487   0.268
29578SOL    HW190631   5.632  14.441   0.331
29578SOL    HW290632   5.604  14.453   0.183
29579SOL     OW90633   2.704   2.006   7.129
29579SOL    HW190634   2.742   2.069   7.068
29579SOL    HW290635   2.638   2.055   7.177
29580SOL     OW90636  14.029   8.884   0.759
29580SOL    HW190637  14.012   8.952   0.695
29580SOL    HW290638  14.053   8.931   0.839
29581SOL     OW90639   2.980  11.672   6.796
29581SOL    HW190640   2.888  11.687   6.774
29581SOL    HW290641   2.993  11.720   6.878
29582SOL     OW90642   4.167   9.786   4.120
29582SOL    HW190643   4.120   9.703   4.117
29582SOL    HW290644   4.246   9.771   4.068
29583SOL     OW90645   8.060   0.899  11.378
29583SOL    HW190646   8.000   0.955  11.329
29583SOL    HW290647   8.135   0.887  11.320
29584SOL     OW90648   2.946   6.098   9.619
29584SOL    HW190649   2.996   6.179   9.628
29584SOL    HW290650   2.868   6.112   9.671
29585SOL     OW90651   7.908   6.308  11.433
29585SOL    HW190652   7.899   6.391  11.387
29585SOL    HW290653   7.818   6.276  11.442
29586SOL     OW90654  10.069  12.502   9.024
29586SOL    HW190655  10.036  12.475   9.109
29586SOL    HW290656  10.062  12.597   9.024
29587SOL     OW90657   2.085  14.173   3.608
29587SOL    HW190658   2.106  14.135   3.523
29587SOL    HW290659   2.170  14.195   3.646
29588SOL     OW90660   0.918   6.326   5.997
29588SOL    HW190661   0.844   6.292   5.947
29588SOL    HW290662   0.947   6.253   6.051
29589SOL     OW90663  11.554  12.264  13.854
29589SOL    HW190664  11.597  12.303  13.777
29589SOL    HW290665  11.496  12.332  13.886
29590SOL     OW90666  12.985   3.685  12.577
29590SOL    HW190667  13.039   3.651  12.648
29590SOL    HW290668  13.019   3.643  12.498
29591SOL     OW90669   4.115  13.890  10.454
29591SOL    HW190670   4.160  13.949  10.393
29591SOL    HW290671   4.126  13.930  10.540
29592SOL     OW90672   9.692   2.334   9.540
29592SOL    HW190673   9.645   2.379   9.611
29592SOL    HW290674   9.643   2.358   9.461
29593SOL     OW90675   7.254   5.019   6.465
29593SOL    HW190676   7.223   4.980   6.547
29593SOL    HW290677   7.349   5.020   6.473
29594SOL     OW90678  10.635   5.247   7.938
29594SOL    HW190679  10.708   5.297   7.900
29594SOL    HW290680  10.646   5.258   8.033
29595SOL     OW90681  10.702   8.828   0.938
29595SOL    HW190682  10.623   8.810   0.988
29595SOL    HW290683  10.701   8.764   0.867
29596SOL     OW90684  10.270   1.218   3.164
29596SOL    HW190685  10.344   1.174   3.123
29596SOL    HW290686  10.251   1.292   3.107
29597SOL     OW90687   1.543   2.046  13.261
29597SOL    HW190688   1.538   2.039  13.357
29597SOL    HW290689   1.600   2.121  13.246
29598SOL     OW90690  10.642   8.219  14.076
29598SOL    HW190691  10.552   8.201  14.050
29598SOL    HW290692  10.682   8.257  13.998
29599SOL     OW90693   7.907   3.470   5.932
29599SOL    HW190694   7.858   3.552   5.922
29599SOL    HW290695   7.849   3.403   5.897
29600SOL     OW90696   2.103  12.071   9.620
29600SOL    HW190697   2.187  12.028   9.633
29600SOL    HW290698   2.089  12.068   9.525
29601SOL     OW90699  14.695   5.655  11.571
29601SOL    HW190700  14.615   5.644  11.519
29601SOL    HW290701  14.665   5.687  11.656
29602SOL     OW90702  11.758  12.264   7.580
29602SOL    HW190703  11.704  12.296   7.652
29602SOL    HW290704  11.829  12.328   7.573
29603SOL     OW90705   2.329   1.579   8.165
29603SOL    HW190706   2.401   1.616   8.114
29603SOL    HW290707   2.360   1.493   8.193
29604SOL     OW90708  13.954   1.636   7.939
29604SOL    HW190709  13.909   1.657   7.857
29604SOL    HW290710  13.985   1.720   7.972
29605SOL     OW90711  11.578   2.881   2.462
29605SOL    HW190712  11.573   2.792   2.427
29605SOL    HW290713  11.653   2.879   2.522
29606SOL     OW90714   8.408   4.253  14.727
29606SOL    HW190715   8.473   4.205  14.779
29606SOL    HW290716   8.457   4.326  14.689
29607SOL     OW90717   1.411  11.808  14.130
29607SOL    HW190718   1.404  11.773  14.218
29607SOL    HW290719   1.420  11.903  14.142
29608SOL     OW90720  10.489   3.810  12.576
29608SOL    HW190721  10.434   3.833  12.651
29608SOL    HW290722  10.485   3.714  12.573
29609SOL     OW90723  11.870   2.774   8.050
29609SOL    HW190724  11.792   2.759   8.104
29609SOL    HW290725  11.856   2.860   8.012
29610SOL     OW90726  13.947   7.624   9.933
29610SOL    HW190727  13.866   7.604   9.886
29610SOL    HW290728  13.974   7.541   9.972
29611SOL     OW90729  11.148   6.692   4.238
29611SOL    HW190730  11.130   6.758   4.171
29611SOL    HW290731  11.118   6.610   4.200
29612SOL     OW90732   5.737   2.820   1.199
29612SOL    HW190733   5.721   2.883   1.129
29612SOL    HW290734   5.811   2.767   1.168
29613SOL     OW90735   7.595   0.569   6.595
29613SOL    HW190736   7.502   0.593   6.597
29613SOL    HW290737   7.595   0.480   6.558
29614SOL     OW90738  10.534   9.000   2.113
29614SOL    HW190739  10.556   9.078   2.062
29614SOL    HW290740  10.601   8.995   2.181
29615SOL     OW90741  10.592   6.962   4.016
29615SOL    HW190742  10.499   6.952   3.999
29615SOL    HW290743  10.634   6.896   3.961
29616SOL     OW90744  10.122  12.149   2.479
29616SOL    HW190745  10.048  12.204   2.450
29616SOL    HW290746  10.169  12.128   2.399
29617SOL     OW90747  13.981   2.602   3.243
29617SOL    HW190748  13.987   2.579   3.151
29617SOL    HW290749  13.963   2.518   3.287
29618SOL     OW90750   3.600   2.094  11.807
29618SOL    HW190751   3.675   2.124  11.754
29618SOL    HW290752   3.559   2.175  11.837
29619SOL     OW90753   3.518   9.245  13.642
29619SOL    HW190754   3.610   9.234  13.666
29619SOL    HW290755   3.477   9.161  13.666
29620SOL     OW90756   3.489   7.489   4.533
29620SOL    HW190757   3.483   7.537   4.451
29620SOL    HW290758   3.557   7.424   4.519
29621SOL     OW90759  14.831  13.968   7.906
29621SOL    HW190760  14.827  13.873   7.898
29621SOL    HW290761  14.795  14.000   7.823
29622SOL     OW90762  11.778   4.647   8.479
29622SOL    HW190763  11.800   4.557   8.503
29622SOL    HW290764  11.860   4.696   8.490
29623SOL     OW90765   9.658   6.808  13.156
29623SOL    HW190766   9.679   6.899  13.174
29623SOL    HW290767   9.739   6.772  13.118
29624SOL     OW90768  11.319  12.599   7.851
29624SOL    HW190769  11.329  12.555   7.767
29624SOL    HW290770  11.396  12.657   7.856
29625SOL     OW90771   7.917  12.332   9.915
29625SOL    HW190772   7.908  12.406   9.974
29625SOL    HW290773   8.005  12.342   9.879
29626SOL     OW90774  12.173   1.239   5.889
29626SOL    HW190775  12.094   1.209   5.844
29626SOL    HW290776  12.144   1.261   5.977
29627SOL     OW90777   1.724  13.024   7.878
29627SOL    HW190778   1.716  12.954   7.943
29627SOL    HW290779   1.811  13.011   7.840
29628SOL     OW90780   6.348   1.265   5.878
29628SOL    HW190781   6.405   1.200   5.920
29628SOL    HW290782   6.403   1.304   5.811
29629SOL     OW90783  11.600   7.835   8.821
29629SOL    HW190784  11.542   7.905   8.790
29629SOL    HW290785  11.550   7.791   8.890
29630SOL     OW90786   7.657   0.048  12.637
29630SOL    HW190787   7.733   0.011  12.682
29630SOL    HW290788   7.673   0.032  12.544
29631SOL     OW90789  13.973   2.222   6.241
29631SOL    HW190790  13.990   2.208   6.148
29631SOL    HW290791  13.924   2.145   6.269
29632SOL     OW90792  10.573   5.889   8.090
29632SOL    HW190793  10.554   5.796   8.074
29632SOL    HW290794  10.669   5.893   8.094
29633SOL     OW90795   7.889  14.116   6.069
29633SOL    HW190796   7.824  14.170   6.115
29633SOL    HW290797   7.853  14.106   5.981
29634SOL     OW90798   3.974   3.978   8.544
29634SOL    HW190799   3.946   4.013   8.460
29634SOL    HW290800   4.067   3.957   8.531
29635SOL     OW90801   2.694   4.320   9.339
29635SOL    HW190802   2.641   4.399   9.330
29635SOL    HW290803   2.641   4.251   9.299
29636SOL     OW90804   9.045  13.546  10.988
29636SOL    HW190805   8.961  13.556  11.033
29636SOL    HW290806   9.093  13.484  11.043
29637SOL     OW90807   5.868   1.671  10.843
29637SOL    HW190808   5.912   1.743  10.797
29637SOL    HW290809   5.882   1.595  10.787
29638SOL     OW90810  11.484  10.602   1.632
29638SOL    HW190811  11.428  10.556   1.694
29638SOL    HW290812  11.573  10.574   1.655
29639SOL     OW90813   6.749  12.036  11.579
29639SOL    HW190814   6.830  11.993  11.553
29639SOL    HW290815   6.761  12.056  11.672
29640SOL     OW90816   2.419   7.457   2.956
29640SOL    HW190817   2.467   7.410   3.024
29640SOL    HW290818   2.339   7.488   2.999
29641SOL     OW90819  11.231  11.612   7.803
29641SOL    HW190820  11.169  11.597   7.874
29641SOL    HW290821  11.185  11.583   7.724
29642SOL     OW90822   1.189   9.666   7.202
29642SOL    HW190823   1.220   9.693   7.115
29642SOL    HW290824   1.217   9.575   7.210
29643SOL     OW90825   1.513  13.796   2.673
29643SOL    HW190826   1.522  13.707   2.708
29643SOL    HW290827   1.599  13.835   2.682
29644SOL     OW90828   9.451  13.168  13.829
29644SOL    HW190829   9.477  13.180  13.738
29644SOL    HW290830   9.471  13.076  13.848
29645SOL     OW90831   3.065   7.964   9.382
29645SOL    HW190832   2.969   7.973   9.381
29645SOL    HW290833   3.095   8.025   9.315
29646SOL     OW90834  12.842  11.313   3.114
29646SOL    HW190835  12.897  11.302   3.036
29646SOL    HW290836  12.758  11.343   3.080
29647SOL     OW90837  14.372   7.859   6.758
29647SOL    HW190838  14.301   7.822   6.705
29647SOL    HW290839  14.389   7.792   6.825
29648SOL     OW90840  12.061  10.334   0.280
29648SOL    HW190841  12.142  10.383   0.285
29648SOL    HW290842  12.024  10.339   0.368
29649SOL     OW90843   9.582  12.958   4.575
29649SOL    HW190844   9.645  12.908   4.523
29649SOL    HW290845   9.624  13.042   4.591
29650SOL     OW90846   8.729  14.820  14.544
29650SOL    HW190847   8.753   0.003  14.619
29650SOL    HW290848   8.794  14.750  14.543
29651SOL     OW90849  12.906  12.411  12.602
29651SOL    HW190850  12.891  12.479  12.668
29651SOL    HW290851  12.870  12.331  12.642
29652SOL     OW90852   9.301   5.501  13.985
29652SOL    HW190853   9.241   5.575  13.975
29652SOL    HW290854   9.356   5.525  14.060
29653SOL     OW90855   7.924   8.485   9.550
29653SOL    HW190856   7.901   8.532   9.631
29653SOL    HW290857   7.877   8.402   9.557
29654SOL     OW90858   5.159  14.473  11.094
29654SOL    HW190859   5.120  14.392  11.127
29654SOL    HW290860   5.232  14.444  11.039
29655SOL     OW90861   1.841   9.828   5.520
29655SOL    HW190862   1.884   9.827   5.606
29655SOL    HW290863   1.830   9.921   5.500
29656SOL     OW90864   4.367   3.419   1.728
29656SOL    HW190865   4.382   3.462   1.644
29656SOL    HW290866   4.384   3.327   1.711
29657SOL     OW90867   8.169  12.855   9.513
29657SOL    HW190868   8.192  12.815   9.430
29657SOL    HW290869   8.203  12.795   9.580
29658SOL     OW90870  14.094  13.941   7.362
29658SOL    HW190871  14.129  13.854   7.345
29658SOL    HW290872  14.025  13.927   7.428
29659SOL     OW90873  13.598   8.101   0.440
29659SOL    HW190874  13.573   8.062   0.524
29659SOL    HW290875  13.559   8.189   0.443
29660SOL     OW90876  10.798   8.012  13.483
29660SOL    HW190877  10.775   7.925  13.452
29660SOL    HW290878  10.892   8.006  13.503
29661SOL     OW90879   2.857   5.015  10.271
29661SOL    HW190880   2.944   4.976  10.279
29661SOL    HW290881   2.845   5.062  10.354
29662SOL     OW90882  12.745  12.194  10.875
29662SOL    HW190883  12.671  12.143  10.843
29662SOL    HW290884  12.822  12.147  10.842
29663SOL     OW90885  14.281   2.443   6.763
29663SOL    HW190886  14.300   2.536   6.750
29663SOL    HW290887  14.264   2.410   6.675
29664SOL     OW90888  10.746   4.785   8.775
29664SOL    HW190889  10.746   4.783   8.679
29664SOL    HW290890  10.836   4.807   8.798
29665SOL     OW90891   0.575   7.786   1.028
29665SOL    HW190892   0.654   7.773   0.975
29665SOL    HW290893   0.503   7.775   0.967
29666SOL     OW90894   6.617   6.436  11.134
29666SOL    HW190895   6.568   6.356  11.154
29666SOL    HW290896   6.571   6.505  11.183
29667SOL     OW90897   9.558  13.548   1.565
29667SOL    HW190898   9.575  13.525   1.473
29667SOL    HW290899   9.479  13.601   1.562
29668SOL     OW90900   7.631   6.329   9.585
29668SOL    HW190901   7.635   6.413   9.632
29668SOL    HW290902   7.586   6.350   9.503
29669SOL     OW90903  10.413  11.226  12.564
29669SOL    HW190904  10.327  11.189  12.581
29669SOL    HW290905  10.434  11.276  12.643
29670SOL     OW90906  10.905   5.745   6.953
29670SOL    HW190907  10.897   5.755   7.047
29670SOL    HW290908  10.959   5.819   6.925
29671SOL     OW90909   0.433   4.725   7.703
29671SOL    HW190910   0.473   4.805   7.738
29671SOL    HW290911   0.478   4.653   7.747
29672SOL     OW90912   4.997   5.097  10.191
29672SOL    HW190913   4.970   5.185  10.218
29672SOL    HW290914   5.078   5.110  10.142
29673SOL     OW90915   0.683   6.118  10.172
29673SOL    HW190916   0.661   6.075  10.090
29673SOL    HW290917   0.746   6.186  10.147
29674SOL     OW90918   0.518   7.991   1.322
29674SOL    HW190919   0.474   7.909   1.299
29674SOL    HW290920   0.457   8.036   1.381
29675SOL     OW90921  10.891   9.860  10.017
29675SOL    HW190922  10.891   9.912  10.098
29675SOL    HW290923  10.976   9.816  10.017
29676SOL     OW90924   1.849  10.385   9.522
29676SOL    HW190925   1.932  10.433   9.530
29676SOL    HW290926   1.870  10.296   9.550
29677SOL     OW90927   3.705   9.430  13.033
29677SOL    HW190928   3.780   9.370  13.030
29677SOL    HW290929   3.702   9.461  13.124
29678SOL     OW90930   1.793  13.746  12.998
29678SOL    HW190931   1.883  13.759  13.028
29678SOL    HW290932   1.738  13.783  13.068
29679SOL     OW90933   8.533   8.234   9.604
29679SOL    HW190934   8.464   8.289   9.568
29679SOL    HW290935   8.495   8.197   9.684
29680SOL     OW90936  12.092  12.515  12.681
29680SOL    HW190937  12.077  12.459  12.605
29680SOL    HW290938  12.187  12.517  12.691
29681SOL     OW90939   8.952   3.744   4.348
29681SOL    HW190940   8.991   3.832   4.346
29681SOL    HW290941   9.009   3.692   4.291
29682SOL     OW90942   3.771   1.714   8.447
29682SOL    HW190943   3.736   1.675   8.527
29682SOL    HW290944   3.852   1.757   8.476
29683SOL     OW90945   8.712  12.217  10.608
29683SOL    HW190946   8.756  12.186  10.529
29683SOL    HW290947   8.715  12.143  10.668
29684SOL     OW90948   3.782   8.392   5.964
29684SOL    HW190949   3.713   8.425   6.022
29684SOL    HW290950   3.835   8.468   5.943
29685SOL     OW90951  10.858  11.496   1.316
29685SOL    HW190952  10.875  11.589   1.302
29685SOL    HW290953  10.768  11.492   1.348
29686SOL     OW90954   1.680  13.211  13.694
29686SOL    HW190955   1.617  13.184  13.627
29686SOL    HW290956   1.714  13.295  13.664
29687SOL     OW90957   4.991   4.951   9.842
29687SOL    HW190958   5.032   4.871   9.808
29687SOL    HW290959   5.024   5.021   9.785
29688SOL     OW90960   0.177   0.748   4.765
29688SOL    HW190961   0.143   0.823   4.814
29688SOL    HW290962   0.154   0.672   4.819
29689SOL     OW90963   1.459   2.426   0.885
29689SOL    HW190964   1.421   2.422   0.972
29689SOL    HW290965   1.498   2.513   0.879
29690SOL     OW90966   2.818  10.883  12.106
29690SOL    HW190967   2.872  10.901  12.029
29690SOL    HW290968   2.818  10.965  12.156
29691SOL     OW90969   9.547   8.226   9.575
29691SOL    HW190970   9.637   8.194   9.568
29691SOL    HW290971   9.539   8.256   9.666
29692SOL     OW90972  10.701   8.524  12.920
29692SOL    HW190973  10.766   8.516  12.850
29692SOL    HW290974  10.749   8.503  13.000
29693SOL     OW90975  14.410  12.079  12.049
29693SOL    HW190976  14.441  11.990  12.033
29693SOL    HW290977  14.484  12.123  12.091
29694SOL     OW90978   8.498   8.634  11.264
29694SOL    HW190979   8.553   8.556  11.267
29694SOL    HW290980   8.559   8.706  11.250
29695SOL     OW90981   8.254   9.262   5.003
29695SOL    HW190982   8.207   9.260   4.920
29695SOL    HW290983   8.230   9.180   5.047
29696SOL     OW90984  12.631   2.177  13.074
29696SOL    HW190985  12.549   2.136  13.046
29696SOL    HW290986  12.697   2.108  13.067
29697SOL     OW90987   1.311  13.906  10.345
29697SOL    HW190988   1.365  13.846  10.292
29697SOL    HW290989   1.360  13.988  10.346
29698SOL     OW90990   4.334   5.783   4.326
29698SOL    HW190991   4.261   5.798   4.267
29698SOL    HW290992   4.402   5.743   4.271
29699SOL     OW90993   5.521   3.282   9.177
29699SOL    HW190994   5.614   3.298   9.192
29699SOL    HW290995   5.514   3.187   9.169
29700SOL     OW90996   8.784  12.973   3.203
29700SOL    HW190997   8.738  12.928   3.132
29700SOL    HW290998   8.760  12.925   3.282
29701SOL     OW90999   4.324  14.609  11.895
29701SOL    HW191000   4.315  14.581  11.986
29701SOL    HW291001   4.276  14.692  11.890
29702SOL     OW91002  10.188  13.454   3.328
29702SOL    HW191003  10.103  13.496   3.312
29702SOL    HW291004  10.201  13.398   3.251
29703SOL     OW91005   3.770  14.350   4.062
29703SOL    HW191006   3.798  14.441   4.062
29703SOL    HW291007   3.732  14.337   4.149
29704SOL     OW91008   6.912   3.568   5.284
29704SOL    HW191009   6.938   3.648   5.239
29704SOL    HW291010   6.874   3.598   5.366
29705SOL     OW91011  14.035  13.367   6.161
29705SOL    HW191012  14.046  13.440   6.222
29705SOL    HW291013  13.941  13.359   6.149
29706SOL     OW91014  12.064   3.870   1.779
29706SOL    HW191015  12.095   3.851   1.691
29706SOL    HW291016  12.135   3.844   1.837
29707SOL     OW91017  11.299   3.121  10.359
29707SOL    HW191018  11.356   3.174  10.303
29707SOL    HW291019  11.359   3.077  10.419
29708SOL     OW91020   9.900   8.001   7.119
29708SOL    HW191021   9.905   8.021   7.212
29708SOL    HW291022   9.862   7.914   7.115
29709SOL     OW91023   3.199  11.545  14.387
29709SOL    HW191024   3.294  11.535  14.385
29709SOL    HW291025   3.169  11.480  14.450
29710SOL     OW91026   2.717   0.327   1.687
29710SOL    HW191027   2.655   0.275   1.636
29710SOL    HW291028   2.680   0.416   1.685
29711SOL     OW91029   0.346   0.272   1.451
29711SOL    HW191030   0.390   0.323   1.383
29711SOL    HW291031   0.357   0.181   1.424
29712SOL     OW91032   3.510   6.184  12.554
29712SOL    HW191033   3.582   6.218  12.501
29712SOL    HW291034   3.431   6.214  12.509
29713SOL     OW91035  12.798  14.050   5.775
29713SOL    HW191036  12.765  14.033   5.687
29713SOL    HW291037  12.727  14.100   5.818
29714SOL     OW91038   5.841  14.420  10.651
29714SOL    HW191039   5.771  14.457  10.704
29714SOL    HW291040   5.818  14.442  10.560
29715SOL     OW91041  11.182   9.586   2.353
29715SOL    HW191042  11.106   9.636   2.381
29715SOL    HW291043  11.203   9.621   2.266
29716SOL     OW91044   9.651  13.278  11.021
29716SOL    HW191045   9.585  13.343  11.043
29716SOL    HW291046   9.601  13.202  10.992
29717SOL     OW91047   8.221   9.341   7.034
29717SOL    HW191048   8.307   9.351   6.993
29717SOL    HW291049   8.163   9.398   6.983
29718SOL     OW91050   5.527   3.952   2.205
29718SOL    HW191051   5.576   3.926   2.283
29718SOL    HW291052   5.594   3.974   2.141
29719SOL     OW91053   8.190   1.622  13.308
29719SOL    HW191054   8.268   1.583  13.346
29719SOL    HW291055   8.211   1.633  13.215
29720SOL     OW91056   5.633   5.164   3.682
29720SOL    HW191057   5.722   5.152   3.717
29720SOL    HW291058   5.645   5.221   3.606
29721SOL     OW91059   6.279   1.185  14.565
29721SOL    HW191060   6.322   1.102  14.588
29721SOL    HW291061   6.351   1.246  14.552
29722SOL     OW91062   2.515   5.245  11.409
29722SOL    HW191063   2.454   5.270  11.478
29722SOL    HW291064   2.525   5.325  11.356
29723SOL     OW91065  10.877   9.019   4.764
29723SOL    HW191066  10.943   9.067   4.713
29723SOL    HW291067  10.874   8.932   4.724
29724SOL     OW91068   5.695   8.316  13.782
29724SOL    HW191069   5.783   8.353  13.792
29724SOL    HW291070   5.636   8.391  13.782
29725SOL     OW91071   1.017   9.624   3.966
29725SOL    HW191072   1.106   9.594   3.987
29725SOL    HW291073   1.029   9.714   3.937
29726SOL     OW91074   2.120  11.814   7.418
29726SOL    HW191075   2.088  11.782   7.334
29726SOL    HW291076   2.042  11.842   7.465
29727SOL     OW91077   1.093   0.511  10.710
29727SOL    HW191078   1.054   0.532  10.625
29727SOL    HW291079   1.146   0.587  10.731
29728SOL     OW91080   4.885  14.138   6.481
29728SOL    HW191081   4.952  14.071   6.494
29728SOL    HW291082   4.930  14.221   6.498
29729SOL     OW91083   9.579   0.725   8.372
29729SOL    HW191084   9.653   0.783   8.361
29729SOL    HW291085   9.616   0.647   8.413
29730SOL     OW91086   6.655   6.074   2.485
29730SOL    HW191087   6.719   6.010   2.453
29730SOL    HW291088   6.626   6.039   2.569
29731SOL     OW91089   9.227   0.626  12.933
29731SOL    HW191090   9.167   0.697  12.910
29731SOL    HW291091   9.310   0.670  12.949
29732SOL     OW91092   2.406  14.623  13.662
29732SOL    HW191093   2.465  14.684  13.618
29732SOL    HW291094   2.460  14.546  13.680
29733SOL     OW91095  12.164  10.807   4.175
29733SOL    HW191096  12.162  10.878   4.240
29733SOL    HW291097  12.236  10.751   4.203
29734SOL     OW91098   1.566  13.968  10.779
29734SOL    HW191099   1.561  13.883  10.734
29734SOL    HW291100   1.653  14.001  10.760
29735SOL     OW91101  12.785   0.652  14.002
29735SOL    HW191102  12.694   0.681  14.009
29735SOL    HW291103  12.781   0.557  14.010
29736SOL     OW91104  14.639   5.007   7.355
29736SOL    HW191105  14.551   4.993   7.389
29736SOL    HW291106  14.660   4.925   7.310
29737SOL     OW91107   6.730  12.894  11.041
29737SOL    HW191108   6.653  12.847  11.073
29737SOL    HW291109   6.725  12.886  10.946
29738SOL     OW91110  11.540   0.990   4.644
29738SOL    HW191111  11.634   0.977   4.653
29738SOL    HW291112  11.517   0.945   4.562
29739SOL     OW91113   1.868   1.410   5.531
29739SOL    HW191114   1.836   1.441   5.447
29739SOL    HW291115   1.858   1.485   5.590
29740SOL     OW91116   0.479  11.046  10.398
29740SOL    HW191117   0.534  11.125  10.395
29740SOL    HW291118   0.416  11.064  10.468
29741SOL     OW91119   8.383   9.817   4.972
29741SOL    HW191120   8.299   9.830   4.929
29741SOL    HW291121   8.443   9.877   4.927
29742SOL     OW91122   5.370   1.831  12.202
29742SOL    HW191123   5.416   1.774  12.140
29742SOL    HW291124   5.299   1.776  12.236
29743SOL     OW91125  13.500   5.795  11.683
29743SOL    HW191126  13.525   5.886  11.696
29743SOL    HW291127  13.534   5.749  11.760
29744SOL     OW91128   5.260   5.172   6.092
29744SOL    HW191129   5.229   5.202   6.178
29744SOL    HW291130   5.294   5.084   6.108
29745SOL     OW91131  10.570   5.988   1.845
29745SOL    HW191132  10.611   5.988   1.759
29745SOL    HW291133  10.594   6.072   1.884
29746SOL     OW91134   1.671   7.495   3.788
29746SOL    HW191135   1.743   7.558   3.785
29746SOL    HW291136   1.608   7.534   3.849
29747SOL     OW91137   3.783   9.093   8.897
29747SOL    HW191138   3.769   9.056   8.810
29747SOL    HW291139   3.810   9.184   8.881
29748SOL     OW91140   1.318   6.277   5.385
29748SOL    HW191141   1.408   6.276   5.352
29748SOL    HW291142   1.326   6.306   5.476
29749SOL     OW91143   8.813  11.142   3.698
29749SOL    HW191144   8.898  11.147   3.742
29749SOL    HW291145   8.752  11.115   3.767
29750SOL     OW91146   3.703  11.784  12.078
29750SOL    HW191147   3.639  11.753  12.014
29750SOL    HW291148   3.786  11.744  12.050
29751SOL     OW91149   9.474  10.045   6.560
29751SOL    HW191150   9.519   9.988   6.498
29751SOL    HW291151   9.501  10.134   6.535
29752SOL     OW91152   4.613   3.172   1.891
29752SOL    HW191153   4.597   3.259   1.927
29752SOL    HW291154   4.555   3.166   1.815
29753SOL     OW91155   4.437   7.924  12.933
29753SOL    HW191156   4.459   7.893  13.021
29753SOL    HW291157   4.361   7.981  12.946
29754SOL     OW91158   4.809  11.410   3.042
29754SOL    HW191159   4.715  11.419   3.023
29754SOL    HW291160   4.839  11.500   3.055
29755SOL     OW91161   4.273  10.187   3.349
29755SOL    HW191162   4.219  10.141   3.285
29755SOL    HW291163   4.261  10.138   3.430
29756SOL     OW91164   5.552   0.808  10.487
29756SOL    HW191165   5.473   0.851  10.456
29756SOL    HW291166   5.535   0.790  10.579
29757SOL     OW91167  13.051  11.367   4.354
29757SOL    HW191168  13.099  11.321   4.285
29757SOL    HW291169  12.962  11.373   4.322
29758SOL     OW91170   7.529  13.346   6.490
29758SOL    HW191171   7.541  13.254   6.468
29758SOL    HW291172   7.458  13.346   6.554
29759SOL     OW91173   6.700   1.788  11.038
29759SOL    HW191174   6.624   1.732  11.019
29759SOL    HW291175   6.720   1.830  10.955
29760SOL     OW91176   2.350   2.567   4.324
29760SOL    HW191177   2.318   2.531   4.406
29760SOL    HW291178   2.274   2.613   4.287
29761SOL     OW91179   8.225  14.445  11.557
29761SOL    HW191180   8.266  14.532  11.561
29761SOL    HW291181   8.163  14.450  11.485
29762SOL     OW91182  14.637  11.673  11.627
29762SOL    HW191183  14.642  11.657  11.721
29762SOL    HW291184  14.713  11.728  11.608
29763SOL     OW91185   4.779   2.014   3.846
29763SOL    HW191186   4.786   1.967   3.929
29763SOL    HW291187   4.692   1.992   3.813
29764SOL     OW91188   4.709   1.597   3.842
29764SOL    HW191189   4.669   1.677   3.809
29764SOL    HW291190   4.797   1.624   3.869
29765SOL     OW91191   3.227  14.499   1.231
29765SOL    HW191192   3.286  14.498   1.307
29765SOL    HW291193   3.270  14.443   1.166
29766SOL     OW91194   4.460   1.614   1.560
29766SOL    HW191195   4.395   1.665   1.512
29766SOL    HW291196   4.409   1.565   1.625
29767SOL     OW91197   9.256  11.351   8.800
29767SOL    HW191198   9.309  11.419   8.841
29767SOL    HW291199   9.188  11.332   8.865
29768SOL     OW91200  13.278   2.999   4.098
29768SOL    HW191201  13.240   3.063   4.038
29768SOL    HW291202  13.210   2.984   4.164
29769SOL     OW91203  11.196   2.300  11.189
29769SOL    HW191204  11.108   2.300  11.227
29769SOL    HW291205  11.206   2.213  11.151
29770SOL     OW91206   3.638  13.652  13.681
29770SOL    HW191207   3.650  13.708  13.605
29770SOL    HW291208   3.694  13.576  13.664
29771SOL     OW91209   5.489   4.882   0.092
29771SOL    HW191210   5.568   4.934   0.106
29771SOL    HW291211   5.503   4.838   0.008
29772SOL     OW91212   1.244   5.184   5.868
29772SOL    HW191213   1.234   5.119   5.937
29772SOL    HW291214   1.255   5.267   5.915
29773SOL     OW91215   7.535   2.205   8.611
29773SOL    HW191216   7.535   2.144   8.685
29773SOL    HW291217   7.627   2.213   8.586
29774SOL     OW91218  10.047   9.031  11.460
29774SOL    HW191219   9.973   9.061  11.408
29774SOL    HW291220  10.111   9.102  11.454
29775SOL     OW91221   8.574   6.423   7.994
29775SOL    HW191222   8.545   6.354   8.054
29775SOL    HW291223   8.493   6.459   7.958
29776SOL     OW91224  11.249   6.270   8.627
29776SOL    HW191225  11.204   6.308   8.552
29776SOL    HW291226  11.340   6.263   8.600
29777SOL     OW91227  10.961   5.922   5.704
29777SOL    HW191228  11.019   5.922   5.628
29777SOL    HW291229  10.929   5.832   5.709
29778SOL     OW91230   0.997   6.634  11.465
29778SOL    HW191231   0.942   6.620  11.542
29778SOL    HW291232   0.990   6.728  11.448
29779SOL     OW91233  11.880   9.673   4.227
29779SOL    HW191234  11.818   9.647   4.159
29779SOL    HW291235  11.843   9.637   4.308
29780SOL     OW91236  14.625  13.093   0.931
29780SOL    HW191237  14.642  13.057   0.844
29780SOL    HW291238  14.624  13.017   0.988
29781SOL     OW91239   8.755  12.061  11.976
29781SOL    HW191240   8.683  12.013  11.935
29781SOL    HW291241   8.780  12.007  12.051
29782SOL     OW91242   7.862   4.124  11.269
29782SOL    HW191243   7.796   4.055  11.256
29782SOL    HW291244   7.851   4.149  11.361
29783SOL     OW91245   8.340  14.233   3.577
29783SOL    HW191246   8.246  14.213   3.578
29783SOL    HW291247   8.350  14.300   3.646
29784SOL     OW91248  10.988   9.260  11.775
29784SOL    HW191249  11.016   9.174  11.805
29784SOL    HW291250  11.065   9.297  11.731
29785SOL     OW91251   4.923  14.428   7.298
29785SOL    HW191252   4.875  14.369   7.240
29785SOL    HW291253   4.874  14.426   7.380
29786SOL     OW91254   5.753   9.466  11.335
29786SOL    HW191255   5.807   9.429  11.406
29786SOL    HW291256   5.708   9.391  11.297
29787SOL     OW91257  10.098   0.705   5.023
29787SOL    HW191258  10.189   0.681   5.008
29787SOL    HW291259  10.075   0.664   5.107
29788SOL     OW91260   4.238   2.798  13.923
29788SOL    HW191261   4.206   2.714  13.889
29788SOL    HW291262   4.179   2.819  13.995
29789SOL     OW91263   5.030   8.405  12.378
29789SOL    HW191264   4.998   8.375  12.463
29789SOL    HW291265   5.121   8.431  12.395
29790SOL     OW91266  13.442   9.169   9.899
29790SOL    HW191267  13.395   9.243   9.938
29790SOL    HW291268  13.460   9.110   9.972
29791SOL     OW91269   6.979   3.775   3.875
29791SOL    HW191270   6.987   3.719   3.951
29791SOL    HW291271   7.067   3.778   3.838
29792SOL     OW91272   8.332   2.739  14.466
29792SOL    HW191273   8.370   2.655  14.441
29792SOL    HW291274   8.249   2.743  14.418
29793SOL     OW91275   1.487  13.472  12.293
29793SOL    HW191276   1.561  13.525  12.264
29793SOL    HW291277   1.411  13.512  12.251
29794SOL     OW91278   7.699   2.818  11.402
29794SOL    HW191279   7.714   2.733  11.361
29794SOL    HW291280   7.786   2.854  11.417
29795SOL     OW91281   8.476   0.606   2.901
29795SOL    HW191282   8.398   0.637   2.855
29795SOL    HW291283   8.443   0.552   2.972
29796SOL     OW91284   2.312   3.910  14.742
29796SOL    HW191285   2.316   3.982  14.804
29796SOL    HW291286   2.399   3.871  14.744
29797SOL     OW91287  11.686  12.691   4.195
29797SOL    HW191288  11.695  12.768   4.139
29797SOL    HW291289  11.736  12.712   4.273
29798SOL     OW91290   3.797  13.505   9.950
29798SOL    HW191291   3.776  13.423   9.906
29798SOL    HW291292   3.853  13.551   9.887
29799SOL     OW91293   2.723   0.462   3.794
29799SOL    HW191294   2.706   0.395   3.861
29799SOL    HW291295   2.753   0.412   3.718
29800SOL     OW91296   3.728   9.078   1.929
29800SOL    HW191297   3.821   9.086   1.953
29800SOL    HW291298   3.698   8.999   1.973
29801SOL     OW91299   5.615   6.070   6.539
29801SOL    HW191300   5.693   6.015   6.539
29801SOL    HW291301   5.542   6.008   6.537
29802SOL     OW91302   4.539   2.806   4.574
29802SOL    HW191303   4.616   2.832   4.524
29802SOL    HW291304   4.510   2.887   4.617
29803SOL     OW91305   8.988   2.730   5.749
29803SOL    HW191306   8.928   2.668   5.790
29803SOL    HW291307   8.946   2.753   5.666
29804SOL     OW91308   1.987   2.230   8.051
29804SOL    HW191309   2.019   2.145   8.020
29804SOL    HW291310   1.936   2.208   8.129
29805SOL     OW91311   6.344   9.757   6.693
29805SOL    HW191312   6.353   9.806   6.612
29805SOL    HW291313   6.408   9.686   6.686
29806SOL     OW91314   9.694   8.864   2.284
29806SOL    HW191315   9.608   8.821   2.276
29806SOL    HW291316   9.722   8.876   2.193
29807SOL     OW91317   0.684   0.921   3.187
29807SOL    HW191318   0.664   0.985   3.254
29807SOL    HW291319   0.621   0.939   3.117
29808SOL     OW91320   9.082   3.400   2.184
29808SOL    HW191321   9.154   3.462   2.198
29808SOL    HW291322   9.006   3.456   2.167
29809SOL     OW91323   1.459   7.082  12.432
29809SOL    HW191324   1.478   7.104  12.524
29809SOL    HW291325   1.410   7.000  12.437
29810SOL     OW91326   3.154   7.346  13.584
29810SOL    HW191327   3.071   7.298  13.593
29810SOL    HW291328   3.209   7.288  13.531
29811SOL     OW91329  12.307   0.005   8.616
29811SOL    HW191330  12.272  14.844   8.699
29811SOL    HW291331  12.350   0.088   8.640
29812SOL     OW91332  13.539   9.575  10.870
29812SOL    HW191333  13.474   9.635  10.834
29812SOL    HW291334  13.583   9.538  10.794
29813SOL     OW91335   8.292  10.141   1.903
29813SOL    HW191336   8.324  10.158   1.815
29813SOL    HW291337   8.325  10.214   1.955
29814SOL     OW91338  13.636   4.855  14.769
29814SOL    HW191339  13.695   4.917  14.725
29814SOL    HW291340  13.567   4.910  14.807
29815SOL     OW91341  12.368   4.249   9.457
29815SOL    HW191342  12.426   4.178   9.429
29815SOL    HW291343  12.282   4.224   9.423
29816SOL     OW91344   0.627   9.329  12.605
29816SOL    HW191345   0.659   9.384  12.533
29816SOL    HW291346   0.705   9.307  12.655
29817SOL     OW91347  14.447   1.934   6.704
29817SOL    HW191348  14.471   1.987   6.779
29817SOL    HW291349  14.444   1.995   6.630
29818SOL     OW91350   1.114   1.370  10.080
29818SOL    HW191351   1.072   1.433  10.138
29818SOL    HW291352   1.207   1.393  10.083
29819SOL     OW91353   9.537  10.490   9.146
29819SOL    HW191354   9.453  10.534   9.131
29819SOL    HW291355   9.520  10.399   9.124
29820SOL     OW91356   1.596   8.180   9.944
29820SOL    HW191357   1.510   8.177   9.987
29820SOL    HW291358   1.589   8.252   9.882
29821SOL     OW91359  10.845   9.998   5.771
29821SOL    HW191360  10.807   9.975   5.856
29821SOL    HW291361  10.930  10.036   5.792
29822SOL     OW91362   6.322   8.137   5.285
29822SOL    HW191363   6.263   8.197   5.240
29822SOL    HW291364   6.299   8.050   5.251
29823SOL     OW91365   1.012   6.695   8.915
29823SOL    HW191366   0.951   6.663   8.849
29823SOL    HW291367   0.978   6.662   8.998
29824SOL     OW91368  11.697  12.857  13.379
29824SOL    HW191369  11.675  12.768  13.406
29824SOL    HW291370  11.774  12.879  13.430
29825SOL     OW91371   2.215   4.705   9.602
29825SOL    HW191372   2.290   4.751   9.639
29825SOL    HW291373   2.165   4.675   9.678
29826SOL     OW91374   9.903   8.728  10.837
29826SOL    HW191375   9.935   8.813  10.808
29826SOL    HW291376   9.930   8.722  10.929
29827SOL     OW91377  11.650   2.960   3.193
29827SOL    HW191378  11.739   2.927   3.180
29827SOL    HW291379  11.594   2.902   3.142
29828SOL     OW91380   5.606   5.145   4.659
29828SOL    HW191381   5.580   5.135   4.567
29828SOL    HW291382   5.631   5.237   4.667
29829SOL     OW91383   0.954   6.476   3.693
29829SOL    HW191384   1.047   6.488   3.678
29829SOL    HW291385   0.916   6.563   3.681
29830SOL     OW91386  14.603   6.806  13.637
29830SOL    HW191387  14.682   6.858  13.623
29830SOL    HW291388  14.588   6.762  13.553
29831SOL     OW91389   0.347   9.206  14.367
29831SOL    HW191390   0.408   9.240  14.301
29831SOL    HW291391   0.298   9.138  14.320
29832SOL     OW91392   4.017  13.709  13.211
29832SOL    HW191393   3.946  13.772  13.213
29832SOL    HW291394   4.020  13.678  13.121
29833SOL     OW91395  14.556   1.218   2.496
29833SOL    HW191396  14.622   1.274   2.538
29833SOL    HW291397  14.593   1.198   2.410
29834SOL     OW91398   5.758   3.541  13.290
29834SOL    HW191399   5.803   3.501  13.216
29834SOL    HW291400   5.734   3.629  13.259
29835SOL     OW91401  14.000   2.676  14.189
29835SOL    HW191402  14.092   2.694  14.208
29835SOL    HW291403  13.952   2.717  14.261
29836SOL     OW91404  14.804  13.909   6.099
29836SOL    HW191405  14.819  13.986   6.043
29836SOL    HW291406   0.019  13.887   6.133
29837SOL     OW91407   6.910   0.590   2.421
29837SOL    HW191408   6.951   0.609   2.336
29837SOL    HW291409   6.943   0.504   2.445
29838SOL     OW91410   9.214   1.629   8.255
29838SOL    HW191411   9.182   1.568   8.188
29838SOL    HW291412   9.148   1.625   8.324
29839SOL     OW91413  13.092  10.790   1.667
29839SOL    HW191414  13.167  10.765   1.721
29839SOL    HW291415  13.080  10.718   1.606
29840SOL     OW91416   1.073  10.072  13.166
29840SOL    HW191417   1.021  10.026  13.232
29840SOL    HW291418   1.021  10.065  13.086
29841SOL     OW91419   5.781  10.113   7.397
29841SOL    HW191420   5.875  10.113   7.410
29841SOL    HW291421   5.749  10.190   7.444
29842SOL     OW91422   7.748   3.200  14.449
29842SOL    HW191423   7.843   3.202  14.456
29842SOL    HW291424   7.716   3.218  14.538
29843SOL     OW91425   7.140   4.603   0.872
29843SOL    HW191426   7.183   4.687   0.853
29843SOL    HW291427   7.096   4.617   0.956
29844SOL     OW91428  11.869   8.507   3.433
29844SOL    HW191429  11.898   8.417   3.449
29844SOL    HW291430  11.806   8.524   3.503
29845SOL     OW91431   1.049   8.659   3.390
29845SOL    HW191432   1.024   8.738   3.438
29845SOL    HW291433   1.127   8.627   3.436
29846SOL     OW91434   9.978   1.111   8.336
29846SOL    HW191435  10.066   1.081   8.360
29846SOL    HW291436   9.989   1.204   8.319
29847SOL     OW91437  14.392  13.825   6.517
29847SOL    HW191438  14.407  13.877   6.438
29847SOL    HW291439  14.303  13.791   6.508
29848SOL     OW91440   0.267  12.186   8.892
29848SOL    HW191441   0.255  12.101   8.935
29848SOL    HW291442   0.232  12.249   8.955
29849SOL     OW91443   4.129   9.078  14.127
29849SOL    HW191444   4.194   9.008  14.120
29849SOL    HW291445   4.119   9.093  14.221
29850SOL     OW91446   3.979   9.323  11.191
29850SOL    HW191447   3.954   9.315  11.098
29850SOL    HW291448   4.056   9.266  11.199
29851SOL     OW91449  11.133  10.678   7.421
29851SOL    HW191450  11.198  10.622   7.378
29851SOL    HW291451  11.050  10.629   7.412
29852SOL     OW91452   3.046   4.002  12.860
29852SOL    HW191453   2.997   3.923  12.882
29852SOL    HW291454   3.015   4.026  12.772
29853SOL     OW91455   5.970   9.530  13.359
29853SOL    HW191456   6.053   9.506  13.400
29853SOL    HW291457   5.948   9.457  13.302
29854SOL     OW91458  14.007   5.948   4.630
29854SOL    HW191459  14.088   5.972   4.585
29854SOL    HW291460  13.945   6.016   4.604
29855SOL     OW91461  13.141  13.598   6.247
29855SOL    HW191462  13.136  13.503   6.251
29855SOL    HW291463  13.080  13.628   6.314
29856SOL     OW91464  11.991  10.681  12.491
29856SOL    HW191465  11.955  10.618  12.428
29856SOL    HW291466  12.070  10.638  12.525
29857SOL     OW91467  11.694   9.682  14.707
29857SOL    HW191468  11.640   9.760  14.721
29857SOL    HW291469  11.695   9.670  14.613
29858SOL     OW91470   0.316   2.141   8.427
29858SOL    HW191471   0.298   2.200   8.354
29858SOL    HW291472   0.385   2.083   8.395
29859SOL     OW91473  10.464   6.752  14.124
29859SOL    HW191474  10.460   6.722  14.215
29859SOL    HW291475  10.425   6.681  14.074
29860SOL     OW91476   0.291   7.144   5.082
29860SOL    HW191477   0.231   7.207   5.042
29860SOL    HW291478   0.258   7.133   5.171
29861SOL     OW91479  11.739  13.770   8.255
29861SOL    HW191480  11.696  13.767   8.341
29861SOL    HW291481  11.832  13.768   8.274
29862SOL     OW91482  10.821   3.826   1.384
29862SOL    HW191483  10.823   3.885   1.460
29862SOL    HW291484  10.839   3.882   1.309
29863SOL     OW91485   4.439   8.525   6.493
29863SOL    HW191486   4.471   8.609   6.525
29863SOL    HW291487   4.366   8.547   6.436
29864SOL     OW91488   3.545  13.543   3.732
29864SOL    HW191489   3.599  13.612   3.695
29864SOL    HW291490   3.579  13.462   3.693
29865SOL     OW91491   6.362   5.228   7.317
29865SOL    HW191492   6.410   5.226   7.235
29865SOL    HW291493   6.414   5.174   7.377
29866SOL     OW91494   4.272   6.450  12.907
29866SOL    HW191495   4.356   6.408  12.888
29866SOL    HW291496   4.207   6.381  12.890
29867SOL     OW91497   6.257   8.005   8.551
29867SOL    HW191498   6.326   7.939   8.537
29867SOL    HW291499   6.300   8.075   8.601
29868SOL     OW91500   7.895   9.837   1.326
29868SOL    HW191501   7.986   9.869   1.323
29868SOL    HW291502   7.889   9.793   1.411
29869SOL     OW91503   0.893  14.740   1.511
29869SOL    HW191504   0.839  14.697   1.577
29869SOL    HW291505   0.949  14.669   1.477
29870SOL     OW91506  11.537   2.008   2.276
29870SOL    HW191507  11.633   2.004   2.276
29870SOL    HW291508  11.510   1.946   2.208
29871SOL     OW91509   7.199  14.300   7.343
29871SOL    HW191510   7.260  14.230   7.322
29871SOL    HW291511   7.230  14.376   7.295
29872SOL     OW91512   7.167   2.651  10.458
29872SOL    HW191513   7.253   2.691  10.442
29872SOL    HW291514   7.147   2.672  10.549
29873SOL     OW91515   4.101  11.565  11.600
29873SOL    HW191516   4.070  11.503  11.535
29873SOL    HW291517   4.165  11.516  11.652
29874SOL     OW91518   8.847  12.834  10.944
29874SOL    HW191519   8.852  12.913  10.890
29874SOL    HW291520   8.775  12.852  11.005
29875SOL     OW91521   8.019  10.858   5.064
29875SOL    HW191522   7.978  10.856   5.150
29875SOL    HW291523   8.103  10.814   5.076
29876SOL     OW91524  12.387   3.336  11.490
29876SOL    HW191525  12.442   3.378  11.556
29876SOL    HW291526  12.439   3.261  11.460
29877SOL     OW91527   5.570  13.034  10.981
29877SOL    HW191528   5.512  13.031  11.057
29877SOL    HW291529   5.623  12.955  10.989
29878SOL     OW91530   9.326  12.718   8.763
29878SOL    HW191531   9.396  12.653   8.771
29878SOL    HW291532   9.309  12.747   8.852
29879SOL     OW91533   0.975  11.353  12.435
29879SOL    HW191534   0.921  11.396  12.502
29879SOL    HW291535   0.948  11.261  12.437
29880SOL     OW91536  12.897   8.402  14.095
29880SOL    HW191537  12.945   8.352  14.029
29880SOL    HW291538  12.857   8.474  14.046
29881SOL     OW91539   6.606  13.934   6.027
29881SOL    HW191540   6.618  13.916   6.121
29881SOL    HW291541   6.515  13.964   6.021
29882SOL     OW91542   6.031   4.993   0.166
29882SOL    HW191543   6.115   5.033   0.191
29882SOL    HW291544   6.056   4.920   0.109
29883SOL     OW91545  14.470   6.031   9.535
29883SOL    HW191546  14.502   5.954   9.488
29883SOL    HW291547  14.547   6.087   9.545
29884SOL     OW91548  13.907   4.229  14.704
29884SOL    HW191549  13.830   4.277  14.673
29884SOL    HW291550  13.979   4.262  14.651
29885SOL     OW91551   4.268   1.225  11.339
29885SOL    HW191552   4.261   1.138  11.299
29885SOL    HW291553   4.333   1.270  11.286
29886SOL     OW91554  13.060   5.111  10.855
29886SOL    HW191555  12.984   5.094  10.911
29886SOL    HW291556  13.120   5.038  10.872
29887SOL     OW91557  11.969  14.715  13.134
29887SOL    HW191558  11.983  14.667  13.216
29887SOL    HW291559  12.046  14.771  13.127
29888SOL     OW91560   0.205   7.757  10.400
29888SOL    HW191561   0.127   7.812  10.400
29888SOL    HW291562   0.215   7.729  10.309
29889SOL     OW91563   7.738   1.071  12.919
29889SOL    HW191564   7.779   1.049  13.003
29889SOL    HW291565   7.782   1.151  12.891
29890SOL     OW91566   0.613  10.398   6.636
29890SOL    HW191567   0.551  10.409   6.708
29890SOL    HW291568   0.582  10.458   6.568
29891SOL     OW91569  14.523  11.036   3.621
29891SOL    HW191570  14.438  11.027   3.663
29891SOL    HW291571  14.507  11.092   3.545
29892SOL     OW91572   8.201  14.593   2.582
29892SOL    HW191573   8.111  14.569   2.602
29892SOL    HW291574   8.216  14.561   2.493
29893SOL     OW91575   6.961   6.911   4.256
29893SOL    HW191576   6.866   6.911   4.251
29893SOL    HW291577   6.982   6.830   4.303
29894SOL     OW91578   0.660  11.788   5.742
29894SOL    HW191579   0.723  11.860   5.742
29894SOL    HW291580   0.714  11.709   5.756
29895SOL     OW91581   8.236  12.153  10.058
29895SOL    HW191582   8.317  12.106  10.039
29895SOL    HW291583   8.172  12.118   9.996
29896SOL     OW91584  10.845   6.834   6.268
29896SOL    HW191585  10.874   6.914   6.225
29896SOL    HW291586  10.868   6.847   6.361
29897SOL     OW91587   9.854  12.530  13.965
29897SOL    HW191588   9.878  12.502  13.877
29897SOL    HW291589   9.936  12.527  14.015
29898SOL     OW91590   4.312   1.018   4.258
29898SOL    HW191591   4.287   0.933   4.223
29898SOL    HW291592   4.376   0.999   4.327
29899SOL     OW91593   7.787  14.828  12.999
29899SOL    HW191594   7.826   0.005  13.071
29899SOL    HW291595   7.762  14.744  13.037
29900SOL     OW91596   8.603  10.575   8.711
29900SOL    HW191597   8.605  10.671   8.713
29900SOL    HW291598   8.636  10.548   8.796
29901SOL     OW91599  14.103  14.700   7.633
29901SOL    HW191600  14.072  14.624   7.584
29901SOL    HW291601  14.168  14.741   7.576
29902SOL     OW91602   9.556  10.072   5.243
29902SOL    HW191603   9.504  10.059   5.164
29902SOL    HW291604   9.493  10.064   5.315
29903SOL     OW91605   4.654   5.322   1.231
29903SOL    HW191606   4.677   5.277   1.312
29903SOL    HW291607   4.721   5.294   1.168
29904SOL     OW91608  11.302  13.089   7.829
29904SOL    HW191609  11.290  13.172   7.782
29904SOL    HW291610  11.237  13.092   7.900
29905SOL     OW91611  10.123   0.505   0.712
29905SOL    HW191612  10.094   0.569   0.648
29905SOL    HW291613  10.154   0.558   0.786
29906SOL     OW91614  10.780   5.404   3.829
29906SOL    HW191615  10.830   5.420   3.909
29906SOL    HW291616  10.689   5.414   3.856
29907SOL     OW91617  11.339  11.213  10.798
29907SOL    HW191618  11.249  11.239  10.813
29907SOL    HW291619  11.366  11.262  10.720
29908SOL     OW91620  13.818   9.865   4.288
29908SOL    HW191621  13.868   9.784   4.277
29908SOL    HW291622  13.859   9.909   4.363
29909SOL     OW91623   1.086   9.692  11.990
29909SOL    HW191624   1.035   9.618  11.957
29909SOL    HW291625   1.165   9.653  12.026
29910SOL     OW91626  11.610   6.121   5.767
29910SOL    HW191627  11.515   6.110   5.777
29910SOL    HW291628  11.638   6.043   5.718
29911SOL     OW91629   6.436   9.917   2.360
29911SOL    HW191630   6.381   9.912   2.281
29911SOL    HW291631   6.498   9.845   2.350
29912SOL     OW91632   0.435   3.813   6.281
29912SOL    HW191633   0.456   3.906   6.269
29912SOL    HW291634   0.505   3.766   6.234
29913SOL     OW91635  10.951   0.809  12.068
29913SOL    HW191636  10.954   0.895  12.111
29913SOL    HW291637  10.952   0.829  11.975
29914SOL     OW91638  14.737   6.762   1.793
29914SOL    HW191639  14.780   6.785   1.711
29914SOL    HW291640  14.765   6.672   1.810
29915SOL     OW91641   8.282  14.333   2.950
29915SOL    HW191642   8.217  14.304   3.014
29915SOL    HW291643   8.335  14.397   2.998
29916SOL     OW91644   0.183  12.308   1.223
29916SOL    HW191645   0.251  12.278   1.162
29916SOL    HW291646   0.224  12.379   1.272
29917SOL     OW91647  14.705   3.168   4.620
29917SOL    HW191648  14.794   3.148   4.648
29917SOL    HW291649  14.697   3.126   4.534
29918SOL     OW91650   0.526  14.021   2.544
29918SOL    HW191651   0.622  14.031   2.546
29918SOL    HW291652   0.513  13.931   2.513
29919SOL     OW91653   0.340  10.089   9.078
29919SOL    HW191654   0.413  10.054   9.027
29919SOL    HW291655   0.324  10.175   9.040
29920SOL     OW91656  13.173   2.663   0.621
29920SOL    HW191657  13.111   2.733   0.599
29920SOL    HW291658  13.121   2.602   0.674
29921SOL     OW91659   2.181  10.985  11.754
29921SOL    HW191660   2.235  11.056  11.789
29921SOL    HW291661   2.179  11.000  11.659
29922SOL     OW91662   9.967   8.360   0.492
29922SOL    HW191663  10.005   8.275   0.517
29922SOL    HW291664   9.890   8.369   0.548
29923SOL     OW91665  12.235  14.439   1.278
29923SOL    HW191666  12.193  14.368   1.230
29923SOL    HW291667  12.241  14.407   1.368
29924SOL     OW91668  13.612   6.520   2.762
29924SOL    HW191669  13.695   6.532   2.716
29924SOL    HW291670  13.569   6.606   2.757
29925SOL     OW91671   9.498  10.282   1.958
29925SOL    HW191672   9.529  10.293   2.048
29925SOL    HW291673   9.414  10.328   1.955
29926SOL     OW91674   1.118   6.115   6.035
29926SOL    HW191675   1.034   6.076   6.011
29926SOL    HW291676   1.151   6.060   6.107
29927SOL     OW91677   4.457   8.598   9.492
29927SOL    HW191678   4.389   8.621   9.430
29927SOL    HW291679   4.505   8.680   9.506
29928SOL     OW91680  11.105  14.347  11.710
29928SOL    HW191681  11.175  14.372  11.650
29928SOL    HW291682  11.026  14.389  11.674
29929SOL     OW91683   7.313   1.254   5.102
29929SOL    HW191684   7.360   1.222   5.025
29929SOL    HW291685   7.351   1.205   5.175
29930SOL     OW91686   8.300   4.156   1.815
29930SOL    HW191687   8.308   4.185   1.906
29930SOL    HW291688   8.338   4.068   1.815
29931SOL     OW91689   7.968   9.484   8.416
29931SOL    HW191690   7.922   9.546   8.358
29931SOL    HW291691   7.902   9.459   8.481
29932SOL     OW91692  12.160  11.292  13.463
29932SOL    HW191693  12.241  11.328  13.498
29932SOL    HW291694  12.186  11.210  13.421
29933SOL     OW91695   2.121   1.990   8.957
29933SOL    HW191696   2.191   1.925   8.952
29933SOL    HW291697   2.108   2.004   9.050
29934SOL     OW91698   7.735   8.449  14.404
29934SOL    HW191699   7.693   8.491  14.479
29934SOL    HW291700   7.829   8.456  14.421
29935SOL     OW91701   8.223   5.742   9.486
29935SOL    HW191702   8.195   5.696   9.565
29935SOL    HW291703   8.310   5.706   9.467
29936SOL     OW91704   1.837   4.638   8.630
29936SOL    HW191705   1.920   4.682   8.648
29936SOL    HW291706   1.833   4.567   8.694
29937SOL     OW91707   6.653   2.943   4.333
29937SOL    HW191708   6.585   2.880   4.308
29937SOL    HW291709   6.646   3.013   4.268
29938SOL     OW91710   8.889  11.210  11.509
29938SOL    HW191711   8.804  11.168  11.523
29938SOL    HW291712   8.952  11.149  11.546
29939SOL     OW91713   9.418   8.863  10.834
29939SOL    HW191714   9.338   8.875  10.783
29939SOL    HW291715   9.416   8.771  10.860
29940SOL     OW91716   3.916  13.154  10.853
29940SOL    HW191717   3.846  13.129  10.913
29940SOL    HW291718   3.959  13.229  10.896
29941SOL     OW91719   6.218  12.363   4.344
29941SOL    HW191720   6.151  12.297   4.329
29941SOL    HW291721   6.264  12.369   4.260
29942SOL     OW91722   5.061   7.207   1.979
29942SOL    HW191723   5.107   7.191   2.061
29942SOL    HW291724   4.974   7.168   1.992
29943SOL     OW91725   7.710  14.388  12.886
29943SOL    HW191726   7.665  14.472  12.880
29943SOL    HW291727   7.704  14.364  12.979
29944SOL     OW91728  10.133  11.063  11.572
29944SOL    HW191729  10.134  11.150  11.531
29944SOL    HW291730  10.041  11.037  11.569
29945SOL     OW91731   2.682   3.951  11.044
29945SOL    HW191732   2.611   3.915  11.098
29945SOL    HW291733   2.716   4.024  11.095
29946SOL     OW91734   3.285   5.153  11.877
29946SOL    HW191735   3.230   5.076  11.886
29946SOL    HW291736   3.306   5.157  11.783
29947SOL     OW91737   4.688  11.431   4.042
29947SOL    HW191738   4.640  11.514   4.048
29947SOL    HW291739   4.623  11.364   4.066
29948SOL     OW91740   1.712   2.703   3.369
29948SOL    HW191741   1.652   2.751   3.313
29948SOL    HW291742   1.688   2.729   3.458
29949SOL     OW91743   1.636  14.163   5.169
29949SOL    HW191744   1.629  14.258   5.176
29949SOL    HW291745   1.565  14.129   5.223
29950SOL     OW91746   2.118   5.190   3.209
29950SOL    HW191747   2.146   5.144   3.288
29950SOL    HW291748   2.025   5.167   3.199
29951SOL     OW91749   9.319  12.988   2.664
29951SOL    HW191750   9.384  13.053   2.636
29951SOL    HW291751   9.357  12.947   2.741
29952SOL     OW91752   3.018   3.483  11.211
29952SOL    HW191753   2.999   3.412  11.149
29952SOL    HW291754   3.061   3.439  11.284
29953SOL     OW91755  11.350   8.665   9.897
29953SOL    HW191756  11.431   8.650   9.847
29953SOL    HW291757  11.380   8.699   9.981
29954SOL     OW91758   0.794   1.336   9.942
29954SOL    HW191759   0.864   1.391   9.909
29954SOL    HW291760   0.779   1.367  10.031
29955SOL     OW91761  14.167   0.861  12.926
29955SOL    HW191762  14.221   0.882  13.003
29955SOL    HW291763  14.084   0.832  12.963
29956SOL     OW91764  10.062   6.625   9.466
29956SOL    HW191765   9.990   6.585   9.417
29956SOL    HW291766  10.040   6.612   9.558
29957SOL     OW91767   3.231   5.609   5.210
29957SOL    HW191768   3.213   5.619   5.303
29957SOL    HW291769   3.323   5.580   5.206
29958SOL     OW91770   7.503   5.572   8.495
29958SOL    HW191771   7.485   5.645   8.435
29958SOL    HW291772   7.587   5.595   8.535
29959SOL     OW91773  13.574   6.829   4.669
29959SOL    HW191774  13.496   6.823   4.725
29959SOL    HW291775  13.602   6.738   4.658
29960SOL     OW91776  12.237   7.693   2.745
29960SOL    HW191777  12.305   7.757   2.724
29960SOL    HW291778  12.268   7.649   2.824
29961SOL     OW91779   4.054  12.751   3.459
29961SOL    HW191780   4.049  12.656   3.458
29961SOL    HW291781   4.075  12.773   3.550
29962SOL     OW91782  12.527  10.201  11.749
29962SOL    HW191783  12.484  10.124  11.786
29962SOL    HW291784  12.590  10.227  11.815
29963SOL     OW91785   6.849  12.904   6.065
29963SOL    HW191786   6.794  12.981   6.052
29963SOL    HW291787   6.917  12.933   6.126
29964SOL     OW91788   0.186   9.066   8.989
29964SOL    HW191789   0.111   9.047   8.932
29964SOL    HW291790   0.183   9.161   9.002
29965SOL     OW91791   5.516   0.855  14.714
29965SOL    HW191792   5.576   0.815  14.651
29965SOL    HW291793   5.483   0.781  14.766
29966SOL     OW91794   2.850   8.987  14.476
29966SOL    HW191795   2.812   9.008  14.561
29966SOL    HW291796   2.929   9.041  14.471
29967SOL     OW91797  12.290  12.223   4.675
29967SOL    HW191798  12.228  12.152   4.656
29967SOL    HW291799  12.346  12.189   4.745
29968SOL     OW91800   5.415   5.273   7.766
29968SOL    HW191801   5.406   5.327   7.845
29968SOL    HW291802   5.493   5.308   7.722
29969SOL     OW91803  13.177   8.825  10.278
29969SOL    HW191804  13.212   8.784  10.357
29969SOL    HW291805  13.088   8.790  10.271
29970SOL     OW91806   7.218   3.168   9.783
29970SOL    HW191807   7.239   3.195   9.873
29970SOL    HW291808   7.178   3.081   9.793
29971SOL     OW91809   8.860   0.109  12.018
29971SOL    HW191810   8.805   0.185  12.002
29971SOL    HW291811   8.942   0.146  12.052
29972SOL     OW91812   2.286   7.898   3.037
29972SOL    HW191813   2.196   7.909   3.066
29972SOL    HW291814   2.338   7.912   3.117
29973SOL     OW91815  11.314   8.891   1.724
29973SOL    HW191816  11.351   8.964   1.675
29973SOL    HW291817  11.389   8.837   1.749
29974SOL     OW91818   6.556  14.763  11.940
29974SOL    HW191819   6.563  14.857  11.920
29974SOL    HW291820   6.593  14.720  11.863
29975SOL     OW91821   3.165  14.229  13.062
29975SOL    HW191822   3.119  14.149  13.089
29975SOL    HW291823   3.121  14.299  13.110
29976SOL     OW91824   2.069   4.567   4.649
29976SOL    HW191825   2.074   4.619   4.569
29976SOL    HW291826   2.052   4.631   4.718
29977SOL     OW91827   0.335   8.190   9.408
29977SOL    HW191828   0.303   8.103   9.432
29977SOL    HW291829   0.263   8.249   9.431
29978SOL     OW91830   9.984   1.233  10.915
29978SOL    HW191831  10.076   1.241  10.939
29978SOL    HW291832   9.974   1.292  10.840
29979SOL     OW91833   2.543   9.129  14.860
29979SOL    HW191834   2.568   9.182   0.064
29979SOL    HW291835   2.463   9.085   0.015
29980SOL     OW91836   1.431  12.170   6.700
29980SOL    HW191837   1.484  12.109   6.650
29980SOL    HW291838   1.420  12.129   6.786
29981SOL     OW91839  13.978   5.355   8.018
29981SOL    HW191840  13.977   5.412   8.095
29981SOL    HW291841  14.064   5.315   8.020
29982SOL     OW91842   2.520   9.862   3.876
29982SOL    HW191843   2.536   9.927   3.808
29982SOL    HW291844   2.558   9.899   3.955
29983SOL     OW91845   7.169   4.583   6.558
29983SOL    HW191846   7.257   4.616   6.540
29983SOL    HW291847   7.134   4.642   6.624
29984SOL     OW91848   9.715   1.824   1.127
29984SOL    HW191849   9.793   1.870   1.156
29984SOL    HW291850   9.714   1.834   1.032
29985SOL     OW91851  11.629   6.519  12.629
29985SOL    HW191852  11.594   6.484  12.547
29985SOL    HW291853  11.633   6.444  12.688
29986SOL     OW91854   7.947   7.930   4.035
29986SOL    HW191855   7.951   7.875   3.957
29986SOL    HW291856   7.983   7.875   4.105
29987SOL     OW91857   5.179   8.654  11.134
29987SOL    HW191858   5.156   8.708  11.059
29987SOL    HW291859   5.098   8.648  11.185
29988SOL     OW91860   6.154  10.564   0.972
29988SOL    HW191861   6.083  10.550   0.909
29988SOL    HW291862   6.189  10.650   0.951
29989SOL     OW91863  13.337   6.460  14.421
29989SOL    HW191864  13.364   6.419  14.503
29989SOL    HW291865  13.414   6.456  14.365
29990SOL     OW91866   2.728   4.003   0.878
29990SOL    HW191867   2.821   3.990   0.859
29990SOL    HW291868   2.695   4.055   0.804
29991SOL     OW91869   4.414  13.857  12.208
29991SOL    HW191870   4.495  13.847  12.159
29991SOL    HW291871   4.374  13.770  12.206
29992SOL     OW91872   6.008  11.603   4.362
29992SOL    HW191873   5.936  11.662   4.382
29992SOL    HW291874   6.060  11.649   4.296
29993SOL     OW91875   1.381   2.446   8.439
29993SOL    HW191876   1.382   2.351   8.442
29993SOL    HW291877   1.304   2.468   8.387
29994SOL     OW91878  12.065  10.246   3.560
29994SOL    HW191879  12.064  10.212   3.471
29994SOL    HW291880  12.005  10.189   3.609
29995SOL     OW91881  12.365   9.646  12.588
29995SOL    HW191882  12.365   9.637  12.492
29995SOL    HW291883  12.455   9.670  12.610
29996SOL     OW91884  14.026  13.763   7.621
29996SOL    HW191885  14.111  13.804   7.640
29996SOL    HW291886  14.047  13.690   7.563
29997SOL     OW91887   9.350   8.413  14.350
29997SOL    HW191888   9.382   8.393  14.262
29997SOL    HW291889   9.356   8.331  14.398
29998SOL     OW91890   8.920   8.487   9.675
29998SOL    HW191891   8.865   8.566   9.679
29998SOL    HW291892   8.886   8.431   9.744
29999SOL     OW91893   0.767  12.955   3.292
29999SOL    HW191894   0.696  12.918   3.344
29999SOL    HW291895   0.784  13.040   3.332
30000SOL     OW91896   2.713   3.073   8.169
30000SOL    HW191897   2.646   3.032   8.224
30000SOL    HW291898   2.780   3.006   8.158
30001SOL     OW91899   3.246   8.825   7.870
30001SOL    HW191900   3.158   8.802   7.897
30001SOL    HW291901   3.303   8.791   7.939
30002SOL     OW91902  12.857   9.966  11.265
30002SOL    HW191903  12.875   9.874  11.285
30002SOL    HW291904  12.820   9.964  11.177
30003SOL     OW91905  11.112  12.460   8.553
30003SOL    HW191906  11.097  12.388   8.614
30003SOL    HW291907  11.024  12.493   8.534
30004SOL     OW91908   2.835   9.105  11.348
30004SOL    HW191909   2.850   9.198  11.331
30004SOL    HW291910   2.919   9.063  11.329
30005SOL     OW91911   6.876  14.279   3.572
30005SOL    HW191912   6.792  14.262   3.613
30005SOL    HW291913   6.916  14.193   3.561
30006SOL     OW91914  10.484   8.347   7.967
30006SOL    HW191915  10.493   8.426   8.020
30006SOL    HW291916  10.516   8.371   7.880
30007SOL     OW91917   2.116   1.157   9.453
30007SOL    HW191918   2.203   1.169   9.493
30007SOL    HW291919   2.071   1.241   9.468
30008SOL     OW91920   3.146   8.419   2.680
30008SOL    HW191921   3.060   8.378   2.678
30008SOL    HW291922   3.128   8.513   2.674
30009SOL     OW91923   8.727   3.808   3.621
30009SOL    HW191924   8.670   3.811   3.698
30009SOL    HW291925   8.720   3.719   3.589
30010SOL     OW91926   3.818   2.005   3.174
30010SOL    HW191927   3.829   2.086   3.124
30010SOL    HW291928   3.805   1.938   3.107
30011SOL     OW91929  11.390   9.145  13.137
30011SOL    HW191930  11.352   9.178  13.056
30011SOL    HW291931  11.484   9.148  13.122
30012SOL     OW91932  13.566  10.272  12.398
30012SOL    HW191933  13.482  10.294  12.358
30012SOL    HW291934  13.630  10.285  12.328
30013SOL     OW91935   2.186   5.933   2.708
30013SOL    HW191936   2.108   5.918   2.655
30013SOL    HW291937   2.195   5.855   2.763
30014SOL     OW91938   8.796   2.665   7.835
30014SOL    HW191939   8.793   2.578   7.797
30014SOL    HW291940   8.728   2.664   7.903
30015SOL     OW91941  12.688   6.843   9.892
30015SOL    HW191942  12.731   6.810   9.971
30015SOL    HW291943  12.623   6.776   9.871
30016SOL     OW91944   0.051   7.882   8.222
30016SOL    HW191945  14.853   7.943   8.241
30016SOL    HW291946   0.102   7.924   8.153
30017SOL     OW91947   3.617   0.450  12.952
30017SOL    HW191948   3.637   0.542  12.968
30017SOL    HW291949   3.685   0.402  12.999
30018SOL     OW91950   6.153   4.552  13.383
30018SOL    HW191951   6.108   4.540  13.300
30018SOL    HW291952   6.187   4.641  13.381
30019SOL     OW91953  11.396   7.203   2.856
30019SOL    HW191954  11.388   7.219   2.950
30019SOL    HW291955  11.332   7.260   2.816
30020SOL     OW91956  11.341   2.092   5.689
30020SOL    HW191957  11.398   2.038   5.744
30020SOL    HW291958  11.371   2.181   5.704
30021SOL     OW91959   4.405   3.004   0.955
30021SOL    HW191960   4.377   2.999   1.047
30021SOL    HW291961   4.325   3.025   0.907
30022SOL     OW91962   9.776  11.653   3.365
30022SOL    HW191963   9.853  11.614   3.324
30022SOL    HW291964   9.807  11.737   3.399
30023SOL     OW91965  10.435   6.347   5.765
30023SOL    HW191966  10.349   6.386   5.748
30023SOL    HW291967  10.476   6.407   5.828
30024SOL     OW91968   6.546  11.605   3.473
30024SOL    HW191969   6.608  11.545   3.431
30024SOL    HW291970   6.489  11.548   3.525
30025SOL     OW91971   6.198   0.794   1.740
30025SOL    HW191972   6.169   0.723   1.798
30025SOL    HW291973   6.143   0.786   1.662
30026SOL     OW91974   2.909  12.261   0.679
30026SOL    HW191975   2.898  12.321   0.604
30026SOL    HW291976   2.969  12.308   0.737
30027SOL     OW91977   1.595   0.121   5.131
30027SOL    HW191978   1.567   0.050   5.190
30027SOL    HW291979   1.551   0.101   5.048
30028SOL     OW91980  13.386   3.826   2.876
30028SOL    HW191981  13.464   3.837   2.822
30028SOL    HW291982  13.410   3.758   2.938
30029SOL     OW91983   3.566   4.264   7.785
30029SOL    HW191984   3.622   4.331   7.746
30029SOL    HW291985   3.607   4.181   7.761
30030SOL     OW91986  13.998  10.870   8.187
30030SOL    HW191987  13.989  10.798   8.249
30030SOL    HW291988  13.925  10.929   8.207
30031SOL     OW91989   4.014   7.320  11.288
30031SOL    HW191990   3.972   7.279  11.364
30031SOL    HW291991   3.963   7.289  11.213
30032SOL     OW91992   4.510   3.764   6.526
30032SOL    HW191993   4.546   3.680   6.497
30032SOL    HW291994   4.553   3.829   6.470
30033SOL     OW91995   9.037   3.990   4.919
30033SOL    HW191996   8.982   3.987   4.841
30033SOL    HW291997   8.979   4.027   4.987
30034SOL     OW91998  11.211  10.975   7.745
30034SOL    HW191999  11.259  10.985   7.663
30034SOL    HW292000  11.254  10.900   7.788
30035SOL     OW92001   0.712   6.861   9.270
30035SOL    HW192002   0.667   6.818   9.343
30035SOL    HW292003   0.754   6.937   9.310
30036SOL     OW92004  14.254   9.688   2.981
30036SOL    HW192005  14.199   9.626   3.028
30036SOL    HW292006  14.207   9.772   2.987
30037SOL     OW92007   4.357   3.384   5.023
30037SOL    HW192008   4.382   3.470   4.990
30037SOL    HW292009   4.434   3.329   5.007
30038SOL     OW92010  14.180   9.316  11.121
30038SOL    HW192011  14.230   9.361  11.053
30038SOL    HW292012  14.092   9.306  11.084
30039SOL     OW92013   7.998  13.393   8.767
30039SOL    HW192014   8.063  13.352   8.823
30039SOL    HW292015   7.936  13.434   8.827
30040SOL     OW92016  13.870   7.885   5.220
30040SOL    HW192017  13.899   7.852   5.305
30040SOL    HW292018  13.904   7.975   5.216
30041SOL     OW92019   8.457   0.186   6.654
30041SOL    HW192020   8.466   0.097   6.621
30041SOL    HW292021   8.403   0.230   6.589
30042SOL     OW92022  11.044   4.901  12.379
30042SOL    HW192023  11.020   4.914  12.287
30042SOL    HW292024  11.139   4.911  12.381
30043SOL     OW92025   7.532   1.765   0.684
30043SOL    HW192026   7.464   1.782   0.618
30043SOL    HW292027   7.582   1.846   0.688
30044SOL     OW92028   9.570  11.798   0.758
30044SOL    HW192029   9.538  11.732   0.696
30044SOL    HW292030   9.651  11.830   0.720
30045SOL     OW92031   3.033   2.901   7.150
30045SOL    HW192032   3.015   2.921   7.242
30045SOL    HW292033   3.062   2.984   7.112
30046SOL     OW92034   9.666   8.391   1.773
30046SOL    HW192035   9.581   8.372   1.733
30046SOL    HW292036   9.725   8.406   1.699
30047SOL     OW92037   8.893  10.563   5.624
30047SOL    HW192038   8.825  10.593   5.565
30047SOL    HW292039   8.847  10.539   5.705
30048SOL     OW92040   6.845   2.696  10.039
30048SOL    HW192041   6.840   2.792  10.034
30048SOL    HW292042   6.926   2.673   9.995
30049SOL     OW92043  10.728   5.391   4.882
30049SOL    HW192044  10.783   5.365   4.808
30049SOL    HW292045  10.639   5.394   4.846
30050SOL     OW92046  14.499  12.501   5.902
30050SOL    HW192047  14.406  12.502   5.881
30050SOL    HW292048  14.506  12.549   5.984
30051SOL     OW92049   6.587   4.438  13.382
30051SOL    HW192050   6.675   4.448  13.347
30051SOL    HW292051   6.543   4.520  13.361
30052SOL     OW92052  12.811   0.358   1.717
30052SOL    HW192053  12.876   0.326   1.655
30052SOL    HW292054  12.801   0.286   1.780
30053SOL     OW92055  13.791  12.178  13.648
30053SOL    HW192056  13.851  12.128  13.592
30053SOL    HW292057  13.840  12.257  13.671
30054SOL     OW92058   4.492   1.276   7.846
30054SOL    HW192059   4.566   1.312   7.895
30054SOL    HW292060   4.505   1.307   7.757
30055SOL     OW92061   7.914   2.739   8.673
30055SOL    HW192062   7.937   2.730   8.766
30055SOL    HW292063   7.819   2.722   8.670
30056SOL     OW92064  12.278  12.926   4.013
30056SOL    HW192065  12.308  12.835   4.019
30056SOL    HW292066  12.322  12.961   3.936
30057SOL     OW92067   4.713   2.026   5.846
30057SOL    HW192068   4.636   2.081   5.831
30057SOL    HW292069   4.715   2.013   5.941
30058SOL     OW92070  10.556  10.045   8.959
30058SOL    HW192071  10.591  10.091   9.036
30058SOL    HW292072  10.545  10.112   8.893
30059SOL     OW92073  14.068   3.758  11.920
30059SOL    HW192074  13.990   3.775  11.867
30059SOL    HW292075  14.109   3.683  11.879
30060SOL     OW92076   9.359   7.430   5.862
30060SOL    HW192077   9.283   7.464   5.908
30060SOL    HW292078   9.391   7.504   5.810
30061SOL     OW92079   0.736   9.652  14.289
30061SOL    HW192080   0.822   9.611  14.275
30061SOL    HW292081   0.721   9.702  14.209
30062SOL     OW92082  12.884  13.107   0.683
30062SOL    HW192083  12.917  13.082   0.769
30062SOL    HW292084  12.908  13.035   0.626
30063SOL     OW92085   4.365   7.131   1.847
30063SOL    HW192086   4.370   7.190   1.922
30063SOL    HW292087   4.323   7.183   1.779
30064SOL     OW92088   1.078  13.101   0.440
30064SOL    HW192089   1.126  13.142   0.368
30064SOL    HW292090   1.037  13.174   0.486
30065SOL     OW92091  10.833   6.563  11.303
30065SOL    HW192092  10.768   6.617  11.257
30065SOL    HW292093  10.808   6.473  11.282
30066SOL     OW92094   9.614   6.240  10.146
30066SOL    HW192095   9.616   6.145  10.132
30066SOL    HW292096   9.634   6.251  10.239
30067SOL     OW92097  14.360   2.326  11.993
30067SOL    HW192098  14.442   2.369  12.016
30067SOL    HW292099  14.311   2.320  12.075
30068SOL     OW92100   5.586  10.035   7.797
30068SOL    HW192101   5.521  10.081   7.850
30068SOL    HW292102   5.552   9.946   7.788
30069SOL     OW92103  11.355   4.292   6.274
30069SOL    HW192104  11.431   4.326   6.321
30069SOL    HW292105  11.298   4.368   6.262
30070SOL     OW92106   2.328   3.086   1.059
30070SOL    HW192107   2.382   3.010   1.081
30070SOL    HW292108   2.373   3.126   0.984
30071SOL     OW92109   5.232   7.289  12.988
30071SOL    HW192110   5.138   7.306  12.995
30071SOL    HW292111   5.242   7.238  12.908
30072SOL     OW92112   9.755  11.728  14.831
30072SOL    HW192113   9.726  11.816  14.855
30072SOL    HW292114   9.682  11.691  14.781
30073SOL     OW92115  10.659  13.227   9.352
30073SOL    HW192116  10.648  13.231   9.447
30073SOL    HW292117  10.670  13.319   9.325
30074SOL     OW92118   9.246   6.678   1.308
30074SOL    HW192119   9.295   6.609   1.353
30074SOL    HW292120   9.277   6.675   1.218
30075SOL     OW92121   9.959  10.281  11.113
30075SOL    HW192122   9.889  10.341  11.141
30075SOL    HW292123   9.913  10.215  11.061
30076SOL     OW92124  12.706   8.935  12.378
30076SOL    HW192125  12.704   8.844  12.410
30076SOL    HW292126  12.629   8.942  12.321
30077SOL     OW92127  12.475   9.402   6.706
30077SOL    HW192128  12.460   9.392   6.612
30077SOL    HW292129  12.526   9.325   6.731
30078SOL     OW92130   8.988   9.398   8.458
30078SOL    HW192131   8.974   9.381   8.365
30078SOL    HW292132   8.943   9.327   8.503
30079SOL     OW92133   4.350   6.681   6.345
30079SOL    HW192134   4.272   6.725   6.311
30079SOL    HW292135   4.377   6.734   6.420
30080SOL     OW92136   6.552  11.850   2.799
30080SOL    HW192137   6.468  11.807   2.814
30080SOL    HW292138   6.608  11.782   2.763
30081SOL     OW92139  10.753   5.989   9.574
30081SOL    HW192140  10.822   6.044   9.611
30081SOL    HW292141  10.788   5.901   9.576
30082SOL     OW92142   6.006   5.888   5.023
30082SOL    HW192143   6.092   5.913   5.057
30082SOL    HW292144   6.026   5.833   4.947
30083SOL     OW92145   5.149   2.683   6.157
30083SOL    HW192146   5.106   2.602   6.183
30083SOL    HW292147   5.242   2.666   6.169
30084SOL     OW92148   2.901  10.556  14.596
30084SOL    HW192149   2.911  10.647  14.568
30084SOL    HW292150   2.816  10.552  14.639
30085SOL     OW92151   4.341   1.864  11.943
30085SOL    HW192152   4.432   1.843  11.967
30085SOL    HW292153   4.348   1.945  11.892
30086SOL     OW92154   0.024   1.264  10.491
30086SOL    HW192155   0.117   1.252  10.511
30086SOL    HW292156   0.021   1.346  10.442
30087SOL     OW92157   3.315   8.596  10.474
30087SOL    HW192158   3.385   8.661  10.482
30087SOL    HW292159   3.320   8.545  10.554
30088SOL     OW92160  11.627   7.603   7.883
30088SOL    HW192161  11.716   7.635   7.895
30088SOL    HW292162  11.621   7.581   7.790
30089SOL     OW92163   6.089   1.323   6.191
30089SOL    HW192164   6.077   1.399   6.249
30089SOL    HW292165   6.087   1.360   6.103
30090SOL     OW92166  10.333   7.100   6.511
30090SOL    HW192167  10.270   7.029   6.495
30090SOL    HW292168  10.317   7.126   6.602
30091SOL     OW92169   3.574   6.713   7.044
30091SOL    HW192170   3.588   6.619   7.031
30091SOL    HW292171   3.606   6.753   6.962
30092SOL     OW92172  13.630   5.428   7.464
30092SOL    HW192173  13.710   5.428   7.412
30092SOL    HW292174  13.594   5.515   7.453
30093SOL     OW92175   5.463   9.549   5.966
30093SOL    HW192176   5.410   9.628   5.965
30093SOL    HW292177   5.420   9.490   5.905
30094SOL     OW92178   8.874   9.150   9.304
30094SOL    HW192179   8.822   9.087   9.354
30094SOL    HW292180   8.812   9.189   9.242
30095SOL     OW92181   5.197   0.791   8.150
30095SOL    HW192182   5.212   0.696   8.149
30095SOL    HW292183   5.166   0.809   8.239
30096SOL     OW92184  12.673  10.951   1.666
30096SOL    HW192185  12.653  10.895   1.741
30096SOL    HW292186  12.623  10.914   1.593
30097SOL     OW92187   5.591   6.870   3.907
30097SOL    HW192188   5.668   6.907   3.950
30097SOL    HW292189   5.525   6.864   3.976
30098SOL     OW92190   7.939  14.117   2.433
30098SOL    HW192191   7.864  14.063   2.408
30098SOL    HW292192   8.010  14.055   2.446
30099SOL     OW92193   7.103  14.701  12.142
30099SOL    HW192194   7.051  14.770  12.184
30099SOL    HW292195   7.067  14.620  12.177
30100SOL     OW92196   6.824   1.344  12.148
30100SOL    HW192197   6.739   1.301  12.158
30100SOL    HW292198   6.887   1.273  12.144
30101SOL     OW92199  14.113   2.862  12.095
30101SOL    HW192200  14.021   2.886  12.107
30101SOL    HW292201  14.161   2.927  12.146
30102SOL     OW92202   6.705  12.731   9.638
30102SOL    HW192203   6.789  12.684   9.647
30102SOL    HW292204   6.639  12.668   9.667
30103SOL     OW92205  11.969   0.904   4.381
30103SOL    HW192206  11.898   0.842   4.364
30103SOL    HW292207  12.031   0.889   4.310
30104SOL     OW92208  13.253  14.463   3.761
30104SOL    HW192209  13.192  14.519   3.809
30104SOL    HW292210  13.300  14.415   3.830
30105SOL     OW92211  14.002   7.190   9.358
30105SOL    HW192212  13.942   7.255   9.320
30105SOL    HW292213  14.050   7.156   9.283
30106SOL     OW92214  10.170  10.655   6.612
30106SOL    HW192215  10.136  10.578   6.657
30106SOL    HW292216  10.205  10.710   6.682
30107SOL     OW92217   7.013   0.505   5.644
30107SOL    HW192218   6.968   0.426   5.615
30107SOL    HW292219   7.106   0.484   5.635
30108SOL     OW92220  13.453   7.847  10.405
30108SOL    HW192221  13.405   7.800  10.337
30108SOL    HW292222  13.389   7.861  10.475
30109SOL     OW92223   6.725  11.566   0.307
30109SOL    HW192224   6.705  11.510   0.383
30109SOL    HW292225   6.654  11.630   0.306
30110SOL     OW92226   5.433   4.066   4.635
30110SOL    HW192227   5.519   4.065   4.677
30110SOL    HW292228   5.401   4.155   4.648
30111SOL     OW92229  14.548   2.426   2.289
30111SOL    HW192230  14.506   2.342   2.270
30111SOL    HW292231  14.583   2.455   2.205
30112SOL     OW92232   6.607  14.119  12.080
30112SOL    HW192233   6.681  14.132  12.021
30112SOL    HW292234   6.643  14.135  12.167
30113SOL     OW92235   3.800  10.291   9.087
30113SOL    HW192236   3.824  10.278   8.995
30113SOL    HW292237   3.755  10.376   9.088
30114SOL     OW92238   9.020   0.320   9.886
30114SOL    HW192239   8.955   0.346   9.821
30114SOL    HW292240   9.098   0.372   9.865
30115SOL     OW92241  11.268   3.814  14.572
30115SOL    HW192242  11.238   3.839  14.484
30115SOL    HW292243  11.340   3.754  14.556
30116SOL     OW92244  13.969   3.734   9.432
30116SOL    HW192245  13.991   3.682   9.509
30116SOL    HW292246  14.048   3.783   9.412
30117SOL     OW92247   9.954   6.553   6.056
30117SOL    HW192248   9.957   6.469   6.011
30117SOL    HW292249  10.045   6.585   6.053
30118SOL     OW92250   9.431   5.185  14.710
30118SOL    HW192251   9.388   5.110  14.669
30118SOL    HW292252   9.520   5.184  14.673
30119SOL     OW92253  11.655  13.486  12.819
30119SOL    HW192254  11.690  13.498  12.908
30119SOL    HW292255  11.653  13.574  12.782
30120SOL     OW92256  14.108   1.320  11.297
30120SOL    HW192257  14.058   1.281  11.369
30120SOL    HW292258  14.196   1.332  11.333
30121SOL     OW92259   3.145   2.618  12.371
30121SOL    HW192260   3.130   2.576  12.286
30121SOL    HW292261   3.057   2.633  12.406
30122SOL     OW92262   2.798  12.218   6.490
30122SOL    HW192263   2.846  12.137   6.472
30122SOL    HW292264   2.822  12.277   6.418
30123SOL     OW92265  13.268  12.691   0.540
30123SOL    HW192266  13.280  12.611   0.489
30123SOL    HW292267  13.344  12.694   0.598
30124SOL     OW92268  12.799   4.012   6.000
30124SOL    HW192269  12.785   3.932   6.051
30124SOL    HW292270  12.718   4.023   5.951
30125SOL     OW92271   2.637   6.981  12.343
30125SOL    HW192272   2.654   7.034  12.265
30125SOL    HW292273   2.584   7.037  12.400
30126SOL     OW92274  12.466   5.679   6.221
30126SOL    HW192275  12.479   5.651   6.131
30126SOL    HW292276  12.505   5.767   6.225
30127SOL     OW92277   3.624   0.177  10.588
30127SOL    HW192278   3.572   0.129  10.653
30127SOL    HW292279   3.601   0.136  10.505
30128SOL     OW92280  12.871  13.969   9.871
30128SOL    HW192281  12.910  13.942   9.954
30128SOL    HW292282  12.778  13.980   9.890
30129SOL     OW92283  11.617   5.731   1.526
30129SOL    HW192284  11.559   5.655   1.531
30129SOL    HW292285  11.561   5.806   1.545
30130SOL     OW92286   0.241  10.347   7.457
30130SOL    HW192287   0.204  10.297   7.530
30130SOL    HW292288   0.292  10.283   7.407
30131SOL     OW92289  13.654   4.614   2.092
30131SOL    HW192290  13.640   4.618   2.186
30131SOL    HW292291  13.748   4.632   2.081
30132SOL     OW92292   3.907   2.824   5.441
30132SOL    HW192293   3.982   2.835   5.382
30132SOL    HW292294   3.839   2.784   5.386
30133SOL     OW92295   7.314   8.985   3.859
30133SOL    HW192296   7.397   9.007   3.902
30133SOL    HW292297   7.262   8.944   3.927
30134SOL     OW92298  11.899   8.216   0.347
30134SOL    HW192299  11.806   8.220   0.369
30134SOL    HW292300  11.943   8.200   0.430
30135SOL     OW92301  13.154   0.567   7.457
30135SOL    HW192302  13.195   0.483   7.478
30135SOL    HW292303  13.159   0.573   7.361
30136SOL     OW92304   2.406   3.692   9.208
30136SOL    HW192305   2.436   3.602   9.217
30136SOL    HW292306   2.477   3.737   9.163
30137SOL     OW92307   7.589   2.645   3.818
30137SOL    HW192308   7.639   2.574   3.858
30137SOL    HW292309   7.635   2.663   3.736
30138SOL     OW92310   1.044   0.945   4.095
30138SOL    HW192311   1.033   0.850   4.091
30138SOL    HW292312   0.972   0.975   4.152
30139SOL     OW92313   7.857   3.965  13.835
30139SOL    HW192314   7.864   4.032  13.767
30139SOL    HW292315   7.814   4.009  13.908
30140SOL     OW92316   7.061  11.203   3.030
30140SOL    HW192317   7.043  11.199   3.124
30140SOL    HW292318   7.001  11.270   2.997
30141SOL     OW92319   1.666  12.514   8.561
30141SOL    HW192320   1.650  12.427   8.524
30141SOL    HW292321   1.742  12.547   8.512
30142SOL     OW92322  10.505  13.972   7.752
30142SOL    HW192323  10.472  13.995   7.839
30142SOL    HW292324  10.510  13.876   7.753
30143SOL     OW92325  12.156  13.731  10.107
30143SOL    HW192326  12.141  13.663  10.041
30143SOL    HW292327  12.116  13.810  10.071
30144SOL     OW92328  13.086   6.510   6.202
30144SOL    HW192329  13.012   6.541   6.150
30144SOL    HW292330  13.146   6.584   6.204
30145SOL     OW92331   3.982  10.750   5.838
30145SOL    HW192332   3.968  10.689   5.766
30145SOL    HW292333   3.895  10.786   5.856
30146SOL     OW92334   2.894  13.763   7.180
30146SOL    HW192335   2.802  13.781   7.202
30146SOL    HW292336   2.898  13.668   7.169
30147SOL     OW92337  14.451   6.124   4.461
30147SOL    HW192338  14.422   6.128   4.552
30147SOL    HW292339  14.539   6.085   4.466
30148SOL     OW92340  10.410  12.345   4.333
30148SOL    HW192341  10.439  12.409   4.268
30148SOL    HW292342  10.375  12.272   4.281
30149SOL     OW92343   8.086   4.502   9.404
30149SOL    HW192344   8.158   4.456   9.362
30149SOL    HW292345   8.009   4.477   9.353
30150SOL     OW92346   1.814   2.205   9.585
30150SOL    HW192347   1.815   2.299   9.567
30150SOL    HW292348   1.753   2.170   9.519
30151SOL     OW92349  11.008   1.588  13.379
30151SOL    HW192350  10.967   1.532  13.445
30151SOL    HW292351  11.086   1.623  13.423
30152SOL     OW92352  10.457   1.727   8.242
30152SOL    HW192353  10.501   1.808   8.270
30152SOL    HW292354  10.510   1.696   8.168
30153SOL     OW92355  10.979   2.627   6.538
30153SOL    HW192356  10.996   2.593   6.626
30153SOL    HW292357  10.884   2.642   6.536
30154SOL     OW92358   8.937   3.688   6.728
30154SOL    HW192359   8.992   3.614   6.701
30154SOL    HW292360   8.848   3.663   6.702
30155SOL     OW92361  13.032   6.432   3.577
30155SOL    HW192362  13.025   6.400   3.487
30155SOL    HW292363  12.951   6.403   3.619
30156SOL     OW92364   3.035   5.374   8.312
30156SOL    HW192365   3.048   5.454   8.260
30156SOL    HW292366   2.976   5.401   8.382
30157SOL     OW92367   5.107   6.145  14.520
30157SOL    HW192368   5.032   6.090  14.496
30157SOL    HW292369   5.070   6.210  14.579
30158SOL     OW92370   7.475  10.811   9.996
30158SOL    HW192371   7.448  10.872  10.065
30158SOL    HW292372   7.468  10.861   9.915
30159SOL     OW92373   5.706   0.025  12.784
30159SOL    HW192374   5.797   0.037  12.758
30159SOL    HW292375   5.688   0.097  12.844
30160SOL     OW92376   4.723   6.082  13.742
30160SOL    HW192377   4.656   6.118  13.800
30160SOL    HW292378   4.757   6.157  13.694
30161SOL     OW92379  10.289  11.986   9.287
30161SOL    HW192380  10.253  12.060   9.336
30161SOL    HW292381  10.212  11.937   9.258
30162SOL     OW92382  13.371  10.746  13.793
30162SOL    HW192383  13.426  10.783  13.862
30162SOL    HW292384  13.430  10.734  13.719
30163SOL     OW92385   1.707  14.415  13.947
30163SOL    HW192386   1.682  14.506  13.933
30163SOL    HW292387   1.742  14.386  13.863
30164SOL     OW92388  12.399  12.431   8.413
30164SOL    HW192389  12.433  12.478   8.337
30164SOL    HW292390  12.471  12.374   8.441
30165SOL     OW92391   7.369   3.811   1.650
30165SOL    HW192392   7.340   3.720   1.644
30165SOL    HW292393   7.381   3.827   1.744
30166SOL     OW92394  12.413   1.558  11.571
30166SOL    HW192395  12.441   1.650  11.568
30166SOL    HW292396  12.488   1.512  11.609
30167SOL     OW92397   3.776  14.523   0.681
30167SOL    HW192398   3.865  14.543   0.652
30167SOL    HW292399   3.720  14.578   0.626
30168SOL     OW92400   4.673   9.928  14.638
30168SOL    HW192401   4.584   9.893  14.638
30168SOL    HW292402   4.719   9.876  14.705
30169SOL     OW92403   9.206   0.200   9.242
30169SOL    HW192404   9.119   0.222   9.209
30169SOL    HW292405   9.233   0.278   9.291
30170SOL     OW92406   2.647   6.768   3.728
30170SOL    HW192407   2.658   6.863   3.739
30170SOL    HW292408   2.680   6.731   3.810
30171SOL     OW92409  10.524  14.171   0.679
30171SOL    HW192410  10.435  14.203   0.669
30171SOL    HW292411  10.522  14.116   0.758
30172SOL     OW92412  13.882  13.880   8.834
30172SOL    HW192413  13.820  13.829   8.885
30172SOL    HW292414  13.841  13.967   8.827
30173SOL     OW92415   8.808   9.213   8.615
30173SOL    HW192416   8.783   9.293   8.662
30173SOL    HW292417   8.814   9.146   8.683
30174SOL     OW92418   7.965   4.284   1.913
30174SOL    HW192419   7.966   4.351   1.982
30174SOL    HW292420   7.951   4.334   1.832
30175SOL     OW92421   2.066   2.126   9.464
30175SOL    HW192422   2.146   2.121   9.517
30175SOL    HW292423   2.002   2.169   9.521
30176SOL     OW92424   5.406   8.535   9.397
30176SOL    HW192425   5.423   8.490   9.314
30176SOL    HW292426   5.319   8.573   9.385
30177SOL     OW92427   9.020  14.364  12.801
30177SOL    HW192428   8.975  14.405  12.727
30177SOL    HW292429   8.962  14.379  12.875
30178SOL     OW92430   3.674   2.562   2.929
30178SOL    HW192431   3.644   2.567   2.839
30178SOL    HW292432   3.623   2.629   2.975
30179SOL     OW92433  14.285   3.261   4.581
30179SOL    HW192434  14.347   3.233   4.649
30179SOL    HW292435  14.264   3.352   4.604
30180SOL     OW92436   4.275   3.220   4.763
30180SOL    HW192437   4.273   3.246   4.856
30180SOL    HW292438   4.184   3.221   4.736
30181SOL     OW92439   2.034  10.609   7.444
30181SOL    HW192440   1.966  10.622   7.510
30181SOL    HW292441   1.997  10.544   7.384
30182SOL     OW92442  12.849   7.101   0.475
30182SOL    HW192443  12.933   7.074   0.438
30182SOL    HW292444  12.811   7.019   0.508
30183SOL     OW92445   4.305  10.278   2.249
30183SOL    HW192446   4.215  10.307   2.264
30183SOL    HW292447   4.302  10.183   2.265
30184SOL     OW92448   8.828   6.727   2.124
30184SOL    HW192449   8.739   6.700   2.107
30184SOL    HW292450   8.824   6.773   2.208
30185SOL     OW92451   4.089   3.107   6.151
30185SOL    HW192452   4.086   3.193   6.192
30185SOL    HW292453   4.145   3.054   6.208
30186SOL     OW92454  11.796   1.448   5.774
30186SOL    HW192455  11.829   1.462   5.685
30186SOL    HW292456  11.820   1.357   5.793
30187SOL     OW92457   9.418   2.488   4.609
30187SOL    HW192458   9.508   2.517   4.597
30187SOL    HW292459   9.425   2.394   4.623
30188SOL     OW92460   7.897  10.376   3.911
30188SOL    HW192461   7.815  10.416   3.881
30188SOL    HW292462   7.870  10.311   3.975
30189SOL     OW92463   8.466   7.963  11.352
30189SOL    HW192464   8.534   7.952  11.286
30189SOL    HW292465   8.513   7.966  11.435
30190SOL     OW92466   4.101   2.005  12.865
30190SOL    HW192467   4.044   2.052  12.925
30190SOL    HW292468   4.088   2.049  12.781
30191SOL     OW92469   3.673   4.133   0.738
30191SOL    HW192470   3.729   4.056   0.751
30191SOL    HW292471   3.585   4.098   0.727
30192SOL     OW92472   2.674   2.776  13.958
30192SOL    HW192473   2.730   2.769  13.881
30192SOL    HW292474   2.719   2.840  14.014
30193SOL     OW92475  11.945   2.521   4.069
30193SOL    HW192476  11.931   2.449   4.130
30193SOL    HW292477  12.040   2.526   4.059
30194SOL     OW92478  10.816  12.010   4.822
30194SOL    HW192479  10.892  12.063   4.798
30194SOL    HW292480  10.743  12.050   4.774
30195SOL     OW92481   6.348   7.336  12.792
30195SOL    HW192482   6.267   7.360  12.836
30195SOL    HW292483   6.406   7.412  12.805
30196SOL     OW92484   9.552   9.499   8.625
30196SOL    HW192485   9.553   9.403   8.622
30196SOL    HW292486   9.641   9.523   8.650
30197SOL     OW92487   2.213   2.414   2.685
30197SOL    HW192488   2.157   2.439   2.759
30197SOL    HW292489   2.198   2.320   2.676
30198SOL     OW92490   5.003   7.178  10.095
30198SOL    HW192491   4.964   7.166  10.009
30198SOL    HW292492   4.974   7.102  10.146
30199SOL     OW92493   5.204  12.613   4.077
30199SOL    HW192494   5.127  12.665   4.054
30199SOL    HW292495   5.277  12.674   4.073
30200SOL     OW92496   0.282   6.942   0.525
30200SOL    HW192497   0.227   6.905   0.456
30200SOL    HW292498   0.350   6.990   0.479
30201SOL     OW92499   4.773   1.879  10.444
30201SOL    HW192500   4.769   1.971  10.470
30201SOL    HW292501   4.814   1.834  10.518
30202SOL     OW92502   2.916   0.494   8.455
30202SOL    HW192503   2.920   0.416   8.398
30202SOL    HW292504   2.862   0.468   8.529
30203SOL     OW92505  12.976  12.456   0.165
30203SOL    HW192506  13.065  12.421   0.159
30203SOL    HW292507  12.920  12.380   0.173
30204SOL     OW92508  10.305   6.925   7.343
30204SOL    HW192509  10.218   6.934   7.304
30204SOL    HW292510  10.321   6.830   7.343
30205SOL     OW92511   8.797   1.048   5.754
30205SOL    HW192512   8.842   0.992   5.691
30205SOL    HW292513   8.746   0.988   5.808
30206SOL     OW92514   5.353   3.218  12.311
30206SOL    HW192515   5.399   3.240  12.230
30206SOL    HW292516   5.423   3.196  12.373
30207SOL     OW92517  10.689  13.103   4.935
30207SOL    HW192518  10.657  13.023   4.975
30207SOL    HW292519  10.722  13.075   4.849
30208SOL     OW92520   1.400   7.213   2.900
30208SOL    HW192521   1.348   7.140   2.937
30208SOL    HW292522   1.455   7.172   2.834
30209SOL     OW92523   6.807  10.817  10.242
30209SOL    HW192524   6.715  10.809  10.215
30209SOL    HW292525   6.836  10.728  10.257
30210SOL     OW92526   4.322   0.391   6.629
30210SOL    HW192527   4.398   0.377   6.685
30210SOL    HW292528   4.249   0.403   6.690
30211SOL     OW92529   5.539  12.719   2.108
30211SOL    HW192530   5.568  12.741   2.197
30211SOL    HW292531   5.457  12.766   2.098
30212SOL     OW92532   9.504   2.607   6.685
30212SOL    HW192533   9.577   2.641   6.737
30212SOL    HW292534   9.459   2.685   6.652
30213SOL     OW92535   8.477  14.314  12.255
30213SOL    HW192536   8.550  14.372  12.231
30213SOL    HW292537   8.493  14.234  12.204
30214SOL     OW92538   1.587   6.152  10.380
30214SOL    HW192539   1.650   6.183  10.315
30214SOL    HW292540   1.510   6.206  10.366
30215SOL     OW92541  10.109  14.613   4.159
30215SOL    HW192542  10.111  14.705   4.133
30215SOL    HW292543  10.024  14.581   4.130
30216SOL     OW92544   0.989   5.947   1.579
30216SOL    HW192545   0.915   5.920   1.524
30216SOL    HW292546   0.948   5.985   1.657
30217SOL     OW92547   6.555   6.059   4.030
30217SOL    HW192548   6.567   6.123   3.960
30217SOL    HW292549   6.634   6.067   4.084
30218SOL     OW92550  14.385   5.328   9.639
30218SOL    HW192551  14.425   5.391   9.579
30218SOL    HW292552  14.435   5.247   9.626
30219SOL     OW92553  13.720   7.908   1.262
30219SOL    HW192554  13.651   7.847   1.236
30219SOL    HW292555  13.773   7.859   1.325
30220SOL     OW92556  12.710   8.334   8.962
30220SOL    HW192557  12.738   8.425   8.954
30220SOL    HW292558  12.674   8.313   8.875
30221SOL     OW92559   9.961  13.281   2.860
30221SOL    HW192560   9.936  13.214   2.796
30221SOL    HW292561   9.900  13.353   2.844
30222SOL     OW92562   5.660   0.019   2.513
30222SOL    HW192563   5.653   0.110   2.542
30222SOL    HW292564   5.754  14.872   2.516
30223SOL     OW92565  10.575   3.636   2.569
30223SOL    HW192566  10.662   3.600   2.549
30223SOL    HW292567  10.587   3.731   2.564
30224SOL     OW92568   9.339   7.459  12.831
30224SOL    HW192569   9.368   7.417  12.912
30224SOL    HW292570   9.268   7.517  12.859
30225SOL     OW92571  12.789   9.383  13.596
30225SOL    HW192572  12.785   9.459  13.538
30225SOL    HW292573  12.810   9.310  13.538
30226SOL     OW92574   1.212   0.605   7.659
30226SOL    HW192575   1.214   0.520   7.703
30226SOL    HW292576   1.121   0.615   7.632
30227SOL     OW92577  12.780   9.551   3.560
30227SOL    HW192578  12.798   9.533   3.468
30227SOL    HW292579  12.851   9.508   3.607
30228SOL     OW92580   4.348   9.571   5.711
30228SOL    HW192581   4.384   9.602   5.628
30228SOL    HW292582   4.303   9.648   5.747
30229SOL     OW92583   0.933  10.549  14.594
30229SOL    HW192584   0.849  10.591  14.612
30229SOL    HW292585   0.915  10.456  14.596
30230SOL     OW92586  10.609   5.042  11.094
30230SOL    HW192587  10.638   5.028  11.004
30230SOL    HW292588  10.642   5.129  11.118
30231SOL     OW92589   6.458   2.450  10.513
30231SOL    HW192590   6.499   2.537  10.513
30231SOL    HW292591   6.512   2.398  10.453
30232SOL     OW92592  12.822   8.190   2.350
30232SOL    HW192593  12.826   8.095   2.339
30232SOL    HW292594  12.861   8.225   2.270
30233SOL     OW92595  11.051   1.509   5.898
30233SOL    HW192596  11.041   1.559   5.817
30233SOL    HW292597  10.983   1.542   5.955
30234SOL     OW92598   9.958   2.190  10.064
30234SOL    HW192599   9.977   2.099  10.086
30234SOL    HW292600  10.044   2.232  10.063
30235SOL     OW92601  12.346   7.275   1.647
30235SOL    HW192602  12.420   7.263   1.588
30235SOL    HW292603  12.382   7.323   1.722
30236SOL     OW92604  13.925   5.007   1.445
30236SOL    HW192605  13.889   5.019   1.533
30236SOL    HW292606  13.870   4.940   1.405
30237SOL     OW92607   7.061   2.276  11.805
30237SOL    HW192608   7.068   2.339  11.877
30237SOL    HW292609   7.036   2.329  11.729
30238SOL     OW92610   1.159   2.364   7.558
30238SOL    HW192611   1.230   2.338   7.500
30238SOL    HW292612   1.086   2.307   7.533
30239SOL     OW92613  12.102   0.046   9.844
30239SOL    HW192614  12.114   0.129   9.798
30239SOL    HW292615  12.178   0.040   9.902
30240SOL     OW92616  13.659   6.791   4.398
30240SOL    HW192617  13.738   6.737   4.406
30240SOL    HW292618  13.632   6.808   4.488
30241SOL     OW92619  12.204  10.482   3.340
30241SOL    HW192620  12.142  10.423   3.297
30241SOL    HW292621  12.151  10.557   3.367
30242SOL     OW92622  12.678   3.026   9.911
30242SOL    HW192623  12.716   3.101   9.956
30242SOL    HW292624  12.592   3.056   9.883
30243SOL     OW92625   5.356  11.746   5.955
30243SOL    HW192626   5.405  11.754   6.037
30243SOL    HW292627   5.334  11.653   5.950
30244SOL     OW92628  13.061   3.823   3.811
30244SOL    HW192629  13.063   3.784   3.898
30244SOL    HW292630  13.153   3.843   3.792
30245SOL     OW92631   4.011   7.706   4.181
30245SOL    HW192632   4.077   7.647   4.144
30245SOL    HW292633   3.975   7.659   4.256
30246SOL     OW92634   0.769   3.761  10.378
30246SOL    HW192635   0.834   3.721  10.320
30246SOL    HW292636   0.804   3.748  10.466
30247SOL     OW92637   0.636  11.552   4.637
30247SOL    HW192638   0.703  11.531   4.702
30247SOL    HW292639   0.620  11.468   4.592
30248SOL     OW92640   8.215  12.396  10.192
30248SOL    HW192641   8.217  12.310  10.150
30248SOL    HW292642   8.124  12.407  10.219
30249SOL     OW92643   6.783   9.860   2.210
30249SOL    HW192644   6.797   9.774   2.168
30249SOL    HW292645   6.764   9.919   2.137
30250SOL     OW92646   0.226  11.342   8.450
30250SOL    HW192647   0.291  11.366   8.516
30250SOL    HW292648   0.146  11.387   8.478
30251SOL     OW92649   0.507   6.572  13.724
30251SOL    HW192650   0.463   6.543  13.644
30251SOL    HW292651   0.464   6.524  13.794
30252SOL     OW92652   8.671   5.081   3.442
30252SOL    HW192653   8.636   5.007   3.492
30252SOL    HW292654   8.708   5.041   3.363
30253SOL     OW92655   0.250   5.040   4.378
30253SOL    HW192656   0.167   5.057   4.423
30253SOL    HW292657   0.236   5.070   4.289
30254SOL     OW92658  14.827   9.464   9.191
30254SOL    HW192659  14.837   9.392   9.253
30254SOL    HW292660  14.840   9.543   9.244
30255SOL     OW92661  10.617  11.835   5.706
30255SOL    HW192662  10.553  11.822   5.776
30255SOL    HW292663  10.701  11.809   5.745
30256SOL     OW92664   9.621   8.355   6.787
30256SOL    HW192665   9.591   8.443   6.809
30256SOL    HW292666   9.643   8.315   6.871
30257SOL     OW92667  12.918   4.434  13.232
30257SOL    HW192668  12.848   4.434  13.167
30257SOL    HW292669  12.913   4.347  13.273
30258SOL     OW92670  11.959  11.282   1.618
30258SOL    HW192671  12.035  11.275   1.676
30258SOL    HW292672  11.969  11.210   1.556
30259SOL     OW92673  12.151  10.335   6.607
30259SOL    HW192674  12.190  10.391   6.540
30259SOL    HW292675  12.057  10.352   6.601
30260SOL     OW92676  11.268   0.042   4.106
30260SOL    HW192677  11.280  14.819   4.101
30260SOL    HW292678  11.268   0.070   4.014
30261SOL     OW92679   5.040  13.811   8.768
30261SOL    HW192680   5.040  13.819   8.863
30261SOL    HW292681   5.100  13.738   8.750
30262SOL     OW92682  13.495   7.873  11.956
30262SOL    HW192683  13.546   7.954  11.954
30262SOL    HW292684  13.492   7.843  11.865
30263SOL     OW92685   6.884   2.733   8.506
30263SOL    HW192686   6.887   2.700   8.596
30263SOL    HW292687   6.881   2.654   8.452
30264SOL     OW92688  10.243   2.610   2.972
30264SOL    HW192689  10.193   2.540   3.013
30264SOL    HW292690  10.331   2.574   2.961
30265SOL     OW92691   6.735   9.544  10.452
30265SOL    HW192692   6.829   9.534  10.436
30265SOL    HW292693   6.722   9.638  10.465
30266SOL     OW92694   3.247   9.214  11.396
30266SOL    HW192695   3.298   9.281  11.350
30266SOL    HW292696   3.160   9.219  11.357
30267SOL     OW92697  13.871   5.894  11.883
30267SOL    HW192698  13.944   5.952  11.906
30267SOL    HW292699  13.912   5.822  11.834
30268SOL     OW92700   8.599   3.438   7.161
30268SOL    HW192701   8.644   3.370   7.112
30268SOL    HW292702   8.648   3.518   7.142
30269SOL     OW92703  10.611  13.827  14.300
30269SOL    HW192704  10.679  13.789  14.356
30269SOL    HW292705  10.612  13.771  14.222
30270SOL     OW92706   0.384   7.119   6.948
30270SOL    HW192707   0.455   7.175   6.916
30270SOL    HW292708   0.405   7.033   6.911
30271SOL     OW92709   5.101  10.017  11.546
30271SOL    HW192710   5.078  10.010  11.454
30271SOL    HW292711   5.028   9.976  11.593
30272SOL     OW92712   4.068  10.728   1.840
30272SOL    HW192713   4.036  10.783   1.769
30272SOL    HW292714   4.116  10.789   1.898
30273SOL     OW92715   5.201   3.033  14.469
30273SOL    HW192716   5.218   3.034  14.375
30273SOL    HW292717   5.119   3.081  14.479
30274SOL     OW92718   5.685   0.961   8.527
30274SOL    HW192719   5.776   0.941   8.548
30274SOL    HW292720   5.672   1.051   8.557
30275SOL     OW92721   6.353  12.092   2.914
30275SOL    HW192722   6.388  12.130   2.994
30275SOL    HW292723   6.423  12.035   2.882
30276SOL     OW92724   8.779  10.060  10.712
30276SOL    HW192725   8.797  10.037  10.621
30276SOL    HW292726   8.860  10.039  10.758
30277SOL     OW92727   3.322   2.537   5.296
30277SOL    HW192728   3.301   2.452   5.335
30277SOL    HW292729   3.237   2.582   5.288
30278SOL     OW92730  13.372   3.460   7.772
30278SOL    HW192731  13.394   3.390   7.710
30278SOL    HW292732  13.290   3.432   7.813
30279SOL     OW92733  13.486  11.064  12.268
30279SOL    HW192734  13.565  11.110  12.297
30279SOL    HW292735  13.496  11.056  12.173
30280SOL     OW92736   0.265   9.262   2.529
30280SOL    HW192737   0.310   9.271   2.613
30280SOL    HW292738   0.176   9.236   2.551
30281SOL     OW92739   6.593   3.617  13.686
30281SOL    HW192740   6.621   3.525  13.685
30281SOL    HW292741   6.505   3.615  13.722
30282SOL     OW92742   4.323   4.317   4.573
30282SOL    HW192743   4.244   4.371   4.580
30282SOL    HW292744   4.395   4.378   4.588
30283SOL     OW92745  13.007   7.842   9.755
30283SOL    HW192746  12.992   7.879   9.842
30283SOL    HW292747  13.024   7.918   9.700
30284SOL     OW92748  14.741  10.960   3.738
30284SOL    HW192749  14.670  11.002   3.691
30284SOL    HW292750  14.722  10.866   3.733
30285SOL     OW92751   6.146  14.657   3.176
30285SOL    HW192752   6.198  14.641   3.255
30285SOL    HW292753   6.141  14.753   3.170
30286SOL     OW92754   5.221   8.197  13.456
30286SOL    HW192755   5.301   8.150  13.435
30286SOL    HW292756   5.167   8.190  13.377
30287SOL     OW92757  13.484   3.111   6.238
30287SOL    HW192758  13.508   3.200   6.210
30287SOL    HW292759  13.409   3.089   6.183
30288SOL     OW92760   3.697   6.876   9.508
30288SOL    HW192761   3.633   6.855   9.441
30288SOL    HW292762   3.701   6.797   9.562
30289SOL     OW92763   5.063   4.097  11.823
30289SOL    HW192764   4.990   4.143  11.865
30289SOL    HW292765   5.139   4.121  11.875
30290SOL     OW92766   2.306   0.925   0.816
30290SOL    HW192767   2.397   0.950   0.831
30290SOL    HW292768   2.299   0.916   0.721
30291SOL     OW92769  12.253   1.948  14.665
30291SOL    HW192770  12.231   1.957  14.758
30291SOL    HW292771  12.270   1.854  14.654
30292SOL     OW92772  14.092   7.997  10.084
30292SOL    HW192773  14.161   7.943  10.045
30292SOL    HW292774  14.015   7.939  10.087
30293SOL     OW92775   9.788   1.819  14.450
30293SOL    HW192776   9.726   1.841  14.520
30293SOL    HW292777   9.868   1.865  14.474
30294SOL     OW92778   6.935   3.844   2.777
30294SOL    HW192779   6.883   3.769   2.749
30294SOL    HW292780   7.019   3.807   2.803
30295SOL     OW92781   9.639   0.972  13.725
30295SOL    HW192782   9.564   0.970  13.785
30295SOL    HW292783   9.653   0.880  13.701
30296SOL     OW92784   2.742   0.124  12.685
30296SOL    HW192785   2.718   0.188  12.619
30296SOL    HW292786   2.666   0.120  12.743
30297SOL     OW92787  13.891   7.947  11.068
30297SOL    HW192788  13.885   8.026  11.121
30297SOL    HW292789  13.804   7.936  11.031
30298SOL     OW92790  12.286  14.151   4.434
30298SOL    HW192791  12.335  14.105   4.503
30298SOL    HW292792  12.276  14.240   4.468
30299SOL     OW92793   4.521  14.483   9.230
30299SOL    HW192794   4.465  14.504   9.155
30299SOL    HW292795   4.610  14.503   9.199
30300SOL     OW92796  10.234  12.567   2.567
30300SOL    HW192797  10.307  12.505   2.569
30300SOL    HW292798  10.265  12.639   2.512
30301SOL     OW92799   1.525   1.817  10.023
30301SOL    HW192800   1.467   1.795  10.095
30301SOL    HW292801   1.598   1.864  10.063
30302SOL     OW92802  10.335   5.020   5.265
30302SOL    HW192803  10.395   4.998   5.336
30302SOL    HW292804  10.314   4.935   5.225
30303SOL     OW92805   6.323  13.147   4.017
30303SOL    HW192806   6.361  13.231   3.993
30303SOL    HW292807   6.269  13.165   4.093
30304SOL     OW92808   1.556   3.127   6.222
30304SOL    HW192809   1.580   3.218   6.204
30304SOL    HW292810   1.592   3.110   6.309
30305SOL     OW92811  12.126   5.107   1.509
30305SOL    HW192812  12.141   5.027   1.559
30305SOL    HW292813  12.059   5.154   1.559
30306SOL     OW92814   5.803   4.712  13.778
30306SOL    HW192815   5.846   4.686  13.697
30306SOL    HW292816   5.873   4.748  13.833
30307SOL     OW92817   1.119  13.789   5.980
30307SOL    HW192818   1.157  13.861   6.031
30307SOL    HW292819   1.166  13.711   6.011
30308SOL     OW92820   9.329   5.188   3.412
30308SOL    HW192821   9.362   5.219   3.496
30308SOL    HW292822   9.400   5.207   3.350
30309SOL     OW92823   8.136  10.643  11.778
30309SOL    HW192824   8.201  10.575  11.797
30309SOL    HW292825   8.074  10.638  11.851
30310SOL     OW92826  12.659   1.410  12.507
30310SOL    HW192827  12.579   1.462  12.503
30310SOL    HW292828  12.728   1.470  12.480
30311SOL     OW92829  10.559   3.453   8.152
30311SOL    HW192830  10.635   3.398   8.172
30311SOL    HW292831  10.592   3.514   8.085
30312SOL     OW92832   2.828   2.276   1.266
30312SOL    HW192833   2.828   2.345   1.200
30312SOL    HW292834   2.920   2.271   1.295
30313SOL     OW92835   8.277   0.295  11.959
30313SOL    HW192836   8.338   0.303  12.032
30313SOL    HW292837   8.256   0.385  11.935
30314SOL     OW92838  11.101  13.715   9.563
30314SOL    HW192839  11.185  13.700   9.606
30314SOL    HW292840  11.100  13.809   9.546
30315SOL     OW92841   5.528   8.137  10.668
30315SOL    HW192842   5.519   8.181  10.583
30315SOL    HW292843   5.619   8.151  10.694
30316SOL     OW92844   9.444   5.346  11.997
30316SOL    HW192845   9.387   5.412  12.037
30316SOL    HW292846   9.496   5.396  11.933
30317SOL     OW92847   5.783  11.816   7.710
30317SOL    HW192848   5.712  11.782   7.655
30317SOL    HW292849   5.760  11.908   7.724
30318SOL     OW92850   8.679   4.946   8.040
30318SOL    HW192851   8.612   5.000   7.998
30318SOL    HW292852   8.635   4.863   8.058
30319SOL     OW92853   5.884   7.431   4.386
30319SOL    HW192854   5.867   7.352   4.437
30319SOL    HW292855   5.923   7.399   4.305
30320SOL     OW92856  13.757   2.832   7.462
30320SOL    HW192857  13.813   2.812   7.387
30320SOL    HW292858  13.685   2.769   7.455
30321SOL     OW92859   8.117   5.094  11.305
30321SOL    HW192860   8.117   5.153  11.229
30321SOL    HW292861   8.158   5.144  11.375
30322SOL     OW92862   0.976   8.360   2.843
30322SOL    HW192863   1.028   8.318   2.774
30322SOL    HW292864   0.987   8.303   2.919
30323SOL     OW92865  13.648   5.538   3.641
30323SOL    HW192866  13.681   5.494   3.563
30323SOL    HW292867  13.722   5.541   3.701
30324SOL     OW92868   6.957  13.967  13.516
30324SOL    HW192869   7.046  13.984  13.548
30324SOL    HW292870   6.969  13.909  13.441
30325SOL     OW92871   3.172   9.673   1.409
30325SOL    HW192872   3.215   9.710   1.486
30325SOL    HW292873   3.125   9.596   1.443
30326SOL     OW92874   0.742   8.749   5.889
30326SOL    HW192875   0.747   8.660   5.853
30326SOL    HW292876   0.735   8.805   5.812
30327SOL     OW92877  11.749   8.337  12.088
30327SOL    HW192878  11.766   8.382  12.170
30327SOL    HW292879  11.723   8.249  12.114
30328SOL     OW92880   5.040   9.766  11.784
30328SOL    HW192881   5.101   9.709  11.738
30328SOL    HW292882   5.097   9.824  11.836
30329SOL     OW92883  13.215   4.724   8.274
30329SOL    HW192884  13.289   4.775   8.241
30329SOL    HW292885  13.256   4.649   8.319
30330SOL     OW92886   9.360   7.166   7.134
30330SOL    HW192887   9.311   7.193   7.212
30330SOL    HW292888   9.367   7.245   7.081
30331SOL     OW92889   4.230   1.718   8.907
30331SOL    HW192890   4.295   1.788   8.903
30331SOL    HW292891   4.250   1.672   8.989
30332SOL     OW92892   8.282   0.619   7.596
30332SOL    HW192893   8.370   0.583   7.610
30332SOL    HW292894   8.266   0.607   7.502
30333SOL     OW92895  12.919   6.780   3.170
30333SOL    HW192896  12.835   6.827   3.168
30333SOL    HW292897  12.898   6.692   3.139
30334SOL     OW92898   7.208   8.595  13.311
30334SOL    HW192899   7.181   8.663  13.249
30334SOL    HW292900   7.133   8.585  13.370
30335SOL     OW92901   5.583   7.475   7.570
30335SOL    HW192902   5.677   7.484   7.554
30335SOL    HW292903   5.575   7.472   7.665
30336SOL     OW92904   5.651   0.168   1.759
30336SOL    HW192905   5.649   0.100   1.692
30336SOL    HW292906   5.586   0.141   1.823
30337SOL     OW92907   4.808   2.020   3.235
30337SOL    HW192908   4.802   2.115   3.222
30337SOL    HW292909   4.818   2.010   3.330
30338SOL     OW92910  12.194   7.924   3.797
30338SOL    HW192911  12.164   7.846   3.749
30338SOL    HW292912  12.265   7.959   3.743
30339SOL     OW92913   5.884   3.642  12.133
30339SOL    HW192914   5.916   3.723  12.091
30339SOL    HW292915   5.808   3.670  12.183
30340SOL     OW92916  10.425  12.315   3.423
30340SOL    HW192917  10.506  12.291   3.468
30340SOL    HW292918  10.432  12.274   3.337
30341SOL     OW92919   4.738   8.400   4.617
30341SOL    HW192920   4.793   8.457   4.671
30341SOL    HW292921   4.768   8.414   4.528
30342SOL     OW92922   5.630  14.853   2.229
30342SOL    HW192923   5.636  14.860   2.325
30342SOL    HW292924   5.691  14.783   2.207
30343SOL     OW92925   7.418   7.335   3.973
30343SOL    HW192926   7.396   7.407   4.032
30343SOL    HW292927   7.484   7.285   4.021
30344SOL     OW92928  12.848  10.273   9.527
30344SOL    HW192929  12.778  10.281   9.462
30344SOL    HW292930  12.928  10.263   9.475
30345SOL     OW92931   9.102   2.189   8.451
30345SOL    HW192932   9.079   2.273   8.413
30345SOL    HW292933   9.182   2.206   8.501
30346SOL     OW92934   6.713   8.017   2.100
30346SOL    HW192935   6.693   7.959   2.173
30346SOL    HW292936   6.705   8.105   2.136
30347SOL     OW92937   4.870   3.039   7.915
30347SOL    HW192938   4.822   2.972   7.866
30347SOL    HW292939   4.804   3.106   7.934
30348SOL     OW92940  13.628   0.602   3.100
30348SOL    HW192941  13.613   0.677   3.042
30348SOL    HW292942  13.719   0.578   3.083
30349SOL     OW92943  12.520  13.397   2.163
30349SOL    HW192944  12.593  13.351   2.122
30349SOL    HW292945  12.470  13.435   2.090
30350SOL     OW92946   5.983  12.524   8.201
30350SOL    HW192947   6.066  12.476   8.193
30350SOL    HW292948   5.981  12.552   8.292
30351SOL     OW92949   8.658   0.497   0.432
30351SOL    HW192950   8.671   0.568   0.495
30351SOL    HW292951   8.568   0.469   0.446
30352SOL     OW92952  14.197  10.642   4.630
30352SOL    HW192953  14.209  10.581   4.703
30352SOL    HW292954  14.259  10.611   4.563
30353SOL     OW92955   8.064   9.975   9.311
30353SOL    HW192956   8.086  10.059   9.272
30353SOL    HW292957   8.143   9.947   9.357
30354SOL     OW92958   1.500   9.019   3.550
30354SOL    HW192959   1.461   9.066   3.624
30354SOL    HW292960   1.431   9.018   3.483
30355SOL     OW92961   9.305  12.872   7.804
30355SOL    HW192962   9.346  12.908   7.883
30355SOL    HW292963   9.217  12.849   7.832
30356SOL     OW92964   7.794   8.194  10.819
30356SOL    HW192965   7.859   8.228  10.756
30356SOL    HW292966   7.841   8.125  10.867
30357SOL     OW92967   6.638   7.261   0.136
30357SOL    HW192968   6.570   7.308   0.088
30357SOL    HW292969   6.693   7.221   0.068
30358SOL     OW92970   6.503  13.931   4.215
30358SOL    HW192971   6.410  13.954   4.215
30358SOL    HW292972   6.547  14.014   4.195
30359SOL     OW92973  11.616  13.407  13.240
30359SOL    HW192974  11.605  13.495  13.277
30359SOL    HW292975  11.619  13.349  13.317
30360SOL     OW92976   4.643   9.370   1.349
30360SOL    HW192977   4.704   9.435   1.316
30360SOL    HW292978   4.675   9.287   1.316
30361SOL     OW92979   1.044   5.934   0.671
30361SOL    HW192980   1.044   6.029   0.661
30361SOL    HW292981   0.958   5.913   0.707
30362SOL     OW92982   0.893   4.001   7.604
30362SOL    HW192983   0.846   3.929   7.644
30362SOL    HW292984   0.984   3.988   7.629
30363SOL     OW92985  11.119  13.798  14.426
30363SOL    HW192986  11.205  13.758  14.431
30363SOL    HW292987  11.137  13.892  14.415
30364SOL     OW92988   7.346   2.750   3.599
30364SOL    HW192989   7.287   2.755   3.525
30364SOL    HW292990   7.390   2.835   3.601
30365SOL     OW92991  14.221   9.534   6.750
30365SOL    HW192992  14.272   9.453   6.745
30365SOL    HW292993  14.256   9.589   6.679
30366SOL     OW92994  12.062   3.947   8.366
30366SOL    HW192995  12.111   3.891   8.426
30366SOL    HW292996  12.116   3.951   8.287
30367SOL     OW92997   5.616   0.800  13.944
30367SOL    HW192998   5.624   0.895  13.954
30367SOL    HW292999   5.528   0.788  13.908
30368SOL     OW93000   8.221   6.644   0.570
30368SOL    HW193001   8.189   6.649   0.481
30368SOL    HW293002   8.317   6.642   0.561
30369SOL     OW93003  12.100   2.399   3.464
30369SOL    HW193004  12.142   2.351   3.535
30369SOL    HW293005  12.172   2.435   3.412
30370SOL     OW93006   6.433   9.899   1.802
30370SOL    HW193007   6.402   9.899   1.711
30370SOL    HW293008   6.528   9.907   1.795
30371SOL     OW93009   3.362  14.405   8.520
30371SOL    HW193010   3.298  14.408   8.449
30371SOL    HW293011   3.446  14.423   8.478
30372SOL     OW93012   0.214  13.155   6.689
30372SOL    HW193013   0.300  13.193   6.707
30372SOL    HW293014   0.190  13.112   6.771
30373SOL     OW93015  11.301   4.891   1.391
30373SOL    HW193016  11.383   4.915   1.433
30373SOL    HW293017  11.261   4.827   1.449
30374SOL     OW93018   6.760   0.130   4.721
30374SOL    HW193019   6.771   0.159   4.811
30374SOL    HW293020   6.672   0.159   4.697
30375SOL     OW93021   0.430   1.283  12.764
30375SOL    HW193022   0.348   1.246  12.732
30375SOL    HW293023   0.489   1.208  12.771
30376SOL     OW93024   6.856   3.624   6.152
30376SOL    HW193025   6.865   3.531   6.173
30376SOL    HW293026   6.845   3.626   6.057
30377SOL     OW93027  13.004   9.532   0.728
30377SOL    HW193028  13.068   9.603   0.736
30377SOL    HW293029  13.048   9.456   0.767
30378SOL     OW93030   5.542   6.977   3.640
30378SOL    HW193031   5.463   7.022   3.670
30378SOL    HW293032   5.583   6.944   3.719
30379SOL     OW93033   1.543  13.419   7.584
30379SOL    HW193034   1.597  13.416   7.505
30379SOL    HW293035   1.587  13.362   7.646
30380SOL     OW93036   7.769   1.413  14.354
30380SOL    HW193037   7.818   1.481  14.307
30380SOL    HW293038   7.677   1.434  14.336
30381SOL     OW93039   9.627   9.800   6.660
30381SOL    HW193040   9.670   9.715   6.659
30381SOL    HW293041   9.694   9.861   6.626
30382SOL     OW93042   5.432   5.273   5.549
30382SOL    HW193043   5.511   5.250   5.501
30382SOL    HW293044   5.442   5.366   5.568
30383SOL     OW93045  11.183  12.242   7.338
30383SOL    HW193046  11.221  12.252   7.251
30383SOL    HW293047  11.091  12.221   7.321
30384SOL     OW93048  13.634  12.043  11.995
30384SOL    HW193049  13.680  11.966  11.961
30384SOL    HW293050  13.544  12.034  11.962
30385SOL     OW93051   1.334   1.487   0.961
30385SOL    HW193052   1.369   1.426   0.896
30385SOL    HW293053   1.360   1.450   1.045
30386SOL     OW93054   1.885  13.781  11.461
30386SOL    HW193055   1.861  13.812  11.374
30386SOL    HW293056   1.936  13.853  11.498
30387SOL     OW93057  13.804  14.387   7.696
30387SOL    HW193058  13.812  14.292   7.709
30387SOL    HW293059  13.888  14.413   7.658
30388SOL     OW93060   5.531  14.291  13.493
30388SOL    HW193061   5.555  14.252  13.577
30388SOL    HW293062   5.602  14.354  13.475
30389SOL     OW93063   0.887  13.959   4.514
30389SOL    HW193064   0.959  13.918   4.466
30389SOL    HW293065   0.824  13.983   4.447
30390SOL     OW93066   5.343   7.521   5.649
30390SOL    HW193067   5.371   7.533   5.558
30390SOL    HW293068   5.415   7.474   5.691
30391SOL     OW93069   1.392  11.031   9.471
30391SOL    HW193070   1.371  10.939   9.486
30391SOL    HW293071   1.355  11.077   9.546
30392SOL     OW93072   0.642  14.067  10.407
30392SOL    HW193073   0.727  14.110  10.413
30392SOL    HW293074   0.662  13.976  10.381
30393SOL     OW93075   6.774   5.507  10.637
30393SOL    HW193076   6.758   5.593  10.598
30393SOL    HW293077   6.731   5.446  10.577
30394SOL     OW93078   9.957   8.174  11.468
30394SOL    HW193079   9.926   8.095  11.512
30394SOL    HW293080  10.038   8.197  11.513
30395SOL     OW93081   8.407   8.145   1.728
30395SOL    HW193082   8.376   8.061   1.760
30395SOL    HW293083   8.374   8.151   1.638
30396SOL     OW93084   1.938   1.352   2.352
30396SOL    HW193085   1.931   1.256   2.350
30396SOL    HW293086   2.032   1.369   2.345
30397SOL     OW93087   0.439  12.750  10.341
30397SOL    HW193088   0.444  12.755  10.245
30397SOL    HW293089   0.370  12.811  10.365
30398SOL     OW93090  14.680   3.255  12.482
30398SOL    HW193091  14.769   3.251  12.449
30398SOL    HW293092  14.661   3.349  12.490
30399SOL     OW93093  10.293   7.724   3.337
30399SOL    HW193094  10.298   7.819   3.328
30399SOL    HW293095  10.204   7.702   3.308
30400SOL     OW93096   4.666   6.407   5.554
30400SOL    HW193097   4.745   6.434   5.600
30400SOL    HW293098   4.695   6.382   5.467
30401SOL     OW93099   5.424   9.798   8.448
30401SOL    HW193100   5.335   9.790   8.416
30401SOL    HW293101   5.477   9.813   8.370
30402SOL     OW93102   7.648   3.251   4.423
30402SOL    HW193103   7.640   3.171   4.371
30402SOL    HW293104   7.583   3.310   4.386
30403SOL     OW93105   0.086   3.195   4.786
30403SOL    HW193106   0.037   3.141   4.848
30403SOL    HW293107   0.141   3.251   4.840
30404SOL     OW93108  11.731  12.312   3.063
30404SOL    HW193109  11.803  12.293   3.003
30404SOL    HW293110  11.667  12.360   3.010
30405SOL     OW93111   9.346   9.209   5.934
30405SOL    HW193112   9.346   9.145   5.863
30405SOL    HW293113   9.344   9.156   6.014
30406SOL     OW93114   5.694   6.986  13.269
30406SOL    HW193115   5.757   6.917  13.287
30406SOL    HW293116   5.722   7.023  13.185
30407SOL     OW93117  13.582   9.784  11.266
30407SOL    HW193118  13.637   9.862  11.254
30407SOL    HW293119  13.501   9.817  11.306
30408SOL     OW93120   8.755   1.038  11.341
30408SOL    HW193121   8.753   0.943  11.351
30408SOL    HW293122   8.664   1.065  11.356
30409SOL     OW93123   2.706   4.902   1.161
30409SOL    HW193124   2.716   4.807   1.167
30409SOL    HW293125   2.783   4.937   1.205
30410SOL     OW93126  10.704   9.505  11.838
30410SOL    HW193127  10.651   9.460  11.772
30410SOL    HW293128  10.640   9.546  11.895
30411SOL     OW93129   5.728   0.663  11.188
30411SOL    HW193130   5.633   0.653  11.194
30411SOL    HW293131   5.744   0.754  11.211
30412SOL     OW93132  13.039  12.195   9.320
30412SOL    HW193133  13.073  12.112   9.351
30412SOL    HW293134  13.035  12.251   9.398
30413SOL     OW93135   0.422  12.631   7.799
30413SOL    HW193136   0.413  12.721   7.831
30413SOL    HW293137   0.498  12.635   7.740
30414SOL     OW93138  14.495  10.059  14.354
30414SOL    HW193139  14.545  10.102  14.284
30414SOL    HW293140  14.404  10.079  14.333
30415SOL     OW93141  10.890   7.351   5.606
30415SOL    HW193142  10.796   7.345   5.590
30415SOL    HW293143  10.900   7.427   5.663
30416SOL     OW93144   9.390   4.952   0.048
30416SOL    HW193145   9.320   4.892   0.074
30416SOL    HW293146   9.346   5.036   0.034
30417SOL     OW93147   4.955   3.909   4.439
30417SOL    HW193148   4.995   3.994   4.456
30417SOL    HW293149   4.961   3.862   4.522
30418SOL     OW93150  11.407   6.920   3.952
30418SOL    HW193151  11.435   6.985   4.016
30418SOL    HW293152  11.425   6.960   3.867
30419SOL     OW93153  14.465   8.438   9.669
30419SOL    HW193154  14.396   8.464   9.730
30419SOL    HW293155  14.437   8.474   9.585
30420SOL     OW93156  13.324  12.081  13.088
30420SOL    HW193157  13.264  12.016  13.050
30420SOL    HW293158  13.410  12.056  13.055
30421SOL     OW93159  11.163   1.439   9.604
30421SOL    HW193160  11.240   1.480   9.645
30421SOL    HW293161  11.153   1.356   9.649
30422SOL     OW93162   4.774  12.082   5.314
30422SOL    HW193163   4.691  12.039   5.332
30422SOL    HW293164   4.777  12.156   5.375
30423SOL     OW93165   5.326   2.111  13.758
30423SOL    HW193166   5.329   2.207  13.759
30423SOL    HW293167   5.232   2.091  13.755
30424SOL     OW93168   0.005   9.343   5.037
30424SOL    HW193169  14.809   9.322   5.101
30424SOL    HW293170   0.072   9.276   5.052
30425SOL     OW93171   5.005  12.010   4.698
30425SOL    HW193172   4.921  11.967   4.717
30425SOL    HW293173   5.065  11.973   4.763
30426SOL     OW93174   7.304  12.162  13.721
30426SOL    HW193175   7.384  12.198  13.684
30426SOL    HW293176   7.258  12.237  13.758
30427SOL     OW93177  11.408   5.953   1.372
30427SOL    HW193178  11.444   5.866   1.354
30427SOL    HW293179  11.462   6.012   1.318
30428SOL     OW93180   8.150  14.399   1.662
30428SOL    HW193181   8.131  14.492   1.670
30428SOL    HW293182   8.235  14.395   1.619
30429SOL     OW93183   4.785  12.972   0.574
30429SOL    HW193184   4.706  12.968   0.520
30429SOL    HW293185   4.850  12.920   0.526
30430SOL     OW93186   8.187  10.419   6.816
30430SOL    HW193187   8.095  10.404   6.796
30430SOL    HW293188   8.193  10.407   6.911
30431SOL     OW93189  13.809   7.958   4.715
30431SOL    HW193190  13.787   7.899   4.643
30431SOL    HW293191  13.809   7.902   4.793
30432SOL     OW93192   2.260   5.816  10.424
30432SOL    HW193193   2.327   5.789  10.361
30432SOL    HW293194   2.206   5.879  10.376
30433SOL     OW93195   2.038   8.526   8.081
30433SOL    HW193196   1.979   8.458   8.115
30433SOL    HW293197   2.104   8.536   8.150
30434SOL     OW93198   5.420   6.970   7.082
30434SOL    HW193199   5.455   6.960   7.170
30434SOL    HW293200   5.336   6.923   7.084
30435SOL     OW93201   7.366   8.538   3.755
30435SOL    HW193202   7.378   8.486   3.676
30435SOL    HW293203   7.271   8.539   3.770
30436SOL     OW93204   1.387   9.264  12.693
30436SOL    HW193205   1.334   9.321  12.637
30436SOL    HW293206   1.326   9.197  12.724
30437SOL     OW93207   9.335   9.481   3.985
30437SOL    HW193208   9.368   9.462   3.897
30437SOL    HW293209   9.241   9.488   3.973
30438SOL     OW93210   6.467  12.440   8.060
30438SOL    HW193211   6.559  12.435   8.086
30438SOL    HW293212   6.460  12.523   8.013
30439SOL     OW93213   2.023   7.138   8.727
30439SOL    HW193214   2.118   7.138   8.714
30439SOL    HW293215   1.999   7.230   8.738
30440SOL     OW93216   8.705   9.629   6.084
30440SOL    HW193217   8.756   9.689   6.139
30440SOL    HW293218   8.751   9.630   6.000
30441SOL     OW93219   7.588   0.442   4.005
30441SOL    HW193220   7.616   0.487   4.084
30441SOL    HW293221   7.558   0.356   4.035
30442SOL     OW93222  13.369  10.742   2.434
30442SOL    HW193223  13.376  10.831   2.469
30442SOL    HW293224  13.459  10.714   2.420
30443SOL     OW93225   4.920   7.744   9.926
30443SOL    HW193226   4.921   7.696  10.009
30443SOL    HW293227   4.831   7.733   9.893
30444SOL     OW93228  13.558  12.613   6.596
30444SOL    HW193229  13.557  12.519   6.613
30444SOL    HW293230  13.589  12.652   6.679
30445SOL     OW93231  12.638   1.164  13.643
30445SOL    HW193232  12.610   1.171  13.734
30445SOL    HW293233  12.674   1.251  13.623
30446SOL     OW93234   8.379  13.449   7.465
30446SOL    HW193235   8.342  13.501   7.393
30446SOL    HW293236   8.394  13.363   7.426
30447SOL     OW93237   8.527   1.560   9.394
30447SOL    HW193238   8.507   1.654   9.392
30447SOL    HW293239   8.441   1.518   9.398
30448SOL     OW93240  10.079   4.538  12.996
30448SOL    HW193241  10.062   4.536  12.902
30448SOL    HW293242  10.053   4.625  13.024
30449SOL     OW93243   4.407   3.267   9.580
30449SOL    HW193244   4.411   3.187   9.633
30449SOL    HW293245   4.435   3.337   9.640
30450SOL     OW93246   9.288   6.758   9.744
30450SOL    HW193247   9.240   6.833   9.709
30450SOL    HW293248   9.223   6.689   9.754
30451SOL     OW93249   3.078   7.968   5.057
30451SOL    HW193250   3.029   7.886   5.061
30451SOL    HW293251   3.144   7.960   5.125
30452SOL     OW93252   9.142   1.828   9.742
30452SOL    HW193253   9.212   1.766   9.766
30452SOL    HW293254   9.066   1.799   9.793
30453SOL     OW93255   6.290  14.188  12.436
30453SOL    HW193256   6.272  14.109  12.386
30453SOL    HW293257   6.377  14.173  12.474
30454SOL     OW93258  13.396  10.591   1.156
30454SOL    HW193259  13.401  10.671   1.209
30454SOL    HW293260  13.339  10.614   1.083
30455SOL     OW93261   4.575  10.844  10.586
30455SOL    HW193262   4.641  10.878  10.646
30455SOL    HW293263   4.516  10.793  10.642
30456SOL     OW93264   9.817   2.454  12.708
30456SOL    HW193265   9.744   2.428  12.651
30456SOL    HW293266   9.892   2.406  12.674
30457SOL     OW93267   6.078  14.227   3.162
30457SOL    HW193268   6.047  14.307   3.204
30457SOL    HW293269   6.131  14.258   3.088
30458SOL     OW93270  12.619   6.397  13.318
30458SOL    HW193271  12.618   6.330  13.387
30458SOL    HW293272  12.548   6.372  13.259
30459SOL     OW93273  14.849  11.858  11.598
30459SOL    HW193274  14.815  11.944  11.623
30459SOL    HW293275   0.032  11.832  11.672
30460SOL     OW93276  12.877  12.311   7.917
30460SOL    HW193277  12.793  12.329   7.874
30460SOL    HW293278  12.942  12.322   7.847
30461SOL     OW93279  12.152   9.659   6.526
30461SOL    HW193280  12.238   9.670   6.564
30461SOL    HW293281  12.106   9.600   6.585
30462SOL     OW93282   9.413   3.594   0.251
30462SOL    HW193283   9.404   3.520   0.191
30462SOL    HW293284   9.475   3.563   0.317
30463SOL     OW93285   9.339   2.569   6.223
30463SOL    HW193286   9.257   2.583   6.174
30463SOL    HW293287   9.310   2.542   6.310
30464SOL     OW93288   4.230   1.328   1.193
30464SOL    HW193289   4.261   1.418   1.198
30464SOL    HW293290   4.158   1.331   1.130
30465SOL     OW93291   4.485   0.778  10.500
30465SOL    HW193292   4.435   0.740  10.572
30465SOL    HW293293   4.536   0.705  10.464
30466SOL     OW93294   4.547  12.990  13.600
30466SOL    HW193295   4.481  13.027  13.658
30466SOL    HW293296   4.629  13.031  13.628
30467SOL     OW93297   1.528   8.987   8.202
30467SOL    HW193298   1.468   8.941   8.144
30467SOL    HW293299   1.516   8.947   8.288
30468SOL     OW93300   9.401  14.787   2.329
30468SOL    HW193301   9.367   0.001   2.306
30468SOL    HW293302   9.496  14.798   2.329
30469SOL     OW93303   1.493   8.275   9.684
30469SOL    HW193304   1.429   8.283   9.613
30469SOL    HW293305   1.554   8.209   9.652
30470SOL     OW93306   7.952   1.725  14.454
30470SOL    HW193307   7.942   1.679  14.370
30470SOL    HW293308   8.038   1.766  14.448
30471SOL     OW93309  10.611  12.473  14.442
30471SOL    HW193310  10.701  12.475  14.473
30471SOL    HW293311  10.618  12.458  14.348
30472SOL     OW93312   2.403   0.455   1.008
30472SOL    HW193313   2.441   0.478   0.924
30472SOL    HW293314   2.319   0.501   1.010
30473SOL     OW93315   2.069   0.032   8.522
30473SOL    HW193316   2.029  14.821   8.495
30473SOL    HW293317   2.076   0.025   8.617
30474SOL     OW93318   6.053   8.121   2.894
30474SOL    HW193319   6.002   8.049   2.858
30474SOL    HW293320   5.994   8.164   2.956
30475SOL     OW93321  12.000  11.833  11.468
30475SOL    HW193322  11.974  11.924  11.484
30475SOL    HW293323  11.923  11.781  11.493
30476SOL     OW93324  11.922  13.838   2.576
30476SOL    HW193325  11.859  13.786   2.626
30476SOL    HW293326  11.869  13.886   2.513
30477SOL     OW93327  13.400   6.990   0.478
30477SOL    HW193328  13.365   7.069   0.518
30477SOL    HW293329  13.323   6.939   0.452
30478SOL     OW93330   0.136   3.502  10.215
30478SOL    HW193331   0.116   3.572  10.276
30478SOL    HW293332   0.051   3.463  10.193
30479SOL     OW93333  13.134   3.542   1.017
30479SOL    HW193334  13.155   3.536   0.923
30479SOL    HW293335  13.093   3.628   1.027
30480SOL     OW93336   6.732   8.201  13.838
30480SOL    HW193337   6.795   8.239  13.899
30480SOL    HW293338   6.669   8.272  13.822
30481SOL     OW93339   8.366   8.923   8.790
30481SOL    HW193340   8.363   8.882   8.876
30481SOL    HW293341   8.292   8.983   8.790
30482SOL     OW93342   7.081  13.066  12.181
30482SOL    HW193343   7.052  13.008  12.252
30482SOL    HW293344   7.148  13.121  12.221
30483SOL     OW93345   0.795   7.469   7.106
30483SOL    HW193346   0.841   7.538   7.059
30483SOL    HW293347   0.703   7.493   7.099
30484SOL     OW93348  10.817   1.842   8.398
30484SOL    HW193349  10.884   1.859   8.331
30484SOL    HW293350  10.739   1.888   8.367
30485SOL     OW93351  12.764   7.910   8.807
30485SOL    HW193352  12.680   7.873   8.779
30485SOL    HW293353  12.746   8.002   8.822
30486SOL     OW93354  10.180   0.258   1.465
30486SOL    HW193355  10.147   0.211   1.388
30486SOL    HW293356  10.124   0.228   1.536
30487SOL     OW93357   1.500  13.570  11.621
30487SOL    HW193358   1.449  13.490  11.609
30487SOL    HW293359   1.438  13.641  11.602
30488SOL     OW93360   5.527  12.725   6.823
30488SOL    HW193361   5.557  12.815   6.837
30488SOL    HW293362   5.583  12.692   6.753
30489SOL     OW93363   9.461   4.170  14.822
30489SOL    HW193364   9.511   4.127   0.019
30489SOL    HW293365   9.526   4.219  14.772
30490SOL     OW93366   7.844  11.415   1.379
30490SOL    HW193367   7.888  11.375   1.454
30490SOL    HW293368   7.897  11.491   1.358
30491SOL     OW93369   8.735   2.148   0.099
30491SOL    HW193370   8.779   2.226   0.132
30491SOL    HW293371   8.795   2.111   0.035
30492SOL     OW93372  12.177  10.373  12.836
30492SOL    HW193373  12.259  10.326  12.851
30492SOL    HW293374  12.190  10.419  12.754
30493SOL     OW93375   5.340   7.491   0.642
30493SOL    HW193376   5.407   7.558   0.657
30493SOL    HW293377   5.388   7.409   0.639
30494SOL     OW93378  14.750   6.762  14.002
30494SOL    HW193379  14.825   6.813  14.029
30494SOL    HW293380  14.784   6.704  13.933
30495SOL     OW93381   4.130   0.824   1.399
30495SOL    HW193382   4.035   0.819   1.410
30495SOL    HW293383   4.144   0.905   1.350
30496SOL     OW93384  11.234  14.565  14.710
30496SOL    HW193385  11.320  14.598  14.687
30496SOL    HW293386  11.194  14.541  14.626
30497SOL     OW93387   8.902   6.732   0.326
30497SOL    HW193388   8.921   6.690   0.241
30497SOL    HW293389   8.807   6.739   0.328
30498SOL     OW93390  13.783  14.591   9.309
30498SOL    HW193391  13.848  14.649   9.269
30498SOL    HW293392  13.699  14.634   9.292
30499SOL     OW93393  12.028   7.043  11.415
30499SOL    HW193394  12.062   7.100  11.346
30499SOL    HW293395  11.957   6.995  11.375
30500SOL     OW93396   0.764   1.484  12.063
30500SOL    HW193397   0.818   1.563  12.064
30500SOL    HW293398   0.679   1.514  12.031
30501SOL     OW93399   6.313  11.409   0.467
30501SOL    HW193400   6.331  11.360   0.386
30501SOL    HW293401   6.269  11.345   0.524
30502SOL     OW93402  12.765   1.522   8.380
30502SOL    HW193403  12.721   1.490   8.458
30502SOL    HW293404  12.807   1.604   8.408
30503SOL     OW93405  11.259  11.738   6.973
30503SOL    HW193406  11.292  11.676   7.038
30503SOL    HW293407  11.292  11.823   7.002
30504SOL     OW93408   2.010   7.047  10.544
30504SOL    HW193409   2.044   7.136  10.552
30504SOL    HW293410   2.088   6.992  10.532
30505SOL     OW93411   9.150  12.837  13.424
30505SOL    HW193412   9.141  12.784  13.503
30505SOL    HW293413   9.191  12.918  13.453
30506SOL     OW93414   5.678   4.955   1.624
30506SOL    HW193415   5.646   5.005   1.699
30506SOL    HW293416   5.617   4.976   1.554
30507SOL     OW93417   9.387   3.373   2.687
30507SOL    HW193418   9.398   3.364   2.782
30507SOL    HW293419   9.375   3.283   2.656
30508SOL     OW93420   0.958   1.358  14.186
30508SOL    HW193421   0.975   1.440  14.231
30508SOL    HW293422   1.044   1.317  14.178
30509SOL     OW93423   8.322   6.929   0.014
30509SOL    HW193424   8.264   6.919  14.810
30509SOL    HW293425   8.287   6.867   0.078
30510SOL     OW93426   8.652   5.360   5.830
30510SOL    HW193427   8.590   5.359   5.757
30510SOL    HW293428   8.631   5.440   5.878
30511SOL     OW93429   2.981   0.892   4.248
30511SOL    HW193430   2.913   0.825   4.251
30511SOL    HW293431   3.057   0.851   4.289
30512SOL     OW93432  12.984   4.804   5.509
30512SOL    HW193433  13.004   4.816   5.602
30512SOL    HW293434  12.898   4.845   5.498
30513SOL     OW93435   1.229   0.988  12.718
30513SOL    HW193436   1.310   0.985  12.666
30513SOL    HW293437   1.176   0.917  12.683
30514SOL     OW93438   3.692   2.411  13.183
30514SOL    HW193439   3.748   2.355  13.236
30514SOL    HW293440   3.605   2.372  13.190
30515SOL     OW93441   6.863  10.540  10.341
30515SOL    HW193442   6.856  10.457  10.295
30515SOL    HW293443   6.949  10.537  10.383
30516SOL     OW93444   0.169   9.753   4.061
30516SOL    HW193445   0.121   9.780   4.139
30516SOL    HW293446   0.258   9.782   4.077
30517SOL     OW93447   2.531   6.921   9.635
30517SOL    HW193448   2.546   7.015   9.628
30517SOL    HW293449   2.461   6.904   9.572
30518SOL     OW93450   6.955   2.673  11.178
30518SOL    HW193451   6.895   2.636  11.243
30518SOL    HW293452   7.026   2.610  11.173
30519SOL     OW93453   2.313   3.281   5.344
30519SOL    HW193454   2.280   3.280   5.254
30519SOL    HW293455   2.305   3.373   5.371
30520SOL     OW93456   4.123   0.934   0.553
30520SOL    HW193457   4.050   0.967   0.500
30520SOL    HW293458   4.194   0.995   0.536
30521SOL     OW93459   3.441   8.857  10.466
30521SOL    HW193460   3.513   8.900  10.510
30521SOL    HW293461   3.481   8.810  10.393
30522SOL     OW93462   0.637   8.007   2.232
30522SOL    HW193463   0.678   7.921   2.220
30522SOL    HW293464   0.710   8.066   2.248
30523SOL     OW93465   0.993  13.171  13.040
30523SOL    HW193466   1.061  13.158  13.105
30523SOL    HW293467   1.007  13.101  12.976
30524SOL     OW93468   8.114   3.548  12.728
30524SOL    HW193469   8.128   3.612  12.658
30524SOL    HW293470   8.160   3.585  12.804
30525SOL     OW93471   2.770   1.854   7.567
30525SOL    HW193472   2.777   1.802   7.486
30525SOL    HW293473   2.843   1.824   7.621
30526SOL     OW93474   8.629   5.670  13.827
30526SOL    HW193475   8.562   5.615  13.786
30526SOL    HW293476   8.710   5.649  13.781
30527SOL     OW93477   2.160   0.272   8.112
30527SOL    HW193478   2.088   0.335   8.111
30527SOL    HW293479   2.126   0.198   8.163
30528SOL     OW93480   0.500  11.163   7.902
30528SOL    HW193481   0.417  11.138   7.943
30528SOL    HW293482   0.564  11.101   7.937
30529SOL     OW93483  13.345   1.616  13.767
30529SOL    HW193484  13.393   1.547  13.813
30529SOL    HW293485  13.357   1.694  13.820
30530SOL     OW93486  12.910   4.950   5.112
30530SOL    HW193487  12.837   4.933   5.171
30530SOL    HW293488  12.881   5.023   5.058
30531SOL     OW93489  10.243   8.436   6.989
30531SOL    HW193490  10.282   8.348   6.989
30531SOL    HW293491  10.301   8.488   7.044
30532SOL     OW93492   1.107   7.610   4.137
30532SOL    HW193493   1.152   7.692   4.119
30532SOL    HW293494   1.068   7.585   4.053
30533SOL     OW93495  11.489   4.723   1.116
30533SOL    HW193496  11.509   4.656   1.051
30533SOL    HW293497  11.404   4.696   1.153
30534SOL     OW93498  12.376   5.569  10.284
30534SOL    HW193499  12.371   5.579  10.379
30534SOL    HW293500  12.325   5.490  10.265
30535SOL     OW93501   8.973   9.844   8.758
30535SOL    HW193502   8.984   9.786   8.684
30535SOL    HW293503   9.058   9.886   8.770
30536SOL     OW93504  12.755   4.614  14.646
30536SOL    HW193505  12.664   4.588  14.630
30536SOL    HW293506  12.794   4.620  14.558
30537SOL     OW93507   7.675   5.958   5.453
30537SOL    HW193508   7.689   5.875   5.498
30537SOL    HW293509   7.580   5.964   5.444
30538SOL     OW93510   8.585   4.002   3.915
30538SOL    HW193511   8.649   4.016   3.984
30538SOL    HW293512   8.571   4.088   3.876
30539SOL     OW93513   9.426  11.198   6.870
30539SOL    HW193514   9.369  11.151   6.810
30539SOL    HW293515   9.440  11.138   6.943
30540SOL     OW93516   3.731   6.076   0.705
30540SOL    HW193517   3.761   6.161   0.736
30540SOL    HW293518   3.760   6.015   0.773
30541SOL     OW93519  11.212   0.683  12.081
30541SOL    HW193520  11.127   0.671  12.037
30541SOL    HW293521  11.219   0.778  12.092
30542SOL     OW93522   1.329   9.482   3.512
30542SOL    HW193523   1.349   9.556   3.454
30542SOL    HW293524   1.413   9.461   3.553
30543SOL     OW93525  10.704   8.276  11.876
30543SOL    HW193526  10.798   8.269  11.891
30543SOL    HW293527  10.697   8.296  11.783
30544SOL     OW93528   5.855  14.714  10.803
30544SOL    HW193529   5.840  14.808  10.791
30544SOL    HW293530   5.771  14.680  10.833
30545SOL     OW93531   5.482   4.076   3.992
30545SOL    HW193532   5.474   4.074   3.897
30545SOL    HW293533   5.401   4.116   4.022
30546SOL     OW93534   3.522   8.835   3.484
30546SOL    HW193535   3.607   8.837   3.440
30546SOL    HW293536   3.531   8.771   3.554
30547SOL     OW93537  10.480   3.185  11.992
30547SOL    HW193538  10.419   3.113  12.010
30547SOL    HW293539  10.474   3.199  11.898
30548SOL     OW93540   0.335   2.693   5.610
30548SOL    HW193541   0.284   2.771   5.589
30548SOL    HW293542   0.300   2.624   5.553
30549SOL     OW93543  13.605   5.450  10.725
30549SOL    HW193544  13.607   5.539  10.761
30549SOL    HW293545  13.695   5.434  10.697
30550SOL     OW93546   9.949   4.388   1.482
30550SOL    HW193547   9.918   4.328   1.550
30550SOL    HW293548  10.035   4.416   1.512
30551SOL     OW93549   4.396  13.771   1.506
30551SOL    HW193550   4.356  13.855   1.527
30551SOL    HW293551   4.326  13.722   1.463
30552SOL     OW93552  12.199   5.071   4.732
30552SOL    HW193553  12.156   5.146   4.692
30552SOL    HW293554  12.135   5.037   4.795
30553SOL     OW93555   8.262   1.603   8.137
30553SOL    HW193556   8.283   1.523   8.185
30553SOL    HW293557   8.226   1.572   8.054
30554SOL     OW93558  11.138   0.170   6.460
30554SOL    HW193559  11.125   0.249   6.513
30554SOL    HW293560  11.061   0.116   6.478
30555SOL     OW93561  12.888   6.718  13.955
30555SOL    HW193562  12.899   6.629  13.923
30555SOL    HW293563  12.854   6.708  14.044
30556SOL     OW93564  14.747  10.960   5.850
30556SOL    HW193565  14.721  10.868   5.841
30556SOL    HW293566  14.729  10.997   5.764
30557SOL     OW93567  10.300   5.263  13.617
30557SOL    HW193568  10.286   5.298  13.529
30557SOL    HW293569  10.346   5.333  13.664
30558SOL     OW93570  14.020  11.161   9.791
30558SOL    HW193571  14.006  11.220   9.865
30558SOL    HW293572  13.934  11.154   9.749
30559SOL     OW93573   8.700   1.962   8.753
30559SOL    HW193574   8.621   2.009   8.781
30559SOL    HW293575   8.668   1.895   8.692
30560SOL     OW93576   2.542  13.561   3.882
30560SOL    HW193577   2.453  13.572   3.916
30560SOL    HW293578   2.596  13.611   3.943
30561SOL     OW93579  14.595  13.102   2.101
30561SOL    HW193580  14.639  13.179   2.138
30561SOL    HW293581  14.655  13.071   2.034
30562SOL     OW93582  11.857   2.845   7.055
30562SOL    HW193583  11.762   2.852   7.047
30562SOL    HW293584  11.890   2.863   6.967
30563SOL     OW93585   4.363  13.769   4.019
30563SOL    HW193586   4.458  13.763   4.021
30563SOL    HW293587   4.340  13.765   3.926
30564SOL     OW93588  11.503  14.553  13.366
30564SOL    HW193589  11.438  14.523  13.302
30564SOL    HW293590  11.492  14.648  13.370
30565SOL     OW93591  10.183  14.260   6.993
30565SOL    HW193592  10.152  14.184   7.044
30565SOL    HW293593  10.276  14.243   6.980
30566SOL     OW93594   5.436   0.241   3.300
30566SOL    HW193595   5.486   0.198   3.369
30566SOL    HW293596   5.353   0.263   3.341
30567SOL     OW93597   5.435  12.117   3.902
30567SOL    HW193598   5.484  12.048   3.947
30567SOL    HW293599   5.369  12.071   3.851
30568SOL     OW93600   0.705  14.372   9.932
30568SOL    HW193601   0.646  14.323   9.989
30568SOL    HW293602   0.651  14.399   9.858
30569SOL     OW93603   4.175   2.521   9.631
30569SOL    HW193604   4.085   2.549   9.643
30569SOL    HW293605   4.194   2.468   9.709
30570SOL     OW93606   4.516   4.194   7.049
30570SOL    HW193607   4.495   4.102   7.033
30570SOL    HW293608   4.612   4.195   7.055
30571SOL     OW93609   8.611  14.655  10.170
30571SOL    HW193610   8.672  14.729  10.178
30571SOL    HW293611   8.652  14.597  10.107
30572SOL     OW93612  14.672   6.779   7.229
30572SOL    HW193613  14.581   6.806   7.240
30572SOL    HW293614  14.679   6.757   7.136
30573SOL     OW93615   5.674   9.378   0.448
30573SOL    HW193616   5.593   9.416   0.482
30573SOL    HW293617   5.743   9.419   0.500
30574SOL     OW93618   7.189   7.991   1.447
30574SOL    HW193619   7.157   7.924   1.507
30574SOL    HW293620   7.174   7.954   1.360
30575SOL     OW93621   1.140  10.475   5.825
30575SOL    HW193622   1.198  10.486   5.750
30575SOL    HW293623   1.086  10.398   5.804
30576SOL     OW93624   2.004   8.857   2.336
30576SOL    HW193625   1.910   8.875   2.327
30576SOL    HW293626   2.010   8.787   2.401
30577SOL     OW93627   3.815  12.458   3.919
30577SOL    HW193628   3.870  12.396   3.873
30577SOL    HW293629   3.801  12.418   4.005
30578SOL     OW93630   7.815   5.106   8.456
30578SOL    HW193631   7.902   5.067   8.466
30578SOL    HW293632   7.773   5.094   8.541
30579SOL     OW93633   7.838   5.026  11.313
30579SOL    HW193634   7.933   5.029  11.305
30579SOL    HW293635   7.822   5.016  11.407
30580SOL     OW93636   0.768   8.842   9.380
30580SOL    HW193637   0.734   8.894   9.452
30580SOL    HW293638   0.804   8.907   9.319
30581SOL     OW93639   3.372   3.064   2.566
30581SOL    HW193640   3.348   3.146   2.610
30581SOL    HW293641   3.359   2.996   2.632
30582SOL     OW93642   3.228  11.326  13.674
30582SOL    HW193643   3.160  11.393  13.673
30582SOL    HW293644   3.253  11.317  13.582
30583SOL     OW93645   2.204   0.507   1.914
30583SOL    HW193646   2.149   0.571   1.870
30583SOL    HW293647   2.147   0.466   1.979
30584SOL     OW93648   2.754   0.449   9.356
30584SOL    HW193649   2.691   0.518   9.380
30584SOL    HW293650   2.717   0.409   9.277
30585SOL     OW93651  14.600   5.715   8.742
30585SOL    HW193652  14.511   5.740   8.719
30585SOL    HW293653  14.620   5.765   8.821
30586SOL     OW93654   1.481   0.754   0.257
30586SOL    HW193655   1.423   0.783   0.186
30586SOL    HW293656   1.505   0.834   0.303
30587SOL     OW93657   5.724  13.391   9.040
30587SOL    HW193658   5.768  13.432   8.965
30587SOL    HW293659   5.686  13.311   9.004
30588SOL     OW93660   5.330  12.238   9.585
30588SOL    HW193661   5.276  12.273   9.656
30588SOL    HW293662   5.302  12.288   9.508
30589SOL     OW93663  10.791   8.285   8.009
30589SOL    HW193664  10.856   8.218   7.987
30589SOL    HW293665  10.752   8.309   7.924
30590SOL     OW93666   7.485   5.102  14.792
30590SOL    HW193667   7.465   5.183  14.839
30590SOL    HW293668   7.416   5.096  14.725
30591SOL     OW93669  13.190  13.321  11.513
30591SOL    HW193670  13.194  13.411  11.543
30591SOL    HW293671  13.250  13.274  11.571
30592SOL     OW93672   0.773   3.623   7.987
30592SOL    HW193673   0.813   3.544   7.950
30592SOL    HW293674   0.743   3.673   7.911
30593SOL     OW93675   2.234  13.876  11.787
30593SOL    HW193676   2.172  13.940  11.750
30593SOL    HW293677   2.272  13.921  11.863
30594SOL     OW93678   3.311   2.050   3.842
30594SOL    HW193679   3.333   2.101   3.765
30594SOL    HW293680   3.218   2.029   3.832
30595SOL     OW93681  10.735   0.557   9.134
30595SOL    HW193682  10.769   0.624   9.194
30595SOL    HW293683  10.813   0.516   9.098
30596SOL     OW93684   5.025  12.640  11.933
30596SOL    HW193685   5.069  12.725  11.941
30596SOL    HW293686   5.096  12.576  11.934
30597SOL     OW93687   4.263   6.792   1.949
30597SOL    HW193688   4.344   6.825   1.908
30597SOL    HW293689   4.291   6.714   1.996
30598SOL     OW93690   8.648   0.210  14.700
30598SOL    HW193691   8.676   0.300  14.719
30598SOL    HW293692   8.705   0.155  14.754
30599SOL     OW93693  10.366  12.474   6.809
30599SOL    HW193694  10.314  12.532   6.865
30599SOL    HW293695  10.348  12.505   6.720
30600SOL     OW93696  10.430  14.580   8.542
30600SOL    HW193697  10.417  14.531   8.461
30600SOL    HW293698  10.389  14.665   8.526
30601SOL     OW93699   2.528   7.898   5.903
30601SOL    HW193700   2.465   7.937   5.843
30601SOL    HW293701   2.476   7.836   5.954
30602SOL     OW93702  11.639   3.440   7.986
30602SOL    HW193703  11.678   3.506   8.043
30602SOL    HW293704  11.553   3.476   7.963
30603SOL     OW93705   3.695   3.781  13.434
30603SOL    HW193706   3.774   3.833  13.453
30603SOL    HW293707   3.706   3.701  13.486
30604SOL     OW93708   7.673  12.816  13.635
30604SOL    HW193709   7.765  12.823  13.661
30604SOL    HW293710   7.648  12.728  13.663
30605SOL     OW93711  10.828  13.993   3.230
30605SOL    HW193712  10.785  13.908   3.232
30605SOL    HW293713  10.922  13.973   3.229
30606SOL     OW93714   9.481  11.839   9.296
30606SOL    HW193715   9.493  11.831   9.391
30606SOL    HW293716   9.426  11.916   9.285
30607SOL     OW93717   7.157  12.197   4.981
30607SOL    HW193718   7.196  12.132   5.039
30607SOL    HW293719   7.133  12.149   4.902
30608SOL     OW93720   7.376  10.959   5.034
30608SOL    HW193721   7.373  10.864   5.019
30608SOL    HW293722   7.301  10.993   4.986
30609SOL     OW93723  14.732   5.957   1.535
30609SOL    HW193724  14.746   5.865   1.510
30609SOL    HW293725  14.751   5.959   1.629
30610SOL     OW93726   1.880   7.103   3.681
30610SOL    HW193727   1.796   7.148   3.682
30610SOL    HW293728   1.885   7.064   3.594
30611SOL     OW93729  11.450   3.031  14.670
30611SOL    HW193730  11.404   3.062  14.748
30611SOL    HW293731  11.499   3.108  14.639
30612SOL     OW93732  13.596   1.255   5.344
30612SOL    HW193733  13.517   1.220   5.383
30612SOL    HW293734  13.666   1.197   5.374
30613SOL     OW93735   1.984  13.410   9.066
30613SOL    HW193736   1.900  13.443   9.033
30613SOL    HW293737   1.988  13.320   9.035
30614SOL     OW93738   6.047   4.433   3.160
30614SOL    HW193739   5.954   4.410   3.163
30614SOL    HW293740   6.063   4.456   3.069
30615SOL     OW93741   9.824  12.167   7.059
30615SOL    HW193742   9.884  12.164   6.984
30615SOL    HW293743   9.756  12.228   7.033
30616SOL     OW93744  10.936   3.844   0.215
30616SOL    HW193745  10.869   3.912   0.207
30616SOL    HW293746  10.978   3.841   0.129
30617SOL     OW93747   9.937  12.764   8.370
30617SOL    HW193748   9.843  12.764   8.389
30617SOL    HW293749   9.977  12.716   8.442
30618SOL     OW93750  12.971   3.423  14.062
30618SOL    HW193751  12.952   3.516  14.050
30618SOL    HW293752  12.965   3.408  14.156
30619SOL     OW93753  14.796   7.642   2.406
30619SOL    HW193754  14.864   7.705   2.427
30619SOL    HW293755  14.843   7.560   2.391
30620SOL     OW93756  12.110   6.195   9.660
30620SOL    HW193757  12.195   6.154   9.646
30620SOL    HW293758  12.049   6.121   9.667
30621SOL     OW93759   5.686   8.857   4.028
30621SOL    HW193760   5.743   8.857   4.105
30621SOL    HW293761   5.617   8.794   4.049
30622SOL     OW93762   1.888  12.629   6.891
30622SOL    HW193763   1.910  12.697   6.956
30622SOL    HW293764   1.812  12.664   6.845
30623SOL     OW93765   3.039   0.191   1.078
30623SOL    HW193766   2.986   0.253   1.128
30623SOL    HW293767   3.065   0.124   1.141
30624SOL     OW93768   8.999  13.485   3.008
30624SOL    HW193769   8.909  13.517   2.998
30624SOL    HW293770   8.994  13.427   3.084
30625SOL     OW93771   0.287  13.477   7.803
30625SOL    HW193772   0.230  13.408   7.837
30625SOL    HW293773   0.268  13.553   7.858
30626SOL     OW93774  14.231  14.554  11.124
30626SOL    HW193775  14.201  14.581  11.210
30626SOL    HW293776  14.154  14.514  11.083
30627SOL     OW93777   3.312   7.082   0.049
30627SOL    HW193778   3.264   7.088   0.131
30627SOL    HW293779   3.334   6.989   0.041
30628SOL     OW93780   9.302  10.011  12.242
30628SOL    HW193781   9.216   9.968  12.235
30628SOL    HW293782   9.291  10.094  12.196
30629SOL     OW93783   2.590   7.718  10.252
30629SOL    HW193784   2.625   7.629  10.249
30629SOL    HW293785   2.594   7.742  10.345
30630SOL     OW93786  11.804  14.334   5.217
30630SOL    HW193787  11.771  14.415   5.256
30630SOL    HW293788  11.734  14.270   5.232
30631SOL     OW93789   1.919  11.167   9.984
30631SOL    HW193790   1.847  11.179  10.046
30631SOL    HW293791   1.876  11.145   9.901
30632SOL     OW93792  11.444   3.294   9.068
30632SOL    HW193793  11.444   3.322   9.159
30632SOL    HW293794  11.519   3.338   9.029
30633SOL     OW93795   0.187   7.502   0.907
30633SOL    HW193796   0.162   7.410   0.898
30633SOL    HW293797   0.107   7.551   0.888
30634SOL     OW93798   4.620   4.084   3.317
30634SOL    HW193799   4.635   4.145   3.389
30634SOL    HW293800   4.529   4.058   3.326
30635SOL     OW93801   8.857   2.916  13.033
30635SOL    HW193802   8.875   3.010  13.039
30635SOL    HW293803   8.788   2.909  12.967
30636SOL     OW93804  10.006   2.331   8.151
30636SOL    HW193805  10.031   2.415   8.113
30636SOL    HW293806   9.979   2.277   8.076
30637SOL     OW93807   7.009   4.420   5.852
30637SOL    HW193808   7.100   4.393   5.844
30637SOL    HW293809   6.972   4.360   5.917
30638SOL     OW93810   2.651   2.812  12.662
30638SOL    HW193811   2.687   2.854  12.584
30638SOL    HW293812   2.696   2.854  12.735
30639SOL     OW93813   2.264  10.447   8.088
30639SOL    HW193814   2.226  10.433   8.002
30639SOL    HW293815   2.212  10.519   8.126
30640SOL     OW93816  13.285  14.059   0.717
30640SOL    HW193817  13.294  13.991   0.784
30640SOL    HW293818  13.225  14.022   0.653
30641SOL     OW93819   6.190  14.489  13.022
30641SOL    HW193820   6.285  14.482  13.030
30641SOL    HW293821   6.157  14.402  13.045
30642SOL     OW93822   4.271  14.707   0.455
30642SOL    HW193823   4.265  14.739   0.545
30642SOL    HW293824   4.353  14.658   0.453
30643SOL     OW93825  14.669   2.563   8.676
30643SOL    HW193826  14.736   2.494   8.678
30643SOL    HW293827  14.606   2.533   8.610
30644SOL     OW93828   6.282   7.377   0.134
30644SOL    HW193829   6.299   7.383   0.228
30644SOL    HW293830   6.216   7.444   0.117
30645SOL     OW93831   9.696  11.788  10.782
30645SOL    HW193832   9.732  11.716  10.834
30645SOL    HW293833   9.684  11.751  10.695
30646SOL     OW93834  14.366   5.010   8.950
30646SOL    HW193835  14.439   4.977   9.002
30646SOL    HW293836  14.359   4.950   8.876
30647SOL     OW93837   3.564   0.948   7.640
30647SOL    HW193838   3.520   1.027   7.610
30647SOL    HW293839   3.494   0.884   7.650
30648SOL     OW93840  14.307  13.047   0.245
30648SOL    HW193841  14.286  13.119   0.304
30648SOL    HW293842  14.259  12.972   0.280
30649SOL     OW93843   6.480  13.649  10.138
30649SOL    HW193844   6.575  13.662  10.145
30649SOL    HW293845   6.467  13.611  10.052
30650SOL     OW93846   8.030   3.731   3.987
30650SOL    HW193847   8.047   3.793   3.917
30650SOL    HW293848   7.969   3.667   3.949
30651SOL     OW93849  14.518  14.019  12.145
30651SOL    HW193850  14.476  13.965  12.078
30651SOL    HW293851  14.503  14.109  12.115
30652SOL     OW93852  13.149   0.965   1.819
30652SOL    HW193853  13.192   0.968   1.734
30652SOL    HW293854  13.212   1.003   1.880
30653SOL     OW93855   2.971   2.715  10.052
30653SOL    HW193856   2.947   2.789   9.996
30653SOL    HW293857   3.022   2.657   9.995
30654SOL     OW93858  13.964  10.585  13.238
30654SOL    HW193859  13.955  10.498  13.199
30654SOL    HW293860  13.877  10.625  13.229
30655SOL     OW93861  10.572   9.378   8.649
30655SOL    HW193862  10.516   9.455   8.642
30655SOL    HW293863  10.530   9.312   8.594
30656SOL     OW93864   0.438   4.230   0.573
30656SOL    HW193865   0.397   4.180   0.643
30656SOL    HW293866   0.532   4.224   0.591
30657SOL     OW93867   6.511   2.166   2.919
30657SOL    HW193868   6.502   2.243   2.862
30657SOL    HW293869   6.603   2.165   2.943
30658SOL     OW93870  13.118  11.800   9.763
30658SOL    HW193871  13.113  11.893   9.742
30658SOL    HW293872  13.068  11.757   9.693
30659SOL     OW93873  14.596  13.268  10.046
30659SOL    HW193874  14.600  13.334   9.977
30659SOL    HW293875  14.511  13.281  10.087
30660SOL     OW93876  11.388  11.039   4.840
30660SOL    HW193877  11.330  11.113   4.855
30660SOL    HW293878  11.418  11.014   4.927
30661SOL     OW93879  11.727   2.512   6.881
30661SOL    HW193880  11.770   2.465   6.810
30661SOL    HW293881  11.799   2.539   6.939
30662SOL     OW93882  14.582   4.148   6.343
30662SOL    HW193883  14.675   4.170   6.348
30662SOL    HW293884  14.574   4.066   6.391
30663SOL     OW93885  13.608   6.307   1.644
30663SOL    HW193886  13.579   6.358   1.720
30663SOL    HW293887  13.698   6.334   1.630
30664SOL     OW93888   5.009   7.532   6.972
30664SOL    HW193889   5.037   7.468   7.038
30664SOL    HW293890   5.085   7.542   6.915
30665SOL     OW93891  11.533   4.360   1.905
30665SOL    HW193892  11.552   4.410   1.985
30665SOL    HW293893  11.556   4.270   1.928
30666SOL     OW93894  10.252   7.286  11.271
30666SOL    HW193895  10.268   7.193  11.287
30666SOL    HW293896  10.238   7.323  11.358
30667SOL     OW93897   8.361  10.175   0.906
30667SOL    HW193898   8.291  10.150   0.845
30667SOL    HW293899   8.395  10.091   0.937
30668SOL     OW93900   0.714  10.509   4.392
30668SOL    HW193901   0.744  10.599   4.382
30668SOL    HW293902   0.755  10.479   4.473
30669SOL     OW93903   9.292  10.984   2.235
30669SOL    HW193904   9.221  10.978   2.298
30669SOL    HW293905   9.338  10.900   2.242
30670SOL     OW93906   4.278   5.772   8.137
30670SOL    HW193907   4.371   5.768   8.161
30670SOL    HW293908   4.275   5.830   8.062
30671SOL     OW93909   7.631  11.886   9.661
30671SOL    HW193910   7.692  11.821   9.627
30671SOL    HW293911   7.660  11.968   9.622
30672SOL     OW93912  13.912  11.764   5.964
30672SOL    HW193913  13.858  11.801   5.894
30672SOL    HW293914  13.926  11.836   6.025
30673SOL     OW93915  10.823   8.605   3.510
30673SOL    HW193916  10.771   8.525   3.495
30673SOL    HW293917  10.901   8.574   3.554
30674SOL     OW93918  10.283   2.837   0.786
30674SOL    HW193919  10.191   2.815   0.802
30674SOL    HW293920  10.297   2.918   0.835
30675SOL     OW93921   4.225   3.961  12.915
30675SOL    HW193922   4.135   3.929  12.919
30675SOL    HW293923   4.271   3.899  12.858
30676SOL     OW93924   4.185   1.026   6.547
30676SOL    HW193925   4.197   1.014   6.453
30676SOL    HW293926   4.160   0.939   6.579
30677SOL     OW93927  12.731  10.109   7.482
30677SOL    HW193928  12.687  10.194   7.486
30677SOL    HW293929  12.699  10.069   7.402
30678SOL     OW93930  13.619   6.019   3.002
30678SOL    HW193931  13.692   5.965   3.033
30678SOL    HW293932  13.558   5.956   2.963
30679SOL     OW93933   2.041  14.465  14.132
30679SOL    HW193934   1.953  14.429  14.134
30679SOL    HW293935   2.098  14.389  14.148
30680SOL     OW93936   4.834   0.821   9.054
30680SOL    HW193937   4.787   0.875   9.118
30680SOL    HW293938   4.797   0.847   8.970
30681SOL     OW93939  14.077  10.888  14.343
30681SOL    HW193940  14.153  10.944  14.329
30681SOL    HW293941  14.009  10.926  14.287
30682SOL     OW93942   4.362   6.191  12.710
30682SOL    HW193943   4.453   6.184  12.740
30682SOL    HW293944   4.319   6.114  12.746
30683SOL     OW93945  11.149   5.395   3.947
30683SOL    HW193946  11.143   5.474   3.893
30683SOL    HW293947  11.226   5.409   4.002
30684SOL     OW93948   7.740   8.523   3.233
30684SOL    HW193949   7.704   8.594   3.285
30684SOL    HW293950   7.670   8.457   3.230
30685SOL     OW93951   4.598  10.331   9.983
30685SOL    HW193952   4.573  10.363   9.896
30685SOL    HW293953   4.518  10.338  10.035
30686SOL     OW93954   9.894   6.188   7.438
30686SOL    HW193955   9.965   6.207   7.500
30686SOL    HW293956   9.884   6.269   7.388
30687SOL     OW93957   5.414   8.038  13.900
30687SOL    HW193958   5.487   7.998  13.853
30687SOL    HW293959   5.433   8.020  13.993
30688SOL     OW93960   0.588  13.523   7.363
30688SOL    HW193961   0.652  13.478   7.308
30688SOL    HW293962   0.538  13.578   7.302
30689SOL     OW93963   9.412   6.403   4.243
30689SOL    HW193964   9.368   6.399   4.328
30689SOL    HW293965   9.418   6.496   4.223
30690SOL     OW93966  11.282   0.434   7.916
30690SOL    HW193967  11.227   0.432   7.995
30690SOL    HW293968  11.249   0.508   7.866
30691SOL     OW93969   7.650  13.224  10.488
30691SOL    HW193970   7.646  13.186  10.576
30691SOL    HW293971   7.601  13.163  10.433
30692SOL     OW93972  14.534   8.531   7.045
30692SOL    HW193973  14.497   8.557   6.961
30692SOL    HW293974  14.464   8.484   7.089
30693SOL     OW93975   6.339   0.220   9.425
30693SOL    HW193976   6.434   0.206   9.432
30693SOL    HW293977   6.302   0.132   9.428
30694SOL     OW93978   0.802   3.719  11.134
30694SOL    HW193979   0.873   3.740  11.074
30694SOL    HW293980   0.731   3.688  11.077
30695SOL     OW93981   3.302   1.792  11.122
30695SOL    HW193982   3.320   1.708  11.078
30695SOL    HW293983   3.388   1.834  11.130
30696SOL     OW93984   4.318   3.315   6.421
30696SOL    HW193985   4.242   3.320   6.480
30696SOL    HW293986   4.331   3.405   6.392
30697SOL     OW93987  11.246   6.345   6.265
30697SOL    HW193988  11.205   6.258   6.263
30697SOL    HW293989  11.209   6.391   6.190
30698SOL     OW93990   1.506  10.679   8.552
30698SOL    HW193991   1.544  10.717   8.473
30698SOL    HW293992   1.548  10.594   8.562
30699SOL     OW93993  14.623   1.741  12.817
30699SOL    HW193994  14.583   1.659  12.846
30699SOL    HW293995  14.565   1.773  12.748
30700SOL     OW93996   5.778   1.487  13.688
30700SOL    HW193997   5.751   1.515  13.776
30700SOL    HW293998   5.869   1.460  13.698
30701SOL     OW93999   8.540   9.900   0.993
30701SOL    HW194000   8.583   9.983   1.011
30701SOL    HW294001   8.591   9.862   0.922
30702SOL     OW94002   6.097   4.237   6.919
30702SOL    HW194003   6.100   4.166   6.983
30702SOL    HW294004   6.170   4.294   6.944
30703SOL     OW94005  10.806   2.810   7.950
30703SOL    HW194006  10.833   2.880   8.008
30703SOL    HW294007  10.888   2.766   7.925
30704SOL     OW94008  13.755   6.691   4.007
30704SOL    HW194009  13.780   6.774   4.048
30704SOL    HW294010  13.747   6.630   4.080
30705SOL     OW94011  13.929   3.841   3.354
30705SOL    HW194012  13.856   3.859   3.296
30705SOL    HW294013  13.970   3.926   3.369
30706SOL     OW94014  12.490   6.191   1.857
30706SOL    HW194015  12.508   6.235   1.774
30706SOL    HW294016  12.407   6.145   1.842
30707SOL     OW94017   9.707   0.734   6.279
30707SOL    HW194018   9.709   0.741   6.184
30707SOL    HW294019   9.626   0.687   6.299
30708SOL     OW94020   1.091   6.809   8.077
30708SOL    HW194021   1.114   6.901   8.077
30708SOL    HW294022   1.169   6.765   8.113
30709SOL     OW94023   5.188   4.878   0.508
30709SOL    HW194024   5.135   4.949   0.473
30709SOL    HW294025   5.269   4.880   0.457
30710SOL     OW94026   7.084   0.764  10.143
30710SOL    HW194027   7.147   0.707  10.100
30710SOL    HW294028   7.100   0.851  10.105
30711SOL     OW94029   1.375   9.008   6.263
30711SOL    HW194030   1.445   8.945   6.246
30711SOL    HW294031   1.333   8.977   6.343
30712SOL     OW94032   1.678  10.808   9.554
30712SOL    HW194033   1.737  10.813   9.479
30712SOL    HW294034   1.735  10.792   9.629
30713SOL     OW94035  13.132   1.975   0.673
30713SOL    HW194036  13.223   1.973   0.700
30713SOL    HW294037  13.085   2.010   0.749
30714SOL     OW94038  12.377  10.184   4.194
30714SOL    HW194039  12.287  10.182   4.227
30714SOL    HW294040  12.425  10.236   4.258
30715SOL     OW94041   4.644  13.776   4.008
30715SOL    HW194042   4.657  13.683   3.991
30715SOL    HW294043   4.732  13.814   4.000
30716SOL     OW94044   7.883  12.228   1.822
30716SOL    HW194045   7.879  12.134   1.803
30716SOL    HW294046   7.815  12.267   1.767
30717SOL     OW94047   7.009   0.413   4.242
30717SOL    HW194048   7.067   0.387   4.171
30717SOL    HW294049   6.955   0.336   4.259
30718SOL     OW94050   9.406   1.661  13.574
30718SOL    HW194051   9.346   1.630  13.506
30718SOL    HW294052   9.371   1.623  13.655
30719SOL     OW94053   3.915   1.738  14.753
30719SOL    HW194054   3.997   1.710  14.714
30719SOL    HW294055   3.929   1.730  14.847
30720SOL     OW94056   6.201   6.190   8.078
30720SOL    HW194057   6.130   6.141   8.119
30720SOL    HW294058   6.218   6.144   7.996
30721SOL     OW94059  14.748   9.451  11.595
30721SOL    HW194060  14.773   9.408  11.513
30721SOL    HW294061  14.804   9.409  11.661
30722SOL     OW94062   6.237   6.578   1.220
30722SOL    HW194063   6.176   6.649   1.240
30722SOL    HW294064   6.275   6.554   1.305
30723SOL     OW94065   6.055   9.900   4.426
30723SOL    HW194066   6.061   9.847   4.505
30723SOL    HW294067   6.074   9.839   4.355
30724SOL     OW94068   4.086   4.160  13.230
30724SOL    HW194069   4.153   4.215  13.190
30724SOL    HW294070   4.081   4.190  13.320
30725SOL     OW94071  10.500  11.760   5.935
30725SOL    HW194072  10.575  11.721   5.979
30725SOL    HW294073  10.450  11.685   5.901
30726SOL     OW94074   8.464   3.351  11.467
30726SOL    HW194075   8.533   3.382  11.526
30726SOL    HW294076   8.447   3.261  11.496
30727SOL     OW94077   4.903  12.656   9.835
30727SOL    HW194078   4.839  12.625   9.771
30727SOL    HW294079   4.851  12.706   9.898
30728SOL     OW94080   7.358   6.132   1.560
30728SOL    HW194081   7.345   6.207   1.503
30728SOL    HW294082   7.291   6.140   1.627
30729SOL     OW94083   9.144   5.360  14.856
30729SOL    HW194084   9.050   5.344  14.871
30729SOL    HW294085   9.178   5.386   0.069
30730SOL     OW94086   2.951   0.216   1.593
30730SOL    HW194087   2.883   0.274   1.627
30730SOL    HW294088   3.033   0.255   1.624
30731SOL     OW94089  10.604   0.303   4.321
30731SOL    HW194090  10.612   0.211   4.345
30731SOL    HW294091  10.677   0.346   4.367
30732SOL     OW94092   7.116  13.129   7.940
30732SOL    HW194093   7.052  13.105   8.006
30732SOL    HW294094   7.066  13.140   7.860
30733SOL     OW94095  12.463  13.084  11.369
30733SOL    HW194096  12.396  13.138  11.410
30733SOL    HW294097  12.546  13.120  11.402
30734SOL     OW94098   6.722  14.169   4.604
30734SOL    HW194099   6.739  14.256   4.639
30734SOL    HW294100   6.633  14.148   4.634
30735SOL     OW94101   0.757  11.452   8.582
30735SOL    HW194102   0.850  11.459   8.606
30735SOL    HW294103   0.713  11.430   8.664
30736SOL     OW94104   0.988   2.585   9.379
30736SOL    HW194105   0.941   2.562   9.299
30736SOL    HW294106   1.029   2.669   9.359
30737SOL     OW94107  10.599   4.912   1.228
30737SOL    HW194108  10.632   4.860   1.156
30737SOL    HW294109  10.527   4.860   1.265
30738SOL     OW94110  13.524   9.454   9.106
30738SOL    HW194111  13.609   9.471   9.147
30738SOL    HW294112  13.527   9.501   9.023
30739SOL     OW94113   3.182   4.536   4.262
30739SOL    HW194114   3.101   4.587   4.258
30739SOL    HW294115   3.157   4.449   4.231
30740SOL     OW94116   0.475   6.763   0.254
30740SOL    HW194117   0.380   6.757   0.257
30740SOL    HW294118   0.506   6.674   0.271
30741SOL     OW94119   0.941   8.440   3.970
30741SOL    HW194120   0.969   8.401   3.888
30741SOL    HW294121   0.855   8.402   3.987
30742SOL     OW94122   6.074   1.854   3.646
30742SOL    HW194123   6.110   1.843   3.558
30742SOL    HW294124   6.002   1.916   3.634
30743SOL     OW94125   1.861   7.276   4.526
30743SOL    HW194126   1.819   7.206   4.476
30743SOL    HW294127   1.893   7.337   4.459
30744SOL     OW94128   9.161   2.750  14.824
30744SOL    HW194129   9.254   2.770  14.807
30744SOL    HW294130   9.120   2.836  14.835
30745SOL     OW94131  13.998   2.414   4.105
30745SOL    HW194132  13.915   2.379   4.074
30745SOL    HW294133  14.019   2.360   4.182
30746SOL     OW94134   7.834  12.883  10.442
30746SOL    HW194135   7.749  12.890  10.485
30746SOL    HW294136   7.819  12.919  10.354
30747SOL     OW94137   7.830   0.966   5.542
30747SOL    HW194138   7.916   0.973   5.501
30747SOL    HW294139   7.846   0.919   5.624
30748SOL     OW94140   8.864   7.925  11.622
30748SOL    HW194141   8.816   7.862  11.675
30748SOL    HW294142   8.854   8.008  11.669
30749SOL     OW94143   6.322   5.483   2.375
30749SOL    HW194144   6.248   5.516   2.324
30749SOL    HW294145   6.282   5.423   2.439
30750SOL     OW94146  10.184  10.534   7.920
30750SOL    HW194147  10.097  10.562   7.895
30750SOL    HW294148  10.225  10.503   7.839
30751SOL     OW94149  12.623   7.347   4.385
30751SOL    HW194150  12.693   7.401   4.422
30751SOL    HW294151  12.650   7.331   4.295
30752SOL     OW94152   9.136   7.199   0.833
30752SOL    HW194153   9.105   7.155   0.754
30752SOL    HW294154   9.125   7.134   0.902
30753SOL     OW94155   9.811  10.099  10.647
30753SOL    HW194156   9.770  10.072  10.565
30753SOL    HW294157   9.896  10.135  10.621
30754SOL     OW94158   9.544  12.846  11.348
30754SOL    HW194159   9.556  12.841  11.442
30754SOL    HW294160   9.571  12.935  11.324
30755SOL     OW94161   4.863   2.089   8.987
30755SOL    HW194162   4.876   2.108   9.080
30755SOL    HW294163   4.871   1.994   8.980
30756SOL     OW94164   8.621  14.293  10.669
30756SOL    HW194165   8.676  14.338  10.735
30756SOL    HW294166   8.558  14.359  10.641
30757SOL     OW94167   0.942   7.590   5.995
30757SOL    HW194168   0.961   7.496   5.995
30757SOL    HW294169   0.852   7.596   5.961
30758SOL     OW94170  11.788   2.299   8.359
30758SOL    HW194171  11.842   2.321   8.434
30758SOL    HW294172  11.778   2.204   8.363
30759SOL     OW94173   3.136   8.144  10.749
30759SOL    HW194174   3.068   8.143  10.681
30759SOL    HW294175   3.113   8.072  10.807
30760SOL     OW94176   3.888  13.121   4.362
30760SOL    HW194177   3.965  13.170   4.335
30760SOL    HW294178   3.892  13.039   4.312
30761SOL     OW94179   3.164   5.549   2.996
30761SOL    HW194180   3.162   5.609   3.071
30761SOL    HW294181   3.220   5.592   2.932
30762SOL     OW94182   9.261   1.128  14.392
30762SOL    HW194183   9.193   1.111  14.327
30762SOL    HW294184   9.343   1.117  14.345
30763SOL     OW94185  13.187   7.018  14.531
30763SOL    HW194186  13.181   6.947  14.595
30763SOL    HW294187  13.173   6.975  14.447
30764SOL     OW94188   7.896  13.492   1.806
30764SOL    HW194189   7.951  13.460   1.877
30764SOL    HW294190   7.806  13.483   1.838
30765SOL     OW94191  13.288   6.634   1.374
30765SOL    HW194192  13.353   6.660   1.440
30765SOL    HW294193  13.332   6.646   1.290
30766SOL     OW94194   3.690   0.652   7.800
30766SOL    HW194195   3.651   0.574   7.841
30766SOL    HW294196   3.781   0.650   7.829
30767SOL     OW94197  11.064  13.522   0.259
30767SOL    HW194198  10.968  13.529   0.259
30767SOL    HW294199  11.092  13.580   0.330
30768SOL     OW94200  11.620   0.835   1.741
30768SOL    HW194201  11.534   0.861   1.707
30768SOL    HW294202  11.609   0.835   1.836
30769SOL     OW94203   0.127  12.972   7.950
30769SOL    HW194204   0.163  13.052   7.987
30769SOL    HW294205   0.060  13.002   7.888
30770SOL     OW94206   8.760  10.625  13.446
30770SOL    HW194207   8.774  10.573  13.526
30770SOL    HW294208   8.809  10.578  13.378
30771SOL     OW94209  12.430  14.499   6.183
30771SOL    HW194210  12.473  14.505   6.268
30771SOL    HW294211  12.500  14.516   6.120
30772SOL     OW94212   8.721   2.895   1.463
30772SOL    HW194213   8.637   2.851   1.448
30772SOL    HW294214   8.704   2.955   1.536
30773SOL     OW94215   2.153  13.078   5.671
30773SOL    HW194216   2.173  13.022   5.596
30773SOL    HW294217   2.075  13.038   5.710
30774SOL     OW94218  12.745   5.493   0.986
30774SOL    HW194219  12.723   5.576   1.028
30774SOL    HW294220  12.677   5.432   1.014
30775SOL     OW94221   0.549   8.344  13.824
30775SOL    HW194222   0.605   8.339  13.747
30775SOL    HW294223   0.608   8.368  13.895
30776SOL     OW94224  11.059   8.204   6.367
30776SOL    HW194225  10.998   8.135   6.392
30776SOL    HW294226  11.142   8.160   6.352
30777SOL     OW94227  10.668   6.574   5.395
30777SOL    HW194228  10.692   6.482   5.403
30777SOL    HW294229  10.716   6.606   5.319
30778SOL     OW94230   1.177   4.137   8.649
30778SOL    HW194231   1.219   4.069   8.597
30778SOL    HW294232   1.240   4.210   8.648
30779SOL     OW94233   2.578   0.802   4.595
30779SOL    HW194234   2.667   0.835   4.605
30779SOL    HW294235   2.525   0.857   4.654
30780SOL     OW94236  10.613   4.685  11.483
30780SOL    HW194237  10.592   4.762  11.430
30780SOL    HW294238  10.600   4.611  11.423
30781SOL     OW94239   6.828  13.772   9.219
30781SOL    HW194240   6.849  13.680   9.240
30781SOL    HW294241   6.733  13.777   9.228
30782SOL     OW94242   8.253  12.003   8.127
30782SOL    HW194243   8.294  11.926   8.088
30782SOL    HW294244   8.172  12.014   8.077
30783SOL     OW94245  13.173   9.377   7.006
30783SOL    HW194246  13.220   9.458   6.984
30783SOL    HW294247  13.101   9.405   7.061
30784SOL     OW94248   2.650   8.658   6.726
30784SOL    HW194249   2.567   8.646   6.772
30784SOL    HW294250   2.708   8.592   6.761
30785SOL     OW94251   4.688   5.886  12.656
30785SOL    HW194252   4.724   5.833  12.727
30785SOL    HW294253   4.716   5.975  12.677
30786SOL     OW94254  13.900   7.682   6.253
30786SOL    HW194255  13.901   7.707   6.160
30786SOL    HW294256  13.856   7.755   6.297
30787SOL     OW94257  12.329   6.363   2.654
30787SOL    HW194258  12.258   6.380   2.715
30787SOL    HW294259  12.292   6.381   2.568
30788SOL     OW94260   5.571  12.161   9.742
30788SOL    HW194261   5.568  12.211   9.823
30788SOL    HW294262   5.505  12.202   9.686
30789SOL     OW94263   5.507   2.558   9.801
30789SOL    HW194264   5.439   2.602   9.751
30789SOL    HW294265   5.564   2.628   9.831
30790SOL     OW94266   9.993   3.631   8.046
30790SOL    HW194267   9.949   3.688   7.983
30790SOL    HW294268   9.961   3.659   8.131
30791SOL     OW94269   1.180   9.204   5.746
30791SOL    HW194270   1.241   9.179   5.676
30791SOL    HW294271   1.217   9.163   5.824
30792SOL     OW94272  12.740  14.648   4.347
30792SOL    HW194273  12.680  14.639   4.422
30792SOL    HW294274  12.779  14.734   4.358
30793SOL     OW94275  10.904   3.835   3.023
30793SOL    HW194276  10.815   3.855   3.053
30793SOL    HW294277  10.903   3.855   2.930
30794SOL     OW94278  12.974   3.828   2.517
30794SOL    HW194279  12.891   3.826   2.565
30794SOL    HW294280  12.997   3.736   2.506
30795SOL     OW94281   7.093   7.025  12.818
30795SOL    HW194282   7.039   7.036  12.896
30795SOL    HW294283   7.170   6.977  12.849
30796SOL     OW94284  13.768  13.701   9.197
30796SOL    HW194285  13.773  13.648   9.118
30796SOL    HW294286  13.805  13.646   9.266
30797SOL     OW94287   4.933   1.485   0.271
30797SOL    HW194288   4.854   1.432   0.260
30797SOL    HW294289   4.980   1.443   0.344
30798SOL     OW94290   4.519   8.297   2.519
30798SOL    HW194291   4.496   8.221   2.466
30798SOL    HW294292   4.581   8.346   2.466
30799SOL     OW94293   3.959   6.065   5.921
30799SOL    HW194294   3.954   6.139   5.981
30799SOL    HW294295   3.868   6.042   5.902
30800SOL     OW94296   3.456   9.697   3.105
30800SOL    HW194297   3.533   9.705   3.161
30800SOL    HW294298   3.396   9.766   3.135
30801SOL     OW94299  14.162   1.997   0.505
30801SOL    HW194300  14.100   2.063   0.472
30801SOL    HW294301  14.218   1.977   0.430
30802SOL     OW94302  11.499   8.497   5.427
30802SOL    HW194303  11.467   8.463   5.511
30802SOL    HW294304  11.492   8.423   5.367
30803SOL     OW94305   1.330  14.555  10.565
30803SOL    HW194306   1.267  14.492  10.600
30803SOL    HW294307   1.347  14.525  10.475
30804SOL     OW94308   4.431   9.598   1.543
30804SOL    HW194309   4.411   9.665   1.478
30804SOL    HW294310   4.523   9.577   1.529
30805SOL     OW94311   0.259   2.979   0.300
30805SOL    HW194312   0.266   3.074   0.291
30805SOL    HW294313   0.167   2.963   0.320
30806SOL     OW94314   0.204  13.289   7.392
30806SOL    HW194315   0.207  13.383   7.375
30806SOL    HW294316   0.294  13.265   7.414
30807SOL     OW94317  12.092   4.224  12.341
30807SOL    HW194318  12.150   4.292  12.307
30807SOL    HW294319  12.003   4.256  12.325
30808SOL     OW94320  11.016   2.384  12.591
30808SOL    HW194321  10.997   2.439  12.515
30808SOL    HW294322  10.931   2.370  12.632
30809SOL     OW94323   4.021   2.245  13.017
30809SOL    HW194324   4.075   2.323  13.032
30809SOL    HW294325   4.011   2.205  13.103
30810SOL     OW94326  13.473   0.917   3.857
30810SOL    HW194327  13.502   0.991   3.910
30810SOL    HW294328  13.394   0.885   3.900
30811SOL     OW94329   3.385  10.527  11.863
30811SOL    HW194330   3.382  10.445  11.912
30811SOL    HW294331   3.362  10.503  11.774
30812SOL     OW94332   1.509  13.160   2.876
30812SOL    HW194333   1.595  13.181   2.913
30812SOL    HW294334   1.459  13.242   2.884
30813SOL     OW94335  13.691   3.570   5.836
30813SOL    HW194336  13.686   3.640   5.770
30813SOL    HW294337  13.773   3.587   5.883
30814SOL     OW94338   6.318  14.392  11.300
30814SOL    HW194339   6.297  14.390  11.394
30814SOL    HW294340   6.271  14.469  11.267
30815SOL     OW94341   0.826  14.444  14.793
30815SOL    HW194342   0.863  14.532  14.801
30815SOL    HW294343   0.795  14.439  14.703
30816SOL     OW94344  12.456   9.115   1.621
30816SOL    HW194345  12.480   9.181   1.685
30816SOL    HW294346  12.538   9.069   1.601
30817SOL     OW94347   4.317   9.603   8.859
30817SOL    HW194348   4.393   9.553   8.831
30817SOL    HW294349   4.353   9.671   8.917
30818SOL     OW94350   4.938   7.092   2.990
30818SOL    HW194351   4.851   7.094   2.950
30818SOL    HW294352   4.986   7.026   2.939
30819SOL     OW94353   8.747   4.169   7.491
30819SOL    HW194354   8.829   4.153   7.444
30819SOL    HW294355   8.688   4.204   7.425
30820SOL     OW94356   7.724  11.726  13.628
30820SOL    HW194357   7.684  11.643  13.602
30820SOL    HW294358   7.815  11.703  13.648
30821SOL     OW94359  14.742   3.634  14.860
30821SOL    HW194360  14.657   3.655   0.026
30821SOL    HW294361  14.732   3.654  14.767
30822SOL     OW94362   7.922   4.432   2.423
30822SOL    HW194363   7.902   4.369   2.493
30822SOL    HW294364   7.839   4.475   2.404
30823SOL     OW94365   6.891   5.914  10.067
30823SOL    HW194366   6.961   5.937  10.006
30823SOL    HW294367   6.900   5.820  10.080
30824SOL     OW94368  11.115  12.320   0.917
30824SOL    HW194369  11.098  12.281   0.831
30824SOL    HW294370  11.180  12.262   0.957
30825SOL     OW94371   4.139   2.951   7.335
30825SOL    HW194372   4.154   2.859   7.312
30825SOL    HW294373   4.132   2.951   7.431
30826SOL     OW94374  11.406   4.727   8.215
30826SOL    HW194375  11.424   4.817   8.186
30826SOL    HW294376  11.336   4.736   8.280
30827SOL     OW94377   6.079  14.504   9.788
30827SOL    HW194378   6.075  14.410   9.769
30827SOL    HW294379   6.012  14.542   9.730
30828SOL     OW94380   5.710  13.911   2.390
30828SOL    HW194381   5.735  13.992   2.345
30828SOL    HW294382   5.703  13.846   2.321
30829SOL     OW94383   0.798   0.342   4.900
30829SOL    HW194384   0.841   0.415   4.944
30829SOL    HW294385   0.763   0.289   4.972
30830SOL     OW94386  14.594   4.702   8.685
30830SOL    HW194387  14.565   4.624   8.732
30830SOL    HW294388  14.660   4.670   8.623
30831SOL     OW94389  10.368  14.428  13.048
30831SOL    HW194390  10.283  14.435  13.091
30831SOL    HW294391  10.407  14.515  13.056
30832SOL     OW94392   7.781  13.584  12.428
30832SOL    HW194393   7.785  13.495  12.393
30832SOL    HW294394   7.755  13.638  12.354
30833SOL     OW94395   7.842  13.716   7.435
30833SOL    HW194396   7.935  13.732   7.419
30833SOL    HW294397   7.841  13.659   7.512
30834SOL     OW94398  11.849   4.616  13.463
30834SOL    HW194399  11.856   4.701  13.419
30834SOL    HW294400  11.903   4.625  13.541
30835SOL     OW94401   4.072   0.716  12.852
30835SOL    HW194402   4.132   0.665  12.906
30835SOL    HW294403   4.110   0.804  12.850
30836SOL     OW94404   8.860   9.836   4.820
30836SOL    HW194405   8.931   9.789   4.776
30836SOL    HW294406   8.899   9.868   4.901
30837SOL     OW94407   7.777  11.976  10.451
30837SOL    HW194408   7.719  12.044  10.417
30837SOL    HW294409   7.848  12.024  10.493
30838SOL     OW94410   9.281   8.106   6.112
30838SOL    HW194411   9.198   8.064   6.134
30838SOL    HW294412   9.263   8.155   6.032
30839SOL     OW94413  14.630  10.773  14.860
30839SOL    HW194414  14.710  10.806   0.030
30839SOL    HW294415  14.639  10.678  14.865
30840SOL     OW94416  10.322   1.534   4.434
30840SOL    HW194417  10.308   1.621   4.469
30840SOL    HW294418  10.359   1.484   4.507
30841SOL     OW94419  13.366   8.269   5.833
30841SOL    HW194420  13.455   8.239   5.816
30841SOL    HW294421  13.369   8.364   5.819
30842SOL     OW94422   5.698  10.202   0.694
30842SOL    HW194423   5.613  10.247   0.691
30842SOL    HW294424   5.723  10.202   0.786
30843SOL     OW94425   6.094  12.828   3.070
30843SOL    HW194426   6.161  12.829   3.002
30843SOL    HW294427   6.135  12.869   3.145
30844SOL     OW94428   0.584   9.632  13.337
30844SOL    HW194429   0.587   9.588  13.252
30844SOL    HW294430   0.509   9.690  13.332
30845SOL     OW94431  14.149  10.366   1.818
30845SOL    HW194432  14.115  10.286   1.858
30845SOL    HW294433  14.220  10.393   1.876
30846SOL     OW94434   3.256   4.719  13.001
30846SOL    HW194435   3.256   4.702  12.907
30846SOL    HW294436   3.257   4.814  13.008
30847SOL     OW94437   5.896   4.232   8.787
30847SOL    HW194438   5.987   4.261   8.793
30847SOL    HW294439   5.848   4.309   8.759
30848SOL     OW94440   8.221   6.771  10.863
30848SOL    HW194441   8.218   6.866  10.876
30848SOL    HW294442   8.260   6.760  10.776
30849SOL     OW94443   2.687   5.647   2.721
30849SOL    HW194444   2.596   5.659   2.696
30849SOL    HW294445   2.704   5.714   2.787
30850SOL     OW94446   2.063   9.936  11.052
30850SOL    HW194447   2.003   9.967  10.984
30850SOL    HW294448   2.074  10.012  11.110
30851SOL     OW94449  12.253   7.126   6.960
30851SOL    HW194450  12.205   7.181   6.896
30851SOL    HW294451  12.195   7.123   7.036
30852SOL     OW94452   0.998   8.034   9.307
30852SOL    HW194453   0.961   8.122   9.312
30852SOL    HW294454   1.061   8.031   9.379
30853SOL     OW94455   2.622  14.435   8.992
30853SOL    HW194456   2.597  14.412   9.081
30853SOL    HW294457   2.707  14.391   8.979
30854SOL     OW94458  14.183  14.554  12.365
30854SOL    HW194459  14.163  14.552  12.458
30854SOL    HW294460  14.274  14.584  12.360
30855SOL     OW94461   4.563  14.660  14.345
30855SOL    HW194462   4.649  14.656  14.388
30855SOL    HW294463   4.500  14.657  14.417
30856SOL     OW94464  11.488   4.246  10.739
30856SOL    HW194465  11.399   4.245  10.705
30856SOL    HW294466  11.493   4.326  10.791
30857SOL     OW94467   9.433   8.593   4.810
30857SOL    HW194468   9.481   8.588   4.892
30857SOL    HW294469   9.365   8.526   4.818
30858SOL     OW94470  14.681  11.766  13.314
30858SOL    HW194471  14.738  11.759  13.390
30858SOL    HW294472  14.699  11.687  13.263
30859SOL     OW94473   6.762  14.732   4.255
30859SOL    HW194474   6.784  14.794   4.325
30859SOL    HW294475   6.667  14.737   4.248
30860SOL     OW94476  14.519   1.350   8.572
30860SOL    HW194477  14.534   1.313   8.485
30860SOL    HW294478  14.449   1.297   8.608
30861SOL     OW94479   3.715  12.501   7.566
30861SOL    HW194480   3.678  12.500   7.655
30861SOL    HW294481   3.689  12.417   7.529
30862SOL     OW94482   4.806   8.062   9.718
30862SOL    HW194483   4.848   8.012   9.648
30862SOL    HW294484   4.713   8.063   9.695
30863SOL     OW94485   2.140  11.282  13.098
30863SOL    HW194486   2.070  11.346  13.101
30863SOL    HW294487   2.109  11.214  13.038
30864SOL     OW94488  13.225  14.206   8.063
30864SOL    HW194489  13.174  14.231   7.986
30864SOL    HW294490  13.222  14.110   8.063
30865SOL     OW94491   6.567  13.299   3.403
30865SOL    HW194492   6.622  13.331   3.475
30865SOL    HW294493   6.562  13.204   3.417
30866SOL     OW94494   2.656  11.235   1.475
30866SOL    HW194495   2.626  11.320   1.443
30866SOL    HW294496   2.583  11.176   1.455
30867SOL     OW94497   9.644   6.415  13.897
30867SOL    HW194498   9.639   6.462  13.814
30867SOL    HW294499   9.734   6.380  13.900
30868SOL     OW94500  12.365   5.613  10.562
30868SOL    HW194501  12.316   5.606  10.644
30868SOL    HW294502  12.373   5.707  10.546
30869SOL     OW94503   3.056   5.614   6.382
30869SOL    HW194504   2.978   5.601   6.437
30869SOL    HW294505   3.028   5.589   6.294
30870SOL     OW94506   6.680  10.880   9.008
30870SOL    HW194507   6.754  10.824   9.032
30870SOL    HW294508   6.669  10.938   9.084
30871SOL     OW94509   4.313   1.033   9.568
30871SOL    HW194510   4.382   1.013   9.631
30871SOL    HW294511   4.327   1.125   9.545
30872SOL     OW94512   3.698  14.082  10.161
30872SOL    HW194513   3.765  14.064  10.095
30872SOL    HW294514   3.702  14.006  10.220
30873SOL     OW94515   8.354  12.540   4.652
30873SOL    HW194516   8.336  12.518   4.743
30873SOL    HW294517   8.357  12.456   4.607
30874SOL     OW94518   5.254  10.154  11.125
30874SOL    HW194519   5.293  10.225  11.074
30874SOL    HW294520   5.280  10.075  11.079
30875SOL     OW94521  11.664   0.665  13.255
30875SOL    HW194522  11.696   0.581  13.225
30875SOL    HW294523  11.610   0.698  13.183
30876SOL     OW94524  11.799   3.965  11.763
30876SOL    HW194525  11.722   3.982  11.709
30876SOL    HW294526  11.857   3.913  11.708
30877SOL     OW94527  10.184   0.456   1.800
30877SOL    HW194528  10.246   0.505   1.854
30877SOL    HW294529  10.216   0.366   1.803
30878SOL     OW94530   3.497   5.726  13.115
30878SOL    HW194531   3.414   5.686  13.138
30878SOL    HW294532   3.511   5.794  13.181
30879SOL     OW94533  13.242   7.105   2.971
30879SOL    HW194534  13.197   7.020   2.965
30879SOL    HW294535  13.191   7.154   3.035
30880SOL     OW94536   0.248   0.063   5.569
30880SOL    HW194537   0.257   0.053   5.664
30880SOL    HW294538   0.308  14.871   5.532
30881SOL     OW94539   1.824   9.226   1.034
30881SOL    HW194540   1.858   9.136   1.036
30881SOL    HW294541   1.732   9.216   1.010
30882SOL     OW94542  14.036  11.103  11.581
30882SOL    HW194543  14.091  11.045  11.528
30882SOL    HW294544  13.988  11.156  11.517
30883SOL     OW94545   3.742  13.053   9.291
30883SOL    HW194546   3.729  13.105   9.212
30883SOL    HW294547   3.836  13.033   9.291
30884SOL     OW94548   7.376   9.441   5.191
30884SOL    HW194549   7.368   9.494   5.271
30884SOL    HW294550   7.452   9.477   5.146
30885SOL     OW94551  12.992   7.363   5.346
30885SOL    HW194552  13.025   7.429   5.408
30885SOL    HW294553  13.034   7.282   5.375
30886SOL     OW94554   5.257   8.709  12.514
30886SOL    HW194555   5.261   8.613  12.513
30886SOL    HW294556   5.238   8.733  12.424
30887SOL     OW94557   1.688   3.400  10.236
30887SOL    HW194558   1.651   3.483  10.265
30887SOL    HW294559   1.692   3.346  10.315
30888SOL     OW94560   5.688   1.885   9.754
30888SOL    HW194561   5.621   1.817   9.747
30888SOL    HW294562   5.770   1.840   9.736
30889SOL     OW94563  11.180   2.640   4.239
30889SOL    HW194564  11.183   2.595   4.323
30889SOL    HW294565  11.272   2.657   4.217
30890SOL     OW94566  14.209   7.592   6.268
30890SOL    HW194567  14.229   7.566   6.178
30890SOL    HW294568  14.266   7.537   6.322
30891SOL     OW94569  12.058  10.839   2.811
30891SOL    HW194570  12.066  10.760   2.865
30891SOL    HW294571  12.021  10.808   2.729
30892SOL     OW94572   5.299   0.956   2.427
30892SOL    HW194573   5.366   1.016   2.460
30892SOL    HW294574   5.295   0.974   2.333
30893SOL     OW94575   3.601   2.996   3.621
30893SOL    HW194576   3.662   3.043   3.565
30893SOL    HW294577   3.515   3.027   3.594
30894SOL     OW94578   7.841   2.292   6.145
30894SOL    HW194579   7.785   2.298   6.068
30894SOL    HW294580   7.931   2.291   6.110
30895SOL     OW94581   1.914  13.669   2.884
30895SOL    HW194582   2.008  13.689   2.878
30895SOL    HW294583   1.911  13.582   2.923
30896SOL     OW94584   4.200   8.622   7.439
30896SOL    HW194585   4.200   8.593   7.530
30896SOL    HW294586   4.275   8.681   7.433
30897SOL     OW94587  10.729   2.625   1.509
30897SOL    HW194588  10.667   2.669   1.451
30897SOL    HW294589  10.813   2.665   1.489
30898SOL     OW94590  10.482  11.929  10.347
30898SOL    HW194591  10.407  11.873  10.370
30898SOL    HW294592  10.533  11.935  10.428
30899SOL     OW94593   2.529  12.254  10.362
30899SOL    HW194594   2.522  12.190  10.433
30899SOL    HW294595   2.469  12.222  10.295
30900SOL     OW94596   7.179   4.745   8.540
30900SOL    HW194597   7.101   4.799   8.524
30900SOL    HW294598   7.188   4.745   8.636
30901SOL     OW94599  11.760   7.635   2.045
30901SOL    HW194600  11.845   7.673   2.025
30901SOL    HW294601  11.697   7.696   2.006
30902SOL     OW94602  13.871   8.585   8.511
30902SOL    HW194603  13.796   8.603   8.455
30902SOL    HW294604  13.947   8.596   8.454
30903SOL     OW94605   3.275   8.534  13.283
30903SOL    HW194606   3.346   8.589  13.247
30903SOL    HW294607   3.292   8.532  13.377
30904SOL     OW94608   3.515   7.006   9.679
30904SOL    HW194609   3.582   6.983   9.615
30904SOL    HW294610   3.525   7.101   9.691
30905SOL     OW94611  11.624   3.433  12.652
30905SOL    HW194612  11.566   3.496  12.610
30905SOL    HW294613  11.664   3.482  12.724
30906SOL     OW94614   8.222   0.035   3.408
30906SOL    HW194615   8.197  14.834   3.353
30906SOL    HW294616   8.141   0.061   3.452
30907SOL     OW94617   7.542  13.000   3.343
30907SOL    HW194618   7.490  13.080   3.346
30907SOL    HW294619   7.520  12.954   3.424
30908SOL     OW94620   0.581   9.659   6.690
30908SOL    HW194621   0.641   9.722   6.649
30908SOL    HW294622   0.622   9.639   6.775
30909SOL     OW94623  13.692  10.048  12.499
30909SOL    HW194624  13.783  10.071  12.477
30909SOL    HW294625  13.640  10.120  12.464
30910SOL     OW94626  14.055  11.192   8.014
30910SOL    HW194627  14.094  11.154   8.093
30910SOL    HW294628  13.966  11.216   8.040
30911SOL     OW94629   7.343   2.648   5.224
30911SOL    HW194630   7.425   2.660   5.177
30911SOL    HW294631   7.326   2.734   5.264
30912SOL     OW94632  12.201  10.401  11.259
30912SOL    HW194633  12.244  10.381  11.176
30912SOL    HW294634  12.184  10.315  11.298
30913SOL     OW94635   2.285   9.687   3.084
30913SOL    HW194636   2.338   9.741   3.024
30913SOL    HW294637   2.296   9.598   3.052
30914SOL     OW94638   7.020   2.975   9.831
30914SOL    HW194639   7.023   2.885   9.800
30914SOL    HW294640   6.935   3.008   9.800
30915SOL     OW94641  13.964   5.321   4.415
30915SOL    HW194642  13.963   5.290   4.505
30915SOL    HW294643  14.042   5.375   4.408
30916SOL     OW94644   7.635  10.297  12.861
30916SOL    HW194645   7.649  10.290  12.955
30916SOL    HW294646   7.540  10.309  12.851
30917SOL     OW94647   8.498   8.097   7.517
30917SOL    HW194648   8.412   8.089   7.558
30917SOL    HW294649   8.530   8.183   7.546
30918SOL     OW94650   3.888  11.746  12.859
30918SOL    HW194651   3.977  11.777  12.841
30918SOL    HW294652   3.889  11.654  12.830
30919SOL     OW94653   3.164  12.437   0.292
30919SOL    HW194654   3.113  12.510   0.326
30919SOL    HW294655   3.235  12.478   0.243
30920SOL     OW94656   0.543   2.481   3.529
30920SOL    HW194657   0.604   2.465   3.601
30920SOL    HW294658   0.537   2.397   3.483
30921SOL     OW94659   9.125   4.918   9.292
30921SOL    HW194660   9.156   4.872   9.214
30921SOL    HW294661   9.159   4.867   9.365
30922SOL     OW94662  11.467   1.610   7.283
30922SOL    HW194663  11.425   1.675   7.228
30922SOL    HW294664  11.484   1.536   7.225
30923SOL     OW94665  12.507   2.689   8.082
30923SOL    HW194666  12.454   2.610   8.073
30923SOL    HW294667  12.569   2.685   8.009
30924SOL     OW94668   2.165   0.341   4.676
30924SOL    HW194669   2.084   0.355   4.725
30924SOL    HW294670   2.146   0.268   4.617
30925SOL     OW94671   5.302   1.460  11.540
30925SOL    HW194672   5.337   1.398  11.605
30925SOL    HW294673   5.321   1.419  11.456
30926SOL     OW94674  11.242   7.698   0.914
30926SOL    HW194675  11.177   7.751   0.959
30926SOL    HW294676  11.297   7.761   0.867
30927SOL     OW94677   2.412   3.949   1.307
30927SOL    HW194678   2.374   3.963   1.393
30927SOL    HW294679   2.466   4.026   1.292
30928SOL     OW94680   9.114  14.623   7.711
30928SOL    HW194681   9.023  14.595   7.726
30928SOL    HW294682   9.164  14.542   7.716
30929SOL     OW94683   1.189  12.152   6.181
30929SOL    HW194684   1.279  12.177   6.199
30929SOL    HW294685   1.196  12.073   6.127
30930SOL     OW94686  14.490   2.559  12.364
30930SOL    HW194687  14.530   2.646  12.368
30930SOL    HW294688  14.521   2.522  12.281
30931SOL     OW94689  11.780   8.951  10.370
30931SOL    HW194690  11.696   8.973  10.328
30931SOL    HW294691  11.837   8.926  10.298
30932SOL     OW94692  14.211   4.513   9.573
30932SOL    HW194693  14.151   4.588   9.567
30932SOL    HW294694  14.207   4.487   9.666
30933SOL     OW94695  14.360  11.446   9.681
30933SOL    HW194696  14.331  11.366   9.726
30933SOL    HW294697  14.443  11.421   9.640
30934SOL     OW94698   7.624   2.445  12.465
30934SOL    HW194699   7.642   2.512  12.531
30934SOL    HW294700   7.616   2.493  12.383
30935SOL     OW94701  11.546   5.662  10.824
30935SOL    HW194702  11.639   5.667  10.802
30935SOL    HW294703  11.534   5.575  10.861
30936SOL     OW94704   2.691   8.476   9.469
30936SOL    HW194705   2.739   8.423   9.406
30936SOL    HW294706   2.693   8.564   9.431
30937SOL     OW94707  10.683  11.645   8.420
30937SOL    HW194708  10.618  11.638   8.491
30937SOL    HW294709  10.737  11.721   8.444
30938SOL     OW94710   2.312   0.843   7.289
30938SOL    HW194711   2.347   0.932   7.288
30938SOL    HW294712   2.217   0.855   7.300
30939SOL     OW94713  14.084   6.029   2.844
30939SOL    HW194714  14.111   6.086   2.916
30939SOL    HW294715  14.057   6.089   2.774
30940SOL     OW94716   1.819  14.423   4.524
30940SOL    HW194717   1.743  14.453   4.475
30940SOL    HW294718   1.874  14.501   4.533
30941SOL     OW94719   9.830   5.802   2.910
30941SOL    HW194720   9.765   5.854   2.863
30941SOL    HW294721   9.904   5.861   2.922
30942SOL     OW94722  11.727   1.238   8.361
30942SOL    HW194723  11.663   1.176   8.325
30942SOL    HW294724  11.806   1.185   8.377
30943SOL     OW94725  13.086   5.620   2.621
30943SOL    HW194726  13.070   5.668   2.702
30943SOL    HW294727  13.064   5.530   2.642
30944SOL     OW94728   4.852   0.254  10.660
30944SOL    HW194729   4.909   0.256  10.583
30944SOL    HW294730   4.793   0.329  10.648
30945SOL     OW94731   4.153   7.098   7.294
30945SOL    HW194732   4.171   7.108   7.200
30945SOL    HW294733   4.071   7.050   7.297
30946SOL     OW94734  13.723   8.573   4.039
30946SOL    HW194735  13.690   8.555   4.127
30946SOL    HW294736  13.687   8.502   3.985
30947SOL     OW94737   2.634   6.245  12.323
30947SOL    HW194738   2.726   6.263  12.344
30947SOL    HW294739   2.635   6.154  12.291
30948SOL     OW94740  13.394   4.121   6.280
30948SOL    HW194741  13.432   4.165   6.356
30948SOL    HW294742  13.360   4.192   6.226
30949SOL     OW94743  10.374  10.468   9.148
30949SOL    HW194744  10.382  10.509   9.234
30949SOL    HW294745  10.281  10.476   9.126
30950SOL     OW94746   0.022   0.305   4.112
30950SOL    HW194747   0.106   0.325   4.071
30950SOL    HW294748  14.863   0.389   4.145
30951SOL     OW94749   3.336   8.856  13.061
30951SOL    HW194750   3.256   8.803  13.066
30951SOL    HW294751   3.318   8.932  13.117
30952SOL     OW94752  14.705  12.055  13.266
30952SOL    HW194753  14.738  11.969  13.292
30952SOL    HW294754  14.656  12.039  13.186
30953SOL     OW94755   2.337   4.091  11.605
30953SOL    HW194756   2.355   3.998  11.619
30953SOL    HW294757   2.421   4.127  11.578
30954SOL     OW94758   0.409   4.217   1.718
30954SOL    HW194759   0.495   4.209   1.677
30954SOL    HW294760   0.372   4.128   1.713
30955SOL     OW94761  14.349   6.450   4.374
30955SOL    HW194762  14.405   6.503   4.317
30955SOL    HW294763  14.410   6.388   4.414
30956SOL     OW94764   4.280   6.647   8.850
30956SOL    HW194765   4.331   6.640   8.931
30956SOL    HW294766   4.344   6.631   8.780
30957SOL     OW94767  10.171  13.996  10.033
30957SOL    HW194768  10.221  13.941   9.973
30957SOL    HW294769  10.087  14.010   9.989
30958SOL     OW94770  13.525   0.102   6.214
30958SOL    HW194771  13.619   0.095   6.231
30958SOL    HW294772  13.488   0.136   6.296
30959SOL     OW94773  14.307   7.811  13.634
30959SOL    HW194774  14.229   7.782  13.586
30959SOL    HW294775  14.272   7.873  13.700
30960SOL     OW94776   2.703   1.818   5.054
30960SOL    HW194777   2.715   1.727   5.083
30960SOL    HW294778   2.742   1.870   5.124
30961SOL     OW94779   6.427  13.694   2.391
30961SOL    HW194780   6.478  13.769   2.421
30961SOL    HW294781   6.492  13.631   2.359
30962SOL     OW94782   4.763  13.095   8.922
30962SOL    HW194783   4.721  13.165   8.972
30962SOL    HW294784   4.693  13.032   8.905
30963SOL     OW94785   5.391   4.005   6.284
30963SOL    HW194786   5.365   4.086   6.240
30963SOL    HW294787   5.331   3.938   6.251
30964SOL     OW94788   8.389  12.393   7.935
30964SOL    HW194789   8.389  12.297   7.933
30964SOL    HW294790   8.343  12.419   7.856
30965SOL     OW94791   5.585   4.774   5.405
30965SOL    HW194792   5.504   4.726   5.422
30965SOL    HW294793   5.557   4.859   5.373
30966SOL     OW94794   7.087   5.500   1.340
30966SOL    HW194795   7.044   5.522   1.423
30966SOL    HW294796   7.080   5.405   1.333
30967SOL     OW94797   0.322   4.897   2.287
30967SOL    HW194798   0.265   4.973   2.274
30967SOL    HW294799   0.341   4.897   2.380
30968SOL     OW94800  13.733   6.795   2.509
30968SOL    HW194801  13.664   6.732   2.486
30968SOL    HW294802  13.781   6.809   2.427
30969SOL     OW94803   7.131  12.753  10.903
30969SOL    HW194804   7.060  12.813  10.879
30969SOL    HW294805   7.200  12.772  10.838
30970SOL     OW94806   4.123   6.005   6.933
30970SOL    HW194807   4.165   6.001   7.018
30970SOL    HW294808   4.032   6.029   6.952
30971SOL     OW94809   9.817  11.645  13.925
30971SOL    HW194810   9.907  11.618  13.907
30971SOL    HW294811   9.776  11.568  13.964
30972SOL     OW94812  10.115   4.759   8.905
30972SOL    HW194813  10.181   4.768   8.836
30972SOL    HW294814  10.037   4.802   8.868
30973SOL     OW94815   0.433   0.705   2.791
30973SOL    HW194816   0.350   0.753   2.796
30973SOL    HW294817   0.489   0.761   2.737
30974SOL     OW94818   7.613  11.527   0.350
30974SOL    HW194819   7.559  11.577   0.410
30974SOL    HW294820   7.611  11.437   0.383
30975SOL     OW94821   0.611   7.808   9.239
30975SOL    HW194822   0.604   7.714   9.252
30975SOL    HW294823   0.631   7.843   9.325
30976SOL     OW94824   2.729   7.865   0.666
30976SOL    HW194825   2.776   7.822   0.738
30976SOL    HW294826   2.684   7.938   0.707
30977SOL     OW94827   1.242   6.360   9.481
30977SOL    HW194828   1.167   6.311   9.514
30977SOL    HW294829   1.228   6.364   9.386
30978SOL     OW94830   6.306   9.015   1.482
30978SOL    HW194831   6.284   9.107   1.474
30978SOL    HW294832   6.257   8.984   1.557
30979SOL     OW94833  12.993  14.490   3.325
30979SOL    HW194834  12.996  14.550   3.250
30979SOL    HW294835  13.069  14.433   3.312
30980SOL     OW94836  14.231   4.790   5.437
30980SOL    HW194837  14.188   4.722   5.490
30980SOL    HW294838  14.158   4.834   5.393
30981SOL     OW94839  10.794  13.046  13.526
30981SOL    HW194840  10.712  13.006  13.496
30981SOL    HW294841  10.853  12.973  13.540
30982SOL     OW94842   1.125   0.456   1.956
30982SOL    HW194843   1.147   0.543   1.922
30982SOL    HW294844   1.122   0.400   1.879
30983SOL     OW94845   5.654   6.675   7.042
30983SOL    HW194846   5.676   6.763   7.072
30983SOL    HW294847   5.719   6.657   6.973
30984SOL     OW94848   1.642  13.150  13.340
30984SOL    HW194849   1.690  13.073  13.368
30984SOL    HW294850   1.566  13.155  13.398
30985SOL     OW94851   1.719   8.416   3.847
30985SOL    HW194852   1.732   8.483   3.779
30985SOL    HW294853   1.665   8.349   3.805
30986SOL     OW94854   5.939  14.676  10.397
30986SOL    HW194855   6.012  14.686  10.458
30986SOL    HW294856   5.914  14.765  10.375
30987SOL     OW94857   1.074   1.718   6.567
30987SOL    HW194858   1.164   1.688   6.553
30987SOL    HW294859   1.069   1.734   6.661
30988SOL     OW94860  13.491  12.592   8.345
30988SOL    HW194861  13.540  12.581   8.263
30988SOL    HW294862  13.556  12.581   8.414
30989SOL     OW94863   0.393   9.250   2.788
30989SOL    HW194864   0.409   9.159   2.813
30989SOL    HW294865   0.459   9.299   2.836
30990SOL     OW94866   3.955  11.153   9.540
30990SOL    HW194867   3.881  11.104   9.504
30990SOL    HW294868   4.026  11.089   9.544
30991SOL     OW94869  12.970  11.472   2.025
30991SOL    HW194870  12.876  11.474   2.005
30991SOL    HW294871  12.984  11.549   2.080
30992SOL     OW94872   9.716  10.696   8.696
30992SOL    HW194873   9.643  10.729   8.642
30992SOL    HW294874   9.707  10.742   8.779
30993SOL     OW94875   6.849   9.871  10.292
30993SOL    HW194876   6.892   9.850  10.375
30993SOL    HW294877   6.761   9.898  10.317
30994SOL     OW94878   3.149   0.686   8.485
30994SOL    HW194879   3.176   0.681   8.577
30994SOL    HW294880   3.063   0.645   8.484
30995SOL     OW94881   9.010   1.226   8.548
30995SOL    HW194882   9.087   1.171   8.532
30995SOL    HW294883   9.041   1.293   8.608
30996SOL     OW94884  14.807   1.965   8.367
30996SOL    HW194885   0.004   1.964   8.434
30996SOL    HW294886  14.839   1.907   8.298
30997SOL     OW94887   1.739   3.273   0.751
30997SOL    HW194888   1.650   3.263   0.717
30997SOL    HW294889   1.787   3.200   0.712
30998SOL     OW94890   9.899   7.208   0.252
30998SOL    HW194891   9.894   7.263   0.175
30998SOL    HW294892   9.890   7.118   0.218
30999SOL     OW94893   0.227   9.763   3.214
30999SOL    HW194894   0.205   9.856   3.207
30999SOL    HW294895   0.267   9.742   3.130
31000SOL     OW94896   9.924   0.557  12.335
31000SOL    HW194897   9.832   0.585  12.329
31000SOL    HW294898   9.970   0.618  12.277
31001SOL     OW94899   2.303   8.588  14.700
31001SOL    HW194900   2.367   8.523  14.672
31001SOL    HW294901   2.275   8.558  14.786
31002SOL     OW94902  12.635  13.079   4.604
31002SOL    HW194903  12.636  13.112   4.514
31002SOL    HW294904  12.621  12.984   4.594
31003SOL     OW94905   1.119   4.492   1.734
31003SOL    HW194906   1.091   4.450   1.815
31003SOL    HW294907   1.176   4.563   1.761
31004SOL     OW94908   5.186  10.496  10.779
31004SOL    HW194909   5.275  10.462  10.780
31004SOL    HW294910   5.140  10.442  10.715
31005SOL     OW94911   6.281   6.739   3.709
31005SOL    HW194912   6.275   6.779   3.623
31005SOL    HW294913   6.341   6.795   3.758
31006SOL     OW94914  10.182   3.648  12.150
31006SOL    HW194915  10.102   3.676  12.105
31006SOL    HW294916  10.251   3.700  12.109
31007SOL     OW94917  13.365   3.288   8.165
31007SOL    HW194918  13.423   3.362   8.148
31007SOL    HW294919  13.284   3.328   8.196
31008SOL     OW94920  13.822   5.579  13.451
31008SOL    HW194921  13.828   5.484  13.458
31008SOL    HW294922  13.779   5.594  13.367
31009SOL     OW94923   7.696   1.756  14.651
31009SOL    HW194924   7.770   1.754  14.591
31009SOL    HW294925   7.682   1.849  14.668
31010SOL     OW94926   5.278   0.419  12.871
31010SOL    HW194927   5.321   0.334  12.871
31010SOL    HW294928   5.258   0.437  12.780
31011SOL     OW94929   2.720  14.798   4.344
31011SOL    HW194930   2.720   0.014   4.380
31011SOL    HW294931   2.628  14.771   4.346
31012SOL     OW94932   5.680   3.264   6.410
31012SOL    HW194933   5.743   3.312   6.357
31012SOL    HW294934   5.595   3.285   6.371
31013SOL     OW94935   0.744   9.705   9.880
31013SOL    HW194936   0.733   9.628   9.826
31013SOL    HW294937   0.717   9.778   9.824
31014SOL     OW94938   6.778   4.598   1.568
31014SOL    HW194939   6.714   4.546   1.616
31014SOL    HW294940   6.775   4.684   1.609
31015SOL     OW94941   4.674   9.695   7.467
31015SOL    HW194942   4.694   9.782   7.434
31015SOL    HW294943   4.758   9.649   7.465
31016SOL     OW94944  13.682   4.979   9.725
31016SOL    HW194945  13.712   4.900   9.769
31016SOL    HW294946  13.740   5.048   9.757
31017SOL     OW94947   0.510   9.047  10.508
31017SOL    HW194948   0.429   9.097  10.499
31017SOL    HW294949   0.521   9.035  10.602
31018SOL     OW94950  10.502   1.680   6.657
31018SOL    HW194951  10.433   1.613   6.658
31018SOL    HW294952  10.549   1.665   6.576
31019SOL     OW94953   3.259   8.352   8.668
31019SOL    HW194954   3.178   8.315   8.703
31019SOL    HW294955   3.306   8.385   8.744
31020SOL     OW94956   0.293   1.543  11.590
31020SOL    HW194957   0.234   1.606  11.631
31020SOL    HW294958   0.377   1.558  11.632
31021SOL     OW94959   5.607   5.128   9.630
31021SOL    HW194960   5.612   5.034   9.616
31021SOL    HW294961   5.596   5.165   9.542
31022SOL     OW94962   8.487   7.364  13.699
31022SOL    HW194963   8.501   7.442  13.645
31022SOL    HW294964   8.518   7.389  13.786
31023SOL     OW94965  13.363   9.533   1.799
31023SOL    HW194966  13.454   9.506   1.792
31023SOL    HW294967  13.343   9.526   1.892
31024SOL     OW94968  13.799  11.198   7.371
31024SOL    HW194969  13.719  11.179   7.322
31024SOL    HW294970  13.808  11.293   7.369
31025SOL     OW94971  14.613  13.858  12.849
31025SOL    HW194972  14.655  13.772  12.848
31025SOL    HW294973  14.674  13.914  12.897
31026SOL     OW94974   3.362  11.271   3.715
31026SOL    HW194975   3.383  11.360   3.688
31026SOL    HW294976   3.319  11.281   3.800
31027SOL     OW94977   4.751  14.719   0.592
31027SOL    HW194978   4.764  14.765   0.675
31027SOL    HW294979   4.836  14.724   0.548
31028SOL     OW94980   4.893   3.204   6.066
31028SOL    HW194981   4.942   3.183   5.987
31028SOL    HW294982   4.911   3.131   6.126
31029SOL     OW94983  12.303   0.812  11.402
31029SOL    HW194984  12.356   0.868  11.459
31029SOL    HW294985  12.239   0.871  11.363
31030SOL     OW94986   9.027   0.453   1.439
31030SOL    HW194987   9.026   0.548   1.452
31030SOL    HW294988   8.999   0.417   1.522
31031SOL     OW94989  13.064  10.259   8.195
31031SOL    HW194990  13.035  10.254   8.286
31031SOL    HW294991  12.984  10.244   8.144
31032SOL     OW94992   9.471   8.675   1.453
31032SOL    HW194993   9.403   8.611   1.474
31032SOL    HW294994   9.543   8.654   1.512
31033SOL     OW94995   0.856   4.923  13.178
31033SOL    HW194996   0.924   4.980  13.142
31033SOL    HW294997   0.820   4.878  13.102
31034SOL     OW94998   6.280   5.697   3.487
31034SOL    HW194999   6.351   5.718   3.547
31034SOL    HW295000   6.319   5.699   3.400
31035SOL     OW95001   6.340   7.820   0.056
31035SOL    HW195002   6.418   7.875   0.067
31035SOL    HW295003   6.337   7.768   0.136
31036SOL     OW95004   8.826   3.472  12.964
31036SOL    HW195005   8.739   3.494  12.996
31036SOL    HW295006   8.885   3.521  13.021
31037SOL     OW95007  13.389   0.340   1.526
31037SOL    HW195008  13.378   0.422   1.574
31037SOL    HW295009  13.369   0.272   1.590
31038SOL     OW95010   9.332   9.792   7.381
31038SOL    HW195011   9.331   9.732   7.307
31038SOL    HW295012   9.303   9.876   7.346
31039SOL     OW95013   8.280   8.583   5.311
31039SOL    HW195014   8.255   8.491   5.318
31039SOL    HW295015   8.210   8.630   5.357
31040SOL     OW95016  13.708   1.762   8.946
31040SOL    HW195017  13.657   1.725   8.874
31040SOL    HW295018  13.646   1.764   9.019
31041SOL     OW95019  12.011   5.796   5.038
31041SOL    HW195020  11.941   5.856   5.063
31041SOL    HW295021  12.085   5.853   5.017
31042SOL     OW95022   1.806   1.579   9.356
31042SOL    HW195023   1.849   1.560   9.439
31042SOL    HW295024   1.832   1.507   9.298
31043SOL     OW95025   5.489   7.370   0.924
31043SOL    HW195026   5.413   7.414   0.961
31043SOL    HW295027   5.531   7.438   0.870
31044SOL     OW95028  13.690  12.484   6.828
31044SOL    HW195029  13.636  12.415   6.789
31044SOL    HW295030  13.668  12.481   6.921
31045SOL     OW95031  10.880   2.738  13.582
31045SOL    HW195032  10.844   2.710  13.498
31045SOL    HW295033  10.904   2.656  13.625
31046SOL     OW95034  14.562   4.891   0.570
31046SOL    HW195035  14.631   4.938   0.617
31046SOL    HW295036  14.534   4.952   0.501
31047SOL     OW95037   4.483   5.501   8.979
31047SOL    HW195038   4.572   5.471   8.999
31047SOL    HW295039   4.435   5.488   9.060
31048SOL     OW95040  10.183   5.909  12.402
31048SOL    HW195041  10.127   5.943  12.472
31048SOL    HW295042  10.130   5.842  12.359
31049SOL     OW95043   3.850  14.291   2.338
31049SOL    HW195044   3.768  14.247   2.317
31049SOL    HW295045   3.885  14.244   2.413
31050SOL     OW95046  13.845  12.743  10.790
31050SOL    HW195047  13.935  12.765  10.814
31050SOL    HW295048  13.832  12.654  10.821
31051SOL     OW95049   8.949   1.123   0.614
31051SOL    HW195050   9.005   1.197   0.587
31051SOL    HW295051   8.966   1.114   0.708
31052SOL     OW95052   0.988   8.841  14.338
31052SOL    HW195053   1.000   8.888  14.420
31052SOL    HW295054   0.970   8.751  14.364
31053SOL     OW95055   2.836   3.633   3.376
31053SOL    HW195056   2.854   3.658   3.285
31053SOL    HW295057   2.877   3.703   3.428
31054SOL     OW95058   1.913   5.860   7.405
31054SOL    HW195059   1.819   5.871   7.391
31054SOL    HW295060   1.933   5.774   7.369
31055SOL     OW95061   3.183   7.804   9.658
31055SOL    HW195062   3.105   7.755   9.632
31055SOL    HW295063   3.238   7.807   9.580
31056SOL     OW95064  14.382  13.366  10.506
31056SOL    HW195065  14.325  13.310  10.453
31056SOL    HW295066  14.322  13.405  10.571
31057SOL     OW95067  11.783   3.314   1.811
31057SOL    HW195068  11.696   3.303   1.773
31057SOL    HW295069  11.787   3.407   1.835
31058SOL     OW95070   4.255   6.995  10.793
31058SOL    HW195071   4.258   6.902  10.770
31058SOL    HW295072   4.297   7.000  10.879
31059SOL     OW95073  14.813   5.848   0.916
31059SOL    HW195074  14.800   5.757   0.889
31059SOL    HW295075  14.741   5.896   0.873
31060SOL     OW95076   5.194  11.513   2.058
31060SOL    HW195077   5.123  11.570   2.027
31060SOL    HW295078   5.151  11.432   2.083
31061SOL     OW95079   2.452   5.159  10.609
31061SOL    HW195080   2.437   5.178  10.701
31061SOL    HW295081   2.365   5.166  10.568
31062SOL     OW95082  11.064   9.131   5.713
31062SOL    HW195083  11.151   9.093   5.728
31062SOL    HW295084  11.025   9.137   5.801
31063SOL     OW95085   8.701   4.487   9.633
31063SOL    HW195086   8.738   4.563   9.587
31063SOL    HW295087   8.768   4.420   9.625
31064SOL     OW95088   2.216   5.177  13.321
31064SOL    HW195089   2.170   5.106  13.276
31064SOL    HW295090   2.201   5.254  13.267
31065SOL     OW95091  14.335   4.594   8.339
31065SOL    HW195092  14.298   4.651   8.272
31065SOL    HW295093  14.419   4.566   8.304
31066SOL     OW95094   1.366   9.092   1.827
31066SOL    HW195095   1.399   9.011   1.867
31066SOL    HW295096   1.347   9.148   1.902
31067SOL     OW95097  13.570  11.648   0.073
31067SOL    HW195098  13.599  11.557   0.068
31067SOL    HW295099  13.479  11.643   0.102
31068SOL     OW95100   3.795   7.913   5.529
31068SOL    HW195101   3.882   7.904   5.568
31068SOL    HW295102   3.774   7.825   5.497
31069SOL     OW95103  10.118   8.095   1.619
31069SOL    HW195104  10.050   8.075   1.554
31069SOL    HW295105  10.145   8.185   1.597
31070SOL     OW95106   8.589   8.645   8.420
31070SOL    HW195107   8.611   8.692   8.500
31070SOL    HW295108   8.494   8.650   8.414
31071SOL     OW95109  11.683   4.274  13.010
31071SOL    HW195110  11.638   4.354  13.038
31071SOL    HW295111  11.676   4.275  12.914
31072SOL     OW95112   6.124  13.215  14.256
31072SOL    HW195113   6.156  13.186  14.341
31072SOL    HW295114   6.050  13.156  14.238
31073SOL     OW95115   8.610   4.659   6.612
31073SOL    HW195116   8.542   4.655   6.679
31073SOL    HW295117   8.568   4.701   6.537
31074SOL     OW95118  13.667   2.439  12.752
31074SOL    HW195119  13.612   2.486  12.689
31074SOL    HW295120  13.622   2.449  12.836
31075SOL     OW95121   6.495  12.813   3.222
31075SOL    HW195122   6.529  12.864   3.296
31075SOL    HW295123   6.407  12.786   3.250
31076SOL     OW95124  10.305   5.610   3.650
31076SOL    HW195125  10.214   5.602   3.679
31076SOL    HW295126  10.316   5.702   3.630
31077SOL     OW95127   8.651  14.807   0.507
31077SOL    HW195128   8.666  14.824   0.414
31077SOL    HW295129   8.555  14.810   0.517
31078SOL     OW95130   9.451  13.876  10.773
31078SOL    HW195131   9.424  13.794  10.814
31078SOL    HW295132   9.525  13.852  10.718
31079SOL     OW95133   7.767   4.299  12.545
31079SOL    HW195134   7.694   4.359  12.561
31079SOL    HW295135   7.845   4.353  12.556
31080SOL     OW95136   2.593   9.795  10.337
31080SOL    HW195137   2.617   9.835  10.421
31080SOL    HW295138   2.578   9.869  10.279
31081SOL     OW95139  10.948   1.245   7.230
31081SOL    HW195140  10.994   1.323   7.198
31081SOL    HW295141  10.923   1.198   7.150
31082SOL     OW95142   5.751   4.415   9.979
31082SOL    HW195143   5.696   4.427  10.057
31082SOL    HW295144   5.830   4.465   9.998
31083SOL     OW95145   1.704   6.831   5.899
31083SOL    HW195146   1.631   6.858   5.955
31083SOL    HW295147   1.693   6.880   5.818
31084SOL     OW95148   9.517   3.836  14.310
31084SOL    HW195149   9.560   3.795  14.385
31084SOL    HW295150   9.500   3.763  14.250
31085SOL     OW95151   2.758   4.061  14.204
31085SOL    HW195152   2.829   4.118  14.233
31085SOL    HW295153   2.683   4.120  14.195
31086SOL     OW95154   9.713  12.751   4.451
31086SOL    HW195155   9.717  12.739   4.356
31086SOL    HW295156   9.743  12.668   4.487
31087SOL     OW95157   1.344  13.828   8.458
31087SOL    HW195158   1.327  13.885   8.533
31087SOL    HW295159   1.346  13.887   8.383
31088SOL     OW95160  13.629  13.329   4.018
31088SOL    HW195161  13.668  13.401   4.067
31088SOL    HW295162  13.654  13.346   3.927
31089SOL     OW95163  11.780   2.530   7.335
31089SOL    HW195164  11.720   2.510   7.407
31089SOL    HW295165  11.865   2.542   7.378
31090SOL     OW95166   7.138   7.216   0.798
31090SOL    HW195167   7.228   7.244   0.818
31090SOL    HW295168   7.094   7.295   0.769
31091SOL     OW95169  11.528   8.078   8.164
31091SOL    HW195170  11.454   8.083   8.224
31091SOL    HW295171  11.534   7.986   8.141
31092SOL     OW95172  13.229   2.173   1.415
31092SOL    HW195173  13.238   2.097   1.472
31092SOL    HW295174  13.219   2.136   1.327
31093SOL     OW95175   6.199   5.762   8.029
31093SOL    HW195176   6.173   5.696   7.965
31093SOL    HW295177   6.294   5.771   8.017
31094SOL     OW95178   4.921  13.081  14.699
31094SOL    HW195179   4.919  13.132  14.780
31094SOL    HW295180   5.009  13.098  14.664
31095SOL     OW95181   1.624   7.476   0.927
31095SOL    HW195182   1.667   7.561   0.930
31095SOL    HW295183   1.587   7.464   1.015
31096SOL     OW95184  13.187  12.405  14.367
31096SOL    HW195185  13.245  12.351  14.420
31096SOL    HW295186  13.129  12.342  14.324
31097SOL     OW95187   7.392   4.371  10.349
31097SOL    HW195188   7.331   4.305  10.382
31097SOL    HW295189   7.346   4.411  10.275
31098SOL     OW95190  11.416  14.573  11.204
31098SOL    HW195191  11.439  14.539  11.291
31098SOL    HW295192  11.471  14.524  11.144
31099SOL     OW95193   9.288   1.312  13.768
31099SOL    HW195194   9.276   1.254  13.843
31099SOL    HW295195   9.204   1.358  13.760
31100SOL     OW95196  14.370   4.337   3.926
31100SOL    HW195197  14.384   4.298   4.012
31100SOL    HW295198  14.277   4.356   3.922
31101SOL     OW95199   4.347   0.092   9.897
31101SOL    HW195200   4.338   0.173   9.947
31101SOL    HW295201   4.403   0.115   9.823
31102SOL     OW95202   7.157   6.225  12.189
31102SOL    HW195203   7.209   6.242  12.111
31102SOL    HW295204   7.197   6.280  12.257
31103SOL     OW95205  11.699   3.305   9.810
31103SOL    HW195206  11.613   3.281   9.777
31103SOL    HW295207  11.688   3.392   9.848
31104SOL     OW95208   2.840  13.915   2.128
31104SOL    HW195209   2.798  13.866   2.057
31104SOL    HW295210   2.919  13.865   2.148
31105SOL     OW95211   7.019  14.526   3.043
31105SOL    HW195212   7.100  14.577   3.038
31105SOL    HW295213   7.006  14.493   2.954
31106SOL     OW95214  12.553   2.415   7.723
31106SOL    HW195215  12.597   2.484   7.773
31106SOL    HW295216  12.498   2.463   7.660
31107SOL     OW95217   4.345   8.101   4.591
31107SOL    HW195218   4.434   8.108   4.626
31107SOL    HW295219   4.296   8.056   4.661
31108SOL     OW95220   2.309   9.205  14.300
31108SOL    HW195221   2.218   9.180  14.308
31108SOL    HW295222   2.345   9.194  14.388
31109SOL     OW95223   9.482   0.467  10.479
31109SOL    HW195224   9.492   0.513  10.396
31109SOL    HW295225   9.498   0.534  10.546
31110SOL     OW95226   1.243   5.992  13.717
31110SOL    HW195227   1.314   6.024  13.773
31110SOL    HW295228   1.282   5.987  13.630
31111SOL     OW95229   8.751  13.173   2.261
31111SOL    HW195230   8.711  13.161   2.174
31111SOL    HW295231   8.687  13.137   2.322
31112SOL     OW95232  14.058   8.194   6.699
31112SOL    HW195233  14.071   8.106   6.664
31112SOL    HW295234  14.132   8.207   6.759
31113SOL     OW95235  14.203  14.825   7.412
31113SOL    HW195236  14.140  14.778   7.357
31113SOL    HW295237  14.169   0.041   7.418
31114SOL     OW95238  14.057   7.815   4.116
31114SOL    HW195239  13.996   7.889   4.117
31114SOL    HW295240  14.126   7.841   4.178
31115SOL     OW95241   3.179  11.953   4.183
31115SOL    HW195242   3.207  12.005   4.259
31115SOL    HW295243   3.260  11.934   4.136
31116SOL     OW95244   4.371  11.653  11.448
31116SOL    HW195245   4.362  11.640  11.542
31116SOL    HW295246   4.346  11.570  11.409
31117SOL     OW95247   5.668   1.336   1.962
31117SOL    HW195248   5.729   1.308   1.894
31117SOL    HW295249   5.687   1.429   1.974
31118SOL     OW95250  13.135   2.261   5.498
31118SOL    HW195251  13.049   2.303   5.503
31118SOL    HW295252  13.188   2.321   5.447
31119SOL     OW95253   9.127  12.428   2.299
31119SOL    HW195254   9.125  12.361   2.231
31119SOL    HW295255   9.035  12.442   2.322
31120SOL     OW95256  14.787   8.827   2.781
31120SOL    HW195257  14.837   8.846   2.701
31120SOL    HW295258  14.854   8.821   2.850
31121SOL     OW95259  13.288   8.750  13.489
31121SOL    HW195260  13.380   8.726  13.479
31121SOL    HW295261  13.241   8.695  13.427
31122SOL     OW95262  11.913   9.270   4.457
31122SOL    HW195263  11.982   9.327   4.490
31122SOL    HW295264  11.946   9.181   4.469
31123SOL     OW95265  11.771   1.650   6.326
31123SOL    HW195266  11.689   1.603   6.311
31123SOL    HW295267  11.838   1.597   6.283
31124SOL     OW95268   1.416  12.100   0.030
31124SOL    HW195269   1.421  12.007   0.008
31124SOL    HW295270   1.329  12.127   0.003
31125SOL     OW95271   3.933   4.532   9.041
31125SOL    HW195272   4.005   4.485   9.083
31125SOL    HW295273   3.970   4.567   8.960
31126SOL     OW95274  13.846  14.485   0.186
31126SOL    HW195275  13.756  14.452   0.180
31126SOL    HW295276  13.897  14.410   0.216
31127SOL     OW95277   8.335   4.793   6.189
31127SOL    HW195278   8.260   4.829   6.143
31127SOL    HW295279   8.404   4.789   6.124
31128SOL     OW95280   5.008   7.011  13.273
31128SOL    HW195281   5.013   6.982  13.182
31128SOL    HW295282   5.080   7.075  13.281
31129SOL     OW95283  13.422   6.760   9.878
31129SOL    HW195284  13.397   6.828   9.815
31129SOL    HW295285  13.502   6.794   9.919
31130SOL     OW95286   6.065   7.621   3.296
31130SOL    HW195287   6.039   7.547   3.351
31130SOL    HW295288   6.118   7.676   3.353
31131SOL     OW95289   2.989   7.101   8.917
31131SOL    HW195290   2.924   7.047   8.962
31131SOL    HW295291   2.937   7.159   8.862
31132SOL     OW95292  12.706   5.263   8.965
31132SOL    HW195293  12.634   5.221   8.919
31132SOL    HW295294  12.778   5.201   8.959
31133SOL     OW95295   7.258  14.163  13.641
31133SOL    HW195296   7.275  14.246  13.596
31133SOL    HW295297   7.284  14.096  13.578
31134SOL     OW95298   2.976  14.057  13.842
31134SOL    HW195299   2.935  14.096  13.919
31134SOL    HW295300   3.029  13.986  13.877
31135SOL     OW95301   6.393  12.345   5.382
31135SOL    HW195302   6.400  12.405   5.455
31135SOL    HW295303   6.469  12.288   5.389
31136SOL     OW95304   6.809   6.693   1.164
31136SOL    HW195305   6.746   6.625   1.185
31136SOL    HW295306   6.783   6.767   1.218
31137SOL     OW95307  10.559   3.649   8.640
31137SOL    HW195308  10.515   3.717   8.691
31137SOL    HW295309  10.637   3.629   8.691
31138SOL     OW95310   5.798   6.077   8.035
31138SOL    HW195311   5.839   6.142   8.092
31138SOL    HW295312   5.870   6.022   8.005
31139SOL     OW95313   1.878   8.102  13.996
31139SOL    HW195314   1.867   8.009  14.020
31139SOL    HW295315   1.836   8.110  13.911
31140SOL     OW95316   9.086  12.103   5.990
31140SOL    HW195317   9.117  12.028   6.042
31140SOL    HW295318   9.106  12.179   6.045
31141SOL     OW95319   1.643   8.900   6.232
31141SOL    HW195320   1.640   8.806   6.218
31141SOL    HW295321   1.613   8.912   6.323
31142SOL     OW95322  11.160   7.331   1.917
31142SOL    HW195323  11.088   7.379   1.956
31142SOL    HW295324  11.236   7.349   1.973
31143SOL     OW95325   2.645  10.644   6.934
31143SOL    HW195326   2.723  10.602   6.897
31143SOL    HW295327   2.629  10.595   7.015
31144SOL     OW95328   8.236   8.128   4.282
31144SOL    HW195329   8.229   8.040   4.247
31144SOL    HW295330   8.207   8.120   4.373
31145SOL     OW95331   6.462   0.940  12.952
31145SOL    HW195332   6.385   0.914  12.901
31145SOL    HW295333   6.444   1.030  12.981
31146SOL     OW95334   7.207   4.345  12.339
31146SOL    HW195335   7.133   4.402  12.319
31146SOL    HW295336   7.192   4.318  12.430
31147SOL     OW95337   9.378   3.534   0.634
31147SOL    HW195338   9.396   3.476   0.560
31147SOL    HW295339   9.401   3.622   0.602
31148SOL     OW95340   5.399  11.297   5.363
31148SOL    HW195341   5.314  11.293   5.405
31148SOL    HW295342   5.382  11.276   5.271
31149SOL     OW95343   8.490   5.588  10.350
31149SOL    HW195344   8.457   5.658  10.406
31149SOL    HW295345   8.558   5.630  10.297
31150SOL     OW95346   5.404  10.313  12.495
31150SOL    HW195347   5.325  10.288  12.446
31150SOL    HW295348   5.374  10.323  12.585
31151SOL     OW95349  10.944   9.439   2.030
31151SOL    HW195350  10.919   9.392   2.109
31151SOL    HW295351  11.039   9.424   2.023
31152SOL     OW95352   6.154   0.128   0.033
31152SOL    HW195353   6.116   0.204   0.077
31152SOL    HW295354   6.088   0.100  14.842
31153SOL     OW95355   6.106   7.302   1.969
31153SOL    HW195356   6.015   7.272   1.970
31153SOL    HW295357   6.153   7.240   2.024
31154SOL     OW95358   6.846   2.320  13.719
31154SOL    HW195359   6.892   2.237  13.706
31154SOL    HW295360   6.799   2.335  13.637
31155SOL     OW95361   1.820   9.994   1.833
31155SOL    HW195362   1.840  10.076   1.878
31155SOL    HW295363   1.887   9.987   1.765
31156SOL     OW95364   0.031   6.210  14.576
31156SOL    HW195365  14.814   6.212  14.541
31156SOL    HW295366   0.086   6.240  14.504
31157SOL     OW95367   8.183   3.096   1.098
31157SOL    HW195368   8.127   3.173   1.094
31157SOL    HW295369   8.232   3.097   1.016
31158SOL     OW95370  14.615  12.951   0.680
31158SOL    HW195371  14.695  12.967   0.629
31158SOL    HW295372  14.549  13.007   0.639
31159SOL     OW95373   4.950   9.054  11.200
31159SOL    HW195374   5.022   9.011  11.156
31159SOL    HW295375   4.875   8.996  11.187
31160SOL     OW95376  13.343   8.652  11.258
31160SOL    HW195377  13.409   8.714  11.227
31160SOL    HW295378  13.264   8.704  11.269
31161SOL     OW95379   5.418   3.974   0.521
31161SOL    HW195380   5.504   4.015   0.515
31161SOL    HW295381   5.367   4.013   0.450
31162SOL     OW95382   3.929   7.023   6.504
31162SOL    HW195383   4.020   6.999   6.524
31162SOL    HW295384   3.914   6.985   6.417
31163SOL     OW95385   7.631   9.048   6.881
31163SOL    HW195386   7.571   9.047   6.807
31163SOL    HW295387   7.716   9.025   6.843
31164SOL     OW95388   0.723  13.065   2.825
31164SOL    HW195389   0.766  13.147   2.849
31164SOL    HW295390   0.630  13.081   2.841
31165SOL     OW95391   0.815   3.452   1.811
31165SOL    HW195392   0.739   3.479   1.862
31165SOL    HW295393   0.888   3.503   1.847
31166SOL     OW95394   5.165   9.395  10.463
31166SOL    HW195395   5.149   9.378  10.370
31166SOL    HW295396   5.261   9.401  10.470
31167SOL     OW95397   8.514   4.728   8.691
31167SOL    HW195398   8.513   4.704   8.783
31167SOL    HW295399   8.598   4.772   8.678
31168SOL     OW95400  14.775   0.073  10.915
31168SOL    HW195401  14.810   0.021  10.843
31168SOL    HW295402  14.846   0.077  10.979
31169SOL     OW95403   8.450   3.663   9.520
31169SOL    HW195404   8.522   3.713   9.559
31169SOL    HW295405   8.430   3.709   9.439
31170SOL     OW95406   8.246   9.276  13.794
31170SOL    HW195407   8.260   9.266  13.888
31170SOL    HW295408   8.153   9.300  13.787
31171SOL     OW95409  14.335  14.486   0.221
31171SOL    HW195410  14.252  14.528   0.243
31171SOL    HW295411  14.346  14.418   0.287
31172SOL     OW95412   2.571  10.896  13.286
31172SOL    HW195413   2.590  10.803  13.287
31172SOL    HW295414   2.653  10.938  13.315
31173SOL     OW95415   3.736  13.099   0.928
31173SOL    HW195416   3.707  13.075   1.016
31173SOL    HW295417   3.655  13.110   0.878
31174SOL     OW95418  10.735   5.782   6.039
31174SOL    HW195419  10.709   5.692   6.059
31174SOL    HW295420  10.787   5.775   5.959
31175SOL     OW95421   6.323  14.595  14.224
31175SOL    HW195422   6.247  14.648  14.247
31175SOL    HW295423   6.398  14.653  14.239
31176SOL     OW95424   5.765   0.960   8.871
31176SOL    HW195425   5.795   0.962   8.962
31176SOL    HW295426   5.713   0.880   8.865
31177SOL     OW95427   5.121   4.709   1.344
31177SOL    HW195428   5.051   4.680   1.403
31177SOL    HW295429   5.137   4.800   1.370
31178SOL     OW95430   1.716   5.952  10.965
31178SOL    HW195431   1.719   5.966  11.059
31178SOL    HW295432   1.793   5.899  10.946
31179SOL     OW95433  13.324   4.956   1.938
31179SOL    HW195434  13.312   5.004   1.856
31179SOL    HW295435  13.243   4.905   1.947
31180SOL     OW95436  13.355   4.816  14.518
31180SOL    HW195437  13.433   4.872  14.522
31180SOL    HW295438  13.384   4.732  14.553
31181SOL     OW95439   7.116  12.285  12.021
31181SOL    HW195440   7.053  12.331  11.965
31181SOL    HW295441   7.078  12.198  12.033
31182SOL     OW95442  13.287  11.542  10.226
31182SOL    HW195443  13.245  11.570  10.145
31182SOL    HW295444  13.348  11.613  10.247
31183SOL     OW95445  12.008  13.551  13.153
31183SOL    HW195446  11.978  13.525  13.240
31183SOL    HW295447  12.087  13.500  13.138
31184SOL     OW95448   7.489   5.707   3.467
31184SOL    HW195449   7.419   5.772   3.463
31184SOL    HW295450   7.445   5.625   3.489
31185SOL     OW95451  11.780   2.922   0.261
31185SOL    HW195452  11.860   2.888   0.301
31185SOL    HW295453  11.733   2.843   0.233
31186SOL     OW95454   2.746   2.737   2.857
31186SOL    HW195455   2.720   2.808   2.916
31186SOL    HW295456   2.677   2.735   2.791
31187SOL     OW95457   4.464   8.454  10.768
31187SOL    HW195458   4.475   8.427  10.677
31187SOL    HW295459   4.427   8.377  10.812
31188SOL     OW95460   4.234   5.672  14.208
31188SOL    HW195461   4.174   5.641  14.276
31188SOL    HW295462   4.180   5.681  14.130
31189SOL     OW95463   5.074   5.880   1.431
31189SOL    HW195464   5.056   5.833   1.512
31189SOL    HW295465   4.989   5.881   1.385
31190SOL     OW95466   4.786   9.436  11.530
31190SOL    HW195467   4.710   9.423  11.587
31190SOL    HW295468   4.762   9.392  11.448
31191SOL     OW95469   4.294   8.324   2.126
31191SOL    HW195470   4.299   8.420   2.128
31191SOL    HW295471   4.200   8.305   2.117
31192SOL     OW95472   7.406   4.635   3.090
31192SOL    HW195473   7.332   4.690   3.065
31192SOL    HW295474   7.443   4.677   3.168
31193SOL     OW95475   0.800   0.369   8.997
31193SOL    HW195476   0.798   0.284   9.041
31193SOL    HW295477   0.728   0.364   8.934
31194SOL     OW95478   8.483   9.479  12.060
31194SOL    HW195479   8.484   9.517  11.972
31194SOL    HW295480   8.438   9.396  12.049
31195SOL     OW95481  13.057   8.478   0.449
31195SOL    HW195482  13.003   8.402   0.428
31195SOL    HW295483  13.045   8.538   0.375
31196SOL     OW95484   4.541   3.069   3.445
31196SOL    HW195485   4.621   3.026   3.414
31196SOL    HW295486   4.503   3.006   3.507
31197SOL     OW95487   6.830   6.868  14.843
31197SOL    HW195488   6.884   6.924  14.787
31197SOL    HW295489   6.749   6.855  14.794
31198SOL     OW95490   7.308   7.300  13.321
31198SOL    HW195491   7.310   7.213  13.361
31198SOL    HW295492   7.259   7.287  13.240
31199SOL     OW95493   4.043   7.664  10.741
31199SOL    HW195494   4.040   7.606  10.817
31199SOL    HW295495   4.050   7.606  10.666
31200SOL     OW95496   4.543   6.969   9.622
31200SOL    HW195497   4.473   6.997   9.562
31200SOL    HW295498   4.576   7.051   9.659
31201SOL     OW95499   2.841   2.001   2.874
31201SOL    HW195500   2.863   1.930   2.934
31201SOL    HW295501   2.851   2.080   2.927
31202SOL     OW95502   1.022  14.120   0.647
31202SOL    HW195503   1.043  14.164   0.564
31202SOL    HW295504   1.040  14.186   0.714
31203SOL     OW95505  13.390   1.541   0.052
31203SOL    HW195506  13.451   1.571  14.857
31203SOL    HW295507  13.436   1.557   0.135
31204SOL     OW95508   4.020   6.681   9.258
31204SOL    HW195509   4.064   6.732   9.327
31204SOL    HW295510   3.930   6.672   9.289
31205SOL     OW95511   4.876   8.760   7.140
31205SOL    HW195512   4.966   8.759   7.108
31205SOL    HW295513   4.849   8.851   7.136
31206SOL     OW95514   1.746  10.649   3.208
31206SOL    HW195515   1.829  10.682   3.242
31206SOL    HW295516   1.681  10.714   3.233
31207SOL     OW95517  14.533  12.089  11.488
31207SOL    HW195518  14.540  11.994  11.490
31207SOL    HW295519  14.450  12.108  11.531
31208SOL     OW95520  13.647   2.294   5.979
31208SOL    HW195521  13.591   2.330   5.910
31208SOL    HW295522  13.589   2.284   6.055
31209SOL     OW95523   1.148   4.461  13.126
31209SOL    HW195524   1.083   4.424  13.185
31209SOL    HW295525   1.105   4.461  13.040
31210SOL     OW95526   9.659   4.350   8.545
31210SOL    HW195527   9.568   4.329   8.567
31210SOL    HW295528   9.704   4.350   8.630
31211SOL     OW95529   2.061   1.872   3.614
31211SOL    HW195530   2.151   1.868   3.646
31211SOL    HW295531   2.007   1.881   3.693
31212SOL     OW95532   4.975  14.081   4.705
31212SOL    HW195533   4.983  14.130   4.786
31212SOL    HW295534   4.918  14.007   4.728
31213SOL     OW95535  11.575  10.116   7.006
31213SOL    HW195536  11.553  10.027   6.979
31213SOL    HW295537  11.523  10.130   7.085
31214SOL     OW95538   4.162   2.745   3.642
31214SOL    HW195539   4.153   2.731   3.736
31214SOL    HW295540   4.251   2.779   3.631
31215SOL     OW95541  14.039   7.713  13.112
31215SOL    HW195542  14.077   7.649  13.051
31215SOL    HW295543  14.097   7.788  13.106
31216SOL     OW95544  13.339   1.528  12.192
31216SOL    HW195545  13.367   1.580  12.267
31216SOL    HW295546  13.263   1.480  12.222
31217SOL     OW95547   0.799   6.306   1.522
31217SOL    HW195548   0.825   6.229   1.574
31217SOL    HW295549   0.754   6.363   1.585
31218SOL     OW95550  11.808   6.450   6.546
31218SOL    HW195551  11.874   6.508   6.585
31218SOL    HW295552  11.730   6.504   6.536
31219SOL     OW95553   7.177   0.516   2.061
31219SOL    HW195554   7.164   0.421   2.066
31219SOL    HW295555   7.154   0.548   2.148
31220SOL     OW95556  12.298   7.414  11.137
31220SOL    HW195557  12.258   7.481  11.081
31220SOL    HW295558  12.368   7.377  11.083
31221SOL     OW95559  11.396   2.423   9.598
31221SOL    HW195560  11.380   2.343   9.548
31221SOL    HW295561  11.319   2.477   9.581
31222SOL     OW95562   4.012   4.415  12.015
31222SOL    HW195563   3.942   4.355  12.041
31222SOL    HW295564   4.068   4.423  12.093
31223SOL     OW95565  13.462   0.007  12.040
31223SOL    HW195566  13.526   0.078  12.034
31223SOL    HW295567  13.389   0.044  12.089
31224SOL     OW95568   8.422  10.885   4.149
31224SOL    HW195569   8.356  10.825   4.185
31224SOL    HW295570   8.398  10.971   4.186
31225SOL     OW95571   9.513   8.527   1.040
31225SOL    HW195572   9.559   8.504   1.120
31225SOL    HW295573   9.483   8.617   1.055
31226SOL     OW95574   8.391  11.418   1.903
31226SOL    HW195575   8.482  11.422   1.872
31226SOL    HW295576   8.378  11.500   1.949
31227SOL     OW95577   7.234  12.101  12.300
31227SOL    HW195578   7.162  12.086  12.239
31227SOL    HW295579   7.192  12.108  12.386
31228SOL     OW95580  13.847   0.334  11.807
31228SOL    HW195581  13.784   0.405  11.816
31228SOL    HW295582  13.933   0.376  11.818
31229SOL     OW95583   8.118  12.082  12.319
31229SOL    HW195584   8.062  12.158  12.336
31229SOL    HW295585   8.062  12.007  12.342
31230SOL     OW95586  10.359   8.226  14.590
31230SOL    HW195587  10.289   8.221  14.525
31230SOL    HW295588  10.325   8.284  14.658
31231SOL     OW95589   6.652   1.949   7.732
31231SOL    HW195590   6.584   2.014   7.714
31231SOL    HW295591   6.647   1.935   7.827
31232SOL     OW95592   6.532   9.613   3.306
31232SOL    HW195593   6.567   9.575   3.226
31232SOL    HW295594   6.552   9.549   3.374
31233SOL     OW95595   4.888   2.970  13.836
31233SOL    HW195596   4.794   2.977  13.850
31233SOL    HW295597   4.913   3.053  13.796
31234SOL     OW95598  12.505   5.587  14.319
31234SOL    HW195599  12.529   5.551  14.404
31234SOL    HW295600  12.564   5.662  14.307
31235SOL     OW95601  10.347   9.061   5.760
31235SOL    HW195602  10.256   9.068   5.731
31235SOL    HW295603  10.366   8.967   5.753
31236SOL     OW95604  14.352  13.238   1.281
31236SOL    HW195605  14.275  13.207   1.234
31236SOL    HW295606  14.405  13.281   1.214
31237SOL     OW95607   0.520   2.601   3.921
31237SOL    HW195608   0.553   2.622   4.008
31237SOL    HW295609   0.590   2.551   3.879
31238SOL     OW95610   3.763   3.443   6.125
31238SOL    HW195611   3.752   3.408   6.036
31238SOL    HW295612   3.780   3.536   6.112
31239SOL     OW95613   2.512   1.822   7.090
31239SOL    HW195614   2.435   1.876   7.103
31239SOL    HW295615   2.585   1.874   7.124
31240SOL     OW95616   9.819  10.841  10.735
31240SOL    HW195617   9.824  10.751  10.704
31240SOL    HW295618   9.826  10.894  10.655
31241SOL     OW95619   9.058  12.845   0.213
31241SOL    HW195620   9.126  12.877   0.272
31241SOL    HW295621   9.070  12.750   0.212
31242SOL     OW95622   1.663  11.880   1.908
31242SOL    HW195623   1.609  11.868   1.830
31242SOL    HW295624   1.693  11.791   1.930
31243SOL     OW95625   1.535   2.761   6.340
31243SOL    HW195626   1.508   2.799   6.424
31243SOL    HW295627   1.628   2.742   6.352
31244SOL     OW95628   3.824   4.633  13.094
31244SOL    HW195629   3.808   4.592  13.009
31244SOL    HW295630   3.737   4.642  13.133
31245SOL     OW95631  10.190  10.611   4.881
31245SOL    HW195632  10.275  10.627   4.839
31245SOL    HW295633  10.183  10.516   4.887
31246SOL     OW95634  12.317  12.209   6.739
31246SOL    HW195635  12.281  12.152   6.671
31246SOL    HW295636  12.360  12.280   6.691
31247SOL     OW95637   2.602   6.435   6.413
31247SOL    HW195638   2.644   6.510   6.371
31247SOL    HW295639   2.673   6.392   6.461
31248SOL     OW95640  12.680  10.215   1.994
31248SOL    HW195641  12.601  10.211   2.049
31248SOL    HW295642  12.750  10.187   2.053
31249SOL     OW95643  11.400   1.698   3.821
31249SOL    HW195644  11.330   1.721   3.882
31249SOL    HW295645  11.468   1.659   3.875
31250SOL     OW95646   2.424   5.813   5.525
31250SOL    HW195647   2.483   5.775   5.459
31250SOL    HW295648   2.388   5.890   5.482
31251SOL     OW95649  10.450   4.721   1.436
31251SOL    HW195650  10.509   4.667   1.488
31251SOL    HW295651  10.369   4.725   1.487
31252SOL     OW95652   0.432   7.806   7.487
31252SOL    HW195653   0.443   7.898   7.511
31252SOL    HW295654   0.517   7.766   7.506
31253SOL     OW95655  10.692  11.844  11.238
31253SOL    HW195656  10.767  11.810  11.189
31253SOL    HW295657  10.687  11.936  11.213
31254SOL     OW95658  12.589   6.112   0.736
31254SOL    HW195659  12.497   6.131   0.718
31254SOL    HW295660  12.623   6.193   0.774
31255SOL     OW95661   9.668   4.559   3.686
31255SOL    HW195662   9.736   4.559   3.619
31255SOL    HW295663   9.649   4.466   3.700
31256SOL     OW95664  14.021   2.465   4.590
31256SOL    HW195665  14.022   2.417   4.673
31256SOL    HW295666  14.111   2.458   4.557
31257SOL     OW95667  11.930   2.064  12.759
31257SOL    HW195668  11.991   2.021  12.699
31257SOL    HW295669  11.848   2.016  12.748
31258SOL     OW95670   2.069   4.297   9.552
31258SOL    HW195671   2.021   4.380   9.541
31258SOL    HW295672   2.002   4.229   9.539
31259SOL     OW95673  10.273  10.842   7.238
31259SOL    HW195674  10.201  10.790   7.274
31259SOL    HW295675  10.317  10.878   7.314
31260SOL     OW95676  14.703  12.922   3.587
31260SOL    HW195677  14.762  12.850   3.566
31260SOL    HW295678  14.746  12.999   3.550
31261SOL     OW95679   3.714  12.956   9.963
31261SOL    HW195680   3.739  12.865   9.944
31261SOL    HW295681   3.702  12.996   9.877
31262SOL     OW95682  14.391  11.954   9.964
31262SOL    HW195683  14.318  11.997   9.920
31262SOL    HW295684  14.372  11.963  10.057
31263SOL     OW95685  13.546  10.229   4.890
31263SOL    HW195686  13.566  10.263   4.977
31263SOL    HW295687  13.543  10.306   4.833
31264SOL     OW95688   1.210   8.923   3.757
31264SOL    HW195689   1.147   8.977   3.710
31264SOL    HW295690   1.295   8.951   3.723
31265SOL     OW95691   1.230   6.161  14.121
31265SOL    HW195692   1.207   6.075  14.085
31265SOL    HW295693   1.312   6.146  14.168
31266SOL     OW95694   7.811   9.750   9.884
31266SOL    HW195695   7.805   9.704   9.968
31266SOL    HW295696   7.742   9.710   9.830
31267SOL     OW95697   9.799   5.975   3.845
31267SOL    HW195698   9.807   6.057   3.893
31267SOL    HW295699   9.730   5.926   3.891
31268SOL     OW95700  13.421  12.226   6.337
31268SOL    HW195701  13.383  12.289   6.397
31268SOL    HW295702  13.396  12.257   6.250
31269SOL     OW95703   3.902  12.221   9.904
31269SOL    HW195704   3.865  12.308   9.891
31269SOL    HW295705   3.946  12.225   9.989
31270SOL     OW95706  11.850   8.072  11.662
31270SOL    HW195707  11.826   8.029  11.580
31270SOL    HW295708  11.767   8.083  11.709
31271SOL     OW95709   8.385   7.402   3.672
31271SOL    HW195710   8.366   7.321   3.625
31271SOL    HW295711   8.456   7.442   3.622
31272SOL     OW95712   9.689   1.191   9.214
31272SOL    HW195713   9.707   1.283   9.198
31272SOL    HW295714   9.598   1.189   9.244
31273SOL     OW95715   1.235   9.625   5.857
31273SOL    HW195716   1.205   9.710   5.889
31273SOL    HW295717   1.163   9.565   5.878
31274SOL     OW95718  14.399  10.233  12.075
31274SOL    HW195719  14.370  10.236  11.984
31274SOL    HW295720  14.450  10.152  12.081
31275SOL     OW95721  12.255   6.656   1.589
31275SOL    HW195722  12.234   6.580   1.535
31275SOL    HW295723  12.232   6.630   1.678
31276SOL     OW95724   3.155   0.855   6.228
31276SOL    HW195725   3.118   0.879   6.143
31276SOL    HW295726   3.233   0.803   6.206
31277SOL     OW95727   5.147   4.834   6.099
31277SOL    HW195728   5.223   4.782   6.126
31277SOL    HW295729   5.178   4.886   6.025
31278SOL     OW95730   2.737  12.570   4.399
31278SOL    HW195731   2.771  12.659   4.410
31278SOL    HW295732   2.785  12.535   4.324
31279SOL     OW95733  11.992   1.929  13.471
31279SOL    HW195734  12.030   1.892  13.391
31279SOL    HW295735  11.911   1.970  13.441
31280SOL     OW95736   8.722  11.039  14.404
31280SOL    HW195737   8.746  11.023  14.495
31280SOL    HW295738   8.805  11.050  14.359
31281SOL     OW95739  10.697  14.116   6.423
31281SOL    HW195740  10.651  14.078   6.497
31281SOL    HW295741  10.683  14.211   6.431
31282SOL     OW95742   3.592   8.500   5.318
31282SOL    HW195743   3.625   8.415   5.288
31282SOL    HW295744   3.616   8.561   5.248
31283SOL     OW95745   1.795  14.483   6.601
31283SOL    HW195746   1.839  14.426   6.538
31283SOL    HW295747   1.705  14.491   6.568
31284SOL     OW95748   3.761   2.717   5.228
31284SOL    HW195749   3.821   2.743   5.158
31284SOL    HW295750   3.688   2.676   5.182
31285SOL     OW95751   3.116  12.202  11.285
31285SOL    HW195752   3.210  12.213  11.270
31285SOL    HW295753   3.078  12.287  11.259
31286SOL     OW95754   2.775   2.977   3.796
31286SOL    HW195755   2.815   2.986   3.882
31286SOL    HW295756   2.712   2.906   3.807
31287SOL     OW95757   8.496   1.183   1.901
31287SOL    HW195758   8.533   1.268   1.880
31287SOL    HW295759   8.409   1.203   1.937
31288SOL     OW95760  12.833   5.630   1.608
31288SOL    HW195761  12.922   5.598   1.591
31288SOL    HW295762  12.831   5.645   1.703
31289SOL     OW95763   9.119  10.569   1.367
31289SOL    HW195764   9.207  10.602   1.349
31289SOL    HW295765   9.067  10.648   1.384
31290SOL     OW95766   2.428   3.737  10.286
31290SOL    HW195767   2.512   3.773  10.313
31290SOL    HW295768   2.388   3.806  10.234
31291SOL     OW95769   7.435  10.558  11.865
31291SOL    HW195770   7.378  10.561  11.788
31291SOL    HW295771   7.506  10.618  11.844
31292SOL     OW95772   7.374   9.623   6.589
31292SOL    HW195773   7.405   9.541   6.629
31292SOL    HW295774   7.298   9.598   6.537
31293SOL     OW95775   2.653   6.137   1.506
31293SOL    HW195776   2.711   6.062   1.518
31293SOL    HW295777   2.684   6.202   1.569
31294SOL     OW95778   6.503   1.883   5.781
31294SOL    HW195779   6.483   1.889   5.688
31294SOL    HW295780   6.460   1.802   5.810
31295SOL     OW95781   2.598   1.043  12.515
31295SOL    HW195782   2.572   0.962  12.560
31295SOL    HW295783   2.619   1.016  12.426
31296SOL     OW95784   1.499  11.110  13.462
31296SOL    HW195785   1.514  11.112  13.557
31296SOL    HW295786   1.469  11.021  13.444
31297SOL     OW95787   3.496   2.156   6.113
31297SOL    HW195788   3.515   2.102   6.036
31297SOL    HW295789   3.454   2.234   6.077
31298SOL     OW95790   4.444   3.457  11.124
31298SOL    HW195791   4.532   3.494  11.119
31298SOL    HW295792   4.408   3.469  11.036
31299SOL     OW95793   6.572  12.017   6.707
31299SOL    HW195794   6.480  12.012   6.732
31299SOL    HW295795   6.614  11.946   6.756
31300SOL     OW95796  10.696   0.394   1.773
31300SOL    HW195797  10.786   0.421   1.788
31300SOL    HW295798  10.679   0.327   1.839
31301SOL     OW95799  10.888  12.216   8.410
31301SOL    HW195800  10.875  12.153   8.481
31301SOL    HW295801  10.881  12.302   8.453
31302SOL     OW95802   5.256   6.708   7.951
31302SOL    HW195803   5.161   6.715   7.955
31302SOL    HW295804   5.284   6.705   8.043
31303SOL     OW95805   6.262  10.647   6.350
31303SOL    HW195806   6.255  10.730   6.304
31303SOL    HW295807   6.198  10.590   6.306
31304SOL     OW95808   1.626   0.956  12.459
31304SOL    HW195809   1.556   0.895  12.482
31304SOL    HW295810   1.605   1.036  12.506
31305SOL     OW95811   5.443   6.152   9.473
31305SOL    HW195812   5.377   6.140   9.541
31305SOL    HW295813   5.425   6.238   9.435
31306SOL     OW95814   6.136  14.330   1.969
31306SOL    HW195815   6.171  14.394   2.031
31306SOL    HW295816   6.052  14.366   1.942
31307SOL     OW95817   0.779   0.400  12.646
31307SOL    HW195818   0.764   0.441  12.731
31307SOL    HW295819   0.810   0.312  12.668
31308SOL     OW95820   4.106   8.549   0.941
31308SOL    HW195821   4.104   8.639   0.907
31308SOL    HW295822   4.169   8.553   1.013
31309SOL     OW95823   6.731   4.316  14.643
31309SOL    HW195824   6.690   4.267  14.715
31309SOL    HW295825   6.659   4.363  14.602
31310SOL     OW95826   1.470   6.100   7.690
31310SOL    HW195827   1.541   6.036   7.692
31310SOL    HW295828   1.510   6.178   7.651
31311SOL     OW95829   4.335  12.384  10.440
31311SOL    HW195830   4.291  12.385  10.525
31311SOL    HW295831   4.301  12.307  10.396
31312SOL     OW95832   3.454  14.199  14.827
31312SOL    HW195833   3.502  14.282  14.824
31312SOL    HW295834   3.510  14.142   0.008
31313SOL     OW95835   6.578   6.026   8.454
31313SOL    HW195836   6.538   6.082   8.387
31313SOL    HW295837   6.551   6.064   8.537
31314SOL     OW95838   7.429   8.854   5.283
31314SOL    HW195839   7.417   8.921   5.350
31314SOL    HW295840   7.430   8.772   5.332
31315SOL     OW95841   7.595   4.550   7.677
31315SOL    HW195842   7.546   4.633   7.683
31315SOL    HW295843   7.621   4.531   7.766
31316SOL     OW95844  11.911   6.361   0.849
31316SOL    HW195845  11.850   6.320   0.911
31316SOL    HW295846  11.987   6.383   0.902
31317SOL     OW95847  12.027   3.762   1.212
31317SOL    HW195848  11.995   3.847   1.180
31317SOL    HW295849  11.952   3.725   1.259
31318SOL     OW95850   0.848   9.936   5.198
31318SOL    HW195851   0.792   9.859   5.186
31318SOL    HW295852   0.933   9.909   5.162
31319SOL     OW95853   3.473   9.546  13.934
31319SOL    HW195854   3.492   9.454  13.956
31319SOL    HW295855   3.540   9.569  13.870
31320SOL     OW95856  12.128   4.940  12.837
31320SOL    HW195857  12.133   4.914  12.929
31320SOL    HW295858  12.148   4.859  12.789
31321SOL     OW95859   6.824  14.549  12.956
31321SOL    HW195860   6.858  14.510  12.876
31321SOL    HW295861   6.771  14.623  12.927
31322SOL     OW95862   9.758   8.183   8.960
31322SOL    HW195863   9.727   8.234   8.885
31322SOL    HW295864   9.693   8.113   8.970
31323SOL     OW95865  11.419  10.925   4.046
31323SOL    HW195866  11.467  10.865   4.103
31323SOL    HW295867  11.327  10.905   4.062
31324SOL     OW95868   8.429   5.917   0.430
31324SOL    HW195869   8.473   5.854   0.488
31324SOL    HW295870   8.456   6.002   0.463
31325SOL     OW95871   9.813   5.684  11.450
31325SOL    HW195872   9.767   5.722  11.375
31325SOL    HW295873   9.902   5.719  11.443
31326SOL     OW95874   2.809   4.730   7.215
31326SOL    HW195875   2.729   4.700   7.258
31326SOL    HW295876   2.779   4.793   7.149
31327SOL     OW95877   6.803   9.167   0.917
31327SOL    HW195878   6.823   9.256   0.887
31327SOL    HW295879   6.828   9.111   0.843
31328SOL     OW95880  14.522  13.671   4.051
31328SOL    HW195881  14.454  13.633   3.994
31328SOL    HW295882  14.586  13.600   4.061
31329SOL     OW95883  13.477   9.605   4.600
31329SOL    HW195884  13.564   9.625   4.566
31329SOL    HW295885  13.464   9.665   4.673
31330SOL     OW95886  11.197   8.001   2.101
31330SOL    HW195887  11.257   7.927   2.089
31330SOL    HW295888  11.109   7.961   2.097
31331SOL     OW95889   3.979   8.971   0.442
31331SOL    HW195890   4.040   9.031   0.485
31331SOL    HW295891   4.035   8.913   0.390
31332SOL     OW95892   5.048   4.926  10.975
31332SOL    HW195893   5.107   4.851  10.966
31332SOL    HW295894   4.987   4.917  10.902
31333SOL     OW95895   9.999  11.432  14.381
31333SOL    HW195896  10.081  11.384  14.390
31333SOL    HW295897  10.010  11.485  14.302
31334SOL     OW95898  13.658  13.469  10.205
31334SOL    HW195899  13.672  13.496  10.295
31334SOL    HW295900  13.653  13.374  10.209
31335SOL     OW95901   0.298  14.772   2.330
31335SOL    HW195902   0.251  14.702   2.284
31335SOL    HW295903   0.354  14.811   2.263
31336SOL     OW95904   0.214   4.069   9.876
31336SOL    HW195905   0.136   4.019   9.851
31336SOL    HW295906   0.274   4.004   9.913
31337SOL     OW95907  14.698  14.825   7.884
31337SOL    HW195908  14.672  14.733   7.892
31337SOL    HW295909  14.641  14.872   7.944
31338SOL     OW95910   0.149   3.944  14.048
31338SOL    HW195911   0.115   4.011  14.108
31338SOL    HW295912   0.117   3.971  13.962
31339SOL     OW95913   9.466  13.187   2.650
31339SOL    HW195914   9.552  13.156   2.679
31339SOL    HW295915   9.485  13.266   2.599
31340SOL     OW95916  10.461  12.121   2.289
31340SOL    HW195917  10.527  12.148   2.225
31340SOL    HW295918  10.505  12.132   2.373
31341SOL     OW95919  12.119   7.887  13.921
31341SOL    HW195920  12.095   7.979  13.914
31341SOL    HW295921  12.097   7.863  14.012
31342SOL     OW95922  13.480   4.028  12.953
31342SOL    HW195923  13.448   3.974  12.881
31342SOL    HW295924  13.415   4.099  12.961
31343SOL     OW95925   7.248  12.904   0.661
31343SOL    HW195926   7.232  12.882   0.753
31343SOL    HW295927   7.326  12.854   0.637
31344SOL     OW95928  13.124   8.169  13.042
31344SOL    HW195929  13.184   8.201  12.975
31344SOL    HW295930  13.084   8.091  13.004
31345SOL     OW95931  13.788  11.326  11.868
31345SOL    HW195932  13.697  11.296  11.864
31345SOL    HW295933  13.820  11.316  11.778
31346SOL     OW95934  13.330  12.864  10.085
31346SOL    HW195935  13.374  12.812  10.018
31346SOL    HW295936  13.237  12.847  10.073
31347SOL     OW95937   1.705  10.282   2.419
31347SOL    HW195938   1.764  10.356   2.429
31347SOL    HW295939   1.617  10.319   2.428
31348SOL     OW95940  12.064   5.108   7.137
31348SOL    HW195941  12.050   5.129   7.045
31348SOL    HW295942  12.033   5.184   7.185
31349SOL     OW95943   0.624   0.101   9.708
31349SOL    HW195944   0.651   0.034   9.771
31349SOL    HW295945   0.528   0.098   9.710
31350SOL     OW95946  12.435  12.145   7.038
31350SOL    HW195947  12.406  12.203   6.968
31350SOL    HW295948  12.444  12.059   6.996
31351SOL     OW95949  12.781   2.175  12.652
31351SOL    HW195950  12.843   2.176  12.725
31351SOL    HW295951  12.757   2.267  12.640
31352SOL     OW95952   0.498   3.599   0.872
31352SOL    HW195953   0.565   3.533   0.888
31352SOL    HW295954   0.525   3.640   0.789
31353SOL     OW95955  14.655   2.290   4.211
31353SOL    HW195956  14.639   2.278   4.117
31353SOL    HW295957  14.747   2.315   4.216
31354SOL     OW95958   9.281  12.560   9.431
31354SOL    HW195959   9.236  12.494   9.378
31354SOL    HW295960   9.356  12.514   9.469
31355SOL     OW95961  12.736   6.336  14.410
31355SOL    HW195962  12.679   6.278  14.462
31355SOL    HW295963  12.694   6.340  14.324
31356SOL     OW95964  10.209  12.251   6.564
31356SOL    HW195965  10.147  12.195   6.517
31356SOL    HW295966  10.295  12.215   6.542
31357SOL     OW95967   7.092  10.483   1.876
31357SOL    HW195968   7.048  10.545   1.934
31357SOL    HW295969   7.058  10.503   1.789
31358SOL     OW95970  10.652   1.847   4.851
31358SOL    HW195971  10.582   1.908   4.831
31358SOL    HW295972  10.608   1.771   4.890
31359SOL     OW95973  10.561  11.290   8.898
31359SOL    HW195974  10.594  11.365   8.948
31359SOL    HW295975  10.612  11.290   8.818
31360SOL     OW95976  12.050   5.247   0.118
31360SOL    HW195977  12.016   5.266   0.205
31360SOL    HW295978  12.099   5.325   0.094
31361SOL     OW95979  11.492  11.194  12.647
31361SOL    HW195980  11.558  11.131  12.620
31361SOL    HW295981  11.505  11.204  12.741
31362SOL     OW95982  14.623   9.915   0.603
31362SOL    HW195983  14.645   9.831   0.562
31362SOL    HW295984  14.624   9.897   0.697
31363SOL     OW95985   7.444  11.297   4.711
31363SOL    HW195986   7.485  11.370   4.663
31363SOL    HW295987   7.358  11.331   4.737
31364SOL     OW95988   5.133   4.279   5.448
31364SOL    HW195989   5.090   4.299   5.531
31364SOL    HW295990   5.074   4.316   5.382
31365SOL     OW95991   5.761   5.049   7.938
31365SOL    HW195992   5.800   5.054   7.851
31365SOL    HW295993   5.751   5.140   7.965
31366SOL     OW95994   1.020   5.552   9.850
31366SOL    HW195995   0.977   5.472   9.880
31366SOL    HW295996   1.073   5.524   9.775
31367SOL     OW95997  12.757   0.192  12.914
31367SOL    HW195998  12.780   0.134  12.987
31367SOL    HW295999  12.664   0.210  12.925
31368SOL     OW96000  13.582   3.279   2.458
31368SOL    HW196001  13.618   3.228   2.385
31368SOL    HW296002  13.570   3.367   2.421
31369SOL     OW96003   3.216   3.222   9.272
31369SOL    HW196004   3.222   3.126   9.273
31369SOL    HW296005   3.204   3.246   9.364
31370SOL     OW96006   1.389   0.771  10.081
31370SOL    HW196007   1.322   0.839  10.072
31370SOL    HW296008   1.471   0.819  10.089
31371SOL     OW96009   1.203   4.874  13.202
31371SOL    HW196010   1.264   4.845  13.269
31371SOL    HW296011   1.183   4.964  13.224
31372SOL     OW96012  14.268   5.935   6.372
31372SOL    HW196013  14.243   5.891   6.291
31372SOL    HW296014  14.313   6.014   6.343
31373SOL     OW96015   3.910   8.090   9.810
31373SOL    HW196016   3.870   8.058   9.729
31373SOL    HW296017   3.849   8.063   9.879
31374SOL     OW96018   1.451   4.647   9.832
31374SOL    HW196019   1.443   4.677   9.742
31374SOL    HW296020   1.363   4.616   9.855
31375SOL     OW96021  10.144   0.035  12.104
31375SOL    HW196022  10.166   0.081  12.023
31375SOL    HW296023  10.072   0.085  12.142
31376SOL     OW96024   5.341  14.119   7.132
31376SOL    HW196025   5.290  14.182   7.182
31376SOL    HW296026   5.430  14.154   7.132
31377SOL     OW96027   1.803   2.400   3.225
31377SOL    HW196028   1.752   2.388   3.305
31377SOL    HW296029   1.768   2.335   3.164
31378SOL     OW96030  14.272   0.134   6.631
31378SOL    HW196031  14.281   0.175   6.717
31378SOL    HW296032  14.255   0.042   6.649
31379SOL     OW96033  10.081  12.297   4.365
31379SOL    HW196034  10.083  12.287   4.460
31379SOL    HW296035  10.113  12.386   4.350
31380SOL     OW96036  14.819   2.454  10.499
31380SOL    HW196037  14.765   2.388  10.456
31380SOL    HW296038  14.845   2.413  10.582
31381SOL     OW96039   1.555   5.503  12.173
31381SOL    HW196040   1.619   5.573  12.188
31381SOL    HW296041   1.479   5.548  12.136
31382SOL     OW96042  10.199  14.267   4.181
31382SOL    HW196043  10.224  14.227   4.097
31382SOL    HW296044  10.248  14.350   4.183
31383SOL     OW96045   9.512  14.116   7.067
31383SOL    HW196046   9.457  14.125   7.145
31383SOL    HW296047   9.538  14.205   7.045
31384SOL     OW96048   2.179   0.191  12.678
31384SOL    HW196049   2.169   0.221  12.588
31384SOL    HW296050   2.245   0.249  12.716
31385SOL     OW96051   8.904  10.311   7.974
31385SOL    HW196052   8.831  10.360   7.936
31385SOL    HW296053   8.882  10.219   7.958
31386SOL     OW96054   3.706   1.319  11.370
31386SOL    HW196055   3.667   1.232  11.354
31386SOL    HW296056   3.636   1.380  11.349
31387SOL     OW96057  14.051  13.757   4.613
31387SOL    HW196058  14.126  13.737   4.669
31387SOL    HW296059  14.068  13.709   4.532
31388SOL     OW96060   3.507   8.509   4.446
31388SOL    HW196061   3.504   8.604   4.448
31388SOL    HW296062   3.498   8.486   4.354
31389SOL     OW96063   1.592   7.902   2.705
31389SOL    HW196064   1.645   7.977   2.678
31389SOL    HW296065   1.655   7.838   2.737
31390SOL     OW96066   1.419   4.049   1.704
31390SOL    HW196067   1.481   3.990   1.661
31390SOL    HW296068   1.333   4.023   1.669
31391SOL     OW96069   7.082   4.641  11.556
31391SOL    HW196070   7.119   4.729  11.561
31391SOL    HW296071   7.094   4.605  11.644
31392SOL     OW96072   1.356   3.198  13.123
31392SOL    HW196073   1.416   3.128  13.152
31392SOL    HW296074   1.271   3.154  13.114
31393SOL     OW96075  13.449   0.108   3.043
31393SOL    HW196076  13.498   0.081   2.965
31393SOL    HW296077  13.473   0.200   3.055
31394SOL     OW96078  11.183   9.232   2.648
31394SOL    HW196079  11.208   9.140   2.647
31394SOL    HW296080  11.159   9.252   2.558
31395SOL     OW96081   6.956   2.184   5.578
31395SOL    HW196082   6.940   2.104   5.527
31395SOL    HW296083   6.992   2.153   5.661
31396SOL     OW96084   4.749   0.860  14.035
31396SOL    HW196085   4.769   0.767  14.040
31396SOL    HW296086   4.766   0.893  14.123
31397SOL     OW96087  13.788  10.194   4.322
31397SOL    HW196088  13.751  10.107   4.336
31397SOL    HW296089  13.805  10.199   4.228
31398SOL     OW96090   5.440   3.515   3.876
31398SOL    HW196091   5.426   3.593   3.930
31398SOL    HW296092   5.366   3.514   3.815
31399SOL     OW96093  14.107  11.014   7.734
31399SOL    HW196094  14.063  11.088   7.775
31399SOL    HW296095  14.153  10.970   7.806
31400SOL     OW96096  11.891   4.824   1.963
31400SOL    HW196097  11.947   4.861   1.895
31400SOL    HW296098  11.805   4.814   1.921
31401SOL     OW96099   2.566   8.508   4.024
31401SOL    HW196100   2.596   8.469   3.942
31401SOL    HW296101   2.633   8.572   4.048
31402SOL     OW96102   8.498   3.744   9.225
31402SOL    HW196103   8.518   3.826   9.179
31402SOL    HW296104   8.513   3.676   9.160
31403SOL     OW96105   7.120  11.050   4.373
31403SOL    HW196106   7.070  11.132   4.370
31403SOL    HW296107   7.209  11.077   4.396
31404SOL     OW96108   2.143   2.689  12.457
31404SOL    HW196109   2.063   2.682  12.405
31404SOL    HW296110   2.210   2.642  12.406
31405SOL     OW96111   9.582  10.570  10.993
31405SOL    HW196112   9.623  10.537  10.913
31405SOL    HW296113   9.538  10.493  11.031
31406SOL     OW96114   2.689   2.327   6.494
31406SOL    HW196115   2.669   2.241   6.457
31406SOL    HW296116   2.605   2.373   6.493
31407SOL     OW96117   8.921   6.968   1.760
31407SOL    HW196118   8.912   6.910   1.684
31407SOL    HW296119   8.841   6.955   1.810
31408SOL     OW96120   7.945   6.289  12.773
31408SOL    HW196121   8.011   6.299  12.841
31408SOL    HW296122   7.871   6.247  12.817
31409SOL     OW96123   8.225   9.550   4.235
31409SOL    HW196124   8.314   9.582   4.249
31409SOL    HW296125   8.229   9.503   4.152
31410SOL     OW96126  10.656   1.392   0.816
31410SOL    HW196127  10.598   1.371   0.889
31410SOL    HW296128  10.648   1.486   0.805
31411SOL     OW96129   3.540   0.312  14.101
31411SOL    HW196130   3.602   0.335  14.032
31411SOL    HW296131   3.533   0.217  14.097
31412SOL     OW96132   9.061  14.055   3.473
31412SOL    HW196133   8.992  14.119   3.452
31412SOL    HW296134   9.041  14.027   3.563
31413SOL     OW96135   0.863   0.721  10.548
31413SOL    HW196136   0.832   0.679  10.628
31413SOL    HW296137   0.921   0.657  10.508
31414SOL     OW96138  12.585   3.753   0.278
31414SOL    HW196139  12.661   3.769   0.222
31414SOL    HW296140  12.541   3.837   0.283
31415SOL     OW96141  10.555  11.078   4.186
31415SOL    HW196142  10.616  11.145   4.217
31415SOL    HW296143  10.471  11.102   4.225
31416SOL     OW96144  14.815   3.404  11.577
31416SOL    HW196145  14.792   3.312  11.574
31416SOL    HW296146  14.776   3.436  11.658
31417SOL     OW96147   9.075  10.831   8.459
31417SOL    HW196148   9.114  10.744   8.452
31417SOL    HW296149   8.981  10.814   8.471
31418SOL     OW96150   3.322   9.483   8.675
31418SOL    HW196151   3.381   9.538   8.727
31418SOL    HW296152   3.246   9.539   8.659
31419SOL     OW96153   8.037   2.713   2.444
31419SOL    HW196154   8.004   2.799   2.417
31419SOL    HW296155   7.988   2.651   2.390
31420SOL     OW96156  11.346   7.856   5.041
31420SOL    HW196157  11.323   7.944   5.071
31420SOL    HW296158  11.425   7.868   4.988
31421SOL     OW96159  11.574   3.185   7.118
31421SOL    HW196160  11.600   3.272   7.089
31421SOL    HW296161  11.579   3.131   7.039
31422SOL     OW96162  14.107  10.113   2.436
31422SOL    HW196163  14.119  10.171   2.362
31422SOL    HW296164  14.012  10.113   2.451
31423SOL     OW96165  12.965  10.679  14.119
31423SOL    HW196166  12.961  10.607  14.181
31423SOL    HW296167  12.958  10.758  14.173
31424SOL     OW96168  14.197  11.998   4.198
31424SOL    HW196169  14.173  11.974   4.288
31424SOL    HW296170  14.290  12.020   4.204
31425SOL     OW96171   1.428  11.687  12.857
31425SOL    HW196172   1.471  11.671  12.941
31425SOL    HW296173   1.428  11.602  12.814
31426SOL     OW96174  13.950   9.594  11.225
31426SOL    HW196175  13.899   9.585  11.144
31426SOL    HW296176  13.897   9.552  11.292
31427SOL     OW96177  12.399  14.807  11.634
31427SOL    HW196178  12.452  14.769  11.564
31427SOL    HW296179  12.432   0.025  11.642
31428SOL     OW96180   2.548   4.677   9.598
31428SOL    HW196181   2.531   4.744   9.664
31428SOL    HW296182   2.624   4.710   9.549
31429SOL     OW96183  10.676  10.730   9.457
31429SOL    HW196184  10.694  10.694   9.371
31429SOL    HW296185  10.762  10.759   9.489
31430SOL     OW96186   0.078  11.134  13.378
31430SOL    HW196187   0.129  11.070  13.328
31430SOL    HW296188   0.053  11.200  13.313
31431SOL     OW96189   7.576   1.730   5.832
31431SOL    HW196190   7.578   1.799   5.898
31431SOL    HW296191   7.555   1.776   5.750
31432SOL     OW96192  14.671  10.616   9.589
31432SOL    HW196193  14.640  10.594   9.677
31432SOL    HW296194  14.623  10.695   9.565
31433SOL     OW96195  10.051   8.065   3.769
31433SOL    HW196196  10.080   8.154   3.749
31433SOL    HW296197   9.967   8.077   3.814
31434SOL     OW96198  14.233  10.407  11.211
31434SOL    HW196199  14.201  10.449  11.131
31434SOL    HW296200  14.254  10.479  11.270
31435SOL     OW96201  12.006  14.154   9.528
31435SOL    HW196202  11.977  14.210   9.457
31435SOL    HW296203  11.938  14.162   9.595
31436SOL     OW96204   3.378   7.610   6.819
31436SOL    HW196205   3.324   7.660   6.881
31436SOL    HW296206   3.454   7.666   6.804
31437SOL     OW96207   0.074   2.782   1.776
31437SOL    HW196208   0.028   2.723   1.717
31437SOL    HW296209   0.165   2.779   1.746
31438SOL     OW96210  13.898   9.489  14.475
31438SOL    HW196211  13.949   9.569  14.469
31438SOL    HW296212  13.960   9.422  14.505
31439SOL     OW96213   7.420   7.912  13.639
31439SOL    HW196214   7.492   7.849  13.646
31439SOL    HW296215   7.437   7.960  13.557
31440SOL     OW96216   8.522   5.616   1.322
31440SOL    HW196217   8.514   5.682   1.253
31440SOL    HW296218   8.435   5.614   1.363
31441SOL     OW96219   5.727  11.932  14.057
31441SOL    HW196220   5.788  11.868  14.019
31441SOL    HW296221   5.719  11.907  14.148
31442SOL     OW96222   5.236   1.297   3.067
31442SOL    HW196223   5.256   1.294   3.161
31442SOL    HW296224   5.289   1.370   3.034
31443SOL     OW96225  12.299   2.908   0.635
31443SOL    HW196226  12.311   2.914   0.540
31443SOL    HW296227  12.371   2.959   0.671
31444SOL     OW96228   7.795  10.140   0.698
31444SOL    HW196229   7.830  10.143   0.609
31444SOL    HW296230   7.700  10.139   0.688
31445SOL     OW96231   3.238   4.737   1.987
31445SOL    HW196232   3.223   4.700   1.900
31445SOL    HW296233   3.324   4.778   1.981
31446SOL     OW96234   8.288   1.044   4.038
31446SOL    HW196235   8.365   1.061   4.094
31446SOL    HW296236   8.324   1.041   3.949
31447SOL     OW96237  14.800  11.766  13.712
31447SOL    HW196238   0.011  11.814  13.720
31447SOL    HW296239  14.814  11.708  13.637
31448SOL     OW96240   7.947  12.477  10.501
31448SOL    HW196241   7.978  12.560  10.464
31448SOL    HW296242   7.991  12.410  10.449
31449SOL     OW96243   8.928   9.800   7.362
31449SOL    HW196244   8.960   9.801   7.453
31449SOL    HW296245   8.967   9.878   7.322
31450SOL     OW96246   9.295  11.435   4.652
31450SOL    HW196247   9.377  11.393   4.679
31450SOL    HW296248   9.311  11.529   4.664
31451SOL     OW96249   2.441   3.582   9.654
31451SOL    HW196250   2.367   3.596   9.714
31451SOL    HW296251   2.402   3.590   9.567
31452SOL     OW96252  11.655   7.965   2.886
31452SOL    HW196253  11.608   7.937   2.807
31452SOL    HW296254  11.668   8.059   2.874
31453SOL     OW96255  14.208  12.594  14.472
31453SOL    HW196256  14.274  12.577  14.405
31453SOL    HW296257  14.226  12.530  14.540
31454SOL     OW96258  11.616   3.463   7.071
31454SOL    HW196259  11.651   3.541   7.028
31454SOL    HW296260  11.621   3.482   7.164
31455SOL     OW96261   0.464   1.036   7.689
31455SOL    HW196262   0.514   0.965   7.730
31455SOL    HW296263   0.501   1.116   7.727
31456SOL     OW96264   7.944   4.778   3.945
31456SOL    HW196265   8.026   4.825   3.953
31456SOL    HW296266   7.968   4.686   3.957
31457SOL     OW96267   4.930  12.062   2.205
31457SOL    HW196268   4.916  12.023   2.119
31457SOL    HW296269   4.866  12.019   2.262
31458SOL     OW96270   3.447   7.356   6.291
31458SOL    HW196271   3.449   7.379   6.384
31458SOL    HW296272   3.480   7.434   6.247
31459SOL     OW96273   1.937   4.664   5.816
31459SOL    HW196274   1.928   4.570   5.798
31459SOL    HW296275   1.932   4.705   5.730
31460SOL     OW96276   9.629  10.094  14.167
31460SOL    HW196277   9.614   9.999  14.166
31460SOL    HW296278   9.575  10.128  14.096
31461SOL     OW96279   7.222   9.836   8.722
31461SOL    HW196280   7.160   9.797   8.660
31461SOL    HW296281   7.236   9.924   8.687
31462SOL     OW96282   1.501   1.088  12.646
31462SOL    HW196283   1.565   1.156  12.663
31462SOL    HW296284   1.430   1.133  12.600
31463SOL     OW96285  12.761  12.917   6.323
31463SOL    HW196286  12.839  12.959   6.285
31463SOL    HW296287  12.762  12.946   6.414
31464SOL     OW96288  14.132  11.582   6.772
31464SOL    HW196289  14.063  11.612   6.830
31464SOL    HW296290  14.120  11.632   6.691
31465SOL     OW96291   8.347  10.872   5.742
31465SOL    HW196292   8.264  10.912   5.717
31465SOL    HW296293   8.390  10.937   5.796
31466SOL     OW96294   4.699  11.485   6.924
31466SOL    HW196295   4.657  11.570   6.935
31466SOL    HW296296   4.638  11.435   6.870
31467SOL     OW96297   9.698  14.030  10.933
31467SOL    HW196298   9.631  14.089  10.967
31467SOL    HW296299   9.655  13.983  10.861
31468SOL     OW96300   9.893   3.028  12.971
31468SOL    HW196301   9.915   2.938  12.995
31468SOL    HW296302   9.928   3.081  13.043
31469SOL     OW96303  13.411   3.368  11.224
31469SOL    HW196304  13.466   3.303  11.183
31469SOL    HW296305  13.411   3.442  11.163
31470SOL     OW96306   0.589   2.846  14.052
31470SOL    HW196307   0.520   2.844  13.985
31470SOL    HW296308   0.656   2.786  14.020
31471SOL     OW96309   9.945   2.623  14.752
31471SOL    HW196310   9.876   2.680  14.717
31471SOL    HW296311  10.021   2.681  14.762
31472SOL     OW96312   6.152   0.699  13.859
31472SOL    HW196313   6.200   0.733  13.935
31472SOL    HW296314   6.062   0.727  13.873
31473SOL     OW96315   5.558   0.849   0.340
31473SOL    HW196316   5.514   0.892   0.413
31473SOL    HW296317   5.575   0.760   0.371
31474SOL     OW96318  13.276   1.891   4.347
31474SOL    HW196319  13.271   1.920   4.438
31474SOL    HW296320  13.340   1.821   4.347
31475SOL     OW96321  11.487   1.550   6.344
31475SOL    HW196322  11.518   1.474   6.395
31475SOL    HW296323  11.420   1.514   6.286
31476SOL     OW96324  14.575  12.258   9.407
31476SOL    HW196325  14.542  12.170   9.423
31476SOL    HW296326  14.504  12.316   9.435
31477SOL     OW96327  10.861  14.766   6.570
31477SOL    HW196328  10.868  14.843   6.514
31477SOL    HW296329  10.768  14.762   6.594
31478SOL     OW96330  10.337   1.570   9.195
31478SOL    HW196331  10.424   1.534   9.180
31478SOL    HW296332  10.349   1.636   9.263
31479SOL     OW96333  10.371   4.103   4.848
31479SOL    HW196334  10.437   4.133   4.786
31479SOL    HW296335  10.411   4.028   4.892
31480SOL     OW96336   3.452   2.844   6.295
31480SOL    HW196337   3.381   2.866   6.356
31480SOL    HW296338   3.513   2.918   6.303
31481SOL     OW96339  10.232   7.933   7.537
31481SOL    HW196340  10.149   7.974   7.563
31481SOL    HW296341  10.221   7.913   7.444
31482SOL     OW96342   6.676   5.127   5.459
31482SOL    HW196343   6.697   5.220   5.455
31482SOL    HW296344   6.747   5.089   5.511
31483SOL     OW96345  10.741   4.076   2.350
31483SOL    HW196346  10.827   4.117   2.356
31483SOL    HW296347  10.683   4.131   2.404
31484SOL     OW96348   3.443  13.839  10.754
31484SOL    HW196349   3.404  13.762  10.795
31484SOL    HW296350   3.423  13.829  10.660
31485SOL     OW96351   7.519   3.711   7.837
31485SOL    HW196352   7.527   3.727   7.742
31485SOL    HW296353   7.553   3.790   7.877
31486SOL     OW96354   6.345   9.196   9.693
31486SOL    HW196355   6.264   9.147   9.682
31486SOL    HW296356   6.350   9.213   9.787
31487SOL     OW96357   1.958   9.745   5.249
31487SOL    HW196358   1.934   9.774   5.337
31487SOL    HW296359   2.032   9.686   5.262
31488SOL     OW96360   6.599  10.651   3.444
31488SOL    HW196361   6.580  10.602   3.524
31488SOL    HW296362   6.602  10.584   3.375
31489SOL     OW96363   7.415  11.186   6.902
31489SOL    HW196364   7.409  11.178   6.997
31489SOL    HW296365   7.507  11.205   6.884
31490SOL     OW96366  10.972   4.133  13.090
31490SOL    HW196367  11.021   4.214  13.076
31490SOL    HW296368  10.911   4.129  13.016
31491SOL     OW96369  14.096   3.354  10.217
31491SOL    HW196370  14.082   3.449  10.209
31491SOL    HW296371  14.153   3.332  10.144
31492SOL     OW96372   9.656   3.979   7.394
31492SOL    HW196373   9.628   3.889   7.379
31492SOL    HW296374   9.747   3.981   7.364
31493SOL     OW96375   2.548  10.919   0.342
31493SOL    HW196376   2.540  10.943   0.250
31493SOL    HW296377   2.502  10.989   0.389
31494SOL     OW96378   5.978  11.478   3.503
31494SOL    HW196379   5.950  11.389   3.483
31494SOL    HW296380   5.937  11.532   3.435
31495SOL     OW96381   3.197   7.008   7.607
31495SOL    HW196382   3.255   7.067   7.655
31495SOL    HW296383   3.206   7.034   7.516
31496SOL     OW96384  11.522   6.900  10.159
31496SOL    HW196385  11.516   6.871  10.250
31496SOL    HW296386  11.591   6.965  10.158
31497SOL     OW96387   5.015   0.478   1.469
31497SOL    HW196388   5.054   0.460   1.383
31497SOL    HW296389   4.932   0.431   1.469
31498SOL     OW96390   6.214   5.978  12.596
31498SOL    HW196391   6.133   5.962  12.545
31498SOL    HW296392   6.197   6.059  12.643
31499SOL     OW96393   7.018   9.835   7.686
31499SOL    HW196394   7.022   9.886   7.767
31499SOL    HW296395   6.989   9.748   7.713
31500SOL     OW96396  11.632   4.163  13.648
31500SOL    HW196397  11.609   4.071  13.640
31500SOL    HW296398  11.581   4.195  13.722
31501SOL     OW96399  10.222   0.932   3.005
31501SOL    HW196400  10.176   0.970   2.930
31501SOL    HW296401  10.247   0.845   2.977
31502SOL     OW96402  13.231   1.948   2.156
31502SOL    HW196403  13.156   1.898   2.189
31502SOL    HW296404  13.291   1.881   2.123
31503SOL     OW96405   0.170   0.188   2.281
31503SOL    HW196406   0.159   0.259   2.344
31503SOL    HW296407   0.180   0.109   2.334
31504SOL     OW96408   9.293   6.393  14.375
31504SOL    HW196409   9.377   6.397  14.421
31504SOL    HW296410   9.275   6.299  14.365
31505SOL     OW96411   1.430   8.973   5.195
31505SOL    HW196412   1.524   8.990   5.191
31505SOL    HW296413   1.409   8.931   5.112
31506SOL     OW96414   9.795   1.667  11.093
31506SOL    HW196415   9.751   1.681  11.177
31506SOL    HW296416   9.815   1.574  11.092
31507SOL     OW96417   0.910   9.883  12.535
31507SOL    HW196418   0.939   9.843  12.453
31507SOL    HW296419   0.889   9.809  12.591
31508SOL     OW96420   3.003   7.432   2.444
31508SOL    HW196421   2.962   7.509   2.484
31508SOL    HW296422   2.954   7.357   2.480
31509SOL     OW96423   3.141   8.518   2.011
31509SOL    HW196424   3.207   8.483   1.951
31509SOL    HW296425   3.145   8.613   1.998
31510SOL     OW96426   3.621  14.282   6.111
31510SOL    HW196427   3.663  14.346   6.168
31510SOL    HW296428   3.529  14.308   6.111
31511SOL     OW96429   9.016   3.081   0.943
31511SOL    HW196430   8.929   3.095   0.981
31511SOL    HW296431   9.044   3.168   0.915
31512SOL     OW96432   5.877   8.254   0.400
31512SOL    HW196433   5.812   8.184   0.393
31512SOL    HW296434   5.845   8.322   0.340
31513SOL     OW96435  11.072   0.204   8.622
31513SOL    HW196436  11.126   0.143   8.573
31513SOL    HW296437  11.016   0.245   8.556
31514SOL     OW96438  13.724  12.328  10.484
31514SOL    HW196439  13.738  12.235  10.463
31514SOL    HW296440  13.656  12.356  10.423
31515SOL     OW96441  14.414   3.814   1.689
31515SOL    HW196442  14.405   3.901   1.727
31515SOL    HW296443  14.451   3.761   1.759
31516SOL     OW96444   6.209   9.371   6.996
31516SOL    HW196445   6.171   9.289   6.964
31516SOL    HW296446   6.151   9.397   7.068
31517SOL     OW96447   1.062   4.292  13.548
31517SOL    HW196448   1.044   4.379  13.582
31517SOL    HW296449   1.157   4.282  13.556
31518SOL     OW96450  10.003   7.521   0.864
31518SOL    HW196451   9.932   7.458   0.869
31518SOL    HW296452  10.025   7.540   0.955
31519SOL     OW96453   6.777   3.244   9.949
31519SOL    HW196454   6.806   3.334   9.958
31519SOL    HW296455   6.792   3.223   9.856
31520SOL     OW96456  13.997  13.732   0.380
31520SOL    HW196457  13.984  13.676   0.304
31520SOL    HW296458  14.076  13.698   0.422
31521SOL     OW96459   8.140   4.613   4.651
31521SOL    HW196460   8.144   4.638   4.559
31521SOL    HW296461   8.070   4.547   4.655
31522SOL     OW96462   8.965   2.314  11.248
31522SOL    HW196463   8.976   2.406  11.222
31522SOL    HW296464   8.885   2.314  11.301
31523SOL     OW96465   1.420   3.654   6.332
31523SOL    HW196466   1.361   3.579   6.325
31523SOL    HW296467   1.418   3.695   6.246
31524SOL     OW96468   3.172   6.178   1.429
31524SOL    HW196469   3.138   6.095   1.462
31524SOL    HW296470   3.104   6.210   1.370
31525SOL     OW96471   2.979  11.368   0.476
31525SOL    HW196472   2.959  11.439   0.538
31525SOL    HW296473   2.905  11.308   0.483
31526SOL     OW96474   8.780   4.122   6.828
31526SOL    HW196475   8.871   4.133   6.854
31526SOL    HW296476   8.744   4.211   6.829
31527SOL     OW96477  13.825  14.617  11.599
31527SOL    HW196478  13.766  14.598  11.671
31527SOL    HW296479  13.904  14.651  11.641
31528SOL     OW96480   9.504   9.166   2.039
31528SOL    HW196481   9.445   9.216   1.982
31528SOL    HW296482   9.447   9.102   2.082
31529SOL     OW96483   1.236  12.393  14.186
31529SOL    HW196484   1.245  12.396  14.090
31529SOL    HW296485   1.162  12.450  14.205
31530SOL     OW96486   1.643   8.393   2.429
31530SOL    HW196487   1.564   8.355   2.468
31530SOL    HW296488   1.662   8.469   2.484
31531SOL     OW96489   1.862   5.108   6.543
31531SOL    HW196490   1.824   5.028   6.581
31531SOL    HW296491   1.932   5.132   6.603
31532SOL     OW96492   6.016   3.297   3.224
31532SOL    HW196493   5.954   3.327   3.291
31532SOL    HW296494   6.102   3.308   3.264
31533SOL     OW96495   1.662   4.307   8.593
31533SOL    HW196496   1.729   4.246   8.561
31533SOL    HW296497   1.606   4.253   8.648
31534SOL     OW96498   2.927  12.842   9.659
31534SOL    HW196499   3.015  12.806   9.651
31534SOL    HW296500   2.938  12.937   9.651
31535SOL     OW96501  14.330   2.125  14.119
31535SOL    HW196502  14.244   2.086  14.136
31535SOL    HW296503  14.388   2.050  14.105
31536SOL     OW96504  14.790  13.366   8.839
31536SOL    HW196505  14.820  13.454   8.820
31536SOL    HW296506  14.857  13.309   8.802
31537SOL     OW96507   6.485  13.492   1.094
31537SOL    HW196508   6.523  13.484   1.181
31537SOL    HW296509   6.528  13.424   1.043
31538SOL     OW96510   7.939   9.960  13.997
31538SOL    HW196511   8.007  10.021  14.024
31538SOL    HW296512   7.963   9.935  13.908
31539SOL     OW96513  11.470   5.486   7.227
31539SOL    HW196514  11.401   5.533   7.274
31539SOL    HW296515  11.535   5.465   7.295
31540SOL     OW96516   1.590  14.425  11.041
31540SOL    HW196517   1.570  14.500  11.097
31540SOL    HW296518   1.685  14.427  11.031
31541SOL     OW96519  10.483  10.287   3.892
31541SOL    HW196520  10.394  10.304   3.922
31541SOL    HW296521  10.476  10.280   3.797
31542SOL     OW96522   1.115  12.625   7.583
31542SOL    HW196523   1.173  12.594   7.652
31542SOL    HW296524   1.078  12.545   7.545
31543SOL     OW96525   5.430   2.300   0.582
31543SOL    HW196526   5.336   2.319   0.584
31543SOL    HW296527   5.449   2.279   0.491
31544SOL     OW96528   2.030  10.730   2.990
31544SOL    HW196529   2.064  10.642   2.979
31544SOL    HW296530   1.945  10.729   2.946
31545SOL     OW96531  13.869  13.654   3.885
31545SOL    HW196532  13.920  13.573   3.874
31545SOL    HW296533  13.871  13.695   3.799
31546SOL     OW96534  12.806   3.662   1.059
31546SOL    HW196535  12.876   3.667   0.994
31546SOL    HW296536  12.730   3.702   1.017
31547SOL     OW96537   7.439   5.139   5.969
31547SOL    HW196538   7.356   5.168   5.932
31547SOL    HW296539   7.500   5.139   5.895
31548SOL     OW96540  13.217  12.446   7.646
31548SOL    HW196541  13.182  12.535   7.636
31548SOL    HW296542  13.309  12.459   7.669
31549SOL     OW96543   1.131   5.708   2.701
31549SOL    HW196544   1.135   5.692   2.795
31549SOL    HW296545   1.178   5.791   2.688
31550SOL     OW96546   4.341   7.679   2.703
31550SOL    HW196547   4.246   7.676   2.711
31550SOL    HW296548   4.360   7.640   2.618
31551SOL     OW96549  10.098   9.038  12.937
31551SOL    HW196550  10.174   9.075  12.892
31551SOL    HW296551  10.022   9.075  12.892
31552SOL     OW96552   5.481   6.015  11.759
31552SOL    HW196553   5.414   6.045  11.820
31552SOL    HW296554   5.564   6.041  11.800
31553SOL     OW96555   9.199   8.257   7.558
31553SOL    HW196556   9.106   8.256   7.536
31553SOL    HW296557   9.244   8.254   7.473
31554SOL     OW96558  13.334  11.336   3.788
31554SOL    HW196559  13.248  11.374   3.771
31554SOL    HW296560  13.357  11.367   3.876
31555SOL     OW96561  11.751   1.439   7.432
31555SOL    HW196562  11.778   1.527   7.408
31555SOL    HW296563  11.658   1.447   7.456
31556SOL     OW96564   7.843  11.768  12.367
31556SOL    HW196565   7.776  11.700  12.377
31556SOL    HW296566   7.905  11.732  12.304
31557SOL     OW96567  12.839  11.422  11.280
31557SOL    HW196568  12.856  11.328  11.275
31557SOL    HW296569  12.768  11.437  11.218
31558SOL     OW96570  13.621   6.123   0.966
31558SOL    HW196571  13.555   6.170   1.017
31558SOL    HW296572  13.681   6.190   0.935
31559SOL     OW96573   4.867  13.738  10.804
31559SOL    HW196574   4.778  13.772  10.797
31559SOL    HW296575   4.880  13.724  10.897
31560SOL     OW96576   8.713  10.805  12.016
31560SOL    HW196577   8.807  10.806  11.999
31560SOL    HW296578   8.705  10.782  12.109
31561SOL     OW96579   2.056  11.838  13.931
31561SOL    HW196580   2.062  11.932  13.915
31561SOL    HW296581   2.136  11.802  13.892
31562SOL     OW96582   3.001   9.923  10.444
31562SOL    HW196583   2.930   9.877  10.490
31562SOL    HW296584   3.077   9.865  10.456
31563SOL     OW96585  11.160   3.455   9.242
31563SOL    HW196586  11.123   3.541   9.264
31563SOL    HW296587  11.169   3.411   9.326
31564SOL     OW96588   8.570   6.633  11.864
31564SOL    HW196589   8.493   6.613  11.917
31564SOL    HW296590   8.536   6.646  11.776
31565SOL     OW96591   9.385   0.214   7.750
31565SOL    HW196592   9.383   0.143   7.814
31565SOL    HW296593   9.306   0.202   7.698
31566SOL     OW96594  13.954   9.540  13.471
31566SOL    HW196595  13.887   9.485  13.431
31566SOL    HW296596  13.958   9.512  13.562
31567SOL     OW96597  11.426   0.332   8.408
31567SOL    HW196598  11.401   0.240   8.421
31567SOL    HW296599  11.351   0.382   8.437
31568SOL     OW96600   1.914  14.704   6.753
31568SOL    HW196601   1.955  14.769   6.697
31568SOL    HW296602   1.907  14.626   6.698
31569SOL     OW96603   5.086  10.938   8.123
31569SOL    HW196604   5.122  11.004   8.063
31569SOL    HW296605   5.141  10.944   8.201
31570SOL     OW96606   4.848   8.503   7.520
31570SOL    HW196607   4.771   8.533   7.568
31570SOL    HW296608   4.813   8.456   7.445
31571SOL     OW96609   5.611   0.408  12.135
31571SOL    HW196610   5.617   0.439  12.225
31571SOL    HW296611   5.671   0.463  12.085
31572SOL     OW96612  12.948   9.131   8.785
31572SOL    HW196613  13.034   9.153   8.749
31572SOL    HW296614  12.968   9.076   8.862
31573SOL     OW96615  11.314  12.883   2.085
31573SOL    HW196616  11.406  12.864   2.104
31573SOL    HW296617  11.265  12.826   2.145
31574SOL     OW96618   6.381   1.156   6.723
31574SOL    HW196619   6.356   1.114   6.641
31574SOL    HW296620   6.473   1.134   6.734
31575SOL     OW96621  10.979  10.489   2.941
31575SOL    HW196622  10.958  10.406   2.897
31575SOL    HW296623  10.894  10.526   2.964
31576SOL     OW96624   9.755  12.435   2.743
31576SOL    HW196625   9.839  12.439   2.698
31576SOL    HW296626   9.758  12.508   2.805
31577SOL     OW96627  14.346   7.119   1.041
31577SOL    HW196628  14.347   7.215   1.042
31577SOL    HW296629  14.349   7.094   1.133
31578SOL     OW96630  13.329  10.075   3.094
31578SOL    HW196631  13.318  10.109   3.005
31578SOL    HW296632  13.411  10.114   3.125
31579SOL     OW96633  10.775   5.000   4.962
31579SOL    HW196634  10.861   5.023   4.928
31579SOL    HW296635  10.754   5.070   5.024
31580SOL     OW96636  14.376   7.532   6.594
31580SOL    HW196637  14.298   7.588   6.597
31580SOL    HW296638  14.344   7.447   6.566
31581SOL     OW96639   1.260  14.808   9.436
31581SOL    HW196640   1.200  14.859   9.381
31581SOL    HW296641   1.211  14.729   9.458
31582SOL     OW96642  10.325   3.895  13.078
31582SOL    HW196643  10.308   3.807  13.110
31582SOL    HW296644  10.409   3.919  13.118
31583SOL     OW96645   2.167  13.248   8.466
31583SOL    HW196646   2.078  13.263   8.434
31583SOL    HW296647   2.199  13.335   8.491
31584SOL     OW96648   8.100   4.191   1.608
31584SOL    HW196649   8.174   4.172   1.667
31584SOL    HW296650   8.037   4.235   1.664
31585SOL     OW96651  12.476   8.089   4.665
31585SOL    HW196652  12.382   8.073   4.665
31585SOL    HW296653  12.485   8.177   4.627
31586SOL     OW96654  13.476   3.497   2.350
31586SOL    HW196655  13.385   3.524   2.360
31586SOL    HW296656  13.482   3.468   2.259
31587SOL     OW96657   5.479  13.817  11.583
31587SOL    HW196658   5.562  13.854  11.553
31587SOL    HW296659   5.480  13.830  11.677
31588SOL     OW96660   1.997   6.998   6.938
31588SOL    HW196661   1.991   7.019   7.031
31588SOL    HW296662   2.049   6.918   6.934
31589SOL     OW96663   2.491   5.327   7.517
31589SOL    HW196664   2.462   5.417   7.528
31589SOL    HW296665   2.572   5.321   7.567
31590SOL     OW96666  14.710  14.169   4.734
31590SOL    HW196667  14.765  14.238   4.697
31590SOL    HW296668  14.747  14.151   4.820
31591SOL     OW96669  11.587   4.340   5.478
31591SOL    HW196670  11.609   4.321   5.569
31591SOL    HW296671  11.591   4.436   5.472
31592SOL     OW96672   5.891  10.272   4.311
31592SOL    HW196673   5.870  10.232   4.227
31592SOL    HW296674   5.875  10.366   4.298
31593SOL     OW96675   4.887   0.734   8.030
31593SOL    HW196676   4.957   0.718   8.094
31593SOL    HW296677   4.931   0.775   7.956
31594SOL     OW96678  14.119   6.151  12.600
31594SOL    HW196679  14.121   6.238  12.561
31594SOL    HW296680  14.090   6.165  12.690
31595SOL     OW96681   9.708   4.465   8.297
31595SOL    HW196682   9.798   4.435   8.283
31595SOL    HW296683   9.685   4.431   8.384
31596SOL     OW96684   8.812   7.388   8.546
31596SOL    HW196685   8.755   7.465   8.543
31596SOL    HW296686   8.844   7.385   8.636
31597SOL     OW96687   2.609  10.355  14.287
31597SOL    HW196688   2.574  10.442  14.306
31597SOL    HW296689   2.533  10.303  14.263
31598SOL     OW96690   0.442  14.043  13.095
31598SOL    HW196691   0.386  14.108  13.051
31598SOL    HW296692   0.409  14.042  13.185
31599SOL     OW96693  12.733   9.260   5.322
31599SOL    HW196694  12.822   9.228   5.328
31599SOL    HW296695  12.731   9.311   5.242
31600SOL     OW96696   9.840  11.490   5.202
31600SOL    HW196697   9.897  11.415   5.218
31600SOL    HW296698   9.827  11.529   5.288
31601SOL     OW96699   1.847  14.378  10.942
31601SOL    HW196700   1.922  14.319  10.952
31601SOL    HW296701   1.793  14.337  10.875
31602SOL     OW96702   3.215   0.534   9.595
31602SOL    HW196703   3.197   0.570   9.681
31602SOL    HW296704   3.298   0.487   9.606
31603SOL     OW96705   4.691   0.187   0.181
31603SOL    HW196706   4.767   0.151   0.227
31603SOL    HW296707   4.621   0.185   0.246
31604SOL     OW96708  13.852   5.017   0.925
31604SOL    HW196709  13.888   4.937   0.963
31604SOL    HW296710  13.761   4.996   0.905
31605SOL     OW96711  13.101   0.202   8.695
31605SOL    HW196712  13.105   0.261   8.770
31605SOL    HW296713  13.044   0.247   8.633
31606SOL     OW96714   4.585   2.186   8.485
31606SOL    HW196715   4.514   2.227   8.434
31606SOL    HW296716   4.664   2.207   8.436
31607SOL     OW96717   5.135  13.225  12.327
31607SOL    HW196718   5.220  13.240  12.287
31607SOL    HW296719   5.093  13.311  12.327
31608SOL     OW96720   5.498   4.119   3.142
31608SOL    HW196721   5.459   4.050   3.195
31608SOL    HW296722   5.460   4.200   3.177
31609SOL     OW96723  12.497  10.374   6.957
31609SOL    HW196724  12.420  10.340   6.912
31609SOL    HW296725  12.476  10.367   7.050
31610SOL     OW96726   5.333  13.226   0.002
31610SOL    HW196727   5.421  13.255   0.023
31610SOL    HW296728   5.344  13.165  14.801
31611SOL     OW96729   5.176  11.232   8.716
31611SOL    HW196730   5.228  11.271   8.646
31611SOL    HW296731   5.088  11.268   8.704
31612SOL     OW96732   4.384   3.890  14.657
31612SOL    HW196733   4.459   3.925  14.705
31612SOL    HW296734   4.375   3.950  14.582
31613SOL     OW96735   2.597   2.317  14.525
31613SOL    HW196736   2.620   2.250  14.461
31613SOL    HW296737   2.622   2.279  14.610
31614SOL     OW96738   8.878  11.954   2.805
31614SOL    HW196739   8.821  12.031   2.802
31614SOL    HW296740   8.967  11.990   2.806
31615SOL     OW96741   7.927   4.055   7.643
31615SOL    HW196742   8.008   4.093   7.677
31615SOL    HW296743   7.948   4.031   7.553
31616SOL     OW96744  10.277   0.767   3.828
31616SOL    HW196745  10.203   0.775   3.768
31616SOL    HW296746  10.240   0.724   3.905
31617SOL     OW96747   5.564  13.057  13.335
31617SOL    HW196748   5.605  13.110  13.266
31617SOL    HW296749   5.482  13.027  13.296
31618SOL     OW96750   8.189  11.535   8.099
31618SOL    HW196751   8.189  11.456   8.045
31618SOL    HW296752   8.096  11.554   8.114
31619SOL     OW96753  13.374   7.041   4.454
31619SOL    HW196754  13.377   7.123   4.503
31619SOL    HW296755  13.420   6.978   4.510
31620SOL     OW96756  14.336   1.214   8.407
31620SOL    HW196757  14.271   1.147   8.426
31620SOL    HW296758  14.372   1.189   8.322
31621SOL     OW96759   1.209  12.353   3.697
31621SOL    HW196760   1.113  12.361   3.695
31621SOL    HW296761   1.227  12.306   3.779
31622SOL     OW96762  11.885   0.926   3.549
31622SOL    HW196763  11.948   0.985   3.589
31622SOL    HW296764  11.933   0.884   3.477
31623SOL     OW96765  14.286  10.656   5.073
31623SOL    HW196766  14.300  10.599   5.149
31623SOL    HW296767  14.252  10.598   5.005
31624SOL     OW96768  11.336   4.628   5.583
31624SOL    HW196769  11.343   4.638   5.678
31624SOL    HW296770  11.247   4.595   5.569
31625SOL     OW96771   2.730   0.933  14.007
31625SOL    HW196772   2.762   0.843  14.011
31625SOL    HW296773   2.705   0.954  14.097
31626SOL     OW96774   6.504  13.253   2.934
31626SOL    HW196775   6.459  13.337   2.946
31626SOL    HW296776   6.574  13.254   2.999
31627SOL     OW96777   4.139   5.481   6.297
31627SOL    HW196778   4.154   5.402   6.350
31627SOL    HW296779   4.195   5.547   6.337
31628SOL     OW96780   8.123  11.216  12.984
31628SOL    HW196781   8.156  11.306  12.979
31628SOL    HW296782   8.132  11.193  13.076
31629SOL     OW96783   5.746   4.641   2.369
31629SOL    HW196784   5.739   4.665   2.276
31629SOL    HW296785   5.668   4.589   2.386
31630SOL     OW96786  11.132  10.340  11.497
31630SOL    HW196787  11.065  10.297  11.551
31630SOL    HW296788  11.190  10.270  11.470
31631SOL     OW96789   5.868  11.784   8.678
31631SOL    HW196790   5.819  11.706   8.652
31631SOL    HW296791   5.888  11.770   8.770
31632SOL     OW96792   5.480   8.320  13.399
31632SOL    HW196793   5.467   8.293  13.309
31632SOL    HW296794   5.574   8.339  13.405
31633SOL     OW96795   5.652  11.437  12.248
31633SOL    HW196796   5.648  11.527  12.281
31633SOL    HW296797   5.676  11.447  12.156
31634SOL     OW96798   7.995   1.815   4.113
31634SOL    HW196799   7.999   1.795   4.019
31634SOL    HW296800   8.086   1.811   4.142
31635SOL     OW96801   4.994  12.303  12.051
31635SOL    HW196802   5.004  12.215  12.087
31635SOL    HW296803   4.901  12.323  12.061
31636SOL     OW96804  10.129  14.726   1.132
31636SOL    HW196805  10.203  14.737   1.192
31636SOL    HW296806  10.123  14.632   1.117
31637SOL     OW96807  13.771   8.483  10.441
31637SOL    HW196808  13.821   8.431  10.378
31637SOL    HW296809  13.779   8.573  10.410
31638SOL     OW96810  13.132   1.011   0.743
31638SOL    HW196811  13.091   1.063   0.812
31638SOL    HW296812  13.087   0.927   0.745
31639SOL     OW96813   6.559  12.680  10.268
31639SOL    HW196814   6.613  12.639  10.200
31639SOL    HW296815   6.475  12.634  10.264
31640SOL     OW96816   3.401   4.641  10.382
31640SOL    HW196817   3.344   4.601  10.316
31640SOL    HW296818   3.428   4.724  10.344
31641SOL     OW96819   1.895   8.419   4.677
31641SOL    HW196820   1.799   8.423   4.684
31641SOL    HW296821   1.924   8.510   4.685
31642SOL     OW96822   0.255  11.130   0.698
31642SOL    HW196823   0.333  11.135   0.643
31642SOL    HW296824   0.248  11.218   0.737
31643SOL     OW96825   4.049   8.785  12.459
31643SOL    HW196826   4.096   8.764  12.378
31643SOL    HW296827   4.015   8.700  12.488
31644SOL     OW96828   7.348  11.549  11.546
31644SOL    HW196829   7.410  11.606  11.592
31644SOL    HW296830   7.392  11.464  11.544
31645SOL     OW96831   0.309   8.221   5.214
31645SOL    HW196832   0.294   8.129   5.233
31645SOL    HW296833   0.288   8.267   5.296
31646SOL     OW96834   0.610   5.087  14.546
31646SOL    HW196835   0.580   5.140  14.620
31646SOL    HW296836   0.657   5.014  14.585
31647SOL     OW96837   1.670   4.969   4.063
31647SOL    HW196838   1.594   4.939   4.013
31647SOL    HW296839   1.645   4.959   4.155
31648SOL     OW96840   9.824   9.960   7.168
31648SOL    HW196841   9.888   9.897   7.202
31648SOL    HW296842   9.870  10.004   7.096
31649SOL     OW96843   8.692   5.715  13.240
31649SOL    HW196844   8.650   5.681  13.161
31649SOL    HW296845   8.700   5.809  13.225
31650SOL     OW96846   4.221   1.815   0.514
31650SOL    HW196847   4.253   1.905   0.509
31650SOL    HW296848   4.287   1.763   0.469
31651SOL     OW96849   0.171   3.543   8.119
31651SOL    HW196850   0.080   3.518   8.103
31651SOL    HW296851   0.204   3.569   8.033
31652SOL     OW96852  10.856  13.731  14.471
31652SOL    HW196853  10.877  13.640  14.488
31652SOL    HW296854  10.941  13.774  14.463
31653SOL     OW96855  10.108  10.539  12.417
31653SOL    HW196856  10.017  10.513  12.404
31653SOL    HW296857  10.156  10.491  12.350
31654SOL     OW96858  13.736  14.846   8.634
31654SOL    HW196859  13.827  14.817   8.627
31654SOL    HW296860  13.687  14.784   8.581
31655SOL     OW96861   7.668   8.544   2.653
31655SOL    HW196862   7.656   8.560   2.747
31655SOL    HW296863   7.585   8.508   2.624
31656SOL     OW96864   6.250   8.693   1.091
31656SOL    HW196865   6.340   8.666   1.076
31656SOL    HW296866   6.255   8.753   1.166
31657SOL     OW96867   9.896   9.696   0.612
31657SOL    HW196868   9.855   9.676   0.695
31657SOL    HW296869   9.858   9.634   0.550
31658SOL     OW96870  10.747  13.380  13.423
31658SOL    HW196871  10.815  13.434  13.463
31658SOL    HW296872  10.762  13.389  13.329
31659SOL     OW96873   9.386   9.734   7.638
31659SOL    HW196874   9.478   9.708   7.642
31659SOL    HW296875   9.374   9.766   7.549
31660SOL     OW96876  13.583  14.545   1.146
31660SOL    HW196877  13.502  14.570   1.100
31660SOL    HW296878  13.624  14.628   1.168
31661SOL     OW96879   9.029   6.408   0.234
31661SOL    HW196880   8.939   6.401   0.266
31661SOL    HW296881   9.027   6.369   0.147
31662SOL     OW96882   7.595   7.889   0.126
31662SOL    HW196883   7.609   7.799   0.094
31662SOL    HW296884   7.684   7.922   0.141
31663SOL     OW96885   9.171   5.238  11.070
31663SOL    HW196886   9.205   5.160  11.115
31663SOL    HW296887   9.080   5.244  11.097
31664SOL     OW96888   4.110   5.463   5.278
31664SOL    HW196889   4.169   5.534   5.254
31664SOL    HW296890   4.080   5.485   5.366
31665SOL     OW96891   8.830   3.632   5.060
31665SOL    HW196892   8.865   3.580   5.133
31665SOL    HW296893   8.869   3.719   5.072
31666SOL     OW96894   8.520   7.852  10.507
31666SOL    HW196895   8.471   7.933  10.522
31666SOL    HW296896   8.453   7.783  10.503
31667SOL     OW96897   5.854   5.438   9.484
31667SOL    HW196898   5.870   5.469   9.573
31667SOL    HW296899   5.881   5.347   9.485
31668SOL     OW96900   7.157  13.910  13.933
31668SOL    HW196901   7.162  13.925  14.027
31668SOL    HW296902   7.177  13.996  13.894
31669SOL     OW96903   0.467  12.253   5.073
31669SOL    HW196904   0.454  12.297   4.989
31669SOL    HW296905   0.380  12.224   5.098
31670SOL     OW96906   3.910  10.053   2.981
31670SOL    HW196907   3.967  10.076   3.054
31670SOL    HW296908   3.842   9.998   3.019
31671SOL     OW96909   0.166   4.303   3.618
31671SOL    HW196910   0.076   4.332   3.626
31671SOL    HW296911   0.176   4.236   3.686
31672SOL     OW96912   3.532   5.476   1.531
31672SOL    HW196913   3.548   5.388   1.497
31672SOL    HW296914   3.508   5.528   1.454
31673SOL     OW96915   9.935   3.171   3.688
31673SOL    HW196916   9.848   3.209   3.699
31673SOL    HW296917   9.979   3.230   3.627
31674SOL     OW96918  11.300  13.972   3.434
31674SOL    HW196919  11.375  13.928   3.475
31674SOL    HW296920  11.288  14.052   3.485
31675SOL     OW96921  11.710  10.542   6.146
31675SOL    HW196922  11.719  10.541   6.241
31675SOL    HW296923  11.642  10.609   6.130
31676SOL     OW96924   6.600   3.220  11.597
31676SOL    HW196925   6.559   3.303  11.572
31676SOL    HW296926   6.693   3.234  11.581
31677SOL     OW96927  11.604   7.782  14.475
31677SOL    HW196928  11.582   7.844  14.405
31677SOL    HW296929  11.699   7.782  14.478
31678SOL     OW96930   6.046   8.824   2.915
31678SOL    HW196931   6.079   8.747   2.869
31678SOL    HW296932   5.980   8.789   2.975
31679SOL     OW96933   6.367   6.205   3.793
31679SOL    HW196934   6.364   6.194   3.698
31679SOL    HW296935   6.385   6.298   3.806
31680SOL     OW96936   4.790   4.553   5.573
31680SOL    HW196937   4.808   4.460   5.556
31680SOL    HW296938   4.708   4.553   5.621
31681SOL     OW96939   1.116  13.960   4.993
31681SOL    HW196940   1.200  13.923   5.018
31681SOL    HW296941   1.073  13.890   4.943
31682SOL     OW96942   1.699  10.237   7.147
31682SOL    HW196943   1.610  10.271   7.143
31682SOL    HW296944   1.720  10.214   7.056
31683SOL     OW96945   5.600   8.254  14.067
31683SOL    HW196946   5.609   8.272  13.974
31683SOL    HW296947   5.669   8.191  14.086
31684SOL     OW96948   2.967   5.070   6.368
31684SOL    HW196949   3.048   5.091   6.415
31684SOL    HW296950   2.899   5.120   6.413
31685SOL     OW96951   6.867   3.138   7.924
31685SOL    HW196952   6.775   3.114   7.913
31685SOL    HW296953   6.916   3.072   7.875
31686SOL     OW96954   9.748   3.595   1.131
31686SOL    HW196955   9.716   3.559   1.214
31686SOL    HW296956   9.820   3.653   1.156
31687SOL     OW96957  11.352  10.957   0.958
31687SOL    HW196958  11.285  11.011   0.917
31687SOL    HW296959  11.311  10.925   1.039
31688SOL     OW96960  13.176  14.078  11.769
31688SOL    HW196961  13.149  14.164  11.737
31688SOL    HW296962  13.272  14.081  11.768
31689SOL     OW96963   7.310  12.570   3.913
31689SOL    HW196964   7.262  12.508   3.858
31689SOL    HW296965   7.351  12.515   3.980
31690SOL     OW96966   2.864  14.412   9.243
31690SOL    HW196967   2.844  14.489   9.190
31690SOL    HW296968   2.959  14.407   9.245
31691SOL     OW96969   4.015   8.584   3.698
31691SOL    HW196970   4.018   8.496   3.737
31691SOL    HW296971   4.014   8.643   3.773
31692SOL     OW96972   8.560  11.438  12.522
31692SOL    HW196973   8.494  11.502  12.550
31692SOL    HW296974   8.510  11.359  12.502
31693SOL     OW96975   0.447   3.249   3.073
31693SOL    HW196976   0.462   3.234   3.166
31693SOL    HW296977   0.504   3.186   3.029
31694SOL     OW96978  13.315  14.182  10.837
31694SOL    HW196979  13.409  14.197  10.832
31694SOL    HW296980  13.303  14.127  10.914
31695SOL     OW96981  14.216   9.103   7.182
31695SOL    HW196982  14.193   9.029   7.127
31695SOL    HW296983  14.147   9.106   7.248
31696SOL     OW96984   8.107   5.266  13.524
31696SOL    HW196985   8.031   5.320  13.542
31696SOL    HW296986   8.127   5.224  13.608
31697SOL     OW96987  11.644   2.725  10.805
31697SOL    HW196988  11.636   2.708  10.899
31697SOL    HW296989  11.559   2.698  10.769
31698SOL     OW96990  10.450   0.988   8.874
31698SOL    HW196991  10.398   0.995   8.794
31698SOL    HW296992  10.423   0.905   8.913
31699SOL     OW96993  12.304   8.828   3.746
31699SOL    HW196994  12.216   8.805   3.777
31699SOL    HW296995  12.288   8.889   3.674
31700SOL     OW96996   3.268  11.828   1.175
31700SOL    HW196997   3.355  11.857   1.147
31700SOL    HW296998   3.207  11.877   1.120
31701SOL     OW96999   0.986   9.019   6.238
31701SOL    HW197000   0.995   8.939   6.289
31701SOL    HW297001   0.933   8.994   6.162
31702SOL     OW97002  13.163   4.131  14.441
31702SOL    HW197003  13.176   4.146  14.534
31702SOL    HW297004  13.205   4.047  14.424
31703SOL     OW97005  12.622   7.783   6.401
31703SOL    HW197006  12.623   7.858   6.341
31703SOL    HW297007  12.687   7.806   6.468
31704SOL     OW97008   6.591   7.210   6.568
31704SOL    HW197009   6.551   7.125   6.552
31704SOL    HW297010   6.632   7.202   6.654
31705SOL     OW97011   4.378   0.131   7.197
31705SOL    HW197012   4.312   0.197   7.176
31705SOL    HW297013   4.329   0.048   7.199
31706SOL     OW97014   7.696  10.083   4.490
31706SOL    HW197015   7.734  10.164   4.525
31706SOL    HW297016   7.602  10.099   4.488
31707SOL     OW97017  11.689   2.080   1.868
31707SOL    HW197018  11.707   2.172   1.887
31707SOL    HW297019  11.767   2.033   1.897
31708SOL     OW97020  11.088  11.979   8.569
31708SOL    HW197021  11.125  11.909   8.622
31708SOL    HW297022  11.121  11.962   8.481
31709SOL     OW97023  14.668   6.885  12.799
31709SOL    HW197024  14.648   6.884  12.705
31709SOL    HW297025  14.647   6.797  12.829
31710SOL     OW97026   9.296   5.476   5.297
31710SOL    HW197027   9.347   5.462   5.377
31710SOL    HW297028   9.350   5.536   5.245
31711SOL     OW97029  14.432  13.954  13.706
31711SOL    HW197030  14.377  13.961  13.628
31711SOL    HW297031  14.401  14.024  13.763
31712SOL     OW97032   0.468  14.656   1.676
31712SOL    HW197033   0.414  14.589   1.634
31712SOL    HW297034   0.406  14.709   1.727
31713SOL     OW97035  14.431  13.526   7.849
31713SOL    HW197036  14.521  13.531   7.819
31713SOL    HW297037  14.432  13.564   7.937
31714SOL     OW97038   5.941  13.476   5.635
31714SOL    HW197039   5.928  13.456   5.727
31714SOL    HW297040   5.853  13.497   5.603
31715SOL     OW97041   2.221   6.047  14.826
31715SOL    HW197042   2.213   6.141  14.812
31715SOL    HW297043   2.145   6.010  14.782
31716SOL     OW97044  13.776   4.876   6.415
31716SOL    HW197045  13.816   4.962   6.402
31716SOL    HW297046  13.849   4.815   6.419
31717SOL     OW97047  14.799  11.378   7.234
31717SOL    HW197048   0.006  11.336   7.199
31717SOL    HW297049  14.832  11.453   7.283
31718SOL     OW97050   6.962   2.398   1.021
31718SOL    HW197051   6.971   2.492   1.005
31718SOL    HW297052   6.869   2.380   1.005
31719SOL     OW97053   8.489   4.650   2.928
31719SOL    HW197054   8.557   4.618   2.987
31719SOL    HW297055   8.452   4.726   2.974
31720SOL     OW97056   2.764   5.852   4.487
31720SOL    HW197057   2.847   5.818   4.519
31720SOL    HW297058   2.740   5.794   4.415
31721SOL     OW97059   4.266   6.184  13.895
31721SOL    HW197060   4.284   6.094  13.924
31721SOL    HW297061   4.189   6.176  13.839
31722SOL     OW97062  10.703   0.923   2.426
31722SOL    HW197063  10.721   0.919   2.520
31722SOL    HW297064  10.783   0.959   2.388
31723SOL     OW97065  10.956  11.514   4.412
31723SOL    HW197066  11.019  11.582   4.391
31723SOL    HW297067  10.986  11.437   4.363
31724SOL     OW97068   3.585   4.747   8.690
31724SOL    HW197069   3.559   4.839   8.676
31724SOL    HW297070   3.679   4.747   8.675
31725SOL     OW97071  13.706   6.984   2.188
31725SOL    HW197072  13.632   6.961   2.244
31725SOL    HW297073  13.782   6.944   2.232
31726SOL     OW97074   8.812   2.064  12.591
31726SOL    HW197075   8.759   2.076  12.512
31726SOL    HW297076   8.848   2.151  12.609
31727SOL     OW97077   1.466  11.183   4.706
31727SOL    HW197078   1.428  11.266   4.678
31727SOL    HW297079   1.445  11.121   4.636
31728SOL     OW97080  13.741   0.327   0.570
31728SOL    HW197081  13.780   0.240   0.559
31728SOL    HW297082  13.739   0.341   0.664
31729SOL     OW97083  13.908  13.429   3.407
31729SOL    HW197084  13.936  13.378   3.330
31729SOL    HW297085  13.814  13.439   3.396
31730SOL     OW97086   0.968   9.266   7.177
31730SOL    HW197087   1.016   9.183   7.175
31730SOL    HW297088   0.913   9.259   7.255
31731SOL     OW97089  11.017   6.748   7.454
31731SOL    HW197090  11.098   6.799   7.449
31731SOL    HW297091  11.008   6.726   7.546
31732SOL     OW97092   7.526   9.023  13.495
31732SOL    HW197093   7.588   9.091  13.519
31732SOL    HW297094   7.579   8.943  13.491
31733SOL     OW97095   9.189  14.603  11.688
31733SOL    HW197096   9.128  14.535  11.658
31733SOL    HW297097   9.189  14.668  11.619
31734SOL     OW97098   4.730  12.209   9.768
31734SOL    HW197099   4.686  12.189   9.851
31734SOL    HW297100   4.821  12.184   9.783
31735SOL     OW97101   3.595   7.163  12.043
31735SOL    HW197102   3.605   7.095  12.110
31735SOL    HW297103   3.648   7.236  12.076
31736SOL     OW97104   8.632   1.439   1.818
31736SOL    HW197105   8.628   1.426   1.723
31736SOL    HW297106   8.547   1.476   1.841
31737SOL     OW97107  11.130   0.393   5.599
31737SOL    HW197108  11.195   0.349   5.653
31737SOL    HW297109  11.051   0.340   5.609
31738SOL     OW97110   8.514   2.747  14.833
31738SOL    HW197111   8.549   2.836  14.834
31738SOL    HW297112   8.420   2.759  14.829
31739SOL     OW97113   3.916   5.554   3.636
31739SOL    HW197114   3.948   5.522   3.720
31739SOL    HW297115   3.869   5.634   3.657
31740SOL     OW97116   1.705  13.639   0.687
31740SOL    HW197117   1.736  13.643   0.596
31740SOL    HW297118   1.685  13.547   0.702
31741SOL     OW97119   9.342  13.316   4.892
31741SOL    HW197120   9.426  13.300   4.849
31741SOL    HW297121   9.365  13.355   4.977
31742SOL     OW97122   3.564   5.784   5.040
31742SOL    HW197123   3.481   5.753   5.078
31742SOL    HW297124   3.602   5.706   5.000
31743SOL     OW97125   7.041  13.416   6.518
31743SOL    HW197126   7.134  13.436   6.524
31743SOL    HW297127   7.001  13.464   6.591
31744SOL     OW97128   9.392   3.798   6.693
31744SOL    HW197129   9.420   3.769   6.780
31744SOL    HW297130   9.473   3.811   6.645
31745SOL     OW97131   2.686   7.238   7.892
31745SOL    HW197132   2.657   7.147   7.895
31745SOL    HW297133   2.779   7.232   7.868
31746SOL     OW97134  13.013   1.423   6.406
31746SOL    HW197135  13.046   1.333   6.405
31746SOL    HW297136  13.069   1.470   6.344
31747SOL     OW97137  13.229  12.041   6.411
31747SOL    HW197138  13.205  11.990   6.334
31747SOL    HW297139  13.313  12.080   6.389
31748SOL     OW97140  11.529   7.637   9.033
31748SOL    HW197141  11.501   7.621   9.123
31748SOL    HW297142  11.622   7.659   9.041
31749SOL     OW97143   1.385   4.503  10.676
31749SOL    HW197144   1.384   4.459  10.591
31749SOL    HW297145   1.470   4.479  10.715
31750SOL     OW97146   1.719  14.421   1.667
31750SOL    HW197147   1.790  14.465   1.621
31750SOL    HW297148   1.726  14.452   1.757
31751SOL     OW97149  14.544   9.108   3.514
31751SOL    HW197150  14.628   9.144   3.541
31751SOL    HW297151  14.557   9.083   3.422
31752SOL     OW97152  13.109  12.682  11.284
31752SOL    HW197153  13.055  12.746  11.239
31752SOL    HW297154  13.072  12.677  11.373
31753SOL     OW97155  12.895   0.333   6.246
31753SOL    HW197156  12.848   0.260   6.205
31753SOL    HW297157  12.908   0.395   6.174
31754SOL     OW97158   7.076   1.875   0.274
31754SOL    HW197159   6.994   1.920   0.253
31754SOL    HW297160   7.049   1.794   0.316
31755SOL     OW97161   8.158   7.658   5.766
31755SOL    HW197162   8.079   7.618   5.729
31755SOL    HW297163   8.198   7.589   5.819
31756SOL     OW97164  10.566   5.377   6.418
31756SOL    HW197165  10.562   5.343   6.507
31756SOL    HW297166  10.569   5.300   6.362
31757SOL     OW97167  11.495   2.290   2.164
31757SOL    HW197168  11.435   2.243   2.223
31757SOL    HW297169  11.449   2.290   2.080
31758SOL     OW97170   8.214  10.509  11.376
31758SOL    HW197171   8.215  10.473  11.465
31758SOL    HW297172   8.142  10.463  11.332
31759SOL     OW97173   7.932  12.660   0.587
31759SOL    HW197174   7.911  12.633   0.498
31759SOL    HW297175   8.026  12.676   0.586
31760SOL     OW97176  14.184   6.791   5.995
31760SOL    HW197177  14.206   6.841   6.073
31760SOL    HW297178  14.234   6.710   6.004
31761SOL     OW97179   8.485   7.109  14.739
31761SOL    HW197180   8.459   7.030  14.786
31761SOL    HW297181   8.566   7.084  14.693
31762SOL     OW97182   7.641   9.226   6.220
31762SOL    HW197183   7.724   9.213   6.173
31762SOL    HW297184   7.578   9.174   6.171
31763SOL     OW97185   4.912  11.055   7.878
31763SOL    HW197186   5.006  11.073   7.871
31763SOL    HW297187   4.891  11.005   7.800
31764SOL     OW97188  12.870   2.816   1.694
31764SOL    HW197189  12.877   2.826   1.599
31764SOL    HW297190  12.812   2.888   1.721
31765SOL     OW97191   9.534   7.304  11.750
31765SOL    HW197192   9.511   7.360  11.676
31765SOL    HW297193   9.519   7.358  11.828
31766SOL     OW97194  11.311   3.748   1.928
31766SOL    HW197195  11.354   3.789   2.003
31766SOL    HW297196  11.256   3.679   1.967
31767SOL     OW97197   1.975   0.672   8.350
31767SOL    HW197198   2.024   0.698   8.428
31767SOL    HW297199   1.917   0.746   8.332
31768SOL     OW97200  14.314   9.896   1.037
31768SOL    HW197201  14.285   9.888   1.128
31768SOL    HW297202  14.295   9.810   0.998
31769SOL     OW97203   5.656   2.277   2.344
31769SOL    HW197204   5.714   2.323   2.284
31769SOL    HW297205   5.602   2.345   2.384
31770SOL     OW97206   9.856   7.307  14.863
31770SOL    HW197207   9.841   7.221  14.823
31770SOL    HW297208   9.769   7.338   0.014
31771SOL     OW97209   1.292   3.617   9.815
31771SOL    HW197210   1.310   3.710   9.829
31771SOL    HW297211   1.276   3.609   9.721
31772SOL     OW97212   6.256   5.986   0.340
31772SOL    HW197213   6.270   6.077   0.369
31772SOL    HW297214   6.273   5.989   0.246
31773SOL     OW97215   8.588   7.859   3.932
31773SOL    HW197216   8.541   7.941   3.915
31773SOL    HW297217   8.674   7.888   3.963
31774SOL     OW97218  14.418   6.565   8.351
31774SOL    HW197219  14.478   6.491   8.357
31774SOL    HW297220  14.354   6.538   8.285
31775SOL     OW97221   2.071  10.175  10.798
31775SOL    HW197222   2.151  10.163  10.849
31775SOL    HW297223   2.016  10.231  10.853
31776SOL     OW97224  13.309   9.005  13.528
31776SOL    HW197225  13.389   8.983  13.575
31776SOL    HW297226  13.280   8.922  13.490
31777SOL     OW97227  11.096  11.043   8.300
31777SOL    HW197228  11.082  11.108   8.232
31777SOL    HW297229  11.133  10.968   8.255
31778SOL     OW97230  10.443   6.961   5.570
31778SOL    HW197231  10.494   6.982   5.492
31778SOL    HW297232  10.352   6.964   5.541
31779SOL     OW97233   3.123  12.811  14.678
31779SOL    HW197234   3.162  12.860  14.605
31779SOL    HW297235   3.103  12.725  14.641
31780SOL     OW97236  10.092   8.323  13.370
31780SOL    HW197237  10.066   8.242  13.326
31780SOL    HW297238  10.057   8.315  13.458
31781SOL     OW97239   6.893   9.098   7.116
31781SOL    HW197240   6.981   9.133   7.126
31781SOL    HW297241   6.881   9.039   7.191
31782SOL     OW97242  11.585   2.974   6.339
31782SOL    HW197243  11.490   2.959   6.345
31782SOL    HW297244  11.600   3.000   6.248
31783SOL     OW97245   6.440   4.301   5.738
31783SOL    HW197246   6.384   4.350   5.798
31783SOL    HW297247   6.379   4.262   5.675
31784SOL     OW97248  11.608   2.518  10.516
31784SOL    HW197249  11.655   2.438  10.539
31784SOL    HW297250  11.542   2.488  10.452
31785SOL     OW97251   4.934  13.485  12.888
31785SOL    HW197252   5.009  13.429  12.870
31785SOL    HW297253   4.914  13.527  12.804
31786SOL     OW97254   3.821   5.731   1.487
31786SOL    HW197255   3.833   5.636   1.475
31786SOL    HW297256   3.818   5.766   1.398
31787SOL     OW97257  11.694   0.372   4.566
31787SOL    HW197258  11.761   0.416   4.513
31787SOL    HW297259  11.719   0.390   4.656
31788SOL     OW97260   4.808   9.014  11.564
31788SOL    HW197261   4.844   9.084  11.510
31788SOL    HW297262   4.880   8.989  11.622
31789SOL     OW97263   9.525   1.270   4.836
31789SOL    HW197264   9.481   1.197   4.880
31789SOL    HW297265   9.462   1.299   4.770
31790SOL     OW97266   2.986  10.135   7.057
31790SOL    HW197267   2.899  10.127   7.017
31790SOL    HW297268   3.020  10.218   7.025
31791SOL     OW97269  14.378   2.078   9.448
31791SOL    HW197270  14.456   2.024   9.455
31791SOL    HW297271  14.332   2.045   9.370
31792SOL     OW97272   7.312  10.061   1.927
31792SOL    HW197273   7.320   9.991   1.861
31792SOL    HW297274   7.269  10.019   2.001
31793SOL     OW97275   8.122   6.801  11.493
31793SOL    HW197276   8.203   6.833  11.455
31793SOL    HW297277   8.060   6.872  11.482
31794SOL     OW97278  12.152   9.308   8.220
31794SOL    HW197279  12.069   9.307   8.173
31794SOL    HW297280  12.165   9.217   8.247
31795SOL     OW97281   0.649   2.922   1.495
31795SOL    HW197282   0.737   2.956   1.483
31795SOL    HW297283   0.650   2.837   1.450
31796SOL     OW97284   8.198  13.183   9.875
31796SOL    HW197285   8.111  13.144   9.867
31796SOL    HW297286   8.258  13.114   9.848
31797SOL     OW97287   1.260   1.401  11.593
31797SOL    HW197288   1.347   1.389  11.630
31797SOL    HW297289   1.274   1.450  11.512
31798SOL     OW97290  13.774  13.419   1.448
31798SOL    HW197291  13.856  13.374   1.466
31798SOL    HW297292  13.719  13.354   1.405
31799SOL     OW97293   5.590  14.349   1.072
31799SOL    HW197294   5.513  14.403   1.055
31799SOL    HW297295   5.561  14.287   1.139
31800SOL     OW97296   0.205   6.943   5.778
31800SOL    HW197297   0.294   6.946   5.742
31800SOL    HW297298   0.167   6.863   5.741
31801SOL     OW97299  11.976  10.642   1.612
31801SOL    HW197300  12.013  10.628   1.699
31801SOL    HW297301  12.048  10.622   1.551
31802SOL     OW97302  10.696   7.301   6.526
31802SOL    HW197303  10.622   7.274   6.472
31802SOL    HW297304  10.688   7.396   6.532
31803SOL     OW97305   5.001   6.345  14.276
31803SOL    HW197306   4.962   6.390  14.352
31803SOL    HW297307   4.985   6.404  14.202
31804SOL     OW97308  12.841   4.772   9.657
31804SOL    HW197309  12.776   4.711   9.691
31804SOL    HW297310  12.914   4.717   9.629
31805SOL     OW97311  13.912   3.100   2.649
31805SOL    HW197312  13.882   3.087   2.739
31805SOL    HW297313  13.909   3.013   2.610
31806SOL     OW97314   1.973   4.666   7.267
31806SOL    HW197315   2.010   4.586   7.229
31806SOL    HW297316   2.039   4.733   7.250
31807SOL     OW97317  14.265   9.680  14.662
31807SOL    HW197318  14.232   9.761  14.701
31807SOL    HW297319  14.359   9.694  14.654
31808SOL     OW97320  10.468  13.413   4.189
31808SOL    HW197321  10.395  13.444   4.135
31808SOL    HW297322  10.432  13.407   4.277
31809SOL     OW97323   7.027   2.830   9.074
31809SOL    HW197324   6.999   2.919   9.096
31809SOL    HW297325   7.119   2.827   9.103
31810SOL     OW97326   3.846   2.325   8.634
31810SOL    HW197327   3.846   2.268   8.710
31810SOL    HW297328   3.773   2.386   8.649
31811SOL     OW97329   0.706   1.982   1.801
31811SOL    HW197330   0.752   1.932   1.869
31811SOL    HW297331   0.674   1.916   1.739
31812SOL     OW97332   5.494   5.728   0.239
31812SOL    HW197333   5.511   5.817   0.208
31812SOL    HW297334   5.543   5.721   0.321
31813SOL     OW97335  11.051   4.880  14.124
31813SOL    HW197336  11.007   4.905  14.205
31813SOL    HW297337  11.020   4.791  14.106
31814SOL     OW97338   6.500   5.390   8.546
31814SOL    HW197339   6.452   5.315   8.511
31814SOL    HW297340   6.516   5.446   8.470
31815SOL     OW97341  10.703   2.113  12.137
31815SOL    HW197342  10.698   2.208  12.150
31815SOL    HW297343  10.751   2.081  12.212
31816SOL     OW97344   2.808   9.870  11.443
31816SOL    HW197345   2.759   9.900  11.520
31816SOL    HW297346   2.844   9.950  11.405
31817SOL     OW97347   0.611   8.773   0.584
31817SOL    HW197348   0.535   8.792   0.639
31817SOL    HW297349   0.583   8.701   0.528
31818SOL     OW97350   4.948   4.287   0.115
31818SOL    HW197351   4.937   4.198   0.080
31818SOL    HW297352   4.984   4.274   0.202
31819SOL     OW97353  13.671   2.542  11.160
31819SOL    HW197354  13.657   2.463  11.212
31819SOL    HW297355  13.711   2.510  11.079
31820SOL     OW97356  10.356   7.712  13.538
31820SOL    HW197357  10.292   7.758  13.593
31820SOL    HW297358  10.410   7.663  13.599
31821SOL     OW97359  10.069   5.126   2.470
31821SOL    HW197360  10.033   5.092   2.552
31821SOL    HW297361  10.050   5.220   2.473
31822SOL     OW97362  13.654   8.128   4.010
31822SOL    HW197363  13.594   8.199   3.989
31822SOL    HW297364  13.603   8.070   4.068
31823SOL     OW97365  10.194   6.029   2.225
31823SOL    HW197366  10.286   6.020   2.201
31823SOL    HW297367  10.177   6.123   2.219
31824SOL     OW97368   2.376   6.658   6.019
31824SOL    HW197369   2.368   6.638   5.925
31824SOL    HW297370   2.298   6.619   6.058
31825SOL     OW97371  11.429   2.323  10.069
31825SOL    HW197372  11.415   2.243  10.017
31825SOL    HW297373  11.450   2.390  10.005
31826SOL     OW97374   0.120   7.499   9.322
31826SOL    HW197375   0.054   7.568   9.331
31826SOL    HW297376   0.157   7.513   9.235
31827SOL     OW97377   0.344   8.771  14.447
31827SOL    HW197378   0.435   8.752  14.466
31827SOL    HW297379   0.295   8.736  14.522
31828SOL     OW97380  12.577   6.591   1.226
31828SOL    HW197381  12.496   6.591   1.176
31828SOL    HW297382  12.555   6.637   1.307
31829SOL     OW97383   0.347   6.647   3.999
31829SOL    HW197384   0.421   6.685   4.046
31829SOL    HW297385   0.354   6.553   4.014
31830SOL     OW97386   6.989  12.375  12.305
31830SOL    HW197387   7.034  12.382  12.221
31830SOL    HW297388   6.897  12.385  12.284
31831SOL     OW97389  10.950   3.604  13.866
31831SOL    HW197390  10.950   3.511  13.845
31831SOL    HW297391  10.862   3.634  13.842
31832SOL     OW97392   9.263   7.641  13.010
31832SOL    HW197393   9.310   7.605  13.086
31832SOL    HW297394   9.214   7.715  13.044
31833SOL     OW97395   2.949  10.161  12.528
31833SOL    HW197396   2.960  10.256  12.521
31833SOL    HW297397   2.991  10.126  12.450
31834SOL     OW97398   3.287   4.792   0.277
31834SOL    HW197399   3.215   4.742   0.239
31834SOL    HW297400   3.250   4.831   0.357
31835SOL     OW97401  10.582  13.098   0.189
31835SOL    HW197402  10.571  13.005   0.210
31835SOL    HW297403  10.575  13.142   0.273
31836SOL     OW97404   4.117   3.869  10.213
31836SOL    HW197405   4.114   3.962  10.189
31836SOL    HW297406   4.187   3.863  10.277
31837SOL     OW97407   9.647   1.559  14.334
31837SOL    HW197408   9.698   1.638  14.316
31837SOL    HW297409   9.674   1.532  14.422
31838SOL     OW97410   0.931  13.994   9.508
31838SOL    HW197411   0.883  14.043   9.441
31838SOL    HW297412   0.898  14.028   9.591
31839SOL     OW97413  13.472   1.435   9.601
31839SOL    HW197414  13.558   1.458   9.639
31839SOL    HW297415  13.420   1.515   9.612
31840SOL     OW97416   8.555  14.132   2.832
31840SOL    HW197417   8.572  14.155   2.923
31840SOL    HW297418   8.504  14.205   2.797
31841SOL     OW97419   3.636  10.788   1.041
31841SOL    HW197420   3.626  10.883   1.055
31841SOL    HW297421   3.728  10.771   1.060
31842SOL     OW97422  12.013  14.800   2.503
31842SOL    HW197423  12.088  14.743   2.520
31842SOL    HW297424  12.030  14.837   2.416
31843SOL     OW97425  13.329   6.675   9.277
31843SOL    HW197426  13.388   6.746   9.299
31843SOL    HW297427  13.258   6.717   9.228
31844SOL     OW97428  10.934   4.460  10.038
31844SOL    HW197429  10.952   4.552  10.017
31844SOL    HW297430  10.840   4.458  10.057
31845SOL     OW97431  13.539   0.817   0.454
31845SOL    HW197432  13.454   0.858   0.470
31845SOL    HW297433  13.601   0.890   0.458
31846SOL     OW97434   7.112  10.696  14.304
31846SOL    HW197435   7.177  10.752  14.347
31846SOL    HW297436   7.079  10.639  14.374
31847SOL     OW97437  14.193  12.771   2.686
31847SOL    HW197438  14.220  12.773   2.594
31847SOL    HW297439  14.275  12.787   2.734
31848SOL     OW97440   1.392  10.138   4.512
31848SOL    HW197441   1.385  10.045   4.532
31848SOL    HW297442   1.409  10.180   4.596
31849SOL     OW97443  12.495   9.983   3.091
31849SOL    HW197444  12.550   9.926   3.145
31849SOL    HW297445  12.430   9.923   3.052
31850SOL     OW97446  10.007  14.271   8.402
31850SOL    HW197447   9.915  14.247   8.412
31850SOL    HW297448  10.048  14.194   8.364
31851SOL     OW97449  12.793   3.883   8.259
31851SOL    HW197450  12.768   3.934   8.337
31851SOL    HW297451  12.734   3.914   8.190
31852SOL     OW97452  12.608  12.236  13.160
31852SOL    HW197453  12.541  12.190  13.109
31852SOL    HW297454  12.562  12.264  13.240
31853SOL     OW97455   2.521   9.905   4.445
31853SOL    HW197456   2.568   9.983   4.475
31853SOL    HW297457   2.584   9.834   4.454
31854SOL     OW97458   2.233   2.650   9.699
31854SOL    HW197459   2.188   2.698   9.768
31854SOL    HW297460   2.260   2.568   9.740
31855SOL     OW97461   2.710   7.476  10.262
31855SOL    HW197462   2.668   7.451  10.344
31855SOL    HW297463   2.746   7.395  10.227
31856SOL     OW97464  12.562   1.176  13.171
31856SOL    HW197465  12.608   1.251  13.208
31856SOL    HW297466  12.491   1.158  13.233
31857SOL     OW97467   7.919   8.374   6.578
31857SOL    HW197468   7.857   8.407   6.644
31857SOL    HW297469   7.893   8.283   6.565
31858SOL     OW97470   3.089  11.553   7.777
31858SOL    HW197471   3.096  11.601   7.860
31858SOL    HW297472   3.159  11.488   7.780
31859SOL     OW97473   7.317   6.255   0.475
31859SOL    HW197474   7.259   6.181   0.496
31859SOL    HW297475   7.367   6.224   0.400
31860SOL     OW97476   5.921  10.984   9.110
31860SOL    HW197477   5.963  11.057   9.154
31860SOL    HW297478   5.831  10.985   9.143
31861SOL     OW97479   5.500   5.781  10.366
31861SOL    HW197480   5.419   5.747  10.329
31861SOL    HW297481   5.473   5.826  10.446
31862SOL     OW97482   3.283  14.094   1.087
31862SOL    HW197483   3.220  14.085   1.158
31862SOL    HW297484   3.297  14.189   1.080
31863SOL     OW97485   7.050  13.682  11.320
31863SOL    HW197486   7.021  13.591  11.328
31863SOL    HW297487   6.983  13.733  11.366
31864SOL     OW97488  11.800  10.291  14.245
31864SOL    HW197489  11.762  10.208  14.275
31864SOL    HW297490  11.859  10.267  14.174
31865SOL     OW97491  13.725   7.515  11.712
31865SOL    HW197492  13.660   7.516  11.642
31865SOL    HW297493  13.704   7.436  11.763
31866SOL     OW97494   6.570  10.520   3.682
31866SOL    HW197495   6.489  10.542   3.729
31866SOL    HW297496   6.606  10.445   3.730
31867SOL     OW97497  11.149   5.701  14.078
31867SOL    HW197498  11.169   5.795  14.072
31867SOL    HW297499  11.185   5.664  13.998
31868SOL     OW97500  13.234  12.979   4.875
31868SOL    HW197501  13.170  12.981   4.803
31868SOL    HW297502  13.298  13.045   4.851
31869SOL     OW97503   0.262  10.807   0.295
31869SOL    HW197504   0.181  10.857   0.304
31869SOL    HW297505   0.328  10.872   0.271
31870SOL     OW97506   3.784   8.754   0.143
31870SOL    HW197507   3.823   8.719   0.223
31870SOL    HW297508   3.732   8.830   0.172
31871SOL     OW97509   3.941   0.173   6.045
31871SOL    HW197510   3.847   0.184   6.056
31871SOL    HW297511   3.975   0.167   6.134
31872SOL     OW97512  12.313  13.745   7.281
31872SOL    HW197513  12.287  13.694   7.204
31872SOL    HW297514  12.233  13.792   7.307
31873SOL     OW97515  13.454   7.233  12.673
31873SOL    HW197516  13.398   7.172  12.625
31873SOL    HW297517  13.531   7.243  12.617
31874SOL     OW97518   2.014   8.284   4.455
31874SOL    HW197519   1.966   8.304   4.535
31874SOL    HW297520   2.048   8.368   4.425
31875SOL     OW97521  13.818   6.325   7.603
31875SOL    HW197522  13.908   6.339   7.631
31875SOL    HW297523  13.783   6.260   7.663
31876SOL     OW97524   4.507   0.689   8.529
31876SOL    HW197525   4.506   0.736   8.445
31876SOL    HW297526   4.491   0.757   8.595
31877SOL     OW97527   5.249  13.166   8.670
31877SOL    HW197528   5.161  13.178   8.707
31877SOL    HW297529   5.266  13.247   8.622
31878SOL     OW97530   8.634  10.437  12.507
31878SOL    HW197531   8.699  10.368  12.496
31878SOL    HW297532   8.686  10.516  12.526
31879SOL     OW97533   3.416  14.549   3.265
31879SOL    HW197534   3.368  14.559   3.183
31879SOL    HW297535   3.352  14.513   3.327
31880SOL     OW97536   7.452   7.571   4.141
31880SOL    HW197537   7.547   7.584   4.146
31880SOL    HW297538   7.415   7.655   4.168
31881SOL     OW97539   3.488   6.136   9.555
31881SOL    HW197540   3.560   6.123   9.493
31881SOL    HW297541   3.411   6.148   9.500
31882SOL     OW97542   4.002  10.925  11.588
31882SOL    HW197543   4.043  11.010  11.574
31882SOL    HW297544   4.074  10.862  11.581
31883SOL     OW97545   5.427  10.472   4.033
31883SOL    HW197546   5.422  10.562   4.001
31883SOL    HW297547   5.517  10.462   4.063
31884SOL     OW97548   8.944  11.207   5.008
31884SOL    HW197549   8.941  11.284   4.951
31884SOL    HW297550   8.933  11.133   4.948
31885SOL     OW97551   6.908   9.836   2.460
31885SOL    HW197552   6.963   9.758   2.460
31885SOL    HW297553   6.861   9.832   2.377
31886SOL     OW97554   9.442   6.788  13.440
31886SOL    HW197555   9.392   6.799  13.359
31886SOL    HW297556   9.377   6.766  13.506
31887SOL     OW97557  10.492   5.869   2.531
31887SOL    HW197558  10.417   5.845   2.476
31887SOL    HW297559  10.471   5.957   2.563
31888SOL     OW97560  14.154   1.908   6.173
31888SOL    HW197561  14.061   1.892   6.193
31888SOL    HW297562  14.153   1.968   6.099
31889SOL     OW97563   1.539   4.706   6.680
31889SOL    HW197564   1.449   4.734   6.694
31889SOL    HW297565   1.585   4.732   6.760
31890SOL     OW97566  12.045   8.311  13.182
31890SOL    HW197567  12.126   8.261  13.171
31890SOL    HW297568  12.015   8.291  13.270
31891SOL     OW97569  14.720  11.080   3.183
31891SOL    HW197570  14.803  11.035   3.167
31891SOL    HW297571  14.653  11.015   3.163
31892SOL     OW97572   0.401   3.293   2.596
31892SOL    HW197573   0.453   3.250   2.665
31892SOL    HW297574   0.462   3.303   2.523
31893SOL     OW97575   7.473  11.680   7.849
31893SOL    HW197576   7.385  11.644   7.860
31893SOL    HW297577   7.504  11.643   7.767
31894SOL     OW97578   3.486  11.528   2.302
31894SOL    HW197579   3.549  11.573   2.358
31894SOL    HW297580   3.481  11.439   2.337
31895SOL     OW97581   4.705   9.775   6.942
31895SOL    HW197582   4.799   9.758   6.936
31895SOL    HW297583   4.668   9.694   6.977
31896SOL     OW97584   6.156   9.569  10.680
31896SOL    HW197585   6.127   9.584  10.590
31896SOL    HW297586   6.245   9.605  10.682
31897SOL     OW97587   8.870   2.607   4.833
31897SOL    HW197588   8.892   2.621   4.741
31897SOL    HW297589   8.788   2.654   4.845
31898SOL     OW97590   4.107   6.873   2.541
31898SOL    HW197591   4.039   6.914   2.487
31898SOL    HW297592   4.186   6.875   2.487
31899SOL     OW97593   1.678   1.040   7.041
31899SOL    HW197594   1.656   1.114   7.097
31899SOL    HW297595   1.622   1.051   6.964
31900SOL     OW97596   5.321   2.305   8.293
31900SOL    HW197597   5.381   2.379   8.303
31900SOL    HW297598   5.278   2.297   8.378
31901SOL     OW97599   7.163  13.692   4.850
31901SOL    HW197600   7.160  13.787   4.835
31901SOL    HW297601   7.190  13.683   4.941
31902SOL     OW97602   4.052   5.511   7.198
31902SOL    HW197603   4.123   5.486   7.139
31902SOL    HW297604   4.095   5.556   7.270
31903SOL     OW97605   3.079   6.898  14.703
31903SOL    HW197606   3.022   6.955  14.652
31903SOL    HW297607   3.108   6.830  14.642
31904SOL     OW97608  13.445   8.561   5.780
31904SOL    HW197609  13.540   8.546   5.778
31904SOL    HW297610  13.420   8.542   5.871
31905SOL     OW97611   0.629   3.727  13.987
31905SOL    HW197612   0.576   3.806  13.980
31905SOL    HW297613   0.589   3.678  14.059
31906SOL     OW97614   8.250  14.169  12.079
31906SOL    HW197615   8.277  14.260  12.064
31906SOL    HW297616   8.163  14.163  12.039
31907SOL     OW97617  13.555   9.422  12.137
31907SOL    HW197618  13.501   9.372  12.199
31907SOL    HW297619  13.495   9.443  12.065
31908SOL     OW97620  14.648   2.638  13.707
31908SOL    HW197621  14.585   2.618  13.638
31908SOL    HW297622  14.613   2.593  13.784
31909SOL     OW97623   6.238  10.931  13.721
31909SOL    HW197624   6.331  10.912  13.707
31909SOL    HW297625   6.237  10.995  13.792
31910SOL     OW97626   7.008   1.312  14.521
31910SOL    HW197627   6.986   1.385  14.580
31910SOL    HW297628   7.081   1.268  14.564
31911SOL     OW97629   5.789   9.921  11.356
31911SOL    HW197630   5.730   9.989  11.388
31911SOL    HW297631   5.842   9.898  11.433
31912SOL     OW97632   5.988   8.919   8.728
31912SOL    HW197633   6.038   8.838   8.720
31912SOL    HW297634   6.051   8.988   8.707
31913SOL     OW97635   2.010   3.832   0.903
31913SOL    HW197636   2.078   3.882   0.947
31913SOL    HW297637   2.006   3.749   0.951
31914SOL     OW97638   3.706   8.545   9.371
31914SOL    HW197639   3.631   8.591   9.408
31914SOL    HW297640   3.749   8.505   9.446
31915SOL     OW97641   4.732  12.375   6.403
31915SOL    HW197642   4.717  12.293   6.450
31915SOL    HW297643   4.708  12.356   6.313
31916SOL     OW97644  12.097  13.046   0.838
31916SOL    HW197645  12.104  13.076   0.747
31916SOL    HW297646  12.042  12.968   0.833
31917SOL     OW97647   0.188   3.049  14.724
31917SOL    HW197648   0.284   3.058  14.729
31917SOL    HW297649   0.175   2.968  14.675
31918SOL     OW97650  13.292   2.986   3.168
31918SOL    HW197651  13.220   2.924   3.175
31918SOL    HW297652  13.366   2.933   3.138
31919SOL     OW97653  10.072   8.004   5.444
31919SOL    HW197654   9.982   8.015   5.413
31919SOL    HW297655  10.120   8.074   5.401
31920SOL     OW97656   1.238   3.909   6.747
31920SOL    HW197657   1.179   3.979   6.773
31920SOL    HW297658   1.291   3.892   6.825
31921SOL     OW97659  11.268   6.980  10.087
31921SOL    HW197660  11.345   6.959  10.140
31921SOL    HW297661  11.285   7.069  10.056
31922SOL     OW97662   0.222   1.840  11.549
31922SOL    HW197663   0.154   1.903  11.574
31922SOL    HW297664   0.303   1.878  11.583
31923SOL     OW97665  11.293   2.245   4.626
31923SOL    HW197666  11.351   2.213   4.695
31923SOL    HW297667  11.221   2.183   4.625
31924SOL     OW97668  13.973   2.484   6.253
31924SOL    HW197669  13.960   2.508   6.345
31924SOL    HW297670  13.972   2.388   6.253
31925SOL     OW97671   3.293   9.436   9.968
31925SOL    HW197672   3.249   9.480   9.895
31925SOL    HW297673   3.221   9.397  10.018
31926SOL     OW97674   1.552  10.037   4.297
31926SOL    HW197675   1.532  10.030   4.204
31926SOL    HW297676   1.471  10.068   4.338
31927SOL     OW97677   1.178  13.265   6.540
31927SOL    HW197678   1.169  13.297   6.451
31927SOL    HW297679   1.214  13.176   6.530
31928SOL     OW97680   2.258   9.622   6.885
31928SOL    HW197681   2.332   9.566   6.910
31928SOL    HW297682   2.232   9.665   6.966
31929SOL     OW97683   3.369   4.627  13.626
31929SOL    HW197684   3.386   4.604  13.535
31929SOL    HW297685   3.415   4.560  13.677
31930SOL     OW97686   0.194  13.671  14.704
31930SOL    HW197687   0.171  13.763  14.688
31930SOL    HW297688   0.255  13.649  14.633
31931SOL     OW97689  14.090  12.261   2.346
31931SOL    HW197690  14.151  12.191   2.323
31931SOL    HW297691  14.146  12.331   2.381
31932SOL     OW97692   1.000   1.083   7.203
31932SOL    HW197693   1.055   1.026   7.257
31932SOL    HW297694   0.911   1.067   7.234
31933SOL     OW97695   6.699   6.016  11.134
31933SOL    HW197696   6.678   5.972  11.051
31933SOL    HW297697   6.616   6.019  11.181
31934SOL     OW97698   3.297   6.863  14.094
31934SOL    HW197699   3.224   6.861  14.032
31934SOL    HW297700   3.333   6.951  14.086
31935SOL     OW97701   8.613   9.486  10.778
31935SOL    HW197702   8.526   9.523  10.763
31935SOL    HW297703   8.672   9.561  10.774
31936SOL     OW97704  11.831   9.638   8.685
31936SOL    HW197705  11.874   9.706   8.738
31936SOL    HW297706  11.740   9.638   8.716
31937SOL     OW97707   5.553  14.753   6.411
31937SOL    HW197708   5.586  14.668   6.383
31937SOL    HW297709   5.631  14.799   6.443
31938SOL     OW97710   6.972   7.458  11.831
31938SOL    HW197711   6.933   7.371  11.826
31938SOL    HW297712   7.017   7.459  11.916
31939SOL     OW97713  10.498   3.370   6.972
31939SOL    HW197714  10.433   3.302   6.989
31939SOL    HW297715  10.508   3.371   6.877
31940SOL     OW97716   1.529   2.457  13.742
31940SOL    HW197717   1.515   2.500  13.826
31940SOL    HW297718   1.618   2.424  13.745
31941SOL     OW97719   3.197  12.301   3.317
31941SOL    HW197720   3.209  12.396   3.315
31941SOL    HW297721   3.179  12.277   3.226
31942SOL     OW97722   3.616  12.808   8.467
31942SOL    HW197723   3.658  12.741   8.522
31942SOL    HW297724   3.523  12.784   8.468
31943SOL     OW97725   1.868   1.798   4.689
31943SOL    HW197726   1.852   1.801   4.595
31943SOL    HW297727   1.959   1.826   4.699
31944SOL     OW97728   0.153  11.397  14.234
31944SOL    HW197729   0.104  11.472  14.200
31944SOL    HW297730   0.245  11.423  14.228
31945SOL     OW97731  10.179   5.709  11.552
31945SOL    HW197732  10.146   5.739  11.467
31945SOL    HW297733  10.200   5.617  11.538
31946SOL     OW97734   1.733   0.372   6.086
31946SOL    HW197735   1.779   0.412   6.013
31946SOL    HW297736   1.658   0.429   6.101
31947SOL     OW97737  11.150   0.619   9.741
31947SOL    HW197738  11.165   0.564   9.664
31947SOL    HW297739  11.228   0.605   9.795
31948SOL     OW97740   2.660   6.800   7.227
31948SOL    HW197741   2.686   6.733   7.290
31948SOL    HW297742   2.623   6.752   7.154
31949SOL     OW97743   8.314   2.468   4.475
31949SOL    HW197744   8.357   2.440   4.394
31949SOL    HW297745   8.225   2.490   4.448
31950SOL     OW97746   7.060   0.395   0.383
31950SOL    HW197747   7.132   0.372   0.324
31950SOL    HW297748   6.998   0.442   0.328
31951SOL     OW97749   1.185   1.654  11.766
31951SOL    HW197750   1.187   1.605  11.684
31951SOL    HW297751   1.270   1.635  11.807
31952SOL     OW97752   8.667  13.130  13.682
31952SOL    HW197753   8.718  13.200  13.722
31952SOL    HW297754   8.732  13.064  13.657
31953SOL     OW97755  13.904   7.406  14.018
31953SOL    HW197756  13.868   7.344  14.081
31953SOL    HW297757  13.999   7.396  14.027
31954SOL     OW97758  14.661   8.710   9.826
31954SOL    HW197759  14.664   8.632   9.770
31954SOL    HW297760  14.729   8.767   9.790
31955SOL     OW97761   1.865   3.345  11.434
31955SOL    HW197762   1.955   3.375  11.444
31955SOL    HW297763   1.813   3.425  11.428
31956SOL     OW97764   5.795   8.740   0.387
31956SOL    HW197765   5.842   8.665   0.422
31956SOL    HW297766   5.743   8.705   0.315
31957SOL     OW97767   6.729   7.310  12.173
31957SOL    HW197768   6.700   7.271  12.091
31957SOL    HW297769   6.824   7.320  12.163
31958SOL     OW97770  14.350  10.744   2.529
31958SOL    HW197771  14.424  10.803   2.543
31958SOL    HW297772  14.383  10.658   2.556
31959SOL     OW97773   6.897  13.090  14.337
31959SOL    HW197774   6.992  13.094  14.323
31959SOL    HW297775   6.885  13.115  14.429
31960SOL     OW97776   5.726   8.038   6.614
31960SOL    HW197777   5.790   8.050   6.544
31960SOL    HW297778   5.739   8.114   6.671
31961SOL     OW97779  13.125   4.108   7.134
31961SOL    HW197780  13.215   4.141   7.132
31961SOL    HW297781  13.072   4.185   7.113
31962SOL     OW97782   7.506  12.415  13.267
31962SOL    HW197783   7.411  12.411  13.260
31962SOL    HW297784   7.536  12.441  13.179
31963SOL     OW97785   4.096  11.168  11.601
31963SOL    HW197786   4.191  11.177  11.592
31963SOL    HW297787   4.060  11.228  11.535
31964SOL     OW97788   8.036   2.539   4.104
31964SOL    HW197789   8.066   2.593   4.032
31964SOL    HW297790   7.943   2.561   4.113
31965SOL     OW97791   6.366   8.044  12.762
31965SOL    HW197792   6.392   8.123  12.810
31965SOL    HW297793   6.280   8.065  12.727
31966SOL     OW97794   4.610  10.702   4.867
31966SOL    HW197795   4.538  10.754   4.903
31966SOL    HW297796   4.568  10.625   4.830
31967SOL     OW97797   5.590   7.801  10.443
31967SOL    HW197798   5.525   7.737  10.415
31967SOL    HW297799   5.639   7.821  10.364
31968SOL     OW97800   6.179   8.729   2.397
31968SOL    HW197801   6.200   8.792   2.466
31968SOL    HW297802   6.205   8.644   2.432
31969SOL     OW97803   8.099  12.667   2.057
31969SOL    HW197804   8.148  12.749   2.048
31969SOL    HW297805   8.100  12.650   2.151
31970SOL     OW97806   1.650   1.372   3.485
31970SOL    HW197807   1.731   1.407   3.521
31970SOL    HW297808   1.630   1.429   3.411
31971SOL     OW97809   7.016  13.940  11.820
31971SOL    HW197810   7.007  13.910  11.911
31971SOL    HW297811   6.991  13.864  11.767
31972SOL     OW97812  13.684  14.412  12.960
31972SOL    HW197813  13.680  14.495  12.912
31972SOL    HW297814  13.624  14.425  13.034
31973SOL     OW97815   6.281   0.343   1.607
31973SOL    HW197816   6.332   0.315   1.531
31973SOL    HW297817   6.194   0.362   1.572
31974SOL     OW97818   9.904   0.840  10.719
31974SOL    HW197819   9.848   0.872  10.790
31974SOL    HW297820   9.977   0.902  10.715
31975SOL     OW97821  13.727  13.681   4.444
31975SOL    HW197822  13.807  13.629   4.444
31975SOL    HW297823  13.751  13.763   4.488
31976SOL     OW97824   1.920  12.551   8.414
31976SOL    HW197825   1.968  12.629   8.387
31976SOL    HW297826   1.958  12.526   8.498
31977SOL     OW97827   7.759   8.856  12.054
31977SOL    HW197828   7.680   8.890  12.011
31977SOL    HW297829   7.826   8.923  12.038
31978SOL     OW97830  14.081  14.017   8.985
31978SOL    HW197831  14.134  14.059   8.917
31978SOL    HW297832  14.002  13.988   8.939
31979SOL     OW97833   2.143  11.301   5.336
31979SOL    HW197834   2.168  11.328   5.424
31979SOL    HW297835   2.056  11.264   5.346
31980SOL     OW97836  11.430   4.158   7.797
31980SOL    HW197837  11.389   4.178   7.881
31980SOL    HW297838  11.516   4.123   7.820
31981SOL     OW97839   7.004  10.554  11.113
31981SOL    HW197840   6.990  10.484  11.049
31981SOL    HW297841   7.086  10.595  11.085
31982SOL     OW97842   9.597   7.800   1.873
31982SOL    HW197843   9.559   7.772   1.791
31982SOL    HW297844   9.683   7.836   1.849
31983SOL     OW97845  12.261   4.302   0.300
31983SOL    HW197846  12.188   4.274   0.246
31983SOL    HW297847  12.284   4.388   0.266
31984SOL     OW97848   8.431   2.513   3.964
31984SOL    HW197849   8.474   2.597   3.976
31984SOL    HW297850   8.438   2.469   4.049
31985SOL     OW97851  14.759   5.503   9.086
31985SOL    HW197852  14.802   5.568   9.030
31985SOL    HW297853  14.829   5.472   9.144
31986SOL     OW97854   2.812   3.023  14.747
31986SOL    HW197855   2.764   2.963  14.689
31986SOL    HW297856   2.749   3.044  14.816
31987SOL     OW97857  14.837   1.000   8.678
31987SOL    HW197858   0.050   0.980   8.640
31987SOL    HW297859  14.779   1.012   8.603
31988SOL     OW97860   1.484   0.169  12.568
31988SOL    HW197861   1.418   0.191  12.502
31988SOL    HW297862   1.454   0.213  12.648
31989SOL     OW97863  12.256   0.222  12.994
31989SOL    HW197864  12.349   0.234  12.972
31989SOL    HW297865  12.243   0.127  12.990
31990SOL     OW97866   0.334   1.499   0.556
31990SOL    HW197867   0.250   1.499   0.602
31990SOL    HW297868   0.390   1.443   0.610
31991SOL     OW97869  12.651   2.657  10.360
31991SOL    HW197870  12.657   2.561  10.356
31991SOL    HW297871  12.741   2.686  10.373
31992SOL     OW97872  10.694  10.547   8.936
31992SOL    HW197873  10.728  10.464   8.903
31992SOL    HW297874  10.716  10.548   9.029
31993SOL     OW97875   1.409  14.678   5.573
31993SOL    HW197876   1.466  14.728   5.632
31993SOL    HW297877   1.428  14.586   5.594
31994SOL     OW97878   1.422   2.158  10.114
31994SOL    HW197879   1.376   2.093  10.167
31994SOL    HW297880   1.355   2.191  10.054
31995SOL     OW97881   5.783   9.060  12.844
31995SOL    HW197882   5.873   9.067  12.815
31995SOL    HW297883   5.750   8.979  12.804
31996SOL     OW97884   7.057   9.441  10.001
31996SOL    HW197885   7.048   9.349  10.025
31996SOL    HW297886   7.012   9.489  10.071
31997SOL     OW97887  11.742  11.954   0.093
31997SOL    HW197888  11.826  11.913   0.109
31997SOL    HW297889  11.729  11.949  14.871
31998SOL     OW97890   4.267  13.773  14.737
31998SOL    HW197891   4.314  13.729  14.666
31998SOL    HW297892   4.321  13.849  14.759
31999SOL     OW97893  12.052  11.358   9.771
31999SOL    HW197894  11.988  11.411   9.724
31999SOL    HW297895  12.001  11.317   9.841
32000SOL     OW97896   5.989   5.505   0.469
32000SOL    HW197897   5.949   5.560   0.536
32000SOL    HW297898   5.916   5.462   0.426
32001SOL     OW97899   1.555   7.111  13.523
32001SOL    HW197900   1.476   7.063  13.548
32001SOL    HW297901   1.526   7.202  13.519
32002SOL     OW97902   5.995  13.845   0.207
32002SOL    HW197903   5.931  13.858   0.137
32002SOL    HW297904   6.023  13.933   0.231
32003SOL     OW97905   3.702   3.951   7.092
32003SOL    HW197906   3.776   3.962   7.033
32003SOL    HW297907   3.732   3.890   7.159
32004SOL     OW97908   3.598   0.891   8.908
32004SOL    HW197909   3.623   0.891   8.815
32004SOL    HW297910   3.513   0.936   8.910
32005SOL     OW97911  13.265  10.078   5.505
32005SOL    HW197912  13.177  10.086   5.469
32005SOL    HW297913  13.266  10.136   5.582
32006SOL     OW97914   3.884  11.707   9.186
32006SOL    HW197915   3.805  11.724   9.134
32006SOL    HW297916   3.949  11.768   9.150
32007SOL     OW97917   4.958  13.709  11.073
32007SOL    HW197918   5.032  13.655  11.103
32007SOL    HW297919   4.895  13.705  11.145
32008SOL     OW97920   3.890   6.890   6.254
32008SOL    HW197921   3.891   6.811   6.199
32008SOL    HW297922   3.845   6.955   6.201
32009SOL     OW97923   0.357   1.821   7.039
32009SOL    HW197924   0.367   1.908   7.001
32009SOL    HW297925   0.379   1.761   6.969
32010SOL     OW97926   6.279   2.504  12.752
32010SOL    HW197927   6.210   2.511  12.818
32010SOL    HW297928   6.281   2.411  12.729
32011SOL     OW97929  11.407   2.601   2.742
32011SOL    HW197930  11.347   2.527   2.741
32011SOL    HW297931  11.366   2.665   2.800
32012SOL     OW97932   5.605  14.843   4.133
32012SOL    HW197933   5.634  14.803   4.215
32012SOL    HW297934   5.531  14.788   4.105
32013SOL     OW97935   9.079  13.064  14.372
32013SOL    HW197936   9.050  13.031  14.457
32013SOL    HW297937   9.174  13.064  14.378
32014SOL     OW97938  13.337  13.736  11.359
32014SOL    HW197939  13.276  13.698  11.296
32014SOL    HW297940  13.283  13.796  11.411
32015SOL     OW97941  12.693   3.095  13.952
32015SOL    HW197942  12.743   3.060  14.025
32015SOL    HW297943  12.621   3.143  13.993
32016SOL     OW97944   1.864   7.614   3.286
32016SOL    HW197945   1.945   7.571   3.315
32016SOL    HW297946   1.834   7.662   3.363
32017SOL     OW97947   3.553   8.436   5.603
32017SOL    HW197948   3.558   8.496   5.528
32017SOL    HW297949   3.520   8.354   5.565
32018SOL     OW97950  11.830  14.625  14.202
32018SOL    HW197951  11.913  14.607  14.247
32018SOL    HW297952  11.780  14.677  14.265
32019SOL     OW97953   6.844   2.801  14.450
32019SOL    HW197954   6.799   2.834  14.372
32019SOL    HW297955   6.928   2.769  14.417
32020SOL     OW97956  11.985   6.058   7.620
32020SOL    HW197957  11.913   6.109   7.657
32020SOL    HW297958  12.049   6.054   7.691
32021SOL     OW97959   7.455   6.652   7.747
32021SOL    HW197960   7.364   6.650   7.717
32021SOL    HW297961   7.486   6.563   7.733
32022SOL     OW97962   7.881   8.945  10.644
32022SOL    HW197963   7.807   8.890  10.618
32022SOL    HW297964   7.858   8.975  10.732
32023SOL     OW97965  10.201   6.826   9.595
32023SOL    HW197966  10.245   6.752   9.637
32023SOL    HW297967  10.152   6.786   9.523
32024SOL     OW97968   1.580   3.830   4.073
32024SOL    HW197969   1.644   3.760   4.065
32024SOL    HW297970   1.605   3.878   4.153
32025SOL     OW97971   9.073  10.867   5.552
32025SOL    HW197972   9.113  10.844   5.637
32025SOL    HW297973   9.109  10.953   5.531
32026SOL     OW97974  10.423   1.295   6.269
32026SOL    HW197975  10.453   1.297   6.359
32026SOL    HW297976  10.424   1.202   6.245
32027SOL     OW97977   8.153   4.294  10.196
32027SOL    HW197978   8.235   4.337  10.222
32027SOL    HW297979   8.151   4.214  10.250
32028SOL     OW97980   9.338   0.482   5.840
32028SOL    HW197981   9.420   0.433   5.852
32028SOL    HW297982   9.284   0.454   5.914
32029SOL     OW97983  10.755   7.618  14.013
32029SOL    HW197984  10.721   7.583  13.931
32029SOL    HW297985  10.740   7.712  14.007
32030SOL     OW97986  12.651  12.888   5.271
32030SOL    HW197987  12.594  12.814   5.249
32030SOL    HW297988  12.594  12.965   5.261
32031SOL     OW97989   8.689   0.137   5.718
32031SOL    HW197990   8.643   0.121   5.801
32031SOL    HW297991   8.685   0.232   5.707
32032SOL     OW97992   7.502   7.725  13.278
32032SOL    HW197993   7.578   7.692  13.327
32032SOL    HW297994   7.518   7.819  13.270
32033SOL     OW97995  13.901   0.021   7.278
32033SOL    HW197996  13.980  14.857   7.237
32033SOL    HW297997  13.838  14.821   7.276
32034SOL     OW97998   2.125  13.253   8.117
32034SOL    HW197999   2.123  13.327   8.178
32034SOL    HW298000   2.034  13.242   8.091
32035SOL     OW98001   0.748  12.810   1.053
32035SOL    HW198002   0.716  12.901   1.057
32035SOL    HW298003   0.718  12.779   0.967
32036SOL     OW98004   2.141  11.255  14.668
32036SOL    HW198005   2.228  11.256  14.707
32036SOL    HW298006   2.136  11.336  14.618
32037SOL     OW98007   5.636   4.161  12.661
32037SOL    HW198008   5.669   4.077  12.629
32037SOL    HW298009   5.692   4.227  12.620
32038SOL     OW98010   2.574   1.066   9.049
32038SOL    HW198011   2.485   1.064   9.014
32038SOL    HW298012   2.629   1.034   8.978
32039SOL     OW98013  14.649  10.357   3.254
32039SOL    HW198014  14.667  10.386   3.343
32039SOL    HW298015  14.619  10.437   3.209
32040SOL     OW98016  12.174  12.946   3.246
32040SOL    HW198017  12.214  13.032   3.232
32040SOL    HW298018  12.233  12.902   3.308
32041SOL     OW98019   0.984   5.876  13.658
32041SOL    HW198020   0.916   5.939  13.679
32041SOL    HW298021   1.065   5.917  13.689
32042SOL     OW98022   5.727  12.673   9.131
32042SOL    HW198023   5.657  12.623   9.088
32042SOL    HW298024   5.805  12.618   9.122
32043SOL     OW98025   5.010   4.282   4.277
32043SOL    HW198026   4.937   4.220   4.277
32043SOL    HW298027   4.973   4.361   4.239
32044SOL     OW98028   2.409   3.931  13.605
32044SOL    HW198029   2.465   3.953  13.679
32044SOL    HW298030   2.351   3.863  13.639
32045SOL     OW98031   4.109  10.000  13.386
32045SOL    HW198032   4.204  10.014  13.377
32045SOL    HW298033   4.098   9.905  13.380
32046SOL     OW98034   8.747   0.824   8.927
32046SOL    HW198035   8.754   0.901   8.983
32046SOL    HW298036   8.831   0.779   8.937
32047SOL     OW98037   1.346  13.742   7.490
32047SOL    HW198038   1.342  13.647   7.474
32047SOL    HW298039   1.407  13.774   7.424
32048SOL     OW98040   4.223   4.743   3.923
32048SOL    HW198041   4.240   4.801   3.849
32048SOL    HW298042   4.310   4.725   3.959
32049SOL     OW98043   8.401   1.826   8.234
32049SOL    HW198044   8.439   1.859   8.153
32049SOL    HW298045   8.335   1.763   8.206
32050SOL     OW98046  11.872   2.161   6.319
32050SOL    HW198047  11.916   2.098   6.261
32050SOL    HW298048  11.943   2.209   6.361
32051SOL     OW98049  12.566  13.315  11.663
32051SOL    HW198050  12.543  13.400  11.701
32051SOL    HW298051  12.596  13.263  11.738
32052SOL     OW98052   5.549   8.693  11.054
32052SOL    HW198053   5.496   8.642  10.993
32052SOL    HW298054   5.619   8.634  11.080
32053SOL     OW98055   2.278   3.900   5.886
32053SOL    HW198056   2.333   3.910   5.809
32053SOL    HW298057   2.274   3.805   5.900
32054SOL     OW98058   6.223  12.237   8.967
32054SOL    HW198059   6.298  12.254   8.910
32054SOL    HW298060   6.196  12.148   8.944
32055SOL     OW98061  10.472   7.205   4.541
32055SOL    HW198062  10.428   7.192   4.625
32055SOL    HW298063  10.551   7.150   4.547
32056SOL     OW98064   1.416  11.228   1.580
32056SOL    HW198065   1.458  11.310   1.552
32056SOL    HW298066   1.430  11.168   1.507
32057SOL     OW98067   3.758   0.160  10.073
32057SOL    HW198068   3.741   0.245  10.032
32057SOL    HW298069   3.780   0.102  10.001
32058SOL     OW98070   6.828  10.944  11.643
32058SOL    HW198071   6.914  10.979  11.619
32058SOL    HW298072   6.766  11.009  11.613
32059SOL     OW98073  12.572   8.852   8.474
32059SOL    HW198074  12.534   8.903   8.546
32059SOL    HW298075  12.511   8.865   8.401
32060SOL     OW98076   3.307   1.697   0.928
32060SOL    HW198077   3.326   1.622   0.985
32060SOL    HW298078   3.392   1.722   0.892
32061SOL     OW98079  11.395   1.963   7.536
32061SOL    HW198080  11.424   1.872   7.542
32061SOL    HW298081  11.424   1.992   7.449
32062SOL     OW98082   1.736   9.694   6.743
32062SOL    HW198083   1.782   9.680   6.660
32062SOL    HW298084   1.689   9.612   6.758
32063SOL     OW98085  12.139   8.136   3.513
32063SOL    HW198086  12.056   8.091   3.497
32063SOL    HW298087  12.166   8.169   3.427
32064SOL     OW98088   8.568  11.573   9.176
32064SOL    HW198089   8.603  11.489   9.148
32064SOL    HW298090   8.489  11.551   9.226
32065SOL     OW98091   9.744  13.769   8.012
32065SOL    HW198092   9.757  13.819   7.931
32065SOL    HW298093   9.669  13.811   8.054
32066SOL     OW98094  14.472  11.215   9.081
32066SOL    HW198095  14.484  11.176   8.995
32066SOL    HW298096  14.411  11.288   9.067
32067SOL     OW98097  12.434  10.349   8.061
32067SOL    HW198098  12.391  10.397   8.131
32067SOL    HW298099  12.465  10.268   8.102
32068SOL     OW98100   0.997   2.221   6.376
32068SOL    HW198101   0.947   2.240   6.297
32068SOL    HW298102   0.942   2.160   6.425
32069SOL     OW98103   5.537   0.845  12.220
32069SOL    HW198104   5.459   0.812  12.265
32069SOL    HW298105   5.527   0.815  12.130
32070SOL     OW98106   9.563   4.569  12.608
32070SOL    HW198107   9.534   4.542  12.695
32070SOL    HW298108   9.610   4.651  12.623
32071SOL     OW98109  13.301   1.211   8.359
32071SOL    HW198110  13.391   1.204   8.324
32071SOL    HW298111  13.245   1.191   8.284
32072SOL     OW98112   3.875   1.107   9.816
32072SOL    HW198113   3.860   1.201   9.808
32072SOL    HW298114   3.894   1.078   9.726
32073SOL     OW98115   0.638   4.889   2.861
32073SOL    HW198116   0.644   4.957   2.794
32073SOL    HW298117   0.719   4.840   2.853
32074SOL     OW98118   9.467   2.401  13.781
32074SOL    HW198119   9.468   2.487  13.739
32074SOL    HW298120   9.555   2.367  13.768
32075SOL     OW98121   1.115  14.022   8.719
32075SOL    HW198122   1.135  13.929   8.722
32075SOL    HW298123   1.023  14.028   8.747
32076SOL     OW98124   5.258   1.011   4.863
32076SOL    HW198125   5.299   0.943   4.809
32076SOL    HW298126   5.332   1.056   4.905
32077SOL     OW98127   5.894   6.503   4.407
32077SOL    HW198128   5.962   6.455   4.358
32077SOL    HW298129   5.812   6.471   4.370
32078SOL     OW98130   7.290  13.428   1.852
32078SOL    HW198131   7.228  13.446   1.922
32078SOL    HW298132   7.369  13.475   1.877
32079SOL     OW98133  11.787   4.951   6.979
32079SOL    HW198134  11.723   4.883   6.960
32079SOL    HW298135  11.750   4.999   7.053
32080SOL     OW98136   0.281   6.848   1.487
32080SOL    HW198137   0.309   6.805   1.568
32080SOL    HW298138   0.291   6.781   1.420
32081SOL     OW98139  11.625  14.450   5.663
32081SOL    HW198140  11.577  14.529   5.687
32081SOL    HW298141  11.700  14.448   5.722
32082SOL     OW98142   8.003   6.749  12.837
32082SOL    HW198143   7.938   6.682  12.813
32082SOL    HW298144   7.954   6.811  12.891
32083SOL     OW98145  10.099   2.435   3.398
32083SOL    HW198146  10.111   2.348   3.436
32083SOL    HW298147  10.176   2.447   3.341
32084SOL     OW98148   0.100   4.514   3.243
32084SOL    HW198149   0.025   4.469   3.283
32084SOL    HW298150   0.117   4.464   3.163
32085SOL     OW98151   5.647   0.286   6.508
32085SOL    HW198152   5.572   0.284   6.449
32085SOL    HW298153   5.661   0.379   6.525
32086SOL     OW98154   6.044  14.770   9.389
32086SOL    HW198155   5.999  14.806   9.313
32086SOL    HW298156   6.115  14.717   9.352
32087SOL     OW98157   7.563   9.977   9.423
32087SOL    HW198158   7.552   9.883   9.440
32087SOL    HW298159   7.474  10.012   9.428
32088SOL     OW98160  13.870  13.822   1.884
32088SOL    HW198161  13.863  13.915   1.903
32088SOL    HW298162  13.783  13.796   1.855
32089SOL     OW98163   4.756   1.890   9.654
32089SOL    HW198164   4.760   1.953   9.726
32089SOL    HW298165   4.763   1.805   9.697
32090SOL     OW98166   8.332   3.060   9.400
32090SOL    HW198167   8.367   3.110   9.326
32090SOL    HW298168   8.247   3.101   9.418
32091SOL     OW98169   2.126   7.291   2.566
32091SOL    HW198170   2.099   7.202   2.588
32091SOL    HW298171   2.193   7.312   2.631
32092SOL     OW98172   5.495  10.404   9.955
32092SOL    HW198173   5.448  10.345  10.014
32092SOL    HW298174   5.582  10.365   9.948
32093SOL     OW98175  13.294   8.862   6.971
32093SOL    HW198176  13.379   8.838   7.008
32093SOL    HW298177  13.287   8.812   6.890
32094SOL     OW98178  10.801   6.429   7.674
32094SOL    HW198179  10.827   6.360   7.736
32094SOL    HW298180  10.864   6.423   7.603
32095SOL     OW98181  12.581   0.816  13.714
32095SOL    HW198182  12.526   0.840  13.789
32095SOL    HW298183  12.551   0.729  13.690
32096SOL     OW98184   3.564   9.517   4.826
32096SOL    HW198185   3.505   9.452   4.864
32096SOL    HW298186   3.626   9.465   4.774
32097SOL     OW98187  13.076   9.526   1.235
32097SOL    HW198188  13.150   9.470   1.214
32097SOL    HW298189  12.999   9.475   1.209
32098SOL     OW98190   8.123   8.940   8.382
32098SOL    HW198191   8.107   8.871   8.318
32098SOL    HW298192   8.101   8.900   8.466
32099SOL     OW98193  14.479   1.514  11.770
32099SOL    HW198194  14.414   1.451  11.741
32099SOL    HW298195  14.472   1.587  11.708
32100SOL     OW98196   9.978   2.423  10.317
32100SOL    HW198197   9.957   2.329  10.314
32100SOL    HW298198   9.915   2.463  10.258
32101SOL     OW98199   4.435   8.592  14.084
32101SOL    HW198200   4.355   8.610  14.035
32101SOL    HW298201   4.506   8.616  14.025
32102SOL     OW98202   7.354  14.139   5.765
32102SOL    HW198203   7.447  14.119   5.758
32102SOL    HW298204   7.341  14.159   5.858
32103SOL     OW98205   7.912  11.717   0.325
32103SOL    HW198206   7.969  11.650   0.286
32103SOL    HW298207   7.970  11.792   0.340
32104SOL     OW98208  10.930   6.527   0.933
32104SOL    HW198209  10.982   6.459   0.975
32104SOL    HW298210  10.992   6.597   0.913
32105SOL     OW98211   3.529   7.238  14.275
32105SOL    HW198212   3.492   7.326  14.273
32105SOL    HW298213   3.462   7.184  14.316
32106SOL     OW98214  14.799   8.133   9.906
32106SOL    HW198215   0.016   8.147   9.935
32106SOL    HW298216  14.782   8.040   9.922
32107SOL     OW98217   1.147  12.364  13.528
32107SOL    HW198218   1.117  12.358  13.619
32107SOL    HW298219   1.185  12.452  13.521
32108SOL     OW98220   6.031  14.035  11.351
32108SOL    HW198221   6.047  14.060  11.260
32108SOL    HW298222   6.081  13.955  11.364
32109SOL     OW98223   1.310   7.907   5.100
32109SOL    HW198224   1.288   7.956   5.179
32109SOL    HW298225   1.388   7.857   5.124
32110SOL     OW98226   6.566  12.452   4.825
32110SOL    HW198227   6.504  12.413   4.886
32110SOL    HW298228   6.552  12.404   4.743
32111SOL     OW98229  10.726   4.300  13.290
32111SOL    HW198230  10.768   4.285  13.206
32111SOL    HW298231  10.763   4.382  13.322
32112SOL     OW98232  12.218   4.700   3.184
32112SOL    HW198233  12.297   4.753   3.190
32112SOL    HW298234  12.245   4.612   3.211
32113SOL     OW98235   0.767  12.230   1.644
32113SOL    HW198236   0.823  12.154   1.631
32113SOL    HW298237   0.796  12.293   1.578
32114SOL     OW98238   3.834  11.158  14.311
32114SOL    HW198239   3.919  11.122  14.288
32114SOL    HW298240   3.779  11.082  14.327
32115SOL     OW98241  13.005   0.464   9.609
32115SOL    HW198242  12.972   0.401   9.674
32115SOL    HW298243  12.975   0.549   9.641
32116SOL     OW98244   4.421  11.599  14.153
32116SOL    HW198245   4.394  11.595  14.061
32116SOL    HW298246   4.505  11.645  14.151
32117SOL     OW98247  11.133   6.425  14.235
32117SOL    HW198248  11.108   6.468  14.153
32117SOL    HW298249  11.221   6.392  14.219
32118SOL     OW98250   2.920   9.888   9.544
32118SOL    HW198251   2.953   9.815   9.492
32118SOL    HW298252   2.951   9.871   9.633
32119SOL     OW98253  12.882   7.331   0.200
32119SOL    HW198254  12.869   7.368   0.113
32119SOL    HW298255  12.927   7.248   0.185
32120SOL     OW98256   5.220   3.144   2.299
32120SOL    HW198257   5.146   3.204   2.307
32120SOL    HW298258   5.284   3.193   2.247
32121SOL     OW98259   1.020   8.270   6.723
32121SOL    HW198260   1.097   8.321   6.698
32121SOL    HW298261   1.047   8.221   6.800
32122SOL     OW98262  11.189   2.565   8.359
32122SOL    HW198263  11.207   2.641   8.304
32122SOL    HW298264  11.265   2.557   8.416
32123SOL     OW98265  13.729   9.878  11.563
32123SOL    HW198266  13.668   9.910  11.497
32123SOL    HW298267  13.674   9.854  11.638
32124SOL     OW98268   1.342   1.968  10.302
32124SOL    HW198269   1.399   1.904  10.344
32124SOL    HW298270   1.274   1.986  10.367
32125SOL     OW98271   0.289  14.260   7.472
32125SOL    HW198272   0.208  14.257   7.524
32125SOL    HW298273   0.338  14.183   7.499
32126SOL     OW98274  13.487   2.809   2.426
32126SOL    HW198275  13.479   2.871   2.352
32126SOL    HW298276  13.498   2.865   2.502
32127SOL     OW98277  12.554   1.429   6.132
32127SOL    HW198278  12.629   1.462   6.182
32127SOL    HW298279  12.583   1.345   6.098
32128SOL     OW98280   0.863  13.414   8.556
32128SOL    HW198281   0.840  13.359   8.482
32128SOL    HW298282   0.850  13.504   8.525
32129SOL     OW98283   2.784  14.460  10.945
32129SOL    HW198284   2.728  14.452  11.022
32129SOL    HW298285   2.830  14.376  10.940
32130SOL     OW98286  14.178  14.385  10.197
32130SOL    HW198287  14.143  14.305  10.237
32130SOL    HW298288  14.269  14.363  10.175
32131SOL     OW98289   8.412   1.565   5.206
32131SOL    HW198290   8.457   1.616   5.139
32131SOL    HW298291   8.400   1.627   5.278
32132SOL     OW98292  14.085   0.999   2.113
32132SOL    HW198293  14.098   0.935   2.044
32132SOL    HW298294  14.140   1.073   2.088
32133SOL     OW98295  12.478  11.617  10.164
32133SOL    HW198296  12.421  11.690  10.183
32133SOL    HW298297  12.455  11.550  10.229
32134SOL     OW98298  14.478   2.996   5.389
32134SOL    HW198299  14.451   2.909   5.416
32134SOL    HW298300  14.450   3.054   5.460
32135SOL     OW98301   9.579   0.281   8.780
32135SOL    HW198302   9.583   0.208   8.841
32135SOL    HW298303   9.647   0.262   8.715
32136SOL     OW98304  10.887   8.965   4.403
32136SOL    HW198305  10.818   8.918   4.450
32136SOL    HW298306  10.958   8.901   4.395
32137SOL     OW98307  12.692   9.936  12.280
32137SOL    HW198308  12.752   9.928  12.355
32137SOL    HW298309  12.605   9.933  12.319
32138SOL     OW98310   7.410   1.760   6.114
32138SOL    HW198311   7.498   1.790   6.090
32138SOL    HW298312   7.387   1.812   6.190
32139SOL     OW98313   3.870   2.451  12.495
32139SOL    HW198314   3.793   2.445  12.551
32139SOL    HW298315   3.841   2.501  12.418
32140SOL     OW98316   2.677  11.168   5.568
32140SOL    HW198317   2.604  11.129   5.519
32140SOL    HW298318   2.703  11.243   5.515
32141SOL     OW98319   1.491  14.501   2.241
32141SOL    HW198320   1.443  14.495   2.159
32141SOL    HW298321   1.454  14.431   2.295
32142SOL     OW98322   6.728  12.665   3.203
32142SOL    HW198323   6.650  12.717   3.221
32142SOL    HW298324   6.768  12.708   3.127
32143SOL     OW98325   6.753   9.169   3.838
32143SOL    HW198326   6.768   9.246   3.784
32143SOL    HW298327   6.819   9.106   3.809
32144SOL     OW98328  10.837  10.952   1.870
32144SOL    HW198329  10.910  11.015   1.879
32144SOL    HW298330  10.879  10.871   1.841
32145SOL     OW98331  12.737  14.862   8.689
32145SOL    HW198332  12.814  14.820   8.728
32145SOL    HW298333  12.662  14.819   8.731
32146SOL     OW98334   3.663   4.719   9.536
32146SOL    HW198335   3.633   4.628   9.532
32146SOL    HW298336   3.583   4.770   9.546
32147SOL     OW98337   3.609   2.149  11.278
32147SOL    HW198338   3.556   2.147  11.198
32147SOL    HW298339   3.635   2.058  11.293
32148SOL     OW98340  13.167   3.847  12.840
32148SOL    HW198341  13.174   3.778  12.906
32148SOL    HW298342  13.247   3.839  12.788
32149SOL     OW98343   6.742   9.704   5.598
32149SOL    HW198344   6.732   9.674   5.689
32149SOL    HW298345   6.660   9.680   5.556
32150SOL     OW98346  11.767   7.310  11.723
32150SOL    HW198347  11.811   7.390  11.752
32150SOL    HW298348  11.703   7.292  11.791
32151SOL     OW98349   7.157   5.786   5.739
32151SOL    HW198350   7.147   5.790   5.834
32151SOL    HW298351   7.234   5.732   5.725
32152SOL     OW98352   3.097  11.821   1.984
32152SOL    HW198353   3.101  11.725   1.985
32152SOL    HW298354   3.136  11.847   2.068
32153SOL     OW98355  10.159   0.446   0.083
32153SOL    HW198356  10.186   0.525   0.131
32153SOL    HW298357  10.094   0.478   0.020
32154SOL     OW98358  10.892   4.260  12.617
32154SOL    HW198359  10.905   4.171  12.649
32154SOL    HW298360  10.907   4.253  12.522
32155SOL     OW98361   5.350  12.456   9.095
32155SOL    HW198362   5.309  12.487   9.176
32155SOL    HW298363   5.277  12.445   9.034
32156SOL     OW98364   7.762   8.720   6.832
32156SOL    HW198365   7.746   8.629   6.807
32156SOL    HW298366   7.678   8.750   6.867
32157SOL     OW98367   7.794   4.765  13.221
32157SOL    HW198368   7.739   4.767  13.143
32157SOL    HW298369   7.762   4.837  13.275
32158SOL     OW98370   3.597  14.010   7.718
32158SOL    HW198371   3.529  13.947   7.741
32158SOL    HW298372   3.603  14.005   7.623
32159SOL     OW98373  12.062  12.970  12.027
32159SOL    HW198374  12.058  12.875  12.023
32159SOL    HW298375  12.033  12.999  11.941
32160SOL     OW98376   6.241  14.755   0.443
32160SOL    HW198377   6.175  14.720   0.384
32160SOL    HW298378   6.195  14.770   0.525
32161SOL     OW98379  12.356   4.481  10.909
32161SOL    HW198380  12.282   4.464  10.852
32161SOL    HW298381  12.365   4.577  10.911
32162SOL     OW98382   7.214   4.704  14.384
32162SOL    HW198383   7.223   4.636  14.317
32162SOL    HW298384   7.210   4.786  14.336
32163SOL     OW98385   1.151  11.223   2.234
32163SOL    HW198386   1.157  11.235   2.329
32163SOL    HW298387   1.064  11.187   2.220
32164SOL     OW98388   4.229   2.355   1.187
32164SOL    HW198389   4.217   2.409   1.265
32164SOL    HW298390   4.307   2.390   1.145
32165SOL     OW98391   5.100   5.124  14.652
32165SOL    HW198392   5.043   5.099  14.580
32165SOL    HW298393   5.159   5.050  14.664
32166SOL     OW98394  14.783  12.642   1.374
32166SOL    HW198395  14.687  12.651   1.374
32166SOL    HW298396  14.806  12.632   1.466
32167SOL     OW98397   5.851   2.894  13.752
32167SOL    HW198398   5.823   2.982  13.728
32167SOL    HW298399   5.874   2.852  13.669
32168SOL     OW98400   4.764  12.218   8.936
32168SOL    HW198401   4.743  12.280   9.005
32168SOL    HW298402   4.814  12.149   8.980
32169SOL     OW98403   2.976  14.409   3.018
32169SOL    HW198404   2.942  14.331   3.062
32169SOL    HW298405   3.066  14.386   2.995
32170SOL     OW98406  14.607  12.915   1.521
32170SOL    HW198407  14.582  12.981   1.457
32170SOL    HW298408  14.527  12.864   1.535
32171SOL     OW98409   9.493  12.561   5.354
32171SOL    HW198410   9.544  12.505   5.295
32171SOL    HW298411   9.435  12.501   5.400
32172SOL     OW98412  13.078   3.464   7.523
32172SOL    HW198413  13.032   3.402   7.580
32172SOL    HW298414  13.153   3.414   7.491
32173SOL     OW98415  11.216   8.170  14.592
32173SOL    HW198416  11.292   8.128  14.632
32173SOL    HW298417  11.142   8.143  14.647
32174SOL     OW98418  10.531   0.283   8.888
32174SOL    HW198419  10.516   0.323   8.803
32174SOL    HW298420  10.508   0.191   8.876
32175SOL     OW98421  14.293  12.313   7.295
32175SOL    HW198422  14.220  12.295   7.354
32175SOL    HW298423  14.371  12.311   7.351
32176SOL     OW98424   9.922   0.569  13.152
32176SOL    HW198425   9.960   0.596  13.069
32176SOL    HW298426   9.835   0.537  13.130
32177SOL     OW98427   1.451   2.867   6.598
32177SOL    HW198428   1.380   2.823   6.644
32177SOL    HW298429   1.527   2.859   6.656
32178SOL     OW98430  10.710   9.705   0.211
32178SOL    HW198431  10.624   9.695   0.251
32178SOL    HW298432  10.758   9.762   0.271
32179SOL     OW98433   7.712   4.306   3.773
32179SOL    HW198434   7.652   4.325   3.701
32179SOL    HW298435   7.794   4.282   3.730
32180SOL     OW98436   3.359   8.097  11.200
32180SOL    HW198437   3.453   8.113  11.204
32180SOL    HW298438   3.351   8.003  11.182
32181SOL     OW98439   2.858   4.577  11.543
32181SOL    HW198440   2.914   4.578  11.465
32181SOL    HW298441   2.821   4.665  11.547
32182SOL     OW98442   7.423   2.716   1.844
32182SOL    HW198443   7.434   2.773   1.769
32182SOL    HW298444   7.349   2.753   1.892
32183SOL     OW98445   9.221   5.921   9.326
32183SOL    HW198446   9.203   5.857   9.257
32183SOL    HW298447   9.270   5.872   9.392
32184SOL     OW98448   6.199  12.233   2.709
32184SOL    HW198449   6.116  12.257   2.750
32184SOL    HW298450   6.252  12.198   2.780
32185SOL     OW98451   7.407  11.762   3.123
32185SOL    HW198452   7.369  11.834   3.073
32185SOL    HW298453   7.361  11.765   3.207
32186SOL     OW98454  13.927   2.411  11.747
32186SOL    HW198455  13.987   2.349  11.787
32186SOL    HW298456  13.861   2.357  11.704
32187SOL     OW98457   5.009   1.186   2.978
32187SOL    HW198458   4.981   1.155   3.064
32187SOL    HW298459   5.089   1.236   2.996
32188SOL     OW98460   7.819   2.399   7.408
32188SOL    HW198461   7.742   2.389   7.463
32188SOL    HW298462   7.827   2.315   7.363
32189SOL     OW98463  14.215   5.279  14.469
32189SOL    HW198464  14.184   5.366  14.496
32189SOL    HW298465  14.309   5.282  14.484
32190SOL     OW98466  14.689   8.309   4.844
32190SOL    HW198467  14.655   8.285   4.758
32190SOL    HW298468  14.685   8.404   4.847
32191SOL     OW98469   6.035   9.445   9.845
32191SOL    HW198470   6.128   9.464   9.847
32191SOL    HW298471   5.997   9.501   9.913
32192SOL     OW98472   9.308   9.859   4.812
32192SOL    HW198473   9.336   9.771   4.787
32192SOL    HW298474   9.267   9.895   4.734
32193SOL     OW98475   0.065   8.559   9.090
32193SOL    HW198476   0.034   8.641   9.053
32193SOL    HW298477   0.030   8.491   9.032
32194SOL     OW98478   7.804   0.117   0.556
32194SOL    HW198479   7.768   0.028   0.553
32194SOL    HW298480   7.731   0.172   0.528
32195SOL     OW98481   3.716  11.096  10.845
32195SOL    HW198482   3.667  11.178  10.845
32195SOL    HW298483   3.661  11.036  10.795
32196SOL     OW98484   7.245   3.581   1.667
32196SOL    HW198485   7.154   3.592   1.639
32196SOL    HW298486   7.269   3.493   1.638
32197SOL     OW98487   6.181   2.860   3.174
32197SOL    HW198488   6.192   2.907   3.092
32197SOL    HW298489   6.211   2.921   3.242
32198SOL     OW98490  13.652  12.313  11.898
32198SOL    HW198491  13.608  12.308  11.813
32198SOL    HW298492  13.641  12.227  11.936
32199SOL     OW98493   7.347   3.145  11.675
32199SOL    HW198494   7.277   3.180  11.729
32199SOL    HW298495   7.349   3.202  11.597
32200SOL     OW98496   4.764   8.352  13.047
32200SOL    HW198497   4.687   8.385  13.093
32200SOL    HW298498   4.764   8.258  13.065
32201SOL     OW98499   9.311   1.609   0.617
32201SOL    HW198500   9.324   1.701   0.594
32201SOL    HW298501   9.233   1.610   0.673
32202SOL     OW98502   8.472  10.757  13.773
32202SOL    HW198503   8.473  10.669  13.812
32202SOL    HW298504   8.461  10.816  13.847
32203SOL     OW98505   4.316   9.775   5.121
32203SOL    HW198506   4.234   9.739   5.155
32203SOL    HW298507   4.323   9.861   5.161
32204SOL     OW98508   2.056  10.165  12.525
32204SOL    HW198509   2.103  10.225  12.582
32204SOL    HW298510   2.030  10.219  12.449
32205SOL     OW98511  12.003   9.815   8.794
32205SOL    HW198512  12.005   9.881   8.864
32205SOL    HW298513  12.077   9.757   8.813
32206SOL     OW98514  14.137   4.172   0.368
32206SOL    HW198515  14.125   4.126   0.285
32206SOL    HW298516  14.108   4.261   0.351
32207SOL     OW98517  11.904  12.942   4.976
32207SOL    HW198518  11.866  13.000   4.910
32207SOL    HW298519  11.957  12.999   5.031
32208SOL     OW98520   4.385   0.220   2.450
32208SOL    HW198521   4.335   0.179   2.521
32208SOL    HW298522   4.388   0.313   2.473
32209SOL     OW98523   2.792  11.402   9.658
32209SOL    HW198524   2.856  11.463   9.695
32209SOL    HW298525   2.714  11.414   9.711
32210SOL     OW98526   1.099   6.193  10.832
32210SOL    HW198527   1.193   6.187  10.844
32210SOL    HW298528   1.081   6.139  10.755
32211SOL     OW98529  11.569  10.316   7.257
32211SOL    HW198530  11.591  10.401   7.218
32211SOL    HW298531  11.475  10.306   7.241
32212SOL     OW98532  11.049   4.363   7.298
32212SOL    HW198533  10.980   4.343   7.235
32212SOL    HW298534  11.009   4.347   7.384
32213SOL     OW98535   0.102   2.049   0.412
32213SOL    HW198536   0.073   2.046   0.321
32213SOL    HW298537   0.155   2.128   0.418
32214SOL     OW98538  12.098   6.161  12.067
32214SOL    HW198539  12.086   6.137  12.158
32214SOL    HW298540  12.009   6.175  12.033
32215SOL     OW98541  10.150  12.237   0.669
32215SOL    HW198542  10.207  12.268   0.740
32215SOL    HW298543  10.200  12.257   0.589
32216SOL     OW98544   9.619   0.017   2.620
32216SOL    HW198545   9.669   0.030   2.701
32216SOL    HW298546   9.606  14.795   2.615
32217SOL     OW98547  13.303  13.002   7.659
32217SOL    HW198548  13.384  12.990   7.709
32217SOL    HW298549  13.330  13.046   7.578
32218SOL     OW98550  12.011  14.845  12.287
32218SOL    HW198551  11.978  14.802  12.365
32218SOL    HW298552  12.088   0.022  12.317
32219SOL     OW98553   8.513   6.943  10.830
32219SOL    HW198554   8.586   7.002  10.847
32219SOL    HW298555   8.553   6.856  10.826
32220SOL     OW98556   6.537   5.033   0.666
32220SOL    HW198557   6.495   5.068   0.745
32220SOL    HW298558   6.508   4.941   0.663
32221SOL     OW98559   9.438  10.887   5.193
32221SOL    HW198560   9.394  10.872   5.277
32221SOL    HW298561   9.462  10.799   5.163
32222SOL     OW98562   3.997  11.806  11.055
32222SOL    HW198563   3.996  11.722  11.100
32222SOL    HW298564   3.907  11.838  11.061
32223SOL     OW98565   4.731   9.302   8.909
32223SOL    HW198566   4.737   9.219   8.861
32223SOL    HW298567   4.758   9.368   8.847
32224SOL     OW98568   4.261   7.910  14.092
32224SOL    HW198569   4.348   7.925  14.053
32224SOL    HW298570   4.279   7.860  14.172
32225SOL     OW98571   7.903  12.120  14.676
32225SOL    HW198572   7.826  12.156  14.633
32225SOL    HW298573   7.972  12.184  14.660
32226SOL     OW98574   5.688  14.489   3.549
32226SOL    HW198575   5.713  14.471   3.640
32226SOL    HW298576   5.754  14.550   3.517
32227SOL     OW98577   0.072   3.766   9.371
32227SOL    HW198578   0.139   3.704   9.344
32227SOL    HW298579   0.022   3.783   9.291
32228SOL     OW98580  11.071   3.783   0.725
32228SOL    HW198581  11.102   3.864   0.767
32228SOL    HW298582  10.986   3.808   0.687
32229SOL     OW98583  13.740   0.914   7.765
32229SOL    HW198584  13.693   0.905   7.683
32229SOL    HW298585  13.798   0.989   7.752
32230SOL     OW98586  11.985   6.653  13.681
32230SOL    HW198587  12.006   6.603  13.759
32230SOL    HW298588  11.979   6.743  13.711
32231SOL     OW98589   3.308  14.694  11.111
32231SOL    HW198590   3.356  14.619  11.145
32231SOL    HW298591   3.218  14.664  11.105
32232SOL     OW98592  10.876   6.642  14.276
32232SOL    HW198593  10.799   6.625  14.331
32232SOL    HW298594  10.951   6.633  14.336
32233SOL     OW98595  10.365  10.359   0.451
32233SOL    HW198596  10.425  10.395   0.386
32233SOL    HW298597  10.349  10.269   0.422
32234SOL     OW98598   7.541   2.767   5.040
32234SOL    HW198599   7.503   2.725   4.962
32234SOL    HW298600   7.572   2.852   5.009
32235SOL     OW98601   7.705   9.941   3.365
32235SOL    HW198602   7.687   9.939   3.271
32235SOL    HW298603   7.800   9.926   3.371
32236SOL     OW98604  10.706   8.127   9.449
32236SOL    HW198605  10.673   8.044   9.484
32236SOL    HW298606  10.648   8.146   9.376
32237SOL     OW98607   5.777  11.667  11.806
32237SOL    HW198608   5.682  11.658  11.798
32237SOL    HW298609   5.794  11.758  11.783
32238SOL     OW98610   2.153  12.707   7.890
32238SOL    HW198611   2.181  12.742   7.974
32238SOL    HW298612   2.107  12.779   7.847
32239SOL     OW98613  13.326  13.288   4.984
32239SOL    HW198614  13.232  13.282   4.964
32239SOL    HW298615  13.338  13.225   5.056
32240SOL     OW98616   1.991   0.551  11.710
32240SOL    HW198617   2.018   0.475  11.657
32240SOL    HW298618   2.058   0.557  11.778
32241SOL     OW98619  11.340   2.471   6.225
32241SOL    HW198620  11.266   2.498   6.279
32241SOL    HW298621  11.412   2.459   6.287
32242SOL     OW98622  14.028   1.806  12.238
32242SOL    HW198623  14.017   1.897  12.264
32242SOL    HW298624  13.956   1.789  12.177
32243SOL     OW98625  14.768   1.870   6.386
32243SOL    HW198626  14.824   1.933   6.432
32243SOL    HW298627  14.829   1.814   6.339
32244SOL     OW98628  11.943   0.545  11.318
32244SOL    HW198629  11.986   0.593  11.247
32244SOL    HW298630  11.865   0.597  11.338
32245SOL     OW98631  12.965  11.282   7.940
32245SOL    HW198632  13.007  11.288   8.026
32245SOL    HW298633  12.983  11.192   7.911
32246SOL     OW98634  14.744  13.695   3.057
32246SOL    HW198635  14.713  13.757   3.123
32246SOL    HW298636  14.696  13.615   3.075
32247SOL     OW98637   1.436   5.540   2.844
32247SOL    HW198638   1.348   5.575   2.854
32247SOL    HW298639   1.426   5.446   2.860
32248SOL     OW98640  14.039  11.001   1.615
32248SOL    HW198641  14.063  10.960   1.532
32248SOL    HW298642  14.116  10.991   1.671
32249SOL     OW98643   4.410   6.940   8.845
32249SOL    HW198644   4.340   6.990   8.803
32249SOL    HW298645   4.415   6.858   8.795
32250SOL     OW98646   1.095  10.562   8.137
32250SOL    HW198647   1.084  10.593   8.227
32250SOL    HW298648   1.029  10.609   8.087
32251SOL     OW98649   6.600   4.304   7.581
32251SOL    HW198650   6.656   4.242   7.629
32251SOL    HW298651   6.527   4.321   7.641
32252SOL     OW98652   0.726   1.437  10.192
32252SOL    HW198653   0.674   1.379  10.247
32252SOL    HW298654   0.802   1.459  10.245
32253SOL     OW98655   4.795   2.987   4.246
32253SOL    HW198656   4.865   2.974   4.182
32253SOL    HW298657   4.715   2.990   4.194
32254SOL     OW98658   4.011   4.090   5.437
32254SOL    HW198659   3.988   4.006   5.476
32254SOL    HW298660   3.936   4.147   5.456
32255SOL     OW98661   8.506  14.317   2.284
32255SOL    HW198662   8.532  14.384   2.220
32255SOL    HW298663   8.499  14.363   2.367
32256SOL     OW98664   7.635   1.686  14.115
32256SOL    HW198665   7.591   1.604  14.139
32256SOL    HW298666   7.587   1.716  14.037
32257SOL     OW98667   3.512   5.924  11.754
32257SOL    HW198668   3.491   5.851  11.695
32257SOL    HW298669   3.561   5.985  11.699
32258SOL     OW98670   9.702   8.573  11.306
32258SOL    HW198671   9.624   8.516  11.311
32258SOL    HW298672   9.760   8.529  11.245
32259SOL     OW98673   5.540   1.608   0.995
32259SOL    HW198674   5.626   1.575   0.971
32259SOL    HW298675   5.524   1.572   1.082
32260SOL     OW98676   5.488   5.959   0.079
32260SOL    HW198677   5.567   6.013   0.083
32260SOL    HW298678   5.420   6.018   0.045
32261SOL     OW98679  14.762   2.601  12.673
32261SOL    HW198680  14.675   2.628  12.641
32261SOL    HW298681  14.776   2.654  12.752
32262SOL     OW98682   4.615   2.720   3.875
32262SOL    HW198683   4.699   2.717   3.920
32262SOL    HW298684   4.557   2.767   3.935
32263SOL     OW98685   1.709   5.734  10.645
32263SOL    HW198686   1.639   5.780  10.691
32263SOL    HW298687   1.757   5.802  10.598
32264SOL     OW98688   0.787   6.107   1.708
32264SOL    HW198689   0.761   6.159   1.784
32264SOL    HW298690   0.724   6.035   1.706
32265SOL     OW98691  13.796   9.313   5.158
32265SOL    HW198692  13.811   9.366   5.079
32265SOL    HW298693  13.773   9.226   5.123
32266SOL     OW98694  10.247  11.002   0.203
32266SOL    HW198695  10.234  10.910   0.182
32266SOL    HW298696  10.160  11.034   0.227
32267SOL     OW98697   1.628   4.647  12.026
32267SOL    HW198698   1.561   4.698  11.980
32267SOL    HW298699   1.604   4.556  12.011
32268SOL     OW98700   3.762  11.776   2.873
32268SOL    HW198701   3.812  11.848   2.912
32268SOL    HW298702   3.703  11.818   2.811
32269SOL     OW98703   6.459   1.937  13.671
32269SOL    HW198704   6.472   2.001  13.602
32269SOL    HW298705   6.546   1.925  13.710
32270SOL     OW98706  14.617  11.174   1.451
32270SOL    HW198707  14.524  11.196   1.456
32270SOL    HW298708  14.655  11.218   1.527
32271SOL     OW98709   9.832   3.251  14.248
32271SOL    HW198710   9.751   3.257  14.299
32271SOL    HW298711   9.851   3.158  14.243
32272SOL     OW98712  14.813  11.526   1.430
32272SOL    HW198713  14.773  11.485   1.507
32272SOL    HW298714  14.811  11.620   1.450
32273SOL     OW98715   3.649  10.736  12.473
32273SOL    HW198716   3.573  10.769  12.426
32273SOL    HW298717   3.650  10.642  12.455
32274SOL     OW98718   5.992  13.342   8.199
32274SOL    HW198719   5.909  13.380   8.170
32274SOL    HW298720   6.059  13.406   8.173
32275SOL     OW98721   4.071   8.025  14.697
32275SOL    HW198722   3.980   8.014  14.669
32275SOL    HW298723   4.116   7.948  14.663
32276SOL     OW98724   0.534   0.812   2.556
32276SOL    HW198725   0.538   0.907   2.566
32276SOL    HW298726   0.447   0.795   2.520
32277SOL     OW98727  12.199  12.200   2.154
32277SOL    HW198728  12.124  12.213   2.212
32277SOL    HW298729  12.176  12.247   2.074
32278SOL     OW98730  11.337   0.565  13.832
32278SOL    HW198731  11.290   0.574  13.749
32278SOL    HW298732  11.401   0.636  13.832
32279SOL     OW98733  11.597   9.057  10.230
32279SOL    HW198734  11.644   9.111  10.166
32279SOL    HW298735  11.505   9.068  10.209
32280SOL     OW98736  11.821   3.820  12.850
32280SOL    HW198737  11.871   3.899  12.829
32280SOL    HW298738  11.773   3.843  12.930
32281SOL     OW98739  13.454   3.152   5.725
32281SOL    HW198740  13.459   3.232   5.778
32281SOL    HW298741  13.417   3.181   5.642
32282SOL     OW98742  12.236   1.525   2.891
32282SOL    HW198743  12.213   1.576   2.813
32282SOL    HW298744  12.294   1.456   2.858
32283SOL     OW98745   8.701   8.251   4.884
32283SOL    HW198746   8.664   8.289   4.805
32283SOL    HW298747   8.642   8.279   4.954
32284SOL     OW98748   9.644   6.624  10.519
32284SOL    HW198749   9.574   6.647  10.458
32284SOL    HW298750   9.719   6.601  10.463
32285SOL     OW98751   5.418   1.913   8.612
32285SOL    HW198752   5.495   1.970   8.608
32285SOL    HW298753   5.414   1.885   8.704
32286SOL     OW98754  10.765  13.662  12.209
32286SOL    HW198755  10.798  13.574  12.224
32286SOL    HW298756  10.684  13.649  12.159
32287SOL     OW98757   1.348   6.510   3.387
32287SOL    HW198758   1.406   6.435   3.401
32287SOL    HW298759   1.270   6.472   3.348
32288SOL     OW98760   4.769   6.918  13.959
32288SOL    HW198761   4.849   6.865  13.966
32288SOL    HW298762   4.715   6.891  14.033
32289SOL     OW98763   7.654   7.223   8.438
32289SOL    HW198764   7.630   7.185   8.522
32289SOL    HW298765   7.636   7.154   8.374
32290SOL     OW98766   3.329   6.577  10.896
32290SOL    HW198767   3.301   6.571  10.805
32290SOL    HW298768   3.325   6.488  10.929
32291SOL     OW98769  14.791   3.267  14.193
32291SOL    HW198770  14.832   3.278  14.108
32291SOL    HW298771  14.708   3.223  14.174
32292SOL     OW98772  11.799   5.663   5.752
32292SOL    HW198773  11.775   5.580   5.792
32292SOL    HW298774  11.895   5.662   5.749
32293SOL     OW98775   2.210  11.862   4.517
32293SOL    HW198776   2.214  11.796   4.448
32293SOL    HW298777   2.297  11.862   4.556
32294SOL     OW98778  13.451  14.402   8.335
32294SOL    HW198779  13.388  14.471   8.315
32294SOL    HW298780  13.476  14.367   8.249
32295SOL     OW98781  14.041  10.172   7.248
32295SOL    HW198782  14.062  10.100   7.307
32295SOL    HW298783  14.126  10.212   7.228
32296SOL     OW98784   6.699   7.680   3.328
32296SOL    HW198785   6.611   7.664   3.294
32296SOL    HW298786   6.755   7.621   3.278
32297SOL     OW98787   4.913   7.385   1.410
32297SOL    HW198788   4.922   7.417   1.500
32297SOL    HW298789   4.843   7.439   1.372
32298SOL     OW98790  14.234  13.397   9.415
32298SOL    HW198791  14.304  13.447   9.456
32298SOL    HW298792  14.279  13.336   9.356
32299SOL     OW98793   4.342   5.613   6.723
32299SOL    HW198794   4.268   5.662   6.687
32299SOL    HW298795   4.382   5.569   6.648
32300SOL     OW98796   3.645   4.055   6.133
32300SOL    HW198797   3.737   4.084   6.127
32300SOL    HW298798   3.642   4.003   6.213
32301SOL     OW98799  14.004   4.763  12.396
32301SOL    HW198800  13.975   4.693  12.337
32301SOL    HW298801  14.021   4.837  12.339
32302SOL     OW98802   3.579   0.213   0.635
32302SOL    HW198803   3.548   0.134   0.679
32302SOL    HW298804   3.564   0.283   0.699
32303SOL     OW98805  12.761   3.821   2.684
32303SOL    HW198806  12.801   3.832   2.771
32303SOL    HW298807  12.708   3.742   2.692
32304SOL     OW98808   2.824   5.944   7.783
32304SOL    HW198809   2.834   5.971   7.692
32304SOL    HW298810   2.790   6.021   7.828
32305SOL     OW98811  12.837   0.994   1.003
32305SOL    HW198812  12.813   1.004   0.911
32305SOL    HW298813  12.910   1.054   1.017
32306SOL     OW98814   6.482   8.856  12.970
32306SOL    HW198815   6.577   8.854  12.984
32306SOL    HW298816   6.463   8.946  12.946
32307SOL     OW98817   3.743   7.176   1.123
32307SOL    HW198818   3.802   7.211   1.189
32307SOL    HW298819   3.791   7.185   1.040
32308SOL     OW98820  14.048  10.143   9.420
32308SOL    HW198821  14.142  10.127   9.428
32308SOL    HW298822  14.008  10.059   9.441
32309SOL     OW98823   6.877   6.777   9.522
32309SOL    HW198824   6.819   6.785   9.597
32309SOL    HW298825   6.824   6.807   9.447
32310SOL     OW98826   1.046   0.247   2.092
32310SOL    HW198827   1.076   0.224   2.180
32310SOL    HW298828   1.091   0.329   2.072
32311SOL     OW98829   2.973   7.260   9.941
32311SOL    HW198830   3.019   7.328   9.989
32311SOL    HW298831   3.028   7.183   9.950
32312SOL     OW98832   3.803   9.228  13.715
32312SOL    HW198833   3.801   9.296  13.782
32312SOL    HW298834   3.896   9.215  13.696
32313SOL     OW98835   7.447  13.546   2.277
32313SOL    HW198836   7.461  13.632   2.317
32313SOL    HW298837   7.536  13.511   2.264
32314SOL     OW98838   1.743   9.117   3.163
32314SOL    HW198839   1.822   9.088   3.117
32314SOL    HW298840   1.775   9.178   3.229
32315SOL     OW98841   2.653   0.721   1.041
32315SOL    HW198842   2.571   0.752   1.078
32315SOL    HW298843   2.665   0.773   0.961
32316SOL     OW98844  14.160   8.373  10.223
32316SOL    HW198845  14.199   8.413  10.145
32316SOL    HW298846  14.235   8.346  10.276
32317SOL     OW98847   1.760  11.859   9.220
32317SOL    HW198848   1.836  11.909   9.191
32317SOL    HW298849   1.783  11.768   9.201
32318SOL     OW98850   4.917   4.156  13.153
32318SOL    HW198851   4.974   4.119  13.086
32318SOL    HW298852   4.938   4.109  13.233
32319SOL     OW98853   8.641   6.354   9.601
32319SOL    HW198854   8.609   6.279   9.650
32319SOL    HW298855   8.730   6.368   9.634
32320SOL     OW98856   4.309   5.755   2.494
32320SOL    HW198857   4.234   5.718   2.449
32320SOL    HW298858   4.373   5.684   2.496
32321SOL     OW98859  11.334   5.046  14.648
32321SOL    HW198860  11.279   5.111  14.692
32321SOL    HW298861  11.423   5.071  14.670
32322SOL     OW98862   9.715   0.253  14.641
32322SOL    HW198863   9.724   0.257  14.546
32322SOL    HW298864   9.795   0.210  14.671
32323SOL     OW98865   1.057  12.053  12.985
32323SOL    HW198866   1.069  11.991  12.913
32323SOL    HW298867   0.985  12.016  13.037
32324SOL     OW98868   7.811   6.774   2.098
32324SOL    HW198869   7.857   6.747   2.018
32324SOL    HW298870   7.801   6.869   2.089
32325SOL     OW98871   7.217   1.702   1.279
32325SOL    HW198872   7.214   1.693   1.374
32325SOL    HW298873   7.240   1.614   1.248
32326SOL     OW98874   4.357  13.515   1.270
32326SOL    HW198875   4.264  13.537   1.263
32326SOL    HW298876   4.400  13.570   1.205
32327SOL     OW98877   1.980  11.686   4.526
32327SOL    HW198878   1.973  11.678   4.621
32327SOL    HW298879   2.048  11.752   4.512
32328SOL     OW98880   8.898   3.654  14.065
32328SOL    HW198881   8.829   3.671  14.000
32328SOL    HW298882   8.975   3.699  14.030
32329SOL     OW98883   8.905   8.035   5.551
32329SOL    HW198884   8.831   7.993   5.508
32329SOL    HW298885   8.897   8.127   5.528
32330SOL     OW98886   6.263  11.744   8.518
32330SOL    HW198887   6.250  11.775   8.428
32330SOL    HW298888   6.353  11.713   8.520
32331SOL     OW98889   8.687   6.909  11.892
32331SOL    HW198890   8.675   6.818  11.918
32331SOL    HW298891   8.632   6.920  11.814
32332SOL     OW98892   7.487  14.284   9.241
32332SOL    HW198893   7.391  14.283   9.247
32332SOL    HW298894   7.505  14.339   9.165
32333SOL     OW98895   8.346   1.345  10.545
32333SOL    HW198896   8.343   1.276  10.610
32333SOL    HW298897   8.390   1.305  10.469
32334SOL     OW98898   5.438   8.135  11.916
32334SOL    HW198899   5.356   8.167  11.879
32334SOL    HW298900   5.455   8.054  11.869
32335SOL     OW98901   0.934   4.466   2.899
32335SOL    HW198902   0.879   4.411   2.844
32335SOL    HW298903   0.908   4.444   2.989
32336SOL     OW98904  13.800  12.879   4.801
32336SOL    HW198905  13.828  12.792   4.830
32336SOL    HW298906  13.787  12.870   4.707
32337SOL     OW98907  12.256  13.249  12.185
32337SOL    HW198908  12.232  13.163  12.218
32337SOL    HW298909  12.291  13.232  12.097
32338SOL     OW98910   7.748   8.620   6.129
32338SOL    HW198911   7.834   8.661   6.140
32338SOL    HW298912   7.713   8.614   6.217
32339SOL     OW98913   6.791   5.237  10.272
32339SOL    HW198914   6.870   5.284  10.300
32339SOL    HW298915   6.719   5.294  10.296
32340SOL     OW98916  13.008   7.496  14.040
32340SOL    HW198917  13.012   7.472  14.133
32340SOL    HW298918  13.057   7.578  14.035
32341SOL     OW98919   8.172   9.529  12.388
32341SOL    HW198920   8.091   9.557  12.346
32341SOL    HW298921   8.239   9.586  12.350
32342SOL     OW98922  12.517  12.024   4.595
32342SOL    HW198923  12.517  11.998   4.687
32342SOL    HW298924  12.424  12.031   4.573
32343SOL     OW98925   0.908   7.121   8.583
32343SOL    HW198926   0.875   7.031   8.588
32343SOL    HW298927   0.877   7.163   8.663
32344SOL     OW98928  11.898   7.500  14.301
32344SOL    HW198929  11.921   7.478  14.211
32344SOL    HW298930  11.816   7.452  14.317
32345SOL     OW98931   4.133   4.105  14.522
32345SOL    HW198932   4.064   4.103  14.588
32345SOL    HW298933   4.187   4.180  14.546
32346SOL     OW98934   0.476  12.397   7.246
32346SOL    HW198935   0.492  12.357   7.160
32346SOL    HW298936   0.528  12.345   7.307
32347SOL     OW98937   4.245  10.842   5.888
32347SOL    HW198938   4.164  10.799   5.861
32347SOL    HW298939   4.275  10.889   5.810
32348SOL     OW98940  13.974   3.717  12.196
32348SOL    HW198941  13.989   3.632  12.235
32348SOL    HW298942  14.003   3.707  12.105
32349SOL     OW98943  10.469   1.949   3.092
32349SOL    HW198944  10.411   1.942   3.017
32349SOL    HW298945  10.553   1.977   3.056
32350SOL     OW98946   5.699  11.122   4.562
32350SOL    HW198947   5.639  11.157   4.496
32350SOL    HW298948   5.748  11.199   4.593
32351SOL     OW98949   2.686   1.753   9.844
32351SOL    HW198950   2.781   1.762   9.857
32351SOL    HW298951   2.670   1.789   9.757
32352SOL     OW98952  14.263   4.393   0.754
32352SOL    HW198953  14.244   4.421   0.665
32352SOL    HW298954  14.356   4.410   0.766
32353SOL     OW98955   0.568   1.666   4.295
32353SOL    HW198956   0.628   1.650   4.222
32353SOL    HW298957   0.624   1.669   4.373
32354SOL     OW98958   1.245  13.750   2.579
32354SOL    HW198959   1.324  13.775   2.628
32354SOL    HW298960   1.275  13.683   2.518
32355SOL     OW98961   1.130   7.940   7.613
32355SOL    HW198962   1.092   8.002   7.552
32355SOL    HW298963   1.108   7.854   7.577
32356SOL     OW98964  10.032  12.109  13.404
32356SOL    HW198965   9.949  12.111  13.357
32356SOL    HW298966  10.046  12.016  13.425
32357SOL     OW98967   3.602  10.505  10.782
32357SOL    HW198968   3.660  10.579  10.799
32357SOL    HW298969   3.634  10.468  10.700
32358SOL     OW98970   8.033   2.200   7.019
32358SOL    HW198971   8.034   2.295   7.004
32358SOL    HW298972   7.942   2.181   7.041
32359SOL     OW98973   0.611   5.099   7.440
32359SOL    HW198974   0.573   5.036   7.502
32359SOL    HW298975   0.554   5.093   7.363
32360SOL     OW98976   5.584   9.149  10.942
32360SOL    HW198977   5.644   9.223  10.944
32360SOL    HW298978   5.615   9.094  10.870
32361SOL     OW98979  10.085   2.959  10.011
32361SOL    HW198980  10.157   3.018   9.987
32361SOL    HW298981  10.015   3.017  10.039
32362SOL     OW98982   3.253   3.504  12.702
32362SOL    HW198983   3.305   3.570  12.655
32362SOL    HW298984   3.311   3.475  12.772
32363SOL     OW98985   5.470   1.084   2.606
32363SOL    HW198986   5.536   1.049   2.546
32363SOL    HW298987   5.504   1.169   2.633
32364SOL     OW98988   4.533   3.371   8.560
32364SOL    HW198989   4.542   3.276   8.571
32364SOL    HW298990   4.582   3.407   8.634
32365SOL     OW98991   2.543   1.789  12.494
32365SOL    HW198992   2.557   1.874  12.535
32365SOL    HW298993   2.473   1.749  12.545
32366SOL     OW98994  11.140  10.365   0.224
32366SOL    HW198995  11.235  10.368   0.211
32366SOL    HW298996  11.112  10.288   0.176
32367SOL     OW98997   1.396   1.154   2.635
32367SOL    HW198998   1.356   1.071   2.612
32367SOL    HW298999   1.371   1.169   2.726
32368SOL     OW99000  11.021   7.343  11.915
32368SOL    HW199001  10.925   7.342  11.912
32368SOL    HW299002  11.042   7.414  11.975
32369SOL     OW99003  13.106   2.785  12.303
32369SOL    HW199004  13.141   2.837  12.375
32369SOL    HW299005  13.155   2.703  12.306
32370SOL     OW99006   3.791  10.298  14.022
32370SOL    HW199007   3.711  10.340  13.991
32370SOL    HW299008   3.852  10.305  13.949
32371SOL     OW99009   2.008  10.746   3.690
32371SOL    HW199010   2.091  10.787   3.667
32371SOL    HW299011   1.991  10.777   3.780
32372SOL     OW99012   8.788  13.641  10.215
32372SOL    HW199013   8.873  13.663  10.253
32372SOL    HW299014   8.729  13.638  10.290
32373SOL     OW99015   5.940   8.328  13.991
32373SOL    HW199016   6.033   8.318  14.008
32373SOL    HW299017   5.923   8.422  13.999
32374SOL     OW99018   4.006  12.616   8.283
32374SOL    HW199019   4.101  12.616   8.297
32374SOL    HW299020   3.989  12.697   8.234
32375SOL     OW99021   7.133   0.143   7.958
32375SOL    HW199022   7.101   0.067   7.909
32375SOL    HW299023   7.145   0.111   8.047
32376SOL     OW99024   6.676   2.476   4.866
32376SOL    HW199025   6.739   2.443   4.801
32376SOL    HW299026   6.596   2.427   4.848
32377SOL     OW99027   1.965   1.729  13.824
32377SOL    HW199028   1.992   1.817  13.849
32377SOL    HW299029   1.884   1.713  13.873
32378SOL     OW99030  10.918   6.557   4.947
32378SOL    HW199031  10.910   6.526   4.857
32378SOL    HW299032  11.006   6.531   4.973
32379SOL     OW99033  12.646  10.587  12.736
32379SOL    HW199034  12.639  10.512  12.796
32379SOL    HW299035  12.630  10.549  12.649
32380SOL     OW99036  11.983   2.045   8.753
32380SOL    HW199037  12.023   2.117   8.801
32380SOL    HW299038  11.991   2.070   8.661
32381SOL     OW99039   9.268  11.632   6.970
32381SOL    HW199040   9.321  11.630   6.891
32381SOL    HW299041   9.329  11.614   7.041
32382SOL     OW99042   7.975  12.437   4.076
32382SOL    HW199043   7.969  12.342   4.092
32382SOL    HW299044   7.884  12.467   4.072
32383SOL     OW99045  13.482   4.749   8.447
32383SOL    HW199046  13.447   4.695   8.517
32383SOL    HW299047  13.520   4.687   8.385
32384SOL     OW99048  13.931  10.978  10.722
32384SOL    HW199049  13.849  11.005  10.763
32384SOL    HW299050  13.952  10.895  10.765
32385SOL     OW99051  11.952  11.216  13.736
32385SOL    HW199052  12.015  11.152  13.704
32385SOL    HW299053  11.957  11.288  13.672
32386SOL     OW99054   0.538   4.282  14.045
32386SOL    HW199055   0.598   4.292  14.119
32386SOL    HW299056   0.567   4.203  14.000
32387SOL     OW99057   0.342  10.581  13.126
32387SOL    HW199058   0.331  10.503  13.181
32387SOL    HW299059   0.313  10.553  13.039
32388SOL     OW99060   7.586  13.340   0.779
32388SOL    HW199061   7.671  13.386   0.780
32388SOL    HW299062   7.521  13.410   0.785
32389SOL     OW99063   9.257   7.756   7.262
32389SOL    HW199064   9.286   7.708   7.185
32389SOL    HW299065   9.242   7.689   7.328
32390SOL     OW99066   3.954  12.478   8.627
32390SOL    HW199067   3.975  12.414   8.696
32390SOL    HW299068   3.959  12.427   8.546
32391SOL     OW99069   6.419   2.471   1.308
32391SOL    HW199070   6.431   2.553   1.355
32391SOL    HW299071   6.501   2.424   1.322
32392SOL     OW99072   2.811   6.865  13.810
32392SOL    HW199073   2.782   6.853  13.901
32392SOL    HW299074   2.882   6.801  13.799
32393SOL     OW99075  11.676   2.968   5.315
32393SOL    HW199076  11.739   2.945   5.247
32393SOL    HW299077  11.591   2.960   5.273
32394SOL     OW99078   6.724   9.105   8.577
32394SOL    HW199079   6.691   9.157   8.504
32394SOL    HW299080   6.756   9.024   8.537
32395SOL     OW99081   6.913   6.946  13.487
32395SOL    HW199082   6.881   6.941  13.397
32395SOL    HW299083   6.998   6.902  13.485
32396SOL     OW99084   1.824  14.838  10.833
32396SOL    HW199085   1.768  14.787  10.775
32396SOL    HW299086   1.812   0.056  10.805
32397SOL     OW99087   1.247   2.995   0.338
32397SOL    HW199088   1.235   3.000   0.433
32397SOL    HW299089   1.237   3.085   0.307
32398SOL     OW99090  11.479   3.606  11.594
32398SOL    HW199091  11.523   3.553  11.662
32398SOL    HW299092  11.477   3.549  11.517
32399SOL     OW99093  12.452   2.428   2.540
32399SOL    HW199094  12.443   2.335   2.562
32399SOL    HW299095  12.363   2.458   2.525
32400SOL     OW99096  14.555   6.676  11.009
32400SOL    HW199097  14.649   6.667  11.020
32400SOL    HW299098  14.518   6.665  11.097
32401SOL     OW99099   9.661  10.328   5.309
32401SOL    HW199100   9.619  10.368   5.385
32401SOL    HW299101   9.618  10.242   5.300
32402SOL     OW99102   8.496  10.931  10.017
32402SOL    HW199103   8.570  10.989   9.999
32402SOL    HW299104   8.452  10.921   9.933
32403SOL     OW99105  11.201   8.932  10.925
32403SOL    HW199106  11.146   8.973  10.858
32403SOL    HW299107  11.290   8.944  10.892
32404SOL     OW99108   2.955  14.389   7.973
32404SOL    HW199109   3.041  14.399   8.012
32404SOL    HW299110   2.917  14.314   8.018
32405SOL     OW99111   4.004   1.623   7.461
32405SOL    HW199112   4.020   1.713   7.432
32405SOL    HW299113   3.941   1.589   7.398
32406SOL     OW99114   4.520  12.781  10.377
32406SOL    HW199115   4.493  12.711  10.437
32406SOL    HW299116   4.472  12.858  10.409
32407SOL     OW99117   6.200   5.974  11.022
32407SOL    HW199118   6.160   5.995  10.937
32407SOL    HW299119   6.214   6.059  11.063
32408SOL     OW99120   3.710   9.583   5.356
32408SOL    HW199121   3.805   9.582   5.350
32408SOL    HW299122   3.680   9.566   5.267
32409SOL     OW99123  12.697   2.625   7.861
32409SOL    HW199124  12.725   2.713   7.885
32409SOL    HW299125  12.777   2.582   7.831
32410SOL     OW99126  12.433   5.349  13.171
32410SOL    HW199127  12.521   5.357  13.133
32410SOL    HW299128  12.426   5.256  13.193
32411SOL     OW99129   5.725   5.697   8.555
32411SOL    HW199130   5.720   5.680   8.649
32411SOL    HW299131   5.779   5.626   8.520
32412SOL     OW99132   9.654   9.129   3.509
32412SOL    HW199133   9.688   9.113   3.421
32412SOL    HW299134   9.563   9.102   3.505
32413SOL     OW99135  10.800   3.571   6.731
32413SOL    HW199136  10.749   3.649   6.752
32413SOL    HW299137  10.837   3.589   6.645
32414SOL     OW99138   3.989  10.110   5.615
32414SOL    HW199139   3.933  10.119   5.693
32414SOL    HW299140   3.952  10.036   5.567
32415SOL     OW99141   1.937   0.555  11.323
32415SOL    HW199142   1.964   0.516  11.240
32415SOL    HW299143   1.889   0.634  11.297
32416SOL     OW99144   9.571   3.817   8.160
32416SOL    HW199145   9.484   3.810   8.119
32416SOL    HW299146   9.619   3.878   8.105
32417SOL     OW99147   3.842  11.514   1.876
32417SOL    HW199148   3.889  11.450   1.930
32417SOL    HW299149   3.833  11.471   1.791
32418SOL     OW99150   5.258   1.101   0.125
32418SOL    HW199151   5.273   1.080   0.033
32418SOL    HW299152   5.254   1.016   0.169
32419SOL     OW99153  12.751   7.380   4.877
32419SOL    HW199154  12.764   7.368   4.971
32419SOL    HW299155  12.738   7.291   4.844
32420SOL     OW99156  12.996   1.621   3.444
32420SOL    HW199157  12.977   1.547   3.386
32420SOL    HW299158  13.036   1.687   3.387
32421SOL     OW99159   5.687   0.157  13.749
32421SOL    HW199160   5.761   0.099  13.768
32421SOL    HW299161   5.612   0.098  13.741
32422SOL     OW99162   2.778  11.059   3.466
32422SOL    HW199163   2.868  11.088   3.454
32422SOL    HW299164   2.735  11.075   3.382
32423SOL     OW99165   7.159   9.938   2.382
32423SOL    HW199166   7.070   9.921   2.411
32423SOL    HW299167   7.202   9.981   2.456
32424SOL     OW99168   7.325   9.466  11.140
32424SOL    HW199169   7.306   9.422  11.223
32424SOL    HW299170   7.239   9.481  11.101
32425SOL     OW99171   6.802   5.555  12.817
32425SOL    HW199172   6.737   5.625  12.806
32425SOL    HW299173   6.763   5.479  12.774
32426SOL     OW99174  13.206   8.418  11.195
32426SOL    HW199175  13.171   8.370  11.270
32426SOL    HW299176  13.269   8.480  11.233
32427SOL     OW99177  11.610   5.475  14.014
32427SOL    HW199178  11.536   5.437  13.967
32427SOL    HW299179  11.687   5.438  13.971
32428SOL     OW99180   4.981   2.443  12.019
32428SOL    HW199181   5.073   2.441  12.046
32428SOL    HW299182   4.968   2.532  11.988
32429SOL     OW99183   4.541  10.840   9.671
32429SOL    HW199184   4.558  10.804   9.583
32429SOL    HW299185   4.627  10.840   9.713
32430SOL     OW99186   6.599  12.582   4.005
32430SOL    HW199187   6.610  12.617   3.916
32430SOL    HW299188   6.687  12.582   4.042
32431SOL     OW99189  12.345   3.474   4.673
32431SOL    HW199190  12.405   3.475   4.599
32431SOL    HW299191  12.286   3.401   4.655
32432SOL     OW99192   2.677   0.058   6.403
32432SOL    HW199193   2.732   0.066   6.480
32432SOL    HW299194   2.661  14.836   6.393
32433SOL     OW99195   0.635   8.551  14.285
32433SOL    HW199196   0.569   8.500  14.236
32433SOL    HW299197   0.696   8.582  14.218
32434SOL     OW99198   4.383   7.914  14.839
32434SOL    HW199199   4.342   7.992   0.005
32434SOL    HW299200   4.377   7.848   0.036
32435SOL     OW99201   0.798   6.915   4.358
32435SOL    HW199202   0.706   6.890   4.350
32435SOL    HW299203   0.829   6.868   4.436
32436SOL     OW99204  13.214   2.840   7.853
32436SOL    HW199205  13.158   2.868   7.781
32436SOL    HW299206  13.168   2.870   7.932
32437SOL     OW99207   2.867  12.659   2.453
32437SOL    HW199208   2.896  12.567   2.459
32437SOL    HW299209   2.856  12.686   2.544
32438SOL     OW99210   7.962  10.656  12.009
32438SOL    HW199211   7.953  10.695  12.096
32438SOL    HW299212   7.877  10.672  11.967
32439SOL     OW99213  11.511  13.384  11.162
32439SOL    HW199214  11.505  13.295  11.126
32439SOL    HW299215  11.533  13.371  11.254
32440SOL     OW99216   3.097   6.802  12.242
32440SOL    HW199217   3.179   6.792  12.290
32440SOL    HW299218   3.100   6.891  12.208
32441SOL     OW99219   5.677   7.622  14.212
32441SOL    HW199220   5.609   7.644  14.276
32441SOL    HW299221   5.739   7.694  14.217
32442SOL     OW99222   2.305   3.508  13.847
32442SOL    HW199223   2.344   3.498  13.934
32442SOL    HW299224   2.216   3.472  13.857
32443SOL     OW99225   9.778  13.769   8.477
32443SOL    HW199226   9.704  13.726   8.434
32443SOL    HW299227   9.769  13.746   8.569
32444SOL     OW99228  11.481   1.736   3.355
32444SOL    HW199229  11.466   1.810   3.295
32444SOL    HW299230  11.403   1.682   3.346
32445SOL     OW99231   6.734   3.422   4.753
32445SOL    HW199232   6.689   3.478   4.817
32445SOL    HW299233   6.673   3.350   4.738
32446SOL     OW99234   4.209  12.895   3.195
32446SOL    HW199235   4.221  12.801   3.200
32446SOL    HW299236   4.193  12.913   3.102
32447SOL     OW99237  12.439  12.776   7.081
32447SOL    HW199238  12.344  12.779   7.080
32447SOL    HW299239  12.460  12.690   7.119
32448SOL     OW99240   3.993   8.987   7.083
32448SOL    HW199241   3.904   9.018   7.098
32448SOL    HW299242   4.007   8.919   7.148
32449SOL     OW99243   7.333  10.903  14.374
32449SOL    HW199244   7.313  10.931  14.463
32449SOL    HW299245   7.415  10.854  14.382
32450SOL     OW99246   1.482   7.737   2.527
32450SOL    HW199247   1.561   7.684   2.515
32450SOL    HW299248   1.505   7.799   2.597
32451SOL     OW99249   6.474   6.667  13.376
32451SOL    HW199250   6.489   6.725  13.451
32451SOL    HW299251   6.559   6.625  13.361
32452SOL     OW99252  11.549   8.620   0.598
32452SOL    HW199253  11.503   8.636   0.515
32452SOL    HW299254  11.490   8.565   0.648
32453SOL     OW99255  11.214  12.395  14.751
32453SOL    HW199256  11.130  12.377  14.710
32453SOL    HW299257  11.244  12.310  14.782
32454SOL     OW99258   7.360   3.943  14.642
32454SOL    HW199259   7.285   3.891  14.615
32454SOL    HW299260   7.344   3.963  14.734
32455SOL     OW99261   2.699   2.141  14.767
32455SOL    HW199262   2.776   2.099  14.728
32455SOL    HW299263   2.638   2.069  14.783
32456SOL     OW99264   1.528   0.492  12.937
32456SOL    HW199265   1.550   0.429  13.006
32456SOL    HW299266   1.607   0.497  12.883
32457SOL     OW99267   5.183   4.229  14.779
32457SOL    HW199268   5.230   4.149  14.801
32457SOL    HW299269   5.212   4.293  14.844
32458SOL     OW99270   7.487   8.503  10.450
32458SOL    HW199271   7.566   8.548  10.479
32458SOL    HW299272   7.505   8.410  10.467
32459SOL     OW99273   3.839   3.498  11.425
32459SOL    HW199274   3.843   3.413  11.382
32459SOL    HW299275   3.839   3.561  11.353
32460SOL     OW99276  10.858   6.253  12.280
32460SOL    HW199277  10.800   6.202  12.223
32460SOL    HW299278  10.910   6.306  12.219
32461SOL     OW99279   4.566   7.713   7.924
32461SOL    HW199280   4.643   7.757   7.890
32461SOL    HW299281   4.591   7.621   7.930
32462SOL     OW99282  11.237  14.775  11.158
32462SOL    HW199283  11.313  14.716  11.161
32462SOL    HW299284  11.237  14.819  11.243
32463SOL     OW99285   4.525   6.174  10.672
32463SOL    HW199286   4.610   6.194  10.633
32463SOL    HW299287   4.462   6.225  10.620
32464SOL     OW99288   9.816  13.052  11.180
32464SOL    HW199289   9.735  13.010  11.152
32464SOL    HW299290   9.853  13.087  11.099
32465SOL     OW99291   9.001  14.223  11.152
32465SOL    HW199292   8.924  14.240  11.207
32465SOL    HW299293   8.982  14.140  11.108
32466SOL     OW99294  10.618   7.167   7.628
32466SOL    HW199295  10.711   7.152   7.641
32466SOL    HW299296  10.597   7.120   7.547
32467SOL     OW99297  13.298   1.885   1.524
32467SOL    HW199298  13.216   1.837   1.507
32467SOL    HW299299  13.290   1.914   1.614
32468SOL     OW99300  13.400  14.792   4.750
32468SOL    HW199301  13.427  14.784   4.659
32468SOL    HW299302  13.459  14.733   4.798
32469SOL     OW99303  12.869  13.701   7.941
32469SOL    HW199304  12.871  13.768   7.874
32469SOL    HW299305  12.853  13.748   8.023
32470SOL     OW99306   3.901   0.532  10.704
32470SOL    HW199307   3.874   0.454  10.754
32470SOL    HW299308   3.830   0.594  10.717
32471SOL     OW99309   3.263   0.469  13.827
32471SOL    HW199310   3.216   0.548  13.799
32471SOL    HW299311   3.343   0.503  13.868
32472SOL     OW99312  11.760   7.054  14.437
32472SOL    HW199313  11.723   7.077  14.523
32472SOL    HW299314  11.725   7.122  14.378
32473SOL     OW99315   7.278  13.142   6.373
32473SOL    HW199316   7.219  13.144   6.448
32473SOL    HW299317   7.269  13.229   6.333
32474SOL     OW99318   4.788   3.763  11.293
32474SOL    HW199319   4.804   3.796  11.381
32474SOL    HW299320   4.823   3.830  11.235
32475SOL     OW99321  12.847   6.997  10.651
32475SOL    HW199322  12.924   7.041  10.687
32475SOL    HW299323  12.776   7.022  10.711
32476SOL     OW99324  12.961  11.801  14.133
32476SOL    HW199325  12.931  11.711  14.115
32476SOL    HW299326  12.942  11.849  14.052
32477SOL     OW99327  14.033   3.685   6.875
32477SOL    HW199328  14.080   3.603   6.889
32477SOL    HW299329  14.102   3.750   6.863
32478SOL     OW99330   5.272  14.580   7.727
32478SOL    HW199331   5.197  14.625   7.689
32478SOL    HW299332   5.327  14.650   7.763
32479SOL     OW99333   6.800   9.523  11.498
32479SOL    HW199334   6.761   9.484  11.576
32479SOL    HW299335   6.894   9.504  11.505
32480SOL     OW99336   5.654   1.042   2.284
32480SOL    HW199337   5.747   1.059   2.272
32480SOL    HW299338   5.611   1.095   2.217
32481SOL     OW99339  13.660   0.824   5.061
32481SOL    HW199340  13.705   0.882   5.000
32481SOL    HW299341  13.628   0.752   5.007
32482SOL     OW99342   0.478  13.787   3.246
32482SOL    HW199343   0.457  13.719   3.182
32482SOL    HW299344   0.556  13.830   3.210
32483SOL     OW99345   7.583   2.614   5.511
32483SOL    HW199346   7.637   2.584   5.584
32483SOL    HW299347   7.642   2.611   5.435
32484SOL     OW99348  11.255   5.481   7.973
32484SOL    HW199349  11.171   5.435   7.965
32484SOL    HW299350  11.318   5.425   7.929
32485SOL     OW99351  12.135  14.696  10.634
32485SOL    HW199352  12.218  14.657  10.606
32485SOL    HW299353  12.146  14.709  10.728
32486SOL     OW99354   4.259   3.783   0.852
32486SOL    HW199355   4.194   3.752   0.914
32486SOL    HW299356   4.323   3.830   0.905
32487SOL     OW99357   6.300  10.483   8.574
32487SOL    HW199358   6.321  10.441   8.657
32487SOL    HW299359   6.206  10.466   8.562
32488SOL     OW99360   2.540   9.339  13.923
32488SOL    HW199361   2.611   9.279  13.945
32488SOL    HW299362   2.468   9.314  13.981
32489SOL     OW99363   9.519   5.705  10.283
32489SOL    HW199364   9.509   5.765  10.357
32489SOL    HW299365   9.612   5.712  10.260
32490SOL     OW99366  10.656   7.006   5.732
32490SOL    HW199367  10.696   6.922   5.753
32490SOL    HW299368  10.572   6.983   5.692
32491SOL     OW99369   6.809   7.942   3.881
32491SOL    HW199370   6.785   7.978   3.796
32491SOL    HW299371   6.901   7.917   3.872
32492SOL     OW99372   7.776   7.040   4.757
32492SOL    HW199373   7.790   6.949   4.780
32492SOL    HW299374   7.704   7.039   4.694
32493SOL     OW99375   7.485  14.659   0.536
32493SOL    HW199376   7.469  14.657   0.442
32493SOL    HW299377   7.579  14.676   0.544
32494SOL     OW99378  12.803   2.926   4.580
32494SOL    HW199379  12.873   2.945   4.643
32494SOL    HW299380  12.816   2.990   4.511
32495SOL     OW99381  14.204  10.282   2.228
32495SOL    HW199382  14.229  10.302   2.138
32495SOL    HW299383  14.120  10.326   2.240
32496SOL     OW99384  10.816   1.547  11.478
32496SOL    HW199385  10.793   1.557  11.386
32496SOL    HW299386  10.874   1.622  11.496
32497SOL     OW99387   0.916  14.670   3.890
32497SOL    HW199388   0.833  14.715   3.908
32497SOL    HW299389   0.932  14.617   3.967
32498SOL     OW99390   1.260  10.395   6.941
32498SOL    HW199391   1.307  10.406   6.859
32498SOL    HW299392   1.244  10.484   6.972
32499SOL     OW99393   3.287   0.992   3.721
32499SOL    HW199394   3.235   0.940   3.782
32499SOL    HW299395   3.223   1.048   3.677
32500SOL     OW99396   6.889   3.027   1.108
32500SOL    HW199397   6.827   3.092   1.140
32500SOL    HW299398   6.938   3.071   1.039
32501SOL     OW99399  12.709   5.893  10.825
32501SOL    HW199400  12.672   5.899  10.913
32501SOL    HW299401  12.730   5.800  10.813
32502SOL     OW99402   8.451   7.593   8.019
32502SOL    HW199403   8.379   7.621   7.961
32502SOL    HW299404   8.463   7.667   8.079
32503SOL     OW99405  14.402   3.235   9.648
32503SOL    HW199406  14.381   3.326   9.630
32503SOL    HW299407  14.497   3.232   9.649
32504SOL     OW99408   4.207   3.667   3.481
32504SOL    HW199409   4.188   3.578   3.450
32504SOL    HW299410   4.188   3.723   3.406
32505SOL     OW99411   9.282  12.680  11.481
32505SOL    HW199412   9.191  12.653  11.469
32505SOL    HW299413   9.324  12.661  11.397
32506SOL     OW99414  12.046   3.005  14.807
32506SOL    HW199415  12.054   3.053  14.724
32506SOL    HW299416  12.118   2.942  14.805
32507SOL     OW99417   3.505  12.169   3.462
32507SOL    HW199418   3.485  12.241   3.402
32507SOL    HW299419   3.568  12.115   3.414
32508SOL     OW99420   8.316   5.004   5.194
32508SOL    HW199421   8.241   5.062   5.191
32508SOL    HW299422   8.343   4.994   5.103
32509SOL     OW99423  13.475   2.597   3.515
32509SOL    HW199424  13.492   2.606   3.609
32509SOL    HW299425  13.398   2.540   3.510
32510SOL     OW99426   3.244   1.505   4.212
32510SOL    HW199427   3.252   1.450   4.134
32510SOL    HW299428   3.284   1.588   4.186
32511SOL     OW99429  11.518   5.577  11.852
32511SOL    HW199430  11.522   5.642  11.782
32511SOL    HW299431  11.488   5.626  11.929
32512SOL     OW99432  12.357   6.986  12.526
32512SOL    HW199433  12.364   6.974  12.431
32512SOL    HW299434  12.328   7.076  12.536
32513SOL     OW99435  13.146   7.020   0.026
32513SOL    HW199436  13.161   6.966  14.821
32513SOL    HW299437  13.096   6.965   0.086
32514SOL     OW99438   2.555   1.160   5.040
32514SOL    HW199439   2.469   1.147   4.999
32514SOL    HW299440   2.536   1.206   5.122
32515SOL     OW99441  10.739  12.016   5.110
32515SOL    HW199442  10.779  12.103   5.119
32515SOL    HW299443  10.811  11.959   5.080
32516SOL     OW99444   6.107   2.507   4.724
32516SOL    HW199445   6.172   2.574   4.745
32516SOL    HW299446   6.099   2.455   4.805
32517SOL     OW99447   2.216   3.919   2.358
32517SOL    HW199448   2.160   3.969   2.417
32517SOL    HW299449   2.229   3.835   2.402
32518SOL     OW99450  13.464   2.668   5.755
32518SOL    HW199451  13.431   2.703   5.838
32518SOL    HW299452  13.543   2.719   5.738
32519SOL     OW99453   5.755   5.981   3.413
32519SOL    HW199454   5.718   5.960   3.499
32519SOL    HW299455   5.720   5.914   3.355
32520SOL     OW99456  14.747  10.724  14.562
32520SOL    HW199457  14.803  10.776  14.619
32520SOL    HW299458  14.698  10.788  14.511
32521SOL     OW99459   9.562   7.771   1.160
32521SOL    HW199460   9.545   7.737   1.072
32521SOL    HW299461   9.657   7.785   1.162
32522SOL     OW99462   6.843   0.759   2.153
32522SOL    HW199463   6.823   0.668   2.132
32522SOL    HW299464   6.937   0.759   2.171
32523SOL     OW99465   3.496   1.199   2.192
32523SOL    HW199466   3.464   1.115   2.158
32523SOL    HW299467   3.472   1.263   2.125
32524SOL     OW99468   3.295   4.350  13.377
32524SOL    HW199469   3.267   4.424  13.324
32524SOL    HW299470   3.238   4.352  13.454
32525SOL     OW99471  10.526   5.972   5.648
32525SOL    HW199472  10.457   5.913   5.618
32525SOL    HW299473  10.524   5.965   5.743
32526SOL     OW99474   2.827   7.500   5.234
32526SOL    HW199475   2.854   7.496   5.326
32526SOL    HW299476   2.761   7.432   5.225
32527SOL     OW99477  14.722   7.601  12.858
32527SOL    HW199478  14.638   7.568  12.827
32527SOL    HW299479  14.778   7.523  12.863
32528SOL     OW99480   9.483  10.492   1.008
32528SOL    HW199481   9.554  10.482   0.945
32528SOL    HW299482   9.481  10.585   1.028
32529SOL     OW99483  10.598   0.429   7.151
32529SOL    HW199484  10.673   0.370   7.158
32529SOL    HW299485  10.544   0.391   7.082
32530SOL     OW99486   6.234  14.368  10.501
32530SOL    HW199487   6.208  14.449  10.458
32530SOL    HW299488   6.177  14.361  10.577
32531SOL     OW99489  13.928   2.952   6.334
32531SOL    HW199490  13.920   2.862   6.366
32531SOL    HW299491  13.869   2.955   6.259
32532SOL     OW99492   6.100   8.257  14.365
32532SOL    HW199493   6.128   8.336  14.411
32532SOL    HW299494   6.086   8.192  14.433
32533SOL     OW99495   6.968  11.486   1.179
32533SOL    HW199496   6.977  11.391   1.165
32533SOL    HW299497   6.874  11.502   1.175
32534SOL     OW99498  11.253   9.773  10.544
32534SOL    HW199499  11.213   9.689  10.565
32534SOL    HW299500  11.181   9.836  10.549
32535SOL     OW99501  14.121   6.617   8.035
32535SOL    HW199502  14.037   6.581   8.062
32535SOL    HW299503  14.184   6.548   8.053
32536SOL     OW99504  12.972   2.217   2.708
32536SOL    HW199505  12.884   2.248   2.730
32536SOL    HW299506  13.031   2.279   2.751
32537SOL     OW99507   2.555   1.354   7.023
32537SOL    HW199508   2.532   1.428   7.080
32537SOL    HW299509   2.484   1.291   7.035
32538SOL     OW99510   5.753  14.103   2.842
32538SOL    HW199511   5.750  14.015   2.805
32538SOL    HW299512   5.732  14.161   2.768
32539SOL     OW99513  10.051   2.520   4.383
32539SOL    HW199514  10.074   2.557   4.298
32539SOL    HW299515  10.061   2.592   4.445
32540SOL     OW99516   4.737   2.486   3.371
32540SOL    HW199517   4.797   2.558   3.354
32540SOL    HW299518   4.650   2.526   3.367
32541SOL     OW99519   3.608   3.080   9.638
32541SOL    HW199520   3.555   3.134   9.580
32541SOL    HW299521   3.664   3.029   9.579
32542SOL     OW99522   6.470  13.552   0.470
32542SOL    HW199523   6.456  13.606   0.547
32542SOL    HW299524   6.495  13.613   0.401
32543SOL     OW99525  14.453   2.105   4.266
32543SOL    HW199526  14.384   2.171   4.257
32543SOL    HW299527  14.530   2.147   4.228
32544SOL     OW99528   4.759   7.919   9.145
32544SOL    HW199529   4.762   7.997   9.201
32544SOL    HW299530   4.671   7.919   9.109
32545SOL     OW99531  11.969  10.383   7.436
32545SOL    HW199532  12.063  10.389   7.456
32545SOL    HW299533  11.962  10.308   7.377
32546SOL     OW99534  12.976   3.959   4.377
32546SOL    HW199535  12.902   3.917   4.333
32546SOL    HW299536  12.936   4.023   4.436
32547SOL     OW99537  13.129  10.670   0.718
32547SOL    HW199538  13.041  10.688   0.685
32547SOL    HW299539  13.161  10.598   0.664
32548SOL     OW99540   7.362   6.118   8.354
32548SOL    HW199541   7.309   6.081   8.284
32548SOL    HW299542   7.299   6.137   8.424
32549SOL     OW99543   7.798  12.043   5.744
32549SOL    HW199544   7.759  12.129   5.756
32549SOL    HW299545   7.728  11.989   5.708
32550SOL     OW99546   0.037  13.078  10.496
32550SOL    HW199547   0.019  12.984  10.495
32550SOL    HW299548   0.055  13.100  10.405
32551SOL     OW99549  13.299   7.513   9.771
32551SOL    HW199550  13.269   7.588   9.720
32551SOL    HW299551  13.316   7.445   9.707
32552SOL     OW99552   6.961   2.027   2.414
32552SOL    HW199553   6.942   2.105   2.362
32552SOL    HW299554   6.996   1.964   2.351
32553SOL     OW99555  10.797   6.578   6.578
32553SOL    HW199556  10.886   6.553   6.557
32553SOL    HW299557  10.744   6.548   6.504
32554SOL     OW99558   9.746   3.862   3.623
32554SOL    HW199559   9.781   3.867   3.712
32554SOL    HW299560   9.787   3.784   3.586
32555SOL     OW99561   8.047   2.482   6.463
32555SOL    HW199562   7.999   2.433   6.530
32555SOL    HW299563   8.138   2.483   6.495
32556SOL     OW99564   5.002   0.365   1.805
32556SOL    HW199565   5.090   0.386   1.772
32556SOL    HW299566   4.948   0.439   1.777
32557SOL     OW99567  13.873  11.762  13.343
32557SOL    HW199568  13.811  11.824  13.306
32557SOL    HW299569  13.939  11.750  13.275
32558SOL     OW99570   7.668   8.299   3.479
32558SOL    HW199571   7.702   8.227   3.426
32558SOL    HW299572   7.573   8.294   3.467
32559SOL     OW99573  10.236  13.886   6.375
32559SOL    HW199574  10.296  13.836   6.320
32559SOL    HW299575  10.293  13.938   6.432
32560SOL     OW99576   7.633  14.166   7.241
32560SOL    HW199577   7.601  14.100   7.303
32560SOL    HW299578   7.655  14.116   7.162
32561SOL     OW99579   9.021  10.585  12.593
32561SOL    HW199580   9.000  10.670  12.631
32561SOL    HW299581   8.950  10.567  12.532
32562SOL     OW99582  10.622   4.325  14.864
32562SOL    HW199583  10.619   4.356  14.773
32562SOL    HW299584  10.553   4.373   0.036
32563SOL     OW99585   2.772  12.191  12.775
32563SOL    HW199586   2.743  12.226  12.859
32563SOL    HW299587   2.695  12.197  12.718
32564SOL     OW99588   5.703   1.536   6.387
32564SOL    HW199589   5.779   1.580   6.424
32564SOL    HW299590   5.669   1.482   6.459
32565SOL     OW99591  13.002   2.277  10.653
32565SOL    HW199592  12.942   2.321  10.713
32565SOL    HW299593  12.964   2.293  10.566
32566SOL     OW99594  13.212   9.696  11.440
32566SOL    HW199595  13.200   9.734  11.353
32566SOL    HW299596  13.295   9.731  11.471
32567SOL     OW99597   9.012   6.077   0.087
32567SOL    HW199598   9.068   6.153   0.073
32567SOL    HW299599   8.998   6.074   0.182
32568SOL     OW99600  13.226   7.323   8.411
32568SOL    HW199601  13.159   7.331   8.344
32568SOL    HW299602  13.309   7.332   8.363
32569SOL     OW99603   6.444  12.868   3.964
32569SOL    HW199604   6.398  12.948   3.992
32569SOL    HW299605   6.501  12.847   4.039
32570SOL     OW99606   0.600   6.339   6.911
32570SOL    HW199607   0.661   6.412   6.903
32570SOL    HW299608   0.598   6.300   6.823
32571SOL     OW99609   9.711   4.696   8.812
32571SOL    HW199610   9.711   4.699   8.907
32571SOL    HW299611   9.619   4.700   8.787
32572SOL     OW99612  10.312   9.272   0.342
32572SOL    HW199613  10.222   9.243   0.353
32572SOL    HW299614  10.331   9.257   0.250
32573SOL     OW99615   4.952   4.686  13.639
32573SOL    HW199616   4.947   4.592  13.652
32573SOL    HW299617   4.938   4.724  13.725
32574SOL     OW99618   1.926   4.396   0.186
32574SOL    HW199619   1.989   4.417   0.255
32574SOL    HW299620   1.867   4.332   0.226
32575SOL     OW99621   8.155   3.903  13.750
32575SOL    HW199622   8.157   3.947  13.665
32575SOL    HW299623   8.062   3.900  13.772
32576SOL     OW99624   3.212   8.571   8.983
32576SOL    HW199625   3.162   8.597   9.061
32576SOL    HW299626   3.192   8.638   8.918
32577SOL     OW99627  11.389   2.905   0.756
32577SOL    HW199628  11.474   2.942   0.731
32577SOL    HW299629  11.406   2.863   0.840
32578SOL     OW99630  14.835   4.071  11.028
32578SOL    HW199631  14.742   4.066  11.053
32578SOL    HW299632  14.867   4.150  11.072
32579SOL     OW99633  14.738   4.523  12.726
32579SOL    HW199634  14.717   4.577  12.651
32579SOL    HW299635  14.770   4.584  12.792
32580SOL     OW99636   5.542  12.051  14.517
32580SOL    HW199637   5.523  12.058  14.611
32580SOL    HW299638   5.456  12.057  14.475
32581SOL     OW99639   7.299   1.383   7.126
32581SOL    HW199640   7.278   1.306   7.073
32581SOL    HW299641   7.367   1.428   7.075
32582SOL     OW99642   1.321  11.922  12.911
32582SOL    HW199643   1.354  11.837  12.884
32582SOL    HW299644   1.270  11.953  12.836
32583SOL     OW99645  12.194   2.185  12.347
32583SOL    HW199646  12.156   2.110  12.391
32583SOL    HW299647  12.179   2.258  12.407
32584SOL     OW99648   4.511   9.607   6.022
32584SOL    HW199649   4.417   9.588   6.014
32584SOL    HW299650   4.520   9.697   5.991
32585SOL     OW99651   8.874   8.850  12.995
32585SOL    HW199652   8.823   8.783  13.040
32585SOL    HW299653   8.938   8.800  12.943
32586SOL     OW99654   6.996   6.172  14.788
32586SOL    HW199655   6.950   6.089  14.801
32586SOL    HW299656   6.947   6.236  14.840
32587SOL     OW99657  14.150  11.699  14.344
32587SOL    HW199658  14.239  11.701  14.379
32587SOL    HW299659  14.122  11.608  14.354
32588SOL     OW99660   3.440  11.344   5.845
32588SOL    HW199661   3.511  11.282   5.829
32588SOL    HW299662   3.402  11.315   5.929
32589SOL     OW99663   3.128   0.298   9.769
32589SOL    HW199664   3.148   0.315   9.677
32589SOL    HW299665   3.205   0.327   9.817
32590SOL     OW99666   5.419   0.199  14.308
32590SOL    HW199667   5.406   0.114  14.267
32590SOL    HW299668   5.481   0.244  14.251
32591SOL     OW99669  10.544  13.561  14.762
32591SOL    HW199670  10.492  13.565  14.842
32591SOL    HW299671  10.538  13.469  14.734
32592SOL     OW99672   2.382  12.303   8.610
32592SOL    HW199673   2.388  12.369   8.541
32592SOL    HW299674   2.441  12.233   8.582
32593SOL     OW99675  14.462   1.141  10.482
32593SOL    HW199676  14.524   1.133  10.554
32593SOL    HW299677  14.403   1.211  10.509
32594SOL     OW99678  10.766   4.742   5.418
32594SOL    HW199679  10.724   4.669   5.372
32594SOL    HW299680  10.798   4.798   5.347
32595SOL     OW99681   4.243   5.763   9.256
32595SOL    HW199682   4.241   5.858   9.257
32595SOL    HW299683   4.266   5.738   9.346
32596SOL     OW99684   2.069  11.380   0.303
32596SOL    HW199685   2.016  11.406   0.379
32596SOL    HW299686   2.073  11.459   0.250
32597SOL     OW99687   0.646   9.706   5.929
32597SOL    HW199688   0.554   9.681   5.922
32597SOL    HW299689   0.666   9.749   5.845
32598SOL     OW99690   6.581   0.873  11.448
32598SOL    HW199691   6.527   0.897  11.522
32598SOL    HW299692   6.669   0.860  11.485
32599SOL     OW99693   8.791   3.683   9.827
32599SOL    HW199694   8.855   3.685   9.898
32599SOL    HW299695   8.706   3.681   9.871
32600SOL     OW99696   2.466   0.080   3.785
32600SOL    HW199697   2.430   0.168   3.798
32600SOL    HW299698   2.550   0.082   3.831
32601SOL     OW99699   2.217   6.497  11.528
32601SOL    HW199700   2.212   6.402  11.515
32601SOL    HW299701   2.289   6.509  11.590
32602SOL     OW99702   3.198  11.013  14.681
32602SOL    HW199703   3.191  10.994  14.588
32602SOL    HW299704   3.163  11.102  14.690
32603SOL     OW99705   8.542   3.253   4.200
32603SOL    HW199706   8.466   3.201   4.227
32603SOL    HW299707   8.579   3.205   4.127
32604SOL     OW99708  12.415   4.501   0.801
32604SOL    HW199709  12.383   4.416   0.832
32604SOL    HW299710  12.467   4.536   0.873
32605SOL     OW99711   6.576   9.436  13.084
32605SOL    HW199712   6.586   9.484  13.001
32605SOL    HW299713   6.602   9.499  13.151
32606SOL     OW99714   1.927  11.195   3.173
32606SOL    HW199715   2.011  11.240   3.176
32606SOL    HW299716   1.949  11.104   3.153
32607SOL     OW99717   6.247   3.888   8.313
32607SOL    HW199718   6.257   3.895   8.408
32607SOL    HW299719   6.175   3.947   8.292
32608SOL     OW99720  14.110   8.829  13.495
32608SOL    HW199721  14.162   8.840  13.416
32608SOL    HW299722  14.069   8.914  13.509
32609SOL     OW99723   3.113   1.619   1.352
32609SOL    HW199724   3.118   1.691   1.290
32609SOL    HW299725   3.028   1.578   1.334
32610SOL     OW99726   7.844  10.698  13.815
32610SOL    HW199727   7.852  10.790  13.788
32610SOL    HW299728   7.811  10.703  13.905
32611SOL     OW99729   5.435   8.530   2.752
32611SOL    HW199730   5.395   8.531   2.838
32611SOL    HW299731   5.521   8.490   2.766
32612SOL     OW99732   2.988   7.701   8.945
32612SOL    HW199733   2.995   7.605   8.942
32612SOL    HW299734   3.009   7.729   8.856
32613SOL     OW99735   9.076  12.564   5.668
32613SOL    HW199736   9.051  12.472   5.660
32613SOL    HW299737   9.115  12.587   5.584
32614SOL     OW99738  11.430  14.548   0.987
32614SOL    HW199739  11.382  14.595   1.055
32614SOL    HW299740  11.395  14.458   0.990
32615SOL     OW99741   2.725  11.559   3.819
32615SOL    HW199742   2.727  11.573   3.914
32615SOL    HW299743   2.677  11.635   3.784
32616SOL     OW99744  11.643   7.102   8.097
32616SOL    HW199745  11.667   7.019   8.137
32616SOL    HW299746  11.606   7.078   8.012
32617SOL     OW99747  14.503   4.512  10.702
32617SOL    HW199748  14.540   4.468  10.625
32617SOL    HW299749  14.476   4.598  10.669
32618SOL     OW99750  13.134  13.460   6.695
32618SOL    HW199751  13.225  13.477   6.671
32618SOL    HW299752  13.097  13.547   6.712
32619SOL     OW99753   7.969  14.404  11.810
32619SOL    HW199754   7.922  14.393  11.727
32619SOL    HW299755   8.032  14.474  11.793
32620SOL     OW99756   5.600   3.581  12.108
32620SOL    HW199757   5.618   3.488  12.116
32620SOL    HW299758   5.577   3.609  12.197
32621SOL     OW99759   8.301   1.982   5.483
32621SOL    HW199760   8.345   1.978   5.398
32621SOL    HW299761   8.268   1.893   5.496
32622SOL     OW99762   7.209  10.095   8.357
32622SOL    HW199763   7.222  10.033   8.286
32622SOL    HW299764   7.248  10.053   8.433
32623SOL     OW99765   1.662   6.299  12.376
32623SOL    HW199766   1.635   6.390  12.363
32623SOL    HW299767   1.675   6.264  12.288
32624SOL     OW99768   8.945  14.108   4.266
32624SOL    HW199769   8.916  14.125   4.356
32624SOL    HW299770   8.865  14.082   4.220
32625SOL     OW99771   6.044  13.290   2.640
32625SOL    HW199772   6.009  13.369   2.598
32625SOL    HW299773   5.968  13.247   2.679
32626SOL     OW99774   7.738   2.364  14.826
32626SOL    HW199775   7.815   2.308  14.837
32626SOL    HW299776   7.748   2.401  14.738
32627SOL     OW99777  11.516  12.719   1.650
32627SOL    HW199778  11.570  12.784   1.695
32627SOL    HW299779  11.559  12.636   1.665
32628SOL     OW99780   1.877  13.302  14.118
32628SOL    HW199781   1.908  13.270  14.202
32628SOL    HW299782   1.857  13.395  14.134
32629SOL     OW99783   4.928   5.624   8.881
32629SOL    HW199784   5.011   5.671   8.888
32629SOL    HW299785   4.883   5.644   8.963
32630SOL     OW99786   0.937  10.332   4.265
32630SOL    HW199787   1.022  10.312   4.303
32630SOL    HW299788   0.950  10.415   4.219
32631SOL     OW99789  10.330   2.954   6.432
32631SOL    HW199790  10.373   3.007   6.365
32631SOL    HW299791  10.341   2.864   6.402
32632SOL     OW99792  10.227  12.976   7.771
32632SOL    HW199793  10.316  12.946   7.752
32632SOL    HW299794  10.211  13.045   7.708
32633SOL     OW99795   7.156  12.095   1.124
32633SOL    HW199796   7.229  12.052   1.079
32633SOL    HW299797   7.145  12.178   1.078
32634SOL     OW99798   4.257  11.677  14.443
32634SOL    HW199799   4.194  11.613  14.410
32634SOL    HW299800   4.286  11.725  14.365
32635SOL     OW99801  13.432   6.276   2.442
32635SOL    HW199802  13.480   6.193   2.441
32635SOL    HW299803  13.461   6.322   2.364
32636SOL     OW99804   4.919   6.375   5.750
32636SOL    HW199805   4.929   6.281   5.766
32636SOL    HW299806   4.953   6.388   5.661
32637SOL     OW99807   7.196   5.369   8.993
32637SOL    HW199808   7.256   5.295   8.993
32637SOL    HW299809   7.244   5.439   9.038
32638SOL     OW99810  13.773   9.259   9.763
32638SOL    HW199811  13.716   9.293   9.694
32638SOL    HW299812  13.763   9.164   9.757
32639SOL     OW99813  13.265   3.850   1.926
32639SOL    HW199814  13.231   3.931   1.889
32639SOL    HW299815  13.253   3.860   2.021
32640SOL     OW99816  13.844   6.414   9.123
32640SOL    HW199817  13.796   6.400   9.205
32640SOL    HW299818  13.936   6.408   9.149
32641SOL     OW99819   3.126   2.012   6.121
32641SOL    HW199820   3.144   1.918   6.124
32641SOL    HW299821   3.075   2.025   6.041
32642SOL     OW99822   1.768   5.366   2.059
32642SOL    HW199823   1.716   5.381   1.980
32642SOL    HW299824   1.805   5.451   2.080
32643SOL     OW99825  12.405  11.618  11.610
32643SOL    HW199826  12.423  11.591  11.701
32643SOL    HW299827  12.352  11.547  11.575
32644SOL     OW99828   4.909   2.255   5.387
32644SOL    HW199829   4.965   2.228   5.314
32644SOL    HW299830   4.935   2.198   5.460
32645SOL     OW99831   7.475  12.091   4.915
32645SOL    HW199832   7.497  12.114   5.005
32645SOL    HW299833   7.514  12.161   4.863
32646SOL     OW99834   8.666  11.825   7.143
32646SOL    HW199835   8.696  11.885   7.075
32646SOL    HW299836   8.672  11.738   7.102
32647SOL     OW99837   2.233  14.773   1.239
32647SOL    HW199838   2.231  14.867   1.257
32647SOL    HW299839   2.253  14.732   1.323
32648SOL     OW99840   3.075  12.588   7.722
32648SOL    HW199841   2.990  12.626   7.748
32648SOL    HW299842   3.083  12.610   7.629
32649SOL     OW99843   4.014   4.645   1.514
32649SOL    HW199844   4.005   4.565   1.462
32649SOL    HW299845   4.061   4.617   1.593
32650SOL     OW99846   4.952  10.973   3.274
32650SOL    HW199847   4.950  11.068   3.264
32650SOL    HW299848   5.025  10.944   3.219
32651SOL     OW99849   5.078   6.615  11.571
32651SOL    HW199850   5.155   6.558  11.567
32651SOL    HW299851   5.034   6.601  11.487
32652SOL     OW99852   4.670   6.988  13.706
32652SOL    HW199853   4.738   7.053  13.690
32652SOL    HW299854   4.680   6.964  13.798
32653SOL     OW99855   5.284   3.926  14.740
32653SOL    HW199856   5.347   3.964  14.801
32653SOL    HW299857   5.309   3.960  14.655
32654SOL     OW99858   8.077   8.297  14.847
32654SOL    HW199859   8.103   8.386  14.826
32654SOL    HW299860   8.144   8.242  14.806
32655SOL     OW99861   9.172   2.244  10.392
32655SOL    HW199862   9.193   2.281  10.477
32655SOL    HW299863   9.170   2.319  10.332
32656SOL     OW99864   1.673  11.480  11.486
32656SOL    HW199865   1.599  11.435  11.528
32656SOL    HW299866   1.746  11.468  11.548
32657SOL     OW99867   5.572  10.763  11.489
32657SOL    HW199868   5.575  10.777  11.394
32657SOL    HW299869   5.577  10.851  11.526
32658SOL     OW99870  11.154   3.907  14.361
32658SOL    HW199871  11.215   3.975  14.335
32658SOL    HW299872  11.091   3.902  14.289
32659SOL     OW99873  11.081  10.253   0.806
32659SOL    HW199874  11.000  10.242   0.757
32659SOL    HW299875  11.136  10.307   0.749
32660SOL     OW99876   5.261   9.927   2.361
32660SOL    HW199877   5.249  10.022   2.351
32660SOL    HW299878   5.322   9.919   2.435
32661SOL     OW99879  11.744   5.412   3.011
32661SOL    HW199880  11.770   5.329   2.971
32661SOL    HW299881  11.775   5.479   2.951
32662SOL     OW99882  14.442  13.937  10.758
32662SOL    HW199883  14.522  13.972  10.798
32662SOL    HW299884  14.474  13.872  10.696
32663SOL     OW99885   3.991   4.129   8.788
32663SOL    HW199886   4.018   4.089   8.705
32663SOL    HW299887   4.020   4.220   8.781
32664SOL     OW99888   5.850   8.770   5.541
32664SOL    HW199889   5.944   8.776   5.526
32664SOL    HW299890   5.822   8.692   5.494
32665SOL     OW99891  11.007   5.724   6.593
32665SOL    HW199892  10.938   5.659   6.608
32665SOL    HW299893  10.962   5.808   6.599
32666SOL     OW99894   1.689   3.549  11.488
32666SOL    HW199895   1.679   3.514  11.576
32666SOL    HW299896   1.607   3.526  11.443
32667SOL     OW99897   6.841   6.081   0.631
32667SOL    HW199898   6.837   6.175   0.611
32667SOL    HW299899   6.755   6.048   0.604
32668SOL     OW99900  11.819   7.470   6.670
32668SOL    HW199901  11.886   7.414   6.630
32668SOL    HW299902  11.867   7.548   6.698
32669SOL     OW99903  10.147  12.258   7.073
32669SOL    HW199904  10.108  12.341   7.099
32669SOL    HW299905  10.099  12.192   7.123
32670SOL     OW99906  10.388  13.481   1.760
32670SOL    HW199907  10.454  13.535   1.804
32670SOL    HW299908  10.430  13.454   1.679
32671SOL     OW99909   9.875   8.106   8.472
32671SOL    HW199910   9.857   8.062   8.555
32671SOL    HW299911   9.835   8.050   8.405
32672SOL     OW99912  12.870   6.303   5.860
32672SOL    HW199913  12.838   6.233   5.917
32672SOL    HW299914  12.906   6.258   5.784
32673SOL     OW99915   5.500  14.047   3.652
32673SOL    HW199916   5.463  14.134   3.638
32673SOL    HW299917   5.427  13.987   3.635
32674SOL     OW99918   6.171   2.084   4.705
32674SOL    HW199919   6.248   2.052   4.658
32674SOL    HW299920   6.117   2.125   4.637
32675SOL     OW99921   9.224   5.122   5.960
32675SOL    HW199922   9.203   5.063   5.888
32675SOL    HW299923   9.274   5.193   5.919
32676SOL     OW99924   8.820   8.626  11.302
32676SOL    HW199925   8.813   8.681  11.380
32676SOL    HW299926   8.911   8.635  11.274
32677SOL     OW99927  11.581  14.701  11.708
32677SOL    HW199928  11.577  14.735  11.619
32677SOL    HW299929  11.490  14.696  11.736
32678SOL     OW99930   2.671   9.894   9.647
32678SOL    HW199931   2.753   9.880   9.599
32678SOL    HW299932   2.699   9.933   9.730
32679SOL     OW99933   9.330  11.892  14.108
32679SOL    HW199934   9.295  11.893  14.197
32679SOL    HW299935   9.331  11.800  14.083
32680SOL     OW99936   9.820  10.205  13.575
32680SOL    HW199937   9.744  10.146  13.575
32680SOL    HW299938   9.829  10.233  13.484
32681SOL     OW99939  10.330   4.327  11.229
32681SOL    HW199940  10.314   4.365  11.143
32681SOL    HW299941  10.295   4.238  11.223
32682SOL     OW99942   5.834   0.541  10.474
32682SOL    HW199943   5.896   0.468  10.472
32682SOL    HW299944   5.802   0.543  10.564
32683SOL     OW99945   4.540   9.199   2.526
32683SOL    HW199946   4.539   9.237   2.438
32683SOL    HW299947   4.535   9.105   2.511
32684SOL     OW99948  10.655   8.024   2.376
32684SOL    HW199949  10.629   7.995   2.464
32684SOL    HW299950  10.604   7.969   2.317
32685SOL     OW99951   4.356  12.986  14.828
32685SOL    HW199952   4.352  12.917   0.022
32685SOL    HW299953   4.264  13.001  14.803
32686SOL     OW99954   8.190   5.735   2.436
32686SOL    HW199955   8.196   5.737   2.532
32686SOL    HW299956   8.219   5.647   2.413
32687SOL     OW99957   1.518   7.687  10.561
32687SOL    HW199958   1.558   7.734  10.488
32687SOL    HW299959   1.575   7.611  10.575
32688SOL     OW99960   2.777  13.666  14.293
32688SOL    HW199961   2.787  13.607  14.218
32688SOL    HW299962   2.864  13.703  14.307
32689SOL     OW99963   1.323   3.257  10.236
32689SOL    HW199964   1.388   3.273  10.167
32689SOL    HW299965   1.334   3.165  10.259
32690SOL     OW99966   1.259   0.075   8.535
32690SOL    HW199967   1.329   0.035   8.586
32690SOL    HW299968   1.184   0.078   8.595
32691SOL     OW99969  12.800   4.406   8.925
32691SOL    HW199970  12.805   4.327   8.978
32691SOL    HW299971  12.886   4.412   8.883
32692SOL     OW99972   3.056   0.227   0.309
32692SOL    HW199973   3.056   0.132   0.295
32692SOL    HW299974   2.964   0.252   0.310
32693SOL     OW99975   9.898  14.085   2.976
32693SOL    HW199976   9.910  14.099   3.070
32693SOL    HW299977   9.941  14.001   2.959
32694SOL     OW99978   6.941  14.757   2.528
32694SOL    HW199979   6.890  14.827   2.568
32694SOL    HW299980   6.889  14.678   2.543
32695SOL     OW99981   3.282   7.705  11.729
32695SOL    HW199982   3.367   7.748  11.742
32695SOL    HW299983   3.300   7.635  11.667
32696SOL     OW99984   9.446  14.572  14.276
32696SOL    HW199985   9.398  14.582  14.194
32696SOL    HW299986   9.415  14.643  14.331
32697SOL     OW99987  12.969   7.379   6.165
32697SOL    HW199988  12.914   7.372   6.243
32697SOL    HW299989  12.949   7.465   6.129
32698SOL     OW99990   8.820   5.363   9.766
32698SOL    HW199991   8.826   5.407   9.851
32698SOL    HW299992   8.831   5.270   9.787
32699SOL     OW99993  14.282   4.926  14.431
32699SOL    HW199994  14.301   4.965  14.345
32699SOL    HW299995  14.368   4.910  14.469
32700SOL     OW99996   9.540   4.240  11.226
32700SOL    HW199997   9.528   4.306  11.158
32700SOL    HW299998   9.458   4.239  11.275
32701SOL     OW99999   1.166   5.410   1.666
32701SOL    HW1    0   1.107   5.429   1.594
32701SOL    HW2    1   1.230   5.481   1.664
32702SOL     OW    2  11.004   9.903  10.536
32702SOL    HW1    3  10.966   9.967  10.597
32702SOL    HW2    4  10.937   9.836  10.526
32703SOL     OW    5  10.221   2.263  10.026
32703SOL    HW1    6  10.223   2.350  10.066
32703SOL    HW2    7  10.265   2.206  10.090
32704SOL     OW    8  11.542  14.395   9.021
32704SOL    HW1    9  11.494  14.319   9.051
32704SOL    HW2   10  11.543  14.386   8.925
32705SOL     OW   11   9.746   0.146  12.167
32705SOL    HW1   12   9.803   0.087  12.217
32705SOL    HW2   13   9.805   0.213  12.132
32706SOL     OW   14   8.101  11.817   0.014
32706SOL    HW1   15   8.039  11.887   0.035
32706SOL    HW2   16   8.047  11.739   0.004
32707SOL     OW   17   6.827  12.685   6.693
32707SOL    HW1   18   6.871  12.701   6.610
32707SOL    HW2   19   6.742  12.727   6.684
32708SOL     OW   20   7.649   9.369   5.872
32708SOL    HW1   21   7.744   9.373   5.867
32708SOL    HW2   22   7.628   9.277   5.856
32709SOL     OW   23   8.549   8.130   7.820
32709SOL    HW1   24   8.635   8.157   7.788
32709SOL    HW2   25   8.568   8.062   7.886
32710SOL     OW   26   1.260   8.275   9.449
32710SOL    HW1   27   1.289   8.355   9.405
32710SOL    HW2   28   1.166   8.271   9.430
32711SOL     OW   29   5.539   2.185   8.548
32711SOL    HW1   30   5.465   2.160   8.492
32711SOL    HW2   31   5.499   2.229   8.623
32712SOL     OW   32   6.676  14.050  13.931
32712SOL    HW1   33   6.634  14.136  13.935
32712SOL    HW2   34   6.627  13.997  13.993
32713SOL     OW   35  12.428  14.311   3.209
32713SOL    HW1   36  12.514  14.313   3.250
32713SOL    HW2   37  12.382  14.240   3.253
32714SOL     OW   38   5.866   8.702  11.772
32714SOL    HW1   39   5.820   8.775  11.730
32714SOL    HW2   40   5.922   8.666  11.703
32715SOL     OW   41   3.447   3.800   2.223
32715SOL    HW1   42   3.474   3.888   2.198
32715SOL    HW2   43   3.359   3.811   2.259
32716SOL     OW   44   3.916  12.911   1.722
32716SOL    HW1   45   3.950  12.849   1.658
32716SOL    HW2   46   3.906  12.861   1.803
32717SOL     OW   47   3.302   3.976   3.776
32717SOL    HW1   48   3.261   3.973   3.862
32717SOL    HW2   49   3.378   3.919   3.784
32718SOL     OW   50  12.038  10.884   1.092
32718SOL    HW1   51  11.980  10.885   1.016
32718SOL    HW2   52  11.992  10.830   1.156
32719SOL     OW   53  10.700   2.948  10.812
32719SOL    HW1   54  10.729   2.885  10.746
32719SOL    HW2   55  10.781   2.977  10.855
32720SOL     OW   56   7.652   3.652   7.141
32720SOL    HW1   57   7.720   3.718   7.126
32720SOL    HW2   58   7.571   3.702   7.145
32721SOL     OW   59   9.175   7.847   8.798
32721SOL    HW1   60   9.082   7.826   8.794
32721SOL    HW2   61   9.219   7.763   8.789
32722SOL     OW   62  13.224   0.333   2.612
32722SOL    HW1   63  13.246   0.406   2.553
32722SOL    HW2   64  13.134   0.310   2.589
32723SOL     OW   65   2.644  10.615   2.899
32723SOL    HW1   66   2.676  10.643   2.813
32723SOL    HW2   67   2.692  10.535   2.918
32724SOL     OW   68  14.573   2.005  13.496
32724SOL    HW1   69  14.582   1.978  13.587
32724SOL    HW2   70  14.491   2.054  13.493
32725SOL     OW   71   7.410  13.975  10.150
32725SOL    HW1   72   7.419  13.947  10.059
32725SOL    HW2   73   7.319  13.958  10.172
32726SOL     OW   74   7.187  12.196   8.391
32726SOL    HW1   75   7.267  12.237   8.357
32726SOL    HW2   76   7.184  12.111   8.347
32727SOL     OW   77  12.503  11.249   0.573
32727SOL    HW1   78  12.414  11.269   0.603
32727SOL    HW2   79  12.494  11.166   0.527
32728SOL     OW   80   7.191  11.708   9.035
32728SOL    HW1   81   7.262  11.766   9.062
32728SOL    HW2   82   7.144  11.689   9.116
32729SOL     OW   83  11.602  11.030   7.693
32729SOL    HW1   84  11.572  11.084   7.766
32729SOL    HW2   85  11.527  11.028   7.633
32730SOL     OW   86   6.305   9.501   9.906
32730SOL    HW1   87   6.317   9.577   9.849
32730SOL    HW2   88   6.295   9.538   9.994
32731SOL     OW   89  10.402   0.833  10.325
32731SOL    HW1   90  10.377   0.854  10.415
32731SOL    HW2   91  10.379   0.741  10.314
32732SOL     OW   92   0.949  12.374   2.687
32732SOL    HW1   93   0.933  12.299   2.630
32732SOL    HW2   94   0.975  12.336   2.770
32733SOL     OW   95   3.468  14.092   5.870
32733SOL    HW1   96   3.480  14.082   5.964
32733SOL    HW2   97   3.549  14.057   5.832
32734SOL     OW   98   5.286  12.098  10.939
32734SOL    HW1   99   5.272  12.058  11.025
32734SOL    HW2  100   5.235  12.044  10.879
32735SOL     OW  101   8.707  12.489   1.777
32735SOL    HW1  102   8.767  12.415   1.767
32735SOL    HW2  103   8.718  12.517   1.868
32736SOL     OW  104   6.495  14.852   5.011
32736SOL    HW1  105   6.472  14.760   5.026
32736SOL    HW2  106   6.492  14.863   4.916
32737SOL     OW  107  13.192  11.748   8.331
32737SOL    HW1  108  13.103  11.714   8.328
32737SOL    HW2  109  13.210  11.762   8.424
32738SOL     OW  110   4.534  11.222  12.518
32738SOL    HW1  111   4.593  11.155  12.552
32738SOL    HW2  112   4.546  11.219  12.423
32739SOL     OW  113   5.530   8.647  10.400
32739SOL    HW1  114   5.538   8.580  10.468
32739SOL    HW2  115   5.446   8.629  10.357
32740SOL     OW  116   5.709  10.905  13.325
32740SOL    HW1  117   5.663  10.989  13.321
32740SOL    HW2  118   5.697  10.868  13.237
32741SOL     OW  119   6.793   2.798   4.697
32741SOL    HW1  120   6.830   2.874   4.652
32741SOL    HW2  121   6.837   2.723   4.658
32742SOL     OW  122  13.778   7.610   1.239
32742SOL    HW1  123  13.693   7.576   1.269
32742SOL    HW2  124  13.820   7.642   1.318
32743SOL     OW  125   4.206   4.780   8.651
32743SOL    HW1  126   4.299   4.756   8.658
32743SOL    HW2  127   4.207   4.871   8.622
32744SOL     OW  128  14.677   6.833   4.354
32744SOL    HW1  129  14.746   6.777   4.390
32744SOL    HW2  130  14.707   6.922   4.370
32745SOL     OW  131   7.457   5.073   0.560
32745SOL    HW1  132   7.409   5.072   0.478
32745SOL    HW2  133   7.458   4.982   0.589
32746SOL     OW  134   5.835  13.841  11.099
32746SOL    HW1  135   5.903  13.907  11.086
32746SOL    HW2  136   5.775  13.853  11.026
32747SOL     OW  137   6.945   0.202   2.821
32747SOL    HW1  138   6.863   0.177   2.864
32747SOL    HW2  139   6.967   0.287   2.859
32748SOL     OW  140   8.395   7.549   4.155
32748SOL    HW1  141   8.383   7.455   4.167
32748SOL    HW2  142   8.470   7.556   4.096
32749SOL     OW  143   0.853   0.122   6.257
32749SOL    HW1  144   0.795   0.053   6.288
32749SOL    HW2  145   0.940   0.095   6.288
32750SOL     OW  146   1.283   5.025   4.330
32750SOL    HW1  147   1.314   4.983   4.410
32750SOL    HW2  148   1.222   5.092   4.360
32751SOL     OW  149  14.774   3.058  10.033
32751SOL    HW1  150  14.781   2.999  10.108
32751SOL    HW2  151  14.852   3.041   9.981
32752SOL     OW  152  14.517   6.735  10.710
32752SOL    HW1  153  14.543   6.645  10.690
32752SOL    HW2  154  14.492   6.733  10.802
32753SOL     OW  155   2.251  11.899   6.111
32753SOL    HW1  156   2.346  11.900   6.108
32753SOL    HW2  157   2.228  11.981   6.156
32754SOL     OW  158   0.451   8.121   0.205
32754SOL    HW1  159   0.356   8.117   0.216
32754SOL    HW2  160   0.486   8.117   0.295
32755SOL     OW  161   2.390   7.622   1.655
32755SOL    HW1  162   2.437   7.575   1.724
32755SOL    HW2  163   2.416   7.714   1.668
32756SOL     OW  164   1.165   0.899   0.358
32756SOL    HW1  165   1.144   0.991   0.342
32756SOL    HW2  166   1.097   0.870   0.420
32757SOL     OW  167   3.212   5.956   8.855
32757SOL    HW1  168   3.136   6.007   8.828
32757SOL    HW2  169   3.236   5.905   8.778
32758SOL     OW  170  11.789   7.855  11.172
32758SOL    HW1  171  11.734   7.926  11.137
32758SOL    HW2  172  11.765   7.778  11.121
32759SOL     OW  173   4.336  14.418   7.367
32759SOL    HW1  174   4.404  14.473   7.406
32759SOL    HW2  175   4.385  14.353   7.317
32760SOL     OW  176   3.986   8.981   0.968
32760SOL    HW1  177   3.992   8.940   1.054
32760SOL    HW2  178   4.050   9.052   0.971
32761SOL     OW  179   8.469  13.947   2.621
32761SOL    HW1  180   8.518  14.007   2.677
32761SOL    HW2  181   8.532  13.918   2.556
32762SOL     OW  182   5.359   8.373   9.972
32762SOL    HW1  183   5.424   8.417   9.916
32762SOL    HW2  184   5.303   8.444  10.004
32763SOL     OW  185   4.412   2.779   1.369
32763SOL    HW1  186   4.399   2.741   1.456
32763SOL    HW2  187   4.506   2.795   1.363
32764SOL     OW  188   8.383   3.942   4.084
32764SOL    HW1  189   8.338   4.022   4.110
32764SOL    HW2  190   8.446   3.970   4.018
32765SOL     OW  191  12.179  10.554   6.416
32765SOL    HW1  192  12.263  10.553   6.462
32765SOL    HW2  193  12.201  10.584   6.327
32766SOL     OW  194   3.956   4.489   6.875
32766SOL    HW1  195   3.931   4.466   6.965
32766SOL    HW2  196   3.907   4.428   6.820
32767SOL     OW  197  13.673   4.357   6.132
32767SOL    HW1  198  13.696   4.278   6.180
32767SOL    HW2  199  13.754   4.408   6.130
32768SOL     OW  200   4.531   5.289   0.311
32768SOL    HW1  201   4.449   5.244   0.291
32768SOL    HW2  202   4.596   5.247   0.255
32769SOL     OW  203   0.896  12.232  14.089
32769SOL    HW1  204   0.990  12.216  14.086
32769SOL    HW2  205   0.866  12.195  14.172
32770SOL     OW  206  14.361   0.534  14.611
32770SOL    HW1  207  14.418   0.458  14.599
32770SOL    HW2  208  14.348   0.569  14.523
32771SOL     OW  209   3.904   1.050   5.718
32771SOL    HW1  210   3.931   1.122   5.660
32771SOL    HW2  211   3.822   1.018   5.680
32772SOL     OW  212   2.191   3.199   3.254
32772SOL    HW1  213   2.168   3.134   3.320
32772SOL    HW2  214   2.224   3.147   3.180
32773SOL     OW  215   7.536   5.866  13.746
32773SOL    HW1  216   7.488   5.796  13.788
32773SOL    HW2  217   7.501   5.870  13.657
32774SOL     OW  218  10.422   0.474  12.717
32774SOL    HW1  219  10.388   0.398  12.764
32774SOL    HW2  220  10.393   0.549  12.768
32775SOL     OW  221   9.382   4.324   2.530
32775SOL    HW1  222   9.342   4.239   2.545
32775SOL    HW2  223   9.476   4.306   2.527
32776SOL     OW  224   7.013  12.580   1.937
32776SOL    HW1  225   7.067  12.659   1.935
32776SOL    HW2  226   7.075  12.508   1.952
32777SOL     OW  227   2.803   7.575  12.867
32777SOL    HW1  228   2.867   7.519  12.824
32777SOL    HW2  229   2.856   7.633  12.922
32778SOL     OW  230  14.568   4.778  13.403
32778SOL    HW1  231  14.635   4.776  13.471
32778SOL    HW2  232  14.499   4.834  13.439
32779SOL     OW  233   6.919   6.010  13.145
32779SOL    HW1  234   6.928   5.924  13.186
32779SOL    HW2  235   6.959   6.000  13.059
32780SOL     OW  236   4.381   4.006   0.320
32780SOL    HW1  237   4.327   3.927   0.318
32780SOL    HW2  238   4.404   4.016   0.413
32781SOL     OW  239   6.731   8.412   2.133
32781SOL    HW1  240   6.724   8.326   2.176
32781SOL    HW2  241   6.803   8.402   2.071
32782SOL     OW  242  13.254   9.464   9.107
32782SOL    HW1  243  13.243   9.550   9.066
32782SOL    HW2  244  13.343   9.465   9.141
32783SOL     OW  245  11.892   5.711  11.868
32783SOL    HW1  246  11.976   5.750  11.892
32783SOL    HW2  247  11.901   5.688  11.776
32784SOL     OW  248  11.323   7.130  12.270
32784SOL    HW1  249  11.359   7.143  12.358
32784SOL    HW2  250  11.351   7.207  12.220
32785SOL     OW  251   4.935   8.609  14.098
32785SOL    HW1  252   4.864   8.547  14.113
32785SOL    HW2  253   4.964   8.592  14.009
32786SOL     OW  254   8.794  14.568   3.560
32786SOL    HW1  255   8.764  14.658   3.567
32786SOL    HW2  256   8.714  14.516   3.549
32787SOL     OW  257   4.535   2.331   2.621
32787SOL    HW1  258   4.526   2.418   2.582
32787SOL    HW2  259   4.616   2.335   2.672
32788SOL     OW  260   8.847  11.963  10.376
32788SOL    HW1  261   8.903  11.977  10.452
32788SOL    HW2  262   8.904  11.920  10.312
32789SOL     OW  263   4.262  10.825  13.789
32789SOL    HW1  264   4.195  10.862  13.846
32789SOL    HW2  265   4.322  10.779  13.848
32790SOL     OW  266  11.719   8.021   5.877
32790SOL    HW1  267  11.780   8.092   5.901
32790SOL    HW2  268  11.765   7.973   5.808
32791SOL     OW  269   0.622   7.795   4.660
32791SOL    HW1  270   0.639   7.776   4.753
32791SOL    HW2  271   0.623   7.710   4.617
32792SOL     OW  272   7.081   3.773  13.086
32792SOL    HW1  273   7.114   3.844  13.031
32792SOL    HW2  274   7.006   3.812  13.132
32793SOL     OW  275   2.652  14.379  13.963
32793SOL    HW1  276   2.734  14.396  14.009
32793SOL    HW2  277   2.659  14.431  13.882
32794SOL     OW  278   3.194  14.386   7.087
32794SOL    HW1  279   3.127  14.342   7.140
32794SOL    HW2  280   3.272  14.387   7.143
32795SOL     OW  281   3.993   8.165   0.035
32795SOL    HW1  282   3.902   8.148   0.010
32795SOL    HW2  283   4.045   8.115  14.844
32796SOL     OW  284   9.585   0.355   5.775
32796SOL    HW1  285   9.616   0.431   5.727
32796SOL    HW2  286   9.642   0.349   5.852
32797SOL     OW  287   5.075  13.158   2.574
32797SOL    HW1  288   5.008  13.165   2.506
32797SOL    HW2  289   5.156  13.143   2.526
32798SOL     OW  290  14.288   3.066  14.480
32798SOL    HW1  291  14.200   3.042  14.454
32798SOL    HW2  292  14.287   3.064  14.576
32799SOL     OW  293   1.609   1.484   7.380
32799SOL    HW1  294   1.565   1.522   7.456
32799SOL    HW2  295   1.632   1.560   7.325
32800SOL     OW  296  11.416  10.646   9.422
32800SOL    HW1  297  11.395  10.567   9.373
32800SOL    HW2  298  11.381  10.717   9.369
32801SOL     OW  299   8.439  13.286  10.575
32801SOL    HW1  300   8.352  13.256  10.550
32801SOL    HW2  301   8.481  13.208  10.612
32802SOL     OW  302  13.787   8.468  11.323
32802SOL    HW1  303  13.856   8.530  11.348
32802SOL    HW2  304  13.734   8.516  11.259
32803SOL     OW  305  13.633   1.099   4.024
32803SOL    HW1  306  13.676   1.144   3.951
32803SOL    HW2  307  13.704   1.052   4.068
32804SOL     OW  308   8.678   8.267   4.074
32804SOL    HW1  309   8.711   8.253   4.162
32804SOL    HW2  310   8.583   8.273   4.085
32805SOL     OW  311   5.883   4.442  11.250
32805SOL    HW1  312   5.927   4.386  11.186
32805SOL    HW2  313   5.888   4.392  11.332
32806SOL     OW  314   1.819  11.518   7.729
32806SOL    HW1  315   1.905  11.498   7.691
32806SOL    HW2  316   1.834  11.596   7.782
32807SOL     OW  317  14.456   6.265  10.575
32807SOL    HW1  318  14.497   6.185  10.541
32807SOL    HW2  319  14.362   6.246  10.573
32808SOL     OW  320   0.866   5.373   7.103
32808SOL    HW1  321   0.844   5.464   7.124
32808SOL    HW2  322   0.946   5.356   7.152
32809SOL     OW  323  11.922   3.186   2.734
32809SOL    HW1  324  11.834   3.190   2.771
32809SOL    HW2  325  11.981   3.198   2.808
32810SOL     OW  326   3.056   2.832   4.454
32810SOL    HW1  327   3.075   2.759   4.395
32810SOL    HW2  328   2.968   2.860   4.429
32811SOL     OW  329  11.006  12.246   1.425
32811SOL    HW1  330  11.023  12.203   1.508
32811SOL    HW2  331  11.090  12.286   1.401
32812SOL     OW  332  11.218  13.984  11.617
32812SOL    HW1  333  11.129  13.996  11.582
32812SOL    HW2  334  11.215  14.023  11.704
32813SOL     OW  335   1.535  10.977   9.863
32813SOL    HW1  336   1.491  10.923   9.798
32813SOL    HW2  337   1.590  11.037   9.812
32814SOL     OW  338   8.392  11.118   8.094
32814SOL    HW1  339   8.384  11.205   8.054
32814SOL    HW2  340   8.307  11.103   8.135
32815SOL     OW  341  11.107  14.088   0.365
32815SOL    HW1  342  11.083  14.160   0.306
32815SOL    HW2  343  11.042  14.092   0.435
32816SOL     OW  344   2.485  12.240  10.734
32816SOL    HW1  345   2.553  12.192  10.686
32816SOL    HW2  346   2.415  12.252  10.670
32817SOL     OW  347   6.963   6.207   9.095
32817SOL    HW1  348   7.020   6.189   9.020
32817SOL    HW2  349   6.905   6.131   9.100
32818SOL     OW  350   1.975   8.438   3.964
32818SOL    HW1  351   1.908   8.398   3.908
32818SOL    HW2  352   1.940   8.524   3.985
32819SOL     OW  353  12.134   1.501   6.943
32819SOL    HW1  354  12.170   1.569   6.886
32819SOL    HW2  355  12.080   1.448   6.885
32820SOL     OW  356   8.766   0.183   7.314
32820SOL    HW1  357   8.672   0.193   7.330
32820SOL    HW2  358   8.807   0.252   7.366
32821SOL     OW  359   0.319   7.327   0.529
32821SOL    HW1  360   0.268   7.317   0.449
32821SOL    HW2  361   0.282   7.263   0.590
32822SOL     OW  362   0.424   0.607   1.579
32822SOL    HW1  363   0.343   0.569   1.542
32822SOL    HW2  364   0.394   0.684   1.627
32823SOL     OW  365   5.106  14.034   0.201
32823SOL    HW1  366   5.074  14.075   0.282
32823SOL    HW2  367   5.097  14.103   0.135
32824SOL     OW  368  10.188   1.407  10.662
32824SOL    HW1  369  10.104   1.448  10.684
32824SOL    HW2  370  10.235   1.403  10.745
32825SOL     OW  371  13.349  11.402  11.113
32825SOL    HW1  372  13.341  11.318  11.158
32825SOL    HW2  373  13.412  11.451  11.165
32826SOL     OW  374   1.355  11.633   7.008
32826SOL    HW1  375   1.381  11.599   7.094
32826SOL    HW2  376   1.312  11.560   6.965
32827SOL     OW  377   4.604   5.774   3.591
32827SOL    HW1  378   4.573   5.684   3.586
32827SOL    HW2  379   4.591   5.809   3.503
32828SOL     OW  380   7.619  12.452   1.955
32828SOL    HW1  381   7.557  12.523   1.969
32828SOL    HW2  382   7.702  12.496   1.937
32829SOL     OW  383   9.789   7.922   2.824
32829SOL    HW1  384   9.703   7.897   2.789
32829SOL    HW2  385   9.840   7.841   2.819
32830SOL     OW  386   2.972  10.089   1.742
32830SOL    HW1  387   2.900  10.141   1.708
32830SOL    HW2  388   2.988  10.023   1.676
32831SOL     OW  389   4.844   3.128   2.778
32831SOL    HW1  390   4.888   3.213   2.782
32831SOL    HW2  391   4.767   3.138   2.834
32832SOL     OW  392   7.549   9.842   0.028
32832SOL    HW1  393   7.530   9.818   0.119
32832SOL    HW2  394   7.517   9.931   0.020
32833SOL     OW  395  13.777   5.979   0.616
32833SOL    HW1  396  13.689   6.003   0.646
32833SOL    HW2  397  13.822   5.950   0.696
32834SOL     OW  398   1.645   3.144  12.456
32834SOL    HW1  399   1.623   3.124  12.547
32834SOL    HW2  400   1.560   3.145  12.411
32835SOL     OW  401   6.326   1.390   0.479
32835SOL    HW1  402   6.380   1.455   0.525
32835SOL    HW2  403   6.294   1.332   0.549
32836SOL     OW  404  13.156   2.632   9.682
32836SOL    HW1  405  13.071   2.631   9.726
32836SOL    HW2  406  13.148   2.568   9.612
32837SOL     OW  407   6.910  14.617   9.471
32837SOL    HW1  408   6.985  14.562   9.493
32837SOL    HW2  409   6.948  14.705   9.460
32838SOL     OW  410  13.948   4.290   2.196
32838SOL    HW1  411  13.914   4.357   2.255
32838SOL    HW2  412  13.871   4.258   2.150
32839SOL     OW  413   5.731   2.869   4.537
32839SOL    HW1  414   5.654   2.816   4.517
32839SOL    HW2  415   5.796   2.806   4.569
32840SOL     OW  416   8.642  10.337   6.198
32840SOL    HW1  417   8.618  10.253   6.160
32840SOL    HW2  418   8.576  10.398   6.164
32841SOL     OW  419  10.611   8.115  11.318
32841SOL    HW1  420  10.691   8.129  11.367
32841SOL    HW2  421  10.576   8.032  11.352
32842SOL     OW  422   8.641  12.656   9.041
32842SOL    HW1  423   8.594  12.739   9.043
32842SOL    HW2  424   8.672  12.648   8.951
32843SOL     OW  425   4.527   9.531   8.698
32843SOL    HW1  426   4.541   9.595   8.628
32843SOL    HW2  427   4.508   9.449   8.652
32844SOL     OW  428  13.910   4.481   2.392
32844SOL    HW1  429  13.956   4.564   2.408
32844SOL    HW2  430  13.867   4.461   2.475
32845SOL     OW  431  11.757   7.979   9.136
32845SOL    HW1  432  11.737   7.974   9.230
32845SOL    HW2  433  11.842   7.935   9.128
32846SOL     OW  434   9.930  12.565   7.550
32846SOL    HW1  435   9.936  12.521   7.634
32846SOL    HW2  436  10.012  12.612   7.542
32847SOL     OW  437   4.617   1.053   1.598
32847SOL    HW1  438   4.654   1.020   1.516
32847SOL    HW2  439   4.523   1.061   1.580
32848SOL     OW  440  14.573  12.419  10.467
32848SOL    HW1  441  14.600  12.489  10.408
32848SOL    HW2  442  14.508  12.370  10.418
32849SOL     OW  443   6.229  12.414   8.257
32849SOL    HW1  444   6.303  12.414   8.196
32849SOL    HW2  445   6.237  12.331   8.304
32850SOL     OW  446  10.663   7.973   8.914
32850SOL    HW1  447  10.683   8.041   8.850
32850SOL    HW2  448  10.745   7.923   8.923
32851SOL     OW  449  14.064   4.550   4.468
32851SOL    HW1  450  14.136   4.488   4.462
32851SOL    HW2  451  13.997   4.515   4.410
32852SOL     OW  452  11.205   6.332   6.953
32852SOL    HW1  453  11.218   6.312   6.861
32852SOL    HW2  454  11.113   6.310   6.969
32853SOL     OW  455   5.442   9.295   3.452
32853SOL    HW1  456   5.500   9.314   3.525
32853SOL    HW2  457   5.482   9.339   3.377
32854SOL     OW  458   5.340  14.172   5.557
32854SOL    HW1  459   5.272  14.205   5.498
32854SOL    HW2  460   5.408  14.240   5.556
32855SOL     OW  461  12.957  11.068   8.438
32855SOL    HW1  462  12.896  10.995   8.439
32855SOL    HW2  463  13.001  11.063   8.523
32856SOL     OW  464   2.744   4.139  11.788
32856SOL    HW1  465   2.746   4.098  11.874
32856SOL    HW2  466   2.815   4.203  11.790
32857SOL     OW  467   2.939   8.028  10.179
32857SOL    HW1  468   2.938   7.934  10.161
32857SOL    HW2  469   3.020   8.042  10.229
32858SOL     OW  470   3.488  12.549   3.978
32858SOL    HW1  471   3.551  12.525   3.910
32858SOL    HW2  472   3.481  12.470   4.033
32859SOL     OW  473   5.268   7.516   6.054
32859SOL    HW1  474   5.328   7.444   6.077
32859SOL    HW2  475   5.312   7.594   6.086
32860SOL     OW  476   2.330   4.420   2.497
32860SOL    HW1  477   2.354   4.451   2.410
32860SOL    HW2  478   2.383   4.474   2.557
32861SOL     OW  479  13.399   5.747   1.131
32861SOL    HW1  480  13.435   5.745   1.220
32861SOL    HW2  481  13.382   5.655   1.110
32862SOL     OW  482   7.295   6.113   2.354
32862SOL    HW1  483   7.322   6.195   2.314
32862SOL    HW2  484   7.322   6.121   2.446
32863SOL     OW  485   5.362  11.033   5.580
32863SOL    HW1  486   5.445  11.070   5.612
32863SOL    HW2  487   5.386  10.948   5.543
32864SOL     OW  488   5.431  14.133   9.841
32864SOL    HW1  489   5.501  14.087   9.887
32864SOL    HW2  490   5.376  14.064   9.806
32865SOL     OW  491   9.984   7.780  12.296
32865SOL    HW1  492   9.964   7.696  12.339
32865SOL    HW2  493  10.075   7.798  12.320
32866SOL     OW  494  12.804  11.485   5.864
32866SOL    HW1  495  12.763  11.434   5.794
32866SOL    HW2  496  12.757  11.459   5.944
32867SOL     OW  497   6.967   3.661  14.204
32867SOL    HW1  498   7.037   3.718  14.171
32867SOL    HW2  499   6.986   3.651  14.297
32868SOL     OW  500   5.220   8.959   2.701
32868SOL    HW1  501   5.257   8.871   2.689
32868SOL    HW2  502   5.129   8.951   2.671
32869SOL     OW  503   2.541   0.038  14.481
32869SOL    HW1  504   2.480  14.857  14.431
32869SOL    HW2  505   2.606   0.067  14.416
32870SOL     OW  506   1.748   6.232   0.141
32870SOL    HW1  507   1.722   6.151   0.185
32870SOL    HW2  508   1.828   6.259   0.184
32871SOL     OW  509   5.832   3.355   2.741
32871SOL    HW1  510   5.809   3.416   2.811
32871SOL    HW2  511   5.794   3.272   2.767
32872SOL     OW  512  10.743  10.393   3.903
32872SOL    HW1  513  10.659  10.350   3.911
32872SOL    HW2  514  10.803  10.339   3.955
32873SOL     OW  515   9.751   4.486  14.123
32873SOL    HW1  516   9.689   4.528  14.063
32873SOL    HW2  517   9.834   4.487  14.076
32874SOL     OW  518  11.782   6.845   3.277
32874SOL    HW1  519  11.701   6.860   3.229
32874SOL    HW2  520  11.824   6.773   3.231
32875SOL     OW  521   6.205   5.179   1.829
32875SOL    HW1  522   6.224   5.148   1.740
32875SOL    HW2  523   6.233   5.107   1.885
32876SOL     OW  524   8.825   5.403   3.361
32876SOL    HW1  525   8.861   5.484   3.326
32876SOL    HW2  526   8.758   5.377   3.298
32877SOL     OW  527   0.735  10.058   6.899
32877SOL    HW1  528   0.655  10.061   6.846
32877SOL    HW2  529   0.789  10.128   6.864
32878SOL     OW  530   3.964   6.613   2.419
32878SOL    HW1  531   3.887   6.585   2.468
32878SOL    HW2  532   3.972   6.707   2.438
32879SOL     OW  533  10.419  12.921   8.667
32879SOL    HW1  534  10.355  12.866   8.622
32879SOL    HW2  535  10.456  12.865   8.735
32880SOL     OW  536  12.254   0.851  12.674
32880SOL    HW1  537  12.269   0.927  12.731
32880SOL    HW2  538  12.159   0.851  12.660
32881SOL     OW  539  11.329  11.091  13.758
32881SOL    HW1  540  11.264  11.112  13.824
32881SOL    HW2  541  11.404  11.057  13.808
32882SOL     OW  542  14.816   8.704   4.380
32882SOL    HW1  543   0.036   8.682   4.390
32882SOL    HW2  544  14.811   8.751   4.296
32883SOL     OW  545   4.087   7.346   0.938
32883SOL    HW1  546   4.125   7.358   0.851
32883SOL    HW2  547   3.992   7.348   0.924
32884SOL     OW  548   9.654  14.829   9.297
32884SOL    HW1  549   9.597  14.766   9.343
32884SOL    HW2  550   9.642   0.038   9.345
32885SOL     OW  551   9.557   1.391  11.935
32885SOL    HW1  552   9.588   1.301  11.939
32885SOL    HW2  553   9.632   1.444  11.961
32886SOL     OW  554  12.690   9.349   7.589
32886SOL    HW1  555  12.734   9.298   7.521
32886SOL    HW2  556  12.597   9.343   7.567
32887SOL     OW  557  13.768  12.163   5.903
32887SOL    HW1  558  13.812  12.111   5.970
32887SOL    HW2  559  13.700  12.106   5.868
32888SOL     OW  560   8.302   8.497   4.043
32888SOL    HW1  561   8.316   8.511   4.137
32888SOL    HW2  562   8.323   8.582   4.003
32889SOL     OW  563  14.333   3.976  14.491
32889SOL    HW1  564  14.274   4.011  14.424
32889SOL    HW2  565  14.421   3.999  14.459
32890SOL     OW  566  11.373   2.987  14.420
32890SOL    HW1  567  11.419   2.976  14.503
32890SOL    HW2  568  11.290   3.029  14.444
32891SOL     OW  569   9.556   0.818  11.706
32891SOL    HW1  570   9.627   0.757  11.727
32891SOL    HW2  571   9.520   0.786  11.624
32892SOL     OW  572  10.573   2.409   2.671
32892SOL    HW1  573  10.531   2.394   2.586
32892SOL    HW2  574  10.645   2.469   2.652
32893SOL     OW  575   7.415   0.547  13.592
32893SOL    HW1  576   7.345   0.510  13.646
32893SOL    HW2  577   7.370   0.592  13.521
32894SOL     OW  578   3.143   3.847  14.379
32894SOL    HW1  579   3.185   3.928  14.405
32894SOL    HW2  580   3.125   3.858  14.285
32895SOL     OW  581   9.128   5.746   0.964
32895SOL    HW1  582   9.152   5.796   1.042
32895SOL    HW2  583   9.143   5.655   0.989
32896SOL     OW  584  12.750  12.163  14.426
32896SOL    HW1  585  12.792  12.177  14.511
32896SOL    HW2  586  12.815  12.112  14.376
32897SOL     OW  587   0.900   1.929   0.080
32897SOL    HW1  588   0.926   1.995   0.015
32897SOL    HW2  589   0.815   1.897   0.049
32898SOL     OW  590  11.745  12.447   2.452
32898SOL    HW1  591  11.740  12.407   2.539
32898SOL    HW2  592  11.701  12.384   2.395
32899SOL     OW  593  12.435   3.945   4.220
32899SOL    HW1  594  12.523   3.927   4.252
32899SOL    HW2  595  12.447   4.006   4.148
32900SOL     OW  596  11.695  11.917   3.631
32900SOL    HW1  597  11.636  11.991   3.616
32900SOL    HW2  598  11.775  11.958   3.664
32901SOL     OW  599   8.175   2.083  10.494
32901SOL    HW1  600   8.090   2.112  10.462
32901SOL    HW2  601   8.155   2.016  10.558
32902SOL     OW  602  13.151  10.519   8.176
32902SOL    HW1  603  13.134  10.424   8.179
32902SOL    HW2  604  13.242  10.526   8.149
32903SOL     OW  605   0.592  13.097  11.020
32903SOL    HW1  606   0.604  13.057  10.934
32903SOL    HW2  607   0.528  13.166  11.006
32904SOL     OW  608   8.081   5.425   5.381
32904SOL    HW1  609   8.118   5.350   5.427
32904SOL    HW2  610   8.137   5.435   5.303
32905SOL     OW  611   5.058  11.628  14.120
32905SOL    HW1  612   5.150  11.608  14.131
32905SOL    HW2  613   5.054  11.724  14.124
32906SOL     OW  614  10.687  10.729  13.685
32906SOL    HW1  615  10.628  10.803  13.674
32906SOL    HW2  616  10.771  10.768  13.709
32907SOL     OW  617   4.782  14.323   3.591
32907SOL    HW1  618   4.754  14.283   3.509
32907SOL    HW2  619   4.700  14.349   3.634
32908SOL     OW  620   3.584   5.959   6.397
32908SOL    HW1  621   3.540   5.944   6.313
32908SOL    HW2  622   3.654   5.895   6.399
32909SOL     OW  623  11.083  10.911   0.356
32909SOL    HW1  624  11.062  10.949   0.271
32909SOL    HW2  625  11.121  10.983   0.406
32910SOL     OW  626   2.626  13.941  10.682
32910SOL    HW1  627   2.628  13.867  10.742
32910SOL    HW2  628   2.709  13.986  10.696
32911SOL     OW  629   6.129  13.483   1.769
32911SOL    HW1  630   6.079  13.565   1.768
32911SOL    HW2  631   6.138  13.460   1.676
32912SOL     OW  632   6.151   6.687   7.984
32912SOL    HW1  633   6.112   6.671   7.898
32912SOL    HW2  634   6.079   6.720   8.038
32913SOL     OW  635   8.327   7.494   9.483
32913SOL    HW1  636   8.377   7.430   9.432
32913SOL    HW2  637   8.345   7.578   9.441
32914SOL     OW  638  13.601   0.372   1.849
32914SOL    HW1  639  13.606   0.453   1.799
32914SOL    HW2  640  13.532   0.388   1.914
32915SOL     OW  641   4.722   7.971  11.452
32915SOL    HW1  642   4.688   7.903  11.393
32915SOL    HW2  643   4.649   7.991  11.510
32916SOL     OW  644   6.892  12.004   5.928
32916SOL    HW1  645   6.967  11.946   5.914
32916SOL    HW2  646   6.842  11.999   5.847
32917SOL     OW  647   3.763   9.389   1.889
32917SOL    HW1  648   3.772   9.294   1.884
32917SOL    HW2  649   3.695   9.411   1.826
32918SOL     OW  650  11.813   5.594  11.090
32918SOL    HW1  651  11.908   5.594  11.104
32918SOL    HW2  652  11.781   5.526  11.149
32919SOL     OW  653   5.397  11.703   6.826
32919SOL    HW1  654   5.446  11.639   6.774
32919SOL    HW2  655   5.446  11.710   6.908
32920SOL     OW  656   6.813  14.681   0.068
32920SOL    HW1  657   6.719  14.667   0.083
32920SOL    HW2  658   6.831  14.642  14.855
32921SOL     OW  659   0.914   6.007   7.769
32921SOL    HW1  660   0.839   6.038   7.717
32921SOL    HW2  661   0.955   5.940   7.714
32922SOL     OW  662  11.082   8.800   1.095
32922SOL    HW1  663  11.134   8.863   1.145
32922SOL    HW2  664  11.030   8.754   1.160
32923SOL     OW  665   5.236   6.899   5.309
32923SOL    HW1  666   5.326   6.872   5.291
32923SOL    HW2  667   5.242   6.947   5.392
32924SOL     OW  668  14.553   6.788   6.500
32924SOL    HW1  669  14.539   6.876   6.535
32924SOL    HW2  670  14.494   6.732   6.551
32925SOL     OW  671  10.019   0.194  13.260
32925SOL    HW1  672  10.060   0.147  13.333
32925SOL    HW2  673   9.935   0.224  13.294
32926SOL     OW  674   6.848   4.043  11.056
32926SOL    HW1  675   6.772   4.101  11.048
32926SOL    HW2  676   6.913   4.096  11.102
32927SOL     OW  677   1.648   0.893  14.822
32927SOL    HW1  678   1.649   0.979  14.865
32927SOL    HW2  679   1.670   0.831   0.019
32928SOL     OW  680   0.556  14.503   7.878
32928SOL    HW1  681   0.515  14.582   7.912
32928SOL    HW2  682   0.606  14.532   7.801
32929SOL     OW  683   8.874   3.644   3.941
32929SOL    HW1  684   8.785   3.634   3.907
32929SOL    HW2  685   8.873   3.727   3.988
32930SOL     OW  686   9.085   8.194   0.257
32930SOL    HW1  687   9.103   8.209   0.164
32930SOL    HW2  688   9.016   8.127   0.257
32931SOL     OW  689  13.155   7.363   8.699
32931SOL    HW1  690  13.101   7.285   8.687
32931SOL    HW2  691  13.188   7.383   8.612
32932SOL     OW  692   4.673   8.776   3.326
32932SOL    HW1  693   4.644   8.864   3.300
32932SOL    HW2  694   4.599   8.739   3.373
32933SOL     OW  695   3.317  12.036  11.880
32933SOL    HW1  696   3.343  12.116  11.925
32933SOL    HW2  697   3.308  12.061  11.788
32934SOL     OW  698   3.253  12.055   1.451
32934SOL    HW1  699   3.266  12.086   1.361
32934SOL    HW2  700   3.165  12.016   1.450
32935SOL     OW  701  11.905   2.682  14.308
32935SOL    HW1  702  11.887   2.776  14.303
32935SOL    HW2  703  11.969   2.666  14.240
32936SOL     OW  704   8.862  14.634  11.911
32936SOL    HW1  705   8.810  14.623  11.991
32936SOL    HW2  706   8.811  14.694  11.857
32937SOL     OW  707   0.624   3.832   5.497
32937SOL    HW1  708   0.708   3.829   5.450
32937SOL    HW2  709   0.622   3.919   5.537
32938SOL     OW  710   8.375   9.642  10.429
32938SOL    HW1  711   8.326   9.656  10.348
32938SOL    HW2  712   8.459   9.607  10.401
32939SOL     OW  713  10.667   6.361  11.621
32939SOL    HW1  714  10.664   6.283  11.676
32939SOL    HW2  715  10.595   6.348  11.559
32940SOL     OW  716  10.988   5.650  14.767
32940SOL    HW1  717  11.020   5.667  14.678
32940SOL    HW2  718  10.919   5.584  14.756
32941SOL     OW  719  13.521   4.147  11.651
32941SOL    HW1  720  13.491   4.237  11.644
32941SOL    HW2  721  13.600   4.151  11.705
32942SOL     OW  722   9.229   8.353   4.233
32942SOL    HW1  723   9.149   8.378   4.188
32942SOL    HW2  724   9.229   8.257   4.231
32943SOL     OW  725   6.000  11.854  12.693
32943SOL    HW1  726   6.014  11.776  12.747
32943SOL    HW2  727   6.087  11.893  12.685
32944SOL     OW  728  12.006   6.768   4.986
32944SOL    HW1  729  12.071   6.770   5.057
32944SOL    HW2  730  12.038   6.701   4.926
32945SOL     OW  731   9.371   3.051   9.175
32945SOL    HW1  732   9.410   2.974   9.217
32945SOL    HW2  733   9.318   3.015   9.104
32946SOL     OW  734   2.061  13.134   1.969
32946SOL    HW1  735   2.030  13.218   2.002
32946SOL    HW2  736   2.079  13.082   2.047
32947SOL     OW  737   4.298   8.716  10.492
32947SOL    HW1  738   4.285   8.754  10.579
32947SOL    HW2  739   4.275   8.787  10.432
32948SOL     OW  740   4.275  13.671  14.071
32948SOL    HW1  741   4.239  13.658  13.983
32948SOL    HW2  742   4.209  13.721  14.118
32949SOL     OW  743   8.474  14.808  13.925
32949SOL    HW1  744   8.398  14.806  13.984
32949SOL    HW2  745   8.549  14.793  13.983
32950SOL     OW  746   7.732   3.258   4.958
32950SOL    HW1  747   7.678   3.269   4.879
32950SOL    HW2  748   7.805   3.318   4.945
32951SOL     OW  749   7.755  14.744   4.422
32951SOL    HW1  750   7.727  14.811   4.485
32951SOL    HW2  751   7.754  14.663   4.472
32952SOL     OW  752   4.913  14.276  12.476
32952SOL    HW1  753   4.899  14.233  12.560
32952SOL    HW2  754   4.869  14.361  12.484
32953SOL     OW  755   1.320   0.292  14.038
32953SOL    HW1  756   1.415   0.298  14.027
32953SOL    HW2  757   1.295   0.377  14.075
32954SOL     OW  758   9.312   7.081  13.384
32954SOL    HW1  759   9.286   7.111  13.471
32954SOL    HW2  760   9.407   7.073  13.389
32955SOL     OW  761   3.072  14.488   7.637
32955SOL    HW1  762   3.041  14.566   7.591
32955SOL    HW2  763   3.011  14.478   7.710
32956SOL     OW  764   5.367   5.413   9.202
32956SOL    HW1  765   5.349   5.507   9.201
32956SOL    HW2  766   5.459   5.406   9.228
32957SOL     OW  767   3.723  13.145  13.965
32957SOL    HW1  768   3.683  13.074  13.914
32957SOL    HW2  769   3.768  13.199  13.900
32958SOL     OW  770   8.853   2.429   2.422
32958SOL    HW1  771   8.904   2.360   2.465
32958SOL    HW2  772   8.808   2.385   2.350
32959SOL     OW  773   8.434   9.076   7.848
32959SOL    HW1  774   8.354   9.058   7.797
32959SOL    HW2  775   8.461   8.990   7.881
32960SOL     OW  776   2.863   8.622   7.655
32960SOL    HW1  777   2.776   8.645   7.622
32960SOL    HW2  778   2.912   8.596   7.577
32961SOL     OW  779   8.626   1.609   2.359
32961SOL    HW1  780   8.694   1.559   2.404
32961SOL    HW2  781   8.669   1.643   2.280
32962SOL     OW  782   9.228  11.892   2.967
32962SOL    HW1  783   9.166  11.853   3.029
32962SOL    HW2  784   9.312  11.854   2.991
32963SOL     OW  785   9.137  11.430   4.411
32963SOL    HW1  786   9.208  11.386   4.366
32963SOL    HW2  787   9.175  11.458   4.494
32964SOL     OW  788   0.830   0.390   6.351
32964SOL    HW1  789   0.765   0.321   6.357
32964SOL    HW2  790   0.903   0.351   6.304
32965SOL     OW  791   0.707   8.178   9.517
32965SOL    HW1  792   0.718   8.209   9.606
32965SOL    HW2  793   0.644   8.107   9.523
32966SOL     OW  794   5.513   2.385  11.442
32966SOL    HW1  795   5.545   2.432  11.520
32966SOL    HW2  796   5.482   2.454  11.383
32967SOL     OW  797   1.825   0.876   2.520
32967SOL    HW1  798   1.838   0.853   2.612
32967SOL    HW2  799   1.910   0.859   2.479
32968SOL     OW  800   1.839   8.622  12.303
32968SOL    HW1  801   1.830   8.708  12.344
32968SOL    HW2  802   1.764   8.616  12.244
32969SOL     OW  803   4.848   8.659   5.789
32969SOL    HW1  804   4.794   8.678   5.865
32969SOL    HW2  805   4.786   8.643   5.718
32970SOL     OW  806   8.574   9.994   9.122
32970SOL    HW1  807   8.630  10.017   9.048
32970SOL    HW2  808   8.633   9.958   9.187
32971SOL     OW  809   6.245   1.355  11.966
32971SOL    HW1  810   6.159   1.321  11.940
32971SOL    HW2  811   6.226   1.439  12.007
32972SOL     OW  812   8.964   6.647   9.320
32972SOL    HW1  813   8.995   6.637   9.230
32972SOL    HW2  814   8.879   6.604   9.321
32973SOL     OW  815   7.930   8.759   2.242
32973SOL    HW1  816   7.898   8.740   2.330
32973SOL    HW2  817   7.851   8.756   2.187
32974SOL     OW  818   4.899   1.534   2.666
32974SOL    HW1  819   4.813   1.572   2.650
32974SOL    HW2  820   4.923   1.564   2.753
32975SOL     OW  821  12.987   8.936  14.693
32975SOL    HW1  822  13.043   9.013  14.685
32975SOL    HW2  823  12.898   8.971  14.700
32976SOL     OW  824   5.099  14.041  11.574
32976SOL    HW1  825   5.072  13.973  11.512
32976SOL    HW2  826   5.079  14.004  11.660
32977SOL     OW  827   1.256   1.851   9.680
32977SOL    HW1  828   1.322   1.910   9.643
32977SOL    HW2  829   1.219   1.806   9.605
32978SOL     OW  830  11.172   2.160   7.869
32978SOL    HW1  831  11.086   2.198   7.849
32978SOL    HW2  832  11.199   2.117   7.788
32979SOL     OW  833   3.211   4.889   4.372
32979SOL    HW1  834   3.302   4.901   4.400
32979SOL    HW2  835   3.217   4.846   4.287
32980SOL     OW  836  10.046   5.662   3.368
32980SOL    HW1  837   9.965   5.626   3.403
32980SOL    HW2  838  10.051   5.630   3.278
32981SOL     OW  839   1.327   0.749   5.093
32981SOL    HW1  840   1.422   0.739   5.091
32981SOL    HW2  841   1.305   0.779   5.004
32982SOL     OW  842   5.194   1.924   4.626
32982SOL    HW1  843   5.157   1.842   4.657
32982SOL    HW2  844   5.266   1.942   4.687
32983SOL     OW  845  12.604  11.900   1.015
32983SOL    HW1  846  12.547  11.825   1.031
32983SOL    HW2  847  12.544  11.973   1.001
32984SOL     OW  848   9.614   8.978  11.992
32984SOL    HW1  849   9.693   8.924  11.990
32984SOL    HW2  850   9.582   8.970  12.082
32985SOL     OW  851  14.826   6.057   4.798
32985SOL    HW1  852  14.836   6.132   4.856
32985SOL    HW2  853  14.733   6.053   4.779
32986SOL     OW  854   3.526   0.441   7.898
32986SOL    HW1  855   3.595   0.413   7.959
32986SOL    HW2  856   3.480   0.511   7.945
32987SOL     OW  857  14.757   7.138  14.099
32987SOL    HW1  858  14.755   7.088  14.018
32987SOL    HW2  859  14.665   7.144  14.126
32988SOL     OW  860   6.321   3.406  12.364
32988SOL    HW1  861   6.360   3.368  12.444
32988SOL    HW2  862   6.394   3.409  12.302
32989SOL     OW  863  12.259   1.343  13.987
32989SOL    HW1  864  12.288   1.368  14.074
32989SOL    HW2  865  12.227   1.253  13.997
32990SOL     OW  866  13.664  13.065   4.093
32990SOL    HW1  867  13.677  13.025   4.007
32990SOL    HW2  868  13.635  13.155   4.074
32991SOL     OW  869   4.992   8.344   9.130
32991SOL    HW1  870   5.001   8.284   9.204
32991SOL    HW2  871   5.035   8.299   9.057
32992SOL     OW  872   5.427   8.288  13.124
32992SOL    HW1  873   5.362   8.218  13.133
32992SOL    HW2  874   5.375   8.366  13.103
32993SOL     OW  875  12.579   9.877   6.033
32993SOL    HW1  876  12.545   9.809   5.974
32993SOL    HW2  877  12.504   9.898   6.090
32994SOL     OW  878   6.362   9.760  10.530
32994SOL    HW1  879   6.406   9.783  10.612
32994SOL    HW2  880   6.434   9.744  10.469
32995SOL     OW  881   8.501   4.701   8.044
32995SOL    HW1  882   8.511   4.611   8.076
32995SOL    HW2  883   8.407   4.710   8.027
32996SOL     OW  884  10.142  10.396  14.703
32996SOL    HW1  885  10.063  10.364  14.660
32996SOL    HW2  886  10.180  10.318  14.744
32997SOL     OW  887   3.165   9.711   6.072
32997SOL    HW1  888   3.240   9.668   6.113
32997SOL    HW2  889   3.203   9.786   6.025
32998SOL     OW  890   1.368   1.728   8.127
32998SOL    HW1  891   1.365   1.805   8.070
32998SOL    HW2  892   1.341   1.655   8.071
32999SOL     OW  893  12.703  10.878   9.415
32999SOL    HW1  894  12.788  10.923   9.408
32999SOL    HW2  895  12.657  10.903   9.335
33000SOL     OW  896  14.460   6.096   2.089
33000SOL    HW1  897  14.527   6.150   2.131
33000SOL    HW2  898  14.472   6.009   2.127
33001SOL     OW  899   8.262   2.033   7.061
33001SOL    HW1  900   8.235   1.967   6.997
33001SOL    HW2  901   8.186   2.090   7.069
33002SOL     OW  902   1.123   3.390   0.026
33002SOL    HW1  903   1.216   3.390   0.048
33002SOL    HW2  904   1.095   3.300   0.039
33003SOL     OW  905  14.822   5.725  14.478
33003SOL    HW1  906   0.005   5.795  14.512
33003SOL    HW2  907  14.869   5.693  14.401
33004SOL     OW  908   0.559   4.378   3.207
33004SOL    HW1  909   0.560   4.288   3.240
33004SOL    HW2  910   0.469   4.407   3.220
33005SOL     OW  911   1.472   9.389  12.120
33005SOL    HW1  912   1.482   9.341  12.037
33005SOL    HW2  913   1.561   9.396  12.154
33006SOL     OW  914   1.633   1.974   1.030
33006SOL    HW1  915   1.673   1.923   0.959
33006SOL    HW2  916   1.691   2.048   1.042
33007SOL     OW  917  11.488  10.252   8.485
33007SOL    HW1  918  11.580  10.232   8.468
33007SOL    HW2  919  11.477  10.236   8.579
33008SOL     OW  920   2.305   9.875  11.676
33008SOL    HW1  921   2.254   9.864  11.757
33008SOL    HW2  922   2.260   9.821  11.612
33009SOL     OW  923  10.332   1.169   0.140
33009SOL    HW1  924  10.291   1.096   0.094
33009SOL    HW2  925  10.352   1.232   0.070
33010SOL     OW  926   7.762   0.300  14.314
33010SOL    HW1  927   7.703   0.348  14.256
33010SOL    HW2  928   7.816   0.247  14.256
33011SOL     OW  929   8.395   3.827   2.661
33011SOL    HW1  930   8.451   3.904   2.653
33011SOL    HW2  931   8.456   3.755   2.677
33012SOL     OW  932   2.182   2.248   5.749
33012SOL    HW1  933   2.229   2.167   5.768
33012SOL    HW2  934   2.229   2.316   5.796
33013SOL     OW  935   2.939   4.843   6.547
33013SOL    HW1  936   2.910   4.900   6.476
33013SOL    HW2  937   3.032   4.827   6.528
33014SOL     OW  938   4.886  11.268  14.319
33014SOL    HW1  939   4.895  11.185  14.272
33014SOL    HW2  940   4.954  11.264  14.387
33015SOL     OW  941   2.646   6.512   8.244
33015SOL    HW1  942   2.669   6.451   8.314
33015SOL    HW2  943   2.704   6.587   8.257
33016SOL     OW  944   8.476   4.226   0.686
33016SOL    HW1  945   8.455   4.274   0.605
33016SOL    HW2  946   8.391   4.212   0.728
33017SOL     OW  947   4.093  12.109   6.224
33017SOL    HW1  948   4.017  12.084   6.276
33017SOL    HW2  949   4.057  12.154   6.148
33018SOL     OW  950   4.918   2.305   3.479
33018SOL    HW1  951   4.842   2.347   3.440
33018SOL    HW2  952   4.990   2.325   3.419
33019SOL     OW  953   3.268   0.871  14.124
33019SOL    HW1  954   3.300   0.784  14.148
33019SOL    HW2  955   3.182   0.877  14.166
33020SOL     OW  956   9.629  13.163   7.254
33020SOL    HW1  957   9.610  13.256   7.242
33020SOL    HW2  958   9.655  13.132   7.167
33021SOL     OW  959  14.004   6.835   7.810
33021SOL    HW1  960  13.934   6.798   7.756
33021SOL    HW2  961  13.986   6.802   7.898
33022SOL     OW  962   5.993   5.572   3.322
33022SOL    HW1  963   6.056   5.569   3.250
33022SOL    HW2  964   5.951   5.658   3.315
33023SOL     OW  965   6.166  11.894   8.290
33023SOL    HW1  966   6.106  11.833   8.247
33023SOL    HW2  967   6.181  11.962   8.224
33024SOL     OW  968  11.176   1.230   9.079
33024SOL    HW1  969  11.178   1.274   9.164
33024SOL    HW2  970  11.267   1.213   9.058
33025SOL     OW  971   8.315   1.349   1.559
33025SOL    HW1  972   8.305   1.330   1.466
33025SOL    HW2  973   8.410   1.354   1.572
33026SOL     OW  974  10.363   1.619  11.249
33026SOL    HW1  975  10.417   1.689  11.285
33026SOL    HW2  976  10.388   1.541  11.298
33027SOL     OW  977   9.730   8.927  11.148
33027SOL    HW1  978   9.812   8.880  11.162
33027SOL    HW2  979   9.665   8.859  11.135
33028SOL     OW  980  10.962  11.824   0.267
33028SOL    HW1  981  11.038  11.853   0.317
33028SOL    HW2  982  10.989  11.830   0.176
33029SOL     OW  983  13.529   4.553   5.334
33029SOL    HW1  984  13.524   4.524   5.425
33029SOL    HW2  985  13.548   4.474   5.284
33030SOL     OW  986   6.804   8.927   5.021
33030SOL    HW1  987   6.862   8.891   5.088
33030SOL    HW2  988   6.808   9.022   5.035
33031SOL     OW  989   2.522   6.329  13.175
33031SOL    HW1  990   2.554   6.253  13.127
33031SOL    HW2  991   2.537   6.307  13.267
33032SOL     OW  992  14.052  14.234  13.473
33032SOL    HW1  993  14.084  14.317  13.509
33032SOL    HW2  994  14.066  14.242  13.379
33033SOL     OW  995   0.899  10.137  12.950
33033SOL    HW1  996   0.820  10.158  13.000
33033SOL    HW2  997   0.931  10.222  12.918
33034SOL     OW  998  12.375  10.226  14.447
33034SOL    HW1  999  12.426  10.179  14.514
33034SOL    HW2 1000  12.441  10.252  14.383
33035SOL     OW 1001   6.541  14.645   0.023
33035SOL    HW1 1002   6.467  14.701   0.043
33035SOL    HW2 1003   6.563  14.665  14.805
33036SOL     OW 1004   7.212   7.300   9.123
33036SOL    HW1 1005   7.253   7.372   9.077
33036SOL    HW2 1006   7.228   7.223   9.068
33037SOL     OW 1007   9.717  10.509  10.367
33037SOL    HW1 1008   9.762  10.520  10.284
33037SOL    HW2 1009   9.699  10.415  10.373
33038SOL     OW 1010  11.815   4.697  14.247
33038SOL    HW1 1011  11.804   4.745  14.329
33038SOL    HW2 1012  11.903   4.718  14.218
33039SOL     OW 1013  10.216   4.970  11.100
33039SOL    HW1 1014  10.254   4.882  11.093
33039SOL    HW2 1015  10.264   5.022  11.036
33040SOL     OW 1016   2.308  14.755   6.308
33040SOL    HW1 1017   2.359  14.766   6.228
33040SOL    HW2 1018   2.261  14.838   6.318
33041SOL     OW 1019   8.397   2.285   3.393
33041SOL    HW1 1020   8.387   2.292   3.298
33041SOL    HW2 1021   8.492   2.289   3.407
33042SOL     OW 1022  12.125   1.852   6.418
33042SOL    HW1 1023  12.120   1.782   6.483
33042SOL    HW2 1024  12.094   1.930   6.464
33043SOL     OW 1025   9.283  11.496   1.128
33043SOL    HW1 1026   9.342  11.528   1.196
33043SOL    HW2 1027   9.298  11.554   1.053
33044SOL     OW 1028   4.634  13.333  12.486
33044SOL    HW1 1029   4.541  13.355  12.477
33044SOL    HW2 1030   4.642  13.248  12.442
33045SOL     OW 1031   3.449   5.584   3.439
33045SOL    HW1 1032   3.404   5.663   3.410
33045SOL    HW2 1033   3.508   5.614   3.508
33046SOL     OW 1034   7.184   0.812  12.503
33046SOL    HW1 1035   7.201   0.904  12.525
33046SOL    HW2 1036   7.192   0.766  12.586
33047SOL     OW 1037   0.657   3.007  12.790
33047SOL    HW1 1038   0.674   2.966  12.704
33047SOL    HW2 1039   0.601   3.081  12.771
33048SOL     OW 1040   1.636  12.259  12.046
33048SOL    HW1 1041   1.605  12.300  12.126
33048SOL    HW2 1042   1.597  12.310  11.976
33049SOL     OW 1043  11.507   3.945  14.217
33049SOL    HW1 1044  11.527   3.940  14.123
33049SOL    HW2 1045  11.420   3.985  14.220
33050SOL     OW 1046   5.139   9.764   4.173
33050SOL    HW1 1047   5.202   9.832   4.149
33050SOL    HW2 1048   5.099   9.738   4.089
33051SOL     OW 1049   1.066  11.671   1.723
33051SOL    HW1 1050   1.108  11.587   1.742
33051SOL    HW2 1051   1.100  11.696   1.637
33052SOL     OW 1052   3.512   5.612  13.755
33052SOL    HW1 1053   3.516   5.603  13.659
33052SOL    HW2 1054   3.571   5.544  13.787
33053SOL     OW 1055   4.636  13.710   7.593
33053SOL    HW1 1056   4.712  13.678   7.641
33053SOL    HW2 1057   4.673  13.752   7.515
33054SOL     OW 1058   1.771   1.925   2.465
33054SOL    HW1 1059   1.833   1.859   2.494
33054SOL    HW2 1060   1.787   1.932   2.370
33055SOL     OW 1061  11.114   4.450   6.254
33055SOL    HW1 1062  11.021   4.459   6.234
33055SOL    HW2 1063  11.119   4.464   6.349
33056SOL     OW 1064   6.549  13.378   7.303
33056SOL    HW1 1065   6.455  13.364   7.320
33056SOL    HW2 1066   6.556  13.471   7.286
33057SOL     OW 1067   5.893  11.021   0.319
33057SOL    HW1 1068   5.904  11.007   0.413
33057SOL    HW2 1069   5.810  10.979   0.298
33058SOL     OW 1070   7.469  11.413   0.691
33058SOL    HW1 1071   7.442  11.456   0.772
33058SOL    HW2 1072   7.479  11.484   0.627
33059SOL     OW 1073  10.547   6.393   1.382
33059SOL    HW1 1074  10.618   6.352   1.333
33059SOL    HW2 1075  10.529   6.332   1.454
33060SOL     OW 1076   8.465  13.183   1.819
33060SOL    HW1 1077   8.499  13.098   1.791
33060SOL    HW2 1078   8.427  13.220   1.739
33061SOL     OW 1079   9.783  13.582   9.162
33061SOL    HW1 1080   9.769  13.508   9.222
33061SOL    HW2 1081   9.703  13.587   9.111
33062SOL     OW 1082   8.887  12.681   7.451
33062SOL    HW1 1083   8.952  12.617   7.423
33062SOL    HW2 1084   8.930  12.766   7.439
33063SOL     OW 1085   0.675  14.209  12.484
33063SOL    HW1 1086   0.636  14.240  12.565
33063SOL    HW2 1087   0.646  14.118  12.476
33064SOL     OW 1088   8.566  12.327   7.620
33064SOL    HW1 1089   8.611  12.258   7.572
33064SOL    HW2 1090   8.519  12.282   7.690
33065SOL     OW 1091   4.766   3.941   1.753
33065SOL    HW1 1092   4.777   3.849   1.729
33065SOL    HW2 1093   4.847   3.983   1.725
33066SOL     OW 1094  10.207   4.540   6.990
33066SOL    HW1 1095  10.117   4.519   7.015
33066SOL    HW2 1096  10.248   4.570   7.071
33067SOL     OW 1097   4.021   6.215   0.989
33067SOL    HW1 1098   4.055   6.194   0.902
33067SOL    HW2 1099   4.094   6.195   1.048
33068SOL     OW 1100  11.493  12.336  10.470
33068SOL    HW1 1101  11.431  12.381  10.527
33068SOL    HW2 1102  11.535  12.406  10.419
33069SOL     OW 1103   7.121   4.158  13.861
33069SOL    HW1 1104   7.140   4.067  13.840
33069SOL    HW2 1105   7.029   4.171  13.838
33070SOL     OW 1106   0.624   8.230   7.948
33070SOL    HW1 1107   0.615   8.319   7.912
33070SOL    HW2 1108   0.705   8.196   7.908
33071SOL     OW 1109   1.338  14.699   8.976
33071SOL    HW1 1110   1.345  14.647   9.055
33071SOL    HW2 1111   1.296  14.641   8.912
33072SOL     OW 1112   1.372   4.137   9.163
33072SOL    HW1 1113   1.345   4.045   9.167
33072SOL    HW2 1114   1.296   4.186   9.194
33073SOL     OW 1115  12.040   7.951   8.792
33073SOL    HW1 1116  12.014   7.921   8.705
33073SOL    HW2 1117  11.972   8.014   8.817
33074SOL     OW 1118   3.177   6.959  10.711
33074SOL    HW1 1119   3.126   7.031  10.748
33074SOL    HW2 1120   3.131   6.935  10.630
33075SOL     OW 1121   8.351   7.199  11.397
33075SOL    HW1 1122   8.277   7.244  11.438
33075SOL    HW2 1123   8.425   7.258  11.410
33076SOL     OW 1124   2.570  10.942  14.087
33076SOL    HW1 1125   2.566  11.002  14.012
33076SOL    HW2 1126   2.589  10.857  14.049
33077SOL     OW 1127   8.580  13.221   6.645
33077SOL    HW1 1128   8.569  13.207   6.551
33077SOL    HW2 1129   8.652  13.164   6.670
33078SOL     OW 1130   9.549  13.999   7.603
33078SOL    HW1 1131   9.485  14.069   7.593
33078SOL    HW2 1132   9.633  14.040   7.582
33079SOL     OW 1133   4.585   5.589  10.842
33079SOL    HW1 1134   4.527   5.664  10.830
33079SOL    HW2 1135   4.623   5.575  10.755
33080SOL     OW 1136   5.819  12.496   6.811
33080SOL    HW1 1137   5.908  12.533   6.807
33080SOL    HW2 1138   5.794  12.506   6.903
33081SOL     OW 1139  14.430   0.356  10.309
33081SOL    HW1 1140  14.515   0.378  10.346
33081SOL    HW2 1141  14.449   0.333  10.218
33082SOL     OW 1142  11.730  13.355  11.670
33082SOL    HW1 1143  11.706  13.312  11.752
33082SOL    HW2 1144  11.812  13.400  11.689
33083SOL     OW 1145  14.128   4.978   6.802
33083SOL    HW1 1146  14.146   5.001   6.893
33083SOL    HW2 1147  14.043   5.019   6.784
33084SOL     OW 1148   7.727  10.945  13.835
33084SOL    HW1 1149   7.658  10.901  13.787
33084SOL    HW2 1150   7.690  10.961  13.922
33085SOL     OW 1151   1.322   7.887   8.991
33085SOL    HW1 1152   1.252   7.821   8.995
33085SOL    HW2 1153   1.276   7.968   8.967
33086SOL     OW 1154   2.409   3.023   4.966
33086SOL    HW1 1155   2.446   3.030   5.053
33086SOL    HW2 1156   2.474   2.973   4.916
33087SOL     OW 1157  12.774   1.534  12.962
33087SOL    HW1 1158  12.818   1.449  12.971
33087SOL    HW2 1159  12.827   1.594  13.015
33088SOL     OW 1160   4.998   3.992  10.522
33088SOL    HW1 1161   4.987   3.937  10.444
33088SOL    HW2 1162   5.069   3.950  10.571
33089SOL     OW 1163   2.518  13.136   1.668
33089SOL    HW1 1164   2.565  13.099   1.593
33089SOL    HW2 1165   2.587  13.174   1.723
33090SOL     OW 1166  11.869   4.232   9.259
33090SOL    HW1 1167  11.893   4.226   9.351
33090SOL    HW2 1168  11.875   4.142   9.227
33091SOL     OW 1169   9.245   4.528  14.532
33091SOL    HW1 1170   9.253   4.511  14.626
33091SOL    HW2 1171   9.326   4.573  14.509
33092SOL     OW 1172   9.378   6.948  12.348
33092SOL    HW1 1173   9.381   7.030  12.399
33092SOL    HW2 1174   9.448   6.894  12.386
33093SOL     OW 1175  11.750   0.361   6.260
33093SOL    HW1 1176  11.690   0.417   6.210
33093SOL    HW2 1177  11.825   0.350   6.202
33094SOL     OW 1178   2.678  14.338  10.646
33094SOL    HW1 1179   2.675  14.321  10.552
33094SOL    HW2 1180   2.709  14.255  10.684
33095SOL     OW 1181   5.296   4.393  10.885
33095SOL    HW1 1182   5.365   4.448  10.922
33095SOL    HW2 1183   5.318   4.387  10.792
33096SOL     OW 1184   4.482   2.613   8.151
33096SOL    HW1 1185   4.495   2.596   8.244
33096SOL    HW2 1186   4.569   2.635   8.118
33097SOL     OW 1187   0.944  14.839  14.152
33097SOL    HW1 1188   0.866  14.829  14.207
33097SOL    HW2 1189   1.018  14.827  14.212
33098SOL     OW 1190   4.228   5.265   5.441
33098SOL    HW1 1191   4.212   5.327   5.370
33098SOL    HW2 1192   4.290   5.202   5.405
33099SOL     OW 1193  13.670   3.185   2.196
33099SOL    HW1 1194  13.742   3.183   2.133
33099SOL    HW2 1195  13.621   3.264   2.173
33100SOL     OW 1196   9.037   6.534   1.546
33100SOL    HW1 1197   9.007   6.458   1.594
33100SOL    HW2 1198   8.994   6.608   1.587
33101SOL     OW 1199  11.711   4.363   6.978
33101SOL    HW1 1200  11.686   4.282   7.022
33101SOL    HW2 1201  11.802   4.377   7.004
33102SOL     OW 1202   3.205   5.969   4.451
33102SOL    HW1 1203   3.180   6.054   4.415
33102SOL    HW2 1204   3.182   5.974   4.544
33103SOL     OW 1205  12.801   9.009  13.187
33103SOL    HW1 1206  12.793   9.085  13.128
33103SOL    HW2 1207  12.802   8.933  13.128
33104SOL     OW 1208  12.690  12.607   2.428
33104SOL    HW1 1209  12.773  12.655   2.441
33104SOL    HW2 1210  12.631  12.672   2.391
33105SOL     OW 1211   7.290   6.168   5.424
33105SOL    HW1 1212   7.196   6.183   5.414
33105SOL    HW2 1213   7.314   6.220   5.501
33106SOL     OW 1214   2.578   2.416   4.759
33106SOL    HW1 1215   2.644   2.350   4.740
33106SOL    HW2 1216   2.579   2.426   4.854
33107SOL     OW 1217   7.935  13.103   9.829
33107SOL    HW1 1218   7.846  13.105   9.793
33107SOL    HW2 1219   7.922  13.111   9.924
33108SOL     OW 1220  10.817   9.115   7.803
33108SOL    HW1 1221  10.822   9.092   7.896
33108SOL    HW2 1222  10.779   9.037   7.761
33109SOL     OW 1223  14.382   6.929  12.547
33109SOL    HW1 1224  14.335   6.876  12.611
33109SOL    HW2 1225  14.395   6.871  12.472
33110SOL     OW 1226   9.339  11.108  10.723
33110SOL    HW1 1227   9.311  11.156  10.646
33110SOL    HW2 1228   9.295  11.023  10.717
33111SOL     OW 1229   1.976   2.433   4.960
33111SOL    HW1 1230   2.002   2.420   4.869
33111SOL    HW2 1231   1.917   2.360   4.979
33112SOL     OW 1232   1.228  10.544  11.918
33112SOL    HW1 1233   1.249  10.559  11.826
33112SOL    HW2 1234   1.312  10.555  11.964
33113SOL     OW 1235   4.364   3.785   5.605
33113SOL    HW1 1236   4.314   3.726   5.662
33113SOL    HW2 1237   4.323   3.777   5.519
33114SOL     OW 1238  12.558   7.155   1.802
33114SOL    HW1 1239  12.562   7.118   1.714
33114SOL    HW2 1240  12.647   7.183   1.820
33115SOL     OW 1241   9.981   1.317  13.397
33115SOL    HW1 1242   9.965   1.271  13.479
33115SOL    HW2 1243   9.924   1.393  13.401
33116SOL     OW 1244  10.722  13.443   4.561
33116SOL    HW1 1245  10.800  13.394   4.534
33116SOL    HW2 1246  10.704  13.502   4.487
33117SOL     OW 1247   6.254   1.865   7.737
33117SOL    HW1 1248   6.324   1.833   7.680
33117SOL    HW2 1249   6.178   1.813   7.712
33118SOL     OW 1250   9.316  14.142  13.196
33118SOL    HW1 1251   9.371  14.213  13.230
33118SOL    HW2 1252   9.275  14.180  13.118
33119SOL     OW 1253  11.609   0.271  14.476
33119SOL    HW1 1254  11.583   0.197  14.421
33119SOL    HW2 1255  11.569   0.347  14.434
33120SOL     OW 1256  14.551   6.107   4.765
33120SOL    HW1 1257  14.495   6.039   4.803
33120SOL    HW2 1258  14.491   6.180   4.749
33121SOL     OW 1259   8.985   2.301  14.777
33121SOL    HW1 1260   9.049   2.367  14.802
33121SOL    HW2 1261   8.959   2.260  14.859
33122SOL     OW 1262   7.652   1.803   4.863
33122SOL    HW1 1263   7.562   1.772   4.871
33122SOL    HW2 1264   7.657   1.877   4.923
33123SOL     OW 1265   9.657   6.114   8.467
33123SOL    HW1 1266   9.745   6.090   8.497
33123SOL    HW2 1267   9.637   6.196   8.512
33124SOL     OW 1268  11.561  13.095   0.096
33124SOL    HW1 1269  11.468  13.076   0.084
33124SOL    HW2 1270  11.602  13.060   0.016
33125SOL     OW 1271   3.122  13.744   0.987
33125SOL    HW1 1272   3.214  13.771   0.991
33125SOL    HW2 1273   3.075  13.825   0.965
33126SOL     OW 1274  14.307   3.753  11.405
33126SOL    HW1 1275  14.327   3.680  11.464
33126SOL    HW2 1276  14.384   3.761  11.349
33127SOL     OW 1277  13.872  14.631   1.072
33127SOL    HW1 1278  13.917  14.711   1.044
33127SOL    HW2 1279  13.847  14.648   1.162
33128SOL     OW 1280   8.658   4.605   5.029
33128SOL    HW1 1281   8.684   4.695   5.010
33128SOL    HW2 1282   8.717   4.551   4.976
33129SOL     OW 1283   1.390   4.999  14.628
33129SOL    HW1 1284   1.414   5.073  14.572
33129SOL    HW2 1285   1.436   5.015  14.710
33130SOL     OW 1286   1.214   6.235   2.364
33130SOL    HW1 1287   1.138   6.293   2.364
33130SOL    HW2 1288   1.271   6.268   2.433
33131SOL     OW 1289   2.480   4.859   2.704
33131SOL    HW1 1290   2.456   4.942   2.744
33131SOL    HW2 1291   2.537   4.883   2.632
33132SOL     OW 1292   7.335   8.462  11.779
33132SOL    HW1 1293   7.274   8.529  11.811
33132SOL    HW2 1294   7.409   8.511  11.745
33133SOL     OW 1295  14.683   0.272  13.504
33133SOL    HW1 1296  14.602   0.312  13.473
33133SOL    HW2 1297  14.708   0.323  13.581
33134SOL     OW 1298   2.938  11.092   3.831
33134SOL    HW1 1299   2.902  11.181   3.827
33134SOL    HW2 1300   3.004  11.091   3.761
33135SOL     OW 1301   5.415   0.230   7.409
33135SOL    HW1 1302   5.464   0.152   7.433
33135SOL    HW2 1303   5.466   0.270   7.338
33136SOL     OW 1304   1.893  11.580   7.999
33136SOL    HW1 1305   1.981  11.556   8.029
33136SOL    HW2 1306   1.889  11.675   8.012
33137SOL     OW 1307  14.804  13.444   8.471
33137SOL    HW1 1308  14.847  13.477   8.550
33137SOL    HW2 1309  14.731  13.392   8.503
33138SOL     OW 1310  11.042   2.168  12.088
33138SOL    HW1 1311  11.084   2.084  12.067
33138SOL    HW2 1312  11.083   2.195  12.170
33139SOL     OW 1313  13.722   2.588   7.771
33139SOL    HW1 1314  13.776   2.519   7.733
33139SOL    HW2 1315  13.656   2.606   7.704
33140SOL     OW 1316   8.747  11.607   2.408
33140SOL    HW1 1317   8.785  11.692   2.390
33140SOL    HW2 1318   8.787  11.579   2.491
33141SOL     OW 1319   4.997   5.315  11.120
33141SOL    HW1 1320   5.022   5.408  11.126
33141SOL    HW2 1321   5.079   5.268  11.135
33142SOL     OW 1322   8.029   3.957  13.477
33142SOL    HW1 1323   7.972   4.018  13.523
33142SOL    HW2 1324   8.112   4.004  13.466
33143SOL     OW 1325   7.586   6.521  13.311
33143SOL    HW1 1326   7.588   6.617  13.308
33143SOL    HW2 1327   7.664   6.493  13.264
33144SOL     OW 1328  12.533   9.679   6.673
33144SOL    HW1 1329  12.611   9.707   6.625
33144SOL    HW2 1330  12.556   9.592   6.706
33145SOL     OW 1331  10.608  11.319   3.341
33145SOL    HW1 1332  10.587  11.251   3.277
33145SOL    HW2 1333  10.642  11.392   3.288
33146SOL     OW 1334  10.599  10.993   7.701
33146SOL    HW1 1335  10.663  10.926   7.724
33146SOL    HW2 1336  10.581  11.039   7.783
33147SOL     OW 1337   3.071   5.117  11.313
33147SOL    HW1 1338   3.017   5.191  11.338
33147SOL    HW2 1339   3.156   5.156  11.289
33148SOL     OW 1340   9.203   7.202   1.557
33148SOL    HW1 1341   9.277   7.166   1.506
33148SOL    HW2 1342   9.131   7.207   1.494
33149SOL     OW 1343  11.013   2.932   8.762
33149SOL    HW1 1344  10.921   2.915   8.740
33149SOL    HW2 1345  11.012   3.018   8.804
33150SOL     OW 1346   3.974  13.625   4.101
33150SOL    HW1 1347   3.914  13.676   4.156
33150SOL    HW2 1348   3.937  13.537   4.099
33151SOL     OW 1349   4.543   9.768  12.621
33151SOL    HW1 1350   4.590   9.735  12.544
33151SOL    HW2 1351   4.591   9.847  12.647
33152SOL     OW 1352   1.717   6.362  12.958
33152SOL    HW1 1353   1.791   6.422  12.957
33152SOL    HW2 1354   1.665   6.388  13.034
33153SOL     OW 1355   4.653   5.473  13.946
33153SOL    HW1 1356   4.738   5.479  13.904
33153SOL    HW2 1357   4.657   5.536  14.018
33154SOL     OW 1358  10.706   1.675   7.808
33154SOL    HW1 1359  10.763   1.597   7.803
33154SOL    HW2 1360  10.645   1.664   7.735
33155SOL     OW 1361  12.305   8.563   5.686
33155SOL    HW1 1362  12.330   8.488   5.631
33155SOL    HW2 1363  12.384   8.616   5.692
33156SOL     OW 1364  12.294   9.589  10.393
33156SOL    HW1 1365  12.311   9.537  10.315
33156SOL    HW2 1366  12.206   9.562  10.421
33157SOL     OW 1367  14.034  13.822   1.312
33157SOL    HW1 1368  14.018  13.815   1.218
33157SOL    HW2 1369  13.954  13.860   1.348
33158SOL     OW 1370  12.125   3.138   8.170
33158SOL    HW1 1371  12.119   3.220   8.122
33158SOL    HW2 1372  12.085   3.157   8.255
33159SOL     OW 1373  13.854   6.825  10.021
33159SOL    HW1 1374  13.846   6.738   9.982
33159SOL    HW2 1375  13.764   6.851  10.039
33160SOL     OW 1376  12.883  10.692   7.289
33160SOL    HW1 1377  12.931  10.610   7.301
33160SOL    HW2 1378  12.894  10.712   7.196
33161SOL     OW 1379   3.199   2.043  12.167
33161SOL    HW1 1380   3.276   2.080  12.124
33161SOL    HW2 1381   3.226   2.028  12.258
33162SOL     OW 1382   3.671   1.373   5.583
33162SOL    HW1 1383   3.585   1.365   5.623
33162SOL    HW2 1384   3.654   1.400   5.492
33163SOL     OW 1385   0.423  10.129   3.174
33163SOL    HW1 1386   0.453  10.081   3.251
33163SOL    HW2 1387   0.499  10.180   3.146
33164SOL     OW 1388   9.933   1.462  14.768
33164SOL    HW1 1389   9.874   1.531  14.798
33164SOL    HW2 1390   9.980   1.434  14.846
33165SOL     OW 1391  10.553   6.389   7.789
33165SOL    HW1 1392  10.483   6.418   7.730
33165SOL    HW2 1393  10.621   6.456   7.780
33166SOL     OW 1394   5.406   0.704  12.423
33166SOL    HW1 1395   5.498   0.725  12.438
33166SOL    HW2 1396   5.370   0.690  12.510
33167SOL     OW 1397   1.436   5.307   1.961
33167SOL    HW1 1398   1.343   5.293   1.977
33167SOL    HW2 1399   1.479   5.278   2.042
33168SOL     OW 1400   9.229   3.482  12.055
33168SOL    HW1 1401   9.294   3.546  12.083
33168SOL    HW2 1402   9.182   3.459  12.135
33169SOL     OW 1403   9.237   1.764  13.249
33169SOL    HW1 1404   9.145   1.764  13.275
33169SOL    HW2 1405   9.262   1.672  13.251
33170SOL     OW 1406   0.140   2.677   9.390
33170SOL    HW1 1407   0.101   2.762   9.407
33170SOL    HW2 1408   0.223   2.696   9.347
33171SOL     OW 1409   1.301  13.479   7.692
33171SOL    HW1 1410   1.384  13.463   7.646
33171SOL    HW2 1411   1.236  13.487   7.622
33172SOL     OW 1412   0.987  10.280   2.301
33172SOL    HW1 1413   0.910  10.287   2.358
33172SOL    HW2 1414   0.964  10.211   2.239
33173SOL     OW 1415   9.379  12.144  12.683
33173SOL    HW1 1416   9.475  12.148  12.679
33173SOL    HW2 1417   9.356  12.071  12.627
33174SOL     OW 1418  12.523  13.543   6.582
33174SOL    HW1 1419  12.574  13.508   6.508
33174SOL    HW2 1420  12.484  13.623   6.548
33175SOL     OW 1421   5.444  12.501   2.783
33175SOL    HW1 1422   5.456  12.544   2.868
33175SOL    HW2 1423   5.500  12.424   2.788
33176SOL     OW 1424  12.297   1.735   5.531
33176SOL    HW1 1425  12.265   1.703   5.616
33176SOL    HW2 1426  12.385   1.767   5.549
33177SOL     OW 1427   5.234  12.480   7.061
33177SOL    HW1 1428   5.160  12.538   7.042
33177SOL    HW2 1429   5.253  12.494   7.153
33178SOL     OW 1430  13.187  14.488  11.764
33178SOL    HW1 1431  13.235  14.553  11.817
33178SOL    HW2 1432  13.207  14.511  11.674
33179SOL     OW 1433   7.860   2.437  13.519
33179SOL    HW1 1434   7.782   2.448  13.465
33179SOL    HW2 1435   7.851   2.348  13.555
33180SOL     OW 1436  13.687   1.880   0.020
33180SOL    HW1 1437  13.652   1.873  14.803
33180SOL    HW2 1438  13.693   1.789   0.050
33181SOL     OW 1439   4.431   0.622  10.042
33181SOL    HW1 1440   4.518   0.657  10.059
33181SOL    HW2 1441   4.375   0.665  10.106
33182SOL     OW 1442  14.115   3.022  14.129
33182SOL    HW1 1443  14.207   3.002  14.111
33182SOL    HW2 1444  14.117   3.106  14.174
33183SOL     OW 1445   6.044   5.794   6.031
33183SOL    HW1 1446   6.138   5.778   6.038
33183SOL    HW2 1447   6.022   5.768   5.941
33184SOL     OW 1448   6.948  11.206   6.001
33184SOL    HW1 1449   6.979  11.264   5.932
33184SOL    HW2 1450   6.865  11.244   6.029
33185SOL     OW 1451  12.342  12.940   1.742
33185SOL    HW1 1452  12.302  13.026   1.732
33185SOL    HW2 1453  12.415  12.955   1.802
33186SOL     OW 1454  11.824   1.528   2.180
33186SOL    HW1 1455  11.734   1.528   2.213
33186SOL    HW2 1456  11.818   1.574   2.096
33187SOL     OW 1457   9.081   3.297   9.703
33187SOL    HW1 1458   9.037   3.241   9.639
33187SOL    HW2 1459   9.148   3.343   9.652
33188SOL     OW 1460   0.875   6.876  11.363
33188SOL    HW1 1461   0.868   6.866  11.268
33188SOL    HW2 1462   0.878   6.971  11.377
33189SOL     OW 1463  11.455   9.236   0.346
33189SOL    HW1 1464  11.382   9.256   0.287
33189SOL    HW2 1465  11.421   9.169   0.405
33190SOL     OW 1466   8.512  12.408   1.978
33190SOL    HW1 1467   8.518  12.443   1.889
33190SOL    HW2 1468   8.603  12.407   2.009
33191SOL     OW 1469   5.187   3.623   7.958
33191SOL    HW1 1470   5.263   3.627   8.016
33191SOL    HW2 1471   5.133   3.552   7.993
33192SOL     OW 1472   5.265   9.124   7.397
33192SOL    HW1 1473   5.197   9.065   7.366
33192SOL    HW2 1474   5.335   9.066   7.427
33193SOL     OW 1475   7.559   3.233   6.256
33193SOL    HW1 1476   7.572   3.190   6.340
33193SOL    HW2 1477   7.562   3.162   6.192
33194SOL     OW 1478  12.052  13.566  10.861
33194SOL    HW1 1479  12.086  13.501  10.922
33194SOL    HW2 1480  11.999  13.625  10.915
33195SOL     OW 1481   0.817   3.415  11.009
33195SOL    HW1 1482   0.803   3.478  10.938
33195SOL    HW2 1483   0.731   3.406  11.050
33196SOL     OW 1484   4.656   7.756  14.773
33196SOL    HW1 1485   4.594   7.822  14.741
33196SOL    HW2 1486   4.658   7.689  14.704
33197SOL     OW 1487  14.459   2.440   5.781
33197SOL    HW1 1488  14.473   2.456   5.687
33197SOL    HW2 1489  14.543   2.464   5.821
33198SOL     OW 1490  13.254  10.998  11.478
33198SOL    HW1 1491  13.215  10.932  11.421
33198SOL    HW2 1492  13.316  10.950  11.533
33199SOL     OW 1493  10.718   0.034   4.295
33199SOL    HW1 1494  10.623   0.025   4.297
33199SOL    HW2 1495  10.736   0.083   4.214
33200SOL     OW 1496   2.563  12.992   5.369
33200SOL    HW1 1497   2.656  12.979   5.386
33200SOL    HW2 1498   2.523  12.989   5.456
33201SOL     OW 1499  11.155   1.532   7.338
33201SOL    HW1 1500  11.134   1.563   7.250
33201SOL    HW2 1501  11.248   1.510   7.335
33202SOL     OW 1502  10.144   4.627  14.344
33202SOL    HW1 1503  10.223   4.596  14.300
33202SOL    HW2 1504  10.148   4.589  14.431
33203SOL     OW 1505   9.247   2.518   4.368
33203SOL    HW1 1506   9.241   2.428   4.337
33203SOL    HW2 1507   9.333   2.524   4.409
33204SOL     OW 1508  12.932   1.861   6.515
33204SOL    HW1 1509  13.023   1.834   6.523
33204SOL    HW2 1510  12.935   1.945   6.469
33205SOL     OW 1511   1.268   3.255  13.933
33205SOL    HW1 1512   1.320   3.310  13.874
33205SOL    HW2 1513   1.277   3.296  14.019
33206SOL     OW 1514   6.386  10.263   6.337
33206SOL    HW1 1515   6.404  10.354   6.313
33206SOL    HW2 1516   6.290  10.259   6.342
33207SOL     OW 1517   3.113   1.489   1.809
33207SOL    HW1 1518   3.148   1.567   1.852
33207SOL    HW2 1519   3.026   1.515   1.779
33208SOL     OW 1520   1.724  12.637   1.840
33208SOL    HW1 1521   1.708  12.567   1.777
33208SOL    HW2 1522   1.636  12.666   1.867
33209SOL     OW 1523  10.585   9.275   9.479
33209SOL    HW1 1524  10.511   9.220   9.504
33209SOL    HW2 1525  10.555   9.322   9.401
33210SOL     OW 1526   1.724   1.061  11.959
33210SOL    HW1 1527   1.759   1.149  11.943
33210SOL    HW2 1528   1.715   1.056  12.054
33211SOL     OW 1529   6.088  14.080   7.507
33211SOL    HW1 1530   6.121  14.072   7.597
33211SOL    HW2 1531   5.999  14.113   7.517
33212SOL     OW 1532   2.206   3.495   9.505
33212SOL    HW1 1533   2.252   3.445   9.437
33212SOL    HW2 1534   2.134   3.438   9.532
33213SOL     OW 1535  12.971   2.976  11.964
33213SOL    HW1 1536  12.988   2.947  11.874
33213SOL    HW2 1537  13.056   3.005  11.996
33214SOL     OW 1538   1.203   9.144  13.880
33214SOL    HW1 1539   1.273   9.209  13.881
33214SOL    HW2 1540   1.248   9.060  13.893
33215SOL     OW 1541  10.112   0.915  12.339
33215SOL    HW1 1542  10.077   0.834  12.303
33215SOL    HW2 1543  10.125   0.971  12.262
33216SOL     OW 1544   9.994   3.999   6.120
33216SOL    HW1 1545   9.911   4.020   6.077
33216SOL    HW2 1546   9.971   3.934   6.187
33217SOL     OW 1547  12.437  12.469   8.115
33217SOL    HW1 1548  12.497  12.519   8.059
33217SOL    HW2 1549  12.362  12.450   8.058
33218SOL     OW 1550  12.966   6.025  12.728
33218SOL    HW1 1551  12.924   5.948  12.765
33218SOL    HW2 1552  12.922   6.099  12.770
33219SOL     OW 1553   8.126   2.381  13.879
33219SOL    HW1 1554   8.122   2.406  13.787
33219SOL    HW2 1555   8.194   2.314  13.884
33220SOL     OW 1556  13.832   9.859  10.412
33220SOL    HW1 1557  13.796   9.852  10.323
33220SOL    HW2 1558  13.908   9.916  10.403
33221SOL     OW 1559  14.580   6.038   7.531
33221SOL    HW1 1560  14.629   5.956   7.536
33221SOL    HW2 1561  14.492   6.013   7.502
33222SOL     OW 1562  13.173   2.891   9.550
33222SOL    HW1 1563  13.198   2.808   9.591
33222SOL    HW2 1564  13.086   2.874   9.514
33223SOL     OW 1565   9.722  12.641   3.304
33223SOL    HW1 1566   9.651  12.704   3.289
33223SOL    HW2 1567   9.801  12.695   3.304
33224SOL     OW 1568   4.362   4.892   4.172
33224SOL    HW1 1569   4.425   4.946   4.219
33224SOL    HW2 1570   4.283   4.946   4.168
33225SOL     OW 1571   7.440   4.992   6.750
33225SOL    HW1 1572   7.430   5.020   6.659
33225SOL    HW2 1573   7.534   4.975   6.759
33226SOL     OW 1574  12.163   9.932   9.666
33226SOL    HW1 1575  12.235   9.966   9.613
33226SOL    HW2 1576  12.140   9.849   9.626
33227SOL     OW 1577  14.822   9.853  12.677
33227SOL    HW1 1578  14.756   9.882  12.740
33227SOL    HW2 1579  14.778   9.783  12.628
33228SOL     OW 1580  12.845   1.400  10.583
33228SOL    HW1 1581  12.792   1.452  10.643
33228SOL    HW2 1582  12.924   1.378  10.633
33229SOL     OW 1583   1.046  13.011  11.987
33229SOL    HW1 1584   0.984  12.957  12.037
33229SOL    HW2 1585   1.099  12.948  11.939
33230SOL     OW 1586   2.107  10.827  13.622
33230SOL    HW1 1587   2.021  10.868  13.618
33230SOL    HW2 1588   2.088  10.734  13.637
33231SOL     OW 1589   7.507  12.145   5.204
33231SOL    HW1 1590   7.557  12.082   5.256
33231SOL    HW2 1591   7.418  12.140   5.238
33232SOL     OW 1592  14.188   7.924   3.535
33232SOL    HW1 1593  14.263   7.956   3.584
33232SOL    HW2 1594  14.209   7.832   3.516
33233SOL     OW 1595  11.969   4.440   8.489
33233SOL    HW1 1596  12.030   4.480   8.550
33233SOL    HW2 1597  11.985   4.346   8.498
33234SOL     OW 1598  14.761   7.528   7.027
33234SOL    HW1 1599  14.720   7.570   7.102
33234SOL    HW2 1600  14.730   7.437   7.030
33235SOL     OW 1601   2.984   9.388   5.867
33235SOL    HW1 1602   3.008   9.316   5.809
33235SOL    HW2 1603   3.000   9.355   5.955
33236SOL     OW 1604   4.425  13.284  14.801
33236SOL    HW1 1605   4.423  13.189  14.808
33236SOL    HW2 1606   4.506  13.310  14.844
33237SOL     OW 1607   2.200   9.894   3.301
33237SOL    HW1 1608   2.285   9.910   3.260
33237SOL    HW2 1609   2.139   9.890   3.227
33238SOL     OW 1610   9.024   1.464   6.001
33238SOL    HW1 1611   9.003   1.528   6.069
33238SOL    HW2 1612   8.940   1.427   5.976
33239SOL     OW 1613   5.832   5.201  11.135
33239SOL    HW1 1614   5.752   5.223  11.183
33239SOL    HW2 1615   5.812   5.224  11.044
33240SOL     OW 1616  14.234   8.448  14.088
33240SOL    HW1 1617  14.313   8.395  14.087
33240SOL    HW2 1618  14.205   8.451  13.997
33241SOL     OW 1619   0.114  12.442   0.531
33241SOL    HW1 1620   0.197  12.456   0.486
33241SOL    HW2 1621   0.134  12.457   0.624
33242SOL     OW 1622  12.455   8.800  13.389
33242SOL    HW1 1623  12.452   8.780  13.483
33242SOL    HW2 1624  12.419   8.889  13.383
33243SOL     OW 1625  10.677   1.521   0.373
33243SOL    HW1 1626  10.737   1.449   0.352
33243SOL    HW2 1627  10.598   1.501   0.322
33244SOL     OW 1628   2.428   5.560   1.859
33244SOL    HW1 1629   2.512   5.541   1.900
33244SOL    HW2 1630   2.373   5.484   1.881
33245SOL     OW 1631   3.871   8.055   7.371
33245SOL    HW1 1632   3.842   8.036   7.461
33245SOL    HW2 1633   3.963   8.079   7.380
33246SOL     OW 1634   9.157   3.248  12.999
33246SOL    HW1 1635   9.193   3.163  13.021
33246SOL    HW2 1636   9.178   3.260  12.906
33247SOL     OW 1637   4.954   4.703   8.998
33247SOL    HW1 1638   4.964   4.669   8.909
33247SOL    HW2 1639   4.930   4.627   9.050
33248SOL     OW 1640   7.262   7.763   9.246
33248SOL    HW1 1641   7.204   7.806   9.182
33248SOL    HW2 1642   7.255   7.670   9.226
33249SOL     OW 1643   1.802   3.918   4.251
33249SOL    HW1 1644   1.801   4.013   4.242
33249SOL    HW2 1645   1.888   3.899   4.290
33250SOL     OW 1646   9.867   9.270   7.923
33250SOL    HW1 1647   9.835   9.189   7.963
33250SOL    HW2 1648   9.806   9.286   7.850
33251SOL     OW 1649  14.455  14.572   7.671
33251SOL    HW1 1650  14.369  14.545   7.703
33251SOL    HW2 1651  14.516  14.543   7.739
33252SOL     OW 1652   3.829  14.504  11.219
33252SOL    HW1 1653   3.756  14.495  11.281
33252SOL    HW2 1654   3.891  14.436  11.245
33253SOL     OW 1655   2.085   2.837   7.483
33253SOL    HW1 1656   2.106   2.917   7.530
33253SOL    HW2 1657   2.133   2.768   7.531
33254SOL     OW 1658  11.503   9.438  11.956
33254SOL    HW1 1659  11.484   9.517  11.906
33254SOL    HW2 1660  11.419   9.414  11.995
33255SOL     OW 1661   0.721  11.745   7.743
33255SOL    HW1 1662   0.637  11.729   7.787
33255SOL    HW2 1663   0.703  11.728   7.650
33256SOL     OW 1664  12.344  14.818   7.743
33256SOL    HW1 1665  12.314  14.786   7.658
33256SOL    HW2 1666  12.350  14.739   7.797
33257SOL     OW 1667   4.294  13.787   3.273
33257SOL    HW1 1668   4.273  13.753   3.360
33257SOL    HW2 1669   4.264  13.878   3.276
33258SOL     OW 1670  11.183  11.705  12.875
33258SOL    HW1 1671  11.145  11.735  12.793
33258SOL    HW2 1672  11.261  11.655  12.848
33259SOL     OW 1673   3.295  14.171   2.512
33259SOL    HW1 1674   3.211  14.146   2.474
33259SOL    HW2 1675   3.359  14.117   2.465
33260SOL     OW 1676  10.560   7.422   0.515
33260SOL    HW1 1677  10.613   7.342   0.524
33260SOL    HW2 1678  10.472   7.390   0.497
33261SOL     OW 1679   1.405   5.126  12.445
33261SOL    HW1 1680   1.446   5.113  12.359
33261SOL    HW2 1681   1.324   5.173  12.425
33262SOL     OW 1682   0.567   7.065   2.280
33262SOL    HW1 1683   0.608   7.004   2.219
33262SOL    HW2 1684   0.545   7.012   2.356
33263SOL     OW 1685   7.900   3.621   1.189
33263SOL    HW1 1686   7.860   3.645   1.106
33263SOL    HW2 1687   7.937   3.703   1.222
33264SOL     OW 1688   3.520   5.440   3.831
33264SOL    HW1 1689   3.425   5.427   3.824
33264SOL    HW2 1690   3.536   5.520   3.781
33265SOL     OW 1691   8.661   7.711  10.727
33265SOL    HW1 1692   8.579   7.667  10.751
33265SOL    HW2 1693   8.645   7.742  10.637
33266SOL     OW 1694   8.714   3.102   6.746
33266SOL    HW1 1695   8.755   3.016   6.753
33266SOL    HW2 1696   8.786   3.161   6.725
33267SOL     OW 1697   3.057   6.791   2.632
33267SOL    HW1 1698   3.045   6.748   2.717
33267SOL    HW2 1699   3.040   6.723   2.568
33268SOL     OW 1700   7.893   0.356   9.034
33268SOL    HW1 1701   7.846   0.439   9.030
33268SOL    HW2 1702   7.980   0.377   9.001
33269SOL     OW 1703   2.582   4.385  12.457
33269SOL    HW1 1704   2.499   4.371  12.502
33269SOL    HW2 1705   2.597   4.303  12.410
33270SOL     OW 1706   8.140   9.295   8.567
33270SOL    HW1 1707   8.231   9.309   8.540
33270SOL    HW2 1708   8.099   9.250   8.493
33271SOL     OW 1709  13.594  10.781  13.507
33271SOL    HW1 1710  13.597  10.686  13.520
33271SOL    HW2 1711  13.506  10.797  13.473
33272SOL     OW 1712   1.308  13.639   7.925
33272SOL    HW1 1713   1.227  13.690   7.921
33272SOL    HW2 1714   1.326  13.614   7.835
33273SOL     OW 1715   2.106  11.933  10.055
33273SOL    HW1 1716   2.035  11.869  10.047
33273SOL    HW2 1717   2.108  11.955  10.148
33274SOL     OW 1718   8.789  11.775   0.920
33274SOL    HW1 1719   8.710  11.828   0.930
33274SOL    HW2 1720   8.855  11.822   0.971
33275SOL     OW 1721  12.976   6.713   2.571
33275SOL    HW1 1722  12.999   6.623   2.595
33275SOL    HW2 1723  12.894   6.730   2.618
33276SOL     OW 1724  14.485  12.741   2.763
33276SOL    HW1 1725  14.533  12.713   2.685
33276SOL    HW2 1726  14.525  12.691   2.835
33277SOL     OW 1727   8.891  12.494   5.062
33277SOL    HW1 1728   8.855  12.436   5.130
33277SOL    HW2 1729   8.982  12.509   5.089
33278SOL     OW 1730   2.342  12.845   1.351
33278SOL    HW1 1731   2.340  12.852   1.446
33278SOL    HW2 1732   2.305  12.927   1.319
33279SOL     OW 1733   9.013   1.092   7.034
33279SOL    HW1 1734   9.083   1.146   6.997
33279SOL    HW2 1735   8.943   1.098   6.969
33280SOL     OW 1736  12.455   8.386   6.136
33280SOL    HW1 1737  12.456   8.396   6.231
33280SOL    HW2 1738  12.376   8.433   6.107
33281SOL     OW 1739   3.135   0.487  13.488
33281SOL    HW1 1740   3.056   0.453  13.530
33281SOL    HW2 1741   3.108   0.507  13.398
33282SOL     OW 1742   7.206   7.991  12.542
33282SOL    HW1 1743   7.204   8.061  12.476
33282SOL    HW2 1744   7.299   7.977  12.559
33283SOL     OW 1745   0.051  14.287   1.069
33283SOL    HW1 1746   0.051  14.245   0.983
33283SOL    HW2 1747   0.061  14.380   1.051
33284SOL     OW 1748   6.707   5.565   4.310
33284SOL    HW1 1749   6.685   5.646   4.266
33284SOL    HW2 1750   6.658   5.498   4.263
33285SOL     OW 1751   3.839  13.426  14.660
33285SOL    HW1 1752   3.804  13.512  14.636
33285SOL    HW2 1753   3.882  13.440  14.744
33286SOL     OW 1754  12.098   7.690   7.747
33286SOL    HW1 1755  12.027   7.705   7.685
33286SOL    HW2 1756  12.178   7.706   7.696
33287SOL     OW 1757   9.294  12.518   7.640
33287SOL    HW1 1758   9.238  12.555   7.709
33287SOL    HW2 1759   9.329  12.438   7.680
33288SOL     OW 1760  11.021   5.029   3.630
33288SOL    HW1 1761  10.931   5.058   3.639
33288SOL    HW2 1762  11.072   5.088   3.686
33289SOL     OW 1763  14.471   0.281  10.598
33289SOL    HW1 1764  14.490   0.188  10.598
33289SOL    HW2 1765  14.447   0.301  10.507
33290SOL     OW 1766  14.038   2.892  13.292
33290SOL    HW1 1767  14.027   2.844  13.210
33290SOL    HW2 1768  14.132   2.888  13.310
33291SOL     OW 1769   6.331   8.838  13.913
33291SOL    HW1 1770   6.417   8.849  13.953
33291SOL    HW2 1771   6.346   8.773  13.844
33292SOL     OW 1772   4.505  11.338   1.932
33292SOL    HW1 1773   4.433  11.331   1.869
33292SOL    HW2 1774   4.490  11.265   1.993
33293SOL     OW 1775   7.840   8.551  11.607
33293SOL    HW1 1776   7.914   8.564  11.548
33293SOL    HW2 1777   7.870   8.586  11.691
33294SOL     OW 1778   3.690  10.497   9.331
33294SOL    HW1 1779   3.650  10.414   9.358
33294SOL    HW2 1780   3.750  10.519   9.401
33295SOL     OW 1781   6.942   8.027   6.732
33295SOL    HW1 1782   6.943   7.986   6.819
33295SOL    HW2 1783   7.034   8.033   6.706
33296SOL     OW 1784   6.324  11.859   5.879
33296SOL    HW1 1785   6.380  11.846   5.802
33296SOL    HW2 1786   6.372  11.922   5.932
33297SOL     OW 1787   5.714  14.159  10.809
33297SOL    HW1 1788   5.662  14.239  10.800
33297SOL    HW2 1789   5.754  14.147  10.722
33298SOL     OW 1790  12.016   8.197   6.159
33298SOL    HW1 1791  12.017   8.109   6.196
33298SOL    HW2 1792  12.080   8.246   6.211
33299SOL     OW 1793  10.243   4.967   2.097
33299SOL    HW1 1794  10.326   4.945   2.054
33299SOL    HW2 1795  10.216   5.049   2.056
33300SOL     OW 1796  12.756   9.993   7.972
33300SOL    HW1 1797  12.807   9.922   7.933
33300SOL    HW2 1798  12.733  10.049   7.899
33301SOL     OW 1799   1.285   3.317   9.682
33301SOL    HW1 1800   1.271   3.316   9.776
33301SOL    HW2 1801   1.348   3.387   9.667
33302SOL     OW 1802   6.166  11.299   3.872
33302SOL    HW1 1803   6.119  11.325   3.951
33302SOL    HW2 1804   6.157  11.374   3.813
33303SOL     OW 1805   4.151   9.856  14.520
33303SOL    HW1 1806   4.074   9.849  14.464
33303SOL    HW2 1807   4.195   9.936  14.489
33304SOL     OW 1808   2.655  14.560   2.141
33304SOL    HW1 1809   2.581  14.582   2.085
33304SOL    HW2 1810   2.617  14.508   2.212
33305SOL     OW 1811  14.216  12.831   6.413
33305SOL    HW1 1812  14.140  12.883   6.389
33305SOL    HW2 1813  14.291  12.885   6.389
33306SOL     OW 1814   2.956   6.730   0.935
33306SOL    HW1 1815   3.042   6.753   0.970
33306SOL    HW2 1816   2.952   6.634   0.943
33307SOL     OW 1817  11.267   7.035  14.168
33307SOL    HW1 1818  11.230   6.947  14.165
33307SOL    HW2 1819  11.196   7.092  14.140
33308SOL     OW 1820   3.950   0.168   0.350
33308SOL    HW1 1821   3.977   0.227   0.280
33308SOL    HW2 1822   3.858   0.148   0.330
33309SOL     OW 1823  11.844   5.902  12.466
33309SOL    HW1 1824  11.865   5.863  12.381
33309SOL    HW2 1825  11.865   5.834  12.530
33310SOL     OW 1826   5.421   8.242  14.860
33310SOL    HW1 1827   5.507   8.231  14.819
33310SOL    HW2 1828   5.367   8.283  14.791
33311SOL     OW 1829   3.788   0.008   0.754
33311SOL    HW1 1830   3.768   0.100   0.768
33311SOL    HW2 1831   3.722  14.833   0.805
33312SOL     OW 1832  10.514  11.218  11.628
33312SOL    HW1 1833  10.573  11.291  11.609
33312SOL    HW2 1834  10.454  11.216  11.554
33313SOL     OW 1835   0.610  13.685  10.388
33313SOL    HW1 1836   0.689  13.710  10.437
33313SOL    HW2 1837   0.559  13.633  10.450
33314SOL     OW 1838   0.953   2.058   6.764
33314SOL    HW1 1839   0.936   2.120   6.834
33314SOL    HW2 1840   0.878   2.066   6.706
33315SOL     OW 1841   4.795  12.961   4.544
33315SOL    HW1 1842   4.827  12.903   4.613
33315SOL    HW2 1843   4.700  12.963   4.558
33316SOL     OW 1844  13.625   0.772  12.717
33316SOL    HW1 1845  13.703   0.805  12.672
33316SOL    HW2 1846  13.564   0.846  12.718
33317SOL     OW 1847   8.029  11.832   0.860
33317SOL    HW1 1848   7.948  11.843   0.909
33317SOL    HW2 1849   8.003  11.843   0.768
33318SOL     OW 1850   7.020  12.581   5.305
33318SOL    HW1 1851   7.009  12.657   5.249
33318SOL    HW2 1852   7.007  12.506   5.247
33319SOL     OW 1853   5.215   6.079   4.212
33319SOL    HW1 1854   5.160   6.123   4.278
33319SOL    HW2 1855   5.167   6.090   4.130
33320SOL     OW 1856  12.751  14.450  10.188
33320SOL    HW1 1857  12.671  14.477  10.235
33320SOL    HW2 1858  12.820  14.456  10.253
33321SOL     OW 1859  14.489   8.045   8.901
33321SOL    HW1 1860  14.564   7.997   8.867
33321SOL    HW2 1861  14.422   7.977   8.913
33322SOL     OW 1862   2.843   1.621  13.183
33322SOL    HW1 1863   2.907   1.553  13.203
33322SOL    HW2 1864   2.868   1.654  13.097
33323SOL     OW 1865   4.772  14.696   3.067
33323SOL    HW1 1866   4.802  14.694   2.976
33323SOL    HW2 1867   4.831  14.637   3.114
33324SOL     OW 1868  11.033   3.421   8.327
33324SOL    HW1 1869  10.955   3.476   8.322
33324SOL    HW2 1870  11.100   3.478   8.366
33325SOL     OW 1871   0.044   6.709   7.369
33325SOL    HW1 1872  14.825   6.685   7.385
33325SOL    HW2 1873   0.040   6.798   7.334
33326SOL     OW 1874   0.060   4.358  14.388
33326SOL    HW1 1875   0.018   4.362  14.474
33326SOL    HW2 1876   0.128   4.425  14.391
33327SOL     OW 1877   2.390   7.565   2.172
33327SOL    HW1 1878   2.348   7.571   2.258
33327SOL    HW2 1879   2.318   7.543   2.112
33328SOL     OW 1880  13.487   5.678   3.340
33328SOL    HW1 1881  13.453   5.710   3.256
33328SOL    HW2 1882  13.547   5.607   3.316
33329SOL     OW 1883  10.846   0.126   1.428
33329SOL    HW1 1884  10.770   0.115   1.485
33329SOL    HW2 1885  10.898   0.194   1.471
33330SOL     OW 1886  13.505   7.530   3.361
33330SOL    HW1 1887  13.446   7.487   3.423
33330SOL    HW2 1888  13.454   7.538   3.281
33331SOL     OW 1889   1.719  10.421   9.254
33331SOL    HW1 1890   1.757  10.407   9.340
33331SOL    HW2 1891   1.659  10.348   9.241
33332SOL     OW 1892   3.965   6.862   4.678
33332SOL    HW1 1893   3.934   6.830   4.593
33332SOL    HW2 1894   4.039   6.805   4.699
33333SOL     OW 1895   4.965   4.846   6.701
33333SOL    HW1 1896   4.946   4.868   6.610
33333SOL    HW2 1897   5.060   4.834   6.703
33334SOL     OW 1898   9.821   7.184   3.297
33334SOL    HW1 1899   9.740   7.176   3.347
33334SOL    HW2 1900   9.889   7.150   3.354
33335SOL     OW 1901   0.403   1.202   2.208
33335SOL    HW1 1902   0.481   1.248   2.237
33335SOL    HW2 1903   0.330   1.256   2.238
33336SOL     OW 1904   4.075   1.662   1.589
33336SOL    HW1 1905   4.003   1.720   1.612
33336SOL    HW2 1906   4.048   1.576   1.621
33337SOL     OW 1907   2.764   2.685   8.473
33337SOL    HW1 1908   2.694   2.724   8.525
33337SOL    HW2 1909   2.719   2.633   8.407
33338SOL     OW 1910   7.029  10.039   7.890
33338SOL    HW1 1911   7.042  10.028   7.985
33338SOL    HW2 1912   7.103  10.094   7.863
33339SOL     OW 1913  13.831   5.560   7.848
33339SOL    HW1 1914  13.882   5.615   7.790
33339SOL    HW2 1915  13.896   5.506   7.894
33340SOL     OW 1916   3.714  11.214   1.949
33340SOL    HW1 1917   3.795  11.185   1.991
33340SOL    HW2 1918   3.656  11.138   1.952
33341SOL     OW 1919  10.517   3.862   9.775
33341SOL    HW1 1920  10.549   3.787   9.725
33341SOL    HW2 1921  10.459   3.909   9.715
33342SOL     OW 1922  14.448   6.271   9.748
33342SOL    HW1 1923  14.372   6.279   9.806
33342SOL    HW2 1924  14.413   6.229   9.669
33343SOL     OW 1925  12.352   1.146   1.633
33343SOL    HW1 1926  12.356   1.082   1.562
33343SOL    HW2 1927  12.269   1.191   1.621
33344SOL     OW 1928   7.320  10.840  11.033
33344SOL    HW1 1929   7.256  10.874  11.095
33344SOL    HW2 1930   7.281  10.760  10.999
33345SOL     OW 1931   0.914  13.933   4.172
33345SOL    HW1 1932   0.881  14.023   4.175
33345SOL    HW2 1933   0.991  13.934   4.228
33346SOL     OW 1934   3.763   0.866   3.125
33346SOL    HW1 1935   3.810   0.824   3.197
33346SOL    HW2 1936   3.693   0.916   3.167
33347SOL     OW 1937   6.930  12.893  10.798
33347SOL    HW1 1938   6.931  12.802  10.768
33347SOL    HW2 1939   6.841  12.922  10.779
33348SOL     OW 1940   1.681  12.757  12.195
33348SOL    HW1 1941   1.728  12.780  12.116
33348SOL    HW2 1942   1.595  12.797  12.185
33349SOL     OW 1943  10.901   8.872   4.044
33349SOL    HW1 1944  10.846   8.941   4.081
33349SOL    HW2 1945  10.973   8.919   4.002
33350SOL     OW 1946   7.519   5.591   8.826
33350SOL    HW1 1947   7.530   5.684   8.808
33350SOL    HW2 1948   7.599   5.550   8.795
33351SOL     OW 1949  12.629  12.777   2.818
33351SOL    HW1 1950  12.618  12.741   2.730
33351SOL    HW2 1951  12.544  12.762   2.860
33352SOL     OW 1952   0.323  10.703  14.864
33352SOL    HW1 1953   0.296  10.612   0.002
33352SOL    HW2 1954   0.323  10.738   0.081
33353SOL     OW 1955   6.727   7.479   4.493
33353SOL    HW1 1956   6.701   7.446   4.579
33353SOL    HW2 1957   6.651   7.461   4.437
33354SOL     OW 1958  13.731   1.356   9.463
33354SOL    HW1 1959  13.767   1.345   9.551
33354SOL    HW2 1960  13.774   1.435   9.429
33355SOL     OW 1961   1.044  10.247   8.238
33355SOL    HW1 1962   1.008  10.238   8.326
33355SOL    HW2 1963   1.034  10.160   8.199
33356SOL     OW 1964  14.664   1.664   1.850
33356SOL    HW1 1965  14.722   1.652   1.925
33356SOL    HW2 1966  14.600   1.594   1.857
33357SOL     OW 1967   9.889  12.870   6.440
33357SOL    HW1 1968   9.890  12.832   6.527
33357SOL    HW2 1969   9.973  12.915   6.432
33358SOL     OW 1970   5.346   9.990   4.161
33358SOL    HW1 1971   5.425   9.975   4.108
33358SOL    HW2 1972   5.364  10.072   4.208
33359SOL     OW 1973   5.661   6.059  10.591
33359SOL    HW1 1974   5.613   6.102  10.521
33359SOL    HW2 1975   5.647   6.114  10.668
33360SOL     OW 1976   3.925  14.565   5.228
33360SOL    HW1 1977   3.900  14.657   5.235
33360SOL    HW2 1978   3.873  14.521   5.295
33361SOL     OW 1979  10.175   1.627   1.488
33361SOL    HW1 1980  10.265   1.642   1.462
33361SOL    HW2 1981  10.131   1.600   1.407
33362SOL     OW 1982   0.403  12.041  10.825
33362SOL    HW1 1983   0.416  12.084  10.909
33362SOL    HW2 1984   0.487  12.048  10.781
33363SOL     OW 1985   0.137   0.043   6.620
33363SOL    HW1 1986   0.048   0.031   6.586
33363SOL    HW2 1987   0.192   0.048   6.542
33364SOL     OW 1988   5.136   3.501   4.366
33364SOL    HW1 1989   5.118   3.512   4.272
33364SOL    HW2 1990   5.176   3.414   4.372
33365SOL     OW 1991   6.868   9.906  11.070
33365SOL    HW1 1992   6.879   9.861  10.986
33365SOL    HW2 1993   6.807   9.977  11.052
33366SOL     OW 1994   2.690   6.991   0.843
33366SOL    HW1 1995   2.691   7.047   0.921
33366SOL    HW2 1996   2.635   7.039   0.781
33367SOL     OW 1997   4.615   9.061   6.050
33367SOL    HW1 1998   4.583   9.042   6.138
33367SOL    HW2 1999   4.670   8.986   6.028
33368SOL     OW 2000   8.971   2.316   3.176
33368SOL    HW1 2001   9.009   2.260   3.109
33368SOL    HW2 2002   8.876   2.306   3.165
33369SOL     OW 2003   7.735   0.005  11.598
33369SOL    HW1 2004   7.768   0.012  11.688
33369SOL    HW2 2005   7.811  14.851  11.547
33370SOL     OW 2006   2.720  14.070   1.501
33370SOL    HW1 2007   2.678  14.100   1.421
33370SOL    HW2 2008   2.690  14.132   1.568
33371SOL     OW 2009   2.204   5.956  11.146
33371SOL    HW1 2010   2.158   5.885  11.101
33371SOL    HW2 2011   2.158   6.035  11.117
33372SOL     OW 2012   6.715   8.652   6.862
33372SOL    HW1 2013   6.645   8.701   6.907
33372SOL    HW2 2014   6.719   8.691   6.775
33373SOL     OW 2015   8.705   8.472   8.044
33373SOL    HW1 2016   8.717   8.484   8.138
33373SOL    HW2 2017   8.640   8.539   8.020
33374SOL     OW 2018   6.808   0.420  11.641
33374SOL    HW1 2019   6.860   0.413  11.721
33374SOL    HW2 2020   6.812   0.513  11.618
33375SOL     OW 2021   8.960   5.088   7.457
33375SOL    HW1 2022   8.941   5.182   7.449
33375SOL    HW2 2023   8.938   5.067   7.548
33376SOL     OW 2024  13.719   6.447   9.369
33376SOL    HW1 2025  13.632   6.483   9.383
33376SOL    HW2 2026  13.766   6.465   9.450
33377SOL     OW 2027   4.052   0.003  12.487
33377SOL    HW1 2028   4.098  14.803  12.529
33377SOL    HW2 2029   4.055   0.074  12.552
33378SOL     OW 2030  14.577   5.853   9.358
33378SOL    HW1 2031  14.590   5.893   9.272
33378SOL    HW2 2032  14.651   5.793   9.368
33379SOL     OW 2033   8.057  14.566  10.759
33379SOL    HW1 2034   8.011  14.647  10.782
33379SOL    HW2 2035   7.987  14.506  10.731
33380SOL     OW 2036   0.204  12.058   1.379
33380SOL    HW1 2037   0.119  12.019   1.400
33380SOL    HW2 2038   0.182  12.140   1.335
33381SOL     OW 2039   6.776   4.732   1.105
33381SOL    HW1 2040   6.747   4.689   1.185
33381SOL    HW2 2041   6.726   4.690   1.035
33382SOL     OW 2042  14.172   1.082  13.352
33382SOL    HW1 2043  14.253   1.055  13.395
33382SOL    HW2 2044  14.200   1.136  13.278
33383SOL     OW 2045   9.662   9.574   3.038
33383SOL    HW1 2046   9.602   9.648   3.038
33383SOL    HW2 2047   9.719   9.588   3.113
33384SOL     OW 2048  10.482  14.670  13.092
33384SOL    HW1 2049  10.548  14.725  13.049
33384SOL    HW2 2050  10.414  14.732  13.120
33385SOL     OW 2051   4.324   8.992   0.758
33385SOL    HW1 2052   4.344   9.053   0.829
33385SOL    HW2 2053   4.251   9.032   0.712
33386SOL     OW 2054   5.571   4.498   9.806
33386SOL    HW1 2055   5.630   4.456   9.868
33386SOL    HW2 2056   5.516   4.426   9.773
33387SOL     OW 2057   0.077  13.932  11.589
33387SOL    HW1 2058   0.012  13.881  11.639
33387SOL    HW2 2059   0.025  13.984  11.528
33388SOL     OW 2060   6.169   8.584   8.423
33388SOL    HW1 2061   6.120   8.548   8.349
33388SOL    HW2 2062   6.259   8.591   8.390
33389SOL     OW 2063   4.068  11.527   3.075
33389SOL    HW1 2064   4.052  11.614   3.109
33389SOL    HW2 2065   4.028  11.527   2.988
33390SOL     OW 2066   8.428  10.311  14.587
33390SOL    HW1 2067   8.504  10.253  14.598
33390SOL    HW2 2068   8.452  10.367  14.514
33391SOL     OW 2069   6.223   5.665   0.979
33391SOL    HW1 2070   6.308   5.680   0.937
33391SOL    HW2 2071   6.209   5.570   0.973
33392SOL     OW 2072   1.164  10.381  13.166
33392SOL    HW1 2073   1.189  10.299  13.122
33392SOL    HW2 2074   1.159  10.445  13.095
33393SOL     OW 2075   7.157   4.468   8.541
33393SOL    HW1 2076   7.189   4.558   8.547
33393SOL    HW2 2077   7.078   4.475   8.488
33394SOL     OW 2078   5.892   3.532   4.571
33394SOL    HW1 2079   5.817   3.584   4.541
33394SOL    HW2 2080   5.915   3.569   4.655
33395SOL     OW 2081  11.924   7.765  14.440
33395SOL    HW1 2082  11.941   7.823  14.365
33395SOL    HW2 2083  11.924   7.677  14.402
33396SOL     OW 2084   5.374   1.518   2.958
33396SOL    HW1 2085   5.302   1.576   2.982
33396SOL    HW2 2086   5.443   1.577   2.929
33397SOL     OW 2087  12.982   0.975   8.975
33397SOL    HW1 2088  13.019   0.907   9.031
33397SOL    HW2 2089  13.000   1.057   9.022
33398SOL     OW 2090   1.798   0.359  12.506
33398SOL    HW1 2091   1.800   0.264  12.514
33398SOL    HW2 2092   1.779   0.391  12.594
33399SOL     OW 2093   0.040   2.555   7.284
33399SOL    HW1 2094  14.830   2.521   7.319
33399SOL    HW2 2095   0.024   2.560   7.189
33400SOL     OW 2096  10.448   8.519   6.622
33400SOL    HW1 2097  10.527   8.568   6.599
33400SOL    HW2 2098  10.418   8.481   6.540
33401SOL     OW 2099   8.874   2.994  11.041
33401SOL    HW1 2100   8.839   3.077  11.007
33401SOL    HW2 2101   8.942   3.021  11.104
33402SOL     OW 2102   3.046  11.259   2.278
33402SOL    HW1 2103   3.095  11.235   2.200
33402SOL    HW2 2104   2.963  11.294   2.245
33403SOL     OW 2105   9.940   5.492   6.693
33403SOL    HW1 2106   9.844   5.489   6.699
33403SOL    HW2 2107   9.958   5.577   6.651
33404SOL     OW 2108  11.399   4.446  13.949
33404SOL    HW1 2109  11.469   4.398  13.905
33404SOL    HW2 2110  11.441   4.483  14.027
33405SOL     OW 2111  11.588  12.921   1.810
33405SOL    HW1 2112  11.657  12.921   1.877
33405SOL    HW2 2113  11.567  13.013   1.798
33406SOL     OW 2114   9.480   5.921   7.764
33406SOL    HW1 2115   9.511   5.839   7.726
33406SOL    HW2 2116   9.502   5.988   7.700
33407SOL     OW 2117  12.033  14.755   6.348
33407SOL    HW1 2118  12.109  14.811   6.337
33407SOL    HW2 2119  11.971  14.785   6.281
33408SOL     OW 2120   6.625   0.544   2.297
33408SOL    HW1 2121   6.709   0.591   2.297
33408SOL    HW2 2122   6.577   0.581   2.223
33409SOL     OW 2123   2.305   0.346  11.399
33409SOL    HW1 2124   2.367   0.274  11.386
33409SOL    HW2 2125   2.339   0.417  11.346
33410SOL     OW 2126   2.277   5.279  14.212
33410SOL    HW1 2127   2.359   5.238  14.242
33410SOL    HW2 2128   2.214   5.207  14.211
33411SOL     OW 2129   3.026  10.753   1.238
33411SOL    HW1 2130   3.111  10.734   1.199
33411SOL    HW2 2131   3.017  10.848   1.231
33412SOL     OW 2132   8.097  13.222   7.925
33412SOL    HW1 2133   8.170  13.249   7.982
33412SOL    HW2 2134   8.140  13.187   7.847
33413SOL     OW 2135  14.735  10.205  12.057
33413SOL    HW1 2136  14.816  10.173  12.015
33413SOL    HW2 2137  14.666  10.181  11.995
33414SOL     OW 2138   1.409   5.205   5.653
33414SOL    HW1 2139   1.469   5.138   5.684
33414SOL    HW2 2140   1.343   5.212   5.722
33415SOL     OW 2141  11.770   6.901   6.782
33415SOL    HW1 2142  11.743   6.852   6.705
33415SOL    HW2 2143  11.862   6.879   6.794
33416SOL     OW 2144   3.865   3.509  14.719
33416SOL    HW1 2145   3.938   3.455  14.688
33416SOL    HW2 2146   3.856   3.577  14.653
33417SOL     OW 2147   7.310  14.097   2.741
33417SOL    HW1 2148   7.366  14.122   2.815
33417SOL    HW2 2149   7.327  14.004   2.729
33418SOL     OW 2150  12.745  11.822   6.944
33418SOL    HW1 2151  12.736  11.906   6.990
33418SOL    HW2 2152  12.656  11.787   6.941
33419SOL     OW 2153  11.753  11.561   5.832
33419SOL    HW1 2154  11.677  11.509   5.858
33419SOL    HW2 2155  11.822  11.497   5.814
33420SOL     OW 2156  14.269   3.058   8.114
33420SOL    HW1 2157  14.183   3.081   8.079
33420SOL    HW2 2158  14.258   2.970   8.150
33421SOL     OW 2159   5.030   6.868   1.896
33421SOL    HW1 2160   5.054   6.957   1.872
33421SOL    HW2 2161   5.103   6.836   1.949
33422SOL     OW 2162  14.473   9.634   5.746
33422SOL    HW1 2163  14.563   9.654   5.771
33422SOL    HW2 2164  14.437   9.588   5.822
33423SOL     OW 2165   7.197   8.028   6.549
33423SOL    HW1 2166   7.166   8.084   6.479
33423SOL    HW2 2167   7.280   8.068   6.577
33424SOL     OW 2168   9.705   8.007   8.681
33424SOL    HW1 2169   9.650   7.930   8.667
33424SOL    HW2 2170   9.646   8.081   8.663
33425SOL     OW 2171   2.421   6.125   8.082
33425SOL    HW1 2172   2.334   6.084   8.086
33425SOL    HW2 2173   2.480   6.056   8.112
33426SOL     OW 2174   7.808   1.581   5.737
33426SOL    HW1 2175   7.724   1.563   5.780
33426SOL    HW2 2176   7.803   1.534   5.654
33427SOL     OW 2177   0.878  10.778   7.443
33427SOL    HW1 2178   0.875  10.845   7.511
33427SOL    HW2 2179   0.851  10.823   7.363
33428SOL     OW 2180   3.398   2.692   3.799
33428SOL    HW1 2181   3.484   2.682   3.757
33428SOL    HW2 2182   3.336   2.665   3.732
33429SOL     OW 2183   9.600   3.927  12.771
33429SOL    HW1 2184   9.622   3.913  12.679
33429SOL    HW2 2185   9.662   3.993  12.801
33430SOL     OW 2186   9.871   0.998  10.980
33430SOL    HW1 2187   9.898   0.992  11.071
33430SOL    HW2 2188   9.910   1.079  10.948
33431SOL     OW 2189   6.896   5.884   2.107
33431SOL    HW1 2190   6.925   5.794   2.119
33431SOL    HW2 2191   6.812   5.876   2.062
33432SOL     OW 2192   2.675   6.232   9.198
33432SOL    HW1 2193   2.736   6.158   9.190
33432SOL    HW2 2194   2.681   6.258   9.290
33433SOL     OW 2195  12.994   7.121   6.957
33433SOL    HW1 2196  13.045   7.131   7.038
33433SOL    HW2 2197  13.059   7.126   6.887
33434SOL     OW 2198   1.293   1.763   6.181
33434SOL    HW1 2199   1.315   1.839   6.127
33434SOL    HW2 2200   1.320   1.787   6.269
33435SOL     OW 2201   3.411   6.861   9.414
33435SOL    HW1 2202   3.326   6.842   9.453
33435SOL    HW2 2203   3.425   6.955   9.429
33436SOL     OW 2204  10.761   2.048   6.161
33436SOL    HW1 2205  10.771   2.128   6.110
33436SOL    HW2 2206  10.837   2.047   6.219
33437SOL     OW 2207   0.342   9.431   5.810
33437SOL    HW1 2208   0.360   9.399   5.722
33437SOL    HW2 2209   0.371   9.522   5.809
33438SOL     OW 2210  11.933   6.417   0.326
33438SOL    HW1 2211  11.991   6.457   0.390
33438SOL    HW2 2212  11.966   6.327   0.317
33439SOL     OW 2213  14.628  10.653   1.447
33439SOL    HW1 2214  14.707  10.685   1.404
33439SOL    HW2 2215  14.620  10.708   1.525
33440SOL     OW 2216   0.230   6.868   7.982
33440SOL    HW1 2217   0.220   6.934   8.051
33440SOL    HW2 2218   0.319   6.881   7.950
33441SOL     OW 2219  14.556   1.004   2.996
33441SOL    HW1 2220  14.461   0.991   2.996
33441SOL    HW2 2221  14.576   1.033   2.907
33442SOL     OW 2222   9.856   6.913  10.902
33442SOL    HW1 2223   9.813   6.846  10.849
33442SOL    HW2 2224   9.794   6.934  10.971
33443SOL     OW 2225   2.355  11.528  13.315
33443SOL    HW1 2226   2.391  11.506  13.229
33443SOL    HW2 2227   2.309  11.611  13.301
33444SOL     OW 2228  13.423   0.347   0.292
33444SOL    HW1 2229  13.388   0.259   0.280
33444SOL    HW2 2230  13.356   0.404   0.255
33445SOL     OW 2231  13.379   6.072   2.739
33445SOL    HW1 2232  13.308   6.120   2.696
33445SOL    HW2 2233  13.418   6.136   2.799
33446SOL     OW 2234   4.101  10.753   8.501
33446SOL    HW1 2235   4.148  10.701   8.437
33446SOL    HW2 2236   4.149  10.836   8.506
33447SOL     OW 2237  12.245  10.976  13.899
33447SOL    HW1 2238  12.301  11.053  13.892
33447SOL    HW2 2239  12.204  10.984  13.986
33448SOL     OW 2240   3.372   9.742   1.057
33448SOL    HW1 2241   3.388   9.830   1.092
33448SOL    HW2 2242   3.436   9.733   0.986
33449SOL     OW 2243  13.797  10.136   8.997
33449SOL    HW1 2244  13.881  10.152   9.041
33449SOL    HW2 2245  13.774  10.046   9.021
33450SOL     OW 2246  13.724  14.007   4.860
33450SOL    HW1 2247  13.635  14.022   4.830
33450SOL    HW2 2248  13.721  14.022   4.954
33451SOL     OW 2249   7.077   7.926   1.193
33451SOL    HW1 2250   7.039   8.013   1.183
33451SOL    HW2 2251   7.126   7.912   1.112
33452SOL     OW 2252  13.858   5.708  11.642
33452SOL    HW1 2253  13.951   5.719  11.622
33452SOL    HW2 2254  13.818   5.686  11.558
33453SOL     OW 2255   2.377  13.275   2.882
33453SOL    HW1 2256   2.362  13.363   2.916
33453SOL    HW2 2257   2.391  13.288   2.788
33454SOL     OW 2258  13.943  10.674   7.099
33454SOL    HW1 2259  13.923  10.589   7.138
33454SOL    HW2 2260  13.916  10.738   7.166
33455SOL     OW 2261  13.524  13.067  11.824
33455SOL    HW1 2262  13.580  13.063  11.902
33455SOL    HW2 2263  13.457  13.132  11.847
33456SOL     OW 2264   5.067   3.856   5.869
33456SOL    HW1 2265   4.997   3.791   5.881
33456SOL    HW2 2266   5.092   3.847   5.777
33457SOL     OW 2267   6.199   7.923  13.459
33457SOL    HW1 2268   6.156   7.904  13.543
33457SOL    HW2 2269   6.292   7.923  13.480
33458SOL     OW 2270  10.375   2.874  10.326
33458SOL    HW1 2271  10.411   2.916  10.405
33458SOL    HW2 2272  10.298   2.927  10.304
33459SOL     OW 2273   4.426   0.146   6.185
33459SOL    HW1 2274   4.463   0.157   6.097
33459SOL    HW2 2275   4.497   0.173   6.244
33460SOL     OW 2276   4.408   9.467  11.503
33460SOL    HW1 2277   4.458   9.549  11.496
33460SOL    HW2 2278   4.376   9.467  11.593
33461SOL     OW 2279   2.897  11.977  13.346
33461SOL    HW1 2280   2.977  11.961  13.397
33461SOL    HW2 2281   2.920  11.949  13.257
33462SOL     OW 2282   1.673   2.285  13.137
33462SOL    HW1 2283   1.623   2.363  13.114
33462SOL    HW2 2284   1.698   2.246  13.053
33463SOL     OW 2285   0.328   7.962   4.448
33463SOL    HW1 2286   0.241   8.002   4.451
33463SOL    HW2 2287   0.312   7.868   4.459
33464SOL     OW 2288  13.259   7.835   9.156
33464SOL    HW1 2289  13.178   7.784   9.151
33464SOL    HW2 2290  13.237   7.919   9.117
33465SOL     OW 2291   4.797   9.916   0.827
33465SOL    HW1 2292   4.736   9.901   0.899
33465SOL    HW2 2293   4.791  10.010   0.811
33466SOL     OW 2294   0.320  14.631  14.865
33466SOL    HW1 2295   0.396  14.673  14.825
33466SOL    HW2 2296   0.266  14.603  14.792
33467SOL     OW 2297  11.875  13.180  12.068
33467SOL    HW1 2298  11.806  13.138  12.016
33467SOL    HW2 2299  11.944  13.114  12.075
33468SOL     OW 2300   2.301   0.855   8.322
33468SOL    HW1 2301   2.235   0.793   8.290
33468SOL    HW2 2302   2.381   0.831   8.275
33469SOL     OW 2303  12.204  14.372   1.532
33469SOL    HW1 2304  12.175  14.409   1.616
33469SOL    HW2 2305  12.209  14.278   1.548
33470SOL     OW 2306   1.630  12.487   6.377
33470SOL    HW1 2307   1.657  12.427   6.446
33470SOL    HW2 2308   1.535  12.478   6.373
33471SOL     OW 2309   2.221   2.167   6.416
33471SOL    HW1 2310   2.189   2.244   6.369
33471SOL    HW2 2311   2.234   2.197   6.506
33472SOL     OW 2312   5.521   9.324  12.485
33472SOL    HW1 2313   5.456   9.254  12.492
33472SOL    HW2 2314   5.585   9.305  12.553
33473SOL     OW 2315   1.443   3.938   8.925
33473SOL    HW1 2316   1.489   4.008   8.878
33473SOL    HW2 2317   1.489   3.931   9.008
33474SOL     OW 2318   6.062   2.794   7.814
33474SOL    HW1 2319   6.031   2.704   7.804
33474SOL    HW2 2320   6.089   2.800   7.906
33475SOL     OW 2321  14.282   7.959   1.720
33475SOL    HW1 2322  14.280   7.866   1.700
33475SOL    HW2 2323  14.358   7.969   1.779
33476SOL     OW 2324   7.482   6.116   8.001
33476SOL    HW1 2325   7.431   6.133   7.921
33476SOL    HW2 2326   7.426   6.059   8.054
33477SOL     OW 2327   9.285   9.200   7.604
33477SOL    HW1 2328   9.211   9.251   7.637
33477SOL    HW2 2329   9.309   9.143   7.677
33478SOL     OW 2330   0.079   0.992   0.231
33478SOL    HW1 2331   0.062   1.083   0.256
33478SOL    HW2 2332  14.868   0.962   0.194
33479SOL     OW 2333   0.552   6.186   9.344
33479SOL    HW1 2334   0.635   6.233   9.355
33479SOL    HW2 2335   0.578   6.097   9.323
33480SOL     OW 2336   4.115  11.302   2.741
33480SOL    HW1 2337   4.186  11.297   2.805
33480SOL    HW2 2338   4.067  11.382   2.764
33481SOL     OW 2339   5.544   4.366   4.954
33481SOL    HW1 2340   5.452   4.386   4.974
33481SOL    HW2 2341   5.587   4.451   4.949
33482SOL     OW 2342   6.170   0.524   6.663
33482SOL    HW1 2343   6.077   0.529   6.640
33482SOL    HW2 2344   6.181   0.438   6.702
33483SOL     OW 2345   8.974   0.935  12.053
33483SOL    HW1 2346   9.068   0.936  12.070
33483SOL    HW2 2347   8.960   1.007  11.992
33484SOL     OW 2348  13.698   2.776   0.709
33484SOL    HW1 2349  13.786   2.812   0.724
33484SOL    HW2 2350  13.660   2.832   0.641
33485SOL     OW 2351  12.626   1.941  10.087
33485SOL    HW1 2352  12.611   1.906  10.000
33485SOL    HW2 2353  12.575   1.885  10.145
33486SOL     OW 2354   7.062   2.357   4.017
33486SOL    HW1 2355   7.002   2.306   3.963
33486SOL    HW2 2356   7.009   2.387   4.091
33487SOL     OW 2357   6.965  11.956   5.630
33487SOL    HW1 2358   7.008  12.016   5.691
33487SOL    HW2 2359   7.037  11.908   5.589
33488SOL     OW 2360   4.914   3.490   0.840
33488SOL    HW1 2361   4.867   3.565   0.875
33488SOL    HW2 2362   4.960   3.524   0.763
33489SOL     OW 2363   9.366   8.523  11.814
33489SOL    HW1 2364   9.455   8.519  11.847
33489SOL    HW2 2365   9.352   8.615  11.792
33490SOL     OW 2366  10.142   4.877   8.457
33490SOL    HW1 2367  10.118   4.876   8.364
33490SOL    HW2 2368  10.091   4.806   8.496
33491SOL     OW 2369   0.020   2.245   5.070
33491SOL    HW1 2370   0.039   2.329   5.029
33491SOL    HW2 2371  14.851   2.267   5.153
33492SOL     OW 2372  11.743  11.576   8.452
33492SOL    HW1 2373  11.698  11.498   8.420
33492SOL    HW2 2374  11.790  11.609   8.376
33493SOL     OW 2375  13.470  10.050   9.708
33493SOL    HW1 2376  13.535  10.019   9.645
33493SOL    HW2 2377  13.386  10.016   9.675
33494SOL     OW 2378  13.639   5.231  10.191
33494SOL    HW1 2379  13.700   5.209  10.261
33494SOL    HW2 2380  13.664   5.174  10.119
33495SOL     OW 2381  11.886   9.492   0.300
33495SOL    HW1 2382  11.961   9.477   0.243
33495SOL    HW2 2383  11.820   9.429   0.270
33496SOL     OW 2384  14.280  11.557   1.943
33496SOL    HW1 2385  14.320  11.541   1.858
33496SOL    HW2 2386  14.193  11.591   1.923
33497SOL     OW 2387   4.036   2.397   3.341
33497SOL    HW1 2388   4.006   2.471   3.289
33497SOL    HW2 2389   3.988   2.405   3.424
33498SOL     OW 2390   2.302   8.904   5.545
33498SOL    HW1 2391   2.293   8.962   5.469
33498SOL    HW2 2392   2.320   8.964   5.618
33499SOL     OW 2393   3.403   0.628   6.445
33499SOL    HW1 2394   3.449   0.576   6.511
33499SOL    HW2 2395   3.411   0.718   6.476
33500SOL     OW 2396  10.961   0.611   3.276
33500SOL    HW1 2397  10.903   0.687   3.281
33500SOL    HW2 2398  10.903   0.536   3.263
33501SOL     OW 2399   1.265   9.552   0.079
33501SOL    HW1 2400   1.207   9.484   0.046
33501SOL    HW2 2401   1.343   9.546   0.024
33502SOL     OW 2402   2.261  13.010   0.472
33502SOL    HW1 2403   2.230  12.997   0.562
33502SOL    HW2 2404   2.266  13.105   0.462
33503SOL     OW 2405  11.301   3.179   5.013
33503SOL    HW1 2406  11.242   3.254   5.008
33503SOL    HW2 2407  11.389   3.217   5.010
33504SOL     OW 2408   0.225   9.124   5.804
33504SOL    HW1 2409   0.315   9.114   5.835
33504SOL    HW2 2410   0.225   9.083   5.718
33505SOL     OW 2411  13.562   6.638   6.150
33505SOL    HW1 2412  13.603   6.712   6.106
33505SOL    HW2 2413  13.524   6.675   6.230
33506SOL     OW 2414  11.039   7.435   7.892
33506SOL    HW1 2415  10.956   7.410   7.851
33506SOL    HW2 2416  11.024   7.523   7.926
33507SOL     OW 2417  13.078   1.069   2.211
33507SOL    HW1 2418  13.071   1.148   2.157
33507SOL    HW2 2419  12.988   1.040   2.223
33508SOL     OW 2420   2.342   1.622  11.260
33508SOL    HW1 2421   2.425   1.636  11.306
33508SOL    HW2 2422   2.328   1.527  11.264
33509SOL     OW 2423   4.608   4.066   3.647
33509SOL    HW1 2424   4.521   4.026   3.657
33509SOL    HW2 2425   4.629   4.099   3.735
33510SOL     OW 2426   1.870   7.975   8.631
33510SOL    HW1 2427   1.796   8.034   8.617
33510SOL    HW2 2428   1.836   7.907   8.689
33511SOL     OW 2429  12.511  10.597   8.409
33511SOL    HW1 2430  12.558  10.604   8.492
33511SOL    HW2 2431  12.477  10.685   8.393
33512SOL     OW 2432   9.503   8.627   9.690
33512SOL    HW1 2433   9.460   8.579   9.620
33512SOL    HW2 2434   9.565   8.685   9.645
33513SOL     OW 2435  13.339  14.438   6.011
33513SOL    HW1 2436  13.285  14.481   5.944
33513SOL    HW2 2437  13.295  14.355   6.028
33514SOL     OW 2438   5.225  13.611  12.610
33514SOL    HW1 2439   5.232  13.522  12.646
33514SOL    HW2 2440   5.254  13.668  12.681
33515SOL     OW 2441   4.493  12.379   0.583
33515SOL    HW1 2442   4.534  12.463   0.606
33515SOL    HW2 2443   4.470  12.340   0.667
33516SOL     OW 2444   9.082   5.427   7.056
33516SOL    HW1 2445   9.068   5.519   7.032
33516SOL    HW2 2446   9.028   5.377   6.995
33517SOL     OW 2447   3.341  10.274   9.057
33517SOL    HW1 2448   3.411  10.210   9.041
33517SOL    HW2 2449   3.288  10.236   9.126
33518SOL     OW 2450   9.639   7.433  14.517
33518SOL    HW1 2451   9.709   7.469  14.572
33518SOL    HW2 2452   9.593   7.373  14.576
33519SOL     OW 2453  12.941   4.544   1.041
33519SOL    HW1 2454  12.906   4.554   0.952
33519SOL    HW2 2455  12.947   4.450   1.054
33520SOL     OW 2456   7.265  11.400   1.160
33520SOL    HW1 2457   7.313  11.344   1.221
33520SOL    HW2 2458   7.250  11.481   1.208
33521SOL     OW 2459  10.250   8.774  14.359
33521SOL    HW1 2460  10.305   8.797  14.285
33521SOL    HW2 2461  10.298   8.705  14.404
33522SOL     OW 2462   3.781  10.745   3.430
33522SOL    HW1 2463   3.814  10.835   3.435
33522SOL    HW2 2464   3.744  10.739   3.342
33523SOL     OW 2465   4.875   2.119   9.246
33523SOL    HW1 2466   4.954   2.079   9.282
33523SOL    HW2 2467   4.805   2.090   9.304
33524SOL     OW 2468   3.682   9.776  14.411
33524SOL    HW1 2469   3.669   9.744  14.322
33524SOL    HW2 2470   3.604   9.828  14.430
33525SOL     OW 2471  13.267   8.091  11.518
33525SOL    HW1 2472  13.273   8.082  11.422
33525SOL    HW2 2473  13.239   8.004  11.548
33526SOL     OW 2474   2.711   1.493  12.365
33526SOL    HW1 2475   2.647   1.554  12.329
33526SOL    HW2 2476   2.690   1.409  12.324
33527SOL     OW 2477   6.544  10.869   4.755
33527SOL    HW1 2478   6.526  10.907   4.668
33527SOL    HW2 2479   6.601  10.934   4.797
33528SOL     OW 2480   3.036  11.905  12.821
33528SOL    HW1 2481   3.017  11.959  12.744
33528SOL    HW2 2482   3.045  11.816  12.787
33529SOL     OW 2483   4.897   7.790  11.167
33529SOL    HW1 2484   4.977   7.806  11.218
33529SOL    HW2 2485   4.927   7.778  11.077
33530SOL     OW 2486   7.902  12.602  13.917
33530SOL    HW1 2487   7.904  12.532  13.982
33530SOL    HW2 2488   7.909  12.683  13.968
33531SOL     OW 2489   4.062   6.195  10.993
33531SOL    HW1 2490   3.998   6.266  11.001
33531SOL    HW2 2491   4.141   6.239  10.962
33532SOL     OW 2492   0.821   9.075   9.866
33532SOL    HW1 2493   0.841   9.023   9.788
33532SOL    HW2 2494   0.903   9.077   9.915
33533SOL     OW 2495   7.313  12.065   6.348
33533SOL    HW1 2496   7.334  12.153   6.380
33533SOL    HW2 2497   7.393  12.033   6.307
33534SOL     OW 2498   8.712   7.040  14.584
33534SOL    HW1 2499   8.703   7.043  14.488
33534SOL    HW2 2500   8.790   6.986  14.599
33535SOL     OW 2501  13.000   9.812   5.413
33535SOL    HW1 2502  12.931   9.876   5.399
33535SOL    HW2 2503  12.997   9.756   5.336
33536SOL     OW 2504   6.959   8.794   6.050
33536SOL    HW1 2505   7.008   8.778   5.969
33536SOL    HW2 2506   6.869   8.770   6.029
33537SOL     OW 2507   9.062   9.628  10.690
33537SOL    HW1 2508   9.129   9.681  10.646
33537SOL    HW2 2509   9.062   9.661  10.780
33538SOL     OW 2510  14.598   2.460  11.631
33538SOL    HW1 2511  14.670   2.440  11.691
33538SOL    HW2 2512  14.619   2.411  11.552
33539SOL     OW 2513  12.578  12.936   9.990
33539SOL    HW1 2514  12.644  12.988  10.035
33539SOL    HW2 2515  12.566  12.858  10.045
33540SOL     OW 2516   2.303   8.008   5.755
33540SOL    HW1 2517   2.219   7.966   5.737
33540SOL    HW2 2518   2.322   8.058   5.676
33541SOL     OW 2519   5.190   1.755   3.058
33541SOL    HW1 2520   5.104   1.757   3.099
33541SOL    HW2 2521   5.199   1.840   3.014
33542SOL     OW 2522   1.730   5.169   5.598
33542SOL    HW1 2523   1.659   5.106   5.610
33542SOL    HW2 2524   1.795   5.123   5.545
33543SOL     OW 2525   9.803   0.829  11.407
33543SOL    HW1 2526   9.829   0.765  11.473
33543SOL    HW2 2527   9.750   0.779  11.345
33544SOL     OW 2528   2.088  11.605   9.326
33544SOL    HW1 2529   2.056  11.536   9.268
33544SOL    HW2 2530   2.180  11.582   9.341
33545SOL     OW 2531  12.421   6.115   0.421
33545SOL    HW1 2532  12.381   6.039   0.463
33545SOL    HW2 2533  12.492   6.079   0.369
33546SOL     OW 2534   1.650   3.682   2.866
33546SOL    HW1 2535   1.668   3.738   2.791
33546SOL    HW2 2536   1.601   3.737   2.927
33547SOL     OW 2537   2.809  13.194  11.490
33547SOL    HW1 2538   2.781  13.283  11.470
33547SOL    HW2 2539   2.837  13.197  11.581
33548SOL     OW 2540   5.314  12.165  12.512
33548SOL    HW1 2541   5.318  12.129  12.423
33548SOL    HW2 2542   5.241  12.227  12.509
33549SOL     OW 2543   1.693   6.730  14.683
33549SOL    HW1 2544   1.671   6.682  14.763
33549SOL    HW2 2545   1.612   6.730  14.632
33550SOL     OW 2546   5.022   6.140   7.357
33550SOL    HW1 2547   5.112   6.118   7.381
33550SOL    HW2 2548   4.971   6.062   7.380
33551SOL     OW 2549   3.892   6.057   3.939
33551SOL    HW1 2550   3.805   6.036   3.907
33551SOL    HW2 2551   3.893   6.152   3.948
33552SOL     OW 2552   5.955   7.465   2.934
33552SOL    HW1 2553   5.973   7.462   2.840
33552SOL    HW2 2554   5.886   7.532   2.943
33553SOL     OW 2555   8.595   8.345   3.098
33553SOL    HW1 2556   8.592   8.313   3.008
33553SOL    HW2 2557   8.673   8.305   3.136
33554SOL     OW 2558   0.281  14.617   3.838
33554SOL    HW1 2559   0.239  14.563   3.905
33554SOL    HW2 2560   0.308  14.555   3.770
33555SOL     OW 2561  14.109  10.554   5.356
33555SOL    HW1 2562  14.200  10.526   5.347
33555SOL    HW2 2563  14.082  10.521   5.442
33556SOL     OW 2564  14.124  14.825  13.408
33556SOL    HW1 2565  14.143  14.789  13.321
33556SOL    HW2 2566  14.205  14.869  13.434
33557SOL     OW 2567  14.109   8.472   6.190
33557SOL    HW1 2568  14.037   8.499   6.133
33557SOL    HW2 2569  14.183   8.527   6.164
33558SOL     OW 2570  14.466   9.304   2.924
33558SOL    HW1 2571  14.372   9.318   2.913
33558SOL    HW2 2572  14.482   9.318   3.017
33559SOL     OW 2573   5.176   9.109   5.244
33559SOL    HW1 2574   5.147   9.196   5.272
33559SOL    HW2 2575   5.100   9.053   5.256
33560SOL     OW 2576   3.807   4.080   0.424
33560SOL    HW1 2577   3.748   4.086   0.498
33560SOL    HW2 2578   3.846   3.993   0.432
33561SOL     OW 2579   0.051   7.745  14.763
33561SOL    HW1 2580   0.145   7.755  14.749
33561SOL    HW2 2581   0.015   7.730  14.675
33562SOL     OW 2582   4.049   5.091   9.997
33562SOL    HW1 2583   3.958   5.068  10.013
33562SOL    HW2 2584   4.090   5.009   9.970
33563SOL     OW 2585   8.238   9.441   4.632
33563SOL    HW1 2586   8.198   9.458   4.547
33563SOL    HW2 2587   8.188   9.368   4.668
33564SOL     OW 2588  10.907   6.245  10.487
33564SOL    HW1 2589  11.002   6.252  10.472
33564SOL    HW2 2590  10.897   6.262  10.581
33565SOL     OW 2591   2.723   7.508   3.567
33565SOL    HW1 2592   2.798   7.561   3.540
33565SOL    HW2 2593   2.738   7.423   3.525
33566SOL     OW 2594  12.582   6.430   5.428
33566SOL    HW1 2595  12.534   6.432   5.511
33566SOL    HW2 2596  12.669   6.397   5.452
33567SOL     OW 2597  14.039   6.609  10.442
33567SOL    HW1 2598  13.959   6.646  10.405
33567SOL    HW2 2599  14.086   6.575  10.367
33568SOL     OW 2600  10.012   7.973   6.270
33568SOL    HW1 2601   9.927   7.951   6.231
33568SOL    HW2 2602  10.069   7.989   6.195
33569SOL     OW 2603   8.266   2.145   0.101
33569SOL    HW1 2604   8.213   2.182   0.172
33569SOL    HW2 2605   8.342   2.107   0.146
33570SOL     OW 2606   4.696   8.219  10.349
33570SOL    HW1 2607   4.756   8.158  10.392
33570SOL    HW2 2608   4.623   8.164  10.319
33571SOL     OW 2609   7.271  12.838  13.260
33571SOL    HW1 2610   7.254  12.908  13.323
33571SOL    HW2 2611   7.289  12.884  13.178
33572SOL     OW 2612  14.161   1.031   3.403
33572SOL    HW1 2613  14.079   1.069   3.436
33572SOL    HW2 2614  14.186   0.967   3.469
33573SOL     OW 2615   2.392   6.783   4.464
33573SOL    HW1 2616   2.410   6.743   4.549
33573SOL    HW2 2617   2.335   6.857   4.484
33574SOL     OW 2618   5.169  12.933   4.613
33574SOL    HW1 2619   5.114  12.896   4.544
33574SOL    HW2 2620   5.258  12.927   4.579
33575SOL     OW 2621   4.095   2.128   0.393
33575SOL    HW1 2622   4.189   2.148   0.399
33575SOL    HW2 2623   4.054   2.212   0.376
33576SOL     OW 2624  14.815  11.481  10.756
33576SOL    HW1 2625  14.753  11.506  10.824
33576SOL    HW2 2626  14.783  11.396  10.725
33577SOL     OW 2627   3.026   8.046   8.169
33577SOL    HW1 2628   3.002   7.994   8.092
33577SOL    HW2 2629   2.952   8.105   8.181
33578SOL     OW 2630  14.114   9.352   4.001
33578SOL    HW1 2631  14.088   9.429   4.053
33578SOL    HW2 2632  14.031   9.317   3.969
33579SOL     OW 2633   9.292  11.729   1.765
33579SOL    HW1 2634   9.264  11.690   1.848
33579SOL    HW2 2635   9.386  11.740   1.774
33580SOL     OW 2636  11.691   1.176   1.250
33580SOL    HW1 2637  11.751   1.102   1.253
33580SOL    HW2 2638  11.611   1.140   1.211
33581SOL     OW 2639  14.173   8.354  12.838
33581SOL    HW1 2640  14.255   8.329  12.881
33581SOL    HW2 2641  14.155   8.281  12.778
33582SOL     OW 2642   2.648   1.562   2.962
33582SOL    HW1 2643   2.697   1.622   3.019
33582SOL    HW2 2644   2.701   1.482   2.961
33583SOL     OW 2645   0.375   7.780   7.195
33583SOL    HW1 2646   0.280   7.782   7.205
33583SOL    HW2 2647   0.409   7.782   7.285
33584SOL     OW 2648   8.217  11.213   5.560
33584SOL    HW1 2649   8.223  11.260   5.476
33584SOL    HW2 2650   8.221  11.282   5.626
33585SOL     OW 2651   1.371  12.509   1.746
33585SOL    HW1 2652   1.448  12.516   1.689
33585SOL    HW2 2653   1.310  12.454   1.697
33586SOL     OW 2654   4.505  12.499  12.266
33586SOL    HW1 2655   4.525  12.559  12.194
33586SOL    HW2 2656   4.555  12.534  12.340
33587SOL     OW 2657   6.723  10.173  10.841
33587SOL    HW1 2658   6.670  10.249  10.866
33587SOL    HW2 2659   6.787  10.208  10.779
33588SOL     OW 2660  14.120  14.737   3.228
33588SOL    HW1 2661  14.161  14.692   3.154
33588SOL    HW2 2662  14.115  14.671   3.297
33589SOL     OW 2663   8.703  12.010  13.053
33589SOL    HW1 2664   8.788  12.054  13.053
33589SOL    HW2 2665   8.696  11.971  12.966
33590SOL     OW 2666   8.459   8.078   5.972
33590SOL    HW1 2667   8.520   8.151   5.983
33590SOL    HW2 2668   8.424   8.063   6.059
33591SOL     OW 2669   7.246  14.458   5.649
33591SOL    HW1 2670   7.251  14.425   5.559
33591SOL    HW2 2671   7.310  14.528   5.653
33592SOL     OW 2672   4.877  11.547  14.311
33592SOL    HW1 2673   4.942  11.552  14.241
33592SOL    HW2 2674   4.857  11.453  14.318
33593SOL     OW 2675  10.686   9.089   0.505
33593SOL    HW1 2676  10.730   9.112   0.586
33593SOL    HW2 2677  10.748   9.112   0.436
33594SOL     OW 2678   3.411   4.634  12.763
33594SOL    HW1 2679   3.447   4.584  12.690
33594SOL    HW2 2680   3.479   4.630  12.830
33595SOL     OW 2681   4.861   9.234   2.401
33595SOL    HW1 2682   4.852   9.211   2.308
33595SOL    HW2 2683   4.831   9.156   2.448
33596SOL     OW 2684   2.678   7.771   4.150
33596SOL    HW1 2685   2.755   7.741   4.102
33596SOL    HW2 2686   2.697   7.752   4.241
33597SOL     OW 2687  10.519   1.950  14.601
33597SOL    HW1 2688  10.513   1.936  14.695
33597SOL    HW2 2689  10.456   2.020  14.583
33598SOL     OW 2690  10.299  11.328  13.859
33598SOL    HW1 2691  10.385  11.316  13.900
33598SOL    HW2 2692  10.318  11.343  13.767
33599SOL     OW 2693  11.844   4.427  14.730
33599SOL    HW1 2694  11.762   4.376  14.730
33599SOL    HW2 2695  11.842   4.474  14.814
33600SOL     OW 2696  10.072   3.952   9.944
33600SOL    HW1 2697   9.992   3.933   9.894
33600SOL    HW2 2698  10.040   3.978  10.031
33601SOL     OW 2699   0.290  11.738   0.953
33601SOL    HW1 2700   0.305  11.723   1.046
33601SOL    HW2 2701   0.205  11.697   0.936
33602SOL     OW 2702  10.158   4.734  11.784
33602SOL    HW1 2703  10.077   4.755  11.737
33602SOL    HW2 2704  10.225   4.785  11.740
33603SOL     OW 2705   6.400  10.397  13.769
33603SOL    HW1 2706   6.458  10.474  13.777
33603SOL    HW2 2707   6.436  10.334  13.831
33604SOL     OW 2708  14.660  11.150   6.017
33604SOL    HW1 2709  14.576  11.105   6.027
33604SOL    HW2 2710  14.708  11.097   5.954
33605SOL     OW 2711   4.922   2.563  12.690
33605SOL    HW1 2712   4.867   2.565  12.769
33605SOL    HW2 2713   4.907   2.476  12.653
33606SOL     OW 2714  13.361   0.609  10.552
33606SOL    HW1 2715  13.287   0.604  10.490
33606SOL    HW2 2716  13.360   0.525  10.596
33607SOL     OW 2717   6.028   0.697   9.340
33607SOL    HW1 2718   6.055   0.775   9.292
33607SOL    HW2 2719   5.977   0.731   9.414
33608SOL     OW 2720   1.017  11.474   8.692
33608SOL    HW1 2721   1.052  11.511   8.773
33608SOL    HW2 2722   1.087  11.485   8.628
33609SOL     OW 2723   6.019   6.160   1.236
33609SOL    HW1 2724   6.022   6.188   1.327
33609SOL    HW2 2725   5.981   6.073   1.238
33610SOL     OW 2726  11.283  13.219   1.605
33610SOL    HW1 2727  11.264  13.159   1.677
33610SOL    HW2 2728  11.355  13.178   1.557
33611SOL     OW 2729  10.248  12.052  14.496
33611SOL    HW1 2730  10.163  12.032  14.457
33611SOL    HW2 2731  10.312  12.026  14.429
33612SOL     OW 2732  13.791  10.205   7.164
33612SOL    HW1 2733  13.745  10.187   7.246
33612SOL    HW2 2734  13.883  10.188   7.184
33613SOL     OW 2735   7.521   3.240  13.502
33613SOL    HW1 2736   7.517   3.172  13.434
33613SOL    HW2 2737   7.493   3.320  13.457
33614SOL     OW 2738   6.581   7.577   0.358
33614SOL    HW1 2739   6.607   7.572   0.266
33614SOL    HW2 2740   6.661   7.603   0.404
33615SOL     OW 2741   3.754   2.579  10.181
33615SOL    HW1 2742   3.736   2.495  10.225
33615SOL    HW2 2743   3.846   2.596  10.198
33616SOL     OW 2744  10.573   9.827   2.864
33616SOL    HW1 2745  10.560   9.733   2.849
33616SOL    HW2 2746  10.660   9.833   2.904
33617SOL     OW 2747   8.673  11.846   3.733
33617SOL    HW1 2748   8.726  11.804   3.801
33617SOL    HW2 2749   8.675  11.939   3.755
33618SOL     OW 2750  12.152  11.849   0.949
33618SOL    HW1 2751  12.101  11.787   1.000
33618SOL    HW2 2752  12.161  11.808   0.863
33619SOL     OW 2753   9.346  10.057  13.626
33619SOL    HW1 2754   9.305  10.111  13.694
33619SOL    HW2 2755   9.289  10.066  13.550
33620SOL     OW 2756   6.715   3.290  10.648
33620SOL    HW1 2757   6.726   3.370  10.699
33620SOL    HW2 2758   6.634   3.251  10.682
33621SOL     OW 2759   7.936   9.082   1.396
33621SOL    HW1 2760   7.923   8.997   1.438
33621SOL    HW2 2761   8.030   9.096   1.399
33622SOL     OW 2762  12.284   2.115   6.819
33622SOL    HW1 2763  12.218   2.174   6.856
33622SOL    HW2 2764  12.360   2.126   6.876
33623SOL     OW 2765   8.140   6.220  14.635
33623SOL    HW1 2766   8.225   6.212  14.590
33623SOL    HW2 2767   8.114   6.129  14.652
33624SOL     OW 2768  12.452   3.832   9.183
33624SOL    HW1 2769  12.459   3.744   9.146
33624SOL    HW2 2770  12.410   3.819   9.268
33625SOL     OW 2771  10.494   9.579   1.931
33625SOL    HW1 2772  10.466   9.513   1.868
33625SOL    HW2 2773  10.424   9.582   1.996
33626SOL     OW 2774  12.335  14.002   9.663
33626SOL    HW1 2775  12.252  13.955   9.657
33626SOL    HW2 2776  12.318  14.086   9.622
33627SOL     OW 2777   9.515  13.537   9.073
33627SOL    HW1 2778   9.493  13.474   9.004
33627SOL    HW2 2779   9.431  13.558   9.114
33628SOL     OW 2780   7.687   1.845   2.157
33628SOL    HW1 2781   7.617   1.895   2.199
33628SOL    HW2 2782   7.654   1.755   2.155
33629SOL     OW 2783   0.477   8.938   2.002
33629SOL    HW1 2784   0.408   8.915   1.941
33629SOL    HW2 2785   0.440   9.010   2.054
33630SOL     OW 2786  10.903  11.975   9.244
33630SOL    HW1 2787  10.897  11.995   9.337
33630SOL    HW2 2788  10.826  11.921   9.226
33631SOL     OW 2789   6.149   4.596   4.494
33631SOL    HW1 2790   6.178   4.512   4.458
33631SOL    HW2 2791   6.092   4.572   4.567
33632SOL     OW 2792   8.923   0.279   8.150
33632SOL    HW1 2793   8.963   0.290   8.063
33632SOL    HW2 2794   8.968   0.343   8.205
33633SOL     OW 2795   3.851   1.390   9.855
33633SOL    HW1 2796   3.896   1.392   9.940
33633SOL    HW2 2797   3.789   1.463   9.860
33634SOL     OW 2798  14.615   6.076  11.191
33634SOL    HW1 2799  14.533   6.114  11.161
33634SOL    HW2 2800  14.668   6.067  11.112
33635SOL     OW 2801   0.367   6.401   8.507
33635SOL    HW1 2802   0.379   6.496   8.514
33635SOL    HW2 2803   0.427   6.374   8.438
33636SOL     OW 2804  14.249   1.975   1.093
33636SOL    HW1 2805  14.154   1.983   1.095
33636SOL    HW2 2806  14.274   1.953   1.183
33637SOL     OW 2807   5.534   3.002   9.236
33637SOL    HW1 2808   5.617   2.984   9.279
33637SOL    HW2 2809   5.506   2.918   9.200
33638SOL     OW 2810   7.946   0.596   5.264
33638SOL    HW1 2811   7.906   0.561   5.185
33638SOL    HW2 2812   8.037   0.613   5.240
33639SOL     OW 2813   1.285  13.985  10.705
33639SOL    HW1 2814   1.346  14.056  10.728
33639SOL    HW2 2815   1.340  13.906  10.704
33640SOL     OW 2816  12.680   1.903  14.421
33640SOL    HW1 2817  12.752   1.865  14.370
33640SOL    HW2 2818  12.611   1.918  14.357
33641SOL     OW 2819  11.333   0.824  11.079
33641SOL    HW1 2820  11.290   0.852  10.998
33641SOL    HW2 2821  11.371   0.739  11.057
33642SOL     OW 2822  10.885   2.349  11.727
33642SOL    HW1 2823  10.979   2.346  11.745
33642SOL    HW2 2824  10.875   2.418  11.662
33643SOL     OW 2825   6.834   3.629   7.799
33643SOL    HW1 2826   6.741   3.631   7.777
33643SOL    HW2 2827   6.850   3.538   7.824
33644SOL     OW 2828  10.108   5.265  10.235
33644SOL    HW1 2829  10.067   5.190  10.278
33644SOL    HW2 2830  10.151   5.314  10.306
33645SOL     OW 2831   6.450   3.011   2.380
33645SOL    HW1 2832   6.481   3.039   2.467
33645SOL    HW2 2833   6.369   3.060   2.367
33646SOL     OW 2834  11.521   5.805   8.511
33646SOL    HW1 2835  11.576   5.790   8.434
33646SOL    HW2 2836  11.473   5.723   8.523
33647SOL     OW 2837   1.061   1.271   8.909
33647SOL    HW1 2838   1.077   1.365   8.905
33647SOL    HW2 2839   0.982   1.262   8.963
33648SOL     OW 2840   0.593  11.770  12.935
33648SOL    HW1 2841   0.650  11.839  12.902
33648SOL    HW2 2842   0.581  11.711  12.861
33649SOL     OW 2843   2.134   1.814   4.713
33649SOL    HW1 2844   2.174   1.751   4.773
33649SOL    HW2 2845   2.191   1.813   4.636
33650SOL     OW 2846   7.591   9.552   7.693
33650SOL    HW1 2847   7.563   9.572   7.603
33650SOL    HW2 2848   7.664   9.611   7.709
33651SOL     OW 2849  12.722  14.167   9.560
33651SOL    HW1 2850  12.762  14.080   9.563
33651SOL    HW2 2851  12.652  14.158   9.495
33652SOL     OW 2852   0.223   0.033   4.161
33652SOL    HW1 2853   0.218   0.110   4.219
33652SOL    HW2 2854   0.192   0.066   4.076
33653SOL     OW 2855   3.017  13.011   2.905
33653SOL    HW1 2856   2.938  13.061   2.924
33653SOL    HW2 2857   3.037  12.965   2.987
33654SOL     OW 2858   5.688   9.530   5.418
33654SOL    HW1 2859   5.709   9.602   5.478
33654SOL    HW2 2860   5.696   9.451   5.471
33655SOL     OW 2861   1.770   6.208   5.940
33655SOL    HW1 2862   1.816   6.284   5.907
33655SOL    HW2 2863   1.822   6.133   5.911
33656SOL     OW 2864   1.326  12.220   3.464
33656SOL    HW1 2865   1.275  12.238   3.543
33656SOL    HW2 2866   1.414  12.252   3.485
33657SOL     OW 2867   3.214  10.143  14.689
33657SOL    HW1 2868   3.124  10.120  14.665
33657SOL    HW2 2869   3.240  10.209  14.625
33658SOL     OW 2870   3.334   2.183   0.772
33658SOL    HW1 2871   3.265   2.121   0.752
33658SOL    HW2 2872   3.336   2.187   0.868
33659SOL     OW 2873  13.778   1.894   9.846
33659SOL    HW1 2874  13.812   1.984   9.848
33659SOL    HW2 2875  13.852   1.841   9.817
33660SOL     OW 2876   0.481   1.263   0.297
33660SOL    HW1 2877   0.514   1.351   0.316
33660SOL    HW2 2878   0.432   1.272   0.215
33661SOL     OW 2879   1.046   1.201   2.617
33661SOL    HW1 2880   1.011   1.255   2.547
33661SOL    HW2 2881   1.073   1.120   2.574
33662SOL     OW 2882  11.649   1.462  12.710
33662SOL    HW1 2883  11.723   1.520  12.726
33662SOL    HW2 2884  11.634   1.417  12.793
33663SOL     OW 2885   1.740  10.871  11.394
33663SOL    HW1 2886   1.796  10.834  11.462
33663SOL    HW2 2887   1.741  10.965  11.410
33664SOL     OW 2888   4.474   2.957   9.005
33664SOL    HW1 2889   4.563   2.947   9.038
33664SOL    HW2 2890   4.419   2.916   9.072
33665SOL     OW 2891  14.199  13.546  10.160
33665SOL    HW1 2892  14.236  13.619  10.209
33665SOL    HW2 2893  14.127  13.515  10.213
33666SOL     OW 2894   8.860   6.037   5.287
33666SOL    HW1 2895   8.807   6.063   5.363
33666SOL    HW2 2896   8.866   6.116   5.234
33667SOL     OW 2897  11.116   8.673  10.018
33667SOL    HW1 2898  11.132   8.620  10.096
33667SOL    HW2 2899  11.197   8.668   9.968
33668SOL     OW 2900  13.778   1.007   9.584
33668SOL    HW1 2901  13.822   1.091   9.598
33668SOL    HW2 2902  13.811   0.950   9.654
33669SOL     OW 2903   6.871   4.974  13.636
33669SOL    HW1 2904   6.834   4.927  13.560
33669SOL    HW2 2905   6.798   5.027  13.668
33670SOL     OW 2906   1.224   7.680   3.862
33670SOL    HW1 2907   1.209   7.587   3.847
33670SOL    HW2 2908   1.216   7.720   3.775
33671SOL     OW 2909  13.707   8.738   4.614
33671SOL    HW1 2910  13.644   8.736   4.542
33671SOL    HW2 2911  13.764   8.662   4.598
33672SOL     OW 2912   4.751  10.932   4.752
33672SOL    HW1 2913   4.726  10.844   4.780
33672SOL    HW2 2914   4.695  10.991   4.802
33673SOL     OW 2915  12.974   7.843   7.397
33673SOL    HW1 2916  12.942   7.851   7.307
33673SOL    HW2 2917  12.939   7.919   7.442
33674SOL     OW 2918  13.290   3.440   3.115
33674SOL    HW1 2919  13.278   3.374   3.184
33674SOL    HW2 2920  13.233   3.513   3.141
33675SOL     OW 2921   7.898   0.895   5.792
33675SOL    HW1 2922   7.933   0.926   5.876
33675SOL    HW2 2923   7.961   0.829   5.763
33676SOL     OW 2924   0.370  13.550   9.648
33676SOL    HW1 2925   0.332  13.597   9.722
33676SOL    HW2 2926   0.355  13.457   9.668
33677SOL     OW 2927   9.813   3.057   1.509
33677SOL    HW1 2928   9.778   3.016   1.588
33677SOL    HW2 2929   9.891   3.007   1.487
33678SOL     OW 2930  12.900   9.902   3.879
33678SOL    HW1 2931  12.875   9.981   3.833
33678SOL    HW2 2932  12.972   9.865   3.828
33679SOL     OW 2933   6.489   3.930  13.221
33679SOL    HW1 2934   6.577   3.894  13.228
33679SOL    HW2 2935   6.502   4.025  13.215
33680SOL     OW 2936   7.588  10.092   9.153
33680SOL    HW1 2937   7.567  10.075   9.245
33680SOL    HW2 2938   7.619  10.008   9.120
33681SOL     OW 2939   2.136   2.887  14.741
33681SOL    HW1 2940   2.163   2.810  14.792
33681SOL    HW2 2941   2.164   2.962  14.795
33682SOL     OW 2942   5.820   7.717   3.404
33682SOL    HW1 2943   5.901   7.689   3.361
33682SOL    HW2 2944   5.846   7.794   3.455
33683SOL     OW 2945   8.792  13.585   0.371
33683SOL    HW1 2946   8.700  13.558   0.369
33683SOL    HW2 2947   8.841  13.504   0.382
33684SOL     OW 2948   3.698   5.438  10.627
33684SOL    HW1 2949   3.677   5.354  10.586
33684SOL    HW2 2950   3.762   5.418  10.694
33685SOL     OW 2951   6.366   1.137   6.444
33685SOL    HW1 2952   6.365   1.179   6.358
33685SOL    HW2 2953   6.451   1.092   6.448
33686SOL     OW 2954  11.046  13.452  12.727
33686SOL    HW1 2955  11.108  13.428  12.797
33686SOL    HW2 2956  10.967  13.402  12.748
33687SOL     OW 2957  11.822   3.278  13.200
33687SOL    HW1 2958  11.843   3.309  13.112
33687SOL    HW2 2959  11.900   3.231  13.229
33688SOL     OW 2960   5.195   8.156   4.941
33688SOL    HW1 2961   5.288   8.145   4.962
33688SOL    HW2 2962   5.150   8.136   5.023
33689SOL     OW 2963  12.739   4.372   1.266
33689SOL    HW1 2964  12.824   4.355   1.306
33689SOL    HW2 2965  12.724   4.466   1.280
33690SOL     OW 2966   3.680   6.415   0.963
33690SOL    HW1 2967   3.599   6.458   0.937
33690SOL    HW2 2968   3.741   6.486   0.981
33691SOL     OW 2969   0.134   0.479   1.515
33691SOL    HW1 2970   0.195   0.409   1.489
33691SOL    HW2 2971   0.103   0.453   1.602
33692SOL     OW 2972   1.667   7.101  14.340
33692SOL    HW1 2973   1.723   7.138  14.272
33692SOL    HW2 2974   1.658   7.009  14.316
33693SOL     OW 2975  11.681   1.487   9.026
33693SOL    HW1 2976  11.635   1.566   9.000
33693SOL    HW2 2977  11.771   1.499   8.994
33694SOL     OW 2978  12.847   1.659   9.445
33694SOL    HW1 2979  12.937   1.631   9.460
33694SOL    HW2 2980  12.853   1.755   9.439
33695SOL     OW 2981   0.652   8.156  12.892
33695SOL    HW1 2982   0.677   8.248  12.880
33695SOL    HW2 2983   0.637   8.147  12.986
33696SOL     OW 2984   8.374  13.285   4.288
33696SOL    HW1 2985   8.411  13.341   4.357
33696SOL    HW2 2986   8.383  13.196   4.322
33697SOL     OW 2987  13.340   7.535  10.386
33697SOL    HW1 2988  13.267   7.549  10.446
33697SOL    HW2 2989  13.299   7.518  10.301
33698SOL     OW 2990   6.631   7.818   2.320
33698SOL    HW1 2991   6.551   7.765   2.313
33698SOL    HW2 2992   6.702   7.756   2.302
33699SOL     OW 2993   8.132   2.952   6.959
33699SOL    HW1 2994   8.208   2.969   7.014
33699SOL    HW2 2995   8.089   3.037   6.950
33700SOL     OW 2996   2.566  11.809   6.996
33700SOL    HW1 2997   2.656  11.837   7.010
33700SOL    HW2 2998   2.569  11.760   6.914
33701SOL     OW 2999   1.113  11.312   7.316
33701SOL    HW1 3000   1.139  11.327   7.225
33701SOL    HW2 3001   1.069  11.393   7.342
33702SOL     OW 3002   9.574  10.758  11.227
33702SOL    HW1 3003   9.555  10.846  11.197
33702SOL    HW2 3004   9.535  10.701  11.161
33703SOL     OW 3005  12.901  13.674   7.463
33703SOL    HW1 3006  12.897  13.578   7.464
33703SOL    HW2 3007  12.939  13.695   7.378
33704SOL     OW 3008   5.791  14.212   0.016
33704SOL    HW1 3009   5.827  14.222   0.104
33704SOL    HW2 3010   5.723  14.279   0.011
33705SOL     OW 3011   5.215   5.472  11.479
33705SOL    HW1 3012   5.230   5.508  11.567
33705SOL    HW2 3013   5.134   5.421  11.488
33706SOL     OW 3014   1.410   4.720  10.136
33706SOL    HW1 3015   1.435   4.640  10.089
33706SOL    HW2 3016   1.486   4.776  10.130
33707SOL     OW 3017   2.582  13.153   0.672
33707SOL    HW1 3018   2.581  13.144   0.577
33707SOL    HW2 3019   2.632  13.233   0.688
33708SOL     OW 3020   4.243   5.999   9.347
33708SOL    HW1 3021   4.300   6.075   9.363
33708SOL    HW2 3022   4.224   5.965   9.435
33709SOL     OW 3023  10.913   8.074   8.400
33709SOL    HW1 3024  10.878   8.130   8.331
33709SOL    HW2 3025  10.966   8.133   8.454
33710SOL     OW 3026  13.344   2.844   7.497
33710SOL    HW1 3027  13.346   2.934   7.530
33710SOL    HW2 3028  13.274   2.802   7.546
33711SOL     OW 3029  10.537  11.031   3.207
33711SOL    HW1 3030  10.579  11.065   3.128
33711SOL    HW2 3031  10.470  10.971   3.174
33712SOL     OW 3032   4.446  11.920   5.080
33712SOL    HW1 3033   4.504  11.985   5.041
33712SOL    HW2 3034   4.459  11.841   5.027
33713SOL     OW 3035   3.397   6.182   5.253
33713SOL    HW1 3036   3.439   6.266   5.270
33713SOL    HW2 3037   3.304   6.199   5.269
33714SOL     OW 3038   7.596  13.303  11.879
33714SOL    HW1 3039   7.558  13.380  11.835
33714SOL    HW2 3040   7.601  13.236  11.810
33715SOL     OW 3041   4.367   6.048  12.450
33715SOL    HW1 3042   4.299   6.064  12.384
33715SOL    HW2 3043   4.338   6.095  12.527
33716SOL     OW 3044   2.255   3.652   2.416
33716SOL    HW1 3045   2.323   3.603   2.370
33716SOL    HW2 3046   2.174   3.602   2.399
33717SOL     OW 3047   8.257  13.916  11.943
33717SOL    HW1 3048   8.219  13.996  11.980
33717SOL    HW2 3049   8.194  13.888  11.877
33718SOL     OW 3050   7.922   5.413   9.898
33718SOL    HW1 3051   7.962   5.331   9.868
33718SOL    HW2 3052   7.837   5.416   9.853
33719SOL     OW 3053   6.085  13.527  12.918
33719SOL    HW1 3054   6.051  13.612  12.891
33719SOL    HW2 3055   6.147  13.548  12.988
33720SOL     OW 3056   8.758   4.875   2.843
33720SOL    HW1 3057   8.758   4.967   2.815
33720SOL    HW2 3058   8.677   4.865   2.892
33721SOL     OW 3059   8.560   1.256   8.333
33721SOL    HW1 3060   8.532   1.277   8.423
33721SOL    HW2 3061   8.636   1.199   8.344
33722SOL     OW 3062   8.598  12.822  11.107
33722SOL    HW1 3063   8.630  12.869  11.184
33722SOL    HW2 3064   8.543  12.752  11.143
33723SOL     OW 3065   7.607  10.521   5.416
33723SOL    HW1 3066   7.691  10.500   5.457
33723SOL    HW2 3067   7.543  10.469   5.465
33724SOL     OW 3068   6.380  13.149  13.752
33724SOL    HW1 3069   6.450  13.207  13.720
33724SOL    HW2 3070   6.342  13.196  13.826
33725SOL     OW 3071  14.628  12.533  11.357
33725SOL    HW1 3072  14.659  12.447  11.328
33725SOL    HW2 3073  14.545  12.545  11.310
33726SOL     OW 3074   1.025  10.900   3.857
33726SOL    HW1 3075   1.004  10.812   3.888
33726SOL    HW2 3076   1.049  10.948   3.937
33727SOL     OW 3077  13.756   0.497   0.796
33727SOL    HW1 3078  13.690   0.554   0.757
33727SOL    HW2 3079  13.768   0.530   0.885
33728SOL     OW 3080   8.464   4.260   6.647
33728SOL    HW1 3081   8.417   4.283   6.567
33728SOL    HW2 3082   8.512   4.339   6.670
33729SOL     OW 3083  10.360   8.102  13.005
33729SOL    HW1 3084  10.329   8.186  12.972
33729SOL    HW2 3085  10.330   8.100  13.096
33730SOL     OW 3086   2.291   3.630  14.236
33730SOL    HW1 3087   2.228   3.561  14.257
33730SOL    HW2 3088   2.237   3.707  14.217
33731SOL     OW 3089  10.819   7.309   3.598
33731SOL    HW1 3090  10.877   7.301   3.522
33731SOL    HW2 3091  10.773   7.226   3.602
33732SOL     OW 3092   9.671   8.124   1.583
33732SOL    HW1 3093   9.659   8.137   1.489
33732SOL    HW2 3094   9.583   8.101   1.615
33733SOL     OW 3095   2.367  12.930  10.410
33733SOL    HW1 3096   2.369  12.872  10.334
33733SOL    HW2 3097   2.450  12.914  10.454
33734SOL     OW 3098  13.705   8.516   5.138
33734SOL    HW1 3099  13.638   8.493   5.073
33734SOL    HW2 3100  13.659   8.571   5.201
33735SOL     OW 3101  10.471  13.198   4.032
33735SOL    HW1 3102  10.447  13.128   4.093
33735SOL    HW2 3103  10.500  13.270   4.089
33736SOL     OW 3104  10.016   0.540   4.671
33736SOL    HW1 3105   9.996   0.552   4.579
33736SOL    HW2 3106   9.965   0.607   4.716
33737SOL     OW 3107   9.974  12.872   6.765
33737SOL    HW1 3108   9.908  12.939   6.746
33737SOL    HW2 3109   9.926  12.790   6.765
33738SOL     OW 3110  11.508   1.288   0.651
33738SOL    HW1 3111  11.428   1.327   0.613
33738SOL    HW2 3112  11.528   1.215   0.593
33739SOL     OW 3113   8.145  11.113   3.537
33739SOL    HW1 3114   8.123  11.186   3.479
33739SOL    HW2 3115   8.106  11.036   3.494
33740SOL     OW 3116  13.939  12.101   1.335
33740SOL    HW1 3117  13.919  12.088   1.243
33740SOL    HW2 3118  14.015  12.044   1.351
33741SOL     OW 3119   9.186   4.865   6.139
33741SOL    HW1 3120   9.177   4.904   6.052
33741SOL    HW2 3121   9.098   4.833   6.160
33742SOL     OW 3122   6.948   6.377   2.617
33742SOL    HW1 3123   7.005   6.357   2.543
33742SOL    HW2 3124   6.963   6.470   2.635
33743SOL     OW 3125  14.719   0.447   1.234
33743SOL    HW1 3126  14.721   0.509   1.306
33743SOL    HW2 3127  14.781   0.379   1.260
33744SOL     OW 3128   6.801  11.067  13.032
33744SOL    HW1 3129   6.757  11.150  13.013
33744SOL    HW2 3130   6.853  11.086  13.110
33745SOL     OW 3131  13.172   9.582  13.143
33745SOL    HW1 3132  13.226   9.541  13.211
33745SOL    HW2 3133  13.215   9.666  13.126
33746SOL     OW 3134   3.008   1.438   6.561
33746SOL    HW1 3135   3.078   1.374   6.553
33746SOL    HW2 3136   2.929   1.386   6.577
33747SOL     OW 3137   7.304   3.460   4.385
33747SOL    HW1 3138   7.370   3.424   4.325
33747SOL    HW2 3139   7.274   3.540   4.342
33748SOL     OW 3140   2.797  11.755   5.805
33748SOL    HW1 3141   2.755  11.729   5.886
33748SOL    HW2 3142   2.857  11.683   5.785
33749SOL     OW 3143   3.634  14.187  12.355
33749SOL    HW1 3144   3.665  14.127  12.423
33749SOL    HW2 3145   3.603  14.264  12.402
33750SOL     OW 3146  12.455  14.359  10.731
33750SOL    HW1 3147  12.408  14.368  10.814
33750SOL    HW2 3148  12.418  14.280  10.691
33751SOL     OW 3149  14.158   8.020   1.148
33751SOL    HW1 3150  14.234   7.969   1.178
33751SOL    HW2 3151  14.117   8.050   1.229
33752SOL     OW 3152   1.992  13.363  13.482
33752SOL    HW1 3153   1.910  13.400  13.513
33752SOL    HW2 3154   2.027  13.429  13.422
33753SOL     OW 3155   5.464   3.554  13.266
33753SOL    HW1 3156   5.488   3.490  13.199
33753SOL    HW2 3157   5.432   3.501  13.339
33754SOL     OW 3158   8.752   4.065   6.343
33754SOL    HW1 3159   8.759   4.055   6.438
33754SOL    HW2 3160   8.691   4.138   6.331
33755SOL     OW 3161   1.296   9.806   7.802
33755SOL    HW1 3162   1.222   9.865   7.787
33755SOL    HW2 3163   1.367   9.863   7.831
33756SOL     OW 3164   7.634   9.119   8.710
33756SOL    HW1 3165   7.676   9.035   8.690
33756SOL    HW2 3166   7.695   9.163   8.770
33757SOL     OW 3167   6.531   7.911  11.836
33757SOL    HW1 3168   6.458   7.971  11.848
33757SOL    HW2 3169   6.496   7.825  11.861
33758SOL     OW 3170   1.017  10.912   0.010
33758SOL    HW1 3171   0.940  10.954   0.048
33758SOL    HW2 3172   1.027  10.952  14.796
33759SOL     OW 3173   3.205   3.815   2.350
33759SOL    HW1 3174   3.188   3.723   2.330
33759SOL    HW2 3175   3.133   3.862   2.308
33760SOL     OW 3176   0.282   2.402  14.372
33760SOL    HW1 3177   0.255   2.411  14.281
33760SOL    HW2 3178   0.315   2.313  14.380
33761SOL     OW 3179  14.751  13.374  13.495
33761SOL    HW1 3180  14.702  13.451  13.526
33761SOL    HW2 3181  14.842  13.397  13.508
33762SOL     OW 3182   6.352   4.911   4.156
33762SOL    HW1 3183   6.271   4.895   4.205
33762SOL    HW2 3184   6.365   4.831   4.105
33763SOL     OW 3185   7.817  13.322   2.612
33763SOL    HW1 3186   7.799  13.404   2.567
33763SOL    HW2 3187   7.874  13.273   2.551
33764SOL     OW 3188   8.928  11.517  14.351
33764SOL    HW1 3189   8.967  11.604  14.359
33764SOL    HW2 3190   8.939  11.477  14.437
33765SOL     OW 3191  12.172  11.454   2.705
33765SOL    HW1 3192  12.237  11.512   2.744
33765SOL    HW2 3193  12.219  11.407   2.637
33766SOL     OW 3194  12.360   2.745   4.523
33766SOL    HW1 3195  12.424   2.811   4.495
33766SOL    HW2 3196  12.277   2.793   4.529
33767SOL     OW 3197   4.735   8.407   8.658
33767SOL    HW1 3198   4.786   8.346   8.710
33767SOL    HW2 3199   4.669   8.441   8.718
33768SOL     OW 3200   9.818   7.525  14.695
33768SOL    HW1 3201   9.838   7.455  14.757
33768SOL    HW2 3202   9.808   7.603  14.749
33769SOL     OW 3203   9.771  14.554  13.044
33769SOL    HW1 3204   9.766  14.470  12.998
33769SOL    HW2 3205   9.690  14.560  13.093
33770SOL     OW 3206   7.151  12.177   3.520
33770SOL    HW1 3207   7.143  12.258   3.470
33770SOL    HW2 3208   7.146  12.107   3.455
33771SOL     OW 3209   9.556  14.729   2.837
33771SOL    HW1 3210   9.486  14.749   2.774
33771SOL    HW2 3211   9.536  14.641   2.868
33772SOL     OW 3212  12.249  13.858  10.565
33772SOL    HW1 3213  12.314  13.911  10.518
33772SOL    HW2 3214  12.283  13.769  10.559
33773SOL     OW 3215   9.671   6.757  10.089
33773SOL    HW1 3216   9.597   6.784  10.035
33773SOL    HW2 3217   9.740   6.820  10.069
33774SOL     OW 3218   1.539   3.861  12.524
33774SOL    HW1 3219   1.585   3.899  12.450
33774SOL    HW2 3220   1.516   3.773  12.496
33775SOL     OW 3221   5.915   0.172   9.718
33775SOL    HW1 3222   5.829   0.134   9.736
33775SOL    HW2 3223   5.896   0.263   9.693
33776SOL     OW 3224   2.193   8.315   2.236
33776SOL    HW1 3225   2.235   8.347   2.317
33776SOL    HW2 3226   2.119   8.375   2.223
33777SOL     OW 3227   5.746   5.256  13.908
33777SOL    HW1 3228   5.801   5.302  13.972
33777SOL    HW2 3229   5.791   5.173  13.893
33778SOL     OW 3230   5.634  14.067   0.282
33778SOL    HW1 3231   5.674  14.150   0.258
33778SOL    HW2 3232   5.554  14.092   0.329
33779SOL     OW 3233   5.872   8.245   8.267
33779SOL    HW1 3234   5.868   8.290   8.352
33779SOL    HW2 3235   5.893   8.154   8.289
33780SOL     OW 3236  13.037  13.992   7.206
33780SOL    HW1 3237  12.945  13.979   7.226
33780SOL    HW2 3238  13.041  13.987   7.110
33781SOL     OW 3239   4.131  13.536   2.461
33781SOL    HW1 3240   4.079  13.504   2.534
33781SOL    HW2 3241   4.146  13.458   2.407
33782SOL     OW 3242  13.098  12.185   2.610
33782SOL    HW1 3243  13.098  12.089   2.616
33782SOL    HW2 3244  13.187  12.207   2.582
33783SOL     OW 3245   3.632  10.802   6.073
33783SOL    HW1 3246   3.686  10.753   6.136
33783SOL    HW2 3247   3.682  10.883   6.057
33784SOL     OW 3248   7.980   0.617   6.701
33784SOL    HW1 3249   8.003   0.695   6.752
33784SOL    HW2 3250   7.906   0.646   6.647
33785SOL     OW 3251   7.585   5.729   9.642
33785SOL    HW1 3252   7.502   5.770   9.669
33785SOL    HW2 3253   7.644   5.743   9.716
33786SOL     OW 3254   4.564   2.576   0.843
33786SOL    HW1 3255   4.601   2.646   0.897
33786SOL    HW2 3256   4.613   2.498   0.869
33787SOL     OW 3257   8.038   3.576  10.736
33787SOL    HW1 3258   7.992   3.512  10.790
33787SOL    HW2 3259   7.976   3.597  10.666
33788SOL     OW 3260   0.510   7.912   8.505
33788SOL    HW1 3261   0.422   7.931   8.536
33788SOL    HW2 3262   0.503   7.824   8.468
33789SOL     OW 3263   7.513  12.028   8.237
33789SOL    HW1 3264   7.436  11.981   8.207
33789SOL    HW2 3265   7.498  12.042   8.331
33790SOL     OW 3266   2.874   1.629  10.462
33790SOL    HW1 3267   2.846   1.583  10.542
33790SOL    HW2 3268   2.792   1.649  10.417
33791SOL     OW 3269   5.884  12.852   9.272
33791SOL    HW1 3270   5.895  12.936   9.227
33791SOL    HW2 3271   5.822  12.803   9.217
33792SOL     OW 3272  13.783   4.767   9.451
33792SOL    HW1 3273  13.736   4.739   9.372
33792SOL    HW2 3274  13.874   4.773   9.423
33793SOL     OW 3275   9.343   8.422   7.766
33793SOL    HW1 3276   9.271   8.483   7.750
33793SOL    HW2 3277   9.331   8.353   7.700
33794SOL     OW 3278  13.470  11.504   7.947
33794SOL    HW1 3279  13.456  11.554   8.028
33794SOL    HW2 3280  13.385  11.506   7.902
33795SOL     OW 3281   8.821   1.026   9.592
33795SOL    HW1 3282   8.760   1.095   9.619
33795SOL    HW2 3283   8.790   1.000   9.505
33796SOL     OW 3284   6.202   8.096   1.513
33796SOL    HW1 3285   6.180   8.061   1.600
33796SOL    HW2 3286   6.171   8.029   1.452
33797SOL     OW 3287   6.671   7.161   1.341
33797SOL    HW1 3288   6.685   7.256   1.336
33797SOL    HW2 3289   6.648   7.136   1.252
33798SOL     OW 3290   9.251  12.516   1.153
33798SOL    HW1 3291   9.273  12.458   1.080
33798SOL    HW2 3292   9.171  12.479   1.191
33799SOL     OW 3293   4.954   6.953   9.344
33799SOL    HW1 3294   4.865   6.924   9.323
33799SOL    HW2 3295   4.948   6.983   9.435
33800SOL     OW 3296   8.566   6.707  14.605
33800SOL    HW1 3297   8.594   6.638  14.545
33800SOL    HW2 3298   8.553   6.784  14.548
33801SOL     OW 3299   1.325   6.929   6.386
33801SOL    HW1 3300   1.364   7.014   6.406
33801SOL    HW2 3301   1.342   6.916   6.293
33802SOL     OW 3302  13.483   1.164  10.203
33802SOL    HW1 3303  13.502   1.197  10.291
33802SOL    HW2 3304  13.425   1.231  10.165
33803SOL     OW 3305  14.491  10.268   9.161
33803SOL    HW1 3306  14.463  10.357   9.144
33803SOL    HW2 3307  14.472  10.221   9.080
33804SOL     OW 3308   5.951   7.094   4.942
33804SOL    HW1 3309   6.042   7.072   4.924
33804SOL    HW2 3310   5.953   7.186   4.968
33805SOL     OW 3311  11.533  12.140   4.242
33805SOL    HW1 3312  11.493  12.117   4.159
33805SOL    HW2 3313  11.480  12.212   4.276
33806SOL     OW 3314   0.039  12.155   7.601
33806SOL    HW1 3315  14.863  12.124   7.525
33806SOL    HW2 3316   0.095  12.225   7.568
33807SOL     OW 3317   7.265   5.534   0.466
33807SOL    HW1 3318   7.249   5.603   0.401
33807SOL    HW2 3319   7.247   5.576   0.550
33808SOL     OW 3320   0.019   7.544   7.921
33808SOL    HW1 3321   0.081   7.487   7.966
33808SOL    HW2 3322  14.809   7.534   7.969
33809SOL     OW 3323  14.317   2.683   1.076
33809SOL    HW1 3324  14.374   2.638   1.013
33809SOL    HW2 3325  14.235   2.697   1.028
33810SOL     OW 3326  11.718  12.249  14.307
33810SOL    HW1 3327  11.702  12.193  14.231
33810SOL    HW2 3328  11.677  12.332  14.284
33811SOL     OW 3329  12.391   1.274   2.816
33811SOL    HW1 3330  12.436   1.214   2.876
33811SOL    HW2 3331  12.461   1.318   2.769
33812SOL     OW 3332   8.125  14.487   4.602
33812SOL    HW1 3333   8.141  14.413   4.660
33812SOL    HW2 3334   8.211  14.513   4.571
33813SOL     OW 3335  10.964   3.549   6.495
33813SOL    HW1 3336  10.985   3.481   6.432
33813SOL    HW2 3337  10.891   3.597   6.456
33814SOL     OW 3338  13.075   3.271   9.894
33814SOL    HW1 3339  12.984   3.261   9.868
33814SOL    HW2 3340  13.118   3.309   9.817
33815SOL     OW 3341   6.534   0.806   7.020
33815SOL    HW1 3342   6.492   0.816   6.935
33815SOL    HW2 3343   6.478   0.745   7.068
33816SOL     OW 3344   2.063   6.152  11.999
33816SOL    HW1 3345   2.068   6.223  11.935
33816SOL    HW2 3346   2.114   6.183  12.074
33817SOL     OW 3347  13.349   1.379  13.556
33817SOL    HW1 3348  13.365   1.468  13.587
33817SOL    HW2 3349  13.368   1.384  13.462
33818SOL     OW 3350   9.898  11.299   7.566
33818SOL    HW1 3351   9.979  11.346   7.543
33818SOL    HW2 3352   9.868  11.262   7.483
33819SOL     OW 3353   6.072   4.028   7.933
33819SOL    HW1 3354   6.046   3.947   7.977
33819SOL    HW2 3355   6.167   4.023   7.927
33820SOL     OW 3356   1.684   3.096   5.504
33820SOL    HW1 3357   1.628   3.045   5.563
33820SOL    HW2 3358   1.717   3.168   5.558
33821SOL     OW 3359   5.488  10.018  13.200
33821SOL    HW1 3360   5.507  10.029  13.107
33821SOL    HW2 3361   5.571   9.991  13.239
33822SOL     OW 3362   4.203   0.783   2.329
33822SOL    HW1 3363   4.249   0.829   2.258
33822SOL    HW2 3364   4.273   0.748   2.384
33823SOL     OW 3365   8.102   8.095   8.970
33823SOL    HW1 3366   8.010   8.072   8.961
33823SOL    HW2 3367   8.101   8.190   8.985
33824SOL     OW 3368   7.240  11.257   9.368
33824SOL    HW1 3369   7.334  11.273   9.376
33824SOL    HW2 3370   7.222  11.267   9.274
33825SOL     OW 3371   1.829   9.287   8.639
33825SOL    HW1 3372   1.857   9.329   8.557
33825SOL    HW2 3373   1.800   9.200   8.613
33826SOL     OW 3374   0.769   3.773   3.142
33826SOL    HW1 3375   0.685   3.800   3.106
33826SOL    HW2 3376   0.797   3.700   3.087
33827SOL     OW 3377  13.091  14.356  12.676
33827SOL    HW1 3378  13.061  14.410  12.749
33827SOL    HW2 3379  13.014  14.304  12.653
33828SOL     OW 3380   1.416  11.925   2.064
33828SOL    HW1 3381   1.437  12.007   2.110
33828SOL    HW2 3382   1.499  11.898   2.025
33829SOL     OW 3383   6.161   9.117   5.660
33829SOL    HW1 3384   6.196   9.048   5.717
33829SOL    HW2 3385   6.239   9.165   5.630
33830SOL     OW 3386  10.016   0.126  11.753
33830SOL    HW1 3387  10.038   0.208  11.708
33830SOL    HW2 3388  10.089   0.112  11.813
33831SOL     OW 3389  11.526   4.925   3.761
33831SOL    HW1 3390  11.582   4.967   3.827
33831SOL    HW2 3391  11.440   4.918   3.802
33832SOL     OW 3392   2.270   5.379   9.249
33832SOL    HW1 3393   2.337   5.411   9.310
33832SOL    HW2 3394   2.220   5.315   9.299
33833SOL     OW 3395   5.227  11.154   0.759
33833SOL    HW1 3396   5.175  11.074   0.756
33833SOL    HW2 3397   5.213  11.188   0.848
33834SOL     OW 3398   0.717   7.866   6.383
33834SOL    HW1 3399   0.758   7.840   6.300
33834SOL    HW2 3400   0.711   7.786   6.434
33835SOL     OW 3401  10.373   4.370   9.123
33835SOL    HW1 3402  10.365   4.276   9.137
33835SOL    HW2 3403  10.429   4.378   9.046
33836SOL     OW 3404   2.187   6.643  10.531
33836SOL    HW1 3405   2.191   6.554  10.499
33836SOL    HW2 3406   2.267   6.684  10.500
33837SOL     OW 3407   4.057  12.858   7.270
33837SOL    HW1 3408   4.079  12.938   7.222
33837SOL    HW2 3409   3.988  12.818   7.217
33838SOL     OW 3410   3.802   6.386   3.207
33838SOL    HW1 3411   3.761   6.401   3.292
33838SOL    HW2 3412   3.896   6.384   3.225
33839SOL     OW 3413   3.034  11.592   8.040
33839SOL    HW1 3414   3.046  11.663   8.104
33839SOL    HW2 3415   2.957  11.545   8.071
33840SOL     OW 3416   6.685   2.168   8.122
33840SOL    HW1 3417   6.754   2.225   8.087
33840SOL    HW2 3418   6.724   2.081   8.120
33841SOL     OW 3419  14.539   5.607   4.055
33841SOL    HW1 3420  14.525   5.552   3.978
33841SOL    HW2 3421  14.625   5.579   4.089
33842SOL     OW 3422  14.779  11.164  13.979
33842SOL    HW1 3423  14.789  11.162  13.883
33842SOL    HW2 3424  14.869  11.170  14.012
33843SOL     OW 3425  11.569   5.383   7.483
33843SOL    HW1 3426  11.556   5.295   7.447
33843SOL    HW2 3427  11.646   5.375   7.539
33844SOL     OW 3428   7.281   2.533   9.213
33844SOL    HW1 3429   7.244   2.612   9.174
33844SOL    HW2 3430   7.374   2.553   9.226
33845SOL     OW 3431   1.697   0.430   1.895
33845SOL    HW1 3432   1.734   0.421   1.983
33845SOL    HW2 3433   1.627   0.366   1.891
33846SOL     OW 3434   5.123   0.763   6.116
33846SOL    HW1 3435   5.092   0.725   6.034
33846SOL    HW2 3436   5.198   0.817   6.091
33847SOL     OW 3437   7.095  11.438  11.568
33847SOL    HW1 3438   7.180  11.479  11.582
33847SOL    HW2 3439   7.044  11.502  11.520
33848SOL     OW 3440  11.003   6.332   2.708
33848SOL    HW1 3441  11.059   6.268   2.752
33848SOL    HW2 3442  11.037   6.337   2.619
33849SOL     OW 3443  11.353   0.479  11.290
33849SOL    HW1 3444  11.398   0.507  11.211
33849SOL    HW2 3445  11.416   0.495  11.361
33850SOL     OW 3446   1.260  13.937   3.042
33850SOL    HW1 3447   1.215  13.892   2.970
33850SOL    HW2 3448   1.334  13.881   3.063
33851SOL     OW 3449  10.995   0.957   0.542
33851SOL    HW1 3450  10.972   0.914   0.459
33851SOL    HW2 3451  10.910   0.981   0.580
33852SOL     OW 3452   4.151  12.588  11.246
33852SOL    HW1 3453   4.193  12.510  11.281
33852SOL    HW2 3454   4.177  12.658  11.306
33853SOL     OW 3455   9.267   0.359  10.703
33853SOL    HW1 3456   9.277   0.297  10.630
33853SOL    HW2 3457   9.258   0.444  10.661
33854SOL     OW 3458  13.667   5.690   9.588
33854SOL    HW1 3459  13.755   5.727   9.597
33854SOL    HW2 3460  13.620   5.720   9.666
33855SOL     OW 3461   8.013  11.505  12.336
33855SOL    HW1 3462   7.949  11.442  12.369
33855SOL    HW2 3463   8.035  11.558  12.413
33856SOL     OW 3464   3.367   0.804   0.808
33856SOL    HW1 3465   3.301   0.741   0.778
33856SOL    HW2 3466   3.424   0.817   0.732
33857SOL     OW 3467   9.096  12.043   1.927
33857SOL    HW1 3468   9.165  11.995   1.973
33857SOL    HW2 3469   9.015  11.999   1.953
33858SOL     OW 3470   9.542  14.477   2.914
33858SOL    HW1 3471   9.519  14.401   2.860
33858SOL    HW2 3472   9.561  14.440   3.000
33859SOL     OW 3473   8.015   0.858  10.445
33859SOL    HW1 3474   7.979   0.900  10.368
33859SOL    HW2 3475   7.951   0.791  10.468
33860SOL     OW 3476  13.792  12.873  14.701
33860SOL    HW1 3477  13.799  12.781  14.675
33860SOL    HW2 3478  13.715  12.875  14.759
33861SOL     OW 3479   5.976   5.854   8.622
33861SOL    HW1 3480   5.980   5.941   8.663
33861SOL    HW2 3481   5.882   5.839   8.609
33862SOL     OW 3482  10.668   4.611  10.740
33862SOL    HW1 3483  10.703   4.614  10.651
33862SOL    HW2 3484  10.679   4.519  10.767
33863SOL     OW 3485   0.385   3.621   9.696
33863SOL    HW1 3486   0.388   3.683   9.768
33863SOL    HW2 3487   0.293   3.619   9.670
33864SOL     OW 3488  11.601   3.803   1.070
33864SOL    HW1 3489  11.558   3.734   1.020
33864SOL    HW2 3490  11.558   3.884   1.042
33865SOL     OW 3491   5.779  10.118  11.795
33865SOL    HW1 3492   5.874  10.104  11.799
33865SOL    HW2 3493   5.763  10.192  11.853
33866SOL     OW 3494  14.104   9.401  13.268
33866SOL    HW1 3495  14.162   9.436  13.200
33866SOL    HW2 3496  14.066   9.479  13.309
33867SOL     OW 3497   1.121   9.439   7.499
33867SOL    HW1 3498   1.036   9.396   7.489
33867SOL    HW2 3499   1.163   9.429   7.413
33868SOL     OW 3500   6.872   6.221   5.058
33868SOL    HW1 3501   6.826   6.246   4.978
33868SOL    HW2 3502   6.828   6.271   5.127
33869SOL     OW 3503  10.534  12.044   0.406
33869SOL    HW1 3504  10.622  12.006   0.418
33869SOL    HW2 3505  10.482  11.972   0.372
33870SOL     OW 3506  14.706   3.052   2.381
33870SOL    HW1 3507  14.622   3.035   2.423
33870SOL    HW2 3508  14.727   3.142   2.404
33871SOL     OW 3509  13.480   1.718   8.535
33871SOL    HW1 3510  13.429   1.687   8.460
33871SOL    HW2 3511  13.571   1.697   8.512
33872SOL     OW 3512   7.502   8.092  10.759
33872SOL    HW1 3513   7.472   8.002  10.764
33872SOL    HW2 3514   7.593   8.090  10.790
33873SOL     OW 3515   5.769   2.174   1.611
33873SOL    HW1 3516   5.728   2.187   1.696
33873SOL    HW2 3517   5.700   2.137   1.556
33874SOL     OW 3518  10.948   9.749   3.487
33874SOL    HW1 3519  10.963   9.839   3.517
33874SOL    HW2 3520  10.941   9.698   3.567
33875SOL     OW 3521  10.111   9.658  11.383
33875SOL    HW1 3522  10.031   9.685  11.429
33875SOL    HW2 3523  10.085   9.650  11.291
33876SOL     OW 3524   5.146   2.648  14.223
33876SOL    HW1 3525   5.208   2.575  14.227
33876SOL    HW2 3526   5.183   2.715  14.280
33877SOL     OW 3527  13.642   4.883  13.902
33877SOL    HW1 3528  13.725   4.862  13.859
33877SOL    HW2 3529  13.666   4.898  13.994
33878SOL     OW 3530   5.227  12.426   5.766
33878SOL    HW1 3531   5.135  12.438   5.741
33878SOL    HW2 3532   5.241  12.331   5.758
33879SOL     OW 3533   0.779   8.811   1.217
33879SOL    HW1 3534   0.720   8.799   1.291
33879SOL    HW2 3535   0.866   8.795   1.252
33880SOL     OW 3536  11.825   3.770   8.338
33880SOL    HW1 3537  11.811   3.776   8.432
33880SOL    HW2 3538  11.903   3.823   8.322
33881SOL     OW 3539   3.996   1.252   6.593
33881SOL    HW1 3540   4.022   1.325   6.649
33881SOL    HW2 3541   4.071   1.191   6.599
33882SOL     OW 3542   9.699   0.983   0.118
33882SOL    HW1 3543   9.671   0.923   0.187
33882SOL    HW2 3544   9.665   0.944   0.037
33883SOL     OW 3545   8.068  14.653   2.309
33883SOL    HW1 3546   8.022  14.571   2.292
33883SOL    HW2 3547   8.002  14.721   2.296
33884SOL     OW 3548   6.250   2.626   7.187
33884SOL    HW1 3549   6.173   2.582   7.151
33884SOL    HW2 3550   6.240   2.717   7.159
33885SOL     OW 3551  13.674   1.677  13.781
33885SOL    HW1 3552  13.671   1.584  13.758
33885SOL    HW2 3553  13.615   1.685  13.856
33886SOL     OW 3554  10.386   2.603  13.280
33886SOL    HW1 3555  10.307   2.657  13.273
33886SOL    HW2 3556  10.389   2.554  13.198
33887SOL     OW 3557  13.165   4.117   2.707
33887SOL    HW1 3558  13.229   4.164   2.654
33887SOL    HW2 3559  13.080   4.153   2.680
33888SOL     OW 3560   4.949   8.775   4.620
33888SOL    HW1 3561   4.959   8.697   4.675
33888SOL    HW2 3562   5.019   8.834   4.649
33889SOL     OW 3563  10.945   1.675   2.776
33889SOL    HW1 3564  10.890   1.710   2.707
33889SOL    HW2 3565  10.909   1.711   2.857
33890SOL     OW 3566   8.006   4.672   1.702
33890SOL    HW1 3567   7.967   4.743   1.651
33890SOL    HW2 3568   8.077   4.714   1.750
33891SOL     OW 3569  13.359   9.711  10.729
33891SOL    HW1 3570  13.325   9.638  10.676
33891SOL    HW2 3571  13.369   9.783  10.666
33892SOL     OW 3572   1.101   5.557   8.011
33892SOL    HW1 3573   1.032   5.623   8.010
33892SOL    HW2 3574   1.116   5.537   7.919
33893SOL     OW 3575  13.774   0.990   3.004
33893SOL    HW1 3576  13.713   0.954   3.068
33893SOL    HW2 3577  13.730   1.067   2.968
33894SOL     OW 3578  13.345   7.369   2.903
33894SOL    HW1 3579  13.437   7.387   2.921
33894SOL    HW2 3580  13.332   7.279   2.932
33895SOL     OW 3581  10.516  14.868   3.812
33895SOL    HW1 3582  10.456   0.066   3.837
33895SOL    HW2 3583  10.597   0.041   3.789
33896SOL     OW 3584  12.915   8.081   3.240
33896SOL    HW1 3585  13.003   8.066   3.274
33896SOL    HW2 3586  12.903   8.176   3.245
33897SOL     OW 3587   8.294  10.433   1.472
33897SOL    HW1 3588   8.281  10.522   1.508
33897SOL    HW2 3589   8.206  10.404   1.450
33898SOL     OW 3590   3.133  13.312  11.170
33898SOL    HW1 3591   3.202  13.275  11.225
33898SOL    HW2 3592   3.177  13.334  11.088
33899SOL     OW 3593   5.979   5.529   7.486
33899SOL    HW1 3594   6.043   5.461   7.509
33899SOL    HW2 3595   6.017   5.572   7.409
33900SOL     OW 3596   8.482   7.294   7.610
33900SOL    HW1 3597   8.412   7.325   7.667
33900SOL    HW2 3598   8.546   7.256   7.670
33901SOL     OW 3599   7.685  14.099   0.912
33901SOL    HW1 3600   7.778  14.119   0.899
33901SOL    HW2 3601   7.671  14.112   1.006
33902SOL     OW 3602   0.507  11.719   1.704
33902SOL    HW1 3603   0.489  11.637   1.750
33902SOL    HW2 3604   0.523  11.783   1.773
33903SOL     OW 3605   9.226   2.968  10.226
33903SOL    HW1 3606   9.132   2.961  10.239
33903SOL    HW2 3607   9.244   3.062  10.227
33904SOL     OW 3608  10.157  10.361  13.695
33904SOL    HW1 3609  10.140  10.396  13.782
33904SOL    HW2 3610  10.115  10.275  13.694
33905SOL     OW 3611  14.315  10.903  13.770
33905SOL    HW1 3612  14.317  10.814  13.733
33905SOL    HW2 3613  14.397  10.910  13.819
33906SOL     OW 3614   7.361  13.986  10.574
33906SOL    HW1 3615   7.299  13.914  10.589
33906SOL    HW2 3616   7.306  14.059  10.546
33907SOL     OW 3617   5.113   3.661   1.622
33907SOL    HW1 3618   5.073   3.575   1.632
33907SOL    HW2 3619   5.195   3.645   1.575
33908SOL     OW 3620   5.356   6.275   4.404
33908SOL    HW1 3621   5.353   6.290   4.309
33908SOL    HW2 3622   5.266   6.250   4.427
33909SOL     OW 3623   5.365  11.941   7.709
33909SOL    HW1 3624   5.304  12.002   7.749
33909SOL    HW2 3625   5.334  11.854   7.737
33910SOL     OW 3626   8.042   1.144   1.662
33910SOL    HW1 3627   8.012   1.054   1.666
33910SOL    HW2 3628   8.134   1.138   1.637
33911SOL     OW 3629  10.221   9.591   7.848
33911SOL    HW1 3630  10.266   9.508   7.865
33911SOL    HW2 3631  10.248   9.615   7.760
33912SOL     OW 3632   4.633   8.809   1.421
33912SOL    HW1 3633   4.550   8.836   1.461
33912SOL    HW2 3634   4.663   8.737   1.476
33913SOL     OW 3635   4.918  13.535   7.990
33913SOL    HW1 3636   4.996  13.484   8.008
33913SOL    HW2 3637   4.848  13.488   8.035
33914SOL     OW 3638   6.186  12.162   6.262
33914SOL    HW1 3639   6.093  12.148   6.280
33914SOL    HW2 3640   6.232  12.107   6.326
33915SOL     OW 3641   9.962   6.043   2.662
33915SOL    HW1 3642   9.993   6.028   2.751
33915SOL    HW2 3643   9.919   6.129   2.666
33916SOL     OW 3644   8.492   3.792  11.144
33916SOL    HW1 3645   8.471   3.826  11.057
33916SOL    HW2 3646   8.497   3.697  11.132
33917SOL     OW 3647   1.661   8.650   6.156
33917SOL    HW1 3648   1.715   8.588   6.106
33917SOL    HW2 3649   1.618   8.596   6.222
33918SOL     OW 3650   4.981  11.441   9.192
33918SOL    HW1 3651   5.003  11.391   9.271
33918SOL    HW2 3652   4.887  11.459   9.201
33919SOL     OW 3653  11.460   5.493   1.613
33919SOL    HW1 3654  11.372   5.477   1.580
33919SOL    HW2 3655  11.447   5.531   1.700
33920SOL     OW 3656   3.493   0.770   1.051
33920SOL    HW1 3657   3.457   0.814   0.974
33920SOL    HW2 3658   3.457   0.681   1.046
33921SOL     OW 3659   5.536   0.646   5.799
33921SOL    HW1 3660   5.479   0.616   5.870
33921SOL    HW2 3661   5.504   0.734   5.777
33922SOL     OW 3662   8.829   9.282   6.299
33922SOL    HW1 3663   8.793   9.352   6.245
33922SOL    HW2 3664   8.756   9.222   6.313
33923SOL     OW 3665   6.372  14.778  12.740
33923SOL    HW1 3666   6.457  14.817  12.720
33923SOL    HW2 3667   6.360  14.795  12.834
33924SOL     OW 3668   9.906   4.642   4.569
33924SOL    HW1 3669   9.929   4.690   4.490
33924SOL    HW2 3670   9.835   4.693   4.608
33925SOL     OW 3671   9.167  10.842   4.522
33925SOL    HW1 3672   9.109  10.913   4.550
33925SOL    HW2 3673   9.173  10.852   4.427
33926SOL     OW 3674   3.446  13.749  11.220
33926SOL    HW1 3675   3.474  13.681  11.160
33926SOL    HW2 3676   3.447  13.707  11.306
33927SOL     OW 3677  13.447   0.862   0.845
33927SOL    HW1 3678  13.492   0.814   0.776
33927SOL    HW2 3679  13.402   0.794   0.895
33928SOL     OW 3680  12.659   7.166   7.980
33928SOL    HW1 3681  12.717   7.113   7.926
33928SOL    HW2 3682  12.582   7.111   7.993
33929SOL     OW 3683   1.513   7.520  14.561
33929SOL    HW1 3684   1.461   7.597  14.537
33929SOL    HW2 3685   1.484   7.498  14.649
33930SOL     OW 3686  10.892  13.415   6.984
33930SOL    HW1 3687  10.909  13.328   7.019
33930SOL    HW2 3688  10.796  13.423   6.983
33931SOL     OW 3689   8.313  12.510   1.633
33931SOL    HW1 3690   8.376  12.439   1.640
33931SOL    HW2 3691   8.280  12.522   1.721
33932SOL     OW 3692   6.672  11.724   1.777
33932SOL    HW1 3693   6.660  11.640   1.731
33932SOL    HW2 3694   6.755  11.714   1.824
33933SOL     OW 3695   8.223   8.966   6.655
33933SOL    HW1 3696   8.183   9.010   6.580
33933SOL    HW2 3697   8.149   8.936   6.708
33934SOL     OW 3698   3.120   5.501   7.212
33934SOL    HW1 3699   3.082   5.504   7.300
33934SOL    HW2 3700   3.083   5.422   7.174
33935SOL     OW 3701  11.829   6.897  11.296
33935SOL    HW1 3702  11.745   6.943  11.293
33935SOL    HW2 3703  11.835   6.853  11.211
33936SOL     OW 3704   7.921  11.915   2.392
33936SOL    HW1 3705   7.919  11.840   2.333
33936SOL    HW2 3706   7.867  11.888   2.467
33937SOL     OW 3707   4.520  14.232  12.481
33937SOL    HW1 3708   4.437  14.273  12.456
33937SOL    HW2 3709   4.539  14.268  12.568
33938SOL     OW 3710  11.839   4.498   3.719
33938SOL    HW1 3711  11.765   4.559   3.716
33938SOL    HW2 3712  11.837   4.462   3.807
33939SOL     OW 3713  12.743   3.946  12.739
33939SOL    HW1 3714  12.810   3.901  12.791
33939SOL    HW2 3715  12.792   3.982  12.665
33940SOL     OW 3716   2.669   9.167   4.679
33940SOL    HW1 3717   2.671   9.246   4.625
33940SOL    HW2 3718   2.731   9.185   4.750
33941SOL     OW 3719   9.604  11.507  11.413
33941SOL    HW1 3720   9.558  11.428  11.443
33941SOL    HW2 3721   9.546  11.579  11.440
33942SOL     OW 3722  12.967   0.795  14.133
33942SOL    HW1 3723  12.887   0.760  14.094
33942SOL    HW2 3724  12.957   0.890  14.129
33943SOL     OW 3725  12.638   4.937   1.400
33943SOL    HW1 3726  12.579   4.864   1.420
33943SOL    HW2 3727  12.632   4.947   1.305
33944SOL     OW 3728   5.505  12.329  14.403
33944SOL    HW1 3729   5.422  12.348  14.359
33944SOL    HW2 3730   5.556  12.281  14.338
33945SOL     OW 3731   6.450   6.438   8.831
33945SOL    HW1 3732   6.411   6.390   8.905
33945SOL    HW2 3733   6.470   6.524   8.867
33946SOL     OW 3734   4.759   2.714  13.380
33946SOL    HW1 3735   4.700   2.668  13.441
33946SOL    HW2 3736   4.827   2.751  13.436
33947SOL     OW 3737   5.197   0.246   9.108
33947SOL    HW1 3738   5.192   0.262   9.014
33947SOL    HW2 3739   5.261   0.176   9.118
33948SOL     OW 3740  12.570   8.366  12.791
33948SOL    HW1 3741  12.659   8.338  12.812
33948SOL    HW2 3742  12.519   8.285  12.791
33949SOL     OW 3743  12.412  13.917   0.832
33949SOL    HW1 3744  12.470  13.877   0.897
33949SOL    HW2 3745  12.424  14.012   0.846
33950SOL     OW 3746   6.165   1.584   7.236
33950SOL    HW1 3747   6.189   1.653   7.297
33950SOL    HW2 3748   6.111   1.524   7.288
33951SOL     OW 3749  13.883   2.750  14.442
33951SOL    HW1 3750  13.868   2.669  14.490
33951SOL    HW2 3751  13.797   2.772  14.405
33952SOL     OW 3752  11.780   5.357   5.014
33952SOL    HW1 3753  11.757   5.424   5.079
33952SOL    HW2 3754  11.701   5.304   5.004
33953SOL     OW 3755   0.299   8.762   7.417
33953SOL    HW1 3756   0.343   8.763   7.332
33953SOL    HW2 3757   0.344   8.830   7.468
33954SOL     OW 3758  11.930   8.282   8.787
33954SOL    HW1 3759  11.955   8.224   8.715
33954SOL    HW2 3760  11.872   8.229   8.842
33955SOL     OW 3761  14.357   6.954   9.150
33955SOL    HW1 3762  14.420   6.910   9.092
33955SOL    HW2 3763  14.412   7.002   9.212
33956SOL     OW 3764  13.330   7.520   3.145
33956SOL    HW1 3765  13.243   7.490   3.172
33956SOL    HW2 3766  13.349   7.472   3.065
33957SOL     OW 3767  10.915   1.850  10.572
33957SOL    HW1 3768  10.863   1.894  10.505
33957SOL    HW2 3769  11.005   1.854  10.540
33958SOL     OW 3770   6.220   0.952   4.052
33958SOL    HW1 3771   6.168   1.027   4.080
33958SOL    HW2 3772   6.209   0.887   4.122
33959SOL     OW 3773   8.016   9.203   5.275
33959SOL    HW1 3774   8.097   9.158   5.299
33959SOL    HW2 3775   8.040   9.296   5.271
33960SOL     OW 3776   4.375   0.753   9.811
33960SOL    HW1 3777   4.393   0.731   9.902
33960SOL    HW2 3778   4.316   0.684   9.781
33961SOL     OW 3779  13.707  13.228   6.726
33961SOL    HW1 3780  13.757  13.174   6.664
33961SOL    HW2 3781  13.628  13.176   6.745
33962SOL     OW 3782  13.764  14.225   6.766
33962SOL    HW1 3783  13.695  14.204   6.704
33962SOL    HW2 3784  13.755  14.319   6.783
33963SOL     OW 3785   8.715  10.640   5.438
33963SOL    HW1 3786   8.633  10.677   5.470
33963SOL    HW2 3787   8.744  10.701   5.370
33964SOL     OW 3788  12.397   5.368   6.652
33964SOL    HW1 3789  12.487   5.347   6.628
33964SOL    HW2 3790  12.399   5.380   6.747
33965SOL     OW 3791   2.481   4.294  13.912
33965SOL    HW1 3792   2.526   4.370  13.948
33965SOL    HW2 3793   2.400   4.330  13.874
33966SOL     OW 3794   6.874  11.992  13.695
33966SOL    HW1 3795   6.885  11.909  13.649
33966SOL    HW2 3796   6.779  12.002  13.702
33967SOL     OW 3797  10.972  10.995   1.501
33967SOL    HW1 3798  10.947  10.919   1.448
33967SOL    HW2 3799  10.940  11.070   1.451
33968SOL     OW 3800  11.441  10.235   0.950
33968SOL    HW1 3801  11.368  10.213   1.008
33968SOL    HW2 3802  11.454  10.156   0.897
33969SOL     OW 3803   5.373  12.960   5.344
33969SOL    HW1 3804   5.336  12.876   5.369
33969SOL    HW2 3805   5.404  12.947   5.254
33970SOL     OW 3806   0.501   0.040   0.150
33970SOL    HW1 3807   0.531   0.008   0.066
33970SOL    HW2 3808   0.552   0.120   0.165
33971SOL     OW 3809   0.500  11.713   1.311
33971SOL    HW1 3810   0.422  11.659   1.303
33971SOL    HW2 3811   0.555  11.667   1.374
33972SOL     OW 3812   3.993   1.596   1.100
33972SOL    HW1 3813   3.970   1.649   1.177
33972SOL    HW2 3814   4.089   1.593   1.100
33973SOL     OW 3815   5.068  11.794   7.010
33973SOL    HW1 3816   5.157  11.828   6.997
33973SOL    HW2 3817   5.041  11.829   7.095
33974SOL     OW 3818  13.062   3.128   5.312
33974SOL    HW1 3819  13.025   3.043   5.336
33974SOL    HW2 3820  13.101   3.113   5.225
33975SOL     OW 3821   8.078   7.792  11.636
33975SOL    HW1 3822   8.068   7.704  11.672
33975SOL    HW2 3823   8.017   7.794  11.561
33976SOL     OW 3824  11.362  12.329  12.467
33976SOL    HW1 3825  11.279  12.298  12.430
33976SOL    HW2 3826  11.352  12.317  12.562
33977SOL     OW 3827  13.651   1.098  10.012
33977SOL    HW1 3828  13.720   1.119  10.076
33977SOL    HW2 3829  13.571   1.092  10.064
33978SOL     OW 3830   3.411   6.747  10.263
33978SOL    HW1 3831   3.375   6.665  10.297
33978SOL    HW2 3832   3.458   6.721  10.183
33979SOL     OW 3833   6.793  10.454  13.952
33979SOL    HW1 3834   6.788  10.547  13.929
33979SOL    HW2 3835   6.760  10.451  14.042
33980SOL     OW 3836   0.190   6.972   1.850
33980SOL    HW1 3837   0.201   7.038   1.781
33980SOL    HW2 3838   0.238   6.896   1.818
33981SOL     OW 3839   3.222   4.270   3.350
33981SOL    HW1 3840   3.218   4.210   3.425
33981SOL    HW2 3841   3.306   4.315   3.361
33982SOL     OW 3842  11.569   3.796   7.674
33982SOL    HW1 3843  11.623   3.861   7.718
33982SOL    HW2 3844  11.481   3.810   7.710
33983SOL     OW 3845   7.270   3.021  11.285
33983SOL    HW1 3846   7.360   3.001  11.310
33983SOL    HW2 3847   7.216   2.971  11.347
33984SOL     OW 3848   3.962   9.268   2.187
33984SOL    HW1 3849   3.883   9.314   2.215
33984SOL    HW2 3850   3.962   9.279   2.091
33985SOL     OW 3851  13.293   5.831  11.064
33985SOL    HW1 3852  13.277   5.911  11.014
33985SOL    HW2 3853  13.263   5.851  11.152
33986SOL     OW 3854  10.115  12.925   5.258
33986SOL    HW1 3855  10.152  13.013   5.267
33986SOL    HW2 3856  10.190  12.866   5.268
33987SOL     OW 3857  13.847   8.329  14.420
33987SOL    HW1 3858  13.943   8.328  14.411
33987SOL    HW2 3859  13.817   8.383  14.348
33988SOL     OW 3860   4.720   5.364   4.317
33988SOL    HW1 3861   4.768   5.415   4.383
33988SOL    HW2 3862   4.631   5.358   4.353
33989SOL     OW 3863  10.808  11.685   6.618
33989SOL    HW1 3864  10.798  11.655   6.708
33989SOL    HW2 3865  10.860  11.617   6.576
33990SOL     OW 3866   6.600  10.650  10.797
33990SOL    HW1 3867   6.589  10.704  10.719
33990SOL    HW2 3868   6.579  10.709  10.870
33991SOL     OW 3869   1.945   6.879   1.601
33991SOL    HW1 3870   2.012   6.818   1.632
33991SOL    HW2 3871   1.981   6.915   1.520
33992SOL     OW 3872  12.762  13.669  10.826
33992SOL    HW1 3873  12.854  13.677  10.851
33992SOL    HW2 3874  12.745  13.575  10.827
33993SOL     OW 3875   7.514   0.492   9.656
33993SOL    HW1 3876   7.462   0.435   9.598
33993SOL    HW2 3877   7.448   0.540   9.707
33994SOL     OW 3878   5.764   3.148  13.967
33994SOL    HW1 3879   5.680   3.182  13.938
33994SOL    HW2 3880   5.743   3.068  14.015
33995SOL     OW 3881   5.446  14.789   7.833
33995SOL    HW1 3882   5.501  14.860   7.799
33995SOL    HW2 3883   5.363  14.831   7.854
33996SOL     OW 3884  12.797   6.132   9.205
33996SOL    HW1 3885  12.735   6.083   9.150
33996SOL    HW2 3886  12.865   6.069   9.227
33997SOL     OW 3887  14.623   7.239   4.336
33997SOL    HW1 3888  14.671   7.294   4.399
33997SOL    HW2 3889  14.660   7.151   4.348
33998SOL     OW 3890  12.021   5.959   4.625
33998SOL    HW1 3891  12.024   5.948   4.530
33998SOL    HW2 3892  12.018   5.870   4.660
33999SOL     OW 3893   5.495   5.636   3.857
33999SOL    HW1 3894   5.548   5.666   3.930
33999SOL    HW2 3895   5.408   5.622   3.894
34000SOL     OW 3896  12.853   3.070   1.830
34000SOL    HW1 3897  12.903   3.066   1.749
34000SOL    HW2 3898  12.762   3.080   1.802
34001SOL     OW 3899  13.258   2.277  14.521
34001SOL    HW1 3900  13.298   2.357  14.488
34001SOL    HW2 3901  13.171   2.275  14.481
34002SOL     OW 3902   9.273  10.801   6.796
34002SOL    HW1 3903   9.222  10.882   6.790
34002SOL    HW2 3904   9.321  10.797   6.714
34003SOL     OW 3905   8.280   0.913   3.570
34003SOL    HW1 3906   8.350   0.873   3.518
34003SOL    HW2 3907   8.253   0.845   3.631
34004SOL     OW 3908  14.718  14.489   6.088
34004SOL    HW1 3909  14.631  14.468   6.055
34004SOL    HW2 3910  14.741  14.415   6.144
34005SOL     OW 3911   5.338   1.537  13.516
34005SOL    HW1 3912   5.357   1.618  13.471
34005SOL    HW2 3913   5.343   1.469  13.448
34006SOL     OW 3914  12.148  13.980   9.169
34006SOL    HW1 3915  12.164  14.023   9.085
34006SOL    HW2 3916  12.192  14.037   9.233
34007SOL     OW 3917   2.365   1.419   1.280
34007SOL    HW1 3918   2.440   1.448   1.332
34007SOL    HW2 3919   2.330   1.345   1.329
34008SOL     OW 3920   5.015  10.336   6.890
34008SOL    HW1 3921   5.044  10.422   6.859
34008SOL    HW2 3922   5.014  10.281   6.811
34009SOL     OW 3923  13.586   8.656   7.639
34009SOL    HW1 3924  13.650   8.726   7.630
34009SOL    HW2 3925  13.587   8.611   7.554
34010SOL     OW 3926   7.895   6.548  11.320
34010SOL    HW1 3927   7.829   6.589  11.264
34010SOL    HW2 3928   7.975   6.547  11.267
34011SOL     OW 3929  10.198   5.870   4.540
34011SOL    HW1 3930  10.270   5.841   4.596
34011SOL    HW2 3931  10.235   5.942   4.489
34012SOL     OW 3932   2.752   2.318  10.107
34012SOL    HW1 3933   2.800   2.263  10.046
34012SOL    HW2 3934   2.675   2.267  10.131
34013SOL     OW 3935   9.362   5.508   3.736
34013SOL    HW1 3936   9.356   5.503   3.831
34013SOL    HW2 3937   9.271   5.516   3.707
34014SOL     OW 3938   7.955  13.839  10.418
34014SOL    HW1 3939   8.044  13.805  10.424
34014SOL    HW2 3940   7.966  13.934  10.428
34015SOL     OW 3941   0.675  11.736  10.920
34015SOL    HW1 3942   0.621  11.695  10.852
34015SOL    HW2 3943   0.716  11.663  10.967
34016SOL     OW 3944  12.413   6.221  13.736
34016SOL    HW1 3945  12.447   6.282  13.670
34016SOL    HW2 3946  12.463   6.141  13.722
34017SOL     OW 3947   8.704   8.148  14.652
34017SOL    HW1 3948   8.637   8.081  14.665
34017SOL    HW2 3949   8.680   8.191  14.570
34018SOL     OW 3950  11.609   0.875  10.246
34018SOL    HW1 3951  11.559   0.895  10.324
34018SOL    HW2 3952  11.693   0.919  10.259
34019SOL     OW 3953   5.857   3.518  14.157
34019SOL    HW1 3954   5.762   3.521  14.150
34019SOL    HW2 3955   5.878   3.425  14.166
34020SOL     OW 3956  12.934  11.297  12.696
34020SOL    HW1 3957  12.868  11.362  12.721
34020SOL    HW2 3958  12.889  11.213  12.703
34021SOL     OW 3959   5.174   4.439   4.659
34021SOL    HW1 3960   5.084   4.446   4.630
34021SOL    HW2 3961   5.169   4.444   4.755
34022SOL     OW 3962   6.553  10.583   7.436
34022SOL    HW1 3963   6.622  10.644   7.463
34022SOL    HW2 3964   6.540  10.526   7.511
34023SOL     OW 3965  13.410  11.834   1.247
34023SOL    HW1 3966  13.500  11.806   1.265
34023SOL    HW2 3967  13.370  11.759   1.202
34024SOL     OW 3968   1.076   1.610   1.171
34024SOL    HW1 3969   1.118   1.554   1.237
34024SOL    HW2 3970   1.086   1.699   1.204
34025SOL     OW 3971   0.076   1.538   0.711
34025SOL    HW1 3972  14.854   1.557   0.714
34025SOL    HW2 3973   0.118   1.620   0.737
34026SOL     OW 3974   7.816  10.044  13.612
34026SOL    HW1 3975   7.783  10.106  13.677
34026SOL    HW2 3976   7.794   9.958  13.647
34027SOL     OW 3977  13.523   4.857   5.497
34027SOL    HW1 3978  13.431   4.885   5.495
34027SOL    HW2 3979  13.527   4.793   5.568
34028SOL     OW 3980   6.948   8.681   7.043
34028SOL    HW1 3981   6.893   8.644   6.974
34028SOL    HW2 3982   6.893   8.749   7.084
34029SOL     OW 3983   5.084   1.326   8.640
34029SOL    HW1 3984   5.066   1.232   8.644
34029SOL    HW2 3985   4.998   1.366   8.656
34030SOL     OW 3986  11.581   2.168  14.459
34030SOL    HW1 3987  11.546   2.257  14.454
34030SOL    HW2 3988  11.650   2.166  14.393
34031SOL     OW 3989   9.644   1.048   1.581
34031SOL    HW1 3990   9.690   1.094   1.510
34031SOL    HW2 3991   9.613   0.967   1.541
34032SOL     OW 3992  12.133   0.467   6.329
34032SOL    HW1 3993  12.073   0.404   6.290
34032SOL    HW2 3994  12.171   0.421   6.403
34033SOL     OW 3995   7.719   7.939   3.643
34033SOL    HW1 3996   7.809   7.919   3.669
34033SOL    HW2 3997   7.728   7.988   3.561
34034SOL     OW 3998   2.980  12.634  12.353
34034SOL    HW1 3999   3.052  12.682  12.395
34034SOL    HW2 4000   2.925  12.605  12.426
34035SOL     OW 4001   2.799   0.300   5.730
34035SOL    HW1 4002   2.720   0.342   5.766
34035SOL    HW2 4003   2.870   0.336   5.782
34036SOL     OW 4004  11.171   2.075   4.980
34036SOL    HW1 4005  11.093   2.124   4.953
34036SOL    HW2 4006  11.191   2.108   5.068
34037SOL     OW 4007   9.293  11.275   3.710
34037SOL    HW1 4008   9.367  11.334   3.726
34037SOL    HW2 4009   9.274  11.286   3.617
34038SOL     OW 4010   7.145   4.740  13.972
34038SOL    HW1 4011   7.125   4.659  13.926
34038SOL    HW2 4012   7.089   4.738  14.050
34039SOL     OW 4013   6.850  13.914  12.083
34039SOL    HW1 4014   6.767  13.954  12.107
34039SOL    HW2 4015   6.852  13.831  12.132
34040SOL     OW 4016  10.016   3.527   5.778
34040SOL    HW1 4017   9.965   3.603   5.806
34040SOL    HW2 4018  10.105   3.546   5.807
34041SOL     OW 4019   3.101   8.422  12.505
34041SOL    HW1 4020   3.006   8.418  12.495
34041SOL    HW2 4021   3.135   8.422  12.415
34042SOL     OW 4022  11.629   2.704  12.041
34042SOL    HW1 4023  11.543   2.731  12.072
34042SOL    HW2 4024  11.620   2.609  12.029
34043SOL     OW 4025  13.404   3.232  13.448
34043SOL    HW1 4026  13.334   3.236  13.513
34043SOL    HW2 4027  13.359   3.211  13.366
34044SOL     OW 4028   7.651   9.283   4.268
34044SOL    HW1 4029   7.637   9.309   4.177
34044SOL    HW2 4030   7.620   9.358   4.319
34045SOL     OW 4031   0.115  10.209   0.373
34045SOL    HW1 4032   0.118  10.302   0.350
34045SOL    HW2 4033   0.052  10.203   0.445
34046SOL     OW 4034   6.021   6.658  12.463
34046SOL    HW1 4035   6.116   6.665  12.471
34046SOL    HW2 4036   5.989   6.747  12.480
34047SOL     OW 4037  11.239   6.491  11.948
34047SOL    HW1 4038  11.332   6.514  11.940
34047SOL    HW2 4039  11.194   6.575  11.959
34048SOL     OW 4040   0.676   1.546  14.410
34048SOL    HW1 4041   0.734   1.622  14.409
34048SOL    HW2 4042   0.603   1.572  14.467
34049SOL     OW 4043   5.097  13.446  14.837
34049SOL    HW1 4044   5.157  13.402  14.776
34049SOL    HW2 4045   5.155  13.488   0.028
34050SOL     OW 4046  11.243   3.809   8.575
34050SOL    HW1 4047  11.264   3.770   8.660
34050SOL    HW2 4048  11.324   3.852   8.547
34051SOL     OW 4049   0.484   9.348   3.787
34051SOL    HW1 4050   0.459   9.366   3.877
34051SOL    HW2 4051   0.436   9.269   3.764
34052SOL     OW 4052  12.079   1.025   9.147
34052SOL    HW1 4053  12.044   0.973   9.219
34052SOL    HW2 4054  12.054   1.115   9.168
34053SOL     OW 4055   4.090   2.551   9.985
34053SOL    HW1 4056   4.179   2.586   9.981
34053SOL    HW2 4057   4.069   2.551  10.079
34054SOL     OW 4058   0.888   5.899   6.428
34054SOL    HW1 4059   0.861   5.974   6.480
34054SOL    HW2 4060   0.912   5.832   6.492
34055SOL     OW 4061  12.769   2.765   7.534
34055SOL    HW1 4062  12.724   2.827   7.476
34055SOL    HW2 4063  12.712   2.759   7.611
34056SOL     OW 4064   4.719   1.231  14.349
34056SOL    HW1 4065   4.703   1.305  14.290
34056SOL    HW2 4066   4.734   1.271  14.434
34057SOL     OW 4067  11.506  13.194   9.661
34057SOL    HW1 4068  11.431  13.244   9.692
34057SOL    HW2 4069  11.488  13.104   9.687
34058SOL     OW 4070   2.563   3.582  10.942
34058SOL    HW1 4071   2.611   3.632  11.008
34058SOL    HW2 4072   2.592   3.492  10.954
34059SOL     OW 4073   6.101  10.659   2.678
34059SOL    HW1 4074   6.130  10.577   2.637
34059SOL    HW2 4075   6.017  10.678   2.636
34060SOL     OW 4076   9.610  14.251   1.591
34060SOL    HW1 4077   9.674  14.310   1.551
34060SOL    HW2 4078   9.538  14.248   1.529
34061SOL     OW 4079  10.192  11.234  13.402
34061SOL    HW1 4080  10.174  11.285  13.324
34061SOL    HW2 4081  10.227  11.151  13.370
34062SOL     OW 4082  14.281  12.360  14.220
34062SOL    HW1 4083  14.299  12.289  14.282
34062SOL    HW2 4084  14.186  12.357  14.207
34063SOL     OW 4085  13.077  11.287   5.001
34063SOL    HW1 4086  13.149  11.296   4.938
34063SOL    HW2 4087  13.120  11.262   5.083
34064SOL     OW 4088  12.445  11.386   3.741
34064SOL    HW1 4089  12.353  11.370   3.719
34064SOL    HW2 4090  12.473  11.456   3.682
34065SOL     OW 4091   9.921  11.164  13.973
34065SOL    HW1 4092  10.003  11.213  13.967
34065SOL    HW2 4093   9.858  11.227  14.009
34066SOL     OW 4094  14.823   5.279   5.405
34066SOL    HW1 4095  14.750   5.249   5.460
34066SOL    HW2 4096   0.024   5.291   5.465
34067SOL     OW 4097   1.553   9.624  10.831
34067SOL    HW1 4098   1.595   9.589  10.752
34067SOL    HW2 4099   1.606   9.588  10.903
34068SOL     OW 4100   9.120   4.493   8.102
34068SOL    HW1 4101   9.184   4.562   8.086
34068SOL    HW2 4102   9.088   4.510   8.190
34069SOL     OW 4103   1.806  14.419   0.841
34069SOL    HW1 4104   1.889  14.466   0.839
34069SOL    HW2 4105   1.825  14.338   0.889
34070SOL     OW 4106  12.675   2.991   2.418
34070SOL    HW1 4107  12.721   3.065   2.380
34070SOL    HW2 4108  12.744   2.930   2.445
34071SOL     OW 4109  11.179  13.569   5.267
34071SOL    HW1 4110  11.150  13.559   5.358
34071SOL    HW2 4111  11.274  13.575   5.272
34072SOL     OW 4112   4.406  14.618   3.720
34072SOL    HW1 4113   4.481  14.572   3.683
34072SOL    HW2 4114   4.412  14.602   3.814
34073SOL     OW 4115   6.080   6.299   8.892
34073SOL    HW1 4116   6.037   6.242   8.955
34073SOL    HW2 4117   6.081   6.248   8.810
34074SOL     OW 4118   3.149   3.443   3.424
34074SOL    HW1 4119   3.190   3.419   3.341
34074SOL    HW2 4120   3.074   3.385   3.432
34075SOL     OW 4121   6.414   9.543   3.049
34075SOL    HW1 4122   6.334   9.545   2.997
34075SOL    HW2 4123   6.416   9.628   3.093
34076SOL     OW 4124   4.727   7.410  10.381
34076SOL    HW1 4125   4.796   7.371  10.326
34076SOL    HW2 4126   4.751   7.502  10.388
34077SOL     OW 4127   2.171   3.917   3.401
34077SOL    HW1 4128   2.163   3.946   3.310
34077SOL    HW2 4129   2.151   3.994   3.453
34078SOL     OW 4130  12.783  13.897   3.040
34078SOL    HW1 4131  12.752  13.975   3.086
34078SOL    HW2 4132  12.823  13.930   2.960
34079SOL     OW 4133  14.516   8.876   7.327
34079SOL    HW1 4134  14.492   8.808   7.390
34079SOL    HW2 4135  14.467   8.953   7.355
34080SOL     OW 4136  13.077   6.532   6.551
34080SOL    HW1 4137  13.002   6.576   6.510
34080SOL    HW2 4138  13.040   6.453   6.589
34081SOL     OW 4139   7.132  11.045   8.822
34081SOL    HW1 4140   7.166  11.107   8.757
34081SOL    HW2 4141   7.117  11.098   8.900
34082SOL     OW 4142  14.753   8.722  13.990
34082SOL    HW1 4143  14.848   8.718  13.999
34082SOL    HW2 4144  14.733   8.657  13.923
34083SOL     OW 4145  10.886  11.806   5.820
34083SOL    HW1 4146  10.900  11.713   5.839
34083SOL    HW2 4147  10.962  11.850   5.859
34084SOL     OW 4148  12.047   8.864   3.895
34084SOL    HW1 4149  11.956   8.866   3.864
34084SOL    HW2 4150  12.056   8.778   3.935
34085SOL     OW 4151  13.765  12.348   3.604
34085SOL    HW1 4152  13.700  12.406   3.642
34085SOL    HW2 4153  13.832  12.338   3.671
34086SOL     OW 4154   1.777  13.067   3.535
34086SOL    HW1 4155   1.809  13.071   3.626
34086SOL    HW2 4156   1.822  12.992   3.497
34087SOL     OW 4157   5.423   6.010   4.030
34087SOL    HW1 4158   5.336   6.030   4.066
34087SOL    HW2 4159   5.409   6.007   3.935
34088SOL     OW 4160  11.065  10.770   0.022
34088SOL    HW1 4161  11.144  10.762  14.840
34088SOL    HW2 4162  11.009  10.698  14.866
34089SOL     OW 4163   2.719   5.092   0.777
34089SOL    HW1 4164   2.781   5.046   0.720
34089SOL    HW2 4165   2.773   5.126   0.848
34090SOL     OW 4166   4.823   8.712  13.314
34090SOL    HW1 4167   4.888   8.649  13.343
34090SOL    HW2 4168   4.870   8.795  13.307
34091SOL     OW 4169   9.879   3.653   3.505
34091SOL    HW1 4170   9.907   3.627   3.417
34091SOL    HW2 4171   9.797   3.606   3.519
34092SOL     OW 4172   3.777   0.920  14.253
34092SOL    HW1 4173   3.733   0.856  14.198
34092SOL    HW2 4174   3.706   0.971  14.293
34093SOL     OW 4175   2.784   0.654  12.305
34093SOL    HW1 4176   2.840   0.577  12.315
34093SOL    HW2 4177   2.752   0.648  12.215
34094SOL     OW 4178   4.520   5.255   3.117
34094SOL    HW1 4179   4.528   5.349   3.129
34094SOL    HW2 4180   4.462   5.245   3.041
34095SOL     OW 4181  12.057  12.689  11.902
34095SOL    HW1 4182  12.127  12.632  11.934
34095SOL    HW2 4183  12.087  12.718  11.816
34096SOL     OW 4184   6.184  14.081  12.016
34096SOL    HW1 4185   6.260  14.077  11.959
34096SOL    HW2 4186   6.153  14.171  12.010
34097SOL     OW 4187  11.279   9.150   7.177
34097SOL    HW1 4188  11.194   9.138   7.135
34097SOL    HW2 4189  11.284   9.080   7.242
34098SOL     OW 4190   2.516  11.593  10.664
34098SOL    HW1 4191   2.588  11.530  10.664
34098SOL    HW2 4192   2.483  11.592  10.574
34099SOL     OW 4193   0.484   2.229   7.742
34099SOL    HW1 4194   0.396   2.250   7.775
34099SOL    HW2 4195   0.479   2.252   7.649
34100SOL     OW 4196   1.106   7.781   6.708
34100SOL    HW1 4197   1.094   7.697   6.753
34100SOL    HW2 4198   1.161   7.833   6.767
34101SOL     OW 4199   0.586   2.920  11.798
34101SOL    HW1 4200   0.516   2.933  11.862
34101SOL    HW2 4201   0.602   3.008  11.763
34102SOL     OW 4202   7.163   9.485   9.479
34102SOL    HW1 4203   7.083   9.526   9.514
34102SOL    HW2 4204   7.137   9.394   9.461
34103SOL     OW 4205   7.986  10.674   3.553
34103SOL    HW1 4206   7.930  10.597   3.544
34103SOL    HW2 4207   8.067  10.651   3.507
34104SOL     OW 4208   6.390  10.818  12.969
34104SOL    HW1 4209   6.315  10.851  12.919
34104SOL    HW2 4210   6.426  10.749  12.914
34105SOL     OW 4211  11.741  12.510  13.789
34105SOL    HW1 4212  11.706  12.590  13.750
34105SOL    HW2 4213  11.740  12.527  13.883
34106SOL     OW 4214   1.236  11.988   5.143
34106SOL    HW1 4215   1.195  12.027   5.065
34106SOL    HW2 4216   1.280  12.061   5.186
34107SOL     OW 4217   2.573  12.504   7.341
34107SOL    HW1 4218   2.538  12.492   7.430
34107SOL    HW2 4219   2.624  12.585   7.347
34108SOL     OW 4220   6.927   1.938  10.250
34108SOL    HW1 4221   6.843   1.962  10.211
34108SOL    HW2 4222   6.950   1.856  10.207
34109SOL     OW 4223   6.856   4.580  14.416
34109SOL    HW1 4224   6.877   4.561  14.507
34109SOL    HW2 4225   6.908   4.518  14.365
34110SOL     OW 4226   0.614  14.829   4.811
34110SOL    HW1 4227   0.637  14.870   4.894
34110SOL    HW2 4228   0.622  14.735   4.829
34111SOL     OW 4229   8.311   5.173  11.491
34111SOL    HW1 4230   8.365   5.094  11.500
34111SOL    HW2 4231   8.327   5.221  11.572
34112SOL     OW 4232  10.630   6.268   3.031
34112SOL    HW1 4233  10.566   6.336   3.053
34112SOL    HW2 4234  10.585   6.185   3.047
34113SOL     OW 4235  14.589   7.494   3.255
34113SOL    HW1 4236  14.616   7.459   3.340
34113SOL    HW2 4237  14.514   7.441   3.229
34114SOL     OW 4238   1.735  11.255   2.996
34114SOL    HW1 4239   1.800  11.225   3.060
34114SOL    HW2 4240   1.779  11.244   2.911
34115SOL     OW 4241   2.709   5.118   5.070
34115SOL    HW1 4242   2.751   5.068   5.000
34115SOL    HW2 4243   2.629   5.153   5.031
34116SOL     OW 4244  12.474  12.657  10.847
34116SOL    HW1 4245  12.525  12.580  10.822
34116SOL    HW2 4246  12.407  12.665  10.779
34117SOL     OW 4247  14.543   6.228   9.005
34117SOL    HW1 4248  14.501   6.196   8.925
34117SOL    HW2 4249  14.617   6.281   8.974
34118SOL     OW 4250  14.246   5.821  12.855
34118SOL    HW1 4251  14.229   5.741  12.806
34118SOL    HW2 4252  14.161   5.863  12.863
34119SOL     OW 4253   5.328   3.355   7.142
34119SOL    HW1 4254   5.398   3.412   7.175
34119SOL    HW2 4255   5.374   3.279   7.107
34120SOL     OW 4256   2.077  10.736   0.448
34120SOL    HW1 4257   2.150  10.757   0.505
34120SOL    HW2 4258   2.070  10.641   0.450
34121SOL     OW 4259   4.673  10.246   9.164
34121SOL    HW1 4260   4.715  10.301   9.097
34121SOL    HW2 4261   4.661  10.161   9.120
34122SOL     OW 4262   5.395  10.020  11.654
34122SOL    HW1 4263   5.446  10.047  11.578
34122SOL    HW2 4264   5.310   9.995  11.618
34123SOL     OW 4265  13.591   0.277  11.326
34123SOL    HW1 4266  13.593   0.259  11.420
34123SOL    HW2 4267  13.641   0.358  11.316
34124SOL     OW 4268   0.478   9.635   0.952
34124SOL    HW1 4269   0.396   9.585   0.950
34124SOL    HW2 4270   0.478   9.686   0.871
34125SOL     OW 4271   6.883   7.098   9.404
34125SOL    HW1 4272   6.894   7.063   9.316
34125SOL    HW2 4273   6.793   7.131   9.406
34126SOL     OW 4274   8.181   0.450   5.700
34126SOL    HW1 4275   8.088   0.463   5.681
34126SOL    HW2 4276   8.214   0.399   5.626
34127SOL     OW 4277   1.053   6.518   1.999
34127SOL    HW1 4278   1.098   6.575   1.937
34127SOL    HW2 4279   1.118   6.498   2.066
34128SOL     OW 4280   1.420   7.947   1.248
34128SOL    HW1 4281   1.344   7.929   1.303
34128SOL    HW2 4282   1.495   7.917   1.299
34129SOL     OW 4283   6.940   8.480   3.054
34129SOL    HW1 4284   6.954   8.444   3.142
34129SOL    HW2 4285   6.868   8.427   3.019
34130SOL     OW 4286  11.269  14.661   9.285
34130SOL    HW1 4287  11.301  14.633   9.199
34130SOL    HW2 4288  11.174  14.650   9.280
34131SOL     OW 4289  10.681  11.325   4.283
34131SOL    HW1 4290  10.663  11.332   4.377
34131SOL    HW2 4291  10.776  11.322   4.276
34132SOL     OW 4292   7.230  13.149  10.514
34132SOL    HW1 4293   7.192  13.128  10.599
34132SOL    HW2 4294   7.159  13.135  10.452
34133SOL     OW 4295  12.726  14.330   6.338
34133SOL    HW1 4296  12.683  14.409   6.372
34133SOL    HW2 4297  12.683  14.315   6.254
34134SOL     OW 4298   8.535   0.666  13.203
34134SOL    HW1 4299   8.585   0.739  13.241
34134SOL    HW2 4300   8.476   0.639  13.273
34135SOL     OW 4301   3.044   4.257   5.827
34135SOL    HW1 4302   3.034   4.255   5.923
34135SOL    HW2 4303   3.088   4.175   5.806
34136SOL     OW 4304   6.922   5.616   2.238
34136SOL    HW1 4305   6.883   5.575   2.161
34136SOL    HW2 4306   6.847   5.634   2.296
34137SOL     OW 4307   2.866  11.416   8.175
34137SOL    HW1 4308   2.821  11.456   8.249
34137SOL    HW2 4309   2.796  11.391   8.115
34138SOL     OW 4310  10.288  10.999   5.753
34138SOL    HW1 4311  10.220  10.985   5.819
34138SOL    HW2 4312  10.353  11.054   5.798
34139SOL     OW 4313   0.806   4.467   8.985
34139SOL    HW1 4314   0.712   4.454   9.003
34139SOL    HW2 4315   0.829   4.395   8.927
34140SOL     OW 4316  10.380  10.657   0.424
34140SOL    HW1 4317  10.366  10.705   0.505
34140SOL    HW2 4318  10.337  10.710   0.357
34141SOL     OW 4319   9.815   5.105  11.360
34141SOL    HW1 4320   9.779   5.144  11.440
34141SOL    HW2 4321   9.842   5.181  11.308
34142SOL     OW 4322  14.282  11.310   8.632
34142SOL    HW1 4323  14.241  11.362   8.563
34142SOL    HW2 4324  14.247  11.221   8.620
34143SOL     OW 4325   1.379   4.980   6.799
34143SOL    HW1 4326   1.322   4.910   6.768
34143SOL    HW2 4327   1.339   5.060   6.765
34144SOL     OW 4328   3.856  12.523   9.346
34144SOL    HW1 4329   3.946  12.529   9.378
34144SOL    HW2 4330   3.853  12.584   9.272
34145SOL     OW 4331  14.741   7.717   1.898
34145SOL    HW1 4332  14.667   7.740   1.841
34145SOL    HW2 4333  14.720   7.629   1.928
34146SOL     OW 4334   4.132   2.277   7.448
34146SOL    HW1 4335   4.051   2.318   7.480
34146SOL    HW2 4336   4.184   2.350   7.414
34147SOL     OW 4337  13.026   5.528   9.153
34147SOL    HW1 4338  13.024   5.461   9.222
34147SOL    HW2 4339  12.955   5.588   9.177
34148SOL     OW 4340   8.837  11.860  12.160
34148SOL    HW1 4341   8.884  11.809  12.094
34148SOL    HW2 4342   8.905  11.886  12.223
34149SOL     OW 4343  12.768   3.851   3.556
34149SOL    HW1 4344  12.862   3.870   3.551
34149SOL    HW2 4345  12.760   3.783   3.623
34150SOL     OW 4346   9.415   3.527  13.052
34150SOL    HW1 4347   9.451   3.452  13.100
34150SOL    HW2 4348   9.377   3.583  13.119
34151SOL     OW 4349   7.269  13.420   6.305
34151SOL    HW1 4350   7.299  13.503   6.269
34151SOL    HW2 4351   7.306  13.418   6.393
34152SOL     OW 4352  12.462   1.068   1.888
34152SOL    HW1 4353  12.395   1.083   1.955
34152SOL    HW2 4354  12.416   1.082   1.805
34153SOL     OW 4355   5.295  11.123  14.829
34153SOL    HW1 4356   5.308  11.030  14.809
34153SOL    HW2 4357   5.200  11.133  14.833
34154SOL     OW 4358   1.934   8.322  14.196
34154SOL    HW1 4359   1.934   8.296  14.288
34154SOL    HW2 4360   1.937   8.240  14.147
34155SOL     OW 4361  11.544  14.317  13.755
34155SOL    HW1 4362  11.559  14.396  13.704
34155SOL    HW2 4363  11.466  14.337  13.807
34156SOL     OW 4364   8.659  12.633   1.011
34156SOL    HW1 4365   8.721  12.693   1.052
34156SOL    HW2 4366   8.635  12.572   1.081
34157SOL     OW 4367  14.232   7.635   0.914
34157SOL    HW1 4368  14.188   7.643   0.999
34157SOL    HW2 4369  14.239   7.726   0.883
34158SOL     OW 4370  11.241   1.968   8.617
34158SOL    HW1 4371  11.306   2.038   8.629
34158SOL    HW2 4372  11.208   1.981   8.528
34159SOL     OW 4373  14.671   5.165   4.148
34159SOL    HW1 4374  14.739   5.223   4.182
34159SOL    HW2 4375  14.700   5.077   4.169
34160SOL     OW 4376   1.534   2.231   2.885
34160SOL    HW1 4377   1.567   2.186   2.807
34160SOL    HW2 4378   1.446   2.260   2.861
34161SOL     OW 4379   7.071   2.518   6.647
34161SOL    HW1 4380   7.009   2.446   6.653
34161SOL    HW2 4381   7.137   2.498   6.713
34162SOL     OW 4382  14.442   1.045   4.453
34162SOL    HW1 4383  14.401   1.128   4.475
34162SOL    HW2 4384  14.483   1.060   4.368
34163SOL     OW 4385   6.565   5.814   9.543
34163SOL    HW1 4386   6.579   5.760   9.465
34163SOL    HW2 4387   6.498   5.878   9.517
34164SOL     OW 4388  12.198  12.165  11.881
34164SOL    HW1 4389  12.160  12.121  11.805
34164SOL    HW2 4390  12.247  12.239  11.844
34165SOL     OW 4391  12.335   9.081   5.259
34165SOL    HW1 4392  12.286   9.156   5.293
34165SOL    HW2 4393  12.359   9.107   5.170
34166SOL     OW 4394  13.854  11.881   7.866
34166SOL    HW1 4395  13.834  11.924   7.784
34166SOL    HW2 4396  13.845  11.787   7.847
34167SOL     OW 4397   5.391   4.042  10.965
34167SOL    HW1 4398   5.428   3.955  10.958
34167SOL    HW2 4399   5.354   4.060  10.878
34168SOL     OW 4400   6.742   7.877   8.171
34168SOL    HW1 4401   6.721   7.971   8.175
34168SOL    HW2 4402   6.774   7.856   8.259
34169SOL     OW 4403  13.686  11.204   5.249
34169SOL    HW1 4404  13.631  11.213   5.171
34169SOL    HW2 4405  13.732  11.288   5.255
34170SOL     OW 4406   0.404   4.330   2.382
34170SOL    HW1 4407   0.336   4.382   2.424
34170SOL    HW2 4408   0.457   4.393   2.334
34171SOL     OW 4409  12.389   5.878   8.707
34171SOL    HW1 4410  12.424   5.790   8.695
34171SOL    HW2 4411  12.331   5.870   8.783
34172SOL     OW 4412  14.841   8.710   2.075
34172SOL    HW1 4413   0.040   8.653   2.105
34172SOL    HW2 4414   0.014   8.790   2.046
34173SOL     OW 4415   2.770   8.784   5.807
34173SOL    HW1 4416   2.865   8.776   5.803
34173SOL    HW2 4417   2.749   8.778   5.900
34174SOL     OW 4418   7.466   0.303   7.240
34174SOL    HW1 4419   7.471   0.243   7.314
34174SOL    HW2 4420   7.540   0.280   7.184
34175SOL     OW 4421  13.181   1.549   6.206
34175SOL    HW1 4422  13.182   1.467   6.156
34175SOL    HW2 4423  13.270   1.582   6.198
34176SOL     OW 4424   1.745  11.332  12.479
34176SOL    HW1 4425   1.805  11.285  12.421
34176SOL    HW2 4426   1.777  11.422  12.479
34177SOL     OW 4427  13.274  11.680   8.846
34177SOL    HW1 4428  13.311  11.644   8.926
34177SOL    HW2 4429  13.187  11.640   8.839
34178SOL     OW 4430  12.414   7.121   0.993
34178SOL    HW1 4431  12.493   7.110   0.940
34178SOL    HW2 4432  12.357   7.175   0.939
34179SOL     OW 4433   9.990   7.374   8.556
34179SOL    HW1 4434  10.010   7.320   8.632
34179SOL    HW2 4435   9.988   7.464   8.590
34180SOL     OW 4436   3.618   5.666   8.416
34180SOL    HW1 4437   3.593   5.707   8.333
34180SOL    HW2 4438   3.551   5.693   8.478
34181SOL     OW 4439   3.918   8.636   7.082
34181SOL    HW1 4440   3.975   8.697   7.128
34181SOL    HW2 4441   3.924   8.663   6.990
34182SOL     OW 4442   5.659  14.807   0.585
34182SOL    HW1 4443   5.647  14.721   0.626
34182SOL    HW2 4444   5.580  14.820   0.532
34183SOL     OW 4445   1.604   6.576  13.833
34183SOL    HW1 4446   1.639   6.600  13.748
34183SOL    HW2 4447   1.514   6.549  13.816
34184SOL     OW 4448   7.694  11.220  10.283
34184SOL    HW1 4449   7.663  11.289  10.224
34184SOL    HW2 4450   7.783  11.247  10.307
34185SOL     OW 4451  13.141   8.697  12.472
34185SOL    HW1 4452  13.159   8.704  12.378
34185SOL    HW2 4453  13.139   8.788  12.503
34186SOL     OW 4454   9.273  12.225  13.277
34186SOL    HW1 4455   9.368  12.220  13.291
34186SOL    HW2 4456   9.237  12.161  13.337
34187SOL     OW 4457   9.858   6.655   6.389
34187SOL    HW1 4458   9.838   6.562   6.374
34187SOL    HW2 4459   9.780   6.689   6.433
34188SOL     OW 4460  14.675   4.584  12.465
34188SOL    HW1 4461  14.741   4.633  12.416
34188SOL    HW2 4462  14.613   4.555  12.398
34189SOL     OW 4463   6.549  10.449   4.899
34189SOL    HW1 4464   6.576  10.444   4.807
34189SOL    HW2 4465   6.621  10.493   4.943
34190SOL     OW 4466   3.950   5.427   7.869
34190SOL    HW1 4467   4.024   5.466   7.916
34190SOL    HW2 4468   3.874   5.477   7.898
34191SOL     OW 4469   2.846   3.788   5.562
34191SOL    HW1 4470   2.810   3.710   5.520
34191SOL    HW2 4471   2.925   3.809   5.512
34192SOL     OW 4472   1.128   3.773   0.807
34192SOL    HW1 4473   1.176   3.805   0.731
34192SOL    HW2 4474   1.143   3.678   0.808
34193SOL     OW 4475  10.323   1.934   1.769
34193SOL    HW1 4476  10.343   2.003   1.832
34193SOL    HW2 4477  10.392   1.869   1.782
34194SOL     OW 4478   3.514   1.455   6.754
34194SOL    HW1 4479   3.443   1.416   6.702
34194SOL    HW2 4480   3.501   1.419   6.842
34195SOL     OW 4481  13.797   5.792   6.147
34195SOL    HW1 4482  13.795   5.887   6.146
34195SOL    HW2 4483  13.773   5.768   6.236
34196SOL     OW 4484   9.797   9.485   9.666
34196SOL    HW1 4485   9.771   9.500   9.757
34196SOL    HW2 4486   9.873   9.427   9.673
34197SOL     OW 4487   5.973   2.381   0.732
34197SOL    HW1 4488   6.035   2.450   0.757
34197SOL    HW2 4489   6.026   2.301   0.733
34198SOL     OW 4490  12.832   9.028  10.107
34198SOL    HW1 4491  12.861   9.119  10.104
34198SOL    HW2 4492  12.828   9.001  10.015
34199SOL     OW 4493   9.395  11.969   0.463
34199SOL    HW1 4494   9.488  11.947   0.462
34199SOL    HW2 4495   9.374  11.986   0.555
34200SOL     OW 4496   2.413   0.271   1.543
34200SOL    HW1 4497   2.401   0.252   1.450
34200SOL    HW2 4498   2.421   0.184   1.583
34201SOL     OW 4499  13.313   6.609   4.017
34201SOL    HW1 4500  13.365   6.641   3.944
34201SOL    HW2 4501  13.365   6.631   4.095
34202SOL     OW 4502   8.953  12.500   8.450
34202SOL    HW1 4503   8.902  12.565   8.498
34202SOL    HW2 4504   8.892  12.428   8.435
34203SOL     OW 4505   8.914  14.258   5.035
34203SOL    HW1 4506   8.969  14.195   5.082
34203SOL    HW2 4507   8.969  14.336   5.026
34204SOL     OW 4508   4.598   8.114   0.244
34204SOL    HW1 4509   4.658   8.096   0.315
34204SOL    HW2 4510   4.645   8.089   0.165
34205SOL     OW 4511   8.041  10.155   4.709
34205SOL    HW1 4512   8.055  10.224   4.645
34205SOL    HW2 4513   8.096  10.083   4.679
34206SOL     OW 4514   6.556   0.988   9.391
34206SOL    HW1 4515   6.640   0.942   9.382
34206SOL    HW2 4516   6.532   0.978   9.483
34207SOL     OW 4517   1.440   2.100   1.694
34207SOL    HW1 4518   1.518   2.070   1.647
34207SOL    HW2 4519   1.469   2.180   1.739
34208SOL     OW 4520   4.143   6.029   0.806
34208SOL    HW1 4521   4.217   5.988   0.850
34208SOL    HW2 4522   4.130   5.977   0.727
34209SOL     OW 4523   1.725  11.931   3.586
34209SOL    HW1 4524   1.641  11.887   3.575
34209SOL    HW2 4525   1.790  11.863   3.572
34210SOL     OW 4526   4.060   0.431  12.992
34210SOL    HW1 4527   4.005   0.361  13.027
34210SOL    HW2 4528   4.147   0.415  13.030
34211SOL     OW 4529   3.382  10.902   6.963
34211SOL    HW1 4530   3.463  10.922   6.916
34211SOL    HW2 4531   3.403  10.825   7.015
34212SOL     OW 4532   7.995   5.683  13.721
34212SOL    HW1 4533   7.929   5.741  13.683
34212SOL    HW2 4534   8.070   5.740  13.738
34213SOL     OW 4535   7.843   9.531   4.281
34213SOL    HW1 4536   7.792   9.467   4.231
34213SOL    HW2 4537   7.780   9.598   4.306
34214SOL     OW 4538  14.126   4.306   8.596
34214SOL    HW1 4539  14.212   4.346   8.610
34214SOL    HW2 4540  14.063   4.374   8.620
34215SOL     OW 4541  12.251   6.856  10.530
34215SOL    HW1 4542  12.257   6.783  10.592
34215SOL    HW2 4543  12.184   6.829  10.467
34216SOL     OW 4544  12.262   4.023  10.947
34216SOL    HW1 4545  12.241   4.032  10.854
34216SOL    HW2 4546  12.216   4.094  10.990
34217SOL     OW 4547   3.275   7.812   6.610
34217SOL    HW1 4548   3.311   7.870   6.678
34217SOL    HW2 4549   3.204   7.765   6.654
34218SOL     OW 4550   4.053  12.950  13.589
34218SOL    HW1 4551   3.961  12.978  13.586
34218SOL    HW2 4552   4.088  12.991  13.668
34219SOL     OW 4553   1.453   8.081   9.393
34219SOL    HW1 4554   1.494   8.085   9.480
34219SOL    HW2 4555   1.375   8.137   9.400
34220SOL     OW 4556  11.458  11.769   9.713
34220SOL    HW1 4557  11.519  11.760   9.641
34220SOL    HW2 4558  11.511  11.796   9.787
34221SOL     OW 4559   1.097   2.278  11.880
34221SOL    HW1 4560   1.122   2.312  11.794
34221SOL    HW2 4561   1.179   2.248  11.918
34222SOL     OW 4562  13.050   8.661   2.837
34222SOL    HW1 4563  13.144   8.642   2.828
34222SOL    HW2 4564  13.017   8.658   2.747
34223SOL     OW 4565  10.202   3.798   2.576
34223SOL    HW1 4566  10.236   3.712   2.599
34223SOL    HW2 4567  10.110   3.782   2.553
34224SOL     OW 4568  12.032  10.568   1.892
34224SOL    HW1 4569  12.002  10.639   1.949
34224SOL    HW2 4570  12.080  10.509   1.950
34225SOL     OW 4571  11.724   6.706   8.781
34225SOL    HW1 4572  11.750   6.627   8.829
34225SOL    HW2 4573  11.754   6.778   8.837
34226SOL     OW 4574   0.102   4.023   9.468
34226SOL    HW1 4575   0.197   4.029   9.454
34226SOL    HW2 4576   0.080   3.934   9.443
34227SOL     OW 4577  10.562   0.889  12.702
34227SOL    HW1 4578  10.575   0.979  12.670
34227SOL    HW2 4579  10.480   0.893  12.751
34228SOL     OW 4580  12.488   4.068   9.301
34228SOL    HW1 4581  12.464   3.990   9.251
34228SOL    HW2 4582  12.556   4.110   9.249
34229SOL     OW 4583  11.045   4.496  13.365
34229SOL    HW1 4584  10.956   4.531  13.364
34229SOL    HW2 4585  11.101   4.574  13.368
34230SOL     OW 4586  10.980   8.242   7.033
34230SOL    HW1 4587  10.914   8.300   7.072
34230SOL    HW2 4588  10.942   8.154   7.040
34231SOL     OW 4589   7.119   3.700  10.154
34231SOL    HW1 4590   7.129   3.695  10.249
34231SOL    HW2 4591   7.134   3.792  10.133
34232SOL     OW 4592   9.605  13.511  13.372
34232SOL    HW1 4593   9.551  13.586  13.398
34232SOL    HW2 4594   9.590  13.501  13.278
34233SOL     OW 4595   1.429  14.276   4.968
34233SOL    HW1 4596   1.450  14.369   4.974
34233SOL    HW2 4597   1.477  14.236   5.040
34234SOL     OW 4598  10.038   3.789  12.934
34234SOL    HW1 4599   9.972   3.738  12.981
34234SOL    HW2 4600  10.118   3.780  12.987
34235SOL     OW 4601   2.861   7.521  13.533
34235SOL    HW1 4602   2.786   7.561  13.577
34235SOL    HW2 4603   2.878   7.441  13.582
34236SOL     OW 4604   9.110  10.069   9.423
34236SOL    HW1 4605   9.140   9.979   9.419
34236SOL    HW2 4606   9.015  10.063   9.433
34237SOL     OW 4607   9.099  10.676  13.880
34237SOL    HW1 4608   9.065  10.662  13.968
34237SOL    HW2 4609   9.021  10.672  13.824
34238SOL     OW 4610   1.338   1.345   2.375
34238SOL    HW1 4611   1.341   1.299   2.292
34238SOL    HW2 4612   1.348   1.277   2.441
34239SOL     OW 4613   3.145  13.847   6.881
34239SOL    HW1 4614   3.151  13.810   6.793
34239SOL    HW2 4615   3.228  13.895   6.893
34240SOL     OW 4616  14.838   2.576  10.831
34240SOL    HW1 4617  14.776   2.512  10.796
34240SOL    HW2 4618  14.831   2.566  10.926
34241SOL     OW 4619  12.921  13.682   4.959
34241SOL    HW1 4620  12.860  13.739   4.912
34241SOL    HW2 4621  12.995  13.738   4.980
34242SOL     OW 4622   4.889   9.133   1.072
34242SOL    HW1 4623   4.802   9.161   1.102
34242SOL    HW2 4624   4.895   9.041   1.097
34243SOL     OW 4625   7.993   2.039   7.770
34243SOL    HW1 4626   8.061   2.097   7.735
34243SOL    HW2 4627   7.919   2.050   7.710
34244SOL     OW 4628   6.836   5.619   3.756
34244SOL    HW1 4629   6.919   5.575   3.738
34244SOL    HW2 4630   6.776   5.548   3.778
34245SOL     OW 4631  11.195   9.818  12.085
34245SOL    HW1 4632  11.145   9.807  12.166
34245SOL    HW2 4633  11.129   9.817  12.015
34246SOL     OW 4634   4.567   8.431   1.763
34246SOL    HW1 4635   4.476   8.413   1.786
34246SOL    HW2 4636   4.613   8.349   1.779
34247SOL     OW 4637   7.893  12.057   6.450
34247SOL    HW1 4638   7.818  12.013   6.490
34247SOL    HW2 4639   7.864  12.075   6.360
34248SOL     OW 4640  13.529  13.185   0.860
34248SOL    HW1 4641  13.559  13.236   0.785
34248SOL    HW2 4642  13.475  13.115   0.822
34249SOL     OW 4643  11.176   0.092  10.969
34249SOL    HW1 4644  11.204   0.009  11.008
34249SOL    HW2 4645  11.177   0.075  10.875
34250SOL     OW 4646  10.519   3.081   0.077
34250SOL    HW1 4647  10.435   3.082   0.122
34250SOL    HW2 4648  10.562   3.001   0.108
34251SOL     OW 4649  13.166   0.240  10.187
34251SOL    HW1 4650  13.195   0.286  10.109
34251SOL    HW2 4651  13.191   0.149  10.173
34252SOL     OW 4652   6.213  11.412  11.453
34252SOL    HW1 4653   6.284  11.470  11.483
34252SOL    HW2 4654   6.190  11.361  11.530
34253SOL     OW 4655   4.723   1.733   6.722
34253SOL    HW1 4656   4.637   1.760   6.753
34253SOL    HW2 4657   4.706   1.687   6.640
34254SOL     OW 4658   3.182   1.766   9.967
34254SOL    HW1 4659   3.275   1.765   9.948
34254SOL    HW2 4660   3.141   1.731   9.887
34255SOL     OW 4661  10.750   1.435   4.689
34255SOL    HW1 4662  10.838   1.397   4.691
34255SOL    HW2 4663  10.719   1.420   4.600
34256SOL     OW 4664  14.518   4.580   3.856
34256SOL    HW1 4665  14.589   4.579   3.792
34256SOL    HW2 4666  14.478   4.493   3.850
34257SOL     OW 4667   7.256   5.234   3.309
34257SOL    HW1 4668   7.196   5.195   3.246
34257SOL    HW2 4669   7.337   5.250   3.260
34258SOL     OW 4670   9.309  10.465   4.320
34258SOL    HW1 4671   9.281  10.496   4.234
34258SOL    HW2 4672   9.251  10.392   4.340
34259SOL     OW 4673   0.302   6.583  12.229
34259SOL    HW1 4674   0.272   6.495  12.205
34259SOL    HW2 4675   0.228   6.640  12.209
34260SOL     OW 4676   0.420  13.376   5.997
34260SOL    HW1 4677   0.454  13.295   6.036
34260SOL    HW2 4678   0.481  13.395   5.926
34261SOL     OW 4679   7.999  11.240   6.052
34261SOL    HW1 4680   7.956  11.178   6.112
34261SOL    HW2 4681   7.939  11.248   5.978
34262SOL     OW 4682  14.171  10.575  13.537
34262SOL    HW1 4683  14.120  10.574  13.618
34262SOL    HW2 4684  14.174  10.483  13.510
34263SOL     OW 4685  10.330   0.645   0.232
34263SOL    HW1 4686  10.325   0.711   0.162
34263SOL    HW2 4687  10.275   0.680   0.302
34264SOL     OW 4688   0.943   4.285   1.051
34264SOL    HW1 4689   0.863   4.234   1.061
34264SOL    HW2 4690   0.923   4.369   1.094
34265SOL     OW 4691  10.204   3.089  14.755
34265SOL    HW1 4692  10.195   3.176  14.794
34265SOL    HW2 4693  10.289   3.091  14.711
34266SOL     OW 4694   5.459   4.372   3.816
34266SOL    HW1 4695   5.451   4.343   3.725
34266SOL    HW2 4696   5.551   4.362   3.837
34267SOL     OW 4697   6.987  12.046   2.126
34267SOL    HW1 4698   6.921  12.014   2.187
34267SOL    HW2 4699   6.948  12.123   2.086
34268SOL     OW 4700   5.025   0.471   6.041
34268SOL    HW1 4701   5.081   0.394   6.040
34268SOL    HW2 4702   5.055   0.522   6.116
34269SOL     OW 4703  12.950   5.726   6.439
34269SOL    HW1 4704  12.939   5.640   6.480
34269SOL    HW2 4705  12.875   5.777   6.469
34270SOL     OW 4706   5.633   7.932   4.268
34270SOL    HW1 4707   5.723   7.910   4.292
34270SOL    HW2 4708   5.604   7.860   4.212
34271SOL     OW 4709  11.636   1.245  12.937
34271SOL    HW1 4710  11.607   1.154  12.943
34271SOL    HW2 4711  11.713   1.241  12.880
34272SOL     OW 4712  13.172   8.601   7.013
34272SOL    HW1 4713  13.266   8.586   7.019
34272SOL    HW2 4714  13.164   8.684   6.966
34273SOL     OW 4715  11.800  11.746   4.817
34273SOL    HW1 4716  11.881  11.697   4.802
34273SOL    HW2 4717  11.825  11.816   4.878
34274SOL     OW 4718  11.130  13.848   9.213
34274SOL    HW1 4719  11.215  13.807   9.231
34274SOL    HW2 4720  11.113  13.826   9.121
34275SOL     OW 4721   6.577  12.381   1.802
34275SOL    HW1 4722   6.608  12.415   1.886
34275SOL    HW2 4723   6.511  12.316   1.826
34276SOL     OW 4724   1.125   3.468  10.652
34276SOL    HW1 4725   1.190   3.443  10.586
34276SOL    HW2 4726   1.046   3.486  10.601
34277SOL     OW 4727  13.270   2.518  11.901
34277SOL    HW1 4728  13.256   2.467  11.981
34277SOL    HW2 4729  13.203   2.587  11.905
34278SOL     OW 4730   4.423   6.002   8.069
34278SOL    HW1 4731   4.477   5.933   8.107
34278SOL    HW2 4732   4.484   6.076   8.058
34279SOL     OW 4733  14.862   0.017  12.408
34279SOL    HW1 4734  14.798   0.083  12.380
34279SOL    HW2 4735   0.047   0.006  12.332
34280SOL     OW 4736  13.093   5.117  13.832
34280SOL    HW1 4737  13.161   5.145  13.770
34280SOL    HW2 4738  13.114   5.164  13.913
34281SOL     OW 4739   5.230   4.582   8.230
34281SOL    HW1 4740   5.217   4.677   8.233
34281SOL    HW2 4741   5.149   4.549   8.191
34282SOL     OW 4742  11.261   6.104   7.777
34282SOL    HW1 4743  11.224   6.191   7.794
34282SOL    HW2 4744  11.308   6.081   7.857
34283SOL     OW 4745   7.927   0.129   5.110
34283SOL    HW1 4746   7.898   0.039   5.125
34283SOL    HW2 4747   7.967   0.156   5.192
34284SOL     OW 4748   4.008   8.364  13.232
34284SOL    HW1 4749   4.091   8.398  13.266
34284SOL    HW2 4750   4.022   8.357  13.137
34285SOL     OW 4751   4.960   4.386   9.742
34285SOL    HW1 4752   4.873   4.386   9.702
34285SOL    HW2 4753   5.004   4.462   9.703
34286SOL     OW 4754   4.880   8.114   5.434
34286SOL    HW1 4755   4.796   8.097   5.477
34286SOL    HW2 4756   4.875   8.066   5.351
34287SOL     OW 4757   1.938   2.476  14.117
34287SOL    HW1 4758   1.944   2.556  14.065
34287SOL    HW2 4759   2.016   2.477  14.171
34288SOL     OW 4760  14.803   5.143  14.410
34288SOL    HW1 4761  14.868   5.074  14.422
34288SOL    HW2 4762  14.744   5.134  14.484
34289SOL     OW 4763  10.133   8.243   2.192
34289SOL    HW1 4764  10.073   8.291   2.249
34289SOL    HW2 4765  10.134   8.154   2.228
34290SOL     OW 4766   5.465   8.069   5.017
34290SOL    HW1 4767   5.419   7.985   5.013
34290SOL    HW2 4768   5.556   8.045   5.033
34291SOL     OW 4769   2.190   9.872   8.866
34291SOL    HW1 4770   2.280   9.901   8.878
34291SOL    HW2 4771   2.162   9.842   8.953
34292SOL     OW 4772   0.153   9.966   6.726
34292SOL    HW1 4773   0.160   9.931   6.815
34292SOL    HW2 4774   0.151   9.888   6.670
34293SOL     OW 4775   2.866   1.996   8.795
34293SOL    HW1 4776   2.915   1.922   8.758
34293SOL    HW2 4777   2.812   2.027   8.722
34294SOL     OW 4778   1.262   9.929   8.583
34294SOL    HW1 4779   1.178   9.975   8.577
34294SOL    HW2 4780   1.292   9.921   8.493
34295SOL     OW 4781   1.735   3.882  11.978
34295SOL    HW1 4782   1.684   3.950  11.934
34295SOL    HW2 4783   1.825   3.913  11.974
34296SOL     OW 4784   0.239   2.256   0.460
34296SOL    HW1 4785   0.285   2.313   0.522
34296SOL    HW2 4786   0.290   2.264   0.379
34297SOL     OW 4787  10.196  14.326   1.543
34297SOL    HW1 4788  10.122  14.288   1.589
34297SOL    HW2 4789  10.168  14.330   1.451
34298SOL     OW 4790   5.193   0.396   5.557
34298SOL    HW1 4791   5.175   0.332   5.489
34298SOL    HW2 4792   5.220   0.344   5.633
34299SOL     OW 4793  13.918   6.799   4.221
34299SOL    HW1 4794  13.858   6.870   4.244
34299SOL    HW2 4795  13.982   6.839   4.162
34300SOL     OW 4796   7.560  10.279   9.998
34300SOL    HW1 4797   7.560  10.274   9.902
34300SOL    HW2 4798   7.652  10.289  10.021
34301SOL     OW 4799   8.548   4.822   4.810
34301SOL    HW1 4800   8.632   4.819   4.856
34301SOL    HW2 4801   8.560   4.768   4.732
34302SOL     OW 4802   1.850  12.857   1.485
34302SOL    HW1 4803   1.908  12.889   1.415
34302SOL    HW2 4804   1.895  12.881   1.566
34303SOL     OW 4805  10.286  13.582  10.768
34303SOL    HW1 4806  10.291  13.594  10.863
34303SOL    HW2 4807  10.238  13.659  10.737
34304SOL     OW 4808  10.293   3.900   1.723
34304SOL    HW1 4809  10.252   3.888   1.638
34304SOL    HW2 4810  10.332   3.988   1.720
34305SOL     OW 4811   0.149   4.435   8.116
34305SOL    HW1 4812   0.099   4.516   8.124
34305SOL    HW2 4813   0.084   4.366   8.128
34306SOL     OW 4814   1.179   5.582   3.516
34306SOL    HW1 4815   1.174   5.498   3.470
34306SOL    HW2 4816   1.262   5.578   3.564
34307SOL     OW 4817   4.979   0.951   0.386
34307SOL    HW1 4818   4.911   1.011   0.417
34307SOL    HW2 4819   4.990   0.973   0.293
34308SOL     OW 4820   2.750  10.368   0.878
34308SOL    HW1 4821   2.776  10.276   0.874
34308SOL    HW2 4822   2.818  10.414   0.828
34309SOL     OW 4823  12.655   1.177   8.347
34309SOL    HW1 4824  12.710   1.099   8.355
34309SOL    HW2 4825  12.657   1.198   8.254
34310SOL     OW 4826   9.822   3.712   0.339
34310SOL    HW1 4827   9.843   3.638   0.395
34310SOL    HW2 4828   9.907   3.749   0.316
34311SOL     OW 4829   5.062   6.476   9.445
34311SOL    HW1 4830   5.035   6.384   9.439
34311SOL    HW2 4831   5.110   6.482   9.527
34312SOL     OW 4832   1.444   2.657   7.047
34312SOL    HW1 4833   1.526   2.691   7.083
34312SOL    HW2 4834   1.397   2.621   7.122
34313SOL     OW 4835  10.914   0.711   3.898
34313SOL    HW1 4836  10.874   0.792   3.929
34313SOL    HW2 4837  11.004   0.735   3.877
34314SOL     OW 4838   8.827  12.406  10.789
34314SOL    HW1 4839   8.797  12.490  10.754
34314SOL    HW2 4840   8.807  12.343  10.719
34315SOL     OW 4841  11.018  10.130   0.132
34315SOL    HW1 4842  10.959  10.119   0.057
34315SOL    HW2 4843  11.007  10.051   0.184
34316SOL     OW 4844  12.139   5.220   1.097
34316SOL    HW1 4845  12.080   5.247   1.167
34316SOL    HW2 4846  12.226   5.221   1.136
34317SOL     OW 4847   0.222   1.428   8.693
34317SOL    HW1 4848   0.132   1.420   8.662
34317SOL    HW2 4849   0.239   1.347   8.740
34318SOL     OW 4850   8.327   3.722  10.435
34318SOL    HW1 4851   8.311   3.658  10.503
34318SOL    HW2 4852   8.311   3.807  10.477
34319SOL     OW 4853  11.930   8.083  12.993
34319SOL    HW1 4854  11.990   8.147  13.032
34319SOL    HW2 4855  11.843   8.123  13.002
34320SOL     OW 4856   2.779   7.673   1.961
34320SOL    HW1 4857   2.755   7.684   2.053
34320SOL    HW2 4858   2.771   7.761   1.923
34321SOL     OW 4859  10.671   7.518  13.775
34321SOL    HW1 4860  10.592   7.473  13.805
34321SOL    HW2 4861  10.654   7.539  13.684
34322SOL     OW 4862   8.797   9.241   5.292
34322SOL    HW1 4863   8.709   9.205   5.305
34322SOL    HW2 4864   8.794   9.279   5.205
34323SOL     OW 4865   7.775   8.612   5.547
34323SOL    HW1 4866   7.733   8.650   5.624
34323SOL    HW2 4867   7.745   8.521   5.546
34324SOL     OW 4868   9.107   3.572  12.520
34324SOL    HW1 4869   9.155   3.556  12.601
34324SOL    HW2 4870   9.022   3.530  12.534
34325SOL     OW 4871  13.021  14.305   4.813
34325SOL    HW1 4872  13.015  14.244   4.739
34325SOL    HW2 4873  12.942  14.358   4.807
34326SOL     OW 4874  12.819  10.437   7.141
34326SOL    HW1 4875  12.891  10.378   7.119
34326SOL    HW2 4876  12.814  10.498   7.067
34327SOL     OW 4877   9.402  10.455   0.672
34327SOL    HW1 4878   9.358  10.463   0.757
34327SOL    HW2 4879   9.492  10.480   0.689
34328SOL     OW 4880   0.742   1.523  13.329
34328SOL    HW1 4881   0.829   1.510  13.366
34328SOL    HW2 4882   0.681   1.501  13.399
34329SOL     OW 4883  12.970  14.184  10.090
34329SOL    HW1 4884  12.974  14.145  10.178
34329SOL    HW2 4885  12.880  14.216  10.083
34330SOL     OW 4886   7.823   0.549   3.584
34330SOL    HW1 4887   7.817   0.518   3.674
34330SOL    HW2 4888   7.754   0.501   3.538
34331SOL     OW 4889   4.764   2.068  12.892
34331SOL    HW1 4890   4.707   2.139  12.864
34331SOL    HW2 4891   4.741   2.053  12.983
34332SOL     OW 4892   6.021   6.252  14.475
34332SOL    HW1 4893   6.027   6.242  14.569
34332SOL    HW2 4894   5.967   6.179  14.446
34333SOL     OW 4895  12.512  13.432  11.401
34333SOL    HW1 4896  12.527  13.519  11.440
34333SOL    HW2 4897  12.577  13.376  11.443
34334SOL     OW 4898   0.055   0.171   1.604
34334SOL    HW1 4899  14.845   0.215   1.625
34334SOL    HW2 4900   0.107   0.177   1.684
34335SOL     OW 4901  14.573  14.597   8.936
34335SOL    HW1 4902  14.595  14.504   8.948
34335SOL    HW2 4903  14.647  14.644   8.976
34336SOL     OW 4904  14.115  11.931   5.207
34336SOL    HW1 4905  14.190  11.989   5.226
34336SOL    HW2 4906  14.135  11.850   5.252
34337SOL     OW 4907   8.796  13.375   7.082
34337SOL    HW1 4908   8.796  13.468   7.104
34337SOL    HW2 4909   8.713  13.361   7.037
34338SOL     OW 4910   0.209   5.412   9.033
34338SOL    HW1 4911   0.151   5.433   9.106
34338SOL    HW2 4912   0.175   5.329   8.999
34339SOL     OW 4913   6.053  12.951  11.626
34339SOL    HW1 4914   5.983  13.013  11.649
34339SOL    HW2 4915   6.120  13.006  11.585
34340SOL     OW 4916   6.057   4.831   1.717
34340SOL    HW1 4917   5.991   4.825   1.648
34340SOL    HW2 4918   6.007   4.831   1.799
34341SOL     OW 4919   4.692   7.425   2.954
34341SOL    HW1 4920   4.617   7.474   2.987
34341SOL    HW2 4921   4.707   7.460   2.866
34342SOL     OW 4922  11.462  10.587   1.370
34342SOL    HW1 4923  11.538  10.543   1.408
34342SOL    HW2 4924  11.429  10.642   1.441
34343SOL     OW 4925   5.899   9.416   8.723
34343SOL    HW1 4926   5.888   9.347   8.788
34343SOL    HW2 4927   5.830   9.479   8.744
34344SOL     OW 4928  10.134   8.698   7.512
34344SOL    HW1 4929  10.113   8.760   7.581
34344SOL    HW2 4930  10.123   8.612   7.552
34345SOL     OW 4931   9.703   9.679  14.455
34345SOL    HW1 4932   9.793   9.694  14.486
34345SOL    HW2 4933   9.708   9.596  14.407
34346SOL     OW 4934  11.024   8.532   5.249
34346SOL    HW1 4935  10.961   8.585   5.200
34346SOL    HW2 4936  11.109   8.568   5.225
34347SOL     OW 4937  10.998   6.574  14.013
34347SOL    HW1 4938  11.036   6.656  14.043
34347SOL    HW2 4939  10.904   6.582  14.033
34348SOL     OW 4940   4.665   6.135   8.044
34348SOL    HW1 4941   4.649   6.224   8.014
34348SOL    HW2 4942   4.758   6.120   8.028
34349SOL     OW 4943   4.581  12.065   8.788
34349SOL    HW1 4944   4.501  12.103   8.825
34349SOL    HW2 4945   4.652  12.106   8.837
34350SOL     OW 4946  12.631   1.735   6.067
34350SOL    HW1 4947  12.629   1.689   5.983
34350SOL    HW2 4948  12.556   1.699   6.115
34351SOL     OW 4949   7.531   9.808   3.076
34351SOL    HW1 4950   7.451   9.807   3.024
34351SOL    HW2 4951   7.523   9.733   3.135
34352SOL     OW 4952   2.542   5.227   1.425
34352SOL    HW1 4953   2.450   5.204   1.423
34352SOL    HW2 4954   2.574   5.208   1.337
34353SOL     OW 4955   9.196  12.489   1.947
34353SOL    HW1 4956   9.156  12.429   1.885
34353SOL    HW2 4957   9.258  12.435   1.996
34354SOL     OW 4958   6.448   1.292  13.513
34354SOL    HW1 4959   6.477   1.302  13.423
34354SOL    HW2 4960   6.452   1.197  13.529
34355SOL     OW 4961  10.709  14.645   0.912
34355SOL    HW1 4962  10.728  14.590   0.989
34355SOL    HW2 4963  10.735  14.591   0.837
34356SOL     OW 4964  10.412   8.175   4.186
34356SOL    HW1 4965  10.342   8.108   4.187
34356SOL    HW2 4966  10.387   8.235   4.116
34357SOL     OW 4967   1.756  14.048  12.830
34357SOL    HW1 4968   1.723  14.025  12.917
34357SOL    HW2 4969   1.784  14.139  12.840
34358SOL     OW 4970   9.802   0.489  10.387
34358SOL    HW1 4971   9.853   0.547  10.444
34358SOL    HW2 4972   9.828   0.401  10.413
34359SOL     OW 4973  10.648   8.169   8.674
34359SOL    HW1 4974  10.569   8.184   8.623
34359SOL    HW2 4975  10.716   8.217   8.627
34360SOL     OW 4976  11.633   1.802  10.084
34360SOL    HW1 4977  11.693   1.825  10.155
34360SOL    HW2 4978  11.646   1.871  10.019
34361SOL     OW 4979  13.279  12.143  12.714
34361SOL    HW1 4980  13.350  12.172  12.657
34361SOL    HW2 4981  13.227  12.222  12.730
34362SOL     OW 4982   8.733   8.328   2.316
34362SOL    HW1 4983   8.707   8.271   2.388
34362SOL    HW2 4984   8.662   8.320   2.252
34363SOL     OW 4985   3.721   2.201  12.125
34363SOL    HW1 4986   3.790   2.250  12.170
34363SOL    HW2 4987   3.765   2.167  12.046
34364SOL     OW 4988   7.207   9.498   6.215
34364SOL    HW1 4989   7.219   9.486   6.309
34364SOL    HW2 4990   7.262   9.432   6.175
34365SOL     OW 4991   6.204  10.331   1.151
34365SOL    HW1 4992   6.181  10.320   1.244
34365SOL    HW2 4993   6.285  10.382   1.153
34366SOL     OW 4994   6.150   4.839   4.313
34366SOL    HW1 4995   6.060   4.863   4.334
34366SOL    HW2 4996   6.160   4.751   4.350
34367SOL     OW 4997  11.894   4.537  14.475
34367SOL    HW1 4998  11.989   4.531  14.463
34367SOL    HW2 4999  11.877   4.491  14.557
34368SOL     OW 5000   5.476   8.736  13.929
34368SOL    HW1 5001   5.388   8.750  13.963
34368SOL    HW2 5002   5.530   8.720  14.006
34369SOL     OW 5003   6.603  10.366   2.978
34369SOL    HW1 5004   6.694  10.338   2.969
34369SOL    HW2 5005   6.572  10.377   2.888
34370SOL     OW 5006   6.733  12.868   0.606
34370SOL    HW1 5007   6.773  12.928   0.543
34370SOL    HW2 5008   6.640  12.868   0.585
34371SOL     OW 5009  11.238   7.004  12.899
34371SOL    HW1 5010  11.195   7.061  12.962
34371SOL    HW2 5011  11.169   6.946  12.866
34372SOL     OW 5012   4.319  10.969  13.294
34372SOL    HW1 5013   4.392  11.001  13.241
34372SOL    HW2 5014   4.279  11.048  13.330
34373SOL     OW 5015  10.959  13.160  12.234
34373SOL    HW1 5016  10.939  13.079  12.187
34373SOL    HW2 5017  11.043  13.143  12.276
34374SOL     OW 5018   1.473   3.037   3.400
34374SOL    HW1 5019   1.520   3.110   3.360
34374SOL    HW2 5020   1.480   2.966   3.336
34375SOL     OW 5021   7.612  14.360  11.152
34375SOL    HW1 5022   7.559  14.318  11.084
34375SOL    HW2 5023   7.563  14.344  11.233
34376SOL     OW 5024  14.049  14.600  10.208
34376SOL    HW1 5025  14.104  14.522  10.204
34376SOL    HW2 5026  13.967  14.570  10.248
34377SOL     OW 5027  10.466   8.214   5.219
34377SOL    HW1 5028  10.457   8.120   5.234
34377SOL    HW2 5029  10.376   8.247   5.216
34378SOL     OW 5030   6.263  11.436   1.520
34378SOL    HW1 5031   6.171  11.440   1.545
34378SOL    HW2 5032   6.292  11.528   1.519
34379SOL     OW 5033  13.445  14.103  14.837
34379SOL    HW1 5034  13.417  14.171  14.776
34379SOL    HW2 5035  13.389  14.116   0.042
34380SOL     OW 5036   5.756   8.755   7.366
34380SOL    HW1 5037   5.850   8.743   7.357
34380SOL    HW2 5038   5.736   8.730   7.456
34381SOL     OW 5039  12.064   9.646  12.507
34381SOL    HW1 5040  11.992   9.708  12.498
34381SOL    HW2 5041  12.101   9.663  12.594
34382SOL     OW 5042   2.738   6.514   8.671
34382SOL    HW1 5043   2.685   6.568   8.613
34382SOL    HW2 5044   2.729   6.425   8.636
34383SOL     OW 5045  11.307   2.262   8.084
34383SOL    HW1 5046  11.369   2.333   8.068
34383SOL    HW2 5047  11.269   2.243   7.998
34384SOL     OW 5048  13.804   4.220   5.239
34384SOL    HW1 5049  13.857   4.241   5.162
34384SOL    HW2 5050  13.853   4.256   5.313
34385SOL     OW 5051   4.995  11.384   3.744
34385SOL    HW1 5052   5.068  11.368   3.684
34385SOL    HW2 5053   4.981  11.479   3.739
34386SOL     OW 5054   7.036   3.203   3.325
34386SOL    HW1 5055   7.113   3.246   3.361
34386SOL    HW2 5056   6.980   3.274   3.295
34387SOL     OW 5057  14.037   7.289   7.375
34387SOL    HW1 5058  14.021   7.232   7.450
34387SOL    HW2 5059  14.001   7.241   7.301
34388SOL     OW 5060  13.375   7.333   9.587
34388SOL    HW1 5061  13.324   7.252   9.589
34388SOL    HW2 5062  13.459   7.308   9.550
34389SOL     OW 5063   2.944  13.522   4.716
34389SOL    HW1 5064   3.028  13.515   4.669
34389SOL    HW2 5065   2.940  13.613   4.743
34390SOL     OW 5066  11.476   4.581   7.968
34390SOL    HW1 5067  11.570   4.600   7.957
34390SOL    HW2 5068  11.446   4.647   8.031
34391SOL     OW 5069   2.672   2.445   5.408
34391SOL    HW1 5070   2.621   2.520   5.377
34391SOL    HW2 5071   2.720   2.479   5.484
34392SOL     OW 5072   8.790  11.218   4.683
34392SOL    HW1 5073   8.818  11.308   4.668
34392SOL    HW2 5074   8.695  11.224   4.696
34393SOL     OW 5075  13.453  12.116   8.777
34393SOL    HW1 5076  13.428  12.182   8.843
34393SOL    HW2 5077  13.502  12.165   8.712
34394SOL     OW 5078   3.199   9.733  11.967
34394SOL    HW1 5079   3.260   9.660  11.971
34394SOL    HW2 5080   3.115   9.694  11.944
34395SOL     OW 5081   2.262  14.525   4.801
34395SOL    HW1 5082   2.199  14.473   4.852
34395SOL    HW2 5083   2.340  14.529   4.856
34396SOL     OW 5084   4.481   4.236  11.128
34396SOL    HW1 5085   4.571   4.208  11.118
34396SOL    HW2 5086   4.480   4.327  11.098
34397SOL     OW 5087   0.334  11.080   1.099
34397SOL    HW1 5088   0.362  11.134   1.173
34397SOL    HW2 5089   0.254  11.122   1.069
34398SOL     OW 5090   2.646   1.143   5.881
34398SOL    HW1 5091   2.728   1.170   5.922
34398SOL    HW2 5092   2.600   1.093   5.948
34399SOL     OW 5093  11.996   1.317   8.556
34399SOL    HW1 5094  12.088   1.332   8.576
34399SOL    HW2 5095  11.989   1.332   8.462
34400SOL     OW 5096   8.982  11.249   7.531
34400SOL    HW1 5097   8.940  11.212   7.452
34400SOL    HW2 5098   8.934  11.330   7.547
34401SOL     OW 5099   1.869   2.489  12.924
34401SOL    HW1 5100   1.964   2.493  12.936
34401SOL    HW2 5101   1.853   2.398  12.897
34402SOL     OW 5102  11.541   3.752  10.158
34402SOL    HW1 5103  11.607   3.769  10.225
34402SOL    HW2 5104  11.507   3.665  10.180
34403SOL     OW 5105  14.791  10.205  10.508
34403SOL    HW1 5106  14.809  10.268  10.438
34403SOL    HW2 5107  14.696  10.205  10.517
34404SOL     OW 5108   4.909  10.776   8.528
34404SOL    HW1 5109   4.896  10.695   8.479
34404SOL    HW2 5110   5.003  10.794   8.519
34405SOL     OW 5111   8.034   3.166   1.782
34405SOL    HW1 5112   8.064   3.255   1.765
34405SOL    HW2 5113   8.103   3.110   1.746
34406SOL     OW 5114   5.594   0.332  14.141
34406SOL    HW1 5115   5.603   0.323  14.047
34406SOL    HW2 5116   5.619   0.423  14.160
34407SOL     OW 5117   0.901   8.573   9.452
34407SOL    HW1 5118   0.841   8.579   9.526
34407SOL    HW2 5119   0.896   8.659   9.410
34408SOL     OW 5120  13.380   9.508   8.532
34408SOL    HW1 5121  13.316   9.436   8.531
34408SOL    HW2 5122  13.329   9.585   8.506
34409SOL     OW 5123   3.387  11.279   4.236
34409SOL    HW1 5124   3.292  11.292   4.234
34409SOL    HW2 5125   3.400  11.196   4.189
34410SOL     OW 5126   2.521   2.308  12.650
34410SOL    HW1 5127   2.611   2.332  12.628
34410SOL    HW2 5128   2.474   2.391  12.652
34411SOL     OW 5129   9.005  12.314   8.138
34411SOL    HW1 5130   9.046  12.242   8.186
34411SOL    HW2 5131   8.911  12.302   8.154
34412SOL     OW 5132   5.789   1.487  11.273
34412SOL    HW1 5133   5.787   1.523  11.184
34412SOL    HW2 5134   5.880   1.500  11.302
34413SOL     OW 5135   6.555   1.633   6.843
34413SOL    HW1 5136   6.544   1.538   6.847
34413SOL    HW2 5137   6.545   1.662   6.934
34414SOL     OW 5138   4.651   6.228   0.602
34414SOL    HW1 5139   4.623   6.184   0.522
34414SOL    HW2 5140   4.745   6.212   0.607
34415SOL     OW 5141  13.403   5.394  11.857
34415SOL    HW1 5142  13.349   5.436  11.790
34415SOL    HW2 5143  13.369   5.305  11.863
34416SOL     OW 5144   8.232  12.866   5.015
34416SOL    HW1 5145   8.316  12.824   4.999
34416SOL    HW2 5146   8.254  12.946   5.062
34417SOL     OW 5147   8.886   2.474  10.952
34417SOL    HW1 5148   8.807   2.439  10.993
34417SOL    HW2 5149   8.932   2.518  11.024
34418SOL     OW 5150   9.124   4.302  14.054
34418SOL    HW1 5151   9.031   4.293  14.032
34418SOL    HW2 5152   9.126   4.364  14.127
34419SOL     OW 5153   7.567   0.898   8.793
34419SOL    HW1 5154   7.621   0.918   8.870
34419SOL    HW2 5155   7.553   0.982   8.751
34420SOL     OW 5156   8.756   4.065   4.150
34420SOL    HW1 5157   8.683   4.099   4.202
34420SOL    HW2 5158   8.758   3.972   4.170
34421SOL     OW 5159   9.497   9.482  13.923
34421SOL    HW1 5160   9.447   9.554  13.962
34421SOL    HW2 5161   9.527   9.517  13.839
34422SOL     OW 5162  13.363  13.775   1.525
34422SOL    HW1 5163  13.410  13.843   1.477
34422SOL    HW2 5164  13.352  13.812   1.613
34423SOL     OW 5165   0.052  12.987   9.364
34423SOL    HW1 5166   0.093  12.957   9.283
34423SOL    HW2 5167   0.047  12.909   9.419
34424SOL     OW 5168  11.207  11.977   9.088
34424SOL    HW1 5169  11.301  11.981   9.104
34424SOL    HW2 5170  11.168  11.967   9.175
34425SOL     OW 5171   1.595  14.767   1.645
34425SOL    HW1 5172   1.653  14.759   1.721
34425SOL    HW2 5173   1.611  14.855   1.612
34426SOL     OW 5174   7.226  11.117   6.157
34426SOL    HW1 5175   7.139  11.122   6.196
34426SOL    HW2 5176   7.210  11.093   6.066
34427SOL     OW 5177  10.559   9.160   2.506
34427SOL    HW1 5178  10.626   9.117   2.453
34427SOL    HW2 5179  10.483   9.102   2.500
34428SOL     OW 5180  10.326   3.997   9.659
34428SOL    HW1 5181  10.239   3.971   9.629
34428SOL    HW2 5182  10.351   4.068   9.599
34429SOL     OW 5183  11.487   2.147   9.711
34429SOL    HW1 5184  11.570   2.190   9.731
34429SOL    HW2 5185  11.478   2.081   9.780
34430SOL     OW 5186  14.317   3.827   3.844
34430SOL    HW1 5187  14.346   3.846   3.933
34430SOL    HW2 5188  14.282   3.738   3.848
34431SOL     OW 5189  11.395   5.555   5.767
34431SOL    HW1 5190  11.430   5.562   5.856
34431SOL    HW2 5191  11.381   5.646   5.740
34432SOL     OW 5192   3.261   1.453  10.548
34432SOL    HW1 5193   3.221   1.514  10.610
34432SOL    HW2 5194   3.188   1.416  10.499
34433SOL     OW 5195   8.468   9.470   6.919
34433SOL    HW1 5196   8.466   9.491   6.826
34433SOL    HW2 5197   8.477   9.555   6.963
34434SOL     OW 5198   4.887   5.963   5.224
34434SOL    HW1 5199   4.813   6.002   5.178
34434SOL    HW2 5200   4.937   6.038   5.257
34435SOL     OW 5201   4.549  10.761   9.382
34435SOL    HW1 5202   4.578  10.792   9.296
34435SOL    HW2 5203   4.454  10.764   9.377
34436SOL     OW 5204   5.082  12.687  12.655
34436SOL    HW1 5205   5.079  12.615  12.592
34436SOL    HW2 5206   5.015  12.748  12.625
34437SOL     OW 5207   4.667   0.509  13.661
34437SOL    HW1 5208   4.576   0.496  13.687
34437SOL    HW2 5209   4.715   0.520  13.744
34438SOL     OW 5210   8.531   2.310  10.385
34438SOL    HW1 5211   8.523   2.266  10.470
34438SOL    HW2 5212   8.453   2.365  10.379
34439SOL     OW 5213   8.000   1.445   9.205
34439SOL    HW1 5214   7.910   1.434   9.237
34439SOL    HW2 5215   8.018   1.538   9.218
34440SOL     OW 5216   2.203  12.098  12.907
34440SOL    HW1 5217   2.153  12.106  12.988
34440SOL    HW2 5218   2.157  12.155  12.845
34441SOL     OW 5219  14.501   3.897   7.089
34441SOL    HW1 5220  14.487   3.890   6.995
34441SOL    HW2 5221  14.415   3.880   7.127
34442SOL     OW 5222   8.753   5.936   3.208
34442SOL    HW1 5223   8.777   5.880   3.281
34442SOL    HW2 5224   8.698   6.004   3.246
34443SOL     OW 5225   6.117  13.236   4.942
34443SOL    HW1 5226   6.207  13.251   4.973
34443SOL    HW2 5227   6.063  13.290   4.999
34444SOL     OW 5228   1.372   9.684  14.470
34444SOL    HW1 5229   1.379   9.608  14.413
34444SOL    HW2 5230   1.439   9.744  14.438
34445SOL     OW 5231   3.474   1.987   6.934
34445SOL    HW1 5232   3.404   2.052   6.925
34445SOL    HW2 5233   3.465   1.931   6.857
34446SOL     OW 5234   1.584   9.255   8.263
34446SOL    HW1 5235   1.560   9.167   8.235
34446SOL    HW2 5236   1.543   9.265   8.349
34447SOL     OW 5237   6.875  13.568  12.036
34447SOL    HW1 5238   6.838  13.599  11.954
34447SOL    HW2 5239   6.927  13.491  12.012
34448SOL     OW 5240   7.009   6.989   9.615
34448SOL    HW1 5241   6.949   6.917   9.637
34448SOL    HW2 5242   6.971   7.029   9.537
34449SOL     OW 5243   8.459  13.752   3.055
34449SOL    HW1 5244   8.508  13.802   2.989
34449SOL    HW2 5245   8.506  13.669   3.061
34450SOL     OW 5246  11.951  10.777  13.623
34450SOL    HW1 5247  11.873  10.751  13.674
34450SOL    HW2 5248  11.979  10.696  13.580
34451SOL     OW 5249   5.483  11.010  13.056
34451SOL    HW1 5250   5.506  11.083  13.113
34451SOL    HW2 5251   5.468  10.936  13.115
34452SOL     OW 5252   0.733   5.589  14.292
34452SOL    HW1 5253   0.822   5.615  14.268
34452SOL    HW2 5254   0.745   5.509  14.344
34453SOL     OW 5255  10.906  10.021   7.578
34453SOL    HW1 5256  10.994  10.017   7.540
34453SOL    HW2 5257  10.875   9.931   7.576
34454SOL     OW 5258  13.981   0.417   9.340
34454SOL    HW1 5259  14.031   0.342   9.372
34454SOL    HW2 5260  13.907   0.425   9.401
34455SOL     OW 5261  11.476   1.092   0.180
34455SOL    HW1 5262  11.467   1.150   0.256
34455SOL    HW2 5263  11.446   1.145   0.106
34456SOL     OW 5264  13.900   5.823   9.978
34456SOL    HW1 5265  13.845   5.882   9.926
34456SOL    HW2 5266  13.847   5.802  10.055
34457SOL     OW 5267   8.643   4.415   6.862
34457SOL    HW1 5268   8.615   4.489   6.807
34457SOL    HW2 5269   8.594   4.425   6.943
34458SOL     OW 5270   5.383   2.514  12.783
34458SOL    HW1 5271   5.355   2.554  12.866
34458SOL    HW2 5272   5.350   2.424  12.788
34459SOL     OW 5273   6.066   3.689  10.163
34459SOL    HW1 5274   6.046   3.781  10.151
34459SOL    HW2 5275   6.010   3.661  10.236
34460SOL     OW 5276   7.134   3.643  10.739
34460SOL    HW1 5277   7.166   3.699  10.810
34460SOL    HW2 5278   7.212   3.622  10.688
34461SOL     OW 5279   0.450   9.499   3.332
34461SOL    HW1 5280   0.376   9.442   3.313
34461SOL    HW2 5281   0.454   9.503   3.428
34462SOL     OW 5282   1.211   8.061  14.595
34462SOL    HW1 5283   1.142   8.024  14.539
34462SOL    HW2 5284   1.253   7.986  14.635
34463SOL     OW 5285   3.100   5.079   6.114
34463SOL    HW1 5286   3.186   5.118   6.131
34463SOL    HW2 5287   3.060   5.072   6.200
34464SOL     OW 5288   8.135  10.603   8.413
34464SOL    HW1 5289   8.044  10.630   8.427
34464SOL    HW2 5290   8.156  10.550   8.489
34465SOL     OW 5291   7.123   8.661   1.300
34465SOL    HW1 5292   7.201   8.700   1.338
34465SOL    HW2 5293   7.147   8.642   1.210
34466SOL     OW 5294  14.473  10.468   0.867
34466SOL    HW1 5295  14.487  10.401   0.799
34466SOL    HW2 5296  14.456  10.418   0.947
34467SOL     OW 5297   6.896   9.486  11.226
34467SOL    HW1 5298   6.842   9.409  11.208
34467SOL    HW2 5299   6.865   9.518  11.310
34468SOL     OW 5300  13.170   5.085   6.244
34468SOL    HW1 5301  13.111   5.010   6.241
34468SOL    HW2 5302  13.126   5.152   6.191
34469SOL     OW 5303   9.786   8.065   0.223
34469SOL    HW1 5304   9.736   8.083   0.144
34469SOL    HW2 5305   9.732   8.100   0.294
34470SOL     OW 5306  12.413   9.624   2.217
34470SOL    HW1 5307  12.455   9.659   2.296
34470SOL    HW2 5308  12.484   9.621   2.152
34471SOL     OW 5309   4.566  11.017   3.397
34471SOL    HW1 5310   4.608  11.071   3.464
34471SOL    HW2 5311   4.627  10.944   3.383
34472SOL     OW 5312  11.490   2.703   6.185
34472SOL    HW1 5313  11.567   2.715   6.129
34472SOL    HW2 5314  11.470   2.610   6.179
34473SOL     OW 5315   3.359  14.834   9.181
34473SOL    HW1 5316   3.451  14.813   9.197
34473SOL    HW2 5317   3.355   0.058   9.185
34474SOL     OW 5318   6.224   3.854   7.580
34474SOL    HW1 5319   6.256   3.927   7.633
34474SOL    HW2 5320   6.129   3.858   7.587
34475SOL     OW 5321   1.427   2.465  12.181
34475SOL    HW1 5322   1.402   2.549  12.142
34475SOL    HW2 5323   1.518   2.453  12.154
34476SOL     OW 5324   5.244   3.151   5.335
34476SOL    HW1 5325   5.261   3.107   5.251
34476SOL    HW2 5326   5.247   3.080   5.400
34477SOL     OW 5327  11.445   5.766   7.128
34477SOL    HW1 5328  11.443   5.684   7.178
34477SOL    HW2 5329  11.495   5.826   7.183
34478SOL     OW 5330  13.508   6.899   2.340
34478SOL    HW1 5331  13.479   6.817   2.379
34478SOL    HW2 5332  13.486   6.966   2.405
34479SOL     OW 5333   5.078   3.368   5.372
34479SOL    HW1 5334   5.131   3.288   5.363
34479SOL    HW2 5335   5.061   3.395   5.281
34480SOL     OW 5336   9.333   4.916  11.893
34480SOL    HW1 5337   9.289   4.832  11.881
34480SOL    HW2 5338   9.426   4.894  11.904
34481SOL     OW 5339   4.541   3.815   2.898
34481SOL    HW1 5340   4.630   3.846   2.910
34481SOL    HW2 5341   4.515   3.849   2.812
34482SOL     OW 5342   4.821   9.947  11.547
34482SOL    HW1 5343   4.804   9.921  11.456
34482SOL    HW2 5344   4.791  10.038  11.552
34483SOL     OW 5345   2.202  10.512   8.433
34483SOL    HW1 5346   2.162  10.436   8.390
34483SOL    HW2 5347   2.283  10.478   8.471
34484SOL     OW 5348   7.293   0.356   5.195
34484SOL    HW1 5349   7.241   0.421   5.244
34484SOL    HW2 5350   7.380   0.395   5.190
34485SOL     OW 5351   2.603  13.667  11.261
34485SOL    HW1 5352   2.578  13.753  11.295
34485SOL    HW2 5353   2.521  13.630  11.226
34486SOL     OW 5354   5.962   6.142   8.697
34486SOL    HW1 5355   5.924   6.208   8.639
34486SOL    HW2 5356   5.904   6.142   8.774
34487SOL     OW 5357   5.390   1.193  13.616
34487SOL    HW1 5358   5.445   1.241  13.680
34487SOL    HW2 5359   5.355   1.262  13.560
34488SOL     OW 5360   5.012   9.522   8.229
34488SOL    HW1 5361   4.972   9.556   8.148
34488SOL    HW2 5362   4.997   9.428   8.225
34489SOL     OW 5363   1.197   4.882  13.846
34489SOL    HW1 5364   1.142   4.821  13.796
34489SOL    HW2 5365   1.222   4.949  13.783
34490SOL     OW 5366   8.285   6.797   0.258
34490SOL    HW1 5367   8.202   6.775   0.301
34490SOL    HW2 5368   8.316   6.714   0.221
34491SOL     OW 5369  11.015   2.267  13.232
34491SOL    HW1 5370  10.949   2.210  13.193
34491SOL    HW2 5371  11.046   2.321  13.159
34492SOL     OW 5372   9.788   3.119   2.559
34492SOL    HW1 5373   9.852   3.049   2.571
34492SOL    HW2 5374   9.838   3.200   2.575
34493SOL     OW 5375   4.592   8.559  11.038
34493SOL    HW1 5376   4.626   8.499  11.104
34493SOL    HW2 5377   4.563   8.503  10.966
34494SOL     OW 5378   3.621   9.608   2.366
34494SOL    HW1 5379   3.616   9.588   2.459
34494SOL    HW2 5380   3.685   9.679   2.361
34495SOL     OW 5381  12.229   3.077   7.598
34495SOL    HW1 5382  12.218   3.144   7.531
34495SOL    HW2 5383  12.317   3.092   7.633
34496SOL     OW 5384   4.020   2.926  10.960
34496SOL    HW1 5385   3.930   2.959  10.966
34496SOL    HW2 5386   4.064   2.988  10.901
34497SOL     OW 5387  11.321   2.119  10.607
34497SOL    HW1 5388  11.327   2.164  10.523
34497SOL    HW2 5389  11.252   2.054  10.595
34498SOL     OW 5390   0.528  11.206  12.384
34498SOL    HW1 5391   0.463  11.146  12.421
34498SOL    HW2 5392   0.546  11.172  12.296
34499SOL     OW 5393  13.426   5.548   9.768
34499SOL    HW1 5394  13.470   5.628   9.798
34499SOL    HW2 5395  13.404   5.501   9.849
34500SOL     OW 5396   1.677   3.122   1.990
34500SOL    HW1 5397   1.691   3.215   1.976
34500SOL    HW2 5398   1.605   3.099   1.931
34501SOL     OW 5399   4.437   3.225  12.702
34501SOL    HW1 5400   4.436   3.136  12.738
34501SOL    HW2 5401   4.348   3.256  12.713
34502SOL     OW 5402   8.536   4.175  12.888
34502SOL    HW1 5403   8.629   4.171  12.868
34502SOL    HW2 5404   8.510   4.264  12.862
34503SOL     OW 5405  10.181  14.447  10.602
34503SOL    HW1 5406  10.089  14.432  10.581
34503SOL    HW2 5407  10.191  14.543  10.598
34504SOL     OW 5408   4.112   7.667   9.572
34504SOL    HW1 5409   4.134   7.753   9.607
34504SOL    HW2 5410   4.183   7.610   9.601
34505SOL     OW 5411  10.964   4.449  14.396
34505SOL    HW1 5412  10.929   4.382  14.337
34505SOL    HW2 5413  10.960   4.408  14.483
34506SOL     OW 5414  13.219  10.381   1.667
34506SOL    HW1 5415  13.215  10.435   1.746
34506SOL    HW2 5416  13.138  10.400   1.621
34507SOL     OW 5417  10.475   6.029  10.070
34507SOL    HW1 5418  10.491   6.020  10.164
34507SOL    HW2 5419  10.563   6.037  10.032
34508SOL     OW 5420   6.886   9.102  10.637
34508SOL    HW1 5421   6.952   9.075  10.572
34508SOL    HW2 5422   6.937   9.134  10.711
34509SOL     OW 5423   2.765   1.679  11.627
34509SOL    HW1 5424   2.791   1.674  11.719
34509SOL    HW2 5425   2.747   1.772  11.612
34510SOL     OW 5426  13.571  14.401  14.761
34510SOL    HW1 5427  13.614  14.466  14.705
34510SOL    HW2 5428  13.623  14.321  14.749
34511SOL     OW 5429   3.263   8.054   5.798
34511SOL    HW1 5430   3.316   8.123   5.840
34511SOL    HW2 5431   3.322   7.979   5.792
34512SOL     OW 5432   7.760   7.777   8.915
34512SOL    HW1 5433   7.730   7.742   8.998
34512SOL    HW2 5434   7.757   7.703   8.855
34513SOL     OW 5435   7.800   2.327   4.530
34513SOL    HW1 5436   7.808   2.413   4.489
34513SOL    HW2 5437   7.711   2.299   4.509
34514SOL     OW 5438  13.142  12.815   9.694
34514SOL    HW1 5439  13.145  12.720   9.680
34514SOL    HW2 5440  13.226  12.846   9.661
34515SOL     OW 5441   2.549   3.458   0.614
34515SOL    HW1 5442   2.477   3.460   0.550
34515SOL    HW2 5443   2.518   3.398   0.682
34516SOL     OW 5444   5.160   9.160  13.455
34516SOL    HW1 5445   5.211   9.210  13.519
34516SOL    HW2 5446   5.194   9.188  13.370
34517SOL     OW 5447   7.482   4.371   3.613
34517SOL    HW1 5448   7.468   4.353   3.520
34517SOL    HW2 5449   7.498   4.466   3.617
34518SOL     OW 5450   3.071  12.455   6.375
34518SOL    HW1 5451   3.025  12.511   6.438
34518SOL    HW2 5452   3.000  12.413   6.325
34519SOL     OW 5453  11.327   4.181  14.577
34519SOL    HW1 5454  11.264   4.211  14.511
34519SOL    HW2 5455  11.319   4.244  14.648
34520SOL     OW 5456  10.325  13.314  11.641
34520SOL    HW1 5457  10.308  13.225  11.610
34520SOL    HW2 5458  10.406  13.339  11.598
34521SOL     OW 5459   2.315  10.993  10.667
34521SOL    HW1 5460   2.407  10.988  10.642
34521SOL    HW2 5461   2.312  10.956  10.755
34522SOL     OW 5462   4.015  12.309   5.779
34522SOL    HW1 5463   3.963  12.277   5.852
34522SOL    HW2 5464   3.996  12.403   5.775
34523SOL     OW 5465   9.288   0.617   9.124
34523SOL    HW1 5466   9.288   0.712   9.121
34523SOL    HW2 5467   9.303   0.590   9.033
34524SOL     OW 5468   8.576   0.520  12.473
34524SOL    HW1 5469   8.644   0.569  12.518
34524SOL    HW2 5470   8.598   0.428  12.488
34525SOL     OW 5471  12.765  12.219  12.748
34525SOL    HW1 5472  12.708  12.142  12.752
34525SOL    HW2 5473  12.788  12.237  12.839
34526SOL     OW 5474   3.051   7.367   2.195
34526SOL    HW1 5475   3.122   7.308   2.219
34526SOL    HW2 5476   3.015   7.397   2.279
34527SOL     OW 5477   5.624   8.193   6.977
34527SOL    HW1 5478   5.552   8.144   6.939
34527SOL    HW2 5479   5.700   8.136   6.966
34528SOL     OW 5480   3.611   8.022  13.777
34528SOL    HW1 5481   3.591   7.937  13.816
34528SOL    HW2 5482   3.554   8.028  13.701
34529SOL     OW 5483   7.858   0.799   4.025
34529SOL    HW1 5484   7.873   0.875   3.968
34529SOL    HW2 5485   7.804   0.832   4.096
34530SOL     OW 5486   7.408   9.245  12.635
34530SOL    HW1 5487   7.465   9.225  12.710
34530SOL    HW2 5488   7.439   9.329  12.602
34531SOL     OW 5489   1.805  10.449   6.102
34531SOL    HW1 5490   1.785  10.481   6.190
34531SOL    HW2 5491   1.744  10.496   6.045
34532SOL     OW 5492   5.369  12.336   0.949
34532SOL    HW1 5493   5.390  12.246   0.973
34532SOL    HW2 5494   5.291  12.329   0.894
34533SOL     OW 5495   9.764   6.382  12.948
34533SOL    HW1 5496   9.751   6.350  12.859
34533SOL    HW2 5497   9.854   6.357  12.970
34534SOL     OW 5498   6.074   3.513   7.130
34534SOL    HW1 5499   6.126   3.531   7.052
34534SOL    HW2 5500   6.062   3.599   7.171
34535SOL     OW 5501   5.694  11.616  14.440
34535SOL    HW1 5502   5.607  11.596  14.475
34535SOL    HW2 5503   5.725  11.534  14.403
34536SOL     OW 5504   3.984   8.729   1.994
34536SOL    HW1 5505   3.979   8.639   2.027
34536SOL    HW2 5506   3.900   8.744   1.951
34537SOL     OW 5507   2.605   7.436   7.176
34537SOL    HW1 5508   2.699   7.457   7.174
34537SOL    HW2 5509   2.576   7.464   7.263
34538SOL     OW 5510   5.493  12.944   6.424
34538SOL    HW1 5511   5.408  12.957   6.383
34538SOL    HW2 5512   5.523  12.859   6.391
34539SOL     OW 5513  13.316   3.120   7.891
34539SOL    HW1 5514  13.320   3.190   7.957
34539SOL    HW2 5515  13.350   3.043   7.937
34540SOL     OW 5516   6.159   6.634  10.643
34540SOL    HW1 5517   6.122   6.659  10.559
34540SOL    HW2 5518   6.084   6.618  10.699
34541SOL     OW 5519   1.147   3.667  12.526
34541SOL    HW1 5520   1.176   3.734  12.464
34541SOL    HW2 5521   1.218   3.662  12.590
34542SOL     OW 5522  12.877   9.678  11.980
34542SOL    HW1 5523  12.953   9.698  11.926
34542SOL    HW2 5524  12.805   9.725  11.939
34543SOL     OW 5525   4.606   4.726   1.638
34543SOL    HW1 5526   4.624   4.709   1.546
34543SOL    HW2 5527   4.516   4.696   1.651
34544SOL     OW 5528   5.169   2.374  11.236
34544SOL    HW1 5529   5.086   2.329  11.253
34544SOL    HW2 5530   5.176   2.438  11.307
34545SOL     OW 5531   3.022   8.948   3.783
34545SOL    HW1 5532   2.962   8.873   3.793
34545SOL    HW2 5533   2.979   9.005   3.719
34546SOL     OW 5534   9.622   0.807   0.644
34546SOL    HW1 5535   9.652   0.721   0.614
34546SOL    HW2 5536   9.538   0.790   0.687
34547SOL     OW 5537   7.783  10.266  10.831
34547SOL    HW1 5538   7.788  10.339  10.892
34547SOL    HW2 5539   7.707  10.286  10.776
34548SOL     OW 5540   6.501   0.268   5.032
34548SOL    HW1 5541   6.503   0.176   5.006
34548SOL    HW2 5542   6.409   0.285   5.055
34549SOL     OW 5543   8.669   8.302  14.357
34549SOL    HW1 5544   8.661   8.218  14.312
34549SOL    HW2 5545   8.763   8.313  14.372
34550SOL     OW 5546   9.900  11.913   1.451
34550SOL    HW1 5547   9.862  11.962   1.524
34550SOL    HW2 5548   9.975  11.965   1.424
34551SOL     OW 5549   2.214   6.930   5.413
34551SOL    HW1 5550   2.151   6.936   5.340
34551SOL    HW2 5551   2.159   6.925   5.491
34552SOL     OW 5552  11.893   7.870   5.424
34552SOL    HW1 5553  11.959   7.821   5.473
34552SOL    HW2 5554  11.846   7.804   5.374
34553SOL     OW 5555   6.269   9.512  12.364
34553SOL    HW1 5556   6.194   9.459  12.335
34553SOL    HW2 5557   6.236   9.559  12.441
34554SOL     OW 5558  11.080   9.846  13.151
34554SOL    HW1 5559  11.046   9.862  13.063
34554SOL    HW2 5560  11.163   9.893  13.154
34555SOL     OW 5561  14.868  10.526  13.419
34555SOL    HW1 5562   0.017  10.433  13.433
34555SOL    HW2 5563  14.871  10.537  13.324
34556SOL     OW 5564  11.141   3.848   3.404
34556SOL    HW1 5565  11.104   3.772   3.449
34556SOL    HW2 5566  11.231   3.821   3.383
34557SOL     OW 5567   4.717   8.099  12.168
34557SOL    HW1 5568   4.699   8.034  12.101
34557SOL    HW2 5569   4.803   8.074  12.203
34558SOL     OW 5570   3.690  12.088   2.941
34558SOL    HW1 5571   3.757  12.061   3.004
34558SOL    HW2 5572   3.694  12.184   2.941
34559SOL     OW 5573   6.205  10.320   0.586
34559SOL    HW1 5574   6.244  10.346   0.502
34559SOL    HW2 5575   6.189  10.226   0.577
34560SOL     OW 5576  12.892  14.575   2.323
34560SOL    HW1 5577  12.881  14.506   2.258
34560SOL    HW2 5578  12.985  14.572   2.346
34561SOL     OW 5579   5.421   7.717  14.320
34561SOL    HW1 5580   5.335   7.753  14.301
34561SOL    HW2 5581   5.411   7.674  14.404
34562SOL     OW 5582  12.304   4.616   5.264
34562SOL    HW1 5583  12.262   4.534   5.239
34562SOL    HW2 5584  12.350   4.595   5.346
34563SOL     OW 5585   9.385   1.988  13.134
34563SOL    HW1 5586   9.323   2.049  13.174
34563SOL    HW2 5587   9.348   1.901  13.152
34564SOL     OW 5588   5.326  12.274   3.156
34564SOL    HW1 5589   5.261  12.329   3.112
34564SOL    HW2 5590   5.310  12.186   3.123
34565SOL     OW 5591   1.939   6.406   5.645
34565SOL    HW1 5592   1.880   6.468   5.688
34565SOL    HW2 5593   1.910   6.404   5.554
34566SOL     OW 5594   7.234   0.059   2.215
34566SOL    HW1 5595   7.151   0.014   2.201
34566SOL    HW2 5596   7.296  14.861   2.236
34567SOL     OW 5597   2.804   5.472   3.824
34567SOL    HW1 5598   2.882   5.500   3.777
34567SOL    HW2 5599   2.837   5.437   3.907
34568SOL     OW 5600   5.210   7.096  14.123
34568SOL    HW1 5601   5.288   7.150  14.138
34568SOL    HW2 5602   5.137   7.156  14.134
34569SOL     OW 5603   6.452   0.821   6.331
34569SOL    HW1 5604   6.494   0.870   6.402
34569SOL    HW2 5605   6.409   0.748   6.375
34570SOL     OW 5606   8.491   6.844  10.024
34570SOL    HW1 5607   8.529   6.759  10.001
34570SOL    HW2 5608   8.397   6.831  10.017
34571SOL     OW 5609  12.542  12.384   0.830
34571SOL    HW1 5610  12.562  12.446   0.759
34571SOL    HW2 5611  12.549  12.436   0.910
34572SOL     OW 5612  10.182   8.897   0.802
34572SOL    HW1 5613  10.161   8.958   0.872
34572SOL    HW2 5614  10.254   8.844   0.837
34573SOL     OW 5615  11.475  13.071  11.390
34573SOL    HW1 5616  11.524  13.149  11.366
34573SOL    HW2 5617  11.384  13.101  11.398
34574SOL     OW 5618   2.143  12.625   2.213
34574SOL    HW1 5619   2.116  12.709   2.251
34574SOL    HW2 5620   2.205  12.589   2.276
34575SOL     OW 5621  10.676   6.666   7.811
34575SOL    HW1 5622  10.734   6.601   7.770
34575SOL    HW2 5623  10.712   6.678   7.899
34576SOL     OW 5624  12.959   2.264   4.836
34576SOL    HW1 5625  12.886   2.322   4.859
34576SOL    HW2 5626  13.034   2.323   4.827
34577SOL     OW 5627  10.714   4.956  10.855
34577SOL    HW1 5628  10.713   4.985  10.764
34577SOL    HW2 5629  10.640   4.895  10.862
34578SOL     OW 5630   9.604   4.722   8.312
34578SOL    HW1 5631   9.660   4.646   8.330
34578SOL    HW2 5632   9.555   4.735   8.392
34579SOL     OW 5633   2.708   6.665   4.653
34579SOL    HW1 5634   2.695   6.640   4.562
34579SOL    HW2 5635   2.788   6.619   4.680
34580SOL     OW 5636   5.793   0.648  10.001
34580SOL    HW1 5637   5.757   0.674  10.086
34580SOL    HW2 5638   5.886   0.635  10.017
34581SOL     OW 5639   2.830  11.975   2.995
34581SOL    HW1 5640   2.868  12.036   3.057
34581SOL    HW2 5641   2.769  11.923   3.048
34582SOL     OW 5642   5.036  13.927  14.087
34582SOL    HW1 5643   5.024  13.896  13.997
34582SOL    HW2 5644   4.958  13.980  14.105
34583SOL     OW 5645   8.636   6.692   4.039
34583SOL    HW1 5646   8.659   6.767   3.985
34583SOL    HW2 5647   8.562   6.651   3.994
34584SOL     OW 5648  13.545  12.266   8.105
34584SOL    HW1 5649  13.527  12.177   8.076
34584SOL    HW2 5650  13.624  12.258   8.159
34585SOL     OW 5651  12.880   3.323  11.842
34585SOL    HW1 5652  12.905   3.406  11.802
34585SOL    HW2 5653  12.896   3.257  11.774
34586SOL     OW 5654  11.679  10.030   1.814
34586SOL    HW1 5655  11.669  10.112   1.766
34586SOL    HW2 5656  11.589   9.996   1.822
34587SOL     OW 5657   4.130   4.085   6.803
34587SOL    HW1 5658   4.180   4.083   6.722
34587SOL    HW2 5659   4.174   4.151   6.857
34588SOL     OW 5660   8.050   8.795   8.145
34588SOL    HW1 5661   8.142   8.791   8.116
34588SOL    HW2 5662   8.014   8.870   8.098
34589SOL     OW 5663   4.332   2.721   9.917
34589SOL    HW1 5664   4.303   2.720   9.826
34589SOL    HW2 5665   4.284   2.793   9.957
34590SOL     OW 5666   7.185   3.282   2.436
34590SOL    HW1 5667   7.231   3.207   2.399
34590SOL    HW2 5668   7.237   3.307   2.512
34591SOL     OW 5669   7.938   5.707   5.721
34591SOL    HW1 5670   7.986   5.624   5.721
34591SOL    HW2 5671   7.987   5.764   5.663
34592SOL     OW 5672   5.798  12.555  11.930
34592SOL    HW1 5673   5.890  12.531  11.939
34592SOL    HW2 5674   5.795  12.605  11.849
34593SOL     OW 5675   2.918   6.249   3.948
34593SOL    HW1 5676   2.951   6.339   3.951
34593SOL    HW2 5677   2.930   6.222   3.856
34594SOL     OW 5678  11.144   3.161   4.531
34594SOL    HW1 5679  11.173   3.243   4.571
34594SOL    HW2 5680  11.049   3.162   4.541
34595SOL     OW 5681   6.615   7.153  14.360
34595SOL    HW1 5682   6.523   7.127  14.365
34595SOL    HW2 5683   6.663   7.080  14.400
34596SOL     OW 5684  10.377  14.212   4.594
34596SOL    HW1 5685  10.394  14.131   4.545
34596SOL    HW2 5686  10.368  14.183   4.684
34597SOL     OW 5687   2.749  13.459   6.637
34597SOL    HW1 5688   2.675  13.464   6.577
34597SOL    HW2 5689   2.731  13.526   6.703
34598SOL     OW 5690   7.882   1.241   5.248
34598SOL    HW1 5691   7.936   1.170   5.213
34598SOL    HW2 5692   7.815   1.197   5.300
34599SOL     OW 5693   4.120   6.606  11.483
34599SOL    HW1 5694   4.081   6.679  11.434
34599SOL    HW2 5695   4.207   6.596  11.445
34600SOL     OW 5696   2.669   0.811   5.789
34600SOL    HW1 5697   2.696   0.845   5.875
34600SOL    HW2 5698   2.575   0.795   5.798
34601SOL     OW 5699   7.717   7.243   5.891
34601SOL    HW1 5700   7.751   7.201   5.812
34601SOL    HW2 5701   7.661   7.314   5.859
34602SOL     OW 5702   1.349   7.817  12.285
34602SOL    HW1 5703   1.424   7.854  12.331
34602SOL    HW2 5704   1.382   7.733  12.251
34603SOL     OW 5705  12.007  11.134  13.990
34603SOL    HW1 5706  12.071  11.201  14.014
34603SOL    HW2 5707  11.956  11.174  13.920
34604SOL     OW 5708   6.475   0.647   5.243
34604SOL    HW1 5709   6.521   0.715   5.292
34604SOL    HW2 5710   6.486   0.568   5.296
34605SOL     OW 5711   3.523   7.414   4.149
34605SOL    HW1 5712   3.569   7.339   4.187
34605SOL    HW2 5713   3.431   7.399   4.171
34606SOL     OW 5714  14.429  12.868   8.149
34606SOL    HW1 5715  14.392  12.950   8.180
34606SOL    HW2 5716  14.523  12.875   8.166
34607SOL     OW 5717   2.963   8.873  11.852
34607SOL    HW1 5718   3.017   8.903  11.779
34607SOL    HW2 5719   2.969   8.778  11.850
34608SOL     OW 5720   3.223  14.041   3.456
34608SOL    HW1 5721   3.176  13.998   3.385
34608SOL    HW2 5722   3.154  14.076   3.512
34609SOL     OW 5723   6.872   2.629   2.890
34609SOL    HW1 5724   6.791   2.653   2.935
34609SOL    HW2 5725   6.862   2.536   2.872
34610SOL     OW 5726   5.490   4.529  14.358
34610SOL    HW1 5727   5.501   4.469  14.284
34610SOL    HW2 5728   5.554   4.500  14.423
34611SOL     OW 5729  13.025  13.027  14.424
34611SOL    HW1 5730  12.934  13.054  14.432
34611SOL    HW2 5731  13.049  12.997  14.512
34612SOL     OW 5732   6.395   3.619   7.187
34612SOL    HW1 5733   6.358   3.678   7.120
34612SOL    HW2 5734   6.356   3.534   7.167
34613SOL     OW 5735   8.594   1.729   3.568
34613SOL    HW1 5736   8.635   1.681   3.496
34613SOL    HW2 5737   8.513   1.681   3.585
34614SOL     OW 5738   5.180   8.228  11.855
34614SOL    HW1 5739   5.129   8.263  11.781
34614SOL    HW2 5740   5.196   8.305  11.911
34615SOL     OW 5741   2.876  13.892  14.057
34615SOL    HW1 5742   2.859  13.971  14.110
34615SOL    HW2 5743   2.945  13.846  14.105
34616SOL     OW 5744   7.544   4.522  11.046
34616SOL    HW1 5745   7.627   4.483  11.018
34616SOL    HW2 5746   7.567   4.610  11.076
34617SOL     OW 5747  12.697   2.336   3.180
34617SOL    HW1 5748  12.679   2.399   3.250
34617SOL    HW2 5749  12.778   2.293   3.208
34618SOL     OW 5750   4.530   0.148   8.396
34618SOL    HW1 5751   4.487   0.220   8.442
34618SOL    HW2 5752   4.508   0.161   8.304
34619SOL     OW 5753   2.453   6.988   9.188
34619SOL    HW1 5754   2.483   7.046   9.258
34619SOL    HW2 5755   2.527   6.930   9.172
34620SOL     OW 5756   9.131   4.150   1.701
34620SOL    HW1 5757   9.213   4.190   1.673
34620SOL    HW2 5758   9.070   4.170   1.630
34621SOL     OW 5759   0.013   9.028  11.552
34621SOL    HW1 5760   0.056   9.062  11.473
34621SOL    HW2 5761   0.064   9.064  11.624
34622SOL     OW 5762  14.040  10.083   9.138
34622SOL    HW1 5763  14.100  10.009   9.133
34622SOL    HW2 5764  14.029  10.100   9.231
34623SOL     OW 5765  13.383  11.020   7.957
34623SOL    HW1 5766  13.314  11.041   8.019
34623SOL    HW2 5767  13.379  10.925   7.946
34624SOL     OW 5768   7.664  10.471   8.315
34624SOL    HW1 5769   7.636  10.391   8.272
34624SOL    HW2 5770   7.687  10.530   8.244
34625SOL     OW 5771   3.561   9.343   0.803
34625SOL    HW1 5772   3.631   9.401   0.773
34625SOL    HW2 5773   3.488   9.362   0.745
34626SOL     OW 5774   8.803  11.449   6.473
34626SOL    HW1 5775   8.816  11.513   6.543
34626SOL    HW2 5776   8.887  11.406   6.464
34627SOL     OW 5777   1.377   9.447  11.684
34627SOL    HW1 5778   1.282   9.461  11.680
34627SOL    HW2 5779   1.405   9.448  11.592
34628SOL     OW 5780   5.213  10.229   5.402
34628SOL    HW1 5781   5.222  10.195   5.313
34628SOL    HW2 5782   5.264  10.310   5.402
34629SOL     OW 5783   0.265  11.454  12.270
34629SOL    HW1 5784   0.272  11.418  12.182
34629SOL    HW2 5785   0.338  11.515  12.277
34630SOL     OW 5786  11.600   8.139  12.246
34630SOL    HW1 5787  11.672   8.083  12.275
34630SOL    HW2 5788  11.586   8.200  12.319
34631SOL     OW 5789  12.573  10.495   9.100
34631SOL    HW1 5790  12.496  10.448   9.133
34631SOL    HW2 5791  12.538  10.579   9.070
34632SOL     OW 5792   7.534   9.660   4.720
34632SOL    HW1 5793   7.598   9.605   4.675
34632SOL    HW2 5794   7.473   9.598   4.760
34633SOL     OW 5795  12.062   6.269   4.951
34633SOL    HW1 5796  12.012   6.307   4.880
34633SOL    HW2 5797  12.018   6.299   5.031
34634SOL     OW 5798   4.386   9.453   1.257
34634SOL    HW1 5799   4.410   9.424   1.170
34634SOL    HW2 5800   4.462   9.435   1.311
34635SOL     OW 5801   2.690   2.569  14.449
34635SOL    HW1 5802   2.743   2.578  14.370
34635SOL    HW2 5803   2.655   2.480  14.444
34636SOL     OW 5804   7.451  12.651   5.142
34636SOL    HW1 5805   7.458  12.710   5.067
34636SOL    HW2 5806   7.448  12.564   5.104
34637SOL     OW 5807  11.665   9.783   4.883
34637SOL    HW1 5808  11.733   9.788   4.951
34637SOL    HW2 5809  11.590   9.828   4.921
34638SOL     OW 5810   3.059  10.687   2.168
34638SOL    HW1 5811   3.110  10.606   2.167
34638SOL    HW2 5812   3.016  10.687   2.254
34639SOL     OW 5813   6.163   7.592   8.239
34639SOL    HW1 5814   6.178   7.570   8.147
34639SOL    HW2 5815   6.171   7.509   8.285
34640SOL     OW 5816   5.389   0.926   9.412
34640SOL    HW1 5817   5.345   0.842   9.411
34640SOL    HW2 5818   5.338   0.981   9.353
34641SOL     OW 5819   9.704   6.729  11.112
34641SOL    HW1 5820   9.662   6.802  11.067
34641SOL    HW2 5821   9.633   6.686  11.160
34642SOL     OW 5822   4.815   4.382  10.865
34642SOL    HW1 5823   4.829   4.379  10.771
34642SOL    HW2 5824   4.902   4.398  10.902
34643SOL     OW 5825   7.925   9.117  10.010
34643SOL    HW1 5826   7.877   9.060   9.950
34643SOL    HW2 5827   7.943   9.061  10.086
34644SOL     OW 5828  10.740  13.417   7.324
34644SOL    HW1 5829  10.809  13.367   7.368
34644SOL    HW2 5830  10.663  13.360   7.328
34645SOL     OW 5831   7.019   3.158   0.928
34645SOL    HW1 5832   7.027   3.249   0.957
34645SOL    HW2 5833   7.018   3.163   0.833
34646SOL     OW 5834   7.285  12.649  14.537
34646SOL    HW1 5835   7.340  12.726  14.520
34646SOL    HW2 5836   7.216  12.682  14.594
34647SOL     OW 5837  14.296  13.923   0.602
34647SOL    HW1 5838  14.291  13.987   0.531
34647SOL    HW2 5839  14.287  13.838   0.559
34648SOL     OW 5840   3.983  13.638   3.635
34648SOL    HW1 5841   4.001  13.689   3.714
34648SOL    HW2 5842   3.889  13.649   3.620
34649SOL     OW 5843   8.749   6.126   8.514
34649SOL    HW1 5844   8.794   6.196   8.562
34649SOL    HW2 5845   8.756   6.049   8.571
34650SOL     OW 5846  10.085   9.102   8.709
34650SOL    HW1 5847  10.018   9.159   8.673
34650SOL    HW2 5848  10.148   9.161   8.750
34651SOL     OW 5849   5.730   2.799  14.795
34651SOL    HW1 5850   5.781   2.852  14.735
34651SOL    HW2 5851   5.691   2.861  14.856
34652SOL     OW 5852  13.776  12.184  11.135
34652SOL    HW1 5853  13.844  12.180  11.202
34652SOL    HW2 5854  13.701  12.140  11.174
34653SOL     OW 5855   5.030   3.054   8.170
34653SOL    HW1 5856   5.061   2.970   8.205
34653SOL    HW2 5857   4.990   3.031   8.086
34654SOL     OW 5858   2.578   9.134   8.655
34654SOL    HW1 5859   2.541   9.099   8.574
34654SOL    HW2 5860   2.569   9.229   8.646
34655SOL     OW 5861   2.723   5.826   0.091
34655SOL    HW1 5862   2.709   5.879   0.013
34655SOL    HW2 5863   2.635   5.813   0.127
34656SOL     OW 5864  14.401   1.169   1.780
34656SOL    HW1 5865  14.328   1.110   1.762
34656SOL    HW2 5866  14.361   1.256   1.782
34657SOL     OW 5867   1.111  12.594   0.112
34657SOL    HW1 5868   1.078  12.551   0.034
34657SOL    HW2 5869   1.105  12.528   0.181
34658SOL     OW 5870  14.406   7.097  13.836
34658SOL    HW1 5871  14.356   7.171  13.803
34658SOL    HW2 5872  14.374   7.022  13.787
34659SOL     OW 5873   7.907   9.784  10.373
34659SOL    HW1 5874   7.982   9.817  10.323
34659SOL    HW2 5875   7.946   9.749  10.453
34660SOL     OW 5876   7.017   5.759   7.259
34660SOL    HW1 5877   7.102   5.717   7.275
34660SOL    HW2 5878   7.015   5.833   7.320
34661SOL     OW 5879   5.889   9.745   2.596
34661SOL    HW1 5880   5.840   9.774   2.519
34661SOL    HW2 5881   5.981   9.759   2.573
34662SOL     OW 5882   2.339  11.973   5.172
34662SOL    HW1 5883   2.395  11.946   5.245
34662SOL    HW2 5884   2.251  11.947   5.198
34663SOL     OW 5885   4.820   5.868   4.871
34663SOL    HW1 5886   4.915   5.883   4.864
34663SOL    HW2 5887   4.796   5.825   4.789
34664SOL     OW 5888  14.710   1.353  11.037
34664SOL    HW1 5889  14.635   1.322  10.987
34664SOL    HW2 5890  14.755   1.414  10.979
34665SOL     OW 5891  11.452   4.176   0.834
34665SOL    HW1 5892  11.442   4.102   0.773
34665SOL    HW2 5893  11.432   4.139   0.920
34666SOL     OW 5894   6.901   4.157   5.694
34666SOL    HW1 5895   6.876   4.139   5.785
34666SOL    HW2 5896   6.850   4.235   5.670
34667SOL     OW 5897  14.016   3.680   5.258
34667SOL    HW1 5898  13.952   3.638   5.201
34667SOL    HW2 5899  14.009   3.631   5.341
34668SOL     OW 5900   0.789   4.864  11.692
34668SOL    HW1 5901   0.834   4.924  11.751
34668SOL    HW2 5902   0.859   4.817  11.648
34669SOL     OW 5903   6.110   1.498   3.587
34669SOL    HW1 5904   6.043   1.451   3.538
34669SOL    HW2 5905   6.152   1.555   3.523
34670SOL     OW 5906   4.278   3.463   6.051
34670SOL    HW1 5907   4.202   3.521   6.047
34670SOL    HW2 5908   4.272   3.410   5.971
34671SOL     OW 5909   7.159   2.292  14.640
34671SOL    HW1 5910   7.205   2.289  14.724
34671SOL    HW2 5911   7.127   2.382  14.633
34672SOL     OW 5912  11.336   5.441   4.119
34672SOL    HW1 5913  11.313   5.422   4.209
34672SOL    HW2 5914  11.374   5.529   4.122
34673SOL     OW 5915   2.613   5.063   9.783
34673SOL    HW1 5916   2.696   5.034   9.743
34673SOL    HW2 5917   2.625   5.048   9.877
34674SOL     OW 5918   1.062   4.853   0.414
34674SOL    HW1 5919   1.007   4.888   0.485
34674SOL    HW2 5920   1.009   4.782   0.376
34675SOL     OW 5921  14.443  13.192   6.058
34675SOL    HW1 5922  14.436  13.275   6.012
34675SOL    HW2 5923  14.376  13.195   6.125
34676SOL     OW 5924   3.687  11.215   5.833
34676SOL    HW1 5925   3.698  11.122   5.814
34676SOL    HW2 5926   3.747  11.258   5.772
34677SOL     OW 5927  13.256   9.032   1.000
34677SOL    HW1 5928  13.194   9.089   1.046
34677SOL    HW2 5929  13.299   8.982   1.070
34678SOL     OW 5930   0.198  11.640   3.636
34678SOL    HW1 5931   0.130  11.573   3.631
34678SOL    HW2 5932   0.280  11.591   3.623
34679SOL     OW 5933  13.092   4.775  14.212
34679SOL    HW1 5934  13.133   4.816  14.135
34679SOL    HW2 5935  13.056   4.693  14.179
34680SOL     OW 5936   5.498   0.519   4.202
34680SOL    HW1 5937   5.443   0.553   4.132
34680SOL    HW2 5938   5.542   0.443   4.165
34681SOL     OW 5939   2.650   6.291  11.389
34681SOL    HW1 5940   2.620   6.297  11.298
34681SOL    HW2 5941   2.745   6.291  11.383
34682SOL     OW 5942   4.499  10.288   2.626
34682SOL    HW1 5943   4.502  10.236   2.707
34682SOL    HW2 5944   4.500  10.379   2.655
34683SOL     OW 5945   3.150   8.418   8.295
34683SOL    HW1 5946   3.147   8.335   8.248
34683SOL    HW2 5947   3.092   8.404   8.371
34684SOL     OW 5948   1.027  11.603   0.240
34684SOL    HW1 5949   1.074  11.529   0.279
34684SOL    HW2 5950   0.935  11.586   0.260
34685SOL     OW 5951   7.961   1.787   9.800
34685SOL    HW1 5952   7.994   1.809   9.887
34685SOL    HW2 5953   8.039   1.786   9.744
34686SOL     OW 5954  10.898   8.503  14.814
34686SOL    HW1 5955  10.982   8.502  14.859
34686SOL    HW2 5956  10.844   8.563  14.866
34687SOL     OW 5957   4.572   0.527  11.513
34687SOL    HW1 5958   4.581   0.614  11.474
34687SOL    HW2 5959   4.661   0.504  11.539
34688SOL     OW 5960   3.074   3.835   8.491
34688SOL    HW1 5961   3.080   3.924   8.457
34688SOL    HW2 5962   3.148   3.789   8.452
34689SOL     OW 5963   3.443   0.040  10.744
34689SOL    HW1 5964   3.500   0.007  10.813
34689SOL    HW2 5965   3.361   0.063  10.788
34690SOL     OW 5966   6.555  13.285  14.525
34690SOL    HW1 5967   6.604  13.351  14.575
34690SOL    HW2 5968   6.474  13.273  14.575
34691SOL     OW 5969   7.914  13.687  13.859
34691SOL    HW1 5970   7.951  13.613  13.907
34691SOL    HW2 5971   7.820  13.680  13.872
34692SOL     OW 5972  14.237   1.664   3.753
34692SOL    HW1 5973  14.284   1.612   3.688
34692SOL    HW2 5974  14.254   1.621   3.836
34693SOL     OW 5975   4.794   9.208   6.901
34693SOL    HW1 5976   4.847   9.227   6.824
34693SOL    HW2 5977   4.853   9.161   6.959
34694SOL     OW 5978   4.468  14.011  13.715
34694SOL    HW1 5979   4.443  14.045  13.628
34694SOL    HW2 5980   4.507  13.926  13.696
34695SOL     OW 5981   5.415  13.455   7.965
34695SOL    HW1 5982   5.476  13.430   7.896
34695SOL    HW2 5983   5.342  13.394   7.955
34696SOL     OW 5984  14.733  11.564   3.220
34696SOL    HW1 5985  14.826  11.585   3.220
34696SOL    HW2 5986  14.724  11.497   3.288
34697SOL     OW 5987   4.224   2.025   1.420
34697SOL    HW1 5988   4.144   2.076   1.408
34697SOL    HW2 5989   4.271   2.071   1.490
34698SOL     OW 5990  10.909   3.001  12.682
34698SOL    HW1 5991  10.820   3.037  12.673
34698SOL    HW2 5992  10.954   3.065  12.737
34699SOL     OW 5993   7.625  14.845  12.110
34699SOL    HW1 5994   7.679  14.854  12.031
34699SOL    HW2 5995   7.535  14.844  12.077
34700SOL     OW 5996  14.199  11.466   4.032
34700SOL    HW1 5997  14.113  11.457   3.991
34700SOL    HW2 5998  14.181  11.497   4.120
34701SOL     OW 5999   9.157   8.499   3.672
34701SOL    HW1 6000   9.161   8.593   3.689
34701SOL    HW2 6001   9.083   8.488   3.613
34702SOL     OW 6002   5.324   3.173   0.903
34702SOL    HW1 6003   5.409   3.197   0.867
34702SOL    HW2 6004   5.280   3.257   0.918
34703SOL     OW 6005  10.664   6.103   6.773
34703SOL    HW1 6006  10.677   6.135   6.863
34703SOL    HW2 6007  10.625   6.017   6.784
34704SOL     OW 6008   1.767   7.796   0.062
34704SOL    HW1 6009   1.812   7.761  14.858
34704SOL    HW2 6010   1.805   7.884   0.074
34705SOL     OW 6011  10.124   0.603  13.333
34705SOL    HW1 6012  10.057   0.543  13.300
34705SOL    HW2 6013  10.113   0.682  13.279
34706SOL     OW 6014  12.576   8.770   0.074
34706SOL    HW1 6015  12.627   8.690   0.078
34706SOL    HW2 6016  12.533   8.776   0.160
34707SOL     OW 6017   1.489  13.882   7.701
34707SOL    HW1 6018   1.579  13.859   7.724
34707SOL    HW2 6019   1.459  13.810   7.645
34708SOL     OW 6020   5.565   2.809   9.948
34708SOL    HW1 6021   5.491   2.799  10.008
34708SOL    HW2 6022   5.544   2.886   9.896
34709SOL     OW 6023  11.651  14.045  11.483
34709SOL    HW1 6024  11.586  14.018  11.547
34709SOL    HW2 6025  11.600  14.075  11.408
34710SOL     OW 6026   9.615   1.848   3.903
34710SOL    HW1 6027   9.587   1.758   3.887
34710SOL    HW2 6028   9.640   1.881   3.817
34711SOL     OW 6029   9.072   7.404   0.540
34711SOL    HW1 6030   9.106   7.323   0.502
34711SOL    HW2 6031   8.978   7.388   0.550
34712SOL     OW 6032   6.483   0.028   4.275
34712SOL    HW1 6033   6.445   0.037   4.362
34712SOL    HW2 6034   6.409   0.042   4.215
34713SOL     OW 6035   3.900   6.893  13.689
34713SOL    HW1 6036   3.975   6.904  13.631
34713SOL    HW2 6037   3.885   6.980  13.726
34714SOL     OW 6038   3.990   8.874   1.222
34714SOL    HW1 6039   4.083   8.856   1.236
34714SOL    HW2 6040   3.948   8.788   1.229
34715SOL     OW 6041   1.137   5.521  14.761
34715SOL    HW1 6042   1.172   5.568  14.685
34715SOL    HW2 6043   1.176   5.434  14.755
34716SOL     OW 6044   9.271   0.140  13.516
34716SOL    HW1 6045   9.312   0.180  13.439
34716SOL    HW2 6046   9.201   0.085  13.481
34717SOL     OW 6047   9.331   6.450   4.792
34717SOL    HW1 6048   9.307   6.370   4.746
34717SOL    HW2 6049   9.249   6.482   4.829
34718SOL     OW 6050   3.210   0.811   8.719
34718SOL    HW1 6051   3.251   0.869   8.783
34718SOL    HW2 6052   3.129   0.856   8.694
34719SOL     OW 6053   3.192   2.044   9.852
34719SOL    HW1 6054   3.244   1.966   9.873
34719SOL    HW2 6055   3.248   2.118   9.875
34720SOL     OW 6056   4.230   6.385  14.678
34720SOL    HW1 6057   4.318   6.423  14.678
34720SOL    HW2 6058   4.224   6.339  14.594
34721SOL     OW 6059   4.051  10.167  10.788
34721SOL    HW1 6060   3.998  10.212  10.854
34721SOL    HW2 6061   4.022  10.204  10.705
34722SOL     OW 6062   5.246  13.672   4.033
34722SOL    HW1 6063   5.272  13.592   3.988
34722SOL    HW2 6064   5.180  13.644   4.097
34723SOL     OW 6065  13.352   3.473  12.817
34723SOL    HW1 6066  13.447   3.473  12.804
34723SOL    HW2 6067  13.333   3.385  12.849
34724SOL     OW 6068  13.942   7.938  11.610
34724SOL    HW1 6069  13.940   8.023  11.655
34724SOL    HW2 6070  13.997   7.883  11.666
34725SOL     OW 6071   8.782   0.638   8.188
34725SOL    HW1 6072   8.823   0.711   8.234
34725SOL    HW2 6073   8.830   0.560   8.218
34726SOL     OW 6074  12.567  10.973   1.974
34726SOL    HW1 6075  12.519  10.902   1.930
34726SOL    HW2 6076  12.648  10.932   2.004
34727SOL     OW 6077   6.772  13.617   0.485
34727SOL    HW1 6078   6.712  13.685   0.515
34727SOL    HW2 6079   6.723  13.568   0.419
34728SOL     OW 6080  10.503   0.236  14.657
34728SOL    HW1 6081  10.477   0.162  14.602
34728SOL    HW2 6082  10.563   0.197  14.721
34729SOL     OW 6083   2.556   2.223  13.406
34729SOL    HW1 6084   2.592   2.225  13.317
34729SOL    HW2 6085   2.473   2.270  13.400
34730SOL     OW 6086   3.488  12.236   5.085
34730SOL    HW1 6087   3.448  12.280   5.160
34730SOL    HW2 6088   3.421  12.240   5.017
34731SOL     OW 6089  12.993  14.700  13.396
34731SOL    HW1 6090  12.937  14.699  13.474
34731SOL    HW2 6091  13.039  14.783  13.400
34732SOL     OW 6092   5.113  11.488   0.132
34732SOL    HW1 6093   5.047  11.473   0.064
34732SOL    HW2 6094   5.192  11.448   0.097
34733SOL     OW 6095   5.117   3.840   0.121
34733SOL    HW1 6096   5.035   3.887   0.105
34733SOL    HW2 6097   5.122   3.776   0.050
34734SOL     OW 6098   9.189  10.519   4.757
34734SOL    HW1 6099   9.136  10.446   4.725
34734SOL    HW2 6100   9.217  10.565   4.677
34735SOL     OW 6101  10.519   0.571  10.731
34735SOL    HW1 6102  10.581   0.631  10.773
34735SOL    HW2 6103  10.572   0.496  10.704
34736SOL     OW 6104  13.613   6.605   1.510
34736SOL    HW1 6105  13.567   6.664   1.571
34736SOL    HW2 6106  13.690   6.576   1.559
34737SOL     OW 6107  14.671   9.156   6.717
34737SOL    HW1 6108  14.585   9.197   6.726
34737SOL    HW2 6109  14.730   9.229   6.697
34738SOL     OW 6110   3.049  13.732   3.091
34738SOL    HW1 6111   3.116  13.698   3.032
34738SOL    HW2 6112   2.966  13.715   3.046
34739SOL     OW 6113  10.207   2.707  10.462
34739SOL    HW1 6114  10.262   2.736  10.389
34739SOL    HW2 6115  10.230   2.615  10.474
34740SOL     OW 6116   9.739  13.457   0.762
34740SOL    HW1 6117   9.688  13.525   0.717
34740SOL    HW2 6118   9.720  13.472   0.855
34741SOL     OW 6119   6.729  14.263   5.808
34741SOL    HW1 6120   6.817  14.287   5.779
34741SOL    HW2 6121   6.743  14.200   5.879
34742SOL     OW 6122   6.827   3.883   1.701
34742SOL    HW1 6123   6.844   3.806   1.754
34742SOL    HW2 6124   6.800   3.849   1.615
34743SOL     OW 6125   6.547  12.897   4.232
34743SOL    HW1 6126   6.578  12.912   4.321
34743SOL    HW2 6127   6.511  12.809   4.234
34744SOL     OW 6128   3.383  14.413   7.277
34744SOL    HW1 6129   3.352  14.384   7.363
34744SOL    HW2 6130   3.378  14.509   7.280
34745SOL     OW 6131  13.388  14.048   2.891
34745SOL    HW1 6132  13.427  13.994   2.960
34745SOL    HW2 6133  13.409  14.138   2.916
34746SOL     OW 6134  13.236  12.285  10.027
34746SOL    HW1 6135  13.185  12.318   9.953
34746SOL    HW2 6136  13.301  12.352  10.044
34747SOL     OW 6137  11.426   5.708  12.086
34747SOL    HW1 6138  11.397   5.778  12.028
34747SOL    HW2 6139  11.413   5.742  12.174
34748SOL     OW 6140   9.563   3.675   6.161
34748SOL    HW1 6141   9.579   3.580   6.165
34748SOL    HW2 6142   9.468   3.683   6.155
34749SOL     OW 6143  10.219   1.324   7.622
34749SOL    HW1 6144  10.212   1.383   7.548
34749SOL    HW2 6145  10.223   1.381   7.699
34750SOL     OW 6146   2.947   1.752  14.133
34750SOL    HW1 6147   2.885   1.684  14.106
34750SOL    HW2 6148   2.941   1.819  14.064
34751SOL     OW 6149   8.790   8.666   5.285
34751SOL    HW1 6150   8.802   8.712   5.202
34751SOL    HW2 6151   8.713   8.610   5.271
34752SOL     OW 6152  11.154  10.679   7.094
34752SOL    HW1 6153  11.215  10.641   7.031
34752SOL    HW2 6154  11.089  10.724   7.040
34753SOL     OW 6155   3.377  13.633   1.967
34753SOL    HW1 6156   3.413  13.548   1.994
34753SOL    HW2 6157   3.422  13.653   1.885
34754SOL     OW 6158   9.846  12.642   6.752
34754SOL    HW1 6159   9.792  12.613   6.679
34754SOL    HW2 6160   9.892  12.564   6.780
34755SOL     OW 6161   6.061   6.064   2.639
34755SOL    HW1 6162   6.119   6.004   2.592
34755SOL    HW2 6163   6.117   6.137   2.664
34756SOL     OW 6164  12.547   8.099   6.741
34756SOL    HW1 6165  12.457   8.088   6.710
34756SOL    HW2 6166  12.571   8.012   6.775
34757SOL     OW 6167   1.316   8.432   9.163
34757SOL    HW1 6168   1.299   8.496   9.094
34757SOL    HW2 6169   1.308   8.482   9.244
34758SOL     OW 6170   8.970   3.465   9.190
34758SOL    HW1 6171   8.882   3.446   9.222
34758SOL    HW2 6172   9.000   3.537   9.245
34759SOL     OW 6173   1.128  14.567   0.201
34759SOL    HW1 6174   1.154  14.645   0.250
34759SOL    HW2 6175   1.056  14.596   0.145
34760SOL     OW 6176   0.224   7.916   7.970
34760SOL    HW1 6177   0.288   7.844   7.975
34760SOL    HW2 6178   0.157   7.884   7.909
34761SOL     OW 6179   3.988   3.466   8.122
34761SOL    HW1 6180   4.000   3.377   8.089
34761SOL    HW2 6181   3.906   3.496   8.081
34762SOL     OW 6182   8.568  10.730  14.331
34762SOL    HW1 6183   8.569  10.684  14.247
34762SOL    HW2 6184   8.660  10.753  14.347
34763SOL     OW 6185   5.218   5.449  13.003
34763SOL    HW1 6186   5.232   5.542  12.985
34763SOL    HW2 6187   5.207   5.444  13.098
34764SOL     OW 6188   4.897   5.686   5.113
34764SOL    HW1 6189   4.877   5.661   5.203
34764SOL    HW2 6190   4.920   5.779   5.118
34765SOL     OW 6191   0.757  10.947   4.207
34765SOL    HW1 6192   0.686  10.935   4.143
34765SOL    HW2 6193   0.746  11.036   4.239
34766SOL     OW 6194   1.157   1.432   5.740
34766SOL    HW1 6195   1.132   1.459   5.828
34766SOL    HW2 6196   1.219   1.360   5.753
34767SOL     OW 6197  10.945   7.378   8.713
34767SOL    HW1 6198  11.005   7.325   8.765
34767SOL    HW2 6199  10.896   7.429   8.777
34768SOL     OW 6200   9.563   0.087   8.981
34768SOL    HW1 6201   9.629   0.080   9.049
34768SOL    HW2 6202   9.491   0.134   9.022
34769SOL     OW 6203   6.417  14.421  14.700
34769SOL    HW1 6204   6.497  14.380  14.732
34769SOL    HW2 6205   6.366  14.439  14.780
34770SOL     OW 6206  13.624   0.896  14.576
34770SOL    HW1 6207  13.624   0.948  14.657
34770SOL    HW2 6208  13.532   0.893  14.551
34771SOL     OW 6209   0.001   1.939   4.153
34771SOL    HW1 6210   0.018   2.032   4.168
34771SOL    HW2 6211   0.087   1.899   4.148
34772SOL     OW 6212   9.989   7.715  10.193
34772SOL    HW1 6213   9.920   7.649  10.195
34772SOL    HW2 6214  10.020   7.714  10.103
34773SOL     OW 6215  10.423  11.405  12.188
34773SOL    HW1 6216  10.460  11.446  12.266
34773SOL    HW2 6217  10.459  11.456  12.115
34774SOL     OW 6218  14.440   0.079  10.773
34774SOL    HW1 6219  14.436  14.868  10.821
34774SOL    HW2 6220  14.452   0.145  10.841
34775SOL     OW 6221   5.293  12.790  11.370
34775SOL    HW1 6222   5.258  12.781  11.458
34775SOL    HW2 6223   5.339  12.708  11.353
34776SOL     OW 6224  13.531  10.996  12.000
34776SOL    HW1 6225  13.436  10.991  12.000
34776SOL    HW2 6226  13.559  10.928  11.939
34777SOL     OW 6227   5.305   7.578   6.805
34777SOL    HW1 6228   5.314   7.638   6.879
34777SOL    HW2 6229   5.375   7.515   6.816
34778SOL     OW 6230   8.826   2.370  11.881
34778SOL    HW1 6231   8.754   2.368  11.818
34778SOL    HW2 6232   8.899   2.328  11.835
34779SOL     OW 6233   0.298  12.980  13.648
34779SOL    HW1 6234   0.204  12.975  13.665
34779SOL    HW2 6235   0.333  12.896  13.675
34780SOL     OW 6236   5.632   7.386   3.843
34780SOL    HW1 6237   5.651   7.455   3.779
34780SOL    HW2 6238   5.711   7.331   3.843
34781SOL     OW 6239   1.088   9.853   3.831
34781SOL    HW1 6240   1.104   9.834   3.738
34781SOL    HW2 6241   1.057   9.944   3.832
34782SOL     OW 6242   6.698   6.959   3.820
34782SOL    HW1 6243   6.705   6.884   3.879
34782SOL    HW2 6244   6.788   6.978   3.794
34783SOL     OW 6245  10.011  11.551   4.769
34783SOL    HW1 6246   9.947  11.492   4.730
34783SOL    HW2 6247   9.996  11.545   4.863
34784SOL     OW 6248  12.822  11.489   1.702
34784SOL    HW1 6249  12.880  11.564   1.684
34784SOL    HW2 6250  12.734  11.526   1.701
34785SOL     OW 6251   5.319  13.067  12.953
34785SOL    HW1 6252   5.408  13.077  12.917
34785SOL    HW2 6253   5.271  13.019  12.885
34786SOL     OW 6254   2.082  13.913  14.771
34786SOL    HW1 6255   2.038  13.957  14.698
34786SOL    HW2 6256   2.137  13.846  14.730
34787SOL     OW 6257   7.410   9.224   0.505
34787SOL    HW1 6258   7.327   9.258   0.471
34787SOL    HW2 6259   7.423   9.270   0.588
34788SOL     OW 6260  12.568   9.410   8.443
34788SOL    HW1 6261  12.636   9.354   8.479
34788SOL    HW2 6262  12.601   9.438   8.358
34789SOL     OW 6263   9.764   7.412   5.632
34789SOL    HW1 6264   9.785   7.333   5.581
34789SOL    HW2 6265   9.672   7.428   5.614
34790SOL     OW 6266   6.467  11.531   6.199
34790SOL    HW1 6267   6.560  11.522   6.221
34790SOL    HW2 6268   6.421  11.478   6.264
34791SOL     OW 6269   8.371  10.881  10.831
34791SOL    HW1 6270   8.395  10.930  10.910
34791SOL    HW2 6271   8.397  10.791  10.850
34792SOL     OW 6272  14.781   3.248   7.984
34792SOL    HW1 6273  14.703   3.249   7.929
34792SOL    HW2 6274  14.755   3.198   8.061
34793SOL     OW 6275  13.449   7.417   7.196
34793SOL    HW1 6276  13.438   7.422   7.291
34793SOL    HW2 6277  13.433   7.506   7.165
34794SOL     OW 6278  13.286   7.484   0.045
34794SOL    HW1 6279  13.335   7.556   0.006
34794SOL    HW2 6280  13.351   7.438   0.099
34795SOL     OW 6281   2.004   7.944   7.164
34795SOL    HW1 6282   1.936   7.928   7.099
34795SOL    HW2 6283   1.964   7.920   7.247
34796SOL     OW 6284   0.812  12.925   4.755
34796SOL    HW1 6285   0.878  12.981   4.714
34796SOL    HW2 6286   0.854  12.839   4.762
34797SOL     OW 6287   5.212   5.009  10.435
34797SOL    HW1 6288   5.134   4.969  10.399
34797SOL    HW2 6289   5.248   4.943  10.495
34798SOL     OW 6290   4.963   3.396   6.789
34798SOL    HW1 6291   5.024   3.445   6.844
34798SOL    HW2 6292   4.995   3.306   6.791
34799SOL     OW 6293  11.205  12.699   7.560
34799SOL    HW1 6294  11.262  12.747   7.620
34799SOL    HW2 6295  11.119  12.701   7.602
34800SOL     OW 6296   6.510   3.484   8.562
34800SOL    HW1 6297   6.528   3.403   8.609
34800SOL    HW2 6298   6.465   3.457   8.482
34801SOL     OW 6299   9.176   8.909   0.990
34801SOL    HW1 6300   9.164   8.815   0.980
34801SOL    HW2 6301   9.192   8.922   1.083
34802SOL     OW 6302   9.765   9.924  14.768
34802SOL    HW1 6303   9.715   9.901  14.690
34802SOL    HW2 6304   9.842   9.867  14.764
34803SOL     OW 6305   9.820   9.762   9.260
34803SOL    HW1 6306   9.867   9.768   9.177
34803SOL    HW2 6307   9.869   9.819   9.320
34804SOL     OW 6308   4.061  14.515   9.919
34804SOL    HW1 6309   4.074  14.606   9.945
34804SOL    HW2 6310   4.088  14.464   9.995
34805SOL     OW 6311   2.916   2.838   7.583
34805SOL    HW1 6312   2.976   2.816   7.655
34805SOL    HW2 6313   2.884   2.754   7.552
34806SOL     OW 6314   7.969   6.241  11.745
34806SOL    HW1 6315   7.886   6.286  11.734
34806SOL    HW2 6316   7.984   6.197  11.661
34807SOL     OW 6317  14.066   5.404   0.757
34807SOL    HW1 6318  14.139   5.363   0.803
34807SOL    HW2 6319  14.108   5.450   0.684
34808SOL     OW 6320   1.932  13.969   6.390
34808SOL    HW1 6321   1.924  14.020   6.470
34808SOL    HW2 6322   2.021  13.988   6.359
34809SOL     OW 6323   7.379  12.867  14.125
34809SOL    HW1 6324   7.438  12.831  14.058
34809SOL    HW2 6325   7.431  12.869  14.205
34810SOL     OW 6326   0.546   9.390   2.183
34810SOL    HW1 6327   0.531   9.330   2.110
34810SOL    HW2 6328   0.459   9.425   2.204
34811SOL     OW 6329  10.817   7.521  10.441
34811SOL    HW1 6330  10.852   7.597  10.397
34811SOL    HW2 6331  10.754   7.556  10.504
34812SOL     OW 6332  12.634   4.388  13.091
34812SOL    HW1 6333  12.662   4.329  13.021
34812SOL    HW2 6334  12.599   4.330  13.159
34813SOL     OW 6335   0.339   5.930   0.063
34813SOL    HW1 6336   0.387   5.856   0.025
34813SOL    HW2 6337   0.374   5.939   0.151
34814SOL     OW 6338   1.896   2.677  11.901
34814SOL    HW1 6339   1.975   2.692  11.849
34814SOL    HW2 6340   1.880   2.760  11.946
34815SOL     OW 6341   0.191  13.482  13.190
34815SOL    HW1 6342   0.097  13.498  13.199
34815SOL    HW2 6343   0.199  13.387  13.190
34816SOL     OW 6344   4.883   4.053   5.271
34816SOL    HW1 6345   4.948   4.117   5.244
34816SOL    HW2 6346   4.826   4.100   5.332
34817SOL     OW 6347   6.182  10.346   2.022
34817SOL    HW1 6348   6.173  10.256   1.991
34817SOL    HW2 6349   6.276  10.357   2.035
34818SOL     OW 6350   2.788   6.537   9.465
34818SOL    HW1 6351   2.818   6.452   9.495
34818SOL    HW2 6352   2.844   6.558   9.391
34819SOL     OW 6353   0.403  12.206  13.052
34819SOL    HW1 6354   0.424  12.279  12.993
34819SOL    HW2 6355   0.311  12.187  13.034
34820SOL     OW 6356   8.618  13.460   2.129
34820SOL    HW1 6357   8.557  13.470   2.202
34820SOL    HW2 6358   8.626  13.365   2.118
34821SOL     OW 6359   7.823   4.390  10.075
34821SOL    HW1 6360   7.822   4.294  10.074
34821SOL    HW2 6361   7.743   4.414  10.122
34822SOL     OW 6362   6.685   4.335  13.941
34822SOL    HW1 6363   6.677   4.399  13.870
34822SOL    HW2 6364   6.611   4.355  13.999
34823SOL     OW 6365   9.054   1.207   1.234
34823SOL    HW1 6366   9.040   1.146   1.161
34823SOL    HW2 6367   9.144   1.237   1.223
34824SOL     OW 6368   5.853   3.212  12.917
34824SOL    HW1 6369   5.861   3.121  12.946
34824SOL    HW2 6370   5.909   3.218  12.840
34825SOL     OW 6371   1.730   1.664  12.937
34825SOL    HW1 6372   1.754   1.672  12.844
34825SOL    HW2 6373   1.802   1.616  12.977
34826SOL     OW 6374  11.178   6.493   3.527
34826SOL    HW1 6375  11.213   6.406   3.510
34826SOL    HW2 6376  11.255   6.545   3.552
34827SOL     OW 6377   3.887   2.846   5.901
34827SOL    HW1 6378   3.875   2.772   5.961
34827SOL    HW2 6379   3.955   2.815   5.841
34828SOL     OW 6380  11.116   9.983   6.648
34828SOL    HW1 6381  11.042   9.923   6.642
34828SOL    HW2 6382  11.104  10.029   6.730
34829SOL     OW 6383   2.922   3.101  11.555
34829SOL    HW1 6384   2.940   3.067  11.643
34829SOL    HW2 6385   2.830   3.080  11.540
34830SOL     OW 6386   2.556  12.517   0.612
34830SOL    HW1 6387   2.494  12.457   0.571
34830SOL    HW2 6388   2.525  12.526   0.702
34831SOL     OW 6389   7.944   0.769   2.299
34831SOL    HW1 6390   7.904   0.739   2.218
34831SOL    HW2 6391   7.914   0.707   2.366
34832SOL     OW 6392  13.867  10.688  13.538
34832SOL    HW1 6393  13.855  10.781  13.515
34832SOL    HW2 6394  13.949  10.663  13.495
34833SOL     OW 6395  10.318   0.962   4.002
34833SOL    HW1 6396  10.277   0.890   3.954
34833SOL    HW2 6397  10.253   0.985   4.069
34834SOL     OW 6398   4.986   5.623   0.283
34834SOL    HW1 6399   5.080   5.627   0.267
34834SOL    HW2 6400   4.946   5.638   0.197
34835SOL     OW 6401   1.634  14.109  11.455
34835SOL    HW1 6402   1.654  14.192  11.499
34835SOL    HW2 6403   1.618  14.133  11.364
34836SOL     OW 6404   3.922   5.927   7.923
34836SOL    HW1 6405   3.932   6.019   7.948
34836SOL    HW2 6406   3.959   5.922   7.835
34837SOL     OW 6407  10.451   5.583   2.576
34837SOL    HW1 6408  10.520   5.560   2.638
34837SOL    HW2 6409  10.459   5.677   2.563
34838SOL     OW 6410  13.640   8.059   5.046
34838SOL    HW1 6411  13.693   8.125   5.001
34838SOL    HW2 6412  13.692   7.979   5.042
34839SOL     OW 6413   9.516  11.939   7.033
34839SOL    HW1 6414   9.561  11.945   7.118
34839SOL    HW2 6415   9.509  11.845   7.017
34840SOL     OW 6416  14.010  12.546   2.695
34840SOL    HW1 6417  14.047  12.477   2.750
34840SOL    HW2 6418  14.061  12.624   2.716
34841SOL     OW 6419   0.007   8.107  11.100
34841SOL    HW1 6420  14.819   8.139  11.033
34841SOL    HW2 6421  14.838   8.132  11.183
34842SOL     OW 6422   1.239  10.261   3.883
34842SOL    HW1 6423   1.306  10.204   3.920
34842SOL    HW2 6424   1.159  10.208   3.886
34843SOL     OW 6425   8.998  14.017   1.538
34843SOL    HW1 6426   8.962  13.993   1.623
34843SOL    HW2 6427   8.974  14.109   1.526
34844SOL     OW 6428   9.335  12.107  10.086
34844SOL    HW1 6429   9.253  12.139  10.124
34844SOL    HW2 6430   9.341  12.016  10.117
34845SOL     OW 6431   0.078   5.453   4.987
34845SOL    HW1 6432   0.140   5.383   4.967
34845SOL    HW2 6433   0.130   5.519   5.034
34846SOL     OW 6434   0.221   7.118   2.903
34846SOL    HW1 6435   0.127   7.134   2.914
34846SOL    HW2 6436   0.246   7.174   2.830
34847SOL     OW 6437   4.307   0.660  14.514
34847SOL    HW1 6438   4.361   0.581  14.521
34847SOL    HW2 6439   4.366   0.732  14.538
34848SOL     OW 6440   3.244  14.478  12.320
34848SOL    HW1 6441   3.332  14.448  12.344
34848SOL    HW2 6442   3.231  14.558  12.371
34849SOL     OW 6443   2.448  11.890   4.096
34849SOL    HW1 6444   2.376  11.937   4.053
34849SOL    HW2 6445   2.501  11.958   4.136
34850SOL     OW 6446   5.595   6.602   3.754
34850SOL    HW1 6447   5.537   6.538   3.795
34850SOL    HW2 6448   5.607   6.670   3.820
34851SOL     OW 6449  13.655  10.679   6.781
34851SOL    HW1 6450  13.602  10.753   6.811
34851SOL    HW2 6451  13.643  10.678   6.686
34852SOL     OW 6452   5.549  14.656  13.565
34852SOL    HW1 6453   5.519  14.732  13.615
34852SOL    HW2 6454   5.473  14.629  13.514
34853SOL     OW 6455  10.680   3.412  14.376
34853SOL    HW1 6456  10.730   3.494  14.379
34853SOL    HW2 6457  10.608   3.431  14.316
34854SOL     OW 6458  12.816   0.224   8.228
34854SOL    HW1 6459  12.786   0.137   8.254
34854SOL    HW2 6460  12.765   0.245   8.150
34855SOL     OW 6461   4.633  14.325   8.152
34855SOL    HW1 6462   4.572  14.348   8.223
34855SOL    HW2 6463   4.599  14.243   8.117
34856SOL     OW 6464   3.881   2.322   0.341
34856SOL    HW1 6465   3.850   2.301   0.429
34856SOL    HW2 6466   3.807   2.367   0.299
34857SOL     OW 6467   9.536  10.228  12.487
34857SOL    HW1 6468   9.597  10.174  12.436
34857SOL    HW2 6469   9.544  10.316  12.450
34858SOL     OW 6470  11.021   1.828  11.738
34858SOL    HW1 6471  11.062   1.863  11.816
34858SOL    HW2 6472  10.976   1.902  11.698
34859SOL     OW 6473  14.051   4.990   8.428
34859SOL    HW1 6474  14.052   4.950   8.515
34859SOL    HW2 6475  14.031   5.083   8.445
34860SOL     OW 6476   5.168   9.538   5.200
34860SOL    HW1 6477   5.261   9.538   5.176
34860SOL    HW2 6478   5.124   9.571   5.122
34861SOL     OW 6479   8.863   4.384   3.500
34861SOL    HW1 6480   8.873   4.317   3.433
34861SOL    HW2 6481   8.774   4.418   3.488
34862SOL     OW 6482  12.336  14.812   4.290
34862SOL    HW1 6483  12.304   0.024   4.258
34862SOL    HW2 6484  12.427  14.829   4.315
34863SOL     OW 6485   3.198   0.457   0.217
34863SOL    HW1 6486   3.271   0.480   0.274
34863SOL    HW2 6487   3.156   0.383   0.261
34864SOL     OW 6488   8.681   5.469  12.772
34864SOL    HW1 6489   8.593   5.431  12.766
34864SOL    HW2 6490   8.735   5.414  12.715
34865SOL     OW 6491  14.165   5.764   2.890
34865SOL    HW1 6492  14.125   5.851   2.879
34865SOL    HW2 6493  14.101   5.715   2.941
34866SOL     OW 6494   9.858  11.329  13.235
34866SOL    HW1 6495   9.849  11.287  13.321
34866SOL    HW2 6496   9.824  11.265  13.173
34867SOL     OW 6497   7.377   4.610  11.551
34867SOL    HW1 6498   7.438   4.536  11.548
34867SOL    HW2 6499   7.290   4.570  11.550
34868SOL     OW 6500   7.043   9.868   1.369
34868SOL    HW1 6501   7.018   9.826   1.451
34868SOL    HW2 6502   7.112   9.813   1.333
34869SOL     OW 6503   2.627   0.944  12.251
34869SOL    HW1 6504   2.589   0.989  12.176
34869SOL    HW2 6505   2.688   0.881  12.213
34870SOL     OW 6506  13.825  13.611   5.082
34870SOL    HW1 6507  13.783  13.589   5.165
34870SOL    HW2 6508  13.756  13.597   5.017
34871SOL     OW 6509  11.651  11.851   9.879
34871SOL    HW1 6510  11.701  11.861   9.959
34871SOL    HW2 6511  11.711  11.808   9.818
34872SOL     OW 6512   8.759   2.763   8.964
34872SOL    HW1 6513   8.714   2.773   9.048
34872SOL    HW2 6514   8.745   2.672   8.940
34873SOL     OW 6515   5.943  11.027   6.015
34873SOL    HW1 6516   5.983  11.114   6.014
34873SOL    HW2 6517   5.854  11.042   6.046
34874SOL     OW 6518   8.672   3.241  12.271
34874SOL    HW1 6519   8.667   3.149  12.247
34874SOL    HW2 6520   8.729   3.280  12.205
34875SOL     OW 6521  10.976  11.654   2.991
34875SOL    HW1 6522  10.978  11.748   3.008
34875SOL    HW2 6523  10.992  11.647   2.897
34876SOL     OW 6524   1.523   0.100   4.107
34876SOL    HW1 6525   1.508   0.094   4.013
34876SOL    HW2 6526   1.524   0.009   4.137
34877SOL     OW 6527   1.115   8.652   4.345
34877SOL    HW1 6528   1.068   8.578   4.306
34877SOL    HW2 6529   1.183   8.674   4.281
34878SOL     OW 6530   1.012   7.814   7.336
34878SOL    HW1 6531   1.095   7.821   7.290
34878SOL    HW2 6532   0.989   7.722   7.331
34879SOL     OW 6533   9.576  13.613   8.358
34879SOL    HW1 6534   9.528  13.665   8.422
34879SOL    HW2 6535   9.514  13.601   8.286
34880SOL     OW 6536   4.977  13.670  13.166
34880SOL    HW1 6537   4.931  13.598  13.124
34880SOL    HW2 6538   5.006  13.726  13.094
34881SOL     OW 6539  11.015  13.210   5.029
34881SOL    HW1 6540  11.018  13.284   5.090
34881SOL    HW2 6541  10.966  13.243   4.954
34882SOL     OW 6542   3.377   2.617   0.428
34882SOL    HW1 6543   3.336   2.548   0.480
34882SOL    HW2 6544   3.455   2.641   0.477
34883SOL     OW 6545   2.738  10.370   3.510
34883SOL    HW1 6546   2.723  10.459   3.544
34883SOL    HW2 6547   2.664  10.319   3.544
34884SOL     OW 6548   2.784  13.592   7.708
34884SOL    HW1 6549   2.785  13.671   7.654
34884SOL    HW2 6550   2.866  13.547   7.687
34885SOL     OW 6551  14.258  10.431   3.079
34885SOL    HW1 6552  14.209  10.353   3.051
34885SOL    HW2 6553  14.270  10.481   2.998
34886SOL     OW 6554   2.258   0.510   2.570
34886SOL    HW1 6555   2.190   0.455   2.530
34886SOL    HW2 6556   2.275   0.578   2.505
34887SOL     OW 6557   3.225  14.769  14.598
34887SOL    HW1 6558   3.294  14.715  14.560
34887SOL    HW2 6559   3.147  14.713  14.598
34888SOL     OW 6560  10.914   0.298  10.676
34888SOL    HW1 6561  10.922   0.202  10.672
34888SOL    HW2 6562  10.987   0.325  10.731
34889SOL     OW 6563   1.349  13.902   4.248
34889SOL    HW1 6564   1.302  13.822   4.269
34889SOL    HW2 6565   1.281  13.969   4.242
34890SOL     OW 6566  10.907  12.857  11.516
34890SOL    HW1 6567  10.902  12.949  11.541
34890SOL    HW2 6568  10.995  12.848  11.479
34891SOL     OW 6569   7.214   2.538   5.837
34891SOL    HW1 6570   7.133   2.488   5.828
34891SOL    HW2 6571   7.283   2.479   5.809
34892SOL     OW 6572   5.414  13.236   4.104
34892SOL    HW1 6573   5.476  13.291   4.151
34892SOL    HW2 6574   5.340  13.294   4.085
34893SOL     OW 6575   5.420  12.084   0.748
34893SOL    HW1 6576   5.507  12.055   0.721
34893SOL    HW2 6577   5.435  12.169   0.790
34894SOL     OW 6578   3.730   0.885   3.540
34894SOL    HW1 6579   3.673   0.906   3.613
34894SOL    HW2 6580   3.744   0.968   3.495
34895SOL     OW 6581  13.040  13.255   4.166
34895SOL    HW1 6582  12.982  13.331   4.170
34895SOL    HW2 6583  13.128  13.292   4.159
34896SOL     OW 6584  10.565  13.789   5.546
34896SOL    HW1 6585  10.651  13.815   5.581
34896SOL    HW2 6586  10.525  13.871   5.518
34897SOL     OW 6587  10.671   0.147  10.469
34897SOL    HW1 6588  10.651   0.055  10.452
34897SOL    HW2 6589  10.765   0.155  10.452
34898SOL     OW 6590   7.838   8.675   7.956
34898SOL    HW1 6591   7.759   8.701   7.908
34898SOL    HW2 6592   7.847   8.741   8.025
34899SOL     OW 6593   9.522  13.404   7.905
34899SOL    HW1 6594   9.453  13.456   7.947
34899SOL    HW2 6595   9.601  13.424   7.955
34900SOL     OW 6596   9.936   7.723   5.357
34900SOL    HW1 6597   9.973   7.770   5.282
34900SOL    HW2 6598   9.892   7.790   5.408
34901SOL     OW 6599   4.101  14.659  12.988
34901SOL    HW1 6600   4.064  14.704  12.912
34901SOL    HW2 6601   4.094  14.722  13.059
34902SOL     OW 6602   9.933  11.230  11.686
34902SOL    HW1 6603   9.936  11.205  11.779
34902SOL    HW2 6604   9.986  11.310  11.681
34903SOL     OW 6605   2.323  13.141   7.961
34903SOL    HW1 6606   2.263  13.186   8.022
34903SOL    HW2 6607   2.410  13.155   8.000
34904SOL     OW 6608   3.190   8.810   8.525
34904SOL    HW1 6609   3.150   8.896   8.511
34904SOL    HW2 6610   3.186   8.767   8.440
34905SOL     OW 6611   6.560  13.379   4.008
34905SOL    HW1 6612   6.649  13.414   4.012
34905SOL    HW2 6613   6.510  13.436   4.067
34906SOL     OW 6614   5.692  12.887  11.856
34906SOL    HW1 6615   5.623  12.868  11.793
34906SOL    HW2 6616   5.773  12.860  11.811
34907SOL     OW 6617  14.709  13.347   5.949
34907SOL    HW1 6618  14.800  13.355   5.920
34907SOL    HW2 6619  14.713  13.363   6.043
34908SOL     OW 6620   4.469  14.425  10.286
34908SOL    HW1 6621   4.501  14.516  10.290
34908SOL    HW2 6622   4.467  14.397  10.378
34909SOL     OW 6623  12.307   3.562  10.210
34909SOL    HW1 6624  12.392   3.594  10.240
34909SOL    HW2 6625  12.311   3.569  10.115
34910SOL     OW 6626   5.448  10.854  13.954
34910SOL    HW1 6627   5.413  10.767  13.976
34910SOL    HW2 6628   5.504  10.877  14.028
34911SOL     OW 6629  12.617   7.000  10.824
34911SOL    HW1 6630  12.620   6.918  10.775
34911SOL    HW2 6631  12.540   7.045  10.790
34912SOL     OW 6632   7.956   5.156   2.647
34912SOL    HW1 6633   8.026   5.214   2.617
34912SOL    HW2 6634   7.940   5.183   2.738
34913SOL     OW 6635   3.572   4.054  13.314
34913SOL    HW1 6636   3.655   4.030  13.356
34913SOL    HW2 6637   3.562   4.147  13.332
34914SOL     OW 6638  14.753   6.294  10.482
34914SOL    HW1 6639  14.779   6.339  10.402
34914SOL    HW2 6640  14.714   6.211  10.452
34915SOL     OW 6641   1.879   6.295   9.728
34915SOL    HW1 6642   1.809   6.280   9.792
34915SOL    HW2 6643   1.947   6.232   9.752
34916SOL     OW 6644   5.202  12.816   7.021
34916SOL    HW1 6645   5.225  12.831   6.929
34916SOL    HW2 6646   5.119  12.769   7.017
34917SOL     OW 6647   8.107  12.299  13.260
34917SOL    HW1 6648   8.176  12.242  13.294
34917SOL    HW2 6649   8.142  12.388  13.268
34918SOL     OW 6650   4.523   9.459   4.935
34918SOL    HW1 6651   4.562   9.487   5.018
34918SOL    HW2 6652   4.488   9.539   4.896
34919SOL     OW 6653   0.679  12.786  14.540
34919SOL    HW1 6654   0.712  12.697  14.548
34919SOL    HW2 6655   0.716  12.832  14.616
34920SOL     OW 6656   3.436  14.049   9.743
34920SOL    HW1 6657   3.532  14.048   9.744
34920SOL    HW2 6658   3.412  14.010   9.660
34921SOL     OW 6659   1.658  12.515  13.234
34921SOL    HW1 6660   1.679  12.504  13.327
34921SOL    HW2 6661   1.676  12.607  13.216
34922SOL     OW 6662   0.920   7.468   3.091
34922SOL    HW1 6663   0.911   7.497   3.000
34922SOL    HW2 6664   0.836   7.427   3.112
34923SOL     OW 6665   7.772  11.891   2.620
34923SOL    HW1 6666   7.686  11.921   2.593
34923SOL    HW2 6667   7.754  11.814   2.674
34924SOL     OW 6668   8.936   5.707  13.064
34924SOL    HW1 6669   8.917   5.746  13.149
34924SOL    HW2 6670   8.994   5.770  13.021
34925SOL     OW 6671   8.282   0.356   6.502
34925SOL    HW1 6672   8.263   0.449   6.514
34925SOL    HW2 6673   8.374   0.354   6.476
34926SOL     OW 6674   8.943   8.804   1.857
34926SOL    HW1 6675   8.957   8.714   1.885
34926SOL    HW2 6676   9.007   8.855   1.906
34927SOL     OW 6677   6.410   9.601   8.500
34927SOL    HW1 6678   6.467   9.576   8.573
34927SOL    HW2 6679   6.341   9.654   8.540
34928SOL     OW 6680   1.729  14.006   2.017
34928SOL    HW1 6681   1.808  14.060   2.022
34928SOL    HW2 6682   1.713  13.977   2.107
34929SOL     OW 6683   8.290  10.084  13.497
34929SOL    HW1 6684   8.201  10.089  13.532
34929SOL    HW2 6685   8.294  10.154  13.431
34930SOL     OW 6686  11.269   3.441   3.488
34930SOL    HW1 6687  11.363   3.437   3.470
34930SOL    HW2 6688  11.264   3.459   3.582
34931SOL     OW 6689   5.452  14.850  12.434
34931SOL    HW1 6690   5.514  14.783  12.403
34931SOL    HW2 6691   5.483   0.059  12.393
34932SOL     OW 6692   7.801  11.233   8.482
34932SOL    HW1 6693   7.837  11.268   8.401
34932SOL    HW2 6694   7.866  11.254   8.549
34933SOL     OW 6695  11.526   8.885   9.053
34933SOL    HW1 6696  11.587   8.956   9.074
34933SOL    HW2 6697  11.509   8.843   9.138
34934SOL     OW 6698   1.275   9.694  11.346
34934SOL    HW1 6699   1.197   9.743  11.371
34934SOL    HW2 6700   1.345   9.760  11.344
34935SOL     OW 6701  10.610   4.735   1.020
34935SOL    HW1 6702  10.589   4.735   0.926
34935SOL    HW2 6703  10.681   4.672   1.029
34936SOL     OW 6704   3.317  13.744  14.669
34936SOL    HW1 6705   3.394  13.688  14.676
34936SOL    HW2 6706   3.243  13.686  14.688
34937SOL     OW 6707  13.301   9.314   1.294
34937SOL    HW1 6708  13.334   9.295   1.382
34937SOL    HW2 6709  13.369   9.370   1.256
34938SOL     OW 6710   2.634   4.689   9.979
34938SOL    HW1 6711   2.672   4.768  10.018
34938SOL    HW2 6712   2.702   4.622   9.988
34939SOL     OW 6713   7.225   6.508  14.827
34939SOL    HW1 6714   7.291   6.548  14.771
34939SOL    HW2 6715   7.257   6.521   0.043
34940SOL     OW 6716   1.544   3.899  14.258
34940SOL    HW1 6717   1.621   3.895  14.201
34940SOL    HW2 6718   1.576   3.939  14.339
34941SOL     OW 6719   9.292   4.102   6.427
34941SOL    HW1 6720   9.282   4.079   6.334
34941SOL    HW2 6721   9.222   4.055   6.471
34942SOL     OW 6722  14.786   4.814  13.592
34942SOL    HW1 6723  14.774   4.868  13.670
34942SOL    HW2 6724  14.868   4.767  13.608
34943SOL     OW 6725  13.095   7.351   3.118
34943SOL    HW1 6726  13.038   7.276   3.130
34943SOL    HW2 6727  13.046   7.410   3.060
34944SOL     OW 6728   5.174   7.682   9.568
34944SOL    HW1 6729   5.131   7.655   9.487
34944SOL    HW2 6730   5.268   7.675   9.549
34945SOL     OW 6731   0.662   2.313   9.174
34945SOL    HW1 6732   0.592   2.254   9.202
34945SOL    HW2 6733   0.651   2.321   9.080
34946SOL     OW 6734   9.173   5.878   3.941
34946SOL    HW1 6735   9.134   5.955   3.983
34946SOL    HW2 6736   9.105   5.811   3.946
34947SOL     OW 6737  14.549  13.208   8.788
34947SOL    HW1 6738  14.629  13.259   8.799
34947SOL    HW2 6739  14.559  13.135   8.849
34948SOL     OW 6740  11.370  12.931   3.262
34948SOL    HW1 6741  11.393  13.024   3.261
34948SOL    HW2 6742  11.286  12.927   3.216
34949SOL     OW 6743   2.149   4.749   2.668
34949SOL    HW1 6744   2.224   4.741   2.728
34949SOL    HW2 6745   2.073   4.734   2.724
34950SOL     OW 6746  11.975  14.597  13.393
34950SOL    HW1 6747  11.918  14.524  13.368
34950SOL    HW2 6748  11.989  14.587  13.487
34951SOL     OW 6749   4.013   4.495   2.322
34951SOL    HW1 6750   4.104   4.510   2.346
34951SOL    HW2 6751   4.015   4.478   2.228
34952SOL     OW 6752   8.765   9.168   7.907
34952SOL    HW1 6753   8.684   9.143   7.950
34952SOL    HW2 6754   8.743   9.171   7.814
34953SOL     OW 6755   7.367   3.819   2.851
34953SOL    HW1 6756   7.443   3.795   2.798
34953SOL    HW2 6757   7.344   3.908   2.821
34954SOL     OW 6758  14.824   6.839   8.947
34954SOL    HW1 6759   0.036   6.881   8.964
34954SOL    HW2 6760  14.839   6.787   8.868
34955SOL     OW 6761   9.910   3.262   9.254
34955SOL    HW1 6762   9.873   3.334   9.305
34955SOL    HW2 6763   9.864   3.184   9.286
34956SOL     OW 6764   4.361   6.213   3.308
34956SOL    HW1 6765   4.323   6.175   3.386
34956SOL    HW2 6766   4.456   6.209   3.323
34957SOL     OW 6767  10.934   3.888  14.196
34957SOL    HW1 6768  10.913   3.888  14.103
34957SOL    HW2 6769  10.851   3.907  14.239
34958SOL     OW 6770  14.116   5.192  11.691
34958SOL    HW1 6771  14.183   5.227  11.632
34958SOL    HW2 6772  14.155   5.112  11.726
34959SOL     OW 6773   9.145   7.850   8.267
34959SOL    HW1 6774   9.104   7.858   8.353
34959SOL    HW2 6775   9.177   7.938   8.246
34960SOL     OW 6776   1.000   9.191   3.175
34960SOL    HW1 6777   1.043   9.207   3.091
34960SOL    HW2 6778   1.002   9.095   3.184
34961SOL     OW 6779   1.602   4.609  12.433
34961SOL    HW1 6780   1.676   4.669  12.428
34961SOL    HW2 6781   1.598   4.583  12.525
34962SOL     OW 6782  14.201   7.100   8.429
34962SOL    HW1 6783  14.197   7.151   8.349
34962SOL    HW2 6784  14.110   7.090   8.457
34963SOL     OW 6785   2.543   7.803   2.176
34963SOL    HW1 6786   2.476   7.735   2.172
34963SOL    HW2 6787   2.529   7.854   2.096
34964SOL     OW 6788   5.536   4.669   5.795
34964SOL    HW1 6789   5.631   4.680   5.805
34964SOL    HW2 6790   5.508   4.634   5.880
34965SOL     OW 6791   8.086  10.856  14.595
34965SOL    HW1 6792   8.103  10.924  14.660
34965SOL    HW2 6793   7.992  10.861  14.578
34966SOL     OW 6794   1.542   7.790   5.109
34966SOL    HW1 6795   1.553   7.695   5.112
34966SOL    HW2 6796   1.527   7.809   5.016
34967SOL     OW 6797   7.830  14.175   1.296
34967SOL    HW1 6798   7.861  14.190   1.385
34967SOL    HW2 6799   7.840  14.080   1.283
34968SOL     OW 6800  12.311  11.827   2.655
34968SOL    HW1 6801  12.261  11.855   2.732
34968SOL    HW2 6802  12.383  11.774   2.691
34969SOL     OW 6803  11.361  13.841   9.943
34969SOL    HW1 6804  11.385  13.892  10.020
34969SOL    HW2 6805  11.434  13.852   9.882
34970SOL     OW 6806  11.226  10.331   6.991
34970SOL    HW1 6807  11.282  10.361   6.919
34970SOL    HW2 6808  11.245  10.237   6.998
34971SOL     OW 6809  11.076  14.047  14.641
34971SOL    HW1 6810  11.024  14.046  14.722
34971SOL    HW2 6811  11.142  13.978  14.655
34972SOL     OW 6812   3.641   8.188  10.724
34972SOL    HW1 6813   3.550   8.206  10.748
34972SOL    HW2 6814   3.636   8.161  10.632
34973SOL     OW 6815  13.087   8.560  11.745
34973SOL    HW1 6816  13.119   8.470  11.743
34973SOL    HW2 6817  13.057   8.577  11.656
34974SOL     OW 6818   7.582   3.835   2.696
34974SOL    HW1 6819   7.650   3.823   2.763
34974SOL    HW2 6820   7.630   3.840   2.613
34975SOL     OW 6821   4.073   9.499   8.874
34975SOL    HW1 6822   4.019   9.564   8.828
34975SOL    HW2 6823   4.162   9.532   8.865
34976SOL     OW 6824   3.527   3.347   9.502
34976SOL    HW1 6825   3.581   3.396   9.564
34976SOL    HW2 6826   3.573   3.355   9.419
34977SOL     OW 6827   0.503   6.189  14.324
34977SOL    HW1 6828   0.547   6.254  14.270
34977SOL    HW2 6829   0.474   6.121  14.263
34978SOL     OW 6830   2.636   1.265   7.782
34978SOL    HW1 6831   2.589   1.214   7.715
34978SOL    HW2 6832   2.572   1.330   7.812
34979SOL     OW 6833   9.303   7.945   9.529
34979SOL    HW1 6834   9.258   7.936   9.444
34979SOL    HW2 6835   9.326   8.038   9.533
34980SOL     OW 6836  13.374   1.313   3.626
34980SOL    HW1 6837  13.344   1.297   3.716
34980SOL    HW2 6838  13.325   1.390   3.598
34981SOL     OW 6839  12.188   6.589   5.714
34981SOL    HW1 6840  12.097   6.557   5.717
34981SOL    HW2 6841  12.180   6.684   5.717
34982SOL     OW 6842  14.169  11.832   9.698
34982SOL    HW1 6843  14.115  11.892   9.751
34982SOL    HW2 6844  14.137  11.745   9.721
34983SOL     OW 6845   1.989  13.039  11.879
34983SOL    HW1 6846   1.917  13.102  11.889
34983SOL    HW2 6847   2.068  13.093  11.875
34984SOL     OW 6848  14.090   0.502   1.296
34984SOL    HW1 6849  14.148   0.550   1.237
34984SOL    HW2 6850  14.011   0.555   1.303
34985SOL     OW 6851   9.713  13.472  12.269
34985SOL    HW1 6852   9.624  13.436  12.266
34985SOL    HW2 6853   9.766  13.405  12.227
34986SOL     OW 6854   2.467   3.675   1.998
34986SOL    HW1 6855   2.463   3.612   2.069
34986SOL    HW2 6856   2.409   3.746   2.025
34987SOL     OW 6857  14.433   4.798   9.382
34987SOL    HW1 6858  14.510   4.827   9.431
34987SOL    HW2 6859  14.468   4.763   9.300
34988SOL     OW 6860   8.785   9.562   8.005
34988SOL    HW1 6861   8.715   9.606   7.957
34988SOL    HW2 6862   8.740   9.514   8.074
34989SOL     OW 6863  12.384  14.298   5.797
34989SOL    HW1 6864  12.304  14.326   5.843
34989SOL    HW2 6865  12.361  14.301   5.704
34990SOL     OW 6866   2.109   1.040  10.196
34990SOL    HW1 6867   2.157   1.005  10.271
34990SOL    HW2 6868   2.173   1.095  10.150
34991SOL     OW 6869   8.945   8.956   0.816
34991SOL    HW1 6870   9.006   8.952   0.889
34991SOL    HW2 6871   8.896   8.874   0.821
34992SOL     OW 6872   7.880  12.844   3.411
34992SOL    HW1 6873   7.918  12.931   3.425
34992SOL    HW2 6874   7.881  12.832   3.316
34993SOL     OW 6875   4.386  13.013  10.069
34993SOL    HW1 6876   4.338  12.932  10.086
34993SOL    HW2 6877   4.334  13.059  10.004
34994SOL     OW 6878  13.123   3.414   4.049
34994SOL    HW1 6879  13.161   3.369   4.125
34994SOL    HW2 6880  13.055   3.470   4.087
34995SOL     OW 6881   1.195   5.195  11.177
34995SOL    HW1 6882   1.263   5.233  11.232
34995SOL    HW2 6883   1.162   5.121  11.228
34996SOL     OW 6884   5.835   1.405  11.009
34996SOL    HW1 6885   5.916   1.396  11.059
34996SOL    HW2 6886   5.858   1.376  10.921
34997SOL     OW 6887   0.967   1.026   9.342
34997SOL    HW1 6888   1.016   1.025   9.260
34997SOL    HW2 6889   1.019   0.972   9.402
34998SOL     OW 6890   7.971   9.378  11.288
34998SOL    HW1 6891   7.948   9.333  11.207
34998SOL    HW2 6892   8.028   9.316  11.334
34999SOL     OW 6893   5.497   3.862   4.456
34999SOL    HW1 6894   5.467   3.903   4.537
34999SOL    HW2 6895   5.424   3.806   4.430
35000SOL     OW 6896  12.606  10.097  14.612
35000SOL    HW1 6897  12.649  10.176  14.644
35000SOL    HW2 6898  12.669  10.027  14.629
35001SOL     OW 6899  10.742   6.958   7.848
35001SOL    HW1 6900  10.717   6.927   7.761
35001SOL    HW2 6901  10.689   6.906   7.908
35002SOL     OW 6902   6.484   3.936   4.782
35002SOL    HW1 6903   6.441   3.987   4.714
35002SOL    HW2 6904   6.529   4.001   4.836
35003SOL     OW 6905   3.043  12.404   9.845
35003SOL    HW1 6906   3.049  12.496   9.870
35003SOL    HW2 6907   3.134  12.376   9.836
35004SOL     OW 6908   4.319   3.955   4.957
35004SOL    HW1 6909   4.241   3.954   4.903
35004SOL    HW2 6910   4.342   3.862   4.967
35005SOL     OW 6911  12.853  11.669  10.042
35005SOL    HW1 6912  12.822  11.592  10.090
35005SOL    HW2 6913  12.773  11.710  10.009
35006SOL     OW 6914  13.859   7.519   4.772
35006SOL    HW1 6915  13.940   7.558   4.802
35006SOL    HW2 6916  13.863   7.524   4.677
35007SOL     OW 6917  14.674  14.104   7.681
35007SOL    HW1 6918  14.620  14.126   7.604
35007SOL    HW2 6919  14.616  14.118   7.756
35008SOL     OW 6920  12.274  13.906  14.466
35008SOL    HW1 6921  12.320  13.981  14.502
35008SOL    HW2 6922  12.198  13.944  14.422
35009SOL     OW 6923   1.933   9.217   5.861
35009SOL    HW1 6924   1.857   9.195   5.915
35009SOL    HW2 6925   1.987   9.272   5.918
35010SOL     OW 6926   4.192   7.873  11.254
35010SOL    HW1 6927   4.183   7.786  11.215
35010SOL    HW2 6928   4.122   7.925  11.214
35011SOL     OW 6929   3.669   9.354   3.012
35011SOL    HW1 6930   3.645   9.299   3.087
35011SOL    HW2 6931   3.747   9.401   3.041
35012SOL     OW 6932   4.145   1.856   2.383
35012SOL    HW1 6933   4.147   1.761   2.371
35012SOL    HW2 6934   4.073   1.872   2.444
35013SOL     OW 6935   9.673  13.760   6.163
35013SOL    HW1 6936   9.728  13.837   6.182
35013SOL    HW2 6937   9.602  13.765   6.227
35014SOL     OW 6938  11.781   3.982   6.776
35014SOL    HW1 6939  11.816   3.904   6.732
35014SOL    HW2 6940  11.746   4.035   6.704
35015SOL     OW 6941   4.602   5.285  12.481
35015SOL    HW1 6942   4.643   5.213  12.528
35015SOL    HW2 6943   4.517   5.250  12.453
35016SOL     OW 6944   7.866   8.735   0.923
35016SOL    HW1 6945   7.930   8.666   0.905
35016SOL    HW2 6946   7.784   8.703   0.887
35017SOL     OW 6947  14.031  12.087   6.508
35017SOL    HW1 6948  14.002  12.160   6.563
35017SOL    HW2 6949  14.125  12.098   6.500
35018SOL     OW 6950   6.325   0.221  13.995
35018SOL    HW1 6951   6.266   0.209  14.070
35018SOL    HW2 6952   6.341   0.316  13.993
35019SOL     OW 6953   8.769  13.058   9.177
35019SOL    HW1 6954   8.780  12.964   9.160
35019SOL    HW2 6955   8.850  13.098   9.146
35020SOL     OW 6956  13.896   1.706   1.951
35020SOL    HW1 6957  13.905   1.765   1.877
35020SOL    HW2 6958  13.815   1.658   1.933
35021SOL     OW 6959  13.503  12.591   4.302
35021SOL    HW1 6960  13.442  12.517   4.304
35021SOL    HW2 6961  13.488  12.632   4.217
35022SOL     OW 6962   7.553   7.138  13.477
35022SOL    HW1 6963   7.529   7.186  13.556
35022SOL    HW2 6964   7.478   7.081  13.459
35023SOL     OW 6965   7.766   7.111  10.711
35023SOL    HW1 6966   7.858   7.100  10.734
35023SOL    HW2 6967   7.718   7.066  10.780
35024SOL     OW 6968  10.121   1.129   2.802
35024SOL    HW1 6969  10.036   1.153   2.837
35024SOL    HW2 6970  10.131   1.184   2.723
35025SOL     OW 6971   3.401   7.067   4.942
35025SOL    HW1 6972   3.311   7.099   4.950
35025SOL    HW2 6973   3.445   7.134   4.890
35026SOL     OW 6974  12.174   3.656  10.793
35026SOL    HW1 6975  12.129   3.680  10.875
35026SOL    HW2 6976  12.121   3.696  10.724
35027SOL     OW 6977   8.751   4.502   3.773
35027SOL    HW1 6978   8.735   4.495   3.678
35027SOL    HW2 6979   8.780   4.592   3.785
35028SOL     OW 6980   1.396   3.553  12.933
35028SOL    HW1 6981   1.367   3.494  13.003
35028SOL    HW2 6982   1.489   3.534  12.923
35029SOL     OW 6983  11.699  12.559   7.392
35029SOL    HW1 6984  11.660  12.474   7.414
35029SOL    HW2 6985  11.729  12.550   7.302
35030SOL     OW 6986   1.062   5.953  10.224
35030SOL    HW1 6987   1.016   5.890  10.168
35030SOL    HW2 6988   1.006   5.963  10.301
35031SOL     OW 6989  13.894  10.902   6.416
35031SOL    HW1 6990  13.952  10.850   6.471
35031SOL    HW2 6991  13.945  10.919   6.337
35032SOL     OW 6992   9.680   8.793   8.378
35032SOL    HW1 6993   9.769   8.796   8.343
35032SOL    HW2 6994   9.639   8.718   8.335
35033SOL     OW 6995   5.702   0.672  10.270
35033SOL    HW1 6996   5.735   0.600  10.325
35033SOL    HW2 6997   5.620   0.698  10.312
35034SOL     OW 6998   5.204  10.049   2.730
35034SOL    HW1 6999   5.124  10.068   2.779
35034SOL    HW2 7000   5.173  10.008   2.649
35035SOL     OW 7001   7.814   9.833  11.410
35035SOL    HW1 7002   7.804   9.884  11.490
35035SOL    HW2 7003   7.786   9.892  11.340
35036SOL     OW 7004   7.146   9.569   1.642
35036SOL    HW1 7005   7.104   9.486   1.666
35036SOL    HW2 7006   7.239   9.548   1.632
35037SOL     OW 7007  10.600   8.329   5.460
35037SOL    HW1 7008  10.677   8.272   5.465
35037SOL    HW2 7009  10.526   8.268   5.453
35038SOL     OW 7010   6.883   2.071   1.044
35038SOL    HW1 7011   6.808   2.130   1.043
35038SOL    HW2 7012   6.942   2.105   0.978
35039SOL     OW 7013  12.433   6.774   3.983
35039SOL    HW1 7014  12.461   6.763   3.892
35039SOL    HW2 7015  12.513   6.765   4.034
35040SOL     OW 7016  12.002  14.784   6.823
35040SOL    HW1 7017  12.074  14.834   6.785
35040SOL    HW2 7018  11.937  14.780   6.753
35041SOL     OW 7019   0.207  12.919   8.770
35041SOL    HW1 7020   0.299  12.912   8.746
35041SOL    HW2 7021   0.163  12.852   8.719
35042SOL     OW 7022   3.207  11.839  14.502
35042SOL    HW1 7023   3.229  11.758  14.456
35042SOL    HW2 7024   3.241  11.826  14.591
35043SOL     OW 7025   2.455   9.595  13.438
35043SOL    HW1 7026   2.388   9.547  13.389
35043SOL    HW2 7027   2.453   9.556  13.526
35044SOL     OW 7028  13.844  14.262   7.962
35044SOL    HW1 7029  13.860  14.237   8.053
35044SOL    HW2 7030  13.874  14.353   7.956
35045SOL     OW 7031   9.766   7.815   6.162
35045SOL    HW1 7032   9.763   7.726   6.126
35045SOL    HW2 7033   9.717   7.867   6.099
35046SOL     OW 7034   7.008   5.839   2.959
35046SOL    HW1 7035   6.942   5.868   3.022
35046SOL    HW2 7036   6.984   5.749   2.939
35047SOL     OW 7037   7.467  12.170   1.227
35047SOL    HW1 7038   7.445  12.109   1.156
35047SOL    HW2 7039   7.509  12.244   1.183
35048SOL     OW 7040   1.983  13.716   0.083
35048SOL    HW1 7041   1.919  13.699   0.013
35048SOL    HW2 7042   2.012  13.806   0.067
35049SOL     OW 7043   5.066   2.997  10.089
35049SOL    HW1 7044   5.016   2.961  10.162
35049SOL    HW2 7045   5.079   2.924  10.029
35050SOL     OW 7046   0.406   1.784   7.313
35050SOL    HW1 7047   0.418   1.783   7.217
35050SOL    HW2 7048   0.491   1.815   7.346
35051SOL     OW 7049  11.438  14.321   3.481
35051SOL    HW1 7050  11.361  14.371   3.508
35051SOL    HW2 7051  11.505  14.343   3.546
35052SOL     OW 7052   3.795   9.802  14.792
35052SOL    HW1 7053   3.871   9.832  14.843
35052SOL    HW2 7054   3.728   9.785  14.858
35053SOL     OW 7055   3.466   8.518   0.038
35053SOL    HW1 7056   3.406   8.468   0.093
35053SOL    HW2 7057   3.468   8.606   0.077
35054SOL     OW 7058  10.881   7.672   5.226
35054SOL    HW1 7059  10.970   7.655   5.193
35054SOL    HW2 7060  10.871   7.767   5.220
35055SOL     OW 7061  11.522   8.141   3.928
35055SOL    HW1 7062  11.598   8.130   3.986
35055SOL    HW2 7063  11.480   8.221   3.959
35056SOL     OW 7064   1.597   3.485  13.701
35056SOL    HW1 7065   1.597   3.523  13.789
35056SOL    HW2 7066   1.622   3.557  13.644
35057SOL     OW 7067  10.588   2.497  14.638
35057SOL    HW1 7068  10.533   2.543  14.702
35057SOL    HW2 7069  10.550   2.409  14.633
35058SOL     OW 7070  13.679  12.801  10.335
35058SOL    HW1 7071  13.701  12.713  10.366
35058SOL    HW2 7072  13.733  12.859  10.388
35059SOL     OW 7073   8.714   7.075   3.465
35059SOL    HW1 7074   8.793   7.105   3.511
35059SOL    HW2 7075   8.653   7.050   3.534
35060SOL     OW 7076  12.216   2.629  13.993
35060SOL    HW1 7077  12.220   2.711  13.944
35060SOL    HW2 7078  12.131   2.591  13.969
35061SOL     OW 7079  12.098  14.793  10.915
35061SOL    HW1 7080  12.016  14.817  10.958
35061SOL    HW2 7081  12.159  14.862  10.940
35062SOL     OW 7082   4.845  11.718   3.702
35062SOL    HW1 7083   4.936  11.696   3.681
35062SOL    HW2 7084   4.845  11.735   3.796
35063SOL     OW 7085  14.838  14.437   5.575
35063SOL    HW1 7086  14.834  14.498   5.501
35063SOL    HW2 7087  14.752  14.394   5.575
35064SOL     OW 7088   7.887   2.296   1.315
35064SOL    HW1 7089   7.895   2.390   1.330
35064SOL    HW2 7090   7.899   2.285   1.221
35065SOL     OW 7091   1.499   2.645  13.245
35065SOL    HW1 7092   1.411   2.684  13.247
35065SOL    HW2 7093   1.489   2.567  13.191
35066SOL     OW 7094   7.868  10.645   1.171
35066SOL    HW1 7095   7.865  10.730   1.129
35066SOL    HW2 7096   7.943  10.650   1.230
35067SOL     OW 7097   9.917   1.090   9.517
35067SOL    HW1 7098   9.966   1.151   9.462
35067SOL    HW2 7099   9.853   1.145   9.562
35068SOL     OW 7100   1.052   4.287   0.805
35068SOL    HW1 7101   1.037   4.381   0.796
35068SOL    HW2 7102   1.031   4.268   0.896
35069SOL     OW 7103  12.817   7.349   2.989
35069SOL    HW1 7104  12.758   7.345   3.064
35069SOL    HW2 7105  12.848   7.439   2.987
35070SOL     OW 7106   1.098   0.763  12.654
35070SOL    HW1 7107   1.143   0.723  12.729
35070SOL    HW2 7108   1.052   0.690  12.613
35071SOL     OW 7109   9.413   0.678   0.462
35071SOL    HW1 7110   9.489   0.621   0.453
35071SOL    HW2 7111   9.352   0.649   0.395
35072SOL     OW 7112   7.622   6.348  14.284
35072SOL    HW1 7113   7.530   6.346  14.259
35072SOL    HW2 7114   7.639   6.440  14.308
35073SOL     OW 7115  13.312  10.099   7.636
35073SOL    HW1 7116  13.220  10.104   7.610
35073SOL    HW2 7117  13.326  10.176   7.691
35074SOL     OW 7118  13.650   3.733   0.478
35074SOL    HW1 7119  13.712   3.800   0.508
35074SOL    HW2 7120  13.703   3.653   0.475
35075SOL     OW 7121   3.981   2.076   5.182
35075SOL    HW1 7122   3.999   2.000   5.238
35075SOL    HW2 7123   3.966   2.148   5.243
35076SOL     OW 7124  10.220   2.430   9.544
35076SOL    HW1 7125  10.213   2.524   9.562
35076SOL    HW2 7126  10.160   2.414   9.471
35077SOL     OW 7127   8.186  13.144   9.091
35077SOL    HW1 7128   8.258  13.191   9.132
35077SOL    HW2 7129   8.108  13.172   9.140
35078SOL     OW 7130   6.142   6.418  13.009
35078SOL    HW1 7131   6.079   6.351  13.037
35078SOL    HW2 7132   6.190   6.441  13.089
35079SOL     OW 7133   7.433   3.674   6.274
35079SOL    HW1 7134   7.516   3.636   6.243
35079SOL    HW2 7135   7.371   3.601   6.272
35080SOL     OW 7136  12.468   2.914   4.316
35080SOL    HW1 7137  12.535   2.846   4.309
35080SOL    HW2 7138  12.386   2.871   4.290
35081SOL     OW 7139  14.116  10.627  11.557
35081SOL    HW1 7140  14.157  10.658  11.476
35081SOL    HW2 7141  14.033  10.589  11.529
35082SOL     OW 7142   5.446   1.658   8.923
35082SOL    HW1 7143   5.482   1.658   9.012
35082SOL    HW2 7144   5.370   1.715   8.929
35083SOL     OW 7145   9.012  14.692   8.708
35083SOL    HW1 7146   8.932  14.713   8.756
35083SOL    HW2 7147   9.042  14.776   8.673
35084SOL     OW 7148  13.149  13.081   4.363
35084SOL    HW1 7149  13.111  12.998   4.334
35084SOL    HW2 7150  13.123  13.144   4.296
35085SOL     OW 7151   4.026   3.052   6.439
35085SOL    HW1 7152   3.961   3.007   6.386
35085SOL    HW2 7153   4.110   3.030   6.399
35086SOL     OW 7154  12.375   2.118   8.464
35086SOL    HW1 7155  12.342   2.203   8.493
35086SOL    HW2 7156  12.355   2.115   8.370
35087SOL     OW 7157   1.044  12.067  14.686
35087SOL    HW1 7158   1.064  12.139  14.747
35087SOL    HW2 7159   1.040  11.989  14.742
35088SOL     OW 7160   4.251   1.410   5.799
35088SOL    HW1 7161   4.218   1.496   5.774
35088SOL    HW2 7162   4.309   1.385   5.726
35089SOL     OW 7163   3.165   1.801  13.614
35089SOL    HW1 7164   3.244   1.855  13.619
35089SOL    HW2 7165   3.096   1.855  13.650
35090SOL     OW 7166   5.479  12.996  10.368
35090SOL    HW1 7167   5.389  12.964  10.380
35090SOL    HW2 7168   5.484  13.016  10.274
35091SOL     OW 7169  12.083   1.053   9.858
35091SOL    HW1 7170  12.091   1.149   9.859
35091SOL    HW2 7171  12.157   1.023   9.911
35092SOL     OW 7172   2.251   8.611   1.086
35092SOL    HW1 7173   2.160   8.620   1.114
35092SOL    HW2 7174   2.284   8.701   1.084
35093SOL     OW 7175   2.976   2.807   0.242
35093SOL    HW1 7176   2.886   2.817   0.213
35093SOL    HW2 7177   2.996   2.714   0.227
35094SOL     OW 7178   7.912   8.684  11.823
35094SOL    HW1 7179   7.856   8.740  11.877
35094SOL    HW2 7180   7.968   8.638  11.886
35095SOL     OW 7181   0.521   4.871   4.098
35095SOL    HW1 7182   0.450   4.808   4.083
35095SOL    HW2 7183   0.562   4.882   4.012
35096SOL     OW 7184   0.746  14.510   6.219
35096SOL    HW1 7185   0.729  14.599   6.189
35096SOL    HW2 7186   0.768  14.462   6.140
35097SOL     OW 7187   3.386   2.928   5.894
35097SOL    HW1 7188   3.465   2.911   5.944
35097SOL    HW2 7189   3.406   3.007   5.843
35098SOL     OW 7190   1.666   2.857   2.744
35098SOL    HW1 7191   1.715   2.936   2.721
35098SOL    HW2 7192   1.719   2.785   2.710
35099SOL     OW 7193   6.992   1.672   3.631
35099SOL    HW1 7194   7.055   1.741   3.609
35099SOL    HW2 7195   6.909   1.704   3.596
35100SOL     OW 7196   9.462   8.394  11.309
35100SOL    HW1 7197   9.389   8.414  11.369
35100SOL    HW2 7198   9.511   8.325  11.354
35101SOL     OW 7199  11.262   5.929  10.996
35101SOL    HW1 7200  11.243   5.940  10.903
35101SOL    HW2 7201  11.329   5.860  10.998
35102SOL     OW 7202   5.466   4.706   1.495
35102SOL    HW1 7203   5.439   4.774   1.557
35102SOL    HW2 7204   5.504   4.754   1.422
35103SOL     OW 7205   9.037  14.493   3.641
35103SOL    HW1 7206   9.012  14.437   3.715
35103SOL    HW2 7207   8.954  14.519   3.601
35104SOL     OW 7208   3.931   7.488   0.069
35104SOL    HW1 7209   3.879   7.408   0.074
35104SOL    HW2 7210   3.891   7.547   0.132
35105SOL     OW 7211   9.390   2.064   7.913
35105SOL    HW1 7212   9.344   1.981   7.909
35105SOL    HW2 7213   9.480   2.043   7.887
35106SOL     OW 7214  11.845   7.331  11.449
35106SOL    HW1 7215  11.874   7.240  11.456
35106SOL    HW2 7216  11.807   7.351  11.534
35107SOL     OW 7217  12.498   0.708  14.034
35107SOL    HW1 7218  12.485   0.647  13.961
35107SOL    HW2 7219  12.489   0.653  14.112
35108SOL     OW 7220   4.700   3.142  12.954
35108SOL    HW1 7221   4.729   3.094  12.877
35108SOL    HW2 7222   4.781   3.172  12.996
35109SOL     OW 7223   0.605   4.217   9.904
35109SOL    HW1 7224   0.636   4.160   9.974
35109SOL    HW2 7225   0.618   4.306   9.938
35110SOL     OW 7226   8.783  13.213  13.392
35110SOL    HW1 7227   8.765  13.139  13.450
35110SOL    HW2 7228   8.697  13.247  13.369
35111SOL     OW 7229  11.944  12.263   6.023
35111SOL    HW1 7230  11.911  12.318   5.951
35111SOL    HW2 7231  11.875  12.269   6.090
35112SOL     OW 7232   3.934   1.967  10.659
35112SOL    HW1 7233   3.889   1.957  10.743
35112SOL    HW2 7234   3.986   1.888  10.649
35113SOL     OW 7235   9.375   9.970   8.846
35113SOL    HW1 7236   9.465   9.996   8.829
35113SOL    HW2 7237   9.382   9.891   8.900
35114SOL     OW 7238   4.705   3.489   6.879
35114SOL    HW1 7239   4.760   3.566   6.889
35114SOL    HW2 7240   4.764   3.415   6.894
35115SOL     OW 7241   5.172   0.801   5.557
35115SOL    HW1 7242   5.256   0.762   5.534
35115SOL    HW2 7243   5.191   0.894   5.571
35116SOL     OW 7244  11.575   5.833   3.709
35116SOL    HW1 7245  11.601   5.911   3.660
35116SOL    HW2 7246  11.533   5.867   3.788
35117SOL     OW 7247   4.315   9.205  11.521
35117SOL    HW1 7248   4.250   9.226  11.454
35117SOL    HW2 7249   4.372   9.282  11.525
35118SOL     OW 7250   5.962   5.581   9.267
35118SOL    HW1 7251   5.931   5.533   9.343
35118SOL    HW2 7252   5.913   5.663   9.268
35119SOL     OW 7253   4.452   9.200   8.640
35119SOL    HW1 7254   4.429   9.236   8.726
35119SOL    HW2 7255   4.410   9.114   8.638
35120SOL     OW 7256   6.560  12.315   6.643
35120SOL    HW1 7257   6.534  12.329   6.552
35120SOL    HW2 7258   6.562  12.219   6.652
35121SOL     OW 7259  12.726   0.361   2.336
35121SOL    HW1 7260  12.756   0.390   2.250
35121SOL    HW2 7261  12.633   0.345   2.325
35122SOL     OW 7262   3.036   1.391  13.459
35122SOL    HW1 7263   3.065   1.471  13.416
35122SOL    HW2 7264   3.013   1.419  13.548
35123SOL     OW 7265   1.535   5.199   2.318
35123SOL    HW1 7266   1.586   5.118   2.328
35123SOL    HW2 7267   1.456   5.172   2.271
35124SOL     OW 7268   1.893   3.428  10.003
35124SOL    HW1 7269   1.824   3.415  10.068
35124SOL    HW2 7270   1.923   3.340   9.981
35125SOL     OW 7271  11.424   5.281   7.861
35125SOL    HW1 7272  11.437   5.200   7.910
35125SOL    HW2 7273  11.512   5.308   7.836
35126SOL     OW 7274   8.850   9.015   5.538
35126SOL    HW1 7275   8.844   8.997   5.632
35126SOL    HW2 7276   8.923   9.075   5.529
35127SOL     OW 7277   6.594  11.461   0.072
35127SOL    HW1 7278   6.505  11.468   0.039
35127SOL    HW2 7279   6.615  11.548   0.106
35128SOL     OW 7280   2.928  10.798  12.874
35128SOL    HW1 7281   2.835  10.812  12.892
35128SOL    HW2 7282   2.973  10.860  12.932
35129SOL     OW 7283   9.302   0.861   2.521
35129SOL    HW1 7284   9.373   0.816   2.474
35129SOL    HW2 7285   9.240   0.886   2.453
35130SOL     OW 7286   1.859   6.663   1.408
35130SOL    HW1 7287   1.796   6.644   1.477
35130SOL    HW2 7288   1.936   6.698   1.453
35131SOL     OW 7289   0.873   3.466   6.678
35131SOL    HW1 7290   0.963   3.460   6.646
35131SOL    HW2 7291   0.819   3.430   6.608
35132SOL     OW 7292  12.651   6.154  13.531
35132SOL    HW1 7293  12.600   6.079  13.562
35132SOL    HW2 7294  12.742   6.131  13.553
35133SOL     OW 7295   6.018  13.707  12.149
35133SOL    HW1 7296   6.109  13.678  12.142
35133SOL    HW2 7297   5.968  13.627  12.166
35134SOL     OW 7298  13.471  12.059  13.426
35134SOL    HW1 7299  13.531  12.134  13.427
35134SOL    HW2 7300  13.386  12.096  13.403
35135SOL     OW 7301   3.467  11.153  11.456
35135SOL    HW1 7302   3.396  11.211  11.428
35135SOL    HW2 7303   3.545  11.209  11.453
35136SOL     OW 7304   8.575  13.712  10.455
35136SOL    HW1 7305   8.553  13.645  10.391
35136SOL    HW2 7306   8.492  13.754  10.476
35137SOL     OW 7307   1.962   8.521   5.674
35137SOL    HW1 7308   1.923   8.516   5.762
35137SOL    HW2 7309   2.023   8.594   5.679
35138SOL     OW 7310  11.383  13.504   8.760
35138SOL    HW1 7311  11.370  13.599   8.768
35138SOL    HW2 7312  11.317  13.466   8.818
35139SOL     OW 7313   2.758   2.179   0.191
35139SOL    HW1 7314   2.714   2.220   0.116
35139SOL    HW2 7315   2.777   2.252   0.249
35140SOL     OW 7316   3.677   8.780  13.401
35140SOL    HW1 7317   3.715   8.853  13.450
35140SOL    HW2 7318   3.748   8.716  13.395
35141SOL     OW 7319   8.598   3.660  12.503
35141SOL    HW1 7320   8.592   3.565  12.499
35141SOL    HW2 7321   8.588   3.681  12.596
35142SOL     OW 7322  14.180  14.211   5.401
35142SOL    HW1 7323  14.258  14.265   5.384
35142SOL    HW2 7324  14.200  14.165   5.482
35143SOL     OW 7325  13.411   3.105   0.437
35143SOL    HW1 7326  13.420   3.097   0.342
35143SOL    HW2 7327  13.330   3.057   0.457
35144SOL     OW 7328   3.481   6.608  10.040
35144SOL    HW1 7329   3.412   6.551  10.006
35144SOL    HW2 7330   3.504   6.665   9.967
35145SOL     OW 7331   7.966   5.290   6.579
35145SOL    HW1 7332   7.872   5.275   6.585
35145SOL    HW2 7333   8.005   5.202   6.583
35146SOL     OW 7334   0.112  10.994   2.030
35146SOL    HW1 7335   0.151  10.946   2.103
35146SOL    HW2 7336   0.185  11.042   1.990
35147SOL     OW 7337  14.795   2.306  13.773
35147SOL    HW1 7338  14.869   2.335  13.720
35147SOL    HW2 7339  14.718   2.325  13.719
35148SOL     OW 7340   2.043   6.303   8.525
35148SOL    HW1 7341   2.007   6.349   8.449
35148SOL    HW2 7342   1.985   6.328   8.597
35149SOL     OW 7343  12.026   5.182   2.461
35149SOL    HW1 7344  11.958   5.249   2.464
35149SOL    HW2 7345  12.107   5.230   2.443
35150SOL     OW 7346   3.499  11.839  14.154
35150SOL    HW1 7347   3.428  11.803  14.100
35150SOL    HW2 7348   3.574  11.783  14.135
35151SOL     OW 7349  10.165   7.556   6.234
35151SOL    HW1 7350  10.091   7.596   6.279
35151SOL    HW2 7351  10.142   7.558   6.142
35152SOL     OW 7352  14.488   6.030   1.471
35152SOL    HW1 7353  14.489   6.058   1.379
35152SOL    HW2 7354  14.581   6.021   1.494
35153SOL     OW 7355   2.577   4.056  10.093
35153SOL    HW1 7356   2.490   4.092  10.081
35153SOL    HW2 7357   2.581   3.981  10.035
35154SOL     OW 7358   4.398   1.460   5.360
35154SOL    HW1 7359   4.390   1.544   5.406
35154SOL    HW2 7360   4.339   1.468   5.285
35155SOL     OW 7361  12.615   6.548  12.910
35155SOL    HW1 7362  12.534   6.599  12.912
35155SOL    HW2 7363  12.679   6.603  12.956
35156SOL     OW 7364   2.082  12.004   4.735
35156SOL    HW1 7365   2.090  12.099   4.725
35156SOL    HW2 7366   2.090  11.969   4.647
35157SOL     OW 7367  12.075   3.870   0.124
35157SOL    HW1 7368  12.013   3.812   0.169
35157SOL    HW2 7369  12.094   3.826   0.042
35158SOL     OW 7370   1.777   2.253  12.182
35158SOL    HW1 7371   1.752   2.343  12.161
35158SOL    HW2 7372   1.815   2.259  12.270
35159SOL     OW 7373  12.666   9.618   2.081
35159SOL    HW1 7374  12.645   9.628   1.988
35159SOL    HW2 7375  12.762   9.615   2.083
35160SOL     OW 7376  13.063   6.570   9.510
35160SOL    HW1 7377  13.019   6.574   9.595
35160SOL    HW2 7378  13.135   6.507   9.524
35161SOL     OW 7379  14.824   1.354   1.902
35161SOL    HW1 7380  14.762   1.344   1.829
35161SOL    HW2 7381  14.802   1.281   1.961
35162SOL     OW 7382   5.039  14.810   9.125
35162SOL    HW1 7383   4.951  14.841   9.107
35162SOL    HW2 7384   5.070  14.775   9.041
35163SOL     OW 7385   0.518  10.291   4.115
35163SOL    HW1 7386   0.603  10.269   4.078
35163SOL    HW2 7387   0.530  10.377   4.155
35164SOL     OW 7388   9.418   3.795  10.097
35164SOL    HW1 7389   9.449   3.773  10.009
35164SOL    HW2 7390   9.492   3.774  10.154
35165SOL     OW 7391   9.309  12.191   3.199
35165SOL    HW1 7392   9.220  12.158   3.202
35165SOL    HW2 7393   9.329  12.215   3.290
35166SOL     OW 7394   4.088   1.942  12.363
35166SOL    HW1 7395   4.078   1.913  12.273
35166SOL    HW2 7396   4.054   1.870  12.416
35167SOL     OW 7397  12.744   3.773  10.685
35167SOL    HW1 7398  12.786   3.858  10.678
35167SOL    HW2 7399  12.724   3.764  10.778
35168SOL     OW 7400   1.014  14.656   2.591
35168SOL    HW1 7401   1.097  14.647   2.639
35168SOL    HW2 7402   0.949  14.673   2.660
35169SOL     OW 7403   7.220   5.848  14.753
35169SOL    HW1 7404   7.265   5.799  14.684
35169SOL    HW2 7405   7.239   5.939  14.732
35170SOL     OW 7406  14.498   5.930  12.150
35170SOL    HW1 7407  14.409   5.895  12.151
35170SOL    HW2 7408  14.513   5.963  12.239
35171SOL     OW 7409   3.715  10.076  14.358
35171SOL    HW1 7410   3.696  10.031  14.441
35171SOL    HW2 7411   3.810  10.086  14.358
35172SOL     OW 7412  12.478   0.985   2.926
35172SOL    HW1 7413  12.400   0.993   2.981
35172SOL    HW2 7414  12.449   1.013   2.839
35173SOL     OW 7415  11.808   3.856   5.163
35173SOL    HW1 7416  11.870   3.895   5.101
35173SOL    HW2 7417  11.844   3.876   5.249
35174SOL     OW 7418   4.877  11.434   8.387
35174SOL    HW1 7419   4.839  11.357   8.344
35174SOL    HW2 7420   4.915  11.485   8.315
35175SOL     OW 7421  13.240   1.737   7.269
35175SOL    HW1 7422  13.191   1.765   7.346
35175SOL    HW2 7423  13.328   1.718   7.301
35176SOL     OW 7424   9.944   8.355   5.406
35176SOL    HW1 7425   9.851   8.331   5.411
35176SOL    HW2 7426   9.950   8.439   5.453
35177SOL     OW 7427  11.108   3.655   3.609
35177SOL    HW1 7428  11.201   3.655   3.631
35177SOL    HW2 7429  11.077   3.567   3.631
35178SOL     OW 7430   6.979   0.287   3.285
35178SOL    HW1 7431   6.969   0.196   3.314
35178SOL    HW2 7432   6.889   0.321   3.287
35179SOL     OW 7433  11.393   9.314  12.555
35179SOL    HW1 7434  11.361   9.346  12.640
35179SOL    HW2 7435  11.488   9.330  12.558
35180SOL     OW 7436  10.218  14.618   3.446
35180SOL    HW1 7437  10.191  14.583   3.361
35180SOL    HW2 7438  10.197  14.711   3.441
35181SOL     OW 7439  13.520   7.875  10.781
35181SOL    HW1 7440  13.496   7.957  10.738
35181SOL    HW2 7441  13.603   7.894  10.824
35182SOL     OW 7442  12.779  10.226  11.167
35182SOL    HW1 7443  12.752  10.261  11.252
35182SOL    HW2 7444  12.818  10.141  11.187
35183SOL     OW 7445   5.717   2.671   5.233
35183SOL    HW1 7446   5.653   2.611   5.269
35183SOL    HW2 7447   5.670   2.718   5.164
35184SOL     OW 7448   0.580   2.339  14.263
35184SOL    HW1 7449   0.522   2.410  14.238
35184SOL    HW2 7450   0.578   2.339  14.359
35185SOL     OW 7451   6.800  14.411   4.730
35185SOL    HW1 7452   6.878  14.369   4.694
35185SOL    HW2 7453   6.820  14.504   4.728
35186SOL     OW 7454  11.298  10.207   6.047
35186SOL    HW1 7455  11.333  10.145   5.983
35186SOL    HW2 7456  11.376  10.244   6.090
35187SOL     OW 7457   6.084  11.016  12.468
35187SOL    HW1 7458   6.008  11.062  12.503
35187SOL    HW2 7459   6.131  11.082  12.417
35188SOL     OW 7460   4.167  10.601  12.507
35188SOL    HW1 7461   4.130  10.565  12.427
35188SOL    HW2 7462   4.260  10.580  12.502
35189SOL     OW 7463  13.907   5.375   5.456
35189SOL    HW1 7464  13.846   5.422   5.512
35189SOL    HW2 7465  13.939   5.442   5.394
35190SOL     OW 7466  14.166   7.989   9.334
35190SOL    HW1 7467  14.085   7.938   9.327
35190SOL    HW2 7468  14.137   8.080   9.340
35191SOL     OW 7469   7.210   8.430   8.819
35191SOL    HW1 7470   7.286   8.372   8.826
35191SOL    HW2 7471   7.147   8.381   8.767
35192SOL     OW 7472  10.339   7.516   1.111
35192SOL    HW1 7473  10.257   7.563   1.097
35192SOL    HW2 7474  10.404   7.567   1.064
35193SOL     OW 7475   5.826   5.332  13.202
35193SOL    HW1 7476   5.854   5.420  13.228
35193SOL    HW2 7477   5.761   5.347  13.134
35194SOL     OW 7478   0.176  13.891   8.663
35194SOL    HW1 7479   0.266  13.920   8.679
35194SOL    HW2 7480   0.186  13.812   8.610
35195SOL     OW 7481   2.018  10.637   1.637
35195SOL    HW1 7482   1.995  10.544   1.630
35195SOL    HW2 7483   1.942  10.683   1.601
35196SOL     OW 7484   0.111  12.336   4.775
35196SOL    HW1 7485   0.136  12.333   4.683
35196SOL    HW2 7486   0.129  12.247   4.807
35197SOL     OW 7487  11.337  12.864   1.496
35197SOL    HW1 7488  11.398  12.801   1.535
35197SOL    HW2 7489  11.392  12.917   1.439
35198SOL     OW 7490  14.612  13.658  11.560
35198SOL    HW1 7491  14.589  13.614  11.479
35198SOL    HW2 7492  14.528  13.684  11.598
35199SOL     OW 7493   3.341   5.944   4.882
35199SOL    HW1 7494   3.385   5.905   4.806
35199SOL    HW2 7495   3.392   6.022   4.902
35200SOL     OW 7496   8.607  13.948   1.745
35200SOL    HW1 7497   8.540  13.947   1.676
35200SOL    HW2 7498   8.570  14.005   1.812
35201SOL     OW 7499  10.707  10.137   9.158
35201SOL    HW1 7500  10.701  10.230   9.140
35201SOL    HW2 7501  10.673  10.127   9.247
35202SOL     OW 7502   6.049  12.332  13.750
35202SOL    HW1 7503   5.959  12.308  13.732
35202SOL    HW2 7504   6.096  12.314  13.668
35203SOL     OW 7505   6.234  14.573   4.480
35203SOL    HW1 7506   6.141  14.567   4.459
35203SOL    HW2 7507   6.240  14.541   4.570
35204SOL     OW 7508  11.252   9.146   1.438
35204SOL    HW1 7509  11.233   9.075   1.376
35204SOL    HW2 7510  11.178   9.144   1.500
35205SOL     OW 7511   9.368   9.530  12.061
35205SOL    HW1 7512   9.362   9.571  12.147
35205SOL    HW2 7513   9.281   9.493  12.046
35206SOL     OW 7514   0.804   3.662   0.694
35206SOL    HW1 7515   0.843   3.749   0.705
35206SOL    HW2 7516   0.717   3.680   0.658
35207SOL     OW 7517   8.327   0.633   2.593
35207SOL    HW1 7518   8.291   0.650   2.680
35207SOL    HW2 7519   8.367   0.717   2.568
35208SOL     OW 7520  11.691   4.979   0.722
35208SOL    HW1 7521  11.615   5.031   0.694
35208SOL    HW2 7522  11.744   4.969   0.643
35209SOL     OW 7523  14.715  14.247   9.898
35209SOL    HW1 7524  14.622  14.252   9.878
35209SOL    HW2 7525  14.725  14.297   9.979
35210SOL     OW 7526  13.852   5.534   1.642
35210SOL    HW1 7527  13.946   5.530   1.624
35210SOL    HW2 7528  13.810   5.492   1.567
35211SOL     OW 7529   3.792   7.937   8.623
35211SOL    HW1 7530   3.766   8.015   8.575
35211SOL    HW2 7531   3.751   7.947   8.709
35212SOL     OW 7532  10.983   7.847   4.436
35212SOL    HW1 7533  10.947   7.858   4.347
35212SOL    HW2 7534  10.906   7.850   4.493
35213SOL     OW 7535   1.372   5.574   2.569
35213SOL    HW1 7536   1.442   5.521   2.607
35213SOL    HW2 7537   1.317   5.598   2.643
35214SOL     OW 7538   5.085   4.327   9.989
35214SOL    HW1 7539   5.109   4.413  10.024
35214SOL    HW2 7540   5.008   4.343   9.935
35215SOL     OW 7541  13.478   5.181  10.909
35215SOL    HW1 7542  13.532   5.253  10.940
35215SOL    HW2 7543  13.401   5.182  10.967
35216SOL     OW 7544   6.206  13.101   3.772
35216SOL    HW1 7545   6.249  13.112   3.857
35216SOL    HW2 7546   6.129  13.158   3.776
35217SOL     OW 7547   2.840   1.308   7.970
35217SOL    HW1 7548   2.868   1.219   7.990
35217SOL    HW2 7549   2.752   1.298   7.933
35218SOL     OW 7550   2.967  12.413  11.202
35218SOL    HW1 7551   2.944  12.453  11.118
35218SOL    HW2 7552   2.884  12.376  11.234
35219SOL     OW 7553   6.945   7.935   6.979
35219SOL    HW1 7554   6.857   7.954   7.013
35219SOL    HW2 7555   7.000   7.926   7.056
35220SOL     OW 7556   9.732  14.057   9.676
35220SOL    HW1 7557   9.656  14.000   9.664
35220SOL    HW2 7558   9.763  14.074   9.587
35221SOL     OW 7559   3.847   1.071   8.207
35221SOL    HW1 7560   3.892   1.152   8.186
35221SOL    HW2 7561   3.755   1.096   8.218
35222SOL     OW 7562   7.749   4.334  14.587
35222SOL    HW1 7563   7.756   4.317  14.493
35222SOL    HW2 7564   7.658   4.360  14.600
35223SOL     OW 7565   6.117  12.947   9.406
35223SOL    HW1 7566   6.067  13.027   9.420
35223SOL    HW2 7567   6.060  12.893   9.351
35224SOL     OW 7568  11.731   7.481   3.166
35224SOL    HW1 7569  11.690   7.567   3.155
35224SOL    HW2 7570  11.752   7.453   3.077
35225SOL     OW 7571   1.505  13.185   4.686
35225SOL    HW1 7572   1.505  13.270   4.641
35225SOL    HW2 7573   1.421  13.182   4.731
35226SOL     OW 7574   4.669  14.460   0.354
35226SOL    HW1 7575   4.703  14.514   0.283
35226SOL    HW2 7576   4.637  14.381   0.311
35227SOL     OW 7577   9.528  10.811   8.065
35227SOL    HW1 7578   9.492  10.788   8.151
35227SOL    HW2 7579   9.457  10.857   8.021
35228SOL     OW 7580   2.669   0.862   0.041
35228SOL    HW1 7581   2.700   0.866   0.132
35228SOL    HW2 7582   2.749   0.850  14.861
35229SOL     OW 7583   4.102   6.069   0.327
35229SOL    HW1 7584   4.097   6.045   0.235
35229SOL    HW2 7585   4.011   6.085   0.352
35230SOL     OW 7586   5.253  10.848   1.888
35230SOL    HW1 7587   5.237  10.918   1.823
35230SOL    HW2 7588   5.312  10.888   1.952
35231SOL     OW 7589   0.723  10.149   3.092
35231SOL    HW1 7590   0.809  10.116   3.117
35231SOL    HW2 7591   0.724  10.148   2.996
35232SOL     OW 7592   5.567  11.950  11.099
35232SOL    HW1 7593   5.603  12.004  11.028
35232SOL    HW2 7594   5.583  11.860  11.070
35233SOL     OW 7595  14.308  14.781  10.956
35233SOL    HW1 7596  14.299  14.724  11.032
35233SOL    HW2 7597  14.266  14.733  10.885
35234SOL     OW 7598   9.834  10.602   4.204
35234SOL    HW1 7599   9.761  10.584   4.264
35234SOL    HW2 7600   9.909  10.613   4.262
35235SOL     OW 7601   4.334   6.112   0.492
35235SOL    HW1 7602   4.398   6.042   0.475
35235SOL    HW2 7603   4.256   6.085   0.443
35236SOL     OW 7604  13.687  12.133   7.064
35236SOL    HW1 7605  13.599  12.097   7.072
35236SOL    HW2 7606  13.693  12.198   7.134
35237SOL     OW 7607   1.476   5.077   7.244
35237SOL    HW1 7608   1.571   5.083   7.253
35237SOL    HW2 7609   1.461   5.067   7.150
35238SOL     OW 7610   8.891   5.479  10.030
35238SOL    HW1 7611   8.883   5.574  10.039
35238SOL    HW2 7612   8.817   5.444  10.080
35239SOL     OW 7613   2.075   8.772   5.722
35239SOL    HW1 7614   2.090   8.866   5.708
35239SOL    HW2 7615   2.088   8.760   5.816
35240SOL     OW 7616  11.219   8.137   2.753
35240SOL    HW1 7617  11.286   8.176   2.696
35240SOL    HW2 7618  11.199   8.053   2.710
35241SOL     OW 7619  14.387   0.859  12.763
35241SOL    HW1 7620  14.371   0.930  12.701
35241SOL    HW2 7621  14.308   0.856  12.817
35242SOL     OW 7622  10.015   5.481  14.670
35242SOL    HW1 7623   9.982   5.481  14.580
35242SOL    HW2 7624  10.065   5.399  14.677
35243SOL     OW 7625  11.384   5.967   3.866
35243SOL    HW1 7626  11.309   5.933   3.818
35243SOL    HW2 7627  11.354   5.975   3.957
35244SOL     OW 7628   7.820  11.620   9.537
35244SOL    HW1 7629   7.747  11.652   9.483
35244SOL    HW2 7630   7.797  11.529   9.558
35245SOL     OW 7631   8.067   3.059   2.358
35245SOL    HW1 7632   8.091   3.094   2.444
35245SOL    HW2 7633   8.083   3.132   2.298
35246SOL     OW 7634   3.138   5.730   0.775
35246SOL    HW1 7635   3.106   5.648   0.739
35246SOL    HW2 7636   3.138   5.791   0.701
35247SOL     OW 7637   2.355  14.324   0.176
35247SOL    HW1 7638   2.447  14.347   0.165
35247SOL    HW2 7639   2.334  14.269   0.101
35248SOL     OW 7640   3.210   0.761   6.686
35248SOL    HW1 7641   3.160   0.778   6.765
35248SOL    HW2 7642   3.259   0.681   6.705
35249SOL     OW 7643   7.150   5.195   6.302
35249SOL    HW1 7644   7.164   5.125   6.365
35249SOL    HW2 7645   7.184   5.161   6.220
35250SOL     OW 7646   8.064   9.905   9.862
35250SOL    HW1 7647   8.090   9.923   9.772
35250SOL    HW2 7648   7.982   9.855   9.854
35251SOL     OW 7649   7.141  11.402   3.931
35251SOL    HW1 7650   7.212  11.375   3.873
35251SOL    HW2 7651   7.154  11.496   3.943
35252SOL     OW 7652   5.377   6.704   1.626
35252SOL    HW1 7653   5.288   6.734   1.646
35252SOL    HW2 7654   5.369   6.609   1.618
35253SOL     OW 7655   9.798   4.296   9.562
35253SOL    HW1 7656   9.844   4.371   9.524
35253SOL    HW2 7657   9.746   4.333   9.633
35254SOL     OW 7658   2.294   0.488  10.442
35254SOL    HW1 7659   2.306   0.421  10.509
35254SOL    HW2 7660   2.282   0.439  10.361
35255SOL     OW 7661   6.054  10.931  11.622
35255SOL    HW1 7662   6.114  10.942  11.548
35255SOL    HW2 7663   5.982  10.880  11.587
35256SOL     OW 7664   6.811   0.808   8.981
35256SOL    HW1 7665   6.782   0.757   9.057
35256SOL    HW2 7666   6.750   0.784   8.911
35257SOL     OW 7667  10.654   8.518   4.001
35257SOL    HW1 7668  10.618   8.429   3.997
35257SOL    HW2 7669  10.608   8.560   4.073
35258SOL     OW 7670  12.673  11.247   0.172
35258SOL    HW1 7671  12.615  11.181   0.211
35258SOL    HW2 7672  12.712  11.291   0.248
35259SOL     OW 7673   9.649   9.173  10.452
35259SOL    HW1 7674   9.600   9.255  10.455
35259SOL    HW2 7675   9.667   9.160  10.359
35260SOL     OW 7676   4.304  11.500   9.788
35260SOL    HW1 7677   4.219  11.457   9.791
35260SOL    HW2 7678   4.306  11.544   9.702
35261SOL     OW 7679   2.416  14.040   2.275
35261SOL    HW1 7680   2.450  13.996   2.353
35261SOL    HW2 7681   2.450  13.989   2.202
35262SOL     OW 7682  14.720   4.899   4.634
35262SOL    HW1 7683  14.663   4.832   4.596
35262SOL    HW2 7684  14.772   4.851   4.699
35263SOL     OW 7685   0.473   8.235   8.178
35263SOL    HW1 7686   0.533   8.203   8.110
35263SOL    HW2 7687   0.481   8.170   8.248
35264SOL     OW 7688   6.976  10.586   5.870
35264SOL    HW1 7689   6.902  10.576   5.810
35264SOL    HW2 7690   7.051  10.555   5.820
35265SOL     OW 7691  10.563   3.594  12.871
35265SOL    HW1 7692  10.617   3.550  12.806
35265SOL    HW2 7693  10.478   3.551  12.865
35266SOL     OW 7694   2.524   2.952   5.672
35266SOL    HW1 7695   2.490   3.033   5.635
35266SOL    HW2 7696   2.583   2.980   5.742
35267SOL     OW 7697   7.703   6.661   9.242
35267SOL    HW1 7698   7.637   6.626   9.182
35267SOL    HW2 7699   7.657   6.730   9.290
35268SOL     OW 7700   4.820   0.272   3.984
35268SOL    HW1 7701   4.791   0.198   3.931
35268SOL    HW2 7702   4.740   0.323   3.999
35269SOL     OW 7703  13.614   5.729   0.123
35269SOL    HW1 7704  13.530   5.707   0.083
35269SOL    HW2 7705  13.617   5.824   0.123
35270SOL     OW 7706  14.115   5.764   0.286
35270SOL    HW1 7707  14.042   5.814   0.250
35270SOL    HW2 7708  14.096   5.757   0.380
35271SOL     OW 7709   3.375  14.749  11.848
35271SOL    HW1 7710   3.375  14.779  11.939
35271SOL    HW2 7711   3.287  14.714  11.835
35272SOL     OW 7712   5.347   7.983   4.718
35272SOL    HW1 7713   5.393   8.014   4.640
35272SOL    HW2 7714   5.303   8.060   4.753
35273SOL     OW 7715   6.651  13.323  11.747
35273SOL    HW1 7716   6.576  13.336  11.806
35273SOL    HW2 7717   6.720  13.287  11.804
35274SOL     OW 7718   4.588   2.843  13.707
35274SOL    HW1 7719   4.576   2.841  13.802
35274SOL    HW2 7720   4.572   2.934  13.682
35275SOL     OW 7721  11.275   8.341  14.854
35275SOL    HW1 7722  11.211   8.270  14.846
35275SOL    HW2 7723  11.232   8.404   0.040
35276SOL     OW 7724   3.443  12.482   3.541
35276SOL    HW1 7725   3.452  12.419   3.613
35276SOL    HW2 7726   3.363  12.454   3.496
35277SOL     OW 7727   3.036  11.398  12.134
35277SOL    HW1 7728   3.124  11.361  12.145
35277SOL    HW2 7729   3.032  11.421  12.041
35278SOL     OW 7730   4.111  13.534   0.636
35278SOL    HW1 7731   4.100  13.607   0.575
35278SOL    HW2 7732   4.042  13.472   0.612
35279SOL     OW 7733  10.697   2.911   5.807
35279SOL    HW1 7734  10.790   2.925   5.825
35279SOL    HW2 7735  10.683   2.948   5.720
35280SOL     OW 7736   1.167  11.337   3.906
35280SOL    HW1 7737   1.241  11.285   3.937
35280SOL    HW2 7738   1.148  11.302   3.820
35281SOL     OW 7739   3.044   2.141   3.071
35281SOL    HW1 7740   2.998   2.214   3.113
35281SOL    HW2 7741   3.060   2.172   2.981
35282SOL     OW 7742   3.473   1.885   5.072
35282SOL    HW1 7743   3.452   1.965   5.024
35282SOL    HW2 7744   3.395   1.829   5.062
35283SOL     OW 7745   1.358  13.867   6.120
35283SOL    HW1 7746   1.396  13.891   6.036
35283SOL    HW2 7747   1.433  13.844   6.174
35284SOL     OW 7748   7.647   8.724   1.534
35284SOL    HW1 7749   7.687   8.699   1.618
35284SOL    HW2 7750   7.589   8.797   1.556
35285SOL     OW 7751  12.780   4.473   1.876
35285SOL    HW1 7752  12.718   4.481   1.949
35285SOL    HW2 7753  12.775   4.381   1.850
35286SOL     OW 7754   2.777  12.873  13.149
35286SOL    HW1 7755   2.834  12.817  13.201
35286SOL    HW2 7756   2.691  12.831  13.155
35287SOL     OW 7757   2.862   6.846   0.573
35287SOL    HW1 7758   2.807   6.858   0.496
35287SOL    HW2 7759   2.800   6.822   0.643
35288SOL     OW 7760   3.850  14.741  10.662
35288SOL    HW1 7761   3.913  14.668  10.664
35288SOL    HW2 7762   3.904  14.819  10.671
35289SOL     OW 7763  11.762   8.227   6.672
35289SOL    HW1 7764  11.749   8.260   6.761
35289SOL    HW2 7765  11.807   8.143   6.684
35290SOL     OW 7766   9.371  14.465  10.660
35290SOL    HW1 7767   9.409  14.501  10.740
35290SOL    HW2 7768   9.375  14.536  10.597
35291SOL     OW 7769   0.150   2.325   3.212
35291SOL    HW1 7770   0.142   2.330   3.308
35291SOL    HW2 7771   0.108   2.242   3.189
35292SOL     OW 7772   5.970  13.501   3.941
35292SOL    HW1 7773   5.997  13.575   3.887
35292SOL    HW2 7774   5.980  13.532   4.031
35293SOL     OW 7775   9.411   7.023  10.556
35293SOL    HW1 7776   9.396   7.012  10.649
35293SOL    HW2 7777   9.496   6.982  10.540
35294SOL     OW 7778   2.179   8.190   8.590
35294SOL    HW1 7779   2.158   8.114   8.537
35294SOL    HW2 7780   2.172   8.160   8.681
35295SOL     OW 7781   7.779   6.107   0.127
35295SOL    HW1 7782   7.706   6.149   0.082
35295SOL    HW2 7783   7.835   6.075   0.056
35296SOL     OW 7784   6.545  13.447   9.201
35296SOL    HW1 7785   6.481  13.444   9.273
35296SOL    HW2 7786   6.583  13.360   9.200
35297SOL     OW 7787   2.653   1.036   1.313
35297SOL    HW1 7788   2.739   1.020   1.352
35297SOL    HW2 7789   2.659   1.125   1.279
35298SOL     OW 7790  11.137   0.490   3.704
35298SOL    HW1 7791  11.157   0.570   3.752
35298SOL    HW2 7792  11.209   0.481   3.641
35299SOL     OW 7793   6.410   9.378   4.696
35299SOL    HW1 7794   6.404   9.329   4.778
35299SOL    HW2 7795   6.358   9.327   4.634
35300SOL     OW 7796   4.472  11.497  12.611
35300SOL    HW1 7797   4.470  11.411  12.568
35300SOL    HW2 7798   4.566  11.518  12.616
35301SOL     OW 7799   2.867   3.771   0.295
35301SOL    HW1 7800   2.863   3.729   0.210
35301SOL    HW2 7801   2.826   3.707   0.355
35302SOL     OW 7802  12.189  12.432  10.352
35302SOL    HW1 7803  12.195  12.443  10.447
35302SOL    HW2 7804  12.179  12.337  10.340
35303SOL     OW 7805   6.351  13.128   0.445
35303SOL    HW1 7806   6.260  13.138   0.473
35303SOL    HW2 7807   6.365  13.033   0.442
35304SOL     OW 7808  13.103  12.675   7.063
35304SOL    HW1 7809  13.169  12.739   7.037
35304SOL    HW2 7810  13.020  12.713   7.033
35305SOL     OW 7811   5.767   5.775  14.242
35305SOL    HW1 7812   5.766   5.739  14.331
35305SOL    HW2 7813   5.767   5.699  14.185
35306SOL     OW 7814   3.131   2.654   1.795
35306SOL    HW1 7815   3.193   2.582   1.786
35306SOL    HW2 7816   3.057   2.616   1.842
35307SOL     OW 7817  11.381   4.543   9.551
35307SOL    HW1 7818  11.309   4.482   9.537
35307SOL    HW2 7819  11.460   4.489   9.544
35308SOL     OW 7820  12.731  12.791  12.252
35308SOL    HW1 7821  12.642  12.825  12.238
35308SOL    HW2 7822  12.718  12.716  12.310
35309SOL     OW 7823   7.194   4.237   4.723
35309SOL    HW1 7824   7.266   4.190   4.766
35309SOL    HW2 7825   7.215   4.330   4.736
35310SOL     OW 7826  11.756   5.241   6.726
35310SOL    HW1 7827  11.715   5.199   6.651
35310SOL    HW2 7828  11.796   5.321   6.689
35311SOL     OW 7829  12.293  10.303  11.004
35311SOL    HW1 7830  12.293  10.207  11.014
35311SOL    HW2 7831  12.385  10.326  10.993
35312SOL     OW 7832   4.004  10.070   7.123
35312SOL    HW1 7833   4.035  10.159   7.106
35312SOL    HW2 7834   4.077  10.014   7.096
35313SOL     OW 7835   9.396  12.709   5.115
35313SOL    HW1 7836   9.410  12.663   5.197
35313SOL    HW2 7837   9.396  12.802   5.139
35314SOL     OW 7838  11.143  11.524   3.682
35314SOL    HW1 7839  11.141  11.529   3.777
35314SOL    HW2 7840  11.090  11.448   3.660
35315SOL     OW 7841  10.973   5.186   8.777
35315SOL    HW1 7842  11.068   5.195   8.772
35315SOL    HW2 7843  10.957   5.092   8.770
35316SOL     OW 7844   0.139   1.053   9.684
35316SOL    HW1 7845   0.202   1.115   9.648
35316SOL    HW2 7846   0.056   1.074   9.640
35317SOL     OW 7847   5.272  13.141   7.045
35317SOL    HW1 7848   5.313  13.085   7.112
35317SOL    HW2 7849   5.195  13.091   7.017
35318SOL     OW 7850   2.539  11.508  12.306
35318SOL    HW1 7851   2.518  11.459  12.227
35318SOL    HW2 7852   2.619  11.467  12.338
35319SOL     OW 7853   0.841  11.788  10.054
35319SOL    HW1 7854   0.860  11.857   9.991
35319SOL    HW2 7855   0.927  11.760  10.086
35320SOL     OW 7856   3.560   4.940   5.910
35320SOL    HW1 7857   3.489   4.938   5.846
35320SOL    HW2 7858   3.521   4.906   5.990
35321SOL     OW 7859  11.321  12.203   1.056
35321SOL    HW1 7860  11.325  12.247   1.141
35321SOL    HW2 7861  11.413  12.198   1.027
35322SOL     OW 7862  14.278  14.868   0.692
35322SOL    HW1 7863  14.235  14.786   0.717
35322SOL    HW2 7864  14.332   0.018   0.767
35323SOL     OW 7865   5.049   8.656   8.309
35323SOL    HW1 7866   5.131   8.618   8.278
35323SOL    HW2 7867   5.071   8.747   8.330
35324SOL     OW 7868  12.290   8.822  12.952
35324SOL    HW1 7869  12.266   8.885  12.885
35324SOL    HW2 7870  12.288   8.872  13.034
35325SOL     OW 7871   2.094   5.928  12.449
35325SOL    HW1 7872   2.153   5.853  12.458
35325SOL    HW2 7873   2.012   5.898  12.488
35326SOL     OW 7874   8.318   3.900   1.674
35326SOL    HW1 7875   8.317   3.936   1.585
35326SOL    HW2 7876   8.230   3.866   1.687
35327SOL     OW 7877   1.516   1.355   0.348
35327SOL    HW1 7878   1.543   1.329   0.436
35327SOL    HW2 7879   1.434   1.307   0.334
35328SOL     OW 7880   9.051   5.871  13.636
35328SOL    HW1 7881   9.013   5.930  13.701
35328SOL    HW2 7882   9.078   5.929  13.565
35329SOL     OW 7883  11.873   3.700  13.213
35329SOL    HW1 7884  11.948   3.730  13.264
35329SOL    HW2 7885  11.910   3.641  13.148
35330SOL     OW 7886  14.134   6.413   0.230
35330SOL    HW1 7887  14.114   6.320   0.222
35330SOL    HW2 7888  14.116   6.449   0.144
35331SOL     OW 7889   7.067   2.011  10.635
35331SOL    HW1 7890   7.067   1.931  10.583
35331SOL    HW2 7891   7.159   2.035  10.642
35332SOL     OW 7892   7.888   8.058   6.557
35332SOL    HW1 7893   7.861   8.054   6.465
35332SOL    HW2 7894   7.888   7.967   6.586
35333SOL     OW 7895  13.748   4.035   7.710
35333SOL    HW1 7896  13.826   3.982   7.725
35333SOL    HW2 7897  13.675   3.977   7.729
35334SOL     OW 7898  12.213   5.988  13.813
35334SOL    HW1 7899  12.223   6.075  13.775
35334SOL    HW2 7900  12.120   5.967  13.801
35335SOL     OW 7901   6.640   5.844   8.986
35335SOL    HW1 7902   6.604   5.907   8.924
35335SOL    HW2 7903   6.632   5.887   9.071
35336SOL     OW 7904   4.335  11.262  13.304
35336SOL    HW1 7905   4.362  11.325  13.238
35336SOL    HW2 7906   4.399  11.270  13.374
35337SOL     OW 7907   6.273   1.396   0.071
35337SOL    HW1 7908   6.241   1.419  14.856
35337SOL    HW2 7909   6.312   1.477   0.103
35338SOL     OW 7910  12.524   7.052   2.396
35338SOL    HW1 7911  12.562   7.103   2.467
35338SOL    HW2 7912  12.598   7.031   2.339
35339SOL     OW 7913   1.586   9.103   5.802
35339SOL    HW1 7914   1.604   9.191   5.768
35339SOL    HW2 7915   1.491   9.101   5.813
35340SOL     OW 7916   8.595   5.200  13.178
35340SOL    HW1 7917   8.579   5.159  13.264
35340SOL    HW2 7918   8.514   5.244  13.156
35341SOL     OW 7919   8.728   2.657   3.724
35341SOL    HW1 7920   8.681   2.738   3.738
35341SOL    HW2 7921   8.773   2.669   3.640
35342SOL     OW 7922   5.595  12.937   3.413
35342SOL    HW1 7923   5.512  12.977   3.437
35342SOL    HW2 7924   5.656  12.967   3.480
35343SOL     OW 7925   4.720   1.313   5.650
35343SOL    HW1 7926   4.626   1.330   5.647
35343SOL    HW2 7927   4.728   1.228   5.693
35344SOL     OW 7928   9.607  14.684  10.146
35344SOL    HW1 7929   9.632  14.740  10.072
35344SOL    HW2 7930   9.581  14.745  10.215
35345SOL     OW 7931  12.696   2.417   7.274
35345SOL    HW1 7932  12.601   2.403   7.266
35345SOL    HW2 7933  12.720   2.371   7.354
35346SOL     OW 7934  12.376  11.900   6.898
35346SOL    HW1 7935  12.380  11.835   6.828
35346SOL    HW2 7936  12.344  11.851   6.974
35347SOL     OW 7937   3.814   0.968  11.847
35347SOL    HW1 7938   3.741   1.025  11.826
35347SOL    HW2 7939   3.774   0.887  11.878
35348SOL     OW 7940   6.073   2.709   3.554
35348SOL    HW1 7941   5.984   2.736   3.533
35348SOL    HW2 7942   6.107   2.778   3.611
35349SOL     OW 7943  13.435   2.714  13.090
35349SOL    HW1 7944  13.471   2.787  13.140
35349SOL    HW2 7945  13.403   2.653  13.156
35350SOL     OW 7946  10.966  14.219   7.658
35350SOL    HW1 7947  10.972  14.279   7.732
35350SOL    HW2 7948  10.872  14.207   7.644
35351SOL     OW 7949   9.924   6.072  13.568
35351SOL    HW1 7950   9.966   6.076  13.482
35351SOL    HW2 7951   9.844   6.124  13.558
35352SOL     OW 7952  13.140  12.235   1.589
35352SOL    HW1 7953  13.207  12.291   1.628
35352SOL    HW2 7954  13.081  12.296   1.545
35353SOL     OW 7955   0.838   8.302  13.382
35353SOL    HW1 7956   0.921   8.258  13.400
35353SOL    HW2 7957   0.777   8.267  13.447
35354SOL     OW 7958  12.304   4.624  10.368
35354SOL    HW1 7959  12.215   4.652  10.391
35354SOL    HW2 7960  12.339   4.695  10.316
35355SOL     OW 7961  10.196  12.542   4.275
35355SOL    HW1 7962  10.280  12.504   4.302
35355SOL    HW2 7963  10.185  12.515   4.184
35356SOL     OW 7964   9.595   6.093  11.494
35356SOL    HW1 7965   9.593   6.039  11.573
35356SOL    HW2 7966   9.645   6.041  11.431
35357SOL     OW 7967   4.595  10.457   3.226
35357SOL    HW1 7968   4.565  10.510   3.300
35357SOL    HW2 7969   4.668  10.507   3.189
35358SOL     OW 7970   6.222   9.359  13.265
35358SOL    HW1 7971   6.156   9.320  13.207
35358SOL    HW2 7972   6.264   9.284  13.307
35359SOL     OW 7973  12.260  10.700  12.810
35359SOL    HW1 7974  12.206  10.639  12.760
35359SOL    HW2 7975  12.199  10.743  12.869
35360SOL     OW 7976   6.057   4.231  13.011
35360SOL    HW1 7977   5.977   4.233  13.064
35360SOL    HW2 7978   6.093   4.144  13.025
35361SOL     OW 7979   7.290   9.804   8.421
35361SOL    HW1 7980   7.324   9.721   8.455
35361SOL    HW2 7981   7.202   9.810   8.458
35362SOL     OW 7982   7.575   8.435   0.182
35362SOL    HW1 7983   7.657   8.388   0.163
35362SOL    HW2 7984   7.508   8.366   0.186
35363SOL     OW 7985   8.325  10.750   1.068
35363SOL    HW1 7986   8.314  10.656   1.083
35363SOL    HW2 7987   8.319  10.761   0.974
35364SOL     OW 7988  14.527   6.309   1.544
35364SOL    HW1 7989  14.484   6.310   1.458
35364SOL    HW2 7990  14.524   6.217   1.571
35365SOL     OW 7991   7.332   9.981   3.181
35365SOL    HW1 7992   7.423   9.993   3.209
35365SOL    HW2 7993   7.297   9.915   3.241
35366SOL     OW 7994  10.801  12.098   7.193
35366SOL    HW1 7995  10.892  12.086   7.219
35366SOL    HW2 7996  10.750  12.066   7.267
35367SOL     OW 7997   5.291   2.851   4.388
35367SOL    HW1 7998   5.361   2.910   4.360
35367SOL    HW2 7999   5.276   2.794   4.312
35368SOL     OW 8000   8.921   3.578   0.028
35368SOL    HW1 8001   8.863   3.650   0.007
35368SOL    HW2 8002   8.910   3.516  14.828
35369SOL     OW 8003   6.787   1.256  13.282
35369SOL    HW1 8004   6.879   1.272  13.299
35369SOL    HW2 8005   6.770   1.170  13.320
35370SOL     OW 8006  10.921   9.041   2.506
35370SOL    HW1 8007  10.974   9.070   2.580
35370SOL    HW2 8008  10.936   8.946   2.502
35371SOL     OW 8009   5.787   0.451  14.407
35371SOL    HW1 8010   5.774   0.490  14.320
35371SOL    HW2 8011   5.701   0.417  14.431
35372SOL     OW 8012   2.848  13.268   4.834
35372SOL    HW1 8013   2.889  13.346   4.797
35372SOL    HW2 8014   2.887  13.259   4.921
35373SOL     OW 8015   3.857  12.642  14.005
35373SOL    HW1 8016   3.770  12.643  13.965
35373SOL    HW2 8017   3.840  12.627  14.098
35374SOL     OW 8018   0.673   1.880   0.997
35374SOL    HW1 8019   0.584   1.876   1.032
35374SOL    HW2 8020   0.719   1.942   1.055
35375SOL     OW 8021   6.364   8.836   3.040
35375SOL    HW1 8022   6.271   8.819   3.058
35375SOL    HW2 8023   6.400   8.861   3.125
35376SOL     OW 8024   8.762  13.803   5.003
35376SOL    HW1 8025   8.828  13.802   5.072
35376SOL    HW2 8026   8.811  13.822   4.923
35377SOL     OW 8027   9.217   7.245   7.666
35377SOL    HW1 8028   9.128   7.211   7.665
35377SOL    HW2 8029   9.226   7.285   7.753
35378SOL     OW 8030   2.604  10.474  14.580
35378SOL    HW1 8031   2.522  10.512  14.612
35378SOL    HW2 8032   2.589  10.459  14.486
35379SOL     OW 8033   1.726   8.233   7.022
35379SOL    HW1 8034   1.742   8.283   6.943
35379SOL    HW2 8035   1.737   8.296   7.093
35380SOL     OW 8036  12.121   5.310  14.200
35380SOL    HW1 8037  12.142   5.279  14.288
35380SOL    HW2 8038  12.162   5.396  14.194
35381SOL     OW 8039   6.861   4.735   0.782
35381SOL    HW1 8040   6.952   4.730   0.752
35381SOL    HW2 8041   6.836   4.826   0.769
35382SOL     OW 8042   8.129   7.765   9.851
35382SOL    HW1 8043   8.038   7.791   9.839
35382SOL    HW2 8044   8.176   7.812   9.783
35383SOL     OW 8045  12.438   1.645   3.606
35383SOL    HW1 8046  12.351   1.607   3.598
35383SOL    HW2 8047  12.445   1.670   3.698
35384SOL     OW 8048   5.310   0.815   8.940
35384SOL    HW1 8049   5.249   0.767   8.997
35384SOL    HW2 8050   5.303   0.771   8.855
35385SOL     OW 8051   8.699   8.997  14.654
35385SOL    HW1 8052   8.728   8.996  14.562
35385SOL    HW2 8053   8.606   8.979  14.650
35386SOL     OW 8054   1.299  10.132   0.663
35386SOL    HW1 8055   1.230  10.118   0.598
35386SOL    HW2 8056   1.380  10.109   0.617
35387SOL     OW 8057  11.277   7.089   5.757
35387SOL    HW1 8058  11.188   7.094   5.722
35387SOL    HW2 8059  11.269   7.036   5.836
35388SOL     OW 8060   1.759   7.960   6.966
35388SOL    HW1 8061   1.756   8.055   6.961
35388SOL    HW2 8062   1.668   7.934   6.983
35389SOL     OW 8063  12.141   9.136  14.826
35389SOL    HW1 8064  12.061   9.103  14.866
35389SOL    HW2 8065  12.119   9.225  14.798
35390SOL     OW 8066  12.194   6.322  11.138
35390SOL    HW1 8067  12.281   6.361  11.149
35390SOL    HW2 8068  12.212   6.228  11.128
35391SOL     OW 8069   1.723   0.500   3.265
35391SOL    HW1 8070   1.659   0.537   3.204
35391SOL    HW2 8071   1.715   0.553   3.344
35392SOL     OW 8072  11.369   7.057  14.439
35392SOL    HW1 8073  11.337   6.967  14.443
35392SOL    HW2 8074  11.354   7.084  14.348
35393SOL     OW 8075  12.528   7.305  14.855
35393SOL    HW1 8076  12.620   7.320  14.833
35393SOL    HW2 8077  12.521   7.211  14.868
35394SOL     OW 8078   5.312   6.835   0.743
35394SOL    HW1 8079   5.336   6.913   0.693
35394SOL    HW2 8080   5.283   6.868   0.828
35395SOL     OW 8081   7.418   7.629  12.791
35395SOL    HW1 8082   7.324   7.647  12.785
35395SOL    HW2 8083   7.434   7.616  12.885
35396SOL     OW 8084   8.882   7.275   5.116
35396SOL    HW1 8085   8.942   7.335   5.159
35396SOL    HW2 8086   8.840   7.227   5.187
35397SOL     OW 8087  13.594   0.810  14.089
35397SOL    HW1 8088  13.539   0.846  14.159
35397SOL    HW2 8089  13.557   0.847  14.009
35398SOL     OW 8090   1.770   9.235   9.156
35398SOL    HW1 8091   1.688   9.271   9.121
35398SOL    HW2 8092   1.829   9.231   9.081
35399SOL     OW 8093   5.901   7.274   6.446
35399SOL    HW1 8094   5.967   7.205   6.452
35399SOL    HW2 8095   5.949   7.355   6.459
35400SOL     OW 8096  11.205   3.426   0.201
35400SOL    HW1 8097  11.290   3.386   0.182
35400SOL    HW2 8098  11.204   3.437   0.296
35401SOL     OW 8099   0.089   6.466   3.683
35401SOL    HW1 8100   0.145   6.393   3.655
35401SOL    HW2 8101   0.149   6.540   3.692
35402SOL     OW 8102   2.561  13.442   6.451
35402SOL    HW1 8103   2.564  13.393   6.368
35402SOL    HW2 8104   2.480  13.493   6.446
35403SOL     OW 8105   9.185   0.900   0.224
35403SOL    HW1 8106   9.228   0.921   0.307
35403SOL    HW2 8107   9.126   0.974   0.209
35404SOL     OW 8108   0.319   8.938  13.704
35404SOL    HW1 8109   0.324   8.886  13.623
35404SOL    HW2 8110   0.301   9.027  13.674
35405SOL     OW 8111   5.604   3.325   3.973
35405SOL    HW1 8112   5.545   3.398   3.953
35405SOL    HW2 8113   5.690   3.365   3.980
35406SOL     OW 8114   3.626  11.696  10.783
35406SOL    HW1 8115   3.609  11.603  10.771
35406SOL    HW2 8116   3.561  11.740  10.728
35407SOL     OW 8117  14.538   4.501   0.688
35407SOL    HW1 8118  14.526   4.557   0.612
35407SOL    HW2 8119  14.615   4.536   0.733
35408SOL     OW 8120   6.048   1.109   3.202
35408SOL    HW1 8121   6.015   1.199   3.200
35408SOL    HW2 8122   6.010   1.067   3.125
35409SOL     OW 8123   4.271   4.145   1.355
35409SOL    HW1 8124   4.313   4.118   1.273
35409SOL    HW2 8125   4.242   4.235   1.338
35410SOL     OW 8126   8.805   1.834  10.048
35410SOL    HW1 8127   8.719   1.877  10.054
35410SOL    HW2 8128   8.847   1.876   9.974
35411SOL     OW 8129   9.060   6.289   3.222
35411SOL    HW1 8130   8.988   6.246   3.175
35411SOL    HW2 8131   9.080   6.228   3.294
35412SOL     OW 8132   4.718  12.768  13.659
35412SOL    HW1 8133   4.689  12.677  13.660
35412SOL    HW2 8134   4.669  12.810  13.729
35413SOL     OW 8135  12.847  12.184  13.012
35413SOL    HW1 8136  12.775  12.202  13.072
35413SOL    HW2 8137  12.866  12.091  13.024
35414SOL     OW 8138  13.339   8.206   8.829
35414SOL    HW1 8139  13.332   8.289   8.783
35414SOL    HW2 8140  13.351   8.141   8.760
35415SOL     OW 8141   7.247  12.843   4.407
35415SOL    HW1 8142   7.264  12.934   4.431
35415SOL    HW2 8143   7.164  12.822   4.449
35416SOL     OW 8144  10.615   8.494   8.303
35416SOL    HW1 8145  10.622   8.582   8.341
35416SOL    HW2 8146  10.553   8.505   8.231
35417SOL     OW 8147   5.206   9.636  13.916
35417SOL    HW1 8148   5.227   9.698  13.986
35417SOL    HW2 8149   5.233   9.551  13.951
35418SOL     OW 8150  14.466   7.949   2.992
35418SOL    HW1 8151  14.550   7.974   2.953
35418SOL    HW2 8152  14.488   7.889   3.062
35419SOL     OW 8153   3.515   7.540   7.579
35419SOL    HW1 8154   3.429   7.524   7.619
35419SOL    HW2 8155   3.559   7.599   7.639
35420SOL     OW 8156   1.247  14.328   1.359
35420SOL    HW1 8157   1.262  14.394   1.291
35420SOL    HW2 8158   1.335  14.309   1.393
35421SOL     OW 8159  10.279   9.468  12.405
35421SOL    HW1 8160  10.291   9.429  12.319
35421SOL    HW2 8161  10.236   9.552  12.388
35422SOL     OW 8162   8.667   8.127  12.585
35422SOL    HW1 8163   8.729   8.057  12.602
35422SOL    HW2 8164   8.585   8.082  12.564
35423SOL     OW 8165  10.078   4.880   6.948
35423SOL    HW1 8166  10.032   4.818   6.891
35423SOL    HW2 8167  10.032   4.875   7.032
35424SOL     OW 8168  11.575   9.957  14.690
35424SOL    HW1 8169  11.543   9.999  14.770
35424SOL    HW2 8170  11.663   9.993  14.678
35425SOL     OW 8171   3.150  10.486   6.328
35425SOL    HW1 8172   3.129  10.426   6.257
35425SOL    HW2 8173   3.065  10.510   6.366
35426SOL     OW 8174  10.716   4.972   7.861
35426SOL    HW1 8175  10.696   5.065   7.875
35426SOL    HW2 8176  10.803   4.972   7.820
35427SOL     OW 8177   7.727   4.697  10.213
35427SOL    HW1 8178   7.687   4.618  10.177
35427SOL    HW2 8179   7.665   4.767  10.193
35428SOL     OW 8180  13.554   2.482  13.001
35428SOL    HW1 8181  13.505   2.557  13.035
35428SOL    HW2 8182  13.621   2.466  13.067
35429SOL     OW 8183   7.281   6.802   9.257
35429SOL    HW1 8184   7.267   6.718   9.300
35429SOL    HW2 8185   7.213   6.805   9.189
35430SOL     OW 8186   8.236   9.328   3.210
35430SOL    HW1 8187   8.253   9.271   3.285
35430SOL    HW2 8188   8.227   9.416   3.247
35431SOL     OW 8189  11.479   7.501   2.435
35431SOL    HW1 8190  11.508   7.455   2.514
35431SOL    HW2 8191  11.554   7.495   2.375
35432SOL     OW 8192  14.391  11.743   9.487
35432SOL    HW1 8193  14.409  11.721   9.579
35432SOL    HW2 8194  14.472  11.722   9.441
35433SOL     OW 8195   6.012  10.574   7.679
35433SOL    HW1 8196   6.099  10.553   7.644
35433SOL    HW2 8197   5.983  10.493   7.722
35434SOL     OW 8198   9.131  12.735   1.282
35434SOL    HW1 8199   9.198  12.683   1.237
35434SOL    HW2 8200   9.128  12.818   1.235
35435SOL     OW 8201   4.271   0.671  13.060
35435SOL    HW1 8202   4.321   0.601  13.103
35435SOL    HW2 8203   4.335   0.741  13.046
35436SOL     OW 8204  12.876  10.286   4.810
35436SOL    HW1 8205  12.900  10.374   4.783
35436SOL    HW2 8206  12.959  10.239   4.817
35437SOL     OW 8207  11.728  11.434   6.153
35437SOL    HW1 8208  11.634  11.421   6.163
35437SOL    HW2 8209  11.767  11.384   6.224
35438SOL     OW 8210  11.727   5.750   2.186
35438SOL    HW1 8211  11.782   5.697   2.244
35438SOL    HW2 8212  11.641   5.748   2.227
35439SOL     OW 8213   2.519  12.609  13.165
35439SOL    HW1 8214   2.546  12.687  13.117
35439SOL    HW2 8215   2.598  12.582  13.212
35440SOL     OW 8216   0.901   7.497   7.657
35440SOL    HW1 8217   0.957   7.544   7.719
35440SOL    HW2 8218   0.960   7.470   7.587
35441SOL     OW 8219   3.162   6.451  13.376
35441SOL    HW1 8220   3.233   6.409  13.327
35441SOL    HW2 8221   3.083   6.408  13.344
35442SOL     OW 8222   9.195  10.486   0.890
35442SOL    HW1 8223   9.262  10.483   0.958
35442SOL    HW2 8224   9.143  10.408   0.904
35443SOL     OW 8225  11.529   2.226   5.142
35443SOL    HW1 8226  11.448   2.214   5.093
35443SOL    HW2 8227  11.538   2.146   5.193
35444SOL     OW 8228   9.099   0.960   5.236
35444SOL    HW1 8229   9.194   0.959   5.247
35444SOL    HW2 8230   9.076   0.868   5.223
35445SOL     OW 8231   8.438   3.688   0.687
35445SOL    HW1 8232   8.440   3.609   0.633
35445SOL    HW2 8233   8.349   3.690   0.723
35446SOL     OW 8234  11.062  11.750  12.396
35446SOL    HW1 8235  10.971  11.745  12.369
35446SOL    HW2 8236  11.112  11.736  12.315
35447SOL     OW 8237   8.572  11.834   5.694
35447SOL    HW1 8238   8.559  11.831   5.599
35447SOL    HW2 8239   8.483  11.835   5.730
35448SOL     OW 8240   3.098   0.650   1.147
35448SOL    HW1 8241   3.004   0.635   1.155
35448SOL    HW2 8242   3.106   0.724   1.087
35449SOL     OW 8243   6.397   1.473   1.965
35449SOL    HW1 8244   6.321   1.415   1.969
35449SOL    HW2 8245   6.440   1.450   1.883
35450SOL     OW 8246   9.134   6.582   4.190
35450SOL    HW1 8247   9.077   6.613   4.261
35450SOL    HW2 8248   9.143   6.488   4.206
35451SOL     OW 8249  14.740   5.905   9.752
35451SOL    HW1 8250  14.808   5.843   9.725
35451SOL    HW2 8251  14.662   5.851   9.766
35452SOL     OW 8252   2.046  11.924   2.557
35452SOL    HW1 8253   2.119  11.942   2.498
35452SOL    HW2 8254   2.052  11.830   2.575
35453SOL     OW 8255   5.914  11.796  12.392
35453SOL    HW1 8256   5.962  11.850  12.330
35453SOL    HW2 8257   5.971  11.790  12.469
35454SOL     OW 8258   1.333   7.999   2.717
35454SOL    HW1 8259   1.424   7.970   2.710
35454SOL    HW2 8260   1.334   8.062   2.789
35455SOL     OW 8261  12.143  12.305   8.269
35455SOL    HW1 8262  12.209  12.342   8.327
35455SOL    HW2 8263  12.134  12.214   8.296
35456SOL     OW 8264   1.388   5.882   5.833
35456SOL    HW1 8265   1.442   5.808   5.860
35456SOL    HW2 8266   1.339   5.906   5.912
35457SOL     OW 8267  11.975   7.324  13.818
35457SOL    HW1 8268  12.027   7.349  13.742
35457SOL    HW2 8269  11.884   7.325  13.787
35458SOL     OW 8270   5.825   6.648   5.697
35458SOL    HW1 8271   5.816   6.682   5.608
35458SOL    HW2 8272   5.831   6.553   5.686
35459SOL     OW 8273  13.886   9.941  13.300
35459SOL    HW1 8274  13.937   9.930  13.380
35459SOL    HW2 8275  13.838   9.859  13.291
35460SOL     OW 8276   0.735   9.959   7.500
35460SOL    HW1 8277   0.661   9.946   7.440
35460SOL    HW2 8278   0.758  10.051   7.489
35461SOL     OW 8279   8.752   4.199   0.115
35461SOL    HW1 8280   8.697   4.120   0.109
35461SOL    HW2 8281   8.746   4.225   0.207
35462SOL     OW 8282   0.038   2.159   5.862
35462SOL    HW1 8283   0.057   2.083   5.807
35462SOL    HW2 8284   0.050   2.128   5.952
35463SOL     OW 8285  11.617  12.055   5.901
35463SOL    HW1 8286  11.598  12.024   5.990
35463SOL    HW2 8287  11.627  11.975   5.850
35464SOL     OW 8288   7.165   3.876  13.863
35464SOL    HW1 8289   7.093   3.863  13.801
35464SOL    HW2 8290   7.197   3.787  13.880
35465SOL     OW 8291  12.648   4.947  12.027
35465SOL    HW1 8292  12.603   4.920  11.947
35465SOL    HW2 8293  12.586   4.927  12.098
35466SOL     OW 8294   5.387  12.540   9.948
35466SOL    HW1 8295   5.392  12.566   9.856
35466SOL    HW2 8296   5.295  12.515   9.961
35467SOL     OW 8297   2.983   1.960  10.319
35467SOL    HW1 8298   2.975   1.920  10.406
35467SOL    HW2 8299   3.012   1.889  10.262
35468SOL     OW 8300   2.641  12.638  14.686
35468SOL    HW1 8301   2.572  12.578  14.656
35468SOL    HW2 8302   2.697  12.584  14.741
35469SOL     OW 8303  12.281   6.819  10.137
35469SOL    HW1 8304  12.344   6.873  10.090
35469SOL    HW2 8305  12.300   6.730  10.109
35470SOL     OW 8306   7.191  11.968  13.517
35470SOL    HW1 8307   7.194  12.035  13.449
35470SOL    HW2 8308   7.252  11.901  13.487
35471SOL     OW 8309   0.410   9.168   6.065
35471SOL    HW1 8310   0.479   9.162   6.131
35471SOL    HW2 8311   0.352   9.094   6.084
35472SOL     OW 8312  13.430  11.975   6.646
35472SOL    HW1 8313  13.389  11.990   6.732
35472SOL    HW2 8314  13.359  11.987   6.583
35473SOL     OW 8315  10.082   7.655   0.202
35473SOL    HW1 8316  10.107   7.731   0.149
35473SOL    HW2 8317  10.017   7.688   0.263
35474SOL     OW 8318   6.995   7.696   9.755
35474SOL    HW1 8319   7.005   7.604   9.779
35474SOL    HW2 8320   7.024   7.700   9.664
35475SOL     OW 8321   5.563   8.541  13.725
35475SOL    HW1 8322   5.504   8.553  13.651
35475SOL    HW2 8323   5.537   8.609  13.787
35476SOL     OW 8324   9.001   8.819  12.038
35476SOL    HW1 8325   9.063   8.887  12.013
35476SOL    HW2 8326   9.040   8.777  12.114
35477SOL     OW 8327   4.792  12.025   5.638
35477SOL    HW1 8328   4.702  12.016   5.668
35477SOL    HW2 8329   4.818  11.936   5.615
35478SOL     OW 8330   6.640  14.499   4.996
35478SOL    HW1 8331   6.654  14.449   4.916
35478SOL    HW2 8332   6.697  14.576   4.988
35479SOL     OW 8333  12.237   4.011   8.147
35479SOL    HW1 8334  12.291   3.944   8.106
35479SOL    HW2 8335  12.185   4.047   8.075
35480SOL     OW 8336   6.544   9.673  11.110
35480SOL    HW1 8337   6.569   9.742  11.171
35480SOL    HW2 8338   6.458   9.645  11.140
35481SOL     OW 8339   8.015  13.438   0.003
35481SOL    HW1 8340   8.032  13.344  14.869
35481SOL    HW2 8341   8.101  13.477   0.020
35482SOL     OW 8342   9.767  11.943   3.474
35482SOL    HW1 8343   9.748  11.996   3.396
35482SOL    HW2 8344   9.721  11.988   3.545
35483SOL     OW 8345   3.127  13.662   9.065
35483SOL    HW1 8346   3.142  13.714   9.144
35483SOL    HW2 8347   3.034  13.675   9.045
35484SOL     OW 8348  10.501  11.121   2.235
35484SOL    HW1 8349  10.562  11.096   2.305
35484SOL    HW2 8350  10.542  11.087   2.155
35485SOL     OW 8351   0.290  12.765   0.991
35485SOL    HW1 8352   0.371  12.769   1.040
35485SOL    HW2 8353   0.226  12.810   1.047
35486SOL     OW 8354   6.456   6.116   2.886
35486SOL    HW1 8355   6.521   6.073   2.830
35486SOL    HW2 8356   6.509   6.163   2.951
35487SOL     OW 8357  14.809  14.752  12.103
35487SOL    HW1 8358  14.754  14.830  12.114
35487SOL    HW2 8359  14.857  14.768  12.022
35488SOL     OW 8360   3.027   4.203   5.392
35488SOL    HW1 8361   3.055   4.250   5.471
35488SOL    HW2 8362   3.006   4.272   5.329
35489SOL     OW 8363   9.667   0.975   6.465
35489SOL    HW1 8364   9.633   0.942   6.381
35489SOL    HW2 8365   9.737   1.035   6.440
35490SOL     OW 8366  13.562   8.466   0.899
35490SOL    HW1 8367  13.631   8.477   0.833
35490SOL    HW2 8368  13.497   8.411   0.857
35491SOL     OW 8369  10.824   5.140   5.779
35491SOL    HW1 8370  10.896   5.201   5.765
35491SOL    HW2 8371  10.865   5.062   5.817
35492SOL     OW 8372   5.534   5.478   9.880
35492SOL    HW1 8373   5.577   5.419   9.941
35492SOL    HW2 8374   5.483   5.538   9.935
35493SOL     OW 8375   4.285   3.366   5.774
35493SOL    HW1 8376   4.377   3.339   5.767
35493SOL    HW2 8377   4.236   3.296   5.731
35494SOL     OW 8378   4.889   2.805   7.630
35494SOL    HW1 8379   4.876   2.898   7.610
35494SOL    HW2 8380   4.931   2.770   7.551
35495SOL     OW 8381   2.182   2.902   1.991
35495SOL    HW1 8382   2.089   2.927   1.988
35495SOL    HW2 8383   2.229   2.986   1.987
35496SOL     OW 8384   7.005   5.699   9.463
35496SOL    HW1 8385   7.007   5.663   9.374
35496SOL    HW2 8386   7.051   5.783   9.455
35497SOL     OW 8387   4.094   8.983   3.237
35497SOL    HW1 8388   4.154   8.919   3.200
35497SOL    HW2 8389   4.023   8.990   3.174
35498SOL     OW 8390  13.252   7.008   8.395
35498SOL    HW1 8391  13.163   6.976   8.383
35498SOL    HW2 8392  13.251   7.052   8.480
35499SOL     OW 8393   5.162   0.642  13.007
35499SOL    HW1 8394   5.068   0.626  13.004
35499SOL    HW2 8395   5.201   0.568  12.961
35500SOL     OW 8396   7.393   5.578   9.076
35500SOL    HW1 8397   7.445   5.579   8.995
35500SOL    HW2 8398   7.327   5.645   9.063
35501SOL     OW 8399   4.830   1.416   3.038
35501SOL    HW1 8400   4.853   1.332   2.997
35501SOL    HW2 8401   4.735   1.413   3.048
35502SOL     OW 8402   1.380   8.608   7.835
35502SOL    HW1 8403   1.300   8.610   7.888
35502SOL    HW2 8404   1.414   8.698   7.840
35503SOL     OW 8405  10.051   5.801  11.345
35503SOL    HW1 8406  10.038   5.877  11.288
35503SOL    HW2 8407  10.013   5.728  11.297
35504SOL     OW 8408  11.072   4.875   7.123
35504SOL    HW1 8409  11.124   4.877   7.204
35504SOL    HW2 8410  11.063   4.967   7.099
35505SOL     OW 8411  13.065   3.108   2.315
35505SOL    HW1 8412  13.083   3.194   2.276
35505SOL    HW2 8413  13.124   3.048   2.270
35506SOL     OW 8414  10.464   1.286   1.006
35506SOL    HW1 8415  10.380   1.262   0.966
35506SOL    HW2 8416  10.476   1.221   1.076
35507SOL     OW 8417  13.047  11.033   7.911
35507SOL    HW1 8418  13.124  11.030   7.967
35507SOL    HW2 8419  13.050  10.952   7.860
35508SOL     OW 8420   0.604   2.845   3.733
35508SOL    HW1 8421   0.530   2.880   3.784
35508SOL    HW2 8422   0.632   2.768   3.782
35509SOL     OW 8423   1.994   2.998   4.612
35509SOL    HW1 8424   1.992   3.048   4.531
35509SOL    HW2 8425   1.988   3.065   4.681
35510SOL     OW 8426   7.636  13.163   5.034
35510SOL    HW1 8427   7.547  13.155   5.068
35510SOL    HW2 8428   7.624  13.199   4.945
35511SOL     OW 8429  13.314  13.089   9.823
35511SOL    HW1 8430  13.326  13.025   9.893
35511SOL    HW2 8431  13.363  13.052   9.749
35512SOL     OW 8432   7.592   3.142  10.539
35512SOL    HW1 8433   7.597   3.220  10.483
35512SOL    HW2 8434   7.503   3.109  10.526
35513SOL     OW 8435  14.395  10.450   4.650
35513SOL    HW1 8436  14.375  10.402   4.570
35513SOL    HW2 8437  14.401  10.383   4.718
35514SOL     OW 8438  12.723   5.914   0.581
35514SOL    HW1 8439  12.720   5.828   0.624
35514SOL    HW2 8440  12.687   5.975   0.646
35515SOL     OW 8441   9.841  12.154   4.632
35515SOL    HW1 8442   9.815  12.138   4.542
35515SOL    HW2 8443   9.911  12.219   4.626
35516SOL     OW 8444   2.714   6.030  11.171
35516SOL    HW1 8445   2.706   5.961  11.236
35516SOL    HW2 8446   2.780   6.090  11.206
35517SOL     OW 8447   4.367  13.902   4.256
35517SOL    HW1 8448   4.379  13.849   4.178
35517SOL    HW2 8449   4.438  13.875   4.315
35518SOL     OW 8450  11.696   7.524  13.997
35518SOL    HW1 8451  11.765   7.563  14.051
35518SOL    HW2 8452  11.708   7.563  13.910
35519SOL     OW 8453   7.379  13.632   7.281
35519SOL    HW1 8454   7.377  13.678   7.365
35519SOL    HW2 8455   7.433  13.686   7.224
35520SOL     OW 8456  10.832   2.316   2.536
35520SOL    HW1 8457  10.799   2.398   2.499
35520SOL    HW2 8458  10.761   2.253   2.522
35521SOL     OW 8459  11.743  12.850   7.468
35521SOL    HW1 8460  11.720  12.761   7.440
35521SOL    HW2 8461  11.669  12.904   7.442
35522SOL     OW 8462   3.198  12.812  13.650
35522SOL    HW1 8463   3.237  12.892  13.613
35522SOL    HW2 8464   3.197  12.750  13.577
35523SOL     OW 8465   3.393  12.616   5.740
35523SOL    HW1 8466   3.450  12.681   5.700
35523SOL    HW2 8467   3.348  12.664   5.810
35524SOL     OW 8468   9.140   6.014   1.683
35524SOL    HW1 8469   9.092   5.937   1.712
35524SOL    HW2 8470   9.206   5.979   1.622
35525SOL     OW 8471  14.463   0.961  14.753
35525SOL    HW1 8472  14.483   1.048  14.720
35525SOL    HW2 8473  14.542   0.910  14.737
35526SOL     OW 8474  11.313   2.117   3.005
35526SOL    HW1 8475  11.237   2.167   3.036
35526SOL    HW2 8476  11.280   2.065   2.932
35527SOL     OW 8477  12.608   9.373  10.411
35527SOL    HW1 8478  12.529   9.343  10.367
35527SOL    HW2 8479  12.616   9.465  10.386
35528SOL     OW 8480   9.841   9.059  13.895
35528SOL    HW1 8481   9.862   9.132  13.838
35528SOL    HW2 8482   9.884   8.983  13.855
35529SOL     OW 8483   3.788   8.547   2.948
35529SOL    HW1 8484   3.721   8.602   2.906
35529SOL    HW2 8485   3.841   8.609   2.998
35530SOL     OW 8486  11.022   4.489  12.224
35530SOL    HW1 8487  11.082   4.416  12.206
35530SOL    HW2 8488  11.074   4.568  12.210
35531SOL     OW 8489   4.140  14.726   2.107
35531SOL    HW1 8490   4.183  14.734   2.022
35531SOL    HW2 8491   4.190  14.783   2.165
35532SOL     OW 8492   0.714   2.987  11.224
35532SOL    HW1 8493   0.758   3.072  11.220
35532SOL    HW2 8494   0.749   2.938  11.149
35533SOL     OW 8495   8.234   5.791  12.357
35533SOL    HW1 8496   8.243   5.777  12.451
35533SOL    HW2 8497   8.321   5.817  12.328
35534SOL     OW 8498   6.234  12.013  12.688
35534SOL    HW1 8499   6.322  11.982  12.710
35534SOL    HW2 8500   6.249  12.094  12.639
35535SOL     OW 8501   1.234   1.077   6.466
35535SOL    HW1 8502   1.237   1.009   6.534
35535SOL    HW2 8503   1.312   1.062   6.413
35536SOL     OW 8504  10.698   5.612   6.608
35536SOL    HW1 8505  10.697   5.613   6.704
35536SOL    HW2 8506  10.697   5.519   6.585
35537SOL     OW 8507  13.559   5.654  14.229
35537SOL    HW1 8508  13.570   5.727  14.168
35537SOL    HW2 8509  13.477   5.613  14.203
35538SOL     OW 8510   1.122   2.799  11.006
35538SOL    HW1 8511   1.076   2.880  10.986
35538SOL    HW2 8512   1.100   2.781  11.097
35539SOL     OW 8513   2.231   0.390   8.774
35539SOL    HW1 8514   2.247   0.395   8.680
35539SOL    HW2 8515   2.316   0.368   8.812
35540SOL     OW 8516   7.031   8.558  11.682
35540SOL    HW1 8517   7.025   8.641  11.729
35540SOL    HW2 8518   7.120   8.556  11.647
35541SOL     OW 8519  13.926   7.099   0.363
35541SOL    HW1 8520  13.946   7.167   0.427
35541SOL    HW2 8521  13.896   7.148   0.286
35542SOL     OW 8522   4.068   9.796  13.744
35542SOL    HW1 8523   4.058   9.721  13.686
35542SOL    HW2 8524   4.008   9.861  13.709
35543SOL     OW 8525  11.222   7.430   3.473
35543SOL    HW1 8526  11.238   7.496   3.406
35543SOL    HW2 8527  11.147   7.381   3.441
35544SOL     OW 8528  11.608  14.384  10.690
35544SOL    HW1 8529  11.535  14.431  10.649
35544SOL    HW2 8530  11.634  14.318  10.625
35545SOL     OW 8531   2.541  10.183   8.489
35545SOL    HW1 8532   2.482  10.108   8.489
35545SOL    HW2 8533   2.512  10.237   8.416
35546SOL     OW 8534   1.618   3.108   0.076
35546SOL    HW1 8535   1.602   3.020   0.111
35546SOL    HW2 8536   1.641   3.093  14.857
35547SOL     OW 8537   8.132   9.847   1.858
35547SOL    HW1 8538   8.226   9.848   1.838
35547SOL    HW2 8539   8.090   9.867   1.774
35548SOL     OW 8540   7.106  14.144   6.531
35548SOL    HW1 8541   7.093  14.106   6.618
35548SOL    HW2 8542   7.018  14.160   6.498
35549SOL     OW 8543   1.336  14.782   0.740
35549SOL    HW1 8544   1.413  14.822   0.782
35549SOL    HW2 8545   1.373  14.735   0.665
35550SOL     OW 8546   3.252  14.624   3.055
35550SOL    HW1 8547   3.231  14.625   2.961
35550SOL    HW2 8548   3.204  14.549   3.089
35551SOL     OW 8549  14.765   1.319   9.101
35551SOL    HW1 8550  14.719   1.269   9.169
35551SOL    HW2 8551  14.808   1.252   9.048
35552SOL     OW 8552   9.118   9.296   1.298
35552SOL    HW1 8553   9.189   9.309   1.361
35552SOL    HW2 8554   9.151   9.230   1.237
35553SOL     OW 8555   9.644   7.427   4.079
35553SOL    HW1 8556   9.656   7.356   4.017
35553SOL    HW2 8557   9.644   7.507   4.026
35554SOL     OW 8558   5.161   7.649   9.841
35554SOL    HW1 8559   5.150   7.635   9.747
35554SOL    HW2 8560   5.080   7.692   9.868
35555SOL     OW 8561  13.196   3.289   4.318
35555SOL    HW1 8562  13.115   3.317   4.361
35555SOL    HW2 8563  13.265   3.307   4.381
35556SOL     OW 8564   9.823  13.797   5.387
35556SOL    HW1 8565   9.750  13.743   5.356
35556SOL    HW2 8566   9.837  13.860   5.316
35557SOL     OW 8567  11.041   8.827  13.595
35557SOL    HW1 8568  10.965   8.876  13.623
35557SOL    HW2 8569  11.028   8.815  13.500
35558SOL     OW 8570   9.190  12.502   5.095
35558SOL    HW1 8571   9.207  12.595   5.104
35558SOL    HW2 8572   9.248  12.473   5.024
35559SOL     OW 8573   9.317   1.443   8.975
35559SOL    HW1 8574   9.316   1.418   9.067
35559SOL    HW2 8575   9.257   1.517   8.970
35560SOL     OW 8576  12.626  13.165   7.917
35560SOL    HW1 8577  12.552  13.149   7.976
35560SOL    HW2 8578  12.683  13.225   7.965
35561SOL     OW 8579   2.868   5.051  10.538
35561SOL    HW1 8580   2.806   5.030  10.608
35561SOL    HW2 8581   2.954   5.040  10.578
35562SOL     OW 8582   6.208  12.315   6.681
35562SOL    HW1 8583   6.291  12.294   6.722
35562SOL    HW2 8584   6.196  12.409   6.698
35563SOL     OW 8585  11.345  11.360   1.383
35563SOL    HW1 8586  11.406  11.372   1.310
35563SOL    HW2 8587  11.379  11.418   1.451
35564SOL     OW 8588   2.663  10.820   2.448
35564SOL    HW1 8589   2.577  10.831   2.407
35564SOL    HW2 8590   2.652  10.743   2.505
35565SOL     OW 8591  14.361   1.444   3.200
35565SOL    HW1 8592  14.392   1.382   3.266
35565SOL    HW2 8593  14.319   1.514   3.250
35566SOL     OW 8594  14.110   4.159   4.036
35566SOL    HW1 8595  14.171   4.200   4.096
35566SOL    HW2 8596  14.111   4.066   4.059
35567SOL     OW 8597   4.832  10.113   1.932
35567SOL    HW1 8598   4.776  10.184   1.901
35567SOL    HW2 8599   4.776  10.035   1.930
35568SOL     OW 8600   0.970  11.125  14.194
35568SOL    HW1 8601   0.988  11.206  14.146
35568SOL    HW2 8602   0.915  11.074  14.134
35569SOL     OW 8603  11.976   6.762   2.014
35569SOL    HW1 8604  11.995   6.780   2.106
35569SOL    HW2 8605  11.891   6.717   2.016
35570SOL     OW 8606   4.237  14.444  11.198
35570SOL    HW1 8607   4.253  14.390  11.121
35570SOL    HW2 8608   4.271  14.531  11.174
35571SOL     OW 8609  13.900   4.620  13.780
35571SOL    HW1 8610  13.807   4.597  13.785
35571SOL    HW2 8611  13.901   4.711  13.751
35572SOL     OW 8612  11.309   6.004   1.665
35572SOL    HW1 8613  11.229   6.057   1.663
35572SOL    HW2 8614  11.279   5.915   1.645
35573SOL     OW 8615   5.265   2.709   4.169
35573SOL    HW1 8616   5.171   2.692   4.165
35573SOL    HW2 8617   5.305   2.631   4.131
35574SOL     OW 8618  11.661  11.468  13.372
35574SOL    HW1 8619  11.653  11.517  13.455
35574SOL    HW2 8620  11.623  11.382  13.391
35575SOL     OW 8621   6.052   3.313   0.867
35575SOL    HW1 8622   6.056   3.343   0.776
35575SOL    HW2 8623   6.013   3.226   0.862
35576SOL     OW 8624   9.129   1.579  11.154
35576SOL    HW1 8625   9.088   1.496  11.182
35576SOL    HW2 8626   9.138   1.629  11.235
35577SOL     OW 8627  11.211  13.204  13.938
35577SOL    HW1 8628  11.202  13.284  13.990
35577SOL    HW2 8629  11.212  13.234  13.848
35578SOL     OW 8630  14.838   6.850  12.113
35578SOL    HW1 8631   0.017   6.781  12.071
35578SOL    HW2 8632   0.031   6.903  12.160
35579SOL     OW 8633   2.934   8.122  10.556
35579SOL    HW1 8634   2.898   8.061  10.492
35579SOL    HW2 8635   2.969   8.194  10.503
35580SOL     OW 8636   6.925  11.185   6.848
35580SOL    HW1 8637   6.975  11.262   6.875
35580SOL    HW2 8638   6.865  11.218   6.782
35581SOL     OW 8639  14.532   3.705   4.095
35581SOL    HW1 8640  14.561   3.657   4.173
35581SOL    HW2 8641  14.457   3.655   4.062
35582SOL     OW 8642   5.228   9.845   2.088
35582SOL    HW1 8643   5.250   9.903   2.161
35582SOL    HW2 8644   5.132   9.849   2.083
35583SOL     OW 8645   3.770  10.019   6.977
35583SOL    HW1 8646   3.843  10.012   7.038
35583SOL    HW2 8647   3.808   9.995   6.892
35584SOL     OW 8648   5.157   5.597  14.402
35584SOL    HW1 8649   5.201   5.540  14.339
35584SOL    HW2 8650   5.076   5.624  14.358
35585SOL     OW 8651  13.551   6.920   7.967
35585SOL    HW1 8652  13.481   6.921   8.032
35585SOL    HW2 8653  13.505   6.917   7.883
35586SOL     OW 8654   0.953  11.409   9.269
35586SOL    HW1 8655   0.865  11.373   9.278
35586SOL    HW2 8656   0.985  11.374   9.186
35587SOL     OW 8657  14.065  13.200  13.918
35587SOL    HW1 8658  14.011  13.163  13.987
35587SOL    HW2 8659  14.046  13.147  13.841
35588SOL     OW 8660   6.420   1.901   5.506
35588SOL    HW1 8661   6.390   1.974   5.453
35588SOL    HW2 8662   6.478   1.851   5.449
35589SOL     OW 8663   0.083   3.428   1.962
35589SOL    HW1 8664   0.001   3.428   1.912
35589SOL    HW2 8665   0.061   3.472   2.044
35590SOL     OW 8666  13.133   1.599   9.472
35590SOL    HW1 8667  13.185   1.629   9.546
35590SOL    HW2 8668  13.166   1.650   9.397
35591SOL     OW 8669   7.913  10.943  10.659
35591SOL    HW1 8670   7.945  10.944  10.749
35591SOL    HW2 8671   7.897  10.850  10.640
35592SOL     OW 8672   7.782   6.854  10.490
35592SOL    HW1 8673   7.711   6.917  10.474
35592SOL    HW2 8674   7.855   6.908  10.519
35593SOL     OW 8675   5.741   8.195   5.588
35593SOL    HW1 8676   5.699   8.250   5.655
35593SOL    HW2 8677   5.676   8.190   5.517
35594SOL     OW 8678  14.540   0.790  14.419
35594SOL    HW1 8679  14.453   0.802  14.455
35594SOL    HW2 8680  14.537   0.832  14.333
35595SOL     OW 8681  12.265  14.149   6.197
35595SOL    HW1 8682  12.204  14.080   6.170
35595SOL    HW2 8683  12.236  14.227   6.148
35596SOL     OW 8684   1.557  13.502  11.959
35596SOL    HW1 8685   1.604  13.418  11.962
35596SOL    HW2 8686   1.467  13.477  11.939
35597SOL     OW 8687   1.717   2.228  11.438
35597SOL    HW1 8688   1.738   2.161  11.373
35597SOL    HW2 8689   1.771   2.303  11.413
35598SOL     OW 8690   3.080   6.171  13.298
35598SOL    HW1 8691   2.999   6.129  13.271
35598SOL    HW2 8692   3.111   6.217  13.220
35599SOL     OW 8693   7.297  12.408   5.657
35599SOL    HW1 8694   7.205  12.429   5.676
35599SOL    HW2 8695   7.324  12.351   5.729
35600SOL     OW 8696  10.597   4.640   9.542
35600SOL    HW1 8697  10.604   4.592   9.459
35600SOL    HW2 8698  10.604   4.732   9.517
35601SOL     OW 8699  13.670   8.538   4.290
35601SOL    HW1 8700  13.626   8.453   4.297
35601SOL    HW2 8701  13.714   8.548   4.374
35602SOL     OW 8702   1.235  13.540  11.126
35602SOL    HW1 8703   1.260  13.629  11.152
35602SOL    HW2 8704   1.172  13.553  11.055
35603SOL     OW 8705   2.835   1.288   1.151
35603SOL    HW1 8706   2.849   1.373   1.193
35603SOL    HW2 8707   2.742   1.288   1.127
35604SOL     OW 8708   7.339   2.218   9.145
35604SOL    HW1 8709   7.329   2.221   9.050
35604SOL    HW2 8710   7.251   2.233   9.179
35605SOL     OW 8711   3.389  11.381   1.467
35605SOL    HW1 8712   3.337  11.407   1.390
35605SOL    HW2 8713   3.395  11.286   1.461
35606SOL     OW 8714  12.235   3.176   5.180
35606SOL    HW1 8715  12.301   3.126   5.228
35606SOL    HW2 8716  12.248   3.266   5.208
35607SOL     OW 8717   2.380   5.034  13.138
35607SOL    HW1 8718   2.357   5.085  13.216
35607SOL    HW2 8719   2.295   5.008  13.101
35608SOL     OW 8720   0.471   0.549  11.416
35608SOL    HW1 8721   0.556   0.536  11.458
35608SOL    HW2 8722   0.493   0.575  11.326
35609SOL     OW 8723  10.370  11.623  14.322
35609SOL    HW1 8724  10.442  11.649  14.379
35609SOL    HW2 8725  10.293  11.667  14.358
35610SOL     OW 8726   4.095  13.314   9.795
35610SOL    HW1 8727   4.097  13.395   9.743
35610SOL    HW2 8728   4.073  13.343   9.883
35611SOL     OW 8729   1.048   2.826   5.520
35611SOL    HW1 8730   1.117   2.762   5.503
35611SOL    HW2 8731   0.976   2.775   5.556
35612SOL     OW 8732   2.387   1.335  11.233
35612SOL    HW1 8733   2.366   1.291  11.151
35612SOL    HW2 8734   2.428   1.268  11.287
35613SOL     OW 8735   9.032   3.826  12.603
35613SOL    HW1 8736   9.050   3.732  12.596
35613SOL    HW2 8737   8.959   3.840  12.542
35614SOL     OW 8738   9.909   0.468   5.473
35614SOL    HW1 8739   9.995   0.429   5.488
35614SOL    HW2 8740   9.847   0.400   5.498
35615SOL     OW 8741   7.028   3.394   7.111
35615SOL    HW1 8742   7.052   3.303   7.129
35615SOL    HW2 8743   7.078   3.444   7.176
35616SOL     OW 8744  13.043   2.760   3.668
35616SOL    HW1 8745  13.011   2.791   3.752
35616SOL    HW2 8746  12.975   2.785   3.605
35617SOL     OW 8747  10.993   4.821   1.728
35617SOL    HW1 8748  10.978   4.854   1.816
35617SOL    HW2 8749  10.906   4.819   1.688
35618SOL     OW 8750   2.156   8.817  12.660
35618SOL    HW1 8751   2.091   8.764  12.707
35618SOL    HW2 8752   2.159   8.779  12.572
35619SOL     OW 8753  11.744  12.152   5.052
35619SOL    HW1 8754  11.778  12.216   5.114
35619SOL    HW2 8755  11.737  12.199   4.969
35620SOL     OW 8756   1.131  14.354  10.647
35620SOL    HW1 8757   1.069  14.426  10.657
35620SOL    HW2 8758   1.122  14.326  10.556
35621SOL     OW 8759   8.508   4.723   8.986
35621SOL    HW1 8760   8.555   4.652   9.032
35621SOL    HW2 8761   8.430   4.738   9.040
35622SOL     OW 8762   6.923  12.951   3.489
35622SOL    HW1 8763   7.011  12.953   3.524
35622SOL    HW2 8764   6.919  13.026   3.429
35623SOL     OW 8765  12.513   9.384   4.625
35623SOL    HW1 8766  12.582   9.445   4.599
35623SOL    HW2 8767  12.458   9.376   4.547
35624SOL     OW 8768   0.024   5.337  11.433
35624SOL    HW1 8769   0.027   5.250  11.392
35624SOL    HW2 8770   0.002   5.396  11.362
35625SOL     OW 8771  12.391   0.309  12.036
35625SOL    HW1 8772  12.454   0.260  11.983
35625SOL    HW2 8773  12.412   0.401  12.020
35626SOL     OW 8774  14.192   4.798  12.862
35626SOL    HW1 8775  14.224   4.708  12.864
35626SOL    HW2 8776  14.202   4.825  12.770
35627SOL     OW 8777   4.909   0.991   1.413
35627SOL    HW1 8778   4.819   0.964   1.391
35627SOL    HW2 8779   4.963   0.917   1.386
35628SOL     OW 8780  13.689   5.426   8.942
35628SOL    HW1 8781  13.674   5.500   9.001
35628SOL    HW2 8782  13.644   5.352   8.984
35629SOL     OW 8783   5.370   7.934   7.876
35629SOL    HW1 8784   5.325   7.857   7.841
35629SOL    HW2 8785   5.462   7.922   7.852
35630SOL     OW 8786   2.667   9.689   5.507
35630SOL    HW1 8787   2.606   9.763   5.511
35630SOL    HW2 8788   2.752   9.730   5.493
35631SOL     OW 8789  14.702   8.174  10.909
35631SOL    HW1 8790  14.665   8.177  10.821
35631SOL    HW2 8791  14.630   8.199  10.967
35632SOL     OW 8792   4.128   8.002  10.370
35632SOL    HW1 8793   4.166   8.026  10.454
35632SOL    HW2 8794   4.182   7.928  10.340
35633SOL     OW 8795  13.463   2.749  10.842
35633SOL    HW1 8796  13.461   2.693  10.919
35633SOL    HW2 8797  13.462   2.689  10.768
35634SOL     OW 8798  10.302   2.157   2.464
35634SOL    HW1 8799  10.364   2.219   2.423
35634SOL    HW2 8800  10.251   2.211   2.525
35635SOL     OW 8801   5.094   2.276   8.968
35635SOL    HW1 8802   5.152   2.217   9.014
35635SOL    HW2 8803   5.041   2.219   8.912
35636SOL     OW 8804   3.805   7.131  11.867
35636SOL    HW1 8805   3.720   7.141  11.911
35636SOL    HW2 8806   3.797   7.186  11.789
35637SOL     OW 8807  11.049  10.077   9.888
35637SOL    HW1 8808  11.046   9.984   9.913
35637SOL    HW2 8809  11.065  10.076   9.794
35638SOL     OW 8810  11.009   6.046  13.368
35638SOL    HW1 8811  11.105   6.042  13.371
35638SOL    HW2 8812  10.981   5.983  13.435
35639SOL     OW 8813  13.098  10.083   1.986
35639SOL    HW1 8814  13.173  10.112   2.037
35639SOL    HW2 8815  13.025  10.136   2.018
35640SOL     OW 8816   5.714   8.763  14.096
35640SOL    HW1 8817   5.694   8.847  14.056
35640SOL    HW2 8818   5.639   8.746  14.154
35641SOL     OW 8819  10.196   4.452   1.596
35641SOL    HW1 8820  10.224   4.445   1.687
35641SOL    HW2 8821  10.181   4.545   1.582
35642SOL     OW 8822  11.049   5.964   8.065
35642SOL    HW1 8823  11.100   6.022   8.122
35642SOL    HW2 8824  11.115   5.911   8.020
35643SOL     OW 8825   5.363  14.500  11.463
35643SOL    HW1 8826   5.303  14.426  11.453
35643SOL    HW2 8827   5.307  14.577  11.454
35644SOL     OW 8828   0.376   1.071  11.144
35644SOL    HW1 8829   0.306   1.060  11.208
35644SOL    HW2 8830   0.429   0.992  11.152
35645SOL     OW 8831   5.484   4.658  12.373
35645SOL    HW1 8832   5.499   4.571  12.336
35645SOL    HW2 8833   5.408   4.647  12.429
35646SOL     OW 8834   3.407   9.419   9.026
35646SOL    HW1 8835   3.456   9.444   8.948
35646SOL    HW2 8836   3.393   9.325   9.016
35647SOL     OW 8837  12.006   5.438   2.050
35647SOL    HW1 8838  11.951   5.462   1.976
35647SOL    HW2 8839  12.064   5.513   2.062
35648SOL     OW 8840   1.273   2.975  13.499
35648SOL    HW1 8841   1.269   2.938  13.588
35648SOL    HW2 8842   1.299   3.066  13.513
35649SOL     OW 8843   4.524   3.584  13.617
35649SOL    HW1 8844   4.467   3.574  13.693
35649SOL    HW2 8845   4.491   3.520  13.554
35650SOL     OW 8846   6.630   4.582  10.425
35650SOL    HW1 8847   6.721   4.569  10.449
35650SOL    HW2 8848   6.585   4.599  10.508
35651SOL     OW 8849  14.308   9.065   1.163
35651SOL    HW1 8850  14.262   9.147   1.148
35651SOL    HW2 8851  14.297   9.048   1.257
35652SOL     OW 8852   9.905   9.528   4.128
35652SOL    HW1 8853   9.826   9.513   4.180
35652SOL    HW2 8854   9.920   9.446   4.082
35653SOL     OW 8855   5.913  14.254   7.069
35653SOL    HW1 8856   5.971  14.294   7.134
35653SOL    HW2 8857   5.933  14.160   7.073
35654SOL     OW 8858  10.989   3.756  14.574
35654SOL    HW1 8859  11.040   3.811  14.515
35654SOL    HW2 8860  11.041   3.676  14.583
35655SOL     OW 8861   5.710   7.636   3.000
35655SOL    HW1 8862   5.688   7.712   2.945
35655SOL    HW2 8863   5.657   7.648   3.079
35656SOL     OW 8864  13.720   3.644   4.564
35656SOL    HW1 8865  13.807   3.660   4.528
35656SOL    HW2 8866  13.674   3.727   4.555
35657SOL     OW 8867  14.381  13.647   9.776
35657SOL    HW1 8868  14.466  13.611   9.804
35657SOL    HW2 8869  14.401  13.737   9.752
35658SOL     OW 8870  11.552   9.161   5.875
35658SOL    HW1 8871  11.629   9.174   5.820
35658SOL    HW2 8872  11.527   9.250   5.902
35659SOL     OW 8873   6.187   5.670  12.783
35659SOL    HW1 8874   6.189   5.610  12.709
35659SOL    HW2 8875   6.276   5.704  12.789
35660SOL     OW 8876   3.101   1.631   9.740
35660SOL    HW1 8877   3.019   1.583   9.731
35660SOL    HW2 8878   3.160   1.569   9.782
35661SOL     OW 8879   2.558   3.090   8.425
35661SOL    HW1 8880   2.546   3.184   8.428
35661SOL    HW2 8881   2.626   3.073   8.491
35662SOL     OW 8882   9.584   3.650   5.520
35662SOL    HW1 8883   9.675   3.665   5.547
35662SOL    HW2 8884   9.568   3.716   5.452
35663SOL     OW 8885   8.217   6.020   1.793
35663SOL    HW1 8886   8.224   6.115   1.806
35663SOL    HW2 8887   8.228   6.008   1.699
35664SOL     OW 8888   6.508  13.633   9.838
35664SOL    HW1 8889   6.541  13.686   9.765
35664SOL    HW2 8890   6.542  13.546   9.822
35665SOL     OW 8891   3.334  11.149   5.193
35665SOL    HW1 8892   3.289  11.071   5.163
35665SOL    HW2 8893   3.426  11.123   5.197
35666SOL     OW 8894   1.665   8.446   8.701
35666SOL    HW1 8895   1.612   8.413   8.774
35666SOL    HW2 8896   1.739   8.490   8.743
35667SOL     OW 8897   5.006  10.385  12.538
35667SOL    HW1 8898   5.036  10.350  12.622
35667SOL    HW2 8899   4.960  10.466  12.561
35668SOL     OW 8900  10.335   5.681   1.499
35668SOL    HW1 8901  10.295   5.766   1.484
35668SOL    HW2 8902  10.407   5.698   1.560
35669SOL     OW 8903  12.555   8.915   1.832
35669SOL    HW1 8904  12.641   8.941   1.800
35669SOL    HW2 8905  12.544   8.963   1.914
35670SOL     OW 8906  10.512  14.656  10.163
35670SOL    HW1 8907  10.434  14.603  10.145
35670SOL    HW2 8908  10.529  14.702  10.081
35671SOL     OW 8909   2.511   2.649   7.090
35671SOL    HW1 8910   2.529   2.611   7.004
35671SOL    HW2 8911   2.541   2.740   7.082
35672SOL     OW 8912   3.369  13.940   4.424
35672SOL    HW1 8913   3.350  14.032   4.440
35672SOL    HW2 8914   3.284  13.901   4.403
35673SOL     OW 8915  12.933   5.779   3.879
35673SOL    HW1 8916  12.888   5.697   3.856
35673SOL    HW2 8917  12.866   5.831   3.923
35674SOL     OW 8918   7.620  14.640  11.078
35674SOL    HW1 8919   7.537  14.635  11.031
35674SOL    HW2 8920   7.639  14.550  11.103
35675SOL     OW 8921   4.916   9.659   8.591
35675SOL    HW1 8922   4.867   9.588   8.633
35675SOL    HW2 8923   4.981   9.614   8.537
35676SOL     OW 8924   5.880  12.133  12.098
35676SOL    HW1 8925   5.884  12.146  12.193
35676SOL    HW2 8926   5.876  12.038  12.087
35677SOL     OW 8927   3.625   9.037   8.226
35677SOL    HW1 8928   3.560   9.033   8.156
35677SOL    HW2 8929   3.602   8.964   8.284
35678SOL     OW 8930   7.536   8.802   6.390
35678SOL    HW1 8931   7.469   8.837   6.449
35678SOL    HW2 8932   7.551   8.713   6.422
35679SOL     OW 8933   6.119   8.059   2.218
35679SOL    HW1 8934   6.212   8.074   2.232
35679SOL    HW2 8935   6.104   7.969   2.246
35680SOL     OW 8936   0.193   8.066  10.911
35680SOL    HW1 8937   0.163   8.105  10.829
35680SOL    HW2 8938   0.115   8.064  10.967
35681SOL     OW 8939  14.555  13.241  14.231
35681SOL    HW1 8940  14.621  13.292  14.184
35681SOL    HW2 8941  14.497  13.306  14.271
35682SOL     OW 8942   1.194   3.972  11.668
35682SOL    HW1 8943   1.267   3.932  11.621
35682SOL    HW2 8944   1.200   4.065  11.646
35683SOL     OW 8945  12.269   1.104  12.794
35683SOL    HW1 8946  12.337   1.148  12.845
35683SOL    HW2 8947  12.188   1.151  12.816
35684SOL     OW 8948   4.459   0.963   4.474
35684SOL    HW1 8949   4.467   1.023   4.547
35684SOL    HW2 8950   4.444   0.878   4.514
35685SOL     OW 8951  13.094   7.746   0.559
35685SOL    HW1 8952  13.151   7.766   0.634
35685SOL    HW2 8953  13.031   7.683   0.594
35686SOL     OW 8954   9.335   9.307  10.013
35686SOL    HW1 8955   9.314   9.307   9.920
35686SOL    HW2 8956   9.312   9.219  10.043
35687SOL     OW 8957  13.965   0.692   9.763
35687SOL    HW1 8958  14.048   0.697   9.810
35687SOL    HW2 8959  13.916   0.769   9.791
35688SOL     OW 8960  11.704   0.398   7.082
35688SOL    HW1 8961  11.735   0.341   7.012
35688SOL    HW2 8962  11.619   0.362   7.108
35689SOL     OW 8963   3.277   5.412   1.663
35689SOL    HW1 8964   3.361   5.411   1.617
35689SOL    HW2 8965   3.301   5.414   1.756
35690SOL     OW 8966  10.385   8.948   0.010
35690SOL    HW1 8967  10.347   8.943  14.795
35690SOL    HW2 8968  10.326   8.895   0.065
35691SOL     OW 8969  11.338   2.975   2.518
35691SOL    HW1 8970  11.427   2.941   2.509
35691SOL    HW2 8971  11.289   2.904   2.559
35692SOL     OW 8972  13.446   3.563  14.693
35692SOL    HW1 8973  13.530   3.604  14.713
35692SOL    HW2 8974  13.428   3.589  14.602
35693SOL     OW 8975  13.712   6.115   5.160
35693SOL    HW1 8976  13.731   6.042   5.100
35693SOL    HW2 8977  13.740   6.193   5.113
35694SOL     OW 8978   1.073  14.359  11.464
35694SOL    HW1 8979   1.107  14.435  11.415
35694SOL    HW2 8980   1.055  14.294  11.396
35695SOL     OW 8981   3.322  11.267   2.991
35695SOL    HW1 8982   3.376  11.237   3.064
35695SOL    HW2 8983   3.241  11.297   3.032
35696SOL     OW 8984   9.622   2.881   6.905
35696SOL    HW1 8985   9.649   2.886   6.997
35696SOL    HW2 8986   9.526   2.882   6.909
35697SOL     OW 8987   1.765  10.111   2.620
35697SOL    HW1 8988   1.757  10.164   2.540
35697SOL    HW2 8989   1.677  10.112   2.657
35698SOL     OW 8990  14.581   7.148  12.575
35698SOL    HW1 8991  14.571   7.054  12.565
35698SOL    HW2 8992  14.657   7.171  12.522
35699SOL     OW 8993   7.903   9.935   4.406
35699SOL    HW1 8994   7.924   9.858   4.459
35699SOL    HW2 8995   7.830   9.977   4.453
35700SOL     OW 8996   4.587   9.336   9.119
35700SOL    HW1 8997   4.648   9.327   9.046
35700SOL    HW2 8998   4.614   9.270   9.182
35701SOL     OW 8999  11.374   2.455   7.539
35701SOL    HW1 9000  11.389   2.392   7.469
35701SOL    HW2 9001  11.451   2.512   7.538
35702SOL     OW 9002  14.806   3.786  11.155
35702SOL    HW1 9003  14.770   3.756  11.072
35702SOL    HW2 9004  14.835   3.876  11.138
35703SOL     OW 9005   7.098  12.566  12.521
35703SOL    HW1 9006   7.043  12.623  12.575
35703SOL    HW2 9007   7.037  12.525  12.460
35704SOL     OW 9008  14.202   4.827  13.443
35704SOL    HW1 9009  14.223   4.768  13.516
35704SOL    HW2 9010  14.262   4.901  13.454
35705SOL     OW 9011   0.139  12.768   3.085
35705SOL    HW1 9012   0.155  12.787   3.178
35705SOL    HW2 9013   0.212  12.711   3.060
35706SOL     OW 9014  13.653   1.514   7.413
35706SOL    HW1 9015  13.697   1.446   7.463
35706SOL    HW2 9016  13.660   1.484   7.322
35707SOL     OW 9017  11.177   4.699   6.918
35707SOL    HW1 9018  11.189   4.770   6.981
35707SOL    HW2 9019  11.085   4.674   6.927
35708SOL     OW 9020  14.248   7.005   4.067
35708SOL    HW1 9021  14.319   6.940   4.066
35708SOL    HW2 9022  14.181   6.968   4.009
35709SOL     OW 9023   4.503   7.719   5.485
35709SOL    HW1 9024   4.566   7.695   5.554
35709SOL    HW2 9025   4.535   7.674   5.407
35710SOL     OW 9026   5.845   4.553   1.668
35710SOL    HW1 9027   5.878   4.464   1.663
35710SOL    HW2 9028   5.885   4.598   1.594
35711SOL     OW 9029   8.995   0.431   4.360
35711SOL    HW1 9030   9.035   0.432   4.447
35711SOL    HW2 9031   9.007   0.520   4.327
35712SOL     OW 9032   8.276   9.917   2.740
35712SOL    HW1 9033   8.241   9.918   2.829
35712SOL    HW2 9034   8.367   9.889   2.750
35713SOL     OW 9035   0.974   0.659  11.638
35713SOL    HW1 9036   0.892   0.707  11.648
35713SOL    HW2 9037   1.037   0.724  11.607
35714SOL     OW 9038   8.444   1.736  10.064
35714SOL    HW1 9039   8.483   1.653  10.037
35714SOL    HW2 9040   8.487   1.801  10.009
35715SOL     OW 9041   2.936   9.034   4.136
35715SOL    HW1 9042   3.001   8.964   4.130
35715SOL    HW2 9043   2.988   9.115   4.134
35716SOL     OW 9044  13.182  13.973   5.847
35716SOL    HW1 9045  13.103  13.919   5.852
35716SOL    HW2 9046  13.194  13.990   5.753
35717SOL     OW 9047   6.142  12.194  10.588
35717SOL    HW1 9048   6.164  12.168  10.678
35717SOL    HW2 9049   6.184  12.279  10.576
35718SOL     OW 9050   6.359   8.301  12.893
35718SOL    HW1 9051   6.310   8.265  12.967
35718SOL    HW2 9052   6.425   8.358  12.933
35719SOL     OW 9053  14.264   7.148  11.522
35719SOL    HW1 9054  14.188   7.096  11.549
35719SOL    HW2 9055  14.229   7.235  11.503
35720SOL     OW 9056  10.984   7.379   5.940
35720SOL    HW1 9057  11.005   7.433   5.865
35720SOL    HW2 9058  10.888   7.383   5.947
35721SOL     OW 9059  10.213   7.703   3.610
35721SOL    HW1 9060  10.140   7.642   3.602
35721SOL    HW2 9061  10.231   7.731   3.521
35722SOL     OW 9062  10.491  13.191   8.661
35722SOL    HW1 9063  10.476  13.096   8.653
35722SOL    HW2 9064  10.449  13.215   8.743
35723SOL     OW 9065   4.207   6.447   4.890
35723SOL    HW1 9066   4.253   6.394   4.824
35723SOL    HW2 9067   4.134   6.391   4.917
35724SOL     OW 9068   7.869   2.203   0.590
35724SOL    HW1 9069   7.890   2.276   0.649
35724SOL    HW2 9070   7.927   2.133   0.618
35725SOL     OW 9071   7.809   0.023   6.423
35725SOL    HW1 9072   7.769   0.001   6.339
35725SOL    HW2 9073   7.857  14.816   6.447
35726SOL     OW 9074  12.947   4.923   7.964
35726SOL    HW1 9075  12.948   4.846   7.907
35726SOL    HW2 9076  12.974   4.889   8.050
35727SOL     OW 9077   5.625   5.949   8.433
35727SOL    HW1 9078   5.649   5.866   8.474
35727SOL    HW2 9079   5.607   5.925   8.342
35728SOL     OW 9080   7.147  11.499   6.770
35728SOL    HW1 9081   7.182  11.515   6.683
35728SOL    HW2 9082   7.196  11.424   6.803
35729SOL     OW 9083   8.149   0.201  14.487
35729SOL    HW1 9084   8.161   0.292  14.460
35729SOL    HW2 9085   8.228   0.156  14.457
35730SOL     OW 9086  14.341   5.967  12.614
35730SOL    HW1 9087  14.327   5.873  12.603
35730SOL    HW2 9088  14.253   6.004  12.616
35731SOL     OW 9089   9.361   1.353  11.206
35731SOL    HW1 9090   9.333   1.379  11.118
35731SOL    HW2 9091   9.387   1.261  11.197
35732SOL     OW 9092   0.454   3.349  10.924
35732SOL    HW1 9093   0.489   3.296  10.996
35732SOL    HW2 9094   0.423   3.429  10.966
35733SOL     OW 9095   1.374  14.144   6.526
35733SOL    HW1 9096   1.347  14.057   6.555
35733SOL    HW2 9097   1.445  14.127   6.463
35734SOL     OW 9098  10.639   3.892   3.125
35734SOL    HW1 9099  10.572   3.881   3.058
35734SOL    HW2 9100  10.617   3.827   3.192
35735SOL     OW 9101  11.910   0.112   3.001
35735SOL    HW1 9102  11.847   0.043   2.981
35735SOL    HW2 9103  11.892   0.181   2.938
35736SOL     OW 9104   4.945  11.257   6.763
35736SOL    HW1 9105   4.907  11.259   6.676
35736SOL    HW2 9106   4.887  11.313   6.816
35737SOL     OW 9107   8.072   2.652  11.603
35737SOL    HW1 9108   8.160   2.688  11.610
35737SOL    HW2 9109   8.085   2.560  11.582
35738SOL     OW 9110   8.462   8.141   6.746
35738SOL    HW1 9111   8.411   8.095   6.812
35738SOL    HW2 9112   8.418   8.120   6.663
35739SOL     OW 9113   6.379   1.814  10.779
35739SOL    HW1 9114   6.401   1.892  10.830
35739SOL    HW2 9115   6.372   1.744  10.843
35740SOL     OW 9116   9.860   4.445  10.427
35740SOL    HW1 9117   9.795   4.515  10.425
35740SOL    HW2 9118   9.890   4.443  10.518
35741SOL     OW 9119   7.274  14.479   8.323
35741SOL    HW1 9120   7.294  14.470   8.416
35741SOL    HW2 9121   7.235  14.395   8.297
35742SOL     OW 9122   7.724  11.997  12.394
35742SOL    HW1 9123   7.773  11.916  12.382
35742SOL    HW2 9124   7.674  11.983  12.475
35743SOL     OW 9125   3.541   3.314   0.863
35743SOL    HW1 9126   3.497   3.232   0.839
35743SOL    HW2 9127   3.613   3.286   0.919
35744SOL     OW 9128   0.925   0.929   2.018
35744SOL    HW1 9129   0.881   0.990   1.959
35744SOL    HW2 9130   0.931   0.976   2.101
35745SOL     OW 9131  12.316   0.136   5.582
35745SOL    HW1 9132  12.355   0.130   5.669
35745SOL    HW2 9133  12.308   0.230   5.566
35746SOL     OW 9134  13.597   7.638   5.365
35746SOL    HW1 9135  13.567   7.693   5.293
35746SOL    HW2 9136  13.567   7.682   5.444
35747SOL     OW 9137  14.207   6.739  13.831
35747SOL    HW1 9138  14.211   6.745  13.926
35747SOL    HW2 9139  14.236   6.650  13.811
35748SOL     OW 9140  11.585   6.717   0.491
35748SOL    HW1 9141  11.504   6.727   0.541
35748SOL    HW2 9142  11.634   6.649   0.538
35749SOL     OW 9143   6.183   2.697  10.604
35749SOL    HW1 9144   6.170   2.679  10.511
35749SOL    HW2 9145   6.166   2.790  10.614
35750SOL     OW 9146   5.590  14.752  14.683
35750SOL    HW1 9147   5.555  14.836  14.654
35750SOL    HW2 9148   5.645  14.722  14.611
35751SOL     OW 9149  14.529   6.735  11.478
35751SOL    HW1 9150  14.615   6.744  11.438
35751SOL    HW2 9151  14.510   6.823  11.513
35752SOL     OW 9152  14.465  10.305   0.602
35752SOL    HW1 9153  14.391  10.366   0.595
35752SOL    HW2 9154  14.443  10.234   0.541
35753SOL     OW 9155   5.470  11.486   8.326
35753SOL    HW1 9156   5.527  11.430   8.272
35753SOL    HW2 9157   5.519  11.567   8.336
35754SOL     OW 9158   9.365   1.697   4.557
35754SOL    HW1 9159   9.336   1.701   4.466
35754SOL    HW2 9160   9.293   1.734   4.607
35755SOL     OW 9161  13.414  13.364   3.586
35755SOL    HW1 9162  13.419  13.405   3.499
35755SOL    HW2 9163  13.504  13.366   3.618
35756SOL     OW 9164  13.867   4.286  12.534
35756SOL    HW1 9165  13.906   4.291  12.621
35756SOL    HW2 9166  13.776   4.261  12.550
35757SOL     OW 9167   6.590  10.157  10.526
35757SOL    HW1 9168   6.681  10.166  10.554
35757SOL    HW2 9169   6.569  10.243  10.489
35758SOL     OW 9170   9.684   1.305   6.178
35758SOL    HW1 9171   9.753   1.371   6.177
35758SOL    HW2 9172   9.711   1.244   6.247
35759SOL     OW 9173   0.455  12.921   1.386
35759SOL    HW1 9174   0.386  12.867   1.424
35759SOL    HW2 9175   0.441  13.008   1.423
35760SOL     OW 9176  11.098   8.919   0.823
35760SOL    HW1 9177  11.093   8.889   0.913
35760SOL    HW2 9178  11.176   8.975   0.821
35761SOL     OW 9179  11.410  11.419  12.511
35761SOL    HW1 9180  11.423  11.341  12.564
35761SOL    HW2 9181  11.329  11.458  12.545
35762SOL     OW 9182   7.701   7.957   1.348
35762SOL    HW1 9183   7.687   7.862   1.339
35762SOL    HW2 9184   7.633   7.986   1.408
35763SOL     OW 9185  11.733   7.911  14.764
35763SOL    HW1 9186  11.766   7.992  14.725
35763SOL    HW2 9187  11.797   7.845  14.738
35764SOL     OW 9188   2.040   4.203  10.580
35764SOL    HW1 9189   1.997   4.278  10.539
35764SOL    HW2 9190   2.127   4.200  10.540
35765SOL     OW 9191   2.934   6.196  11.175
35765SOL    HW1 9192   3.008   6.145  11.209
35765SOL    HW2 9193   2.914   6.258  11.245
35766SOL     OW 9194   9.896   6.589   0.525
35766SOL    HW1 9195   9.871   6.527   0.456
35766SOL    HW2 9196   9.828   6.656   0.523
35767SOL     OW 9197   4.278  11.914   1.813
35767SOL    HW1 9198   4.233  11.982   1.764
35767SOL    HW2 9199   4.268  11.939   1.905
35768SOL     OW 9200   3.699   8.037  14.136
35768SOL    HW1 9201   3.682   8.069  14.225
35768SOL    HW2 9202   3.766   7.970  14.147
35769SOL     OW 9203   9.340   0.508   3.818
35769SOL    HW1 9204   9.293   0.590   3.805
35769SOL    HW2 9205   9.288   0.460   3.882
35770SOL     OW 9206   5.130  11.050   8.352
35770SOL    HW1 9207   5.041  11.043   8.388
35770SOL    HW2 9208   5.185  11.071   8.428
35771SOL     OW 9209   9.510  11.441   9.324
35771SOL    HW1 9210   9.508  11.365   9.265
35771SOL    HW2 9211   9.435  11.494   9.297
35772SOL     OW 9212  11.360   9.542   9.093
35772SOL    HW1 9213  11.323   9.547   9.004
35772SOL    HW2 9214  11.304   9.479   9.138
35773SOL     OW 9215  10.516  10.521   5.686
35773SOL    HW1 9216  10.489  10.450   5.745
35773SOL    HW2 9217  10.446  10.526   5.622
35774SOL     OW 9218   7.790   6.111  14.687
35774SOL    HW1 9219   7.744   6.110  14.603
35774SOL    HW2 9220   7.791   6.203  14.712
35775SOL     OW 9221   2.865   1.517  13.644
35775SOL    HW1 9222   2.848   1.447  13.706
35775SOL    HW2 9223   2.785   1.523  13.592
35776SOL     OW 9224   5.655   4.392  11.584
35776SOL    HW1 9225   5.585   4.340  11.624
35776SOL    HW2 9226   5.611   4.445  11.518
35777SOL     OW 9227   9.502   1.263   7.178
35777SOL    HW1 9228   9.546   1.219   7.105
35777SOL    HW2 9229   9.571   1.314   7.220
35778SOL     OW 9230   8.965   0.735   0.399
35778SOL    HW1 9231   8.964   0.734   0.494
35778SOL    HW2 9232   8.960   0.827   0.376
35779SOL     OW 9233   2.099  12.804   4.228
35779SOL    HW1 9234   2.082  12.769   4.140
35779SOL    HW2 9235   2.154  12.738   4.270
35780SOL     OW 9236  11.927   8.153   4.617
35780SOL    HW1 9237  11.950   8.233   4.664
35780SOL    HW2 9238  11.833   8.143   4.630
35781SOL     OW 9239   4.992   1.561  12.496
35781SOL    HW1 9240   5.006   1.655  12.493
35781SOL    HW2 9241   5.031   1.528  12.415
35782SOL     OW 9242  14.282  12.786   6.821
35782SOL    HW1 9243  14.351  12.823   6.766
35782SOL    HW2 9244  14.321  12.779   6.908
35783SOL     OW 9245   7.250  10.694   6.165
35783SOL    HW1 9246   7.177  10.633   6.154
35783SOL    HW2 9247   7.291  10.697   6.079
35784SOL     OW 9248   0.043   2.890   3.007
35784SOL    HW1 9249   0.097   2.969   3.018
35784SOL    HW2 9250   0.087   2.824   3.060
35785SOL     OW 9251  11.609   8.063  11.100
35785SOL    HW1 9252  11.520   8.041  11.072
35785SOL    HW2 9253  11.646   8.112  11.027
35786SOL     OW 9254  10.629  12.531  13.391
35786SOL    HW1 9255  10.580  12.471  13.335
35786SOL    HW2 9256  10.675  12.588  13.329
35787SOL     OW 9257   8.951   5.538  12.659
35787SOL    HW1 9258   8.900   5.511  12.583
35787SOL    HW2 9259   8.891   5.591  12.711
35788SOL     OW 9260  10.373  10.524   9.437
35788SOL    HW1 9261  10.397  10.617   9.430
35788SOL    HW2 9262  10.431  10.490   9.505
35789SOL     OW 9263   6.845   5.852   3.997
35789SOL    HW1 9264   6.851   5.758   3.978
35789SOL    HW2 9265   6.896   5.894   3.927
35790SOL     OW 9266   1.327   3.172  12.190
35790SOL    HW1 9267   1.326   3.262  12.222
35790SOL    HW2 9268   1.405   3.166  12.135
35791SOL     OW 9269   3.323   3.180  11.456
35791SOL    HW1 9270   3.321   3.228  11.539
35791SOL    HW2 9271   3.382   3.107  11.472
35792SOL     OW 9272  13.565   7.060  14.392
35792SOL    HW1 9273  13.595   7.123  14.457
35792SOL    HW2 9274  13.512   6.998  14.442
35793SOL     OW 9275  11.937   8.209   1.116
35793SOL    HW1 9276  11.984   8.128   1.136
35793SOL    HW2 9277  11.920   8.249   1.201
35794SOL     OW 9278   9.563   2.378  14.193
35794SOL    HW1 9279   9.500   2.381  14.265
35794SOL    HW2 9280   9.510   2.370  14.114
35795SOL     OW 9281   3.304  13.263   5.021
35795SOL    HW1 9282   3.252  13.201   5.073
35795SOL    HW2 9283   3.239  13.310   4.969
35796SOL     OW 9284   7.396  12.744   1.005
35796SOL    HW1 9285   7.491  12.738   1.000
35796SOL    HW2 9286   7.379  12.783   1.090
35797SOL     OW 9287   4.747   1.103  11.140
35797SOL    HW1 9288   4.758   1.040  11.069
35797SOL    HW2 9289   4.712   1.181  11.097
35798SOL     OW 9290   3.775   6.311   8.766
35798SOL    HW1 9291   3.733   6.285   8.684
35798SOL    HW2 9292   3.703   6.343   8.821
35799SOL     OW 9293   9.065   4.171  12.022
35799SOL    HW1 9294   9.031   4.146  12.108
35799SOL    HW2 9295   8.989   4.167  11.965
35800SOL     OW 9296   7.258  11.245  11.851
35800SOL    HW1 9297   7.334  11.201  11.812
35800SOL    HW2 9298   7.294  11.324  11.892
35801SOL     OW 9299   9.433   9.747  14.449
35801SOL    HW1 9300   9.522   9.712  14.459
35801SOL    HW2 9301   9.377   9.683  14.494
35802SOL     OW 9302   2.560  11.405  10.334
35802SOL    HW1 9303   2.554  11.342  10.262
35802SOL    HW2 9304   2.490  11.380  10.394
35803SOL     OW 9305   1.549   7.199   5.304
35803SOL    HW1 9306   1.465   7.158   5.326
35803SOL    HW2 9307   1.563   7.176   5.212
35804SOL     OW 9308   2.020   7.396   5.871
35804SOL    HW1 9309   2.105   7.355   5.860
35804SOL    HW2 9310   1.982   7.353   5.948
35805SOL     OW 9311   5.688   2.722  13.345
35805SOL    HW1 9312   5.651   2.793  13.399
35805SOL    HW2 9313   5.612   2.684  13.301
35806SOL     OW 9314  13.895   4.742  10.507
35806SOL    HW1 9315  13.824   4.781  10.558
35806SOL    HW2 9316  13.943   4.816  10.471
35807SOL     OW 9317  13.044   3.255   7.089
35807SOL    HW1 9318  13.083   3.341   7.106
35807SOL    HW2 9319  13.114   3.193   7.110
35808SOL     OW 9320   7.569  12.141  10.780
35808SOL    HW1 9321   7.591  12.198  10.707
35808SOL    HW2 9322   7.567  12.053  10.742
35809SOL     OW 9323  12.101   8.164   9.159
35809SOL    HW1 9324  12.161   8.208   9.219
35809SOL    HW2 9325  12.109   8.071   9.181
35810SOL     OW 9326   0.897   3.915   5.326
35810SOL    HW1 9327   0.934   3.949   5.244
35810SOL    HW2 9328   0.882   3.993   5.379
35811SOL     OW 9329   7.794   2.501   2.409
35811SOL    HW1 9330   7.872   2.450   2.431
35811SOL    HW2 9331   7.793   2.504   2.314
35812SOL     OW 9332   9.226   8.334   8.433
35812SOL    HW1 9333   9.210   8.330   8.339
35812SOL    HW2 9334   9.213   8.244   8.464
35813SOL     OW 9335   6.479   2.932  14.504
35813SOL    HW1 9336   6.535   2.973  14.570
35813SOL    HW2 9337   6.440   3.005  14.456
35814SOL     OW 9338  11.980  13.764  11.656
35814SOL    HW1 9339  11.968  13.855  11.631
35814SOL    HW2 9340  12.011  13.721  11.576
35815SOL     OW 9341   6.518   9.769  14.741
35815SOL    HW1 9342   6.589   9.817  14.784
35815SOL    HW2 9343   6.544   9.677  14.747
35816SOL     OW 9344   2.796  11.706   2.151
35816SOL    HW1 9345   2.758  11.794   2.146
35816SOL    HW2 9346   2.767  11.663   2.070
35817SOL     OW 9347  14.315   5.453   5.114
35817SOL    HW1 9348  14.327   5.513   5.040
35817SOL    HW2 9349  14.350   5.370   5.083
35818SOL     OW 9350  13.428   7.813  10.114
35818SOL    HW1 9351  13.366   7.811  10.041
35818SOL    HW2 9352  13.459   7.903  10.117
35819SOL     OW 9353   5.106   4.911   2.353
35819SOL    HW1 9354   5.022   4.878   2.384
35819SOL    HW2 9355   5.089   4.943   2.265
35820SOL     OW 9356   2.552   9.614   6.540
35820SOL    HW1 9357   2.644   9.636   6.523
35820SOL    HW2 9358   2.546   9.611   6.636
35821SOL     OW 9359   2.944   1.181  14.303
35821SOL    HW1 9360   2.944   1.172  14.398
35821SOL    HW2 9361   3.027   1.224  14.283
35822SOL     OW 9362  10.310   2.222  14.823
35822SOL    HW1 9363  10.251   2.297  14.810
35822SOL    HW2 9364  10.361   2.218  14.742
35823SOL     OW 9365   9.246   9.775  10.557
35823SOL    HW1 9366   9.198   9.851  10.524
35823SOL    HW2 9367   9.336   9.787  10.526
35824SOL     OW 9368   7.258   3.963   6.568
35824SOL    HW1 9369   7.283   4.027   6.502
35824SOL    HW2 9370   7.332   3.903   6.573
35825SOL     OW 9371   4.440   5.471   6.519
35825SOL    HW1 9372   4.520   5.513   6.487
35825SOL    HW2 9373   4.471   5.393   6.565
35826SOL     OW 9374   6.665   3.523   9.915
35826SOL    HW1 9375   6.724   3.549   9.986
35826SOL    HW2 9376   6.591   3.583   9.922
35827SOL     OW 9377   2.718   3.226   5.119
35827SOL    HW1 9378   2.759   3.235   5.033
35827SOL    HW2 9379   2.624   3.237   5.102
35828SOL     OW 9380   0.820   0.382   9.467
35828SOL    HW1 9381   0.818   0.407   9.559
35828SOL    HW2 9382   0.909   0.403   9.438
35829SOL     OW 9383  11.739   0.720   2.908
35829SOL    HW1 9384  11.765   0.733   2.999
35829SOL    HW2 9385  11.822   0.723   2.859
35830SOL     OW 9386   9.348  14.268   9.078
35830SOL    HW1 9387   9.436  14.303   9.063
35830SOL    HW2 9388   9.300  14.290   8.998
35831SOL     OW 9389  14.485   0.250   5.587
35831SOL    HW1 9390  14.561   0.280   5.637
35831SOL    HW2 9391  14.517   0.175   5.537
35832SOL     OW 9392  12.830   9.169   0.758
35832SOL    HW1 9393  12.758   9.232   0.762
35832SOL    HW2 9394  12.800   9.095   0.810
35833SOL     OW 9395   5.101  10.111   7.061
35833SOL    HW1 9396   5.170  10.085   7.000
35833SOL    HW2 9397   5.062  10.190   7.022
35834SOL     OW 9398  14.226   3.819   4.526
35834SOL    HW1 9399  14.321   3.821   4.541
35834SOL    HW2 9400  14.196   3.906   4.551
35835SOL     OW 9401  11.727   1.699   4.877
35835SOL    HW1 9402  11.688   1.762   4.937
35835SOL    HW2 9403  11.803   1.664   4.924
35836SOL     OW 9404  12.231  11.674  10.757
35836SOL    HW1 9405  12.180  11.610  10.807
35836SOL    HW2 9406  12.246  11.632  10.673
35837SOL     OW 9407  13.343   1.161  10.719
35837SOL    HW1 9408  13.429   1.147  10.679
35837SOL    HW2 9409  13.355   1.236  10.777
35838SOL     OW 9410  13.061   0.953   3.038
35838SOL    HW1 9411  13.131   0.925   3.097
35838SOL    HW2 9412  13.101   0.948   2.951
35839SOL     OW 9413   8.655   7.731   2.737
35839SOL    HW1 9414   8.575   7.726   2.790
35839SOL    HW2 9415   8.672   7.825   2.727
35840SOL     OW 9416   3.203  12.667   7.135
35840SOL    HW1 9417   3.290  12.707   7.124
35840SOL    HW2 9418   3.220  12.573   7.131
35841SOL     OW 9419  10.850   4.992  11.378
35841SOL    HW1 9420  10.835   4.924  11.313
35841SOL    HW2 9421  10.826   4.951  11.462
35842SOL     OW 9422   1.448   1.649   8.847
35842SOL    HW1 9423   1.457   1.727   8.902
35842SOL    HW2 9424   1.443   1.576   8.909
35843SOL     OW 9425  13.490   0.213  13.869
35843SOL    HW1 9426  13.536   0.296  13.884
35843SOL    HW2 9427  13.405   0.239  13.833
35844SOL     OW 9428   4.415   9.904   2.534
35844SOL    HW1 9429   4.364   9.976   2.498
35844SOL    HW2 9430   4.365   9.826   2.511
35845SOL     OW 9431  13.844   5.257   0.794
35845SOL    HW1 9432  13.933   5.291   0.782
35845SOL    HW2 9433  13.856   5.174   0.841
35846SOL     OW 9434  13.061   3.597  10.564
35846SOL    HW1 9435  13.110   3.526  10.606
35846SOL    HW2 9436  13.105   3.677  10.593
35847SOL     OW 9437   4.611  13.546   8.104
35847SOL    HW1 9438   4.554  13.592   8.043
35847SOL    HW2 9439   4.609  13.455   8.075
35848SOL     OW 9440   6.602  10.457  10.517
35848SOL    HW1 9441   6.546  10.531  10.493
35848SOL    HW2 9442   6.691  10.487  10.496
35849SOL     OW 9443   8.233   7.732  10.668
35849SOL    HW1 9444   8.213   7.798  10.734
35849SOL    HW2 9445   8.313   7.689  10.701
35850SOL     OW 9446   1.029  14.581   5.837
35850SOL    HW1 9447   1.079  14.568   5.917
35850SOL    HW2 9448   0.986  14.666   5.850
35851SOL     OW 9449  14.752   0.596   6.025
35851SOL    HW1 9450  14.836   0.609   6.068
35851SOL    HW2 9451  14.775   0.581   5.933
35852SOL     OW 9452   9.637   7.576   9.448
35852SOL    HW1 9453   9.589   7.638   9.392
35852SOL    HW2 9454   9.614   7.602   9.538
35853SOL     OW 9455   1.262  12.627   8.399
35853SOL    HW1 9456   1.285  12.672   8.318
35853SOL    HW2 9457   1.166  12.625   8.400
35854SOL     OW 9458   5.143   9.955   7.343
35854SOL    HW1 9459   5.094   9.972   7.263
35854SOL    HW2 9460   5.131   9.862   7.359
35855SOL     OW 9461  14.136   4.041  13.414
35855SOL    HW1 9462  14.118   4.135  13.414
35855SOL    HW2 9463  14.224   4.034  13.377
35856SOL     OW 9464   8.256  10.124   0.551
35856SOL    HW1 9465   8.204  10.129   0.471
35856SOL    HW2 9466   8.229  10.042   0.592
35857SOL     OW 9467  12.163  14.832   8.881
35857SOL    HW1 9468  12.109  14.771   8.832
35857SOL    HW2 9469  12.172  14.792   8.968
35858SOL     OW 9470  11.497  12.285  12.053
35858SOL    HW1 9471  11.532  12.240  12.130
35858SOL    HW2 9472  11.498  12.378  12.077
35859SOL     OW 9473   1.026   5.271  14.253
35859SOL    HW1 9474   0.974   5.315  14.185
35859SOL    HW2 9475   1.027   5.179  14.227
35860SOL     OW 9476  10.398   8.424   2.927
35860SOL    HW1 9477  10.343   8.436   2.850
35860SOL    HW2 9478  10.478   8.383   2.894
35861SOL     OW 9479   9.980   8.888   1.084
35861SOL    HW1 9480   9.957   8.976   1.111
35861SOL    HW2 9481   9.896   8.843   1.072
35862SOL     OW 9482  11.093   4.546   5.865
35862SOL    HW1 9483  11.102   4.451   5.862
35862SOL    HW2 9484  11.144   4.578   5.791
35863SOL     OW 9485   1.923   4.401   9.976
35863SOL    HW1 9486   1.964   4.329  10.023
35863SOL    HW2 9487   1.865   4.360   9.913
35864SOL     OW 9488   1.204   4.531   9.821
35864SOL    HW1 9489   1.136   4.480   9.776
35864SOL    HW2 9490   1.162   4.616   9.839
35865SOL     OW 9491   2.932  12.891  13.545
35865SOL    HW1 9492   3.010  12.846  13.578
35865SOL    HW2 9493   2.921  12.966  13.605
35866SOL     OW 9494   6.676   2.239   1.052
35866SOL    HW1 9495   6.598   2.253   1.105
35866SOL    HW2 9496   6.671   2.307   0.985
35867SOL     OW 9497  14.549   9.708  14.644
35867SOL    HW1 9498  14.631   9.746  14.677
35867SOL    HW2 9499  14.577   9.644  14.578
35868SOL     OW 9500   4.875   4.968   0.564
35868SOL    HW1 9501   4.914   4.886   0.594
35868SOL    HW2 9502   4.805   4.986   0.627
35869SOL     OW 9503   5.393   7.890  13.385
35869SOL    HW1 9504   5.408   7.870  13.478
35869SOL    HW2 9505   5.342   7.816  13.353
35870SOL     OW 9506   9.870   6.617  11.413
35870SOL    HW1 9507   9.820   6.543  11.379
35870SOL    HW2 9508   9.934   6.637  11.345
35871SOL     OW 9509   9.234   6.614   8.468
35871SOL    HW1 9510   9.329   6.602   8.468
35871SOL    HW2 9511   9.210   6.612   8.375
35872SOL     OW 9512   1.524   9.373   3.239
35872SOL    HW1 9513   1.519   9.459   3.198
35872SOL    HW2 9514   1.609   9.371   3.283
35873SOL     OW 9515   0.002  12.635  12.883
35873SOL    HW1 9516  14.851  12.716  12.838
35873SOL    HW2 9517  14.825  12.567  12.836
35874SOL     OW 9518   5.866  11.049   3.195
35874SOL    HW1 9519   5.953  11.086   3.179
35874SOL    HW2 9520   5.830  11.031   3.108
35875SOL     OW 9521   3.416   8.867   6.364
35875SOL    HW1 9522   3.433   8.933   6.432
35875SOL    HW2 9523   3.339   8.819   6.396
35876SOL     OW 9524  11.987   0.166  10.341
35876SOL    HW1 9525  12.011   0.102  10.407
35876SOL    HW2 9526  11.945   0.237  10.390
35877SOL     OW 9527   0.378   9.474   4.008
35877SOL    HW1 9528   0.428   9.408   4.056
35877SOL    HW2 9529   0.405   9.558   4.047
35878SOL     OW 9530   5.025   6.423   4.013
35878SOL    HW1 9531   5.071   6.340   4.004
35878SOL    HW2 9532   4.959   6.422   3.943
35879SOL     OW 9533   7.552   8.024   3.856
35879SOL    HW1 9534   7.494   7.947   3.857
35879SOL    HW2 9535   7.625   7.998   3.800
35880SOL     OW 9536   7.657  13.750   9.802
35880SOL    HW1 9537   7.748  13.779   9.814
35880SOL    HW2 9538   7.658  13.706   9.717
35881SOL     OW 9539   4.075   1.855  11.471
35881SOL    HW1 9540   4.038   1.922  11.528
35881SOL    HW2 9541   4.041   1.773  11.505
35882SOL     OW 9542   0.052  12.068   8.723
35882SOL    HW1 9543   0.104  12.141   8.757
35882SOL    HW2 9544   0.012  12.103   8.643
35883SOL     OW 9545  13.595   8.861   6.997
35883SOL    HW1 9546  13.575   8.954   6.983
35883SOL    HW2 9547  13.664   8.842   6.934
35884SOL     OW 9548   3.027   0.791  12.737
35884SOL    HW1 9549   3.017   0.881  12.768
35884SOL    HW2 9550   3.110   0.790  12.690
35885SOL     OW 9551   6.664   1.687  13.656
35885SOL    HW1 9552   6.604   1.622  13.694
35885SOL    HW2 9553   6.750   1.647  13.662
35886SOL     OW 9554  14.526   0.100   8.020
35886SOL    HW1 9555  14.443   0.092   7.974
35886SOL    HW2 9556  14.502   0.108   8.112
35887SOL     OW 9557   4.789  13.880  10.190
35887SOL    HW1 9558   4.776  13.796  10.235
35887SOL    HW2 9559   4.752  13.867  10.103
35888SOL     OW 9560   1.629  14.185   5.623
35888SOL    HW1 9561   1.671  14.099   5.613
35888SOL    HW2 9562   1.701  14.246   5.638
35889SOL     OW 9563   0.220  10.414  12.967
35889SOL    HW1 9564   0.292  10.374  12.918
35889SOL    HW2 9565   0.185  10.343  13.021
35890SOL     OW 9566  14.377   5.183   1.450
35890SOL    HW1 9567  14.346   5.192   1.540
35890SOL    HW2 9568  14.297   5.180   1.397
35891SOL     OW 9569   4.176   1.091   8.352
35891SOL    HW1 9570   4.179   1.024   8.284
35891SOL    HW2 9571   4.123   1.051   8.422
35892SOL     OW 9572   5.215   5.350  14.767
35892SOL    HW1 9573   5.204   5.330  14.859
35892SOL    HW2 9574   5.163   5.285  14.721
35893SOL     OW 9575   0.463   7.893   9.049
35893SOL    HW1 9576   0.509   7.968   9.010
35893SOL    HW2 9577   0.528   7.853   9.107
35894SOL     OW 9578  13.552   4.270   8.898
35894SOL    HW1 9579  13.629   4.301   8.851
35894SOL    HW2 9580  13.564   4.302   8.987
35895SOL     OW 9581  12.406   9.501   5.023
35895SOL    HW1 9582  12.463   9.577   5.013
35895SOL    HW2 9583  12.435   9.459   5.104
35896SOL     OW 9584  14.138   5.799   6.088
35896SOL    HW1 9585  14.149   5.754   6.172
35896SOL    HW2 9586  14.103   5.731   6.030
35897SOL     OW 9587  10.912   8.898   3.720
35897SOL    HW1 9588  10.894   8.809   3.751
35897SOL    HW2 9589  10.843   8.916   3.656
35898SOL     OW 9590  14.055  12.146   4.442
35898SOL    HW1 9591  14.040  12.113   4.531
35898SOL    HW2 9592  14.096  12.232   4.455
35899SOL     OW 9593   3.162   0.960   6.514
35899SOL    HW1 9594   3.187   0.880   6.561
35899SOL    HW2 9595   3.174   0.939   6.422
35900SOL     OW 9596   8.149   1.760   5.597
35900SOL    HW1 9597   8.195   1.689   5.642
35900SOL    HW2 9598   8.141   1.829   5.663
35901SOL     OW 9599  11.469   1.235   9.038
35901SOL    HW1 9600  11.474   1.314   9.092
35901SOL    HW2 9601  11.545   1.242   8.980
35902SOL     OW 9602   3.991   6.106   9.280
35902SOL    HW1 9603   4.079   6.070   9.292
35902SOL    HW2 9604   3.998   6.196   9.312
35903SOL     OW 9605  14.539   5.892   5.309
35903SOL    HW1 9606  14.518   5.869   5.400
35903SOL    HW2 9607  14.633   5.911   5.310
35904SOL     OW 9608  12.174  11.668  14.263
35904SOL    HW1 9609  12.212  11.714  14.338
35904SOL    HW2 9610  12.178  11.731  14.191
35905SOL     OW 9611  10.071  11.707   5.594
35905SOL    HW1 9612  10.051  11.615   5.607
35905SOL    HW2 9613  10.079  11.718   5.500
35906SOL     OW 9614  10.076  10.104   4.114
35906SOL    HW1 9615  10.116  10.099   4.027
35906SOL    HW2 9616  10.050  10.196   4.123
35907SOL     OW 9617   3.285   5.184   6.942
35907SOL    HW1 9618   3.342   5.142   7.007
35907SOL    HW2 9619   3.310   5.276   6.944
35908SOL     OW 9620   7.958   0.378   8.438
35908SOL    HW1 9621   7.958   0.342   8.527
35908SOL    HW2 9622   7.907   0.316   8.387
35909SOL     OW 9623   8.736   0.978   0.708
35909SOL    HW1 9624   8.662   1.018   0.755
35909SOL    HW2 9625   8.790   1.052   0.681
35910SOL     OW 9626   2.032  10.710   5.338
35910SOL    HW1 9627   2.049  10.618   5.357
35910SOL    HW2 9628   1.997  10.746   5.419
35911SOL     OW 9629   9.262  13.926  11.709
35911SOL    HW1 9630   9.234  14.016  11.695
35911SOL    HW2 9631   9.262  13.887  11.622
35912SOL     OW 9632  10.691  14.457   3.383
35912SOL    HW1 9633  10.714  14.403   3.307
35912SOL    HW2 9634  10.622  14.408   3.428
35913SOL     OW 9635   1.243  13.173   9.458
35913SOL    HW1 9636   1.187  13.249   9.439
35913SOL    HW2 9637   1.223  13.110   9.389
35914SOL     OW 9638  11.098   9.232   1.167
35914SOL    HW1 9639  11.030   9.248   1.101
35914SOL    HW2 9640  11.082   9.297   1.235
35915SOL     OW 9641   1.118   2.693   3.130
35915SOL    HW1 9642   1.082   2.632   3.195
35915SOL    HW2 9643   1.113   2.778   3.173
35916SOL     OW 9644  14.484   9.388   7.131
35916SOL    HW1 9645  14.498   9.441   7.052
35916SOL    HW2 9646  14.517   9.301   7.109
35917SOL     OW 9647   5.923   0.015  13.786
35917SOL    HW1 9648   5.997   0.072  13.763
35917SOL    HW2 9649   5.953  14.839  13.863
35918SOL     OW 9650   6.134   9.778   1.728
35918SOL    HW1 9651   6.095   9.827   1.800
35918SOL    HW2 9652   6.190   9.712   1.770
35919SOL     OW 9653  14.677  13.612   7.277
35919SOL    HW1 9654  14.581  13.619   7.286
35919SOL    HW2 9655  14.707  13.702   7.268
35920SOL     OW 9656   3.569   6.857  11.687
35920SOL    HW1 9657   3.648   6.905  11.665
35920SOL    HW2 9658   3.501   6.924  11.691
35921SOL     OW 9659  10.093   1.041   7.349
35921SOL    HW1 9660  10.167   1.066   7.294
35921SOL    HW2 9661  10.028   1.109   7.335
35922SOL     OW 9662   8.941  13.209  12.571
35922SOL    HW1 9663   8.893  13.244  12.646
35922SOL    HW2 9664   8.998  13.282  12.544
35923SOL     OW 9665   3.709   3.363  11.990
35923SOL    HW1 9666   3.733   3.341  12.080
35923SOL    HW2 9667   3.758   3.443  11.971
35924SOL     OW 9668  13.639   2.973  11.930
35924SOL    HW1 9669  13.551   2.936  11.928
35924SOL    HW2 9670  13.636   3.046  11.868
35925SOL     OW 9671   1.225  11.183   8.986
35925SOL    HW1 9672   1.141  11.228   8.986
35925SOL    HW2 9673   1.258  11.192   9.075
35926SOL     OW 9674  14.584   3.174  14.495
35926SOL    HW1 9675  14.541   3.174  14.581
35926SOL    HW2 9676  14.675   3.152  14.514
35927SOL     OW 9677  10.772   6.094   5.627
35927SOL    HW1 9678  10.697   6.036   5.641
35927SOL    HW2 9679  10.846   6.045   5.663
35928SOL     OW 9680  14.231  11.396   4.408
35928SOL    HW1 9681  14.215  11.331   4.339
35928SOL    HW2 9682  14.161  11.460   4.397
35929SOL     OW 9683   7.504   1.830  10.414
35929SOL    HW1 9684   7.598   1.810  10.423
35929SOL    HW2 9685   7.501   1.925  10.409
35930SOL     OW 9686   6.799   5.632   7.945
35930SOL    HW1 9687   6.747   5.695   7.994
35930SOL    HW2 9688   6.798   5.664   7.855
35931SOL     OW 9689   3.708  11.344   1.076
35931SOL    HW1 9690   3.690  11.363   0.984
35931SOL    HW2 9691   3.718  11.430   1.117
35932SOL     OW 9692  10.256   8.111   4.872
35932SOL    HW1 9693  10.322   8.181   4.869
35932SOL    HW2 9694  10.242   8.096   4.966
35933SOL     OW 9695   7.162   3.932   3.702
35933SOL    HW1 9696   7.233   3.986   3.668
35933SOL    HW2 9697   7.100   3.995   3.738
35934SOL     OW 9698   3.509   0.447   6.620
35934SOL    HW1 9699   3.478   0.362   6.590
35934SOL    HW2 9700   3.601   0.449   6.596
35935SOL     OW 9701   2.760   8.885  10.156
35935SOL    HW1 9702   2.668   8.859  10.149
35935SOL    HW2 9703   2.809   8.805  10.135
35936SOL     OW 9704   2.804   0.171   7.242
35936SOL    HW1 9705   2.860   0.245   7.219
35936SOL    HW2 9706   2.820   0.156   7.335
35937SOL     OW 9707  12.274   0.338  10.765
35937SOL    HW1 9708  12.233   0.365  10.847
35937SOL    HW2 9709  12.280   0.418  10.713
35938SOL     OW 9710   9.435   0.427  13.556
35938SOL    HW1 9711   9.511   0.370  13.560
35938SOL    HW2 9712   9.390   0.402  13.475
35939SOL     OW 9713   9.481  14.409   6.330
35939SOL    HW1 9714   9.458  14.349   6.259
35939SOL    HW2 9715   9.571  14.387   6.352
35940SOL     OW 9716  14.252  11.252   0.508
35940SOL    HW1 9717  14.264  11.237   0.602
35940SOL    HW2 9718  14.216  11.340   0.501
35941SOL     OW 9719   2.424   4.724   3.547
35941SOL    HW1 9720   2.338   4.695   3.577
35941SOL    HW2 9721   2.470   4.750   3.627
35942SOL     OW 9722   5.456   9.310   0.174
35942SOL    HW1 9723   5.544   9.320   0.211
35942SOL    HW2 9724   5.421   9.399   0.171
35943SOL     OW 9725  12.539   1.094   3.805
35943SOL    HW1 9726  12.477   1.118   3.874
35943SOL    HW2 9727  12.598   1.169   3.799
35944SOL     OW 9728   4.509   1.721   3.571
35944SOL    HW1 9729   4.498   1.756   3.659
35944SOL    HW2 9730   4.433   1.664   3.558
35945SOL     OW 9731  13.714  11.964   3.900
35945SOL    HW1 9732  13.622  11.942   3.909
35945SOL    HW2 9733  13.759  11.880   3.898
35946SOL     OW 9734   4.305  13.586   9.945
35946SOL    HW1 9735   4.397  13.611   9.945
35946SOL    HW2 9736   4.285  13.565  10.036
35947SOL     OW 9737  12.431   3.944   9.679
35947SOL    HW1 9738  12.398   3.856   9.658
35947SOL    HW2 9739  12.360   3.984   9.730
35948SOL     OW 9740   4.684  13.557   1.026
35948SOL    HW1 9741   4.620  13.486   1.017
35948SOL    HW2 9742   4.705  13.582   0.936
35949SOL     OW 9743  10.967   0.758  13.701
35949SOL    HW1 9744  11.011   0.766  13.786
35949SOL    HW2 9745  10.907   0.833  13.698
35950SOL     OW 9746  11.505   0.120  11.214
35950SOL    HW1 9747  11.541   0.083  11.133
35950SOL    HW2 9748  11.411   0.127  11.198
35951SOL     OW 9749  13.211   0.004   4.323
35951SOL    HW1 9750  13.257  14.801   4.284
35951SOL    HW2 9751  13.246   0.080   4.277
35952SOL     OW 9752   8.523  13.973   5.650
35952SOL    HW1 9753   8.564  13.976   5.564
35952SOL    HW2 9754   8.578  14.030   5.705
35953SOL     OW 9755   0.429   1.357   7.315
35953SOL    HW1 9756   0.425   1.413   7.238
35953SOL    HW2 9757   0.349   1.304   7.310
35954SOL     OW 9758  13.623   1.897   1.875
35954SOL    HW1 9759  13.614   1.814   1.924
35954SOL    HW2 9760  13.709   1.891   1.834
35955SOL     OW 9761   0.268   3.962   8.924
35955SOL    HW1 9762   0.176   3.988   8.931
35955SOL    HW2 9763   0.293   3.937   9.013
35956SOL     OW 9764   5.226   6.437   2.656
35956SOL    HW1 9765   5.302   6.453   2.713
35956SOL    HW2 9766   5.262   6.443   2.567
35957SOL     OW 9767  12.936   5.647  11.078
35957SOL    HW1 9768  12.964   5.556  11.084
35957SOL    HW2 9769  12.998   5.689  11.018
35958SOL     OW 9770   9.731   5.144   5.966
35958SOL    HW1 9771   9.809   5.172   5.918
35958SOL    HW2 9772   9.696   5.225   6.003
35959SOL     OW 9773   3.853  10.874  14.198
35959SOL    HW1 9774   3.791  10.822  14.147
35959SOL    HW2 9775   3.936  10.827  14.190
35960SOL     OW 9776  14.030   6.070   4.358
35960SOL    HW1 9777  13.960   6.015   4.324
35960SOL    HW2 9778  14.003   6.160   4.338
35961SOL     OW 9779   0.435   3.201   7.981
35961SOL    HW1 9780   0.495   3.266   7.945
35961SOL    HW2 9781   0.436   3.129   7.918
35962SOL     OW 9782  11.245   9.959   1.731
35962SOL    HW1 9783  11.157   9.995   1.734
35962SOL    HW2 9784  11.265   9.949   1.638
35963SOL     OW 9785   9.312   2.778  10.410
35963SOL    HW1 9786   9.299   2.854  10.352
35963SOL    HW2 9787   9.245   2.716  10.383
35964SOL     OW 9788   1.577  13.574   1.440
35964SOL    HW1 9789   1.490  13.610   1.461
35964SOL    HW2 9790   1.569  13.481   1.458
35965SOL     OW 9791  14.326  14.438  11.911
35965SOL    HW1 9792  14.317  14.533  11.925
35965SOL    HW2 9793  14.238  14.403  11.927
35966SOL     OW 9794   3.970   2.957   6.936
35966SOL    HW1 9795   4.059   2.968   6.902
35966SOL    HW2 9796   3.932   2.888   6.882
35967SOL     OW 9797   0.234   6.393  11.195
35967SOL    HW1 9798   0.149   6.437  11.202
35967SOL    HW2 9799   0.222   6.329  11.125
35968SOL     OW 9800   6.450  13.230   5.933
35968SOL    HW1 9801   6.496  13.289   5.993
35968SOL    HW2 9802   6.517  13.167   5.906
35969SOL     OW 9803   3.227   6.957   8.758
35969SOL    HW1 9804   3.216   7.044   8.720
35969SOL    HW2 9805   3.146   6.942   8.807
35970SOL     OW 9806   3.357   0.997   2.078
35970SOL    HW1 9807   3.329   0.972   1.990
35970SOL    HW2 9808   3.288   0.962   2.135
35971SOL     OW 9809  12.701  11.462  10.131
35971SOL    HW1 9810  12.712  11.411  10.051
35971SOL    HW2 9811  12.614  11.502  10.122
35972SOL     OW 9812   9.961  13.593   3.361
35972SOL    HW1 9813   9.980  13.686   3.355
35972SOL    HW2 9814   9.867  13.587   3.340
35973SOL     OW 9815   6.975   5.334  13.733
35973SOL    HW1 9816   6.998   5.282  13.656
35973SOL    HW2 9817   6.958   5.269  13.802
35974SOL     OW 9818  10.048   5.549  10.868
35974SOL    HW1 9819  10.046   5.506  10.783
35974SOL    HW2 9820   9.959   5.582  10.881
35975SOL     OW 9821   9.416   4.113   0.442
35975SOL    HW1 9822   9.351   4.127   0.374
35975SOL    HW2 9823   9.382   4.159   0.519
35976SOL     OW 9824   8.023  12.943   1.258
35976SOL    HW1 9825   7.954  12.878   1.248
35976SOL    HW2 9826   7.985  13.009   1.316
35977SOL     OW 9827   9.498  14.867  10.315
35977SOL    HW1 9828   9.532   0.038  10.394
35977SOL    HW2 9829   9.447   0.063  10.271
35978SOL     OW 9830  14.552   3.593  13.017
35978SOL    HW1 9831  14.479   3.603  13.078
35978SOL    HW2 9832  14.624   3.562  13.072
35979SOL     OW 9833   6.675  11.262   0.234
35979SOL    HW1 9834   6.637  11.285   0.318
35979SOL    HW2 9835   6.663  11.341   0.180
35980SOL     OW 9836  11.941   2.651   6.100
35980SOL    HW1 9837  11.950   2.584   6.032
35980SOL    HW2 9838  11.857   2.631   6.142
35981SOL     OW 9839   5.739  13.240   4.930
35981SOL    HW1 9840   5.794  13.303   4.884
35981SOL    HW2 9841   5.801  13.189   4.982
35982SOL     OW 9842  12.771   9.603   2.681
35982SOL    HW1 9843  12.795   9.682   2.730
35982SOL    HW2 9844  12.685   9.578   2.716
35983SOL     OW 9845  12.202   9.608   6.231
35983SOL    HW1 9846  12.194   9.512   6.231
35983SOL    HW2 9847  12.174   9.634   6.318
35984SOL     OW 9848  13.947  10.094   5.206
35984SOL    HW1 9849  13.858  10.067   5.186
35984SOL    HW2 9850  13.937  10.177   5.253
35985SOL     OW 9851   5.276  13.022   9.373
35985SOL    HW1 9852   5.272  12.985   9.285
35985SOL    HW2 9853   5.290  12.947   9.430
35986SOL     OW 9854  14.611   0.533   6.465
35986SOL    HW1 9855  14.598   0.618   6.508
35986SOL    HW2 9856  14.707   0.523   6.462
35987SOL     OW 9857  12.350   5.703   5.836
35987SOL    HW1 9858  12.289   5.636   5.866
35987SOL    HW2 9859  12.334   5.710   5.742
35988SOL     OW 9860   4.976  14.119   6.937
35988SOL    HW1 9861   4.918  14.077   6.874
35988SOL    HW2 9862   5.060  14.074   6.927
35989SOL     OW 9863  12.728   9.972   5.486
35989SOL    HW1 9864  12.708   9.893   5.437
35989SOL    HW2 9865  12.644   9.997   5.526
35990SOL     OW 9866   4.769   4.049  10.641
35990SOL    HW1 9867   4.719   4.000  10.576
35990SOL    HW2 9868   4.859   4.049  10.607
35991SOL     OW 9869   6.459   0.434   5.429
35991SOL    HW1 9870   6.428   0.353   5.387
35991SOL    HW2 9871   6.386   0.460   5.485
35992SOL     OW 9872  14.294   6.501   9.848
35992SOL    HW1 9873  14.379   6.528   9.882
35992SOL    HW2 9874  14.250   6.583   9.824
35993SOL     OW 9875  14.785   4.432   5.286
35993SOL    HW1 9876  14.750   4.424   5.197
35993SOL    HW2 9877  14.779   4.525   5.306
35994SOL     OW 9878   0.850   4.991   9.241
35994SOL    HW1 9879   0.860   4.947   9.156
35994SOL    HW2 9880   0.797   5.068   9.222
35995SOL     OW 9881   4.054   1.098  13.701
35995SOL    HW1 9882   4.079   1.189  13.716
35995SOL    HW2 9883   3.976   1.103  13.646
35996SOL     OW 9884   0.002   0.828   5.378
35996SOL    HW1 9885  14.803   0.887   5.352
35996SOL    HW2 9886  14.833   0.762   5.433
35997SOL     OW 9887   1.164   7.793  13.975
35997SOL    HW1 9888   1.180   7.872  14.026
35997SOL    HW2 9889   1.111   7.738  14.033
35998SOL     OW 9890  10.203   6.331   2.386
35998SOL    HW1 9891  10.288   6.307   2.423
35998SOL    HW2 9892  10.201   6.427   2.393
35999SOL     OW 9893  12.719  13.828   8.788
35999SOL    HW1 9894  12.673  13.827   8.704
35999SOL    HW2 9895  12.784  13.758   8.780
36000SOL     OW 9896  12.048  13.778   4.203
36000SOL    HW1 9897  11.969  13.825   4.229
36000SOL    HW2 9898  12.118  13.817   4.256
36001SOL     OW 9899   7.643   0.317  11.329
36001SOL    HW1 9900   7.567   0.263  11.349
36001SOL    HW2 9901   7.698   0.312  11.407
36002SOL     OW 9902  11.837   4.009   9.927
36002SOL    HW1 9903  11.746   4.004   9.957
36002SOL    HW2 9904  11.877   4.076   9.981
36003SOL     OW 9905   1.927   6.096   3.531
36003SOL    HW1 9906   1.904   6.067   3.443
36003SOL    HW2 9907   1.886   6.031   3.589
36004SOL     OW 9908   9.180  13.463  14.081
36004SOL    HW1 9909   9.141  13.378  14.100
36004SOL    HW2 9910   9.274  13.448  14.083
36005SOL     OW 9911  11.104   6.773   1.142
36005SOL    HW1 9912  11.196   6.763   1.165
36005SOL    HW2 9913  11.100   6.758   1.047
36006SOL     OW 9914   7.705   0.901  12.243
36006SOL    HW1 9915   7.647   0.879  12.316
36006SOL    HW2 9916   7.793   0.892  12.279
36007SOL     OW 9917  12.933   2.196  11.463
36007SOL    HW1 9918  12.955   2.104  11.477
36007SOL    HW2 9919  12.882   2.196  11.382
36008SOL     OW 9920   4.626   5.356   8.001
36008SOL    HW1 9921   4.565   5.418   7.962
36008SOL    HW2 9922   4.707   5.369   7.953
36009SOL     OW 9923  12.816  11.901  13.080
36009SOL    HW1 9924  12.800  11.827  13.020
36009SOL    HW2 9925  12.900  11.882  13.120
36010SOL     OW 9926  11.403  10.538   3.206
36010SOL    HW1 9927  11.424  10.563   3.297
36010SOL    HW2 9928  11.321  10.490   3.214
36011SOL     OW 9929   6.125  10.214  12.878
36011SOL    HW1 9930   6.214  10.251  12.876
36011SOL    HW2 9931   6.088  10.245  12.961
36012SOL     OW 9932   5.790   2.355   1.026
36012SOL    HW1 9933   5.733   2.429   1.005
36012SOL    HW2 9934   5.772   2.336   1.118
36013SOL     OW 9935   6.085  11.896   4.954
36013SOL    HW1 9936   6.145  11.828   4.986
36013SOL    HW2 9937   6.036  11.854   4.884
36014SOL     OW 9938   8.867   6.140  10.274
36014SOL    HW1 9939   8.892   6.232  10.280
36014SOL    HW2 9940   8.917   6.096  10.343
36015SOL     OW 9941   9.105   8.127   3.045
36015SOL    HW1 9942   9.083   8.153   3.134
36015SOL    HW2 9943   9.020   8.110   3.004
36016SOL     OW 9944   1.930   5.846   8.931
36016SOL    HW1 9945   1.923   5.837   9.026
36016SOL    HW2 9946   1.860   5.907   8.907
36017SOL     OW 9947   0.023   0.633  10.413
36017SOL    HW1 9948   0.051   0.621  10.504
36017SOL    HW2 9949   0.095   0.597  10.361
36018SOL     OW 9950   9.333  12.476   9.871
36018SOL    HW1 9951   9.237  12.470   9.874
36018SOL    HW2 9952   9.362  12.424   9.947
36019SOL     OW 9953  10.645  14.483   5.656
36019SOL    HW1 9954  10.681  14.408   5.703
36019SOL    HW2 9955  10.665  14.558   5.713
36020SOL     OW 9956   3.454   6.716   7.482
36020SOL    HW1 9957   3.426   6.765   7.405
36020SOL    HW2 9958   3.391   6.643   7.489
36021SOL     OW 9959  14.463   2.836   7.087
36021SOL    HW1 9960  14.422   2.889   7.155
36021SOL    HW2 9961  14.405   2.761   7.076
36022SOL     OW 9962   2.980   0.393   7.334
36022SOL    HW1 9963   2.915   0.390   7.404
36022SOL    HW2 9964   2.985   0.486   7.310
36023SOL     OW 9965   6.952   1.965   8.681
36023SOL    HW1 9966   6.898   1.931   8.752
36023SOL    HW2 9967   6.921   1.920   8.603
36024SOL     OW 9968  10.045   3.507   2.992
36024SOL    HW1 9969  10.027   3.483   2.901
36024SOL    HW2 9970  10.133   3.543   2.990
36025SOL     OW 9971   2.046   5.177   9.390
36025SOL    HW1 9972   2.033   5.221   9.474
36025SOL    HW2 9973   2.110   5.108   9.408
36026SOL     OW 9974   9.576  11.934   1.817
36026SOL    HW1 9975   9.577  11.858   1.758
36026SOL    HW2 9976   9.566  11.897   1.904
36027SOL     OW 9977   8.066   4.027   0.176
36027SOL    HW1 9978   7.993   4.063   0.227
36027SOL    HW2 9979   8.048   4.057   0.087
36028SOL     OW 9980   6.570   5.079   8.186
36028SOL    HW1 9981   6.534   5.162   8.155
36028SOL    HW2 9982   6.613   5.102   8.269
36029SOL     OW 9983   2.501   9.571   1.985
36029SOL    HW1 9984   2.552   9.641   1.943
36029SOL    HW2 9985   2.423   9.614   2.019
36030SOL     OW 9986   0.420   5.104  11.384
36030SOL    HW1 9987   0.399   5.068  11.297
36030SOL    HW2 9988   0.440   5.196  11.367
36031SOL     OW 9989  13.803  11.041  11.093
36031SOL    HW1 9990  13.794  10.954  11.131
36031SOL    HW2 9991  13.738  11.094  11.138
36032SOL     OW 9992  12.293   2.202   1.762
36032SOL    HW1 9993  12.385   2.225   1.758
36032SOL    HW2 9994  12.247   2.283   1.740
36033SOL     OW 9995   5.262   4.097  12.817
36033SOL    HW1 9996   5.316   4.138  12.749
36033SOL    HW2 9997   5.321   4.086  12.892
36034SOL     OW 9998  13.753  12.992   0.553
36034SOL    HW1 9999  13.781  12.952   0.636
36034SOL    HW210000  13.797  12.940   0.486
36035SOL     OW10001   2.061   7.546   4.661
36035SOL    HW110002   2.102   7.570   4.744
36035SOL    HW210003   2.132   7.506   4.610
36036SOL     OW10004   2.442  14.015  12.911
36036SOL    HW110005   2.492  13.976  12.839
36036SOL    HW210006   2.408  13.940  12.960
36037SOL     OW10007   3.984  11.946   8.772
36037SOL    HW110008   4.039  11.956   8.694
36037SOL    HW210009   3.905  11.996   8.753
36038SOL     OW10010  13.229   3.921  13.515
36038SOL    HW110011  13.220   3.916  13.610
36038SOL    HW210012  13.316   3.886  13.498
36039SOL     OW10013   2.413   7.763   1.917
36039SOL    HW110014   2.458   7.796   1.839
36039SOL    HW210015   2.445   7.674   1.927
36040SOL     OW10016  14.509   0.357  10.043
36040SOL    HW110017  14.539   0.353   9.952
36040SOL    HW210018  14.478   0.447  10.053
36041SOL     OW10019  10.643   8.289   2.495
36041SOL    HW110020  10.665   8.223   2.429
36041SOL    HW210021  10.555   8.266   2.523
36042SOL     OW10022   2.388  14.139   1.741
36042SOL    HW110023   2.303  14.141   1.697
36042SOL    HW210024   2.374  14.185   1.824
36043SOL     OW10025   2.213  12.860   2.439
36043SOL    HW110026   2.145  12.901   2.386
36043SOL    HW210027   2.228  12.921   2.511
36044SOL     OW10028   2.586  13.095   0.091
36044SOL    HW110029   2.558  13.018   0.042
36044SOL    HW210030   2.528  13.098   0.167
36045SOL     OW10031   9.185   5.707  10.058
36045SOL    HW110032   9.096   5.707  10.022
36045SOL    HW210033   9.172   5.720  10.152
36046SOL     OW10034   9.269  14.300  11.517
36046SOL    HW110035   9.255  14.222  11.463
36046SOL    HW210036   9.364  14.306  11.526
36047SOL     OW10037   5.382   5.738  14.531
36047SOL    HW110038   5.380   5.708  14.441
36047SOL    HW210039   5.296   5.715  14.566
36048SOL     OW10040   5.242   4.427  10.455
36048SOL    HW110041   5.322   4.437  10.508
36048SOL    HW210042   5.212   4.516  10.440
36049SOL     OW10043  13.095   7.291  14.856
36049SOL    HW110044  13.170   7.350  14.854
36049SOL    HW210045  13.129   7.210   0.021
36050SOL     OW10046  14.174   6.293  10.024
36050SOL    HW110047  14.151   6.367  10.081
36050SOL    HW210048  14.217   6.334   9.949
36051SOL     OW10049   4.053   2.631   8.387
36051SOL    HW110050   4.109   2.698   8.348
36051SOL    HW210051   4.071   2.637   8.481
36052SOL     OW10052  10.221   7.291  11.703
36052SOL    HW110053  10.214   7.343  11.624
36052SOL    HW210054  10.311   7.259  11.703
36053SOL     OW10055  12.492   7.829   5.230
36053SOL    HW110056  12.497   7.746   5.183
36053SOL    HW210057  12.434   7.811   5.304
36054SOL     OW10058   4.709   3.457   0.344
36054SOL    HW110059   4.796   3.463   0.384
36054SOL    HW210060   4.710   3.374   0.297
36055SOL     OW10061   9.222   3.611  10.178
36055SOL    HW110062   9.275   3.548  10.227
36055SOL    HW210063   9.282   3.681  10.155
36056SOL     OW10064   1.342   9.676  12.112
36056SOL    HW110065   1.375   9.707  12.028
36056SOL    HW210066   1.420   9.650  12.161
36057SOL     OW10067   9.112  13.935  14.080
36057SOL    HW110068   9.188  13.978  14.121
36057SOL    HW210069   9.137  13.926  13.988
36058SOL     OW10070   2.510   2.714   3.347
36058SOL    HW110071   2.476   2.703   3.436
36058SOL    HW210072   2.434   2.744   3.297
36059SOL     OW10073   3.355   7.721   8.414
36059SOL    HW110074   3.335   7.790   8.477
36059SOL    HW210075   3.307   7.746   8.335
36060SOL     OW10076  11.873   2.828   8.740
36060SOL    HW110077  11.810   2.891   8.704
36060SOL    HW210078  11.829   2.792   8.817
36061SOL     OW10079   3.905   5.108  11.950
36061SOL    HW110080   3.882   5.049  11.879
36061SOL    HW210081   3.867   5.068  12.028
36062SOL     OW10082   6.193   6.186   2.048
36062SOL    HW110083   6.195   6.173   2.143
36062SOL    HW210084   6.255   6.257   2.032
36063SOL     OW10085  10.934  14.822  11.189
36063SOL    HW110086  11.028  14.830  11.169
36063SOL    HW210087  10.893   0.017  11.135
36064SOL     OW10088   7.022   2.356   8.210
36064SOL    HW110089   6.973   2.429   8.247
36064SOL    HW210090   7.000   2.281   8.265
36065SOL     OW10091   9.253   6.989  13.008
36065SOL    HW110092   9.199   6.912  12.991
36065SOL    HW210093   9.302   7.002  12.927
36066SOL     OW10094   9.469   3.141   7.254
36066SOL    HW110095   9.473   3.047   7.273
36066SOL    HW210096   9.429   3.146   7.168
36067SOL     OW10097  10.454   6.953   8.680
36067SOL    HW110098  10.397   7.029   8.695
36067SOL    HW210099  10.422   6.915   8.599
36068SOL     OW10100   2.276   9.067   5.319
36068SOL    HW110101   2.294   8.995   5.259
36068SOL    HW210102   2.237   9.135   5.263
36069SOL     OW10103  12.303   1.263   8.219
36069SOL    HW110104  12.371   1.320   8.255
36069SOL    HW210105  12.330   1.175   8.245
36070SOL     OW10106   7.239   3.597  14.686
36070SOL    HW110107   7.239   3.584  14.781
36070SOL    HW210108   7.315   3.653  14.669
36071SOL     OW10109  11.223   2.491  14.327
36071SOL    HW110110  11.132   2.458  14.324
36071SOL    HW210111  11.214   2.583  14.352
36072SOL     OW10112   1.585  14.594   1.362
36072SOL    HW110113   1.526  14.668   1.347
36072SOL    HW210114   1.571  14.570   1.454
36073SOL     OW10115  10.260   8.758   2.896
36073SOL    HW110116  10.261   8.730   2.987
36073SOL    HW210117  10.270   8.678   2.845
36074SOL     OW10118   9.487   6.943  10.233
36074SOL    HW110119   9.540   7.002  10.287
36074SOL    HW210120   9.551   6.893  10.183
36075SOL     OW10121   3.031   1.204  10.649
36075SOL    HW110122   2.940   1.193  10.677
36075SOL    HW210123   3.026   1.268  10.579
36076SOL     OW10124   7.187   6.751   9.002
36076SOL    HW110125   7.191   6.744   8.907
36076SOL    HW210126   7.265   6.703   9.033
36077SOL     OW10127   8.328   3.696   3.408
36077SOL    HW110128   8.286   3.634   3.467
36077SOL    HW210129   8.309   3.663   3.320
36078SOL     OW10130   4.519   7.265   9.893
36078SOL    HW110131   4.562   7.275   9.808
36078SOL    HW210132   4.577   7.208   9.943
36079SOL     OW10133  12.748   2.956   5.631
36079SOL    HW110134  12.680   2.964   5.699
36079SOL    HW210135  12.704   2.984   5.550
36080SOL     OW10136  14.808   7.298   9.956
36080SOL    HW110137   0.004   7.335   9.900
36080SOL    HW210138  14.733   7.286   9.898
36081SOL     OW10139   4.802  14.639   5.808
36081SOL    HW110140   4.874  14.635   5.745
36081SOL    HW210141   4.844  14.664   5.891
36082SOL     OW10142   4.778   3.243   6.994
36082SOL    HW110143   4.781   3.272   7.085
36082SOL    HW210144   4.812   3.153   6.997
36083SOL     OW10145   4.650   6.071   7.075
36083SOL    HW110146   4.718   6.004   7.075
36083SOL    HW210147   4.697   6.153   7.057
36084SOL     OW10148   9.488   4.009  13.871
36084SOL    HW110149   9.407   4.022  13.919
36084SOL    HW210150   9.487   4.076  13.803
36085SOL     OW10151   2.264   7.315   4.596
36085SOL    HW110152   2.272   7.328   4.691
36085SOL    HW210153   2.341   7.357   4.559
36086SOL     OW10154  14.092  10.938   0.994
36086SOL    HW110155  14.119  10.915   1.083
36086SOL    HW210156  14.056  11.027   1.001
36087SOL     OW10157   0.730   0.275  14.329
36087SOL    HW110158   0.815   0.295  14.369
36087SOL    HW210159   0.713   0.349  14.271
36088SOL     OW10160   5.844   3.754   5.268
36088SOL    HW110161   5.810   3.841   5.249
36088SOL    HW210162   5.766   3.698   5.270
36089SOL     OW10163  10.007   1.503   2.985
36089SOL    HW110164  10.036   1.552   3.062
36089SOL    HW210165   9.972   1.421   3.020
36090SOL     OW10166   2.411   8.545  13.797
36090SOL    HW110167   2.390   8.469  13.851
36090SOL    HW210168   2.426   8.616  13.859
36091SOL     OW10169   5.848   0.522   8.621
36091SOL    HW110170   5.841   0.427   8.613
36091SOL    HW210171   5.762   0.551   8.652
36092SOL     OW10172   9.614   5.952   9.405
36092SOL    HW110173   9.651   6.018   9.464
36092SOL    HW210174   9.547   5.999   9.356
36093SOL     OW10175  13.560   4.831   1.930
36093SOL    HW110176  13.577   4.759   1.990
36093SOL    HW210177  13.469   4.856   1.946
36094SOL     OW10178   2.958   4.515   7.916
36094SOL    HW110179   2.991   4.559   7.838
36094SOL    HW210180   2.878   4.472   7.886
36095SOL     OW10181   5.624   9.131   7.508
36095SOL    HW110182   5.556   9.070   7.537
36095SOL    HW210183   5.706   9.089   7.532
36096SOL     OW10184   8.497   8.381  11.473
36096SOL    HW110185   8.552   8.353  11.400
36096SOL    HW210186   8.549   8.362  11.551
36097SOL     OW10187  14.644   1.210   3.296
36097SOL    HW110188  14.550   1.191   3.305
36097SOL    HW210189  14.647   1.285   3.236
36098SOL     OW10190   9.383  10.948   4.757
36098SOL    HW110191   9.365  10.931   4.849
36098SOL    HW210192   9.316  11.011   4.730
36099SOL     OW10193   8.419   9.281   6.517
36099SOL    HW110194   8.463   9.253   6.437
36099SOL    HW210195   8.423   9.205   6.575
36100SOL     OW10196   2.349   8.927  12.801
36100SOL    HW110197   2.324   8.934  12.893
36100SOL    HW210198   2.273   8.890  12.758
36101SOL     OW10199  10.831   3.887  13.277
36101SOL    HW110200  10.848   3.810  13.223
36101SOL    HW210201  10.834   3.961  13.216
36102SOL     OW10202   5.239   0.744   6.570
36102SOL    HW110203   5.215   0.651   6.570
36102SOL    HW210204   5.286   0.756   6.653
36103SOL     OW10205   4.919  11.725   5.803
36103SOL    HW110206   4.908  11.652   5.864
36103SOL    HW210207   4.836  11.728   5.756
36104SOL     OW10208   8.057   5.187   9.863
36104SOL    HW110209   8.110   5.164   9.787
36104SOL    HW210210   8.013   5.105   9.886
36105SOL     OW10211  11.191  10.825  13.237
36105SOL    HW110212  11.111  10.814  13.185
36105SOL    HW210213  11.171  10.897  13.296
36106SOL     OW10214  13.628   5.133   1.295
36106SOL    HW110215  13.599   5.144   1.204
36106SOL    HW210216  13.715   5.095   1.288
36107SOL     OW10217   0.493   6.581  11.879
36107SOL    HW110218   0.574   6.530  11.879
36107SOL    HW210219   0.497   6.633  11.959
36108SOL     OW10220   6.976  10.779   4.299
36108SOL    HW110221   6.980  10.757   4.206
36108SOL    HW210222   6.998  10.872   4.303
36109SOL     OW10223   2.255   8.732   4.823
36109SOL    HW110224   2.325   8.780   4.866
36109SOL    HW210225   2.219   8.675   4.891
36110SOL     OW10226   9.740  14.626  13.873
36110SOL    HW110227   9.698  14.601  13.956
36110SOL    HW210228   9.685  14.697  13.839
36111SOL     OW10229   9.398   1.538   9.730
36111SOL    HW110230   9.384   1.592   9.808
36111SOL    HW210231   9.480   1.569   9.693
36112SOL     OW10232   7.049  14.569   6.536
36112SOL    HW110233   7.135  14.583   6.576
36112SOL    HW210234   7.068  14.526   6.453
36113SOL     OW10235   7.674   3.769  13.635
36113SOL    HW110236   7.708   3.784  13.547
36113SOL    HW210237   7.741   3.716  13.678
36114SOL     OW10238  11.534  11.766   5.544
36114SOL    HW110239  11.499  11.680   5.568
36114SOL    HW210240  11.475  11.798   5.476
36115SOL     OW10241   1.645  13.551   7.187
36115SOL    HW110242   1.726  13.603   7.187
36115SOL    HW210243   1.600  13.578   7.106
36116SOL     OW10244  12.920   0.246  11.254
36116SOL    HW110245  12.895   0.185  11.184
36116SOL    HW210246  12.959   0.191  11.322
36117SOL     OW10247  12.633   2.822  13.821
36117SOL    HW110248  12.673   2.908  13.807
36117SOL    HW210249  12.646   2.776  13.738
36118SOL     OW10250  12.594  11.214   1.603
36118SOL    HW110251  12.586  11.125   1.636
36118SOL    HW210252  12.650  11.258   1.667
36119SOL     OW10253   0.223   5.116   1.714
36119SOL    HW110254   0.252   5.194   1.667
36119SOL    HW210255   0.302   5.085   1.759
36120SOL     OW10256   9.057  12.750  12.118
36120SOL    HW110257   9.089  12.786  12.035
36120SOL    HW210258   9.088  12.812  12.184
36121SOL     OW10259   1.074   4.870   8.175
36121SOL    HW110260   1.153   4.924   8.170
36121SOL    HW210261   1.106   4.780   8.175
36122SOL     OW10262   3.223   4.054   9.559
36122SOL    HW110263   3.164   3.988   9.595
36122SOL    HW210264   3.295   4.004   9.521
36123SOL     OW10265  10.797   7.703   9.315
36123SOL    HW110266  10.705   7.723   9.327
36123SOL    HW210267  10.822   7.655   9.394
36124SOL     OW10268  13.987  10.483   7.609
36124SOL    HW110269  14.029  10.567   7.623
36124SOL    HW210270  13.982  10.444   7.697
36125SOL     OW10271  12.768  11.779  10.650
36125SOL    HW110272  12.794  11.688  10.636
36125SOL    HW210273  12.701  11.795  10.584
36126SOL     OW10274   2.698   5.295  10.005
36126SOL    HW110275   2.790   5.284  10.031
36126SOL    HW210276   2.664   5.205  10.001
36127SOL     OW10277   7.112   5.913  10.324
36127SOL    HW110278   7.062   5.966  10.386
36127SOL    HW210279   7.078   5.938  10.238
36128SOL     OW10280   4.662   5.084   3.657
36128SOL    HW110281   4.618   5.008   3.696
36128SOL    HW210282   4.640   5.156   3.716
36129SOL     OW10283   5.922  12.718  10.843
36129SOL    HW110284   5.827  12.711  10.852
36129SOL    HW210285   5.952  12.750  10.928
36130SOL     OW10286   6.269  11.637   1.003
36130SOL    HW110287   6.286  11.703   0.936
36130SOL    HW210288   6.268  11.554   0.955
36131SOL     OW10289  12.211   5.908  12.805
36131SOL    HW110290  12.145   5.841  12.784
36131SOL    HW210291  12.283   5.890  12.745
36132SOL     OW10292   3.209  14.226   6.808
36132SOL    HW110293   3.213  14.152   6.868
36132SOL    HW210294   3.296  14.267   6.816
36133SOL     OW10295   1.447  12.069  11.323
36133SOL    HW110296   1.489  12.112  11.397
36133SOL    HW210297   1.383  12.009  11.363
36134SOL     OW10298  11.866  12.330  10.792
36134SOL    HW110299  11.779  12.330  10.751
36134SOL    HW210300  11.850  12.302  10.882
36135SOL     OW10301   4.786   0.145   6.533
36135SOL    HW110302   4.851   0.212   6.552
36135SOL    HW210303   4.722   0.189   6.476
36136SOL     OW10304  12.258   1.626  13.504
36136SOL    HW110305  12.255   1.711  13.460
36136SOL    HW210306  12.339   1.586  13.475
36137SOL     OW10307  14.597  14.811   4.798
36137SOL    HW110308  14.693  14.814   4.789
36137SOL    HW210309  14.566  14.781   4.712
36138SOL     OW10310   8.970   7.940   8.454
36138SOL    HW110311   8.903   7.943   8.386
36138SOL    HW210312   8.931   7.984   8.529
36139SOL     OW10313   5.689   6.423   9.682
36139SOL    HW110314   5.777   6.447   9.710
36139SOL    HW210315   5.682   6.456   9.592
36140SOL     OW10316  13.155   5.760  11.862
36140SOL    HW110317  13.171   5.672  11.894
36140SOL    HW210318  13.062   5.775  11.878
36141SOL     OW10319   9.418   6.284   2.400
36141SOL    HW110320   9.451   6.373   2.402
36141SOL    HW210321   9.438   6.253   2.311
36142SOL     OW10322  13.953   3.565   8.483
36142SOL    HW110323  14.030   3.523   8.444
36142SOL    HW210324  13.925   3.504   8.551
36143SOL     OW10325   8.084   2.958  14.189
36143SOL    HW110326   8.073   2.997  14.102
36143SOL    HW210327   8.121   2.872  14.172
36144SOL     OW10328   9.072  14.536   8.063
36144SOL    HW110329   9.047  14.455   8.018
36144SOL    HW210330   9.134  14.578   8.004
36145SOL     OW10331   1.340   1.189   2.157
36145SOL    HW110332   1.359   1.261   2.097
36145SOL    HW210333   1.418   1.134   2.153
36146SOL     OW10334  14.424   8.636   3.009
36146SOL    HW110335  14.484   8.563   2.997
36146SOL    HW210336  14.400   8.632   3.102
36147SOL     OW10337  11.827  13.516  14.845
36147SOL    HW110338  11.885  13.481  14.778
36147SOL    HW210339  11.739  13.510  14.805
36148SOL     OW10340   5.445   3.217  10.216
36148SOL    HW110341   5.447   3.263  10.133
36148SOL    HW210342   5.356   3.181  10.221
36149SOL     OW10343  10.461   8.912   0.835
36149SOL    HW110344  10.534   8.874   0.785
36149SOL    HW210345  10.447   8.851   0.907
36150SOL     OW10346   5.618  14.399  10.816
36150SOL    HW110347   5.631  14.478  10.870
36150SOL    HW210348   5.540  14.418  10.764
36151SOL     OW10349   6.779   2.956   5.782
36151SOL    HW110350   6.843   2.979   5.715
36151SOL    HW210351   6.753   2.866   5.760
36152SOL     OW10352   2.923   8.441   2.418
36152SOL    HW110353   2.906   8.430   2.325
36152SOL    HW210354   2.988   8.511   2.422
36153SOL     OW10355  11.729   0.449   1.294
36153SOL    HW110356  11.641   0.420   1.269
36153SOL    HW210357  11.751   0.395   1.370
36154SOL     OW10358   3.073   1.523  12.702
36154SOL    HW110359   3.080   1.607  12.658
36154SOL    HW210360   3.112   1.538  12.788
36155SOL     OW10361   9.909   6.642  10.392
36155SOL    HW110362   9.923   6.735  10.410
36155SOL    HW210363   9.993   6.601  10.413
36156SOL     OW10364   3.732  14.215   1.540
36156SOL    HW110365   3.647  14.220   1.498
36156SOL    HW210366   3.725  14.142   1.601
36157SOL     OW10367   6.914  10.574  12.280
36157SOL    HW110368   6.927  10.529  12.196
36157SOL    HW210369   6.820  10.586  12.287
36158SOL     OW10370   7.457   0.306   2.009
36158SOL    HW110371   7.393   0.303   2.080
36158SOL    HW210372   7.409   0.340   1.934
36159SOL     OW10373  14.138  12.575   7.708
36159SOL    HW110374  14.141  12.551   7.800
36159SOL    HW210375  14.051  12.613   7.696
36160SOL     OW10376  11.294  10.694   5.042
36160SOL    HW110377  11.245  10.651   5.112
36160SOL    HW210378  11.238  10.767   5.015
36161SOL     OW10379   8.978  13.542  12.911
36161SOL    HW110380   8.969  13.635  12.888
36161SOL    HW210381   8.916  13.530  12.984
36162SOL     OW10382   8.442   5.650   7.024
36162SOL    HW110383   8.489   5.666   7.106
36162SOL    HW210384   8.367   5.709   7.028
36163SOL     OW10385   2.624  10.715   7.380
36163SOL    HW110386   2.594  10.774   7.449
36163SOL    HW210387   2.706  10.678   7.414
36164SOL     OW10388  14.349   7.623   2.291
36164SOL    HW110389  14.418   7.671   2.245
36164SOL    HW210390  14.393   7.547   2.329
36165SOL     OW10391  11.977  10.057   3.044
36165SOL    HW110392  11.919  10.118   2.999
36165SOL    HW210393  11.921   9.981   3.063
36166SOL     OW10394   5.606  12.823   2.582
36166SOL    HW110395   5.575  12.733   2.576
36166SOL    HW210396   5.538  12.875   2.540
36167SOL     OW10397  14.246   6.273  13.046
36167SOL    HW110398  14.209   6.186  13.062
36167SOL    HW210399  14.194   6.331  13.102
36168SOL     OW10400   0.876   8.954  14.804
36168SOL    HW110401   0.898   8.876  14.752
36168SOL    HW210402   0.882   8.924   0.022
36169SOL     OW10403  14.564  12.025   3.735
36169SOL    HW110404  14.508  11.950   3.717
36169SOL    HW210405  14.652  11.996   3.710
36170SOL     OW10406   2.531   5.944   9.282
36170SOL    HW110407   2.584   5.994   9.220
36170SOL    HW210408   2.491   5.875   9.228
36171SOL     OW10409   9.912   0.794  12.195
36171SOL    HW110410   9.902   0.886  12.169
36171SOL    HW210411   9.824   0.767  12.221
36172SOL     OW10412   5.781   4.455  13.911
36172SOL    HW110413   5.869   4.431  13.882
36172SOL    HW210414   5.763   4.539  13.867
36173SOL     OW10415   5.700   9.311  12.923
36173SOL    HW110416   5.675   9.294  13.014
36173SOL    HW210417   5.727   9.226  12.889
36174SOL     OW10418   2.999   6.214  11.659
36174SOL    HW110419   3.056   6.182  11.729
36174SOL    HW210420   2.921   6.246  11.704
36175SOL     OW10421  14.446   2.802  10.145
36175SOL    HW110422  14.483   2.744  10.211
36175SOL    HW210423  14.507   2.797  10.071
36176SOL     OW10424   2.715   8.190   4.674
36176SOL    HW110425   2.659   8.225   4.605
36176SOL    HW210426   2.695   8.244   4.751
36177SOL     OW10427   6.627   9.973   6.723
36177SOL    HW110428   6.599  10.035   6.655
36177SOL    HW210429   6.688   9.915   6.679
36178SOL     OW10430  12.502   2.744   3.552
36178SOL    HW110431  12.505   2.748   3.648
36178SOL    HW210432  12.508   2.651   3.532
36179SOL     OW10433  14.096   9.473   6.342
36179SOL    HW110434  14.156   9.505   6.275
36179SOL    HW210435  14.011   9.467   6.298
36180SOL     OW10436   8.306   2.595   2.817
36180SOL    HW110437   8.237   2.646   2.776
36180SOL    HW210438   8.261   2.520   2.857
36181SOL     OW10439  11.630   8.370  13.897
36181SOL    HW110440  11.689   8.436  13.860
36181SOL    HW210441  11.550   8.418  13.916
36182SOL     OW10442   9.813  14.695  11.894
36182SOL    HW110443   9.861  14.624  11.937
36182SOL    HW210444   9.744  14.719  11.956
36183SOL     OW10445  10.654   1.753   3.979
36183SOL    HW110446  10.666   1.826   3.919
36183SOL    HW210447  10.564   1.724   3.963
36184SOL     OW10448   8.223   4.514   2.801
36184SOL    HW110449   8.157   4.554   2.858
36184SOL    HW210450   8.232   4.574   2.727
36185SOL     OW10451  12.462  14.826  11.095
36185SOL    HW110452  12.406   0.011  11.043
36185SOL    HW210453  12.402  14.763  11.135
36186SOL     OW10454   0.856   4.315   8.370
36186SOL    HW110455   0.931   4.341   8.424
36186SOL    HW210456   0.866   4.220   8.359
36187SOL     OW10457   0.131   7.468   1.826
36187SOL    HW110458   0.187   7.513   1.889
36187SOL    HW210459   0.163   7.377   1.826
36188SOL     OW10460   5.255   6.925  14.589
36188SOL    HW110461   5.200   6.995  14.552
36188SOL    HW210462   5.319   6.971  14.643
36189SOL     OW10463  13.341   1.043   9.896
36189SOL    HW110464  13.283   1.047   9.819
36189SOL    HW210465  13.359   1.134   9.917
36190SOL     OW10466   0.384   1.488  13.306
36190SOL    HW110467   0.395   1.504  13.399
36190SOL    HW210468   0.341   1.567  13.273
36191SOL     OW10469   6.282   1.074   5.468
36191SOL    HW110470   6.297   1.168   5.475
36191SOL    HW210471   6.187   1.066   5.456
36192SOL     OW10472   6.558   6.313  11.530
36192SOL    HW110473   6.578   6.391  11.477
36192SOL    HW210474   6.543   6.347  11.618
36193SOL     OW10475  12.279  12.136   8.524
36193SOL    HW110476  12.350  12.197   8.504
36193SOL    HW210477  12.323  12.052   8.537
36194SOL     OW10478  12.136   3.258   1.844
36194SOL    HW110479  12.060   3.203   1.864
36194SOL    HW210480  12.142   3.319   1.917
36195SOL     OW10481   2.907   7.544   3.021
36195SOL    HW110482   2.979   7.491   3.053
36195SOL    HW210483   2.875   7.498   2.943
36196SOL     OW10484   8.728   5.833   6.714
36196SOL    HW110485   8.784   5.850   6.790
36196SOL    HW210486   8.672   5.761   6.741
36197SOL     OW10487  10.027  11.051   3.498
36197SOL    HW110488  10.031  10.973   3.553
36197SOL    HW210489   9.964  11.029   3.429
36198SOL     OW10490   6.716   2.867  14.183
36198SOL    HW110491   6.744   2.940  14.128
36198SOL    HW210492   6.624   2.884  14.201
36199SOL     OW10493  12.875  14.754   0.343
36199SOL    HW110494  12.911  14.842   0.330
36199SOL    HW210495  12.835  14.732   0.259
36200SOL     OW10496  12.295   3.988   3.992
36200SOL    HW110497  12.248   3.946   4.064
36200SOL    HW210498  12.340   3.917   3.948
36201SOL     OW10499  14.676   4.065   8.673
36201SOL    HW110500  14.618   4.002   8.630
36201SOL    HW210501  14.758   4.059   8.624
36202SOL     OW10502   1.154   5.651  11.828
36202SOL    HW110503   1.107   5.734  11.815
36202SOL    HW210504   1.197   5.635  11.744
36203SOL     OW10505  10.224   7.684   8.094
36203SOL    HW110506  10.237   7.704   8.186
36203SOL    HW210507  10.295   7.624   8.071
36204SOL     OW10508  13.154   0.998   2.789
36204SOL    HW110509  13.217   1.064   2.816
36204SOL    HW210510  13.125   1.027   2.703
36205SOL     OW10511  14.128   9.913  14.727
36205SOL    HW110512  14.043   9.950  14.751
36205SOL    HW210513  14.166   9.978  14.668
36206SOL     OW10514   0.521  13.390  10.802
36206SOL    HW110515   0.460  13.358  10.869
36206SOL    HW210516   0.593  13.429  10.853
36207SOL     OW10517   1.458   0.957   4.853
36207SOL    HW110518   1.510   0.940   4.775
36207SOL    HW210519   1.376   0.909   4.839
36208SOL     OW10520   4.411   2.639  13.713
36208SOL    HW110521   4.438   2.577  13.781
36208SOL    HW210522   4.479   2.705  13.712
36209SOL     OW10523   0.165   1.935   0.662
36209SOL    HW110524   0.189   1.982   0.583
36209SOL    HW210525   0.081   1.973   0.688
36210SOL     OW10526   4.680   5.494   6.733
36210SOL    HW110527   4.659   5.575   6.781
36210SOL    HW210528   4.617   5.430   6.765
36211SOL     OW10529   7.829   3.872   2.051
36211SOL    HW110530   7.923   3.868   2.034
36211SOL    HW210531   7.789   3.881   1.964
36212SOL     OW10532   1.955  11.751  13.217
36212SOL    HW110533   1.948  11.721  13.308
36212SOL    HW210534   1.944  11.846  13.221
36213SOL     OW10535   2.646  11.618   0.714
36213SOL    HW110536   2.561  11.594   0.677
36213SOL    HW210537   2.625  11.671   0.791
36214SOL     OW10538   4.102  11.221  14.846
36214SOL    HW110539   4.074  11.188   0.059
36214SOL    HW210540   4.042  11.293  14.827
36215SOL     OW10541   6.196   2.895   5.445
36215SOL    HW110542   6.216   2.958   5.514
36215SOL    HW210543   6.280   2.857   5.421
36216SOL     OW10544   8.590  13.453  13.286
36216SOL    HW110545   8.514  13.401  13.313
36216SOL    HW210546   8.583  13.534  13.337
36217SOL     OW10547  12.271   5.132  10.780
36217SOL    HW110548  12.304   5.135  10.869
36217SOL    HW210549  12.349   5.142  10.725
36218SOL     OW10550   7.663  13.271   4.787
36218SOL    HW110551   7.757  13.291   4.777
36218SOL    HW210552   7.619  13.355   4.774
36219SOL     OW10553   4.892   7.581   2.795
36219SOL    HW110554   4.906   7.489   2.774
36219SOL    HW210555   4.960   7.627   2.745
36220SOL     OW10556   2.232  14.542   2.857
36220SOL    HW110557   2.171  14.526   2.929
36220SOL    HW210558   2.208  14.479   2.790
36221SOL     OW10559   6.106   9.588   4.981
36221SOL    HW110560   6.125   9.494   4.987
36221SOL    HW210561   6.016   9.593   4.952
36222SOL     OW10562   7.586  10.089   1.899
36222SOL    HW110563   7.656  10.155   1.897
36222SOL    HW210564   7.506  10.140   1.917
36223SOL     OW10565  12.305   8.313   9.320
36223SOL    HW110566  12.379   8.298   9.261
36223SOL    HW210567  12.326   8.261   9.397
36224SOL     OW10568  11.109  14.546   0.354
36224SOL    HW110569  11.090  14.627   0.308
36224SOL    HW210570  11.087  14.477   0.292
36225SOL     OW10571   6.256  12.157  12.102
36225SOL    HW110572   6.212  12.221  12.159
36225SOL    HW210573   6.199  12.150  12.026
36226SOL     OW10574   6.848   1.563   2.549
36226SOL    HW110575   6.926   1.567   2.604
36226SOL    HW210576   6.845   1.648   2.505
36227SOL     OW10577  12.694  13.799   7.557
36227SOL    HW110578  12.643  13.812   7.477
36227SOL    HW210579  12.779  13.766   7.526
36228SOL     OW10580   8.793  12.057  13.734
36228SOL    HW110581   8.739  12.021  13.804
36228SOL    HW210582   8.824  11.980  13.686
36229SOL     OW10583   2.684   8.269   7.715
36229SOL    HW110584   2.615   8.204   7.718
36229SOL    HW210585   2.710   8.272   7.622
36230SOL     OW10586   2.945   1.417   2.105
36230SOL    HW110587   3.024   1.457   2.068
36230SOL    HW210588   2.878   1.484   2.095
36231SOL     OW10589   0.983  14.581   0.513
36231SOL    HW110590   0.915  14.572   0.445
36231SOL    HW210591   1.016  14.492   0.525
36232SOL     OW10592   0.348  12.721   8.968
36232SOL    HW110593   0.265  12.696   8.926
36232SOL    HW210594   0.398  12.763   8.898
36233SOL     OW10595   9.811   3.000  13.850
36233SOL    HW110596   9.891   3.050  13.834
36233SOL    HW210597   9.836   2.935  13.915
36234SOL     OW10598   0.812  13.457  10.595
36234SOL    HW110599   0.718  13.462  10.580
36234SOL    HW210600   0.823  13.479  10.687
36235SOL     OW10601   7.117   7.274  12.430
36235SOL    HW110602   7.199   7.231  12.405
36235SOL    HW210603   7.129   7.295  12.523
36236SOL     OW10604   6.940   2.140   4.698
36236SOL    HW110605   6.917   2.062   4.748
36236SOL    HW210606   7.006   2.110   4.636
36237SOL     OW10607   3.986   2.977   2.542
36237SOL    HW110608   3.923   2.972   2.471
36237SOL    HW210609   4.020   2.888   2.550
36238SOL     OW10610   9.652   3.312   5.261
36238SOL    HW110611   9.615   3.391   5.222
36238SOL    HW210612   9.678   3.339   5.350
36239SOL     OW10613  11.933  10.418   1.168
36239SOL    HW110614  11.868  10.398   1.100
36239SOL    HW210615  11.945  10.335   1.214
36240SOL     OW10616   3.363   7.487  11.573
36240SOL    HW110617   3.383   7.505  11.482
36240SOL    HW210618   3.274   7.451  11.571
36241SOL     OW10619  12.305   2.078   6.316
36241SOL    HW110620  12.262   2.057   6.399
36241SOL    HW210621  12.320   1.993   6.274
36242SOL     OW10622   1.544   7.769   5.634
36242SOL    HW110623   1.503   7.723   5.560
36242SOL    HW210624   1.627   7.722   5.648
36243SOL     OW10625   3.660  13.393   1.099
36243SOL    HW110626   3.735  13.367   1.046
36243SOL    HW210627   3.642  13.483   1.072
36244SOL     OW10628   0.481  12.954  14.077
36244SOL    HW110629   0.518  12.960  14.165
36244SOL    HW210630   0.492  13.042  14.040
36245SOL     OW10631   6.914   6.766  12.881
36245SOL    HW110632   6.857   6.842  12.892
36245SOL    HW210633   6.948   6.774  12.792
36246SOL     OW10634  10.258   6.660   6.796
36246SOL    HW110635  10.341   6.614   6.782
36246SOL    HW210636  10.194   6.610   6.743
36247SOL     OW10637   2.217   9.320  12.694
36247SOL    HW110638   2.171   9.238  12.682
36247SOL    HW210639   2.267   9.332  12.612
36248SOL     OW10640  13.358   9.441  11.402
36248SOL    HW110641  13.409   9.470  11.326
36248SOL    HW210642  13.278   9.494  11.399
36249SOL     OW10643   3.721   6.496  10.105
36249SOL    HW110644   3.708   6.412  10.062
36249SOL    HW210645   3.639   6.544  10.091
36250SOL     OW10646   9.655   2.370  12.490
36250SOL    HW110647   9.612   2.286  12.477
36250SOL    HW210648   9.596   2.434  12.451
36251SOL     OW10649  14.254  10.310  11.831
36251SOL    HW110650  14.215  10.397  11.840
36251SOL    HW210651  14.334  10.325  11.781
36252SOL     OW10652   5.434  10.903   3.511
36252SOL    HW110653   5.466  10.835   3.570
36252SOL    HW210654   5.513  10.937   3.469
36253SOL     OW10655   5.257   4.203  14.330
36253SOL    HW110656   5.281   4.177  14.241
36253SOL    HW210657   5.275   4.125  14.383
36254SOL     OW10658   1.219   9.415   0.902
36254SOL    HW110659   1.210   9.433   0.809
36254SOL    HW210660   1.134   9.439   0.939
36255SOL     OW10661   2.023   0.805   7.287
36255SOL    HW110662   1.953   0.821   7.224
36255SOL    HW210663   1.978   0.772   7.365
36256SOL     OW10664  14.641   8.598  10.685
36256SOL    HW110665  14.696   8.641  10.620
36256SOL    HW210666  14.701   8.539  10.732
36257SOL     OW10667   9.762   9.956   3.800
36257SOL    HW110668   9.746  10.033   3.855
36257SOL    HW210669   9.818   9.900   3.854
36258SOL     OW10670   7.140  11.859   5.293
36258SOL    HW110671   7.128  11.768   5.319
36258SOL    HW210672   7.051  11.892   5.281
36259SOL     OW10673  12.140   9.787   4.287
36259SOL    HW110674  12.061   9.746   4.253
36259SOL    HW210675  12.146   9.757   4.377
36260SOL     OW10676   8.895   1.610   1.715
36260SOL    HW110677   8.816   1.599   1.768
36260SOL    HW210678   8.895   1.702   1.691
36261SOL     OW10679   3.676   9.184   8.450
36261SOL    HW110680   3.686   9.117   8.517
36261SOL    HW210681   3.677   9.135   8.367
36262SOL     OW10682   1.917  13.315   4.758
36262SOL    HW110683   1.993  13.257   4.750
36262SOL    HW210684   1.955  13.403   4.762
36263SOL     OW10685  10.475  13.424   9.133
36263SOL    HW110686  10.403  13.486   9.141
36263SOL    HW210687  10.552  13.478   9.117
36264SOL     OW10688  14.695   2.700   9.533
36264SOL    HW110689  14.734   2.618   9.503
36264SOL    HW210690  14.633   2.724   9.463
36265SOL     OW10691   6.062   6.298   6.293
36265SOL    HW110692   6.052   6.219   6.239
36265SOL    HW210693   6.153   6.296   6.321
36266SOL     OW10694   8.942   6.631  13.910
36266SOL    HW110695   8.862   6.654  13.958
36266SOL    HW210696   8.912   6.571  13.842
36267SOL     OW10697   1.075   1.401  12.959
36267SOL    HW110698   1.026   1.479  12.985
36267SOL    HW210699   1.088   1.354  13.042
36268SOL     OW10700  11.929   8.179   5.865
36268SOL    HW110701  11.909   8.269   5.838
36268SOL    HW210702  12.016   8.184   5.906
36269SOL     OW10703   6.907   2.363  11.085
36269SOL    HW110704   6.919   2.430  11.018
36269SOL    HW210705   6.813   2.345  11.084
36270SOL     OW10706  13.783   8.011  13.397
36270SOL    HW110707  13.772   7.941  13.333
36270SOL    HW210708  13.694   8.034  13.424
36271SOL     OW10709  12.646   1.410  13.240
36271SOL    HW110710  12.719   1.399  13.301
36271SOL    HW210711  12.649   1.503  13.215
36272SOL     OW10712   3.928   8.208   9.050
36272SOL    HW110713   4.012   8.188   9.090
36272SOL    HW210714   3.922   8.304   9.050
36273SOL     OW10715   8.852   6.537  11.289
36273SOL    HW110716   8.807   6.462  11.250
36273SOL    HW210717   8.935   6.542  11.242
36274SOL     OW10718   3.854   4.139  13.098
36274SOL    HW110719   3.802   4.207  13.141
36274SOL    HW210720   3.942   4.151  13.132
36275SOL     OW10721  10.642   4.626  10.017
36275SOL    HW110722  10.654   4.720  10.032
36275SOL    HW210723  10.604   4.620   9.929
36276SOL     OW10724  14.486   5.501   9.050
36276SOL    HW110725  14.577   5.527   9.064
36276SOL    HW210726  14.435   5.580   9.067
36277SOL     OW10727   6.894   0.860  11.884
36277SOL    HW110728   6.929   0.809  11.811
36277SOL    HW210729   6.971   0.887  11.933
36278SOL     OW10730   7.573   4.720  14.457
36278SOL    HW110731   7.668   4.725  14.456
36278SOL    HW210732   7.544   4.807  14.484
36279SOL     OW10733   3.456  13.789  10.482
36279SOL    HW110734   3.380  13.823  10.436
36279SOL    HW210735   3.460  13.696  10.458
36280SOL     OW10736   5.430   3.704   9.894
36280SOL    HW110737   5.474   3.664   9.969
36280SOL    HW210738   5.484   3.780   9.872
36281SOL     OW10739   8.916  14.428   9.591
36281SOL    HW110740   8.983  14.497   9.590
36281SOL    HW210741   8.842  14.467   9.545
36282SOL     OW10742   0.247   4.105  11.905
36282SOL    HW110743   0.316   4.141  11.961
36282SOL    HW210744   0.254   4.153  11.823
36283SOL     OW10745   4.664  13.881   5.171
36283SOL    HW110746   4.631  13.968   5.194
36283SOL    HW210747   4.668  13.834   5.255
36284SOL     OW10748   5.399   6.411  12.196
36284SOL    HW110749   5.402   6.494  12.243
36284SOL    HW210750   5.442   6.429  12.112
36285SOL     OW10751   3.741  14.070   2.900
36285SOL    HW110752   3.649  14.050   2.879
36285SOL    HW210753   3.788  13.989   2.883
36286SOL     OW10754  10.459   2.449   0.780
36286SOL    HW110755  10.440   2.523   0.723
36286SOL    HW210756  10.424   2.373   0.734
36287SOL     OW10757   1.462  11.655  11.819
36287SOL    HW110758   1.512  11.714  11.763
36287SOL    HW210759   1.391  11.709  11.854
36288SOL     OW10760   0.237  13.512  11.139
36288SOL    HW110761   0.236  13.491  11.232
36288SOL    HW210762   0.168  13.578  11.128
36289SOL     OW10763   1.216  11.269   0.014
36289SOL    HW110764   1.227  11.231  14.799
36289SOL    HW210765   1.121  11.277   0.025
36290SOL     OW10766  13.555   3.631   6.753
36290SOL    HW110767  13.468   3.621   6.714
36290SOL    HW210768  13.549   3.585   6.837
36291SOL     OW10769   0.253  12.128  11.791
36291SOL    HW110770   0.219  12.095  11.708
36291SOL    HW210771   0.175  12.148  11.842
36292SOL     OW10772  10.109   4.051   4.190
36292SOL    HW110773  10.133   3.959   4.177
36292SOL    HW210774  10.124   4.067   4.284
36293SOL     OW10775   2.205   6.475  10.114
36293SOL    HW110776   2.167   6.466  10.201
36293SOL    HW210777   2.144   6.533  10.068
36294SOL     OW10778  13.671  13.712   2.840
36294SOL    HW110779  13.686  13.778   2.907
36294SOL    HW210780  13.580  13.684   2.853
36295SOL     OW10781  12.275  13.910   3.911
36295SOL    HW110782  12.273  13.944   4.000
36295SOL    HW210783  12.183  13.895   3.889
36296SOL     OW10784  12.345   1.999   5.068
36296SOL    HW110785  12.334   2.001   5.163
36296SOL    HW210786  12.282   1.934   5.038
36297SOL     OW10787  13.638  13.509   5.894
36297SOL    HW110788  13.576  13.464   5.836
36297SOL    HW210789  13.582  13.554   5.958
36298SOL     OW10790  12.130   4.848   8.830
36298SOL    HW110791  12.110   4.928   8.782
36298SOL    HW210792  12.047   4.800   8.833
36299SOL     OW10793   2.192   5.052   9.656
36299SOL    HW110794   2.151   5.137   9.669
36299SOL    HW210795   2.164   5.000   9.732
36300SOL     OW10796  12.955  13.071  13.948
36300SOL    HW110797  12.903  13.018  14.008
36300SOL    HW210798  13.015  13.009  13.906
36301SOL     OW10799   4.442   7.364   5.520
36301SOL    HW110800   4.401   7.443   5.556
36301SOL    HW210801   4.419   7.295   5.582
36302SOL     OW10802   0.479  14.156  13.662
36302SOL    HW110803   0.441  14.227  13.714
36302SOL    HW210804   0.412  14.088  13.661
36303SOL     OW10805  13.747  10.932   0.357
36303SOL    HW110806  13.797  10.860   0.319
36303SOL    HW210807  13.766  10.928   0.451
36304SOL     OW10808  11.766   9.666   9.055
36304SOL    HW110809  11.839   9.689   9.113
36304SOL    HW210810  11.691   9.656   9.114
36305SOL     OW10811   9.167  13.985   0.077
36305SOL    HW110812   9.233  13.948   0.136
36305SOL    HW210813   9.164  13.923   0.004
36306SOL     OW10814  14.659   4.431  12.083
36306SOL    HW110815  14.751   4.449  12.106
36306SOL    HW210816  14.665   4.382  12.001
36307SOL     OW10817   8.173  11.690  11.184
36307SOL    HW110818   8.215  11.744  11.252
36307SOL    HW210819   8.166  11.604  11.224
36308SOL     OW10820  11.115   6.299  10.204
36308SOL    HW110821  11.143   6.389  10.186
36308SOL    HW210822  11.174   6.270  10.275
36309SOL     OW10823   5.153  14.390  12.641
36309SOL    HW110824   5.085  14.453  12.666
36309SOL    HW210825   5.173  14.411  12.550
36310SOL     OW10826  14.513  12.014   9.515
36310SOL    HW110827  14.518  11.922   9.541
36310SOL    HW210828  14.535  12.063   9.595
36311SOL     OW10829  12.327   8.174   8.955
36311SOL    HW110830  12.281   8.091   8.970
36311SOL    HW210831  12.257   8.238   8.944
36312SOL     OW10832   3.189   1.097  10.854
36312SOL    HW110833   3.135   1.147  10.792
36312SOL    HW210834   3.179   1.006  10.827
36313SOL     OW10835   8.766   6.612   5.108
36313SOL    HW110836   8.738   6.644   5.022
36313SOL    HW210837   8.685   6.600   5.156
36314SOL     OW10838   1.326   5.152   1.321
36314SOL    HW110839   1.372   5.220   1.371
36314SOL    HW210840   1.233   5.171   1.335
36315SOL     OW10841   9.025   1.592   2.216
36315SOL    HW110842   8.957   1.556   2.159
36315SOL    HW210843   9.103   1.542   2.194
36316SOL     OW10844   7.408  12.166   0.898
36316SOL    HW110845   7.502  12.180   0.886
36316SOL    HW210846   7.397  12.071   0.892
36317SOL     OW10847   5.755   9.994  10.598
36317SOL    HW110848   5.838   9.980  10.552
36317SOL    HW210849   5.763   9.941  10.678
36318SOL     OW10850  13.991  11.665   1.898
36318SOL    HW110851  13.943  11.677   1.979
36318SOL    HW210852  14.035  11.749   1.883
36319SOL     OW10853   2.470   9.368  12.604
36319SOL    HW110854   2.554   9.393  12.641
36319SOL    HW210855   2.470   9.272  12.607
36320SOL     OW10856   8.557   9.236   0.308
36320SOL    HW110857   8.482   9.215   0.363
36320SOL    HW210858   8.629   9.186   0.345
36321SOL     OW10859  13.571  14.018   3.376
36321SOL    HW110860  13.511  14.026   3.450
36321SOL    HW210861  13.534  13.949   3.322
36322SOL     OW10862   3.910  14.391   1.135
36322SOL    HW110863   3.900  14.365   1.227
36322SOL    HW210864   3.954  14.476   1.139
36323SOL     OW10865  14.281   7.506  10.963
36323SOL    HW110866  14.227   7.582  10.943
36323SOL    HW210867  14.371   7.539  10.964
36324SOL     OW10868  10.222  13.812   6.732
36324SOL    HW110869  10.163  13.740   6.712
36324SOL    HW210870  10.237  13.854   6.647
36325SOL     OW10871   4.850  13.478   4.440
36325SOL    HW110872   4.835  13.467   4.346
36325SOL    HW210873   4.891  13.397   4.468
36326SOL     OW10874   8.803  10.998   0.148
36326SOL    HW110875   8.804  10.948   0.066
36326SOL    HW210876   8.870  10.956   0.202
36327SOL     OW10877   8.792   2.549   9.223
36327SOL    HW110878   8.852   2.620   9.246
36327SOL    HW210879   8.800   2.487   9.296
36328SOL     OW10880  13.570   0.907   2.107
36328SOL    HW110881  13.653   0.955   2.113
36328SOL    HW210882  13.561   0.863   2.192
36329SOL     OW10883   9.302   8.940   0.144
36329SOL    HW110884   9.313   9.006   0.212
36329SOL    HW210885   9.258   8.867   0.188
36330SOL     OW10886  13.088   8.335   5.034
36330SOL    HW110887  13.081   8.396   4.961
36330SOL    HW210888  13.020   8.270   5.016
36331SOL     OW10889  13.368   6.227   1.527
36331SOL    HW110890  13.455   6.267   1.538
36331SOL    HW210891  13.312   6.299   1.498
36332SOL     OW10892  10.391   5.075   2.814
36332SOL    HW110893  10.451   5.140   2.777
36332SOL    HW210894  10.317   5.126   2.846
36333SOL     OW10895  10.220   6.818   7.016
36333SOL    HW110896  10.198   6.886   6.951
36333SOL    HW210897  10.249   6.743   6.964
36334SOL     OW10898   9.298   0.514  10.146
36334SOL    HW110899   9.361   0.580  10.172
36334SOL    HW210900   9.292   0.523  10.051
36335SOL     OW10901   3.622   1.308  11.631
36335SOL    HW110902   3.644   1.335  11.542
36335SOL    HW210903   3.531   1.335  11.643
36336SOL     OW10904   0.767   4.785   5.636
36336SOL    HW110905   0.700   4.828   5.689
36336SOL    HW210906   0.721   4.759   5.556
36337SOL     OW10907   6.445   5.167  10.013
36337SOL    HW110908   6.398   5.144   9.932
36337SOL    HW210909   6.419   5.258  10.029
36338SOL     OW10910  14.611   2.875   7.919
36338SOL    HW110911  14.659   2.888   8.001
36338SOL    HW210912  14.660   2.807   7.874
36339SOL     OW10913  13.022   9.615   6.304
36339SOL    HW110914  13.091   9.654   6.252
36339SOL    HW210915  12.991   9.686   6.360
36340SOL     OW10916   2.694   9.038   1.401
36340SOL    HW110917   2.728   9.067   1.317
36340SOL    HW210918   2.772   9.020   1.454
36341SOL     OW10919   2.060   4.141  12.914
36341SOL    HW110920   1.970   4.143  12.948
36341SOL    HW210921   2.055   4.083  12.837
36342SOL     OW10922   6.039   9.846   3.993
36342SOL    HW110923   5.977   9.837   3.920
36342SOL    HW210924   6.024   9.934   4.026
36343SOL     OW10925   9.760  11.111   9.909
36343SOL    HW110926   9.777  11.085   9.819
36343SOL    HW210927   9.842  11.149   9.939
36344SOL     OW10928   8.857   7.649   4.981
36344SOL    HW110929   8.784   7.605   5.025
36344SOL    HW210930   8.845   7.627   4.888
36345SOL     OW10931   4.536  10.132  14.200
36345SOL    HW110932   4.546  10.155  14.108
36345SOL    HW210933   4.550  10.214  14.247
36346SOL     OW10934  13.984   9.144  11.305
36346SOL    HW110935  13.949   9.198  11.377
36346SOL    HW210936  14.075   9.129  11.329
36347SOL     OW10937   8.470  12.752   4.934
36347SOL    HW110938   8.520  12.720   4.858
36347SOL    HW210939   8.537  12.789   4.993
36348SOL     OW10940   7.506   7.537   9.813
36348SOL    HW110941   7.535   7.529   9.903
36348SOL    HW210942   7.411   7.522   9.817
36349SOL     OW10943   5.651   6.074   7.323
36349SOL    HW110944   5.729   6.062   7.378
36349SOL    HW210945   5.663   6.012   7.251
36350SOL     OW10946   2.780  11.029  11.206
36350SOL    HW110947   2.851  11.073  11.253
36350SOL    HW210948   2.809  11.028  11.114
36351SOL     OW10949  10.101   5.803  12.675
36351SOL    HW110950  10.078   5.888  12.637
36351SOL    HW210951  10.030   5.745  12.649
36352SOL     OW10952   2.652   0.572   0.428
36352SOL    HW110953   2.725   0.584   0.489
36352SOL    HW210954   2.603   0.654   0.432
36353SOL     OW10955   6.957   8.403   4.177
36353SOL    HW110956   6.984   8.368   4.262
36353SOL    HW210957   6.916   8.328   4.133
36354SOL     OW10958  10.331   3.140   4.203
36354SOL    HW110959  10.250   3.164   4.248
36354SOL    HW210960  10.314   3.159   4.110
36355SOL     OW10961   2.659   1.111   0.507
36355SOL    HW110962   2.689   1.196   0.473
36355SOL    HW210963   2.569   1.128   0.535
36356SOL     OW10964   0.788   8.963   2.484
36356SOL    HW110965   0.704   9.001   2.511
36356SOL    HW210966   0.787   8.969   2.388
36357SOL     OW10967   1.343   1.141   7.264
36357SOL    HW110968   1.292   1.184   7.195
36357SOL    HW210969   1.428   1.184   7.261
36358SOL     OW10970   5.542   4.236  14.538
36358SOL    HW110971   5.514   4.150  14.571
36358SOL    HW210972   5.614   4.215  14.478
36359SOL     OW10973  13.023   8.277  11.057
36359SOL    HW110974  13.037   8.233  10.973
36359SOL    HW210975  13.079   8.355  11.052
36360SOL     OW10976   9.277   7.524   9.867
36360SOL    HW110977   9.255   7.493   9.954
36360SOL    HW210978   9.246   7.614   9.865
36361SOL     OW10979   6.808  13.425  14.376
36361SOL    HW110980   6.868  13.365  14.420
36361SOL    HW210981   6.721  13.385  14.387
36362SOL     OW10982  11.047   7.455  11.283
36362SOL    HW110983  11.024   7.369  11.250
36362SOL    HW210984  10.970   7.484  11.332
36363SOL     OW10985   2.906   7.490   8.253
36363SOL    HW110986   2.894   7.574   8.299
36363SOL    HW210987   2.870   7.506   8.166
36364SOL     OW10988   4.494   9.114  13.582
36364SOL    HW110989   4.539   9.118  13.497
36364SOL    HW210990   4.561   9.141  13.645
36365SOL     OW10991   9.712  12.429   2.237
36365SOL    HW110992   9.649  12.447   2.306
36365SOL    HW210993   9.659  12.416   2.159
36366SOL     OW10994   4.102   6.817   9.496
36366SOL    HW110995   4.158   6.894   9.488
36366SOL    HW210996   4.022   6.850   9.538
36367SOL     OW10997  11.091  14.830  14.706
36367SOL    HW110998  11.140  14.754  14.673
36367SOL    HW210999  11.157   0.014  14.746
36368SOL     OW11000   9.628   0.184   5.064
36368SOL    HW111001   9.722   0.198   5.065
36368SOL    HW211002   9.590   0.271   5.078
36369SOL     OW11003   8.006   4.049   2.340
36369SOL    HW111004   8.066   4.068   2.269
36369SOL    HW211005   8.058   3.997   2.402
36370SOL     OW11006  11.710   1.442   3.187
36370SOL    HW111007  11.749   1.367   3.141
36370SOL    HW211008  11.631   1.407   3.228
36371SOL     OW11009   1.686  12.039   3.868
36371SOL    HW111010   1.674  12.020   3.776
36371SOL    HW211011   1.780  12.058   3.877
36372SOL     OW11012  12.179   0.095   3.011
36372SOL    HW111013  12.166   0.001   3.021
36372SOL    HW211014  12.092   0.130   2.994
36373SOL     OW11015  11.533   4.882  12.892
36373SOL    HW111016  11.610   4.902  12.946
36373SOL    HW211017  11.459   4.888  12.952
36374SOL     OW11018  12.554   6.904  11.933
36374SOL    HW111019  12.501   6.980  11.957
36374SOL    HW211020  12.556   6.850  12.012
36375SOL     OW11021  12.522   6.372   1.537
36375SOL    HW111022  12.554   6.349   1.449
36375SOL    HW211023  12.436   6.411   1.521
36376SOL     OW11024   1.064   8.739   8.752
36376SOL    HW111025   1.139   8.778   8.797
36376SOL    HW211026   1.022   8.684   8.818
36377SOL     OW11027   0.180   3.520   5.692
36377SOL    HW111028   0.219   3.589   5.638
36377SOL    HW211029   0.255   3.476   5.733
36378SOL     OW11030  10.731   6.905   8.774
36378SOL    HW111031  10.755   6.827   8.725
36378SOL    HW211032  10.636   6.912   8.764
36379SOL     OW11033   2.355  10.157   9.241
36379SOL    HW111034   2.398  10.189   9.161
36379SOL    HW211035   2.424  10.110   9.288
36380SOL     OW11036   3.037  13.076   7.570
36380SOL    HW111037   3.109  13.016   7.550
36380SOL    HW211038   3.060  13.157   7.524
36381SOL     OW11039   3.988  14.125   6.389
36381SOL    HW111040   4.036  14.045   6.363
36381SOL    HW211041   3.983  14.177   6.309
36382SOL     OW11042   9.684  13.035   6.339
36382SOL    HW111043   9.670  12.996   6.253
36382SOL    HW211044   9.755  12.983   6.377
36383SOL     OW11045   1.659   3.766   6.085
36383SOL    HW111046   1.569   3.796   6.094
36383SOL    HW211047   1.660   3.719   6.002
36384SOL     OW11048   9.974   3.379   3.503
36384SOL    HW111049  10.045   3.413   3.448
36384SOL    HW211050   9.894   3.406   3.458
36385SOL     OW11051  14.582  12.374   0.236
36385SOL    HW111052  14.597  12.331   0.152
36385SOL    HW211053  14.599  12.305   0.301
36386SOL     OW11054  10.528   8.054  11.073
36386SOL    HW111055  10.454   8.005  11.108
36386SOL    HW211056  10.580   8.077  11.150
36387SOL     OW11057   3.012   1.663   2.866
36387SOL    HW111058   2.969   1.724   2.926
36387SOL    HW211059   3.006   1.578   2.910
36388SOL     OW11060   1.608   4.174   3.633
36388SOL    HW111061   1.583   4.259   3.597
36388SOL    HW211062   1.704   4.173   3.630
36389SOL     OW11063  13.102  13.880   4.130
36389SOL    HW111064  13.009  13.885   4.152
36389SOL    HW211065  13.139  13.821   4.195
36390SOL     OW11066  11.951   9.171   4.754
36390SOL    HW111067  12.004   9.206   4.682
36390SOL    HW211068  11.868   9.219   4.748
36391SOL     OW11069   8.091  14.600   8.763
36391SOL    HW111070   8.052  14.605   8.850
36391SOL    HW211071   8.026  14.640   8.705
36392SOL     OW11072   9.438  10.699   8.295
36392SOL    HW111073   9.490  10.741   8.364
36392SOL    HW211074   9.352  10.685   8.334
36393SOL     OW11075   7.839  12.550  14.549
36393SOL    HW111076   7.818  12.635  14.588
36393SOL    HW211077   7.877  12.572  14.463
36394SOL     OW11078   8.104  14.212   1.842
36394SOL    HW111079   8.124  14.281   1.779
36394SOL    HW211080   8.134  14.246   1.926
36395SOL     OW11081   0.265   1.319  10.699
36395SOL    HW111082   0.282   1.285  10.787
36395SOL    HW211083   0.338   1.287  10.646
36396SOL     OW11084  10.974   0.341   1.109
36396SOL    HW111085  10.944   0.270   1.166
36396SOL    HW211086  10.934   0.322   1.024
36397SOL     OW11087   3.420   6.118   3.180
36397SOL    HW111088   3.374   6.196   3.148
36397SOL    HW211089   3.498   6.112   3.125
36398SOL     OW11090  11.498   1.953   7.282
36398SOL    HW111091  11.471   1.863   7.301
36398SOL    HW211092  11.578   1.943   7.231
36399SOL     OW11093  13.079  12.755   3.203
36399SOL    HW111094  13.032  12.839   3.211
36399SOL    HW211095  13.106  12.751   3.112
36400SOL     OW11096   8.462   2.948  11.683
36400SOL    HW111097   8.461   3.005  11.606
36400SOL    HW211098   8.546   2.904  11.679
36401SOL     OW11099  14.050   7.114   7.891
36401SOL    HW111100  13.983   7.180   7.905
36401SOL    HW211101  14.002   7.035   7.865
36402SOL     OW11102   3.692   9.749   9.862
36402SOL    HW111103   3.677   9.706   9.777
36402SOL    HW211104   3.732   9.681   9.916
36403SOL     OW11105  14.295   0.195   9.194
36403SOL    HW111106  14.251   0.274   9.164
36403SOL    HW211107  14.264   0.182   9.284
36404SOL     OW11108  14.387  11.232  12.111
36404SOL    HW111109  14.327  11.157  12.104
36404SOL    HW211110  14.418  11.229  12.202
36405SOL     OW11111   9.992   2.382   2.488
36405SOL    HW111112  10.065   2.359   2.546
36405SOL    HW211113   9.915   2.343   2.529
36406SOL     OW11114   0.132   0.602   6.389
36406SOL    HW111115   0.144   0.692   6.418
36406SOL    HW211116   0.117   0.609   6.295
36407SOL     OW11117   4.144   0.307   6.379
36407SOL    HW111118   4.188   0.362   6.315
36407SOL    HW211119   4.211   0.288   6.445
36408SOL     OW11120   3.680   1.387  12.005
36408SOL    HW111121   3.648   1.474  12.030
36408SOL    HW211122   3.602   1.337  11.984
36409SOL     OW11123   5.326  10.791   2.933
36409SOL    HW111124   5.366  10.737   3.001
36409SOL    HW211125   5.350  10.748   2.851
36410SOL     OW11126  13.701   4.697   3.097
36410SOL    HW111127  13.669   4.770   3.150
36410SOL    HW211128  13.793   4.688   3.122
36411SOL     OW11129   2.565  11.103  13.855
36411SOL    HW111130   2.482  11.111  13.808
36411SOL    HW211131   2.631  11.092  13.786
36412SOL     OW11132   7.628   5.654   1.030
36412SOL    HW111133   7.620   5.566   1.065
36412SOL    HW211134   7.599   5.711   1.101
36413SOL     OW11135  11.915  12.047   1.700
36413SOL    HW111136  11.849  12.102   1.657
36413SOL    HW211137  11.893  11.958   1.674
36414SOL     OW11138   6.637   7.963  13.894
36414SOL    HW111139   6.697   7.945  13.966
36414SOL    HW211140   6.661   8.050  13.863
36415SOL     OW11141  13.217  14.200   9.602
36415SOL    HW111142  13.260  14.284   9.620
36415SOL    HW211143  13.246  14.142   9.672
36416SOL     OW11144  13.198   4.562  13.822
36416SOL    HW111145  13.233   4.646  13.851
36416SOL    HW211146  13.110   4.558  13.861
36417SOL     OW11147  11.992  13.884   9.952
36417SOL    HW111148  11.897  13.883   9.961
36417SOL    HW211149  12.011  13.968   9.911
36418SOL     OW11150  11.574   9.649   7.721
36418SOL    HW111151  11.487   9.679   7.695
36418SOL    HW211152  11.598   9.706   7.794
36419SOL     OW11153   0.673   1.842   9.605
36419SOL    HW111154   0.766   1.832   9.627
36419SOL    HW211155   0.660   1.784   9.531
36420SOL     OW11156   5.850  13.667   9.692
36420SOL    HW111157   5.906  13.639   9.764
36420SOL    HW211158   5.909  13.676   9.617
36421SOL     OW11159   6.584   6.547  14.449
36421SOL    HW111160   6.669   6.591  14.453
36421SOL    HW211161   6.520   6.617  14.439
36422SOL     OW11162   6.564  11.775   9.815
36422SOL    HW111163   6.648  11.731   9.817
36422SOL    HW211164   6.541  11.787   9.907
36423SOL     OW11165  11.713  12.604  10.364
36423SOL    HW111166  11.761  12.566  10.290
36423SOL    HW211167  11.768  12.585  10.440
36424SOL     OW11168   5.396  10.928   0.472
36424SOL    HW111169   5.392  10.837   0.503
36424SOL    HW211170   5.320  10.936   0.414
36425SOL     OW11171  13.531   3.892   7.415
36425SOL    HW111172  13.596   3.962   7.399
36425SOL    HW211173  13.489   3.879   7.330
36426SOL     OW11174   9.617  13.576  11.201
36426SOL    HW111175   9.556  13.534  11.139
36426SOL    HW211176   9.696  13.590  11.150
36427SOL     OW11177   2.082   7.062   7.405
36427SOL    HW111178   1.999   7.019   7.424
36427SOL    HW211179   2.134   7.050   7.484
36428SOL     OW11180  14.496   4.181   5.542
36428SOL    HW111181  14.455   4.263   5.513
36428SOL    HW211182  14.479   4.119   5.471
36429SOL     OW11183  14.584   2.191  14.243
36429SOL    HW111184  14.503   2.169  14.197
36429SOL    HW211185  14.566   2.171  14.335
36430SOL     OW11186   2.498   1.762  10.778
36430SOL    HW111187   2.589   1.736  10.792
36430SOL    HW211188   2.494   1.853  10.809
36431SOL     OW11189   5.528   7.418  13.632
36431SOL    HW111190   5.475   7.380  13.562
36431SOL    HW211191   5.612   7.438  13.591
36432SOL     OW11192  14.402   7.617   1.965
36432SOL    HW111193  14.449   7.654   2.040
36432SOL    HW211194  14.320   7.666   1.961
36433SOL     OW11195   4.723   2.807   7.853
36433SOL    HW111196   4.637   2.769   7.837
36433SOL    HW211197   4.773   2.787   7.773
36434SOL     OW11198   1.259   2.106  11.650
36434SOL    HW111199   1.251   2.153  11.567
36434SOL    HW211200   1.170   2.077  11.670
36435SOL     OW11201   9.903   1.940  12.528
36435SOL    HW111202   9.860   2.021  12.503
36435SOL    HW211203   9.836   1.872  12.515
36436SOL     OW11204   4.711   7.587   4.641
36436SOL    HW111205   4.621   7.604   4.668
36436SOL    HW211206   4.751   7.545   4.718
36437SOL     OW11207  12.585   8.714   7.081
36437SOL    HW111208  12.629   8.724   7.165
36437SOL    HW211209  12.494   8.739   7.098
36438SOL     OW11210   6.341   2.086   8.959
36438SOL    HW111211   6.314   1.994   8.950
36438SOL    HW211212   6.332   2.104   9.052
36439SOL     OW11213   2.318   1.554   2.346
36439SOL    HW111214   2.232   1.566   2.386
36439SOL    HW211215   2.314   1.468   2.305
36440SOL     OW11216   9.245   2.582   3.185
36440SOL    HW111217   9.313   2.647   3.203
36440SOL    HW211218   9.163   2.631   3.189
36441SOL     OW11219   4.104   9.137   0.654
36441SOL    HW111220   4.011   9.117   0.659
36441SOL    HW211221   4.110   9.231   0.673
36442SOL     OW11222  11.866   0.186   0.440
36442SOL    HW111223  11.783   0.233   0.444
36442SOL    HW211224  11.917   0.231   0.372
36443SOL     OW11225  13.534  12.693  10.937
36443SOL    HW111226  13.611  12.679  10.992
36443SOL    HW211227  13.466  12.723  10.998
36444SOL     OW11228   9.553   9.008   3.079
36444SOL    HW111229   9.551   9.023   2.984
36444SOL    HW211230   9.499   9.078   3.116
36445SOL     OW11231   8.330   8.585  10.493
36445SOL    HW111232   8.374   8.634  10.562
36445SOL    HW211233   8.347   8.635  10.413
36446SOL     OW11234   8.218   5.984   3.832
36446SOL    HW111235   8.145   6.044   3.845
36446SOL    HW211236   8.183   5.914   3.777
36447SOL     OW11237  14.497  13.021  10.527
36447SOL    HW111238  14.413  13.023  10.481
36447SOL    HW211239  14.480  12.970  10.606
36448SOL     OW11240   8.641  11.499   0.454
36448SOL    HW111241   8.623  11.446   0.531
36448SOL    HW211242   8.648  11.589   0.487
36449SOL     OW11243   4.930   6.220   8.987
36449SOL    HW111244   4.846   6.224   8.942
36449SOL    HW211245   4.975   6.301   8.962
36450SOL     OW11246   6.169   8.636  10.038
36450SOL    HW111247   6.260   8.607  10.033
36450SOL    HW211248   6.155   8.650  10.132
36451SOL     OW11249   2.935  12.966   0.509
36451SOL    HW111250   3.015  12.989   0.462
36451SOL    HW211251   2.885  12.913   0.447
36452SOL     OW11252   0.743   6.443   8.049
36452SOL    HW111253   0.816   6.403   8.001
36452SOL    HW211254   0.785   6.489   8.121
36453SOL     OW11255   5.979  13.992   2.540
36453SOL    HW111256   5.899  14.008   2.489
36453SOL    HW211257   6.046  13.977   2.475
36454SOL     OW11258   2.672   6.370   8.011
36454SOL    HW111259   2.625   6.415   7.940
36454SOL    HW211260   2.657   6.426   8.088
36455SOL     OW11261   5.696   5.868  13.467
36455SOL    HW111262   5.709   5.909  13.553
36455SOL    HW211263   5.603   5.847  13.465
36456SOL     OW11264  11.511   6.849   7.952
36456SOL    HW111265  11.443   6.837   7.886
36456SOL    HW211266  11.592   6.826   7.907
36457SOL     OW11267  12.695   0.458   7.797
36457SOL    HW111268  12.627   0.435   7.734
36457SOL    HW211269  12.731   0.541   7.765
36458SOL     OW11270  10.418  12.416   8.229
36458SOL    HW111271  10.352  12.469   8.184
36458SOL    HW211272  10.436  12.464   8.310
36459SOL     OW11273   6.840   4.047  12.517
36459SOL    HW111274   6.930   4.034  12.549
36459SOL    HW211275   6.829   4.142  12.515
36460SOL     OW11276   2.775   3.442  11.754
36460SOL    HW111277   2.853   3.401  11.791
36460SOL    HW211278   2.807   3.520  11.709
36461SOL     OW11279   2.849  13.334   9.004
36461SOL    HW111280   2.778  13.348   9.066
36461SOL    HW211281   2.914  13.285   9.053
36462SOL     OW11282   4.158   5.710   8.428
36462SOL    HW111283   4.165   5.704   8.332
36462SOL    HW211284   4.235   5.760   8.455
36463SOL     OW11285  13.597   8.757   1.540
36463SOL    HW111286  13.623   8.701   1.466
36463SOL    HW211287  13.526   8.811   1.506
36464SOL     OW11288  12.838  11.043   0.331
36464SOL    HW111289  12.926  11.060   0.365
36464SOL    HW211290  12.784  11.115   0.364
36465SOL     OW11291   1.921   4.546   9.517
36465SOL    HW111292   1.831   4.570   9.536
36465SOL    HW211293   1.965   4.630   9.499
36466SOL     OW11294   7.057   5.765   1.065
36466SOL    HW111295   6.969   5.747   1.100
36466SOL    HW211296   7.047   5.848   1.018
36467SOL     OW11297  12.706   2.199   7.761
36467SOL    HW111298  12.782   2.257   7.752
36467SOL    HW211299  12.632   2.259   7.766
36468SOL     OW11300  10.594  14.851  12.150
36468SOL    HW111301  10.604   0.059  12.098
36468SOL    HW211302  10.500  14.839  12.157
36469SOL     OW11303   2.650   5.302  12.988
36469SOL    HW111304   2.606   5.222  12.962
36469SOL    HW211305   2.580   5.360  13.019
36470SOL     OW11306   7.504  11.546  14.065
36470SOL    HW111307   7.546  11.461  14.080
36470SOL    HW211308   7.530  11.600  14.139
36471SOL     OW11309  10.526  10.731   3.991
36471SOL    HW111310  10.442  10.687   3.979
36471SOL    HW211311  10.572  10.679   4.057
36472SOL     OW11312   4.175   7.558  11.637
36472SOL    HW111313   4.167   7.465  11.657
36472SOL    HW211314   4.192   7.599  11.722
36473SOL     OW11315   0.053   5.773   3.969
36473SOL    HW111316   0.095   5.852   3.934
36473SOL    HW211317   0.006   5.802   4.046
36474SOL     OW11318   1.747   4.772   1.381
36474SOL    HW111319   1.780   4.820   1.305
36474SOL    HW211320   1.772   4.825   1.456
36475SOL     OW11321  14.265   4.487  13.212
36475SOL    HW111322  14.206   4.476  13.138
36475SOL    HW211323  14.213   4.533  13.278
36476SOL     OW11324   7.182   5.150  13.693
36476SOL    HW111325   7.157   5.090  13.762
36476SOL    HW211326   7.277   5.140  13.685
36477SOL     OW11327   1.860   7.919   2.475
36477SOL    HW111328   1.905   7.933   2.559
36477SOL    HW211329   1.845   8.007   2.441
36478SOL     OW11330   1.909   2.027   7.119
36478SOL    HW111331   1.947   2.051   7.034
36478SOL    HW211332   1.965   1.955   7.150
36479SOL     OW11333   7.005   1.583   8.737
36479SOL    HW111334   7.010   1.487   8.735
36479SOL    HW211335   6.989   1.608   8.646
36480SOL     OW11336  13.599   5.224   9.075
36480SOL    HW111337  13.662   5.159   9.046
36480SOL    HW211338  13.542   5.177   9.137
36481SOL     OW11339   3.668   3.944   2.010
36481SOL    HW111340   3.710   4.021   1.972
36481SOL    HW211341   3.630   3.975   2.092
36482SOL     OW11342  12.948   1.802   2.510
36482SOL    HW111343  12.912   1.890   2.502
36482SOL    HW211344  13.043   1.814   2.501
36483SOL     OW11345   7.886   2.256   5.409
36483SOL    HW111346   7.864   2.213   5.491
36483SOL    HW211347   7.964   2.211   5.378
36484SOL     OW11348   0.200  10.047   1.837
36484SOL    HW111349   0.251   9.971   1.866
36484SOL    HW211350   0.246  10.122   1.874
36485SOL     OW11351   4.444   7.543   4.719
36485SOL    HW111352   4.484   7.465   4.757
36485SOL    HW211353   4.374   7.567   4.779
36486SOL     OW11354   5.155   7.644   3.905
36486SOL    HW111355   5.086   7.634   3.840
36486SOL    HW211356   5.207   7.564   3.898
36487SOL     OW11357   1.052  12.351  10.561
36487SOL    HW111358   0.986  12.384  10.499
36487SOL    HW211359   1.028  12.260  10.574
36488SOL     OW11360   5.069  14.044   7.366
36488SOL    HW111361   4.984  14.057   7.408
36488SOL    HW211362   5.103  14.133   7.353
36489SOL     OW11363   2.028   9.529  10.901
36489SOL    HW111364   1.998   9.569  10.982
36489SOL    HW211365   1.948   9.507  10.854
36490SOL     OW11366   1.692  13.755   3.783
36490SOL    HW111367   1.679  13.671   3.826
36490SOL    HW211368   1.657  13.743   3.695
36491SOL     OW11369  12.764   0.774  10.738
36491SOL    HW111370  12.849   0.734  10.759
36491SOL    HW211371  12.781   0.822  10.657
36492SOL     OW11372   7.733   2.644   1.171
36492SOL    HW111373   7.773   2.632   1.256
36492SOL    HW211374   7.805   2.636   1.109
36493SOL     OW11375   1.821   2.248   2.248
36493SOL    HW111376   1.869   2.176   2.208
36493SOL    HW211377   1.881   2.322   2.243
36494SOL     OW11378   5.669   7.759   5.613
36494SOL    HW111379   5.656   7.807   5.532
36494SOL    HW211380   5.721   7.683   5.588
36495SOL     OW11381   8.282   7.950   8.466
36495SOL    HW111382   8.196   7.930   8.504
36495SOL    HW211383   8.266   7.948   8.371
36496SOL     OW11384  12.625   3.727   3.362
36496SOL    HW111385  12.540   3.762   3.387
36496SOL    HW211386  12.687   3.768   3.422
36497SOL     OW11387  10.576  12.510  12.197
36497SOL    HW111388  10.519  12.495  12.272
36497SOL    HW211389  10.644  12.443  12.206
36498SOL     OW11390   0.461   4.721  12.393
36498SOL    HW111391   0.462   4.675  12.309
36498SOL    HW211392   0.371   4.713  12.424
36499SOL     OW11393   8.862   9.624   0.582
36499SOL    HW111394   8.888   9.587   0.497
36499SOL    HW211395   8.773   9.655   0.568
36500SOL     OW11396   6.528   2.082  12.180
36500SOL    HW111397   6.509   2.120  12.094
36500SOL    HW211398   6.499   1.991  12.173
36501SOL     OW11399   5.765   0.510   6.299
36501SOL    HW111400   5.724   0.431   6.263
36501SOL    HW211401   5.692   0.569   6.317
36502SOL     OW11402   0.431  11.547   3.064
36502SOL    HW111403   0.395  11.586   2.984
36502SOL    HW211404   0.512  11.505   3.035
36503SOL     OW11405   9.026   7.342   0.047
36503SOL    HW111406   8.965   7.405   0.009
36503SOL    HW211407   8.973   7.264   0.061
36504SOL     OW11408  14.582   7.754   2.517
36504SOL    HW111409  14.655   7.714   2.469
36504SOL    HW211410  14.522   7.681   2.534
36505SOL     OW11411  11.681  13.653  11.649
36505SOL    HW111412  11.642  13.638  11.563
36505SOL    HW211413  11.723  13.739  11.642
36506SOL     OW11414   9.539   0.591  14.123
36506SOL    HW111415   9.621   0.553  14.153
36506SOL    HW211416   9.564   0.670  14.077
36507SOL     OW11417   4.640   2.968   5.462
36507SOL    HW111418   4.629   2.942   5.371
36507SOL    HW211419   4.555   2.951   5.502
36508SOL     OW11420   4.941  14.315   6.141
36508SOL    HW111421   4.999  14.301   6.066
36508SOL    HW211422   5.000  14.315   6.217
36509SOL     OW11423   5.260   9.265   0.830
36509SOL    HW111424   5.178   9.253   0.782
36509SOL    HW211425   5.273   9.359   0.832
36510SOL     OW11426   6.711   8.792   2.186
36510SOL    HW111427   6.692   8.845   2.108
36510SOL    HW211428   6.791   8.745   2.163
36511SOL     OW11429   2.713   9.353   7.681
36511SOL    HW111430   2.808   9.353   7.669
36511SOL    HW211431   2.696   9.423   7.744
36512SOL     OW11432   3.424  12.056   9.976
36512SOL    HW111433   3.339  12.026   9.944
36512SOL    HW211434   3.456  11.985  10.032
36513SOL     OW11435   6.419  13.593  13.852
36513SOL    HW111436   6.513  13.611  13.859
36513SOL    HW211437   6.381  13.633  13.930
36514SOL     OW11438  12.313   1.875   9.840
36514SOL    HW111439  12.351   1.860   9.926
36514SOL    HW211440  12.271   1.792   9.817
36515SOL     OW11441  10.631  11.619   5.518
36515SOL    HW111442  10.609  11.697   5.570
36515SOL    HW211443  10.547  11.587   5.486
36516SOL     OW11444   9.451   2.554  12.415
36516SOL    HW111445   9.411   2.621  12.360
36516SOL    HW211446   9.380   2.494  12.435
36517SOL     OW11447   1.949  10.503  10.495
36517SOL    HW111448   2.034  10.479  10.458
36517SOL    HW211449   1.889  10.438  10.460
36518SOL     OW11450  10.805  12.297   3.909
36518SOL    HW111451  10.775  12.316   3.997
36518SOL    HW211452  10.745  12.230   3.877
36519SOL     OW11453  10.659   9.390   0.236
36519SOL    HW111454  10.664   9.366   0.143
36519SOL    HW211455  10.570   9.426   0.246
36520SOL     OW11456   0.692   9.922   7.811
36520SOL    HW111457   0.648   9.880   7.737
36520SOL    HW211458   0.716  10.009   7.780
36521SOL     OW11459   0.332   3.583  13.208
36521SOL    HW111460   0.318   3.490  13.189
36521SOL    HW211461   0.247   3.624  13.191
36522SOL     OW11462  11.272   5.161  11.310
36522SOL    HW111463  11.178   5.155  11.293
36522SOL    HW211464  11.306   5.075  11.286
36523SOL     OW11465   4.801  11.744   7.530
36523SOL    HW111466   4.760  11.723   7.613
36523SOL    HW211467   4.772  11.675   7.470
36524SOL     OW11468  10.242   2.997   3.687
36524SOL    HW111469  10.267   3.068   3.745
36524SOL    HW211470  10.213   2.927   3.745
36525SOL     OW11471   4.328  10.199   6.378
36525SOL    HW111472   4.366  10.112   6.366
36525SOL    HW211473   4.353  10.223   6.467
36526SOL     OW11474   3.128  12.658   5.058
36526SOL    HW111475   3.122  12.711   4.978
36526SOL    HW211476   3.215  12.618   5.053
36527SOL     OW11477  10.013   1.365   2.160
36527SOL    HW111478  10.042   1.443   2.112
36527SOL    HW211479  10.009   1.394   2.251
36528SOL     OW11480   1.192   3.517   0.821
36528SOL    HW111481   1.181   3.493   0.913
36528SOL    HW211482   1.129   3.461   0.774
36529SOL     OW11483   2.847   5.077   3.918
36529SOL    HW111484   2.893   5.108   3.996
36529SOL    HW211485   2.762   5.049   3.950
36530SOL     OW11486   4.442  10.588   7.531
36530SOL    HW111487   4.433  10.669   7.581
36530SOL    HW211488   4.525  10.551   7.560
36531SOL     OW11489   5.170  10.950   9.517
36531SOL    HW111490   5.236  10.921   9.454
36531SOL    HW211491   5.113  10.873   9.529
36532SOL     OW11492  11.672   6.100   3.111
36532SOL    HW111493  11.762   6.099   3.145
36532SOL    HW211494  11.634   6.018   3.142
36533SOL     OW11495   9.101  11.488   7.330
36533SOL    HW111496   9.044  11.548   7.283
36533SOL    HW211497   9.067  11.488   7.420
36534SOL     OW11498  10.288   7.338   0.475
36534SOL    HW111499  10.215   7.340   0.536
36534SOL    HW211500  10.295   7.427   0.441
36535SOL     OW11501   1.835   1.883   0.332
36535SOL    HW111502   1.779   1.960   0.346
36535SOL    HW211503   1.776   1.816   0.298
36536SOL     OW11504  13.264  13.514  11.720
36536SOL    HW111505  13.204  13.586  11.704
36536SOL    HW211506  13.351  13.552  11.712
36537SOL     OW11507  10.401  12.039   5.049
36537SOL    HW111508  10.453  11.960   5.033
36537SOL    HW211509  10.465  12.103   5.081
36538SOL     OW11510   4.983   5.695   6.299
36538SOL    HW111511   5.061   5.750   6.301
36538SOL    HW211512   4.952   5.693   6.390
36539SOL     OW11513  13.696  11.581   4.095
36539SOL    HW111514  13.726  11.632   4.171
36539SOL    HW211515  13.738  11.623   4.020
36540SOL     OW11516   2.240   4.571   9.131
36540SOL    HW111517   2.303   4.641   9.150
36540SOL    HW211518   2.221   4.533   9.217
36541SOL     OW11519  12.695   3.966   4.298
36541SOL    HW111520  12.711   3.983   4.391
36541SOL    HW211521  12.730   4.044   4.254
36542SOL     OW11522   5.613   1.545   2.739
36542SOL    HW111523   5.669   1.601   2.687
36542SOL    HW211524   5.529   1.591   2.743
36543SOL     OW11525   4.526   8.540   7.442
36543SOL    HW111526   4.468   8.584   7.504
36543SOL    HW211527   4.483   8.457   7.424
36544SOL     OW11528   1.313  12.861   8.939
36544SOL    HW111529   1.239  12.835   8.884
36544SOL    HW211530   1.315  12.797   9.009
36545SOL     OW11531  12.954  10.040   4.526
36545SOL    HW111532  12.905  10.089   4.592
36545SOL    HW211533  12.990  10.107   4.469
36546SOL     OW11534   8.989  10.368   2.627
36546SOL    HW111535   8.971  10.451   2.671
36546SOL    HW211536   9.006  10.392   2.536
36547SOL     OW11537   1.289   0.611  11.871
36547SOL    HW111538   1.241   0.674  11.817
36547SOL    HW211539   1.347   0.566  11.809
36548SOL     OW11540  10.328  14.541   0.687
36548SOL    HW111541  10.303  14.629   0.716
36548SOL    HW211542  10.268  14.482   0.733
36549SOL     OW11543  11.571   6.085   2.815
36549SOL    HW111544  11.574   6.077   2.910
36549SOL    HW211545  11.488   6.128   2.796
36550SOL     OW11546   4.802   5.061  12.136
36550SOL    HW111547   4.723   5.012  12.160
36550SOL    HW211548   4.873   5.000  12.154
36551SOL     OW11549  10.165   8.106   7.079
36551SOL    HW111550  10.218   8.031   7.107
36551SOL    HW211551  10.083   8.067   7.050
36552SOL     OW11552   9.493   5.020   1.865
36552SOL    HW111553   9.582   5.045   1.839
36552SOL    HW211554   9.472   4.945   1.809
36553SOL     OW11555   8.696   2.890   2.901
36553SOL    HW111556   8.734   2.847   2.825
36553SOL    HW211557   8.730   2.980   2.898
36554SOL     OW11558  14.570   6.821   9.017
36554SOL    HW111559  14.660   6.829   8.986
36554SOL    HW211560  14.568   6.738   9.064
36555SOL     OW11561   5.487   1.829  11.796
36555SOL    HW111562   5.394   1.814  11.811
36555SOL    HW211563   5.505   1.784  11.713
36556SOL     OW11564  12.716  11.002   6.452
36556SOL    HW111565  12.720  11.067   6.523
36556SOL    HW211566  12.762  11.044   6.380
36557SOL     OW11567   1.735  10.677  14.600
36557SOL    HW111568   1.678  10.616  14.647
36557SOL    HW211569   1.684  10.701  14.522
36558SOL     OW11570   5.787   2.363   0.211
36558SOL    HW111571   5.828   2.434   0.162
36558SOL    HW211572   5.788   2.392   0.302
36559SOL     OW11573   9.349   5.584   6.969
36559SOL    HW111574   9.436   5.624   6.980
36559SOL    HW211575   9.361   5.494   7.001
36560SOL     OW11576   1.351   0.415   5.858
36560SOL    HW111577   1.391   0.352   5.917
36560SOL    HW211578   1.327   0.363   5.781
36561SOL     OW11579  11.395   6.184   3.244
36561SOL    HW111580  11.417   6.208   3.334
36561SOL    HW211581  11.458   6.116   3.222
36562SOL     OW11582  14.151   7.463   4.585
36562SOL    HW111583  14.110   7.478   4.499
36562SOL    HW211584  14.141   7.369   4.600
36563SOL     OW11585   5.897   4.226   3.415
36563SOL    HW111586   5.866   4.190   3.331
36563SOL    HW211587   5.992   4.227   3.406
36564SOL     OW11588   7.083  11.831   9.364
36564SOL    HW111589   7.090  11.849   9.457
36564SOL    HW211590   6.996  11.792   9.353
36565SOL     OW11591   3.341   0.344   5.718
36565SOL    HW111592   3.325   0.290   5.795
36565SOL    HW211593   3.430   0.376   5.728
36566SOL     OW11594  13.551   8.383   5.507
36566SOL    HW111595  13.599   8.434   5.572
36566SOL    HW211596  13.459   8.400   5.525
36567SOL     OW11597   7.263  13.614   5.088
36567SOL    HW111598   7.188  13.560   5.063
36567SOL    HW211599   7.258  13.621   5.183
36568SOL     OW11600   8.320   8.382  12.454
36568SOL    HW111601   8.227   8.394  12.474
36568SOL    HW211602   8.363   8.379  12.539
36569SOL     OW11603   2.105   3.069   2.884
36569SOL    HW111604   2.023   3.084   2.930
36569SOL    HW211605   2.128   3.155   2.847
36570SOL     OW11606   8.022  12.593   7.662
36570SOL    HW111607   8.074  12.650   7.606
36570SOL    HW211608   7.974  12.653   7.719
36571SOL     OW11609   1.978   3.572  13.885
36571SOL    HW111610   1.940   3.652  13.922
36571SOL    HW211611   1.905   3.511  13.879
36572SOL     OW11612   1.653   9.933   8.437
36572SOL    HW111613   1.628  10.007   8.381
36572SOL    HW211614   1.597   9.941   8.514
36573SOL     OW11615   8.649   5.715   8.793
36573SOL    HW111616   8.572   5.659   8.796
36573SOL    HW211617   8.615   5.804   8.793
36574SOL     OW11618  10.591   3.908   5.168
36574SOL    HW111619  10.550   3.825   5.192
36574SOL    HW211620  10.593   3.907   5.072
36575SOL     OW11621   0.111  13.423   2.193
36575SOL    HW111622   0.059  13.398   2.117
36575SOL    HW211623   0.179  13.355   2.199
36576SOL     OW11624  10.396   7.351   7.612
36576SOL    HW111625  10.479   7.308   7.591
36576SOL    HW211626  10.347   7.349   7.530
36577SOL     OW11627  13.550   0.628   9.532
36577SOL    HW111628  13.455   0.620   9.544
36577SOL    HW211629  13.582   0.662   9.615
36578SOL     OW11630   3.005   7.519  10.325
36578SOL    HW111631   3.079   7.487  10.375
36578SOL    HW211632   2.931   7.513  10.385
36579SOL     OW11633   0.624   3.169   0.380
36579SOL    HW111634   0.641   3.172   0.475
36579SOL    HW211635   0.556   3.103   0.370
36580SOL     OW11636  11.327   6.462  12.277
36580SOL    HW111637  11.366   6.477  12.190
36580SOL    HW211638  11.305   6.549  12.308
36581SOL     OW11639  11.881  12.288   4.461
36581SOL    HW111640  11.890  12.373   4.420
36581SOL    HW211641  11.865  12.308   4.554
36582SOL     OW11642   6.351   6.657   2.941
36582SOL    HW111643   6.310   6.674   3.026
36582SOL    HW211644   6.442   6.637   2.961
36583SOL     OW11645   2.394   1.072   5.464
36583SOL    HW111646   2.373   1.033   5.380
36583SOL    HW211647   2.398   1.166   5.446
36584SOL     OW11648   8.067   5.243  13.206
36584SOL    HW111649   7.998   5.274  13.265
36584SOL    HW211650   8.118   5.181  13.258
36585SOL     OW11651  12.484  10.248   9.492
36585SOL    HW111652  12.544  10.290   9.430
36585SOL    HW211653  12.408  10.305   9.496
36586SOL     OW11654   8.302   4.830  13.332
36586SOL    HW111655   8.332   4.862  13.416
36586SOL    HW211656   8.230   4.889  13.308
36587SOL     OW11657   8.840   1.929   3.455
36587SOL    HW111658   8.762   1.967   3.414
36587SOL    HW211659   8.843   1.840   3.421
36588SOL     OW11660   8.310   0.117   1.619
36588SOL    HW111661   8.373   0.180   1.583
36588SOL    HW211662   8.230   0.131   1.567
36589SOL     OW11663   5.449  12.967  10.077
36589SOL    HW111664   5.382  13.035  10.086
36589SOL    HW211665   5.512  13.004  10.015
36590SOL     OW11666   7.766  10.031  10.163
36590SOL    HW111667   7.814  10.109  10.134
36590SOL    HW211668   7.711  10.008  10.088
36591SOL     OW11669   5.006   3.409   1.697
36591SOL    HW111670   4.918   3.432   1.728
36591SOL    HW211671   5.026   3.326   1.740
36592SOL     OW11672   7.363   5.141   2.265
36592SOL    HW111673   7.326   5.142   2.177
36592SOL    HW211674   7.457   5.155   2.252
36593SOL     OW11675   5.433   9.903  13.959
36593SOL    HW111676   5.447   9.834  13.894
36593SOL    HW211677   5.465   9.983  13.917
36594SOL     OW11678   6.384  12.429  13.435
36594SOL    HW111679   6.297  12.422  13.395
36594SOL    HW211680   6.366  12.462  13.523
36595SOL     OW11681   0.375   2.328  11.529
36595SOL    HW111682   0.340   2.417  11.523
36595SOL    HW211683   0.460   2.333  11.485
36596SOL     OW11684   0.591  12.949   3.058
36596SOL    HW111685   0.657  12.956   2.989
36596SOL    HW211686   0.639  12.965   3.139
36597SOL     OW11687  11.129   3.321   6.754
36597SOL    HW111688  11.129   3.416   6.753
36597SOL    HW211689  11.189   3.296   6.683
36598SOL     OW11690   2.938   1.992  13.071
36598SOL    HW111691   2.980   1.947  12.997
36598SOL    HW211692   2.846   1.966  13.065
36599SOL     OW11693   8.337   1.227   4.653
36599SOL    HW111694   8.307   1.151   4.603
36599SOL    HW211695   8.257   1.274   4.675
36600SOL     OW11696  13.702   7.127   8.060
36600SOL    HW111697  13.721   7.172   7.977
36600SOL    HW211698  13.658   7.046   8.033
36601SOL     OW11699  13.634   4.153   7.475
36601SOL    HW111700  13.706   4.169   7.414
36601SOL    HW211701  13.676   4.122   7.555
36602SOL     OW11702   8.754   3.794   4.564
36602SOL    HW111703   8.663   3.774   4.542
36602SOL    HW211704   8.806   3.744   4.502
36603SOL     OW11705   7.224   3.763  10.963
36603SOL    HW111706   7.244   3.678  11.003
36603SOL    HW211707   7.162   3.803  11.024
36604SOL     OW11708   0.383   8.494  10.411
36604SOL    HW111709   0.433   8.432  10.465
36604SOL    HW211710   0.409   8.580  10.444
36605SOL     OW11711   6.178   1.001   0.796
36605SOL    HW111712   6.273   1.010   0.796
36605SOL    HW211713   6.146   1.089   0.775
36606SOL     OW11714   8.745   0.234  14.073
36606SOL    HW111715   8.817   0.180  14.041
36606SOL    HW211716   8.694   0.175  14.129
36607SOL     OW11717   1.797   8.434   3.095
36607SOL    HW111718   1.771   8.526   3.090
36607SOL    HW211719   1.892   8.436   3.087
36608SOL     OW11720  11.284   8.408   2.908
36608SOL    HW111721  11.320   8.360   2.834
36608SOL    HW211722  11.352   8.471   2.931
36609SOL     OW11723   3.470   6.600   9.705
36609SOL    HW111724   3.399   6.664   9.716
36609SOL    HW211725   3.425   6.517   9.688
36610SOL     OW11726   6.938   0.818  10.441
36610SOL    HW111727   6.915   0.904  10.475
36610SOL    HW211728   7.026   0.801  10.475
36611SOL     OW11729   4.819  10.936   8.174
36611SOL    HW111730   4.910  10.933   8.146
36611SOL    HW211731   4.768  10.925   8.094
36612SOL     OW11732   8.634  11.854   0.333
36612SOL    HW111733   8.690  11.807   0.395
36612SOL    HW211734   8.674  11.940   0.325
36613SOL     OW11735  10.752   2.930   5.342
36613SOL    HW111736  10.778   2.841   5.320
36613SOL    HW211737  10.804   2.985   5.283
36614SOL     OW11738  14.254   2.816  13.885
36614SOL    HW111739  14.165   2.853  13.889
36614SOL    HW211740  14.272   2.806  13.792
36615SOL     OW11741   7.760   5.631   0.369
36615SOL    HW111742   7.828   5.695   0.392
36615SOL    HW211743   7.678   5.681   0.374
36616SOL     OW11744   2.492   3.095   6.904
36616SOL    HW111745   2.452   3.166   6.955
36616SOL    HW211746   2.533   3.139   6.829
36617SOL     OW11747   7.924  14.734  11.467
36617SOL    HW111748   7.985  14.784  11.414
36617SOL    HW211749   7.866  14.691  11.404
36618SOL     OW11750   6.444   5.280   1.333
36618SOL    HW111751   6.518   5.275   1.395
36618SOL    HW211752   6.423   5.374   1.330
36619SOL     OW11753  11.938   0.883   5.090
36619SOL    HW111754  11.849   0.893   5.124
36619SOL    HW211755  11.975   0.971   5.094
36620SOL     OW11756   6.108   4.007   9.659
36620SOL    HW111757   6.196   4.008   9.621
36620SOL    HW211758   6.053   4.048   9.593
36621SOL     OW11759  12.373  14.867  14.302
36621SOL    HW111760  12.383  14.794  14.240
36621SOL    HW211761  12.459  14.872  14.345
36622SOL     OW11762   1.157   0.971  12.334
36622SOL    HW111763   1.081   1.004  12.382
36622SOL    HW211764   1.133   0.881  12.310
36623SOL     OW11765   7.066   4.370   7.046
36623SOL    HW111766   7.130   4.404   6.984
36623SOL    HW211767   7.004   4.322   6.991
36624SOL     OW11768   6.159   5.619   5.259
36624SOL    HW111769   6.241   5.621   5.308
36624SOL    HW211770   6.180   5.657   5.174
36625SOL     OW11771   5.426   8.664   6.105
36625SOL    HW111772   5.473   8.620   6.175
36625SOL    HW211773   5.346   8.697   6.146
36626SOL     OW11774   4.957  13.998  13.734
36626SOL    HW111775   4.892  14.015  13.802
36626SOL    HW211776   5.003  13.919  13.764
36627SOL     OW11777   8.413  10.714  10.184
36627SOL    HW111778   8.436  10.789  10.129
36627SOL    HW211779   8.408  10.750  10.273
36628SOL     OW11780  13.991  12.335  14.223
36628SOL    HW111781  14.021  12.293  14.303
36628SOL    HW211782  13.911  12.289  14.199
36629SOL     OW11783   4.825   8.553   7.927
36629SOL    HW111784   4.919   8.540   7.926
36629SOL    HW211785   4.806   8.586   8.015
36630SOL     OW11786  12.611   7.763  11.966
36630SOL    HW111787  12.618   7.849  12.008
36630SOL    HW211788  12.528   7.728  11.997
36631SOL     OW11789   2.693   9.934   8.703
36631SOL    HW111790   2.776   9.952   8.658
36631SOL    HW211791   2.692   9.839   8.714
36632SOL     OW11792  11.379   7.775   5.963
36632SOL    HW111793  11.472   7.759   5.944
36632SOL    HW211794  11.378   7.861   6.005
36633SOL     OW11795  14.767  10.901   4.280
36633SOL    HW111796  14.774  10.937   4.368
36633SOL    HW211797  14.769  10.977   4.222
36634SOL     OW11798   8.474   6.542   0.884
36634SOL    HW111799   8.400   6.548   0.945
36634SOL    HW211800   8.500   6.633   0.869
36635SOL     OW11801   0.488  14.358  11.916
36635SOL    HW111802   0.503  14.438  11.865
36635SOL    HW211803   0.559  14.356  11.980
36636SOL     OW11804   6.091   5.497   1.422
36636SOL    HW111805   6.105   5.549   1.501
36636SOL    HW211806   5.996   5.487   1.416
36637SOL     OW11807  12.568  10.855  11.518
36637SOL    HW111808  12.604  10.938  11.487
36637SOL    HW211809  12.536  10.874  11.607
36638SOL     OW11810   6.178  14.860  11.647
36638SOL    HW111811   6.240   0.028  11.707
36638SOL    HW211812   6.174   0.048  11.572
36639SOL     OW11813   1.563  12.293   1.879
36639SOL    HW111814   1.580  12.335   1.795
36639SOL    HW211815   1.485  12.337   1.913
36640SOL     OW11816   5.700   9.502   2.869
36640SOL    HW111817   5.699   9.443   2.945
36640SOL    HW211818   5.771   9.563   2.888
36641SOL     OW11819  11.474  14.583  14.429
36641SOL    HW111820  11.425  14.664  14.441
36641SOL    HW211821  11.563  14.611  14.407
36642SOL     OW11822  14.185  10.075   0.684
36642SOL    HW111823  14.203  10.121   0.602
36642SOL    HW211824  14.248  10.111   0.746
36643SOL     OW11825   9.128   3.978   8.361
36643SOL    HW111826   9.114   4.047   8.426
36643SOL    HW211827   9.179   4.019   8.292
36644SOL     OW11828  13.879   9.298   8.019
36644SOL    HW111829  13.814   9.319   8.085
36644SOL    HW211830  13.924   9.221   8.053
36645SOL     OW11831   3.736  10.086  11.049
36645SOL    HW111832   3.690  10.161  11.087
36645SOL    HW211833   3.822  10.087  11.091
36646SOL     OW11834   9.642  10.177   5.637
36646SOL    HW111835   9.572  10.190   5.573
36646SOL    HW211836   9.611  10.107   5.693
36647SOL     OW11837  11.515   1.623  11.924
36647SOL    HW111838  11.575   1.549  11.919
36647SOL    HW211839  11.567   1.692  11.967
36648SOL     OW11840   9.954  14.061  11.629
36648SOL    HW111841   9.898  14.008  11.685
36648SOL    HW211842   9.899  14.134  11.601
36649SOL     OW11843   6.964  13.610   3.891
36649SOL    HW111844   6.913  13.559   3.954
36649SOL    HW211845   7.043  13.635   3.938
36650SOL     OW11846   4.083  13.646   2.975
36650SOL    HW111847   4.088  13.621   3.067
36650SOL    HW211848   3.991  13.635   2.952
36651SOL     OW11849   5.266   4.710  11.774
36651SOL    HW111850   5.200   4.653  11.812
36651SOL    HW211851   5.327   4.727  11.845
36652SOL     OW11852   0.608   3.572   7.008
36652SOL    HW111853   0.584   3.660   6.980
36652SOL    HW211854   0.565   3.514   6.944
36653SOL     OW11855   1.343   0.797  10.634
36653SOL    HW111856   1.277   0.865  10.640
36653SOL    HW211857   1.327   0.755  10.550
36654SOL     OW11858   8.861   8.661   0.586
36654SOL    HW111859   8.776   8.675   0.543
36654SOL    HW211860   8.844   8.684   0.678
36655SOL     OW11861   0.167  13.485   3.405
36655SOL    HW111862   0.194  13.411   3.350
36655SOL    HW211863   0.091  13.453   3.453
36656SOL     OW11864   2.371   4.984  13.482
36656SOL    HW111865   2.296   4.983  13.542
36656SOL    HW211866   2.416   4.902  13.498
36657SOL     OW11867   8.658   0.588   3.549
36657SOL    HW111868   8.620   0.515   3.599
36657SOL    HW211869   8.729   0.620   3.605
36658SOL     OW11870   7.141  13.829   9.381
36658SOL    HW111871   7.098  13.819   9.465
36658SOL    HW211872   7.168  13.740   9.357
36659SOL     OW11873   4.283   4.881   2.718
36659SOL    HW111874   4.342   4.824   2.768
36659SOL    HW211875   4.209   4.897   2.777
36660SOL     OW11876  14.432   1.097   7.768
36660SOL    HW111877  14.503   1.150   7.804
36660SOL    HW211878  14.382   1.157   7.713
36661SOL     OW11879   4.656  12.239  14.814
36661SOL    HW111880   4.578  12.191  14.842
36661SOL    HW211881   4.727  12.176  14.825
36662SOL     OW11882   7.009   7.079   7.998
36662SOL    HW111883   6.985   7.082   7.905
36662SOL    HW211884   6.982   6.992   8.027
36663SOL     OW11885   7.594   8.964  10.185
36663SOL    HW111886   7.510   8.948  10.142
36663SOL    HW211887   7.611   9.057  10.170
36664SOL     OW11888   8.411   0.816   2.405
36664SOL    HW111889   8.438   0.907   2.407
36664SOL    HW211890   8.484   0.770   2.364
36665SOL     OW11891  13.664   1.282   3.084
36665SOL    HW111892  13.667   1.274   2.988
36665SOL    HW211893  13.752   1.311   3.108
36666SOL     OW11894   0.856   0.077  11.513
36666SOL    HW111895   0.934   0.021  11.507
36666SOL    HW211896   0.887   0.163  11.485
36667SOL     OW11897   8.612   4.706   2.163
36667SOL    HW111898   8.706   4.699   2.142
36667SOL    HW211899   8.568   4.696   2.079
36668SOL     OW11900   4.893  12.881   9.198
36668SOL    HW111901   4.891  12.956   9.139
36668SOL    HW211902   4.972  12.833   9.171
36669SOL     OW11903   3.168   8.226   5.470
36669SOL    HW111904   3.132   8.308   5.437
36669SOL    HW211905   3.122   8.211   5.553
36670SOL     OW11906   8.874  14.048   6.268
36670SOL    HW111907   8.821  14.009   6.338
36670SOL    HW211908   8.830  14.021   6.188
36671SOL     OW11909  11.155   5.244  14.733
36671SOL    HW111910  11.119   5.239  14.821
36671SOL    HW211911  11.176   5.336  14.721
36672SOL     OW11912   3.999  11.843   2.040
36672SOL    HW111913   4.083  11.884   2.060
36672SOL    HW211914   3.934  11.904   2.072
36673SOL     OW11915  13.496   5.096   9.279
36673SOL    HW111916  13.455   5.182   9.290
36673SOL    HW211917  13.560   5.090   9.350
36674SOL     OW11918   5.613   9.210   0.701
36674SOL    HW111919   5.707   9.198   0.688
36674SOL    HW211920   5.575   9.204   0.613
36675SOL     OW11921   9.502   2.038  12.051
36675SOL    HW111922   9.449   2.104  12.006
36675SOL    HW211923   9.591   2.073  12.048
36676SOL     OW11924  10.121   1.585   2.059
36676SOL    HW111925  10.106   1.575   1.966
36676SOL    HW211926  10.069   1.661   2.085
36677SOL     OW11927   6.339   8.531   7.448
36677SOL    HW111928   6.291   8.507   7.369
36677SOL    HW211929   6.277   8.584   7.499
36678SOL     OW11930  12.648  10.108   6.402
36678SOL    HW111931  12.589  10.094   6.327
36678SOL    HW211932  12.607  10.180   6.451
36679SOL     OW11933   9.119   2.708  14.519
36679SOL    HW111934   9.050   2.701  14.585
36679SOL    HW211935   9.150   2.798  14.526
36680SOL     OW11936  13.035   4.517   6.198
36680SOL    HW111937  12.945   4.490   6.176
36680SOL    HW211938  13.047   4.487   6.288
36681SOL     OW11939   6.962   5.518   0.145
36681SOL    HW111940   7.028   5.581   0.175
36681SOL    HW211941   6.893   5.522   0.212
36682SOL     OW11942   3.264   3.884   4.143
36682SOL    HW111943   3.197   3.928   4.091
36682SOL    HW211944   3.245   3.790   4.132
36683SOL     OW11945  14.066   4.418  12.981
36683SOL    HW111946  14.025   4.373  12.907
36683SOL    HW211947  14.002   4.410  13.052
36684SOL     OW11948   0.420   5.981   0.771
36684SOL    HW111949   0.414   6.071   0.801
36684SOL    HW211950   0.497   5.946   0.815
36685SOL     OW11951   2.467  11.654   4.959
36685SOL    HW111952   2.478  11.581   5.022
36685SOL    HW211953   2.441  11.728   5.014
36686SOL     OW11954  10.501   5.534   5.432
36686SOL    HW111955  10.435   5.508   5.496
36686SOL    HW211956  10.517   5.455   5.380
36687SOL     OW11957   0.770   8.781  12.354
36687SOL    HW111958   0.774   8.762  12.447
36687SOL    HW211959   0.830   8.718  12.314
36688SOL     OW11960  11.408  12.799  10.021
36688SOL    HW111961  11.380  12.752  10.099
36688SOL    HW211962  11.442  12.882  10.055
36689SOL     OW11963   5.460  11.851   3.317
36689SOL    HW111964   5.444  11.772   3.266
36689SOL    HW211965   5.528  11.898   3.269
36690SOL     OW11966  14.083  14.232  10.955
36690SOL    HW111967  14.146  14.191  11.014
36690SOL    HW211968  14.023  14.162  10.931
36691SOL     OW11969   2.720   8.680   6.470
36691SOL    HW111970   2.672   8.621   6.413
36691SOL    HW211971   2.694   8.656   6.558
36692SOL     OW11972  11.829  13.994   6.162
36692SOL    HW111973  11.841  13.932   6.233
36692SOL    HW211974  11.848  14.079   6.201
36693SOL     OW11975  13.825   7.888   7.942
36693SOL    HW111976  13.770   7.825   7.989
36693SOL    HW211977  13.896   7.908   8.002
36694SOL     OW11978   5.889   5.071   2.980
36694SOL    HW111979   5.917   4.989   2.939
36694SOL    HW211980   5.793   5.064   2.983
36695SOL     OW11981   2.174  11.141   2.739
36695SOL    HW111982   2.147  11.055   2.772
36695SOL    HW211983   2.266  11.149   2.763
36696SOL     OW11984   8.700   5.108   0.762
36696SOL    HW111985   8.637   5.175   0.737
36696SOL    HW211986   8.646   5.033   0.788
36697SOL     OW11987   7.087   1.811   4.807
36697SOL    HW111988   7.006   1.779   4.846
36697SOL    HW211989   7.148   1.820   4.881
36698SOL     OW11990   5.131   1.521   0.848
36698SOL    HW111991   5.076   1.478   0.914
36698SOL    HW211992   5.069   1.547   0.779
36699SOL     OW11993   3.538   1.839  11.972
36699SOL    HW111994   3.503   1.805  11.890
36699SOL    HW211995   3.595   1.912  11.947
36700SOL     OW11996   3.363   9.198  12.439
36700SOL    HW111997   3.339   9.159  12.355
36700SOL    HW211998   3.374   9.291  12.421
36701SOL     OW11999  12.881   7.922   1.129
36701SOL    HW112000  12.919   7.955   1.048
36701SOL    HW212001  12.937   7.958   1.198
36702SOL     OW12002   9.689  12.606   6.045
36702SOL    HW112003   9.768  12.569   6.083
36702SOL    HW212004   9.702  12.598   5.950
36703SOL     OW12005   0.510   0.277   5.893
36703SOL    HW112006   0.543   0.333   5.823
36703SOL    HW212007   0.588   0.254   5.944
36704SOL     OW12008   3.305   1.160   9.754
36704SOL    HW112009   3.371   1.133   9.817
36704SOL    HW212010   3.249   1.083   9.743
36705SOL     OW12011   8.464   0.268  14.310
36705SOL    HW112012   8.493   0.177  14.319
36705SOL    HW212013   8.545   0.319  14.312
36706SOL     OW12014   0.250   7.998   5.366
36706SOL    HW112015   0.310   7.967   5.433
36706SOL    HW212016   0.227   7.920   5.316
36707SOL     OW12017  11.220   1.203  13.375
36707SOL    HW112018  11.243   1.265  13.305
36707SOL    HW212019  11.288   1.216  13.441
36708SOL     OW12020  13.140   0.612   6.447
36708SOL    HW112021  13.160   0.562   6.368
36708SOL    HW212022  13.044   0.613   6.451
36709SOL     OW12023   4.172   7.592   8.919
36709SOL    HW112024   4.111   7.603   8.845
36709SOL    HW212025   4.204   7.681   8.937
36710SOL     OW12026  13.205  14.112   8.761
36710SOL    HW112027  13.268  14.049   8.797
36710SOL    HW212028  13.135  14.057   8.725
36711SOL     OW12029   2.418   5.743  13.930
36711SOL    HW112030   2.350   5.678  13.916
36711SOL    HW212031   2.408   5.771  14.021
36712SOL     OW12032  12.898   1.348   2.538
36712SOL    HW112033  12.993   1.358   2.535
36712SOL    HW212034  12.866   1.434   2.564
36713SOL     OW12035   5.070   2.236   0.252
36713SOL    HW112036   4.985   2.212   0.289
36713SOL    HW212037   5.049   2.282   0.171
36714SOL     OW12038  13.413   0.646  12.368
36714SOL    HW112039  13.496   0.691  12.384
36714SOL    HW212040  13.350   0.693  12.422
36715SOL     OW12041  13.580   9.618   2.564
36715SOL    HW112042  13.509   9.558   2.544
36715SOL    HW212043  13.622   9.635   2.479
36716SOL     OW12044  14.825   6.330   8.402
36716SOL    HW112045   0.012   6.352   8.474
36716SOL    HW212046   0.011   6.304   8.330
36717SOL     OW12047  10.207   9.790  10.972
36717SOL    HW112048  10.134   9.848  10.952
36717SOL    HW212049  10.234   9.756  10.886
36718SOL     OW12050  13.995   2.461   9.367
36718SOL    HW112051  13.919   2.519   9.367
36718SOL    HW212052  14.014   2.446   9.459
36719SOL     OW12053   5.794  12.632   4.427
36719SOL    HW112054   5.706  12.616   4.461
36719SOL    HW212055   5.817  12.719   4.460
36720SOL     OW12056   2.848   9.303   6.334
36720SOL    HW112057   2.906   9.265   6.268
36720SOL    HW212058   2.815   9.383   6.293
36721SOL     OW12059  12.410  12.400  10.136
36721SOL    HW112060  12.402  12.326  10.196
36721SOL    HW212061  12.391  12.477  10.190
36722SOL     OW12062   0.064  13.709   6.743
36722SOL    HW112063   0.005  13.666   6.681
36722SOL    HW212064   0.014  13.713   6.824
36723SOL     OW12065   7.141   3.189   4.519
36723SOL    HW112066   7.162   3.282   4.518
36723SOL    HW212067   7.150   3.161   4.428
36724SOL     OW12068   8.575   2.018  14.749
36724SOL    HW112069   8.624   2.087  14.705
36724SOL    HW212070   8.607   2.019  14.839
36725SOL     OW12071   9.893  13.958   7.298
36725SOL    HW112072   9.870  13.914   7.216
36725SOL    HW212073   9.981  13.926   7.319
36726SOL     OW12074  10.093   6.891   2.016
36726SOL    HW112075  10.061   6.812   2.059
36726SOL    HW212076  10.019   6.920   1.962
36727SOL     OW12077   1.537   7.046  11.285
36727SOL    HW112078   1.550   6.968  11.231
36727SOL    HW212079   1.454   7.031  11.329
36728SOL     OW12080  12.254  11.627   2.964
36728SOL    HW112081  12.267  11.709   3.010
36728SOL    HW212082  12.160  11.622   2.949
36729SOL     OW12083  14.559  12.008  14.185
36729SOL    HW112084  14.624  12.047  14.127
36729SOL    HW212085  14.603  11.932  14.222
36730SOL     OW12086   7.342   1.115  14.024
36730SOL    HW112087   7.423   1.155  14.054
36730SOL    HW212088   7.367   1.064  13.947
36731SOL     OW12089   5.848   1.892   5.876
36731SOL    HW112090   5.925   1.903   5.821
36731SOL    HW212091   5.780   1.859   5.816
36732SOL     OW12092   8.510   6.142   0.561
36732SOL    HW112093   8.440   6.193   0.601
36732SOL    HW212094   8.583   6.149   0.621
36733SOL     OW12095   7.265   4.396   7.291
36733SOL    HW112096   7.237   4.486   7.275
36733SOL    HW212097   7.315   4.373   7.212
36734SOL     OW12098  12.506  10.000   1.263
36734SOL    HW112099  12.421  10.015   1.222
36734SOL    HW212100  12.569  10.016   1.193
36735SOL     OW12101  10.718   7.840   8.052
36735SOL    HW112102  10.684   7.753   8.030
36735SOL    HW212103  10.770   7.827   8.131
36736SOL     OW12104   6.532  10.651   8.041
36736SOL    HW112105   6.513  10.727   8.095
36736SOL    HW212106   6.602  10.606   8.088
36737SOL     OW12107   0.705   0.222   6.546
36737SOL    HW112108   0.672   0.202   6.634
36737SOL    HW212109   0.698   0.139   6.499
36738SOL     OW12110   2.258   4.281   5.879
36738SOL    HW112111   2.196   4.208   5.878
36738SOL    HW212112   2.343   4.240   5.865
36739SOL     OW12113  12.420   9.979  11.873
36739SOL    HW112114  12.373  10.021  11.945
36739SOL    HW212115  12.444   9.893  11.907
36740SOL     OW12116  12.369  11.128   2.784
36740SOL    HW112117  12.276  11.142   2.767
36740SOL    HW212118  12.372  11.082   2.868
36741SOL     OW12119   6.257   7.929   2.457
36741SOL    HW112120   6.306   7.862   2.504
36741SOL    HW212121   6.178   7.885   2.426
36742SOL     OW12122  14.443   6.750   4.505
36742SOL    HW112123  14.520   6.803   4.486
36742SOL    HW212124  14.477   6.672   4.548
36743SOL     OW12125  13.575   4.996   0.474
36743SOL    HW112126  13.496   4.949   0.499
36743SOL    HW212127  13.638   4.928   0.452
36744SOL     OW12128  12.212   3.164   5.950
36744SOL    HW112129  12.248   3.134   6.034
36744SOL    HW212130  12.289   3.183   5.896
36745SOL     OW12131   6.505  14.217  10.949
36745SOL    HW112132   6.496  14.309  10.924
36745SOL    HW212133   6.557  14.219  11.029
36746SOL     OW12134  12.168   3.432  13.427
36746SOL    HW112135  12.243   3.472  13.383
36746SOL    HW212136  12.145   3.356  13.372
36747SOL     OW12137  10.942  11.106   2.421
36747SOL    HW112138  10.975  11.041   2.482
36747SOL    HW212139  10.990  11.089   2.340
36748SOL     OW12140   8.053   8.329  14.232
36748SOL    HW112141   8.046   8.365  14.321
36748SOL    HW212142   8.109   8.251  14.243
36749SOL     OW12143  14.318  14.123  11.077
36749SOL    HW112144  14.326  14.164  11.163
36749SOL    HW212145  14.340  14.031  11.092
36750SOL     OW12146   5.396  14.274   5.957
36750SOL    HW112147   5.491  14.262   5.947
36750SOL    HW212148   5.377  14.236   6.043
36751SOL     OW12149   4.422   9.078   0.375
36751SOL    HW112150   4.507   9.107   0.341
36751SOL    HW212151   4.406   8.994   0.332
36752SOL     OW12152   9.256  10.325   2.662
36752SOL    HW112153   9.252  10.370   2.746
36752SOL    HW212154   9.165  10.302   2.642
36753SOL     OW12155   3.187  12.704  12.527
36753SOL    HW112156   3.156  12.737  12.611
36753SOL    HW212157   3.260  12.647  12.548
36754SOL     OW12158  13.629   7.880  13.208
36754SOL    HW112159  13.548   7.923  13.182
36754SOL    HW212160  13.603   7.790  13.227
36755SOL     OW12161   4.307   0.124  13.042
36755SOL    HW112162   4.289   0.105  12.950
36755SOL    HW212163   4.402   0.126  13.048
36756SOL     OW12164   5.522   3.003  10.764
36756SOL    HW112165   5.486   3.065  10.700
36756SOL    HW212166   5.616   3.018  10.763
36757SOL     OW12167  13.003   6.904   5.206
36757SOL    HW112168  12.973   6.946   5.125
36757SOL    HW212169  13.067   6.839   5.178
36758SOL     OW12170   6.887   8.704   4.037
36758SOL    HW112171   6.941   8.777   4.009
36758SOL    HW212172   6.825   8.690   3.966
36759SOL     OW12173  10.512  11.542  12.670
36759SOL    HW112174  10.525  11.620  12.724
36759SOL    HW212175  10.563  11.473  12.714
36760SOL     OW12176  12.456   1.858  11.578
36760SOL    HW112177  12.452   1.820  11.489
36760SOL    HW212178  12.383   1.919  11.581
36761SOL     OW12179   8.155   8.371  10.825
36761SOL    HW112180   8.092   8.433  10.860
36761SOL    HW212181   8.103   8.313  10.769
36762SOL     OW12182  12.491   1.653  11.947
36762SOL    HW112183  12.485   1.735  11.897
36762SOL    HW212184  12.414   1.654  12.003
36763SOL     OW12185  11.504   1.402  10.643
36763SOL    HW112186  11.443   1.369  10.577
36763SOL    HW212187  11.590   1.371  10.615
36764SOL     OW12188  11.970  13.318   1.673
36764SOL    HW112189  12.010  13.395   1.713
36764SOL    HW212190  11.890  13.351   1.632
36765SOL     OW12191   4.872   5.967   4.236
36765SOL    HW112192   4.819   6.000   4.309
36765SOL    HW212193   4.855   6.028   4.164
36766SOL     OW12194   4.854   1.528  10.761
36766SOL    HW112195   4.890   1.611  10.733
36766SOL    HW212196   4.759   1.542  10.760
36767SOL     OW12197   2.236   7.531  12.259
36767SOL    HW112198   2.289   7.507  12.336
36767SOL    HW212199   2.203   7.618  12.279
36768SOL     OW12200   1.120   0.351   0.204
36768SOL    HW112201   1.093   0.373   0.293
36768SOL    HW212202   1.200   0.402   0.190
36769SOL     OW12203  12.306  13.945  13.842
36769SOL    HW112204  12.299  14.029  13.888
36769SOL    HW212205  12.240  13.950  13.773
36770SOL     OW12206   8.271   7.842   6.075
36770SOL    HW112207   8.176   7.846   6.064
36770SOL    HW212208   8.290   7.907   6.143
36771SOL     OW12209   0.119   4.333  13.159
36771SOL    HW112210   0.069   4.266  13.206
36771SOL    HW212211   0.060   4.407  13.150
36772SOL     OW12212   6.160  14.267  11.026
36772SOL    HW112213   6.165  14.347  11.077
36772SOL    HW212214   6.121  14.293  10.943
36773SOL     OW12215   4.387  11.339   6.369
36773SOL    HW112216   4.302  11.374   6.342
36773SOL    HW212217   4.417  11.289   6.293
36774SOL     OW12218  10.992  10.009   9.156
36774SOL    HW112219  11.007   9.964   9.073
36774SOL    HW212220  10.911  10.059   9.142
36775SOL     OW12221   0.174  10.723  12.802
36775SOL    HW112222   0.083  10.750  12.787
36775SOL    HW212223   0.206  10.783  12.869
36776SOL     OW12224  11.271   4.307   4.601
36776SOL    HW112225  11.327   4.233   4.579
36776SOL    HW212226  11.184   4.269   4.612
36777SOL     OW12227   1.419   8.870   7.400
36777SOL    HW112228   1.383   8.944   7.448
36777SOL    HW212229   1.480   8.828   7.461
36778SOL     OW12230  13.950   5.778   7.733
36778SOL    HW112231  14.031   5.796   7.781
36778SOL    HW212232  13.912   5.865   7.717
36779SOL     OW12233   3.838   2.112   9.453
36779SOL    HW112234   3.913   2.170   9.466
36779SOL    HW212235   3.764   2.159   9.493
36780SOL     OW12236   6.993  10.044  13.289
36780SOL    HW112237   7.012  10.008  13.202
36780SOL    HW212238   6.985   9.967  13.346
36781SOL     OW12239   5.085   0.544  11.551
36781SOL    HW112240   5.013   0.590  11.595
36781SOL    HW212241   5.048   0.513  11.469
36782SOL     OW12242   6.849   8.809  12.780
36782SOL    HW112243   6.830   8.730  12.729
36782SOL    HW212244   6.925   8.785  12.833
36783SOL     OW12245  12.303  11.835  11.406
36783SOL    HW112246  12.302  11.930  11.405
36783SOL    HW212247  12.386  11.812  11.449
36784SOL     OW12248   6.237   2.385  11.316
36784SOL    HW112249   6.260   2.463  11.266
36784SOL    HW212250   6.233   2.416  11.407
36785SOL     OW12251  12.433   9.811   0.843
36785SOL    HW112252  12.385   9.893   0.843
36785SOL    HW212253  12.429   9.781   0.933
36786SOL     OW12254   6.565  13.504   5.403
36786SOL    HW112255   6.634  13.541   5.459
36786SOL    HW212256   6.596  13.415   5.383
36787SOL     OW12257  13.590  10.810  14.424
36787SOL    HW112258  13.581  10.718  14.399
36787SOL    HW212259  13.569  10.812  14.517
36788SOL     OW12260   9.464   0.217  14.735
36788SOL    HW112261   9.475   0.157  14.809
36788SOL    HW212262   9.553   0.244  14.712
36789SOL     OW12263  14.605   3.006   3.288
36789SOL    HW112264  14.612   2.918   3.326
36789SOL    HW212265  14.606   3.065   3.363
36790SOL     OW12266  12.085  12.137  13.322
36790SOL    HW112267  12.159  12.166  13.268
36790SOL    HW212268  12.013  12.195  13.297
36791SOL     OW12269   9.430   3.804   1.958
36791SOL    HW112270   9.365   3.736   1.941
36791SOL    HW212271   9.396   3.852   2.033
36792SOL     OW12272   6.343   2.609   6.627
36792SOL    HW112273   6.303   2.522   6.628
36792SOL    HW212274   6.382   2.617   6.540
36793SOL     OW12275   5.147   9.590   6.849
36793SOL    HW112276   5.095   9.537   6.790
36793SOL    HW212277   5.226   9.539   6.866
36794SOL     OW12278   2.570   4.972  11.327
36794SOL    HW112279   2.622   4.997  11.250
36794SOL    HW212280   2.545   5.056  11.367
36795SOL     OW12281  10.520   7.140   9.457
36795SOL    HW112282  10.432   7.103   9.463
36795SOL    HW212283  10.509   7.221   9.407
36796SOL     OW12284   6.798   4.259  10.109
36796SOL    HW112285   6.757   4.299  10.032
36796SOL    HW212286   6.832   4.175  10.078
36797SOL     OW12287   5.472   9.858   9.658
36797SOL    HW112288   5.430   9.921   9.716
36797SOL    HW212289   5.487   9.781   9.712
36798SOL     OW12290  11.099   7.749   1.748
36798SOL    HW112291  11.164   7.686   1.779
36798SOL    HW212292  11.150   7.825   1.721
36799SOL     OW12293   0.872   6.731   3.628
36799SOL    HW112294   0.881   6.807   3.686
36799SOL    HW212295   0.854   6.769   3.542
36800SOL     OW12296   1.596   4.150   2.732
36800SOL    HW112297   1.681   4.192   2.723
36800SOL    HW212298   1.589   4.093   2.655
36801SOL     OW12299   7.165  14.585  13.172
36801SOL    HW112300   7.208  14.500  13.166
36801SOL    HW212301   7.133  14.590  13.262
36802SOL     OW12302   8.076   9.283   8.285
36802SOL    HW112303   8.072   9.308   8.192
36802SOL    HW212304   8.052   9.362   8.333
36803SOL     OW12305   1.941   3.279   3.377
36803SOL    HW112306   1.890   3.343   3.327
36803SOL    HW212307   2.027   3.279   3.335
36804SOL     OW12308  10.887   4.710  13.065
36804SOL    HW112309  10.871   4.760  12.986
36804SOL    HW212310  10.866   4.620  13.042
36805SOL     OW12311   9.950   2.626   2.792
36805SOL    HW112312   9.967   2.654   2.882
36805SOL    HW212313   9.857   2.645   2.779
36806SOL     OW12314   5.327  10.216  14.543
36806SOL    HW112315   5.265  10.285  14.568
36806SOL    HW212316   5.413  10.259  14.546
36807SOL     OW12317   9.146  10.989   9.060
36807SOL    HW112318   9.117  10.983   8.969
36807SOL    HW212319   9.188  11.075   9.066
36808SOL     OW12320   6.184  10.973  11.043
36808SOL    HW112321   6.194  10.881  11.069
36808SOL    HW212322   6.141  10.968  10.957
36809SOL     OW12323   0.564  10.007   8.679
36809SOL    HW112324   0.490   9.953   8.705
36809SOL    HW212325   0.600   9.963   8.602
36810SOL     OW12326  10.078   7.276   8.032
36810SOL    HW112327  10.118   7.286   7.946
36810SOL    HW212328  10.041   7.187   8.030
36811SOL     OW12329  10.956   9.861  13.654
36811SOL    HW112330  11.029   9.802  13.640
36811SOL    HW212331  10.878   9.809  13.633
36812SOL     OW12332   1.522  12.362  12.884
36812SOL    HW112333   1.558  12.289  12.834
36812SOL    HW212334   1.482  12.419  12.817
36813SOL     OW12335   7.707   5.995   9.053
36813SOL    HW112336   7.647   6.048   9.002
36813SOL    HW212337   7.716   6.042   9.136
36814SOL     OW12338   9.891   5.408  10.175
36814SOL    HW112339   9.883   5.400  10.080
36814SOL    HW212340   9.980   5.382  10.195
36815SOL     OW12341  13.283  10.597  11.323
36815SOL    HW112342  13.212  10.659  11.308
36815SOL    HW212343  13.264  10.560  11.409
36816SOL     OW12344   9.499   5.973  14.454
36816SOL    HW112345   9.458   5.918  14.388
36816SOL    HW212346   9.430   5.991  14.517
36817SOL     OW12347   6.617  11.334   4.527
36817SOL    HW112348   6.567  11.267   4.480
36817SOL    HW212349   6.552  11.382   4.578
36818SOL     OW12350   6.734   9.543   8.036
36818SOL    HW112351   6.815   9.494   8.025
36818SOL    HW212352   6.674   9.481   8.076
36819SOL     OW12353   7.081   0.438  14.271
36819SOL    HW112354   7.157   0.429  14.328
36819SOL    HW212355   7.007   0.451  14.330
36820SOL     OW12356  10.027  12.013   9.589
36820SOL    HW112357  10.063  12.079   9.530
36820SOL    HW212358  10.103  11.965   9.621
36821SOL     OW12359   5.769   8.085  14.388
36821SOL    HW112360   5.828   8.093  14.313
36821SOL    HW212361   5.784   7.996  14.420
36822SOL     OW12362   7.364   6.722  12.699
36822SOL    HW112363   7.363   6.816  12.680
36822SOL    HW212364   7.439   6.689  12.649
36823SOL     OW12365  14.029  14.695   6.062
36823SOL    HW112366  14.063  14.747   5.989
36823SOL    HW212367  13.935  14.692   6.048
36824SOL     OW12368   3.200   7.480  12.595
36824SOL    HW112369   3.124   7.452  12.645
36824SOL    HW212370   3.175   7.467  12.503
36825SOL     OW12371   9.772  11.632  12.856
36825SOL    HW112372   9.736  11.717  12.829
36825SOL    HW212373   9.696  11.585  12.891
36826SOL     OW12374   6.899  11.518   7.746
36826SOL    HW112375   6.843  11.524   7.668
36826SOL    HW212376   6.848  11.467   7.809
36827SOL     OW12377   0.773   2.385   4.227
36827SOL    HW112378   0.693   2.344   4.260
36827SOL    HW212379   0.843   2.324   4.251
36828SOL     OW12380   0.847   6.679   1.729
36828SOL    HW112381   0.930   6.664   1.684
36828SOL    HW212382   0.872   6.710   1.816
36829SOL     OW12383   2.503  10.894  11.195
36829SOL    HW112384   2.473  10.979  11.163
36829SOL    HW212385   2.596  10.891  11.171
36830SOL     OW12386   7.260  13.478  10.543
36830SOL    HW112387   7.264  13.385  10.520
36830SOL    HW212388   7.352  13.507  10.540
36831SOL     OW12389  14.354  13.020  11.148
36831SOL    HW112390  14.356  13.072  11.068
36831SOL    HW212391  14.261  13.015  11.171
36832SOL     OW12392   3.775   1.085  13.321
36832SOL    HW112393   3.828   1.136  13.261
36832SOL    HW212394   3.724   1.027  13.265
36833SOL     OW12395  13.013   9.947  12.218
36833SOL    HW112396  13.015   9.982  12.307
36833SOL    HW212397  13.034   9.854  12.228
36834SOL     OW12398  10.012   7.104   0.743
36834SOL    HW112399  10.067   7.065   0.811
36834SOL    HW212400   9.996   7.033   0.681
36835SOL     OW12401   1.422  12.661   6.557
36835SOL    HW112402   1.393  12.576   6.591
36835SOL    HW212403   1.472  12.698   6.629
36836SOL     OW12404  10.179   6.134   3.401
36836SOL    HW112405  10.113   6.067   3.415
36836SOL    HW212406  10.130   6.212   3.376
36837SOL     OW12407  10.167   2.188   3.624
36837SOL    HW112408  10.250   2.152   3.655
36837SOL    HW212409  10.109   2.182   3.700
36838SOL     OW12410   1.701   1.360   2.192
36838SOL    HW112411   1.794   1.367   2.214
36838SOL    HW212412   1.662   1.441   2.227
36839SOL     OW12413   9.229   0.568   1.653
36839SOL    HW112414   9.216   0.595   1.744
36839SOL    HW212415   9.208   0.475   1.653
36840SOL     OW12416   9.448   2.597   2.932
36840SOL    HW112417   9.490   2.655   2.996
36840SOL    HW212418   9.380   2.651   2.892
36841SOL     OW12419   0.131   1.979   5.317
36841SOL    HW112420   0.123   2.067   5.354
36841SOL    HW212421   0.057   1.972   5.256
36842SOL     OW12422   3.316  11.732  13.230
36842SOL    HW112423   3.322  11.780  13.147
36842SOL    HW212424   3.225  11.701  13.232
36843SOL     OW12425   1.697  12.827   0.017
36843SOL    HW112426   1.729  12.889  14.824
36843SOL    HW212427   1.725  12.741  14.857
36844SOL     OW12428  13.597   2.334  13.917
36844SOL    HW112429  13.638   2.262  13.870
36844SOL    HW212430  13.598   2.407  13.855
36845SOL     OW12431   7.702   1.920   3.068
36845SOL    HW112432   7.737   1.928   3.156
36845SOL    HW212433   7.693   2.010   3.036
36846SOL     OW12434   8.279   8.478  14.020
36846SOL    HW112435   8.276   8.472  14.116
36846SOL    HW212436   8.370   8.499  14.001
36847SOL     OW12437   9.639  12.227  12.703
36847SOL    HW112438   9.699  12.236  12.629
36847SOL    HW212439   9.598  12.313  12.712
36848SOL     OW12440   5.222   8.635   9.186
36848SOL    HW112441   5.245   8.549   9.150
36848SOL    HW212442   5.154   8.617   9.251
36849SOL     OW12443   1.233  11.149   4.370
36849SOL    HW112444   1.219  11.103   4.287
36849SOL    HW212445   1.307  11.207   4.353
36850SOL     OW12446   2.456   3.117  12.226
36850SOL    HW112447   2.460   3.022  12.227
36850SOL    HW212448   2.510   3.144  12.300
36851SOL     OW12449  10.763  11.960   2.754
36851SOL    HW112450  10.798  11.948   2.842
36851SOL    HW212451  10.671  11.983   2.768
36852SOL     OW12452   7.469  10.510   1.403
36852SOL    HW112453   7.420  10.588   1.430
36852SOL    HW212454   7.414  10.437   1.430
36853SOL     OW12455  12.537   1.760   8.184
36853SOL    HW112456  12.519   1.837   8.238
36853SOL    HW212457  12.632   1.753   8.182
36854SOL     OW12458   0.170   0.128  12.633
36854SOL    HW112459   0.250   0.159  12.592
36854SOL    HW212460   0.116   0.098  12.560
36855SOL     OW12461  13.487  13.413  12.337
36855SOL    HW112462  13.490  13.379  12.427
36855SOL    HW212463  13.468  13.507  12.349
36856SOL     OW12464   2.802   1.994   5.272
36856SOL    HW112465   2.760   2.068   5.316
36856SOL    HW212466   2.894   2.019   5.264
36857SOL     OW12467   3.652   8.090   2.730
36857SOL    HW112468   3.640   8.184   2.740
36857SOL    HW212469   3.570   8.059   2.691
36858SOL     OW12470   1.472   7.024   3.424
36858SOL    HW112471   1.466   6.953   3.360
36858SOL    HW212472   1.478   6.980   3.509
36859SOL     OW12473  11.918   5.806   7.517
36859SOL    HW112474  11.963   5.763   7.589
36859SOL    HW212475  11.928   5.899   7.534
36860SOL     OW12476   4.086  11.611   0.218
36860SOL    HW112477   4.140  11.571   0.151
36860SOL    HW212478   4.050  11.537   0.268
36861SOL     OW12479   7.811   7.144  12.677
36861SOL    HW112480   7.774   7.210  12.735
36861SOL    HW212481   7.896   7.179  12.651
36862SOL     OW12482   0.745   2.414  10.310
36862SOL    HW112483   0.778   2.488  10.259
36862SOL    HW212484   0.671   2.381  10.259
36863SOL     OW12485   0.397   9.197   4.584
36863SOL    HW112486   0.475   9.247   4.557
36863SOL    HW212487   0.324   9.245   4.546
36864SOL     OW12488   6.452   7.198   1.519
36864SOL    HW112489   6.486   7.195   1.609
36864SOL    HW212490   6.473   7.112   1.483
36865SOL     OW12491   9.150  11.931  10.942
36865SOL    HW112492   9.244  11.931  10.920
36865SOL    HW212493   9.148  11.906  11.034
36866SOL     OW12494   8.592   6.566   1.289
36866SOL    HW112495   8.658   6.559   1.358
36866SOL    HW212496   8.630   6.519   1.215
36867SOL     OW12497  11.454   9.180   5.270
36867SOL    HW112498  11.402   9.111   5.227
36867SOL    HW212499  11.416   9.262   5.237
36868SOL     OW12500  11.468   1.431   8.248
36868SOL    HW112501  11.527   1.393   8.183
36868SOL    HW212502  11.414   1.492   8.199
36869SOL     OW12503   2.556  12.621   5.301
36869SOL    HW112504   2.633  12.613   5.244
36869SOL    HW212505   2.484  12.587   5.249
36870SOL     OW12506   6.718   6.782  13.180
36870SOL    HW112507   6.713   6.850  13.247
36870SOL    HW212508   6.629   6.776  13.145
36871SOL     OW12509  11.286  13.333   3.863
36871SOL    HW112510  11.219  13.305   3.801
36871SOL    HW212511  11.354  13.266   3.856
36872SOL     OW12512   8.531  12.530   9.674
36872SOL    HW112513   8.625  12.527   9.655
36872SOL    HW212514   8.492  12.465   9.615
36873SOL     OW12515   6.319  13.404   8.245
36873SOL    HW112516   6.403  13.449   8.252
36873SOL    HW212517   6.279  13.414   8.331
36874SOL     OW12518   0.260  12.041   0.915
36874SOL    HW112519   0.261  12.117   0.973
36874SOL    HW212520   0.329  11.984   0.949
36875SOL     OW12521  12.454  11.165   9.642
36875SOL    HW112522  12.498  11.175   9.558
36875SOL    HW212523  12.361  11.175   9.623
36876SOL     OW12524   7.620  12.673  12.290
36876SOL    HW112525   7.665  12.737  12.345
36876SOL    HW212526   7.654  12.588  12.319
36877SOL     OW12527  14.679   8.458  14.495
36877SOL    HW112528  14.589   8.488  14.494
36877SOL    HW212529  14.687   8.403  14.417
36878SOL     OW12530   8.218   0.423   2.477
36878SOL    HW112531   8.256   0.510   2.489
36878SOL    HW212532   8.254   0.393   2.393
36879SOL     OW12533  14.001  12.939   4.042
36879SOL    HW112534  14.063  12.970   3.976
36879SOL    HW212535  13.962  12.861   4.003
36880SOL     OW12536   8.567   4.441   3.551
36880SOL    HW112537   8.580   4.463   3.459
36880SOL    HW212538   8.472   4.451   3.565
36881SOL     OW12539   8.564   1.852   0.970
36881SOL    HW112540   8.566   1.759   0.947
36881SOL    HW212541   8.644   1.887   0.930
36882SOL     OW12542   2.901  12.950   1.021
36882SOL    HW112543   2.976  13.010   1.020
36882SOL    HW212544   2.851  12.974   0.943
36883SOL     OW12545   1.719   5.906   8.448
36883SOL    HW112546   1.718   5.894   8.543
36883SOL    HW212547   1.794   5.964   8.432
36884SOL     OW12548   7.371   5.980  14.191
36884SOL    HW112549   7.378   6.070  14.222
36884SOL    HW212550   7.413   5.981  14.105
36885SOL     OW12551  11.234   4.370  14.385
36885SOL    HW112552  11.146   4.401  14.407
36885SOL    HW212553  11.292   4.440  14.414
36886SOL     OW12554   9.529   2.622   4.282
36886SOL    HW112555   9.481   2.540   4.282
36886SOL    HW212556   9.621   2.596   4.276
36887SOL     OW12557   4.021   8.086   3.953
36887SOL    HW112558   4.108   8.080   3.992
36887SOL    HW212559   3.969   8.133   4.017
36888SOL     OW12560   4.550   1.354   7.598
36888SOL    HW112561   4.600   1.436   7.597
36888SOL    HW212562   4.518   1.344   7.509
36889SOL     OW12563   2.426   4.924  10.118
36889SOL    HW112564   2.437   4.841  10.165
36889SOL    HW212565   2.332   4.941  10.123
36890SOL     OW12566  11.243   4.258  12.874
36890SOL    HW112567  11.241   4.286  12.966
36890SOL    HW212568  11.159   4.289  12.838
36891SOL     OW12569  11.929  12.732   4.334
36891SOL    HW112570  11.989  12.805   4.317
36891SOL    HW212571  11.902  12.745   4.425
36892SOL     OW12572   9.135   5.727   7.051
36892SOL    HW112573   9.067   5.739   6.984
36892SOL    HW212574   9.202   5.673   7.008
36893SOL     OW12575   3.311   9.881  10.358
36893SOL    HW112576   3.317   9.965  10.311
36893SOL    HW212577   3.301   9.906  10.450
36894SOL     OW12578   7.288   9.114  13.628
36894SOL    HW112579   7.364   9.063  13.599
36894SOL    HW212580   7.213   9.056  13.613
36895SOL     OW12581   5.202   4.982   0.095
36895SOL    HW112582   5.297   4.978   0.104
36895SOL    HW212583   5.178   4.901   0.050
36896SOL     OW12584   2.632   7.957   7.902
36896SOL    HW112585   2.575   8.018   7.855
36896SOL    HW212586   2.602   7.870   7.876
36897SOL     OW12587   5.492   5.935   4.292
36897SOL    HW112588   5.547   5.998   4.245
36897SOL    HW212589   5.403   5.969   4.282
36898SOL     OW12590   7.831   9.776  14.246
36898SOL    HW112591   7.898   9.753  14.310
36898SOL    HW212592   7.830   9.702  14.185
36899SOL     OW12593  13.765   7.785   6.638
36899SOL    HW112594  13.824   7.711   6.628
36899SOL    HW212595  13.690   7.750   6.686
36900SOL     OW12596  12.371  11.363  13.004
36900SOL    HW112597  12.453  11.356  12.956
36900SOL    HW212598  12.391  11.333  13.092
36901SOL     OW12599  11.286   0.288   6.926
36901SOL    HW112600  11.235   0.263   7.004
36901SOL    HW212601  11.343   0.359   6.957
36902SOL     OW12602   5.056   8.452   6.041
36902SOL    HW112603   5.122   8.448   6.111
36902SOL    HW212604   5.052   8.545   6.018
36903SOL     OW12605  12.235   7.968   0.718
36903SOL    HW112606  12.255   7.899   0.781
36903SOL    HW212607  12.196   7.922   0.644
36904SOL     OW12608   0.719   6.064   8.301
36904SOL    HW112609   0.722   6.099   8.212
36904SOL    HW212610   0.786   5.995   8.302
36905SOL     OW12611   8.511   8.066   2.943
36905SOL    HW112612   8.537   8.143   2.893
36905SOL    HW212613   8.428   8.091   2.985
36906SOL     OW12614   4.456   5.330   0.991
36906SOL    HW112615   4.531   5.381   0.961
36906SOL    HW212616   4.487   5.288   1.071
36907SOL     OW12617  11.063   1.689   8.309
36907SOL    HW112618  11.020   1.659   8.229
36907SOL    HW212619  11.061   1.613   8.367
36908SOL     OW12620  11.594   3.048   5.576
36908SOL    HW112621  11.594   3.143   5.582
36908SOL    HW212622  11.606   3.029   5.483
36909SOL     OW12623  14.143   9.618   4.109
36909SOL    HW112624  14.120   9.642   4.019
36909SOL    HW212625  14.235   9.643   4.117
36910SOL     OW12626   2.320   2.499  12.317
36910SOL    HW112627   2.271   2.419  12.340
36910SOL    HW212628   2.336   2.491  12.223
36911SOL     OW12629  13.052   9.190   2.669
36911SOL    HW112630  13.059   9.118   2.732
36911SOL    HW212631  13.125   9.176   2.609
36912SOL     OW12632  12.703  11.195   2.867
36912SOL    HW112633  12.730  11.105   2.887
36912SOL    HW212634  12.644  11.185   2.792
36913SOL     OW12635   4.926   7.900   6.879
36913SOL    HW112636   4.849   7.874   6.829
36913SOL    HW212637   4.904   7.880   6.970
36914SOL     OW12638  13.657   2.793  14.224
36914SOL    HW112639  13.659   2.857  14.153
36914SOL    HW212640  13.622   2.842  14.299
36915SOL     OW12641   8.806   3.017   3.412
36915SOL    HW112642   8.835   3.096   3.457
36915SOL    HW212643   8.883   2.959   3.412
36916SOL     OW12644   3.053  14.559  13.333
36916SOL    HW112645   3.132  14.604  13.363
36916SOL    HW212646   2.983  14.599  13.385
36917SOL     OW12647  11.841   2.073  12.160
36917SOL    HW112648  11.749   2.086  12.139
36917SOL    HW212649  11.859   2.136  12.230
36918SOL     OW12650   7.795   7.342  13.898
36918SOL    HW112651   7.884   7.307  13.898
36918SOL    HW212652   7.747   7.286  13.959
36919SOL     OW12653   3.823   6.326   7.626
36919SOL    HW112654   3.792   6.250   7.676
36919SOL    HW212655   3.744   6.375   7.605
36920SOL     OW12656   9.938   4.192  10.999
36920SOL    HW112657   9.998   4.196  10.925
36920SOL    HW212658   9.885   4.271  10.991
36921SOL     OW12659   5.061   9.690   7.432
36921SOL    HW112660   5.065   9.629   7.359
36921SOL    HW212661   5.106   9.645   7.504
36922SOL     OW12662   0.953   3.028  14.484
36922SOL    HW112663   0.872   3.026  14.535
36922SOL    HW212664   0.988   2.939  14.489
36923SOL     OW12665   6.405  10.938  12.061
36923SOL    HW112666   6.407  10.845  12.038
36923SOL    HW212667   6.441  10.982  11.984
36924SOL     OW12668   6.164  14.753   5.530
36924SOL    HW112669   6.177  14.779   5.621
36924SOL    HW212670   6.162  14.836   5.482
36925SOL     OW12671   1.599  14.530  13.197
36925SOL    HW112672   1.607  14.563  13.286
36925SOL    HW212673   1.509  14.552  13.171
36926SOL     OW12674   5.120   2.517  10.224
36926SOL    HW112675   5.096   2.424  10.219
36926SOL    HW212676   5.166   2.534  10.142
36927SOL     OW12677  12.032   5.002  10.755
36927SOL    HW112678  12.110   5.051  10.730
36927SOL    HW212679  11.973   5.069  10.790
36928SOL     OW12680   6.268   6.399   5.966
36928SOL    HW112681   6.268   6.465   6.036
36928SOL    HW212682   6.258   6.450   5.886
36929SOL     OW12683   8.448   9.985   8.391
36929SOL    HW112684   8.494  10.019   8.315
36929SOL    HW212685   8.385   9.922   8.355
36930SOL     OW12686  12.022   4.797   7.640
36930SOL    HW112687  12.061   4.850   7.570
36930SOL    HW212688  11.987   4.721   7.594
36931SOL     OW12689   3.523   0.813  12.703
36931SOL    HW112690   3.500   0.826  12.795
36931SOL    HW212691   3.615   0.788  12.704
36932SOL     OW12692  14.140   2.784   8.908
36932SOL    HW112693  14.069   2.741   8.957
36932SOL    HW212694  14.213   2.722   8.913
36933SOL     OW12695  10.526   6.290   1.650
36933SOL    HW112696  10.441   6.248   1.659
36933SOL    HW212697  10.580   6.250   1.719
36934SOL     OW12698   8.209   8.606  13.520
36934SOL    HW112699   8.293   8.584  13.562
36934SOL    HW212700   8.225   8.595  13.427
36935SOL     OW12701  11.216   2.514   4.812
36935SOL    HW112702  11.306   2.544   4.827
36935SOL    HW212703  11.225   2.426   4.777
36936SOL     OW12704   6.222   0.914   2.921
36936SOL    HW112705   6.275   0.863   2.859
36936SOL    HW212706   6.272   0.912   3.002
36937SOL     OW12707   0.638   2.308   0.857
36937SOL    HW112708   0.685   2.277   0.779
36937SOL    HW212709   0.552   2.266   0.851
36938SOL     OW12710   5.702   1.026  10.208
36938SOL    HW112711   5.746   0.966  10.269
36938SOL    HW212712   5.618   0.983  10.189
36939SOL     OW12713   7.594  10.393   9.529
36939SOL    HW112714   7.512  10.399   9.479
36939SOL    HW212715   7.577  10.327   9.596
36940SOL     OW12716   3.478   7.684   0.540
36940SOL    HW112717   3.427   7.632   0.603
36940SOL    HW212718   3.420   7.757   0.517
36941SOL     OW12719   8.833   2.237   8.521
36941SOL    HW112720   8.905   2.300   8.517
36941SOL    HW212721   8.781   2.266   8.596
36942SOL     OW12722   0.208   5.626   9.377
36942SOL    HW112723   0.268   5.633   9.451
36942SOL    HW212724   0.260   5.651   9.301
36943SOL     OW12725  12.554  10.683   6.737
36943SOL    HW112726  12.639  10.678   6.780
36943SOL    HW212727  12.541  10.777   6.721
36944SOL     OW12728  12.375  14.440   0.144
36944SOL    HW112729  12.369  14.349   0.173
36944SOL    HW212730  12.296  14.481   0.181
36945SOL     OW12731   8.601  10.809  14.820
36945SOL    HW112732   8.576  10.877   0.010
36945SOL    HW212733   8.561  10.729  14.855
36946SOL     OW12734   1.378   1.270   5.742
36946SOL    HW112735   1.456   1.310   5.702
36946SOL    HW212736   1.413   1.204   5.801
36947SOL     OW12737  11.147   3.886   8.038
36947SOL    HW112738  11.101   3.804   8.024
36947SOL    HW212739  11.110   3.921   8.119
36948SOL     OW12740   8.701   5.128   2.669
36948SOL    HW112741   8.716   5.222   2.679
36948SOL    HW212742   8.651   5.120   2.588
36949SOL     OW12743   9.258   4.622  13.292
36949SOL    HW112744   9.332   4.574  13.256
36949SOL    HW212745   9.298   4.695  13.340
36950SOL     OW12746   4.241  14.554  14.154
36950SOL    HW112747   4.326  14.516  14.175
36950SOL    HW212748   4.248  14.577  14.061
36951SOL     OW12749   9.778  10.349   9.702
36951SOL    HW112750   9.851  10.394   9.744
36951SOL    HW212751   9.793  10.256   9.723
36952SOL     OW12752   0.546   2.384   3.182
36952SOL    HW112753   0.514   2.365   3.094
36952SOL    HW212754   0.617   2.447   3.169
36953SOL     OW12755   9.914   6.971  14.615
36953SOL    HW112756   9.903   6.995  14.523
36953SOL    HW212757   9.931   6.877  14.613
36954SOL     OW12758  12.012   9.933   0.963
36954SOL    HW112759  11.929   9.917   1.008
36954SOL    HW212760  12.077   9.882   1.013
36955SOL     OW12761  14.338  10.987   7.156
36955SOL    HW112762  14.365  11.054   7.219
36955SOL    HW212763  14.376  11.016   7.073
36956SOL     OW12764   6.777  12.246   9.200
36956SOL    HW112765   6.736  12.311   9.258
36956SOL    HW212766   6.831  12.298   9.140
36957SOL     OW12767   7.992  14.206  10.430
36957SOL    HW112768   8.068  14.150  10.448
36957SOL    HW212769   7.933  14.151  10.379
36958SOL     OW12770   4.167   5.963   7.200
36958SOL    HW112771   4.227   5.892   7.223
36958SOL    HW212772   4.184   6.030   7.266
36959SOL     OW12773   0.891   1.724   2.783
36959SOL    HW112774   0.916   1.814   2.760
36959SOL    HW212775   0.973   1.676   2.787
36960SOL     OW12776  13.060  11.700  13.347
36960SOL    HW112777  13.103  11.740  13.272
36960SOL    HW212778  13.051  11.771  13.411
36961SOL     OW12779  11.292   9.316   3.457
36961SOL    HW112780  11.239   9.396   3.457
36961SOL    HW212781  11.321   9.307   3.548
36962SOL     OW12782  13.462  14.474   3.241
36962SOL    HW112783  13.454  14.542   3.173
36962SOL    HW212784  13.440  14.519   3.322
36963SOL     OW12785  14.244  13.348   0.109
36963SOL    HW112786  14.272  13.269   0.062
36963SOL    HW212787  14.150  13.356   0.089
36964SOL     OW12788   6.991   1.579   4.427
36964SOL    HW112789   6.946   1.498   4.449
36964SOL    HW212790   7.070   1.578   4.480
36965SOL     OW12791   4.755   4.483  13.421
36965SOL    HW112792   4.725   4.395  13.446
36965SOL    HW212793   4.698   4.543  13.469
36966SOL     OW12794   1.915  12.027   8.395
36966SOL    HW112795   2.003  12.034   8.433
36966SOL    HW212796   1.859  12.000   8.468
36967SOL     OW12797   5.259   4.081  12.031
36967SOL    HW112798   5.348   4.094  11.999
36967SOL    HW212799   5.269   4.026  12.108
36968SOL     OW12800   4.250  10.960  14.482
36968SOL    HW112801   4.265  10.866  14.491
36968SOL    HW212802   4.308  11.000  14.547
36969SOL     OW12803  14.022   0.575  14.115
36969SOL    HW112804  13.933   0.583  14.149
36969SOL    HW212805  14.051   0.666  14.101
36970SOL     OW12806   4.897   9.085   0.170
36970SOL    HW112807   4.964   9.138   0.213
36970SOL    HW212808   4.934   8.997   0.165
36971SOL     OW12809  11.183   2.621   9.544
36971SOL    HW112810  11.210   2.681   9.474
36971SOL    HW212811  11.112   2.667   9.589
36972SOL     OW12812   6.224   4.588  14.475
36972SOL    HW112813   6.281   4.657  14.441
36972SOL    HW212814   6.159   4.635  14.528
36973SOL     OW12815   9.216   3.160  14.791
36973SOL    HW112816   9.221   3.235  14.851
36973SOL    HW212817   9.156   3.099  14.834
36974SOL     OW12818   3.914   9.737  10.314
36974SOL    HW112819   3.977   9.665  10.307
36974SOL    HW212820   3.859   9.713  10.389
36975SOL     OW12821  13.401   8.656   5.549
36975SOL    HW112822  13.429   8.667   5.640
36975SOL    HW212823  13.345   8.579   5.550
36976SOL     OW12824   2.362   4.503   0.755
36976SOL    HW112825   2.447   4.515   0.714
36976SOL    HW212826   2.313   4.582   0.732
36977SOL     OW12827  11.059  12.829  13.071
36977SOL    HW112828  11.153  12.815  13.077
36977SOL    HW212829  11.028  12.821  13.161
36978SOL     OW12830   0.881   3.203   2.653
36978SOL    HW112831   0.895   3.114   2.620
36978SOL    HW212832   0.926   3.205   2.737
36979SOL     OW12833   5.539  11.911  11.921
36979SOL    HW112834   5.594  11.939  11.847
36979SOL    HW212835   5.594  11.924  11.998
36980SOL     OW12836   7.479   8.024  13.229
36980SOL    HW112837   7.415   8.031  13.158
36980SOL    HW212838   7.434   8.063  13.304
36981SOL     OW12839   8.223   9.649   1.648
36981SOL    HW112840   8.177   9.732   1.636
36981SOL    HW212841   8.154   9.583   1.639
36982SOL     OW12842   2.568   2.623  13.395
36982SOL    HW112843   2.480   2.605  13.426
36982SOL    HW212844   2.618   2.642  13.475
36983SOL     OW12845   6.185  14.055   8.930
36983SOL    HW112846   6.264  14.002   8.920
36983SOL    HW212847   6.113  13.993   8.922
36984SOL     OW12848   2.833   1.433   3.584
36984SOL    HW112849   2.761   1.440   3.522
36984SOL    HW212850   2.797   1.462   3.668
36985SOL     OW12851   3.006  10.932   2.815
36985SOL    HW112852   3.009  10.994   2.742
36985SOL    HW212853   2.919  10.893   2.809
36986SOL     OW12854   1.662  11.058   7.584
36986SOL    HW112855   1.572  11.035   7.561
36986SOL    HW212856   1.705  11.070   7.499
36987SOL     OW12857   1.356   6.953  13.639
36987SOL    HW112858   1.305   6.963  13.559
36987SOL    HW212859   1.306   6.890  13.691
36988SOL     OW12860   7.527   4.293   7.852
36988SOL    HW112861   7.492   4.319   7.767
36988SOL    HW212862   7.622   4.298   7.841
36989SOL     OW12863   7.343  14.253   6.048
36989SOL    HW112864   7.248  14.266   6.046
36989SOL    HW212865   7.358  14.200   6.127
36990SOL     OW12866   3.387   7.347  11.901
36990SOL    HW112867   3.459   7.399  11.864
36990SOL    HW212868   3.431   7.274  11.945
36991SOL     OW12869   7.030   2.947  10.823
36991SOL    HW112870   7.003   2.935  10.914
36991SOL    HW212871   6.950   2.973  10.778
36992SOL     OW12872  11.756  13.992   2.400
36992SOL    HW112873  11.682  13.956   2.351
36992SOL    HW212874  11.830  13.983   2.339
36993SOL     OW12875   9.537   4.427   0.293
36993SOL    HW112876   9.565   4.517   0.279
36993SOL    HW212877   9.491   4.429   0.377
36994SOL     OW12878   2.225   2.982   9.676
36994SOL    HW112879   2.271   3.021   9.750
36994SOL    HW212880   2.144   2.948   9.713
36995SOL     OW12881   1.892   9.286   2.619
36995SOL    HW112882   1.941   9.205   2.607
36995SOL    HW212883   1.852   9.277   2.706
36996SOL     OW12884   0.186  14.786  14.485
36996SOL    HW112885   0.253  14.855  14.483
36996SOL    HW212886   0.227  14.712  14.440
36997SOL     OW12887   6.355  13.126  13.467
36997SOL    HW112888   6.427  13.068  13.445
36997SOL    HW212889   6.377  13.161  13.554
36998SOL     OW12890   2.137   6.583   9.593
36998SOL    HW112891   2.044   6.590   9.613
36998SOL    HW212892   2.141   6.523   9.519
36999SOL     OW12893   2.186  11.548   5.240
36999SOL    HW112894   2.182  11.456   5.262
36999SOL    HW212895   2.181  11.550   5.144
37000SOL     OW12896  10.860  11.254   7.699
37000SOL    HW112897  10.843  11.327   7.758
37000SOL    HW212898  10.937  11.210   7.734
37001SOL     OW12899   0.777   8.789  13.824
37001SOL    HW112900   0.872   8.777  13.831
37001SOL    HW212901   0.754   8.748  13.740
37002SOL     OW12902   2.576   1.535   2.661
37002SOL    HW112903   2.630   1.469   2.618
37002SOL    HW212904   2.615   1.545   2.748
37003SOL     OW12905  14.662   0.126   6.768
37003SOL    HW112906  14.716   0.172   6.832
37003SOL    HW212907  14.632   0.196   6.709
37004SOL     OW12908   9.854  10.489   5.169
37004SOL    HW112909   9.877  10.551   5.238
37004SOL    HW212910   9.766  10.459   5.192
37005SOL     OW12911   5.728  13.572  11.066
37005SOL    HW112912   5.734  13.650  11.120
37005SOL    HW212913   5.672  13.512  11.116
37006SOL     OW12914  11.840   0.506   4.383
37006SOL    HW112915  11.916   0.544   4.427
37006SOL    HW212916  11.875   0.470   4.301
37007SOL     OW12917   8.838   3.555  10.445
37007SOL    HW112918   8.856   3.642  10.409
37007SOL    HW212919   8.923   3.511  10.448
37008SOL     OW12920   9.464   6.096   5.922
37008SOL    HW112921   9.383   6.061   5.960
37008SOL    HW212922   9.461   6.190   5.939
37009SOL     OW12923  14.869   6.203   8.950
37009SOL    HW112924  14.821   6.281   8.980
37009SOL    HW212925   0.005   6.216   8.855
37010SOL     OW12926   6.195   7.623   5.999
37010SOL    HW112927   6.204   7.712   5.966
37010SOL    HW212928   6.285   7.590   6.003
37011SOL     OW12929   5.803  14.320   0.296
37011SOL    HW112930   5.878  14.371   0.264
37011SOL    HW212931   5.830  14.289   0.382
37012SOL     OW12932  14.725  10.924   1.394
37012SOL    HW112933  14.720  10.870   1.473
37012SOL    HW212934  14.692  11.010   1.421
37013SOL     OW12935   2.008   9.882   0.887
37013SOL    HW112936   2.080   9.919   0.836
37013SOL    HW212937   2.048   9.809   0.936
37014SOL     OW12938   0.807  11.431  11.304
37014SOL    HW112939   0.759  11.497  11.354
37014SOL    HW212940   0.868  11.393  11.367
37015SOL     OW12941   8.498   6.865   5.421
37015SOL    HW112942   8.538   6.919   5.353
37015SOL    HW212943   8.467   6.927   5.486
37016SOL     OW12944  11.353   1.699  11.020
37016SOL    HW112945  11.426   1.658  10.972
37016SOL    HW212946  11.329   1.774  10.967
37017SOL     OW12947   8.776   3.683   7.364
37017SOL    HW112948   8.821   3.600   7.374
37017SOL    HW212949   8.795   3.731   7.445
37018SOL     OW12950  14.315   7.874   9.931
37018SOL    HW112951  14.379   7.870  10.002
37018SOL    HW212952  14.360   7.921   9.861
37019SOL     OW12953  11.306   6.922   2.236
37019SOL    HW112954  11.226   6.960   2.200
37019SOL    HW212955  11.284   6.831   2.254
37020SOL     OW12956  10.048   1.474  13.881
37020SOL    HW112957  10.019   1.518  13.960
37020SOL    HW212958  10.006   1.522  13.810
37021SOL     OW12959  11.205   8.995   1.224
37021SOL    HW112960  11.274   9.003   1.158
37021SOL    HW212961  11.140   9.061   1.199
37022SOL     OW12962   8.335   3.859   1.304
37022SOL    HW112963   8.341   3.954   1.311
37022SOL    HW212964   8.386   3.839   1.225
37023SOL     OW12965   8.126   3.955   7.354
37023SOL    HW112966   8.165   4.030   7.399
37023SOL    HW212967   8.190   3.931   7.287
37024SOL     OW12968   2.740  10.902   7.022
37024SOL    HW112969   2.807  10.888   7.089
37024SOL    HW212970   2.704  10.815   7.006
37025SOL     OW12971  12.805  11.339   9.141
37025SOL    HW112972  12.836  11.251   9.121
37025SOL    HW212973  12.713  11.328   9.166
37026SOL     OW12974   1.189  12.190   2.752
37026SOL    HW112975   1.173  12.268   2.805
37026SOL    HW212976   1.151  12.118   2.803
37027SOL     OW12977   8.108   9.064   3.103
37027SOL    HW112978   8.094   8.973   3.128
37027SOL    HW212979   8.034   9.112   3.140
37028SOL     OW12980   1.766   7.402   2.087
37028SOL    HW112981   1.719   7.476   2.049
37028SOL    HW212982   1.848   7.440   2.120
37029SOL     OW12983  12.222   2.058   5.685
37029SOL    HW112984  12.305   2.020   5.656
37029SOL    HW212985  12.245   2.115   5.758
37030SOL     OW12986  11.496  13.090   4.521
37030SOL    HW112987  11.502  13.093   4.617
37030SOL    HW212988  11.562  13.025   4.495
37031SOL     OW12989   0.046   4.519  14.834
37031SOL    HW112990   0.034   4.487  14.744
37031SOL    HW212991  14.854   4.471   0.013
37032SOL     OW12992   3.603   3.900  11.964
37032SOL    HW112993   3.606   3.974  11.903
37032SOL    HW212994   3.630   3.825  11.912
37033SOL     OW12995   2.985   1.181   4.720
37033SOL    HW112996   2.910   1.203   4.776
37033SOL    HW212997   2.946   1.141   4.642
37034SOL     OW12998   4.361  13.135  12.517
37034SOL    HW112999   4.283  13.128  12.462
37034SOL    HW213000   4.434  13.129  12.456
37035SOL     OW13001   4.350   4.748   5.480
37035SOL    HW113002   4.376   4.780   5.566
37035SOL    HW213003   4.356   4.653   5.487
37036SOL     OW13004   6.708   6.489   1.994
37036SOL    HW113005   6.758   6.558   2.037
37036SOL    HW213006   6.753   6.408   2.017
37037SOL     OW13007   8.576   5.662  10.709
37037SOL    HW113008   8.557   5.644  10.617
37037SOL    HW213009   8.541   5.587  10.757
37038SOL     OW13010   8.357   8.665   0.352
37038SOL    HW113011   8.395   8.584   0.317
37038SOL    HW213012   8.274   8.674   0.306
37039SOL     OW13013   5.840   4.810   4.836
37039SOL    HW113014   5.904   4.788   4.903
37039SOL    HW213015   5.874   4.890   4.796
37040SOL     OW13016   3.409  13.807  10.082
37040SOL    HW113017   3.314  13.817  10.084
37040SOL    HW213018   3.443  13.896  10.096
37041SOL     OW13019  14.334  13.097  14.855
37041SOL    HW113020  14.428  13.104  14.839
37041SOL    HW213021  14.327  13.078   0.076
37042SOL     OW13022   2.323   6.614  11.303
37042SOL    HW113023   2.258   6.603  11.233
37042SOL    HW213024   2.284   6.571  11.379
37043SOL     OW13025  13.217   8.748   4.223
37043SOL    HW113026  13.150   8.779   4.162
37043SOL    HW213027  13.177   8.672   4.266
37044SOL     OW13028  11.965   9.291   8.015
37044SOL    HW113029  11.959   9.201   7.981
37044SOL    HW213030  11.876   9.324   8.010
37045SOL     OW13031   2.590  14.316   4.102
37045SOL    HW113032   2.618  14.373   4.173
37045SOL    HW213033   2.503  14.346   4.079
37046SOL     OW13034  11.715  14.087   7.134
37046SOL    HW113035  11.642  14.138   7.099
37046SOL    HW213036  11.682  14.050   7.216
37047SOL     OW13037  14.839   2.151   5.467
37047SOL    HW113038  14.854   2.241   5.494
37047SOL    HW213039  14.771   2.156   5.399
37048SOL     OW13040   4.078   2.818   5.650
37048SOL    HW113041   4.018   2.827   5.576
37048SOL    HW213042   4.110   2.728   5.644
37049SOL     OW13043  12.687   9.825   3.563
37049SOL    HW113044  12.717   9.737   3.586
37049SOL    HW213045  12.728   9.882   3.628
37050SOL     OW13046   5.639   2.592  14.244
37050SOL    HW113047   5.697   2.612  14.318
37050SOL    HW213048   5.686   2.525  14.195
37051SOL     OW13049   6.260   1.869  13.277
37051SOL    HW113050   6.207   1.799  13.315
37051SOL    HW213051   6.276   1.842  13.187
37052SOL     OW13052  12.705   8.421   1.249
37052SOL    HW113053  12.795   8.395   1.228
37052SOL    HW213054  12.673   8.461   1.168
37053SOL     OW13055   2.862   0.951   6.167
37053SOL    HW113056   2.872   1.021   6.231
37053SOL    HW213057   2.929   0.970   6.101
37054SOL     OW13058   2.148   5.883  10.688
37054SOL    HW113059   2.193   5.834  10.619
37054SOL    HW213060   2.193   5.857  10.768
37055SOL     OW13061   8.907   7.956  10.586
37055SOL    HW113062   8.870   7.870  10.567
37055SOL    HW213063   8.878   8.011  10.513
37056SOL     OW13064   5.461   1.003   9.654
37056SOL    HW113065   5.554   0.980   9.652
37056SOL    HW213066   5.432   0.993   9.564
37057SOL     OW13067   6.972   4.183   5.047
37057SOL    HW113068   7.059   4.149   5.069
37057SOL    HW213069   6.957   4.151   4.958
37058SOL     OW13070   8.493  14.835  12.438
37058SOL    HW113071   8.573  14.834  12.384
37058SOL    HW213072   8.464   0.054  12.435
37059SOL     OW13073  13.675   1.999   0.871
37059SOL    HW113074  13.738   2.066   0.895
37059SOL    HW213075  13.636   2.031   0.790
37060SOL     OW13076  14.520   8.626   4.213
37060SOL    HW113077  14.602   8.673   4.228
37060SOL    HW213078  14.458   8.665   4.275
37061SOL     OW13079   5.287   6.039   9.666
37061SOL    HW113080   5.326   6.044   9.753
37061SOL    HW213081   5.257   5.949   9.658
37062SOL     OW13082   2.843   8.184   2.133
37062SOL    HW113083   2.811   8.274   2.133
37062SOL    HW213084   2.923   8.186   2.082
37063SOL     OW13085  12.486   0.388   7.650
37063SOL    HW113086  12.430   0.461   7.676
37063SOL    HW213087  12.427   0.313   7.645
37064SOL     OW13088   7.347   2.789  10.833
37064SOL    HW113089   7.363   2.791  10.927
37064SOL    HW213090   7.340   2.696  10.812
37065SOL     OW13091   6.746   1.393  11.428
37065SOL    HW113092   6.765   1.482  11.401
37065SOL    HW213093   6.690   1.358  11.359
37066SOL     OW13094   4.122   1.378   8.854
37066SOL    HW113095   4.161   1.316   8.792
37066SOL    HW213096   4.128   1.463   8.809
37067SOL     OW13097   8.454  13.923  12.591
37067SOL    HW113098   8.483  13.948  12.504
37067SOL    HW213099   8.408  14.001  12.624
37068SOL     OW13100  14.405   6.438   0.105
37068SOL    HW113101  14.328   6.425   0.161
37068SOL    HW213102  14.448   6.352   0.104
37069SOL     OW13103   3.732   8.392   3.675
37069SOL    HW113104   3.776   8.312   3.704
37069SOL    HW213105   3.767   8.409   3.588
37070SOL     OW13106  11.024   8.527  11.952
37070SOL    HW113107  11.042   8.617  11.979
37070SOL    HW213108  11.102   8.499  11.905
37071SOL     OW13109   0.351   4.381   2.067
37071SOL    HW113110   0.378   4.413   1.981
37071SOL    HW213111   0.292   4.449   2.100
37072SOL     OW13112   9.190  12.095   9.769
37072SOL    HW113113   9.138  12.133   9.840
37072SOL    HW213114   9.242  12.027   9.812
37073SOL     OW13115   2.034   9.449  10.514
37073SOL    HW113116   1.964   9.472  10.574
37073SOL    HW213117   2.110   9.497  10.547
37074SOL     OW13118   4.993  11.434  10.554
37074SOL    HW113119   4.957  11.345  10.548
37074SOL    HW213120   5.065  11.426  10.617
37075SOL     OW13121   0.100   3.646   6.703
37075SOL    HW113122   0.013   3.685   6.697
37075SOL    HW213123   0.159   3.714   6.671
37076SOL     OW13124  12.347   0.949  10.969
37076SOL    HW113125  12.279   1.015  10.959
37076SOL    HW213126  12.387   0.943  10.882
37077SOL     OW13127  10.917   4.563   6.850
37077SOL    HW113128  10.940   4.496   6.787
37077SOL    HW213129  10.887   4.637   6.797
37078SOL     OW13130   0.431   2.150  13.517
37078SOL    HW113131   0.525   2.134  13.525
37078SOL    HW213132   0.392   2.062  13.523
37079SOL     OW13133   8.937   3.990   7.147
37079SOL    HW113134   8.981   3.946   7.075
37079SOL    HW213135   8.844   3.990   7.123
37080SOL     OW13136   4.947   5.076  14.440
37080SOL    HW113137   5.028   5.059  14.392
37080SOL    HW213138   4.890   5.119  14.376
37081SOL     OW13139   0.118  11.610   2.274
37081SOL    HW113140   0.062  11.580   2.345
37081SOL    HW213141   0.115  11.706   2.280
37082SOL     OW13142   6.899  10.465   8.806
37082SOL    HW113143   6.816  10.426   8.777
37082SOL    HW213144   6.946  10.394   8.849
37083SOL     OW13145  14.454  11.387   5.095
37083SOL    HW113146  14.523  11.391   5.028
37083SOL    HW213147  14.437  11.294   5.106
37084SOL     OW13148   6.772   1.651   1.693
37084SOL    HW113149   6.728   1.623   1.774
37084SOL    HW213150   6.748   1.743   1.684
37085SOL     OW13151   3.373   1.994  14.047
37085SOL    HW113152   3.342   1.904  14.051
37085SOL    HW213153   3.467   1.987  14.033
37086SOL     OW13154   8.700   8.310   4.610
37086SOL    HW113155   8.736   8.391   4.574
37086SOL    HW213156   8.628   8.288   4.551
37087SOL     OW13157   7.204  10.393   4.150
37087SOL    HW113158   7.243  10.306   4.143
37087SOL    HW213159   7.154  10.390   4.232
37088SOL     OW13160   7.647  10.512   9.225
37088SOL    HW113161   7.730  10.476   9.255
37088SOL    HW213162   7.619  10.453   9.155
37089SOL     OW13163  10.121   3.663   9.525
37089SOL    HW113164  10.051   3.715   9.488
37089SOL    HW213165  10.104   3.574   9.494
37090SOL     OW13166  14.156  13.238  13.319
37090SOL    HW113167  14.110  13.268  13.240
37090SOL    HW213168  14.100  13.168  13.353
37091SOL     OW13169   9.971   8.650   9.344
37091SOL    HW113170   9.881   8.655   9.377
37091SOL    HW213171   9.996   8.559   9.356
37092SOL     OW13172   6.725  13.235   9.200
37092SOL    HW113173   6.661  13.181   9.152
37092SOL    HW213174   6.796  13.174   9.221
37093SOL     OW13175   8.820   4.771   4.170
37093SOL    HW113176   8.814   4.860   4.204
37093SOL    HW213177   8.850   4.781   4.080
37094SOL     OW13178   9.674   5.966   2.718
37094SOL    HW113179   9.765   5.967   2.687
37094SOL    HW213180   9.629   6.027   2.659
37095SOL     OW13181   1.345   4.800   3.117
37095SOL    HW113182   1.278   4.747   3.161
37095SOL    HW213183   1.316   4.805   3.026
37096SOL     OW13184  10.862   3.202   5.965
37096SOL    HW113185  10.884   3.110   5.950
37096SOL    HW213186  10.889   3.247   5.885
37097SOL     OW13187  13.382   2.437   0.787
37097SOL    HW113188  13.303   2.482   0.758
37097SOL    HW213189  13.426   2.499   0.845
37098SOL     OW13190  10.681  13.940   8.074
37098SOL    HW113191  10.700  13.868   8.134
37098SOL    HW213192  10.606  13.909   8.024
37099SOL     OW13193  13.778   2.636   4.925
37099SOL    HW113194  13.717   2.602   4.991
37099SOL    HW213195  13.721   2.678   4.860
37100SOL     OW13196   0.622  11.113  12.138
37100SOL    HW113197   0.714  11.132  12.121
37100SOL    HW213198   0.574  11.171  12.079
37101SOL     OW13199  10.838  13.357  13.838
37101SOL    HW113200  10.749  13.392  13.838
37101SOL    HW213201  10.888  13.420  13.787
37102SOL     OW13202  10.145  12.057  10.186
37102SOL    HW113203  10.236  12.083  10.195
37102SOL    HW213204  10.096  12.125  10.233
37103SOL     OW13205  13.653  10.074   0.959
37103SOL    HW113206  13.595  10.058   1.034
37103SOL    HW213207  13.593  10.087   0.885
37104SOL     OW13208   9.999   3.728   2.417
37104SOL    HW113209   9.954   3.670   2.479
37104SOL    HW213210   9.955   3.713   2.334
37105SOL     OW13211   3.381   1.415  13.202
37105SOL    HW113212   3.355   1.503  13.175
37105SOL    HW213213   3.425   1.427  13.286
37106SOL     OW13214   3.702   9.623  12.189
37106SOL    HW113215   3.785   9.608  12.144
37106SOL    HW213216   3.700   9.556  12.258
37107SOL     OW13217   5.448   7.036  14.743
37107SOL    HW113218   5.412   7.112  14.788
37107SOL    HW213219   5.540   7.058  14.729
37108SOL     OW13220  13.743   5.765  10.219
37108SOL    HW113221  13.701   5.762  10.306
37108SOL    HW213222  13.719   5.681  10.179
37109SOL     OW13223   8.311  14.872   2.367
37109SOL    HW113224   8.232  14.821   2.386
37109SOL    HW213225   8.363  14.815   2.309
37110SOL     OW13226   4.325  13.122   1.724
37110SOL    HW113227   4.368  13.191   1.673
37110SOL    HW213228   4.260  13.084   1.665
37111SOL     OW13229  13.524  13.181   8.725
37111SOL    HW113230  13.442  13.186   8.676
37111SOL    HW213231  13.558  13.093   8.705
37112SOL     OW13232   5.052  12.488   3.254
37112SOL    HW113233   5.002  12.411   3.226
37112SOL    HW213234   5.126  12.492   3.194
37113SOL     OW13235  14.813  13.706   7.845
37113SOL    HW113236  14.740  13.667   7.798
37113SOL    HW213237   0.019  13.671   7.803
37114SOL     OW13238   1.789  12.288   5.034
37114SOL    HW113239   1.842  12.231   4.979
37114SOL    HW213240   1.833  12.373   5.030
37115SOL     OW13241  12.916   3.215   6.662
37115SOL    HW113242  13.003   3.232   6.697
37115SOL    HW213243  12.924   3.131   6.616
37116SOL     OW13244  10.458  11.641   9.206
37116SOL    HW113245  10.436  11.716   9.150
37116SOL    HW213246  10.508  11.678   9.278
37117SOL     OW13247   9.416   7.857  14.225
37117SOL    HW113248   9.403   7.905  14.143
37117SOL    HW213249   9.481   7.908  14.272
37118SOL     OW13250   3.636   4.597   3.522
37118SOL    HW113251   3.684   4.679   3.530
37118SOL    HW213252   3.630   4.563   3.612
37119SOL     OW13253  14.700   3.934  12.468
37119SOL    HW113254  14.638   3.949  12.539
37119SOL    HW213255  14.653   3.960  12.389
37120SOL     OW13256  12.599   8.016  12.611
37120SOL    HW113257  12.560   8.054  12.690
37120SOL    HW213258  12.667   7.957  12.645
37121SOL     OW13259  13.142   1.574  14.364
37121SOL    HW113260  13.213   1.638  14.359
37121SOL    HW213261  13.185   1.489  14.353
37122SOL     OW13262   5.255  11.436   5.766
37122SOL    HW113263   5.238  11.342   5.764
37122SOL    HW213264   5.347  11.444   5.741
37123SOL     OW13265   6.615   4.442   6.312
37123SOL    HW113266   6.681   4.494   6.358
37123SOL    HW213267   6.532   4.471   6.348
37124SOL     OW13268  11.762   6.694   7.354
37124SOL    HW113269  11.838   6.692   7.295
37124SOL    HW213270  11.698   6.749   7.309
37125SOL     OW13271   1.107   0.653   0.687
37125SOL    HW113272   1.093   0.563   0.718
37125SOL    HW213273   1.198   0.673   0.711
37126SOL     OW13274   6.173   1.489   6.984
37126SOL    HW113275   6.256   1.449   6.959
37126SOL    HW213276   6.178   1.500   7.079
37127SOL     OW13277  12.328   9.042  11.006
37127SOL    HW113278  12.251   9.006  11.051
37127SOL    HW213279  12.393   8.972  11.011
37128SOL     OW13280  10.318  12.154   9.829
37128SOL    HW113281  10.337  12.180   9.919
37128SOL    HW213282  10.337  12.233   9.777
37129SOL     OW13283   7.607   9.538   9.070
37129SOL    HW113284   7.666   9.498   9.135
37129SOL    HW213285   7.550   9.466   9.043
37130SOL     OW13286   9.671   7.175  10.647
37130SOL    HW113287   9.596   7.134  10.689
37130SOL    HW213288   9.705   7.236  10.712
37131SOL     OW13289  12.076  14.153   7.251
37131SOL    HW113290  12.156  14.205   7.261
37131SOL    HW213291  12.030  14.193   7.177
37132SOL     OW13292   4.999   2.741   7.924
37132SOL    HW113293   4.969   2.704   8.007
37132SOL    HW213294   4.921   2.783   7.888
37133SOL     OW13295   4.086   5.456   7.634
37133SOL    HW113296   4.012   5.501   7.592
37133SOL    HW213297   4.057   5.444   7.725
37134SOL     OW13298   4.050   3.316   0.517
37134SOL    HW113299   4.029   3.376   0.446
37134SOL    HW213300   4.042   3.368   0.596
37135SOL     OW13301   0.449   8.369  14.112
37135SOL    HW113302   0.440   8.361  14.017
37135SOL    HW213303   0.412   8.287  14.146
37136SOL     OW13304  13.297   1.233   6.501
37136SOL    HW113305  13.230   1.269   6.560
37136SOL    HW213306  13.357   1.306   6.486
37137SOL     OW13307   6.879  13.515   2.108
37137SOL    HW113308   6.912  13.600   2.137
37137SOL    HW213309   6.909  13.507   2.017
37138SOL     OW13310   5.141  11.678   6.694
37138SOL    HW113311   5.076  11.615   6.725
37138SOL    HW213312   5.213  11.671   6.756
37139SOL     OW13313   1.121   9.147   1.292
37139SOL    HW113314   1.033   9.183   1.293
37139SOL    HW213315   1.164   9.186   1.369
37140SOL     OW13316  12.221   1.222   2.620
37140SOL    HW113317  12.259   1.275   2.550
37140SOL    HW213318  12.291   1.214   2.685
37141SOL     OW13319   8.604  10.161   9.493
37141SOL    HW113320   8.572  10.072   9.500
37141SOL    HW213321   8.676  10.166   9.556
37142SOL     OW13322  13.023   3.540   4.597
37142SOL    HW113323  13.071   3.622   4.611
37142SOL    HW213324  12.931   3.563   4.606
37143SOL     OW13325   0.025  10.127   5.460
37143SOL    HW113326   0.056  10.117   5.370
37143SOL    HW213327   0.000  10.038   5.486
37144SOL     OW13328  13.586   3.381   5.063
37144SOL    HW113329  13.494   3.393   5.085
37144SOL    HW213330  13.585   3.336   4.979
37145SOL     OW13331   7.396   6.148   9.647
37145SOL    HW113332   7.341   6.215   9.688
37145SOL    HW213333   7.485   6.171   9.674
37146SOL     OW13334   3.701  11.112   8.262
37146SOL    HW113335   3.698  11.132   8.168
37146SOL    HW213336   3.610  11.093   8.285
37147SOL     OW13337   3.043   2.476   2.700
37147SOL    HW113338   3.050   2.550   2.641
37147SOL    HW213339   2.959   2.487   2.743
37148SOL     OW13340  13.344   7.502   0.554
37148SOL    HW113341  13.391   7.580   0.584
37148SOL    HW213342  13.253   7.531   0.547
37149SOL     OW13343   1.272  14.630  12.097
37149SOL    HW113344   1.218  14.697  12.054
37149SOL    HW213345   1.305  14.576  12.026
37150SOL     OW13346  13.015  11.737   2.766
37150SOL    HW113347  12.976  11.658   2.802
37150SOL    HW213348  13.034  11.791   2.842
37151SOL     OW13349   2.614   6.215   2.777
37151SOL    HW113350   2.552   6.161   2.826
37151SOL    HW213351   2.562   6.250   2.704
37152SOL     OW13352   1.565  10.622  11.065
37152SOL    HW113353   1.478  10.624  11.027
37152SOL    HW213354   1.575  10.706  11.109
37153SOL     OW13355   8.575   9.983  10.174
37153SOL    HW113356   8.554   9.892  10.151
37153SOL    HW213357   8.514  10.006  10.244
37154SOL     OW13358   4.370   7.185   4.293
37154SOL    HW113359   4.316   7.106   4.298
37154SOL    HW213360   4.414   7.189   4.378
37155SOL     OW13361   4.837  10.215   7.888
37155SOL    HW113362   4.775  10.153   7.927
37155SOL    HW213363   4.782  10.286   7.855
37156SOL     OW13364  13.041   8.783  13.967
37156SOL    HW113365  13.021   8.874  13.948
37156SOL    HW213366  13.022   8.737  13.885
37157SOL     OW13367   5.477   2.658  11.303
37157SOL    HW113368   5.493   2.664  11.209
37157SOL    HW213369   5.401   2.714  11.318
37158SOL     OW13370   9.934   6.130   5.366
37158SOL    HW113371   9.922   6.083   5.448
37158SOL    HW213372  10.022   6.167   5.372
37159SOL     OW13373  12.821   1.671   5.559
37159SOL    HW113374  12.909   1.643   5.534
37159SOL    HW213375  12.820   1.765   5.540
37160SOL     OW13376   2.697   6.481   2.960
37160SOL    HW113377   2.640   6.544   2.916
37160SOL    HW213378   2.639   6.433   3.018
37161SOL     OW13379   0.367   4.415   0.406
37161SOL    HW113380   0.397   4.365   0.482
37161SOL    HW213381   0.352   4.503   0.439
37162SOL     OW13382  14.605   9.424   0.233
37162SOL    HW113383  14.527   9.480   0.226
37162SOL    HW213384  14.570   9.339   0.260
37163SOL     OW13385   9.364   3.984   8.625
37163SOL    HW113386   9.390   3.953   8.538
37163SOL    HW213387   9.294   3.924   8.651
37164SOL     OW13388   4.265  11.999   4.458
37164SOL    HW113389   4.327  12.072   4.465
37164SOL    HW213390   4.294  11.937   4.524
37165SOL     OW13391  11.696   2.510   7.611
37165SOL    HW113392  11.639   2.434   7.623
37165SOL    HW213393  11.756   2.508   7.686
37166SOL     OW13394   5.154   1.649   8.674
37166SOL    HW113395   5.214   1.587   8.634
37166SOL    HW213396   5.117   1.602   8.748
37167SOL     OW13397  14.381  12.278  10.346
37167SOL    HW113398  14.361  12.314  10.260
37167SOL    HW213399  14.395  12.185  10.331
37168SOL     OW13400   6.881   1.575   9.641
37168SOL    HW113401   6.819   1.642   9.668
37168SOL    HW213402   6.829   1.516   9.586
37169SOL     OW13403   0.550  12.470   2.597
37169SOL    HW113404   0.602  12.479   2.677
37169SOL    HW213405   0.610  12.491   2.526
37170SOL     OW13406   2.910   9.320  11.976
37170SOL    HW113407   2.849   9.328  11.903
37170SOL    HW213408   2.927   9.226  11.983
37171SOL     OW13409  13.603  10.524   9.568
37171SOL    HW113410  13.616  10.438   9.528
37171SOL    HW213411  13.679  10.536   9.625
37172SOL     OW13412   5.436  11.362   0.362
37172SOL    HW113413   5.375  11.320   0.302
37172SOL    HW213414   5.395  11.355   0.448
37173SOL     OW13415   5.975   9.174  10.490
37173SOL    HW113416   6.054   9.210  10.530
37173SOL    HW213417   5.998   9.084  10.468
37174SOL     OW13418   0.458  11.564  10.800
37174SOL    HW113419   0.431  11.538  10.888
37174SOL    HW213420   0.454  11.483  10.749
37175SOL     OW13421  12.723   8.915   6.921
37175SOL    HW113422  12.668   8.838   6.929
37175SOL    HW213423  12.744   8.938   7.012
37176SOL     OW13424   7.823   3.520  14.847
37176SOL    HW113425   7.847   3.427  14.844
37176SOL    HW213426   7.768   3.532  14.770
37177SOL     OW13427   6.040   7.468  14.480
37177SOL    HW113428   6.133   7.463  14.500
37177SOL    HW213429   6.037   7.479  14.385
37178SOL     OW13430  13.822   7.876  14.481
37178SOL    HW113431  13.784   7.937  14.417
37178SOL    HW213432  13.901   7.920  14.511
37179SOL     OW13433   3.031  12.283  10.902
37179SOL    HW113434   3.089  12.329  10.963
37179SOL    HW213435   2.984  12.219  10.957
37180SOL     OW13436   3.376   5.888   0.802
37180SOL    HW113437   3.406   5.943   0.874
37180SOL    HW213438   3.289   5.922   0.781
37181SOL     OW13439   1.027   7.116   3.279
37181SOL    HW113440   0.964   7.060   3.234
37181SOL    HW213441   0.976   7.165   3.343
37182SOL     OW13442   0.507   9.588   9.555
37182SOL    HW113443   0.426   9.576   9.604
37182SOL    HW213444   0.577   9.567   9.617
37183SOL     OW13445  10.655  10.109  14.183
37183SOL    HW113446  10.582  10.170  14.194
37183SOL    HW213447  10.697  10.137  14.101
37184SOL     OW13448   4.658   5.705   7.327
37184SOL    HW113449   4.710   5.630   7.354
37184SOL    HW213450   4.666   5.768   7.399
37185SOL     OW13451   7.861   1.473  10.027
37185SOL    HW113452   7.840   1.381  10.015
37185SOL    HW213453   7.784   1.520   9.996
37186SOL     OW13454  12.663   5.665   5.107
37186SOL    HW113455  12.685   5.740   5.161
37186SOL    HW213456  12.687   5.691   5.018
37187SOL     OW13457   5.401   2.266   8.773
37187SOL    HW113458   5.417   2.320   8.850
37187SOL    HW213459   5.342   2.318   8.719
37188SOL     OW13460  13.510   7.292  14.083
37188SOL    HW113461  13.587   7.236  14.093
37188SOL    HW213462  13.474   7.299  14.171
37189SOL     OW13463   4.077   5.626  11.941
37189SOL    HW113464   4.079   5.722  11.944
37189SOL    HW213465   4.147   5.603  11.880
37190SOL     OW13466  14.715  10.091   3.426
37190SOL    HW113467  14.784  10.038   3.465
37190SOL    HW213468  14.736  10.093   3.333
37191SOL     OW13469   4.988   0.846   3.682
37191SOL    HW113470   4.943   0.918   3.726
37191SOL    HW213471   4.921   0.778   3.673
37192SOL     OW13472   6.221  13.018   1.879
37192SOL    HW113473   6.242  13.110   1.865
37192SOL    HW213474   6.235  12.977   1.794
37193SOL     OW13475  11.324  12.285   2.232
37193SOL    HW113476  11.271  12.256   2.307
37193SOL    HW213477  11.287  12.370   2.209
37194SOL     OW13478  11.343  10.953  10.184
37194SOL    HW113479  11.306  10.878  10.230
37194SOL    HW213480  11.396  10.998  10.250
37195SOL     OW13481   5.868   5.494   2.719
37195SOL    HW113482   5.914   5.415   2.747
37195SOL    HW213483   5.777   5.466   2.711
37196SOL     OW13484   3.097  14.279   1.737
37196SOL    HW113485   3.055  14.306   1.655
37196SOL    HW213486   3.024  14.255   1.794
37197SOL     OW13487  11.009   8.224   0.250
37197SOL    HW113488  11.007   8.316   0.276
37197SOL    HW213489  11.065   8.182   0.315
37198SOL     OW13490   6.534  13.553  10.848
37198SOL    HW113491   6.626  13.529  10.853
37198SOL    HW213492   6.533  13.644  10.821
37199SOL     OW13493   2.321   9.915   7.592
37199SOL    HW113494   2.360   9.953   7.513
37199SOL    HW213495   2.238   9.878   7.562
37200SOL     OW13496  11.753   2.076   2.804
37200SOL    HW113497  11.764   2.024   2.725
37200SOL    HW213498  11.841   2.082   2.841
37201SOL     OW13499  11.537   1.520  14.235
37201SOL    HW113500  11.564   1.428  14.228
37201SOL    HW213501  11.609   1.569  14.196
37202SOL     OW13502   9.269   7.012   8.063
37202SOL    HW113503   9.235   7.093   8.101
37202SOL    HW213504   9.353   6.997   8.107
37203SOL     OW13505   0.526   8.445   8.378
37203SOL    HW113506   0.570   8.374   8.332
37203SOL    HW213507   0.470   8.402   8.442
37204SOL     OW13508   3.536   0.060   3.344
37204SOL    HW113509   3.620   0.014   3.333
37204SOL    HW213510   3.533   0.082   3.437
37205SOL     OW13511   6.424  11.269   6.283
37205SOL    HW113512   6.482  11.243   6.355
37205SOL    HW213513   6.447  11.209   6.212
37206SOL     OW13514  10.693   6.270   5.208
37206SOL    HW113515  10.740   6.273   5.124
37206SOL    HW213516  10.762   6.259   5.273
37207SOL     OW13517   2.497   9.484   7.551
37207SOL    HW113518   2.582   9.460   7.589
37207SOL    HW213519   2.445   9.513   7.625
37208SOL     OW13520   1.538  14.799   8.761
37208SOL    HW113521   1.480  14.766   8.830
37208SOL    HW213522   1.515  14.747   8.684
37209SOL     OW13523  10.200  14.492   3.153
37209SOL    HW113524  10.156  14.554   3.095
37209SOL    HW213525  10.193  14.408   3.108
37210SOL     OW13526   3.071   5.987   2.347
37210SOL    HW113527   3.156   6.007   2.309
37210SOL    HW213528   3.012   6.055   2.313
37211SOL     OW13529   4.793  13.262  10.286
37211SOL    HW113530   4.856  13.201  10.248
37211SOL    HW213531   4.842  13.344  10.293
37212SOL     OW13532   8.728  14.835   4.943
37212SOL    HW113533   8.756   0.016   5.017
37212SOL    HW213534   8.746  14.745   4.970
37213SOL     OW13535   8.921  11.726   8.099
37213SOL    HW113536   8.989  11.668   8.133
37213SOL    HW213537   8.957  11.814   8.109
37214SOL     OW13538   0.241  12.702   0.081
37214SOL    HW113539   0.179  12.636   0.050
37214SOL    HW213540   0.231  12.775   0.021
37215SOL     OW13541  10.418   1.014  12.298
37215SOL    HW113542  10.336   1.006  12.249
37215SOL    HW213543  10.396   0.983  12.387
37216SOL     OW13544  11.751  13.585   2.168
37216SOL    HW113545  11.673  13.617   2.214
37216SOL    HW213546  11.802  13.541   2.235
37217SOL     OW13547   2.697   1.559   2.051
37217SOL    HW113548   2.751   1.621   2.002
37217SOL    HW213549   2.616   1.607   2.069
37218SOL     OW13550   7.343   4.094   3.582
37218SOL    HW113551   7.303   4.181   3.585
37218SOL    HW213552   7.405   4.099   3.509
37219SOL     OW13553   7.799  11.919   5.996
37219SOL    HW113554   7.793  11.955   5.907
37219SOL    HW213555   7.748  11.838   5.993
37220SOL     OW13556   3.669   2.108   8.132
37220SOL    HW113557   3.576   2.089   8.141
37220SOL    HW213558   3.679   2.137   8.041
37221SOL     OW13559  10.564   1.058   2.254
37221SOL    HW113560  10.597   1.145   2.275
37221SOL    HW213561  10.602   1.001   2.320
37222SOL     OW13562  13.049   9.834   9.912
37222SOL    HW113563  13.015   9.853   9.825
37222SOL    HW213564  13.094   9.914   9.938
37223SOL     OW13565  13.254   8.849   1.515
37223SOL    HW113566  13.248   8.932   1.468
37223SOL    HW213567  13.249   8.782   1.447
37224SOL     OW13568   0.026  13.799  13.650
37224SOL    HW113569   0.039  13.716  13.696
37224SOL    HW213570  14.820  13.837  13.689
37225SOL     OW13571  13.380   8.670   3.553
37225SOL    HW113572  13.401   8.733   3.621
37225SOL    HW213573  13.460   8.662   3.501
37226SOL     OW13574  10.148  13.323   9.313
37226SOL    HW113575  10.110  13.334   9.400
37226SOL    HW213576  10.227  13.377   9.314
37227SOL     OW13577   0.132  13.300   4.331
37227SOL    HW113578   0.052  13.316   4.381
37227SOL    HW213579   0.106  13.234   4.266
37228SOL     OW13580   1.526  14.485   5.728
37228SOL    HW113581   1.596  14.499   5.792
37228SOL    HW213582   1.488  14.401   5.753
37229SOL     OW13583   1.262   9.090   3.403
37229SOL    HW113584   1.206   9.054   3.334
37229SOL    HW213585   1.212   9.163   3.439
37230SOL     OW13586  14.371  10.312  12.899
37230SOL    HW113587  14.390  10.406  12.892
37230SOL    HW213588  14.425  10.282  12.971
37231SOL     OW13589   9.392  12.307  14.243
37231SOL    HW113590   9.475  12.350  14.220
37231SOL    HW213591   9.375  12.248  14.170
37232SOL     OW13592  11.180   0.210   0.506
37232SOL    HW113593  11.101   0.175   0.466
37232SOL    HW213594  11.213   0.139   0.561
37233SOL     OW13595  10.037  11.686   3.221
37233SOL    HW113596  10.125  11.658   3.245
37233SOL    HW213597  10.021  11.764   3.275
37234SOL     OW13598   9.767  10.092  13.856
37234SOL    HW113599   9.709  10.098  13.781
37234SOL    HW213600   9.854  10.110  13.821
37235SOL     OW13601   5.793   7.966   5.118
37235SOL    HW113602   5.875   7.917   5.124
37235SOL    HW213603   5.819   8.052   5.086
37236SOL     OW13604   9.633   4.556  14.727
37236SOL    HW113605   9.687   4.594  14.657
37236SOL    HW213606   9.586   4.485  14.684
37237SOL     OW13607   6.347   6.727  14.207
37237SOL    HW113608   6.346   6.631  14.207
37237SOL    HW213609   6.307   6.751  14.123
37238SOL     OW13610   6.429  14.798   1.698
37238SOL    HW113611   6.519  14.826   1.686
37238SOL    HW213612   6.387  14.812   1.613
37239SOL     OW13613   6.286   9.046   8.054
37239SOL    HW113614   6.294   8.977   8.120
37239SOL    HW213615   6.303   9.127   8.101
37240SOL     OW13616   7.801  13.157  10.841
37240SOL    HW113617   7.715  13.120  10.862
37240SOL    HW213618   7.788  13.251  10.840
37241SOL     OW13619  11.709  10.716   5.029
37241SOL    HW113620  11.678  10.677   4.948
37241SOL    HW213621  11.802  10.733   5.013
37242SOL     OW13622   7.090   8.165   0.485
37242SOL    HW113623   7.042   8.114   0.421
37242SOL    HW213624   7.158   8.210   0.435
37243SOL     OW13625   8.322   5.913   2.814
37243SOL    HW113626   8.352   5.874   2.896
37243SOL    HW213627   8.319   6.007   2.833
37244SOL     OW13628   4.432   5.821   8.499
37244SOL    HW113629   4.478   5.881   8.441
37244SOL    HW213630   4.502   5.767   8.537
37245SOL     OW13631   7.523  12.017   2.573
37245SOL    HW113632   7.505  12.027   2.667
37245SOL    HW213633   7.445  12.049   2.530
37246SOL     OW13634   7.714   0.880   7.230
37246SOL    HW113635   7.702   0.896   7.323
37246SOL    HW213636   7.718   0.785   7.222
37247SOL     OW13637  14.409  11.954   5.156
37247SOL    HW113638  14.464  12.032   5.165
37247SOL    HW213639  14.394  11.925   5.246
37248SOL     OW13640   8.397   3.801   7.711
37248SOL    HW113641   8.385   3.718   7.665
37248SOL    HW213642   8.424   3.863   7.642
37249SOL     OW13643   1.226  13.727  14.006
37249SOL    HW113644   1.266  13.782  13.938
37249SOL    HW213645   1.299  13.706  14.065
37250SOL     OW13646  14.277  12.090   0.499
37250SOL    HW113647  14.268  11.996   0.516
37250SOL    HW213648  14.237  12.132   0.575
37251SOL     OW13649  10.118   6.889   5.739
37251SOL    HW113650  10.208   6.909   5.765
37251SOL    HW213651  10.128   6.830   5.664
37252SOL     OW13652   8.478   1.986   2.632
37252SOL    HW113653   8.508   1.923   2.699
37252SOL    HW213654   8.385   1.999   2.652
37253SOL     OW13655  10.269   5.460   4.455
37253SOL    HW113656  10.358   5.476   4.486
37253SOL    HW213657  10.276   5.466   4.360
37254SOL     OW13658   5.992   3.008   0.207
37254SOL    HW113659   6.060   2.947   0.176
37254SOL    HW213660   5.930   3.012   0.134
37255SOL     OW13661   8.319   8.802   7.013
37255SOL    HW113662   8.291   8.716   7.043
37255SOL    HW213663   8.403   8.817   7.056
37256SOL     OW13664   9.910  12.644  10.693
37256SOL    HW113665   9.960  12.562  10.694
37256SOL    HW213666   9.965  12.706  10.741
37257SOL     OW13667   4.530  13.652   1.713
37257SOL    HW113668   4.603  13.711   1.731
37257SOL    HW213669   4.488  13.688   1.635
37258SOL     OW13670   1.096   5.054  14.654
37258SOL    HW113671   1.111   5.040  14.747
37258SOL    HW213672   1.183   5.052  14.614
37259SOL     OW13673   6.032  11.497   4.029
37259SOL    HW113674   5.961  11.555   4.059
37259SOL    HW213675   6.107  11.522   4.083
37260SOL     OW13676   8.253   5.576   6.109
37260SOL    HW113677   8.231   5.669   6.096
37260SOL    HW213678   8.180   5.529   6.068
37261SOL     OW13679   9.366   1.752   9.908
37261SOL    HW113680   9.436   1.753   9.973
37261SOL    HW213681   9.286   1.746   9.959
37262SOL     OW13682   3.373   5.623  10.560
37262SOL    HW113683   3.351   5.717  10.555
37262SOL    HW213684   3.466   5.620  10.540
37263SOL     OW13685   8.123   2.441  11.428
37263SOL    HW113686   8.124   2.467  11.336
37263SOL    HW213687   8.094   2.350  11.427
37264SOL     OW13688   2.529   0.615  11.618
37264SOL    HW113689   2.549   0.685  11.680
37264SOL    HW213690   2.474   0.554  11.667
37265SOL     OW13691   2.212   0.517  14.440
37265SOL    HW113692   2.203   0.549  14.351
37265SOL    HW213693   2.198   0.422  14.433
37266SOL     OW13694   7.881  14.224   5.162
37266SOL    HW113695   7.860  14.204   5.071
37266SOL    HW213696   7.973  14.249   5.161
37267SOL     OW13697  11.835   0.667   0.204
37267SOL    HW113698  11.758   0.723   0.191
37267SOL    HW213699  11.800   0.587   0.241
37268SOL     OW13700   6.081   5.408  10.482
37268SOL    HW113701   6.110   5.436  10.569
37268SOL    HW213702   6.077   5.489  10.431
37269SOL     OW13703   1.667   9.927   6.432
37269SOL    HW113704   1.704   9.911   6.519
37269SOL    HW213705   1.572   9.921   6.444
37270SOL     OW13706  14.069   4.242   6.272
37270SOL    HW113707  14.164   4.240   6.261
37270SOL    HW213708  14.044   4.330   6.246
37271SOL     OW13709   0.981  12.222   1.402
37271SOL    HW113710   1.060  12.188   1.361
37271SOL    HW213711   0.909  12.194   1.345
37272SOL     OW13712   9.732  10.446  10.785
37272SOL    HW113713   9.789  10.499  10.730
37272SOL    HW213714   9.790  10.381  10.824
37273SOL     OW13715   4.877   2.966   0.918
37273SOL    HW113716   4.919   2.921   0.991
37273SOL    HW213717   4.867   3.056   0.947
37274SOL     OW13718   2.769  13.468  12.854
37274SOL    HW113719   2.704  13.428  12.795
37274SOL    HW213720   2.811  13.393  12.898
37275SOL     OW13721   3.722  13.137  10.405
37275SOL    HW113722   3.760  13.210  10.453
37275SOL    HW213723   3.795  13.076  10.392
37276SOL     OW13724   5.726  12.489  12.242
37276SOL    HW113725   5.729  12.524  12.153
37276SOL    HW213726   5.697  12.399  12.232
37277SOL     OW13727  13.115  14.167   8.362
37277SOL    HW113728  13.165  14.186   8.441
37277SOL    HW213729  13.156  14.088   8.326
37278SOL     OW13730   8.259   4.762   3.339
37278SOL    HW113731   8.281   4.804   3.422
37278SOL    HW213732   8.320   4.689   3.332
37279SOL     OW13733  11.791  12.965   2.531
37279SOL    HW113734  11.718  12.987   2.589
37279SOL    HW213735  11.802  13.042   2.475
37280SOL     OW13736  12.464   0.877   2.503
37280SOL    HW113737  12.482   0.792   2.544
37280SOL    HW213738  12.484   0.864   2.411
37281SOL     OW13739  14.048   6.214   2.649
37281SOL    HW113740  13.960   6.225   2.613
37281SOL    HW213741  14.106   6.251   2.582
37282SOL     OW13742   4.994   4.600   1.824
37282SOL    HW113743   4.995   4.677   1.768
37282SOL    HW213744   5.084   4.589   1.853
37283SOL     OW13745   6.553   8.277   4.582
37283SOL    HW113746   6.584   8.205   4.637
37283SOL    HW213747   6.614   8.279   4.509
37284SOL     OW13748   9.872  10.961  13.515
37284SOL    HW113749   9.885  10.948  13.609
37284SOL    HW213750   9.951  10.926  13.475
37285SOL     OW13751   9.179   9.121  14.161
37285SOL    HW113752   9.215   9.208  14.181
37285SOL    HW213753   9.256   9.065  14.151
37286SOL     OW13754   5.059   8.331  12.122
37286SOL    HW113755   5.022   8.347  12.209
37286SOL    HW213756   4.987   8.351  12.062
37287SOL     OW13757   9.656   4.774  10.006
37287SOL    HW113758   9.571   4.732  10.023
37287SOL    HW213759   9.658   4.847  10.067
37288SOL     OW13760   2.213   1.307   5.220
37288SOL    HW113761   2.137   1.317   5.162
37288SOL    HW213762   2.180   1.333   5.306
37289SOL     OW13763   2.501   8.971  14.421
37289SOL    HW113764   2.569   8.903  14.415
37289SOL    HW213765   2.435   8.944  14.357
37290SOL     OW13766   8.816   9.334  11.318
37290SOL    HW113767   8.760   9.301  11.248
37290SOL    HW213768   8.898   9.284  11.309
37291SOL     OW13769  10.240   6.683   1.254
37291SOL    HW113770  10.330   6.715   1.255
37291SOL    HW213771  10.189   6.755   1.219
37292SOL     OW13772   6.402   9.236   5.544
37292SOL    HW113773   6.469   9.168   5.551
37292SOL    HW213774   6.427   9.300   5.612
37293SOL     OW13775   0.066   7.670   4.644
37293SOL    HW113776  14.849   7.654   4.612
37293SOL    HW213777   0.122   7.659   4.567
37294SOL     OW13778   7.274   9.215   2.479
37294SOL    HW113779   7.352   9.269   2.477
37294SOL    HW213780   7.213   9.259   2.419
37295SOL     OW13781   1.013  10.131   5.991
37295SOL    HW113782   1.060  10.194   5.937
37295SOL    HW213783   0.924  10.131   5.955
37296SOL     OW13784   8.437   7.521  11.097
37296SOL    HW113785   8.518   7.521  11.149
37296SOL    HW213786   8.371   7.559  11.154
37297SOL     OW13787   4.824   7.629  10.152
37297SOL    HW113788   4.763   7.567  10.112
37297SOL    HW213789   4.867   7.579  10.221
37298SOL     OW13790   9.809  10.942  10.502
37298SOL    HW113791   9.775  11.030  10.487
37298SOL    HW213792   9.741  10.883  10.471
37299SOL     OW13793   5.835  10.968  12.210
37299SOL    HW113794   5.797  10.984  12.296
37299SOL    HW213795   5.781  10.899  12.171
37300SOL     OW13796  14.349   0.209  13.219
37300SOL    HW113797  14.396   0.153  13.157
37300SOL    HW213798  14.380   0.297  13.198
37301SOL     OW13799   7.335   0.234  13.458
37301SOL    HW113800   7.408   0.179  13.429
37301SOL    HW213801   7.375   0.297  13.517
37302SOL     OW13802  11.663   8.355   5.819
37302SOL    HW113803  11.704   8.317   5.896
37302SOL    HW213804  11.579   8.388   5.850
37303SOL     OW13805  12.806   3.354   6.271
37303SOL    HW113806  12.741   3.283   6.274
37303SOL    HW213807  12.852   3.340   6.188
37304SOL     OW13808  13.188  13.355   1.010
37304SOL    HW113809  13.198  13.403   1.092
37304SOL    HW213810  13.200  13.263   1.034
37305SOL     OW13811   5.033  12.103  12.385
37305SOL    HW113812   4.991  12.033  12.434
37305SOL    HW213813   5.061  12.061  12.303
37306SOL     OW13814   4.146   1.443  10.374
37306SOL    HW113815   4.079   1.376  10.365
37306SOL    HW213816   4.099   1.526  10.359
37307SOL     OW13817   1.253   2.070   0.120
37307SOL    HW113818   1.302   2.024   0.189
37307SOL    HW213819   1.252   2.008   0.047
37308SOL     OW13820  12.371   7.480   9.384
37308SOL    HW113821  12.335   7.532   9.313
37308SOL    HW213822  12.465   7.474   9.365
37309SOL     OW13823   6.204   7.759   3.459
37309SOL    HW113824   6.297   7.735   3.462
37309SOL    HW213825   6.202   7.852   3.482
37310SOL     OW13826   9.871   7.606   9.254
37310SOL    HW113827   9.938   7.560   9.203
37310SOL    HW213828   9.789   7.562   9.231
37311SOL     OW13829   3.297   4.603   4.495
37311SOL    HW113830   3.278   4.584   4.403
37311SOL    HW213831   3.389   4.577   4.505
37312SOL     OW13832   3.479   2.740   3.018
37312SOL    HW113833   3.551   2.803   3.017
37312SOL    HW213834   3.402   2.791   3.042
37313SOL     OW13835   9.360  11.972  13.053
37313SOL    HW113836   9.294  11.930  13.108
37313SOL    HW213837   9.313  12.043  13.009
37314SOL     OW13838   8.307   8.125   6.208
37314SOL    HW113839   8.344   8.187   6.271
37314SOL    HW213840   8.224   8.165   6.182
37315SOL     OW13841   0.429   3.472   3.854
37315SOL    HW113842   0.352   3.428   3.817
37315SOL    HW213843   0.428   3.558   3.812
37316SOL     OW13844   2.678   5.829  14.499
37316SOL    HW113845   2.633   5.823  14.415
37316SOL    HW213846   2.754   5.885  14.482
37317SOL     OW13847  11.926   1.902   5.944
37317SOL    HW113848  11.955   1.984   5.985
37317SOL    HW213849  11.996   1.840   5.964
37318SOL     OW13850   6.657   3.586  13.101
37318SOL    HW113851   6.590   3.519  13.114
37318SOL    HW213852   6.671   3.588  13.006
37319SOL     OW13853  14.553  11.101  11.946
37319SOL    HW113854  14.511  11.084  11.861
37319SOL    HW213855  14.493  11.162  11.989
37320SOL     OW13856   0.165  11.483   4.420
37320SOL    HW113857   0.170  11.423   4.494
37320SOL    HW213858   0.226  11.553   4.441
37321SOL     OW13859   9.406  10.460   9.843
37321SOL    HW113860   9.468  10.527   9.814
37321SOL    HW213861   9.407  10.394   9.774
37322SOL     OW13862   3.164   5.220   9.445
37322SOL    HW113863   3.123   5.289   9.393
37322SOL    HW213864   3.176   5.148   9.384
37323SOL     OW13865   6.731   5.383   2.908
37323SOL    HW113866   6.782   5.318   2.861
37323SOL    HW213867   6.742   5.360   3.000
37324SOL     OW13868   7.856  11.211   5.257
37324SOL    HW113869   7.935  11.205   5.203
37324SOL    HW213870   7.859  11.134   5.313
37325SOL     OW13871   1.516  14.110  13.836
37325SOL    HW113872   1.604  14.148  13.833
37325SOL    HW213873   1.480  14.127  13.749
37326SOL     OW13874  14.733  13.252   6.946
37326SOL    HW113875  14.788  13.180   6.914
37326SOL    HW213876  14.765  13.266   7.036
37327SOL     OW13877   5.635  14.774   0.949
37327SOL    HW113878   5.667  14.684   0.941
37327SOL    HW213879   5.713  14.828   0.936
37328SOL     OW13880   0.675   9.319   9.921
37328SOL    HW113881   0.721   9.235   9.930
37328SOL    HW213882   0.626   9.329  10.002
37329SOL     OW13883   1.351   7.240   3.535
37329SOL    HW113884   1.293   7.199   3.599
37329SOL    HW213885   1.394   7.167   3.491
37330SOL     OW13886   1.064  14.172   5.252
37330SOL    HW113887   1.094  14.102   5.195
37330SOL    HW213888   0.972  14.151   5.269
37331SOL     OW13889  10.792   4.723   0.063
37331SOL    HW113890  10.723   4.790   0.057
37331SOL    HW213891  10.763   4.665   0.133
37332SOL     OW13892  13.069   0.828  10.264
37332SOL    HW113893  13.066   0.911  10.215
37332SOL    HW213894  13.153   0.789  10.238
37333SOL     OW13895  13.250   6.732   6.174
37333SOL    HW113896  13.270   6.755   6.083
37333SOL    HW213897  13.329   6.757   6.223
37334SOL     OW13898   6.776  14.730   4.970
37334SOL    HW113899   6.849  14.707   4.912
37334SOL    HW213900   6.770  14.826   4.963
37335SOL     OW13901  13.788  14.055   6.987
37335SOL    HW113902  13.716  14.019   6.935
37335SOL    HW213903  13.814  14.134   6.939
37336SOL     OW13904  12.074  14.258  14.538
37336SOL    HW113905  12.025  14.269  14.619
37336SOL    HW213906  12.060  14.340  14.490
37337SOL     OW13907   4.591   0.768  11.338
37337SOL    HW113908   4.612   0.763  11.245
37337SOL    HW213909   4.497   0.751  11.343
37338SOL     OW13910  13.851   0.796   8.586
37338SOL    HW113911  13.900   0.722   8.622
37338SOL    HW213912  13.786   0.817   8.653
37339SOL     OW13913   8.260   6.068   9.876
37339SOL    HW113914   8.299   5.993   9.922
37339SOL    HW213915   8.187   6.030   9.827
37340SOL     OW13916   8.969   8.139  13.907
37340SOL    HW113917   8.888   8.159  13.860
37340SOL    HW213918   8.984   8.046  13.890
37341SOL     OW13919   7.077  13.732  14.390
37341SOL    HW113920   7.137  13.784  14.444
37341SOL    HW213921   7.046  13.794  14.324
37342SOL     OW13922  11.969   3.069   9.194
37342SOL    HW113923  11.913   3.064   9.271
37342SOL    HW213924  12.036   3.001   9.209
37343SOL     OW13925   1.890  12.251  10.225
37343SOL    HW113926   1.830  12.191  10.181
37343SOL    HW213927   1.973  12.238  10.180
37344SOL     OW13928   6.718   4.076   5.147
37344SOL    HW113929   6.775   4.148   5.120
37344SOL    HW213930   6.653   4.069   5.077
37345SOL     OW13931   0.647   3.108   8.962
37345SOL    HW113932   0.596   3.035   8.998
37345SOL    HW213933   0.599   3.135   8.884
37346SOL     OW13934  11.303  12.840  14.742
37346SOL    HW113935  11.306  12.911  14.806
37346SOL    HW213936  11.337  12.879  14.661
37347SOL     OW13937   7.727  11.128   9.552
37347SOL    HW113938   7.664  11.059   9.570
37347SOL    HW213939   7.714  11.149   9.460
37348SOL     OW13940  10.505   0.094   8.349
37348SOL    HW113941  10.472   0.074   8.437
37348SOL    HW213942  10.436   0.067   8.290
37349SOL     OW13943   2.941   0.873   0.991
37349SOL    HW113944   2.859   0.902   0.952
37349SOL    HW213945   2.953   0.930   1.067
37350SOL     OW13946   1.763  11.751   4.855
37350SOL    HW113947   1.734  11.752   4.946
37350SOL    HW213948   1.691  11.793   4.807
37351SOL     OW13949   5.275   1.337  10.764
37351SOL    HW113950   5.356   1.384  10.746
37351SOL    HW213951   5.234   1.326  10.678
37352SOL     OW13952  10.926   1.929  12.602
37352SOL    HW113953  10.864   1.992  12.638
37352SOL    HW213954  10.950   1.874  12.677
37353SOL     OW13955  13.742   9.602   0.472
37353SOL    HW113956  13.768   9.623   0.562
37353SOL    HW213957  13.773   9.676   0.420
37354SOL     OW13958  10.078  14.093  11.137
37354SOL    HW113959   9.992  14.092  11.178
37354SOL    HW213960  10.140  14.091  11.210
37355SOL     OW13961  14.611   9.227   2.142
37355SOL    HW113962  14.579   9.209   2.230
37355SOL    HW213963  14.562   9.168   2.085
37356SOL     OW13964  12.742   0.016   2.270
37356SOL    HW113965  12.725  14.815   2.329
37356SOL    HW213966  12.717   0.094   2.321
37357SOL     OW13967   1.044   7.782   8.917
37357SOL    HW113968   1.013   7.697   8.886
37357SOL    HW213969   0.984   7.806   8.987
37358SOL     OW13970  12.913   6.748   5.819
37358SOL    HW113971  12.847   6.816   5.836
37358SOL    HW213972  12.997   6.793   5.828
37359SOL     OW13973   4.461  13.822  10.065
37359SOL    HW113974   4.367  13.810  10.058
37359SOL    HW213975   4.473  13.874  10.145
37360SOL     OW13976   8.431   9.237   8.074
37360SOL    HW113977   8.423   9.197   7.987
37360SOL    HW213978   8.369   9.188   8.129
37361SOL     OW13979   5.144   4.221   1.139
37361SOL    HW113980   5.208   4.203   1.208
37361SOL    HW213981   5.185   4.189   1.059
37362SOL     OW13982   3.698   7.799   5.081
37362SOL    HW113983   3.707   7.833   4.991
37362SOL    HW213984   3.731   7.870   5.136
37363SOL     OW13985  11.399   8.950   9.879
37363SOL    HW113986  11.427   8.949   9.971
37363SOL    HW213987  11.392   8.858   9.855
37364SOL     OW13988  14.342   1.095   0.892
37364SOL    HW113989  14.436   1.079   0.901
37364SOL    HW213990  14.304   1.068   0.975
37365SOL     OW13991   8.778   2.488   9.682
37365SOL    HW113992   8.737   2.516   9.764
37365SOL    HW213993   8.867   2.524   9.687
37366SOL     OW13994  11.401   1.786   6.405
37366SOL    HW113995  11.429   1.694   6.406
37366SOL    HW213996  11.374   1.802   6.315
37367SOL     OW13997   7.509  12.846   1.809
37367SOL    HW113998   7.542  12.760   1.783
37367SOL    HW213999   7.580  12.886   1.858
37368SOL     OW14000   0.865   3.984  10.266
37368SOL    HW114001   0.824   3.909  10.308
37368SOL    HW214002   0.959   3.964  10.270
37369SOL     OW14003  14.024   9.978  12.598
37369SOL    HW114004  14.034  10.069  12.572
37369SOL    HW214005  14.000   9.982  12.691
37370SOL     OW14006   1.221   3.090  11.701
37370SOL    HW114007   1.212   3.117  11.609
37370SOL    HW214008   1.131   3.073  11.729
37371SOL     OW14009   9.122  12.553  10.159
37371SOL    HW114010   9.098  12.540  10.068
37371SOL    HW214011   9.039  12.557  10.206
37372SOL     OW14012  11.104   4.127   1.102
37372SOL    HW114013  11.074   4.121   1.192
37372SOL    HW214014  11.129   4.038   1.079
37373SOL     OW14015   0.054   3.724   1.690
37373SOL    HW114016   0.019   3.676   1.615
37373SOL    HW214017   0.147   3.700   1.693
37374SOL     OW14018   6.627   9.019  14.832
37374SOL    HW114019   6.701   9.079  14.832
37374SOL    HW214020   6.605   9.008  14.740
37375SOL     OW14021   9.890   8.697   2.699
37375SOL    HW114022   9.977   8.702   2.657
37375SOL    HW214023   9.833   8.663   2.631
37376SOL     OW14024   6.144   1.540  12.961
37376SOL    HW114025   6.110   1.474  12.901
37376SOL    HW214026   6.109   1.623  12.928
37377SOL     OW14027   9.176   4.758  13.991
37377SOL    HW114028   9.103   4.700  13.971
37377SOL    HW214029   9.244   4.733  13.928
37378SOL     OW14030   9.997  11.930   0.171
37378SOL    HW114031  10.083  11.944   0.132
37378SOL    HW214032   9.946  12.006   0.144
37379SOL     OW14033  10.203   0.961  11.475
37379SOL    HW114034  10.156   0.881  11.502
37379SOL    HW214035  10.290   0.950  11.512
37380SOL     OW14036  12.492   4.660  11.581
37380SOL    HW114037  12.492   4.625  11.670
37380SOL    HW214038  12.585   4.668  11.558
37381SOL     OW14039   8.273   7.605   6.473
37381SOL    HW114040   8.180   7.596   6.494
37381SOL    HW214041   8.318   7.589   6.556
37382SOL     OW14042   6.262  12.078   5.080
37382SOL    HW114043   6.207  12.035   5.015
37382SOL    HW214044   6.277  12.012   5.147
37383SOL     OW14045   3.328   5.761   3.884
37383SOL    HW114046   3.260   5.693   3.891
37383SOL    HW214047   3.367   5.764   3.971
37384SOL     OW14048  11.910   4.461  11.634
37384SOL    HW114049  11.926   4.475  11.727
37384SOL    HW214050  11.936   4.543  11.592
37385SOL     OW14051   0.132   4.349   8.549
37385SOL    HW114052   0.205   4.299   8.514
37385SOL    HW214053   0.168   4.437   8.563
37386SOL     OW14054  10.404  11.612   4.300
37386SOL    HW114055  10.330  11.665   4.329
37386SOL    HW214056  10.413  11.544   4.367
37387SOL     OW14057   9.664   7.332  11.178
37387SOL    HW114058   9.656   7.390  11.254
37387SOL    HW214059   9.754   7.343  11.149
37388SOL     OW14060   6.164   9.654  11.616
37388SOL    HW114061   6.123   9.734  11.584
37388SOL    HW214062   6.254   9.658  11.584
37389SOL     OW14063   1.312   8.441  13.576
37389SOL    HW114064   1.366   8.391  13.637
37389SOL    HW214065   1.370   8.509  13.542
37390SOL     OW14066   1.713   0.602  13.184
37390SOL    HW114067   1.660   0.523  13.172
37390SOL    HW214068   1.725   0.637  13.096
37391SOL     OW14069   6.890   9.684   3.335
37391SOL    HW114070   6.973   9.693   3.289
37391SOL    HW214071   6.858   9.774   3.345
37392SOL     OW14072   4.970   7.436   4.613
37392SOL    HW114073   5.000   7.429   4.704
37392SOL    HW214074   4.885   7.479   4.619
37393SOL     OW14075   3.941   0.631   0.762
37393SOL    HW114076   4.029   0.606   0.790
37393SOL    HW214077   3.909   0.555   0.713
37394SOL     OW14078   6.851   7.811   9.354
37394SOL    HW114079   6.796   7.886   9.331
37394SOL    HW214080   6.884   7.779   9.269
37395SOL     OW14081   2.524  12.731   3.305
37395SOL    HW114082   2.459  12.795   3.333
37395SOL    HW214083   2.487  12.692   3.226
37396SOL     OW14084   9.289   0.278   3.688
37396SOL    HW114085   9.310   0.363   3.725
37396SOL    HW214086   9.196   0.265   3.707
37397SOL     OW14087  10.420   4.189   4.008
37397SOL    HW114088  10.507   4.182   4.049
37397SOL    HW214089  10.434   4.250   3.935
37398SOL     OW14090  11.657  12.418  12.434
37398SOL    HW114091  11.564  12.398  12.440
37398SOL    HW214092  11.677  12.464  12.516
37399SOL     OW14093   6.073   6.277   5.057
37399SOL    HW114094   6.109   6.296   5.144
37399SOL    HW214095   6.031   6.358   5.030
37400SOL     OW14096   2.991   1.086   1.152
37400SOL    HW114097   2.925   1.154   1.144
37400SOL    HW214098   2.977   1.050   1.239
37401SOL     OW14099  11.420   0.865   6.091
37401SOL    HW114100  11.388   0.907   6.171
37401SOL    HW214101  11.506   0.831   6.115
37402SOL     OW14102  14.223  11.673   9.042
37402SOL    HW114103  14.136  11.638   9.061
37402SOL    HW214104  14.248  11.721   9.120
37403SOL     OW14105   6.847  12.685   3.467
37403SOL    HW114106   6.874  12.777   3.476
37403SOL    HW214107   6.820  12.677   3.376
37404SOL     OW14108  12.354  11.034   7.212
37404SOL    HW114109  12.392  10.957   7.254
37404SOL    HW214110  12.302  10.999   7.140
37405SOL     OW14111  12.396  12.640  14.576
37405SOL    HW114112  12.308  12.610  14.552
37405SOL    HW214113  12.447  12.631  14.495
37406SOL     OW14114   6.209   2.663  12.386
37406SOL    HW114115   6.219   2.568  12.391
37406SOL    HW214116   6.298   2.696  12.380
37407SOL     OW14117   7.291  14.536   6.678
37407SOL    HW114118   7.345  14.459   6.700
37407SOL    HW214119   7.248  14.559   6.760
37408SOL     OW14120   7.000   1.492   2.911
37408SOL    HW114121   7.096   1.492   2.915
37408SOL    HW214122   6.975   1.405   2.940
37409SOL     OW14123   2.040  12.894   5.475
37409SOL    HW114124   1.964  12.836   5.479
37409SOL    HW214125   2.003  12.979   5.449
37410SOL     OW14126   4.478   0.504   6.034
37410SOL    HW114127   4.422   0.451   5.977
37410SOL    HW214128   4.540   0.440   6.071
37411SOL     OW14129   7.460  10.530   6.264
37411SOL    HW114130   7.416  10.570   6.189
37411SOL    HW214131   7.449  10.436   6.251
37412SOL     OW14132  14.244  13.831   2.120
37412SOL    HW114133  14.246  13.811   2.214
37412SOL    HW214134  14.332  13.864   2.101
37413SOL     OW14135  14.465   5.244  10.026
37413SOL    HW114136  14.463   5.152  10.050
37413SOL    HW214137  14.549   5.255   9.982
37414SOL     OW14138   1.131   8.706   0.562
37414SOL    HW114139   1.087   8.791   0.560
37414SOL    HW214140   1.106   8.664   0.480
37415SOL     OW14141   5.482   2.753   4.538
37415SOL    HW114142   5.466   2.785   4.626
37415SOL    HW214143   5.403   2.778   4.489
37416SOL     OW14144  11.140   7.641   8.763
37416SOL    HW114145  11.069   7.669   8.705
37416SOL    HW214146  11.167   7.556   8.728
37417SOL     OW14147   4.657   3.482   8.754
37417SOL    HW114148   4.734   3.539   8.757
37417SOL    HW214149   4.590   3.530   8.802
37418SOL     OW14150   4.131   7.054   7.961
37418SOL    HW114151   4.166   6.984   7.906
37418SOL    HW214152   4.105   7.122   7.900
37419SOL     OW14153   5.305  11.549   2.440
37419SOL    HW114154   5.310  11.505   2.525
37419SOL    HW214155   5.387  11.525   2.396
37420SOL     OW14156   5.416   3.098   4.370
37420SOL    HW114157   5.491   3.127   4.421
37420SOL    HW214158   5.340   3.137   4.413
37421SOL     OW14159  10.174   2.508   8.566
37421SOL    HW114160  10.187   2.423   8.608
37421SOL    HW214161  10.080   2.512   8.549
37422SOL     OW14162   5.863   1.731   7.081
37422SOL    HW114163   5.873   1.822   7.109
37422SOL    HW214164   5.843   1.683   7.161
37423SOL     OW14165   5.962   4.517   1.995
37423SOL    HW114166   5.909   4.493   1.918
37423SOL    HW214167   6.032   4.453   1.996
37424SOL     OW14168   4.000   0.882  14.603
37424SOL    HW114169   4.001   0.786  14.605
37424SOL    HW214170   3.932   0.906  14.665
37425SOL     OW14171   0.752  14.783  10.603
37425SOL    HW114172   0.685  14.716  10.614
37425SOL    HW214173   0.703  14.865  10.595
37426SOL     OW14174   4.473   1.354   0.406
37426SOL    HW114175   4.443   1.345   0.496
37426SOL    HW214176   4.395   1.383   0.358
37427SOL     OW14177   9.686   1.659  11.352
37427SOL    HW114178   9.693   1.724  11.423
37427SOL    HW214179   9.610   1.607  11.375
37428SOL     OW14180   9.508   0.982   5.733
37428SOL    HW114181   9.561   1.049   5.777
37428SOL    HW214182   9.419   0.996   5.766
37429SOL     OW14183   1.081   3.031   9.032
37429SOL    HW114184   1.050   3.049   9.121
37429SOL    HW214185   1.082   2.935   9.027
37430SOL     OW14186   7.602   2.823  10.678
37430SOL    HW114187   7.651   2.826  10.761
37430SOL    HW214188   7.513   2.848  10.702
37431SOL     OW14189   2.465  12.188  11.296
37431SOL    HW114190   2.509  12.103  11.298
37431SOL    HW214191   2.443  12.202  11.204
37432SOL     OW14192   5.365  11.997   6.483
37432SOL    HW114193   5.387  12.004   6.391
37432SOL    HW214194   5.406  11.916   6.512
37433SOL     OW14195   7.275   4.499   9.415
37433SOL    HW114196   7.367   4.473   9.410
37433SOL    HW214197   7.229   4.432   9.364
37434SOL     OW14198  13.814   4.821   0.646
37434SOL    HW114199  13.778   4.784   0.565
37434SOL    HW214200  13.744   4.877   0.679
37435SOL     OW14201   0.195   9.814   0.110
37435SOL    HW114202   0.117   9.765   0.133
37435SOL    HW214203   0.171   9.906   0.121
37436SOL     OW14204  13.494   9.066   2.717
37436SOL    HW114205  13.575   9.058   2.767
37436SOL    HW214206  13.448   9.139   2.758
37437SOL     OW14207   0.825   4.542  11.382
37437SOL    HW114208   0.891   4.482  11.348
37437SOL    HW214209   0.836   4.621  11.329
37438SOL     OW14210  10.029   2.284  12.625
37438SOL    HW114211  10.122   2.304  12.615
37438SOL    HW214212  10.028   2.202  12.676
37439SOL     OW14213  13.377  12.963   0.811
37439SOL    HW114214  13.439  12.920   0.752
37439SOL    HW214215  13.345  12.893   0.868
37440SOL     OW14216   2.873  11.399   5.445
37440SOL    HW114217   2.921  11.317   5.438
37440SOL    HW214218   2.918  11.459   5.385
37441SOL     OW14219   5.606   4.251  13.410
37441SOL    HW114220   5.633   4.331  13.454
37441SOL    HW214221   5.520   4.231  13.446
37442SOL     OW14222   2.301   4.750  12.485
37442SOL    HW114223   2.361   4.702  12.429
37442SOL    HW214224   2.330   4.730  12.574
37443SOL     OW14225  10.898   9.693   5.973
37443SOL    HW114226  10.964   9.703   5.905
37443SOL    HW214227  10.888   9.598   5.982
37444SOL     OW14228   9.594  13.148   1.953
37444SOL    HW114229   9.520  13.115   2.005
37444SOL    HW214230   9.652  13.073   1.943
37445SOL     OW14231   5.495   4.086   7.595
37445SOL    HW114232   5.458   4.110   7.510
37445SOL    HW214233   5.544   4.163   7.623
37446SOL     OW14234  11.893   1.459   7.676
37446SOL    HW114235  11.831   1.460   7.603
37446SOL    HW214236  11.911   1.366   7.690
37447SOL     OW14237   3.245  14.083   1.588
37447SOL    HW114238   3.207  14.147   1.649
37447SOL    HW214239   3.235  13.999   1.633
37448SOL     OW14240   3.094   3.045  14.035
37448SOL    HW114241   3.066   2.999  14.115
37448SOL    HW214242   3.099   2.976  13.969
37449SOL     OW14243   7.985   2.611   9.486
37449SOL    HW114244   7.913   2.656   9.442
37449SOL    HW214245   7.943   2.539   9.533
37450SOL     OW14246  12.531   0.426  13.282
37450SOL    HW114247  12.515   0.517  13.307
37450SOL    HW214248  12.504   0.421  13.191
37451SOL     OW14249   7.596   3.295   6.754
37451SOL    HW114250   7.539   3.242   6.810
37451SOL    HW214251   7.645   3.350   6.814
37452SOL     OW14252  11.696   9.118  11.631
37452SOL    HW114253  11.672   9.163  11.550
37452SOL    HW214254  11.751   9.045  11.604
37453SOL     OW14255  10.240  13.129   6.272
37453SOL    HW114256  10.272  13.196   6.332
37453SOL    HW214257  10.203  13.178   6.199
37454SOL     OW14258   9.719  12.996  14.415
37454SOL    HW114259   9.804  13.037  14.397
37454SOL    HW214260   9.686  12.971  14.328
37455SOL     OW14261   0.785   5.816   4.238
37455SOL    HW114262   0.799   5.809   4.143
37455SOL    HW214263   0.862   5.777   4.277
37456SOL     OW14264   4.248   0.345   4.081
37456SOL    HW114265   4.187   0.291   4.030
37456SOL    HW214266   4.193   0.388   4.146
37457SOL     OW14267  12.819   4.637  14.398
37457SOL    HW114268  12.779   4.709  14.349
37457SOL    HW214269  12.799   4.559  14.346
37458SOL     OW14270  13.756   5.258   0.118
37458SOL    HW114271  13.680   5.311   0.144
37458SOL    HW214272  13.817   5.266   0.191
37459SOL     OW14273   6.016   7.986  12.948
37459SOL    HW114274   6.057   8.067  12.919
37459SOL    HW214275   6.015   7.992  13.043
37460SOL     OW14276   8.777   8.863   5.019
37460SOL    HW114277   8.692   8.907   5.014
37460SOL    HW214278   8.841   8.934   5.010
37461SOL     OW14279   7.365  12.206   6.674
37461SOL    HW114280   7.311  12.181   6.749
37461SOL    HW214281   7.424  12.274   6.708
37462SOL     OW14282   6.611  14.164   1.891
37462SOL    HW114283   6.552  14.207   1.952
37462SOL    HW214284   6.576  14.076   1.880
37463SOL     OW14285   3.500   2.107  12.910
37463SOL    HW114286   3.589   2.122  12.879
37463SOL    HW214287   3.453   2.187  12.888
37464SOL     OW14288   4.778  11.878  12.753
37464SOL    HW114289   4.832  11.895  12.830
37464SOL    HW214290   4.753  11.786  12.760
37465SOL     OW14291   8.267   2.496  10.522
37465SOL    HW114292   8.320   2.566  10.485
37465SOL    HW214293   8.248   2.438  10.448
37466SOL     OW14294   3.164   0.067  11.220
37466SOL    HW114295   3.227   0.117  11.169
37466SOL    HW214296   3.190  14.848  11.209
37467SOL     OW14297   3.734   6.743   3.003
37467SOL    HW114298   3.716   6.828   2.963
37467SOL    HW214299   3.830   6.736   3.003
37468SOL     OW14300   2.977   0.658   6.347
37468SOL    HW114301   3.047   0.702   6.298
37468SOL    HW214302   2.907   0.724   6.352
37469SOL     OW14303   7.430   4.754  10.310
37469SOL    HW114304   7.466   4.813  10.244
37469SOL    HW214305   7.369   4.698  10.262
37470SOL     OW14306  12.928   9.268  10.175
37470SOL    HW114307  12.885   9.328  10.236
37470SOL    HW214308  12.973   9.204  10.231
37471SOL     OW14309   0.168   7.480   1.496
37471SOL    HW114310   0.111   7.459   1.422
37471SOL    HW214311   0.119   7.545   1.546
37472SOL     OW14312   3.799   0.239   1.183
37472SOL    HW114313   3.786   0.284   1.267
37472SOL    HW214314   3.712   0.209   1.157
37473SOL     OW14315   1.139   7.740  10.343
37473SOL    HW114316   1.090   7.813  10.380
37473SOL    HW214317   1.181   7.777  10.264
37474SOL     OW14318   7.843  13.072   8.606
37474SOL    HW114319   7.763  13.048   8.558
37474SOL    HW214320   7.811  13.114   8.686
37475SOL     OW14321   3.438   7.724   3.381
37475SOL    HW114322   3.511   7.733   3.443
37475SOL    HW214323   3.360   7.739   3.434
37476SOL     OW14324  10.371   6.004  12.875
37476SOL    HW114325  10.367   6.088  12.922
37476SOL    HW214326  10.352   6.026  12.784
37477SOL     OW14327   1.491  10.894   7.807
37477SOL    HW114328   1.468  10.857   7.722
37477SOL    HW214329   1.568  10.949   7.790
37478SOL     OW14330   8.707   2.708  10.185
37478SOL    HW114331   8.716   2.659  10.267
37478SOL    HW214332   8.696   2.799  10.213
37479SOL     OW14333   3.551  11.872  10.150
37479SOL    HW114334   3.638  11.911  10.158
37479SOL    HW214335   3.566  11.791  10.102
37480SOL     OW14336  11.358   5.522   1.901
37480SOL    HW114337  11.448   5.507   1.930
37480SOL    HW214338  11.313   5.553   1.979
37481SOL     OW14339  13.278   9.653  14.061
37481SOL    HW114340  13.295   9.670  13.968
37481SOL    HW214341  13.222   9.576  14.061
37482SOL     OW14342   5.276  11.323   2.981
37482SOL    HW114343   5.301  11.326   3.073
37482SOL    HW214344   5.327  11.251   2.944
37483SOL     OW14345   7.326  11.310   1.395
37483SOL    HW114346   7.331  11.372   1.468
37483SOL    HW214347   7.258  11.248   1.421
37484SOL     OW14348  10.259   4.400   0.352
37484SOL    HW114349  10.318   4.349   0.407
37484SOL    HW214350  10.183   4.343   0.339
37485SOL     OW14351   3.914   1.936   0.329
37485SOL    HW114352   3.870   1.988   0.262
37485SOL    HW214353   3.974   1.998   0.370
37486SOL     OW14354   5.601   9.668  10.790
37486SOL    HW114355   5.623   9.679  10.698
37486SOL    HW214356   5.576   9.756  10.820
37487SOL     OW14357   4.959  12.572   1.233
37487SOL    HW114358   5.004  12.535   1.310
37487SOL    HW214359   4.964  12.666   1.246
37488SOL     OW14360  12.457   7.335   7.933
37488SOL    HW114361  12.541   7.290   7.938
37488SOL    HW214362  12.394   7.265   7.913
37489SOL     OW14363  11.426  13.667  12.978
37489SOL    HW114364  11.471  13.668  12.894
37489SOL    HW214365  11.423  13.574  13.002
37490SOL     OW14366  10.638  11.024  13.015
37490SOL    HW114367  10.716  11.024  12.960
37490SOL    HW214368  10.655  10.957  13.081
37491SOL     OW14369  12.232   9.424   4.805
37491SOL    HW114370  12.303   9.464   4.855
37491SOL    HW214371  12.263   9.336   4.785
37492SOL     OW14372   4.714   2.759   5.951
37492SOL    HW114373   4.787   2.812   5.984
37492SOL    HW214374   4.643   2.821   5.939
37493SOL     OW14375  13.315   8.215  14.513
37493SOL    HW114376  13.396   8.266  14.506
37493SOL    HW214377  13.301   8.180  14.425
37494SOL     OW14378   1.946   9.719   9.058
37494SOL    HW114379   1.876   9.679   9.109
37494SOL    HW214380   1.950   9.669   8.977
37495SOL     OW14381  14.757   8.188  11.320
37495SOL    HW114382  14.711   8.270  11.303
37495SOL    HW214383  14.689   8.129  11.352
37496SOL     OW14384  10.282   2.488  10.177
37496SOL    HW114385  10.354   2.528  10.226
37496SOL    HW214386  10.225   2.452  10.245
37497SOL     OW14387   7.621   1.147  12.095
37497SOL    HW114388   7.648   1.065  12.137
37497SOL    HW214389   7.613   1.124  12.002
37498SOL     OW14390   3.302   5.300   9.853
37498SOL    HW114391   3.285   5.339   9.938
37498SOL    HW214392   3.385   5.255   9.863
37499SOL     OW14393  10.112   7.788  14.840
37499SOL    HW114394  10.107   7.872  14.793
37499SOL    HW214395  10.127   7.723  14.771
37500SOL     OW14396  14.406   0.071  12.997
37500SOL    HW114397  14.366   0.099  12.915
37500SOL    HW214398  14.431  14.852  12.983
37501SOL     OW14399  12.877   7.572   1.626
37501SOL    HW114400  12.919   7.645   1.671
37501SOL    HW214401  12.787   7.571   1.658
37502SOL     OW14402   2.839   6.296   2.431
37502SOL    HW114403   2.834   6.245   2.350
37502SOL    HW214404   2.933   6.299   2.451
37503SOL     OW14405   0.831   2.481   4.726
37503SOL    HW114406   0.899   2.544   4.704
37503SOL    HW214407   0.799   2.509   4.811
37504SOL     OW14408  12.245   4.299   8.207
37504SOL    HW114409  12.196   4.330   8.284
37504SOL    HW214410  12.275   4.212   8.232
37505SOL     OW14411   6.650   5.215   0.362
37505SOL    HW114412   6.599   5.205   0.442
37505SOL    HW214413   6.584   5.222   0.293
37506SOL     OW14414   9.617  10.378   2.539
37506SOL    HW114415   9.677  10.307   2.559
37506SOL    HW214416   9.640  10.448   2.599
37507SOL     OW14417   1.990  14.445  10.639
37507SOL    HW114418   1.978  14.537  10.616
37507SOL    HW214419   1.931  14.431  10.713
37508SOL     OW14420   6.763  14.741  12.293
37508SOL    HW114421   6.683  14.789  12.314
37508SOL    HW214422   6.827  14.809  12.271
37509SOL     OW14423  10.934   2.767  11.050
37509SOL    HW114424  10.970   2.760  11.139
37509SOL    HW214425  10.843   2.794  11.063
37510SOL     OW14426   9.729  11.059  11.878
37510SOL    HW114427   9.768  10.982  11.918
37510SOL    HW214428   9.776  11.133  11.916
37511SOL     OW14429   0.336   7.641  12.446
37511SOL    HW114430   0.424   7.650  12.483
37511SOL    HW214431   0.312   7.730  12.419
37512SOL     OW14432   5.819  13.227   2.768
37512SOL    HW114433   5.809  13.132   2.760
37512SOL    HW214434   5.765  13.249   2.844
37513SOL     OW14435   8.996   2.386   5.727
37513SOL    HW114436   9.045   2.434   5.794
37513SOL    HW214437   9.033   2.415   5.644
37514SOL     OW14438   9.844   0.012   9.617
37514SOL    HW114439   9.874   0.034   9.706
37514SOL    HW214440   9.776  14.817   9.631
37515SOL     OW14441   4.951   7.385   2.378
37515SOL    HW114442   4.913   7.466   2.345
37515SOL    HW214443   5.016   7.414   2.443
37516SOL     OW14444   5.852   0.439  11.087
37516SOL    HW114445   5.909   0.475  11.020
37516SOL    HW214446   5.810   0.515  11.127
37517SOL     OW14447  14.395   8.447   6.243
37517SOL    HW114448  14.331   8.377   6.232
37517SOL    HW214449  14.353   8.509   6.303
37518SOL     OW14450   7.173   4.141   6.782
37518SOL    HW114451   7.154   4.206   6.714
37518SOL    HW214452   7.226   4.075   6.737
37519SOL     OW14453  12.357   1.428   5.549
37519SOL    HW114454  12.322   1.460   5.633
37519SOL    HW214455  12.336   1.498   5.487
37520SOL     OW14456   9.533  11.335   4.716
37520SOL    HW114457   9.559  11.250   4.753
37520SOL    HW214458   9.576  11.399   4.773
37521SOL     OW14459   4.915  14.027   2.378
37521SOL    HW114460   4.881  14.006   2.290
37521SOL    HW214461   4.837  14.052   2.428
37522SOL     OW14462   9.706  13.047   6.707
37522SOL    HW114463   9.697  13.094   6.625
37522SOL    HW214464   9.666  13.105   6.772
37523SOL     OW14465   0.442   0.971  13.792
37523SOL    HW114466   0.420   1.062  13.771
37523SOL    HW214467   0.399   0.920  13.723
37524SOL     OW14468  13.216   1.648  10.784
37524SOL    HW114469  13.206   1.686  10.697
37524SOL    HW214470  13.266   1.713  10.834
37525SOL     OW14471   9.187   2.955   5.250
37525SOL    HW114472   9.164   3.026   5.191
37525SOL    HW214473   9.107   2.901   5.254
37526SOL     OW14474   5.226  13.438   2.466
37526SOL    HW114475   5.247  13.488   2.545
37526SOL    HW214476   5.163  13.492   2.419
37527SOL     OW14477   6.931   8.094   5.371
37527SOL    HW114478   7.003   8.114   5.431
37527SOL    HW214479   6.946   8.150   5.295
37528SOL     OW14480   6.932  14.197   9.807
37528SOL    HW114481   6.898  14.194   9.718
37528SOL    HW214482   6.869  14.251   9.855
37529SOL     OW14483  12.498   4.596  12.963
37529SOL    HW114484  12.443   4.533  12.917
37529SOL    HW214485  12.566   4.544  13.005
37530SOL     OW14486  10.250  11.161  10.455
37530SOL    HW114487  10.261  11.226  10.387
37530SOL    HW214488  10.249  11.077  10.409
37531SOL     OW14489  12.518   2.217  12.005
37531SOL    HW114490  12.469   2.264  12.072
37531SOL    HW214491  12.570   2.152  12.054
37532SOL     OW14492  11.467   9.481   3.723
37532SOL    HW114493  11.372   9.488   3.738
37532SOL    HW214494  11.493   9.404   3.773
37533SOL     OW14495   0.374   8.224  12.398
37533SOL    HW114496   0.392   8.200  12.489
37533SOL    HW214497   0.293   8.275  12.402
37534SOL     OW14498   1.821   1.910   3.043
37534SOL    HW114499   1.856   1.898   2.955
37534SOL    HW214500   1.896   1.900   3.101
37535SOL     OW14501  12.221   5.933   4.115
37535SOL    HW114502  12.297   5.929   4.172
37535SOL    HW214503  12.257   5.935   4.026
37536SOL     OW14504   6.580  11.046   3.273
37536SOL    HW114505   6.649  11.020   3.211
37536SOL    HW214506   6.607  11.006   3.356
37537SOL     OW14507   9.232   8.397   9.849
37537SOL    HW114508   9.303   8.462   9.852
37537SOL    HW214509   9.244   8.351   9.766
37538SOL     OW14510   7.184   8.251   8.363
37538SOL    HW114511   7.152   8.329   8.317
37538SOL    HW214512   7.267   8.280   8.403
37539SOL     OW14513  10.123   5.346   7.237
37539SOL    HW114514  10.107   5.285   7.165
37539SOL    HW214515  10.146   5.290   7.311
37540SOL     OW14516   4.408   0.521   0.596
37540SOL    HW114517   4.328   0.548   0.551
37540SOL    HW214518   4.466   0.490   0.527
37541SOL     OW14519   1.226   1.146   9.948
37541SOL    HW114520   1.171   1.213   9.989
37541SOL    HW214521   1.266   1.191   9.873
37542SOL     OW14522   4.545   5.609   8.364
37542SOL    HW114523   4.499   5.529   8.339
37542SOL    HW214524   4.575   5.593   8.454
37543SOL     OW14525  11.678   9.979   6.199
37543SOL    HW114526  11.604   9.928   6.233
37543SOL    HW214527  11.680  10.057   6.253
37544SOL     OW14528   0.031   7.739  12.649
37544SOL    HW114529  14.856   7.714  12.728
37544SOL    HW214530  14.848   7.807  12.609
37545SOL     OW14531   7.841   4.688   5.897
37545SOL    HW114532   7.831   4.779   5.868
37545SOL    HW214533   7.803   4.686   5.985
37546SOL     OW14534  13.210   1.008  12.700
37546SOL    HW114535  13.136   1.012  12.639
37546SOL    HW214536  13.170   1.015  12.787
37547SOL     OW14537   6.636   4.283  11.565
37547SOL    HW114538   6.579   4.306  11.640
37547SOL    HW214539   6.668   4.367  11.533
37548SOL     OW14540  12.204  14.480   2.543
37548SOL    HW114541  12.214  14.541   2.616
37548SOL    HW214542  12.248  14.523   2.470
37549SOL     OW14543  13.051   2.519  14.849
37549SOL    HW114544  13.115   2.485   0.039
37549SOL    HW214545  13.077   2.610  14.833
37550SOL     OW14546   4.098   4.490  13.777
37550SOL    HW114547   4.171   4.451  13.729
37550SOL    HW214548   4.088   4.577  13.739
37551SOL     OW14549   8.895   5.575   3.171
37551SOL    HW114550   8.963   5.642   3.180
37551SOL    HW214551   8.836   5.609   3.104
37552SOL     OW14552   3.638  13.472   0.018
37552SOL    HW114553   3.579  13.494   0.090
37552SOL    HW214554   3.710  13.424   0.059
37553SOL     OW14555   0.661   4.929   6.514
37553SOL    HW114556   0.700   4.842   6.513
37553SOL    HW214557   0.574   4.916   6.551
37554SOL     OW14558   5.919   3.622  11.411
37554SOL    HW114559   5.885   3.709  11.391
37554SOL    HW214560   5.993   3.638  11.469
37555SOL     OW14561   4.932   7.725  13.802
37555SOL    HW114562   5.026   7.717  13.817
37555SOL    HW214563   4.891   7.674  13.871
37556SOL     OW14564  11.231  10.770   6.070
37556SOL    HW114565  11.166  10.837   6.089
37556SOL    HW214566  11.240  10.771   5.974
37557SOL     OW14567  10.953  14.049  10.331
37557SOL    HW114568  10.932  13.962  10.364
37557SOL    HW214569  11.028  14.036  10.274
37558SOL     OW14570   0.187  13.957   3.547
37558SOL    HW114571   0.198  13.884   3.608
37558SOL    HW214572   0.141  13.919   3.473
37559SOL     OW14573   5.143   7.155   8.160
37559SOL    HW114574   5.196   7.131   8.237
37559SOL    HW214575   5.205   7.199   8.102
37560SOL     OW14576  11.260  12.214   9.634
37560SOL    HW114577  11.317  12.200   9.709
37560SOL    HW214578  11.179  12.250   9.672
37561SOL     OW14579   0.474   8.549   9.416
37561SOL    HW114580   0.414   8.540   9.342
37561SOL    HW214581   0.517   8.634   9.402
37562SOL     OW14582   1.125   6.500   6.214
37562SOL    HW114583   1.209   6.468   6.182
37562SOL    HW214584   1.128   6.595   6.200
37563SOL     OW14585   1.013  12.616  12.259
37563SOL    HW114586   1.062  12.590  12.180
37563SOL    HW214587   0.940  12.555  12.263
37564SOL     OW14588  10.342  12.025   8.160
37564SOL    HW114589  10.318  12.044   8.250
37564SOL    HW214590  10.287  12.082   8.107
37565SOL     OW14591   3.783   4.848   9.306
37565SOL    HW114592   3.694   4.852   9.341
37565SOL    HW214593   3.821   4.770   9.347
37566SOL     OW14594   4.692   5.766   6.815
37566SOL    HW114595   4.603   5.778   6.849
37566SOL    HW214596   4.725   5.854   6.801
37567SOL     OW14597   4.848   2.826   2.725
37567SOL    HW114598   4.865   2.905   2.777
37567SOL    HW214599   4.935   2.798   2.695
37568SOL     OW14600  11.151   3.736   3.099
37568SOL    HW114601  11.061   3.764   3.085
37568SOL    HW214602  11.145   3.669   3.167
37569SOL     OW14603   4.800  14.335  13.188
37569SOL    HW114604   4.821  14.290  13.270
37569SOL    HW214605   4.874  14.393  13.173
37570SOL     OW14606   6.830  11.851  10.789
37570SOL    HW114607   6.762  11.874  10.727
37570SOL    HW214608   6.884  11.930  10.796
37571SOL     OW14609   3.805  11.174  13.148
37571SOL    HW114610   3.819  11.080  13.160
37571SOL    HW214611   3.814  11.188  13.053
37572SOL     OW14612   2.128   5.986   4.517
37572SOL    HW114613   2.168   5.918   4.465
37572SOL    HW214614   2.132   5.953   4.607
37573SOL     OW14615  14.268   2.685  14.832
37573SOL    HW114616  14.221   2.739  14.768
37573SOL    HW214617  14.216   2.604  14.837
37574SOL     OW14618   2.038  12.793   8.693
37574SOL    HW114619   2.055  12.710   8.737
37574SOL    HW214620   1.947  12.813   8.714
37575SOL     OW14621  10.359  11.244   7.410
37575SOL    HW114622  10.288  11.206   7.462
37575SOL    HW214623  10.438  11.201   7.441
37576SOL     OW14624   7.142   8.805  13.088
37576SOL    HW114625   7.233   8.815  13.113
37576SOL    HW214626   7.127   8.874  13.023
37577SOL     OW14627   4.750   7.165   3.440
37577SOL    HW114628   4.746   7.091   3.379
37577SOL    HW214629   4.680   7.224   3.411
37578SOL     OW14630   0.653  10.711   6.627
37578SOL    HW114631   0.575  10.749   6.586
37578SOL    HW214632   0.622  10.674   6.710
37579SOL     OW14633   6.497   5.587   5.663
37579SOL    HW114634   6.521   5.671   5.703
37579SOL    HW214635   6.581   5.544   5.646
37580SOL     OW14636   4.129   0.534   0.987
37580SOL    HW114637   4.203   0.476   1.007
37580SOL    HW214638   4.065   0.477   0.944
37581SOL     OW14639   8.245   4.797  14.723
37581SOL    HW114640   8.291   4.722  14.760
37581SOL    HW214641   8.228   4.854  14.798
37582SOL     OW14642   9.637   1.552  13.662
37582SOL    HW114643   9.588   1.610  13.604
37582SOL    HW214644   9.571   1.500  13.707
37583SOL     OW14645   7.611  14.108   4.516
37583SOL    HW114646   7.539  14.094   4.455
37583SOL    HW214647   7.661  14.026   4.512
37584SOL     OW14648   5.193  12.322  13.156
37584SOL    HW114649   5.181  12.403  13.205
37584SOL    HW214650   5.233  12.262  13.219
37585SOL     OW14651   2.757   3.606   0.484
37585SOL    HW114652   2.789   3.632   0.571
37585SOL    HW214653   2.672   3.566   0.501
37586SOL     OW14654  12.594   4.474   5.141
37586SOL    HW114655  12.678   4.496   5.102
37586SOL    HW214656  12.551   4.559   5.154
37587SOL     OW14657  14.270  10.917   7.526
37587SOL    HW114658  14.224  10.977   7.585
37587SOL    HW214659  14.301  10.973   7.455
37588SOL     OW14660   9.374   1.631   5.015
37588SOL    HW114661   9.379   1.726   5.026
37588SOL    HW214662   9.282   1.609   5.032
37589SOL     OW14663   7.814   2.008  12.208
37589SOL    HW114664   7.735   1.955  12.216
37589SOL    HW214665   7.886   1.949  12.230
37590SOL     OW14666  11.994   2.903   0.410
37590SOL    HW114667  11.988   2.952   0.493
37590SOL    HW214668  12.083   2.920   0.380
37591SOL     OW14669   4.168   2.290   2.369
37591SOL    HW114670   4.216   2.240   2.436
37591SOL    HW214671   4.138   2.224   2.307
37592SOL     OW14672   9.691  11.302   1.419
37592SOL    HW114673   9.711  11.376   1.362
37592SOL    HW214674   9.747  11.315   1.496
37593SOL     OW14675   9.431  14.050   4.679
37593SOL    HW114676   9.497  13.981   4.686
37593SOL    HW214677   9.471  14.126   4.722
37594SOL     OW14678   8.121   2.176  10.788
37594SOL    HW114679   8.033   2.167  10.751
37594SOL    HW214680   8.166   2.236  10.729
37595SOL     OW14681  11.586   7.350   2.646
37595SOL    HW114682  11.655   7.284   2.636
37595SOL    HW214683  11.541   7.325   2.727
37596SOL     OW14684  14.110  11.686  12.523
37596SOL    HW114685  14.042  11.713  12.461
37596SOL    HW214686  14.175  11.641  12.469
37597SOL     OW14687   6.799   3.878  10.284
37597SOL    HW114688   6.783   3.843  10.371
37597SOL    HW214689   6.773   3.808  10.224
37598SOL     OW14690  10.432   9.682   8.682
37598SOL    HW114691  10.388   9.704   8.600
37598SOL    HW214692  10.502   9.747   8.690
37599SOL     OW14693   8.543   6.058   3.005
37599SOL    HW114694   8.543   6.136   3.061
37599SOL    HW214695   8.521   5.986   3.064
37600SOL     OW14696   2.180   5.926   7.407
37600SOL    HW114697   2.178   6.015   7.442
37600SOL    HW214698   2.093   5.891   7.427
37601SOL     OW14699   4.180   9.605   9.245
37601SOL    HW114700   4.116   9.583   9.312
37601SOL    HW214701   4.222   9.522   9.223
37602SOL     OW14702  14.613  11.291   3.909
37602SOL    HW114703  14.677  11.255   3.970
37602SOL    HW214704  14.530  11.250   3.934
37603SOL     OW14705   3.093   5.715   4.055
37603SOL    HW114706   3.156   5.695   4.124
37603SOL    HW214707   3.031   5.776   4.096
37604SOL     OW14708   0.715   8.899   6.099
37604SOL    HW114709   0.641   8.861   6.147
37604SOL    HW214710   0.733   8.836   6.029
37605SOL     OW14711   3.056   5.983   9.844
37605SOL    HW114712   3.058   5.895   9.882
37605SOL    HW214713   3.035   5.968   9.751
37606SOL     OW14714   4.821   7.720   9.374
37606SOL    HW114715   4.786   7.757   9.293
37606SOL    HW214716   4.906   7.683   9.350
37607SOL     OW14717   4.583   8.861   5.782
37607SOL    HW114718   4.614   8.846   5.692
37607SOL    HW214719   4.494   8.826   5.783
37608SOL     OW14720   6.978  11.300  11.799
37608SOL    HW114721   7.012  11.368  11.741
37608SOL    HW214722   7.055  11.247  11.821
37609SOL     OW14723   2.962   6.287  12.837
37609SOL    HW114724   2.944   6.352  12.769
37609SOL    HW214725   2.935   6.204  12.798
37610SOL     OW14726   0.883  11.258   7.877
37610SOL    HW114727   0.970  11.225   7.854
37610SOL    HW214728   0.824  11.218   7.813
37611SOL     OW14729  10.038   1.892  10.136
37611SOL    HW114730  10.089   1.831  10.082
37611SOL    HW214731  10.096   1.913  10.210
37612SOL     OW14732   5.067   9.408  12.591
37612SOL    HW114733   4.992   9.468  12.597
37612SOL    HW214734   5.083   9.399  12.497
37613SOL     OW14735  11.547  12.887  11.739
37613SOL    HW114736  11.499  12.930  11.810
37613SOL    HW214737  11.588  12.960  11.691
37614SOL     OW14738  14.307  13.957   8.069
37614SOL    HW114739  14.282  13.876   8.025
37614SOL    HW214740  14.353  13.928   8.148
37615SOL     OW14741   2.399   6.369   8.722
37615SOL    HW114742   2.351   6.342   8.644
37615SOL    HW214743   2.465   6.301   8.733
37616SOL     OW14744   0.167   1.645  12.383
37616SOL    HW114745   0.263   1.638  12.382
37616SOL    HW214746   0.141   1.634  12.292
37617SOL     OW14747  12.772   0.732   4.399
37617SOL    HW114748  12.735   0.812   4.363
37617SOL    HW214749  12.821   0.760   4.476
37618SOL     OW14750   9.307   4.146   0.164
37618SOL    HW114751   9.345   4.146   0.076
37618SOL    HW214752   9.216   4.173   0.151
37619SOL     OW14753  13.819   8.868   1.668
37619SOL    HW114754  13.801   8.929   1.597
37619SOL    HW214755  13.746   8.806   1.665
37620SOL     OW14756   5.208   0.455   1.250
37620SOL    HW114757   5.291   0.411   1.269
37620SOL    HW214758   5.231   0.524   1.187
37621SOL     OW14759   5.638  11.886   5.996
37621SOL    HW114760   5.612  11.803   5.957
37621SOL    HW214761   5.688  11.930   5.927
37622SOL     OW14762  11.625   6.402   0.362
37622SOL    HW114763  11.589   6.491   0.360
37622SOL    HW214764  11.715   6.413   0.392
37623SOL     OW14765   2.868  14.457   5.355
37623SOL    HW114766   2.820  14.472   5.436
37623SOL    HW214767   2.841  14.528   5.297
37624SOL     OW14768   7.562   6.363  13.677
37624SOL    HW114769   7.583   6.456  13.667
37624SOL    HW214770   7.487   6.350  13.619
37625SOL     OW14771  14.143   1.162   4.280
37625SOL    HW114772  14.202   1.170   4.354
37625SOL    HW214773  14.193   1.113   4.214
37626SOL     OW14774   7.142   1.552  12.685
37626SOL    HW114775   7.126   1.646  12.669
37626SOL    HW214776   7.158   1.515  12.598
37627SOL     OW14777   4.798   9.927  11.821
37627SOL    HW114778   4.786   9.949  11.729
37627SOL    HW214779   4.876   9.871  11.822
37628SOL     OW14780   7.230   9.011   6.238
37628SOL    HW114781   7.319   8.997   6.207
37628SOL    HW214782   7.205   8.928   6.278
37629SOL     OW14783   7.162   1.321   6.737
37629SOL    HW114784   7.189   1.259   6.805
37629SOL    HW214785   7.104   1.382   6.782
37630SOL     OW14786   5.091   3.931   3.949
37630SOL    HW114787   5.136   3.948   3.867
37630SOL    HW214788   5.059   4.016   3.978
37631SOL     OW14789  11.958  11.760  12.556
37631SOL    HW114790  11.865  11.747  12.541
37631SOL    HW214791  11.966  11.852  12.579
37632SOL     OW14792   2.849  13.452  11.806
37632SOL    HW114793   2.885  13.511  11.741
37632SOL    HW214794   2.756  13.475  11.812
37633SOL     OW14795   8.692   4.137   9.531
37633SOL    HW114796   8.617   4.089   9.568
37633SOL    HW214797   8.683   4.126   9.436
37634SOL     OW14798  10.794  13.828  12.422
37634SOL    HW114799  10.798  13.763  12.353
37634SOL    HW214800  10.700  13.837  12.440
37635SOL     OW14801  12.682   3.817  13.651
37635SOL    HW114802  12.655   3.775  13.569
37635SOL    HW214803  12.773   3.843  13.637
37636SOL     OW14804   4.206  10.358   4.058
37636SOL    HW114805   4.166  10.442   4.037
37636SOL    HW214806   4.296  10.380   4.082
37637SOL     OW14807  12.594   9.984   4.482
37637SOL    HW114808  12.534   9.943   4.420
37637SOL    HW214809  12.635   9.910   4.527
37638SOL     OW14810   7.709   9.638   8.397
37638SOL    HW114811   7.665   9.705   8.449
37638SOL    HW214812   7.684   9.555   8.439
37639SOL     OW14813   5.901  14.325   0.551
37639SOL    HW114814   5.821  14.285   0.586
37639SOL    HW214815   5.972  14.269   0.583
37640SOL     OW14816   2.022  12.441   0.953
37640SOL    HW114817   2.107  12.470   0.984
37640SOL    HW214818   2.041  12.390   0.874
37641SOL     OW14819   3.936   5.878   2.753
37641SOL    HW114820   3.914   5.963   2.714
37641SOL    HW214821   3.864   5.861   2.814
37642SOL     OW14822  14.247   5.500   0.519
37642SOL    HW114823  14.342   5.499   0.502
37642SOL    HW214824  14.219   5.410   0.501
37643SOL     OW14825  13.020   5.432  10.270
37643SOL    HW114826  12.981   5.367  10.330
37643SOL    HW214827  12.973   5.418  10.188
37644SOL     OW14828   7.665   9.177   2.295
37644SOL    HW114829   7.723   9.107   2.324
37644SOL    HW214830   7.672   9.176   2.199
37645SOL     OW14831   9.634   1.898  14.664
37645SOL    HW114832   9.554   1.874  14.711
37645SOL    HW214833   9.679   1.959  14.723
37646SOL     OW14834  14.618   7.497   2.688
37646SOL    HW114835  14.689   7.474   2.628
37646SOL    HW214836  14.660   7.549   2.756
37647SOL     OW14837   0.885   1.400  11.274
37647SOL    HW114838   0.911   1.464  11.341
37647SOL    HW214839   0.808   1.356  11.311
37648SOL     OW14840   0.534   4.588  11.350
37648SOL    HW114841   0.508   4.659  11.409
37648SOL    HW214842   0.561   4.517  11.409
37649SOL     OW14843  10.180   9.387  12.848
37649SOL    HW114844  10.235   9.311  12.830
37649SOL    HW214845  10.159   9.422  12.762
37650SOL     OW14846  10.824  10.182   9.983
37650SOL    HW114847  10.831  10.155  10.075
37650SOL    HW214848  10.908  10.157   9.945
37651SOL     OW14849  13.869  12.650   0.716
37651SOL    HW114850  13.816  12.660   0.636
37651SOL    HW214851  13.912  12.735   0.726
37652SOL     OW14852   5.806   5.013   2.267
37652SOL    HW114853   5.800   5.089   2.325
37652SOL    HW214854   5.890   5.025   2.222
37653SOL     OW14855   7.527   5.005  14.460
37653SOL    HW114856   7.622   5.015  14.466
37653SOL    HW214857   7.504   5.051  14.379
37654SOL     OW14858  10.647   9.388   4.724
37654SOL    HW114859  10.655   9.324   4.795
37654SOL    HW214860  10.553   9.409   4.721
37655SOL     OW14861  12.209   5.646  14.326
37655SOL    HW114862  12.192   5.616  14.237
37655SOL    HW214863  12.303   5.630  14.338
37656SOL     OW14864   1.474   9.648   2.287
37656SOL    HW114865   1.490   9.694   2.370
37656SOL    HW214866   1.560   9.646   2.244
37657SOL     OW14867  13.537   6.918   4.020
37657SOL    HW114868  13.536   6.891   3.928
37657SOL    HW214869  13.445   6.936   4.040
37658SOL     OW14870   6.685   4.410   0.293
37658SOL    HW114871   6.648   4.476   0.235
37658SOL    HW214872   6.692   4.454   0.378
37659SOL     OW14873  10.762   2.121  12.747
37659SOL    HW114874  10.833   2.154  12.802
37659SOL    HW214875  10.685   2.120  12.804
37660SOL     OW14876   7.340   4.077   3.117
37660SOL    HW114877   7.429   4.056   3.089
37660SOL    HW214878   7.309   3.997   3.159
37661SOL     OW14879   7.277  14.231   9.626
37661SOL    HW114880   7.283  14.137   9.643
37661SOL    HW214881   7.231  14.266   9.703
37662SOL     OW14882   2.499   4.809   1.827
37662SOL    HW114883   2.568   4.825   1.763
37662SOL    HW214884   2.430   4.766   1.778
37663SOL     OW14885   2.329  10.511   0.436
37663SOL    HW114886   2.316  10.418   0.452
37663SOL    HW214887   2.366  10.515   0.348
37664SOL     OW14888   4.501   7.992   9.017
37664SOL    HW114889   4.450   7.938   9.077
37664SOL    HW214890   4.442   8.007   8.943
37665SOL     OW14891  11.013   7.305  14.724
37665SOL    HW114892  11.102   7.334  14.705
37665SOL    HW214893  10.969   7.383  14.757
37666SOL     OW14894   3.899  12.999  11.945
37666SOL    HW114895   3.960  13.058  11.900
37666SOL    HW214896   3.864  13.051  12.017
37667SOL     OW14897  10.934  11.253  12.167
37667SOL    HW114898  11.030  11.251  12.164
37667SOL    HW214899  10.911  11.179  12.224
37668SOL     OW14900  11.839  13.047   6.467
37668SOL    HW114901  11.909  13.109   6.444
37668SOL    HW214902  11.761  13.082   6.423
37669SOL     OW14903   6.079   1.803   9.512
37669SOL    HW114904   6.105   1.889   9.546
37669SOL    HW214905   6.144   1.743   9.548
37670SOL     OW14906   1.386   8.481   5.945
37670SOL    HW114907   1.366   8.387   5.937
37670SOL    HW214908   1.303   8.524   5.925
37671SOL     OW14909   3.980   1.353  11.447
37671SOL    HW114910   3.896   1.378  11.409
37671SOL    HW214911   4.040   1.349  11.373
37672SOL     OW14912  12.567   7.574   6.688
37672SOL    HW114913  12.496   7.545   6.745
37672SOL    HW214914  12.526   7.581   6.601
37673SOL     OW14915   6.790   3.124  14.016
37673SOL    HW114916   6.752   3.095  13.933
37673SOL    HW214917   6.866   3.177  13.991
37674SOL     OW14918  11.618   5.730   2.951
37674SOL    HW114919  11.566   5.810   2.964
37674SOL    HW214920  11.660   5.715   3.036
37675SOL     OW14921   7.195   8.788   7.146
37675SOL    HW114922   7.210   8.882   7.137
37675SOL    HW214923   7.114   8.772   7.097
37676SOL     OW14924   8.007   7.531  10.057
37676SOL    HW114925   8.030   7.496  10.143
37676SOL    HW214926   8.087   7.526  10.006
37677SOL     OW14927   6.774   5.439   8.727
37677SOL    HW114928   6.714   5.415   8.798
37677SOL    HW214929   6.850   5.476   8.772
37678SOL     OW14930   9.431   9.784   2.752
37678SOL    HW114931   9.384   9.799   2.670
37678SOL    HW214932   9.445   9.689   2.756
37679SOL     OW14933  13.546   7.208   0.049
37679SOL    HW114934  13.487   7.134   0.036
37679SOL    HW214935  13.499   7.265   0.110
37680SOL     OW14936  14.490   9.242  13.495
37680SOL    HW114937  14.524   9.176  13.435
37680SOL    HW214938  14.422   9.196  13.545
37681SOL     OW14939   7.880   3.354  11.800
37681SOL    HW114940   7.786   3.347  11.784
37681SOL    HW214941   7.920   3.293  11.737
37682SOL     OW14942   0.571  10.233  11.863
37682SOL    HW114943   0.551  10.160  11.922
37682SOL    HW214944   0.585  10.191  11.778
37683SOL     OW14945   6.577   7.559   8.078
37683SOL    HW114946   6.580   7.588   7.986
37683SOL    HW214947   6.507   7.495   8.080
37684SOL     OW14948  12.282   1.939   1.386
37684SOL    HW114949  12.329   1.894   1.456
37684SOL    HW214950  12.347   1.956   1.319
37685SOL     OW14951   0.248   1.727  11.889
37685SOL    HW114952   0.221   1.819  11.887
37685SOL    HW214953   0.180   1.681  11.839
37686SOL     OW14954   7.309   4.203   1.755
37686SOL    HW114955   7.323   4.129   1.815
37686SOL    HW214956   7.373   4.269   1.783
37687SOL     OW14957  12.667  14.400   8.226
37687SOL    HW114958  12.641  14.456   8.153
37687SOL    HW214959  12.750  14.436   8.256
37688SOL     OW14960  12.513   4.346   0.364
37688SOL    HW114961  12.494   4.418   0.423
37688SOL    HW214962  12.427   4.315   0.335
37689SOL     OW14963   9.193   9.465   2.666
37689SOL    HW114964   9.233   9.437   2.749
37689SOL    HW214965   9.223   9.401   2.602
37690SOL     OW14966   4.628   8.649   2.236
37690SOL    HW114967   4.665   8.736   2.223
37690SOL    HW214968   4.623   8.611   2.149
37691SOL     OW14969  14.413   5.817   5.533
37691SOL    HW114970  14.463   5.849   5.609
37691SOL    HW214971  14.322   5.839   5.553
37692SOL     OW14972   8.735  10.847  10.131
37692SOL    HW114973   8.814  10.901  10.122
37692SOL    HW214974   8.665  10.900  10.093
37693SOL     OW14975  11.900   7.561   7.208
37693SOL    HW114976  11.860   7.510   7.137
37693SOL    HW214977  11.954   7.498   7.255
37694SOL     OW14978   5.639  14.600   7.516
37694SOL    HW114979   5.601  14.519   7.551
37694SOL    HW214980   5.733  14.591   7.533
37695SOL     OW14981   1.086   7.934  10.646
37695SOL    HW114982   1.096   7.911  10.738
37695SOL    HW214983   1.176   7.949  10.615
37696SOL     OW14984   1.374   9.190   8.887
37696SOL    HW114985   1.288   9.198   8.847
37696SOL    HW214986   1.431   9.159   8.817
37697SOL     OW14987   2.638   9.561  10.632
37697SOL    HW114988   2.608   9.491  10.574
37697SOL    HW214989   2.642   9.520  10.718
37698SOL     OW14990   1.294   0.001   5.918
37698SOL    HW114991   1.342   0.078   5.946
37698SOL    HW214992   1.356  14.801   5.928
37699SOL     OW14993  14.077   6.845   6.764
37699SOL    HW114994  14.095   6.792   6.842
37699SOL    HW214995  14.129   6.924   6.776
37700SOL     OW14996  14.741  10.499   1.165
37700SOL    HW114997  14.689  10.472   1.241
37700SOL    HW214998  14.755  10.593   1.178
37701SOL     OW14999   7.091   5.451   6.340
37701SOL    HW115000   7.073   5.507   6.265
37701SOL    HW215001   7.096   5.363   6.303
37702SOL     OW15002  12.761   9.579   1.666
37702SOL    HW115003  12.786   9.622   1.584
37702SOL    HW215004  12.840   9.581   1.719
37703SOL     OW15005  12.243   6.578   6.590
37703SOL    HW115006  12.179   6.568   6.520
37703SOL    HW215007  12.262   6.672   6.593
37704SOL     OW15008   3.734   3.228   4.511
37704SOL    HW115009   3.755   3.278   4.432
37704SOL    HW215010   3.749   3.290   4.583
37705SOL     OW15011   4.991  14.738   4.111
37705SOL    HW115012   4.988  14.659   4.166
37705SOL    HW215013   4.945  14.804   4.163
37706SOL     OW15014  11.244   4.612  13.813
37706SOL    HW115015  11.177   4.552  13.779
37706SOL    HW215016  11.315   4.555  13.840
37707SOL     OW15017  11.801   3.209   8.688
37707SOL    HW115018  11.783   3.271   8.759
37707SOL    HW215019  11.749   3.132   8.710
37708SOL     OW15020  11.119   9.313   6.948
37708SOL    HW115021  11.059   9.309   6.874
37708SOL    HW215022  11.091   9.241   7.005
37709SOL     OW15023  11.307  13.376  10.244
37709SOL    HW115024  11.339  13.396  10.332
37709SOL    HW215025  11.318  13.281  10.235
37710SOL     OW15026  11.547  10.727   6.525
37710SOL    HW115027  11.543  10.761   6.435
37710SOL    HW215028  11.483  10.778   6.573
37711SOL     OW15029   5.896   1.050   8.652
37711SOL    HW115030   5.868   1.005   8.731
37711SOL    HW215031   5.908   1.141   8.679
37712SOL     OW15032   7.522   4.787   0.614
37712SOL    HW115033   7.531   4.756   0.524
37712SOL    HW215034   7.482   4.714   0.661
37713SOL     OW15035   8.873   3.151   2.362
37713SOL    HW115036   8.864   3.131   2.455
37713SOL    HW215037   8.812   3.223   2.347
37714SOL     OW15038   8.046  14.801  14.470
37714SOL    HW115039   8.067   0.020  14.489
37714SOL    HW215040   7.965  14.784  14.517
37715SOL     OW15041   5.959  11.057   7.040
37715SOL    HW115042   6.006  11.032   7.120
37715SOL    HW215043   5.926  10.974   7.005
37716SOL     OW15044   4.401   6.912   0.103
37716SOL    HW115045   4.350   6.952   0.032
37716SOL    HW215046   4.410   6.981   0.168
37717SOL     OW15047   0.204  10.253   2.971
37717SOL    HW115048   0.200  10.194   3.046
37717SOL    HW215049   0.155  10.330   2.998
37718SOL     OW15050   9.661   9.556  12.096
37718SOL    HW115051   9.571   9.545  12.066
37718SOL    HW215052   9.701   9.469  12.089
37719SOL     OW15053  10.752  10.619   7.526
37719SOL    HW115054  10.675  10.641   7.474
37719SOL    HW215055  10.818  10.594   7.461
37720SOL     OW15056   0.115   6.364   8.617
37720SOL    HW115057   0.203   6.364   8.579
37720SOL    HW215058   0.128   6.392   8.707
37721SOL     OW15059   8.976   7.991  14.562
37721SOL    HW115060   9.033   8.061  14.593
37721SOL    HW215061   8.929   7.963  14.641
37722SOL     OW15062   6.237  12.147  10.847
37722SOL    HW115063   6.322  12.171  10.884
37722SOL    HW215064   6.183  12.129  10.924
37723SOL     OW15065   6.147  12.886  12.030
37723SOL    HW115066   6.186  12.867  11.944
37723SOL    HW215067   6.220  12.880  12.091
37724SOL     OW15068  13.619   1.837   9.477
37724SOL    HW115069  13.540   1.786   9.461
37724SOL    HW215070  13.587   1.920   9.512
37725SOL     OW15071   4.785   0.997   2.270
37725SOL    HW115072   4.780   1.009   2.175
37725SOL    HW215073   4.877   0.975   2.287
37726SOL     OW15074   6.182   2.155   3.558
37726SOL    HW115075   6.267   2.148   3.514
37726SOL    HW215076   6.121   2.110   3.499
37727SOL     OW15077  12.737   5.640   2.818
37727SOL    HW115078  12.759   5.733   2.826
37727SOL    HW215079  12.756   5.620   2.726
37728SOL     OW15080  14.105   1.477  13.942
37728SOL    HW115081  14.152   1.412  13.890
37728SOL    HW215082  14.107   1.556  13.889
37729SOL     OW15083   9.726  12.068  13.583
37729SOL    HW115084   9.771  12.003  13.637
37729SOL    HW215085   9.696  12.020  13.506
37730SOL     OW15086   3.588   0.505   1.972
37730SOL    HW115087   3.656   0.572   1.978
37730SOL    HW215088   3.630   0.432   1.928
37731SOL     OW15089   6.462   3.161  12.923
37731SOL    HW115090   6.395   3.184  12.988
37731SOL    HW215091   6.496   3.246  12.894
37732SOL     OW15092   7.924   8.836   1.603
37732SOL    HW115093   7.936   8.743   1.583
37732SOL    HW215094   8.013   8.870   1.616
37733SOL     OW15095   0.599   0.288   0.676
37733SOL    HW115096   0.527   0.315   0.619
37733SOL    HW215097   0.675   0.283   0.617
37734SOL     OW15098   2.327  11.538  13.768
37734SOL    HW115099   2.255  11.480  13.742
37734SOL    HW215100   2.307  11.622  13.727
37735SOL     OW15101  11.605  12.961   8.852
37735SOL    HW115102  11.515  12.986   8.872
37735SOL    HW215103  11.603  12.865   8.854
37736SOL     OW15104  10.345   6.111  14.224
37736SOL    HW115105  10.364   6.153  14.308
37736SOL    HW215106  10.375   6.021  14.235
37737SOL     OW15107   9.035   9.866   2.153
37737SOL    HW115108   9.003   9.918   2.227
37737SOL    HW215109   9.067   9.930   2.090
37738SOL     OW15110   1.541  13.712  12.836
37738SOL    HW115111   1.511  13.668  12.915
37738SOL    HW215112   1.624  13.669  12.814
37739SOL     OW15113   2.593   1.531  12.881
37739SOL    HW115114   2.643   1.500  12.805
37739SOL    HW215115   2.587   1.626  12.868
37740SOL     OW15116   8.116   2.645   9.755
37740SOL    HW115117   8.166   2.567   9.732
37740SOL    HW215118   8.049   2.652   9.687
37741SOL     OW15119   6.754   4.742   9.506
37741SOL    HW115120   6.692   4.803   9.466
37741SOL    HW215121   6.780   4.684   9.434
37742SOL     OW15122   1.981   8.166  11.015
37742SOL    HW115123   1.916   8.170  11.086
37742SOL    HW215124   1.937   8.206  10.940
37743SOL     OW15125   1.306  14.834   8.198
37743SOL    HW115126   1.343  14.747   8.213
37743SOL    HW215127   1.338  14.859   8.111
37744SOL     OW15128  13.085   3.195   3.906
37744SOL    HW115129  12.994   3.164   3.911
37744SOL    HW215130  13.086   3.276   3.955
37745SOL     OW15131   8.069   6.383   9.689
37745SOL    HW115132   8.007   6.317   9.657
37745SOL    HW215133   8.154   6.353   9.656
37746SOL     OW15134   2.029   7.247  11.961
37746SOL    HW115135   1.956   7.262  11.901
37746SOL    HW215136   2.023   7.317  12.026
37747SOL     OW15137   9.783  13.694  14.290
37747SOL    HW115138   9.817  13.607  14.268
37747SOL    HW215139   9.710  13.677  14.349
37748SOL     OW15140   3.953   5.529   6.564
37748SOL    HW115141   3.941   5.464   6.495
37748SOL    HW215142   3.882   5.512   6.626
37749SOL     OW15143  11.049   3.299   8.073
37749SOL    HW115144  11.051   3.340   8.159
37749SOL    HW215145  10.958   3.274   8.060
37750SOL     OW15146   6.907   6.190  11.072
37750SOL    HW115147   6.954   6.144  11.003
37750SOL    HW215148   6.836   6.131  11.097
37751SOL     OW15149   8.437  12.058  10.307
37751SOL    HW115150   8.358  12.084  10.260
37751SOL    HW215151   8.462  11.974  10.268
37752SOL     OW15152  13.465   3.547   8.589
37752SOL    HW115153  13.407   3.541   8.513
37752SOL    HW215154  13.419   3.500   8.658
37753SOL     OW15155   0.220   9.452   0.596
37753SOL    HW115156   0.215   9.495   0.511
37753SOL    HW215157   0.243   9.361   0.575
37754SOL     OW15158   6.455  13.933   1.823
37754SOL    HW115159   6.393  13.870   1.858
37754SOL    HW215160   6.408  13.974   1.750
37755SOL     OW15161   2.335  11.373   0.326
37755SOL    HW115162   2.248  11.338   0.304
37755SOL    HW215163   2.329  11.466   0.306
37756SOL     OW15164   7.727   8.301   6.204
37756SOL    HW115165   7.746   8.391   6.233
37756SOL    HW215166   7.643   8.307   6.158
37757SOL     OW15167   3.073  11.603  11.531
37757SOL    HW115168   3.063  11.630  11.622
37757SOL    HW215169   3.014  11.528  11.522
37758SOL     OW15170  10.216   8.470  12.122
37758SOL    HW115171  10.212   8.386  12.076
37758SOL    HW215172  10.220   8.535  12.052
37759SOL     OW15173  10.548   5.182   0.046
37759SOL    HW115174  10.642   5.168   0.043
37759SOL    HW215175  10.527   5.184   0.139
37760SOL     OW15176  11.880   8.170   9.451
37760SOL    HW115177  11.854   8.196   9.362
37760SOL    HW215178  11.910   8.252   9.492
37761SOL     OW15179  12.817   1.597   2.621
37761SOL    HW115180  12.722   1.603   2.612
37761SOL    HW215181  12.850   1.680   2.585
37762SOL     OW15182  14.374  12.359   8.992
37762SOL    HW115183  14.371  12.268   8.963
37762SOL    HW215184  14.329  12.359   9.076
37763SOL     OW15185   6.214   6.183  13.561
37763SOL    HW115186   6.191   6.253  13.623
37763SOL    HW215187   6.304   6.161  13.582
37764SOL     OW15188  12.468   6.378  10.174
37764SOL    HW115189  12.473   6.429  10.255
37764SOL    HW215190  12.387   6.408  10.132
37765SOL     OW15191   5.032  12.175   6.313
37765SOL    HW115192   5.078  12.215   6.386
37765SOL    HW215193   4.963  12.123   6.353
37766SOL     OW15194  13.566   7.436   1.339
37766SOL    HW115195  13.558   7.398   1.426
37766SOL    HW215196  13.477   7.430   1.303
37767SOL     OW15197   4.128   2.138  12.607
37767SOL    HW115198   4.152   2.076  12.537
37767SOL    HW215199   4.208   2.189  12.622
37768SOL     OW15200  14.103   0.095   1.517
37768SOL    HW115201  14.188   0.053   1.502
37768SOL    HW215202  14.082   0.138   1.434
37769SOL     OW15203   3.184   6.117   5.950
37769SOL    HW115204   3.211   6.160   6.031
37769SOL    HW215205   3.253   6.052   5.934
37770SOL     OW15206  11.322   2.861   8.280
37770SOL    HW115207  11.237   2.873   8.322
37770SOL    HW215208  11.307   2.884   8.188
37771SOL     OW15209   2.961  10.552  13.542
37771SOL    HW115210   2.889  10.494  13.517
37771SOL    HW215211   2.928  10.640  13.527
37772SOL     OW15212  12.291   3.416  12.428
37772SOL    HW115213  12.319   3.356  12.498
37772SOL    HW215214  12.353   3.489  12.432
37773SOL     OW15215   2.341   2.134   9.849
37773SOL    HW115216   2.298   2.149   9.933
37773SOL    HW215217   2.400   2.061   9.865
37774SOL     OW15218   3.890   1.520   0.583
37774SOL    HW115219   3.850   1.506   0.669
37774SOL    HW215220   3.857   1.605   0.555
37775SOL     OW15221   5.274  11.357  10.636
37775SOL    HW115222   5.319  11.344  10.719
37775SOL    HW215223   5.339  11.330  10.570
37776SOL     OW15224   4.049   8.331  11.439
37776SOL    HW115225   4.099   8.399  11.394
37776SOL    HW215226   4.101   8.309  11.516
37777SOL     OW15227   3.152   0.513   1.951
37777SOL    HW115228   3.224   0.563   1.912
37777SOL    HW215229   3.157   0.532   2.045
37778SOL     OW15230  10.667   9.548   9.801
37778SOL    HW115231  10.658   9.461   9.841
37778SOL    HW215232  10.762   9.558   9.786
37779SOL     OW15233   3.527  12.228   2.459
37779SOL    HW115234   3.581  12.297   2.497
37779SOL    HW215235   3.531  12.244   2.365
37780SOL     OW15236   1.671  10.403  13.693
37780SOL    HW115237   1.728  10.480  13.691
37780SOL    HW215238   1.724  10.334  13.653
37781SOL     OW15239  10.315   3.998   5.894
37781SOL    HW115240  10.254   4.070   5.905
37781SOL    HW215241  10.338   3.972   5.983
37782SOL     OW15242   4.167   5.412   9.993
37782SOL    HW115243   4.076   5.394  10.017
37782SOL    HW215244   4.218   5.374  10.065
37783SOL     OW15245  10.953   4.295   2.433
37783SOL    HW115246  11.003   4.373   2.458
37783SOL    HW215247  11.018   4.234   2.399
37784SOL     OW15248   5.286   5.566  10.231
37784SOL    HW115249   5.368   5.517  10.219
37784SOL    HW215250   5.235   5.512  10.291
37785SOL     OW15251   0.764   1.906  10.774
37785SOL    HW115252   0.720   1.984  10.741
37785SOL    HW215253   0.695   1.857  10.820
37786SOL     OW15254   1.110  14.605   5.431
37786SOL    HW115255   1.103  14.524   5.481
37786SOL    HW215256   1.165  14.663   5.485
37787SOL     OW15257   9.660   3.785  10.222
37787SOL    HW115258   9.661   3.881  10.216
37787SOL    HW215259   9.709   3.766  10.302
37788SOL     OW15260   1.427   8.467   1.680
37788SOL    HW115261   1.356   8.526   1.655
37788SOL    HW215262   1.506   8.507   1.644
37789SOL     OW15263  12.647   0.536  11.489
37789SOL    HW115264  12.615   0.511  11.403
37789SOL    HW215265  12.603   0.477  11.550
37790SOL     OW15266  11.891   5.799  12.208
37790SOL    HW115267  11.892   5.704  12.198
37790SOL    HW215268  11.971   5.829  12.166
37791SOL     OW15269   3.810   2.506  14.499
37791SOL    HW115270   3.905   2.518  14.500
37791SOL    HW215271   3.777   2.577  14.554
37792SOL     OW15272   1.922  10.903   9.366
37792SOL    HW115273   2.015  10.924   9.374
37792SOL    HW215274   1.920  10.811   9.341
37793SOL     OW15275   3.355  10.823  10.381
37793SOL    HW115276   3.419  10.783  10.322
37793SOL    HW215277   3.401  10.829  10.465
37794SOL     OW15278   3.723   9.463   1.528
37794SOL    HW115279   3.711   9.459   1.433
37794SOL    HW215280   3.656   9.403   1.562
37795SOL     OW15281   4.845   8.163   1.012
37795SOL    HW115282   4.910   8.146   0.944
37795SOL    HW215283   4.893   8.211   1.080
37796SOL     OW15284   7.543   9.627   6.235
37796SOL    HW115285   7.555   9.671   6.150
37796SOL    HW215286   7.540   9.699   6.298
37797SOL     OW15287   6.231  11.675   8.789
37797SOL    HW115288   6.207  11.699   8.699
37797SOL    HW215289   6.319  11.710   8.801
37798SOL     OW15290   7.229   0.688  13.436
37798SOL    HW115291   7.183   0.635  13.371
37798SOL    HW215292   7.245   0.771  13.391
37799SOL     OW15293   1.002  10.038   8.487
37799SOL    HW115294   0.942  10.083   8.546
37799SOL    HW215295   0.946   9.986   8.430
37800SOL     OW15296   6.651  10.482   1.588
37800SOL    HW115297   6.565  10.497   1.549
37800SOL    HW215298   6.652  10.389   1.609
37801SOL     OW15299  14.089  10.173  14.163
37801SOL    HW115300  14.043  10.101  14.205
37801SOL    HW215301  14.142  10.132  14.095
37802SOL     OW15302   3.416  12.272  12.004
37802SOL    HW115303   3.460  12.340  11.953
37802SOL    HW215304   3.325  12.276  11.976
37803SOL     OW15305   8.191   3.247   3.520
37803SOL    HW115306   8.162   3.161   3.548
37803SOL    HW215307   8.145   3.263   3.437
37804SOL     OW15308   7.709   7.175   4.994
37804SOL    HW115309   7.698   7.091   5.038
37804SOL    HW215310   7.720   7.153   4.902
37805SOL     OW15311   5.117   4.767   4.985
37805SOL    HW115312   5.210   4.790   4.991
37805SOL    HW215313   5.083   4.823   4.914
37806SOL     OW15314   8.395   4.343   8.581
37806SOL    HW115315   8.424   4.416   8.526
37806SOL    HW215316   8.372   4.274   8.518
37807SOL     OW15317  10.308  14.854   5.413
37807SOL    HW115318  10.315   0.016   5.502
37807SOL    HW215319  10.227  14.803   5.413
37808SOL     OW15320  10.499   6.554   1.640
37808SOL    HW115321  10.493   6.569   1.734
37808SOL    HW215322  10.506   6.459   1.631
37809SOL     OW15323   5.888  10.542   6.438
37809SOL    HW115324   5.958  10.479   6.417
37809SOL    HW215325   5.892  10.606   6.367
37810SOL     OW15326   8.053   0.201   1.536
37810SOL    HW115327   8.047   0.296   1.545
37810SOL    HW215328   7.992   0.166   1.602
37811SOL     OW15329   6.720  13.122   1.071
37811SOL    HW115330   6.770  13.041   1.058
37811SOL    HW215331   6.764  13.186   1.014
37812SOL     OW15332   9.153  14.126   5.947
37812SOL    HW115333   9.219  14.061   5.967
37812SOL    HW215334   9.127  14.162   6.032
37813SOL     OW15335  14.698   2.789   4.805
37813SOL    HW115336  14.715   2.806   4.712
37813SOL    HW215337  14.626   2.726   4.805
37814SOL     OW15338  13.714   9.695  11.832
37814SOL    HW115339  13.764   9.616  11.810
37814SOL    HW215340  13.669   9.673  11.913
37815SOL     OW15341   4.846  12.833  12.600
37815SOL    HW115342   4.810  12.771  12.537
37815SOL    HW215343   4.796  12.913  12.586
37816SOL     OW15344   0.321  14.063  13.328
37816SOL    HW115345   0.241  14.045  13.377
37816SOL    HW215346   0.341  14.155  13.345
37817SOL     OW15347  12.395   4.276   8.928
37817SOL    HW115348  12.363   4.365   8.911
37817SOL    HW215349  12.394   4.267   9.023
37818SOL     OW15350  14.137   3.061   5.157
37818SOL    HW115351  14.209   3.121   5.178
37818SOL    HW215352  14.091   3.048   5.240
37819SOL     OW15353  12.602  11.695  11.021
37819SOL    HW115354  12.588  11.683  10.927
37819SOL    HW215355  12.695  11.716  11.029
37820SOL     OW15356  14.444   4.681  12.044
37820SOL    HW115357  14.539   4.674  12.031
37820SOL    HW215358  14.407   4.620  11.981
37821SOL     OW15359   1.224  12.123   9.434
37821SOL    HW115360   1.306  12.146   9.389
37821SOL    HW215361   1.206  12.033   9.407
37822SOL     OW15362  10.991   9.111  12.622
37822SOL    HW115363  10.977   9.042  12.557
37822SOL    HW215364  11.060   9.077  12.678
37823SOL     OW15365  10.583   0.021   9.982
37823SOL    HW115366  10.670   0.044  10.014
37823SOL    HW215367  10.526   0.027  10.059
37824SOL     OW15368   7.297   2.061   2.151
37824SOL    HW115369   7.234   2.131   2.136
37824SOL    HW215370   7.302   2.054   2.247
37825SOL     OW15371  10.706   0.266   8.404
37825SOL    HW115372  10.656   0.347   8.394
37825SOL    HW215373  10.642   0.197   8.390
37826SOL     OW15374   5.094   0.930  11.417
37826SOL    HW115375   5.103   0.950  11.324
37826SOL    HW215376   5.064   0.839  11.420
37827SOL     OW15377   4.926   2.139  13.240
37827SOL    HW115378   4.987   2.184  13.182
37827SOL    HW215379   4.908   2.201  13.310
37828SOL     OW15380  14.060   5.781   8.146
37828SOL    HW115381  14.097   5.829   8.220
37828SOL    HW215382  14.109   5.699   8.143
37829SOL     OW15383   1.314   0.311   4.574
37829SOL    HW115384   1.249   0.242   4.586
37829SOL    HW215385   1.265   0.385   4.538
37830SOL     OW15386   9.510   5.002  13.332
37830SOL    HW115387   9.539   5.063  13.400
37830SOL    HW215388   9.468   4.931  13.380
37831SOL     OW15389  14.511  12.563   6.789
37831SOL    HW115390  14.583  12.623   6.770
37831SOL    HW215391  14.487  12.582   6.880
37832SOL     OW15392   3.855   8.790   6.810
37832SOL    HW115393   3.912   8.859   6.776
37832SOL    HW215394   3.767   8.828   6.808
37833SOL     OW15395  11.760   1.911   7.769
37833SOL    HW115396  11.855   1.916   7.762
37833SOL    HW215397  11.731   1.868   7.688
37834SOL     OW15398   4.942   1.241   8.240
37834SOL    HW115399   4.913   1.150   8.238
37834SOL    HW215400   5.018   1.243   8.181
37835SOL     OW15401   0.276   3.294   9.554
37835SOL    HW115402   0.281   3.205   9.519
37835SOL    HW215403   0.208   3.290   9.621
37836SOL     OW15404   7.503   1.509  12.402
37836SOL    HW115405   7.525   1.602  12.410
37836SOL    HW215406   7.517   1.490  12.309
37837SOL     OW15407   4.659  13.648  10.279
37837SOL    HW115408   4.669  13.591  10.355
37837SOL    HW215409   4.566  13.645  10.258
37838SOL     OW15410   7.260  12.085   2.538
37838SOL    HW115411   7.258  12.168   2.586
37838SOL    HW215412   7.188  12.034   2.575
37839SOL     OW15413   6.171   5.413   2.596
37839SOL    HW115414   6.137   5.328   2.624
37839SOL    HW215415   6.233   5.439   2.664
37840SOL     OW15416   0.667  12.223  13.886
37840SOL    HW115417   0.591  12.170  13.910
37840SOL    HW215418   0.729  12.210  13.958
37841SOL     OW15419  14.030   7.367  10.989
37841SOL    HW115420  14.109   7.413  10.960
37841SOL    HW215421  13.995   7.422  11.059
37842SOL     OW15422   5.355   0.969   7.118
37842SOL    HW115423   5.327   0.990   7.207
37842SOL    HW215424   5.347   1.053   7.071
37843SOL     OW15425  10.351   8.347   5.853
37843SOL    HW115426  10.381   8.437   5.862
37843SOL    HW215427  10.272   8.342   5.907
37844SOL     OW15428  12.895   3.559   1.514
37844SOL    HW115429  12.849   3.479   1.489
37844SOL    HW215430  12.988   3.537   1.509
37845SOL     OW15431   5.030   4.583  11.227
37845SOL    HW115432   5.064   4.527  11.298
37845SOL    HW215433   5.055   4.672  11.254
37846SOL     OW15434   2.844   0.935   3.785
37846SOL    HW115435   2.792   0.872   3.735
37846SOL    HW215436   2.930   0.894   3.792
37847SOL     OW15437  11.494   4.988   2.891
37847SOL    HW115438  11.472   5.018   2.979
37847SOL    HW215439  11.550   4.912   2.906
37848SOL     OW15440   9.207   0.572  13.242
37848SOL    HW115441   9.163   0.580  13.158
37848SOL    HW215442   9.293   0.612  13.229
37849SOL     OW15443   4.201   1.302  13.779
37849SOL    HW115444   4.210   1.335  13.868
37849SOL    HW215445   4.288   1.266  13.758
37850SOL     OW15446   6.934  12.868   9.469
37850SOL    HW115447   6.840  12.869   9.487
37850SOL    HW215448   6.962  12.779   9.491
37851SOL     OW15449   1.749   9.209   2.846
37851SOL    HW115450   1.659   9.223   2.874
37851SOL    HW215451   1.775   9.128   2.889
37852SOL     OW15452   6.269  10.350   3.745
37852SOL    HW115453   6.257  10.327   3.653
37852SOL    HW215454   6.298  10.268   3.787
37853SOL     OW15455  13.477   7.744   0.604
37853SOL    HW115456  13.568   7.770   0.589
37853SOL    HW215457  13.432   7.772   0.525
37854SOL     OW15458  13.253   5.190  11.055
37854SOL    HW115459  13.254   5.180  11.151
37854SOL    HW215460  13.224   5.105  11.023
37855SOL     OW15461   7.689   7.043  13.886
37855SOL    HW115462   7.620   7.057  13.950
37855SOL    HW215463   7.700   6.948  13.883
37856SOL     OW15464   8.047   8.176   3.841
37856SOL    HW115465   7.953   8.195   3.836
37856SOL    HW215466   8.058   8.128   3.923
37857SOL     OW15467   3.350   9.884   6.409
37857SOL    HW115468   3.352   9.934   6.491
37857SOL    HW215469   3.410   9.811   6.424
37858SOL     OW15470   6.651  10.194   6.929
37858SOL    HW115471   6.629  10.153   6.846
37858SOL    HW215472   6.701  10.272   6.906
37859SOL     OW15473   3.108   4.377   2.904
37859SOL    HW115474   3.036   4.429   2.869
37859SOL    HW215475   3.161   4.440   2.954
37860SOL     OW15476   3.409   7.438   5.239
37860SOL    HW115477   3.480   7.500   5.257
37860SOL    HW215478   3.422   7.413   5.148
37861SOL     OW15479  10.389  11.122   8.464
37861SOL    HW115480  10.389  11.106   8.370
37861SOL    HW215481  10.473  11.088   8.495
37862SOL     OW15482   3.504  11.676  12.830
37862SOL    HW115483   3.445  11.630  12.890
37862SOL    HW215484   3.581  11.697  12.884
37863SOL     OW15485  14.760  11.244  12.296
37863SOL    HW115486  14.832  11.289  12.341
37863SOL    HW215487  14.799  11.212  12.215
37864SOL     OW15488   0.206   0.247   1.844
37864SOL    HW115489   0.200   0.311   1.915
37864SOL    HW215490   0.282   0.275   1.793
37865SOL     OW15491  14.612   9.482   6.051
37865SOL    HW115492  14.618   9.438   5.966
37865SOL    HW215493  14.577   9.416   6.110
37866SOL     OW15494   0.162   6.543  14.180
37866SOL    HW115495   0.163   6.599  14.103
37866SOL    HW215496   0.071   6.512  14.186
37867SOL     OW15497   3.627   7.209   4.322
37867SOL    HW115498   3.629   7.146   4.394
37867SOL    HW215499   3.662   7.290   4.360
37868SOL     OW15500  11.850   9.469  11.819
37868SOL    HW115501  11.807   9.422  11.890
37868SOL    HW215502  11.930   9.504  11.858
37869SOL     OW15503   8.801  12.169   2.195
37869SOL    HW115504   8.717  12.122   2.192
37869SOL    HW215505   8.827  12.165   2.287
37870SOL     OW15506  14.222  14.052   4.419
37870SOL    HW115507  14.142  14.006   4.392
37870SOL    HW215508  14.216  14.056   4.514
37871SOL     OW15509  14.675   1.084  13.886
37871SOL    HW115510  14.641   1.024  13.819
37871SOL    HW215511  14.767   1.062  13.894
37872SOL     OW15512   0.186  10.178  12.737
37872SOL    HW115513   0.103  10.216  12.708
37872SOL    HW215514   0.205  10.110  12.672
37873SOL     OW15515   0.618   4.591   8.035
37873SOL    HW115516   0.574   4.657   8.088
37873SOL    HW215517   0.687   4.557   8.091
37874SOL     OW15518  14.374   9.852   4.283
37874SOL    HW115519  14.413   9.784   4.228
37874SOL    HW215520  14.445   9.916   4.295
37875SOL     OW15521  11.988   0.853  12.586
37875SOL    HW115522  11.907   0.814  12.620
37875SOL    HW215523  11.993   0.823  12.496
37876SOL     OW15524  14.795   1.177   7.084
37876SOL    HW115525  14.735   1.102   7.086
37876SOL    HW215526  14.866   1.150   7.026
37877SOL     OW15527   2.871  14.424   2.051
37877SOL    HW115528   2.918  14.389   2.126
37877SOL    HW215529   2.802  14.479   2.089
37878SOL     OW15530   8.217   6.597  12.942
37878SOL    HW115531   8.275   6.666  12.973
37878SOL    HW215532   8.141   6.644  12.906
37879SOL     OW15533   2.886  10.876   3.660
37879SOL    HW115534   2.878  10.945   3.726
37879SOL    HW215535   2.829  10.905   3.588
37880SOL     OW15536   7.259   3.163  13.725
37880SOL    HW115537   7.278   3.082  13.772
37880SOL    HW215538   7.173   3.149  13.686
37881SOL     OW15539  10.311   5.005  10.849
37881SOL    HW115540  10.357   5.087  10.829
37881SOL    HW215541  10.371   4.937  10.819
37882SOL     OW15542   5.832   6.867  14.053
37882SOL    HW115543   5.864   6.890  13.966
37882SOL    HW215544   5.910   6.871  14.109
37883SOL     OW15545   3.725  11.827   5.415
37883SOL    HW115546   3.674  11.773   5.475
37883SOL    HW215547   3.757  11.766   5.349
37884SOL     OW15548   0.012  12.486  14.487
37884SOL    HW115549   0.004  12.523  14.575
37884SOL    HW215550   0.060  12.552  14.437
37885SOL     OW15551  11.017   4.649   9.637
37885SOL    HW115552  11.041   4.742   9.639
37885SOL    HW215553  11.084   4.607   9.691
37886SOL     OW15554   2.150   5.360   0.618
37886SOL    HW115555   2.108   5.396   0.697
37886SOL    HW215556   2.244   5.364   0.636
37887SOL     OW15557  12.007  12.783  11.006
37887SOL    HW115558  11.942  12.749  10.944
37887SOL    HW215559  12.058  12.846  10.954
37888SOL     OW15560   8.226   5.010   2.460
37888SOL    HW115561   8.277   5.091   2.456
37888SOL    HW215562   8.221   4.989   2.554
37889SOL     OW15563  14.135   3.271   2.256
37889SOL    HW115564  14.150   3.179   2.233
37889SOL    HW215565  14.101   3.267   2.346
37890SOL     OW15566  10.886  10.635   6.079
37890SOL    HW115567  10.818  10.571   6.098
37890SOL    HW215568  10.968  10.588   6.093
37891SOL     OW15569   9.243   4.811   1.961
37891SOL    HW115570   9.278   4.854   2.039
37891SOL    HW215571   9.277   4.722   1.964
37892SOL     OW15572   1.213  14.579   1.196
37892SOL    HW115573   1.261  14.627   1.264
37892SOL    HW215574   1.226  14.630   1.117
37893SOL     OW15575   8.438   9.273  11.320
37893SOL    HW115576   8.518   9.263  11.373
37893SOL    HW215577   8.380   9.327  11.375
37894SOL     OW15578   0.682  13.516  14.344
37894SOL    HW115579   0.695  13.610  14.346
37894SOL    HW215580   0.592  13.503  14.376
37895SOL     OW15581   0.937   0.816   6.554
37895SOL    HW115582   0.889   0.744   6.514
37895SOL    HW215583   0.915   0.812   6.647
37896SOL     OW15584   3.057  10.973   0.183
37896SOL    HW115585   2.981  11.022   0.153
37896SOL    HW215586   3.094  10.935   0.103
37897SOL     OW15587   3.309  10.167  12.251
37897SOL    HW115588   3.267  10.082  12.250
37897SOL    HW215589   3.244  10.227  12.214
37898SOL     OW15590   5.181   6.323  10.666
37898SOL    HW115591   5.276   6.332  10.677
37898SOL    HW215592   5.171   6.295  10.575
37899SOL     OW15593   3.160   6.899  10.237
37899SOL    HW115594   3.217   6.836  10.280
37899SOL    HW215595   3.218   6.970  10.209
37900SOL     OW15596   3.690   5.123  13.453
37900SOL    HW115597   3.700   5.190  13.521
37900SOL    HW215598   3.613   5.151  13.404
37901SOL     OW15599   5.075   4.413  13.289
37901SOL    HW115600   5.067   4.408  13.385
37901SOL    HW215601   4.996   4.458  13.260
37902SOL     OW15602   4.429   7.907   2.120
37902SOL    HW115603   4.450   7.816   2.140
37902SOL    HW215604   4.515   7.951   2.121
37903SOL     OW15605   0.400   5.697  14.123
37903SOL    HW115606   0.489   5.667  14.140
37903SOL    HW215607   0.402   5.731  14.034
37904SOL     OW15608  12.327   3.703  13.734
37904SOL    HW115609  12.265   3.644  13.692
37904SOL    HW215610  12.390   3.645  13.776
37905SOL     OW15611  10.357   8.932  13.877
37905SOL    HW115612  10.402   8.855  13.841
37905SOL    HW215613  10.299   8.961  13.806
37906SOL     OW15614  12.003   9.480   7.822
37906SOL    HW115615  11.934   9.540   7.852
37906SOL    HW215616  11.992   9.402   7.876
37907SOL     OW15617   6.017  13.246   8.481
37907SOL    HW115618   5.928  13.224   8.511
37907SOL    HW215619   6.005  13.270   8.389
37908SOL     OW15620  13.059   1.808  12.589
37908SOL    HW115621  13.047   1.714  12.606
37908SOL    HW215622  13.107   1.841  12.664
37909SOL     OW15623  13.143   9.384   5.149
37909SOL    HW115624  13.225   9.433   5.156
37909SOL    HW215625  13.118   9.391   5.057
37910SOL     OW15626   5.690   9.557   2.148
37910SOL    HW115627   5.686   9.500   2.072
37910SOL    HW215628   5.600   9.560   2.181
37911SOL     OW15629   6.603   5.908  14.720
37911SOL    HW115630   6.545   5.975  14.755
37911SOL    HW215631   6.602   5.838  14.786
37912SOL     OW15632  12.625  14.755  13.344
37912SOL    HW115633  12.688  14.772  13.414
37912SOL    HW215634  12.628  14.660  13.332
37913SOL     OW15635   4.596   1.557   2.969
37913SOL    HW115636   4.557   1.631   3.017
37913SOL    HW215637   4.574   1.480   3.021
37914SOL     OW15638   4.859   5.072  13.065
37914SOL    HW115639   4.905   5.149  13.098
37914SOL    HW215640   4.925   5.023  13.016
37915SOL     OW15641   5.905   4.145   7.256
37915SOL    HW115642   5.938   4.159   7.345
37915SOL    HW215643   5.973   4.091   7.215
37916SOL     OW15644  11.114  13.118   2.791
37916SOL    HW115645  11.114  13.023   2.797
37916SOL    HW215646  11.066  13.138   2.710
37917SOL     OW15647   7.675  13.939   0.262
37917SOL    HW115648   7.584  13.968   0.273
37917SOL    HW215649   7.715  13.952   0.348
37918SOL     OW15650  12.549   7.309   6.934
37918SOL    HW115651  12.536   7.229   6.984
37918SOL    HW215652  12.586   7.279   6.851
37919SOL     OW15653   9.251  14.639   5.507
37919SOL    HW115654   9.205  14.632   5.590
37919SOL    HW215655   9.341  14.658   5.530
37920SOL     OW15656  13.984   0.593   7.348
37920SOL    HW115657  14.004   0.569   7.438
37920SOL    HW215658  13.973   0.509   7.303
37921SOL     OW15659   0.978  11.451  13.255
37921SOL    HW115660   0.984  11.468  13.350
37921SOL    HW215661   0.937  11.530  13.220
37922SOL     OW15662   6.046  13.950   9.744
37922SOL    HW115663   5.981  13.948   9.674
37922SOL    HW215664   6.123  13.907   9.706
37923SOL     OW15665  13.927   2.279   0.104
37923SOL    HW115666  13.967   2.356   0.063
37923SOL    HW215667  13.945   2.208   0.043
37924SOL     OW15668   5.095   5.192   5.827
37924SOL    HW115669   5.160   5.183   5.897
37924SOL    HW215670   5.141   5.167   5.747
37925SOL     OW15671   2.884  11.400   7.756
37925SOL    HW115672   2.880  11.360   7.842
37925SOL    HW215673   2.952  11.467   7.763
37926SOL     OW15674   6.324   0.031   9.019
37926SOL    HW115675   6.317   0.028   8.924
37926SOL    HW215676   6.312   0.123   9.042
37927SOL     OW15677   2.344  10.517   2.319
37927SOL    HW115678   2.308  10.428   2.324
37927SOL    HW215679   2.438  10.505   2.319
37928SOL     OW15680  11.103  12.705   4.017
37928SOL    HW115681  11.198  12.700   4.022
37928SOL    HW215682  11.077  12.625   3.971
37929SOL     OW15683   4.930   1.079   3.205
37929SOL    HW115684   4.954   1.003   3.259
37929SOL    HW215685   4.836   1.070   3.192
37930SOL     OW15686   9.362  14.044   7.945
37930SOL    HW115687   9.286  14.060   7.889
37930SOL    HW215688   9.337  13.969   8.000
37931SOL     OW15689   3.527  10.982   2.012
37931SOL    HW115690   3.568  10.995   2.098
37931SOL    HW215691   3.434  10.995   2.028
37932SOL     OW15692  14.768  14.676  10.181
37932SOL    HW115693  14.834  14.725  10.133
37932SOL    HW215694  14.775  14.709  10.271
37933SOL     OW15695   8.383  13.204   7.303
37933SOL    HW115696   8.312  13.165   7.252
37933SOL    HW215697   8.463  13.179   7.256
37934SOL     OW15698   6.191   8.293   4.224
37934SOL    HW115699   6.211   8.231   4.294
37934SOL    HW215700   6.276   8.318   4.189
37935SOL     OW15701   7.100   6.244   7.396
37935SOL    HW115702   7.013   6.274   7.420
37935SOL    HW215703   7.100   6.244   7.300
37936SOL     OW15704   4.817  11.261   9.976
37936SOL    HW115705   4.730  11.227   9.954
37936SOL    HW215706   4.849  11.300   9.895
37937SOL     OW15707  12.448   8.096   7.866
37937SOL    HW115708  12.476   8.188   7.860
37937SOL    HW215709  12.377   8.097   7.931
37938SOL     OW15710  12.497  10.789   0.120
37938SOL    HW115711  12.440  10.713   0.129
37938SOL    HW215712  12.554  10.785   0.197
37939SOL     OW15713  13.643  10.284   1.259
37939SOL    HW115714  13.683  10.365   1.227
37939SOL    HW215715  13.579  10.260   1.191
37940SOL     OW15716   8.788   9.620   5.076
37940SOL    HW115717   8.748   9.661   4.999
37940SOL    HW215718   8.882   9.634   5.064
37941SOL     OW15719   5.777  12.875   0.848
37941SOL    HW115720   5.749  12.922   0.927
37941SOL    HW215721   5.754  12.784   0.865
37942SOL     OW15722  13.632   4.282   2.342
37942SOL    HW115723  13.656   4.357   2.396
37942SOL    HW215724  13.620   4.211   2.405
37943SOL     OW15725   3.988   1.990  14.728
37943SOL    HW115726   3.918   2.037  14.683
37943SOL    HW215727   3.948   1.906  14.752
37944SOL     OW15728  11.025  12.098   4.239
37944SOL    HW115729  11.044  12.095   4.145
37944SOL    HW215730  11.039  12.190   4.263
37945SOL     OW15731   7.099   0.360  14.721
37945SOL    HW115732   7.014   0.331  14.688
37945SOL    HW215733   7.097   0.455  14.714
37946SOL     OW15734  11.473   8.056   6.933
37946SOL    HW115735  11.399   8.074   6.874
37946SOL    HW215736  11.516   7.980   6.894
37947SOL     OW15737   9.573  13.792  10.497
37947SOL    HW115738   9.623  13.767  10.419
37947SOL    HW215739   9.587  13.719  10.558
37948SOL     OW15740   6.329   0.492  13.885
37948SOL    HW115741   6.318   0.571  13.939
37948SOL    HW215742   6.281   0.511  13.805
37949SOL     OW15743  12.992   7.151  12.089
37949SOL    HW115744  12.936   7.228  12.075
37949SOL    HW215745  12.935   7.076  12.070
37950SOL     OW15746  11.955  10.013   9.041
37950SOL    HW115747  11.862   9.999   9.023
37950SOL    HW215748  11.957  10.052   9.128
37951SOL     OW15749  13.685   1.191  11.091
37951SOL    HW115750  13.724   1.182  11.177
37951SOL    HW215751  13.694   1.105  11.051
37952SOL     OW15752   5.598   6.797   1.719
37952SOL    HW115753   5.561   6.857   1.784
37952SOL    HW215754   5.522   6.757   1.676
37953SOL     OW15755   9.702   3.366   5.526
37953SOL    HW115756   9.683   3.455   5.556
37953SOL    HW215757   9.784   3.343   5.570
37954SOL     OW15758   5.354  11.748  13.602
37954SOL    HW115759   5.322  11.805  13.671
37954SOL    HW215760   5.395  11.675  13.649
37955SOL     OW15761   1.612  10.904   2.301
37955SOL    HW115762   1.654  10.981   2.340
37955SOL    HW215763   1.648  10.900   2.212
37956SOL     OW15764   8.345   8.441   6.726
37956SOL    HW115765   8.292   8.463   6.650
37956SOL    HW215766   8.366   8.348   6.715
37957SOL     OW15767   0.780  13.818  11.979
37957SOL    HW115768   0.848  13.859  11.926
37957SOL    HW215769   0.699  13.832  11.930
37958SOL     OW15770  13.209   8.245   6.243
37958SOL    HW115771  13.116   8.269   6.239
37958SOL    HW215772  13.245   8.274   6.159
37959SOL     OW15773  10.701   9.118   1.706
37959SOL    HW115774  10.725   9.029   1.733
37959SOL    HW215775  10.691   9.112   1.611
37960SOL     OW15776  10.320  10.014  14.053
37960SOL    HW115777  10.280  10.101  14.061
37960SOL    HW215778  10.385  10.011  14.123
37961SOL     OW15779   4.583   0.376   0.431
37961SOL    HW115780   4.571   0.429   0.351
37961SOL    HW215781   4.669   0.402   0.463
37962SOL     OW15782   4.480   7.656  13.543
37962SOL    HW115783   4.538   7.661  13.619
37962SOL    HW215784   4.436   7.740  13.541
37963SOL     OW15785  12.490  10.308   0.876
37963SOL    HW115786  12.573  10.260   0.870
37963SOL    HW215787  12.505  10.372   0.945
37964SOL     OW15788   1.432   5.884  11.114
37964SOL    HW115789   1.522   5.889  11.148
37964SOL    HW215790   1.394   5.970  11.133
37965SOL     OW15791  11.757  10.225   7.780
37965SOL    HW115792  11.670  10.187   7.792
37965SOL    HW215793  11.753  10.267   7.694
37966SOL     OW15794  14.220   4.802  12.570
37966SOL    HW115795  14.156   4.748  12.525
37966SOL    HW215796  14.305   4.762  12.549
37967SOL     OW15797   0.012   5.350  13.914
37967SOL    HW115798   0.099   5.391  13.914
37967SOL    HW215799  14.858   5.349  14.006
37968SOL     OW15800   4.304   9.006   2.132
37968SOL    HW115801   4.310   9.097   2.102
37968SOL    HW215802   4.391   8.970   2.116
37969SOL     OW15803   4.370   5.156  12.379
37969SOL    HW115804   4.294   5.170  12.436
37969SOL    HW215805   4.333   5.140  12.292
37970SOL     OW15806  14.281   9.080   4.980
37970SOL    HW115807  14.366   9.074   4.937
37970SOL    HW215808  14.227   9.130   4.918
37971SOL     OW15809   6.047  13.174  13.423
37971SOL    HW115810   6.142  13.157  13.424
37971SOL    HW215811   6.033  13.225  13.343
37972SOL     OW15812   1.173   7.048  11.037
37972SOL    HW115813   1.234   7.082  10.972
37972SOL    HW215814   1.175   6.953  11.025
37973SOL     OW15815   2.498   6.441   1.731
37973SOL    HW115816   2.419   6.478   1.694
37973SOL    HW215817   2.470   6.359   1.771
37974SOL     OW15818  10.166  11.224   9.992
37974SOL    HW115819  10.094  11.256   9.938
37974SOL    HW215820  10.238  11.208   9.930
37975SOL     OW15821  14.507  12.985  11.861
37975SOL    HW115822  14.416  13.005  11.881
37975SOL    HW215823  14.527  12.907  11.913
37976SOL     OW15824  10.608   0.652  12.090
37976SOL    HW115825  10.639   0.620  12.005
37976SOL    HW215826  10.605   0.747  12.080
37977SOL     OW15827  12.761   2.473   5.780
37977SOL    HW115828  12.769   2.568   5.767
37977SOL    HW215829  12.788   2.459   5.871
37978SOL     OW15830   1.539   1.330  14.862
37978SOL    HW115831   1.508   1.418   0.009
37978SOL    HW215832   1.616   1.343  14.805
37979SOL     OW15833  13.678  12.047   3.602
37979SOL    HW115834  13.646  12.121   3.653
37979SOL    HW215835  13.754  12.016   3.650
37980SOL     OW15836   0.243   8.968   6.808
37980SOL    HW115837   0.148   8.969   6.796
37980SOL    HW215838   0.269   8.880   6.782
37981SOL     OW15839  11.869   7.260   3.241
37981SOL    HW115840  11.809   7.334   3.245
37981SOL    HW215841  11.948   7.290   3.287
37982SOL     OW15842   7.591   2.673   0.389
37982SOL    HW115843   7.564   2.584   0.408
37982SOL    HW215844   7.601   2.715   0.474
37983SOL     OW15845  13.563   5.598  11.902
37983SOL    HW115846  13.502   5.527  11.882
37983SOL    HW215847  13.515   5.655  11.962
37984SOL     OW15848  14.630   2.395   9.935
37984SOL    HW115849  14.686   2.398  10.012
37984SOL    HW215850  14.683   2.431   9.864
37985SOL     OW15851  11.342   7.173  14.823
37985SOL    HW115852  11.316   7.084  14.847
37985SOL    HW215853  11.409   7.196   0.015
37986SOL     OW15854   3.151   1.280   9.442
37986SOL    HW115855   3.138   1.190   9.471
37986SOL    HW215856   3.074   1.301   9.390
37987SOL     OW15857   0.087   7.220  12.178
37987SOL    HW115858   0.174   7.257  12.193
37987SOL    HW215859   0.078   7.219  12.083
37988SOL     OW15860   9.028  11.284   2.151
37988SOL    HW115861   8.939  11.262   2.179
37988SOL    HW215862   9.046  11.221   2.081
37989SOL     OW15863   0.918  12.465   4.605
37989SOL    HW115864   0.882  12.488   4.519
37989SOL    HW215865   0.910  12.369   4.609
37990SOL     OW15866   7.806   5.401   8.757
37990SOL    HW115867   7.894   5.362   8.755
37990SOL    HW215868   7.772   5.378   8.844
37991SOL     OW15869  11.207   9.953   6.188
37991SOL    HW115870  11.222  10.040   6.151
37991SOL    HW215871  11.114   9.935   6.172
37992SOL     OW15872   1.795   0.455   5.346
37992SOL    HW115873   1.773   0.548   5.334
37992SOL    HW215874   1.875   0.455   5.398
37993SOL     OW15875  13.433  12.765   2.767
37993SOL    HW115876  13.472  12.689   2.723
37993SOL    HW215877  13.506  12.806   2.812
37994SOL     OW15878  13.186   6.807   3.017
37994SOL    HW115879  13.225   6.824   3.103
37994SOL    HW215880  13.229   6.727   2.987
37995SOL     OW15881   2.529   1.596   4.955
37995SOL    HW115882   2.605   1.576   5.009
37995SOL    HW215883   2.557   1.575   4.866
37996SOL     OW15884   1.081   6.344   8.800
37996SOL    HW115885   1.043   6.373   8.717
37996SOL    HW215886   1.173   6.367   8.794
37997SOL     OW15887   4.753   8.960   5.240
37997SOL    HW115888   4.736   9.024   5.310
37997SOL    HW215889   4.689   8.982   5.172
37998SOL     OW15890   4.078   5.361   5.007
37998SOL    HW115891   4.017   5.434   4.997
37998SOL    HW215892   4.087   5.350   5.102
37999SOL     OW15893   1.327   8.236  10.075
37999SOL    HW115894   1.267   8.240  10.150
37999SOL    HW215895   1.330   8.326  10.042
38000SOL     OW15896   4.282   1.841   7.075
38000SOL    HW115897   4.344   1.891   7.022
38000SOL    HW215898   4.196   1.867   7.043
38001SOL     OW15899   1.396  10.886   6.185
38001SOL    HW115900   1.470  10.933   6.149
38001SOL    HW215901   1.388  10.917   6.275
38002SOL     OW15902  14.810  10.515   0.807
38002SOL    HW115903  14.854  10.462   0.873
38002SOL    HW215904  14.718  10.494   0.817
38003SOL     OW15905  12.954   8.777   4.697
38003SOL    HW115906  12.949   8.701   4.756
38003SOL    HW215907  13.046   8.783   4.673
38004SOL     OW15908   0.688   8.668   4.495
38004SOL    HW115909   0.768   8.678   4.443
38004SOL    HW215910   0.717   8.624   4.575
38005SOL     OW15911   2.169   8.201   9.504
38005SOL    HW115912   2.133   8.155   9.581
38005SOL    HW215913   2.120   8.283   9.501
38006SOL     OW15914   1.760   4.813   7.441
38006SOL    HW115915   1.669   4.843   7.435
38006SOL    HW215916   1.755   4.729   7.487
38007SOL     OW15917   4.932   3.265  12.912
38007SOL    HW115918   4.894   3.336  12.860
38007SOL    HW215919   5.004   3.306  12.960
38008SOL     OW15920  13.160  10.897  13.722
38008SOL    HW115921  13.228  10.835  13.748
38008SOL    HW215922  13.179  10.976  13.773
38009SOL     OW15923  13.226   4.420  12.305
38009SOL    HW115924  13.217   4.470  12.386
38009SOL    HW215925  13.200   4.331  12.329
38010SOL     OW15926  10.704   0.442   6.305
38010SOL    HW115927  10.662   0.403   6.229
38010SOL    HW215928  10.685   0.382   6.377
38011SOL     OW15929   5.471   1.886   1.016
38011SOL    HW115930   5.376   1.900   1.024
38011SOL    HW215931   5.479   1.795   0.988
38012SOL     OW15932   1.913   2.297   0.379
38012SOL    HW115933   2.003   2.264   0.378
38012SOL    HW215934   1.858   2.220   0.364
38013SOL     OW15935   5.598   2.451   3.921
38013SOL    HW115936   5.513   2.456   3.965
38013SOL    HW215937   5.576   2.450   3.828
38014SOL     OW15938  13.281   7.652  12.240
38014SOL    HW115939  13.222   7.591  12.195
38014SOL    HW215940  13.360   7.653  12.186
38015SOL     OW15941  10.156   4.800   0.578
38015SOL    HW115942  10.191   4.812   0.666
38015SOL    HW215943  10.202   4.866   0.525
38016SOL     OW15944  10.340   6.596   1.931
38016SOL    HW115945  10.340   6.545   2.012
38016SOL    HW215946  10.251   6.588   1.897
38017SOL     OW15947   4.764   5.885   6.125
38017SOL    HW115948   4.742   5.839   6.205
38017SOL    HW215949   4.781   5.975   6.152
38018SOL     OW15950   2.963  14.018   7.011
38018SOL    HW115951   3.030  13.986   6.951
38018SOL    HW215952   2.954  13.949   7.076
38019SOL     OW15953  13.608   0.492  11.569
38019SOL    HW115954  13.655   0.467  11.489
38019SOL    HW215955  13.519   0.511  11.539
38020SOL     OW15956   5.976   6.207   2.972
38020SOL    HW115957   5.950   6.249   2.890
38020SOL    HW215958   6.042   6.265   3.010
38021SOL     OW15959   6.557   7.959   6.661
38021SOL    HW115960   6.478   7.982   6.613
38021SOL    HW215961   6.588   7.879   6.619
38022SOL     OW15962   3.980   1.290  12.481
38022SOL    HW115963   3.949   1.261  12.395
38022SOL    HW215964   4.040   1.362  12.462
38023SOL     OW15965   6.254  11.200   5.132
38023SOL    HW115966   6.329  11.213   5.190
38023SOL    HW215967   6.277  11.125   5.078
38024SOL     OW15968   3.506   2.741   2.442
38024SOL    HW115969   3.469   2.763   2.528
38024SOL    HW215970   3.503   2.645   2.438
38025SOL     OW15971   6.509   5.876  14.319
38025SOL    HW115972   6.497   5.894  14.226
38025SOL    HW215973   6.423   5.848  14.350
38026SOL     OW15974   1.231   5.125  13.377
38026SOL    HW115975   1.290   5.182  13.328
38026SOL    HW215976   1.279   5.103  13.457
38027SOL     OW15977   5.142  13.092  12.596
38027SOL    HW115978   5.209  13.027  12.575
38027SOL    HW215979   5.122  13.133  12.512
38028SOL     OW15980   4.378  13.563  13.238
38028SOL    HW115981   4.429  13.643  13.228
38028SOL    HW215982   4.363  13.532  13.149
38029SOL     OW15983   9.516   6.164   9.870
38029SOL    HW115984   9.533   6.071   9.887
38029SOL    HW215985   9.567   6.209   9.937
38030SOL     OW15986  13.341  10.817   7.364
38030SOL    HW115987  13.351  10.844   7.273
38030SOL    HW215988  13.358  10.723   7.363
38031SOL     OW15989   3.597   1.965   2.508
38031SOL    HW115990   3.560   2.044   2.547
38031SOL    HW215991   3.591   1.899   2.578
38032SOL     OW15992  14.590   1.985   7.002
38032SOL    HW115993  14.557   1.905   7.044
38032SOL    HW215994  14.616   2.041   7.075
38033SOL     OW15995   4.446   9.864   5.982
38033SOL    HW115996   4.482   9.951   5.996
38033SOL    HW215997   4.351   9.876   5.984
38034SOL     OW15998   3.016   4.858   7.386
38034SOL    HW115999   2.939   4.836   7.334
38034SOL    HW216000   2.990   4.844   7.477
38035SOL     OW16001   7.895  13.183   9.476
38035SOL    HW116002   7.906  13.091   9.501
38035SOL    HW216003   7.800  13.194   9.470
38036SOL     OW16004  10.801  13.660   1.046
38036SOL    HW116005  10.772  13.610   1.122
38036SOL    HW216006  10.807  13.596   0.975
38037SOL     OW16007   8.036   8.560   3.102
38037SOL    HW116008   7.970   8.527   3.041
38037SOL    HW216009   8.120   8.538   3.060
38038SOL     OW16010   0.008  10.260  12.423
38038SOL    HW116011  14.867  10.336  12.367
38038SOL    HW216012   0.075  10.288  12.486
38039SOL     OW16013   7.039   1.001  13.641
38039SOL    HW116014   7.074   1.083  13.609
38039SOL    HW216015   7.113   0.940  13.641
38040SOL     OW16016   3.971   9.736  11.322
38040SOL    HW116017   3.886   9.695  11.311
38040SOL    HW216018   4.029   9.687  11.264
38041SOL     OW16019   9.781   1.252   4.625
38041SOL    HW116020   9.828   1.297   4.554
38041SOL    HW216021   9.729   1.321   4.665
38042SOL     OW16022  10.038  10.617   4.377
38042SOL    HW116023  10.095  10.587   4.448
38042SOL    HW216024   9.974  10.674   4.420
38043SOL     OW16025  13.151   9.623   3.535
38043SOL    HW116026  13.135   9.528   3.536
38043SOL    HW216027  13.209   9.636   3.460
38044SOL     OW16028   0.868   7.001   5.025
38044SOL    HW116029   0.796   7.029   4.969
38044SOL    HW216030   0.872   6.906   5.015
38045SOL     OW16031   3.844  13.563  12.815
38045SOL    HW116032   3.808  13.644  12.777
38045SOL    HW216033   3.768  13.508  12.831
38046SOL     OW16034   2.252   6.266   4.702
38046SOL    HW116035   2.214   6.353   4.715
38046SOL    HW216036   2.226   6.241   4.614
38047SOL     OW16037  14.728  11.496  13.841
38047SOL    HW116038  14.733  11.579  13.794
38047SOL    HW216039  14.685  11.437  13.779
38048SOL     OW16040   2.107   8.281  11.578
38048SOL    HW116041   2.030   8.285  11.522
38048SOL    HW216042   2.083   8.220  11.648
38049SOL     OW16043   6.786  11.615   9.876
38049SOL    HW116044   6.843  11.690   9.858
38049SOL    HW216045   6.845  11.545   9.902
38050SOL     OW16046  11.558   8.823   6.502
38050SOL    HW116047  11.524   8.912   6.501
38050SOL    HW216048  11.650   8.833   6.528
38051SOL     OW16049   8.791   2.506  10.001
38051SOL    HW116050   8.820   2.439  10.063
38051SOL    HW216051   8.763   2.580  10.055
38052SOL     OW16052  10.074   0.790   4.482
38052SOL    HW116053  10.109   0.721   4.425
38052SOL    HW216054  10.147   0.815   4.537
38053SOL     OW16055  10.772   0.888   4.038
38053SOL    HW116056  10.731   0.857   4.119
38053SOL    HW216057  10.756   0.983   4.039
38054SOL     OW16058   5.594   5.022  12.468
38054SOL    HW116059   5.610   5.115  12.456
38054SOL    HW216060   5.561   5.014  12.558
38055SOL     OW16061   3.187   4.269  12.915
38055SOL    HW116062   3.185   4.282  12.820
38055SOL    HW216063   3.167   4.176  12.927
38056SOL     OW16064  10.141  13.933   8.564
38056SOL    HW116065  10.207  13.905   8.628
38056SOL    HW216066  10.067  13.963   8.618
38057SOL     OW16067  11.543   1.011  11.132
38057SOL    HW116068  11.462   0.969  11.159
38057SOL    HW216069  11.549   0.995  11.038
38058SOL     OW16070   9.174   6.738  13.816
38058SOL    HW116071   9.155   6.832  13.817
38058SOL    HW216072   9.102   6.698  13.864
38059SOL     OW16073  11.591   0.967   8.147
38059SOL    HW116074  11.520   1.005   8.198
38059SOL    HW216075  11.654   0.936   8.212
38060SOL     OW16076   7.558   9.471   3.621
38060SOL    HW116077   7.627   9.487   3.557
38060SOL    HW216078   7.604   9.440   3.699
38061SOL     OW16079   0.889  10.941   7.653
38061SOL    HW116080   0.907  10.960   7.745
38061SOL    HW216081   0.908  11.022   7.607
38062SOL     OW16082   1.451   0.203   6.940
38062SOL    HW116083   1.410   0.121   6.912
38062SOL    HW216084   1.529   0.211   6.884
38063SOL     OW16085   7.740   5.303   9.717
38063SOL    HW116086   7.669   5.346   9.671
38063SOL    HW216087   7.747   5.216   9.676
38064SOL     OW16088  14.482   4.292  10.969
38064SOL    HW116089  14.427   4.247  10.905
38064SOL    HW216090  14.499   4.378  10.931
38065SOL     OW16091   3.559   4.453   6.415
38065SOL    HW116092   3.547   4.530   6.471
38065SOL    HW216093   3.654   4.444   6.407
38066SOL     OW16094  14.577  11.778   5.574
38066SOL    HW116095  14.589  11.851   5.635
38066SOL    HW216096  14.632  11.708   5.609
38067SOL     OW16097   3.940  12.085  11.257
38067SOL    HW116098   3.995  12.150  11.302
38067SOL    HW216099   3.895  12.135  11.189
38068SOL     OW16100   6.855   4.825  10.150
38068SOL    HW116101   6.805   4.840  10.231
38068SOL    HW216102   6.853   4.730  10.137
38069SOL     OW16103  10.955   7.740   7.034
38069SOL    HW116104  10.983   7.651   7.013
38069SOL    HW216105  10.985   7.753   7.124
38070SOL     OW16106   5.005  10.909   5.664
38070SOL    HW116107   4.983  10.881   5.575
38070SOL    HW216108   4.968  10.997   5.672
38071SOL     OW16109   4.125  13.800   5.817
38071SOL    HW116110   4.054  13.843   5.865
38071SOL    HW216111   4.110  13.826   5.726
38072SOL     OW16112   8.633  10.720   9.813
38072SOL    HW116113   8.553  10.675   9.787
38072SOL    HW216114   8.655  10.684   9.899
38073SOL     OW16115   3.207   6.699   6.766
38073SOL    HW116116   3.242   6.632   6.826
38073SOL    HW216117   3.234   6.669   6.679
38074SOL     OW16118   6.706   9.811  11.308
38074SOL    HW116119   6.753   9.852  11.236
38074SOL    HW216120   6.767   9.744  11.340
38075SOL     OW16121  14.642   1.204   7.918
38075SOL    HW116122  14.624   1.261   7.993
38075SOL    HW216123  14.738   1.201   7.912
38076SOL     OW16124  13.527  10.979   2.463
38076SOL    HW116125  13.588  10.978   2.536
38076SOL    HW216126  13.457  11.039   2.491
38077SOL     OW16127   5.559  13.599   2.772
38077SOL    HW116128   5.475  13.610   2.817
38077SOL    HW216129   5.580  13.686   2.738
38078SOL     OW16130   4.513   9.779  12.224
38078SOL    HW116131   4.552   9.791  12.137
38078SOL    HW216132   4.462   9.698  12.216
38079SOL     OW16133   0.667  11.232   0.198
38079SOL    HW116134   0.620  11.149   0.196
38079SOL    HW216135   0.601  11.298   0.178
38080SOL     OW16136   8.519  12.132   6.217
38080SOL    HW116137   8.588  12.196   6.196
38080SOL    HW216138   8.442  12.186   6.234
38081SOL     OW16139  14.074   2.626   4.938
38081SOL    HW116140  14.087   2.719   4.954
38081SOL    HW216141  13.980   2.618   4.922
38082SOL     OW16142   6.756   3.220   8.881
38082SOL    HW116143   6.763   3.148   8.818
38082SOL    HW216144   6.778   3.180   8.965
38083SOL     OW16145   6.486  14.211   2.154
38083SOL    HW116146   6.471  14.119   2.177
38083SOL    HW216147   6.575  14.228   2.183
38084SOL     OW16148  11.631   4.736   1.399
38084SOL    HW116149  11.620   4.762   1.307
38084SOL    HW216150  11.669   4.648   1.394
38085SOL     OW16151   2.888  11.558   0.636
38085SOL    HW116152   2.955  11.586   0.699
38085SOL    HW216153   2.806  11.583   0.677
38086SOL     OW16154   7.524   3.528  13.379
38086SOL    HW116155   7.576   3.607  13.365
38086SOL    HW216156   7.435   3.553  13.353
38087SOL     OW16157   9.637   5.344   6.711
38087SOL    HW116158   9.542   5.342   6.710
38087SOL    HW216159   9.661   5.421   6.659
38088SOL     OW16160  10.901   2.373   2.801
38088SOL    HW116161  10.859   2.336   2.723
38088SOL    HW216162  10.856   2.330   2.874
38089SOL     OW16163  14.474   7.434   4.182
38089SOL    HW116164  14.535   7.368   4.214
38089SOL    HW216165  14.486   7.435   4.087
38090SOL     OW16166   9.979  12.438   6.856
38090SOL    HW116167   9.995  12.344   6.857
38090SOL    HW216168   9.996  12.467   6.945
38091SOL     OW16169  14.642  14.515   7.878
38091SOL    HW116170  14.643  14.455   7.953
38091SOL    HW216171  14.700  14.475   7.814
38092SOL     OW16172  10.622  13.526  13.157
38092SOL    HW116173  10.545  13.503  13.210
38092SOL    HW216174  10.649  13.612  13.190
38093SOL     OW16175   7.871   6.074   8.202
38093SOL    HW116176   7.822   6.153   8.225
38093SOL    HW216177   7.865   6.070   8.106
38094SOL     OW16178   5.508   7.873   7.084
38094SOL    HW116179   5.544   7.897   7.169
38094SOL    HW216180   5.414   7.881   7.095
38095SOL     OW16181   6.170   3.198   9.516
38095SOL    HW116182   6.187   3.244   9.598
38095SOL    HW216183   6.195   3.108   9.533
38096SOL     OW16184  12.921   6.532   4.887
38096SOL    HW116185  12.964   6.610   4.853
38096SOL    HW216186  12.853   6.565   4.947
38097SOL     OW16187  12.681   5.790   5.681
38097SOL    HW116188  12.620   5.834   5.741
38097SOL    HW216189  12.652   5.699   5.680
38098SOL     OW16190   0.125  12.826   6.227
38098SOL    HW116191   0.052  12.888   6.226
38098SOL    HW216192   0.202  12.880   6.208
38099SOL     OW16193  12.419   0.261   8.642
38099SOL    HW116194  12.368   0.341   8.649
38099SOL    HW216195  12.505   0.283   8.679
38100SOL     OW16196   8.640  11.869  12.395
38100SOL    HW116197   8.546  11.874  12.378
38100SOL    HW216198   8.677  11.939  12.342
38101SOL     OW16199   3.337   9.398   7.580
38101SOL    HW116200   3.338   9.318   7.527
38101SOL    HW216201   3.285   9.375   7.657
38102SOL     OW16202  13.766  14.272   3.402
38102SOL    HW116203  13.714  14.194   3.382
38102SOL    HW216204  13.716  14.317   3.470
38103SOL     OW16205   4.662   3.845   0.495
38103SOL    HW116206   4.635   3.936   0.484
38103SOL    HW216207   4.716   3.845   0.574
38104SOL     OW16208   2.931  13.614   7.419
38104SOL    HW116209   2.995  13.660   7.472
38104SOL    HW216210   2.904  13.678   7.352
38105SOL     OW16211   9.841   5.845   0.621
38105SOL    HW116212   9.917   5.848   0.679
38105SOL    HW216213   9.869   5.894   0.543
38106SOL     OW16214   9.684   4.655   9.506
38106SOL    HW116215   9.723   4.615   9.584
38106SOL    HW216216   9.652   4.581   9.455
38107SOL     OW16217  13.735   1.272   7.522
38107SOL    HW116218  13.692   1.247   7.604
38107SOL    HW216219  13.779   1.192   7.492
38108SOL     OW16220   0.235   2.796   7.226
38108SOL    HW116221   0.298   2.729   7.248
38108SOL    HW216222   0.155   2.771   7.273
38109SOL     OW16223   7.179  11.984  11.132
38109SOL    HW116224   7.224  12.009  11.051
38109SOL    HW216225   7.148  11.895  11.115
38110SOL     OW16226  11.638  13.268   7.997
38110SOL    HW116227  11.628  13.253   7.903
38110SOL    HW216228  11.629  13.363   8.007
38111SOL     OW16229  10.492   9.421   7.586
38111SOL    HW116230  10.455   9.509   7.582
38111SOL    HW216231  10.447   9.379   7.660
38112SOL     OW16232   0.658   6.606   5.755
38112SOL    HW116233   0.719   6.598   5.828
38112SOL    HW216234   0.712   6.590   5.677
38113SOL     OW16235  10.143   4.122   4.462
38113SOL    HW116236  10.187   4.203   4.488
38113SOL    HW216237  10.050   4.138   4.479
38114SOL     OW16238  12.258   9.835   7.100
38114SOL    HW116239  12.287   9.745   7.117
38114SOL    HW216240  12.281   9.850   7.008
38115SOL     OW16241   0.881   9.039   9.598
38115SOL    HW116242   0.976   9.031   9.603
38115SOL    HW216243   0.866   9.108   9.534
38116SOL     OW16244   3.025  13.228  12.648
38116SOL    HW116245   3.048  13.175  12.572
38116SOL    HW216246   2.940  13.195  12.676
38117SOL     OW16247   8.717   8.001   8.804
38117SOL    HW116248   8.622   8.004   8.815
38117SOL    HW216249   8.738   7.908   8.795
38118SOL     OW16250  10.298   3.462   8.465
38118SOL    HW116251  10.217   3.412   8.456
38118SOL    HW216252  10.282   3.519   8.541
38119SOL     OW16253   9.683  12.307   8.762
38119SOL    HW116254   9.770  12.326   8.797
38119SOL    HW216255   9.681  12.351   8.677
38120SOL     OW16256   3.015   4.899   8.767
38120SOL    HW116257   3.053   4.885   8.853
38120SOL    HW216258   3.062   4.839   8.709
38121SOL     OW16259   2.605   3.722  11.190
38121SOL    HW116260   2.581   3.639  11.232
38121SOL    HW216261   2.524   3.754  11.150
38122SOL     OW16262   0.947   9.518   9.082
38122SOL    HW116263   0.859   9.526   9.044
38122SOL    HW216264   1.003   9.570   9.025
38123SOL     OW16265  12.878   4.741   2.440
38123SOL    HW116266  12.907   4.832   2.434
38123SOL    HW216267  12.876   4.723   2.534
38124SOL     OW16268   9.773   3.665   9.635
38124SOL    HW116269   9.814   3.689   9.552
38124SOL    HW216270   9.803   3.733   9.697
38125SOL     OW16271   5.132  10.421  13.103
38125SOL    HW116272   5.173  10.335  13.116
38125SOL    HW216273   5.040  10.401  13.085
38126SOL     OW16274   5.704   9.032  10.433
38126SOL    HW116275   5.701   9.015  10.527
38126SOL    HW216276   5.718   8.946  10.394
38127SOL     OW16277  14.237   8.465   2.868
38127SOL    HW116278  14.280   8.544   2.899
38127SOL    HW216279  14.303   8.420   2.815
38128SOL     OW16280   3.051   7.389   8.957
38128SOL    HW116281   3.022   7.302   8.929
38128SOL    HW216282   3.033   7.391   9.051
38129SOL     OW16283  13.892   8.277   9.481
38129SOL    HW116284  13.884   8.186   9.510
38129SOL    HW216285  13.923   8.323   9.559
38130SOL     OW16286  11.849   0.460   8.298
38130SOL    HW116287  11.805   0.487   8.378
38130SOL    HW216288  11.778   0.432   8.240
38131SOL     OW16289   5.482   1.857   3.563
38131SOL    HW116290   5.390   1.836   3.581
38131SOL    HW216291   5.508   1.916   3.634
38132SOL     OW16292   9.085   9.433  12.099
38132SOL    HW116293   9.109   9.416  12.191
38132SOL    HW216294   8.992   9.452  12.102
38133SOL     OW16295   1.089   1.678   8.048
38133SOL    HW116296   1.090   1.631   8.132
38133SOL    HW216297   1.154   1.633   7.995
38134SOL     OW16298   3.470   7.437  10.453
38134SOL    HW116299   3.533   7.497  10.413
38134SOL    HW216300   3.461   7.468  10.543
38135SOL     OW16301   8.091   9.318   8.019
38135SOL    HW116302   8.103   9.307   7.925
38135SOL    HW216303   8.062   9.409   8.030
38136SOL     OW16304   2.304   1.165   4.883
38136SOL    HW116305   2.311   1.257   4.861
38136SOL    HW216306   2.212   1.143   4.867
38137SOL     OW16307  12.773  11.818   8.809
38137SOL    HW116308  12.823  11.875   8.868
38137SOL    HW216309  12.688  11.810   8.851
38138SOL     OW16310  13.132  11.433   0.253
38138SOL    HW116311  13.114  11.353   0.302
38138SOL    HW216312  13.074  11.430   0.178
38139SOL     OW16313   3.818  13.660   3.315
38139SOL    HW116314   3.895  13.606   3.303
38139SOL    HW216315   3.846  13.729   3.375
38140SOL     OW16316  10.682   7.533   9.053
38140SOL    HW116317  10.777   7.532   9.037
38140SOL    HW216318  10.672   7.578   9.137
38141SOL     OW16319   0.140   7.584  10.873
38141SOL    HW116320   0.128   7.565  10.780
38141SOL    HW216321   0.184   7.507  10.908
38142SOL     OW16322   4.930  12.064   0.236
38142SOL    HW116323   4.883  12.145   0.255
38142SOL    HW216324   5.020  12.091   0.222
38143SOL     OW16325   0.379   8.567  10.045
38143SOL    HW116326   0.393   8.489  10.098
38143SOL    HW216327   0.412   8.639  10.099
38144SOL     OW16328  12.826  13.305   8.089
38144SOL    HW116329  12.787  13.289   8.175
38144SOL    HW216330  12.919  13.319   8.107
38145SOL     OW16331  11.216   9.410  12.054
38145SOL    HW116332  11.123   9.417  12.037
38145SOL    HW216333  11.224   9.419  12.149
38146SOL     OW16334   9.108   8.244   7.221
38146SOL    HW116335   9.019   8.224   7.193
38146SOL    HW216336   9.145   8.297   7.151
38147SOL     OW16337  11.915  12.505   4.693
38147SOL    HW116338  12.008  12.523   4.707
38147SOL    HW216339  11.881  12.584   4.653
38148SOL     OW16340  14.399   4.792  11.049
38148SOL    HW116341  14.325   4.802  11.108
38148SOL    HW216342  14.460   4.861  11.075
38149SOL     OW16343   8.537  13.492   8.164
38149SOL    HW116344   8.453  13.534   8.182
38149SOL    HW216345   8.534  13.471   8.070
38150SOL     OW16346   4.706   0.263   9.882
38150SOL    HW116347   4.678   0.249   9.792
38150SOL    HW216348   4.784   0.209   9.892
38151SOL     OW16349   7.549  10.656   9.454
38151SOL    HW116350   7.590  10.645   9.368
38151SOL    HW216351   7.535  10.567   9.486
38152SOL     OW16352  10.716   0.696  14.508
38152SOL    HW116353  10.662   0.619  14.521
38152SOL    HW216354  10.663   0.754  14.452
38153SOL     OW16355   3.628   8.718   8.599
38153SOL    HW116356   3.598   8.703   8.688
38153SOL    HW216357   3.645   8.631   8.564
38154SOL     OW16358  10.910  13.951   6.791
38154SOL    HW116359  10.849  13.987   6.728
38154SOL    HW216360  10.865  13.958   6.875
38155SOL     OW16361   3.656   5.398  13.868
38155SOL    HW116362   3.704   5.319  13.895
38155SOL    HW216363   3.647   5.449  13.948
38156SOL     OW16364   0.489  12.437   6.583
38156SOL    HW116365   0.523  12.516   6.627
38156SOL    HW216366   0.474  12.465   6.493
38157SOL     OW16367   3.000   6.433   8.765
38157SOL    HW116368   3.077   6.453   8.711
38157SOL    HW216369   2.926   6.437   8.704
38158SOL     OW16370   7.453   8.550  14.598
38158SOL    HW116371   7.392   8.477  14.586
38158SOL    HW216372   7.457   8.592  14.512
38159SOL     OW16373  13.183  12.070   9.756
38159SOL    HW116374  13.272  12.070   9.792
38159SOL    HW216375  13.157  12.162   9.755
38160SOL     OW16376   9.973   1.758   7.026
38160SOL    HW116377  10.025   1.826   6.983
38160SOL    HW216378  10.032   1.719   7.091
38161SOL     OW16379   1.955   8.638   7.142
38161SOL    HW116380   1.907   8.702   7.194
38161SOL    HW216381   2.035   8.621   7.193
38162SOL     OW16382   1.185   7.240  12.247
38162SOL    HW116383   1.188   7.176  12.176
38162SOL    HW216384   1.135   7.313  12.211
38163SOL     OW16385   9.218   6.023  11.942
38163SOL    HW116386   9.124   6.007  11.952
38163SOL    HW216387   9.225   6.118  11.930
38164SOL     OW16388   9.391   7.303  10.511
38164SOL    HW116389   9.384   7.212  10.541
38164SOL    HW216390   9.304   7.339  10.526
38165SOL     OW16391   0.003  12.561   9.541
38165SOL    HW116392  14.796  12.602   9.576
38165SOL    HW216393   0.074  12.602   9.590
38166SOL     OW16394   8.857   6.370   4.863
38166SOL    HW116395   8.795   6.300   4.845
38166SOL    HW216396   8.802   6.449   4.871
38167SOL     OW16397  13.554  12.216   8.467
38167SOL    HW116398  13.560  12.208   8.372
38167SOL    HW216399  13.596  12.300   8.487
38168SOL     OW16400   4.444   0.035   0.293
38168SOL    HW116401   4.389   0.083   0.355
38168SOL    HW216402   4.480  14.835   0.344
38169SOL     OW16403  14.845  10.793   5.531
38169SOL    HW116404  14.779  10.853   5.565
38169SOL    HW216405  14.861  10.731   5.603
38170SOL     OW16406   9.352  14.575   7.879
38170SOL    HW116407   9.333  14.649   7.821
38170SOL    HW216408   9.423  14.528   7.835
38171SOL     OW16409   1.306   4.413  14.360
38171SOL    HW116410   1.304   4.328  14.405
38171SOL    HW216411   1.245   4.468  14.410
38172SOL     OW16412  11.289   6.584   7.022
38172SOL    HW116413  11.259   6.495   7.005
38172SOL    HW216414  11.368   6.594   6.969
38173SOL     OW16415   7.226   0.922   4.753
38173SOL    HW116416   7.256   1.011   4.771
38173SOL    HW216417   7.297   0.882   4.703
38174SOL     OW16418  12.182  11.207   0.925
38174SOL    HW116419  12.275  11.216   0.945
38174SOL    HW216420  12.167  11.113   0.922
38175SOL     OW16421   3.576   0.505   7.018
38175SOL    HW116422   3.652   0.453   7.044
38175SOL    HW216423   3.503   0.466   7.065
38176SOL     OW16424   1.869   4.881   7.776
38176SOL    HW116425   1.864   4.913   7.866
38176SOL    HW216426   1.955   4.908   7.745
38177SOL     OW16427   0.928  14.307   2.024
38177SOL    HW116428   0.975  14.245   1.968
38177SOL    HW216429   0.867  14.351   1.965
38178SOL     OW16430   7.208   1.173   9.722
38178SOL    HW116431   7.246   1.255   9.754
38178SOL    HW216432   7.159   1.197   9.644
38179SOL     OW16433   5.493   5.595  13.640
38179SOL    HW116434   5.559   5.629  13.701
38179SOL    HW216435   5.424   5.561  13.697
38180SOL     OW16436   8.544  13.205   2.864
38180SOL    HW116437   8.505  13.156   2.936
38180SOL    HW216438   8.505  13.168   2.785
38181SOL     OW16439  14.015   4.966   4.790
38181SOL    HW116440  14.015   4.890   4.849
38181SOL    HW216441  13.984   5.038   4.844
38182SOL     OW16442  10.360   9.056  10.610
38182SOL    HW116443  10.279   9.021  10.571
38182SOL    HW216444  10.425   9.048  10.541
38183SOL     OW16445   1.506  14.476   7.615
38183SOL    HW116446   1.451  14.403   7.586
38183SOL    HW216447   1.554  14.502   7.537
38184SOL     OW16448  10.884   2.024   5.485
38184SOL    HW116449  10.965   2.022   5.537
38184SOL    HW216450  10.876   1.936   5.449
38185SOL     OW16451   5.495   9.201  14.383
38185SOL    HW116452   5.482   9.202  14.288
38185SOL    HW216453   5.436   9.133  14.414
38186SOL     OW16454   0.279   3.858  12.557
38186SOL    HW116455   0.343   3.864  12.486
38186SOL    HW216456   0.251   3.948  12.571
38187SOL     OW16457   8.737   4.482  11.746
38187SOL    HW116458   8.711   4.483  11.654
38187SOL    HW216459   8.703   4.399  11.780
38188SOL     OW16460   5.997  11.189   3.658
38188SOL    HW116461   6.037  11.210   3.742
38188SOL    HW216462   6.049  11.236   3.593
38189SOL     OW16463   0.281   3.493   0.384
38189SOL    HW116464   0.326   3.559   0.332
38189SOL    HW216465   0.194   3.530   0.401
38190SOL     OW16466   3.531  12.362   0.941
38190SOL    HW116467   3.624  12.359   0.918
38190SOL    HW216468   3.490  12.410   0.870
38191SOL     OW16469  10.058  12.485   3.672
38191SOL    HW116470   9.973  12.517   3.703
38191SOL    HW216471  10.037  12.418   3.607
38192SOL     OW16472   4.199  12.489  12.576
38192SOL    HW116473   4.108  12.463  12.558
38192SOL    HW216474   4.237  12.415  12.622
38193SOL     OW16475   9.443   2.861   0.650
38193SOL    HW116476   9.394   2.939   0.674
38193SOL    HW216477   9.462   2.819   0.734
38194SOL     OW16478  14.205   9.990   4.976
38194SOL    HW116479  14.237  10.015   5.063
38194SOL    HW216480  14.139  10.056   4.956
38195SOL     OW16481   5.321   4.825  13.614
38195SOL    HW116482   5.398   4.815  13.558
38195SOL    HW216483   5.261   4.757  13.583
38196SOL     OW16484   6.011   9.491  10.957
38196SOL    HW116485   5.932   9.545  10.954
38196SOL    HW216486   6.053   9.504  10.872
38197SOL     OW16487   5.000   1.517   5.075
38197SOL    HW116488   4.929   1.465   5.038
38197SOL    HW216489   5.080   1.472   5.049
38198SOL     OW16490   8.912   4.300   7.133
38198SOL    HW116491   9.006   4.317   7.140
38198SOL    HW216492   8.900   4.216   7.176
38199SOL     OW16493   1.945  13.677   6.896
38199SOL    HW116494   1.902  13.601   6.935
38199SOL    HW216495   1.872  13.732   6.867
38200SOL     OW16496   8.970   3.287   5.337
38200SOL    HW116497   9.048   3.297   5.392
38200SOL    HW216498   8.906   3.244   5.393
38201SOL     OW16499  14.612  14.504  13.248
38201SOL    HW116500  14.586  14.411  13.246
38201SOL    HW216501  14.702  14.504  13.216
38202SOL     OW16502   1.860   3.823   9.646
38202SOL    HW116503   1.897   3.790   9.564
38202SOL    HW216504   1.862   3.748   9.706
38203SOL     OW16505  14.122   3.983   1.403
38203SOL    HW116506  14.030   4.002   1.422
38203SOL    HW216507  14.170   4.057   1.440
38204SOL     OW16508   1.566   1.674   1.081
38204SOL    HW116509   1.503   1.739   1.051
38204SOL    HW216510   1.515   1.593   1.088
38205SOL     OW16511   2.332  11.017  13.373
38205SOL    HW116512   2.348  11.108  13.348
38205SOL    HW216513   2.397  10.967  13.324
38206SOL     OW16514   5.016   1.726  12.198
38206SOL    HW116515   5.001   1.797  12.135
38206SOL    HW216516   4.969   1.754  12.277
38207SOL     OW16517   1.099  12.703  10.389
38207SOL    HW116518   1.117  12.793  10.363
38207SOL    HW216519   1.122  12.700  10.482
38208SOL     OW16520   8.417  13.465   4.970
38208SOL    HW116521   8.472  13.425   4.902
38208SOL    HW216522   8.402  13.555   4.939
38209SOL     OW16523   5.741   7.885   5.990
38209SOL    HW116524   5.762   7.954   6.052
38209SOL    HW216525   5.790   7.908   5.911
38210SOL     OW16526  13.396  14.641   8.205
38210SOL    HW116527  13.467  14.702   8.185
38210SOL    HW216528  13.385  14.591   8.124
38211SOL     OW16529   1.396   0.757  11.442
38211SOL    HW116530   1.406   0.698  11.517
38211SOL    HW216531   1.375   0.842  11.481
38212SOL     OW16532  11.674   1.017  12.667
38212SOL    HW116533  11.690   1.037  12.575
38212SOL    HW216534  11.744   1.063  12.714
38213SOL     OW16535  14.695   0.571  14.400
38213SOL    HW116536  14.654   0.502  14.348
38213SOL    HW216537  14.623   0.630  14.422
38214SOL     OW16538   0.401   5.547   3.884
38214SOL    HW116539   0.431   5.496   3.959
38214SOL    HW216540   0.354   5.621   3.923
38215SOL     OW16541   4.606  10.748  12.402
38215SOL    HW116542   4.558  10.666  12.391
38215SOL    HW216543   4.553  10.799  12.463
38216SOL     OW16544   8.220   1.108   5.806
38216SOL    HW116545   8.203   1.180   5.746
38216SOL    HW216546   8.315   1.101   5.809
38217SOL     OW16547   9.919   6.695   7.893
38217SOL    HW116548   9.973   6.745   7.833
38217SOL    HW216549   9.973   6.619   7.917
38218SOL     OW16550  10.517  14.691   9.598
38218SOL    HW116551  10.431  14.697   9.639
38218SOL    HW216552  10.568  14.762   9.637
38219SOL     OW16553   1.592   0.546   3.876
38219SOL    HW116554   1.621   0.457   3.897
38219SOL    HW216555   1.673   0.598   3.874
38220SOL     OW16556   6.087   8.095   7.728
38220SOL    HW116557   6.109   8.123   7.817
38220SOL    HW216558   6.155   8.032   7.705
38221SOL     OW16559   9.888   5.750   7.803
38221SOL    HW116560   9.866   5.835   7.764
38221SOL    HW216561   9.876   5.763   7.897
38222SOL     OW16562   1.726   7.892   9.861
38222SOL    HW116563   1.750   7.802   9.884
38222SOL    HW216564   1.796   7.945   9.898
38223SOL     OW16565   1.688  10.190   8.716
38223SOL    HW116566   1.782  10.186   8.698
38223SOL    HW216567   1.654  10.107   8.685
38224SOL     OW16568   9.722  11.975  12.755
38224SOL    HW116569   9.694  12.065  12.737
38224SOL    HW216570   9.646  11.935  12.798
38225SOL     OW16571  14.446   4.221   8.791
38225SOL    HW116572  14.518   4.262   8.743
38225SOL    HW216573  14.465   4.127   8.787
38226SOL     OW16574   2.724   6.292  13.666
38226SOL    HW116575   2.778   6.231  13.715
38226SOL    HW216576   2.746   6.378  13.702
38227SOL     OW16577   9.746  13.961  11.839
38227SOL    HW116578   9.658  13.997  11.824
38227SOL    HW216579   9.733  13.896  11.907
38228SOL     OW16580   8.568   9.172   0.762
38228SOL    HW116581   8.492   9.229   0.748
38228SOL    HW216582   8.555   9.138   0.850
38229SOL     OW16583  13.997  10.007   3.331
38229SOL    HW116584  14.041   9.969   3.407
38229SOL    HW216585  14.007   9.942   3.261
38230SOL     OW16586   7.762   9.980  12.595
38230SOL    HW116587   7.725   9.934  12.671
38230SOL    HW216588   7.793  10.064  12.630
38231SOL     OW16589   1.950  10.480   2.792
38231SOL    HW116590   2.045  10.490   2.795
38231SOL    HW216591   1.923  10.518   2.708
38232SOL     OW16592  10.002   2.558   7.990
38232SOL    HW116593  10.001   2.643   8.033
38232SOL    HW216594   9.982   2.577   7.898
38233SOL     OW16595   3.672   6.029   1.776
38233SOL    HW116596   3.706   5.952   1.822
38233SOL    HW216597   3.718   6.103   1.815
38234SOL     OW16598   7.032  10.245  11.075
38234SOL    HW116599   6.969  10.261  11.145
38234SOL    HW216600   7.118  10.256  11.117
38235SOL     OW16601   9.629   5.885   7.183
38235SOL    HW116602   9.678   5.832   7.245
38235SOL    HW216603   9.547   5.907   7.228
38236SOL     OW16604  10.797   6.889   9.990
38236SOL    HW116605  10.865   6.955   9.973
38236SOL    HW216606  10.715   6.934   9.973
38237SOL     OW16607  13.417  12.978  10.809
38237SOL    HW116608  13.450  12.919  10.741
38237SOL    HW216609  13.348  12.929  10.853
38238SOL     OW16610  10.722  10.620   9.712
38238SOL    HW116611  10.783  10.679   9.667
38238SOL    HW216612  10.711  10.659   9.799
38239SOL     OW16613   1.492   0.383  10.802
38239SOL    HW116614   1.549   0.377  10.879
38239SOL    HW216615   1.403   0.374  10.837
38240SOL     OW16616   5.997   2.388   1.597
38240SOL    HW116617   5.948   2.306   1.599
38240SOL    HW216618   5.994   2.415   1.505
38241SOL     OW16619   1.532   6.820   2.374
38241SOL    HW116620   1.473   6.745   2.363
38241SOL    HW216621   1.480   6.885   2.421
38242SOL     OW16622   0.477   3.180   8.719
38242SOL    HW116623   0.419   3.143   8.785
38242SOL    HW216624   0.420   3.237   8.667
38243SOL     OW16625   0.917   2.298  10.792
38243SOL    HW116626   0.940   2.375  10.844
38243SOL    HW216627   0.868   2.243  10.852
38244SOL     OW16628  12.892  14.648   6.279
38244SOL    HW116629  12.932  14.576   6.231
38244SOL    HW216630  12.932  14.644   6.366
38245SOL     OW16631  14.067   0.643  12.368
38245SOL    HW116632  13.993   0.654  12.308
38245SOL    HW216633  14.030   0.593  12.441
38246SOL     OW16634  11.093  13.527   5.501
38246SOL    HW116635  11.007  13.566   5.519
38246SOL    HW216636  11.154  13.583   5.548
38247SOL     OW16637   9.603   4.223   7.029
38247SOL    HW116638   9.554   4.145   7.006
38247SOL    HW216639   9.555   4.295   6.989
38248SOL     OW16640   0.049   9.887   2.655
38248SOL    HW116641   0.051   9.811   2.596
38248SOL    HW216642   0.039   9.848   2.742
38249SOL     OW16643   7.199   5.197   9.502
38249SOL    HW116644   7.119   5.231   9.542
38249SOL    HW216645   7.169   5.153   9.422
38250SOL     OW16646   1.381  10.622   1.818
38250SOL    HW116647   1.346  10.671   1.893
38250SOL    HW216648   1.475  10.621   1.831
38251SOL     OW16649   9.648   1.984   6.008
38251SOL    HW116650   9.686   1.989   5.920
38251SOL    HW216651   9.634   1.891   6.024
38252SOL     OW16652   3.351  10.182   1.433
38252SOL    HW116653   3.290  10.211   1.500
38252SOL    HW216654   3.421  10.248   1.434
38253SOL     OW16655  11.152   1.964   8.374
38253SOL    HW116656  11.081   2.025   8.354
38253SOL    HW216657  11.120   1.880   8.342
38254SOL     OW16658   3.389  11.119   1.477
38254SOL    HW116659   3.433  11.080   1.402
38254SOL    HW216660   3.366  11.044   1.533
38255SOL     OW16661  11.905  11.582   5.444
38255SOL    HW116662  11.941  11.616   5.362
38255SOL    HW216663  11.912  11.656   5.505
38256SOL     OW16664   0.766  13.904   8.284
38256SOL    HW116665   0.861  13.909   8.277
38256SOL    HW216666   0.747  13.811   8.295
38257SOL     OW16667   9.057  13.981  13.230
38257SOL    HW116668   8.999  13.997  13.156
38257SOL    HW216669   9.145  14.001  13.197
38258SOL     OW16670   5.543   1.732   6.198
38258SOL    HW116671   5.603   1.802   6.171
38258SOL    HW216672   5.582   1.696   6.277
38259SOL     OW16673   7.722  12.431   3.606
38259SOL    HW116674   7.633  12.420   3.571
38259SOL    HW216675   7.710  12.480   3.687
38260SOL     OW16676   6.492   0.146  13.327
38260SOL    HW116677   6.513   0.213  13.392
38260SOL    HW216678   6.410   0.107  13.359
38261SOL     OW16679   4.403  13.410   6.273
38261SOL    HW116680   4.373  13.427   6.184
38261SOL    HW216681   4.487  13.456   6.280
38262SOL     OW16682  13.721  10.749   8.323
38262SOL    HW116683  13.712  10.836   8.283
38262SOL    HW216684  13.634  10.728   8.355
38263SOL     OW16685  11.752  10.921   3.713
38263SOL    HW116686  11.763  10.938   3.807
38263SOL    HW216687  11.662  10.890   3.705
38264SOL     OW16688   3.992   6.251   4.940
38264SOL    HW116689   4.026   6.289   5.021
38264SOL    HW216690   3.897   6.263   4.947
38265SOL     OW16691  10.376   5.916   8.533
38265SOL    HW116692  10.336   5.943   8.451
38265SOL    HW216693  10.320   5.953   8.601
38266SOL     OW16694   0.847   7.441  12.681
38266SOL    HW116695   0.810   7.368  12.731
38266SOL    HW216696   0.825   7.519  12.733
38267SOL     OW16697  14.836   9.348   6.255
38267SOL    HW116698  14.743   9.327   6.243
38267SOL    HW216699  14.837   9.436   6.290
38268SOL     OW16700   6.463  11.871  14.092
38268SOL    HW116701   6.493  11.956  14.122
38268SOL    HW216702   6.540  11.831  14.051
38269SOL     OW16703   3.307   2.673  10.879
38269SOL    HW116704   3.339   2.657  10.789
38269SOL    HW216705   3.218   2.638  10.879
38270SOL     OW16706   3.475   2.177   5.829
38270SOL    HW116707   3.393   2.226   5.821
38270SOL    HW216708   3.463   2.101   5.771
38271SOL     OW16709   4.600  10.299   3.575
38271SOL    HW116710   4.555  10.246   3.510
38271SOL    HW216711   4.584  10.390   3.548
38272SOL     OW16712   3.049  10.438   7.560
38272SOL    HW116713   3.041  10.345   7.536
38272SOL    HW216714   3.036  10.439   7.655
38273SOL     OW16715  12.486  11.107  12.481
38273SOL    HW116716  12.426  11.057  12.536
38273SOL    HW216717  12.544  11.041  12.443
38274SOL     OW16718   5.874  11.389   2.289
38274SOL    HW116719   5.853  11.461   2.348
38274SOL    HW216720   5.968  11.396   2.274
38275SOL     OW16721   8.187   0.669  10.417
38275SOL    HW116722   8.256   0.726  10.385
38275SOL    HW216723   8.116   0.728  10.441
38276SOL     OW16724  14.612   8.505   1.047
38276SOL    HW116725  14.593   8.436   1.111
38276SOL    HW216726  14.541   8.569   1.059
38277SOL     OW16727   2.767   5.861  11.359
38277SOL    HW116728   2.720   5.838  11.439
38277SOL    HW216729   2.843   5.909  11.389
38278SOL     OW16730   0.345  10.364  12.279
38278SOL    HW116731   0.363  10.418  12.202
38278SOL    HW216732   0.313  10.426  12.345
38279SOL     OW16733   9.998   4.645   6.409
38279SOL    HW116734  10.082   4.676   6.444
38279SOL    HW216735   9.942   4.723   6.409
38280SOL     OW16736   7.339   5.078   2.525
38280SOL    HW116737   7.407   5.028   2.569
38280SOL    HW216738   7.377   5.102   2.441
38281SOL     OW16739   8.994  12.416   7.018
38281SOL    HW116740   9.025  12.339   7.065
38281SOL    HW216741   9.071  12.472   7.010
38282SOL     OW16742   7.296  14.271   7.788
38282SOL    HW116743   7.319  14.337   7.854
38282SOL    HW216744   7.238  14.211   7.834
38283SOL     OW16745   5.338  11.503  12.214
38283SOL    HW116746   5.366  11.446  12.143
38283SOL    HW216747   5.333  11.590  12.174
38284SOL     OW16748  13.934  14.142  14.046
38284SOL    HW116749  13.863  14.188  14.091
38284SOL    HW216750  13.964  14.077  14.109
38285SOL     OW16751   0.809  14.043   2.571
38285SOL    HW116752   0.835  14.132   2.548
38285SOL    HW216753   0.876  13.986   2.532
38286SOL     OW16754   2.436   9.998   3.127
38286SOL    HW116755   2.406  10.010   3.037
38286SOL    HW216756   2.461  10.086   3.156
38287SOL     OW16757   6.636   0.247   9.233
38287SOL    HW116758   6.625   0.177   9.168
38287SOL    HW216759   6.686   0.315   9.187
38288SOL     OW16760  12.132   2.166   4.317
38288SOL    HW116761  12.073   2.240   4.327
38288SOL    HW216762  12.116   2.111   4.394
38289SOL     OW16763  11.130   8.916   4.632
38289SOL    HW116764  11.139   8.847   4.698
38289SOL    HW216765  11.170   8.993   4.673
38290SOL     OW16766   5.630   4.521   6.351
38290SOL    HW116767   5.658   4.575   6.277
38290SOL    HW216768   5.661   4.569   6.428
38291SOL     OW16769   5.165   5.912   6.565
38291SOL    HW116770   5.104   5.858   6.616
38291SOL    HW216771   5.127   5.999   6.566
38292SOL     OW16772  10.888   8.100   7.406
38292SOL    HW116773  10.972   8.103   7.361
38292SOL    HW216774  10.894   8.024   7.463
38293SOL     OW16775   9.198   3.863  10.458
38293SOL    HW116776   9.235   3.900  10.538
38293SOL    HW216777   9.267   3.874  10.393
38294SOL     OW16778   0.534   7.115  13.461
38294SOL    HW116779   0.571   7.034  13.424
38294SOL    HW216780   0.449   7.124  13.419
38295SOL     OW16781   5.757   7.336  12.095
38295SOL    HW116782   5.816   7.339  12.020
38295SOL    HW216783   5.671   7.318  12.058
38296SOL     OW16784   1.507  10.562   6.128
38296SOL    HW116785   1.511  10.638   6.070
38296SOL    HW216786   1.521  10.599   6.216
38297SOL     OW16787   8.911  13.264   7.407
38297SOL    HW116788   9.003  13.290   7.405
38297SOL    HW216789   8.863  13.343   7.382
38298SOL     OW16790   7.162   8.221  11.835
38298SOL    HW116791   7.196   8.283  11.770
38298SOL    HW216792   7.069   8.241  11.841
38299SOL     OW16793  13.648   4.906  10.345
38299SOL    HW116794  13.591   4.924  10.420
38299SOL    HW216795  13.707   4.981  10.341
38300SOL     OW16796   0.241  13.902   6.662
38300SOL    HW116797   0.220  13.988   6.699
38300SOL    HW216798   0.176  13.843   6.701
38301SOL     OW16799  10.517  14.110   0.989
38301SOL    HW116800  10.606  14.094   1.018
38301SOL    HW216801  10.485  14.024   0.960
38302SOL     OW16802   5.219  11.195  11.411
38302SOL    HW116803   5.247  11.249  11.485
38302SOL    HW216804   5.295  11.194  11.352
38303SOL     OW16805  11.380  11.036  11.771
38303SOL    HW116806  11.397  11.099  11.701
38303SOL    HW216807  11.440  11.061  11.841
38304SOL     OW16808   6.296  10.526  10.349
38304SOL    HW116809   6.305  10.448  10.293
38304SOL    HW216810   6.272  10.491  10.435
38305SOL     OW16811   0.695   7.336  12.198
38305SOL    HW116812   0.771   7.366  12.148
38305SOL    HW216813   0.690   7.395  12.273
38306SOL     OW16814   2.759   4.364   9.851
38306SOL    HW116815   2.739   4.286   9.800
38306SOL    HW216816   2.675   4.409   9.860
38307SOL     OW16817  13.479  11.641  12.339
38307SOL    HW116818  13.447  11.554  12.364
38307SOL    HW216819  13.514  11.678  12.419
38308SOL     OW16820  14.695   4.512   3.033
38308SOL    HW116821  14.723   4.449   3.099
38308SOL    HW216822  14.773   4.566   3.017
38309SOL     OW16823   9.119   7.041  12.117
38309SOL    HW116824   9.050   7.044  12.050
38309SOL    HW216825   9.102   6.960  12.165
38310SOL     OW16826  14.471   4.891  10.825
38310SOL    HW116827  14.498   4.982  10.833
38310SOL    HW216828  14.453   4.863  10.915
38311SOL     OW16829   7.800   8.422   0.419
38311SOL    HW116830   7.817   8.516   0.428
38311SOL    HW216831   7.779   8.411   0.326
38312SOL     OW16832   5.684   8.046   9.478
38312SOL    HW116833   5.699   8.087   9.392
38312SOL    HW216834   5.667   7.954   9.458
38313SOL     OW16835  13.100   7.248   0.718
38313SOL    HW116836  13.037   7.193   0.673
38313SOL    HW216837  13.048   7.303   0.776
38314SOL     OW16838  13.748  13.540   0.149
38314SOL    HW116839  13.695  13.464   0.174
38314SOL    HW216840  13.690  13.615   0.162
38315SOL     OW16841   1.965   1.568   0.891
38315SOL    HW116842   1.924   1.482   0.882
38315SOL    HW216843   1.893   1.631   0.882
38316SOL     OW16844  12.995   5.325   2.065
38316SOL    HW116845  13.058   5.381   2.110
38316SOL    HW216846  13.018   5.236   2.093
38317SOL     OW16847  14.379   5.880   6.643
38317SOL    HW116848  14.347   5.878   6.553
38317SOL    HW216849  14.334   5.955   6.682
38318SOL     OW16850   1.081   5.212   3.022
38318SOL    HW116851   1.041   5.255   3.098
38318SOL    HW216852   1.083   5.280   2.954
38319SOL     OW16853   8.389   3.151   0.864
38319SOL    HW116854   8.354   3.137   0.777
38319SOL    HW216855   8.484   3.139   0.854
38320SOL     OW16856   2.931   8.823   9.338
38320SOL    HW116857   2.845   8.784   9.321
38320SOL    HW216858   2.913   8.913   9.363
38321SOL     OW16859   2.328   7.156  13.885
38321SOL    HW116860   2.423   7.151  13.878
38321SOL    HW216861   2.296   7.096  13.817
38322SOL     OW16862   4.476  12.210  12.162
38322SOL    HW116863   4.456  12.289  12.214
38322SOL    HW216864   4.446  12.231  12.074
38323SOL     OW16865   0.944   9.404   6.371
38323SOL    HW116866   0.851   9.400   6.392
38323SOL    HW216867   0.947   9.404   6.275
38324SOL     OW16868   6.383   2.267   1.820
38324SOL    HW116869   6.299   2.230   1.791
38324SOL    HW216870   6.444   2.193   1.814
38325SOL     OW16871  10.052  13.577   2.668
38325SOL    HW116872  10.116  13.645   2.689
38325SOL    HW216873  10.072  13.506   2.729
38326SOL     OW16874   3.873   2.643   1.066
38326SOL    HW116875   3.963   2.640   1.034
38326SOL    HW216876   3.863   2.732   1.100
38327SOL     OW16877  13.723   8.509   7.453
38327SOL    HW116878  13.643   8.471   7.418
38327SOL    HW216879  13.788   8.496   7.384
38328SOL     OW16880   3.037  10.622  11.895
38328SOL    HW116881   3.064  10.614  11.986
38328SOL    HW216882   3.092  10.559  11.848
38329SOL     OW16883  12.838   5.400  13.953
38329SOL    HW116884  12.903   5.448  13.902
38329SOL    HW216885  12.754   5.432  13.921
38330SOL     OW16886  11.203   1.688  14.769
38330SOL    HW116887  11.228   1.721  14.855
38330SOL    HW216888  11.126   1.633  14.786
38331SOL     OW16889  13.774   6.009  11.604
38331SOL    HW116890  13.784   5.918  11.631
38331SOL    HW216891  13.722   6.005  11.524
38332SOL     OW16892   0.775  11.588   3.891
38332SOL    HW116893   0.741  11.651   3.828
38332SOL    HW216894   0.700  11.533   3.913
38333SOL     OW16895   1.358   2.306   0.204
38333SOL    HW116896   1.318   2.231   0.161
38333SOL    HW216897   1.431   2.330   0.147
38334SOL     OW16898   7.902   4.356   9.242
38334SOL    HW116899   7.871   4.411   9.171
38334SOL    HW216900   7.989   4.328   9.214
38335SOL     OW16901   6.072   7.697  12.859
38335SOL    HW116902   6.093   7.786  12.889
38335SOL    HW216903   6.137   7.678  12.792
38336SOL     OW16904  14.648  13.284   7.497
38336SOL    HW116905  14.563  13.283   7.451
38336SOL    HW216906  14.685  13.197   7.480
38337SOL     OW16907   6.377  12.502   1.573
38337SOL    HW116908   6.297  12.516   1.523
38337SOL    HW216909   6.396  12.408   1.562
38338SOL     OW16910   1.995   3.574   4.302
38338SOL    HW116911   2.007   3.496   4.357
38338SOL    HW216912   1.905   3.601   4.320
38339SOL     OW16913  11.857   7.780   6.457
38339SOL    HW116914  11.766   7.762   6.434
38339SOL    HW216915  11.905   7.704   6.426
38340SOL     OW16916  11.754  11.316   9.475
38340SOL    HW116917  11.771  11.373   9.550
38340SOL    HW216918  11.669  11.278   9.494
38341SOL     OW16919  13.048   3.203   0.353
38341SOL    HW116920  13.076   3.278   0.300
38341SOL    HW216921  13.116   3.195   0.420
38342SOL     OW16922  12.109  10.645   3.021
38342SOL    HW116923  12.156  10.701   3.082
38342SOL    HW216924  12.048  10.595   3.076
38343SOL     OW16925   7.989   1.434  13.708
38343SOL    HW116926   7.902   1.462  13.681
38343SOL    HW216927   8.040   1.429  13.627
38344SOL     OW16928  12.809   1.446   0.323
38344SOL    HW116929  12.805   1.517   0.258
38344SOL    HW216930  12.793   1.367   0.272
38345SOL     OW16931   9.440   5.399   1.676
38345SOL    HW116932   9.349   5.425   1.687
38345SOL    HW216933   9.467   5.369   1.763
38346SOL     OW16934  11.429  11.872   5.312
38346SOL    HW116935  11.377  11.937   5.358
38346SOL    HW216936  11.452  11.913   5.229
38347SOL     OW16937   4.272   7.925   6.043
38347SOL    HW116938   4.314   7.847   6.078
38347SOL    HW216939   4.305   7.932   5.953
38348SOL     OW16940  14.745   5.184   0.296
38348SOL    HW116941  14.772   5.248   0.362
38348SOL    HW216942  14.701   5.235   0.229
38349SOL     OW16943   0.941   2.524   0.449
38349SOL    HW116944   0.978   2.450   0.401
38349SOL    HW216945   1.015   2.558   0.500
38350SOL     OW16946   2.363   2.488  14.804
38350SOL    HW116947   2.428   2.473  14.735
38350SOL    HW216948   2.410   2.537  14.871
38351SOL     OW16949  13.305  10.435   6.579
38351SOL    HW116950  13.320  10.383   6.500
38351SOL    HW216951  13.308  10.372   6.651
38352SOL     OW16952   1.102  13.861   4.401
38352SOL    HW116953   1.163  13.925   4.437
38352SOL    HW216954   1.117  13.782   4.452
38353SOL     OW16955  14.551   7.294   0.665
38353SOL    HW116956  14.555   7.222   0.603
38353SOL    HW216957  14.465   7.287   0.706
38354SOL     OW16958   4.743   8.080   6.292
38354SOL    HW116959   4.658   8.037   6.303
38354SOL    HW216960   4.806   8.017   6.326
38355SOL     OW16961   2.825  10.324   2.604
38355SOL    HW116962   2.871  10.325   2.520
38355SOL    HW216963   2.779  10.240   2.605
38356SOL     OW16964  12.548   5.138  10.699
38356SOL    HW116965  12.643   5.129  10.690
38356SOL    HW216966  12.534   5.231  10.714
38357SOL     OW16967   3.292  10.683   9.299
38357SOL    HW116968   3.240  10.603   9.296
38357SOL    HW216969   3.346  10.673   9.378
38358SOL     OW16970   2.778   1.455  12.653
38358SOL    HW116971   2.760   1.474  12.560
38358SOL    HW216972   2.874   1.458  12.659
38359SOL     OW16973   3.077  10.259   4.364
38359SOL    HW116974   3.020  10.225   4.433
38359SOL    HW216975   3.154  10.292   4.410
38360SOL     OW16976   0.256   2.296   9.495
38360SOL    HW116977   0.305   2.214   9.494
38360SOL    HW216978   0.315   2.358   9.538
38361SOL     OW16979  10.209   0.438   4.817
38361SOL    HW116980  10.258   0.515   4.846
38361SOL    HW216981  10.132   0.473   4.772
38362SOL     OW16982   1.247   1.055  14.566
38362SOL    HW116983   1.189   1.060  14.490
38362SOL    HW216984   1.300   0.976  14.550
38363SOL     OW16985  13.389   8.313   0.742
38363SOL    HW116986  13.296   8.318   0.764
38363SOL    HW216987  13.403   8.222   0.717
38364SOL     OW16988   6.869   4.470  13.564
38364SOL    HW116989   6.896   4.382  13.538
38364SOL    HW216990   6.901   4.526  13.493
38365SOL     OW16991   6.141  11.273  11.908
38365SOL    HW116992   6.073  11.334  11.877
38365SOL    HW216993   6.096  11.218  11.973
38366SOL     OW16994  11.203   7.174  12.688
38366SOL    HW116995  11.216   7.130  12.772
38366SOL    HW216996  11.146   7.247  12.708
38367SOL     OW16997   4.740   4.192   6.354
38367SOL    HW116998   4.659   4.240   6.373
38367SOL    HW216999   4.777   4.235   6.278
38368SOL     OW17000   9.560   3.713   4.560
38368SOL    HW117001   9.561   3.782   4.493
38368SOL    HW217002   9.498   3.648   4.526
38369SOL     OW17003  12.657  11.808   4.457
38369SOL    HW117004  12.748  11.785   4.435
38369SOL    HW217005  12.665  11.889   4.507
38370SOL     OW17006  13.373  14.048   8.977
38370SOL    HW117007  13.418  13.967   9.002
38370SOL    HW217008  13.296  14.051   9.034
38371SOL     OW17009   7.225  10.500   0.546
38371SOL    HW117010   7.231  10.510   0.451
38371SOL    HW217011   7.304  10.543   0.579
38372SOL     OW17012   9.568   1.052  13.380
38372SOL    HW117013   9.544   1.135  13.421
38372SOL    HW217014   9.529   0.986  13.438
38373SOL     OW17015  14.778   1.407  12.582
38373SOL    HW117016  14.862   1.454  12.586
38373SOL    HW217017  14.777   1.367  12.495
38374SOL     OW17018  14.557   7.970  11.372
38374SOL    HW117019  14.643   7.933  11.393
38374SOL    HW217020  14.511   7.973  11.456
38375SOL     OW17021  12.096   9.259   1.794
38375SOL    HW117022  12.171   9.260   1.853
38375SOL    HW217023  12.024   9.296   1.845
38376SOL     OW17024   1.050   5.575  11.320
38376SOL    HW117025   1.065   5.491  11.276
38376SOL    HW217026   0.955   5.582  11.327
38377SOL     OW17027   9.946   0.221  13.000
38377SOL    HW117028  10.003   0.288  12.962
38377SOL    HW217029   9.978   0.210  13.090
38378SOL     OW17030   0.296   2.846   3.171
38378SOL    HW117031   0.257   2.762   3.198
38378SOL    HW217032   0.334   2.882   3.252
38379SOL     OW17033   6.122  10.181  11.463
38379SOL    HW117034   6.209  10.184  11.424
38379SOL    HW217035   6.134  10.215  11.552
38380SOL     OW17036   7.099   2.909  12.781
38380SOL    HW117037   7.032   2.908  12.712
38380SOL    HW217038   7.180   2.933  12.735
38381SOL     OW17039  10.331   3.179   7.065
38381SOL    HW117040  10.302   3.261   7.105
38381SOL    HW217041  10.304   3.111   7.127
38382SOL     OW17042   6.053  12.048   7.826
38382SOL    HW117043   6.037  12.118   7.764
38382SOL    HW217044   5.989  11.980   7.804
38383SOL     OW17045   9.542  10.905  13.226
38383SOL    HW117046   9.605  10.887  13.157
38383SOL    HW217047   9.578  10.862  13.304
38384SOL     OW17048   3.302   0.566  11.616
38384SOL    HW117049   3.278   0.515  11.539
38384SOL    HW217050   3.278   0.511  11.690
38385SOL     OW17051  12.216  11.455   8.457
38385SOL    HW117052  12.281  11.421   8.396
38385SOL    HW217053  12.265  11.475   8.536
38386SOL     OW17054  12.661  14.471   0.108
38386SOL    HW117055  12.690  14.382   0.127
38386SOL    HW217056  12.567  14.463   0.089
38387SOL     OW17057   5.044  12.744  14.386
38387SOL    HW117058   4.974  12.806  14.404
38387SOL    HW217059   5.011  12.690  14.314
38388SOL     OW17060  11.074  13.441   9.229
38388SOL    HW117061  11.049  13.353   9.258
38388SOL    HW217062  11.013  13.499   9.273
38389SOL     OW17063  14.023   6.576   3.917
38389SOL    HW117064  13.996   6.497   3.965
38389SOL    HW217065  14.077   6.543   3.845
38390SOL     OW17066  10.462  14.776   0.116
38390SOL    HW117067  10.533  14.757   0.177
38390SOL    HW217068  10.506  14.806   0.037
38391SOL     OW17069   5.257   9.081   2.247
38391SOL    HW117070   5.338   9.126   2.271
38391SOL    HW217071   5.264   9.068   2.152
38392SOL     OW17072   8.350  12.852   2.822
38392SOL    HW117073   8.302  12.778   2.787
38392SOL    HW217074   8.401  12.815   2.895
38393SOL     OW17075  12.162   5.612   9.049
38393SOL    HW117076  12.083   5.638   9.096
38393SOL    HW217077  12.229   5.605   9.118
38394SOL     OW17078  13.697   8.612   1.327
38394SOL    HW117079  13.725   8.521   1.325
38394SOL    HW217080  13.663   8.629   1.240
38395SOL     OW17081  13.843   9.463   4.658
38395SOL    HW117082  13.929   9.459   4.617
38395SOL    HW217083  13.799   9.536   4.615
38396SOL     OW17084   7.071   2.662   4.876
38396SOL    HW117085   7.089   2.652   4.970
38396SOL    HW217086   7.027   2.581   4.852
38397SOL     OW17087   2.133  13.749   4.906
38397SOL    HW117088   2.041  13.742   4.934
38397SOL    HW217089   2.159  13.837   4.935
38398SOL     OW17090  11.746   7.196   0.121
38398SOL    HW117091  11.653   7.206   0.141
38398SOL    HW217092  11.777   7.286   0.112
38399SOL     OW17093  11.736   9.562   4.755
38399SOL    HW117094  11.704   9.638   4.804
38399SOL    HW217095  11.824   9.548   4.788
38400SOL     OW17096   9.198   2.306   3.986
38400SOL    HW117097   9.207   2.365   3.911
38400SOL    HW217098   9.287   2.275   4.003
38401SOL     OW17099  14.369   8.416   0.198
38401SOL    HW117100  14.390   8.477   0.128
38401SOL    HW217101  14.350   8.473   0.273
38402SOL     OW17102   1.781  13.960  13.883
38402SOL    HW117103   1.719  13.974  13.812
38402SOL    HW217104   1.867  13.970  13.842
38403SOL     OW17105   9.412   4.833  10.885
38403SOL    HW117106   9.372   4.897  10.944
38403SOL    HW217107   9.504   4.857  10.883
38404SOL     OW17108  10.728   6.169  12.064
38404SOL    HW117109  10.655   6.106  12.066
38404SOL    HW217110  10.799   6.122  12.021
38405SOL     OW17111   8.949   1.214  13.622
38405SOL    HW117112   8.964   1.263  13.541
38405SOL    HW217113   8.900   1.274  13.678
38406SOL     OW17114   5.924   7.393   0.929
38406SOL    HW117115   5.990   7.365   0.993
38406SOL    HW217116   5.841   7.385   0.976
38407SOL     OW17117   9.615   5.260   0.231
38407SOL    HW117118   9.566   5.267   0.312
38407SOL    HW217119   9.706   5.251   0.259
38408SOL     OW17120   2.107  11.037  12.925
38408SOL    HW117121   2.057  10.958  12.902
38408SOL    HW217122   2.195  11.005  12.943
38409SOL     OW17123   9.469  12.497   8.839
38409SOL    HW117124   9.514  12.417   8.810
38409SOL    HW217125   9.512  12.521   8.920
38410SOL     OW17126   8.162   5.601   6.386
38410SOL    HW117127   8.137   5.510   6.400
38410SOL    HW217128   8.160   5.613   6.292
38411SOL     OW17129   5.929  14.652   1.585
38411SOL    HW117130   5.836  14.673   1.590
38411SOL    HW217131   5.945  14.636   1.491
38412SOL     OW17132   9.979   2.102  10.590
38412SOL    HW117133   9.915   2.125  10.522
38412SOL    HW217134   9.931   2.042  10.647
38413SOL     OW17135   6.389   8.385   5.059
38413SOL    HW117136   6.368   8.471   5.022
38413SOL    HW217137   6.338   8.381   5.140
38414SOL     OW17138   1.159   0.598   8.292
38414SOL    HW117139   1.090   0.607   8.357
38414SOL    HW217140   1.236   0.569   8.341
38415SOL     OW17141   0.403   3.245   3.635
38415SOL    HW117142   0.430   3.331   3.603
38415SOL    HW217143   0.484   3.203   3.663
38416SOL     OW17144   4.190   5.972  12.751
38416SOL    HW117145   4.187   5.897  12.690
38416SOL    HW217146   4.101   6.005  12.753
38417SOL     OW17147   8.895  14.481  10.227
38417SOL    HW117148   8.897  14.563  10.277
38417SOL    HW217149   8.985  14.449  10.232
38418SOL     OW17150   6.690   7.932   5.173
38418SOL    HW117151   6.720   7.938   5.264
38418SOL    HW217152   6.713   7.843   5.146
38419SOL     OW17153  10.304   4.673   0.006
38419SOL    HW117154  10.251   4.639   0.079
38419SOL    HW217155  10.367   4.603  14.860
38420SOL     OW17156   7.803   9.717   7.768
38420SOL    HW117157   7.816   9.768   7.848
38420SOL    HW217158   7.892   9.698   7.737
38421SOL     OW17159  11.649  11.939  10.163
38421SOL    HW117160  11.708  11.887  10.218
38421SOL    HW217161  11.583  11.973  10.223
38422SOL     OW17162   0.415  10.327   6.858
38422SOL    HW117163   0.323  10.324   6.883
38422SOL    HW217164   0.437  10.236   6.836
38423SOL     OW17165  11.580   5.703   7.774
38423SOL    HW117166  11.556   5.697   7.682
38423SOL    HW217167  11.601   5.796   7.788
38424SOL     OW17168   8.813  13.123   8.122
38424SOL    HW117169   8.881  13.128   8.189
38424SOL    HW217170   8.848  13.063   8.057
38425SOL     OW17171  11.266   6.425   9.159
38425SOL    HW117172  11.233   6.354   9.104
38425SOL    HW217173  11.189   6.477   9.181
38426SOL     OW17174  10.362   9.768   8.150
38426SOL    HW117175  10.431   9.795   8.090
38426SOL    HW217176  10.301   9.718   8.096
38427SOL     OW17177   3.713   5.810   8.777
38427SOL    HW117178   3.716   5.893   8.824
38427SOL    HW217179   3.624   5.777   8.791
38428SOL     OW17180  12.936   2.062  13.871
38428SOL    HW117181  12.918   2.013  13.790
38428SOL    HW217182  12.850   2.081  13.907
38429SOL     OW17183  14.202   9.393   7.162
38429SOL    HW117184  14.298   9.401   7.159
38429SOL    HW217185  14.186   9.300   7.176
38430SOL     OW17186  13.654   9.925   6.223
38430SOL    HW117187  13.612   9.953   6.142
38430SOL    HW217188  13.744   9.956   6.215
38431SOL     OW17189   6.249  13.755  11.359
38431SOL    HW117190   6.288  13.678  11.318
38431SOL    HW217191   6.325  13.809  11.384
38432SOL     OW17192  12.716   5.321   6.623
38432SOL    HW117193  12.688   5.384   6.556
38432SOL    HW217194  12.778   5.264   6.578
38433SOL     OW17195   8.862   5.978   4.787
38433SOL    HW117196   8.906   5.930   4.717
38433SOL    HW217197   8.789   5.922   4.812
38434SOL     OW17198   3.371  14.526  10.172
38434SOL    HW117199   3.391  14.612  10.210
38434SOL    HW217200   3.405  14.463  10.236
38435SOL     OW17201   0.992   1.833   8.447
38435SOL    HW117202   0.904   1.865   8.464
38435SOL    HW217203   0.999   1.830   8.352
38436SOL     OW17204   9.640   1.533  14.009
38436SOL    HW117205   9.617   1.441  13.997
38436SOL    HW217206   9.556   1.578  14.023
38437SOL     OW17207   6.681  13.627  13.971
38437SOL    HW117208   6.748  13.681  13.928
38437SOL    HW217209   6.730  13.568  14.028
38438SOL     OW17210   3.721   7.516   8.801
38438SOL    HW117211   3.760   7.487   8.719
38438SOL    HW217212   3.630   7.488   8.796
38439SOL     OW17213  14.234   7.935  11.998
38439SOL    HW117214  14.159   7.956  12.054
38439SOL    HW217215  14.301   7.904  12.059
38440SOL     OW17216   3.053  13.164  14.773
38440SOL    HW117217   2.993  13.238  14.761
38440SOL    HW217218   3.021  13.120  14.852
38441SOL     OW17219   9.242  13.435   2.341
38441SOL    HW117220   9.318  13.391   2.302
38441SOL    HW217221   9.248  13.414   2.434
38442SOL     OW17222   3.909  10.895   7.487
38442SOL    HW117223   3.846  10.823   7.479
38442SOL    HW217224   3.890  10.952   7.412
38443SOL     OW17225  13.337  14.348   7.019
38443SOL    HW117226  13.312  14.325   7.108
38443SOL    HW217227  13.409  14.409   7.029
38444SOL     OW17228   4.247  12.302  13.845
38444SOL    HW117229   4.157  12.294  13.814
38444SOL    HW217230   4.239  12.342  13.931
38445SOL     OW17231   8.470   7.275  13.328
38445SOL    HW117232   8.477   7.327  13.248
38445SOL    HW217233   8.559   7.275  13.364
38446SOL     OW17234   5.529  10.536   1.789
38446SOL    HW117235   5.556  10.496   1.707
38446SOL    HW217236   5.539  10.630   1.774
38447SOL     OW17237  14.335  10.587  14.798
38447SOL    HW117238  14.252  10.628  14.822
38447SOL    HW217239  14.359  10.629  14.715
38448SOL     OW17240   1.988   5.717   3.663
38448SOL    HW117241   1.913   5.747   3.612
38448SOL    HW217242   2.019   5.795   3.708
38449SOL     OW17243   5.475   6.206  10.420
38449SOL    HW117244   5.552   6.257  10.396
38449SOL    HW217245   5.434   6.257  10.491
38450SOL     OW17246   8.577   0.714  11.836
38450SOL    HW117247   8.483   0.733  11.835
38450SOL    HW217248   8.610   0.764  11.911
38451SOL     OW17249   5.355   4.099   9.326
38451SOL    HW117250   5.328   4.190   9.340
38451SOL    HW217251   5.356   4.089   9.230
38452SOL     OW17252   8.581   5.474   5.493
38452SOL    HW117253   8.518   5.477   5.421
38452SOL    HW217254   8.628   5.557   5.486
38453SOL     OW17255   6.926   1.946   1.289
38453SOL    HW117256   6.995   2.002   1.326
38453SOL    HW217257   6.910   1.982   1.201
38454SOL     OW17258   2.280  14.641  14.783
38454SOL    HW117259   2.214  14.572  14.792
38454SOL    HW217260   2.350  14.615  14.844
38455SOL     OW17261   8.227   3.512  11.173
38455SOL    HW117262   8.216   3.446  11.242
38455SOL    HW217263   8.299   3.477  11.119
38456SOL     OW17264   3.571   1.563  14.148
38456SOL    HW117265   3.499   1.501  14.166
38456SOL    HW217266   3.650   1.515  14.173
38457SOL     OW17267  10.117   9.347   3.600
38457SOL    HW117268  10.074   9.265   3.576
38457SOL    HW217269  10.045   9.406   3.621
38458SOL     OW17270  14.520   2.263   6.081
38458SOL    HW117271  14.561   2.313   6.010
38458SOL    HW217272  14.487   2.329   6.141
38459SOL     OW17273   1.406  10.710   5.724
38459SOL    HW117274   1.343  10.766   5.768
38459SOL    HW217275   1.487  10.721   5.774
38460SOL     OW17276  10.129   1.902   6.278
38460SOL    HW117277  10.126   1.855   6.194
38460SOL    HW217278  10.043   1.943   6.285
38461SOL     OW17279   2.606   4.708  11.701
38461SOL    HW117280   2.669   4.778  11.715
38461SOL    HW217281   2.655   4.628  11.722
38462SOL     OW17282  14.406   9.289   6.751
38462SOL    HW117283  14.321   9.249   6.767
38462SOL    HW217284  14.426   9.338   6.831
38463SOL     OW17285  14.091   4.169   2.389
38463SOL    HW117286  14.034   4.096   2.412
38463SOL    HW217287  14.054   4.204   2.309
38464SOL     OW17288   1.404   8.448   4.676
38464SOL    HW117289   1.310   8.436   4.681
38464SOL    HW217290   1.427   8.424   4.587
38465SOL     OW17291   4.249   0.714   1.638
38465SOL    HW117292   4.188   0.770   1.591
38465SOL    HW217293   4.222   0.722   1.730
38466SOL     OW17294   2.071   0.825   2.701
38466SOL    HW117295   2.142   0.866   2.750
38466SOL    HW217296   1.991   0.863   2.737
38467SOL     OW17297  14.270   8.207   6.890
38467SOL    HW117298  14.215   8.151   6.945
38467SOL    HW217299  14.353   8.160   6.883
38468SOL     OW17300   8.058  12.406   7.041
38468SOL    HW117301   7.977  12.418   7.091
38468SOL    HW217302   8.094  12.494   7.030
38469SOL     OW17303   3.400   7.098  10.820
38469SOL    HW117304   3.316   7.056  10.800
38469SOL    HW217305   3.437   7.120  10.734
38470SOL     OW17306  10.680   7.410   7.112
38470SOL    HW117307  10.637   7.349   7.172
38470SOL    HW217308  10.650   7.383   7.025
38471SOL     OW17309   0.911   4.643   5.808
38471SOL    HW117310   0.997   4.685   5.802
38471SOL    HW217311   0.853   4.700   5.758
38472SOL     OW17312   4.498   9.637   2.914
38472SOL    HW117313   4.553   9.584   2.972
38472SOL    HW217314   4.551   9.650   2.836
38473SOL     OW17315  13.046   1.020  13.778
38473SOL    HW117316  12.991   0.971  13.718
38473SOL    HW217317  13.062   1.103  13.734
38474SOL     OW17318   4.281   1.950  14.689
38474SOL    HW117319   4.263   1.872  14.742
38474SOL    HW217320   4.202   1.963  14.637
38475SOL     OW17321   4.611  10.768   8.317
38475SOL    HW117322   4.541  10.770   8.252
38475SOL    HW217323   4.674  10.833   8.287
38476SOL     OW17324  12.892   7.031   8.214
38476SOL    HW117325  12.874   7.027   8.308
38476SOL    HW217326  12.830   6.969   8.176
38477SOL     OW17327   0.834   4.330   3.264
38477SOL    HW117328   0.743   4.344   3.238
38477SOL    HW217329   0.831   4.258   3.326
38478SOL     OW17330   9.708  12.521   7.890
38478SOL    HW117331   9.701  12.480   7.804
38478SOL    HW217332   9.752  12.605   7.873
38479SOL     OW17333   4.978  12.980  14.068
38479SOL    HW117334   5.049  13.043  14.081
38479SOL    HW217335   4.928  12.983  14.150
38480SOL     OW17336   3.557   8.613  10.718
38480SOL    HW117337   3.650   8.594  10.728
38480SOL    HW217338   3.548   8.644  10.628
38481SOL     OW17339   1.853   8.235   1.155
38481SOL    HW117340   1.917   8.282   1.100
38481SOL    HW217341   1.891   8.239   1.243
38482SOL     OW17342   9.961   6.714  12.129
38482SOL    HW117343  10.011   6.720  12.048
38482SOL    HW217344   9.962   6.803  12.165
38483SOL     OW17345   5.105  13.704   0.226
38483SOL    HW117346   5.180  13.694   0.167
38483SOL    HW217347   5.088  13.799   0.227
38484SOL     OW17348   2.443   5.642   4.563
38484SOL    HW117349   2.383   5.688   4.504
38484SOL    HW217350   2.476   5.568   4.512
38485SOL     OW17351  11.811   3.741   9.111
38485SOL    HW117352  11.765   3.684   9.172
38485SOL    HW217353  11.762   3.733   9.029
38486SOL     OW17354   0.826  14.461  13.212
38486SOL    HW117355   0.909  14.476  13.257
38486SOL    HW217356   0.850  14.416  13.132
38487SOL     OW17357   8.774  11.479  11.996
38487SOL    HW117358   8.798  11.428  11.918
38487SOL    HW217359   8.797  11.423  12.070
38488SOL     OW17360  12.628   3.758   5.384
38488SOL    HW117361  12.560   3.810   5.428
38488SOL    HW217362  12.708   3.777   5.433
38489SOL     OW17363   2.474  10.141   7.178
38489SOL    HW117364   2.524  10.063   7.157
38489SOL    HW217365   2.383  10.111   7.182
38490SOL     OW17366   5.000   8.809   4.354
38490SOL    HW117367   5.080   8.862   4.356
38490SOL    HW217368   4.978   8.795   4.446
38491SOL     OW17369   2.260   7.164  14.146
38491SOL    HW117370   2.338   7.218  14.158
38491SOL    HW217371   2.256   7.148  14.052
38492SOL     OW17372  12.792   6.603   7.627
38492SOL    HW117373  12.811   6.682   7.678
38492SOL    HW217374  12.720   6.561   7.674
38493SOL     OW17375  13.059   3.336   7.938
38493SOL    HW117376  13.026   3.279   8.007
38493SOL    HW217377  13.003   3.414   7.942
38494SOL     OW17378  14.202   2.494  13.337
38494SOL    HW117379  14.162   2.517  13.421
38494SOL    HW217380  14.227   2.578  13.298
38495SOL     OW17381  11.267   5.160   5.016
38495SOL    HW117382  11.248   5.207   5.097
38495SOL    HW217383  11.362   5.165   5.006
38496SOL     OW17384   0.477  13.793   2.721
38496SOL    HW117385   0.567  13.806   2.691
38496SOL    HW217386   0.469  13.699   2.736
38497SOL     OW17387   0.139   4.043   6.913
38497SOL    HW117388   0.092   4.106   6.968
38497SOL    HW217389   0.089   4.041   6.831
38498SOL     OW17390  14.000   1.530  11.548
38498SOL    HW117391  13.914   1.550  11.511
38498SOL    HW217392  14.057   1.599  11.515
38499SOL     OW17393   9.347  14.365   1.891
38499SOL    HW117394   9.437  14.399   1.896
38499SOL    HW217395   9.335  14.320   1.975
38500SOL     OW17396   5.765  14.214   6.467
38500SOL    HW117397   5.774  14.299   6.425
38500SOL    HW217398   5.717  14.161   6.403
38501SOL     OW17399  12.071   6.155   6.032
38501SOL    HW117400  12.082   6.062   6.055
38501SOL    HW217401  12.019   6.153   5.952
38502SOL     OW17402   5.047   3.184   5.843
38502SOL    HW117403   5.118   3.227   5.891
38502SOL    HW217404   5.091   3.139   5.771
38503SOL     OW17405  10.981  10.510   4.904
38503SOL    HW117406  10.949  10.548   4.822
38503SOL    HW217407  10.936  10.426   4.911
38504SOL     OW17408   0.801   2.838   8.866
38504SOL    HW117409   0.885   2.801   8.894
38504SOL    HW217410   0.809   2.932   8.882
38505SOL     OW17411   8.281  14.786   1.841
38505SOL    HW117412   8.279  14.848   1.768
38505SOL    HW217413   8.348  14.722   1.817
38506SOL     OW17414  12.483   4.279   5.591
38506SOL    HW117415  12.432   4.342   5.540
38506SOL    HW217416  12.484   4.314   5.680
38507SOL     OW17417   8.938   0.607  10.256
38507SOL    HW117418   8.967   0.686  10.302
38507SOL    HW217419   8.843   0.616  10.251
38508SOL     OW17420  14.258   8.768   1.883
38508SOL    HW117421  14.204   8.797   1.956
38508SOL    HW217422  14.197   8.763   1.809
38509SOL     OW17423   7.945  12.198   2.704
38509SOL    HW117424   7.875  12.259   2.678
38509SOL    HW217425   7.899  12.125   2.745
38510SOL     OW17426   1.261  14.176   2.067
38510SOL    HW117427   1.196  14.130   2.013
38510SOL    HW217428   1.344  14.137   2.041
38511SOL     OW17429   0.317  13.081   3.387
38511SOL    HW117430   0.286  12.995   3.359
38511SOL    HW217431   0.412  13.071   3.396
38512SOL     OW17432   3.504   0.003  14.454
38512SOL    HW117433   3.459   0.071  14.405
38512SOL    HW217434   3.462  14.794  14.427
38513SOL     OW17435  13.965  10.163  10.866
38513SOL    HW117436  14.012  10.112  10.931
38513SOL    HW217437  13.999  10.133  10.782
38514SOL     OW17438   2.476   1.545  10.632
38514SOL    HW117439   2.475   1.639  10.651
38514SOL    HW217440   2.566   1.517  10.651
38515SOL     OW17441   9.324  12.807   4.512
38515SOL    HW117442   9.254  12.868   4.534
38515SOL    HW217443   9.404  12.854   4.534
38516SOL     OW17444   7.515  14.234  10.144
38516SOL    HW117445   7.500  14.248  10.051
38516SOL    HW217446   7.482  14.145  10.160
38517SOL     OW17447   0.015   2.761  13.644
38517SOL    HW117448  14.851   2.840  13.604
38517SOL    HW217449  14.811   2.708  13.668
38518SOL     OW17450  13.639   2.073  11.639
38518SOL    HW117451  13.729   2.045  11.625
38518SOL    HW217452  13.588   2.023  11.575
38519SOL     OW17453   4.667   2.287   9.027
38519SOL    HW117454   4.735   2.355   9.025
38519SOL    HW217455   4.714   2.205   9.011
38520SOL     OW17456   6.122   2.964  10.678
38520SOL    HW117457   6.159   3.029  10.737
38520SOL    HW217458   6.128   3.004  10.591
38521SOL     OW17459   9.649   4.236   7.501
38521SOL    HW117460   9.648   4.239   7.597
38521SOL    HW217461   9.597   4.159   7.479
38522SOL     OW17462   3.050   5.734   8.943
38522SOL    HW117463   3.027   5.766   9.030
38522SOL    HW217464   3.113   5.798   8.910
38523SOL     OW17465  10.839  10.201   7.786
38523SOL    HW117466  10.853  10.139   7.714
38523SOL    HW217467  10.868  10.285   7.752
38524SOL     OW17468  10.887  14.796   5.727
38524SOL    HW117469  10.852  14.814   5.640
38524SOL    HW217470  10.945  14.720   5.714
38525SOL     OW17471  10.742   5.123  14.275
38525SOL    HW117472  10.669   5.084  14.324
38525SOL    HW217473  10.820   5.094  14.322
38526SOL     OW17474   7.646   6.146   2.166
38526SOL    HW117475   7.687   6.136   2.252
38526SOL    HW217476   7.636   6.240   2.155
38527SOL     OW17477   5.684   4.641  12.692
38527SOL    HW117478   5.602   4.601  12.663
38527SOL    HW217479   5.684   4.632  12.787
38528SOL     OW17480   5.996   1.660  11.191
38528SOL    HW117481   6.051   1.690  11.118
38528SOL    HW217482   5.970   1.741  11.235
38529SOL     OW17483   2.949   2.237   3.604
38529SOL    HW117484   3.004   2.264   3.530
38529SOL    HW217485   2.977   2.292   3.676
38530SOL     OW17486  11.731   7.469   8.786
38530SOL    HW117487  11.802   7.407   8.769
38530SOL    HW217488  11.774   7.545   8.825
38531SOL     OW17489   8.816   0.655   4.836
38531SOL    HW117490   8.760   0.618   4.904
38531SOL    HW217491   8.808   0.750   4.847
38532SOL     OW17492   1.935   5.695   9.460
38532SOL    HW117493   1.872   5.761   9.432
38532SOL    HW217494   1.938   5.631   9.389
38533SOL     OW17495  14.199  12.315  10.549
38533SOL    HW117496  14.235  12.311  10.638
38533SOL    HW217497  14.276  12.311  10.493
38534SOL     OW17498   6.434  13.199   0.743
38534SOL    HW117499   6.459  13.157   0.661
38534SOL    HW217500   6.342  13.222   0.732
38535SOL     OW17501   8.349   2.029   3.601
38535SOL    HW117502   8.383   2.096   3.542
38535SOL    HW217503   8.372   2.060   3.689
38536SOL     OW17504   0.621   7.838   1.669
38536SOL    HW117505   0.629   7.924   1.712
38536SOL    HW217506   0.710   7.815   1.645
38537SOL     OW17507   1.079  12.763   5.443
38537SOL    HW117508   1.004  12.704   5.448
38537SOL    HW217509   1.106  12.760   5.351
38538SOL     OW17510  12.112   9.478  13.612
38538SOL    HW117511  12.203   9.456  13.593
38538SOL    HW217512  12.100   9.564  13.571
38539SOL     OW17513  13.893   5.834   0.116
38539SOL    HW117514  13.805   5.819   0.082
38539SOL    HW217515  13.900   5.929   0.124
38540SOL     OW17516   9.761  12.366  12.471
38540SOL    HW117517   9.772  12.459  12.491
38540SOL    HW217518   9.676  12.360  12.428
38541SOL     OW17519   5.585  10.797   7.312
38541SOL    HW117520   5.568  10.704   7.329
38541SOL    HW217521   5.562  10.841   7.394
38542SOL     OW17522   1.204   6.346  11.098
38542SOL    HW117523   1.179   6.260  11.131
38542SOL    HW217524   1.207   6.335  11.003
38543SOL     OW17525   0.753   7.712   5.414
38543SOL    HW117526   0.778   7.740   5.326
38543SOL    HW217527   0.748   7.794   5.464
38544SOL     OW17528   0.353  12.423   9.649
38544SOL    HW117529   0.343  12.472   9.731
38544SOL    HW217530   0.448  12.419   9.636
38545SOL     OW17531   0.397  13.231  11.466
38545SOL    HW117532   0.381  13.205  11.557
38545SOL    HW217533   0.420  13.150  11.422
38546SOL     OW17534   5.186   7.015   2.186
38546SOL    HW117535   5.266   7.047   2.227
38546SOL    HW217536   5.214   6.941   2.133
38547SOL     OW17537   1.740   2.182   7.607
38547SOL    HW117538   1.744   2.249   7.675
38547SOL    HW217539   1.709   2.104   7.652
38548SOL     OW17540   6.824   5.257   2.277
38548SOL    HW117541   6.861   5.168   2.274
38548SOL    HW217542   6.899   5.313   2.297
38549SOL     OW17543   9.201   0.610  10.577
38549SOL    HW117544   9.176   0.605  10.485
38549SOL    HW217545   9.198   0.704  10.598
38550SOL     OW17546   8.630   0.273   4.085
38550SOL    HW117547   8.565   0.343   4.088
38550SOL    HW217548   8.713   0.316   4.104
38551SOL     OW17549   8.723   2.955  10.332
38551SOL    HW117550   8.718   2.924  10.423
38551SOL    HW217551   8.799   3.014  10.332
38552SOL     OW17552   6.912   6.360  13.469
38552SOL    HW117553   6.865   6.283  13.503
38552SOL    HW217554   6.988   6.324  13.423
38553SOL     OW17555   7.016   7.708   4.359
38553SOL    HW117556   7.072   7.752   4.423
38553SOL    HW217557   7.028   7.615   4.377
38554SOL     OW17558   0.337   6.027  13.007
38554SOL    HW117559   0.251   6.063  13.028
38554SOL    HW217560   0.327   5.993  12.918
38555SOL     OW17561   0.680  11.897   9.186
38555SOL    HW117562   0.757  11.940   9.225
38555SOL    HW217563   0.696  11.804   9.198
38556SOL     OW17564  13.562   5.180   1.029
38556SOL    HW117565  13.586   5.245   0.963
38556SOL    HW217566  13.497   5.125   0.986
38557SOL     OW17567  13.479  13.695  12.386
38557SOL    HW117568  13.560  13.746  12.377
38557SOL    HW217569  13.409  13.761  12.385
38558SOL     OW17570   3.947  10.391  14.785
38558SOL    HW117571   3.990  10.459  14.733
38558SOL    HW217572   3.856  10.392  14.756
38559SOL     OW17573   5.589   1.409   3.401
38559SOL    HW117574   5.511   1.455   3.434
38559SOL    HW217575   5.578   1.320   3.433
38560SOL     OW17576   6.288   7.612   6.665
38560SOL    HW117577   6.321   7.532   6.625
38560SOL    HW217578   6.348   7.629   6.738
38561SOL     OW17579  14.357   7.333   9.254
38561SOL    HW117580  14.330   7.331   9.345
38561SOL    HW217581  14.281   7.300   9.205
38562SOL     OW17582  13.468  12.348  10.343
38562SOL    HW117583  13.444  12.353  10.436
38562SOL    HW217584  13.430  12.428  10.305
38563SOL     OW17585   4.216   5.236  10.209
38563SOL    HW117586   4.176   5.182  10.141
38563SOL    HW217587   4.232   5.177  10.282
38564SOL     OW17588   3.461  10.909   3.076
38564SOL    HW117589   3.396  10.907   3.006
38564SOL    HW217590   3.439  10.988   3.126
38565SOL     OW17591   3.703  12.311   9.425
38565SOL    HW117592   3.732  12.222   9.409
38565SOL    HW217593   3.765  12.365   9.375
38566SOL     OW17594   4.036   3.124   4.410
38566SOL    HW117595   3.972   3.156   4.473
38566SOL    HW217596   4.101   3.078   4.462
38567SOL     OW17597  11.671  12.908  10.118
38567SOL    HW117598  11.755  12.929  10.159
38567SOL    HW217599  11.638  12.993  10.088
38568SOL     OW17600   9.141   6.575  11.158
38568SOL    HW117601   9.195   6.652  11.170
38568SOL    HW217602   9.171   6.514  11.226
38569SOL     OW17603   7.969   7.759   6.249
38569SOL    HW117604   7.897   7.818   6.225
38569SOL    HW217605   7.950   7.678   6.201
38570SOL     OW17606   2.662  14.222  11.432
38570SOL    HW117607   2.570  14.203  11.453
38570SOL    HW217608   2.686  14.292  11.492
38571SOL     OW17609   9.228   1.012   0.771
38571SOL    HW117610   9.156   0.959   0.803
38571SOL    HW217611   9.217   1.013   0.676
38572SOL     OW17612   1.877   5.440   2.839
38572SOL    HW117613   1.898   5.358   2.795
38572SOL    HW217614   1.878   5.418   2.933
38573SOL     OW17615   1.032   5.056  14.023
38573SOL    HW117616   1.086   4.978  14.009
38573SOL    HW217617   0.956   5.042  13.966
38574SOL     OW17618   4.480   6.804   5.466
38574SOL    HW117619   4.575   6.805   5.478
38574SOL    HW217620   4.449   6.738   5.528
38575SOL     OW17621   9.327   2.731   8.624
38575SOL    HW117622   9.308   2.822   8.646
38575SOL    HW217623   9.332   2.730   8.528
38576SOL     OW17624   0.034   1.156  13.587
38576SOL    HW117625   0.120   1.189  13.559
38576SOL    HW217626   0.054   1.103  13.665
38577SOL     OW17627   9.612   6.173   5.213
38577SOL    HW117628   9.586   6.150   5.124
38577SOL    HW217629   9.529   6.190   5.259
38578SOL     OW17630   0.462   7.143   4.611
38578SOL    HW117631   0.547   7.168   4.649
38578SOL    HW217632   0.478   7.058   4.571
38579SOL     OW17633   7.368  10.048  10.085
38579SOL    HW117634   7.447  10.029  10.035
38579SOL    HW217635   7.335   9.961  10.112
38580SOL     OW17636  10.810   5.538   3.529
38580SOL    HW117637  10.853   5.623   3.536
38580SOL    HW217638  10.799   5.509   3.619
38581SOL     OW17639  14.240   6.697   1.847
38581SOL    HW117640  14.287   6.625   1.807
38581SOL    HW217641  14.154   6.661   1.868
38582SOL     OW17642  10.250   2.485   6.210
38582SOL    HW117643  10.173   2.521   6.166
38582SOL    HW217644  10.297   2.436   6.142
38583SOL     OW17645  11.624  10.784   3.025
38583SOL    HW117646  11.660  10.701   2.993
38583SOL    HW217647  11.623  10.841   2.948
38584SOL     OW17648  12.058  13.377   0.717
38584SOL    HW117649  12.085  13.297   0.671
38584SOL    HW217650  11.962  13.373   0.716
38585SOL     OW17651   6.613   9.038   4.801
38585SOL    HW117652   6.675   8.990   4.857
38585SOL    HW217653   6.662   9.054   4.720
38586SOL     OW17654  14.136   4.588  14.239
38586SOL    HW117655  14.206   4.526  14.259
38586SOL    HW217656  14.179   4.661  14.195
38587SOL     OW17657   2.675   7.021   3.860
38587SOL    HW117658   2.591   7.066   3.848
38587SOL    HW217659   2.733   7.088   3.896
38588SOL     OW17660   4.857  11.894   6.840
38588SOL    HW117661   4.843  11.845   6.759
38588SOL    HW217662   4.913  11.837   6.893
38589SOL     OW17663  12.340   6.343   9.382
38589SOL    HW117664  12.382   6.360   9.466
38589SOL    HW217665  12.367   6.254   9.360
38590SOL     OW17666  10.458   3.561   0.559
38590SOL    HW117667  10.477   3.487   0.617
38590SOL    HW217668  10.483   3.638   0.611
38591SOL     OW17669   0.216   3.242  10.185
38591SOL    HW117670   0.145   3.198  10.138
38591SOL    HW217671   0.208   3.334  10.160
38592SOL     OW17672  10.852   3.724  10.775
38592SOL    HW117673  10.870   3.649  10.720
38592SOL    HW217674  10.928   3.730  10.833
38593SOL     OW17675   4.318   8.349   1.795
38593SOL    HW117676   4.234   8.376   1.760
38593SOL    HW217677   4.299   8.270   1.847
38594SOL     OW17678   1.627   6.785   8.438
38594SOL    HW117679   1.598   6.760   8.351
38594SOL    HW217680   1.608   6.708   8.492
38595SOL     OW17681   4.561   1.643   7.833
38595SOL    HW117682   4.611   1.563   7.847
38595SOL    HW217683   4.515   1.629   7.751
38596SOL     OW17684   0.258  10.531   8.957
38596SOL    HW117685   0.254  10.626   8.947
38596SOL    HW217686   0.281  10.517   9.049
38597SOL     OW17687   4.522   4.790  12.773
38597SOL    HW117688   4.452   4.728  12.750
38597SOL    HW217689   4.525   4.788  12.869
38598SOL     OW17690  12.050  12.243   1.227
38598SOL    HW117691  12.118  12.179   1.210
38598SOL    HW217692  12.063  12.269   1.319
38599SOL     OW17693  12.699  13.620  12.803
38599SOL    HW117694  12.667  13.553  12.742
38599SOL    HW217695  12.645  13.697  12.785
38600SOL     OW17696  10.647   1.406   7.130
38600SOL    HW117697  10.735   1.444   7.128
38600SOL    HW217698  10.663   1.311   7.132
38601SOL     OW17699  13.142  13.736   0.028
38601SOL    HW117700  13.064  13.756   0.079
38601SOL    HW217701  13.214  13.745   0.091
38602SOL     OW17702   7.207   3.615  13.866
38602SOL    HW117703   7.214   3.590  13.958
38602SOL    HW217704   7.246   3.542  13.818
38603SOL     OW17705   0.357   5.372  13.766
38603SOL    HW117706   0.324   5.383  13.856
38603SOL    HW217707   0.299   5.427  13.713
38604SOL     OW17708   7.650   8.869   9.445
38604SOL    HW117709   7.652   8.773   9.450
38604SOL    HW217710   7.572   8.894   9.494
38605SOL     OW17711  11.520  11.169   9.508
38605SOL    HW117712  11.519  11.094   9.567
38605SOL    HW217713  11.429  11.201   9.509
38606SOL     OW17714   3.193  11.923   7.285
38606SOL    HW117715   3.105  11.943   7.254
38606SOL    HW217716   3.249  11.938   7.209
38607SOL     OW17717   6.502  14.536   5.473
38607SOL    HW117718   6.518  14.446   5.500
38607SOL    HW217719   6.407  14.544   5.467
38608SOL     OW17720   6.313   3.694   5.644
38608SOL    HW117721   6.252   3.674   5.715
38608SOL    HW217722   6.322   3.789   5.645
38609SOL     OW17723  14.383   7.316   9.966
38609SOL    HW117724  14.313   7.329   9.903
38609SOL    HW217725  14.345   7.343  10.050
38610SOL     OW17726  10.960  14.639   7.073
38610SOL    HW117727  10.990  14.659   6.984
38610SOL    HW217728  10.972  14.544   7.081
38611SOL     OW17729   6.922  14.087   7.042
38611SOL    HW117730   6.974  14.013   7.073
38611SOL    HW217731   6.859  14.104   7.112
38612SOL     OW17732  12.039   7.286  12.164
38612SOL    HW117733  12.005   7.253  12.246
38612SOL    HW217734  11.964   7.327  12.121
38613SOL     OW17735   9.722  12.951   7.803
38613SOL    HW117736   9.784  12.879   7.812
38613SOL    HW217737   9.705  12.979   7.893
38614SOL     OW17738   7.320   3.592   5.378
38614SOL    HW117739   7.271   3.674   5.372
38614SOL    HW217740   7.290   3.552   5.460
38615SOL     OW17741  13.594  14.384   0.208
38615SOL    HW117742  13.541  14.443   0.262
38615SOL    HW217743  13.546  14.377   0.125
38616SOL     OW17744   0.505   6.894   4.457
38616SOL    HW117745   0.534   6.815   4.504
38616SOL    HW217746   0.422   6.869   4.417
38617SOL     OW17747   1.308  14.137  12.735
38617SOL    HW117748   1.366  14.181  12.673
38617SOL    HW217749   1.363  14.069  12.775
38618SOL     OW17750   7.044   2.553  13.690
38618SOL    HW117751   7.052   2.594  13.776
38618SOL    HW217752   6.984   2.480  13.704
38619SOL     OW17753   5.623  14.151   1.337
38619SOL    HW117754   5.668  14.068   1.346
38619SOL    HW217755   5.690  14.217   1.356
38620SOL     OW17756  13.611   7.537   9.546
38620SOL    HW117757  13.628   7.510   9.456
38620SOL    HW217758  13.515   7.541   9.553
38621SOL     OW17759   5.372  13.055   1.408
38621SOL    HW117760   5.426  13.103   1.345
38621SOL    HW217761   5.282  13.069   1.378
38622SOL     OW17762  11.625   9.676   8.219
38622SOL    HW117763  11.709   9.648   8.254
38622SOL    HW217764  11.560   9.624   8.266
38623SOL     OW17765   2.691   0.625  13.606
38623SOL    HW117766   2.726   0.630  13.695
38623SOL    HW217767   2.717   0.707  13.564
38624SOL     OW17768  10.294  12.490   7.779
38624SOL    HW117769  10.346  12.568   7.760
38624SOL    HW217770  10.355  12.429   7.819
38625SOL     OW17771   4.729  12.760   7.044
38625SOL    HW117772   4.659  12.704   7.010
38625SOL    HW217773   4.719  12.842   6.997
38626SOL     OW17774   1.122   2.564   8.091
38626SOL    HW117775   1.114   2.509   8.013
38626SOL    HW217776   1.065   2.639   8.073
38627SOL     OW17777   7.416   4.472  13.903
38627SOL    HW117778   7.421   4.479  13.999
38627SOL    HW217779   7.441   4.382  13.883
38628SOL     OW17780   5.571   2.328   9.326
38628SOL    HW117781   5.556   2.315   9.419
38628SOL    HW217782   5.625   2.407   9.320
38629SOL     OW17783   2.290   2.307   3.019
38629SOL    HW117784   2.205   2.342   3.046
38629SOL    HW217785   2.271   2.255   2.941
38630SOL     OW17786   2.050   3.913   6.356
38630SOL    HW117787   2.007   3.931   6.272
38630SOL    HW217788   1.999   3.962   6.420
38631SOL     OW17789  13.934   3.685  13.596
38631SOL    HW117790  13.871   3.617  13.571
38631SOL    HW217791  13.916   3.701  13.689
38632SOL     OW17792   9.863   9.331  12.275
38632SOL    HW117793   9.944   9.347  12.226
38632SOL    HW217794   9.835   9.418  12.302
38633SOL     OW17795   0.055  13.894   0.362
38633SOL    HW117796   0.045  13.943   0.444
38633SOL    HW217797   0.100  13.954   0.303
38634SOL     OW17798   6.545  10.858   0.873
38634SOL    HW117799   6.565  10.817   0.789
38634SOL    HW217800   6.616  10.921   0.887
38635SOL     OW17801   7.360   1.723  14.499
38635SOL    HW117802   7.430   1.783  14.473
38635SOL    HW217803   7.397   1.674  14.572
38636SOL     OW17804  12.916  11.038  10.731
38636SOL    HW117805  12.925  11.125  10.692
38636SOL    HW217806  12.945  11.050  10.822
38637SOL     OW17807  13.143   5.057   0.767
38637SOL    HW117808  13.166   5.022   0.681
38637SOL    HW217809  13.165   5.150   0.761
38638SOL     OW17810   8.547  10.432  13.310
38638SOL    HW117811   8.551  10.527  13.303
38638SOL    HW217812   8.454  10.412  13.322
38639SOL     OW17813  13.298   5.542   5.405
38639SOL    HW117814  13.382   5.572   5.371
38639SOL    HW217815  13.233   5.595   5.360
38640SOL     OW17816   4.351   2.876   2.242
38640SOL    HW117817   4.434   2.923   2.249
38640SOL    HW217818   4.293   2.919   2.306
38641SOL     OW17819  11.126   0.407   6.728
38641SOL    HW117820  11.184   0.483   6.721
38641SOL    HW217821  11.171   0.348   6.788
38642SOL     OW17822   7.143  14.696  13.990
38642SOL    HW117823   7.134  14.688  14.085
38642SOL    HW217824   7.053  14.695  13.957
38643SOL     OW17825  11.116   5.059  12.115
38643SOL    HW117826  11.024   5.040  12.097
38643SOL    HW217827  11.164   5.011  12.047
38644SOL     OW17828   6.083  11.238   6.128
38644SOL    HW117829   6.146  11.301   6.093
38644SOL    HW217830   6.117  11.215   6.214
38645SOL     OW17831   4.216   9.370   5.829
38645SOL    HW117832   4.222   9.301   5.764
38645SOL    HW217833   4.260   9.445   5.789
38646SOL     OW17834   6.818   8.053   4.598
38646SOL    HW117835   6.897   8.102   4.623
38646SOL    HW217836   6.822   8.048   4.503
38647SOL     OW17837  14.196   2.174   1.844
38647SOL    HW117838  14.102   2.160   1.860
38647SOL    HW217839  14.226   2.223   1.920
38648SOL     OW17840  10.046   9.237   0.370
38648SOL    HW117841   9.978   9.175   0.344
38648SOL    HW217842  10.004   9.293   0.436
38649SOL     OW17843   4.587   5.248  14.274
38649SOL    HW117844   4.599   5.315  14.341
38649SOL    HW217845   4.675   5.234  14.239
38650SOL     OW17846   3.050  10.599   3.293
38650SOL    HW117847   3.123  10.550   3.254
38650SOL    HW217848   3.041  10.562   3.381
38651SOL     OW17849  11.961  11.864   3.110
38651SOL    HW117850  11.884  11.852   3.164
38651SOL    HW217851  11.970  11.782   3.061
38652SOL     OW17852  12.007   3.445   9.958
38652SOL    HW117853  11.973   3.527   9.995
38652SOL    HW217854  12.101   3.460   9.948
38653SOL     OW17855   6.044  10.308  10.810
38653SOL    HW117856   6.074  10.222  10.781
38653SOL    HW217857   6.114  10.340  10.867
38654SOL     OW17858   0.028   2.920   9.442
38654SOL    HW117859   0.079   2.966   9.507
38654SOL    HW217860  14.809   2.944   9.460
38655SOL     OW17861  10.729  14.659   6.215
38655SOL    HW117862  10.728  14.663   6.311
38655SOL    HW217863  10.658  14.597   6.193
38656SOL     OW17864   4.291  11.720   5.588
38656SOL    HW117865   4.212  11.680   5.553
38656SOL    HW217866   4.361  11.659   5.565
38657SOL     OW17867  13.803   5.302  14.716
38657SOL    HW117868  13.791   5.283  14.809
38657SOL    HW217869  13.722   5.346  14.690
38658SOL     OW17870   8.291   4.804   7.642
38658SOL    HW117871   8.268   4.755   7.563
38658SOL    HW217872   8.215   4.859   7.658
38659SOL     OW17873  13.533   3.194   7.694
38659SOL    HW117874  13.444   3.161   7.681
38659SOL    HW217875  13.532   3.229   7.784
38660SOL     OW17876  11.738  10.172   4.766
38660SOL    HW117877  11.795  10.237   4.808
38660SOL    HW217878  11.795  10.098   4.747
38661SOL     OW17879   5.542   7.472   1.414
38661SOL    HW117880   5.480   7.400   1.427
38661SOL    HW217881   5.505   7.545   1.464
38662SOL     OW17882   6.906   0.685  11.434
38662SOL    HW117883   6.897   0.780  11.425
38662SOL    HW217884   6.954   0.674  11.516
38663SOL     OW17885  11.509   0.139   1.473
38663SOL    HW117886  11.439   0.118   1.534
38663SOL    HW217887  11.492   0.082   1.397
38664SOL     OW17888   8.379  11.627   1.372
38664SOL    HW117889   8.355  11.540   1.341
38664SOL    HW217890   8.396  11.615   1.466
38665SOL     OW17891  14.384   3.660  12.520
38665SOL    HW117892  14.450   3.648  12.588
38665SOL    HW217893  14.310   3.605  12.549
38666SOL     OW17894   2.841   7.147  12.640
38666SOL    HW117895   2.765   7.100  12.676
38666SOL    HW217896   2.821   7.157  12.547
38667SOL     OW17897   0.780  12.313   9.830
38667SOL    HW117898   0.692  12.300   9.864
38667SOL    HW217899   0.832  12.243   9.870
38668SOL     OW17900   9.988   7.672   1.345
38668SOL    HW117901   9.894   7.664   1.332
38668SOL    HW217902  10.008   7.611   1.416
38669SOL     OW17903  13.267   4.488   4.226
38669SOL    HW117904  13.333   4.553   4.201
38669SOL    HW217905  13.293   4.408   4.180
38670SOL     OW17906  10.802   8.319   7.221
38670SOL    HW117907  10.729   8.256   7.219
38670SOL    HW217908  10.828   8.322   7.313
38671SOL     OW17909  11.558  12.571   7.702
38671SOL    HW117910  11.606  12.500   7.746
38671SOL    HW217911  11.559  12.546   7.610
38672SOL     OW17912  12.662   5.655   7.173
38672SOL    HW117913  12.572   5.688   7.171
38672SOL    HW217914  12.653   5.563   7.196
38673SOL     OW17915   3.103   2.257   9.359
38673SOL    HW117916   3.008   2.250   9.349
38673SOL    HW217917   3.133   2.166   9.367
38674SOL     OW17918  11.253  14.766   2.465
38674SOL    HW117919  11.298  14.799   2.542
38674SOL    HW217920  11.161  14.790   2.478
38675SOL     OW17921   7.595  14.404   5.683
38675SOL    HW117922   7.650  14.424   5.607
38675SOL    HW217923   7.506  14.399   5.648
38676SOL     OW17924   6.526  12.126   2.446
38676SOL    HW117925   6.492  12.110   2.358
38676SOL    HW217926   6.612  12.084   2.446
38677SOL     OW17927   0.930   7.854   2.920
38677SOL    HW117928   0.981   7.935   2.919
38677SOL    HW217929   0.995   7.785   2.929
38678SOL     OW17930   7.655   2.920  14.596
38678SOL    HW117931   7.578   2.903  14.541
38678SOL    HW217932   7.692   3.001  14.562
38679SOL     OW17933   4.091   4.668   3.617
38679SOL    HW117934   4.062   4.672   3.526
38679SOL    HW217935   4.019   4.627   3.663
38680SOL     OW17936   6.426  11.598   5.785
38680SOL    HW117937   6.348  11.634   5.827
38680SOL    HW217938   6.393  11.560   5.703
38681SOL     OW17939   5.617   5.016  14.698
38681SOL    HW117940   5.551   5.081  14.677
38681SOL    HW217941   5.641   5.034  14.789
38682SOL     OW17942  10.669   3.958   1.646
38682SOL    HW117943  10.657   3.864   1.660
38682SOL    HW217944  10.614   3.978   1.570
38683SOL     OW17945  13.603   6.380  13.931
38683SOL    HW117946  13.561   6.300  13.962
38683SOL    HW217947  13.598   6.374  13.836
38684SOL     OW17948   6.328   8.840   6.650
38684SOL    HW117949   6.293   8.912   6.703
38684SOL    HW217950   6.368   8.884   6.574
38685SOL     OW17951  13.630   6.975   5.131
38685SOL    HW117952  13.596   7.054   5.173
38685SOL    HW217953  13.622   6.992   5.037
38686SOL     OW17954   4.531   3.911   9.108
38686SOL    HW117955   4.522   3.851   9.034
38686SOL    HW217956   4.572   3.989   9.071
38687SOL     OW17957   8.034   8.158  11.957
38687SOL    HW117958   7.964   8.207  12.000
38687SOL    HW217959   8.058   8.212  11.882
38688SOL     OW17960   4.740   5.931  12.943
38688SOL    HW117961   4.812   5.871  12.928
38688SOL    HW217962   4.676   5.880  12.992
38689SOL     OW17963  13.126   6.295  10.572
38689SOL    HW117964  13.053   6.356  10.573
38689SOL    HW217965  13.204   6.351  10.572
38690SOL     OW17966   3.453   3.527   1.455
38690SOL    HW117967   3.465   3.514   1.549
38690SOL    HW217968   3.375   3.583   1.449
38691SOL     OW17969  14.213  10.142  11.538
38691SOL    HW117970  14.222  10.063  11.592
38691SOL    HW217971  14.168  10.205  11.594
38692SOL     OW17972   5.722   6.731  13.000
38692SOL    HW117973   5.799   6.752  12.947
38692SOL    HW217974   5.680   6.816  13.014
38693SOL     OW17975   6.028  13.522  10.946
38693SOL    HW117976   5.975  13.472  11.008
38693SOL    HW217977   6.117  13.488  10.958
38694SOL     OW17978  14.290  13.002  13.293
38694SOL    HW117979  14.379  13.011  13.328
38694SOL    HW217980  14.248  13.086  13.313
38695SOL     OW17981   2.763  14.297  11.918
38695SOL    HW117982   2.749  14.236  11.991
38695SOL    HW217983   2.813  14.246  11.854
38696SOL     OW17984   1.187  14.486  14.208
38696SOL    HW117985   1.264  14.485  14.266
38696SOL    HW217986   1.220  14.521  14.125
38697SOL     OW17987   1.958  14.716  12.486
38697SOL    HW117988   1.876  14.698  12.442
38697SOL    HW217989   1.935  14.719  12.579
38698SOL     OW17990   3.047  14.153  12.007
38698SOL    HW117991   3.042  14.154  11.912
38698SOL    HW217992   3.088  14.236  12.030
38699SOL     OW17993   9.119   5.711  14.070
38699SOL    HW117994   9.137   5.770  13.997
38699SOL    HW217995   9.047   5.656  14.040
38700SOL     OW17996   9.674   5.546   3.869
38700SOL    HW117997   9.671   5.529   3.963
38700SOL    HW217998   9.599   5.603   3.852
38701SOL     OW17999  11.734   5.553  12.070
38701SOL    HW118000  11.791   5.590  12.002
38701SOL    HW218001  11.665   5.508  12.022
38702SOL     OW18002   2.804   8.556  12.643
38702SOL    HW118003   2.813   8.649  12.621
38702SOL    HW218004   2.836   8.549  12.733
38703SOL     OW18005  12.695   4.780  12.963
38703SOL    HW118006  12.637   4.705  12.981
38703SOL    HW218007  12.764   4.743  12.908
38704SOL     OW18008   8.865  11.366   8.210
38704SOL    HW118009   8.806  11.324   8.149
38704SOL    HW218010   8.952  11.357   8.170
38705SOL     OW18011   0.286   3.139  11.724
38705SOL    HW118012   0.320   3.113  11.810
38705SOL    HW218013   0.197   3.103  11.722
38706SOL     OW18014   7.573   7.600  10.126
38706SOL    HW118015   7.624   7.681  10.133
38706SOL    HW218016   7.611   7.543  10.193
38707SOL     OW18017   5.651  10.292   0.179
38707SOL    HW118018   5.728  10.284   0.123
38707SOL    HW218019   5.607  10.371   0.148
38708SOL     OW18020  13.656  11.019  14.046
38708SOL    HW118021  13.601  11.040  13.970
38708SOL    HW218022  13.612  10.944  14.087
38709SOL     OW18023   0.912   1.275   2.378
38709SOL    HW118024   0.976   1.257   2.310
38709SOL    HW218025   0.868   1.191   2.392
38710SOL     OW18026   1.418   3.874   5.748
38710SOL    HW118027   1.401   3.919   5.831
38710SOL    HW218028   1.368   3.793   5.754
38711SOL     OW18029   4.724  13.402   6.371
38711SOL    HW118030   4.700  13.371   6.459
38711SOL    HW218031   4.792  13.468   6.387
38712SOL     OW18032   1.191   1.635   1.847
38712SOL    HW118033   1.151   1.573   1.786
38712SOL    HW218034   1.275   1.656   1.808
38713SOL     OW18035   2.789   4.940  12.925
38713SOL    HW118036   2.699   4.975  12.920
38713SOL    HW218037   2.842   5.005  12.879
38714SOL     OW18038   5.117  13.223   8.330
38714SOL    HW118039   5.081  13.312   8.332
38714SOL    HW218040   5.142  13.209   8.239
38715SOL     OW18041  14.429   3.907   8.850
38715SOL    HW118042  14.405   3.835   8.793
38715SOL    HW218043  14.524   3.905   8.853
38716SOL     OW18044   4.454  10.944  13.062
38716SOL    HW118045   4.449  11.027  13.014
38716SOL    HW218046   4.377  10.895  13.033
38717SOL     OW18047  14.062   3.393   0.519
38717SOL    HW118048  14.147   3.384   0.562
38717SOL    HW218049  14.006   3.433   0.586
38718SOL     OW18050   1.515   8.731  10.162
38718SOL    HW118051   1.489   8.640  10.147
38718SOL    HW218052   1.611   8.728  10.167
38719SOL     OW18053   5.042   4.794   7.655
38719SOL    HW118054   5.086   4.877   7.635
38719SOL    HW218055   5.109   4.742   7.699
38720SOL     OW18056   5.893  11.032   4.389
38720SOL    HW118057   5.803  11.057   4.410
38720SOL    HW218058   5.903  11.054   4.297
38721SOL     OW18059   3.026  14.318   5.537
38721SOL    HW118060   2.950  14.358   5.496
38721SOL    HW218061   3.064  14.388   5.590
38722SOL     OW18062   2.577   2.788  14.778
38722SOL    HW118063   2.594   2.696  14.756
38722SOL    HW218064   2.589   2.835  14.696
38723SOL     OW18065   0.086   4.361   1.190
38723SOL    HW118066   0.061   4.444   1.148
38723SOL    HW218067   0.127   4.388   1.272
38724SOL     OW18068  10.208  13.227   7.638
38724SOL    HW118069  10.191  13.194   7.550
38724SOL    HW218070  10.263  13.304   7.624
38725SOL     OW18071   4.791   2.413   8.579
38725SOL    HW118072   4.696   2.420   8.590
38725SOL    HW218073   4.802   2.370   8.494
38726SOL     OW18074  10.048  12.528   8.543
38726SOL    HW118075  10.008  12.530   8.630
38726SOL    HW218076  10.119  12.465   8.551
38727SOL     OW18077  10.381   0.702   8.652
38727SOL    HW118078  10.340   0.747   8.726
38727SOL    HW218079  10.410   0.618   8.688
38728SOL     OW18080   2.498   3.566  11.509
38728SOL    HW118081   2.530   3.532  11.426
38728SOL    HW218082   2.445   3.494  11.545
38729SOL     OW18083  10.749   4.233   6.942
38729SOL    HW118084  10.808   4.188   6.881
38729SOL    HW218085  10.677   4.263   6.886
38730SOL     OW18086   0.294   3.317  13.125
38730SOL    HW118087   0.207   3.284  13.146
38730SOL    HW218088   0.352   3.241  13.137
38731SOL     OW18089  12.844  10.666   3.032
38731SOL    HW118090  12.827  10.581   2.990
38731SOL    HW218091  12.926  10.695   2.994
38732SOL     OW18092   6.161   4.552  10.280
38732SOL    HW118093   6.226   4.488  10.250
38732SOL    HW218094   6.212   4.628  10.305
38733SOL     OW18095   9.274   0.142   0.260
38733SOL    HW118096   9.234   0.219   0.219
38733SOL    HW218097   9.234   0.068   0.214
38734SOL     OW18098  10.615   6.740   7.118
38734SOL    HW118099  10.556   6.686   7.170
38734SOL    HW218100  10.696   6.744   7.169
38735SOL     OW18101   3.627   5.869  14.647
38735SOL    HW118102   3.708   5.858  14.597
38735SOL    HW218103   3.605   5.780  14.677
38736SOL     OW18104   5.289  11.154   0.267
38736SOL    HW118105   5.247  11.073   0.296
38736SOL    HW218106   5.312  11.138   0.175
38737SOL     OW18107  10.032   4.727   3.384
38737SOL    HW118108  10.025   4.817   3.354
38737SOL    HW218109  10.094   4.686   3.324
38738SOL     OW18110  11.053   7.128   3.776
38738SOL    HW118111  11.078   7.217   3.747
38738SOL    HW218112  10.993   7.143   3.848
38739SOL     OW18113   2.192   6.941   4.038
38739SOL    HW118114   2.262   6.877   4.021
38739SOL    HW218115   2.235   7.026   4.029
38740SOL     OW18116   3.223   1.816   2.669
38740SOL    HW118117   3.151   1.754   2.653
38740SOL    HW218118   3.209   1.847   2.759
38741SOL     OW18119  13.905   8.346  14.018
38741SOL    HW118120  13.899   8.251  14.015
38741SOL    HW218121  13.993   8.366  13.987
38742SOL     OW18122  10.131  11.024  13.040
38742SOL    HW118123  10.191  11.027  12.966
38742SOL    HW218124  10.142  11.109  13.083
38743SOL     OW18125  12.180  14.533  10.963
38743SOL    HW118126  12.219  14.539  11.051
38743SOL    HW218127  12.182  14.623  10.930
38744SOL     OW18128  11.779   8.006   1.766
38744SOL    HW118129  11.754   7.946   1.695
38744SOL    HW218130  11.766   8.093   1.729
38745SOL     OW18131   8.210   9.113  13.168
38745SOL    HW118132   8.197   9.033  13.219
38745SOL    HW218133   8.300   9.107  13.137
38746SOL     OW18134  10.089  10.868  12.577
38746SOL    HW118135  10.157  10.845  12.640
38746SOL    HW218136  10.107  10.959  12.554
38747SOL     OW18137  12.711  11.299  14.787
38747SOL    HW118138  12.720  11.392  14.766
38747SOL    HW218139  12.681  11.298   0.006
38748SOL     OW18140   0.464   0.191  10.315
38748SOL    HW118141   0.388   0.140  10.287
38748SOL    HW218142   0.446   0.280  10.286
38749SOL     OW18143   1.563   5.819   6.901
38749SOL    HW118144   1.566   5.725   6.885
38749SOL    HW218145   1.528   5.828   6.990
38750SOL     OW18146  11.753   4.949  12.701
38750SOL    HW118147  11.750   4.855  12.720
38750SOL    HW218148  11.746   4.991  12.786
38751SOL     OW18149   2.768   1.202  10.988
38751SOL    HW118150   2.721   1.188  11.071
38751SOL    HW218151   2.857   1.225  11.015
38752SOL     OW18152  14.326   8.309   4.309
38752SOL    HW118153  14.422   8.305   4.307
38752SOL    HW218154  14.302   8.356   4.230
38753SOL     OW18155   5.452  12.706   1.318
38753SOL    HW118156   5.426  12.616   1.297
38753SOL    HW218157   5.373  12.758   1.305
38754SOL     OW18158   9.883   1.501   7.775
38754SOL    HW118159   9.845   1.413   7.784
38754SOL    HW218160   9.965   1.497   7.825
38755SOL     OW18161   2.057   2.076   8.602
38755SOL    HW118162   2.023   2.161   8.572
38755SOL    HW218163   2.088   2.094   8.691
38756SOL     OW18164   1.074  11.153   9.295
38756SOL    HW118165   1.162  11.116   9.283
38756SOL    HW218166   1.015  11.086   9.262
38757SOL     OW18167  12.230   8.599  14.049
38757SOL    HW118168  12.196   8.517  14.084
38757SOL    HW218169  12.153   8.654  14.037
38758SOL     OW18170   8.773  10.674   6.641
38758SOL    HW118171   8.820  10.753   6.614
38758SOL    HW218172   8.717  10.653   6.567
38759SOL     OW18173   1.416  12.698   0.007
38759SOL    HW118174   1.433  12.731  14.791
38759SOL    HW218175   1.481  12.742   0.062
38760SOL     OW18176   2.380  13.550  11.147
38760SOL    HW118177   2.375  13.547  11.051
38760SOL    HW218178   2.289  13.551  11.176
38761SOL     OW18179  11.927   7.152  10.453
38761SOL    HW118180  11.953   7.172  10.363
38761SOL    HW218181  11.841   7.110  10.444
38762SOL     OW18182   2.227   8.397   6.941
38762SOL    HW118183   2.280   8.368   6.867
38762SOL    HW218184   2.267   8.355   7.017
38763SOL     OW18185  11.245   6.682   6.035
38763SOL    HW118186  11.161   6.705   6.073
38763SOL    HW218187  11.300   6.758   6.050
38764SOL     OW18188   7.014   4.537  13.836
38764SOL    HW118189   7.031   4.520  13.743
38764SOL    HW218190   6.939   4.481  13.856
38765SOL     OW18191   8.458  13.333   8.486
38765SOL    HW118192   8.412  13.281   8.420
38765SOL    HW218193   8.551  13.326   8.461
38766SOL     OW18194   5.398  10.376  13.453
38766SOL    HW118195   5.439  10.452  13.412
38766SOL    HW218196   5.320  10.411  13.496
38767SOL     OW18197   9.790   9.221   4.722
38767SOL    HW118198   9.799   9.302   4.771
38767SOL    HW218199   9.870   9.213   4.671
38768SOL     OW18200   5.349  14.246   0.098
38768SOL    HW118201   5.259  14.244   0.066
38768SOL    HW218202   5.355  14.173   0.159
38769SOL     OW18203   6.707  14.104  10.593
38769SOL    HW118204   6.731  14.015  10.567
38769SOL    HW218205   6.611  14.102  10.600
38770SOL     OW18206  12.913   7.094   2.396
38770SOL    HW118207  12.937   7.184   2.375
38770SOL    HW218208  12.884   7.057   2.312
38771SOL     OW18209  13.153   0.307   7.601
38771SOL    HW118210  13.168   0.375   7.666
38771SOL    HW218211  13.127   0.230   7.653
38772SOL     OW18212   5.572   9.719  12.778
38772SOL    HW118213   5.598   9.690  12.690
38772SOL    HW218214   5.508   9.653  12.806
38773SOL     OW18215   1.020   8.430   1.627
38773SOL    HW118216   1.039   8.353   1.680
38773SOL    HW218217   0.958   8.481   1.679
38774SOL     OW18218   4.675   8.781  14.544
38774SOL    HW118219   4.747   8.834  14.509
38774SOL    HW218220   4.632   8.746  14.466
38775SOL     OW18221   0.312  11.430   8.166
38775SOL    HW118222   0.333  11.510   8.214
38775SOL    HW218223   0.267  11.375   8.231
38776SOL     OW18224  14.440   2.674  11.759
38776SOL    HW118225  14.488   2.611  11.706
38776SOL    HW218226  14.348   2.649  11.747
38777SOL     OW18227   7.535   9.621   0.642
38777SOL    HW118228   7.575   9.708   0.634
38777SOL    HW218229   7.455   9.636   0.692
38778SOL     OW18230   8.408   4.513  14.412
38778SOL    HW118231   8.454   4.436  14.377
38778SOL    HW218232   8.452   4.588  14.372
38779SOL     OW18233   6.349  14.033  10.817
38779SOL    HW118234   6.406  14.094  10.864
38779SOL    HW218235   6.315  13.975  10.884
38780SOL     OW18236   6.642  10.209  13.872
38780SOL    HW118237   6.670  10.300  13.881
38780SOL    HW218238   6.719  10.157  13.896
38781SOL     OW18239   0.948   0.178   2.680
38781SOL    HW118240   1.042   0.190   2.697
38781SOL    HW218241   0.933   0.225   2.598
38782SOL     OW18242   8.081   2.654  12.010
38782SOL    HW118243   8.138   2.731  12.018
38782SOL    HW218244   8.000   2.687  11.974
38783SOL     OW18245   0.621  14.269   5.450
38783SOL    HW118246   0.668  14.344   5.488
38783SOL    HW218247   0.684  14.231   5.388
38784SOL     OW18248   5.529  12.098   2.519
38784SOL    HW118249   5.501  12.020   2.568
38784SOL    HW218250   5.485  12.090   2.435
38785SOL     OW18251   1.679  12.903   5.629
38785SOL    HW118252   1.636  12.917   5.545
38785SOL    HW218253   1.682  12.808   5.640
38786SOL     OW18254   8.945   9.635   2.020
38786SOL    HW118255   8.953   9.653   1.927
38786SOL    HW218256   8.959   9.719   2.063
38787SOL     OW18257   8.228  13.247   2.153
38787SOL    HW118258   8.184  13.293   2.082
38787SOL    HW218259   8.176  13.169   2.167
38788SOL     OW18260   6.589   2.100  11.239
38788SOL    HW118261   6.668   2.047  11.256
38788SOL    HW218262   6.604   2.138  11.152
38789SOL     OW18263   1.061   3.162  13.676
38789SOL    HW118264   1.048   3.226  13.746
38789SOL    HW218265   1.116   3.094  13.715
38790SOL     OW18266  14.798   1.477   7.957
38790SOL    HW118267  14.738   1.514   7.893
38790SOL    HW218268   0.012   1.483   7.915
38791SOL     OW18269   4.996   8.899   3.639
38791SOL    HW118270   4.914   8.904   3.689
38791SOL    HW218271   4.969   8.876   3.550
38792SOL     OW18272  13.335   6.832  13.065
38792SOL    HW118273  13.265   6.768  13.063
38792SOL    HW218274  13.386   6.809  13.143
38793SOL     OW18275   3.236   9.648   2.544
38793SOL    HW118276   3.156   9.693   2.572
38793SOL    HW218277   3.250   9.678   2.454
38794SOL     OW18278   3.683   2.557   5.555
38794SOL    HW118279   3.657   2.620   5.622
38794SOL    HW218280   3.774   2.537   5.575
38795SOL     OW18281   6.302   7.105   0.486
38795SOL    HW118282   6.393   7.117   0.459
38795SOL    HW218283   6.307   7.055   0.567
38796SOL     OW18284  13.922  10.080  11.482
38796SOL    HW118285  13.893   9.995  11.518
38796SOL    HW218286  14.017  10.079  11.493
38797SOL     OW18287   6.933  11.235   0.329
38797SOL    HW118288   7.000  11.249   0.262
38797SOL    HW218289   6.850  11.235   0.280
38798SOL     OW18290   1.644   4.306   8.276
38798SOL    HW118291   1.639   4.317   8.371
38798SOL    HW218292   1.610   4.218   8.261
38799SOL     OW18293   8.254   9.906   3.656
38799SOL    HW118294   8.263   9.875   3.566
38799SOL    HW218295   8.177   9.963   3.655
38800SOL     OW18296  10.879  12.481   1.931
38800SOL    HW118297  10.946  12.453   1.870
38800SOL    HW218298  10.922  12.548   1.985
38801SOL     OW18299   9.920  14.394  10.520
38801SOL    HW118300   9.942  14.322  10.462
38801SOL    HW218301   9.842  14.365  10.568
38802SOL     OW18302  10.932  13.161   8.964
38802SOL    HW118303  11.024  13.144   8.984
38802SOL    HW218304  10.890  13.076   8.974
38803SOL     OW18305   0.784  10.567  13.034
38803SOL    HW118306   0.749  10.651  13.062
38803SOL    HW218307   0.754  10.556  12.944
38804SOL     OW18308   7.461  10.829  13.767
38804SOL    HW118309   7.442  10.749  13.816
38804SOL    HW218310   7.500  10.799  13.685
38805SOL     OW18311   4.881   8.255  10.120
38805SOL    HW118312   4.827   8.227  10.194
38805SOL    HW218313   4.895   8.174  10.069
38806SOL     OW18314   2.822   4.845   5.768
38806SOL    HW118315   2.753   4.910   5.777
38806SOL    HW218316   2.897   4.882   5.816
38807SOL     OW18317   8.053   2.734  14.631
38807SOL    HW118318   8.118   2.796  14.595
38807SOL    HW218319   7.986   2.728  14.564
38808SOL     OW18320  12.766   2.322   8.188
38808SOL    HW118321  12.687   2.297   8.141
38808SOL    HW218322  12.757   2.416   8.200
38809SOL     OW18323   4.701  10.741   8.704
38809SOL    HW118324   4.620  10.767   8.660
38809SOL    HW218325   4.770  10.759   8.641
38810SOL     OW18326   2.985   4.704  13.410
38810SOL    HW118327   2.897   4.740  13.402
38810SOL    HW218328   3.009   4.681  13.320
38811SOL     OW18329   0.449   7.665   0.325
38811SOL    HW118330   0.430   7.641   0.416
38811SOL    HW218331   0.407   7.598   0.272
38812SOL     OW18332   1.906   2.228   6.039
38812SOL    HW118333   1.821   2.257   6.071
38812SOL    HW218334   1.966   2.299   6.059
38813SOL     OW18335   6.670   3.655  12.857
38813SOL    HW118336   6.596   3.703  12.892
38813SOL    HW218337   6.686   3.695  12.771
38814SOL     OW18338  10.101  13.481   1.996
38814SOL    HW118339  10.030  13.485   1.932
38814SOL    HW218340  10.155  13.558   1.976
38815SOL     OW18341   0.198  11.608   7.102
38815SOL    HW118342   0.283  11.639   7.132
38815SOL    HW218343   0.174  11.667   7.031
38816SOL     OW18344  11.145  11.964   4.475
38816SOL    HW118345  11.237  11.954   4.452
38816SOL    HW218346  11.106  12.008   4.399
38817SOL     OW18347   4.086   5.046   7.918
38817SOL    HW118348   4.079   4.956   7.952
38817SOL    HW218349   4.007   5.089   7.950
38818SOL     OW18350   4.076   4.108   4.288
38818SOL    HW118351   4.067   4.067   4.375
38818SOL    HW218352   4.163   4.146   4.288
38819SOL     OW18353   7.437   2.341  11.031
38819SOL    HW118354   7.446   2.319  11.124
38819SOL    HW218355   7.508   2.294  10.988
38820SOL     OW18356   4.221   3.491  12.165
38820SOL    HW118357   4.266   3.539  12.097
38820SOL    HW218358   4.291   3.456  12.221
38821SOL     OW18359   4.767  13.005  11.771
38821SOL    HW118360   4.807  13.030  11.854
38821SOL    HW218361   4.694  12.948  11.794
38822SOL     OW18362  10.915  11.920  14.544
38822SOL    HW118363  10.898  11.888  14.633
38822SOL    HW218364  11.007  11.896  14.528
38823SOL     OW18365   9.148   2.938   6.705
38823SOL    HW118366   9.121   2.897   6.787
38823SOL    HW218367   9.211   2.878   6.667
38824SOL     OW18368  14.536   9.724   1.384
38824SOL    HW118369  14.556   9.745   1.293
38824SOL    HW218370  14.470   9.655   1.379
38825SOL     OW18371   0.280   0.772   5.317
38825SOL    HW118372   0.308   0.818   5.397
38825SOL    HW218373   0.185   0.762   5.328
38826SOL     OW18374  10.751   1.521   2.458
38826SOL    HW118375  10.667   1.549   2.494
38826SOL    HW218376  10.802   1.602   2.449
38827SOL     OW18377   9.910   4.368  14.378
38827SOL    HW118378   9.859   4.394  14.301
38827SOL    HW218379   9.937   4.278  14.360
38828SOL     OW18380  12.907   5.360  12.540
38828SOL    HW118381  12.912   5.443  12.587
38828SOL    HW218382  12.998   5.341  12.516
38829SOL     OW18383   7.882   1.382  11.321
38829SOL    HW118384   7.839   1.344  11.245
38829SOL    HW218385   7.815   1.380  11.390
38830SOL     OW18386  12.052   0.987   6.222
38830SOL    HW118387  11.985   0.942   6.170
38830SOL    HW218388  12.134   0.946   6.195
38831SOL     OW18389   1.218   6.673   8.718
38831SOL    HW118390   1.295   6.682   8.773
38831SOL    HW218391   1.147   6.652   8.779
38832SOL     OW18392   6.219   4.227   6.076
38832SOL    HW118393   6.215   4.316   6.040
38832SOL    HW218394   6.220   4.170   5.999
38833SOL     OW18395   6.259   2.654   8.554
38833SOL    HW118396   6.255   2.558   8.547
38833SOL    HW218397   6.338   2.678   8.505
38834SOL     OW18398  13.365  14.439   0.059
38834SOL    HW118399  13.425  14.436  14.857
38834SOL    HW218400  13.307  14.512   0.040
38835SOL     OW18401   8.472   6.954   3.286
38835SOL    HW118402   8.519   6.921   3.210
38835SOL    HW218403   8.536   6.952   3.357
38836SOL     OW18404   7.097   2.994  10.085
38836SOL    HW118405   7.175   2.941  10.074
38836SOL    HW218406   7.067   3.011   9.996
38837SOL     OW18407   5.020   4.651  10.127
38837SOL    HW118408   4.932   4.615  10.131
38837SOL    HW218409   5.039   4.679  10.217
38838SOL     OW18410   4.992   5.249   7.929
38838SOL    HW118411   5.069   5.197   7.908
38838SOL    HW218412   4.939   5.193   7.985
38839SOL     OW18413   9.329   1.246   1.201
38839SOL    HW118414   9.370   1.282   1.280
38839SOL    HW218415   9.351   1.309   1.132
38840SOL     OW18416   3.651  11.284   5.196
38840SOL    HW118417   3.742  11.310   5.211
38840SOL    HW218418   3.602  11.324   5.269
38841SOL     OW18419   8.285   2.462  13.377
38841SOL    HW118420   8.286   2.424  13.465
38841SOL    HW218421   8.220   2.532  13.382
38842SOL     OW18422   7.871  11.702   2.172
38842SOL    HW118423   7.947  11.644   2.168
38842SOL    HW218424   7.809  11.657   2.229
38843SOL     OW18425   1.149   9.100  12.734
38843SOL    HW118426   1.154   9.017  12.687
38843SOL    HW218427   1.129   9.075  12.825
38844SOL     OW18428  11.200  10.661   3.552
38844SOL    HW118429  11.167  10.751   3.556
38844SOL    HW218430  11.171  10.621   3.634
38845SOL     OW18431  10.695  10.758   9.953
38845SOL    HW118432  10.688  10.707  10.033
38845SOL    HW218433  10.613  10.807   9.949
38846SOL     OW18434   7.389   3.527  12.072
38846SOL    HW118435   7.300   3.493  12.057
38846SOL    HW218436   7.380   3.588  12.145
38847SOL     OW18437   0.182   6.429   5.420
38847SOL    HW118438   0.275   6.451   5.433
38847SOL    HW218439   0.175   6.408   5.327
38848SOL     OW18440   3.261  10.424  12.593
38848SOL    HW118441   3.173  10.415  12.631
38848SOL    HW218442   3.316  10.449  12.666
38849SOL     OW18443   2.201  14.159  10.475
38849SOL    HW118444   2.270  14.093  10.474
38849SOL    HW218445   2.160  14.153  10.389
38850SOL     OW18446  14.758   0.687   9.224
38850SOL    HW118447  14.672   0.686   9.183
38850SOL    HW218448  14.814   0.732   9.162
38851SOL     OW18449  13.500   9.828  13.400
38851SOL    HW118450  13.468   9.917  13.414
38851SOL    HW218451  13.515   9.793  13.488
38852SOL     OW18452   8.902  13.808  11.672
38852SOL    HW118453   8.855  13.876  11.625
38852SOL    HW218454   8.964  13.771  11.608
38853SOL     OW18455  12.403   9.119   1.100
38853SOL    HW118456  12.389   9.194   1.158
38853SOL    HW218457  12.476   9.071   1.138
38854SOL     OW18458   9.697   6.833   1.256
38854SOL    HW118459   9.673   6.742   1.277
38854SOL    HW218460   9.676   6.842   1.163
38855SOL     OW18461  10.121  14.861   2.748
38855SOL    HW118462  10.041   0.035   2.773
38855SOL    HW218463  10.146   0.028   2.664
38856SOL     OW18464   0.183  10.832  11.063
38856SOL    HW118465   0.130  10.911  11.053
38856SOL    HW218466   0.120  10.760  11.062
38857SOL     OW18467   4.063   7.876   3.694
38857SOL    HW118468   4.152   7.885   3.727
38857SOL    HW218469   4.011   7.849   3.770
38858SOL     OW18470   0.315   2.039  12.585
38858SOL    HW118471   0.354   1.982  12.518
38858SOL    HW218472   0.306   1.982  12.662
38859SOL     OW18473   4.640  13.907   3.762
38859SOL    HW118474   4.718  13.885   3.710
38859SOL    HW218475   4.644  13.849   3.838
38860SOL     OW18476  11.522   1.291  13.264
38860SOL    HW118477  11.612   1.315  13.243
38860SOL    HW218478  11.522   1.195  13.259
38861SOL     OW18479   0.636   4.341  10.250
38861SOL    HW118480   0.708   4.280  10.263
38861SOL    HW218481   0.611   4.370  10.338
38862SOL     OW18482   7.566   7.911   8.539
38862SOL    HW118483   7.554   7.856   8.462
38862SOL    HW218484   7.561   7.850   8.613
38863SOL     OW18485  12.230   1.547   1.233
38863SOL    HW118486  12.322   1.524   1.220
38863SOL    HW218487  12.194   1.554   1.145
38864SOL     OW18488   4.707  11.236   1.689
38864SOL    HW118489   4.738  11.289   1.763
38864SOL    HW218490   4.701  11.298   1.616
38865SOL     OW18491  14.566  12.981   9.617
38865SOL    HW118492  14.563  12.997   9.523
38865SOL    HW218493  14.552  13.068   9.656
38866SOL     OW18494   8.177   2.897   4.708
38866SOL    HW118495   8.102   2.851   4.672
38866SOL    HW218496   8.153   2.913   4.800
38867SOL     OW18497  14.346  13.485   3.520
38867SOL    HW118498  14.299  13.510   3.440
38867SOL    HW218499  14.406  13.558   3.536
38868SOL     OW18500  10.271  14.586   5.655
38868SOL    HW118501  10.197  14.645   5.643
38868SOL    HW218502  10.234  14.509   5.697
38869SOL     OW18503   6.436  12.301   9.587
38869SOL    HW118504   6.484  12.222   9.611
38869SOL    HW218505   6.483  12.336   9.512
38870SOL     OW18506   0.631  12.725   9.358
38870SOL    HW118507   0.537  12.740   9.363
38870SOL    HW218508   0.670  12.813   9.364
38871SOL     OW18509  14.387  14.364   6.080
38871SOL    HW118510  14.349  14.278   6.067
38871SOL    HW218511  14.319  14.415   6.123
38872SOL     OW18512   9.571  13.114  11.327
38872SOL    HW118513   9.635  13.150  11.265
38872SOL    HW218514   9.609  13.131  11.413
38873SOL     OW18515  13.292  11.875   5.274
38873SOL    HW118516  13.252  11.798   5.233
38873SOL    HW218517  13.230  11.946   5.256
38874SOL     OW18518   1.546   5.115  10.314
38874SOL    HW118519   1.583   5.185  10.367
38874SOL    HW218520   1.468   5.154  10.275
38875SOL     OW18521   2.502  11.966  13.858
38875SOL    HW118522   2.449  11.926  13.927
38875SOL    HW218523   2.448  11.961  13.779
38876SOL     OW18524  13.778   7.807   2.185
38876SOL    HW118525  13.867   7.784   2.212
38876SOL    HW218526  13.788   7.884   2.130
38877SOL     OW18527   5.739  10.770  13.034
38877SOL    HW118528   5.831  10.785  13.058
38877SOL    HW218529   5.720  10.840  12.971
38878SOL     OW18530   6.696   1.023  13.669
38878SOL    HW118531   6.751   0.973  13.730
38878SOL    HW218532   6.690   1.110  13.708
38879SOL     OW18533   8.170   9.396  13.219
38879SOL    HW118534   8.258   9.402  13.184
38879SOL    HW218535   8.142   9.306  13.202
38880SOL     OW18536   6.756   1.422   3.537
38880SOL    HW118537   6.846   1.405   3.509
38880SOL    HW218538   6.765   1.482   3.611
38881SOL     OW18539   6.501   8.505   0.207
38881SOL    HW118540   6.484   8.449   0.131
38881SOL    HW218541   6.560   8.573   0.174
38882SOL     OW18542   7.629   3.363  14.248
38882SOL    HW118543   7.701   3.417  14.215
38882SOL    HW218544   7.672   3.293  14.297
38883SOL     OW18545   3.082   0.634   4.442
38883SOL    HW118546   3.018   0.563   4.440
38883SOL    HW218547   3.034   0.710   4.474
38884SOL     OW18548   2.688   5.885  10.169
38884SOL    HW118549   2.783   5.888  10.170
38884SOL    HW218550   2.666   5.862  10.078
38885SOL     OW18551   5.319   8.248   4.373
38885SOL    HW118552   5.296   8.333   4.411
38885SOL    HW218553   5.412   8.254   4.354
38886SOL     OW18554  11.223   6.162   4.328
38886SOL    HW118555  11.192   6.247   4.361
38886SOL    HW218556  11.259   6.118   4.404
38887SOL     OW18557   4.400  14.587  14.568
38887SOL    HW118558   4.397  14.613  14.660
38887SOL    HW218559   4.334  14.642  14.526
38888SOL     OW18560   3.631   3.179   8.424
38888SOL    HW118561   3.590   3.209   8.505
38888SOL    HW218562   3.599   3.089   8.414
38889SOL     OW18563   4.588   6.548  13.762
38889SOL    HW118564   4.591   6.578  13.672
38889SOL    HW218565   4.670   6.500  13.774
38890SOL     OW18566   8.135  12.632   2.319
38890SOL    HW118567   8.171  12.544   2.309
38890SOL    HW218568   8.084  12.629   2.400
38891SOL     OW18569   5.665   1.142   9.923
38891SOL    HW118570   5.672   1.124  10.017
38891SOL    HW218571   5.572   1.163   9.910
38892SOL     OW18572   3.219   2.929   9.280
38892SOL    HW118573   3.177   2.873   9.215
38892SOL    HW218574   3.312   2.906   9.274
38893SOL     OW18575  11.849   7.127   4.869
38893SOL    HW118576  11.778   7.190   4.873
38893SOL    HW218577  11.814   7.048   4.911
38894SOL     OW18578   0.356  12.065   0.007
38894SOL    HW118579   0.448  12.056   0.031
38894SOL    HW218580   0.309  12.057   0.090
38895SOL     OW18581  11.928   8.918   4.906
38895SOL    HW118582  12.004   8.865   4.884
38895SOL    HW218583  11.949   9.006   4.874
38896SOL     OW18584   1.729  10.530   2.113
38896SOL    HW118585   1.686  10.445   2.107
38896SOL    HW218586   1.693  10.581   2.041
38897SOL     OW18587  12.126   4.000   2.971
38897SOL    HW118588  12.150   3.970   2.883
38897SOL    HW218589  12.163   4.088   2.977
38898SOL     OW18590   5.321  12.458   1.231
38898SOL    HW118591   5.226  12.461   1.223
38898SOL    HW218592   5.353  12.443   1.142
38899SOL     OW18593  12.977  12.348   2.770
38899SOL    HW118594  13.005  12.429   2.812
38899SOL    HW218595  13.046  12.327   2.708
38900SOL     OW18596  14.584   0.244   3.497
38900SOL    HW118597  14.632   0.239   3.414
38900SOL    HW218598  14.506   0.295   3.477
38901SOL     OW18599  11.721   9.252   3.157
38901SOL    HW118600  11.808   9.221   3.182
38901SOL    HW218601  11.689   9.188   3.093
38902SOL     OW18602   8.187  10.390  14.268
38902SOL    HW118603   8.240  10.454  14.220
38902SOL    HW218604   8.170  10.432  14.352
38903SOL     OW18605  11.454   6.607  11.014
38903SOL    HW118606  11.427   6.515  11.010
38903SOL    HW218607  11.511   6.612  11.090
38904SOL     OW18608   2.872  11.997   5.972
38904SOL    HW118609   2.840  12.069   5.917
38904SOL    HW218610   2.862  11.919   5.917
38905SOL     OW18611   6.269   2.249   1.259
38905SOL    HW118612   6.306   2.336   1.271
38905SOL    HW218613   6.182   2.265   1.223
38906SOL     OW18614   4.593   3.056  14.137
38906SOL    HW118615   4.595   3.142  14.179
38906SOL    HW218616   4.637   3.069  14.053
38907SOL     OW18617   7.905   3.570  11.049
38907SOL    HW118618   7.975   3.624  11.086
38907SOL    HW218619   7.946   3.525  10.975
38908SOL     OW18620  14.427   6.101   2.723
38908SOL    HW118621  14.353   6.074   2.670
38908SOL    HW218622  14.454   6.186   2.686
38909SOL     OW18623  14.037  12.377   7.068
38909SOL    HW118624  14.096  12.373   6.992
38909SOL    HW218625  13.975  12.446   7.045
38910SOL     OW18626   0.466   7.120   0.816
38910SOL    HW118627   0.504   7.125   0.729
38910SOL    HW218628   0.501   7.039   0.853
38911SOL     OW18629   4.615   5.815   3.304
38911SOL    HW118630   4.534   5.791   3.259
38911SOL    HW218631   4.681   5.816   3.235
38912SOL     OW18632   7.215  11.945  10.833
38912SOL    HW118633   7.190  11.854  10.814
38912SOL    HW218634   7.133  11.992  10.842
38913SOL     OW18635   5.890  13.335   7.801
38913SOL    HW118636   5.934  13.261   7.761
38913SOL    HW218637   5.848  13.300   7.879
38914SOL     OW18638   4.020  10.535   4.812
38914SOL    HW118639   4.070  10.467   4.766
38914SOL    HW218640   3.980  10.490   4.886
38915SOL     OW18641   8.331  11.330  14.658
38915SOL    HW118642   8.265  11.326  14.727
38915SOL    HW218643   8.362  11.421  14.659
38916SOL     OW18644   9.770   8.783  12.799
38916SOL    HW118645   9.744   8.849  12.735
38916SOL    HW218646   9.706   8.712  12.788
38917SOL     OW18647   1.362   0.259  14.834
38917SOL    HW118648   1.436   0.241  14.776
38917SOL    HW218649   1.396   0.324   0.024
38918SOL     OW18650   6.833   2.536   8.286
38918SOL    HW118651   6.751   2.490   8.268
38918SOL    HW218652   6.828   2.616   8.235
38919SOL     OW18653  13.062  14.853   2.470
38919SOL    HW118654  12.981   0.031   2.482
38919SOL    HW218655  13.086  14.868   2.379
38920SOL     OW18656   5.380   9.627   2.214
38920SOL    HW118657   5.310   9.563   2.230
38920SOL    HW218658   5.336   9.699   2.169
38921SOL     OW18659   2.840   4.482   0.914
38921SOL    HW118660   2.807   4.571   0.897
38921SOL    HW218661   2.798   4.457   0.997
38922SOL     OW18662  10.578   3.255   2.681
38922SOL    HW118663  10.501   3.307   2.658
38922SOL    HW218664  10.571   3.241   2.775
38923SOL     OW18665  12.332   2.452   9.324
38923SOL    HW118666  12.371   2.370   9.294
38923SOL    HW218667  12.395   2.488   9.387
38924SOL     OW18668   6.341  12.085   6.461
38924SOL    HW118669   6.329  11.990   6.459
38924SOL    HW218670   6.414  12.101   6.400
38925SOL     OW18671   0.425  14.713   9.175
38925SOL    HW118672   0.477  14.751   9.104
38925SOL    HW218673   0.402  14.788   9.230
38926SOL     OW18674   2.917   1.372  11.800
38926SOL    HW118675   2.855   1.398  11.733
38926SOL    HW218676   3.002   1.370  11.755
38927SOL     OW18677  11.800  12.710  11.946
38927SOL    HW118678  11.896  12.712  11.944
38927SOL    HW218679  11.777  12.617  11.941
38928SOL     OW18680   2.153   9.997   4.991
38928SOL    HW118681   2.159   9.976   5.084
38928SOL    HW218682   2.203  10.078   4.981
38929SOL     OW18683   4.510   1.640   2.134
38929SOL    HW118684   4.541   1.630   2.044
38929SOL    HW218685   4.589   1.662   2.184
38930SOL     OW18686   5.772   1.283   8.495
38930SOL    HW118687   5.756   1.267   8.402
38930SOL    HW218688   5.798   1.375   8.499
38931SOL     OW18689   4.653   0.019   8.084
38931SOL    HW118690   4.597   0.088   8.121
38931SOL    HW218691   4.733   0.064   8.058
38932SOL     OW18692  13.705   6.932   0.116
38932SOL    HW118693  13.619   6.970   0.097
38932SOL    HW218694  13.736   6.981   0.192
38933SOL     OW18695   0.646  11.611  10.065
38933SOL    HW118696   0.720  11.671  10.078
38933SOL    HW218697   0.570  11.660  10.098
38934SOL     OW18698   3.096   3.680   0.498
38934SOL    HW118699   3.176   3.629   0.487
38934SOL    HW218700   3.046   3.664   0.418
38935SOL     OW18701   1.955   8.908  11.209
38935SOL    HW118702   1.945   8.881  11.300
38935SOL    HW218703   1.969   9.003  11.213
38936SOL     OW18704   3.139   5.458   5.581
38936SOL    HW118705   3.062   5.403   5.597
38936SOL    HW218706   3.213   5.396   5.585
38937SOL     OW18707   2.514   7.796   0.944
38937SOL    HW118708   2.518   7.766   0.853
38937SOL    HW218709   2.464   7.877   0.940
38938SOL     OW18710  13.317  11.745   7.118
38938SOL    HW118711  13.336  11.705   7.033
38938SOL    HW218712  13.396  11.793   7.140
38939SOL     OW18713   8.598  13.794  14.705
38939SOL    HW118714   8.523  13.833  14.749
38939SOL    HW218715   8.672  13.850  14.727
38940SOL     OW18716   8.730   1.970   1.445
38940SOL    HW118717   8.639   1.987   1.420
38940SOL    HW218718   8.769   2.056   1.457
38941SOL     OW18719   4.310   6.083   2.142
38941SOL    HW118720   4.270   6.019   2.083
38941SOL    HW218721   4.382   6.036   2.183
38942SOL     OW18722  13.940  11.401   4.879
38942SOL    HW118723  14.022  11.392   4.929
38942SOL    HW218724  13.889  11.324   4.903
38943SOL     OW18725   6.357   3.474   6.159
38943SOL    HW118726   6.375   3.555   6.112
38943SOL    HW218727   6.388   3.405   6.100
38944SOL     OW18728   6.266  14.654   4.960
38944SOL    HW118729   6.303  14.612   4.882
38944SOL    HW218730   6.270  14.587   5.028
38945SOL     OW18731  13.364  12.329   8.988
38945SOL    HW118732  13.273  12.318   8.960
38945SOL    HW218733  13.360  12.334   9.083
38946SOL     OW18734  13.763  14.582  10.234
38946SOL    HW118735  13.778  14.651  10.169
38946SOL    HW218736  13.706  14.519  10.191
38947SOL     OW18737   9.118   9.286  13.896
38947SOL    HW118738   9.090   9.376  13.914
38947SOL    HW218739   9.095   9.237  13.975
38948SOL     OW18740   0.946   8.616  11.206
38948SOL    HW118741   0.887   8.611  11.281
38948SOL    HW218742   0.949   8.527  11.172
38949SOL     OW18743  12.043   5.624  14.533
38949SOL    HW118744  12.093   5.639  14.453
38949SOL    HW218745  12.078   5.541  14.567
38950SOL     OW18746   2.468  14.586   4.977
38950SOL    HW118747   2.440  14.659   5.032
38950SOL    HW218748   2.510  14.525   5.037
38951SOL     OW18749  10.094  13.434   6.269
38951SOL    HW118750  10.115  13.503   6.206
38951SOL    HW218751  10.006  13.405   6.244
38952SOL     OW18752   4.111  13.457   5.822
38952SOL    HW118753   4.015  13.458   5.829
38952SOL    HW218754   4.132  13.537   5.774
38953SOL     OW18755   8.052   4.312   9.633
38953SOL    HW118756   8.114   4.376   9.668
38953SOL    HW218757   8.091   4.282   9.552
38954SOL     OW18758   7.924  12.297  10.748
38954SOL    HW118759   7.963  12.384  10.746
38954SOL    HW218760   7.913  12.273  10.656
38955SOL     OW18761   3.683  10.530   6.970
38955SOL    HW118762   3.727  10.555   6.889
38955SOL    HW218763   3.599  10.576   6.968
38956SOL     OW18764   3.591   5.703   9.904
38956SOL    HW118765   3.510   5.731   9.862
38956SOL    HW218766   3.644   5.783   9.910
38957SOL     OW18767  12.288  11.840   9.406
38957SOL    HW118768  12.272  11.911   9.344
38957SOL    HW218769  12.309  11.764   9.351
38958SOL     OW18770   5.734  13.032   3.662
38958SOL    HW118771   5.686  13.059   3.740
38958SOL    HW218772   5.824  13.022   3.692
38959SOL     OW18773   4.565  11.583  11.857
38959SOL    HW118774   4.645  11.531  11.858
38959SOL    HW218775   4.576  11.647  11.927
38960SOL     OW18776   0.702   0.371   3.957
38960SOL    HW118777   0.638   0.315   4.002
38960SOL    HW218778   0.732   0.317   3.884
38961SOL     OW18779  10.427  11.876   1.993
38961SOL    HW118780  10.462  11.873   2.082
38961SOL    HW218781  10.347  11.823   1.997
38962SOL     OW18782   7.534  13.494  10.069
38962SOL    HW118783   7.492  13.446  10.140
38962SOL    HW218784   7.604  13.543  10.111
38963SOL     OW18785  12.815  12.272   8.566
38963SOL    HW118786  12.820  12.322   8.484
38963SOL    HW218787  12.722  12.276   8.590
38964SOL     OW18788   9.456   7.882   4.510
38964SOL    HW118789   9.489   7.815   4.450
38964SOL    HW218790   9.484   7.965   4.471
38965SOL     OW18791   5.754  13.429   6.693
38965SOL    HW118792   5.783  13.403   6.605
38965SOL    HW218793   5.832  13.421   6.747
38966SOL     OW18794   8.340   7.454  14.219
38966SOL    HW118795   8.255   7.498  14.218
38966SOL    HW218796   8.332   7.386  14.286
38967SOL     OW18797  12.628   0.794   0.062
38967SOL    HW118798  12.603   0.702   0.057
38967SOL    HW218799  12.549   0.838   0.092
38968SOL     OW18800   5.543   2.414  10.157
38968SOL    HW118801   5.512   2.357  10.228
38968SOL    HW218802   5.483   2.396  10.085
38969SOL     OW18803  12.758  13.023  10.369
38969SOL    HW118804  12.695  12.951  10.379
38969SOL    HW218805  12.795  13.010  10.282
38970SOL     OW18806   2.645   2.826   7.330
38970SOL    HW118807   2.654   2.856   7.240
38970SOL    HW218808   2.642   2.906   7.382
38971SOL     OW18809  11.693   8.625  10.317
38971SOL    HW118810  11.695   8.530  10.309
38971SOL    HW218811  11.726   8.643  10.405
38972SOL     OW18812  13.296   2.608  14.098
38972SOL    HW118813  13.385   2.574  14.101
38972SOL    HW218814  13.243   2.542  14.141
38973SOL     OW18815   5.183  14.455   1.591
38973SOL    HW118816   5.117  14.386   1.592
38973SOL    HW218817   5.260  14.415   1.551
38974SOL     OW18818  13.608   2.992  10.908
38974SOL    HW118819  13.559   2.911  10.895
38974SOL    HW218820  13.696   2.963  10.931
38975SOL     OW18821   6.363  11.514   6.613
38975SOL    HW118822   6.297  11.471   6.557
38975SOL    HW218823   6.399  11.584   6.559
38976SOL     OW18824   3.052   6.099   7.661
38976SOL    HW118825   3.108   6.164   7.703
38976SOL    HW218826   2.978   6.089   7.722
38977SOL     OW18827   5.864   7.413  13.109
38977SOL    HW118828   5.808   7.410  13.187
38977SOL    HW218829   5.804   7.401  13.036
38978SOL     OW18830   4.791   7.139   4.823
38978SOL    HW118831   4.847   7.070   4.787
38978SOL    HW218832   4.750   7.099   4.900
38979SOL     OW18833  10.635   0.515   3.498
38979SOL    HW118834  10.688   0.465   3.436
38979SOL    HW218835  10.698   0.556   3.557
38980SOL     OW18836  10.357   5.873  11.705
38980SOL    HW118837  10.425   5.805  11.702
38980SOL    HW218838  10.298   5.852  11.633
38981SOL     OW18839  11.711   5.739  13.748
38981SOL    HW118840  11.736   5.799  13.678
38981SOL    HW218841  11.639   5.688  13.711
38982SOL     OW18842   3.712   8.114  11.731
38982SOL    HW118843   3.675   8.064  11.657
38982SOL    HW218844   3.712   8.205  11.701
38983SOL     OW18845   1.762   7.616   4.098
38983SOL    HW118846   1.720   7.530   4.087
38983SOL    HW218847   1.696   7.670   4.141
38984SOL     OW18848   2.167   7.354   3.494
38984SOL    HW118849   2.234   7.420   3.513
38984SOL    HW218850   2.096   7.374   3.555
38985SOL     OW18851   9.081   1.270   4.528
38985SOL    HW118852   9.138   1.347   4.530
38985SOL    HW218853   9.046   1.263   4.617
38986SOL     OW18854   5.784   5.446   6.027
38986SOL    HW118855   5.746   5.441   5.939
38986SOL    HW218856   5.875   5.416   6.015
38987SOL     OW18857   9.975   0.497   6.513
38987SOL    HW118858   9.884   0.480   6.536
38987SOL    HW218859   9.971   0.574   6.456
38988SOL     OW18860  11.411  10.506   0.586
38988SOL    HW118861  11.340  10.443   0.570
38988SOL    HW218862  11.415  10.513   0.681
38989SOL     OW18863  11.793   6.523   8.978
38989SOL    HW118864  11.744   6.506   9.058
38989SOL    HW218865  11.875   6.475   8.990
38990SOL     OW18866  10.384   2.571  14.827
38990SOL    HW118867  10.312   2.522  14.867
38990SOL    HW218868  10.357   2.662  14.831
38991SOL     OW18869   3.365  11.308  10.154
38991SOL    HW118870   3.442  11.325  10.209
38991SOL    HW218871   3.351  11.213  10.161
38992SOL     OW18872   0.522  12.060   3.992
38992SOL    HW118873   0.591  12.059   3.926
38992SOL    HW218874   0.565  12.035   4.073
38993SOL     OW18875  11.015   7.718  10.769
38993SOL    HW118876  11.031   7.658  10.695
38993SOL    HW218877  10.924   7.702  10.794
38994SOL     OW18878  12.922   5.200   3.333
38994SOL    HW118879  12.935   5.122   3.279
38994SOL    HW218880  12.912   5.165   3.422
38995SOL     OW18881   9.222   9.596   0.011
38995SOL    HW118882   9.207   9.686   0.039
38995SOL    HW218883   9.163   9.583  14.810
38996SOL     OW18884   4.176  11.616   2.039
38996SOL    HW118885   4.103  11.676   2.025
38996SOL    HW218886   4.136  11.537   2.075
38997SOL     OW18887   9.649   3.656   8.616
38997SOL    HW118888   9.610   3.576   8.581
38997SOL    HW218889   9.608   3.727   8.566
38998SOL     OW18890  14.311  12.630  11.320
38998SOL    HW118891  14.255  12.691  11.368
38998SOL    HW218892  14.324  12.557  11.380
38999SOL     OW18893  13.206  13.558   9.135
38999SOL    HW118894  13.262  13.600   9.070
38999SOL    HW218895  13.208  13.618   9.210
39000SOL     OW18896  12.236   9.093   7.956
39000SOL    HW118897  12.273   9.011   7.922
39000SOL    HW218898  12.247   9.087   8.051
39001SOL     OW18899  11.664  11.031  12.524
39001SOL    HW118900  11.640  10.939  12.511
39001SOL    HW218901  11.758  11.028  12.541
39002SOL     OW18902  10.945  10.848   9.944
39002SOL    HW118903  10.849  10.846   9.944
39002SOL    HW218904  10.968  10.909  10.013
39003SOL     OW18905   4.660   7.257   9.671
39003SOL    HW118906   4.732   7.201   9.699
39003SOL    HW218907   4.700   7.317   9.607
39004SOL     OW18908   5.064   3.210   9.290
39004SOL    HW118909   5.101   3.297   9.301
39004SOL    HW218910   5.019   3.192   9.373
39005SOL     OW18911  13.494  11.348   5.713
39005SOL    HW118912  13.427  11.391   5.766
39005SOL    HW218913  13.491  11.256   5.740
39006SOL     OW18914   0.521   6.915  12.067
39006SOL    HW118915   0.570   6.838  12.098
39006SOL    HW218916   0.468   6.882  11.995
39007SOL     OW18917   3.980  11.453  14.747
39007SOL    HW118918   3.924  11.458  14.669
39007SOL    HW218919   4.037  11.530  14.739
39008SOL     OW18920  13.848   1.927   0.256
39008SOL    HW118921  13.785   1.939   0.185
39008SOL    HW218922  13.882   2.015   0.272
39009SOL     OW18923  13.477   6.190   7.858
39009SOL    HW118924  13.389   6.226   7.848
39009SOL    HW218925  13.470   6.130   7.932
39010SOL     OW18926   8.466   2.468   1.977
39010SOL    HW118927   8.535   2.506   2.032
39010SOL    HW218928   8.435   2.541   1.924
39011SOL     OW18929  12.194   8.610   0.046
39011SOL    HW118930  12.181   8.516   0.054
39011SOL    HW218931  12.231   8.623  14.832
39012SOL     OW18932   8.636   4.490   2.366
39012SOL    HW118933   8.700   4.433   2.324
39012SOL    HW218934   8.635   4.569   2.312
39013SOL     OW18935   5.508  13.045   2.437
39013SOL    HW118936   5.561  13.087   2.505
39013SOL    HW218937   5.446  13.113   2.410
39014SOL     OW18938   6.354   4.280   7.738
39014SOL    HW118939   6.368   4.326   7.821
39014SOL    HW218940   6.304   4.342   7.685
39015SOL     OW18941   7.348   3.344   5.579
39015SOL    HW118942   7.401   3.273   5.542
39015SOL    HW218943   7.258   3.320   5.558
39016SOL     OW18944   5.641   1.626   6.813
39016SOL    HW118945   5.725   1.600   6.850
39016SOL    HW218946   5.623   1.561   6.745
39017SOL     OW18947  13.831   8.378   1.803
39017SOL    HW118948  13.910   8.380   1.748
39017SOL    HW218949  13.856   8.324   1.878
39018SOL     OW18950   9.271   3.609   6.533
39018SOL    HW118951   9.331   3.668   6.578
39018SOL    HW218952   9.328   3.542   6.493
39019SOL     OW18953   9.376   9.836  13.939
39019SOL    HW118954   9.431   9.835  13.861
39019SOL    HW218955   9.437   9.833  14.012
39020SOL     OW18956   6.024  11.178   5.265
39020SOL    HW118957   6.014  11.261   5.313
39020SOL    HW218958   6.109  11.185   5.222
39021SOL     OW18959   0.537   6.807   1.984
39021SOL    HW118960   0.497   6.766   2.060
39021SOL    HW218961   0.624   6.767   1.977
39022SOL     OW18962   3.509   1.614  12.132
39022SOL    HW118963   3.582   1.644  12.185
39022SOL    HW218964   3.501   1.680  12.062
39023SOL     OW18965  11.149   3.298   8.727
39023SOL    HW118966  11.237   3.268   8.701
39023SOL    HW218967  11.155   3.308   8.822
39024SOL     OW18968  13.388   0.885   6.662
39024SOL    HW118969  13.320   0.824   6.692
39024SOL    HW218970  13.380   0.884   6.566
39025SOL     OW18971   3.811   9.839   8.086
39025SOL    HW118972   3.845   9.924   8.112
39025SOL    HW218973   3.733   9.859   8.034
39026SOL     OW18974   9.068  12.242   2.121
39026SOL    HW118975   9.094  12.195   2.042
39026SOL    HW218976   8.979  12.211   2.138
39027SOL     OW18977   5.043   1.449  14.753
39027SOL    HW118978   5.034   1.541  14.729
39027SOL    HW218979   5.128   1.445  14.798
39028SOL     OW18980   6.960   2.910  12.529
39028SOL    HW118981   6.949   2.844  12.460
39028SOL    HW218982   7.033   2.964  12.500
39029SOL     OW18983  12.526   1.290  12.009
39029SOL    HW118984  12.460   1.248  11.954
39029SOL    HW218985  12.609   1.271  11.965
39030SOL     OW18986   9.782   9.239   6.093
39030SOL    HW118987   9.825   9.266   6.011
39030SOL    HW218988   9.696   9.281   6.090
39031SOL     OW18989  14.158  13.019   8.687
39031SOL    HW118990  14.078  13.037   8.736
39031SOL    HW218991  14.219  13.088   8.714
39032SOL     OW18992   5.183  14.515   8.387
39032SOL    HW118993   5.246  14.468   8.441
39032SOL    HW218994   5.098  14.486   8.419
39033SOL     OW18995   6.857  14.180   2.843
39033SOL    HW118996   6.764  14.161   2.829
39033SOL    HW218997   6.877  14.137   2.927
39034SOL     OW18998   6.911   4.672  12.776
39034SOL    HW118999   6.970   4.746  12.789
39034SOL    HW219000   6.830   4.698  12.822
39035SOL     OW19001   2.847   4.053   6.304
39035SOL    HW119002   2.886   3.968   6.286
39035SOL    HW219003   2.856   4.102   6.222
39036SOL     OW19004   5.211   2.475   2.737
39036SOL    HW119005   5.286   2.425   2.705
39036SOL    HW219006   5.159   2.493   2.659
39037SOL     OW19007   6.047  11.887  14.428
39037SOL    HW119008   6.133  11.848  14.446
39037SOL    HW219009   6.067  11.971  14.386
39038SOL     OW19010   7.041   5.601   1.597
39038SOL    HW119011   6.989   5.678   1.619
39038SOL    HW219012   7.131   5.625   1.621
39039SOL     OW19013  12.941  10.252  14.415
39039SOL    HW119014  13.018  10.195  14.412
39039SOL    HW219015  12.933  10.277  14.507
39040SOL     OW19016   4.506   4.856   3.539
39040SOL    HW119017   4.484   4.922   3.474
39040SOL    HW219018   4.598   4.835   3.521
39041SOL     OW19019   7.956   6.984  12.119
39041SOL    HW119020   7.987   6.896  12.099
39041SOL    HW219021   7.887   7.000  12.054
39042SOL     OW19022   7.903   5.648   2.293
39042SOL    HW119023   7.947   5.728   2.323
39042SOL    HW219024   7.933   5.637   2.202
39043SOL     OW19025   8.922  11.066  10.627
39043SOL    HW119026   8.970  11.113  10.695
39043SOL    HW219027   8.878  10.995  10.674
39044SOL     OW19028  13.463   1.570   8.752
39044SOL    HW119029  13.467   1.626   8.675
39044SOL    HW219030  13.470   1.481   8.716
39045SOL     OW19031   3.623  10.406  13.828
39045SOL    HW119032   3.531  10.381  13.829
39045SOL    HW219033   3.655  10.375  13.743
39046SOL     OW19034  11.414  12.797   6.780
39046SOL    HW119035  11.350  12.758   6.840
39046SOL    HW219036  11.489  12.736   6.783
39047SOL     OW19037   2.975   4.109  12.639
39047SOL    HW119038   2.977   4.202  12.617
39047SOL    HW219039   3.009   4.065  12.561
39048SOL     OW19040   4.343  13.518   8.743
39048SOL    HW119041   4.376  13.555   8.661
39048SOL    HW219042   4.395  13.438   8.756
39049SOL     OW19043   5.409  11.428   8.775
39049SOL    HW119044   5.475  11.496   8.785
39049SOL    HW219045   5.428  11.366   8.846
39050SOL     OW19046   3.093   0.195   3.427
39050SOL    HW119047   3.057   0.129   3.369
39050SOL    HW219048   3.156   0.148   3.481
39051SOL     OW19049   7.619   7.707   3.515
39051SOL    HW119050   7.654   7.767   3.581
39051SOL    HW219051   7.525   7.704   3.534
39052SOL     OW19052   8.406   1.360  11.728
39052SOL    HW119053   8.345   1.329  11.661
39052SOL    HW219054   8.466   1.418  11.681
39053SOL     OW19055   8.162   5.886   0.991
39053SOL    HW119056   8.185   5.861   0.902
39053SOL    HW219057   8.090   5.948   0.981
39054SOL     OW19058  10.843  10.872   2.149
39054SOL    HW119059  10.905  10.826   2.093
39054SOL    HW219060  10.770  10.893   2.091
39055SOL     OW19061   4.306  13.431  13.007
39055SOL    HW119062   4.220  13.460  12.976
39055SOL    HW219063   4.335  13.367  12.942
39056SOL     OW19064   0.359   2.704   8.788
39056SOL    HW119065   0.421   2.713   8.716
39056SOL    HW219066   0.273   2.701   8.745
39057SOL     OW19067  11.802   5.840   7.207
39057SOL    HW119068  11.801   5.747   7.188
39057SOL    HW219069  11.755   5.848   7.290
39058SOL     OW19070  14.650   8.643   2.507
39058SOL    HW119071  14.745   8.643   2.492
39058SOL    HW219072  14.640   8.614   2.598
39059SOL     OW19073   7.092   3.237   1.790
39059SOL    HW119074   7.156   3.259   1.723
39059SOL    HW219075   7.024   3.189   1.743
39060SOL     OW19076   0.922   2.967  12.122
39060SOL    HW119077   0.946   2.882  12.085
39060SOL    HW219078   0.975   2.974  12.202
39061SOL     OW19079   8.390   7.875   8.162
39061SOL    HW119080   8.451   7.830   8.220
39061SOL    HW219081   8.445   7.912   8.092
39062SOL     OW19082   4.268   8.743  13.017
39062SOL    HW119083   4.308   8.664  12.981
39062SOL    HW219084   4.316   8.759  13.099
39063SOL     OW19085   7.761   4.672   6.168
39063SOL    HW119086   7.725   4.589   6.198
39063SOL    HW219087   7.790   4.717   6.248
39064SOL     OW19088   5.829   0.636  13.005
39064SOL    HW119089   5.823   0.596  12.919
39064SOL    HW219090   5.739   0.664  13.025
39065SOL     OW19091   7.017   9.920   5.335
39065SOL    HW119092   7.083   9.902   5.403
39065SOL    HW219093   6.937   9.937   5.385
39066SOL     OW19094   1.928   7.979  11.443
39066SOL    HW119095   1.989   8.044  11.409
39066SOL    HW219096   1.845   8.026  11.453
39067SOL     OW19097   5.704   6.420   0.475
39067SOL    HW119098   5.777   6.401   0.533
39067SOL    HW219099   5.665   6.500   0.511
39068SOL     OW19100   8.377   4.307  10.745
39068SOL    HW119101   8.312   4.264  10.800
39068SOL    HW219102   8.327   4.343  10.672
39069SOL     OW19103   8.603   7.210  12.543
39069SOL    HW119104   8.538   7.149  12.507
39069SOL    HW219105   8.684   7.159  12.547
39070SOL     OW19106   0.040   1.313   0.516
39070SOL    HW119107   0.095   1.240   0.547
39070SOL    HW219108   0.038   1.374   0.589
39071SOL     OW19109   9.653  12.925   0.228
39071SOL    HW119110   9.684  12.836   0.210
39071SOL    HW219111   9.638  12.927   0.322
39072SOL     OW19112   5.387  12.223   6.022
39072SOL    HW119113   5.360  12.201   5.933
39072SOL    HW219114   5.309  12.264   6.061
39073SOL     OW19115   4.687   9.249  13.726
39073SOL    HW119116   4.611   9.306  13.740
39073SOL    HW219117   4.762   9.309  13.723
39074SOL     OW19118  14.115   7.031   2.417
39074SOL    HW119119  14.153   7.086   2.348
39074SOL    HW219120  14.170   7.047   2.494
39075SOL     OW19121  12.079   1.121  14.026
39075SOL    HW119122  12.047   1.032  14.007
39075SOL    HW219123  12.071   1.129  14.121
39076SOL     OW19124   3.483   6.577  12.246
39076SOL    HW119125   3.546   6.579  12.174
39076SOL    HW219126   3.511   6.502  12.300
39077SOL     OW19127   8.525   9.536   1.690
39077SOL    HW119128   8.445   9.589   1.691
39077SOL    HW219129   8.556   9.540   1.599
39078SOL     OW19130   0.287  14.172  12.340
39078SOL    HW119131   0.284  14.158  12.246
39078SOL    HW219132   0.219  14.114  12.375
39079SOL     OW19133  14.647   1.703   1.166
39079SOL    HW119134  14.693   1.737   1.242
39079SOL    HW219135  14.649   1.608   1.177
39080SOL     OW19136   5.300   7.076   7.918
39080SOL    HW119137   5.339   7.162   7.901
39080SOL    HW219138   5.368   7.014   7.894
39081SOL     OW19139   4.840  14.072  10.394
39081SOL    HW119140   4.890  14.017  10.455
39081SOL    HW219141   4.841  14.022  10.312
39082SOL     OW19142   6.472  13.006   5.103
39082SOL    HW119143   6.479  13.005   5.008
39082SOL    HW219144   6.438  12.920   5.126
39083SOL     OW19145  10.387  11.023  11.441
39083SOL    HW119146  10.301  11.005  11.479
39083SOL    HW219147  10.368  11.057  11.354
39084SOL     OW19148   6.467   2.980   7.323
39084SOL    HW119149   6.434   2.911   7.379
39084SOL    HW219150   6.492   2.936   7.242
39085SOL     OW19151   9.518  13.839   7.105
39085SOL    HW119152   9.512  13.933   7.090
39085SOL    HW219153   9.494  13.827   7.196
39086SOL     OW19154   6.263   8.006   8.213
39086SOL    HW119155   6.332   7.940   8.213
39086SOL    HW219156   6.241   8.018   8.305
39087SOL     OW19157  13.206   9.543  10.550
39087SOL    HW119158  13.165   9.457  10.564
39087SOL    HW219159  13.138   9.596  10.509
39088SOL     OW19160   1.779  13.028   2.512
39088SOL    HW119161   1.750  12.938   2.526
39088SOL    HW219162   1.732  13.057   2.434
39089SOL     OW19163   4.003   3.431   5.394
39089SOL    HW119164   3.969   3.516   5.364
39089SOL    HW219165   3.932   3.393   5.446
39090SOL     OW19166   0.717  14.150   4.781
39090SOL    HW119167   0.706  14.140   4.876
39090SOL    HW219168   0.715  14.060   4.747
39091SOL     OW19169   3.224   3.954   7.865
39091SOL    HW119170   3.315   3.939   7.892
39091SOL    HW219171   3.173   3.934   7.944
39092SOL     OW19172   9.377   1.631   5.812
39092SOL    HW119173   9.364   1.673   5.897
39092SOL    HW219174   9.289   1.624   5.776
39093SOL     OW19175   5.076  12.701   2.941
39093SOL    HW119176   5.014  12.707   3.013
39093SOL    HW219177   5.076  12.788   2.901
39094SOL     OW19178   2.598   5.803   6.028
39094SOL    HW119179   2.617   5.790   5.935
39094SOL    HW219180   2.682   5.829   6.066
39095SOL     OW19181   5.064   4.932   4.444
39095SOL    HW119182   5.044   5.020   4.476
39095SOL    HW219183   5.100   4.946   4.357
39096SOL     OW19184   3.770   5.797  12.607
39096SOL    HW119185   3.778   5.831  12.696
39096SOL    HW219186   3.847   5.830  12.562
39097SOL     OW19187   0.786  14.486  12.745
39097SOL    HW119188   0.830  14.537  12.677
39097SOL    HW219189   0.709  14.450  12.702
39098SOL     OW19190  14.210  12.401   8.290
39098SOL    HW119191  14.212  12.492   8.260
39098SOL    HW219192  14.300  12.370   8.280
39099SOL     OW19193   6.411  14.595   0.626
39099SOL    HW119194   6.448  14.615   0.712
39099SOL    HW219195   6.393  14.681   0.588
39100SOL     OW19196   9.472   1.056  12.863
39100SOL    HW119197   9.389   1.103  12.866
39100SOL    HW219198   9.505   1.060  12.953
39101SOL     OW19199   1.617   7.097   9.097
39101SOL    HW119200   1.528   7.062   9.098
39101SOL    HW219201   1.664   7.043   9.033
39102SOL     OW19202   4.922  12.325   3.681
39102SOL    HW119203   4.916  12.301   3.774
39102SOL    HW219204   4.990  12.268   3.646
39103SOL     OW19205   7.907   8.399  10.455
39103SOL    HW119206   7.841   8.348  10.408
39103SOL    HW219207   7.933   8.466  10.392
39104SOL     OW19208   6.275   0.660   1.046
39104SOL    HW119209   6.281   0.585   0.986
39104SOL    HW219210   6.343   0.720   1.015
39105SOL     OW19211   4.914  10.791  11.393
39105SOL    HW119212   4.956  10.778  11.478
39105SOL    HW219213   4.959  10.867  11.356
39106SOL     OW19214  12.499   4.570   3.790
39106SOL    HW119215  12.449   4.624   3.729
39106SOL    HW219216  12.533   4.498   3.737
39107SOL     OW19217  13.731  12.751  11.113
39107SOL    HW119218  13.790  12.764  11.039
39107SOL    HW219219  13.790  12.740  11.188
39108SOL     OW19220   6.366  12.389   0.980
39108SOL    HW119221   6.459  12.406   0.992
39108SOL    HW219222   6.360  12.346   0.894
39109SOL     OW19223  12.250   1.394  11.439
39109SOL    HW119224  12.299   1.448  11.501
39109SOL    HW219225  12.179   1.356  11.490
39110SOL     OW19226   8.861   9.852   1.485
39110SOL    HW119227   8.929   9.801   1.441
39110SOL    HW219228   8.801   9.878   1.414
39111SOL     OW19229   1.444  13.453   0.137
39111SOL    HW119230   1.443  13.448   0.042
39111SOL    HW219231   1.527  13.414   0.163
39112SOL     OW19232   8.326  10.901  13.581
39112SOL    HW119233   8.352  10.830  13.639
39112SOL    HW219234   8.235  10.883  13.559
39113SOL     OW19235   0.661   5.684   5.641
39113SOL    HW119236   0.621   5.694   5.727
39113SOL    HW219237   0.594   5.715   5.579
39114SOL     OW19238   4.885   0.165   3.581
39114SOL    HW119239   4.913   0.253   3.604
39114SOL    HW219240   4.814   0.146   3.642
39115SOL     OW19241   1.466   0.038   9.623
39115SOL    HW119242   1.422   0.019   9.540
39115SOL    HW219243   1.495  14.825   9.655
39116SOL     OW19244   2.514   2.283  10.998
39116SOL    HW119245   2.469   2.335  11.064
39116SOL    HW219246   2.523   2.342  10.923
39117SOL     OW19247  14.248  12.501  12.810
39117SOL    HW119248  14.185  12.558  12.854
39117SOL    HW219249  14.195  12.447  12.751
39118SOL     OW19250   9.036   5.936   6.362
39118SOL    HW119251   8.981   5.859   6.347
39118SOL    HW219252   8.989   6.008   6.319
39119SOL     OW19253  12.533   9.582   8.665
39119SOL    HW119254  12.477   9.637   8.610
39119SOL    HW219255  12.566   9.515   8.605
39120SOL     OW19256  11.293   4.381   2.701
39120SOL    HW119257  11.238   4.327   2.757
39120SOL    HW219258  11.300   4.464   2.747
39121SOL     OW19259   7.772   3.502   7.881
39121SOL    HW119260   7.766   3.544   7.795
39121SOL    HW219261   7.766   3.574   7.943
39122SOL     OW19262   3.953  12.644   0.174
39122SOL    HW119263   3.944  12.710   0.244
39122SOL    HW219264   3.940  12.694   0.093
39123SOL     OW19265   1.382   9.550  13.723
39123SOL    HW119266   1.465   9.596  13.709
39123SOL    HW219267   1.318   9.619  13.739
39124SOL     OW19268   1.078   0.540   9.773
39124SOL    HW119269   1.152   0.601   9.774
39124SOL    HW219270   1.115   0.458   9.806
39125SOL     OW19271   5.106   8.409   6.508
39125SOL    HW119272   5.143   8.392   6.595
39125SOL    HW219273   5.063   8.327   6.484
39126SOL     OW19274  10.663   7.316  11.033
39126SOL    HW119275  10.580   7.304  10.986
39126SOL    HW219276  10.642   7.378  11.103
39127SOL     OW19277   7.604   8.780   4.923
39127SOL    HW119278   7.648   8.824   4.996
39127SOL    HW219279   7.648   8.695   4.916
39128SOL     OW19280   0.535   0.012  11.170
39128SOL    HW119281   0.592   0.085  11.196
39128SOL    HW219282   0.580  14.806  11.201
39129SOL     OW19283  10.903   9.290   1.012
39129SOL    HW119284  10.844   9.215   1.003
39129SOL    HW219285  10.848   9.360   1.047
39130SOL     OW19286  10.484  14.323   5.268
39130SOL    HW119287  10.479  14.403   5.319
39130SOL    HW219288  10.406  14.325   5.212
39131SOL     OW19289   9.428  14.682  14.637
39131SOL    HW119290   9.522  14.665  14.640
39131SOL    HW219291   9.390  14.629  14.707
39132SOL     OW19292   1.027   2.187  12.989
39132SOL    HW119293   0.935   2.212  12.983
39132SOL    HW219294   1.053   2.209  13.078
39133SOL     OW19295   4.667   1.274  10.159
39133SOL    HW119296   4.672   1.368  10.180
39133SOL    HW219297   4.587   1.245  10.202
39134SOL     OW19298  13.752  11.262  13.897
39134SOL    HW119299  13.768  11.252  13.991
39134SOL    HW219300  13.825  11.317  13.867
39135SOL     OW19301  11.246   0.866  11.785
39135SOL    HW119302  11.303   0.789  11.786
39135SOL    HW219303  11.157   0.831  11.794
39136SOL     OW19304  12.249   9.337   3.077
39136SOL    HW119305  12.303   9.327   2.999
39136SOL    HW219306  12.162   9.358   3.044
39137SOL     OW19307   6.739  11.430   3.361
39137SOL    HW119308   6.710  11.392   3.278
39137SOL    HW219309   6.826  11.466   3.342
39138SOL     OW19310  11.371   2.187   0.890
39138SOL    HW119311  11.352   2.112   0.946
39138SOL    HW219312  11.285   2.222   0.866
39139SOL     OW19313   2.108   4.985   5.241
39139SOL    HW119314   2.082   4.970   5.150
39139SOL    HW219315   2.165   4.911   5.262
39140SOL     OW19316   8.112   9.994   8.479
39140SOL    HW119317   8.148   9.926   8.421
39140SOL    HW219318   8.022   9.965   8.495
39141SOL     OW19319   6.204   1.072   9.925
39141SOL    HW119320   6.284   1.100   9.881
39141SOL    HW219321   6.233   1.044  10.012
39142SOL     OW19322   0.302   8.691   6.733
39142SOL    HW119323   0.248   8.649   6.666
39142SOL    HW219324   0.392   8.672   6.706
39143SOL     OW19325   1.852   7.726   4.507
39143SOL    HW119326   1.914   7.767   4.566
39143SOL    HW219327   1.766   7.751   4.540
39144SOL     OW19328   0.551   3.667  12.546
39144SOL    HW119329   0.571   3.696  12.635
39144SOL    HW219330   0.609   3.720  12.491
39145SOL     OW19331  10.082   8.949   5.304
39145SOL    HW119332  10.066   9.014   5.236
39145SOL    HW219333  10.096   8.867   5.258
39146SOL     OW19334  10.494   2.951   1.041
39146SOL    HW119335  10.562   2.889   1.014
39146SOL    HW219336  10.444   2.905   1.107
39147SOL     OW19337   2.354   1.209  14.730
39147SOL    HW119338   2.440   1.246  14.751
39147SOL    HW219339   2.372   1.121  14.699
39148SOL     OW19340  12.554  12.233   8.159
39148SOL    HW119341  12.529  12.169   8.092
39148SOL    HW219342  12.501  12.310   8.139
39149SOL     OW19343  10.960   0.868   6.303
39149SOL    HW119344  10.896   0.867   6.232
39149SOL    HW219345  10.932   0.796   6.361
39150SOL     OW19346   7.033   4.521   4.859
39150SOL    HW119347   6.990   4.445   4.819
39150SOL    HW219348   7.046   4.582   4.787
39151SOL     OW19349  13.556   8.684   5.312
39151SOL    HW119350  13.623   8.712   5.374
39151SOL    HW219351  13.484   8.654   5.367
39152SOL     OW19352   0.567   9.209   7.635
39152SOL    HW119353   0.628   9.165   7.694
39152SOL    HW219354   0.484   9.211   7.684
39153SOL     OW19355   7.042  11.184   4.683
39153SOL    HW119356   7.049  11.164   4.590
39153SOL    HW219357   6.967  11.244   4.689
39154SOL     OW19358  10.815   0.124   6.384
39154SOL    HW119359  10.842   0.169   6.304
39154SOL    HW219360  10.744   0.177   6.418
39155SOL     OW19361  11.367  11.996   4.725
39155SOL    HW119362  11.291  11.942   4.743
39155SOL    HW219363  11.331  12.080   4.697
39156SOL     OW19364   0.840  10.495   6.445
39156SOL    HW119365   0.833  10.489   6.540
39156SOL    HW219366   0.895  10.421   6.420
39157SOL     OW19367  14.651   2.051   9.513
39157SOL    HW119368  14.719   2.117   9.526
39157SOL    HW219369  14.673   1.982   9.576
39158SOL     OW19370   4.597   7.220   2.717
39158SOL    HW119371   4.642   7.228   2.632
39158SOL    HW219372   4.505   7.239   2.697
39159SOL     OW19373  12.971  14.634  12.808
39159SOL    HW119374  12.917  14.652  12.885
39159SOL    HW219375  12.973  14.717  12.760
39160SOL     OW19376   9.192   5.296   0.716
39160SOL    HW119377   9.116   5.246   0.746
39160SOL    HW219378   9.267   5.241   0.738
39161SOL     OW19379   0.363  13.277  12.053
39161SOL    HW119380   0.413  13.350  12.088
39161SOL    HW219381   0.426  13.205  12.044
39162SOL     OW19382   9.813   8.484   5.202
39162SOL    HW119383   9.770   8.418   5.257
39162SOL    HW219384   9.901   8.448   5.187
39163SOL     OW19385   6.752   0.162   1.237
39163SOL    HW119386   6.666   0.204   1.246
39163SOL    HW219387   6.785   0.194   1.153
39164SOL     OW19388  12.261  14.039   2.064
39164SOL    HW119389  12.205  13.970   2.031
39164SOL    HW219390  12.338  14.037   2.007
39165SOL     OW19391   9.067  14.507  14.271
39165SOL    HW119392   9.142  14.532  14.326
39165SOL    HW219393   9.082  14.414  14.254
39166SOL     OW19394   9.297   4.109   7.707
39166SOL    HW119395   9.384   4.085   7.675
39166SOL    HW219396   9.310   4.194   7.749
39167SOL     OW19397  10.405   4.380   3.316
39167SOL    HW119398  10.440   4.292   3.326
39167SOL    HW219399  10.366   4.381   3.229
39168SOL     OW19400   6.386  11.894  11.152
39168SOL    HW119401   6.457  11.958  11.148
39168SOL    HW219402   6.424  11.813  11.118
39169SOL     OW19403   8.211   4.468   1.130
39169SOL    HW119404   8.119   4.444   1.122
39169SOL    HW219405   8.209   4.554   1.174
39170SOL     OW19406   3.371  13.280  10.151
39170SOL    HW119407   3.411  13.366  10.137
39170SOL    HW219408   3.444  13.219  10.151
39171SOL     OW19409   0.541  13.152   9.629
39171SOL    HW119410   0.515  13.205   9.553
39171SOL    HW219411   0.636  13.143   9.620
39172SOL     OW19412  14.666  12.975   2.732
39172SOL    HW119413  14.733  12.949   2.795
39172SOL    HW219414  14.599  12.907   2.739
39173SOL     OW19415   6.402  11.422   8.966
39173SOL    HW119416   6.336  11.383   8.909
39173SOL    HW219417   6.469  11.455   8.905
39174SOL     OW19418  10.226   5.139   1.144
39174SOL    HW119419  10.238   5.209   1.209
39174SOL    HW219420  10.139   5.104   1.162
39175SOL     OW19421   6.118  13.086   2.408
39175SOL    HW119422   6.098  13.158   2.468
39175SOL    HW219423   6.041  13.031   2.409
39176SOL     OW19424  10.244  11.691   0.702
39176SOL    HW119425  10.183  11.751   0.744
39176SOL    HW219426  10.327  11.703   0.749
39177SOL     OW19427  13.079  12.146   7.223
39177SOL    HW119428  13.055  12.202   7.295
39177SOL    HW219429  13.043  12.060   7.246
39178SOL     OW19430   1.241   1.567  10.265
39178SOL    HW119431   1.237   1.563  10.360
39178SOL    HW219432   1.158   1.609  10.239
39179SOL     OW19433   8.245  13.550   6.737
39179SOL    HW119434   8.276  13.461   6.754
39179SOL    HW219435   8.231  13.553   6.643
39180SOL     OW19436  13.484  10.008  13.939
39180SOL    HW119437  13.484   9.937  14.003
39180SOL    HW219438  13.393  10.015  13.911
39181SOL     OW19439  11.504   8.088   8.781
39181SOL    HW119440  11.424   8.121   8.741
39181SOL    HW219441  11.501   8.119   8.871
39182SOL     OW19442   2.874   7.404   6.530
39182SOL    HW119443   2.942   7.369   6.586
39182SOL    HW219444   2.828   7.468   6.584
39183SOL     OW19445  13.510   2.374   1.875
39183SOL    HW119446  13.553   2.333   1.800
39183SOL    HW219447  13.423   2.333   1.878
39184SOL     OW19448  12.291   4.517   8.861
39184SOL    HW119449  12.252   4.530   8.775
39184SOL    HW219450  12.324   4.604   8.886
39185SOL     OW19451   0.805   9.976   2.620
39185SOL    HW119452   0.853   9.953   2.541
39185SOL    HW219453   0.713   9.979   2.594
39186SOL     OW19454   8.151   4.528   8.636
39186SOL    HW119455   8.199   4.475   8.699
39186SOL    HW219456   8.216   4.587   8.599
39187SOL     OW19457   9.782   2.184   2.665
39187SOL    HW119458   9.722   2.138   2.722
39187SOL    HW219459   9.822   2.251   2.720
39188SOL     OW19460   9.593   6.034   0.736
39188SOL    HW119461   9.654   6.103   0.765
39188SOL    HW219462   9.650   5.963   0.707
39189SOL     OW19463   7.479  12.340   2.171
39189SOL    HW119464   7.503  12.250   2.195
39189SOL    HW219465   7.537  12.362   2.099
39190SOL     OW19466   3.761  10.801  11.747
39190SOL    HW119467   3.818  10.865  11.705
39190SOL    HW219468   3.679  10.806  11.698
39191SOL     OW19469   7.451   2.956   9.605
39191SOL    HW119470   7.528   2.903   9.585
39191SOL    HW219471   7.460   3.034   9.550
39192SOL     OW19472   5.367   3.419   1.833
39192SOL    HW119473   5.285   3.459   1.863
39192SOL    HW219474   5.344   3.327   1.816
39193SOL     OW19475   2.003  12.243  11.636
39193SOL    HW119476   2.068  12.304  11.670
39193SOL    HW219477   1.960  12.290  11.565
39194SOL     OW19478  13.519  10.271   1.521
39194SOL    HW119479  13.574  10.261   1.443
39194SOL    HW219480  13.439  10.223   1.500
39195SOL     OW19481  11.536  10.155  10.641
39195SOL    HW119482  11.515  10.247  10.623
39195SOL    HW219483  11.617  10.159  10.692
39196SOL     OW19484  11.191   8.965   8.588
39196SOL    HW119485  11.149   8.879   8.575
39196SOL    HW219486  11.239   8.956   8.670
39197SOL     OW19487   9.960  13.707  10.025
39197SOL    HW119488   9.939  13.771   9.957
39197SOL    HW219489  10.055  13.710  10.033
39198SOL     OW19490   2.460  12.114   1.149
39198SOL    HW119491   2.516  12.036   1.146
39198SOL    HW219492   2.513  12.184   1.112
39199SOL     OW19493  11.334  10.064  12.442
39199SOL    HW119494  11.380  10.093  12.521
39199SOL    HW219495  11.294  10.144  12.406
39200SOL     OW19496   6.809  14.622   8.367
39200SOL    HW119497   6.888  14.646   8.319
39200SOL    HW219498   6.842  14.583   8.448
39201SOL     OW19499   0.814  14.827  13.380
39201SOL    HW119500   0.896  14.849  13.424
39201SOL    HW219501   0.787  14.744  13.418
39202SOL     OW19502   6.581   8.205   5.365
39202SOL    HW119503   6.604   8.158   5.445
39202SOL    HW219504   6.506   8.159   5.330
39203SOL     OW19505  13.298   0.516   9.561
39203SOL    HW119506  13.218   0.469   9.585
39203SOL    HW219507  13.307   0.502   9.467
39204SOL     OW19508   4.950   6.763   3.910
39204SOL    HW119509   4.861   6.788   3.884
39204SOL    HW219510   4.982   6.837   3.961
39205SOL     OW19511   1.607   6.733   4.257
39205SOL    HW119512   1.677   6.753   4.194
39205SOL    HW219513   1.544   6.804   4.246
39206SOL     OW19514   6.997   8.130   7.181
39206SOL    HW119515   7.002   8.034   7.181
39206SOL    HW219516   7.087   8.158   7.199
39207SOL     OW19517   3.030  12.375   4.754
39207SOL    HW119518   2.956  12.413   4.706
39207SOL    HW219519   3.102  12.436   4.737
39208SOL     OW19520   6.077   6.587  13.978
39208SOL    HW119521   6.157   6.563  14.025
39208SOL    HW219522   6.102   6.584  13.886
39209SOL     OW19523   0.938   4.580  14.166
39209SOL    HW119524   0.854   4.616  14.197
39209SOL    HW219525   0.917   4.538  14.083
39210SOL     OW19526   2.434   2.840   9.540
39210SOL    HW119527   2.367   2.887   9.590
39210SOL    HW219528   2.421   2.748   9.563
39211SOL     OW19529   0.485   3.627   5.334
39211SOL    HW119530   0.515   3.715   5.354
39211SOL    HW219531   0.515   3.611   5.245
39212SOL     OW19532   1.446  14.860   6.508
39212SOL    HW119533   1.351  14.847   6.502
39212SOL    HW219534   1.483  14.772   6.504
39213SOL     OW19535   8.785   2.754  11.641
39213SOL    HW119536   8.788   2.696  11.565
39213SOL    HW219537   8.747   2.701  11.710
39214SOL     OW19538   9.031   2.349   6.102
39214SOL    HW119539   8.946   2.331   6.061
39214SOL    HW219540   9.075   2.409   6.042
39215SOL     OW19541   5.844   9.159   4.396
39215SOL    HW119542   5.819   9.244   4.434
39215SOL    HW219543   5.926   9.176   4.349
39216SOL     OW19544   5.328   5.591  11.064
39216SOL    HW119545   5.260   5.572  10.999
39216SOL    HW219546   5.280   5.615  11.143
39217SOL     OW19547   6.049   9.956   7.255
39217SOL    HW119548   6.025   9.880   7.309
39217SOL    HW219549   6.105   9.920   7.187
39218SOL     OW19550   6.134   9.623   6.803
39218SOL    HW119551   6.161   9.598   6.892
39218SOL    HW219552   6.199   9.687   6.776
39219SOL     OW19553  11.360   6.476   6.479
39219SOL    HW119554  11.427   6.427   6.432
39219SOL    HW219555  11.280   6.461   6.430
39220SOL     OW19556   8.930  11.276   5.585
39220SOL    HW119557   8.965  11.235   5.664
39220SOL    HW219558   8.837  11.253   5.586
39221SOL     OW19559   6.227   2.203  11.695
39221SOL    HW119560   6.230   2.291  11.655
39221SOL    HW219561   6.288   2.152  11.642
39222SOL     OW19562   2.860  13.895   4.055
39222SOL    HW119563   2.869  13.962   3.987
39222SOL    HW219564   2.942  13.846   4.052
39223SOL     OW19565  13.653   0.562   5.465
39223SOL    HW119566  13.697   0.584   5.382
39223SOL    HW219567  13.720   0.516   5.516
39224SOL     OW19568  13.907   3.577   4.191
39224SOL    HW119569  13.822   3.545   4.220
39224SOL    HW219570  13.904   3.572   4.095
39225SOL     OW19571   5.116  13.572  14.335
39225SOL    HW119572   5.181  13.536  14.396
39225SOL    HW219573   5.061  13.498  14.312
39226SOL     OW19574   7.952   8.098  13.098
39226SOL    HW119575   7.866   8.087  13.138
39226SOL    HW219576   8.006   8.137  13.167
39227SOL     OW19577  11.045   4.799   0.015
39227SOL    HW119578  10.954   4.771   0.025
39227SOL    HW219579  11.086   4.729  14.836
39228SOL     OW19580   8.254   9.857   3.375
39228SOL    HW119581   8.270   9.766   3.401
39228SOL    HW219582   8.200   9.851   3.297
39229SOL     OW19583   8.331  12.931  12.169
39229SOL    HW119584   8.381  12.850  12.172
39229SOL    HW219585   8.386  12.996  12.212
39230SOL     OW19586   9.303   6.956   8.844
39230SOL    HW119587   9.256   7.005   8.911
39230SOL    HW219588   9.235   6.922   8.786
39231SOL     OW19589  14.685   9.120  14.740
39231SOL    HW119590  14.705   9.031  14.711
39231SOL    HW219591  14.596   9.114  14.776
39232SOL     OW19592   6.613   3.203   7.102
39232SOL    HW119593   6.663   3.281   7.079
39232SOL    HW219594   6.525   3.236   7.119
39233SOL     OW19595  10.701   5.791   2.905
39233SOL    HW119596  10.765   5.850   2.945
39233SOL    HW219597  10.619   5.841   2.908
39234SOL     OW19598   2.162  12.268  14.794
39234SOL    HW119599   2.075  12.232  14.776
39234SOL    HW219600   2.201  12.281  14.708
39235SOL     OW19601   4.405   6.551   4.197
39235SOL    HW119602   4.460   6.492   4.249
39235SOL    HW219603   4.353   6.492   4.142
39236SOL     OW19604   4.924   0.400   5.285
39236SOL    HW119605   4.878   0.425   5.205
39236SOL    HW219606   4.897   0.464   5.350
39237SOL     OW19607   2.191   7.674   4.868
39237SOL    HW119608   2.285   7.657   4.871
39237SOL    HW219609   2.171   7.713   4.953
39238SOL     OW19610  12.911   9.686  13.826
39238SOL    HW119611  13.000   9.658  13.845
39238SOL    HW219612  12.916   9.782  13.823
39239SOL     OW19613  12.971  13.410   1.682
39239SOL    HW119614  12.884  13.450   1.688
39239SOL    HW219615  13.028  13.483   1.658
39240SOL     OW19616   7.731  13.529   6.430
39240SOL    HW119617   7.694  13.561   6.513
39240SOL    HW219618   7.664  13.470   6.396
39241SOL     OW19619  14.801   9.721   0.194
39241SOL    HW119620  14.806   9.633   0.156
39241SOL    HW219621  14.782   9.778   0.120
39242SOL     OW19622   7.293   7.874   7.319
39242SOL    HW119623   7.378   7.831   7.322
39242SOL    HW219624   7.244   7.837   7.392
39243SOL     OW19625   7.774   2.816   9.009
39243SOL    HW119626   7.866   2.817   9.036
39243SOL    HW219627   7.777   2.812   8.913
39244SOL     OW19628   3.695  12.729   7.779
39244SOL    HW119629   3.686  12.671   7.855
39244SOL    HW219630   3.790  12.740   7.768
39245SOL     OW19631   9.768   7.538  10.162
39245SOL    HW119632   9.734   7.458  10.123
39245SOL    HW219633   9.700   7.604  10.144
39246SOL     OW19634  11.401  14.709   8.489
39246SOL    HW119635  11.407  14.654   8.410
39246SOL    HW219636  11.492  14.723   8.515
39247SOL     OW19637  10.657  11.849   9.400
39247SOL    HW119638  10.615  11.911   9.458
39247SOL    HW219639  10.674  11.772   9.454
39248SOL     OW19640   7.679   7.101  14.326
39248SOL    HW119641   7.748   7.115  14.391
39248SOL    HW219642   7.607   7.063  14.376
39249SOL     OW19643   3.692  14.479  14.630
39249SOL    HW119644   3.647  14.536  14.693
39249SOL    HW219645   3.623  14.420  14.598
39250SOL     OW19646   2.463  14.104   4.563
39250SOL    HW119647   2.497  14.026   4.519
39250SOL    HW219648   2.429  14.158   4.492
39251SOL     OW19649  12.188  13.474   9.580
39251SOL    HW119650  12.253  13.435   9.522
39251SOL    HW219651  12.237  13.536   9.634
39252SOL     OW19652  13.713   1.327   8.121
39252SOL    HW119653  13.700   1.283   8.037
39252SOL    HW219654  13.658   1.278   8.183
39253SOL     OW19655  10.897   0.566  12.138
39253SOL    HW119656  10.930   0.656  12.127
39253SOL    HW219657  10.839   0.571  12.214
39254SOL     OW19658   1.742   0.601  11.824
39254SOL    HW119659   1.835   0.613  11.804
39254SOL    HW219660   1.707   0.690  11.829
39255SOL     OW19661   9.664   9.232   6.495
39255SOL    HW119662   9.707   9.315   6.516
39255SOL    HW219663   9.723   9.165   6.530
39256SOL     OW19664   7.836   8.037   4.606
39256SOL    HW119665   7.812   8.041   4.514
39256SOL    HW219666   7.754   8.020   4.652
39257SOL     OW19667   9.265   1.002  13.837
39257SOL    HW119668   9.204   0.955  13.779
39257SOL    HW219669   9.212   1.069  13.879
39258SOL     OW19670   7.719   5.389   4.579
39258SOL    HW119671   7.759   5.399   4.665
39258SOL    HW219672   7.715   5.478   4.544
39259SOL     OW19673   8.376   2.266   0.724
39259SOL    HW119674   8.460   2.288   0.764
39259SOL    HW219675   8.370   2.171   0.732
39260SOL     OW19676  12.077   1.379  10.142
39260SOL    HW119677  12.102   1.311  10.205
39260SOL    HW219678  11.982   1.383  10.148
39261SOL     OW19679   7.549   8.489   0.575
39261SOL    HW119680   7.575   8.402   0.544
39261SOL    HW219681   7.528   8.476   0.668
39262SOL     OW19682  13.468   2.175   0.801
39262SOL    HW119683  13.439   2.253   0.754
39262SOL    HW219684  13.540   2.205   0.857
39263SOL     OW19685   1.913  12.125   5.991
39263SOL    HW119686   1.921  12.137   5.896
39263SOL    HW219687   1.875  12.207   6.023
39264SOL     OW19688   4.142   3.268   1.584
39264SOL    HW119689   4.160   3.247   1.493
39264SOL    HW219690   4.165   3.188   1.631
39265SOL     OW19691  10.092   4.942   6.122
39265SOL    HW119692  10.081   5.037   6.117
39265SOL    HW219693  10.099   4.924   6.216
39266SOL     OW19694   9.669  10.922   6.263
39266SOL    HW119695   9.655  10.870   6.183
39266SOL    HW219696   9.720  10.997   6.234
39267SOL     OW19697   2.502  14.359  11.814
39267SOL    HW119698   2.576  14.326  11.865
39267SOL    HW219699   2.431  14.297  11.834
39268SOL     OW19700   3.774  10.128   1.537
39268SOL    HW119701   3.826  10.190   1.485
39268SOL    HW219702   3.774  10.047   1.485
39269SOL     OW19703   5.481  13.168   4.841
39269SOL    HW119704   5.493  13.100   4.775
39269SOL    HW219705   5.568  13.182   4.878
39270SOL     OW19706   7.240   8.453   7.680
39270SOL    HW119707   7.282   8.519   7.624
39270SOL    HW219708   7.262   8.479   7.769
39271SOL     OW19709  13.691   2.981   0.205
39271SOL    HW119710  13.780   2.995   0.171
39271SOL    HW219711  13.676   2.887   0.194
39272SOL     OW19712   8.044  11.317  10.066
39272SOL    HW119713   7.987  11.337  10.140
39272SOL    HW219714   8.021  11.226  10.043
39273SOL     OW19715  11.808  12.648   8.265
39273SOL    HW119716  11.756  12.573   8.293
39273SOL    HW219717  11.815  12.703   8.343
39274SOL     OW19718   8.383   2.476  14.384
39274SOL    HW119719   8.325   2.407  14.416
39274SOL    HW219720   8.468   2.434  14.375
39275SOL     OW19721   1.125  13.525   6.219
39275SOL    HW119722   1.065  13.554   6.288
39275SOL    HW219723   1.139  13.432   6.237
39276SOL     OW19724   1.206   2.728   0.268
39276SOL    HW119725   1.111   2.715   0.275
39276SOL    HW219726   1.217   2.822   0.280
39277SOL     OW19727  10.329   8.639  12.803
39277SOL    HW119728  10.255   8.620  12.746
39277SOL    HW219729  10.294   8.702  12.867
39278SOL     OW19730   9.624   1.120   3.837
39278SOL    HW119731   9.549   1.062   3.848
39278SOL    HW219732   9.599   1.201   3.880
39279SOL     OW19733  12.728   5.011  14.566
39279SOL    HW119734  12.756   4.926  14.533
39279SOL    HW219735  12.781   5.075  14.519
39280SOL     OW19736   7.456   0.882   3.893
39280SOL    HW119737   7.502   0.826   3.831
39280SOL    HW219738   7.387   0.924   3.842
39281SOL     OW19739   9.608   3.022   3.396
39281SOL    HW119740   9.663   3.009   3.318
39281SOL    HW219741   9.581   2.934   3.421
39282SOL     OW19742  12.028  14.657  12.879
39282SOL    HW119743  12.112  14.629  12.914
39282SOL    HW219744  11.968  14.654  12.954
39283SOL     OW19745   0.629   2.398  11.405
39283SOL    HW119746   0.670   2.476  11.443
39283SOL    HW219747   0.623   2.418  11.311
39284SOL     OW19748   9.014  13.223   0.654
39284SOL    HW119749   9.049  13.312   0.645
39284SOL    HW219750   8.923  13.230   0.626
39285SOL     OW19751  10.303   3.948   3.945
39285SOL    HW119752  10.339   4.034   3.970
39285SOL    HW219753  10.280   3.907   4.028
39286SOL     OW19754   7.074   9.985   0.279
39286SOL    HW119755   7.113   9.902   0.305
39286SOL    HW219756   7.109  10.001   0.191
39287SOL     OW19757   1.185  12.794   6.437
39287SOL    HW119758   1.150  12.710   6.407
39287SOL    HW219759   1.279  12.778   6.446
39288SOL     OW19760   1.347   7.000   7.278
39288SOL    HW119761   1.305   7.068   7.225
39288SOL    HW219762   1.285   6.983   7.349
39289SOL     OW19763   8.820   1.652  11.329
39289SOL    HW119764   8.883   1.714  11.292
39289SOL    HW219765   8.870   1.572  11.342
39290SOL     OW19766   7.652   9.550   1.891
39290SOL    HW119767   7.667   9.641   1.865
39290SOL    HW219768   7.675   9.499   1.813
39291SOL     OW19769   8.882   6.889  13.463
39291SOL    HW119770   8.955   6.832  13.437
39291SOL    HW219771   8.925   6.965  13.504
39292SOL     OW19772   2.192  14.595   9.060
39292SOL    HW119773   2.232  14.632   9.139
39292SOL    HW219774   2.240  14.635   8.988
39293SOL     OW19775   4.494   2.001   6.971
39293SOL    HW119776   4.567   1.945   6.995
39293SOL    HW219777   4.515   2.032   6.883
39294SOL     OW19778   5.069   7.641   4.867
39294SOL    HW119779   5.016   7.603   4.938
39294SOL    HW219780   5.007   7.696   4.818
39295SOL     OW19781   0.967  11.174   7.488
39295SOL    HW119782   0.932  11.257   7.519
39295SOL    HW219783   1.017  11.196   7.410
39296SOL     OW19784  14.266   5.461   1.144
39296SOL    HW119785  14.178   5.497   1.137
39296SOL    HW219786  14.274   5.401   1.070
39297SOL     OW19787   7.989  11.292  10.866
39297SOL    HW119788   8.032  11.222  10.914
39297SOL    HW219789   7.897  11.286  10.892
39298SOL     OW19790   4.193   0.210   1.939
39298SOL    HW119791   4.240   0.288   1.968
39298SOL    HW219792   4.111   0.244   1.903
39299SOL     OW19793   8.931   7.158   9.734
39299SOL    HW119794   8.855   7.108   9.761
39299SOL    HW219795   9.000   7.131   9.795
39300SOL     OW19796  14.042   3.591   9.647
39300SOL    HW119797  14.054   3.670   9.699
39300SOL    HW219798  14.109   3.531   9.679
39301SOL     OW19799   9.186  11.182   7.708
39301SOL    HW119800   9.151  11.106   7.755
39301SOL    HW219801   9.114  11.209   7.651
39302SOL     OW19802   2.154  10.164   5.555
39302SOL    HW119803   2.115  10.151   5.641
39302SOL    HW219804   2.182  10.077   5.527
39303SOL     OW19805   2.861  13.003   5.790
39303SOL    HW119806   2.950  13.034   5.774
39303SOL    HW219807   2.861  12.977   5.883
39304SOL     OW19808   5.620   6.156   8.626
39304SOL    HW119809   5.597   6.249   8.618
39304SOL    HW219810   5.611   6.121   8.538
39305SOL     OW19811  12.509  11.805   7.152
39305SOL    HW119812  12.537  11.714   7.165
39305SOL    HW219813  12.559  11.855   7.216
39306SOL     OW19814   6.620   2.777   6.577
39306SOL    HW119815   6.662   2.768   6.491
39306SOL    HW219816   6.687   2.817   6.632
39307SOL     OW19817   5.958   2.902   1.802
39307SOL    HW119818   5.871   2.862   1.796
39307SOL    HW219819   6.019   2.829   1.796
39308SOL     OW19820  12.265   4.383   7.273
39308SOL    HW119821  12.179   4.340   7.280
39308SOL    HW219822  12.304   4.345   7.194
39309SOL     OW19823  12.415   4.388   0.035
39309SOL    HW119824  12.442   4.422  14.821
39309SOL    HW219825  12.324   4.415   0.044
39310SOL     OW19826   6.001  13.400   6.792
39310SOL    HW119827   6.019  13.399   6.886
39310SOL    HW219828   6.052  13.328   6.756
39311SOL     OW19829   2.937  10.569   4.093
39311SOL    HW119830   2.972  10.571   4.004
39311SOL    HW219831   2.843  10.577   4.082
39312SOL     OW19832  10.604   0.800   8.528
39312SOL    HW119833  10.518   0.773   8.558
39312SOL    HW219834  10.590   0.888   8.491
39313SOL     OW19835  11.724   1.165   4.412
39313SOL    HW119836  11.750   1.073   4.406
39313SOL    HW219837  11.781   1.210   4.348
39314SOL     OW19838   0.399   1.326   0.754
39314SOL    HW119839   0.471   1.283   0.801
39314SOL    HW219840   0.319   1.291   0.796
39315SOL     OW19841   5.401  11.326  14.477
39315SOL    HW119842   5.479  11.289  14.516
39315SOL    HW219843   5.413  11.421  14.484
39316SOL     OW19844   5.663  14.392  11.667
39316SOL    HW119845   5.656  14.306  11.625
39316SOL    HW219846   5.574  14.413  11.693
39317SOL     OW19847   2.578   1.714   5.854
39317SOL    HW119848   2.482   1.710   5.849
39317SOL    HW219849   2.600   1.662   5.931
39318SOL     OW19850   9.892  13.715   1.878
39318SOL    HW119851   9.816  13.769   1.903
39318SOL    HW219852   9.967  13.765   1.910
39319SOL     OW19853  13.769   4.957   6.689
39319SOL    HW119854  13.815   4.884   6.647
39319SOL    HW219855  13.677   4.930   6.688
39320SOL     OW19856   9.006   2.035  10.467
39320SOL    HW119857   8.931   2.081  10.506
39320SOL    HW219858   9.068   2.104  10.445
39321SOL     OW19859   5.937   7.071   7.349
39321SOL    HW119860   5.903   7.154   7.384
39321SOL    HW219861   5.982   7.031   7.423
39322SOL     OW19862   5.033   2.082  10.792
39322SOL    HW119863   5.126   2.062  10.776
39322SOL    HW219864   5.025   2.084  10.887
39323SOL     OW19865   7.864   8.418   4.064
39323SOL    HW119866   7.816   8.340   4.037
39323SOL    HW219867   7.904   8.394   4.148
39324SOL     OW19868   9.412  12.996   4.832
39324SOL    HW119869   9.438  13.027   4.746
39324SOL    HW219870   9.486  12.943   4.863
39325SOL     OW19871   2.211   1.650  14.129
39325SOL    HW119872   2.159   1.660  14.209
39325SOL    HW219873   2.210   1.737  14.089
39326SOL     OW19874   2.716   2.520   5.019
39326SOL    HW119875   2.647   2.454   5.019
39326SOL    HW219876   2.729   2.541   5.111
39327SOL     OW19877  10.410  12.939   6.635
39327SOL    HW119878  10.409  13.027   6.674
39327SOL    HW219879  10.346  12.889   6.685
39328SOL     OW19880   5.469   9.355   1.817
39328SOL    HW119881   5.453   9.449   1.815
39328SOL    HW219882   5.396   9.320   1.869
39329SOL     OW19883   9.697  12.912   7.321
39329SOL    HW119884   9.685  12.998   7.279
39329SOL    HW219885   9.622  12.905   7.381
39330SOL     OW19886  11.177   2.850   8.022
39330SOL    HW119887  11.116   2.784   7.989
39330SOL    HW219888  11.191   2.909   7.948
39331SOL     OW19889   5.843   4.209   4.971
39331SOL    HW119890   5.767   4.223   5.028
39331SOL    HW219891   5.806   4.189   4.885
39332SOL     OW19892   8.134   6.613  10.396
39332SOL    HW119893   8.103   6.692  10.351
39332SOL    HW219894   8.089   6.541  10.353
39333SOL     OW19895   6.590   9.617  12.883
39333SOL    HW119896   6.671   9.655  12.850
39333SOL    HW219897   6.530   9.692  12.891
39334SOL     OW19898  14.208   1.637  12.678
39334SOL    HW119899  14.217   1.549  12.644
39334SOL    HW219900  14.138   1.676  12.625
39335SOL     OW19901   1.617  11.887   0.762
39335SOL    HW119902   1.571  11.816   0.807
39335SOL    HW219903   1.587  11.881   0.671
39336SOL     OW19904   2.259  11.690  11.105
39336SOL    HW119905   2.288  11.681  11.014
39336SOL    HW219906   2.275  11.604  11.144
39337SOL     OW19907   9.330   5.412  13.707
39337SOL    HW119908   9.251   5.368  13.678
39337SOL    HW219909   9.319   5.423  13.802
39338SOL     OW19910   6.923   5.236   1.261
39338SOL    HW119911   6.929   5.181   1.340
39338SOL    HW219912   6.860   5.304   1.285
39339SOL     OW19913   1.957   7.196  12.781
39339SOL    HW119914   1.973   7.215  12.688
39339SOL    HW219915   1.980   7.103  12.790
39340SOL     OW19916  10.132   2.728   3.819
39340SOL    HW119917  10.095   2.650   3.777
39340SOL    HW219918  10.161   2.697   3.905
39341SOL     OW19919  12.834  14.055   8.463
39341SOL    HW119920  12.922  14.082   8.487
39341SOL    HW219921  12.781  14.074   8.541
39342SOL     OW19922   9.148  13.176  13.653
39342SOL    HW119923   9.215  13.121  13.612
39342SOL    HW219924   9.067  13.152  13.608
39343SOL     OW19925   8.553   1.181   0.204
39343SOL    HW119926   8.600   1.097   0.201
39343SOL    HW219927   8.468   1.159   0.241
39344SOL     OW19928   0.324   9.137  11.984
39344SOL    HW119929   0.302   9.199  12.054
39344SOL    HW219930   0.295   9.052  12.017
39345SOL     OW19931   2.120  14.046   2.877
39345SOL    HW119932   2.206  14.087   2.868
39345SOL    HW219933   2.137  13.952   2.875
39346SOL     OW19934   2.057   5.551   2.673
39346SOL    HW119935   1.990   5.514   2.731
39346SOL    HW219936   2.132   5.565   2.731
39347SOL     OW19937  11.288   6.734  14.223
39347SOL    HW119938  11.346   6.683  14.279
39347SOL    HW219939  11.232   6.781  14.284
39348SOL     OW19940   3.881   4.906   6.851
39348SOL    HW119941   3.943   4.838   6.826
39348SOL    HW219942   3.899   4.923   6.943
39349SOL     OW19943   0.324  13.014  13.373
39349SOL    HW119944   0.353  12.926  13.346
39349SOL    HW219945   0.326  13.011  13.468
39350SOL     OW19946   3.433  11.457   3.948
39350SOL    HW119947   3.358  11.398   3.951
39350SOL    HW219948   3.397  11.539   3.914
39351SOL     OW19949   7.932  13.822   8.681
39351SOL    HW119950   7.904  13.733   8.660
39351SOL    HW219951   7.985  13.812   8.760
39352SOL     OW19952   1.094   5.191  13.097
39352SOL    HW119953   1.077   5.279  13.062
39352SOL    HW219954   1.047   5.189  13.180
39353SOL     OW19955   4.045   9.166   4.948
39353SOL    HW119956   4.071   9.121   4.868
39353SOL    HW219957   4.081   9.112   5.019
39354SOL     OW19958   3.487  13.632  12.141
39354SOL    HW119959   3.541  13.711  12.134
39354SOL    HW219960   3.404  13.663  12.175
39355SOL     OW19961   1.545   2.185   9.384
39355SOL    HW119962   1.501   2.261   9.346
39355SOL    HW219963   1.503   2.171   9.468
39356SOL     OW19964   2.045   0.483   0.876
39356SOL    HW119965   2.028   0.531   0.795
39356SOL    HW219966   2.062   0.393   0.847
39357SOL     OW19967  10.704   6.618  13.450
39357SOL    HW119968  10.766   6.654  13.387
39357SOL    HW219969  10.710   6.523  13.439
39358SOL     OW19970   9.692   4.084   8.432
39358SOL    HW119971   9.679   4.178   8.425
39358SOL    HW219972   9.771   4.067   8.380
39359SOL     OW19973   5.567  14.138  13.716
39359SOL    HW119974   5.526  14.088  13.786
39359SOL    HW219975   5.661  14.135  13.735
39360SOL     OW19976   6.506   8.790  12.472
39360SOL    HW119977   6.480   8.881  12.462
39360SOL    HW219978   6.588   8.782  12.423
39361SOL     OW19979   2.216   9.266   3.949
39361SOL    HW119980   2.193   9.326   3.879
39361SOL    HW219981   2.293   9.218   3.916
39362SOL     OW19982  10.829   2.658   2.970
39362SOL    HW119983  10.878   2.584   3.006
39362SOL    HW219984  10.739   2.626   2.963
39363SOL     OW19985  14.200  12.690   6.133
39363SOL    HW119986  14.160  12.616   6.178
39363SOL    HW219987  14.223  12.751   6.202
39364SOL     OW19988   2.509   3.874   5.383
39364SOL    HW119989   2.468   3.957   5.356
39364SOL    HW219990   2.585   3.901   5.435
39365SOL     OW19991   7.493   6.150   8.596
39365SOL    HW119992   7.461   6.240   8.597
39365SOL    HW219993   7.477   6.119   8.507
39366SOL     OW19994   7.825   0.753  14.201
39366SOL    HW119995   7.865   0.670  14.226
39366SOL    HW219996   7.731   0.735  14.199
39367SOL     OW19997   9.177   3.305   4.089
39367SOL    HW119998   9.263   3.304   4.131
39367SOL    HW219999   9.116   3.280   4.158
39368SOL     OW20000  12.163   4.470   9.142
39368SOL    HW120001  12.254   4.459   9.172
39368SOL    HW220002  12.172   4.492   9.049
39369SOL     OW20003  12.140   7.997  12.805
39369SOL    HW120004  12.068   7.988  12.867
39369SOL    HW220005  12.216   7.961  12.851
39370SOL     OW20006  13.669  10.918   5.992
39370SOL    HW120007  13.700  11.003   5.962
39370SOL    HW220008  13.575  10.929   6.004
39371SOL     OW20009   1.351   2.844  10.555
39371SOL    HW120010   1.301   2.923  10.533
39371SOL    HW220011   1.288   2.788  10.600
39372SOL     OW20012   2.080   6.650  12.068
39372SOL    HW120013   2.142   6.692  12.128
39372SOL    HW220014   2.044   6.721  12.016
39373SOL     OW20015   2.813   4.192  13.080
39373SOL    HW120016   2.798   4.183  13.174
39373SOL    HW220017   2.773   4.276  13.057
39374SOL     OW20018   8.802   9.307   9.835
39374SOL    HW120019   8.852   9.382   9.866
39374SOL    HW220020   8.816   9.239   9.902
39375SOL     OW20021  11.442   5.374   2.913
39375SOL    HW120022  11.478   5.304   2.859
39375SOL    HW220023  11.464   5.454   2.865
39376SOL     OW20024   5.379   7.379   6.472
39376SOL    HW120025   5.289   7.410   6.474
39376SOL    HW220026   5.409   7.395   6.383
39377SOL     OW20027   4.376   8.202   5.591
39377SOL    HW120028   4.348   8.115   5.564
39377SOL    HW220029   4.349   8.209   5.683
39378SOL     OW20030   2.340  14.431   4.139
39378SOL    HW120031   2.297  14.401   4.059
39378SOL    HW220032   2.302  14.518   4.155
39379SOL     OW20033  14.169  13.039   7.842
39379SOL    HW120034  14.214  12.968   7.886
39379SOL    HW220035  14.226  13.115   7.853
39380SOL     OW20036   4.660   2.329   0.891
39380SOL    HW120037   4.661   2.282   0.807
39380SOL    HW220038   4.610   2.272   0.949
39381SOL     OW20039   2.660  11.646   0.012
39381SOL    HW120040   2.739  11.679  14.841
39381SOL    HW220041   2.692  11.607   0.093
39382SOL     OW20042  14.336   0.380   3.520
39382SOL    HW120043  14.249   0.419   3.531
39382SOL    HW220044  14.395   0.440   3.567
39383SOL     OW20045  10.335  14.113   8.180
39383SOL    HW120046  10.270  14.095   8.248
39383SOL    HW220047  10.357  14.026   8.145
39384SOL     OW20048   7.788   4.390   0.692
39384SOL    HW120049   7.801   4.479   0.725
39384SOL    HW220050   7.771   4.337   0.770
39385SOL     OW20051   0.108   9.978   6.339
39385SOL    HW120052   0.203   9.989   6.345
39385SOL    HW220053   0.084  10.021   6.257
39386SOL     OW20054   3.688   7.507   3.466
39386SOL    HW120055   3.607   7.487   3.511
39386SOL    HW220056   3.696   7.602   3.470
39387SOL     OW20057   9.728   5.809   4.944
39387SOL    HW120058   9.761   5.817   5.034
39387SOL    HW220059   9.787   5.745   4.903
39388SOL     OW20060  11.399   6.232   2.418
39388SOL    HW120061  11.430   6.241   2.508
39388SOL    HW220062  11.452   6.161   2.381
39389SOL     OW20063  13.584   5.659   8.336
39389SOL    HW120064  13.642   5.693   8.267
39389SOL    HW220065  13.529   5.733   8.360
39390SOL     OW20066  12.399   0.026   2.355
39390SOL    HW120067  12.487   0.049   2.385
39390SOL    HW220068  12.358   0.109   2.333
39391SOL     OW20069   0.634  10.553   6.119
39391SOL    HW120070   0.603  10.630   6.168
39391SOL    HW220071   0.710  10.584   6.071
39392SOL     OW20072  14.825   9.466   0.061
39392SOL    HW120073  14.806   9.506  14.849
39392SOL    HW220074  14.739   9.447   0.099
39393SOL     OW20075   2.074   8.825  11.750
39393SOL    HW120076   2.125   8.747  11.730
39393SOL    HW220077   2.137   8.897  11.747
39394SOL     OW20078  13.169  12.803   5.693
39394SOL    HW120079  13.167  12.709   5.714
39394SOL    HW220080  13.129  12.808   5.606
39395SOL     OW20081   2.074   9.283  13.229
39395SOL    HW120082   2.001   9.234  13.267
39395SOL    HW220083   2.078   9.253  13.138
39396SOL     OW20084   2.678   2.980   1.538
39396SOL    HW120085   2.620   3.030   1.481
39396SOL    HW220086   2.649   2.890   1.529
39397SOL     OW20087   8.835   5.682   1.098
39397SOL    HW120088   8.846   5.777   1.106
39397SOL    HW220089   8.742   5.671   1.077
39398SOL     OW20090   1.174   1.088   5.545
39398SOL    HW120091   1.228   1.167   5.538
39398SOL    HW220092   1.210   1.028   5.481
39399SOL     OW20093   9.539  11.568   7.083
39399SOL    HW120094   9.541  11.510   7.007
39399SOL    HW220095   9.632  11.584   7.103
39400SOL     OW20096   9.570   7.153  12.029
39400SOL    HW120097   9.637   7.095  12.064
39400SOL    HW220098   9.608   7.189  11.950
39401SOL     OW20099  13.296  10.712  10.538
39401SOL    HW120100  13.304  10.717  10.443
39401SOL    HW220101  13.221  10.767  10.559
39402SOL     OW20102   8.760   0.944   4.332
39402SOL    HW120103   8.717   1.008   4.388
39402SOL    HW220104   8.787   0.874   4.392
39403SOL     OW20105   8.094   8.821   2.619
39403SOL    HW120106   8.017   8.800   2.567
39403SOL    HW220107   8.109   8.743   2.672
39404SOL     OW20108   4.049   0.880  13.453
39404SOL    HW120109   3.956   0.882  13.431
39404SOL    HW220110   4.075   0.972  13.454
39405SOL     OW20111  13.238   3.398  14.240
39405SOL    HW120112  13.203   3.315  14.275
39405SOL    HW220113  13.323   3.375  14.204
39406SOL     OW20114   3.164   3.629   4.199
39406SOL    HW120115   3.233   3.575   4.238
39406SOL    HW220116   3.121   3.572   4.136
39407SOL     OW20117   5.116  14.735   3.261
39407SOL    HW120118   5.070  14.819   3.253
39407SOL    HW220119   5.050  14.676   3.299
39408SOL     OW20120  12.473   1.151   2.284
39408SOL    HW120121  12.389   1.157   2.238
39408SOL    HW220122  12.456   1.091   2.356
39409SOL     OW20123   3.435   5.153   6.700
39409SOL    HW120124   3.378   5.147   6.777
39409SOL    HW220125   3.521   5.127   6.731
39410SOL     OW20126   3.792   3.947  10.184
39410SOL    HW120127   3.871   3.899  10.209
39410SOL    HW220128   3.791   4.023  10.242
39411SOL     OW20129   9.093  11.460   0.605
39411SOL    HW120130   9.166  11.506   0.565
39411SOL    HW220131   9.095  11.487   0.697
39412SOL     OW20132  12.050  11.084   7.871
39412SOL    HW120133  12.044  11.174   7.903
39412SOL    HW220134  11.960  11.058   7.855
39413SOL     OW20135   9.400   9.603   9.376
39413SOL    HW120136   9.348   9.683   9.378
39413SOL    HW220137   9.422   9.585   9.467
39414SOL     OW20138  11.836   2.558  10.273
39414SOL    HW120139  11.794   2.620  10.213
39414SOL    HW220140  11.928   2.583  10.272
39415SOL     OW20141  10.291  14.694   2.326
39415SOL    HW120142  10.254  14.753   2.261
39415SOL    HW220143  10.285  14.743   2.408
39416SOL     OW20144   0.387   6.014   6.793
39416SOL    HW120145   0.460   6.074   6.778
39416SOL    HW220146   0.327   6.063   6.849
39417SOL     OW20147   3.648   7.762   3.550
39417SOL    HW120148   3.727   7.814   3.535
39417SOL    HW220149   3.643   7.752   3.645
39418SOL     OW20150   0.539   5.169   6.128
39418SOL    HW120151   0.594   5.246   6.115
39418SOL    HW220152   0.509   5.176   6.219
39419SOL     OW20153   8.110   1.046  14.526
39419SOL    HW120154   8.116   0.991  14.605
39419SOL    HW220155   8.042   1.004  14.473
39420SOL     OW20156   3.755  14.382  14.320
39420SOL    HW120157   3.751  14.296  14.363
39420SOL    HW220158   3.848  14.393  14.299
39421SOL     OW20159  13.959   9.932  12.276
39421SOL    HW120160  13.925   9.868  12.339
39421SOL    HW220161  13.917  10.015  12.302
39422SOL     OW20162   3.264   0.847  12.583
39422SOL    HW120163   3.245   0.941  12.581
39422SOL    HW220164   3.355   0.842  12.613
39423SOL     OW20165  11.879   5.926   8.381
39423SOL    HW120166  11.872   5.840   8.340
39423SOL    HW220167  11.970   5.932   8.411
39424SOL     OW20168  10.862   9.326   2.616
39424SOL    HW120169  10.888   9.312   2.706
39424SOL    HW220170  10.943   9.324   2.566
39425SOL     OW20171   0.314  11.467   8.684
39425SOL    HW120172   0.395  11.485   8.731
39425SOL    HW220173   0.257  11.426   8.748
39426SOL     OW20174   4.553  13.395  10.345
39426SOL    HW120175   4.635  13.350  10.323
39426SOL    HW220176   4.554  13.400  10.441
39427SOL     OW20177   5.342   4.949   7.984
39427SOL    HW120178   5.318   5.002   7.907
39427SOL    HW220179   5.384   5.011   8.042
39428SOL     OW20180   3.386  10.278   7.007
39428SOL    HW120181   3.330  10.259   7.083
39428SOL    HW220182   3.474  10.252   7.035
39429SOL     OW20183   5.182   9.839   9.439
39429SOL    HW120184   5.192   9.759   9.491
39429SOL    HW220185   5.114   9.817   9.375
39430SOL     OW20186  13.996  14.711   8.557
39430SOL    HW120187  14.027  14.629   8.596
39430SOL    HW220188  14.064  14.775   8.578
39431SOL     OW20189  12.072   2.342   9.717
39431SOL    HW120190  12.027   2.395   9.783
39431SOL    HW220191  12.165   2.352   9.738
39432SOL     OW20192   2.745  10.804  11.515
39432SOL    HW120193   2.790  10.873  11.466
39432SOL    HW220194   2.813  10.762  11.567
39433SOL     OW20195   4.793  11.286   5.466
39433SOL    HW120196   4.790  11.370   5.421
39433SOL    HW220197   4.757  11.223   5.403
39434SOL     OW20198  12.058  14.295   3.290
39434SOL    HW120199  12.022  14.339   3.213
39434SOL    HW220200  12.118  14.230   3.254
39435SOL     OW20201   8.427   0.728  14.722
39435SOL    HW120202   8.521   0.717  14.709
39435SOL    HW220203   8.420   0.794  14.791
39436SOL     OW20204  14.508  14.495  14.121
39436SOL    HW120205  14.526  14.542  14.039
39436SOL    HW220206  14.420  14.460  14.109
39437SOL     OW20207  12.571   1.770   6.838
39437SOL    HW120208  12.664   1.778   6.818
39437SOL    HW220209  12.567   1.721   6.919
39438SOL     OW20210   4.100   2.508   9.227
39438SOL    HW120211   4.068   2.473   9.144
39438SOL    HW220212   4.182   2.552   9.204
39439SOL     OW20213   4.103   0.675   4.552
39439SOL    HW120214   4.194   0.699   4.534
39439SOL    HW220215   4.052   0.729   4.493
39440SOL     OW20216   0.604  12.608   5.819
39440SOL    HW120217   0.598  12.683   5.760
39440SOL    HW220218   0.520  12.563   5.809
39441SOL     OW20219   0.962   3.894   9.038
39441SOL    HW120220   1.044   3.922   8.997
39441SOL    HW220221   0.946   3.959   9.106
39442SOL     OW20222  13.025  13.528   3.282
39442SOL    HW120223  13.002  13.587   3.210
39442SOL    HW220224  13.106  13.563   3.318
39443SOL     OW20225   6.350   9.293   6.569
39443SOL    HW120226   6.418   9.331   6.514
39443SOL    HW220227   6.282   9.360   6.573
39444SOL     OW20228   8.579   4.548   0.455
39444SOL    HW120229   8.565   4.628   0.507
39444SOL    HW220230   8.493   4.506   0.453
39445SOL     OW20231   0.718   1.234   3.514
39445SOL    HW120232   0.665   1.160   3.543
39445SOL    HW220233   0.675   1.262   3.433
39446SOL     OW20234   3.456   2.551  10.398
39446SOL    HW120235   3.501   2.625  10.359
39446SOL    HW220236   3.376   2.541  10.346
39447SOL     OW20237  13.095  11.826   4.975
39447SOL    HW120238  13.090  11.745   4.924
39447SOL    HW220239  13.187  11.831   5.003
39448SOL     OW20240  11.326   6.773  11.303
39448SOL    HW120241  11.244   6.760  11.255
39448SOL    HW220242  11.391   6.792  11.235
39449SOL     OW20243   9.879   2.740   3.089
39449SOL    HW120244   9.872   2.655   3.132
39449SOL    HW220245   9.950   2.785   3.135
39450SOL     OW20246  12.664   2.553  14.364
39450SOL    HW120247  12.652   2.464  14.396
39450SOL    HW220248  12.753   2.576  14.391
39451SOL     OW20249   3.815  12.795  12.209
39451SOL    HW120250   3.852  12.803  12.296
39451SOL    HW220251   3.798  12.701  12.198
39452SOL     OW20252   3.474   7.507   7.170
39452SOL    HW120253   3.534   7.472   7.236
39452SOL    HW220254   3.389   7.510   7.214
39453SOL     OW20255  13.172  11.145   2.954
39453SOL    HW120256  13.109  11.193   2.900
39453SOL    HW220257  13.194  11.206   3.025
39454SOL     OW20258  13.959   6.951   2.693
39454SOL    HW120259  13.918   7.031   2.658
39454SOL    HW220260  13.899   6.921   2.761
39455SOL     OW20261   5.614  11.870   9.191
39455SOL    HW120262   5.682  11.937   9.194
39455SOL    HW220263   5.600  11.845   9.282
39456SOL     OW20264  10.060  10.802  10.442
39456SOL    HW120265   9.984  10.855  10.467
39456SOL    HW220266  10.067  10.813  10.347
39457SOL     OW20267  12.101   7.700  11.023
39457SOL    HW120268  12.076   7.613  10.993
39457SOL    HW220269  12.184   7.687  11.070
39458SOL     OW20270   0.837   6.725   2.004
39458SOL    HW120271   0.881   6.806   2.030
39458SOL    HW220272   0.885   6.656   2.048
39459SOL     OW20273  14.474   8.921   9.940
39459SOL    HW120274  14.493   8.951  10.030
39459SOL    HW220275  14.547   8.862   9.919
39460SOL     OW20276   1.605   7.139   3.200
39460SOL    HW120277   1.591   7.089   3.280
39460SOL    HW220278   1.519   7.173   3.177
39461SOL     OW20279  13.059   6.493   2.151
39461SOL    HW120280  12.966   6.499   2.172
39461SOL    HW220281  13.101   6.471   2.235
39462SOL     OW20282   5.018  13.823   2.540
39462SOL    HW120283   4.979  13.896   2.492
39462SOL    HW220284   4.960  13.809   2.615
39463SOL     OW20285   8.128   8.449   9.899
39463SOL    HW120286   8.037   8.456   9.868
39463SOL    HW220287   8.163   8.538   9.891
39464SOL     OW20288   1.623   1.446   6.978
39464SOL    HW120289   1.550   1.438   6.916
39464SOL    HW220290   1.690   1.494   6.930
39465SOL     OW20291   1.960   3.359   4.099
39465SOL    HW120292   1.915   3.366   4.015
39465SOL    HW220293   1.896   3.321   4.158
39466SOL     OW20294   2.722   5.736   6.572
39466SOL    HW120295   2.761   5.649   6.568
39466SOL    HW220296   2.690   5.744   6.662
39467SOL     OW20297  14.675   6.624   2.939
39467SOL    HW120298  14.731   6.617   3.017
39467SOL    HW220299  14.669   6.718   2.923
39468SOL     OW20300   5.578  13.211   6.431
39468SOL    HW120301   5.498  13.178   6.471
39468SOL    HW220302   5.552  13.239   6.343
39469SOL     OW20303   7.715  12.770   0.423
39469SOL    HW120304   7.749  12.760   0.512
39469SOL    HW220305   7.676  12.857   0.422
39470SOL     OW20306   7.952   2.753   7.214
39470SOL    HW120307   7.882   2.786   7.271
39470SOL    HW220308   8.028   2.807   7.236
39471SOL     OW20309   9.224   2.427  13.136
39471SOL    HW120310   9.205   2.350  13.082
39471SOL    HW220311   9.168   2.496  13.099
39472SOL     OW20312   6.792   9.821   6.028
39472SOL    HW120313   6.869   9.768   6.045
39472SOL    HW220314   6.761   9.847   6.114
39473SOL     OW20315   9.121   6.244   6.458
39473SOL    HW120316   9.057   6.175   6.472
39473SOL    HW220317   9.109   6.303   6.533
39474SOL     OW20318   4.262   2.202  11.240
39474SOL    HW120319   4.302   2.118  11.261
39474SOL    HW220320   4.336   2.258  11.215
39475SOL     OW20321  11.785   9.980  11.155
39475SOL    HW120322  11.876   9.950  11.164
39475SOL    HW220323  11.733   9.903  11.178
39476SOL     OW20324  11.521   5.165   2.349
39476SOL    HW120325  11.563   5.134   2.269
39476SOL    HW220326  11.518   5.088   2.406
39477SOL     OW20327  12.800   7.563  13.695
39477SOL    HW120328  12.735   7.544  13.762
39477SOL    HW220329  12.760   7.533  13.613
39478SOL     OW20330   4.448  10.734  10.814
39478SOL    HW120331   4.353  10.728  10.811
39478SOL    HW220332   4.475  10.654  10.859
39479SOL     OW20333   5.789   9.940   6.969
39479SOL    HW120334   5.774   9.901   7.055
39479SOL    HW220335   5.800  10.033   6.986
39480SOL     OW20336   4.981   9.011  11.788
39480SOL    HW120337   5.004   9.067  11.862
39480SOL    HW220338   5.006   8.923  11.816
39481SOL     OW20339  12.335  14.666   1.768
39481SOL    HW120340  12.283  14.591   1.742
39481SOL    HW220341  12.426  14.636   1.762
39482SOL     OW20342   8.607   6.820   0.288
39482SOL    HW120343   8.644   6.902   0.321
39482SOL    HW220344   8.534   6.801   0.347
39483SOL     OW20345  10.213   8.534   0.125
39483SOL    HW120346  10.147   8.468   0.144
39483SOL    HW220347  10.280   8.522   0.194
39484SOL     OW20348  11.796   1.738  13.682
39484SOL    HW120349  11.759   1.692  13.758
39484SOL    HW220350  11.791   1.674  13.611
39485SOL     OW20351   2.955  10.752   2.429
39485SOL    HW120352   2.870  10.758   2.473
39485SOL    HW220353   2.975  10.842   2.403
39486SOL     OW20354   5.857   3.499   7.382
39486SOL    HW120355   5.841   3.583   7.338
39486SOL    HW220356   5.922   3.455   7.327
39487SOL     OW20357   9.188   2.174   0.505
39487SOL    HW120358   9.117   2.236   0.491
39487SOL    HW220359   9.147   2.088   0.494
39488SOL     OW20360   3.077   5.286   2.128
39488SOL    HW120361   3.001   5.228   2.131
39488SOL    HW220362   3.141   5.245   2.186
39489SOL     OW20363   2.763   3.373   9.984
39489SOL    HW120364   2.775   3.382   9.889
39489SOL    HW220365   2.763   3.463  10.016
39490SOL     OW20366  10.103  11.739  13.003
39490SOL    HW120367  10.195  11.762  12.992
39490SOL    HW220368  10.100  11.692  13.086
39491SOL     OW20369   9.300  12.331   3.452
39491SOL    HW120370   9.369  12.395   3.469
39491SOL    HW220371   9.228  12.357   3.509
39492SOL     OW20372   9.412  11.541   8.924
39492SOL    HW120373   9.409  11.584   8.839
39492SOL    HW220374   9.368  11.602   8.984
39493SOL     OW20375   1.136   8.120   4.237
39493SOL    HW120376   1.051   8.152   4.268
39493SOL    HW220377   1.160   8.181   4.167
39494SOL     OW20378  12.951   4.814  13.857
39494SOL    HW120379  12.907   4.897  13.837
39494SOL    HW220380  12.987   4.785  13.773
39495SOL     OW20381   5.630   2.438   8.035
39495SOL    HW120382   5.542   2.475   8.031
39495SOL    HW220383   5.683   2.505   8.079
39496SOL     OW20384  14.564   9.297   5.477
39496SOL    HW120385  14.646   9.260   5.509
39496SOL    HW220386  14.588   9.342   5.396
39497SOL     OW20387  11.133   5.318  13.387
39497SOL    HW120388  11.048   5.317  13.344
39497SOL    HW220389  11.120   5.272  13.469
39498SOL     OW20390   8.547   9.196   7.064
39498SOL    HW120391   8.518   9.271   7.013
39498SOL    HW220392   8.500   9.122   7.026
39499SOL     OW20393   3.338   4.030   0.113
39499SOL    HW120394   3.303   3.967   0.176
39499SOL    HW220395   3.425   4.052   0.147
39500SOL     OW20396   8.435   9.796  14.357
39500SOL    HW120397   8.467   9.792  14.447
39500SOL    HW220398   8.440   9.889  14.333
39501SOL     OW20399   5.750   3.325   6.700
39501SOL    HW120400   5.689   3.342   6.627
39501SOL    HW220401   5.788   3.411   6.719
39502SOL     OW20402   0.461  12.002   7.619
39502SOL    HW120403   0.509  12.002   7.703
39502SOL    HW220404   0.396  11.932   7.629
39503SOL     OW20405   1.276   9.177   8.299
39503SOL    HW120406   1.218   9.119   8.250
39503SOL    HW220407   1.303   9.243   8.235
39504SOL     OW20408   3.486   8.138   0.256
39504SOL    HW120409   3.560   8.117   0.200
39504SOL    HW220410   3.508   8.100   0.341
39505SOL     OW20411   0.961  12.989   1.980
39505SOL    HW120412   0.876  12.959   1.948
39505SOL    HW220413   1.010  12.908   1.995
39506SOL     OW20414  14.651   9.426   2.519
39506SOL    HW120415  14.685   9.471   2.596
39506SOL    HW220416  14.615   9.343   2.553
39507SOL     OW20417  14.067  10.636   2.889
39507SOL    HW120418  14.103  10.704   2.833
39507SOL    HW220419  14.012  10.583   2.831
39508SOL     OW20420   5.376   8.704   3.732
39508SOL    HW120421   5.456   8.747   3.702
39508SOL    HW220422   5.404   8.650   3.806
39509SOL     OW20423   6.048   5.544  12.060
39509SOL    HW120424   5.963   5.560  12.101
39509SOL    HW220425   6.109   5.599  12.109
39510SOL     OW20426   5.389   2.739   5.274
39510SOL    HW120427   5.416   2.655   5.312
39510SOL    HW220428   5.333   2.714   5.200
39511SOL     OW20429   8.116   5.840   8.080
39511SOL    HW120430   8.081   5.919   8.121
39511SOL    HW220431   8.051   5.772   8.098
39512SOL     OW20432  12.137  12.850   1.978
39512SOL    HW120433  12.142  12.917   2.046
39512SOL    HW220434  12.198  12.880   1.910
39513SOL     OW20435   4.753   6.972  11.568
39513SOL    HW120436   4.823   6.959  11.632
39513SOL    HW220437   4.690   7.029  11.614
39514SOL     OW20438   1.107   1.590   3.101
39514SOL    HW120439   1.159   1.594   3.181
39514SOL    HW220440   1.083   1.498   3.091
39515SOL     OW20441   6.694  13.317   8.753
39515SOL    HW120442   6.706  13.332   8.659
39515SOL    HW220443   6.680  13.404   8.790
39516SOL     OW20444  11.829   3.389  11.317
39516SOL    HW120445  11.902   3.394  11.256
39516SOL    HW220446  11.848   3.312  11.371
39517SOL     OW20447   6.871   8.513   5.551
39517SOL    HW120448   6.855   8.419   5.562
39517SOL    HW220449   6.930   8.519   5.476
39518SOL     OW20450   7.416   8.824   0.680
39518SOL    HW120451   7.325   8.812   0.652
39518SOL    HW220452   7.462   8.854   0.602
39519SOL     OW20453  12.248  11.241   7.337
39519SOL    HW120454  12.293  11.189   7.270
39519SOL    HW220455  12.157  11.213   7.331
39520SOL     OW20456   5.849   8.266   7.884
39520SOL    HW120457   5.870   8.307   7.800
39520SOL    HW220458   5.845   8.172   7.864
39521SOL     OW20459   2.845  10.486  10.678
39521SOL    HW120460   2.907  10.554  10.704
39521SOL    HW220461   2.901  10.412  10.651
39522SOL     OW20462   3.587   8.718   2.870
39522SOL    HW120463   3.517   8.743   2.810
39522SOL    HW220464   3.604   8.797   2.921
39523SOL     OW20465   1.426   5.277   2.856
39523SOL    HW120466   1.480   5.260   2.779
39523SOL    HW220467   1.385   5.193   2.877
39524SOL     OW20468   8.963   3.148   9.498
39524SOL    HW120469   8.882   3.099   9.515
39524SOL    HW220470   8.967   3.157   9.403
39525SOL     OW20471  11.877   2.553   5.839
39525SOL    HW120472  11.829   2.544   5.756
39525SOL    HW220473  11.969   2.562   5.812
39526SOL     OW20474   3.694   1.759  13.300
39526SOL    HW120475   3.745   1.761  13.381
39526SOL    HW220476   3.697   1.668  13.272
39527SOL     OW20477  11.621   7.964   7.773
39527SOL    HW120478  11.693   8.025   7.759
39527SOL    HW220479  11.553   7.993   7.712
39528SOL     OW20480   3.755   1.320   1.315
39528SOL    HW120481   3.831   1.267   1.339
39528SOL    HW220482   3.710   1.337   1.397
39529SOL     OW20483  13.893  14.443  11.389
39529SOL    HW120484  13.919  14.513  11.329
39529SOL    HW220485  13.897  14.482  11.475
39530SOL     OW20486  12.719   8.639   8.974
39530SOL    HW120487  12.693   8.665   8.886
39530SOL    HW220488  12.806   8.678   8.986
39531SOL     OW20489   3.633   5.891  13.305
39531SOL    HW120490   3.686   5.950  13.359
39531SOL    HW220491   3.668   5.901  13.217
39532SOL     OW20492   9.413  11.801   4.517
39532SOL    HW120493   9.461  11.805   4.434
39532SOL    HW220494   9.336  11.748   4.497
39533SOL     OW20495   5.852   5.332  11.600
39533SOL    HW120496   5.885   5.242  11.591
39533SOL    HW220497   5.881   5.360  11.687
39534SOL     OW20498  11.016   2.267   0.367
39534SOL    HW120499  10.998   2.267   0.461
39534SOL    HW220500  11.075   2.341   0.353
39535SOL     OW20501  14.372   1.341  11.381
39535SOL    HW120502  14.441   1.290  11.340
39535SOL    HW220503  14.406   1.431  11.382
39536SOL     OW20504   4.870   1.031  10.447
39536SOL    HW120505   4.932   0.993  10.385
39536SOL    HW220506   4.877   0.977  10.525
39537SOL     OW20507   9.338   6.114  12.765
39537SOL    HW120508   9.367   6.023  12.770
39537SOL    HW220509   9.243   6.111  12.773
39538SOL     OW20510   6.845   0.782   0.330
39538SOL    HW120511   6.786   0.844   0.289
39538SOL    HW220512   6.927   0.790   0.281
39539SOL     OW20513  13.275   9.007   8.515
39539SOL    HW120514  13.234   8.922   8.499
39539SOL    HW220515  13.360   9.001   8.470
39540SOL     OW20516   3.622   0.094   4.060
39540SOL    HW120517   3.540   0.072   4.105
39540SOL    HW220518   3.634   0.024   3.996
39541SOL     OW20519   0.131   4.516   8.968
39541SOL    HW120520   0.219   4.497   8.936
39541SOL    HW220521   0.099   4.584   8.909
39542SOL     OW20522   8.908   0.320  10.484
39542SOL    HW120523   8.952   0.250  10.533
39542SOL    HW220524   8.975   0.354  10.425
39543SOL     OW20525  11.924   3.475   2.134
39543SOL    HW120526  12.018   3.456   2.130
39543SOL    HW220527  11.883   3.389   2.134
39544SOL     OW20528  12.158   8.964   9.995
39544SOL    HW120529  12.243   8.965  10.038
39544SOL    HW220530  12.128   9.055   9.998
39545SOL     OW20531   5.645   4.494  11.133
39545SOL    HW120532   5.604   4.408  11.126
39545SOL    HW220533   5.738   4.476  11.144
39546SOL     OW20534   8.307   2.860   8.845
39546SOL    HW120535   8.249   2.832   8.916
39546SOL    HW220536   8.280   2.950   8.826
39547SOL     OW20537  12.426   8.294   3.561
39547SOL    HW120538  12.417   8.268   3.653
39547SOL    HW220539  12.411   8.389   3.562
39548SOL     OW20540   6.141  10.718   3.650
39548SOL    HW120541   6.227  10.707   3.610
39548SOL    HW220542   6.103  10.630   3.652
39549SOL     OW20543  11.961   4.035  12.774
39549SOL    HW120544  12.006   4.020  12.690
39549SOL    HW220545  11.885   4.087  12.750
39550SOL     OW20546   1.488   8.636  13.443
39550SOL    HW120547   1.493   8.730  13.460
39550SOL    HW220548   1.564   8.618  13.386
39551SOL     OW20549   0.963   4.258  14.682
39551SOL    HW120550   0.891   4.274  14.743
39551SOL    HW220551   1.032   4.319  14.710
39552SOL     OW20552  12.977   9.754   8.522
39552SOL    HW120553  12.976   9.661   8.547
39552SOL    HW220554  12.909   9.762   8.456
39553SOL     OW20555   0.143   2.878   7.644
39553SOL    HW120556   0.191   2.795   7.632
39553SOL    HW220557   0.051   2.852   7.642
39554SOL     OW20558   3.734   0.013   2.561
39554SOL    HW120559   3.710  14.800   2.597
39554SOL    HW220560   3.809  14.867   2.504
39555SOL     OW20561   0.316   4.530   7.921
39555SOL    HW120562   0.255   4.484   7.979
39555SOL    HW220563   0.355   4.598   7.977
39556SOL     OW20564   0.331  12.998   2.810
39556SOL    HW120565   0.268  13.004   2.882
39556SOL    HW220566   0.277  13.008   2.731
39557SOL     OW20567   5.049   2.390   1.730
39557SOL    HW120568   5.053   2.324   1.661
39557SOL    HW220569   4.971   2.441   1.710
39558SOL     OW20570   0.879   7.775   9.144
39558SOL    HW120571   0.793   7.782   9.186
39558SOL    HW220572   0.941   7.788   9.216
39559SOL     OW20573  10.376  13.162  11.936
39559SOL    HW120574  10.314  13.142  12.006
39559SOL    HW220575  10.329  13.221  11.878
39560SOL     OW20576   2.964   6.712   6.170
39560SOL    HW120577   2.977   6.800   6.137
39560SOL    HW220578   2.917   6.667   6.099
39561SOL     OW20579   7.264   2.040   4.140
39561SOL    HW120580   7.170   2.022   4.139
39561SOL    HW220581   7.276   2.101   4.213
39562SOL     OW20582   3.613   0.396  12.233
39562SOL    HW120583   3.702   0.398  12.199
39562SOL    HW220584   3.616   0.446  12.315
39563SOL     OW20585   6.410   1.420   4.591
39563SOL    HW120586   6.383   1.399   4.502
39563SOL    HW220587   6.501   1.390   4.595
39564SOL     OW20588   5.450  11.148   7.286
39564SOL    HW120589   5.470  11.241   7.287
39564SOL    HW220590   5.532  11.106   7.258
39565SOL     OW20591  14.632  13.782   6.911
39565SOL    HW120592  14.684  13.703   6.901
39565SOL    HW220593  14.660  13.838   6.838
39566SOL     OW20594  11.632   4.398   2.743
39566SOL    HW120595  11.622   4.306   2.719
39566SOL    HW220596  11.622   4.399   2.838
39567SOL     OW20597   1.849  11.211  14.488
39567SOL    HW120598   1.913  11.189  14.556
39567SOL    HW220599   1.902  11.238  14.413
39568SOL     OW20600  12.107  11.590  10.006
39568SOL    HW120601  12.018  11.614  10.030
39568SOL    HW220602  12.119  11.503  10.045
39569SOL     OW20603  12.944  14.344   2.937
39569SOL    HW120604  13.024  14.334   2.886
39569SOL    HW220605  12.883  14.387   2.877
39570SOL     OW20606  10.920   7.603  12.371
39570SOL    HW120607  10.951   7.513  12.358
39570SOL    HW220608  10.963   7.653  12.302
39571SOL     OW20609   1.143   3.210   6.411
39571SOL    HW120610   1.202   3.145   6.372
39571SOL    HW220611   1.069   3.159   6.442
39572SOL     OW20612   1.579   6.144  14.546
39572SOL    HW120613   1.669   6.169  14.528
39572SOL    HW220614   1.552   6.202  14.617
39573SOL     OW20615   1.589   3.219  10.938
39573SOL    HW120616   1.623   3.202  11.026
39573SOL    HW220617   1.644   3.165  10.881
39574SOL     OW20618   2.195   3.332   7.503
39574SOL    HW120619   2.166   3.418   7.473
39574SOL    HW220620   2.284   3.324   7.470
39575SOL     OW20621   8.890   2.011   5.417
39575SOL    HW120622   8.896   2.085   5.356
39575SOL    HW220623   8.935   2.042   5.496
39576SOL     OW20624   1.010   7.006   7.112
39576SOL    HW120625   1.079   7.063   7.146
39576SOL    HW220626   1.035   6.918   7.139
39577SOL     OW20627  14.663  12.084   3.337
39577SOL    HW120628  14.699  12.012   3.389
39577SOL    HW220629  14.723  12.095   3.264
39578SOL     OW20630   9.146   2.368  12.783
39578SOL    HW120631   9.084   2.329  12.844
39578SOL    HW220632   9.101   2.446  12.751
39579SOL     OW20633   3.242  13.087   7.278
39579SOL    HW120634   3.256  12.995   7.298
39579SOL    HW220635   3.281  13.099   7.192
39580SOL     OW20636  13.194   5.168  11.329
39580SOL    HW120637  13.126   5.231  11.355
39580SOL    HW220638  13.272   5.197  11.376
39581SOL     OW20639   8.021   0.056   2.181
39581SOL    HW120640   8.047   0.074   2.272
39581SOL    HW220641   8.047   0.134   2.132
39582SOL     OW20642   9.401   6.027   4.555
39582SOL    HW120643   9.364   5.952   4.508
39582SOL    HW220644   9.415   5.995   4.644
39583SOL     OW20645   1.913   4.839   2.391
39583SOL    HW120646   1.965   4.763   2.418
39583SOL    HW220647   1.975   4.912   2.390
39584SOL     OW20648  13.328   2.349   8.731
39584SOL    HW120649  13.373   2.284   8.785
39584SOL    HW220650  13.289   2.299   8.660
39585SOL     OW20651  11.552  13.715  10.161
39585SOL    HW120652  11.464  13.678  10.155
39585SOL    HW220653  11.580  13.696  10.251
39586SOL     OW20654   4.745   8.182   8.469
39586SOL    HW120655   4.706   8.264   8.501
39586SOL    HW220656   4.711   8.114   8.528
39587SOL     OW20657   2.153   7.179  11.618
39587SOL    HW120658   2.142   7.273  11.634
39587SOL    HW220659   2.074   7.139  11.656
39588SOL     OW20660   6.030   5.283   8.011
39588SOL    HW120661   6.094   5.337   7.966
39588SOL    HW220662   6.078   5.246   8.085
39589SOL     OW20663  14.099  10.990   4.249
39589SOL    HW120664  14.020  11.007   4.300
39589SOL    HW220665  14.137  10.912   4.290
39590SOL     OW20666   8.038  11.354   5.792
39590SOL    HW120667   8.021  11.446   5.773
39590SOL    HW220668   8.069  11.354   5.883
39591SOL     OW20669   1.888   1.610   2.986
39591SOL    HW120670   1.793   1.619   2.986
39591SOL    HW220671   1.905   1.535   2.930
39592SOL     OW20672  12.849  10.022   7.103
39592SOL    HW120673  12.768  10.041   7.149
39592SOL    HW220674  12.896  10.105   7.100
39593SOL     OW20675   8.720   1.100  14.587
39593SOL    HW120676   8.659   1.072  14.519
39593SOL    HW220677   8.668   1.156  14.644
39594SOL     OW20678   5.054   4.474   0.740
39594SOL    HW120679   4.965   4.492   0.712
39594SOL    HW220680   5.105   4.470   0.659
39595SOL     OW20681   5.848  13.983  10.248
39595SOL    HW120682   5.879  13.898  10.279
39595SOL    HW220683   5.859  13.980  10.153
39596SOL     OW20684  10.485   4.887   0.333
39596SOL    HW120685  10.467   4.796   0.357
39596SOL    HW220686  10.538   4.922   0.405
39597SOL     OW20687   9.555   7.707   7.646
39597SOL    HW120688   9.482   7.767   7.658
39597SOL    HW220689   9.564   7.662   7.729
39598SOL     OW20690   3.054  12.741   1.867
39598SOL    HW120691   3.037  12.785   1.784
39598SOL    HW220692   3.119  12.674   1.847
39599SOL     OW20693   9.864   6.055   2.190
39599SOL    HW120694   9.781   6.028   2.151
39599SOL    HW220695   9.919   6.079   2.114
39600SOL     OW20696   6.966  14.343   6.942
39600SOL    HW120697   6.879  14.378   6.924
39600SOL    HW220698   6.950  14.252   6.969
39601SOL     OW20699   2.383   2.695   3.001
39601SOL    HW120700   2.439   2.772   2.987
39601SOL    HW220701   2.340   2.712   3.085
39602SOL     OW20702   8.600   3.785  10.878
39602SOL    HW120703   8.654   3.746  10.947
39602SOL    HW220704   8.616   3.879  10.885
39603SOL     OW20705   5.383   3.878  10.420
39603SOL    HW120706   5.336   3.923  10.349
39603SOL    HW220707   5.462   3.845  10.379
39604SOL     OW20708  14.547  10.188   6.342
39604SOL    HW120709  14.602  10.159   6.415
39604SOL    HW220710  14.460  10.155   6.363
39605SOL     OW20711  12.331   9.822   5.641
39605SOL    HW120712  12.342   9.728   5.650
39605SOL    HW220713  12.245   9.841   5.677
39606SOL     OW20714  13.811  14.488   6.792
39606SOL    HW120715  13.852  14.574   6.791
39606SOL    HW220716  13.784  14.475   6.883
39607SOL     OW20717   0.954   8.974   4.008
39607SOL    HW120718   0.977   8.885   3.983
39607SOL    HW220719   1.034   9.009   4.049
39608SOL     OW20720   4.300   5.813  13.598
39608SOL    HW120721   4.394   5.830  13.604
39608SOL    HW220722   4.281   5.819  13.504
39609SOL     OW20723   3.351   6.307   4.562
39609SOL    HW120724   3.377   6.343   4.647
39609SOL    HW220725   3.266   6.266   4.578
39610SOL     OW20726  10.844   0.663  13.439
39610SOL    HW120727  10.864   0.664  13.532
39610SOL    HW220728  10.852   0.754  13.411
39611SOL     OW20729   2.645   2.437   9.702
39611SOL    HW120730   2.692   2.354   9.694
39611SOL    HW220731   2.552   2.412   9.697
39612SOL     OW20732   1.336   1.356  13.800
39612SOL    HW120733   1.287   1.337  13.720
39612SOL    HW220734   1.382   1.274  13.819
39613SOL     OW20735   9.552   3.004  11.672
39613SOL    HW120736   9.529   2.995  11.764
39613SOL    HW220737   9.575   2.916  11.644
39614SOL     OW20738   1.939   6.823   2.425
39614SOL    HW120739   1.941   6.752   2.361
39614SOL    HW220740   1.998   6.796   2.495
39615SOL     OW20741   7.472   2.344   0.945
39615SOL    HW120742   7.512   2.431   0.950
39615SOL    HW220743   7.379   2.362   0.931
39616SOL     OW20744   7.540   8.311  12.015
39616SOL    HW120745   7.485   8.240  11.982
39616SOL    HW220746   7.530   8.306  12.110
39617SOL     OW20747  14.454  14.252   4.669
39617SOL    HW120748  14.399  14.173   4.666
39617SOL    HW220749  14.541  14.220   4.694
39618SOL     OW20750   6.354  13.143   6.977
39618SOL    HW120751   6.288  13.147   7.045
39618SOL    HW220752   6.316  13.189   6.903
39619SOL     OW20753  14.168   0.557   8.653
39619SOL    HW120754  14.090   0.504   8.670
39619SOL    HW220755  14.213   0.560   8.738
39620SOL     OW20756  11.833  10.036   7.066
39620SOL    HW120757  11.747  10.068   7.038
39620SOL    HW220758  11.889  10.047   6.989
39621SOL     OW20759  11.727  10.010   0.646
39621SOL    HW120760  11.749   9.930   0.599
39621SOL    HW220761  11.811  10.041   0.680
39622SOL     OW20762   5.707   2.253  11.045
39622SOL    HW120763   5.624   2.284  11.082
39622SOL    HW220764   5.773   2.302  11.094
39623SOL     OW20765   5.216   9.021  11.086
39623SOL    HW120766   5.283   8.980  11.032
39623SOL    HW220767   5.255   9.026  11.174
39624SOL     OW20768   1.379   4.443  12.358
39624SOL    HW120769   1.450   4.506  12.350
39624SOL    HW220770   1.355   4.421  12.268
39625SOL     OW20771  12.479   7.461   2.473
39625SOL    HW120772  12.429   7.380   2.485
39625SOL    HW220773  12.495   7.493   2.562
39626SOL     OW20774   3.099   1.637   3.892
39626SOL    HW120775   3.168   1.703   3.891
39626SOL    HW220776   3.123   1.575   3.824
39627SOL     OW20777   2.439  10.173   3.940
39627SOL    HW120778   2.398  10.127   4.013
39627SOL    HW220779   2.409  10.127   3.862
39628SOL     OW20780   3.629  13.053   3.493
39628SOL    HW120781   3.652  13.025   3.404
39628SOL    HW220782   3.706  13.031   3.546
39629SOL     OW20783  14.708  12.527   4.218
39629SOL    HW120784  14.759  12.470   4.275
39629SOL    HW220785  14.683  12.471   4.144
39630SOL     OW20786   5.979   5.859   3.285
39630SOL    HW120787   5.919   5.892   3.351
39630SOL    HW220788   5.943   5.889   3.202
39631SOL     OW20789  10.299   9.655   1.662
39631SOL    HW120790  10.292   9.575   1.609
39631SOL    HW220791  10.209   9.682   1.678
39632SOL     OW20792   4.726   9.600  10.647
39632SOL    HW120793   4.800   9.651  10.614
39632SOL    HW220794   4.757   9.564  10.730
39633SOL     OW20795   0.623   3.107  14.108
39633SOL    HW120796   0.561   3.151  14.049
39633SOL    HW220797   0.623   3.016  14.079
39634SOL     OW20798  11.167   9.570   6.080
39634SOL    HW120799  11.152   9.577   6.174
39634SOL    HW220800  11.093   9.518   6.047
39635SOL     OW20801   7.962   3.636   4.689
39635SOL    HW120802   7.988   3.581   4.615
39635SOL    HW220803   8.036   3.630   4.750
39636SOL     OW20804   0.153   2.360  13.640
39636SOL    HW120805   0.232   2.312  13.667
39636SOL    HW220806   0.151   2.352  13.545
39637SOL     OW20807  11.798  10.717  13.381
39637SOL    HW120808  11.723  10.736  13.325
39637SOL    HW220809  11.788  10.777  13.455
39638SOL     OW20810   3.261   6.749   8.517
39638SOL    HW120811   3.352   6.748   8.485
39638SOL    HW220812   3.255   6.830   8.569
39639SOL     OW20813  14.279   5.889  11.135
39639SOL    HW120814  14.199   5.842  11.158
39639SOL    HW220815  14.321   5.907  11.220
39640SOL     OW20816  10.878   3.175   4.559
39640SOL    HW120817  10.849   3.194   4.648
39640SOL    HW220818  10.839   3.245   4.506
39641SOL     OW20819   0.893   2.610   2.138
39641SOL    HW120820   0.827   2.679   2.137
39641SOL    HW220821   0.951   2.631   2.064
39642SOL     OW20822   5.582   4.773  14.300
39642SOL    HW120823   5.533   4.690  14.304
39642SOL    HW220824   5.610   4.788  14.391
39643SOL     OW20825   9.445  11.869   8.168
39643SOL    HW120826   9.525  11.912   8.139
39643SOL    HW220827   9.455  11.778   8.141
39644SOL     OW20828   6.530   6.288   6.080
39644SOL    HW120829   6.540   6.266   5.988
39644SOL    HW220830   6.485   6.372   6.080
39645SOL     OW20831   9.944   5.750   0.912
39645SOL    HW120832  10.014   5.763   0.849
39645SOL    HW220833   9.988   5.730   0.995
39646SOL     OW20834  14.740   2.146   8.798
39646SOL    HW120835  14.778   2.228   8.767
39646SOL    HW220836  14.706   2.104   8.719
39647SOL     OW20837   1.188  12.475   4.521
39647SOL    HW120838   1.192  12.379   4.517
39647SOL    HW220839   1.106  12.494   4.567
39648SOL     OW20840   5.633   1.253   6.915
39648SOL    HW120841   5.672   1.329   6.957
39648SOL    HW220842   5.663   1.258   6.824
39649SOL     OW20843   8.275  13.036   6.838
39649SOL    HW120844   8.350  12.986   6.870
39649SOL    HW220845   8.262  13.006   6.748
39650SOL     OW20846   5.969   0.094  12.690
39650SOL    HW120847   5.949   0.033  12.619
39650SOL    HW220848   6.064   0.106  12.685
39651SOL     OW20849   4.370   0.034  12.152
39651SOL    HW120850   4.308  14.856  12.099
39651SOL    HW220851   4.320   0.112  12.180
39652SOL     OW20852  10.698  10.942  11.911
39652SOL    HW120853  10.631  10.930  11.844
39652SOL    HW220854  10.770  10.886  11.882
39653SOL     OW20855   4.769   7.187   7.727
39653SOL    HW120856   4.765   7.120   7.658
39653SOL    HW220857   4.770   7.136   7.808
39654SOL     OW20858   0.443  12.982   8.111
39654SOL    HW120859   0.451  12.921   8.037
39654SOL    HW220860   0.420  12.926   8.185
39655SOL     OW20861   1.078  12.335  13.793
39655SOL    HW120862   0.995  12.377  13.816
39655SOL    HW220863   1.145  12.386  13.838
39656SOL     OW20864   7.562   4.676   9.522
39656SOL    HW120865   7.654   4.682   9.499
39656SOL    HW220866   7.559   4.607   9.589
39657SOL     OW20867   7.044   8.015   6.259
39657SOL    HW120868   6.973   8.011   6.322
39657SOL    HW220869   7.097   7.938   6.278
39658SOL     OW20870   5.822   5.808   1.746
39658SOL    HW120871   5.826   5.844   1.834
39658SOL    HW220872   5.904   5.834   1.705
39659SOL     OW20873   0.462   1.464   8.565
39659SOL    HW120874   0.386   1.442   8.618
39659SOL    HW220875   0.428   1.476   8.477
39660SOL     OW20876  10.960   8.337  12.463
39660SOL    HW120877  10.904   8.269  12.425
39660SOL    HW220878  11.020   8.361  12.393
39661SOL     OW20879   4.044   5.796   4.899
39661SOL    HW120880   3.965   5.846   4.921
39661SOL    HW220881   4.038   5.717   4.953
39662SOL     OW20882  13.902   5.747   0.497
39662SOL    HW120883  13.834   5.704   0.549
39662SOL    HW220884  13.883   5.840   0.505
39663SOL     OW20885   2.760   0.015   4.965
39663SOL    HW120886   2.814   0.010   4.886
39663SOL    HW220887   2.822   0.020   5.037
39664SOL     OW20888   4.646   9.892   2.666
39664SOL    HW120889   4.562   9.897   2.619
39664SOL    HW220890   4.712   9.902   2.598
39665SOL     OW20891  14.421   7.728   5.847
39665SOL    HW120892  14.385   7.817   5.847
39665SOL    HW220893  14.437   7.709   5.939
39666SOL     OW20894   0.924   2.245  11.430
39666SOL    HW120895   0.855   2.188  11.396
39666SOL    HW220896   0.918   2.237  11.525
39667SOL     OW20897  13.953  13.337   9.172
39667SOL    HW120898  14.013  13.267   9.145
39667SOL    HW220899  14.006  13.417   9.168
39668SOL     OW20900   0.638   6.954   5.271
39668SOL    HW120901   0.580   6.950   5.195
39668SOL    HW220902   0.686   6.871   5.270
39669SOL     OW20903   8.269  10.068  10.906
39669SOL    HW120904   8.357  10.072  10.869
39669SOL    HW220905   8.278  10.014  10.985
39670SOL     OW20906   7.972   9.998   7.499
39670SOL    HW120907   7.960  10.053   7.422
39670SOL    HW220908   8.033   9.930   7.471
39671SOL     OW20909   1.135   7.049  12.054
39671SOL    HW120910   1.043   7.030  12.032
39671SOL    HW220911   1.182   7.036  11.972
39672SOL     OW20912   1.739   9.203   3.639
39672SOL    HW120913   1.695   9.149   3.573
39672SOL    HW220914   1.672   9.267   3.666
39673SOL     OW20915   4.318   7.886  13.528
39673SOL    HW120916   4.263   7.964  13.520
39673SOL    HW220917   4.400   7.910  13.485
39674SOL     OW20918   0.584   1.107   9.932
39674SOL    HW120919   0.520   1.148   9.990
39674SOL    HW220920   0.668   1.122   9.975
39675SOL     OW20921  11.073   8.432  12.246
39675SOL    HW120922  11.093   8.434  12.152
39675SOL    HW220923  11.016   8.509  12.259
39676SOL     OW20924   2.699   2.285   2.624
39676SOL    HW120925   2.717   2.369   2.665
39676SOL    HW220926   2.606   2.288   2.601
39677SOL     OW20927  13.797   6.042  13.466
39677SOL    HW120928  13.710   6.082  13.471
39677SOL    HW220929  13.804   5.990  13.546
39678SOL     OW20930   6.950   4.588   7.705
39678SOL    HW120931   6.955   4.540   7.622
39678SOL    HW220932   6.951   4.680   7.678
39679SOL     OW20933   4.046   8.288  10.279
39679SOL    HW120934   4.093   8.221  10.329
39679SOL    HW220935   4.065   8.268  10.188
39680SOL     OW20936   9.661   9.517  11.337
39680SOL    HW120937   9.703   9.449  11.391
39680SOL    HW220938   9.571   9.487  11.327
39681SOL     OW20939  10.833  10.384   5.955
39681SOL    HW120940  10.772  10.451   5.924
39681SOL    HW220941  10.899  10.378   5.886
39682SOL     OW20942   0.428  13.190   6.926
39682SOL    HW120943   0.516  13.156   6.943
39682SOL    HW220944   0.396  13.220   7.011
39683SOL     OW20945  10.999   1.390   2.569
39683SOL    HW120946  10.927   1.433   2.524
39683SOL    HW220947  11.078   1.436   2.539
39684SOL     OW20948   9.625   4.316   6.436
39684SOL    HW120949   9.713   4.322   6.472
39684SOL    HW220950   9.617   4.391   6.377
39685SOL     OW20951  12.227  10.163   2.411
39685SOL    HW120952  12.278  10.180   2.332
39685SOL    HW220953  12.159  10.231   2.411
39686SOL     OW20954   6.529  12.920  13.385
39686SOL    HW120955   6.529  12.850  13.451
39686SOL    HW220956   6.601  12.978  13.412
39687SOL     OW20957  13.281   9.026   2.316
39687SOL    HW120958  13.240   8.957   2.368
39687SOL    HW220959  13.248   9.107   2.353
39688SOL     OW20960   2.956   7.920  13.785
39688SOL    HW120961   2.895   7.851  13.759
39688SOL    HW220962   3.020   7.924  13.714
39689SOL     OW20963  14.344   9.883   1.800
39689SOL    HW120964  14.421   9.879   1.743
39689SOL    HW220965  14.373   9.843   1.882
39690SOL     OW20966   1.458   7.012   5.990
39690SOL    HW120967   1.389   7.065   6.031
39690SOL    HW220968   1.416   6.972   5.914
39691SOL     OW20969  10.413   7.783   9.109
39691SOL    HW120970  10.383   7.874   9.107
39691SOL    HW220971  10.460   7.771   9.027
39692SOL     OW20972   9.143   7.412   6.955
39692SOL    HW120973   9.072   7.418   6.891
39692SOL    HW220974   9.108   7.361   7.027
39693SOL     OW20975  13.773   6.882   2.906
39693SOL    HW120976  13.682   6.871   2.877
39693SOL    HW220977  13.791   6.803   2.958
39694SOL     OW20978   5.031  12.178   4.471
39694SOL    HW120979   5.024  12.134   4.556
39694SOL    HW220980   5.087  12.120   4.419
39695SOL     OW20981   7.201   2.757   3.371
39695SOL    HW120982   7.263   2.710   3.315
39695SOL    HW220983   7.182   2.838   3.323
39696SOL     OW20984   2.510   6.575   7.152
39696SOL    HW120985   2.529   6.481   7.162
39696SOL    HW220986   2.435   6.578   7.093
39697SOL     OW20987  13.632   9.596   6.090
39697SOL    HW120988  13.619   9.504   6.066
39697SOL    HW220989  13.560   9.615   6.151
39698SOL     OW20990   1.450   6.208  12.940
39698SOL    HW120991   1.531   6.252  12.967
39698SOL    HW220992   1.476   6.116  12.928
39699SOL     OW20993   6.884   4.026   3.849
39699SOL    HW120994   6.788   4.031   3.853
39699SOL    HW220995   6.903   3.932   3.854
39700SOL     OW20996   0.324  10.257  13.988
39700SOL    HW120997   0.410  10.291  14.013
39700SOL    HW220998   0.338  10.163  13.979
39701SOL     OW20999   1.693  11.039   8.676
39701SOL    HW121000   1.655  11.089   8.603
39701SOL    HW221001   1.617  11.009   8.726
39702SOL     OW21002   8.580   2.925   6.454
39702SOL    HW121003   8.562   3.018   6.442
39702SOL    HW221004   8.500   2.891   6.494
39703SOL     OW21005   0.931   3.924   1.757
39703SOL    HW121006   0.936   4.002   1.811
39703SOL    HW221007   0.844   3.889   1.773
39704SOL     OW21008   0.407  11.910   9.291
39704SOL    HW121009   0.494  11.930   9.257
39704SOL    HW221010   0.411  11.937   9.383
39705SOL     OW21011  10.286   0.199  13.215
39705SOL    HW121012  10.349   0.264  13.244
39705SOL    HW221013  10.211   0.209  13.275
39706SOL     OW21014   2.523  14.104   7.627
39706SOL    HW121015   2.585  14.094   7.699
39706SOL    HW221016   2.464  14.029   7.635
39707SOL     OW21017   9.040  12.849   7.142
39707SOL    HW121018   8.994  12.874   7.222
39707SOL    HW221019   9.016  12.916   7.078
39708SOL     OW21020  11.909   9.681  10.970
39708SOL    HW121021  11.927   9.720  11.056
39708SOL    HW221022  11.987   9.630  10.951
39709SOL     OW21023   4.303   7.959   1.653
39709SOL    HW121024   4.248   8.026   1.613
39709SOL    HW221025   4.327   7.995   1.738
39710SOL     OW21026  10.888   3.587   2.786
39710SOL    HW121027  10.982   3.568   2.794
39710SOL    HW221028  10.867   3.565   2.696
39711SOL     OW21029   0.987  11.196   0.609
39711SOL    HW121030   0.905  11.181   0.656
39711SOL    HW221031   0.963  11.190   0.517
39712SOL     OW21032  11.080  11.549   2.760
39712SOL    HW121033  11.002  11.495   2.770
39712SOL    HW221034  11.150  11.488   2.738
39713SOL     OW21035   9.760   4.102   6.316
39713SOL    HW121036   9.732   4.161   6.386
39713SOL    HW221037   9.692   4.034   6.313
39714SOL     OW21038  14.254  12.362   5.577
39714SOL    HW121039  14.339  12.380   5.538
39714SOL    HW221040  14.192  12.367   5.504
39715SOL     OW21041   9.023   8.323   5.505
39715SOL    HW121042   9.020   8.394   5.441
39715SOL    HW221043   8.931   8.305   5.525
39716SOL     OW21044   8.841   0.021   4.071
39716SOL    HW121045   8.783   0.044   4.144
39716SOL    HW221046   8.805  14.812   4.036
39717SOL     OW21047  12.988  11.463  12.088
39717SOL    HW121048  12.937  11.542  12.072
39717SOL    HW221049  12.923  11.393  12.096
39718SOL     OW21050   0.953   7.256  10.666
39718SOL    HW121051   0.939   7.216  10.752
39718SOL    HW221052   1.045   7.282  10.666
39719SOL     OW21053   2.823   5.651  13.215
39719SOL    HW121054   2.822   5.555  13.213
39719SOL    HW221055   2.888   5.673  13.282
39720SOL     OW21056   6.869   8.540   1.052
39720SOL    HW121057   6.841   8.619   1.098
39720SOL    HW221058   6.804   8.473   1.075
39721SOL     OW21059   8.058  13.640  10.771
39721SOL    HW121060   8.065  13.725  10.815
39721SOL    HW221061   8.139  13.595  10.794
39722SOL     OW21062   8.348   5.888  10.076
39722SOL    HW121063   8.347   5.811  10.133
39722SOL    HW221064   8.274   5.940  10.106
39723SOL     OW21065   4.694   4.519   5.931
39723SOL    HW121066   4.704   4.576   5.855
39723SOL    HW221067   4.731   4.435   5.904
39724SOL     OW21068  11.918  10.082   3.359
39724SOL    HW121069  11.909   9.992   3.327
39724SOL    HW221070  11.981  10.123   3.300
39725SOL     OW21071  12.733  14.472  12.275
39725SOL    HW121072  12.790  14.546  12.297
39725SOL    HW221073  12.645  14.502  12.298
39726SOL     OW21074   4.398   2.526   8.655
39726SOL    HW121075   4.328   2.461   8.652
39726SOL    HW221076   4.428   2.526   8.746
39727SOL     OW21077   3.126   3.390   1.379
39727SOL    HW121078   3.149   3.392   1.286
39727SOL    HW221079   3.164   3.307   1.411
39728SOL     OW21080   7.267   2.367   7.639
39728SOL    HW121081   7.342   2.403   7.687
39728SOL    HW221082   7.255   2.427   7.566
39729SOL     OW21083   1.038  10.935   6.437
39729SOL    HW121084   1.039  10.844   6.467
39729SOL    HW221085   0.981  10.934   6.360
39730SOL     OW21086   9.226   3.987  10.154
39730SOL    HW121087   9.162   3.943  10.098
39730SOL    HW221088   9.311   3.962  10.117
39731SOL     OW21089  10.500  10.898   5.029
39731SOL    HW121090  10.412  10.885   5.064
39731SOL    HW221091  10.556  10.843   5.083
39732SOL     OW21092  12.969   2.049   7.850
39732SOL    HW121093  12.943   1.997   7.774
39732SOL    HW221094  12.939   2.137   7.831
39733SOL     OW21095   8.740  10.511   5.865
39733SOL    HW121096   8.706  10.426   5.837
39733SOL    HW221097   8.759  10.500   5.958
39734SOL     OW21098   7.938   3.217  13.968
39734SOL    HW121099   7.894   3.144  13.923
39734SOL    HW221100   8.005   3.245  13.906
39735SOL     OW21101   8.742   1.465   2.770
39735SOL    HW121102   8.650   1.478   2.794
39735SOL    HW221103   8.790   1.524   2.828
39736SOL     OW21104  12.991   5.718   5.454
39736SOL    HW121105  13.008   5.681   5.541
39736SOL    HW221106  12.953   5.804   5.473
39737SOL     OW21107  14.310   6.588   1.358
39737SOL    HW121108  14.249   6.603   1.430
39737SOL    HW221109  14.289   6.655   1.293
39738SOL     OW21110   7.699   8.995   1.031
39738SOL    HW121111   7.724   8.903   1.029
39738SOL    HW221112   7.782   9.043   1.026
39739SOL     OW21113  13.204   4.728   6.502
39739SOL    HW121114  13.232   4.636   6.495
39739SOL    HW221115  13.183   4.739   6.595
39740SOL     OW21116  14.622   1.217  11.263
39740SOL    HW121117  14.675   1.158  11.317
39740SOL    HW221118  14.671   1.224  11.180
39741SOL     OW21119   0.742  12.067   4.240
39741SOL    HW121120   0.749  12.046   4.147
39741SOL    HW221121   0.825  12.038   4.278
39742SOL     OW21122  10.170   4.701   6.074
39742SOL    HW121123  10.133   4.789   6.073
39742SOL    HW221124  10.095   4.644   6.090
39743SOL     OW21125  12.552  13.190   6.724
39743SOL    HW121126  12.590  13.176   6.811
39743SOL    HW221127  12.501  13.111   6.707
39744SOL     OW21128   3.228   1.748   1.835
39744SOL    HW121129   3.150   1.803   1.832
39744SOL    HW221130   3.298   1.806   1.865
39745SOL     OW21131   1.276   8.100   4.613
39745SOL    HW121132   1.212   8.034   4.587
39745SOL    HW221133   1.296   8.078   4.705
39746SOL     OW21134   9.569   1.386   5.513
39746SOL    HW121135   9.613   1.393   5.598
39746SOL    HW221136   9.502   1.454   5.514
39747SOL     OW21137   8.317  12.257   5.930
39747SOL    HW121138   8.328  12.178   5.983
39747SOL    HW221139   8.397  12.265   5.880
39748SOL     OW21140   7.585   8.710   3.732
39748SOL    HW121141   7.500   8.667   3.738
39748SOL    HW221142   7.630   8.687   3.814
39749SOL     OW21143   1.310   5.384   3.355
39749SOL    HW121144   1.402   5.409   3.365
39749SOL    HW221145   1.310   5.289   3.364
39750SOL     OW21146   9.029  11.117  12.196
39750SOL    HW121147   9.012  11.126  12.290
39750SOL    HW221148   9.123  11.130  12.187
39751SOL     OW21149   6.358  14.032   6.265
39751SOL    HW121150   6.396  14.110   6.306
39751SOL    HW221151   6.301  13.994   6.333
39752SOL     OW21152  13.716   3.459   9.374
39752SOL    HW121153  13.720   3.540   9.424
39752SOL    HW221154  13.633   3.419   9.400
39753SOL     OW21155   8.673  11.355   2.887
39753SOL    HW121156   8.726  11.286   2.928
39753SOL    HW221157   8.687  11.343   2.793
39754SOL     OW21158  10.407  13.765   7.461
39754SOL    HW121159  10.422  13.829   7.392
39754SOL    HW221160  10.493  13.729   7.480
39755SOL     OW21161   1.556   7.117  13.940
39755SOL    HW121162   1.471   7.110  13.985
39755SOL    HW221163   1.615   7.155  14.005
39756SOL     OW21164  12.974   8.419   5.767
39756SOL    HW121165  12.902   8.383   5.716
39756SOL    HW221166  13.000   8.498   5.720
39757SOL     OW21167  14.583  10.514   0.059
39757SOL    HW121168  14.507  10.480   0.014
39757SOL    HW221169  14.568  10.494   0.151
39758SOL     OW21170  14.418   3.347   1.225
39758SOL    HW121171  14.503   3.307   1.245
39758SOL    HW221172  14.422   3.367   1.132
39759SOL     OW21173  10.744  12.903   3.309
39759SOL    HW121174  10.758  12.933   3.399
39759SOL    HW221175  10.822  12.851   3.289
39760SOL     OW21176   0.238   8.991   7.763
39760SOL    HW121177   0.301   8.924   7.739
39760SOL    HW221178   0.291   9.062   7.800
39761SOL     OW21179  13.581  13.394  10.838
39761SOL    HW121180  13.493  13.399  10.875
39761SOL    HW221181  13.568  13.360  10.750
39762SOL     OW21182  12.007   6.945   1.806
39762SOL    HW121183  12.007   6.908   1.895
39762SOL    HW221184  11.928   6.998   1.803
39763SOL     OW21185   9.923  11.287  12.778
39763SOL    HW121186   9.980  11.335  12.719
39763SOL    HW221187   9.922  11.338  12.858
39764SOL     OW21188   8.032  10.100  12.838
39764SOL    HW121189   8.008  10.037  12.906
39764SOL    HW221190   7.957  10.103  12.780
39765SOL     OW21191   4.235   8.719   8.387
39765SOL    HW121192   4.153   8.671   8.403
39765SOL    HW221193   4.228   8.749   8.296
39766SOL     OW21194  12.721   5.349   6.903
39766SOL    HW121195  12.644   5.294   6.916
39766SOL    HW221196  12.739   5.344   6.809
39767SOL     OW21197   7.187  13.721  13.616
39767SOL    HW121198   7.281  13.735  13.604
39767SOL    HW221199   7.181  13.632  13.651
39768SOL     OW21200  12.244   8.246   4.883
39768SOL    HW121201  12.250   8.177   4.817
39768SOL    HW221202  12.267   8.326   4.835
39769SOL     OW21203  13.045   1.782   8.999
39769SOL    HW121204  13.136   1.809   8.988
39769SOL    HW221205  12.996   1.863   9.013
39770SOL     OW21206   4.685  11.776  10.237
39770SOL    HW121207   4.707  11.828  10.160
39770SOL    HW221208   4.717  11.688  10.217
39771SOL     OW21209   3.638   2.018  13.952
39771SOL    HW121210   3.645   1.929  13.988
39771SOL    HW221211   3.692   2.071  14.010
39772SOL     OW21212   3.871  11.229  12.140
39772SOL    HW121213   3.800  11.165  12.152
39772SOL    HW221214   3.829  11.303  12.096
39773SOL     OW21215   7.706  11.246  11.769
39773SOL    HW121216   7.795  11.279  11.755
39773SOL    HW221217   7.695  11.178  11.702
39774SOL     OW21218   1.834   6.731   6.677
39774SOL    HW121219   1.835   6.732   6.581
39774SOL    HW221220   1.848   6.639   6.700
39775SOL     OW21221  10.044   4.437   4.732
39775SOL    HW121222   9.976   4.494   4.696
39775SOL    HW221223   9.995   4.363   4.770
39776SOL     OW21224   3.578   0.143   5.485
39776SOL    HW121225   3.575   0.073   5.549
39776SOL    HW221226   3.525   0.213   5.523
39777SOL     OW21227   2.038   4.251   0.959
39777SOL    HW121228   2.036   4.199   1.039
39777SOL    HW221229   2.125   4.291   0.958
39778SOL     OW21230  13.572   3.971   5.761
39778SOL    HW121231  13.520   4.051   5.755
39778SOL    HW221232  13.514   3.909   5.805
39779SOL     OW21233   7.767   7.859  12.119
39779SOL    HW121234   7.792   7.887  12.031
39779SOL    HW221235   7.800   7.928  12.177
39780SOL     OW21236   1.353   3.350   5.758
39780SOL    HW121237   1.390   3.315   5.839
39780SOL    HW221238   1.316   3.273   5.714
39781SOL     OW21239   8.508   9.503   4.682
39781SOL    HW121240   8.416   9.482   4.693
39781SOL    HW221241   8.548   9.481   4.766
39782SOL     OW21242   6.890  13.155   6.646
39782SOL    HW121243   6.848  13.142   6.732
39782SOL    HW221244   6.888  13.249   6.632
39783SOL     OW21245   9.890   4.024   9.546
39783SOL    HW121246   9.978   3.997   9.520
39783SOL    HW221247   9.892   4.119   9.543
39784SOL     OW21248  13.737   9.056   5.096
39784SOL    HW121249  13.664   9.047   5.158
39784SOL    HW221250  13.699   9.034   5.011
39785SOL     OW21251   4.318   3.288   1.131
39785SOL    HW121252   4.365   3.224   1.077
39785SOL    HW221253   4.270   3.235   1.194
39786SOL     OW21254  14.401   9.174  14.796
39786SOL    HW121255  14.364   9.143  14.714
39786SOL    HW221256  14.340   9.143  14.863
39787SOL     OW21257   6.373  14.017  14.620
39787SOL    HW121258   6.295  14.057  14.658
39787SOL    HW221259   6.446  14.065  14.659
39788SOL     OW21260  14.679   1.416   0.371
39788SOL    HW121261  14.606   1.386   0.426
39788SOL    HW221262  14.756   1.376   0.411
39789SOL     OW21263   8.151   5.948  14.777
39789SOL    HW121264   8.213   5.878  14.759
39789SOL    HW221265   8.204   6.017  14.817
39790SOL     OW21266   0.213   9.010  12.890
39790SOL    HW121267   0.238   8.927  12.931
39790SOL    HW221268   0.120   9.020  12.912
39791SOL     OW21269  12.687   1.469   5.348
39791SOL    HW121270  12.707   1.416   5.425
39791SOL    HW221271  12.653   1.551   5.384
39792SOL     OW21272   1.366   7.739   5.406
39792SOL    HW121273   1.309   7.670   5.373
39792SOL    HW221274   1.320   7.820   5.384
39793SOL     OW21275   3.821   7.318   3.296
39793SOL    HW121276   3.740   7.292   3.252
39793SOL    HW221277   3.796   7.393   3.350
39794SOL     OW21278   4.165  11.050   6.709
39794SOL    HW121279   4.233  11.089   6.654
39794SOL    HW221280   4.148  11.115   6.777
39795SOL     OW21281   3.177   9.523   3.697
39795SOL    HW121282   3.088   9.531   3.731
39795SOL    HW221283   3.174   9.568   3.612
39796SOL     OW21284   9.998  11.674  14.708
39796SOL    HW121285   9.925  11.706  14.761
39796SOL    HW221286   9.975  11.584  14.687
39797SOL     OW21287  12.459  12.342  13.352
39797SOL    HW121288  12.384  12.402  13.353
39797SOL    HW221289  12.440  12.279  13.422
39798SOL     OW21290  10.066   0.037  10.083
39798SOL    HW121291   9.979   0.067  10.111
39798SOL    HW221292  10.123   0.111  10.099
39799SOL     OW21293   0.791  13.821   1.611
39799SOL    HW121294   0.726  13.847   1.676
39799SOL    HW221295   0.793  13.725   1.615
39800SOL     OW21296  13.546  13.096  10.495
39800SOL    HW121297  13.621  13.038  10.511
39800SOL    HW221298  13.515  13.072  10.408
39801SOL     OW21299   4.479   5.351   5.620
39801SOL    HW121300   4.480   5.378   5.712
39801SOL    HW221301   4.387   5.357   5.595
39802SOL     OW21302   7.160  11.379  12.792
39802SOL    HW121303   7.242  11.427  12.804
39802SOL    HW221304   7.186  11.298  12.747
39803SOL     OW21305   1.375   1.605   4.711
39803SOL    HW121306   1.449   1.651   4.751
39803SOL    HW221307   1.313   1.674   4.690
39804SOL     OW21308   6.492  10.369   1.901
39804SOL    HW121309   6.460  10.376   1.811
39804SOL    HW221310   6.554  10.441   1.910
39805SOL     OW21311   4.755   7.054   4.146
39805SOL    HW121312   4.713   6.992   4.206
39805SOL    HW221313   4.711   7.137   4.163
39806SOL     OW21314  10.203   1.853   7.722
39806SOL    HW121315  10.270   1.919   7.740
39806SOL    HW221316  10.178   1.821   7.809
39807SOL     OW21317   7.579  12.066   6.545
39807SOL    HW121318   7.504  12.077   6.604
39807SOL    HW221319   7.646  12.124   6.580
39808SOL     OW21320  12.678  14.179   0.107
39808SOL    HW121321  12.729  14.106   0.071
39808SOL    HW221322  12.607  14.137   0.156
39809SOL     OW21323   5.873  10.580   4.181
39809SOL    HW121324   5.918  10.604   4.262
39809SOL    HW221325   5.840  10.662   4.146
39810SOL     OW21326  10.155   6.649   0.937
39810SOL    HW121327  10.125   6.696   1.014
39810SOL    HW221328  10.250   6.662   0.936
39811SOL     OW21329  10.275   8.527   4.605
39811SOL    HW121330  10.328   8.605   4.589
39811SOL    HW221331  10.238   8.506   4.519
39812SOL     OW21332   6.157  13.374   9.331
39812SOL    HW121333   6.226  13.333   9.280
39812SOL    HW221334   6.115  13.302   9.379
39813SOL     OW21335   1.245   7.775  14.288
39813SOL    HW121336   1.302   7.702  14.262
39813SOL    HW221337   1.226   7.760  14.380
39814SOL     OW21338   6.115   8.273   1.018
39814SOL    HW121339   6.208   8.249   1.009
39814SOL    HW221340   6.075   8.197   1.060
39815SOL     OW21341   7.131   6.309  10.667
39815SOL    HW121342   7.154   6.375  10.732
39815SOL    HW221343   7.190   6.236  10.685
39816SOL     OW21344   9.764   8.398  11.058
39816SOL    HW121345   9.735   8.337  11.126
39816SOL    HW221346   9.710   8.377  10.982
39817SOL     OW21347   7.821   7.508   9.544
39817SOL    HW121348   7.829   7.486   9.637
39817SOL    HW221349   7.736   7.549   9.536
39818SOL     OW21350   8.329   9.429   2.074
39818SOL    HW121351   8.237   9.447   2.055
39818SOL    HW221352   8.337   9.445   2.168
39819SOL     OW21353   8.876   5.277  11.752
39819SOL    HW121354   8.798   5.319  11.790
39819SOL    HW221355   8.843   5.234  11.673
39820SOL     OW21356   5.012  13.197  10.122
39820SOL    HW121357   5.051  13.278  10.090
39820SOL    HW221358   5.044  13.129  10.062
39821SOL     OW21359   9.824   8.100  13.591
39821SOL    HW121360   9.892   8.143  13.642
39821SOL    HW221361   9.839   8.007  13.605
39822SOL     OW21362   8.627  14.494  12.587
39822SOL    HW121363   8.681  14.559  12.543
39822SOL    HW221364   8.615  14.425  12.522
39823SOL     OW21365   9.019   9.649   2.600
39823SOL    HW121366   9.054   9.653   2.511
39823SOL    HW221367   9.086   9.604   2.650
39824SOL     OW21368   1.335   5.852  12.623
39824SOL    HW121369   1.427   5.865  12.600
39824SOL    HW221370   1.308   5.776  12.571
39825SOL     OW21371  12.964   9.287  14.654
39825SOL    HW121372  12.911   9.343  14.711
39825SOL    HW221373  12.903   9.255  14.588
39826SOL     OW21374   1.729   0.939  12.745
39826SOL    HW121375   1.658   0.965  12.686
39826SOL    HW221376   1.685   0.923  12.829
39827SOL     OW21377   5.406   5.400   8.898
39827SOL    HW121378   5.435   5.491   8.905
39827SOL    HW221379   5.342   5.390   8.968
39828SOL     OW21380   2.941   9.197   3.185
39828SOL    HW121381   2.848   9.217   3.177
39828SOL    HW221382   2.986   9.276   3.156
39829SOL     OW21383   7.178   1.458  13.160
39829SOL    HW121384   7.244   1.476  13.227
39829SOL    HW221385   7.131   1.541  13.150
39830SOL     OW21386   3.525  13.989  10.990
39830SOL    HW121387   3.469  13.939  10.931
39830SOL    HW221388   3.527  14.077  10.953
39831SOL     OW21389   3.025   6.865   0.109
39831SOL    HW121390   3.053   6.886   0.019
39831SOL    HW221391   3.086   6.914   0.164
39832SOL     OW21392  10.440   7.010   4.304
39832SOL    HW121393  10.523   6.986   4.264
39832SOL    HW221394  10.462   7.077   4.368
39833SOL     OW21395   9.317  14.531   0.228
39833SOL    HW121396   9.379  14.563   0.294
39833SOL    HW221397   9.365  14.538   0.146
39834SOL     OW21398   0.180   3.469   2.591
39834SOL    HW121399   0.262   3.421   2.595
39834SOL    HW221400   0.112   3.403   2.610
39835SOL     OW21401   4.337   2.093  12.322
39835SOL    HW121402   4.265   2.030  12.328
39835SOL    HW221403   4.348   2.108  12.228
39836SOL     OW21404  11.577   8.896   5.933
39836SOL    HW121405  11.586   8.990   5.915
39836SOL    HW221406  11.573   8.890   6.028
39837SOL     OW21407  11.192   4.965  10.824
39837SOL    HW121408  11.260   4.996  10.883
39837SOL    HW221409  11.176   4.875  10.850
39838SOL     OW21410  12.524   0.821   1.052
39838SOL    HW121411  12.608   0.815   1.007
39838SOL    HW221412  12.547   0.849   1.141
39839SOL     OW21413   7.681   3.965   9.517
39839SOL    HW121414   7.619   4.024   9.473
39839SOL    HW221415   7.726   3.920   9.446
39840SOL     OW21416   8.605   4.087   7.917
39840SOL    HW121417   8.661   4.137   7.858
39840SOL    HW221418   8.617   3.996   7.890
39841SOL     OW21419  10.250  10.322  13.416
39841SOL    HW121420  10.189  10.366  13.475
39841SOL    HW221421  10.263  10.235  13.454
39842SOL     OW21422   5.634  10.065   2.361
39842SOL    HW121423   5.573  10.055   2.434
39842SOL    HW221424   5.587  10.032   2.285
39843SOL     OW21425  13.113   9.347   0.053
39843SOL    HW121426  13.091   9.264   0.095
39843SOL    HW221427  13.034   9.401   0.064
39844SOL     OW21428  13.615   3.037  12.786
39844SOL    HW121429  13.567   3.089  12.721
39844SOL    HW221430  13.583   3.068  12.870
39845SOL     OW21431   3.182   4.417   6.586
39845SOL    HW121432   3.187   4.366   6.506
39845SOL    HW221433   3.094   4.400   6.621
39846SOL     OW21434   0.574   3.549   0.027
39846SOL    HW121435   0.496   3.493   0.030
39846SOL    HW221436   0.607   3.549   0.117
39847SOL     OW21437   0.030   1.542   9.113
39847SOL    HW121438  14.863   1.597   9.045
39847SOL    HW221439  14.843   1.468   9.122
39848SOL     OW21440  14.744  13.959   1.718
39848SOL    HW121441  14.760  13.875   1.676
39848SOL    HW221442  14.768  14.024   1.652
39849SOL     OW21443  10.627   7.877  12.360
39849SOL    HW121444  10.671   7.960  12.380
39849SOL    HW221445  10.607   7.839  12.445
39850SOL     OW21446   0.600   9.199   0.864
39850SOL    HW121447   0.630   9.171   0.951
39850SOL    HW221448   0.578   9.117   0.820
39851SOL     OW21449   6.308  12.847   4.532
39851SOL    HW121450   6.360  12.780   4.577
39851SOL    HW221451   6.278  12.804   4.452
39852SOL     OW21452   3.432   4.174   5.568
39852SOL    HW121453   3.376   4.251   5.570
39852SOL    HW221454   3.453   4.161   5.475
39853SOL     OW21455   9.525   3.101   0.870
39853SOL    HW121456   9.595   3.129   0.930
39853SOL    HW221457   9.469   3.178   0.861
39854SOL     OW21458  13.293   2.705   8.535
39854SOL    HW121459  13.336   2.640   8.591
39854SOL    HW221460  13.364   2.736   8.478
39855SOL     OW21461   9.590   3.467   6.741
39855SOL    HW121462   9.587   3.385   6.789
39855SOL    HW221463   9.684   3.486   6.733
39856SOL     OW21464  11.281   1.077   1.907
39856SOL    HW121465  11.187   1.090   1.904
39856SOL    HW221466  11.295   0.990   1.868
39857SOL     OW21467  12.371   7.244  10.846
39857SOL    HW121468  12.278   7.265  10.854
39857SOL    HW221469  12.377   7.192  10.766
39858SOL     OW21470   1.165   6.479   2.771
39858SOL    HW121471   1.095   6.466   2.836
39858SOL    HW221472   1.191   6.570   2.782
39859SOL     OW21473   0.765   0.890   1.715
39859SOL    HW121474   0.847   0.862   1.673
39859SOL    HW221475   0.702   0.894   1.644
39860SOL     OW21476   0.151   1.970   9.177
39860SOL    HW121477   0.185   1.971   9.088
39860SOL    HW221478   0.075   2.028   9.175
39861SOL     OW21479  13.398   2.206   3.547
39861SOL    HW121480  13.402   2.221   3.641
39861SOL    HW221481  13.360   2.119   3.538
39862SOL     OW21482  13.684   0.786   4.501
39862SOL    HW121483  13.621   0.715   4.513
39862SOL    HW221484  13.728   0.766   4.418
39863SOL     OW21485   4.832   8.161  11.300
39863SOL    HW121486   4.795   8.091  11.356
39863SOL    HW221487   4.926   8.143  11.299
39864SOL     OW21488  13.456   3.725  13.209
39864SOL    HW121489  13.468   3.714  13.303
39864SOL    HW221490  13.544   3.714  13.172
39865SOL     OW21491   7.125  12.339   8.063
39865SOL    HW121492   7.061  12.269   8.051
39865SOL    HW221493   7.207  12.294   8.085
39866SOL     OW21494  10.712   7.888  13.032
39866SOL    HW121495  10.664   7.965  13.062
39866SOL    HW221496  10.788   7.923  12.985
39867SOL     OW21497  13.623   2.312  11.349
39867SOL    HW121498  13.635   2.357  11.433
39867SOL    HW221499  13.530   2.322  11.329
39868SOL     OW21500  12.608  13.093  12.482
39868SOL    HW121501  12.550  13.157  12.441
39868SOL    HW221502  12.693  13.138  12.488
39869SOL     OW21503  14.245  10.612  12.935
39869SOL    HW121504  14.201  10.688  12.973
39869SOL    HW221505  14.241  10.545  13.003
39870SOL     OW21506   7.009  12.067   4.762
39870SOL    HW121507   7.029  12.146   4.711
39870SOL    HW221508   6.972  12.006   4.698
39871SOL     OW21509   9.664  11.174  10.479
39871SOL    HW121510   9.671  11.243  10.412
39871SOL    HW221511   9.578  11.188  10.518
39872SOL     OW21512   6.026   8.242   9.254
39872SOL    HW121513   6.066   8.281   9.176
39872SOL    HW221514   5.936   8.272   9.253
39873SOL     OW21515  12.867   9.500   4.164
39873SOL    HW121516  12.841   9.452   4.086
39873SOL    HW221517  12.812   9.578   4.165
39874SOL     OW21518   3.592  14.358  13.922
39874SOL    HW121519   3.575  14.264  13.918
39874SOL    HW221520   3.687  14.365  13.919
39875SOL     OW21521  11.134   6.289   2.455
39875SOL    HW121522  11.225   6.271   2.432
39875SOL    HW221523  11.088   6.208   2.432
39876SOL     OW21524   5.390   6.911   9.519
39876SOL    HW121525   5.434   6.856   9.583
39876SOL    HW221526   5.423   6.999   9.537
39877SOL     OW21527  14.720   8.665   8.489
39877SOL    HW121528  14.658   8.728   8.524
39877SOL    HW221529  14.744   8.700   8.403
39878SOL     OW21530   5.860   9.760  11.639
39878SOL    HW121531   5.937   9.800  11.598
39878SOL    HW221532   5.895   9.707  11.710
39879SOL     OW21533  12.657  12.280  13.905
39879SOL    HW121534  12.705  12.235  13.835
39879SOL    HW221535  12.615  12.354  13.861
39880SOL     OW21536   7.213  11.754   0.005
39880SOL    HW121537   7.249  11.708  14.802
39880SOL    HW221538   7.276  11.824   0.023
39881SOL     OW21539   2.575   1.975   2.778
39881SOL    HW121540   2.554   1.994   2.870
39881SOL    HW221541   2.667   2.002   2.769
39882SOL     OW21542  11.487   7.064   8.743
39882SOL    HW121543  11.485   7.127   8.671
39882SOL    HW221544  11.526   7.113   8.816
39883SOL     OW21545   3.052   7.421  11.632
39883SOL    HW121546   3.097   7.441  11.715
39883SOL    HW221547   2.964   7.455  11.644
39884SOL     OW21548   5.110   0.817  12.549
39884SOL    HW121549   5.099   0.875  12.474
39884SOL    HW221550   5.156   0.870  12.614
39885SOL     OW21551   9.326   1.398   3.840
39885SOL    HW121552   9.345   1.460   3.910
39885SOL    HW221553   9.231   1.387   3.843
39886SOL     OW21554   8.090  13.014   0.744
39886SOL    HW121555   8.055  13.049   0.826
39886SOL    HW221556   8.110  12.922   0.764
39887SOL     OW21557   0.313   0.853   1.699
39887SOL    HW121558   0.283   0.904   1.774
39887SOL    HW221559   0.249   0.871   1.630
39888SOL     OW21560   5.478   9.488   0.609
39888SOL    HW121561   5.481   9.556   0.677
39888SOL    HW221562   5.397   9.505   0.561
39889SOL     OW21563   4.440  12.734  13.550
39889SOL    HW121564   4.505  12.804  13.552
39889SOL    HW221565   4.383  12.753  13.625
39890SOL     OW21566   4.535   6.707  10.445
39890SOL    HW121567   4.593   6.697  10.370
39890SOL    HW221568   4.472   6.636  10.437
39891SOL     OW21569  11.489   0.236   7.159
39891SOL    HW121570  11.426   0.246   7.231
39891SOL    HW221571  11.516   0.145   7.164
39892SOL     OW21572  11.678   7.061   6.084
39892SOL    HW121573  11.606   7.118   6.059
39892SOL    HW221574  11.637   6.990   6.134
39893SOL     OW21575   1.804   5.161   1.110
39893SOL    HW121576   1.844   5.213   1.179
39893SOL    HW221577   1.743   5.221   1.067
39894SOL     OW21578  10.957  12.372   6.422
39894SOL    HW121579  10.892  12.435   6.390
39894SOL    HW221580  10.955  12.301   6.357
39895SOL     OW21581  12.899   5.283  10.492
39895SOL    HW121582  12.982   5.267  10.537
39895SOL    HW221583  12.832   5.255  10.554
39896SOL     OW21584   5.951  13.217  10.453
39896SOL    HW121585   5.857  13.238  10.453
39896SOL    HW221586   5.954  13.126  10.485
39897SOL     OW21587   7.994   9.449   6.642
39897SOL    HW121588   7.974   9.358   6.623
39897SOL    HW221589   7.986   9.455   6.738
39898SOL     OW21590   4.624   4.076   7.807
39898SOL    HW121591   4.638   3.985   7.831
39898SOL    HW221592   4.549   4.075   7.747
39899SOL     OW21593   5.216   2.551   9.960
39899SOL    HW121594   5.256   2.464   9.953
39899SOL    HW221595   5.228   2.590   9.874
39900SOL     OW21596  13.515   3.632  13.888
39900SOL    HW121597  13.549   3.556  13.839
39900SOL    HW221598  13.594   3.676  13.920
39901SOL     OW21599  14.609   4.973  13.110
39901SOL    HW121600  14.660   5.010  13.038
39901SOL    HW221601  14.518   4.990  13.086
39902SOL     OW21602   6.665   5.626   7.374
39902SOL    HW121603   6.732   5.579   7.424
39902SOL    HW221604   6.656   5.709   7.421
39903SOL     OW21605   1.066   8.459   8.515
39903SOL    HW121606   0.992   8.450   8.575
39903SOL    HW221607   1.140   8.421   8.562
39904SOL     OW21608  12.872   1.450   5.023
39904SOL    HW121609  12.949   1.397   5.007
39904SOL    HW221610  12.893   1.498   5.104
39905SOL     OW21611  11.924  10.946  12.563
39905SOL    HW121612  11.948  10.858  12.537
39905SOL    HW221613  11.954  10.954  12.653
39906SOL     OW21614   0.712   8.415   2.821
39906SOL    HW121615   0.806   8.433   2.827
39906SOL    HW221616   0.670   8.490   2.865
39907SOL     OW21617   0.309   0.536   5.506
39907SOL    HW121618   0.248   0.465   5.523
39907SOL    HW221619   0.282   0.606   5.564
39908SOL     OW21620   2.288   9.791   0.037
39908SOL    HW121621   2.221   9.724   0.052
39908SOL    HW221622   2.273   9.820  14.819
39909SOL     OW21623   2.493   0.734   6.177
39909SOL    HW121624   2.440   0.792   6.123
39909SOL    HW221625   2.576   0.726   6.129
39910SOL     OW21626  10.155  10.975   0.581
39910SOL    HW121627  10.094  11.030   0.532
39910SOL    HW221628  10.219  10.945   0.517
39911SOL     OW21629   1.914   2.362  10.101
39911SOL    HW121630   1.947   2.377  10.012
39911SOL    HW221631   1.852   2.291  10.092
39912SOL     OW21632   5.456  10.464  11.383
39912SOL    HW121633   5.414  10.519  11.316
39912SOL    HW221634   5.477  10.525  11.454
39913SOL     OW21635   7.612   7.157   1.033
39913SOL    HW121636   7.661   7.141   1.114
39913SOL    HW221637   7.679   7.166   0.966
39914SOL     OW21638  10.318  11.831   9.025
39914SOL    HW121639  10.246  11.889   9.001
39914SOL    HW221640  10.288  11.744   8.997
39915SOL     OW21641  10.257  13.579   9.171
39915SOL    HW121642  10.193  13.514   9.141
39915SOL    HW221643  10.220  13.614   9.252
39916SOL     OW21644   5.274   7.778   0.024
39916SOL    HW121645   5.259   7.835   0.099
39916SOL    HW221646   5.189   7.774  14.852
39917SOL     OW21647  10.366   1.588  14.414
39917SOL    HW121648  10.411   1.600  14.497
39917SOL    HW221649  10.315   1.668  14.403
39918SOL     OW21650   0.338  10.879   4.796
39918SOL    HW121651   0.381  10.957   4.762
39918SOL    HW221652   0.259  10.912   4.839
39919SOL     OW21653   6.659  14.189  12.333
39919SOL    HW121654   6.677  14.278  12.364
39919SOL    HW221655   6.660  14.136  12.413
39920SOL     OW21656   2.634  10.830   8.951
39920SOL    HW121657   2.558  10.871   8.911
39920SOL    HW221658   2.655  10.886   9.027
39921SOL     OW21659   9.691   3.660   5.185
39921SOL    HW121660   9.759   3.620   5.130
39921SOL    HW221661   9.738   3.687   5.264
39922SOL     OW21662   9.994  12.406   5.489
39922SOL    HW121663  10.038  12.426   5.571
39922SOL    HW221664   9.905  12.437   5.501
39923SOL     OW21665   8.471   7.726  12.364
39923SOL    HW121666   8.418   7.661  12.410
39923SOL    HW221667   8.493   7.684  12.281
39924SOL     OW21668  10.994   5.999   0.343
39924SOL    HW121669  10.977   5.931   0.277
39924SOL    HW221670  10.928   5.983   0.410
39925SOL     OW21671   8.253  10.406   0.590
39925SOL    HW121672   8.251  10.310   0.583
39925SOL    HW221673   8.328  10.433   0.537
39926SOL     OW21674   6.732   5.461  13.653
39926SOL    HW121675   6.815   5.417  13.670
39926SOL    HW221676   6.742   5.548  13.693
39927SOL     OW21677  11.621   8.890   8.166
39927SOL    HW121678  11.635   8.933   8.250
39927SOL    HW221679  11.637   8.958   8.101
39928SOL     OW21680   9.962  13.367   2.269
39928SOL    HW121681   9.907  13.409   2.335
39928SOL    HW221682   9.919  13.385   2.186
39929SOL     OW21683  12.343   0.629  11.207
39929SOL    HW121684  12.273   0.662  11.150
39929SOL    HW221685  12.320   0.663  11.294
39930SOL     OW21686   3.854   3.918  12.085
39930SOL    HW121687   3.761   3.937  12.070
39930SOL    HW221688   3.890   3.908  11.997
39931SOL     OW21689  14.463  11.117   9.702
39931SOL    HW121690  14.526  11.046   9.714
39931SOL    HW221691  14.516  11.193   9.679
39932SOL     OW21692   6.956   6.033   7.156
39932SOL    HW121693   6.943   5.945   7.192
39932SOL    HW221694   6.950   6.021   7.061
39933SOL     OW21695  13.868  12.993   9.253
39933SOL    HW121696  13.807  13.054   9.293
39933SOL    HW221697  13.951  13.009   9.299
39934SOL     OW21698   2.370   0.746  10.024
39934SOL    HW121699   2.458   0.713  10.005
39934SOL    HW221700   2.372   0.836   9.990
39935SOL     OW21701   9.844   8.021   7.419
39935SOL    HW121702   9.900   8.095   7.396
39935SOL    HW221703   9.827   8.032   7.513
39936SOL     OW21704   9.676  10.059   1.604
39936SOL    HW121705   9.657   9.967   1.626
39936SOL    HW221706   9.595  10.091   1.564
39937SOL     OW21707   8.192   5.080   6.558
39937SOL    HW121708   8.232   5.136   6.491
39937SOL    HW221709   8.241   5.100   6.638
39938SOL     OW21710   7.020  11.053   2.229
39938SOL    HW121711   6.989  11.081   2.143
39938SOL    HW221712   6.954  10.991   2.260
39939SOL     OW21713   7.320  11.436   1.658
39939SOL    HW121714   7.241  11.432   1.711
39939SOL    HW221715   7.388  11.464   1.719
39940SOL     OW21716   6.675   3.349   0.895
39940SOL    HW121717   6.623   3.428   0.912
39940SOL    HW221718   6.687   3.349   0.800
39941SOL     OW21719   7.781  10.632   7.250
39941SOL    HW121720   7.740  10.687   7.183
39941SOL    HW221721   7.831  10.693   7.304
39942SOL     OW21722   8.815   7.793   0.779
39942SOL    HW121723   8.763   7.744   0.843
39942SOL    HW221724   8.897   7.812   0.824
39943SOL     OW21725  13.510   3.132  13.055
39943SOL    HW121726  13.539   3.221  13.074
39943SOL    HW221727  13.442   3.142  12.988
39944SOL     OW21728   8.560  13.773   0.607
39944SOL    HW121729   8.655  13.784   0.613
39944SOL    HW221730   8.523  13.850   0.651
39945SOL     OW21731  10.574   0.583   7.903
39945SOL    HW121732  10.527   0.648   7.851
39945SOL    HW221733  10.586   0.509   7.843
39946SOL     OW21734  10.345   7.296   5.377
39946SOL    HW121735  10.351   7.297   5.473
39946SOL    HW221736  10.259   7.257   5.359
39947SOL     OW21737   9.839   8.983   2.733
39947SOL    HW121738   9.853   8.889   2.748
39947SOL    HW221739   9.810   8.989   2.643
39948SOL     OW21740   3.727  10.400   0.939
39948SOL    HW121741   3.668  10.468   0.906
39948SOL    HW221742   3.669  10.328   0.963
39949SOL     OW21743   9.868   1.822   3.064
39949SOL    HW121744   9.787   1.845   3.110
39949SOL    HW221745   9.841   1.756   2.999
39950SOL     OW21746   4.269   9.701   1.794
39950SOL    HW121747   4.350   9.684   1.746
39950SOL    HW221748   4.200   9.667   1.738
39951SOL     OW21749   6.572   2.777   7.980
39951SOL    HW121750   6.658   2.747   8.012
39951SOL    HW221751   6.526   2.804   8.059
39952SOL     OW21752   6.375   5.560   0.180
39952SOL    HW121753   6.419   5.571   0.265
39952SOL    HW221754   6.286   5.590   0.195
39953SOL     OW21755   0.689   8.628  13.369
39953SOL    HW121756   0.753   8.585  13.313
39953SOL    HW221757   0.626   8.559  13.391
39954SOL     OW21758   5.465   4.873   8.966
39954SOL    HW121759   5.403   4.916   9.025
39954SOL    HW221760   5.455   4.919   8.883
39955SOL     OW21761   8.455   3.901  12.492
39955SOL    HW121762   8.415   3.892  12.405
39955SOL    HW221763   8.510   3.824  12.502
39956SOL     OW21764   0.636  11.712   0.812
39956SOL    HW121765   0.617  11.678   0.900
39956SOL    HW221766   0.680  11.639   0.767
39957SOL     OW21767   7.097   0.404  12.437
39957SOL    HW121768   7.026   0.366  12.385
39957SOL    HW221769   7.151   0.330  12.463
39958SOL     OW21770   5.247   9.688   3.817
39958SOL    HW121771   5.274   9.617   3.759
39958SOL    HW221772   5.161   9.661   3.849
39959SOL     OW21773   8.535   4.807   0.612
39959SOL    HW121774   8.539   4.812   0.707
39959SOL    HW221775   8.615   4.850   0.582
39960SOL     OW21776   7.232  11.816   6.433
39960SOL    HW121777   7.284  11.800   6.512
39960SOL    HW221778   7.263  11.900   6.400
39961SOL     OW21779   9.946   5.418  12.929
39961SOL    HW121780   9.921   5.335  12.968
39961SOL    HW221781   9.875   5.478  12.952
39962SOL     OW21782  14.348   2.197  11.612
39962SOL    HW121783  14.431   2.243  11.622
39962SOL    HW221784  14.324   2.208  11.520
39963SOL     OW21785   1.411   8.990   9.146
39963SOL    HW121786   1.449   9.046   9.079
39963SOL    HW221787   1.455   8.906   9.135
39964SOL     OW21788   7.220  12.530   1.697
39964SOL    HW121789   7.172  12.567   1.623
39964SOL    HW221790   7.231  12.603   1.758
39965SOL     OW21791   5.745  14.250   4.385
39965SOL    HW121792   5.731  14.268   4.478
39965SOL    HW221793   5.800  14.172   4.384
39966SOL     OW21794  12.879   7.042  11.380
39966SOL    HW121795  12.901   7.103  11.310
39966SOL    HW221796  12.961   6.996  11.398
39967SOL     OW21797   7.371   2.081   4.868
39967SOL    HW121798   7.448   2.099   4.921
39967SOL    HW221799   7.297   2.097   4.927
39968SOL     OW21800   0.707   5.039   2.356
39968SOL    HW121801   0.680   5.120   2.313
39968SOL    HW221802   0.789   5.061   2.401
39969SOL     OW21803   6.124  10.045   2.329
39969SOL    HW121804   6.174  10.011   2.255
39969SOL    HW221805   6.073  10.117   2.292
39970SOL     OW21806   0.440  10.851  13.118
39970SOL    HW121807   0.521  10.847  13.067
39970SOL    HW221808   0.416  10.759  13.132
39971SOL     OW21809   5.316   6.215   5.256
39971SOL    HW121810   5.400   6.224   5.211
39971SOL    HW221811   5.312   6.293   5.312
39972SOL     OW21812   2.126   8.328  10.614
39972SOL    HW121813   2.079   8.349  10.694
39972SOL    HW221814   2.115   8.405  10.558
39973SOL     OW21815   0.170   1.847   1.477
39973SOL    HW121816   0.137   1.782   1.415
39973SOL    HW221817   0.175   1.801   1.561
39974SOL     OW21818  11.460   0.871   3.653
39974SOL    HW121819  11.538   0.818   3.671
39974SOL    HW221820  11.455   0.874   3.557
39975SOL     OW21821   0.966  12.560  14.719
39975SOL    HW121822   1.034  12.552  14.653
39975SOL    HW221823   0.887  12.527  14.676
39976SOL     OW21824   3.407   7.755   9.465
39976SOL    HW121825   3.377   7.727   9.379
39976SOL    HW221826   3.442   7.676   9.506
39977SOL     OW21827  14.499   9.844  13.266
39977SOL    HW121828  14.453   9.822  13.185
39977SOL    HW221829  14.591   9.847  13.241
39978SOL     OW21830   5.494  10.852  10.767
39978SOL    HW121831   5.430  10.817  10.706
39978SOL    HW221832   5.498  10.946  10.747
39979SOL     OW21833   8.584   2.599   0.477
39979SOL    HW121834   8.665   2.578   0.430
39979SOL    HW221835   8.545   2.670   0.425
39980SOL     OW21836  13.869  10.558   8.185
39980SOL    HW121837  13.903  10.471   8.206
39980SOL    HW221838  13.834  10.591   8.268
39981SOL     OW21839   1.995   7.838   6.623
39981SOL    HW121840   1.997   7.888   6.704
39981SOL    HW221841   1.917   7.869   6.577
39982SOL     OW21842   6.976  10.507  14.454
39982SOL    HW121843   6.926  10.544  14.526
39982SOL    HW221844   6.998  10.418  14.482
39983SOL     OW21845   5.328   3.346  14.666
39983SOL    HW121846   5.383   3.397  14.725
39983SOL    HW221847   5.356   3.255  14.679
39984SOL     OW21848   5.818   0.944   0.319
39984SOL    HW121849   5.737   0.896   0.329
39984SOL    HW221850   5.887   0.877   0.323
39985SOL     OW21851   2.448   8.037  14.050
39985SOL    HW121852   2.505   8.100  14.094
39985SOL    HW221853   2.444   8.067  13.959
39986SOL     OW21854   2.274  14.823   4.802
39986SOL    HW121855   2.204  14.871   4.846
39986SOL    HW221856   2.260  14.732   4.826
39987SOL     OW21857   3.469   9.635   1.402
39987SOL    HW121858   3.434   9.596   1.482
39987SOL    HW221859   3.428   9.721   1.397
39988SOL     OW21860   0.769   2.809  11.040
39988SOL    HW121861   0.694   2.750  11.048
39988SOL    HW221862   0.805   2.791  10.953
39989SOL     OW21863   0.715   6.124  14.790
39989SOL    HW121864   0.732   6.053  14.729
39989SOL    HW221865   0.714   6.083   0.004
39990SOL     OW21866   8.220  10.778   4.338
39990SOL    HW121867   8.151  10.825   4.385
39990SOL    HW221868   8.174  10.708   4.292
39991SOL     OW21869  14.206   7.855  11.367
39991SOL    HW121870  14.171   7.840  11.279
39991SOL    HW221871  14.233   7.947  11.367
39992SOL     OW21872   6.352   2.862  11.921
39992SOL    HW121873   6.380   2.933  11.979
39992SOL    HW221874   6.302   2.804  11.979
39993SOL     OW21875   7.921   7.077   7.873
39993SOL    HW121876   7.834   7.099   7.906
39993SOL    HW221877   7.927   7.121   7.788
39994SOL     OW21878   2.482   7.500  11.372
39994SOL    HW121879   2.522   7.576  11.414
39994SOL    HW221880   2.450   7.447  11.445
39995SOL     OW21881   9.332   0.834   3.010
39995SOL    HW121882   9.245   0.873   3.014
39995SOL    HW221883   9.341   0.805   2.919
39996SOL     OW21884   0.595   1.509   1.256
39996SOL    HW121885   0.524   1.486   1.197
39996SOL    HW221886   0.674   1.479   1.211
39997SOL     OW21887   8.345  14.669   5.643
39997SOL    HW121888   8.338  14.703   5.554
39997SOL    HW221889   8.256  14.676   5.679
39998SOL     OW21890   7.313  11.837   4.966
39998SOL    HW121891   7.221  11.836   4.938
39998SOL    HW221892   7.353  11.907   4.913
39999SOL     OW21893   5.261   6.623   6.969
39999SOL    HW121894   5.319   6.585   6.903
39999SOL    HW221895   5.307   6.610   7.052
40000SOL     OW21896   9.219  10.932  13.724
40000SOL    HW121897   9.126  10.918  13.708
40000SOL    HW221898   9.250  10.977  13.646
40001SOL     OW21899   4.545   6.045   7.370
40001SOL    HW121900   4.452   6.065   7.387
40001SOL    HW221901   4.552   6.046   7.274
40002SOL     OW21902  14.708   3.544   4.276
40002SOL    HW121903  14.743   3.498   4.200
40002SOL    HW221904  14.730   3.487   4.351
40003SOL     OW21905  12.190   1.618   5.745
40003SOL    HW121906  12.195   1.631   5.840
40003SOL    HW221907  12.116   1.559   5.732
40004SOL     OW21908  11.188   8.568  11.390
40004SOL    HW121909  11.203   8.659  11.364
40004SOL    HW221910  11.269   8.523  11.368
40005SOL     OW21911   3.842   0.829  12.668
40005SOL    HW121912   3.879   0.869  12.589
40005SOL    HW221913   3.917   0.790  12.712
40006SOL     OW21914   3.556  10.020  10.876
40006SOL    HW121915   3.644  10.033  10.911
40006SOL    HW221916   3.500  10.070  10.935
40007SOL     OW21917   9.552   4.253   8.964
40007SOL    HW121918   9.573   4.231   8.873
40007SOL    HW221919   9.524   4.170   9.004
40008SOL     OW21920  11.713  11.044   1.862
40008SOL    HW121921  11.624  11.013   1.849
40008SOL    HW221922  11.766  10.991   1.802
40009SOL     OW21923  11.848   2.971   7.550
40009SOL    HW121924  11.930   2.922   7.552
40009SOL    HW221925  11.813   2.956   7.462
40010SOL     OW21926   1.825  14.666   4.340
40010SOL    HW121927   1.801  14.670   4.248
40010SOL    HW221928   1.921  14.665   4.340
40011SOL     OW21929   4.910  10.612   0.240
40011SOL    HW121930   4.950  10.525   0.231
40011SOL    HW221931   4.942  10.645   0.324
40012SOL     OW21932   6.250   1.809  11.366
40012SOL    HW121933   6.233   1.882  11.306
40012SOL    HW221934   6.266   1.851  11.451
40013SOL     OW21935   8.624  10.991   5.068
40013SOL    HW121936   8.666  10.940   5.138
40013SOL    HW221937   8.659  11.079   5.078
40014SOL     OW21938   6.925   7.149   4.122
40014SOL    HW121939   7.015   7.166   4.092
40014SOL    HW221940   6.933   7.073   4.179
40015SOL     OW21941   6.191  12.908   5.163
40015SOL    HW121942   6.260  12.863   5.211
40015SOL    HW221943   6.217  13.000   5.162
40016SOL     OW21944   4.947  13.208   0.060
40016SOL    HW121945   5.016  13.269   0.034
40016SOL    HW221946   4.984  13.162   0.136
40017SOL     OW21947   9.053   7.034   3.986
40017SOL    HW121948   8.980   7.050   3.925
40017SOL    HW221949   9.092   6.952   3.955
40018SOL     OW21950   6.618   1.353   8.190
40018SOL    HW121951   6.583   1.363   8.279
40018SOL    HW221952   6.598   1.262   8.167
40019SOL     OW21953   6.369   3.944   5.682
40019SOL    HW121954   6.351   4.015   5.621
40019SOL    HW221955   6.445   3.973   5.732
40020SOL     OW21956   9.910   9.570   5.208
40020SOL    HW121957   9.820   9.550   5.186
40020SOL    HW221958   9.904   9.625   5.286
40021SOL     OW21959   0.360   7.616   6.306
40021SOL    HW121960   0.374   7.709   6.324
40021SOL    HW221961   0.413   7.571   6.372
40022SOL     OW21962   7.461   4.011  10.520
40022SOL    HW121963   7.383   4.025  10.467
40022SOL    HW221964   7.428   3.981  10.604
40023SOL     OW21965  10.091   2.040  12.760
40023SOL    HW121966  10.054   1.966  12.712
40023SOL    HW221967  10.063   2.026  12.851
40024SOL     OW21968  14.452   3.815   5.530
40024SOL    HW121969  14.372   3.792   5.483
40024SOL    HW221970  14.489   3.888   5.480
40025SOL     OW21971  11.233   9.418   4.003
40025SOL    HW121972  11.166   9.377   4.057
40025SOL    HW221973  11.313   9.410   4.053
40026SOL     OW21974  11.648  10.633   4.752
40026SOL    HW121975  11.556  10.615   4.735
40026SOL    HW221976  11.696  10.576   4.691
40027SOL     OW21977  12.627   2.163   8.547
40027SOL    HW121978  12.539   2.138   8.521
40027SOL    HW221979  12.684   2.123   8.482
40028SOL     OW21980   5.020   7.749  10.948
40028SOL    HW121981   5.039   7.837  10.916
40028SOL    HW221982   5.056   7.691  10.881
40029SOL     OW21983   3.940   7.446   3.679
40029SOL    HW121984   3.851   7.459   3.647
40029SOL    HW221985   3.964   7.530   3.717
40030SOL     OW21986  11.518   5.220  10.338
40030SOL    HW121987  11.574   5.186  10.408
40030SOL    HW221988  11.466   5.144  10.310
40031SOL     OW21989  11.539   3.945   9.285
40031SOL    HW121990  11.556   4.034   9.314
40031SOL    HW221991  11.502   3.955   9.197
40032SOL     OW21992  14.262  10.007   6.010
40032SOL    HW121993  14.189  10.069   6.018
40032SOL    HW221994  14.234   9.945   5.944
40033SOL     OW21995   3.167   4.790   9.689
40033SOL    HW121996   3.259   4.776   9.669
40033SOL    HW221997   3.152   4.742   9.771
40034SOL     OW21998   6.745   7.198   3.309
40034SOL    HW121999   6.818   7.256   3.333
40034SOL    HW222000   6.784   7.134   3.250
40035SOL     OW22001   6.567   3.177   1.965
40035SOL    HW122002   6.502   3.132   1.911
40035SOL    HW222003   6.577   3.122   2.042
40036SOL     OW22004  12.619  11.304  10.439
40036SOL    HW122005  12.607  11.213  10.469
40036SOL    HW222006  12.676  11.296  10.362
40037SOL     OW22007  14.546  14.863   3.734
40037SOL    HW122008  14.634   0.021   3.711
40037SOL    HW222009  14.493   0.011   3.657
40038SOL     OW22010  11.673   8.200   6.295
40038SOL    HW122011  11.705   8.251   6.221
40038SOL    HW222012  11.599   8.151   6.259
40039SOL     OW22013   0.706   0.213  12.967
40039SOL    HW122014   0.663   0.239  13.048
40039SOL    HW222015   0.640   0.228  12.899
40040SOL     OW22016  12.451  13.017   3.351
40040SOL    HW122017  12.407  13.091   3.392
40040SOL    HW222018  12.435  13.030   3.257
40041SOL     OW22019   7.131   3.896   9.938
40041SOL    HW122020   7.105   3.962   9.873
40041SOL    HW222021   7.208   3.854   9.900
40042SOL     OW22022   5.974   3.294  14.644
40042SOL    HW122023   6.065   3.305  14.672
40042SOL    HW222024   5.978   3.295  14.548
40043SOL     OW22025  13.484  11.940  12.358
40043SOL    HW122026  13.459  11.868  12.300
40043SOL    HW222027  13.580  11.938  12.357
40044SOL     OW22028   4.202   3.696   4.082
40044SOL    HW122029   4.223   3.661   4.169
40044SOL    HW222030   4.149   3.627   4.042
40045SOL     OW22031   7.568   3.224   3.221
40045SOL    HW122032   7.644   3.195   3.272
40045SOL    HW222033   7.507   3.150   3.224
40046SOL     OW22034   3.796  10.083  12.057
40046SOL    HW122035   3.777  10.124  11.973
40046SOL    HW222036   3.712  10.048  12.086
40047SOL     OW22037  14.057  13.468   8.223
40047SOL    HW122038  14.135  13.523   8.229
40047SOL    HW222039  14.071  13.399   8.289
40048SOL     OW22040   6.313  11.210  14.556
40048SOL    HW122041   6.313  11.126  14.602
40048SOL    HW222042   6.226  11.246  14.571
40049SOL     OW22043   0.902   4.949   8.975
40049SOL    HW122044   0.960   4.872   8.973
40049SOL    HW222045   0.869   4.956   8.885
40050SOL     OW22046   6.424   7.774   4.230
40050SOL    HW122047   6.493   7.811   4.176
40050SOL    HW222048   6.401   7.691   4.187
40051SOL     OW22049   8.453   3.064  11.435
40051SOL    HW122050   8.509   3.040  11.361
40051SOL    HW222051   8.364   3.055  11.402
40052SOL     OW22052  11.682   8.334   4.559
40052SOL    HW122053  11.673   8.429   4.556
40052SOL    HW222054  11.613   8.301   4.501
40053SOL     OW22055   9.075  13.668   6.231
40053SOL    HW122056   9.170  13.658   6.229
40053SOL    HW222057   9.056  13.704   6.318
40054SOL     OW22058   8.458   1.272  13.330
40054SOL    HW122059   8.428   1.192  13.287
40054SOL    HW222060   8.382   1.331  13.327
40055SOL     OW22061   8.290   0.535  13.331
40055SOL    HW122062   8.322   0.531  13.421
40055SOL    HW222063   8.317   0.452  13.292
40056SOL     OW22064   0.943   7.208   7.955
40056SOL    HW122065   0.889   7.245   8.026
40056SOL    HW222066   0.880   7.190   7.885
40057SOL     OW22067   7.105   6.482  14.339
40057SOL    HW122068   7.016   6.485  14.304
40057SOL    HW222069   7.096   6.436  14.423
40058SOL     OW22070   9.877   9.498  10.388
40058SOL    HW122071   9.858   9.479  10.296
40058SOL    HW222072   9.970   9.521  10.388
40059SOL     OW22073  10.454   2.170   3.777
40059SOL    HW122074  10.382   2.113   3.805
40059SOL    HW222075  10.518   2.110   3.739
40060SOL     OW22076   4.796   0.195   8.688
40060SOL    HW122077   4.707   0.225   8.703
40060SOL    HW222078   4.800   0.176   8.595
40061SOL     OW22079   3.501   4.331  14.134
40061SOL    HW122080   3.549   4.372  14.062
40061SOL    HW222081   3.512   4.392  14.207
40062SOL     OW22082  10.289   9.633   0.775
40062SOL    HW122083  10.234   9.566   0.734
40062SOL    HW222084  10.341   9.669   0.703
40063SOL     OW22085   1.411   1.540  11.152
40063SOL    HW122086   1.428   1.554  11.058
40063SOL    HW222087   1.473   1.472  11.178
40064SOL     OW22088  12.316  11.588   1.466
40064SOL    HW122089  12.296  11.557   1.554
40064SOL    HW222090  12.408  11.562   1.452
40065SOL     OW22091   2.689   2.817   2.217
40065SOL    HW122092   2.624   2.873   2.260
40065SOL    HW222093   2.761   2.877   2.195
40066SOL     OW22094   4.944   8.567   0.371
40066SOL    HW122095   4.887   8.624   0.320
40066SOL    HW222096   5.028   8.569   0.325
40067SOL     OW22097   4.794  13.290  11.713
40067SOL    HW122098   4.812  13.196  11.724
40067SOL    HW222099   4.792  13.324  11.802
40068SOL     OW22100  11.856   4.113   0.794
40068SOL    HW122101  11.849   4.031   0.745
40068SOL    HW222102  11.950   4.124   0.810
40069SOL     OW22103   6.110   3.339  10.694
40069SOL    HW122104   6.026   3.378  10.719
40069SOL    HW222105   6.174   3.410  10.706
40070SOL     OW22106  14.064   4.948   4.389
40070SOL    HW122107  14.076   5.021   4.329
40070SOL    HW222108  14.141   4.950   4.446
40071SOL     OW22109   9.200   1.456   9.930
40071SOL    HW122110   9.241   1.395   9.992
40071SOL    HW222111   9.230   1.426   9.844
40072SOL     OW22112   9.763   3.304   3.319
40072SOL    HW122113   9.733   3.214   3.306
40072SOL    HW222114   9.843   3.310   3.267
40073SOL     OW22115  13.756   8.423  14.842
40073SOL    HW122116  13.733   8.500  14.790
40073SOL    HW222117  13.672   8.385  14.867
40074SOL     OW22118   9.687  12.280   6.274
40074SOL    HW122119   9.762  12.316   6.227
40074SOL    HW222120   9.666  12.198   6.229
40075SOL     OW22121   9.484   8.374   1.481
40075SOL    HW122122   9.429   8.385   1.559
40075SOL    HW222123   9.422   8.373   1.408
40076SOL     OW22124  12.170   8.469   8.629
40076SOL    HW122125  12.190   8.562   8.637
40076SOL    HW222126  12.084   8.466   8.586
40077SOL     OW22127  14.694   2.711  11.308
40077SOL    HW122128  14.653   2.775  11.366
40077SOL    HW222129  14.627   2.691  11.243
40078SOL     OW22130   2.971   7.804  11.265
40078SOL    HW122131   2.891   7.844  11.233
40078SOL    HW222132   2.942   7.728  11.316
40079SOL     OW22133   9.879   0.123   7.712
40079SOL    HW122134   9.807   0.099   7.770
40079SOL    HW222135   9.906   0.210   7.741
40080SOL     OW22136  13.661   0.765   7.531
40080SOL    HW122137  13.582   0.787   7.483
40080SOL    HW222138  13.658   0.669   7.540
40081SOL     OW22139  13.461   2.596   1.484
40081SOL    HW122140  13.532   2.655   1.510
40081SOL    HW222141  13.497   2.543   1.413
40082SOL     OW22142  14.804  10.563   3.843
40082SOL    HW122143   0.027  10.567   3.850
40082SOL    HW222144  14.772  10.628   3.904
40083SOL     OW22145   6.472   4.277  10.451
40083SOL    HW122146   6.556   4.233  10.441
40083SOL    HW222147   6.470   4.341  10.380
40084SOL     OW22148   9.775  12.171   2.403
40084SOL    HW122149   9.727  12.239   2.451
40084SOL    HW222150   9.850  12.217   2.366
40085SOL     OW22151   5.322  13.798   6.063
40085SOL    HW122152   5.382  13.871   6.045
40085SOL    HW222153   5.369  13.721   6.032
40086SOL     OW22154   3.070   7.422   3.733
40086SOL    HW122155   3.157   7.427   3.773
40086SOL    HW222156   3.029   7.347   3.775
40087SOL     OW22157   3.098   0.796   3.845
40087SOL    HW122158   3.109   0.748   3.927
40087SOL    HW222159   3.089   0.728   3.778
40088SOL     OW22160   8.845   3.548  11.515
40088SOL    HW122161   8.892   3.624  11.550
40088SOL    HW222162   8.779   3.585  11.457
40089SOL     OW22163  13.539   0.695   0.199
40089SOL    HW122164  13.546   0.722   0.290
40089SOL    HW222165  13.540   0.599   0.202
40090SOL     OW22166  13.530  10.715   5.489
40090SOL    HW122167  13.558  10.701   5.579
40090SOL    HW222168  13.526  10.810   5.479
40091SOL     OW22169   2.529   3.949   5.708
40091SOL    HW122170   2.599   3.949   5.773
40091SOL    HW222171   2.523   3.858   5.680
40092SOL     OW22172  12.252  10.431  13.846
40092SOL    HW122173  12.327  10.469  13.800
40092SOL    HW222174  12.287  10.406  13.931
40093SOL     OW22175   7.169  13.746   3.099
40093SOL    HW122176   7.176  13.743   3.194
40093SOL    HW222177   7.247  13.699   3.068
40094SOL     OW22178   8.421   6.419  11.350
40094SOL    HW122179   8.337   6.461  11.329
40094SOL    HW222180   8.412   6.394  11.443
40095SOL     OW22181   1.723   4.404  11.829
40095SOL    HW122182   1.761   4.403  11.741
40095SOL    HW222183   1.793   4.436  11.885
40096SOL     OW22184   2.200  14.505   0.325
40096SOL    HW122185   2.274  14.465   0.372
40096SOL    HW222186   2.196  14.458   0.242
40097SOL     OW22187  10.514   8.260   7.123
40097SOL    HW122188  10.562   8.177   7.128
40097SOL    HW222189  10.558   8.310   7.055
40098SOL     OW22190   1.362   2.408   1.169
40098SOL    HW122191   1.327   2.339   1.226
40098SOL    HW222192   1.288   2.468   1.155
40099SOL     OW22193  11.617   5.327  10.953
40099SOL    HW122194  11.538   5.328  11.007
40099SOL    HW222195  11.665   5.405  10.979
40100SOL     OW22196   1.137   8.078  11.356
40100SOL    HW122197   1.042   8.071  11.364
40100SOL    HW222198   1.161   8.014  11.289
40101SOL     OW22199   6.359   9.830  14.339
40101SOL    HW122200   6.291   9.893  14.361
40101SOL    HW222201   6.364   9.832  14.244
40102SOL     OW22202   9.880   8.566   6.224
40102SOL    HW122203   9.936   8.644   6.221
40102SOL    HW222204   9.825   8.580   6.301
40103SOL     OW22205   2.246   8.891   7.687
40103SOL    HW122206   2.304   8.823   7.719
40103SOL    HW222207   2.167   8.845   7.659
40104SOL     OW22208   5.369   4.031   9.875
40104SOL    HW122209   5.293   4.038   9.817
40104SOL    HW222210   5.339   3.979   9.949
40105SOL     OW22211  10.070   8.459   7.647
40105SOL    HW122212   9.988   8.432   7.606
40105SOL    HW222213  10.130   8.386   7.632
40106SOL     OW22214   8.122  12.759   3.122
40106SOL    HW122215   8.214  12.785   3.127
40106SOL    HW222216   8.125  12.667   3.096
40107SOL     OW22217   2.366   0.416  14.863
40107SOL    HW122218   2.390   0.381  14.777
40107SOL    HW222219   2.372   0.341   0.049
40108SOL     OW22220   3.878  10.269   6.631
40108SOL    HW122221   3.963  10.249   6.670
40108SOL    HW222222   3.814  10.251   6.701
40109SOL     OW22223  12.822  10.954   5.414
40109SOL    HW122224  12.895  10.896   5.437
40109SOL    HW222225  12.745  10.910   5.451
40110SOL     OW22226  11.784   6.983  14.829
40110SOL    HW122227  11.714   7.009  14.770
40110SOL    HW222228  11.804   7.062   0.006
40111SOL     OW22229  14.368  12.311  11.775
40111SOL    HW122230  14.337  12.228  11.740
40111SOL    HW222231  14.463  12.300  11.783
40112SOL     OW22232   6.088  13.506  13.924
40112SOL    HW122233   6.029  13.462  13.985
40112SOL    HW222234   6.070  13.599  13.936
40113SOL     OW22235  10.664   2.371   6.537
40113SOL    HW122236  10.697   2.304   6.597
40113SOL    HW222237  10.724   2.368   6.462
40114SOL     OW22238   5.288   4.045   4.397
40114SOL    HW122239   5.356   4.043   4.465
40114SOL    HW222240   5.225   3.979   4.424
40115SOL     OW22241  11.588  12.173   0.143
40115SOL    HW122242  11.625  12.093   0.183
40115SOL    HW222243  11.573  12.149   0.052
40116SOL     OW22244   1.572   2.841  10.981
40116SOL    HW122245   1.614   2.758  11.003
40116SOL    HW222246   1.603   2.861  10.892
40117SOL     OW22247   7.569   3.808  12.016
40117SOL    HW122248   7.504   3.775  12.079
40117SOL    HW222249   7.528   3.796  11.931
40118SOL     OW22250   0.833   6.570   8.706
40118SOL    HW122251   0.906   6.557   8.644
40118SOL    HW222252   0.757   6.588   8.650
40119SOL     OW22253  11.977  12.223   2.904
40119SOL    HW122254  12.042  12.291   2.886
40119SOL    HW222255  12.022  12.159   2.959
40120SOL     OW22256   4.870   4.517   8.381
40120SOL    HW122257   4.906   4.434   8.411
40120SOL    HW222258   4.903   4.582   8.443
40121SOL     OW22259   4.908   3.372  12.388
40121SOL    HW122260   4.842   3.434  12.359
40121SOL    HW222261   4.878   3.343  12.474
40122SOL     OW22262   2.871  12.921  12.014
40122SOL    HW122263   2.864  12.988  12.082
40122SOL    HW222264   2.791  12.931  11.963
40123SOL     OW22265   7.054   2.994   5.820
40123SOL    HW122266   7.141   3.032   5.830
40123SOL    HW222267   7.036   2.997   5.726
40124SOL     OW22268   1.498   5.499   6.368
40124SOL    HW122269   1.547   5.420   6.345
40124SOL    HW222270   1.517   5.513   6.461
40125SOL     OW22271  13.706   7.732   8.173
40125SOL    HW122272  13.622   7.705   8.136
40125SOL    HW222273  13.683   7.807   8.229
40126SOL     OW22274   3.952   3.713   4.329
40126SOL    HW122275   3.889   3.743   4.264
40126SOL    HW222276   3.929   3.760   4.409
40127SOL     OW22277   1.618   2.745  14.774
40127SOL    HW122278   1.666   2.701  14.844
40127SOL    HW222279   1.648   2.836  14.778
40128SOL     OW22280  11.485   4.090   3.336
40128SOL    HW122281  11.555   4.125   3.391
40128SOL    HW222282  11.425   4.047   3.397
40129SOL     OW22283   1.857   0.890  10.997
40129SOL    HW122284   1.801   0.887  10.918
40129SOL    HW222285   1.835   0.974  11.038
40130SOL     OW22286  14.333  12.850  12.269
40130SOL    HW122287  14.345  12.845  12.364
40130SOL    HW222288  14.418  12.827  12.232
40131SOL     OW22289  10.914   4.493   3.166
40131SOL    HW122290  10.888   4.551   3.094
40131SOL    HW222291  10.839   4.434   3.178
40132SOL     OW22292   1.715   1.857   9.615
40132SOL    HW122293   1.804   1.868   9.581
40132SOL    HW222294   1.722   1.787   9.680
40133SOL     OW22295  12.933  10.037   0.045
40133SOL    HW122296  12.965  10.112  14.867
40133SOL    HW222297  12.882  10.076   0.116
40134SOL     OW22298   0.454   6.389   2.843
40134SOL    HW122299   0.514   6.460   2.823
40134SOL    HW222300   0.377   6.433   2.880
40135SOL     OW22301  14.824  12.048   0.704
40135SOL    HW122302  14.835  12.139   0.733
40135SOL    HW222303   0.038  12.022   0.672
40136SOL     OW22304   9.711  13.968   5.001
40136SOL    HW122305   9.757  13.894   5.043
40136SOL    HW222306   9.753  14.046   5.038
40137SOL     OW22307   5.978   5.134   3.592
40137SOL    HW122308   5.950   5.172   3.509
40137SOL    HW222309   6.026   5.204   3.636
40138SOL     OW22310  10.681  14.429   8.442
40138SOL    HW122311  10.678  14.340   8.406
40138SOL    HW222312  10.641  14.421   8.528
40139SOL     OW22313   2.751   4.038   5.942
40139SOL    HW122314   2.795   4.095   6.005
40139SOL    HW222315   2.816   3.972   5.919
40140SOL     OW22316   0.362   5.919   4.287
40140SOL    HW122317   0.353   6.003   4.243
40140SOL    HW222318   0.355   5.854   4.217
40141SOL     OW22319   5.969  12.545   9.175
40141SOL    HW122320   6.046  12.581   9.131
40141SOL    HW222321   5.992  12.545   9.268
40142SOL     OW22322  10.469   1.045   3.112
40142SOL    HW122323  10.397   1.014   3.056
40142SOL    HW222324  10.529   0.970   3.118
40143SOL     OW22325   5.449   4.311  11.927
40143SOL    HW122326   5.433   4.317  12.021
40143SOL    HW222327   5.479   4.221  11.914
40144SOL     OW22328   8.202  12.556  10.607
40144SOL    HW122329   8.246  12.582  10.527
40144SOL    HW222330   8.178  12.465  10.592
40145SOL     OW22331  13.008   5.176   1.141
40145SOL    HW122332  13.032   5.093   1.182
40145SOL    HW222333  12.934   5.209   1.192
40146SOL     OW22334   2.184   3.735   8.831
40146SOL    HW122335   2.163   3.661   8.888
40146SOL    HW222336   2.156   3.707   8.744
40147SOL     OW22337   2.093   2.126   9.212
40147SOL    HW122338   2.074   2.126   9.306
40147SOL    HW222339   2.023   2.179   9.174
40148SOL     OW22340   1.961   8.864  11.484
40148SOL    HW122341   1.896   8.923  11.522
40148SOL    HW222342   2.019   8.842  11.557
40149SOL     OW22343  12.542   6.414   6.346
40149SOL    HW122344  12.481   6.349   6.382
40149SOL    HW222345  12.626   6.368   6.341
40150SOL     OW22346   4.726   9.983  12.973
40150SOL    HW122347   4.766   9.901  13.001
40150SOL    HW222348   4.774  10.051  13.021
40151SOL     OW22349   8.005  12.011   8.029
40151SOL    HW122350   7.946  11.990   8.102
40151SOL    HW222351   7.947  12.039   7.958
40152SOL     OW22352  13.316   5.499   5.084
40152SOL    HW122353  13.252   5.432   5.108
40152SOL    HW222354  13.273   5.582   5.108
40153SOL     OW22355   3.999   4.129   1.979
40153SOL    HW122356   3.986   4.035   1.994
40153SOL    HW222357   4.032   4.134   1.889
40154SOL     OW22358  11.507   0.715   8.475
40154SOL    HW122359  11.411   0.714   8.477
40154SOL    HW222360  11.533   0.663   8.551
40155SOL     OW22361  14.265   1.943  13.723
40155SOL    HW122362  14.354   1.930  13.757
40155SOL    HW222363  14.277   1.976  13.635
40156SOL     OW22364   2.354   9.222  13.156
40156SOL    HW122365   2.410   9.293  13.125
40156SOL    HW222366   2.266   9.248  13.130
40157SOL     OW22367  14.108   2.034  10.934
40157SOL    HW122368  14.149   2.087  11.002
40157SOL    HW222369  14.014   2.040  10.951
40158SOL     OW22370   0.778   3.900   9.471
40158SOL    HW122371   0.727   3.882   9.549
40158SOL    HW222372   0.831   3.821   9.458
40159SOL     OW22373   9.045  12.332   9.599
40159SOL    HW122374   9.040  12.425   9.622
40159SOL    HW222375   9.139  12.312   9.604
40160SOL     OW22376   7.152  13.482  11.564
40160SOL    HW122377   7.076  13.483  11.505
40160SOL    HW222378   7.203  13.406  11.538
40161SOL     OW22379   2.359   3.565   5.468
40161SOL    HW122380   2.382   3.653   5.496
40161SOL    HW222381   2.442   3.517   5.469
40162SOL     OW22382  12.030   2.627   8.636
40162SOL    HW122383  11.959   2.679   8.675
40162SOL    HW222384  12.088   2.692   8.595
40163SOL     OW22385  14.082   5.563  12.118
40163SOL    HW122386  14.000   5.602  12.149
40163SOL    HW222387  14.056   5.506  12.046
40164SOL     OW22388   7.689   6.925   9.545
40164SOL    HW122389   7.634   6.904   9.469
40164SOL    HW222390   7.628   6.961   9.609
40165SOL     OW22391   4.698   6.563  12.506
40165SOL    HW122392   4.782   6.575  12.461
40165SOL    HW222393   4.658   6.650  12.506
40166SOL     OW22394   1.084  11.336  12.024
40166SOL    HW122395   1.135  11.271  12.073
40166SOL    HW222396   1.102  11.419  12.067
40167SOL     OW22397  12.166  13.094  14.516
40167SOL    HW122398  12.221  13.102  14.438
40167SOL    HW222399  12.195  13.164  14.574
40168SOL     OW22400   8.661  14.587   9.512
40168SOL    HW122401   8.595  14.628   9.457
40168SOL    HW222402   8.612  14.547   9.584
40169SOL     OW22403   1.541  10.551  11.489
40169SOL    HW122404   1.622  10.514  11.525
40169SOL    HW222405   1.486  10.475  11.469
40170SOL     OW22406   8.520   9.975   3.694
40170SOL    HW122407   8.438   9.961   3.646
40170SOL    HW222408   8.499   9.951   3.785
40171SOL     OW22409   5.074  11.829   9.458
40171SOL    HW122410   5.156  11.870   9.483
40171SOL    HW222411   5.081  11.817   9.363
40172SOL     OW22412   4.507   5.585   2.512
40172SOL    HW122413   4.562   5.535   2.452
40172SOL    HW222414   4.502   5.532   2.591
40173SOL     OW22415   4.760   0.024  13.153
40173SOL    HW122416   4.739   0.009  13.245
40173SOL    HW222417   4.837   0.082  13.155
40174SOL     OW22418   6.852   6.422  14.815
40174SOL    HW122419   6.757   6.430  14.820
40174SOL    HW222420   6.883   6.444   0.031
40175SOL     OW22421  11.185   5.736   5.477
40175SOL    HW122422  11.196   5.658   5.423
40175SOL    HW222423  11.258   5.733   5.539
40176SOL     OW22424   8.035  13.362   0.971
40176SOL    HW122425   8.051  13.273   1.002
40176SOL    HW222426   8.122  13.400   0.958
40177SOL     OW22427   0.338  14.810   8.734
40177SOL    HW122428   0.248  14.843   8.738
40177SOL    HW222429   0.380  14.843   8.814
40178SOL     OW22430   9.297   8.857   8.815
40178SOL    HW122431   9.335   8.920   8.876
40178SOL    HW222432   9.202   8.870   8.823
40179SOL     OW22433  13.391   1.430  14.548
40179SOL    HW122434  13.473   1.471  14.520
40179SOL    HW222435  13.353   1.394  14.468
40180SOL     OW22436   8.505  11.134   6.987
40180SOL    HW122437   8.444  11.091   6.928
40180SOL    HW222438   8.555  11.063   7.027
40181SOL     OW22439  10.801   8.933  10.234
40181SOL    HW122440  10.820   8.919  10.327
40181SOL    HW222441  10.887   8.934  10.192
40182SOL     OW22442   8.819  14.805  13.436
40182SOL    HW122443   8.724  14.811  13.437
40182SOL    HW222444   8.848  14.868  13.501
40183SOL     OW22445   9.437  13.755   8.559
40183SOL    HW122446   9.384  13.677   8.574
40183SOL    HW222447   9.399  13.822   8.615
40184SOL     OW22448   2.807  13.640   1.492
40184SOL    HW122449   2.862  13.563   1.507
40184SOL    HW222450   2.751  13.615   1.418
40185SOL     OW22451   9.496   1.151  12.586
40185SOL    HW122452   9.526   1.071  12.629
40185SOL    HW222453   9.477   1.211  12.658
40186SOL     OW22454  12.277   1.666   6.770
40186SOL    HW122455  12.352   1.725   6.771
40186SOL    HW222456  12.306   1.589   6.721
40187SOL     OW22457   8.952   0.179   4.309
40187SOL    HW122458   8.961   0.172   4.214
40187SOL    HW222459   8.954   0.274   4.326
40188SOL     OW22460   4.919   8.548   1.270
40188SOL    HW122461   4.884   8.586   1.351
40188SOL    HW222462   4.842   8.520   1.221
40189SOL     OW22463   6.721   8.268  12.828
40189SOL    HW122464   6.728   8.356  12.865
40189SOL    HW222465   6.660   8.222  12.886
40190SOL     OW22466   1.672   9.629   0.838
40190SOL    HW122467   1.605   9.587   0.893
40190SOL    HW222468   1.689   9.713   0.882
40191SOL     OW22469  14.181   6.433   3.747
40191SOL    HW122470  14.170   6.338   3.747
40191SOL    HW222471  14.276   6.446   3.744
40192SOL     OW22472   5.961   4.915   8.118
40192SOL    HW122473   5.881   4.935   8.068
40192SOL    HW222474   6.026   4.894   8.052
40193SOL     OW22475   2.623  13.160   8.333
40193SOL    HW122476   2.531  13.172   8.308
40193SOL    HW222477   2.634  13.216   8.410
40194SOL     OW22478  10.765   2.905  14.070
40194SOL    HW122479  10.672   2.882  14.063
40194SOL    HW222480  10.794   2.867  14.152
40195SOL     OW22481  13.147  14.836   6.689
40195SOL    HW122482  13.128  14.799   6.603
40195SOL    HW222483  13.241  14.855   6.687
40196SOL     OW22484  11.798   9.945   7.882
40196SOL    HW122485  11.704   9.936   7.867
40196SOL    HW222486  11.808  10.029   7.926
40197SOL     OW22487   8.309   0.498  14.848
40197SOL    HW122488   8.339   0.565  14.787
40197SOL    HW222489   8.233   0.536   0.019
40198SOL     OW22490   7.966  10.326   7.936
40198SOL    HW122491   7.995  10.416   7.917
40198SOL    HW222492   7.980  10.279   7.853
40199SOL     OW22493  12.496   6.936   3.503
40199SOL    HW122494  12.472   6.872   3.570
40199SOL    HW222495  12.448   7.015   3.526
40200SOL     OW22496   3.526  11.159   5.587
40200SOL    HW122497   3.511  11.070   5.619
40200SOL    HW222498   3.450  11.178   5.532
40201SOL     OW22499  13.612   4.248   2.860
40201SOL    HW122500  13.642   4.333   2.893
40201SOL    HW222501  13.674   4.227   2.790
40202SOL     OW22502   7.214   3.832   4.531
40202SOL    HW122503   7.163   3.787   4.599
40202SOL    HW222504   7.305   3.818   4.557
40203SOL     OW22505   8.052   6.806   9.561
40203SOL    HW122506   8.018   6.895   9.550
40203SOL    HW222507   8.133   6.818   9.612
40204SOL     OW22508   6.081   3.166  10.479
40204SOL    HW122509   6.108   3.244  10.528
40204SOL    HW222510   6.106   3.184  10.389
40205SOL     OW22511   1.038   0.483  11.129
40205SOL    HW122512   1.126   0.454  11.155
40205SOL    HW222513   0.997   0.406  11.091
40206SOL     OW22514   0.664   1.306   4.852
40206SOL    HW122515   0.582   1.257   4.857
40206SOL    HW222516   0.729   1.242   4.825
40207SOL     OW22517  14.153   1.199   9.384
40207SOL    HW122518  14.167   1.282   9.429
40207SOL    HW222519  14.103   1.222   9.305
40208SOL     OW22520   3.857   0.535   1.143
40208SOL    HW122521   3.948   0.545   1.118
40208SOL    HW222522   3.860   0.486   1.225
40209SOL     OW22523   3.920  11.896  13.799
40209SOL    HW122524   3.855  11.858  13.741
40209SOL    HW222525   3.929  11.987  13.769
40210SOL     OW22526   8.281   3.873  10.957
40210SOL    HW122527   8.254   3.953  10.912
40210SOL    HW222528   8.214   3.861  11.025
40211SOL     OW22529   5.815   3.575   1.698
40211SOL    HW122530   5.763   3.552   1.775
40211SOL    HW222531   5.792   3.509   1.633
40212SOL     OW22532  12.969   0.043  12.752
40212SOL    HW122533  12.943   0.135  12.763
40212SOL    HW222534  12.955   0.025  12.660
40213SOL     OW22535   5.504   5.335  12.057
40213SOL    HW122536   5.553   5.417  12.062
40213SOL    HW222537   5.451   5.333  12.136
40214SOL     OW22538   4.436  11.078   0.689
40214SOL    HW122539   4.385  10.997   0.687
40214SOL    HW222540   4.510  11.058   0.747
40215SOL     OW22541   2.024  13.566   8.160
40215SOL    HW122542   1.930  13.585   8.163
40215SOL    HW222543   2.060  13.618   8.231
40216SOL     OW22544  10.173   3.335  14.832
40216SOL    HW122545  10.093   3.382  14.807
40216SOL    HW222546  10.236   3.404  14.850
40217SOL     OW22547   4.457  10.839   2.344
40217SOL    HW122548   4.474  10.777   2.416
40217SOL    HW222549   4.422  10.785   2.273
40218SOL     OW22550   9.968   5.596   1.379
40218SOL    HW122551   9.904   5.598   1.451
40218SOL    HW222552  10.047   5.558   1.419
40219SOL     OW22553  13.219   2.832  10.920
40219SOL    HW122554  13.310   2.814  10.896
40219SOL    HW222555  13.177   2.860  10.839
40220SOL     OW22556   6.152   4.337   6.493
40220SOL    HW122557   6.115   4.315   6.408
40220SOL    HW222558   6.156   4.254   6.541
40221SOL     OW22559   2.455   3.985   7.414
40221SOL    HW122560   2.373   3.995   7.463
40221SOL    HW222561   2.506   4.062   7.438
40222SOL     OW22562   1.223  11.419  12.571
40222SOL    HW122563   1.186  11.420  12.483
40222SOL    HW222564   1.147  11.427  12.629
40223SOL     OW22565   8.238  11.800  14.027
40223SOL    HW122566   8.277  11.766  14.107
40223SOL    HW222567   8.303  11.861  13.992
40224SOL     OW22568   3.227  10.811   7.564
40224SOL    HW122569   3.179  10.867   7.625
40224SOL    HW222570   3.290  10.765   7.620
40225SOL     OW22571  13.986   1.664   2.334
40225SOL    HW122572  13.998   1.638   2.243
40225SOL    HW222573  14.070   1.704   2.358
40226SOL     OW22574   8.133   5.905   8.654
40226SOL    HW122575   8.162   5.964   8.584
40226SOL    HW222576   8.038   5.915   8.656
40227SOL     OW22577  14.485  12.537   7.457
40227SOL    HW122578  14.522  12.598   7.393
40227SOL    HW222579  14.554  12.471   7.470
40228SOL     OW22580  10.555   8.224   6.815
40228SOL    HW122581  10.469   8.185   6.833
40228SOL    HW222582  10.535   8.315   6.792
40229SOL     OW22583  11.432  13.846   3.224
40229SOL    HW122584  11.401  13.914   3.283
40229SOL    HW222585  11.373  13.772   3.241
40230SOL     OW22586   2.188   6.046  14.492
40230SOL    HW122587   2.105   6.020  14.532
40230SOL    HW222588   2.225   6.110  14.554
40231SOL     OW22589   3.193  10.820  11.015
40231SOL    HW122590   3.196  10.858  11.103
40231SOL    HW222591   3.264  10.756  11.014
40232SOL     OW22592   9.809  12.178   2.769
40232SOL    HW122593   9.776  12.268   2.762
40232SOL    HW222594   9.757  12.138   2.838
40233SOL     OW22595  13.995  10.859  11.330
40233SOL    HW122596  14.009  10.805  11.253
40233SOL    HW222597  13.901  10.855  11.346
40234SOL     OW22598  10.218  10.606  13.156
40234SOL    HW122599  10.163  10.682  13.176
40234SOL    HW222600  10.157  10.541  13.120
40235SOL     OW22601   5.419  10.616   3.110
40235SOL    HW122602   5.402  10.522   3.110
40235SOL    HW222603   5.398  10.644   3.199
40236SOL     OW22604  12.572  12.923  10.892
40236SOL    HW122605  12.513  12.848  10.906
40236SOL    HW222606  12.555  12.950  10.802
40237SOL     OW22607   0.415   4.192   7.067
40237SOL    HW122608   0.501   4.202   7.107
40237SOL    HW222609   0.354   4.189   7.140
40238SOL     OW22610   4.902   9.714  10.283
40238SOL    HW122611   4.817   9.758  10.287
40238SOL    HW222612   4.892   9.652  10.210
40239SOL     OW22613   0.942  12.566   8.526
40239SOL    HW122614   0.996  12.571   8.605
40239SOL    HW222615   0.870  12.627   8.543
40240SOL     OW22616   7.698  11.421   3.027
40240SOL    HW122617   7.639  11.384   2.962
40240SOL    HW222618   7.673  11.380   3.110
40241SOL     OW22619  11.801  10.439   3.477
40241SOL    HW122620  11.720  10.402   3.511
40241SOL    HW222621  11.862  10.436   3.550
40242SOL     OW22622  14.272   0.128   9.733
40242SOL    HW122623  14.324   0.051   9.712
40242SOL    HW222624  14.322   0.201   9.698
40243SOL     OW22625  13.395   3.926   9.303
40243SOL    HW122626  13.442   3.946   9.222
40243SOL    HW222627  13.391   3.831   9.306
40244SOL     OW22628   1.221  12.179   0.979
40244SOL    HW122629   1.179  12.172   1.065
40244SOL    HW222630   1.232  12.273   0.965
40245SOL     OW22631   4.239   3.999  11.665
40245SOL    HW122632   4.251   4.024  11.573
40245SOL    HW222633   4.144   4.000  11.678
40246SOL     OW22634   0.246   3.264   8.168
40246SOL    HW122635   0.228   3.357   8.177
40246SOL    HW222636   0.322   3.260   8.110
40247SOL     OW22637   9.564  10.207   3.131
40247SOL    HW122638   9.592  10.293   3.100
40247SOL    HW222639   9.471  10.217   3.149
40248SOL     OW22640   3.671   7.512  11.471
40248SOL    HW122641   3.750   7.547  11.430
40248SOL    HW222642   3.639   7.447  11.408
40249SOL     OW22643  10.644   8.489  12.469
40249SOL    HW122644  10.654   8.534  12.385
40249SOL    HW222645  10.555   8.454  12.466
40250SOL     OW22646   2.375  10.018  10.425
40250SOL    HW122647   2.399   9.982  10.510
40250SOL    HW222648   2.282  10.037  10.432
40251SOL     OW22649   8.859   9.992  10.439
40251SOL    HW122650   8.814   9.909  10.421
40251SOL    HW222651   8.834  10.048  10.366
40252SOL     OW22652   7.284   1.525  11.672
40252SOL    HW122653   7.239   1.518  11.756
40252SOL    HW222654   7.375   1.543  11.695
40253SOL     OW22655   6.629  11.985  14.517
40253SOL    HW122656   6.674  11.951  14.440
40253SOL    HW222657   6.555  11.925  14.530
40254SOL     OW22658   1.173  12.200   6.939
40254SOL    HW122659   1.197  12.286   6.973
40254SOL    HW222660   1.084  12.211   6.905
40255SOL     OW22661  14.819  10.106   8.563
40255SOL    HW122662   0.018  10.053   8.526
40255SOL    HW222663  14.787  10.158   8.490
40256SOL     OW22664  10.096  12.656  14.346
40256SOL    HW122665  10.130  12.663  14.435
40256SOL    HW222666  10.125  12.736  14.303
40257SOL     OW22667  12.870   6.871   1.338
40257SOL    HW122668  12.954   6.860   1.294
40257SOL    HW222669  12.805   6.841   1.275
40258SOL     OW22670  12.778   3.455  12.567
40258SOL    HW122671  12.749   3.459  12.658
40258SOL    HW222672  12.862   3.499  12.566
40259SOL     OW22673   9.557  12.100   8.873
40259SOL    HW122674   9.596  12.182   8.843
40259SOL    HW222675   9.465  12.107   8.849
40260SOL     OW22676   0.189   2.142  11.595
40260SOL    HW122677   0.249   2.215  11.575
40260SOL    HW222678   0.211   2.118  11.685
40261SOL     OW22679   7.238  13.286   8.389
40261SOL    HW122680   7.241  13.298   8.294
40261SOL    HW222681   7.306  13.345   8.423
40262SOL     OW22682  13.069   0.439   6.017
40262SOL    HW122683  13.113   0.481   6.091
40262SOL    HW222684  13.109   0.353   6.011
40263SOL     OW22685  11.065   7.799   7.288
40263SOL    HW122686  11.011   7.824   7.363
40263SOL    HW222687  11.146   7.849   7.298
40264SOL     OW22688  10.956  11.653  11.374
40264SOL    HW122689  10.994  11.614  11.453
40264SOL    HW222690  10.868  11.681  11.401
40265SOL     OW22691   8.096   5.583   9.280
40265SOL    HW122692   8.116   5.659   9.334
40265SOL    HW222693   8.000   5.578   9.281
40266SOL     OW22694   9.410  13.966  12.319
40266SOL    HW122695   9.325  14.000  12.347
40266SOL    HW222696   9.441  13.915  12.394
40267SOL     OW22697  12.971  13.014   7.343
40267SOL    HW122698  12.898  12.952   7.339
40267SOL    HW222699  12.968  13.048   7.433
40268SOL     OW22700   3.956   6.220   1.621
40268SOL    HW122701   3.961   6.142   1.567
40268SOL    HW222702   3.894   6.197   1.691
40269SOL     OW22703  12.819   9.212   7.030
40269SOL    HW122704  12.825   9.117   7.037
40269SOL    HW222705  12.822   9.243   7.121
40270SOL     OW22706  14.324  12.878  10.697
40270SOL    HW122707  14.382  12.898  10.771
40270SOL    HW222708  14.240  12.857  10.738
40271SOL     OW22709  12.892   5.113   7.801
40271SOL    HW122710  12.893   5.201   7.840
40271SOL    HW222711  12.922   5.055   7.871
40272SOL     OW22712   4.355  10.300   7.450
40272SOL    HW122713   4.374  10.388   7.481
40272SOL    HW222714   4.425  10.246   7.487
40273SOL     OW22715   3.053  10.838   4.192
40273SOL    HW122716   3.017  10.907   4.248
40273SOL    HW222717   3.137  10.872   4.163
40274SOL     OW22718   9.267   4.337   8.883
40274SOL    HW122719   9.233   4.254   8.917
40274SOL    HW222720   9.341   4.358   8.940
40275SOL     OW22721  12.793   4.596  12.415
40275SOL    HW122722  12.793   4.671  12.475
40275SOL    HW222723  12.706   4.597  12.376
40276SOL     OW22724  14.816   8.813   9.228
40276SOL    HW122725  14.793   8.888   9.173
40276SOL    HW222726   0.035   8.827   9.251
40277SOL     OW22727   4.535  11.778   8.946
40277SOL    HW122728   4.572  11.860   8.915
40277SOL    HW222729   4.469  11.754   8.881
40278SOL     OW22730   6.860   3.357   8.566
40278SOL    HW122731   6.824   3.305   8.495
40278SOL    HW222732   6.826   3.445   8.551
40279SOL     OW22733   9.138  12.044   7.378
40279SOL    HW122734   9.185  11.979   7.326
40279SOL    HW222735   9.207  12.088   7.429
40280SOL     OW22736   1.777   1.170   5.825
40280SOL    HW122737   1.741   1.233   5.762
40280SOL    HW222738   1.871   1.179   5.817
40281SOL     OW22739   1.375   5.732  14.003
40281SOL    HW122740   1.453   5.758  13.954
40281SOL    HW222741   1.362   5.640  13.980
40282SOL     OW22742   0.490   5.942   7.064
40282SOL    HW122743   0.500   6.037   7.060
40282SOL    HW222744   0.396   5.927   7.056
40283SOL     OW22745   9.900   8.243  14.297
40283SOL    HW122746   9.824   8.250  14.240
40283SOL    HW222747   9.864   8.245  14.385
40284SOL     OW22748   3.739   8.799   7.565
40284SOL    HW122749   3.655   8.836   7.539
40284SOL    HW222750   3.720   8.748   7.644
40285SOL     OW22751   4.080  11.450   6.664
40285SOL    HW122752   4.005  11.500   6.697
40285SOL    HW222753   4.052  11.420   6.578
40286SOL     OW22754  11.848   6.942   2.448
40286SOL    HW122755  11.769   6.888   2.447
40286SOL    HW222756  11.856   6.973   2.357
40287SOL     OW22757  12.267  12.655   0.556
40287SOL    HW122758  12.314  12.717   0.612
40287SOL    HW222759  12.230  12.591   0.617
40288SOL     OW22760  11.981   2.249   3.896
40288SOL    HW122761  11.932   2.325   3.864
40288SOL    HW222762  11.915   2.194   3.937
40289SOL     OW22763   3.581   4.011   0.190
40289SOL    HW122764   3.641   3.965   0.131
40289SOL    HW222765   3.638   4.054   0.253
40290SOL     OW22766   1.720   0.112   5.902
40290SOL    HW122767   1.706   0.166   5.980
40290SOL    HW222768   1.810   0.080   5.911
40291SOL     OW22769  12.119   4.213  11.910
40291SOL    HW122770  12.104   4.165  11.829
40291SOL    HW222771  12.085   4.155  11.979
40292SOL     OW22772   6.469   8.968  11.369
40292SOL    HW122773   6.516   8.957  11.451
40292SOL    HW222774   6.397   8.905  11.373
40293SOL     OW22775   7.310  12.788   6.324
40293SOL    HW122776   7.307  12.720   6.256
40293SOL    HW222777   7.301  12.739   6.406
40294SOL     OW22778   9.335  11.268  14.209
40294SOL    HW122779   9.302  11.303  14.292
40294SOL    HW222780   9.408  11.211  14.235
40295SOL     OW22781   0.814   1.543  12.495
40295SOL    HW122782   0.909   1.542  12.481
40295SOL    HW222783   0.780   1.598  12.425
40296SOL     OW22784   5.208   1.586  12.761
40296SOL    HW122785   5.262   1.653  12.803
40296SOL    HW222786   5.232   1.590  12.669
40297SOL     OW22787  13.313  12.123   0.805
40297SOL    HW122788  13.300  12.081   0.890
40297SOL    HW222789  13.363  12.059   0.754
40298SOL     OW22790   3.070  12.959   4.060
40298SOL    HW122791   3.099  13.024   3.996
40298SOL    HW222792   3.045  12.883   4.007
40299SOL     OW22793   7.903   3.742  13.982
40299SOL    HW122794   7.818   3.705  14.004
40299SOL    HW222795   7.885   3.806  13.913
40300SOL     OW22796   4.438  13.290  11.549
40300SOL    HW122797   4.467  13.288  11.640
40300SOL    HW222798   4.470  13.373  11.514
40301SOL     OW22799   9.500   6.114   3.367
40301SOL    HW122800   9.492   6.206   3.341
40301SOL    HW222801   9.535   6.117   3.456
40302SOL     OW22802   0.465   7.692  11.010
40302SOL    HW122803   0.473   7.669  11.102
40302SOL    HW222804   0.442   7.610  10.967
40303SOL     OW22805  14.185   0.402  12.317
40303SOL    HW122806  14.146   0.489  12.308
40303SOL    HW222807  14.145   0.366  12.396
40304SOL     OW22808   8.565   3.513  11.108
40304SOL    HW122809   8.558   3.503  11.013
40304SOL    HW222810   8.631   3.447  11.133
40305SOL     OW22811   6.648   8.257   0.786
40305SOL    HW122812   6.675   8.330   0.731
40305SOL    HW222813   6.572   8.290   0.835
40306SOL     OW22814  10.203  14.781   0.742
40306SOL    HW122815  10.264  14.818   0.806
40306SOL    HW222816  10.116  14.799   0.779
40307SOL     OW22817  10.831   2.820   4.151
40307SOL    HW122818  10.855   2.727   4.158
40307SOL    HW222819  10.821   2.849   4.241
40308SOL     OW22820  11.148   3.230  12.234
40308SOL    HW122821  11.124   3.211  12.325
40308SOL    HW222822  11.085   3.179  12.182
40309SOL     OW22823   3.338  11.678   2.725
40309SOL    HW122824   3.255  11.704   2.685
40309SOL    HW222825   3.358  11.594   2.685
40310SOL     OW22826   6.840  14.468  14.381
40310SOL    HW122827   6.753  14.506  14.396
40310SOL    HW222828   6.839  14.443  14.288
40311SOL     OW22829   0.290  11.805   7.645
40311SOL    HW122830   0.200  11.813   7.675
40311SOL    HW222831   0.328  11.736   7.699
40312SOL     OW22832   0.481  11.259   4.182
40312SOL    HW122833   0.557  11.263   4.240
40312SOL    HW222834   0.461  11.351   4.162
40313SOL     OW22835  14.105   7.695  14.517
40313SOL    HW122836  14.136   7.624  14.461
40313SOL    HW222837  14.013   7.677  14.530
40314SOL     OW22838   8.630   5.775  12.085
40314SOL    HW122839   8.560   5.833  12.053
40314SOL    HW222840   8.621   5.778  12.180
40315SOL     OW22841   0.087   5.168   8.907
40315SOL    HW122842  14.871   5.201   8.921
40315SOL    HW222843   0.075   5.082   8.867
40316SOL     OW22844   9.352   2.208   2.765
40316SOL    HW122845   9.347   2.277   2.831
40316SOL    HW222846   9.269   2.162   2.772
40317SOL     OW22847  10.455  10.432   7.181
40317SOL    HW122848  10.496  10.359   7.134
40317SOL    HW222849  10.399  10.474   7.116
40318SOL     OW22850   0.536   4.845  11.799
40318SOL    HW122851   0.628   4.857  11.778
40318SOL    HW222852   0.489   4.887  11.726
40319SOL     OW22853   6.428   0.081   1.235
40319SOL    HW122854   6.354   0.029   1.266
40319SOL    HW222855   6.433   0.155   1.295
40320SOL     OW22856   5.379  12.141  11.473
40320SOL    HW122857   5.340  12.140  11.560
40320SOL    HW222858   5.303  12.140  11.413
40321SOL     OW22859   1.162  12.608   3.581
40321SOL    HW122860   1.148  12.581   3.490
40321SOL    HW222861   1.188  12.527   3.625
40322SOL     OW22862   3.234  14.318  14.119
40322SOL    HW122863   3.145  14.350  14.130
40322SOL    HW222864   3.268  14.365  14.043
40323SOL     OW22865   5.658  11.346   5.418
40323SOL    HW122866   5.566  11.336   5.391
40323SOL    HW222867   5.677  11.267   5.468
40324SOL     OW22868   5.986  11.229   7.292
40324SOL    HW122869   5.987  11.254   7.200
40324SOL    HW222870   6.025  11.304   7.338
40325SOL     OW22871   7.772   1.770  10.455
40325SOL    HW122872   7.857   1.778  10.499
40325SOL    HW222873   7.780   1.692  10.401
40326SOL     OW22874   0.235   8.380   5.422
40326SOL    HW122875   0.268   8.470   5.425
40326SOL    HW222876   0.198   8.365   5.509
40327SOL     OW22877   0.350   7.800  14.758
40327SOL    HW122878   0.361   7.867  14.691
40327SOL    HW222879   0.417   7.820  14.824
40328SOL     OW22880   8.860  11.587   2.657
40328SOL    HW122881   8.902  11.509   2.694
40328SOL    HW222882   8.868  11.653   2.726
40329SOL     OW22883  10.903   0.585   6.789
40329SOL    HW122884  10.975   0.523   6.776
40329SOL    HW222885  10.837   0.537   6.838
40330SOL     OW22886   7.925   6.890   0.868
40330SOL    HW122887   7.997   6.952   0.878
40330SOL    HW222888   7.969   6.806   0.850
40331SOL     OW22889  10.268   4.822   2.794
40331SOL    HW122890  10.323   4.897   2.772
40331SOL    HW222891  10.178   4.851   2.777
40332SOL     OW22892   1.142   3.847   3.708
40332SOL    HW122893   1.048   3.865   3.715
40332SOL    HW222894   1.169   3.894   3.629
40333SOL     OW22895  12.721   3.287   3.107
40333SOL    HW122896  12.814   3.270   3.116
40333SOL    HW222897  12.682   3.200   3.094
40334SOL     OW22898   2.476   8.596  10.551
40334SOL    HW122899   2.483   8.599  10.455
40334SOL    HW222900   2.562   8.565  10.580
40335SOL     OW22901   2.358   0.623   5.652
40335SOL    HW122902   2.340   0.536   5.618
40335SOL    HW222903   2.293   0.679   5.611
40336SOL     OW22904   6.001   3.334   7.611
40336SOL    HW122905   6.072   3.330   7.675
40336SOL    HW222906   5.994   3.426   7.588
40337SOL     OW22907  13.456   5.522  14.456
40337SOL    HW122908  13.509   5.522  14.376
40337SOL    HW222909  13.398   5.447  14.447
40338SOL     OW22910   3.333  10.499   0.362
40338SOL    HW122911   3.264  10.519   0.298
40338SOL    HW222912   3.324  10.405   0.378
40339SOL     OW22913   6.950   2.881   2.457
40339SOL    HW122914   6.958   2.924   2.542
40339SOL    HW222915   6.950   2.952   2.393
40340SOL     OW22916   0.827  11.155   1.218
40340SOL    HW122917   0.759  11.221   1.204
40340SOL    HW222918   0.891  11.171   1.148
40341SOL     OW22919   7.425   5.492   5.899
40341SOL    HW122920   7.406   5.577   5.859
40341SOL    HW222921   7.514   5.472   5.870
40342SOL     OW22922   9.363  10.398   8.566
40342SOL    HW122923   9.302  10.341   8.612
40342SOL    HW222924   9.442  10.345   8.554
40343SOL     OW22925   4.068   4.998  11.561
40343SOL    HW122926   4.156   4.974  11.591
40343SOL    HW222927   4.009   4.946  11.614
40344SOL     OW22928   3.602   6.378  11.739
40344SOL    HW122929   3.607   6.326  11.660
40344SOL    HW222930   3.510   6.373  11.766
40345SOL     OW22931  10.257  10.445   5.415
40345SOL    HW122932  10.232  10.460   5.506
40345SOL    HW222933  10.270  10.532   5.378
40346SOL     OW22934  11.339   7.998   8.354
40346SOL    HW122935  11.399   7.949   8.410
40346SOL    HW222936  11.297   7.931   8.300
40347SOL     OW22937   1.209   4.701   1.931
40347SOL    HW122938   1.175   4.774   1.879
40347SOL    HW222939   1.295   4.683   1.894
40348SOL     OW22940   9.930  14.066  12.050
40348SOL    HW122941   9.917  13.979  12.013
40348SOL    HW222942   9.985  14.111  11.986
40349SOL     OW22943  14.479   9.893   5.039
40349SOL    HW122944  14.392   9.897   5.000
40349SOL    HW222945  14.539   9.908   4.966
40350SOL     OW22946  13.836  11.339   4.400
40350SOL    HW122947  13.874  11.334   4.487
40350SOL    HW222948  13.888  11.406   4.355
40351SOL     OW22949   6.521  13.398   3.711
40351SOL    HW122950   6.438  13.356   3.688
40351SOL    HW222951   6.515  13.411   3.806
40352SOL     OW22952   2.017   0.462   3.202
40352SOL    HW122953   2.060   0.412   3.132
40352SOL    HW222954   1.925   0.436   3.197
40353SOL     OW22955   6.477   5.663   8.254
40353SOL    HW122956   6.500   5.659   8.161
40353SOL    HW222957   6.430   5.746   8.263
40354SOL     OW22958  10.601   8.773  10.128
40354SOL    HW122959  10.680   8.823  10.149
40354SOL    HW222960  10.559   8.760  10.213
40355SOL     OW22961  14.491  10.583   3.193
40355SOL    HW122962  14.405  10.541   3.185
40355SOL    HW222963  14.476  10.661   3.246
40356SOL     OW22964  13.588   6.504   3.301
40356SOL    HW122965  13.558   6.415   3.282
40356SOL    HW222966  13.679   6.492   3.330
40357SOL     OW22967   4.224   1.787   6.149
40357SOL    HW122968   4.174   1.862   6.180
40357SOL    HW222969   4.157   1.723   6.122
40358SOL     OW22970   4.950   8.034   4.605
40358SOL    HW122971   4.940   7.944   4.633
40358SOL    HW222972   5.011   8.029   4.531
40359SOL     OW22973   7.751  14.249   6.239
40359SOL    HW122974   7.714  14.213   6.320
40359SOL    HW222975   7.732  14.343   6.245
40360SOL     OW22976  12.473   0.664   5.584
40360SOL    HW122977  12.479   0.754   5.551
40360SOL    HW222978  12.552   0.652   5.637
40361SOL     OW22979   6.333   2.169   6.624
40361SOL    HW122980   6.409   2.185   6.679
40361SOL    HW222981   6.345   2.079   6.591
40362SOL     OW22982   1.150  13.179  12.543
40362SOL    HW122983   1.163  13.252  12.483
40362SOL    HW222984   1.174  13.215  12.629
40363SOL     OW22985   5.592   3.574   1.899
40363SOL    HW122986   5.525   3.509   1.877
40363SOL    HW222987   5.563   3.613   1.981
40364SOL     OW22988   2.007   4.836   1.803
40364SOL    HW122989   1.944   4.859   1.871
40364SOL    HW222990   2.079   4.794   1.849
40365SOL     OW22991   8.125   3.831   7.942
40365SOL    HW122992   8.131   3.923   7.918
40365SOL    HW222993   8.036   3.805   7.918
40366SOL     OW22994  12.533  11.931  14.491
40366SOL    HW122995  12.586  11.917  14.569
40366SOL    HW222996  12.581  11.997  14.440
40367SOL     OW22997   9.800   7.339   6.191
40367SOL    HW122998   9.716   7.368   6.156
40367SOL    HW222999   9.822   7.402   6.259
40368SOL     OW23000   7.585   6.116  10.533
40368SOL    HW123001   7.536   6.045  10.574
40368SOL    HW223002   7.656   6.072  10.486
40369SOL     OW23003   5.369   8.523   0.398
40369SOL    HW123004   5.294   8.537   0.340
40369SOL    HW223005   5.432   8.476   0.344
40370SOL     OW23006   2.547  10.442   8.860
40370SOL    HW123007   2.545  10.358   8.814
40370SOL    HW223008   2.458  10.477   8.851
40371SOL     OW23009   5.907   4.354  11.498
40371SOL    HW123010   5.819   4.382  11.524
40371SOL    HW223011   5.948   4.328  11.581
40372SOL     OW23012  13.274  10.252  13.626
40372SOL    HW123013  13.334  10.249  13.701
40372SOL    HW223014  13.188  10.230  13.663
40373SOL     OW23015   2.999   4.108   2.074
40373SOL    HW123016   3.066   4.069   2.019
40373SOL    HW223017   3.030   4.197   2.091
40374SOL     OW23018   7.861  12.852   0.165
40374SOL    HW123019   7.782  12.809   0.197
40374SOL    HW223020   7.924  12.843   0.237
40375SOL     OW23021   4.750   3.538  11.109
40375SOL    HW123022   4.830   3.511  11.065
40375SOL    HW223023   4.778   3.604  11.172
40376SOL     OW23024   4.900   7.794   4.736
40376SOL    HW123025   4.881   7.857   4.805
40376SOL    HW223026   4.825   7.798   4.678
40377SOL     OW23027   2.296   5.724  11.375
40377SOL    HW123028   2.292   5.810  11.333
40377SOL    HW223029   2.242   5.733  11.453
40378SOL     OW23030   8.057   5.333   8.842
40378SOL    HW123031   8.077   5.251   8.796
40378SOL    HW223032   8.119   5.335   8.915
40379SOL     OW23033   4.057  13.119   0.140
40379SOL    HW123034   3.966  13.141   0.160
40379SOL    HW223035   4.101  13.120   0.226
40380SOL     OW23036  14.277   1.482   7.412
40380SOL    HW123037  14.182   1.479   7.403
40380SOL    HW223038  14.297   1.573   7.432
40381SOL     OW23039  12.649   5.783  13.411
40381SOL    HW123040  12.721   5.723  13.390
40381SOL    HW223041  12.572   5.727  13.414
40382SOL     OW23042   2.714   4.893   7.018
40382SOL    HW123043   2.753   4.965   6.968
40382SOL    HW223044   2.663   4.937   7.086
40383SOL     OW23045   4.901   5.893   7.421
40383SOL    HW123046   4.938   5.805   7.424
40383SOL    HW223047   4.824   5.889   7.478
40384SOL     OW23048   8.931   2.587  12.217
40384SOL    HW123049   8.914   2.633  12.134
40384SOL    HW223050   8.890   2.643  12.283
40385SOL     OW23051  14.410   9.292   8.515
40385SOL    HW123052  14.389   9.250   8.431
40385SOL    HW223053  14.377   9.381   8.506
40386SOL     OW23054   3.935   8.916  14.745
40386SOL    HW123055   3.887   8.853  14.692
40386SOL    HW223056   4.026   8.887  14.740
40387SOL     OW23057   6.059  12.510  12.078
40387SOL    HW123058   6.028  12.600  12.080
40387SOL    HW223059   6.110  12.504  11.997
40388SOL     OW23060  12.177   7.755   8.922
40388SOL    HW123061  12.268   7.784   8.926
40388SOL    HW223062  12.139   7.807   8.851
40389SOL     OW23063   6.718   0.614  14.735
40389SOL    HW123064   6.656   0.547  14.707
40389SOL    HW223065   6.759   0.578  14.814
40390SOL     OW23066  11.213   8.075   0.426
40390SOL    HW123067  11.265   8.114   0.355
40390SOL    HW223068  11.267   8.088   0.504
40391SOL     OW23069   1.566  11.070   6.074
40391SOL    HW123070   1.623  11.079   6.151
40391SOL    HW223071   1.489  11.122   6.095
40392SOL     OW23072   4.186   5.033   4.695
40392SOL    HW123073   4.257   4.997   4.748
40392SOL    HW223074   4.215   5.122   4.673
40393SOL     OW23075  12.604  12.919  11.829
40393SOL    HW123076  12.522  12.912  11.879
40393SOL    HW223077  12.634  13.008  11.844
40394SOL     OW23078   1.083  10.655   6.428
40394SOL    HW123079   1.131  10.627   6.506
40394SOL    HW223080   1.006  10.599   6.425
40395SOL     OW23081   2.795   8.994   0.880
40395SOL    HW123082   2.775   9.028   0.967
40395SOL    HW223083   2.808   8.900   0.894
40396SOL     OW23084   4.046  11.780  13.486
40396SOL    HW123085   4.011  11.743  13.567
40396SOL    HW223086   4.009  11.726  13.417
40397SOL     OW23087   4.115   9.335   7.281
40397SOL    HW123088   4.179   9.365   7.216
40397SOL    HW223089   4.057   9.410   7.295
40398SOL     OW23090   0.550   8.780   3.890
40398SOL    HW123091   0.527   8.851   3.830
40398SOL    HW223092   0.639   8.801   3.918
40399SOL     OW23093   0.200   2.538  10.702
40399SOL    HW123094   0.127   2.555  10.762
40399SOL    HW223095   0.220   2.623  10.664
40400SOL     OW23096   5.573   0.367   5.803
40400SOL    HW123097   5.561   0.461   5.816
40400SOL    HW223098   5.486   0.329   5.821
40401SOL     OW23099  11.095  12.391   9.407
40401SOL    HW123100  11.100  12.342   9.325
40401SOL    HW223101  11.132  12.332   9.473
40402SOL     OW23102  12.622   2.591  11.593
40402SOL    HW123103  12.572   2.652  11.539
40402SOL    HW223104  12.589   2.606  11.682
40403SOL     OW23105   1.934   1.242   3.572
40403SOL    HW123106   1.897   1.205   3.492
40403SOL    HW223107   1.934   1.337   3.557
40404SOL     OW23108  14.094  12.923   3.689
40404SOL    HW123109  14.107  12.837   3.651
40404SOL    HW223110  14.166  12.933   3.752
40405SOL     OW23111   3.340   3.121  12.467
40405SOL    HW123112   3.425   3.166  12.465
40405SOL    HW223113   3.355   3.041  12.417
40406SOL     OW23114   8.193   9.079   4.139
40406SOL    HW123115   8.219   9.093   4.230
40406SOL    HW223116   8.165   8.987   4.136
40407SOL     OW23117   2.396  11.252  14.810
40407SOL    HW123118   2.488  11.235  14.787
40407SOL    HW223119   2.381  11.199   0.015
40408SOL     OW23120   0.089   9.068   0.790
40408SOL    HW123121   0.178   9.098   0.810
40408SOL    HW223122   0.099   8.974   0.771
40409SOL     OW23123   6.545  10.585   7.765
40409SOL    HW123124   6.529  10.571   7.858
40409SOL    HW223125   6.618  10.647   7.762
40410SOL     OW23126  13.421  10.201   4.120
40410SOL    HW123127  13.469  10.121   4.143
40410SOL    HW223128  13.395  10.188   4.029
40411SOL     OW23129  11.765   8.596   7.902
40411SOL    HW123130  11.848   8.634   7.931
40411SOL    HW223131  11.734   8.547   7.978
40412SOL     OW23132   0.383  11.639   7.822
40412SOL    HW123133   0.449  11.573   7.803
40412SOL    HW223134   0.307  11.590   7.851
40413SOL     OW23135   0.421  11.894  13.096
40413SOL    HW123136   0.431  11.989  13.089
40413SOL    HW223137   0.484  11.858  13.035
40414SOL     OW23138   9.045   5.340   4.317
40414SOL    HW123139   8.977   5.368   4.378
40414SOL    HW223140   9.035   5.245   4.311
40415SOL     OW23141   4.707  14.804   8.796
40415SOL    HW123142   4.696   0.018   8.756
40415SOL    HW223143   4.764  14.819   8.871
40416SOL     OW23144   4.908   7.412   7.742
40416SOL    HW123145   4.841   7.474   7.714
40416SOL    HW223146   4.863   7.328   7.746
40417SOL     OW23147   2.959  14.622   0.812
40417SOL    HW123148   2.892  14.633   0.745
40417SOL    HW223149   2.934  14.543   0.860
40418SOL     OW23150  11.249   3.107  11.466
40418SOL    HW123151  11.236   3.028  11.414
40418SOL    HW223152  11.288   3.170  11.405
40419SOL     OW23153   7.220   5.687   0.669
40419SOL    HW123154   7.261   5.772   0.686
40419SOL    HW223155   7.257   5.628   0.735
40420SOL     OW23156  13.978   0.585   6.183
40420SOL    HW123157  13.899   0.638   6.176
40420SOL    HW223158  13.979   0.554   6.273
40421SOL     OW23159  14.706   9.885   4.866
40421SOL    HW123160  14.730   9.821   4.798
40421SOL    HW223161  14.789   9.907   4.908
40422SOL     OW23162   4.636   1.675   4.843
40422SOL    HW123163   4.554   1.721   4.860
40422SOL    HW223164   4.642   1.609   4.911
40423SOL     OW23165   2.550   8.685   1.709
40423SOL    HW123166   2.459   8.686   1.738
40423SOL    HW223167   2.566   8.775   1.679
40424SOL     OW23168   7.945  12.874  13.988
40424SOL    HW123169   8.023  12.911  13.945
40424SOL    HW223170   7.915  12.943  14.047
40425SOL     OW23171  10.117   9.772   0.445
40425SOL    HW123172  10.068   9.746   0.523
40425SOL    HW223173  10.099   9.703   0.381
40426SOL     OW23174  10.216   1.043   1.122
40426SOL    HW123175  10.146   0.989   1.158
40426SOL    HW223176  10.272   0.982   1.074
40427SOL     OW23177   4.069  12.699  11.817
40427SOL    HW123178   4.010  12.694  11.742
40427SOL    HW223179   4.026  12.646  11.884
40428SOL     OW23180   8.579   8.343  11.959
40428SOL    HW123181   8.583   8.274  12.026
40428SOL    HW223182   8.598   8.424  12.007
40429SOL     OW23183  10.043   2.045   3.438
40429SOL    HW123184  10.067   2.093   3.359
40429SOL    HW223185  10.089   2.090   3.509
40430SOL     OW23186  13.468   1.777   5.118
40430SOL    HW123187  13.437   1.698   5.072
40430SOL    HW223188  13.495   1.836   5.047
40431SOL     OW23189   1.050   1.949   9.347
40431SOL    HW123190   1.082   1.876   9.400
40431SOL    HW223191   1.107   1.950   9.270
40432SOL     OW23192   6.880   0.804   1.340
40432SOL    HW123193   6.822   0.875   1.311
40432SOL    HW223194   6.881   0.812   1.435
40433SOL     OW23195   2.872   0.930   5.327
40433SOL    HW123196   2.803   0.990   5.301
40433SOL    HW223197   2.844   0.896   5.411
40434SOL     OW23198   6.696   2.812   2.774
40434SOL    HW123199   6.768   2.749   2.775
40434SOL    HW223200   6.650   2.794   2.692
40435SOL     OW23201  14.701   4.420   3.326
40435SOL    HW123202  14.620   4.470   3.335
40435SOL    HW223203  14.702   4.363   3.403
40436SOL     OW23204   0.076  11.795   4.432
40436SOL    HW123205   0.077  11.891   4.427
40436SOL    HW223206   0.070  11.766   4.341
40437SOL     OW23207   4.446   5.312  13.087
40437SOL    HW123208   4.379   5.377  13.065
40437SOL    HW223209   4.440   5.247  13.017
40438SOL     OW23210   8.508  10.494   7.598
40438SOL    HW123211   8.590  10.543   7.609
40438SOL    HW223212   8.469  10.530   7.518
40439SOL     OW23213   5.997   2.700  13.548
40439SOL    HW123214   5.981   2.645  13.472
40439SOL    HW223215   6.089   2.724  13.541
40440SOL     OW23216   2.362   5.234   0.801
40440SOL    HW123217   2.420   5.311   0.796
40440SOL    HW223218   2.319   5.242   0.886
40441SOL     OW23219   0.761  13.236   9.310
40441SOL    HW123220   0.801  13.322   9.301
40441SOL    HW223221   0.670  13.255   9.336
40442SOL     OW23222  11.547  11.078   0.594
40442SOL    HW123223  11.608  11.139   0.637
40442SOL    HW223224  11.594  11.050   0.515
40443SOL     OW23225   6.092  14.823   1.132
40443SOL    HW123226   6.150   0.019   1.166
40443SOL    HW223227   6.146  14.777   1.068
40444SOL     OW23228  12.364   9.224   2.493
40444SOL    HW123229  12.369   9.128   2.498
40444SOL    HW223230  12.345   9.242   2.401
40445SOL     OW23231   1.981   4.324  12.294
40445SOL    HW123232   1.992   4.348  12.386
40445SOL    HW223233   1.887   4.331  12.278
40446SOL     OW23234   9.640   2.796   7.926
40446SOL    HW123235   9.637   2.778   8.020
40446SOL    HW223236   9.667   2.887   7.919
40447SOL     OW23237   8.061  10.012   0.264
40447SOL    HW123238   8.153  10.000   0.286
40447SOL    HW223239   8.061  10.059   0.181
40448SOL     OW23240  14.411   6.933   1.946
40448SOL    HW123241  14.457   6.982   1.877
40448SOL    HW223242  14.371   6.860   1.900
40449SOL     OW23243   6.252   6.478  11.923
40449SOL    HW123244   6.184   6.438  11.869
40449SOL    HW223245   6.329   6.423  11.909
40450SOL     OW23246   1.147   8.374  11.823
40450SOL    HW123247   1.086   8.300  11.834
40450SOL    HW223248   1.194   8.354  11.743
40451SOL     OW23249  11.420  13.366   0.841
40451SOL    HW123250  11.438  13.399   0.753
40451SOL    HW223251  11.467  13.283   0.847
40452SOL     OW23252   7.082   0.655  14.734
40452SOL    HW123253   7.025   0.731  14.726
40452SOL    HW223254   7.146   0.665  14.664
40453SOL     OW23255   4.477   0.905  14.556
40453SOL    HW123256   4.480   0.989  14.601
40453SOL    HW223257   4.489   0.926  14.464
40454SOL     OW23258   5.856   4.836   6.340
40454SOL    HW123259   5.949   4.833   6.359
40454SOL    HW223260   5.849   4.815   6.247
40455SOL     OW23261   8.301  11.390  11.577
40455SOL    HW123262   8.256  11.312  11.547
40455SOL    HW223263   8.384  11.359  11.611
40456SOL     OW23264   4.103   3.971   2.624
40456SOL    HW123265   4.158   4.028   2.571
40456SOL    HW223266   4.042   4.031   2.668
40457SOL     OW23267   6.140  11.830   9.213
40457SOL    HW123268   6.141  11.739   9.243
40457SOL    HW223269   6.130  11.882   9.293
40458SOL     OW23270   8.195   2.140   4.728
40458SOL    HW123271   8.125   2.075   4.726
40458SOL    HW223272   8.154   2.220   4.760
40459SOL     OW23273   0.730   2.400   7.504
40459SOL    HW123274   0.713   2.490   7.531
40459SOL    HW223275   0.643   2.364   7.487
40460SOL     OW23276   3.157   0.644   0.674
40460SOL    HW123277   3.091   0.594   0.721
40460SOL    HW223278   3.209   0.577   0.627
40461SOL     OW23279   3.291   6.382   0.804
40461SOL    HW123280   3.225   6.357   0.869
40461SOL    HW223281   3.349   6.442   0.850
40462SOL     OW23282   5.119  13.080   1.298
40462SOL    HW123283   5.112  13.168   1.335
40462SOL    HW223284   5.029  13.057   1.275
40463SOL     OW23285   7.708  11.436  13.521
40463SOL    HW123286   7.747  11.424  13.435
40463SOL    HW223287   7.667  11.351  13.541
40464SOL     OW23288  14.641   3.358   3.597
40464SOL    HW123289  14.584   3.373   3.521
40464SOL    HW223290  14.664   3.445   3.628
40465SOL     OW23291   0.198  11.317   7.398
40465SOL    HW123292   0.149  11.400   7.399
40465SOL    HW223293   0.146  11.258   7.452
40466SOL     OW23294  11.165   0.686  10.091
40466SOL    HW123295  11.076   0.655  10.112
40466SOL    HW223296  11.152   0.773  10.054
40467SOL     OW23297   7.219   3.333   3.511
40467SOL    HW123298   7.239   3.391   3.437
40467SOL    HW223299   7.192   3.392   3.581
40468SOL     OW23300   2.885   0.025   6.981
40468SOL    HW123301   2.813  14.870   7.039
40468SOL    HW223302   2.941  14.820   6.975
40469SOL     OW23303   4.896   3.727   6.820
40469SOL    HW123304   4.853   3.811   6.837
40469SOL    HW223305   4.932   3.736   6.732
40470SOL     OW23306   7.435   6.697   9.860
40470SOL    HW123307   7.516   6.672   9.817
40470SOL    HW223308   7.373   6.627   9.841
40471SOL     OW23309  10.037   6.611   8.763
40471SOL    HW123310  10.088   6.569   8.832
40471SOL    HW223311  10.077   6.698   8.753
40472SOL     OW23312  12.699   2.681  10.801
40472SOL    HW123313  12.761   2.747  10.771
40472SOL    HW223314  12.618   2.701  10.755
40473SOL     OW23315  12.216  12.161   2.721
40473SOL    HW123316  12.258  12.214   2.788
40473SOL    HW223317  12.218  12.072   2.756
40474SOL     OW23318  10.095   5.929   5.806
40474SOL    HW123319  10.148   6.004   5.833
40474SOL    HW223320  10.148   5.853   5.828
40475SOL     OW23321  11.914   5.317   9.217
40475SOL    HW123322  11.883   5.240   9.265
40475SOL    HW223323  11.980   5.282   9.156
40476SOL     OW23324   0.857   0.735  12.300
40476SOL    HW123325   0.865   0.675  12.226
40476SOL    HW223326   0.927   0.710  12.359
40477SOL     OW23327   5.769  11.304  10.456
40477SOL    HW123328   5.848  11.297  10.403
40477SOL    HW223329   5.699  11.267  10.402
40478SOL     OW23330   9.344   8.534   9.476
40478SOL    HW123331   9.284   8.462   9.497
40478SOL    HW223332   9.289   8.598   9.430
40479SOL     OW23333   8.113   5.622   9.976
40479SOL    HW123334   8.055   5.546   9.968
40479SOL    HW223335   8.166   5.602  10.053
40480SOL     OW23336   8.663   7.492   6.874
40480SOL    HW123337   8.634   7.510   6.963
40480SOL    HW223338   8.634   7.402   6.857
40481SOL     OW23339  11.935  11.730  10.946
40481SOL    HW123340  11.871  11.751  11.014
40481SOL    HW223341  12.016  11.771  10.976
40482SOL     OW23342  12.002   8.807  10.959
40482SOL    HW123343  12.018   8.715  10.937
40482SOL    HW223344  11.908   8.812  10.973
40483SOL     OW23345  12.424   1.345   6.951
40483SOL    HW123346  12.370   1.390   6.886
40483SOL    HW223347  12.381   1.363   7.034
40484SOL     OW23348   1.385  10.560  14.838
40484SOL    HW123349   1.313  10.595  14.787
40484SOL    HW223350   1.350  10.482   0.009
40485SOL     OW23351   0.104   0.334   9.242
40485SOL    HW123352   0.166   0.405   9.229
40485SOL    HW223353   0.078   0.308   9.154
40486SOL     OW23354  12.669   3.704   3.061
40486SOL    HW123355  12.744   3.751   3.025
40486SOL    HW223356  12.660   3.736   3.150
40487SOL     OW23357   8.750  12.664  14.708
40487SOL    HW123358   8.667  12.698  14.740
40487SOL    HW223359   8.727  12.582  14.664
40488SOL     OW23360   9.998  13.753   0.519
40488SOL    HW123361   9.954  13.686   0.468
40488SOL    HW223362  10.068  13.707   0.566
40489SOL     OW23363   6.886  13.044   2.198
40489SOL    HW123364   6.807  13.096   2.213
40489SOL    HW223365   6.867  12.993   2.119
40490SOL     OW23366   9.516  10.760   2.176
40490SOL    HW123367   9.606  10.750   2.145
40490SOL    HW223368   9.518  10.726   2.266
40491SOL     OW23369   2.539   8.231  10.130
40491SOL    HW123370   2.495   8.265  10.208
40491SOL    HW223371   2.540   8.136  10.144
40492SOL     OW23372   8.633   8.434  10.725
40492SOL    HW123373   8.641   8.342  10.700
40492SOL    HW223374   8.546   8.442  10.763
40493SOL     OW23375  13.135  13.916  11.446
40493SOL    HW123376  13.067  13.928  11.381
40493SOL    HW223377  13.162  14.005  11.471
40494SOL     OW23378  13.955   0.756  14.823
40494SOL    HW123379  14.050   0.746  14.815
40494SOL    HW223380  13.940   0.771   0.044
40495SOL     OW23381   4.285  11.147  14.037
40495SOL    HW123382   4.267  11.123  14.128
40495SOL    HW223383   4.378  11.125  14.025
40496SOL     OW23384   7.229   9.019  10.273
40496SOL    HW123385   7.303   9.067  10.235
40496SOL    HW223386   7.211   8.948  10.211
40497SOL     OW23387   7.880   4.758  13.996
40497SOL    HW123388   7.831   4.819  14.051
40497SOL    HW223389   7.840   4.766  13.909
40498SOL     OW23390   9.129  11.821   1.560
40498SOL    HW123391   9.131  11.743   1.504
40498SOL    HW223392   9.184  11.797   1.635
40499SOL     OW23393   0.035  13.591   5.651
40499SOL    HW123394   0.011  13.664   5.709
40499SOL    HW223395  14.824  13.551   5.627
40500SOL     OW23396   5.576  10.646  13.460
40500SOL    HW123397   5.514  10.665  13.531
40500SOL    HW223398   5.662  10.659  13.499
40501SOL     OW23399   1.843  13.304  10.814
40501SOL    HW123400   1.879  13.282  10.900
40501SOL    HW223401   1.918  13.304  10.755
40502SOL     OW23402   9.062   2.866  13.229
40502SOL    HW123403   9.057   2.859  13.324
40502SOL    HW223404   8.971   2.869  13.199
40503SOL     OW23405   3.022  13.277  14.286
40503SOL    HW123406   3.106  13.312  14.316
40503SOL    HW223407   2.991  13.341  14.223
40504SOL     OW23408  10.403   8.482   5.060
40504SOL    HW123409  10.464   8.430   5.008
40504SOL    HW223410  10.446   8.492   5.145
40505SOL     OW23411   8.978   1.647  12.522
40505SOL    HW123412   9.047   1.582  12.533
40505SOL    HW223413   8.908   1.600  12.476
40506SOL     OW23414  14.569  11.849  14.592
40506SOL    HW123415  14.644  11.888  14.547
40506SOL    HW223416  14.521  11.923  14.629
40507SOL     OW23417   7.416  10.038  13.818
40507SOL    HW123418   7.493   9.997  13.858
40507SOL    HW223419   7.350  10.038  13.887
40508SOL     OW23420   9.202   2.713   7.720
40508SOL    HW123421   9.143   2.638   7.717
40508SOL    HW223422   9.272   2.686   7.779
40509SOL     OW23423  14.579  13.525  12.639
40509SOL    HW123424  14.625  13.552  12.718
40509SOL    HW223425  14.487  13.519  12.665
40510SOL     OW23426   6.883   6.338   0.547
40510SOL    HW123427   6.848   6.315   0.461
40510SOL    HW223428   6.954   6.399   0.529
40511SOL     OW23429   2.016   3.963   9.980
40511SOL    HW123430   1.965   3.890  10.015
40511SOL    HW223431   1.960   4.001   9.912
40512SOL     OW23432   5.002  13.992  12.185
40512SOL    HW123433   4.913  14.027  12.181
40512SOL    HW223434   4.991  13.898  12.196
40513SOL     OW23435  10.620   9.673  13.973
40513SOL    HW123436  10.659   9.743  14.024
40513SOL    HW223437  10.619   9.706  13.883
40514SOL     OW23438  10.779  14.599   8.224
40514SOL    HW123439  10.723  14.559   8.290
40514SOL    HW223440  10.862  14.615   8.268
40515SOL     OW23441   4.040  14.553   0.558
40515SOL    HW123442   4.079  14.608   0.491
40515SOL    HW223443   4.031  14.467   0.517
40516SOL     OW23444  14.477   9.129   9.154
40516SOL    HW123445  14.515   9.180   9.083
40516SOL    HW223446  14.500   9.177   9.233
40517SOL     OW23447   7.138   4.313   3.612
40517SOL    HW123448   7.050   4.275   3.613
40517SOL    HW223449   7.130   4.392   3.665
40518SOL     OW23450   3.160   4.185   1.209
40518SOL    HW123451   3.127   4.223   1.290
40518SOL    HW223452   3.214   4.254   1.171
40519SOL     OW23453   9.884   3.092  14.794
40519SOL    HW123454   9.976   3.091  14.821
40519SOL    HW223455   9.881   3.153  14.721
40520SOL     OW23456   7.418  14.725   6.492
40520SOL    HW123457   7.493  14.671   6.519
40520SOL    HW223458   7.348  14.701   6.552
40521SOL     OW23459   7.643   8.408   1.412
40521SOL    HW123460   7.558   8.414   1.456
40521SOL    HW223461   7.666   8.498   1.391
40522SOL     OW23462   3.501   2.654   1.853
40522SOL    HW123463   3.491   2.725   1.790
40522SOL    HW223464   3.431   2.593   1.831
40523SOL     OW23465   0.988  14.217  14.487
40523SOL    HW123466   1.036  14.231  14.569
40523SOL    HW223467   0.970  14.306  14.454
40524SOL     OW23468   8.906   6.013   0.669
40524SOL    HW123469   8.907   5.945   0.736
40524SOL    HW223470   8.953   5.975   0.595
40525SOL     OW23471  14.702   5.298   8.326
40525SOL    HW123472  14.696   5.325   8.234
40525SOL    HW223473  14.748   5.370   8.369
40526SOL     OW23474   6.930   9.150   6.643
40526SOL    HW123475   6.838   9.166   6.663
40526SOL    HW223476   6.971   9.133   6.728
40527SOL     OW23477   4.452   1.648   7.588
40527SOL    HW123478   4.508   1.697   7.528
40527SOL    HW223479   4.386   1.608   7.532
40528SOL     OW23480  11.031  14.717   2.922
40528SOL    HW123481  11.088  14.695   2.996
40528SOL    HW223482  10.988  14.798   2.948
40529SOL     OW23483   3.421   7.282  13.839
40529SOL    HW123484   3.515   7.295  13.828
40529SOL    HW223485   3.394   7.234  13.761
40530SOL     OW23486  13.765  12.998  11.400
40530SOL    HW123487  13.836  12.936  11.381
40530SOL    HW223488  13.756  12.997  11.495
40531SOL     OW23489  10.549   2.122  13.228
40531SOL    HW123490  10.638   2.090  13.241
40531SOL    HW223491  10.559   2.199  13.171
40532SOL     OW23492   3.534  14.719  10.333
40532SOL    HW123493   3.575  14.802  10.358
40532SOL    HW223494   3.531  14.668  10.414
40533SOL     OW23495  10.984  14.730  13.796
40533SOL    HW123496  11.071  14.768  13.800
40533SOL    HW223497  10.975  14.699  13.705
40534SOL     OW23498   9.046   0.529  14.308
40534SOL    HW123499   8.979   0.496  14.368
40534SOL    HW223500   8.997   0.568  14.236
40535SOL     OW23501  10.243  12.347   2.193
40535SOL    HW123502  10.269  12.344   2.101
40535SOL    HW223503  10.320  12.318   2.241
40536SOL     OW23504   7.262   2.559  12.069
40536SOL    HW123505   7.182   2.508  12.060
40536SOL    HW223506   7.305   2.553  11.984
40537SOL     OW23507  14.455   1.219   6.104
40537SOL    HW123508  14.475   1.280   6.176
40537SOL    HW223509  14.432   1.276   6.031
40538SOL     OW23510   3.784   4.743   1.376
40538SOL    HW123511   3.760   4.800   1.450
40538SOL    HW223512   3.874   4.716   1.394
40539SOL     OW23513   3.407   8.400  11.058
40539SOL    HW123514   3.417   8.329  10.994
40539SOL    HW223515   3.486   8.396  11.111
40540SOL     OW23516   6.749   7.826   4.858
40540SOL    HW123517   6.834   7.830   4.903
40540SOL    HW223518   6.717   7.738   4.876
40541SOL     OW23519   3.525   2.601  14.123
40541SOL    HW123520   3.615   2.614  14.153
40541SOL    HW223521   3.491   2.689  14.110
40542SOL     OW23522   8.348  14.650  12.827
40542SOL    HW123523   8.417  14.633  12.892
40542SOL    HW223524   8.270  14.608  12.863
40543SOL     OW23525   6.466   1.585   1.127
40543SOL    HW123526   6.385   1.619   1.165
40543SOL    HW223527   6.524   1.573   1.202
40544SOL     OW23528   3.544  12.231  14.277
40544SOL    HW123529   3.562  12.325  14.283
40544SOL    HW223530   3.619  12.195  14.231
40545SOL     OW23531  14.239   0.303   4.483
40545SOL    HW123532  14.308   0.256   4.530
40545SOL    HW223533  14.284   0.379   4.445
40546SOL     OW23534   1.895   2.763   2.560
40546SOL    HW123535   1.836   2.724   2.496
40546SOL    HW223536   1.982   2.755   2.521
40547SOL     OW23537  11.937  12.938  12.805
40547SOL    HW123538  11.859  12.981  12.770
40547SOL    HW223539  12.009  12.995  12.778
40548SOL     OW23540   8.485  13.083   5.084
40548SOL    HW123541   8.523  13.091   4.996
40548SOL    HW223542   8.390  13.088   5.069
40549SOL     OW23543  13.374   1.081  11.056
40549SOL    HW123544  13.331   0.997  11.042
40549SOL    HW223545  13.393   1.114  10.968
40550SOL     OW23546   5.285  12.093  14.370
40550SOL    HW123547   5.309  12.122  14.282
40550SOL    HW223548   5.253  12.171  14.414
40551SOL     OW23549   4.224   7.163   8.734
40551SOL    HW123550   4.139   7.153   8.690
40551SOL    HW223551   4.232   7.257   8.750
40552SOL     OW23552  13.750   8.419  13.778
40552SOL    HW123553  13.838   8.400  13.809
40552SOL    HW223554  13.708   8.334  13.770
40553SOL     OW23555   3.083   9.234   9.842
40553SOL    HW123556   3.166   9.233   9.794
40553SOL    HW223557   3.068   9.142   9.865
40554SOL     OW23558  14.315  14.641   7.067
40554SOL    HW123559  14.334  14.581   7.139
40554SOL    HW223560  14.401  14.663   7.031
40555SOL     OW23561  12.502  11.946   8.547
40555SOL    HW123562  12.490  11.910   8.635
40555SOL    HW223563  12.477  11.874   8.489
40556SOL     OW23564   9.477   9.090   3.878
40556SOL    HW123565   9.502   9.086   3.970
40556SOL    HW223566   9.385   9.116   3.879
40557SOL     OW23567   2.919   4.449   7.471
40557SOL    HW123568   2.926   4.503   7.392
40557SOL    HW223569   2.986   4.484   7.530
40558SOL     OW23570  13.074   7.932   6.517
40558SOL    HW123571  13.038   7.886   6.441
40558SOL    HW223572  13.084   7.864   6.583
40559SOL     OW23573   6.741   8.982  12.137
40559SOL    HW123574   6.713   8.934  12.060
40559SOL    HW223575   6.665   9.035  12.162
40560SOL     OW23576   0.740   2.124   8.554
40560SOL    HW123577   0.720   2.109   8.647
40560SOL    HW223578   0.729   2.219   8.543
40561SOL     OW23579   0.937   3.808   8.106
40561SOL    HW123580   1.016   3.755   8.120
40561SOL    HW223581   0.876   3.748   8.063
40562SOL     OW23582  10.241   4.063   2.672
40562SOL    HW123583  10.218   3.975   2.639
40562SOL    HW223584  10.242   4.118   2.595
40563SOL     OW23585  12.732   0.494   2.049
40563SOL    HW123586  12.773   0.416   2.011
40563SOL    HW223587  12.767   0.567   2.000
40564SOL     OW23588   7.839  13.247  13.614
40564SOL    HW123589   7.831  13.342  13.619
40564SOL    HW223590   7.911  13.226  13.673
40565SOL     OW23591  11.390   2.158   9.448
40565SOL    HW123592  11.411   2.165   9.541
40565SOL    HW223593  11.471   2.180   9.402
40566SOL     OW23594   3.080   4.437   4.881
40566SOL    HW123595   3.027   4.462   4.957
40566SOL    HW223596   3.153   4.387   4.918
40567SOL     OW23597  12.575   4.645   6.045
40567SOL    HW123598  12.483   4.659   6.071
40567SOL    HW223599  12.589   4.708   5.975
40568SOL     OW23600   7.853   4.925  12.276
40568SOL    HW123601   7.875   4.921  12.369
40568SOL    HW223602   7.757   4.931  12.274
40569SOL     OW23603  10.354  11.521   7.378
40569SOL    HW123604  10.370  11.429   7.397
40569SOL    HW223605  10.402  11.538   7.297
40570SOL     OW23606   9.355   4.666   4.354
40570SOL    HW123607   9.383   4.582   4.319
40570SOL    HW223608   9.308   4.708   4.282
40571SOL     OW23609   6.180  10.573   9.936
40571SOL    HW123610   6.247  10.504   9.941
40571SOL    HW223611   6.121  10.554  10.008
40572SOL     OW23612   2.343   6.602   5.745
40572SOL    HW123613   2.289   6.544   5.691
40572SOL    HW223614   2.408   6.637   5.685
40573SOL     OW23615  13.808   3.809   8.592
40573SOL    HW123616  13.714   3.793   8.592
40573SOL    HW223617  13.846   3.735   8.544
40574SOL     OW23618  11.734  14.636   7.773
40574SOL    HW123619  11.670  14.578   7.814
40574SOL    HW223620  11.807  14.579   7.749
40575SOL     OW23621   8.817  12.649   6.470
40575SOL    HW123622   8.875  12.657   6.547
40575SOL    HW223623   8.831  12.559   6.439
40576SOL     OW23624   8.073   6.042  10.445
40576SOL    HW123625   8.118   6.018  10.364
40576SOL    HW223626   8.028   6.124  10.424
40577SOL     OW23627   0.218   9.722   4.990
40577SOL    HW123628   0.134   9.719   5.036
40577SOL    HW223629   0.213   9.649   4.928
40578SOL     OW23630  11.343  12.013  13.523
40578SOL    HW123631  11.281  12.073  13.482
40578SOL    HW223632  11.288  11.947  13.566
40579SOL     OW23633   0.910   7.118   5.270
40579SOL    HW123634   0.908   7.080   5.182
40579SOL    HW223635   0.825   7.095   5.308
40580SOL     OW23636  12.336   7.610  10.188
40580SOL    HW123637  12.408   7.636  10.130
40580SOL    HW223638  12.314   7.521  10.159
40581SOL     OW23639   0.775  12.902   8.834
40581SOL    HW123640   0.852  12.847   8.846
40581SOL    HW223641   0.762  12.945   8.918
40582SOL     OW23642   5.985  11.895  10.999
40582SOL    HW123643   6.039  11.899  11.078
40582SOL    HW223644   5.948  11.983  10.990
40583SOL     OW23645  10.491  13.736   9.910
40583SOL    HW123646  10.542  13.656   9.925
40583SOL    HW223647  10.513  13.793   9.984
40584SOL     OW23648  10.519  11.169  13.200
40584SOL    HW123649  10.541  11.136  13.113
40584SOL    HW223650  10.460  11.103  13.237
40585SOL     OW23651  14.841   2.463  11.755
40585SOL    HW123652  14.861   2.533  11.693
40585SOL    HW223653  14.821   2.509  11.837
40586SOL     OW23654  11.053   6.990  11.556
40586SOL    HW123655  11.068   7.036  11.638
40586SOL    HW223656  11.047   6.898  11.581
40587SOL     OW23657   4.610   4.900   9.250
40587SOL    HW123658   4.658   4.952   9.315
40587SOL    HW223659   4.576   4.825   9.300
40588SOL     OW23660   3.617   7.662  10.175
40588SOL    HW123661   3.579   7.619  10.098
40588SOL    HW223662   3.572   7.746  10.179
40589SOL     OW23663   9.647  12.950  13.653
40589SOL    HW123664   9.613  12.880  13.597
40589SOL    HW223665   9.635  12.916  13.742
40590SOL     OW23666   2.135   7.693   0.787
40590SOL    HW123667   2.135   7.600   0.764
40590SOL    HW223668   2.090   7.697   0.872
40591SOL     OW23669  10.920   7.101   5.843
40591SOL    HW123670  10.858   7.174   5.837
40591SOL    HW223671  10.971   7.107   5.762
40592SOL     OW23672   7.973   4.850   3.432
40592SOL    HW123673   7.993   4.810   3.517
40592SOL    HW223674   8.050   4.902   3.410
40593SOL     OW23675   7.448   0.723   2.922
40593SOL    HW123676   7.489   0.732   3.007
40593SOL    HW223677   7.380   0.657   2.935
40594SOL     OW23678   9.066   9.908   9.701
40594SOL    HW123679   9.083   9.869   9.787
40594SOL    HW223680   9.133   9.976   9.693
40595SOL     OW23681  10.967   7.247   1.402
40595SOL    HW123682  11.032   7.178   1.386
40595SOL    HW223683  10.980   7.271   1.494
40596SOL     OW23684  11.004   1.635   8.767
40596SOL    HW123685  11.079   1.656   8.711
40596SOL    HW223686  10.940   1.596   8.708
40597SOL     OW23687   5.583  13.519   9.231
40597SOL    HW123688   5.631  13.466   9.167
40597SOL    HW223689   5.623  13.606   9.225
40598SOL     OW23690   1.298  12.437  13.906
40598SOL    HW123691   1.345  12.398  13.833
40598SOL    HW223692   1.344  12.520  13.922
40599SOL     OW23693   5.489   2.721   9.352
40599SOL    HW123694   5.424   2.771   9.400
40599SOL    HW223695   5.446   2.698   9.270
40600SOL     OW23696   6.152   6.483   1.944
40600SOL    HW123697   6.226   6.512   1.997
40600SOL    HW223698   6.090   6.447   2.006
40601SOL     OW23699  13.372   6.481   4.913
40601SOL    HW123700  13.401   6.410   4.857
40601SOL    HW223701  13.298   6.445   4.961
40602SOL     OW23702   0.888  13.568   1.578
40602SOL    HW123703   0.892  13.479   1.613
40602SOL    HW223704   0.872  13.556   1.484
40603SOL     OW23705   0.904   3.252   3.475
40603SOL    HW123706   0.856   3.179   3.435
40603SOL    HW223707   0.995   3.238   3.448
40604SOL     OW23708   0.391  10.577   2.773
40604SOL    HW123709   0.356  10.507   2.719
40604SOL    HW223710   0.482  10.587   2.744
40605SOL     OW23711  11.256   1.015   8.381
40605SOL    HW123712  11.339   1.010   8.429
40605SOL    HW223713  11.216   0.929   8.394
40606SOL     OW23714  12.933   3.326   4.389
40606SOL    HW123715  12.890   3.244   4.364
40606SOL    HW223716  12.876   3.362   4.457
40607SOL     OW23717   7.807   9.366   0.122
40607SOL    HW123718   7.716   9.388   0.140
40607SOL    HW223719   7.820   9.282   0.166
40608SOL     OW23720   6.423   4.353   2.133
40608SOL    HW123721   6.516   4.331   2.141
40608SOL    HW223722   6.377   4.272   2.157
40609SOL     OW23723   8.637   5.371  13.879
40609SOL    HW123724   8.597   5.415  13.803
40609SOL    HW223725   8.729   5.396  13.874
40610SOL     OW23726  14.662   7.217   4.773
40610SOL    HW123727  14.600   7.144   4.777
40610SOL    HW223728  14.606   7.295   4.769
40611SOL     OW23729   8.459   0.352   4.690
40611SOL    HW123730   8.514   0.320   4.761
40611SOL    HW223731   8.377   0.377   4.732
40612SOL     OW23732   9.903  14.035   0.686
40612SOL    HW123733   9.931  14.022   0.595
40612SOL    HW223734   9.871  14.125   0.689
40613SOL     OW23735  12.494  13.578  13.632
40613SOL    HW123736  12.444  13.498  13.616
40613SOL    HW223737  12.487  13.627  13.550
40614SOL     OW23738   4.924   5.993   0.218
40614SOL    HW123739   4.914   5.915   0.163
40614SOL    HW223740   5.006   5.978   0.265
40615SOL     OW23741   4.281  12.690   8.362
40615SOL    HW123742   4.335  12.614   8.386
40615SOL    HW223743   4.343  12.751   8.323
40616SOL     OW23744   3.365   3.315   2.229
40616SOL    HW123745   3.302   3.279   2.291
40616SOL    HW223746   3.445   3.326   2.280
40617SOL     OW23747   4.482   0.833  12.997
40617SOL    HW123748   4.549   0.771  12.970
40617SOL    HW223749   4.487   0.904  12.933
40618SOL     OW23750   4.671  10.942   4.003
40618SOL    HW123751   4.584  10.969   3.973
40618SOL    HW223752   4.660  10.850   4.028
40619SOL     OW23753  11.607   4.828   1.923
40619SOL    HW123754  11.618   4.785   1.838
40619SOL    HW223755  11.515   4.854   1.925
40620SOL     OW23756  10.341   6.576  13.724
40620SOL    HW123757  10.247   6.560  13.725
40620SOL    HW223758  10.370   6.554  13.813
40621SOL     OW23759   2.533   3.699  14.388
40621SOL    HW123760   2.491   3.697  14.302
40621SOL    HW223761   2.530   3.792  14.414
40622SOL     OW23762   7.268   9.805   1.797
40622SOL    HW123763   7.186   9.757   1.808
40622SOL    HW223764   7.283   9.806   1.703
40623SOL     OW23765   0.687  12.490   0.283
40623SOL    HW123766   0.654  12.580   0.277
40623SOL    HW223767   0.629  12.439   0.227
40624SOL     OW23768   5.784   9.359   1.934
40624SOL    HW123769   5.844   9.358   2.009
40624SOL    HW223770   5.721   9.289   1.953
40625SOL     OW23771   5.761  10.315   6.246
40625SOL    HW123772   5.827  10.308   6.177
40625SOL    HW223773   5.800  10.270   6.321
40626SOL     OW23774   2.914   3.163  12.925
40626SOL    HW123775   2.872   3.249  12.918
40626SOL    HW223776   2.989   3.178  12.983
40627SOL     OW23777   0.849   2.956   3.212
40627SOL    HW123778   0.802   2.913   3.283
40627SOL    HW223779   0.780   2.984   3.151
40628SOL     OW23780  13.367   2.958  12.368
40628SOL    HW123781  13.386   2.913  12.450
40628SOL    HW223782  13.412   3.042  12.377
40629SOL     OW23783   5.970  10.878   4.600
40629SOL    HW123784   5.952  10.935   4.526
40629SOL    HW223785   5.897  10.894   4.660
40630SOL     OW23786   9.865   6.629   8.188
40630SOL    HW123787   9.953   6.654   8.161
40630SOL    HW223788   9.835   6.701   8.243
40631SOL     OW23789   9.125   8.123   4.160
40631SOL    HW123790   9.165   8.044   4.125
40631SOL    HW223791   9.032   8.102   4.167
40632SOL     OW23792   2.626   2.889   7.910
40632SOL    HW123793   2.583   2.873   7.993
40632SOL    HW223794   2.556   2.880   7.845
40633SOL     OW23795   3.464   3.034   4.715
40633SOL    HW123796   3.516   3.051   4.637
40633SOL    HW223797   3.418   2.952   4.697
40634SOL     OW23798   5.411  12.568  11.816
40634SOL    HW123799   5.334  12.539  11.866
40634SOL    HW223800   5.469  12.606  11.881
40635SOL     OW23801   3.796   5.295   9.056
40635SOL    HW123802   3.763   5.319   9.142
40635SOL    HW223803   3.718   5.277   9.004
40636SOL     OW23804   7.081   4.173   8.683
40636SOL    HW123805   7.064   4.231   8.609
40636SOL    HW223806   7.129   4.099   8.645
40637SOL     OW23807  13.141  11.857   7.529
40637SOL    HW123808  13.087  11.859   7.608
40637SOL    HW223809  13.158  11.764   7.514
40638SOL     OW23810   1.390  14.857   7.401
40638SOL    HW123811   1.356   0.024   7.321
40638SOL    HW223812   1.478   0.020   7.410
40639SOL     OW23813   3.104  14.178   8.859
40639SOL    HW123814   3.153  14.097   8.846
40639SOL    HW223815   3.148  14.242   8.803
40640SOL     OW23816  12.114  13.282  10.187
40640SOL    HW123817  12.121  13.330  10.269
40640SOL    HW223818  12.138  13.345  10.120
40641SOL     OW23819   6.393   3.237  10.388
40641SOL    HW123820   6.470   3.279  10.351
40641SOL    HW223821   6.371   3.169  10.325
40642SOL     OW23822  11.130   6.324   5.276
40642SOL    HW123823  11.044   6.285   5.289
40642SOL    HW223824  11.189   6.250   5.265
40643SOL     OW23825  12.008  13.553   8.937
40643SOL    HW123826  11.914  13.561   8.956
40643SOL    HW223827  12.042  13.642   8.948
40644SOL     OW23828   8.810  13.063   3.509
40644SOL    HW123829   8.750  13.137   3.500
40644SOL    HW223830   8.754  12.986   3.510
40645SOL     OW23831  11.352  12.961   5.050
40645SOL    HW123832  11.414  12.891   5.031
40645SOL    HW223833  11.296  12.925   5.119
40646SOL     OW23834  10.544   6.450  13.172
40646SOL    HW123835  10.536   6.486  13.083
40646SOL    HW223836  10.496   6.512  13.227
40647SOL     OW23837  14.758   4.658  11.830
40647SOL    HW123838  14.741   4.569  11.861
40647SOL    HW223839  14.824   4.691  11.891
40648SOL     OW23840   9.830  10.656  12.912
40648SOL    HW123841   9.781  10.576  12.932
40648SOL    HW223842   9.865  10.640  12.824
40649SOL     OW23843   7.935  14.555   1.456
40649SOL    HW123844   7.974  14.595   1.534
40649SOL    HW223845   7.979  14.470   1.448
40650SOL     OW23846   0.426   2.247   7.476
40650SOL    HW123847   0.408   2.162   7.436
40650SOL    HW223848   0.343   2.295   7.469
40651SOL     OW23849  13.737   2.098  12.449
40651SOL    HW123850  13.742   2.102  12.545
40651SOL    HW223851  13.664   2.156  12.426
40652SOL     OW23852   7.062   8.402   3.307
40652SOL    HW123853   7.143   8.353   3.292
40652SOL    HW223854   7.087   8.493   3.295
40653SOL     OW23855  10.566   4.320   8.862
40653SOL    HW123856  10.548   4.409   8.834
40653SOL    HW223857  10.502   4.266   8.815
40654SOL     OW23858  13.836   4.506   7.452
40654SOL    HW123859  13.874   4.553   7.526
40654SOL    HW223860  13.783   4.437   7.493
40655SOL     OW23861   6.212   1.959  14.076
40655SOL    HW123862   6.162   2.022  14.025
40655SOL    HW223863   6.303   1.987  14.067
40656SOL     OW23864   8.038  12.322  11.227
40656SOL    HW123865   7.950  12.354  11.250
40656SOL    HW223866   8.062  12.373  11.150
40657SOL     OW23867  11.685   2.816  12.301
40657SOL    HW123868  11.623   2.835  12.231
40657SOL    HW223869  11.685   2.720  12.308
40658SOL     OW23870   4.439  12.303   6.699
40658SOL    HW123871   4.511  12.255   6.739
40658SOL    HW223872   4.479  12.381   6.661
40659SOL     OW23873  11.058   7.624   4.872
40659SOL    HW123874  11.023   7.713   4.879
40659SOL    HW223875  10.983   7.567   4.886
40660SOL     OW23876  14.686  14.676   8.137
40660SOL    HW123877  14.596  14.642   8.129
40660SOL    HW223878  14.686  14.722   8.221
40661SOL     OW23879  11.952  10.544  10.000
40661SOL    HW123880  11.898  10.495   9.937
40661SOL    HW223881  11.904  10.537  10.082
40662SOL     OW23882  12.938  10.430  11.068
40662SOL    HW123883  12.886  10.360  11.107
40662SOL    HW223884  12.876  10.501  11.053
40663SOL     OW23885  12.439   3.027   1.179
40663SOL    HW123886  12.380   3.099   1.200
40663SOL    HW223887  12.501   3.064   1.115
40664SOL     OW23888  13.237  12.635   3.382
40664SOL    HW123889  13.184  12.685   3.444
40664SOL    HW223890  13.189  12.642   3.299
40665SOL     OW23891   8.336   0.216   0.892
40665SOL    HW123892   8.384   0.298   0.905
40665SOL    HW223893   8.245   0.244   0.882
40666SOL     OW23894   4.598   0.509   7.692
40666SOL    HW123895   4.667   0.468   7.639
40666SOL    HW223896   4.589   0.597   7.655
40667SOL     OW23897   5.299  12.408  11.168
40667SOL    HW123898   5.228  12.401  11.233
40667SOL    HW223899   5.258  12.448  11.092
40668SOL     OW23900   6.625   5.291   0.654
40668SOL    HW123901   6.584   5.204   0.652
40668SOL    HW223902   6.571   5.344   0.596
40669SOL     OW23903   9.681   3.241   4.135
40669SOL    HW123904   9.717   3.315   4.184
40669SOL    HW223905   9.588   3.239   4.161
40670SOL     OW23906  14.857   2.911  14.066
40670SOL    HW123907  14.775   2.863  14.057
40670SOL    HW223908   0.050   2.856  14.022
40671SOL     OW23909   8.465  13.534  10.022
40671SOL    HW123910   8.376  13.527   9.987
40671SOL    HW223911   8.518  13.481   9.962
40672SOL     OW23912   4.482   3.121   7.668
40672SOL    HW123913   4.404   3.117   7.725
40672SOL    HW223914   4.491   3.032   7.635
40673SOL     OW23915   4.550   5.476  12.691
40673SOL    HW123916   4.581   5.409  12.631
40673SOL    HW223917   4.630   5.516  12.726
40674SOL     OW23918  14.867   8.509   4.665
40674SOL    HW123919   0.039   8.591   4.687
40674SOL    HW223920   0.065   8.447   4.648
40675SOL     OW23921   2.183  12.356   3.972
40675SOL    HW123922   2.157  12.444   3.946
40675SOL    HW223923   2.143  12.298   3.907
40676SOL     OW23924   4.872   4.709  14.653
40676SOL    HW123925   4.890   4.657  14.731
40676SOL    HW223926   4.878   4.800  14.683
40677SOL     OW23927   8.807  12.078   0.381
40677SOL    HW123928   8.873  12.119   0.325
40677SOL    HW223929   8.730  12.135   0.374
40678SOL     OW23930   9.011   4.649   8.293
40678SOL    HW123931   8.916   4.653   8.281
40678SOL    HW223932   9.036   4.739   8.311
40679SOL     OW23933  14.815   8.993  10.085
40679SOL    HW123934  14.742   8.933  10.103
40679SOL    HW223935   0.018   8.936  10.072
40680SOL     OW23936   4.366  11.776   0.329
40680SOL    HW123937   4.327  11.758   0.415
40680SOL    HW223938   4.306  11.838   0.289
40681SOL     OW23939   3.717   4.358   2.881
40681SOL    HW123940   3.759   4.416   2.817
40681SOL    HW223941   3.728   4.403   2.965
40682SOL     OW23942   8.347  10.214  14.826
40682SOL    HW123943   8.363  10.256  14.741
40682SOL    HW223944   8.336  10.287   0.015
40683SOL     OW23945   2.044  12.783   0.189
40683SOL    HW123946   1.997  12.716   0.240
40683SOL    HW223947   2.125  12.798   0.238
40684SOL     OW23948   8.670   8.875   5.918
40684SOL    HW123949   8.620   8.931   5.859
40684SOL    HW223950   8.628   8.789   5.912
40685SOL     OW23951  13.521  11.288  11.472
40685SOL    HW123952  13.565  11.218  11.518
40685SOL    HW223953  13.518  11.361  11.534
40686SOL     OW23954  10.867   6.413   6.823
40686SOL    HW123955  10.920   6.491   6.807
40686SOL    HW223956  10.821   6.398   6.741
40687SOL     OW23957   0.081   6.965   6.233
40687SOL    HW123958   0.081   7.027   6.160
40687SOL    HW223959   0.154   6.993   6.289
40688SOL     OW23960  14.325   9.402  14.546
40688SOL    HW123961  14.315   9.413  14.452
40688SOL    HW223962  14.287   9.481  14.584
40689SOL     OW23963   0.168  13.633   0.394
40689SOL    HW123964   0.126  13.719   0.389
40689SOL    HW223965   0.253  13.646   0.351
40690SOL     OW23966   1.523  12.407   7.686
40690SOL    HW123967   1.604  12.361   7.666
40690SOL    HW223968   1.497  12.447   7.604
40691SOL     OW23969  11.250  11.056  14.396
40691SOL    HW123970  11.259  11.102  14.480
40691SOL    HW223971  11.196  10.980  14.417
40692SOL     OW23972   1.204  14.422   3.264
40692SOL    HW123973   1.259  14.473   3.323
40692SOL    HW223974   1.114  14.438   3.295
40693SOL     OW23975   6.396   6.623  14.731
40693SOL    HW123976   6.388   6.696  14.793
40693SOL    HW223977   6.306   6.592  14.718
40694SOL     OW23978   1.248   3.905   9.489
40694SOL    HW123979   1.337   3.913   9.524
40694SOL    HW223980   1.257   3.929   9.396
40695SOL     OW23981   2.658   4.687   4.105
40695SOL    HW123982   2.676   4.777   4.132
40695SOL    HW223983   2.695   4.633   4.175
40696SOL     OW23984  13.800   4.150   5.776
40696SOL    HW123985  13.883   4.133   5.731
40696SOL    HW223986  13.747   4.073   5.758
40697SOL     OW23987  12.894   2.836   2.087
40697SOL    HW123988  12.989   2.831   2.099
40697SOL    HW223989  12.880   2.919   2.043
40698SOL     OW23990   2.696  10.465  13.476
40698SOL    HW123991   2.654  10.461  13.562
40698SOL    HW223992   2.627  10.445  13.414
40699SOL     OW23993   8.708  10.586   0.575
40699SOL    HW123994   8.792  10.539   0.571
40699SOL    HW223995   8.727  10.671   0.533
40700SOL     OW23996   6.211   0.631  11.693
40700SOL    HW123997   6.151   0.701  11.717
40700SOL    HW223998   6.289   0.675  11.660
40701SOL     OW23999  10.723   1.324  11.140
40701SOL    HW124000  10.763   1.298  11.223
40701SOL    HW224001  10.769   1.404  11.114
40702SOL     OW24002   6.529   4.189  13.193
40702SOL    HW124003   6.446   4.234  13.179
40702SOL    HW224004   6.572   4.240  13.262
40703SOL     OW24005   3.882  11.103   2.141
40703SOL    HW124006   3.951  11.123   2.204
40703SOL    HW224007   3.811  11.067   2.195
40704SOL     OW24008   0.340   1.246  11.737
40704SOL    HW124009   0.315   1.305  11.809
40704SOL    HW224010   0.259   1.231  11.689
40705SOL     OW24011   5.691   3.672   4.416
40705SOL    HW124012   5.639   3.594   4.396
40705SOL    HW224013   5.633   3.726   4.470
40706SOL     OW24014   4.241  14.099   0.102
40706SOL    HW124015   4.275  14.185   0.127
40706SOL    HW224016   4.150  14.115   0.078
40707SOL     OW24017   8.140   5.861   5.287
40707SOL    HW124018   8.218   5.828   5.243
40707SOL    HW224019   8.096   5.915   5.220
40708SOL     OW24020  10.027  12.275   1.698
40708SOL    HW124021  10.055  12.229   1.776
40708SOL    HW224022  10.108  12.307   1.658
40709SOL     OW24023   3.415   5.351   8.511
40709SOL    HW124024   3.324   5.319   8.508
40709SOL    HW224025   3.426   5.383   8.601
40710SOL     OW24026   9.379   9.792   9.846
40710SOL    HW124027   9.300   9.793   9.900
40710SOL    HW224028   9.395   9.884   9.826
40711SOL     OW24029   1.354  10.953   1.781
40711SOL    HW124030   1.431  10.906   1.813
40711SOL    HW224031   1.359  10.947   1.686
40712SOL     OW24032   2.706   2.508   3.370
40712SOL    HW124033   2.660   2.588   3.345
40712SOL    HW224034   2.654   2.437   3.333
40713SOL     OW24035   4.136  14.386   2.846
40713SOL    HW124036   4.098  14.404   2.760
40713SOL    HW224037   4.210  14.447   2.853
40714SOL     OW24038   6.202  10.930  14.466
40714SOL    HW124039   6.195  10.971  14.552
40714SOL    HW224040   6.237  10.999  14.409
40715SOL     OW24041   7.810  14.358   0.952
40715SOL    HW124042   7.884  14.296   0.947
40715SOL    HW224043   7.794  14.369   1.045
40716SOL     OW24044  14.194   0.218   9.441
40716SOL    HW124045  14.115   0.193   9.489
40716SOL    HW224046  14.263   0.215   9.508
40717SOL     OW24047   7.931  13.191   1.395
40717SOL    HW124048   7.843  13.159   1.416
40717SOL    HW224049   7.942  13.269   1.449
40718SOL     OW24050  11.575  12.490   9.868
40718SOL    HW124051  11.574  12.521   9.778
40718SOL    HW224052  11.631  12.552   9.915
40719SOL     OW24053  10.485   9.432   8.358
40719SOL    HW124054  10.580   9.444   8.353
40719SOL    HW224055  10.454   9.507   8.408
40720SOL     OW24056  14.505  11.075   5.069
40720SOL    HW124057  14.592  11.110   5.048
40720SOL    HW224058  14.517  11.028   5.151
40721SOL     OW24059  12.820   6.920   6.548
40721SOL    HW124060  12.770   6.846   6.514
40721SOL    HW224061  12.863   6.886   6.627
40722SOL     OW24062   7.038  12.097  14.869
40722SOL    HW124063   6.943  12.096  14.863
40722SOL    HW224064   7.063  12.004  14.862
40723SOL     OW24065   7.942   5.669   8.157
40723SOL    HW124066   7.971   5.640   8.243
40723SOL    HW224067   7.852   5.637   8.151
40724SOL     OW24068   0.991   4.632   0.217
40724SOL    HW124069   1.082   4.606   0.231
40724SOL    HW224070   0.984   4.646   0.123
40725SOL     OW24071   4.751   1.715  10.211
40725SOL    HW124072   4.822   1.655  10.233
40725SOL    HW224073   4.749   1.777  10.283
40726SOL     OW24074  12.419   0.118   6.970
40726SOL    HW124075  12.463   0.196   7.003
40726SOL    HW224076  12.466   0.095   6.891
40727SOL     OW24077   5.106  14.206  11.185
40727SOL    HW124078   5.029  14.151  11.170
40727SOL    HW224079   5.173  14.167  11.129
40728SOL     OW24080   3.053   0.792   1.405
40728SOL    HW124081   3.102   0.778   1.324
40728SOL    HW224082   2.961   0.788   1.378
40729SOL     OW24083   0.057   3.467   8.722
40729SOL    HW124084   0.062   3.488   8.629
40729SOL    HW224085   0.148   3.449   8.748
40730SOL     OW24086  13.857   1.675  12.924
40730SOL    HW124087  13.909   1.749  12.892
40730SOL    HW224088  13.923   1.610  12.949
40731SOL     OW24089  13.790   3.434  14.504
40731SOL    HW124090  13.777   3.525  14.531
40731SOL    HW224091  13.711   3.388  14.533
40732SOL     OW24092   7.847   6.027   0.380
40732SOL    HW124093   7.842   6.038   0.285
40732SOL    HW224094   7.886   5.940   0.392
40733SOL     OW24095  10.775   3.402  13.059
40733SOL    HW124096  10.700   3.369  13.008
40733SOL    HW224097  10.839   3.428  12.993
40734SOL     OW24098  11.242   5.755   5.136
40734SOL    HW124099  11.178   5.779   5.069
40734SOL    HW224100  11.199   5.687   5.188
40735SOL     OW24101   7.774   7.538   7.833
40735SOL    HW124102   7.707   7.592   7.876
40735SOL    HW224103   7.725   7.484   7.772
40736SOL     OW24104   4.224   2.967   4.522
40736SOL    HW124105   4.250   2.883   4.484
40736SOL    HW224106   4.304   2.999   4.564
40737SOL     OW24107   0.019   4.714   5.120
40737SOL    HW124108  14.814   4.723   5.176
40737SOL    HW224109   0.073   4.649   5.164
40738SOL     OW24110   1.359   7.911  10.202
40738SOL    HW124111   1.338   7.893  10.110
40738SOL    HW224112   1.416   7.988  10.199
40739SOL     OW24113   8.421   4.638   6.803
40739SOL    HW124114   8.356   4.706   6.783
40739SOL    HW224115   8.381   4.588   6.874
40740SOL     OW24116   6.636  13.636   0.842
40740SOL    HW124117   6.662  13.545   0.858
40740SOL    HW224118   6.541  13.634   0.838
40741SOL     OW24119   9.424  14.474  14.861
40741SOL    HW124120   9.505  14.443  14.821
40741SOL    HW224121   9.377  14.395   0.014
40742SOL     OW24122  11.520   1.406   2.190
40742SOL    HW124123  11.463   1.408   2.266
40742SOL    HW224124  11.503   1.321   2.149
40743SOL     OW24125  13.182  12.849   4.130
40743SOL    HW124126  13.204  12.881   4.043
40743SOL    HW224127  13.256  12.876   4.185
40744SOL     OW24128   7.062  10.458   3.190
40744SOL    HW124129   7.055  10.542   3.144
40744SOL    HW224130   7.156  10.447   3.205
40745SOL     OW24131   6.569   9.328   0.196
40745SOL    HW124132   6.553   9.383   0.119
40745SOL    HW224133   6.539   9.241   0.171
40746SOL     OW24134  10.075   5.038  10.396
40746SOL    HW124135  10.086   5.039  10.491
40746SOL    HW224136  10.058   4.946  10.375
40747SOL     OW24137   3.740   0.388   2.652
40747SOL    HW124138   3.658   0.366   2.696
40747SOL    HW224139   3.799   0.315   2.672
40748SOL     OW24140  13.375  10.782  11.599
40748SOL    HW124141  13.415  10.777  11.686
40748SOL    HW224142  13.304  10.717  11.602
40749SOL     OW24143   0.633  14.375   3.613
40749SOL    HW124144   0.559  14.418   3.656
40749SOL    HW224145   0.608  14.283   3.610
40750SOL     OW24146  11.445   0.458  14.324
40750SOL    HW124147  11.388   0.529  14.354
40750SOL    HW224148  11.499   0.498  14.256
40751SOL     OW24149  11.920   4.592   7.502
40751SOL    HW124150  11.858   4.640   7.446
40751SOL    HW224151  11.993   4.571   7.444
40752SOL     OW24152  10.133  12.923   2.600
40752SOL    HW124153  10.166  13.011   2.615
40752SOL    HW224154  10.137  12.910   2.505
40753SOL     OW24155   4.306   6.918   3.986
40753SOL    HW124156   4.234   6.921   4.049
40753SOL    HW224157   4.346   7.005   3.991
40754SOL     OW24158  14.711   1.226   7.579
40754SOL    HW124159  14.676   1.138   7.595
40754SOL    HW224160  14.793   1.228   7.628
40755SOL     OW24161   6.279   3.855   3.031
40755SOL    HW124162   6.347   3.920   3.011
40755SOL    HW224163   6.282   3.794   2.958
40756SOL     OW24164   0.149  14.695   9.236
40756SOL    HW124165   0.244  14.688   9.232
40756SOL    HW224166   0.127  14.675   9.327
40757SOL     OW24167   2.263  14.148   1.995
40757SOL    HW124168   2.312  14.070   1.971
40757SOL    HW224169   2.330  14.212   2.020
40758SOL     OW24170   0.669  13.921   3.049
40758SOL    HW124171   0.588  13.968   3.032
40758SOL    HW224172   0.710  13.912   2.964
40759SOL     OW24173   0.938   8.043   8.204
40759SOL    HW124174   0.858   8.045   8.257
40759SOL    HW224175   0.909   8.008   8.119
40760SOL     OW24176   2.085  11.529  11.439
40760SOL    HW124177   2.021  11.582  11.486
40760SOL    HW224178   2.032  11.472  11.383
40761SOL     OW24179  13.395   6.155   1.851
40761SOL    HW124180  13.430   6.139   1.763
40761SOL    HW224181  13.317   6.208   1.835
40762SOL     OW24182   2.899   3.820   1.880
40762SOL    HW124183   2.836   3.864   1.823
40762SOL    HW224184   2.970   3.883   1.891
40763SOL     OW24185   8.585   8.855   7.117
40763SOL    HW124186   8.655   8.792   7.126
40763SOL    HW224187   8.579   8.898   7.202
40764SOL     OW24188   7.990   0.166  11.716
40764SOL    HW124189   8.009   0.072  11.721
40764SOL    HW224190   7.965   0.190  11.805
40765SOL     OW24191   6.099   3.766   5.092
40765SOL    HW124192   6.017   3.731   5.129
40765SOL    HW224193   6.087   3.861   5.094
40766SOL     OW24194   4.860   4.072   4.941
40766SOL    HW124195   4.833   4.164   4.944
40766SOL    HW224196   4.886   4.052   5.030
40767SOL     OW24197   3.209   9.055  11.941
40767SOL    HW124198   3.166   9.138  11.958
40767SOL    HW224199   3.158   9.015  11.870
40768SOL     OW24200   8.929   9.369   2.172
40768SOL    HW124201   8.934   9.451   2.124
40768SOL    HW224202   9.020   9.345   2.190
40769SOL     OW24203   7.540  11.698   2.344
40769SOL    HW124204   7.468  11.702   2.407
40769SOL    HW224205   7.567  11.607   2.344
40770SOL     OW24206  10.599   6.728   0.191
40770SOL    HW124207  10.644   6.697   0.112
40770SOL    HW224208  10.507   6.708   0.175
40771SOL     OW24209   2.611  10.357   0.438
40771SOL    HW124210   2.516  10.350   0.439
40771SOL    HW224211   2.632  10.422   0.506
40772SOL     OW24212  14.231  12.039   2.806
40772SOL    HW124213  14.218  11.971   2.740
40772SOL    HW224214  14.221  11.994   2.890
40773SOL     OW24215   2.794   6.411   5.558
40773SOL    HW124216   2.714   6.411   5.610
40773SOL    HW224217   2.767   6.441   5.472
40774SOL     OW24218  11.944   6.256   7.064
40774SOL    HW124219  11.912   6.196   6.996
40774SOL    HW224220  11.865   6.287   7.107
40775SOL     OW24221  13.982   8.671  10.897
40775SOL    HW124222  13.931   8.711  10.967
40775SOL    HW224223  14.007   8.585  10.932
40776SOL     OW24224  11.917   3.078   5.465
40776SOL    HW124225  11.924   3.039   5.552
40776SOL    HW224226  11.829   3.116   5.463
40777SOL     OW24227  12.509   3.380   4.471
40777SOL    HW124228  12.541   3.398   4.382
40777SOL    HW224229  12.542   3.292   4.491
40778SOL     OW24230  13.963  14.547   1.807
40778SOL    HW124231  13.991  14.486   1.738
40778SOL    HW224232  13.871  14.564   1.787
40779SOL     OW24233   6.188   0.075   9.987
40779SOL    HW124234   6.229   0.141   9.931
40779SOL    HW224235   6.168   0.002   9.929
40780SOL     OW24236   1.879  13.557   3.670
40780SOL    HW124237   1.864  13.478   3.618
40780SOL    HW224238   1.794  13.602   3.669
40781SOL     OW24239   3.881  12.839   8.157
40781SOL    HW124240   3.891  12.885   8.073
40781SOL    HW224241   3.787  12.839   8.173
40782SOL     OW24242   9.496   0.090  13.091
40782SOL    HW124243   9.521   0.075  13.000
40782SOL    HW224244   9.400   0.087  13.090
40783SOL     OW24245   5.719   5.175   1.453
40783SOL    HW124246   5.746   5.255   1.407
40783SOL    HW224247   5.800   5.141   1.491
40784SOL     OW24248   7.788   4.336   7.789
40784SOL    HW124249   7.795   4.362   7.697
40784SOL    HW224250   7.867   4.284   7.805
40785SOL     OW24251   9.435   1.730  10.863
40785SOL    HW124252   9.355   1.678  10.850
40785SOL    HW224253   9.411   1.818  10.835
40786SOL     OW24254  11.527   1.966  12.991
40786SOL    HW124255  11.450   1.964  13.048
40786SOL    HW224256  11.601   1.955  13.050
40787SOL     OW24257  13.496   4.659  12.313
40787SOL    HW124258  13.517   4.647  12.406
40787SOL    HW224259  13.407   4.692  12.313
40788SOL     OW24260   7.869   7.188   7.312
40788SOL    HW124261   7.951   7.227   7.279
40788SOL    HW224262   7.800   7.237   7.268
40789SOL     OW24263   3.176   2.814  11.166
40789SOL    HW124264   3.109   2.832  11.100
40789SOL    HW224265   3.144   2.737  11.213
40790SOL     OW24266  13.965   2.236  13.854
40790SOL    HW124267  13.956   2.319  13.902
40790SOL    HW224268  13.875   2.210  13.834
40791SOL     OW24269   4.712   1.663   8.843
40791SOL    HW124270   4.764   1.583   8.858
40791SOL    HW224271   4.741   1.723   8.911
40792SOL     OW24272   0.221   0.531   8.272
40792SOL    HW124273   0.140   0.550   8.226
40792SOL    HW224274   0.290   0.555   8.211
40793SOL     OW24275   9.425  14.271   8.414
40793SOL    HW124276   9.389  14.274   8.326
40793SOL    HW224277   9.445  14.179   8.429
40794SOL     OW24278   8.620   9.367   6.051
40794SOL    HW124279   8.664   9.452   6.042
40794SOL    HW224280   8.614   9.334   5.961
40795SOL     OW24281   2.311   7.889  13.585
40795SOL    HW124282   2.234   7.933  13.549
40795SOL    HW224283   2.317   7.807  13.536
40796SOL     OW24284  10.779   8.047  10.185
40796SOL    HW124285  10.762   7.953  10.179
40796SOL    HW224286  10.720   8.078  10.254
40797SOL     OW24287  11.003   2.925   7.126
40797SOL    HW124288  11.058   2.932   7.048
40797SOL    HW224289  10.922   2.970   7.102
40798SOL     OW24290   1.325   4.071   0.682
40798SOL    HW124291   1.331   4.126   0.604
40798SOL    HW224292   1.280   3.992   0.654
40799SOL     OW24293   3.855  11.211  11.727
40799SOL    HW124294   3.942  11.181  11.700
40799SOL    HW224295   3.798  11.188  11.654
40800SOL     OW24296   5.394  10.905   7.043
40800SOL    HW124297   5.463  10.888   7.106
40800SOL    HW224298   5.314  10.873   7.085
40801SOL     OW24299  12.044   8.769  11.617
40801SOL    HW124300  12.083   8.844  11.662
40801SOL    HW224301  11.966   8.749  11.668
40802SOL     OW24302   1.669  13.533   4.834
40802SOL    HW124303   1.664  13.438   4.827
40802SOL    HW224304   1.654  13.565   4.745
40803SOL     OW24305   3.552   7.899   4.387
40803SOL    HW124306   3.501   7.822   4.362
40803SOL    HW224307   3.499   7.974   4.360
40804SOL     OW24308   1.530   3.698  13.284
40804SOL    HW124309   1.513   3.740  13.200
40804SOL    HW224310   1.480   3.616  13.281
40805SOL     OW24311  14.135   7.619   3.251
40805SOL    HW124312  14.159   7.606   3.159
40805SOL    HW224313  14.200   7.681   3.284
40806SOL     OW24314   7.288   9.943  11.942
40806SOL    HW124315   7.267   9.863  11.893
40806SOL    HW224316   7.378   9.963  11.917
40807SOL     OW24317  10.265   9.963   9.541
40807SOL    HW124318  10.285  10.012   9.461
40807SOL    HW224319  10.348   9.960   9.589
40808SOL     OW24320   8.367  12.768   8.542
40808SOL    HW124321   8.340  12.799   8.628
40808SOL    HW224322   8.445  12.715   8.559
40809SOL     OW24323   0.926   4.822   3.111
40809SOL    HW124324   0.861   4.753   3.100
40809SOL    HW224325   0.961   4.836   3.023
40810SOL     OW24326   2.043   0.635   7.673
40810SOL    HW124327   1.997   0.553   7.656
40810SOL    HW224328   1.980   0.688   7.723
40811SOL     OW24329   6.871   1.899   0.568
40811SOL    HW124330   6.897   1.842   0.640
40811SOL    HW224331   6.833   1.841   0.502
40812SOL     OW24332   4.159   1.650   9.483
40812SOL    HW124333   4.141   1.621   9.572
40812SOL    HW224334   4.121   1.738   9.478
40813SOL     OW24335   2.426  10.621   0.203
40813SOL    HW124336   2.373  10.695   0.171
40813SOL    HW224337   2.516  10.650   0.191
40814SOL     OW24338  10.150   6.624   5.155
40814SOL    HW124339  10.198   6.578   5.224
40814SOL    HW224340  10.182   6.583   5.074
40815SOL     OW24341   4.171   1.833   2.005
40815SOL    HW124342   4.105   1.877   2.059
40815SOL    HW224343   4.175   1.744   2.039
40816SOL     OW24344   8.333   4.660   8.479
40816SOL    HW124345   8.323   4.718   8.404
40816SOL    HW224346   8.403   4.699   8.531
40817SOL     OW24347   9.695   3.290   8.200
40817SOL    HW124348   9.607   3.259   8.221
40817SOL    HW224349   9.683   3.383   8.181
40818SOL     OW24350   1.778  11.633  13.673
40818SOL    HW124351   1.703  11.685  13.704
40818SOL    HW224352   1.828  11.613  13.752
40819SOL     OW24353  10.201   6.456   6.346
40819SOL    HW124354  10.249   6.417   6.420
40819SOL    HW224355  10.109   6.436   6.364
40820SOL     OW24356   3.250   4.047  14.510
40820SOL    HW124357   3.260   4.129  14.461
40820SOL    HW224358   3.243   4.075  14.602
40821SOL     OW24359   7.901   4.918  13.592
40821SOL    HW124360   7.984   4.928  13.639
40821SOL    HW224361   7.837   4.895  13.660
40822SOL     OW24362   7.016   4.628   1.427
40822SOL    HW124363   7.054   4.716   1.430
40822SOL    HW224364   6.939   4.633   1.484
40823SOL     OW24365   4.655  13.717   8.305
40823SOL    HW124366   4.646  13.650   8.237
40823SOL    HW224367   4.729  13.770   8.276
40824SOL     OW24368   7.143   9.054   5.373
40824SOL    HW124369   7.072   8.991   5.374
40824SOL    HW224370   7.107   9.130   5.327
40825SOL     OW24371  14.252  10.048  11.878
40825SOL    HW124372  14.168  10.040  11.924
40825SOL    HW224373  14.251  10.138  11.844
40826SOL     OW24374  11.137   7.440  14.086
40826SOL    HW124375  11.123   7.352  14.121
40826SOL    HW224376  11.149   7.495  14.164
40827SOL     OW24377   6.266   2.379  12.021
40827SOL    HW124378   6.217   2.296  12.025
40827SOL    HW224379   6.212   2.435  11.965
40828SOL     OW24380   0.112   7.753   7.283
40828SOL    HW124381   0.043   7.729   7.345
40828SOL    HW224382   0.149   7.834   7.318
40829SOL     OW24383  12.601  13.621  13.170
40829SOL    HW124384  12.547  13.545  13.190
40829SOL    HW224385  12.690  13.587  13.171
40830SOL     OW24386   2.407   3.068   7.859
40830SOL    HW124387   2.491   3.096   7.896
40830SOL    HW224388   2.431   3.006   7.790
40831SOL     OW24389   5.276   0.338   5.937
40831SOL    HW124390   5.262   0.256   5.984
40831SOL    HW224391   5.258   0.316   5.846
40832SOL     OW24392   7.401   5.352   6.406
40832SOL    HW124393   7.309   5.336   6.429
40832SOL    HW224394   7.399   5.369   6.312
40833SOL     OW24395   4.636   8.094  11.048
40833SOL    HW124396   4.706   8.044  11.092
40833SOL    HW224397   4.564   8.094  11.111
40834SOL     OW24398  12.530  11.655   0.099
40834SOL    HW124399  12.604  11.714   0.107
40834SOL    HW224400  12.456  11.713   0.076
40835SOL     OW24401   4.628  10.644   4.454
40835SOL    HW124402   4.621  10.678   4.365
40835SOL    HW224403   4.720  10.617   4.462
40836SOL     OW24404  13.337   3.869   5.910
40836SOL    HW124405  13.267   3.884   5.974
40836SOL    HW224406  13.308   3.914   5.831
40837SOL     OW24407   2.572   9.693  12.750
40837SOL    HW124408   2.609   9.631  12.687
40837SOL    HW224409   2.487   9.716  12.714
40838SOL     OW24410   6.927   7.943  14.304
40838SOL    HW124411   6.879   8.022  14.277
40838SOL    HW224412   6.983   7.923  14.229
40839SOL     OW24413   9.237   9.394   6.846
40839SOL    HW124414   9.168   9.338   6.811
40839SOL    HW224415   9.272   9.346   6.921
40840SOL     OW24416   9.792   1.820   0.472
40840SOL    HW124417   9.702   1.823   0.506
40840SOL    HW224418   9.823   1.732   0.494
40841SOL     OW24419  14.687   4.510   7.148
40841SOL    HW124420  14.691   4.435   7.088
40841SOL    HW224421  14.751   4.490   7.216
40842SOL     OW24422   7.703   2.114   1.364
40842SOL    HW124423   7.754   2.192   1.344
40842SOL    HW224424   7.651   2.098   1.285
40843SOL     OW24425   7.252   3.308   4.918
40843SOL    HW124426   7.261   3.278   5.009
40843SOL    HW224427   7.176   3.366   4.920
40844SOL     OW24428   6.223  10.203   6.983
40844SOL    HW124429   6.145  10.241   7.023
40844SOL    HW224430   6.270  10.162   7.056
40845SOL     OW24431   8.415   9.476  14.446
40845SOL    HW124432   8.352   9.535  14.405
40845SOL    HW224433   8.381   9.462  14.534
40846SOL     OW24434   0.680  12.606  12.879
40846SOL    HW124435   0.694  12.579  12.970
40846SOL    HW224436   0.727  12.689  12.871
40847SOL     OW24437   5.058   8.525  13.864
40847SOL    HW124438   5.002   8.508  13.788
40847SOL    HW224439   5.123   8.455  13.861
40848SOL     OW24440   8.510  11.024   2.662
40848SOL    HW124441   8.593  10.975   2.664
40848SOL    HW224442   8.505  11.064   2.749
40849SOL     OW24443   7.299   4.973  10.019
40849SOL    HW124444   7.313   5.062   9.987
40849SOL    HW224445   7.328   4.916   9.947
40850SOL     OW24446   6.407   6.069   4.776
40850SOL    HW124447   6.429   6.160   4.796
40850SOL    HW224448   6.368   6.035   4.857
40851SOL     OW24449   8.345   7.047   0.355
40851SOL    HW124450   8.264   7.094   0.334
40851SOL    HW224451   8.346   6.972   0.295
40852SOL     OW24452   5.455   7.809   5.797
40852SOL    HW124453   5.526   7.780   5.740
40852SOL    HW224454   5.378   7.761   5.766
40853SOL     OW24455   9.793   5.157  10.668
40853SOL    HW124456   9.714   5.103  10.664
40853SOL    HW224457   9.819   5.168  10.576
40854SOL     OW24458   0.177   3.821   8.109
40854SOL    HW124459   0.220   3.783   8.032
40854SOL    HW224460   0.193   3.757   8.179
40855SOL     OW24461  10.249   9.728   5.720
40855SOL    HW124462  10.301   9.772   5.788
40855SOL    HW224463  10.189   9.672   5.769
40856SOL     OW24464   9.546   0.707   0.960
40856SOL    HW124465   9.483   0.710   0.888
40856SOL    HW224466   9.504   0.652   1.027
40857SOL     OW24467   6.088   8.800  13.338
40857SOL    HW124468   6.089   8.812  13.244
40857SOL    HW224469   6.119   8.710  13.351
40858SOL     OW24470   0.671  12.197  12.762
40858SOL    HW124471   0.731  12.269  12.744
40858SOL    HW224472   0.601  12.236  12.814
40859SOL     OW24473   8.475  11.311  10.610
40859SOL    HW124474   8.534  11.358  10.552
40859SOL    HW224475   8.517  11.226  10.623
40860SOL     OW24476   6.768   9.902   0.332
40860SOL    HW124477   6.859   9.912   0.305
40860SOL    HW224478   6.726   9.857   0.259
40861SOL     OW24479   2.524   4.751  10.300
40861SOL    HW124480   2.548   4.662  10.326
40861SOL    HW224481   2.559   4.807  10.370
40862SOL     OW24482  13.728  14.553   9.906
40862SOL    HW124483  13.665  14.624   9.915
40862SOL    HW224484  13.675  14.478   9.878
40863SOL     OW24485  10.077   3.376   1.819
40863SOL    HW124486  10.109   3.330   1.897
40863SOL    HW224487  10.007   3.320   1.786
40864SOL     OW24488   0.686  14.423   1.885
40864SOL    HW124489   0.629  14.436   1.961
40864SOL    HW224490   0.630  14.380   1.820
40865SOL     OW24491   1.280   9.868   6.088
40865SOL    HW124492   1.364   9.913   6.093
40865SOL    HW224493   1.240   9.901   6.007
40866SOL     OW24494   6.026  12.315   2.890
40866SOL    HW124495   6.072  12.388   2.932
40866SOL    HW224496   5.966  12.283   2.958
40867SOL     OW24497   4.259  13.329   4.004
40867SOL    HW124498   4.189  13.390   4.026
40867SOL    HW224499   4.303  13.369   3.929
40868SOL     OW24500   3.434   5.492   9.098
40868SOL    HW124501   3.428   5.583   9.127
40868SOL    HW224502   3.499   5.453   9.155
40869SOL     OW24503   9.020  11.809   9.200
40869SOL    HW124504   8.981  11.742   9.144
40869SOL    HW224505   8.965  11.809   9.278
40870SOL     OW24506  10.175   0.395   5.458
40870SOL    HW124507  10.182   0.326   5.392
40870SOL    HW224508  10.213   0.357   5.537
40871SOL     OW24509   8.561   1.919   9.150
40871SOL    HW124510   8.549   2.002   9.104
40871SOL    HW224511   8.654   1.917   9.172
40872SOL     OW24512   2.282  10.224   3.407
40872SOL    HW124513   2.217  10.267   3.352
40872SOL    HW224514   2.235  10.150   3.447
40873SOL     OW24515  12.148  14.677   2.752
40873SOL    HW124516  12.202  14.740   2.704
40873SOL    HW224517  12.149  14.708   2.843
40874SOL     OW24518  12.046  12.885   7.324
40874SOL    HW124519  12.104  12.940   7.375
40874SOL    HW224520  11.977  12.944   7.293
40875SOL     OW24521  14.644  13.518   0.298
40875SOL    HW124522  14.734  13.493   0.280
40875SOL    HW224523  14.646  13.613   0.305
40876SOL     OW24524  13.902  11.805   6.343
40876SOL    HW124525  13.815  11.771   6.366
40876SOL    HW224526  13.890  11.900   6.342
40877SOL     OW24527   3.976  14.118   3.709
40877SOL    HW124528   3.931  14.198   3.680
40877SOL    HW224529   3.905  14.055   3.723
40878SOL     OW24530   9.663   3.253   6.885
40878SOL    HW124531   9.730   3.235   6.951
40878SOL    HW224532   9.661   3.175   6.830
40879SOL     OW24533  13.902   8.736   7.265
40879SOL    HW124534  13.990   8.772   7.277
40879SOL    HW224535  13.910   8.643   7.287
40880SOL     OW24536  13.411  14.665   4.210
40880SOL    HW124537  13.479  14.602   4.187
40880SOL    HW224538  13.415  14.730   4.139
40881SOL     OW24539  13.775   7.335   6.472
40881SOL    HW124540  13.701   7.368   6.421
40881SOL    HW224541  13.736   7.303   6.553
40882SOL     OW24542   2.397   9.073   9.526
40882SOL    HW124543   2.327   9.136   9.543
40882SOL    HW224544   2.362   9.019   9.455
40883SOL     OW24545  11.981  12.269   2.308
40883SOL    HW124546  12.017  12.267   2.397
40883SOL    HW224547  11.932  12.351   2.304
40884SOL     OW24548   8.797  14.582   5.017
40884SOL    HW124549   8.848  14.558   4.940
40884SOL    HW224550   8.858  14.627   5.075
40885SOL     OW24551   2.249   5.382   3.820
40885SOL    HW124552   2.319   5.447   3.828
40885SOL    HW224553   2.168   5.433   3.824
40886SOL     OW24554  11.641   6.641   4.596
40886SOL    HW124555  11.622   6.681   4.681
40886SOL    HW224556  11.737   6.634   4.594
40887SOL     OW24557   7.330   7.432   8.377
40887SOL    HW124558   7.333   7.350   8.427
40887SOL    HW224559   7.413   7.474   8.395
40888SOL     OW24560   1.840   8.709  11.841
40888SOL    HW124561   1.919   8.760  11.825
40888SOL    HW224562   1.859   8.623  11.805
40889SOL     OW24563   9.342  10.741   3.581
40889SOL    HW124564   9.328  10.835   3.586
40889SOL    HW224565   9.437  10.731   3.590
40890SOL     OW24566   0.422   0.930   2.172
40890SOL    HW124567   0.456   0.892   2.091
40890SOL    HW224568   0.419   1.024   2.156
40891SOL     OW24569  14.182   0.333   6.415
40891SOL    HW124570  14.194   0.267   6.484
40891SOL    HW224571  14.190   0.284   6.333
40892SOL     OW24572   4.515  13.982   3.369
40892SOL    HW124573   4.530  13.888   3.366
40892SOL    HW224574   4.426  13.993   3.335
40893SOL     OW24575   1.125  13.664   1.729
40893SOL    HW124576   1.042  13.674   1.683
40893SOL    HW224577   1.115  13.583   1.778
40894SOL     OW24578  13.917  10.169  13.891
40894SOL    HW124579  13.901  10.104  13.958
40894SOL    HW224580  13.886  10.251  13.929
40895SOL     OW24581  13.938  11.767   3.090
40895SOL    HW124582  13.918  11.704   3.020
40895SOL    HW224583  13.914  11.722   3.171
40896SOL     OW24584  12.128   1.613   8.009
40896SOL    HW124585  12.148   1.703   8.036
40896SOL    HW224586  12.143   1.613   7.914
40897SOL     OW24587  11.278   0.710  14.372
40897SOL    HW124588  11.243   0.672  14.453
40897SOL    HW224589  11.275   0.804  14.387
40898SOL     OW24590  14.332   4.450   5.698
40898SOL    HW124591  14.359   4.442   5.606
40898SOL    HW224592  14.249   4.497   5.694
40899SOL     OW24593   0.123   8.935   5.616
40899SOL    HW124594   0.049   8.887   5.653
40899SOL    HW224595   0.193   8.870   5.609
40900SOL     OW24596  13.078   8.337  11.440
40900SOL    HW124597  13.090   8.249  11.406
40900SOL    HW224598  13.132   8.340  11.519
40901SOL     OW24599  14.467   2.797   8.371
40901SOL    HW124600  14.445   2.792   8.278
40901SOL    HW224601  14.556   2.762   8.376
40902SOL     OW24602  11.648   0.882   0.173
40902SOL    HW124603  11.582   0.925   0.119
40902SOL    HW224604  11.725   0.939   0.165
40903SOL     OW24605   1.400   0.518  13.576
40903SOL    HW124606   1.357   0.532  13.660
40903SOL    HW224607   1.420   0.425  13.575
40904SOL     OW24608   4.731  11.528  10.136
40904SOL    HW124609   4.789  11.452  10.136
40904SOL    HW224610   4.751  11.573  10.054
40905SOL     OW24611   3.383   4.314   5.036
40905SOL    HW124612   3.469   4.355   5.027
40905SOL    HW224613   3.385   4.241   4.974
40906SOL     OW24614   2.689   7.430   1.332
40906SOL    HW124615   2.626   7.501   1.320
40906SOL    HW224616   2.635   7.354   1.352
40907SOL     OW24617   0.539  11.734   5.499
40907SOL    HW124618   0.554  11.640   5.492
40907SOL    HW224619   0.595  11.762   5.571
40908SOL     OW24620   2.223  12.551   3.245
40908SOL    HW124621   2.142  12.529   3.199
40908SOL    HW224622   2.221  12.647   3.252
40909SOL     OW24623  11.108   4.629   8.106
40909SOL    HW124624  11.166   4.592   8.040
40909SOL    HW224625  11.159   4.629   8.186
40910SOL     OW24626   2.333   4.325  14.308
40910SOL    HW124627   2.346   4.411  14.349
40910SOL    HW224628   2.314   4.266  14.382
40911SOL     OW24629  11.491  11.833   0.389
40911SOL    HW124630  11.430  11.865   0.323
40911SOL    HW224631  11.548  11.907   0.407
40912SOL     OW24632   7.398   2.408   3.598
40912SOL    HW124633   7.488   2.392   3.568
40912SOL    HW224634   7.388   2.503   3.594
40913SOL     OW24635   7.150   8.829   2.058
40913SOL    HW124636   7.068   8.797   2.095
40913SOL    HW224637   7.134   8.922   2.042
40914SOL     OW24638  11.517   9.100   6.576
40914SOL    HW124639  11.533   9.089   6.670
40914SOL    HW224640  11.466   9.180   6.570
40915SOL     OW24641   8.535   7.598   3.908
40915SOL    HW124642   8.606   7.537   3.931
40915SOL    HW224643   8.572   7.685   3.921
40916SOL     OW24644   6.751   3.743   0.829
40916SOL    HW124645   6.713   3.755   0.741
40916SOL    HW224646   6.686   3.780   0.888
40917SOL     OW24647   9.242   3.780   9.529
40917SOL    HW124648   9.301   3.790   9.455
40917SOL    HW224649   9.165   3.735   9.493
40918SOL     OW24650  14.211  14.060   4.680
40918SOL    HW124651  14.145  14.108   4.731
40918SOL    HW224652  14.234  13.986   4.736
40919SOL     OW24653   7.510   7.208  13.747
40919SOL    HW124654   7.502   7.299  13.776
40919SOL    HW224655   7.596   7.180  13.779
40920SOL     OW24656  12.875  10.184   6.296
40920SOL    HW124657  12.895  10.254   6.357
40920SOL    HW224658  12.796  10.143   6.331
40921SOL     OW24659   9.803   6.244   2.687
40921SOL    HW124660   9.780   6.228   2.595
40921SOL    HW224661   9.834   6.334   2.689
40922SOL     OW24662   4.202   6.240   0.678
40922SOL    HW124663   4.175   6.157   0.719
40922SOL    HW224664   4.250   6.214   0.600
40923SOL     OW24665  13.471   4.421   0.743
40923SOL    HW124666  13.476   4.428   0.648
40923SOL    HW224667  13.407   4.352   0.759
40924SOL     OW24668   6.503   8.141   3.936
40924SOL    HW124669   6.444   8.066   3.934
40924SOL    HW224670   6.534   8.145   4.027
40925SOL     OW24671   2.808   6.726  14.779
40925SOL    HW124672   2.843   6.652  14.729
40925SOL    HW224673   2.825   6.803  14.725
40926SOL     OW24674  14.827  10.370   2.701
40926SOL    HW124675  14.746  10.340   2.659
40926SOL    HW224676   0.003  10.290   2.721
40927SOL     OW24677   3.480  14.257  13.432
40927SOL    HW124678   3.445  14.333  13.479
40927SOL    HW224679   3.405  14.222  13.383
40928SOL     OW24680   4.449   6.589   3.770
40928SOL    HW124681   4.449   6.506   3.819
40928SOL    HW224682   4.447   6.657   3.837
40929SOL     OW24683  10.724  14.196   9.500
40929SOL    HW124684  10.737  14.259   9.571
40929SOL    HW224685  10.634  14.165   9.512
40930SOL     OW24686  13.166   4.187   8.928
40930SOL    HW124687  13.201   4.100   8.949
40930SOL    HW224688  13.202   4.244   8.996
40931SOL     OW24689   8.036   6.432   2.061
40931SOL    HW124690   8.021   6.337   2.068
40931SOL    HW224691   7.965   6.471   2.111
40932SOL     OW24692   4.923   7.847   7.139
40932SOL    HW124693   4.997   7.852   7.200
40932SOL    HW224694   4.877   7.766   7.164
40933SOL     OW24695   1.550   6.598  12.289
40933SOL    HW124696   1.501   6.653  12.350
40933SOL    HW224697   1.524   6.629  12.203
40934SOL     OW24698   2.992   4.357   5.163
40934SOL    HW124699   2.961   4.295   5.097
40934SOL    HW224700   2.918   4.369   5.222
40935SOL     OW24701  14.132   0.786   7.254
40935SOL    HW124702  14.182   0.743   7.185
40935SOL    HW224703  14.071   0.718   7.285
40936SOL     OW24704  14.183   5.590  13.128
40936SOL    HW124705  14.111   5.613  13.070
40936SOL    HW224706  14.141   5.579  13.214
40937SOL     OW24707   7.075  10.070   9.926
40937SOL    HW124708   7.152  10.019   9.901
40937SOL    HW224709   7.101  10.161   9.915
40938SOL     OW24710   1.828  14.033  11.066
40938SOL    HW124711   1.812  14.073  11.152
40938SOL    HW224712   1.904  14.079  11.032
40939SOL     OW24713  13.939   8.077   2.953
40939SOL    HW124714  14.001   8.024   2.903
40939SOL    HW224715  13.983   8.096   3.035
40940SOL     OW24716   6.951  12.328   0.926
40940SOL    HW124717   6.932  12.250   0.873
40940SOL    HW224718   7.047  12.327   0.936
40941SOL     OW24719  13.608   6.759   3.587
40941SOL    HW124720  13.689   6.709   3.577
40941SOL    HW224721  13.624   6.839   3.537
40942SOL     OW24722  14.131   9.165   4.757
40942SOL    HW124723  14.050   9.172   4.806
40942SOL    HW224724  14.112   9.104   4.686
40943SOL     OW24725   7.966  11.381   3.046
40943SOL    HW124726   7.882  11.427   3.048
40943SOL    HW224727   7.943  11.288   3.046
40944SOL     OW24728   7.776  12.547   6.172
40944SOL    HW124729   7.836  12.619   6.192
40944SOL    HW224730   7.812  12.507   6.093
40945SOL     OW24731   8.674  13.999  10.261
40945SOL    HW124732   8.659  13.926  10.201
40945SOL    HW224733   8.734  14.056  10.214
40946SOL     OW24734   3.558   1.021   3.228
40946SOL    HW124735   3.476   1.045   3.186
40946SOL    HW224736   3.540   1.030   3.322
40947SOL     OW24737  11.394   4.447  12.604
40947SOL    HW124738  11.404   4.541  12.621
40947SOL    HW224739  11.301   4.436  12.584
40948SOL     OW24740   6.594   1.001   8.656
40948SOL    HW124741   6.519   1.053   8.628
40948SOL    HW224742   6.615   1.033   8.744
40949SOL     OW24743   6.681   0.872  14.724
40949SOL    HW124744   6.600   0.892  14.676
40949SOL    HW224745   6.691   0.777  14.715
40950SOL     OW24746   0.777  14.394   9.249
40950SOL    HW124747   0.714  14.404   9.178
40950SOL    HW224748   0.857  14.434   9.215
40951SOL     OW24749   8.488   7.704   0.856
40951SOL    HW124750   8.480   7.691   0.761
40951SOL    HW224751   8.409   7.753   0.880
40952SOL     OW24752   4.400   6.123  14.819
40952SOL    HW124753   4.476   6.147  14.766
40952SOL    HW224754   4.373   6.204  14.861
40953SOL     OW24755  12.915  12.568   5.906
40953SOL    HW124756  12.922  12.646   5.960
40953SOL    HW224757  12.915  12.495   5.968
40954SOL     OW24758   1.506   2.739   8.427
40954SOL    HW124759   1.429   2.790   8.401
40954SOL    HW224760   1.547   2.713   8.344
40955SOL     OW24761   2.927  11.271   6.414
40955SOL    HW124762   2.903  11.197   6.469
40955SOL    HW224763   3.020  11.285   6.432
40956SOL     OW24764   4.625   2.184   0.364
40956SOL    HW124765   4.615   2.215   0.274
40956SOL    HW224766   4.717   2.158   0.370
40957SOL     OW24767   8.199   7.538  12.055
40957SOL    HW124768   8.109   7.567  12.070
40957SOL    HW224769   8.246   7.618  12.029
40958SOL     OW24770   4.636   8.968   3.672
40958SOL    HW124771   4.626   9.061   3.654
40958SOL    HW224772   4.548   8.932   3.663
40959SOL     OW24773   6.844   4.313   0.771
40959SOL    HW124774   6.820   4.249   0.838
40959SOL    HW224775   6.782   4.385   0.785
40960SOL     OW24776   0.097   7.219  14.251
40960SOL    HW124777   0.008   7.203  14.221
40960SOL    HW224778   0.090   7.226  14.346
40961SOL     OW24779  10.143   7.997  14.249
40961SOL    HW124780  10.189   8.054  14.311
40961SOL    HW224781  10.213   7.952  14.202
40962SOL     OW24782   4.730   5.696   3.919
40962SOL    HW124783   4.670   5.625   3.896
40962SOL    HW224784   4.800   5.654   3.968
40963SOL     OW24785   0.719  13.168   7.604
40963SOL    HW124786   0.707  13.163   7.699
40963SOL    HW224787   0.756  13.255   7.589
40964SOL     OW24788   1.436   5.488   3.683
40964SOL    HW124789   1.511   5.487   3.742
40964SOL    HW224790   1.457   5.424   3.616
40965SOL     OW24791   1.993   8.431  12.431
40965SOL    HW124792   1.928   8.488  12.391
40965SOL    HW224793   1.985   8.449  12.525
40966SOL     OW24794   9.762   7.397   8.081
40966SOL    HW124795   9.750   7.403   8.176
40966SOL    HW224796   9.854   7.419   8.068
40967SOL     OW24797   6.142   9.731   3.204
40967SOL    HW124798   6.143   9.662   3.138
40967SOL    HW224799   6.150   9.812   3.155
40968SOL     OW24800   6.013   0.581  11.374
40968SOL    HW124801   5.944   0.523  11.408
40968SOL    HW224802   6.054   0.530  11.304
40969SOL     OW24803  10.643  12.183   8.846
40969SOL    HW124804  10.563  12.131   8.846
40969SOL    HW224805  10.633  12.241   8.770
40970SOL     OW24806   5.217  12.264   3.429
40970SOL    HW124807   5.273  12.226   3.361
40970SOL    HW224808   5.128  12.256   3.394
40971SOL     OW24809   8.197  10.139   7.984
40971SOL    HW124810   8.114  10.182   7.959
40971SOL    HW224811   8.211  10.167   8.075
40972SOL     OW24812   9.747   0.778  13.941
40972SOL    HW124813   9.835   0.765  13.976
40972SOL    HW224814   9.760   0.789  13.846
40973SOL     OW24815   6.533   2.850  11.663
40973SOL    HW124816   6.479   2.918  11.624
40973SOL    HW224817   6.517   2.857  11.757
40974SOL     OW24818   2.924   7.246  13.186
40974SOL    HW124819   2.859   7.310  13.216
40974SOL    HW224820   3.007   7.294  13.185
40975SOL     OW24821   2.488   2.892   7.662
40975SOL    HW124822   2.447   2.896   7.576
40975SOL    HW224823   2.575   2.929   7.649
40976SOL     OW24824   9.080  13.548  10.045
40976SOL    HW124825   9.049  13.575   9.959
40976SOL    HW224826   9.065  13.625  10.101
40977SOL     OW24827   6.012   8.249   2.435
40977SOL    HW124828   6.053   8.165   2.415
40977SOL    HW224829   6.023   8.301   2.356
40978SOL     OW24830  10.168   6.779  11.700
40978SOL    HW124831  10.197   6.841  11.767
40978SOL    HW224832  10.106   6.828  11.646
40979SOL     OW24833  13.728   9.653  12.147
40979SOL    HW124834  13.713   9.719  12.215
40979SOL    HW224835  13.673   9.579  12.174
40980SOL     OW24836   7.416   8.141   6.674
40980SOL    HW124837   7.475   8.166   6.745
40980SOL    HW224838   7.464   8.163   6.594
40981SOL     OW24839   9.943   7.236   1.782
40981SOL    HW124840   9.953   7.295   1.857
40981SOL    HW224841  10.026   7.245   1.734
40982SOL     OW24842  10.336  14.738  11.440
40982SOL    HW124843  10.379  14.708  11.360
40982SOL    HW224844  10.352  14.832  11.442
40983SOL     OW24845  10.699   6.224   1.892
40983SOL    HW124846  10.786   6.244   1.857
40983SOL    HW224847  10.683   6.293   1.957
40984SOL     OW24848  13.435   0.680   7.384
40984SOL    HW124849  13.462   0.589   7.369
40984SOL    HW224850  13.350   0.687   7.342
40985SOL     OW24851  11.740  12.907   4.041
40985SOL    HW124852  11.718  13.000   4.041
40985SOL    HW224853  11.821  12.901   3.990
40986SOL     OW24854  12.335   0.094   9.994
40986SOL    HW124855  12.335   0.119  10.086
40986SOL    HW224856  12.408   0.032   9.986
40987SOL     OW24857   2.599   9.420  12.068
40987SOL    HW124858   2.649   9.399  12.147
40987SOL    HW224859   2.656   9.392  11.996
40988SOL     OW24860  13.448   4.928  10.007
40988SOL    HW124861  13.385   4.857   9.998
40988SOL    HW224862  13.532   4.883  10.019
40989SOL     OW24863   4.696   8.496   8.985
40989SOL    HW124864   4.705   8.434   9.058
40989SOL    HW224865   4.785   8.529   8.970
40990SOL     OW24866   7.868  14.719   8.605
40990SOL    HW124867   7.854  14.695   8.513
40990SOL    HW224868   7.813  14.659   8.654
40991SOL     OW24869   3.790   5.855   0.954
40991SOL    HW124870   3.792   5.769   0.994
40991SOL    HW224871   3.882   5.884   0.957
40992SOL     OW24872  14.262  13.449   2.705
40992SOL    HW124873  14.318  13.394   2.650
40992SOL    HW224874  14.240  13.523   2.649
40993SOL     OW24875   2.852  14.581  12.117
40993SOL    HW124876   2.916  14.626  12.172
40993SOL    HW224877   2.865  14.488  12.136
40994SOL     OW24878   3.287   6.722   2.242
40994SOL    HW124879   3.279   6.765   2.156
40994SOL    HW224880   3.249   6.786   2.303
40995SOL     OW24881   1.107   7.419  14.418
40995SOL    HW124882   1.046   7.490  14.437
40995SOL    HW224883   1.142   7.394  14.503
40996SOL     OW24884   2.902  11.971  13.075
40996SOL    HW124885   2.909  11.939  12.985
40996SOL    HW224886   2.840  12.044  13.070
40997SOL     OW24887   9.854  10.203  10.043
40997SOL    HW124888   9.798  10.253   9.983
40997SOL    HW224889   9.911  10.152   9.985
40998SOL     OW24890   8.832   6.987   8.992
40998SOL    HW124891   8.737   6.974   8.981
40998SOL    HW224892   8.872   6.931   8.925
40999SOL     OW24893   2.509  10.249   3.606
40999SOL    HW124894   2.490  10.159   3.631
40999SOL    HW224895   2.432  10.277   3.556
41000SOL     OW24896  13.581   5.783   1.329
41000SOL    HW124897  13.554   5.820   1.413
41000SOL    HW224898  13.614   5.858   1.279
41001SOL     OW24899   3.133   7.897  12.477
41001SOL    HW124900   3.202   7.876  12.413
41001SOL    HW224901   3.177   7.951  12.543
41002SOL     OW24902   3.184  10.542   5.417
41002SOL    HW124903   3.104  10.594   5.412
41002SOL    HW224904   3.160  10.467   5.473
41003SOL     OW24905  14.627   5.842  14.619
41003SOL    HW124906  14.701   5.802  14.573
41003SOL    HW224907  14.550   5.799  14.583
41004SOL     OW24908   3.686  12.742  13.699
41004SOL    HW124909   3.708  12.712  13.611
41004SOL    HW224910   3.591  12.731  13.705
41005SOL     OW24911   4.347   6.847   5.102
41005SOL    HW124912   4.263   6.880   5.072
41005SOL    HW224913   4.378   6.913   5.164
41006SOL     OW24914   7.904  10.740   2.562
41006SOL    HW124915   7.903  10.657   2.515
41006SOL    HW224916   7.955  10.799   2.507
41007SOL     OW24917   2.901   4.523   1.789
41007SOL    HW124918   2.944   4.438   1.796
41007SOL    HW224919   2.824   4.506   1.735
41008SOL     OW24920  12.958   2.171   8.667
41008SOL    HW124921  12.949   2.172   8.572
41008SOL    HW224922  12.925   2.256   8.696
41009SOL     OW24923  10.719   7.955   7.777
41009SOL    HW124924  10.698   7.862   7.780
41009SOL    HW224925  10.733   7.979   7.869
41010SOL     OW24926  12.945  14.356  13.782
41010SOL    HW124927  12.960  14.450  13.771
41010SOL    HW224928  12.857  14.349  13.819
41011SOL     OW24929   7.173   3.823   0.676
41011SOL    HW124930   7.244   3.811   0.740
41011SOL    HW224931   7.119   3.894   0.713
41012SOL     OW24932   2.049   3.747  12.021
41012SOL    HW124933   2.061   3.702  11.937
41012SOL    HW224934   2.104   3.825  12.013
41013SOL     OW24935  14.597  11.580   0.112
41013SOL    HW124936  14.528  11.515   0.102
41013SOL    HW224937  14.555  11.652   0.159
41014SOL     OW24938   8.553   8.717  14.311
41014SOL    HW124939   8.495   8.776  14.262
41014SOL    HW224940   8.640   8.733  14.274
41015SOL     OW24941   2.729  14.679   8.691
41015SOL    HW124942   2.680  14.699   8.611
41015SOL    HW224943   2.798  14.619   8.663
41016SOL     OW24944   4.758  13.237   0.629
41016SOL    HW124945   4.678  13.250   0.577
41016SOL    HW224946   4.776  13.144   0.621
41017SOL     OW24947  14.289  10.021   4.690
41017SOL    HW124948  14.228  10.039   4.618
41017SOL    HW224949  14.241  10.045   4.769
41018SOL     OW24950   2.436  10.903   1.186
41018SOL    HW124951   2.378  10.829   1.204
41018SOL    HW224952   2.523  10.866   1.181
41019SOL     OW24953  11.316   2.411  14.069
41019SOL    HW124954  11.248   2.434  14.006
41019SOL    HW224955  11.287   2.450  14.151
41020SOL     OW24956   4.146  12.421   6.427
41020SOL    HW124957   4.168  12.345   6.374
41020SOL    HW224958   4.121  12.386   6.512
41021SOL     OW24959   6.865  10.940   9.779
41021SOL    HW124960   6.932  10.941   9.848
41021SOL    HW224961   6.915  10.935   9.697
41022SOL     OW24962  13.786  12.118   1.544
41022SOL    HW124963  13.697  12.083   1.531
41022SOL    HW224964  13.829  12.104   1.460
41023SOL     OW24965   4.107   6.987  14.359
41023SOL    HW124966   4.033   7.037  14.324
41023SOL    HW224967   4.079   6.960  14.446
41024SOL     OW24968   3.790   3.233   3.690
41024SOL    HW124969   3.794   3.251   3.784
41024SOL    HW224970   3.697   3.236   3.669
41025SOL     OW24971   8.680  12.824   3.512
41025SOL    HW124972   8.670  12.747   3.457
41025SOL    HW224973   8.647  12.797   3.598
41026SOL     OW24974  11.579   3.677   9.791
41026SOL    HW124975  11.569   3.595   9.838
41026SOL    HW224976  11.505   3.731   9.819
41027SOL     OW24977   5.225  10.007   1.397
41027SOL    HW124978   5.224   9.919   1.435
41027SOL    HW224979   5.317  10.023   1.376
41028SOL     OW24980   5.370   1.933   6.965
41028SOL    HW124981   5.321   1.909   6.886
41028SOL    HW224982   5.304   1.935   7.034
41029SOL     OW24983  13.488   0.755  13.286
41029SOL    HW124984  13.497   0.754  13.190
41029SOL    HW224985  13.397   0.727  13.301
41030SOL     OW24986   5.387   2.143  11.526
41030SOL    HW124987   5.424   2.231  11.522
41030SOL    HW224988   5.433   2.094  11.458
41031SOL     OW24989   5.138  11.251  11.981
41031SOL    HW124990   5.232  11.264  11.993
41031SOL    HW224991   5.122  11.162  12.012
41032SOL     OW24992   6.193   0.665   6.254
41032SOL    HW124993   6.122   0.723   6.228
41032SOL    HW224994   6.181   0.586   6.201
41033SOL     OW24995   5.720   3.166  13.229
41033SOL    HW124996   5.721   3.211  13.144
41033SOL    HW224997   5.808   3.132  13.240
41034SOL     OW24998   5.855   6.413   3.883
41034SOL    HW124999   5.788   6.404   3.816
41034SOL    HW225000   5.914   6.340   3.869
41035SOL     OW25001   9.920   8.281   8.051
41035SOL    HW125002   9.958   8.355   8.003
41035SOL    HW225003   9.981   8.265   8.123
41036SOL     OW25004   2.656   4.695  14.688
41036SOL    HW125005   2.719   4.635  14.648
41036SOL    HW225006   2.707   4.744  14.752
41037SOL     OW25007   1.018  13.897   3.918
41037SOL    HW125008   1.105  13.859   3.932
41037SOL    HW225009   0.974  13.885   4.002
41038SOL     OW25010   4.810   1.691   5.773
41038SOL    HW125011   4.792   1.654   5.687
41038SOL    HW225012   4.898   1.659   5.795
41039SOL     OW25013  11.770   3.914   7.042
41039SOL    HW125014  11.726   3.993   7.075
41039SOL    HW225015  11.792   3.935   6.951
41040SOL     OW25016   6.956   3.761  13.353
41040SOL    HW125017   7.027   3.825  13.357
41040SOL    HW225018   7.000   3.678  13.333
41041SOL     OW25019   6.077  12.411  12.721
41041SOL    HW125020   6.010  12.421  12.653
41041SOL    HW225021   6.028  12.395  12.801
41042SOL     OW25022  13.807   7.154  13.235
41042SOL    HW125023  13.723   7.198  13.240
41042SOL    HW225024  13.857   7.187  13.309
41043SOL     OW25025   7.138   9.502   1.131
41043SOL    HW125026   7.178   9.425   1.090
41043SOL    HW225027   7.053   9.470   1.163
41044SOL     OW25028  14.009  11.447   0.014
41044SOL    HW125029  13.978  11.520  14.833
41044SOL    HW225030  13.980  11.369  14.840
41045SOL     OW25031  10.393   1.258   5.842
41045SOL    HW125032  10.453   1.190   5.811
41045SOL    HW225033  10.357   1.296   5.762
41046SOL     OW25034   7.883   3.372   2.368
41046SOL    HW125035   7.799   3.388   2.411
41046SOL    HW225036   7.892   3.277   2.368
41047SOL     OW25037   8.739   9.576   5.830
41047SOL    HW125038   8.819   9.579   5.777
41047SOL    HW225039   8.669   9.557   5.767
41048SOL     OW25040   4.529   3.368  14.465
41048SOL    HW125041   4.531   3.455  14.506
41048SOL    HW225042   4.527   3.307  14.539
41049SOL     OW25043   8.585   6.486   0.292
41049SOL    HW125044   8.590   6.573   0.253
41049SOL    HW225045   8.531   6.498   0.370
41050SOL     OW25046   7.036   2.387  12.760
41050SOL    HW125047   6.994   2.309  12.724
41050SOL    HW225048   6.970   2.426  12.817
41051SOL     OW25049   3.618   9.961   0.280
41051SOL    HW125050   3.622   9.897   0.209
41051SOL    HW225051   3.641  10.044   0.238
41052SOL     OW25052  11.197   0.131  14.310
41052SOL    HW125053  11.126   0.072  14.335
41052SOL    HW225054  11.177   0.155  14.219
41053SOL     OW25055   9.349   2.144   9.097
41053SOL    HW125056   9.395   2.095   9.029
41053SOL    HW225057   9.294   2.207   9.048
41054SOL     OW25058  11.893   2.313   4.233
41054SOL    HW125059  11.840   2.280   4.160
41054SOL    HW225060  11.838   2.300   4.311
41055SOL     OW25061  11.887   4.506  13.921
41055SOL    HW125062  11.865   4.417  13.891
41055SOL    HW225063  11.871   4.504  14.015
41056SOL     OW25064   7.988   5.363   2.342
41056SOL    HW125065   8.083   5.371   2.334
41056SOL    HW225066   7.957   5.453   2.341
41057SOL     OW25067  10.555   8.929  12.376
41057SOL    HW125068  10.560   8.917  12.281
41057SOL    HW225069  10.616   8.865  12.412
41058SOL     OW25070   6.853   8.289   2.506
41058SOL    HW125071   6.946   8.275   2.528
41058SOL    HW225072   6.822   8.350   2.573
41059SOL     OW25073   9.017   8.108   0.556
41059SOL    HW125074   8.966   8.087   0.478
41059SOL    HW225075   9.004   8.202   0.569
41060SOL     OW25076   3.392   6.514   8.072
41060SOL    HW125077   3.315   6.561   8.104
41060SOL    HW225078   3.462   6.540   8.132
41061SOL     OW25079  12.899  11.731  10.947
41061SOL    HW125080  12.876  11.647  10.908
41061SOL    HW225081  12.985  11.716  10.988
41062SOL     OW25082   9.485  13.219  10.243
41062SOL    HW125083   9.397  13.219  10.279
41062SOL    HW225084   9.472  13.216  10.148
41063SOL     OW25085   3.862   6.062   6.993
41063SOL    HW125086   3.826   6.146   7.019
41063SOL    HW225087   3.789   6.000   7.000
41064SOL     OW25088  10.172   7.372  10.150
41064SOL    HW125089  10.192   7.360  10.242
41064SOL    HW225090  10.121   7.454  10.147
41065SOL     OW25091  11.558   7.535  13.573
41065SOL    HW125092  11.604   7.563  13.653
41065SOL    HW225093  11.576   7.605  13.510
41066SOL     OW25094  13.730   7.526  13.865
41066SOL    HW125095  13.795   7.490  13.925
41066SOL    HW225096  13.692   7.600  13.912
41067SOL     OW25097   3.251   1.598  12.097
41067SOL    HW125098   3.207   1.566  12.176
41067SOL    HW225099   3.342   1.611  12.123
41068SOL     OW25100   2.724   7.247  14.820
41068SOL    HW125101   2.648   7.271  14.767
41068SOL    HW225102   2.784   7.321  14.810
41069SOL     OW25103   1.343   0.458  14.621
41069SOL    HW125104   1.275   0.415  14.673
41069SOL    HW225105   1.387   0.516  14.684
41070SOL     OW25106   9.355  12.366   6.975
41070SOL    HW125107   9.300  12.443   6.961
41070SOL    HW225108   9.300  12.292   6.949
41071SOL     OW25109  11.149   5.865   7.704
41071SOL    HW125110  11.201   5.944   7.719
41071SOL    HW225111  11.160   5.847   7.610
41072SOL     OW25112   2.494   8.795   3.540
41072SOL    HW125113   2.528   8.862   3.600
41072SOL    HW225114   2.408   8.773   3.577
41073SOL     OW25115  12.181   9.665   3.476
41073SOL    HW125116  12.092   9.683   3.506
41073SOL    HW225117  12.192   9.719   3.398
41074SOL     OW25118  14.730   6.870   9.658
41074SOL    HW125119  14.755   6.781   9.681
41074SOL    HW225120  14.704   6.910   9.741
41075SOL     OW25121  13.545   8.899   6.521
41075SOL    HW125122  13.470   8.843   6.536
41075SOL    HW225123  13.539   8.924   6.429
41076SOL     OW25124  13.721   0.340   2.282
41076SOL    HW125125  13.789   0.407   2.293
41076SOL    HW225126  13.767   0.265   2.244
41077SOL     OW25127   3.816  14.018  14.308
41077SOL    HW125128   3.904  14.052  14.321
41077SOL    HW225129   3.788  14.054  14.223
41078SOL     OW25130   2.018  11.929   1.462
41078SOL    HW125131   1.979  11.947   1.376
41078SOL    HW225132   1.950  11.881   1.509
41079SOL     OW25133  12.711   9.182   8.531
41079SOL    HW125134  12.805   9.164   8.526
41079SOL    HW225135  12.679   9.122   8.599
41080SOL     OW25136  10.457  14.791   7.120
41080SOL    HW125137  10.369  14.764   7.095
41080SOL    HW225138  10.446   0.006   7.158
41081SOL     OW25139   9.731   0.607  13.381
41081SOL    HW125140   9.757   0.536  13.439
41081SOL    HW225141   9.782   0.593  13.301
41082SOL     OW25142   9.834   2.284   1.439
41082SOL    HW125143   9.818   2.355   1.500
41082SOL    HW225144   9.748   2.266   1.400
41083SOL     OW25145  10.548  14.123  14.633
41083SOL    HW125146  10.636  14.130  14.596
41083SOL    HW225147  10.511  14.046  14.590
41084SOL     OW25148   3.449   0.056   0.811
41084SOL    HW125149   3.421  14.844   0.847
41084SOL    HW225150   3.382   0.118   0.839
41085SOL     OW25151   4.619   4.644   4.199
41085SOL    HW125152   4.523   4.636   4.199
41085SOL    HW225153   4.638   4.703   4.127
41086SOL     OW25154   5.779   0.979   4.234
41086SOL    HW125155   5.712   1.046   4.250
41086SOL    HW225156   5.775   0.921   4.309
41087SOL     OW25157  12.351   3.342  10.943
41087SOL    HW125158  12.392   3.280  10.883
41087SOL    HW225159  12.377   3.428  10.910
41088SOL     OW25160   6.240  12.137  13.610
41088SOL    HW125161   6.227  12.171  13.521
41088SOL    HW225162   6.332  12.154  13.629
41089SOL     OW25163   4.768   6.182   0.363
41089SOL    HW125164   4.800   6.109   0.310
41089SOL    HW225165   4.835   6.249   0.355
41090SOL     OW25166  10.531   1.260   8.924
41090SOL    HW125167  10.496   1.174   8.898
41090SOL    HW225168  10.549   1.304   8.841
41091SOL     OW25169  11.376   9.360   1.697
41091SOL    HW125170  11.281   9.369   1.693
41091SOL    HW225171  11.403   9.416   1.769
41092SOL     OW25172   3.953   0.109   7.214
41092SOL    HW125173   3.958   0.205   7.208
41092SOL    HW225174   3.926   0.092   7.304
41093SOL     OW25175  14.712  11.952   9.857
41093SOL    HW125176  14.685  12.044   9.855
41093SOL    HW225177  14.769  11.946   9.933
41094SOL     OW25178  12.501  12.683   3.069
41094SOL    HW125179  12.454  12.601   3.082
41094SOL    HW225180  12.546  12.698   3.153
41095SOL     OW25181   3.300   9.768   3.502
41095SOL    HW125182   3.345   9.756   3.586
41095SOL    HW225183   3.354   9.831   3.455
41096SOL     OW25184   3.019   9.433   1.503
41096SOL    HW125185   3.003   9.383   1.583
41096SOL    HW225186   3.088   9.386   1.458
41097SOL     OW25187   1.180   2.161   3.166
41097SOL    HW125188   1.185   2.170   3.261
41097SOL    HW225189   1.260   2.114   3.141
41098SOL     OW25190   2.263   2.594   6.787
41098SOL    HW125191   2.255   2.565   6.878
41098SOL    HW225192   2.285   2.687   6.793
41099SOL     OW25193   9.771   0.386   2.285
41099SOL    HW125194   9.750   0.341   2.367
41099SOL    HW225195   9.851   0.435   2.304
41100SOL     OW25196   4.949   3.438   1.437
41100SOL    HW125197   4.970   3.364   1.380
41100SOL    HW225198   4.980   3.411   1.524
41101SOL     OW25199   2.528   9.405   8.627
41101SOL    HW125200   2.525   9.390   8.533
41101SOL    HW225201   2.436   9.414   8.653
41102SOL     OW25202   5.161   4.799   9.278
41102SOL    HW125203   5.216   4.797   9.357
41102SOL    HW225204   5.192   4.725   9.226
41103SOL     OW25205  13.429  14.163  11.986
41103SOL    HW125206  13.442  14.231  12.053
41103SOL    HW225207  13.510  14.112  11.988
41104SOL     OW25208   8.308  12.438   8.882
41104SOL    HW125209   8.270  12.476   8.803
41104SOL    HW225210   8.386  12.391   8.852
41105SOL     OW25211   1.988   0.097  11.545
41105SOL    HW125212   2.008   0.182  11.507
41105SOL    HW225213   2.073   0.061  11.569
41106SOL     OW25214  11.949  11.049  11.449
41106SOL    HW125215  11.993  11.043  11.534
41106SOL    HW225216  11.987  10.978  11.397
41107SOL     OW25217   5.750   7.588   0.081
41107SOL    HW125218   5.818   7.612   0.018
41107SOL    HW225219   5.764   7.646   0.156
41108SOL     OW25220   4.309  13.181   8.469
41108SOL    HW125221   4.372  13.253   8.464
41108SOL    HW225222   4.348  13.111   8.418
41109SOL     OW25223  12.746   1.688   3.602
41109SOL    HW125224  12.651   1.693   3.601
41109SOL    HW225225  12.770   1.647   3.519
41110SOL     OW25226   7.284  10.044   4.160
41110SOL    HW125227   7.222  10.014   4.227
41110SOL    HW225228   7.246  10.014   4.077
41111SOL     OW25229   8.376   8.486   2.351
41111SOL    HW125230   8.283   8.464   2.341
41111SOL    HW225231   8.420   8.438   2.281
41112SOL     OW25232  13.168   6.535   7.035
41112SOL    HW125233  13.186   6.507   6.945
41112SOL    HW225234  13.181   6.630   7.033
41113SOL     OW25235   9.746   5.930   1.337
41113SOL    HW125236   9.743   5.839   1.307
41113SOL    HW225237   9.774   5.980   1.260
41114SOL     OW25238   4.692   5.181  13.827
41114SOL    HW125239   4.699   5.213  13.738
41114SOL    HW225240   4.670   5.258  13.879
41115SOL     OW25241   7.248   7.533   8.083
41115SOL    HW125242   7.176   7.471   8.069
41115SOL    HW225243   7.277   7.515   8.172
41116SOL     OW25244  11.925  13.681   0.780
41116SOL    HW125245  11.842  13.637   0.762
41116SOL    HW225246  11.911  13.772   0.755
41117SOL     OW25247  11.400  13.470   1.604
41117SOL    HW125248  11.387  13.379   1.580
41117SOL    HW225249  11.333  13.518   1.556
41118SOL     OW25250   2.016   0.908   5.443
41118SOL    HW125251   2.087   0.927   5.382
41118SOL    HW225252   1.965   0.988   5.446
41119SOL     OW25253   4.482   4.675   8.681
41119SOL    HW125254   4.537   4.753   8.691
41119SOL    HW225255   4.510   4.617   8.752
41120SOL     OW25256   1.452   1.341   1.787
41120SOL    HW125257   1.379   1.282   1.773
41120SOL    HW225258   1.516   1.290   1.836
41121SOL     OW25259   9.892  13.443   1.204
41121SOL    HW125260   9.927  13.501   1.271
41121SOL    HW225261   9.858  13.368   1.253
41122SOL     OW25262  10.412   9.317  13.110
41122SOL    HW125263  10.502   9.311  13.078
41122SOL    HW225264  10.387   9.227  13.129
41123SOL     OW25265   3.139   7.461  11.891
41123SOL    HW125266   3.191   7.531  11.929
41123SOL    HW225267   3.198   7.385  11.891
41124SOL     OW25268   9.115   1.170  10.659
41124SOL    HW125269   9.164   1.250  10.638
41124SOL    HW225270   9.046   1.166  10.592
41125SOL     OW25271   9.404  11.381   2.041
41125SOL    HW125272   9.384  11.287   2.043
41125SOL    HW225273   9.498  11.386   2.056
41126SOL     OW25274   7.950   1.837  11.479
41126SOL    HW125275   7.926   1.910  11.422
41126SOL    HW225276   8.033   1.863  11.518
41127SOL     OW25277  10.423   4.959  10.571
41127SOL    HW125278  10.405   4.901  10.497
41127SOL    HW225279  10.353   5.023  10.570
41128SOL     OW25280   1.666   3.142   4.913
41128SOL    HW125281   1.579   3.102   4.922
41128SOL    HW225282   1.649   3.232   4.885
41129SOL     OW25283   0.622  11.941   4.687
41129SOL    HW125284   0.556  11.877   4.714
41129SOL    HW225285   0.633  11.998   4.763
41130SOL     OW25286   7.712  11.048  14.797
41130SOL    HW125287   7.694  10.972  14.853
41130SOL    HW225288   7.629  11.096  14.795
41131SOL     OW25289  10.489   5.187   8.581
41131SOL    HW125290  10.513   5.227   8.664
41131SOL    HW225291  10.396   5.165   8.590
41132SOL     OW25292  10.854   2.286   9.947
41132SOL    HW125293  10.775   2.261   9.898
41132SOL    HW225294  10.922   2.227   9.914
41133SOL     OW25295   4.620   0.997   3.621
41133SOL    HW125296   4.657   0.911   3.600
41133SOL    HW225297   4.529   0.979   3.644
41134SOL     OW25298   7.468   5.394   3.834
41134SOL    HW125299   7.421   5.312   3.845
41134SOL    HW225300   7.469   5.433   3.922
41135SOL     OW25301  13.668   1.006  11.609
41135SOL    HW125302  13.725   0.931  11.597
41135SOL    HW225303  13.612   0.981  11.683
41136SOL     OW25304  12.765   7.690   8.238
41136SOL    HW125305  12.806   7.642   8.309
41136SOL    HW225306  12.736   7.623   8.177
41137SOL     OW25307   5.349  14.575   5.556
41137SOL    HW125308   5.406  14.554   5.630
41137SOL    HW225309   5.280  14.509   5.560
41138SOL     OW25310   3.535   5.516   5.817
41138SOL    HW125311   3.543   5.431   5.774
41138SOL    HW225312   3.580   5.577   5.759
41139SOL     OW25313   0.797  13.265   8.328
41139SOL    HW125314   0.716  13.237   8.286
41139SOL    HW225315   0.851  13.299   8.257
41140SOL     OW25316  10.776   8.319   9.125
41140SOL    HW125317  10.761   8.374   9.201
41140SOL    HW225318  10.691   8.314   9.081
41141SOL     OW25319  14.149   8.072  10.676
41141SOL    HW125320  14.196   8.149  10.707
41141SOL    HW225321  14.099   8.104  10.601
41142SOL     OW25322   9.560  11.137  13.789
41142SOL    HW125323   9.642  11.187  13.789
41142SOL    HW225324   9.530  11.140  13.699
41143SOL     OW25325   2.038  14.295   4.423
41143SOL    HW125326   1.956  14.335   4.450
41143SOL    HW225327   2.049  14.220   4.483
41144SOL     OW25328   2.204  10.139   7.146
41144SOL    HW125329   2.153  10.196   7.088
41144SOL    HW225330   2.146  10.066   7.167
41145SOL     OW25331   5.348  14.775  10.941
41145SOL    HW125332   5.335  14.851  10.884
41145SOL    HW225333   5.292  14.793  11.017
41146SOL     OW25334   7.362   8.247   4.089
41146SOL    HW125335   7.441   8.260   4.142
41146SOL    HW225336   7.307   8.323   4.107
41147SOL     OW25337   7.097  13.485   9.555
41147SOL    HW125338   7.083  13.393   9.577
41147SOL    HW225339   7.163  13.515   9.617
41148SOL     OW25340  10.058   6.130   4.392
41148SOL    HW125341  10.108   6.160   4.468
41148SOL    HW225342  10.000   6.062   4.425
41149SOL     OW25343   4.643   5.709  14.717
41149SOL    HW125344   4.673   5.652  14.647
41149SOL    HW225345   4.616   5.790  14.672
41150SOL     OW25346   5.739   9.764   3.663
41150SOL    HW125347   5.668   9.738   3.722
41150SOL    HW225348   5.710   9.734   3.576
41151SOL     OW25349   5.335  12.038  12.256
41151SOL    HW125350   5.268  11.975  12.226
41151SOL    HW225351   5.358  12.087  12.177
41152SOL     OW25352  11.069   6.166   1.588
41152SOL    HW125353  11.080   6.136   1.498
41152SOL    HW225354  11.032   6.254   1.580
41153SOL     OW25355   4.426  12.953   3.333
41153SOL    HW125356   4.337  12.944   3.299
41153SOL    HW225357   4.430  12.893   3.407
41154SOL     OW25358   5.204   3.008  12.680
41154SOL    HW125359   5.277   2.986  12.622
41154SOL    HW225360   5.234   3.086  12.728
41155SOL     OW25361   4.585  12.002   1.207
41155SOL    HW125362   4.498  11.983   1.243
41155SOL    HW225363   4.625  12.062   1.270
41156SOL     OW25364   4.130   5.603   9.818
41156SOL    HW125365   4.201   5.667   9.828
41156SOL    HW225366   4.149   5.535   9.883
41157SOL     OW25367  12.959   3.424  11.118
41157SOL    HW125368  12.927   3.487  11.183
41157SOL    HW225369  12.904   3.347  11.131
41158SOL     OW25370   0.625   3.388   8.156
41158SOL    HW125371   0.635   3.386   8.060
41158SOL    HW225372   0.559   3.456   8.171
41159SOL     OW25373  14.132   8.123   8.984
41159SOL    HW125374  14.196   8.173   9.034
41159SOL    HW225375  14.074   8.189   8.946
41160SOL     OW25376  13.757   7.821   0.525
41160SOL    HW125377  13.772   7.820   0.431
41160SOL    HW225378  13.843   7.831   0.564
41161SOL     OW25379  11.761  12.898   0.203
41161SOL    HW125380  11.752  12.940   0.117
41161SOL    HW225381  11.687  12.931   0.254
41162SOL     OW25382   6.532   2.779   3.117
41162SOL    HW125383   6.582   2.698   3.125
41162SOL    HW225384   6.513   2.804   3.208
41163SOL     OW25385  10.720   8.242   8.264
41163SOL    HW125386  10.716   8.274   8.174
41163SOL    HW225387  10.714   8.321   8.318
41164SOL     OW25388   8.820  12.020   9.681
41164SOL    HW125389   8.843  12.109   9.710
41164SOL    HW225390   8.898  11.968   9.699
41165SOL     OW25391  13.044  10.669   5.288
41165SOL    HW125392  13.032  10.751   5.334
41165SOL    HW225393  13.122  10.630   5.328
41166SOL     OW25394  10.604   3.140  11.463
41166SOL    HW125395  10.684   3.160  11.512
41166SOL    HW225396  10.619   3.053  11.426
41167SOL     OW25397   1.968   6.171   8.026
41167SOL    HW125398   1.873   6.179   8.016
41167SOL    HW225399   1.994   6.110   7.957
41168SOL     OW25400   5.734  11.857  13.438
41168SOL    HW125401   5.684  11.888  13.514
41168SOL    HW225402   5.714  11.920  13.369
41169SOL     OW25403   6.628   3.954   6.053
41169SOL    HW125404   6.627   4.014   6.127
41169SOL    HW225405   6.718   3.920   6.050
41170SOL     OW25406  11.908  12.260  14.738
41170SOL    HW125407  11.994  12.302  14.749
41170SOL    HW225408  11.908  12.230  14.647
41171SOL     OW25409   6.403   7.715  13.310
41171SOL    HW125410   6.386   7.650  13.243
41171SOL    HW225411   6.438   7.665  13.384
41172SOL     OW25412   3.163   2.396   4.992
41172SOL    HW125413   3.072   2.379   4.970
41172SOL    HW225414   3.207   2.406   4.908
41173SOL     OW25415   6.536   2.860   4.657
41173SOL    HW125416   6.625   2.827   4.663
41173SOL    HW225417   6.535   2.914   4.578
41174SOL     OW25418   3.261  12.408   6.801
41174SOL    HW125419   3.311  12.331   6.830
41174SOL    HW225420   3.183  12.371   6.759
41175SOL     OW25421   8.885   5.877   3.477
41175SOL    HW125422   8.979   5.865   3.492
41175SOL    HW225423   8.875   5.970   3.459
41176SOL     OW25424   6.357   8.199   8.716
41176SOL    HW125425   6.343   8.182   8.810
41176SOL    HW225426   6.309   8.280   8.700
41177SOL     OW25427   9.939   6.838  13.609
41177SOL    HW125428   9.961   6.751  13.575
41177SOL    HW225429   9.878   6.822  13.680
41178SOL     OW25430   4.608   2.136  10.168
41178SOL    HW125431   4.559   2.099  10.241
41178SOL    HW225432   4.543   2.181  10.114
41179SOL     OW25433   7.553   0.410   2.470
41179SOL    HW125434   7.504   0.358   2.407
41179SOL    HW225435   7.487   0.443   2.531
41180SOL     OW25436  14.683   1.549   3.347
41180SOL    HW125437  14.704   1.496   3.270
41180SOL    HW225438  14.695   1.489   3.421
41181SOL     OW25439   3.769  12.170   0.601
41181SOL    HW125440   3.802  12.255   0.572
41181SOL    HW225441   3.802  12.108   0.536
41182SOL     OW25442   0.242   4.553   7.178
41182SOL    HW125443   0.209   4.487   7.117
41182SOL    HW225444   0.309   4.508   7.228
41183SOL     OW25445  11.040   0.277   7.451
41183SOL    HW125446  11.131   0.270   7.422
41183SOL    HW225447  11.017   0.188   7.479
41184SOL     OW25448  11.286  13.165   4.729
41184SOL    HW125449  11.259  13.080   4.696
41184SOL    HW225450  11.336  13.146   4.808
41185SOL     OW25451   5.986   0.249  11.276
41185SOL    HW125452   5.954   0.303  11.203
41185SOL    HW225453   5.937   0.281  11.352
41186SOL     OW25454   7.609   8.132  14.752
41186SOL    HW125455   7.630   8.042  14.727
41186SOL    HW225456   7.669   8.185  14.701
41187SOL     OW25457   4.489   3.181   5.877
41187SOL    HW125458   4.462   3.097   5.838
41187SOL    HW225459   4.436   3.189   5.956
41188SOL     OW25460   7.639   2.908   1.210
41188SOL    HW125461   7.731   2.926   1.193
41188SOL    HW225462   7.634   2.813   1.219
41189SOL     OW25463   0.936  11.629  10.445
41189SOL    HW125464   0.973  11.713  10.473
41189SOL    HW225465   1.001  11.593  10.385
41190SOL     OW25466  14.508   4.911   4.956
41190SOL    HW125467  14.563   4.939   5.031
41190SOL    HW225468  14.516   4.816   4.955
41191SOL     OW25469   0.704   0.028   3.891
41191SOL    HW125470   0.627   0.078   3.917
41191SOL    HW225471   0.777   0.071   3.935
41192SOL     OW25472   3.322   9.755  12.379
41192SOL    HW125473   3.254   9.802  12.330
41192SOL    HW225474   3.310   9.784  12.470
41193SOL     OW25475  12.479   4.855  14.367
41193SOL    HW125476  12.465   4.800  14.444
41193SOL    HW225477  12.504   4.794  14.298
41194SOL     OW25478   7.399   0.809  11.910
41194SOL    HW125479   7.471   0.762  11.952
41194SOL    HW225480   7.439   0.851  11.834
41195SOL     OW25481   7.559   2.403   9.637
41195SOL    HW125482   7.531   2.385   9.727
41195SOL    HW225483   7.504   2.347   9.583
41196SOL     OW25484  12.669  12.878   6.042
41196SOL    HW125485  12.679  12.783   6.040
41196SOL    HW225486  12.707  12.905   6.125
41197SOL     OW25487  13.331   7.119  10.638
41197SOL    HW125488  13.257   7.176  10.616
41197SOL    HW225489  13.289   7.039  10.672
41198SOL     OW25490   5.990   1.704   8.231
41198SOL    HW125491   5.915   1.645   8.239
41198SOL    HW225492   5.954   1.790   8.252
41199SOL     OW25493  14.054  13.402   6.483
41199SOL    HW125494  14.057  13.414   6.578
41199SOL    HW225495  14.072  13.489   6.447
41200SOL     OW25496   5.002   2.884   3.219
41200SOL    HW125497   4.913   2.853   3.236
41200SOL    HW225498   5.029   2.836   3.140
41201SOL     OW25499   7.971   9.000  14.855
41201SOL    HW125500   8.010   9.018   0.068
41201SOL    HW225501   8.034   9.034  14.792
41202SOL     OW25502  14.078   2.016  10.004
41202SOL    HW125503  14.086   1.946   9.939
41202SOL    HW225504  14.050   2.092   9.953
41203SOL     OW25505  12.033  11.402   2.358
41203SOL    HW125506  12.008  11.395   2.450
41203SOL    HW225507  12.041  11.311   2.329
41204SOL     OW25508  14.067  13.271   3.556
41204SOL    HW125509  13.997  13.328   3.525
41204SOL    HW225510  14.085  13.212   3.483
41205SOL     OW25511   9.900  13.343   6.505
41205SOL    HW125512   9.992  13.344   6.482
41205SOL    HW225513   9.866  13.262   6.466
41206SOL     OW25514   1.138   6.428   6.485
41206SOL    HW125515   1.152   6.483   6.408
41206SOL    HW225516   1.171   6.480   6.559
41207SOL     OW25517  11.668  10.389   0.327
41207SOL    HW125518  11.632  10.356   0.409
41207SOL    HW225519  11.748  10.435   0.352
41208SOL     OW25520   5.231  11.162   1.703
41208SOL    HW125521   5.288  11.195   1.633
41208SOL    HW225522   5.146  11.151   1.661
41209SOL     OW25523  10.925  13.768  10.064
41209SOL    HW125524  10.835  13.763  10.030
41209SOL    HW225525  10.962  13.846  10.021
41210SOL     OW25526  11.489   8.870  14.245
41210SOL    HW125527  11.533   8.851  14.328
41210SOL    HW225528  11.536   8.818  14.180
41211SOL     OW25529  14.557  10.457   3.950
41211SOL    HW125530  14.485  10.519   3.941
41211SOL    HW225531  14.627  10.494   3.897
41212SOL     OW25532  12.333   6.199   6.366
41212SOL    HW125533  12.242   6.181   6.344
41212SOL    HW225534  12.329   6.241   6.452
41213SOL     OW25535   7.920   3.757   5.140
41213SOL    HW125536   7.860   3.716   5.202
41213SOL    HW225537   7.974   3.815   5.194
41214SOL     OW25538   7.001  11.678   8.317
41214SOL    HW125539   6.946  11.602   8.338
41214SOL    HW225540   6.950  11.754   8.346
41215SOL     OW25541   0.250  13.331   4.763
41215SOL    HW125542   0.213  13.266   4.822
41215SOL    HW225543   0.277  13.281   4.686
41216SOL     OW25544   8.556   6.382   2.894
41216SOL    HW125545   8.503   6.385   2.973
41216SOL    HW225546   8.502   6.426   2.828
41217SOL     OW25547   6.385   3.684   4.843
41217SOL    HW125548   6.402   3.778   4.834
41217SOL    HW225549   6.315   3.679   4.908
41218SOL     OW25550  11.595   8.743   0.010
41218SOL    HW125551  11.604   8.837   0.020
41218SOL    HW225552  11.504   8.724   0.033
41219SOL     OW25553  14.805  12.245   6.406
41219SOL    HW125554  14.795  12.330   6.362
41219SOL    HW225555  14.737  12.246   6.473
41220SOL     OW25556  12.244   2.098   0.680
41220SOL    HW125557  12.337   2.105   0.659
41220SOL    HW225558  12.222   2.184   0.716
41221SOL     OW25559  12.600   8.485   4.255
41221SOL    HW125560  12.626   8.452   4.169
41221SOL    HW225561  12.565   8.572   4.237
41222SOL     OW25562  12.560   2.025  14.189
41222SOL    HW125563  12.538   2.116  14.205
41222SOL    HW225564  12.476   1.981  14.178
41223SOL     OW25565  10.186  14.830  14.252
41223SOL    HW125566  10.261   0.000  14.210
41223SOL    HW225567  10.201  14.736  14.239
41224SOL     OW25568   7.655   7.446   3.785
41224SOL    HW125569   7.593   7.459   3.856
41224SOL    HW225570   7.713   7.522   3.789
41225SOL     OW25571   4.643   0.900   1.378
41225SOL    HW125572   4.609   0.907   1.289
41225SOL    HW225573   4.595   0.828   1.417
41226SOL     OW25574   2.222   1.709  12.788
41226SOL    HW125575   2.268   1.630  12.818
41226SOL    HW225576   2.273   1.781  12.824
41227SOL     OW25577   9.612  11.785   1.443
41227SOL    HW125578   9.605  11.876   1.416
41227SOL    HW225579   9.706  11.767   1.443
41228SOL     OW25580  12.200  14.534  12.312
41228SOL    HW125581  12.172  14.555  12.223
41228SOL    HW225582  12.149  14.458  12.337
41229SOL     OW25583   8.736   5.015  12.150
41229SOL    HW125584   8.694   4.981  12.071
41229SOL    HW225585   8.828   5.022  12.126
41230SOL     OW25586   0.910   3.703   7.749
41230SOL    HW125587   0.876   3.664   7.670
41230SOL    HW225588   0.949   3.630   7.798
41231SOL     OW25589  11.791   5.141  13.451
41231SOL    HW125590  11.770   5.097  13.533
41231SOL    HW225591  11.769   5.233  13.467
41232SOL     OW25592   9.677   8.366   0.271
41232SOL    HW125593   9.736   8.429   0.229
41232SOL    HW225594   9.608   8.350   0.206
41233SOL     OW25595   0.108  13.479  10.398
41233SOL    HW125596   0.023  13.466  10.438
41233SOL    HW225597   0.151  13.544  10.453
41234SOL     OW25598  12.885   7.777  11.071
41234SOL    HW125599  12.816   7.843  11.074
41234SOL    HW225600  12.961   7.824  11.037
41235SOL     OW25601   5.113  11.206   4.710
41235SOL    HW125602   5.061  11.225   4.789
41235SOL    HW225603   5.093  11.115   4.690
41236SOL     OW25604   8.993   0.585   2.655
41236SOL    HW125605   8.914   0.590   2.709
41236SOL    HW225606   8.968   0.626   2.572
41237SOL     OW25607  11.593   8.352   3.104
41237SOL    HW125608  11.634   8.438   3.105
41237SOL    HW225609  11.579   8.330   3.197
41238SOL     OW25610  14.148   0.818   6.764
41238SOL    HW125611  14.240   0.799   6.745
41238SOL    HW225612  14.121   0.749   6.825
41239SOL     OW25613   8.644  11.498   1.699
41239SOL    HW125614   8.572  11.554   1.670
41239SOL    HW225615   8.709  11.559   1.735
41240SOL     OW25616   5.324   8.527   2.010
41240SOL    HW125617   5.256   8.480   1.961
41240SOL    HW225618   5.364   8.585   1.946
41241SOL     OW25619  13.501   0.666  11.228
41241SOL    HW125620  13.587   0.627  11.246
41241SOL    HW225621  13.520   0.739  11.168
41242SOL     OW25622  14.536  13.642   1.490
41242SOL    HW125623  14.472  13.601   1.548
41242SOL    HW225624  14.537  13.587   1.412
41243SOL     OW25625  11.907   7.168   3.642
41243SOL    HW125626  11.980   7.108   3.644
41243SOL    HW225627  11.830   7.113   3.654
41244SOL     OW25628   7.454  10.618   6.906
41244SOL    HW125629   7.515  10.660   6.844
41244SOL    HW225630   7.457  10.674   6.984
41245SOL     OW25631   8.260  14.454  12.347
41245SOL    HW125632   8.333  14.395  12.330
41245SOL    HW225633   8.293  14.516  12.412
41246SOL     OW25634   8.453   2.367   5.812
41246SOL    HW125635   8.376   2.320   5.782
41246SOL    HW225636   8.509   2.373   5.735
41247SOL     OW25637   5.057   9.877  10.543
41247SOL    HW125638   5.028   9.786  10.543
41247SOL    HW225639   4.993   9.922  10.599
41248SOL     OW25640  14.271  11.835   8.044
41248SOL    HW125641  14.210  11.894   8.000
41248SOL    HW225642  14.268  11.754   7.993
41249SOL     OW25643   8.499   1.370  13.994
41249SOL    HW125644   8.580   1.417  14.013
41249SOL    HW225645   8.525   1.277  13.998
41250SOL     OW25646   2.283   2.406   9.051
41250SOL    HW125647   2.338   2.373   9.122
41250SOL    HW225648   2.335   2.393   8.972
41251SOL     OW25649   2.275  13.223  12.392
41251SOL    HW125650   2.226  13.230  12.310
41251SOL    HW225651   2.207  13.215  12.460
41252SOL     OW25652  13.525   6.154   0.640
41252SOL    HW125653  13.462   6.217   0.606
41252SOL    HW225654  13.474   6.073   0.649
41253SOL     OW25655  10.256   3.894  12.403
41253SOL    HW125656  10.247   3.929  12.314
41253SOL    HW225657  10.341   3.925  12.432
41254SOL     OW25658   3.509   3.844   5.563
41254SOL    HW125659   3.520   3.751   5.582
41254SOL    HW225660   3.492   3.883   5.649
41255SOL     OW25661   9.556   6.431   8.334
41255SOL    HW125662   9.571   6.389   8.418
41255SOL    HW225663   9.643   6.463   8.308
41256SOL     OW25664   1.304   0.994   8.403
41256SOL    HW125665   1.276   1.074   8.449
41256SOL    HW225666   1.328   0.933   8.473
41257SOL     OW25667   2.581   3.808   9.992
41257SOL    HW125668   2.605   3.750   9.920
41257SOL    HW225669   2.486   3.796  10.001
41258SOL     OW25670   0.092   3.707   9.666
41258SOL    HW125671   0.106   3.727   9.574
41258SOL    HW225672   0.067   3.790   9.706
41259SOL     OW25673  10.959   8.102  10.861
41259SOL    HW125674  10.957   8.118  10.767
41259SOL    HW225675  10.879   8.143  10.894
41260SOL     OW25676   4.752   3.191   6.689
41260SOL    HW125677   4.790   3.204   6.776
41260SOL    HW225678   4.771   3.272   6.642
41261SOL     OW25679  14.612   0.394   7.303
41261SOL    HW125680  14.558   0.398   7.382
41261SOL    HW225681  14.593   0.476   7.257
41262SOL     OW25682   2.368  11.694  12.004
41262SOL    HW125683   2.301  11.640  11.961
41262SOL    HW225684   2.348  11.783  11.977
41263SOL     OW25685   8.039   2.577   8.184
41263SOL    HW125686   8.127   2.565   8.148
41263SOL    HW225687   7.993   2.630   8.118
41264SOL     OW25688   5.233  11.358   3.610
41264SOL    HW125689   5.308  11.298   3.614
41264SOL    HW225690   5.190  11.337   3.527
41265SOL     OW25691   8.607   3.063   0.465
41265SOL    HW125692   8.629   3.018   0.546
41265SOL    HW225693   8.673   3.132   0.457
41266SOL     OW25694  14.079   5.617   5.748
41266SOL    HW125695  14.107   5.674   5.676
41266SOL    HW225696  13.991   5.647   5.769
41267SOL     OW25697   5.965   3.814   1.633
41267SOL    HW125698   6.044   3.774   1.598
41267SOL    HW225699   5.902   3.741   1.640
41268SOL     OW25700   1.955  10.791   2.647
41268SOL    HW125701   1.894  10.731   2.603
41268SOL    HW225702   1.911  10.817   2.727
41269SOL     OW25703  14.078   2.991   3.885
41269SOL    HW125704  14.106   3.036   3.805
41269SOL    HW225705  14.156   2.990   3.940
41270SOL     OW25706  10.648   1.416  12.580
41270SOL    HW125707  10.600   1.496  12.603
41270SOL    HW225708  10.676   1.430  12.489
41271SOL     OW25709   9.456   0.156   9.338
41271SOL    HW125710   9.365   0.140   9.311
41271SOL    HW225711   9.475   0.245   9.306
41272SOL     OW25712  10.218   0.208   5.018
41272SOL    HW125713  10.194   0.257   4.940
41272SOL    HW225714  10.275   0.138   4.986
41273SOL     OW25715  12.034   2.291  12.937
41273SOL    HW125716  11.992   2.257  12.858
41273SOL    HW225717  11.984   2.370  12.959
41274SOL     OW25718   7.754   2.876  10.958
41274SOL    HW125719   7.818   2.878  10.886
41274SOL    HW225720   7.747   2.784  10.982
41275SOL     OW25721   7.949   8.018   0.089
41275SOL    HW125722   7.955   7.946   0.151
41275SOL    HW225723   7.907   7.979   0.012
41276SOL     OW25724   8.477   0.829   1.368
41276SOL    HW125725   8.399   0.811   1.420
41276SOL    HW225726   8.527   0.748   1.371
41277SOL     OW25727  12.650   5.736  12.779
41277SOL    HW125728  12.616   5.770  12.696
41277SOL    HW225729  12.598   5.657  12.795
41278SOL     OW25730   4.108   0.696   8.656
41278SOL    HW125731   4.150   0.668   8.737
41278SOL    HW225732   4.180   0.723   8.599
41279SOL     OW25733   7.634   0.296  13.600
41279SOL    HW125734   7.595   0.368  13.650
41279SOL    HW225735   7.718   0.332  13.570
41280SOL     OW25736   0.297   1.501   7.556
41280SOL    HW125737   0.269   1.544   7.475
41280SOL    HW225738   0.373   1.449   7.531
41281SOL     OW25739  11.309   7.388   8.677
41281SOL    HW125740  11.249   7.313   8.684
41281SOL    HW225741  11.366   7.381   8.753
41282SOL     OW25742   4.664  12.387   9.120
41282SOL    HW125743   4.683  12.478   9.096
41282SOL    HW225744   4.568  12.382   9.119
41283SOL     OW25745   6.138   3.847   9.358
41283SOL    HW125746   6.209   3.802   9.313
41283SOL    HW225747   6.182   3.911   9.414
41284SOL     OW25748   0.694  11.635   4.916
41284SOL    HW125749   0.751  11.566   4.883
41284SOL    HW225750   0.753  11.699   4.956
41285SOL     OW25751   7.681  13.545   7.247
41285SOL    HW125752   7.719  13.620   7.292
41285SOL    HW225753   7.716  13.550   7.158
41286SOL     OW25754  14.109   2.168   3.154
41286SOL    HW125755  14.199   2.180   3.185
41286SOL    HW225756  14.118   2.166   3.059
41287SOL     OW25757  14.233   2.371  13.084
41287SOL    HW125758  14.201   2.396  13.171
41287SOL    HW225759  14.280   2.448  13.053
41288SOL     OW25760  14.690   9.682   0.436
41288SOL    HW125761  14.729   9.706   0.352
41288SOL    HW225762  14.738   9.604   0.464
41289SOL     OW25763   0.413  13.118   1.582
41289SOL    HW125764   0.319  13.126   1.596
41289SOL    HW225765   0.439  13.044   1.637
41290SOL     OW25766   7.716   7.267   8.822
41290SOL    HW125767   7.652   7.212   8.777
41290SOL    HW225768   7.800   7.237   8.790
41291SOL     OW25769  13.330   7.067  11.799
41291SOL    HW125770  13.305   7.160  11.797
41291SOL    HW225771  13.316   7.037  11.709
41292SOL     OW25772   4.152  11.650   8.739
41292SOL    HW125773   4.162  11.665   8.645
41292SOL    HW225774   4.121  11.560   8.746
41293SOL     OW25775   7.192   6.383   9.516
41293SOL    HW125776   7.268   6.384   9.457
41293SOL    HW225777   7.177   6.475   9.537
41294SOL     OW25778   2.846   5.022   0.567
41294SOL    HW125779   2.787   4.977   0.506
41294SOL    HW225780   2.847   5.112   0.536
41295SOL     OW25781  13.478  13.424   1.180
41295SOL    HW125782  13.555  13.481   1.179
41295SOL    HW225783  13.455  13.417   1.272
41296SOL     OW25784  10.541   2.072   4.047
41296SOL    HW125785  10.548   2.016   4.124
41296SOL    HW225786  10.574   2.019   3.975
41297SOL     OW25787   1.559  11.798   1.678
41297SOL    HW125788   1.536  11.871   1.619
41297SOL    HW225789   1.492  11.732   1.659
41298SOL     OW25790  14.850   9.566   2.983
41298SOL    HW125791  14.808   9.508   2.919
41298SOL    HW225792   0.071   9.544   2.978
41299SOL     OW25793   0.973   1.832  10.929
41299SOL    HW125794   1.013   1.919  10.926
41299SOL    HW225795   0.887   1.844  10.888
41300SOL     OW25796   7.450  12.605   0.528
41300SOL    HW125797   7.505  12.674   0.563
41300SOL    HW225798   7.427  12.551   0.604
41301SOL     OW25799   6.496   1.074  10.561
41301SOL    HW125800   6.497   1.151  10.616
41301SOL    HW225801   6.417   1.027  10.585
41302SOL     OW25802   9.481  11.383  10.546
41302SOL    HW125803   9.400  11.411  10.589
41302SOL    HW225804   9.513  11.462  10.502
41303SOL     OW25805   5.659  10.173   4.858
41303SOL    HW125806   5.636  10.108   4.792
41303SOL    HW225807   5.607  10.250   4.836
41304SOL     OW25808   7.121   9.170   7.255
41304SOL    HW125809   7.147   9.153   7.345
41304SOL    HW225810   7.195   9.139   7.202
41305SOL     OW25811   7.236   2.002   1.636
41305SOL    HW125812   7.310   2.059   1.652
41305SOL    HW225813   7.199   1.984   1.722
41306SOL     OW25814  10.845  10.164  14.375
41306SOL    HW125815  10.921  10.164  14.317
41306SOL    HW225816  10.772  10.142  14.318
41307SOL     OW25817   1.628   9.560  10.577
41307SOL    HW125818   1.716   9.572  10.541
41307SOL    HW225819   1.576   9.630  10.538
41308SOL     OW25820  12.777   9.373   8.760
41308SOL    HW125821  12.834   9.298   8.776
41308SOL    HW225822  12.813   9.415   8.682
41309SOL     OW25823   2.963  13.708   5.069
41309SOL    HW125824   3.050  13.671   5.056
41309SOL    HW225825   2.926  13.715   4.981
41310SOL     OW25826   5.006  12.840  13.821
41310SOL    HW125827   4.924  12.793  13.804
41310SOL    HW225828   4.989  12.888  13.902
41311SOL     OW25829  10.937   2.570  11.566
41311SOL    HW125830  11.006   2.632  11.587
41311SOL    HW225831  10.857   2.621  11.569
41312SOL     OW25832  10.510  11.056  10.578
41312SOL    HW125833  10.466  11.130  10.537
41312SOL    HW225834  10.447  10.984  10.572
41313SOL     OW25835   2.743   9.599  13.415
41313SOL    HW125836   2.795   9.633  13.342
41313SOL    HW225837   2.669   9.554  13.373
41314SOL     OW25838   6.818  14.123   9.082
41314SOL    HW125839   6.846  14.090   9.167
41314SOL    HW225840   6.895  14.116   9.026
41315SOL     OW25841   3.887   7.959   3.521
41315SOL    HW125842   3.934   8.021   3.465
41315SOL    HW225843   3.954   7.924   3.580
41316SOL     OW25844   1.975   0.366   7.465
41316SOL    HW125845   1.915   0.321   7.406
41316SOL    HW225846   2.034   0.414   7.407
41317SOL     OW25847   8.683   1.026   2.335
41317SOL    HW125848   8.758   1.075   2.301
41317SOL    HW225849   8.622   1.094   2.365
41318SOL     OW25850   6.622  10.128   0.617
41318SOL    HW125851   6.699  10.184   0.620
41318SOL    HW225852   6.580  10.149   0.534
41319SOL     OW25853   4.067  10.465   0.692
41319SOL    HW125854   4.020  10.492   0.771
41319SOL    HW225855   4.009  10.487   0.620
41320SOL     OW25856  11.160   0.341   4.462
41320SOL    HW125857  11.129   0.263   4.416
41320SOL    HW225858  11.088   0.404   4.451
41321SOL     OW25859  14.467  14.445   9.341
41321SOL    HW125860  14.391  14.426   9.397
41321SOL    HW225861  14.429  14.473   9.258
41322SOL     OW25862   4.684  11.994   3.128
41322SOL    HW125863   4.710  12.008   3.037
41322SOL    HW225864   4.611  11.933   3.122
41323SOL     OW25865  12.350  11.287   4.564
41323SOL    HW125866  12.384  11.352   4.503
41323SOL    HW225867  12.316  11.338   4.637
41324SOL     OW25868   3.213  13.190   9.404
41324SOL    HW125869   3.146  13.224   9.463
41324SOL    HW225870   3.242  13.108   9.444
41325SOL     OW25871  11.169   9.166  10.776
41325SOL    HW125872  11.258   9.197  10.792
41325SOL    HW225873  11.113   9.238  10.805
41326SOL     OW25874   5.093  10.680   4.889
41326SOL    HW125875   5.169  10.627   4.915
41326SOL    HW225876   5.035  10.677   4.965
41327SOL     OW25877   2.365  11.139  13.683
41327SOL    HW125878   2.345  11.054  13.643
41327SOL    HW225879   2.327  11.203  13.622
41328SOL     OW25880   5.526   4.025  13.306
41328SOL    HW125881   5.590   4.089  13.336
41328SOL    HW225882   5.442   4.071  13.309
41329SOL     OW25883  14.365  10.407   8.705
41329SOL    HW125884  14.437  10.367   8.656
41329SOL    HW225885  14.287  10.387   8.652
41330SOL     OW25886   5.906   6.247  13.824
41330SOL    HW125887   5.868   6.334  13.811
41330SOL    HW225888   6.001   6.263  13.831
41331SOL     OW25889   4.945  13.337  13.236
41331SOL    HW125890   4.971  13.333  13.144
41331SOL    HW225891   5.023  13.311  13.284
41332SOL     OW25892   0.509  11.405  14.737
41332SOL    HW125893   0.555  11.356  14.668
41332SOL    HW225894   0.416  11.399  14.712
41333SOL     OW25895   1.198   6.259   4.965
41333SOL    HW125896   1.248   6.322   5.017
41333SOL    HW225897   1.183   6.186   5.024
41334SOL     OW25898   9.917   9.355  14.087
41334SOL    HW125899   9.899   9.306  14.007
41334SOL    HW225900  10.009   9.336  14.106
41335SOL     OW25901  10.877  12.229   5.235
41335SOL    HW125902  10.882  12.287   5.311
41335SOL    HW225903  10.968  12.205   5.218
41336SOL     OW25904   3.345   2.456   4.575
41336SOL    HW125905   3.307   2.372   4.548
41336SOL    HW225906   3.436   2.435   4.597
41337SOL     OW25907  13.402   5.033  12.095
41337SOL    HW125908  13.374   5.124  12.111
41337SOL    HW225909  13.322   4.982  12.100
41338SOL     OW25910   0.057  13.196  11.654
41338SOL    HW125911   0.015  13.177  11.739
41338SOL    HW225912   0.088  13.286  11.662
41339SOL     OW25913   4.403   8.805   4.434
41339SOL    HW125914   4.435   8.894   4.448
41339SOL    HW225915   4.483   8.752   4.428
41340SOL     OW25916   1.459  10.113   4.023
41340SOL    HW125917   1.392  10.077   4.082
41340SOL    HW225918   1.464  10.050   3.951
41341SOL     OW25919  12.776   7.865   5.180
41341SOL    HW125920  12.780   7.781   5.135
41341SOL    HW225921  12.684   7.875   5.206
41342SOL     OW25922   6.114   7.472   5.383
41342SOL    HW125923   6.090   7.431   5.466
41342SOL    HW225924   6.149   7.557   5.408
41343SOL     OW25925  11.403   8.794   1.343
41343SOL    HW125926  11.336   8.850   1.304
41343SOL    HW225927  11.484   8.821   1.300
41344SOL     OW25928  10.642  14.044  11.783
41344SOL    HW125929  10.567  14.004  11.738
41344SOL    HW225930  10.692  14.086  11.712
41345SOL     OW25931   5.544   5.915  13.235
41345SOL    HW125932   5.474   5.893  13.297
41345SOL    HW225933   5.591   5.832  13.222
41346SOL     OW25934  14.739   3.302   1.859
41346SOL    HW125935  14.681   3.351   1.800
41346SOL    HW225936  14.786   3.242   1.802
41347SOL     OW25937   7.975   9.552  12.059
41347SOL    HW125938   7.955   9.586  12.146
41347SOL    HW225939   7.942   9.462  12.060
41348SOL     OW25940   8.151  10.596  14.498
41348SOL    HW125941   8.242  10.577  14.521
41348SOL    HW225942   8.138  10.687  14.527
41349SOL     OW25943   9.778  12.242  11.466
41349SOL    HW125944   9.684  12.223  11.468
41349SOL    HW225945   9.805  12.238  11.557
41350SOL     OW25946   5.890   6.292  14.848
41350SOL    HW125947   5.826   6.223  14.865
41350SOL    HW225948   5.838   6.373  14.850
41351SOL     OW25949  12.467   1.903  12.698
41351SOL    HW125950  12.459   1.989  12.657
41351SOL    HW225951  12.529   1.856  12.642
41352SOL     OW25952   0.873  10.774   8.850
41352SOL    HW125953   0.966  10.770   8.870
41352SOL    HW225954   0.832  10.712   8.910
41353SOL     OW25955  12.288  14.726   7.490
41353SOL    HW125956  12.198  14.699   7.469
41353SOL    HW225957  12.308  14.795   7.427
41354SOL     OW25958   8.943   2.486   8.756
41354SOL    HW125959   8.869   2.439   8.718
41354SOL    HW225960   8.961   2.440   8.838
41355SOL     OW25961   7.723  13.963   2.764
41355SOL    HW125962   7.733  14.057   2.750
41355SOL    HW225963   7.801  13.937   2.812
41356SOL     OW25964   3.514  10.676  13.439
41356SOL    HW125965   3.542  10.653  13.528
41356SOL    HW225966   3.421  10.654  13.436
41357SOL     OW25967   9.762   4.651  14.477
41357SOL    HW125968   9.818   4.587  14.433
41357SOL    HW225969   9.823   4.702  14.532
41358SOL     OW25970   9.436   4.404  14.343
41358SOL    HW125971   9.457   4.354  14.264
41358SOL    HW225972   9.348   4.375  14.367
41359SOL     OW25973   3.141   2.706   9.103
41359SOL    HW125974   3.174   2.652   9.175
41359SOL    HW225975   3.047   2.689   9.102
41360SOL     OW25976   8.059   0.386  13.749
41360SOL    HW125977   8.138   0.333  13.760
41360SOL    HW225978   8.001   0.357  13.820
41361SOL     OW25979   9.311  14.670   5.101
41361SOL    HW125980   9.269  14.746   5.060
41361SOL    HW225981   9.394  14.703   5.133
41362SOL     OW25982   1.804   6.036   1.325
41362SOL    HW125983   1.859   5.996   1.392
41362SOL    HW225984   1.835   5.999   1.243
41363SOL     OW25985   1.191  14.331   6.411
41363SOL    HW125986   1.231  14.379   6.484
41363SOL    HW225987   1.251  14.258   6.394
41364SOL     OW25988   5.162   1.611   6.800
41364SOL    HW125989   5.236   1.554   6.779
41364SOL    HW225990   5.092   1.582   6.741
41365SOL     OW25991  11.535   4.806   0.309
41365SOL    HW125992  11.615   4.761   0.280
41365SOL    HW225993  11.567   4.887   0.350
41366SOL     OW25994  10.806   4.348   8.785
41366SOL    HW125995  10.716   4.332   8.814
41366SOL    HW225996  10.817   4.291   8.709
41367SOL     OW25997  10.647   3.786   1.090
41367SOL    HW125998  10.570   3.773   1.034
41367SOL    HW225999  10.690   3.701   1.094
41368SOL     OW26000   4.892  11.582  13.673
41368SOL    HW126001   4.971  11.628  13.645
41368SOL    HW226002   4.873  11.619  13.759
41369SOL     OW26003  14.530  12.116   5.480
41369SOL    HW126004  14.587  12.077   5.546
41369SOL    HW226005  14.540  12.211   5.492
41370SOL     OW26006   2.037   4.381  12.639
41370SOL    HW126007   2.009   4.292  12.621
41370SOL    HW226008   2.083   4.376  12.723
41371SOL     OW26009  12.597  10.902  10.070
41371SOL    HW126010  12.540  10.825  10.065
41371SOL    HW226011  12.565  10.960  10.001
41372SOL     OW26012   6.500   8.702   6.160
41372SOL    HW126013   6.540   8.666   6.239
41372SOL    HW226014   6.476   8.626   6.108
41373SOL     OW26015  13.072  11.365  12.943
41373SOL    HW126016  12.991  11.322  12.916
41373SOL    HW226017  13.094  11.324  13.026
41374SOL     OW26018  13.060   8.609   6.156
41374SOL    HW126019  13.030   8.629   6.244
41374SOL    HW226020  13.001   8.541   6.125
41375SOL     OW26021   3.825   8.420   0.951
41375SOL    HW126022   3.785   8.462   0.875
41375SOL    HW226023   3.916   8.407   0.927
41376SOL     OW26024   3.477  14.353  11.985
41376SOL    HW126025   3.539  14.309  11.927
41376SOL    HW226026   3.529  14.423  12.027
41377SOL     OW26027   2.437   6.559  14.406
41377SOL    HW126028   2.519   6.533  14.449
41377SOL    HW226029   2.375   6.569  14.478
41378SOL     OW26030   5.133   0.886  12.876
41378SOL    HW126031   5.174   0.816  12.927
41378SOL    HW226032   5.180   0.965  12.903
41379SOL     OW26033  10.615  14.786   1.585
41379SOL    HW126034  10.607   0.009   1.577
41379SOL    HW226035  10.586  14.766   1.674
41380SOL     OW26036   8.600   7.987   8.045
41380SOL    HW126037   8.611   8.069   8.092
41380SOL    HW226038   8.675   7.934   8.072
41381SOL     OW26039   2.054   5.681   0.458
41381SOL    HW126040   2.007   5.747   0.407
41381SOL    HW226041   2.144   5.684   0.424
41382SOL     OW26042  10.262  14.439   2.242
41382SOL    HW126043  10.298  14.445   2.154
41382SOL    HW226044  10.253  14.530   2.270
41383SOL     OW26045   5.192   0.522   2.609
41383SOL    HW126046   5.195   0.452   2.544
41383SOL    HW226047   5.156   0.597   2.561
41384SOL     OW26048   0.140  13.559   1.511
41384SOL    HW126049   0.161  13.553   1.605
41384SOL    HW226050   0.225  13.565   1.468
41385SOL     OW26051  10.159  13.625  14.295
41385SOL    HW126052  10.219  13.592  14.361
41385SOL    HW226053  10.076  13.582  14.315
41386SOL     OW26054   6.273   7.129   7.529
41386SOL    HW126055   6.304   7.201   7.584
41386SOL    HW226056   6.312   7.144   7.444
41387SOL     OW26057   1.192  11.104  12.161
41387SOL    HW126058   1.230  11.035  12.106
41387SOL    HW226059   1.219  11.081  12.250
41388SOL     OW26060   2.154   3.136  13.231
41388SOL    HW126061   2.130   3.083  13.307
41388SOL    HW226062   2.213   3.203  13.265
41389SOL     OW26063   2.165  12.455   7.828
41389SOL    HW126064   2.125  12.471   7.743
41389SOL    HW226065   2.156  12.538   7.875
41390SOL     OW26066   3.601   4.026   6.524
41390SOL    HW126067   3.565   4.108   6.559
41390SOL    HW226068   3.689   4.021   6.561
41391SOL     OW26069   3.313  11.421   8.106
41391SOL    HW126070   3.259  11.342   8.100
41391SOL    HW226071   3.253  11.488   8.139
41392SOL     OW26072   8.882   2.733   3.532
41392SOL    HW126073   8.943   2.767   3.597
41392SOL    HW226074   8.934   2.670   3.481
41393SOL     OW26075   3.276   9.805   4.118
41393SOL    HW126076   3.369   9.826   4.123
41393SOL    HW226077   3.232   9.878   4.161
41394SOL     OW26078   4.881  14.183   0.817
41394SOL    HW126079   4.857  14.244   0.748
41394SOL    HW226080   4.840  14.100   0.792
41395SOL     OW26081   2.757   6.524   4.365
41395SOL    HW126082   2.727   6.515   4.274
41395SOL    HW226083   2.821   6.595   4.361
41396SOL     OW26084   5.392   2.093  12.220
41396SOL    HW126085   5.341   2.016  12.197
41396SOL    HW226086   5.396   2.091  12.316
41397SOL     OW26087   2.748  11.228   5.007
41397SOL    HW126088   2.664  11.200   5.044
41397SOL    HW226089   2.782  11.150   4.962
41398SOL     OW26090   3.639   2.367  10.934
41398SOL    HW126091   3.588   2.445  10.957
41398SOL    HW226092   3.669   2.384  10.845
41399SOL     OW26093   4.878   1.638   9.243
41399SOL    HW126094   4.939   1.573   9.278
41399SOL    HW226095   4.820   1.659   9.317
41400SOL     OW26096   1.134   5.205   4.820
41400SOL    HW126097   1.169   5.273   4.877
41400SOL    HW226098   1.188   5.211   4.740
41401SOL     OW26099   2.338   0.042  10.336
41401SOL    HW126100   2.292   0.121  10.306
41401SOL    HW226101   2.273  14.845  10.330
41402SOL     OW26102   4.487   2.484   3.845
41402SOL    HW126103   4.542   2.429   3.900
41402SOL    HW226104   4.531   2.569   3.845
41403SOL     OW26105  11.964  14.844   0.624
41403SOL    HW126106  11.892   0.030   0.603
41403SOL    HW226107  12.017   0.020   0.688
41404SOL     OW26108  10.234   7.582   3.867
41404SOL    HW126109  10.270   7.633   3.794
41404SOL    HW226110  10.306   7.525   3.895
41405SOL     OW26111  11.843   7.215  12.565
41405SOL    HW126112  11.893   7.134  12.581
41405SOL    HW226113  11.769   7.210  12.626
41406SOL     OW26114  13.751  10.541   9.991
41406SOL    HW126115  13.693  10.590  10.049
41406SOL    HW226116  13.716  10.453   9.991
41407SOL     OW26117   7.400   8.266   8.736
41407SOL    HW126118   7.381   8.173   8.728
41407SOL    HW226119   7.413   8.296   8.646
41408SOL     OW26120   5.508   1.828   1.461
41408SOL    HW126121   5.436   1.764   1.455
41408SOL    HW226122   5.584   1.781   1.425
41409SOL     OW26123   6.948  11.482   0.481
41409SOL    HW126124   6.946  11.542   0.407
41409SOL    HW226125   6.921  11.398   0.444
41410SOL     OW26126   6.002   0.759   7.992
41410SOL    HW126127   5.933   0.811   7.951
41410SOL    HW226128   6.071   0.755   7.926
41411SOL     OW26129   3.175  11.267  14.579
41411SOL    HW126130   3.101  11.312  14.619
41411SOL    HW226131   3.252  11.310  14.617
41412SOL     OW26132   9.399   4.085   3.892
41412SOL    HW126133   9.421   4.038   3.812
41412SOL    HW226134   9.450   4.040   3.960
41413SOL     OW26135   1.912   4.452  14.681
41413SOL    HW126136   1.988   4.396  14.662
41413SOL    HW226137   1.862   4.403  14.746
41414SOL     OW26138   1.061   0.257   8.197
41414SOL    HW126139   1.148   0.274   8.234
41414SOL    HW226140   1.043   0.165   8.219
41415SOL     OW26141  11.167   0.640   1.788
41415SOL    HW126142  11.138   0.695   1.861
41415SOL    HW226143  11.258   0.619   1.808
41416SOL     OW26144   7.599  13.364   1.795
41416SOL    HW126145   7.523  13.332   1.746
41416SOL    HW226146   7.569  13.446   1.834
41417SOL     OW26147   7.152   1.153   2.815
41417SOL    HW126148   7.068   1.170   2.859
41417SOL    HW226149   7.190   1.079   2.864
41418SOL     OW26150   9.258   7.435   0.218
41418SOL    HW126151   9.323   7.365   0.224
41418SOL    HW226152   9.191   7.401   0.159
41419SOL     OW26153   0.723  13.017   2.535
41419SOL    HW126154   0.739  12.974   2.619
41419SOL    HW226155   0.697  13.106   2.558
41420SOL     OW26156   9.737   5.738   8.499
41420SOL    HW126157   9.690   5.763   8.578
41420SOL    HW226158   9.677   5.681   8.452
41421SOL     OW26159   3.546  14.383   9.695
41421SOL    HW126160   3.575  14.451   9.635
41421SOL    HW226161   3.522  14.430   9.775
41422SOL     OW26162   3.689   1.445  13.092
41422SOL    HW126163   3.601   1.448  13.056
41422SOL    HW226164   3.743   1.412  13.021
41423SOL     OW26165   2.040   7.191   4.716
41423SOL    HW126166   1.966   7.198   4.656
41423SOL    HW226167   2.115   7.226   4.667
41424SOL     OW26168   2.079   9.840  11.895
41424SOL    HW126169   1.998   9.877  11.861
41424SOL    HW226170   2.053   9.796  11.976
41425SOL     OW26171   5.466  13.767  13.739
41425SOL    HW126172   5.410  13.699  13.702
41425SOL    HW226173   5.407  13.819  13.794
41426SOL     OW26174   0.579   3.742   1.718
41426SOL    HW126175   0.580   3.835   1.742
41426SOL    HW226176   0.642   3.736   1.646
41427SOL     OW26177  12.956   6.254   4.780
41427SOL    HW126178  12.867   6.236   4.750
41427SOL    HW226179  12.955   6.347   4.801
41428SOL     OW26180   8.587   5.392   7.115
41428SOL    HW126181   8.624   5.445   7.186
41428SOL    HW226182   8.523   5.449   7.073
41429SOL     OW26183   4.511  14.168   6.221
41429SOL    HW126184   4.560  14.090   6.194
41429SOL    HW226185   4.421  14.148   6.196
41430SOL     OW26186   9.944   3.381   7.267
41430SOL    HW126187   9.861   3.416   7.300
41430SOL    HW226188   9.938   3.287   7.283
41431SOL     OW26189   1.730  10.531   8.917
41431SOL    HW126190   1.663  10.560   8.979
41431SOL    HW226191   1.803  10.501   8.972
41432SOL     OW26192  12.755   5.999   6.265
41432SOL    HW126193  12.769   5.904   6.265
41432SOL    HW226194  12.784   6.027   6.352
41433SOL     OW26195   0.704  11.443   7.961
41433SOL    HW126196   0.653  11.436   7.880
41433SOL    HW226197   0.772  11.376   7.953
41434SOL     OW26198   5.083   5.109   0.439
41434SOL    HW126199   5.059   5.189   0.392
41434SOL    HW226200   5.005   5.089   0.492
41435SOL     OW26201   7.797   4.534  12.949
41435SOL    HW126202   7.871   4.519  12.890
41435SOL    HW226203   7.828   4.500  13.034
41436SOL     OW26204  10.210   7.944  13.919
41436SOL    HW126205  10.270   7.916  13.988
41436SOL    HW226206  10.124   7.945  13.961
41437SOL     OW26207   0.061   2.852   8.294
41437SOL    HW126208   0.130   2.916   8.310
41437SOL    HW226209   0.108   2.771   8.273
41438SOL     OW26210   9.480   2.542   5.648
41438SOL    HW126211   9.548   2.599   5.611
41438SOL    HW226212   9.485   2.557   5.742
41439SOL     OW26213   5.320   7.728   3.481
41439SOL    HW126214   5.296   7.767   3.398
41439SOL    HW226215   5.366   7.798   3.528
41440SOL     OW26216   8.999  10.956   3.173
41440SOL    HW126217   9.075  10.968   3.116
41440SOL    HW226218   9.036  10.921   3.254
41441SOL     OW26219  10.558  11.157  14.518
41441SOL    HW126220  10.485  11.198  14.564
41441SOL    HW226221  10.613  11.230  14.490
41442SOL     OW26222  13.244  13.817   7.844
41442SOL    HW126223  13.295  13.878   7.791
41442SOL    HW226224  13.154  13.826   7.813
41443SOL     OW26225  11.754   8.509   2.050
41443SOL    HW126226  11.826   8.571   2.060
41443SOL    HW226227  11.796   8.423   2.048
41444SOL     OW26228   6.681  14.015  12.524
41444SOL    HW126229   6.622  13.988  12.595
41444SOL    HW226230   6.704  13.934  12.480
41445SOL     OW26231   1.412   3.917   9.892
41445SOL    HW126232   1.479   3.905   9.825
41445SOL    HW226233   1.340   3.961   9.846
41446SOL     OW26234   9.569  12.995   6.999
41446SOL    HW126235   9.530  13.003   7.086
41446SOL    HW226236   9.496  12.966   6.943
41447SOL     OW26237   9.061  13.905   6.678
41447SOL    HW126238   9.035  13.994   6.657
41447SOL    HW226239   9.130  13.915   6.743
41448SOL     OW26240   7.588  12.696  14.015
41448SOL    HW126241   7.624  12.635  13.951
41448SOL    HW226242   7.663  12.722  14.068
41449SOL     OW26243   0.520  14.817  14.752
41449SOL    HW126244   0.469   0.004  14.697
41449SOL    HW226245   0.590  14.785  14.695
41450SOL     OW26246  12.052  13.998  11.051
41450SOL    HW126247  12.081  14.078  11.008
41450SOL    HW226248  12.116  13.932  11.025
41451SOL     OW26249  10.511   2.182   0.638
41451SOL    HW126250  10.557   2.197   0.555
41451SOL    HW226251  10.418   2.193   0.616
41452SOL     OW26252   8.526  13.731   4.618
41452SOL    HW126253   8.578  13.778   4.553
41452SOL    HW226254   8.571  13.648   4.630
41453SOL     OW26255   8.999  13.764   7.475
41453SOL    HW126256   8.974  13.741   7.565
41453SOL    HW226257   8.918  13.793   7.435
41454SOL     OW26258   5.978  14.471  10.053
41454SOL    HW126259   5.972  14.380  10.024
41454SOL    HW226260   6.002  14.520   9.974
41455SOL     OW26261   9.516   8.281   5.150
41455SOL    HW126262   9.547   8.264   5.062
41455SOL    HW226263   9.421   8.287   5.141
41456SOL     OW26264   0.641   4.921   9.696
41456SOL    HW126265   0.649   4.876   9.612
41456SOL    HW226266   0.598   5.004   9.675
41457SOL     OW26267   9.293  13.667  11.839
41457SOL    HW126268   9.283  13.747  11.788
41457SOL    HW226269   9.323  13.697  11.925
41458SOL     OW26270  12.157  11.685   0.741
41458SOL    HW126271  12.173  11.597   0.775
41458SOL    HW226272  12.123  11.671   0.653
41459SOL     OW26273   9.190   1.929   6.304
41459SOL    HW126274   9.200   1.903   6.396
41459SOL    HW226275   9.180   2.025   6.307
41460SOL     OW26276   2.214   6.019   7.755
41460SOL    HW126277   2.138   6.005   7.812
41460SOL    HW226278   2.185   6.085   7.692
41461SOL     OW26279   3.671   4.134  12.320
41461SOL    HW126280   3.586   4.140  12.276
41461SOL    HW226281   3.653   4.087  12.401
41462SOL     OW26282   7.640  10.544   9.794
41462SOL    HW126283   7.721  10.517   9.750
41462SOL    HW226284   7.600  10.607   9.734
41463SOL     OW26285   7.386   2.772   7.944
41463SOL    HW126286   7.301   2.814   7.952
41463SOL    HW226287   7.372   2.682   7.974
41464SOL     OW26288   2.167   4.923   5.706
41464SOL    HW126289   2.155   4.865   5.631
41464SOL    HW226290   2.114   5.000   5.685
41465SOL     OW26291   3.538   5.993  14.411
41465SOL    HW126292   3.595   6.069  14.420
41465SOL    HW226293   3.562   5.936  14.485
41466SOL     OW26294   4.231   9.604   8.580
41466SOL    HW126295   4.326   9.592   8.587
41466SOL    HW226296   4.201   9.602   8.671
41467SOL     OW26297   1.893   5.975  10.646
41467SOL    HW126298   1.988   5.972  10.650
41467SOL    HW226299   1.869   6.061  10.680
41468SOL     OW26300   4.993   0.312  13.049
41468SOL    HW126301   4.967   0.399  13.079
41468SOL    HW226302   4.987   0.317  12.953
41469SOL     OW26303  12.080   3.937   7.876
41469SOL    HW126304  12.073   4.029   7.900
41469SOL    HW226305  12.149   3.934   7.811
41470SOL     OW26306  14.367   5.163  13.070
41470SOL    HW126307  14.405   5.214  12.998
41470SOL    HW226308  14.380   5.219  13.148
41471SOL     OW26309  12.510  12.444   3.394
41471SOL    HW126310  12.574  12.515   3.393
41471SOL    HW226311  12.470  12.449   3.481
41472SOL     OW26312   8.147   5.593   2.704
41472SOL    HW126313   8.101   5.669   2.739
41472SOL    HW226314   8.077   5.536   2.672
41473SOL     OW26315  13.448   3.767   0.827
41473SOL    HW126316  13.509   3.820   0.776
41473SOL    HW226317  13.473   3.676   0.808
41474SOL     OW26318  13.044   9.425   4.897
41474SOL    HW126319  12.959   9.459   4.926
41474SOL    HW226320  13.032   9.404   4.804
41475SOL     OW26321   1.865   1.867   8.536
41475SOL    HW126322   1.816   1.913   8.467
41475SOL    HW226323   1.939   1.924   8.556
41476SOL     OW26324  10.302   4.592   0.927
41476SOL    HW126325  10.285   4.678   0.888
41476SOL    HW226326  10.220   4.570   0.972
41477SOL     OW26327   6.430   6.049   7.915
41477SOL    HW126328   6.489   5.984   7.876
41477SOL    HW226329   6.374   6.078   7.843
41478SOL     OW26330   0.405  12.517  10.954
41478SOL    HW126331   0.434  12.496  11.043
41478SOL    HW226332   0.362  12.602  10.963
41479SOL     OW26333   6.410  10.944  10.206
41479SOL    HW126334   6.445  11.033  10.197
41479SOL    HW226335   6.474  10.889  10.161
41480SOL     OW26336  10.544   2.235   7.150
41480SOL    HW126337  10.524   2.308   7.091
41480SOL    HW226338  10.557   2.160   7.091
41481SOL     OW26339  11.545  14.329   9.455
41481SOL    HW126340  11.535  14.424   9.447
41481SOL    HW226341  11.592  14.303   9.376
41482SOL     OW26342   8.369  12.148   7.776
41482SOL    HW126343   8.381  12.053   7.787
41482SOL    HW226344   8.274  12.159   7.772
41483SOL     OW26345  13.216   8.595   8.585
41483SOL    HW126346  13.122   8.603   8.601
41483SOL    HW226347  13.226   8.598   8.490
41484SOL     OW26348   0.878  10.536   9.694
41484SOL    HW126349   0.890  10.562   9.785
41484SOL    HW226350   0.955  10.482   9.674
41485SOL     OW26351   3.743   0.331   8.007
41485SOL    HW126352   3.789   0.375   8.079
41485SOL    HW226353   3.752   0.238   8.026
41486SOL     OW26354   1.068  14.612  10.395
41486SOL    HW126355   1.026  14.651  10.317
41486SOL    HW226356   1.161  14.629  10.383
41487SOL     OW26357   8.247   8.862   1.007
41487SOL    HW126358   8.265   8.811   1.086
41487SOL    HW226359   8.152   8.873   1.006
41488SOL     OW26360   7.594  13.953   3.657
41488SOL    HW126361   7.573  14.034   3.704
41488SOL    HW226362   7.686  13.936   3.678
41489SOL     OW26363  13.789  10.586   0.805
41489SOL    HW126364  13.823  10.498   0.823
41489SOL    HW226365  13.843  10.644   0.857
41490SOL     OW26366   4.187  14.482   7.746
41490SOL    HW126367   4.096  14.511   7.754
41490SOL    HW226368   4.189  14.400   7.796
41491SOL     OW26369  10.927   2.189   4.937
41491SOL    HW126370  10.898   2.197   4.846
41491SOL    HW226371  10.907   2.098   4.961
41492SOL     OW26372   7.430   8.340   9.173
41492SOL    HW126373   7.371   8.266   9.160
41492SOL    HW226374   7.498   8.329   9.107
41493SOL     OW26375   9.868   7.334   4.498
41493SOL    HW126376   9.925   7.352   4.573
41493SOL    HW226377   9.929   7.313   4.427
41494SOL     OW26378   6.615  10.208   1.662
41494SOL    HW126379   6.523  10.202   1.686
41494SOL    HW226380   6.625  10.150   1.587
41495SOL     OW26381   0.026  11.150  11.278
41495SOL    HW126382  14.842  11.113  11.346
41495SOL    HW226383   0.039  11.241  11.304
41496SOL     OW26384   8.287   0.558   4.848
41496SOL    HW126385   8.316   0.648   4.864
41496SOL    HW226386   8.245   0.562   4.762
41497SOL     OW26387   9.194   1.008  14.623
41497SOL    HW126388   9.232   0.920  14.632
41497SOL    HW226389   9.238   1.045  14.547
41498SOL     OW26390   9.155  13.935   4.245
41498SOL    HW126391   9.180  13.928   4.153
41498SOL    HW226392   9.075  13.988   4.244
41499SOL     OW26393   3.139  10.059   8.040
41499SOL    HW126394   3.202  10.055   8.113
41499SOL    HW226395   3.169   9.992   7.979
41500SOL     OW26396   5.876   6.819   5.467
41500SOL    HW126397   5.950   6.879   5.475
41500SOL    HW226398   5.902   6.757   5.399
41501SOL     OW26399   1.280   1.208   7.803
41501SOL    HW126400   1.301   1.292   7.761
41501SOL    HW226401   1.211   1.170   7.749
41502SOL     OW26402   2.256  12.820   6.646
41502SOL    HW126403   2.212  12.774   6.718
41502SOL    HW226404   2.185  12.850   6.590
41503SOL     OW26405   2.563   1.664  12.242
41503SOL    HW126406   2.523   1.668  12.155
41503SOL    HW226407   2.537   1.745  12.284
41504SOL     OW26408  11.824  10.465  12.630
41504SOL    HW126409  11.779  10.425  12.556
41504SOL    HW226410  11.870  10.540  12.592
41505SOL     OW26411   1.290   4.700   0.406
41505SOL    HW126412   1.220   4.765   0.400
41505SOL    HW226413   1.257   4.625   0.356
41506SOL     OW26414   4.373   8.540  11.747
41506SOL    HW126415   4.459   8.572  11.717
41506SOL    HW226416   4.314   8.613  11.731
41507SOL     OW26417   4.358   6.207   9.947
41507SOL    HW126418   4.423   6.151   9.904
41507SOL    HW226419   4.280   6.201   9.891
41508SOL     OW26420   6.876   7.887   0.652
41508SOL    HW126421   6.894   7.852   0.739
41508SOL    HW226422   6.793   7.933   0.661
41509SOL     OW26423   4.310   5.385  14.309
41509SOL    HW126424   4.397   5.400  14.347
41509SOL    HW226425   4.323   5.397  14.215
41510SOL     OW26426   5.650   2.875   2.989
41510SOL    HW126427   5.736   2.846   3.018
41510SOL    HW226428   5.589   2.838   3.054
41511SOL     OW26429   0.204   4.966   7.478
41511SOL    HW126430   0.172   4.878   7.499
41511SOL    HW226431   0.176   5.020   7.552
41512SOL     OW26432   6.899  14.397   8.784
41512SOL    HW126433   6.897  14.439   8.870
41512SOL    HW226434   6.811  14.408   8.750
41513SOL     OW26435   6.653  14.302   0.584
41513SOL    HW126436   6.707  14.242   0.636
41513SOL    HW226437   6.664  14.387   0.626
41514SOL     OW26438   0.872   0.599  13.838
41514SOL    HW126439   0.836   0.511  13.849
41514SOL    HW226440   0.925   0.593  13.759
41515SOL     OW26441   6.419   8.726   5.320
41515SOL    HW126442   6.481   8.797   5.336
41515SOL    HW226443   6.468   8.647   5.341
41516SOL     OW26444   4.648   9.421   5.822
41516SOL    HW126445   4.600   9.503   5.834
41516SOL    HW226446   4.581   9.353   5.824
41517SOL     OW26447   6.589   9.238  12.697
41517SOL    HW126448   6.657   9.172  12.684
41517SOL    HW226449   6.536   9.204  12.769
41518SOL     OW26450  10.270  14.578   7.774
41518SOL    HW126451  10.281  14.554   7.683
41518SOL    HW226452  10.335  14.647   7.789
41519SOL     OW26453   1.806   5.994   2.950
41519SOL    HW126454   1.851   6.022   2.870
41519SOL    HW226455   1.844   6.048   3.019
41520SOL     OW26456   5.381   8.422   5.065
41520SOL    HW126457   5.422   8.359   5.124
41520SOL    HW226458   5.288   8.403   5.068
41521SOL     OW26459   5.342   7.432   3.178
41521SOL    HW126460   5.271   7.454   3.118
41521SOL    HW226461   5.383   7.354   3.140
41522SOL     OW26462   0.352   3.085   1.244
41522SOL    HW126463   0.311   3.126   1.168
41522SOL    HW226464   0.317   2.996   1.245
41523SOL     OW26465   9.819   8.796  14.851
41523SOL    HW126466   9.877   8.761  14.784
41523SOL    HW226467   9.814   8.889  14.833
41524SOL     OW26468  11.231  13.082   5.369
41524SOL    HW126469  11.152  13.058   5.321
41524SOL    HW226470  11.291  13.008   5.356
41525SOL     OW26471   7.327  14.531   4.774
41525SOL    HW126472   7.318  14.461   4.838
41525SOL    HW226473   7.248  14.524   4.720
41526SOL     OW26474  14.699   1.807   0.906
41526SOL    HW126475  14.608   1.834   0.895
41526SOL    HW226476  14.704   1.775   0.996
41527SOL     OW26477  14.553   3.361   0.375
41527SOL    HW126478  14.607   3.360   0.297
41527SOL    HW226479  14.560   3.273   0.411
41528SOL     OW26480  11.549   2.946   2.790
41528SOL    HW126481  11.590   2.868   2.828
41528SOL    HW226482  11.457   2.941   2.819
41529SOL     OW26483   3.386   1.176  11.265
41529SOL    HW126484   3.409   1.269  11.260
41529SOL    HW226485   3.434   1.143  11.341
41530SOL     OW26486  12.159   1.771  10.758
41530SOL    HW126487  12.160   1.864  10.736
41530SOL    HW226488  12.067   1.746  10.751
41531SOL     OW26489   9.723  11.641   6.851
41531SOL    HW126490   9.628  11.654   6.852
41531SOL    HW226491   9.734  11.547   6.868
41532SOL     OW26492   3.574  14.570   2.216
41532SOL    HW126493   3.593  14.497   2.157
41532SOL    HW226494   3.528  14.529   2.290
41533SOL     OW26495  12.614  12.950   1.299
41533SOL    HW126496  12.616  12.859   1.267
41533SOL    HW226497  12.526  12.962   1.334
41534SOL     OW26498  12.835   9.837   4.380
41534SOL    HW126499  12.872   9.913   4.426
41534SOL    HW226500  12.909   9.777   4.371
41535SOL     OW26501  10.318   5.902  10.928
41535SOL    HW126502  10.360   5.983  10.899
41535SOL    HW226503  10.228   5.927  10.947
41536SOL     OW26504   5.003   9.068   8.866
41536SOL    HW126505   4.908   9.063   8.860
41536SOL    HW226506   5.022   9.162   8.858
41537SOL     OW26507  14.777   3.130   0.442
41537SOL    HW126508  14.686   3.102   0.441
41537SOL    HW226509  14.827   3.049   0.454
41538SOL     OW26510  10.081   1.916  12.296
41538SOL    HW126511  10.129   1.849  12.344
41538SOL    HW226512  10.011   1.944  12.355
41539SOL     OW26513   1.177   5.716  13.053
41539SOL    HW126514   1.134   5.671  13.125
41539SOL    HW226515   1.257   5.665  13.037
41540SOL     OW26516   0.990   3.353   5.645
41540SOL    HW126517   1.036   3.335   5.563
41540SOL    HW226518   0.907   3.392   5.619
41541SOL     OW26519   6.823   9.596   6.330
41541SOL    HW126520   6.871   9.530   6.279
41541SOL    HW226521   6.750   9.622   6.275
41542SOL     OW26522   5.359   4.338   5.296
41542SOL    HW126523   5.283   4.296   5.337
41542SOL    HW226524   5.360   4.426   5.333
41543SOL     OW26525   8.848   2.028   8.331
41543SOL    HW126526   8.879   2.081   8.404
41543SOL    HW226527   8.764   1.993   8.360
41544SOL     OW26528   1.123   8.700   6.181
41544SOL    HW126529   1.119   8.680   6.088
41544SOL    HW226530   1.192   8.766   6.189
41545SOL     OW26531   7.221   3.505   6.232
41545SOL    HW126532   7.236   3.533   6.142
41545SOL    HW226533   7.155   3.436   6.226
41546SOL     OW26534   1.407   8.517   5.160
41546SOL    HW126535   1.464   8.486   5.230
41546SOL    HW226536   1.328   8.547   5.205
41547SOL     OW26537  14.681   1.892  11.238
41547SOL    HW126538  14.747   1.888  11.307
41547SOL    HW226539  14.729   1.921  11.161
41548SOL     OW26540   9.247   8.311   3.857
41548SOL    HW126541   9.216   8.377   3.795
41548SOL    HW226542   9.323   8.350   3.898
41549SOL     OW26543   5.581  12.576   7.572
41549SOL    HW126544   5.660  12.535   7.538
41549SOL    HW226545   5.588  12.668   7.544
41550SOL     OW26546  11.089  14.856   5.094
41550SOL    HW126547  11.114   0.024   5.010
41550SOL    HW226548  11.014  14.801   5.073
41551SOL     OW26549   5.541   0.438  11.506
41551SOL    HW126550   5.483   0.514  11.513
41551SOL    HW226551   5.550   0.406  11.596
41552SOL     OW26552  11.320   7.661  11.953
41552SOL    HW126553  11.305   7.694  11.865
41552SOL    HW226554  11.388   7.717  11.990
41553SOL     OW26555   3.256  12.000   0.216
41553SOL    HW126556   3.227  12.059   0.286
41553SOL    HW226557   3.184  11.938   0.206
41554SOL     OW26558  14.459   1.044   9.931
41554SOL    HW126559  14.448   1.019  10.023
41554SOL    HW226560  14.540   1.094   9.929
41555SOL     OW26561   9.325   3.771   5.771
41555SOL    HW126562   9.327   3.711   5.845
41555SOL    HW226563   9.338   3.716   5.694
41556SOL     OW26564  10.335  14.529  12.365
41556SOL    HW126565  10.339  14.445  12.411
41556SOL    HW226566  10.337  14.506  12.272
41557SOL     OW26567  11.056   1.163   6.343
41557SOL    HW126568  11.008   1.227   6.290
41557SOL    HW226569  11.039   1.079   6.301
41558SOL     OW26570   2.226  13.703   2.236
41558SOL    HW126571   2.162  13.644   2.276
41558SOL    HW226572   2.178  13.746   2.165
41559SOL     OW26573  10.331   2.142  10.244
41559SOL    HW126574  10.260   2.098  10.291
41559SOL    HW226575  10.401   2.077  10.240
41560SOL     OW26576  14.146   7.738   7.068
41560SOL    HW126577  14.218   7.701   7.120
41560SOL    HW226578  14.072   7.739   7.129
41561SOL     OW26579   2.243  10.846  11.258
41561SOL    HW126580   2.208  10.787  11.192
41561SOL    HW226581   2.338  10.831  11.255
41562SOL     OW26582   3.547  10.027  12.504
41562SOL    HW126583   3.632  10.046  12.543
41562SOL    HW226584   3.510  10.112  12.483
41563SOL     OW26585  14.150   7.095  10.639
41563SOL    HW126586  14.092   7.114  10.713
41563SOL    HW226587  14.127   7.005  10.613
41564SOL     OW26588  11.629   6.862   6.513
41564SOL    HW126589  11.563   6.919   6.552
41564SOL    HW226590  11.623   6.879   6.419
41565SOL     OW26591   0.522   7.503  12.047
41565SOL    HW126592   0.561   7.439  12.107
41565SOL    HW226593   0.499   7.452  11.969
41566SOL     OW26594   3.512   5.103   7.050
41566SOL    HW126595   3.548   5.027   7.003
41566SOL    HW226596   3.576   5.172   7.036
41567SOL     OW26597   0.031   4.553  14.072
41567SOL    HW126598   0.001   4.606  14.146
41567SOL    HW226599   0.110   4.510  14.104
41568SOL     OW26600   4.433  10.865   3.067
41568SOL    HW126601   4.520  10.899   3.047
41568SOL    HW226602   4.372  10.927   3.026
41569SOL     OW26603  12.287   7.263   2.589
41569SOL    HW126604  12.225   7.192   2.570
41569SOL    HW226605  12.318   7.244   2.678
41570SOL     OW26606   6.751   2.283  12.120
41570SOL    HW126607   6.688   2.229  12.169
41570SOL    HW226608   6.801   2.219  12.069
41571SOL     OW26609   0.319   7.694   4.480
41571SOL    HW126610   0.280   7.660   4.400
41571SOL    HW226611   0.395   7.638   4.496
41572SOL     OW26612  10.600   4.634  13.126
41572SOL    HW126613  10.576   4.621  13.217
41572SOL    HW226614  10.528   4.684  13.088
41573SOL     OW26615   7.999  14.775   5.496
41573SOL    HW126616   8.013  14.747   5.405
41573SOL    HW226617   7.993  14.694   5.546
41574SOL     OW26618   7.917  12.476  12.658
41574SOL    HW126619   7.937  12.490  12.751
41574SOL    HW226620   7.970  12.401  12.633
41575SOL     OW26621   6.883  11.308  14.649
41575SOL    HW126622   6.938  11.375  14.608
41575SOL    HW226623   6.793  11.341  14.637
41576SOL     OW26624   5.655  12.289   2.702
41576SOL    HW126625   5.750  12.282   2.708
41576SOL    HW226626   5.629  12.224   2.636
41577SOL     OW26627  13.564   6.344  13.676
41577SOL    HW126628  13.549   6.256  13.641
41577SOL    HW226629  13.627   6.383  13.615
41578SOL     OW26630  13.656   6.251   6.710
41578SOL    HW126631  13.589   6.264   6.777
41578SOL    HW226632  13.607   6.215   6.635
41579SOL     OW26633   8.467   2.113   1.144
41579SOL    HW126634   8.511   2.096   1.227
41579SOL    HW226635   8.489   2.036   1.090
41580SOL     OW26636  11.161   1.976   0.343
41580SOL    HW126637  11.201   1.999   0.427
41580SOL    HW226638  11.121   2.058   0.313
41581SOL     OW26639   8.696   0.182   4.473
41581SOL    HW126640   8.788   0.170   4.450
41581SOL    HW226641   8.696   0.193   4.568
41582SOL     OW26642   4.924  13.631   9.869
41582SOL    HW126643   4.840  13.634   9.823
41582SOL    HW226644   4.984  13.680   9.814
41583SOL     OW26645   7.052   0.188   0.578
41583SOL    HW126646   7.144   0.196   0.605
41583SOL    HW226647   7.040   0.259   0.514
41584SOL     OW26648  10.120   0.959   7.902
41584SOL    HW126649  10.124   1.020   7.828
41584SOL    HW226650  10.069   1.005   7.969
41585SOL     OW26651   3.841   9.400   8.348
41585SOL    HW126652   3.872   9.443   8.428
41585SOL    HW226653   3.779   9.334   8.379
41586SOL     OW26654  10.527  12.143   8.495
41586SOL    HW126655  10.438  12.110   8.480
41586SOL    HW226656  10.566  12.147   8.408
41587SOL     OW26657  10.826   1.284   8.773
41587SOL    HW126658  10.916   1.311   8.757
41587SOL    HW226659  10.798   1.243   8.691
41588SOL     OW26660  10.914   2.364   6.968
41588SOL    HW126661  10.901   2.428   7.038
41588SOL    HW226662  10.965   2.294   7.009
41589SOL     OW26663   8.432   6.576  13.237
41589SOL    HW126664   8.406   6.646  13.297
41589SOL    HW226665   8.353   6.523  13.226
41590SOL     OW26666   2.486   7.288   3.514
41590SOL    HW126667   2.448   7.357   3.460
41590SOL    HW226668   2.568   7.265   3.470
41591SOL     OW26669   3.957  12.204   5.176
41591SOL    HW126670   4.032  12.144   5.177
41591SOL    HW226671   3.894  12.163   5.235
41592SOL     OW26672   8.555   3.971  14.644
41592SOL    HW126673   8.614   4.042  14.670
41592SOL    HW226674   8.494   3.963  14.717
41593SOL     OW26675  10.366   5.051   8.264
41593SOL    HW126676  10.323   5.130   8.297
41593SOL    HW226677  10.313   5.023   8.190
41594SOL     OW26678  13.529  13.537   4.602
41594SOL    HW126679  13.611  13.565   4.562
41594SOL    HW226680  13.515  13.448   4.569
41595SOL     OW26681   3.070  10.412   7.838
41595SOL    HW126682   3.014  10.335   7.850
41595SOL    HW226683   3.157  10.383   7.868
41596SOL     OW26684   2.338   6.317   3.244
41596SOL    HW126685   2.407   6.300   3.307
41596SOL    HW226686   2.383   6.330   3.161
41597SOL     OW26687   4.269   5.965   7.851
41597SOL    HW126688   4.337   5.960   7.918
41597SOL    HW226689   4.216   6.041   7.877
41598SOL     OW26690   1.256  10.797   9.452
41598SOL    HW126691   1.266  10.750   9.534
41598SOL    HW226692   1.201  10.740   9.398
41599SOL     OW26693   0.342  10.153   1.185
41599SOL    HW126694   0.254  10.118   1.175
41599SOL    HW226695   0.368  10.127   1.273
41600SOL     OW26696  12.897   0.657   3.779
41600SOL    HW126697  12.967   0.717   3.803
41600SOL    HW226698  12.895   0.660   3.683
41601SOL     OW26699   0.573   6.087   5.685
41601SOL    HW126700   0.517   6.140   5.628
41601SOL    HW226701   0.512   6.028   5.730
41602SOL     OW26702   2.944   8.190  13.885
41602SOL    HW126703   2.914   8.114  13.836
41602SOL    HW226704   3.014   8.228  13.832
41603SOL     OW26705  10.768   3.183  11.047
41603SOL    HW126706  10.832   3.166  11.115
41603SOL    HW226707  10.687   3.144  11.080
41604SOL     OW26708   6.092   4.035   7.090
41604SOL    HW126709   6.183   4.016   7.112
41604SOL    HW226710   6.073   3.979   7.015
41605SOL     OW26711  10.776   9.118   1.432
41605SOL    HW126712  10.774   9.041   1.374
41605SOL    HW226713  10.714   9.179   1.391
41606SOL     OW26714  13.603  10.395   6.471
41606SOL    HW126715  13.616  10.490   6.472
41606SOL    HW226716  13.647  10.365   6.551
41607SOL     OW26717   2.344   7.092   8.956
41607SOL    HW126718   2.404   7.112   8.885
41607SOL    HW226719   2.400   7.069   9.030
41608SOL     OW26720  11.850   2.982   5.066
41608SOL    HW126721  11.840   3.077   5.064
41608SOL    HW226722  11.916   2.966   5.134
41609SOL     OW26723   8.965   2.969  11.654
41609SOL    HW126724   9.035   2.937  11.597
41609SOL    HW226725   8.907   2.894  11.665
41610SOL     OW26726   7.172  11.682   9.961
41610SOL    HW126727   7.238  11.673  10.030
41610SOL    HW226728   7.193  11.614   9.897
41611SOL     OW26729   8.759   5.358  12.505
41611SOL    HW126730   8.675   5.401  12.487
41611SOL    HW226731   8.800   5.349  12.419
41612SOL     OW26732   0.208  12.934   7.672
41612SOL    HW126733   0.233  12.916   7.762
41612SOL    HW226734   0.194  13.029   7.669
41613SOL     OW26735   4.633   3.263   4.888
41613SOL    HW126736   4.703   3.323   4.913
41613SOL    HW226737   4.633   3.265   4.793
41614SOL     OW26738  11.651  14.739   8.622
41614SOL    HW126739  11.729  14.769   8.575
41614SOL    HW226740  11.684  14.675   8.686
41615SOL     OW26741  12.350   2.634   5.424
41615SOL    HW126742  12.388   2.697   5.363
41615SOL    HW226743  12.307   2.569   5.368
41616SOL     OW26744  11.697  10.394   5.561
41616SOL    HW126745  11.791  10.398   5.576
41616SOL    HW226746  11.673  10.484   5.538
41617SOL     OW26747  14.498   6.321   6.669
41617SOL    HW126748  14.553   6.256   6.714
41617SOL    HW226749  14.519   6.310   6.576
41618SOL     OW26750   1.716  12.667   9.058
41618SOL    HW126751   1.750  12.585   9.094
41618SOL    HW226752   1.677  12.641   8.974
41619SOL     OW26753   6.438   6.081   3.547
41619SOL    HW126754   6.361   6.056   3.496
41619SOL    HW226755   6.488   6.137   3.488
41620SOL     OW26756   0.860   2.555  12.422
41620SOL    HW126757   0.807   2.502  12.481
41620SOL    HW226758   0.924   2.598  12.479
41621SOL     OW26759   0.739  10.364  10.647
41621SOL    HW126760   0.722  10.452  10.680
41621SOL    HW226761   0.819  10.373  10.594
41622SOL     OW26762   4.634   9.922   5.558
41622SOL    HW126763   4.715   9.928   5.609
41622SOL    HW226764   4.565   9.948   5.619
41623SOL     OW26765   5.236  12.946   9.082
41623SOL    HW126766   5.200  12.859   9.063
41623SOL    HW226767   5.183  13.006   9.028
41624SOL     OW26768  11.863   5.908   0.641
41624SOL    HW126769  11.911   5.953   0.710
41624SOL    HW226770  11.834   5.826   0.682
41625SOL     OW26771  13.243   4.747  12.423
41625SOL    HW126772  13.159   4.756  12.378
41625SOL    HW226773  13.223   4.768  12.515
41626SOL     OW26774   9.628  12.428   3.643
41626SOL    HW126775   9.577  12.391   3.716
41626SOL    HW226776   9.562  12.472   3.588
41627SOL     OW26777   1.981  10.572   9.027
41627SOL    HW126778   2.053  10.509   9.026
41627SOL    HW226779   1.993  10.622   8.946
41628SOL     OW26780  11.177   9.524   5.015
41628SOL    HW126781  11.191   9.582   4.940
41628SOL    HW226782  11.198   9.437   4.982
41629SOL     OW26783  11.006   6.847  14.076
41629SOL    HW126784  10.980   6.899  14.000
41629SOL    HW226785  10.935   6.858  14.139
41630SOL     OW26786   0.220   9.321  12.160
41630SOL    HW126787   0.171   9.401  12.140
41630SOL    HW226788   0.169   9.279  12.229
41631SOL     OW26789   6.852  11.712  10.479
41631SOL    HW126790   6.776  11.683  10.530
41631SOL    HW226791   6.921  11.651  10.502
41632SOL     OW26792  14.871  12.268  13.263
41632SOL    HW126793   0.090  12.240  13.263
41632SOL    HW226794  14.821  12.187  13.267
41633SOL     OW26795  11.255   2.349  13.750
41633SOL    HW126796  11.301   2.423  13.710
41633SOL    HW226797  11.164   2.379  13.757
41634SOL     OW26798   2.314  10.007  11.297
41634SOL    HW126799   2.232  10.040  11.261
41634SOL    HW226800   2.347  10.078  11.351
41635SOL     OW26801   0.882  12.022   9.280
41635SOL    HW126802   0.973  11.992   9.278
41635SOL    HW226803   0.888  12.117   9.268
41636SOL     OW26804   7.476   9.807   3.604
41636SOL    HW126805   7.472   9.842   3.693
41636SOL    HW226806   7.441   9.718   3.612
41637SOL     OW26807   2.348  12.546  13.787
41637SOL    HW126808   2.389  12.595  13.858
41637SOL    HW226809   2.392  12.577  13.707
41638SOL     OW26810   8.567   8.584  12.594
41638SOL    HW126811   8.653   8.541  12.595
41638SOL    HW226812   8.579   8.662  12.648
41639SOL     OW26813  12.000   4.670   9.257
41639SOL    HW126814  12.060   4.619   9.202
41639SOL    HW226815  11.923   4.683   9.202
41640SOL     OW26816   1.227  12.881   9.597
41640SOL    HW126817   1.295  12.817   9.616
41640SOL    HW226818   1.257  12.925   9.517
41641SOL     OW26819   8.784   7.080  13.129
41641SOL    HW126820   8.855   7.138  13.104
41641SOL    HW226821   8.817   6.992  13.113
41642SOL     OW26822   5.743   4.183   6.770
41642SOL    HW126823   5.649   4.171   6.787
41642SOL    HW226824   5.775   4.232   6.846
41643SOL     OW26825   8.966  12.927   7.405
41643SOL    HW126826   8.908  12.968   7.468
41643SOL    HW226827   9.052  12.925   7.449
41644SOL     OW26828   3.664   1.350   9.017
41644SOL    HW126829   3.760   1.348   9.013
41644SOL    HW226830   3.636   1.302   8.939
41645SOL     OW26831   0.201   2.465   0.078
41645SOL    HW126832   0.166   2.548   0.045
41645SOL    HW226833   0.287   2.457   0.037
41646SOL     OW26834   6.285   1.631   3.435
41646SOL    HW126835   6.364   1.673   3.469
41646SOL    HW226836   6.307   1.609   3.345
41647SOL     OW26837   1.543   6.437  11.421
41647SOL    HW126838   1.536   6.436  11.326
41647SOL    HW226839   1.508   6.522  11.447
41648SOL     OW26840  12.968  12.053   8.638
41648SOL    HW126841  12.917  11.999   8.578
41648SOL    HW226842  12.947  12.143   8.614
41649SOL     OW26843   0.147  14.301  12.628
41649SOL    HW126844   0.170  14.383  12.583
41649SOL    HW226845   0.113  14.329  12.713
41650SOL     OW26846  11.773   9.041   2.161
41650SOL    HW126847  11.783   9.136   2.172
41650SOL    HW226848  11.804   9.004   2.244
41651SOL     OW26849   8.320  11.312   7.336
41651SOL    HW126850   8.348  11.228   7.301
41651SOL    HW226851   8.247  11.338   7.281
41652SOL     OW26852  11.550   7.534   0.185
41652SOL    HW126853  11.531   7.620   0.223
41652SOL    HW226854  11.472   7.481   0.204
41653SOL     OW26855   7.217  11.254  14.684
41653SOL    HW126856   7.198  11.302  14.764
41653SOL    HW226857   7.188  11.313  14.613
41654SOL     OW26858   6.174  10.979   9.785
41654SOL    HW126859   6.255  11.019   9.817
41654SOL    HW226860   6.145  10.924   9.858
41655SOL     OW26861   7.329   6.972   1.465
41655SOL    HW126862   7.322   6.989   1.559
41655SOL    HW226863   7.297   7.052   1.424
41656SOL     OW26864   3.231  10.539  13.540
41656SOL    HW126865   3.138  10.524  13.524
41656SOL    HW226866   3.233  10.617  13.596
41657SOL     OW26867  10.997  12.786   3.282
41657SOL    HW126868  11.050  12.805   3.205
41657SOL    HW226869  11.053  12.807   3.356
41658SOL     OW26870   4.303   5.259   8.075
41658SOL    HW126871   4.347   5.239   7.993
41658SOL    HW226872   4.216   5.221   8.066
41659SOL     OW26873   0.919  11.935  11.719
41659SOL    HW126874   0.957  12.011  11.763
41659SOL    HW226875   0.955  11.860  11.767
41660SOL     OW26876   2.407   8.501   8.559
41660SOL    HW126877   2.375   8.441   8.626
41660SOL    HW226878   2.442   8.575   8.608
41661SOL     OW26879  12.881   5.206  14.441
41661SOL    HW126880  12.828   5.278  14.409
41661SOL    HW226881  12.944   5.189  14.371
41662SOL     OW26882   8.407   6.699   2.246
41662SOL    HW126883   8.356   6.768   2.288
41662SOL    HW226884   8.360   6.619   2.267
41663SOL     OW26885  12.445   6.247   9.877
41663SOL    HW126886  12.372   6.281   9.825
41663SOL    HW226887  12.405   6.183   9.936
41664SOL     OW26888  13.332   5.442  10.017
41664SOL    HW126889  13.245   5.466   9.985
41664SOL    HW226890  13.335   5.347  10.010
41665SOL     OW26891  11.941  14.675   1.420
41665SOL    HW126892  11.934  14.579   1.422
41665SOL    HW226893  12.031  14.691   1.394
41666SOL     OW26894   3.717   4.826   7.748
41666SOL    HW126895   3.659   4.759   7.713
41666SOL    HW226896   3.790   4.829   7.686
41667SOL     OW26897   2.138   3.601  12.897
41667SOL    HW126898   2.116   3.663  12.965
41667SOL    HW226899   2.229   3.621  12.874
41668SOL     OW26900  11.952  11.220  12.227
41668SOL    HW126901  11.860  11.230  12.251
41668SOL    HW226902  11.988  11.160  12.292
41669SOL     OW26903   3.108   0.544   7.586
41669SOL    HW126904   3.160   0.558   7.507
41669SOL    HW226905   3.032   0.601   7.575
41670SOL     OW26906  14.020   4.006   5.191
41670SOL    HW126907  13.928   4.030   5.179
41670SOL    HW226908  14.024   3.971   5.280
41671SOL     OW26909   5.796  10.752  10.098
41671SOL    HW126910   5.856  10.809  10.145
41671SOL    HW226911   5.740  10.812  10.047
41672SOL     OW26912   6.110   4.774  13.766
41672SOL    HW126913   6.051   4.769  13.841
41672SOL    HW226914   6.193   4.740  13.798
41673SOL     OW26915  10.875  14.752  13.517
41673SOL    HW126916  10.880  14.847  13.518
41673SOL    HW226917  10.785  14.733  13.488
41674SOL     OW26918   3.037   7.224   1.634
41674SOL    HW126919   3.042   7.134   1.601
41674SOL    HW226920   3.039   7.279   1.555
41675SOL     OW26921   1.663   8.951  14.765
41675SOL    HW126922   1.576   8.992  14.766
41675SOL    HW226923   1.690   8.950  14.857
41676SOL     OW26924   6.407   4.785  13.595
41676SOL    HW126925   6.380   4.742  13.676
41676SOL    HW226926   6.326   4.789  13.543
41677SOL     OW26927  14.757   0.686   1.614
41677SOL    HW126928  14.792   0.609   1.658
41677SOL    HW226929  14.759   0.755   1.680
41678SOL     OW26930   6.150  10.814   7.814
41678SOL    HW126931   6.203  10.814   7.734
41678SOL    HW226932   6.114  10.726   7.819
41679SOL     OW26933   7.427  13.789   9.524
41679SOL    HW126934   7.392  13.841   9.452
41679SOL    HW226935   7.435  13.851   9.597
41680SOL     OW26936   4.499   1.000   5.356
41680SOL    HW126937   4.489   1.085   5.315
41680SOL    HW226938   4.586   1.003   5.397
41681SOL     OW26939   8.250   8.485   6.139
41681SOL    HW126940   8.313   8.459   6.205
41681SOL    HW226941   8.197   8.407   6.124
41682SOL     OW26942   4.181   1.461   7.566
41682SOL    HW126943   4.168   1.466   7.661
41682SOL    HW226944   4.124   1.528   7.530
41683SOL     OW26945  12.478   5.054   6.576
41683SOL    HW126946  12.482   5.063   6.671
41683SOL    HW226947  12.401   5.000   6.560
41684SOL     OW26948  13.422   9.288  10.741
41684SOL    HW126949  13.442   9.233  10.665
41684SOL    HW226950  13.500   9.342  10.753
41685SOL     OW26951   9.060   9.683  11.785
41685SOL    HW126952   8.980   9.648  11.825
41685SOL    HW226953   9.085   9.618  11.720
41686SOL     OW26954  14.184  10.558  11.806
41686SOL    HW126955  14.169  10.577  11.713
41686SOL    HW226956  14.110  10.599  11.851
41687SOL     OW26957  11.299   2.185   0.590
41687SOL    HW126958  11.216   2.142   0.607
41687SOL    HW226959  11.290   2.271   0.631
41688SOL     OW26960   5.293  14.752   6.840
41688SOL    HW126961   5.322  14.777   6.928
41688SOL    HW226962   5.249  14.668   6.853
41689SOL     OW26963   9.271   8.017   9.012
41689SOL    HW126964   9.233   7.958   8.947
41689SOL    HW226965   9.210   8.090   9.019
41690SOL     OW26966  14.646   6.361   2.819
41690SOL    HW126967  14.557   6.356   2.783
41690SOL    HW226968  14.646   6.441   2.872
41691SOL     OW26969   9.753   3.180   2.052
41691SOL    HW126970   9.797   3.115   2.106
41691SOL    HW226971   9.731   3.133   1.971
41692SOL     OW26972   4.897   1.444  11.473
41692SOL    HW126973   4.840   1.372  11.448
41692SOL    HW226974   4.970   1.439  11.411
41693SOL     OW26975   9.549  11.737  11.144
41693SOL    HW126976   9.507  11.808  11.192
41693SOL    HW226977   9.488  11.663  11.152
41694SOL     OW26978   8.994   1.408  11.328
41694SOL    HW126979   8.983   1.328  11.277
41694SOL    HW226980   9.041   1.380  11.406
41695SOL     OW26981   0.078   4.167   4.408
41695SOL    HW126982   0.095   4.252   4.369
41695SOL    HW226983  14.872   4.134   4.364
41696SOL     OW26984   6.192   6.283   0.204
41696SOL    HW126985   6.142   6.204   0.182
41696SOL    HW226986   6.145   6.354   0.158
41697SOL     OW26987   8.096   0.072   3.904
41697SOL    HW126988   8.178   0.108   3.869
41697SOL    HW226989   8.124   0.009   3.970
41698SOL     OW26990   0.301  10.320   5.761
41698SOL    HW126991   0.251  10.365   5.693
41698SOL    HW226992   0.382  10.293   5.717
41699SOL     OW26993   4.314   2.499   0.799
41699SOL    HW126994   4.401   2.510   0.838
41699SOL    HW226995   4.298   2.581   0.752
41700SOL     OW26996   8.573  10.304  10.353
41700SOL    HW126997   8.665  10.307  10.380
41700SOL    HW226998   8.549  10.212  10.359
41701SOL     OW26999   4.273   5.550  11.765
41701SOL    HW127000   4.335   5.570  11.835
41701SOL    HW227001   4.325   5.504  11.699
41702SOL     OW27002   6.458   1.800  14.202
41702SOL    HW127003   6.512   1.862  14.250
41702SOL    HW227004   6.501   1.791  14.117
41703SOL     OW27005   6.577  14.694   4.037
41703SOL    HW127006   6.664  14.654   4.036
41703SOL    HW227007   6.578  14.754   3.963
41704SOL     OW27008   7.481   5.859   8.766
41704SOL    HW127009   7.496   5.940   8.814
41704SOL    HW227010   7.386   5.851   8.760
41705SOL     OW27011   0.070   7.220  14.522
41705SOL    HW127012  14.847   7.216  14.530
41705SOL    HW227013   0.101   7.234  14.612
41706SOL     OW27014   6.765   6.810   9.266
41706SOL    HW127015   6.683   6.800   9.217
41706SOL    HW227016   6.834   6.805   9.200
41707SOL     OW27017   3.077   3.318   5.190
41707SOL    HW127018   3.160   3.310   5.144
41707SOL    HW227019   3.064   3.232   5.232
41708SOL     OW27020   9.373   6.992   3.292
41708SOL    HW127021   9.372   6.898   3.271
41708SOL    HW227022   9.398   7.034   3.210
41709SOL     OW27023   5.012   4.619   3.796
41709SOL    HW127024   4.964   4.541   3.769
41709SOL    HW227025   5.086   4.586   3.846
41710SOL     OW27026   0.434   7.349  11.825
41710SOL    HW127027   0.399   7.269  11.786
41710SOL    HW227028   0.374   7.418  11.796
41711SOL     OW27029  13.630   4.839  14.193
41711SOL    HW127030  13.595   4.802  14.274
41711SOL    HW227031  13.689   4.909  14.222
41712SOL     OW27032   4.517   3.195  14.723
41712SOL    HW127033   4.465   3.133  14.672
41712SOL    HW227034   4.587   3.142  14.760
41713SOL     OW27035   0.180  14.692  13.958
41713SOL    HW127036   0.090  14.710  13.984
41713SOL    HW227037   0.201  14.761  13.895
41714SOL     OW27038   0.956   7.971   2.606
41714SOL    HW127039   1.018   7.902   2.627
41714SOL    HW227040   0.871   7.937   2.634
41715SOL     OW27041   2.280   5.969  12.217
41715SOL    HW127042   2.247   6.059  12.215
41715SOL    HW227043   2.250   5.934  12.301
41716SOL     OW27044  14.702  13.981  14.400
41716SOL    HW127045  14.779  14.021  14.440
41716SOL    HW227046  14.642  14.054  14.386
41717SOL     OW27047   9.452   4.739   7.280
41717SOL    HW127048   9.405   4.768   7.358
41717SOL    HW227049   9.469   4.820   7.232
41718SOL     OW27050   6.269   3.321   9.765
41718SOL    HW127051   6.361   3.336   9.785
41718SOL    HW227052   6.223   3.338   9.847
41719SOL     OW27053   8.375   0.127   0.197
41719SOL    HW127054   8.409   0.048   0.154
41719SOL    HW227055   8.305   0.157   0.140
41720SOL     OW27056  11.397   3.847   2.165
41720SOL    HW127057  11.453   3.830   2.241
41720SOL    HW227058  11.387   3.942   2.163
41721SOL     OW27059   4.389  13.114   4.076
41721SOL    HW127060   4.336  13.188   4.046
41721SOL    HW227061   4.380  13.115   4.172
41722SOL     OW27062  13.028   0.903   5.334
41722SOL    HW127063  12.941   0.942   5.328
41722SOL    HW227064  13.061   0.903   5.245
41723SOL     OW27065   6.309   9.844  12.163
41723SOL    HW127066   6.247   9.785  12.119
41723SOL    HW227067   6.266   9.866  12.246
41724SOL     OW27068   0.643   4.985  14.280
41724SOL    HW127069   0.611   5.035  14.355
41724SOL    HW227070   0.729   4.954  14.308
41725SOL     OW27071  14.735  12.603   0.250
41725SOL    HW127072  14.654  12.638   0.286
41725SOL    HW227073  14.715  12.512   0.229
41726SOL     OW27074   9.863   6.487   9.354
41726SOL    HW127075   9.932   6.423   9.371
41726SOL    HW227076   9.793   6.436   9.312
41727SOL     OW27077  11.725   9.162   8.177
41727SOL    HW127078  11.706   9.246   8.134
41727SOL    HW227079  11.745   9.102   8.105
41728SOL     OW27080   9.959   5.022  12.119
41728SOL    HW127081  10.023   4.959  12.086
41728SOL    HW227082  10.000   5.057  12.199
41729SOL     OW27083  14.799   4.713  14.516
41729SOL    HW127084  14.848   4.786  14.555
41729SOL    HW227085  14.810   4.725  14.421
41730SOL     OW27086   4.913   4.586   1.481
41730SOL    HW127087   4.839   4.556   1.534
41730SOL    HW227088   4.987   4.533   1.510
41731SOL     OW27089   2.638   2.804  13.190
41731SOL    HW127090   2.628   2.747  13.266
41731SOL    HW227091   2.629   2.893  13.226
41732SOL     OW27092   8.223  11.920   1.047
41732SOL    HW127093   8.171  11.860   1.100
41732SOL    HW227094   8.180  11.920   0.961
41733SOL     OW27095   3.009   7.684  12.063
41733SOL    HW127096   3.101   7.661  12.071
41733SOL    HW227097   2.963   7.621  12.119
41734SOL     OW27098   6.223  13.458  13.652
41734SOL    HW127099   6.250  13.548  13.638
41734SOL    HW227100   6.143  13.465  13.705
41735SOL     OW27101   1.725  13.433   0.143
41735SOL    HW127102   1.793  13.379   0.183
41735SOL    HW227103   1.773  13.488   0.081
41736SOL     OW27104  14.754  10.516   6.736
41736SOL    HW127105  14.752  10.577   6.662
41736SOL    HW227106  14.697  10.557   6.802
41737SOL     OW27107   6.398  13.233   7.569
41737SOL    HW127108   6.436  13.148   7.546
41737SOL    HW227109   6.352  13.217   7.651
41738SOL     OW27110   0.942  14.763   8.530
41738SOL    HW127111   0.948  14.669   8.510
41738SOL    HW227112   0.916  14.766   8.622
41739SOL     OW27113   1.244   7.983   8.627
41739SOL    HW127114   1.264   8.050   8.693
41739SOL    HW227115   1.168   8.018   8.580
41740SOL     OW27116  13.451   2.604   3.795
41740SOL    HW127117  13.474   2.513   3.815
41740SOL    HW227118  13.369   2.619   3.841
41741SOL     OW27119   8.279   6.143  10.998
41741SOL    HW127120   8.211   6.202  10.965
41741SOL    HW227121   8.242   6.055  10.989
41742SOL     OW27122   3.333   9.154   3.306
41742SOL    HW127123   3.257   9.200   3.340
41742SOL    HW227124   3.325   9.065   3.340
41743SOL     OW27125   2.862   4.317   0.269
41743SOL    HW127126   2.945   4.276   0.292
41743SOL    HW227127   2.826   4.262   0.199
41744SOL     OW27128   5.416  11.134   7.729
41744SOL    HW127129   5.495  11.128   7.675
41744SOL    HW227130   5.443  11.186   7.805
41745SOL     OW27131   2.688   7.978   5.039
41745SOL    HW127132   2.743   8.052   5.013
41745SOL    HW227133   2.750   7.913   5.072
41746SOL     OW27134   8.395   4.279   2.673
41746SOL    HW127135   8.458   4.349   2.693
41746SOL    HW227136   8.310   4.319   2.688
41747SOL     OW27137   2.846   6.903   3.303
41747SOL    HW127138   2.801   6.977   3.264
41747SOL    HW227139   2.863   6.930   3.393
41748SOL     OW27140   5.179  13.791   7.839
41748SOL    HW127141   5.257  13.738   7.851
41748SOL    HW227142   5.193  13.835   7.755
41749SOL     OW27143   0.709   4.290  14.287
41749SOL    HW127144   0.706   4.219  14.351
41749SOL    HW227145   0.801   4.296  14.262
41750SOL     OW27146   5.176   3.482  14.196
41750SOL    HW127147   5.153   3.436  14.277
41750SOL    HW227148   5.099   3.534  14.176
41751SOL     OW27149   4.442   0.057  13.762
41751SOL    HW127150   4.509   0.112  13.722
41751SOL    HW227151   4.381   0.038  13.691
41752SOL     OW27152  10.446  13.432   5.145
41752SOL    HW127153  10.478  13.482   5.219
41752SOL    HW227154  10.525  13.395   5.105
41753SOL     OW27155  10.233  10.164  14.831
41753SOL    HW127156  10.174  10.114   0.015
41753SOL    HW227157  10.253  10.104  14.759
41754SOL     OW27158   6.612   8.231  11.528
41754SOL    HW127159   6.696   8.262  11.562
41754SOL    HW227160   6.626   8.138  11.509
41755SOL     OW27161   8.374   6.886  11.802
41755SOL    HW127162   8.415   6.973  11.798
41755SOL    HW227163   8.294   6.899  11.852
41756SOL     OW27164   2.836  14.850   4.674
41756SOL    HW127165   2.757  14.801   4.694
41756SOL    HW227166   2.805   0.064   4.646
41757SOL     OW27167   7.919   0.643  11.385
41757SOL    HW127168   7.966   0.726  11.375
41757SOL    HW227169   7.827   0.666  11.373
41758SOL     OW27170   4.973   0.268   2.550
41758SOL    HW127171   4.960   0.173   2.552
41758SOL    HW227172   5.063   0.279   2.518
41759SOL     OW27173   2.095  11.311   9.484
41759SOL    HW127174   2.097  11.387   9.541
41759SOL    HW227175   2.013  11.320   9.434
41760SOL     OW27176   2.246  14.634   5.685
41760SOL    HW127177   2.233  14.729   5.682
41760SOL    HW227178   2.282  14.617   5.772
41761SOL     OW27179  12.504   0.517   1.284
41761SOL    HW127180  12.415   0.534   1.315
41761SOL    HW227181  12.551   0.600   1.297
41762SOL     OW27182   3.871   9.852   9.151
41762SOL    HW127183   3.956   9.845   9.108
41762SOL    HW227184   3.808   9.834   9.082
41763SOL     OW27185  13.090   0.349   7.280
41763SOL    HW127186  13.008   0.335   7.232
41763SOL    HW227187  13.064   0.347   7.372
41764SOL     OW27188   9.896  10.627   0.483
41764SOL    HW127189   9.977  10.576   0.480
41764SOL    HW227190   9.832  10.574   0.435
41765SOL     OW27191   9.082   1.136   7.341
41765SOL    HW127192   9.165   1.164   7.380
41765SOL    HW227193   9.095   1.146   7.247
41766SOL     OW27194   5.122   8.265   0.956
41766SOL    HW127195   5.109   8.349   0.912
41766SOL    HW227196   5.198   8.280   1.013
41767SOL     OW27197   0.196   6.986   9.249
41767SOL    HW127198   0.137   6.993   9.325
41767SOL    HW227199   0.232   7.074   9.239
41768SOL     OW27200   2.997  10.200   7.474
41768SOL    HW127201   2.912  10.223   7.436
41768SOL    HW227202   2.975  10.162   7.559
41769SOL     OW27203   7.436   1.476  13.999
41769SOL    HW127204   7.486   1.394  13.996
41769SOL    HW227205   7.364   1.458  14.059
41770SOL     OW27206   4.676   3.315   7.683
41770SOL    HW127207   4.732   3.310   7.760
41770SOL    HW227208   4.628   3.232   7.683
41771SOL     OW27209  11.582   0.224   5.314
41771SOL    HW127210  11.619   0.174   5.242
41771SOL    HW227211  11.654   0.281   5.343
41772SOL     OW27212   9.224   0.033  14.698
41772SOL    HW127213   9.312   0.064  14.721
41772SOL    HW227214   9.187   0.103  14.645
41773SOL     OW27215   8.855   3.894   2.673
41773SOL    HW127216   8.848   3.838   2.596
41773SOL    HW227217   8.897   3.839   2.739
41774SOL     OW27218   1.997   0.271  11.999
41774SOL    HW127219   1.941   0.284  11.922
41774SOL    HW227220   1.960   0.194  12.042
41775SOL     OW27221   5.539   4.147   1.186
41775SOL    HW127222   5.445   4.164   1.187
41775SOL    HW227223   5.546   4.056   1.160
41776SOL     OW27224   6.699   0.851  14.283
41776SOL    HW127225   6.617   0.894  14.262
41776SOL    HW227226   6.744   0.840  14.199
41777SOL     OW27227   0.815   6.904   1.500
41777SOL    HW127228   0.866   6.878   1.577
41777SOL    HW227229   0.779   6.823   1.466
41778SOL     OW27230  10.945   0.954   8.736
41778SOL    HW127231  10.850   0.948   8.725
41778SOL    HW227232  10.957   1.020   8.804
41779SOL     OW27233  12.905   2.427   5.492
41779SOL    HW127234  12.811   2.417   5.479
41779SOL    HW227235  12.914   2.457   5.583
41780SOL     OW27236   3.339   3.342  11.708
41780SOL    HW127237   3.355   3.341  11.802
41780SOL    HW227238   3.418   3.380  11.670
41781SOL     OW27239  10.155   8.868   9.505
41781SOL    HW127240  10.071   8.834   9.475
41781SOL    HW227241  10.185   8.805   9.570
41782SOL     OW27242  11.961  13.260   2.496
41782SOL    HW127243  11.954  13.309   2.578
41782SOL    HW227244  12.031  13.196   2.512
41783SOL     OW27245   9.276   7.683  10.207
41783SOL    HW127246   9.280   7.592  10.234
41783SOL    HW227247   9.183   7.703  10.202
41784SOL     OW27248  14.648   3.831  13.948
41784SOL    HW127249  14.559   3.836  13.911
41784SOL    HW227250  14.635   3.814  14.041
41785SOL     OW27251  10.558   6.764   1.892
41785SOL    HW127252  10.473   6.721   1.903
41785SOL    HW227253  10.609   6.735   1.968
41786SOL     OW27254   3.014   1.188   9.181
41786SOL    HW127255   2.985   1.187   9.089
41786SOL    HW227256   3.098   1.142   9.180
41787SOL     OW27257   8.338   6.258   5.127
41787SOL    HW127258   8.325   6.352   5.139
41787SOL    HW227259   8.266   6.218   5.174
41788SOL     OW27260  12.149   1.702   9.026
41788SOL    HW127261  12.062   1.674   9.052
41788SOL    HW227262  12.179   1.635   8.964
41789SOL     OW27263   8.571   6.925   8.546
41789SOL    HW127264   8.513   6.953   8.475
41789SOL    HW227265   8.657   6.958   8.521
41790SOL     OW27266   7.088   4.070   2.169
41790SOL    HW127267   7.044   4.001   2.218
41790SOL    HW227268   7.030   4.088   2.095
41791SOL     OW27269  10.632   2.138   2.441
41791SOL    HW127270  10.589   2.212   2.398
41791SOL    HW227271  10.660   2.081   2.369
41792SOL     OW27272   5.297   2.618  12.539
41792SOL    HW127273   5.335   2.586  12.621
41792SOL    HW227274   5.203   2.602  12.548
41793SOL     OW27275   1.995   2.420   5.268
41793SOL    HW127276   2.017   2.401   5.177
41793SOL    HW227277   2.035   2.349   5.318
41794SOL     OW27278   6.819  14.227  14.554
41794SOL    HW127279   6.795  14.311  14.514
41794SOL    HW227280   6.799  14.162  14.488
41795SOL     OW27281   9.097   2.638   7.313
41795SOL    HW127282   9.082   2.573   7.244
41795SOL    HW227283   9.141   2.589   7.383
41796SOL     OW27284  11.745   1.321   2.531
41796SOL    HW127285  11.750   1.377   2.608
41796SOL    HW227286  11.707   1.376   2.462
41797SOL     OW27287   4.727   3.340   4.298
41797SOL    HW127288   4.810   3.329   4.252
41797SOL    HW227289   4.692   3.251   4.307
41798SOL     OW27290  11.157   1.254   0.252
41798SOL    HW127291  11.083   1.194   0.246
41798SOL    HW227292  11.125   1.335   0.213
41799SOL     OW27293  14.759   7.910   0.044
41799SOL    HW127294  14.768   8.005   0.029
41799SOL    HW227295  14.845   7.874   0.021
41800SOL     OW27296   9.238  13.787   9.210
41800SOL    HW127297   9.182  13.861   9.233
41800SOL    HW227298   9.327  13.819   9.227
41801SOL     OW27299   9.108   7.512   4.821
41801SOL    HW127300   9.141   7.600   4.843
41801SOL    HW227301   9.013   7.518   4.835
41802SOL     OW27302   2.505  12.638   2.415
41802SOL    HW127303   2.546  12.653   2.500
41802SOL    HW227304   2.543  12.556   2.384
41803SOL     OW27305   9.685   3.897   5.764
41803SOL    HW127306   9.646   3.942   5.689
41803SOL    HW227307   9.713   3.968   5.822
41804SOL     OW27308   7.787   2.618  11.234
41804SOL    HW127309   7.751   2.570  11.309
41804SOL    HW227310   7.868   2.656  11.267
41805SOL     OW27311   2.059  13.198   6.061
41805SOL    HW127312   2.140  13.245   6.042
41805SOL    HW227313   1.996  13.232   5.998
41806SOL     OW27314  10.632  10.840  13.234
41806SOL    HW127315  10.713  10.789  13.224
41806SOL    HW227316  10.645  10.892  13.313
41807SOL     OW27317   0.916   7.941   7.082
41807SOL    HW127318   0.935   7.895   7.164
41807SOL    HW227319   0.830   7.980   7.096
41808SOL     OW27320   9.330   7.807  13.436
41808SOL    HW127321   9.273   7.786  13.363
41808SOL    HW227322   9.286   7.880  13.480
41809SOL     OW27323  10.724   7.539   5.377
41809SOL    HW127324  10.702   7.598   5.449
41809SOL    HW227325  10.782   7.591   5.322
41810SOL     OW27326   5.392   7.060  12.077
41810SOL    HW127327   5.429   6.982  12.035
41810SOL    HW227328   5.320   7.087  12.020
41811SOL     OW27329  12.646  11.492   5.541
41811SOL    HW127330  12.630  11.413   5.593
41811SOL    HW227331  12.560  11.530   5.528
41812SOL     OW27332   8.853  10.522   2.068
41812SOL    HW127333   8.915  10.570   2.123
41812SOL    HW227334   8.812  10.590   2.014
41813SOL     OW27335  14.755   4.662  11.245
41813SOL    HW127336  14.760   4.723  11.172
41813SOL    HW227337  14.679   4.607  11.225
41814SOL     OW27338   9.281  12.263   4.088
41814SOL    HW127339   9.349  12.330   4.091
41814SOL    HW227340   9.200  12.311   4.073
41815SOL     OW27341   6.852   5.640   1.924
41815SOL    HW127342   6.771   5.684   1.952
41815SOL    HW227343   6.900   5.707   1.875
41816SOL     OW27344   6.701   2.310  10.766
41816SOL    HW127345   6.787   2.276  10.742
41816SOL    HW227346   6.707   2.404  10.750
41817SOL     OW27347   4.231   3.272  11.718
41817SOL    HW127348   4.183   3.313  11.647
41817SOL    HW227349   4.266   3.191  11.681
41818SOL     OW27350  13.052   4.077   3.630
41818SOL    HW127351  13.089   4.006   3.682
41818SOL    HW227352  13.092   4.156   3.665
41819SOL     OW27353   7.605   7.996  10.026
41819SOL    HW127354   7.549   7.938   9.974
41819SOL    HW227355   7.668   7.937  10.068
41820SOL     OW27356  12.763   3.245  12.409
41820SOL    HW127357  12.774   3.314  12.475
41820SOL    HW227358  12.849   3.236  12.369
41821SOL     OW27359  13.656   9.229   7.542
41821SOL    HW127360  13.676   9.277   7.623
41821SOL    HW227361  13.718   9.263   7.478
41822SOL     OW27362   6.607   3.383   3.366
41822SOL    HW127363   6.531   3.431   3.400
41822SOL    HW227364   6.660   3.365   3.444
41823SOL     OW27365   8.701   7.041   4.324
41823SOL    HW127366   8.611   7.038   4.358
41823SOL    HW227367   8.691   7.022   4.230
41824SOL     OW27368   5.580  11.983   2.811
41824SOL    HW127369   5.541  12.070   2.800
41824SOL    HW227370   5.671  11.994   2.786
41825SOL     OW27371   6.452   5.266   0.159
41825SOL    HW127372   6.434   5.360   0.158
41825SOL    HW227373   6.481   5.246   0.069
41826SOL     OW27374   0.627   9.785  14.812
41826SOL    HW127375   0.556   9.721  14.815
41826SOL    HW227376   0.691   9.747  14.751
41827SOL     OW27377  11.219   6.230   5.635
41827SOL    HW127378  11.184   6.154   5.588
41827SOL    HW227379  11.141   6.283   5.655
41828SOL     OW27380   3.937   9.396  13.910
41828SOL    HW127381   3.924   9.344  13.990
41828SOL    HW227382   3.973   9.479  13.942
41829SOL     OW27383  13.054  10.847   7.708
41829SOL    HW127384  13.139  10.809   7.687
41829SOL    HW227385  13.016  10.869   7.623
41830SOL     OW27386  10.815   7.122   7.323
41830SOL    HW127387  10.723   7.111   7.297
41830SOL    HW227388  10.865   7.082   7.252
41831SOL     OW27389  10.887   9.893   2.618
41831SOL    HW127390  10.930   9.863   2.698
41831SOL    HW227391  10.817   9.950   2.647
41832SOL     OW27392  10.670   8.699   6.505
41832SOL    HW127393  10.757   8.739   6.515
41832SOL    HW227394  10.624   8.757   6.445
41833SOL     OW27395  12.773   5.789   1.034
41833SOL    HW127396  12.687   5.809   0.997
41833SOL    HW227397  12.801   5.871   1.076
41834SOL     OW27398  11.300   9.738  11.194
41834SOL    HW127399  11.352   9.772  11.122
41834SOL    HW227400  11.240   9.676  11.154
41835SOL     OW27401   5.231  13.385   5.923
41835SOL    HW127402   5.283  13.338   5.857
41835SOL    HW227403   5.165  13.432   5.872
41836SOL     OW27404  11.479   1.435   9.531
41836SOL    HW127405  11.482   1.434   9.436
41836SOL    HW227406  11.512   1.522   9.555
41837SOL     OW27407   4.881   5.136   5.480
41837SOL    HW127408   4.882   5.228   5.510
41837SOL    HW227409   4.820   5.093   5.539
41838SOL     OW27410   4.291   4.613  14.534
41838SOL    HW127411   4.223   4.671  14.500
41838SOL    HW227412   4.279   4.615  14.628
41839SOL     OW27413  12.581   2.884   2.858
41839SOL    HW127414  12.558   2.808   2.804
41839SOL    HW227415  12.568   2.959   2.801
41840SOL     OW27416   0.944   1.275   3.897
41840SOL    HW127417   1.032   1.239   3.906
41840SOL    HW227418   0.888   1.213   3.942
41841SOL     OW27419   0.384   8.573   7.917
41841SOL    HW127420   0.350   8.528   7.994
41841SOL    HW227421   0.466   8.528   7.898
41842SOL     OW27422  10.806  13.033   3.556
41842SOL    HW127423  10.876  13.086   3.518
41842SOL    HW227424  10.827  13.026   3.649
41843SOL     OW27425   2.705   2.042   9.299
41843SOL    HW127426   2.609   2.051   9.301
41843SOL    HW227427   2.733   2.105   9.233
41844SOL     OW27428   3.181   5.214   8.478
41844SOL    HW127429   3.151   5.125   8.458
41844SOL    HW227430   3.124   5.270   8.426
41845SOL     OW27431   3.814   9.889   7.539
41845SOL    HW127432   3.892   9.908   7.486
41845SOL    HW227433   3.841   9.816   7.595
41846SOL     OW27434  14.508   5.209   7.985
41846SOL    HW127435  14.512   5.119   8.018
41846SOL    HW227436  14.491   5.262   8.064
41847SOL     OW27437   4.450   4.250   2.094
41847SOL    HW127438   4.504   4.287   2.164
41847SOL    HW227439   4.505   4.182   2.056
41848SOL     OW27440   1.368   0.799   2.063
41848SOL    HW127441   1.423   0.761   1.994
41848SOL    HW227442   1.408   0.884   2.082
41849SOL     OW27443  11.779   9.118   7.103
41849SOL    HW127444  11.808   9.194   7.153
41849SOL    HW227445  11.798   9.043   7.160
41850SOL     OW27446   2.651  11.220  12.539
41850SOL    HW127447   2.710  11.168  12.594
41850SOL    HW227448   2.615  11.286  12.598
41851SOL     OW27449   9.047   0.397  13.936
41851SOL    HW127450   9.069   0.306  13.916
41851SOL    HW227451   9.130   0.435  13.964
41852SOL     OW27452   0.686   4.209  10.855
41852SOL    HW127453   0.599   4.240  10.829
41852SOL    HW227454   0.706   4.138  10.794
41853SOL     OW27455   4.347   0.352   5.864
41853SOL    HW127456   4.253   0.343   5.848
41853SOL    HW227457   4.372   0.270   5.907
41854SOL     OW27458  10.168   6.414   5.587
41854SOL    HW127459  10.165   6.319   5.589
41854SOL    HW227460  10.198   6.436   5.499
41855SOL     OW27461  13.754  10.450   2.457
41855SOL    HW127462  13.701  10.517   2.500
41855SOL    HW227463  13.746  10.373   2.514
41856SOL     OW27464   1.049   5.419   6.740
41856SOL    HW127465   1.020   5.402   6.651
41856SOL    HW227466   0.969   5.446   6.787
41857SOL     OW27467  14.476  14.266   8.431
41857SOL    HW127468  14.543  14.201   8.452
41857SOL    HW227469  14.524  14.348   8.418
41858SOL     OW27470   3.377  10.333   7.474
41858SOL    HW127471   3.428  10.266   7.519
41858SOL    HW227472   3.348  10.392   7.543
41859SOL     OW27473  13.610   6.030   0.379
41859SOL    HW127474  13.556   5.958   0.415
41859SOL    HW227475  13.637   6.080   0.456
41860SOL     OW27476   7.180   2.208   5.371
41860SOL    HW127477   7.229   2.290   5.365
41860SOL    HW227478   7.092   2.230   5.340
41861SOL     OW27479  12.601   3.686   1.932
41861SOL    HW127480  12.650   3.702   1.852
41861SOL    HW227481  12.664   3.645   1.991
41862SOL     OW27482   4.694   8.035   2.189
41862SOL    HW127483   4.729   8.124   2.179
41862SOL    HW227484   4.754   7.993   2.250
41863SOL     OW27485   9.538  11.045   5.502
41863SOL    HW127486   9.459  11.072   5.549
41863SOL    HW227487   9.513  10.964   5.458
41864SOL     OW27488  10.372   6.051   8.073
41864SOL    HW127489  10.451   5.997   8.069
41864SOL    HW227490  10.346   6.049   8.165
41865SOL     OW27491  11.281   5.511  10.145
41865SOL    HW127492  11.189   5.494  10.127
41865SOL    HW227493  11.325   5.428  10.126
41866SOL     OW27494  10.668   4.353   1.463
41866SOL    HW127495  10.671   4.421   1.396
41866SOL    HW227496  10.677   4.401   1.546
41867SOL     OW27497   5.415   0.123  12.804
41867SOL    HW127498   5.482   0.142  12.738
41867SOL    HW227499   5.463   0.079  12.875
41868SOL     OW27500   5.994   2.725   0.494
41868SOL    HW127501   5.932   2.728   0.420
41868SOL    HW227502   5.969   2.648   0.544
41869SOL     OW27503  11.191   2.054   3.827
41869SOL    HW127504  11.123   2.025   3.767
41869SOL    HW227505  11.223   2.135   3.789
41870SOL     OW27506  12.118  11.055   5.840
41870SOL    HW127507  12.159  11.055   5.753
41870SOL    HW227508  12.125  11.146   5.870
41871SOL     OW27509   0.014   3.436   0.047
41871SOL    HW127510  14.839   3.514   0.018
41871SOL    HW227511  14.818   3.377   0.080
41872SOL     OW27512   8.492   5.506  13.151
41872SOL    HW127513   8.438   5.434  13.117
41872SOL    HW227514   8.577   5.493  13.109
41873SOL     OW27515  12.971   7.594   6.507
41873SOL    HW127516  12.929   7.517   6.467
41873SOL    HW227517  12.955   7.665   6.445
41874SOL     OW27518   0.214   8.046   2.924
41874SOL    HW127519   0.210   7.996   3.005
41874SOL    HW227520   0.170   7.990   2.860
41875SOL     OW27521  12.928   2.848   9.959
41875SOL    HW127522  12.865   2.920   9.967
41875SOL    HW227523  12.945   2.820  10.049
41876SOL     OW27524  10.879   4.701  12.080
41876SOL    HW127525  10.963   4.680  12.040
41876SOL    HW227526  10.857   4.623  12.132
41877SOL     OW27527   8.293   2.915   4.155
41877SOL    HW127528   8.319   2.857   4.227
41877SOL    HW227529   8.246   2.987   4.198
41878SOL     OW27530   0.283  14.206  13.928
41878SOL    HW127531   0.212  14.264  13.901
41878SOL    HW227532   0.342  14.262  13.978
41879SOL     OW27533  14.582   5.358  14.355
41879SOL    HW127534  14.553   5.267  14.351
41879SOL    HW227535  14.602   5.373  14.448
41880SOL     OW27536  10.370  11.038  12.877
41880SOL    HW127537  10.343  10.976  12.808
41880SOL    HW227538  10.464  11.022  12.888
41881SOL     OW27539  10.538  11.127   6.665
41881SOL    HW127540  10.595  11.081   6.604
41881SOL    HW227541  10.508  11.059   6.725
41882SOL     OW27542  12.140  14.745  14.835
41882SOL    HW127543  12.158  14.699   0.045
41882SOL    HW227544  12.223  14.786  14.812
41883SOL     OW27545  11.355  10.736   2.679
41883SOL    HW127546  11.417  10.665   2.664
41883SOL    HW227547  11.400  10.794   2.740
41884SOL     OW27548  13.281   5.317  14.416
41884SOL    HW127549  13.221   5.339  14.345
41884SOL    HW227550  13.249   5.233  14.450
41885SOL     OW27551   2.296   5.129   4.822
41885SOL    HW127552   2.283   5.187   4.747
41885SOL    HW227553   2.383   5.151   4.855
41886SOL     OW27554   9.262  10.630   9.159
41886SOL    HW127555   9.231  10.549   9.117
41886SOL    HW227556   9.183  10.683   9.170
41887SOL     OW27557   0.199  10.178   6.560
41887SOL    HW127558   0.171  10.111   6.623
41887SOL    HW227559   0.150  10.256   6.584
41888SOL     OW27560   1.715  14.248   3.750
41888SOL    HW127561   1.662  14.222   3.675
41888SOL    HW227562   1.732  14.166   3.797
41889SOL     OW27563  10.891   6.577   4.165
41889SOL    HW127564  10.874   6.671   4.163
41889SOL    HW227565  10.850   6.547   4.246
41890SOL     OW27566   8.076   1.957   1.528
41890SOL    HW127567   7.990   1.943   1.567
41890SOL    HW227568   8.138   1.949   1.600
41891SOL     OW27569   4.679   8.456   9.558
41891SOL    HW127570   4.675   8.407   9.475
41891SOL    HW227571   4.602   8.513   9.555
41892SOL     OW27572   5.786   0.958   7.916
41892SOL    HW127573   5.702   0.914   7.925
41892SOL    HW227574   5.768   1.049   7.943
41893SOL     OW27575  10.859  10.476  12.968
41893SOL    HW127576  10.786  10.485  13.029
41893SOL    HW227577  10.933  10.448  13.022
41894SOL     OW27578   5.608  11.823   0.091
41894SOL    HW127579   5.638  11.738   0.059
41894SOL    HW227580   5.685  11.861   0.133
41895SOL     OW27581   2.104  10.230   3.035
41895SOL    HW127582   2.019  10.213   2.996
41895SOL    HW227583   2.100  10.189   3.121
41896SOL     OW27584   2.134   9.267  12.982
41896SOL    HW127585   2.080   9.208  12.930
41896SOL    HW227586   2.169   9.329  12.919
41897SOL     OW27587   6.454  11.655   0.408
41897SOL    HW127588   6.402  11.582   0.442
41897SOL    HW227589   6.471  11.710   0.485
41898SOL     OW27590  13.443   3.309  13.966
41898SOL    HW127591  13.365   3.363  13.953
41898SOL    HW227592  13.488   3.309  13.882
41899SOL     OW27593   6.260  12.718  11.765
41899SOL    HW127594   6.353  12.697  11.779
41899SOL    HW227595   6.214  12.638  11.789
41900SOL     OW27596  10.132  11.431   4.325
41900SOL    HW127597  10.193  11.403   4.257
41900SOL    HW227598  10.179  11.497   4.375
41901SOL     OW27599   3.845  10.157  10.197
41901SOL    HW127600   3.838  10.093  10.268
41901SOL    HW227601   3.813  10.110  10.120
41902SOL     OW27602   9.014  11.405   4.806
41902SOL    HW127603   8.985  11.496   4.803
41902SOL    HW227604   9.093  11.403   4.752
41903SOL     OW27605   9.486  10.656   5.981
41903SOL    HW127606   9.401  10.630   6.014
41903SOL    HW227607   9.524  10.575   5.945
41904SOL     OW27608   4.698  11.252   9.695
41904SOL    HW127609   4.772  11.308   9.672
41904SOL    HW227610   4.635  11.311   9.736
41905SOL     OW27611   0.005   5.797   3.176
41905SOL    HW127612  14.806   5.781   3.114
41905SOL    HW227613   0.071   5.843   3.124
41906SOL     OW27614   7.898   7.888   7.326
41906SOL    HW127615   7.913   7.906   7.419
41906SOL    HW227616   7.858   7.968   7.292
41907SOL     OW27617  14.449   8.429  13.611
41907SOL    HW127618  14.435   8.457  13.701
41907SOL    HW227619  14.448   8.334  13.615
41908SOL     OW27620  13.830   6.219   8.561
41908SOL    HW127621  13.832   6.228   8.466
41908SOL    HW227622  13.821   6.309   8.594
41909SOL     OW27623   4.198  13.220   9.488
41909SOL    HW127624   4.190  13.219   9.393
41909SOL    HW227625   4.226  13.131   9.511
41910SOL     OW27626   0.505   0.627  12.041
41910SOL    HW127627   0.527   0.565  12.111
41910SOL    HW227628   0.553   0.707  12.064
41911SOL     OW27629   1.899   3.667   9.869
41911SOL    HW127630   1.978   3.686   9.920
41911SOL    HW227631   1.868   3.583   9.904
41912SOL     OW27632  12.383   8.817   0.558
41912SOL    HW127633  12.295   8.837   0.589
41912SOL    HW227634  12.437   8.891   0.588
41913SOL     OW27635   4.958  14.871   2.568
41913SOL    HW127636   4.998   0.020   2.652
41913SOL    HW227637   4.880  14.819   2.590
41914SOL     OW27638   8.410   4.543   6.283
41914SOL    HW127639   8.367   4.482   6.343
41914SOL    HW227640   8.347   4.615   6.275
41915SOL     OW27641   6.958  14.065   3.132
41915SOL    HW127642   7.047  14.100   3.140
41915SOL    HW227643   6.904  14.123   3.185
41916SOL     OW27644  10.314   9.645  10.751
41916SOL    HW127645  10.348   9.556  10.766
41916SOL    HW227646  10.335   9.663  10.660
41917SOL     OW27647   9.855   9.158  10.962
41917SOL    HW127648   9.818   9.230  10.912
41917SOL    HW227649   9.780   9.113  11.000
41918SOL     OW27650   1.316   8.896   6.824
41918SOL    HW127651   1.280   8.898   6.912
41918SOL    HW227652   1.269   8.825   6.780
41919SOL     OW27653   2.139   2.829   8.364
41919SOL    HW127654   2.114   2.810   8.274
41919SOL    HW227655   2.231   2.803   8.370
41920SOL     OW27656   6.098   7.802   9.806
41920SOL    HW127657   6.111   7.883   9.758
41920SOL    HW227658   6.008   7.775   9.784
41921SOL     OW27659  14.744   0.403  10.593
41921SOL    HW127660  14.663   0.354  10.579
41921SOL    HW227661  14.752   0.459  10.516
41922SOL     OW27662  12.022   9.092   1.471
41922SOL    HW127663  12.008   9.180   1.505
41922SOL    HW227664  11.936   9.050   1.477
41923SOL     OW27665   9.811   4.125  12.768
41923SOL    HW127666   9.889   4.167  12.731
41923SOL    HW227667   9.807   4.157  12.858
41924SOL     OW27668   4.819   9.383  14.825
41924SOL    HW127669   4.889   9.431  14.781
41924SOL    HW227670   4.799   9.436   0.030
41925SOL     OW27671   7.695  11.548  12.463
41925SOL    HW127672   7.697  11.455  12.488
41925SOL    HW227673   7.619  11.583  12.508
41926SOL     OW27674  10.910   6.127  10.173
41926SOL    HW127675  10.926   6.057  10.236
41926SOL    HW227676  10.992   6.177  10.171
41927SOL     OW27677  10.418   1.703  13.067
41927SOL    HW127678  10.406   1.688  12.974
41927SOL    HW227679  10.460   1.624  13.100
41928SOL     OW27680   7.773  14.061   0.534
41928SOL    HW127681   7.781  14.130   0.600
41928SOL    HW227682   7.706  14.003   0.568
41929SOL     OW27683   4.702   9.681   2.371
41929SOL    HW127684   4.747   9.615   2.319
41929SOL    HW227685   4.665   9.633   2.446
41930SOL     OW27686   9.170  14.250  13.932
41930SOL    HW127687   9.206  14.163  13.951
41930SOL    HW227688   9.078  14.244  13.958
41931SOL     OW27689   1.403  14.555   1.998
41931SOL    HW127690   1.422  14.540   1.905
41931SOL    HW227691   1.381  14.648   2.003
41932SOL     OW27692  14.624   5.873   2.801
41932SOL    HW127693  14.585   5.849   2.717
41932SOL    HW227694  14.579   5.954   2.826
41933SOL     OW27695  11.204  11.601   4.773
41933SOL    HW127696  11.165  11.598   4.860
41933SOL    HW227697  11.269  11.530   4.773
41934SOL     OW27698   9.368   4.811  13.457
41934SOL    HW127699   9.317   4.890  13.475
41934SOL    HW227700   9.375   4.767  13.541
41935SOL     OW27701   7.353   7.830  10.789
41935SOL    HW127702   7.272   7.860  10.831
41935SOL    HW227703   7.346   7.734  10.789
41936SOL     OW27704  10.424   8.166  10.566
41936SOL    HW127705  10.360   8.234  10.550
41936SOL    HW227706  10.448   8.134  10.479
41937SOL     OW27707   8.419   5.933  13.287
41937SOL    HW127708   8.493   5.930  13.227
41937SOL    HW227709   8.342   5.929  13.230
41938SOL     OW27710  12.004   9.251  12.730
41938SOL    HW127711  12.033   9.290  12.648
41938SOL    HW227712  11.965   9.168  12.705
41939SOL     OW27713  14.606   9.891   6.669
41939SOL    HW127714  14.619   9.804   6.631
41939SOL    HW227715  14.650   9.950   6.607
41940SOL     OW27716  10.141   6.423   4.353
41940SOL    HW127717  10.133   6.329   4.339
41940SOL    HW227718  10.063   6.446   4.404
41941SOL     OW27719  14.413   2.560   9.554
41941SOL    HW127720  14.408   2.641   9.504
41941SOL    HW227721  14.374   2.582   9.639
41942SOL     OW27722   8.272   8.350   5.682
41942SOL    HW127723   8.359   8.389   5.695
41942SOL    HW227724   8.212   8.424   5.683
41943SOL     OW27725  14.292   1.182   2.871
41943SOL    HW127726  14.325   1.097   2.901
41943SOL    HW227727  14.259   1.165   2.783
41944SOL     OW27728   9.247   0.143   4.402
41944SOL    HW127729   9.154   0.131   4.423
41944SOL    HW227730   9.249   0.222   4.348
41945SOL     OW27731  12.495   2.240   8.120
41945SOL    HW127732  12.419   2.245   8.176
41945SOL    HW227733  12.459   2.226   8.032
41946SOL     OW27734  12.045   1.317   7.367
41946SOL    HW127735  12.051   1.247   7.432
41946SOL    HW227736  11.955   1.349   7.375
41947SOL     OW27737   4.970  10.841  14.591
41947SOL    HW127738   5.045  10.810  14.642
41947SOL    HW227739   4.944  10.765  14.538
41948SOL     OW27740   4.516   4.315   6.406
41948SOL    HW127741   4.500   4.354   6.320
41948SOL    HW227742   4.437   4.334   6.457
41949SOL     OW27743  11.140   3.866   6.605
41949SOL    HW127744  11.141   3.921   6.683
41949SOL    HW227745  11.125   3.777   6.639
41950SOL     OW27746   1.144   6.752  14.165
41950SOL    HW127747   1.118   6.841  14.141
41950SOL    HW227748   1.120   6.743  14.257
41951SOL     OW27749  11.012   2.637  11.278
41951SOL    HW127750  11.060   2.555  11.263
41951SOL    HW227751  10.924   2.609  11.304
41952SOL     OW27752  12.655  10.400   9.350
41952SOL    HW127753  12.626  10.412   9.260
41952SOL    HW227754  12.713  10.475   9.367
41953SOL     OW27755   9.488   9.565   1.835
41953SOL    HW127756   9.568   9.513   1.836
41953SOL    HW227757   9.474   9.589   1.927
41954SOL     OW27758   2.651  12.784  11.637
41954SOL    HW127759   2.690  12.699  11.659
41954SOL    HW227760   2.672  12.796  11.544
41955SOL     OW27761   7.280   6.595  10.503
41955SOL    HW127762   7.333   6.570  10.579
41955SOL    HW227763   7.198   6.548  10.515
41956SOL     OW27764  12.536   7.870   7.541
41956SOL    HW127765  12.619   7.891   7.499
41956SOL    HW227766  12.472   7.927   7.498
41957SOL     OW27767   7.178   2.178   7.033
41957SOL    HW127768   7.211   2.267   7.019
41957SOL    HW227769   7.192   2.162   7.126
41958SOL     OW27770  12.190   3.420   6.211
41958SOL    HW127771  12.222   3.332   6.190
41958SOL    HW227772  12.173   3.416   6.305
41959SOL     OW27773   5.558  14.751   3.467
41959SOL    HW127774   5.503  14.685   3.424
41959SOL    HW227775   5.519  14.762   3.553
41960SOL     OW27776   6.351  10.952   7.946
41960SOL    HW127777   6.344  11.040   7.911
41960SOL    HW227778   6.290  10.900   7.894
41961SOL     OW27779  13.407  10.040  11.925
41961SOL    HW127780  13.477  10.031  11.990
41961SOL    HW227781  13.326  10.035  11.976
41962SOL     OW27782   6.064   9.678   8.042
41962SOL    HW127783   6.023   9.697   8.126
41962SOL    HW227784   6.036   9.589   8.022
41963SOL     OW27785  11.574   6.593   6.601
41963SOL    HW127786  11.572   6.682   6.565
41963SOL    HW227787  11.503   6.547   6.555
41964SOL     OW27788   7.686  11.551   8.244
41964SOL    HW127789   7.608  11.499   8.263
41964SOL    HW227790   7.710  11.590   8.328
41965SOL     OW27791   5.781  14.389   1.277
41965SOL    HW127792   5.864  14.382   1.229
41965SOL    HW227793   5.714  14.360   1.214
41966SOL     OW27794   9.413   3.374  10.335
41966SOL    HW127795   9.480   3.442  10.325
41966SOL    HW227796   9.458   3.301  10.377
41967SOL     OW27797   2.548   9.788   7.377
41967SOL    HW127798   2.481   9.722   7.393
41967SOL    HW227799   2.591   9.760   7.296
41968SOL     OW27800  11.910   0.005  14.562
41968SOL    HW127801  11.874  14.820  14.629
41968SOL    HW227802  12.005  14.867  14.569
41969SOL     OW27803   5.342   5.396   1.263
41969SOL    HW127804   5.369   5.350   1.343
41969SOL    HW227805   5.296   5.473   1.293
41970SOL     OW27806   9.854   1.774   8.863
41970SOL    HW127807   9.792   1.701   8.859
41970SOL    HW227808   9.865   1.791   8.956
41971SOL     OW27809   6.268   2.030  11.194
41971SOL    HW127810   6.214   2.103  11.223
41971SOL    HW227811   6.356   2.067  11.185
41972SOL     OW27812   1.137   9.579   1.744
41972SOL    HW127813   1.231   9.584   1.727
41972SOL    HW227814   1.099   9.551   1.660
41973SOL     OW27815   0.658   2.475  11.153
41973SOL    HW127816   0.603   2.542  11.113
41973SOL    HW227817   0.747   2.507  11.142
41974SOL     OW27818  11.739   8.823  11.014
41974SOL    HW127819  11.709   8.853  11.100
41974SOL    HW227820  11.673   8.857  10.953
41975SOL     OW27821   3.946   3.423   3.556
41975SOL    HW127822   4.037   3.414   3.583
41975SOL    HW227823   3.899   3.356   3.606
41976SOL     OW27824   3.735   7.730   0.460
41976SOL    HW127825   3.781   7.654   0.425
41976SOL    HW227826   3.647   7.699   0.479
41977SOL     OW27827   0.927  11.904   1.350
41977SOL    HW127828   0.846  11.861   1.378
41977SOL    HW227829   0.932  11.888   1.256
41978SOL     OW27830   4.925   2.408  12.361
41978SOL    HW127831   4.916   2.371  12.449
41978SOL    HW227832   4.996   2.357  12.322
41979SOL     OW27833   5.983   2.142  11.811
41979SOL    HW127834   6.076   2.149  11.790
41979SOL    HW227835   5.940   2.125  11.727
41980SOL     OW27836   9.526   8.088   4.153
41980SOL    HW127837   9.442   8.056   4.187
41980SOL    HW227838   9.591   8.052   4.214
41981SOL     OW27839   4.077   1.513   7.817
41981SOL    HW127840   4.092   1.506   7.912
41981SOL    HW227841   4.030   1.595   7.806
41982SOL     OW27842  10.042  13.404   9.773
41982SOL    HW127843   9.958  13.409   9.820
41982SOL    HW227844  10.105  13.441   9.834
41983SOL     OW27845   2.486   0.312   8.840
41983SOL    HW127846   2.509   0.310   8.747
41983SOL    HW227847   2.532   0.236   8.877
41984SOL     OW27848  12.861   3.212   7.297
41984SOL    HW127849  12.935   3.221   7.238
41984SOL    HW227850  12.794   3.168   7.244
41985SOL     OW27851   1.415   9.429  10.361
41985SOL    HW127852   1.356   9.353  10.366
41985SOL    HW227853   1.356   9.504  10.352
41986SOL     OW27854   3.432   6.078  14.077
41986SOL    HW127855   3.348   6.078  14.031
41986SOL    HW227856   3.472   5.995  14.052
41987SOL     OW27857   0.257   4.812  14.198
41987SOL    HW127858   0.265   4.742  14.262
41987SOL    HW227859   0.285   4.772  14.115
41988SOL     OW27860   0.941  14.717   3.312
41988SOL    HW127861   0.929  14.715   3.407
41988SOL    HW227862   1.001  14.789   3.297
41989SOL     OW27863   1.949   3.910   3.893
41989SOL    HW127864   1.979   3.872   3.976
41989SOL    HW227865   1.864   3.870   3.878
41990SOL     OW27866   3.390   6.343   4.004
41990SOL    HW127867   3.377   6.352   3.910
41990SOL    HW227868   3.306   6.311   4.037
41991SOL     OW27869  13.405  14.390   9.482
41991SOL    HW127870  13.410  14.472   9.533
41991SOL    HW227871  13.423  14.417   9.392
41992SOL     OW27872   5.164   3.623   2.754
41992SOL    HW127873   5.178   3.555   2.688
41992SOL    HW227874   5.233   3.687   2.738
41993SOL     OW27875   3.668   7.040   8.120
41993SOL    HW127876   3.721   7.034   8.200
41993SOL    HW227877   3.689   6.960   8.071
41994SOL     OW27878   3.267   0.773  13.788
41994SOL    HW127879   3.224   0.821  13.858
41994SOL    HW227880   3.345   0.824  13.767
41995SOL     OW27881  10.614  14.584   7.986
41995SOL    HW127882  10.680  14.570   8.054
41995SOL    HW227883  10.538  14.535   8.016
41996SOL     OW27884  13.257   8.434   3.496
41996SOL    HW127885  13.298   8.354   3.528
41996SOL    HW227886  13.321   8.503   3.513
41997SOL     OW27887   2.694   0.632  12.036
41997SOL    HW127888   2.751   0.598  11.966
41997SOL    HW227889   2.626   0.564  12.046
41998SOL     OW27890  12.183   8.839   0.750
41998SOL    HW127891  12.192   8.749   0.781
41998SOL    HW227892  12.208   8.893   0.826
41999SOL     OW27893  13.709   2.460  13.213
41999SOL    HW127894  13.666   2.385  13.254
41999SOL    HW227895  13.797   2.429  13.193
42000SOL     OW27896   9.044  12.974   2.575
42000SOL    HW127897   9.120  13.007   2.622
42000SOL    HW227898   9.038  12.882   2.600
42001SOL     OW27899  10.398   8.398  14.193
42001SOL    HW127900  10.456   8.412  14.118
42001SOL    HW227901  10.315   8.373  14.155
42002SOL     OW27902   6.720   7.440   0.728
42002SOL    HW127903   6.683   7.355   0.752
42002SOL    HW227904   6.704   7.496   0.805
42003SOL     OW27905  12.970   0.023  11.671
42003SOL    HW127906  12.895   0.078  11.694
42003SOL    HW227907  12.964  14.821  11.730
42004SOL     OW27908   9.547   7.964  10.297
42004SOL    HW127909   9.558   7.897  10.229
42004SOL    HW227910   9.512   7.917  10.372
42005SOL     OW27911  12.162  11.335  10.095
42005SOL    HW127912  12.144  11.241  10.102
42005SOL    HW227913  12.184  11.362  10.184
42006SOL     OW27914   6.910  12.505  11.543
42006SOL    HW127915   6.907  12.498  11.638
42006SOL    HW227916   6.971  12.577  11.526
42007SOL     OW27917  13.063   8.613  11.463
42007SOL    HW127918  13.001   8.655  11.404
42007SOL    HW227919  13.055   8.520  11.444
42008SOL     OW27920   6.802   1.895   0.220
42008SOL    HW127921   6.796   1.807   0.184
42008SOL    HW227922   6.713   1.929   0.217
42009SOL     OW27923   1.038   1.867   3.165
42009SOL    HW127924   1.018   1.923   3.090
42009SOL    HW227925   1.093   1.798   3.130
42010SOL     OW27926   8.881   7.510   0.875
42010SOL    HW127927   8.935   7.450   0.927
42010SOL    HW227928   8.820   7.548   0.938
42011SOL     OW27929  11.013   0.761  11.464
42011SOL    HW127930  10.941   0.800  11.416
42011SOL    HW227931  11.062   0.835  11.499
42012SOL     OW27932  13.451   6.275   3.694
42012SOL    HW127933  13.439   6.180   3.705
42012SOL    HW227934  13.363   6.310   3.682
42013SOL     OW27935   2.353  13.633   1.713
42013SOL    HW127936   2.343  13.545   1.678
42013SOL    HW227937   2.270  13.676   1.695
42014SOL     OW27938  12.583   1.347   3.078
42014SOL    HW127939  12.512   1.390   3.126
42014SOL    HW227940  12.615   1.415   3.018
42015SOL     OW27941   3.628   0.644   2.267
42015SOL    HW127942   3.551   0.592   2.243
42015SOL    HW227943   3.630   0.639   2.362
42016SOL     OW27944   9.719  11.581   8.742
42016SOL    HW127945   9.754  11.650   8.684
42016SOL    HW227946   9.662  11.628   8.803
42017SOL     OW27947   6.381   3.565   9.489
42017SOL    HW127948   6.428   3.646   9.471
42017SOL    HW227949   6.448   3.497   9.487
42018SOL     OW27950   6.652  11.191   5.108
42018SOL    HW127951   6.679  11.119   5.051
42018SOL    HW227952   6.697  11.175   5.191
42019SOL     OW27953  14.691   7.422  11.652
42019SOL    HW127954  14.671   7.515  11.648
42019SOL    HW227955  14.609   7.381  11.680
42020SOL     OW27956   5.290  11.113  13.828
42020SOL    HW127957   5.218  11.112  13.890
42020SOL    HW227958   5.364  11.149  13.878
42021SOL     OW27959  11.416   4.700  12.697
42021SOL    HW127960  11.325   4.731  12.690
42021SOL    HW227961  11.451   4.747  12.772
42022SOL     OW27962   7.346  11.658   8.302
42022SOL    HW127963   7.289  11.590   8.265
42022SOL    HW227964   7.352  11.724   8.232
42023SOL     OW27965  14.036   4.424  10.103
42023SOL    HW127966  13.982   4.352  10.137
42023SOL    HW227967  14.018   4.497  10.162
42024SOL     OW27968   8.107   2.639  14.017
42024SOL    HW127969   8.103   2.548  13.987
42024SOL    HW227970   8.132   2.689  13.940
42025SOL     OW27971  13.796  11.135  13.659
42025SOL    HW127972  13.784  11.208  13.599
42025SOL    HW227973  13.777  11.171  13.745
42026SOL     OW27974  14.319  13.712  13.619
42026SOL    HW127975  14.382  13.770  13.662
42026SOL    HW227976  14.235  13.735  13.659
42027SOL     OW27977   5.909  14.458  13.662
42027SOL    HW127978   5.918  14.439  13.569
42027SOL    HW227979   5.816  14.474  13.675
42028SOL     OW27980   0.625   0.804  12.468
42028SOL    HW127981   0.715   0.799  12.435
42028SOL    HW227982   0.604   0.715  12.496
42029SOL     OW27983   1.851  14.437   7.957
42029SOL    HW127984   1.896  14.509   8.001
42029SOL    HW227985   1.880  14.443   7.866
42030SOL     OW27986  11.184   5.842   4.241
42030SOL    HW127987  11.207   5.910   4.178
42030SOL    HW227988  11.266   5.824   4.288
42031SOL     OW27989  12.583   5.896   9.707
42031SOL    HW127990  12.548   5.807   9.705
42031SOL    HW227991  12.663   5.890   9.758
42032SOL     OW27992   4.144   5.572  13.637
42032SOL    HW127993   4.196   5.647  13.609
42032SOL    HW227994   4.205   5.518  13.688
42033SOL     OW27995   5.000   5.915   8.672
42033SOL    HW127996   5.066   5.873   8.727
42033SOL    HW227997   4.925   5.856   8.676
42034SOL     OW27998  10.299  12.410  10.071
42034SOL    HW127999  10.290  12.496  10.032
42034SOL    HW228000  10.293  12.425  10.165
42035SOL     OW28001   0.625  11.532  11.662
42035SOL    HW128002   0.675  11.549  11.582
42035SOL    HW228003   0.682  11.563  11.733
42036SOL     OW28004   4.038   9.899  11.544
42036SOL    HW128005   4.036   9.833  11.475
42036SOL    HW228006   4.131   9.912  11.562
42037SOL     OW28007   9.149  12.523  13.250
42037SOL    HW128008   9.182  12.546  13.337
42037SOL    HW228009   9.179  12.433  13.236
42038SOL     OW28010   0.269   5.078   3.005
42038SOL    HW128011   0.216   5.128   3.067
42038SOL    HW228012   0.279   5.137   2.930
42039SOL     OW28013   8.131   9.181   2.152
42039SOL    HW128014   8.180   9.112   2.197
42039SOL    HW228015   8.067   9.134   2.098
42040SOL     OW28016   0.629  10.850  12.935
42040SOL    HW128017   0.636  10.836  12.840
42040SOL    HW228018   0.710  10.897  12.957
42041SOL     OW28019   1.397   6.064   4.118
42041SOL    HW128020   1.426   6.129   4.055
42041SOL    HW228021   1.475   6.044   4.169
42042SOL     OW28022   8.525   4.503   2.710
42042SOL    HW128023   8.523   4.553   2.792
42042SOL    HW228024   8.496   4.566   2.643
42043SOL     OW28025  12.177   3.874  13.877
42043SOL    HW128026  12.237   3.820  13.827
42043SOL    HW228027  12.234   3.935  13.924
42044SOL     OW28028   3.578   6.000   2.771
42044SOL    HW128029   3.582   6.078   2.715
42044SOL    HW228030   3.586   6.033   2.860
42045SOL     OW28031  13.697   7.233   3.482
42045SOL    HW128032  13.763   7.166   3.465
42045SOL    HW228033  13.614   7.193   3.454
42046SOL     OW28034   2.649  12.296   6.921
42046SOL    HW128035   2.651  12.390   6.938
42046SOL    HW228036   2.640  12.290   6.826
42047SOL     OW28037   0.389   3.940   0.015
42047SOL    HW128038   0.455   4.002   0.045
42047SOL    HW228039   0.306   3.983   0.035
42048SOL     OW28040  12.484   9.805   2.425
42048SOL    HW128041  12.504   9.749   2.500
42048SOL    HW228042  12.393   9.829   2.436
42049SOL     OW28043  12.142   0.850   2.123
42049SOL    HW128044  12.197   0.781   2.161
42049SOL    HW228045  12.090   0.882   2.197
42050SOL     OW28046   4.654   9.855   8.822
42050SOL    HW128047   4.746   9.831   8.832
42050SOL    HW228048   4.607   9.795   8.879
42051SOL     OW28049   0.409  11.791   2.256
42051SOL    HW128050   0.493  11.753   2.230
42051SOL    HW228051   0.395  11.864   2.196
42052SOL     OW28052   3.070   6.804   4.613
42052SOL    HW128053   3.118   6.745   4.671
42052SOL    HW228054   3.012   6.853   4.670
42053SOL     OW28055   6.271   2.667   9.781
42053SOL    HW128056   6.176   2.671   9.788
42053SOL    HW228057   6.289   2.672   9.687
42054SOL     OW28058   6.453   4.159   2.580
42054SOL    HW128059   6.365   4.137   2.550
42054SOL    HW228060   6.487   4.218   2.512
42055SOL     OW28061   2.498  13.101  13.744
42055SOL    HW128062   2.504  13.015  13.788
42055SOL    HW228063   2.502  13.164  13.816
42056SOL     OW28064  11.417  11.575   2.139
42056SOL    HW128065  11.477  11.615   2.202
42056SOL    HW228066  11.450  11.604   2.054
42057SOL     OW28067   5.954   0.594   5.514
42057SOL    HW128068   5.963   0.663   5.449
42057SOL    HW228069   5.870   0.612   5.557
42058SOL     OW28070   4.432   5.709   5.429
42058SOL    HW128071   4.434   5.686   5.522
42058SOL    HW228072   4.521   5.739   5.409
42059SOL     OW28073   2.565   7.668   3.409
42059SOL    HW128074   2.627   7.653   3.338
42059SOL    HW228075   2.603   7.622   3.484
42060SOL     OW28076  11.013   0.607   0.480
42060SOL    HW128077  10.928   0.563   0.482
42060SOL    HW228078  10.994   0.693   0.442
42061SOL     OW28079   0.888   1.875  12.980
42061SOL    HW128080   0.794   1.859  12.978
42061SOL    HW228081   0.897   1.970  12.980
42062SOL     OW28082   5.907   4.820  13.389
42062SOL    HW128083   5.844   4.805  13.320
42062SOL    HW228084   5.872   4.896  13.437
42063SOL     OW28085   7.391  10.672   5.007
42063SOL    HW128086   7.309  10.643   4.967
42063SOL    HW228087   7.428  10.594   5.047
42064SOL     OW28088   0.510   5.904   4.853
42064SOL    HW128089   0.520   5.862   4.938
42064SOL    HW228090   0.445   5.973   4.867
42065SOL     OW28091   2.041   0.041   6.618
42065SOL    HW128092   2.108   0.083   6.564
42065SOL    HW228093   2.035   0.096   6.696
42066SOL     OW28094   5.641  12.011   3.205
42066SOL    HW128095   5.726  12.010   3.161
42066SOL    HW228096   5.611  12.102   3.196
42067SOL     OW28097  10.965   5.343  11.543
42067SOL    HW128098  10.870   5.346  11.549
42067SOL    HW228099  10.995   5.332  11.634
42068SOL     OW28100  13.022  14.059   2.924
42068SOL    HW128101  13.065  14.131   2.878
42068SOL    HW228102  13.007  14.093   3.012
42069SOL     OW28103  11.118   1.244   9.885
42069SOL    HW128104  11.104   1.181   9.956
42069SOL    HW228105  11.162   1.193   9.816
42070SOL     OW28106   0.049   3.342  11.212
42070SOL    HW128107   0.116   3.406  11.187
42070SOL    HW228108  14.843   3.395  11.229
42071SOL     OW28109  10.390  12.185  12.055
42071SOL    HW128110  10.445  12.210  12.129
42071SOL    HW228111  10.352  12.268  12.024
42072SOL     OW28112  13.772   0.274   7.629
42072SOL    HW128113  13.761   0.296   7.722
42072SOL    HW228114  13.799   0.182   7.630
42073SOL     OW28115  14.215   0.172   5.648
42073SOL    HW128116  14.164   0.131   5.579
42073SOL    HW228117  14.285   0.218   5.602
42074SOL     OW28118   9.297   3.973  13.603
42074SOL    HW128119   9.370   3.941  13.549
42074SOL    HW228120   9.312   4.066  13.613
42075SOL     OW28121  10.212   2.325   5.967
42075SOL    HW128122  10.249   2.246   6.007
42075SOL    HW228123  10.279   2.355   5.905
42076SOL     OW28124  14.009   7.833   0.696
42076SOL    HW128125  14.073   7.822   0.626
42076SOL    HW228126  14.060   7.870   0.769
42077SOL     OW28127   7.993  13.824  14.647
42077SOL    HW128128   8.048  13.853  14.574
42077SOL    HW228129   8.054  13.784  14.708
42078SOL     OW28130   9.378  14.779   7.134
42078SOL    HW128131   9.337  14.824   7.208
42078SOL    HW228132   9.450  14.730   7.173
42079SOL     OW28133  13.341   4.729   7.188
42079SOL    HW128134  13.399   4.768   7.123
42079SOL    HW228135  13.338   4.792   7.260
42080SOL     OW28136   0.887   9.350   6.068
42080SOL    HW128137   0.947   9.396   6.008
42080SOL    HW228138   0.800   9.367   6.032
42081SOL     OW28139  12.748   3.435  13.880
42081SOL    HW128140  12.676   3.414  13.940
42081SOL    HW228141  12.824   3.390  13.918
42082SOL     OW28142  11.601   0.965   7.209
42082SOL    HW128143  11.557   1.049   7.224
42082SOL    HW228144  11.531   0.900   7.215
42083SOL     OW28145  14.872  11.300  13.128
42083SOL    HW128146  14.805  11.299  13.059
42083SOL    HW228147   0.078  11.266  13.086
42084SOL     OW28148   0.573   6.601  14.155
42084SOL    HW128149   0.507   6.577  14.220
42084SOL    HW228150   0.607   6.518  14.122
42085SOL     OW28151   8.325  10.456   1.121
42085SOL    HW128152   8.264  10.431   1.191
42085SOL    HW228153   8.406  10.408   1.143
42086SOL     OW28154  13.832   8.301   6.379
42086SOL    HW128155  13.787   8.241   6.439
42086SOL    HW228156  13.923   8.269   6.378
42087SOL     OW28157   6.471  14.266   9.394
42087SOL    HW128158   6.419  14.333   9.438
42087SOL    HW228159   6.550  14.259   9.447
42088SOL     OW28160   0.753   0.805   4.156
42088SOL    HW128161   0.731   0.744   4.086
42088SOL    HW228162   0.799   0.751   4.221
42089SOL     OW28163  12.829  14.411   0.927
42089SOL    HW128164  12.831  14.319   0.901
42089SOL    HW228165  12.864  14.412   1.016
42090SOL     OW28166   1.676  13.996   6.681
42090SOL    HW128167   1.761  14.038   6.663
42090SOL    HW228168   1.634  13.991   6.595
42091SOL     OW28169   9.673   1.690   5.091
42091SOL    HW128170   9.673   1.746   5.169
42091SOL    HW228171   9.588   1.705   5.051
42092SOL     OW28172   6.287  11.282   9.425
42092SOL    HW128173   6.382  11.289   9.422
42092SOL    HW228174   6.270  11.188   9.432
42093SOL     OW28175   2.761   2.194   6.825
42093SOL    HW128176   2.804   2.251   6.761
42093SOL    HW228177   2.826   2.126   6.844
42094SOL     OW28178   6.494   2.556  11.681
42094SOL    HW128179   6.534   2.535  11.765
42094SOL    HW228180   6.529   2.642  11.658
42095SOL     OW28181   1.104   9.448   8.385
42095SOL    HW128182   1.178   9.395   8.357
42095SOL    HW228183   1.035   9.430   8.321
42096SOL     OW28184   2.928  11.561   2.374
42096SOL    HW128185   2.910  11.589   2.285
42096SOL    HW228186   2.870  11.486   2.388
42097SOL     OW28187   9.078   0.350  12.046
42097SOL    HW128188   9.148   0.353  11.981
42097SOL    HW228189   9.045   0.439  12.050
42098SOL     OW28190  12.005  10.771   3.385
42098SOL    HW128191  11.917  10.739   3.363
42098SOL    HW228192  12.011  10.761   3.480
42099SOL     OW28193  14.633  14.167  11.826
42099SOL    HW128194  14.610  14.095  11.767
42099SOL    HW228195  14.563  14.167  11.892
42100SOL     OW28196  14.194   3.757   0.046
42100SOL    HW128197  14.254   3.726   0.114
42100SOL    HW228198  14.249   3.771  14.842
42101SOL     OW28199   5.863  14.779   7.870
42101SOL    HW128200   5.941  14.765   7.923
42101SOL    HW228201   5.790  14.757   7.928
42102SOL     OW28202   7.141  13.265   3.070
42102SOL    HW128203   7.194  13.323   3.015
42102SOL    HW228204   7.165  13.289   3.160
42103SOL     OW28205   5.448  13.884   7.484
42103SOL    HW128206   5.540  13.867   7.506
42103SOL    HW228207   5.439  13.979   7.488
42104SOL     OW28208   0.027  13.786  12.696
42104SOL    HW128209   0.014  13.876  12.727
42104SOL    HW228210   0.094  13.750  12.754
42105SOL     OW28211  11.564   6.664   8.552
42105SOL    HW128212  11.599   6.706   8.631
42105SOL    HW228213  11.582   6.571   8.564
42106SOL     OW28214   4.685  11.198  14.864
42106SOL    HW128215   4.702  11.153   0.074
42106SOL    HW228216   4.680  11.291   0.016
42107SOL     OW28217   1.068   4.314  13.963
42107SOL    HW128218   1.007   4.377  13.923
42107SOL    HW228219   1.025   4.229  13.950
42108SOL     OW28220   8.586   9.672  10.104
42108SOL    HW128221   8.578   9.622  10.023
42108SOL    HW228222   8.622   9.609  10.167
42109SOL     OW28223   5.385   0.030   9.193
42109SOL    HW128224   5.401  14.839   9.264
42109SOL    HW228225   5.470   0.068   9.175
42110SOL     OW28226   3.906   2.607   9.629
42110SOL    HW128227   3.896   2.687   9.681
42110SOL    HW228228   3.821   2.564   9.635
42111SOL     OW28229  10.776   8.256  13.803
42111SOL    HW128230  10.865   8.241  13.771
42111SOL    HW228231  10.748   8.336  13.759
42112SOL     OW28232   2.931  14.361   7.296
42112SOL    HW128233   2.891  14.330   7.377
42112SOL    HW228234   2.943  14.282   7.243
42113SOL     OW28235  13.015   7.865  10.788
42113SOL    HW128236  12.988   7.779  10.755
42113SOL    HW228237  13.100   7.848  10.829
42114SOL     OW28238   6.208   0.526   3.850
42114SOL    HW128239   6.222   0.466   3.777
42114SOL    HW228240   6.176   0.607   3.810
42115SOL     OW28241   0.491  14.717   4.186
42115SOL    HW128242   0.512  14.633   4.147
42115SOL    HW228243   0.570  14.769   4.176
42116SOL     OW28244   3.989   6.316   7.223
42116SOL    HW128245   3.923   6.325   7.154
42116SOL    HW228246   4.073   6.330   7.178
42117SOL     OW28247   7.987   0.390  11.418
42117SOL    HW128248   7.917   0.379  11.483
42117SOL    HW228249   7.988   0.485  11.402
42118SOL     OW28250  13.168  11.867  10.457
42118SOL    HW128251  13.137  11.857  10.547
42118SOL    HW228252  13.133  11.951  10.428
42119SOL     OW28253  10.843   5.793   9.002
42119SOL    HW128254  10.836   5.817   9.095
42119SOL    HW228255  10.905   5.857   8.966
42120SOL     OW28256   2.556   7.809   8.487
42120SOL    HW128257   2.468   7.845   8.489
42120SOL    HW228258   2.574   7.795   8.394
42121SOL     OW28259   4.253   4.032   1.803
42121SOL    HW128260   4.329   4.054   1.748
42121SOL    HW228261   4.276   3.950   1.845
42122SOL     OW28262   1.757   0.765  13.379
42122SOL    HW128263   1.674   0.812  13.374
42122SOL    HW228264   1.744   0.686  13.326
42123SOL     OW28265   5.493   5.408  10.192
42123SOL    HW128266   5.577   5.369  10.169
42123SOL    HW228267   5.434   5.333  10.205
42124SOL     OW28268   9.573  12.738   1.797
42124SOL    HW128269   9.665  12.714   1.805
42124SOL    HW228270   9.554  12.733   1.704
42125SOL     OW28271   3.728   3.081   0.958
42125SOL    HW128272   3.723   3.152   1.022
42125SOL    HW228273   3.757   3.123   0.878
42126SOL     OW28274  11.466   0.119  14.299
42126SOL    HW128275  11.436   0.037  14.261
42126SOL    HW228276  11.386   0.163  14.328
42127SOL     OW28277  11.625  10.602   1.069
42127SOL    HW128278  11.558  10.617   1.002
42127SOL    HW228279  11.681  10.680   1.065
42128SOL     OW28280   4.390   7.457  12.151
42128SOL    HW128281   4.347   7.384  12.196
42128SOL    HW228282   4.462   7.417  12.102
42129SOL     OW28283   3.597   1.312   3.614
42129SOL    HW128284   3.644   1.391   3.588
42129SOL    HW228285   3.550   1.337   3.693
42130SOL     OW28286   0.344  13.933  10.505
42130SOL    HW128287   0.322  14.024  10.526
42130SOL    HW228288   0.436  13.936  10.479
42131SOL     OW28289   5.446   9.069   7.956
42131SOL    HW128290   5.491   9.110   8.030
42131SOL    HW228291   5.500   9.091   7.880
42132SOL     OW28292  10.392   8.421   9.607
42132SOL    HW128293  10.298   8.431   9.589
42132SOL    HW228294  10.433   8.493   9.560
42133SOL     OW28295  14.619  12.572   3.288
42133SOL    HW128296  14.608  12.651   3.235
42133SOL    HW228297  14.675  12.515   3.235
42134SOL     OW28298   1.815   8.082  13.534
42134SOL    HW128299   1.804   8.005  13.478
42134SOL    HW228300   1.760   8.148  13.494
42135SOL     OW28301   6.135   6.402   3.708
42135SOL    HW128302   6.122   6.475   3.769
42135SOL    HW228303   6.227   6.409   3.682
42136SOL     OW28304  11.144   6.565   0.612
42136SOL    HW128305  11.071   6.618   0.579
42136SOL    HW228306  11.112   6.475   0.607
42137SOL     OW28307  11.499  13.650  11.870
42137SOL    HW128308  11.569  13.654  11.804
42137SOL    HW228309  11.421  13.626  11.820
42138SOL     OW28310   8.420   2.784   7.425
42138SOL    HW128311   8.368   2.750   7.352
42138SOL    HW228312   8.364   2.774   7.502
42139SOL     OW28313  12.404   7.496   4.255
42139SOL    HW128314  12.448   7.508   4.339
42139SOL    HW228315  12.460   7.541   4.192
42140SOL     OW28316   7.158  11.009   4.106
42140SOL    HW128317   7.136  10.983   4.195
42140SOL    HW228318   7.212  11.087   4.116
42141SOL     OW28319  13.731   5.641   2.864
42141SOL    HW128320  13.751   5.567   2.807
42141SOL    HW228321  13.801   5.640   2.930
42142SOL     OW28322   9.456   6.942   8.479
42142SOL    HW128323   9.547   6.967   8.462
42142SOL    HW228324   9.463   6.868   8.540
42143SOL     OW28325  13.188   4.288  11.334
42143SOL    HW128326  13.196   4.212  11.277
42143SOL    HW228327  13.257   4.348  11.305
42144SOL     OW28328  12.336   0.141   5.865
42144SOL    HW128329  12.326   0.236   5.855
42144SOL    HW228330  12.292   0.120   5.947
42145SOL     OW28331  12.316   5.261  13.742
42145SOL    HW128332  12.320   5.256  13.647
42145SOL    HW228333  12.233   5.304  13.761
42146SOL     OW28334   5.579   8.256   1.825
42146SOL    HW128335   5.578   8.347   1.855
42146SOL    HW228336   5.668   8.243   1.790
42147SOL     OW28337  13.758   4.364   3.723
42147SOL    HW128338  13.840   4.316   3.707
42147SOL    HW228339  13.710   4.357   3.641
42148SOL     OW28340  10.463   7.277   8.527
42148SOL    HW128341  10.441   7.262   8.619
42148SOL    HW228342  10.451   7.191   8.486
42149SOL     OW28343   6.731   8.889  10.245
42149SOL    HW128344   6.738   8.859  10.154
42149SOL    HW228345   6.801   8.952  10.255
42150SOL     OW28346  11.032   4.841   6.186
42150SOL    HW128347  11.070   4.755   6.170
42150SOL    HW228348  11.104   4.894   6.218
42151SOL     OW28349   8.632   9.708   6.731
42151SOL    HW128350   8.662   9.791   6.770
42151SOL    HW228351   8.539   9.723   6.713
42152SOL     OW28352  11.182  12.125   7.945
42152SOL    HW128353  11.161  12.033   7.929
42152SOL    HW228354  11.131  12.173   7.880
42153SOL     OW28355   1.797  11.356   0.059
42153SOL    HW128356   1.822  11.407  14.855
42153SOL    HW228357   1.847  11.274   0.050
42154SOL     OW28358  13.668   8.446   8.865
42154SOL    HW128359  13.684   8.513   8.932
42154SOL    HW228360  13.643   8.496   8.787
42155SOL     OW28361   4.382   4.862   8.004
42155SOL    HW128362   4.466   4.896   8.033
42155SOL    HW228363   4.321   4.882   8.075
42156SOL     OW28364   3.754   1.231   0.243
42156SOL    HW128365   3.758   1.323   0.268
42156SOL    HW228366   3.768   1.231   0.148
42157SOL     OW28367  13.732  13.499  11.957
42157SOL    HW128368  13.705  13.434  12.022
42157SOL    HW228369  13.780  13.448  11.891
42158SOL     OW28370   6.220   8.452   9.418
42158SOL    HW128371   6.145   8.468   9.360
42158SOL    HW228372   6.274   8.389   9.371
42159SOL     OW28373   6.412   6.274   6.620
42159SOL    HW128374   6.474   6.346   6.612
42159SOL    HW228375   6.375   6.283   6.708
42160SOL     OW28376   1.800   8.760  13.918
42160SOL    HW128377   1.874   8.700  13.908
42160SOL    HW228378   1.840   8.844  13.940
42161SOL     OW28379   6.993  11.503   3.281
42161SOL    HW128380   7.056  11.432   3.271
42161SOL    HW228381   7.014  11.564   3.209
42162SOL     OW28382  14.528   9.177   3.856
42162SOL    HW128383  14.462   9.159   3.789
42162SOL    HW228384  14.558   9.266   3.837
42163SOL     OW28385   2.379  12.148  10.155
42163SOL    HW128386   2.393  12.056  10.179
42163SOL    HW228387   2.415  12.155  10.066
42164SOL     OW28388  14.539   4.457  11.181
42164SOL    HW128389  14.450   4.491  11.172
42164SOL    HW228390  14.542   4.381  11.122
42165SOL     OW28391   0.496  10.613  12.417
42165SOL    HW128392   0.434  10.582  12.483
42165SOL    HW228393   0.577  10.566  12.437
42166SOL     OW28394   0.328  11.209   0.076
42166SOL    HW128395   0.252  11.236   0.024
42166SOL    HW228396   0.304  11.231   0.166
42167SOL     OW28397   4.509  13.056  12.045
42167SOL    HW128398   4.414  13.064  12.053
42167SOL    HW228399   4.522  12.982  11.986
42168SOL     OW28400   4.140   8.131   5.160
42168SOL    HW128401   4.144   8.225   5.142
42168SOL    HW228402   4.141   8.090   5.074
42169SOL     OW28403  14.684  13.325   2.256
42169SOL    HW128404  14.642  13.297   2.337
42169SOL    HW228405  14.653  13.415   2.243
42170SOL     OW28406   6.241   9.115   9.289
42170SOL    HW128407   6.253   9.049   9.358
42170SOL    HW228408   6.329   9.131   9.255
42171SOL     OW28409  13.621   8.875   5.522
42171SOL    HW128410  13.714   8.864   5.543
42171SOL    HW228411  13.577   8.877   5.607
42172SOL     OW28412   3.088   0.750   2.847
42172SOL    HW128413   3.115   0.733   2.757
42172SOL    HW228414   3.098   0.845   2.857
42173SOL     OW28415   9.057   1.755   0.428
42173SOL    HW128416   8.989   1.802   0.476
42173SOL    HW228417   9.058   1.668   0.467
42174SOL     OW28418   8.643   4.513  14.085
42174SOL    HW128419   8.716   4.481  14.138
42174SOL    HW228420   8.684   4.554  14.009
42175SOL     OW28421   7.454  12.930  11.453
42175SOL    HW128422   7.519  12.933  11.523
42175SOL    HW228423   7.376  12.893  11.493
42176SOL     OW28424   2.413  10.264   2.238
42176SOL    HW128425   2.327  10.286   2.203
42176SOL    HW228426   2.425  10.171   2.217
42177SOL     OW28427   0.413  14.110   3.246
42177SOL    HW128428   0.357  14.040   3.281
42177SOL    HW228429   0.421  14.089   3.153
42178SOL     OW28430   4.805  13.765   5.682
42178SOL    HW128431   4.811  13.687   5.627
42178SOL    HW228432   4.895  13.778   5.713
42179SOL     OW28433   6.112   7.528   7.048
42179SOL    HW128434   6.106   7.599   7.111
42179SOL    HW228435   6.052   7.552   6.978
42180SOL     OW28436   8.001   2.013   2.787
42180SOL    HW128437   7.935   1.956   2.748
42180SOL    HW228438   7.990   2.002   2.882
42181SOL     OW28439   3.960   0.955   2.960
42181SOL    HW128440   3.885   0.932   3.015
42181SOL    HW228441   4.003   1.027   3.007
42182SOL     OW28442   7.057   1.097  10.672
42182SOL    HW128443   6.966   1.070  10.655
42182SOL    HW228444   7.108   1.017  10.658
42183SOL     OW28445   0.245   3.323  10.470
42183SOL    HW128446   0.332   3.360  10.466
42183SOL    HW228447   0.218   3.315  10.378
42184SOL     OW28448  12.936   0.906   1.523
42184SOL    HW128449  12.944   0.999   1.504
42184SOL    HW228450  12.978   0.895   1.609
42185SOL     OW28451   2.501   8.469   0.743
42185SOL    HW128452   2.587   8.478   0.784
42185SOL    HW228453   2.443   8.441   0.815
42186SOL     OW28454   6.430  10.023   3.270
42186SOL    HW128455   6.512  10.065   3.245
42186SOL    HW228456   6.453   9.968   3.345
42187SOL     OW28457  13.217   9.061  10.812
42187SOL    HW128458  13.285   8.994  10.808
42187SOL    HW228459  13.261   9.142  10.786
42188SOL     OW28460  12.408  12.676   8.989
42188SOL    HW128461  12.336  12.676   9.053
42188SOL    HW228462  12.424  12.768   8.971
42189SOL     OW28463   7.418   7.914   4.975
42189SOL    HW128464   7.347   7.926   5.038
42189SOL    HW228465   7.375   7.922   4.889
42190SOL     OW28466   5.368  11.395   0.021
42190SOL    HW128467   5.459  11.393   0.050
42190SOL    HW228468   5.353  11.308  14.856
42191SOL     OW28469   2.237   1.467  10.752
42191SOL    HW128470   2.307   1.484  10.689
42191SOL    HW228471   2.241   1.540  10.813
42192SOL     OW28472   0.832   2.219  14.391
42192SOL    HW128473   0.839   2.282  14.318
42192SOL    HW228474   0.921   2.185  14.401
42193SOL     OW28475   1.402   0.035   3.856
42193SOL    HW128476   1.468   0.035   3.786
42193SOL    HW228477   1.339  14.840   3.829
42194SOL     OW28478  14.544  10.420  12.235
42194SOL    HW128479  14.499  10.501  12.209
42194SOL    HW228480  14.508  10.354  12.177
42195SOL     OW28481   6.980  12.976   0.157
42195SOL    HW128482   6.998  12.882   0.146
42195SOL    HW228483   6.932  13.000   0.078
42196SOL     OW28484   0.914   7.318  11.161
42196SOL    HW128485   0.878   7.406  11.170
42196SOL    HW228486   0.897   7.294  11.070
42197SOL     OW28487   9.564   5.918  13.715
42197SOL    HW128488   9.493   5.938  13.777
42197SOL    HW228489   9.619   5.997  13.716
42198SOL     OW28490   5.023   6.195  13.707
42198SOL    HW128491   4.966   6.233  13.640
42198SOL    HW228492   5.105   6.244  13.699
42199SOL     OW28493   8.453   8.501   8.703
42199SOL    HW128494   8.509   8.555   8.758
42199SOL    HW228495   8.478   8.411   8.726
42200SOL     OW28496  13.085   2.583  10.836
42200SOL    HW128497  13.141   2.657  10.857
42200SOL    HW228498  12.998   2.621  10.820
42201SOL     OW28499  10.208   5.955   3.148
42201SOL    HW128500  10.275   5.893   3.175
42201SOL    HW228501  10.181   5.998   3.229
42202SOL     OW28502  14.559  10.435  13.174
42202SOL    HW128503  14.577  10.483  13.093
42202SOL    HW228504  14.492  10.487  13.218
42203SOL     OW28505  13.289  10.242   5.277
42203SOL    HW128506  13.254  10.301   5.344
42203SOL    HW228507  13.328  10.170   5.327
42204SOL     OW28508   8.220   5.242   2.040
42204SOL    HW128509   8.294   5.191   2.072
42204SOL    HW228510   8.174   5.182   1.981
42205SOL     OW28511   9.489   3.997   3.648
42205SOL    HW128512   9.520   4.075   3.602
42205SOL    HW228513   9.566   3.940   3.653
42206SOL     OW28514  14.626   8.010   6.485
42206SOL    HW128515  14.555   8.049   6.537
42206SOL    HW228516  14.661   7.940   6.540
42207SOL     OW28517   9.121   8.404   5.861
42207SOL    HW128518   9.139   8.453   5.781
42207SOL    HW228519   9.179   8.443   5.927
42208SOL     OW28520  12.659   3.408   7.813
42208SOL    HW128521  12.615   3.465   7.751
42208SOL    HW228522  12.592   3.386   7.878
42209SOL     OW28523   3.405   9.893   3.795
42209SOL    HW128524   3.333   9.909   3.857
42209SOL    HW228525   3.450   9.977   3.787
42210SOL     OW28526  11.256  10.665  12.065
42210SOL    HW128527  11.288  10.671  12.154
42210SOL    HW228528  11.179  10.723  12.063
42211SOL     OW28529   2.730   6.723   0.805
42211SOL    HW128530   2.699   6.810   0.832
42211SOL    HW228531   2.816   6.715   0.845
42212SOL     OW28532   4.470  12.267  12.670
42212SOL    HW128533   4.545  12.223  12.711
42212SOL    HW228534   4.489  12.360  12.679
42213SOL     OW28535   5.737   7.739   9.783
42213SOL    HW128536   5.792   7.756   9.706
42213SOL    HW228537   5.682   7.817   9.791
42214SOL     OW28538   4.474   3.762   0.111
42214SOL    HW128539   4.553   3.741   0.161
42214SOL    HW228540   4.403   3.754   0.174
42215SOL     OW28541   7.556   0.951  11.262
42215SOL    HW128542   7.577   0.858  11.263
42215SOL    HW228543   7.623   0.992  11.316
42216SOL     OW28544   0.257  12.107  11.466
42216SOL    HW128545   0.196  12.118  11.393
42216SOL    HW228546   0.308  12.188  11.466
42217SOL     OW28547   6.498   9.572   3.990
42217SOL    HW128548   6.444   9.651   3.990
42217SOL    HW228549   6.471   9.525   4.068
42218SOL     OW28550   3.199  11.365   6.503
42218SOL    HW128551   3.236  11.277   6.509
42218SOL    HW228552   3.206  11.400   6.592
42219SOL     OW28553   1.278   2.790  13.270
42219SOL    HW128554   1.192   2.748  13.271
42219SOL    HW228555   1.274   2.855  13.340
42220SOL     OW28556   1.775  14.855   1.831
42220SOL    HW128557   1.726   0.031   1.897
42220SOL    HW228558   1.829   0.049   1.787
42221SOL     OW28559  13.431  13.174   7.922
42221SOL    HW128560  13.396  13.114   7.988
42221SOL    HW228561  13.419  13.261   7.960
42222SOL     OW28562   0.165  10.056  14.769
42222SOL    HW128563   0.094  10.020  14.716
42222SOL    HW228564   0.134  10.051  14.859
42223SOL     OW28565   9.435  13.666   7.928
42223SOL    HW128566   9.427  13.659   7.833
42223SOL    HW228567   9.371  13.732   7.953
42224SOL     OW28568   0.229  12.324   0.117
42224SOL    HW128569   0.171  12.401   0.113
42224SOL    HW228570   0.241  12.299   0.025
42225SOL     OW28571   6.645  13.939   6.584
42225SOL    HW128572   6.709  13.952   6.654
42225SOL    HW228573   6.573  13.998   6.606
42226SOL     OW28574   9.252   6.829  13.237
42226SOL    HW128575   9.254   6.857  13.146
42226SOL    HW228576   9.285   6.904  13.286
42227SOL     OW28577   7.649   5.096   4.736
42227SOL    HW128578   7.588   5.169   4.749
42227SOL    HW228579   7.690   5.114   4.651
42228SOL     OW28580   3.934   1.124  14.175
42228SOL    HW128581   3.886   1.055  14.221
42228SOL    HW228582   3.895   1.206  14.206
42229SOL     OW28583  12.068  11.093   2.542
42229SOL    HW128584  12.157  11.094   2.507
42229SOL    HW228585  12.054  11.002   2.568
42230SOL     OW28586  10.809   4.202   5.864
42230SOL    HW128587  10.802   4.140   5.790
42230SOL    HW228588  10.723   4.244   5.867
42231SOL     OW28589  10.497   2.641  10.317
42231SOL    HW128590  10.506   2.610  10.407
42231SOL    HW228591  10.476   2.734  10.326
42232SOL     OW28592  11.713  10.780   9.862
42232SOL    HW128593  11.704  10.704   9.920
42232SOL    HW228594  11.679  10.750   9.778
42233SOL     OW28595   9.940   8.087  13.305
42233SOL    HW128596   9.922   8.096  13.399
42233SOL    HW228597   9.955   7.993  13.293
42234SOL     OW28598   8.077   4.122   3.595
42234SOL    HW128599   8.148   4.063   3.572
42234SOL    HW228600   7.997   4.072   3.578
42235SOL     OW28601   6.830  12.034   2.943
42235SOL    HW128602   6.767  11.962   2.936
42235SOL    HW228603   6.916  11.991   2.939
42236SOL     OW28604   7.000   9.058   7.774
42236SOL    HW128605   6.988   8.975   7.729
42236SOL    HW228606   7.048   9.113   7.712
42237SOL     OW28607  10.519   1.022   0.698
42237SOL    HW128608  10.441   1.072   0.673
42237SOL    HW228609  10.488   0.959   0.763
42238SOL     OW28610   5.951   3.963   5.784
42238SOL    HW128611   5.862   3.952   5.818
42238SOL    HW228612   5.949   3.922   5.697
42239SOL     OW28613  13.853   1.265  13.160
42239SOL    HW128614  13.811   1.280  13.245
42239SOL    HW228615  13.858   1.170  13.152
42240SOL     OW28616   8.395   9.076   3.703
42240SOL    HW128617   8.306   9.044   3.689
42240SOL    HW228618   8.451   9.007   3.668
42241SOL     OW28619  13.595   6.731   1.228
42241SOL    HW128620  13.564   6.687   1.307
42241SOL    HW228621  13.626   6.660   1.172
42242SOL     OW28622   4.754  11.005   6.580
42242SOL    HW128623   4.664  10.975   6.573
42242SOL    HW228624   4.798  10.967   6.504
42243SOL     OW28625   6.002   2.230   6.748
42243SOL    HW128626   6.008   2.173   6.671
42243SOL    HW228627   5.952   2.179   6.812
42244SOL     OW28628   2.406   1.724  14.344
42244SOL    HW128629   2.462   1.668  14.289
42244SOL    HW228630   2.332   1.747  14.287
42245SOL     OW28631   8.200   2.843   9.916
42245SOL    HW128632   8.281   2.888   9.893
42245SOL    HW228633   8.179   2.790   9.839
42246SOL     OW28634   8.013   7.968   8.562
42246SOL    HW128635   8.017   8.064   8.558
42246SOL    HW228636   8.014   7.949   8.656
42247SOL     OW28637   2.577  12.366   3.232
42247SOL    HW128638   2.609  12.297   3.290
42247SOL    HW228639   2.524  12.422   3.289
42248SOL     OW28640   0.028   6.871   6.514
42248SOL    HW128641   0.020   6.879   6.419
42248SOL    HW228642  14.859   6.950   6.549
42249SOL     OW28643   8.943   4.786  10.515
42249SOL    HW128644   8.855   4.751  10.510
42249SOL    HW228645   8.986   4.735  10.583
42250SOL     OW28646   1.302   0.660   5.701
42250SOL    HW128647   1.358   0.634   5.628
42250SOL    HW228648   1.290   0.580   5.752
42251SOL     OW28649   5.287   1.662  14.195
42251SOL    HW128650   5.228   1.616  14.255
42251SOL    HW228651   5.359   1.691  14.251
42252SOL     OW28652   2.679  13.501   5.848
42252SOL    HW128653   2.723  13.498   5.763
42252SOL    HW228654   2.742  13.543   5.907
42253SOL     OW28655   8.513   8.308  13.478
42253SOL    HW128656   8.457   8.353  13.414
42253SOL    HW228657   8.505   8.215  13.456
42254SOL     OW28658   7.413   1.418  14.653
42254SOL    HW128659   7.361   1.338  14.641
42254SOL    HW228660   7.473   1.396  14.725
42255SOL     OW28661   6.950   8.414   1.964
42255SOL    HW128662   7.039   8.405   1.998
42255SOL    HW228663   6.960   8.413   1.869
42256SOL     OW28664  13.155   2.197   0.903
42256SOL    HW128665  13.156   2.134   0.975
42256SOL    HW228666  13.248   2.213   0.884
42257SOL     OW28667  10.504  14.739   7.779
42257SOL    HW128668  10.563  14.783   7.718
42257SOL    HW228669  10.562  14.692   7.839
42258SOL     OW28670   0.907   6.424   7.765
42258SOL    HW128671   0.878   6.508   7.799
42258SOL    HW228672   1.001   6.424   7.777
42259SOL     OW28673  12.755  14.868   3.809
42259SOL    HW128674  12.687  14.815   3.851
42259SOL    HW228675  12.751  14.844   3.716
42260SOL     OW28676  10.348   0.356   2.356
42260SOL    HW128677  10.429   0.389   2.316
42260SOL    HW228678  10.291   0.433   2.362
42261SOL     OW28679   6.820   0.399   5.899
42261SOL    HW128680   6.908   0.365   5.890
42261SOL    HW228681   6.794   0.424   5.810
42262SOL     OW28682   1.855   3.727   2.409
42262SOL    HW128683   1.903   3.654   2.370
42262SOL    HW228684   1.922   3.780   2.450
42263SOL     OW28685   6.058   2.544  14.083
42263SOL    HW128686   6.065   2.541  13.987
42263SOL    HW228687   6.143   2.512  14.114
42264SOL     OW28688   7.315  12.612  11.030
42264SOL    HW128689   7.251  12.670  10.989
42264SOL    HW228690   7.272  12.526  11.032
42265SOL     OW28691   1.601   5.504   8.156
42265SOL    HW128692   1.606   5.512   8.251
42265SOL    HW228693   1.512   5.530   8.134
42266SOL     OW28694   7.771   0.621   7.676
42266SOL    HW128695   7.710   0.547   7.667
42266SOL    HW228696   7.844   0.598   7.618
42267SOL     OW28697   0.992   7.363  14.834
42267SOL    HW128698   1.018   7.305   0.033
42267SOL    HW228699   1.060   7.351  14.767
42268SOL     OW28700   5.187  12.482  14.715
42268SOL    HW128701   5.132  12.537  14.772
42268SOL    HW228702   5.266  12.466  14.766
42269SOL     OW28703  11.820   0.052   1.232
42269SOL    HW128704  11.748   0.039   1.171
42269SOL    HW228705  11.886  14.860   1.205
42270SOL     OW28706  11.969  10.077   0.741
42270SOL    HW128707  12.054  10.087   0.699
42270SOL    HW228708  11.987  10.023   0.819
42271SOL     OW28709   9.105   5.465   6.288
42271SOL    HW128710   9.080   5.423   6.206
42271SOL    HW228711   9.054   5.419   6.355
42272SOL     OW28712   2.227  11.607   8.271
42272SOL    HW128713   2.271  11.691   8.260
42272SOL    HW228714   2.216  11.575   8.182
42273SOL     OW28715   4.453   4.363  11.556
42273SOL    HW128716   4.518   4.321  11.612
42273SOL    HW228717   4.383   4.298  11.548
42274SOL     OW28718  14.280   8.529   3.734
42274SOL    HW128719  14.231   8.458   3.774
42274SOL    HW228720  14.367   8.522   3.772
42275SOL     OW28721  12.549   1.461   4.253
42275SOL    HW128722  12.483   1.420   4.308
42275SOL    HW228723  12.553   1.552   4.283
42276SOL     OW28724  10.493   5.631   8.122
42276SOL    HW128725  10.567   5.571   8.131
42276SOL    HW228726  10.477   5.663   8.211
42277SOL     OW28727   2.505  10.796  10.388
42277SOL    HW128728   2.451  10.839  10.321
42277SOL    HW228729   2.442  10.745  10.439
42278SOL     OW28730   6.252  11.426   6.019
42278SOL    HW128731   6.182  11.491   6.010
42278SOL    HW228732   6.331  11.478   6.034
42279SOL     OW28733  11.805  12.002   9.163
42279SOL    HW128734  11.740  12.028   9.229
42279SOL    HW228735  11.811  12.078   9.105
42280SOL     OW28736   0.011  12.971  14.002
42280SOL    HW128737   0.047  12.938  13.920
42280SOL    HW228738   0.029  12.902  14.066
42281SOL     OW28739   5.946  11.811   7.041
42281SOL    HW128740   5.896  11.766   7.109
42281SOL    HW228741   5.880  11.858   6.990
42282SOL     OW28742   3.146  11.583  14.105
42282SOL    HW128743   3.203  11.518  14.064
42282SOL    HW228744   3.157  11.570  14.199
42283SOL     OW28745   2.682  12.079  10.035
42283SOL    HW128746   2.688  12.043   9.946
42283SOL    HW228747   2.739  12.155  10.034
42284SOL     OW28748   5.173   3.381   0.955
42284SOL    HW128749   5.188   3.450   0.891
42284SOL    HW228750   5.080   3.358   0.945
42285SOL     OW28751   1.634  14.697  12.907
42285SOL    HW128752   1.645  14.697  13.002
42285SOL    HW228753   1.551  14.744  12.892
42286SOL     OW28754   6.016   1.727   5.284
42286SOL    HW128755   6.109   1.707   5.287
42286SOL    HW228756   5.981   1.692   5.366
42287SOL     OW28757  10.725   7.728   3.494
42287SOL    HW128758  10.758   7.734   3.404
42287SOL    HW228759  10.653   7.665   3.489
42288SOL     OW28760   2.597  13.106   1.416
42288SOL    HW128761   2.526  13.165   1.390
42288SOL    HW228762   2.653  13.100   1.339
42289SOL     OW28763   2.594  12.307   0.999
42289SOL    HW128764   2.644  12.330   1.077
42289SOL    HW228765   2.620  12.372   0.934
42290SOL     OW28766  14.166   1.820   2.071
42290SOL    HW128767  14.247   1.863   2.043
42290SOL    HW228768  14.113   1.815   1.991
42291SOL     OW28769   1.085   8.099   6.931
42291SOL    HW128770   1.156   8.047   6.895
42291SOL    HW228771   1.036   8.039   6.987
42292SOL     OW28772   2.795   5.530  13.629
42292SOL    HW128773   2.800   5.620  13.594
42292SOL    HW228774   2.858   5.481  13.576
42293SOL     OW28775   9.236   9.011   1.240
42293SOL    HW128776   9.214   8.948   1.309
42293SOL    HW228777   9.311   9.059   1.274
42294SOL     OW28778   2.013   8.438   9.454
42294SOL    HW128779   2.034   8.528   9.431
42294SOL    HW228780   1.946   8.446   9.522
42295SOL     OW28781   8.385  14.015   0.795
42295SOL    HW128782   8.464  14.062   0.768
42295SOL    HW228783   8.365  14.051   0.882
42296SOL     OW28784   6.095   5.280  11.216
42296SOL    HW128785   6.007   5.245  11.204
42296SOL    HW228786   6.081   5.360  11.268
42297SOL     OW28787  10.814  12.272   3.351
42297SOL    HW128788  10.850  12.360   3.360
42297SOL    HW228789  10.840  12.228   3.432
42298SOL     OW28790   3.544  13.240  14.406
42298SOL    HW128791   3.577  13.155  14.376
42298SOL    HW228792   3.587  13.304  14.349
42299SOL     OW28793   4.255   8.818   1.260
42299SOL    HW128794   4.285   8.768   1.184
42299SOL    HW228795   4.308   8.784   1.333
42300SOL     OW28796   6.802  13.323   8.493
42300SOL    HW128797   6.794  13.228   8.485
42300SOL    HW228798   6.758  13.357   8.415
42301SOL     OW28799   5.351  13.598  10.355
42301SOL    HW128800   5.395  13.526  10.401
42301SOL    HW228801   5.382  13.677  10.399
42302SOL     OW28802   5.251  10.953   8.601
42302SOL    HW128803   5.321  10.897   8.634
42302SOL    HW228804   5.248  11.027   8.662
42303SOL     OW28805  11.361   2.120   6.760
42303SOL    HW128806  11.349   2.140   6.853
42303SOL    HW228807  11.444   2.162   6.736
42304SOL     OW28808   7.551   0.104   1.337
42304SOL    HW128809   7.479   0.109   1.275
42304SOL    HW228810   7.630   0.102   1.283
42305SOL     OW28811   9.627   5.475   8.574
42305SOL    HW128812   9.675   5.521   8.643
42305SOL    HW228813   9.536   5.505   8.584
42306SOL     OW28814   6.998   8.188   1.178
42306SOL    HW128815   7.003   8.243   1.257
42306SOL    HW228816   6.935   8.233   1.122
42307SOL     OW28817   3.676  11.766   7.538
42307SOL    HW128818   3.748  11.704   7.529
42307SOL    HW228819   3.638  11.772   7.451
42308SOL     OW28820   2.316   4.521  11.184
42308SOL    HW128821   2.372   4.574  11.128
42308SOL    HW228822   2.372   4.494  11.257
42309SOL     OW28823   0.225   7.709  10.146
42309SOL    HW128824   0.252   7.745  10.061
42309SOL    HW228825   0.190   7.622  10.125
42310SOL     OW28826   4.980   1.080   2.734
42310SOL    HW128827   5.038   1.004   2.729
42310SOL    HW228828   4.987   1.110   2.825
42311SOL     OW28829  11.265   4.751   3.616
42311SOL    HW128830  11.257   4.800   3.533
42311SOL    HW228831  11.299   4.666   3.590
42312SOL     OW28832   4.869  10.545   1.570
42312SOL    HW128833   4.832  10.545   1.482
42312SOL    HW228834   4.963  10.536   1.557
42313SOL     OW28835   6.926   0.124  13.170
42313SOL    HW128836   6.924   0.028  13.173
42313SOL    HW228837   6.936   0.144  13.077
42314SOL     OW28838   7.190  10.306   8.771
42314SOL    HW128839   7.187  10.249   8.848
42314SOL    HW228840   7.278  10.344   8.773
42315SOL     OW28841   8.989  12.793   1.817
42315SOL    HW128842   9.067  12.748   1.783
42315SOL    HW228843   8.951  12.836   1.740
42316SOL     OW28844   3.733  14.478   8.043
42316SOL    HW128845   3.671  14.405   8.051
42316SOL    HW228846   3.678  14.556   8.046
42317SOL     OW28847  14.210   9.806   0.679
42317SOL    HW128848  14.149   9.787   0.750
42317SOL    HW228849  14.205   9.901   0.668
42318SOL     OW28850   6.365  12.206   3.334
42318SOL    HW128851   6.425  12.166   3.271
42318SOL    HW228852   6.412  12.284   3.365
42319SOL     OW28853   6.936   0.122  13.576
42319SOL    HW128854   6.919   0.090  13.665
42319SOL    HW228855   6.882   0.067  13.520
42320SOL     OW28856  10.822   3.545   8.692
42320SOL    HW128857  10.912   3.555   8.722
42320SOL    HW228858  10.816   3.455   8.663
42321SOL     OW28859   5.252  10.600   5.279
42321SOL    HW128860   5.319  10.535   5.303
42321SOL    HW228861   5.222  10.636   5.362
42322SOL     OW28862  13.327  13.750  10.894
42322SOL    HW128863  13.361  13.835  10.920
42322SOL    HW228864  13.369  13.688  10.953
42323SOL     OW28865   7.054   2.570   7.914
42323SOL    HW128866   7.056   2.661   7.943
42323SOL    HW228867   6.969   2.560   7.871
42324SOL     OW28868   6.896   4.296   8.503
42324SOL    HW128869   6.915   4.287   8.410
42324SOL    HW228870   6.900   4.390   8.520
42325SOL     OW28871  14.795  14.684  11.275
42325SOL    HW128872  14.788  14.596  11.313
42325SOL    HW228873  14.720  14.731  11.310
42326SOL     OW28874   5.519  10.910   8.979
42326SOL    HW128875   5.424  10.910   8.975
42326SOL    HW228876   5.547  10.906   8.888
42327SOL     OW28877   5.064   1.330  13.469
42327SOL    HW128878   5.075   1.323  13.564
42327SOL    HW228879   5.120   1.404  13.444
42328SOL     OW28880   0.842  13.089   7.332
42328SOL    HW128881   0.810  13.076   7.421
42328SOL    HW228882   0.938  13.094   7.342
42329SOL     OW28883  11.913  14.769   7.961
42329SOL    HW128884  11.843  14.752   7.897
42329SOL    HW228885  11.986  14.714   7.932
42330SOL     OW28886  13.507   0.807   2.971
42330SOL    HW128887  13.483   0.883   3.025
42330SOL    HW228888  13.567   0.843   2.905
42331SOL     OW28889   5.418   7.211   6.934
42331SOL    HW128890   5.459   7.124   6.930
42331SOL    HW228891   5.492   7.272   6.933
42332SOL     OW28892  12.879  10.905   1.921
42332SOL    HW128893  12.961  10.859   1.902
42332SOL    HW228894  12.815  10.835   1.935
42333SOL     OW28895   1.268   7.988  12.869
42333SOL    HW128896   1.284   8.074  12.830
42333SOL    HW228897   1.228   7.937  12.798
42334SOL     OW28898  13.256  12.856  12.399
42334SOL    HW128899  13.187  12.789  12.409
42334SOL    HW228900  13.211  12.931  12.360
42335SOL     OW28901   2.327   4.612  11.638
42335SOL    HW128902   2.328   4.541  11.573
42335SOL    HW228903   2.410   4.658  11.625
42336SOL     OW28904   0.592  14.288   7.650
42336SOL    HW128905   0.537  14.366   7.642
42336SOL    HW228906   0.664  14.315   7.707
42337SOL     OW28907   7.353   6.308  11.968
42337SOL    HW128908   7.311   6.236  11.920
42337SOL    HW228909   7.446   6.287  11.967
42338SOL     OW28910   3.135   7.663  11.065
42338SOL    HW128911   3.041   7.677  11.076
42338SOL    HW228912   3.143   7.611  10.986
42339SOL     OW28913   2.900  11.005   5.821
42339SOL    HW128914   2.817  11.051   5.809
42339SOL    HW228915   2.894  10.928   5.765
42340SOL     OW28916   2.351   2.858   6.777
42340SOL    HW128917   2.306   2.936   6.743
42340SOL    HW228918   2.405   2.891   6.849
42341SOL     OW28919   8.677   5.981   0.206
42341SOL    HW128920   8.684   6.015   0.117
42341SOL    HW228921   8.610   5.913   0.200
42342SOL     OW28922   0.511   0.848   6.529
42342SOL    HW128923   0.471   0.806   6.606
42342SOL    HW228924   0.512   0.779   6.463
42343SOL     OW28925   3.767  12.035   0.305
42343SOL    HW128926   3.820  11.994   0.236
42343SOL    HW228927   3.696  11.972   0.321
42344SOL     OW28928   1.048   0.010   8.292
42344SOL    HW128929   1.055  14.864   8.386
42344SOL    HW228930   1.135  14.860   8.257
42345SOL     OW28931   1.030  14.867   7.861
42345SOL    HW128932   0.992   0.078   7.890
42345SOL    HW228933   1.117  14.865   7.901
42346SOL     OW28934   3.199  14.738   1.100
42346SOL    HW128935   3.148  14.791   1.161
42346SOL    HW228936   3.195  14.650   1.136
42347SOL     OW28937   4.847  11.340  12.383
42347SOL    HW128938   4.857  11.257  12.337
42347SOL    HW228939   4.869  11.320  12.474
42348SOL     OW28940   5.457  12.209   7.085
42348SOL    HW128941   5.390  12.170   7.029
42348SOL    HW228942   5.537  12.206   7.033
42349SOL     OW28943   8.769   2.165  12.898
42349SOL    HW128944   8.775   2.238  12.836
42349SOL    HW228945   8.685   2.123  12.878
42350SOL     OW28946   4.494  13.816  10.570
42350SOL    HW128947   4.515  13.792  10.660
42350SOL    HW228948   4.541  13.899  10.556
42351SOL     OW28949   5.701   0.513   9.786
42351SOL    HW128950   5.738   0.573   9.851
42351SOL    HW228951   5.776   0.489   9.731
42352SOL     OW28952   9.559   1.616   7.218
42352SOL    HW128953   9.611   1.696   7.211
42352SOL    HW228954   9.623   1.545   7.216
42353SOL     OW28955   8.039   5.215   7.217
42353SOL    HW128956   8.008   5.252   7.300
42353SOL    HW228957   8.051   5.291   7.160
42354SOL     OW28958  13.024  13.332  13.930
42354SOL    HW128959  12.955  13.363  13.988
42354SOL    HW228960  13.029  13.238  13.947
42355SOL     OW28961   7.931   4.476   6.845
42355SOL    HW128962   7.928   4.391   6.801
42355SOL    HW228963   7.969   4.456   6.931
42356SOL     OW28964   4.082   9.252   1.882
42356SOL    HW128965   4.035   9.176   1.916
42356SOL    HW228966   4.070   9.247   1.788
42357SOL     OW28967  12.032   3.829   9.986
42357SOL    HW128968  11.947   3.872   9.995
42357SOL    HW228969  12.066   3.825  10.076
42358SOL     OW28970   3.429   3.992   5.771
42358SOL    HW128971   3.430   4.074   5.722
42358SOL    HW228972   3.347   3.994   5.820
42359SOL     OW28973  13.464   6.452   2.211
42359SOL    HW128974  13.560   6.446   2.201
42359SOL    HW228975  13.430   6.435   2.123
42360SOL     OW28976   2.124   3.452   8.364
42360SOL    HW128977   2.105   3.462   8.271
42360SOL    HW228978   2.073   3.376   8.391
42361SOL     OW28979   3.288   6.143   9.074
42361SOL    HW128980   3.243   6.226   9.056
42361SOL    HW228981   3.229   6.076   9.040
42362SOL     OW28982   4.334   4.109  13.133
42362SOL    HW128983   4.415   4.153  13.108
42362SOL    HW228984   4.307   4.061  13.054
42363SOL     OW28985  12.499   5.248   5.139
42363SOL    HW128986  12.477   5.331   5.097
42363SOL    HW228987  12.591   5.233   5.117
42364SOL     OW28988   7.361   8.876   4.843
42364SOL    HW128989   7.332   8.798   4.795
42364SOL    HW228990   7.456   8.869   4.844
42365SOL     OW28991   5.497   9.816  10.327
42365SOL    HW128992   5.533   9.839  10.242
42365SOL    HW228993   5.426   9.754  10.308
42366SOL     OW28994   3.208   1.338  10.994
42366SOL    HW128995   3.133   1.337  11.054
42366SOL    HW228996   3.223   1.246  10.972
42367SOL     OW28997   7.809   6.502  11.790
42367SOL    HW128998   7.846   6.538  11.709
42367SOL    HW228999   7.816   6.573  11.853
42368SOL     OW29000  10.989   2.891   1.833
42368SOL    HW129001  10.909   2.861   1.876
42368SOL    HW229002  11.022   2.962   1.889
42369SOL     OW29003   1.113   6.416   3.280
42369SOL    HW129004   1.143   6.390   3.193
42369SOL    HW229005   1.023   6.383   3.285
42370SOL     OW29006   3.840   8.144   1.086
42370SOL    HW129007   3.883   8.223   1.052
42370SOL    HW229008   3.913   8.085   1.106
42371SOL     OW29009  11.878   9.857   1.743
42371SOL    HW129010  11.889   9.850   1.648
42371SOL    HW229011  11.814   9.928   1.754
42372SOL     OW29012   2.586   2.798   8.159
42372SOL    HW129013   2.503   2.777   8.202
42372SOL    HW229014   2.640   2.720   8.172
42373SOL     OW29015   5.799   8.400  12.483
42373SOL    HW129016   5.736   8.464  12.450
42373SOL    HW229017   5.874   8.451  12.512
42374SOL     OW29018  14.731   0.718   3.317
42374SOL    HW129019  14.656   0.734   3.260
42374SOL    HW229020  14.764   0.806   3.339
42375SOL     OW29021  13.587   8.986   7.913
42375SOL    HW129022  13.670   9.029   7.892
42375SOL    HW229023  13.541   8.981   7.829
42376SOL     OW29024  10.306  11.600   9.530
42376SOL    HW129025  10.301  11.678   9.584
42376SOL    HW229026  10.233  11.609   9.468
42377SOL     OW29027   2.937   9.398   2.627
42377SOL    HW129028   3.017   9.437   2.664
42377SOL    HW229029   2.968   9.348   2.552
42378SOL     OW29030   8.425  13.732   4.890
42378SOL    HW129031   8.444  13.790   4.964
42378SOL    HW229032   8.472  13.770   4.816
42379SOL     OW29033  13.550  13.521  12.841
42379SOL    HW129034  13.543  13.487  12.930
42379SOL    HW229035  13.474  13.578  12.831
42380SOL     OW29036   1.905   3.913  13.166
42380SOL    HW129037   1.897   3.818  13.153
42380SOL    HW229038   1.953   3.921  13.249
42381SOL     OW29039   8.687   2.438   1.295
42381SOL    HW129040   8.768   2.487   1.314
42381SOL    HW229041   8.716   2.348   1.284
42382SOL     OW29042   0.207   7.597   2.691
42382SOL    HW129043   0.220   7.620   2.599
42382SOL    HW229044   0.169   7.675   2.731
42383SOL     OW29045   9.842  12.830  12.866
42383SOL    HW129046   9.823  12.919  12.838
42383SOL    HW229047   9.936  12.820  12.854
42384SOL     OW29048   8.314  10.813   9.295
42384SOL    HW129049   8.294  10.758   9.371
42384SOL    HW229050   8.409  10.806   9.284
42385SOL     OW29051  10.140  14.697   9.164
42385SOL    HW129052  10.182  14.617   9.135
42385SOL    HW229053  10.049  14.672   9.183
42386SOL     OW29054   4.603   9.000   4.951
42386SOL    HW129055   4.557   8.942   4.891
42386SOL    HW229056   4.684   9.022   4.905
42387SOL     OW29057  13.544   9.965   4.121
42387SOL    HW129058  13.634   9.970   4.087
42387SOL    HW229059  13.536   9.876   4.155
42388SOL     OW29060  11.922   8.983   2.414
42388SOL    HW129061  11.983   9.022   2.351
42388SOL    HW229062  11.971   8.910   2.452
42389SOL     OW29063   5.624   8.021   1.981
42389SOL    HW129064   5.634   8.044   2.074
42389SOL    HW229065   5.653   8.099   1.934
42390SOL     OW29066  14.770   0.967   9.013
42390SOL    HW129067  14.781   0.987   8.920
42390SOL    HW229068  14.675   0.973   9.028
42391SOL     OW29069  10.125  13.887  11.467
42391SOL    HW129070  10.154  13.975  11.446
42391SOL    HW229071  10.070  13.897  11.544
42392SOL     OW29072  14.631  11.082   2.848
42392SOL    HW129073  14.697  11.014   2.830
42392SOL    HW229074  14.681  11.155   2.885
42393SOL     OW29075   5.922   9.548   5.806
42393SOL    HW129076   5.857   9.481   5.830
42393SOL    HW229077   6.006   9.506   5.822
42394SOL     OW29078   1.491   0.621   6.595
42394SOL    HW129079   1.507   0.674   6.517
42394SOL    HW229080   1.396   0.618   6.603
42395SOL     OW29081  10.593  12.550  10.775
42395SOL    HW129082  10.581  12.484  10.843
42395SOL    HW229083  10.507  12.591  10.765
42396SOL     OW29084   6.114   9.615   4.391
42396SOL    HW129085   6.194   9.632   4.442
42396SOL    HW229086   6.144   9.612   4.301
42397SOL     OW29087   4.592  14.628  12.603
42397SOL    HW129088   4.569  14.693  12.536
42397SOL    HW229089   4.572  14.672  12.686
42398SOL     OW29090   1.488   2.922  11.533
42398SOL    HW129091   1.574   2.961  11.549
42398SOL    HW229092   1.432   2.996  11.507
42399SOL     OW29093   5.849   3.313   9.128
42399SOL    HW129094   5.924   3.274   9.174
42399SOL    HW229095   5.808   3.239   9.082
42400SOL     OW29096   9.631  14.724   9.739
42400SOL    HW129097   9.599  14.634   9.732
42400SOL    HW229098   9.628  14.743   9.832
42401SOL     OW29099  11.264  10.750  14.687
42401SOL    HW129100  11.340  10.807  14.676
42401SOL    HW229101  11.301  10.665  14.713
42402SOL     OW29102  12.106   5.993   8.514
42402SOL    HW129103  12.149   5.910   8.498
42402SOL    HW229104  12.041   5.974   8.582
42403SOL     OW29105   7.436   0.467   4.286
42403SOL    HW129106   7.494   0.525   4.236
42403SOL    HW229107   7.374   0.526   4.328
42404SOL     OW29108   4.621  13.579   4.554
42404SOL    HW129109   4.709  13.550   4.531
42404SOL    HW229110   4.573  13.499   4.577
42405SOL     OW29111   2.860   6.355   7.624
42405SOL    HW129112   2.855   6.318   7.713
42405SOL    HW229113   2.930   6.420   7.630
42406SOL     OW29114   3.796  14.685  10.061
42406SOL    HW129115   3.814  14.760  10.004
42406SOL    HW229116   3.703  14.667  10.048
42407SOL     OW29117   2.123  14.111  13.185
42407SOL    HW129118   2.048  14.167  13.205
42407SOL    HW229119   2.198  14.171  13.180
42408SOL     OW29120   1.815  10.823   0.857
42408SOL    HW129121   1.766  10.884   0.912
42408SOL    HW229122   1.764  10.742   0.858
42409SOL     OW29123   5.031   5.996   0.978
42409SOL    HW129124   5.012   5.946   0.898
42409SOL    HW229125   5.099   6.059   0.952
42410SOL     OW29126   2.454   6.796  12.029
42410SOL    HW129127   2.468   6.888  12.008
42410SOL    HW229128   2.535   6.753  12.002
42411SOL     OW29129   0.640   6.732  11.555
42411SOL    HW129130   0.577   6.803  11.543
42411SOL    HW229131   0.614   6.666  11.490
42412SOL     OW29132  10.092   3.577  13.219
42412SOL    HW129133  10.009   3.605  13.179
42412SOL    HW229134  10.156   3.589  13.149
42413SOL     OW29135  14.193  14.299   4.296
42413SOL    HW129136  14.215  14.219   4.344
42413SOL    HW229137  14.275  14.326   4.253
42414SOL     OW29138   2.858   4.116   4.020
42414SOL    HW129139   2.847   4.177   3.947
42414SOL    HW229140   2.803   4.152   4.090
42415SOL     OW29141   5.674   2.176  14.109
42415SOL    HW129142   5.607   2.215  14.052
42415SOL    HW229143   5.743   2.242  14.114
42416SOL     OW29144  11.661   3.685   6.035
42416SOL    HW129145  11.630   3.624   6.103
42416SOL    HW229146  11.675   3.767   6.082
42417SOL     OW29147   3.974   5.888  10.136
42417SOL    HW129148   3.998   5.923  10.222
42417SOL    HW229149   4.032   5.932  10.075
42418SOL     OW29150   0.347   6.844   6.862
42418SOL    HW129151   0.317   6.800   6.782
42418SOL    HW229152   0.441   6.828   6.864
42419SOL     OW29153  14.433   8.672   8.130
42419SOL    HW129154  14.463   8.749   8.178
42419SOL    HW229155  14.342   8.689   8.109
42420SOL     OW29156   8.286   9.341  11.094
42420SOL    HW129157   8.291   9.255  11.052
42420SOL    HW229158   8.323   9.327  11.181
42421SOL     OW29159  11.767   9.364   2.222
42421SOL    HW129160  11.679   9.345   2.254
42421SOL    HW229161  11.801   9.431   2.282
42422SOL     OW29162   1.246   8.880  13.253
42422SOL    HW129163   1.249   8.900  13.347
42422SOL    HW229164   1.294   8.798  13.244
42423SOL     OW29165  14.272   6.020   1.619
42423SOL    HW129166  14.334   6.003   1.548
42423SOL    HW229167  14.202   5.956   1.606
42424SOL     OW29168   6.486   3.420  12.149
42424SOL    HW129169   6.561   3.436  12.091
42424SOL    HW229170   6.410   3.450  12.099
42425SOL     OW29171  10.098   4.580   6.705
42425SOL    HW129172  10.143   4.574   6.789
42425SOL    HW229173  10.005   4.569   6.727
42426SOL     OW29174   1.623  13.129  12.461
42426SOL    HW129175   1.601  13.202  12.519
42426SOL    HW229176   1.583  13.151  12.377
42427SOL     OW29177   6.438   2.792   4.211
42427SOL    HW129178   6.476   2.717   4.257
42427SOL    HW229179   6.386   2.754   4.140
42428SOL     OW29180  12.893  12.978   3.231
42428SOL    HW129181  12.891  13.073   3.247
42428SOL    HW229182  12.827  12.943   3.290
42429SOL     OW29183   0.983   9.570  13.639
42429SOL    HW129184   0.955   9.583  13.548
42429SOL    HW229185   0.992   9.475  13.648
42430SOL     OW29186  10.231   0.220   7.422
42430SOL    HW129187  10.178   0.149   7.460
42430SOL    HW229188  10.262   0.269   7.497
42431SOL     OW29189   6.242  12.113   2.446
42431SOL    HW129190   6.209  12.136   2.533
42431SOL    HW229191   6.337  12.113   2.456
42432SOL     OW29192   3.650  10.727   9.943
42432SOL    HW129193   3.560  10.740   9.914
42432SOL    HW229194   3.642  10.662  10.013
42433SOL     OW29195  12.624  10.334   4.268
42433SOL    HW129196  12.595  10.392   4.198
42433SOL    HW229197  12.683  10.272   4.225
42434SOL     OW29198  11.038   7.440  10.010
42434SOL    HW129199  11.056   7.480   9.925
42434SOL    HW229200  10.954   7.396   9.998
42435SOL     OW29201   9.707   8.987  12.587
42435SOL    HW129202   9.739   9.027  12.507
42435SOL    HW229203   9.766   9.018  12.656
42436SOL     OW29204   5.250   5.679   9.800
42436SOL    HW129205   5.330   5.694   9.851
42436SOL    HW229206   5.278   5.686   9.709
42437SOL     OW29207  10.219   4.629  12.641
42437SOL    HW129208  10.189   4.654  12.553
42437SOL    HW229209  10.190   4.701  12.697
42438SOL     OW29210   5.914   4.405   2.282
42438SOL    HW129211   5.922   4.433   2.191
42438SOL    HW229212   5.845   4.461   2.318
42439SOL     OW29213  14.321  10.172   3.810
42439SOL    HW129214  14.305  10.158   3.716
42439SOL    HW229215  14.263  10.245   3.833
42440SOL     OW29216  12.828   1.382   1.879
42440SOL    HW129217  12.762   1.440   1.917
42440SOL    HW229218  12.781   1.300   1.861
42441SOL     OW29219  11.979   4.360   9.883
42441SOL    HW129220  11.987   4.333   9.792
42441SOL    HW229221  12.063   4.399   9.905
42442SOL     OW29222   0.228   5.609   4.105
42442SOL    HW129223   0.191   5.593   4.192
42442SOL    HW229224   0.159   5.658   4.059
42443SOL     OW29225  13.918  12.636   6.980
42443SOL    HW129226  13.874  12.698   7.039
42443SOL    HW229227  13.849  12.606   6.921
42444SOL     OW29228   0.822   3.832   0.185
42444SOL    HW129229   0.882   3.761   0.163
42444SOL    HW229230   0.823   3.890   0.109
42445SOL     OW29231   0.662   3.811   4.077
42445SOL    HW129232   0.691   3.813   3.986
42445SOL    HW229233   0.572   3.844   4.075
42446SOL     OW29234  10.511  13.435  12.667
42446SOL    HW129235  10.458  13.358  12.687
42446SOL    HW229236  10.525  13.478  12.751
42447SOL     OW29237  10.204   3.209   8.866
42447SOL    HW129238  10.111   3.231   8.865
42447SOL    HW229239  10.212   3.134   8.807
42448SOL     OW29240   3.650  10.694  13.132
42448SOL    HW129241   3.573  10.654  13.171
42448SOL    HW229242   3.714  10.623  13.128
42449SOL     OW29243   1.560   2.283   5.833
42449SOL    HW129244   1.546   2.302   5.925
42449SOL    HW229245   1.479   2.311   5.790
42450SOL     OW29246   5.649   9.600  12.546
42450SOL    HW129247   5.687   9.615  12.460
42450SOL    HW229248   5.642   9.504  12.553
42451SOL     OW29249  13.514  14.049  13.282
42451SOL    HW129250  13.461  13.993  13.224
42451SOL    HW229251  13.602  14.044  13.245
42452SOL     OW29252  13.971  11.701  14.717
42452SOL    HW129253  13.884  11.725  14.683
42452SOL    HW229254  14.003  11.781  14.757
42453SOL     OW29255  10.801  10.177  10.474
42453SOL    HW129256  10.735  10.238  10.506
42453SOL    HW229257  10.842  10.143  10.554
42454SOL     OW29258   2.147  10.293   2.627
42454SOL    HW129259   2.143  10.342   2.545
42454SOL    HW229260   2.102  10.210   2.607
42455SOL     OW29261   0.009   8.643   4.022
42455SOL    HW129262   0.105   8.640   4.017
42455SOL    HW229263  14.862   8.724   4.067
42456SOL     OW29264  12.321   7.724   3.986
42456SOL    HW129265  12.362   7.752   4.068
42456SOL    HW229266  12.227   7.724   4.005
42457SOL     OW29267  13.587  12.120  11.325
42457SOL    HW129268  13.515  12.168  11.365
42457SOL    HW229269  13.611  12.054  11.389
42458SOL     OW29270   7.340   2.601  14.796
42458SOL    HW129271   7.306   2.528  14.848
42458SOL    HW229272   7.427   2.618  14.833
42459SOL     OW29273   1.152  14.788   6.197
42459SOL    HW129274   1.141  14.727   6.270
42459SOL    HW229275   1.202  14.740   6.132
42460SOL     OW29276   3.947   6.224   7.937
42460SOL    HW129277   3.871   6.283   7.939
42460SOL    HW229278   4.017   6.273   7.981
42461SOL     OW29279   3.102   1.268  13.009
42461SOL    HW129280   3.186   1.315  13.005
42461SOL    HW229281   3.050   1.317  13.073
42462SOL     OW29282   6.614   0.069  12.634
42462SOL    HW129283   6.565   0.110  12.706
42462SOL    HW229284   6.696   0.040  12.674
42463SOL     OW29285  11.405   4.110  11.014
42463SOL    HW129286  11.445   4.054  10.948
42463SOL    HW229287  11.314   4.081  11.018
42464SOL     OW29288  11.968   5.681   4.405
42464SOL    HW129289  11.876   5.708   4.411
42464SOL    HW229290  11.964   5.588   4.381
42465SOL     OW29291   7.140   1.507   3.769
42465SOL    HW129292   7.132   1.552   3.854
42465SOL    HW229293   7.079   1.553   3.712
42466SOL     OW29294   3.373  10.234   0.392
42466SOL    HW129295   3.356  10.218   0.299
42466SOL    HW229296   3.360  10.149   0.433
42467SOL     OW29297  13.728   1.758  13.479
42467SOL    HW129298  13.792   1.715  13.421
42467SOL    HW229299  13.749   1.725  13.567
42468SOL     OW29300   7.907   1.574  14.742
42468SOL    HW129301   7.900   1.597  14.649
42468SOL    HW229302   7.823   1.599  14.780
42469SOL     OW29303   2.281   1.044   1.847
42469SOL    HW129304   2.203   1.043   1.791
42469SOL    HW229305   2.248   1.067   1.934
42470SOL     OW29306   7.516   3.287   9.871
42470SOL    HW129307   7.531   3.335   9.790
42470SOL    HW229308   7.535   3.350   9.941
42471SOL     OW29309   0.906   6.642   4.202
42471SOL    HW129310   0.973   6.710   4.202
42471SOL    HW229311   0.905   6.611   4.293
42472SOL     OW29312   7.135   6.982  10.522
42472SOL    HW129313   7.051   7.019  10.495
42472SOL    HW229314   7.186   6.976  10.441
42473SOL     OW29315  10.032  10.421  13.036
42473SOL    HW129316   9.942  10.452  13.049
42473SOL    HW229317  10.029  10.376  12.952
42474SOL     OW29318   8.497   6.507   7.719
42474SOL    HW129319   8.425   6.568   7.732
42474SOL    HW229320   8.459   6.435   7.668
42475SOL     OW29321  13.998   6.571   0.628
42475SOL    HW129322  14.079   6.596   0.584
42475SOL    HW229323  14.015   6.587   0.721
42476SOL     OW29324   3.130   6.818   9.452
42476SOL    HW129325   3.090   6.891   9.499
42476SOL    HW229326   3.068   6.798   9.382
42477SOL     OW29327   8.218  12.957   6.543
42477SOL    HW129328   8.262  12.873   6.550
42477SOL    HW229329   8.272  13.008   6.482
42478SOL     OW29330   9.277   0.310  13.752
42478SOL    HW129331   9.322   0.362  13.685
42478SOL    HW229332   9.280   0.221  13.718
42479SOL     OW29333   4.421  10.699  12.747
42479SOL    HW129334   4.426  10.756  12.671
42479SOL    HW229335   4.459  10.616  12.718
42480SOL     OW29336  14.071  12.421   0.376
42480SOL    HW129337  14.153  12.402   0.330
42480SOL    HW229338  14.024  12.481   0.318
42481SOL     OW29339   5.358   5.839   3.050
42481SOL    HW129340   5.269   5.830   3.015
42481SOL    HW229341   5.415   5.818   2.976
42482SOL     OW29342   2.947  10.560   9.624
42482SOL    HW129343   2.999  10.514   9.689
42482SOL    HW229344   2.931  10.495   9.556
42483SOL     OW29345  12.906   3.079  11.677
42483SOL    HW129346  12.967   3.020  11.634
42483SOL    HW229347  12.883   3.144  11.611
42484SOL     OW29348  14.258   4.132  12.977
42484SOL    HW129349  14.184   4.125  13.038
42484SOL    HW229350  14.241   4.213  12.928
42485SOL     OW29351   0.343  10.151   2.220
42485SOL    HW129352   0.276  10.132   2.286
42485SOL    HW229353   0.402  10.075   2.224
42486SOL     OW29354   0.638   0.950   6.932
42486SOL    HW129355   0.617   0.860   6.909
42486SOL    HW229356   0.554   0.987   6.962
42487SOL     OW29357  12.794   4.879   0.689
42487SOL    HW129358  12.838   4.948   0.738
42487SOL    HW229359  12.852   4.860   0.616
42488SOL     OW29360   9.918   9.144   1.082
42488SOL    HW129361   9.881   9.157   0.995
42488SOL    HW229362   9.866   9.202   1.138
42489SOL     OW29363   2.477   3.258   4.596
42489SOL    HW129364   2.444   3.346   4.615
42489SOL    HW229365   2.559   3.272   4.550
42490SOL     OW29366  12.831  10.426   0.891
42490SOL    HW129367  12.897  10.474   0.942
42490SOL    HW229368  12.747  10.463   0.919
42491SOL     OW29369   5.314  10.461   6.614
42491SOL    HW129370   5.293  10.386   6.558
42491SOL    HW229371   5.364  10.519   6.557
42492SOL     OW29372   6.345   4.425   1.780
42492SOL    HW129373   6.269   4.407   1.836
42492SOL    HW229374   6.310   4.482   1.711
42493SOL     OW29375   0.902   1.320  13.903
42493SOL    HW129376   0.947   1.381  13.844
42493SOL    HW229377   0.916   1.356  13.990
42494SOL     OW29378  10.883   7.118  11.390
42494SOL    HW129379  10.946   7.078  11.450
42494SOL    HW229380  10.907   7.083  11.304
42495SOL     OW29381   5.527   2.013  11.327
42495SOL    HW129382   5.482   1.939  11.286
42495SOL    HW229383   5.595   2.038  11.264
42496SOL     OW29384   0.115   1.119   2.929
42496SOL    HW129385   0.115   1.207   2.892
42496SOL    HW229386   0.145   1.130   3.019
42497SOL     OW29387   8.144  10.459   6.207
42497SOL    HW129388   8.126  10.404   6.131
42497SOL    HW229389   8.063  10.507   6.222
42498SOL     OW29390   1.557   3.864   4.680
42498SOL    HW129391   1.568   3.769   4.685
42498SOL    HW229392   1.644   3.899   4.695
42499SOL     OW29393   8.925   0.434   4.724
42499SOL    HW129394   8.901   0.519   4.760
42499SOL    HW229395   9.012   0.448   4.685
42500SOL     OW29396   9.522   5.267   1.956
42500SOL    HW129397   9.604   5.240   1.914
42500SOL    HW229398   9.471   5.186   1.963
42501SOL     OW29399   4.439  13.029   1.458
42501SOL    HW129400   4.346  13.009   1.468
42501SOL    HW229401   4.472  12.960   1.399
42502SOL     OW29402   0.679   7.086  10.406
42502SOL    HW129403   0.626   7.022  10.357
42502SOL    HW229404   0.768   7.052  10.401
42503SOL     OW29405   8.609  11.983   7.914
42503SOL    HW129406   8.689  12.032   7.891
42503SOL    HW229407   8.588  11.934   7.834
42504SOL     OW29408  13.843  10.009   5.485
42504SOL    HW129409  13.889   9.990   5.403
42504SOL    HW229410  13.871   9.940   5.545
42505SOL     OW29411  11.433   6.590   0.258
42505SOL    HW129412  11.404   6.663   0.314
42505SOL    HW229413  11.360   6.528   0.260
42506SOL     OW29414   3.628   3.119   7.034
42506SOL    HW129415   3.536   3.111   7.010
42506SOL    HW229416   3.663   3.030   7.025
42507SOL     OW29417   1.845  11.599   6.980
42507SOL    HW129418   1.821  11.518   7.024
42507SOL    HW229419   1.762  11.642   6.960
42508SOL     OW29420   7.662   6.511   8.825
42508SOL    HW129421   7.681   6.427   8.867
42508SOL    HW229422   7.748   6.544   8.799
42509SOL     OW29423   0.779   3.374  11.952
42509SOL    HW129424   0.683   3.365  11.951
42509SOL    HW229425   0.794   3.465  11.977
42510SOL     OW29426   1.533   6.912  11.673
42510SOL    HW129427   1.532   6.840  11.736
42510SOL    HW229428   1.593   6.883  11.604
42511SOL     OW29429  12.023   7.879   9.132
42511SOL    HW129430  12.053   7.906   9.046
42511SOL    HW229431  12.082   7.808   9.157
42512SOL     OW29432  11.151   6.862   9.883
42512SOL    HW129433  11.210   6.898   9.949
42512SOL    HW229434  11.093   6.935   9.861
42513SOL     OW29435   6.718   8.963   1.685
42513SOL    HW129436   6.673   8.879   1.697
42513SOL    HW229437   6.732   8.970   1.591
42514SOL     OW29438   9.106  13.741   3.028
42514SOL    HW129439   9.085  13.647   3.021
42514SOL    HW229440   9.041  13.775   3.090
42515SOL     OW29441  12.841   9.217  13.792
42515SOL    HW129442  12.783   9.237  13.865
42515SOL    HW229443  12.822   9.284  13.727
42516SOL     OW29444   3.961   4.879   3.942
42516SOL    HW129445   4.048   4.840   3.943
42516SOL    HW229446   3.969   4.955   3.884
42517SOL     OW29447   0.919   1.337   6.856
42517SOL    HW129448   0.904   1.327   6.762
42517SOL    HW229449   0.865   1.270   6.896
42518SOL     OW29450  12.040  12.552   5.849
42518SOL    HW129451  12.071  12.522   5.935
42518SOL    HW229452  11.946  12.538   5.851
42519SOL     OW29453   5.265  11.505  11.738
42519SOL    HW129454   5.207  11.430  11.726
42519SOL    HW229455   5.206  11.578  11.755
42520SOL     OW29456   3.659   5.343   1.948
42520SOL    HW129457   3.608   5.421   1.924
42520SOL    HW229458   3.740   5.378   1.984
42521SOL     OW29459   9.901   3.531   1.975
42521SOL    HW129460   9.808   3.518   1.956
42521SOL    HW229461   9.946   3.463   1.924
42522SOL     OW29462   2.172   5.430   1.935
42522SOL    HW129463   2.086   5.466   1.913
42522SOL    HW229464   2.161   5.393   2.022
42523SOL     OW29465   9.529   3.185  10.517
42523SOL    HW129466   9.549   3.096  10.546
42523SOL    HW229467   9.589   3.240  10.566
42524SOL     OW29468   6.352   9.107   0.402
42524SOL    HW129469   6.319   9.090   0.314
42524SOL    HW229470   6.325   9.030   0.453
42525SOL     OW29471   1.138   1.554   8.857
42525SOL    HW129472   1.099   1.535   8.772
42525SOL    HW229473   1.224   1.592   8.837
42526SOL     OW29474   1.193  10.320  10.545
42526SOL    HW129475   1.247  10.304  10.469
42526SOL    HW229476   1.103  10.319  10.512
42527SOL     OW29477   5.280   5.045   1.277
42527SOL    HW129478   5.344   4.995   1.328
42527SOL    HW229479   5.331   5.085   1.207
42528SOL     OW29480   8.987  11.873   6.617
42528SOL    HW129481   9.027  11.787   6.605
42528SOL    HW229482   9.055  11.927   6.657
42529SOL     OW29483   8.904  11.863   0.550
42529SOL    HW129484   8.866  11.934   0.498
42529SOL    HW229485   8.830  11.822   0.594
42530SOL     OW29486   8.622  13.346   4.801
42530SOL    HW129487   8.625  13.255   4.832
42530SOL    HW229488   8.702  13.356   4.749
42531SOL     OW29489   0.932  12.027   5.046
42531SOL    HW129490   0.838  12.012   5.046
42531SOL    HW229491   0.942  12.120   5.025
42532SOL     OW29492   8.777  12.545   4.455
42532SOL    HW129493   8.853  12.528   4.512
42532SOL    HW229494   8.777  12.471   4.394
42533SOL     OW29495   4.437   7.148   3.934
42533SOL    HW129496   4.500   7.133   3.864
42533SOL    HW229497   4.482   7.208   3.993
42534SOL     OW29498   1.737   2.550   4.812
42534SOL    HW129499   1.673   2.590   4.753
42534SOL    HW229500   1.821   2.563   4.768
42535SOL     OW29501   0.824  13.098   0.819
42535SOL    HW129502   0.772  13.055   0.887
42535SOL    HW229503   0.841  13.029   0.755
42536SOL     OW29504   5.472  12.077   1.116
42536SOL    HW129505   5.484  11.992   1.073
42536SOL    HW229506   5.559  12.100   1.148
42537SOL     OW29507   9.820   9.012   8.531
42537SOL    HW129508   9.749   8.951   8.510
42537SOL    HW229509   9.880   8.961   8.585
42538SOL     OW29510   0.478  11.526   9.338
42538SOL    HW129511   0.421  11.586   9.385
42538SOL    HW229512   0.566  11.563   9.348
42539SOL     OW29513   6.911   7.957   4.280
42539SOL    HW129514   6.922   7.866   4.309
42539SOL    HW229515   6.998   7.984   4.252
42540SOL     OW29516   5.897  13.317  13.000
42540SOL    HW129517   5.959  13.382  12.968
42540SOL    HW229518   5.811  13.352  12.973
42541SOL     OW29519   1.218  12.886   7.281
42541SOL    HW129520   1.194  12.969   7.323
42541SOL    HW229521   1.137  12.852   7.246
42542SOL     OW29522   5.704  11.915  12.890
42542SOL    HW129523   5.732  11.861  12.964
42542SOL    HW229524   5.643  11.979  12.928
42543SOL     OW29525   2.487   4.355   4.110
42543SOL    HW129526   2.442   4.437   4.091
42543SOL    HW229527   2.485   4.347   4.206
42544SOL     OW29528  12.180  11.698   4.525
42544SOL    HW129529  12.148  11.770   4.471
42544SOL    HW229530  12.268  11.726   4.551
42545SOL     OW29531  12.261  11.941   8.783
42545SOL    HW129532  12.172  11.962   8.756
42545SOL    HW229533  12.267  11.846   8.774
42546SOL     OW29534   1.603   3.725   7.765
42546SOL    HW129535   1.554   3.735   7.847
42546SOL    HW229536   1.615   3.630   7.757
42547SOL     OW29537   3.793   5.007   0.914
42547SOL    HW129538   3.824   5.011   1.004
42547SOL    HW229539   3.707   4.965   0.920
42548SOL     OW29540  14.098   9.001   9.795
42548SOL    HW129541  14.058   8.923   9.832
42548SOL    HW229542  14.142   9.043   9.870
42549SOL     OW29543   1.090  11.462  11.602
42549SOL    HW129544   1.123  11.490  11.517
42549SOL    HW229545   1.005  11.421  11.582
42550SOL     OW29546   2.166  13.317   9.836
42550SOL    HW129547   2.249  13.365   9.831
42550SOL    HW229548   2.120  13.341   9.756
42551SOL     OW29549   0.514   9.342  13.826
42551SOL    HW129550   0.594   9.385  13.795
42551SOL    HW229551   0.541   9.252  13.845
42552SOL     OW29552  11.788   3.574   3.536
42552SOL    HW129553  11.856   3.613   3.481
42552SOL    HW229554  11.761   3.495   3.489
42553SOL     OW29555   8.976   2.075   1.777
42553SOL    HW129556   8.993   2.013   1.848
42553SOL    HW229557   8.928   2.146   1.819
42554SOL     OW29558   2.028  13.356   5.842
42554SOL    HW129559   2.056  13.447   5.836
42554SOL    HW229560   2.084  13.310   5.778
42555SOL     OW29561  13.023   0.434   5.296
42555SOL    HW129562  13.106   0.387   5.306
42555SOL    HW229563  12.971   0.377   5.239
42556SOL     OW29564  14.333  14.183   8.231
42556SOL    HW129565  14.394  14.147   8.167
42556SOL    HW229566  14.388  14.214   8.302
42557SOL     OW29567   3.906   9.007   2.301
42557SOL    HW129568   3.918   9.093   2.262
42557SOL    HW229569   3.993   8.968   2.301
42558SOL     OW29570   9.409   7.856  10.547
42558SOL    HW129571   9.432   7.765  10.528
42558SOL    HW229572   9.326   7.870  10.502
42559SOL     OW29573   7.618   4.903   1.271
42559SOL    HW129574   7.634   4.994   1.293
42559SOL    HW229575   7.702   4.871   1.237
42560SOL     OW29576   8.365   7.504   5.153
42560SOL    HW129577   8.396   7.570   5.092
42560SOL    HW229578   8.438   7.489   5.212
42561SOL     OW29579   5.827  13.585   7.920
42561SOL    HW129580   5.881  13.522   7.872
42561SOL    HW229581   5.824  13.662   7.864
42562SOL     OW29582   0.211   9.461   2.946
42562SOL    HW129583   0.246   9.446   2.858
42562SOL    HW229584   0.287   9.490   2.997
42563SOL     OW29585   9.370   2.850   6.303
42563SOL    HW129586   9.281   2.884   6.298
42563SOL    HW229587   9.392   2.825   6.213
42564SOL     OW29588   7.303   7.568   9.052
42564SOL    HW129589   7.302   7.648   9.000
42564SOL    HW229590   7.387   7.527   9.031
42565SOL     OW29591  11.870   7.665   1.699
42565SOL    HW129592  11.930   7.687   1.770
42565SOL    HW229593  11.881   7.735   1.635
42566SOL     OW29594  12.343   0.674   2.954
42566SOL    HW129595  12.413   0.708   2.900
42566SOL    HW229596  12.286   0.626   2.894
42567SOL     OW29597   5.162  12.065  13.693
42567SOL    HW129598   5.072  12.035  13.675
42567SOL    HW229599   5.189  12.109  13.612
42568SOL     OW29600  11.634   6.777  14.617
42568SOL    HW129601  11.572   6.728  14.564
42568SOL    HW229602  11.600   6.867  14.616
42569SOL     OW29603   2.817  14.855   2.225
42569SOL    HW129604   2.791   0.046   2.292
42569SOL    HW229605   2.760   0.002   2.150
42570SOL     OW29606   1.104  14.744   0.944
42570SOL    HW129607   1.149  14.804   0.885
42570SOL    HW229608   1.070  14.675   0.887
42571SOL     OW29609  10.431   5.638  13.541
42571SOL    HW129610  10.354   5.622  13.486
42571SOL    HW229611  10.395   5.678  13.621
42572SOL     OW29612   9.988   0.816   2.539
42572SOL    HW129613   9.937   0.756   2.485
42572SOL    HW229614  10.073   0.823   2.496
42573SOL     OW29615   2.724  12.035   2.633
42573SOL    HW129616   2.739  11.988   2.551
42573SOL    HW229617   2.631  12.023   2.651
42574SOL     OW29618   4.994   5.859  11.805
42574SOL    HW129619   5.031   5.933  11.755
42574SOL    HW229620   5.068   5.799  11.815
42575SOL     OW29621   7.507  13.213  11.601
42575SOL    HW129622   7.564  13.146  11.563
42575SOL    HW229623   7.423  13.202  11.556
42576SOL     OW29624   7.615  14.369   0.174
42576SOL    HW129625   7.612  14.347   0.267
42576SOL    HW229626   7.560  14.303   0.132
42577SOL     OW29627   2.457   4.485   5.369
42577SOL    HW129628   2.470   4.439   5.452
42577SOL    HW229629   2.441   4.416   5.305
42578SOL     OW29630   1.308  10.060  14.374
42578SOL    HW129631   1.289  10.148  14.342
42578SOL    HW229632   1.401  10.063  14.400
42579SOL     OW29633   5.248   6.049  13.472
42579SOL    HW129634   5.306   6.103  13.526
42579SOL    HW229635   5.286   5.962  13.477
42580SOL     OW29636   0.839   3.455   3.643
42580SOL    HW129637   0.902   3.474   3.712
42580SOL    HW229638   0.872   3.375   3.602
42581SOL     OW29639  13.546   9.160  12.961
42581SOL    HW129640  13.543   9.250  12.991
42581SOL    HW229641  13.487   9.158  12.885
42582SOL     OW29642   4.857  10.204   2.358
42582SOL    HW129643   4.769  10.237   2.377
42582SOL    HW229644   4.915  10.277   2.381
42583SOL     OW29645  10.238   1.608   7.572
42583SOL    HW129646  10.192   1.685   7.607
42583SOL    HW229647  10.329   1.620   7.600
42584SOL     OW29648   5.547  10.961   0.892
42584SOL    HW129649   5.478  10.903   0.925
42584SOL    HW229650   5.512  10.995   0.810
42585SOL     OW29651   5.722   4.686   6.552
42585SOL    HW129652   5.741   4.717   6.641
42585SOL    HW229653   5.773   4.744   6.495
42586SOL     OW29654   1.957   2.773   5.987
42586SOL    HW129655   1.881   2.717   6.006
42586SOL    HW229656   1.927   2.861   6.007
42587SOL     OW29657   6.119  14.169  10.319
42587SOL    HW129658   6.154  14.236  10.377
42587SOL    HW229659   6.025  14.170  10.336
42588SOL     OW29660  13.511   1.947  12.603
42588SOL    HW129661  13.571   1.876  12.581
42588SOL    HW229662  13.568   2.018  12.634
42589SOL     OW29663   9.178  12.833   6.611
42589SOL    HW129664   9.195  12.739   6.608
42589SOL    HW229665   9.088  12.840   6.643
42590SOL     OW29666  14.029   9.571   5.260
42590SOL    HW129667  14.122   9.546   5.257
42590SOL    HW229668  13.994   9.547   5.175
42591SOL     OW29669  13.791   1.206   3.831
42591SOL    HW129670  13.727   1.277   3.824
42591SOL    HW229671  13.867   1.237   3.781
42592SOL     OW29672   9.234   5.496  12.628
42592SOL    HW129673   9.141   5.519  12.634
42592SOL    HW229674   9.237   5.427  12.561
42593SOL     OW29675   7.921   3.929   5.993
42593SOL    HW129676   7.895   3.845   5.955
42593SOL    HW229677   7.840   3.965   6.029
42594SOL     OW29678   2.721  10.081   1.155
42594SOL    HW129679   2.632  10.112   1.167
42594SOL    HW229680   2.759  10.138   1.088
42595SOL     OW29681   9.182   8.421   0.352
42595SOL    HW129682   9.266   8.458   0.324
42595SOL    HW229683   9.176   8.338   0.305
42596SOL     OW29684   3.661  14.406   3.199
42596SOL    HW129685   3.676  14.377   3.289
42596SOL    HW229686   3.566  14.417   3.192
42597SOL     OW29687  14.668   1.585   6.576
42597SOL    HW129688  14.655   1.642   6.500
42597SOL    HW229689  14.591   1.599   6.630
42598SOL     OW29690  14.179   1.725   1.572
42598SOL    HW129691  14.144   1.640   1.600
42598SOL    HW229692  14.174   1.780   1.650
42599SOL     OW29693  14.856   6.179   2.871
42599SOL    HW129694  14.789   6.179   2.939
42599SOL    HW229695  14.818   6.232   2.801
42600SOL     OW29696   1.785   9.605   2.560
42600SOL    HW129697   1.813   9.624   2.471
42600SOL    HW229698   1.861   9.625   2.614
42601SOL     OW29699   9.268  14.288  11.152
42601SOL    HW129700   9.173  14.279  11.146
42601SOL    HW229701   9.302  14.241  11.076
42602SOL     OW29702   2.795  11.425  12.712
42602SOL    HW129703   2.848  11.452  12.787
42602SOL    HW229704   2.815  11.489  12.644
42603SOL     OW29705   6.393   3.437   3.066
42603SOL    HW129706   6.441   3.356   3.054
42603SOL    HW229707   6.330   3.438   2.993
42604SOL     OW29708   2.279   9.936   5.520
42604SOL    HW129709   2.256   9.884   5.596
42604SOL    HW229710   2.375   9.932   5.516
42605SOL     OW29711   6.380   8.118   2.212
42605SOL    HW129712   6.402   8.211   2.203
42605SOL    HW229713   6.389   8.101   2.306
42606SOL     OW29714   8.253   0.429  10.268
42606SOL    HW129715   8.240   0.352  10.324
42606SOL    HW229716   8.208   0.500  10.314
42607SOL     OW29717   7.156   9.886  13.084
42607SOL    HW129718   7.169   9.938  13.004
42607SOL    HW229719   7.237   9.835  13.092
42608SOL     OW29720   2.725   7.371  11.237
42608SOL    HW129721   2.661   7.420  11.290
42608SOL    HW229722   2.747   7.430  11.165
42609SOL     OW29723   4.071   6.826  12.706
42609SOL    HW129724   4.128   6.791  12.637
42609SOL    HW229725   4.102   6.915  12.720
42610SOL     OW29726   3.532   3.898   5.152
42610SOL    HW129727   3.519   3.822   5.209
42610SOL    HW229728   3.607   3.874   5.098
42611SOL     OW29729   4.386  14.775   0.988
42611SOL    HW129730   4.463  14.718   0.988
42611SOL    HW229731   4.312  14.717   0.970
42612SOL     OW29732   3.538  14.453   0.238
42612SOL    HW129733   3.471  14.508   0.279
42612SOL    HW229734   3.576  14.404   0.311
42613SOL     OW29735  11.182  13.072   0.770
42613SOL    HW129736  11.277  13.072   0.782
42613SOL    HW229737  11.152  12.996   0.819
42614SOL     OW29738   4.081   3.857  14.269
42614SOL    HW129739   4.088   3.892  14.180
42614SOL    HW229740   4.031   3.924  14.317
42615SOL     OW29741   0.133   4.145   3.836
42615SOL    HW129742   0.046   4.110   3.854
42615SOL    HW229743   0.154   4.197   3.913
42616SOL     OW29744   3.231  14.781   8.034
42616SOL    HW129745   3.255  14.818   8.119
42616SOL    HW229746   3.274  14.696   8.032
42617SOL     OW29747   0.209  13.089  14.185
42617SOL    HW129748   0.261  13.155  14.139
42617SOL    HW229749   0.150  13.053  14.118
42618SOL     OW29750  14.694  13.666   4.917
42618SOL    HW129751  14.642  13.627   4.847
42618SOL    HW229752  14.680  13.609   4.993
42619SOL     OW29753  10.401  14.473  12.757
42619SOL    HW129754  10.482  14.442  12.717
42619SOL    HW229755  10.405  14.440  12.847
42620SOL     OW29756   3.690   4.629   7.049
42620SOL    HW129757   3.662   4.570   6.979
42620SOL    HW229758   3.620   4.623   7.114
42621SOL     OW29759  10.025   8.865  14.463
42621SOL    HW129760  10.098   8.824  14.416
42621SOL    HW229761   9.951   8.856  14.404
42622SOL     OW29762   8.187  12.439   7.381
42622SOL    HW129763   8.278  12.448   7.410
42622SOL    HW229764   8.164  12.526   7.347
42623SOL     OW29765   7.769   6.189   3.141
42623SOL    HW129766   7.753   6.281   3.123
42623SOL    HW229767   7.818   6.158   3.064
42624SOL     OW29768  11.425  11.103   9.201
42624SOL    HW129769  11.453  11.188   9.236
42624SOL    HW229770  11.485  11.085   9.129
42625SOL     OW29771  11.836   5.615  10.798
42625SOL    HW129772  11.848   5.581  10.886
42625SOL    HW229773  11.900   5.567  10.745
42626SOL     OW29774   8.258  11.764   8.438
42626SOL    HW129775   8.328  11.765   8.372
42626SOL    HW229776   8.287  11.826   8.505
42627SOL     OW29777   4.845  12.693  10.222
42627SOL    HW129778   4.815  12.735  10.141
42627SOL    HW229779   4.940  12.702  10.220
42628SOL     OW29780   6.477   0.142   5.730
42628SOL    HW129781   6.557   0.109   5.689
42628SOL    HW229782   6.508   0.193   5.805
42629SOL     OW29783   1.960   2.089   7.438
42629SOL    HW129784   1.873   2.102   7.474
42629SOL    HW229785   1.967   1.994   7.425
42630SOL     OW29786  10.184   9.465   5.467
42630SOL    HW129787  10.208   9.535   5.407
42630SOL    HW229788  10.225   9.387   5.429
42631SOL     OW29789   9.817   8.414   1.551
42631SOL    HW129790   9.875   8.461   1.491
42631SOL    HW229791   9.803   8.329   1.510
42632SOL     OW29792   3.400   3.019  12.732
42632SOL    HW129793   3.355   2.991  12.653
42632SOL    HW229794   3.341   3.082  12.773
42633SOL     OW29795  12.278  13.510  14.294
42633SOL    HW129796  12.220  13.578  14.259
42633SOL    HW229797  12.308  13.544  14.378
42634SOL     OW29798   9.857  14.757  14.496
42634SOL    HW129799   9.765  14.732  14.503
42634SOL    HW229800   9.858  14.850  14.521
42635SOL     OW29801  14.153   0.117   5.356
42635SOL    HW129802  14.175   0.191   5.300
42635SOL    HW229803  14.169   0.040   5.301
42636SOL     OW29804  10.049   3.750   8.951
42636SOL    HW129805   9.968   3.800   8.935
42636SOL    HW229806  10.027   3.691   9.023
42637SOL     OW29807   1.882  12.405   7.064
42637SOL    HW129808   1.879  12.490   7.019
42637SOL    HW229809   1.952  12.357   7.020
42638SOL     OW29810  10.639   1.379  10.517
42638SOL    HW129811  10.692   1.412  10.444
42638SOL    HW229812  10.643   1.448  10.583
42639SOL     OW29813   7.708  14.167   1.737
42639SOL    HW129814   7.701  14.251   1.693
42639SOL    HW229815   7.629  14.160   1.790
42640SOL     OW29816   8.516   5.470  13.645
42640SOL    HW129817   8.529   5.501  13.556
42640SOL    HW229818   8.428   5.498  13.668
42641SOL     OW29819  13.695  13.501   6.719
42641SOL    HW129820  13.716  13.408   6.731
42641SOL    HW229821  13.767  13.548   6.762
42642SOL     OW29822   8.674  12.989   5.593
42642SOL    HW129823   8.747  12.928   5.585
42642SOL    HW229824   8.667  13.029   5.506
42643SOL     OW29825  10.871  10.741   6.578
42643SOL    HW129826  10.913  10.658   6.559
42643SOL    HW229827  10.922  10.806   6.528
42644SOL     OW29828  13.258  11.620  11.379
42644SOL    HW129829  13.301  11.662  11.454
42644SOL    HW229830  13.301  11.535  11.371
42645SOL     OW29831   7.991  13.416  11.113
42645SOL    HW129832   7.953  13.447  11.031
42645SOL    HW229833   8.055  13.484  11.137
42646SOL     OW29834   0.472   4.336   7.831
42646SOL    HW129835   0.526   4.394   7.777
42646SOL    HW229836   0.409   4.394   7.873
42647SOL     OW29837   8.950   8.952  12.646
42647SOL    HW129838   8.963   9.042  12.675
42647SOL    HW229839   8.879   8.957  12.582
42648SOL     OW29840   6.525  11.447   7.119
42648SOL    HW129841   6.467  11.374   7.101
42648SOL    HW229842   6.559  11.473   7.033
42649SOL     OW29843   3.903   8.105  10.655
42649SOL    HW129844   3.957   8.083  10.731
42649SOL    HW229845   3.822   8.140  10.692
42650SOL     OW29846  13.662  10.585  12.191
42650SOL    HW129847  13.645  10.653  12.126
42650SOL    HW229848  13.576  10.564  12.227
42651SOL     OW29849   8.071  14.465   1.153
42651SOL    HW129850   8.071  14.525   1.079
42651SOL    HW229851   7.986  14.477   1.194
42652SOL     OW29852  12.122  10.654  13.163
42652SOL    HW129853  12.121  10.736  13.213
42652SOL    HW229854  12.062  10.670  13.090
42653SOL     OW29855  12.975   0.441  10.890
42653SOL    HW129856  13.047   0.388  10.925
42653SOL    HW229857  13.018   0.502  10.830
42654SOL     OW29858  11.688   3.872  14.433
42654SOL    HW129859  11.765   3.842  14.386
42654SOL    HW229860  11.621   3.883  14.366
42655SOL     OW29861  11.852   1.308  12.095
42655SOL    HW129862  11.756   1.302  12.094
42655SOL    HW229863  11.870   1.395  12.132
42656SOL     OW29864  12.592   9.743   5.043
42656SOL    HW129865  12.538   9.813   5.006
42656SOL    HW229866  12.607   9.770   5.134
42657SOL     OW29867   0.415   5.785  13.860
42657SOL    HW129868   0.390   5.855  13.800
42657SOL    HW229869   0.502   5.757  13.831
42658SOL     OW29870   7.352   9.250  10.156
42658SOL    HW129871   7.329   9.256  10.064
42658SOL    HW229872   7.447   9.265  10.158
42659SOL     OW29873  10.265   9.096   2.585
42659SOL    HW129874  10.248   9.068   2.675
42659SOL    HW229875  10.288   9.189   2.593
42660SOL     OW29876   3.029  10.161   9.766
42660SOL    HW129877   3.030  10.068   9.745
42660SOL    HW229878   3.012  10.165   9.860
42661SOL     OW29879  11.342  14.628  11.942
42661SOL    HW129880  11.432  14.599  11.927
42661SOL    HW229881  11.310  14.571  12.012
42662SOL     OW29882  13.676  11.451   7.018
42662SOL    HW129883  13.663  11.514   6.948
42662SOL    HW229884  13.718  11.376   6.976
42663SOL     OW29885  11.727   0.693   5.229
42663SOL    HW129886  11.690   0.753   5.164
42663SOL    HW229887  11.655   0.674   5.289
42664SOL     OW29888   7.480  10.812   7.555
42664SOL    HW129889   7.424  10.887   7.537
42664SOL    HW229890   7.487  10.809   7.650
42665SOL     OW29891   9.176  14.845   4.973
42665SOL    HW129892   9.081  14.836   4.963
42665SOL    HW229893   9.209  14.850   4.884
42666SOL     OW29894  11.680  12.092   3.900
42666SOL    HW129895  11.748  12.065   3.961
42666SOL    HW229896  11.654  12.011   3.856
42667SOL     OW29897   9.651  12.409   8.523
42667SOL    HW129898   9.590  12.369   8.461
42667SOL    HW229899   9.686  12.485   8.477
42668SOL     OW29900   0.900   8.620  10.700
42668SOL    HW129901   0.824   8.575  10.737
42668SOL    HW229902   0.974   8.589  10.751
42669SOL     OW29903   2.986   2.707   6.008
42669SOL    HW129904   3.054   2.767   6.037
42669SOL    HW229905   2.992   2.708   5.913
42670SOL     OW29906  11.493   1.031  13.210
42670SOL    HW129907  11.416   0.981  13.238
42670SOL    HW229908  11.504   1.009  13.118
42671SOL     OW29909  11.425  13.063   3.958
42671SOL    HW129910  11.412  13.015   4.040
42671SOL    HW229911  11.511  13.104   3.968
42672SOL     OW29912   5.480   1.892  12.581
42672SOL    HW129913   5.507   1.803  12.560
42672SOL    HW229914   5.524   1.947  12.516
42673SOL     OW29915  12.074   7.264   1.730
42673SOL    HW129916  12.047   7.338   1.676
42673SOL    HW229917  12.166   7.251   1.709
42674SOL     OW29918  14.524   9.787   6.915
42674SOL    HW129919  14.569   9.797   6.999
42674SOL    HW229920  14.584   9.825   6.851
42675SOL     OW29921  13.047   2.681  12.005
42675SOL    HW129922  13.067   2.771  12.031
42675SOL    HW229923  12.964   2.687  11.959
42676SOL     OW29924  13.242   8.199   6.829
42676SOL    HW129925  13.182   8.246   6.887
42676SOL    HW229926  13.296   8.268   6.790
42677SOL     OW29927  12.968  12.184   5.879
42677SOL    HW129928  13.004  12.270   5.857
42677SOL    HW229929  12.874  12.199   5.886
42678SOL     OW29930   0.659  11.706   8.632
42678SOL    HW129931   0.707  11.633   8.593
42678SOL    HW229932   0.591  11.728   8.568
42679SOL     OW29933   4.239   4.779   4.441
42679SOL    HW129934   4.227   4.736   4.525
42679SOL    HW229935   4.305   4.846   4.457
42680SOL     OW29936  10.750   4.137   9.898
42680SOL    HW129937  10.807   4.199   9.945
42680SOL    HW229938  10.796   4.053   9.903
42681SOL     OW29939   1.023   2.752  14.513
42681SOL    HW129940   0.979   2.668  14.524
42681SOL    HW229941   1.101   2.746  14.568
42682SOL     OW29942  13.643  10.741   2.390
42682SOL    HW129943  13.606  10.827   2.407
42682SOL    HW229944  13.730  10.757   2.356
42683SOL     OW29945   2.633   1.040   7.131
42683SOL    HW129946   2.709   1.098   7.129
42683SOL    HW229947   2.591   1.052   7.045
42684SOL     OW29948  14.737   6.159   3.281
42684SOL    HW129949  14.663   6.099   3.267
42684SOL    HW229950  14.705   6.221   3.347
42685SOL     OW29951   8.661  11.928   4.194
42685SOL    HW129952   8.613  11.947   4.274
42685SOL    HW229953   8.677  12.013   4.154
42686SOL     OW29954   8.615   8.973   1.012
42686SOL    HW129955   8.616   8.929   1.097
42686SOL    HW229956   8.664   9.054   1.026
42687SOL     OW29957   2.290  10.621   3.417
42687SOL    HW129958   2.283  10.535   3.377
42687SOL    HW229959   2.383  10.640   3.419
42688SOL     OW29960   0.609   8.915   1.393
42688SOL    HW129961   0.656   8.896   1.475
42688SOL    HW229962   0.522   8.943   1.421
42689SOL     OW29963  12.606   5.825   2.583
42689SOL    HW129964  12.571   5.738   2.569
42689SOL    HW229965  12.645   5.822   2.671
42690SOL     OW29966   9.787   7.714   0.738
42690SOL    HW129967   9.828   7.674   0.661
42690SOL    HW229968   9.706   7.664   0.750
42691SOL     OW29969   6.449   3.722   6.090
42691SOL    HW129970   6.429   3.816   6.091
42691SOL    HW229971   6.534   3.716   6.046
42692SOL     OW29972   2.090   6.535   7.752
42692SOL    HW129973   2.139   6.617   7.753
42692SOL    HW229974   2.152   6.470   7.718
42693SOL     OW29975   1.943   4.487  11.369
42693SOL    HW129976   2.013   4.533  11.415
42693SOL    HW229977   1.987   4.416  11.323
42694SOL     OW29978   2.569   1.296  12.644
42694SOL    HW129979   2.592   1.204  12.630
42694SOL    HW229980   2.652   1.343  12.639
42695SOL     OW29981   9.024  12.096   3.336
42695SOL    HW129982   8.983  12.068   3.418
42695SOL    HW229983   9.007  12.025   3.275
42696SOL     OW29984  10.060  10.809  13.182
42696SOL    HW129985  10.081  10.890  13.135
42696SOL    HW229986  10.073  10.830  13.274
42697SOL     OW29987  13.359   6.483  13.815
42697SOL    HW129988  13.417   6.550  13.852
42697SOL    HW229989  13.412   6.439  13.750
42698SOL     OW29990   4.808   4.479  10.090
42698SOL    HW129991   4.778   4.404  10.038
42698SOL    HW229992   4.779   4.460  10.179
42699SOL     OW29993  11.165   1.393  11.872
42699SOL    HW129994  11.209   1.469  11.832
42699SOL    HW229995  11.237   1.339  11.905
42700SOL     OW29996  11.512   7.502  10.440
42700SOL    HW129997  11.512   7.422  10.492
42700SOL    HW229998  11.503   7.573  10.503
42701SOL     OW29999   4.876   7.555   8.406
42701SOL    HW130000   4.963   7.550   8.446
42701SOL    HW230001   4.854   7.464   8.384
42702SOL     OW30002   3.291  12.341   7.424
42702SOL    HW130003   3.290  12.417   7.481
42702SOL    HW230004   3.275  12.267   7.482
42703SOL     OW30005  13.833   1.181  12.051
42703SOL    HW130006  13.887   1.237  12.107
42703SOL    HW230007  13.895   1.136  11.994
42704SOL     OW30008  10.318  11.747  12.029
42704SOL    HW130009  10.403  11.706  12.013
42704SOL    HW230010  10.254  11.686  11.994
42705SOL     OW30011   2.992   1.721   6.511
42705SOL    HW130012   3.070   1.774   6.525
42705SOL    HW230013   3.021   1.631   6.526
42706SOL     OW30014   5.271   1.994  10.747
42706SOL    HW130015   5.360   1.963  10.734
42706SOL    HW230016   5.238   1.944  10.822
42707SOL     OW30017  14.441   0.031   2.098
42707SOL    HW130018  14.449  14.846   2.174
42707SOL    HW230019  14.417  14.844   2.027
42708SOL     OW30020   9.538  14.228  10.123
42708SOL    HW130021   9.523  14.144  10.166
42708SOL    HW230022   9.572  14.205  10.036
42709SOL     OW30023  11.860  10.068  14.522
42709SOL    HW130024  11.893  10.027  14.602
42709SOL    HW230025  11.939  10.087  14.471
42710SOL     OW30026   5.509   4.174   1.813
42710SOL    HW130027   5.421   4.210   1.821
42710SOL    HW230028   5.496   4.080   1.806
42711SOL     OW30029  11.933   5.060   0.362
42711SOL    HW130030  12.011   5.080   0.310
42711SOL    HW230031  11.964   5.062   0.453
42712SOL     OW30032  11.109   6.801   8.918
42712SOL    HW130033  11.158   6.814   8.837
42712SOL    HW230034  11.164   6.840   8.986
42713SOL     OW30035  10.415   3.072   5.793
42713SOL    HW130036  10.463   3.002   5.838
42713SOL    HW230037  10.415   3.046   5.701
42714SOL     OW30038  12.472   2.659   7.210
42714SOL    HW130039  12.515   2.625   7.289
42714SOL    HW230040  12.384   2.623   7.214
42715SOL     OW30041   6.865   0.274  14.638
42715SOL    HW130042   6.882   0.209  14.570
42715SOL    HW230043   6.786   0.243  14.682
42716SOL     OW30044   4.693   0.244   2.627
42716SOL    HW130045   4.776   0.287   2.607
42716SOL    HW230046   4.676   0.190   2.550
42717SOL     OW30047  14.826   6.689   0.496
42717SOL    HW130048   0.017   6.637   0.545
42717SOL    HW230049  14.783   6.744   0.563
42718SOL     OW30050  13.501   7.970   4.158
42718SOL    HW130051  13.526   7.899   4.217
42718SOL    HW230052  13.426   8.010   4.202
42719SOL     OW30053  12.836   2.197   3.500
42719SOL    HW130054  12.764   2.140   3.474
42719SOL    HW230055  12.870   2.157   3.581
42720SOL     OW30056  11.752   2.899   9.755
42720SOL    HW130057  11.659   2.890   9.774
42720SOL    HW230058  11.777   2.815   9.717
42721SOL     OW30059   6.146   5.708   5.759
42721SOL    HW130060   6.236   5.733   5.780
42721SOL    HW230061   6.108   5.786   5.718
42722SOL     OW30062  11.781   1.974   3.738
42722SOL    HW130063  11.717   1.938   3.677
42722SOL    HW230064  11.744   1.957   3.825
42723SOL     OW30065   8.285  12.374  11.467
42723SOL    HW130066   8.360  12.320  11.445
42723SOL    HW230067   8.210  12.327  11.431
42724SOL     OW30068  12.354   6.530  11.559
42724SOL    HW130069  12.284   6.578  11.604
42724SOL    HW230070  12.421   6.596  11.541
42725SOL     OW30071   4.179   9.540   0.062
42725SOL    HW130072   4.137   9.610   0.012
42725SOL    HW230073   4.265   9.530   0.021
42726SOL     OW30074   0.878   0.219   9.746
42726SOL    HW130075   0.964   0.188   9.717
42726SOL    HW230076   0.815   0.165   9.698
42727SOL     OW30077   2.072   2.011  10.831
42727SOL    HW130078   2.138   2.051  10.887
42727SOL    HW230079   2.038   1.937  10.881
42728SOL     OW30080   5.109   5.917  11.137
42728SOL    HW130081   5.034   5.962  11.099
42728SOL    HW230082   5.171   5.986  11.158
42729SOL     OW30083   5.699   6.871  12.716
42729SOL    HW130084   5.641   6.816  12.664
42729SOL    HW230085   5.765   6.902  12.654
42730SOL     OW30086  13.785  11.137   1.166
42730SOL    HW130087  13.738  11.062   1.130
42730SOL    HW230088  13.792  11.120   1.260
42731SOL     OW30089   9.355  10.836   2.957
42731SOL    HW130090   9.323  10.817   2.869
42731SOL    HW230091   9.290  10.895   2.994
42732SOL     OW30092   1.965  14.656  13.836
42732SOL    HW130093   2.001  14.629  13.752
42732SOL    HW230094   2.034  14.635  13.899
42733SOL     OW30095   9.054  14.169  12.603
42733SOL    HW130096   9.091  14.211  12.524
42733SOL    HW230097   9.056  14.238  12.669
42734SOL     OW30098   7.768  12.971  10.182
42734SOL    HW130099   7.761  12.914  10.106
42734SOL    HW230100   7.835  13.035  10.157
42735SOL     OW30101  12.259  13.087  10.752
42735SOL    HW130102  12.246  13.155  10.687
42735SOL    HW230103  12.335  13.116  10.803
42736SOL     OW30104   7.402  12.411   4.115
42736SOL    HW130105   7.407  12.476   4.184
42736SOL    HW230106   7.492  12.381   4.103
42737SOL     OW30107  13.829   9.801   2.784
42737SOL    HW130108  13.865   9.717   2.756
42737SOL    HW230109  13.742   9.780   2.818
42738SOL     OW30110  12.714  11.695   6.656
42738SOL    HW130111  12.656  11.631   6.698
42738SOL    HW230112  12.713  11.670   6.563
42739SOL     OW30113   8.555   1.058  14.102
42739SOL    HW130114   8.608   1.055  14.022
42739SOL    HW230115   8.531   0.967  14.118
42740SOL     OW30116   9.334   0.357   6.331
42740SOL    HW130117   9.252   0.319   6.300
42740SOL    HW230118   9.368   0.292   6.394
42741SOL     OW30119  10.875  11.036  11.114
42741SOL    HW130120  10.907  11.028  11.024
42741SOL    HW230121  10.954  11.041  11.168
42742SOL     OW30122   6.582  11.267  12.150
42742SOL    HW130123   6.644  11.204  12.187
42742SOL    HW230124   6.583  11.251  12.056
42743SOL     OW30125   7.724   9.146   3.450
42743SOL    HW130126   7.747   9.069   3.501
42743SOL    HW230127   7.632   9.133   3.426
42744SOL     OW30128   4.693   4.517   2.899
42744SOL    HW130129   4.610   4.518   2.850
42744SOL    HW230130   4.722   4.426   2.894
42745SOL     OW30131   6.881  13.229   8.086
42745SOL    HW130132   6.824  13.177   8.030
42745SOL    HW230133   6.821  13.281   8.140
42746SOL     OW30134  11.062   8.779   2.513
42746SOL    HW130135  11.028   8.770   2.424
42746SOL    HW230136  11.094   8.692   2.536
42747SOL     OW30137  11.244  11.806  12.174
42747SOL    HW130138  11.339  11.792  12.179
42747SOL    HW230139  11.226  11.815  12.080
42748SOL     OW30140  11.266   6.787  10.921
42748SOL    HW130141  11.334   6.719  10.929
42748SOL    HW230142  11.191   6.751  10.967
42749SOL     OW30143   2.225   8.586   8.275
42749SOL    HW130144   2.317   8.584   8.300
42749SOL    HW230145   2.182   8.529   8.338
42750SOL     OW30146   7.148   9.580   0.522
42750SOL    HW130147   7.122   9.501   0.474
42750SOL    HW230148   7.164   9.549   0.611
42751SOL     OW30149   4.806  12.843   4.792
42751SOL    HW130150   4.723  12.803   4.765
42751SOL    HW230151   4.839  12.786   4.861
42752SOL     OW30152  13.108   2.510  13.537
42752SOL    HW130153  13.091   2.595  13.577
42752SOL    HW230154  13.076   2.520  13.447
42753SOL     OW30155   3.069   8.581   3.873
42753SOL    HW130156   3.026   8.495   3.879
42753SOL    HW230157   3.029   8.622   3.796
42754SOL     OW30158   4.362   1.096   2.601
42754SOL    HW130159   4.283   1.122   2.648
42754SOL    HW230160   4.389   1.174   2.554
42755SOL     OW30161   0.341  11.731   6.864
42755SOL    HW130162   0.300  11.696   6.785
42755SOL    HW230163   0.303  11.819   6.873
42756SOL     OW30164   4.670   3.352   3.783
42756SOL    HW130165   4.580   3.330   3.758
42756SOL    HW230166   4.661   3.432   3.834
42757SOL     OW30167   5.008  10.891   3.534
42757SOL    HW130168   4.985  10.937   3.453
42757SOL    HW230169   5.036  10.960   3.594
42758SOL     OW30170   3.235   1.022  10.504
42758SOL    HW130171   3.190   1.048  10.584
42758SOL    HW230172   3.172   0.967  10.457
42759SOL     OW30173   8.503   6.422   7.062
42759SOL    HW130174   8.421   6.470   7.057
42759SOL    HW230175   8.539   6.443   7.148
42760SOL     OW30176   1.941   9.838  10.320
42760SOL    HW130177   2.011   9.775  10.339
42760SOL    HW230178   1.919   9.875  10.406
42761SOL     OW30179   9.844   3.286   1.711
42761SOL    HW130180   9.759   3.266   1.751
42761SOL    HW230181   9.880   3.201   1.686
42762SOL     OW30182   2.089  12.623  13.237
42762SOL    HW130183   2.176  12.586  13.253
42762SOL    HW230184   2.059  12.579  13.157
42763SOL     OW30185  12.042   2.060   8.494
42763SOL    HW130186  12.099   1.982   8.489
42763SOL    HW230187  11.959   2.031   8.457
42764SOL     OW30188   5.333   6.529  14.077
42764SOL    HW130189   5.394   6.545  14.149
42764SOL    HW230190   5.330   6.433  14.070
42765SOL     OW30191  10.367   0.816   7.198
42765SOL    HW130192  10.303   0.792   7.265
42765SOL    HW230193  10.314   0.842   7.122
42766SOL     OW30194   0.190   6.787   0.319
42766SOL    HW130195   0.194   6.765   0.226
42766SOL    HW230196   0.134   6.719   0.357
42767SOL     OW30197   1.055   6.993  10.448
42767SOL    HW130198   0.997   6.971  10.521
42767SOL    HW230199   1.106   7.067  10.479
42768SOL     OW30200   3.229   2.525  13.548
42768SOL    HW130201   3.272   2.533  13.463
42768SOL    HW230202   3.256   2.439  13.581
42769SOL     OW30203  10.544  12.792   9.292
42769SOL    HW130204  10.634  12.810   9.319
42769SOL    HW230205  10.521  12.711   9.337
42770SOL     OW30206  14.428   5.293   0.206
42770SOL    HW130207  14.473   5.361   0.157
42770SOL    HW230208  14.341   5.288   0.167
42771SOL     OW30209   0.707   0.668  10.303
42771SOL    HW130210   0.792   0.653  10.343
42771SOL    HW230211   0.725   0.727  10.229
42772SOL     OW30212   6.409  10.796  13.374
42772SOL    HW130213   6.413  10.752  13.459
42772SOL    HW230214   6.463  10.875  13.385
42773SOL     OW30215  10.871   5.302  11.841
42773SOL    HW130216  10.940   5.366  11.856
42773SOL    HW230217  10.913   5.217  11.854
42774SOL     OW30218  13.287  12.679   6.564
42774SOL    HW130219  13.377  12.677   6.595
42774SOL    HW230220  13.294  12.703   6.471
42775SOL     OW30221   4.834   1.561   6.945
42775SOL    HW130222   4.799   1.606   6.868
42775SOL    HW230223   4.917   1.605   6.963
42776SOL     OW30224   7.681  11.511   7.173
42776SOL    HW130225   7.701  11.594   7.217
42776SOL    HW230226   7.750  11.503   7.106
42777SOL     OW30227   7.647   7.749  13.684
42777SOL    HW130228   7.675   7.711  13.600
42777SOL    HW230229   7.717   7.726  13.745
42778SOL     OW30230  10.728   4.639  14.264
42778SOL    HW130231  10.650   4.672  14.307
42778SOL    HW230232  10.710   4.545  14.251
42779SOL     OW30233   5.117   3.151   6.764
42779SOL    HW130234   5.145   3.060   6.763
42779SOL    HW230235   5.165   3.191   6.837
42780SOL     OW30236   5.784  10.348  14.088
42780SOL    HW130237   5.721  10.364  14.018
42780SOL    HW230238   5.731  10.315  14.161
42781SOL     OW30239   6.463   6.766   4.433
42781SOL    HW130240   6.371   6.740   4.437
42781SOL    HW230241   6.472   6.835   4.499
42782SOL     OW30242   7.969   1.458   2.378
42782SOL    HW130243   8.057   1.420   2.382
42782SOL    HW230244   7.981   1.549   2.405
42783SOL     OW30245   8.502   6.634   8.180
42783SOL    HW130246   8.548   6.553   8.160
42783SOL    HW230247   8.449   6.652   8.101
42784SOL     OW30248  10.704   3.552   1.424
42784SOL    HW130249  10.721   3.647   1.429
42784SOL    HW230250  10.724   3.521   1.512
42785SOL     OW30251   3.886   3.583   9.337
42785SOL    HW130252   3.884   3.628   9.252
42785SOL    HW230253   3.829   3.637   9.393
42786SOL     OW30254  12.284   9.223   7.301
42786SOL    HW130255  12.270   9.163   7.374
42786SOL    HW230256  12.294   9.166   7.225
42787SOL     OW30257  10.093   0.935   9.250
42787SOL    HW130258  10.045   1.015   9.227
42787SOL    HW230259  10.176   0.967   9.287
42788SOL     OW30260   3.723   4.530   7.414
42788SOL    HW130261   3.656   4.598   7.417
42788SOL    HW230262   3.674   4.448   7.416
42789SOL     OW30263  13.908  13.957  14.729
42789SOL    HW130264  13.861  13.880  14.699
42789SOL    HW230265  13.840  14.023  14.743
42790SOL     OW30266  13.117   8.202   8.398
42790SOL    HW130267  13.057   8.247   8.458
42790SOL    HW230268  13.121   8.112   8.431
42791SOL     OW30269   7.610   5.147   8.660
42791SOL    HW130270   7.548   5.115   8.726
42791SOL    HW230271   7.570   5.227   8.626
42792SOL     OW30272   1.496   9.124   9.921
42792SOL    HW130273   1.463   9.111  10.010
42792SOL    HW230274   1.526   9.215   9.920
42793SOL     OW30275  14.770   1.019  14.833
42793SOL    HW130276  14.721   0.939  14.852
42793SOL    HW230277  14.762   1.030  14.739
42794SOL     OW30278   2.870   5.660   3.059
42794SOL    HW130279   2.966   5.659   3.066
42794SOL    HW230280   2.849   5.747   3.025
42795SOL     OW30281  11.728  11.837   3.260
42795SOL    HW130282  11.672  11.799   3.327
42795SOL    HW230283  11.729  11.931   3.279
42796SOL     OW30284  12.809   9.986   1.436
42796SOL    HW130285  12.750  10.060   1.419
42796SOL    HW230286  12.822   9.987   1.531
42797SOL     OW30287   5.002   8.927   2.051
42797SOL    HW130288   5.058   8.915   1.974
42797SOL    HW230289   5.008   8.845   2.099
42798SOL     OW30290   9.149   5.684   5.560
42798SOL    HW130291   9.169   5.697   5.653
42798SOL    HW230292   9.158   5.771   5.522
42799SOL     OW30293   2.057   7.582   0.326
42799SOL    HW130294   1.984   7.567   0.266
42799SOL    HW230295   2.135   7.576   0.271
42800SOL     OW30296   7.125   2.399   3.336
42800SOL    HW130297   7.084   2.485   3.323
42800SOL    HW230298   7.219   2.416   3.324
42801SOL     OW30299   5.959   9.173   4.838
42801SOL    HW130300   5.986   9.111   4.770
42801SOL    HW230301   5.863   9.178   4.830
42802SOL     OW30302  12.799  12.514  12.160
42802SOL    HW130303  12.829  12.549  12.076
42802SOL    HW230304  12.703  12.515  12.154
42803SOL     OW30305   2.853   5.715   8.429
42803SOL    HW130306   2.888   5.634   8.467
42803SOL    HW230307   2.758   5.702   8.428
42804SOL     OW30308   7.449  14.017   8.707
42804SOL    HW130309   7.541  14.002   8.731
42804SOL    HW230310   7.413  13.929   8.696
42805SOL     OW30311  10.742   6.366   7.220
42805SOL    HW130312  10.745   6.460   7.207
42805SOL    HW230313  10.733   6.355   7.315
42806SOL     OW30314   7.308   0.576  12.364
42806SOL    HW130315   7.221   0.539  12.383
42806SOL    HW230316   7.325   0.635  12.437
42807SOL     OW30317   2.646  13.713  14.642
42807SOL    HW130318   2.630  13.672  14.727
42807SOL    HW230319   2.559  13.730  14.606
42808SOL     OW30320   4.200  12.519   0.246
42808SOL    HW130321   4.194  12.443   0.304
42808SOL    HW230322   4.109  12.541   0.227
42809SOL     OW30323   8.320   2.694   8.623
42809SOL    HW130324   8.239   2.649   8.645
42809SOL    HW230325   8.325   2.766   8.686
42810SOL     OW30326   2.921   1.736   1.952
42810SOL    HW130327   2.953   1.827   1.947
42810SOL    HW230328   2.887   1.719   1.864
42811SOL     OW30329   6.473  13.125  11.503
42811SOL    HW130330   6.490  13.088  11.590
42811SOL    HW230331   6.494  13.054  11.442
42812SOL     OW30332   0.328   0.293   3.243
42812SOL    HW130333   0.403   0.290   3.302
42812SOL    HW230334   0.354   0.353   3.174
42813SOL     OW30335  14.463   3.913  10.557
42813SOL    HW130336  14.383   3.943  10.515
42813SOL    HW230337  14.476   3.824  10.524
42814SOL     OW30338   4.996  11.257   8.151
42814SOL    HW130339   4.926  11.245   8.215
42814SOL    HW230340   5.048  11.177   8.157
42815SOL     OW30341   3.525   4.643   2.209
42815SOL    HW130342   3.560   4.640   2.120
42815SOL    HW230343   3.527   4.552   2.239
42816SOL     OW30344  10.088   7.452   5.022
42816SOL    HW130345  10.061   7.371   4.980
42816SOL    HW230346  10.014   7.476   5.078
42817SOL     OW30347   7.835   9.331   7.380
42817SOL    HW130348   7.837   9.247   7.426
42817SOL    HW230349   7.900   9.385   7.425
42818SOL     OW30350   2.716   1.748   3.586
42818SOL    HW130351   2.704   1.657   3.611
42818SOL    HW230352   2.634   1.773   3.544
42819SOL     OW30353   3.947   0.731   0.137
42819SOL    HW130354   3.864   0.706   0.098
42819SOL    HW230355   3.999   0.651   0.137
42820SOL     OW30356   6.082   9.021   2.306
42820SOL    HW130357   6.100   9.086   2.374
42820SOL    HW230358   6.163   9.015   2.256
42821SOL     OW30359   9.719   7.915   2.380
42821SOL    HW130360   9.664   7.916   2.458
42821SOL    HW230361   9.664   7.951   2.310
42822SOL     OW30362   6.970   6.507  12.072
42822SOL    HW130363   6.940   6.597  12.084
42822SOL    HW230364   7.064   6.515  12.052
42823SOL     OW30365  13.689  14.704   7.290
42823SOL    HW130366  13.623  14.762   7.328
42823SOL    HW230367  13.678  14.621   7.338
42824SOL     OW30368   3.621   0.798   7.093
42824SOL    HW130369   3.600   0.705   7.078
42824SOL    HW230370   3.716   0.803   7.084
42825SOL     OW30371   5.854   9.037   1.805
42825SOL    HW130372   5.889   9.010   1.889
42825SOL    HW230373   5.930   9.067   1.756
42826SOL     OW30374   6.743  12.710   7.719
42826SOL    HW130375   6.691  12.681   7.644
42826SOL    HW230376   6.680  12.756   7.775
42827SOL     OW30377  13.639  14.026   0.492
42827SOL    HW130378  13.562  14.023   0.436
42827SOL    HW230379  13.606  14.059   0.576
42828SOL     OW30380   3.465   6.185   1.711
42828SOL    HW130381   3.385   6.141   1.741
42828SOL    HW230382   3.529   6.114   1.704
42829SOL     OW30383   9.092   5.650   2.548
42829SOL    HW130384   9.125   5.574   2.596
42829SOL    HW230385   9.077   5.716   2.615
42830SOL     OW30386   6.231   6.744   4.662
42830SOL    HW130387   6.201   6.835   4.656
42830SOL    HW230388   6.287   6.743   4.739
42831SOL     OW30389  14.309   9.343   4.314
42831SOL    HW130390  14.338   9.319   4.226
42831SOL    HW230391  14.292   9.437   4.308
42832SOL     OW30392  11.926   5.546   1.239
42832SOL    HW130393  11.855   5.602   1.268
42832SOL    HW230394  11.998   5.565   1.298
42833SOL     OW30395   8.157   1.662   5.119
42833SOL    HW130396   8.080   1.606   5.123
42833SOL    HW230397   8.224   1.615   5.169
42834SOL     OW30398   2.451   5.147   7.998
42834SOL    HW130399   2.378   5.085   8.001
42834SOL    HW230400   2.416   5.227   8.038
42835SOL     OW30401  12.545   2.747   9.084
42835SOL    HW130402  12.638   2.744   9.063
42835SOL    HW230403  12.523   2.840   9.086
42836SOL     OW30404   0.926  10.270  14.274
42836SOL    HW130405   1.020  10.273  14.289
42836SOL    HW230406   0.912  10.194  14.218
42837SOL     OW30407  11.370   6.139  11.604
42837SOL    HW130408  11.364   6.172  11.514
42837SOL    HW230409  11.403   6.212  11.655
42838SOL     OW30410   0.299  14.574  10.630
42838SOL    HW130411   0.339  14.632  10.695
42838SOL    HW230412   0.359  14.500  10.624
42839SOL     OW30413  12.077   6.758  12.222
42839SOL    HW130414  12.056   6.677  12.269
42839SOL    HW230415  12.033   6.748  12.137
42840SOL     OW30416   9.098  13.485   7.380
42840SOL    HW130417   9.035  13.556   7.391
42840SOL    HW230418   9.183  13.526   7.391
42841SOL     OW30419   1.456   2.554   2.952
42841SOL    HW130420   1.538   2.588   2.987
42841SOL    HW230421   1.473   2.545   2.858
42842SOL     OW30422   3.130  12.392   0.817
42842SOL    HW130423   3.215  12.402   0.775
42842SOL    HW230424   3.133  12.452   0.891
42843SOL     OW30425   0.344   4.207   8.754
42843SOL    HW130426   0.303   4.153   8.822
42843SOL    HW230427   0.414   4.152   8.719
42844SOL     OW30428   5.401   1.157   9.870
42844SOL    HW130429   5.427   1.106   9.793
42844SOL    HW230430   5.317   1.196   9.845
42845SOL     OW30431   2.182   4.629   2.198
42845SOL    HW130432   2.222   4.713   2.220
42845SOL    HW230433   2.156   4.638   2.107
42846SOL     OW30434   4.896   4.464   4.553
42846SOL    HW130435   4.861   4.429   4.471
42846SOL    HW230436   4.888   4.559   4.544
42847SOL     OW30437  14.093   6.885   6.468
42847SOL    HW130438  14.132   6.930   6.544
42847SOL    HW230439  14.064   6.801   6.503
42848SOL     OW30440   1.089   4.823   4.582
42848SOL    HW130441   1.050   4.907   4.561
42848SOL    HW230442   1.039   4.759   4.531
42849SOL     OW30443   9.943  12.263   7.323
42849SOL    HW130444   9.877  12.194   7.326
42849SOL    HW230445   9.998  12.249   7.400
42850SOL     OW30446   7.015  10.722   5.553
42850SOL    HW130447   6.931  10.697   5.593
42850SOL    HW230448   7.038  10.648   5.497
42851SOL     OW30449   6.288   2.987  14.243
42851SOL    HW130450   6.300   2.892  14.238
42851SOL    HW230451   6.343   3.022  14.173
42852SOL     OW30452   4.844   0.492  14.502
42852SOL    HW130453   4.767   0.532  14.461
42852SOL    HW230454   4.918   0.542  14.468
42853SOL     OW30455   9.350  13.130  13.085
42853SOL    HW130456   9.376  13.219  13.108
42853SOL    HW230457   9.350  13.130  12.989
42854SOL     OW30458  10.608   0.375   2.301
42854SOL    HW130459  10.645   0.324   2.230
42854SOL    HW230460  10.611   0.466   2.270
42855SOL     OW30461   9.072   7.341   9.073
42855SOL    HW130462   8.981   7.340   9.104
42855SOL    HW230463   9.103   7.429   9.091
42856SOL     OW30464  14.224   1.801   8.883
42856SOL    HW130465  14.272   1.764   8.957
42856SOL    HW230466  14.132   1.794   8.909
42857SOL     OW30467   8.576   2.653   9.795
42857SOL    HW130468   8.528   2.610   9.724
42857SOL    HW230469   8.538   2.615   9.875
42858SOL     OW30470   0.006   1.213   8.861
42858SOL    HW130471   0.101   1.217   8.848
42858SOL    HW230472  14.852   1.132   8.818
42859SOL     OW30473   2.836   7.566  11.665
42859SOL    HW130474   2.751   7.604  11.686
42859SOL    HW230475   2.899   7.630  11.697
42860SOL     OW30476   9.733   3.791  13.319
42860SOL    HW130477   9.708   3.864  13.263
42860SOL    HW230478   9.818   3.816  13.355
42861SOL     OW30479  11.714   8.038   3.273
42861SOL    HW130480  11.638   8.088   3.242
42861SOL    HW230481  11.786   8.066   3.216
42862SOL     OW30482  13.606   3.579  12.754
42862SOL    HW130483  13.578   3.593  12.663
42862SOL    HW230484  13.658   3.656  12.774
42863SOL     OW30485   4.290   0.707  11.606
42863SOL    HW130486   4.271   0.758  11.685
42863SOL    HW230487   4.335   0.629  11.638
42864SOL     OW30488   9.810   5.321   2.619
42864SOL    HW130489   9.883   5.380   2.599
42864SOL    HW230490   9.823   5.298   2.712
42865SOL     OW30491   5.027   3.559  11.838
42865SOL    HW130492   5.044   3.484  11.780
42865SOL    HW230493   5.071   3.633  11.796
42866SOL     OW30494   5.112   5.107   3.147
42866SOL    HW130495   5.092   5.019   3.182
42866SOL    HW230496   5.121   5.162   3.225
42867SOL     OW30497   0.126   1.998   1.796
42867SOL    HW130498   0.078   2.028   1.719
42867SOL    HW230499   0.058   1.982   1.861
42868SOL     OW30500   6.109   9.028   3.602
42868SOL    HW130501   6.069   9.109   3.632
42868SOL    HW230502   6.178   9.057   3.541
42869SOL     OW30503  13.983  13.697   2.096
42869SOL    HW130504  13.943  13.761   2.036
42869SOL    HW230505  14.074  13.726   2.105
42870SOL     OW30506   6.898   9.755   5.134
42870SOL    HW130507   6.955   9.776   5.208
42870SOL    HW230508   6.887   9.839   5.089
42871SOL     OW30509  10.041  13.165   7.377
42871SOL    HW130510  10.041  13.111   7.298
42871SOL    HW230511   9.993  13.113   7.442
42872SOL     OW30512   0.953   8.890   3.480
42872SOL    HW130513   0.986   8.972   3.518
42872SOL    HW230514   0.860   8.888   3.504
42873SOL     OW30515   6.837   9.629   0.115
42873SOL    HW130516   6.824   9.535   0.132
42873SOL    HW230517   6.879   9.632   0.029
42874SOL     OW30518   8.859   1.957   2.603
42874SOL    HW130519   8.798   2.008   2.549
42874SOL    HW230520   8.895   1.892   2.543
42875SOL     OW30521   2.707   0.105  10.762
42875SOL    HW130522   2.797   0.115  10.793
42875SOL    HW230523   2.700   0.165  10.688
42876SOL     OW30524   7.889   1.195   5.835
42876SOL    HW130525   7.960   1.139   5.867
42876SOL    HW230526   7.931   1.277   5.810
42877SOL     OW30527   7.881   9.988   8.108
42877SOL    HW130528   7.802   9.999   8.055
42877SOL    HW230529   7.896  10.074   8.148
42878SOL     OW30530  12.214   8.728   4.179
42878SOL    HW130531  12.184   8.689   4.261
42878SOL    HW230532  12.228   8.654   4.121
42879SOL     OW30533  12.701   8.461  11.203
42879SOL    HW130534  12.776   8.506  11.243
42879SOL    HW230535  12.631   8.471  11.268
42880SOL     OW30536   1.006   5.679  10.636
42880SOL    HW130537   1.006   5.625  10.557
42880SOL    HW230538   1.074   5.640  10.691
42881SOL     OW30539   6.222   0.322  13.158
42881SOL    HW130540   6.230   0.314  13.253
42881SOL    HW230541   6.157   0.257  13.133
42882SOL     OW30542   4.494   6.007   6.008
42882SOL    HW130543   4.526   5.939   6.066
42882SOL    HW230544   4.410   6.034   6.046
42883SOL     OW30545  14.320  14.563   7.413
42883SOL    HW130546  14.378  14.564   7.489
42883SOL    HW230547  14.296  14.655   7.399
42884SOL     OW30548  12.927  13.994   9.591
42884SOL    HW130549  12.912  14.012   9.684
42884SOL    HW230550  12.876  13.914   9.574
42885SOL     OW30551  11.567   4.087   1.587
42885SOL    HW130552  11.514   4.070   1.665
42885SOL    HW230553  11.607   4.172   1.604
42886SOL     OW30554   0.134  14.099   8.083
42886SOL    HW130555   0.125  14.193   8.066
42886SOL    HW230556   0.083  14.057   8.014
42887SOL     OW30557  10.310   9.566   3.704
42887SOL    HW130558  10.244   9.616   3.753
42887SOL    HW230559  10.264   9.489   3.672
42888SOL     OW30560  14.036   0.958   3.181
42888SOL    HW130561  13.964   1.019   3.167
42888SOL    HW230562  14.086   0.996   3.254
42889SOL     OW30563  11.035   9.803  12.331
42889SOL    HW130564  10.988   9.724  12.305
42889SOL    HW230565  11.098   9.773  12.396
42890SOL     OW30566   2.750   1.342   1.483
42890SOL    HW130567   2.748   1.362   1.577
42890SOL    HW230568   2.842   1.349   1.459
42891SOL     OW30569  14.780  13.387   7.188
42891SOL    HW130570   0.001  13.409   7.195
42891SOL    HW230571  14.737  13.449   7.247
42892SOL     OW30572   8.643   0.692   8.658
42892SOL    HW130573   8.684   0.768   8.698
42892SOL    HW230574   8.549   0.712   8.657
42893SOL     OW30575   7.470   1.897   4.019
42893SOL    HW130576   7.520   1.900   4.101
42893SOL    HW230577   7.391   1.947   4.037
42894SOL     OW30578   8.963   8.173  12.604
42894SOL    HW130579   8.994   8.129  12.525
42894SOL    HW230580   8.871   8.192  12.587
42895SOL     OW30581   3.388   6.582   7.817
42895SOL    HW130582   3.351   6.539   7.894
42895SOL    HW230583   3.423   6.665   7.850
42896SOL     OW30584   2.376   3.240  12.911
42896SOL    HW130585   2.324   3.207  12.837
42896SOL    HW230586   2.376   3.335  12.898
42897SOL     OW30587   5.668   6.139   1.862
42897SOL    HW130588   5.758   6.108   1.867
42897SOL    HW230589   5.662   6.183   1.777
42898SOL     OW30590   1.210   4.383   9.013
42898SOL    HW130591   1.191   4.450   9.077
42898SOL    HW230592   1.162   4.306   9.043
42899SOL     OW30593   6.049   1.100   4.568
42899SOL    HW130594   6.089   1.054   4.494
42899SOL    HW230595   6.119   1.154   4.603
42900SOL     OW30596   9.474   2.360   4.256
42900SOL    HW130597   9.540   2.310   4.305
42900SOL    HW230598   9.477   2.324   4.168
42901SOL     OW30599   8.049   3.207   8.184
42901SOL    HW130600   8.124   3.234   8.132
42901SOL    HW230601   8.084   3.146   8.248
42902SOL     OW30602   5.711   4.288   1.040
42902SOL    HW130603   5.635   4.238   1.071
42902SOL    HW230604   5.679   4.379   1.038
42903SOL     OW30605   1.937  12.497  14.171
42903SOL    HW130606   1.905  12.587  14.164
42903SOL    HW230607   1.958  12.471  14.082
42904SOL     OW30608  11.297  14.742   5.212
42904SOL    HW130609  11.304  14.785   5.297
42904SOL    HW230610  11.216  14.777   5.174
42905SOL     OW30611   5.654   1.955  12.795
42905SOL    HW130612   5.595   1.959  12.720
42905SOL    HW230613   5.635   1.870  12.836
42906SOL     OW30614   4.166   1.396  14.049
42906SOL    HW130615   4.177   1.315  14.099
42906SOL    HW230616   4.210   1.463  14.101
42907SOL     OW30617   0.593  12.012   8.423
42907SOL    HW130618   0.632  11.970   8.346
42907SOL    HW230619   0.499  12.000   8.412
42908SOL     OW30620  14.013   3.441  12.022
42908SOL    HW130621  13.935   3.464  12.073
42908SOL    HW230622  13.984   3.437  11.932
42909SOL     OW30623  12.607   0.389   8.803
42909SOL    HW130624  12.660   0.346   8.736
42909SOL    HW230625  12.602   0.325   8.874
42910SOL     OW30626   6.795   4.674   6.454
42910SOL    HW130627   6.797   4.611   6.526
42910SOL    HW230628   6.872   4.652   6.401
42911SOL     OW30629   3.190   6.073   8.518
42911SOL    HW130630   3.125   6.041   8.456
42911SOL    HW230631   3.141   6.092   8.598
42912SOL     OW30632  14.433   1.355   9.279
42912SOL    HW130633  14.361   1.415   9.296
42912SOL    HW230634  14.390   1.270   9.268
42913SOL     OW30635   2.127   0.205  10.758
42913SOL    HW130636   2.057   0.257  10.797
42913SOL    HW230637   2.191   0.194  10.828
42914SOL     OW30638  13.209  12.487   8.129
42914SOL    HW130639  13.134  12.428   8.120
42914SOL    HW230640  13.190  12.538   8.208
42915SOL     OW30641   1.713  13.801   7.922
42915SOL    HW130642   1.758  13.717   7.928
42915SOL    HW230643   1.653  13.801   7.996
42916SOL     OW30644  13.960   5.663  10.740
42916SOL    HW130645  13.920   5.600  10.680
42916SOL    HW230646  13.937   5.749  10.705
42917SOL     OW30647   2.973   9.308   6.594
42917SOL    HW130648   2.908   9.286   6.528
42917SOL    HW230649   3.032   9.370   6.550
42918SOL     OW30650   0.155   6.649   9.422
42918SOL    HW130651   0.168   6.742   9.437
42918SOL    HW230652   0.060   6.637   9.424
42919SOL     OW30653  14.174   3.178   1.386
42919SOL    HW130654  14.239   3.179   1.457
42919SOL    HW230655  14.153   3.270   1.372
42920SOL     OW30656   2.224  14.267   7.737
42920SOL    HW130657   2.305  14.240   7.780
42920SOL    HW230658   2.251  14.333   7.674
42921SOL     OW30659   7.235  12.172   3.121
42921SOL    HW130660   7.256  12.239   3.056
42921SOL    HW230661   7.199  12.220   3.195
42922SOL     OW30662   7.730   6.650  10.827
42922SOL    HW130663   7.696   6.732  10.863
42922SOL    HW230664   7.655   6.591  10.826
42923SOL     OW30665   0.449   0.339   1.735
42923SOL    HW130666   0.458   0.313   1.643
42923SOL    HW230667   0.466   0.433   1.735
42924SOL     OW30668   2.397   4.237  12.614
42924SOL    HW130669   2.462   4.167  12.622
42924SOL    HW230670   2.329   4.200  12.558
42925SOL     OW30671  13.155  11.672   4.073
42925SOL    HW130672  13.082  11.611   4.077
42925SOL    HW230673  13.162  11.694   3.980
42926SOL     OW30674   8.003   3.885   5.633
42926SOL    HW130675   7.914   3.913   5.656
42926SOL    HW230676   8.031   3.947   5.566
42927SOL     OW30677   3.135   2.283   6.191
42927SOL    HW130678   3.057   2.294   6.246
42927SOL    HW230679   3.134   2.190   6.167
42928SOL     OW30680   4.210  11.327  12.917
42928SOL    HW130681   4.254  11.385  12.855
42928SOL    HW230682   4.212  11.375  13.000
42929SOL     OW30683   6.741  11.807  11.329
42929SOL    HW130684   6.778  11.824  11.243
42929SOL    HW230685   6.740  11.892  11.372
42930SOL     OW30686   6.810  10.702  13.820
42930SOL    HW130687   6.834  10.733  13.733
42930SOL    HW230688   6.853  10.763  13.880
42931SOL     OW30689  10.890  14.326  13.229
42931SOL    HW130690  10.890  14.406  13.176
42931SOL    HW230691  10.852  14.259  13.172
42932SOL     OW30692  14.299  11.051  14.262
42932SOL    HW130693  14.354  11.084  14.333
42932SOL    HW230694  14.338  11.088  14.182
42933SOL     OW30695   0.039   2.960   4.182
42933SOL    HW130696   0.129   2.942   4.208
42933SOL    HW230697   0.033   2.930   4.091
42934SOL     OW30698   0.182   6.734   4.647
42934SOL    HW130699   0.208   6.648   4.615
42934SOL    HW230700   0.088   6.727   4.662
42935SOL     OW30701   0.526  13.777   5.766
42935SOL    HW130702   0.538  13.843   5.698
42935SOL    HW230703   0.529  13.827   5.848
42936SOL     OW30704  12.487   8.972   3.892
42936SOL    HW130705  12.457   9.052   3.934
42936SOL    HW230706  12.410   8.936   3.848
42937SOL     OW30707   9.210   6.356  13.422
42937SOL    HW130708   9.186   6.360  13.515
42937SOL    HW230709   9.126   6.346  13.376
42938SOL     OW30710   4.505  12.835  13.105
42938SOL    HW130711   4.593  12.851  13.071
42938SOL    HW230712   4.499  12.891  13.182
42939SOL     OW30713   7.789   1.820   2.685
42939SOL    HW130714   7.707   1.795   2.726
42939SOL    HW230715   7.836   1.737   2.673
42940SOL     OW30716   9.156   3.135   5.788
42940SOL    HW130717   9.231   3.134   5.847
42940SOL    HW230718   9.194   3.127   5.700
42941SOL     OW30719  14.466  13.801  10.482
42941SOL    HW130720  14.556  13.834  10.485
42941SOL    HW230721  14.473  13.719  10.432
42942SOL     OW30722   8.152   0.537   2.077
42942SOL    HW130723   8.178   0.559   1.988
42942SOL    HW230724   8.214   0.585   2.132
42943SOL     OW30725  11.702  14.658   7.064
42943SOL    HW130726  11.785  14.618   7.037
42943SOL    HW230727  11.639  14.629   6.998
42944SOL     OW30728   2.100  13.911   7.281
42944SOL    HW130729   2.053  13.910   7.364
42944SOL    HW230730   2.169  13.846   7.292
42945SOL     OW30731   0.755  10.182   4.940
42945SOL    HW130732   0.842  10.174   4.901
42945SOL    HW230733   0.761  10.260   4.996
42946SOL     OW30734   6.844   9.363   0.122
42946SOL    HW130735   6.772   9.325   0.173
42946SOL    HW230736   6.834   9.326   0.034
42947SOL     OW30737   6.463   5.278   6.185
42947SOL    HW130738   6.431   5.368   6.194
42947SOL    HW230739   6.493   5.272   6.095
42948SOL     OW30740   3.497   9.948   1.208
42948SOL    HW130741   3.489  10.034   1.249
42948SOL    HW230742   3.589   9.924   1.221
42949SOL     OW30743   7.333   2.995   8.459
42949SOL    HW130744   7.261   2.933   8.473
42949SOL    HW230745   7.290   3.080   8.457
42950SOL     OW30746   7.239   3.239   8.173
42950SOL    HW130747   7.317   3.257   8.224
42950SOL    HW230748   7.167   3.273   8.226
42951SOL     OW30749   5.788   7.308   2.057
42951SOL    HW130750   5.741   7.305   1.974
42951SOL    HW230751   5.824   7.397   2.060
42952SOL     OW30752   4.121   6.458   0.518
42952SOL    HW130753   4.138   6.392   0.586
42952SOL    HW230754   4.182   6.436   0.448
42953SOL     OW30755  11.714   3.884   8.641
42953SOL    HW130756  11.695   3.966   8.687
42953SOL    HW230757  11.801   3.858   8.672
42954SOL     OW30758   3.009   0.393   5.125
42954SOL    HW130759   3.058   0.387   5.043
42954SOL    HW230760   3.033   0.478   5.161
42955SOL     OW30761   1.799   0.829   6.606
42955SOL    HW130762   1.882   0.874   6.620
42955SOL    HW230763   1.761   0.821   6.694
42956SOL     OW30764  10.354   9.919   2.140
42956SOL    HW130765  10.264   9.924   2.107
42956SOL    HW230766  10.374   9.825   2.140
42957SOL     OW30767   2.450  13.782  12.117
42957SOL    HW130768   2.363  13.822  12.116
42957SOL    HW230769   2.465  13.760  12.209
42958SOL     OW30770   5.584  13.484   2.383
42958SOL    HW130771   5.657  13.501   2.324
42958SOL    HW230772   5.620  13.501   2.470
42959SOL     OW30773  11.833   6.982  11.985
42959SOL    HW130774  11.779   7.026  11.919
42959SOL    HW230775  11.777   6.978  12.062
42960SOL     OW30776   1.557  12.952   0.330
42960SOL    HW130777   1.528  13.019   0.269
42960SOL    HW230778   1.652  12.947   0.318
42961SOL     OW30779  14.003   8.054   6.374
42961SOL    HW130780  14.079   8.111   6.362
42961SOL    HW230781  14.033   7.985   6.433
42962SOL     OW30782  12.866  10.429   1.869
42962SOL    HW130783  12.797  10.380   1.913
42962SOL    HW230784  12.841  10.429   1.777
42963SOL     OW30785   8.513   5.301  11.334
42963SOL    HW130786   8.444   5.296  11.401
42963SOL    HW230787   8.467   5.332  11.256
42964SOL     OW30788  11.321  14.702   7.066
42964SOL    HW130789  11.283  14.743   6.988
42964SOL    HW230790  11.271  14.736   7.139
42965SOL     OW30791   8.837  12.312   9.933
42965SOL    HW130792   8.786  12.300   9.853
42965SOL    HW230793   8.778  12.362   9.991
42966SOL     OW30794  12.826   9.411  11.729
42966SOL    HW130795  12.815   9.381  11.639
42966SOL    HW230796  12.873   9.494  11.720
42967SOL     OW30797  12.277   7.442  12.178
42967SOL    HW130798  12.316   7.459  12.092
42967SOL    HW230799  12.192   7.401  12.158
42968SOL     OW30800   8.010   1.082  10.613
42968SOL    HW130801   8.036   1.013  10.552
42968SOL    HW230802   7.984   1.034  10.692
42969SOL     OW30803   8.313  10.831   1.889
42969SOL    HW130804   8.366  10.905   1.917
42969SOL    HW230805   8.282  10.790   1.970
42970SOL     OW30806  14.542   9.019   0.166
42970SOL    HW130807  14.449   8.995   0.166
42970SOL    HW230808  14.552   9.075   0.243
42971SOL     OW30809   6.902  13.397   9.939
42971SOL    HW130810   6.835  13.415   9.874
42971SOL    HW230811   6.922  13.304   9.928
42972SOL     OW30812   7.465   8.886   2.036
42972SOL    HW130813   7.435   8.802   2.070
42972SOL    HW230814   7.419   8.951   2.089
42973SOL     OW30815  10.773   4.568  13.368
42973SOL    HW130816  10.716   4.598  13.439
42973SOL    HW230817  10.774   4.640  13.305
42974SOL     OW30818  11.881   7.213   7.688
42974SOL    HW130819  11.919   7.297   7.714
42974SOL    HW230820  11.928   7.190   7.608
42975SOL     OW30821   9.631   6.600   4.074
42975SOL    HW130822   9.706   6.542   4.062
42975SOL    HW230823   9.652   6.651   4.152
42976SOL     OW30824   8.074  12.325   7.967
42976SOL    HW130825   7.994  12.309   7.918
42976SOL    HW230826   8.132  12.369   7.904
42977SOL     OW30827  14.156  13.095   9.017
42977SOL    HW130828  14.199  13.164   8.966
42977SOL    HW230829  14.203  13.015   8.992
42978SOL     OW30830   3.523  14.373   5.293
42978SOL    HW130831   3.498  14.351   5.204
42978SOL    HW230832   3.456  14.332   5.348
42979SOL     OW30833  13.719   7.257  13.768
42979SOL    HW130834  13.712   7.313  13.845
42979SOL    HW230835  13.813   7.241  13.759
42980SOL     OW30836   8.165   7.431  12.831
42980SOL    HW130837   8.104   7.504  12.817
42980SOL    HW230838   8.248   7.461  12.795
42981SOL     OW30839  11.472  11.244   8.719
42981SOL    HW130840  11.435  11.331   8.708
42981SOL    HW230841  11.414  11.187   8.669
42982SOL     OW30842   9.395  14.613  10.362
42982SOL    HW130843   9.428  14.701  10.344
42982SOL    HW230844   9.394  14.569  10.277
42983SOL     OW30845  10.757   5.658   5.441
42983SOL    HW130846  10.787   5.648   5.531
42983SOL    HW230847  10.667   5.627   5.441
42984SOL     OW30848  14.348  13.013   1.936
42984SOL    HW130849  14.366  12.926   1.901
42984SOL    HW230850  14.435  13.054   1.944
42985SOL     OW30851  14.080  12.045   4.710
42985SOL    HW130852  14.026  12.023   4.786
42985SOL    HW230853  14.129  12.123   4.737
42986SOL     OW30854   7.965   8.936   1.091
42986SOL    HW130855   7.981   8.893   1.175
42986SOL    HW230856   7.932   8.866   1.035
42987SOL     OW30857   7.290   0.448   5.732
42987SOL    HW130858   7.287   0.544   5.733
42987SOL    HW230859   7.363   0.428   5.672
42988SOL     OW30860   2.956   7.090   3.000
42988SOL    HW130861   2.927   7.048   2.919
42988SOL    HW230862   3.003   7.168   2.973
42989SOL     OW30863  10.875   3.693  12.227
42989SOL    HW130864  10.938   3.706  12.155
42989SOL    HW230865  10.929   3.671  12.302
42990SOL     OW30866   1.933   8.471   6.437
42990SOL    HW130867   1.989   8.451   6.511
42990SOL    HW230868   1.846   8.483   6.476
42991SOL     OW30869   1.932  10.675  12.699
42991SOL    HW130870   1.981  10.681  12.617
42991SOL    HW230871   1.911  10.582  12.708
42992SOL     OW30872   2.362   5.757  11.988
42992SOL    HW130873   2.358   5.848  11.959
42992SOL    HW230874   2.356   5.762  12.084
42993SOL     OW30875   6.072  14.462   2.587
42993SOL    HW130876   5.998  14.483   2.530
42993SOL    HW230877   6.031  14.445   2.672
42994SOL     OW30878   3.736   9.377  10.618
42994SOL    HW130879   3.723   9.427  10.699
42994SOL    HW230880   3.716   9.287  10.641
42995SOL     OW30881   5.837   6.307   6.424
42995SOL    HW130882   5.850   6.398   6.448
42995SOL    HW230883   5.916   6.282   6.377
42996SOL     OW30884   0.797   2.206  10.478
42996SOL    HW130885   0.774   2.274  10.415
42996SOL    HW230886   0.793   2.124  10.428
42997SOL     OW30887   7.982  14.022  11.663
42997SOL    HW130888   8.076  14.032  11.646
42997SOL    HW230889   7.944  13.999  11.578
42998SOL     OW30890   2.333   7.067  12.520
42998SOL    HW130891   2.258   7.026  12.477
42998SOL    HW230892   2.336   7.156  12.484
42999SOL     OW30893   2.040   5.477   5.536
42999SOL    HW130894   2.098   5.438   5.471
42999SOL    HW230895   2.090   5.551   5.571
43000SOL     OW30896   4.470  14.134  11.899
43000SOL    HW130897   4.520  14.061  11.934
43000SOL    HW230898   4.523  14.169  11.828
43001SOL     OW30899  10.521   8.856   9.658
43001SOL    HW130900  10.453   8.790   9.670
43001SOL    HW230901  10.477   8.940   9.674
43002SOL     OW30902   1.839   9.997  10.553
43002SOL    HW130903   1.775  10.048  10.603
43002SOL    HW230904   1.918  10.050  10.555
43003SOL     OW30905   6.021  12.236   5.491
43003SOL    HW130906   6.057  12.263   5.406
43003SOL    HW230907   6.085  12.175   5.527
43004SOL     OW30908   5.206   9.779   3.052
43004SOL    HW130909   5.159   9.836   3.113
43004SOL    HW230910   5.161   9.792   2.968
43005SOL     OW30911  10.366   0.491  14.663
43005SOL    HW130912  10.386   0.398  14.669
43005SOL    HW230913  10.272   0.496  14.679
43006SOL     OW30914   1.686  11.177  10.169
43006SOL    HW130915   1.718  11.252  10.219
43006SOL    HW230916   1.594  11.197  10.154
43007SOL     OW30917  13.205  14.840   8.204
43007SOL    HW130918  13.279  14.787   8.231
43007SOL    HW230919  13.234   0.011   8.124
43008SOL     OW30920   4.665   9.701   9.986
43008SOL    HW130921   4.735   9.648   9.947
43008SOL    HW230922   4.614   9.733   9.912
43009SOL     OW30923  12.176  14.151  12.819
43009SOL    HW130924  12.103  14.089  12.824
43009SOL    HW230925  12.143  14.221  12.762
43010SOL     OW30926  14.672   8.029   4.847
43010SOL    HW130927  14.763   8.048   4.873
43010SOL    HW230928  14.635   8.115   4.828
43011SOL     OW30929  13.777   3.178  14.395
43011SOL    HW130930  13.787   3.253  14.455
43011SOL    HW230931  13.720   3.210  14.326
43012SOL     OW30932  12.628   4.851   9.161
43012SOL    HW130933  12.623   4.946   9.172
43012SOL    HW230934  12.718   4.830   9.189
43013SOL     OW30935  14.714   8.274   6.819
43013SOL    HW130936  14.688   8.364   6.804
43013SOL    HW230937  14.634   8.230   6.846
43014SOL     OW30938  13.368   4.065  10.054
43014SOL    HW130939  13.323   4.022   9.981
43014SOL    HW230940  13.298   4.110  10.101
43015SOL     OW30941   1.520  12.163   5.061
43015SOL    HW130942   1.476  12.174   4.977
43015SOL    HW230943   1.609  12.194   5.045
43016SOL     OW30944  13.109   9.933   2.593
43016SOL    HW130945  13.078  10.007   2.646
43016SOL    HW230946  13.038   9.915   2.532
43017SOL     OW30947   5.771   3.122  13.630
43017SOL    HW130948   5.718   3.191  13.669
43017SOL    HW230949   5.809   3.162  13.552
43018SOL     OW30950   2.349  10.351  12.433
43018SOL    HW130951   2.434  10.385  12.407
43018SOL    HW230952   2.327  10.398  12.513
43019SOL     OW30953   5.658   0.519  13.859
43019SOL    HW130954   5.710   0.466  13.799
43019SOL    HW230955   5.723   0.567  13.911
43020SOL     OW30956  12.436   4.454   6.807
43020SOL    HW130957  12.528   4.480   6.800
43020SOL    HW230958  12.420   4.402   6.728
43021SOL     OW30959   5.665   7.269   8.909
43021SOL    HW130960   5.631   7.245   8.823
43021SOL    HW230961   5.649   7.363   8.916
43022SOL     OW30962   4.667   6.749   5.892
43022SOL    HW130963   4.659   6.739   5.987
43022SOL    HW230964   4.759   6.728   5.874
43023SOL     OW30965   3.749   9.201   1.132
43023SOL    HW130966   3.672   9.175   1.082
43023SOL    HW230967   3.742   9.152   1.214
43024SOL     OW30968   5.689  10.373   8.632
43024SOL    HW130969   5.638  10.433   8.687
43024SOL    HW230970   5.624  10.329   8.579
43025SOL     OW30971  12.548   9.216  13.598
43025SOL    HW130972  12.638   9.200  13.627
43025SOL    HW230973  12.557   9.264  13.516
43026SOL     OW30974   1.814   2.634   1.094
43026SOL    HW130975   1.896   2.584   1.089
43026SOL    HW230976   1.841   2.725   1.095
43027SOL     OW30977  12.576   8.034   4.061
43027SOL    HW130978  12.543   8.043   3.972
43027SOL    HW230979  12.667   8.062   4.056
43028SOL     OW30980   6.863   1.000   8.071
43028SOL    HW130981   6.855   0.919   8.122
43028SOL    HW230982   6.781   1.046   8.086
43029SOL     OW30983   0.068  11.884  13.419
43029SOL    HW130984   0.076  11.840  13.335
43029SOL    HW230985   0.145  11.855  13.468
43030SOL     OW30986   1.902  12.356   2.176
43030SOL    HW130987   1.933  12.435   2.132
43030SOL    HW230988   1.979  12.323   2.224
43031SOL     OW30989   4.538   3.271  11.616
43031SOL    HW130990   4.477   3.198  11.616
43031SOL    HW230991   4.512   3.324  11.541
43032SOL     OW30992   8.114   1.170   0.073
43032SOL    HW130993   8.108   1.264   0.089
43032SOL    HW230994   8.088   1.130   0.156
43033SOL     OW30995  11.872   6.406   3.842
43033SOL    HW130996  11.959   6.383   3.876
43033SOL    HW230997  11.834   6.463   3.909
43034SOL     OW30998   2.101  14.074  12.909
43034SOL    HW130999   2.014  14.112  12.896
43034SOL    HW231000   2.120  14.087  13.002
43035SOL     OW31001   2.889   9.604   8.823
43035SOL    HW131002   2.819   9.664   8.798
43035SOL    HW231003   2.962   9.661   8.845
43036SOL     OW31004   7.867   2.841   7.497
43036SOL    HW131005   7.895   2.911   7.438
43036SOL    HW231006   7.777   2.863   7.519
43037SOL     OW31007   7.736   5.925   6.257
43037SOL    HW131008   7.817   5.888   6.292
43037SOL    HW231009   7.697   5.973   6.330
43038SOL     OW31010   6.421   3.292  13.875
43038SOL    HW131011   6.494   3.335  13.920
43038SOL    HW231012   6.346   3.348  13.894
43039SOL     OW31013   1.939  10.243   3.269
43039SOL    HW131014   1.899  10.312   3.321
43039SOL    HW231015   1.887  10.240   3.189
43040SOL     OW31016  12.932  14.816   2.772
43040SOL    HW131017  12.971  14.730   2.755
43040SOL    HW231018  12.865  14.799   2.838
43041SOL     OW31019  11.553   0.386   7.963
43041SOL    HW131020  11.573   0.437   8.041
43041SOL    HW231021  11.466   0.415   7.937
43042SOL     OW31022  12.645   7.529  10.758
43042SOL    HW131023  12.564   7.563  10.797
43042SOL    HW231024  12.622   7.441  10.729
43043SOL     OW31025   3.985   0.952  13.924
43043SOL    HW131026   3.987   0.991  13.837
43043SOL    HW231027   4.048   1.002  13.975
43044SOL     OW31028   0.671   2.866  10.626
43044SOL    HW131029   0.603   2.909  10.574
43044SOL    HW231030   0.626   2.797  10.673
43045SOL     OW31031  11.931   1.568   0.280
43045SOL    HW131032  11.858   1.580   0.342
43045SOL    HW231033  12.004   1.537   0.334
43046SOL     OW31034   7.645  14.618   6.698
43046SOL    HW131035   7.610  14.673   6.768
43046SOL    HW231036   7.689  14.546   6.744
43047SOL     OW31037  13.107  11.934  13.018
43047SOL    HW131038  13.085  11.947  12.925
43047SOL    HW231039  13.134  11.842  13.023
43048SOL     OW31040   8.229  11.334   2.968
43048SOL    HW131041   8.164  11.388   3.013
43048SOL    HW231042   8.222  11.248   3.009
43049SOL     OW31043  13.788  10.182  11.932
43049SOL    HW131044  13.746  10.153  11.851
43049SOL    HW231045  13.871  10.221  11.903
43050SOL     OW31046  12.693   3.456  14.807
43050SOL    HW131047  12.643   3.429  14.729
43050SOL    HW231048  12.673   3.549  14.816
43051SOL     OW31049   0.570  12.124  12.263
43051SOL    HW131050   0.492  12.090  12.220
43051SOL    HW231051   0.546  12.128  12.356
43052SOL     OW31052   3.335   0.617   8.022
43052SOL    HW131053   3.257   0.672   8.012
43052SOL    HW231054   3.308   0.547   8.081
43053SOL     OW31055  12.988  14.458  11.476
43053SOL    HW131056  12.990  14.363  11.467
43053SOL    HW231057  12.914  14.486  11.423
43054SOL     OW31058   1.510   7.727   8.881
43054SOL    HW131059   1.449   7.663   8.844
43054SOL    HW231060   1.454   7.800   8.907
43055SOL     OW31061   4.891  10.549   5.474
43055SOL    HW131062   4.901  10.457   5.498
43055SOL    HW231063   4.925  10.556   5.385
43056SOL     OW31064   2.252  11.745   5.455
43056SOL    HW131065   2.231  11.677   5.519
43056SOL    HW231066   2.249  11.701   5.370
43057SOL     OW31067   2.532  10.824   9.957
43057SOL    HW131068   2.498  10.762  10.022
43057SOL    HW231069   2.541  10.773   9.877
43058SOL     OW31070  10.900   9.926   8.698
43058SOL    HW131071  10.806   9.915   8.681
43058SOL    HW231072  10.935   9.959   8.616
43059SOL     OW31073   6.163   1.334   8.806
43059SOL    HW131074   6.073   1.303   8.801
43059SOL    HW231075   6.210   1.265   8.852
43060SOL     OW31076   9.476  13.419   1.944
43060SOL    HW131077   9.544  13.468   1.896
43060SOL    HW231078   9.495  13.327   1.925
43061SOL     OW31079  13.233   0.734   1.212
43061SOL    HW131080  13.222   0.703   1.122
43061SOL    HW231081  13.148   0.774   1.234
43062SOL     OW31082   6.503   1.773   7.091
43062SOL    HW131083   6.412   1.760   7.064
43062SOL    HW231084   6.503   1.754   7.185
43063SOL     OW31085  13.513  12.080  14.188
43063SOL    HW131086  13.484  12.025  14.261
43063SOL    HW231087  13.508  12.022  14.112
43064SOL     OW31088  14.197   8.992  12.838
43064SOL    HW131089  14.124   9.024  12.891
43064SOL    HW231090  14.156   8.957  12.759
43065SOL     OW31091   1.696   5.124   4.730
43065SOL    HW131092   1.761   5.109   4.799
43065SOL    HW231093   1.626   5.062   4.751
43066SOL     OW31094   2.826   6.715   7.477
43066SOL    HW131095   2.759   6.726   7.543
43066SOL    HW231096   2.891   6.783   7.497
43067SOL     OW31097   5.759  13.631  11.481
43067SOL    HW131098   5.836  13.674  11.446
43067SOL    HW231099   5.685  13.682  11.448
43068SOL     OW31100   0.562  12.478   1.125
43068SOL    HW131101   0.625  12.488   1.054
43068SOL    HW231102   0.509  12.558   1.122
43069SOL     OW31103  14.518  11.412  14.737
43069SOL    HW131104  14.590  11.468  14.705
43069SOL    HW231105  14.448  11.473  14.759
43070SOL     OW31106   5.794   9.925  12.404
43070SOL    HW131107   5.865   9.926  12.341
43070SOL    HW231108   5.826   9.871  12.476
43071SOL     OW31109   3.789   7.150   0.501
43071SOL    HW131110   3.703   7.145   0.542
43071SOL    HW231111   3.781   7.220   0.436
43072SOL     OW31112   2.103  13.695   9.730
43072SOL    HW131113   2.160  13.656   9.663
43072SOL    HW231114   2.130  13.787   9.733
43073SOL     OW31115   5.873  11.884   5.316
43073SOL    HW131116   5.914  11.953   5.265
43073SOL    HW231117   5.784  11.876   5.279
43074SOL     OW31118   0.203  12.874  11.552
43074SOL    HW131119   0.226  12.907  11.639
43074SOL    HW231120   0.119  12.916  11.532
43075SOL     OW31121   1.773   6.372  13.647
43075SOL    HW131122   1.757   6.381  13.741
43075SOL    HW231123   1.686   6.381  13.608
43076SOL     OW31124   9.224   7.006   0.580
43076SOL    HW131125   9.162   7.007   0.507
43076SOL    HW231126   9.308   7.030   0.542
43077SOL     OW31127  13.478  11.983   2.760
43077SOL    HW131128  13.504  11.989   2.668
43077SOL    HW231129  13.411  11.915   2.762
43078SOL     OW31130   1.566  13.685   2.258
43078SOL    HW131131   1.476  13.685   2.288
43078SOL    HW231132   1.593  13.777   2.262
43079SOL     OW31133   6.285   3.416   2.792
43079SOL    HW131134   6.346   3.420   2.718
43079SOL    HW231135   6.201   3.390   2.753
43080SOL     OW31136  11.639  14.676   3.262
43080SOL    HW131137  11.545  14.672   3.280
43080SOL    HW231138  11.665  14.763   3.290
43081SOL     OW31139   9.063  10.494  13.244
43081SOL    HW131140   8.971  10.468  13.234
43081SOL    HW231141   9.065  10.583  13.209
43082SOL     OW31142   1.958   0.189   1.815
43082SOL    HW131143   2.013   0.225   1.745
43082SOL    HW231144   1.987   0.235   1.894
43083SOL     OW31145  14.632   0.120   9.608
43083SOL    HW131146  14.654   0.113   9.515
43083SOL    HW231147  14.642   0.031   9.642
43084SOL     OW31148   2.785  12.829   8.099
43084SOL    HW131149   2.774  12.834   8.194
43084SOL    HW231150   2.880  12.836   8.085
43085SOL     OW31151   7.471   3.728   5.846
43085SOL    HW131152   7.429   3.760   5.766
43085SOL    HW231153   7.471   3.632   5.837
43086SOL     OW31154   1.528   8.280  14.714
43086SOL    HW131155   1.443   8.315  14.741
43086SOL    HW231156   1.521   8.186  14.726
43087SOL     OW31157   5.208   6.433  13.756
43087SOL    HW131158   5.152   6.506  13.731
43087SOL    HW231159   5.289   6.473  13.788
43088SOL     OW31160   0.271  11.925   2.842
43088SOL    HW131161   0.325  11.846   2.831
43088SOL    HW231162   0.287  11.953   2.932
43089SOL     OW31163   8.577   9.886   7.194
43089SOL    HW131164   8.529   9.884   7.277
43089SOL    HW231165   8.656   9.835   7.210
43090SOL     OW31166   3.333   8.337   7.009
43090SOL    HW131167   3.399   8.349   7.078
43090SOL    HW231168   3.274   8.412   7.018
43091SOL     OW31169   7.644   1.832   3.836
43091SOL    HW131170   7.575   1.874   3.888
43091SOL    HW231171   7.697   1.785   3.901
43092SOL     OW31172   4.385   2.888   5.518
43092SOL    HW131173   4.348   2.827   5.454
43092SOL    HW231174   4.351   2.973   5.492
43093SOL     OW31175   9.961   1.642  10.661
43093SOL    HW131176   9.916   1.692  10.730
43093SOL    HW231177   9.924   1.554  10.668
43094SOL     OW31178   2.911  14.849  12.828
43094SOL    HW131179   2.854  14.774  12.846
43094SOL    HW231180   2.856   0.036  12.776
43095SOL     OW31181   7.023  12.744   0.038
43095SOL    HW131182   7.015  12.762  14.816
43095SOL    HW231183   7.032  12.649   0.044
43096SOL     OW31184   1.667   4.909   7.996
43096SOL    HW131185   1.585   4.956   7.977
43096SOL    HW231186   1.665   4.833   7.937
43097SOL     OW31187  13.255  14.044  10.613
43097SOL    HW131188  13.232  13.959  10.649
43097SOL    HW231189  13.283  14.096  10.688
43098SOL     OW31190   9.100  11.265   6.129
43098SOL    HW131191   9.014  11.230   6.105
43098SOL    HW231192   9.151  11.187   6.154
43099SOL     OW31193  14.671  11.142   7.301
43099SOL    HW131194  14.727  11.219   7.290
43099SOL    HW231195  14.722  11.070   7.263
43100SOL     OW31196  12.520   3.028  13.198
43100SOL    HW131197  12.428   3.006  13.185
43100SOL    HW231198  12.519   3.101  13.260
43101SOL     OW31199  13.433   2.827  12.653
43101SOL    HW131200  13.495   2.891  12.686
43101SOL    HW231201  13.411   2.773  12.729
43102SOL     OW31202  10.099   0.925   1.737
43102SOL    HW131203  10.169   0.865   1.715
43102SOL    HW231204  10.143   1.007   1.759
43103SOL     OW31205   2.623   6.592  10.579
43103SOL    HW131206   2.669   6.540  10.513
43103SOL    HW231207   2.684   6.662  10.602
43104SOL     OW31208   6.210   7.376   3.578
43104SOL    HW131209   6.238   7.361   3.488
43104SOL    HW231210   6.118   7.401   3.571
43105SOL     OW31211   1.476  14.254   8.551
43105SOL    HW131212   1.515  14.170   8.574
43105SOL    HW231213   1.392  14.255   8.598
43106SOL     OW31214   3.550  11.308  12.706
43106SOL    HW131215   3.597  11.269  12.780
43106SOL    HW231216   3.460  11.318  12.738
43107SOL     OW31217   5.312  10.574   5.025
43107SOL    HW131218   5.407  10.568   5.016
43107SOL    HW231219   5.296  10.567   5.119
43108SOL     OW31220   0.104   5.947   5.988
43108SOL    HW131221   0.166   5.881   6.021
43108SOL    HW231222   0.159   6.012   5.945
43109SOL     OW31223   4.613  12.642   4.378
43109SOL    HW131224   4.688  12.632   4.319
43109SOL    HW231225   4.591  12.735   4.374
43110SOL     OW31226  13.790   7.914   8.775
43110SOL    HW131227  13.800   8.005   8.745
43110SOL    HW231228  13.824   7.916   8.865
43111SOL     OW31229   5.993  11.212  10.053
43111SOL    HW131230   5.996  11.224   9.958
43111SOL    HW231231   6.079  11.177  10.075
43112SOL     OW31232   2.097  12.324  12.253
43112SOL    HW131233   2.016  12.370  12.228
43112SOL    HW231234   2.146  12.388  12.304
43113SOL     OW31235  14.058  10.492  14.579
43113SOL    HW131236  14.143  10.450  14.586
43113SOL    HW231237  14.029  10.473  14.489
43114SOL     OW31238   4.075   8.698   8.893
43114SOL    HW131239   4.141   8.762   8.920
43114SOL    HW231240   3.997   8.750   8.874
43115SOL     OW31241   7.774   2.251   1.631
43115SOL    HW131242   7.761   2.181   1.567
43115SOL    HW231243   7.713   2.320   1.604
43116SOL     OW31244  10.998   3.886   6.137
43116SOL    HW131245  10.977   3.979   6.135
43116SOL    HW231246  11.012   3.862   6.046
43117SOL     OW31247   5.437   8.342   5.729
43117SOL    HW131248   5.363   8.392   5.763
43117SOL    HW231249   5.434   8.259   5.776
43118SOL     OW31250   4.995  11.080  10.323
43118SOL    HW131251   4.925  11.018  10.305
43118SOL    HW231252   5.074  11.037  10.290
43119SOL     OW31253   5.558   8.760   8.476
43119SOL    HW131254   5.567   8.740   8.383
43119SOL    HW231255   5.643   8.737   8.514
43120SOL     OW31256   7.557  10.670   5.641
43120SOL    HW131257   7.606  10.601   5.596
43120SOL    HW231258   7.594  10.672   5.729
43121SOL     OW31259   3.769  14.335   7.583
43121SOL    HW131260   3.799  14.284   7.508
43121SOL    HW231261   3.790  14.280   7.659
43122SOL     OW31262  13.075  10.267   0.822
43122SOL    HW131263  12.996  10.320   0.837
43122SOL    HW231264  13.042  10.186   0.784
43123SOL     OW31265   3.739   3.532   7.982
43123SOL    HW131266   3.647   3.506   7.982
43123SOL    HW231267   3.771   3.503   7.896
43124SOL     OW31268  13.836  14.832   4.284
43124SOL    HW131269  13.888   0.030   4.323
43124SOL    HW231270  13.759   0.003   4.248
43125SOL     OW31271  14.649  11.211  11.543
43125SOL    HW131272  14.612  11.297  11.564
43125SOL    HW231273  14.626  11.197  11.451
43126SOL     OW31274  12.621   6.039  13.017
43126SOL    HW131275  12.640   6.054  13.110
43126SOL    HW231276  12.527   6.018  13.015
43127SOL     OW31277  11.243   5.312   0.139
43127SOL    HW131278  11.256   5.397   0.097
43127SOL    HW231279  11.312   5.256   0.101
43128SOL     OW31280   6.698   7.309   4.025
43128SOL    HW131281   6.756   7.239   4.055
43128SOL    HW231282   6.728   7.330   3.937
43129SOL     OW31283  12.770  14.531   6.654
43129SOL    HW131284  12.737  14.511   6.742
43129SOL    HW231285  12.818  14.613   6.666
43130SOL     OW31286   8.494   8.116  10.947
43130SOL    HW131287   8.502   8.035  10.997
43130SOL    HW231288   8.400   8.134  10.945
43131SOL     OW31289  12.785  12.209  12.228
43131SOL    HW131290  12.766  12.298  12.198
43131SOL    HW231291  12.742  12.202  12.313
43132SOL     OW31292   8.554   3.636   9.991
43132SOL    HW131293   8.500   3.660  10.066
43132SOL    HW231294   8.597   3.555  10.017
43133SOL     OW31295  10.016  11.954   6.177
43133SOL    HW131296   9.945  11.947   6.112
43133SOL    HW231297  10.093  11.922   6.130
43134SOL     OW31298  12.124  13.076   5.134
43134SOL    HW131299  12.082  13.153   5.095
43134SOL    HW231300  12.198  13.111   5.183
43135SOL     OW31301  13.219   5.538  11.387
43135SOL    HW131302  13.212   5.606  11.320
43135SOL    HW231303  13.267   5.467  11.345
43136SOL     OW31304   3.161  12.120   0.661
43136SOL    HW131305   3.203  12.158   0.584
43136SOL    HW231306   3.083  12.173   0.675
43137SOL     OW31307  10.823   9.297   2.235
43137SOL    HW131308  10.835   9.284   2.329
43137SOL    HW231309  10.728   9.306   2.224
43138SOL     OW31310  12.887  11.271   8.283
43138SOL    HW131311  12.915  11.210   8.350
43138SOL    HW231312  12.968  11.300   8.242
43139SOL     OW31313  10.831   1.745  10.094
43139SOL    HW131314  10.857   1.798  10.168
43139SOL    HW231315  10.859   1.657  10.116
43140SOL     OW31316   9.784   8.529  14.584
43140SOL    HW131317   9.805   8.544  14.492
43140SOL    HW231318   9.826   8.445  14.605
43141SOL     OW31319  12.127  10.185  14.364
43141SOL    HW131320  12.088  10.267  14.392
43141SOL    HW231321  12.214  10.184  14.404
43142SOL     OW31322   1.010   9.248  14.055
43142SOL    HW131323   1.059   9.188  13.999
43142SOL    HW231324   1.074   9.281  14.118
43143SOL     OW31325   9.518  10.070   0.016
43143SOL    HW131326   9.607  10.074  14.854
43143SOL    HW231327   9.511   9.983   0.055
43144SOL     OW31328   3.922   8.030   8.139
43144SOL    HW131329   3.878   8.084   8.205
43144SOL    HW231330   4.015   8.037   8.161
43145SOL     OW31331   1.984  10.103   6.782
43145SOL    HW131332   2.031  10.020   6.789
43145SOL    HW231333   2.026  10.148   6.708
43146SOL     OW31334   1.234   6.562   5.879
43146SOL    HW131335   1.145   6.530   5.893
43146SOL    HW231336   1.290   6.502   5.928
43147SOL     OW31337   5.547  11.142   2.374
43147SOL    HW131338   5.530  11.050   2.395
43147SOL    HW231339   5.639  11.143   2.348
43148SOL     OW31340  11.171  12.833   0.931
43148SOL    HW131341  11.076  12.829   0.945
43148SOL    HW231342  11.193  12.748   0.893
43149SOL     OW31343   1.934  12.421   9.705
43149SOL    HW131344   1.894  12.507   9.698
43149SOL    HW231345   1.912  12.378   9.623
43150SOL     OW31346   2.491   6.158  13.721
43150SOL    HW131347   2.560   6.224  13.720
43150SOL    HW231348   2.423   6.191  13.663
43151SOL     OW31349  11.429   5.152  11.992
43151SOL    HW131350  11.371   5.097  12.044
43151SOL    HW231351  11.374   5.183  11.920
43152SOL     OW31352  12.022  14.648   0.463
43152SOL    HW131353  11.948  14.643   0.402
43152SOL    HW231354  11.995  14.713   0.528
43153SOL     OW31355   0.694   5.659  13.742
43153SOL    HW131356   0.735   5.745  13.752
43153SOL    HW231357   0.691   5.644  13.648
43154SOL     OW31358   8.832   0.823  11.099
43154SOL    HW131359   8.769   0.790  11.164
43154SOL    HW231360   8.780   0.837  11.020
43155SOL     OW31361   2.713   5.122   2.349
43155SOL    HW131362   2.691   5.181   2.421
43155SOL    HW231363   2.775   5.172   2.295
43156SOL     OW31364   4.207   1.664   9.171
43156SOL    HW131365   4.289   1.682   9.216
43156SOL    HW231366   4.155   1.616   9.236
43157SOL     OW31367   3.032  12.621  10.798
43157SOL    HW131368   2.968  12.582  10.738
43157SOL    HW231369   2.986  12.625  10.882
43158SOL     OW31370   0.080   5.252   9.813
43158SOL    HW131371   0.156   5.310   9.806
43158SOL    HW231372   0.116   5.164   9.814
43159SOL     OW31373   6.838  14.065   0.083
43159SOL    HW131374   6.921  14.032   0.115
43159SOL    HW231375   6.846  14.160   0.089
43160SOL     OW31376   9.067  12.004  11.768
43160SOL    HW131377   9.154  12.036  11.792
43160SOL    HW231378   9.008  12.075  11.792
43161SOL     OW31379   9.610   4.888   9.448
43161SOL    HW131380   9.631   4.796   9.463
43161SOL    HW231381   9.685   4.922   9.400
43162SOL     OW31382   1.202   9.148  11.728
43162SOL    HW131383   1.170   9.109  11.647
43162SOL    HW231384   1.167   9.237  11.728
43163SOL     OW31385   9.300   5.632   3.989
43163SOL    HW131386   9.256   5.565   4.042
43163SOL    HW231387   9.242   5.708   3.993
43164SOL     OW31388  11.185   0.410  12.093
43164SOL    HW131389  11.215   0.500  12.101
43164SOL    HW231390  11.169   0.382  12.184
43165SOL     OW31391   9.752   2.682   6.800
43165SOL    HW131392   9.777   2.685   6.707
43165SOL    HW231393   9.727   2.771   6.821
43166SOL     OW31394   1.960   4.273  14.337
43166SOL    HW131395   1.975   4.367  14.350
43166SOL    HW231396   1.965   4.236  14.425
43167SOL     OW31397   5.571   0.187  12.300
43167SOL    HW131398   5.583   0.257  12.236
43167SOL    HW231399   5.647   0.194  12.358
43168SOL     OW31400  11.132  14.269  10.721
43168SOL    HW131401  11.040  14.297  10.713
43168SOL    HW231402  11.164  14.314  10.799
43169SOL     OW31403  11.724   2.892   4.259
43169SOL    HW131404  11.764   2.960   4.314
43169SOL    HW231405  11.795   2.829   4.244
43170SOL     OW31406   6.564   4.779   5.474
43170SOL    HW131407   6.508   4.853   5.451
43170SOL    HW231408   6.637   4.818   5.521
43171SOL     OW31409   4.305  12.847  11.140
43171SOL    HW131410   4.244  12.918  11.118
43171SOL    HW231411   4.388  12.873  11.098
43172SOL     OW31412  10.473   0.866   2.767
43172SOL    HW131413  10.455   0.876   2.861
43172SOL    HW231414  10.436   0.780   2.745
43173SOL     OW31415   5.445   4.870  12.665
43173SOL    HW131416   5.379   4.878  12.734
43173SOL    HW231417   5.448   4.776  12.646
43174SOL     OW31418   4.682  10.489   7.583
43174SOL    HW131419   4.710  10.574   7.618
43174SOL    HW231420   4.764  10.442   7.568
43175SOL     OW31421   7.156  10.087   8.975
43175SOL    HW131422   7.217  10.052   8.910
43175SOL    HW231423   7.108  10.010   9.006
43176SOL     OW31424  13.368   9.366   6.129
43176SOL    HW131425  13.275   9.357   6.149
43176SOL    HW231426  13.376   9.340   6.037
43177SOL     OW31427  11.398   8.239   4.884
43177SOL    HW131428  11.321   8.185   4.902
43177SOL    HW231429  11.368   8.301   4.817
43178SOL     OW31430   8.743   6.449  12.093
43178SOL    HW131431   8.715   6.450  12.001
43178SOL    HW231432   8.683   6.509  12.137
43179SOL     OW31433   3.934  12.960  10.121
43179SOL    HW131434   3.978  13.039  10.090
43179SOL    HW231435   3.858  12.950  10.063
43180SOL     OW31436   6.543  12.365   7.696
43180SOL    HW131437   6.537  12.307   7.773
43180SOL    HW231438   6.637  12.378   7.684
43181SOL     OW31439   6.122   0.153   1.325
43181SOL    HW131440   6.040   0.162   1.374
43181SOL    HW231441   6.157   0.242   1.321
43182SOL     OW31442   3.223   3.675  13.680
43182SOL    HW131443   3.314   3.650  13.665
43182SOL    HW231444   3.175   3.634  13.608
43183SOL     OW31445  13.246   1.277  13.171
43183SOL    HW131446  13.305   1.351  13.186
43183SOL    HW231447  13.301   1.209  13.133
43184SOL     OW31448   4.647  12.291  11.582
43184SOL    HW131449   4.679  12.314  11.669
43184SOL    HW231450   4.706  12.337  11.522
43185SOL     OW31451   6.872   9.310   2.338
43185SOL    HW131452   6.906   9.299   2.426
43185SOL    HW231453   6.800   9.373   2.347
43186SOL     OW31454   1.097   2.298   8.328
43186SOL    HW131455   1.082   2.260   8.241
43186SOL    HW231456   1.117   2.222   8.383
43187SOL     OW31457   9.129  14.654  14.723
43187SOL    HW131458   9.176  14.602  14.658
43187SOL    HW231459   9.154  14.744  14.703
43188SOL     OW31460  13.740   2.495   0.698
43188SOL    HW131461  13.741   2.590   0.689
43188SOL    HW231462  13.670   2.467   0.640
43189SOL     OW31463   8.736   2.159   5.817
43189SOL    HW131464   8.740   2.184   5.909
43189SOL    HW231465   8.659   2.204   5.783
43190SOL     OW31466   6.711   7.420   1.270
43190SOL    HW131467   6.667   7.487   1.322
43190SOL    HW231468   6.802   7.423   1.300
43191SOL     OW31469  10.117  12.600   3.964
43191SOL    HW131470  10.151  12.686   3.939
43191SOL    HW231471  10.095  12.558   3.880
43192SOL     OW31472   4.098   4.017  14.040
43192SOL    HW131473   4.111   4.109  14.061
43192SOL    HW231474   4.182   3.989  14.002
43193SOL     OW31475   6.437   7.508   4.453
43193SOL    HW131476   6.417   7.415   4.457
43193SOL    HW231477   6.395   7.538   4.373
43194SOL     OW31478   9.711   4.829   5.299
43194SOL    HW131479   9.654   4.771   5.349
43194SOL    HW231480   9.655   4.902   5.273
43195SOL     OW31481  10.266   5.286   6.947
43195SOL    HW131482  10.344   5.230   6.941
43195SOL    HW231483  10.274   5.346   6.874
43196SOL     OW31484   5.385   5.437  11.754
43196SOL    HW131485   5.441   5.377  11.704
43196SOL    HW231486   5.445   5.479  11.816
43197SOL     OW31487  11.103   2.196   2.554
43197SOL    HW131488  11.031   2.258   2.566
43197SOL    HW231489  11.062   2.119   2.515
43198SOL     OW31490   2.692   3.391   2.221
43198SOL    HW131491   2.761   3.384   2.288
43198SOL    HW231492   2.691   3.305   2.179
43199SOL     OW31493   8.896   1.923   2.212
43199SOL    HW131494   8.808   1.901   2.183
43199SOL    HW231495   8.899   1.892   2.303
43200SOL     OW31496   5.912   9.784   6.733
43200SOL    HW131497   6.001   9.752   6.740
43200SOL    HW231498   5.908   9.858   6.794
43201SOL     OW31499  13.461   5.787   7.179
43201SOL    HW131500  13.467   5.871   7.226
43201SOL    HW231501  13.485   5.808   7.089
43202SOL     OW31502  13.066   4.248   3.190
43202SOL    HW131503  13.142   4.235   3.133
43202SOL    HW231504  13.063   4.169   3.244
43203SOL     OW31505   2.498   8.006  11.812
43203SOL    HW131506   2.496   8.020  11.907
43203SOL    HW231507   2.476   8.092  11.776
43204SOL     OW31508   8.477   2.013   1.392
43204SOL    HW131509   8.427   1.934   1.373
43204SOL    HW231510   8.433   2.053   1.467
43205SOL     OW31511   0.218   7.151  13.986
43205SOL    HW131512   0.294   7.208  13.988
43205SOL    HW231513   0.187   7.150  14.077
43206SOL     OW31514   3.159  12.384  13.588
43206SOL    HW131515   3.189  12.349  13.504
43206SOL    HW231516   3.091  12.323  13.617
43207SOL     OW31517   9.654   2.803  11.853
43207SOL    HW131518   9.659   2.724  11.906
43207SOL    HW231519   9.658   2.772  11.762
43208SOL     OW31520   3.945  11.431   7.248
43208SOL    HW131521   3.879  11.410   7.182
43208SOL    HW231522   4.018  11.371   7.228
43209SOL     OW31523   9.464   2.264   4.017
43209SOL    HW131524   9.551   2.272   3.977
43209SOL    HW231525   9.435   2.176   3.995
43210SOL     OW31526  12.051   3.003   5.236
43210SOL    HW131527  12.117   3.068   5.211
43210SOL    HW231528  12.017   3.034   5.319
43211SOL     OW31529   5.474  13.292   0.455
43211SOL    HW131530   5.476  13.258   0.544
43211SOL    HW231531   5.444  13.219   0.401
43212SOL     OW31532  13.953   2.819   1.097
43212SOL    HW131533  14.004   2.874   1.157
43212SOL    HW231534  14.007   2.814   1.018
43213SOL     OW31535   2.350   5.738  12.385
43213SOL    HW131536   2.439   5.772  12.395
43213SOL    HW231537   2.350   5.656  12.433
43214SOL     OW31538  14.194   3.607   1.628
43214SOL    HW131539  14.144   3.659   1.691
43214SOL    HW231540  14.282   3.644   1.629
43215SOL     OW31541  13.477   7.912   2.294
43215SOL    HW131542  13.417   7.847   2.329
43215SOL    HW231543  13.501   7.877   2.208
43216SOL     OW31544   2.056   9.628   6.220
43216SOL    HW131545   2.096   9.618   6.307
43216SOL    HW231546   2.045   9.722   6.209
43217SOL     OW31547  13.352   6.473  10.430
43217SOL    HW131548  13.398   6.422  10.364
43217SOL    HW231549  13.418   6.531  10.466
43218SOL     OW31550  14.677  11.063  13.104
43218SOL    HW131551  14.679  11.111  13.021
43218SOL    HW231552  14.656  11.129  13.170
43219SOL     OW31553  11.960   0.954  11.904
43219SOL    HW131554  11.922   0.868  11.886
43219SOL    HW231555  12.007   0.976  11.823
43220SOL     OW31556  12.081   6.951   0.470
43220SOL    HW131557  11.996   6.918   0.500
43220SOL    HW231558  12.066   6.974   0.378
43221SOL     OW31559   2.823   3.388   2.758
43221SOL    HW131560   2.820   3.484   2.764
43221SOL    HW231561   2.769   3.358   2.831
43222SOL     OW31562   0.648  13.681  14.723
43222SOL    HW131563   0.598  13.599  14.725
43222SOL    HW231564   0.681  13.692  14.812
43223SOL     OW31565  13.994  13.440   8.791
43223SOL    HW131566  14.078  13.484   8.801
43223SOL    HW231567  14.008  13.375   8.722
43224SOL     OW31568   3.719   0.578  12.419
43224SOL    HW131569   3.799   0.584  12.366
43224SOL    HW231570   3.747   0.532  12.498
43225SOL     OW31571   8.730  12.210   3.094
43225SOL    HW131572   8.709  12.220   3.187
43225SOL    HW231573   8.722  12.116   3.078
43226SOL     OW31574  11.231   1.391   2.118
43226SOL    HW131575  11.136   1.387   2.109
43226SOL    HW231576  11.264   1.384   2.028
43227SOL     OW31577   7.848  12.178   0.407
43227SOL    HW131578   7.919  12.129   0.366
43227SOL    HW231579   7.815  12.234   0.337
43228SOL     OW31580   6.322  11.041   3.269
43228SOL    HW131581   6.321  11.039   3.364
43228SOL    HW231582   6.406  11.081   3.247
43229SOL     OW31583   7.907  11.955   7.503
43229SOL    HW131584   7.983  12.010   7.525
43229SOL    HW231585   7.833  12.016   7.500
43230SOL     OW31586   3.841  14.004  13.709
43230SOL    HW131587   3.886  13.920  13.702
43230SOL    HW231588   3.754  13.988  13.672
43231SOL     OW31589   1.829  12.112  13.736
43231SOL    HW131590   1.774  12.072  13.803
43231SOL    HW231591   1.886  12.042  13.705
43232SOL     OW31592   4.882  12.803  10.463
43232SOL    HW131593   4.851  12.761  10.383
43232SOL    HW231594   4.812  12.865  10.486
43233SOL     OW31595  11.869   4.317   5.523
43233SOL    HW131596  11.796   4.305   5.463
43233SOL    HW231597  11.830   4.306   5.610
43234SOL     OW31598  14.031   9.229   6.544
43234SOL    HW131599  14.005   9.309   6.590
43234SOL    HW231600  14.010   9.246   6.452
43235SOL     OW31601   8.373   4.696   7.145
43235SOL    HW131602   8.278   4.695   7.153
43235SOL    HW231603   8.396   4.787   7.130
43236SOL     OW31604  11.652  13.546   9.835
43236SOL    HW131605  11.599  13.494   9.896
43236SOL    HW231606  11.736  13.557   9.880
43237SOL     OW31607  14.177   2.600  12.288
43237SOL    HW131608  14.235   2.631  12.219
43237SOL    HW231609  14.233   2.547  12.344
43238SOL     OW31610   2.451   8.571  10.242
43238SOL    HW131611   2.541   8.597  10.260
43238SOL    HW231612   2.434   8.603  10.153
43239SOL     OW31613   6.764   2.827   9.599
43239SOL    HW131614   6.698   2.764   9.569
43239SOL    HW231615   6.834   2.821   9.534
43240SOL     OW31616   1.620   2.944   0.415
43240SOL    HW131617   1.588   2.861   0.450
43240SOL    HW231618   1.541   2.991   0.388
43241SOL     OW31619  12.306  11.534  12.062
43241SOL    HW131620  12.248  11.609  12.051
43241SOL    HW231621  12.271  11.487  12.137
43242SOL     OW31622   1.760   1.387   1.054
43242SOL    HW131623   1.854   1.392   1.073
43242SOL    HW231624   1.718   1.398   1.139
43243SOL     OW31625   7.848   8.829   6.318
43243SOL    HW131626   7.882   8.806   6.404
43243SOL    HW231627   7.756   8.850   6.333
43244SOL     OW31628   1.613   0.059   6.231
43244SOL    HW131629   1.598   0.001   6.306
43244SOL    HW231630   1.646   0.140   6.270
43245SOL     OW31631  12.447   7.392   0.655
43245SOL    HW131632  12.378   7.343   0.700
43245SOL    HW231633  12.409   7.411   0.569
43246SOL     OW31634   1.744   7.277   7.415
43246SOL    HW131635   1.766   7.244   7.502
43246SOL    HW231636   1.803   7.352   7.402
43247SOL     OW31637   7.535   6.792   0.084
43247SOL    HW131638   7.449   6.772   0.120
43247SOL    HW231639   7.527   6.882   0.051
43248SOL     OW31640  11.886  10.365   5.848
43248SOL    HW131641  11.954  10.393   5.787
43248SOL    HW231642  11.923  10.382   5.935
43249SOL     OW31643   9.386   3.954  10.696
43249SOL    HW131644   9.353   3.909  10.774
43249SOL    HW231645   9.410   4.041  10.728
43250SOL     OW31646   4.572  10.203   2.372
43250SOL    HW131647   4.494  10.247   2.340
43250SOL    HW231648   4.566  10.209   2.468
43251SOL     OW31649   2.203  13.218   7.737
43251SOL    HW131650   2.263  13.200   7.809
43251SOL    HW231651   2.185  13.311   7.743
43252SOL     OW31652   1.351  11.985   2.401
43252SOL    HW131653   1.352  12.044   2.325
43252SOL    HW231654   1.274  12.011   2.451
43253SOL     OW31655  12.747   8.048   0.355
43253SOL    HW131656  12.652   8.055   0.352
43253SOL    HW231657  12.764   7.967   0.403
43254SOL     OW31658   0.080  10.240   7.652
43254SOL    HW131659   0.082  10.145   7.666
43254SOL    HW231660   0.066  10.277   7.739
43255SOL     OW31661   8.831   7.639   6.259
43255SOL    HW131662   8.820   7.647   6.165
43255SOL    HW231663   8.924   7.654   6.274
43256SOL     OW31664   3.408   3.567  10.868
43256SOL    HW131665   3.484   3.559  10.810
43256SOL    HW231666   3.340   3.606  10.813
43257SOL     OW31667  11.902   0.776   1.477
43257SOL    HW131668  11.825   0.721   1.460
43257SOL    HW231669  11.972   0.714   1.498
43258SOL     OW31670  11.255   0.825  14.668
43258SOL    HW131671  11.278   0.834  14.760
43258SOL    HW231672  11.168   0.785  14.668
43259SOL     OW31673   3.450  10.572   9.503
43259SOL    HW131674   3.485  10.495   9.459
43259SOL    HW231675   3.493  10.573   9.589
43260SOL     OW31676   3.356   1.549   3.102
43260SOL    HW131677   3.302   1.503   3.038
43260SOL    HW231678   3.404   1.614   3.050
43261SOL     OW31679  10.757   9.040  11.889
43261SOL    HW131680  10.703   8.973  11.847
43261SOL    HW231681  10.759   9.112  11.826
43262SOL     OW31682   3.472   4.575   8.510
43262SOL    HW131683   3.498   4.483   8.517
43262SOL    HW231684   3.505   4.616   8.590
43263SOL     OW31685   6.992  12.387  11.796
43263SOL    HW131686   6.940  12.309  11.775
43263SOL    HW231687   7.077  12.371  11.756
43264SOL     OW31688  13.959  10.030   8.553
43264SOL    HW131689  14.032  10.017   8.613
43264SOL    HW231690  13.985   9.984   8.473
43265SOL     OW31691   6.357   9.637   4.551
43265SOL    HW131692   6.440   9.685   4.557
43265SOL    HW231693   6.375   9.553   4.592
43266SOL     OW31694  13.887   0.918   4.056
43266SOL    HW131695  13.851   0.895   3.971
43266SOL    HW231696  13.948   0.847   4.077
43267SOL     OW31697   9.685  11.033  11.620
43267SOL    HW131698   9.758  10.989  11.575
43267SOL    HW231699   9.715  11.042  11.711
43268SOL     OW31700   5.378  13.002  14.694
43268SOL    HW131701   5.458  12.992  14.643
43268SOL    HW231702   5.363  12.915  14.732
43269SOL     OW31703   2.092   5.102   0.099
43269SOL    HW131704   2.059   5.062   0.180
43269SOL    HW231705   2.131   5.030   0.051
43270SOL     OW31706   0.180  14.843   6.023
43270SOL    HW131707   0.125  14.771   5.992
43270SOL    HW231708   0.207  14.818   6.111
43271SOL     OW31709  10.189   6.396  14.810
43271SOL    HW131710  10.114   6.439  14.851
43271SOL    HW231711  10.186   6.306  14.843
43272SOL     OW31712   7.612   5.838  10.846
43272SOL    HW131713   7.584   5.873  10.931
43272SOL    HW231714   7.669   5.906  10.810
43273SOL     OW31715   9.728   2.812   4.024
43273SOL    HW131716   9.769   2.878   3.968
43273SOL    HW231717   9.687   2.863   4.094
43274SOL     OW31718  12.370   6.740  13.060
43274SOL    HW131719  12.301   6.803  13.039
43274SOL    HW231720  12.324   6.661  13.087
43275SOL     OW31721  10.275   6.408  12.269
43275SOL    HW131722  10.359   6.424  12.226
43275SOL    HW231723  10.253   6.318  12.246
43276SOL     OW31724   3.475  10.072  13.146
43276SOL    HW131725   3.519  10.142  13.194
43276SOL    HW231726   3.531  10.055  13.070
43277SOL     OW31727  12.965   4.278   1.061
43277SOL    HW131728  12.929   4.189   1.057
43277SOL    HW231729  12.965   4.300   1.154
43278SOL     OW31730   2.269   5.353   6.613
43278SOL    HW131731   2.243   5.400   6.533
43278SOL    HW231732   2.271   5.420   6.681
43279SOL     OW31733   4.046  14.121   5.169
43279SOL    HW131734   3.992  14.143   5.094
43279SOL    HW231735   4.115  14.187   5.170
43280SOL     OW31736   6.947   6.991  11.728
43280SOL    HW131737   6.895   6.928  11.778
43280SOL    HW231738   6.910   7.076  11.752
43281SOL     OW31739   6.230   7.139   1.083
43281SOL    HW131740   6.203   7.230   1.088
43281SOL    HW231741   6.217   7.105   1.171
43282SOL     OW31742   4.388   9.256   2.751
43282SOL    HW131743   4.345   9.341   2.746
43282SOL    HW231744   4.430   9.245   2.665
43283SOL     OW31745  14.404   3.805  13.850
43283SOL    HW131746  14.312   3.825  13.833
43283SOL    HW231747  14.427   3.741  13.783
43284SOL     OW31748  13.234   9.039   2.059
43284SOL    HW131749  13.228   8.999   2.146
43284SOL    HW231750  13.324   9.074   2.055
43285SOL     OW31751  14.100   6.063  10.109
43285SOL    HW131752  14.019   6.059  10.057
43285SOL    HW231753  14.140   6.146  10.084
43286SOL     OW31754  13.299  14.817  13.027
43286SOL    HW131755  13.344   0.012  12.976
43286SOL    HW231756  13.307  14.738  12.974
43287SOL     OW31757   3.699  14.000  12.542
43287SOL    HW131758   3.685  14.067  12.609
43287SOL    HW231759   3.717  13.920  12.592
43288SOL     OW31760   1.796   8.491   9.669
43288SOL    HW131761   1.752   8.518   9.750
43288SOL    HW231762   1.772   8.400   9.657
43289SOL     OW31763   3.894  11.848   6.236
43289SOL    HW131764   3.823  11.784   6.234
43289SOL    HW231765   3.966  11.807   6.188
43290SOL     OW31766   9.252  13.126   0.515
43290SOL    HW131767   9.177  13.139   0.573
43290SOL    HW231768   9.316  13.191   0.544
43291SOL     OW31769   6.951  12.580  13.043
43291SOL    HW131770   6.926  12.495  13.080
43291SOL    HW231771   6.934  12.643  13.113
43292SOL     OW31772  13.439   0.033   3.601
43292SOL    HW131773  13.484  14.841   3.546
43292SOL    HW231774  13.367   0.066   3.546
43293SOL     OW31775   0.039   0.440  12.852
43293SOL    HW131776   0.100   0.367  12.865
43293SOL    HW231777   0.014   0.434  12.760
43294SOL     OW31778   2.709   1.041   4.007
43294SOL    HW131779   2.749   0.985   3.940
43294SOL    HW231780   2.616   1.038   3.987
43295SOL     OW31781   7.597  11.002   6.781
43295SOL    HW131782   7.506  11.019   6.757
43295SOL    HW231783   7.620  11.075   6.839
43296SOL     OW31784  13.336   1.370  10.894
43296SOL    HW131785  13.291   1.374  10.979
43296SOL    HW231786  13.303   1.445  10.845
43297SOL     OW31787  10.094   2.414   3.065
43297SOL    HW131788  10.137   2.355   3.127
43297SOL    HW231789  10.026   2.457   3.116
43298SOL     OW31790  13.509   4.358   1.742
43298SOL    HW131791  13.588   4.412   1.734
43298SOL    HW231792  13.467   4.390   1.822
43299SOL     OW31793   3.307   4.867   2.244
43299SOL    HW131794   3.234   4.856   2.183
43299SOL    HW231795   3.381   4.825   2.201
43300SOL     OW31796   4.819   2.242   4.813
43300SOL    HW131797   4.910   2.271   4.823
43300SOL    HW231798   4.822   2.148   4.833
43301SOL     OW31799   1.921   1.261   7.808
43301SOL    HW131800   1.927   1.314   7.887
43301SOL    HW231801   1.969   1.181   7.829
43302SOL     OW31802   7.450   1.683  12.888
43302SOL    HW131803   7.484   1.720  12.969
43302SOL    HW231804   7.400   1.605  12.916
43303SOL     OW31805   7.731   9.658   9.459
43303SOL    HW131806   7.646   9.681   9.422
43303SOL    HW231807   7.730   9.562   9.464
43304SOL     OW31808  11.177   0.069   4.619
43304SOL    HW131809  11.141   0.087   4.533
43304SOL    HW231810  11.269   0.047   4.602
43305SOL     OW31811   5.246  12.686  14.544
43305SOL    HW131812   5.225  12.608  14.594
43305SOL    HW231813   5.181  12.689  14.474
43306SOL     OW31814  13.332  14.775  13.989
43306SOL    HW131815  13.387  14.735  13.922
43306SOL    HW231816  13.328  14.710  14.059
43307SOL     OW31817   8.168   3.996   6.484
43307SOL    HW131818   8.146   3.924   6.543
43307SOL    HW231819   8.085   4.020   6.442
43308SOL     OW31820   6.300   8.865  13.604
43308SOL    HW131821   6.313   8.777  13.641
43308SOL    HW231822   6.268   8.917  13.678
43309SOL     OW31823   5.325  10.527   8.074
43309SOL    HW131824   5.252  10.587   8.063
43309SOL    HW231825   5.295  10.464   8.140
43310SOL     OW31826   0.898   7.157   8.308
43310SOL    HW131827   0.842   7.087   8.274
43310SOL    HW231828   0.907   7.138   8.401
43311SOL     OW31829   2.959   8.872  10.638
43311SOL    HW131830   3.047   8.905  10.622
43311SOL    HW231831   2.971   8.778  10.655
43312SOL     OW31832  13.084   0.870   5.059
43312SOL    HW131833  13.135   0.881   4.979
43312SOL    HW231834  13.054   0.779   5.056
43313SOL     OW31835   5.802   5.037  13.549
43313SOL    HW131836   5.749   5.117  13.555
43313SOL    HW231837   5.819   5.013  13.640
43314SOL     OW31838   0.398   1.514   9.656
43314SOL    HW131839   0.445   1.440   9.695
43314SOL    HW231840   0.409   1.503   9.562
43315SOL     OW31841  12.766  13.215   6.101
43315SOL    HW131842  12.811  13.131   6.103
43315SOL    HW231843  12.794  13.256   6.020
43316SOL     OW31844  12.199   4.608  14.707
43316SOL    HW131845  12.178   4.547  14.637
43316SOL    HW231846  12.146   4.685  14.688
43317SOL     OW31847   5.356   5.237   8.460
43317SOL    HW131848   5.351   5.304   8.528
43317SOL    HW231849   5.442   5.198   8.470
43318SOL     OW31850   2.822   2.469   7.217
43318SOL    HW131851   2.833   2.397   7.156
43318SOL    HW231852   2.732   2.499   7.202
43319SOL     OW31853  10.867   1.887   2.595
43319SOL    HW131854  10.917   1.889   2.514
43319SOL    HW231855  10.922   1.932   2.659
43320SOL     OW31856   8.501  14.545   8.707
43320SOL    HW131857   8.590  14.557   8.675
43320SOL    HW231858   8.447  14.545   8.628
43321SOL     OW31859   7.386  12.497  12.239
43321SOL    HW131860   7.410  12.417  12.285
43321SOL    HW231861   7.469  12.534  12.209
43322SOL     OW31862   8.326   1.205   2.986
43322SOL    HW131863   8.316   1.287   3.034
43322SOL    HW231864   8.416   1.178   3.003
43323SOL     OW31865  10.728   3.198  14.006
43323SOL    HW131866  10.762   3.241  14.085
43323SOL    HW231867  10.764   3.109  14.012
43324SOL     OW31868   5.699  14.853  12.079
43324SOL    HW131869   5.665  14.846  12.168
43324SOL    HW231870   5.693  14.764  12.044
43325SOL     OW31871  10.441   1.281  10.843
43325SOL    HW131872  10.379   1.342  10.883
43325SOL    HW231873  10.387   1.207  10.816
43326SOL     OW31874   3.391   7.025  10.078
43326SOL    HW131875   3.404   7.065  10.164
43326SOL    HW231876   3.469   7.051  10.028
43327SOL     OW31877   5.660  11.298   0.516
43327SOL    HW131878   5.614  11.284   0.598
43327SOL    HW231879   5.591  11.297   0.449
43328SOL     OW31880   6.470   1.972   9.769
43328SOL    HW131881   6.387   1.984   9.722
43328SOL    HW231882   6.537   2.001   9.707
43329SOL     OW31883  12.211   4.574   6.503
43329SOL    HW131884  12.288   4.537   6.458
43329SOL    HW231885  12.247   4.636   6.566
43330SOL     OW31886  10.660   5.165  10.338
43330SOL    HW131887  10.724   5.110  10.382
43330SOL    HW231888  10.585   5.107  10.322
43331SOL     OW31889   1.794   4.925   8.488
43331SOL    HW131890   1.770   4.880   8.407
43331SOL    HW231891   1.722   4.905   8.548
43332SOL     OW31892  11.156  13.677  11.298
43332SOL    HW131893  11.151  13.680  11.202
43332SOL    HW231894  11.072  13.640  11.325
43333SOL     OW31895   3.717  10.267   6.840
43333SOL    HW131896   3.707  10.199   6.907
43333SOL    HW231897   3.695  10.348   6.885
43334SOL     OW31898  12.520  11.060  10.464
43334SOL    HW131899  12.447  11.017  10.421
43334SOL    HW231900  12.494  11.063  10.557
43335SOL     OW31901   4.018   8.716  12.888
43335SOL    HW131902   4.103   8.732  12.929
43335SOL    HW231903   3.959   8.693  12.960
43336SOL     OW31904   0.303   2.055   3.059
43336SOL    HW131905   0.285   1.976   3.007
43336SOL    HW231906   0.326   2.122   2.994
43337SOL     OW31907  10.953   3.087  12.116
43337SOL    HW131908  10.899   3.139  12.056
43337SOL    HW231909  10.891   3.050  12.179
43338SOL     OW31910   6.974   3.719   0.517
43338SOL    HW131911   7.009   3.681   0.437
43338SOL    HW231912   7.050   3.760   0.560
43339SOL     OW31913   4.423   3.063   5.214
43339SOL    HW131914   4.365   3.094   5.283
43339SOL    HW231915   4.371   2.995   5.169
43340SOL     OW31916   4.426   9.762   0.063
43340SOL    HW131917   4.403   9.674   0.032
43340SOL    HW231918   4.368   9.777   0.137
43341SOL     OW31919  11.437  13.606   5.298
43341SOL    HW131920  11.481  13.656   5.367
43341SOL    HW231921  11.498  13.536   5.277
43342SOL     OW31922   8.873   9.781   9.928
43342SOL    HW131923   8.818   9.842   9.878
43342SOL    HW231924   8.898   9.831  10.006
43343SOL     OW31925   2.662   0.246  12.259
43343SOL    HW131926   2.629   0.294  12.182
43343SOL    HW231927   2.668   0.155  12.229
43344SOL     OW31928   8.356  13.105   0.844
43344SOL    HW131929   8.351  13.012   0.866
43344SOL    HW231930   8.275  13.123   0.796
43345SOL     OW31931   3.087  13.389   9.623
43345SOL    HW131932   3.039  13.341   9.690
43345SOL    HW231933   3.147  13.446   9.671
43346SOL     OW31934   7.096  13.874   5.457
43346SOL    HW131935   7.033  13.834   5.517
43346SOL    HW231936   7.145  13.935   5.512
43347SOL     OW31937  13.808   2.869   9.319
43347SOL    HW131938  13.851   2.938   9.370
43347SOL    HW231939  13.724   2.908   9.294
43348SOL     OW31940   7.576  11.559  10.335
43348SOL    HW131941   7.640  11.596  10.395
43348SOL    HW231942   7.625  11.539  10.256
43349SOL     OW31943  11.367  13.845  13.529
43349SOL    HW131944  11.338  13.811  13.444
43349SOL    HW231945  11.305  13.915  13.550
43350SOL     OW31946   0.636   5.377  13.086
43350SOL    HW131947   0.564   5.321  13.115
43350SOL    HW231948   0.710   5.350  13.140
43351SOL     OW31949  10.430   8.266   2.223
43351SOL    HW131950  10.337   8.271   2.203
43351SOL    HW231951  10.433   8.235   2.314
43352SOL     OW31952   8.897   4.102  14.677
43352SOL    HW131953   8.895   4.197  14.683
43352SOL    HW231954   8.926   4.084  14.587
43353SOL     OW31955  13.230   5.645  12.662
43353SOL    HW131956  13.210   5.614  12.751
43353SOL    HW231957  13.299   5.587  12.631
43354SOL     OW31958  12.004   4.012   6.240
43354SOL    HW131959  11.939   3.973   6.182
43354SOL    HW231960  11.953   4.065   6.300
43355SOL     OW31961   3.682   7.908   7.162
43355SOL    HW131962   3.725   7.988   7.132
43355SOL    HW231963   3.710   7.898   7.253
43356SOL     OW31964  11.432  13.502   3.711
43356SOL    HW131965  11.395  13.453   3.785
43356SOL    HW231966  11.470  13.436   3.654
43357SOL     OW31967   5.984  13.215   5.561
43357SOL    HW131968   5.924  13.154   5.604
43357SOL    HW231969   5.964  13.300   5.601
43358SOL     OW31970   4.928   5.343   4.743
43358SOL    HW131971   4.955   5.283   4.812
43358SOL    HW231972   4.972   5.426   4.765
43359SOL     OW31973   8.279   8.702   9.900
43359SOL    HW131974   8.360   8.682   9.947
43359SOL    HW231975   8.306   8.708   9.808
43360SOL     OW31976   6.378  10.386  10.008
43360SOL    HW131977   6.364  10.301  10.048
43360SOL    HW231978   6.455  10.422  10.052
43361SOL     OW31979   6.274   4.593   6.457
43361SOL    HW131980   6.201   4.532   6.442
43361SOL    HW231981   6.235   4.679   6.447
43362SOL     OW31982   5.714   9.296   3.035
43362SOL    HW131983   5.711   9.224   2.972
43362SOL    HW231984   5.733   9.254   3.119
43363SOL     OW31985  11.282   3.870   7.778
43363SOL    HW131986  11.241   3.896   7.861
43363SOL    HW231987  11.295   3.952   7.731
43364SOL     OW31988  14.000  13.302   3.186
43364SOL    HW131989  14.020  13.320   3.094
43364SOL    HW231990  13.939  13.229   3.182
43365SOL     OW31991   9.545   4.898   1.557
43365SOL    HW131992   9.491   4.824   1.585
43365SOL    HW231993   9.635   4.865   1.561
43366SOL     OW31994  10.820   1.211  10.210
43366SOL    HW131995  10.848   1.184  10.122
43366SOL    HW231996  10.765   1.140  10.241
43367SOL     OW31997  11.023  11.611   8.631
43367SOL    HW131998  10.985  11.654   8.555
43367SOL    HW231999  10.986  11.658   8.706
43368SOL     OW32000   6.499  13.152  12.463
43368SOL    HW132001   6.507  13.210  12.539
43368SOL    HW232002   6.586  13.152  12.423
43369SOL     OW32003   5.499   3.461   4.411
43369SOL    HW132004   5.445   3.392   4.371
43369SOL    HW232005   5.502   3.437   4.504
43370SOL     OW32006  11.926   8.380   3.158
43370SOL    HW132007  11.881   8.420   3.232
43370SOL    HW232008  11.913   8.442   3.086
43371SOL     OW32009   1.757   2.887  11.662
43371SOL    HW132010   1.805   2.810  11.631
43371SOL    HW232011   1.784   2.958  11.603
43372SOL     OW32012   1.151   7.058   5.744
43372SOL    HW132013   1.123   7.117   5.674
43372SOL    HW232014   1.156   7.115   5.821
43373SOL     OW32015   1.371   8.596   8.792
43373SOL    HW132016   1.412   8.681   8.778
43373SOL    HW232017   1.336   8.601   8.881
43374SOL     OW32018   7.243   0.404   0.908
43374SOL    HW132019   7.305   0.332   0.906
43374SOL    HW232020   7.281   0.471   0.851
43375SOL     OW32021  13.946  13.119   3.778
43375SOL    HW132022  13.875  13.130   3.715
43375SOL    HW232023  14.006  13.058   3.737
43376SOL     OW32024   3.602  10.881   7.704
43376SOL    HW132025   3.538  10.877   7.775
43376SOL    HW232026   3.624  10.789   7.687
43377SOL     OW32027  13.802   6.659  12.736
43377SOL    HW132028  13.715   6.646  12.775
43377SOL    HW232029  13.832   6.742  12.774
43378SOL     OW32030   1.506   7.575   0.636
43378SOL    HW132031   1.591   7.597   0.597
43378SOL    HW232032   1.492   7.642   0.703
43379SOL     OW32033   1.943   6.840  11.180
43379SOL    HW132034   1.979   6.846  11.269
43379SOL    HW232035   1.868   6.782  11.189
43380SOL     OW32036   9.375   9.205  13.060
43380SOL    HW132037   9.326   9.263  13.000
43380SOL    HW232038   9.334   9.120  13.049
43381SOL     OW32039   2.510   2.510   8.019
43381SOL    HW132040   2.473   2.422   8.022
43381SOL    HW232041   2.507   2.535   7.927
43382SOL     OW32042   3.979  12.331   8.124
43382SOL    HW132043   3.903  12.274   8.119
43382SOL    HW232044   3.944  12.420   8.123
43383SOL     OW32045  10.759   4.017   4.352
43383SOL    HW132046  10.709   4.052   4.278
43383SOL    HW232047  10.850   4.038   4.332
43384SOL     OW32048   7.741   0.505   0.790
43384SOL    HW132049   7.780   0.435   0.843
43384SOL    HW232050   7.711   0.569   0.854
43385SOL     OW32051  12.060   4.002   9.582
43385SOL    HW132052  11.977   3.963   9.553
43385SOL    HW232053  12.113   4.008   9.502
43386SOL     OW32054   2.413  10.110   1.153
43386SOL    HW132055   2.370  10.099   1.237
43386SOL    HW232056   2.358  10.172   1.105
43387SOL     OW32057  12.089   6.538  10.300
43387SOL    HW132058  12.116   6.481  10.372
43387SOL    HW232059  12.059   6.479  10.232
43388SOL     OW32060   5.986   8.281   0.075
43388SOL    HW132061   6.027   8.203   0.112
43388SOL    HW232062   5.922   8.247   0.012
43389SOL     OW32063   9.929   1.115   8.030
43389SOL    HW132064   9.946   1.168   8.108
43389SOL    HW232065   9.847   1.070   8.048
43390SOL     OW32066   3.353  10.012   0.879
43390SOL    HW132067   3.302  10.066   0.818
43390SOL    HW232068   3.371   9.932   0.829
43391SOL     OW32069   4.922   9.790   2.019
43391SOL    HW132070   4.827   9.803   2.024
43391SOL    HW232071   4.954   9.864   1.967
43392SOL     OW32072  10.159  11.293  13.116
43392SOL    HW132073  10.082  11.346  13.096
43392SOL    HW232074  10.212  11.295  13.037
43393SOL     OW32075   9.232   7.799   3.727
43393SOL    HW132076   9.145   7.839   3.725
43393SOL    HW232077   9.289   7.867   3.763
43394SOL     OW32078   0.934  11.702  13.168
43394SOL    HW132079   1.023  11.728  13.144
43394SOL    HW232080   0.887  11.786  13.179
43395SOL     OW32081  14.104  11.303   1.304
43395SOL    HW132082  14.071  11.265   1.386
43395SOL    HW232083  14.084  11.396   1.312
43396SOL     OW32084   0.623   7.488   4.570
43396SOL    HW132085   0.702   7.522   4.528
43396SOL    HW232086   0.654   7.420   4.630
43397SOL     OW32087   2.783   2.263  12.400
43397SOL    HW132088   2.701   2.230  12.363
43397SOL    HW232089   2.805   2.339  12.347
43398SOL     OW32090  12.136   5.067   7.473
43398SOL    HW132091  12.171   5.143   7.519
43398SOL    HW232092  12.212   5.028   7.430
43399SOL     OW32093   3.961   9.978  11.186
43399SOL    HW132094   3.972   9.905  11.248
43399SOL    HW232095   3.984   9.941  11.101
43400SOL     OW32096  12.224  14.477   8.507
43400SOL    HW132097  12.299  14.469   8.448
43400SOL    HW232098  12.248  14.546   8.568
43401SOL     OW32099  10.153  12.837  10.866
43401SOL    HW132100  10.177  12.889  10.943
43401SOL    HW232101  10.099  12.896  10.814
43402SOL     OW32102  11.215  10.415  12.547
43402SOL    HW132103  11.292  10.391  12.599
43402SOL    HW232104  11.146  10.427  12.612
43403SOL     OW32105   6.336   7.072   6.809
43403SOL    HW132106   6.313   7.131   6.881
43403SOL    HW232107   6.431   7.066   6.812
43404SOL     OW32108   9.226   4.288   6.990
43404SOL    HW132109   9.319   4.305   6.979
43404SOL    HW232110   9.217   4.254   7.079
43405SOL     OW32111   6.306   6.379   9.065
43405SOL    HW132112   6.298   6.471   9.087
43405SOL    HW232113   6.225   6.358   9.018
43406SOL     OW32114   5.022  13.789   6.956
43406SOL    HW132115   5.086  13.725   6.925
43406SOL    HW232116   5.053  13.815   7.043
43407SOL     OW32117   7.119  12.164  11.593
43407SOL    HW132118   7.165  12.247  11.580
43407SOL    HW232119   7.092  12.136  11.505
43408SOL     OW32120   2.911  10.158   3.491
43408SOL    HW132121   2.847  10.230   3.495
43408SOL    HW232122   2.947  10.154   3.579
43409SOL     OW32123   6.512   6.577   2.290
43409SOL    HW132124   6.552   6.644   2.345
43409SOL    HW232125   6.474   6.514   2.352
43410SOL     OW32126   7.459  11.157  11.293
43410SOL    HW132127   7.514  11.199  11.360
43410SOL    HW232128   7.389  11.221  11.276
43411SOL     OW32129   4.671  13.080   5.937
43411SOL    HW132130   4.732  13.108   6.006
43411SOL    HW232131   4.713  13.109   5.856
43412SOL     OW32132  13.141   3.642  12.317
43412SOL    HW132133  13.214   3.612  12.263
43412SOL    HW232134  13.124   3.731  12.287
43413SOL     OW32135   2.470  11.523   9.702
43413SOL    HW132136   2.454  11.434   9.671
43413SOL    HW232137   2.503  11.512   9.791
43414SOL     OW32138   1.173   6.195  12.944
43414SOL    HW132139   1.143   6.111  12.978
43414SOL    HW232140   1.268   6.187  12.936
43415SOL     OW32141   9.644  14.479  11.329
43415SOL    HW132142   9.735  14.510  11.325
43415SOL    HW232143   9.651  14.384  11.334
43416SOL     OW32144   4.425   4.409   3.495
43416SOL    HW132145   4.354   4.362   3.453
43416SOL    HW232146   4.394   4.427   3.583
43417SOL     OW32147   8.046  11.140   0.464
43417SOL    HW132148   8.114  11.123   0.529
43417SOL    HW232149   7.991  11.062   0.465
43418SOL     OW32150  10.451  11.332   5.417
43418SOL    HW132151  10.529  11.359   5.368
43418SOL    HW232152  10.402  11.414   5.430
43419SOL     OW32153   7.213   5.361  13.082
43419SOL    HW132154   7.145   5.424  13.058
43419SOL    HW232155   7.293   5.396  13.042
43420SOL     OW32156   9.871  11.699   1.652
43420SOL    HW132157   9.940  11.727   1.591
43420SOL    HW232158   9.897  11.738   1.735
43421SOL     OW32159   5.505  12.263  13.520
43421SOL    HW132160   5.592  12.301  13.508
43421SOL    HW232161   5.448  12.339  13.534
43422SOL     OW32162   1.060  13.379   9.430
43422SOL    HW132163   0.979  13.391   9.479
43422SOL    HW232164   1.031  13.366   9.339
43423SOL     OW32165  13.431   7.454  11.922
43423SOL    HW132166  13.488   7.391  11.878
43423SOL    HW232167  13.353   7.403  11.945
43424SOL     OW32168  11.184   2.034  10.108
43424SOL    HW132169  11.186   1.941  10.129
43424SOL    HW232170  11.134   2.039  10.027
43425SOL     OW32171   0.569   3.365   4.402
43425SOL    HW132172   0.509   3.355   4.475
43425SOL    HW232173   0.513   3.387   4.327
43426SOL     OW32174   0.110  12.108   8.078
43426SOL    HW132175   0.122  12.081   7.987
43426SOL    HW232176   0.076  12.197   8.072
43427SOL     OW32177  14.075   0.230   1.286
43427SOL    HW132178  14.078   0.325   1.297
43427SOL    HW232179  14.125   0.213   1.206
43428SOL     OW32180   1.095  11.740  14.538
43428SOL    HW132181   1.108  11.649  14.510
43428SOL    HW232182   1.015  11.738  14.590
43429SOL     OW32183  10.739  13.229   2.299
43429SOL    HW132184  10.651  13.236   2.263
43429SOL    HW232185  10.790  13.293   2.249
43430SOL     OW32186   8.258  13.762   8.735
43430SOL    HW132187   8.346  13.727   8.747
43430SOL    HW232188   8.242  13.815   8.814
43431SOL     OW32189   2.211   7.062  14.853
43431SOL    HW132190   2.131   7.114  14.843
43431SOL    HW232191   2.210   7.002  14.779
43432SOL     OW32192   4.427   6.638   5.239
43432SOL    HW132193   4.453   6.673   5.324
43432SOL    HW232194   4.382   6.712   5.196
43433SOL     OW32195   8.112   9.570   0.465
43433SOL    HW132196   8.034   9.621   0.443
43433SOL    HW232197   8.185   9.619   0.429
43434SOL     OW32198  12.112   6.434   8.027
43434SOL    HW132199  12.093   6.474   8.112
43434SOL    HW232200  12.192   6.478   7.997
43435SOL     OW32201   9.466   2.105  14.035
43435SOL    HW132202   9.410   2.054  13.976
43435SOL    HW232203   9.410   2.178  14.064
43436SOL     OW32204  12.694   0.460  13.775
43436SOL    HW132205  12.611   0.506  13.791
43436SOL    HW232206  12.757   0.530  13.759
43437SOL     OW32207   5.125   7.821  12.805
43437SOL    HW132208   5.127   7.784  12.717
43437SOL    HW232209   5.124   7.745  12.863
43438SOL     OW32210   7.818   6.935   1.381
43438SOL    HW132211   7.872   6.859   1.357
43438SOL    HW232212   7.869   7.011   1.352
43439SOL     OW32213   1.194   7.155   1.033
43439SOL    HW132214   1.241   7.233   1.062
43439SOL    HW232215   1.258   7.084   1.041
43440SOL     OW32216   0.741   1.116   3.986
43440SOL    HW132217   0.660   1.159   3.959
43440SOL    HW232218   0.716   1.064   4.062
43441SOL     OW32219   0.090   8.503  10.408
43441SOL    HW132220   0.184   8.521  10.420
43441SOL    HW232221   0.088   8.415  10.371
43442SOL     OW32222   3.965   6.774   8.630
43442SOL    HW132223   4.051   6.800   8.597
43442SOL    HW232224   3.952   6.828   8.708
43443SOL     OW32225  10.260   5.393   8.805
43443SOL    HW132226  10.307   5.328   8.858
43443SOL    HW232227  10.329   5.449   8.770
43444SOL     OW32228   5.731  11.527   2.515
43444SOL    HW132229   5.724  11.623   2.512
43444SOL    HW232230   5.823  11.510   2.535
43445SOL     OW32231  12.486   0.351   0.507
43445SOL    HW132232  12.495   0.425   0.568
43445SOL    HW232233  12.408   0.306   0.537
43446SOL     OW32234   5.334  10.220  11.835
43446SOL    HW132235   5.367  10.148  11.782
43446SOL    HW232236   5.408  10.243  11.892
43447SOL     OW32237   8.891   6.705  14.811
43447SOL    HW132238   8.823   6.764  14.844
43447SOL    HW232239   8.910   6.738  14.723
43448SOL     OW32240   1.505   0.724  14.117
43448SOL    HW132241   1.584   0.720  14.171
43448SOL    HW232242   1.522   0.664  14.045
43449SOL     OW32243   2.735   4.818  13.370
43449SOL    HW132244   2.733   4.906  13.333
43449SOL    HW232245   2.661   4.773  13.329
43450SOL     OW32246   4.950   2.329  13.427
43450SOL    HW132247   4.884   2.352  13.492
43450SOL    HW232248   5.019   2.394  13.438
43451SOL     OW32249   4.694   2.828   1.331
43451SOL    HW132250   4.714   2.737   1.356
43451SOL    HW232251   4.778   2.861   1.297
43452SOL     OW32252   5.123   5.426   4.431
43452SOL    HW132253   5.136   5.513   4.470
43452SOL    HW232254   5.183   5.369   4.478
43453SOL     OW32255  10.665   9.441   0.830
43453SOL    HW132256  10.587   9.445   0.775
43453SOL    HW232257  10.704   9.356   0.812
43454SOL     OW32258   2.245   0.977  11.117
43454SOL    HW132259   2.207   0.895  11.147
43454SOL    HW232260   2.325   0.988  11.168
43455SOL     OW32261  11.958   1.622   4.983
43455SOL    HW132262  11.993   1.553   5.038
43455SOL    HW232263  12.017   1.696   4.996
43456SOL     OW32264  11.693  11.031   3.190
43456SOL    HW132265  11.666  10.940   3.177
43456SOL    HW232266  11.636  11.063   3.260
43457SOL     OW32267  13.280  10.324   4.313
43457SOL    HW132268  13.324  10.276   4.244
43457SOL    HW232269  13.278  10.415   4.282
43458SOL     OW32270  11.278   0.973  12.158
43458SOL    HW132271  11.253   1.023  12.235
43458SOL    HW232272  11.223   1.007  12.088
43459SOL     OW32273   0.274  12.296   6.978
43459SOL    HW132274   0.359  12.289   6.935
43459SOL    HW232275   0.260  12.390   6.987
43460SOL     OW32276   1.896  13.284   0.288
43460SOL    HW132277   1.926  13.212   0.232
43460SOL    HW232278   1.854  13.240   0.362
43461SOL     OW32279   3.291   8.867   7.281
43461SOL    HW132280   3.216   8.928   7.285
43461SOL    HW232281   3.341   8.886   7.360
43462SOL     OW32282   4.248   4.703   1.942
43462SOL    HW132283   4.267   4.781   1.993
43462SOL    HW232284   4.324   4.646   1.956
43463SOL     OW32285  13.861  10.755  11.076
43463SOL    HW132286  13.869  10.666  11.111
43463SOL    HW232287  13.782  10.753  11.023
43464SOL     OW32288   4.078   0.007   8.203
43464SOL    HW132289   4.170   0.016   8.181
43464SOL    HW232290   4.056  14.790   8.177
43465SOL     OW32291   8.931   4.495   4.889
43465SOL    HW132292   8.956   4.412   4.848
43465SOL    HW232293   8.913   4.472   4.980
43466SOL     OW32294   9.329   8.077   4.922
43466SOL    HW132295   9.402   8.029   4.884
43466SOL    HW232296   9.322   8.043   5.011
43467SOL     OW32297  10.619  14.356   4.309
43467SOL    HW132298  10.632  14.386   4.398
43467SOL    HW232299  10.581  14.432   4.263
43468SOL     OW32300  12.057   2.104   2.840
43468SOL    HW132301  12.039   2.166   2.769
43468SOL    HW232302  12.128   2.144   2.890
43469SOL     OW32303  13.331   7.646  11.723
43469SOL    HW132304  13.374   7.606  11.798
43469SOL    HW232305  13.399   7.649  11.655
43470SOL     OW32306   5.359   0.587   2.233
43470SOL    HW132307   5.318   0.625   2.311
43470SOL    HW232308   5.425   0.651   2.208
43471SOL     OW32309  10.519   1.413  11.959
43471SOL    HW132310  10.483   1.473  11.894
43471SOL    HW232311  10.582   1.465  12.008
43472SOL     OW32312   0.690  14.668   7.721
43472SOL    HW132313   0.713  14.739   7.662
43472SOL    HW232314   0.774  14.632   7.750
43473SOL     OW32315   7.738  14.306  11.933
43473SOL    HW132316   7.823  14.321  11.891
43473SOL    HW232317   7.710  14.222  11.898
43474SOL     OW32318   5.005   3.575   7.009
43474SOL    HW132319   4.939   3.593   7.077
43474SOL    HW232320   4.979   3.632   6.936
43475SOL     OW32321   6.191   5.460  10.733
43475SOL    HW132322   6.129   5.473  10.805
43475SOL    HW232323   6.277   5.457  10.776
43476SOL     OW32324   9.714   8.591   5.995
43476SOL    HW132325   9.780   8.582   6.064
43476SOL    HW232326   9.681   8.680   6.005
43477SOL     OW32327  14.248   7.295   0.456
43477SOL    HW132328  14.172   7.311   0.512
43477SOL    HW232329  14.226   7.338   0.373
43478SOL     OW32330  12.458   6.811   8.958
43478SOL    HW132331  12.515   6.735   8.948
43478SOL    HW232332  12.396   6.787   9.026
43479SOL     OW32333   1.050  12.289   7.704
43479SOL    HW132334   1.123  12.249   7.751
43479SOL    HW232335   1.018  12.220   7.645
43480SOL     OW32336   7.667   9.608  11.390
43480SOL    HW132337   7.738   9.671  11.381
43480SOL    HW232338   7.596   9.658  11.429
43481SOL     OW32339  11.826  11.298  11.840
43481SOL    HW132340  11.772  11.301  11.761
43481SOL    HW232341  11.828  11.388  11.871
43482SOL     OW32342  13.684   1.550   1.894
43482SOL    HW132343  13.591   1.531   1.905
43482SOL    HW232344  13.701   1.530   1.802
43483SOL     OW32345   5.331  10.833   5.864
43483SOL    HW132346   5.386  10.757   5.846
43483SOL    HW232347   5.261  10.828   5.799
43484SOL     OW32348   7.457   6.386   0.662
43484SOL    HW132349   7.495   6.318   0.717
43484SOL    HW232350   7.422   6.340   0.586
43485SOL     OW32351   3.482   3.585   4.836
43485SOL    HW132352   3.448   3.496   4.841
43485SOL    HW232353   3.406   3.638   4.811
43486SOL     OW32354   4.627  13.371   2.224
43486SOL    HW132355   4.654  13.462   2.209
43486SOL    HW232356   4.646  13.356   2.317
43487SOL     OW32357  10.715  14.420  12.753
43487SOL    HW132358  10.754  14.365  12.685
43487SOL    HW232359  10.741  14.379  12.836
43488SOL     OW32360  14.555  10.770   5.021
43488SOL    HW132361  14.564  10.830   5.095
43488SOL    HW232362  14.474  10.722   5.040
43489SOL     OW32363   4.476  10.437   9.226
43489SOL    HW132364   4.411  10.392   9.172
43489SOL    HW232365   4.558  10.391   9.210
43490SOL     OW32366   2.166   6.903   9.982
43490SOL    HW132367   2.235   6.836   9.985
43490SOL    HW232368   2.086   6.854   9.964
43491SOL     OW32369   9.375   6.955   6.970
43491SOL    HW132370   9.383   7.041   7.012
43491SOL    HW232371   9.400   6.893   7.038
43492SOL     OW32372  11.692   9.471  13.680
43492SOL    HW132373  11.700   9.527  13.602
43492SOL    HW232374  11.782   9.448  13.702
43493SOL     OW32375  11.249  12.145  13.948
43493SOL    HW132376  11.203  12.070  13.911
43493SOL    HW232377  11.281  12.193  13.872
43494SOL     OW32378   9.977   4.960   3.824
43494SOL    HW132379   9.920   5.035   3.840
43494SOL    HW232380  10.011   4.975   3.735
43495SOL     OW32381   1.299   4.523   1.392
43495SOL    HW132382   1.306   4.508   1.298
43495SOL    HW232383   1.322   4.616   1.403
43496SOL     OW32384  13.979   2.056  12.364
43496SOL    HW132385  13.885   2.049  12.380
43496SOL    HW232386  14.016   2.077  12.450
43497SOL     OW32387   6.806  13.144   7.812
43497SOL    HW132388   6.741  13.201   7.853
43497SOL    HW232389   6.798  13.164   7.718
43498SOL     OW32390   7.340   0.104  13.738
43498SOL    HW132391   7.321   0.190  13.700
43498SOL    HW232392   7.317   0.114  13.831
43499SOL     OW32393  10.260  12.615   7.343
43499SOL    HW132394  10.213  12.634   7.262
43499SOL    HW232395  10.336  12.674   7.341
43500SOL     OW32396  13.400  12.180  12.418
43500SOL    HW132397  13.410  12.085  12.407
43500SOL    HW232398  13.407  12.215  12.329
43501SOL     OW32399   3.094   1.552  13.965
43501SOL    HW132400   3.100   1.486  13.895
43501SOL    HW232401   3.075   1.634  13.919
43502SOL     OW32402  13.950   9.212   4.497
43502SOL    HW132403  13.934   9.120   4.474
43502SOL    HW232404  13.895   9.261   4.435
43503SOL     OW32405   5.660  12.663  14.591
43503SOL    HW132406   5.643  12.570  14.604
43503SOL    HW232407   5.665  12.674  14.496
43504SOL     OW32408   6.772   8.173   6.058
43504SOL    HW132409   6.679   8.174   6.081
43504SOL    HW232410   6.792   8.082   6.039
43505SOL     OW32411   9.676   2.934   4.869
43505SOL    HW132412   9.632   2.952   4.787
43505SOL    HW232413   9.633   2.991   4.933
43506SOL     OW32414   1.702   3.456   7.724
43506SOL    HW132415   1.745   3.381   7.764
43506SOL    HW232416   1.609   3.434   7.724
43507SOL     OW32417   2.129   5.949   1.702
43507SOL    HW132418   2.129   5.943   1.798
43507SOL    HW232419   2.164   5.864   1.674
43508SOL     OW32420  10.556  12.106   6.044
43508SOL    HW132421  10.626  12.109   5.979
43508SOL    HW232422  10.525  12.016   6.042
43509SOL     OW32423  12.170  12.468  12.999
43509SOL    HW132424  12.121  12.549  12.986
43509SOL    HW232425  12.106  12.399  12.981
43510SOL     OW32426   5.407   2.856   1.336
43510SOL    HW132427   5.372   2.858   1.247
43510SOL    HW232428   5.374   2.774   1.372
43511SOL     OW32429   2.156   6.045  10.290
43511SOL    HW132430   2.083   5.993  10.254
43511SOL    HW232431   2.200   6.080  10.212
43512SOL     OW32432  14.368   6.730   7.181
43512SOL    HW132433  14.340   6.722   7.272
43512SOL    HW232434  14.350   6.645   7.142
43513SOL     OW32435   2.966   3.889   6.113
43513SOL    HW132436   2.935   3.858   6.028
43513SOL    HW232437   3.062   3.884   6.106
43514SOL     OW32438   9.867  14.606  13.376
43514SOL    HW132439   9.917  14.525  13.368
43514SOL    HW232440   9.903  14.648  13.454
43515SOL     OW32441   8.041   0.477   1.631
43515SOL    HW132442   8.068   0.569   1.635
43515SOL    HW232443   7.946   0.480   1.635
43516SOL     OW32444   8.557  11.610   7.890
43516SOL    HW132445   8.560  11.605   7.795
43516SOL    HW232446   8.621  11.545   7.920
43517SOL     OW32447   2.596   1.730  11.333
43517SOL    HW132448   2.571   1.686  11.414
43517SOL    HW232449   2.620   1.819  11.360
43518SOL     OW32450   8.247   2.264   9.654
43518SOL    HW132451   8.309   2.198   9.685
43518SOL    HW232452   8.165   2.216   9.644
43519SOL     OW32453  14.395  11.146  12.630
43519SOL    HW132454  14.380  11.103  12.714
43519SOL    HW232455  14.361  11.235  12.642
43520SOL     OW32456   3.267  12.380   1.649
43520SOL    HW132457   3.287  12.287   1.651
43520SOL    HW232458   3.267  12.403   1.556
43521SOL     OW32459   4.649   3.226   5.166
43521SOL    HW132460   4.586   3.160   5.193
43521SOL    HW232461   4.630   3.242   5.074
43522SOL     OW32462   9.109  11.858   7.844
43522SOL    HW132463   9.073  11.774   7.875
43522SOL    HW232464   9.071  11.870   7.758
43523SOL     OW32465   4.296   3.992   9.215
43523SOL    HW132466   4.379   3.969   9.174
43523SOL    HW232467   4.230   3.972   9.148
43524SOL     OW32468   3.045   5.750   1.023
43524SOL    HW132469   3.090   5.736   0.940
43524SOL    HW232470   3.061   5.669   1.073
43525SOL     OW32471   0.590   8.439  14.797
43525SOL    HW132472   0.660   8.374  14.796
43525SOL    HW232473   0.600   8.486  14.714
43526SOL     OW32474  10.475  13.392   6.639
43526SOL    HW132475  10.422  13.398   6.559
43526SOL    HW232476  10.531  13.470   6.636
43527SOL     OW32477   2.780  11.142  14.197
43527SOL    HW132478   2.840  11.100  14.135
43527SOL    HW232479   2.719  11.191  14.142
43528SOL     OW32480   5.030   6.909   2.816
43528SOL    HW132481   4.948   6.862   2.830
43528SOL    HW232482   5.077   6.857   2.750
43529SOL     OW32483  10.012   7.331   4.235
43529SOL    HW132484  10.013   7.320   4.140
43529SOL    HW232485  10.037   7.422   4.249
43530SOL     OW32486   2.980   9.312  11.184
43530SOL    HW132487   3.058   9.367  11.184
43530SOL    HW232488   3.002   9.240  11.125
43531SOL     OW32489  11.377   5.318   9.766
43531SOL    HW132490  11.368   5.238   9.714
43531SOL    HW232491  11.342   5.294   9.853
43532SOL     OW32492   1.696   8.977   5.559
43532SOL    HW132493   1.651   9.018   5.633
43532SOL    HW232494   1.659   8.889   5.554
43533SOL     OW32495   8.961  10.504   3.116
43533SOL    HW132496   8.877  10.550   3.113
43533SOL    HW232497   9.026  10.574   3.129
43534SOL     OW32498   4.192   0.848  10.064
43534SOL    HW132499   4.221   0.934  10.093
43534SOL    HW232500   4.158   0.863   9.976
43535SOL     OW32501  10.825   7.259   3.879
43535SOL    HW132502  10.860   7.254   3.790
43535SOL    HW232503  10.785   7.346   3.883
43536SOL     OW32504  11.976   0.513   0.526
43536SOL    HW132505  11.885   0.533   0.543
43536SOL    HW232506  12.000   0.449   0.592
43537SOL     OW32507   7.433   9.833   2.052
43537SOL    HW132508   7.370   9.810   1.983
43537SOL    HW232509   7.488   9.901   2.013
43538SOL     OW32510   8.326   3.235  12.484
43538SOL    HW132511   8.363   3.213  12.569
43538SOL    HW232512   8.342   3.157  12.430
43539SOL     OW32513   1.691   2.365   1.466
43539SOL    HW132514   1.703   2.321   1.550
43539SOL    HW232515   1.746   2.316   1.405
43540SOL     OW32516  10.085   6.829   6.021
43540SOL    HW132517  10.089   6.831   5.926
43540SOL    HW232518  10.175   6.810   6.048
43541SOL     OW32519   3.954  11.287  10.249
43541SOL    HW132520   3.927  11.238  10.172
43541SOL    HW232521   4.024  11.344  10.218
43542SOL     OW32522  13.937   4.002  13.596
43542SOL    HW132523  14.021   4.006  13.551
43542SOL    HW232524  13.879   3.958  13.535
43543SOL     OW32525   3.541  11.844   6.890
43543SOL    HW132526   3.601  11.905   6.933
43543SOL    HW232527   3.457  11.860   6.931
43544SOL     OW32528  13.181   9.407  11.634
43544SOL    HW132529  13.243   9.426  11.565
43544SOL    HW232530  13.192   9.313  11.651
43545SOL     OW32531   1.858   1.522   3.599
43545SOL    HW132532   1.906   1.577   3.537
43545SOL    HW232533   1.868   1.568   3.683
43546SOL     OW32534  13.658  12.158   0.613
43546SOL    HW132535  13.596  12.088   0.634
43546SOL    HW232536  13.743  12.114   0.609
43547SOL     OW32537   1.602   1.963   2.679
43547SOL    HW132538   1.672   1.960   2.614
43547SOL    HW232539   1.608   1.879   2.725
43548SOL     OW32540  11.255   4.702   6.167
43548SOL    HW132541  11.240   4.610   6.187
43548SOL    HW232542  11.307   4.735   6.240
43549SOL     OW32543   2.305   2.916   1.303
43549SOL    HW132544   2.315   2.865   1.384
43549SOL    HW232545   2.347   2.863   1.236
43550SOL     OW32546   8.640  10.909   3.547
43550SOL    HW132547   8.585  10.870   3.615
43550SOL    HW232548   8.647  11.001   3.572
43551SOL     OW32549   2.110   8.959  13.284
43551SOL    HW132550   2.028   8.993  13.249
43551SOL    HW232551   2.084   8.901  13.355
43552SOL     OW32552   7.863  10.902   5.943
43552SOL    HW132553   7.942  10.849   5.933
43552SOL    HW232554   7.859  10.955   5.864
43553SOL     OW32555   6.751   7.921  12.348
43553SOL    HW132556   6.728   7.926  12.255
43553SOL    HW232557   6.755   8.012  12.377
43554SOL     OW32558   8.383  12.717   1.349
43554SOL    HW132559   8.325  12.644   1.328
43554SOL    HW232560   8.431  12.688   1.427
43555SOL     OW32561  13.054   8.736  14.849
43555SOL    HW132562  13.014   8.815  14.814
43555SOL    HW232563  13.088   8.690  14.772
43556SOL     OW32564  13.226   4.553  10.553
43556SOL    HW132565  13.306   4.524  10.596
43556SOL    HW232566  13.179   4.603  10.619
43557SOL     OW32567   1.033   4.698  10.391
43557SOL    HW132568   1.052   4.726  10.302
43557SOL    HW232569   1.032   4.602  10.386
43558SOL     OW32570   0.897   3.980   4.119
43558SOL    HW132571   0.966   4.017   4.063
43558SOL    HW232572   0.853   3.915   4.063
43559SOL     OW32573   5.773  13.951   4.565
43559SOL    HW132574   5.830  13.912   4.499
43559SOL    HW232575   5.822  13.945   4.647
43560SOL     OW32576  12.818   9.314  12.665
43560SOL    HW132577  12.786   9.331  12.576
43560SOL    HW232578  12.807   9.397  12.710
43561SOL     OW32579   1.998   5.784   5.468
43561SOL    HW132580   1.958   5.868   5.489
43561SOL    HW232581   1.926   5.722   5.470
43562SOL     OW32582   7.438  11.760  13.503
43562SOL    HW132583   7.437  11.701  13.579
43562SOL    HW232584   7.450  11.702  13.428
43563SOL     OW32585   1.946   9.502   3.893
43563SOL    HW132586   2.023   9.559   3.890
43563SOL    HW232587   1.972   9.425   3.842
43564SOL     OW32588  12.699  14.250   7.485
43564SOL    HW132589  12.674  14.201   7.564
43564SOL    HW232590  12.640  14.325   7.484
43565SOL     OW32591   0.813  11.299   2.658
43565SOL    HW132592   0.769  11.369   2.610
43565SOL    HW232593   0.742  11.241   2.687
43566SOL     OW32594   0.584   2.183  10.242
43566SOL    HW132595   0.581   2.088  10.239
43566SOL    HW232596   0.509   2.212  10.190
43567SOL     OW32597  12.102   5.120   9.097
43567SOL    HW132598  12.164   5.186   9.065
43567SOL    HW232599  12.146   5.037   9.082
43568SOL     OW32600   3.907   1.082   1.441
43568SOL    HW132601   3.897   1.050   1.531
43568SOL    HW232602   3.950   1.167   1.451
43569SOL     OW32603   5.510   6.654   5.269
43569SOL    HW132604   5.516   6.730   5.210
43569SOL    HW232605   5.585   6.600   5.245
43570SOL     OW32606  11.339   9.150  11.869
43570SOL    HW132607  11.325   9.225  11.927
43570SOL    HW232608  11.254   9.134  11.829
43571SOL     OW32609   9.620   5.669   0.602
43571SOL    HW132610   9.685   5.737   0.620
43571SOL    HW232611   9.613   5.620   0.684
43572SOL     OW32612   6.158   1.120   9.040
43572SOL    HW132613   6.139   1.207   9.075
43572SOL    HW232614   6.244   1.097   9.076
43573SOL     OW32615  13.856   5.014   4.572
43573SOL    HW132616  13.940   5.000   4.528
43573SOL    HW232617  13.865   4.968   4.655
43574SOL     OW32618   6.517   0.637   0.554
43574SOL    HW132619   6.539   0.591   0.473
43574SOL    HW232620   6.442   0.691   0.531
43575SOL     OW32621  14.216   3.042   4.447
43575SOL    HW132622  14.188   2.977   4.512
43575SOL    HW232623  14.225   3.123   4.497
43576SOL     OW32624   0.380   2.337   8.627
43576SOL    HW132625   0.329   2.325   8.708
43576SOL    HW232626   0.349   2.268   8.569
43577SOL     OW32627   7.948  13.258   4.197
43577SOL    HW132628   7.914  13.200   4.129
43577SOL    HW232629   7.869  13.286   4.245
43578SOL     OW32630   7.694  12.329   4.041
43578SOL    HW132631   7.681  12.304   4.133
43578SOL    HW232632   7.728  12.250   3.999
43579SOL     OW32633   9.228   8.282  12.526
43579SOL    HW132634   9.140   8.313  12.550
43579SOL    HW232635   9.258   8.344  12.460
43580SOL     OW32636   3.665   3.076  12.693
43580SOL    HW132637   3.711   3.089  12.776
43580SOL    HW232638   3.573   3.091  12.714
43581SOL     OW32639  10.913   3.691   7.399
43581SOL    HW132640  10.985   3.750   7.421
43581SOL    HW232641  10.861   3.687   7.479
43582SOL     OW32642   1.471   6.558   2.913
43582SOL    HW132643   1.436   6.611   2.842
43582SOL    HW232644   1.407   6.488   2.925
43583SOL     OW32645   5.749   3.248   9.617
43583SOL    HW132646   5.803   3.265   9.694
43583SOL    HW232647   5.741   3.333   9.574
43584SOL     OW32648   2.588  11.995  11.122
43584SOL    HW132649   2.583  11.946  11.204
43584SOL    HW232650   2.634  11.937  11.062
43585SOL     OW32651   7.257   2.770   4.698
43585SOL    HW132652   7.171   2.742   4.730
43585SOL    HW232653   7.253   2.866   4.700
43586SOL     OW32654   9.102   7.018   6.122
43586SOL    HW132655   9.112   7.033   6.216
43586SOL    HW232656   9.160   7.082   6.082
43587SOL     OW32657   9.766   4.088  10.391
43587SOL    HW132658   9.827   4.108  10.462
43587SOL    HW232659   9.680   4.082  10.433
43588SOL     OW32660  13.650  13.920   5.668
43588SOL    HW132661  13.588  13.923   5.741
43588SOL    HW232662  13.594  13.907   5.591
43589SOL     OW32663   5.524  10.226   7.209
43589SOL    HW132664   5.530  10.134   7.234
43589SOL    HW232665   5.452  10.229   7.146
43590SOL     OW32666  11.764   3.433   9.557
43590SOL    HW132667  11.791   3.347   9.589
43590SOL    HW232668  11.808   3.496   9.613
43591SOL     OW32669   2.331   8.739   7.955
43591SOL    HW132670   2.238   8.757   7.950
43591SOL    HW232671   2.338   8.646   7.934
43592SOL     OW32672   6.756   4.268   4.417
43592SOL    HW132673   6.755   4.308   4.330
43592SOL    HW232674   6.824   4.317   4.464
43593SOL     OW32675  12.489   2.390  11.294
43593SOL    HW132676  12.424   2.325  11.319
43593SOL    HW232677  12.473   2.405  11.201
43594SOL     OW32678   9.203   2.564   1.342
43594SOL    HW132679   9.295   2.590   1.351
43594SOL    HW232680   9.170   2.617   1.269
43595SOL     OW32681   4.671   7.522   7.669
43595SOL    HW132682   4.661   7.584   7.596
43595SOL    HW232683   4.592   7.469   7.666
43596SOL     OW32684   4.180   3.309  12.680
43596SOL    HW132685   4.119   3.243  12.712
43596SOL    HW232686   4.129   3.362  12.619
43597SOL     OW32687  11.914   0.214  14.322
43597SOL    HW132688  11.888   0.151  14.389
43597SOL    HW232689  11.835   0.227  14.270
43598SOL     OW32690   9.012   5.334   9.376
43598SOL    HW132691   8.992   5.399   9.444
43598SOL    HW232692   9.017   5.251   9.423
43599SOL     OW32693  13.561   8.695   9.947
43599SOL    HW132694  13.620   8.621   9.961
43599SOL    HW232695  13.500   8.692  10.021
43600SOL     OW32696   1.269   2.176   5.785
43600SOL    HW132697   1.210   2.234   5.738
43600SOL    HW232698   1.250   2.191   5.878
43601SOL     OW32699   2.350  14.723   4.160
43601SOL    HW132700   2.412  14.749   4.091
43601SOL    HW232701   2.406  14.699   4.234
43602SOL     OW32702  10.530  11.776   1.367
43602SOL    HW132703  10.527  11.761   1.272
43602SOL    HW232704  10.573  11.861   1.377
43603SOL     OW32705  10.524   7.051   1.512
43603SOL    HW132706  10.585   7.012   1.449
43603SOL    HW232707  10.504   6.980   1.574
43604SOL     OW32708  12.808   6.708  10.112
43604SOL    HW132709  12.875   6.689  10.177
43604SOL    HW232710  12.734   6.742  10.162
43605SOL     OW32711   6.316  12.509  12.608
43605SOL    HW132712   6.286  12.590  12.568
43605SOL    HW232713   6.237  12.468  12.642
43606SOL     OW32714   3.460   8.816   4.510
43606SOL    HW132715   3.532   8.778   4.561
43606SOL    HW232716   3.472   8.911   4.519
43607SOL     OW32717   4.621  10.457   7.306
43607SOL    HW132718   4.672  10.473   7.385
43607SOL    HW232719   4.536  10.498   7.324
43608SOL     OW32720   1.878   8.708   3.997
43608SOL    HW132721   1.787   8.735   3.988
43608SOL    HW232722   1.920   8.741   3.917
43609SOL     OW32723  11.667  13.144   5.457
43609SOL    HW132724  11.623  13.228   5.457
43609SOL    HW232725  11.754  13.162   5.494
43610SOL     OW32726   1.475   6.347   8.249
43610SOL    HW132727   1.473   6.296   8.329
43610SOL    HW232728   1.542   6.305   8.195
43611SOL     OW32729  13.757   5.936  10.836
43611SOL    HW132730  13.702   5.863  10.864
43611SOL    HW232731  13.697   5.996  10.792
43612SOL     OW32732  10.120  13.295  13.555
43612SOL    HW132733  10.072  13.223  13.597
43612SOL    HW232734  10.140  13.262  13.467
43613SOL     OW32735   1.219  10.473  12.629
43613SOL    HW132736   1.273  10.536  12.582
43613SOL    HW232737   1.276  10.397  12.640
43614SOL     OW32738   1.884   1.758   0.564
43614SOL    HW132739   1.940   1.681   0.551
43614SOL    HW232740   1.883   1.802   0.480
43615SOL     OW32741   9.293   2.984  10.932
43615SOL    HW132742   9.302   2.983  10.837
43615SOL    HW232743   9.290   3.076  10.955
43616SOL     OW32744  12.281   0.188  10.537
43616SOL    HW132745  12.374   0.166  10.539
43616SOL    HW232746  12.270   0.250  10.608
43617SOL     OW32747  13.365  13.753   2.604
43617SOL    HW132748  13.296  13.766   2.669
43617SOL    HW232749  13.355  13.662   2.576
43618SOL     OW32750  11.429  11.556   7.482
43618SOL    HW132751  11.493  11.604   7.534
43618SOL    HW232752  11.414  11.612   7.406
43619SOL     OW32753  10.429   6.713   5.386
43619SOL    HW132754  10.487   6.789   5.378
43619SOL    HW232755  10.480   6.640   5.351
43620SOL     OW32756   3.838  14.797  13.260
43620SOL    HW132757   3.888  14.820  13.339
43620SOL    HW232758   3.753  14.838  13.273
43621SOL     OW32759  14.667   9.709   4.172
43621SOL    HW132760  14.718   9.760   4.236
43621SOL    HW232761  14.675   9.758   4.090
43622SOL     OW32762   8.800  14.769   2.237
43622SOL    HW132763   8.785  14.840   2.175
43622SOL    HW232764   8.895  14.761   2.242
43623SOL     OW32765  13.258   4.581   5.378
43623SOL    HW132766  13.353   4.586   5.369
43623SOL    HW232767  13.225   4.660   5.336
43624SOL     OW32768  12.995   0.794   9.443
43624SOL    HW132769  13.053   0.820   9.515
43624SOL    HW232770  12.965   0.877   9.406
43625SOL     OW32771   0.626   6.782   4.806
43625SOL    HW132772   0.613   6.727   4.728
43625SOL    HW232773   0.567   6.743   4.871
43626SOL     OW32774   6.176   3.983  13.658
43626SOL    HW132775   6.110   3.919  13.684
43626SOL    HW232776   6.202   3.957  13.570
43627SOL     OW32777   2.491   7.738   2.859
43627SOL    HW132778   2.418   7.781   2.905
43627SOL    HW232779   2.477   7.644   2.875
43628SOL     OW32780  13.481   5.483  10.383
43628SOL    HW132781  13.517   5.478  10.295
43628SOL    HW232782  13.553   5.515  10.437
43629SOL     OW32783  13.340  10.291   3.460
43629SOL    HW132784  13.249  10.261   3.460
43629SOL    HW232785  13.334  10.385   3.481
43630SOL     OW32786   7.786   5.412  13.047
43630SOL    HW132787   7.842   5.368  12.983
43630SOL    HW232788   7.725   5.344  13.076
43631SOL     OW32789   7.401   5.740  12.030
43631SOL    HW132790   7.372   5.684  12.102
43631SOL    HW232791   7.357   5.706  11.953
43632SOL     OW32792  10.938   0.247  11.564
43632SOL    HW132793  11.010   0.267  11.504
43632SOL    HW232794  10.903   0.333  11.588
43633SOL     OW32795   5.347  13.079  12.058
43633SOL    HW132796   5.349  13.149  12.122
43633SOL    HW232797   5.292  13.113  11.987
43634SOL     OW32798  14.507   0.308   0.186
43634SOL    HW132799  14.488   0.383   0.130
43634SOL    HW232800  14.422   0.277   0.216
43635SOL     OW32801   4.292  11.860  13.533
43635SOL    HW132802   4.278  11.851  13.627
43635SOL    HW232803   4.203  11.860  13.496
43636SOL     OW32804  14.638   0.090  12.055
43636SOL    HW132805  14.575   0.024  12.029
43636SOL    HW232806  14.604   0.172  12.019
43637SOL     OW32807   5.671   7.582   1.776
43637SOL    HW132808   5.620   7.661   1.791
43637SOL    HW232809   5.760   7.612   1.761
43638SOL     OW32810  10.796   5.178   7.371
43638SOL    HW132811  10.863   5.112   7.349
43638SOL    HW232812  10.799   5.239   7.297
43639SOL     OW32813   7.177   6.298   2.915
43639SOL    HW132814   7.266   6.325   2.940
43639SOL    HW232815   7.121   6.336   2.983
43640SOL     OW32816  14.809   7.098   2.222
43640SOL    HW132817  14.743   7.146   2.172
43640SOL    HW232818  14.844   7.033   2.161
43641SOL     OW32819   4.668   3.637   3.395
43641SOL    HW132820   4.670   3.694   3.471
43641SOL    HW232821   4.677   3.697   3.320
43642SOL     OW32822  10.938  10.041   3.568
43642SOL    HW132823  10.857  10.081   3.538
43642SOL    HW232824  10.935  10.051   3.664
43643SOL     OW32825   2.520   6.032   5.228
43643SOL    HW132826   2.425   6.026   5.238
43643SOL    HW232827   2.537   5.999   5.140
43644SOL     OW32828  11.228  12.176  10.802
43644SOL    HW132829  11.277  12.098  10.776
43644SOL    HW232830  11.142  12.143  10.828
43645SOL     OW32831   3.222   1.686   0.457
43645SOL    HW132832   3.176   1.680   0.541
43645SOL    HW232833   3.170   1.633   0.397
43646SOL     OW32834   2.813  13.996  11.541
43646SOL    HW132835   2.867  14.048  11.481
43646SOL    HW232836   2.876  13.951  11.597
43647SOL     OW32837   7.746   4.159  13.445
43647SOL    HW132838   7.782   4.114  13.368
43647SOL    HW232839   7.717   4.244  13.412
43648SOL     OW32840   5.675   3.126   8.509
43648SOL    HW132841   5.647   3.215   8.530
43648SOL    HW232842   5.735   3.136   8.435
43649SOL     OW32843   3.922   0.377   5.398
43649SOL    HW132844   3.946   0.462   5.435
43649SOL    HW232845   3.978   0.368   5.321
43650SOL     OW32846   1.752   0.388   9.349
43650SOL    HW132847   1.671   0.439   9.354
43650SOL    HW232848   1.723   0.297   9.345
43651SOL     OW32849   3.637  12.159   5.691
43651SOL    HW132850   3.712  12.109   5.659
43651SOL    HW232851   3.674  12.218   5.757
43652SOL     OW32852   3.234  13.253  12.061
43652SOL    HW132853   3.197  13.336  12.090
43652SOL    HW232854   3.288  13.276  11.985
43653SOL     OW32855   4.015   3.632  10.101
43653SOL    HW132856   4.082   3.564  10.090
43653SOL    HW232857   4.062   3.705  10.141
43654SOL     OW32858   0.300   8.859  10.350
43654SOL    HW132859   0.285   8.835  10.441
43654SOL    HW232860   0.369   8.799  10.320
43655SOL     OW32861  10.726  12.515   3.588
43655SOL    HW132862  10.635  12.544   3.579
43655SOL    HW232863  10.762  12.522   3.499
43656SOL     OW32864  10.533   2.461   6.955
43656SOL    HW132865  10.553   2.548   6.989
43656SOL    HW232866  10.606   2.440   6.897
43657SOL     OW32867   4.073   4.334   9.696
43657SOL    HW132868   4.128   4.261   9.667
43657SOL    HW232869   3.992   4.325   9.645
43658SOL     OW32870  11.208   0.968  14.449
43658SOL    HW132871  11.197   0.913  14.526
43658SOL    HW232872  11.188   1.056  14.479
43659SOL     OW32873  13.626   3.441   3.757
43659SOL    HW132874  13.673   3.376   3.705
43659SOL    HW232875  13.572   3.389   3.817
43660SOL     OW32876   5.477   6.986  11.718
43660SOL    HW132877   5.530   6.990  11.639
43660SOL    HW232878   5.512   7.057  11.773
43661SOL     OW32879   1.472   5.520  10.488
43661SOL    HW132880   1.376   5.523  10.485
43661SOL    HW232881   1.494   5.551  10.575
43662SOL     OW32882   0.014   3.429   6.850
43662SOL    HW132883   0.062   3.506   6.820
43662SOL    HW232884  14.869   3.378   6.770
43663SOL     OW32885   7.913   3.598  12.958
43663SOL    HW132886   7.998   3.635  12.982
43663SOL    HW232887   7.855   3.673  12.952
43664SOL     OW32888  12.737   4.071   2.557
43664SOL    HW132889  12.770   4.130   2.625
43664SOL    HW232890  12.691   4.002   2.606
43665SOL     OW32891   8.051   0.010  14.190
43665SOL    HW132892   8.039  14.808  14.131
43665SOL    HW232893   8.039  14.846  14.278
43666SOL     OW32894  14.069   0.828  10.978
43666SOL    HW132895  14.110   0.752  10.937
43666SOL    HW232896  14.059   0.891  10.907
43667SOL     OW32897   3.549  13.592   0.587
43667SOL    HW132898   3.525  13.594   0.680
43667SOL    HW232899   3.600  13.512   0.577
43668SOL     OW32900   7.079  13.037  14.602
43668SOL    HW132901   7.018  13.107  14.625
43668SOL    HW232902   7.145  13.080  14.547
43669SOL     OW32903   5.233   2.930   7.851
43669SOL    HW132904   5.166   2.866   7.875
43669SOL    HW232905   5.249   2.979   7.932
43670SOL     OW32906   4.141   3.369   0.913
43670SOL    HW132907   4.180   3.397   0.830
43670SOL    HW232908   4.151   3.274   0.913
43671SOL     OW32909  12.763   5.882   6.548
43671SOL    HW132910  12.684   5.936   6.540
43671SOL    HW232911  12.774   5.871   6.643
43672SOL     OW32912   6.874   5.009  10.810
43672SOL    HW132913   6.896   4.942  10.745
43672SOL    HW232914   6.949   5.010  10.870
43673SOL     OW32915  11.515   3.961   5.803
43673SOL    HW132916  11.460   3.921   5.870
43673SOL    HW232917  11.598   3.979   5.847
43674SOL     OW32918   3.109  11.766   8.250
43674SOL    HW132919   3.102  11.696   8.314
43674SOL    HW232920   3.064  11.840   8.290
43675SOL     OW32921   8.669  11.328   7.843
43675SOL    HW132922   8.751  11.285   7.869
43675SOL    HW232923   8.673  11.330   7.747
43676SOL     OW32924  13.930  12.870   8.960
43676SOL    HW132925  13.931  12.964   8.976
43676SOL    HW232926  13.912  12.831   9.045
43677SOL     OW32927   1.238  10.198  10.788
43677SOL    HW132928   1.207  10.241  10.708
43677SOL    HW232929   1.171  10.218  10.853
43678SOL     OW32930   2.569  11.834  12.157
43678SOL    HW132931   2.514  11.780  12.100
43678SOL    HW232932   2.654  11.837  12.113
43679SOL     OW32933  12.519  14.829   3.115
43679SOL    HW132934  12.469  14.828   3.033
43679SOL    HW232935  12.608  14.853   3.089
43680SOL     OW32936   0.558   2.301  14.541
43680SOL    HW132937   0.602   2.361  14.601
43680SOL    HW232938   0.601   2.217  14.555
43681SOL     OW32939  10.350  11.078   8.196
43681SOL    HW132940  10.341  11.167   8.163
43681SOL    HW232941  10.260  11.052   8.220
43682SOL     OW32942  11.667   8.517  12.539
43682SOL    HW132943  11.735   8.546  12.600
43682SOL    HW232944  11.704   8.439  12.497
43683SOL     OW32945   3.667   4.847  10.461
43683SOL    HW132946   3.643   4.772  10.516
43683SOL    HW232947   3.724   4.900  10.516
43684SOL     OW32948   5.441   6.006   6.226
43684SOL    HW132949   5.502   6.080   6.230
43684SOL    HW232950   5.494   5.930   6.248
43685SOL     OW32951   8.106   1.036   5.481
43685SOL    HW132952   8.128   1.046   5.573
43685SOL    HW232953   8.187   1.052   5.434
43686SOL     OW32954   1.431  10.819   0.510
43686SOL    HW132955   1.445  10.734   0.552
43686SOL    HW232956   1.373  10.800   0.436
43687SOL     OW32957  10.728  13.478  11.931
43687SOL    HW132958  10.664  13.547  11.947
43687SOL    HW232959  10.684  13.417  11.872
43688SOL     OW32960   6.968  11.668  13.390
43688SOL    HW132961   6.907  11.741  13.383
43688SOL    HW232962   6.987  11.643  13.300
43689SOL     OW32963  10.807   5.749   9.293
43689SOL    HW132964  10.855   5.772   9.373
43689SOL    HW232965  10.715   5.765   9.316
43690SOL     OW32966   0.707   0.122  11.940
43690SOL    HW132967   0.752   0.056  11.887
43690SOL    HW232968   0.614   0.111  11.918
43691SOL     OW32969  10.513   4.042   3.536
43691SOL    HW132970  10.500   3.974   3.602
43691SOL    HW232971  10.424   4.062   3.504
43692SOL     OW32972   0.660   9.979  10.866
43692SOL    HW132973   0.731  10.036  10.836
43692SOL    HW232974   0.676   9.968  10.960
43693SOL     OW32975   6.047  10.050   0.614
43693SOL    HW132976   5.960  10.031   0.579
43693SOL    HW232977   6.107   9.995   0.563
43694SOL     OW32978   6.578   9.368   3.420
43694SOL    HW132979   6.643   9.308   3.457
43694SOL    HW232980   6.548   9.326   3.340
43695SOL     OW32981   0.467  11.679  13.359
43695SOL    HW132982   0.525  11.646  13.427
43695SOL    HW232983   0.491  11.631  13.280
43696SOL     OW32984  13.660   8.278   9.814
43696SOL    HW132985  13.660   8.196   9.862
43696SOL    HW232986  13.671   8.252   9.722
43697SOL     OW32987   4.007   2.191  12.167
43697SOL    HW132988   4.056   2.111  12.148
43697SOL    HW232989   3.976   2.179  12.257
43698SOL     OW32990   0.329  11.858  13.508
43698SOL    HW132991   0.344  11.853  13.413
43698SOL    HW232992   0.417  11.862  13.545
43699SOL     OW32993   4.284   0.447   3.628
43699SOL    HW132994   4.194   0.460   3.657
43699SOL    HW232995   4.335   0.507   3.682
43700SOL     OW32996  11.622   0.902   8.738
43700SOL    HW132997  11.695   0.916   8.798
43700SOL    HW232998  11.604   0.809   8.743
43701SOL     OW32999   2.414   6.309  12.897
43701SOL    HW133000   2.439   6.350  12.980
43701SOL    HW233001   2.462   6.359  12.831
43702SOL     OW33002  11.473  13.610   2.971
43702SOL    HW133003  11.546  13.570   2.923
43702SOL    HW233004  11.508  13.694   3.000
43703SOL     OW33005  12.465   2.737   5.112
43703SOL    HW133006  12.467   2.779   5.026
43703SOL    HW233007  12.374   2.747   5.142
43704SOL     OW33008   3.225  10.912  12.282
43704SOL    HW133009   3.133  10.887  12.292
43704SOL    HW233010   3.227  10.965  12.202
43705SOL     OW33011   3.834   5.911   9.178
43705SOL    HW133012   3.888   5.980   9.216
43705SOL    HW233013   3.829   5.934   9.085
43706SOL     OW33014   2.102  13.774   1.545
43706SOL    HW133015   2.086  13.856   1.591
43706SOL    HW233016   2.020  13.725   1.553
43707SOL     OW33017  13.126   6.909   2.356
43707SOL    HW133018  13.158   6.863   2.433
43707SOL    HW233019  13.074   6.981   2.391
43708SOL     OW33020   5.362   6.231   9.153
43708SOL    HW133021   5.412   6.152   9.173
43708SOL    HW233022   5.318   6.212   9.070
43709SOL     OW33023   7.275   9.135   9.656
43709SOL    HW133024   7.195   9.128   9.709
43709SOL    HW233025   7.242   9.159   9.569
43710SOL     OW33026   0.297  10.746  12.159
43710SOL    HW133027   0.248  10.758  12.240
43710SOL    HW233028   0.249  10.797  12.094
43711SOL     OW33029   0.779   9.629   4.974
43711SOL    HW133030   0.733   9.711   4.959
43711SOL    HW233031   0.749   9.599   5.060
43712SOL     OW33032   0.888   0.382   6.983
43712SOL    HW133033   0.976   0.378   7.020
43712SOL    HW233034   0.902   0.405   6.891
43713SOL     OW33035   2.311  11.264  10.831
43713SOL    HW133036   2.285  11.187  10.780
43713SOL    HW233037   2.258  11.335  10.797
43714SOL     OW33038   7.368   1.912   9.690
43714SOL    HW133039   7.434   1.964   9.644
43714SOL    HW233040   7.293   1.911   9.631
43715SOL     OW33041  13.008   6.134  12.256
43715SOL    HW133042  12.939   6.191  12.290
43715SOL    HW233043  13.011   6.061  12.318
43716SOL     OW33044  14.445   6.672   3.238
43716SOL    HW133045  14.535   6.643   3.255
43716SOL    HW233046  14.390   6.606   3.279
43717SOL     OW33047   8.232   8.754  12.342
43717SOL    HW133048   8.283   8.686  12.297
43717SOL    HW233049   8.141   8.726  12.333
43718SOL     OW33050   6.308  10.493  11.559
43718SOL    HW133051   6.261  10.548  11.621
43718SOL    HW233052   6.281  10.403  11.581
43719SOL     OW33053  12.019  13.908   2.866
43719SOL    HW133054  12.104  13.947   2.846
43719SOL    HW233055  11.981  13.890   2.780
43720SOL     OW33056   1.585   9.735   0.336
43720SOL    HW133057   1.665   9.716   0.385
43720SOL    HW233058   1.516   9.739   0.403
43721SOL     OW33059   1.123  14.695  14.695
43721SOL    HW133060   1.070  14.705  14.775
43721SOL    HW233061   1.074  14.742  14.628
43722SOL     OW33062  11.772   0.962   9.184
43722SOL    HW133063  11.805   0.994   9.099
43722SOL    HW233064  11.787   1.035   9.244
43723SOL     OW33065   8.669  14.871   1.955
43723SOL    HW133066   8.694   0.062   1.888
43723SOL    HW233067   8.681   0.045   2.038
43724SOL     OW33068  13.545  12.406   5.890
43724SOL    HW133069  13.611  12.362   5.942
43724SOL    HW233070  13.593  12.472   5.841
43725SOL     OW33071   4.734   4.235  14.234
43725SOL    HW133072   4.647   4.202  14.211
43725SOL    HW233073   4.737   4.323  14.196
43726SOL     OW33074  11.687   6.219   6.041
43726SOL    HW133075  11.671   6.127   6.063
43726SOL    HW233076  11.601   6.254   6.018
43727SOL     OW33077  13.032  10.886   3.871
43727SOL    HW133078  12.992  10.905   3.786
43727SOL    HW233079  13.126  10.887   3.853
43728SOL     OW33080  14.446  12.930   1.263
43728SOL    HW133081  14.379  12.885   1.314
43728SOL    HW233082  14.405  13.014   1.239
43729SOL     OW33083  12.194   6.444   7.068
43729SOL    HW133084  12.133   6.401   7.128
43729SOL    HW233085  12.147   6.521   7.037
43730SOL     OW33086   6.468  11.775  14.715
43730SOL    HW133087   6.447  11.724  14.793
43730SOL    HW233088   6.547  11.734  14.680
43731SOL     OW33089   0.216   6.643  13.316
43731SOL    HW133090   0.231   6.660  13.223
43731SOL    HW233091   0.124   6.619  13.322
43732SOL     OW33092   3.736   0.458   9.419
43732SOL    HW133093   3.805   0.496   9.364
43732SOL    HW233094   3.707   0.381   9.370
43733SOL     OW33095   0.902   3.164   4.943
43733SOL    HW133096   0.981   3.197   4.987
43733SOL    HW233097   0.868   3.097   5.003
43734SOL     OW33098   2.515  14.009   9.243
43734SOL    HW133099   2.488  13.981   9.156
43734SOL    HW233100   2.580  14.077   9.227
43735SOL     OW33101  13.885   2.930   6.657
43735SOL    HW133102  13.971   2.962   6.631
43735SOL    HW233103  13.861   2.868   6.588
43736SOL     OW33104   9.730   2.472  10.039
43736SOL    HW133105   9.776   2.551  10.068
43736SOL    HW233106   9.711   2.487   9.947
43737SOL     OW33107   3.605   9.773   3.366
43737SOL    HW133108   3.637   9.851   3.411
43737SOL    HW233109   3.601   9.706   3.435
43738SOL     OW33110   5.870   0.032  10.282
43738SOL    HW133111   5.960   0.063  10.275
43738SOL    HW233112   5.847   0.003  10.194
43739SOL     OW33113   7.534   5.222   4.244
43739SOL    HW133114   7.472   5.174   4.190
43739SOL    HW233115   7.588   5.271   4.182
43740SOL     OW33116  13.927   0.046   3.285
43740SOL    HW133117  13.858  14.861   3.252
43740SOL    HW233118  14.007  14.867   3.278
43741SOL     OW33119   0.633   4.808   0.945
43741SOL    HW133120   0.715   4.759   0.948
43741SOL    HW233121   0.623   4.833   0.854
43742SOL     OW33122   4.940  13.732  12.272
43742SOL    HW133123   4.914  13.682  12.195
43742SOL    HW233124   4.861  13.737  12.326
43743SOL     OW33125  13.049   9.592   1.791
43743SOL    HW133126  13.133   9.577   1.747
43743SOL    HW233127  13.038   9.516   1.847
43744SOL     OW33128   4.734   6.320   1.459
43744SOL    HW133129   4.808   6.281   1.412
43744SOL    HW233130   4.760   6.315   1.551
43745SOL     OW33131   3.022  14.661  13.977
43745SOL    HW133132   2.982  14.576  13.999
43745SOL    HW233133   3.019  14.710  14.059
43746SOL     OW33134   4.980   7.404  10.229
43746SOL    HW133135   5.054   7.464  10.237
43746SOL    HW233136   5.018   7.324  10.193
43747SOL     OW33137   0.282   2.094   8.032
43747SOL    HW133138   0.323   2.027   8.085
43747SOL    HW233139   0.252   2.048   7.953
43748SOL     OW33140   7.630   8.617   8.729
43748SOL    HW133141   7.586   8.670   8.663
43748SOL    HW233142   7.705   8.669   8.756
43749SOL     OW33143   6.030  10.315  14.536
43749SOL    HW133144   6.067  10.350  14.455
43749SOL    HW233145   5.970  10.246  14.507
43750SOL     OW33146   0.882   8.961   1.879
43750SOL    HW133147   0.916   9.049   1.863
43750SOL    HW233148   0.819   8.946   1.809
43751SOL     OW33149  10.263   0.726  13.560
43751SOL    HW133150  10.191   0.785  13.538
43751SOL    HW233151  10.285   0.683  13.477
43752SOL     OW33152   3.494   8.474   4.744
43752SOL    HW133153   3.493   8.388   4.784
43752SOL    HW233154   3.495   8.457   4.650
43753SOL     OW33155  11.227   6.541  14.684
43753SOL    HW133156  11.295   6.578  14.740
43753SOL    HW233157  11.193   6.466  14.733
43754SOL     OW33158   4.391   3.240  13.260
43754SOL    HW133159   4.374   3.152  13.294
43754SOL    HW233160   4.416   3.225  13.168
43755SOL     OW33161  11.833  11.462   6.643
43755SOL    HW133162  11.818  11.524   6.572
43755SOL    HW233163  11.916  11.489   6.682
43756SOL     OW33164  10.426   5.130   7.825
43756SOL    HW133165  10.505   5.161   7.869
43756SOL    HW233166  10.455   5.107   7.737
43757SOL     OW33167  12.364   7.689   7.656
43757SOL    HW133168  12.399   7.600   7.662
43757SOL    HW233169  12.436   7.741   7.621
43758SOL     OW33170  13.731   9.869   8.499
43758SOL    HW133171  13.679   9.906   8.428
43758SOL    HW233172  13.822   9.879   8.470
43759SOL     OW33173   8.978   9.826   5.500
43759SOL    HW133174   8.886   9.842   5.481
43759SOL    HW233175   8.977   9.788   5.588
43760SOL     OW33176   8.601  12.833   7.684
43760SOL    HW133177   8.621  12.843   7.777
43760SOL    HW233178   8.628  12.743   7.663
43761SOL     OW33179  13.878   6.546   5.328
43761SOL    HW133180  13.833   6.612   5.276
43761SOL    HW233181  13.884   6.470   5.270
43762SOL     OW33182   0.055   9.233  14.700
43762SOL    HW133183  14.835   9.238  14.726
43762SOL    HW233184   0.072   9.139  14.691
43763SOL     OW33185  13.232   5.483   9.585
43763SOL    HW133186  13.275   5.424   9.524
43763SOL    HW233187  13.296   5.499   9.654
43764SOL     OW33188  11.930   2.998  13.884
43764SOL    HW133189  11.957   2.926  13.941
43764SOL    HW233190  11.835   3.000  13.891
43765SOL     OW33191  11.413   1.705  13.897
43765SOL    HW133192  11.336   1.653  13.918
43765SOL    HW233193  11.430   1.757  13.976
43766SOL     OW33194   9.218   2.977   9.465
43766SOL    HW133195   9.132   3.011   9.492
43766SOL    HW233196   9.209   2.965   9.370
43767SOL     OW33197   1.813   9.375   4.586
43767SOL    HW133198   1.881   9.338   4.530
43767SOL    HW233199   1.800   9.310   4.655
43768SOL     OW33200   4.941   4.373   3.265
43768SOL    HW133201   4.964   4.441   3.328
43768SOL    HW233202   4.846   4.364   3.273
43769SOL     OW33203  14.042   2.287   5.136
43769SOL    HW133204  14.056   2.233   5.214
43769SOL    HW233205  14.085   2.370   5.157
43770SOL     OW33206  12.114   1.221   1.236
43770SOL    HW133207  12.045   1.183   1.181
43770SOL    HW233208  12.071   1.291   1.284
43771SOL     OW33209   7.123   9.137   1.111
43771SOL    HW133210   7.151   9.106   1.025
43771SOL    HW233211   7.194   9.194   1.140
43772SOL     OW33212   3.556   2.812  12.122
43772SOL    HW133213   3.540   2.737  12.181
43772SOL    HW233214   3.585   2.773  12.040
43773SOL     OW33215  10.298   1.721   8.802
43773SOL    HW133216  10.224   1.737   8.860
43773SOL    HW233217  10.269   1.751   8.716
43774SOL     OW33218   7.244   0.753   5.810
43774SOL    HW133219   7.156   0.779   5.782
43774SOL    HW233220   7.296   0.834   5.804
43775SOL     OW33221   3.185   3.092  11.204
43775SOL    HW133222   3.189   3.001  11.174
43775SOL    HW233223   3.215   3.089  11.295
43776SOL     OW33224   2.214  14.522  13.071
43776SOL    HW133225   2.174  14.586  13.130
43776SOL    HW233226   2.180  14.438  13.103
43777SOL     OW33227   3.842  14.001   9.828
43777SOL    HW133228   3.832  14.079   9.883
43777SOL    HW233229   3.812  14.029   9.741
43778SOL     OW33230   0.555  14.805   6.154
43778SOL    HW133231   0.597  14.735   6.103
43778SOL    HW233232   0.478  14.829   6.103
43779SOL     OW33233   0.289  11.174   0.351
43779SOL    HW133234   0.221  11.107   0.343
43779SOL    HW233235   0.371  11.125   0.347
43780SOL     OW33236   6.206   5.431   8.931
43780SOL    HW133237   6.176   5.383   9.008
43780SOL    HW233238   6.248   5.510   8.967
43781SOL     OW33239  13.845   4.299   9.863
43781SOL    HW133240  13.758   4.339   9.873
43781SOL    HW233241  13.901   4.350   9.922
43782SOL     OW33242   7.545  10.725  10.748
43782SOL    HW133243   7.484  10.786  10.707
43782SOL    HW233244   7.596  10.778  10.809
43783SOL     OW33245   8.878   3.869  10.542
43783SOL    HW133246   8.972   3.884  10.529
43783SOL    HW233247   8.850   3.940  10.599
43784SOL     OW33248   6.697  14.175   2.481
43784SOL    HW133249   6.713  14.228   2.403
43784SOL    HW233250   6.652  14.235   2.541
43785SOL     OW33251   5.141  12.143   9.295
43785SOL    HW133252   5.169  12.079   9.360
43785SOL    HW233253   5.046  12.139   9.298
43786SOL     OW33254   2.770   1.823  10.828
43786SOL    HW133255   2.841   1.887  10.831
43786SOL    HW233256   2.797   1.754  10.888
43787SOL     OW33257  10.408  13.837  10.869
43787SOL    HW133258  10.332  13.851  10.814
43787SOL    HW233259  10.394  13.752  10.909
43788SOL     OW33260  13.203   5.696  14.052
43788SOL    HW133261  13.169   5.667  13.968
43788SOL    HW233262  13.184   5.624  14.112
43789SOL     OW33263   2.223  11.132  14.093
43789SOL    HW133264   2.180  11.107  14.011
43789SOL    HW233265   2.288  11.197  14.067
43790SOL     OW33266   3.352   4.646  14.269
43790SOL    HW133267   3.400   4.729  14.274
43790SOL    HW233268   3.283   4.662  14.206
43791SOL     OW33269   8.730   0.551   7.799
43791SOL    HW133270   8.776   0.619   7.847
43791SOL    HW233271   8.684   0.500   7.866
43792SOL     OW33272   7.605  13.580   5.780
43792SOL    HW133273   7.590  13.615   5.868
43792SOL    HW233274   7.667  13.508   5.793
43793SOL     OW33275   5.100   1.313   2.649
43793SOL    HW133276   5.047   1.238   2.672
43793SOL    HW233277   5.039   1.387   2.647
43794SOL     OW33278   2.636  14.505  13.707
43794SOL    HW133279   2.643  14.491  13.613
43794SOL    HW233280   2.701  14.573  13.726
43795SOL     OW33281   1.416   3.338   2.237
43795SOL    HW133282   1.416   3.242   2.235
43795SOL    HW233283   1.327   3.360   2.266
43796SOL     OW33284   4.716  13.063   4.309
43796SOL    HW133285   4.778  13.067   4.381
43796SOL    HW233286   4.633  13.039   4.349
43797SOL     OW33287  10.263   0.352  12.529
43797SOL    HW133288  10.294   0.286  12.467
43797SOL    HW233289  10.344   0.393  12.562
43798SOL     OW33290   1.409  10.113   7.357
43798SOL    HW133291   1.440  10.172   7.288
43798SOL    HW233292   1.454  10.030   7.341
43799SOL     OW33293   3.456   7.064   7.452
43799SOL    HW133294   3.539   7.112   7.457
43799SOL    HW233295   3.469   7.002   7.380
43800SOL     OW33296  10.091   5.152  11.253
43800SOL    HW133297  10.125   5.083  11.196
43800SOL    HW233298  10.113   5.234  11.208
43801SOL     OW33299   2.677   4.839   1.598
43801SOL    HW133300   2.626   4.920   1.605
43801SOL    HW233301   2.695   4.830   1.504
43802SOL     OW33302  14.323   2.781  13.633
43802SOL    HW133303  14.336   2.691  13.602
43802SOL    HW233304  14.330   2.835  13.554
43803SOL     OW33305   5.494   2.985   1.581
43803SOL    HW133306   5.470   2.921   1.514
43803SOL    HW233307   5.576   3.023   1.550
43804SOL     OW33308   0.858   0.703  11.163
43804SOL    HW133309   0.910   0.627  11.190
43804SOL    HW233310   0.905   0.778  11.199
43805SOL     OW33311   6.818   5.486   6.489
43805SOL    HW133312   6.854   5.551   6.429
43805SOL    HW233313   6.757   5.435   6.436
43806SOL     OW33314   2.176   0.051   7.585
43806SOL    HW133315   2.188   0.115   7.514
43806SOL    HW233316   2.134   0.102   7.655
43807SOL     OW33317   0.880   1.077  11.196
43807SOL    HW133318   0.926   0.993  11.198
43807SOL    HW233319   0.907   1.121  11.277
43808SOL     OW33320   2.984   2.988  14.311
43808SOL    HW133321   2.970   3.016  14.401
43808SOL    HW233322   3.052   2.920  14.317
43809SOL     OW33323  13.534   9.830   0.349
43809SOL    HW133324  13.515   9.769   0.278
43809SOL    HW233325  13.621   9.865   0.330
43810SOL     OW33326   6.219   4.176  13.845
43810SOL    HW133327   6.194   4.123  13.769
43810SOL    HW233328   6.218   4.115  13.918
43811SOL     OW33329  13.888   6.392   2.264
43811SOL    HW133330  13.885   6.399   2.359
43811SOL    HW233331  13.886   6.298   2.246
43812SOL     OW33332  13.573   6.311  14.828
43812SOL    HW133333  13.495   6.263  14.799
43812SOL    HW233334  13.547   6.354   0.037
43813SOL     OW33335   5.149   9.290   7.561
43813SOL    HW133336   5.196   9.240   7.494
43813SOL    HW233337   5.081   9.230   7.592
43814SOL     OW33338   6.632  10.849   5.851
43814SOL    HW133339   6.636  10.924   5.792
43814SOL    HW233340   6.678  10.878   5.929
43815SOL     OW33341   1.374   4.747   3.675
43815SOL    HW133342   1.359   4.807   3.601
43815SOL    HW233343   1.439   4.685   3.641
43816SOL     OW33344   3.995  10.024   9.306
43816SOL    HW133345   3.930   9.960   9.277
43816SOL    HW233346   4.077   9.993   9.268
43817SOL     OW33347   9.293   6.526   1.604
43817SOL    HW133348   9.205   6.501   1.576
43817SOL    HW233349   9.348   6.508   1.528
43818SOL     OW33350   6.473   8.335   1.231
43818SOL    HW133351   6.492   8.266   1.295
43818SOL    HW233352   6.556   8.382   1.223
43819SOL     OW33353   8.191   8.244  13.773
43819SOL    HW133354   8.214   8.189  13.698
43819SOL    HW233355   8.125   8.305  13.737
43820SOL     OW33356   9.872   6.405   0.323
43820SOL    HW133357   9.801   6.345   0.303
43820SOL    HW233358   9.950   6.350   0.330
43821SOL     OW33359  11.509   2.692  14.158
43821SOL    HW133360  11.557   2.616  14.192
43821SOL    HW233361  11.509   2.679  14.063
43822SOL     OW33362   0.073   2.067   3.201
43822SOL    HW133363   0.161   2.059   3.163
43822SOL    HW233364   0.015   2.071   3.125
43823SOL     OW33365  13.596  11.619  10.989
43823SOL    HW133366  13.684  11.657  10.988
43823SOL    HW233367  13.537  11.695  10.981
43824SOL     OW33368   5.752   1.420   0.951
43824SOL    HW133369   5.793   1.456   1.030
43824SOL    HW233370   5.772   1.327   0.954
43825SOL     OW33371  14.534   8.448   2.270
43825SOL    HW133372  14.469   8.385   2.304
43825SOL    HW233373  14.527   8.523   2.330
43826SOL     OW33374   1.717  11.775   5.135
43826SOL    HW133375   1.773  11.737   5.203
43826SOL    HW233376   1.672  11.847   5.179
43827SOL     OW33377   9.006   1.647   4.223
43827SOL    HW133378   9.001   1.582   4.293
43827SOL    HW233379   8.924   1.697   4.231
43828SOL     OW33380   5.021  10.171   1.031
43828SOL    HW133381   5.004  10.187   1.123
43828SOL    HW233382   5.099  10.223   1.011
43829SOL     OW33383   4.905   4.093  13.691
43829SOL    HW133384   4.851   4.040  13.633
43829SOL    HW233385   4.844   4.156  13.730
43830SOL     OW33386   8.222   8.928   5.339
43830SOL    HW133387   8.153   8.894   5.282
43830SOL    HW233388   8.303   8.891   5.303
43831SOL     OW33389   2.228   3.161  11.117
43831SOL    HW133390   2.318   3.157  11.084
43831SOL    HW233391   2.214   3.253  11.138
43832SOL     OW33392   7.200  11.239  10.504
43832SOL    HW133393   7.261  11.209  10.571
43832SOL    HW233394   7.118  11.193  10.525
43833SOL     OW33395   2.049  12.494   1.677
43833SOL    HW133396   2.079  12.404   1.665
43833SOL    HW233397   2.125  12.539   1.715
43834SOL     OW33398  13.914   5.620   0.852
43834SOL    HW133399  13.950   5.545   0.804
43834SOL    HW233400  13.821   5.619   0.832
43835SOL     OW33401  12.835   0.725  10.156
43835SOL    HW133402  12.831   0.630  10.158
43835SOL    HW233403  12.911   0.748  10.210
43836SOL     OW33404  13.108  14.244   0.671
43836SOL    HW133405  13.023  14.231   0.714
43836SOL    HW233406  13.166  14.183   0.716
43837SOL     OW33407  11.479  13.144   1.424
43837SOL    HW133408  11.543  13.107   1.485
43837SOL    HW233409  11.532  13.182   1.354
43838SOL     OW33410  13.689  11.246   4.716
43838SOL    HW133411  13.759  11.230   4.654
43838SOL    HW233412  13.722  11.213   4.800
43839SOL     OW33413   8.296   9.629   3.043
43839SOL    HW133414   8.325   9.585   2.963
43839SOL    HW233415   8.311   9.722   3.027
43840SOL     OW33416   5.220  14.746   2.996
43840SOL    HW133417   5.138  14.747   3.045
43840SOL    HW233418   5.275  14.810   3.041
43841SOL     OW33419  11.547   5.667  12.938
43841SOL    HW133420  11.510   5.754  12.928
43841SOL    HW233421  11.485   5.609  12.892
43842SOL     OW33422  10.565   8.193  12.449
43842SOL    HW133423  10.570   8.234  12.535
43842SOL    HW233424  10.655   8.166  12.430
43843SOL     OW33425   2.718  14.439   1.643
43843SOL    HW133426   2.799  14.446   1.592
43843SOL    HW233427   2.734  14.367   1.704
43844SOL     OW33428   9.729   0.160   0.960
43844SOL    HW133429   9.732   0.067   0.939
43844SOL    HW233430   9.695   0.202   0.881
43845SOL     OW33431   4.665   8.030   5.576
43845SOL    HW133432   4.654   7.954   5.633
43845SOL    HW233433   4.644   8.105   5.631
43846SOL     OW33434   4.669  10.840   7.929
43846SOL    HW133435   4.680  10.845   7.834
43846SOL    HW233436   4.664  10.747   7.947
43847SOL     OW33437   1.771   4.434   3.430
43847SOL    HW133438   1.776   4.346   3.394
43847SOL    HW233439   1.818   4.488   3.366
43848SOL     OW33440   7.935   0.215   1.790
43848SOL    HW133441   7.931   0.310   1.794
43848SOL    HW233442   7.871   0.185   1.854
43849SOL     OW33443   2.548   0.679   6.690
43849SOL    HW133444   2.505   0.762   6.708
43849SOL    HW233445   2.477   0.617   6.675
43850SOL     OW33446   7.598  11.869   5.644
43850SOL    HW133447   7.548  11.941   5.605
43850SOL    HW233448   7.567  11.791   5.599
43851SOL     OW33449   0.180   7.894   4.782
43851SOL    HW133450   0.188   7.956   4.710
43851SOL    HW233451   0.162   7.810   4.739
43852SOL     OW33452   1.546  11.544  13.411
43852SOL    HW133453   1.574  11.578  13.496
43852SOL    HW233454   1.585  11.457  13.406
43853SOL     OW33455   9.349   1.617  10.476
43853SOL    HW133456   9.415   1.650  10.415
43853SOL    HW233457   9.285   1.688  10.482
43854SOL     OW33458   0.736  13.769  14.282
43854SOL    HW133459   0.785  13.831  14.336
43854SOL    HW233460   0.752  13.797  14.192
43855SOL     OW33461   3.988  13.033  14.756
43855SOL    HW133462   4.029  13.047  14.842
43855SOL    HW233463   3.902  13.076  14.764
43856SOL     OW33464   2.846   7.824  10.492
43856SOL    HW133465   2.863   7.832  10.399
43856SOL    HW233466   2.778   7.757  10.499
43857SOL     OW33467   2.778   2.628   7.446
43857SOL    HW133468   2.714   2.689   7.411
43857SOL    HW233469   2.824   2.595   7.368
43858SOL     OW33470   9.937  13.828   8.190
43858SOL    HW133471   9.960  13.739   8.216
43858SOL    HW233472   9.894  13.818   8.105
43859SOL     OW33473   7.443   0.289  10.485
43859SOL    HW133474   7.432   0.207  10.437
43859SOL    HW233475   7.373   0.288  10.551
43860SOL     OW33476   4.041   0.110   9.075
43860SOL    HW133477   4.108   0.091   9.141
43860SOL    HW233478   4.000   0.025   9.058
43861SOL     OW33479   3.763   6.454   4.668
43861SOL    HW133480   3.812   6.514   4.724
43861SOL    HW233481   3.715   6.511   4.608
43862SOL     OW33482   5.049   6.479  12.602
43862SOL    HW133483   5.016   6.391  12.588
43862SOL    HW233484   5.127   6.485  12.547
43863SOL     OW33485  12.703   1.274   6.953
43863SOL    HW133486  12.706   1.209   7.024
43863SOL    HW233487  12.610   1.282   6.931
43864SOL     OW33488   4.115  11.453  10.563
43864SOL    HW133489   4.033  11.466  10.609
43864SOL    HW233490   4.142  11.541  10.536
43865SOL     OW33491  10.062   9.011   3.298
43865SOL    HW133492  10.136   9.064   3.269
43865SOL    HW233493   9.997   9.021   3.229
43866SOL     OW33494   4.944   9.126   7.584
43866SOL    HW133495   4.853   9.154   7.579
43866SOL    HW233496   4.940   9.030   7.574
43867SOL     OW33497   5.011   6.392   6.607
43867SOL    HW133498   4.919   6.369   6.617
43867SOL    HW233499   5.058   6.309   6.611
43868SOL     OW33500   7.271  11.178   0.663
43868SOL    HW133501   7.260  11.176   0.758
43868SOL    HW233502   7.315  11.262   0.645
43869SOL     OW33503   3.872   9.936   6.720
43869SOL    HW133504   3.950   9.881   6.711
43869SOL    HW233505   3.903  10.024   6.697
43870SOL     OW33506   6.122   5.834  12.099
43870SOL    HW133507   6.123   5.929  12.081
43870SOL    HW233508   6.196   5.820  12.158
43871SOL     OW33509   7.108   2.064   0.701
43871SOL    HW133510   7.042   2.125   0.734
43871SOL    HW233511   7.060   2.006   0.642
43872SOL     OW33512  11.020  10.346  10.758
43872SOL    HW133513  11.055  10.410  10.696
43872SOL    HW233514  11.010  10.394  10.840
43873SOL     OW33515   0.931  12.888  12.194
43873SOL    HW133516   0.949  12.796  12.213
43873SOL    HW233517   0.847  12.905  12.237
43874SOL     OW33518  11.355  11.580   5.283
43874SOL    HW133519  11.356  11.676   5.280
43874SOL    HW233520  11.446  11.556   5.299
43875SOL     OW33521   8.660   7.893   4.903
43875SOL    HW133522   8.741   7.941   4.884
43875SOL    HW233523   8.645   7.908   4.996
43876SOL     OW33524   8.701  11.969  12.726
43876SOL    HW133525   8.690  12.060  12.754
43876SOL    HW233526   8.772  11.973  12.660
43877SOL     OW33527   7.409  12.085   9.656
43877SOL    HW133528   7.498  12.112   9.631
43877SOL    HW233529   7.381  12.150   9.721
43878SOL     OW33530   5.626  10.642  12.306
43878SOL    HW133531   5.593  10.678  12.388
43878SOL    HW233532   5.662  10.557  12.331
43879SOL     OW33533   5.197  14.050   2.310
43879SOL    HW133534   5.104  14.054   2.333
43879SOL    HW233535   5.198  14.022   2.218
43880SOL     OW33536  13.583   7.457  13.622
43880SOL    HW133537  13.505   7.472  13.676
43880SOL    HW233538  13.641   7.404  13.676
43881SOL     OW33539   0.799   9.303   2.850
43881SOL    HW133540   0.835   9.233   2.795
43881SOL    HW233541   0.860   9.376   2.839
43882SOL     OW33542  12.339  13.150   4.199
43882SOL    HW133543  12.314  13.083   4.135
43882SOL    HW233544  12.271  13.144   4.267
43883SOL     OW33545   6.727  14.145   1.166
43883SOL    HW133546   6.808  14.095   1.152
43883SOL    HW233547   6.683  14.144   1.081
43884SOL     OW33548   1.989   5.889   1.484
43884SOL    HW133549   2.020   5.941   1.558
43884SOL    HW233550   2.064   5.885   1.425
43885SOL     OW33551   3.931  14.692   1.740
43885SOL    HW133552   3.993  14.674   1.811
43885SOL    HW233553   3.890  14.607   1.722
43886SOL     OW33554   8.438   6.488   2.680
43886SOL    HW133555   8.474   6.483   2.591
43886SOL    HW233556   8.382   6.565   2.680
43887SOL     OW33557   1.076   5.877   2.288
43887SOL    HW133558   1.036   5.794   2.261
43887SOL    HW233559   1.022   5.907   2.361
43888SOL     OW33560   1.454  10.085   4.973
43888SOL    HW133561   1.546  10.089   4.997
43888SOL    HW233562   1.445  10.001   4.927
43889SOL     OW33563  12.808   3.256   6.919
43889SOL    HW133564  12.819   3.223   6.830
43889SOL    HW233565  12.898   3.263   6.953
43890SOL     OW33566   4.540  10.501   9.470
43890SOL    HW133567   4.556  10.595   9.462
43890SOL    HW233568   4.510  10.474   9.383
43891SOL     OW33569   4.741  14.424   0.653
43891SOL    HW133570   4.750  14.442   0.559
43891SOL    HW233571   4.647  14.420   0.668
43892SOL     OW33572   2.433  11.100   1.395
43892SOL    HW133573   2.414  11.033   1.461
43892SOL    HW233574   2.418  11.056   1.311
43893SOL     OW33575   0.968   9.785   9.503
43893SOL    HW133576   0.984   9.864   9.451
43893SOL    HW233577   1.004   9.714   9.450
43894SOL     OW33578   2.235   2.010  11.798
43894SOL    HW133579   2.220   1.935  11.741
43894SOL    HW233580   2.174   1.997  11.871
43895SOL     OW33581   2.389  11.244  13.189
43895SOL    HW133582   2.416  11.170  13.134
43895SOL    HW233583   2.308  11.275  13.149
43896SOL     OW33584  13.749   2.619  14.767
43896SOL    HW133585  13.727   2.547  14.826
43896SOL    HW233586  13.822   2.585  14.715
43897SOL     OW33587   9.912   1.452   1.604
43897SOL    HW133588   9.919   1.407   1.520
43897SOL    HW233589   9.875   1.386   1.663
43898SOL     OW33590   2.399   6.490   6.793
43898SOL    HW133591   2.377   6.495   6.700
43898SOL    HW233592   2.441   6.404   6.803
43899SOL     OW33593   1.809   1.147   4.012
43899SOL    HW133594   1.868   1.095   4.066
43899SOL    HW233595   1.722   1.129   4.048
43900SOL     OW33596  11.679  10.348   8.192
43900SOL    HW133597  11.690  10.258   8.224
43900SOL    HW233598  11.600  10.379   8.236
43901SOL     OW33599   5.003  14.644   7.172
43901SOL    HW133600   4.987  14.559   7.212
43901SOL    HW233601   4.918  14.687   7.172
43902SOL     OW33602  12.579   3.498   3.637
43902SOL    HW133603  12.553   3.419   3.590
43902SOL    HW233604  12.527   3.568   3.598
43903SOL     OW33605  12.854  13.444   2.225
43903SOL    HW133606  12.888  13.383   2.291
43903SOL    HW233607  12.909  13.429   2.148
43904SOL     OW33608   3.589   9.055   3.996
43904SOL    HW133609   3.614   9.142   4.026
43904SOL    HW233610   3.500   9.043   4.029
43905SOL     OW33611   6.922  13.194   5.525
43905SOL    HW133612   6.891  13.257   5.590
43905SOL    HW233613   6.994  13.148   5.569
43906SOL     OW33614  10.506   7.710   1.020
43906SOL    HW133615  10.526   7.756   0.939
43906SOL    HW233616  10.435   7.761   1.060
43907SOL     OW33617  12.401  11.464   8.638
43907SOL    HW133618  12.414  11.398   8.706
43907SOL    HW233619  12.487  11.474   8.597
43908SOL     OW33620   6.757  11.135   1.891
43908SOL    HW133621   6.754  11.161   1.799
43908SOL    HW233622   6.670  11.100   1.910
43909SOL     OW33623   3.933  11.705   1.056
43909SOL    HW133624   3.920  11.779   1.115
43909SOL    HW233625   3.849  11.696   1.010
43910SOL     OW33626   3.341   0.521   1.061
43910SOL    HW133627   3.322   0.428   1.071
43910SOL    HW233628   3.263   0.566   1.094
43911SOL     OW33629   2.540  14.598  11.230
43911SOL    HW133630   2.611  14.604  11.295
43911SOL    HW233631   2.540  14.507  11.202
43912SOL     OW33632  14.489  13.561   2.900
43912SOL    HW133633  14.489  13.503   2.976
43912SOL    HW233634  14.418  13.528   2.845
43913SOL     OW33635   0.733   3.375  12.947
43913SOL    HW133636   0.780   3.458  12.947
43913SOL    HW233637   0.656   3.391  12.892
43914SOL     OW33638  12.981  14.204   4.577
43914SOL    HW133639  12.936  14.250   4.506
43914SOL    HW233640  12.993  14.115   4.544
43915SOL     OW33641  13.135  11.278   3.186
43915SOL    HW133642  13.044  11.256   3.206
43915SOL    HW233643  13.133  11.370   3.160
43916SOL     OW33644  14.851  14.431   9.391
43916SOL    HW133645  14.850  14.356   9.451
43916SOL    HW233646  14.767  14.426   9.345
43917SOL     OW33647  11.279   9.961   0.687
43917SOL    HW133648  11.252   9.874   0.660
43917SOL    HW233649  11.200  10.014   0.681
43918SOL     OW33650  14.623  14.213   1.758
43918SOL    HW133651  14.677  14.135   1.769
43918SOL    HW233652  14.543  14.194   1.806
43919SOL     OW33653   6.519   8.422   6.993
43919SOL    HW133654   6.576   8.433   6.916
43919SOL    HW233655   6.434   8.455   6.964
43920SOL     OW33656  14.210   7.838   0.513
43920SOL    HW133657  14.303   7.829   0.531
43920SOL    HW233658  14.199   7.929   0.488
43921SOL     OW33659   5.865   4.854   4.441
43921SOL    HW133660   5.782   4.825   4.477
43921SOL    HW233661   5.930   4.824   4.505
43922SOL     OW33662   8.808  11.510   0.808
43922SOL    HW133663   8.777  11.596   0.839
43922SOL    HW233664   8.748  11.447   0.849
43923SOL     OW33665  13.255   4.126  13.841
43923SOL    HW133666  13.199   4.194  13.878
43923SOL    HW233667  13.286   4.163  13.758
43924SOL     OW33668   7.585  12.774   6.461
43924SOL    HW133669   7.657  12.737   6.512
43924SOL    HW233670   7.537  12.698   6.429
43925SOL     OW33671   6.230   0.895   7.086
43925SOL    HW133672   6.203   0.962   7.024
43925SOL    HW233673   6.210   0.812   7.042
43926SOL     OW33674   3.948  11.816   2.569
43926SOL    HW133675   3.993  11.837   2.487
43926SOL    HW233676   3.876  11.758   2.543
43927SOL     OW33677   8.864   2.142   4.219
43927SOL    HW133678   8.855   2.056   4.178
43927SOL    HW233679   8.949   2.174   4.190
43928SOL     OW33680   6.221   7.945  10.018
43928SOL    HW133681   6.179   7.882   9.960
43928SOL    HW233682   6.230   7.898  10.101
43929SOL     OW33683   8.593   4.291   6.310
43929SOL    HW133684   8.664   4.337   6.265
43929SOL    HW233685   8.601   4.316   6.402
43930SOL     OW33686   6.341  12.499   8.602
43930SOL    HW133687   6.375  12.493   8.692
43930SOL    HW233688   6.415  12.476   8.547
43931SOL     OW33689   5.535   4.747  13.799
43931SOL    HW133690   5.503   4.790  13.720
43931SOL    HW233691   5.625   4.721  13.778
43932SOL     OW33692   5.807  14.569   8.405
43932SOL    HW133693   5.837  14.541   8.492
43932SOL    HW233694   5.863  14.644   8.384
43933SOL     OW33695   7.795   0.876   1.515
43933SOL    HW133696   7.740   0.807   1.476
43933SOL    HW233697   7.734   0.947   1.535
43934SOL     OW33698  11.034   5.022   3.221
43934SOL    HW133699  11.037   5.116   3.206
43934SOL    HW233700  10.976   4.989   3.152
43935SOL     OW33701   2.396   5.638   8.642
43935SOL    HW133702   2.333   5.655   8.572
43935SOL    HW233703   2.348   5.658   8.723
43936SOL     OW33704  13.539  13.033   3.781
43936SOL    HW133705  13.548  13.016   3.688
43936SOL    HW233706  13.550  13.127   3.791
43937SOL     OW33707   3.470   7.488  10.006
43937SOL    HW133708   3.444   7.407  10.051
43937SOL    HW233709   3.407   7.496   9.934
43938SOL     OW33710  10.769   3.638   4.610
43938SOL    HW133711  10.756   3.594   4.695
43938SOL    HW233712  10.838   3.588   4.567
43939SOL     OW33713   8.900   9.653  10.273
43939SOL    HW133714   8.834   9.610  10.327
43939SOL    HW233715   8.972   9.591  10.267
43940SOL     OW33716   8.499  10.955   0.146
43940SOL    HW133717   8.581  10.973   0.193
43940SOL    HW233718   8.430  10.975   0.210
43941SOL     OW33719  11.615   0.381   9.432
43941SOL    HW133720  11.617   0.315   9.363
43941SOL    HW233721  11.559   0.451   9.397
43942SOL     OW33722   4.133   9.659  12.339
43942SOL    HW133723   4.213   9.610  12.320
43942SOL    HW233724   4.141   9.740  12.288
43943SOL     OW33725   5.047   7.558  12.053
43943SOL    HW133726   4.978   7.622  12.067
43943SOL    HW233727   5.121   7.609  12.017
43944SOL     OW33728   3.793   3.529   5.092
43944SOL    HW133729   3.871   3.482   5.062
43944SOL    HW233730   3.822   3.576   5.170
43945SOL     OW33731   3.930  10.981   5.569
43945SOL    HW133732   3.917  10.899   5.521
43945SOL    HW233733   4.013  11.015   5.537
43946SOL     OW33734   9.590   7.261  13.591
43946SOL    HW133735   9.596   7.268  13.686
43946SOL    HW233736   9.650   7.190  13.569
43947SOL     OW33737  12.513   7.965   2.295
43947SOL    HW133738  12.436   8.006   2.253
43947SOL    HW233739  12.478   7.885   2.335
43948SOL     OW33740   7.403   6.667  14.702
43948SOL    HW133741   7.393   6.742  14.644
43948SOL    HW233742   7.466   6.695  14.768
43949SOL     OW33743  12.072   6.584  11.125
43949SOL    HW133744  12.146   6.527  11.147
43949SOL    HW233745  12.112   6.668  11.104
43950SOL     OW33746   0.016   1.218   1.519
43950SOL    HW133747   0.081   1.240   1.586
43950SOL    HW233748  14.871   1.301   1.475
43951SOL     OW33749   8.740   9.249   7.626
43951SOL    HW133750   8.726   9.344   7.621
43951SOL    HW233751   8.696   9.214   7.549
43952SOL     OW33752  12.505   2.890   9.687
43952SOL    HW133753  12.453   2.938   9.751
43952SOL    HW233754  12.442   2.836   9.640
43953SOL     OW33755  10.842  11.203  13.215
43953SOL    HW133756  10.758  11.173  13.181
43953SOL    HW233757  10.820  11.248  13.297
43954SOL     OW33758  12.707  11.419   9.465
43954SOL    HW133759  12.643  11.441   9.533
43954SOL    HW233760  12.703  11.492   9.403
43955SOL     OW33761   9.946  13.157  10.958
43955SOL    HW133762  10.037  13.188  10.955
43955SOL    HW233763   9.934  13.111  10.875
43956SOL     OW33764   7.018   0.371   9.138
43956SOL    HW133765   7.013   0.377   9.233
43956SOL    HW233766   6.934   0.403   9.107
43957SOL     OW33767  12.750   6.675  14.690
43957SOL    HW133768  12.820   6.739  14.679
43957SOL    HW233769  12.793   6.600  14.733
43958SOL     OW33770  12.988  13.606  11.431
43958SOL    HW133771  12.969  13.530  11.377
43958SOL    HW233772  13.041  13.663  11.376
43959SOL     OW33773  14.812  11.313   7.936
43959SOL    HW133774  14.841  11.222   7.943
43959SOL    HW233775  14.756  11.314   7.858
43960SOL     OW33776   9.468   0.856  12.599
43960SOL    HW133777   9.466   0.895  12.686
43960SOL    HW233778   9.406   0.908  12.548
43961SOL     OW33779   1.459  14.758  12.673
43961SOL    HW133780   1.468  14.848  12.640
43961SOL    HW233781   1.465  14.703  12.594
43962SOL     OW33782  13.701  14.423   8.923
43962SOL    HW133783  13.672  14.448   9.011
43962SOL    HW233784  13.629  14.371   8.888
43963SOL     OW33785   2.699   2.910   5.112
43963SOL    HW133786   2.785   2.938   5.081
43963SOL    HW233787   2.664   2.985   5.159
43964SOL     OW33788  14.383   7.132  10.222
43964SOL    HW133789  14.462   7.186  10.212
43964SOL    HW233790  14.316   7.194  10.250
43965SOL     OW33791   7.521  12.910  10.929
43965SOL    HW133792   7.553  12.971  10.995
43965SOL    HW233793   7.529  12.824  10.971
43966SOL     OW33794   8.615   5.572   7.839
43966SOL    HW133795   8.567   5.654   7.855
43966SOL    HW233796   8.550   5.512   7.804
43967SOL     OW33797   9.949   8.687  11.580
43967SOL    HW133798   9.972   8.670  11.671
43967SOL    HW233799   9.855   8.668  11.576
43968SOL     OW33800  10.674  14.684   5.883
43968SOL    HW133801  10.741  14.752   5.893
43968SOL    HW233802  10.656  14.656   5.972
43969SOL     OW33803   1.210  11.794   8.226
43969SOL    HW133804   1.130  11.773   8.273
43969SOL    HW233805   1.262  11.846   8.288
43970SOL     OW33806  14.116   8.527  12.570
43970SOL    HW133807  14.172   8.571  12.633
43970SOL    HW233808  14.079   8.453  12.618
43971SOL     OW33809   9.230  14.767   1.914
43971SOL    HW133810   9.315  14.779   1.871
43971SOL    HW233811   9.251  14.730   2.000
43972SOL     OW33812  11.949   9.127   3.187
43972SOL    HW133813  12.036   9.151   3.220
43972SOL    HW233814  11.960   9.123   3.092
43973SOL     OW33815   1.728   3.429   6.634
43973SOL    HW133816   1.745   3.461   6.545
43973SOL    HW233817   1.654   3.481   6.665
43974SOL     OW33818   7.444  10.910   2.568
43974SOL    HW133819   7.518  10.924   2.628
43974SOL    HW233820   7.469  10.833   2.517
43975SOL     OW33821   0.333  11.461   3.309
43975SOL    HW133822   0.317  11.371   3.334
43975SOL    HW233823   0.373  11.455   3.222
43976SOL     OW33824  14.802   9.816  11.440
43976SOL    HW133825   0.002   9.753  11.432
43976SOL    HW233826  14.728   9.763  11.472
43977SOL     OW33827  10.606  10.606   6.526
43977SOL    HW133828  10.585  10.565   6.610
43977SOL    HW233829  10.671  10.672   6.547
43978SOL     OW33830   6.247   4.859   0.397
43978SOL    HW133831   6.241   4.942   0.349
43978SOL    HW233832   6.328   4.820   0.366
43979SOL     OW33833   4.307   0.008   8.083
43979SOL    HW133834   4.376   0.059   8.042
43979SOL    HW233835   4.326  14.790   8.060
43980SOL     OW33836   4.889   7.402   0.148
43980SOL    HW133837   4.910   7.481   0.199
43980SOL    HW233838   4.862   7.435   0.062
43981SOL     OW33839  11.932  10.610  14.037
43981SOL    HW133840  11.916  10.704  14.032
43981SOL    HW233841  11.859  10.576  14.088
43982SOL     OW33842   3.465   8.035   7.678
43982SOL    HW133843   3.443   8.045   7.770
43982SOL    HW233844   3.414   7.959   7.649
43983SOL     OW33845  10.134   1.926   7.447
43983SOL    HW133846  10.160   1.908   7.537
43983SOL    HW233847  10.209   1.899   7.395
43984SOL     OW33848  11.482   3.782  10.554
43984SOL    HW133849  11.443   3.700  10.584
43984SOL    HW233850  11.440   3.799  10.469
43985SOL     OW33851   1.740  13.594   8.181
43985SOL    HW133852   1.660  13.634   8.149
43985SOL    HW233853   1.717  13.502   8.196
43986SOL     OW33854   5.241   7.978  10.268
43986SOL    HW133855   5.292   8.057  10.252
43986SOL    HW233856   5.207   7.954  10.182
43987SOL     OW33857   6.939  14.298  12.013
43987SOL    HW133858   6.886  14.240  11.959
43987SOL    HW233859   7.021  14.308  11.965
43988SOL     OW33860   3.266   0.785   2.616
43988SOL    HW133861   3.224   0.739   2.544
43988SOL    HW233862   3.356   0.800   2.586
43989SOL     OW33863   8.842  12.927  13.608
43989SOL    HW133864   8.830  12.846  13.558
43989SOL    HW233865   8.935  12.948  13.597
43990SOL     OW33866  13.215  13.081  12.689
43990SOL    HW133867  13.174  13.160  12.655
43990SOL    HW233868  13.178  13.010  12.637
43991SOL     OW33869   7.269  12.046  14.174
43991SOL    HW133870   7.346  12.000  14.142
43991SOL    HW233871   7.293  12.138  14.171
43992SOL     OW33872  14.582   5.231  13.566
43992SOL    HW133873  14.583   5.169  13.493
43992SOL    HW233874  14.638   5.191  13.632
43993SOL     OW33875   8.609   3.902   0.285
43993SOL    HW133876   8.545   3.883   0.354
43993SOL    HW233877   8.693   3.901   0.331
43994SOL     OW33878  14.714  11.770   6.504
43994SOL    HW133879  14.754  11.853   6.479
43994SOL    HW233880  14.770  11.735   6.572
43995SOL     OW33881   4.973  11.167   1.633
43995SOL    HW133882   4.914  11.112   1.685
43995SOL    HW233883   4.918  11.239   1.601
43996SOL     OW33884   5.420   9.969   8.655
43996SOL    HW133885   5.431   9.913   8.732
43996SOL    HW233886   5.410   9.908   8.582
43997SOL     OW33887  12.981   9.877  14.482
43997SOL    HW133888  13.028   9.799  14.512
43997SOL    HW233889  12.889   9.857  14.497
43998SOL     OW33890   3.664  11.168   2.954
43998SOL    HW133891   3.601  11.205   2.893
43998SOL    HW233892   3.713  11.104   2.903
43999SOL     OW33893  10.794   0.890   4.708
43999SOL    HW133894  10.846   0.872   4.629
43999SOL    HW233895  10.827   0.828   4.773
44000SOL     OW33896  10.870  10.870   0.541
44000SOL    HW133897  10.860  10.963   0.563
44000SOL    HW233898  10.952  10.867   0.492
44001SOL     OW33899  13.806   3.132   7.459
44001SOL    HW133900  13.786   3.041   7.438
44001SOL    HW233901  13.861   3.162   7.386
44002SOL     OW33902   2.760  11.272   6.927
44002SOL    HW133903   2.723  11.285   7.015
44002SOL    HW233904   2.855  11.279   6.941
44003SOL     OW33905   2.172   4.860  14.825
44003SOL    HW133906   2.263   4.835  14.843
44003SOL    HW233907   2.121   4.782  14.845
44004SOL     OW33908   5.401   2.273   8.047
44004SOL    HW133909   5.433   2.364   8.043
44004SOL    HW233910   5.327   2.277   8.107
44005SOL     OW33911  14.718   6.493  14.637
44005SOL    HW133912  14.657   6.537  14.696
44005SOL    HW233913  14.788   6.460  14.693
44006SOL     OW33914   3.014  11.351   2.851
44006SOL    HW133915   2.921  11.341   2.831
44006SOL    HW233916   3.055  11.362   2.766
44007SOL     OW33917   7.925   0.831   8.299
44007SOL    HW133918   7.940   0.740   8.322
44007SOL    HW233919   7.912   0.875   8.383
44008SOL     OW33920  10.035   8.497  13.159
44008SOL    HW133921  10.086   8.437  13.212
44008SOL    HW233922   9.944   8.469  13.171
44009SOL     OW33923   2.453   1.905   9.912
44009SOL    HW133924   2.515   1.840   9.879
44009SOL    HW233925   2.377   1.853   9.940
44010SOL     OW33926   5.868   7.212  14.539
44010SOL    HW133927   5.875   7.152  14.464
44010SOL    HW233928   5.859   7.299  14.499
44011SOL     OW33929   8.561   8.944   7.370
44011SOL    HW133930   8.513   8.989   7.439
44011SOL    HW233931   8.653   8.963   7.388
44012SOL     OW33932  10.589   3.250   6.011
44012SOL    HW133933  10.683   3.266   6.017
44012SOL    HW233934  10.577   3.204   5.928
44013SOL     OW33935   3.440   3.866   6.291
44013SOL    HW133936   3.366   3.847   6.233
44013SOL    HW233937   3.479   3.780   6.308
44014SOL     OW33938  12.187   0.175  13.383
44014SOL    HW133939  12.113   0.118  13.362
44014SOL    HW233940  12.264   0.119  13.371
44015SOL     OW33941   8.675   7.076   1.400
44015SOL    HW133942   8.613   7.027   1.454
44015SOL    HW233943   8.622   7.143   1.356
44016SOL     OW33944   1.759   1.580   6.743
44016SOL    HW133945   1.833   1.640   6.741
44016SOL    HW233946   1.716   1.591   6.658
44017SOL     OW33947   7.366   9.723   2.293
44017SOL    HW133948   7.308   9.789   2.331
44017SOL    HW233949   7.378   9.751   2.203
44018SOL     OW33950  12.033  13.935   3.748
44018SOL    HW133951  12.071  14.009   3.700
44018SOL    HW233952  11.941  13.961   3.762
44019SOL     OW33953  13.860   8.016   4.115
44019SOL    HW133954  13.779   8.057   4.084
44019SOL    HW233955  13.869   8.046   4.205
44020SOL     OW33956   7.210  10.079   7.341
44020SOL    HW133957   7.269  10.149   7.368
44020SOL    HW233958   7.153  10.064   7.417
44021SOL     OW33959   0.443   5.752   5.467
44021SOL    HW133960   0.357   5.782   5.437
44021SOL    HW233961   0.505   5.797   5.411
44022SOL     OW33962   0.916  11.087  10.324
44022SOL    HW133963   0.863  11.109  10.246
44022SOL    HW233964   0.886  11.148  10.391
44023SOL     OW33965   1.437   9.689   3.369
44023SOL    HW133966   1.407   9.744   3.296
44023SOL    HW233967   1.531   9.704   3.373
44024SOL     OW33968  14.215   9.041  14.616
44024SOL    HW133969  14.230   8.976  14.547
44024SOL    HW233970  14.209   8.990  14.696
44025SOL     OW33971   8.599   1.844  11.254
44025SOL    HW133972   8.593   1.824  11.161
44025SOL    HW233973   8.651   1.772  11.290
44026SOL     OW33974  13.705   3.497   9.917
44026SOL    HW133975  13.729   3.551   9.842
44026SOL    HW233976  13.613   3.520   9.934
44027SOL     OW33977   9.723   2.875   6.311
44027SOL    HW133978   9.673   2.794   6.301
44027SOL    HW233979   9.665   2.944   6.277
44028SOL     OW33980   1.611  10.464  14.711
44028SOL    HW133981   1.528  10.491  14.749
44028SOL    HW233982   1.651  10.408  14.778
44029SOL     OW33983  13.471   5.466   8.173
44029SOL    HW133984  13.537   5.504   8.232
44029SOL    HW233985  13.521   5.439   8.096
44030SOL     OW33986   2.544   7.020  14.145
44030SOL    HW133987   2.481   6.982  14.083
44030SOL    HW233988   2.528   7.114  14.140
44031SOL     OW33989   7.460   5.646   1.292
44031SOL    HW133990   7.502   5.726   1.262
44031SOL    HW233991   7.389   5.631   1.230
44032SOL     OW33992   7.621  14.654  13.536
44032SOL    HW133993   7.568  14.627  13.461
44032SOL    HW233994   7.586  14.740  13.561
44033SOL     OW33995   0.120  14.655   8.378
44033SOL    HW133996   0.114  14.575   8.430
44033SOL    HW233997   0.204  14.693   8.403
44034SOL     OW33998   6.291   7.027  10.659
44034SOL    HW133999   6.306   6.958  10.594
44034SOL    HW234000   6.250   7.098  10.609
44035SOL     OW34001   3.569  12.101   8.466
44035SOL    HW134002   3.491  12.062   8.506
44035SOL    HW234003   3.626  12.120   8.541
44036SOL     OW34004   0.680   5.437   6.127
44036SOL    HW134005   0.751   5.425   6.190
44036SOL    HW234006   0.609   5.476   6.178
44037SOL     OW34007   4.255   6.902   7.699
44037SOL    HW134008   4.303   6.852   7.633
44037SOL    HW234009   4.231   6.984   7.655
44038SOL     OW34010   4.555   4.882  11.040
44038SOL    HW134011   4.516   4.806  11.082
44038SOL    HW234012   4.630   4.846  10.992
44039SOL     OW34013   3.496  11.214   9.801
44039SOL    HW134014   3.421  11.247   9.751
44039SOL    HW234015   3.565  11.279   9.786
44040SOL     OW34016  14.495  11.093  10.720
44040SOL    HW134017  14.530  11.039  10.791
44040SOL    HW234018  14.428  11.038  10.679
44041SOL     OW34019   7.082   3.090   1.280
44041SOL    HW134020   7.024   3.035   1.228
44041SOL    HW234021   7.130   3.142   1.216
44042SOL     OW34022   4.906   0.620   5.846
44042SOL    HW134023   4.919   0.571   5.927
44042SOL    HW234024   4.913   0.554   5.777
44043SOL     OW34025  14.581  10.293   5.867
44043SOL    HW134026  14.670  10.273   5.895
44043SOL    HW234027  14.534  10.312   5.948
44044SOL     OW34028   8.205   2.282   7.285
44044SOL    HW134029   8.135   2.346   7.274
44044SOL    HW234030   8.172   2.202   7.244
44045SOL     OW34031   5.435   2.047  10.103
44045SOL    HW134032   5.473   2.102  10.035
44045SOL    HW234033   5.388   2.108  10.161
44046SOL     OW34034   5.075   7.368   0.902
44046SOL    HW134035   5.113   7.284   0.877
44046SOL    HW234036   5.051   7.357   0.994
44047SOL     OW34037  11.507  13.614   6.090
44047SOL    HW134038  11.603  13.621   6.095
44047SOL    HW234039  11.488  13.527   6.125
44048SOL     OW34040   9.409  13.383   7.000
44048SOL    HW134041   9.476  13.451   7.009
44048SOL    HW234042   9.381  13.366   7.090
44049SOL     OW34043  11.865   3.132   9.625
44049SOL    HW134044  11.827   3.097   9.544
44049SOL    HW234045  11.831   3.075   9.694
44050SOL     OW34046   6.740  11.996   6.992
44050SOL    HW134047   6.714  11.951   6.912
44050SOL    HW234048   6.806  11.938   7.032
44051SOL     OW34049   2.565   4.467   2.881
44051SOL    HW134050   2.560   4.372   2.886
44051SOL    HW234051   2.532   4.498   2.965
44052SOL     OW34052   7.123   5.308  11.779
44052SOL    HW134053   7.187   5.340  11.716
44052SOL    HW234054   7.041   5.304  11.730
44053SOL     OW34055   4.200   7.088  12.748
44053SOL    HW134056   4.202   7.120  12.838
44053SOL    HW234057   4.157   7.157  12.698
44054SOL     OW34058  10.721   3.331   8.327
44054SOL    HW134059  10.686   3.381   8.402
44054SOL    HW234060  10.738   3.244   8.362
44055SOL     OW34061   4.529   9.169   5.814
44055SOL    HW134062   4.587   9.126   5.877
44055SOL    HW234063   4.457   9.107   5.801
44056SOL     OW34064  11.844   1.878   0.674
44056SOL    HW134065  11.763   1.905   0.632
44056SOL    HW234066  11.843   1.922   0.760
44057SOL     OW34067   9.195   6.161   8.385
44057SOL    HW134068   9.250   6.132   8.313
44057SOL    HW234069   9.115   6.195   8.343
44058SOL     OW34070   5.910   2.052   4.980
44058SOL    HW134071   5.872   1.996   5.047
44058SOL    HW234072   6.005   2.044   4.993
44059SOL     OW34073   9.192  10.795   4.180
44059SOL    HW134074   9.234  10.712   4.156
44059SOL    HW234075   9.226  10.858   4.116
44060SOL     OW34076  13.791   8.438   9.306
44060SOL    HW134077  13.786   8.512   9.367
44060SOL    HW234078  13.827   8.366   9.359
44061SOL     OW34079   2.833   8.250  11.176
44061SOL    HW134080   2.924   8.275  11.190
44061SOL    HW234081   2.837   8.172  11.121
44062SOL     OW34082  13.394  11.759  11.970
44062SOL    HW134083  13.341  11.759  12.050
44062SOL    HW234084  13.480  11.730  11.999
44063SOL     OW34085   1.558   3.834   0.998
44063SOL    HW134086   1.532   3.833   0.906
44063SOL    HW234087   1.491   3.782   1.043
44064SOL     OW34088   8.752  12.037   6.542
44064SOL    HW134089   8.774  12.041   6.449
44064SOL    HW234090   8.787  11.952   6.570
44065SOL     OW34091   9.418   7.022  14.617
44065SOL    HW134092   9.468   7.026  14.535
44065SOL    HW234093   9.464   6.955  14.669
44066SOL     OW34094   9.604   4.522   2.746
44066SOL    HW134095   9.556   4.448   2.782
44066SOL    HW234096   9.600   4.588   2.815
44067SOL     OW34097   8.874   4.914   9.329
44067SOL    HW134098   8.965   4.906   9.299
44067SOL    HW234099   8.840   4.990   9.283
44068SOL     OW34100   9.214   5.256  12.522
44068SOL    HW134101   9.177   5.181  12.569
44068SOL    HW234102   9.197   5.237  12.430
44069SOL     OW34103   4.248   9.504   7.102
44069SOL    HW134104   4.315   9.468   7.043
44069SOL    HW234105   4.258   9.599   7.092
44070SOL     OW34106  10.979   3.151   1.644
44070SOL    HW134107  11.063   3.107   1.627
44070SOL    HW234108  10.933   3.147   1.560
44071SOL     OW34109  14.562   4.737   1.848
44071SOL    HW134110  14.653   4.765   1.860
44071SOL    HW234111  14.548   4.671   1.916
44072SOL     OW34112   8.517   8.256   8.786
44072SOL    HW134113   8.476   8.264   8.872
44072SOL    HW234114   8.476   8.179   8.747
44073SOL     OW34115  14.490  14.263  12.054
44073SOL    HW134116  14.419  14.302  12.002
44073SOL    HW234117  14.503  14.324  12.126
44074SOL     OW34118  14.017  11.200   9.349
44074SOL    HW134119  14.000  11.107   9.335
44074SOL    HW234120  13.981  11.242   9.271
44075SOL     OW34121  10.528   6.005   3.824
44075SOL    HW134122  10.446   5.957   3.833
44075SOL    HW234123  10.552   6.029   3.913
44076SOL     OW34124   2.916  14.143   9.446
44076SOL    HW134125   2.954  14.226   9.476
44076SOL    HW234126   2.828  14.142   9.484
44077SOL     OW34127   6.477   6.810   1.093
44077SOL    HW134128   6.500   6.765   1.012
44077SOL    HW234129   6.417   6.751   1.138
44078SOL     OW34130   4.185  11.476   5.031
44078SOL    HW134131   4.249  11.483   5.102
44078SOL    HW234132   4.238  11.473   4.951
44079SOL     OW34133   4.401   0.837   2.001
44079SOL    HW134134   4.437   0.766   2.054
44079SOL    HW234135   4.463   0.848   1.930
44080SOL     OW34136   4.680   8.721   4.664
44080SOL    HW134137   4.644   8.653   4.607
44080SOL    HW234138   4.752   8.760   4.614
44081SOL     OW34139   8.627   7.255   9.342
44081SOL    HW134140   8.670   7.204   9.411
44081SOL    HW234141   8.569   7.193   9.300
44082SOL     OW34142   5.095   3.811  11.710
44082SOL    HW134143   5.093   3.861  11.792
44082SOL    HW234144   5.062   3.872  11.644
44083SOL     OW34145  12.778   2.018   3.014
44083SOL    HW134146  12.790   2.080   2.943
44083SOL    HW234147  12.763   1.934   2.971
44084SOL     OW34148   1.065   6.707   3.300
44084SOL    HW134149   1.068   6.613   3.317
44084SOL    HW234150   1.080   6.748   3.385
44085SOL     OW34151   2.596  11.694   1.424
44085SOL    HW134152   2.526  11.642   1.463
44085SOL    HW234153   2.560  11.782   1.416
44086SOL     OW34154   1.400   0.112   3.016
44086SOL    HW134155   1.378   0.037   3.072
44086SOL    HW234156   1.466   0.078   2.956
44087SOL     OW34157   6.777   3.257   0.315
44087SOL    HW134158   6.868   3.281   0.335
44087SOL    HW234159   6.781   3.162   0.301
44088SOL     OW34160  14.843  14.571   0.070
44088SOL    HW134161   0.017  14.614  14.870
44088SOL    HW234162  14.762  14.539   0.030
44089SOL     OW34163  12.161   5.491   1.735
44089SOL    HW134164  12.203   5.451   1.659
44089SOL    HW234165  12.226   5.552   1.769
44090SOL     OW34166   5.465   6.220   2.603
44090SOL    HW134167   5.421   6.277   2.541
44090SOL    HW234168   5.402   6.151   2.622
44091SOL     OW34169   8.209  10.173   2.570
44091SOL    HW134170   8.256  10.094   2.599
44091SOL    HW234171   8.177  10.212   2.651
44092SOL     OW34172   5.718   7.623   6.109
44092SOL    HW134173   5.726   7.711   6.071
44092SOL    HW234174   5.806   7.602   6.139
44093SOL     OW34175  13.051   5.100  12.651
44093SOL    HW134176  12.984   5.131  12.591
44093SOL    HW234177  13.126   5.158  12.635
44094SOL     OW34178   4.150   6.606   7.375
44094SOL    HW134179   4.141   6.549   7.452
44094SOL    HW234180   4.145   6.546   7.301
44095SOL     OW34181   7.468  10.869  11.551
44095SOL    HW134182   7.381  10.837  11.528
44095SOL    HW234183   7.527  10.827  11.488
44096SOL     OW34184  11.575   8.800   8.787
44096SOL    HW134185  11.654   8.821   8.736
44096SOL    HW234186  11.589   8.844   8.871
44097SOL     OW34187   2.468  14.582  11.640
44097SOL    HW134188   2.484  14.500  11.687
44097SOL    HW234189   2.483  14.650  11.706
44098SOL     OW34190   5.865   6.750   1.710
44098SOL    HW134191   5.770   6.756   1.700
44098SOL    HW234192   5.878   6.737   1.804
44099SOL     OW34193  12.678  12.272   7.140
44099SOL    HW134194  12.733  12.240   7.213
44099SOL    HW234195  12.667  12.195   7.084
44100SOL     OW34196  14.251   6.433   0.460
44100SOL    HW134197  14.202   6.426   0.378
44100SOL    HW234198  14.272   6.527   0.467
44101SOL     OW34199  14.644   1.726  14.599
44101SOL    HW134200  14.561   1.773  14.600
44101SOL    HW234201  14.657   1.699  14.690
44102SOL     OW34202   5.096   5.302   5.204
44102SOL    HW134203   5.184   5.330   5.229
44102SOL    HW234204   5.049   5.296   5.287
44103SOL     OW34205  12.850   8.648   4.111
44103SOL    HW134206  12.778   8.663   4.050
44103SOL    HW234207  12.904   8.726   4.105
44104SOL     OW34208  10.473  13.150  10.291
44104SOL    HW134209  10.542  13.175  10.353
44104SOL    HW234210  10.393  13.147  10.344
44105SOL     OW34211   5.736   9.921   7.217
44105SOL    HW134212   5.665   9.897   7.277
44105SOL    HW234213   5.775   9.998   7.258
44106SOL     OW34214   6.611  14.814  14.658
44106SOL    HW134215   6.571   0.021  14.624
44106SOL    HW234216   6.698  14.842  14.687
44107SOL     OW34217  10.760  10.893  12.179
44107SOL    HW134218  10.844  10.874  12.137
44107SOL    HW234219  10.701  10.915  12.107
44108SOL     OW34220   8.501  13.690  13.561
44108SOL    HW134221   8.521  13.600  13.586
44108SOL    HW234222   8.505  13.739  13.643
44109SOL     OW34223   1.934   6.634  13.088
44109SOL    HW134224   1.920   6.727  13.070
44109SOL    HW234225   2.015   6.612  13.041
44110SOL     OW34226   9.582   1.049  13.113
44110SOL    HW134227   9.568   1.041  13.207
44110SOL    HW234228   9.648   1.118  13.104
44111SOL     OW34229  12.758   4.468  13.599
44111SOL    HW134230  12.708   4.402  13.551
44111SOL    HW234231  12.712   4.478  13.682
44112SOL     OW34232   0.436  10.720   1.237
44112SOL    HW134233   0.343  10.698   1.230
44112SOL    HW234234   0.455  10.766   1.155
44113SOL     OW34235   5.037  13.972   8.388
44113SOL    HW134236   5.128  14.000   8.400
44113SOL    HW234237   4.985  14.047   8.418
44114SOL     OW34238   2.511   8.492  13.522
44114SOL    HW134239   2.519   8.458  13.611
44114SOL    HW234240   2.526   8.587  13.531
44115SOL     OW34241  11.909   9.309   7.260
44115SOL    HW134242  11.964   9.350   7.193
44115SOL    HW234243  11.851   9.379   7.289
44116SOL     OW34244   1.091   4.404  11.428
44116SOL    HW134245   1.125   4.356  11.504
44116SOL    HW234246   1.046   4.337  11.376
44117SOL     OW34247   7.650   8.632   3.990
44117SOL    HW134248   7.699   8.551   4.004
44117SOL    HW234249   7.694   8.696   4.046
44118SOL     OW34250  13.684  13.174   5.804
44118SOL    HW134251  13.768  13.141   5.772
44118SOL    HW234252  13.683  13.151   5.897
44119SOL     OW34253  11.003   0.211   5.226
44119SOL    HW134254  11.060   0.289   5.232
44119SOL    HW234255  11.050   0.152   5.168
44120SOL     OW34256  11.474   5.651   2.248
44120SOL    HW134257  11.429   5.567   2.236
44120SOL    HW234258  11.482   5.659   2.343
44121SOL     OW34259   1.527   3.646   2.420
44121SOL    HW134260   1.475   3.706   2.367
44121SOL    HW234261   1.470   3.625   2.494
44122SOL     OW34262   2.715   9.451   1.147
44122SOL    HW134263   2.713   9.475   1.055
44122SOL    HW234264   2.628   9.418   1.166
44123SOL     OW34265   6.731   7.864  13.189
44123SOL    HW134266   6.822   7.866  13.221
44123SOL    HW234267   6.681   7.907  13.258
44124SOL     OW34268  13.622  13.532   3.131
44124SOL    HW134269  13.576  13.577   3.060
44124SOL    HW234270  13.715  13.553   3.117
44125SOL     OW34271  13.115  14.025   7.572
44125SOL    HW134272  13.190  14.033   7.631
44125SOL    HW234273  13.150  14.044   7.485
44126SOL     OW34274   8.132   4.802  12.722
44126SOL    HW134275   8.110   4.719  12.762
44126SOL    HW234276   8.092   4.798  12.635
44127SOL     OW34277   0.071   9.385   8.042
44127SOL    HW134278   0.159   9.356   8.067
44127SOL    HW234279   0.083   9.476   8.015
44128SOL     OW34280   7.790  13.557   4.310
44128SOL    HW134281   7.754  13.469   4.304
44128SOL    HW234282   7.870  13.548   4.360
44129SOL     OW34283   2.353  12.224   0.859
44129SOL    HW134284   2.443  12.228   0.892
44129SOL    HW234285   2.301  12.195   0.934
44130SOL     OW34286  14.012  11.488  14.524
44130SOL    HW134287  14.026  11.424  14.594
44130SOL    HW234288  14.031  11.572  14.564
44131SOL     OW34289   6.355   9.339   0.685
44131SOL    HW134290   6.414   9.305   0.617
44131SOL    HW234291   6.411   9.348   0.762
44132SOL     OW34292   9.970   5.365   7.501
44132SOL    HW134293   9.903   5.341   7.438
44132SOL    HW234294  10.033   5.294   7.498
44133SOL     OW34295  13.978   0.462   3.889
44133SOL    HW134296  14.060   0.489   3.930
44133SOL    HW234297  13.997   0.375   3.853
44134SOL     OW34298   8.065   1.030   5.996
44134SOL    HW134299   8.128   1.079   5.943
44134SOL    HW234300   8.111   1.012   6.078
44135SOL     OW34301   8.431   4.054   6.417
44135SOL    HW134302   8.492   4.027   6.486
44135SOL    HW234303   8.344   4.035   6.453
44136SOL     OW34304   0.941  14.033  13.380
44136SOL    HW134305   0.981  13.961  13.428
44136SOL    HW234306   0.859  13.997  13.348
44137SOL     OW34307   3.245   6.922   9.726
44137SOL    HW134308   3.240   6.978   9.648
44137SOL    HW234309   3.337   6.929   9.754
44138SOL     OW34310   5.469   7.659  14.770
44138SOL    HW134311   5.428   7.717  14.835
44138SOL    HW234312   5.514   7.593  14.823
44139SOL     OW34313   9.871   4.977  11.853
44139SOL    HW134314   9.888   5.004  11.944
44139SOL    HW234315   9.918   5.041  11.800
44140SOL     OW34316  12.618   2.977   1.723
44140SOL    HW134317  12.561   2.951   1.795
44140SOL    HW234318  12.559   2.988   1.649
44141SOL     OW34319   5.697   1.608  10.294
44141SOL    HW134320   5.760   1.669  10.331
44141SOL    HW234321   5.620   1.661  10.273
44142SOL     OW34322   7.255  12.521   9.413
44142SOL    HW134323   7.321  12.551   9.352
44142SOL    HW234324   7.202  12.459   9.363
44143SOL     OW34325   8.644   0.096   2.784
44143SOL    HW134326   8.582   0.132   2.720
44143SOL    HW234327   8.601   0.018   2.818
44144SOL     OW34328  11.127  12.691  11.299
44144SOL    HW134329  11.191  12.632  11.340
44144SOL    HW234330  11.044  12.645  11.306
44145SOL     OW34331   2.333  14.799   2.367
44145SOL    HW134332   2.371  14.801   2.455
44145SOL    HW234333   2.388  14.736   2.319
44146SOL     OW34334  11.181  14.467   9.546
44146SOL    HW134335  11.122  14.459   9.471
44146SOL    HW234336  11.124  14.455   9.623
44147SOL     OW34337  11.317   1.597  11.717
44147SOL    HW134338  11.357   1.616  11.632
44147SOL    HW234339  11.368   1.647  11.780
44148SOL     OW34340  12.036  11.074   1.443
44148SOL    HW134341  11.970  11.008   1.424
44148SOL    HW234342  12.100  11.030   1.499
44149SOL     OW34343   0.283   3.523  12.008
44149SOL    HW134344   0.239   3.549  12.089
44149SOL    HW234345   0.215   3.482  11.956
44150SOL     OW34346   5.053   2.671   3.036
44150SOL    HW134347   4.994   2.634   2.971
44150SOL    HW234348   5.116   2.601   3.055
44151SOL     OW34349  10.500  14.092   9.634
44151SOL    HW134350  10.407  14.078   9.616
44151SOL    HW234351  10.536  14.004   9.643
44152SOL     OW34352   7.663  11.898   1.960
44152SOL    HW134353   7.593  11.908   2.024
44152SOL    HW234354   7.618  11.885   1.877
44153SOL     OW34355   4.360   0.414  14.075
44153SOL    HW134356   4.408   0.345  14.121
44153SOL    HW234357   4.327   0.471  14.144
44154SOL     OW34358   1.725   7.796  13.560
44154SOL    HW134359   1.708   7.812  13.467
44154SOL    HW234360   1.692   7.707  13.576
44155SOL     OW34361   7.900  13.642   9.008
44155SOL    HW134362   7.866  13.553   9.016
44155SOL    HW234363   7.823  13.696   8.992
44156SOL     OW34364  14.129   2.439  11.112
44156SOL    HW134365  14.123   2.490  11.193
44156SOL    HW234366  14.063   2.370  11.123
44157SOL     OW34367   3.013  11.103   7.527
44157SOL    HW134368   3.090  11.104   7.470
44157SOL    HW234369   2.969  11.186   7.510
44158SOL     OW34370   2.451   4.411   7.922
44158SOL    HW134371   2.420   4.401   8.012
44158SOL    HW234372   2.372   4.412   7.869
44159SOL     OW34373  10.291   6.860   6.202
44159SOL    HW134374  10.290   6.876   6.296
44159SOL    HW234375  10.273   6.766   6.194
44160SOL     OW34376   0.691  14.688  11.267
44160SOL    HW134377   0.786  14.695  11.260
44160SOL    HW234378   0.674  14.594  11.270
44161SOL     OW34379  13.341  10.338  10.105
44161SOL    HW134380  13.413  10.331  10.167
44161SOL    HW234381  13.319  10.432  10.104
44162SOL     OW34382   0.698  12.714  13.445
44162SOL    HW134383   0.664  12.720  13.534
44162SOL    HW234384   0.709  12.620  13.429
44163SOL     OW34385   8.303   6.288   1.773
44163SOL    HW134386   8.367   6.292   1.702
44163SOL    HW234387   8.266   6.376   1.778
44164SOL     OW34388  14.560   3.159  14.144
44164SOL    HW134389  14.495   3.092  14.125
44164SOL    HW234390  14.510   3.238  14.163
44165SOL     OW34391   1.210  10.237   0.904
44165SOL    HW134392   1.167  10.174   0.962
44165SOL    HW234393   1.219  10.189   0.821
44166SOL     OW34394   2.751   6.941   9.881
44166SOL    HW134395   2.813   6.980   9.943
44166SOL    HW234396   2.805   6.881   9.828
44167SOL     OW34397   4.088   6.408   7.599
44167SOL    HW134398   3.998   6.396   7.630
44167SOL    HW234399   4.114   6.322   7.567
44168SOL     OW34400  10.869  12.898   8.961
44168SOL    HW134401  10.950  12.847   8.958
44168SOL    HW234402  10.814  12.852   9.025
44169SOL     OW34403   5.466   7.824   8.118
44169SOL    HW134404   5.521   7.791   8.047
44169SOL    HW234405   5.405   7.884   8.075
44170SOL     OW34406  12.652   6.047   9.490
44170SOL    HW134407  12.609   5.995   9.557
44170SOL    HW234408  12.733   5.999   9.471
44171SOL     OW34409   4.302   5.364  10.993
44171SOL    HW134410   4.305   5.430  10.924
44171SOL    HW234411   4.229   5.307  10.969
44172SOL     OW34412  10.333   5.650  12.186
44172SOL    HW134413  10.307   5.709  12.116
44172SOL    HW234414  10.393   5.589  12.145
44173SOL     OW34415   1.578  10.245  13.082
44173SOL    HW134416   1.496  10.212  13.120
44173SOL    HW234417   1.558  10.259  12.990
44174SOL     OW34418  13.809  11.489  12.315
44174SOL    HW134419  13.822  11.575  12.274
44174SOL    HW234420  13.893  11.444  12.303
44175SOL     OW34421   8.656   1.908   9.626
44175SOL    HW134422   8.671   1.837   9.687
44175SOL    HW234423   8.612   1.867   9.551
44176SOL     OW34424   5.710   3.883   7.703
44176SOL    HW134425   5.711   3.896   7.608
44176SOL    HW234426   5.626   3.840   7.720
44177SOL     OW34427   7.460  10.838   2.227
44177SOL    HW134428   7.550  10.858   2.256
44177SOL    HW234429   7.436  10.911   2.171
44178SOL     OW34430   6.486   5.886   4.604
44178SOL    HW134431   6.579   5.895   4.625
44178SOL    HW234432   6.443   5.949   4.661
44179SOL     OW34433   8.148   9.318   2.940
44179SOL    HW134434   8.115   9.231   2.920
44179SOL    HW234435   8.179   9.312   3.031
44180SOL     OW34436   2.603  11.028  10.592
44180SOL    HW134437   2.688  10.987  10.586
44180SOL    HW234438   2.614  11.097  10.658
44181SOL     OW34439  12.921   2.603  11.264
44181SOL    HW134440  12.849   2.595  11.201
44181SOL    HW234441  12.979   2.668  11.225
44182SOL     OW34442   1.965   4.091  12.598
44182SOL    HW134443   1.872   4.073  12.613
44182SOL    HW234444   2.010   4.018  12.639
44183SOL     OW34445   8.388   7.697  13.477
44183SOL    HW134446   8.427   7.742  13.402
44183SOL    HW234447   8.462   7.660  13.525
44184SOL     OW34448   6.375   6.171  10.443
44184SOL    HW134449   6.293   6.147  10.400
44184SOL    HW234450   6.421   6.224  10.378
44185SOL     OW34451   0.707   6.804   6.317
44185SOL    HW134452   0.700   6.711   6.297
44185SOL    HW234453   0.618   6.831   6.340
44186SOL     OW34454   3.196   6.939  11.350
44186SOL    HW134455   3.284   6.911  11.324
44186SOL    HW234456   3.171   7.002  11.283
44187SOL     OW34457   5.498  11.241  14.014
44187SOL    HW134458   5.544  11.324  14.002
44187SOL    HW234459   5.431  11.260  14.080
44188SOL     OW34460   1.787   1.154  10.040
44188SOL    HW134461   1.860   1.120   9.989
44188SOL    HW234462   1.816   1.239  10.071
44189SOL     OW34463   4.394   8.997   0.015
44189SOL    HW134464   4.462   8.978  14.822
44189SOL    HW234465   4.398   8.923   0.075
44190SOL     OW34466   3.035   5.310   2.951
44190SOL    HW134467   2.951   5.351   2.935
44190SOL    HW234468   3.096   5.383   2.963
44191SOL     OW34469   9.820  14.279  14.010
44191SOL    HW134470   9.772  14.347  14.058
44191SOL    HW234471   9.845  14.320  13.927
44192SOL     OW34472  11.846   7.781   2.486
44192SOL    HW134473  11.779   7.799   2.420
44192SOL    HW234474  11.807   7.713   2.542
44193SOL     OW34475   1.064  14.772   2.206
44193SOL    HW134476   0.984  14.752   2.159
44193SOL    HW234477   1.045  14.853   2.254
44194SOL     OW34478   9.764   8.150  12.605
44194SOL    HW134479   9.706   8.115  12.537
44194SOL    HW234480   9.852   8.123  12.577
44195SOL     OW34481   5.470   4.355   2.060
44195SOL    HW134482   5.467   4.447   2.032
44195SOL    HW234483   5.502   4.307   1.984
44196SOL     OW34484   7.928   7.412   5.048
44196SOL    HW134485   7.929   7.325   5.009
44196SOL    HW234486   8.003   7.412   5.107
44197SOL     OW34487   1.537  12.800   0.955
44197SOL    HW134488   1.598  12.849   1.009
44197SOL    HW234489   1.451  12.827   0.986
44198SOL     OW34490   6.514   1.174   2.278
44198SOL    HW134491   6.490   1.146   2.190
44198SOL    HW234492   6.595   1.126   2.296
44199SOL     OW34493  11.322   2.340   2.666
44199SOL    HW134494  11.387   2.273   2.646
44199SOL    HW234495  11.246   2.315   2.613
44200SOL     OW34496   3.331   3.329   4.024
44200SOL    HW134497   3.414   3.319   3.978
44200SOL    HW234498   3.354   3.374   4.106
44201SOL     OW34499   3.036   6.250  10.191
44201SOL    HW134500   3.017   6.246  10.284
44201SOL    HW234501   3.098   6.179  10.176
44202SOL     OW34502   1.891   6.135   4.907
44202SOL    HW134503   1.860   6.150   4.996
44202SOL    HW234504   1.963   6.073   4.917
44203SOL     OW34505   2.547  13.798   3.547
44203SOL    HW134506   2.565  13.869   3.485
44203SOL    HW234507   2.609  13.814   3.619
44204SOL     OW34508   2.415   5.560   2.330
44204SOL    HW134509   2.358   5.559   2.407
44204SOL    HW234510   2.423   5.467   2.306
44205SOL     OW34511   9.657   7.101   0.652
44205SOL    HW134512   9.724   7.168   0.639
44205SOL    HW234513   9.595   7.115   0.579
44206SOL     OW34514   8.788   3.558   3.551
44206SOL    HW134515   8.862   3.527   3.603
44206SOL    HW234516   8.739   3.479   3.529
44207SOL     OW34517   8.743  11.571   3.096
44207SOL    HW134518   8.738  11.532   3.009
44207SOL    HW234519   8.681  11.643   3.094
44208SOL     OW34520  14.158   2.639   3.472
44208SOL    HW134521  14.088   2.650   3.536
44208SOL    HW234522  14.117   2.659   3.388
44209SOL     OW34523  10.376  13.215  12.419
44209SOL    HW134524  10.456  13.225  12.368
44209SOL    HW234525  10.321  13.156  12.367
44210SOL     OW34526   2.846  13.237   6.758
44210SOL    HW134527   2.923  13.196   6.719
44210SOL    HW234528   2.829  13.314   6.704
44211SOL     OW34529  10.496  14.656   0.386
44211SOL    HW134530  10.467  14.580   0.435
44211SOL    HW234531  10.444  14.728   0.420
44212SOL     OW34532  11.973   8.483  10.468
44212SOL    HW134533  12.021   8.481  10.385
44212SOL    HW234534  12.016   8.552  10.518
44213SOL     OW34535   0.369   0.340   0.537
44213SOL    HW134536   0.320   0.420   0.558
44213SOL    HW234537   0.352   0.325   0.444
44214SOL     OW34538  12.861   4.172   9.088
44214SOL    HW134539  12.935   4.211   9.135
44214SOL    HW234540  12.855   4.083   9.122
44215SOL     OW34541  11.531   8.067   0.713
44215SOL    HW134542  11.478   8.008   0.767
44215SOL    HW234543  11.573   8.009   0.649
44216SOL     OW34544  14.236   2.314   9.933
44216SOL    HW134545  14.234   2.287   9.841
44216SOL    HW234546  14.250   2.233   9.982
44217SOL     OW34547  12.465  13.765   1.172
44217SOL    HW134548  12.491  13.856   1.184
44217SOL    HW234549  12.542  13.722   1.136
44218SOL     OW34550   2.157  13.840  13.209
44218SOL    HW134551   2.140  13.930  13.180
44218SOL    HW234552   2.253  13.836  13.218
44219SOL     OW34553   8.005  10.362  12.049
44219SOL    HW134554   7.914  10.344  12.025
44219SOL    HW234555   8.015  10.456  12.035
44220SOL     OW34556   2.070   4.740   1.521
44220SOL    HW134557   2.015   4.805   1.564
44220SOL    HW234558   2.089   4.777   1.435
44221SOL     OW34559   5.846   9.963  10.908
44221SOL    HW134560   5.925   9.918  10.876
44221SOL    HW234561   5.864   9.982  11.000
44222SOL     OW34562  11.031   1.617   2.357
44222SOL    HW134563  11.082   1.538   2.343
44222SOL    HW234564  11.015   1.652   2.269
44223SOL     OW34565  11.496   8.500  11.629
44223SOL    HW134566  11.428   8.561  11.657
44223SOL    HW234567  11.518   8.451  11.708
44224SOL     OW34568   6.209   5.644   8.300
44224SOL    HW134569   6.205   5.690   8.217
44224SOL    HW234570   6.279   5.580   8.289
44225SOL     OW34571  12.564  12.238   0.273
44225SOL    HW134572  12.523  12.192   0.199
44225SOL    HW234573  12.533  12.328   0.266
44226SOL     OW34574   8.943  12.968  12.412
44226SOL    HW134575   8.960  13.048  12.461
44226SOL    HW234576   8.950  12.898  12.477
44227SOL     OW34577   8.886   7.087   5.650
44227SOL    HW134578   8.843   7.003   5.636
44227SOL    HW234579   8.883   7.100   5.745
44228SOL     OW34580   2.403   6.392   3.944
44228SOL    HW134581   2.475   6.333   3.965
44228SOL    HW234582   2.324   6.342   3.964
44229SOL     OW34583  11.824  14.624   5.312
44229SOL    HW134584  11.734  14.591   5.317
44229SOL    HW234585  11.848  14.641   5.403
44230SOL     OW34586   1.505   6.041   5.633
44230SOL    HW134587   1.517   5.985   5.556
44230SOL    HW234588   1.488   5.980   5.705
44231SOL     OW34589  11.580  14.824  11.434
44231SOL    HW134590  11.550   0.004  11.359
44231SOL    HW234591  11.664  14.787  11.405
44232SOL     OW34592  13.186  10.067  14.147
44232SOL    HW134593  13.173  10.053  14.241
44232SOL    HW234594  13.159  10.158  14.133
44233SOL     OW34595   4.955  13.816   8.010
44233SOL    HW134596   4.913  13.730   8.019
44233SOL    HW234597   5.023  13.802   7.945
44234SOL     OW34598   4.916   0.309   8.941
44234SOL    HW134599   4.938   0.241   8.878
44234SOL    HW234600   4.976   0.381   8.921
44235SOL     OW34601   6.512   9.119  12.202
44235SOL    HW134602   6.497   9.080  12.289
44235SOL    HW234603   6.430   9.164  12.181
44236SOL     OW34604   5.276  11.306   1.170
44236SOL    HW134605   5.326  11.231   1.202
44236SOL    HW234606   5.203  11.267   1.122
44237SOL     OW34607  10.253   1.522  13.479
44237SOL    HW134608  10.220   1.434  13.498
44237SOL    HW234609  10.345   1.519  13.506
44238SOL     OW34610  12.062   5.604   5.637
44238SOL    HW134611  12.096   5.597   5.548
44238SOL    HW234612  12.115   5.542   5.688
44239SOL     OW34613   1.208   2.356  13.823
44239SOL    HW134614   1.129   2.342  13.876
44239SOL    HW234615   1.218   2.451  13.819
44240SOL     OW34616   6.392   3.345  12.642
44240SOL    HW134617   6.460   3.325  12.706
44240SOL    HW234618   6.364   3.433  12.664
44241SOL     OW34619  11.821   2.716   3.918
44241SOL    HW134620  11.856   2.787   3.972
44241SOL    HW234621  11.821   2.640   3.976
44242SOL     OW34622   6.660   9.411   8.897
44242SOL    HW134623   6.576   9.370   8.881
44242SOL    HW234624   6.724   9.354   8.854
44243SOL     OW34625  10.289  11.193   4.726
44243SOL    HW134626  10.322  11.224   4.642
44243SOL    HW234627  10.366  11.190   4.783
44244SOL     OW34628   7.623   4.084   8.312
44244SOL    HW134629   7.673   4.165   8.316
44244SOL    HW234630   7.562   4.089   8.385
44245SOL     OW34631  14.302   6.638   6.297
44245SOL    HW134632  14.210   6.615   6.296
44245SOL    HW234633  14.332   6.623   6.207
44246SOL     OW34634   5.814   9.573   5.014
44246SOL    HW134635   5.776   9.491   5.044
44246SOL    HW234636   5.739   9.621   4.978
44247SOL     OW34637   4.899   0.726  13.590
44247SOL    HW134638   4.852   0.668  13.649
44247SOL    HW234639   4.990   0.722  13.620
44248SOL     OW34640   0.563  12.817   2.376
44248SOL    HW134641   0.544  12.744   2.436
44248SOL    HW234642   0.625  12.871   2.423
44249SOL     OW34643   6.141   7.640  13.399
44249SOL    HW134644   6.222   7.671  13.359
44249SOL    HW234645   6.143   7.676  13.488
44250SOL     OW34646  10.177   3.911  10.236
44250SOL    HW134647  10.182   3.827  10.282
44250SOL    HW234648  10.114   3.962  10.287
44251SOL     OW34649   1.271   0.721   0.993
44251SOL    HW134650   1.192   0.768   0.967
44251SOL    HW234651   1.255   0.694   1.083
44252SOL     OW34652   9.501  12.553  14.854
44252SOL    HW134653   9.437  12.623  14.866
44252SOL    HW234654   9.577  12.596  14.816
44253SOL     OW34655   8.886   5.324   0.034
44253SOL    HW134656   8.805   5.373   0.049
44253SOL    HW234657   8.865   5.265  14.834
44254SOL     OW34658   0.475   3.470   7.347
44254SOL    HW134659   0.448   3.438   7.261
44254SOL    HW234660   0.472   3.392   7.404
44255SOL     OW34661   0.336  12.148  14.043
44255SOL    HW134662   0.298  12.171  13.958
44255SOL    HW234663   0.269  12.173  14.107
44256SOL     OW34664   6.428  10.694  11.977
44256SOL    HW134665   6.503  10.647  11.940
44256SOL    HW234666   6.363  10.626  11.994
44257SOL     OW34667  12.994  10.780  12.006
44257SOL    HW134668  13.080  10.822  12.008
44257SOL    HW234669  12.947  10.819  12.080
44258SOL     OW34670  12.422   1.782   1.540
44258SOL    HW134671  12.412   1.687   1.532
44258SOL    HW234672  12.390   1.803   1.628
44259SOL     OW34673   3.436   5.897   7.652
44259SOL    HW134674   3.361   5.840   7.639
44259SOL    HW234675   3.508   5.838   7.675
44260SOL     OW34676   3.762   5.536   8.902
44260SOL    HW134677   3.769   5.444   8.925
44260SOL    HW234678   3.739   5.580   8.983
44261SOL     OW34679   7.540   1.531   7.065
44261SOL    HW134680   7.617   1.477   7.050
44261SOL    HW234681   7.536   1.588   6.988
44262SOL     OW34682  12.571   1.005  13.406
44262SOL    HW134683  12.551   1.042  13.491
44262SOL    HW234684  12.488   0.964  13.378
44263SOL     OW34685   2.437  13.266   4.618
44263SOL    HW134686   2.480  13.295   4.699
44263SOL    HW234687   2.472  13.178   4.603
44264SOL     OW34688  14.431   5.865   0.437
44264SOL    HW134689  14.485   5.933   0.477
44264SOL    HW234690  14.343   5.883   0.468
44265SOL     OW34691   9.742  12.436   4.295
44265SOL    HW134692   9.786  12.470   4.373
44265SOL    HW234693   9.651  12.424   4.322
44266SOL     OW34694   8.867  14.870   7.148
44266SOL    HW134695   8.812   0.064   7.190
44266SOL    HW234696   8.945  14.866   7.204
44267SOL     OW34697   3.235   0.725   3.283
44267SOL    HW134698   3.263   0.750   3.371
44267SOL    HW234699   3.149   0.683   3.296
44268SOL     OW34700  13.421   2.974   4.352
44268SOL    HW134701  13.401   2.882   4.372
44268SOL    HW234702  13.352   3.000   4.291
44269SOL     OW34703   9.361  13.235   7.780
44269SOL    HW134704   9.386  13.152   7.821
44269SOL    HW234705   9.426  13.298   7.810
44270SOL     OW34706   5.551  10.034  11.898
44270SOL    HW134707   5.639  10.059  11.868
44270SOL    HW234708   5.513   9.987  11.823
44271SOL     OW34709   4.941  13.205   6.420
44271SOL    HW134710   5.002  13.252   6.477
44271SOL    HW234711   4.899  13.273   6.368
44272SOL     OW34712   0.687   2.619  13.561
44272SOL    HW134713   0.676   2.689  13.625
44272SOL    HW234714   0.605   2.570  13.565
44273SOL     OW34715   8.916   6.879  12.688
44273SOL    HW134716   8.880   6.901  12.774
44273SOL    HW234717   8.935   6.785  12.694
44274SOL     OW34718  13.829  13.593   8.128
44274SOL    HW134719  13.912  13.551   8.149
44274SOL    HW234720  13.785  13.603   8.212
44275SOL     OW34721   3.506   1.981   2.925
44275SOL    HW134722   3.412   1.992   2.911
44275SOL    HW234723   3.537   2.069   2.946
44276SOL     OW34724  14.828   3.487  12.908
44276SOL    HW134725  14.843   3.509  12.816
44276SOL    HW234726  14.820   3.391  12.909
44277SOL     OW34727  10.234   8.494   8.079
44277SOL    HW134728  10.205   8.423   8.137
44277SOL    HW234729  10.155   8.519   8.031
44278SOL     OW34730   9.550   6.605   2.664
44278SOL    HW134731   9.567   6.675   2.728
44278SOL    HW234732   9.471   6.562   2.696
44279SOL     OW34733   5.117  13.677   3.747
44279SOL    HW134734   5.175  13.635   3.684
44279SOL    HW234735   5.175  13.717   3.811
44280SOL     OW34736  10.833   4.405   9.582
44280SOL    HW134737  10.863   4.495   9.595
44280SOL    HW234738  10.852   4.386   9.490
44281SOL     OW34739   1.222   7.067   3.056
44281SOL    HW134740   1.266   7.145   3.089
44281SOL    HW234741   1.149   7.053   3.117
44282SOL     OW34742   4.361   6.080   9.021
44282SOL    HW134743   4.339   6.116   9.107
44282SOL    HW234744   4.319   6.138   8.959
44283SOL     OW34745  11.830   2.751  12.674
44283SOL    HW134746  11.914   2.715  12.700
44283SOL    HW234747  11.851   2.820  12.612
44284SOL     OW34748   0.201  12.243   6.302
44284SOL    HW134749   0.109  12.262   6.320
44284SOL    HW234750   0.205  12.147   6.296
44285SOL     OW34751   9.620   2.518  10.327
44285SOL    HW134752   9.625   2.548  10.418
44285SOL    HW234753   9.690   2.565  10.282
44286SOL     OW34754   9.284   5.654  13.070
44286SOL    HW134755   9.335   5.645  13.151
44286SOL    HW234756   9.193   5.655  13.100
44287SOL     OW34757   3.434   8.334   3.119
44287SOL    HW134758   3.404   8.425   3.119
44287SOL    HW234759   3.527   8.341   3.143
44288SOL     OW34760  14.250   6.005  10.338
44288SOL    HW134761  14.187   6.039  10.275
44288SOL    HW234762  14.314   5.957  10.284
44289SOL     OW34763   2.065   9.298   6.696
44289SOL    HW134764   1.981   9.266   6.731
44289SOL    HW234765   2.122   9.303   6.773
44290SOL     OW34766   1.642   8.886  11.101
44290SOL    HW134767   1.724   8.859  11.059
44290SOL    HW234768   1.666   8.963  11.152
44291SOL     OW34769   6.486  11.301   2.088
44291SOL    HW134770   6.556  11.366   2.086
44291SOL    HW234771   6.531  11.219   2.111
44292SOL     OW34772   8.711   2.311  11.358
44292SOL    HW134773   8.649   2.251  11.317
44292SOL    HW234774   8.722   2.278  11.447
44293SOL     OW34775   7.082  11.786  12.760
44293SOL    HW134776   7.137  11.761  12.834
44293SOL    HW234777   7.004  11.823  12.800
44294SOL     OW34778  10.349   2.898  10.882
44294SOL    HW134779  10.356   2.960  10.809
44294SOL    HW234780  10.261   2.860  10.872
44295SOL     OW34781   2.053   7.179   9.356
44295SOL    HW134782   2.093   7.195   9.271
44295SOL    HW234783   2.068   7.086   9.373
44296SOL     OW34784   5.894  11.189   8.103
44296SOL    HW134785   5.922  11.108   8.061
44296SOL    HW234786   5.974  11.228   8.137
44297SOL     OW34787  14.182   3.937  13.757
44297SOL    HW134788  14.092   3.926  13.725
44297SOL    HW234789  14.226   3.986  13.688
44298SOL     OW34790   5.965   8.987  10.765
44298SOL    HW134791   5.969   8.908  10.712
44298SOL    HW234792   6.022   9.050  10.719
44299SOL     OW34793   6.846   9.425  10.718
44299SOL    HW134794   6.766   9.455  10.760
44299SOL    HW234795   6.826   9.426  10.625
44300SOL     OW34796   6.558   4.934   3.942
44300SOL    HW134797   6.598   5.011   3.900
44300SOL    HW234798   6.465   4.942   3.922
44301SOL     OW34799  13.742  13.883   3.675
44301SOL    HW134800  13.677  13.927   3.621
44301SOL    HW234801  13.752  13.940   3.752
44302SOL     OW34802  10.605   6.922  12.361
44302SOL    HW134803  10.684   6.884  12.398
44302SOL    HW234804  10.634   7.006  12.325
44303SOL     OW34805  11.502   6.932  12.857
44303SOL    HW134806  11.538   6.899  12.939
44303SOL    HW234807  11.413   6.961  12.880
44304SOL     OW34808   2.100   5.313  11.957
44304SOL    HW134809   2.118   5.371  12.031
44304SOL    HW234810   2.176   5.255  11.953
44305SOL     OW34811   6.514   5.478   3.552
44305SOL    HW134812   6.483   5.515   3.634
44305SOL    HW234813   6.435   5.454   3.504
44306SOL     OW34814   0.283   8.054   4.142
44306SOL    HW134815   0.288   8.135   4.193
44306SOL    HW234816   0.208   8.068   4.084
44307SOL     OW34817   4.089   0.705   1.863
44307SOL    HW134818   4.061   0.766   1.932
44307SOL    HW234819   4.031   0.629   1.873
44308SOL     OW34820   2.622   0.848   0.421
44308SOL    HW134821   2.691   0.835   0.356
44308SOL    HW234822   2.644   0.930   0.464
44309SOL     OW34823   2.504  10.047  14.053
44309SOL    HW134824   2.474  10.016  14.139
44309SOL    HW234825   2.562   9.978  14.022
44310SOL     OW34826  14.443  10.344  11.589
44310SOL    HW134827  14.444  10.360  11.495
44310SOL    HW234828  14.486  10.422  11.627
44311SOL     OW34829   5.462   7.486   2.279
44311SOL    HW134830   5.373   7.457   2.263
44311SOL    HW234831   5.477   7.467   2.372
44312SOL     OW34832   8.472   9.618   5.686
44312SOL    HW134833   8.400   9.612   5.748
44312SOL    HW234834   8.453   9.551   5.621
44313SOL     OW34835   2.292   9.166   8.387
44313SOL    HW134836   2.315   9.256   8.411
44313SOL    HW234837   2.376   9.121   8.380
44314SOL     OW34838   2.300   2.553   5.519
44314SOL    HW134839   2.350   2.608   5.580
44314SOL    HW234840   2.356   2.546   5.442
44315SOL     OW34841   8.563  14.017   7.317
44315SOL    HW134842   8.492  14.035   7.377
44315SOL    HW234843   8.570  14.094   7.261
44316SOL     OW34844   6.818  10.474  14.235
44316SOL    HW134845   6.761  10.546  14.262
44316SOL    HW234846   6.885  10.468  14.303
44317SOL     OW34847  12.138   0.589   3.158
44317SOL    HW134848  12.219   0.630   3.128
44317SOL    HW234849  12.127   0.513   3.101
44318SOL     OW34850   1.150   8.961   0.257
44318SOL    HW134851   1.085   8.924   0.197
44318SOL    HW234852   1.099   9.018   0.316
44319SOL     OW34853  14.127   9.986  10.062
44319SOL    HW134854  14.155  10.013   9.974
44319SOL    HW234855  14.139   9.891  10.062
44320SOL     OW34856   0.365   4.716   8.181
44320SOL    HW134857   0.400   4.725   8.270
44320SOL    HW234858   0.270   4.712   8.192
44321SOL     OW34859   3.815   7.380  13.534
44321SOL    HW134860   3.804   7.456  13.591
44321SOL    HW234861   3.792   7.412  13.447
44322SOL     OW34862  13.768   3.972   2.777
44322SOL    HW134863  13.834   3.915   2.816
44322SOL    HW234864  13.704   3.912   2.738
44323SOL     OW34865   4.865   7.936   2.418
44323SOL    HW134866   4.789   7.971   2.465
44323SOL    HW234867   4.941   7.966   2.469
44324SOL     OW34868   5.169   1.840   9.108
44324SOL    HW134869   5.260   1.866   9.094
44324SOL    HW234870   5.155   1.767   9.048
44325SOL     OW34871   8.440   5.102   4.723
44325SOL    HW134872   8.503   5.173   4.714
44325SOL    HW234873   8.458   5.045   4.648
44326SOL     OW34874  10.142   4.468   7.315
44326SOL    HW134875  10.120   4.556   7.345
44326SOL    HW234876  10.231   4.477   7.280
44327SOL     OW34877   1.905   9.787   3.564
44327SOL    HW134878   1.873   9.850   3.628
44327SOL    HW234879   1.912   9.837   3.482
44328SOL     OW34880   5.104   4.351  14.027
44328SOL    HW134881   5.132   4.424  14.082
44328SOL    HW234882   5.050   4.297  14.086
44329SOL     OW34883   4.911   2.308  13.885
44329SOL    HW134884   4.848   2.370  13.850
44329SOL    HW234885   4.879   2.288  13.973
44330SOL     OW34886   4.849   9.710   9.147
44330SOL    HW134887   4.817   9.799   9.157
44330SOL    HW234888   4.846   9.694   9.053
44331SOL     OW34889   0.956   7.502   1.021
44331SOL    HW134890   0.920   7.455   0.946
44331SOL    HW234891   0.887   7.499   1.087
44332SOL     OW34892   4.694   9.163   0.783
44332SOL    HW134893   4.684   9.095   0.850
44332SOL    HW234894   4.654   9.124   0.704
44333SOL     OW34895  10.884   8.093  14.126
44333SOL    HW134896  10.807   8.139  14.094
44333SOL    HW234897  10.956   8.154  14.115
44334SOL     OW34898   1.208   6.898  12.279
44334SOL    HW134899   1.137   6.839  12.253
44334SOL    HW234900   1.227   6.949  12.200
44335SOL     OW34901  10.164   7.534  13.814
44335SOL    HW134902  10.240   7.494  13.772
44335SOL    HW234903  10.189   7.625  13.830
44336SOL     OW34904   6.987   3.858   9.473
44336SOL    HW134905   7.060   3.796   9.467
44336SOL    HW234906   6.920   3.812   9.523
44337SOL     OW34907   0.644   9.502   7.738
44337SOL    HW134908   0.607   9.415   7.755
44337SOL    HW234909   0.582   9.563   7.779
44338SOL     OW34910  14.836  10.289  10.001
44338SOL    HW134911   0.007  10.373   9.986
44338SOL    HW234912  14.745  10.312  10.019
44339SOL     OW34913   7.848   6.198   9.681
44339SOL    HW134914   7.770   6.237   9.641
44339SOL    HW234915   7.831   6.202   9.775
44340SOL     OW34916  13.711   0.117  11.687
44340SOL    HW134917  13.746   0.202  11.714
44340SOL    HW234918  13.635   0.139  11.632
44341SOL     OW34919  12.942  11.637   8.275
44341SOL    HW134920  12.937  11.637   8.371
44341SOL    HW234921  12.876  11.572   8.249
44342SOL     OW34922   2.782  11.268   3.054
44342SOL    HW134923   2.789  11.360   3.078
44342SOL    HW234924   2.779  11.269   2.958
44343SOL     OW34925  14.381   7.759   2.816
44343SOL    HW134926  14.388   7.845   2.858
44343SOL    HW234927  14.445   7.762   2.746
44344SOL     OW34928  12.495   0.904  11.198
44344SOL    HW134929  12.453   0.927  11.115
44344SOL    HW234930  12.445   0.830  11.231
44345SOL     OW34931  13.276   1.157  13.920
44345SOL    HW134932  13.190   1.167  13.878
44345SOL    HW234933  13.307   1.071  13.893
44346SOL     OW34934  10.621  12.351   5.111
44346SOL    HW134935  10.602  12.327   5.020
44346SOL    HW234936  10.685  12.286   5.140
44347SOL     OW34937   2.584   2.462   7.594
44347SOL    HW134938   2.627   2.492   7.514
44347SOL    HW234939   2.628   2.509   7.665
44348SOL     OW34940  11.561  11.751  14.103
44348SOL    HW134941  11.501  11.701  14.159
44348SOL    HW234942  11.617  11.685  14.062
44349SOL     OW34943  12.461   9.459   4.212
44349SOL    HW134944  12.458   9.554   4.198
44349SOL    HW234945  12.397   9.443   4.281
44350SOL     OW34946   7.124   3.246   0.267
44350SOL    HW134947   7.153   3.205   0.186
44350SOL    HW234948   7.172   3.329   0.270
44351SOL     OW34949  12.213   4.142  13.771
44351SOL    HW134950  12.289   4.098  13.732
44351SOL    HW234951  12.159   4.167  13.695
44352SOL     OW34952   7.174   8.420   2.353
44352SOL    HW134953   7.216   8.372   2.425
44352SOL    HW234954   7.080   8.404   2.366
44353SOL     OW34955  10.872   0.506   7.376
44353SOL    HW134956  10.941   0.440   7.387
44353SOL    HW234957  10.905   0.562   7.306
44354SOL     OW34958  13.681  14.637   0.420
44354SOL    HW134959  13.732  14.562   0.451
44354SOL    HW234960  13.598  14.600   0.392
44355SOL     OW34961  13.107   1.120   4.804
44355SOL    HW134962  13.157   1.159   4.732
44355SOL    HW234963  13.144   1.033   4.816
44356SOL     OW34964  14.799   7.180  12.425
44356SOL    HW134965  14.808   7.218  12.337
44356SOL    HW234966   0.015   7.151  12.448
44357SOL     OW34967   2.768   7.139   1.545
44357SOL    HW134968   2.846   7.087   1.563
44357SOL    HW234969   2.797   7.205   1.482
44358SOL     OW34970   9.508   7.931  14.834
44358SOL    HW134971   9.422   7.944  14.793
44358SOL    HW234972   9.493   7.955   0.054
44359SOL     OW34973  13.336   0.570   2.936
44359SOL    HW134974  13.412   0.619   2.967
44359SOL    HW234975  13.309   0.614   2.856
44360SOL     OW34976  12.467   3.124  10.807
44360SOL    HW134977  12.561   3.106  10.812
44360SOL    HW234978  12.426   3.051  10.853
44361SOL     OW34979   5.324   1.317   5.326
44361SOL    HW134980   5.324   1.390   5.265
44361SOL    HW234981   5.368   1.352   5.404
44362SOL     OW34982  12.242   1.785  11.859
44362SOL    HW134983  12.164   1.791  11.805
44362SOL    HW234984  12.313   1.818  11.803
44363SOL     OW34985  14.385   9.207   1.601
44363SOL    HW134986  14.294   9.233   1.614
44363SOL    HW234987  14.421   9.272   1.541
44364SOL     OW34988   8.164  14.210  11.091
44364SOL    HW134989   8.219  14.257  11.029
44364SOL    HW234990   8.090  14.177  11.039
44365SOL     OW34991  12.084   4.038  12.137
44365SOL    HW134992  12.081   4.092  12.216
44365SOL    HW234993  12.156   3.977  12.153
44366SOL     OW34994   8.517  11.315   8.547
44366SOL    HW134995   8.591  11.254   8.555
44366SOL    HW234996   8.440  11.262   8.570
44367SOL     OW34997   2.478   3.472  12.853
44367SOL    HW134998   2.572   3.489  12.846
44367SOL    HW234999   2.444   3.489  12.766
44368SOL     OW35000   9.815   4.429  10.909
44368SOL    HW135001   9.838   4.468  10.824
44368SOL    HW235002   9.720   4.419  10.906
44369SOL     OW35003  11.613  14.761   0.124
44369SOL    HW135004  11.581  14.851   0.120
44369SOL    HW235005  11.535  14.707   0.111
44370SOL     OW35006   9.077   9.320   9.219
44370SOL    HW135007   9.075   9.349   9.128
44370SOL    HW235008   8.997   9.268   9.229
44371SOL     OW35009  13.819   8.990   2.238
44371SOL    HW135010  13.846   8.899   2.241
44371SOL    HW235011  13.726   8.989   2.258
44372SOL     OW35012  13.695   8.310   7.081
44372SOL    HW135013  13.754   8.383   7.062
44372SOL    HW235014  13.634   8.345   7.145
44373SOL     OW35015   2.062   8.005  14.601
44373SOL    HW135016   2.085   8.072  14.665
44373SOL    HW235017   2.145   7.979  14.561
44374SOL     OW35018   3.382  13.040   9.889
44374SOL    HW135019   3.358  13.110   9.829
44374SOL    HW235020   3.397  12.963   9.833
44375SOL     OW35021   2.804  12.438  14.820
44375SOL    HW135022   2.780  12.431   0.040
44375SOL    HW235023   2.851  12.357  14.801
44376SOL     OW35024   8.683   9.064   8.423
44376SOL    HW135025   8.738   9.111   8.485
44376SOL    HW235026   8.602   9.048   8.471
44377SOL     OW35027  11.850   4.587   4.141
44377SOL    HW135028  11.885   4.640   4.212
44377SOL    HW235029  11.782   4.640   4.102
44378SOL     OW35030  11.371  12.715   9.054
44378SOL    HW135031  11.466  12.710   9.040
44378SOL    HW235032  11.334  12.716   8.966
44379SOL     OW35033   2.995   7.315   6.972
44379SOL    HW135034   2.959   7.290   6.887
44379SOL    HW235035   3.076   7.265   6.980
44380SOL     OW35036   1.277   0.602  12.826
44380SOL    HW135037   1.366   0.566  12.833
44380SOL    HW235038   1.283   0.688  12.869
44381SOL     OW35039   5.180   2.093   9.579
44381SOL    HW135040   5.126   2.067   9.504
44381SOL    HW235041   5.241   2.020   9.591
44382SOL     OW35042  12.509   3.481   2.449
44382SOL    HW135043  12.459   3.561   2.433
44382SOL    HW235044  12.443   3.412   2.449
44383SOL     OW35045   0.606  13.196  13.309
44383SOL    HW135046   0.670  13.255  13.349
44383SOL    HW235047   0.553  13.253  13.252
44384SOL     OW35048  10.787   9.473   9.440
44384SOL    HW135049  10.796   9.449   9.348
44384SOL    HW235050  10.726   9.408   9.476
44385SOL     OW35051  14.543   9.150   8.166
44385SOL    HW135052  14.486   9.112   8.099
44385SOL    HW235053  14.529   9.245   8.159
44386SOL     OW35054  14.223   2.796  14.287
44386SOL    HW135055  14.179   2.878  14.309
44386SOL    HW235056  14.316   2.817  14.293
44387SOL     OW35057   7.484  11.918  11.248
44387SOL    HW135058   7.465  11.983  11.180
44387SOL    HW235059   7.399  11.878  11.266
44388SOL     OW35060  13.821   7.908   9.251
44388SOL    HW135061  13.802   7.862   9.333
44388SOL    HW235062  13.736   7.912   9.206
44389SOL     OW35063   9.644   5.752  14.535
44389SOL    HW135064   9.564   5.714  14.568
44389SOL    HW235065   9.617   5.834  14.495
44390SOL     OW35066  11.705  14.307   0.152
44390SOL    HW135067  11.652  14.369   0.201
44390SOL    HW235068  11.653  14.227   0.151
44391SOL     OW35069   1.347   1.156  12.447
44391SOL    HW135070   1.284   1.087  12.427
44391SOL    HW235071   1.377   1.187  12.362
44392SOL     OW35072   3.570  14.231   4.623
44392SOL    HW135073   3.650  14.278   4.648
44392SOL    HW235074   3.594  14.186   4.542
44393SOL     OW35075   4.676  10.738  11.743
44393SOL    HW135076   4.760  10.710  11.778
44393SOL    HW235077   4.654  10.671  11.678
44394SOL     OW35078  13.472   3.459  10.924
44394SOL    HW135079  13.483   3.364  10.935
44394SOL    HW235080  13.378   3.472  10.919
44395SOL     OW35081  12.231   5.292   5.080
44395SOL    HW135082  12.222   5.387   5.093
44395SOL    HW235083  12.323   5.280   5.056
44396SOL     OW35084   1.581  11.609   1.991
44396SOL    HW135085   1.528  11.609   1.912
44396SOL    HW235086   1.663  11.567   1.965
44397SOL     OW35087   7.296  13.282   2.187
44397SOL    HW135088   7.237  13.265   2.114
44397SOL    HW235089   7.292  13.377   2.201
44398SOL     OW35090  12.793  12.111   0.677
44398SOL    HW135091  12.841  12.058   0.614
44398SOL    HW235092  12.835  12.094   0.761
44399SOL     OW35093  14.209  11.399   9.368
44399SOL    HW135094  14.276  11.333   9.387
44399SOL    HW235095  14.133  11.349   9.340
44400SOL     OW35096   8.064  10.313   4.479
44400SOL    HW135097   8.138  10.369   4.458
44400SOL    HW235098   8.069  10.241   4.417
44401SOL     OW35099   0.792   7.884  11.634
44401SOL    HW135100   0.756   7.804  11.594
44401SOL    HW235101   0.742   7.896  11.714
44402SOL     OW35102   7.196   3.451   9.496
44402SOL    HW135103   7.123   3.465   9.437
44402SOL    HW235104   7.157   3.411   9.574
44403SOL     OW35105   6.300  10.888   2.640
44403SOL    HW135106   6.246  10.812   2.660
44403SOL    HW235107   6.386  10.850   2.617
44404SOL     OW35108   3.313   1.728  14.053
44404SOL    HW135109   3.357   1.670  13.991
44404SOL    HW235110   3.238   1.678  14.084
44405SOL     OW35111  12.548   4.657  14.158
44405SOL    HW135112  12.559   4.563  14.167
44405SOL    HW235113  12.621   4.686  14.103
44406SOL     OW35114  10.078  14.050   3.385
44406SOL    HW135115  10.014  14.120   3.399
44406SOL    HW235116  10.157  14.081   3.429
44407SOL     OW35117   0.531   8.020  13.692
44407SOL    HW135118   0.571   7.947  13.739
44407SOL    HW235119   0.437   8.002  13.694
44408SOL     OW35120   9.323   6.865  14.185
44408SOL    HW135121   9.346   6.810  14.110
44408SOL    HW235122   9.407   6.892  14.221
44409SOL     OW35123  14.525   4.947   3.621
44409SOL    HW135124  14.544   4.907   3.705
44409SOL    HW235125  14.572   4.894   3.557
44410SOL     OW35126  14.750  14.460   3.991
44410SOL    HW135127  14.730  14.384   4.046
44410SOL    HW235128  14.688  14.528   4.020
44411SOL     OW35129  13.927   5.315   0.328
44411SOL    HW135130  13.856   5.280   0.382
44411SOL    HW235131  13.902   5.407   0.314
44412SOL     OW35132   8.183  13.895   1.173
44412SOL    HW135133   8.252  13.960   1.167
44412SOL    HW235134   8.130  13.923   1.247
44413SOL     OW35135   9.608   7.790   5.847
44413SOL    HW135136   9.674   7.731   5.884
44413SOL    HW235137   9.576   7.839   5.922
44414SOL     OW35138  10.979   1.269   5.645
44414SOL    HW135139  10.951   1.199   5.586
44414SOL    HW235140  10.898   1.314   5.668
44415SOL     OW35141   2.097  13.535   1.817
44415SOL    HW135142   2.076  13.505   1.728
44415SOL    HW235143   2.033  13.604   1.835
44416SOL     OW35144  14.847   0.580   9.570
44416SOL    HW135145  14.752   0.569   9.571
44416SOL    HW235146  14.860   0.661   9.520
44417SOL     OW35147  10.822  11.536   4.813
44417SOL    HW135148  10.916  11.552   4.824
44417SOL    HW235149  10.782  11.622   4.827
44418SOL     OW35150   9.436   0.284  12.791
44418SOL    HW135151   9.424   0.190  12.801
44418SOL    HW235152   9.526   0.300  12.819
44419SOL     OW35153   2.182   2.906  12.098
44419SOL    HW135154   2.203   2.926  12.190
44419SOL    HW235155   2.095   2.867  12.101
44420SOL     OW35156   1.041   5.843   1.008
44420SOL    HW135157   1.054   5.786   1.084
44420SOL    HW235158   1.005   5.924   1.044
44421SOL     OW35159   7.573   6.816  12.194
44421SOL    HW135160   7.650   6.790  12.245
44421SOL    HW235161   7.584   6.910  12.181
44422SOL     OW35162  12.331   7.699   0.420
44422SOL    HW135163  12.351   7.605   0.424
44422SOL    HW235164  12.395   7.735   0.360
44423SOL     OW35165   9.984   1.147   6.630
44423SOL    HW135166  10.060   1.205   6.641
44423SOL    HW235167   9.911   1.207   6.614
44424SOL     OW35168   1.412   7.947  10.664
44424SOL    HW135169   1.434   7.863  10.623
44424SOL    HW235170   1.359   7.992  10.600
44425SOL     OW35171   2.461  13.671   9.120
44425SOL    HW135172   2.441  13.580   9.100
44425SOL    HW235173   2.386  13.720   9.086
44426SOL     OW35174   9.069  10.565   7.646
44426SOL    HW135175   9.134  10.599   7.584
44426SOL    HW235176   9.099  10.596   7.731
44427SOL     OW35177   7.569   2.621   0.059
44427SOL    HW135178   7.636   2.573   0.108
44427SOL    HW235179   7.616   2.660  14.857
44428SOL     OW35180  12.501  10.977   0.472
44428SOL    HW135181  12.466  10.985   0.383
44428SOL    HW235182  12.505  10.883   0.488
44429SOL     OW35183   4.973   4.430  13.796
44429SOL    HW135184   5.039   4.413  13.863
44429SOL    HW235185   4.895   4.385  13.828
44430SOL     OW35186   1.722  10.048   5.407
44430SOL    HW135187   1.787  10.067   5.339
44430SOL    HW235188   1.641  10.085   5.374
44431SOL     OW35189  14.209   8.656  10.757
44431SOL    HW135190  14.143   8.658  10.827
44431SOL    HW235191  14.173   8.595  10.693
44432SOL     OW35192   9.938   3.679   0.687
44432SOL    HW135193   9.947   3.625   0.766
44432SOL    HW235194   9.940   3.617   0.615
44433SOL     OW35195   0.845  11.409   2.308
44433SOL    HW135196   0.848  11.427   2.214
44433SOL    HW235197   0.865  11.315   2.315
44434SOL     OW35198   3.012   0.582  14.040
44434SOL    HW135199   3.004   0.582  14.135
44434SOL    HW235200   3.021   0.489  14.017
44435SOL     OW35201   4.001  12.018   4.395
44435SOL    HW135202   4.097  12.011   4.399
44435SOL    HW235203   3.985  12.109   4.370
44436SOL     OW35204  13.559   5.103   1.986
44436SOL    HW135205  13.600   5.021   2.016
44436SOL    HW235206  13.468   5.079   1.968
44437SOL     OW35207   0.386   5.549   6.630
44437SOL    HW135208   0.374   5.619   6.694
44437SOL    HW235209   0.423   5.476   6.680
44438SOL     OW35210   1.492   1.704  13.266
44438SOL    HW135211   1.586   1.710  13.248
44438SOL    HW235212   1.453   1.679  13.182
44439SOL     OW35213  12.381   1.139   8.816
44439SOL    HW135214  12.379   1.076   8.888
44439SOL    HW235215  12.474   1.160   8.805
44440SOL     OW35216   8.251   7.651   8.266
44440SOL    HW135217   8.246   7.742   8.293
44440SOL    HW235218   8.345   7.634   8.255
44441SOL     OW35219   3.665   3.760   4.949
44441SOL    HW135220   3.579   3.731   4.918
44441SOL    HW235221   3.706   3.681   4.984
44442SOL     OW35222  12.907  11.605  14.483
44442SOL    HW135223  12.847  11.537  14.514
44442SOL    HW235224  12.907  11.595  14.388
44443SOL     OW35225  14.786  12.415   1.863
44443SOL    HW135226  14.754  12.346   1.922
44443SOL    HW235227  14.871  12.383   1.832
44444SOL     OW35228  10.906  12.985   4.703
44444SOL    HW135229  10.986  12.933   4.712
44444SOL    HW235230  10.932  13.074   4.725
44445SOL     OW35231  14.217   8.514  12.092
44445SOL    HW135232  14.171   8.462  12.027
44445SOL    HW235233  14.159   8.515  12.168
44446SOL     OW35234   1.461   1.219   6.750
44446SOL    HW135235   1.379   1.172   6.737
44446SOL    HW235236   1.523   1.152   6.777
44447SOL     OW35237  13.783   8.768   0.844
44447SOL    HW135238  13.855   8.804   0.792
44447SOL    HW235239  13.708   8.770   0.785
44448SOL     OW35240   9.537  14.157   5.235
44448SOL    HW135241   9.461  14.117   5.278
44448SOL    HW235242   9.609  14.096   5.251
44449SOL     OW35243   8.795   6.946   9.863
44449SOL    HW135244   8.752   6.893   9.796
44449SOL    HW235245   8.723   6.975   9.919
44450SOL     OW35246   2.749   2.701   9.772
44450SOL    HW135247   2.726   2.612   9.743
44450SOL    HW235248   2.841   2.694   9.798
44451SOL     OW35249   0.527  13.073   4.199
44451SOL    HW135250   0.465  13.073   4.272
44451SOL    HW235251   0.576  13.154   4.209
44452SOL     OW35252   0.495   9.377   6.805
44452SOL    HW135253   0.480   9.471   6.801
44452SOL    HW235254   0.413   9.339   6.771
44453SOL     OW35255   2.093   1.356  13.597
44453SOL    HW135256   2.074   1.365  13.691
44453SOL    HW235257   2.188   1.353  13.592
44454SOL     OW35258   2.533   6.221   4.700
44454SOL    HW135259   2.437   6.220   4.704
44454SOL    HW235260   2.553   6.231   4.607
44455SOL     OW35261  10.189   0.162   2.494
44455SOL    HW135262  10.206   0.186   2.403
44455SOL    HW235263  10.243   0.223   2.546
44456SOL     OW35264   4.183   3.628  13.814
44456SOL    HW135265   4.103   3.586  13.846
44456SOL    HW235266   4.154   3.690  13.748
44457SOL     OW35267   6.001   6.180   3.866
44457SOL    HW135268   6.023   6.087   3.872
44457SOL    HW235269   6.080   6.221   3.833
44458SOL     OW35270   7.950  14.622   4.772
44458SOL    HW135271   8.007  14.589   4.702
44458SOL    HW235272   7.862  14.606   4.740
44459SOL     OW35273   1.146   0.839   6.196
44459SOL    HW135274   1.185   0.924   6.211
44459SOL    HW235275   1.107   0.845   6.108
44460SOL     OW35276   6.197   7.095  13.189
44460SOL    HW135277   6.144   7.175  13.184
44460SOL    HW235278   6.145   7.036  13.243
44461SOL     OW35279  14.714   8.300   6.497
44461SOL    HW135280  14.718   8.363   6.569
44461SOL    HW235281  14.789   8.243   6.512
44462SOL     OW35282   2.676   6.184   8.216
44462SOL    HW135283   2.644   6.244   8.148
44462SOL    HW235284   2.654   6.097   8.183
44463SOL     OW35285  13.621   9.794   9.619
44463SOL    HW135286  13.666   9.878   9.629
44463SOL    HW235287  13.564   9.806   9.543
44464SOL     OW35288  13.367   9.508   8.138
44464SOL    HW135289  13.389   9.572   8.205
44464SOL    HW235290  13.306   9.554   8.079
44465SOL     OW35291   9.153  14.282   9.896
44465SOL    HW135292   9.126  14.371   9.920
44465SOL    HW235293   9.083  14.251   9.839
44466SOL     OW35294  13.139   1.030   7.100
44466SOL    HW135295  13.192   1.023   7.179
44466SOL    HW235296  13.176   0.966   7.040
44467SOL     OW35297   2.736  13.798  13.663
44467SOL    HW135298   2.727  13.708  13.632
44467SOL    HW235299   2.807  13.835  13.611
44468SOL     OW35300   0.928   1.788   3.662
44468SOL    HW135301   0.962   1.721   3.722
44468SOL    HW235302   0.961   1.763   3.576
44469SOL     OW35303   1.804   4.794   0.304
44469SOL    HW135304   1.861   4.755   0.238
44469SOL    HW235305   1.719   4.754   0.289
44470SOL     OW35306   8.654   9.583   4.280
44470SOL    HW135307   8.650   9.557   4.188
44470SOL    HW235308   8.609   9.668   4.283
44471SOL     OW35309  12.101   5.899   5.521
44471SOL    HW135310  12.179   5.898   5.576
44471SOL    HW235311  12.062   5.812   5.532
44472SOL     OW35312   2.747   3.386   3.024
44472SOL    HW135313   2.837   3.358   3.042
44472SOL    HW235314   2.726   3.447   3.095
44473SOL     OW35315  12.609   2.195   4.073
44473SOL    HW135316  12.657   2.113   4.086
44473SOL    HW235317  12.654   2.258   4.130
44474SOL     OW35318   3.749   0.799  13.447
44474SOL    HW135319   3.703   0.752  13.516
44474SOL    HW235320   3.685   0.862  13.413
44475SOL     OW35321   9.347   9.916   0.214
44475SOL    HW135322   9.410   9.844   0.209
44475SOL    HW235323   9.268   9.880   0.172
44476SOL     OW35324  13.877  12.723   9.504
44476SOL    HW135325  13.895  12.633   9.533
44476SOL    HW235326  13.963  12.757   9.479
44477SOL     OW35327   5.047   6.877   8.189
44477SOL    HW135328   5.041   6.973   8.191
44477SOL    HW235329   5.141   6.859   8.192
44478SOL     OW35330   4.130   8.735   6.573
44478SOL    HW135331   4.154   8.705   6.486
44478SOL    HW235332   4.047   8.692   6.591
44479SOL     OW35333   7.138   2.011   3.357
44479SOL    HW135334   7.124   2.065   3.279
44479SOL    HW235335   7.208   2.054   3.405
44480SOL     OW35336   3.989   1.336   1.020
44480SOL    HW135337   4.019   1.427   1.027
44480SOL    HW235338   3.894   1.342   1.024
44481SOL     OW35339  12.173   8.728   4.803
44481SOL    HW135340  12.257   8.774   4.806
44481SOL    HW235341  12.134   8.754   4.720
44482SOL     OW35342   5.536   7.729   1.004
44482SOL    HW135343   5.474   7.800   0.989
44482SOL    HW235344   5.570   7.744   1.092
44483SOL     OW35345  13.898  11.979   9.482
44483SOL    HW135346  13.983  11.969   9.438
44483SOL    HW235347  13.849  12.038   9.424
44484SOL     OW35348   9.882  10.381   8.961
44484SOL    HW135349   9.879  10.413   8.871
44484SOL    HW235350   9.821  10.438   9.008
44485SOL     OW35351   4.007   1.732   5.028
44485SOL    HW135352   3.985   1.640   5.013
44485SOL    HW235353   3.922   1.775   5.044
44486SOL     OW35354   8.277   7.378   0.946
44486SOL    HW135355   8.293   7.364   0.853
44486SOL    HW235356   8.364   7.381   0.985
44487SOL     OW35357   9.814   2.230  14.120
44487SOL    HW135358   9.789   2.141  14.096
44487SOL    HW235359   9.731   2.273  14.140
44488SOL     OW35360   6.629   3.347  13.649
44488SOL    HW135361   6.652   3.344  13.556
44488SOL    HW235362   6.706   3.310  13.694
44489SOL     OW35363   1.392   9.627   4.791
44489SOL    HW135364   1.367   9.682   4.865
44489SOL    HW235365   1.360   9.540   4.813
44490SOL     OW35366   0.919   5.260   4.245
44490SOL    HW135367   0.833   5.284   4.280
44490SOL    HW235368   0.935   5.324   4.176
44491SOL     OW35369   0.607   6.942  13.228
44491SOL    HW135370   0.678   6.883  13.255
44491SOL    HW235371   0.651   7.012  13.180
44492SOL     OW35372   7.135   5.411   5.195
44492SOL    HW135373   7.083   5.424   5.116
44492SOL    HW235374   7.089   5.460   5.263
44493SOL     OW35375   3.922   5.713   4.568
44493SOL    HW135376   3.991   5.700   4.633
44493SOL    HW235377   3.868   5.783   4.605
44494SOL     OW35378   5.112   3.545   8.413
44494SOL    HW135379   5.115   3.467   8.357
44494SOL    HW235380   5.203   3.560   8.437
44495SOL     OW35381   1.770  13.125  13.942
44495SOL    HW135382   1.750  13.185  13.869
44495SOL    HW235383   1.823  13.177  14.002
44496SOL     OW35384  11.605   8.027   1.083
44496SOL    HW135385  11.671   8.019   1.015
44496SOL    HW235386  11.650   8.004   1.164
44497SOL     OW35387   8.012  11.867  14.597
44497SOL    HW135388   8.074  11.866  14.670
44497SOL    HW235389   7.965  11.949  14.607
44498SOL     OW35390   2.939  14.778   3.731
44498SOL    HW135391   2.873  14.715   3.701
44498SOL    HW235392   2.983  14.734   3.805
44499SOL     OW35393   3.353   2.775   0.205
44499SOL    HW135394   3.361   2.722   0.284
44499SOL    HW235395   3.398   2.726   0.137
44500SOL     OW35396   1.598  10.705   6.346
44500SOL    HW135397   1.660  10.634   6.364
44500SOL    HW235398   1.518  10.678   6.391
44501SOL     OW35399   0.846   4.470   8.120
44501SOL    HW135400   0.876   4.396   8.069
44501SOL    HW235401   0.823   4.433   8.205
44502SOL     OW35402  10.818  11.610   1.972
44502SOL    HW135403  10.866  11.650   2.044
44502SOL    HW235404  10.826  11.516   1.987
44503SOL     OW35405   4.188   3.789   5.378
44503SOL    HW135406   4.189   3.722   5.309
44503SOL    HW235407   4.097   3.791   5.407
44504SOL     OW35408   9.758   7.711   5.043
44504SOL    HW135409   9.714   7.641   5.092
44504SOL    HW235410   9.725   7.702   4.954
44505SOL     OW35411   4.373   4.075   7.671
44505SOL    HW135412   4.377   4.079   7.575
44505SOL    HW235413   4.282   4.054   7.691
44506SOL     OW35414   5.335  14.316  13.273
44506SOL    HW135415   5.386  14.322  13.354
44506SOL    HW235416   5.394  14.349  13.205
44507SOL     OW35417  11.341  14.069  10.840
44507SOL    HW135418  11.367  13.977  10.834
44507SOL    HW235419  11.262  14.075  10.786
44508SOL     OW35420   3.219   8.883   7.603
44508SOL    HW135421   3.243   8.866   7.694
44508SOL    HW235422   3.129   8.853   7.595
44509SOL     OW35423   4.897  10.961   0.683
44509SOL    HW135424   4.948  11.018   0.625
44509SOL    HW235425   4.813  10.950   0.639
44510SOL     OW35426   7.293   5.630   1.705
44510SOL    HW135427   7.312   5.550   1.655
44510SOL    HW235428   7.327   5.701   1.650
44511SOL     OW35429  13.265   4.699   2.166
44511SOL    HW135430  13.271   4.658   2.080
44511SOL    HW235431  13.353   4.693   2.202
44512SOL     OW35432   6.444   5.158   9.268
44512SOL    HW135433   6.370   5.214   9.244
44512SOL    HW235434   6.521   5.211   9.246
44513SOL     OW35435  13.104   3.949   7.900
44513SOL    HW135436  13.187   3.997   7.902
44513SOL    HW235437  13.059   3.982   7.823
44514SOL     OW35438   8.741  12.314   8.979
44514SOL    HW135439   8.651  12.339   9.000
44514SOL    HW235440   8.768  12.257   9.051
44515SOL     OW35441   1.477   8.217  13.730
44515SOL    HW135442   1.507   8.137  13.686
44515SOL    HW235443   1.436   8.186  13.811
44516SOL     OW35444   2.082   4.564  12.447
44516SOL    HW135445   2.072   4.498  12.515
44516SOL    HW235446   2.150   4.623  12.481
44517SOL     OW35447   0.588   7.568   1.694
44517SOL    HW135448   0.516   7.543   1.636
44517SOL    HW235449   0.585   7.664   1.696
44518SOL     OW35450  13.758  11.235   8.972
44518SOL    HW135451  13.717  11.312   9.012
44518SOL    HW235452  13.714  11.160   9.013
44519SOL     OW35453  11.899   0.446   3.228
44519SOL    HW135454  11.827   0.486   3.179
44519SOL    HW235455  11.975   0.499   3.206
44520SOL     OW35456   8.064   3.823  11.987
44520SOL    HW135457   8.147   3.841  11.944
44520SOL    HW235458   8.075   3.736  12.026
44521SOL     OW35459   2.941   0.187   2.578
44521SOL    HW135460   2.864   0.187   2.522
44521SOL    HW235461   3.014   0.173   2.518
44522SOL     OW35462  11.583  10.029   5.957
44522SOL    HW135463  11.639  10.106   5.945
44522SOL    HW235464  11.610   9.993   6.041
44523SOL     OW35465  12.394  11.913   0.307
44523SOL    HW135466  12.372  11.825   0.336
44523SOL    HW235467  12.412  11.961   0.388
44524SOL     OW35468  10.588   0.420   5.789
44524SOL    HW135469  10.584   0.470   5.707
44524SOL    HW235470  10.518   0.356   5.781
44525SOL     OW35471   0.469   2.789   9.701
44525SOL    HW135472   0.559   2.758   9.695
44525SOL    HW235473   0.416   2.719   9.661
44526SOL     OW35474  12.259   8.319   7.584
44526SOL    HW135475  12.344   8.329   7.627
44526SOL    HW235476  12.195   8.336   7.653
44527SOL     OW35477  14.844   3.409   6.158
44527SOL    HW135478   0.052   3.442   6.117
44527SOL    HW235479  14.820   3.332   6.106
44528SOL     OW35480  10.305   1.844  14.400
44528SOL    HW135481  10.300   1.892  14.317
44528SOL    HW235482  10.381   1.880  14.444
44529SOL     OW35483  14.355   4.804   6.807
44529SOL    HW135484  14.398   4.869   6.862
44529SOL    HW235485  14.268   4.840   6.791
44530SOL     OW35486  10.367  12.523  12.408
44530SOL    HW135487  10.296  12.520  12.344
44530SOL    HW235488  10.338  12.585  12.474
44531SOL     OW35489  13.234  12.768   2.550
44531SOL    HW135490  13.284  12.767   2.469
44531SOL    HW235491  13.300  12.774   2.619
44532SOL     OW35492   9.892  11.120   4.686
44532SOL    HW135493   9.940  11.037   4.683
44532SOL    HW235494   9.856  11.130   4.598
44533SOL     OW35495  14.839   3.504   9.812
44533SOL    HW135496  14.798   3.551   9.885
44533SOL    HW235497   0.015   3.572   9.765
44534SOL     OW35498   7.337   3.695   8.517
44534SOL    HW135499   7.420   3.687   8.563
44534SOL    HW235500   7.354   3.659   8.430
44535SOL     OW35501  11.863  11.286   9.975
44535SOL    HW135502  11.818  11.202   9.978
44535SOL    HW235503  11.882  11.306  10.067
44536SOL     OW35504   3.321   3.861   8.259
44536SOL    HW135505   3.376   3.857   8.337
44536SOL    HW235506   3.284   3.773   8.251
44537SOL     OW35507  12.865   0.217  14.038
44537SOL    HW135508  12.952   0.235  14.002
44537SOL    HW235509  12.875   0.230  14.132
44538SOL     OW35510  13.686   8.055   9.972
44538SOL    HW135511  13.749   7.985   9.995
44538SOL    HW235512  13.648   8.080  10.056
44539SOL     OW35513   1.975   7.009   4.911
44539SOL    HW135514   2.000   7.069   4.840
44539SOL    HW235515   1.894   7.045   4.945
44540SOL     OW35516   6.547   0.854   2.513
44540SOL    HW135517   6.571   0.885   2.426
44540SOL    HW235518   6.458   0.820   2.504
44541SOL     OW35519   7.325   6.838  10.063
44541SOL    HW135520   7.359   6.798   9.983
44541SOL    HW235521   7.340   6.772  10.131
44542SOL     OW35522  12.497  10.036   6.683
44542SOL    HW135523  12.583  10.026   6.723
44542SOL    HW235524  12.486  10.130   6.671
44543SOL     OW35525  13.909   3.748  12.621
44543SOL    HW135526  13.977   3.680  12.630
44543SOL    HW235527  13.941   3.804  12.550
44544SOL     OW35528   6.587   5.744   5.322
44544SOL    HW135529   6.661   5.707   5.275
44544SOL    HW235530   6.621   5.765   5.409
44545SOL     OW35531  14.355  14.205   2.760
44545SOL    HW135532  14.409  14.200   2.681
44545SOL    HW235533  14.374  14.125   2.808
44546SOL     OW35534  14.070   0.504   4.197
44546SOL    HW135535  14.012   0.439   4.236
44546SOL    HW235536  14.120   0.455   4.132
44547SOL     OW35537   5.491  12.991   6.886
44547SOL    HW135538   5.419  13.019   6.942
44547SOL    HW235539   5.554  13.063   6.890
44548SOL     OW35540   0.089   2.656   9.968
44548SOL    HW135541   0.025   2.668   9.898
44548SOL    HW235542   0.147   2.732   9.960
44549SOL     OW35543   4.320   0.767  11.344
44549SOL    HW135544   4.319   0.765  11.439
44549SOL    HW235545   4.317   0.860  11.321
44550SOL     OW35546  10.071   0.156   0.104
44550SOL    HW135547  10.112   0.241   0.085
44550SOL    HW235548  10.141   0.106   0.146
44551SOL     OW35549  13.047  12.055   3.638
44551SOL    HW135550  13.129  12.014   3.610
44551SOL    HW235551  13.018  12.104   3.561
44552SOL     OW35552  13.004  13.203   3.721
44552SOL    HW135553  13.013  13.127   3.664
44552SOL    HW235554  13.000  13.166   3.810
44553SOL     OW35555   6.644  14.614  11.726
44553SOL    HW135556   6.593  14.533  11.728
44553SOL    HW235557   6.728  14.590  11.764
44554SOL     OW35558   2.625   6.267  10.858
44554SOL    HW135559   2.623   6.362  10.873
44554SOL    HW235560   2.715   6.249  10.832
44555SOL     OW35561   7.723   2.585  12.745
44555SOL    HW135562   7.709   2.497  12.782
44555SOL    HW235563   7.816   2.587  12.723
44556SOL     OW35564   4.175   6.205   1.381
44556SOL    HW135565   4.080   6.210   1.393
44556SOL    HW235566   4.198   6.116   1.406
44557SOL     OW35567   0.300  10.662   4.235
44557SOL    HW135568   0.224  10.670   4.292
44557SOL    HW235569   0.285  10.728   4.167
44558SOL     OW35570  13.949   3.219   4.121
44558SOL    HW135571  13.890   3.177   4.059
44558SOL    HW235572  13.997   3.147   4.162
44559SOL     OW35573   8.536  14.684  10.422
44559SOL    HW135574   8.523  14.590  10.436
44559SOL    HW235575   8.544  14.693  10.328
44560SOL     OW35576   4.444   1.617  14.758
44560SOL    HW135577   4.380   1.660  14.815
44560SOL    HW235578   4.441   1.525  14.784
44561SOL     OW35579   8.470   1.565   0.032
44561SOL    HW135580   8.402   1.525   0.086
44561SOL    HW235581   8.552   1.527   0.064
44562SOL     OW35582   3.268  12.098   6.304
44562SOL    HW135583   3.195  12.085   6.364
44562SOL    HW235584   3.310  12.179   6.335
44563SOL     OW35585  11.970  14.407  10.483
44563SOL    HW135586  11.961  14.486  10.538
44563SOL    HW235587  12.041  14.429  10.423
44564SOL     OW35588   7.508   3.560  11.367
44564SOL    HW135589   7.534   3.520  11.284
44564SOL    HW235590   7.432   3.510  11.395
44565SOL     OW35591   7.427   1.779   2.338
44565SOL    HW135592   7.486   1.820   2.401
44565SOL    HW235593   7.341   1.818   2.357
44566SOL     OW35594   6.013   9.546  10.104
44566SOL    HW135595   5.989   9.517  10.192
44566SOL    HW235596   6.045   9.635  10.115
44567SOL     OW35597  10.323   8.084  13.305
44567SOL    HW135598  10.321   7.988  13.305
44567SOL    HW235599  10.329   8.108  13.397
44568SOL     OW35600   1.900   4.310   8.801
44568SOL    HW135601   1.939   4.367   8.868
44568SOL    HW235602   1.806   4.328   8.806
44569SOL     OW35603  11.875  13.986  13.539
44569SOL    HW135604  11.869  14.054  13.471
44569SOL    HW235605  11.786  13.953  13.547
44570SOL     OW35606   8.312   0.565   5.293
44570SOL    HW135607   8.274   0.650   5.271
44570SOL    HW235608   8.302   0.513   5.213
44571SOL     OW35609   4.155   8.196  11.876
44571SOL    HW135610   4.176   8.218  11.967
44571SOL    HW235611   4.071   8.151  11.881
44572SOL     OW35612   4.850   1.361   4.717
44572SOL    HW135613   4.914   1.295   4.744
44572SOL    HW235614   4.798   1.318   4.649
44573SOL     OW35615  10.606   0.089   9.142
44573SOL    HW135616  10.555   0.132   9.074
44573SOL    HW235617  10.695   0.085   9.107
44574SOL     OW35618  13.969  12.096   7.032
44574SOL    HW135619  13.882  12.089   7.071
44574SOL    HW235620  13.995  12.187   7.047
44575SOL     OW35621   0.983   1.375   8.072
44575SOL    HW135622   0.950   1.293   8.109
44575SOL    HW235623   0.995   1.433   8.147
44576SOL     OW35624   0.510  14.563   8.476
44576SOL    HW135625   0.565  14.514   8.414
44576SOL    HW235626   0.492  14.646   8.432
44577SOL     OW35627  11.272   2.470   0.429
44577SOL    HW135628  11.336   2.527   0.471
44577SOL    HW235629  11.318   2.435   0.352
44578SOL     OW35630  11.397  13.938  10.413
44578SOL    HW135631  11.331  13.928  10.481
44578SOL    HW235632  11.481  13.926  10.458
44579SOL     OW35633   3.247   3.550  12.075
44579SOL    HW135634   3.303   3.480  12.042
44579SOL    HW235635   3.249   3.617  12.007
44580SOL     OW35636  11.509  11.663  14.389
44580SOL    HW135637  11.572  11.678  14.459
44580SOL    HW235638  11.497  11.568  14.387
44581SOL     OW35639  11.259  13.237  11.481
44581SOL    HW135640  11.287  13.254  11.570
44581SOL    HW235641  11.299  13.307  11.429
44582SOL     OW35642   3.748  10.553   4.186
44582SOL    HW135643   3.768  10.479   4.243
44582SOL    HW235644   3.672  10.525   4.135
44583SOL     OW35645   4.316  14.140  10.621
44583SOL    HW135646   4.339  14.115  10.532
44583SOL    HW235647   4.392  14.113  10.674
44584SOL     OW35648   2.453   1.421   1.641
44584SOL    HW135649   2.458   1.334   1.602
44584SOL    HW235650   2.500   1.477   1.580
44585SOL     OW35651   1.211   7.761  11.867
44585SOL    HW135652   1.200   7.667  11.880
44585SOL    HW235653   1.184   7.799  11.951
44586SOL     OW35654   2.833   0.910   9.712
44586SOL    HW135655   2.876   0.825   9.703
44586SOL    HW235656   2.756   0.891   9.766
44587SOL     OW35657   9.266   4.751   9.515
44587SOL    HW135658   9.226   4.669   9.487
44587SOL    HW235659   9.360   4.734   9.511
44588SOL     OW35660  13.805   0.230   1.248
44588SOL    HW135661  13.899   0.250   1.257
44588SOL    HW235662  13.780   0.193   1.333
44589SOL     OW35663   4.529  14.574   7.486
44589SOL    HW135664   4.527  14.661   7.445
44589SOL    HW235665   4.509  14.591   7.578
44590SOL     OW35666   6.732  11.286   0.717
44590SOL    HW135667   6.768  11.227   0.784
44590SOL    HW235668   6.753  11.374   0.749
44591SOL     OW35669   1.672   6.341   6.156
44591SOL    HW135670   1.635   6.425   6.128
44591SOL    HW235671   1.701   6.299   6.074
44592SOL     OW35672   1.193   5.017   6.086
44592SOL    HW135673   1.182   5.087   6.151
44592SOL    HW235674   1.105   4.982   6.073
44593SOL     OW35675  10.395  12.821  11.200
44593SOL    HW135676  10.326  12.877  11.165
44593SOL    HW235677  10.469  12.834  11.141
44594SOL     OW35678  12.205   9.668  12.820
44594SOL    HW135679  12.278   9.621  12.781
44594SOL    HW235680  12.156   9.601  12.868
44595SOL     OW35681   5.994  11.936   8.480
44595SOL    HW135682   5.984  11.885   8.560
44595SOL    HW235683   6.055  11.885   8.427
44596SOL     OW35684  12.689   3.968   9.802
44596SOL    HW135685  12.606   3.953   9.756
44596SOL    HW235686  12.665   3.973   9.894
44597SOL     OW35687   2.320  10.779   8.388
44597SOL    HW135688   2.409  10.749   8.406
44597SOL    HW235689   2.277  10.704   8.346
44598SOL     OW35690   0.541   7.217   1.504
44598SOL    HW135691   0.511   7.301   1.471
44598SOL    HW235692   0.622   7.199   1.457
44599SOL     OW35693   7.049   1.208  11.116
44599SOL    HW135694   7.054   1.301  11.139
44599SOL    HW235695   7.030   1.164  11.199
44600SOL     OW35696   1.394   9.746   5.659
44600SOL    HW135697   1.473   9.774   5.704
44600SOL    HW235698   1.333   9.723   5.730
44601SOL     OW35699   8.337   0.122  10.218
44601SOL    HW135700   8.254   0.122  10.264
44601SOL    HW235701   8.326   0.058  10.147
44602SOL     OW35702   2.135   2.613   5.808
44602SOL    HW135703   2.066   2.639   5.869
44602SOL    HW235704   2.118   2.665   5.730
44603SOL     OW35705   6.978   0.071   3.734
44603SOL    HW135706   6.948  14.863   3.690
44603SOL    HW235707   6.988   0.045   3.825
44604SOL     OW35708   9.398  13.757  14.188
44604SOL    HW135709   9.426  13.806  14.265
44604SOL    HW235710   9.477  13.712  14.158
44605SOL     OW35711   7.521   7.297   6.397
44605SOL    HW135712   7.530   7.234   6.326
44605SOL    HW235713   7.460   7.256   6.458
44606SOL     OW35714  11.348   6.322  11.365
44606SOL    HW135715  11.327   6.300  11.274
44606SOL    HW235716  11.321   6.414  11.374
44607SOL     OW35717   1.557   1.971   6.758
44607SOL    HW135718   1.467   1.980   6.788
44607SOL    HW235719   1.564   1.879   6.731
44608SOL     OW35720   7.462   1.122   7.405
44608SOL    HW135721   7.445   1.133   7.499
44608SOL    HW235722   7.397   1.058   7.376
44609SOL     OW35723   0.542  11.944   3.507
44609SOL    HW135724   0.481  11.887   3.460
44609SOL    HW235725   0.507  12.032   3.495
44610SOL     OW35726  10.035  11.665   9.902
44610SOL    HW135727  10.008  11.755   9.923
44610SOL    HW235728  10.000  11.649   9.815
44611SOL     OW35729   0.555   1.967   9.158
44611SOL    HW135730   0.506   1.888   9.179
44611SOL    HW235731   0.646   1.938   9.151
44612SOL     OW35732   3.287   6.548  11.519
44612SOL    HW135733   3.277   6.631  11.566
44612SOL    HW235734   3.377   6.551  11.486
44613SOL     OW35735   6.825  14.372  10.502
44613SOL    HW135736   6.794  14.284  10.524
44613SOL    HW235737   6.826  14.418  10.586
44614SOL     OW35738  13.073   8.171   3.618
44614SOL    HW135739  13.091   8.133   3.532
44614SOL    HW235740  13.107   8.106   3.680
44615SOL     OW35741   6.448   1.769   0.927
44615SOL    HW135742   6.455   1.720   1.009
44615SOL    HW235743   6.539   1.795   0.908
44616SOL     OW35744  12.183   3.295  13.882
44616SOL    HW135745  12.205   3.359  13.950
44616SOL    HW235746  12.249   3.310  13.814
44617SOL     OW35747  12.915   4.312   4.381
44617SOL    HW135748  12.936   4.399   4.346
44617SOL    HW235749  12.939   4.252   4.311
44618SOL     OW35750   3.353  11.014   9.283
44618SOL    HW135751   3.370  10.947   9.217
44618SOL    HW235752   3.404  11.090   9.255
44619SOL     OW35753   0.537   2.659  11.020
44619SOL    HW135754   0.523   2.691  10.931
44619SOL    HW235755   0.459   2.686  11.068
44620SOL     OW35756   8.793  13.621   2.426
44620SOL    HW135757   8.786  13.650   2.517
44620SOL    HW235758   8.783  13.526   2.430
44621SOL     OW35759   3.514   6.433  13.980
44621SOL    HW135760   3.586   6.382  14.019
44621SOL    HW235761   3.505   6.509  14.037
44622SOL     OW35762  10.924   5.307   4.049
44622SOL    HW135763  10.951   5.320   4.140
44622SOL    HW235764  10.993   5.348   3.997
44623SOL     OW35765   8.694   8.502  12.168
44623SOL    HW135766   8.779   8.499  12.124
44623SOL    HW235767   8.700   8.435  12.236
44624SOL     OW35768   6.655   3.413   1.618
44624SOL    HW135769   6.604   3.481   1.575
44624SOL    HW235770   6.706   3.373   1.548
44625SOL     OW35771   8.261   7.041  10.942
44625SOL    HW135772   8.336   6.990  10.913
44625SOL    HW235773   8.298   7.122  10.977
44626SOL     OW35774   0.441  10.769   5.582
44626SOL    HW135775   0.402  10.853   5.606
44626SOL    HW235776   0.503  10.790   5.512
44627SOL     OW35777   4.272   6.153   3.040
44627SOL    HW135778   4.341   6.199   2.992
44627SOL    HW235779   4.307   6.140   3.127
44628SOL     OW35780   8.751   3.143   1.068
44628SOL    HW135781   8.666   3.116   1.104
44628SOL    HW235782   8.790   3.198   1.136
44629SOL     OW35783   9.533   2.274   6.396
44629SOL    HW135784   9.521   2.208   6.328
44629SOL    HW235785   9.628   2.281   6.407
44630SOL     OW35786   5.754   8.376   9.936
44630SOL    HW135787   5.746   8.339   9.848
44630SOL    HW235788   5.843   8.354   9.963
44631SOL     OW35789   2.491   7.004   4.852
44631SOL    HW135790   2.582   7.032   4.855
44631SOL    HW235791   2.462   7.005   4.943
44632SOL     OW35792  12.009   5.115  10.079
44632SOL    HW135793  12.015   5.021  10.095
44632SOL    HW235794  12.061   5.129  10.000
44633SOL     OW35795   7.530   1.214  11.544
44633SOL    HW135796   7.622   1.205  11.520
44633SOL    HW235797   7.485   1.229  11.461
44634SOL     OW35798   6.618  12.639  13.950
44634SOL    HW135799   6.642  12.673  14.036
44634SOL    HW235800   6.530  12.673  13.933
44635SOL     OW35801   5.499   8.010   0.595
44635SOL    HW135802   5.405   8.020   0.584
44635SOL    HW235803   5.536   8.089   0.553
44636SOL     OW35804   0.499   5.346  11.875
44636SOL    HW135805   0.579   5.386  11.909
44636SOL    HW235806   0.432   5.368  11.940
44637SOL     OW35807  14.396   3.950   4.114
44637SOL    HW135808  14.447   3.872   4.135
44637SOL    HW235809  14.420   4.014   4.181
44638SOL     OW35810  13.415   1.314   8.986
44638SOL    HW135811  13.380   1.232   8.950
44638SOL    HW235812  13.347   1.379   8.969
44639SOL     OW35813   4.508   9.840  14.202
44639SOL    HW135814   4.497   9.841  14.297
44639SOL    HW235815   4.535   9.929  14.181
44640SOL     OW35816   6.054  14.454  13.303
44640SOL    HW135817   6.037  14.525  13.241
44640SOL    HW235818   6.059  14.376  13.249
44641SOL     OW35819   7.753  12.796   8.943
44641SOL    HW135820   7.842  12.805   8.978
44641SOL    HW235821   7.766  12.765   8.853
44642SOL     OW35822   2.556   8.429  14.545
44642SOL    HW135823   2.641   8.471  14.549
44642SOL    HW235824   2.531   8.434  14.452
44643SOL     OW35825   5.142  14.038   9.764
44643SOL    HW135826   5.091  14.050   9.845
44643SOL    HW235827   5.089  14.080   9.696
44644SOL     OW35828   4.412   7.247   4.756
44644SOL    HW135829   4.356   7.314   4.717
44644SOL    HW235830   4.373   7.232   4.843
44645SOL     OW35831   3.417   9.713   0.440
44645SOL    HW135832   3.457   9.744   0.358
44645SOL    HW235833   3.465   9.634   0.462
44646SOL     OW35834   3.128   3.017  10.153
44646SOL    HW135835   3.142   2.946  10.215
44646SOL    HW235836   3.050   3.063  10.185
44647SOL     OW35837  13.703  12.212  13.127
44647SOL    HW135838  13.793  12.243  13.119
44647SOL    HW235839  13.653  12.289  13.153
44648SOL     OW35840  13.262  10.835  10.843
44648SOL    HW135841  13.192  10.781  10.879
44648SOL    HW235842  13.239  10.847  10.751
44649SOL     OW35843  13.237  14.202   6.045
44649SOL    HW135844  13.195  14.176   5.963
44649SOL    HW235845  13.203  14.141   6.110
44650SOL     OW35846   8.002  12.554   4.381
44650SOL    HW135847   7.934  12.619   4.370
44650SOL    HW235848   8.031  12.533   4.293
44651SOL     OW35849   1.659  14.799  11.824
44651SOL    HW135850   1.701  14.772  11.742
44651SOL    HW235851   1.600  14.869  11.798
44652SOL     OW35852   2.371   4.088   4.097
44652SOL    HW135853   2.343   4.048   4.015
44652SOL    HW235854   2.423   4.164   4.071
44653SOL     OW35855  13.871  13.231  10.258
44653SOL    HW135856  13.889  13.217  10.165
44653SOL    HW235857  13.869  13.144  10.296
44654SOL     OW35858  12.937   4.980   0.133
44654SOL    HW135859  12.853   5.007   0.170
44654SOL    HW235860  12.916   4.902   0.082
44655SOL     OW35861   7.745   1.774   7.656
44655SOL    HW135862   7.710   1.714   7.721
44655SOL    HW235863   7.759   1.721   7.578
44656SOL     OW35864   0.716   1.534   9.700
44656SOL    HW135865   0.779   1.546   9.771
44656SOL    HW235866   0.653   1.470   9.735
44657SOL     OW35867  13.168  12.875  14.225
44657SOL    HW135868  13.197  12.816  14.294
44657SOL    HW235869  13.107  12.935  14.268
44658SOL     OW35870  14.016   8.154   2.667
44658SOL    HW135871  14.048   8.099   2.738
44658SOL    HW235872  13.930   8.118   2.645
44659SOL     OW35873   4.426   7.184   7.710
44659SOL    HW135874   4.466   7.222   7.632
44659SOL    HW235875   4.342   7.149   7.679
44660SOL     OW35876   0.737  11.912   8.219
44660SOL    HW135877   0.764  11.967   8.145
44660SOL    HW235878   0.720  11.827   8.180
44661SOL     OW35879   2.431   6.860   6.202
44661SOL    HW135880   2.393   6.795   6.143
44661SOL    HW235881   2.453   6.810   6.281
44662SOL     OW35882   4.175   2.671   7.004
44662SOL    HW135883   4.130   2.614   7.066
44662SOL    HW235884   4.220   2.736   7.059
44663SOL     OW35885  14.357  11.994   1.897
44663SOL    HW135886  14.390  11.921   1.949
44663SOL    HW235887  14.269  11.966   1.871
44664SOL     OW35888  11.228   8.691   9.569
44664SOL    HW135889  11.244   8.607   9.611
44664SOL    HW235890  11.140   8.682   9.531
44665SOL     OW35891   3.265   4.569  13.247
44665SOL    HW135892   3.315   4.625  13.306
44665SOL    HW235893   3.257   4.620  13.167
44666SOL     OW35894   4.838   8.364   7.277
44666SOL    HW135895   4.784   8.438   7.251
44666SOL    HW235896   4.896   8.349   7.202
44667SOL     OW35897  10.066   9.430  14.388
44667SOL    HW135898  10.085   9.336  14.377
44667SOL    HW235899  10.081   9.467  14.301
44668SOL     OW35900   5.977   5.841   2.381
44668SOL    HW135901   6.009   5.765   2.430
44668SOL    HW235902   6.053   5.900   2.375
44669SOL     OW35903   8.556  14.106  11.355
44669SOL    HW135904   8.494  14.166  11.394
44669SOL    HW235905   8.578  14.044  11.425
44670SOL     OW35906  11.120  11.031   0.073
44670SOL    HW135907  11.096  10.941   0.052
44670SOL    HW235908  11.043  11.083   0.050
44671SOL     OW35909   9.457   5.011   2.917
44671SOL    HW135910   9.459   5.105   2.901
44671SOL    HW235911   9.394   4.977   2.854
44672SOL     OW35912  12.235   2.979   7.914
44672SOL    HW135913  12.172   3.026   7.860
44672SOL    HW235914  12.321   3.003   7.878
44673SOL     OW35915   5.511   8.874   1.227
44673SOL    HW135916   5.435   8.933   1.223
44673SOL    HW235917   5.568   8.914   1.293
44674SOL     OW35918   6.653   0.367  10.683
44674SOL    HW135919   6.601   0.318  10.620
44674SOL    HW235920   6.610   0.452  10.689
44675SOL     OW35921   0.361   3.587   5.018
44675SOL    HW135922   0.365   3.530   5.095
44675SOL    HW235923   0.286   3.644   5.035
44676SOL     OW35924  12.530   7.553   7.062
44676SOL    HW135925  12.570   7.538   7.148
44676SOL    HW235926  12.539   7.470   7.017
44677SOL     OW35927  12.466  11.241   2.555
44677SOL    HW135928  12.451  11.211   2.645
44677SOL    HW235929  12.412  11.182   2.501
44678SOL     OW35930  13.570   1.802   7.578
44678SOL    HW135931  13.559   1.827   7.487
44678SOL    HW235932  13.524   1.718   7.585
44679SOL     OW35933   9.766   0.931   9.306
44679SOL    HW135934   9.842   0.952   9.360
44679SOL    HW235935   9.744   1.014   9.263
44680SOL     OW35936   3.287  11.292  12.382
44680SOL    HW135937   3.210  11.269  12.434
44680SOL    HW235938   3.356  11.236  12.416
44681SOL     OW35939   9.813  11.911  10.366
44681SOL    HW135940   9.851  11.987  10.409
44681SOL    HW235941   9.760  11.946  10.295
44682SOL     OW35942   5.636   8.483   0.953
44682SOL    HW135943   5.577   8.541   1.003
44682SOL    HW235944   5.723   8.504   0.985
44683SOL     OW35945   5.265  14.804   7.154
44683SOL    HW135946   5.231   0.007   7.202
44683SOL    HW235947   5.207  14.732   7.179
44684SOL     OW35948   4.672   4.302   3.516
44684SOL    HW135949   4.647   4.229   3.573
44684SOL    HW235950   4.600   4.364   3.523
44685SOL     OW35951   6.914  10.128   3.280
44685SOL    HW135952   6.931  10.213   3.320
44685SOL    HW235953   6.925  10.065   3.351
44686SOL     OW35954   6.194   9.269  12.781
44686SOL    HW135955   6.207   9.327  12.855
44686SOL    HW235956   6.163   9.187  12.820
44687SOL     OW35957   4.124  11.263   6.236
44687SOL    HW135958   4.155  11.172   6.237
44687SOL    HW235959   4.135  11.291   6.145
44688SOL     OW35960   7.482  11.509   6.959
44688SOL    HW135961   7.537  11.485   7.033
44688SOL    HW235962   7.393  11.497   6.990
44689SOL     OW35963   7.334   3.198   2.993
44689SOL    HW135964   7.329   3.134   2.922
44689SOL    HW235965   7.418   3.180   3.035
44690SOL     OW35966   7.533  12.660   8.426
44690SOL    HW135967   7.465  12.727   8.419
44690SOL    HW235968   7.609  12.698   8.382
44691SOL     OW35969  12.170  11.999  13.812
44691SOL    HW135970  12.132  11.913  13.830
44691SOL    HW235971  12.152  12.014  13.719
44692SOL     OW35972   4.915   9.963   4.033
44692SOL    HW135973   4.839  10.017   4.010
44692SOL    HW235974   4.950  10.004   4.112
44693SOL     OW35975   8.534   2.502   6.034
44693SOL    HW135976   8.505   2.428   5.981
44693SOL    HW235977   8.455   2.532   6.079
44694SOL     OW35978   0.620   9.573  10.390
44694SOL    HW135979   0.554   9.505  10.387
44694SOL    HW235980   0.575   9.652  10.360
44695SOL     OW35981   5.400  12.803  10.650
44695SOL    HW135982   5.427  12.784  10.740
44695SOL    HW235983   5.446  12.884  10.628
44696SOL     OW35984   3.996   1.369   8.360
44696SOL    HW135985   3.989   1.308   8.287
44696SOL    HW235986   4.051   1.440   8.327
44697SOL     OW35987  13.620   4.716   8.978
44697SOL    HW135988  13.609   4.654   8.905
44697SOL    HW235989  13.653   4.796   8.937
44698SOL     OW35990  11.425   5.735  11.636
44698SOL    HW135991  11.414   5.708  11.545
44698SOL    HW235992  11.341   5.713  11.677
44699SOL     OW35993   9.262   4.123  11.861
44699SOL    HW135994   9.334   4.100  11.920
44699SOL    HW235995   9.192   4.152  11.919
44700SOL     OW35996   6.765   1.011   3.664
44700SOL    HW135997   6.692   1.067   3.637
44700SOL    HW235998   6.737   0.923   3.640
44701SOL     OW35999   1.644  10.764  11.878
44701SOL    HW136000   1.590  10.756  11.956
44701SOL    HW236001   1.679  10.675  11.864
44702SOL     OW36002  13.170   0.808   5.670
44702SOL    HW136003  13.218   0.838   5.593
44702SOL    HW236004  13.229   0.744   5.711
44703SOL     OW36005   6.467   0.914   3.687
44703SOL    HW136006   6.445   0.924   3.594
44703SOL    HW236007   6.517   0.833   3.691
44704SOL     OW36008   4.986  14.527   4.275
44704SOL    HW136009   5.032  14.556   4.354
44704SOL    HW236010   5.007  14.434   4.267
44705SOL     OW36011  14.637  12.086   7.852
44705SOL    HW136012  14.555  12.041   7.831
44705SOL    HW236013  14.649  12.071   7.946
44706SOL     OW36014   0.697  11.248   3.299
44706SOL    HW136015   0.679  11.243   3.205
44706SOL    HW236016   0.774  11.192   3.312
44707SOL     OW36017  13.183  14.100   3.358
44707SOL    HW136018  13.231  14.087   3.440
44707SOL    HW236019  13.166  14.194   3.355
44708SOL     OW36020  13.709   0.899   7.032
44708SOL    HW136021  13.784   0.952   7.060
44708SOL    HW236022  13.674   0.861   7.113
44709SOL     OW36023  12.739   8.546   0.088
44709SOL    HW136024  12.775   8.516   0.004
44709SOL    HW236025  12.688   8.472   0.121
44710SOL     OW36026   1.235  10.532   5.570
44710SOL    HW136027   1.289  10.599   5.611
44710SOL    HW236028   1.289  10.498   5.499
44711SOL     OW36029   1.126  12.110  14.188
44711SOL    HW136030   1.199  12.166  14.162
44711SOL    HW236031   1.122  12.120  14.283
44712SOL     OW36032   0.664   4.203   9.277
44712SOL    HW136033   0.667   4.277   9.338
44712SOL    HW236034   0.597   4.227   9.213
44713SOL     OW36035   7.938   7.484   0.767
44713SOL    HW136036   7.956   7.493   0.860
44713SOL    HW236037   7.845   7.507   0.759
44714SOL     OW36038   9.536   6.081  14.083
44714SOL    HW136039   9.503   6.071  13.994
44714SOL    HW236040   9.500   6.006  14.130
44715SOL     OW36041   3.476   6.975   2.567
44715SOL    HW136042   3.503   7.013   2.483
44715SOL    HW236043   3.511   7.035   2.633
44716SOL     OW36044   9.207   5.174   3.950
44716SOL    HW136045   9.178   5.168   3.860
44716SOL    HW236046   9.293   5.131   3.951
44717SOL     OW36047  14.500   7.701   4.141
44717SOL    HW136048  14.492   7.607   4.157
44717SOL    HW236049  14.520   7.707   4.048
44718SOL     OW36050   9.257   3.081  11.412
44718SOL    HW136051   9.248   3.009  11.475
44718SOL    HW236052   9.305   3.149  11.461
44719SOL     OW36053   9.341   0.041   5.334
44719SOL    HW136054   9.388   0.091   5.402
44719SOL    HW236055   9.351  14.822   5.360
44720SOL     OW36056   7.509   9.561   1.069
44720SOL    HW136057   7.419   9.583   1.045
44720SOL    HW236058   7.516   9.589   1.160
44721SOL     OW36059   6.448  11.001  10.928
44721SOL    HW136060   6.355  11.018  10.941
44721SOL    HW236061   6.465  10.920  10.976
44722SOL     OW36062   3.374  12.787   4.707
44722SOL    HW136063   3.452  12.786   4.762
44722SOL    HW236064   3.403  12.828   4.625
44723SOL     OW36065  11.088  11.827   1.809
44723SOL    HW136066  10.999  11.803   1.834
44723SOL    HW236067  11.138  11.822   1.890
44724SOL     OW36068  13.892   6.817  10.801
44724SOL    HW136069  13.811   6.814  10.750
44724SOL    HW236070  13.956   6.854  10.741
44725SOL     OW36071   4.721   2.284  11.983
44725SOL    HW136072   4.802   2.320  12.021
44725SOL    HW236073   4.691   2.219  12.047
44726SOL     OW36074   2.151   9.510   9.683
44726SOL    HW136075   2.056   9.520   9.690
44726SOL    HW236076   2.186   9.583   9.734
44727SOL     OW36077   0.283  10.265   3.961
44727SOL    HW136078   0.218  10.225   4.018
44727SOL    HW236079   0.364  10.263   4.012
44728SOL     OW36080  13.305   9.361  11.032
44728SOL    HW136081  13.345   9.436  11.076
44728SOL    HW236082  13.358   9.349  10.953
44729SOL     OW36083   8.022  13.082   3.396
44729SOL    HW136084   8.006  13.170   3.430
44729SOL    HW236085   8.039  13.096   3.302
44730SOL     OW36086  11.689   9.386   8.016
44730SOL    HW136087  11.705   9.479   8.033
44730SOL    HW236088  11.617   9.385   7.952
44731SOL     OW36089   7.474   0.195   4.041
44731SOL    HW136090   7.542   0.127   4.042
44731SOL    HW236091   7.435   0.190   3.954
44732SOL     OW36092   6.062   0.081  13.168
44732SOL    HW136093   6.119   0.005  13.157
44732SOL    HW236094   6.053   0.090  13.263
44733SOL     OW36095   4.732  11.260   7.911
44733SOL    HW136096   4.655  11.204   7.919
44733SOL    HW236097   4.804  11.199   7.895
44734SOL     OW36098   3.134   9.188   4.942
44734SOL    HW136099   3.187   9.263   4.915
44734SOL    HW236100   3.111   9.207   5.033
44735SOL     OW36101   1.875   9.512   5.394
44735SOL    HW136102   1.809   9.449   5.366
44735SOL    HW236103   1.832   9.597   5.389
44736SOL     OW36104  12.262  13.180   0.229
44736SOL    HW136105  12.248  13.274   0.240
44736SOL    HW236106  12.185  13.150   0.181
44737SOL     OW36107  11.993   3.363   5.403
44737SOL    HW136108  11.990   3.417   5.482
44737SOL    HW236109  11.982   3.274   5.435
44738SOL     OW36110  13.530   4.373   6.381
44738SOL    HW136111  13.563   4.402   6.296
44738SOL    HW236112  13.606   4.337   6.426
44739SOL     OW36113   3.033   3.139   2.966
44739SOL    HW136114   3.009   3.167   2.878
44739SOL    HW236115   3.042   3.219   3.016
44740SOL     OW36116  11.732   6.302   2.321
44740SOL    HW136117  11.708   6.283   2.411
44740SOL    HW236118  11.782   6.226   2.292
44741SOL     OW36119   4.620   5.319   6.329
44741SOL    HW136120   4.660   5.402   6.354
44741SOL    HW236121   4.681   5.280   6.267
44742SOL     OW36122   4.815  11.834   5.119
44742SOL    HW136123   4.832  11.924   5.146
44742SOL    HW236124   4.902  11.795   5.112
44743SOL     OW36125   8.798  11.686   3.949
44743SOL    HW136126   8.720  11.714   3.996
44743SOL    HW236127   8.870  11.695   4.012
44744SOL     OW36128   7.220  12.449  11.634
44744SOL    HW136129   7.310  12.437  11.665
44744SOL    HW236130   7.227  12.444  11.539
44745SOL     OW36131  12.435   6.107   9.330
44745SOL    HW136132  12.498   6.043   9.297
44745SOL    HW236133  12.469   6.134   9.415
44746SOL     OW36134  11.522   1.879  11.658
44746SOL    HW136135  11.605   1.876  11.706
44746SOL    HW236136  11.514   1.793  11.617
44747SOL     OW36137   0.086  10.832   3.553
44747SOL    HW136138   0.035  10.753   3.575
44747SOL    HW236139   0.026  10.904   3.569
44748SOL     OW36140   2.715   0.046   3.922
44748SOL    HW136141   2.733   0.132   3.961
44748SOL    HW236142   2.794   0.026   3.872
44749SOL     OW36143   0.386  12.476   8.660
44749SOL    HW136144   0.389  12.397   8.607
44749SOL    HW236145   0.473  12.481   8.700
44750SOL     OW36146   8.740   9.968   8.890
44750SOL    HW136147   8.725  10.027   8.816
44750SOL    HW236148   8.812   9.911   8.862
44751SOL     OW36149   7.626   0.848   7.714
44751SOL    HW136150   7.639   0.902   7.636
44751SOL    HW236151   7.685   0.774   7.701
44752SOL     OW36152   7.114  14.396   9.473
44752SOL    HW136153   7.124  14.402   9.378
44752SOL    HW236154   7.177  14.330   9.500
44753SOL     OW36155   6.810   5.433   0.351
44753SOL    HW136156   6.754   5.356   0.335
44753SOL    HW236157   6.805   5.447   0.446
44754SOL     OW36158   6.594  12.465   8.518
44754SOL    HW136159   6.630  12.502   8.437
44754SOL    HW236160   6.642  12.384   8.531
44755SOL     OW36161   9.627   2.408   5.432
44755SOL    HW136162   9.539   2.414   5.468
44755SOL    HW236163   9.623   2.335   5.371
44756SOL     OW36164   8.611   0.970   7.593
44756SOL    HW136165   8.661   1.040   7.552
44756SOL    HW236166   8.556   0.935   7.523
44757SOL     OW36167   0.468  10.829   1.604
44757SOL    HW136168   0.487  10.918   1.576
44757SOL    HW236169   0.444  10.837   1.696
44758SOL     OW36170   6.046   0.566  10.054
44758SOL    HW136171   6.039   0.474  10.027
44758SOL    HW236172   6.130   0.595  10.019
44759SOL     OW36173  12.660   0.807   8.350
44759SOL    HW136174  12.589   0.829   8.411
44759SOL    HW236175  12.639   0.719   8.320
44760SOL     OW36176  10.453  12.800   5.517
44760SOL    HW136177  10.480  12.708   5.524
44760SOL    HW236178  10.424  12.823   5.605
44761SOL     OW36179  10.937   9.570  12.221
44761SOL    HW136180  10.894   9.523  12.149
44761SOL    HW236181  10.980   9.501  12.272
44762SOL     OW36182   2.974  12.759   5.256
44762SOL    HW136183   2.916  12.688   5.284
44762SOL    HW236184   3.038  12.716   5.199
44763SOL     OW36185   4.778   9.211  12.446
44763SOL    HW136186   4.856   9.163  12.419
44763SOL    HW236187   4.717   9.144  12.477
44764SOL     OW36188   7.389  10.141  10.644
44764SOL    HW136189   7.325  10.129  10.714
44764SOL    HW236190   7.345  10.110  10.565
44765SOL     OW36191  14.277   1.958  11.726
44765SOL    HW136192  14.247   1.994  11.810
44765SOL    HW236193  14.316   2.033  11.681
44766SOL     OW36194   6.693   6.623  11.711
44766SOL    HW136195   6.656   6.639  11.798
44766SOL    HW236196   6.617   6.604  11.656
44767SOL     OW36197   9.417   1.723   2.989
44767SOL    HW136198   9.401   1.630   3.003
44767SOL    HW236199   9.330   1.763   2.986
44768SOL     OW36200  13.451  13.154   1.969
44768SOL    HW136201  13.492  13.151   2.056
44768SOL    HW236202  13.506  13.215   1.919
44769SOL     OW36203  14.123   2.319   9.605
44769SOL    HW136204  14.129   2.395   9.663
44769SOL    HW236205  14.184   2.256   9.641
44770SOL     OW36206  14.459   4.830  11.717
44770SOL    HW136207  14.431   4.748  11.757
44770SOL    HW236208  14.488   4.805  11.629
44771SOL     OW36209   4.162   1.496   8.588
44771SOL    HW136210   4.179   1.412   8.546
44771SOL    HW236211   4.213   1.559   8.537
44772SOL     OW36212   4.660   8.859  10.183
44772SOL    HW136213   4.716   8.833  10.109
44772SOL    HW236214   4.627   8.777  10.218
44773SOL     OW36215   7.193   2.404  11.423
44773SOL    HW136216   7.117   2.422  11.368
44773SOL    HW236217   7.210   2.310  11.409
44774SOL     OW36218   4.898   5.530   2.022
44774SOL    HW136219   4.952   5.606   2.003
44774SOL    HW236220   4.828   5.534   1.956
44775SOL     OW36221   9.927   4.487   9.091
44775SOL    HW136222   9.955   4.435   9.016
44775SOL    HW236223  10.008   4.516   9.133
44776SOL     OW36224  14.517   4.675  14.160
44776SOL    HW136225  14.553   4.658  14.074
44776SOL    HW236226  14.535   4.596  14.210
44777SOL     OW36227   5.586   5.169   8.843
44777SOL    HW136228   5.528   5.243   8.823
44777SOL    HW236229   5.609   5.180   8.935
44778SOL     OW36230   4.147  12.955  13.973
44778SOL    HW136231   4.064  12.925  13.936
44778SOL    HW236232   4.151  13.047  13.948
44779SOL     OW36233  14.655   5.557   7.826
44779SOL    HW136234  14.733   5.562   7.771
44779SOL    HW236235  14.592   5.507   7.773
44780SOL     OW36236   7.008  14.245   5.742
44780SOL    HW136237   7.020  14.235   5.837
44780SOL    HW236238   7.094  14.270   5.709
44781SOL     OW36239  14.109   0.345  10.898
44781SOL    HW136240  14.178   0.284  10.924
44781SOL    HW236241  14.046   0.290  10.851
44782SOL     OW36242   2.133   1.743  11.996
44782SOL    HW136243   2.174   1.743  12.083
44782SOL    HW236244   2.114   1.651  11.979
44783SOL     OW36245   6.996   5.069   8.073
44783SOL    HW136246   6.994   5.128   8.149
44783SOL    HW236247   6.960   5.122   8.002
44784SOL     OW36248   1.414  12.162   3.096
44784SOL    HW136249   1.470  12.239   3.101
44784SOL    HW236250   1.328  12.192   3.126
44785SOL     OW36251   6.761   4.081   1.362
44785SOL    HW136252   6.840   4.069   1.309
44785SOL    HW236253   6.787   4.141   1.431
44786SOL     OW36254   7.124   7.316  11.513
44786SOL    HW136255   7.171   7.299  11.594
44786SOL    HW236256   7.037   7.344  11.541
44787SOL     OW36257   8.096  12.040  10.560
44787SOL    HW136258   8.063  12.026  10.649
44787SOL    HW236259   8.169  11.979  10.552
44788SOL     OW36260  10.106   9.021   6.302
44788SOL    HW136261  10.180   8.960   6.294
44788SOL    HW236262  10.116   9.081   6.229
44789SOL     OW36263  13.928   8.749  11.150
44789SOL    HW136264  13.863   8.682  11.169
44789SOL    HW236265  13.907   8.820  11.211
44790SOL     OW36266   1.406  12.540   9.765
44790SOL    HW136267   1.415  12.607   9.697
44790SOL    HW236268   1.483  12.552   9.820
44791SOL     OW36269  11.994   9.984   3.870
44791SOL    HW136270  11.960  10.020   3.788
44791SOL    HW236271  11.917   9.959   3.920
44792SOL     OW36272   4.356   7.381   2.726
44792SOL    HW136273   4.411   7.454   2.752
44792SOL    HW236274   4.281   7.385   2.786
44793SOL     OW36275   2.623  10.932   4.098
44793SOL    HW136276   2.692  10.884   4.053
44793SOL    HW236277   2.637  10.913   4.191
44794SOL     OW36278  11.731   2.286   4.445
44794SOL    HW136279  11.724   2.280   4.541
44794SOL    HW236280  11.679   2.212   4.413
44795SOL     OW36281   6.769   7.661   0.536
44795SOL    HW136282   6.763   7.607   0.615
44795SOL    HW236283   6.780   7.751   0.569
44796SOL     OW36284   9.759   3.815   4.917
44796SOL    HW136285   9.770   3.732   4.962
44796SOL    HW236286   9.671   3.811   4.880
44797SOL     OW36287   0.351  12.467  13.236
44797SOL    HW136288   0.324  12.520  13.161
44797SOL    HW236289   0.369  12.381  13.198
44798SOL     OW36290  12.457  10.068   5.572
44798SOL    HW136291  12.442   9.981   5.610
44798SOL    HW236292  12.452  10.127   5.647
44799SOL     OW36293  13.209   1.333   1.358
44799SOL    HW136294  13.144   1.271   1.388
44799SOL    HW236295  13.170   1.419   1.372
44800SOL     OW36296   4.400  13.343   3.229
44800SOL    HW136297   4.416  13.294   3.148
44800SOL    HW236298   4.388  13.434   3.200
44801SOL     OW36299   6.080   5.780   1.971
44801SOL    HW136300   5.988   5.792   1.994
44801SOL    HW236301   6.104   5.697   2.014
44802SOL     OW36302   4.132  14.223   3.121
44802SOL    HW136303   4.146  14.234   3.027
44802SOL    HW236304   4.037  14.214   3.131
44803SOL     OW36305   4.981   2.176   2.551
44803SOL    HW136306   4.967   2.085   2.527
44803SOL    HW236307   4.982   2.224   2.468
44804SOL     OW36308   4.307  11.541  13.890
44804SOL    HW136309   4.301  11.622  13.840
44804SOL    HW236310   4.274  11.473  13.831
44805SOL     OW36311  10.757  11.341   2.031
44805SOL    HW136312  10.724  11.343   2.121
44805SOL    HW236313  10.815  11.265   2.029
44806SOL     OW36314   0.710   7.682   4.882
44806SOL    HW136315   0.618   7.656   4.894
44806SOL    HW236316   0.758   7.623   4.940
44807SOL     OW36317   1.974   2.116   5.410
44807SOL    HW136318   1.960   2.022   5.418
44807SOL    HW236319   1.891   2.155   5.435
44808SOL     OW36320   1.638   2.940  10.729
44808SOL    HW136321   1.722   2.948  10.683
44808SOL    HW236322   1.585   3.012  10.694
44809SOL     OW36323   6.838   5.027   0.388
44809SOL    HW136324   6.896   5.028   0.312
44809SOL    HW236325   6.779   5.101   0.375
44810SOL     OW36326   2.179   8.556  11.730
44810SOL    HW136327   2.226   8.533  11.810
44810SOL    HW236328   2.094   8.514  11.740
44811SOL     OW36329   1.803  12.921   9.147
44811SOL    HW136330   1.756  12.850   9.104
44811SOL    HW236331   1.751  12.999   9.129
44812SOL     OW36332   2.884   8.896   0.440
44812SOL    HW136333   2.932   8.885   0.358
44812SOL    HW236334   2.805   8.844   0.428
44813SOL     OW36335   1.023  14.741   4.183
44813SOL    HW136336   0.981  14.751   4.269
44813SOL    HW236337   1.064  14.654   4.186
44814SOL     OW36338   6.670   4.297   3.883
44814SOL    HW136339   6.651   4.204   3.868
44814SOL    HW236340   6.700   4.329   3.798
44815SOL     OW36341   2.590   7.120  11.240
44815SOL    HW136342   2.509   7.165  11.261
44815SOL    HW236343   2.653   7.190  11.224
44816SOL     OW36344   2.929   7.234   7.489
44816SOL    HW136345   3.021   7.231   7.463
44816SOL    HW236346   2.895   7.148   7.465
44817SOL     OW36347   9.696   5.007   8.240
44817SOL    HW136348   9.606   5.016   8.209
44817SOL    HW236349   9.697   4.924   8.288
44818SOL     OW36350   1.779  10.805   2.862
44818SOL    HW136351   1.740  10.861   2.930
44818SOL    HW236352   1.715  10.804   2.792
44819SOL     OW36353   5.656  11.019  12.429
44819SOL    HW136354   5.599  11.085  12.390
44819SOL    HW236355   5.724  11.069  12.474
44820SOL     OW36356   0.667  10.537   2.706
44820SOL    HW136357   0.700  10.617   2.666
44820SOL    HW236358   0.745  10.494   2.742
44821SOL     OW36359   4.327   5.572  12.535
44821SOL    HW136360   4.408   5.591  12.583
44821SOL    HW236361   4.354   5.570  12.443
44822SOL     OW36362   1.074   7.119  13.587
44822SOL    HW136363   1.015   7.045  13.604
44822SOL    HW236364   1.098   7.151  13.674
44823SOL     OW36365   8.515   8.479   1.934
44823SOL    HW136366   8.559   8.546   1.987
44823SOL    HW236367   8.421   8.495   1.948
44824SOL     OW36368   0.171  10.939  13.916
44824SOL    HW136369   0.134  10.958  13.830
44824SOL    HW236370   0.192  11.025  13.953
44825SOL     OW36371   0.216   7.154   4.765
44825SOL    HW136372   0.162   7.232   4.767
44825SOL    HW236373   0.298   7.182   4.724
44826SOL     OW36374  10.888  11.549   5.906
44826SOL    HW136375  10.822  11.574   5.971
44826SOL    HW236376  10.897  11.455   5.915
44827SOL     OW36377   6.019  10.410   2.564
44827SOL    HW136378   6.058  10.365   2.638
44827SOL    HW236379   6.094  10.441   2.512
44828SOL     OW36380   4.247   6.886   0.509
44828SOL    HW136381   4.311   6.836   0.458
44828SOL    HW236382   4.176   6.824   0.524
44829SOL     OW36383   1.208   4.442  12.614
44829SOL    HW136384   1.132   4.499  12.602
44829SOL    HW236385   1.262   4.458  12.536
44830SOL     OW36386  11.401  11.108  11.047
44830SOL    HW136387  11.361  11.145  10.969
44830SOL    HW236388  11.495  11.105  11.028
44831SOL     OW36389  10.675  12.272   9.898
44831SOL    HW136390  10.612  12.325   9.945
44831SOL    HW236391  10.730  12.233   9.966
44832SOL     OW36392   3.448   3.862   4.416
44832SOL    HW136393   3.520   3.923   4.398
44832SOL    HW236394   3.382   3.881   4.349
44833SOL     OW36395   6.832  10.834   0.346
44833SOL    HW136396   6.797  10.748   0.319
44833SOL    HW236397   6.907  10.848   0.289
44834SOL     OW36398   4.363   4.868   3.153
44834SOL    HW136399   4.281   4.915   3.144
44834SOL    HW236400   4.415   4.921   3.214
44835SOL     OW36401   3.215   1.201   6.166
44835SOL    HW136402   3.239   1.294   6.159
44835SOL    HW236403   3.273   1.166   6.233
44836SOL     OW36404   5.742  12.018   7.344
44836SOL    HW136405   5.712  11.936   7.382
44836SOL    HW236406   5.724  12.010   7.251
44837SOL     OW36407   8.094   2.962  14.495
44837SOL    HW136408   8.073   2.920  14.412
44837SOL    HW236409   8.116   3.052  14.472
44838SOL     OW36410  13.138   3.870   6.111
44838SOL    HW136411  13.070   3.804   6.125
44838SOL    HW236412  13.155   3.906   6.198
44839SOL     OW36413   5.952   6.085   4.593
44839SOL    HW136414   5.927   6.040   4.674
44839SOL    HW236415   5.932   6.177   4.609
44840SOL     OW36416   1.520  13.071   1.429
44840SOL    HW136417   1.544  12.980   1.412
44840SOL    HW236418   1.448  13.065   1.491
44841SOL     OW36419  10.414   0.180  11.414
44841SOL    HW136420  10.496   0.194  11.461
44841SOL    HW236421  10.415   0.245  11.344
44842SOL     OW36422  12.624   4.050   0.497
44842SOL    HW136423  12.681   4.127   0.504
44842SOL    HW236424  12.547   4.081   0.449
44843SOL     OW36425   3.957  12.371   3.276
44843SOL    HW136426   3.889  12.304   3.280
44843SOL    HW236427   3.909  12.454   3.285
44844SOL     OW36428   4.364  14.125   7.581
44844SOL    HW136429   4.296  14.069   7.618
44844SOL    HW236430   4.331  14.150   7.495
44845SOL     OW36431   6.359  11.891  11.441
44845SOL    HW136432   6.361  11.901  11.345
44845SOL    HW236433   6.410  11.966  11.473
44846SOL     OW36434  11.069   5.275   8.395
44846SOL    HW136435  11.104   5.361   8.371
44846SOL    HW236436  10.983   5.272   8.352
44847SOL     OW36437  10.537   1.631  13.552
44847SOL    HW136438  10.505   1.711  13.593
44847SOL    HW236439  10.617   1.657  13.506
44848SOL     OW36440   8.370  13.674   6.245
44848SOL    HW136441   8.462  13.671   6.218
44848SOL    HW236442   8.322  13.695   6.165
44849SOL     OW36443  10.642   3.634  10.543
44849SOL    HW136444  10.730   3.668  10.526
44849SOL    HW236445  10.584   3.693  10.494
44850SOL     OW36446   9.805   8.567  13.722
44850SOL    HW136447   9.728   8.513  13.703
44850SOL    HW236448   9.819   8.619  13.643
44851SOL     OW36449   0.156   8.295   2.965
44851SOL    HW136450   0.064   8.310   2.983
44851SOL    HW236451   0.166   8.199   2.969
44852SOL     OW36452   3.743   9.535   1.047
44852SOL    HW136453   3.668   9.491   1.086
44852SOL    HW236454   3.706   9.603   0.991
44853SOL     OW36455   2.302   1.681   3.775
44853SOL    HW136456   2.271   1.613   3.716
44853SOL    HW236457   2.349   1.742   3.719
44854SOL     OW36458   7.625   9.428  12.341
44854SOL    HW136459   7.626   9.333  12.330
44854SOL    HW236460   7.534   9.453  12.324
44855SOL     OW36461   4.697   4.297   0.261
44855SOL    HW136462   4.784   4.278   0.226
44855SOL    HW236463   4.641   4.227   0.227
44856SOL     OW36464   9.635   6.851  14.705
44856SOL    HW136465   9.617   6.851  14.800
44856SOL    HW236466   9.712   6.906  14.695
44857SOL     OW36467   7.989   2.316  11.109
44857SOL    HW136468   7.895   2.331  11.115
44857SOL    HW236469   8.002   2.229  11.148
44858SOL     OW36470   2.937   9.141   3.618
44858SOL    HW136471   2.863   9.203   3.621
44858SOL    HW236472   3.002   9.185   3.564
44859SOL     OW36473  13.127  13.676   0.547
44859SOL    HW136474  13.099  13.605   0.489
44859SOL    HW236475  13.138  13.634   0.632
44860SOL     OW36476   4.785  13.646   5.280
44860SOL    HW136477   4.858  13.654   5.341
44860SOL    HW236478   4.711  13.617   5.334
44861SOL     OW36479  10.155   4.294  10.486
44861SOL    HW136480  10.086   4.232  10.509
44861SOL    HW236481  10.161   4.290  10.391
44862SOL     OW36482  10.690   2.574   1.989
44862SOL    HW136483  10.741   2.652   2.008
44862SOL    HW236484  10.642   2.556   2.069
44863SOL     OW36485  12.050   5.232   5.262
44863SOL    HW136486  12.002   5.156   5.228
44863SOL    HW236487  12.111   5.255   5.192
44864SOL     OW36488   6.806  11.775  14.374
44864SOL    HW136489   6.844  11.708  14.318
44864SOL    HW236490   6.880  11.812  14.421
44865SOL     OW36491  10.091  12.447  10.467
44865SOL    HW136492  10.077  12.409  10.554
44865SOL    HW236493  10.186  12.455  10.459
44866SOL     OW36494   5.172   9.157   1.488
44866SOL    HW136495   5.184   9.100   1.412
44866SOL    HW236496   5.261   9.178   1.516
44867SOL     OW36497   3.448  11.228   9.474
44867SOL    HW136498   3.528  11.240   9.423
44867SOL    HW236499   3.440  11.134   9.485
44868SOL     OW36500   8.777  10.410  13.193
44868SOL    HW136501   8.769  10.432  13.100
44868SOL    HW236502   8.687  10.408  13.225
44869SOL     OW36503   4.853   4.658   9.858
44869SOL    HW136504   4.886   4.738   9.898
44869SOL    HW236505   4.841   4.598   9.932
44870SOL     OW36506   0.855   1.934   5.649
44870SOL    HW136507   0.801   1.857   5.628
44870SOL    HW236508   0.940   1.898   5.673
44871SOL     OW36509   8.030   2.885  12.753
44871SOL    HW136510   8.098   2.818  12.739
44871SOL    HW236511   8.074   2.954  12.803
44872SOL     OW36512  12.855   5.360   7.966
44872SOL    HW136513  12.883   5.336   8.054
44872SOL    HW236514  12.760   5.372   7.973
44873SOL     OW36515  11.938  13.467  13.459
44873SOL    HW136516  12.025  13.427  13.466
44873SOL    HW236517  11.930  13.521  13.538
44874SOL     OW36518  14.619   9.445   4.414
44874SOL    HW136519  14.593   9.520   4.361
44874SOL    HW236520  14.711   9.459   4.433
44875SOL     OW36521   8.544   2.155   9.410
44875SOL    HW136522   8.579   2.228   9.463
44875SOL    HW236523   8.602   2.150   9.334
44876SOL     OW36524   8.846  14.183   2.911
44876SOL    HW136525   8.791  14.186   2.833
44876SOL    HW236526   8.919  14.242   2.891
44877SOL     OW36527   0.385   2.145   4.720
44877SOL    HW136528   0.371   2.073   4.658
44877SOL    HW236529   0.424   2.103   4.797
44878SOL     OW36530   4.969   8.818   0.140
44878SOL    HW136531   4.908   8.745   0.141
44878SOL    HW236532   4.986   8.834   0.047
44879SOL     OW36533   3.248   7.676  14.491
44879SOL    HW136534   3.309   7.728  14.439
44879SOL    HW236535   3.178   7.736  14.513
44880SOL     OW36536   7.049  13.584   0.430
44880SOL    HW136537   7.077  13.520   0.495
44880SOL    HW236538   6.976  13.629   0.471
44881SOL     OW36539   0.384  10.459   9.597
44881SOL    HW136540   0.432  10.476   9.678
44881SOL    HW236541   0.348  10.371   9.608
44882SOL     OW36542  11.432   0.354   0.707
44882SOL    HW136543  11.372   0.396   0.644
44882SOL    HW236544  11.462   0.275   0.661
44883SOL     OW36545   3.500   4.008  11.586
44883SOL    HW136546   3.581   4.045  11.551
44883SOL    HW236547   3.522   3.917  11.608
44884SOL     OW36548   6.084   4.824  13.050
44884SOL    HW136549   6.105   4.917  13.049
44884SOL    HW236550   6.152   4.784  13.105
44885SOL     OW36551   7.785  14.264  12.196
44885SOL    HW136552   7.754  14.286  12.108
44885SOL    HW236553   7.847  14.334  12.218
44886SOL     OW36554   4.587  11.232  10.779
44886SOL    HW136555   4.613  11.249  10.689
44886SOL    HW236556   4.495  11.258  10.783
44887SOL     OW36557   3.824   5.503   7.561
44887SOL    HW136558   3.787   5.575   7.611
44887SOL    HW236559   3.827   5.535   7.471
44888SOL     OW36560   6.045   3.460   1.809
44888SOL    HW136561   5.962   3.483   1.768
44888SOL    HW236562   6.030   3.475   1.903
44889SOL     OW36563   0.654   3.254   2.028
44889SOL    HW136564   0.622   3.165   2.043
44889SOL    HW236565   0.746   3.251   2.053
44890SOL     OW36566   8.865   8.592   1.446
44890SOL    HW136567   8.922   8.646   1.393
44890SOL    HW236568   8.921   8.560   1.517
44891SOL     OW36569  12.248   0.631   7.101
44891SOL    HW136570  12.254   0.546   7.143
44891SOL    HW236571  12.217   0.690   7.170
44892SOL     OW36572   4.232   9.138   7.045
44892SOL    HW136573   4.148   9.101   7.072
44892SOL    HW236574   4.209   9.221   7.004
44893SOL     OW36575  13.358  11.521  11.792
44893SOL    HW136576  13.324  11.555  11.875
44893SOL    HW236577  13.348  11.426  11.799
44894SOL     OW36578   3.684   4.645  14.197
44894SOL    HW136579   3.654   4.582  14.263
44894SOL    HW236580   3.614   4.710  14.193
44895SOL     OW36581  13.213   4.877   4.223
44895SOL    HW136582  13.161   4.931   4.163
44895SOL    HW236583  13.301   4.877   4.186
44896SOL     OW36584  12.070  11.026   6.234
44896SOL    HW136585  12.014  11.082   6.180
44896SOL    HW236586  12.159  11.053   6.213
44897SOL     OW36587   9.998   8.054  12.509
44897SOL    HW136588   9.992   8.026  12.417
44897SOL    HW236589  10.085   8.025  12.537
44898SOL     OW36590  11.367   0.473   4.955
44898SOL    HW136591  11.453   0.431   4.952
44898SOL    HW236592  11.323   0.443   4.876
44899SOL     OW36593  12.425   1.040   5.064
44899SOL    HW136594  12.487   1.098   5.019
44899SOL    HW236595  12.480   0.972   5.103
44900SOL     OW36596  12.626  12.595   6.037
44900SOL    HW136597  12.648  12.573   5.946
44900SOL    HW236598  12.540  12.556   6.051
44901SOL     OW36599  13.562  11.995  13.021
44901SOL    HW136600  13.622  12.069  13.032
44901SOL    HW236601  13.614  11.919  13.047
44902SOL     OW36602  14.467  10.738   0.800
44902SOL    HW136603  14.518  10.790   0.738
44902SOL    HW236604  14.523  10.664   0.822
44903SOL     OW36605   4.535   3.680   8.038
44903SOL    HW136606   4.474   3.684   7.965
44903SOL    HW236607   4.603   3.744   8.017
44904SOL     OW36608   1.854  10.415   1.569
44904SOL    HW136609   1.816  10.380   1.489
44904SOL    HW236610   1.789  10.397   1.637
44905SOL     OW36611   4.218   5.910   0.109
44905SOL    HW136612   4.277   5.967   0.059
44905SOL    HW236613   4.253   5.912   0.198
44906SOL     OW36614   2.433  11.177   2.886
44906SOL    HW136615   2.392  11.140   2.964
44906SOL    HW236616   2.510  11.122   2.871
44907SOL     OW36617   2.441  11.677   5.711
44907SOL    HW136618   2.511  11.652   5.772
44907SOL    HW236619   2.487  11.697   5.630
44908SOL     OW36620   4.548   4.614   2.205
44908SOL    HW136621   4.643   4.620   2.193
44908SOL    HW236622   4.520   4.550   2.139
44909SOL     OW36623   8.342   0.412   5.073
44909SOL    HW136624   8.305   0.325   5.057
44909SOL    HW236625   8.322   0.462   4.994
44910SOL     OW36626  13.741  10.672   2.656
44910SOL    HW136627  13.812  10.626   2.700
44910SOL    HW236628  13.782  10.753   2.623
44911SOL     OW36629   9.955   5.194   9.203
44911SOL    HW136630  10.009   5.214   9.126
44911SOL    HW236631   9.878   5.249   9.193
44912SOL     OW36632   8.283   2.033   7.601
44912SOL    HW136633   8.297   2.009   7.693
44912SOL    HW236634   8.334   2.112   7.588
44913SOL     OW36635   1.378  11.631  14.334
44913SOL    HW136636   1.461  11.589  14.359
44913SOL    HW236637   1.315  11.597  14.397
44914SOL     OW36638   4.834   3.258  11.963
44914SOL    HW136639   4.767   3.324  11.977
44914SOL    HW236640   4.792   3.192  11.907
44915SOL     OW36641   0.677  11.545   8.346
44915SOL    HW136642   0.633  11.461   8.334
44915SOL    HW236643   0.725  11.535   8.428
44916SOL     OW36644   1.783   8.132   9.664
44916SOL    HW136645   1.732   8.051   9.676
44916SOL    HW236646   1.797   8.138   9.569
44917SOL     OW36647   9.456  13.401   1.048
44917SOL    HW136648   9.406  13.479   1.024
44917SOL    HW236649   9.546  13.432   1.056
44918SOL     OW36650  13.124  11.464   9.446
44918SOL    HW136651  13.063  11.399   9.482
44918SOL    HW236652  13.206  11.417   9.435
44919SOL     OW36653   5.327  11.700  10.363
44919SOL    HW136654   5.235  11.678  10.352
44919SOL    HW236655   5.367  11.621  10.400
44920SOL     OW36656   3.513   7.723  11.424
44920SOL    HW136657   3.561   7.648  11.458
44920SOL    HW236658   3.480   7.694  11.338
44921SOL     OW36659   2.005   4.969   0.319
44921SOL    HW136660   1.926   4.917   0.333
44921SOL    HW236661   2.021   5.013   0.403
44922SOL     OW36662  10.656   1.417   3.710
44922SOL    HW136663  10.727   1.359   3.683
44922SOL    HW236664  10.576   1.370   3.687
44923SOL     OW36665   9.324   7.342  10.130
44923SOL    HW136666   9.416   7.360  10.115
44923SOL    HW236667   9.322   7.280  10.203
44924SOL     OW36668   8.142   7.116  10.598
44924SOL    HW136669   8.084   7.085  10.529
44924SOL    HW236670   8.219   7.059  10.592
44925SOL     OW36671   4.455   9.806  13.137
44925SOL    HW136672   4.387   9.809  13.070
44925SOL    HW236673   4.536   9.788  13.090
44926SOL     OW36674   3.248   1.510   2.356
44926SOL    HW136675   3.250   1.540   2.266
44926SOL    HW236676   3.324   1.550   2.397
44927SOL     OW36677  14.167   6.260   8.423
44927SOL    HW136678  14.123   6.343   8.408
44927SOL    HW236679  14.139   6.204   8.351
44928SOL     OW36680   7.313   5.899   4.413
44928SOL    HW136681   7.386   5.895   4.351
44928SOL    HW236682   7.349   5.865   4.494
44929SOL     OW36683  14.120   0.127   3.478
44929SOL    HW136684  14.149   0.194   3.417
44929SOL    HW236685  14.037   0.096   3.443
44930SOL     OW36686   8.686   5.521   0.066
44930SOL    HW136687   8.622   5.488   0.003
44930SOL    HW236688   8.638   5.586   0.117
44931SOL     OW36689   7.196  12.514  10.329
44931SOL    HW136690   7.204  12.419  10.323
44931SOL    HW236691   7.286  12.545  10.339
44932SOL     OW36692  10.221  11.617  12.412
44932SOL    HW136693  10.234  11.672  12.489
44932SOL    HW236694  10.305  11.573  12.399
44933SOL     OW36695   4.679  11.715  13.479
44933SOL    HW136696   4.741  11.673  13.538
44933SOL    HW236697   4.593  11.683  13.508
44934SOL     OW36698  12.906   9.060   0.202
44934SOL    HW136699  12.926   9.096   0.289
44934SOL    HW236700  12.991   9.049   0.160
44935SOL     OW36701  11.324   9.423  12.803
44935SOL    HW136702  11.234   9.452  12.788
44935SOL    HW236703  11.344   9.452  12.892
44936SOL     OW36704   1.470   4.119   4.755
44936SOL    HW136705   1.480   4.029   4.723
44936SOL    HW236706   1.505   4.173   4.685
44937SOL     OW36707   2.599   4.344   7.062
44937SOL    HW136708   2.587   4.429   7.019
44937SOL    HW236709   2.511   4.306   7.064
44938SOL     OW36710  13.730   2.751  11.782
44938SOL    HW136711  13.765   2.772  11.695
44938SOL    HW236712  13.730   2.835  11.828
44939SOL     OW36713   3.901  12.512   5.167
44939SOL    HW136714   3.919  12.421   5.146
44939SOL    HW236715   3.926  12.521   5.259
44940SOL     OW36716  11.076   5.278   8.048
44940SOL    HW136717  11.010   5.223   8.089
44940SOL    HW236718  11.159   5.247   8.084
44941SOL     OW36719   5.112  10.806   9.147
44941SOL    HW136720   5.038  10.786   9.206
44941SOL    HW236721   5.071  10.843   9.069
44942SOL     OW36722   4.613   1.234   4.271
44942SOL    HW136723   4.644   1.168   4.209
44942SOL    HW236724   4.662   1.217   4.351
44943SOL     OW36725   1.652   1.862   5.485
44943SOL    HW136726   1.624   1.826   5.569
44943SOL    HW236727   1.605   1.944   5.476
44944SOL     OW36728   6.101   5.735   6.643
44944SOL    HW136729   6.030   5.751   6.581
44944SOL    HW236730   6.181   5.749   6.592
44945SOL     OW36731   0.158   4.941   0.588
44945SOL    HW136732   0.198   5.026   0.572
44945SOL    HW236733   0.193   4.914   0.674
44946SOL     OW36734  10.914  12.931   0.337
44946SOL    HW136735  10.830  12.929   0.382
44946SOL    HW236736  10.979  12.919   0.407
44947SOL     OW36737   1.939   9.846  11.379
44947SOL    HW136738   1.917   9.937  11.400
44947SOL    HW236739   1.885   9.825  11.302
44948SOL     OW36740   4.151   3.967   9.827
44948SOL    HW136741   4.063   3.992   9.853
44948SOL    HW236742   4.208   4.010   9.891
44949SOL     OW36743  12.533  10.044  13.216
44949SOL    HW136744  12.591  10.066  13.143
44949SOL    HW236745  12.570  10.089  13.292
44950SOL     OW36746   1.782   1.601  11.778
44950SOL    HW136747   1.770   1.687  11.737
44950SOL    HW236748   1.830   1.620  11.858
44951SOL     OW36749  11.788   6.116   9.884
44951SOL    HW136750  11.750   6.032   9.911
44951SOL    HW236751  11.797   6.108   9.789
44952SOL     OW36752   4.276   4.334  14.563
44952SOL    HW136753   4.364   4.296  14.562
44952SOL    HW236754   4.291   4.429  14.571
44953SOL     OW36755   1.743  11.519   3.007
44953SOL    HW136756   1.722  11.428   3.031
44953SOL    HW236757   1.749  11.518   2.912
44954SOL     OW36758  11.116   1.816   4.719
44954SOL    HW136759  11.099   1.796   4.810
44954SOL    HW236760  11.033   1.803   4.674
44955SOL     OW36761   7.934  14.231   1.548
44955SOL    HW136762   7.999  14.283   1.596
44955SOL    HW236763   7.870  14.206   1.615
44956SOL     OW36764  13.340  12.991   2.307
44956SOL    HW136765  13.407  12.928   2.333
44956SOL    HW236766  13.278  12.940   2.255
44957SOL     OW36767   5.931   5.037   9.697
44957SOL    HW136768   6.009   4.983   9.705
44957SOL    HW236769   5.931   5.067   9.606
44958SOL     OW36770   4.174  14.824   7.139
44958SOL    HW136771   4.105   0.017   7.152
44958SOL    HW236772   4.163  14.763   7.212
44959SOL     OW36773   7.871   1.407   8.086
44959SOL    HW136774   7.877   1.317   8.054
44959SOL    HW236775   7.928   1.458   8.029
44960SOL     OW36776   3.548   6.143   4.142
44960SOL    HW136777   3.566   6.107   4.056
44960SOL    HW236778   3.478   6.208   4.127
44961SOL     OW36779   8.268   8.931  14.025
44961SOL    HW136780   8.180   8.925  14.062
44961SOL    HW236781   8.313   8.994  14.082
44962SOL     OW36782   1.649  11.548  12.213
44962SOL    HW136783   1.700  11.468  12.199
44962SOL    HW236784   1.559  11.517  12.224
44963SOL     OW36785   1.522   6.580  14.863
44963SOL    HW136786   1.519   6.526   0.070
44963SOL    HW236787   1.470   6.657   0.013
44964SOL     OW36788   3.377   9.701   6.758
44964SOL    HW136789   3.464   9.728   6.786
44964SOL    HW236790   3.392   9.622   6.705
44965SOL     OW36791   3.495  12.092  13.300
44965SOL    HW136792   3.437  12.024  13.265
44965SOL    HW236793   3.532  12.134  13.222
44966SOL     OW36794  13.434   9.735  12.040
44966SOL    HW136795  13.352   9.698  12.072
44966SOL    HW236796  13.473   9.777  12.116
44967SOL     OW36797   5.996   9.806   5.902
44967SOL    HW136798   5.964   9.716   5.895
44967SOL    HW236799   6.023   9.829   5.813
44968SOL     OW36800  12.974   5.821  14.739
44968SOL    HW136801  13.013   5.799  14.824
44968SOL    HW236802  12.918   5.897  14.757
44969SOL     OW36803  12.313  12.720   9.258
44969SOL    HW136804  12.224  12.691   9.238
44969SOL    HW236805  12.339  12.667   9.334
44970SOL     OW36806   6.581  12.794   6.692
44970SOL    HW136807   6.537  12.878   6.678
44970SOL    HW236808   6.516  12.741   6.739
44971SOL     OW36809  14.054   5.375   5.093
44971SOL    HW136810  14.149   5.387   5.101
44971SOL    HW236811  14.017   5.433   5.159
44972SOL     OW36812   9.086   1.517  10.286
44972SOL    HW136813   9.012   1.532  10.227
44972SOL    HW236814   9.077   1.585  10.353
44973SOL     OW36815   5.301   0.316   7.665
44973SOL    HW136816   5.379   0.357   7.701
44973SOL    HW236817   5.330   0.278   7.582
44974SOL     OW36818   4.550   3.219  12.267
44974SOL    HW136819   4.549   3.294  12.208
44974SOL    HW236820   4.502   3.250  12.345
44975SOL     OW36821  14.000   1.375   7.885
44975SOL    HW136822  13.974   1.442   7.947
44975SOL    HW236823  14.003   1.420   7.800
44976SOL     OW36824   5.098   1.927   5.864
44976SOL    HW136825   5.052   1.886   5.936
44976SOL    HW236826   5.047   2.005   5.844
44977SOL     OW36827  14.795   6.300   0.082
44977SOL    HW136828  14.800   6.323   0.175
44977SOL    HW236829  14.868   6.348   0.042
44978SOL     OW36830   2.062   4.727  14.164
44978SOL    HW136831   2.068   4.644  14.213
44978SOL    HW236832   2.091   4.705  14.076
44979SOL     OW36833  12.747  10.131   1.120
44979SOL    HW136834  12.749  10.035   1.118
44979SOL    HW236835  12.764  10.157   1.029
44980SOL     OW36836   1.711   0.382   1.122
44980SOL    HW136837   1.649   0.347   1.186
44980SOL    HW236838   1.664   0.452   1.078
44981SOL     OW36839   2.013   0.344  13.500
44981SOL    HW136840   2.065   0.367  13.577
44981SOL    HW236841   2.077   0.330  13.430
44982SOL     OW36842   1.932   1.886   1.238
44982SOL    HW136843   1.939   1.928   1.324
44982SOL    HW236844   1.886   1.804   1.255
44983SOL     OW36845   6.518   9.516  14.827
44983SOL    HW136846   6.588   9.456  14.801
44983SOL    HW236847   6.446   9.497  14.766
44984SOL     OW36848  12.987  10.651   5.025
44984SOL    HW136849  13.051  10.667   5.094
44984SOL    HW236850  12.903  10.678   5.064
44985SOL     OW36851  13.484  10.129   6.976
44985SOL    HW136852  13.469  10.062   6.909
44985SOL    HW236853  13.543  10.191   6.934
44986SOL     OW36854   4.376   9.940   6.314
44986SOL    HW136855   4.290   9.909   6.288
44986SOL    HW236856   4.422   9.957   6.232
44987SOL     OW36857   4.962   3.006  11.670
44987SOL    HW136858   4.961   3.034  11.761
44987SOL    HW236859   4.915   3.074  11.622
44988SOL     OW36860  14.872  13.588   8.684
44988SOL    HW136861  14.813  13.663   8.691
44988SOL    HW236862   0.087  13.625   8.696
44989SOL     OW36863  13.571  12.879  12.391
44989SOL    HW136864  13.509  12.862  12.462
44989SOL    HW236865  13.525  12.936  12.331
44990SOL     OW36866  12.931   2.588   2.688
44990SOL    HW136867  12.862   2.534   2.648
44990SOL    HW236868  13.013   2.551   2.656
44991SOL     OW36869   4.940   0.957  13.173
44991SOL    HW136870   4.945   0.890  13.104
44991SOL    HW236871   4.893   1.030  13.132
44992SOL     OW36872  12.127   8.453   5.344
44992SOL    HW136873  12.090   8.468   5.257
44992SOL    HW236874  12.052   8.460   5.403
44993SOL     OW36875   5.278  12.635   0.817
44993SOL    HW136876   5.323  12.561   0.775
44993SOL    HW236877   5.212  12.594   0.872
44994SOL     OW36878   7.260   2.946   0.552
44994SOL    HW136879   7.169   2.974   0.539
44994SOL    HW236880   7.305   2.973   0.471
44995SOL     OW36881   2.710  12.517   5.836
44995SOL    HW136882   2.736  12.571   5.762
44995SOL    HW236883   2.629  12.475   5.808
44996SOL     OW36884   6.880   5.933  12.619
44996SOL    HW136885   6.856   5.856  12.566
44996SOL    HW236886   6.970   5.915  12.646
44997SOL     OW36887   9.089   7.824  13.128
44997SOL    HW136888   8.998   7.855  13.132
44997SOL    HW236889   9.139   7.902  13.101
44998SOL     OW36890  11.052   0.773   1.993
44998SOL    HW136891  11.099   0.771   2.076
44998SOL    HW236892  11.024   0.865   1.984
44999SOL     OW36893  14.263   7.302  13.645
44999SOL    HW136894  14.312   7.262  13.574
44999SOL    HW236895  14.285   7.395  13.640
45000SOL     OW36896  11.871   4.806  10.856
45000SOL    HW136897  11.777   4.822  10.846
45000SOL    HW236898  11.913   4.884  10.822
45001SOL     OW36899   0.856   6.117   1.309
45001SOL    HW136900   0.948   6.143   1.295
45001SOL    HW236901   0.822   6.182   1.370
45002SOL     OW36902   4.144   0.911   9.819
45002SOL    HW136903   4.230   0.892   9.781
45002SOL    HW236904   4.100   0.964   9.752
45003SOL     OW36905   4.160  13.044  11.011
45003SOL    HW136906   4.071  13.062  10.981
45003SOL    HW236907   4.214  13.110  10.968
45004SOL     OW36908  11.722  10.841   0.743
45004SOL    HW136909  11.729  10.778   0.672
45004SOL    HW236910  11.646  10.812   0.794
45005SOL     OW36911   1.511  11.187   1.824
45005SOL    HW136912   1.470  11.102   1.837
45005SOL    HW236913   1.477  11.218   1.740
45006SOL     OW36914  10.236  10.394   6.731
45006SOL    HW136915  10.237  10.298   6.733
45006SOL    HW236916  10.254  10.416   6.640
45007SOL     OW36917   2.932   9.475  13.060
45007SOL    HW136918   2.875   9.406  13.094
45007SOL    HW236919   2.970   9.516  13.137
45008SOL     OW36920  12.664  11.414  13.840
45008SOL    HW136921  12.747  11.430  13.884
45008SOL    HW236922  12.672  11.325  13.805
45009SOL     OW36923   9.435   8.232  10.200
45009SOL    HW136924   9.493   8.259  10.271
45009SOL    HW236925   9.469   8.147  10.174
45010SOL     OW36926  10.770   3.968   0.692
45010SOL    HW136927  10.813   3.981   0.608
45010SOL    HW236928  10.831   4.001   0.757
45011SOL     OW36929   3.795   9.190  12.660
45011SOL    HW136930   3.773   9.143  12.740
45011SOL    HW236931   3.844   9.267  12.689
45012SOL     OW36932  11.826  12.252  10.211
45012SOL    HW136933  11.866  12.168  10.191
45012SOL    HW236934  11.893  12.317  10.187
45013SOL     OW36935   2.805   3.732   1.260
45013SOL    HW136936   2.712   3.750   1.273
45013SOL    HW236937   2.824   3.659   1.320
45014SOL     OW36938  12.490   8.314  11.692
45014SOL    HW136939  12.396   8.330  11.699
45014SOL    HW236940  12.528   8.351  11.772
45015SOL     OW36941   5.402   8.093   7.575
45015SOL    HW136942   5.394   8.135   7.660
45015SOL    HW236943   5.467   8.025   7.588
45016SOL     OW36944   1.296   3.892   2.499
45016SOL    HW136945   1.268   3.805   2.527
45016SOL    HW236946   1.301   3.886   2.404
45017SOL     OW36947   2.070   9.641   1.021
45017SOL    HW136948   1.987   9.595   1.032
45017SOL    HW236949   2.125   9.609   1.092
45018SOL     OW36950  11.588  10.701   0.505
45018SOL    HW136951  11.526  10.642   0.548
45018SOL    HW236952  11.542  10.785   0.501
45019SOL     OW36953   4.059   5.504  14.333
45019SOL    HW136954   4.049   5.494  14.428
45019SOL    HW236955   4.137   5.452  14.312
45020SOL     OW36956   5.916  10.827   6.346
45020SOL    HW136957   5.990  10.831   6.286
45020SOL    HW236958   5.943  10.881   6.421
45021SOL     OW36959  10.702   3.114   9.068
45021SOL    HW136960  10.699   3.057   9.146
45021SOL    HW236961  10.624   3.169   9.076
45022SOL     OW36962  12.330  11.786  14.865
45022SOL    HW136963  12.263  11.733  14.821
45022SOL    HW236964  12.316  11.874  14.830
45023SOL     OW36965   5.015   7.636   3.644
45023SOL    HW136966   4.970   7.719   3.661
45023SOL    HW236967   5.021   7.631   3.548
45024SOL     OW36968   0.380   9.865   4.182
45024SOL    HW136969   0.410   9.930   4.246
45024SOL    HW236970   0.454   9.854   4.122
45025SOL     OW36971  13.966   4.072   9.734
45025SOL    HW136972  13.965   4.154   9.783
45025SOL    HW236973  13.885   4.074   9.683
45026SOL     OW36974  13.805   4.706  12.602
45026SOL    HW136975  13.890   4.699  12.558
45026SOL    HW236976  13.806   4.794  12.642
45027SOL     OW36977   1.420   3.270  14.433
45027SOL    HW136978   1.434   3.176  14.443
45027SOL    HW236979   1.350   3.291  14.496
45028SOL     OW36980  14.016   1.116  14.268
45028SOL    HW136981  13.997   1.123  14.362
45028SOL    HW236982  14.058   1.199  14.245
45029SOL     OW36983   4.255   3.063   7.825
45029SOL    HW136984   4.237   2.969   7.827
45029SOL    HW236985   4.170   3.103   7.806
45030SOL     OW36986   3.274   1.237  13.499
45030SOL    HW136987   3.282   1.166  13.436
45030SOL    HW236988   3.193   1.282  13.475
45031SOL     OW36989  13.012   3.622   6.178
45031SOL    HW136990  13.023   3.658   6.266
45031SOL    HW236991  13.068   3.544   6.178
45032SOL     OW36992  13.400  12.860  13.207
45032SOL    HW136993  13.403  12.802  13.130
45032SOL    HW236994  13.474  12.920  13.195
45033SOL     OW36995   5.997   0.799   6.154
45033SOL    HW136996   5.915   0.759   6.126
45033SOL    HW236997   5.970   0.879   6.198
45034SOL     OW36998   4.382   1.658  10.602
45034SOL    HW136999   4.291   1.687  10.597
45034SOL    HW237000   4.410   1.651  10.511
45035SOL     OW37001   1.046  10.652  13.051
45035SOL    HW137002   0.979  10.585  13.064
45035SOL    HW237003   1.105  10.614  12.985
45036SOL     OW37004   4.382   0.905  12.264
45036SOL    HW137005   4.365   0.990  12.226
45036SOL    HW237006   4.454   0.869  12.212
45037SOL     OW37007  12.779  13.386   3.701
45037SOL    HW137008  12.838  13.310   3.697
45037SOL    HW237009  12.819  13.450   3.642
45038SOL     OW37010   4.166   8.676   3.195
45038SOL    HW137011   4.220   8.636   3.263
45038SOL    HW237012   4.193   8.631   3.114
45039SOL     OW37013  12.481  12.045   2.843
45039SOL    HW137014  12.462  12.136   2.863
45039SOL    HW237015  12.556  12.048   2.784
45040SOL     OW37016   0.465  14.331   1.709
45040SOL    HW137017   0.496  14.324   1.619
45040SOL    HW237018   0.378  14.291   1.707
45041SOL     OW37019   4.303  10.466  13.440
45041SOL    HW137020   4.237  10.473  13.510
45041SOL    HW237021   4.300  10.551  13.396
45042SOL     OW37022   2.589   4.205  11.591
45042SOL    HW137023   2.652   4.252  11.536
45042SOL    HW237024   2.640   4.176  11.666
45043SOL     OW37025  14.180   8.891   2.278
45043SOL    HW137026  14.097   8.862   2.239
45043SOL    HW237027  14.212   8.814   2.325
45044SOL     OW37028   8.845   2.809   2.684
45044SOL    HW137029   8.784   2.777   2.617
45044SOL    HW237030   8.925   2.759   2.670
45045SOL     OW37031   9.648  12.822   4.823
45045SOL    HW137032   9.721  12.884   4.830
45045SOL    HW237033   9.611  12.839   4.736
45046SOL     OW37034   3.612   2.504   9.654
45046SOL    HW137035   3.602   2.411   9.635
45046SOL    HW237036   3.602   2.510   9.749
45047SOL     OW37037  13.953   7.199   8.892
45047SOL    HW137038  14.019   7.176   8.826
45047SOL    HW237039  13.899   7.120   8.899
45048SOL     OW37040   8.214  10.957   9.899
45048SOL    HW137041   8.217  10.870   9.938
45048SOL    HW237042   8.135  10.997   9.936
45049SOL     OW37043  14.091   3.915   4.137
45049SOL    HW137044  14.159   3.851   4.159
45049SOL    HW237045  14.046   3.876   4.062
45050SOL     OW37046  11.599   0.234  13.102
45050SOL    HW137047  11.614   0.152  13.150
45050SOL    HW237048  11.573   0.205  13.014
45051SOL     OW37049   2.754   5.727   2.148
45051SOL    HW137050   2.680   5.775   2.112
45051SOL    HW237051   2.735   5.721   2.242
45052SOL     OW37052  13.929   5.108   7.443
45052SOL    HW137053  13.944   5.111   7.348
45052SOL    HW237054  13.911   5.199   7.467
45053SOL     OW37055   6.609   7.181   9.411
45053SOL    HW137056   6.600   7.103   9.466
45053SOL    HW237057   6.599   7.254   9.472
45054SOL     OW37058   3.575   0.630   8.156
45054SOL    HW137059   3.614   0.717   8.155
45054SOL    HW237060   3.494   0.640   8.106
45055SOL     OW37061   5.655   2.459   7.559
45055SOL    HW137062   5.630   2.409   7.637
45055SOL    HW237063   5.745   2.434   7.541
45056SOL     OW37064   0.201  12.211  10.056
45056SOL    HW137065   0.256  12.273  10.105
45056SOL    HW237066   0.159  12.159  10.124
45057SOL     OW37067  10.570   6.411   3.305
45057SOL    HW137068  10.540   6.323   3.282
45057SOL    HW237069  10.502   6.469   3.273
45058SOL     OW37070   1.203   4.766   5.806
45058SOL    HW137071   1.215   4.839   5.867
45058SOL    HW237072   1.288   4.756   5.763
45059SOL     OW37073  14.314  14.718   9.897
45059SOL    HW137074  14.382  14.676   9.949
45059SOL    HW237075  14.357  14.741   9.815
45060SOL     OW37076   8.364   7.175  13.068
45060SOL    HW137077   8.356   7.155  12.975
45060SOL    HW237078   8.445   7.225  13.075
45061SOL     OW37079   9.938   7.146  12.850
45061SOL    HW137080   9.914   7.057  12.824
45061SOL    HW237081   9.857   7.185  12.882
45062SOL     OW37082  12.749  10.955   8.788
45062SOL    HW137083  12.818  10.910   8.835
45062SOL    HW237084  12.792  10.990   8.710
45063SOL     OW37085   7.261   5.738   0.302
45063SOL    HW137086   7.252   5.699   0.215
45063SOL    HW237087   7.178   5.783   0.317
45064SOL     OW37088   2.471  10.282   2.873
45064SOL    HW137089   2.566  10.290   2.862
45064SOL    HW237090   2.461  10.211   2.936
45065SOL     OW37091   3.849   9.806   2.336
45065SOL    HW137092   3.860   9.901   2.346
45065SOL    HW237093   3.897   9.784   2.257
45066SOL     OW37094   2.092  12.493  13.651
45066SOL    HW137095   2.052  12.420  13.697
45066SOL    HW237096   2.169  12.516  13.704
45067SOL     OW37097   1.117  13.683   4.652
45067SOL    HW137098   1.086  13.759   4.702
45067SOL    HW237099   1.046  13.619   4.661
45068SOL     OW37100   4.746  13.757   1.936
45068SOL    HW137101   4.810  13.826   1.918
45068SOL    HW237102   4.783  13.679   1.895
45069SOL     OW37103  12.798   7.329  11.007
45069SOL    HW137104  12.800   7.394  10.937
45069SOL    HW237105  12.705   7.323  11.030
45070SOL     OW37106   2.670  14.196   1.783
45070SOL    HW137107   2.621  14.249   1.846
45070SOL    HW237108   2.608  14.130   1.753
45071SOL     OW37109  10.056   1.620   8.433
45071SOL    HW137110  10.053   1.679   8.507
45071SOL    HW237111  10.018   1.538   8.465
45072SOL     OW37112   0.664   1.998  14.367
45072SOL    HW137113   0.721   2.074  14.380
45072SOL    HW237114   0.616   1.990  14.450
45073SOL     OW37115   9.290   9.239   7.063
45073SOL    HW137116   9.366   9.298   7.058
45073SOL    HW237117   9.282   9.219   7.156
45074SOL     OW37118   7.769   9.357   9.215
45074SOL    HW137119   7.813   9.275   9.192
45074SOL    HW237120   7.754   9.351   9.309
45075SOL     OW37121  12.657  10.855   9.697
45075SOL    HW137122  12.728  10.795   9.719
45075SOL    HW237123  12.658  10.859   9.601
45076SOL     OW37124   7.307   5.979   0.687
45076SOL    HW137125   7.279   5.998   0.777
45076SOL    HW237126   7.239   6.017   0.632
45077SOL     OW37127   5.100   5.411   1.818
45077SOL    HW137128   5.154   5.401   1.896
45077SOL    HW237129   5.055   5.494   1.831
45078SOL     OW37130   5.002  10.470   9.671
45078SOL    HW137131   5.038  10.456   9.758
45078SOL    HW237132   5.021  10.389   9.623
45079SOL     OW37133  11.707   6.575  12.953
45079SOL    HW137134  11.640   6.519  12.913
45079SOL    HW237135  11.719   6.539  13.041
45080SOL     OW37136  11.160  12.123  13.177
45080SOL    HW137137  11.160  12.033  13.143
45080SOL    HW237138  11.137  12.113  13.269
45081SOL     OW37139   3.888  12.769  12.963
45081SOL    HW137140   3.968  12.820  12.948
45081SOL    HW237141   3.898  12.693  12.905
45082SOL     OW37142   6.980   1.812   6.238
45082SOL    HW137143   7.073   1.827   6.220
45082SOL    HW237144   6.976   1.721   6.268
45083SOL     OW37145   4.001  10.288   2.799
45083SOL    HW137146   4.090  10.301   2.833
45083SOL    HW237147   3.961  10.226   2.861
45084SOL     OW37148  12.840   9.231  12.936
45084SOL    HW137149  12.835   9.221  12.841
45084SOL    HW237150  12.921   9.280  12.951
45085SOL     OW37151   8.974   5.739   8.466
45085SOL    HW137152   9.034   5.665   8.461
45085SOL    HW237153   9.031   5.816   8.472
45086SOL     OW37154  11.662   6.538  10.332
45086SOL    HW137155  11.719   6.506  10.402
45086SOL    HW237156  11.723   6.569  10.265
45087SOL     OW37157   7.374   5.544  12.928
45087SOL    HW137158   7.310   5.615  12.930
45087SOL    HW237159   7.456   5.586  12.903
45088SOL     OW37160   7.627   7.704   1.355
45088SOL    HW137161   7.570   7.639   1.397
45088SOL    HW237162   7.683   7.652   1.297
45089SOL     OW37163   6.662   1.545   8.908
45089SOL    HW137164   6.688   1.516   8.996
45089SOL    HW237165   6.615   1.626   8.923
45090SOL     OW37166  14.272   7.960  13.872
45090SOL    HW137167  14.220   7.957  13.953
45090SOL    HW237168  14.346   7.903  13.890
45091SOL     OW37169   2.367   2.205   9.251
45091SOL    HW137170   2.292   2.186   9.195
45091SOL    HW237171   2.331   2.259   9.321
45092SOL     OW37172   2.833  11.230  10.363
45092SOL    HW137173   2.752  11.207  10.318
45092SOL    HW237174   2.880  11.286  10.302
45093SOL     OW37175   7.261   0.945   2.948
45093SOL    HW137176   7.198   0.884   2.986
45093SOL    HW237177   7.332   0.890   2.916
45094SOL     OW37178   5.546  12.750  14.808
45094SOL    HW137179   5.577  12.718  14.723
45094SOL    HW237180   5.502  12.675  14.847
45095SOL     OW37181   9.256   1.576   9.510
45095SOL    HW137182   9.181   1.518   9.524
45095SOL    HW237183   9.309   1.567   9.590
45096SOL     OW37184  11.721  12.466  14.743
45096SOL    HW137185  11.772  12.525  14.689
45096SOL    HW237186  11.771  12.384  14.745
45097SOL     OW37187   3.653  10.576   1.400
45097SOL    HW137188   3.606  10.639   1.347
45097SOL    HW237189   3.612  10.492   1.380
45098SOL     OW37190  13.577  13.863   4.117
45098SOL    HW137191  13.531  13.829   4.194
45098SOL    HW237192  13.546  13.953   4.108
45099SOL     OW37193  10.802   6.357  10.746
45099SOL    HW137194  10.796   6.452  10.746
45099SOL    HW237195  10.856   6.336  10.822
45100SOL     OW37196   1.232  13.948  11.994
45100SOL    HW137197   1.288  14.024  11.979
45100SOL    HW237198   1.292  13.874  11.992
45101SOL     OW37199   5.457   8.769  14.210
45101SOL    HW137200   5.417   8.721  14.282
45101SOL    HW237201   5.399   8.843  14.194
45102SOL     OW37202   8.187  14.144   7.142
45102SOL    HW137203   8.255  14.205   7.114
45102SOL    HW237204   8.170  14.167   7.233
45103SOL     OW37205   6.240   1.923  10.195
45103SOL    HW137206   6.319   1.934  10.248
45103SOL    HW237207   6.169   1.920  10.259
45104SOL     OW37208   0.640  10.817  10.330
45104SOL    HW137209   0.639  10.834  10.235
45104SOL    HW237210   0.582  10.884  10.366
45105SOL     OW37211   9.054  13.750   0.740
45105SOL    HW137212   8.988  13.721   0.803
45105SOL    HW237213   9.037  13.843   0.729
45106SOL     OW37214   6.712   1.048   5.854
45106SOL    HW137215   6.651   0.992   5.903
45106SOL    HW237216   6.765   0.986   5.804
45107SOL     OW37217   8.636   3.157   2.818
45107SOL    HW137218   8.562   3.095   2.821
45107SOL    HW237219   8.657   3.173   2.910
45108SOL     OW37220   0.115   4.536  11.283
45108SOL    HW137221   0.032   4.573  11.313
45108SOL    HW237222   0.143   4.594  11.211
45109SOL     OW37223  13.059  12.567   7.336
45109SOL    HW137224  13.072  12.574   7.241
45109SOL    HW237225  13.114  12.637   7.373
45110SOL     OW37226   2.517   4.190   1.285
45110SOL    HW137227   2.437   4.238   1.304
45110SOL    HW237228   2.587   4.256   1.293
45111SOL     OW37229   2.792  14.445   6.162
45111SOL    HW137230   2.794  14.353   6.190
45111SOL    HW237231   2.735  14.446   6.085
45112SOL     OW37232  13.914   7.277  12.763
45112SOL    HW137233  14.004   7.309  12.768
45112SOL    HW237234  13.906   7.214  12.835
45113SOL     OW37235   0.474  12.382   1.384
45113SOL    HW137236   0.513  12.424   1.307
45113SOL    HW237237   0.389  12.424   1.394
45114SOL     OW37238   7.871   1.956   4.319
45114SOL    HW137239   7.929   1.972   4.394
45114SOL    HW237240   7.925   1.907   4.258
45115SOL     OW37241   0.399  12.090  10.361
45115SOL    HW137242   0.366  12.110  10.449
45115SOL    HW237243   0.456  12.014  10.375
45116SOL     OW37244   5.653   0.675  13.492
45116SOL    HW137245   5.577   0.733  13.484
45116SOL    HW237246   5.617   0.587  13.482
45117SOL     OW37247   8.257   1.719   2.582
45117SOL    HW137248   8.293   1.807   2.576
45117SOL    HW237249   8.299   1.671   2.511
45118SOL     OW37250  13.282   9.328  10.053
45118SOL    HW137251  13.250   9.254  10.104
45118SOL    HW237252  13.240   9.405  10.092
45119SOL     OW37253   8.245  13.017  11.358
45119SOL    HW137254   8.313  13.018  11.426
45119SOL    HW237255   8.181  13.082  11.387
45120SOL     OW37256   5.871  13.542   8.518
45120SOL    HW137257   5.808  13.474   8.543
45120SOL    HW237258   5.817  13.611   8.480
45121SOL     OW37259  14.753   7.965   2.984
45121SOL    HW137260  14.741   7.946   2.891
45121SOL    HW237261  14.753   7.879   3.027
45122SOL     OW37262   4.534   0.072   9.065
45122SOL    HW137263   4.538   0.156   9.110
45122SOL    HW237264   4.447   0.038   9.084
45123SOL     OW37265   5.495   2.696   3.608
45123SOL    HW137266   5.569   2.755   3.621
45123SOL    HW237267   5.420   2.754   3.596
45124SOL     OW37268  12.596   6.288   3.917
45124SOL    HW137269  12.609   6.227   3.989
45124SOL    HW237270  12.656   6.360   3.934
45125SOL     OW37271  12.644   0.775  12.458
45125SOL    HW137272  12.621   0.781  12.551
45125SOL    HW237273  12.723   0.722  12.456
45126SOL     OW37274   0.926  10.400   3.332
45126SOL    HW137275   0.996  10.463   3.317
45126SOL    HW237276   0.970  10.323   3.368
45127SOL     OW37277  13.006  13.163  10.549
45127SOL    HW137278  12.918  13.186  10.578
45127SOL    HW237279  13.010  13.193  10.458
45128SOL     OW37280  13.713   0.301   5.228
45128SOL    HW137281  13.686   0.214   5.198
45128SOL    HW237282  13.695   0.359   5.154
45129SOL     OW37283  12.541   5.831   3.523
45129SOL    HW137284  12.628   5.794   3.509
45129SOL    HW237285  12.508   5.849   3.435
45130SOL     OW37286   4.063  11.604  12.567
45130SOL    HW137287   3.973  11.637  12.572
45130SOL    HW237288   4.087  11.611  12.475
45131SOL     OW37289   4.538   0.971   9.728
45131SOL    HW137290   4.493   0.889   9.750
45131SOL    HW237291   4.580   0.998   9.809
45132SOL     OW37292   2.753   9.764   1.863
45132SOL    HW137293   2.780   9.734   1.776
45132SOL    HW237294   2.768   9.688   1.920
45133SOL     OW37295   9.211  12.027   9.184
45133SOL    HW137296   9.206  12.088   9.110
45133SOL    HW237297   9.144  11.961   9.165
45134SOL     OW37298   8.616   7.421   2.691
45134SOL    HW137299   8.677   7.402   2.619
45134SOL    HW237300   8.620   7.516   2.701
45135SOL     OW37301   5.840  11.808  11.420
45135SOL    HW137302   5.798  11.722  11.425
45135SOL    HW237303   5.934  11.790  11.424
45136SOL     OW37304  12.063   0.684   0.355
45136SOL    HW137305  11.991   0.701   0.295
45136SOL    HW237306  12.029   0.619   0.416
45137SOL     OW37307   6.378  11.640   2.077
45137SOL    HW137308   6.314  11.694   2.030
45137SOL    HW237309   6.384  11.680   2.164
45138SOL     OW37310  10.639   7.733   0.761
45138SOL    HW137311  10.614   7.740   0.669
45138SOL    HW237312  10.645   7.639   0.778
45139SOL     OW37313   6.111   0.177   4.509
45139SOL    HW137314   6.137   0.242   4.444
45139SOL    HW237315   6.055   0.225   4.570
45140SOL     OW37316  13.921   0.128  12.867
45140SOL    HW137317  13.837   0.111  12.909
45140SOL    HW237318  13.899   0.150  12.777
45141SOL     OW37319   7.352   4.667   5.915
45141SOL    HW137320   7.325   4.728   5.847
45141SOL    HW237321   7.368   4.721   5.992
45142SOL     OW37322   3.912  12.268   8.833
45142SOL    HW137323   3.872  12.204   8.891
45142SOL    HW237324   3.870  12.351   8.856
45143SOL     OW37325   5.223   7.047  11.548
45143SOL    HW137326   5.289   7.017  11.610
45143SOL    HW237327   5.153   7.084  11.603
45144SOL     OW37328   3.990   7.576   6.136
45144SOL    HW137329   4.049   7.576   6.061
45144SOL    HW237330   3.970   7.668   6.150
45145SOL     OW37331   4.557   1.676  13.160
45145SOL    HW137332   4.611   1.688  13.239
45145SOL    HW237333   4.546   1.765  13.126
45146SOL     OW37334  14.057  13.936   6.831
45146SOL    HW137335  14.048  13.948   6.925
45146SOL    HW237336  13.973  13.898   6.804
45147SOL     OW37337   5.925  14.653   3.922
45147SOL    HW137338   5.863  14.726   3.926
45147SOL    HW237339   5.976  14.670   3.842
45148SOL     OW37340   7.931  13.810   9.814
45148SOL    HW137341   7.957  13.721   9.794
45148SOL    HW237342   7.996  13.841   9.877
45149SOL     OW37343   3.956   2.089   1.276
45149SOL    HW137344   3.926   1.998   1.273
45149SOL    HW237345   3.878   2.139   1.300
45150SOL     OW37346  10.565   2.111   0.355
45150SOL    HW137347  10.546   2.018   0.349
45150SOL    HW237348  10.659   2.118   0.337
45151SOL     OW37349  11.234  11.564   9.297
45151SOL    HW137350  11.169  11.608   9.242
45151SOL    HW237351  11.260  11.630   9.361
45152SOL     OW37352   4.721  13.540   1.380
45152SOL    HW137353   4.729  13.498   1.295
45152SOL    HW237354   4.671  13.620   1.363
45153SOL     OW37355   5.661   8.420  11.666
45153SOL    HW137356   5.678   8.348  11.727
45153SOL    HW237357   5.724   8.408  11.596
45154SOL     OW37358   5.114  13.375   3.300
45154SOL    HW137359   5.056  13.365   3.375
45154SOL    HW237360   5.145  13.287   3.281
45155SOL     OW37361   6.728   8.223   2.776
45155SOL    HW137362   6.725   8.155   2.708
45155SOL    HW237363   6.817   8.258   2.771
45156SOL     OW37364   0.434   3.853   1.313
45156SOL    HW137365   0.460   3.819   1.227
45156SOL    HW237366   0.512   3.842   1.367
45157SOL     OW37367   7.190  11.718  13.189
45157SOL    HW137368   7.241  11.738  13.110
45157SOL    HW237369   7.106  11.760  13.174
45158SOL     OW37370   8.147   1.881   7.915
45158SOL    HW137371   8.223   1.938   7.928
45158SOL    HW237372   8.098   1.923   7.844
45159SOL     OW37373  12.930  13.710   0.209
45159SOL    HW137374  12.942  13.795   0.252
45159SOL    HW237375  12.836  13.704   0.194
45160SOL     OW37376   2.809   1.333   2.994
45160SOL    HW137377   2.758   1.253   3.002
45160SOL    HW237378   2.882   1.321   3.054
45161SOL     OW37379  12.114   0.295  14.644
45161SOL    HW137380  12.021   0.281  14.625
45161SOL    HW237381  12.124   0.389  14.652
45162SOL     OW37382   7.487  10.474   5.171
45162SOL    HW137383   7.551  10.412   5.135
45162SOL    HW237384   7.527  10.507   5.251
45163SOL     OW37385  11.012  14.667   7.904
45163SOL    HW137386  10.961  14.601   7.856
45163SOL    HW237387  11.061  14.712   7.836
45164SOL     OW37388  14.199  10.414   8.189
45164SOL    HW137389  14.134  10.371   8.244
45164SOL    HW237390  14.262  10.450   8.251
45165SOL     OW37391  14.373   6.443   4.012
45165SOL    HW137392  14.284   6.433   4.044
45165SOL    HW237393  14.423   6.472   4.088
45166SOL     OW37394   1.016  12.400   8.798
45166SOL    HW137395   0.956  12.472   8.816
45166SOL    HW237396   0.993  12.333   8.863
45167SOL     OW37397  14.144  10.596  14.153
45167SOL    HW137398  14.201  10.539  14.102
45167SOL    HW237399  14.174  10.685  14.133
45168SOL     OW37400   1.436   0.158   2.525
45168SOL    HW137401   1.382   0.084   2.494
45168SOL    HW237402   1.395   0.235   2.484
45169SOL     OW37403   4.783   4.335   4.946
45169SOL    HW137404   4.806   4.415   4.899
45169SOL    HW237405   4.757   4.364   5.033
45170SOL     OW37406  11.269  14.098   2.587
45170SOL    HW137407  11.319  14.138   2.515
45170SOL    HW237408  11.187  14.148   2.590
45171SOL     OW37409  13.590  12.846   7.319
45171SOL    HW137410  13.506  12.881   7.292
45171SOL    HW237411  13.573  12.804   7.403
45172SOL     OW37412  13.236   5.948   7.270
45172SOL    HW137413  13.162   5.893   7.243
45172SOL    HW237414  13.258   5.916   7.358
45173SOL     OW37415   0.245  10.539   0.280
45173SOL    HW137416   0.252  10.634   0.292
45173SOL    HW237417   0.283  10.502   0.360
45174SOL     OW37418  11.754  13.457   5.018
45174SOL    HW137419  11.805  13.482   5.095
45174SOL    HW237420  11.682  13.520   5.015
45175SOL     OW37421   1.240   4.389   5.707
45175SOL    HW137422   1.145   4.377   5.706
45175SOL    HW237423   1.272   4.332   5.637
45176SOL     OW37424   6.721   7.739   1.190
45176SOL    HW137425   6.769   7.710   1.268
45176SOL    HW237426   6.653   7.797   1.224
45177SOL     OW37427   6.778   2.243   9.365
45177SOL    HW137428   6.827   2.325   9.376
45177SOL    HW237429   6.697   2.258   9.413
45178SOL     OW37430   8.173   1.029   1.330
45178SOL    HW137431   8.208   1.031   1.419
45178SOL    HW237432   8.107   1.099   1.329
45179SOL     OW37433  12.511   2.424  10.951
45179SOL    HW137434  12.480   2.334  10.937
45179SOL    HW237435  12.542   2.452  10.866
45180SOL     OW37436  14.792   1.946   1.965
45180SOL    HW137437  14.807   1.861   2.005
45180SOL    HW237438  14.715   1.981   2.009
45181SOL     OW37439   7.523   4.947  10.174
45181SOL    HW137440   7.437   4.986  10.160
45181SOL    HW237441   7.565   4.950  10.088
45182SOL     OW37442   1.187   5.675   9.411
45182SOL    HW137443   1.280   5.665   9.390
45182SOL    HW237444   1.142   5.669   9.327
45183SOL     OW37445   7.627   5.106   2.213
45183SOL    HW137446   7.645   5.173   2.147
45183SOL    HW237447   7.705   5.104   2.268
45184SOL     OW37448  12.116   9.788  14.806
45184SOL    HW137449  12.148   9.699  14.812
45184SOL    HW237450  12.027   9.785  14.840
45185SOL     OW37451   1.230  10.752  12.232
45185SOL    HW137452   1.152  10.761  12.177
45185SOL    HW237453   1.301  10.782  12.177
45186SOL     OW37454   9.663   3.255   0.028
45186SOL    HW137455   9.746   3.217  14.870
45186SOL    HW237456   9.596   3.202  14.858
45187SOL     OW37457  13.217   7.720   1.024
45187SOL    HW137458  13.172   7.802   1.043
45187SOL    HW237459  13.181   7.658   1.086
45188SOL     OW37460   3.921   5.325   9.353
45188SOL    HW137461   4.001   5.320   9.300
45188SOL    HW237462   3.918   5.416   9.381
45189SOL     OW37463  10.491  12.859   9.781
45189SOL    HW137464  10.548  12.906   9.721
45189SOL    HW237465  10.415  12.916   9.793
45190SOL     OW37466   1.733   9.702   3.273
45190SOL    HW137467   1.798   9.772   3.277
45190SOL    HW237468   1.697   9.706   3.185
45191SOL     OW37469  13.719  11.854   0.521
45191SOL    HW137470  13.630  11.819   0.516
45191SOL    HW237471  13.763  11.816   0.444
45192SOL     OW37472  11.139   4.621   4.361
45192SOL    HW137473  11.130   4.693   4.298
45192SOL    HW237474  11.230   4.595   4.355
45193SOL     OW37475  10.923  10.724  13.401
45193SOL    HW137476  10.847  10.673  13.428
45193SOL    HW237477  10.923  10.719  13.305
45194SOL     OW37478   4.006  10.776   4.950
45194SOL    HW137479   4.038  10.696   4.909
45194SOL    HW237480   4.060  10.846   4.912
45195SOL     OW37481   7.453   8.357  10.801
45195SOL    HW137482   7.372   8.359  10.850
45195SOL    HW237483   7.474   8.264  10.793
45196SOL     OW37484  14.252  11.831   4.681
45196SOL    HW137485  14.230  11.789   4.764
45196SOL    HW237486  14.199  11.910   4.678
45197SOL     OW37487   0.091  14.136   8.545
45197SOL    HW137488   0.099  14.149   8.640
45197SOL    HW237489   0.135  14.052   8.529
45198SOL     OW37490   0.482   4.562  12.187
45198SOL    HW137491   0.396   4.544  12.151
45198SOL    HW237492   0.536   4.488  12.160
45199SOL     OW37493   5.415  11.825   2.559
45199SOL    HW137494   5.370  11.749   2.523
45199SOL    HW237495   5.507  11.810   2.540
45200SOL     OW37496   0.209   4.493  10.799
45200SOL    HW137497   0.128   4.472  10.845
45200SOL    HW237498   0.261   4.542  10.863
45201SOL     OW37499  14.564   9.716  11.982
45201SOL    HW137500  14.475   9.749  11.998
45201SOL    HW237501  14.553   9.650  11.914
45202SOL     OW37502   7.491  14.404   7.150
45202SOL    HW137503   7.506  14.322   7.198
45202SOL    HW237504   7.571  14.415   7.097
45203SOL     OW37505   3.769   8.239   1.829
45203SOL    HW137506   3.864   8.236   1.840
45203SOL    HW237507   3.747   8.155   1.789
45204SOL     OW37508  14.443   3.691   1.124
45204SOL    HW137509  14.497   3.756   1.079
45204SOL    HW237510  14.379   3.742   1.173
45205SOL     OW37511   0.157   7.694   6.081
45205SOL    HW137512   0.166   7.615   6.027
45205SOL    HW237513   0.224   7.684   6.149
45206SOL     OW37514   3.734   6.108   7.753
45206SOL    HW137515   3.697   6.175   7.810
45206SOL    HW237516   3.753   6.035   7.812
45207SOL     OW37517   2.685   1.391   8.186
45207SOL    HW137518   2.727   1.413   8.102
45207SOL    HW237519   2.733   1.314   8.216
45208SOL     OW37520  10.929   0.146   2.322
45208SOL    HW137521  10.869   0.184   2.258
45208SOL    HW237522  11.012   0.136   2.274
45209SOL     OW37523   7.438   6.914   8.893
45209SOL    HW137524   7.365   6.959   8.850
45209SOL    HW237525   7.449   6.960   8.976
45210SOL     OW37526  12.372   3.005   6.432
45210SOL    HW137527  12.395   3.063   6.505
45210SOL    HW237528  12.294   2.959   6.462
45211SOL     OW37529   4.938   1.171   4.301
45211SOL    HW137530   4.952   1.225   4.223
45211SOL    HW237531   4.990   1.092   4.285
45212SOL     OW37532  11.983  12.000   0.727
45212SOL    HW137533  12.002  11.936   0.796
45212SOL    HW237534  12.058  11.996   0.669
45213SOL     OW37535   0.153   4.823  13.225
45213SOL    HW137536   0.186   4.757  13.287
45213SOL    HW237537   0.066   4.792  13.202
45214SOL     OW37538   4.838   6.324   6.233
45214SOL    HW137539   4.846   6.264   6.159
45214SOL    HW237540   4.891   6.400   6.208
45215SOL     OW37541  11.450   2.606   1.104
45215SOL    HW137542  11.500   2.529   1.077
45215SOL    HW237543  11.365   2.572   1.131
45216SOL     OW37544   1.507   7.649   0.115
45216SOL    HW137545   1.594   7.665   0.080
45216SOL    HW237546   1.522   7.609   0.201
45217SOL     OW37547   5.094   0.562  10.389
45217SOL    HW137548   5.089   0.467  10.400
45217SOL    HW237549   5.071   0.576  10.297
45218SOL     OW37550   8.449  11.510   2.935
45218SOL    HW137551   8.532  11.466   2.919
45218SOL    HW237552   8.383  11.442   2.921
45219SOL     OW37553   0.055   5.313   4.227
45219SOL    HW137554   0.099   5.395   4.248
45219SOL    HW237555   0.125   5.248   4.223
45220SOL     OW37556   9.947  14.650   0.470
45220SOL    HW137557   9.968  14.742   0.450
45220SOL    HW237558  10.031  14.604   0.462
45221SOL     OW37559   5.659   1.293   9.561
45221SOL    HW137560   5.665   1.388   9.574
45221SOL    HW237561   5.575   1.280   9.517
45222SOL     OW37562   5.546  12.307  13.150
45222SOL    HW137563   5.484  12.276  13.216
45222SOL    HW237564   5.540  12.243  13.079
45223SOL     OW37565   1.590   0.191   8.698
45223SOL    HW137566   1.620   0.218   8.784
45223SOL    HW237567   1.566   0.099   8.709
45224SOL     OW37568  11.781   7.809   5.719
45224SOL    HW137569  11.744   7.833   5.634
45224SOL    HW237570  11.869   7.778   5.698
45225SOL     OW37571   0.400   2.538   2.535
45225SOL    HW137572   0.347   2.581   2.469
45225SOL    HW237573   0.349   2.546   2.616
45226SOL     OW37574   6.763  10.985   6.482
45226SOL    HW137575   6.792  11.016   6.568
45226SOL    HW237576   6.785  10.892   6.482
45227SOL     OW37577   8.343  13.686  13.883
45227SOL    HW137578   8.300  13.748  13.942
45227SOL    HW237579   8.414  13.736  13.844
45228SOL     OW37580   7.724   0.224   6.614
45228SOL    HW137581   7.758   0.169   6.544
45228SOL    HW237582   7.654   0.275   6.573
45229SOL     OW37583   4.702   1.427   9.574
45229SOL    HW137584   4.652   1.385   9.504
45229SOL    HW237585   4.666   1.390   9.654
45230SOL     OW37586   5.088   7.972   2.578
45230SOL    HW137587   5.152   7.994   2.511
45230SOL    HW237588   5.127   8.002   2.660
45231SOL     OW37589   7.214   9.904   8.103
45231SOL    HW137590   7.182   9.827   8.150
45231SOL    HW237591   7.259   9.868   8.027
45232SOL     OW37592   7.974  13.541   6.313
45232SOL    HW137593   7.907  13.601   6.281
45232SOL    HW237594   7.933  13.494   6.385
45233SOL     OW37595   5.864   2.368   9.109
45233SOL    HW137596   5.773   2.350   9.085
45233SOL    HW237597   5.877   2.460   9.085
45234SOL     OW37598   5.864   3.417   6.312
45234SOL    HW137599   5.792   3.480   6.319
45234SOL    HW237600   5.929   3.462   6.257
45235SOL     OW37601  13.318  11.130   5.446
45235SOL    HW137602  13.228  11.163   5.453
45235SOL    HW237603  13.311  11.054   5.388
45236SOL     OW37604   5.711   6.406   2.935
45236SOL    HW137605   5.781   6.462   2.969
45236SOL    HW237606   5.639   6.418   2.997
45237SOL     OW37607   6.652   9.583   8.688
45237SOL    HW137608   6.670   9.518   8.757
45237SOL    HW237609   6.570   9.625   8.716
45238SOL     OW37610   3.733   2.260   5.903
45238SOL    HW137611   3.765   2.170   5.909
45238SOL    HW237612   3.658   2.254   5.843
45239SOL     OW37613  12.430   3.347  10.559
45239SOL    HW137614  12.404   3.348  10.466
45239SOL    HW237615  12.348   3.358  10.607
45240SOL     OW37616  11.927   5.690   9.122
45240SOL    HW137617  11.862   5.632   9.084
45240SOL    HW237618  11.915   5.679   9.217
45241SOL     OW37619   2.888   4.125   7.745
45241SOL    HW137620   2.948   4.075   7.690
45241SOL    HW237621   2.943   4.158   7.816
45242SOL     OW37622   3.456  12.112   2.721
45242SOL    HW137623   3.458  12.193   2.772
45242SOL    HW237624   3.443  12.141   2.631
45243SOL     OW37625   2.056  11.595   0.504
45243SOL    HW137626   1.980  11.546   0.534
45243SOL    HW237627   2.072  11.660   0.573
45244SOL     OW37628   0.585  11.935  10.529
45244SOL    HW137629   0.523  11.885  10.582
45244SOL    HW237630   0.647  11.870  10.496
45245SOL     OW37631   1.058   6.067   3.023
45245SOL    HW137632   1.096   6.107   2.945
45245SOL    HW237633   0.975   6.114   3.035
45246SOL     OW37634   5.918  11.662  14.865
45246SOL    HW137635   5.911  11.637  14.773
45246SOL    HW237636   5.974  11.740  14.864
45247SOL     OW37637   4.763   3.996   2.547
45247SOL    HW137638   4.820   3.998   2.470
45247SOL    HW237639   4.724   4.084   2.550
45248SOL     OW37640   1.277  14.655   2.679
45248SOL    HW137641   1.274  14.560   2.669
45248SOL    HW237642   1.304  14.669   2.770
45249SOL     OW37643  12.711  11.133  13.798
45249SOL    HW137644  12.633  11.083  13.820
45249SOL    HW237645  12.737  11.101  13.712
45250SOL     OW37646   2.839   3.801  14.201
45250SOL    HW137647   2.806   3.891  14.206
45250SOL    HW237648   2.852   3.775  14.292
45251SOL     OW37649  13.328   2.521   0.424
45251SOL    HW137650  13.335   2.584   0.353
45251SOL    HW237651  13.284   2.568   0.495
45252SOL     OW37652   2.079   0.325   1.599
45252SOL    HW137653   2.047   0.274   1.525
45252SOL    HW237654   2.153   0.375   1.564
45253SOL     OW37655   4.102   3.186  11.165
45253SOL    HW137656   4.159   3.258  11.193
45253SOL    HW237657   4.151   3.143  11.095
45254SOL     OW37658   7.901   2.114   8.785
45254SOL    HW137659   7.989   2.077   8.782
45254SOL    HW237660   7.912   2.206   8.764
45255SOL     OW37661  13.668   3.247  13.346
45255SOL    HW137662  13.585   3.226  13.389
45255SOL    HW237663  13.730   3.183  13.380
45256SOL     OW37664   1.487  10.233   9.582
45256SOL    HW137665   1.403  10.204   9.546
45256SOL    HW237666   1.479  10.328   9.590
45257SOL     OW37667   0.312   6.012   6.415
45257SOL    HW137668   0.382   5.984   6.358
45257SOL    HW237669   0.234   5.967   6.382
45258SOL     OW37670   2.959   4.853  11.988
45258SOL    HW137671   2.939   4.943  12.013
45258SOL    HW237672   2.906   4.799  12.047
45259SOL     OW37673   7.904   1.839  10.739
45259SOL    HW137674   7.977   1.848  10.678
45259SOL    HW237675   7.898   1.745  10.755
45260SOL     OW37676   5.217   6.187  12.165
45260SOL    HW137677   5.253   6.275  12.172
45260SOL    HW237678   5.149   6.193  12.098
45261SOL     OW37679   7.881  13.663   6.782
45261SOL    HW137680   7.956  13.687   6.727
45261SOL    HW237681   7.814  13.635   6.721
45262SOL     OW37682   0.542   1.361   9.827
45262SOL    HW137683   0.463   1.372   9.880
45262SOL    HW237684   0.599   1.306   9.881
45263SOL     OW37685  10.716   7.498   3.809
45263SOL    HW137686  10.743   7.590   3.801
45263SOL    HW237687  10.664   7.481   3.730
45264SOL     OW37688  12.175   2.362  10.328
45264SOL    HW137689  12.132   2.437  10.369
45264SOL    HW237690  12.114   2.333  10.260
45265SOL     OW37691   7.927  11.112   3.071
45265SOL    HW137692   7.845  11.069   3.096
45265SOL    HW237693   7.995  11.056   3.108
45266SOL     OW37694   6.346  12.116   3.750
45266SOL    HW137695   6.314  12.198   3.712
45266SOL    HW237696   6.442  12.123   3.744
45267SOL     OW37697   6.094   9.319  12.290
45267SOL    HW137698   5.999   9.309  12.285
45267SOL    HW237699   6.129   9.249  12.234
45268SOL     OW37700  13.945  12.108  11.948
45268SOL    HW137701  13.997  12.065  12.016
45268SOL    HW237702  13.885  12.040  11.917
45269SOL     OW37703  10.728   9.829  14.179
45269SOL    HW137704  10.820   9.825  14.207
45269SOL    HW237705  10.705   9.922  14.184
45270SOL     OW37706  13.580   6.569   2.456
45270SOL    HW137707  13.491   6.543   2.431
45270SOL    HW237708  13.627   6.487   2.467
45271SOL     OW37709  10.625   0.285   9.379
45271SOL    HW137710  10.542   0.242   9.400
45271SOL    HW237711  10.661   0.233   9.307
45272SOL     OW37712  12.968   0.366   9.972
45272SOL    HW137713  13.021   0.445   9.975
45272SOL    HW237714  12.881   0.396   9.946
45273SOL     OW37715   8.495  13.968   3.789
45273SOL    HW137716   8.494  13.889   3.844
45273SOL    HW237717   8.587  13.978   3.764
45274SOL     OW37718   6.669   9.377  14.126
45274SOL    HW137719   6.727   9.310  14.089
45274SOL    HW237720   6.727   9.451  14.144
45275SOL     OW37721   4.650   4.414   0.509
45275SOL    HW137722   4.674   4.387   0.421
45275SOL    HW237723   4.566   4.459   0.499
45276SOL     OW37724   3.227   0.089   8.875
45276SOL    HW137725   3.197   0.007   8.915
45276SOL    HW237726   3.310   0.108   8.919
45277SOL     OW37727  14.305   9.415   5.269
45277SOL    HW137728  14.334   9.470   5.342
45277SOL    HW237729  14.386   9.396   5.220
45278SOL     OW37730  14.044  13.146   8.335
45278SOL    HW137731  14.049  13.198   8.255
45278SOL    HW237732  14.007  13.063   8.308
45279SOL     OW37733  10.157   5.777   0.766
45279SOL    HW137734  10.238   5.828   0.764
45279SOL    HW237735  10.175   5.702   0.710
45280SOL     OW37736  10.903  12.779  11.804
45280SOL    HW137737  10.936  12.754  11.718
45280SOL    HW237738  10.813  12.748  11.805
45281SOL     OW37739   3.264   6.113  13.033
45281SOL    HW137740   3.185   6.060  13.021
45281SOL    HW237741   3.236   6.203  13.018
45282SOL     OW37742   7.957  10.761   7.450
45282SOL    HW137743   7.964  10.844   7.496
45282SOL    HW237744   8.046  10.742   7.421
45283SOL     OW37745   6.203   8.281  10.374
45283SOL    HW137746   6.149   8.335  10.318
45283SOL    HW237747   6.257   8.229  10.314
45284SOL     OW37748   8.618  12.761   7.242
45284SOL    HW137749   8.689  12.757   7.306
45284SOL    HW237750   8.580  12.673   7.242
45285SOL     OW37751  11.643  11.552   6.871
45285SOL    HW137752  11.562  11.603   6.874
45285SOL    HW237753  11.663  11.545   6.778
45286SOL     OW37754   4.845  14.841  12.771
45286SOL    HW137755   4.838  14.792  12.689
45286SOL    HW237756   4.907   0.039  12.751
45287SOL     OW37757   4.073  11.239  13.909
45287SOL    HW137758   4.151  11.215  13.958
45287SOL    HW237759   4.042  11.319  13.950
45288SOL     OW37760   8.519   4.056   0.084
45288SOL    HW137761   8.562   3.998   0.147
45288SOL    HW237762   8.440   4.085   0.129
45289SOL     OW37763   9.542   4.408  11.968
45289SOL    HW137764   9.475   4.438  12.029
45289SOL    HW237765   9.625   4.423  12.014
45290SOL     OW37766   3.888  10.726   1.103
45290SOL    HW137767   3.909  10.658   1.038
45290SOL    HW237768   3.970  10.742   1.148
45291SOL     OW37769   1.432   3.769   6.589
45291SOL    HW137770   1.365   3.834   6.610
45291SOL    HW237771   1.408   3.736   6.503
45292SOL     OW37772   9.582   5.070  11.020
45292SOL    HW137773   9.673   5.098  11.009
45292SOL    HW237774   9.538   5.100  10.940
45293SOL     OW37775  12.994   4.320   1.334
45293SOL    HW137776  13.083   4.304   1.303
45293SOL    HW237777  13.005   4.357   1.421
45294SOL     OW37778   0.111   4.935  14.515
45294SOL    HW137779   0.190   4.904  14.470
45294SOL    HW237780   0.142   4.968  14.599
45295SOL     OW37781   1.776   1.722  11.140
45295SOL    HW137782   1.690   1.744  11.176
45295SOL    HW237783   1.788   1.630  11.161
45296SOL     OW37784  11.096   3.860  12.440
45296SOL    HW137785  11.083   3.884  12.532
45296SOL    HW237786  11.089   3.765  12.439
45297SOL     OW37787   7.421  14.523   6.059
45297SOL    HW137788   7.408  14.429   6.044
45297SOL    HW237789   7.513  14.537   6.038
45298SOL     OW37790   6.359  14.510   4.754
45298SOL    HW137791   6.438  14.484   4.706
45298SOL    HW237792   6.318  14.428   4.779
45299SOL     OW37793   7.750   8.691   1.815
45299SOL    HW137794   7.844   8.707   1.829
45299SOL    HW237795   7.743   8.596   1.807
45300SOL     OW37796  14.500  14.175   0.622
45300SOL    HW137797  14.426  14.201   0.678
45300SOL    HW237798  14.573  14.164   0.682
45301SOL     OW37799   0.567   0.876   0.763
45301SOL    HW137800   0.604   0.870   0.674
45301SOL    HW237801   0.474   0.894   0.749
45302SOL     OW37802   2.055  12.770   4.546
45302SOL    HW137803   2.116  12.842   4.535
45302SOL    HW237804   2.102  12.693   4.514
45303SOL     OW37805  14.611  10.647   8.499
45303SOL    HW137806  14.704  10.634   8.480
45303SOL    HW237807  14.582  10.712   8.436
45304SOL     OW37808   3.561   9.163   7.222
45304SOL    HW137809   3.471   9.185   7.246
45304SOL    HW237810   3.605   9.145   7.305
45305SOL     OW37811  12.297   4.138  14.831
45305SOL    HW137812  12.213   4.178  14.809
45305SOL    HW237813  12.354   4.213  14.850
45306SOL     OW37814   6.854   3.949  13.980
45306SOL    HW137815   6.848   3.867  13.931
45306SOL    HW237816   6.778   3.948  14.038
45307SOL     OW37817   6.140   1.692   6.108
45307SOL    HW137818   6.229   1.726   6.109
45307SOL    HW237819   6.144   1.616   6.050
45308SOL     OW37820   2.962  12.014   2.342
45308SOL    HW137821   2.900  11.968   2.399
45308SOL    HW237822   2.913  12.089   2.309
45309SOL     OW37823  13.263   3.989   5.499
45309SOL    HW137824  13.210   3.943   5.565
45309SOL    HW237825  13.263   3.931   5.424
45310SOL     OW37826  14.200   8.643   4.551
45310SOL    HW137827  14.283   8.596   4.541
45310SOL    HW237828  14.182   8.639   4.645
45311SOL     OW37829  10.614   1.650   0.799
45311SOL    HW137830  10.671   1.675   0.872
45311SOL    HW237831  10.591   1.733   0.757
45312SOL     OW37832  11.924  14.361  12.150
45312SOL    HW137833  11.958  14.318  12.229
45312SOL    HW237834  11.937  14.297  12.080
45313SOL     OW37835   4.084  11.786   3.196
45313SOL    HW137836   4.174  11.808   3.170
45313SOL    HW237837   4.075  11.821   3.285
45314SOL     OW37838  10.770   6.920   3.277
45314SOL    HW137839  10.861   6.946   3.264
45314SOL    HW237840  10.763   6.835   3.232
45315SOL     OW37841  11.304  10.170   7.202
45315SOL    HW137842  11.320  10.113   7.278
45315SOL    HW237843  11.230  10.129   7.157
45316SOL     OW37844  13.753   9.423   9.290
45316SOL    HW137845  13.806   9.345   9.308
45316SOL    HW237846  13.815   9.496   9.296
45317SOL     OW37847  13.951  10.933   9.401
45317SOL    HW137848  13.882  10.883   9.444
45317SOL    HW237849  13.987  10.874   9.335
45318SOL     OW37850   9.072  10.492   2.363
45318SOL    HW137851   9.086  10.439   2.285
45318SOL    HW237852   9.010  10.559   2.336
45319SOL     OW37853   3.462   0.285  13.325
45319SOL    HW137854   3.444   0.378  13.342
45319SOL    HW237855   3.539   0.265  13.379
45320SOL     OW37856  11.217  10.634   3.855
45320SOL    HW137857  11.309  10.645   3.830
45320SOL    HW237858  11.200  10.706   3.915
45321SOL     OW37859   3.052   5.527   2.000
45321SOL    HW137860   3.032   5.593   2.066
45321SOL    HW237861   3.056   5.445   2.048
45322SOL     OW37862   1.110   8.611   4.632
45322SOL    HW137863   1.071   8.524   4.641
45322SOL    HW237864   1.082   8.642   4.546
45323SOL     OW37865   6.022   5.154   5.002
45323SOL    HW137866   6.020   5.159   4.906
45323SOL    HW237867   6.003   5.243   5.031
45324SOL     OW37868   1.285  11.845   9.552
45324SOL    HW137869   1.281  11.882   9.640
45324SOL    HW237870   1.268  11.752   9.564
45325SOL     OW37871   4.301   7.692  12.534
45325SOL    HW137872   4.304   7.604  12.497
45325SOL    HW237873   4.393   7.718  12.541
45326SOL     OW37874   3.440  10.289  12.461
45326SOL    HW137875   3.383  10.332  12.524
45326SOL    HW237876   3.381  10.239  12.405
45327SOL     OW37877  12.241   6.806  10.976
45327SOL    HW137878  12.300   6.777  10.906
45327SOL    HW237879  12.180   6.866  10.933
45328SOL     OW37880  13.628  11.966   2.993
45328SOL    HW137881  13.708  12.017   2.982
45328SOL    HW237882  13.576  11.986   2.916
45329SOL     OW37883   4.785  10.404   2.156
45329SOL    HW137884   4.838  10.477   2.125
45329SOL    HW237885   4.847  10.342   2.192
45330SOL     OW37886  11.843  13.905  11.950
45330SOL    HW137887  11.815  13.814  11.951
45330SOL    HW237888  11.768  13.953  11.914
45331SOL     OW37889  12.726   3.832   1.258
45331SOL    HW137890  12.769   3.756   1.220
45331SOL    HW237891  12.650   3.797   1.304
45332SOL     OW37892   8.946   9.939   2.665
45332SOL    HW137893   8.991   9.968   2.744
45332SOL    HW237894   8.993   9.859   2.639
45333SOL     OW37895   3.440   6.913   0.976
45333SOL    HW137896   3.426   6.951   0.889
45333SOL    HW237897   3.532   6.884   0.975
45334SOL     OW37898  14.428   0.389   1.157
45334SOL    HW137899  14.341   0.423   1.135
45334SOL    HW237900  14.484   0.467   1.160
45335SOL     OW37901   6.263  10.362   3.269
45335SOL    HW137902   6.352  10.356   3.304
45335SOL    HW237903   6.225  10.276   3.285
45336SOL     OW37904   9.606   4.844  11.921
45336SOL    HW137905   9.674   4.907  11.899
45336SOL    HW237906   9.653   4.771  11.962
45337SOL     OW37907   7.583  12.297  14.772
45337SOL    HW137908   7.570  12.386  14.805
45337SOL    HW237909   7.494  12.263  14.761
45338SOL     OW37910   5.987   2.676   9.685
45338SOL    HW137911   5.924   2.690   9.755
45338SOL    HW237912   5.969   2.587   9.653
45339SOL     OW37913  11.200  12.928   4.659
45339SOL    HW137914  11.205  12.943   4.565
45339SOL    HW237915  11.194  12.833   4.667
45340SOL     OW37916   5.014   5.646   7.432
45340SOL    HW137917   4.945   5.592   7.392
45340SOL    HW237918   5.011   5.623   7.525
45341SOL     OW37919   4.715   8.511  14.190
45341SOL    HW137920   4.662   8.585  14.220
45341SOL    HW237921   4.716   8.451  14.264
45342SOL     OW37922  11.216   7.633   2.739
45342SOL    HW137923  11.195   7.631   2.832
45342SOL    HW237924  11.181   7.716   2.708
45343SOL     OW37925   5.040   2.335   3.201
45343SOL    HW137926   4.947   2.313   3.197
45343SOL    HW237927   5.062   2.362   3.112
45344SOL     OW37928   5.548   1.846  13.500
45344SOL    HW137929   5.472   1.804  13.460
45344SOL    HW237930   5.620   1.783  13.487
45345SOL     OW37931   9.498   6.771  12.520
45345SOL    HW137932   9.493   6.690  12.469
45345SOL    HW237933   9.452   6.751  12.601
45346SOL     OW37934  11.784  14.016  10.110
45346SOL    HW137935  11.846  13.972  10.167
45346SOL    HW237936  11.700  13.974  10.128
45347SOL     OW37937   6.450  13.107  10.416
45347SOL    HW137938   6.513  13.158  10.365
45347SOL    HW237939   6.450  13.148  10.502
45348SOL     OW37940   9.357   7.354   4.875
45348SOL    HW137941   9.377   7.391   4.961
45348SOL    HW237942   9.290   7.413   4.839
45349SOL     OW37943   3.691  10.996   6.421
45349SOL    HW137944   3.753  11.043   6.477
45349SOL    HW237945   3.706  11.032   6.333
45350SOL     OW37946   8.004   0.750   9.504
45350SOL    HW137947   7.964   0.670   9.539
45350SOL    HW237948   7.990   0.744   9.410
45351SOL     OW37949  10.562   4.300   6.720
45351SOL    HW137950  10.504   4.375   6.738
45351SOL    HW237951  10.503   4.226   6.709
45352SOL     OW37952  10.089   7.490   3.001
45352SOL    HW137953  10.117   7.534   3.081
45352SOL    HW237954  10.050   7.407   3.031
45353SOL     OW37955   0.061   1.413   5.860
45353SOL    HW137956   0.008   1.336   5.837
45353SOL    HW237957  14.869   1.483   5.875
45354SOL     OW37958   4.267   1.768  13.304
45354SOL    HW137959   4.221   1.810  13.231
45354SOL    HW237960   4.313   1.694  13.264
45355SOL     OW37961  10.281   0.197   1.790
45355SOL    HW137962  10.290   0.158   1.703
45355SOL    HW237963  10.224   0.136   1.837
45356SOL     OW37964   8.131   1.983   0.985
45356SOL    HW137965   8.168   2.030   1.059
45356SOL    HW237966   8.151   1.891   1.001
45357SOL     OW37967   9.975   2.705  10.680
45357SOL    HW137968   9.938   2.776  10.628
45357SOL    HW237969  10.029   2.655  10.618
45358SOL     OW37970   9.443   1.052   9.044
45358SOL    HW137971   9.382   1.023   8.976
45358SOL    HW237972   9.463   1.142   9.021
45359SOL     OW37973   1.324   8.373   8.627
45359SOL    HW137974   1.347   8.452   8.676
45359SOL    HW237975   1.370   8.383   8.543
45360SOL     OW37976  13.993   1.686   8.991
45360SOL    HW137977  13.905   1.724   8.997
45360SOL    HW237978  13.978   1.592   8.988
45361SOL     OW37979  11.633  12.861  12.095
45361SOL    HW137980  11.677  12.825  12.172
45361SOL    HW237981  11.669  12.812  12.022
45362SOL     OW37982  10.118   3.018  14.021
45362SOL    HW137983  10.141   2.927  14.036
45362SOL    HW237984  10.179   3.068  14.077
45363SOL     OW37985  12.271  14.388   6.762
45363SOL    HW137986  12.330  14.445   6.811
45363SOL    HW237987  12.220  14.343   6.829
45364SOL     OW37988   8.215  12.567   8.666
45364SOL    HW137989   8.253  12.641   8.619
45364SOL    HW237990   8.222  12.494   8.605
45365SOL     OW37991   0.765   5.251  13.951
45365SOL    HW137992   0.700   5.318  13.929
45365SOL    HW237993   0.829   5.298  14.005
45366SOL     OW37994   0.190   0.934   3.571
45366SOL    HW137995   0.254   0.870   3.539
45366SOL    HW237996   0.182   0.997   3.500
45367SOL     OW37997  13.568   4.214  14.843
45367SOL    HW137998  13.652   4.167  14.848
45367SOL    HW237999  13.577   4.270  14.766
45368SOL     OW38000  11.629  10.208   1.499
45368SOL    HW138001  11.601  10.203   1.408
45368SOL    HW238002  11.677  10.291   1.505
45369SOL     OW38003  12.205  11.095   9.937
45369SOL    HW138004  12.214  11.084   9.842
45369SOL    HW238005  12.169  11.012   9.967
45370SOL     OW38006   3.555   5.808  12.266
45370SOL    HW138007   3.528   5.799  12.358
45370SOL    HW238008   3.479   5.847  12.223
45371SOL     OW38009   0.444   9.002   3.073
45371SOL    HW138010   0.505   8.929   3.060
45371SOL    HW238011   0.494   9.080   3.052
45372SOL     OW38012   4.439   3.372   9.862
45372SOL    HW138013   4.481   3.378   9.948
45372SOL    HW238014   4.419   3.463   9.839
45373SOL     OW38015  10.879   6.675   6.061
45373SOL    HW138016  10.880   6.733   5.985
45373SOL    HW238017  10.879   6.735   6.136
45374SOL     OW38018  11.148  12.459   3.431
45374SOL    HW138019  11.229  12.466   3.381
45374SOL    HW238020  11.162  12.513   3.509
45375SOL     OW38021   3.263   9.226  13.437
45375SOL    HW138022   3.343   9.216  13.489
45375SOL    HW238023   3.276   9.308  13.389
45376SOL     OW38024  10.234   2.130   9.245
45376SOL    HW138025  10.302   2.196   9.232
45376SOL    HW238026  10.209   2.103   9.157
45377SOL     OW38027  10.444   2.009   4.799
45377SOL    HW138028  10.380   1.978   4.863
45377SOL    HW238029  10.397   2.011   4.716
45378SOL     OW38030  14.833  10.349   6.534
45378SOL    HW138031  14.855  10.404   6.459
45378SOL    HW238032  14.819  10.410   6.606
45379SOL     OW38033   8.255   0.748   8.463
45379SOL    HW138034   8.282   0.833   8.496
45379SOL    HW238035   8.327   0.721   8.406
45380SOL     OW38036   4.270   6.967   5.395
45380SOL    HW138037   4.214   6.971   5.473
45380SOL    HW238038   4.344   6.912   5.421
45381SOL     OW38039  12.810  11.230  13.045
45381SOL    HW138040  12.784  11.269  13.129
45381SOL    HW238041  12.896  11.192  13.062
45382SOL     OW38042   2.023  14.486   3.067
45382SOL    HW138043   2.071  14.471   3.148
45382SOL    HW238044   1.946  14.429   3.074
45383SOL     OW38045   3.088   2.680   7.913
45383SOL    HW138046   3.136   2.646   7.838
45383SOL    HW238047   3.080   2.606   7.972
45384SOL     OW38048   5.440   9.297   5.557
45384SOL    HW138049   5.450   9.344   5.640
45384SOL    HW238050   5.527   9.259   5.541
45385SOL     OW38051  11.907   5.398   4.348
45385SOL    HW138052  11.919   5.336   4.419
45385SOL    HW238053  11.828   5.369   4.304
45386SOL     OW38054   7.472   2.242   0.439
45386SOL    HW138055   7.458   2.318   0.382
45386SOL    HW238056   7.384   2.209   0.458
45387SOL     OW38057   0.275  12.581   5.272
45387SOL    HW138058   0.294  12.490   5.249
45387SOL    HW238059   0.181  12.583   5.288
45388SOL     OW38060  10.047   7.616  11.671
45388SOL    HW138061  10.115   7.658  11.724
45388SOL    HW238062   9.973   7.608  11.731
45389SOL     OW38063  13.194  10.117  10.007
45389SOL    HW138064  13.190  10.160   9.922
45389SOL    HW238065  13.221  10.185  10.068
45390SOL     OW38066   1.749   5.410  14.657
45390SOL    HW138067   1.815   5.346  14.631
45390SOL    HW238068   1.798   5.489  14.677
45391SOL     OW38069   5.790   1.759   4.113
45391SOL    HW138070   5.878   1.796   4.109
45391SOL    HW238071   5.773   1.748   4.206
45392SOL     OW38072   7.960   2.704  12.386
45392SOL    HW138073   7.883   2.750  12.352
45392SOL    HW238074   8.024   2.773  12.404
45393SOL     OW38075  11.894  12.234   3.779
45393SOL    HW138076  11.901  12.139   3.777
45393SOL    HW238077  11.831  12.252   3.848
45394SOL     OW38078  12.966   1.240  11.537
45394SOL    HW138079  12.891   1.190  11.568
45394SOL    HW238080  13.014   1.263  11.617
45395SOL     OW38081  13.453   3.832   4.566
45395SOL    HW138082  13.416   3.886   4.497
45395SOL    HW238083  13.452   3.889   4.644
45396SOL     OW38084   0.808  13.745  12.893
45396SOL    HW138085   0.779  13.688  12.965
45396SOL    HW238086   0.764  13.828  12.910
45397SOL     OW38087   6.143  14.230  13.163
45397SOL    HW138088   6.115  14.164  13.226
45397SOL    HW238089   6.175  14.179  13.089
45398SOL     OW38090  14.192   4.293  11.126
45398SOL    HW138091  14.190   4.227  11.057
45398SOL    HW238092  14.189   4.242  11.207
45399SOL     OW38093  13.850   6.214   1.896
45399SOL    HW138094  13.854   6.119   1.887
45399SOL    HW238095  13.766   6.230   1.939
45400SOL     OW38096  10.223  12.707  12.587
45400SOL    HW138097  10.143  12.758  12.581
45400SOL    HW238098  10.225  12.677  12.678
45401SOL     OW38099   0.160   6.971   7.367
45401SOL    HW138100   0.207   7.053   7.348
45401SOL    HW238101   0.110   6.990   7.446
45402SOL     OW38102   2.106   5.352  14.831
45402SOL    HW138103   2.070   5.330  14.746
45402SOL    HW238104   2.066   5.289   0.019
45403SOL     OW38105   4.790   0.054  11.436
45403SOL    HW138106   4.784   0.124  11.370
45403SOL    HW238107   4.806   0.100  11.518
45404SOL     OW38108  12.161   2.292  11.869
45404SOL    HW138109  12.199   2.205  11.873
45404SOL    HW238110  12.162   2.314  11.775
45405SOL     OW38111  12.515   1.474   1.186
45405SOL    HW138112  12.492   1.391   1.228
45405SOL    HW238113  12.484   1.465   1.096
45406SOL     OW38114   2.850   9.998  10.232
45406SOL    HW138115   2.803  10.070  10.276
45406SOL    HW238116   2.907   9.962  10.299
45407SOL     OW38117   5.931   2.603   5.053
45407SOL    HW138118   5.914   2.513   5.025
45407SOL    HW238119   5.858   2.625   5.111
45408SOL     OW38120   4.037   5.275  10.877
45408SOL    HW138121   3.988   5.353  10.854
45408SOL    HW238122   4.002   5.248  10.962
45409SOL     OW38123   8.146  13.925   2.169
45409SOL    HW138124   8.201  14.003   2.174
45409SOL    HW238125   8.192  13.860   2.223
45410SOL     OW38126   6.218  13.694   6.526
45410SOL    HW138127   6.208  13.776   6.478
45410SOL    HW238128   6.129  13.669   6.549
45411SOL     OW38129   0.648   8.000  14.380
45411SOL    HW138130   0.677   8.090  14.395
45411SOL    HW238131   0.579   7.986  14.444
45412SOL     OW38132   1.283  14.719   1.732
45412SOL    HW138133   1.223  14.699   1.803
45412SOL    HW238134   1.292  14.815   1.733
45413SOL     OW38135   7.943  12.319   4.941
45413SOL    HW138136   7.924  12.366   5.022
45413SOL    HW238137   8.038  12.324   4.932
45414SOL     OW38138   9.785  12.881   3.064
45414SOL    HW138139   9.763  12.971   3.090
45414SOL    HW238140   9.870  12.889   3.021
45415SOL     OW38141   6.556  14.706   8.747
45415SOL    HW138142   6.559  14.640   8.678
45415SOL    HW238143   6.548  14.656   8.828
45416SOL     OW38144   0.309   5.263   2.819
45416SOL    HW138145   0.358   5.259   2.737
45416SOL    HW238146   0.257   5.343   2.812
45417SOL     OW38147   5.982  10.652   4.421
45417SOL    HW138148   5.998  10.730   4.474
45417SOL    HW238149   6.070  10.620   4.398
45418SOL     OW38150  14.868  10.627   2.181
45418SOL    HW138151   0.022  10.661   2.266
45418SOL    HW238152   0.013  10.699   2.120
45419SOL     OW38153  10.632  12.607  13.872
45419SOL    HW138154  10.606  12.699  13.875
45419SOL    HW238155  10.643  12.588  13.779
45420SOL     OW38156  11.373   1.193  11.901
45420SOL    HW138157  11.417   1.228  11.978
45420SOL    HW238158  11.400   1.102  11.896
45421SOL     OW38159   5.962  10.895  13.233
45421SOL    HW138160   6.032  10.875  13.295
45421SOL    HW238161   5.882  10.897  13.285
45422SOL     OW38162  13.699  13.674   1.338
45422SOL    HW138163  13.697  13.647   1.247
45422SOL    HW238164  13.748  13.604   1.382
45423SOL     OW38165  13.618  14.474   5.256
45423SOL    HW138166  13.569  14.491   5.336
45423SOL    HW238167  13.701  14.520   5.268
45424SOL     OW38168   1.713   1.226   9.427
45424SOL    HW138169   1.765   1.211   9.506
45424SOL    HW238170   1.775   1.257   9.362
45425SOL     OW38171   6.792   7.137  11.066
45425SOL    HW138172   6.843   7.058  11.082
45425SOL    HW238173   6.701   7.107  11.068
45426SOL     OW38174   5.036  13.192   0.948
45426SOL    HW138175   4.952  13.237   0.936
45426SOL    HW238176   5.079  13.239   1.019
45427SOL     OW38177  14.329   7.036   1.304
45427SOL    HW138178  14.397   7.099   1.330
45427SOL    HW238179  14.278   7.022   1.383
45428SOL     OW38180   9.607   6.395  11.773
45428SOL    HW138181   9.670   6.409  11.701
45428SOL    HW238182   9.561   6.478  11.781
45429SOL     OW38183  13.374   8.068   7.560
45429SOL    HW138184  13.364   7.986   7.609
45429SOL    HW238185  13.343   8.136   7.621
45430SOL     OW38186  14.857   5.041   4.447
45430SOL    HW138187  14.806   4.991   4.511
45430SOL    HW238188  14.818   5.020   4.363
45431SOL     OW38189  10.909   2.238  14.059
45431SOL    HW138190  10.979   2.200  14.113
45431SOL    HW238191  10.834   2.244  14.117
45432SOL     OW38192   9.581   3.918  10.508
45432SOL    HW138193   9.502   3.940  10.557
45432SOL    HW238194   9.626   3.854  10.563
45433SOL     OW38195   6.141   0.143   5.464
45433SOL    HW138196   6.194   0.177   5.392
45433SOL    HW238197   6.070   0.206   5.474
45434SOL     OW38198   5.000   5.961  13.564
45434SOL    HW138199   4.986   6.036  13.622
45434SOL    HW238200   5.088   5.975  13.529
45435SOL     OW38201   5.498   3.916   8.588
45435SOL    HW138202   5.558   3.931   8.661
45435SOL    HW238203   5.538   3.961   8.514
45436SOL     OW38204   1.505   8.729   7.079
45436SOL    HW138205   1.435   8.664   7.075
45436SOL    HW238206   1.575   8.687   7.129
45437SOL     OW38207  13.801   5.808   9.269
45437SOL    HW138208  13.894   5.787   9.256
45437SOL    HW238209  13.787   5.797   9.363
45438SOL     OW38210  13.216  14.531   0.864
45438SOL    HW138211  13.260  14.470   0.923
45438SOL    HW238212  13.282  14.554   0.799
45439SOL     OW38213  11.784   1.772  13.324
45439SOL    HW138214  11.878   1.758  13.321
45439SOL    HW238215  11.750   1.693  13.367
45440SOL     OW38216   5.609  11.711   5.720
45440SOL    HW138217   5.531  11.759   5.694
45440SOL    HW238218   5.585  11.619   5.710
45441SOL     OW38219   7.721   7.660  14.838
45441SOL    HW138220   7.813   7.672  14.817
45441SOL    HW238221   7.703   7.568  14.820
45442SOL     OW38222   0.195   8.421  11.683
45442SOL    HW138223   0.106   8.454  11.670
45442SOL    HW238224   0.190   8.368  11.762
45443SOL     OW38225  14.151   6.153   3.926
45443SOL    HW138226  14.110   6.213   3.988
45443SOL    HW238227  14.199   6.091   3.980
45444SOL     OW38228  12.211   6.390   1.005
45444SOL    HW138229  12.241   6.463   1.060
45444SOL    HW238230  12.154   6.339   1.063
45445SOL     OW38231   7.634   3.702  14.060
45445SOL    HW138232   7.594   3.644  13.995
45445SOL    HW238233   7.586   3.784  14.053
45446SOL     OW38234   7.357   3.263   2.040
45446SOL    HW138235   7.333   3.274   1.948
45446SOL    HW238236   7.431   3.321   2.054
45447SOL     OW38237  10.839   1.243  12.383
45447SOL    HW138238  10.872   1.161  12.344
45447SOL    HW238239  10.778   1.214  12.451
45448SOL     OW38240   4.715   2.554   6.129
45448SOL    HW138241   4.726   2.628   6.069
45448SOL    HW238242   4.804   2.539   6.163
45449SOL     OW38243  10.722   9.535   7.739
45449SOL    HW138244  10.655   9.476   7.703
45449SOL    HW238245  10.796   9.478   7.759
45450SOL     OW38246   0.885  11.058   5.187
45450SOL    HW138247   0.913  10.968   5.168
45450SOL    HW238248   0.954  11.092   5.244
45451SOL     OW38249   4.333   2.997   1.212
45451SOL    HW138250   4.358   2.924   1.268
45451SOL    HW238251   4.267   3.045   1.262
45452SOL     OW38252   4.893   2.785   2.360
45452SOL    HW138253   4.941   2.791   2.443
45452SOL    HW238254   4.945   2.836   2.298
45453SOL     OW38255  11.504   7.007   2.707
45453SOL    HW138256  11.484   7.020   2.615
45453SOL    HW238257  11.462   7.080   2.752
45454SOL     OW38258  13.657   2.318   2.636
45454SOL    HW138259  13.656   2.405   2.677
45454SOL    HW238260  13.581   2.273   2.673
45455SOL     OW38261   6.071   3.211   8.476
45455SOL    HW138262   6.075   3.306   8.485
45455SOL    HW238263   6.149   3.179   8.522
45456SOL     OW38264  11.564  10.038   3.058
45456SOL    HW138265  11.479  10.082   3.067
45456SOL    HW238266  11.621  10.082   3.121
45457SOL     OW38267   9.629   9.257   5.699
45457SOL    HW138268   9.654   9.256   5.606
45457SOL    HW238269   9.713   9.258   5.746
45458SOL     OW38270   2.596   8.658   5.371
45458SOL    HW138271   2.592   8.754   5.377
45458SOL    HW238272   2.632   8.630   5.455
45459SOL     OW38273   7.104   1.625  11.925
45459SOL    HW138274   7.020   1.645  11.967
45459SOL    HW238275   7.079   1.586  11.841
45460SOL     OW38276   1.835   1.430   8.060
45460SOL    HW138277   1.872   1.518   8.052
45460SOL    HW238278   1.892   1.386   8.124
45461SOL     OW38279   9.632   8.264  13.436
45461SOL    HW138280   9.707   8.226  13.482
45461SOL    HW238281   9.582   8.189  13.405
45462SOL     OW38282   4.074   3.716   1.063
45462SOL    HW138283   4.005   3.746   1.122
45462SOL    HW238284   4.028   3.659   1.000
45463SOL     OW38285   3.796  11.097   2.546
45463SOL    HW138286   3.802  11.029   2.613
45463SOL    HW238287   3.837  11.058   2.468
45464SOL     OW38288  13.720   3.672  13.158
45464SOL    HW138289  13.747   3.699  13.070
45464SOL    HW238290  13.738   3.577  13.160
45465SOL     OW38291   7.296  10.904   6.534
45465SOL    HW138292   7.331  10.937   6.451
45465SOL    HW238293   7.248  10.979   6.570
45466SOL     OW38294   7.994  10.131   3.143
45466SOL    HW138295   7.976  10.213   3.096
45466SOL    HW238296   8.077  10.146   3.187
45467SOL     OW38297  10.685  13.196   6.035
45467SOL    HW138298  10.606  13.227   5.991
45467SOL    HW238299  10.753  13.198   5.967
45468SOL     OW38300   2.862   5.504   6.550
45468SOL    HW138301   2.842   5.412   6.531
45468SOL    HW238302   2.918   5.501   6.627
45469SOL     OW38303   3.926   4.459  12.794
45469SOL    HW138304   3.843   4.429  12.756
45469SOL    HW238305   3.992   4.402  12.755
45470SOL     OW38306  10.636   3.007  14.484
45470SOL    HW138307  10.629   3.085  14.428
45470SOL    HW238308  10.558   3.010  14.539
45471SOL     OW38309  14.759   4.880   6.976
45471SOL    HW138310  14.806   4.825   6.914
45471SOL    HW238311  14.826   4.916   7.033
45472SOL     OW38312   1.446   2.800   7.866
45472SOL    HW138313   1.366   2.805   7.918
45472SOL    HW238314   1.499   2.734   7.909
45473SOL     OW38315  13.772  12.022  10.136
45473SOL    HW138316  13.859  12.028  10.177
45473SOL    HW238317  13.713  11.996  10.207
45474SOL     OW38318   8.646   1.652   6.052
45474SOL    HW138319   8.662   1.728   5.995
45474SOL    HW238320   8.620   1.690   6.136
45475SOL     OW38321   1.218   0.889   7.974
45475SOL    HW138322   1.272   0.812   7.957
45475SOL    HW238323   1.272   0.963   7.946
45476SOL     OW38324   6.101   7.623   0.713
45476SOL    HW138325   6.123   7.669   0.794
45476SOL    HW238326   6.148   7.540   0.719
45477SOL     OW38327   6.559  13.009   2.482
45477SOL    HW138328   6.593  12.951   2.414
45477SOL    HW238329   6.464  13.004   2.473
45478SOL     OW38330   3.228   2.094   2.525
45478SOL    HW138331   3.251   2.007   2.559
45478SOL    HW238332   3.141   2.083   2.489
45479SOL     OW38333  13.281  10.027  14.753
45479SOL    HW138334  13.275   9.936  14.781
45479SOL    HW238335  13.238  10.077  14.822
45480SOL     OW38336   1.558   1.231  14.121
45480SOL    HW138337   1.651   1.208  14.117
45480SOL    HW238338   1.520   1.167  14.182
45481SOL     OW38339  10.327   4.970  11.700
45481SOL    HW138340  10.388   4.943  11.631
45481SOL    HW238341  10.261   5.021  11.654
45482SOL     OW38342   9.506   3.875  11.847
45482SOL    HW138343   9.479   3.926  11.923
45482SOL    HW238344   9.521   3.940  11.778
45483SOL     OW38345   3.355   6.355   7.257
45483SOL    HW138346   3.283   6.411   7.227
45483SOL    HW238347   3.318   6.267   7.257
45484SOL     OW38348  14.770  13.039   2.489
45484SOL    HW138349  14.743  13.020   2.579
45484SOL    HW238350  14.699  13.003   2.435
45485SOL     OW38351  13.608  11.048  11.662
45485SOL    HW138352  13.677  11.026  11.725
45485SOL    HW238353  13.576  10.963  11.632
45486SOL     OW38354  13.106   5.468  14.237
45486SOL    HW138355  13.135   5.528  14.306
45486SOL    HW238356  13.015   5.448  14.259
45487SOL     OW38357   3.598  13.860   8.810
45487SOL    HW138358   3.543  13.895   8.880
45487SOL    HW238359   3.561  13.896   8.730
45488SOL     OW38360   1.398  10.278   4.777
45488SOL    HW138361   1.415  10.202   4.833
45488SOL    HW238362   1.474  10.334   4.787
45489SOL     OW38363   9.534   9.706   5.346
45489SOL    HW138364   9.538   9.763   5.423
45489SOL    HW238365   9.467   9.746   5.291
45490SOL     OW38366   6.928   5.626   7.541
45490SOL    HW138367   6.992   5.695   7.529
45490SOL    HW238368   6.868   5.659   7.607
45491SOL     OW38369  14.445   1.002   4.744
45491SOL    HW138370  14.438   0.971   4.654
45491SOL    HW238371  14.499   1.081   4.738
45492SOL     OW38372  14.786  13.431   3.228
45492SOL    HW138373  14.753  13.408   3.141
45492SOL    HW238374  14.851  13.364   3.248
45493SOL     OW38375   8.352   5.631  14.862
45493SOL    HW138376   8.343   5.711   0.042
45493SOL    HW238377   8.262   5.606  14.842
45494SOL     OW38378   2.473   1.291   3.686
45494SOL    HW138379   2.431   1.234   3.752
45494SOL    HW238380   2.532   1.232   3.638
45495SOL     OW38381   7.013   6.658   2.602
45495SOL    HW138382   7.013   6.752   2.620
45495SOL    HW238383   7.017   6.652   2.506
45496SOL     OW38384   8.871   0.707  13.469
45496SOL    HW138385   8.859   0.681  13.560
45496SOL    HW238386   8.825   0.790  13.462
45497SOL     OW38387   2.013   6.705  13.461
45497SOL    HW138388   1.933   6.666  13.425
45497SOL    HW238389   1.994   6.715  13.555
45498SOL     OW38390   7.865  14.071  12.365
45498SOL    HW138391   7.825  14.150  12.329
45498SOL    HW238392   7.958  14.078  12.342
45499SOL     OW38393   0.934  10.996   2.804
45499SOL    HW138394   0.861  11.038   2.848
45499SOL    HW238395   0.944  11.044   2.722
45500SOL     OW38396   8.726   4.259  10.021
45500SOL    HW138397   8.726   4.254   9.925
45500SOL    HW238398   8.649   4.311  10.042
45501SOL     OW38399  10.916  11.240  13.836
45501SOL    HW138400  10.961  11.283  13.909
45501SOL    HW238401  10.832  11.284  13.830
45502SOL     OW38402   0.770   5.882   2.124
45502SOL    HW138403   0.828   5.953   2.154
45502SOL    HW238404   0.694   5.887   2.182
45503SOL     OW38405  14.116  13.974  11.479
45503SOL    HW138406  14.082  13.933  11.399
45503SOL    HW238407  14.082  13.919  11.550
45504SOL     OW38408  10.211   0.557   4.356
45504SOL    HW138409  10.263   0.501   4.297
45504SOL    HW238410  10.262   0.561   4.437
45505SOL     OW38411   3.028  14.576  10.461
45505SOL    HW138412   2.977  14.597  10.539
45505SOL    HW238413   3.098  14.520  10.492
45506SOL     OW38414  11.113  11.833  12.657
45506SOL    HW138415  11.101  11.928  12.655
45506SOL    HW238416  11.091  11.804  12.569
45507SOL     OW38417   5.847  13.769   8.143
45507SOL    HW138418   5.832  13.710   8.069
45507SOL    HW238419   5.941  13.764   8.159
45508SOL     OW38420   8.435   5.953  12.002
45508SOL    HW138421   8.393   6.029  12.041
45508SOL    HW238422   8.491   5.989  11.933
45509SOL     OW38423   7.290   1.439   8.910
45509SOL    HW138424   7.199   1.411   8.903
45509SOL    HW238425   7.337   1.388   8.844
45510SOL     OW38426   3.937   4.732  12.108
45510SOL    HW138427   3.898   4.645  12.113
45510SOL    HW238428   4.020   4.718  12.064
45511SOL     OW38429   5.629  13.781   9.111
45511SOL    HW138430   5.692  13.838   9.066
45511SOL    HW238431   5.558  13.769   9.048
45512SOL     OW38432  11.775  13.891   7.852
45512SOL    HW138433  11.823  13.915   7.773
45512SOL    HW238434  11.714  13.823   7.822
45513SOL     OW38435  14.056   0.176   0.555
45513SOL    HW138436  14.033   0.267   0.574
45513SOL    HW238437  14.150   0.171   0.575
45514SOL     OW38438   7.369   4.216   6.120
45514SOL    HW138439   7.362   4.277   6.046
45514SOL    HW238440   7.444   4.161   6.098
45515SOL     OW38441   2.472   8.548   6.068
45515SOL    HW138442   2.418   8.611   6.115
45515SOL    HW238443   2.485   8.586   5.981
45516SOL     OW38444  14.234   0.680   1.150
45516SOL    HW138445  14.219   0.768   1.116
45516SOL    HW238446  14.326   0.680   1.177
45517SOL     OW38447  13.179   7.909   5.909
45517SOL    HW138448  13.161   8.002   5.923
45517SOL    HW238449  13.104   7.878   5.858
45518SOL     OW38450   6.108   3.197   2.913
45518SOL    HW138451   6.072   3.246   2.987
45518SOL    HW238452   6.190   3.160   2.946
45519SOL     OW38453  11.774  10.147  12.405
45519SOL    HW138454  11.718  10.210  12.453
45519SOL    HW238455  11.723  10.066  12.404
45520SOL     OW38456  14.780   0.636  14.094
45520SOL    HW138457  14.859   0.593  14.128
45520SOL    HW238458  14.723   0.564  14.067
45521SOL     OW38459   3.863   2.579   0.648
45521SOL    HW138460   3.898   2.492   0.664
45521SOL    HW238461   3.940   2.635   0.636
45522SOL     OW38462   5.105   4.718  13.960
45522SOL    HW138463   5.061   4.800  13.938
45522SOL    HW238464   5.045   4.673  14.019
45523SOL     OW38465   8.277   6.944  13.602
45523SOL    HW138466   8.291   7.038  13.585
45523SOL    HW238467   8.235   6.912  13.522
45524SOL     OW38468   8.916   0.114   5.880
45524SOL    HW138469   8.844   0.168   5.848
45524SOL    HW238470   8.989   0.134   5.822
45525SOL     OW38471  13.590   6.502  11.191
45525SOL    HW138472  13.651   6.562  11.148
45525SOL    HW238473  13.582   6.429  11.129
45526SOL     OW38474  13.009   4.876   6.285
45526SOL    HW138475  13.085   4.833   6.324
45526SOL    HW238476  12.936   4.818   6.308
45527SOL     OW38477   5.596   5.100   2.099
45527SOL    HW138478   5.662   5.060   2.156
45527SOL    HW238479   5.600   5.194   2.119
45528SOL     OW38480  13.591   9.900   8.727
45528SOL    HW138481  13.498   9.896   8.703
45528SOL    HW238482  13.637   9.907   8.644
45529SOL     OW38483  13.140   1.346   6.714
45529SOL    HW138484  13.097   1.304   6.789
45529SOL    HW238485  13.096   1.430   6.706
45530SOL     OW38486   9.726  13.330   5.275
45530SOL    HW138487   9.665  13.271   5.320
45530SOL    HW238488   9.687  13.344   5.189
45531SOL     OW38489   3.626  10.612  12.155
45531SOL    HW138490   3.687  10.684  12.135
45531SOL    HW238491   3.681  10.533  12.153
45532SOL     OW38492   1.023  14.347   0.808
45532SOL    HW138493   1.103  14.397   0.790
45532SOL    HW238494   0.959  14.413   0.834
45533SOL     OW38495  12.051   8.509  11.459
45533SOL    HW138496  11.988   8.468  11.518
45533SOL    HW238497  12.059   8.599  11.491
45534SOL     OW38498   5.462   2.770   7.159
45534SOL    HW138499   5.553   2.769   7.131
45534SOL    HW238500   5.438   2.863   7.158
45535SOL     OW38501   1.155   1.739  12.228
45535SOL    HW138502   1.233   1.711  12.277
45535SOL    HW238503   1.171   1.831  12.209
45536SOL     OW38504   5.932  12.104  10.009
45536SOL    HW138505   5.900  12.191  10.032
45536SOL    HW238506   5.947  12.108   9.914
45537SOL     OW38507  11.421   7.414  11.861
45537SOL    HW138508  11.448   7.381  11.946
45537SOL    HW238509  11.361   7.486  11.881
45538SOL     OW38510   4.684  10.089   5.314
45538SOL    HW138511   4.720  10.178   5.317
45538SOL    HW238512   4.675  10.063   5.405
45539SOL     OW38513   7.478   8.185   0.126
45539SOL    HW138514   7.520   8.104   0.156
45539SOL    HW238515   7.511   8.198   0.037
45540SOL     OW38516   3.553   7.352   1.064
45540SOL    HW138517   3.488   7.284   1.046
45540SOL    HW238518   3.630   7.304   1.094
45541SOL     OW38519   6.789   5.897   3.629
45541SOL    HW138520   6.838   5.948   3.694
45541SOL    HW238521   6.820   5.807   3.641
45542SOL     OW38522   3.037   4.291   1.787
45542SOL    HW138523   3.021   4.215   1.842
45542SOL    HW238524   3.124   4.321   1.812
45543SOL     OW38525  11.873   0.203  10.883
45543SOL    HW138526  11.849   0.150  10.807
45543SOL    HW238527  11.888   0.291  10.848
45544SOL     OW38528  14.860   7.719   3.222
45544SOL    HW138529   0.028   7.632   3.222
45544SOL    HW238530   0.013   7.758   3.306
45545SOL     OW38531   6.803   2.998   8.732
45545SOL    HW138532   6.774   2.987   8.642
45545SOL    HW238533   6.886   2.951   8.737
45546SOL     OW38534  12.428   7.255   4.058
45546SOL    HW138535  12.404   7.272   4.149
45546SOL    HW238536  12.396   7.166   4.041
45547SOL     OW38537  10.344   9.379   6.296
45547SOL    HW138538  10.286   9.302   6.299
45547SOL    HW238539  10.378   9.387   6.385
45548SOL     OW38540  10.245   9.887   5.502
45548SOL    HW138541  10.265   9.833   5.425
45548SOL    HW238542  10.232   9.824   5.573
45549SOL     OW38543   5.161  13.608   2.683
45549SOL    HW138544   5.225  13.619   2.753
45549SOL    HW238545   5.090  13.668   2.706
45550SOL     OW38546  10.219   5.655   4.940
45550SOL    HW138547  10.149   5.589   4.940
45550SOL    HW238548  10.179   5.732   4.981
45551SOL     OW38549   5.102   3.265  12.057
45551SOL    HW138550   5.105   3.188  12.113
45551SOL    HW238551   5.014   3.264  12.020
45552SOL     OW38552   1.402   2.159  11.890
45552SOL    HW138553   1.349   2.172  11.811
45552SOL    HW238554   1.450   2.241  11.901
45553SOL     OW38555  14.137   4.040   8.842
45553SOL    HW138556  14.204   4.110   8.845
45553SOL    HW238557  14.186   3.961   8.864
45554SOL     OW38558   0.574   3.823   7.702
45554SOL    HW138559   0.602   3.834   7.792
45554SOL    HW238560   0.588   3.730   7.684
45555SOL     OW38561   2.474  12.896   6.806
45555SOL    HW138562   2.405  12.872   6.744
45555SOL    HW238563   2.430  12.952   6.870
45556SOL     OW38564  14.629   0.852  12.486
45556SOL    HW138565  14.610   0.925  12.545
45556SOL    HW238566  14.688   0.889  12.420
45557SOL     OW38567   1.979   1.516   6.251
45557SOL    HW138568   2.017   1.604   6.249
45557SOL    HW238569   1.982   1.490   6.343
45558SOL     OW38570  12.302   2.769   6.628
45558SOL    HW138571  12.309   2.686   6.676
45558SOL    HW238572  12.226   2.757   6.570
45559SOL     OW38573  11.959  12.657  14.858
45559SOL    HW138574  11.906  12.627   0.059
45559SOL    HW238575  12.049  12.633   0.010
45560SOL     OW38576   7.714   2.492   1.836
45560SOL    HW138577   7.750   2.412   1.874
45560SOL    HW238578   7.771   2.562   1.869
45561SOL     OW38579  10.515   4.254   4.667
45561SOL    HW138580  10.488   4.289   4.582
45561SOL    HW238581  10.598   4.211   4.650
45562SOL     OW38582   7.981  13.520   9.865
45562SOL    HW138583   7.931  13.461   9.809
45562SOL    HW238584   7.922  13.544   9.936
45563SOL     OW38585  13.988   1.425  14.706
45563SOL    HW138586  14.076   1.463  14.718
45563SOL    HW238587  13.989   1.392  14.616
45564SOL     OW38588   1.337  12.429   2.026
45564SOL    HW138589   1.278  12.505   2.024
45564SOL    HW238590   1.282  12.355   1.999
45565SOL     OW38591  10.886   8.973   5.059
45565SOL    HW138592  10.896   9.059   5.099
45565SOL    HW238593  10.867   8.991   4.967
45566SOL     OW38594  11.115   3.112  10.651
45566SOL    HW138595  11.137   3.085  10.562
45566SOL    HW238596  11.175   3.185  10.669
45567SOL     OW38597   9.196   7.523   7.751
45567SOL    HW138598   9.286   7.496   7.771
45567SOL    HW238599   9.143   7.479   7.817
45568SOL     OW38600   1.773  11.099   2.386
45568SOL    HW138601   1.860  11.138   2.401
45568SOL    HW238602   1.712  11.168   2.409
45569SOL     OW38603   2.118  10.877   8.969
45569SOL    HW138604   2.042  10.932   8.988
45569SOL    HW238605   2.170  10.879   9.050
45570SOL     OW38606   9.789   0.930   8.326
45570SOL    HW138607   9.847   0.870   8.279
45570SOL    HW238608   9.846   1.001   8.355
45571SOL     OW38609  12.550   8.835  11.015
45571SOL    HW138610  12.524   8.804  10.928
45571SOL    HW238611  12.561   8.754  11.066
45572SOL     OW38612  12.320  11.270   5.504
45572SOL    HW138613  12.264  11.219   5.446
45572SOL    HW238614  12.403  11.277   5.457
45573SOL     OW38615   2.984   5.184   3.191
45573SOL    HW138616   2.969   5.201   3.098
45573SOL    HW238617   2.993   5.271   3.230
45574SOL     OW38618   0.310   9.894  13.122
45574SOL    HW138619   0.244   9.899  13.191
45574SOL    HW238620   0.261   9.873  13.043
45575SOL     OW38621   7.582   0.567  10.129
45575SOL    HW138622   7.560   0.648  10.084
45575SOL    HW238623   7.516   0.559  10.198
45576SOL     OW38624   3.322  12.898   5.226
45576SOL    HW138625   3.418  12.900   5.225
45576SOL    HW238626   3.300  12.808   5.204
45577SOL     OW38627   3.146   7.586   1.556
45577SOL    HW138628   3.051   7.581   1.547
45577SOL    HW238629   3.176   7.618   1.470
45578SOL     OW38630   4.003   8.167   8.754
45578SOL    HW138631   4.054   8.235   8.797
45578SOL    HW238632   3.941   8.138   8.821
45579SOL     OW38633  13.728  10.144  13.186
45579SOL    HW138634  13.671  10.130  13.111
45579SOL    HW238635  13.763  10.057  13.206
45580SOL     OW38636   9.631  14.612  10.516
45580SOL    HW138637   9.557  14.622  10.456
45580SOL    HW238638   9.636  14.518  10.534
45581SOL     OW38639   1.691   1.032  11.587
45581SOL    HW138640   1.681   0.973  11.662
45581SOL    HW238641   1.754   0.988  11.530
45582SOL     OW38642   3.789  10.966   0.005
45582SOL    HW138643   3.845  10.894  14.850
45582SOL    HW238644   3.798  10.970   0.100
45583SOL     OW38645   3.086   3.071   8.783
45583SOL    HW138646   3.158   3.133   8.798
45583SOL    HW238647   3.061   3.042   8.871
45584SOL     OW38648  12.262  12.563   2.642
45584SOL    HW138649  12.356  12.552   2.648
45584SOL    HW238650  12.250  12.630   2.574
45585SOL     OW38651   0.024   8.243  11.839
45585SOL    HW138652   0.108   8.223  11.880
45585SOL    HW238653  14.843   8.279  11.909
45586SOL     OW38654   0.091   9.760  14.449
45586SOL    HW138655   0.067   9.670  14.427
45586SOL    HW238656   0.171   9.752  14.500
45587SOL     OW38657   9.803   9.320   9.391
45587SOL    HW138658   9.790   9.360   9.477
45587SOL    HW238659   9.715   9.309   9.356
45588SOL     OW38660  13.660  12.449  10.736
45588SOL    HW138661  13.638  12.419  10.648
45588SOL    HW238662  13.591  12.411  10.791
45589SOL     OW38663   6.888   2.753   7.563
45589SOL    HW138664   6.915   2.671   7.605
45589SOL    HW238665   6.794   2.745   7.553
45590SOL     OW38666   0.077   3.258   9.780
45590SOL    HW138667   0.034   3.343   9.790
45590SOL    HW238668   0.009   3.201   9.743
45591SOL     OW38669  10.931   8.433   7.453
45591SOL    HW138670  10.961   8.447   7.543
45591SOL    HW238671  10.951   8.516   7.409
45592SOL     OW38672  13.184  13.339  14.452
45592SOL    HW138673  13.274  13.369  14.440
45592SOL    HW238674  13.192  13.243  14.456
45593SOL     OW38675   8.049  14.724   3.016
45593SOL    HW138676   8.008  14.662   2.956
45593SOL    HW238677   8.131  14.749   2.973
45594SOL     OW38678   4.293   0.075  10.230
45594SOL    HW138679   4.221   0.135  10.246
45594SOL    HW238680   4.372   0.125  10.252
45595SOL     OW38681   6.943   3.493  11.835
45595SOL    HW138682   7.007   3.520  11.770
45595SOL    HW238683   6.994   3.448  11.902
45596SOL     OW38684  13.381   5.616  13.616
45596SOL    HW138685  13.434   5.662  13.551
45596SOL    HW238686  13.437   5.612  13.694
45597SOL     OW38687   0.563  11.967   7.884
45597SOL    HW138688   0.510  11.953   7.962
45597SOL    HW238689   0.653  11.951   7.911
45598SOL     OW38690   8.546  13.500   3.033
45598SOL    HW138691   8.569  13.472   2.944
45598SOL    HW238692   8.471  13.446   3.057
45599SOL     OW38693   6.745   2.466  13.928
45599SOL    HW138694   6.774   2.409  13.856
45599SOL    HW238695   6.814   2.531  13.936
45600SOL     OW38696  11.478   8.444   3.641
45600SOL    HW138697  11.420   8.378   3.602
45600SOL    HW238698  11.470   8.429   3.735
45601SOL     OW38699   3.997   1.384   5.244
45601SOL    HW138700   3.910   1.393   5.205
45601SOL    HW238701   4.057   1.389   5.169
45602SOL     OW38702   1.474   0.500   3.642
45602SOL    HW138703   1.384   0.495   3.673
45602SOL    HW238704   1.526   0.516   3.720
45603SOL     OW38705  11.482   6.108   9.887
45603SOL    HW138706  11.391   6.114   9.914
45603SOL    HW238707  11.522   6.048   9.950
45604SOL     OW38708  14.043   9.522   7.922
45604SOL    HW138709  13.987   9.457   7.964
45604SOL    HW238710  14.047   9.495   7.830
45605SOL     OW38711   9.489   3.398   0.429
45605SOL    HW138712   9.544   3.376   0.504
45605SOL    HW238713   9.444   3.316   0.407
45606SOL     OW38714   9.484  11.852   6.526
45606SOL    HW138715   9.503  11.933   6.573
45606SOL    HW238716   9.474  11.879   6.435
45607SOL     OW38717   2.052   8.234   4.827
45607SOL    HW138718   2.029   8.276   4.744
45607SOL    HW238719   1.977   8.249   4.884
45608SOL     OW38720  13.538   6.224   9.287
45608SOL    HW138721  13.504   6.308   9.318
45608SOL    HW238722  13.632   6.239   9.278
45609SOL     OW38723   7.281  12.136   1.441
45609SOL    HW138724   7.329  12.147   1.360
45609SOL    HW238725   7.322  12.197   1.502
45610SOL     OW38726   4.433   7.144   8.469
45610SOL    HW138727   4.454   7.237   8.467
45610SOL    HW238728   4.346   7.138   8.429
45611SOL     OW38729  10.348   6.432   1.148
45611SOL    HW138730  10.275   6.490   1.171
45611SOL    HW238731  10.398   6.422   1.229
45612SOL     OW38732   0.013   0.919   2.284
45612SOL    HW138733   0.070   0.852   2.321
45612SOL    HW238734  14.820   0.936   2.352
45613SOL     OW38735   6.762   3.349   0.627
45613SOL    HW138736   6.728   3.309   0.547
45613SOL    HW238737   6.768   3.442   0.608
45614SOL     OW38738  11.053  11.608  11.139
45614SOL    HW138739  11.010  11.620  11.223
45614SOL    HW238740  11.055  11.513  11.126
45615SOL     OW38741   3.219   0.869  11.998
45615SOL    HW138742   3.216   0.962  12.022
45615SOL    HW238743   3.263   0.826  12.071
45616SOL     OW38744  11.982   0.240  13.826
45616SOL    HW138745  12.023   0.247  13.912
45616SOL    HW238746  12.054   0.216  13.767
45617SOL     OW38747   9.001  10.972  11.180
45617SOL    HW138748   8.971  10.908  11.245
45617SOL    HW238749   9.058  10.923  11.122
45618SOL     OW38750  13.999   1.711   2.769
45618SOL    HW138751  14.058   1.706   2.844
45618SOL    HW238752  14.054   1.741   2.697
45619SOL     OW38753  14.557  12.689   2.519
45619SOL    HW138754  14.540  12.779   2.492
45619SOL    HW238755  14.546  12.637   2.439
45620SOL     OW38756   4.346  12.085   4.782
45620SOL    HW138757   4.418  12.086   4.846
45620SOL    HW238758   4.333  11.993   4.762
45621SOL     OW38759   5.634  14.677  10.278
45621SOL    HW138760   5.656  14.667  10.370
45621SOL    HW238761   5.718  14.684  10.234
45622SOL     OW38762   5.647   1.899  11.987
45622SOL    HW138763   5.666   1.982  11.944
45622SOL    HW238764   5.577   1.860  11.934
45623SOL     OW38765  14.412  11.132   7.370
45623SOL    HW138766  14.506  11.141   7.357
45623SOL    HW238767  14.386  11.214   7.413
45624SOL     OW38768   3.359   1.699  11.367
45624SOL    HW138769   3.292   1.731  11.428
45624SOL    HW238770   3.342   1.748  11.286
45625SOL     OW38771  13.530   1.413   6.527
45625SOL    HW138772  13.553   1.345   6.464
45625SOL    HW238773  13.614   1.441   6.564
45626SOL     OW38774  11.161   2.578   2.378
45626SOL    HW138775  11.147   2.485   2.363
45626SOL    HW238776  11.080   2.620   2.348
45627SOL     OW38777   1.654  11.909  13.102
45627SOL    HW138778   1.688  11.901  13.013
45627SOL    HW238779   1.669  11.823  13.142
45628SOL     OW38780   6.155  12.532   3.875
45628SOL    HW138781   6.216  12.547   3.803
45628SOL    HW238782   6.133  12.619   3.907
45629SOL     OW38783  14.678   8.546   3.315
45629SOL    HW138784  14.593   8.530   3.355
45629SOL    HW238785  14.684   8.641   3.308
45630SOL     OW38786  12.224   5.744   3.053
45630SOL    HW138787  12.253   5.786   3.134
45630SOL    HW238788  12.151   5.689   3.079
45631SOL     OW38789   8.531   5.504  14.684
45631SOL    HW138790   8.489   5.558  14.750
45631SOL    HW238791   8.558   5.565  14.615
45632SOL     OW38792   1.936  12.712   1.058
45632SOL    HW138793   1.983  12.677   1.134
45632SOL    HW238794   1.927  12.637   0.999
45633SOL     OW38795   1.890   8.290  11.420
45633SOL    HW138796   1.810   8.239  11.436
45633SOL    HW238797   1.866   8.349  11.349
45634SOL     OW38798   5.065   0.296  10.106
45634SOL    HW138799   5.099   0.374  10.062
45634SOL    HW238800   5.138   0.267  10.161
45635SOL     OW38801  13.487  12.179   4.790
45635SOL    HW138802  13.416  12.200   4.850
45635SOL    HW238803  13.453  12.205   4.704
45636SOL     OW38804   1.712   5.538  13.225
45636SOL    HW138805   1.715   5.565  13.133
45636SOL    HW238806   1.644   5.593  13.264
45637SOL     OW38807   4.999   5.305   1.125
45637SOL    HW138808   4.966   5.392   1.103
45637SOL    HW238809   5.084   5.300   1.080
45638SOL     OW38810  10.954  14.036   3.519
45638SOL    HW138811  11.046  14.057   3.538
45638SOL    HW238812  10.957  13.986   3.438
45639SOL     OW38813   2.077   3.767   2.590
45639SOL    HW138814   2.148   3.727   2.539
45639SOL    HW238815   2.054   3.701   2.655
45640SOL     OW38816   7.974   4.466   1.318
45640SOL    HW138817   8.001   4.527   1.387
45640SOL    HW238818   7.907   4.514   1.270
45641SOL     OW38819  12.427  10.813   6.078
45641SOL    HW138820  12.399  10.801   5.987
45641SOL    HW238821  12.509  10.765   6.084
45642SOL     OW38822  10.713  11.722   9.677
45642SOL    HW138823  10.807  11.711   9.666
45642SOL    HW238824  10.705  11.785   9.748
45643SOL     OW38825   8.246   7.895   9.620
45643SOL    HW138826   8.189   7.904   9.544
45643SOL    HW238827   8.325   7.943   9.597
45644SOL     OW38828  12.243   3.846  11.822
45644SOL    HW138829  12.209   3.842  11.912
45644SOL    HW238830  12.231   3.937  11.796
45645SOL     OW38831  14.697   4.250   0.618
45645SOL    HW138832  14.630   4.296   0.669
45645SOL    HW238833  14.722   4.312   0.549
45646SOL     OW38834  11.053  11.974   5.283
45646SOL    HW138835  11.024  11.932   5.202
45646SOL    HW238836  10.989  11.947   5.348
45647SOL     OW38837  14.800   5.174  14.832
45647SOL    HW138838  14.839   5.246   0.008
45647SOL    HW238839  14.844   5.096  14.866
45648SOL     OW38840   4.173   8.157   1.541
45648SOL    HW138841   4.103   8.179   1.479
45648SOL    HW238842   4.249   8.205   1.510
45649SOL     OW38843   8.203   4.897   5.627
45649SOL    HW138844   8.268   4.871   5.693
45649SOL    HW238845   8.244   4.969   5.580
45650SOL     OW38846   3.663  12.672   1.669
45650SOL    HW138847   3.725  12.742   1.686
45650SOL    HW238848   3.693  12.632   1.587
45651SOL     OW38849   0.433  14.133   3.736
45651SOL    HW138850   0.409  14.099   3.649
45651SOL    HW238851   0.472  14.057   3.780
45652SOL     OW38852   3.889   5.609  12.823
45652SOL    HW138853   3.812   5.627  12.770
45652SOL    HW238854   3.880   5.517  12.849
45653SOL     OW38855   8.759   8.705   7.359
45653SOL    HW138856   8.805   8.722   7.442
45653SOL    HW238857   8.675   8.668   7.385
45654SOL     OW38858   9.061  13.655   5.448
45654SOL    HW138859   8.998  13.584   5.464
45654SOL    HW238860   9.108  13.664   5.530
45655SOL     OW38861  10.697   1.130   1.460
45655SOL    HW138862  10.753   1.074   1.407
45655SOL    HW238863  10.613   1.085   1.462
45656SOL     OW38864  10.015   9.819   8.765
45656SOL    HW138865   9.982   9.905   8.737
45656SOL    HW238866  10.029   9.829   8.859
45657SOL     OW38867  12.271   5.441   2.700
45657SOL    HW138868  12.210   5.512   2.717
45657SOL    HW238869  12.221   5.361   2.718
45658SOL     OW38870   0.595  12.071  14.612
45658SOL    HW138871   0.667  12.092  14.671
45658SOL    HW238872   0.560  11.988  14.643
45659SOL     OW38873   3.982  10.832   4.524
45659SOL    HW138874   3.940  10.748   4.506
45659SOL    HW238875   3.988  10.875   4.438
45660SOL     OW38876  10.470   5.961   9.521
45660SOL    HW138877  10.495   5.930   9.608
45660SOL    HW238878  10.518   5.905   9.460
45661SOL     OW38879   8.228  13.718  11.342
45661SOL    HW138880   8.284  13.794  11.327
45661SOL    HW238881   8.289  13.650  11.374
45662SOL     OW38882   9.418  14.847   3.327
45662SOL    HW138883   9.465   0.043   3.375
45662SOL    HW238884   9.476  14.825   3.254
45663SOL     OW38885   9.469   6.374   6.423
45663SOL    HW138886   9.401   6.432   6.389
45663SOL    HW238887   9.436   6.286   6.403
45664SOL     OW38888   2.003   6.065   2.189
45664SOL    HW138889   2.067   6.133   2.167
45664SOL    HW238890   2.043   6.016   2.261
45665SOL     OW38891   3.846  13.658   8.116
45665SOL    HW138892   3.885  13.668   8.203
45665SOL    HW238893   3.838  13.747   8.082
45666SOL     OW38894  10.689   8.687   2.336
45666SOL    HW138895  10.671   8.645   2.420
45666SOL    HW238896  10.608   8.678   2.286
45667SOL     OW38897  14.418  11.851   3.362
45667SOL    HW138898  14.428  11.877   3.270
45667SOL    HW238899  14.407  11.933   3.409
45668SOL     OW38900   1.379  13.081   9.965
45668SOL    HW138901   1.306  13.095   9.905
45668SOL    HW238902   1.442  13.030   9.914
45669SOL     OW38903  11.071   4.935   4.602
45669SOL    HW138904  11.111   4.954   4.687
45669SOL    HW238905  11.145   4.926   4.542
45670SOL     OW38906   8.407   4.763  10.823
45670SOL    HW138907   8.396   4.774  10.728
45670SOL    HW238908   8.343   4.696  10.847
45671SOL     OW38909   9.284  10.692  10.405
45671SOL    HW138910   9.282  10.620  10.342
45671SOL    HW238911   9.206  10.678  10.460
45672SOL     OW38912   9.829   5.077   7.951
45672SOL    HW138913   9.807   5.089   8.043
45672SOL    HW238914   9.748   5.044   7.911
45673SOL     OW38915   9.134  11.586   8.214
45673SOL    HW138916   9.123  11.595   8.309
45673SOL    HW238917   9.182  11.505   8.203
45674SOL     OW38918  13.883  11.599   8.772
45674SOL    HW138919  13.864  11.513   8.734
45674SOL    HW238920  13.848  11.662   8.709
45675SOL     OW38921   9.016   2.922   5.957
45675SOL    HW138922   9.055   2.997   5.911
45675SOL    HW238923   9.008   2.854   5.891
45676SOL     OW38924   3.354   7.876   2.799
45676SOL    HW138925   3.307   7.822   2.735
45676SOL    HW238926   3.325   7.842   2.884
45677SOL     OW38927   2.527   0.443   5.790
45677SOL    HW138928   2.468   0.508   5.752
45677SOL    HW238929   2.584   0.493   5.848
45678SOL     OW38930   9.549   9.781   2.347
45678SOL    HW138931   9.455   9.781   2.362
45678SOL    HW238932   9.584   9.719   2.412
45679SOL     OW38933   3.271   8.931   3.455
45679SOL    HW138934   3.361   8.898   3.460
45679SOL    HW238935   3.254   8.965   3.543
45680SOL     OW38936   1.729  14.798   4.770
45680SOL    HW138937   1.758  14.707   4.758
45680SOL    HW238938   1.733  14.837   4.682
45681SOL     OW38939   0.048   6.038   8.252
45681SOL    HW138940   0.073   6.119   8.297
45681SOL    HW238941  14.868   5.990   8.317
45682SOL     OW38942   5.327   3.631  13.564
45682SOL    HW138943   5.292   3.545  13.586
45682SOL    HW238944   5.417   3.615  13.538
45683SOL     OW38945   1.652  13.530   6.250
45683SOL    HW138946   1.640  13.462   6.317
45683SOL    HW238947   1.710  13.490   6.186
45684SOL     OW38948   2.481   2.327   3.231
45684SOL    HW138949   2.484   2.235   3.259
45684SOL    HW238950   2.409   2.331   3.169
45685SOL     OW38951   7.565   5.082  11.199
45685SOL    HW138952   7.653   5.044  11.198
45685SOL    HW238953   7.579   5.175  11.220
45686SOL     OW38954   1.105   4.786  11.789
45686SOL    HW138955   1.147   4.763  11.706
45686SOL    HW238956   1.089   4.702  11.832
45687SOL     OW38957   8.891   2.141   7.830
45687SOL    HW138958   8.820   2.099   7.780
45687SOL    HW238959   8.861   2.140   7.920
45688SOL     OW38960   2.464  11.303   1.870
45688SOL    HW138961   2.373  11.285   1.893
45688SOL    HW238962   2.507  11.316   1.955
45689SOL     OW38963   8.742   5.050  11.859
45689SOL    HW138964   8.646   5.049  11.864
45689SOL    HW238965   8.766   5.142  11.861
45690SOL     OW38966  12.956   3.536   4.227
45690SOL    HW138967  12.888   3.599   4.252
45690SOL    HW238968  12.929   3.454   4.269
45691SOL     OW38969   9.633   5.075   8.955
45691SOL    HW138970   9.687   5.079   8.876
45691SOL    HW238971   9.612   5.166   8.974
45692SOL     OW38972   8.666   3.344   0.101
45692SOL    HW138973   8.701   3.324   0.188
45692SOL    HW238974   8.662   3.440   0.099
45693SOL     OW38975   8.048   9.880  13.567
45693SOL    HW138976   8.006   9.855  13.484
45693SOL    HW238977   7.995   9.952  13.600
45694SOL     OW38978   8.993   5.773   4.603
45694SOL    HW138979   9.083   5.756   4.573
45694SOL    HW238980   8.974   5.703   4.664
45695SOL     OW38981  14.532   2.235   0.368
45695SOL    HW138982  14.452   2.229   0.315
45695SOL    HW238983  14.583   2.305   0.326
45696SOL     OW38984   6.312  12.057   6.782
45696SOL    HW138985   6.286  12.103   6.701
45696SOL    HW238986   6.256  11.979   6.784
45697SOL     OW38987  14.484  12.329  13.241
45697SOL    HW138988  14.508  12.421  13.249
45697SOL    HW238989  14.555  12.291  13.189
45698SOL     OW38990   5.186  12.057   7.514
45698SOL    HW138991   5.102  12.021   7.540
45698SOL    HW238992   5.246  11.982   7.516
45699SOL     OW38993  13.757   4.113   6.203
45699SOL    HW138994  13.772   4.040   6.263
45699SOL    HW238995  13.677   4.090   6.155
45700SOL     OW38996   1.671   8.888   2.888
45700SOL    HW138997   1.599   8.951   2.893
45700SOL    HW238998   1.704   8.897   2.799
45701SOL     OW38999   2.056   7.051   8.330
45701SOL    HW139000   2.115   7.009   8.392
45701SOL    HW239001   1.969   7.040   8.368
45702SOL     OW39002   4.943   3.748  14.317
45702SOL    HW139003   4.981   3.703  14.241
45702SOL    HW239004   4.887   3.816  14.278
45703SOL     OW39005   5.964  10.646   9.791
45703SOL    HW139006   5.938  10.709   9.859
45703SOL    HW239007   6.044  10.606   9.824
45704SOL     OW39008  13.093  14.679   7.637
45704SOL    HW139009  13.011  14.631   7.630
45704SOL    HW239010  13.140  14.635   7.709
45705SOL     OW39011   9.560   8.138   1.315
45705SOL    HW139012   9.520   8.090   1.242
45705SOL    HW239013   9.503   8.214   1.327
45706SOL     OW39014   9.824   6.407   6.282
45706SOL    HW139015   9.730   6.414   6.267
45706SOL    HW239016   9.864   6.425   6.197
45707SOL     OW39017  10.699  10.350   6.557
45707SOL    HW139018  10.785  10.348   6.516
45707SOL    HW239019  10.670  10.441   6.547
45708SOL     OW39020   1.150   8.599   0.304
45708SOL    HW139021   1.183   8.668   0.246
45708SOL    HW239022   1.229   8.556   0.337
45709SOL     OW39023  10.220   2.643   4.562
45709SOL    HW139024  10.244   2.612   4.649
45709SOL    HW239025  10.303   2.663   4.520
45710SOL     OW39026   4.526   0.810   5.146
45710SOL    HW139027   4.457   0.796   5.211
45710SOL    HW239028   4.585   0.735   5.156
45711SOL     OW39029   0.500   6.033   1.076
45711SOL    HW139030   0.462   6.003   1.159
45711SOL    HW239031   0.555   5.960   1.047
45712SOL     OW39032  10.198   5.837   2.517
45712SOL    HW139033  10.154   5.809   2.436
45712SOL    HW239034  10.197   5.933   2.513
45713SOL     OW39035   8.746   4.885  14.770
45713SOL    HW139036   8.689   4.849  14.838
45713SOL    HW239037   8.735   4.827  14.695
45714SOL     OW39038   5.108   4.491   0.457
45714SOL    HW139039   5.050   4.549   0.407
45714SOL    HW239040   5.108   4.409   0.407
45715SOL     OW39041  13.111   1.328   4.975
45715SOL    HW139042  13.127   1.249   4.922
45715SOL    HW239043  13.194   1.343   5.020
45716SOL     OW39044   8.668  10.747  12.808
45716SOL    HW139045   8.576  10.732  12.827
45716SOL    HW239046   8.685  10.836  12.839
45717SOL     OW39047   4.003  11.366   2.497
45717SOL    HW139048   4.064  11.325   2.559
45717SOL    HW239049   3.932  11.399   2.552
45718SOL     OW39050   4.444   7.055  11.214
45718SOL    HW139051   4.532   7.091  11.197
45718SOL    HW239052   4.390   7.132  11.234
45719SOL     OW39053   4.920   6.709  14.802
45719SOL    HW139054   4.922   6.795  14.843
45719SOL    HW239055   5.011   6.689  14.782
45720SOL     OW39056   8.039   9.965   7.062
45720SOL    HW139057   8.011  10.031   6.998
45720SOL    HW239058   7.988   9.984   7.141
45721SOL     OW39059  13.259  11.769  14.464
45721SOL    HW139060  13.177  11.809  14.435
45721SOL    HW239061  13.324  11.798  14.400
45722SOL     OW39062   8.765   5.913   1.857
45722SOL    HW139063   8.780   5.998   1.898
45722SOL    HW239064   8.671   5.900   1.863
45723SOL     OW39065   7.338  11.355  13.541
45723SOL    HW139066   7.307  11.280  13.591
45723SOL    HW239067   7.372  11.415  13.608
45724SOL     OW39068  10.664   0.019  14.787
45724SOL    HW139069  10.647  14.857  14.699
45724SOL    HW239070  10.756  14.870  14.803
45725SOL     OW39071   5.870   0.783   9.555
45725SOL    HW139072   5.837   0.871   9.572
45725SOL    HW239073   5.904   0.753   9.640
45726SOL     OW39074   6.443  12.092   5.683
45726SOL    HW139075   6.445  12.159   5.752
45726SOL    HW239076   6.535  12.074   5.665
45727SOL     OW39077   3.134  13.980   1.978
45727SOL    HW139078   3.203  14.046   1.968
45727SOL    HW239079   3.068  14.004   1.913
45728SOL     OW39080  13.786   3.081  10.306
45728SOL    HW139081  13.842   3.103  10.232
45728SOL    HW239082  13.843   3.093  10.383
45729SOL     OW39083  10.564   2.673  10.049
45729SOL    HW139084  10.491   2.707   9.997
45729SOL    HW239085  10.533   2.676  10.139
45730SOL     OW39086   4.670   3.119  11.782
45730SOL    HW139087   4.644   3.190  11.724
45730SOL    HW239088   4.591   3.067  11.795
45731SOL     OW39089   0.209  12.837   3.337
45731SOL    HW139090   0.266  12.770   3.374
45731SOL    HW239091   0.136  12.842   3.398
45732SOL     OW39092   4.930  12.601   0.675
45732SOL    HW139093   4.963  12.616   0.764
45732SOL    HW239094   5.008  12.606   0.620
45733SOL     OW39095  11.492   4.495  10.847
45733SOL    HW139096  11.560   4.561  10.841
45733SOL    HW239097  11.410   4.543  10.837
45734SOL     OW39098   6.617   2.957  12.782
45734SOL    HW139099   6.547   3.018  12.760
45734SOL    HW239100   6.611   2.946  12.877
45735SOL     OW39101   3.135   6.840   5.684
45735SOL    HW139102   3.152   6.933   5.668
45735SOL    HW239103   3.184   6.795   5.616
45736SOL     OW39104  12.310   8.624  10.238
45736SOL    HW139105  12.295   8.707  10.283
45736SOL    HW239106  12.241   8.619  10.171
45737SOL     OW39107  13.842   2.188  14.316
45737SOL    HW139108  13.883   2.272  14.339
45737SOL    HW239109  13.911   2.123  14.330
45738SOL     OW39110   5.040   6.112   5.787
45738SOL    HW139111   5.040   6.050   5.714
45738SOL    HW239112   5.061   6.059   5.864
45739SOL     OW39113   1.944  12.776   1.808
45739SOL    HW139114   1.862  12.726   1.800
45739SOL    HW239115   2.009  12.711   1.834
45740SOL     OW39116   0.164   1.459   3.206
45740SOL    HW139117   0.239   1.500   3.163
45740SOL    HW239118   0.088   1.505   3.171
45741SOL     OW39119   0.063   0.400  13.538
45741SOL    HW139120   0.008   0.333  13.498
45741SOL    HW239121   0.028   0.409  13.627
45742SOL     OW39122  14.231   7.272   1.535
45742SOL    HW139123  14.279   7.332   1.478
45742SOL    HW239124  14.140   7.280   1.508
45743SOL     OW39125   2.280  11.591   7.776
45743SOL    HW139126   2.350  11.631   7.725
45743SOL    HW239127   2.227  11.665   7.806
45744SOL     OW39128  11.192   8.214  10.980
45744SOL    HW139129  11.189   8.284  11.045
45744SOL    HW239130  11.102   8.181  10.976
45745SOL     OW39131   8.569  12.471  10.130
45745SOL    HW139132   8.557  12.402  10.196
45745SOL    HW239133   8.537  12.433  10.049
45746SOL     OW39134   0.233   6.413   6.230
45746SOL    HW139135   0.177   6.472   6.280
45746SOL    HW239136   0.208   6.325   6.259
45747SOL     OW39137  10.376   9.372   5.819
45747SOL    HW139138  10.421   9.446   5.779
45747SOL    HW239139  10.395   9.298   5.761
45748SOL     OW39140   4.283  10.658  10.196
45748SOL    HW139141   4.349  10.625  10.258
45748SOL    HW239142   4.266  10.748  10.224
45749SOL     OW39143   3.995   9.601   5.327
45749SOL    HW139144   4.021   9.513   5.354
45749SOL    HW239145   4.058   9.659   5.371
45750SOL     OW39146   9.774   0.455  14.264
45750SOL    HW139147   9.806   0.408  14.188
45750SOL    HW239148   9.784   0.394  14.337
45751SOL     OW39149   0.736   3.246   6.218
45751SOL    HW139150   0.770   3.320   6.168
45751SOL    HW239151   0.647   3.233   6.185
45752SOL     OW39152  11.830   5.036  11.373
45752SOL    HW139153  11.901   5.068  11.429
45752SOL    HW239154  11.867   4.960  11.328
45753SOL     OW39155   8.082  10.043   2.050
45753SOL    HW139156   8.054   9.957   2.019
45753SOL    HW239157   8.152  10.069   1.991
45754SOL     OW39158  12.649  13.493   0.554
45754SOL    HW139159  12.583  13.562   0.565
45754SOL    HW239160  12.652  13.449   0.639
45755SOL     OW39161  12.754   1.898  12.578
45755SOL    HW139162  12.836   1.860  12.609
45755SOL    HW239163  12.768   1.993  12.584
45756SOL     OW39164  12.819   8.764   3.697
45756SOL    HW139165  12.913   8.761   3.677
45756SOL    HW239166  12.780   8.809   3.623
45757SOL     OW39167  12.466  13.744   8.067
45757SOL    HW139168  12.502  13.656   8.058
45757SOL    HW239169  12.445  13.752   8.160
45758SOL     OW39170  12.418  12.016   9.860
45758SOL    HW139171  12.386  11.946   9.804
45758SOL    HW239172  12.339  12.055   9.898
45759SOL     OW39173   7.648  14.198  10.409
45759SOL    HW139174   7.632  14.109  10.441
45759SOL    HW239175   7.579  14.212  10.343
45760SOL     OW39176   0.530  13.554  11.097
45760SOL    HW139177   0.539  13.534  11.190
45760SOL    HW239178   0.464  13.492  11.065
45761SOL     OW39179   8.094   2.238  12.740
45761SOL    HW139180   8.009   2.281  12.724
45761SOL    HW239181   8.096   2.223  12.834
45762SOL     OW39182   2.102   6.655   7.384
45762SOL    HW139183   2.045   6.589   7.344
45762SOL    HW239184   2.042   6.719   7.422
45763SOL     OW39185   3.289   3.885   7.608
45763SOL    HW139186   3.263   3.800   7.572
45763SOL    HW239187   3.256   3.884   7.698
45764SOL     OW39188   8.340   7.346   7.235
45764SOL    HW139189   8.398   7.419   7.256
45764SOL    HW239190   8.385   7.269   7.269
45765SOL     OW39191  14.705  10.449   2.952
45765SOL    HW139192  14.743  10.419   2.869
45765SOL    HW239193  14.659  10.530   2.930
45766SOL     OW39194  10.565   6.088  11.707
45766SOL    HW139195  10.573   6.015  11.645
45766SOL    HW239196  10.471   6.095  11.724
45767SOL     OW39197   3.446  11.470   3.321
45767SOL    HW139198   3.506  11.493   3.250
45767SOL    HW239199   3.380  11.414   3.281
45768SOL     OW39200  11.419   3.961  14.779
45768SOL    HW139201  11.369   3.886  14.747
45768SOL    HW239202  11.378   4.037  14.737
45769SOL     OW39203  11.479   5.990   0.398
45769SOL    HW139204  11.495   5.896   0.383
45769SOL    HW239205  11.508   6.005   0.488
45770SOL     OW39206   0.116   7.135   2.416
45770SOL    HW139207   0.187   7.171   2.363
45770SOL    HW239208   0.064   7.083   2.354
45771SOL     OW39209   8.667  10.251   5.807
45771SOL    HW139210   8.647  10.176   5.863
45771SOL    HW239211   8.702  10.213   5.727
45772SOL     OW39212   1.650   0.167   1.577
45772SOL    HW139213   1.614   0.227   1.511
45772SOL    HW239214   1.730   0.210   1.606
45773SOL     OW39215   8.179  11.122  13.226
45773SOL    HW139216   8.137  11.096  13.308
45773SOL    HW239217   8.273  11.118  13.245
45774SOL     OW39218   4.331   4.413  13.664
45774SOL    HW139219   4.342   4.367  13.581
45774SOL    HW239220   4.419   4.416  13.701
45775SOL     OW39221   0.640   2.002   2.824
45775SOL    HW139222   0.572   2.068   2.838
45775SOL    HW239223   0.715   2.035   2.875
45776SOL     OW39224   4.590  12.200   9.528
45776SOL    HW139225   4.539  12.280   9.542
45776SOL    HW239226   4.637  12.186   9.610
45777SOL     OW39227   8.598  10.555   3.900
45777SOL    HW139228   8.553  10.634   3.872
45777SOL    HW239229   8.625  10.573   3.990
45778SOL     OW39230   9.151   6.888   1.449
45778SOL    HW139231   9.182   6.814   1.397
45778SOL    HW239232   9.060   6.902   1.420
45779SOL     OW39233   0.438   2.888   8.994
45779SOL    HW139234   0.348   2.883   9.027
45779SOL    HW239235   0.442   2.820   8.927
45780SOL     OW39236   5.153   7.413   6.655
45780SOL    HW139237   5.208   7.465   6.714
45780SOL    HW239238   5.179   7.323   6.672
45781SOL     OW39239  14.295   3.642  14.282
45781SOL    HW139240  14.243   3.670  14.207
45781SOL    HW239241  14.240   3.576  14.325
45782SOL     OW39242   3.316   5.869   8.261
45782SOL    HW139243   3.250   5.838   8.323
45782SOL    HW239244   3.265   5.906   8.188
45783SOL     OW39245   7.672  13.617  14.661
45783SOL    HW139246   7.736  13.567  14.611
45783SOL    HW239247   7.710  13.704  14.670
45784SOL     OW39248   4.282   9.499   2.812
45784SOL    HW139249   4.351   9.545   2.861
45784SOL    HW239250   4.225   9.569   2.781
45785SOL     OW39251   1.757   0.170   0.090
45785SOL    HW139252   1.742   0.097   0.030
45785SOL    HW239253   1.754   0.131   0.178
45786SOL     OW39254   3.696   3.555   3.762
45786SOL    HW139255   3.745   3.577   3.841
45786SOL    HW239256   3.738   3.608   3.693
45787SOL     OW39257  11.354  11.568   2.508
45787SOL    HW139258  11.281  11.507   2.494
45787SOL    HW239259  11.355  11.621   2.428
45788SOL     OW39260   2.065   2.503   8.012
45788SOL    HW139261   2.108   2.467   8.090
45788SOL    HW239262   2.027   2.428   7.968
45789SOL     OW39263   2.017  11.097   4.373
45789SOL    HW139264   1.987  11.187   4.386
45789SOL    HW239265   2.077  11.081   4.446
45790SOL     OW39266   2.737  11.220  11.685
45790SOL    HW139267   2.694  11.134  11.685
45790SOL    HW239268   2.825  11.203  11.718
45791SOL     OW39269   7.014   9.548  11.762
45791SOL    HW139270   6.962   9.624  11.790
45791SOL    HW239271   6.972   9.474  11.805
45792SOL     OW39272   7.335  13.797   8.287
45792SOL    HW139273   7.348  13.890   8.269
45792SOL    HW239274   7.423  13.764   8.305
45793SOL     OW39275   6.318   7.393   2.166
45793SOL    HW139276   6.231   7.401   2.127
45793SOL    HW239277   6.379   7.410   2.094
45794SOL     OW39278  10.763   3.669   7.660
45794SOL    HW139279  10.738   3.587   7.701
45794SOL    HW239280  10.850   3.688   7.696
45795SOL     OW39281   9.999  13.974   0.390
45795SOL    HW139282   9.919  13.971   0.337
45795SOL    HW239283  10.005  13.886   0.428
45796SOL     OW39284   7.347  12.899  13.002
45796SOL    HW139285   7.414  12.931  12.942
45796SOL    HW239286   7.285  12.853  12.945
45797SOL     OW39287  12.464   2.266  11.729
45797SOL    HW139288  12.545   2.303  11.695
45797SOL    HW239289  12.471   2.273  11.824
45798SOL     OW39290  12.609   3.190  14.569
45798SOL    HW139291  12.604   3.237  14.485
45798SOL    HW239292  12.542   3.122  14.561
45799SOL     OW39293   5.860  12.704  12.390
45799SOL    HW139294   5.868  12.750  12.307
45799SOL    HW239295   5.835  12.615  12.366
45800SOL     OW39296   6.825   9.808   6.585
45800SOL    HW139297   6.834   9.732   6.642
45800SOL    HW239298   6.872   9.783   6.505
45801SOL     OW39299   7.205   6.443  10.116
45801SOL    HW139300   7.235   6.361  10.155
45801SOL    HW239301   7.117   6.456  10.151
45802SOL     OW39302  12.361  13.573   3.844
45802SOL    HW139303  12.356  13.602   3.753
45802SOL    HW239304  12.341  13.479   3.840
45803SOL     OW39305  12.405   8.676  12.293
45803SOL    HW139306  12.370   8.635  12.214
45803SOL    HW239307  12.368   8.625  12.365
45804SOL     OW39308   5.654  12.889   2.291
45804SOL    HW139309   5.583  12.946   2.321
45804SOL    HW239310   5.732  12.922   2.336
45805SOL     OW39311   9.172  12.279   2.530
45805SOL    HW139312   9.155  12.344   2.461
45805SOL    HW239313   9.243  12.225   2.494
45806SOL     OW39314  11.864   9.805   3.508
45806SOL    HW139315  11.833   9.749   3.579
45806SOL    HW239316  11.786   9.827   3.459
45807SOL     OW39317   8.718  13.959   4.154
45807SOL    HW139318   8.753  13.870   4.161
45807SOL    HW239319   8.692  13.967   4.062
45808SOL     OW39320   3.971  13.966   0.528
45808SOL    HW139321   4.005  13.920   0.606
45808SOL    HW239322   3.912  13.902   0.488
45809SOL     OW39323   7.222   7.643   1.080
45809SOL    HW139324   7.140   7.624   1.033
45809SOL    HW239325   7.195   7.696   1.155
45810SOL     OW39326  12.887   5.823   8.605
45810SOL    HW139327  12.927   5.901   8.565
45810SOL    HW239328  12.957   5.785   8.657
45811SOL     OW39329  14.165  11.612   1.592
45811SOL    HW139330  14.247  11.636   1.548
45811SOL    HW239331  14.187  11.534   1.642
45812SOL     OW39332  12.803   5.602   9.881
45812SOL    HW139333  12.828   5.686   9.843
45812SOL    HW239334  12.869   5.540   9.848
45813SOL     OW39335   3.700   3.754   9.467
45813SOL    HW139336   3.692   3.827   9.406
45813SOL    HW239337   3.612   3.717   9.473
45814SOL     OW39338  11.351  12.585   4.087
45814SOL    HW139339  11.426  12.538   4.123
45814SOL    HW239340  11.296  12.516   4.049
45815SOL     OW39341   1.929  12.461   3.422
45815SOL    HW139342   1.946  12.369   3.446
45815SOL    HW239343   1.973  12.512   3.490
45816SOL     OW39344  10.768  14.047  10.758
45816SOL    HW139345  10.779  14.099  10.678
45816SOL    HW239346  10.757  14.112  10.828
45817SOL     OW39347  13.210  11.813   8.584
45817SOL    HW139348  13.182  11.903   8.568
45817SOL    HW239349  13.215  11.806   8.680
45818SOL     OW39350   4.150   8.402   4.375
45818SOL    HW139351   4.123   8.450   4.453
45818SOL    HW239352   4.161   8.470   4.308
45819SOL     OW39353  10.967   1.245  14.358
45819SOL    HW139354  10.897   1.305  14.334
45819SOL    HW239355  10.973   1.183  14.285
45820SOL     OW39356   6.930  12.822   8.212
45820SOL    HW139357   6.877  12.850   8.137
45820SOL    HW239358   7.003  12.774   8.173
45821SOL     OW39359  13.244  12.202  13.324
45821SOL    HW139360  13.259  12.171  13.235
45821SOL    HW239361  13.165  12.256  13.318
45822SOL     OW39362  12.526   1.970  13.529
45822SOL    HW139363  12.462   1.976  13.600
45822SOL    HW239364  12.598   2.026  13.558
45823SOL     OW39365   8.835   3.769   2.449
45823SOL    HW139366   8.746   3.734   2.452
45823SOL    HW239367   8.852   3.784   2.356
45824SOL     OW39368   0.344  12.727   3.579
45824SOL    HW139369   0.285  12.773   3.639
45824SOL    HW239370   0.368  12.648   3.626
45825SOL     OW39371  13.801   5.732   7.344
45825SOL    HW139372  13.756   5.694   7.268
45825SOL    HW239373  13.730   5.771   7.397
45826SOL     OW39374   6.989   4.735   7.405
45826SOL    HW139375   7.076   4.747   7.367
45826SOL    HW239376   6.948   4.667   7.352
45827SOL     OW39377   1.467   2.439   9.103
45827SOL    HW139378   1.470   2.497   9.179
45827SOL    HW239379   1.472   2.498   9.027
45828SOL     OW39380  11.947  14.467   7.654
45828SOL    HW139381  12.004  14.449   7.579
45828SOL    HW239382  11.871  14.410   7.640
45829SOL     OW39383   1.597   6.317   2.280
45829SOL    HW139384   1.630   6.355   2.362
45829SOL    HW239385   1.589   6.224   2.298
45830SOL     OW39386   5.912   8.154   6.069
45830SOL    HW139387   5.970   8.156   5.993
45830SOL    HW239388   5.830   8.192   6.037
45831SOL     OW39389   8.546  11.892   6.375
45831SOL    HW139390   8.548  11.987   6.362
45831SOL    HW239391   8.628  11.861   6.337
45832SOL     OW39392   0.838  13.322   5.415
45832SOL    HW139393   0.869  13.375   5.488
45832SOL    HW239394   0.743  13.316   5.429
45833SOL     OW39395  14.248   0.721  13.395
45833SOL    HW139396  14.202   0.648  13.436
45833SOL    HW239397  14.179   0.784  13.374
45834SOL     OW39398   4.262   6.295  14.413
45834SOL    HW139399   4.207   6.232  14.368
45834SOL    HW239400   4.352   6.269  14.393
45835SOL     OW39401  12.225  12.941  13.889
45835SOL    HW139402  12.316  12.970  13.887
45835SOL    HW239403  12.186  12.990  13.962
45836SOL     OW39404  11.622  13.775   8.525
45836SOL    HW139405  11.642  13.768   8.618
45836SOL    HW239406  11.533  13.808   8.522
45837SOL     OW39407   6.133   4.979   6.043
45837SOL    HW139408   6.194   5.005   6.112
45837SOL    HW239409   6.147   5.043   5.973
45838SOL     OW39410  14.335   1.350   4.951
45838SOL    HW139411  14.347   1.258   4.974
45838SOL    HW239412  14.258   1.351   4.895
45839SOL     OW39413  11.309   9.191   9.194
45839SOL    HW139414  11.290   9.139   9.271
45839SOL    HW239415  11.392   9.156   9.161
45840SOL     OW39416  10.539  11.116   1.784
45840SOL    HW139417  10.448  11.126   1.812
45840SOL    HW239418  10.578  11.202   1.798
45841SOL     OW39419  11.296   3.659   0.648
45841SOL    HW139420  11.209   3.689   0.674
45841SOL    HW239421  11.353   3.684   0.721
45842SOL     OW39422   4.967   7.863   8.325
45842SOL    HW139423   4.872   7.878   8.322
45842SOL    HW239424   4.980   7.786   8.271
45843SOL     OW39425   6.364   4.985   1.253
45843SOL    HW139426   6.403   5.070   1.234
45843SOL    HW239427   6.436   4.932   1.287
45844SOL     OW39428   1.354   3.724  13.804
45844SOL    HW139429   1.347   3.683  13.891
45844SOL    HW239430   1.296   3.672  13.749
45845SOL     OW39431  12.406   1.092  14.126
45845SOL    HW139432  12.494   1.075  14.159
45845SOL    HW239433  12.348   1.049  14.189
45846SOL     OW39434  12.328   5.714  10.045
45846SOL    HW139435  12.246   5.763  10.047
45846SOL    HW239436  12.341   5.684  10.135
45847SOL     OW39437   1.713  11.811   7.216
45847SOL    HW139438   1.665  11.848   7.142
45847SOL    HW239439   1.791  11.866   7.223
45848SOL     OW39440  11.909   0.835   5.662
45848SOL    HW139441  11.940   0.766   5.604
45848SOL    HW239442  11.837   0.876   5.614
45849SOL     OW39443   9.259   9.938   1.653
45849SOL    HW139444   9.191   9.997   1.620
45849SOL    HW239445   9.276   9.878   1.581
45850SOL     OW39446  12.782  12.690   7.789
45850SOL    HW139447  12.809  12.621   7.729
45850SOL    HW239448  12.719  12.742   7.738
45851SOL     OW39449  13.093  12.882  13.812
45851SOL    HW139450  13.081  12.898  13.718
45851SOL    HW239451  13.146  12.803  13.816
45852SOL     OW39452   1.587   1.112   3.512
45852SOL    HW139453   1.574   1.095   3.605
45852SOL    HW239454   1.600   1.206   3.505
45853SOL     OW39455   5.481  11.087   0.672
45853SOL    HW139456   5.450  11.018   0.613
45853SOL    HW239457   5.403  11.136   0.696
45854SOL     OW39458   3.612   8.312   9.246
45854SOL    HW139459   3.648   8.373   9.311
45854SOL    HW239460   3.517   8.323   9.254
45855SOL     OW39461   7.605   2.544   4.649
45855SOL    HW139462   7.663   2.586   4.586
45855SOL    HW239463   7.650   2.553   4.733
45856SOL     OW39464  10.515   4.682   9.785
45856SOL    HW139465  10.540   4.644   9.701
45856SOL    HW239466  10.479   4.768   9.762
45857SOL     OW39467   2.791   8.905  13.321
45857SOL    HW139468   2.797   8.857  13.404
45857SOL    HW239469   2.703   8.942  13.321
45858SOL     OW39470   8.998   0.956   3.337
45858SOL    HW139471   9.025   0.865   3.350
45858SOL    HW239472   9.048   1.005   3.401
45859SOL     OW39473   9.099   1.318   1.852
45859SOL    HW139474   9.037   1.330   1.781
45859SOL    HW239475   9.087   1.394   1.909
45860SOL     OW39476   8.761   9.238   3.557
45860SOL    HW139477   8.704   9.308   3.590
45860SOL    HW239478   8.849   9.277   3.559
45861SOL     OW39479   9.502  13.740   6.388
45861SOL    HW139480   9.491  13.647   6.409
45861SOL    HW239481   9.425  13.783   6.427
45862SOL     OW39482  13.938   0.208   9.543
45862SOL    HW139483  13.920   0.138   9.606
45862SOL    HW239484  13.899   0.286   9.582
45863SOL     OW39485   4.655   7.444  11.758
45863SOL    HW139486   4.706   7.519  11.727
45863SOL    HW239487   4.635   7.394  11.679
45864SOL     OW39488   2.826   4.485   8.317
45864SOL    HW139489   2.859   4.414   8.263
45864SOL    HW239490   2.737   4.457   8.341
45865SOL     OW39491  14.770   8.517   8.717
45865SOL    HW139492  14.794   8.588   8.776
45865SOL    HW239493  14.761   8.559   8.631
45866SOL     OW39494   4.545   2.538  13.500
45866SOL    HW139495   4.498   2.484  13.435
45866SOL    HW239496   4.479   2.557  13.567
45867SOL     OW39497  12.469   5.132   8.889
45867SOL    HW139498  12.461   5.064   8.822
45867SOL    HW239499  12.412   5.103   8.960
45868SOL     OW39500   9.750   2.624  12.050
45868SOL    HW139501   9.835   2.629  12.092
45868SOL    HW239502   9.749   2.540  12.005
45869SOL     OW39503   1.252  14.617  12.830
45869SOL    HW139504   1.317  14.654  12.770
45869SOL    HW239505   1.208  14.693  12.867
45870SOL     OW39506  12.374  10.345   1.197
45870SOL    HW139507  12.307  10.343   1.128
45870SOL    HW239508  12.379  10.254   1.228
45871SOL     OW39509   4.099   1.230  13.404
45871SOL    HW139510   4.183   1.268  13.431
45871SOL    HW239511   4.077   1.275  13.323
45872SOL     OW39512   7.245   6.057  13.420
45872SOL    HW139513   7.242   6.073  13.515
45872SOL    HW239514   7.213   6.138  13.381
45873SOL     OW39515  10.539   6.698   5.074
45873SOL    HW139516  10.625   6.723   5.041
45873SOL    HW239517  10.485   6.777   5.063
45874SOL     OW39518   9.351   5.586  12.108
45874SOL    HW139519   9.446   5.588  12.123
45874SOL    HW239520   9.314   5.627  12.186
45875SOL     OW39521   6.528   4.329  11.250
45875SOL    HW139522   6.579   4.350  11.328
45875SOL    HW239523   6.474   4.407  11.235
45876SOL     OW39524   4.458   4.828   8.427
45876SOL    HW139525   4.469   4.892   8.498
45876SOL    HW239526   4.534   4.771   8.435
45877SOL     OW39527  14.721  11.166   9.164
45877SOL    HW139528  14.718  11.074   9.136
45877SOL    HW239529  14.634  11.200   9.142
45878SOL     OW39530   4.612   3.140  11.298
45878SOL    HW139531   4.686   3.089  11.332
45878SOL    HW239532   4.635   3.231  11.317
45879SOL     OW39533   8.890   3.553   5.321
45879SOL    HW139534   8.905   3.597   5.405
45879SOL    HW239535   8.924   3.465   5.333
45880SOL     OW39536   4.368   2.294  10.797
45880SOL    HW139537   4.294   2.238  10.818
45880SOL    HW239538   4.368   2.360  10.866
45881SOL     OW39539  10.432   6.169   3.251
45881SOL    HW139540  10.455   6.114   3.176
45881SOL    HW239541  10.368   6.117   3.300
45882SOL     OW39542   9.871  12.626  13.210
45882SOL    HW139543   9.787  12.587  13.233
45882SOL    HW239544   9.847  12.707  13.163
45883SOL     OW39545  13.134  11.245   4.100
45883SOL    HW139546  13.118  11.319   4.041
45883SOL    HW239547  13.072  11.178   4.072
45884SOL     OW39548   5.132   6.746   2.613
45884SOL    HW139549   5.218   6.772   2.581
45884SOL    HW239550   5.107   6.671   2.559
45885SOL     OW39551   9.557   9.445   9.898
45885SOL    HW139552   9.514   9.432   9.982
45885SOL    HW239553   9.558   9.358   9.859
45886SOL     OW39554   2.677  12.827  12.749
45886SOL    HW139555   2.622  12.750  12.731
45886SOL    HW239556   2.757  12.791  12.787
45887SOL     OW39557  11.619   7.307   4.907
45887SOL    HW139558  11.529   7.316   4.938
45887SOL    HW239559  11.673   7.342   4.978
45888SOL     OW39560  12.098  10.464   7.710
45888SOL    HW139561  12.083  10.406   7.785
45888SOL    HW239562  12.170  10.520   7.737
45889SOL     OW39563   2.191   6.055  13.331
45889SOL    HW139564   2.181   6.150  13.322
45889SOL    HW239565   2.108   6.026  13.369
45890SOL     OW39566   9.715  14.033  14.119
45890SOL    HW139567   9.644  14.031  14.054
45890SOL    HW239568   9.743  14.124  14.121
45891SOL     OW39569  12.658  12.804   7.584
45891SOL    HW139570  12.580  12.777   7.537
45891SOL    HW239571  12.651  12.899   7.590
45892SOL     OW39572  14.401  10.640  11.329
45892SOL    HW139573  14.431  10.719  11.372
45892SOL    HW239574  14.468  10.575  11.348
45893SOL     OW39575   6.006   4.267   9.158
45893SOL    HW139576   5.951   4.313   9.094
45893SOL    HW239577   6.095   4.294   9.136
45894SOL     OW39578   8.113   8.572   0.912
45894SOL    HW139579   8.166   8.648   0.884
45894SOL    HW239580   8.114   8.514   0.836
45895SOL     OW39581  10.147   2.486  11.398
45895SOL    HW139582  10.202   2.417  11.435
45895SOL    HW239583  10.087   2.440  11.339
45896SOL     OW39584   6.426   4.423   3.149
45896SOL    HW139585   6.508   4.429   3.198
45896SOL    HW239586   6.359   4.407   3.215
45897SOL     OW39587   7.050   0.369   5.023
45897SOL    HW139588   7.129   0.340   5.069
45897SOL    HW239589   7.005   0.424   5.087
45898SOL     OW39590   9.725   4.880  13.726
45898SOL    HW139591   9.675   4.936  13.785
45898SOL    HW239592   9.756   4.939  13.657
45899SOL     OW39593  13.584   0.855   6.071
45899SOL    HW139594  13.674   0.853   6.102
45899SOL    HW239595  13.573   0.772   6.024
45900SOL     OW39596   8.996   5.023  13.938
45900SOL    HW139597   8.992   5.096  13.999
45900SOL    HW239598   9.042   4.954  13.985
45901SOL     OW39599   6.200   9.681   7.211
45901SOL    HW139600   6.276   9.678   7.270
45901SOL    HW239601   6.234   9.718   7.130
45902SOL     OW39602   8.954   9.014   4.220
45902SOL    HW139603   8.874   9.059   4.243
45902SOL    HW239604   8.930   8.960   4.144
45903SOL     OW39605   4.921   4.096  10.002
45903SOL    HW139606   4.873   4.082  10.083
45903SOL    HW239607   4.990   4.158  10.025
45904SOL     OW39608  13.384   3.674   1.077
45904SOL    HW139609  13.376   3.708   0.988
45904SOL    HW239610  13.294   3.654   1.103
45905SOL     OW39611   0.181   7.244   5.824
45905SOL    HW139612   0.120   7.212   5.890
45905SOL    HW239613   0.243   7.172   5.812
45906SOL     OW39614   4.390  13.027   5.513
45906SOL    HW139615   4.367  13.118   5.494
45906SOL    HW239616   4.485  13.026   5.514
45907SOL     OW39617  10.273   8.197   0.112
45907SOL    HW139618  10.208   8.205   0.182
45907SOL    HW239619  10.284   8.102   0.101
45908SOL     OW39620   5.908   2.972  14.658
45908SOL    HW139621   5.938   3.058  14.687
45908SOL    HW239622   5.926   2.971  14.564
45909SOL     OW39623   1.491   3.340   1.714
45909SOL    HW139624   1.557   3.303   1.655
45909SOL    HW239625   1.448   3.408   1.661
45910SOL     OW39626  10.956   5.966  12.314
45910SOL    HW139627  10.909   6.047  12.291
45910SOL    HW239628  10.999   5.987  12.397
45911SOL     OW39629  13.405  10.422   8.983
45911SOL    HW139630  13.483  10.474   8.963
45911SOL    HW239631  13.414  10.344   8.929
45912SOL     OW39632   8.152   7.220   0.293
45912SOL    HW139633   8.073   7.224   0.347
45912SOL    HW239634   8.153   7.304   0.246
45913SOL     OW39635   8.705   7.672   0.998
45913SOL    HW139636   8.627   7.675   0.942
45913SOL    HW239637   8.670   7.670   1.087
45914SOL     OW39638   5.817  14.418  10.395
45914SOL    HW139639   5.878  14.487  10.369
45914SOL    HW239640   5.759  14.407  10.320
45915SOL     OW39641   8.562   6.447   8.534
45915SOL    HW139642   8.549   6.428   8.441
45915SOL    HW239643   8.532   6.368   8.579
45916SOL     OW39644   8.541   2.897   3.127
45916SOL    HW139645   8.600   2.896   3.052
45916SOL    HW239646   8.463   2.851   3.097
45917SOL     OW39647   4.396  14.669  11.274
45917SOL    HW139648   4.491  14.681  11.274
45917SOL    HW239649   4.361  14.753  11.244
45918SOL     OW39650  11.961   9.972   6.134
45918SOL    HW139651  12.001   9.940   6.215
45918SOL    HW239652  11.875  10.005   6.161
45919SOL     OW39653   4.812  12.522   8.844
45919SOL    HW139654   4.885  12.486   8.895
45919SOL    HW239655   4.790  12.603   8.889
45920SOL     OW39656   3.112  10.120   1.290
45920SOL    HW139657   3.129  10.078   1.206
45920SOL    HW239658   3.198  10.134   1.328
45921SOL     OW39659   5.193   8.613   1.279
45921SOL    HW139660   5.114   8.561   1.270
45921SOL    HW239661   5.165   8.692   1.325
45922SOL     OW39662   3.738  14.706   6.612
45922SOL    HW139663   3.772  14.719   6.701
45922SOL    HW239664   3.664  14.646   6.623
45923SOL     OW39665   6.812  13.812   3.431
45923SOL    HW139666   6.833  13.789   3.340
45923SOL    HW239667   6.747  13.747   3.458
45924SOL     OW39668   3.758   1.088   6.673
45924SOL    HW139669   3.780   1.013   6.618
45924SOL    HW239670   3.836   1.144   6.670
45925SOL     OW39671   9.879   6.014   0.064
45925SOL    HW139672   9.967   5.979   0.073
45925SOL    HW239673   9.831   5.948   0.014
45926SOL     OW39674   1.564   7.346  11.435
45926SOL    HW139675   1.560   7.435  11.399
45926SOL    HW239676   1.630   7.350  11.503
45927SOL     OW39677   4.897  14.358  12.114
45927SOL    HW139678   4.883  14.452  12.122
45927SOL    HW239679   4.964  14.338  12.179
45928SOL     OW39680   0.027   3.990  12.815
45928SOL    HW139681   0.114   4.005  12.779
45928SOL    HW239682  14.851   4.070  12.794
45929SOL     OW39683   7.849  11.185   7.157
45929SOL    HW139684   7.857  11.223   7.245
45929SOL    HW239685   7.779  11.120   7.165
45930SOL     OW39686   1.595   4.997   7.669
45930SOL    HW139687   1.673   4.942   7.678
45930SOL    HW239688   1.629   5.082   7.643
45931SOL     OW39689   7.659   5.590   7.127
45931SOL    HW139690   7.732   5.640   7.165
45931SOL    HW239691   7.623   5.648   7.060
45932SOL     OW39692   4.165  13.537  12.087
45932SOL    HW139693   4.086  13.554  12.138
45932SOL    HW239694   4.166  13.606  12.021
45933SOL     OW39695   2.915  13.121   0.125
45933SOL    HW139696   2.858  13.045   0.141
45933SOL    HW239697   2.869  13.194   0.167
45934SOL     OW39698   6.826   8.250  10.945
45934SOL    HW139699   6.846   8.172  10.997
45934SOL    HW239700   6.743   8.282  10.981
45935SOL     OW39701  11.323   7.035   3.388
45935SOL    HW139702  11.409   7.077   3.393
45935SOL    HW239703  11.292   7.055   3.299
45936SOL     OW39704  14.664   6.556   5.351
45936SOL    HW139705  14.693   6.629   5.297
45936SOL    HW239706  14.660   6.482   5.290
45937SOL     OW39707   1.277   7.535   6.842
45937SOL    HW139708   1.281   7.553   6.749
45937SOL    HW239709   1.327   7.454   6.854
45938SOL     OW39710   5.350   2.332   5.924
45938SOL    HW139711   5.375   2.423   5.937
45938SOL    HW239712   5.254   2.334   5.923
45939SOL     OW39713   5.960  10.642   8.666
45939SOL    HW139714   5.875  10.687   8.667
45939SOL    HW239715   6.007  10.679   8.741
45940SOL     OW39716   2.755   2.893   4.468
45940SOL    HW139717   2.694   2.907   4.395
45940SOL    HW239718   2.756   2.798   4.480
45941SOL     OW39719   0.419   3.955  10.955
45941SOL    HW139720   0.377   3.955  11.041
45941SOL    HW239721   0.350   3.983  10.894
45942SOL     OW39722   0.710   4.607   3.102
45942SOL    HW139723   0.661   4.621   3.021
45942SOL    HW239724   0.668   4.531   3.143
45943SOL     OW39725   1.815   1.133   6.331
45943SOL    HW139726   1.759   1.136   6.253
45943SOL    HW239727   1.754   1.125   6.404
45944SOL     OW39728   0.282   9.790   2.925
45944SOL    HW139729   0.354   9.853   2.927
45944SOL    HW239730   0.203   9.844   2.914
45945SOL     OW39731   3.275  11.055  10.166
45945SOL    HW139732   3.262  10.987  10.232
45945SOL    HW239733   3.339  11.018  10.105
45946SOL     OW39734   1.058   8.482  13.671
45946SOL    HW139735   1.144   8.491  13.628
45946SOL    HW239736   1.000   8.537  13.618
45947SOL     OW39737   6.534   3.366   1.350
45947SOL    HW139738   6.552   3.428   1.279
45947SOL    HW239739   6.530   3.281   1.307
45948SOL     OW39740   4.128   6.651   1.391
45948SOL    HW139741   4.200   6.656   1.328
45948SOL    HW239742   4.167   6.609   1.468
45949SOL     OW39743   2.935   4.951   7.796
45949SOL    HW139744   2.879   4.927   7.722
45949SOL    HW239745   3.015   4.900   7.783
45950SOL     OW39746  13.959   6.605   9.375
45950SOL    HW139747  13.979   6.515   9.350
45950SOL    HW239748  14.034   6.656   9.345
45951SOL     OW39749   4.361  13.397   4.329
45951SOL    HW139750   4.303  13.472   4.336
45951SOL    HW239751   4.397  13.386   4.417
45952SOL     OW39752  11.971   4.961   8.141
45952SOL    HW139753  12.045   4.901   8.158
45952SOL    HW239754  11.894   4.905   8.146
45953SOL     OW39755   5.657  10.393   7.965
45953SOL    HW139756   5.708  10.381   8.046
45953SOL    HW239757   5.722  10.401   7.896
45954SOL     OW39758   0.472   7.628  10.398
45954SOL    HW139759   0.398   7.687  10.413
45954SOL    HW239760   0.494   7.595  10.485
45955SOL     OW39761  12.270   2.301  13.041
45955SOL    HW139762  12.308   2.217  13.018
45955SOL    HW239763  12.192   2.308  12.986
45956SOL     OW39764   5.865   8.651   4.850
45956SOL    HW139765   5.929   8.672   4.783
45956SOL    HW239766   5.871   8.723   4.913
45957SOL     OW39767  11.098   4.833   2.550
45957SOL    HW139768  11.155   4.874   2.615
45957SOL    HW239769  11.157   4.801   2.482
45958SOL     OW39770   7.832   1.400   1.375
45958SOL    HW139771   7.783   1.462   1.321
45958SOL    HW239772   7.765   1.342   1.413
45959SOL     OW39773  11.469  10.763   0.812
45959SOL    HW139774  11.427  10.816   0.880
45959SOL    HW239775  11.413  10.685   0.805
45960SOL     OW39776   6.280  13.615   6.070
45960SOL    HW139777   6.361  13.605   6.119
45960SOL    HW239778   6.218  13.556   6.114
45961SOL     OW39779   5.661   5.819  10.844
45961SOL    HW139780   5.684   5.912  10.846
45961SOL    HW239781   5.571   5.816  10.877
45962SOL     OW39782  12.785   6.589  11.841
45962SOL    HW139783  12.779   6.542  11.924
45962SOL    HW239784  12.854   6.654  11.855
45963SOL     OW39785   9.638   8.060   5.753
45963SOL    HW139786   9.633   7.965   5.740
45963SOL    HW239787   9.553   8.093   5.723
45964SOL     OW39788  10.276   4.197   5.422
45964SOL    HW139789  10.192   4.224   5.459
45964SOL    HW239790  10.291   4.255   5.348
45965SOL     OW39791  11.015  11.304   5.309
45965SOL    HW139792  10.955  11.369   5.344
45965SOL    HW239793  10.966  11.222   5.312
45966SOL     OW39794  10.281  12.380   1.619
45966SOL    HW139795  10.271  12.432   1.539
45966SOL    HW239796  10.308  12.444   1.686
45967SOL     OW39797  11.411   3.014  13.999
45967SOL    HW139798  11.349   2.942  14.014
45967SOL    HW239799  11.402   3.070  14.077
45968SOL     OW39800   7.398   6.163   7.770
45968SOL    HW139801   7.328   6.226   7.753
45968SOL    HW239802   7.399   6.106   7.693
45969SOL     OW39803  11.202   9.228  11.440
45969SOL    HW139804  11.184   9.296  11.505
45969SOL    HW239805  11.170   9.265  11.357
45970SOL     OW39806   1.794  10.860  11.124
45970SOL    HW139807   1.889  10.855  11.120
45970SOL    HW239808   1.774  10.864  11.218
45971SOL     OW39809  11.351  10.237   4.451
45971SOL    HW139810  11.361  10.181   4.528
45971SOL    HW239811  11.383  10.183   4.379
45972SOL     OW39812   8.488  12.451   7.402
45972SOL    HW139813   8.512  12.426   7.491
45972SOL    HW239814   8.570  12.447   7.353
45973SOL     OW39815   4.568  13.578   2.617
45973SOL    HW139816   4.657  13.542   2.626
45973SOL    HW239817   4.542  13.553   2.528
45974SOL     OW39818  12.902   0.784   5.690
45974SOL    HW139819  12.997   0.777   5.684
45974SOL    HW239820  12.869   0.725   5.622
45975SOL     OW39821   6.787   1.484  13.066
45975SOL    HW139822   6.754   1.524  12.985
45975SOL    HW239823   6.757   1.393  13.062
45976SOL     OW39824  14.004   7.535   5.418
45976SOL    HW139825  14.036   7.480   5.346
45976SOL    HW239826  14.001   7.477   5.494
45977SOL     OW39827   5.512   0.596   3.902
45977SOL    HW139828   5.423   0.601   3.866
45977SOL    HW239829   5.532   0.685   3.929
45978SOL     OW39830   1.266  12.068   7.468
45978SOL    HW139831   1.255  12.068   7.373
45978SOL    HW239832   1.339  12.008   7.484
45979SOL     OW39833   6.599  10.164   2.177
45979SOL    HW139834   6.571  10.106   2.106
45979SOL    HW239835   6.587  10.112   2.256
45980SOL     OW39836  14.820   3.895   7.430
45980SOL    HW139837   0.006   3.904   7.355
45980SOL    HW239838  14.762   3.822   7.406
45981SOL     OW39839   1.971   2.171   2.505
45981SOL    HW139840   1.913   2.129   2.441
45981SOL    HW239841   1.912   2.221   2.561
45982SOL     OW39842   8.318   2.169  13.854
45982SOL    HW139843   8.344   2.078  13.838
45982SOL    HW239844   8.398   2.210  13.888
45983SOL     OW39845   2.624  11.609  13.431
45983SOL    HW139846   2.599  11.531  13.479
45983SOL    HW239847   2.541  11.651  13.408
45984SOL     OW39848  13.705   7.271  12.250
45984SOL    HW139849  13.618   7.244  12.221
45984SOL    HW239850  13.707   7.366  12.235
45985SOL     OW39851  13.805   8.577   6.342
45985SOL    HW139852  13.810   8.482   6.333
45985SOL    HW239853  13.779   8.607   6.255
45986SOL     OW39854   0.688  13.021   5.573
45986SOL    HW139855   0.754  13.089   5.589
45986SOL    HW239856   0.715  12.981   5.490
45987SOL     OW39857  12.275  13.787  12.139
45987SOL    HW139858  12.230  13.707  12.113
45987SOL    HW239859  12.205  13.848  12.162
45988SOL     OW39860   5.219  13.939   1.474
45988SOL    HW139861   5.233  13.884   1.397
45988SOL    HW239862   5.246  14.027   1.446
45989SOL     OW39863  11.238  13.727   7.191
45989SOL    HW139864  11.142  13.720   7.195
45989SOL    HW239865  11.262  13.683   7.110
45990SOL     OW39866  14.564   4.151   9.789
45990SOL    HW139867  14.591   4.107   9.708
45990SOL    HW239868  14.611   4.234   9.788
45991SOL     OW39869   7.661   7.308   0.481
45991SOL    HW139870   7.673   7.213   0.479
45991SOL    HW239871   7.613   7.325   0.562
45992SOL     OW39872   5.666  11.714  12.368
45992SOL    HW139873   5.758  11.731  12.391
45992SOL    HW239874   5.621  11.796  12.388
45993SOL     OW39875   4.322   9.884  10.342
45993SOL    HW139876   4.273   9.965  10.357
45993SOL    HW239877   4.295   9.855  10.255
45994SOL     OW39878  10.050   1.253  10.063
45994SOL    HW139879  10.107   1.211   9.999
45994SOL    HW239880  10.064   1.205  10.144
45995SOL     OW39881  14.285   5.370   5.410
45995SOL    HW139882  14.209   5.312   5.412
45995SOL    HW239883  14.321   5.361   5.322
45996SOL     OW39884   0.696   3.499  13.411
45996SOL    HW139885   0.636   3.571  13.429
45996SOL    HW239886   0.757   3.533  13.346
45997SOL     OW39887  13.788   7.046  10.656
45997SOL    HW139888  13.849   7.087  10.718
45997SOL    HW239889  13.706   7.094  10.668
45998SOL     OW39890   2.527   8.286   2.799
45998SOL    HW139891   2.619   8.272   2.823
45998SOL    HW239892   2.504   8.207   2.749
45999SOL     OW39893  13.766   6.169   2.724
45999SOL    HW139894  13.748   6.190   2.816
45999SOL    HW239895  13.823   6.092   2.728
46000SOL     OW39896   7.363   8.787   6.822
46000SOL    HW139897   7.418   8.800   6.899
46000SOL    HW239898   7.375   8.695   6.799
46001SOL     OW39899  10.310  11.456   3.621
46001SOL    HW139900  10.405  11.454   3.632
46001SOL    HW239901  10.292  11.538   3.574
46002SOL     OW39902   4.108  12.257   0.960
46002SOL    HW139903   4.200  12.237   0.978
46002SOL    HW239904   4.063  12.174   0.972
46003SOL     OW39905   3.641   0.437   0.466
46003SOL    HW139906   3.712   0.441   0.530
46003SOL    HW239907   3.576   0.380   0.506
46004SOL     OW39908   0.565   7.912   2.534
46004SOL    HW139909   0.558   7.974   2.461
46004SOL    HW239910   0.497   7.940   2.595
46005SOL     OW39911   0.989   6.742   7.160
46005SOL    HW139912   1.042   6.684   7.215
46005SOL    HW239913   0.945   6.684   7.099
46006SOL     OW39914   7.136  10.762   3.885
46006SOL    HW139915   7.210  10.774   3.944
46006SOL    HW239916   7.117  10.850   3.852
46007SOL     OW39917   9.383  14.012  14.042
46007SOL    HW139918   9.441  13.958  13.987
46007SOL    HW239919   9.376  13.963  14.124
46008SOL     OW39920   9.467   7.362   5.505
46008SOL    HW139921   9.473   7.271   5.475
46008SOL    HW239922   9.528   7.409   5.447
46009SOL     OW39923   4.392   9.484  11.782
46009SOL    HW139924   4.486   9.469  11.777
46009SOL    HW239925   4.383   9.579  11.788
46010SOL     OW39926   4.472  10.239   7.199
46010SOL    HW139927   4.511  10.327   7.196
46010SOL    HW239928   4.415  10.241   7.276
46011SOL     OW39929   9.430  11.386   5.357
46011SOL    HW139930   9.428  11.306   5.304
46011SOL    HW239931   9.339  11.410   5.369
46012SOL     OW39932   4.609  11.163   7.658
46012SOL    HW139933   4.651  11.136   7.576
46012SOL    HW239934   4.676  11.217   7.701
46013SOL     OW39935   3.383  12.085  13.956
46013SOL    HW139936   3.345  12.144  14.021
46013SOL    HW239937   3.363  11.997  13.990
46014SOL     OW39938   6.625   3.073  13.794
46014SOL    HW139939   6.583   3.141  13.742
46014SOL    HW239940   6.555   3.010  13.812
46015SOL     OW39941   9.060   0.705   3.363
46015SOL    HW139942   9.068   0.674   3.454
46015SOL    HW239943   8.995   0.646   3.324
46016SOL     OW39944   0.348  11.073   3.095
46016SOL    HW139945   0.255  11.074   3.072
46016SOL    HW239946   0.384  10.997   3.050
46017SOL     OW39947   1.297   0.571   5.303
46017SOL    HW139948   1.353   0.625   5.248
46017SOL    HW239949   1.227   0.540   5.244
46018SOL     OW39950   8.718  12.444   0.694
46018SOL    HW139951   8.623  12.438   0.682
46018SOL    HW239952   8.729  12.515   0.758
46019SOL     OW39953  11.697  10.965   2.509
46019SOL    HW139954  11.751  10.964   2.430
46019SOL    HW239955  11.760  10.975   2.580
46020SOL     OW39956   7.532   4.275   7.412
46020SOL    HW139957   7.474   4.273   7.336
46020SOL    HW239958   7.473   4.271   7.487
46021SOL     OW39959   4.123  13.053  10.650
46021SOL    HW139960   4.062  13.077  10.721
46021SOL    HW239961   4.103  12.962  10.631
46022SOL     OW39962   8.041   8.602  11.430
46022SOL    HW139963   8.031   8.528  11.370
46022SOL    HW239964   8.129   8.590  11.467
46023SOL     OW39965  10.365   4.867   5.926
46023SOL    HW139966  10.329   4.894   5.842
46023SOL    HW239967  10.313   4.791   5.951
46024SOL     OW39968  10.147  11.766   1.625
46024SOL    HW139969  10.124  11.774   1.717
46024SOL    HW239970  10.226  11.712   1.624
46025SOL     OW39971  12.537   8.666   0.736
46025SOL    HW139972  12.492   8.692   0.816
46025SOL    HW239973  12.490   8.710   0.666
46026SOL     OW39974   5.596   4.877   2.436
46026SOL    HW139975   5.625   4.887   2.527
46026SOL    HW239976   5.677   4.878   2.385
46027SOL     OW39977   7.789   7.300  10.534
46027SOL    HW139978   7.758   7.214  10.562
46027SOL    HW239979   7.810   7.345  10.616
46028SOL     OW39980   7.665   3.554  11.787
46028SOL    HW139981   7.740   3.564  11.729
46028SOL    HW239982   7.704   3.542  11.874
46029SOL     OW39983  12.386  11.413   9.936
46029SOL    HW139984  12.315  11.368   9.981
46029SOL    HW239985  12.343  11.463   9.866
46030SOL     OW39986   8.705   3.736   1.554
46030SOL    HW139987   8.620   3.710   1.519
46030SOL    HW239988   8.694   3.829   1.575
46031SOL     OW39989   7.562  14.855   1.737
46031SOL    HW139990   7.522  14.779   1.778
46031SOL    HW239991   7.589   0.037   1.811
46032SOL     OW39992   7.696   0.980   0.413
46032SOL    HW139993   7.721   0.912   0.475
46032SOL    HW239994   7.605   0.962   0.392
46033SOL     OW39995   3.206  12.957   7.993
46033SOL    HW139996   3.252  13.030   7.953
46033SOL    HW239997   3.172  12.906   7.919
46034SOL     OW39998   1.739  11.519   6.520
46034SOL    HW139999   1.762  11.426   6.515
46034SOL    HW240000   1.652  11.523   6.480
46035SOL     OW40001  13.742  11.330   3.932
46035SOL    HW140002  13.696  11.249   3.910
46035SOL    HW240003  13.675  11.384   3.974
46036SOL     OW40004   4.292  11.438   5.289
46036SOL    HW140005   4.380  11.455   5.323
46036SOL    HW240006   4.281  11.343   5.297
46037SOL     OW40007  12.770  12.705   8.980
46037SOL    HW140008  12.710  12.710   8.905
46037SOL    HW240009  12.717  12.732   9.055
46038SOL     OW40010   8.601  10.422   1.457
46038SOL    HW140011   8.516  10.439   1.498
46038SOL    HW240012   8.661  10.481   1.502
46039SOL     OW40013   0.401   3.740   3.767
46039SOL    HW140014   0.408   3.741   3.672
46039SOL    HW240015   0.393   3.832   3.792
46040SOL     OW40016   8.788  10.017  12.101
46040SOL    HW140017   8.806  10.111  12.109
46040SOL    HW240018   8.692  10.011  12.100
46041SOL     OW40019  11.108   3.899  11.691
46041SOL    HW140020  11.141   3.983  11.659
46041SOL    HW240021  11.183   3.860  11.736
46042SOL     OW40022  10.718   3.345   1.046
46042SOL    HW140023  10.687   3.334   1.135
46042SOL    HW240024  10.744   3.437   1.041
46043SOL     OW40025   3.424   9.411  11.308
46043SOL    HW140026   3.412   9.488  11.364
46043SOL    HW240027   3.519   9.402  11.300
46044SOL     OW40028   0.862   6.577  12.139
46044SOL    HW140029   0.954   6.600  12.142
46044SOL    HW240030   0.856   6.492  12.182
46045SOL     OW40031  11.712   9.798   6.580
46045SOL    HW140032  11.690   9.772   6.491
46045SOL    HW240033  11.701   9.893   6.581
46046SOL     OW40034   7.864   7.202   7.633
46046SOL    HW140035   7.856   7.206   7.537
46046SOL    HW240036   7.786   7.246   7.666
46047SOL     OW40037  11.125  10.243   9.166
46047SOL    HW140038  11.073  10.165   9.182
46047SOL    HW240039  11.103  10.268   9.076
46048SOL     OW40040   4.472   3.794   3.535
46048SOL    HW140041   4.448   3.848   3.460
46048SOL    HW240042   4.422   3.713   3.524
46049SOL     OW40043   2.744  10.860   2.977
46049SOL    HW140044   2.790  10.845   3.059
46049SOL    HW240045   2.704  10.776   2.955
46050SOL     OW40046   0.341   6.643  10.473
46050SOL    HW140047   0.294   6.725  10.483
46050SOL    HW240048   0.301   6.601  10.397
46051SOL     OW40049   1.325   7.822   0.454
46051SOL    HW140050   1.410   7.787   0.427
46051SOL    HW240051   1.261   7.770   0.407
46052SOL     OW40052   5.716   6.703   4.490
46052SOL    HW140053   5.774   6.632   4.465
46052SOL    HW240054   5.628   6.670   4.471
46053SOL     OW40055   6.986   5.422   4.282
46053SOL    HW140056   6.910   5.481   4.281
46053SOL    HW240057   7.061   5.480   4.275
46054SOL     OW40058   4.066  11.667   6.082
46054SOL    HW140059   4.136  11.730   6.102
46054SOL    HW240060   4.053  11.675   5.987
46055SOL     OW40061   5.466   3.210   2.958
46055SOL    HW140062   5.515   3.271   3.014
46055SOL    HW240063   5.532   3.167   2.904
46056SOL     OW40064  12.076  11.643   9.158
46056SOL    HW140065  12.028  11.581   9.213
46056SOL    HW240066  12.008  11.688   9.108
46057SOL     OW40067   6.364  12.055   6.076
46057SOL    HW140068   6.438  12.078   6.132
46057SOL    HW240069   6.286  12.076   6.128
46058SOL     OW40070   4.663   2.485   9.384
46058SOL    HW140071   4.750   2.475   9.346
46058SOL    HW240072   4.679   2.495   9.478
46059SOL     OW40073   5.226   3.766   2.361
46059SOL    HW140074   5.209   3.681   2.401
46059SOL    HW240075   5.214   3.829   2.432
46060SOL     OW40076   3.702  11.355   6.058
46060SOL    HW140077   3.670  11.320   5.975
46060SOL    HW240078   3.763  11.289   6.091
46061SOL     OW40079   5.491   8.972  14.833
46061SOL    HW140080   5.416   8.996   0.015
46061SOL    HW240081   5.454   8.919  14.762
46062SOL     OW40082  12.358   6.299   4.913
46062SOL    HW140083  12.391   6.250   4.988
46062SOL    HW240084  12.274   6.259   4.894
46063SOL     OW40085   7.787  12.789   5.661
46063SOL    HW140086   7.729  12.856   5.696
46063SOL    HW240087   7.727  12.724   5.623
46064SOL     OW40088   3.533   8.626  13.244
46064SOL    HW140089   3.601   8.565  13.215
46064SOL    HW240090   3.581   8.692  13.296
46065SOL     OW40091   8.751   1.538   5.364
46065SOL    HW140092   8.768   1.576   5.278
46065SOL    HW240093   8.748   1.444   5.348
46066SOL     OW40094  13.654  10.545  13.363
46066SOL    HW140095  13.664  10.612  13.295
46066SOL    HW240096  13.713  10.573  13.433
46067SOL     OW40097   7.731   8.844   4.137
46067SOL    HW140098   7.638   8.859   4.157
46067SOL    HW240099   7.776   8.918   4.177
46068SOL     OW40100   8.306  11.462   9.301
46068SOL    HW140101   8.230  11.517   9.278
46068SOL    HW240102   8.318  11.477   9.395
46069SOL     OW40103   3.120   9.590   3.429
46069SOL    HW140104   3.046   9.650   3.417
46069SOL    HW240105   3.196   9.648   3.437
46070SOL     OW40106   5.979   9.866  12.687
46070SOL    HW140107   6.003   9.953  12.655
46070SOL    HW240108   5.910   9.883  12.751
46071SOL     OW40109   5.817   2.472  12.762
46071SOL    HW140110   5.907   2.438  12.762
46071SOL    HW240111   5.784   2.454  12.674
46072SOL     OW40112   0.401  14.373   3.216
46072SOL    HW140113   0.374  14.379   3.124
46072SOL    HW240114   0.418  14.280   3.230
46073SOL     OW40115  10.771   0.658   0.172
46073SOL    HW140116  10.754   0.569   0.203
46073SOL    HW240117  10.700   0.675   0.110
46074SOL     OW40118  14.556   6.023  10.519
46074SOL    HW140119  14.556   5.981  10.604
46074SOL    HW240120  14.559   5.951  10.456
46075SOL     OW40121   1.168   9.506   2.317
46075SOL    HW140122   1.172   9.451   2.239
46075SOL    HW240123   1.140   9.592   2.285
46076SOL     OW40124  13.314   0.949   4.872
46076SOL    HW140125  13.362   0.993   4.942
46076SOL    HW240126  13.360   0.975   4.792
46077SOL     OW40127  14.186  14.865   8.867
46077SOL    HW140128  14.256  14.810   8.832
46077SOL    HW240129  14.158  14.821   8.947
46078SOL     OW40130   5.780   8.174  13.095
46078SOL    HW140131   5.847   8.235  13.127
46078SOL    HW240132   5.751   8.127  13.173
46079SOL     OW40133   1.780   6.673   6.953
46079SOL    HW140134   1.773   6.617   6.876
46079SOL    HW240135   1.784   6.762   6.918
46080SOL     OW40136   2.229  13.238  12.947
46080SOL    HW140137   2.308  13.184  12.944
46080SOL    HW240138   2.261  13.326  12.966
46081SOL     OW40139  14.550  14.068  12.635
46081SOL    HW140140  14.495  14.128  12.583
46081SOL    HW240141  14.488  14.018  12.687
46082SOL     OW40142   8.136   4.768   4.909
46082SOL    HW140143   8.181   4.730   4.833
46082SOL    HW240144   8.207   4.806   4.961
46083SOL     OW40145  14.306   9.968   5.465
46083SOL    HW140146  14.211   9.963   5.455
46083SOL    HW240147  14.319   9.996   5.556
46084SOL     OW40148   7.676  10.829   4.737
46084SOL    HW140149   7.670  10.736   4.759
46084SOL    HW240150   7.768  10.852   4.752
46085SOL     OW40151  13.637   4.070  10.071
46085SOL    HW140152  13.669   3.988  10.034
46085SOL    HW240153  13.544   4.073  10.048
46086SOL     OW40154   3.478   1.070   9.956
46086SOL    HW140155   3.442   0.983   9.969
46086SOL    HW240156   3.532   1.086  10.034
46087SOL     OW40157  14.093  11.927   1.867
46087SOL    HW140158  14.030  11.918   1.796
46087SOL    HW240159  14.069  12.009   1.911
46088SOL     OW40160  14.799   8.647   5.600
46088SOL    HW140161  14.754   8.718   5.555
46088SOL    HW240162  14.804   8.577   5.535
46089SOL     OW40163   4.898  10.315   5.660
46089SOL    HW140164   4.852  10.323   5.744
46089SOL    HW240165   4.986  10.286   5.683
46090SOL     OW40166   5.394   8.862  10.895
46090SOL    HW140167   5.412   8.835  10.805
46090SOL    HW240168   5.447   8.804  10.949
46091SOL     OW40169  14.553  14.829  14.532
46091SOL    HW140170  14.562  14.830  14.627
46091SOL    HW240171  14.624   0.012  14.500
46092SOL     OW40172   7.905   6.161   1.959
46092SOL    HW140173   7.916   6.106   2.037
46092SOL    HW240174   7.849   6.110   1.901
46093SOL     OW40175  12.073   7.842   9.807
46093SOL    HW140176  12.085   7.830   9.901
46093SOL    HW240177  11.984   7.873   9.797
46094SOL     OW40178   7.159   3.364   6.860
46094SOL    HW140179   7.199   3.278   6.852
46094SOL    HW240180   7.096   3.355   6.931
46095SOL     OW40181   4.771   1.030   9.536
46095SOL    HW140182   4.701   1.032   9.601
46095SOL    HW240183   4.732   0.987   9.460
46096SOL     OW40184   8.443   8.075  13.326
46096SOL    HW140185   8.507   8.007  13.302
46096SOL    HW240186   8.398   8.095  13.244
46097SOL     OW40187  11.097  14.565   8.712
46097SOL    HW140188  11.033  14.501   8.745
46097SOL    HW240189  11.045  14.640   8.684
46098SOL     OW40190   5.956   7.567  14.712
46098SOL    HW140191   5.995   7.544  14.796
46098SOL    HW240192   5.978   7.493  14.654
46099SOL     OW40193   7.767  12.730  14.223
46099SOL    HW140194   7.800  12.819  14.210
46099SOL    HW240195   7.845  12.678  14.243
46100SOL     OW40196  13.749  12.386   1.433
46100SOL    HW140197  13.753  12.293   1.457
46100SOL    HW240198  13.677  12.421   1.486
46101SOL     OW40199   8.778  10.101  11.820
46101SOL    HW140200   8.691  10.083  11.855
46101SOL    HW240201   8.819  10.158  11.885
46102SOL     OW40202   2.052   2.248  13.195
46102SOL    HW140203   1.981   2.285  13.246
46102SOL    HW240204   2.060   2.306  13.120
46103SOL     OW40205   2.930   7.692   3.429
46103SOL    HW140206   2.985   7.674   3.505
46103SOL    HW240207   2.980   7.755   3.377
46104SOL     OW40208  14.025   7.524   1.447
46104SOL    HW140209  13.990   7.611   1.467
46104SOL    HW240210  13.955   7.463   1.472
46105SOL     OW40211  13.333  13.715   4.675
46105SOL    HW140212  13.295  13.630   4.654
46105SOL    HW240213  13.423  13.710   4.643
46106SOL     OW40214   9.389   1.851  14.796
46106SOL    HW140215   9.355   1.768  14.764
46106SOL    HW240216   9.404   1.837   0.017
46107SOL     OW40217  12.540   4.288  10.754
46107SOL    HW140218  12.500   4.368  10.789
46107SOL    HW240219  12.566   4.238  10.832
46108SOL     OW40220   8.049   3.226   6.958
46108SOL    HW140221   8.054   3.263   6.870
46108SOL    HW240222   8.021   3.298   7.013
46109SOL     OW40223   3.082   4.181   2.650
46109SOL    HW140224   3.147   4.250   2.660
46109SOL    HW240225   3.014   4.220   2.596
46110SOL     OW40226   9.196   1.405   4.203
46110SOL    HW140227   9.245   1.482   4.175
46110SOL    HW240228   9.104   1.430   4.196
46111SOL     OW40229  12.569   9.331  13.327
46111SOL    HW140230  12.599   9.413  13.367
46111SOL    HW240231  12.592   9.340  13.235
46112SOL     OW40232  13.210   7.893  10.500
46112SOL    HW140233  13.199   7.948  10.423
46112SOL    HW240234  13.176   7.946  10.573
46113SOL     OW40235   2.285   9.325  14.072
46113SOL    HW140236   2.280   9.419  14.085
46113SOL    HW240237   2.294   9.288  14.160
46114SOL     OW40238   5.375   7.905   0.886
46114SOL    HW140239   5.390   7.991   0.848
46114SOL    HW240240   5.293   7.914   0.934
46115SOL     OW40241   5.270   5.089  11.439
46115SOL    HW140242   5.216   5.068  11.516
46115SOL    HW240243   5.244   5.178  11.415
46116SOL     OW40244  13.165  12.486   8.656
46116SOL    HW140245  13.141  12.394   8.666
46116SOL    HW240246  13.105  12.532   8.716
46117SOL     OW40247   0.446   1.311  13.105
46117SOL    HW140248   0.407   1.369  13.171
46117SOL    HW240249   0.375   1.251  13.082
46118SOL     OW40250   9.181  12.709   1.577
46118SOL    HW140251   9.275  12.712   1.594
46118SOL    HW240252   9.174  12.702   1.482
46119SOL     OW40253  13.457  14.725  10.466
46119SOL    HW140254  13.473  14.637  10.501
46119SOL    HW240255  13.373  14.750  10.505
46120SOL     OW40256   9.943   6.174   6.839
46120SOL    HW140257   9.957   6.268   6.849
46120SOL    HW240258   9.878   6.151   6.906
46121SOL     OW40259   5.569   2.875   8.565
46121SOL    HW140260   5.664   2.864   8.558
46121SOL    HW240261   5.554   2.967   8.544
46122SOL     OW40262   8.717   7.568   5.593
46122SOL    HW140263   8.711   7.648   5.645
46122SOL    HW240264   8.670   7.503   5.645
46123SOL     OW40265   4.225   6.535   2.530
46123SOL    HW140266   4.226   6.618   2.577
46123SOL    HW240267   4.135   6.527   2.497
46124SOL     OW40268   1.345   3.222   4.153
46124SOL    HW140269   1.256   3.258   4.146
46124SOL    HW240270   1.385   3.242   4.069
46125SOL     OW40271   8.436   0.989  13.339
46125SOL    HW140272   8.417   0.908  13.386
46125SOL    HW240273   8.531   0.986  13.323
46126SOL     OW40274   3.916   8.535  10.354
46126SOL    HW140275   3.944   8.453  10.314
46126SOL    HW240276   3.972   8.601  10.315
46127SOL     OW40277   0.437   7.696   0.820
46127SOL    HW140278   0.439   7.659   0.732
46127SOL    HW240279   0.414   7.623   0.877
46128SOL     OW40280   7.783   9.611  11.751
46128SOL    HW140281   7.767   9.551  11.824
46128SOL    HW240282   7.796   9.553  11.675
46129SOL     OW40283  14.025  11.193   1.058
46129SOL    HW140284  14.066  11.212   1.143
46129SOL    HW240285  13.931  11.193   1.077
46130SOL     OW40286   0.955  10.184   6.756
46130SOL    HW140287   1.038  10.223   6.727
46130SOL    HW240288   0.941  10.111   6.696
46131SOL     OW40289   4.413   2.089   3.618
46131SOL    HW140290   4.386   2.146   3.690
46131SOL    HW240291   4.479   2.141   3.571
46132SOL     OW40292   0.458   7.812   3.789
46132SOL    HW140293   0.530   7.839   3.732
46132SOL    HW240294   0.424   7.894   3.825
46133SOL     OW40295   8.033   0.786   1.352
46133SOL    HW140296   8.094   0.858   1.339
46133SOL    HW240297   7.950   0.828   1.371
46134SOL     OW40298   5.316   4.957  12.903
46134SOL    HW140299   5.299   5.035  12.850
46134SOL    HW240300   5.280   4.979  12.989
46135SOL     OW40301   7.170  12.377  10.988
46135SOL    HW140302   7.099  12.407  10.931
46135SOL    HW240303   7.208  12.302  10.943
46136SOL     OW40304   6.813   3.308   3.558
46136SOL    HW140305   6.899   3.266   3.563
46136SOL    HW240306   6.828   3.396   3.592
46137SOL     OW40307   5.968  14.199   8.867
46137SOL    HW140308   5.981  14.289   8.835
46137SOL    HW240309   6.057  14.167   8.884
46138SOL     OW40310  11.108   4.194   2.808
46138SOL    HW140311  11.114   4.214   2.901
46138SOL    HW240312  11.028   4.238   2.779
46139SOL     OW40313   6.876  10.054  13.903
46139SOL    HW140314   6.919  10.023  13.823
46139SOL    HW240315   6.869   9.977  13.958
46140SOL     OW40316   5.679  13.510   5.593
46140SOL    HW140317   5.633  13.594   5.600
46140SOL    HW240318   5.670  13.470   5.679
46141SOL     OW40319  14.665   1.076   1.627
46141SOL    HW140320  14.743   1.092   1.574
46141SOL    HW240321  14.593   1.112   1.576
46142SOL     OW40322   8.509  10.331  12.949
46142SOL    HW140323   8.569  10.403  12.967
46142SOL    HW240324   8.457  10.362  12.874
46143SOL     OW40325  13.447   4.615   4.040
46143SOL    HW140326  13.423   4.707   4.039
46143SOL    HW240327  13.509   4.605   3.967
46144SOL     OW40328   6.492   1.592   3.049
46144SOL    HW140329   6.562   1.552   2.998
46144SOL    HW240330   6.534   1.665   3.095
46145SOL     OW40331  10.628  13.937   5.215
46145SOL    HW140332  10.614  13.897   5.129
46145SOL    HW240333  10.724  13.940   5.225
46146SOL     OW40334  10.551   3.327   7.282
46146SOL    HW140335  10.645   3.342   7.296
46146SOL    HW240336  10.541   3.322   7.187
46147SOL     OW40337   9.913   5.690   9.916
46147SOL    HW140338   9.925   5.608   9.963
46147SOL    HW240339   9.996   5.704   9.870
46148SOL     OW40340  13.776  12.005   7.639
46148SOL    HW140341  13.818  12.021   7.554
46148SOL    HW240342  13.753  12.092   7.672
46149SOL     OW40343   9.521   1.276   8.908
46149SOL    HW140344   9.446   1.327   8.937
46149SOL    HW240345   9.597   1.328   8.932
46150SOL     OW40346  14.230   1.670  11.421
46150SOL    HW140347  14.303   1.724  11.389
46150SOL    HW240348  14.216   1.605  11.353
46151SOL     OW40349   8.395   7.725   9.380
46151SOL    HW140350   8.391   7.805   9.434
46151SOL    HW240351   8.400   7.758   9.291
46152SOL     OW40352   2.367  12.833   5.244
46152SOL    HW140353   2.311  12.837   5.322
46152SOL    HW240354   2.453  12.862   5.274
46153SOL     OW40355   7.382  10.623   8.558
46153SOL    HW140356   7.322  10.654   8.626
46153SOL    HW240357   7.465  10.610   8.604
46154SOL     OW40358   3.595   1.092  11.790
46154SOL    HW140359   3.606   1.165  11.729
46154SOL    HW240360   3.579   1.133  11.875
46155SOL     OW40361   7.380  14.756   8.062
46155SOL    HW140362   7.414  14.721   8.145
46155SOL    HW240363   7.353  14.845   8.083
46156SOL     OW40364   7.561  12.942   5.404
46156SOL    HW140365   7.629  12.987   5.354
46156SOL    HW240366   7.511  13.012   5.446
46157SOL     OW40367   5.767   5.081  10.225
46157SOL    HW140368   5.819   5.129  10.289
46157SOL    HW240369   5.684   5.065  10.269
46158SOL     OW40370  13.800  12.291   9.764
46158SOL    HW140371  13.728  12.300   9.826
46158SOL    HW240372  13.841  12.378   9.763
46159SOL     OW40373   2.292  10.632  13.449
46159SOL    HW140374   2.366  10.583  13.486
46159SOL    HW240375   2.222  10.624  13.514
46160SOL     OW40376  14.174   4.512  10.651
46160SOL    HW140377  14.237   4.474  10.589
46160SOL    HW240378  14.089   4.497  10.610
46161SOL     OW40379   4.956  11.652   0.895
46161SOL    HW140380   4.896  11.678   0.824
46161SOL    HW240381   4.911  11.580   0.939
46162SOL     OW40382   6.285  14.471   9.191
46162SOL    HW140383   6.292  14.421   9.272
46162SOL    HW240384   6.296  14.562   9.218
46163SOL     OW40385  10.257  12.818  11.478
46163SOL    HW140386  10.194  12.750  11.503
46163SOL    HW240387  10.264  12.810  11.382
46164SOL     OW40388   2.244   8.213  10.971
46164SOL    HW140389   2.259   8.181  10.882
46164SOL    HW240390   2.155   8.185  10.991
46165SOL     OW40391   3.098   3.072  10.845
46165SOL    HW140392   3.071   3.066  10.753
46165SOL    HW240393   3.084   2.983  10.879
46166SOL     OW40394   3.611   9.663   7.556
46166SOL    HW140395   3.625   9.568   7.549
46166SOL    HW240396   3.698   9.698   7.579
46167SOL     OW40397   8.062  10.599   9.423
46167SOL    HW140398   8.122  10.590   9.497
46167SOL    HW240399   7.975  10.585   9.461
46168SOL     OW40400   1.140   7.428   3.805
46168SOL    HW140401   1.105   7.368   3.872
46168SOL    HW240402   1.099   7.398   3.724
46169SOL     OW40403   7.170  10.383   0.994
46169SOL    HW140404   7.154  10.419   1.082
46169SOL    HW240405   7.264  10.392   0.981
46170SOL     OW40406   3.093  12.507   4.141
46170SOL    HW140407   3.095  12.494   4.047
46170SOL    HW240408   3.003  12.490   4.166
46171SOL     OW40409   3.342  10.660   0.680
46171SOL    HW140410   3.331  10.686   0.588
46171SOL    HW240411   3.259  10.618   0.703
46172SOL     OW40412   9.571   6.630   3.823
46172SOL    HW140413   9.576   6.540   3.790
46172SOL    HW240414   9.573   6.621   3.918
46173SOL     OW40415   3.735   9.592   2.092
46173SOL    HW140416   3.719   9.533   2.018
46173SOL    HW240417   3.734   9.535   2.169
46174SOL     OW40418  11.406  10.451   9.217
46174SOL    HW140419  11.336  10.387   9.209
46174SOL    HW240420  11.378  10.524   9.162
46175SOL     OW40421   1.768   4.313   0.659
46175SOL    HW140422   1.755   4.399   0.619
46175SOL    HW240423   1.822   4.265   0.596
46176SOL     OW40424   3.743   5.360   6.689
46176SOL    HW140425   3.734   5.354   6.594
46176SOL    HW240426   3.815   5.301   6.710
46177SOL     OW40427  10.456   5.191  12.862
46177SOL    HW140428  10.427   5.280  12.839
46177SOL    HW240429  10.508   5.163  12.787
46178SOL     OW40430   1.706  10.356   0.580
46178SOL    HW140431   1.692  10.265   0.557
46178SOL    HW240432   1.790  10.379   0.542
46179SOL     OW40433  13.208   8.814   4.574
46179SOL    HW140434  13.292   8.833   4.614
46179SOL    HW240435  13.220   8.833   4.481
46180SOL     OW40436  11.779   4.335   4.282
46180SOL    HW140437  11.766   4.428   4.300
46180SOL    HW240438  11.853   4.310   4.338
46181SOL     OW40439   7.205  11.463   8.177
46181SOL    HW140440   7.266  11.392   8.194
46181SOL    HW240441   7.121  11.433   8.212
46182SOL     OW40442   8.961   7.083   3.565
46182SOL    HW140443   9.010   7.022   3.509
46182SOL    HW240444   8.968   7.167   3.521
46183SOL     OW40445  14.521   3.063   1.479
46183SOL    HW140446  14.519   3.020   1.393
46183SOL    HW240447  14.611   3.092   1.489
46184SOL     OW40448   4.341   8.606   2.985
46184SOL    HW140449   4.360   8.699   2.997
46184SOL    HW240450   4.419   8.561   3.016
46185SOL     OW40451   9.478  14.199   9.332
46185SOL    HW140452   9.428  14.256   9.273
46185SOL    HW240453   9.569  14.225   9.319
46186SOL     OW40454  12.461   2.843   2.495
46186SOL    HW140455  12.390   2.904   2.516
46186SOL    HW240456  12.530   2.898   2.460
46187SOL     OW40457   4.008   5.801   8.620
46187SOL    HW140458   3.945   5.857   8.574
46187SOL    HW240459   4.072   5.777   8.553
46188SOL     OW40460   2.860  13.491   3.073
46188SOL    HW140461   2.920  13.425   3.037
46188SOL    HW240462   2.778  13.478   3.025
46189SOL     OW40463  13.285   3.540   3.860
46189SOL    HW140464  13.353   3.479   3.890
46189SOL    HW240465  13.225   3.547   3.934
46190SOL     OW40466   5.011  10.952   4.674
46190SOL    HW140467   5.048  10.872   4.711
46190SOL    HW240468   4.919  10.950   4.698
46191SOL     OW40469   9.239   1.552  14.270
46191SOL    HW140470   9.315   1.596  14.233
46191SOL    HW240471   9.175   1.552  14.198
46192SOL     OW40472   8.398   7.427   0.631
46192SOL    HW140473   8.388   7.386   0.545
46192SOL    HW240474   8.474   7.382   0.669
46193SOL     OW40475  12.521   9.246  14.328
46193SOL    HW140476  12.464   9.321  14.309
46193SOL    HW240477  12.569   9.273  14.406
46194SOL     OW40478   0.366   5.155   6.941
46194SOL    HW140479   0.435   5.206   6.984
46194SOL    HW240480   0.412   5.080   6.903
46195SOL     OW40481  12.830  14.044   0.564
46195SOL    HW140482  12.801  13.986   0.494
46195SOL    HW240483  12.814  14.132   0.531
46196SOL     OW40484   9.794   4.998   2.923
46196SOL    HW140485   9.854   4.939   2.969
46196SOL    HW240486   9.719   5.007   2.982
46197SOL     OW40487   1.870  13.735   6.290
46197SOL    HW140488   1.834  13.688   6.365
46197SOL    HW240489   1.899  13.819   6.326
46198SOL     OW40490   2.601   7.123   3.036
46198SOL    HW140491   2.667   7.106   2.968
46198SOL    HW240492   2.528   7.065   3.013
46199SOL     OW40493  10.088   8.872  14.031
46199SOL    HW140494  10.079   8.788  13.987
46199SOL    HW240495  10.182   8.885  14.040
46200SOL     OW40496   5.098   1.967   9.361
46200SOL    HW140497   5.074   1.887   9.407
46200SOL    HW240498   5.120   1.939   9.273
46201SOL     OW40499   0.984   5.350  12.190
46201SOL    HW140500   0.990   5.343  12.095
46201SOL    HW240501   1.018   5.437  12.210
46202SOL     OW40502   5.729   3.381   4.836
46202SOL    HW140503   5.644   3.382   4.792
46202SOL    HW240504   5.763   3.294   4.819
46203SOL     OW40505   0.564   7.494   4.153
46203SOL    HW140506   0.587   7.587   4.150
46203SOL    HW240507   0.511   7.486   4.232
46204SOL     OW40508   5.806   9.503   3.959
46204SOL    HW140509   5.886   9.539   3.922
46204SOL    HW240510   5.823   9.497   4.053
46205SOL     OW40511   7.097   4.217  10.189
46205SOL    HW140512   7.062   4.280  10.252
46205SOL    HW240513   7.020   4.171  10.156
46206SOL     OW40514  14.315  11.979  12.978
46206SOL    HW140515  14.309  12.068  12.943
46206SOL    HW240516  14.232  11.965  13.024
46207SOL     OW40517  13.871  10.248   0.458
46207SOL    HW140518  13.876  10.212   0.547
46207SOL    HW240519  13.951  10.299   0.448
46208SOL     OW40520   9.584   0.242   3.011
46208SOL    HW140521   9.528   0.165   3.001
46208SOL    HW240522   9.532   0.314   2.976
46209SOL     OW40523   7.166  12.748   6.888
46209SOL    HW140524   7.103  12.678   6.907
46209SOL    HW240525   7.135  12.788   6.807
46210SOL     OW40526   3.430   1.879  14.777
46210SOL    HW140527   3.513   1.849  14.740
46210SOL    HW240528   3.365   1.818  14.743
46211SOL     OW40529   3.597  13.373   8.981
46211SOL    HW140530   3.677  13.409   8.944
46211SOL    HW240531   3.602  13.279   8.962
46212SOL     OW40532  13.640   1.015  13.315
46212SOL    HW140533  13.679   1.031  13.229
46212SOL    HW240534  13.603   0.926  13.309
46213SOL     OW40535  11.908   2.323  12.649
46213SOL    HW140536  11.896   2.231  12.672
46213SOL    HW240537  11.845   2.369  12.705
46214SOL     OW40538   1.495  11.473   0.029
46214SOL    HW140539   1.490  11.378   0.020
46214SOL    HW240540   1.568  11.499  14.845
46215SOL     OW40541   7.930   8.934  12.575
46215SOL    HW140542   7.868   8.895  12.514
46215SOL    HW240543   7.994   8.977  12.519
46216SOL     OW40544   9.130  11.060   2.031
46216SOL    HW140545   9.173  11.108   1.960
46216SOL    HW240546   9.199  11.009   2.072
46217SOL     OW40547   1.675  11.965   8.256
46217SOL    HW140548   1.747  11.982   8.318
46217SOL    HW240549   1.669  12.046   8.205
46218SOL     OW40550   1.419  12.223   9.708
46218SOL    HW140551   1.352  12.217   9.640
46218SOL    HW240552   1.421  12.315   9.733
46219SOL     OW40553  12.487   0.935   5.539
46219SOL    HW140554  12.421   1.004   5.529
46219SOL    HW240555  12.570   0.979   5.523
46220SOL     OW40556   3.056   4.041  11.724
46220SOL    HW140557   3.076   4.033  11.631
46220SOL    HW240558   3.139   4.067  11.764
46221SOL     OW40559   2.102  12.575   6.725
46221SOL    HW140560   2.065  12.522   6.655
46221SOL    HW240561   2.032  12.636   6.748
46222SOL     OW40562  14.328   2.622   5.978
46222SOL    HW140563  14.407   2.675   5.989
46222SOL    HW240564  14.353   2.556   5.913
46223SOL     OW40565   3.886  11.547   7.520
46223SOL    HW140566   3.820  11.487   7.555
46223SOL    HW240567   3.911  11.509   7.436
46224SOL     OW40568  14.000   7.453   8.008
46224SOL    HW140569  14.095   7.447   8.015
46224SOL    HW240570  13.974   7.517   8.075
46225SOL     OW40571   7.940   1.176   3.726
46225SOL    HW140572   7.920   1.251   3.669
46225SOL    HW240573   7.900   1.198   3.810
46226SOL     OW40574  12.566   1.189  12.360
46226SOL    HW140575  12.643   1.223  12.406
46226SOL    HW240576  12.506   1.162  12.430
46227SOL     OW40577   2.138   1.438   6.029
46227SOL    HW140578   2.228   1.454   6.059
46227SOL    HW240579   2.085   1.439   6.108
46228SOL     OW40580   7.620  13.117   5.788
46228SOL    HW140581   7.694  13.092   5.843
46228SOL    HW240582   7.658  13.173   5.720
46229SOL     OW40583   5.325   0.925   2.141
46229SOL    HW140584   5.405   0.898   2.097
46229SOL    HW240585   5.320   1.020   2.127
46230SOL     OW40586   4.265   7.284  14.337
46230SOL    HW140587   4.274   7.261  14.429
46230SOL    HW240588   4.179   7.325  14.330
46231SOL     OW40589   4.622   8.298  14.356
46231SOL    HW140590   4.623   8.215  14.308
46231SOL    HW240591   4.588   8.276  14.442
46232SOL     OW40592   2.641   3.840   8.709
46232SOL    HW140593   2.733   3.825   8.731
46232SOL    HW240594   2.633   3.805   8.620
46233SOL     OW40595   6.470  11.640  11.050
46233SOL    HW140596   6.525  11.630  10.973
46233SOL    HW240597   6.422  11.557  11.057
46234SOL     OW40598   8.696   0.927   3.576
46234SOL    HW140599   8.649   0.873   3.513
46234SOL    HW240600   8.742   0.864   3.632
46235SOL     OW40601  11.357  11.353   3.795
46235SOL    HW140602  11.299  11.376   3.722
46235SOL    HW240603  11.328  11.409   3.867
46236SOL     OW40604  13.690   6.249   4.328
46236SOL    HW140605  13.702   6.251   4.423
46236SOL    HW240606  13.615   6.190   4.315
46237SOL     OW40607   8.195   8.616   5.029
46237SOL    HW140608   8.167   8.526   5.011
46237SOL    HW240609   8.209   8.618   5.124
46238SOL     OW40610   6.055   7.186  14.232
46238SOL    HW140611   5.983   7.236  14.271
46238SOL    HW240612   6.045   7.200  14.137
46239SOL     OW40613  10.000   1.920   2.744
46239SOL    HW140614   9.923   1.976   2.739
46239SOL    HW240615  10.056   1.948   2.672
46240SOL     OW40616   2.272   0.932  10.422
46240SOL    HW140617   2.325   0.864  10.380
46240SOL    HW240618   2.293   0.924  10.516
46241SOL     OW40619  12.186   0.463  12.445
46241SOL    HW140620  12.277   0.481  12.469
46241SOL    HW240621  12.181   0.484  12.352
46242SOL     OW40622   9.344   5.453   8.593
46242SOL    HW140623   9.266   5.459   8.538
46242SOL    HW240624   9.317   5.395   8.665
46243SOL     OW40625   0.587   0.385   2.421
46243SOL    HW140626   0.625   0.413   2.338
46243SOL    HW240627   0.633   0.437   2.487
46244SOL     OW40628   3.662   2.144   0.547
46244SOL    HW140629   3.715   2.065   0.546
46244SOL    HW240630   3.643   2.160   0.639
46245SOL     OW40631  14.709   1.444  14.731
46245SOL    HW140632  14.780   1.381  14.743
46245SOL    HW240633  14.671   1.455  14.818
46246SOL     OW40634   2.045   0.880   3.349
46246SOL    HW140635   1.953   0.894   3.373
46246SOL    HW240636   2.084   0.842   3.428
46247SOL     OW40637   3.152  11.517   4.404
46247SOL    HW140638   3.069  11.564   4.413
46247SOL    HW240639   3.214  11.568   4.456
46248SOL     OW40640  10.450   0.428  13.308
46248SOL    HW140641  10.472   0.475  13.227
46248SOL    HW240642  10.527   0.440  13.364
46249SOL     OW40643  11.334   3.992   8.864
46249SOL    HW140644  11.402   4.020   8.803
46249SOL    HW240645  11.358   4.034   8.947
46250SOL     OW40646   3.683  12.359   4.146
46250SOL    HW140647   3.595  12.324   4.158
46250SOL    HW240648   3.681  12.445   4.188
46251SOL     OW40649   9.181  11.811  13.212
46251SOL    HW140650   9.174  11.719  13.185
46251SOL    HW240651   9.114  11.856  13.160
46252SOL     OW40652  10.824   1.638   5.979
46252SOL    HW140653  10.766   1.614   6.051
46252SOL    HW240654  10.764   1.653   5.905
46253SOL     OW40655  13.643   1.789   4.814
46253SOL    HW140656  13.597   1.859   4.768
46253SOL    HW240657  13.677   1.830   4.893
46254SOL     OW40658  11.129   2.672   8.823
46254SOL    HW140659  11.197   2.658   8.889
46254SOL    HW240660  11.101   2.762   8.836
46255SOL     OW40661  10.741  13.425   0.403
46255SOL    HW140662  10.671  13.434   0.467
46255SOL    HW240663  10.817  13.467   0.443
46256SOL     OW40664   8.921   5.134  11.194
46256SOL    HW140665   8.831   5.134  11.160
46256SOL    HW240666   8.940   5.043  11.214
46257SOL     OW40667   2.674   9.821   3.084
46257SOL    HW140668   2.604   9.772   3.041
46257SOL    HW240669   2.634   9.857   3.162
46258SOL     OW40670  13.249  13.060   6.592
46258SOL    HW140671  13.191  13.125   6.552
46258SOL    HW240672  13.190  12.999   6.636
46259SOL     OW40673   3.546  14.457  13.192
46259SOL    HW140674   3.588  14.393  13.249
46259SOL    HW240675   3.614  14.522  13.174
46260SOL     OW40676   4.356   1.367  10.635
46260SOL    HW140677   4.382   1.456  10.613
46260SOL    HW240678   4.271   1.356  10.591
46261SOL     OW40679   0.631   5.704   7.015
46261SOL    HW140680   0.567   5.769   7.042
46261SOL    HW240681   0.665   5.668   7.096
46262SOL     OW40682   6.189   3.291   6.372
46262SOL    HW140683   6.211   3.209   6.416
46262SOL    HW240684   6.234   3.287   6.288
46263SOL     OW40685   2.124   8.014   3.335
46263SOL    HW140686   2.140   7.935   3.385
46263SOL    HW240687   2.097   7.983   3.248
46264SOL     OW40688   4.836  11.245   3.914
46264SOL    HW140689   4.875  11.297   3.844
46264SOL    HW240690   4.769  11.302   3.951
46265SOL     OW40691   2.716   6.236   5.127
46265SOL    HW140692   2.727   6.250   5.033
46265SOL    HW240693   2.635   6.186   5.135
46266SOL     OW40694   3.477   1.182   7.962
46266SOL    HW140695   3.537   1.236   7.910
46266SOL    HW240696   3.390   1.211   7.934
46267SOL     OW40697   1.010  11.495   4.453
46267SOL    HW140698   1.002  11.473   4.546
46267SOL    HW240699   1.038  11.413   4.412
46268SOL     OW40700   2.505   3.033  13.724
46268SOL    HW140701   2.428   3.083  13.698
46268SOL    HW240702   2.534   2.990  13.643
46269SOL     OW40703   9.092   9.142   9.850
46269SOL    HW140704   9.113   9.130   9.757
46269SOL    HW240705   9.170   9.111   9.896
46270SOL     OW40706   7.129  13.266   0.960
46270SOL    HW140707   7.211  13.314   0.949
46270SOL    HW240708   7.155  13.184   1.002
46271SOL     OW40709   1.645   9.652  13.016
46271SOL    HW140710   1.690   9.735  13.033
46271SOL    HW240711   1.600   9.666  12.933
46272SOL     OW40712  12.814   0.984   0.415
46272SOL    HW140713  12.824   0.981   0.320
46272SOL    HW240714  12.844   1.071   0.440
46273SOL     OW40715   3.765  10.544   2.983
46273SOL    HW140716   3.694  10.532   2.920
46273SOL    HW240717   3.843  10.553   2.929
46274SOL     OW40718   8.261  11.602   2.514
46274SOL    HW140719   8.294  11.639   2.597
46274SOL    HW240720   8.305  11.518   2.506
46275SOL     OW40721   3.896   0.917   3.768
46275SOL    HW140722   3.841   0.889   3.695
46275SOL    HW240723   3.836   0.961   3.828
46276SOL     OW40724   3.759   2.735  13.436
46276SOL    HW140725   3.830   2.673  13.453
46276SOL    HW240726   3.803   2.817  13.417
46277SOL     OW40727  11.560   8.773   1.945
46277SOL    HW140728  11.559   8.704   1.879
46277SOL    HW240729  11.647   8.812   1.937
46278SOL     OW40730   0.136  13.967  13.929
46278SOL    HW140731   0.172  14.055  13.935
46278SOL    HW240732   0.046  13.980  13.901
46279SOL     OW40733  11.966   3.309   8.920
46279SOL    HW140734  11.968   3.218   8.889
46279SOL    HW240735  12.024   3.310   8.996
46280SOL     OW40736   8.692   3.845   7.863
46280SOL    HW140737   8.670   3.785   7.934
46280SOL    HW240738   8.750   3.795   7.806
46281SOL     OW40739   0.576   8.324   5.762
46281SOL    HW140740   0.541   8.411   5.744
46281SOL    HW240741   0.644   8.339   5.828
46282SOL     OW40742   8.849  14.587   7.336
46282SOL    HW140743   8.835  14.608   7.243
46282SOL    HW240744   8.937  14.550   7.338
46283SOL     OW40745   7.066   6.245  13.280
46283SOL    HW140746   7.040   6.164  13.237
46283SOL    HW240747   7.080   6.307  13.208
46284SOL     OW40748   5.077   0.869  13.871
46284SOL    HW140749   5.155   0.904  13.829
46284SOL    HW240750   5.010   0.870  13.802
46285SOL     OW40751   8.044   1.821  10.506
46285SOL    HW140752   8.081   1.743  10.548
46285SOL    HW240753   8.072   1.816  10.415
46286SOL     OW40754   8.047   3.162  10.280
46286SOL    HW140755   7.997   3.144  10.360
46286SOL    HW240756   7.983   3.153  10.210
46287SOL     OW40757   4.382  13.995   3.753
46287SOL    HW140758   4.477  13.979   3.752
46287SOL    HW240759   4.362  14.012   3.845
46288SOL     OW40760  14.520   6.653   0.856
46288SOL    HW140761  14.441   6.599   0.850
46288SOL    HW240762  14.496   6.736   0.814
46289SOL     OW40763   1.736   3.241  10.670
46289SOL    HW140764   1.647   3.208  10.684
46289SOL    HW240765   1.784   3.165  10.636
46290SOL     OW40766   5.446   4.962   0.770
46290SOL    HW140767   5.363   4.918   0.791
46290SOL    HW240768   5.425   5.020   0.698
46291SOL     OW40769   5.420   4.954   7.245
46291SOL    HW140770   5.390   4.976   7.333
46291SOL    HW240771   5.479   5.026   7.221
46292SOL     OW40772  11.020   4.774   5.038
46292SOL    HW140773  10.944   4.752   4.984
46292SOL    HW240774  11.095   4.753   4.983
46293SOL     OW40775   8.245  13.750  10.341
46293SOL    HW140776   8.265  13.711  10.256
46293SOL    HW240777   8.260  13.679  10.404
46294SOL     OW40778   0.614   8.676  10.963
46294SOL    HW140779   0.627   8.585  10.990
46294SOL    HW240780   0.519   8.685  10.955
46295SOL     OW40781   3.220   7.211   7.374
46295SOL    HW140782   3.308   7.183   7.403
46295SOL    HW240783   3.231   7.302   7.348
46296SOL     OW40784   2.079  13.617   5.884
46296SOL    HW140785   2.081  13.687   5.818
46296SOL    HW240786   2.102  13.661   5.966
46297SOL     OW40787   4.091  14.619   9.447
46297SOL    HW140788   4.150  14.689   9.476
46297SOL    HW240789   4.099  14.618   9.352
46298SOL     OW40790  11.050   5.319   6.240
46298SOL    HW140791  11.017   5.233   6.216
46298SOL    HW240792  11.045   5.322   6.335
46299SOL     OW40793  10.257  13.812   9.805
46299SOL    HW140794  10.322  13.789   9.871
46299SOL    HW240795  10.250  13.735   9.749
46300SOL     OW40796   9.893   6.399  13.607
46300SOL    HW140797   9.832   6.458  13.651
46300SOL    HW240798   9.840   6.323  13.583
46301SOL     OW40799  14.446   7.619   8.657
46301SOL    HW140800  14.455   7.562   8.733
46301SOL    HW240801  14.394   7.568   8.594
46302SOL     OW40802   3.212  14.255   0.031
46302SOL    HW140803   3.301  14.228   0.010
46302SOL    HW240804   3.181  14.300  14.825
46303SOL     OW40805  12.749   3.131   7.545
46303SOL    HW140806  12.759   3.194   7.474
46303SOL    HW240807  12.718   3.051   7.502
46304SOL     OW40808  13.219  12.146   3.157
46304SOL    HW140809  13.214  12.228   3.206
46304SOL    HW240810  13.310  12.142   3.127
46305SOL     OW40811   8.328   3.969  13.931
46305SOL    HW140812   8.285   4.024  13.997
46305SOL    HW240813   8.266   3.968  13.858
46306SOL     OW40814  11.407   7.870   6.661
46306SOL    HW140815  11.333   7.820   6.695
46306SOL    HW240816  11.477   7.855   6.723
46307SOL     OW40817   9.795  13.783   7.635
46307SOL    HW140818   9.721  13.752   7.583
46307SOL    HW240819   9.863  13.716   7.624
46308SOL     OW40820   1.273   7.687   7.647
46308SOL    HW140821   1.359   7.653   7.670
46308SOL    HW240822   1.290   7.770   7.604
46309SOL     OW40823   9.353   5.381   6.374
46309SOL    HW140824   9.297   5.454   6.349
46309SOL    HW240825   9.394   5.408   6.457
46310SOL     OW40826   1.587   9.041   7.915
46310SOL    HW140827   1.566   9.054   8.007
46310SOL    HW240828   1.643   9.115   7.892
46311SOL     OW40829   0.892  12.022  13.652
46311SOL    HW140830   0.850  12.097  13.610
46311SOL    HW240831   0.922  11.968  13.580
46312SOL     OW40832   8.324  10.253   6.649
46312SOL    HW140833   8.267  10.312   6.699
46312SOL    HW240834   8.311  10.279   6.558
46313SOL     OW40835   7.090   3.717  12.062
46313SOL    HW140836   7.081   3.794  12.005
46313SOL    HW240837   7.082   3.752  12.150
46314SOL     OW40838   1.693   8.196   8.544
46314SOL    HW140839   1.701   8.290   8.562
46314SOL    HW240840   1.615   8.169   8.593
46315SOL     OW40841   4.754  11.909  14.407
46315SOL    HW140842   4.729  11.841  14.469
46315SOL    HW240843   4.734  11.872  14.321
46316SOL     OW40844   0.850  10.142   7.759
46316SOL    HW140845   0.829  10.234   7.770
46316SOL    HW240846   0.895  10.137   7.674
46317SOL     OW40847   7.021  11.126   1.472
46317SOL    HW140848   7.080  11.117   1.547
46317SOL    HW240849   6.983  11.038   1.461
46318SOL     OW40850   4.773   0.394   1.344
46318SOL    HW140851   4.685   0.395   1.382
46318SOL    HW240852   4.780   0.308   1.303
46319SOL     OW40853   2.949   7.233   3.880
46319SOL    HW140854   2.981   7.176   3.950
46319SOL    HW240855   2.868   7.271   3.914
46320SOL     OW40856   2.736   8.158  12.416
46320SOL    HW140857   2.694   8.215  12.480
46320SOL    HW240858   2.693   8.178  12.333
46321SOL     OW40859   3.115  10.817  11.348
46321SOL    HW140860   3.137  10.779  11.433
46321SOL    HW240861   3.095  10.742  11.292
46322SOL     OW40862   4.708   0.953   7.179
46322SOL    HW140863   4.686   0.980   7.090
46322SOL    HW240864   4.776   1.015   7.206
46323SOL     OW40865   4.841   8.027   1.734
46323SOL    HW140866   4.880   8.105   1.695
46323SOL    HW240867   4.876   7.955   1.682
46324SOL     OW40868  10.680   5.544   5.095
46324SOL    HW140869  10.704   5.492   5.018
46324SOL    HW240870  10.591   5.516   5.117
46325SOL     OW40871   7.076  14.218   1.211
46325SOL    HW140872   7.117  14.136   1.186
46325SOL    HW240873   7.011  14.194   1.277
46326SOL     OW40874   9.184   5.658   7.972
46326SOL    HW140875   9.210   5.743   8.008
46326SOL    HW240876   9.090   5.665   7.960
46327SOL     OW40877  11.857   1.482  11.789
46327SOL    HW140878  11.906   1.533  11.854
46327SOL    HW240879  11.784   1.444  11.838
46328SOL     OW40880  13.529   8.500   9.496
46328SOL    HW140881  13.469   8.487   9.569
46328SOL    HW240882  13.521   8.420   9.443
46329SOL     OW40883   6.892   4.444  14.132
46329SOL    HW140884   6.862   4.522  14.086
46329SOL    HW240885   6.814   4.391  14.146
46330SOL     OW40886   0.336   4.759  10.551
46330SOL    HW140887   0.414   4.757  10.606
46330SOL    HW240888   0.347   4.687  10.489
46331SOL     OW40889   5.293   9.480   1.035
46331SOL    HW140890   5.225   9.415   1.054
46331SOL    HW240891   5.303   9.528   1.117
46332SOL     OW40892  12.976  14.072  11.957
46332SOL    HW140893  13.030  14.051  11.881
46332SOL    HW240894  12.973  13.991  12.007
46333SOL     OW40895   2.010   6.432   4.158
46333SOL    HW140896   2.013   6.526   4.177
46333SOL    HW240897   2.097   6.411   4.123
46334SOL     OW40898   2.093   0.230   5.210
46334SOL    HW140899   2.021   0.181   5.249
46334SOL    HW240900   2.160   0.163   5.194
46335SOL     OW40901   6.551   6.778   3.597
46335SOL    HW140902   6.587   6.814   3.678
46335SOL    HW240903   6.542   6.853   3.539
46336SOL     OW40904   5.739   9.305  10.615
46336SOL    HW140905   5.821   9.257  10.603
46336SOL    HW240906   5.677   9.262  10.556
46337SOL     OW40907  13.768   0.908   1.867
46337SOL    HW140908  13.796   0.935   1.954
46337SOL    HW240909  13.825   0.958   1.808
46338SOL     OW40910  11.283   8.684  13.659
46338SOL    HW140911  11.332   8.732  13.725
46338SOL    HW240912  11.196   8.725  13.658
46339SOL     OW40913   8.613   7.316  13.019
46339SOL    HW140914   8.683   7.257  13.045
46339SOL    HW240915   8.641   7.352  12.935
46340SOL     OW40916   1.404  14.238   6.153
46340SOL    HW140917   1.448  14.320   6.175
46340SOL    HW240918   1.472  14.171   6.163
46341SOL     OW40919   3.177   8.611  12.896
46341SOL    HW140920   3.205   8.519  12.896
46341SOL    HW240921   3.245   8.657  12.847
46342SOL     OW40922  12.752   9.640  12.547
46342SOL    HW140923  12.766   9.597  12.632
46342SOL    HW240924  12.767   9.571  12.483
46343SOL     OW40925   8.328  10.989   5.409
46343SOL    HW140926   8.418  11.022   5.402
46343SOL    HW240927   8.285  11.051   5.467
46344SOL     OW40928  14.285  14.760   6.766
46344SOL    HW140929  14.349  14.774   6.835
46344SOL    HW240930  14.292  14.667   6.744
46345SOL     OW40931   2.007  10.808   3.975
46345SOL    HW140932   2.067  10.733   3.971
46345SOL    HW240933   1.989  10.820   4.068
46346SOL     OW40934   2.098   6.844   4.523
46346SOL    HW140935   2.129   6.930   4.497
46346SOL    HW240936   2.127   6.835   4.614
46347SOL     OW40937  13.445   6.294  13.268
46347SOL    HW140938  13.394   6.214  13.265
46347SOL    HW240939  13.382   6.363  13.290
46348SOL     OW40940   1.941   4.819   3.243
46348SOL    HW140941   2.011   4.765   3.279
46348SOL    HW240942   1.882   4.757   3.200
46349SOL     OW40943   8.128   1.165   8.407
46349SOL    HW140944   8.114   1.148   8.314
46349SOL    HW240945   8.150   1.258   8.411
46350SOL     OW40946  13.755  14.644   4.467
46350SOL    HW140947  13.791  14.706   4.404
46350SOL    HW240948  13.818  14.572   4.469
46351SOL     OW40949   5.651  14.477   8.182
46351SOL    HW140950   5.660  14.548   8.118
46351SOL    HW240951   5.717  14.496   8.249
46352SOL     OW40952  10.081  10.564   7.479
46352SOL    HW140953  10.119  10.495   7.425
46352SOL    HW240954  10.020  10.518   7.537
46353SOL     OW40955   3.669   2.559   4.486
46353SOL    HW140956   3.736   2.610   4.532
46353SOL    HW240957   3.606   2.624   4.456
46354SOL     OW40958   8.586   0.384   6.459
46354SOL    HW140959   8.644   0.338   6.520
46354SOL    HW240960   8.616   0.357   6.372
46355SOL     OW40961  13.457   7.772   4.349
46355SOL    HW140962  13.448   7.838   4.418
46355SOL    HW240963  13.514   7.705   4.387
46356SOL     OW40964   6.987   7.553   0.975
46356SOL    HW140965   6.922   7.490   1.005
46356SOL    HW240966   7.018   7.517   0.891
46357SOL     OW40967  11.639   4.052  10.864
46357SOL    HW140968  11.575   4.108  10.820
46357SOL    HW240969  11.701   4.114  10.902
46358SOL     OW40970   6.253   9.410  11.721
46358SOL    HW140971   6.207   9.487  11.689
46358SOL    HW240972   6.290   9.369  11.643
46359SOL     OW40973   2.389   4.737   7.059
46359SOL    HW140974   2.372   4.745   7.153
46359SOL    HW240975   2.475   4.695   7.054
46360SOL     OW40976   8.843   9.198   0.684
46360SOL    HW140977   8.866   9.125   0.742
46360SOL    HW240978   8.748   9.206   0.693
46361SOL     OW40979   2.054   1.069   8.500
46361SOL    HW140980   2.110   1.131   8.546
46361SOL    HW240981   2.114   1.017   8.447
46362SOL     OW40982   4.786   8.333   0.193
46362SOL    HW140983   4.747   8.245   0.196
46362SOL    HW240984   4.874   8.322   0.228
46363SOL     OW40985  12.665   3.616   5.854
46363SOL    HW140986  12.592   3.675   5.834
46363SOL    HW240987  12.730   3.636   5.787
46364SOL     OW40988   0.702   7.934   5.977
46364SOL    HW140989   0.662   7.848   5.988
46364SOL    HW240990   0.658   7.989   6.042
46365SOL     OW40991   6.499  12.309  12.073
46365SOL    HW140992   6.445  12.382  12.103
46365SOL    HW240993   6.437  12.245  12.039
46366SOL     OW40994  11.458   7.390  10.174
46366SOL    HW140995  11.489   7.464  10.227
46366SOL    HW240996  11.412   7.334  10.236
46367SOL     OW40997  12.503  14.568   4.777
46367SOL    HW140998  12.456  14.484   4.776
46367SOL    HW240999  12.517  14.589   4.684
46368SOL     OW41000   0.078  10.736  10.314
46368SOL    HW141001  14.859  10.738  10.345
46368SOL    HW241002   0.078  10.673  10.242
46369SOL     OW41003   3.229  14.663  13.805
46369SOL    HW141004   3.149  14.661  13.857
46369SOL    HW241005   3.276  14.583  13.829
46370SOL     OW41006   1.223  11.415   2.848
46370SOL    HW141007   1.281  11.358   2.898
46370SOL    HW241008   1.262  11.502   2.855
46371SOL     OW41009   2.326  13.333  14.757
46371SOL    HW141010   2.327  13.419  14.800
46371SOL    HW241011   2.355  13.272  14.825
46372SOL     OW41012   8.547  11.032   2.951
46372SOL    HW141013   8.638  11.012   2.973
46372SOL    HW241014   8.527  11.110   3.002
46373SOL     OW41015  12.462   5.128  12.792
46373SOL    HW141016  12.547   5.166  12.815
46373SOL    HW241017  12.466   5.038  12.824
46374SOL     OW41018   7.607  10.958   5.181
46374SOL    HW141019   7.628  11.039   5.135
46374SOL    HW241020   7.520  10.934   5.148
46375SOL     OW41021  12.714  12.413   5.494
46375SOL    HW141022  12.621  12.434   5.481
46375SOL    HW241023  12.760  12.469   5.432
46376SOL     OW41024   2.389  10.701  12.041
46376SOL    HW141025   2.422  10.717  11.953
46376SOL    HW241026   2.464  10.717  12.098
46377SOL     OW41027   1.276   3.484   0.543
46377SOL    HW141028   1.184   3.504   0.529
46377SOL    HW241029   1.322   3.558   0.503
46378SOL     OW41030   0.152   2.687   4.713
46378SOL    HW141031   0.063   2.710   4.687
46378SOL    HW241032   0.177   2.616   4.654
46379SOL     OW41033   6.846  13.388   5.106
46379SOL    HW141034   6.815  13.304   5.142
46379SOL    HW241035   6.780  13.451   5.135
46380SOL     OW41036   2.807   5.476   2.889
46380SOL    HW141037   2.811   5.551   2.948
46380SOL    HW241038   2.820   5.513   2.802
46381SOL     OW41039   0.228   2.888   9.162
46381SOL    HW141040   0.159   2.893   9.097
46381SOL    HW241041   0.229   2.974   9.204
46382SOL     OW41042  12.680  10.315   3.649
46382SOL    HW141043  12.697  10.317   3.743
46382SOL    HW241044  12.596  10.269   3.641
46383SOL     OW41045   0.576   1.483   0.100
46383SOL    HW141046   0.483   1.464   0.095
46383SOL    HW241047   0.616   1.426   0.035
46384SOL     OW41048   4.026   4.148  11.850
46384SOL    HW141049   4.062   4.227  11.811
46384SOL    HW241050   4.093   4.118  11.911
46385SOL     OW41051   8.664   2.232   2.857
46385SOL    HW141052   8.721   2.162   2.890
46385SOL    HW241053   8.721   2.285   2.802
46386SOL     OW41054   6.079  12.172  11.582
46386SOL    HW141055   6.069  12.080  11.606
46386SOL    HW241056   6.119  12.170  11.496
46387SOL     OW41057  10.409   5.144  12.139
46387SOL    HW141058  10.327   5.192  12.129
46387SOL    HW241059  10.474   5.211  12.163
46388SOL     OW41060  10.016  11.835  13.472
46388SOL    HW141061  10.087  11.803  13.528
46388SOL    HW241062   9.952  11.764  13.473
46389SOL     OW41063   5.402   2.465  14.553
46389SOL    HW141064   5.425   2.544  14.601
46389SOL    HW241065   5.471   2.402  14.575
46390SOL     OW41066   6.966   7.208  14.427
46390SOL    HW141067   7.043   7.152  14.438
46390SOL    HW241068   6.997   7.282  14.376
46391SOL     OW41069   2.803  14.319   6.537
46391SOL    HW141070   2.744  14.287   6.605
46391SOL    HW241071   2.746  14.361   6.473
46392SOL     OW41072   9.535   8.015  13.353
46392SOL    HW141073   9.507   7.924  13.364
46392SOL    HW241074   9.584   8.015  13.270
46393SOL     OW41075  14.303  13.704   1.193
46393SOL    HW141076  14.369  13.724   1.126
46393SOL    HW241077  14.322  13.764   1.264
46394SOL     OW41078   9.709  13.852   0.298
46394SOL    HW141079   9.729  13.945   0.291
46394SOL    HW241080   9.744  13.814   0.217
46395SOL     OW41081  11.837  12.774   4.622
46395SOL    HW141082  11.756  12.774   4.672
46395SOL    HW241083  11.830  12.851   4.565
46396SOL     OW41084  12.410  14.381  13.759
46396SOL    HW141085  12.499  14.393  13.792
46396SOL    HW241086  12.422  14.357  13.667
46397SOL     OW41087  10.096   1.731   1.018
46397SOL    HW141088  10.066   1.745   0.928
46397SOL    HW241089  10.188   1.704   1.008
46398SOL     OW41090  11.093  10.411   3.632
46398SOL    HW141091  11.048  10.473   3.574
46398SOL    HW241092  11.167  10.378   3.581
46399SOL     OW41093  13.151   7.978  14.656
46399SOL    HW141094  13.235   8.023  14.646
46399SOL    HW241095  13.134   7.979  14.750
46400SOL     OW41096   9.322  10.838   0.262
46400SOL    HW141097   9.325  10.751   0.302
46400SOL    HW241098   9.339  10.899   0.334
46401SOL     OW41099  10.436   5.819  14.207
46401SOL    HW141100  10.378   5.747  14.233
46401SOL    HW241101  10.413   5.837  14.116
46402SOL     OW41102   2.969  11.821   4.084
46402SOL    HW141103   3.045  11.874   4.107
46402SOL    HW241104   2.946  11.847   3.995
46403SOL     OW41105   6.158   4.128   6.660
46403SOL    HW141106   6.120   4.058   6.607
46403SOL    HW241107   6.111   4.124   6.743
46404SOL     OW41108   1.865   7.555   0.133
46404SOL    HW141109   1.940   7.594   0.088
46404SOL    HW241110   1.795   7.618   0.122
46405SOL     OW41111   3.331   8.800   2.990
46405SOL    HW141112   3.394   8.730   3.005
46405SOL    HW241113   3.314   8.798   2.896
46406SOL     OW41114  13.234  12.794   1.005
46406SOL    HW141115  13.197  12.706   1.004
46406SOL    HW241116  13.202  12.833   1.086
46407SOL     OW41117  10.661  10.515   5.366
46407SOL    HW141118  10.743  10.473   5.339
46407SOL    HW241119  10.613  10.446   5.411
46408SOL     OW41120  10.169   9.291   7.961
46408SOL    HW141121  10.179   9.320   8.051
46408SOL    HW241122  10.074   9.279   7.950
46409SOL     OW41123  14.276   9.699   7.011
46409SOL    HW141124  14.232   9.637   6.952
46409SOL    HW241125  14.350   9.731   6.960
46410SOL     OW41126  10.165   0.706  14.641
46410SOL    HW141127  10.142   0.724  14.550
46410SOL    HW241128  10.260   0.720  14.646
46411SOL     OW41129   6.812  14.608   2.751
46411SOL    HW141130   6.864  14.528   2.744
46411SOL    HW241131   6.792  14.616   2.844
46412SOL     OW41132   7.974   1.482   4.008
46412SOL    HW141133   8.007   1.565   3.974
46412SOL    HW241134   7.920   1.447   3.937
46413SOL     OW41135  13.790   3.200   6.693
46413SOL    HW141136  13.847   3.269   6.659
46413SOL    HW241137  13.844   3.121   6.691
46414SOL     OW41138  12.805   1.815   8.660
46414SOL    HW141139  12.727   1.795   8.609
46414SOL    HW241140  12.877   1.811   8.597
46415SOL     OW41141   5.392   2.669  13.345
46415SOL    HW141142   5.436   2.681  13.429
46415SOL    HW241143   5.410   2.578  13.321
46416SOL     OW41144   3.039   2.522  13.790
46416SOL    HW141145   3.076   2.443  13.831
46416SOL    HW241146   3.087   2.531  13.708
46417SOL     OW41147  14.492  13.523  11.326
46417SOL    HW141148  14.478  13.463  11.253
46417SOL    HW241149  14.408  13.569  11.336
46418SOL     OW41150  13.463   6.295  12.239
46418SOL    HW141151  13.410   6.321  12.314
46418SOL    HW241152  13.402   6.249  12.182
46419SOL     OW41153  14.328   8.671   3.262
46419SOL    HW141154  14.243   8.638   3.288
46419SOL    HW241155  14.353   8.732   3.332
46420SOL     OW41156   3.080  10.784  10.430
46420SOL    HW141157   3.167  10.824  10.434
46420SOL    HW241158   3.086  10.710  10.490
46421SOL     OW41159   7.026  14.729   7.985
46421SOL    HW141160   6.942  14.748   8.026
46421SOL    HW241161   7.004  14.705   7.895
46422SOL     OW41162  13.197   1.808   8.003
46422SOL    HW141163  13.181   1.902   8.014
46422SOL    HW241164  13.247   1.783   8.081
46423SOL     OW41165  10.508   8.510   4.331
46423SOL    HW141166  10.419   8.541   4.318
46423SOL    HW241167  10.499   8.418   4.356
46424SOL     OW41168   7.581   9.932  10.782
46424SOL    HW141169   7.628   9.929  10.699
46424SOL    HW241170   7.536  10.017  10.782
46425SOL     OW41171  13.348   6.910   7.771
46425SOL    HW141172  13.255   6.885   7.773
46425SOL    HW241173  13.380   6.874   7.688
46426SOL     OW41174  11.867  14.007   5.500
46426SOL    HW141175  11.810  14.062   5.552
46426SOL    HW241176  11.948  14.057   5.491
46427SOL     OW41177   3.268   4.600   9.069
46427SOL    HW141178   3.319   4.602   8.987
46427SOL    HW241179   3.224   4.685   9.072
46428SOL     OW41180  14.717  11.434   4.409
46428SOL    HW141181  14.707  11.526   4.434
46428SOL    HW241182  14.792  11.433   4.350
46429SOL     OW41183   3.747   2.607  10.812
46429SOL    HW141184   3.842   2.620  10.803
46429SOL    HW241185   3.720   2.673  10.876
46430SOL     OW41186  11.240  10.882   1.219
46430SOL    HW141187  11.210  10.965   1.258
46430SOL    HW241188  11.212  10.815   1.281
46431SOL     OW41189   1.614   6.349   7.879
46431SOL    HW141190   1.531   6.391   7.860
46431SOL    HW241191   1.666   6.361   7.799
46432SOL     OW41192  11.009   6.650  12.172
46432SOL    HW141193  11.035   6.560  12.152
46432SOL    HW241194  11.027   6.660  12.265
46433SOL     OW41195  13.162   2.306  13.103
46433SOL    HW141196  13.204   2.250  13.037
46433SOL    HW241197  13.131   2.245  13.169
46434SOL     OW41198   2.496  12.842   9.590
46434SOL    HW141199   2.473  12.901   9.517
46434SOL    HW241200   2.421  12.783   9.597
46435SOL     OW41201   2.440   0.590   7.791
46435SOL    HW141202   2.400   0.511   7.826
46435SOL    HW241203   2.388   0.610   7.713
46436SOL     OW41204  12.624  13.761   9.159
46436SOL    HW141205  12.708  13.794   9.126
46436SOL    HW241206  12.639  13.667   9.171
46437SOL     OW41207   5.166   4.863   8.251
46437SOL    HW141208   5.143   4.937   8.305
46437SOL    HW241209   5.104   4.865   8.178
46438SOL     OW41210   2.996   4.339   0.726
46438SOL    HW141211   2.942   4.383   0.792
46438SOL    HW241212   2.998   4.401   0.652
46439SOL     OW41213   8.784   8.568   4.520
46439SOL    HW141214   8.744   8.622   4.588
46439SOL    HW241215   8.841   8.628   4.472
46440SOL     OW41216   1.479   9.695   6.272
46440SOL    HW141217   1.398   9.648   6.251
46440SOL    HW241218   1.449   9.775   6.315
46441SOL     OW41219   8.704  12.808  12.865
46441SOL    HW141220   8.635  12.781  12.926
46441SOL    HW241221   8.679  12.770  12.782
46442SOL     OW41222  12.175   5.285   4.234
46442SOL    HW141223  12.096   5.337   4.247
46442SOL    HW241224  12.144   5.194   4.232
46443SOL     OW41225   9.024   8.541   0.115
46443SOL    HW141226   9.014   8.562   0.208
46443SOL    HW241227   9.081   8.610   0.081
46444SOL     OW41228   1.674  10.183   3.745
46444SOL    HW141229   1.707  10.206   3.833
46444SOL    HW241230   1.639  10.265   3.711
46445SOL     OW41231   7.145   8.095   5.508
46445SOL    HW141232   7.160   8.118   5.599
46445SOL    HW241233   7.223   8.047   5.482
46446SOL     OW41234   3.782   8.671   9.131
46446SOL    HW141235   3.744   8.631   9.210
46446SOL    HW241236   3.809   8.759   9.160
46447SOL     OW41237   7.814   6.403  13.144
46447SOL    HW141238   7.880   6.463  13.179
46447SOL    HW241239   7.854   6.317  13.152
46448SOL     OW41240   1.404   7.558  12.142
46448SOL    HW141241   1.496   7.552  12.116
46448SOL    HW241242   1.392   7.491  12.209
46449SOL     OW41243   8.883  14.394   8.913
46449SOL    HW141244   8.964  14.444   8.928
46449SOL    HW241245   8.816  14.443   8.961
46450SOL     OW41246   1.401  10.526   2.631
46450SOL    HW141247   1.306  10.526   2.642
46450SOL    HW241248   1.418  10.461   2.563
46451SOL     OW41249  13.697   3.450  12.427
46451SOL    HW141250  13.654   3.497  12.356
46451SOL    HW241251  13.790   3.464  12.412
46452SOL     OW41252  10.704   6.023   1.605
46452SOL    HW141253  10.724   5.982   1.521
46452SOL    HW241254  10.696   6.116   1.585
46453SOL     OW41255   8.803   6.592   8.875
46453SOL    HW141256   8.729   6.635   8.918
46453SOL    HW241257   8.766   6.513   8.836
46454SOL     OW41258  13.415  13.345   8.147
46454SOL    HW141259  13.415  13.437   8.175
46454SOL    HW241260  13.457  13.298   8.219
46455SOL     OW41261  12.742   8.570  13.925
46455SOL    HW141262  12.765   8.494  13.872
46455SOL    HW241263  12.723   8.639  13.861
46456SOL     OW41264   5.464  13.754  12.051
46456SOL    HW141265   5.402  13.752  11.977
46456SOL    HW241266   5.526  13.684  12.033
46457SOL     OW41267   9.508  12.921  14.206
46457SOL    HW141268   9.572  12.985  14.174
46457SOL    HW241269   9.440  12.919  14.138
46458SOL     OW41270  14.651  13.454   0.783
46458SOL    HW141271  14.676  13.523   0.723
46458SOL    HW241272  14.626  13.380   0.727
46459SOL     OW41273  10.187   2.044   5.177
46459SOL    HW141274  10.218   2.097   5.104
46459SOL    HW241275  10.188   2.104   5.252
46460SOL     OW41276   1.424   0.419   9.273
46460SOL    HW141277   1.430   0.324   9.265
46460SOL    HW241278   1.385   0.433   9.360
46461SOL     OW41279   1.801   7.109   6.420
46461SOL    HW141280   1.807   7.140   6.510
46461SOL    HW241281   1.891   7.098   6.391
46462SOL     OW41282   2.147   9.288   5.209
46462SOL    HW141283   2.150   9.358   5.274
46462SOL    HW241284   2.076   9.313   5.149
46463SOL     OW41285  10.554   1.251   2.660
46463SOL    HW141286  10.500   1.251   2.739
46463SOL    HW241287  10.618   1.320   2.674
46464SOL     OW41288   9.214   6.397  12.835
46464SOL    HW141289   9.261   6.358  12.908
46464SOL    HW241290   9.262   6.479  12.817
46465SOL     OW41291   4.878   8.763   6.219
46465SOL    HW141292   4.791   8.735   6.247
46465SOL    HW241293   4.867   8.788   6.127
46466SOL     OW41294   1.709  12.009  10.377
46466SOL    HW141295   1.790  12.048  10.408
46466SOL    HW241296   1.651  12.084  10.361
46467SOL     OW41297   3.515  13.540   0.867
46467SOL    HW141298   3.599  13.582   0.886
46467SOL    HW241299   3.471  13.534   0.952
46468SOL     OW41300   0.595  12.073   7.393
46468SOL    HW141301   0.536  12.057   7.467
46468SOL    HW241302   0.674  12.110   7.433
46469SOL     OW41303  13.660  14.133  12.918
46469SOL    HW141304  13.638  14.223  12.942
46469SOL    HW241305  13.710  14.140  12.837
46470SOL     OW41306   6.002   2.034   6.525
46470SOL    HW141307   6.071   2.033   6.459
46470SOL    HW241308   6.005   1.947   6.564
46471SOL     OW41309   5.819  13.145  14.124
46471SOL    HW141310   5.748  13.081  14.124
46471SOL    HW241311   5.851  13.145  14.214
46472SOL     OW41312  11.944   1.396   5.531
46472SOL    HW141313  11.981   1.443   5.457
46472SOL    HW241314  11.948   1.304   5.505
46473SOL     OW41315  11.119   8.717   8.507
46473SOL    HW141316  11.194   8.679   8.552
46473SOL    HW241317  11.142   8.714   8.414
46474SOL     OW41318  11.950  12.890  13.494
46474SOL    HW141319  12.039  12.925  13.486
46474SOL    HW241320  11.941  12.870  13.587
46475SOL     OW41321   5.489   2.924   8.244
46475SOL    HW141322   5.508   2.876   8.325
46475SOL    HW241323   5.553   2.891   8.182
46476SOL     OW41324   0.249   8.104   2.281
46476SOL    HW141325   0.228   8.194   2.257
46476SOL    HW241326   0.278   8.063   2.200
46477SOL     OW41327   4.801  14.772  10.519
46477SOL    HW141328   4.787  14.814  10.604
46477SOL    HW241329   4.735  14.811  10.462
46478SOL     OW41330   7.266   0.195   2.567
46478SOL    HW141331   7.181   0.218   2.528
46478SOL    HW241332   7.299   0.277   2.604
46479SOL     OW41333   4.013  14.871   0.569
46479SOL    HW141334   3.983   0.060   0.501
46479SOL    HW241335   3.935  14.853   0.621
46480SOL     OW41336   7.858   6.874  11.029
46480SOL    HW141337   7.911   6.873  10.950
46480SOL    HW241338   7.816   6.960  11.029
46481SOL     OW41339   8.906   5.612   7.961
46481SOL    HW141340   8.824   5.590   7.918
46481SOL    HW241341   8.902   5.568   8.046
46482SOL     OW41342   4.183  14.492   1.878
46482SOL    HW141343   4.256  14.502   1.939
46482SOL    HW241344   4.118  14.556   1.908
46483SOL     OW41345   9.549   7.793   4.143
46483SOL    HW141346   9.484   7.863   4.136
46483SOL    HW241347   9.509   7.730   4.204
46484SOL     OW41348   1.988  11.270  10.290
46484SOL    HW141349   2.004  11.344  10.231
46484SOL    HW241350   1.905  11.291  10.332
46485SOL     OW41351  11.735  13.225   9.527
46485SOL    HW141352  11.654  13.234   9.576
46485SOL    HW241353  11.803  13.218   9.595
46486SOL     OW41354   4.123   5.709  12.675
46486SOL    HW141355   4.185   5.674  12.611
46486SOL    HW241356   4.074   5.632  12.704
46487SOL     OW41357   2.378   2.055  13.101
46487SOL    HW141358   2.391   2.139  13.057
46487SOL    HW241359   2.296   2.021  13.065
46488SOL     OW41360   5.207   3.876   6.105
46488SOL    HW141361   5.175   3.837   6.023
46488SOL    HW241362   5.142   3.942   6.127
46489SOL     OW41363  14.027   4.532   7.721
46489SOL    HW141364  13.948   4.523   7.776
46489SOL    HW241365  14.093   4.480   7.766
46490SOL     OW41366   5.871   2.082  12.057
46490SOL    HW141367   5.778   2.104  12.057
46490SOL    HW241368   5.899   2.097  11.967
46491SOL     OW41369  10.285   7.004   3.390
46491SOL    HW141370  10.369   7.006   3.344
46491SOL    HW241371  10.301   6.951   3.468
46492SOL     OW41372   6.180   1.904   8.816
46492SOL    HW141373   6.171   1.810   8.796
46492SOL    HW241374   6.227   1.940   8.742
46493SOL     OW41375   1.095   1.483  11.994
46493SOL    HW141376   1.038   1.554  12.025
46493SOL    HW241377   1.129   1.514  11.910
46494SOL     OW41378   2.892   5.490  11.045
46494SOL    HW141379   2.914   5.582  11.055
46494SOL    HW241380   2.907   5.452  11.131
46495SOL     OW41381   9.258  13.352   1.390
46495SOL    HW141382   9.216  13.391   1.466
46495SOL    HW241383   9.349  13.383   1.394
46496SOL     OW41384   1.666  14.701  11.036
46496SOL    HW141385   1.735  14.726  10.975
46496SOL    HW241386   1.587  14.692  10.982
46497SOL     OW41387   2.062  13.990   8.227
46497SOL    HW141388   2.052  14.058   8.293
46497SOL    HW241389   1.979  13.943   8.227
46498SOL     OW41390   5.155   3.720  11.319
46498SOL    HW141391   5.117   3.772  11.248
46498SOL    HW241392   5.250   3.730  11.307
46499SOL     OW41393  12.456   3.717   1.542
46499SOL    HW141394  12.402   3.747   1.615
46499SOL    HW241395  12.448   3.787   1.477
46500SOL     OW41396   7.006  12.664   7.524
46500SOL    HW141397   7.058  12.598   7.570
46500SOL    HW241398   6.932  12.681   7.583
46501SOL     OW41399  13.733   8.682  13.786
46501SOL    HW141400  13.736   8.588  13.771
46501SOL    HW241401  13.825   8.708  13.792
46502SOL     OW41402   7.327  13.372   5.510
46502SOL    HW141403   7.249  13.404   5.465
46502SOL    HW241404   7.390  13.443   5.502
46503SOL     OW41405  10.622  11.066   0.762
46503SOL    HW141406  10.600  11.054   0.855
46503SOL    HW241407  10.637  10.977   0.729
46504SOL     OW41408  13.748  13.884  13.472
46504SOL    HW141409  13.810  13.956  13.456
46504SOL    HW241410  13.747  13.834  13.391
46505SOL     OW41411  10.943  10.186  12.745
46505SOL    HW141412  10.920  10.108  12.695
46505SOL    HW241413  10.950  10.156  12.836
46506SOL     OW41414   3.108   6.456  13.647
46506SOL    HW141415   3.199   6.452  13.676
46506SOL    HW241416   3.113   6.450  13.552
46507SOL     OW41417  11.073  13.897   1.304
46507SOL    HW141418  11.027  13.820   1.337
46507SOL    HW241419  11.165  13.872   1.304
46508SOL     OW41420   2.012   2.516   0.220
46508SOL    HW141421   1.992   2.436   0.268
46508SOL    HW241422   2.061   2.486   0.143
46509SOL     OW41423  14.816  10.683   5.277
46509SOL    HW141424  14.744  10.621   5.290
46509SOL    HW241425  14.831  10.722   5.363
46510SOL     OW41426  12.048   5.350  12.082
46510SOL    HW141427  12.012   5.371  12.168
46510SOL    HW241428  12.114   5.417  12.066
46511SOL     OW41429  12.049  13.973   8.506
46511SOL    HW141430  12.103  14.041   8.465
46511SOL    HW241431  12.049  13.995   8.599
46512SOL     OW41432  11.000  11.074   5.045
46512SOL    HW141433  10.966  11.088   5.133
46512SOL    HW241434  10.941  11.124   4.988
46513SOL     OW41435   4.290   2.884   6.018
46513SOL    HW141436   4.230   2.931   6.076
46513SOL    HW241437   4.296   2.939   5.940
46514SOL     OW41438  12.578   2.000   3.504
46514SOL    HW141439  12.490   2.033   3.487
46514SOL    HW241440  12.575   1.909   3.472
46515SOL     OW41441  14.376   9.042   2.387
46515SOL    HW141442  14.309   8.985   2.348
46515SOL    HW241443  14.458   8.994   2.374
46516SOL     OW41444   3.267   2.145   8.378
46516SOL    HW141445   3.248   2.141   8.471
46516SOL    HW241446   3.293   2.236   8.363
46517SOL     OW41447  10.114  12.932   2.327
46517SOL    HW141448  10.106  13.020   2.290
46517SOL    HW241449  10.104  12.874   2.252
46518SOL     OW41450   9.592   9.477   1.177
46518SOL    HW141451   9.624   9.562   1.147
46518SOL    HW241452   9.518   9.457   1.120
46519SOL     OW41453   4.219  10.008   5.782
46519SOL    HW141454   4.150  10.028   5.718
46519SOL    HW241455   4.223  10.086   5.838
46520SOL     OW41456   8.598   1.151  10.105
46520SOL    HW141457   8.685   1.119  10.127
46520SOL    HW241458   8.614   1.230  10.052
46521SOL     OW41459   7.775  14.535   8.749
46521SOL    HW141460   7.694  14.542   8.799
46521SOL    HW241461   7.843  14.560   8.812
46522SOL     OW41462   6.815  14.046  12.919
46522SOL    HW141463   6.827  14.089  13.004
46522SOL    HW241464   6.759  14.105  12.870
46523SOL     OW41465   6.694   5.863   8.114
46523SOL    HW141466   6.629   5.922   8.076
46523SOL    HW241467   6.774   5.916   8.118
46524SOL     OW41468   6.381   7.993   0.887
46524SOL    HW141469   6.287   7.975   0.896
46524SOL    HW241470   6.392   8.080   0.926
46525SOL     OW41471   5.006   6.546   4.509
46525SOL    HW141472   5.102   6.549   4.516
46525SOL    HW241473   4.981   6.635   4.484
46526SOL     OW41474  13.304   0.441   6.563
46526SOL    HW141475  13.241   0.504   6.529
46526SOL    HW241476  13.362   0.493   6.619
46527SOL     OW41477  14.616  10.902   6.366
46527SOL    HW141478  14.626  10.996   6.380
46527SOL    HW241479  14.550  10.875   6.430
46528SOL     OW41480   1.528   3.475  10.881
46528SOL    HW141481   1.597   3.506  10.940
46528SOL    HW241482   1.538   3.380  10.880
46529SOL     OW41483   3.072  10.364  11.405
46529SOL    HW141484   3.060  10.439  11.347
46529SOL    HW241485   2.993  10.363  11.460
46530SOL     OW41486  12.281   8.162   6.600
46530SOL    HW141487  12.313   8.249   6.625
46530SOL    HW241488  12.198   8.153   6.647
46531SOL     OW41489   9.878   6.103  10.244
46531SOL    HW141490   9.948   6.130  10.304
46531SOL    HW241491   9.880   6.168  10.174
46532SOL     OW41492   0.954  11.541   5.705
46532SOL    HW141493   0.958  11.595   5.626
46532SOL    HW241494   1.045  11.524   5.727
46533SOL     OW41495   4.436  11.494   0.369
46533SOL    HW141496   4.453  11.510   0.462
46533SOL    HW241497   4.505  11.542   0.324
46534SOL     OW41498  11.156  10.603  13.495
46534SOL    HW141499  11.203  10.594  13.412
46534SOL    HW241500  11.071  10.640  13.470
46535SOL     OW41501  10.488  12.747  12.994
46535SOL    HW141502  10.468  12.682  12.926
46535SOL    HW241503  10.461  12.830  12.956
46536SOL     OW41504  10.014  11.537   8.686
46536SOL    HW141505   9.939  11.491   8.722
46536SOL    HW241506   9.979  11.618   8.650
46537SOL     OW41507   0.313  10.379   0.516
46537SOL    HW141508   0.268  10.368   0.599
46537SOL    HW241509   0.396  10.422   0.539
46538SOL     OW41510  13.286   5.550  11.658
46538SOL    HW141511  13.348   5.611  11.619
46538SOL    HW241512  13.214   5.546  11.596
46539SOL     OW41513  14.738  12.242  10.636
46539SOL    HW141514  14.760  12.307  10.703
46539SOL    HW241515  14.680  12.288  10.576
46540SOL     OW41516  13.660   1.335  13.802
46540SOL    HW141517  13.719   1.365  13.733
46540SOL    HW241518  13.701   1.254  13.835
46541SOL     OW41519   5.653   9.049   6.016
46541SOL    HW141520   5.677   8.957   5.999
46541SOL    HW241521   5.560   9.054   5.994
46542SOL     OW41522  11.833  12.099  10.517
46542SOL    HW141523  11.827  12.156  10.440
46542SOL    HW241524  11.760  12.125  10.572
46543SOL     OW41525   9.355   2.890   4.910
46543SOL    HW141526   9.412   2.946   4.963
46543SOL    HW241527   9.316   2.950   4.846
46544SOL     OW41528   6.187  12.501  13.031
46544SOL    HW141529   6.143  12.573  12.986
46544SOL    HW241530   6.274  12.535  13.053
46545SOL     OW41531  10.143   4.868   1.852
46545SOL    HW141532  10.145   4.924   1.930
46545SOL    HW241533  10.160   4.780   1.885
46546SOL     OW41534  14.238  14.794   5.161
46546SOL    HW141535  14.325  14.826   5.184
46546SOL    HW241536  14.235  14.705   5.198
46547SOL     OW41537   4.153  13.176   7.904
46547SOL    HW141538   4.180  13.251   7.957
46547SOL    HW241539   4.204  13.184   7.823
46548SOL     OW41540  14.392   3.697   3.374
46548SOL    HW141541  14.481   3.727   3.394
46548SOL    HW241542  14.337   3.735   3.442
46549SOL     OW41543   3.201   2.617   5.615
46549SOL    HW141544   3.290   2.593   5.589
46549SOL    HW241545   3.145   2.554   5.570
46550SOL     OW41546   4.623   1.906   4.401
46550SOL    HW141547   4.547   1.942   4.447
46550SOL    HW241548   4.693   1.906   4.467
46551SOL     OW41549  12.966  13.771  13.283
46551SOL    HW141550  13.036  13.754  13.346
46551SOL    HW241551  12.955  13.866  13.285
46552SOL     OW41552   2.267   5.293  13.581
46552SOL    HW141553   2.342   5.348  13.556
46552SOL    HW241554   2.258   5.231  13.509
46553SOL     OW41555   4.239   7.012  10.123
46553SOL    HW141556   4.327   6.982  10.103
46553SOL    HW241557   4.183   6.969  10.058
46554SOL     OW41558  13.386   3.028  14.243
46554SOL    HW141559  13.299   3.035  14.203
46554SOL    HW241560  13.387   2.941  14.282
46555SOL     OW41561   7.521  12.230   0.302
46555SOL    HW141562   7.518  12.231   0.397
46555SOL    HW241563   7.431  12.213   0.275
46556SOL     OW41564   7.505   9.021  10.729
46556SOL    HW141565   7.424   9.014  10.779
46556SOL    HW241566   7.480   8.993  10.640
46557SOL     OW41567   3.241  12.172   2.113
46557SOL    HW141568   3.221  12.115   2.187
46557SOL    HW241569   3.165  12.166   2.056
46558SOL     OW41570   7.722   0.859   1.153
46558SOL    HW141571   7.658   0.809   1.103
46558SOL    HW241572   7.748   0.930   1.095
46559SOL     OW41573   3.284   1.569   2.089
46559SOL    HW141574   3.325   1.505   2.030
46559SOL    HW241575   3.241   1.631   2.031
46560SOL     OW41576   7.650   4.788  11.090
46560SOL    HW141577   7.743   4.782  11.070
46560SOL    HW241578   7.645   4.776  11.185
46561SOL     OW41579   7.554   0.944   2.050
46561SOL    HW141580   7.609   0.891   1.993
46561SOL    HW241581   7.607   0.960   2.128
46562SOL     OW41582   5.602  10.947   1.553
46562SOL    HW141583   5.636  10.930   1.466
46562SOL    HW241584   5.602  11.042   1.561
46563SOL     OW41585  12.012  12.380  12.379
46563SOL    HW141586  12.001  12.316  12.309
46563SOL    HW241587  12.031  12.462  12.334
46564SOL     OW41588  12.781  12.348   2.491
46564SOL    HW141589  12.730  12.416   2.447
46564SOL    HW241590  12.836  12.397   2.553
46565SOL     OW41591  14.684  13.453  14.512
46565SOL    HW141592  14.718  13.371  14.475
46565SOL    HW241593  14.645  13.427  14.595
46566SOL     OW41594   9.587   9.570  13.649
46566SOL    HW141595   9.633   9.651  13.625
46566SOL    HW241596   9.647   9.500  13.621
46567SOL     OW41597  14.451   5.737   5.076
46567SOL    HW141598  14.535   5.694   5.059
46567SOL    HW241599  14.467   5.790   5.154
46568SOL     OW41600  13.159   7.485   9.372
46568SOL    HW141601  13.097   7.413   9.385
46568SOL    HW241602  13.120   7.538   9.303
46569SOL     OW41603  10.630  13.096   4.408
46569SOL    HW141604  10.650  13.144   4.328
46569SOL    HW241605  10.713  13.055   4.433
46570SOL     OW41606   7.720  11.030   1.007
46570SOL    HW141607   7.765  11.086   1.071
46570SOL    HW241608   7.657  11.088   0.964
46571SOL     OW41609   2.637   4.257  14.569
46571SOL    HW141610   2.639   4.351  14.587
46571SOL    HW241611   2.725   4.238  14.537
46572SOL     OW41612   6.391   3.844  10.852
46572SOL    HW141613   6.315   3.894  10.820
46572SOL    HW241614   6.444   3.909  10.898
46573SOL     OW41615   6.076   6.205  10.369
46573SOL    HW141616   6.004   6.146  10.393
46573SOL    HW241617   6.040   6.292  10.383
46574SOL     OW41618  14.658   3.129   0.793
46574SOL    HW141619  14.627   3.041   0.815
46574SOL    HW241620  14.629   3.144   0.703
46575SOL     OW41621  12.191   4.182  14.547
46575SOL    HW141622  12.168   4.089  14.538
46575SOL    HW241623  12.119   4.219  14.598
46576SOL     OW41624  11.271  13.235   8.388
46576SOL    HW141625  11.325  13.210   8.313
46576SOL    HW241626  11.323  13.211   8.465
46577SOL     OW41627   7.141   0.581  10.330
46577SOL    HW141628   7.132   0.663  10.280
46577SOL    HW241629   7.070   0.526  10.298
46578SOL     OW41630  13.742  11.540   6.654
46578SOL    HW141631  13.754  11.519   6.562
46578SOL    HW241632  13.709  11.630   6.654
46579SOL     OW41633  11.660   4.110   8.772
46579SOL    HW141634  11.609   4.133   8.850
46579SOL    HW241635  11.684   4.194   8.733
46580SOL     OW41636   1.479   0.122  11.782
46580SOL    HW141637   1.523   0.205  11.801
46580SOL    HW241638   1.393   0.131  11.824
46581SOL     OW41639   3.487   2.205   2.625
46581SOL    HW141640   3.411   2.186   2.571
46581SOL    HW241641   3.459   2.276   2.683
46582SOL     OW41642   7.360  11.894  11.602
46582SOL    HW141643   7.419  11.882  11.676
46582SOL    HW241644   7.273  11.899  11.641
46583SOL     OW41645  10.560   4.604   3.129
46583SOL    HW141646  10.582   4.517   3.162
46583SOL    HW241647  10.482   4.591   3.075
46584SOL     OW41648  14.176   4.858   3.661
46584SOL    HW141649  14.218   4.938   3.628
46584SOL    HW241650  14.122   4.888   3.734
46585SOL     OW41651  10.984   7.363  10.840
46585SOL    HW141652  10.894   7.395  10.833
46585SOL    HW241653  10.975   7.271  10.867
46586SOL     OW41654   7.986  13.287  11.822
46586SOL    HW141655   7.981  13.383  11.817
46586SOL    HW241656   8.079  13.269  11.834
46587SOL     OW41657   1.070   7.065  12.755
46587SOL    HW141658   1.094   7.075  12.663
46587SOL    HW241659   0.977   7.040  12.753
46588SOL     OW41660  11.824   7.713   8.866
46588SOL    HW141661  11.752   7.776   8.861
46588SOL    HW241662  11.889   7.754   8.922
46589SOL     OW41663  14.869   9.436  13.273
46589SOL    HW141664   0.043   9.426  13.356
46589SOL    HW241665  14.817   9.516  13.284
46590SOL     OW41666  13.830   1.600   8.229
46590SOL    HW141667  13.901   1.604   8.165
46590SOL    HW241668  13.801   1.509   8.227
46591SOL     OW41669  10.762   8.701   4.837
46591SOL    HW141670  10.713   8.700   4.920
46591SOL    HW241671  10.711   8.644   4.779
46592SOL     OW41672   8.548   1.945  14.161
46592SOL    HW141673   8.601   1.944  14.241
46592SOL    HW241674   8.489   2.019  14.172
46593SOL     OW41675   5.634   2.267   2.731
46593SOL    HW141676   5.643   2.178   2.697
46593SOL    HW241677   5.719   2.307   2.717
46594SOL     OW41678   7.140  13.209   6.075
46594SOL    HW141679   7.168  13.255   5.996
46594SOL    HW241680   7.175  13.262   6.147
46595SOL     OW41681  13.952   6.682   0.904
46595SOL    HW141682  13.869   6.721   0.878
46595SOL    HW241683  13.996   6.751   0.954
46596SOL     OW41684   5.937   4.094   9.467
46596SOL    HW141685   5.938   4.189   9.481
46596SOL    HW241686   5.845   4.073   9.452
46597SOL     OW41687  11.483   2.251   7.352
46597SOL    HW141688  11.520   2.318   7.295
46597SOL    HW241689  11.478   2.173   7.297
46598SOL     OW41690   9.393  11.713   8.667
46598SOL    HW141691   9.409  11.783   8.731
46598SOL    HW241692   9.410  11.755   8.582
46599SOL     OW41693   4.674   0.005  13.413
46599SOL    HW141694   4.751   0.032  13.462
46599SOL    HW241695   4.632  14.811  13.468
46600SOL     OW41696   9.796   3.705  10.431
46600SOL    HW141697   9.885   3.717  10.465
46600SOL    HW241698   9.741   3.704  10.509
46601SOL     OW41699   5.078   3.051   7.319
46601SOL    HW141700   5.122   3.001   7.250
46601SOL    HW241701   4.999   3.085   7.277
46602SOL     OW41702  10.489   6.562  10.951
46602SOL    HW141703  10.527   6.637  10.997
46602SOL    HW241704  10.480   6.592  10.861
46603SOL     OW41705   1.797   0.898   2.784
46603SOL    HW141706   1.784   0.992   2.776
46603SOL    HW241707   1.827   0.884   2.874
46604SOL     OW41708   1.498   1.589   5.425
46604SOL    HW141709   1.451   1.514   5.390
46604SOL    HW241710   1.468   1.596   5.515
46605SOL     OW41711  10.275   4.857   7.335
46605SOL    HW141712  10.239   4.914   7.268
46605SOL    HW241713  10.215   4.865   7.409
46606SOL     OW41714   9.206   4.373   0.667
46606SOL    HW141715   9.118   4.375   0.631
46606SOL    HW241716   9.259   4.421   0.604
46607SOL     OW41717   7.642  12.004   7.889
46607SOL    HW141718   7.650  11.920   7.934
46607SOL    HW241719   7.577  12.053   7.939
46608SOL     OW41720   2.055   9.413  13.548
46608SOL    HW141721   2.093   9.428  13.461
46608SOL    HW241722   1.972   9.368  13.530
46609SOL     OW41723   5.659   8.472   5.690
46609SOL    HW141724   5.668   8.532   5.764
46609SOL    HW241725   5.568   8.443   5.694
46610SOL     OW41726  12.916  11.492  13.471
46610SOL    HW141727  12.827  11.524  13.488
46610SOL    HW241728  12.967  11.571  13.455
46611SOL     OW41729  13.670   3.633  10.813
46611SOL    HW141730  13.635   3.573  10.879
46611SOL    HW241731  13.656   3.587  10.730
46612SOL     OW41732  14.097  13.651  10.625
46612SOL    HW141733  14.027  13.587  10.637
46612SOL    HW241734  14.169  13.619  10.678
46613SOL     OW41735   2.460  11.965   2.582
46613SOL    HW141736   2.416  11.985   2.664
46613SOL    HW241737   2.409  11.895   2.543
46614SOL     OW41738   3.706   8.072   9.129
46614SOL    HW141739   3.687   8.143   9.190
46614SOL    HW241740   3.785   8.101   9.083
46615SOL     OW41741  13.147   6.262   5.947
46615SOL    HW141742  13.055   6.287   5.932
46615SOL    HW241743  13.195   6.345   5.944
46616SOL     OW41744   6.539  13.929  13.427
46616SOL    HW141745   6.579  13.861  13.373
46616SOL    HW241746   6.459  13.888  13.461
46617SOL     OW41747   9.750   7.758   1.506
46617SOL    HW141748   9.664   7.786   1.539
46617SOL    HW241749   9.736   7.667   1.479
46618SOL     OW41750   5.633   9.506  12.037
46618SOL    HW141751   5.608   9.470  12.122
46618SOL    HW241752   5.578   9.459  11.974
46619SOL     OW41753   3.900   8.680   3.162
46619SOL    HW141754   3.985   8.684   3.204
46619SOL    HW241755   3.839   8.714   3.227
46620SOL     OW41756   3.729   9.598  10.426
46620SOL    HW141757   3.635   9.610  10.416
46620SOL    HW241758   3.738   9.517  10.477
46621SOL     OW41759   6.675   6.365   8.439
46621SOL    HW141760   6.770   6.360   8.434
46621SOL    HW241761   6.644   6.305   8.370
46622SOL     OW41762  12.975   1.368  11.307
46622SOL    HW141763  13.070   1.370  11.293
46622SOL    HW241764  12.964   1.318  11.388
46623SOL     OW41765  11.773  11.823  12.139
46623SOL    HW141766  11.738  11.826  12.050
46623SOL    HW241767  11.844  11.758  12.135
46624SOL     OW41768  12.062   1.424   2.253
46624SOL    HW141769  12.030   1.347   2.300
46624SOL    HW241770  11.982   1.468   2.223
46625SOL     OW41771  11.350  14.329  13.953
46625SOL    HW141772  11.341  14.338  14.047
46625SOL    HW241773  11.322  14.239  13.934
46626SOL     OW41774  13.720  12.998  14.018
46626SOL    HW141775  13.638  13.004  14.067
46626SOL    HW241776  13.711  13.062  13.948
46627SOL     OW41777  12.591   0.768   2.293
46627SOL    HW141778  12.630   0.808   2.216
46627SOL    HW241779  12.665   0.739   2.346
46628SOL     OW41780  11.416   8.954   1.004
46628SOL    HW141781  11.426   8.889   0.934
46628SOL    HW241782  11.437   9.037   0.962
46629SOL     OW41783  14.375   7.760  10.339
46629SOL    HW141784  14.440   7.763  10.269
46629SOL    HW241785  14.388   7.841  10.387
46630SOL     OW41786   0.914   0.692   6.264
46630SOL    HW141787   0.910   0.629   6.193
46630SOL    HW241788   0.998   0.736   6.253
46631SOL     OW41789  10.584   2.570  12.474
46631SOL    HW141790  10.669   2.540  12.441
46631SOL    HW241791  10.525   2.559  12.399
46632SOL     OW41792   4.724  11.990  13.501
46632SOL    HW141793   4.685  12.037  13.428
46632SOL    HW241794   4.720  11.898  13.477
46633SOL     OW41795   2.785   0.460   6.036
46633SOL    HW141796   2.711   0.431   6.090
46633SOL    HW241797   2.860   0.413   6.072
46634SOL     OW41798   7.534  10.262   6.528
46634SOL    HW141799   7.453  10.274   6.578
46634SOL    HW241800   7.544  10.167   6.522
46635SOL     OW41801   1.112  14.491  12.529
46635SOL    HW141802   1.119  14.474  12.623
46635SOL    HW241803   1.018  14.500  12.513
46636SOL     OW41804   8.569   4.927   3.673
46636SOL    HW141805   8.570   4.974   3.756
46636SOL    HW241806   8.482   4.888   3.668
46637SOL     OW41807   3.343   1.966   4.770
46637SOL    HW141808   3.425   1.934   4.731
46637SOL    HW241809   3.276   1.947   4.704
46638SOL     OW41810  13.307   4.330   2.188
46638SOL    HW141811  13.319   4.245   2.231
46638SOL    HW241812  13.333   4.394   2.255
46639SOL     OW41813  12.515   8.533   9.644
46639SOL    HW141814  12.610   8.539   9.653
46639SOL    HW241815  12.493   8.447   9.680
46640SOL     OW41816  13.061   3.695   9.465
46640SOL    HW141817  13.050   3.782   9.503
46640SOL    HW241818  12.980   3.649   9.486
46641SOL     OW41819  13.215   6.837   4.325
46641SOL    HW141820  13.266   6.904   4.370
46641SOL    HW241821  13.130   6.878   4.309
46642SOL     OW41822   3.152   8.691   8.248
46642SOL    HW141823   3.227   8.705   8.189
46642SOL    HW241824   3.161   8.599   8.275
46643SOL     OW41825   3.955   5.505  14.601
46643SOL    HW141826   3.904   5.556  14.664
46643SOL    HW241827   3.902   5.426  14.586
46644SOL     OW41828   2.467  11.911  10.610
46644SOL    HW141829   2.541  11.958  10.649
46644SOL    HW241830   2.480  11.820  10.635
46645SOL     OW41831  11.550   6.921   2.023
46645SOL    HW141832  11.497   6.938   2.101
46645SOL    HW241833  11.512   6.978   1.955
46646SOL     OW41834   6.313   8.292   0.648
46646SOL    HW141835   6.284   8.322   0.735
46646SOL    HW241836   6.239   8.311   0.590
46647SOL     OW41837  10.142   2.742   0.458
46647SOL    HW141838  10.199   2.665   0.449
46647SOL    HW241839  10.076   2.716   0.521
46648SOL     OW41840   5.819  10.671  13.581
46648SOL    HW141841   5.901  10.623  13.571
46648SOL    HW241842   5.845  10.763  13.580
46649SOL     OW41843   9.489   9.763   8.345
46649SOL    HW141844   9.530   9.686   8.385
46649SOL    HW241845   9.562   9.809   8.303
46650SOL     OW41846   0.266   8.019   2.023
46650SOL    HW141847   0.226   7.932   2.016
46650SOL    HW241848   0.205   8.077   1.977
46651SOL     OW41849   1.481   9.714   3.706
46651SOL    HW141850   1.473   9.665   3.624
46651SOL    HW241851   1.548   9.667   3.756
46652SOL     OW41852   7.451   2.281  13.038
46652SOL    HW141853   7.374   2.309  12.989
46652SOL    HW241854   7.440   2.320  13.124
46653SOL     OW41855   1.299   3.392  14.196
46653SOL    HW141856   1.330   3.371  14.284
46653SOL    HW241857   1.308   3.487  14.189
46654SOL     OW41858   2.395   2.476   0.372
46654SOL    HW141859   2.407   2.529   0.293
46654SOL    HW241860   2.312   2.505   0.408
46655SOL     OW41861   6.436   6.385   9.337
46655SOL    HW141862   6.433   6.469   9.292
46655SOL    HW241863   6.422   6.320   9.267
46656SOL     OW41864  11.964   4.940  13.704
46656SOL    HW141865  11.989   5.010  13.763
46656SOL    HW241866  11.869   4.948  13.696
46657SOL     OW41867   9.097   3.695   9.063
46657SOL    HW141868   9.065   3.785   9.070
46657SOL    HW241869   9.054   3.660   8.985
46658SOL     OW41870  10.606   1.026   0.022
46658SOL    HW141871  10.700   1.008   0.023
46658SOL    HW241872  10.569   0.963  14.832
46659SOL     OW41873   0.228   4.925  12.855
46659SOL    HW141874   0.143   4.880  12.859
46659SOL    HW241875   0.242   4.942  12.762
46660SOL     OW41876   5.850  11.295   5.666
46660SOL    HW141877   5.932  11.294   5.617
46660SOL    HW241878   5.849  11.379   5.711
46661SOL     OW41879  11.394   0.667   3.249
46661SOL    HW141880  11.389   0.616   3.330
46661SOL    HW241881  11.303   0.675   3.220
46662SOL     OW41882   2.466  12.774   2.182
46662SOL    HW141883   2.438  12.864   2.199
46662SOL    HW241884   2.464  12.732   2.268
46663SOL     OW41885  11.782   9.366  12.319
46663SOL    HW141886  11.780   9.391  12.227
46663SOL    HW241887  11.870   9.329  12.333
46664SOL     OW41888   5.245   9.580   3.380
46664SOL    HW141889   5.289   9.547   3.302
46664SOL    HW241890   5.310   9.574   3.449
46665SOL     OW41891   2.524   9.951   3.474
46665SOL    HW141892   2.592   9.980   3.413
46665SOL    HW241893   2.487   9.873   3.433
46666SOL     OW41894  12.490   9.750  12.056
46666SOL    HW141895  12.523   9.660  12.053
46666SOL    HW241896  12.568   9.803  12.073
46667SOL     OW41897  11.478   9.499  11.016
46667SOL    HW141898  11.558   9.485  11.066
46667SOL    HW241899  11.465   9.594  11.017
46668SOL     OW41900   8.543   5.394   2.988
46668SOL    HW141901   8.593   5.316   3.017
46668SOL    HW241902   8.521   5.439   3.069
46669SOL     OW41903  14.647  11.322  14.152
46669SOL    HW141904  14.693  11.264  14.092
46669SOL    HW241905  14.576  11.359  14.099
46670SOL     OW41906   8.368   1.552   2.356
46670SOL    HW141907   8.458   1.558   2.326
46670SOL    HW241908   8.319   1.610   2.297
46671SOL     OW41909   9.308  11.969   2.059
46671SOL    HW141910   9.387  11.914   2.060
46671SOL    HW241911   9.317  12.025   2.136
46672SOL     OW41912   9.572   7.028  13.406
46672SOL    HW141913   9.649   7.027  13.463
46672SOL    HW241914   9.547   6.936  13.397
46673SOL     OW41915   7.760  14.715   7.990
46673SOL    HW141916   7.733  14.632   7.948
46673SOL    HW241917   7.714  14.782   7.940
46674SOL     OW41918  14.565   9.233   7.809
46674SOL    HW141919  14.498   9.205   7.871
46674SOL    HW241920  14.643   9.184   7.832
46675SOL     OW41921   8.132   4.019  10.315
46675SOL    HW141922   8.059   3.965  10.346
46675SOL    HW241923   8.149   3.987  10.226
46676SOL     OW41924  10.053  12.177   9.085
46676SOL    HW141925  10.142  12.206   9.064
46676SOL    HW241926  10.013  12.251   9.130
46677SOL     OW41927   2.737  10.878   8.301
46677SOL    HW141928   2.712  10.959   8.257
46677SOL    HW241929   2.730  10.810   8.234
46678SOL     OW41930   1.264  14.018  13.338
46678SOL    HW141931   1.233  14.067  13.261
46678SOL    HW241932   1.197  14.034  13.405
46679SOL     OW41933   8.407  10.977   7.407
46679SOL    HW141934   8.429  10.929   7.487
46679SOL    HW241935   8.469  11.050   7.405
46680SOL     OW41936   0.049   5.800   1.160
46680SOL    HW141937   0.040   5.793   1.065
46680SOL    HW241938   0.019   5.716   1.194
46681SOL     OW41939   6.473   0.200   7.205
46681SOL    HW141940   6.395   0.230   7.158
46681SOL    HW241941   6.543   0.258   7.174
46682SOL     OW41942  12.742   4.807   2.185
46682SOL    HW141943  12.763   4.742   2.252
46682SOL    HW241944  12.767   4.764   2.103
46683SOL     OW41945   2.358   8.762  13.238
46683SOL    HW141946   2.346   8.791  13.147
46683SOL    HW241947   2.280   8.712  13.258
46684SOL     OW41948   7.970   0.520   6.386
46684SOL    HW141949   7.908   0.586   6.356
46684SOL    HW241950   8.042   0.570   6.424
46685SOL     OW41951  10.504  12.106   2.809
46685SOL    HW141952  10.514  12.186   2.861
46685SOL    HW241953  10.421  12.068   2.839
46686SOL     OW41954   0.420  10.417  11.131
46686SOL    HW141955   0.465  10.349  11.082
46686SOL    HW241956   0.328  10.409  11.104
46687SOL     OW41957   4.070  11.188   2.296
46687SOL    HW141958   4.046  11.240   2.373
46687SOL    HW241959   4.143  11.133   2.327
46688SOL     OW41960   2.059   8.284   2.816
46688SOL    HW141961   2.145   8.305   2.850
46688SOL    HW241962   2.009   8.365   2.825
46689SOL     OW41963   6.354  12.005  13.863
46689SOL    HW141964   6.259  11.997  13.871
46689SOL    HW241965   6.388  11.938  13.923
46690SOL     OW41966   8.969   8.827   8.575
46690SOL    HW141967   8.967   8.836   8.480
46690SOL    HW241968   8.963   8.732   8.590
46691SOL     OW41969  11.624   7.289  11.256
46691SOL    HW141970  11.695   7.327  11.307
46691SOL    HW241971  11.549   7.347  11.272
46692SOL     OW41972  13.756   8.483   0.738
46692SOL    HW141973  13.810   8.537   0.796
46692SOL    HW241974  13.770   8.519   0.651
46693SOL     OW41975   9.083   6.142   3.461
46693SOL    HW141976   9.099   6.058   3.506
46693SOL    HW241977   9.073   6.205   3.532
46694SOL     OW41978   7.994   7.965  13.525
46694SOL    HW141979   8.038   7.996  13.604
46694SOL    HW241980   8.038   7.883  13.504
46695SOL     OW41981   0.743   6.087   3.870
46695SOL    HW141982   0.744   6.083   3.774
46695SOL    HW241983   0.789   6.008   3.898
46696SOL     OW41984   9.018   4.902  14.685
46696SOL    HW141985   8.927   4.914  14.710
46696SOL    HW241986   9.060   4.866  14.763
46697SOL     OW41987  10.302   7.666   5.131
46697SOL    HW141988  10.239   7.594   5.138
46697SOL    HW241989  10.257   7.732   5.078
46698SOL     OW41990   7.996   0.164   6.010
46698SOL    HW141991   7.980   0.215   6.089
46698SOL    HW241992   7.913   0.165   5.963
46699SOL     OW41993   5.239   4.431   8.787
46699SOL    HW141994   5.332   4.450   8.782
46699SOL    HW241995   5.231   4.341   8.757
46700SOL     OW41996  13.001  12.691   8.848
46700SOL    HW141997  13.075  12.652   8.895
46700SOL    HW241998  12.931  12.696   8.913
46701SOL     OW41999   1.047   3.567   1.939
46701SOL    HW142000   1.005   3.644   1.978
46701SOL    HW242001   1.141   3.586   1.944
46702SOL     OW42002   7.371  13.263   1.642
46702SOL    HW142003   7.343  13.306   1.723
46702SOL    HW242004   7.296  13.210   1.615
46703SOL     OW42005   1.993  12.748  12.955
46703SOL    HW142006   1.953  12.685  12.895
46703SOL    HW242007   1.946  12.734  13.038
46704SOL     OW42008  10.506   0.744   9.683
46704SOL    HW142009  10.570   0.674   9.696
46704SOL    HW242010  10.439   0.705   9.626
46705SOL     OW42011   6.346   7.059   2.562
46705SOL    HW142012   6.442   7.059   2.565
46705SOL    HW242013   6.321   6.975   2.601
46706SOL     OW42014   1.672   6.330  11.627
46706SOL    HW142015   1.597   6.339  11.568
46706SOL    HW242016   1.642   6.367  11.710
46707SOL     OW42017   8.905   6.412   0.798
46707SOL    HW142018   8.904   6.490   0.854
46707SOL    HW242019   8.995   6.406   0.766
46708SOL     OW42020   0.934   1.688  12.085
46708SOL    HW142021   1.008   1.707  12.143
46708SOL    HW242022   0.906   1.773  12.052
46709SOL     OW42023   7.961   1.788   9.277
46709SOL    HW142024   7.877   1.743   9.270
46709SOL    HW242025   7.998   1.782   9.188
46710SOL     OW42026  11.109  14.331   5.174
46710SOL    HW142027  11.102  14.417   5.134
46710SOL    HW242028  11.142  14.348   5.262
46711SOL     OW42029   5.695   8.173   0.917
46711SOL    HW142030   5.705   8.206   1.006
46711SOL    HW242031   5.641   8.239   0.873
46712SOL     OW42032  14.713  13.660   4.508
46712SOL    HW142033  14.682  13.599   4.575
46712SOL    HW242034  14.634  13.690   4.464
46713SOL     OW42035   4.527  10.062  11.093
46713SOL    HW142036   4.615  10.091  11.116
46713SOL    HW242037   4.541   9.986  11.035
46714SOL     OW42038  13.628   3.935   4.993
46714SOL    HW142039  13.711   3.888   4.990
46714SOL    HW242040  13.580   3.896   5.066
46715SOL     OW42041  11.393   2.191  13.385
46715SOL    HW142042  11.365   2.281  13.398
46715SOL    HW242043  11.421   2.187  13.294
46716SOL     OW42044   1.826  13.449   9.948
46716SOL    HW142045   1.878  13.408  10.017
46716SOL    HW242046   1.740  13.462   9.986
46717SOL     OW42047  13.270   9.148  14.041
46717SOL    HW142048  13.252   9.242  14.037
46717SOL    HW242049  13.322   9.130  13.964
46718SOL     OW42050   0.144  14.666   4.297
46718SOL    HW142051   0.071  14.691   4.354
46718SOL    HW242052   0.191  14.747   4.281
46719SOL     OW42053   0.942  14.761   5.288
46719SOL    HW142054   0.916  14.711   5.211
46719SOL    HW242055   0.995  14.700   5.339
46720SOL     OW42056   5.215  12.003  12.721
46720SOL    HW142057   5.229  12.056  12.643
46720SOL    HW242058   5.193  12.067  12.789
46721SOL     OW42059  11.247   3.495   7.419
46721SOL    HW142060  11.178   3.432   7.400
46721SOL    HW242061  11.253   3.496   7.515
46722SOL     OW42062  10.121   1.671   5.380
46722SOL    HW142063  10.175   1.654   5.457
46722SOL    HW242064  10.031   1.667   5.413
46723SOL     OW42065  14.454   9.436  12.546
46723SOL    HW142066  14.451   9.361  12.486
46723SOL    HW242067  14.434   9.512  12.491
46724SOL     OW42068  10.296   3.809   5.663
46724SOL    HW142069  10.294   3.884   5.723
46724SOL    HW242070  10.285   3.733   5.720
46725SOL     OW42071  14.303   5.041   6.594
46725SOL    HW142072  14.226   5.002   6.636
46725SOL    HW242073  14.327   5.114   6.652
46726SOL     OW42074   0.019   5.883   2.750
46726SOL    HW142075   0.028   5.978   2.742
46726SOL    HW242076  14.798   5.870   2.769
46727SOL     OW42077   5.628   6.159  14.637
46727SOL    HW142078   5.545   6.116  14.614
46727SOL    HW242079   5.679   6.090  14.679
46728SOL     OW42080   2.053   1.466  10.553
46728SOL    HW142081   2.108   1.493  10.627
46728SOL    HW242082   2.113   1.422  10.493
46729SOL     OW42083   0.407   6.776   3.165
46729SOL    HW142084   0.486   6.722   3.161
46729SOL    HW242085   0.407   6.826   3.084
46730SOL     OW42086  14.855   9.023   1.102
46730SOL    HW142087  14.770   9.066   1.112
46730SOL    HW242088   0.009   9.044   1.012
46731SOL     OW42089  12.484   9.224  11.341
46731SOL    HW142090  12.404   9.172  11.335
46731SOL    HW242091  12.550   9.163  11.375
46732SOL     OW42092   8.819  10.917  12.425
46732SOL    HW142093   8.889  10.976  12.449
46732SOL    HW242094   8.771  10.962  12.356
46733SOL     OW42095  12.439   8.553  12.003
46733SOL    HW142096  12.510   8.605  11.966
46733SOL    HW242097  12.481   8.471  12.029
46734SOL     OW42098   0.144   3.446   4.429
46734SOL    HW142099   0.166   3.365   4.475
46734SOL    HW242100   0.053   3.463   4.453
46735SOL     OW42101   3.581   1.800   2.721
46735SOL    HW142102   3.578   1.869   2.787
46735SOL    HW242103   3.661   1.752   2.741
46736SOL     OW42104   5.216   6.600   3.623
46736SOL    HW142105   5.226   6.665   3.692
46736SOL    HW242106   5.243   6.518   3.664
46737SOL     OW42107   9.200  14.489   8.780
46737SOL    HW142108   9.240  14.539   8.709
46737SOL    HW242109   9.138  14.550   8.820
46738SOL     OW42110   8.307   4.822   1.630
46738SOL    HW142111   8.250   4.874   1.574
46738SOL    HW242112   8.368   4.886   1.668
46739SOL     OW42113   2.219   1.439   1.811
46739SOL    HW142114   2.255   1.426   1.899
46739SOL    HW242115   2.294   1.431   1.753
46740SOL     OW42116  14.788   5.549   2.304
46740SOL    HW142117  14.697   5.539   2.331
46740SOL    HW242118  14.818   5.460   2.285
46741SOL     OW42119   7.054   6.686  11.085
46741SOL    HW142120   6.997   6.616  11.116
46741SOL    HW242121   7.131   6.681  11.143
46742SOL     OW42122  12.461  11.207  14.386
46742SOL    HW142123  12.451  11.113  14.402
46742SOL    HW242124  12.402  11.226  14.313
46743SOL     OW42125  13.849   2.730   6.441
46743SOL    HW142126  13.760   2.695   6.448
46743SOL    HW242127  13.905   2.661   6.477
46744SOL     OW42128   9.585  14.628   7.213
46744SOL    HW142129   9.653  14.675   7.164
46744SOL    HW242130   9.571  14.547   7.163
46745SOL     OW42131   7.897   1.803   0.097
46745SOL    HW142132   7.853   1.718   0.091
46745SOL    HW242133   7.871   1.838   0.182
46746SOL     OW42134   8.600  14.144   3.119
46746SOL    HW142135   8.519  14.136   3.170
46746SOL    HW242136   8.652  14.068   3.145
46747SOL     OW42137   3.995   1.589   2.113
46747SOL    HW142138   4.090   1.584   2.119
46747SOL    HW242139   3.963   1.507   2.153
46748SOL     OW42140   2.705  14.680  12.802
46748SOL    HW142141   2.643  14.735  12.754
46748SOL    HW242142   2.650  14.620  12.853
46749SOL     OW42143  12.617  11.522   7.848
46749SOL    HW142144  12.657  11.570   7.776
46749SOL    HW242145  12.675  11.539   7.923
46750SOL     OW42146   5.403   1.003  12.680
46750SOL    HW142147   5.498   1.008  12.694
46750SOL    HW242148   5.384   1.074  12.619
46751SOL     OW42149   6.185  11.196  11.652
46751SOL    HW142150   6.129  11.120  11.642
46751SOL    HW242151   6.172  11.225  11.742
46752SOL     OW42152  13.173  10.083   7.996
46752SOL    HW142153  13.118  10.074   7.918
46752SOL    HW242154  13.132  10.153   8.047
46753SOL     OW42155   6.198   7.767   5.388
46753SOL    HW142156   6.247   7.750   5.308
46753SOL    HW242157   6.262   7.802   5.449
46754SOL     OW42158   4.022   2.932  12.697
46754SOL    HW142159   3.982   2.880  12.628
46754SOL    HW242160   4.038   2.869  12.768
46755SOL     OW42161  10.778   7.514   2.412
46755SOL    HW142162  10.822   7.541   2.331
46755SOL    HW242163  10.720   7.443   2.386
46756SOL     OW42164   5.169   4.588   2.168
46756SOL    HW142165   5.132   4.504   2.140
46756SOL    HW242166   5.204   4.627   2.088
46757SOL     OW42167  11.482   8.375  12.364
46757SOL    HW142168  11.434   8.428  12.302
46757SOL    HW242169  11.452   8.406  12.450
46758SOL     OW42170   3.213   6.112   2.140
46758SOL    HW142171   3.307   6.113   2.125
46758SOL    HW242172   3.175   6.152   2.062
46759SOL     OW42173   5.848   6.665   3.574
46759SOL    HW142174   5.788   6.720   3.523
46759SOL    HW242175   5.794   6.631   3.646
46760SOL     OW42176   2.047   6.645  14.389
46760SOL    HW142177   1.963   6.682  14.417
46760SOL    HW242178   2.107   6.720  14.387
46761SOL     OW42179   8.257   7.053   2.614
46761SOL    HW142180   8.166   7.052   2.583
46761SOL    HW242181   8.250   7.079   2.706
46762SOL     OW42182   4.457   4.705  11.926
46762SOL    HW142183   4.527   4.701  11.991
46762SOL    HW242184   4.486   4.646  11.856
46763SOL     OW42185  12.654   8.163  11.194
46763SOL    HW142186  12.662   8.162  11.099
46763SOL    HW242187  12.667   8.254  11.219
46764SOL     OW42188   4.835   4.745   0.893
46764SOL    HW142189   4.880   4.776   0.971
46764SOL    HW242190   4.842   4.650   0.898
46765SOL     OW42191   5.233   0.687   9.389
46765SOL    HW142192   5.237   0.654   9.299
46765SOL    HW242193   5.222   0.609   9.443
46766SOL     OW42194   6.903  12.540   2.414
46766SOL    HW142195   6.981  12.593   2.434
46766SOL    HW242196   6.896  12.481   2.489
46767SOL     OW42197   7.931  14.419   2.359
46767SOL    HW142198   7.915  14.325   2.357
46767SOL    HW242199   7.955  14.437   2.451
46768SOL     OW42200  11.157   3.267   7.822
46768SOL    HW142201  11.169   3.174   7.842
46768SOL    HW242202  11.123   3.305   7.903
46769SOL     OW42203  12.948   2.248   3.278
46769SOL    HW142204  12.975   2.159   3.256
46769SOL    HW242205  12.906   2.240   3.364
46770SOL     OW42206   1.000   2.443   0.943
46770SOL    HW142207   0.949   2.364   0.962
46770SOL    HW242208   1.029   2.431   0.852
46771SOL     OW42209  13.634   4.508  14.386
46771SOL    HW142210  13.667   4.478  14.301
46771SOL    HW242211  13.697   4.574  14.415
46772SOL     OW42212   5.096   0.440   7.287
46772SOL    HW142213   5.098   0.347   7.266
46772SOL    HW242214   5.016   0.472   7.247
46773SOL     OW42215   9.052   0.057  10.725
46773SOL    HW142216   8.958   0.050  10.708
46773SOL    HW242217   9.090  14.851  10.685
46774SOL     OW42218   8.645  14.248   5.101
46774SOL    HW142219   8.736  14.251   5.074
46774SOL    HW242220   8.610  14.334   5.080
46775SOL     OW42221  14.666   1.002  13.393
46775SOL    HW142222  14.680   0.941  13.466
46775SOL    HW242223  14.688   0.952  13.315
46776SOL     OW42224   2.963   2.373   6.385
46776SOL    HW142225   2.871   2.350   6.372
46776SOL    HW242226   2.985   2.336   6.471
46777SOL     OW42227   5.028  12.914   3.299
46777SOL    HW142228   4.951  12.886   3.249
46777SOL    HW242229   5.051  12.837   3.352
46778SOL     OW42230   9.051   8.787  12.430
46778SOL    HW142231   8.978   8.740  12.389
46778SOL    HW242232   9.011   8.836  12.502
46779SOL     OW42233   1.068   0.832   3.562
46779SOL    HW142234   1.143   0.867   3.514
46779SOL    HW242235   1.103   0.755   3.607
46780SOL     OW42236  14.498   8.952  10.723
46780SOL    HW142237  14.485   8.859  10.703
46780SOL    HW242238  14.528   8.990  10.641
46781SOL     OW42239   9.694  12.442   7.504
46781SOL    HW142240   9.773  12.489   7.531
46781SOL    HW242241   9.707  12.424   7.411
46782SOL     OW42242   2.841   3.996   9.506
46782SOL    HW142243   2.822   4.035   9.591
46782SOL    HW242244   2.756   3.980   9.467
46783SOL     OW42245   3.155   7.002   1.263
46783SOL    HW142246   3.088   6.988   1.330
46783SOL    HW242247   3.216   7.064   1.302
46784SOL     OW42248   8.467  11.763   8.237
46784SOL    HW142249   8.531  11.695   8.217
46784SOL    HW242250   8.514  11.845   8.225
46785SOL     OW42251  14.801   0.723  10.115
46785SOL    HW142252  14.809   0.755  10.205
46785SOL    HW242253   0.018   0.726  10.080
46786SOL     OW42254   4.990   7.942   0.825
46786SOL    HW142255   5.052   7.905   0.761
46786SOL    HW242256   5.029   7.922   0.910
46787SOL     OW42257  13.289  12.192   8.577
46787SOL    HW142258  13.372  12.178   8.532
46787SOL    HW242259  13.305  12.166   8.667
46788SOL     OW42260   6.156   9.641  10.411
46788SOL    HW142261   6.118   9.705  10.351
46788SOL    HW242262   6.237   9.683  10.442
46789SOL     OW42263   0.494   2.748  11.601
46789SOL    HW142264   0.506   2.790  11.686
46789SOL    HW242265   0.570   2.689  11.592
46790SOL     OW42266  12.003   7.977  13.368
46790SOL    HW142267  11.991   7.938  13.282
46790SOL    HW242268  12.077   7.930  13.406
46791SOL     OW42269  14.718   9.891  14.078
46791SOL    HW142270  14.785   9.922  14.140
46791SOL    HW242271  14.706   9.799  14.101
46792SOL     OW42272   8.710  13.995   8.153
46792SOL    HW142273   8.668  13.910   8.166
46792SOL    HW242274   8.644  14.047   8.108
46793SOL     OW42275   0.167  11.809  13.121
46793SOL    HW142276   0.177  11.730  13.174
46793SOL    HW242277   0.257  11.836  13.101
46794SOL     OW42278  14.176   3.320   5.911
46794SOL    HW142279  14.222   3.350   5.990
46794SOL    HW242280  14.158   3.400   5.862
46795SOL     OW42281   3.639   6.116   3.048
46795SOL    HW142282   3.710   6.099   3.110
46795SOL    HW242283   3.664   6.197   3.004
46796SOL     OW42284  12.815   1.778   8.157
46796SOL    HW142285  12.864   1.739   8.229
46796SOL    HW242286  12.823   1.715   8.086
46797SOL     OW42287  12.884   3.274   6.004
46797SOL    HW142288  12.979   3.273   5.993
46797SOL    HW242289  12.851   3.300   5.918
46798SOL     OW42290   5.692   3.942  11.767
46798SOL    HW142291   5.694   3.967  11.675
46798SOL    HW242292   5.755   4.001  11.809
46799SOL     OW42293  10.424   2.410  12.986
46799SOL    HW142294  10.366   2.428  12.912
46799SOL    HW242295  10.500   2.467  12.971
46800SOL     OW42296  12.284  12.662   1.648
46800SOL    HW142297  12.244  12.747   1.668
46800SOL    HW242298  12.212  12.599   1.655
46801SOL     OW42299  13.579   9.785  14.098
46801SOL    HW142300  13.546   9.794  14.188
46801SOL    HW242301  13.541   9.703  14.067
46802SOL     OW42302   7.382  12.723   5.854
46802SOL    HW142303   7.348  12.795   5.907
46802SOL    HW242304   7.464  12.697   5.897
46803SOL     OW42305  13.634   2.382  14.502
46803SOL    HW142306  13.686   2.356  14.578
46803SOL    HW242307  13.608   2.300  14.461
46804SOL     OW42308   7.848   1.918   1.060
46804SOL    HW142309   7.884   1.898   1.146
46804SOL    HW242310   7.924   1.913   1.001
46805SOL     OW42311   8.763  10.897   5.634
46805SOL    HW142312   8.694  10.862   5.690
46805SOL    HW242313   8.822  10.823   5.620
46806SOL     OW42314   3.007   0.028   9.841
46806SOL    HW142315   3.072   0.094   9.816
46806SOL    HW242316   3.007   0.029   9.936
46807SOL     OW42317   5.696   0.086  11.608
46807SOL    HW142318   5.706   0.123  11.696
46807SOL    HW242319   5.748   0.006  11.609
46808SOL     OW42320  13.921   2.134   1.965
46808SOL    HW142321  13.874   2.082   2.030
46808SOL    HW242322  13.892   2.224   1.981
46809SOL     OW42323  11.767   4.777   7.389
46809SOL    HW142324  11.851   4.808   7.355
46809SOL    HW242325  11.710   4.774   7.312
46810SOL     OW42326   1.166   7.788   8.260
46810SOL    HW142327   1.099   7.803   8.327
46810SOL    HW242328   1.130   7.831   8.182
46811SOL     OW42329   2.983   3.774  11.460
46811SOL    HW142330   2.960   3.752  11.370
46811SOL    HW242331   2.903   3.758  11.510
46812SOL     OW42332   6.141   2.848   6.202
46812SOL    HW142333   6.175   2.759   6.206
46812SOL    HW242334   6.194   2.897   6.265
46813SOL     OW42335   3.968   6.159   3.453
46813SOL    HW142336   4.012   6.232   3.408
46813SOL    HW242337   4.030   6.134   3.522
46814SOL     OW42338   0.907   8.103   4.817
46814SOL    HW142339   0.937   8.013   4.800
46814SOL    HW242340   0.812   8.098   4.811
46815SOL     OW42341   6.199  13.188  11.566
46815SOL    HW142342   6.169  13.250  11.501
46815SOL    HW242343   6.287  13.163  11.537
46816SOL     OW42344   6.784   8.363   9.643
46816SOL    HW142345   6.778   8.324   9.556
46816SOL    HW242346   6.695   8.357   9.678
46817SOL     OW42347   5.648  10.471   5.885
46817SOL    HW142348   5.734  10.462   5.926
46817SOL    HW242349   5.652  10.414   5.808
46818SOL     OW42350   2.178  14.812  14.610
46818SOL    HW142351   2.248  14.798  14.546
46818SOL    HW242352   2.202  14.757  14.684
46819SOL     OW42353  11.769   1.871   7.187
46819SOL    HW142354  11.782   1.822   7.105
46819SOL    HW242355  11.857   1.881   7.223
46820SOL     OW42356   4.697   3.419  13.865
46820SOL    HW142357   4.721   3.465  13.946
46820SOL    HW242358   4.765   3.443  13.802
46821SOL     OW42359  14.450  12.992  13.681
46821SOL    HW142360  14.472  13.009  13.590
46821SOL    HW242361  14.471  13.073  13.727
46822SOL     OW42362  11.944   6.814  10.604
46822SOL    HW142363  11.981   6.862  10.678
46822SOL    HW242364  11.976   6.859  10.526
46823SOL     OW42365   9.470   4.218   4.855
46823SOL    HW142366   9.414   4.141   4.856
46823SOL    HW242367   9.410   4.292   4.866
46824SOL     OW42368   1.772   3.780  10.129
46824SOL    HW142369   1.767   3.830  10.048
46824SOL    HW242370   1.693   3.726  10.129
46825SOL     OW42371   9.505   8.417   5.736
46825SOL    HW142372   9.435   8.376   5.686
46825SOL    HW242373   9.474   8.418   5.826
46826SOL     OW42374  10.037   8.355   1.026
46826SOL    HW142375  10.102   8.338   0.958
46826SOL    HW242376   9.980   8.422   0.989
46827SOL     OW42377   3.770  12.423   1.861
46827SOL    HW142378   3.679  12.398   1.876
46827SOL    HW242379   3.765  12.510   1.821
46828SOL     OW42380  14.594   8.453  10.298
46828SOL    HW142381  14.569   8.522  10.236
46828SOL    HW242382  14.661   8.403  10.251
46829SOL     OW42383   1.578  11.807   9.447
46829SOL    HW142384   1.621  11.805   9.361
46829SOL    HW242385   1.486  11.825   9.427
46830SOL     OW42386   6.841   9.984  11.590
46830SOL    HW142387   6.914   9.931  11.557
46830SOL    HW242388   6.779   9.920  11.625
46831SOL     OW42389   3.192  12.957  13.067
46831SOL    HW142390   3.250  12.950  13.143
46831SOL    HW242391   3.233  12.900  13.001
46832SOL     OW42392   7.382  13.713  13.998
46832SOL    HW142393   7.364  13.620  13.990
46832SOL    HW242394   7.313  13.755  13.947
46833SOL     OW42395   0.173   6.715   0.056
46833SOL    HW142396   0.087   6.701   0.016
46833SOL    HW242397   0.225   6.639   0.030
46834SOL     OW42398   3.851  13.563   2.844
46834SOL    HW142399   3.761  13.534   2.831
46834SOL    HW242400   3.885  13.578   2.755
46835SOL     OW42401  12.083   1.305   7.982
46835SOL    HW142402  12.160   1.338   8.028
46835SOL    HW242403  12.021   1.378   7.982
46836SOL     OW42404  14.231   4.639   2.293
46836SOL    HW142405  14.228   4.555   2.338
46836SOL    HW242406  14.263   4.700   2.359
46837SOL     OW42407  11.696   8.220   7.670
46837SOL    HW142408  11.619   8.255   7.625
46837SOL    HW242409  11.764   8.285   7.657
46838SOL     OW42410   4.382   1.390  10.218
46838SOL    HW142411   4.309   1.449  10.231
46838SOL    HW242412   4.410   1.365  10.306
46839SOL     OW42413   8.250   4.467   2.069
46839SOL    HW142414   8.161   4.447   2.098
46839SOL    HW242415   8.307   4.423   2.132
46840SOL     OW42416   1.583  12.445   7.040
46840SOL    HW142417   1.645  12.398   6.983
46840SOL    HW242418   1.637  12.475   7.113
46841SOL     OW42419   1.149   0.297  10.873
46841SOL    HW142420   1.126   0.388  10.857
46841SOL    HW242421   1.111   0.249  10.799
46842SOL     OW42422  12.380   3.691   6.125
46842SOL    HW142423  12.406   3.603   6.150
46842SOL    HW242424  12.289   3.682   6.095
46843SOL     OW42425   7.376   3.862   4.220
46843SOL    HW142426   7.359   3.940   4.273
46843SOL    HW242427   7.421   3.802   4.279
46844SOL     OW42428   7.084   8.579   3.803
46844SOL    HW142429   7.068   8.485   3.806
46844SOL    HW242430   6.997   8.618   3.798
46845SOL     OW42431  12.383  10.563   0.109
46845SOL    HW142432  12.419  10.476   0.128
46845SOL    HW242433  12.317  10.576   0.177
46846SOL     OW42434  14.790   8.481   6.079
46846SOL    HW142435  14.790   8.502   6.172
46846SOL    HW242436  14.796   8.566   6.035
46847SOL     OW42437   8.905   5.410   1.943
46847SOL    HW142438   8.883   5.483   2.001
46847SOL    HW242439   8.973   5.361   1.990
46848SOL     OW42440   9.279   8.890   7.556
46848SOL    HW142441   9.282   8.899   7.460
46848SOL    HW242442   9.370   8.903   7.583
46849SOL     OW42443  12.259   3.042   5.635
46849SOL    HW142444  12.249   2.947   5.633
46849SOL    HW242445  12.179   3.074   5.676
46850SOL     OW42446  12.943   2.374   5.194
46850SOL    HW142447  12.862   2.402   5.151
46850SOL    HW242448  12.944   2.423   5.276
46851SOL     OW42449   7.703   7.112  11.595
46851SOL    HW142450   7.710   7.189  11.651
46851SOL    HW242451   7.689   7.147  11.507
46852SOL     OW42452   7.229   3.640  12.440
46852SOL    HW142453   7.200   3.554  12.470
46852SOL    HW242454   7.150   3.695  12.443
46853SOL     OW42455   2.362   3.829  11.097
46853SOL    HW142456   2.333   3.748  11.055
46853SOL    HW242457   2.295   3.848  11.163
46854SOL     OW42458   1.804   8.387   3.368
46854SOL    HW142459   1.798   8.395   3.273
46854SOL    HW242460   1.880   8.331   3.382
46855SOL     OW42461   2.039  11.188   2.460
46855SOL    HW142462   2.105  11.153   2.520
46855SOL    HW242463   2.077  11.269   2.428
46856SOL     OW42464  13.545  14.468  13.181
46856SOL    HW142465  13.486  14.421  13.240
46856SOL    HW242466  13.582  14.538  13.234
46857SOL     OW42467  11.101   7.200  13.298
46857SOL    HW142468  11.186   7.171  13.330
46857SOL    HW242469  11.092   7.290  13.331
46858SOL     OW42470  10.656   5.111   4.336
46858SOL    HW142471  10.689   5.042   4.393
46858SOL    HW242472  10.576   5.142   4.379
46859SOL     OW42473   9.728   8.840   6.688
46859SOL    HW142474   9.742   8.805   6.600
46859SOL    HW242475   9.789   8.914   6.694
46860SOL     OW42476   4.256  14.726  12.609
46860SOL    HW142477   4.285  14.663  12.543
46860SOL    HW242478   4.293  14.693  12.691
46861SOL     OW42479   8.914  10.248   5.927
46861SOL    HW142480   8.942  10.158   5.941
46861SOL    HW242481   8.819  10.242   5.917
46862SOL     OW42482   3.224  11.387   1.690
46862SOL    HW142483   3.181  11.317   1.640
46862SOL    HW242484   3.291  11.421   1.631
46863SOL     OW42485   2.299   4.943  11.241
46863SOL    HW142486   2.266   4.853  11.237
46863SOL    HW242487   2.389   4.934  11.273
46864SOL     OW42488  14.833  14.248   7.390
46864SOL    HW142489  14.751  14.243   7.341
46864SOL    HW242490   0.001  14.161   7.379
46865SOL     OW42491  13.761  14.234  11.040
46865SOL    HW142492  13.795  14.172  10.975
46865SOL    HW242493  13.766  14.187  11.123
46866SOL     OW42494   5.100   9.327   1.114
46866SOL    HW142495   5.113   9.323   1.209
46866SOL    HW242496   5.025   9.270   1.097
46867SOL     OW42497  10.659   8.723   5.661
46867SOL    HW142498  10.750   8.753   5.662
46867SOL    HW242499  10.623   8.761   5.582
46868SOL     OW42500   4.595   6.640  10.191
46868SOL    HW142501   4.507   6.618  10.160
46868SOL    HW242502   4.624   6.709  10.132
46869SOL     OW42503   9.961   9.758   2.374
46869SOL    HW142504   9.957   9.714   2.289
46869SOL    HW242505   9.970   9.851   2.353
46870SOL     OW42506   1.765  11.266   1.611
46870SOL    HW142507   1.751  11.171   1.621
46870SOL    HW242508   1.846  11.272   1.561
46871SOL     OW42509   6.513   2.807  12.995
46871SOL    HW142510   6.437   2.858  12.966
46871SOL    HW242511   6.519   2.736  12.931
46872SOL     OW42512   7.256   1.809  10.815
46872SOL    HW142513   7.236   1.765  10.733
46872SOL    HW242514   7.231   1.900  10.800
46873SOL     OW42515   7.560   3.625   4.049
46873SOL    HW142516   7.576   3.719   4.052
46873SOL    HW242517   7.482   3.616   3.993
46874SOL     OW42518   3.539  13.914   2.746
46874SOL    HW142519   3.576  13.944   2.663
46874SOL    HW242520   3.537  13.819   2.738
46875SOL     OW42521   1.819   4.069   7.480
46875SOL    HW142522   1.845   4.059   7.571
46875SOL    HW242523   1.841   3.985   7.440
46876SOL     OW42524   2.305   3.941   0.504
46876SOL    HW142525   2.254   3.863   0.525
46876SOL    HW242526   2.348   3.965   0.587
46877SOL     OW42527   0.938  12.474   7.882
46877SOL    HW142528   1.002  12.429   7.827
46877SOL    HW242529   0.964  12.452   7.972
46878SOL     OW42530   2.463   0.305   9.597
46878SOL    HW142531   2.455   0.358   9.518
46878SOL    HW242532   2.557   0.287   9.604
46879SOL     OW42533   0.829  12.338  10.982
46879SOL    HW142534   0.764  12.400  10.950
46879SOL    HW242535   0.878  12.386  11.048
46880SOL     OW42536   5.537  12.517  10.674
46880SOL    HW142537   5.507  12.607  10.691
46880SOL    HW242538   5.608  12.528  10.610
46881SOL     OW42539   6.316   6.806  13.955
46881SOL    HW142540   6.312   6.880  13.894
46881SOL    HW242541   6.342   6.732  13.900
46882SOL     OW42542   1.507   1.574  11.817
46882SOL    HW142543   1.517   1.644  11.882
46882SOL    HW242544   1.586   1.577  11.764
46883SOL     OW42545  10.224   1.771   4.426
46883SOL    HW142546  10.163   1.809   4.488
46883SOL    HW242547  10.169   1.740   4.354
46884SOL     OW42548  10.913  11.567   7.474
46884SOL    HW142549  10.869  11.501   7.421
46884SOL    HW242550  10.864  11.648   7.457
46885SOL     OW42551  12.378   7.469   1.193
46885SOL    HW142552  12.365   7.393   1.250
46885SOL    HW242553  12.314   7.533   1.223
46886SOL     OW42554  14.430   9.023  13.340
46886SOL    HW142555  14.362   8.972  13.297
46886SOL    HW242556  14.510   8.971  13.327
46887SOL     OW42557   9.594   2.267  13.270
46887SOL    HW142558   9.531   2.278  13.342
46887SOL    HW242559   9.560   2.193  13.220
46888SOL     OW42560   1.384   0.320   3.212
46888SOL    HW142561   1.373   0.259   3.139
46888SOL    HW242562   1.469   0.298   3.249
46889SOL     OW42563   9.227   9.564   1.264
46889SOL    HW142564   9.207   9.474   1.236
46889SOL    HW242565   9.141   9.603   1.281
46890SOL     OW42566   9.341   4.070   9.342
46890SOL    HW142567   9.434   4.076   9.321
46890SOL    HW242568   9.328   3.978   9.364
46891SOL     OW42569  12.665   5.330   8.580
46891SOL    HW142570  12.681   5.392   8.508
46891SOL    HW242571  12.652   5.246   8.536
46892SOL     OW42572  10.998  10.328   1.568
46892SOL    HW142573  11.061  10.393   1.599
46892SOL    HW242574  11.012  10.325   1.473
46893SOL     OW42575   7.434  10.316   2.052
46893SOL    HW142576   7.393  10.314   2.138
46893SOL    HW242577   7.485  10.397   2.051
46894SOL     OW42578   7.749   9.584  10.581
46894SOL    HW142579   7.732   9.634  10.661
46894SOL    HW242580   7.674   9.603  10.524
46895SOL     OW42581   6.264   7.737   6.326
46895SOL    HW142582   6.354   7.715   6.304
46895SOL    HW242583   6.227   7.656   6.359
46896SOL     OW42584  11.409  12.009  14.500
46896SOL    HW142585  11.480  11.960  14.458
46896SOL    HW242586  11.441  12.099  14.505
46897SOL     OW42587  14.715   8.798   7.128
46897SOL    HW142588  14.705   8.710   7.093
46897SOL    HW242589  14.654   8.802   7.202
46898SOL     OW42590   9.939   1.783   2.111
46898SOL    HW142591   9.876   1.780   2.040
46898SOL    HW242592   9.892   1.749   2.187
46899SOL     OW42593   6.051   5.880   3.930
46899SOL    HW142594   6.139   5.913   3.950
46899SOL    HW242595   5.998   5.909   4.005
46900SOL     OW42596   2.095  13.256   3.080
46900SOL    HW142597   2.059  13.212   3.156
46900SOL    HW242598   2.189  13.240   3.085
46901SOL     OW42599  14.715  10.952   4.827
46901SOL    HW142600  14.660  10.885   4.868
46901SOL    HW242601  14.683  11.034   4.863
46902SOL     OW42602  10.322   3.365   2.556
46902SOL    HW142603  10.245   3.314   2.530
46902SOL    HW242604  10.356   3.401   2.474
46903SOL     OW42605   3.106  11.962   0.973
46903SOL    HW142606   3.045  11.897   0.940
46903SOL    HW242607   3.177  11.963   0.909
46904SOL     OW42608   9.928   2.855   5.537
46904SOL    HW142609   9.887   2.771   5.555
46904SOL    HW242610  10.007   2.855   5.591
46905SOL     OW42611  14.353   9.068   8.652
46905SOL    HW142612  14.426   9.008   8.639
46905SOL    HW242613  14.382   9.151   8.614
46906SOL     OW42614  13.488   1.279  11.288
46906SOL    HW142615  13.549   1.230  11.234
46906SOL    HW242616  13.445   1.213  11.343
46907SOL     OW42617  13.799  12.505   2.336
46907SOL    HW142618  13.810  12.417   2.373
46907SOL    HW242619  13.868  12.557   2.376
46908SOL     OW42620   9.364   5.210   8.766
46908SOL    HW142621   9.287   5.174   8.811
46908SOL    HW242622   9.435   5.201   8.830
46909SOL     OW42623   5.708   2.397   5.726
46909SOL    HW142624   5.758   2.410   5.646
46909SOL    HW242625   5.616   2.397   5.698
46910SOL     OW42626  12.296   5.859   3.319
46910SOL    HW142627  12.292   5.772   3.359
46910SOL    HW242628  12.217   5.903   3.349
46911SOL     OW42629   8.899  10.280   0.752
46911SOL    HW142630   8.876  10.191   0.727
46911SOL    HW242631   8.978  10.270   0.805
46912SOL     OW42632   4.814  11.992   6.338
46912SOL    HW142633   4.848  11.903   6.343
46912SOL    HW242634   4.755  11.992   6.263
46913SOL     OW42635   6.639   3.908   0.998
46913SOL    HW142636   6.633   3.883   1.090
46913SOL    HW242637   6.548   3.925   0.972
46914SOL     OW42638   2.552  10.306   5.834
46914SOL    HW142639   2.564  10.400   5.822
46914SOL    HW242640   2.472  10.299   5.888
46915SOL     OW42641  10.433  12.237   3.111
46915SOL    HW142642  10.440  12.315   3.056
46915SOL    HW242643  10.339  12.217   3.111
46916SOL     OW42644  10.844  12.817   6.523
46916SOL    HW142645  10.820  12.741   6.575
46916SOL    HW242646  10.776  12.882   6.541
46917SOL     OW42647   1.302   2.593   7.255
46917SOL    HW142648   1.354   2.657   7.303
46917SOL    HW242649   1.212   2.610   7.281
46918SOL     OW42650   0.399   0.434   8.470
46918SOL    HW142651   0.475   0.492   8.465
46918SOL    HW242652   0.337   0.471   8.408
46919SOL     OW42653   5.700  13.182  13.118
46919SOL    HW142654   5.654  13.161  13.037
46919SOL    HW242655   5.784  13.218  13.089
46920SOL     OW42656  12.982   5.890   2.081
46920SOL    HW142657  13.059   5.885   2.137
46920SOL    HW242658  13.006   5.953   2.014
46921SOL     OW42659   6.230   8.800  11.312
46921SOL    HW142660   6.227   8.708  11.286
46921SOL    HW242661   6.144   8.834  11.290
46922SOL     OW42662   1.802   6.154   3.953
46922SOL    HW142663   1.729   6.215   3.957
46922SOL    HW242664   1.877   6.206   3.983
46923SOL     OW42665  13.271   3.275   0.809
46923SOL    HW142666  13.261   3.360   0.765
46923SOL    HW242667  13.186   3.233   0.801
46924SOL     OW42668   3.168   3.766   5.106
46924SOL    HW142669   3.111   3.698   5.142
46924SOL    HW242670   3.145   3.845   5.154
46925SOL     OW42671   0.256   4.698   4.806
46925SOL    HW142672   0.313   4.746   4.746
46925SOL    HW242673   0.308   4.691   4.886
46926SOL     OW42674   4.010  10.546   3.504
46926SOL    HW142675   4.069  10.539   3.429
46926SOL    HW242676   3.930  10.584   3.469
46927SOL     OW42677   2.414   3.593   3.196
46927SOL    HW142678   2.428   3.501   3.217
46927SOL    HW242679   2.458   3.641   3.266
46928SOL     OW42680   2.581   1.496   3.485
46928SOL    HW142681   2.551   1.584   3.465
46928SOL    HW242682   2.515   1.462   3.546
46929SOL     OW42683  10.636  14.727   9.291
46929SOL    HW142684  10.609  14.810   9.253
46929SOL    HW242685  10.610  14.733   9.383
46930SOL     OW42686  14.419  14.271   8.842
46930SOL    HW142687  14.415  14.176   8.846
46930SOL    HW242688  14.336  14.300   8.880
46931SOL     OW42689   5.866   0.312   2.927
46931SOL    HW142690   5.814   0.364   2.989
46931SOL    HW242691   5.957   0.333   2.948
46932SOL     OW42692   6.384  11.676  10.722
46932SOL    HW142693   6.307  11.699  10.773
46932SOL    HW242694   6.360  11.594  10.679
46933SOL     OW42695   1.388   7.975  10.937
46933SOL    HW142696   1.475   7.959  10.974
46933SOL    HW242697   1.397   7.954  10.844
46934SOL     OW42698   1.382   0.868   7.180
46934SOL    HW142699   1.474   0.847   7.196
46934SOL    HW242700   1.377   0.963   7.189
46935SOL     OW42701   3.480   1.372  13.822
46935SOL    HW142702   3.465   1.465  13.802
46935SOL    HW242703   3.575   1.362  13.819
46936SOL     OW42704  10.220  14.588   5.207
46936SOL    HW142705  10.224  14.494   5.191
46936SOL    HW242706  10.167  14.622   5.135
46937SOL     OW42707   3.176   9.001   5.662
46937SOL    HW142708   3.203   8.996   5.570
46937SOL    HW242709   3.236   9.065   5.701
46938SOL     OW42710   3.331  14.760   6.650
46938SOL    HW142711   3.336  14.797   6.739
46938SOL    HW242712   3.376  14.676   6.657
46939SOL     OW42713  14.041   8.489   7.362
46939SOL    HW142714  14.049   8.396   7.382
46939SOL    HW242715  14.130   8.518   7.346
46940SOL     OW42716   1.756   8.180  11.695
46940SOL    HW142717   1.819   8.114  11.725
46940SOL    HW242718   1.671   8.142  11.714
46941SOL     OW42719   8.478   3.151   6.278
46941SOL    HW142720   8.400   3.112   6.318
46941SOL    HW242721   8.451   3.174   6.190
46942SOL     OW42722   3.252  12.314   2.411
46942SOL    HW142723   3.326  12.275   2.459
46942SOL    HW242724   3.291  12.385   2.360
46943SOL     OW42725  10.713   9.094   5.456
46943SOL    HW142726  10.806   9.115   5.464
46943SOL    HW242727  10.709   9.000   5.472
46944SOL     OW42728   3.992   6.703   2.952
46944SOL    HW142729   4.033   6.693   3.037
46944SOL    HW242730   4.065   6.717   2.891
46945SOL     OW42731   7.560  13.950   1.374
46945SOL    HW142732   7.623  13.962   1.444
46945SOL    HW242733   7.495  13.889   1.410
46946SOL     OW42734  10.155   6.379  10.872
46946SOL    HW142735  10.242   6.370  10.833
46946SOL    HW242736  10.172   6.417  10.958
46947SOL     OW42737   1.004   8.928   1.568
46947SOL    HW142738   0.986   8.855   1.509
46947SOL    HW242739   1.098   8.921   1.587
46948SOL     OW42740  10.589  10.980   3.938
46948SOL    HW142741  10.557  10.890   3.947
46948SOL    HW242742  10.549  11.027   4.012
46949SOL     OW42743   1.880   4.965  12.978
46949SOL    HW142744   1.805   4.916  12.944
46949SOL    HW242745   1.934   4.983  12.902
46950SOL     OW42746  10.828   2.226   9.579
46950SOL    HW142747  10.875   2.302   9.545
46950SOL    HW242748  10.875   2.150   9.543
46951SOL     OW42749   3.128   6.480  11.244
46951SOL    HW142750   3.090   6.442  11.323
46951SOL    HW242751   3.117   6.575  11.255
46952SOL     OW42752   1.087   1.663   6.049
46952SOL    HW142753   1.156   1.701   6.103
46952SOL    HW242754   1.081   1.719   5.973
46953SOL     OW42755  11.358  12.857   5.312
46953SOL    HW142756  11.313  12.820   5.388
46953SOL    HW242757  11.409  12.784   5.277
46954SOL     OW42758   7.344   1.303   2.635
46954SOL    HW142759   7.277   1.253   2.682
46954SOL    HW242760   7.323   1.394   2.651
46955SOL     OW42761   9.630   7.983  11.796
46955SOL    HW142762   9.568   7.964  11.866
46955SOL    HW242763   9.586   8.048  11.741
46956SOL     OW42764   0.938   4.383   5.673
46956SOL    HW142765   0.919   4.476   5.687
46956SOL    HW242766   0.856   4.347   5.640
46957SOL     OW42767   2.141   2.355   7.174
46957SOL    HW142768   2.190   2.318   7.248
46957SOL    HW242769   2.058   2.308   7.175
46958SOL     OW42770   2.090   3.724  11.102
46958SOL    HW142771   2.054   3.810  11.078
46958SOL    HW242772   2.151   3.704  11.031
46959SOL     OW42773  12.991   0.851   2.015
46959SOL    HW142774  13.020   0.870   1.925
46959SOL    HW242775  12.911   0.903   2.025
46960SOL     OW42776   5.866  12.873   4.538
46960SOL    HW142777   5.849  12.956   4.494
46960SOL    HW242778   5.953  12.883   4.577
46961SOL     OW42779  11.391   5.185  14.249
46961SOL    HW142780  11.351   5.099  14.232
46961SOL    HW242781  11.317   5.246  14.246
46962SOL     OW42782  14.274  13.176   7.581
46962SOL    HW142783  14.188  13.139   7.603
46962SOL    HW242784  14.277  13.260   7.626
46963SOL     OW42785  12.693  13.236   0.106
46963SOL    HW142786  12.776  13.259   0.149
46963SOL    HW242787  12.706  13.145   0.078
46964SOL     OW42788   3.686  13.788  12.703
46964SOL    HW142789   3.596  13.818  12.713
46964SOL    HW242790   3.684  13.729  12.627
46965SOL     OW42791   0.464  13.232   2.830
46965SOL    HW142792   0.402  13.170   2.793
46965SOL    HW242793   0.424  13.258   2.914
46966SOL     OW42794  10.621   7.997   5.633
46966SOL    HW142795  10.554   8.066   5.634
46966SOL    HW242796  10.700   8.041   5.600
46967SOL     OW42797  14.293   5.093   3.589
46967SOL    HW142798  14.373   5.052   3.623
46967SOL    HW242799  14.283   5.173   3.642
46968SOL     OW42800  12.265   4.835  13.068
46968SOL    HW142801  12.325   4.823  12.995
46968SOL    HW242802  12.303   4.782  13.139
46969SOL     OW42803  12.582   1.468  11.769
46969SOL    HW142804  12.565   1.533  11.837
46969SOL    HW242805  12.646   1.408  11.808
46970SOL     OW42806   0.077  10.049   0.152
46970SOL    HW142807  14.856  10.030   0.141
46970SOL    HW242808   0.083  10.088   0.239
46971SOL     OW42809  11.279   2.697   9.871
46971SOL    HW142810  11.210   2.678   9.935
46971SOL    HW242811  11.238   2.679   9.786
46972SOL     OW42812   5.922  10.951  10.240
46972SOL    HW142813   5.986  10.928  10.308
46972SOL    HW242814   5.966  11.019  10.189
46973SOL     OW42815   0.043   4.700   8.166
46973SOL    HW142816  14.831   4.719   8.125
46973SOL    HW242817   0.042   4.748   8.248
46974SOL     OW42818  10.186   1.599  13.215
46974SOL    HW142819  10.216   1.564  13.299
46974SOL    HW242820  10.266   1.621  13.168
46975SOL     OW42821   4.209   6.156   7.638
46975SOL    HW142822   4.278   6.138   7.701
46975SOL    HW242823   4.138   6.096   7.663
46976SOL     OW42824   1.202  13.428   7.428
46976SOL    HW142825   1.116  13.413   7.388
46976SOL    HW242826   1.257  13.359   7.392
46977SOL     OW42827   5.994  12.176   6.498
46977SOL    HW142828   5.944  12.243   6.545
46977SOL    HW242829   6.079  12.174   6.542
46978SOL     OW42830  13.536  10.743   3.811
46978SOL    HW142831  13.609  10.785   3.856
46978SOL    HW242832  13.492  10.692   3.879
46979SOL     OW42833   0.636   4.321  12.494
46979SOL    HW142834   0.679   4.372  12.425
46979SOL    HW242835   0.655   4.230  12.471
46980SOL     OW42836   2.668   3.900  10.305
46980SOL    HW142837   2.659   3.974  10.365
46980SOL    HW242838   2.687   3.940  10.220
46981SOL     OW42839   1.310   2.926   5.913
46981SOL    HW142840   1.340   2.838   5.891
46981SOL    HW242841   1.228   2.912   5.960
46982SOL     OW42842   7.121   2.595   3.064
46982SOL    HW142843   7.093   2.515   3.019
46982SOL    HW242844   7.041   2.647   3.073
46983SOL     OW42845   7.499  14.578   3.332
46983SOL    HW142846   7.428  14.515   3.317
46983SOL    HW242847   7.465  14.636   3.401
46984SOL     OW42848  11.578  12.583   2.925
46984SOL    HW142849  11.509  12.641   2.894
46984SOL    HW242850  11.627  12.636   2.988
46985SOL     OW42851   1.438   5.883   5.400
46985SOL    HW142852   1.373   5.871   5.332
46985SOL    HW242853   1.470   5.794   5.419
46986SOL     OW42854  12.933  14.737   5.895
46986SOL    HW142855  12.847  14.701   5.872
46986SOL    HW242856  12.914  14.825   5.928
46987SOL     OW42857   6.257   4.334  12.050
46987SOL    HW142858   6.317   4.398  12.088
46987SOL    HW242859   6.170   4.364  12.078
46988SOL     OW42860   7.812   5.554   6.281
46988SOL    HW142861   7.810   5.602   6.364
46988SOL    HW242862   7.746   5.598   6.227
46989SOL     OW42863   5.410   1.603   5.798
46989SOL    HW142864   5.491   1.583   5.845
46989SOL    HW242865   5.389   1.692   5.823
46990SOL     OW42866  13.587   0.860   9.412
46990SOL    HW142867  13.661   0.905   9.453
46990SOL    HW242868  13.585   0.774   9.453
46991SOL     OW42869  11.011  10.481   8.626
46991SOL    HW142870  10.980  10.570   8.608
46991SOL    HW242871  10.949  10.424   8.581
46992SOL     OW42872   4.455  10.916  12.558
46992SOL    HW142873   4.384  10.973  12.588
46992SOL    HW242874   4.532  10.949  12.603
46993SOL     OW42875   8.189  13.338   3.631
46993SOL    HW142876   8.207  13.431   3.616
46993SOL    HW242877   8.117  13.318   3.572
46994SOL     OW42878   4.260  12.948   2.888
46994SOL    HW142879   4.320  12.982   2.822
46994SOL    HW242880   4.291  12.859   2.906
46995SOL     OW42881  12.562   0.991   3.426
46995SOL    HW142882  12.653   1.019   3.438
46995SOL    HW242883  12.562   0.898   3.450
46996SOL     OW42884   7.086   9.133  11.811
46996SOL    HW142885   7.030   9.201  11.849
46996SOL    HW242886   7.173   9.151  11.848
46997SOL     OW42887  14.299   8.634   0.389
46997SOL    HW142888  14.260   8.645   0.302
46997SOL    HW242889  14.387   8.671   0.380
46998SOL     OW42890   4.063  10.314  10.208
46998SOL    HW142891   4.043  10.407  10.208
46998SOL    HW242892   3.980  10.271  10.187
46999SOL     OW42893  11.142   6.979   3.991
46999SOL    HW142894  11.231   6.961   3.961
46999SOL    HW242895  11.095   7.005   3.911
47000SOL     OW42896   7.538   2.551   6.373
47000SOL    HW142897   7.606   2.488   6.396
47000SOL    HW242898   7.578   2.637   6.391
47001SOL     OW42899   4.665   5.842   5.854
47001SOL    HW142900   4.682   5.805   5.940
47001SOL    HW242901   4.611   5.919   5.870
47002SOL     OW42902   8.094  13.816  12.380
47002SOL    HW142903   8.172  13.760  12.380
47002SOL    HW242904   8.044  13.787  12.304
47003SOL     OW42905   5.463   9.164   6.757
47003SOL    HW142906   5.505   9.131   6.836
47003SOL    HW242907   5.485   9.257   6.756
47004SOL     OW42908  12.729   3.191  13.011
47004SOL    HW142909  12.713   3.096  13.012
47004SOL    HW242910  12.767   3.209  13.097
47005SOL     OW42911   9.161  12.394   2.773
47005SOL    HW142912   9.161  12.359   2.683
47005SOL    HW242913   9.236  12.454   2.775
47006SOL     OW42914   6.503  12.737   0.235
47006SOL    HW142915   6.524  12.824   0.268
47006SOL    HW242916   6.588  12.698   0.214
47007SOL     OW42917  10.154  13.079   5.815
47007SOL    HW142918  10.210  13.085   5.737
47007SOL    HW242919  10.065  13.084   5.781
47008SOL     OW42920  10.420  12.569  10.504
47008SOL    HW142921  10.383  12.619  10.577
47008SOL    HW242922  10.486  12.626  10.466
47009SOL     OW42923  12.431   2.583  12.791
47009SOL    HW142924  12.412   2.659  12.847
47009SOL    HW242925  12.500   2.536  12.837
47010SOL     OW42926  13.033   1.842   1.163
47010SOL    HW142927  13.001   1.830   1.252
47010SOL    HW242928  13.128   1.844   1.171
47011SOL     OW42929   1.661   2.599  14.353
47011SOL    HW142930   1.743   2.646  14.338
47011SOL    HW242931   1.675   2.513  14.312
47012SOL     OW42932   0.571   2.675   5.498
47012SOL    HW142933   0.529   2.643   5.418
47012SOL    HW242934   0.506   2.662   5.566
47013SOL     OW42935   1.632  14.793  14.160
47013SOL    HW142936   1.626  14.761  14.250
47013SOL    HW242937   1.548  14.835  14.144
47014SOL     OW42938  13.808   5.688  13.199
47014SOL    HW142939  13.847   5.647  13.122
47014SOL    HW242940  13.739   5.745  13.163
47015SOL     OW42941   7.657   4.641  11.348
47015SOL    HW142942   7.648   4.548  11.369
47015SOL    HW242943   7.662   4.684  11.434
47016SOL     OW42944   5.508   6.956  12.908
47016SOL    HW142945   5.486   7.037  12.864
47016SOL    HW242946   5.578   6.918  12.855
47017SOL     OW42947   8.409   6.175  12.164
47017SOL    HW142948   8.399   6.232  12.087
47017SOL    HW242949   8.339   6.204  12.223
47018SOL     OW42950   6.710   9.076   9.914
47018SOL    HW142951   6.638   9.037   9.963
47018SOL    HW242952   6.770   9.003   9.897
47019SOL     OW42953   8.811   4.889   9.904
47019SOL    HW142954   8.854   4.968   9.937
47019SOL    HW242955   8.781   4.843   9.982
47020SOL     OW42956   5.512   4.643   3.053
47020SOL    HW142957   5.546   4.725   3.088
47020SOL    HW242958   5.418   4.657   3.044
47021SOL     OW42959  10.150   0.657   7.818
47021SOL    HW142960  10.131   0.749   7.840
47021SOL    HW242961  10.212   0.628   7.885
47022SOL     OW42962   9.228   6.888  10.115
47022SOL    HW142963   9.185   6.823  10.170
47022SOL    HW242964   9.278   6.942  10.176
47023SOL     OW42965   6.521  11.451   2.841
47023SOL    HW142966   6.492  11.411   2.760
47023SOL    HW242967   6.460  11.524   2.855
47024SOL     OW42968   7.127  10.880   9.930
47024SOL    HW142969   7.133  10.975   9.942
47024SOL    HW242970   7.116  10.845  10.019
47025SOL     OW42971   5.844  10.962   9.888
47025SOL    HW142972   5.881  11.025   9.827
47025SOL    HW242973   5.920  10.914   9.920
47026SOL     OW42974  12.215   9.467   7.374
47026SOL    HW142975  12.128   9.484   7.338
47026SOL    HW242976  12.238   9.380   7.341
47027SOL     OW42977  12.690   2.202   0.373
47027SOL    HW142978  12.755   2.253   0.326
47027SOL    HW242979  12.730   2.117   0.386
47028SOL     OW42980   6.014   8.582   4.475
47028SOL    HW142981   5.973   8.511   4.524
47028SOL    HW242982   5.946   8.649   4.468
47029SOL     OW42983  12.449   7.870   4.261
47029SOL    HW142984  12.493   7.925   4.196
47029SOL    HW242985  12.360   7.904   4.265
47030SOL     OW42986   3.543   8.835   0.405
47030SOL    HW142987   3.511   8.843   0.495
47030SOL    HW242988   3.471   8.866   0.350
47031SOL     OW42989   0.396   7.897   6.270
47031SOL    HW142990   0.349   7.926   6.191
47031SOL    HW242991   0.459   7.967   6.288
47032SOL     OW42992  12.521  11.557  12.628
47032SOL    HW142993  12.455  11.505  12.583
47032SOL    HW242994  12.591  11.567  12.563
47033SOL     OW42995   2.961  14.840  10.123
47033SOL    HW142996   2.918  14.756  10.108
47033SOL    HW242997   2.970  14.846  10.218
47034SOL     OW42998   3.091  13.260   6.049
47034SOL    HW142999   3.179  13.221   6.048
47034SOL    HW243000   3.082  13.295   6.137
47035SOL     OW43001  11.233   5.390   1.346
47035SOL    HW143002  11.242   5.325   1.416
47035SOL    HW243003  11.158   5.361   1.295
47036SOL     OW43004   7.404   2.203   6.144
47036SOL    HW143005   7.418   2.147   6.220
47036SOL    HW243006   7.490   2.209   6.102
47037SOL     OW43007   4.774  11.517   3.464
47037SOL    HW143008   4.698  11.508   3.407
47037SOL    HW243009   4.741  11.563   3.541
47038SOL     OW43010   2.776   7.811   2.478
47038SOL    HW143011   2.765   7.893   2.524
47038SOL    HW243012   2.854   7.824   2.423
47039SOL     OW43013  11.863   4.546   0.096
47039SOL    HW143014  11.821   4.626   0.127
47039SOL    HW243015  11.819   4.476   0.145
47040SOL     OW43016  10.705  11.439   9.845
47040SOL    HW143017  10.636  11.453   9.780
47040SOL    HW243018  10.665  11.466   9.928
47041SOL     OW43019   3.945  14.351  14.724
47041SOL    HW143020   3.875  14.392  14.674
47041SOL    HW243021   4.014  14.417  14.727
47042SOL     OW43022   7.093  13.037   5.620
47042SOL    HW143023   7.167  12.978   5.602
47042SOL    HW243024   7.078  13.028   5.714
47043SOL     OW43025  11.313   5.622  10.423
47043SOL    HW143026  11.269   5.559  10.481
47043SOL    HW243027  11.284   5.599  10.335
47044SOL     OW43028   7.686  13.009  14.468
47044SOL    HW143029   7.732  13.004  14.384
47044SOL    HW243030   7.656  13.100  14.473
47045SOL     OW43031  13.792   3.768  12.855
47045SOL    HW143032  13.834   3.763  12.770
47045SOL    HW243033  13.772   3.861  12.868
47046SOL     OW43034   9.671   0.543   2.545
47046SOL    HW143035   9.714   0.459   2.560
47046SOL    HW243036   9.624   0.562   2.626
47047SOL     OW43037   8.727   3.967   0.933
47047SOL    HW143038   8.686   4.036   0.985
47047SOL    HW243039   8.777   4.013   0.866
47048SOL     OW43040   4.990  12.109   8.382
47048SOL    HW143041   4.898  12.094   8.403
47048SOL    HW243042   5.005  12.201   8.406
47049SOL     OW43043  12.087   3.395   1.122
47049SOL    HW143044  12.040   3.466   1.079
47049SOL    HW243045  12.099   3.329   1.054
47050SOL     OW43046  12.840   6.271  11.947
47050SOL    HW143047  12.931   6.301  11.934
47050SOL    HW243048  12.806   6.329  12.014
47051SOL     OW43049   3.246   7.784   3.583
47051SOL    HW143050   3.224   7.772   3.675
47051SOL    HW243051   3.271   7.876   3.577
47052SOL     OW43052  12.432   2.413  10.256
47052SOL    HW143053  12.425   2.458  10.171
47052SOL    HW243054  12.341   2.408  10.286
47053SOL     OW43055  11.175  13.472   6.983
47053SOL    HW143056  11.093  13.476   7.031
47053SOL    HW243057  11.156  13.416   6.908
47054SOL     OW43058   5.068  11.928   3.518
47054SOL    HW143059   4.975  11.944   3.499
47054SOL    HW243060   5.115  11.967   3.444
47055SOL     OW43061  10.413   7.271   5.023
47055SOL    HW143062  10.411   7.206   5.093
47055SOL    HW243063  10.471   7.340   5.056
47056SOL     OW43064  12.067   6.191   9.964
47056SOL    HW143065  11.975   6.174   9.945
47056SOL    HW243066  12.069   6.282   9.994
47057SOL     OW43067   7.016  14.690  11.870
47057SOL    HW143068   7.040  14.602  11.842
47057SOL    HW243069   7.052  14.697  11.959
47058SOL     OW43070   7.528   0.695  14.179
47058SOL    HW143071   7.504   0.684  14.087
47058SOL    HW243072   7.455   0.743  14.218
47059SOL     OW43073   6.360  11.623   9.635
47059SOL    HW143074   6.433  11.634   9.696
47059SOL    HW243075   6.309  11.550   9.671
47060SOL     OW43076  14.697   3.950   1.543
47060SOL    HW143077  14.767   3.996   1.495
47060SOL    HW243078  14.743   3.885   1.595
47061SOL     OW43079   8.317   7.066   9.538
47061SOL    HW143080   8.278   7.123   9.471
47061SOL    HW243081   8.385   7.018   9.492
47062SOL     OW43082   1.569   5.581  12.735
47062SOL    HW143083   1.559   5.666  12.691
47062SOL    HW243084   1.538   5.517  12.671
47063SOL     OW43085  13.769   8.013   2.657
47063SOL    HW143086  13.808   7.930   2.684
47063SOL    HW243087  13.751   8.003   2.564
47064SOL     OW43088   7.219  14.131   5.538
47064SOL    HW143089   7.262  14.135   5.624
47064SOL    HW243090   7.287  14.100   5.479
47065SOL     OW43091   6.930  13.422   7.036
47065SOL    HW143092   6.919  13.336   7.075
47065SOL    HW243093   7.020  13.446   7.055
47066SOL     OW43094   4.841   5.560   4.455
47066SOL    HW143095   4.925   5.529   4.488
47066SOL    HW243096   4.860   5.644   4.413
47067SOL     OW43097   2.130   5.292   2.194
47067SOL    HW143098   2.095   5.330   2.275
47067SOL    HW243099   2.083   5.208   2.185
47068SOL     OW43100  14.074   6.593  11.834
47068SOL    HW143101  14.082   6.659  11.765
47068SOL    HW243102  14.024   6.522  11.793
47069SOL     OW43103   9.715   8.260  13.832
47069SOL    HW143104   9.648   8.326  13.819
47069SOL    HW243105   9.687   8.186  13.778
47070SOL     OW43106  10.404  14.347   6.463
47070SOL    HW143107  10.488  14.390   6.450
47070SOL    HW243108  10.376  14.321   6.375
47071SOL     OW43109   4.190   7.932   6.669
47071SOL    HW143110   4.274   7.945   6.712
47071SOL    HW243111   4.147   8.018   6.675
47072SOL     OW43112   4.308   4.419  10.343
47072SOL    HW143113   4.353   4.407  10.426
47072SOL    HW243114   4.215   4.419  10.365
47073SOL     OW43115   8.804   6.670   5.421
47073SOL    HW143116   8.778   6.612   5.493
47073SOL    HW243117   8.745   6.648   5.349
47074SOL     OW43118  10.690   7.650   6.960
47074SOL    HW143119  10.676   7.564   7.000
47074SOL    HW243120  10.764   7.687   7.009
47075SOL     OW43121   7.539   6.553  12.503
47075SOL    HW143122   7.619   6.574  12.457
47075SOL    HW243123   7.471   6.603  12.457
47076SOL     OW43124   2.913   9.713   3.112
47076SOL    HW143125   2.917   9.739   3.204
47076SOL    HW243126   2.828   9.746   3.081
47077SOL     OW43127  11.242  10.963  13.522
47077SOL    HW143128  11.277  10.986  13.608
47077SOL    HW243129  11.269  11.034  13.464
47078SOL     OW43130  14.079   2.555   5.241
47078SOL    HW143131  14.118   2.563   5.328
47078SOL    HW243132  14.046   2.643   5.221
47079SOL     OW43133  14.419   6.380  11.230
47079SOL    HW143134  14.392   6.309  11.172
47079SOL    HW243135  14.405   6.460  11.179
47080SOL     OW43136  14.069   2.613  12.546
47080SOL    HW143137  13.999   2.548  12.549
47080SOL    HW243138  14.075   2.639  12.454
47081SOL     OW43139   0.423   0.906  14.718
47081SOL    HW143140   0.343   0.861  14.692
47081SOL    HW243141   0.460   0.940  14.636
47082SOL     OW43142   8.011  13.363   1.594
47082SOL    HW143143   7.965  13.405   1.666
47082SOL    HW243144   8.043  13.281   1.631
47083SOL     OW43145   4.121   4.372  11.541
47083SOL    HW143146   4.026   4.388  11.538
47083SOL    HW243147   4.148   4.404  11.627
47084SOL     OW43148   6.852   1.602  14.828
47084SOL    HW143149   6.932   1.575  14.782
47084SOL    HW243150   6.827   1.525   0.007
47085SOL     OW43151  11.183   8.308   1.673
47085SOL    HW143152  11.234   8.359   1.736
47085SOL    HW243153  11.141   8.240   1.725
47086SOL     OW43154   5.262  10.964   1.066
47086SOL    HW143155   5.177  10.965   1.023
47086SOL    HW243156   5.308  10.889   1.028
47087SOL     OW43157   3.712   8.496  14.020
47087SOL    HW143158   3.646   8.541  13.967
47087SOL    HW243159   3.687   8.403  14.014
47088SOL     OW43160   6.418   6.278  11.203
47088SOL    HW143161   6.441   6.188  11.227
47088SOL    HW243162   6.331   6.270  11.163
47089SOL     OW43163   3.121  10.197   3.318
47089SOL    HW143164   3.165  10.258   3.376
47089SOL    HW243165   3.050  10.161   3.370
47090SOL     OW43166   3.370   5.081   8.265
47090SOL    HW143167   3.376   5.068   8.360
47090SOL    HW243168   3.437   5.146   8.246
47091SOL     OW43169   0.817  14.274  10.652
47091SOL    HW143170   0.830  14.315  10.566
47091SOL    HW243171   0.746  14.324  10.692
47092SOL     OW43172   0.716   4.160   0.506
47092SOL    HW143173   0.685   4.078   0.468
47092SOL    HW243174   0.808   4.144   0.526
47093SOL     OW43175   5.524  12.473   7.914
47093SOL    HW143176   5.585  12.409   7.951
47093SOL    HW243177   5.472  12.422   7.851
47094SOL     OW43178   9.423   5.027  11.414
47094SOL    HW143179   9.480   4.990  11.347
47094SOL    HW243180   9.438   4.972  11.492
47095SOL     OW43181   5.982  12.904  11.082
47095SOL    HW143182   5.931  12.984  11.071
47095SOL    HW243183   6.069  12.934  11.106
47096SOL     OW43184   1.577   0.254   4.487
47096SOL    HW143185   1.571   0.286   4.397
47096SOL    HW243186   1.489   0.269   4.524
47097SOL     OW43187   4.916   0.313  13.732
47097SOL    HW143188   4.907   0.399  13.773
47097SOL    HW243189   4.994   0.275  13.772
47098SOL     OW43190   9.760   9.066   9.145
47098SOL    HW143191   9.746   8.972   9.157
47098SOL    HW243192   9.849   9.082   9.176
47099SOL     OW43193   3.012   7.996  12.912
47099SOL    HW143194   3.026   7.909  12.875
47099SOL    HW243195   3.020   8.055  12.837
47100SOL     OW43196   0.729   4.195   3.803
47100SOL    HW143197   0.663   4.186   3.871
47100SOL    HW243198   0.742   4.290   3.794
47101SOL     OW43199  10.114   7.447   5.972
47101SOL    HW143200  10.053   7.489   5.912
47101SOL    HW243201  10.084   7.356   5.978
47102SOL     OW43202  14.692   9.623  14.154
47102SOL    HW143203  14.666   9.546  14.103
47102SOL    HW243204  14.785   9.611  14.169
47103SOL     OW43205   6.467   4.295   8.332
47103SOL    HW143206   6.497   4.220   8.383
47103SOL    HW243207   6.539   4.358   8.338
47104SOL     OW43208   5.524   5.606  11.928
47104SOL    HW143209   5.453   5.669  11.943
47104SOL    HW243210   5.565   5.635  11.846
47105SOL     OW43211   9.108   7.632   1.735
47105SOL    HW143212   9.184   7.584   1.702
47105SOL    HW243213   9.034   7.574   1.718
47106SOL     OW43214   5.248  11.827   8.213
47106SOL    HW143215   5.291  11.867   8.138
47106SOL    HW243216   5.265  11.733   8.203
47107SOL     OW43217   1.613  11.290  14.015
47107SOL    HW143218   1.656  11.348  14.078
47107SOL    HW243219   1.529  11.269  14.055
47108SOL     OW43220  11.091   2.449   6.754
47108SOL    HW143221  11.049   2.411   6.831
47108SOL    HW243222  11.125   2.373   6.706
47109SOL     OW43223  13.290   4.435  10.336
47109SOL    HW143224  13.383   4.454  10.320
47109SOL    HW243225  13.261   4.505  10.394
47110SOL     OW43226  12.494   8.001  11.643
47110SOL    HW143227  12.526   8.009  11.554
47110SOL    HW243228  12.402   8.029  11.638
47111SOL     OW43229  14.618   9.293  14.479
47111SOL    HW143230  14.541   9.287  14.422
47111SOL    HW243231  14.596   9.241  14.556
47112SOL     OW43232   0.919   3.982   2.974
47112SOL    HW143233   0.920   3.945   2.886
47112SOL    HW243234   0.879   3.914   3.028
47113SOL     OW43235   5.447  12.449  14.847
47113SOL    HW143236   5.515  12.446  14.780
47113SOL    HW243237   5.462  12.371   0.028
47114SOL     OW43238   1.138  11.614   9.542
47114SOL    HW143239   1.059  11.587   9.589
47114SOL    HW243240   1.155  11.541   9.482
47115SOL     OW43241  10.186  10.420   0.918
47115SOL    HW143242  10.108  10.475   0.928
47115SOL    HW243243  10.164  10.360   0.847
47116SOL     OW43244   8.280  14.404   7.027
47116SOL    HW143245   8.336  14.376   6.954
47116SOL    HW243246   8.341  14.443   7.090
47117SOL     OW43247  10.756   6.182   8.296
47117SOL    HW143248  10.662   6.189   8.308
47117SOL    HW243249  10.785   6.119   8.362
47118SOL     OW43250   9.982   8.578   4.578
47118SOL    HW143251   9.899   8.624   4.566
47118SOL    HW243252  10.027   8.627   4.646
47119SOL     OW43253  11.764   7.378   7.030
47119SOL    HW143254  11.788   7.333   6.949
47119SOL    HW243255  11.727   7.310   7.085
47120SOL     OW43256   1.673  11.218  10.524
47120SOL    HW143257   1.743  11.153  10.527
47120SOL    HW243258   1.606  11.182  10.583
47121SOL     OW43259   6.429  10.845   6.771
47121SOL    HW143260   6.352  10.790   6.762
47121SOL    HW243261   6.503  10.786   6.758
47122SOL     OW43262   1.177   9.224   1.981
47122SOL    HW143263   1.165   9.310   2.019
47122SOL    HW243264   1.108   9.217   1.914
47123SOL     OW43265   7.061   8.939   2.334
47123SOL    HW143266   6.994   8.959   2.400
47123SOL    HW243267   7.081   9.023   2.293
47124SOL     OW43268   4.123  11.447  10.088
47124SOL    HW143269   4.071  11.527  10.085
47124SOL    HW243270   4.106  11.405  10.004
47125SOL     OW43271  13.414  14.552   0.329
47125SOL    HW143272  13.348  14.499   0.374
47125SOL    HW243273  13.363  14.623   0.288
47126SOL     OW43274  10.062   1.488  12.063
47126SOL    HW143275  10.138   1.483  12.122
47126SOL    HW243276  10.057   1.581  12.039
47127SOL     OW43277   8.965  11.670  12.781
47127SOL    HW143278   9.002  11.584  12.802
47127SOL    HW243279   8.905  11.689  12.853
47128SOL     OW43280   1.633   4.500   9.947
47128SOL    HW143281   1.683   4.434   9.899
47128SOL    HW243282   1.578   4.541   9.881
47129SOL     OW43283  14.375   2.948  14.096
47129SOL    HW143284  14.345   2.902  14.018
47129SOL    HW243285  14.443   2.892  14.133
47130SOL     OW43286  14.796   0.386   5.258
47130SOL    HW143287   0.018   0.394   5.273
47130SOL    HW243288  14.756   0.419   5.338
47131SOL     OW43289   5.623   6.046   1.080
47131SOL    HW143290   5.561   6.115   1.102
47131SOL    HW243291   5.572   5.965   1.084
47132SOL     OW43292   1.396   1.377  10.107
47132SOL    HW143293   1.474   1.390  10.054
47132SOL    HW243294   1.394   1.452  10.166
47133SOL     OW43295   4.822   1.638   9.721
47133SOL    HW143296   4.813   1.611   9.813
47133SOL    HW243297   4.806   1.559   9.671
47134SOL     OW43298   9.295   8.693  12.514
47134SOL    HW143299   9.222   8.745  12.483
47134SOL    HW243300   9.352   8.755  12.558
47135SOL     OW43301   2.293   0.302  10.233
47135SOL    HW143302   2.208   0.263  10.213
47135SOL    HW243303   2.314   0.355  10.156
47136SOL     OW43304  14.213   0.071  12.806
47136SOL    HW143305  14.126   0.034  12.794
47136SOL    HW243306  14.201   0.165  12.799
47137SOL     OW43307  12.352   2.012  12.198
47137SOL    HW143308  12.290   2.079  12.231
47137SOL    HW243309  12.435   2.034  12.240
47138SOL     OW43310   1.974   8.201  10.429
47138SOL    HW143311   2.020   8.261  10.488
47138SOL    HW243312   2.042   8.164  10.374
47139SOL     OW43313  11.386   7.908   4.368
47139SOL    HW143314  11.376   7.976   4.435
47139SOL    HW243315  11.362   7.827   4.413
47140SOL     OW43316   2.374   3.474   3.788
47140SOL    HW143317   2.381   3.568   3.771
47140SOL    HW243318   2.280   3.457   3.796
47141SOL     OW43319   3.591   7.037  14.615
47141SOL    HW143320   3.584   6.946  14.587
47141SOL    HW243321   3.514   7.080  14.577
47142SOL     OW43322  10.767  10.713   1.609
47142SOL    HW143323  10.692  10.744   1.558
47142SOL    HW243324  10.744  10.622   1.630
47143SOL     OW43325   8.887   1.851  12.300
47143SOL    HW143326   8.831   1.778  12.276
47143SOL    HW243327   8.936   1.820  12.376
47144SOL     OW43328  11.711  12.078   8.056
47144SOL    HW143329  11.660  12.100   7.978
47144SOL    HW243330  11.700  11.984   8.067
47145SOL     OW43331  11.209   5.735   1.656
47145SOL    HW143332  11.195   5.747   1.750
47145SOL    HW243333  11.221   5.640   1.646
47146SOL     OW43334   6.911  12.848  13.608
47146SOL    HW143335   6.981  12.884  13.662
47146SOL    HW243336   6.906  12.906  13.532
47147SOL     OW43337   8.140   0.993   4.290
47147SOL    HW143338   8.065   1.047   4.265
47147SOL    HW243339   8.201   1.003   4.218
47148SOL     OW43340   6.354   8.989   2.181
47148SOL    HW143341   6.415   9.063   2.175
47148SOL    HW243342   6.411   8.912   2.185
47149SOL     OW43343  13.281   1.645   2.291
47149SOL    HW143344  13.346   1.699   2.335
47149SOL    HW243345  13.305   1.555   2.315
47150SOL     OW43346  10.799   4.757  11.247
47150SOL    HW143347  10.709   4.723  11.251
47150SOL    HW243348  10.830   4.732  11.160
47151SOL     OW43349  12.910   9.754   4.739
47151SOL    HW143350  12.981   9.750   4.675
47151SOL    HW243351  12.924   9.836   4.786
47152SOL     OW43352  10.912  10.156   1.174
47152SOL    HW143353  10.938  10.082   1.118
47152SOL    HW243354  10.816  10.155   1.171
47153SOL     OW43355   4.938   3.697   7.750
47153SOL    HW143356   4.844   3.701   7.767
47153SOL    HW243357   4.977   3.668   7.833
47154SOL     OW43358   6.747   3.450  14.300
47154SOL    HW143359   6.740   3.530  14.248
47154SOL    HW243360   6.737   3.478  14.390
47155SOL     OW43361  14.553   5.209   9.158
47155SOL    HW143362  14.511   5.282   9.204
47155SOL    HW243363  14.592   5.156   9.228
47156SOL     OW43364  10.525   6.981   2.089
47156SOL    HW143365  10.598   7.043   2.079
47156SOL    HW243366  10.522   6.935   2.005
47157SOL     OW43367  10.634   3.654   7.984
47157SOL    HW143368  10.581   3.704   8.046
47157SOL    HW243369  10.701   3.716   7.954
47158SOL     OW43370   9.770   6.582   1.961
47158SOL    HW143371   9.781   6.493   1.926
47158SOL    HW243372   9.686   6.611   1.924
47159SOL     OW43373   9.513   5.784   4.322
47159SOL    HW143374   9.515   5.690   4.341
47159SOL    HW243375   9.424   5.811   4.344
47160SOL     OW43376   8.615  10.882   0.885
47160SOL    HW143377   8.711  10.885   0.885
47160SOL    HW243378   8.593  10.790   0.873
47161SOL     OW43379   2.253   0.701  13.240
47161SOL    HW143380   2.171   0.652  13.238
47161SOL    HW243381   2.241   0.764  13.311
47162SOL     OW43382   9.190   5.305   5.115
47162SOL    HW143383   9.246   5.289   5.039
47162SOL    HW243384   9.235   5.375   5.163
47163SOL     OW43385   7.267   9.291   3.984
47163SOL    HW143386   7.264   9.279   3.890
47163SOL    HW243387   7.356   9.265   4.009
47164SOL     OW43388   5.591   5.721   9.444
47164SOL    HW143389   5.560   5.799   9.492
47164SOL    HW243390   5.572   5.648   9.503
47165SOL     OW43391  10.685   8.656   9.769
47165SOL    HW143392  10.758   8.693   9.818
47165SOL    HW243393  10.632   8.731   9.745
47166SOL     OW43394   0.464   3.484  10.344
47166SOL    HW143395   0.474   3.418  10.275
47166SOL    HW243396   0.432   3.562  10.298
47167SOL     OW43397  12.411   0.251   9.791
47167SOL    HW143398  12.370   0.329   9.828
47167SOL    HW243399  12.373   0.178   9.840
47168SOL     OW43400  11.943  12.236   3.471
47168SOL    HW143401  12.019  12.293   3.457
47168SOL    HW243402  11.935  12.231   3.566
47169SOL     OW43403  13.203  12.674  14.427
47169SOL    HW143404  13.223  12.580  14.434
47169SOL    HW243405  13.115  12.677  14.389
47170SOL     OW43406   6.892  13.776   3.082
47170SOL    HW143407   6.886  13.865   3.117
47170SOL    HW243408   6.985  13.754   3.090
47171SOL     OW43409   8.488   1.134   5.831
47171SOL    HW143410   8.542   1.175   5.764
47171SOL    HW243411   8.502   1.187   5.909
47172SOL     OW43412   7.079  10.368  11.527
47172SOL    HW143413   7.015  10.338  11.592
47172SOL    HW243414   7.106  10.288  11.482
47173SOL     OW43415  10.050   5.658  11.796
47173SOL    HW143416  10.110   5.683  11.726
47173SOL    HW243417   9.967   5.700  11.773
47174SOL     OW43418   6.953  10.641   2.064
47174SOL    HW143419   7.013  10.712   2.044
47174SOL    HW243420   6.964  10.625   2.158
47175SOL     OW43421   8.477   0.491   3.994
47175SOL    HW143422   8.402   0.459   4.043
47175SOL    HW243423   8.498   0.575   4.035
47176SOL     OW43424   5.416   2.085   7.819
47176SOL    HW143425   5.356   2.057   7.750
47176SOL    HW243426   5.360   2.113   7.891
47177SOL     OW43427   6.533   9.614  14.345
47177SOL    HW143428   6.486   9.557  14.284
47177SOL    HW243429   6.479   9.693  14.350
47178SOL     OW43430  12.977   3.770  13.145
47178SOL    HW143431  12.997   3.799  13.234
47178SOL    HW243432  13.061   3.774  13.099
47179SOL     OW43433   5.056  14.507   7.985
47179SOL    HW143434   4.965  14.521   8.008
47179SOL    HW243435   5.094  14.595   7.980
47180SOL     OW43436   4.395   7.030  13.696
47180SOL    HW143437   4.484   7.002  13.671
47180SOL    HW243438   4.378   6.986  13.779
47181SOL     OW43439   9.448   6.691   3.106
47181SOL    HW143440   9.416   6.610   3.067
47181SOL    HW243441   9.426   6.684   3.199
47182SOL     OW43442  13.035   8.494   7.755
47182SOL    HW143443  13.066   8.408   7.785
47182SOL    HW243444  13.023   8.544   7.836
47183SOL     OW43445   3.481   7.980   7.946
47183SOL    HW143446   3.472   8.032   8.026
47183SOL    HW243447   3.572   7.952   7.946
47184SOL     OW43448   4.687  13.095  10.684
47184SOL    HW143449   4.592  13.082  10.688
47184SOL    HW243450   4.708  13.095  10.591
47185SOL     OW43451   0.548  10.190  12.423
47185SOL    HW143452   0.587  10.195  12.336
47185SOL    HW243453   0.460  10.226  12.413
47186SOL     OW43454   5.107  11.243  14.491
47186SOL    HW143455   5.193  11.263  14.527
47186SOL    HW243456   5.119  11.160  14.446
47187SOL     OW43457  12.413   5.880   1.631
47187SOL    HW143458  12.466   5.858   1.708
47187SOL    HW243459  12.326   5.898   1.665
47188SOL     OW43460   7.042   4.703   5.409
47188SOL    HW143461   7.032   4.614   5.441
47188SOL    HW243462   6.979   4.710   5.337
47189SOL     OW43463   7.454  14.294  11.341
47189SOL    HW143464   7.448  14.323  11.432
47189SOL    HW243465   7.369  14.256  11.321
47190SOL     OW43466   9.881   7.565   7.866
47190SOL    HW143467   9.841   7.650   7.848
47190SOL    HW243468   9.807   7.504   7.870
47191SOL     OW43469  13.372  11.878  11.160
47191SOL    HW143470  13.423  11.865  11.240
47191SOL    HW243471  13.302  11.938  11.186
47192SOL     OW43472  12.375  11.071   7.943
47192SOL    HW143473  12.345  11.128   8.014
47192SOL    HW243474  12.296  11.028   7.912
47193SOL     OW43475  13.291  11.088  14.624
47193SOL    HW143476  13.341  11.119  14.549
47193SOL    HW243477  13.209  11.138  14.620
47194SOL     OW43478   0.345   2.417   4.696
47194SOL    HW143479   0.315   2.457   4.615
47194SOL    HW243480   0.361   2.326   4.674
47195SOL     OW43481  13.844   0.834   6.188
47195SOL    HW143482  13.875   0.899   6.250
47195SOL    HW243483  13.905   0.840   6.114
47196SOL     OW43484  13.326   5.526   3.980
47196SOL    HW143485  13.360   5.489   3.899
47196SOL    HW243486  13.402   5.533   4.038
47197SOL     OW43487  13.755   2.865   4.581
47197SOL    HW143488  13.809   2.817   4.517
47197SOL    HW243489  13.728   2.944   4.534
47198SOL     OW43490   2.305   7.614   0.207
47198SOL    HW143491   2.371   7.559   0.165
47198SOL    HW243492   2.354   7.686   0.246
47199SOL     OW43493   9.312   8.615   0.656
47199SOL    HW143494   9.363   8.534   0.664
47199SOL    HW243495   9.234   8.600   0.709
47200SOL     OW43496   3.683  10.988   3.285
47200SOL    HW143497   3.655  10.902   3.253
47200SOL    HW243498   3.779  10.984   3.285
47201SOL     OW43499   2.812   7.238   8.201
47201SOL    HW143500   2.862   7.317   8.223
47201SOL    HW243501   2.879   7.175   8.171
47202SOL     OW43502  14.521   1.280  10.817
47202SOL    HW143503  14.547   1.331  10.740
47202SOL    HW243504  14.434   1.311  10.839
47203SOL     OW43505  14.520   8.282  14.681
47203SOL    HW143506  14.566   8.353  14.638
47203SOL    HW243507  14.570   8.264  14.761
47204SOL     OW43508  10.919  11.021   4.334
47204SOL    HW143509  10.855  11.030   4.405
47204SOL    HW243510  10.973  10.946   4.359
47205SOL     OW43511   1.486  12.108   7.990
47205SOL    HW143512   1.513  12.096   7.900
47205SOL    HW243513   1.408  12.052   7.999
47206SOL     OW43514   3.586   8.310   6.301
47206SOL    HW143515   3.549   8.251   6.236
47206SOL    HW243516   3.583   8.397   6.259
47207SOL     OW43517   7.584  13.682  13.568
47207SOL    HW143518   7.566  13.596  13.532
47207SOL    HW243519   7.562  13.743  13.497
47208SOL     OW43520   7.100   5.001  11.002
47208SOL    HW143521   7.139   5.039  10.924
47208SOL    HW243522   7.168   5.010  11.069
47209SOL     OW43523   0.459   9.487   9.299
47209SOL    HW143524   0.370   9.487   9.334
47209SOL    HW243525   0.512   9.523   9.370
47210SOL     OW43526   8.827  13.748   3.933
47210SOL    HW143527   8.792  13.731   3.846
47210SOL    HW243528   8.876  13.669   3.956
47211SOL     OW43529   3.680   3.211   2.578
47211SOL    HW143530   3.729   3.289   2.551
47211SOL    HW243531   3.685   3.153   2.501
47212SOL     OW43532   4.789   9.526  12.616
47212SOL    HW143533   4.736   9.585  12.562
47212SOL    HW243534   4.729   9.496  12.684
47213SOL     OW43535   4.891  12.303   0.940
47213SOL    HW143536   4.813  12.337   0.985
47213SOL    HW243537   4.935  12.249   1.005
47214SOL     OW43538   8.108  13.777  13.634
47214SOL    HW143539   8.040  13.765  13.700
47214SOL    HW243540   8.189  13.749  13.678
47215SOL     OW43541   7.855   7.013   9.068
47215SOL    HW143542   7.824   7.096   9.033
47215SOL    HW243543   7.864   7.028   9.162
47216SOL     OW43544  11.007   2.317   3.430
47216SOL    HW143545  11.051   2.367   3.361
47216SOL    HW243546  11.078   2.274   3.478
47217SOL     OW43547   8.851  11.660   8.719
47217SOL    HW143548   8.804  11.579   8.739
47217SOL    HW243549   8.789  11.711   8.666
47218SOL     OW43550   1.993   7.917   2.712
47218SOL    HW143551   1.947   7.844   2.753
47218SOL    HW243552   1.942   7.994   2.735
47219SOL     OW43553   5.338   8.739   4.533
47219SOL    HW143554   5.294   8.808   4.485
47219SOL    HW243555   5.341   8.770   4.624
47220SOL     OW43556   4.640   8.779   5.518
47220SOL    HW143557   4.693   8.704   5.489
47220SOL    HW243558   4.643   8.840   5.444
47221SOL     OW43559  10.886  13.845   7.903
47221SOL    HW143560  10.890  13.760   7.948
47221SOL    HW243561  10.804  13.884   7.932
47222SOL     OW43562   1.291   1.234  13.177
47222SOL    HW143563   1.266   1.288  13.252
47222SOL    HW243564   1.382   1.257  13.160
47223SOL     OW43565  12.148  14.482   2.175
47223SOL    HW143566  12.185  14.517   2.256
47223SOL    HW243567  12.067  14.439   2.203
47224SOL     OW43568   6.133   7.909  14.392
47224SOL    HW143569   6.150   7.827  14.437
47224SOL    HW243570   6.124   7.974  14.462
47225SOL     OW43571   4.993   8.154   5.131
47225SOL    HW143572   4.948   8.186   5.209
47225SOL    HW243573   4.982   8.059   5.135
47226SOL     OW43574   2.083   4.704   5.549
47226SOL    HW143575   2.072   4.680   5.457
47226SOL    HW243576   2.096   4.621   5.595
47227SOL     OW43577   0.434  10.394   2.968
47227SOL    HW143578   0.418  10.450   2.892
47227SOL    HW243579   0.365  10.328   2.964
47228SOL     OW43580   0.010   3.251   2.603
47228SOL    HW143581  14.813   3.194   2.638
47228SOL    HW243582   0.085   3.193   2.591
47229SOL     OW43583   4.494   6.357   1.948
47229SOL    HW143584   4.431   6.293   1.915
47229SOL    HW243585   4.534   6.393   1.868
47230SOL     OW43586   3.441   6.840   1.799
47230SOL    HW143587   3.460   6.757   1.756
47230SOL    HW243588   3.521   6.891   1.789
47231SOL     OW43589  10.291   7.583  14.182
47231SOL    HW143590  10.291   7.502  14.131
47231SOL    HW243591  10.225   7.568  14.250
47232SOL     OW43592   2.526   3.422   5.770
47232SOL    HW143593   2.559   3.418   5.859
47232SOL    HW243594   2.476   3.341   5.759
47233SOL     OW43595   1.292   3.113   5.607
47233SOL    HW143596   1.207   3.100   5.565
47233SOL    HW243597   1.350   3.051   5.563
47234SOL     OW43598  13.857  10.464   7.245
47234SOL    HW143599  13.919  10.487   7.314
47234SOL    HW243600  13.856  10.368   7.244
47235SOL     OW43601  14.235   4.367   3.493
47235SOL    HW143602  14.259   4.459   3.502
47235SOL    HW243603  14.210   4.357   3.401
47236SOL     OW43604  14.146   5.215   0.438
47236SOL    HW143605  14.082   5.146   0.454
47236SOL    HW243606  14.112   5.264   0.363
47237SOL     OW43607   1.501   7.640   3.972
47237SOL    HW143608   1.512   7.665   4.064
47237SOL    HW243609   1.411   7.666   3.950
47238SOL     OW43610   4.019   6.101   3.015
47238SOL    HW143611   4.105   6.142   3.010
47238SOL    HW243612   3.990   6.096   2.924
47239SOL     OW43613   5.386   6.805   2.530
47239SOL    HW143614   5.400   6.786   2.437
47239SOL    HW243615   5.443   6.742   2.575
47240SOL     OW43616   2.144   7.562   2.854
47240SOL    HW143617   2.052   7.537   2.853
47240SOL    HW243618   2.169   7.559   2.947
47241SOL     OW43619   4.225   7.262  12.981
47241SOL    HW143620   4.298   7.320  13.002
47241SOL    HW243621   4.234   7.189  13.043
47242SOL     OW43622  10.624   9.728   6.507
47242SOL    HW143623  10.615   9.759   6.597
47242SOL    HW243624  10.566   9.785   6.456
47243SOL     OW43625   7.443   5.413   7.233
47243SOL    HW143626   7.481   5.364   7.305
47243SOL    HW243627   7.512   5.475   7.207
47244SOL     OW43628   5.902   7.558   1.480
47244SOL    HW143629   5.846   7.482   1.466
47244SOL    HW243630   5.891   7.579   1.572
47245SOL     OW43631   5.503  11.694   8.050
47245SOL    HW143632   5.430  11.635   8.066
47245SOL    HW243633   5.550  11.697   8.134
47246SOL     OW43634   4.860   9.857   8.384
47246SOL    HW143635   4.904   9.785   8.430
47246SOL    HW243636   4.841   9.822   8.297
47247SOL     OW43637  13.600   7.247   2.744
47247SOL    HW143638  13.583   7.290   2.660
47247SOL    HW243639  13.696   7.240   2.748
47248SOL     OW43640   0.705   3.982  10.024
47248SOL    HW143641   0.784   4.001   9.974
47248SOL    HW243642   0.736   3.964  10.113
47249SOL     OW43643   7.224   5.575   1.124
47249SOL    HW143644   7.153   5.628   1.089
47249SOL    HW243645   7.195   5.550   1.212
47250SOL     OW43646  14.688   3.523  11.235
47250SOL    HW143647  14.677   3.514  11.329
47250SOL    HW243648  14.712   3.615  11.222
47251SOL     OW43649  12.005   1.374   2.710
47251SOL    HW143650  11.970   1.372   2.622
47251SOL    HW243651  12.072   1.305   2.710
47252SOL     OW43652  11.588   2.058  13.885
47252SOL    HW143653  11.502   2.061  13.843
47252SOL    HW243654  11.607   1.965  13.895
47253SOL     OW43655   4.357   0.753  13.639
47253SOL    HW143656   4.450   0.738  13.621
47253SOL    HW243657   4.315   0.742  13.554
47254SOL     OW43658   1.492  12.689   9.284
47254SOL    HW143659   1.464  12.620   9.344
47254SOL    HW243660   1.575  12.656   9.248
47255SOL     OW43661   4.301   7.249  12.325
47255SOL    HW143662   4.249   7.198  12.264
47255SOL    HW243663   4.333   7.186  12.389
47256SOL     OW43664   7.853  13.802   5.536
47256SOL    HW143665   7.805  13.730   5.495
47256SOL    HW243666   7.945  13.781   5.519
47257SOL     OW43667   5.946  12.903   3.348
47257SOL    HW143668   5.967  12.912   3.441
47257SOL    HW243669   5.870  12.845   3.345
47258SOL     OW43670   7.790   9.122   5.998
47258SOL    HW143671   7.776   9.029   5.981
47258SOL    HW243672   7.810   9.160   5.912
47259SOL     OW43673   4.885   3.609  10.719
47259SOL    HW143674   4.931   3.619  10.802
47259SOL    HW243675   4.797   3.643  10.737
47260SOL     OW43676   5.156   0.748   4.836
47260SOL    HW143677   5.242   0.716   4.862
47260SOL    HW243678   5.144   0.828   4.886
47261SOL     OW43679  12.591  13.104   0.589
47261SOL    HW143680  12.651  13.072   0.521
47261SOL    HW243681  12.512  13.130   0.541
47262SOL     OW43682   9.695   9.810  12.468
47262SOL    HW143683   9.705   9.822  12.563
47262SOL    HW243684   9.692   9.899  12.433
47263SOL     OW43685   1.040   6.984   2.824
47263SOL    HW143686   1.106   6.988   2.893
47263SOL    HW243687   0.984   7.059   2.840
47264SOL     OW43688  13.204   9.101  10.195
47264SOL    HW143689  13.223   9.008  10.204
47264SOL    HW243690  13.186   9.131  10.284
47265SOL     OW43691   8.691   3.688   8.077
47265SOL    HW143692   8.676   3.593   8.080
47265SOL    HW243693   8.765   3.702   8.136
47266SOL     OW43694   9.836  10.668   5.911
47266SOL    HW143695   9.766  10.731   5.928
47266SOL    HW243696   9.903  10.718   5.865
47267SOL     OW43697  11.192   5.214   1.554
47267SOL    HW143698  11.137   5.152   1.506
47267SOL    HW243699  11.245   5.160   1.612
47268SOL     OW43700   9.558  10.129   8.549
47268SOL    HW143701   9.508  10.047   8.549
47268SOL    HW243702   9.602  10.130   8.464
47269SOL     OW43703   9.547   4.650   5.976
47269SOL    HW143704   9.520   4.742   5.987
47269SOL    HW243705   9.630   4.656   5.928
47270SOL     OW43706  11.733   8.995   1.456
47270SOL    HW143707  11.661   9.051   1.486
47270SOL    HW243708  11.714   8.981   1.363
47271SOL     OW43709  11.326   6.892   4.365
47271SOL    HW143710  11.288   6.810   4.334
47271SOL    HW243711  11.365   6.932   4.287
47272SOL     OW43712   2.823   6.501   0.172
47272SOL    HW143713   2.783   6.471   0.091
47272SOL    HW243714   2.750   6.534   0.224
47273SOL     OW43715  14.403   4.577  11.784
47273SOL    HW143716  14.342   4.530  11.840
47273SOL    HW243717  14.401   4.531  11.700
47274SOL     OW43718  12.829   8.324   0.881
47274SOL    HW143719  12.806   8.313   0.973
47274SOL    HW243720  12.812   8.416   0.863
47275SOL     OW43721   4.174  11.819  12.820
47275SOL    HW143722   4.218  11.736  12.802
47275SOL    HW243723   4.230  11.862  12.885
47276SOL     OW43724  14.199   3.979  14.030
47276SOL    HW143725  14.209   4.004  13.938
47276SOL    HW243726  14.288   3.982  14.065
47277SOL     OW43727   0.117   7.049   0.001
47277SOL    HW143728   0.077   6.997  14.803
47277SOL    HW243729   0.045   7.101   0.036
47278SOL     OW43730   8.782   8.435   0.059
47278SOL    HW143731   8.875   8.457   0.066
47278SOL    HW243732   8.749   8.492  14.862
47279SOL     OW43733   4.981  10.691   5.849
47279SOL    HW143734   4.911  10.694   5.915
47279SOL    HW243735   4.968  10.771   5.798
47280SOL     OW43736   2.884  14.640   2.363
47280SOL    HW143737   2.810  14.665   2.419
47280SOL    HW243738   2.881  14.701   2.290
47281SOL     OW43739   6.320  12.712   0.529
47281SOL    HW143740   6.292  12.761   0.452
47281SOL    HW243741   6.270  12.630   0.525
47282SOL     OW43742  12.064   1.764   0.052
47282SOL    HW143743  11.995   1.706   0.084
47282SOL    HW243744  12.145   1.722   0.080
47283SOL     OW43745  11.331   3.464   1.527
47283SOL    HW143746  11.413   3.415   1.538
47283SOL    HW243747  11.353   3.554   1.551
47284SOL     OW43748   3.630   7.742   8.374
47284SOL    HW143749   3.541   7.715   8.398
47284SOL    HW243750   3.628   7.837   8.377
47285SOL     OW43751   3.575   7.508   2.286
47285SOL    HW143752   3.612   7.512   2.197
47285SOL    HW243753   3.517   7.583   2.291
47286SOL     OW43754  14.213   8.762  11.406
47286SOL    HW143755  14.256   8.847  11.412
47286SOL    HW243756  14.215   8.740  11.313
47287SOL     OW43757   9.392  13.991   0.824
47287SOL    HW143758   9.420  13.916   0.772
47287SOL    HW243759   9.302  13.971   0.849
47288SOL     OW43760   5.228   0.976   5.207
47288SOL    HW143761   5.138   0.961   5.234
47288SOL    HW243762   5.222   1.031   5.130
47289SOL     OW43763   1.982   3.171   7.428
47289SOL    HW143764   2.056   3.174   7.489
47289SOL    HW243765   2.010   3.225   7.354
47290SOL     OW43766  10.512  14.216  10.725
47290SOL    HW143767  10.432  14.249  10.766
47290SOL    HW243768  10.573  14.202  10.797
47291SOL     OW43769   4.802  12.663  14.767
47291SOL    HW143770   4.736  12.621  14.712
47291SOL    HW243771   4.811  12.605  14.843
47292SOL     OW43772  10.598   4.986   5.969
47292SOL    HW143773  10.633   5.036   5.896
47292SOL    HW243774  10.518   4.945   5.935
47293SOL     OW43775   1.052  12.773   1.451
47293SOL    HW143776   1.025  12.737   1.366
47293SOL    HW243777   1.148  12.776   1.446
47294SOL     OW43778   9.674   5.240   8.707
47294SOL    HW143779   9.605   5.279   8.761
47294SOL    HW243780   9.694   5.306   8.640
47295SOL     OW43781   7.914   1.100  12.058
47295SOL    HW143782   7.904   1.087  12.152
47295SOL    HW243783   7.975   1.032  12.031
47296SOL     OW43784   7.319   9.222  13.305
47296SOL    HW143785   7.341   9.249  13.394
47296SOL    HW243786   7.224   9.209  13.306
47297SOL     OW43787   8.149  12.171   6.280
47297SOL    HW143788   8.065  12.212   6.261
47297SOL    HW243789   8.133  12.113   6.354
47298SOL     OW43790  12.847   7.256   1.723
47298SOL    HW143791  12.886   7.326   1.776
47298SOL    HW243792  12.813   7.301   1.646
47299SOL     OW43793   9.078  14.568  13.803
47299SOL    HW143794   9.166  14.532  13.815
47299SOL    HW243795   9.052  14.539  13.715
47300SOL     OW43796   9.201  10.003   1.924
47300SOL    HW143797   9.240   9.982   1.839
47300SOL    HW243798   9.116  10.041   1.902
47301SOL     OW43799   6.816   4.917   3.556
47301SOL    HW143800   6.732   4.958   3.574
47301SOL    HW243801   6.856   4.974   3.490
47302SOL     OW43802  11.919  13.597   1.789
47302SOL    HW143803  12.011  13.618   1.804
47302SOL    HW243804  11.895  13.648   1.712
47303SOL     OW43805   8.122  11.789   4.425
47303SOL    HW143806   8.053  11.723   4.433
47303SOL    HW243807   8.153  11.802   4.515
47304SOL     OW43808   5.937   5.731   3.703
47304SOL    HW143809   5.946   5.769   3.790
47304SOL    HW243810   5.932   5.636   3.719
47305SOL     OW43811   1.139   2.447   6.217
47305SOL    HW143812   1.225   2.487   6.229
47305SOL    HW243813   1.125   2.395   6.296
47306SOL     OW43814   2.112  12.273   6.911
47306SOL    HW143815   2.128  12.286   6.818
47306SOL    HW243816   2.121  12.179   6.925
47307SOL     OW43817   9.047  11.362   1.857
47307SOL    HW143818   9.127  11.322   1.824
47307SOL    HW243819   9.076  11.414   1.933
47308SOL     OW43820  13.201   9.893   1.009
47308SOL    HW143821  13.296   9.879   1.009
47308SOL    HW243822  13.191   9.988   1.013
47309SOL     OW43823   1.781   2.795   4.400
47309SOL    HW143824   1.696   2.830   4.374
47309SOL    HW243825   1.784   2.807   4.495
47310SOL     OW43826   3.190   2.105  13.582
47310SOL    HW143827   3.260   2.170  13.586
47310SOL    HW243828   3.141   2.128  13.503
47311SOL     OW43829   8.754   4.975   9.651
47311SOL    HW143830   8.791   4.931   9.728
47311SOL    HW243831   8.829   5.021   9.612
47312SOL     OW43832   0.033   0.427   2.422
47312SOL    HW143833  14.863   0.507   2.391
47312SOL    HW243834   0.126   0.442   2.408
47313SOL     OW43835   5.458   4.170   2.852
47313SOL    HW143836   5.504   4.100   2.898
47313SOL    HW243837   5.469   4.247   2.909
47314SOL     OW43838   7.742   2.122   2.093
47314SOL    HW143839   7.726   2.155   2.004
47314SOL    HW243840   7.731   2.027   2.086
47315SOL     OW43841   5.198   5.755   8.228
47315SOL    HW143842   5.291   5.741   8.212
47315SOL    HW243843   5.195   5.824   8.295
47316SOL     OW43844  12.619  12.040  11.768
47316SOL    HW143845  12.653  12.053  11.679
47316SOL    HW243846  12.540  11.988  11.756
47317SOL     OW43847   0.328  11.123   3.574
47317SOL    HW143848   0.365  11.037   3.556
47317SOL    HW243849   0.381  11.184   3.523
47318SOL     OW43850   7.266   1.733   1.543
47318SOL    HW143851   7.249   1.827   1.539
47318SOL    HW243852   7.305   1.719   1.629
47319SOL     OW43853   1.236   7.793  13.471
47319SOL    HW143854   1.190   7.709  13.481
47319SOL    HW243855   1.200   7.848  13.540
47320SOL     OW43856  10.684   5.203  11.515
47320SOL    HW143857  10.635   5.154  11.581
47320SOL    HW243858  10.734   5.135  11.468
47321SOL     OW43859   3.581  11.262  14.863
47321SOL    HW143860   3.631  11.326   0.041
47321SOL    HW243861   3.648  11.215  14.812
47322SOL     OW43862   4.876   1.833  14.307
47322SOL    HW143863   4.832   1.749  14.316
47322SOL    HW243864   4.898   1.858  14.397
47323SOL     OW43865  12.574   5.838   3.139
47323SOL    HW143866  12.521   5.820   3.062
47323SOL    HW243867  12.637   5.766   3.143
47324SOL     OW43868   6.169   5.022   8.577
47324SOL    HW143869   6.210   4.944   8.540
47324SOL    HW243870   6.102   5.047   8.514
47325SOL     OW43871   3.442   8.615   7.595
47325SOL    HW143872   3.452   8.706   7.621
47325SOL    HW243873   3.449   8.615   7.500
47326SOL     OW43874  14.464   1.649   6.742
47326SOL    HW143875  14.373   1.624   6.731
47326SOL    HW243876  14.463   1.745   6.741
47327SOL     OW43877   3.188  13.402   5.337
47327SOL    HW143878   3.203  13.310   5.357
47327SOL    HW243879   3.138  13.434   5.412
47328SOL     OW43880  12.859   8.838  12.983
47328SOL    HW143881  12.907   8.757  12.968
47328SOL    HW243882  12.769   8.819  12.955
47329SOL     OW43883   5.124   0.408   6.319
47329SOL    HW143884   5.215   0.394   6.292
47329SOL    HW243885   5.083   0.322   6.309
47330SOL     OW43886   2.146  12.972   3.055
47330SOL    HW143887   2.239  12.979   3.036
47330SOL    HW243888   2.103  13.010   2.979
47331SOL     OW43889   7.937   7.556   0.188
47331SOL    HW143890   7.936   7.651   0.197
47331SOL    HW243891   7.928   7.541   0.094
47332SOL     OW43892   2.034  10.802  11.918
47332SOL    HW143893   1.964  10.796  11.853
47332SOL    HW243894   2.093  10.869  11.883
47333SOL     OW43895  12.745   5.402   4.265
47333SOL    HW143896  12.739   5.378   4.357
47333SOL    HW243897  12.761   5.497   4.266
47334SOL     OW43898   5.209  10.145  14.053
47334SOL    HW143899   5.208  10.079  14.122
47334SOL    HW243900   5.232  10.226  14.098
47335SOL     OW43901   3.774   5.422   8.402
47335SOL    HW143902   3.818   5.437   8.486
47335SOL    HW243903   3.715   5.496   8.393
47336SOL     OW43904   4.167   3.749   3.746
47336SOL    HW143905   4.179   3.735   3.652
47336SOL    HW243906   4.252   3.731   3.784
47337SOL     OW43907  12.482   8.280   3.105
47337SOL    HW143908  12.554   8.336   3.076
47337SOL    HW243909  12.416   8.290   3.036
47338SOL     OW43910   4.344   9.064  11.776
47338SOL    HW143911   4.262   9.104  11.805
47338SOL    HW243912   4.355   9.095  11.686
47339SOL     OW43913   4.751   5.834  13.886
47339SOL    HW143914   4.685   5.770  13.858
47339SOL    HW243915   4.725   5.916  13.845
47340SOL     OW43916   6.183  12.859  13.465
47340SOL    HW143917   6.152  12.779  13.509
47340SOL    HW243918   6.184  12.925  13.535
47341SOL     OW43919  10.495   1.026   6.217
47341SOL    HW143920  10.467   1.003   6.305
47341SOL    HW243921  10.435   0.980   6.159
47342SOL     OW43922   1.191   2.107   4.353
47342SOL    HW143923   1.242   2.029   4.332
47342SOL    HW243924   1.203   2.164   4.278
47343SOL     OW43925   4.467  11.691   9.287
47343SOL    HW143926   4.406  11.750   9.244
47343SOL    HW243927   4.426  11.605   9.279
47344SOL     OW43928  11.317   7.954  11.495
47344SOL    HW143929  11.321   7.918  11.406
47344SOL    HW243930  11.403   7.992  11.510
47345SOL     OW43931  12.608   5.654   9.164
47345SOL    HW143932  12.605   5.595   9.090
47345SOL    HW243933  12.701   5.671   9.179
47346SOL     OW43934   0.087   7.121   8.957
47346SOL    HW143935   0.031   7.096   8.884
47346SOL    HW243936   0.176   7.100   8.927
47347SOL     OW43937   7.142  11.966   3.339
47347SOL    HW143938   7.187  11.883   3.325
47347SOL    HW243939   7.054  11.952   3.303
47348SOL     OW43940   5.333   5.728   7.028
47348SOL    HW143941   5.288   5.734   7.112
47348SOL    HW243942   5.287   5.659   6.981
47349SOL     OW43943   2.528   8.273   3.504
47349SOL    HW143944   2.547   8.367   3.504
47349SOL    HW243945   2.601   8.234   3.456
47350SOL     OW43946  12.850   1.632  11.714
47350SOL    HW143947  12.816   1.614  11.626
47350SOL    HW243948  12.927   1.687  11.699
47351SOL     OW43949  11.545  12.883  14.161
47351SOL    HW143950  11.632  12.915  14.184
47351SOL    HW243951  11.518  12.939  14.088
47352SOL     OW43952   5.154  12.287   0.767
47352SOL    HW143953   5.142  12.192   0.760
47352SOL    HW243954   5.096  12.323   0.701
47353SOL     OW43955   8.034  11.086  14.262
47353SOL    HW143956   8.088  11.114  14.336
47353SOL    HW243957   8.036  11.160  14.202
47354SOL     OW43958   2.409   3.324   1.142
47354SOL    HW143959   2.483   3.305   1.086
47354SOL    HW243960   2.356   3.244   1.141
47355SOL     OW43961   7.581   8.550  13.130
47355SOL    HW143962   7.601   8.623  13.188
47355SOL    HW243963   7.583   8.588  13.042
47356SOL     OW43964  11.171  14.521  12.441
47356SOL    HW143965  11.194  14.553  12.354
47356SOL    HW243966  11.233  14.565  12.500
47357SOL     OW43967   2.769   9.080   8.270
47357SOL    HW143968   2.828   9.009   8.298
47357SOL    HW243969   2.789   9.092   8.177
47358SOL     OW43970  11.689   0.442   2.117
47358SOL    HW143971  11.748   0.381   2.161
47358SOL    HW243972  11.694   0.522   2.169
47359SOL     OW43973   7.155   3.537   3.686
47359SOL    HW143974   7.246   3.541   3.716
47359SOL    HW243975   7.107   3.505   3.761
47360SOL     OW43976   0.773  12.252   8.683
47360SOL    HW143977   0.843  12.315   8.697
47360SOL    HW243978   0.727  12.249   8.767
47361SOL     OW43979  12.676   2.932  13.007
47361SOL    HW143980  12.665   2.837  13.001
47361SOL    HW243981  12.617   2.959  13.077
47362SOL     OW43982   5.805   7.237   3.304
47362SOL    HW143983   5.710   7.241   3.314
47362SOL    HW243984   5.835   7.324   3.330
47363SOL     OW43985   6.966   0.019   5.723
47363SOL    HW143986   6.969  14.841   5.804
47363SOL    HW243987   6.908  14.843   5.665
47364SOL     OW43988  13.784  14.358   1.037
47364SOL    HW143989  13.715  14.404   1.085
47364SOL    HW243990  13.842  14.427   1.005
47365SOL     OW43991   9.704   7.052   6.994
47365SOL    HW143992   9.649   7.008   6.929
47365SOL    HW243993   9.737   7.129   6.948
47366SOL     OW43994  11.066   6.749  13.562
47366SOL    HW143995  11.093   6.724  13.474
47366SOL    HW243996  10.998   6.685  13.585
47367SOL     OW43997   2.302   1.952   2.551
47367SOL    HW143998   2.362   1.960   2.476
47367SOL    HW243999   2.349   1.897   2.613
47368SOL     OW44000   4.055   3.525  11.787
47368SOL    HW144001   4.081   3.440  11.822
47368SOL    HW244002   4.028   3.507  11.697
47369SOL     OW44003  14.104  10.265   8.916
47369SOL    HW144004  14.109  10.359   8.929
47369SOL    HW244005  14.084  10.230   9.003
47370SOL     OW44006   3.790  11.986  14.377
47370SOL    HW144007   3.737  12.005  14.300
47370SOL    HW244008   3.828  11.900  14.359
47371SOL     OW44009  11.507   5.080   6.816
47371SOL    HW144010  11.513   5.073   6.720
47371SOL    HW244011  11.523   4.991   6.847
47372SOL     OW44012   1.403  11.073   3.357
47372SOL    HW144013   1.389  10.981   3.379
47372SOL    HW244014   1.497  11.086   3.368
47373SOL     OW44015   7.273   7.309   3.716
47373SOL    HW144016   7.190   7.260   3.712
47373SOL    HW244017   7.317   7.273   3.793
47374SOL     OW44018   0.199   3.260   9.037
47374SOL    HW144019   0.275   3.317   9.032
47374SOL    HW244020   0.200   3.211   8.955
47375SOL     OW44021  10.282   2.759  12.473
47375SOL    HW144022  10.217   2.792  12.411
47375SOL    HW244023  10.366   2.795  12.442
47376SOL     OW44024   5.597   6.029   4.546
47376SOL    HW144025   5.578   6.004   4.456
47376SOL    HW244026   5.512   6.034   4.589
47377SOL     OW44027   1.088   9.483   1.984
47377SOL    HW144028   1.031   9.552   2.018
47377SOL    HW244029   1.112   9.513   1.896
47378SOL     OW44030  11.773   7.945   2.189
47378SOL    HW144031  11.853   7.893   2.191
47378SOL    HW244032  11.800   8.032   2.219
47379SOL     OW44033   7.460   0.446   3.199
47379SOL    HW144034   7.383   0.395   3.175
47379SOL    HW244035   7.427   0.534   3.217
47380SOL     OW44036   3.767   7.088   6.113
47380SOL    HW144037   3.781   7.181   6.095
47380SOL    HW244038   3.680   7.084   6.152
47381SOL     OW44039   7.754   2.438   4.096
47381SOL    HW144040   7.786   2.411   4.010
47381SOL    HW244041   7.664   2.406   4.100
47382SOL     OW44042  12.985   0.292   1.530
47382SOL    HW144043  13.030   0.208   1.526
47382SOL    HW244044  12.927   0.292   1.454
47383SOL     OW44045   5.330   9.546   3.134
47383SOL    HW144046   5.293   9.628   3.101
47383SOL    HW244047   5.277   9.478   3.092
47384SOL     OW44048   0.105   5.851  10.502
47384SOL    HW144049   0.176   5.868  10.564
47384SOL    HW244050   0.088   5.936  10.461
47385SOL     OW44051   0.979   5.387  11.141
47385SOL    HW144052   1.035   5.309  11.146
47385SOL    HW244053   0.932   5.377  11.059
47386SOL     OW44054   8.052   0.678  13.833
47386SOL    HW144055   8.145   0.698  13.844
47386SOL    HW244056   8.051   0.587  13.801
47387SOL     OW44057   5.338   5.500   1.570
47387SOL    HW144058   5.381   5.426   1.528
47387SOL    HW244059   5.251   5.503   1.530
47388SOL     OW44060   3.211   8.755   4.436
47388SOL    HW144061   3.191   8.725   4.525
47388SOL    HW244062   3.302   8.784   4.440
47389SOL     OW44063   9.920   9.623   5.772
47389SOL    HW144064   9.996   9.578   5.735
47389SOL    HW244065   9.846   9.594   5.719
47390SOL     OW44066  10.094  12.118  12.510
47390SOL    HW144067  10.140  12.156  12.436
47390SOL    HW244068  10.061  12.194  12.559
47391SOL     OW44069  14.426  11.157   1.157
47391SOL    HW144070  14.387  11.128   1.074
47391SOL    HW244071  14.479  11.233   1.133
47392SOL     OW44072  14.342  10.970   1.607
47392SOL    HW144073  14.337  11.052   1.558
47392SOL    HW244074  14.340  10.902   1.540
47393SOL     OW44075   4.518  11.263  14.118
47393SOL    HW144076   4.502  11.212  14.197
47393SOL    HW244077   4.478  11.348  14.136
47394SOL     OW44078   5.006  13.715   8.487
47394SOL    HW144079   5.015  13.797   8.439
47394SOL    HW244080   5.018  13.738   8.579
47395SOL     OW44081   6.527  10.177   8.070
47395SOL    HW144082   6.543  10.271   8.065
47395SOL    HW244083   6.606  10.137   8.033
47396SOL     OW44084   9.172   0.208   1.502
47396SOL    HW144085   9.095   0.161   1.532
47396SOL    HW244086   9.139   0.293   1.472
47397SOL     OW44087   3.704  13.360   3.046
47397SOL    HW144088   3.746  13.290   3.096
47397SOL    HW244089   3.774  13.397   2.992
47398SOL     OW44090   8.723   5.428   3.805
47398SOL    HW144091   8.675   5.510   3.809
47398SOL    HW244092   8.798   5.447   3.749
47399SOL     OW44093   8.693  13.569   4.426
47399SOL    HW144094   8.746  13.642   4.394
47399SOL    HW244095   8.749  13.524   4.489
47400SOL     OW44096   3.037  14.541   3.377
47400SOL    HW144097   3.120  14.492   3.376
47400SOL    HW244098   3.007  14.535   3.468
47401SOL     OW44099   1.508  14.727   2.385
47401SOL    HW144100   1.420  14.757   2.406
47401SOL    HW244101   1.496  14.639   2.350
47402SOL     OW44102   4.751  11.303   4.717
47402SOL    HW144103   4.810  11.253   4.773
47402SOL    HW244104   4.791  11.301   4.630
47403SOL     OW44105  14.096   1.065   3.833
47403SOL    HW144106  14.024   1.089   3.892
47403SOL    HW244107  14.058   0.997   3.777
47404SOL     OW44108   3.266   4.525   3.656
47404SOL    HW144109   3.183   4.565   3.630
47404SOL    HW244110   3.326   4.545   3.583
47405SOL     OW44111  12.717   2.121   9.750
47405SOL    HW144112  12.650   2.059   9.721
47405SOL    HW244113  12.677   2.207   9.737
47406SOL     OW44114   8.444   4.356   5.734
47406SOL    HW144115   8.349   4.366   5.743
47406SOL    HW244116   8.476   4.443   5.710
47407SOL     OW44117   9.422   8.831  10.118
47407SOL    HW144118   9.381   8.779  10.187
47407SOL    HW244119   9.391   8.791  10.036
47408SOL     OW44120   3.584  12.379  13.640
47408SOL    HW144121   3.563  12.378  13.547
47408SOL    HW244122   3.510  12.425  13.681
47409SOL     OW44123  13.458   9.128   4.571
47409SOL    HW144124  13.548   9.148   4.598
47409SOL    HW244125  13.452   9.033   4.576
47410SOL     OW44126  12.639  13.311   4.048
47410SOL    HW144127  12.638  13.241   3.984
47410SOL    HW244128  12.547  13.336   4.058
47411SOL     OW44129   6.400   0.601  11.096
47411SOL    HW144130   6.485   0.603  11.054
47411SOL    HW244131   6.419   0.603  11.190
47412SOL     OW44132   7.078  10.670   3.009
47412SOL    HW144133   7.086  10.605   2.938
47412SOL    HW244134   7.093  10.754   2.966
47413SOL     OW44135   8.327  11.899   8.663
47413SOL    HW144136   8.284  11.853   8.735
47413SOL    HW244137   8.362  11.979   8.703
47414SOL     OW44138   4.944   6.575   3.679
47414SOL    HW144139   4.943   6.642   3.747
47414SOL    HW244140   5.035   6.574   3.648
47415SOL     OW44141   5.241   3.992   5.453
47415SOL    HW144142   5.186   4.071   5.454
47415SOL    HW244143   5.317   4.016   5.505
47416SOL     OW44144   0.507   6.343  13.052
47416SOL    HW144145   0.581   6.396  13.081
47416SOL    HW244146   0.451   6.405  13.005
47417SOL     OW44147  14.280   6.448   1.718
47417SOL    HW144148  14.223   6.425   1.645
47417SOL    HW244149  14.354   6.388   1.711
47418SOL     OW44150   3.569   8.814   6.099
47418SOL    HW144151   3.619   8.895   6.108
47418SOL    HW244152   3.500   8.822   6.166
47419SOL     OW44153   0.378   2.296   4.160
47419SOL    HW144154   0.367   2.388   4.137
47419SOL    HW244155   0.433   2.297   4.239
47420SOL     OW44156  14.824   6.943   1.987
47420SOL    HW144157   0.034   6.959   1.941
47420SOL    HW244158  14.770   6.894   1.924
47421SOL     OW44159   5.325   9.104  12.309
47421SOL    HW144160   5.291   9.181  12.264
47421SOL    HW244161   5.260   9.084  12.376
47422SOL     OW44162  12.560   6.290   4.358
47422SOL    HW144163  12.567   6.372   4.309
47422SOL    HW244164  12.649   6.253   4.355
47423SOL     OW44165   3.111   5.972   8.059
47423SOL    HW144166   3.043   5.907   8.041
47423SOL    HW244167   3.065   6.043   8.103
47424SOL     OW44168   4.357   4.667   9.231
47424SOL    HW144169   4.328   4.584   9.269
47424SOL    HW244170   4.452   4.666   9.240
47425SOL     OW44171  11.775   5.810   3.203
47425SOL    HW144172  11.865   5.780   3.206
47425SOL    HW244173  11.737   5.784   3.287
47426SOL     OW44174   1.717  12.933  10.330
47426SOL    HW144175   1.775  12.861  10.304
47426SOL    HW244176   1.640  12.889  10.367
47427SOL     OW44177   1.045   5.557   7.507
47427SOL    HW144178   0.964   5.521   7.470
47427SOL    HW244179   1.112   5.533   7.443
47428SOL     OW44180   7.002  12.926  11.128
47428SOL    HW144181   7.059  12.873  11.073
47428SOL    HW244182   6.916  12.921  11.086
47429SOL     OW44183   4.119   1.907  12.097
47429SOL    HW144184   4.175   1.894  12.021
47429SOL    HW244185   4.069   1.825  12.103
47430SOL     OW44186  10.557   5.652  14.855
47430SOL    HW144187  10.472   5.665  14.812
47430SOL    HW244188  10.620   5.697  14.797
47431SOL     OW44189  13.985   4.284  14.287
47431SOL    HW144190  14.004   4.364  14.336
47431SOL    HW244191  14.010   4.304  14.197
47432SOL     OW44192   1.855  10.944   2.068
47432SOL    HW144193   1.908  10.965   2.145
47432SOL    HW244194   1.909  10.884   2.017
47433SOL     OW44195   6.713   8.698   6.586
47433SOL    HW144196   6.716   8.786   6.550
47433SOL    HW244197   6.804   8.667   6.582
47434SOL     OW44198   3.290   1.323   0.665
47434SOL    HW144199   3.380   1.334   0.633
47434SOL    HW244200   3.301   1.289   0.754
47435SOL     OW44201   5.214   3.737   5.322
47435SOL    HW144202   5.126   3.701   5.316
47435SOL    HW244203   5.201   3.823   5.363
47436SOL     OW44204   2.706   2.097   7.650
47436SOL    HW144205   2.779   2.139   7.605
47436SOL    HW244206   2.707   2.007   7.617
47437SOL     OW44207  13.493  11.954   0.688
47437SOL    HW144208  13.551  11.896   0.737
47437SOL    HW244209  13.445  11.896   0.629
47438SOL     OW44210   4.303  14.576  13.880
47438SOL    HW144211   4.259  14.621  13.808
47438SOL    HW244212   4.259  14.491  13.886
47439SOL     OW44213   4.625   9.079   2.260
47439SOL    HW144214   4.621   9.022   2.337
47439SOL    HW244215   4.562   9.149   2.278
47440SOL     OW44216   1.246  10.111   6.935
47440SOL    HW144217   1.276  10.201   6.942
47440SOL    HW244218   1.164  10.116   6.885
47441SOL     OW44219   9.884   2.518   9.261
47441SOL    HW144220   9.934   2.450   9.307
47441SOL    HW244221   9.928   2.528   9.177
47442SOL     OW44222   1.422   1.480  10.894
47442SOL    HW144223   1.461   1.405  10.849
47442SOL    HW244224   1.424   1.550  10.829
47443SOL     OW44225  14.231  10.007   3.526
47443SOL    HW144226  14.277   9.951   3.463
47443SOL    HW244227  14.281  10.089   3.526
47444SOL     OW44228  11.637   1.741   1.755
47444SOL    HW144229  11.593   1.807   1.808
47444SOL    HW244230  11.645   1.665   1.813
47445SOL     OW44231   9.229  14.676  12.346
47445SOL    HW144232   9.143  14.662  12.307
47445SOL    HW244233   9.220  14.644  12.436
47446SOL     OW44234  14.737   8.383  10.515
47446SOL    HW144235  14.669   8.397  10.450
47446SOL    HW244236  14.806   8.444  10.492
47447SOL     OW44237  13.383   7.734   5.806
47447SOL    HW144238  13.313   7.794   5.830
47447SOL    HW244239  13.464   7.782   5.822
47448SOL     OW44240   9.353   6.359  11.008
47448SOL    HW144241   9.374   6.275  11.050
47448SOL    HW244242   9.258   6.359  11.002
47449SOL     OW44243   0.694   2.990   6.789
47449SOL    HW144244   0.698   2.950   6.702
47449SOL    HW244245   0.772   2.957   6.834
47450SOL     OW44246   0.186   6.736   6.675
47450SOL    HW144247   0.134   6.800   6.626
47450SOL    HW244248   0.121   6.676   6.712
47451SOL     OW44249   3.943   4.291   0.077
47451SOL    HW144250   3.890   4.348   0.133
47451SOL    HW244251   4.021   4.271   0.130
47452SOL     OW44252   4.813   5.538  11.219
47452SOL    HW144253   4.895   5.537  11.269
47452SOL    HW244254   4.817   5.618  11.168
47453SOL     OW44255   5.610   3.322  13.706
47453SOL    HW144256   5.588   3.411  13.679
47453SOL    HW244257   5.567   3.312  13.791
47454SOL     OW44258   5.219   3.604   5.072
47454SOL    HW144259   5.198   3.616   5.164
47454SOL    HW244260   5.168   3.672   5.027
47455SOL     OW44261   0.220   0.388   2.065
47455SOL    HW144262   0.197   0.323   2.132
47455SOL    HW244263   0.276   0.451   2.111
47456SOL     OW44264  13.014  13.598  10.976
47456SOL    HW144265  12.944  13.533  10.980
47456SOL    HW244266  13.067  13.572  10.901
47457SOL     OW44267  12.772   5.420   1.874
47457SOL    HW144268  12.810   5.379   1.951
47457SOL    HW244269  12.780   5.353   1.805
47458SOL     OW44270   7.200  13.140   4.426
47458SOL    HW144271   7.167  13.141   4.336
47458SOL    HW244272   7.295  13.144   4.416
47459SOL     OW44273   4.889   8.975   4.889
47459SOL    HW144274   4.945   8.931   4.825
47459SOL    HW244275   4.881   9.065   4.857
47460SOL     OW44276   5.828   7.724  12.741
47460SOL    HW144277   5.869   7.702  12.824
47460SOL    HW244278   5.734   7.722  12.760
47461SOL     OW44279   2.412   6.076   6.633
47461SOL    HW144280   2.417   6.035   6.547
47461SOL    HW244281   2.502   6.075   6.666
47462SOL     OW44282   6.285  11.621   9.345
47462SOL    HW144283   6.344  11.662   9.283
47462SOL    HW244284   6.334  11.618   9.427
47463SOL     OW44285   3.091   6.071   2.753
47463SOL    HW144286   3.119   6.155   2.791
47463SOL    HW244287   3.168   6.015   2.761
47464SOL     OW44288   3.070   7.368  14.741
47464SOL    HW144289   3.059   7.335  14.651
47464SOL    HW244290   3.134   7.438  14.733
47465SOL     OW44291   4.247   4.908   2.121
47465SOL    HW144292   4.330   4.915   2.168
47465SOL    HW244293   4.182   4.943   2.182
47466SOL     OW44294   0.549   1.769  13.545
47466SOL    HW144295   0.627   1.728  13.582
47466SOL    HW244296   0.506   1.809  13.620
47467SOL     OW44297  12.852  14.237  10.912
47467SOL    HW144298  12.807  14.262  10.993
47467SOL    HW244299  12.922  14.302  10.903
47468SOL     OW44300   2.128  14.865   5.592
47468SOL    HW144301   2.054   0.011   5.534
47468SOL    HW244302   2.199  14.840   5.532
47469SOL     OW44303  10.167  12.129  12.223
47469SOL    HW144304  10.202  12.143  12.135
47469SOL    HW244305  10.159  12.034  12.230
47470SOL     OW44306  13.630  10.411  11.078
47470SOL    HW144307  13.652  10.322  11.051
47470SOL    HW244308  13.572  10.443  11.009
47471SOL     OW44309   6.817   4.979   7.126
47471SOL    HW144310   6.797   5.066   7.091
47471SOL    HW244311   6.733   4.932   7.122
47472SOL     OW44312   5.843   2.716   3.132
47472SOL    HW144313   5.890   2.726   3.215
47472SOL    HW244314   5.782   2.643   3.148
47473SOL     OW44315   8.527  13.259  11.650
47473SOL    HW144316   8.595  13.298  11.595
47473SOL    HW244317   8.496  13.184  11.600
47474SOL     OW44318  12.477  13.652  14.763
47474SOL    HW144319  12.444  13.623  14.678
47474SOL    HW244320  12.500  13.571  14.809
47475SOL     OW44321   9.377  14.380   5.067
47475SOL    HW144322   9.310  14.447   5.078
47475SOL    HW244323   9.459  14.429   5.060
47476SOL     OW44324   5.674  13.926   0.720
47476SOL    HW144325   5.592  13.887   0.752
47476SOL    HW244326   5.680  13.895   0.630
47477SOL     OW44327   0.428  12.929  10.730
47477SOL    HW144328   0.385  12.846  10.748
47477SOL    HW244329   0.510  12.926  10.780
47478SOL     OW44330   0.190  13.263   5.106
47478SOL    HW144331   0.284  13.261   5.088
47478SOL    HW244332   0.157  13.329   5.045
47479SOL     OW44333   2.818   5.298   5.237
47479SOL    HW144334   2.786   5.258   5.156
47479SOL    HW244335   2.780   5.245   5.307
47480SOL     OW44336   5.279   8.418  12.540
47480SOL    HW144337   5.282   8.427  12.635
47480SOL    HW244338   5.356   8.364  12.519
47481SOL     OW44339   5.478   3.629   0.756
47481SOL    HW144340   5.386   3.649   0.774
47481SOL    HW244341   5.509   3.584   0.835
47482SOL     OW44342  14.825   3.371   0.595
47482SOL    HW144343  14.803   3.299   0.536
47482SOL    HW244344   0.046   3.362   0.611
47483SOL     OW44345  12.932  12.430   1.559
47483SOL    HW144346  12.868  12.405   1.626
47483SOL    HW244347  12.896  12.395   1.477
47484SOL     OW44348   8.543   1.516   3.048
47484SOL    HW144349   8.612   1.504   3.113
47484SOL    HW244350   8.463   1.489   3.092
47485SOL     OW44351  13.690   2.089   7.989
47485SOL    HW144352  13.632   2.148   7.941
47485SOL    HW244353  13.631   2.031   8.037
47486SOL     OW44354   1.190   6.456   6.867
47486SOL    HW144355   1.279   6.487   6.854
47486SOL    HW244356   1.141   6.535   6.891
47487SOL     OW44357   1.163   5.185   9.764
47487SOL    HW144358   1.105   5.130   9.711
47487SOL    HW244359   1.164   5.269   9.719
47488SOL     OW44360   1.333  13.427   9.265
47488SOL    HW144361   1.338  13.503   9.322
47488SOL    HW244362   1.239  13.413   9.252
47489SOL     OW44363  10.569  12.060  12.308
47489SOL    HW144364  10.566  11.998  12.382
47489SOL    HW244365  10.529  12.140  12.342
47490SOL     OW44366  10.540   6.654  11.589
47490SOL    HW144367  10.604   6.612  11.646
47490SOL    HW244368  10.480   6.584  11.564
47491SOL     OW44369   6.741  11.453  11.828
47491SOL    HW144370   6.819  11.399  11.814
47491SOL    HW244371   6.668  11.394  11.810
47492SOL     OW44372   7.862  13.765   1.721
47492SOL    HW144373   7.888  13.705   1.790
47492SOL    HW244374   7.890  13.722   1.640
47493SOL     OW44375   8.172   1.596   1.273
47493SOL    HW144376   8.147   1.566   1.360
47493SOL    HW244377   8.248   1.652   1.288
47494SOL     OW44378   2.292   4.695   6.402
47494SOL    HW144379   2.261   4.746   6.477
47494SOL    HW244380   2.329   4.760   6.342
47495SOL     OW44381  12.604   1.318  14.321
47495SOL    HW144382  12.526   1.371  14.307
47495SOL    HW244383  12.597   1.248  14.256
47496SOL     OW44384   6.825  14.192  11.083
47496SOL    HW144385   6.844  14.175  10.991
47496SOL    HW244386   6.756  14.259  11.082
47497SOL     OW44387  11.488   9.586   0.252
47497SOL    HW144388  11.526   9.568   0.166
47497SOL    HW244389  11.507   9.508   0.303
47498SOL     OW44390   2.927   0.791   1.830
47498SOL    HW144391   2.875   0.730   1.882
47498SOL    HW244392   2.977   0.734   1.771
47499SOL     OW44393   6.355  10.647   4.870
47499SOL    HW144394   6.413  10.723   4.864
47499SOL    HW244395   6.411  10.577   4.904
47500SOL     OW44396  13.850   7.013   5.811
47500SOL    HW144397  13.939   7.045   5.797
47500SOL    HW244398  13.795   7.071   5.756
47501SOL     OW44399   6.921   5.334   0.665
47501SOL    HW144400   6.828   5.316   0.655
47501SOL    HW244401   6.924   5.426   0.692
47502SOL     OW44402   1.757   8.458  12.613
47502SOL    HW144403   1.744   8.542  12.657
47502SOL    HW244404   1.676   8.446  12.563
47503SOL     OW44405   4.917   1.345  12.047
47503SOL    HW144406   4.846   1.405  12.068
47503SOL    HW244407   4.966   1.389  11.978
47504SOL     OW44408  12.847   3.288   0.701
47504SOL    HW144409  12.852   3.350   0.774
47504SOL    HW244410  12.755   3.291   0.674
47505SOL     OW44411   1.963   4.665   0.124
47505SOL    HW144412   2.056   4.652   0.110
47505SOL    HW244413   1.926   4.576   0.126
47506SOL     OW44414  12.610  12.996   8.282
47506SOL    HW144415  12.594  12.901   8.288
47506SOL    HW244416  12.683  13.004   8.221
47507SOL     OW44417   3.994   8.508   9.097
47507SOL    HW144418   3.921   8.569   9.102
47507SOL    HW244419   4.046   8.539   9.023
47508SOL     OW44420   4.539   8.308   0.607
47508SOL    HW144421   4.582   8.358   0.537
47508SOL    HW244422   4.593   8.230   0.618
47509SOL     OW44423  12.353   4.297   7.032
47509SOL    HW144424  12.442   4.282   7.000
47509SOL    HW244425  12.328   4.382   6.995
47510SOL     OW44426  10.739  14.052   6.987
47510SOL    HW144427  10.670  13.990   6.964
47510SOL    HW244428  10.695  14.118   7.041
47511SOL     OW44429  10.446  12.440   2.634
47511SOL    HW144430  10.499  12.447   2.714
47511SOL    HW244431  10.452  12.347   2.611
47512SOL     OW44432  12.944  11.922  13.871
47512SOL    HW144433  12.874  11.873  13.827
47512SOL    HW244434  13.000  11.953  13.800
47513SOL     OW44435   8.100   6.917   8.263
47513SOL    HW144436   8.114   6.997   8.213
47513SOL    HW244437   8.081   6.851   8.197
47514SOL     OW44438  12.804   5.232  11.217
47514SOL    HW144439  12.753   5.199  11.291
47514SOL    HW244440  12.848   5.309  11.251
47515SOL     OW44441   1.537  11.908   7.032
47515SOL    HW144442   1.614  11.956   7.002
47515SOL    HW244443   1.470  11.928   6.967
47516SOL     OW44444   2.838  13.077   6.981
47516SOL    HW144445   2.859  12.995   6.936
47516SOL    HW244446   2.835  13.143   6.912
47517SOL     OW44447   3.962  10.594  10.659
47517SOL    HW144448   3.903  10.563  10.590
47517SOL    HW244449   4.026  10.648  10.612
47518SOL     OW44450   7.551   7.527  11.248
47518SOL    HW144451   7.463   7.490  11.251
47518SOL    HW244452   7.559   7.562  11.159
47519SOL     OW44453  10.927  10.593   5.501
47519SOL    HW144454  10.916  10.544   5.420
47519SOL    HW244455  10.848  10.572   5.552
47520SOL     OW44456   4.746   7.016   5.697
47520SOL    HW144457   4.791   7.012   5.613
47520SOL    HW244458   4.654   7.002   5.676
47521SOL     OW44459  13.399  13.490   6.634
47521SOL    HW144460  13.481  13.478   6.683
47521SOL    HW244461  13.413  13.442   6.552
47522SOL     OW44462   7.943  11.545   7.466
47522SOL    HW144463   8.009  11.581   7.407
47522SOL    HW244464   7.901  11.622   7.504
47523SOL     OW44465   3.500   1.496   7.505
47523SOL    HW144466   3.579   1.535   7.544
47523SOL    HW244467   3.494   1.537   7.419
47524SOL     OW44468  10.981  13.278   7.383
47524SOL    HW144469  11.045  13.233   7.439
47524SOL    HW244470  10.932  13.206   7.342
47525SOL     OW44471   0.481  11.603   8.845
47525SOL    HW144472   0.546  11.629   8.781
47525SOL    HW244473   0.527  11.543   8.904
47526SOL     OW44474   2.407   4.892   9.706
47526SOL    HW144475   2.345   4.962   9.686
47526SOL    HW244476   2.462   4.928   9.776
47527SOL     OW44477   8.139   9.699  12.695
47527SOL    HW144478   8.167   9.639  12.627
47527SOL    HW244479   8.083   9.763  12.650
47528SOL     OW44480   9.815   3.683  14.095
47528SOL    HW144481   9.878   3.612  14.077
47528SOL    HW244482   9.870   3.757  14.119
47529SOL     OW44483   5.966   9.804  10.691
47529SOL    HW144484   5.973   9.708  10.693
47529SOL    HW244485   5.992   9.828  10.602
47530SOL     OW44486   8.012   8.858   5.132
47530SOL    HW144487   8.002   8.764   5.115
47530SOL    HW244488   7.922   8.892   5.135
47531SOL     OW44489   9.000   3.280  12.574
47531SOL    HW144490   9.070   3.287  12.639
47531SOL    HW244491   8.999   3.188  12.550
47532SOL     OW44492  10.583  12.889   2.627
47532SOL    HW144493  10.562  12.891   2.534
47532SOL    HW244494  10.503  12.860   2.669
47533SOL     OW44495   7.793  13.036  11.521
47533SOL    HW144496   7.736  13.011  11.593
47533SOL    HW244497   7.838  12.954  11.497
47534SOL     OW44498   3.879  14.039   9.390
47534SOL    HW144499   3.901  13.997   9.307
47534SOL    HW244500   3.927  13.989   9.456
47535SOL     OW44501  10.990   3.941   9.016
47535SOL    HW144502  11.058   3.922   9.081
47535SOL    HW244503  10.922   3.876   9.033
47536SOL     OW44504   0.549   3.202   9.210
47536SOL    HW144505   0.573   3.132   9.270
47536SOL    HW244506   0.592   3.179   9.128
47537SOL     OW44507  12.851   8.682   7.870
47537SOL    HW144508  12.866   8.773   7.896
47537SOL    HW244509  12.774   8.686   7.813
47538SOL     OW44510   3.336   4.278   0.927
47538SOL    HW144511   3.286   4.352   0.960
47538SOL    HW244512   3.383   4.244   1.003
47539SOL     OW44513   4.565  14.340  13.042
47539SOL    HW144514   4.634  14.342  13.108
47539SOL    HW244515   4.606  14.374  12.963
47540SOL     OW44516   0.203   6.664  13.932
47540SOL    HW144517   0.279   6.616  13.899
47540SOL    HW244518   0.202   6.745  13.881
47541SOL     OW44519   8.155  11.316   7.813
47541SOL    HW144520   8.062  11.317   7.836
47541SOL    HW244521   8.187  11.231   7.842
47542SOL     OW44522   3.793   7.919   4.868
47542SOL    HW144523   3.867   7.910   4.808
47542SOL    HW244524   3.742   7.992   4.832
47543SOL     OW44525   3.151   6.843   3.848
47543SOL    HW144526   3.100   6.878   3.921
47543SOL    HW244527   3.098   6.772   3.813
47544SOL     OW44528   3.785   0.521   6.370
47544SOL    HW144529   3.711   0.552   6.318
47544SOL    HW244530   3.862   0.549   6.321
47545SOL     OW44531  11.495  11.782   2.308
47545SOL    HW144532  11.533  11.870   2.300
47545SOL    HW244533  11.555  11.736   2.367
47546SOL     OW44534   0.578   6.353   3.660
47546SOL    HW144535   0.590   6.375   3.753
47546SOL    HW244536   0.578   6.258   3.658
47547SOL     OW44537  13.780   4.086   7.994
47547SOL    HW144538  13.839   4.142   8.044
47547SOL    HW244539  13.823   4.073   7.910
47548SOL     OW44540   5.127   6.548   3.146
47548SOL    HW144541   5.108   6.633   3.108
47548SOL    HW244542   5.199   6.565   3.208
47549SOL     OW44543  11.923   3.087   6.131
47549SOL    HW144544  11.967   3.012   6.091
47549SOL    HW244545  11.937   3.077   6.225
47550SOL     OW44546   0.256   4.776  11.599
47550SOL    HW144547   0.312   4.720  11.653
47550SOL    HW244548   0.298   4.777  11.513
47551SOL     OW44549   5.670   2.129  11.859
47551SOL    HW144550   5.604   2.195  11.881
47551SOL    HW244551   5.732   2.176  11.803
47552SOL     OW44552   3.528  11.107  13.470
47552SOL    HW144553   3.565  11.022  13.444
47552SOL    HW244554   3.530  11.158  13.389
47553SOL     OW44555   8.116   5.732   0.704
47553SOL    HW144556   8.051   5.719   0.772
47553SOL    HW244557   8.158   5.647   0.692
47554SOL     OW44558   0.275   6.853   3.612
47554SOL    HW144559   0.209   6.839   3.681
47554SOL    HW244560   0.240   6.805   3.536
47555SOL     OW44561   3.858  12.823   5.170
47555SOL    HW144562   3.889  12.732   5.165
47555SOL    HW244563   3.873  12.858   5.082
47556SOL     OW44564  11.119  11.321   1.131
47556SOL    HW144565  11.120  11.289   1.221
47556SOL    HW244566  11.206  11.358   1.117
47557SOL     OW44567   4.877  12.586  13.034
47557SOL    HW144568   4.809  12.525  13.008
47557SOL    HW244569   4.958  12.549  12.998
47558SOL     OW44570   8.664   9.888   1.863
47558SOL    HW144571   8.638   9.921   1.949
47558SOL    HW244572   8.670   9.793   1.875
47559SOL     OW44573   8.451   6.716  11.119
47559SOL    HW144574   8.400   6.659  11.177
47559SOL    HW244575   8.387   6.780  11.087
47560SOL     OW44576   9.500   9.850  10.773
47560SOL    HW144577   9.543   9.811  10.849
47560SOL    HW244578   9.472   9.937  10.803
47561SOL     OW44579   5.127   5.918   7.930
47561SOL    HW144580   5.079   5.998   7.950
47561SOL    HW244581   5.184   5.905   8.006
47562SOL     OW44582   1.353  13.713  12.576
47562SOL    HW144583   1.401  13.784  12.617
47562SOL    HW244584   1.405  13.634  12.596
47563SOL     OW44585   7.994   5.615   2.040
47563SOL    HW144586   8.079   5.571   2.037
47563SOL    HW244587   8.012   5.704   2.010
47564SOL     OW44588   8.783   4.355   3.989
47564SOL    HW144589   8.842   4.280   3.985
47564SOL    HW244590   8.791   4.396   3.902
47565SOL     OW44591  14.055   5.501  11.116
47565SOL    HW144592  14.012   5.586  11.104
47565SOL    HW244593  13.988   5.437  11.092
47566SOL     OW44594   6.479   9.180   7.456
47566SOL    HW144595   6.475   9.087   7.479
47566SOL    HW244596   6.533   9.184   7.378
47567SOL     OW44597   2.193   7.762   3.346
47567SOL    HW144598   2.231   7.727   3.427
47567SOL    HW244599   2.216   7.697   3.279
47568SOL     OW44600   4.576   4.260   2.327
47568SOL    HW144601   4.504   4.295   2.379
47568SOL    HW244602   4.654   4.303   2.361
47569SOL     OW44603   4.525   7.526  10.728
47569SOL    HW144604   4.498   7.441  10.695
47569SOL    HW244605   4.618   7.516  10.748
47570SOL     OW44606   9.056   4.858   3.236
47570SOL    HW144607   9.108   4.855   3.156
47570SOL    HW244608   9.044   4.766   3.260
47571SOL     OW44609  13.776   7.032   0.914
47571SOL    HW144610  13.736   6.945   0.913
47571SOL    HW244611  13.706   7.091   0.940
47572SOL     OW44612   2.311  13.895   4.280
47572SOL    HW144613   2.258  13.869   4.356
47572SOL    HW244614   2.250  13.892   4.206
47573SOL     OW44615  13.333   8.649   4.901
47573SOL    HW144616  13.396   8.675   4.968
47573SOL    HW244617  13.386   8.628   4.825
47574SOL     OW44618  13.521   8.131  10.650
47574SOL    HW144619  13.446   8.178  10.613
47574SOL    HW244620  13.550   8.186  10.723
47575SOL     OW44621   5.621   6.544   6.482
47575SOL    HW144622   5.626   6.619   6.542
47575SOL    HW244623   5.595   6.583   6.398
47576SOL     OW44624   4.332   3.179   5.489
47576SOL    HW144625   4.239   3.169   5.511
47576SOL    HW244626   4.333   3.248   5.423
47577SOL     OW44627   5.090   2.573   2.492
47577SOL    HW144628   5.008   2.526   2.473
47577SOL    HW244629   5.147   2.552   2.419
47578SOL     OW44630   2.799  14.025   7.381
47578SOL    HW144631   2.793  13.945   7.433
47578SOL    HW244632   2.773  14.095   7.441
47579SOL     OW44633   1.479   4.865   7.456
47579SOL    HW144634   1.466   4.881   7.550
47579SOL    HW244635   1.457   4.948   7.414
47580SOL     OW44636   9.499   7.690   1.611
47580SOL    HW144637   9.454   7.607   1.597
47580SOL    HW244638   9.432   7.757   1.594
47581SOL     OW44639   1.464   3.247   8.785
47581SOL    HW144640   1.500   3.159   8.796
47581SOL    HW244641   1.383   3.247   8.836
47582SOL     OW44642   9.728  11.769   8.105
47582SOL    HW144643   9.816  11.741   8.080
47582SOL    HW244644   9.680  11.687   8.117
47583SOL     OW44645   4.787   0.124   1.701
47583SOL    HW144646   4.730   0.087   1.769
47583SOL    HW244647   4.874   0.090   1.722
47584SOL     OW44648   9.330   8.931  13.084
47584SOL    HW144649   9.263   8.870  13.053
47584SOL    HW244650   9.411   8.880  13.083
47585SOL     OW44651   0.614   6.528  11.378
47585SOL    HW144652   0.615   6.441  11.418
47585SOL    HW244653   0.695   6.532  11.327
47586SOL     OW44654   9.431   7.402  11.515
47586SOL    HW144655   9.419   7.324  11.460
47586SOL    HW244656   9.343   7.422  11.546
47587SOL     OW44657   6.489   4.943   7.954
47587SOL    HW144658   6.510   4.982   8.039
47587SOL    HW244659   6.546   4.988   7.892
47588SOL     OW44660   4.294   2.790   9.137
47588SOL    HW144661   4.321   2.698   9.141
47588SOL    HW244662   4.209   2.788   9.093
47589SOL     OW44663   7.797   1.085   1.037
47589SOL    HW144664   7.739   1.147   1.080
47589SOL    HW244665   7.885   1.118   1.056
47590SOL     OW44666  11.898  13.610  14.434
47590SOL    HW144667  11.891  13.705  14.426
47590SOL    HW244668  11.827  13.576  14.380
47591SOL     OW44669   9.965   5.945   9.356
47591SOL    HW144670  10.059   5.933   9.344
47591SOL    HW244671   9.927   5.858   9.343
47592SOL     OW44672   4.795  10.369   4.782
47592SOL    HW144673   4.842  10.372   4.699
47592SOL    HW244674   4.716  10.420   4.767
47593SOL     OW44675   1.020   1.491   9.850
47593SOL    HW144676   1.062   1.577   9.850
47593SOL    HW244677   1.075   1.438   9.908
47594SOL     OW44678   3.943  14.521   6.146
47594SOL    HW144679   3.858  14.521   6.189
47594SOL    HW244680   3.992  14.591   6.190
47595SOL     OW44681   5.659  12.066  10.845
47595SOL    HW144682   5.622  12.154  10.854
47595SOL    HW244683   5.720  12.073  10.771
47596SOL     OW44684   6.303  11.575   7.703
47596SOL    HW144685   6.315  11.621   7.786
47596SOL    HW244686   6.327  11.484   7.723
47597SOL     OW44687  13.990   7.629   8.972
47597SOL    HW144688  14.006   7.698   8.908
47597SOL    HW244689  14.002   7.671   9.057
47598SOL     OW44690   9.733  13.538   5.988
47598SOL    HW144691   9.719  13.608   6.051
47598SOL    HW244692   9.657  13.542   5.931
47599SOL     OW44693   6.947  11.811  13.149
47599SOL    HW144694   6.925  11.858  13.068
47599SOL    HW244695   6.900  11.859  13.218
47600SOL     OW44696  10.580   1.159   6.560
47600SOL    HW144697  10.646   1.187   6.623
47600SOL    HW244698  10.564   1.067   6.581
47601SOL     OW44699   5.879  12.936   6.194
47601SOL    HW144700   5.949  12.925   6.259
47601SOL    HW244701   5.852  12.846   6.173
47602SOL     OW44702  10.069   0.777  13.808
47602SOL    HW144703  10.125   0.851  13.831
47602SOL    HW244704  10.044   0.739  13.892
47603SOL     OW44705   9.908   6.583  10.081
47603SOL    HW144706   9.855   6.654  10.115
47603SOL    HW244707   9.868   6.561   9.996
47604SOL     OW44708   0.449   3.493   5.994
47604SOL    HW144709   0.511   3.565   6.006
47604SOL    HW244710   0.442   3.483   5.899
47605SOL     OW44711   2.621  13.994   6.095
47605SOL    HW144712   2.623  14.029   6.006
47605SOL    HW244713   2.641  13.901   6.085
47606SOL     OW44714   1.248  14.084   4.498
47606SOL    HW144715   1.326  14.129   4.531
47606SOL    HW244716   1.249  14.101   4.404
47607SOL     OW44717   5.350   3.312   2.117
47607SOL    HW144718   5.297   3.389   2.095
47607SOL    HW244719   5.418   3.309   2.049
47608SOL     OW44720   7.159   5.501   7.964
47608SOL    HW144721   7.226   5.543   8.017
47608SOL    HW244722   7.076   5.537   7.997
47609SOL     OW44723   2.870   1.723  13.815
47609SOL    HW144724   2.884   1.801  13.761
47609SOL    HW244725   2.855   1.652  13.753
47610SOL     OW44726   9.316  13.706   1.599
47610SOL    HW144727   9.282  13.796   1.604
47610SOL    HW244728   9.317  13.676   1.690
47611SOL     OW44729  12.191   2.488   1.451
47611SOL    HW144730  12.102   2.504   1.419
47611SOL    HW244731  12.179   2.452   1.539
47612SOL     OW44732  12.008   5.259   1.784
47612SOL    HW144733  12.044   5.347   1.774
47612SOL    HW244734  12.069   5.214   1.843
47613SOL     OW44735   0.546   7.753  14.332
47613SOL    HW144736   0.568   7.844  14.350
47613SOL    HW244737   0.524   7.717  14.418
47614SOL     OW44738   6.555  14.712   8.334
47614SOL    HW144739   6.518  14.689   8.249
47614SOL    HW244740   6.636  14.661   8.340
47615SOL     OW44741   8.972   4.060   7.446
47615SOL    HW144742   8.918   4.008   7.386
47615SOL    HW244743   9.029   3.995   7.487
47616SOL     OW44744   5.087   4.233   0.335
47616SOL    HW144745   5.042   4.172   0.394
47616SOL    HW244746   5.156   4.180   0.294
47617SOL     OW44747   9.189   3.578   3.559
47617SOL    HW144748   9.105   3.614   3.588
47617SOL    HW244749   9.231   3.546   3.639
47618SOL     OW44750   9.615  12.309   6.966
47618SOL    HW144751   9.612  12.304   6.870
47618SOL    HW244752   9.524  12.326   6.992
47619SOL     OW44753  10.639  13.469   6.916
47619SOL    HW144754  10.572  13.504   6.975
47619SOL    HW244755  10.614  13.501   6.829
47620SOL     OW44756   2.741  10.773  10.861
47620SOL    HW144757   2.836  10.776  10.847
47620SOL    HW244758   2.707  10.727  10.784
47621SOL     OW44759  14.042  11.912  14.470
47621SOL    HW144760  14.006  11.866  14.545
47621SOL    HW244761  14.096  11.846  14.425
47622SOL     OW44762   0.633   0.870   1.975
47622SOL    HW144763   0.680   0.865   1.892
47622SOL    HW244764   0.700   0.892   2.040
47623SOL     OW44765  10.323   8.606   3.100
47623SOL    HW144766  10.296   8.556   3.177
47623SOL    HW244767  10.364   8.542   3.042
47624SOL     OW44768  10.964  14.733   9.637
47624SOL    HW144769  11.009  14.803   9.685
47624SOL    HW244770  10.935  14.774   9.556
47625SOL     OW44771  10.619   9.273   3.932
47625SOL    HW144772  10.529   9.303   3.920
47625SOL    HW244773  10.646   9.243   3.845
47626SOL     OW44774   8.491  10.700   8.960
47626SOL    HW144775   8.522  10.612   8.936
47626SOL    HW244776   8.470  10.693   9.053
47627SOL     OW44777   6.187  12.516   7.140
47627SOL    HW144778   6.136  12.435   7.134
47627SOL    HW244779   6.271  12.494   7.100
47628SOL     OW44780  13.004   8.835   2.191
47628SOL    HW144781  12.982   8.786   2.111
47628SOL    HW244782  13.094   8.811   2.210
47629SOL     OW44783   2.906   7.537  11.379
47629SOL    HW144784   2.860   7.462  11.342
47629SOL    HW244785   2.871   7.546  11.468
47630SOL     OW44786   7.259   3.261   1.137
47630SOL    HW144787   7.192   3.327   1.120
47630SOL    HW244788   7.272   3.218   1.053
47631SOL     OW44789   9.157  11.422   9.070
47631SOL    HW144790   9.204  11.478   9.132
47631SOL    HW244791   9.208  11.341   9.066
47632SOL     OW44792   8.562  11.055  10.700
47632SOL    HW144793   8.483  11.013  10.732
47632SOL    HW244794   8.613  11.074  10.778
47633SOL     OW44795   9.683   2.635   2.748
47633SOL    HW144796   9.630   2.571   2.796
47633SOL    HW244797   9.640   2.644   2.663
47634SOL     OW44798  13.090   7.801   0.310
47634SOL    HW144799  13.081   7.716   0.267
47634SOL    HW244800  13.079   7.782   0.403
47635SOL     OW44801   5.808   1.900   7.530
47635SOL    HW144802   5.726   1.902   7.578
47635SOL    HW244803   5.795   1.960   7.456
47636SOL     OW44804  11.968   7.743  10.484
47636SOL    HW144805  11.944   7.682  10.414
47636SOL    HW244806  11.909   7.721  10.556
47637SOL     OW44807   9.045   9.686  14.481
47637SOL    HW144808   9.030   9.636  14.401
47637SOL    HW244809   8.982   9.757  14.477
47638SOL     OW44810   5.792  14.010   9.558
47638SOL    HW144811   5.699  13.994   9.548
47638SOL    HW244812   5.803  14.103   9.536
47639SOL     OW44813  12.495   4.273   6.315
47639SOL    HW144814  12.573   4.311   6.274
47639SOL    HW244815  12.429   4.273   6.245
47640SOL     OW44816   1.292  10.584  11.644
47640SOL    HW144817   1.235  10.659  11.663
47640SOL    HW244818   1.370  10.622  11.603
47641SOL     OW44819   1.297   9.042   4.433
47641SOL    HW144820   1.300   9.016   4.525
47641SOL    HW244821   1.289   9.137   4.435
47642SOL     OW44822   1.295   3.628   9.547
47642SOL    HW144823   1.352   3.590   9.480
47642SOL    HW244824   1.258   3.706   9.505
47643SOL     OW44825   2.411   3.104   6.296
47643SOL    HW144826   2.451   3.020   6.274
47643SOL    HW244827   2.321   3.082   6.320
47644SOL     OW44828   7.140   5.476   5.943
47644SOL    HW144829   7.235   5.466   5.950
47644SOL    HW244830   7.114   5.523   6.022
47645SOL     OW44831  11.459   8.333   4.404
47645SOL    HW144832  11.367   8.357   4.402
47645SOL    HW244833  11.495   8.371   4.323
47646SOL     OW44834  10.020   2.562   5.458
47646SOL    HW144835  10.110   2.528   5.461
47646SOL    HW244836  10.014   2.604   5.372
47647SOL     OW44837   7.147  10.828  11.423
47647SOL    HW144838   7.141  10.872  11.338
47647SOL    HW244839   7.096  10.748  11.413
47648SOL     OW44840   5.317  13.514   5.609
47648SOL    HW144841   5.223  13.524   5.596
47648SOL    HW244842   5.345  13.453   5.539
47649SOL     OW44843   5.334   2.256  10.724
47649SOL    HW144844   5.297   2.302  10.799
47649SOL    HW244845   5.297   2.168  10.728
47650SOL     OW44846  11.367  14.028  13.225
47650SOL    HW144847  11.296  14.089  13.243
47650SOL    HW244848  11.350  13.953  13.281
47651SOL     OW44849   6.095   9.976  13.089
47651SOL    HW144850   6.048  10.059  13.079
47651SOL    HW244851   6.160   9.976  13.018
47652SOL     OW44852   8.117   3.113   8.768
47652SOL    HW144853   8.035   3.090   8.811
47652SOL    HW244854   8.104   3.204   8.740
47653SOL     OW44855   5.579  12.820   7.931
47653SOL    HW144856   5.594  12.726   7.942
47653SOL    HW244857   5.633  12.861   7.998
47654SOL     OW44858   8.055   3.110  12.107
47654SOL    HW144859   8.069   3.196  12.069
47654SOL    HW244860   7.989   3.123  12.175
47655SOL     OW44861   2.119  12.043   0.246
47655SOL    HW144862   2.044  12.098   0.223
47655SOL    HW244863   2.080  11.962   0.277
47656SOL     OW44864   7.612  11.076   5.432
47656SOL    HW144865   7.556  11.012   5.476
47656SOL    HW244866   7.599  11.060   5.339
47657SOL     OW44867  12.105   1.909   7.722
47657SOL    HW144868  12.153   1.916   7.640
47657SOL    HW244869  12.096   1.815   7.737
47658SOL     OW44870   4.796   2.379   5.041
47658SOL    HW144871   4.792   2.318   4.968
47658SOL    HW244872   4.752   2.333   5.113
47659SOL     OW44873   2.486   4.380  10.808
47659SOL    HW144874   2.533   4.422  10.880
47659SOL    HW244875   2.464   4.293  10.841
47660SOL     OW44876   4.165   8.468  10.483
47660SOL    HW144877   4.216   8.540  10.445
47660SOL    HW244878   4.084   8.467  10.432
47661SOL     OW44879   2.883  11.748  12.131
47661SOL    HW144880   2.837  11.718  12.053
47661SOL    HW244881   2.927  11.828  12.103
47662SOL     OW44882   8.365   5.035   7.377
47662SOL    HW144883   8.379   4.983   7.298
47662SOL    HW244884   8.284   5.083   7.361
47663SOL     OW44885  12.886   3.624   9.792
47663SOL    HW144886  12.923   3.596   9.875
47663SOL    HW244887  12.917   3.714   9.780
47664SOL     OW44888   7.093   5.399   3.840
47664SOL    HW144889   7.168   5.417   3.785
47664SOL    HW244890   7.116   5.318   3.887
47665SOL     OW44891   1.991   8.409  10.842
47665SOL    HW144892   1.921   8.463  10.879
47665SOL    HW244893   2.072   8.452  10.871
47666SOL     OW44894   1.138   3.004  12.322
47666SOL    HW144895   1.224   3.018  12.281
47666SOL    HW244896   1.104   3.092  12.338
47667SOL     OW44897   6.868   0.188  11.345
47667SOL    HW144898   6.942   0.249  11.351
47667SOL    HW244899   6.906   0.106  11.315
47668SOL     OW44900  12.824   2.329  10.883
47668SOL    HW144901  12.808   2.236  10.897
47668SOL    HW244902  12.894   2.351  10.944
47669SOL     OW44903  13.818   0.898   9.888
47669SOL    HW144904  13.869   0.877   9.966
47669SOL    HW244905  13.770   0.977   9.912
47670SOL     OW44906   8.579   3.935   7.550
47670SOL    HW144907   8.611   3.895   7.631
47670SOL    HW244908   8.615   4.024   7.551
47671SOL     OW44909   6.013  13.210   9.498
47671SOL    HW144910   6.007  13.218   9.593
47671SOL    HW244911   5.924  13.189   9.470
47672SOL     OW44912   1.025   1.339   4.914
47672SOL    HW144913   0.977   1.395   4.853
47672SOL    HW244914   0.990   1.251   4.899
47673SOL     OW44915   6.382  14.318   3.223
47673SOL    HW144916   6.397  14.306   3.129
47673SOL    HW244917   6.387  14.229   3.260
47674SOL     OW44918   7.479  10.477   3.640
47674SOL    HW144919   7.393  10.517   3.637
47674SOL    HW244920   7.478  10.412   3.570
47675SOL     OW44921   0.009   7.252   3.109
47675SOL    HW144922   0.006   7.318   3.039
47675SOL    HW244923  14.789   7.227   3.122
47676SOL     OW44924   1.786   0.130   8.216
47676SOL    HW144925   1.715   0.116   8.279
47676SOL    HW244926   1.838   0.050   8.221
47677SOL     OW44927   8.293   6.456  12.689
47677SOL    HW144928   8.274   6.500  12.772
47677SOL    HW244929   8.335   6.374  12.713
47678SOL     OW44930   0.491  13.305   2.375
47678SOL    HW144931   0.519  13.329   2.286
47678SOL    HW244932   0.418  13.245   2.361
47679SOL     OW44933  12.340   4.995   4.968
47679SOL    HW144934  12.404   5.042   4.914
47679SOL    HW244935  12.273   5.061   4.987
47680SOL     OW44936  11.995   9.380   1.547
47680SOL    HW144937  12.044   9.384   1.630
47680SOL    HW244938  11.910   9.419   1.568
47681SOL     OW44939  11.665  13.749   8.802
47681SOL    HW144940  11.682  13.826   8.856
47681SOL    HW244941  11.733  13.686   8.828
47682SOL     OW44942   1.768   9.063   7.311
47682SOL    HW144943   1.730   9.057   7.399
47682SOL    HW244944   1.693   9.062   7.252
47683SOL     OW44945   1.220  11.464  14.109
47683SOL    HW144946   1.236  11.551  14.072
47683SOL    HW244947   1.230  11.476  14.204
47684SOL     OW44948  11.293   0.608   9.076
47684SOL    HW144949  11.282   0.703   9.068
47684SOL    HW244950  11.247   0.572   9.001
47685SOL     OW44951  14.559   2.541  11.033
47685SOL    HW144952  14.582   2.476  10.967
47685SOL    HW244953  14.564   2.625  10.987
47686SOL     OW44954   5.842   1.632   7.882
47686SOL    HW144955   5.748   1.616   7.886
47686SOL    HW244956   5.859   1.699   7.949
47687SOL     OW44957   0.343   6.212   5.522
47687SOL    HW144958   0.375   6.272   5.589
47687SOL    HW244959   0.252   6.236   5.509
47688SOL     OW44960  14.150   3.488   8.308
47688SOL    HW144961  14.171   3.395   8.313
47688SOL    HW244962  14.159   3.510   8.215
47689SOL     OW44963  13.233  13.914   8.365
47689SOL    HW144964  13.300  13.923   8.433
47689SOL    HW244965  13.197  13.827   8.378
47690SOL     OW44966   6.900  11.492   7.152
47690SOL    HW144967   6.833  11.449   7.205
47690SOL    HW244968   6.955  11.421   7.119
47691SOL     OW44969  10.542  13.939   5.864
47691SOL    HW144970  10.563  13.980   5.948
47691SOL    HW244971  10.472  13.994   5.827
47692SOL     OW44972  11.912   0.411   4.117
47692SOL    HW144973  11.905   0.461   4.036
47692SOL    HW244974  11.825   0.371   4.128
47693SOL     OW44975  12.542   7.194   1.226
47693SOL    HW144976  12.482   7.177   1.153
47693SOL    HW244977  12.628   7.168   1.194
47694SOL     OW44978   7.146  12.673   2.416
47694SOL    HW144979   7.232  12.640   2.391
47694SOL    HW244980   7.144  12.667   2.511
47695SOL     OW44981   8.867  13.837   8.379
47695SOL    HW144982   8.797  13.899   8.360
47695SOL    HW244983   8.870  13.781   8.301
47696SOL     OW44984   4.100   9.473  11.463
47696SOL    HW144985   4.194   9.486  11.459
47696SOL    HW244986   4.072   9.466  11.372
47697SOL     OW44987   6.692  10.242   9.072
47697SOL    HW144988   6.723  10.195   8.995
47697SOL    HW244989   6.705  10.334   9.050
47698SOL     OW44990  11.049  10.133  13.606
47698SOL    HW144991  10.990  10.060  13.591
47698SOL    HW244992  11.001  10.191  13.665
47699SOL     OW44993   2.341   8.175   5.508
47699SOL    HW144994   2.405   8.243   5.489
47699SOL    HW244995   2.268   8.221   5.549
47700SOL     OW44996   3.772  11.965   7.105
47700SOL    HW144997   3.840  12.015   7.151
47700SOL    HW244998   3.790  11.874   7.128
47701SOL     OW44999   9.694  11.544   8.363
47701SOL    HW145000   9.619  11.603   8.374
47701SOL    HW245001   9.695  11.491   8.442
47702SOL     OW45002  14.800  13.772   5.808
47702SOL    HW145003  14.858  13.798   5.879
47702SOL    HW245004  14.741  13.708   5.848
47703SOL     OW45005   9.068  12.423   4.064
47703SOL    HW145006   8.980  12.424   4.025
47703SOL    HW245007   9.067  12.496   4.126
47704SOL     OW45008   5.878  11.721   9.208
47704SOL    HW145009   5.808  11.668   9.247
47704SOL    HW245010   5.865  11.808   9.245
47705SOL     OW45011   1.700  11.797  14.391
47705SOL    HW145012   1.689  11.705  14.413
47705SOL    HW245013   1.704  11.799  14.295
47706SOL     OW45014   1.039   5.300  14.541
47706SOL    HW145015   1.019   5.279  14.450
47706SOL    HW245016   1.052   5.215  14.583
47707SOL     OW45017  14.416   9.601   5.439
47707SOL    HW145018  14.502   9.635   5.412
47707SOL    HW245019  14.421   9.599   5.535
47708SOL     OW45020  10.160  14.043   9.696
47708SOL    HW145021  10.197  13.970   9.745
47708SOL    HW245022  10.214  14.118   9.719
47709SOL     OW45023   8.207   6.739   8.743
47709SOL    HW145024   8.186   6.771   8.655
47709SOL    HW245025   8.296   6.704   8.736
47710SOL     OW45026  11.220  10.742   2.258
47710SOL    HW145027  11.315  10.738   2.260
47710SOL    HW245028  11.199  10.761   2.166
47711SOL     OW45029   6.645  13.148  11.110
47711SOL    HW145030   6.670  13.056  11.119
47711SOL    HW245031   6.557  13.144  11.072
47712SOL     OW45032   8.573   7.192   2.992
47712SOL    HW145033   8.549   7.201   3.084
47712SOL    HW245034   8.591   7.281   2.963
47713SOL     OW45035  10.212   1.147  13.537
47713SOL    HW145036  10.164   1.204  13.597
47713SOL    HW245037  10.161   1.065  13.536
47714SOL     OW45038   6.071  11.310  13.872
47714SOL    HW145039   6.008  11.272  13.934
47714SOL    HW245040   6.042  11.280  13.786
47715SOL     OW45041   7.724   6.039   4.929
47715SOL    HW145042   7.690   5.953   4.901
47715SOL    HW245043   7.802   6.052   4.874
47716SOL     OW45044   4.694  13.342   0.059
47716SOL    HW145045   4.764  13.360  14.869
47716SOL    HW245046   4.705  13.407   0.128
47717SOL     OW45047  11.046  13.212  13.508
47717SOL    HW145048  11.042  13.217  13.412
47717SOL    HW245049  10.954  13.211  13.535
47718SOL     OW45050  11.791  10.124   5.410
47718SOL    HW145051  11.718  10.149   5.466
47718SOL    HW245052  11.766  10.154   5.322
47719SOL     OW45053   5.350  10.248   3.293
47719SOL    HW145054   5.281  10.250   3.227
47719SOL    HW245055   5.424  10.205   3.249
47720SOL     OW45056   6.318   2.505  14.140
47720SOL    HW145057   6.378   2.550  14.199
47720SOL    HW245058   6.371   2.487  14.062
47721SOL     OW45059   7.695  11.693  10.009
47721SOL    HW145060   7.609  11.727   9.985
47721SOL    HW245061   7.680  11.600  10.026
47722SOL     OW45062  14.861   2.411  14.714
47722SOL    HW145063  14.816   2.333  14.681
47722SOL    HW245064   0.062   2.376  14.765
47723SOL     OW45065  11.007  13.595  13.352
47723SOL    HW145066  10.933  13.626  13.405
47723SOL    HW245067  11.027  13.668  13.293
47724SOL     OW45068  14.519  14.827  11.304
47724SOL    HW145069  14.483  14.841  11.392
47724SOL    HW245070  14.575   0.032  11.289
47725SOL     OW45071   9.085   6.525   4.882
47725SOL    HW145072   9.061   6.593   4.944
47725SOL    HW245073   9.017   6.458   4.892
47726SOL     OW45074   3.757  12.276  11.146
47726SOL    HW145075   3.815  12.351  11.139
47726SOL    HW245076   3.669  12.314  11.143
47727SOL     OW45077  11.813   3.032   1.075
47727SOL    HW145078  11.892   3.012   1.026
47727SOL    HW245079  11.767   3.096   1.021
47728SOL     OW45080  11.316   7.271   9.711
47728SOL    HW145081  11.295   7.253   9.803
47728SOL    HW245082  11.306   7.365   9.701
47729SOL     OW45083   3.517   5.330   4.883
47729SOL    HW145084   3.438   5.284   4.912
47729SOL    HW245085   3.503   5.345   4.789
47730SOL     OW45086  14.168  14.645   0.847
47730SOL    HW145087  14.100  14.578   0.841
47730SOL    HW245088  14.239  14.604   0.895
47731SOL     OW45089  12.132   7.369  10.859
47731SOL    HW145090  12.125   7.445  10.801
47731SOL    HW245091  12.085   7.299  10.814
47732SOL     OW45092  10.017  13.351   8.644
47732SOL    HW145093  10.072  13.418   8.684
47732SOL    HW245094  10.078  13.282   8.619
47733SOL     OW45095  14.444   0.745  10.326
47733SOL    HW145096  14.514   0.796  10.368
47733SOL    HW245097  14.396   0.706  10.399
47734SOL     OW45098   3.614  13.721  14.261
47734SOL    HW145099   3.620  13.717  14.166
47734SOL    HW245100   3.616  13.815  14.281
47735SOL     OW45101  11.361  11.608   3.046
47735SOL    HW145102  11.343  11.693   3.086
47735SOL    HW245103  11.456  11.604   3.039
47736SOL     OW45104   5.795  11.984   6.191
47736SOL    HW145105   5.869  11.937   6.228
47736SOL    HW245106   5.762  11.927   6.122
47737SOL     OW45107   5.814  11.342   6.144
47737SOL    HW145108   5.897  11.309   6.109
47737SOL    HW245109   5.749  11.278   6.113
47738SOL     OW45110   6.478   9.420   6.904
47738SOL    HW145111   6.395   9.428   6.950
47738SOL    HW245112   6.540   9.472   6.955
47739SOL     OW45113   1.520   3.320   2.611
47739SOL    HW145114   1.498   3.228   2.602
47739SOL    HW245115   1.578   3.339   2.537
47740SOL     OW45116  11.333   0.378  14.812
47740SOL    HW145117  11.398   0.438  14.777
47740SOL    HW245118  11.298   0.333  14.736
47741SOL     OW45119  10.773  13.562   3.039
47741SOL    HW145120  10.687  13.553   2.998
47741SOL    HW245121  10.788  13.657   3.041
47742SOL     OW45122   0.306   1.532   9.114
47742SOL    HW145123   0.210   1.535   9.114
47742SOL    HW245124   0.331   1.572   9.031
47743SOL     OW45125   4.975  12.035   3.015
47743SOL    HW145126   5.066  12.037   2.987
47743SOL    HW245127   4.963  11.948   3.054
47744SOL     OW45128   0.904   3.044   6.229
47744SOL    HW145129   0.826   3.091   6.259
47744SOL    HW245130   0.974   3.074   6.286
47745SOL     OW45131   6.549   4.096   8.072
47745SOL    HW145132   6.505   4.175   8.101
47745SOL    HW245133   6.583   4.118   7.985
47746SOL     OW45134   0.508   4.611   2.870
47746SOL    HW145135   0.561   4.532   2.861
47746SOL    HW245136   0.502   4.646   2.781
47747SOL     OW45137   2.028  10.881   0.687
47747SOL    HW145138   1.958  10.905   0.748
47747SOL    HW245139   1.982  10.856   0.607
47748SOL     OW45140   7.442   4.645   9.934
47748SOL    HW145141   7.356   4.619   9.900
47748SOL    HW245142   7.457   4.732   9.896
47749SOL     OW45143  13.190   7.462   6.609
47749SOL    HW145144  13.116   7.523   6.604
47749SOL    HW245145  13.191   7.420   6.523
47750SOL     OW45146  14.628  10.477   5.393
47750SOL    HW145147  14.652  10.463   5.485
47750SOL    HW245148  14.589  10.393   5.366
47751SOL     OW45149   0.961   3.709   4.263
47751SOL    HW145150   1.055   3.719   4.247
47751SOL    HW245151   0.925   3.796   4.249
47752SOL     OW45152   6.498  10.853  13.943
47752SOL    HW145153   6.539  10.918  14.001
47752SOL    HW245154   6.410  10.887  13.929
47753SOL     OW45155   6.892  13.415   0.937
47753SOL    HW145156   6.895  13.446   0.847
47753SOL    HW245157   6.975  13.369   0.949
47754SOL     OW45158  10.188   9.412  13.508
47754SOL    HW145159  10.189   9.433  13.601
47754SOL    HW245160  10.096   9.399  13.487
47755SOL     OW45161   3.976   1.773   7.039
47755SOL    HW145162   3.911   1.843   7.031
47755SOL    HW245163   3.976   1.731   6.952
47756SOL     OW45164  11.348  14.505   6.197
47756SOL    HW145165  11.261  14.525   6.232
47756SOL    HW245166  11.343  14.413   6.171
47757SOL     OW45167  14.373  11.461  13.249
47757SOL    HW145168  14.409  11.516  13.319
47757SOL    HW245169  14.285  11.437  13.280
47758SOL     OW45170   2.622  11.423   9.360
47758SOL    HW145171   2.715  11.408   9.341
47758SOL    HW245172   2.606  11.374   9.440
47759SOL     OW45173   1.907   0.066   2.143
47759SOL    HW145174   1.922   0.043   2.235
47759SOL    HW245175   1.815   0.047   2.128
47760SOL     OW45176   0.591   2.198   5.348
47760SOL    HW145177   0.540   2.126   5.311
47760SOL    HW245178   0.547   2.277   5.317
47761SOL     OW45179   0.148   1.558  12.626
47761SOL    HW145180   0.235   1.533  12.657
47761SOL    HW245181   0.164   1.596  12.540
47762SOL     OW45182   4.600  10.235  12.195
47762SOL    HW145183   4.633  10.194  12.115
47762SOL    HW245184   4.515  10.271  12.170
47763SOL     OW45185   3.991   5.836   6.203
47763SOL    HW145186   4.002   5.930   6.222
47763SOL    HW245187   4.030   5.825   6.116
47764SOL     OW45188   2.592   1.429   9.936
47764SOL    HW145189   2.652   1.359   9.910
47764SOL    HW245190   2.566   1.470   9.853
47765SOL     OW45191   7.768   2.987   0.472
47765SOL    HW145192   7.772   2.955   0.562
47765SOL    HW245193   7.785   2.909   0.418
47766SOL     OW45194   7.074  14.557   5.047
47766SOL    HW145195   7.029  14.565   4.962
47766SOL    HW245196   7.093  14.647   5.073
47767SOL     OW45197   5.219   4.011   6.699
47767SOL    HW145198   5.164   4.080   6.736
47767SOL    HW245199   5.215   4.025   6.605
47768SOL     OW45200   5.193   1.816  10.953
47768SOL    HW145201   5.106   1.786  10.976
47768SOL    HW245202   5.226   1.751  10.891
47769SOL     OW45203   8.471  12.253   4.857
47769SOL    HW145204   8.510  12.254   4.945
47769SOL    HW245205   8.546  12.262   4.798
47770SOL     OW45206   9.184   1.276  10.179
47770SOL    HW145207   9.156   1.362  10.209
47770SOL    HW245208   9.228   1.238  10.255
47771SOL     OW45209  10.431   8.249   1.939
47771SOL    HW145210  10.483   8.325   1.914
47771SOL    HW245211  10.432   8.250   2.035
47772SOL     OW45212   7.494   8.348   9.478
47772SOL    HW145213   7.556   8.276   9.491
47772SOL    HW245214   7.460   8.334   9.390
47773SOL     OW45215   9.632   5.704   8.783
47773SOL    HW145216   9.554   5.707   8.838
47773SOL    HW245217   9.702   5.677   8.843
47774SOL     OW45218  13.927   4.393   5.798
47774SOL    HW145219  14.007   4.372   5.846
47774SOL    HW245220  13.879   4.310   5.793
47775SOL     OW45221   5.397   1.437   0.614
47775SOL    HW145222   5.370   1.361   0.563
47775SOL    HW245223   5.392   1.408   0.705
47776SOL     OW45224   1.797   4.172  14.135
47776SOL    HW145225   1.709   4.210  14.132
47776SOL    HW245226   1.842   4.221  14.205
47777SOL     OW45227   9.366   7.180   5.694
47777SOL    HW145228   9.280   7.205   5.661
47777SOL    HW245229   9.407   7.263   5.719
47778SOL     OW45230   6.403  11.547  11.575
47778SOL    HW145231   6.401  11.621  11.635
47778SOL    HW245232   6.478  11.564  11.518
47779SOL     OW45233   9.846   2.917  12.657
47779SOL    HW145234   9.819   2.906  12.748
47779SOL    HW245235   9.792   2.855  12.609
47780SOL     OW45236   6.458   0.189   0.332
47780SOL    HW145237   6.471   0.095   0.322
47780SOL    HW245238   6.371   0.197   0.371
47781SOL     OW45239   0.659  13.958  14.720
47781SOL    HW145240   0.662  14.009  14.639
47781SOL    HW245241   0.634  13.870  14.692
47782SOL     OW45242   1.706  10.692   7.598
47782SOL    HW145243   1.771  10.749   7.640
47782SOL    HW245244   1.708  10.717   7.506
47783SOL     OW45245  13.141  13.368   8.780
47783SOL    HW145246  13.095  13.418   8.847
47783SOL    HW245247  13.091  13.286   8.773
47784SOL     OW45248   7.285   3.491   9.890
47784SOL    HW145249   7.271   3.581   9.860
47784SOL    HW245250   7.377   3.488   9.916
47785SOL     OW45251  13.061  13.504   4.421
47785SOL    HW145252  13.030  13.497   4.512
47785SOL    HW245253  12.995  13.457   4.370
47786SOL     OW45254   8.964  14.563  13.501
47786SOL    HW145255   8.910  14.640  13.480
47786SOL    HW245256   9.005  14.539  13.418
47787SOL     OW45257   3.413  11.529   5.209
47787SOL    HW145258   3.451  11.579   5.282
47787SOL    HW245259   3.322  11.559   5.204
47788SOL     OW45260   9.845   9.149   8.307
47788SOL    HW145261   9.862   9.109   8.392
47788SOL    HW245262   9.806   9.234   8.328
47789SOL     OW45263  11.002   1.312  10.869
47789SOL    HW145264  11.054   1.391  10.880
47789SOL    HW245265  11.000   1.272  10.956
47790SOL     OW45266  11.347  14.857   9.051
47790SOL    HW145267  11.264  14.831   9.090
47790SOL    HW245268  11.335  14.843   8.957
47791SOL     OW45269   9.147   9.046  11.480
47791SOL    HW145270   9.158   9.018  11.389
47791SOL    HW245271   9.096   8.976  11.521
47792SOL     OW45272   5.459   7.642  12.962
47792SOL    HW145273   5.364   7.650  12.952
47792SOL    HW245274   5.495   7.715  12.912
47793SOL     OW45275  12.623   8.965  12.751
47793SOL    HW145276  12.638   9.059  12.754
47793SOL    HW245277  12.629   8.937  12.842
47794SOL     OW45278   1.929  13.961   0.488
47794SOL    HW145279   2.003  13.900   0.496
47794SOL    HW245280   1.861  13.910   0.444
47795SOL     OW45281   5.790   2.135  10.764
47795SOL    HW145282   5.856   2.149  10.832
47795SOL    HW245283   5.763   2.224  10.739
47796SOL     OW45284   3.507   3.750   8.950
47796SOL    HW145285   3.523   3.840   8.980
47796SOL    HW245286   3.421   3.754   8.908
47797SOL     OW45287   0.458   9.872  13.458
47797SOL    HW145288   0.363   9.880  13.464
47797SOL    HW245289   0.486   9.856  13.548
47798SOL     OW45290   9.421   0.478   8.898
47798SOL    HW145291   9.399   0.408   8.959
47798SOL    HW245292   9.481   0.438   8.836
47799SOL     OW45293   9.067  11.201   0.732
47799SOL    HW145294   9.128  11.152   0.678
47799SOL    HW245295   9.036  11.272   0.675
47800SOL     OW45296   8.858  13.660   7.114
47800SOL    HW145297   8.849  13.669   7.019
47800SOL    HW245298   8.923  13.726   7.138
47801SOL     OW45299  11.753   4.178  12.723
47801SOL    HW145300  11.682   4.118  12.746
47801SOL    HW245301  11.713   4.240  12.662
47802SOL     OW45302  10.091  14.308   9.898
47802SOL    HW145303  10.124  14.344   9.980
47802SOL    HW245304  10.141  14.354   9.830
47803SOL     OW45305   9.485  13.159   3.429
47803SOL    HW145306   9.566  13.210   3.422
47803SOL    HW245307   9.443  13.169   3.343
47804SOL     OW45308   0.011   6.340   0.352
47804SOL    HW145309   0.079   6.378   0.408
47804SOL    HW245310  14.866   6.255   0.391
47805SOL     OW45311   5.449   8.465  10.890
47805SOL    HW145312   5.500   8.398  10.936
47805SOL    HW245313   5.499   8.485  10.811
47806SOL     OW45314   7.459   9.103   6.675
47806SOL    HW145315   7.406   9.050   6.615
47806SOL    HW245316   7.533   9.133   6.621
47807SOL     OW45317   0.137   0.644   9.965
47807SOL    HW145318   0.229   0.641   9.940
47807SOL    HW245319   0.103   0.722   9.921
47808SOL     OW45320   0.855  13.600   4.995
47808SOL    HW145321   0.815  13.514   5.014
47808SOL    HW245322   0.940  13.578   4.957
47809SOL     OW45323   8.795   3.846  12.430
47809SOL    HW145324   8.781   3.892  12.347
47809SOL    HW245325   8.736   3.771  12.425
47810SOL     OW45326   6.281   2.331   8.858
47810SOL    HW145327   6.318   2.249   8.889
47810SOL    HW245328   6.190   2.310   8.837
47811SOL     OW45329  11.167   2.559   9.120
47811SOL    HW145330  11.076   2.552   9.150
47811SOL    HW245331  11.199   2.469   9.117
47812SOL     OW45332   8.333   0.240   3.859
47812SOL    HW145333   8.286   0.295   3.797
47812SOL    HW245334   8.306   0.273   3.945
47813SOL     OW45335   1.211  12.488  11.809
47813SOL    HW145336   1.181  12.499  11.718
47813SOL    HW245337   1.131  12.484  11.861
47814SOL     OW45338   9.193  12.753   2.024
47814SOL    HW145339   9.181  12.668   1.982
47814SOL    HW245340   9.271  12.790   1.982
47815SOL     OW45341   4.133  14.280   8.560
47815SOL    HW145342   4.126  14.197   8.513
47815SOL    HW245343   4.227  14.295   8.569
47816SOL     OW45344   1.891  14.385   9.638
47816SOL    HW145345   1.838  14.357   9.712
47816SOL    HW245346   1.907  14.479   9.654
47817SOL     OW45347  13.246  12.680   1.412
47817SOL    HW145348  13.193  12.634   1.477
47817SOL    HW245349  13.314  12.618   1.388
47818SOL     OW45350   4.037  10.937  12.633
47818SOL    HW145351   4.054  10.845  12.615
47818SOL    HW245352   4.094  10.959  12.706
47819SOL     OW45353   3.855   7.237   8.039
47819SOL    HW145354   3.931   7.192   8.078
47819SOL    HW245355   3.780   7.190   8.075
47820SOL     OW45356   7.404  14.380  11.584
47820SOL    HW145357   7.359  14.312  11.634
47820SOL    HW245358   7.496  14.369  11.605
47821SOL     OW45359   2.767   6.294   4.845
47821SOL    HW145360   2.693   6.258   4.796
47821SOL    HW245361   2.768   6.387   4.823
47822SOL     OW45362   4.208   8.426   2.823
47822SOL    HW145363   4.253   8.481   2.888
47822SOL    HW245364   4.267   8.352   2.811
47823SOL     OW45365   7.763   1.527   6.133
47823SOL    HW145366   7.670   1.510   6.144
47823SOL    HW245367   7.768   1.587   6.059
47824SOL     OW45368  12.592   7.945   4.897
47824SOL    HW145369  12.558   7.988   4.818
47824SOL    HW245370  12.565   8.002   4.969
47825SOL     OW45371   7.722  10.974   2.431
47825SOL    HW145372   7.728  11.038   2.502
47825SOL    HW245373   7.796  10.915   2.447
47826SOL     OW45374  13.092  13.685   2.369
47826SOL    HW145375  13.119  13.610   2.422
47826SOL    HW245376  13.162  13.695   2.304
47827SOL     OW45377  11.072   4.876   0.898
47827SOL    HW145378  11.166   4.893   0.895
47827SOL    HW245379  11.055   4.852   0.989
47828SOL     OW45380   4.565   4.095  11.362
47828SOL    HW145381   4.527   4.168  11.312
47828SOL    HW245382   4.630   4.137  11.418
47829SOL     OW45383   0.722  10.637  10.564
47829SOL    HW145384   0.779  10.705  10.527
47829SOL    HW245385   0.651  10.627  10.500
47830SOL     OW45386   5.657   5.301   5.115
47830SOL    HW145387   5.720   5.369   5.092
47830SOL    HW245388   5.708   5.220   5.115
47831SOL     OW45389   9.404   3.654   4.066
47831SOL    HW145390   9.400   3.742   4.101
47831SOL    HW245391   9.312   3.628   4.055
47832SOL     OW45392   0.016   7.390  12.876
47832SOL    HW145393   0.035   7.335  12.952
47832SOL    HW245394   0.093   7.382  12.820
47833SOL     OW45395   8.380  12.466   1.149
47833SOL    HW145396   8.389  12.372   1.133
47833SOL    HW245397   8.416  12.479   1.237
47834SOL     OW45398  12.001  14.779   1.113
47834SOL    HW145399  12.023  14.701   1.062
47834SOL    HW245400  12.071  14.787   1.178
47835SOL     OW45401  12.429   7.675  12.697
47835SOL    HW145402  12.499   7.696  12.635
47835SOL    HW245403  12.451   7.587  12.728
47836SOL     OW45404   7.699   9.130   8.402
47836SOL    HW145405   7.721   9.149   8.311
47836SOL    HW245406   7.738   9.202   8.452
47837SOL     OW45407   6.049  11.226   9.208
47837SOL    HW145408   6.034  11.320   9.203
47837SOL    HW245409   6.117  11.216   9.276
47838SOL     OW45410   9.084   6.255   3.704
47838SOL    HW145411   9.155   6.249   3.769
47838SOL    HW245412   9.045   6.340   3.720
47839SOL     OW45413   8.452   5.528   1.770
47839SOL    HW145414   8.517   5.572   1.715
47839SOL    HW245415   8.462   5.569   1.856
47840SOL     OW45416   9.092   2.763   8.796
47840SOL    HW145417   9.028   2.694   8.777
47840SOL    HW245418   9.170   2.736   8.748
47841SOL     OW45419  12.867  11.028   1.282
47841SOL    HW145420  12.831  10.988   1.202
47841SOL    HW245421  12.929  10.964   1.315
47842SOL     OW45422   2.832   8.464  10.600
47842SOL    HW145423   2.880   8.437  10.679
47842SOL    HW245424   2.892   8.523  10.555
47843SOL     OW45425   8.548   4.434   8.173
47843SOL    HW145426   8.589   4.351   8.147
47843SOL    HW245427   8.455   4.414   8.179
47844SOL     OW45428  14.589   4.640   1.259
47844SOL    HW145429  14.618   4.720   1.214
47844SOL    HW245430  14.570   4.669   1.348
47845SOL     OW45431  14.869   0.295  11.373
47845SOL    HW145432   0.009   0.289  11.468
47845SOL    HW245433  14.788   0.247  11.356
47846SOL     OW45434   0.698   1.668   4.058
47846SOL    HW145435   0.768   1.602   4.055
47846SOL    HW245436   0.660   1.667   3.971
47847SOL     OW45437  13.878   2.687   8.959
47847SOL    HW145438  13.800   2.742   8.958
47847SOL    HW245439  13.877   2.646   9.045
47848SOL     OW45440  10.691  12.626   6.750
47848SOL    HW145441  10.732  12.570   6.815
47848SOL    HW245442  10.700  12.715   6.786
47849SOL     OW45443   2.385  12.307   2.249
47849SOL    HW145444   2.417  12.363   2.178
47849SOL    HW245445   2.464  12.274   2.292
47850SOL     OW45446  14.172   2.601   5.501
47850SOL    HW145447  14.208   2.670   5.558
47850SOL    HW245448  14.140   2.534   5.562
47851SOL     OW45449  14.561  13.808   2.877
47851SOL    HW145450  14.545  13.714   2.886
47851SOL    HW245451  14.646  13.822   2.918
47852SOL     OW45452   4.447  10.496   1.320
47852SOL    HW145453   4.370  10.489   1.377
47852SOL    HW245454   4.422  10.560   1.253
47853SOL     OW45455  10.270   4.346   4.201
47853SOL    HW145456  10.332   4.318   4.134
47853SOL    HW245457  10.190   4.367   4.153
47854SOL     OW45458   7.490   2.368  10.398
47854SOL    HW145459   7.487   2.409  10.312
47854SOL    HW245460   7.495   2.441  10.459
47855SOL     OW45461   5.632  12.983   9.617
47855SOL    HW145462   5.628  12.908   9.558
47855SOL    HW245463   5.707  13.034   9.586
47856SOL     OW45464   0.554  12.366   6.266
47856SOL    HW145465   0.576  12.281   6.304
47856SOL    HW245466   0.603  12.368   6.183
47857SOL     OW45467   5.098  10.483   2.170
47857SOL    HW145468   5.180  10.487   2.121
47857SOL    HW245469   5.052  10.563   2.146
47858SOL     OW45470   4.329  11.352  12.112
47858SOL    HW145471   4.238  11.380  12.121
47858SOL    HW245472   4.331  11.265  12.150
47859SOL     OW45473   1.162   1.244  13.619
47859SOL    HW145474   1.125   1.169  13.666
47859SOL    HW245475   1.087   1.285  13.576
47860SOL     OW45476   9.811   9.260   7.617
47860SOL    HW145477   9.765   9.321   7.559
47860SOL    HW245478   9.904   9.279   7.602
47861SOL     OW45479   9.890   0.509   9.701
47861SOL    HW145480   9.974   0.468   9.677
47861SOL    HW245481   9.833   0.491   9.626
47862SOL     OW45482   7.802   4.690   3.299
47862SOL    HW145483   7.808   4.604   3.340
47862SOL    HW245484   7.842   4.750   3.362
47863SOL     OW45485  14.431   6.188   8.470
47863SOL    HW145486  14.455   6.260   8.411
47863SOL    HW245487  14.336   6.186   8.469
47864SOL     OW45488   3.254   0.121   8.565
47864SOL    HW145489   3.245   0.134   8.659
47864SOL    HW245490   3.196   0.187   8.526
47865SOL     OW45491   0.601   4.378   2.784
47865SOL    HW145492   0.635   4.314   2.847
47865SOL    HW245493   0.581   4.326   2.706
47866SOL     OW45494   1.008   9.643   6.491
47866SOL    HW145495   1.075   9.669   6.428
47866SOL    HW245496   0.976   9.559   6.459
47867SOL     OW45497   5.333  10.063   1.953
47867SOL    HW145498   5.322   9.969   1.960
47867SOL    HW245499   5.253  10.100   1.991
47868SOL     OW45500   0.318   7.611   2.001
47868SOL    HW145501   0.262   7.682   1.971
47868SOL    HW245502   0.399   7.655   2.029
47869SOL     OW45503   5.000   0.180   7.134
47869SOL    HW145504   5.058   0.222   7.069
47869SOL    HW245505   4.916   0.173   7.089
47870SOL     OW45506  11.021   0.241   2.866
47870SOL    HW145507  11.019   0.285   2.782
47870SOL    HW245508  11.073   0.298   2.923
47871SOL     OW45509   8.603   6.729   6.927
47871SOL    HW145510   8.544   6.732   6.852
47871SOL    HW245511   8.560   6.784   6.994
47872SOL     OW45512   3.833  12.074   6.356
47872SOL    HW145513   3.842  11.982   6.331
47872SOL    HW245514   3.783  12.114   6.284
47873SOL     OW45515   9.986   2.499  13.982
47873SOL    HW145516   9.976   2.580  13.932
47873SOL    HW245517   9.911   2.445  13.956
47874SOL     OW45518   9.568  12.907  13.912
47874SOL    HW145519   9.536  12.822  13.942
47874SOL    HW245520   9.628  12.936  13.981
47875SOL     OW45521  14.494   0.324   6.661
47875SOL    HW145522  14.446   0.358   6.586
47875SOL    HW245523  14.566   0.386   6.673
47876SOL     OW45524  11.453   4.395   1.409
47876SOL    HW145525  11.475   4.476   1.363
47876SOL    HW245526  11.498   4.327   1.361
47877SOL     OW45527   9.109  13.006   2.095
47877SOL    HW145528   9.058  12.986   2.173
47877SOL    HW245529   9.143  12.921   2.066
47878SOL     OW45530   9.833  10.957   3.324
47878SOL    HW145531   9.747  10.999   3.317
47878SOL    HW245532   9.877  10.981   3.242
47879SOL     OW45533   7.230  11.951   9.920
47879SOL    HW145534   7.183  11.871   9.942
47879SOL    HW245535   7.165  12.006   9.875
47880SOL     OW45536   2.795  12.262  10.724
47880SOL    HW145537   2.870  12.262  10.784
47880SOL    HW245538   2.782  12.354  10.702
47881SOL     OW45539  11.222   5.696  14.329
47881SOL    HW145540  11.261   5.783  14.338
47881SOL    HW245541  11.204   5.688  14.235
47882SOL     OW45542   1.405   4.830  13.391
47882SOL    HW145543   1.458   4.751  13.391
47882SOL    HW245544   1.465   4.900  13.415
47883SOL     OW45545   8.831   1.275   5.896
47883SOL    HW145546   8.831   1.329   5.817
47883SOL    HW245547   8.813   1.187   5.865
47884SOL     OW45548   6.367   1.980  12.750
47884SOL    HW145549   6.363   2.041  12.824
47884SOL    HW245550   6.278   1.949  12.740
47885SOL     OW45551   9.432   4.866   0.309
47885SOL    HW145552   9.460   4.909   0.228
47885SOL    HW245553   9.493   4.793   0.320
47886SOL     OW45554  13.882  13.852   8.089
47886SOL    HW145555  13.870  13.761   8.114
47886SOL    HW245556  13.883  13.850   7.993
47887SOL     OW45557   5.317  10.848  12.339
47887SOL    HW145558   5.335  10.910  12.409
47887SOL    HW245559   5.317  10.762  12.381
47888SOL     OW45560   7.467   2.065   0.759
47888SOL    HW145561   7.536   2.117   0.800
47888SOL    HW245562   7.418   2.028   0.832
47889SOL     OW45563   8.747   2.325   1.689
47889SOL    HW145564   8.658   2.310   1.657
47889SOL    HW245565   8.739   2.323   1.785
47890SOL     OW45566   5.942   7.065   1.966
47890SOL    HW145567   5.860   7.077   2.014
47890SOL    HW245568   5.998   7.016   2.026
47891SOL     OW45569  11.325  12.992   7.330
47891SOL    HW145570  11.416  12.971   7.350
47891SOL    HW245571  11.287  12.908   7.302
47892SOL     OW45572   5.012   6.851  10.513
47892SOL    HW145573   5.019   6.841  10.418
47892SOL    HW245574   5.046   6.768  10.548
47893SOL     OW45575   8.527   6.083   9.480
47893SOL    HW145576   8.463   6.031   9.432
47893SOL    HW245577   8.543   6.159   9.424
47894SOL     OW45578  14.246  10.100   4.392
47894SOL    HW145579  14.251  10.155   4.314
47894SOL    HW245580  14.262  10.011   4.360
47895SOL     OW45581   4.225  11.366   1.026
47895SOL    HW145582   4.222  11.274   1.052
47895SOL    HW245583   4.219  11.414   1.108
47896SOL     OW45584  13.981   4.382  13.654
47896SOL    HW145585  13.947   4.307  13.703
47896SOL    HW245586  13.966   4.457  13.711
47897SOL     OW45587   9.085   3.940   0.941
47897SOL    HW145588   9.160   3.958   0.885
47897SOL    HW245589   9.059   4.026   0.975
47898SOL     OW45590  13.760  13.105   2.365
47898SOL    HW145591  13.743  13.137   2.453
47898SOL    HW245592  13.709  13.025   2.357
47899SOL     OW45593  11.246   3.002  13.240
47899SOL    HW145594  11.176   2.937  13.251
47899SOL    HW245595  11.260   3.037  13.329
47900SOL     OW45596   7.931   8.579  10.248
47900SOL    HW145597   7.853   8.631  10.269
47900SOL    HW245598   7.946   8.595  10.155
47901SOL     OW45599  14.737   7.250  10.699
47901SOL    HW145600  14.653   7.267  10.656
47901SOL    HW245601  14.714   7.235  10.791
47902SOL     OW45602   7.126  10.075  14.455
47902SOL    HW145603   7.218  10.063  14.478
47902SOL    HW245604   7.127  10.130  14.377
47903SOL     OW45605   6.927   5.175   6.478
47903SOL    HW145606   6.856   5.221   6.433
47903SOL    HW245607   6.988   5.151   6.407
47904SOL     OW45608   5.790   3.992   2.121
47904SOL    HW145609   5.822   3.995   2.212
47904SOL    HW245610   5.815   3.905   2.090
47905SOL     OW45611  13.073  13.963   4.468
47905SOL    HW145612  13.169  13.966   4.464
47905SOL    HW245613  13.050  13.879   4.427
47906SOL     OW45614   3.019  13.659   8.117
47906SOL    HW145615   3.009  13.699   8.203
47906SOL    HW245616   3.008  13.566   8.132
47907SOL     OW45617  13.470   2.980   2.142
47907SOL    HW145618  13.517   2.916   2.088
47907SOL    HW245619  13.535   3.048   2.159
47908SOL     OW45620   2.056  10.446  10.116
47908SOL    HW145621   2.134  10.435  10.061
47908SOL    HW245622   2.073  10.524  10.167
47909SOL     OW45623   9.553   0.406   4.593
47909SOL    HW145624   9.466   0.427   4.627
47909SOL    HW245625   9.545   0.412   4.498
47910SOL     OW45626   5.291  12.855   1.021
47910SOL    HW145627   5.201  12.865   0.991
47910SOL    HW245628   5.330  12.794   0.958
47911SOL     OW45629  10.612   6.788   4.752
47911SOL    HW145630  10.677   6.856   4.736
47911SOL    HW245631  10.605   6.741   4.670
47912SOL     OW45632   9.228  11.579   1.991
47912SOL    HW145633   9.292  11.532   2.045
47912SOL    HW245634   9.182  11.637   2.052
47913SOL     OW45635   1.590  12.108  12.801
47913SOL    HW145636   1.556  12.096  12.889
47913SOL    HW245637   1.573  12.025  12.757
47914SOL     OW45638  14.581   7.205   9.823
47914SOL    HW145639  14.523   7.266   9.868
47914SOL    HW245640  14.540   7.190   9.738
47915SOL     OW45641   1.275   9.381   7.279
47915SOL    HW145642   1.223   9.303   7.262
47915SOL    HW245643   1.365   9.354   7.260
47916SOL     OW45644   0.069   7.429   6.715
47916SOL    HW145645   0.068   7.470   6.628
47916SOL    HW245646   0.027   7.493   6.772
47917SOL     OW45647   2.061   8.728   2.798
47917SOL    HW145648   2.133   8.669   2.824
47917SOL    HW245649   2.037   8.774   2.878
47918SOL     OW45650  11.089  12.979   6.020
47918SOL    HW145651  11.184  12.970   6.029
47918SOL    HW245652  11.058  12.891   5.997
47919SOL     OW45653  14.130   6.840   2.131
47919SOL    HW145654  14.218   6.803   2.131
47919SOL    HW245655  14.140   6.927   2.092
47920SOL     OW45656   1.032   2.684   7.332
47920SOL    HW145657   0.958   2.730   7.292
47920SOL    HW245658   1.002   2.593   7.340
47921SOL     OW45659   6.598   2.029   7.072
47921SOL    HW145660   6.671   1.984   7.113
47921SOL    HW245661   6.532   1.961   7.060
47922SOL     OW45662   8.127  11.783   6.030
47922SOL    HW145663   8.056  11.798   6.093
47922SOL    HW245664   8.184  11.860   6.039
47923SOL     OW45665   9.455   8.516   2.100
47923SOL    HW145666   9.517   8.576   2.057
47923SOL    HW245667   9.441   8.446   2.036
47924SOL     OW45668  10.273  14.541  14.248
47924SOL    HW145669  10.351  14.582  14.210
47924SOL    HW245670  10.307  14.471  14.303
47925SOL     OW45671   3.673   2.320  12.663
47925SOL    HW145672   3.662   2.367  12.746
47925SOL    HW245673   3.701   2.232  12.689
47926SOL     OW45674   2.293  10.669   1.194
47926SOL    HW145675   2.212  10.619   1.201
47926SOL    HW245676   2.363  10.607   1.216
47927SOL     OW45677   0.225   2.561   1.480
47927SOL    HW145678   0.272   2.493   1.430
47927SOL    HW245679   0.282   2.638   1.474
47928SOL     OW45680   2.799  13.139  13.245
47928SOL    HW145681   2.776  13.123  13.336
47928SOL    HW245682   2.783  13.055  13.201
47929SOL     OW45683  11.688  12.585   5.277
47929SOL    HW145684  11.666  12.661   5.332
47929SOL    HW245685  11.759  12.617   5.221
47930SOL     OW45686   6.039  13.327   8.989
47930SOL    HW145687   5.978  13.254   8.985
47930SOL    HW245688   6.027  13.373   8.906
47931SOL     OW45689   5.795  14.002   9.006
47931SOL    HW145690   5.858  14.067   8.976
47931SOL    HW245691   5.798  13.933   8.939
47932SOL     OW45692   2.976   6.038   3.461
47932SOL    HW145693   2.968   6.047   3.556
47932SOL    HW245694   2.935   5.954   3.441
47933SOL     OW45695   5.705  14.373  14.356
47933SOL    HW145696   5.650  14.328  14.420
47933SOL    HW245697   5.681  14.465  14.362
47934SOL     OW45698  12.123   9.353  11.772
47934SOL    HW145699  12.166   9.435  11.748
47934SOL    HW245700  12.052   9.343  11.708
47935SOL     OW45701  12.473   0.401   5.216
47935SOL    HW145702  12.421   0.431   5.290
47935SOL    HW245703  12.490   0.309   5.234
47936SOL     OW45704   9.295   0.701  11.186
47936SOL    HW145705   9.222   0.684  11.126
47936SOL    HW245706   9.289   0.633  11.253
47937SOL     OW45707   4.161   7.003   4.955
47937SOL    HW145708   4.144   7.096   4.941
47937SOL    HW245709   4.175   6.967   4.867
47938SOL     OW45710  10.001   5.871   4.774
47938SOL    HW145711   9.952   5.927   4.714
47938SOL    HW245712  10.065   5.826   4.719
47939SOL     OW45713   3.689  11.961  11.401
47939SOL    HW145714   3.770  11.988  11.356
47939SOL    HW245715   3.659  11.886  11.350
47940SOL     OW45716   2.733   7.025   7.014
47940SOL    HW145717   2.679   7.033   7.093
47940SOL    HW245718   2.723   7.109   6.969
47941SOL     OW45719   4.378  13.124  13.749
47941SOL    HW145720   4.299  13.142  13.799
47941SOL    HW245721   4.439  13.194  13.772
47942SOL     OW45722   0.796   9.645   4.678
47942SOL    HW145723   0.785   9.709   4.607
47942SOL    HW245724   0.712   9.644   4.722
47943SOL     OW45725   5.061   5.526   4.929
47943SOL    HW145726   4.983   5.536   4.983
47943SOL    HW245727   5.116   5.464   4.978
47944SOL     OW45728   8.237  13.173   4.819
47944SOL    HW145729   8.274  13.172   4.730
47944SOL    HW245730   8.172  13.104   4.818
47945SOL     OW45731   5.384   0.069   3.101
47945SOL    HW145732   5.352   0.124   3.030
47945SOL    HW245733   5.404   0.131   3.171
47946SOL     OW45734   7.469  14.750   0.244
47946SOL    HW145735   7.421  14.797   0.313
47946SOL    HW245736   7.549  14.800   0.232
47947SOL     OW45737   7.884   0.279  10.057
47947SOL    HW145738   7.804   0.228  10.043
47947SOL    HW245739   7.945   0.245   9.991
47948SOL     OW45740  10.075  12.669   4.599
47948SOL    HW145741  10.136  12.599   4.624
47948SOL    HW245742  10.130  12.734   4.555
47949SOL     OW45743  14.646  11.772   8.044
47949SOL    HW145744  14.735  11.750   8.069
47949SOL    HW245745  14.591  11.709   8.090
47950SOL     OW45746   9.272  10.999   5.016
47950SOL    HW145747   9.274  11.086   4.975
47950SOL    HW245748   9.329  11.007   5.093
47951SOL     OW45749   5.479   6.542  13.820
47951SOL    HW145750   5.531   6.584  13.889
47951SOL    HW245751   5.457   6.613  13.760
47952SOL     OW45752  10.797   1.680   6.946
47952SOL    HW145753  10.815   1.628   7.025
47952SOL    HW245754  10.883   1.697   6.909
47953SOL     OW45755   4.835   3.185  11.532
47953SOL    HW145756   4.848   3.201  11.438
47953SOL    HW245757   4.771   3.251  11.559
47954SOL     OW45758   8.353  14.461   7.404
47954SOL    HW145759   8.390  14.545   7.378
47954SOL    HW245760   8.401  14.397   7.351
47955SOL     OW45761  14.174  11.616   7.877
47955SOL    HW145762  14.086  11.583   7.857
47955SOL    HW245763  14.203  11.656   7.795
47956SOL     OW45764   5.071  11.364  13.146
47956SOL    HW145765   5.065  11.359  13.050
47956SOL    HW245766   5.019  11.441  13.169
47957SOL     OW45767  14.204   4.945  11.771
47957SOL    HW145768  14.271   4.909  11.712
47957SOL    HW245769  14.138   4.876  11.776
47958SOL     OW45770   8.158  14.155   9.801
47958SOL    HW145771   8.077  14.135   9.753
47958SOL    HW245772   8.129  14.170   9.891
47959SOL     OW45773   6.548   4.295  12.322
47959SOL    HW145774   6.544   4.214  12.272
47959SOL    HW245775   6.624   4.341  12.287
47960SOL     OW45776   5.454   4.525   6.007
47960SOL    HW145777   5.433   4.447   5.955
47960SOL    HW245778   5.376   4.540   6.060
47961SOL     OW45779   6.698   0.774   3.508
47961SOL    HW145780   6.614   0.732   3.493
47961SOL    HW245781   6.734   0.731   3.585
47962SOL     OW45782   7.252  12.052   7.961
47962SOL    HW145783   7.199  12.053   7.881
47962SOL    HW245784   7.310  12.128   7.952
47963SOL     OW45785   4.490   6.905   0.736
47963SOL    HW145786   4.417   6.917   0.797
47963SOL    HW245787   4.449   6.872   0.656
47964SOL     OW45788   1.766  13.830   2.753
47964SOL    HW145789   1.823  13.764   2.792
47964SOL    HW245790   1.826  13.892   2.711
47965SOL     OW45791   2.639   1.223  14.531
47965SOL    HW145792   2.733   1.212  14.548
47965SOL    HW245793   2.596   1.178  14.604
47966SOL     OW45794  11.786   1.460  14.391
47966SOL    HW145795  11.812   1.397  14.323
47966SOL    HW245796  11.844   1.535  14.377
47967SOL     OW45797   3.238   6.073  10.362
47967SOL    HW145798   3.272   6.006  10.303
47967SOL    HW245799   3.221   6.026  10.444
47968SOL     OW45800  11.984   4.826  13.128
47968SOL    HW145801  11.972   4.844  13.222
47968SOL    HW245802  12.078   4.805  13.121
47969SOL     OW45803  13.399   6.200  11.877
47969SOL    HW145804  13.327   6.152  11.917
47969SOL    HW245805  13.476   6.146  11.894
47970SOL     OW45806   2.607  10.373  10.098
47970SOL    HW145807   2.621  10.401  10.007
47970SOL    HW245808   2.671  10.425  10.148
47971SOL     OW45809  14.509   4.471   4.506
47971SOL    HW145810  14.552   4.399   4.461
47971SOL    HW245811  14.539   4.550   4.461
47972SOL     OW45812   6.456   7.873   3.318
47972SOL    HW145813   6.492   7.871   3.406
47972SOL    HW245814   6.413   7.958   3.311
47973SOL     OW45815  12.189   7.167   6.116
47973SOL    HW145816  12.181   7.228   6.043
47973SOL    HW245817  12.221   7.086   6.077
47974SOL     OW45818   9.689  13.312   9.451
47974SOL    HW145819   9.758  13.284   9.510
47974SOL    HW245820   9.646  13.384   9.496
47975SOL     OW45821  13.965   3.536   0.107
47975SOL    HW145822  13.909   3.601   0.064
47975SOL    HW245823  13.987   3.575   0.192
47976SOL     OW45824   5.315   5.463  13.812
47976SOL    HW145825   5.301   5.532  13.877
47976SOL    HW245826   5.259   5.488  13.738
47977SOL     OW45827   4.715  14.392   2.034
47977SOL    HW145828   4.780  14.422   1.971
47977SOL    HW245829   4.765  14.372   2.113
47978SOL     OW45830  14.774   4.082  13.520
47978SOL    HW145831  14.689   4.041  13.534
47978SOL    HW245832  14.833   4.009  13.501
47979SOL     OW45833   3.051   3.997   7.002
47979SOL    HW145834   3.105   4.065   7.042
47979SOL    HW245835   3.109   3.922   6.992
47980SOL     OW45836   3.820   7.116   4.667
47980SOL    HW145837   3.798   7.081   4.753
47980SOL    HW245838   3.863   7.042   4.622
47981SOL     OW45839   3.269   3.841   8.753
47981SOL    HW145840   3.205   3.872   8.817
47981SOL    HW245841   3.252   3.894   8.675
47982SOL     OW45842   6.805   5.470   6.838
47982SOL    HW145843   6.733   5.529   6.814
47982SOL    HW245844   6.856   5.520   6.901
47983SOL     OW45845   9.178   7.713  12.181
47983SOL    HW145846   9.245   7.741  12.244
47983SOL    HW245847   9.206   7.750  12.098
47984SOL     OW45848   8.824  14.134  12.471
47984SOL    HW145849   8.912  14.147  12.507
47984SOL    HW245850   8.837  14.076  12.397
47985SOL     OW45851   7.064   2.363   4.804
47985SOL    HW145852   7.128   2.382   4.735
47985SOL    HW245853   7.027   2.279   4.779
47986SOL     OW45854  12.402   9.228  10.755
47986SOL    HW145855  12.328   9.167  10.752
47986SOL    HW245856  12.415   9.247  10.848
47987SOL     OW45857  12.211  10.357  14.616
47987SOL    HW145858  12.213  10.281  14.674
47987SOL    HW245859  12.264  10.331  14.541
47988SOL     OW45860   5.645  14.139   7.764
47988SOL    HW145861   5.637  14.208   7.830
47988SOL    HW245862   5.582  14.073   7.792
47989SOL     OW45863   5.225   0.288   2.445
47989SOL    HW145864   5.285   0.214   2.442
47989SOL    HW245865   5.199   0.302   2.354
47990SOL     OW45866   4.074   5.215   2.826
47990SOL    HW145867   4.056   5.124   2.850
47990SOL    HW245868   4.009   5.266   2.875
47991SOL     OW45869   2.476  11.361  11.720
47991SOL    HW145870   2.412  11.304  11.764
47991SOL    HW245871   2.560  11.315  11.730
47992SOL     OW45872   8.270  11.924  13.312
47992SOL    HW145873   8.321  11.999  13.342
47992SOL    HW245874   8.180  11.945  13.335
47993SOL     OW45875   4.361   1.288   5.583
47993SOL    HW145876   4.358   1.337   5.500
47993SOL    HW245877   4.328   1.201   5.560
47994SOL     OW45878   8.738   5.646   1.522
47994SOL    HW145879   8.732   5.603   1.607
47994SOL    HW245880   8.653   5.629   1.481
47995SOL     OW45881   0.112   0.746   9.078
47995SOL    HW145882   0.099   0.738   8.983
47995SOL    HW245883   0.165   0.825   9.088
47996SOL     OW45884   6.528   0.259   1.410
47996SOL    HW145885   6.571   0.343   1.427
47996SOL    HW245886   6.590   0.194   1.443
47997SOL     OW45887   3.551   5.988   2.393
47997SOL    HW145888   3.462   5.970   2.423
47997SOL    HW245889   3.607   5.948   2.460
47998SOL     OW45890   9.335   5.466   9.476
47998SOL    HW145891   9.307   5.414   9.551
47998SOL    HW245892   9.297   5.553   9.491
47999SOL     OW45893   9.694   6.167  14.489
47999SOL    HW145894   9.610   6.122  14.490
47999SOL    HW245895   9.755   6.103  14.452
48000SOL     OW45896   4.113  13.461   1.677
48000SOL    HW145897   4.136  13.418   1.595
48000SOL    HW245898   4.093  13.389   1.737
48001SOL     OW45899  11.167   3.177   9.244
48001SOL    HW145900  11.145   3.203   9.333
48001SOL    HW245901  11.160   3.258   9.193
48002SOL     OW45902   1.620   8.331   1.202
48002SOL    HW145903   1.700   8.304   1.157
48002SOL    HW245904   1.608   8.267   1.271
48003SOL     OW45905  13.752  12.281   5.592
48003SOL    HW145906  13.794  12.197   5.576
48003SOL    HW245907  13.807  12.324   5.657
48004SOL     OW45908   7.538   9.419   0.156
48004SOL    HW145909   7.509   9.472   0.230
48004SOL    HW245910   7.468   9.357   0.141
48005SOL     OW45911   1.544   0.778   2.520
48005SOL    HW145912   1.547   0.689   2.485
48005SOL    HW245913   1.635   0.800   2.539
48006SOL     OW45914   8.559  13.657   1.826
48006SOL    HW145915   8.551  13.752   1.835
48006SOL    HW245916   8.640  13.635   1.873
48007SOL     OW45917   2.435  14.531   7.069
48007SOL    HW145918   2.426  14.436   7.063
48007SOL    HW245919   2.371  14.565   7.006
48008SOL     OW45920  12.253  13.051   4.811
48008SOL    HW145921  12.342  13.082   4.828
48008SOL    HW245922  12.197  13.113   4.857
48009SOL     OW45923   1.933   7.497  10.960
48009SOL    HW145924   1.979   7.424  10.918
48009SOL    HW245925   1.989   7.573  10.944
48010SOL     OW45926  12.972   4.232  12.652
48010SOL    HW145927  12.958   4.218  12.745
48010SOL    HW245928  12.980   4.143  12.616
48011SOL     OW45929  11.253   3.121  13.574
48011SOL    HW145930  11.240   3.134  13.668
48011SOL    HW245931  11.172   3.153  13.534
48012SOL     OW45932  14.729   6.300   4.123
48012SOL    HW145933  14.687   6.353   4.055
48012SOL    HW245934  14.657   6.248   4.160
48013SOL     OW45935  13.706   4.465  11.523
48013SOL    HW145936  13.738   4.457  11.433
48013SOL    HW245937  13.748   4.544  11.556
48014SOL     OW45938  12.372   5.620   2.332
48014SOL    HW145939  12.438   5.666   2.279
48014SOL    HW245940  12.422   5.578   2.401
48015SOL     OW45941  10.838   4.733   7.216
48015SOL    HW145942  10.838   4.661   7.153
48015SOL    HW245943  10.915   4.786   7.192
48016SOL     OW45944   2.803   9.111  14.211
48016SOL    HW145945   2.764   9.187  14.253
48016SOL    HW245946   2.826   9.053  14.283
48017SOL     OW45947   7.127  13.851   7.112
48017SOL    HW145948   7.199  13.899   7.071
48017SOL    HW245949   7.117  13.773   7.058
48018SOL     OW45950   7.584  13.870   5.267
48018SOL    HW145951   7.615  13.780   5.257
48018SOL    HW245952   7.504  13.873   5.213
48019SOL     OW45953   7.585   1.317   9.772
48019SOL    HW145954   7.584   1.408   9.743
48019SOL    HW245955   7.514   1.275   9.723
48020SOL     OW45956   3.548   8.327   1.976
48020SOL    HW145957   3.627   8.310   1.924
48020SOL    HW245958   3.581   8.333   2.066
48021SOL     OW45959   4.734   7.249  13.975
48021SOL    HW145960   4.775   7.166  13.951
48021SOL    HW245961   4.640   7.231  13.972
48022SOL     OW45962   9.099   4.629  12.904
48022SOL    HW145963   9.007   4.654  12.900
48022SOL    HW245964   9.144   4.707  12.936
48023SOL     OW45965  12.158   8.492   9.479
48023SOL    HW145966  12.180   8.571   9.430
48023SOL    HW245967  12.208   8.423   9.435
48024SOL     OW45968   5.326  11.987   9.484
48024SOL    HW145969   5.402  11.931   9.499
48024SOL    HW245970   5.354  12.073   9.514
48025SOL     OW45971  11.713   2.411  12.818
48025SOL    HW145972  11.694   2.504  12.834
48025SOL    HW245973  11.628   2.368  12.824
48026SOL     OW45974  12.152   0.927  10.702
48026SOL    HW145975  12.242   0.931  10.670
48026SOL    HW245976  12.139   0.835  10.727
48027SOL     OW45977   0.999   5.027   9.483
48027SOL    HW145978   0.929   5.025   9.549
48027SOL    HW245979   0.955   5.009   9.400
48028SOL     OW45980   8.634  10.466  12.118
48028SOL    HW145981   8.557  10.410  12.112
48028SOL    HW245982   8.607  10.540  12.173
48029SOL     OW45983   4.056  11.383   0.346
48029SOL    HW145984   4.136  11.378   0.399
48029SOL    HW245985   4.026  11.292   0.340
48030SOL     OW45986   2.795   1.402  11.550
48030SOL    HW145987   2.778   1.493  11.574
48030SOL    HW245988   2.839   1.407  11.465
48031SOL     OW45989  13.786   3.476  13.460
48031SOL    HW145990  13.838   3.480  13.379
48031SOL    HW245991  13.698   3.455  13.431
48032SOL     OW45992   4.868   3.627   8.320
48032SOL    HW145993   4.811   3.550   8.322
48032SOL    HW245994   4.955   3.592   8.343
48033SOL     OW45995   9.872   8.523  10.478
48033SOL    HW145996   9.803   8.590  10.473
48033SOL    HW245997   9.927   8.552  10.550
48034SOL     OW45998   5.637   6.688   4.178
48034SOL    HW145999   5.705   6.755   4.170
48034SOL    HW246000   5.555   6.736   4.164
48035SOL     OW46001   4.768   2.908   6.701
48035SOL    HW146002   4.697   2.889   6.763
48035SOL    HW246003   4.766   3.003   6.691
48036SOL     OW46004  14.540   4.260  13.310
48036SOL    HW146005  14.565   4.251  13.218
48036SOL    HW246006  14.576   4.345  13.336
48037SOL     OW46007   5.025   8.659   9.656
48037SOL    HW146008   5.019   8.588   9.719
48037SOL    HW246009   4.961   8.723   9.685
48038SOL     OW46010  14.332   1.470   3.905
48038SOL    HW146011  14.320   1.388   3.858
48038SOL    HW246012  14.320   1.446   3.997
48039SOL     OW46013   9.460   8.057   9.864
48039SOL    HW146014   9.470   8.149   9.840
48039SOL    HW246015   9.550   8.023   9.864
48040SOL     OW46016  13.629   4.254   3.960
48040SOL    HW146017  13.700   4.199   3.994
48040SOL    HW246018  13.661   4.285   3.875
48041SOL     OW46019   8.368   6.183   7.356
48041SOL    HW146020   8.431   6.159   7.288
48041SOL    HW246021   8.299   6.231   7.310
48042SOL     OW46022   1.549   1.236   4.925
48042SOL    HW146023   1.481   1.302   4.938
48042SOL    HW246024   1.501   1.154   4.913
48043SOL     OW46025   5.872   1.555  12.466
48043SOL    HW146026   5.954   1.506  12.456
48043SOL    HW246027   5.834   1.524  12.548
48044SOL     OW46028   0.544   5.465   0.207
48044SOL    HW146029   0.531   5.468   0.112
48044SOL    HW246030   0.636   5.439   0.217
48045SOL     OW46031   9.533  11.891   2.332
48045SOL    HW146032   9.569  11.903   2.420
48045SOL    HW246033   9.493  11.975   2.310
48046SOL     OW46034   5.971  13.021   8.038
48046SOL    HW146035   5.981  12.967   7.959
48046SOL    HW246036   6.059  13.055   8.055
48047SOL     OW46037  13.069   7.869   3.693
48047SOL    HW146038  13.082   7.790   3.745
48047SOL    HW246039  12.976   7.869   3.672
48048SOL     OW46040  13.049   5.766   7.213
48048SOL    HW146041  13.097   5.721   7.143
48048SOL    HW246042  12.997   5.698   7.254
48049SOL     OW46043  10.131  10.585   3.634
48049SOL    HW146044  10.218  10.625   3.624
48049SOL    HW246045  10.132  10.546   3.721
48050SOL     OW46046   4.622  10.896   5.481
48050SOL    HW146047   4.546  10.950   5.502
48050SOL    HW246048   4.621  10.827   5.547
48051SOL     OW46049  13.185  13.191   2.702
48051SOL    HW146050  13.133  13.130   2.650
48051SOL    HW246051  13.122  13.231   2.762
48052SOL     OW46052   2.083  14.870  12.844
48052SOL    HW146053   2.144   0.024  12.913
48052SOL    HW246054   2.116   0.044  12.766
48053SOL     OW46055   8.034   6.053   6.656
48053SOL    HW146056   7.970   6.067   6.726
48053SOL    HW246057   8.085   6.134   6.654
48054SOL     OW46058   7.263   3.979  10.298
48054SOL    HW146059   7.222   3.904  10.340
48054SOL    HW246060   7.192   4.043  10.289
48055SOL     OW46061   9.699   5.342   9.191
48055SOL    HW146062   9.627   5.404   9.203
48055SOL    HW246063   9.662   5.257   9.216
48056SOL     OW46064  12.387  14.446   9.561
48056SOL    HW146065  12.293  14.454   9.551
48056SOL    HW246066  12.404  14.352   9.560
48057SOL     OW46067   3.383   8.208  10.873
48057SOL    HW146068   3.363   8.119  10.903
48057SOL    HW246069   3.306   8.234  10.823
48058SOL     OW46070  10.359   8.921  11.173
48058SOL    HW146071  10.416   8.986  11.132
48058SOL    HW246072  10.272   8.938  11.137
48059SOL     OW46073   8.488  12.877   6.684
48059SOL    HW146074   8.474  12.857   6.777
48059SOL    HW246075   8.567  12.931   6.682
48060SOL     OW46076   8.867   9.102  13.213
48060SOL    HW146077   8.887   9.045  13.139
48060SOL    HW246078   8.939   9.086  13.275
48061SOL     OW46079   3.764  13.356  12.547
48061SOL    HW146080   3.789  13.297  12.618
48061SOL    HW246081   3.681  13.320  12.515
48062SOL     OW46082   8.964   9.921  13.808
48062SOL    HW146083   9.043   9.873  13.785
48062SOL    HW246084   8.994   9.990  13.868
48063SOL     OW46085   1.384   9.462  14.312
48063SOL    HW146086   1.326   9.386  14.301
48063SOL    HW246087   1.388   9.502  14.226
48064SOL     OW46088   0.947   1.133  11.477
48064SOL    HW146089   0.990   1.203  11.527
48064SOL    HW246090   0.866   1.116  11.526
48065SOL     OW46091  14.055  14.698   5.544
48065SOL    HW146092  14.047  14.604   5.529
48065SOL    HW246093  14.144  14.720   5.515
48066SOL     OW46094   5.480   1.705   9.834
48066SOL    HW146095   5.526   1.729   9.914
48066SOL    HW246096   5.388   1.699   9.860
48067SOL     OW46097   6.456  13.069  10.780
48067SOL    HW146098   6.487  13.154  10.749
48067SOL    HW246099   6.419  13.088  10.867
48068SOL     OW46100   6.956   4.247   2.785
48068SOL    HW146101   7.020   4.302   2.831
48068SOL    HW246102   6.914   4.196   2.855
48069SOL     OW46103   5.057  12.589   2.511
48069SOL    HW146104   5.041  12.653   2.579
48069SOL    HW246105   5.101  12.637   2.441
48070SOL     OW46106  13.276   8.438   5.195
48070SOL    HW146107  13.362   8.397   5.198
48070SOL    HW246108  13.227   8.387   5.130
48071SOL     OW46109   1.162  14.423  13.031
48071SOL    HW146110   1.173  14.487  12.960
48071SOL    HW246111   1.085  14.372  13.006
48072SOL     OW46112   9.877   0.438   0.269
48072SOL    HW146113   9.934   0.393   0.206
48072SOL    HW246114   9.930   0.510   0.302
48073SOL     OW46115  11.233   2.538  11.400
48073SOL    HW146116  11.162   2.553  11.462
48073SOL    HW246117  11.307   2.510  11.454
48074SOL     OW46118   8.487   1.406   6.649
48074SOL    HW146119   8.392   1.404   6.640
48074SOL    HW246120   8.514   1.484   6.600
48075SOL     OW46121  13.090  10.770   8.251
48075SOL    HW146122  13.000  10.773   8.282
48075SOL    HW246123  13.101  10.681   8.218
48076SOL     OW46124   4.250  10.705  13.290
48076SOL    HW146125   4.233  10.681  13.198
48076SOL    HW246126   4.263  10.800  13.288
48077SOL     OW46127   8.530   3.658   6.045
48077SOL    HW146128   8.604   3.707   6.011
48077SOL    HW246129   8.454   3.696   6.001
48078SOL     OW46130   3.048   2.672   2.291
48078SOL    HW146131   3.139   2.663   2.265
48078SOL    HW246132   3.051   2.692   2.384
48079SOL     OW46133   2.980  13.891   8.786
48079SOL    HW146134   2.949  13.811   8.742
48079SOL    HW246135   2.940  13.887   8.873
48080SOL     OW46136   6.057   7.350  12.479
48080SOL    HW146137   6.078   7.429  12.529
48080SOL    HW246138   6.133   7.336  12.423
48081SOL     OW46139   5.052  12.952   6.089
48081SOL    HW146140   4.981  12.937   6.152
48081SOL    HW246141   5.076  13.044   6.102
48082SOL     OW46142   7.851  10.098   9.806
48082SOL    HW146143   7.855  10.084   9.712
48082SOL    HW246144   7.916  10.038   9.842
48083SOL     OW46145   0.807  12.181  14.330
48083SOL    HW146146   0.861  12.129  14.388
48083SOL    HW246147   0.719  12.178  14.368
48084SOL     OW46148   6.431   8.446   4.756
48084SOL    HW146149   6.357   8.390   4.782
48084SOL    HW246150   6.485   8.389   4.701
48085SOL     OW46151   6.812  12.612  11.000
48085SOL    HW146152   6.829  12.623  11.093
48085SOL    HW246153   6.716  12.610  10.993
48086SOL     OW46154   2.690   7.885   0.381
48086SOL    HW146155   2.694   7.882   0.477
48086SOL    HW246156   2.781   7.904   0.355
48087SOL     OW46157   3.509   6.077   4.422
48087SOL    HW146158   3.477   6.155   4.467
48087SOL    HW246159   3.531   6.107   4.334
48088SOL     OW46160  10.620  11.409  14.409
48088SOL    HW146161  10.675  11.394  14.486
48088SOL    HW246162  10.587  11.498  14.420
48089SOL     OW46163   3.702   6.683   2.544
48089SOL    HW146164   3.737   6.770   2.523
48089SOL    HW246165   3.609   6.699   2.564
48090SOL     OW46166   9.245  14.808   9.341
48090SOL    HW146167   9.318  14.846   9.390
48090SOL    HW246168   9.192   0.011   9.315
48091SOL     OW46169  11.731  11.695   7.619
48091SOL    HW146170  11.668  11.641   7.667
48091SOL    HW246171  11.782  11.739   7.687
48092SOL     OW46172   6.668   8.972  12.632
48092SOL    HW146173   6.724   8.927  12.695
48092SOL    HW246174   6.670   8.917  12.554
48093SOL     OW46175   0.070   8.008   7.419
48093SOL    HW146176   0.107   8.061   7.490
48093SOL    HW246177  14.853   8.042   7.409
48094SOL     OW46178   3.051   7.022   4.441
48094SOL    HW146179   3.140   7.036   4.475
48094SOL    HW246180   3.025   6.937   4.474
48095SOL     OW46181  12.663   5.412   0.268
48095SOL    HW146182  12.705   5.361   0.337
48095SOL    HW246183  12.723   5.486   0.253
48096SOL     OW46184   0.811  13.008   5.962
48096SOL    HW146185   0.735  12.958   5.991
48096SOL    HW246186   0.886  12.961   6.000
48097SOL     OW46187  12.586   0.269  12.535
48097SOL    HW146188  12.587   0.231  12.447
48097SOL    HW246189  12.526   0.213  12.585
48098SOL     OW46190  12.559   9.036   4.231
48098SOL    HW146191  12.535   9.084   4.151
48098SOL    HW246192  12.535   8.945   4.212
48099SOL     OW46193  10.339  14.698   6.199
48099SOL    HW146194  10.287  14.755   6.255
48099SOL    HW246195  10.285  14.682   6.122
48100SOL     OW46196   9.891   2.078   6.302
48100SOL    HW146197   9.828   2.029   6.355
48100SOL    HW246198   9.891   2.166   6.340
48101SOL     OW46199   9.736   1.701  12.464
48101SOL    HW146200   9.662   1.641  12.467
48101SOL    HW246201   9.809   1.648  12.432
48102SOL     OW46202   5.500  11.933   8.798
48102SOL    HW146203   5.458  12.008   8.755
48102SOL    HW246204   5.430  11.868   8.806
48103SOL     OW46205  13.247  14.562  11.477
48103SOL    HW146206  13.295  14.499  11.423
48103SOL    HW246207  13.155  14.534  11.470
48104SOL     OW46208   9.912   0.319   0.627
48104SOL    HW146209   9.925   0.231   0.663
48104SOL    HW246210   9.964   0.376   0.684
48105SOL     OW46211  10.827  12.768  14.869
48105SOL    HW146212  10.855  12.823  14.796
48105SOL    HW246213  10.907  12.726   0.028
48106SOL     OW46214   5.545   2.967   4.159
48106SOL    HW146215   5.510   3.011   4.237
48106SOL    HW246216   5.626   2.927   4.188
48107SOL     OW46217   1.254   4.479  13.821
48107SOL    HW146218   1.201   4.417  13.871
48107SOL    HW246219   1.312   4.519  13.886
48108SOL     OW46220   6.746   2.792  14.698
48108SOL    HW146221   6.786   2.781  14.612
48108SOL    HW246222   6.708   2.880  14.695
48109SOL     OW46223   7.898  11.496  13.039
48109SOL    HW146224   7.813  11.469  13.074
48109SOL    HW246225   7.949  11.520  13.116
48110SOL     OW46226   0.612  13.343   1.641
48110SOL    HW146227   0.644  13.356   1.551
48110SOL    HW246228   0.555  13.266   1.635
48111SOL     OW46229   9.987   3.673   1.231
48111SOL    HW146230  10.010   3.757   1.192
48111SOL    HW246231  10.000   3.686   1.325
48112SOL     OW46232   8.638   7.899   0.600
48112SOL    HW146233   8.596   7.814   0.587
48112SOL    HW246234   8.717   7.879   0.651
48113SOL     OW46235   7.754   3.595  12.041
48113SOL    HW146236   7.658   3.591  12.035
48113SOL    HW246237   7.771   3.657  12.112
48114SOL     OW46238   9.682  11.967   2.561
48114SOL    HW146239   9.705  11.991   2.650
48114SOL    HW246240   9.712  12.040   2.507
48115SOL     OW46241  14.215   7.352   8.907
48115SOL    HW146242  14.133   7.376   8.864
48115SOL    HW246243  14.241   7.271   8.865
48116SOL     OW46244  10.351   3.935  12.791
48116SOL    HW146245  10.271   3.974  12.757
48116SOL    HW246246  10.343   3.942  12.886
48117SOL     OW46247  10.634   8.737   8.393
48117SOL    HW146248  10.678   8.734   8.478
48117SOL    HW246249  10.705   8.755   8.330
48118SOL     OW46250   4.433  13.579   0.522
48118SOL    HW146251   4.343  13.610   0.509
48118SOL    HW246252   4.461  13.622   0.603
48119SOL     OW46253   4.430   7.376   0.582
48119SOL    HW146254   4.447   7.427   0.661
48119SOL    HW246255   4.517   7.348   0.553
48120SOL     OW46256   4.108  13.307  14.610
48120SOL    HW146257   4.132  13.309  14.702
48120SOL    HW246258   4.022  13.350  14.607
48121SOL     OW46259   5.769   8.122  10.405
48121SOL    HW146260   5.857   8.086  10.396
48121SOL    HW246261   5.712   8.055  10.366
48122SOL     OW46262   1.877  10.788   5.579
48122SOL    HW146263   1.816  10.861   5.572
48122SOL    HW246264   1.904  10.788   5.671
48123SOL     OW46265   6.872  13.189   7.294
48123SOL    HW146266   6.816  13.234   7.358
48123SOL    HW246267   6.900  13.109   7.338
48124SOL     OW46268  13.609   7.517   4.023
48124SOL    HW146269  13.698   7.535   4.054
48124SOL    HW246270  13.575   7.603   3.997
48125SOL     OW46271   8.868   0.932   1.824
48125SOL    HW146272   8.898   1.018   1.793
48125SOL    HW246273   8.847   0.947   1.917
48126SOL     OW46274   2.253   3.157   4.776
48126SOL    HW146275   2.310   3.106   4.833
48126SOL    HW246276   2.312   3.201   4.716
48127SOL     OW46277  11.107   4.690   3.236
48127SOL    HW146278  11.071   4.742   3.308
48127SOL    HW246279  11.045   4.617   3.227
48128SOL     OW46280   9.976   0.039  10.766
48128SOL    HW146281  10.023   0.047  10.849
48128SOL    HW246282   9.890   0.004  10.791
48129SOL     OW46283   5.567   3.869   2.495
48129SOL    HW146284   5.576   3.955   2.537
48129SOL    HW246285   5.600   3.807   2.561
48130SOL     OW46286   6.368   4.884   9.157
48130SOL    HW146287   6.382   4.978   9.157
48130SOL    HW246288   6.456   4.847   9.147
48131SOL     OW46289  12.027   6.503  12.365
48131SOL    HW146290  12.077   6.488  12.445
48131SOL    HW246291  11.944   6.458  12.381
48132SOL     OW46292  12.435   2.880   1.935
48132SOL    HW146293  12.453   2.930   2.014
48132SOL    HW246294  12.438   2.789   1.963
48133SOL     OW46295  13.068   9.692   5.671
48133SOL    HW146296  13.064   9.736   5.586
48133SOL    HW246297  13.161   9.690   5.692
48134SOL     OW46298   2.691   4.069   5.499
48134SOL    HW146299   2.749   4.131   5.543
48134SOL    HW246300   2.639   4.032   5.570
48135SOL     OW46301   5.270   1.699   4.966
48135SOL    HW146302   5.193   1.682   4.912
48135SOL    HW246303   5.235   1.724   5.052
48136SOL     OW46304   2.079   9.110  14.443
48136SOL    HW146305   2.090   9.093  14.536
48136SOL    HW246306   2.023   9.188  14.439
48137SOL     OW46307   6.793   4.893  14.690
48137SOL    HW146308   6.749   4.809  14.698
48137SOL    HW246309   6.860   4.879  14.623
48138SOL     OW46310  14.791  11.340   0.440
48138SOL    HW146311  14.757  11.272   0.498
48138SOL    HW246312   0.011  11.349   0.466
48139SOL     OW46313   7.640   2.083  10.028
48139SOL    HW146314   7.671   1.995  10.008
48139SOL    HW246315   7.545   2.076  10.031
48140SOL     OW46316   5.632  11.286   8.195
48140SOL    HW146317   5.724  11.267   8.181
48140SOL    HW246318   5.606  11.229   8.267
48141SOL     OW46319   2.305   8.347  12.046
48141SOL    HW146320   2.217   8.351  12.009
48141SOL    HW246321   2.305   8.409  12.118
48142SOL     OW46322   4.153  13.967   7.688
48142SOL    HW146323   4.076  13.951   7.742
48142SOL    HW246324   4.136  13.920   7.607
48143SOL     OW46325   4.853   2.949  10.521
48143SOL    HW146326   4.775   2.893  10.525
48143SOL    HW246327   4.916   2.906  10.580
48144SOL     OW46328   9.098  14.120   9.238
48144SOL    HW146329   9.086  14.142   9.146
48144SOL    HW246330   9.119  14.203   9.281
48145SOL     OW46331   1.973  12.994   3.286
48145SOL    HW146332   1.891  13.034   3.257
48145SOL    HW246333   2.021  12.977   3.205
48146SOL     OW46334  11.320  13.740  13.289
48146SOL    HW146335  11.232  13.726  13.255
48146SOL    HW246336  11.375  13.745  13.211
48147SOL     OW46337   0.978   1.595  10.250
48147SOL    HW146338   0.922   1.657  10.202
48147SOL    HW246339   0.943   1.596  10.339
48148SOL     OW46340   9.590   7.084   1.703
48148SOL    HW146341   9.646   7.007   1.705
48148SOL    HW246342   9.503   7.052   1.727
48149SOL     OW46343   0.976  11.795   8.382
48149SOL    HW146344   0.958  11.859   8.452
48149SOL    HW246345   0.910  11.814   8.315
48150SOL     OW46346   6.356   1.300  11.066
48150SOL    HW146347   6.390   1.213  11.084
48150SOL    HW246348   6.364   1.347  11.149
48151SOL     OW46349  13.376   6.389   2.672
48151SOL    HW146350  13.385   6.326   2.601
48151SOL    HW246351  13.462   6.431   2.678
48152SOL     OW46352  13.182   7.017   6.403
48152SOL    HW146353  13.255   7.069   6.369
48152SOL    HW246354  13.223   6.941   6.444
48153SOL     OW46355   8.667  11.997   4.967
48153SOL    HW146356   8.747  12.050   4.966
48153SOL    HW246357   8.664  11.957   4.881
48154SOL     OW46358  11.498   7.816   0.058
48154SOL    HW146359  11.502   7.741  14.871
48154SOL    HW246360  11.567   7.875   0.028
48155SOL     OW46361  13.734   9.949   9.246
48155SOL    HW146362  13.681  10.014   9.199
48155SOL    HW246363  13.670   9.885   9.277
48156SOL     OW46364   8.375  10.931   7.851
48156SOL    HW146365   8.438  10.910   7.782
48156SOL    HW246366   8.389  11.024   7.870
48157SOL     OW46367  10.911   0.563  10.116
48157SOL    HW146368  10.823   0.603  10.116
48157SOL    HW246369  10.897   0.474  10.147
48158SOL     OW46370  12.886   5.878   6.807
48158SOL    HW146371  12.981   5.891   6.807
48158SOL    HW246372  12.873   5.791   6.846
48159SOL     OW46373   8.552  13.820   8.285
48159SOL    HW146374   8.556  13.908   8.324
48159SOL    HW246375   8.532  13.762   8.359
48160SOL     OW46376  12.220   3.676  14.809
48160SOL    HW146377  12.269   3.754  14.832
48160SOL    HW246378  12.227   3.671  14.713
48161SOL     OW46379   6.119   1.017   6.434
48161SOL    HW146380   6.078   1.010   6.347
48161SOL    HW246381   6.211   1.033   6.415
48162SOL     OW46382   5.705   0.488   3.072
48162SOL    HW146383   5.735   0.578   3.064
48162SOL    HW246384   5.610   0.495   3.085
48163SOL     OW46385  10.498   9.105   9.889
48163SOL    HW146386  10.565   9.042   9.864
48163SOL    HW246387  10.474   9.080   9.978
48164SOL     OW46388   5.432  12.383   3.546
48164SOL    HW146389   5.346  12.347   3.528
48164SOL    HW246390   5.439  12.384   3.641
48165SOL     OW46391   1.762  12.727   9.677
48165SOL    HW146392   1.771  12.696   9.767
48165SOL    HW246393   1.850  12.754   9.652
48166SOL     OW46394   7.888   1.930   5.210
48166SOL    HW146395   7.873   1.854   5.267
48166SOL    HW246396   7.972   1.912   5.168
48167SOL     OW46397   8.899   8.264   2.793
48167SOL    HW146398   8.837   8.232   2.727
48167SOL    HW246399   8.920   8.187   2.846
48168SOL     OW46400   8.177   0.885   7.622
48168SOL    HW146401   8.226   0.803   7.633
48168SOL    HW246402   8.200   0.938   7.698
48169SOL     OW46403   6.788   0.418   7.386
48169SOL    HW146404   6.759   0.439   7.297
48169SOL    HW246405   6.851   0.488   7.408
48170SOL     OW46406  14.640   8.001   4.342
48170SOL    HW146407  14.605   7.959   4.420
48170SOL    HW246408  14.665   7.928   4.285
48171SOL     OW46409  12.382   8.447  10.431
48171SOL    HW146410  12.314   8.383  10.415
48171SOL    HW246411  12.358   8.522  10.377
48172SOL     OW46412   9.442  10.360  11.155
48172SOL    HW146413   9.448  10.391  11.245
48172SOL    HW246414   9.449  10.265  11.162
48173SOL     OW46415  14.313   6.796   9.642
48173SOL    HW146416  14.266   6.872   9.608
48173SOL    HW246417  14.359   6.829   9.719
48174SOL     OW46418   6.796  14.432  13.759
48174SOL    HW146419   6.853  14.357  13.776
48174SOL    HW246420   6.758  14.414  13.673
48175SOL     OW46421  13.266   1.438   1.738
48175SOL    HW146422  13.327   1.368   1.760
48175SOL    HW246423  13.322   1.510   1.708
48176SOL     OW46424  11.076   9.762  10.237
48176SOL    HW146425  11.097   9.820  10.309
48176SOL    HW246426  10.993   9.720  10.262
48177SOL     OW46427   3.514   0.962  13.380
48177SOL    HW146428   3.544   0.912  13.304
48177SOL    HW246429   3.470   1.038  13.342
48178SOL     OW46430  11.981  11.119  10.989
48178SOL    HW146431  12.042  11.081  11.052
48178SOL    HW246432  11.946  11.196  11.032
48179SOL     OW46433   5.620   0.270   0.881
48179SOL    HW146434   5.625   0.261   0.977
48179SOL    HW246435   5.637   0.181   0.848
48180SOL     OW46436  13.942  14.650  13.425
48180SOL    HW146437  13.992  14.576  13.460
48180SOL    HW246438  14.006  14.722  13.419
48181SOL     OW46439   7.497   7.422  12.627
48181SOL    HW146440   7.454   7.483  12.687
48181SOL    HW246441   7.558   7.373  12.682
48182SOL     OW46442  10.173  12.641   5.369
48182SOL    HW146443  10.164  12.673   5.459
48182SOL    HW246444  10.230  12.564   5.376
48183SOL     OW46445   6.235  11.679  13.425
48183SOL    HW146446   6.303  11.645  13.367
48183SOL    HW246447   6.283  11.727  13.493
48184SOL     OW46448  10.335   8.272  12.697
48184SOL    HW146449  10.430   8.271  12.709
48184SOL    HW246450  10.301   8.317  12.774
48185SOL     OW46451   4.945  11.269  12.914
48185SOL    HW146452   4.958  11.277  12.820
48185SOL    HW246453   4.854  11.241  12.923
48186SOL     OW46454  11.136   6.509   9.560
48186SOL    HW146455  11.109   6.599   9.578
48186SOL    HW246456  11.067   6.473   9.505
48187SOL     OW46457  10.187   8.669   2.317
48187SOL    HW146458  10.142   8.737   2.266
48187SOL    HW246459  10.199   8.596   2.256
48188SOL     OW46460   9.527  14.405   7.781
48188SOL    HW146461   9.554  14.324   7.822
48188SOL    HW246462   9.602  14.464   7.792
48189SOL     OW46463   5.771   8.391  13.407
48189SOL    HW146464   5.763   8.482  13.380
48189SOL    HW246465   5.844   8.391  13.469
48190SOL     OW46466   5.736  12.045   8.679
48190SOL    HW146467   5.821  12.017   8.715
48190SOL    HW246468   5.672  12.006   8.738
48191SOL     OW46469  12.584  13.208  13.513
48191SOL    HW146470  12.620  13.143  13.453
48191SOL    HW246471  12.642  13.205  13.589
48192SOL     OW46472   0.428   1.985  10.540
48192SOL    HW146473   0.485   2.031  10.603
48192SOL    HW246474   0.478   1.908  10.515
48193SOL     OW46475  14.772  13.726   1.169
48193SOL    HW146476  14.805  13.808   1.205
48193SOL    HW246477  14.826  13.711   1.091
48194SOL     OW46478   1.814   7.416   6.682
48194SOL    HW146479   1.869   7.486   6.646
48194SOL    HW246480   1.876   7.354   6.721
48195SOL     OW46481   2.121   3.437  11.499
48195SOL    HW146482   2.189   3.376  11.469
48195SOL    HW246483   2.121   3.427  11.594
48196SOL     OW46484  11.369  11.665  10.614
48196SOL    HW146485  11.328  11.709  10.688
48196SOL    HW246486  11.445  11.719  10.592
48197SOL     OW46487  13.524   8.473   2.653
48197SOL    HW146488  13.551   8.552   2.700
48197SOL    HW246489  13.464   8.504   2.585
48198SOL     OW46490   3.748   2.205   5.497
48198SOL    HW146491   3.699   2.156   5.563
48198SOL    HW246492   3.790   2.276   5.547
48199SOL     OW46493  10.429  11.939   1.722
48199SOL    HW146494  10.349  11.958   1.771
48199SOL    HW246495  10.425  11.998   1.646
48200SOL     OW46496   3.987  12.010  11.657
48200SOL    HW146497   4.005  11.947  11.726
48200SOL    HW246498   4.035  11.976  11.581
48201SOL     OW46499  12.959  11.872   4.538
48201SOL    HW146500  12.930  11.963   4.532
48201SOL    HW246501  13.053  11.875   4.519
48202SOL     OW46502  13.547  11.387   9.083
48202SOL    HW146503  13.604  11.435   9.143
48202SOL    HW246504  13.566  11.426   8.997
48203SOL     OW46505   6.554   2.109  14.684
48203SOL    HW146506   6.537   2.199  14.710
48203SOL    HW246507   6.470   2.065  14.693
48204SOL     OW46508   4.807  10.462  13.518
48204SOL    HW146509   4.788  10.537  13.462
48204SOL    HW246510   4.721  10.422  13.534
48205SOL     OW46511  10.518   5.037   7.542
48205SOL    HW146512  10.525   4.944   7.561
48205SOL    HW246513  10.519   5.042   7.446
48206SOL     OW46514   2.722  12.232   7.165
48206SOL    HW146515   2.710  12.249   7.071
48206SOL    HW246516   2.764  12.312   7.198
48207SOL     OW46517   8.753   7.391   2.470
48207SOL    HW146518   8.731   7.312   2.420
48207SOL    HW246519   8.830   7.426   2.426
48208SOL     OW46520  12.515  13.922   7.365
48208SOL    HW146521  12.433  13.891   7.327
48208SOL    HW246522  12.515  14.016   7.350
48209SOL     OW46523  13.185   1.249   7.825
48209SOL    HW146524  13.102   1.276   7.786
48209SOL    HW246525  13.183   1.153   7.822
48210SOL     OW46526   8.878   1.398   1.111
48210SOL    HW146527   8.930   1.338   1.164
48210SOL    HW246528   8.851   1.345   1.035
48211SOL     OW46529  12.435  11.445   4.055
48211SOL    HW146530  12.404  11.499   4.128
48211SOL    HW246531  12.355  11.413   4.014
48212SOL     OW46532   5.878  12.159  11.075
48212SOL    HW146533   5.810  12.226  11.068
48212SOL    HW246534   5.848  12.102  11.146
48213SOL     OW46535   2.753   3.701   2.376
48213SOL    HW146536   2.821   3.703   2.308
48213SOL    HW246537   2.680   3.749   2.337
48214SOL     OW46538  11.520   1.922   0.797
48214SOL    HW146539  11.533   1.910   0.891
48214SOL    HW246540  11.565   2.004   0.776
48215SOL     OW46541   0.110  14.757  11.445
48215SOL    HW146542   0.168  14.830  11.421
48215SOL    HW246543   0.053  14.745  11.369
48216SOL     OW46544   7.883  12.701   7.897
48216SOL    HW146545   7.898  12.632   7.962
48216SOL    HW246546   7.950  12.767   7.917
48217SOL     OW46547   3.472   5.434   0.627
48217SOL    HW146548   3.403   5.389   0.675
48217SOL    HW246549   3.510   5.367   0.571
48218SOL     OW46550   4.852  13.127   6.676
48218SOL    HW146551   4.845  13.119   6.581
48218SOL    HW246552   4.762  13.137   6.706
48219SOL     OW46553   9.924  12.529   6.225
48219SOL    HW146554   9.914  12.476   6.146
48219SOL    HW246555  10.015  12.515   6.252
48220SOL     OW46556   5.178  13.393   0.540
48220SOL    HW146557   5.148  13.319   0.593
48220SOL    HW246558   5.166  13.364   0.449
48221SOL     OW46559  13.271  13.940   5.019
48221SOL    HW146560  13.212  13.944   5.094
48221SOL    HW246561  13.212  13.944   4.943
48222SOL     OW46562   1.071   3.620   3.480
48222SOL    HW146563   1.132   3.548   3.465
48222SOL    HW246564   1.083   3.643   3.572
48223SOL     OW46565   0.617  12.635   7.565
48223SOL    HW146566   0.646  12.725   7.554
48223SOL    HW246567   0.698  12.586   7.578
48224SOL     OW46568  12.399   8.284   1.257
48224SOL    HW146569  12.367   8.321   1.175
48224SOL    HW246570  12.470   8.342   1.284
48225SOL     OW46571   7.601   5.559  10.840
48225SOL    HW146572   7.533   5.569  10.906
48225SOL    HW246573   7.646   5.644  10.838
48226SOL     OW46574   1.132   7.546  13.406
48226SOL    HW146575   1.144   7.453  13.390
48226SOL    HW246576   1.168   7.589  13.328
48227SOL     OW46577   2.625   0.651   9.939
48227SOL    HW146578   2.637   0.746   9.940
48227SOL    HW246579   2.705   0.617   9.978
48228SOL     OW46580   5.981   8.118   1.982
48228SOL    HW146581   5.927   8.193   2.008
48228SOL    HW246582   6.017   8.085   2.064
48229SOL     OW46583  10.699  14.041  13.991
48229SOL    HW146584  10.622  14.060  14.045
48229SOL    HW246585  10.682  14.085  13.908
48230SOL     OW46586   0.503   6.421  14.586
48230SOL    HW146587   0.472   6.435  14.496
48230SOL    HW246588   0.469   6.335  14.610
48231SOL     OW46589  10.388   6.051  10.397
48231SOL    HW146590  10.474   6.089  10.380
48231SOL    HW246591  10.396   5.960  10.367
48232SOL     OW46592   8.403   5.488   2.692
48232SOL    HW146593   8.442   5.567   2.653
48232SOL    HW246594   8.321   5.519   2.731
48233SOL     OW46595   1.766   8.617   8.290
48233SOL    HW146596   1.686   8.591   8.336
48233SOL    HW246597   1.807   8.534   8.265
48234SOL     OW46598   1.154   5.795   5.305
48234SOL    HW146599   1.160   5.880   5.263
48234SOL    HW246600   1.127   5.735   5.236
48235SOL     OW46601   4.559   5.093   4.208
48235SOL    HW146602   4.509   5.170   4.237
48235SOL    HW246603   4.617   5.072   4.281
48236SOL     OW46604   8.474   9.227   4.196
48236SOL    HW146605   8.399   9.271   4.156
48236SOL    HW246606   8.437   9.172   4.264
48237SOL     OW46607   2.919  13.498   9.875
48237SOL    HW146608   2.839  13.496   9.929
48237SOL    HW246609   2.989  13.516   9.937
48238SOL     OW46610  10.749   7.272   7.943
48238SOL    HW146611  10.813   7.290   8.012
48238SOL    HW246612  10.774   7.187   7.908
48239SOL     OW46613   4.632  12.469  12.994
48239SOL    HW146614   4.629  12.377  12.971
48239SOL    HW246615   4.541  12.491  13.015
48240SOL     OW46616  10.079  12.023   5.016
48240SOL    HW146617  10.145  12.019   5.085
48240SOL    HW246618  10.119  11.976   4.942
48241SOL     OW46619  10.171   0.266  10.724
48241SOL    HW146620  10.106   0.219  10.776
48241SOL    HW246621  10.129   0.278  10.639
48242SOL     OW46622  14.783   6.412  12.756
48242SOL    HW146623  14.701   6.461  12.753
48242SOL    HW246624  14.788   6.368  12.671
48243SOL     OW46625   2.671   3.282  10.348
48243SOL    HW146626   2.695   3.374  10.354
48243SOL    HW246627   2.611   3.268  10.422
48244SOL     OW46628  13.483  14.710   1.509
48244SOL    HW146629  13.430  14.638   1.474
48244SOL    HW246630  13.440  14.735   1.591
48245SOL     OW46631   0.658   4.947   0.001
48245SOL    HW146632   0.617   5.018   0.051
48245SOL    HW246633   0.745   4.936   0.040
48246SOL     OW46634   0.892   6.788   4.639
48246SOL    HW146635   0.829   6.818   4.704
48246SOL    HW246636   0.908   6.696   4.661
48247SOL     OW46637   7.653   0.647   4.216
48247SOL    HW146638   7.604   0.726   4.198
48247SOL    HW246639   7.722   0.674   4.277
48248SOL     OW46640  11.254   2.991   4.175
48248SOL    HW146641  11.342   2.991   4.138
48248SOL    HW246642  11.265   2.957   4.264
48249SOL     OW46643  14.490   5.663  13.388
48249SOL    HW146644  14.544   5.586  13.401
48249SOL    HW246645  14.548   5.737  13.410
48250SOL     OW46646   2.129  13.704   7.938
48250SOL    HW146647   2.117  13.659   8.022
48250SOL    HW246648   2.087  13.647   7.874
48251SOL     OW46649  12.867   6.148   3.684
48251SOL    HW146650  12.916   6.203   3.746
48251SOL    HW246651  12.931   6.084   3.653
48252SOL     OW46652  11.384   6.806   1.226
48252SOL    HW146653  11.444   6.833   1.157
48252SOL    HW246654  11.432   6.820   1.307
48253SOL     OW46655   5.356  12.490   6.817
48253SOL    HW146656   5.416  12.564   6.811
48253SOL    HW246657   5.330  12.486   6.909
48254SOL     OW46658  14.739   9.124  13.999
48254SOL    HW146659  14.799   9.145  13.928
48254SOL    HW246660  14.671   9.070  13.959
48255SOL     OW46661   7.909   4.935   9.960
48255SOL    HW146662   7.966   4.868   9.923
48255SOL    HW246663   7.899   4.909  10.052
48256SOL     OW46664   3.104   6.402  10.557
48256SOL    HW146665   3.101   6.315  10.596
48256SOL    HW246666   3.090   6.462  10.630
48257SOL     OW46667   4.097  11.156   1.334
48257SOL    HW146668   4.021  11.099   1.345
48257SOL    HW246669   4.112  11.156   1.239
48258SOL     OW46670   8.127  11.339   1.214
48258SOL    HW146671   8.133  11.382   1.300
48258SOL    HW246672   8.184  11.391   1.157
48259SOL     OW46673   7.069   0.257   5.844
48259SOL    HW146674   7.023   0.188   5.796
48259SOL    HW246675   7.137   0.287   5.785
48260SOL     OW46676   9.497   8.667  12.779
48260SOL    HW146677   9.486   8.756  12.745
48260SOL    HW246678   9.408   8.635  12.791
48261SOL     OW46679  11.591   6.005  12.443
48261SOL    HW146680  11.668   5.949  12.452
48261SOL    HW246681  11.521   5.946  12.416
48262SOL     OW46682   5.766   3.575   5.030
48262SOL    HW146683   5.763   3.505   4.964
48262SOL    HW246684   5.715   3.541   5.103
48263SOL     OW46685  13.858  11.599  10.087
48263SOL    HW146686  13.883  11.669  10.027
48263SOL    HW246687  13.911  11.614  10.165
48264SOL     OW46688   9.312   6.403   9.809
48264SOL    HW146689   9.253   6.463   9.855
48264SOL    HW246690   9.366   6.366   9.878
48265SOL     OW46691  11.986  10.933   3.176
48265SOL    HW146692  11.894  10.952   3.197
48265SOL    HW246693  12.020  10.891   3.254
48266SOL     OW46694   3.527   9.478   0.495
48266SOL    HW146695   3.539   9.385   0.480
48266SOL    HW246696   3.614   9.511   0.516
48267SOL     OW46697   0.459   6.140   3.877
48267SOL    HW146698   0.550   6.158   3.900
48267SOL    HW246699   0.460   6.128   3.782
48268SOL     OW46700  14.336   1.295   6.540
48268SOL    HW146701  14.256   1.292   6.488
48268SOL    HW246702  14.309   1.270   6.628
48269SOL     OW46703   0.468   2.746   7.711
48269SOL    HW146704   0.438   2.698   7.634
48269SOL    HW246705   0.484   2.679   7.777
48270SOL     OW46706   1.531   5.111   4.514
48270SOL    HW146707   1.460   5.147   4.566
48270SOL    HW246708   1.606   5.107   4.574
48271SOL     OW46709   3.754   7.134   4.924
48271SOL    HW146710   3.729   7.203   4.986
48271SOL    HW246711   3.775   7.059   4.979
48272SOL     OW46712   9.838   2.818   6.026
48272SOL    HW146713   9.889   2.865   5.959
48272SOL    HW246714   9.778   2.883   6.061
48273SOL     OW46715  12.216  13.075   6.754
48273SOL    HW146716  12.209  13.163   6.717
48273SOL    HW246717  12.226  13.090   6.848
48274SOL     OW46718   5.730   4.640  11.973
48274SOL    HW146719   5.770   4.688  11.902
48274SOL    HW246720   5.753   4.690  12.052
48275SOL     OW46721   3.023  13.164  13.082
48275SOL    HW146722   2.979  13.146  13.165
48275SOL    HW246723   3.085  13.091  13.072
48276SOL     OW46724   2.520   7.183   8.199
48276SOL    HW146725   2.612   7.198   8.175
48276SOL    HW246726   2.498   7.100   8.157
48277SOL     OW46727  13.450   4.159   5.484
48277SOL    HW146728  13.446   4.210   5.565
48277SOL    HW246729  13.374   4.100   5.489
48278SOL     OW46730  13.957  11.789   2.576
48278SOL    HW146731  13.876  11.739   2.566
48278SOL    HW246732  13.928  11.876   2.602
48279SOL     OW46733   4.188   6.687  13.901
48279SOL    HW146734   4.110   6.693  13.956
48279SOL    HW246735   4.177   6.756  13.836
48280SOL     OW46736   6.333  14.425   7.581
48280SOL    HW146737   6.275  14.474   7.639
48280SOL    HW246738   6.418  14.469   7.589
48281SOL     OW46739  12.039   3.997   4.437
48281SOL    HW146740  12.078   4.077   4.401
48281SOL    HW246741  12.101   3.928   4.414
48282SOL     OW46742   8.917   9.299   6.642
48282SOL    HW146743   8.849   9.270   6.582
48282SOL    HW246744   8.870   9.348   6.710
48283SOL     OW46745   1.697  13.613  11.229
48283SOL    HW146746   1.656  13.690  11.189
48283SOL    HW246747   1.623  13.559  11.257
48284SOL     OW46748   5.505   1.874  10.657
48284SOL    HW146749   5.598   1.851  10.664
48284SOL    HW246750   5.497   1.917  10.572
48285SOL     OW46751   8.220  14.276   4.322
48285SOL    HW146752   8.146  14.224   4.355
48285SOL    HW246753   8.192  14.307   4.236
48286SOL     OW46754   7.782   0.994  14.653
48286SOL    HW146755   7.801   0.961  14.565
48286SOL    HW246756   7.854   0.960  14.707
48287SOL     OW46757   5.936   0.508   6.494
48287SOL    HW146758   5.943   0.416   6.519
48287SOL    HW246759   5.890   0.507   6.410
48288SOL     OW46760   9.854   4.316   8.113
48288SOL    HW146761   9.931   4.342   8.063
48288SOL    HW246762   9.784   4.373   8.082
48289SOL     OW46763   3.305  12.462  12.543
48289SOL    HW146764   3.397  12.455  12.518
48289SOL    HW246765   3.258  12.426  12.468
48290SOL     OW46766   6.107   3.017   9.909
48290SOL    HW146767   6.183   2.962   9.888
48290SOL    HW246768   6.129   3.103   9.873
48291SOL     OW46769  12.055   1.597  11.963
48291SOL    HW146770  12.091   1.513  11.992
48291SOL    HW246771  12.129   1.644  11.927
48292SOL     OW46772   4.848   6.693  10.887
48292SOL    HW146773   4.779   6.698  10.820
48292SOL    HW246774   4.927   6.722  10.843
48293SOL     OW46775   0.562   6.098  10.767
48293SOL    HW146776   0.489   6.081  10.827
48293SOL    HW246777   0.555   6.030  10.701
48294SOL     OW46778   5.784  12.931  13.229
48294SOL    HW146779   5.786  13.025  13.213
48294SOL    HW246780   5.705  12.917  13.281
48295SOL     OW46781   9.334   5.784   1.147
48295SOL    HW146782   9.397   5.722   1.183
48295SOL    HW246783   9.382   5.832   1.080
48296SOL     OW46784   2.564  12.095  12.293
48296SOL    HW146785   2.566  12.022  12.232
48296SOL    HW246786   2.548  12.172  12.239
48297SOL     OW46787   0.857   4.476   9.853
48297SOL    HW146788   0.768   4.484   9.889
48297SOL    HW246789   0.914   4.486   9.928
48298SOL     OW46790   4.668   6.592   9.429
48298SOL    HW146791   4.737   6.626   9.373
48298SOL    HW246792   4.681   6.636   9.513
48299SOL     OW46793  10.371   6.401  11.530
48299SOL    HW146794  10.304   6.395  11.461
48299SOL    HW246795  10.346   6.335  11.594
48300SOL     OW46796   2.863   1.604  11.043
48300SOL    HW146797   2.784   1.558  11.071
48300SOL    HW246798   2.892   1.653  11.120
48301SOL     OW46799   0.490   4.271   1.082
48301SOL    HW146800   0.484   4.365   1.100
48301SOL    HW246801   0.399   4.242   1.079
48302SOL     OW46802   3.420  12.270   9.096
48302SOL    HW146803   3.403  12.202   9.032
48302SOL    HW246804   3.350  12.335   9.082
48303SOL     OW46805   8.843  12.653   8.644
48303SOL    HW146806   8.859  12.603   8.724
48303SOL    HW246807   8.922  12.706   8.633
48304SOL     OW46808   1.476   4.335   5.281
48304SOL    HW146809   1.435   4.329   5.194
48304SOL    HW246810   1.569   4.318   5.264
48305SOL     OW46811   8.282   8.126   3.553
48305SOL    HW146812   8.297   8.072   3.475
48305SOL    HW246813   8.332   8.206   3.536
48306SOL     OW46814   8.263   2.940   6.019
48306SOL    HW146815   8.346   2.934   6.066
48306SOL    HW246816   8.200   2.891   6.073
48307SOL     OW46817   5.143  14.197   3.938
48307SOL    HW146818   5.160  14.111   3.975
48307SOL    HW246819   5.095  14.179   3.857
48308SOL     OW46820  14.382   0.791   6.240
48308SOL    HW146821  14.440   0.862   6.267
48308SOL    HW246822  14.434   0.737   6.182
48309SOL     OW46823   7.767  11.291  13.210
48309SOL    HW146824   7.706  11.232  13.254
48309SOL    HW246825   7.738  11.378  13.235
48310SOL     OW46826  13.251  10.078   5.033
48310SOL    HW146827  13.229  10.115   5.118
48310SOL    HW246828  13.325  10.019   5.050
48311SOL     OW46829   7.393  12.522   2.348
48311SOL    HW146830   7.418  12.441   2.304
48311SOL    HW246831   7.422  12.592   2.289
48312SOL     OW46832   9.126   5.122   5.295
48312SOL    HW146833   9.144   5.176   5.218
48312SOL    HW246834   9.030   5.118   5.300
48313SOL     OW46835   8.200  14.534   9.163
48313SOL    HW146836   8.125  14.570   9.114
48313SOL    HW246837   8.272  14.535   9.100
48314SOL     OW46838   8.169   7.326  12.457
48314SOL    HW146839   8.205   7.412  12.482
48314SOL    HW246840   8.213   7.264  12.516
48315SOL     OW46841   1.780   5.706   3.022
48315SOL    HW146842   1.814   5.794   3.009
48315SOL    HW246843   1.838   5.649   2.972
48316SOL     OW46844   1.609  12.997  12.013
48316SOL    HW146845   1.515  13.013  12.023
48316SOL    HW246846   1.615  12.924  11.952
48317SOL     OW46847   6.212   3.806  12.234
48317SOL    HW146848   6.143   3.872  12.224
48317SOL    HW246849   6.180   3.748  12.302
48318SOL     OW46850  12.018   7.818   7.169
48318SOL    HW146851  12.068   7.737   7.176
48318SOL    HW246852  11.927   7.792   7.186
48319SOL     OW46853   1.117   2.810   0.824
48319SOL    HW146854   1.128   2.740   0.759
48319SOL    HW246855   1.024   2.810   0.844
48320SOL     OW46856   3.266   4.589  12.159
48320SOL    HW146857   3.309   4.598  12.244
48320SOL    HW246858   3.337   4.575  12.097
48321SOL     OW46859   0.851   0.687   2.198
48321SOL    HW146860   0.777   0.737   2.234
48321SOL    HW246861   0.857   0.715   2.107
48322SOL     OW46862   3.398   7.712   2.277
48322SOL    HW146863   3.368   7.672   2.359
48322SOL    HW246864   3.330   7.691   2.213
48323SOL     OW46865  13.872   5.710  11.039
48323SOL    HW146866  13.864   5.679  10.949
48323SOL    HW246867  13.821   5.792  11.040
48324SOL     OW46868  10.888  11.415   0.796
48324SOL    HW146869  10.876  11.382   0.885
48324SOL    HW246870  10.800  11.414   0.758
48325SOL     OW46871  11.192   9.552   0.213
48325SOL    HW146872  11.285   9.546   0.195
48325SOL    HW246873  11.149   9.540   0.128
48326SOL     OW46874  10.303   3.925  11.695
48326SOL    HW146875  10.219   3.966  11.676
48326SOL    HW246876  10.359   3.998  11.723
48327SOL     OW46877   2.896   8.179   4.966
48327SOL    HW146878   2.892   8.264   5.009
48327SOL    HW246879   2.960   8.129   5.018
48328SOL     OW46880   1.451  12.557   3.644
48328SOL    HW146881   1.460  12.559   3.739
48328SOL    HW246882   1.371  12.607   3.626
48329SOL     OW46883  12.895  13.214   4.659
48329SOL    HW146884  12.804  13.186   4.651
48329SOL    HW246885  12.941  13.139   4.696
48330SOL     OW46886   7.755   6.115  14.003
48330SOL    HW146887   7.780   6.104  14.094
48330SOL    HW246888   7.823   6.068  13.954
48331SOL     OW46889   9.750   0.135   4.001
48331SOL    HW146890   9.748   0.076   4.076
48331SOL    HW246891   9.713   0.083   3.929
48332SOL     OW46892   3.310   7.303   2.890
48332SOL    HW146893   3.236   7.299   2.830
48332SOL    HW246894   3.273   7.335   2.972
48333SOL     OW46895  11.672   5.364  11.245
48333SOL    HW146896  11.651   5.386  11.336
48333SOL    HW246897  11.590   5.332  11.208
48334SOL     OW46898   4.165   5.963   1.883
48334SOL    HW146899   4.078   5.964   1.923
48334SOL    HW246900   4.157   5.897   1.814
48335SOL     OW46901   6.715   5.520  11.704
48335SOL    HW146902   6.722   5.445  11.644
48335SOL    HW246903   6.621   5.531  11.719
48336SOL     OW46904  13.208   6.780  13.639
48336SOL    HW146905  13.250   6.865  13.630
48336SOL    HW246906  13.269   6.728  13.692
48337SOL     OW46907   0.527   9.854  10.279
48337SOL    HW146908   0.461   9.867  10.347
48337SOL    HW246909   0.573   9.938  10.274
48338SOL     OW46910   9.193   3.060   3.199
48338SOL    HW146911   9.284   3.088   3.210
48338SOL    HW246912   9.140   3.136   3.223
48339SOL     OW46913   5.543   4.666   3.690
48339SOL    HW146914   5.527   4.627   3.776
48339SOL    HW246915   5.626   4.629   3.662
48340SOL     OW46916  12.746  13.446  10.314
48340SOL    HW146917  12.769  13.440  10.221
48340SOL    HW246918  12.747  13.539  10.333
48341SOL     OW46919  11.300   2.774   6.008
48341SOL    HW146920  11.358   2.746   6.079
48341SOL    HW246921  11.244   2.840   6.048
48342SOL     OW46922   1.521   1.109   3.783
48342SOL    HW146923   1.530   1.201   3.809
48342SOL    HW246924   1.454   1.074   3.842
48343SOL     OW46925   4.401  10.376   1.670
48343SOL    HW146926   4.350  10.300   1.697
48343SOL    HW246927   4.468  10.386   1.738
48344SOL     OW46928  10.864   1.796  13.269
48344SOL    HW146929  10.913   1.731  13.321
48344SOL    HW246930  10.818   1.743  13.203
48345SOL     OW46931   1.799   2.514   5.708
48345SOL    HW146932   1.868   2.458   5.672
48345SOL    HW246933   1.761   2.463   5.780
48346SOL     OW46934   1.426  11.357   4.270
48346SOL    HW146935   1.468  11.407   4.200
48346SOL    HW246936   1.490  11.357   4.341
48347SOL     OW46937   1.719  12.197   7.168
48347SOL    HW146938   1.639  12.247   7.183
48347SOL    HW246939   1.786  12.263   7.153
48348SOL     OW46940  12.647  14.773   6.205
48348SOL    HW146941  12.741  14.760   6.192
48348SOL    HW246942  12.607  14.696   6.165
48349SOL     OW46943   5.962   0.254   9.965
48349SOL    HW146944   5.941   0.207   9.884
48349SOL    HW246945   6.046   0.216   9.993
48350SOL     OW46946   8.336   6.356   5.794
48350SOL    HW146947   8.348   6.371   5.700
48350SOL    HW246948   8.316   6.263   5.801
48351SOL     OW46949   2.413   7.412   8.596
48351SOL    HW146950   2.401   7.449   8.508
48351SOL    HW246951   2.367   7.329   8.593
48352SOL     OW46952  11.415   4.410   3.046
48352SOL    HW146953  11.406   4.320   3.014
48352SOL    HW246954  11.411   4.464   2.966
48353SOL     OW46955  14.729   4.356   0.941
48353SOL    HW146956  14.741   4.444   0.905
48353SOL    HW246957  14.817   4.317   0.936
48354SOL     OW46958   8.370   1.767   3.333
48354SOL    HW146959   8.453   1.719   3.336
48354SOL    HW246960   8.377   1.831   3.404
48355SOL     OW46961   3.853   2.123   9.944
48355SOL    HW146962   3.792   2.152   9.876
48355SOL    HW246963   3.895   2.203   9.974
48356SOL     OW46964   7.230   9.908   5.906
48356SOL    HW146965   7.223   9.831   5.850
48356SOL    HW246966   7.140   9.941   5.912
48357SOL     OW46967   7.780  13.840  10.956
48357SOL    HW146968   7.871  13.843  10.926
48357SOL    HW246969   7.771  13.916  11.014
48358SOL     OW46970  11.143  10.733   1.417
48358SOL    HW146971  11.168  10.705   1.505
48358SOL    HW246972  11.073  10.673   1.392
48359SOL     OW46973   4.225   2.107   6.414
48359SOL    HW146974   4.177   2.094   6.332
48359SOL    HW246975   4.297   2.044   6.411
48360SOL     OW46976  10.516   9.605   7.322
48360SOL    HW146977  10.592   9.576   7.374
48360SOL    HW246978  10.458   9.647   7.386
48361SOL     OW46979   0.815   4.760   3.505
48361SOL    HW146980   0.755   4.705   3.555
48361SOL    HW246981   0.767   4.783   3.426
48362SOL     OW46982   8.330   8.041  12.071
48362SOL    HW146983   8.326   8.041  12.167
48362SOL    HW246984   8.271   8.111  12.045
48363SOL     OW46985   8.485   0.296   7.669
48363SOL    HW146986   8.417   0.230   7.676
48363SOL    HW246987   8.489   0.334   7.757
48364SOL     OW46988   6.216   9.837  12.874
48364SOL    HW146989   6.245   9.753  12.840
48364SOL    HW246990   6.142   9.862  12.819
48365SOL     OW46991  11.088   2.338  14.574
48365SOL    HW146992  11.067   2.369  14.486
48365SOL    HW246993  11.014   2.283  14.599
48366SOL     OW46994  11.746   2.296   2.259
48366SOL    HW146995  11.652   2.297   2.239
48366SOL    HW246996  11.755   2.356   2.333
48367SOL     OW46997   5.613   4.917   5.642
48367SOL    HW146998   5.585   4.837   5.688
48367SOL    HW246999   5.593   4.900   5.550
48368SOL     OW47000   6.107   9.375   6.405
48368SOL    HW147001   6.081   9.365   6.497
48368SOL    HW247002   6.070   9.299   6.361
48369SOL     OW47003   1.204   7.084   3.688
48369SOL    HW147004   1.129   7.136   3.716
48369SOL    HW247005   1.180   6.993   3.709
48370SOL     OW47006  10.103  10.459   1.870
48370SOL    HW147007  10.071  10.497   1.952
48370SOL    HW247008  10.198  10.450   1.883
48371SOL     OW47009   9.679   7.167   7.719
48371SOL    HW147010   9.677   7.092   7.778
48371SOL    HW247011   9.728   7.136   7.642
48372SOL     OW47012  12.558  12.155   6.286
48372SOL    HW147013  12.611  12.210   6.229
48372SOL    HW247014  12.605  12.155   6.369
48373SOL     OW47015   0.221   6.669   1.976
48373SOL    HW147016   0.270   6.703   1.901
48373SOL    HW247017   0.252   6.720   2.050
48374SOL     OW47018  13.608   7.314   0.461
48374SOL    HW147019  13.555   7.270   0.527
48374SOL    HW247020  13.678   7.355   0.510
48375SOL     OW47021  14.664   5.493   1.750
48375SOL    HW147022  14.589   5.534   1.707
48375SOL    HW247023  14.626   5.421   1.801
48376SOL     OW47024  10.704   6.688   2.143
48376SOL    HW147025  10.789   6.658   2.176
48376SOL    HW247026  10.677   6.757   2.204
48377SOL     OW47027   3.880  11.133   6.600
48377SOL    HW147028   3.839  11.152   6.684
48377SOL    HW247029   3.970  11.109   6.622
48378SOL     OW47030   4.199   0.283  13.654
48378SOL    HW147031   4.283   0.311  13.691
48378SOL    HW247032   4.152   0.244  13.728
48379SOL     OW47033   1.216   0.608   1.277
48379SOL    HW147034   1.140   0.555   1.303
48379SOL    HW247035   1.268   0.615   1.357
48380SOL     OW47036  11.240   0.954   2.954
48380SOL    HW147037  11.303   0.998   2.897
48380SOL    HW247038  11.157   0.958   2.905
48381SOL     OW47039   7.802   5.933  13.681
48381SOL    HW147040   7.721   5.889  13.706
48381SOL    HW247041   7.788   5.958  13.590
48382SOL     OW47042   5.868  11.431   7.948
48382SOL    HW147043   5.862  11.358   8.010
48382SOL    HW247044   5.890  11.389   7.865
48383SOL     OW47045   6.603   2.255   8.479
48383SOL    HW147046   6.678   2.258   8.419
48383SOL    HW247047   6.601   2.164   8.510
48384SOL     OW47048   9.590  11.687   1.692
48384SOL    HW147049   9.685  11.685   1.679
48384SOL    HW247050   9.555  11.699   1.604
48385SOL     OW47051   6.079   2.418   2.260
48385SOL    HW147052   6.103   2.464   2.180
48385SOL    HW247053   6.151   2.355   2.274
48386SOL     OW47054  10.706   2.454  13.677
48386SOL    HW147055  10.706   2.363  13.646
48386SOL    HW247056  10.639   2.497  13.624
48387SOL     OW47057   4.814  11.087   8.991
48387SOL    HW147058   4.797  11.063   9.082
48387SOL    HW247059   4.803  11.182   8.989
48388SOL     OW47060  14.459   1.473   2.642
48388SOL    HW147061  14.514   1.415   2.695
48388SOL    HW247062  14.521   1.531   2.598
48389SOL     OW47063  10.814   3.547   2.526
48389SOL    HW147064  10.869   3.485   2.479
48389SOL    HW247065  10.864   3.629   2.525
48390SOL     OW47066   4.178   2.953  11.354
48390SOL    HW147067   4.267   2.924  11.335
48390SOL    HW247068   4.154   3.007  11.279
48391SOL     OW47069   7.132   3.555  11.300
48391SOL    HW147070   7.140   3.601  11.384
48391SOL    HW247071   7.172   3.614  11.236
48392SOL     OW47072   4.892   0.534   2.496
48392SOL    HW147073   4.945   0.460   2.523
48392SOL    HW247074   4.906   0.541   2.401
48393SOL     OW47075   8.218   0.223  14.763
48393SOL    HW147076   8.235   0.314  14.789
48393SOL    HW247077   8.178   0.231  14.676
48394SOL     OW47078   4.443  12.286  10.806
48394SOL    HW147079   4.492  12.280  10.725
48394SOL    HW247080   4.401  12.201  10.815
48395SOL     OW47081  11.647   3.751   2.946
48395SOL    HW147082  11.718   3.694   2.918
48395SOL    HW247083  11.666   3.770   3.038
48396SOL     OW47084   1.645   4.046   8.111
48396SOL    HW147085   1.737   4.071   8.121
48396SOL    HW247086   1.631   4.044   8.016
48397SOL     OW47087  14.855   7.887   6.164
48397SOL    HW147088  14.788   7.818   6.163
48397SOL    HW247089   0.065   7.841   6.150
48398SOL     OW47090  11.593   9.594   1.153
48398SOL    HW147091  11.536   9.529   1.195
48398SOL    HW247092  11.595   9.568   1.061
48399SOL     OW47093  13.538  14.273  10.449
48399SOL    HW147094  13.523  14.179  10.456
48399SOL    HW247095  13.630  14.285  10.472
48400SOL     OW47096  11.193   8.159   3.323
48400SOL    HW147097  11.205   8.142   3.230
48400SOL    HW247098  11.103   8.192   3.330
48401SOL     OW47099  11.868   2.928  14.370
48401SOL    HW147100  11.862   2.973  14.454
48401SOL    HW247101  11.798   2.966  14.318
48402SOL     OW47102   4.494   6.808   0.449
48402SOL    HW147103   4.575   6.852   0.475
48402SOL    HW247104   4.518   6.715   0.445
48403SOL     OW47105  12.100   8.010  12.099
48403SOL    HW147106  12.100   7.962  12.182
48403SOL    HW247107  12.180   7.982  12.056
48404SOL     OW47108   6.876   4.041   4.149
48404SOL    HW147109   6.797   3.987   4.151
48404SOL    HW247110   6.919   4.024   4.232
48405SOL     OW47111  13.850  13.586  11.221
48405SOL    HW147112  13.771  13.595  11.275
48405SOL    HW247113  13.921  13.583  11.285
48406SOL     OW47114  12.493  14.092  11.643
48406SOL    HW147115  12.489  14.176  11.596
48406SOL    HW247116  12.580  14.092  11.684
48407SOL     OW47117   2.804   1.515  14.078
48407SOL    HW147118   2.755   1.432  14.073
48407SOL    HW247119   2.890   1.493  14.041
48408SOL     OW47120   2.470   3.812   7.843
48408SOL    HW147121   2.425   3.805   7.758
48408SOL    HW247122   2.543   3.871   7.826
48409SOL     OW47123   7.067   5.622  13.671
48409SOL    HW147124   7.120   5.695  13.639
48409SOL    HW247125   7.112   5.544  13.637
48410SOL     OW47126  10.832  11.847  14.267
48410SOL    HW147127  10.845  11.897  14.347
48410SOL    HW247128  10.833  11.913  14.197
48411SOL     OW47129   9.938  14.380   1.941
48411SOL    HW147130   9.985  14.311   1.895
48411SOL    HW247131   9.986  14.392   2.023
48412SOL     OW47132  10.253   2.530  14.205
48412SOL    HW147133  10.314   2.463  14.173
48412SOL    HW247134  10.179   2.480  14.239
48413SOL     OW47135   0.490   4.257   5.781
48413SOL    HW147136   0.406   4.301   5.764
48413SOL    HW247137   0.498   4.259   5.876
48414SOL     OW47138  13.155   5.887   8.125
48414SOL    HW147139  13.192   5.802   8.147
48414SOL    HW247140  13.104   5.870   8.046
48415SOL     OW47141   0.553   1.258   7.823
48415SOL    HW147142   0.481   1.225   7.877
48415SOL    HW247143   0.613   1.298   7.886
48416SOL     OW47144   8.573   8.805  12.432
48416SOL    HW147145   8.562   8.714  12.460
48416SOL    HW247146   8.612   8.849  12.508
48417SOL     OW47147   9.698   0.464   7.853
48417SOL    HW147148   9.613   0.487   7.815
48417SOL    HW247149   9.717   0.535   7.914
48418SOL     OW47150  10.558   6.814   6.041
48418SOL    HW147151  10.509   6.818   6.123
48418SOL    HW247152  10.650   6.809   6.068
48419SOL     OW47153  14.065  13.214   2.194
48419SOL    HW147154  14.138  13.268   2.225
48419SOL    HW247155  14.006  13.276   2.151
48420SOL     OW47156   9.478  14.734   7.439
48420SOL    HW147157   9.433  14.804   7.392
48420SOL    HW247158   9.506  14.673   7.370
48421SOL     OW47159   4.230   0.107   2.227
48421SOL    HW147160   4.223   0.122   2.133
48421SOL    HW247161   4.294   0.173   2.257
48422SOL     OW47162  13.398  11.552   2.930
48422SOL    HW147163  13.489  11.577   2.944
48422SOL    HW247164  13.348  11.628   2.957
48423SOL     OW47165   9.876   1.048  12.131
48423SOL    HW147166   9.849   1.093  12.211
48423SOL    HW247167   9.958   1.091  12.107
48424SOL     OW47168   0.199   3.591   9.030
48424SOL    HW147169   0.216   3.646   8.954
48424SOL    HW247170   0.108   3.563   9.020
48425SOL     OW47171   2.890   3.273   6.074
48425SOL    HW147172   2.892   3.336   6.146
48425SOL    HW247173   2.922   3.192   6.114
48426SOL     OW47174   5.174  12.975   8.454
48426SOL    HW147175   5.210  13.000   8.539
48426SOL    HW247176   5.127  13.054   8.425
48427SOL     OW47177   5.606  13.507   7.439
48427SOL    HW147178   5.621  13.423   7.395
48427SOL    HW247179   5.608  13.485   7.533
48428SOL     OW47180   1.212   6.077   5.203
48428SOL    HW147181   1.291   6.037   5.167
48428SOL    HW247182   1.244   6.136   5.271
48429SOL     OW47183   3.507  13.999   0.433
48429SOL    HW147184   3.509  14.014   0.338
48429SOL    HW247185   3.472  14.081   0.469
48430SOL     OW47186   4.579   5.228   4.992
48430SOL    HW147187   4.500   5.264   4.953
48430SOL    HW247188   4.581   5.265   5.080
48431SOL     OW47189   2.496   4.708   7.878
48431SOL    HW147190   2.525   4.617   7.876
48431SOL    HW247191   2.471   4.724   7.969
48432SOL     OW47192   5.654  12.021   0.625
48432SOL    HW147193   5.720  12.020   0.694
48432SOL    HW247194   5.696  11.981   0.549
48433SOL     OW47195   1.683   4.843   9.515
48433SOL    HW147196   1.641   4.925   9.541
48433SOL    HW247197   1.700   4.853   9.422
48434SOL     OW47198  11.410   1.533  13.339
48434SOL    HW147199  11.467   1.456  13.332
48434SOL    HW247200  11.401   1.565  13.249
48435SOL     OW47201  12.108  14.404   9.126
48435SOL    HW147202  12.189  14.369   9.164
48435SOL    HW247203  12.038  14.352   9.166
48436SOL     OW47204   7.247  12.833   7.723
48436SOL    HW147205   7.272  12.868   7.638
48436SOL    HW247206   7.159  12.869   7.739
48437SOL     OW47207   7.017   7.486   0.078
48437SOL    HW147208   7.095   7.523   0.038
48437SOL    HW247209   6.963   7.561   0.101
48438SOL     OW47210   6.959   7.406   4.353
48438SOL    HW147211   6.941   7.327   4.302
48438SOL    HW247212   6.876   7.426   4.396
48439SOL     OW47213   0.309   6.440   6.903
48439SOL    HW147214   0.290   6.527   6.941
48439SOL    HW247215   0.404   6.432   6.909
48440SOL     OW47216   7.537   2.201  13.694
48440SOL    HW147217   7.537   2.119  13.743
48440SOL    HW247218   7.629   2.227  13.691
48441SOL     OW47219  11.799  12.540  12.244
48441SOL    HW147220  11.845  12.614  12.284
48441SOL    HW247221  11.766  12.490  12.318
48442SOL     OW47222  13.486  11.190   0.695
48442SOL    HW147223  13.437  11.114   0.664
48442SOL    HW247224  13.514  11.234   0.614
48443SOL     OW47225  12.545  11.211   8.685
48443SOL    HW147226  12.630  11.194   8.644
48443SOL    HW247227  12.484  11.155   8.637
48444SOL     OW47228   1.045  13.870   2.471
48444SOL    HW147229   1.055  13.887   2.377
48444SOL    HW247230   1.123  13.821   2.495
48445SOL     OW47231   1.782   0.085   3.140
48445SOL    HW147232   1.738   0.129   3.067
48445SOL    HW247233   1.799  14.869   3.108
48446SOL     OW47234   1.322   0.828   3.819
48446SOL    HW147235   1.289   0.898   3.874
48446SOL    HW247236   1.303   0.748   3.868
48447SOL     OW47237  12.971  12.881  11.997
48447SOL    HW147238  12.969  12.949  11.929
48447SOL    HW247239  12.971  12.929  12.079
48448SOL     OW47240   3.144   2.881  13.854
48448SOL    HW147241   3.132   2.919  13.766
48448SOL    HW247242   3.227   2.834  13.848
48449SOL     OW47243   8.912   7.296  10.856
48449SOL    HW147244   8.904   7.340  10.941
48449SOL    HW247245   8.885   7.361  10.792
48450SOL     OW47246   0.648   2.260   1.164
48450SOL    HW147247   0.633   2.167   1.181
48450SOL    HW247248   0.694   2.262   1.080
48451SOL     OW47249   8.987  11.418   6.940
48451SOL    HW147250   8.959  11.366   6.865
48451SOL    HW247251   9.069  11.458   6.913
48452SOL     OW47252   1.800   1.137   4.576
48452SOL    HW147253   1.821   1.068   4.638
48452SOL    HW247254   1.788   1.215   4.630
48453SOL     OW47255   1.556   4.333  14.548
48453SOL    HW147256   1.594   4.273  14.612
48453SOL    HW247257   1.493   4.279  14.500
48454SOL     OW47258  10.513  10.786   8.202
48454SOL    HW147259  10.531  10.879   8.219
48454SOL    HW247260  10.462  10.786   8.121
48455SOL     OW47261   4.263  11.794  10.618
48455SOL    HW147262   4.183  11.805  10.670
48455SOL    HW247263   4.232  11.758  10.534
48456SOL     OW47264   7.454   3.684   9.165
48456SOL    HW147265   7.502   3.765   9.183
48456SOL    HW247266   7.508   3.615   9.204
48457SOL     OW47267   1.375  14.477  10.298
48457SOL    HW147268   1.426  14.404  10.265
48457SOL    HW247269   1.368  14.538  10.224
48458SOL     OW47270   8.562   0.716   4.157
48458SOL    HW147271   8.577   0.688   4.247
48458SOL    HW247272   8.638   0.772   4.136
48459SOL     OW47273   9.383   6.441   6.904
48459SOL    HW147274   9.440   6.489   6.964
48459SOL    HW247275   9.333   6.510   6.860
48460SOL     OW47276  10.137  14.167   2.772
48460SOL    HW147277  10.074  14.133   2.708
48460SOL    HW247278  10.137  14.262   2.759
48461SOL     OW47279   3.994   7.630   0.673
48461SOL    HW147280   3.938   7.607   0.598
48461SOL    HW247281   4.071   7.670   0.634
48462SOL     OW47282   8.195   7.356   8.636
48462SOL    HW147283   8.166   7.445   8.614
48462SOL    HW247284   8.257   7.369   8.708
48463SOL     OW47285   9.808   4.794  13.035
48463SOL    HW147286   9.833   4.853  12.964
48463SOL    HW247287   9.716   4.814  13.053
48464SOL     OW47288   2.582   6.390   5.743
48464SOL    HW147289   2.549   6.303   5.721
48464SOL    HW247290   2.510   6.449   5.720
48465SOL     OW47291   0.918  10.015   6.567
48465SOL    HW147292   0.839  10.067   6.549
48465SOL    HW247293   0.957  10.000   6.480
48466SOL     OW47294   2.031  14.014  13.447
48466SOL    HW147295   2.108  14.022  13.391
48466SOL    HW247296   2.059  13.958  13.519
48467SOL     OW47297   4.085   7.404   3.259
48467SOL    HW147298   4.011   7.343   3.259
48467SOL    HW247299   4.153   7.359   3.310
48468SOL     OW47300   8.927  11.064  10.111
48468SOL    HW147301   8.912  11.088  10.202
48468SOL    HW247302   9.019  11.036  10.108
48469SOL     OW47303   6.513  12.289   4.620
48469SOL    HW147304   6.423  12.319   4.610
48469SOL    HW247305   6.514  12.201   4.582
48470SOL     OW47306   7.755   3.610   4.888
48470SOL    HW147307   7.818   3.606   4.816
48470SOL    HW247308   7.805   3.648   4.960
48471SOL     OW47309  13.187   1.797   6.520
48471SOL    HW147310  13.243   1.730   6.560
48471SOL    HW247311  13.169   1.859   6.591
48472SOL     OW47312  14.292   5.032   3.280
48472SOL    HW147313  14.210   4.982   3.273
48472SOL    HW247314  14.315   5.027   3.372
48473SOL     OW47315   7.076   8.412  10.595
48473SOL    HW147316   7.052   8.361  10.672
48473SOL    HW247317   7.043   8.362  10.521
48474SOL     OW47318  12.792   7.431   6.702
48474SOL    HW147319  12.829   7.462   6.619
48474SOL    HW247320  12.702   7.465   6.701
48475SOL     OW47321   1.635  14.022  11.738
48475SOL    HW147322   1.612  14.031  11.645
48475SOL    HW247323   1.569  13.962  11.772
48476SOL     OW47324   0.031  10.929   6.641
48476SOL    HW147325  14.814  10.961   6.652
48476SOL    HW247326   0.086  11.008   6.644
48477SOL     OW47327   2.444   3.981  14.345
48477SOL    HW147328   2.488   4.007  14.426
48477SOL    HW247329   2.477   4.042  14.279
48478SOL     OW47330   2.558   7.884   9.401
48478SOL    HW147331   2.500   7.959   9.417
48478SOL    HW247332   2.575   7.848   9.487
48479SOL     OW47333  10.396   6.702   3.862
48479SOL    HW147334  10.331   6.766   3.890
48479SOL    HW247335  10.430   6.664   3.943
48480SOL     OW47336  10.967   4.175  11.803
48480SOL    HW147337  11.020   4.116  11.749
48480SOL    HW247338  11.031   4.235  11.842
48481SOL     OW47339   4.955  11.651   8.739
48481SOL    HW147340   5.039  11.618   8.771
48481SOL    HW247341   4.977  11.725   8.683
48482SOL     OW47342   2.219   1.683   0.184
48482SOL    HW147343   2.268   1.762   0.210
48482SOL    HW247344   2.267   1.648   0.110
48483SOL     OW47345   2.715   8.419   9.125
48483SOL    HW147346   2.691   8.351   9.062
48483SOL    HW247347   2.805   8.443   9.101
48484SOL     OW47348   0.310   4.525  10.365
48484SOL    HW147349   0.263   4.524  10.282
48484SOL    HW247350   0.252   4.483  10.428
48485SOL     OW47351  11.051   1.772  12.414
48485SOL    HW147352  10.987   1.806  12.477
48485SOL    HW247353  11.135   1.779  12.459
48486SOL     OW47354  12.622   5.978   3.746
48486SOL    HW147355  12.585   5.938   3.667
48486SOL    HW247356  12.655   6.063   3.717
48487SOL     OW47357  10.919   9.356  10.802
48487SOL    HW147358  10.831   9.392  10.812
48487SOL    HW247359  10.968   9.425  10.757
48488SOL     OW47360   3.211  14.385  12.053
48488SOL    HW147361   3.193  14.427  12.137
48488SOL    HW247362   3.306  14.372  12.053
48489SOL     OW47363   5.711   1.265   2.744
48489SOL    HW147364   5.681   1.223   2.824
48489SOL    HW247365   5.668   1.351   2.744
48490SOL     OW47366  12.136   2.356   7.905
48490SOL    HW147367  12.131   2.428   7.969
48490SOL    HW247368  12.088   2.284   7.947
48491SOL     OW47369   1.390   9.887  12.523
48491SOL    HW147370   1.430   9.832  12.591
48491SOL    HW247371   1.331   9.946  12.571
48492SOL     OW47372  11.059   9.641   0.517
48492SOL    HW147373  11.139   9.643   0.570
48492SOL    HW247374  11.074   9.572   0.452
48493SOL     OW47375   1.963   4.134  14.604
48493SOL    HW147376   1.974   4.040  14.593
48493SOL    HW247377   1.944   4.146  14.697
48494SOL     OW47378  10.434   9.280  10.810
48494SOL    HW147379  10.432   9.218  10.736
48494SOL    HW247380  10.344   9.312  10.817
48495SOL     OW47381   1.185   4.718  12.465
48495SOL    HW147382   1.098   4.688  12.492
48495SOL    HW247383   1.202   4.796  12.517
48496SOL     OW47384  11.004   2.505  14.782
48496SOL    HW147385  10.980   2.461  14.700
48496SOL    HW247386  11.099   2.509  14.781
48497SOL     OW47387   5.287   9.856   3.440
48497SOL    HW147388   5.274   9.782   3.380
48497SOL    HW247389   5.223   9.922   3.410
48498SOL     OW47390   9.533   2.348   2.614
48498SOL    HW147391   9.601   2.280   2.616
48498SOL    HW247392   9.462   2.311   2.666
48499SOL     OW47393   2.114  12.138   3.471
48499SOL    HW147394   2.167  12.211   3.441
48499SOL    HW247395   2.077  12.101   3.390
48500SOL     OW47396   7.863   9.183   5.039
48500SOL    HW147397   7.919   9.127   4.986
48500SOL    HW247398   7.923   9.225   5.101
48501SOL     OW47399   0.936  12.500  11.180
48501SOL    HW147400   0.916  12.579  11.130
48501SOL    HW247401   1.029  12.508  11.201
48502SOL     OW47402  13.122  14.332  11.992
48502SOL    HW147403  13.140  14.388  11.916
48502SOL    HW247404  13.073  14.258  11.956
48503SOL     OW47405   0.400   9.584  12.199
48503SOL    HW147406   0.440   9.599  12.113
48503SOL    HW247407   0.312   9.551  12.178
48504SOL     OW47408   2.269  11.440   8.750
48504SOL    HW147409   2.252  11.347   8.764
48504SOL    HW247410   2.246  11.455   8.658
48505SOL     OW47411   4.288   1.553   4.855
48505SOL    HW147412   4.280   1.563   4.760
48505SOL    HW247413   4.317   1.639   4.886
48506SOL     OW47414   3.071  14.859   9.331
48506SOL    HW147415   3.103  14.813   9.409
48506SOL    HW247416   3.141  14.849   9.267
48507SOL     OW47417  10.668   8.157  14.783
48507SOL    HW147418  10.707   8.241  14.759
48507SOL    HW247419  10.647   8.115  14.700
48508SOL     OW47420   4.846   5.756  13.480
48508SOL    HW147421   4.829   5.793  13.394
48508SOL    HW247422   4.899   5.821  13.525
48509SOL     OW47423   5.664  11.501  10.262
48509SOL    HW147424   5.735  11.442  10.238
48509SOL    HW247425   5.658  11.562  10.188
48510SOL     OW47426  13.869  10.114   0.695
48510SOL    HW147427  13.834  10.177   0.759
48510SOL    HW247428  13.949  10.080   0.736
48511SOL     OW47429  14.821  13.727  11.741
48511SOL    HW147430  14.751  13.682  11.694
48511SOL    HW247431  14.788  13.736  11.831
48512SOL     OW47432   7.722   8.032   7.067
48512SOL    HW147433   7.760   7.959   7.018
48512SOL    HW247434   7.629   8.011   7.074
48513SOL     OW47435  12.819  11.543   2.838
48513SOL    HW147436  12.768  11.592   2.903
48513SOL    HW247437  12.753  11.496   2.787
48514SOL     OW47438   0.327  14.030   1.749
48514SOL    HW147439   0.291  13.979   1.676
48514SOL    HW247440   0.251  14.068   1.792
48515SOL     OW47441   9.364  11.198  14.790
48515SOL    HW147442   9.417  11.212  14.712
48515SOL    HW247443   9.337  11.106  14.784
48516SOL     OW47444   8.345  11.168  10.244
48516SOL    HW147445   8.432  11.145  10.278
48516SOL    HW247446   8.361  11.201  10.156
48517SOL     OW47447   5.708   1.990   3.363
48517SOL    HW147448   5.632   2.049   3.360
48517SOL    HW247449   5.673   1.907   3.395
48518SOL     OW47450  10.287   0.056   8.167
48518SOL    HW147451  10.266  14.839   8.140
48518SOL    HW247452  10.316   0.099   8.087
48519SOL     OW47453   0.173   1.550   1.070
48519SOL    HW147454   0.087   1.512   1.055
48519SOL    HW247455   0.180   1.619   1.003
48520SOL     OW47456   1.842   7.867  11.813
48520SOL    HW147457   1.871   7.937  11.872
48520SOL    HW247458   1.747   7.867  11.821
48521SOL     OW47459  10.818   1.633   4.446
48521SOL    HW147460  10.773   1.549   4.457
48521SOL    HW247461  10.781   1.668   4.365
48522SOL     OW47462   1.959   8.094   6.810
48522SOL    HW147463   1.907   8.037   6.867
48522SOL    HW247464   2.049   8.061   6.821
48523SOL     OW47465   2.005   9.839   6.844
48523SOL    HW147466   2.049   9.754   6.839
48523SOL    HW247467   1.914   9.818   6.864
48524SOL     OW47468   7.247   1.957   2.425
48524SOL    HW147469   7.176   1.975   2.486
48524SOL    HW247470   7.312   2.025   2.445
48525SOL     OW47471   3.515   8.929   5.335
48525SOL    HW147472   3.466   9.006   5.365
48525SOL    HW247473   3.602   8.940   5.376
48526SOL     OW47474   6.140   9.958  14.645
48526SOL    HW147475   6.061   9.963  14.699
48526SOL    HW247476   6.172   9.869  14.659
48527SOL     OW47477   1.544  13.021  11.687
48527SOL    HW147478   1.476  13.036  11.752
48527SOL    HW247479   1.568  13.108  11.656
48528SOL     OW47480  11.815   4.466   9.709
48528SOL    HW147481  11.835   4.388   9.657
48528SOL    HW247482  11.870   4.457   9.787
48529SOL     OW47483  14.784  14.363   7.682
48529SOL    HW147484  14.766  14.389   7.592
48529SOL    HW247485  14.751  14.273   7.689
48530SOL     OW47486   4.234   0.147  11.424
48530SOL    HW147487   4.250   0.099  11.343
48530SOL    HW247488   4.254   0.084  11.493
48531SOL     OW47489   5.744   1.492  13.971
48531SOL    HW147490   5.790   1.434  14.031
48531SOL    HW247491   5.776   1.580  13.992
48532SOL     OW47492  14.035   3.891  12.425
48532SOL    HW147493  14.005   3.970  12.380
48532SOL    HW247494  14.037   3.824  12.356
48533SOL     OW47495   3.292   4.995   7.970
48533SOL    HW147496   3.216   5.028   8.018
48533SOL    HW247497   3.316   5.067   7.911
48534SOL     OW47498   9.105  10.293   3.399
48534SOL    HW147499   9.182  10.324   3.448
48534SOL    HW247500   9.030  10.328   3.447
48535SOL     OW47501  14.563   7.238   3.501
48535SOL    HW147502  14.536   7.229   3.410
48535SOL    HW247503  14.655   7.210   3.501
48536SOL     OW47504  11.205   3.738  11.435
48536SOL    HW147505  11.151   3.662  11.457
48536SOL    HW247506  11.176   3.806  11.495
48537SOL     OW47507   2.730   4.303   5.248
48537SOL    HW147508   2.731   4.209   5.266
48537SOL    HW247509   2.711   4.344   5.332
48538SOL     OW47510  12.780   9.911  12.581
48538SOL    HW147511  12.784   9.815  12.578
48538SOL    HW247512  12.812   9.933  12.668
48539SOL     OW47513   6.349   3.083   3.065
48539SOL    HW147514   6.388   3.128   3.139
48539SOL    HW247515   6.423   3.050   3.014
48540SOL     OW47516   9.259   4.722  11.480
48540SOL    HW147517   9.329   4.772  11.522
48540SOL    HW247518   9.296   4.691  11.398
48541SOL     OW47519  12.086   6.458   8.333
48541SOL    HW147520  12.045   6.420   8.410
48541SOL    HW247521  12.160   6.508   8.367
48542SOL     OW47522   2.073   8.359  13.697
48542SOL    HW147523   2.112   8.312  13.771
48542SOL    HW247524   2.141   8.360  13.630
48543SOL     OW47525   2.324  12.763   5.835
48543SOL    HW147526   2.228  12.760   5.831
48543SOL    HW247527   2.342  12.828   5.903
48544SOL     OW47528   5.386   4.885   0.335
48544SOL    HW147529   5.431   4.963   0.366
48544SOL    HW247530   5.420   4.871   0.246
48545SOL     OW47531  10.523   4.856  11.261
48545SOL    HW147532  10.561   4.930  11.213
48545SOL    HW247533  10.436   4.845  11.223
48546SOL     OW47534  12.835  14.258   5.312
48546SOL    HW147535  12.858  14.324   5.246
48546SOL    HW247536  12.917  14.210   5.328
48547SOL     OW47537   0.986  12.940   2.877
48547SOL    HW147538   0.954  12.892   2.954
48547SOL    HW247539   0.907  12.979   2.839
48548SOL     OW47540   3.328   4.805   6.710
48548SOL    HW147541   3.312   4.893   6.743
48548SOL    HW247542   3.328   4.749   6.788
48549SOL     OW47543   0.195   9.188   2.023
48549SOL    HW147544   0.233   9.249   1.960
48549SOL    HW247545   0.101   9.193   2.009
48550SOL     OW47546   6.114  12.906   3.583
48550SOL    HW147547   6.084  12.902   3.673
48550SOL    HW247548   6.173  12.982   3.581
48551SOL     OW47549   3.412   2.659  11.378
48551SOL    HW147550   3.401   2.564  11.369
48551SOL    HW247551   3.455   2.669  11.463
48552SOL     OW47552   5.036   8.383  11.689
48552SOL    HW147553   5.076   8.361  11.605
48552SOL    HW247554   4.944   8.403  11.667
48553SOL     OW47555   2.160  12.938   6.915
48553SOL    HW147556   2.200  12.878   6.978
48553SOL    HW247557   2.214  13.016   6.918
48554SOL     OW47558  12.956  13.329  14.292
48554SOL    HW147559  13.035  13.354  14.339
48554SOL    HW247560  12.902  13.285  14.358
48555SOL     OW47561   8.881   7.134   5.913
48555SOL    HW147562   8.920   7.068   5.970
48555SOL    HW247563   8.935   7.212   5.924
48556SOL     OW47564   7.444   0.064   7.359
48556SOL    HW147565   7.361   0.072   7.406
48556SOL    HW247566   7.487  14.861   7.398
48557SOL     OW47567   9.681  13.850   3.250
48557SOL    HW147568   9.767  13.874   3.285
48557SOL    HW247569   9.658  13.922   3.191
48558SOL     OW47570  10.247   8.928  13.583
48558SOL    HW147571  10.167   8.922  13.530
48558SOL    HW247572  10.252   9.020  13.610
48559SOL     OW47573   3.060   1.135  10.284
48559SOL    HW147574   3.031   1.052  10.323
48559SOL    HW247575   3.094   1.185  10.358
48560SOL     OW47576   6.869  14.563  14.691
48560SOL    HW147577   6.840  14.575  14.601
48560SOL    HW247578   6.914  14.478  14.691
48561SOL     OW47579   3.247  13.911   3.744
48561SOL    HW147580   3.288  13.834   3.704
48561SOL    HW247581   3.312  13.942   3.807
48562SOL     OW47582   0.406   3.251   3.351
48562SOL    HW147583   0.372   3.338   3.329
48562SOL    HW247584   0.376   3.236   3.441
48563SOL     OW47585  11.228   4.271   5.530
48563SOL    HW147586  11.226   4.366   5.517
48563SOL    HW247587  11.292   4.257   5.599
48564SOL     OW47588   3.188   4.966   4.031
48564SOL    HW147589   3.120   5.016   4.075
48564SOL    HW247590   3.264   5.024   4.031
48565SOL     OW47591  12.038   3.268   7.063
48565SOL    HW147592  12.119   3.299   7.103
48565SOL    HW247593  11.976   3.264   7.136
48566SOL     OW47594  14.134   6.729  10.156
48566SOL    HW147595  14.110   6.774  10.075
48566SOL    HW247596  14.219   6.766  10.180
48567SOL     OW47597   7.358   8.225   3.808
48567SOL    HW147598   7.366   8.275   3.889
48567SOL    HW247599   7.414   8.149   3.820
48568SOL     OW47600  10.350   5.738   4.716
48568SOL    HW147601  10.312   5.718   4.801
48568SOL    HW247602  10.403   5.662   4.695
48569SOL     OW47603   5.041   4.861  12.910
48569SOL    HW147604   4.987   4.782  12.908
48569SOL    HW247605   5.128   4.829  12.935
48570SOL     OW47606  10.963   9.940   1.004
48570SOL    HW147607  10.902   9.943   0.931
48570SOL    HW247608  10.936   9.864   1.055
48571SOL     OW47609  14.278   0.965  10.343
48571SOL    HW147610  14.349   1.025  10.369
48571SOL    HW247611  14.323   0.887  10.311
48572SOL     OW47612   5.705   2.535   0.694
48572SOL    HW147613   5.720   2.444   0.721
48572SOL    HW247614   5.765   2.548   0.620
48573SOL     OW47615   2.450   9.181  14.608
48573SOL    HW147616   2.470   9.111  14.546
48573SOL    HW247617   2.506   9.164  14.683
48574SOL     OW47618  10.848   5.147   8.208
48574SOL    HW147619  10.865   5.054   8.196
48574SOL    HW247620  10.800   5.153   8.291
48575SOL     OW47621   8.558  10.618   0.796
48575SOL    HW147622   8.596  10.613   0.709
48575SOL    HW247623   8.541  10.527   0.819
48576SOL     OW47624   4.167   9.556   3.199
48576SOL    HW147625   4.136   9.468   3.174
48576SOL    HW247626   4.262   9.552   3.189
48577SOL     OW47627   9.652   4.199   5.782
48577SOL    HW147628   9.645   4.233   5.693
48577SOL    HW247629   9.641   4.276   5.838
48578SOL     OW47630  10.648   3.714   6.476
48578SOL    HW147631  10.567   3.680   6.438
48578SOL    HW247632  10.626   3.734   6.567
48579SOL     OW47633   9.782   8.178   5.963
48579SOL    HW147634   9.870   8.203   5.933
48579SOL    HW247635   9.740   8.141   5.885
48580SOL     OW47636  13.310  11.134   6.191
48580SOL    HW147637  13.403  11.124   6.171
48580SOL    HW247638  13.293  11.228   6.178
48581SOL     OW47639  11.660   8.101  11.861
48581SOL    HW147640  11.701   8.070  11.942
48581SOL    HW247641  11.584   8.152  11.890
48582SOL     OW47642  10.360   1.993  14.164
48582SOL    HW147643  10.446   2.007  14.124
48582SOL    HW247644  10.303   1.971  14.090
48583SOL     OW47645   3.684  14.623   3.680
48583SOL    HW147646   3.676  14.705   3.728
48583SOL    HW247647   3.691  14.648   3.588
48584SOL     OW47648   9.806  14.410   9.768
48584SOL    HW147649   9.868  14.376   9.832
48584SOL    HW247650   9.834  14.372   9.685
48585SOL     OW47651   8.910   2.414   1.027
48585SOL    HW147652   8.829   2.436   0.980
48585SOL    HW247653   8.880   2.358   1.099
48586SOL     OW47654   8.141   3.993   5.846
48586SOL    HW147655   8.066   4.004   5.905
48586SOL    HW247656   8.105   3.945   5.771
48587SOL     OW47657   0.590  10.054   6.167
48587SOL    HW147658   0.671  10.062   6.217
48587SOL    HW247659   0.522  10.086   6.227
48588SOL     OW47660   3.930  11.228   7.547
48588SOL    HW147661   3.974  11.165   7.490
48588SOL    HW247662   3.854  11.257   7.497
48589SOL     OW47663   5.036  12.553   5.939
48589SOL    HW147664   5.120  12.525   5.902
48589SOL    HW247665   5.053  12.564   6.032
48590SOL     OW47666   3.294   9.065  14.488
48590SOL    HW147667   3.375   9.093  14.446
48590SOL    HW247668   3.274   8.981  14.448
48591SOL     OW47669   8.539  13.202   1.010
48591SOL    HW147670   8.474  13.170   0.948
48591SOL    HW247671   8.547  13.132   1.075
48592SOL     OW47672   6.712   0.671   4.734
48592SOL    HW147673   6.690   0.642   4.823
48592SOL    HW247674   6.719   0.589   4.684
48593SOL     OW47675   7.133  10.528   9.535
48593SOL    HW147676   7.163  10.606   9.581
48593SOL    HW247677   7.088  10.476   9.601
48594SOL     OW47678   3.266  10.736   8.329
48594SOL    HW147679   3.206  10.683   8.381
48594SOL    HW247680   3.210  10.783   8.268
48595SOL     OW47681   5.450  11.980   6.198
48595SOL    HW147682   5.451  12.075   6.187
48595SOL    HW247683   5.514  11.948   6.134
48596SOL     OW47684  14.707   9.155   5.228
48596SOL    HW147685  14.634   9.213   5.211
48596SOL    HW247686  14.670   9.067   5.223
48597SOL     OW47687   8.109   4.397   3.483
48597SOL    HW147688   8.123   4.309   3.520
48597SOL    HW247689   8.158   4.455   3.540
48598SOL     OW47690   7.508   3.740  13.153
48598SOL    HW147691   7.485   3.763  13.063
48598SOL    HW247692   7.537   3.822  13.192
48599SOL     OW47693  10.685  13.685   6.290
48599SOL    HW147694  10.728  13.718   6.211
48599SOL    HW247695  10.743  13.711   6.361
48600SOL     OW47696   4.110   0.373  11.294
48600SOL    HW147697   4.191   0.421  11.274
48600SOL    HW247698   4.139   0.301  11.350
48601SOL     OW47699   9.793   6.427  11.002
48601SOL    HW147700   9.779   6.358  10.936
48601SOL    HW247701   9.870   6.475  10.970
48602SOL     OW47702   0.000  13.228  13.945
48602SOL    HW147703  14.843  13.237  13.855
48602SOL    HW247704  14.862  13.134  13.964
48603SOL     OW47705   0.692  12.772  12.045
48603SOL    HW147706   0.676  12.680  12.066
48603SOL    HW247707   0.692  12.817  12.130
48604SOL     OW47708   5.596   5.024   3.007
48604SOL    HW147709   5.542   5.001   3.082
48604SOL    HW247710   5.539   5.081   2.954
48605SOL     OW47711   7.841   2.535  11.693
48605SOL    HW147712   7.920   2.586  11.676
48605SOL    HW247713   7.804   2.576  11.772
48606SOL     OW47714   9.096   4.334   3.228
48606SOL    HW147715   9.137   4.269   3.285
48606SOL    HW247716   9.002   4.319   3.238
48607SOL     OW47717   1.500   5.325   0.087
48607SOL    HW147718   1.590   5.350   0.108
48607SOL    HW247719   1.450   5.344   0.167
48608SOL     OW47720  11.193  10.070  10.290
48608SOL    HW147721  11.234  10.130  10.228
48608SOL    HW247722  11.188  10.121  10.371
48609SOL     OW47723  11.221   7.859  14.202
48609SOL    HW147724  11.131   7.827  14.202
48609SOL    HW247725  11.245   7.864  14.295
48610SOL     OW47726  10.156   7.344  10.413
48610SOL    HW147727  10.122   7.421  10.458
48610SOL    HW247728  10.223   7.309  10.472
48611SOL     OW47729   5.963  14.464   4.153
48611SOL    HW147730   5.960  14.506   4.239
48611SOL    HW247731   5.961  14.536   4.090
48612SOL     OW47732   8.682   7.542   9.569
48612SOL    HW147733   8.768   7.580   9.581
48612SOL    HW247734   8.688   7.456   9.611
48613SOL     OW47735   0.062   3.613  13.122
48613SOL    HW147736   0.026   3.575  13.042
48613SOL    HW247737  14.858   3.629  13.178
48614SOL     OW47738  13.932   1.081   3.542
48614SOL    HW147739  13.921   1.125   3.626
48614SOL    HW247740  13.843   1.072   3.509
48615SOL     OW47741   0.238   6.902   4.877
48615SOL    HW147742   0.253   6.996   4.869
48615SOL    HW247743   0.252   6.868   4.789
48616SOL     OW47744  11.678   7.247  10.974
48616SOL    HW147745  11.638   7.167  10.941
48616SOL    HW247746  11.643   7.256  11.062
48617SOL     OW47747   3.692   3.454  12.815
48617SOL    HW147748   3.786   3.468  12.817
48617SOL    HW247749   3.667   3.470  12.724
48618SOL     OW47750   9.082   2.424   9.921
48618SOL    HW147751   9.008   2.378   9.960
48618SOL    HW247752   9.043   2.483   9.856
48619SOL     OW47753  12.176   9.688  14.212
48619SOL    HW147754  12.112   9.758  14.228
48619SOL    HW247755  12.131   9.608  14.240
48620SOL     OW47756   6.696  12.069   8.843
48620SOL    HW147757   6.775  12.078   8.789
48620SOL    HW247758   6.625  12.102   8.788
48621SOL     OW47759   4.984  12.526  13.549
48621SOL    HW147760   4.937  12.519  13.465
48621SOL    HW247761   4.919  12.557  13.611
48622SOL     OW47762  13.657   4.315   2.086
48622SOL    HW147763  13.624   4.307   2.176
48622SOL    HW247764  13.627   4.401   2.057
48623SOL     OW47765   0.270   6.484   3.226
48623SOL    HW147766   0.311   6.525   3.149
48623SOL    HW247767   0.342   6.470   3.287
48624SOL     OW47768   7.369   0.442   3.672
48624SOL    HW147769   7.360   0.365   3.727
48624SOL    HW247770   7.280   0.464   3.646
48625SOL     OW47771   7.993   6.246   0.492
48625SOL    HW147772   7.938   6.170   0.475
48625SOL    HW247773   8.048   6.220   0.566
48626SOL     OW47774   6.462   3.109   8.347
48626SOL    HW147775   6.495   3.172   8.283
48626SOL    HW247776   6.412   3.163   8.409
48627SOL     OW47777   5.802   9.996   0.520
48627SOL    HW147778   5.791  10.065   0.586
48627SOL    HW247779   5.739   9.929   0.545
48628SOL     OW47780   4.855   5.103   3.925
48628SOL    HW147781   4.760   5.094   3.928
48628SOL    HW247782   4.886   5.019   3.890
48629SOL     OW47783   5.643   4.318   7.707
48629SOL    HW147784   5.628   4.408   7.736
48629SOL    HW247785   5.736   4.302   7.725
48630SOL     OW47786   0.905   4.322   1.374
48630SOL    HW147787   0.984   4.269   1.387
48630SOL    HW247788   0.900   4.377   1.452
48631SOL     OW47789   2.064   5.813   4.712
48631SOL    HW147790   2.039   5.734   4.663
48631SOL    HW247791   2.136   5.784   4.768
48632SOL     OW47792  12.763   0.718   6.177
48632SOL    HW147793  12.725   0.783   6.118
48632SOL    HW247794  12.731   0.634   6.143
48633SOL     OW47795   8.744  12.259  12.683
48633SOL    HW147796   8.727  12.343  12.640
48633SOL    HW247797   8.838  12.259  12.701
48634SOL     OW47798   4.848   8.732   9.998
48634SOL    HW147799   4.815   8.700   9.914
48634SOL    HW247800   4.885   8.654  10.040
48635SOL     OW47801   6.050   1.167  13.901
48635SOL    HW147802   6.003   1.158  13.818
48635SOL    HW247803   5.999   1.231  13.951
48636SOL     OW47804   0.640   9.823  12.139
48636SOL    HW147805   0.735   9.829  12.147
48636SOL    HW247806   0.606   9.861  12.220
48637SOL     OW47807  12.347   2.719  10.228
48637SOL    HW147808  12.398   2.736  10.149
48637SOL    HW247809  12.412   2.701  10.296
48638SOL     OW47810   4.346   1.538   6.901
48638SOL    HW147811   4.339   1.620   6.951
48638SOL    HW247812   4.431   1.502   6.926
48639SOL     OW47813   3.623   1.109   4.201
48639SOL    HW147814   3.536   1.086   4.170
48639SOL    HW247815   3.625   1.079   4.292
48640SOL     OW47816  14.200  13.745  10.361
48640SOL    HW147817  14.181  13.734  10.454
48640SOL    HW247818  14.260  13.819  10.357
48641SOL     OW47819   5.895   9.950   5.237
48641SOL    HW147820   5.904   9.858   5.212
48641SOL    HW247821   5.912   9.951   5.331
48642SOL     OW47822   7.585  12.403   8.443
48642SOL    HW147823   7.611  12.373   8.530
48642SOL    HW247824   7.565  12.496   8.454
48643SOL     OW47825   9.791   7.977   5.126
48643SOL    HW147826   9.766   7.889   5.101
48643SOL    HW247827   9.718   8.009   5.179
48644SOL     OW47828   3.396   3.893   4.674
48644SOL    HW147829   3.413   3.853   4.589
48644SOL    HW247830   3.374   3.820   4.732
48645SOL     OW47831   2.380   1.944   9.317
48645SOL    HW147832   2.331   1.979   9.391
48645SOL    HW247833   2.364   2.007   9.246
48646SOL     OW47834  10.802  13.856   1.666
48646SOL    HW147835  10.808  13.896   1.579
48646SOL    HW247836  10.719  13.888   1.701
48647SOL     OW47837   9.731   4.788   3.367
48647SOL    HW147838   9.768   4.706   3.334
48647SOL    HW247839   9.799   4.822   3.426
48648SOL     OW47840   7.028   5.142   5.302
48648SOL    HW147841   7.079   5.223   5.308
48648SOL    HW247842   7.005   5.136   5.209
48649SOL     OW47843  10.513   2.316  10.031
48649SOL    HW147844  10.520   2.371   9.952
48649SOL    HW247845  10.432   2.345  10.072
48650SOL     OW47846   7.061   9.315   1.680
48650SOL    HW147847   7.127   9.295   1.614
48650SOL    HW247848   7.040   9.230   1.720
48651SOL     OW47849   2.862   0.063   6.586
48651SOL    HW147850   2.906  14.859   6.622
48651SOL    HW247851   2.932   0.115   6.547
48652SOL     OW47852  10.926   3.116   6.231
48652SOL    HW147853  10.876   3.135   6.151
48652SOL    HW247854  10.940   3.202   6.271
48653SOL     OW47855  11.597  11.515   4.823
48653SOL    HW147856  11.675  11.485   4.777
48653SOL    HW247857  11.610  11.609   4.834
48654SOL     OW47858   6.301   0.335   4.382
48654SOL    HW147859   6.325   0.427   4.391
48654SOL    HW247860   6.281   0.325   4.288
48655SOL     OW47861   2.691  10.702   0.231
48655SOL    HW147862   2.772  10.702   0.282
48655SOL    HW247863   2.638  10.772   0.271
48656SOL     OW47864   2.264   5.772   7.635
48656SOL    HW147865   2.214   5.844   7.672
48656SOL    HW247866   2.257   5.784   7.540
48657SOL     OW47867   6.480  14.785   0.328
48657SOL    HW147868   6.400  14.769   0.378
48657SOL    HW247869   6.523  14.700   0.323
48658SOL     OW47870   1.449   8.558   0.058
48658SOL    HW147871   1.514   8.491   0.083
48658SOL    HW247872   1.468   8.632   0.114
48659SOL     OW47873  13.281  11.492   6.556
48659SOL    HW147874  13.236  11.499   6.471
48659SOL    HW247875  13.250  11.567   6.606
48660SOL     OW47876  10.663   7.028  14.658
48660SOL    HW147877  10.599   7.022  14.729
48660SOL    HW247878  10.611   7.018  14.578
48661SOL     OW47879  10.709   6.439   0.333
48661SOL    HW147880  10.700   6.534   0.327
48661SOL    HW247881  10.643   6.413   0.397
48662SOL     OW47882   9.504  10.339  13.423
48662SOL    HW147883   9.454  10.313  13.500
48662SOL    HW247884   9.470  10.426  13.401
48663SOL     OW47885   8.281  10.275  10.515
48663SOL    HW147886   8.225  10.244  10.586
48663SOL    HW247887   8.253  10.365  10.500
48664SOL     OW47888  10.844  12.592   0.713
48664SOL    HW147889  10.772  12.655   0.709
48664SOL    HW247890  10.824  12.538   0.789
48665SOL     OW47891   6.257   8.442   2.024
48665SOL    HW147892   6.326   8.469   2.086
48665SOL    HW247893   6.177   8.444   2.076
48666SOL     OW47894   8.882   2.183   0.450
48666SOL    HW147895   8.922   2.234   0.379
48666SOL    HW247896   8.788   2.196   0.439
48667SOL     OW47897   9.942   7.784   2.305
48667SOL    HW147898   9.866   7.811   2.357
48667SOL    HW247899   9.925   7.818   2.218
48668SOL     OW47900   3.683  12.556   3.038
48668SOL    HW147901   3.736  12.634   3.053
48668SOL    HW247902   3.698  12.502   3.116
48669SOL     OW47903   9.401   7.980  11.982
48669SOL    HW147904   9.336   7.911  11.976
48669SOL    HW247905   9.372   8.045  11.918
48670SOL     OW47906   1.499   9.319   4.790
48670SOL    HW147907   1.566   9.334   4.856
48670SOL    HW247908   1.439   9.257   4.831
48671SOL     OW47909   9.733   7.505   1.376
48671SOL    HW147910   9.688   7.524   1.294
48671SOL    HW247911   9.676   7.444   1.422
48672SOL     OW47912  12.665  12.439  12.969
48672SOL    HW147913  12.585  12.429  12.917
48672SOL    HW247914  12.661  12.368  13.033
48673SOL     OW47915   8.684  10.058   0.685
48673SOL    HW147916   8.627  10.120   0.730
48673SOL    HW247917   8.674   9.976   0.734
48674SOL     OW47918   7.190   7.180   4.030
48674SOL    HW147919   7.252   7.253   4.020
48674SOL    HW247920   7.245   7.102   4.032
48675SOL     OW47921   0.894   3.134   6.508
48675SOL    HW147922   0.819   3.191   6.491
48675SOL    HW247923   0.856   3.047   6.517
48676SOL     OW47924  10.900   1.266   0.934
48676SOL    HW147925  10.894   1.171   0.924
48676SOL    HW247926  10.826   1.300   0.884
48677SOL     OW47927  12.146   8.820   7.567
48677SOL    HW147928  12.084   8.768   7.515
48677SOL    HW247929  12.105   8.828   7.653
48678SOL     OW47930   6.305   0.042  12.049
48678SOL    HW147931   6.357  14.834  12.047
48678SOL    HW247932   6.308   0.075  11.959
48679SOL     OW47933   7.964  14.151  10.931
48679SOL    HW147934   7.878  14.112  10.947
48679SOL    HW247935   7.950  14.245  10.938
48680SOL     OW47936  10.817  11.064  14.124
48680SOL    HW147937  10.858  11.010  14.056
48680SOL    HW247938  10.888  11.119  14.157
48681SOL     OW47939   0.940   0.223  11.073
48681SOL    HW147940   0.933   0.175  11.156
48681SOL    HW247941   1.030   0.207  11.044
48682SOL     OW47942   3.145  14.298  10.976
48682SOL    HW147943   3.142  14.347  11.058
48682SOL    HW247944   3.195  14.353  10.916
48683SOL     OW47945   3.266   1.682  13.130
48683SOL    HW147946   3.212   1.718  13.200
48683SOL    HW247947   3.297   1.758  13.081
48684SOL     OW47948  10.553   7.371   5.234
48684SOL    HW147949  10.486   7.341   5.295
48684SOL    HW247950  10.611   7.426   5.287
48685SOL     OW47951   8.835   9.648   2.839
48685SOL    HW147952   8.910   9.644   2.779
48685SOL    HW247953   8.788   9.727   2.813
48686SOL     OW47954   2.483   3.610   4.217
48686SOL    HW147955   2.423   3.574   4.283
48686SOL    HW247956   2.463   3.560   4.138
48687SOL     OW47957  10.860   9.711  11.705
48687SOL    HW147958  10.795   9.760  11.654
48687SOL    HW247959  10.812   9.637  11.741
48688SOL     OW47960   8.657  12.728   2.677
48688SOL    HW147961   8.588  12.666   2.698
48688SOL    HW247962   8.631  12.766   2.593
48689SOL     OW47963  13.786   5.349  12.605
48689SOL    HW147964  13.792   5.297  12.524
48689SOL    HW247965  13.827   5.293  12.671
48690SOL     OW47966   9.935   0.290  12.048
48690SOL    HW147967   9.985   0.371  12.058
48690SOL    HW247968   9.877   0.306  11.974
48691SOL     OW47969   0.661  14.652  12.077
48691SOL    HW147970   0.602  14.654  12.151
48691SOL    HW247971   0.713  14.733  12.085
48692SOL     OW47972   7.011   8.325   7.619
48692SOL    HW147973   7.025   8.234   7.646
48692SOL    HW247974   7.095   8.368   7.635
48693SOL     OW47975   5.488  11.938   4.094
48693SOL    HW147976   5.552  11.882   4.050
48693SOL    HW247977   5.405  11.892   4.082
48694SOL     OW47978   7.599  10.109   8.666
48694SOL    HW147979   7.642  10.111   8.751
48694SOL    HW247980   7.671  10.111   8.603
48695SOL     OW47981   8.003   0.570   9.227
48695SOL    HW147982   7.920   0.594   9.186
48695SOL    HW247983   8.069   0.618   9.176
48696SOL     OW47984   2.169   6.268   9.292
48696SOL    HW147985   2.220   6.261   9.373
48696SOL    HW247986   2.233   6.252   9.223
48697SOL     OW47987  10.897  14.310   3.558
48697SOL    HW147988  10.929  14.221   3.542
48697SOL    HW247989  10.841  14.329   3.482
48698SOL     OW47990   5.582  14.411  14.860
48698SOL    HW147991   5.516  14.346   0.014
48698SOL    HW247992   5.533  14.476  14.810
48699SOL     OW47993   4.904   6.971   9.006
48699SOL    HW147994   4.967   7.012   8.946
48699SOL    HW247995   4.956   6.910   9.057
48700SOL     OW47996   5.376   0.537  13.791
48700SOL    HW147997   5.342   0.507  13.875
48700SOL    HW247998   5.469   0.553  13.807
48701SOL     OW47999   1.571   8.909   3.266
48701SOL    HW148000   1.576   8.907   3.361
48701SOL    HW248001   1.634   8.976   3.239
48702SOL     OW48002   5.019  12.121   6.869
48702SOL    HW148003   5.087  12.075   6.819
48702SOL    HW248004   4.949  12.056   6.879
48703SOL     OW48005   2.837   4.007   6.843
48703SOL    HW148006   2.837   4.102   6.853
48703SOL    HW248007   2.923   3.980   6.876
48704SOL     OW48008   1.854   4.269   2.448
48704SOL    HW148009   1.830   4.298   2.536
48704SOL    HW248010   1.934   4.317   2.427
48705SOL     OW48011   6.478  10.134  13.038
48705SOL    HW148012   6.429  10.159  13.116
48705SOL    HW248013   6.568  10.159  13.058
48706SOL     OW48014  14.319   2.294  12.739
48706SOL    HW148015  14.252   2.238  12.778
48706SOL    HW248016  14.343   2.355  12.810
48707SOL     OW48017   9.842   3.402  13.966
48707SOL    HW148018   9.762   3.361  13.998
48707SOL    HW248019   9.912   3.350  14.005
48708SOL     OW48020   0.811   1.972   7.734
48708SOL    HW148021   0.903   1.964   7.758
48708SOL    HW248022   0.782   1.882   7.717
48709SOL     OW48023  12.619   3.769   0.897
48709SOL    HW148024  12.568   3.848   0.912
48709SOL    HW248025  12.649   3.776   0.806
48710SOL     OW48026   4.600   6.845  14.167
48710SOL    HW148027   4.527   6.898  14.136
48710SOL    HW248028   4.622   6.882  14.252
48711SOL     OW48029  10.563   3.315   2.018
48711SOL    HW148030  10.577   3.277   1.931
48711SOL    HW248031  10.584   3.408   2.007
48712SOL     OW48032   8.483  10.160   7.028
48712SOL    HW148033   8.567  10.199   7.054
48712SOL    HW248034   8.499  10.065   7.032
48713SOL     OW48035   8.075   7.276  13.837
48713SOL    HW148036   8.075   7.206  13.903
48713SOL    HW248037   8.051   7.231  13.756
48714SOL     OW48038  12.205   0.329   1.273
48714SOL    HW148039  12.136   0.290   1.220
48714SOL    HW248040  12.286   0.295   1.236
48715SOL     OW48041  12.858   0.998   9.705
48715SOL    HW148042  12.932   1.057   9.720
48715SOL    HW248043  12.783   1.057   9.693
48716SOL     OW48044  10.349   8.742   5.093
48716SOL    HW148045  10.439   8.769   5.113
48716SOL    HW248046  10.357   8.650   5.066
48717SOL     OW48047   3.840  12.441   7.082
48717SOL    HW148048   3.919  12.395   7.112
48717SOL    HW248049   3.783  12.371   7.050
48718SOL     OW48050  12.156  11.696   5.708
48718SOL    HW148051  12.184  11.788   5.709
48718SOL    HW248052  12.105  11.686   5.788
48719SOL     OW48053   5.170   5.151   4.235
48719SOL    HW148054   5.252   5.200   4.242
48719SOL    HW248055   5.106   5.215   4.205
48720SOL     OW48056   0.445   4.474   1.424
48720SOL    HW148057   0.506   4.407   1.393
48720SOL    HW248058   0.502   4.545   1.453
48721SOL     OW48059   9.302   1.090   7.952
48721SOL    HW148060   9.290   1.079   7.858
48721SOL    HW248061   9.385   1.137   7.960
48722SOL     OW48062   8.157  13.420   4.911
48722SOL    HW148063   8.149  13.333   4.871
48722SOL    HW248064   8.249  13.425   4.937
48723SOL     OW48065   8.125   3.970   5.169
48723SOL    HW148066   8.166   3.885   5.153
48723SOL    HW248067   8.136   4.018   5.087
48724SOL     OW48068  10.292   1.804  10.547
48724SOL    HW148069  10.274   1.750  10.470
48724SOL    HW248070  10.386   1.794  10.562
48725SOL     OW48071  14.617   2.417   0.027
48725SOL    HW148072  14.564   2.495   0.042
48725SOL    HW248073  14.704   2.450   0.004
48726SOL     OW48074   1.063   0.910   1.200
48726SOL    HW148075   1.031   0.905   1.109
48726SOL    HW248076   0.999   0.859   1.250
48727SOL     OW48077  10.993   5.724  14.489
48727SOL    HW148078  10.942   5.684  14.418
48727SOL    HW248079  11.084   5.712  14.462
48728SOL     OW48080  10.938   8.205   2.276
48728SOL    HW148081  10.993   8.279   2.303
48728SOL    HW248082  10.871   8.244   2.219
48729SOL     OW48083  11.880   3.400  11.775
48729SOL    HW148084  11.919   3.320  11.811
48729SOL    HW248085  11.879   3.461  11.849
48730SOL     OW48086   3.606   9.829  13.654
48730SOL    HW148087   3.545   9.887  13.608
48730SOL    HW248088   3.693   9.858  13.626
48731SOL     OW48089   3.469   7.743  13.349
48731SOL    HW148090   3.383   7.737  13.307
48731SOL    HW248091   3.529   7.702  13.287
48732SOL     OW48092   1.116   2.804   9.258
48732SOL    HW148093   1.101   2.898   9.260
48732SOL    HW248094   1.196   2.792   9.207
48733SOL     OW48095   1.569  11.011  13.144
48733SOL    HW148096   1.596  10.974  13.229
48733SOL    HW248097   1.481  11.046  13.161
48734SOL     OW48098   6.338  11.877  13.597
48734SOL    HW148099   6.263  11.932  13.576
48734SOL    HW248100   6.335  11.868  13.693
48735SOL     OW48101   4.384  11.775  12.456
48735SOL    HW148102   4.342  11.770  12.370
48735SOL    HW248103   4.382  11.685  12.489
48736SOL     OW48104  11.626   0.370   0.960
48736SOL    HW148105  11.606   0.447   1.014
48736SOL    HW248106  11.571   0.381   0.882
48737SOL     OW48107  13.116   5.219   3.101
48737SOL    HW148108  13.070   5.270   3.167
48737SOL    HW248109  13.050   5.200   3.034
48738SOL     OW48110   9.681  12.140   1.954
48738SOL    HW148111   9.748  12.096   2.007
48738SOL    HW248112   9.655  12.075   1.889
48739SOL     OW48113   9.845  11.603   6.203
48739SOL    HW148114   9.870  11.631   6.291
48739SOL    HW248115   9.906  11.649   6.145
48740SOL     OW48116   1.421   3.368   0.790
48740SOL    HW148117   1.347   3.426   0.806
48740SOL    HW248118   1.420   3.354   0.695
48741SOL     OW48119  10.908  13.324  14.097
48741SOL    HW148120  10.889  13.309  14.004
48741SOL    HW248121  10.994  13.366  14.096
48742SOL     OW48122  12.691   5.468   7.645
48742SOL    HW148123  12.651   5.384   7.668
48742SOL    HW248124  12.669   5.526   7.718
48743SOL     OW48125  12.706   3.829   7.577
48743SOL    HW148126  12.708   3.859   7.486
48743SOL    HW248127  12.757   3.895   7.625
48744SOL     OW48128  13.037   3.225   7.676
48744SOL    HW148129  13.063   3.240   7.767
48744SOL    HW248130  12.963   3.164   7.682
48745SOL     OW48131   6.947   8.345  14.469
48745SOL    HW148132   6.966   8.257  14.502
48745SOL    HW248133   6.902   8.388  14.542
48746SOL     OW48134  14.658   1.829   3.398
48746SOL    HW148135  14.647   1.735   3.384
48746SOL    HW248136  14.717   1.836   3.473
48747SOL     OW48137   8.538   1.713  14.421
48747SOL    HW148138   8.588   1.646  14.375
48747SOL    HW248139   8.520   1.676  14.507
48748SOL     OW48140   0.748   1.165   1.328
48748SOL    HW148141   0.656   1.167   1.353
48748SOL    HW248142   0.752   1.216   1.247
48749SOL     OW48143  13.560   8.904  13.901
48749SOL    HW148144  13.607   8.837  13.851
48749SOL    HW248145  13.592   8.893  13.991
48750SOL     OW48146   6.137   3.457  12.091
48750SOL    HW148147   6.065   3.477  12.150
48750SOL    HW248148   6.143   3.361  12.092
48751SOL     OW48149   4.661   3.972  14.012
48751SOL    HW148150   4.639   4.064  14.026
48751SOL    HW248151   4.646   3.930  14.097
48752SOL     OW48152   8.869  12.436   4.712
48752SOL    HW148153   8.921  12.510   4.679
48752SOL    HW248154   8.820  12.473   4.786
48753SOL     OW48155  12.516   2.386   1.786
48753SOL    HW148156  12.523   2.405   1.693
48753SOL    HW248157  12.595   2.424   1.824
48754SOL     OW48158  10.336  12.845  12.401
48754SOL    HW148159  10.291  12.795  12.469
48754SOL    HW248160  10.418  12.872  12.441
48755SOL     OW48161  12.356   6.087   9.645
48755SOL    HW148162  12.381   6.011   9.699
48755SOL    HW248163  12.436   6.138   9.636
48756SOL     OW48164   1.868   7.723   6.886
48756SOL    HW148165   1.844   7.812   6.912
48756SOL    HW248166   1.810   7.667   6.937
48757SOL     OW48167   1.233   4.498   0.250
48757SOL    HW148168   1.314   4.458   0.282
48757SOL    HW248169   1.244   4.502   0.155
48758SOL     OW48170   0.678   8.707  10.477
48758SOL    HW148171   0.729   8.629  10.500
48758SOL    HW248172   0.643   8.738  10.560
48759SOL     OW48173  10.015   9.259   0.050
48759SOL    HW148174  10.078   9.238  14.853
48759SOL    HW248175   9.957   9.324   0.010
48760SOL     OW48176  13.408   7.118   2.485
48760SOL    HW148177  13.382   7.176   2.413
48760SOL    HW248178  13.332   7.116   2.543
48761SOL     OW48179   9.279   6.875   5.776
48761SOL    HW148180   9.299   6.962   5.740
48761SOL    HW248181   9.361   6.845   5.814
48762SOL     OW48182   9.211  13.472   7.881
48762SOL    HW148183   9.211  13.467   7.976
48762SOL    HW248184   9.227  13.382   7.853
48763SOL     OW48185  14.797  13.871   8.535
48763SOL    HW148186   0.009  13.888   8.578
48763SOL    HW248187  14.805  13.912   8.449
48764SOL     OW48188   1.786  13.519   0.954
48764SOL    HW148189   1.829  13.576   0.891
48764SOL    HW248190   1.789  13.432   0.914
48765SOL     OW48191   8.876   9.328   4.064
48765SOL    HW148192   8.828   9.273   4.127
48765SOL    HW248193   8.878   9.276   3.983
48766SOL     OW48194   8.597   4.837   7.794
48766SOL    HW148195   8.658   4.765   7.780
48766SOL    HW248196   8.541   4.807   7.866
48767SOL     OW48197   1.813   8.164   2.406
48767SOL    HW148198   1.748   8.234   2.409
48767SOL    HW248199   1.816   8.138   2.314
48768SOL     OW48200   0.028   7.647  13.046
48768SOL    HW148201  14.832   7.638  12.980
48768SOL    HW248202   0.102   7.599  13.011
48769SOL     OW48203   1.855   9.329   2.272
48769SOL    HW148204   1.914   9.305   2.200
48769SOL    HW248205   1.877   9.268   2.342
48770SOL     OW48206   6.833   7.519   3.153
48770SOL    HW148207   6.766   7.476   3.100
48770SOL    HW248208   6.874   7.582   3.093
48771SOL     OW48209  13.235   3.126   9.695
48771SOL    HW148210  13.221   3.042   9.653
48771SOL    HW248211  13.240   3.106   9.789
48772SOL     OW48212   2.176   6.587  12.990
48772SOL    HW148213   2.223   6.564  13.070
48772SOL    HW248214   2.244   6.615  12.929
48773SOL     OW48215   8.974   5.332  12.929
48773SOL    HW148216   8.889   5.370  12.952
48773SOL    HW248217   9.022   5.403  12.888
48774SOL     OW48218  10.051   2.930   0.265
48774SOL    HW148219  10.086   2.862   0.322
48774SOL    HW248220   9.966   2.896   0.237
48775SOL     OW48221   4.648   6.331   9.728
48775SOL    HW148222   4.580   6.364   9.669
48775SOL    HW248223   4.599   6.297   9.803
48776SOL     OW48224   7.283   0.648  14.538
48776SOL    HW148225   7.245   0.694  14.463
48776SOL    HW248226   7.317   0.566  14.501
48777SOL     OW48227   3.286  14.038  12.821
48777SOL    HW148228   3.345  14.108  12.847
48777SOL    HW248229   3.269  14.055  12.728
48778SOL     OW48230   9.226   3.237  11.767
48778SOL    HW148231   9.173   3.298  11.717
48778SOL    HW248232   9.184   3.235  11.854
48779SOL     OW48233   2.799   2.474   2.825
48779SOL    HW148234   2.724   2.447   2.877
48779SOL    HW248235   2.786   2.567   2.810
48780SOL     OW48236  11.848   4.345  13.363
48780SOL    HW148237  11.882   4.433  13.379
48780SOL    HW248238  11.759   4.347  13.396
48781SOL     OW48239   7.318   5.849   4.692
48781SOL    HW148240   7.316   5.895   4.776
48781SOL    HW248241   7.268   5.768   4.707
48782SOL     OW48242  11.143   8.846  11.984
48782SOL    HW148243  11.236   8.821  11.984
48782SOL    HW248244  11.130   8.890  12.068
48783SOL     OW48245   4.471  14.705   6.738
48783SOL    HW148246   4.544  14.767   6.745
48783SOL    HW248247   4.505  14.633   6.685
48784SOL     OW48248  11.180   4.709   8.384
48784SOL    HW148249  11.221   4.715   8.470
48784SOL    HW248250  11.091   4.677   8.402
48785SOL     OW48251   8.464   1.651   6.458
48785SOL    HW148252   8.531   1.708   6.419
48785SOL    HW248253   8.408   1.626   6.385
48786SOL     OW48254   5.604   2.202  14.618
48786SOL    HW148255   5.662   2.245  14.555
48786SOL    HW248256   5.537   2.160  14.565
48787SOL     OW48257   8.915   6.313   4.242
48787SOL    HW148258   8.858   6.338   4.169
48787SOL    HW248259   9.001   6.298   4.202
48788SOL     OW48260  11.596   8.452   7.325
48788SOL    HW148261  11.524   8.481   7.381
48788SOL    HW248262  11.564   8.466   7.235
48789SOL     OW48263   6.838  12.159   8.251
48789SOL    HW148264   6.756  12.111   8.249
48789SOL    HW248265   6.905  12.093   8.230
48790SOL     OW48266  11.895  11.818   5.566
48790SOL    HW148267  11.807  11.848   5.541
48790SOL    HW248268  11.903  11.840   5.659
48791SOL     OW48269   1.129   7.165   4.967
48791SOL    HW148270   1.156   7.207   5.049
48791SOL    HW248271   1.088   7.084   4.994
48792SOL     OW48272   1.377   5.040  11.692
48792SOL    HW148273   1.332   5.094  11.757
48792SOL    HW248274   1.397   4.959  11.739
48793SOL     OW48275  14.365   3.848   3.584
48793SOL    HW148276  14.363   3.823   3.677
48793SOL    HW248277  14.360   3.944   3.586
48794SOL     OW48278   2.580   9.051  12.044
48794SOL    HW148279   2.669   9.085  12.055
48794SOL    HW248280   2.587   8.986  11.975
48795SOL     OW48281   5.313   4.450   7.893
48795SOL    HW148282   5.243   4.387   7.911
48795SOL    HW248283   5.268   4.533   7.877
48796SOL     OW48284  12.338   8.592  13.807
48796SOL    HW148285  12.312   8.508  13.770
48796SOL    HW248286  12.309   8.588  13.899
48797SOL     OW48287   3.142  11.822   0.636
48797SOL    HW148288   3.201  11.897   0.650
48797SOL    HW248289   3.054  11.861   0.633
48798SOL     OW48290   1.188  14.740   0.401
48798SOL    HW148291   1.109  14.690   0.424
48798SOL    HW248292   1.260  14.686   0.432
48799SOL     OW48293  13.936  12.370   5.033
48799SOL    HW148294  13.898  12.369   5.121
48799SOL    HW248295  13.937  12.278   5.007
48800SOL     OW48296   8.827  11.172  13.316
48800SOL    HW148297   8.856  11.250  13.363
48800SOL    HW248298   8.757  11.135  13.370
48801SOL     OW48299   3.284   9.451  13.293
48801SOL    HW148300   3.289   9.442  13.198
48801SOL    HW248301   3.304   9.543  13.310
48802SOL     OW48302  10.864  11.873   0.972
48802SOL    HW148303  10.822  11.796   0.935
48802SOL    HW248304  10.950  11.877   0.929
48803SOL     OW48305  13.285   1.829   8.900
48803SOL    HW148306  13.359   1.790   8.947
48803SOL    HW248307  13.305   1.815   8.808
48804SOL     OW48308   6.826  11.311   7.371
48804SOL    HW148309   6.805  11.262   7.450
48804SOL    HW248310   6.821  11.246   7.300
48805SOL     OW48311  12.426   7.426   7.630
48805SOL    HW148312  12.392   7.386   7.710
48805SOL    HW248313  12.507   7.379   7.612
48806SOL     OW48314   9.632  10.099  14.498
48806SOL    HW148315   9.668  10.122  14.412
48806SOL    HW248316   9.541  10.075  14.481
48807SOL     OW48317   8.544  13.887   6.570
48807SOL    HW148318   8.590  13.970   6.584
48807SOL    HW248319   8.590  13.846   6.496
48808SOL     OW48320  13.518   2.239   7.861
48808SOL    HW148321  13.526   2.246   7.766
48808SOL    HW248322  13.428   2.266   7.880
48809SOL     OW48323   1.114   3.929   0.335
48809SOL    HW148324   1.092   4.020   0.317
48809SOL    HW248325   1.037   3.880   0.306
48810SOL     OW48326   7.608   9.245   7.058
48810SOL    HW148327   7.621   9.183   6.986
48810SOL    HW248328   7.597   9.191   7.136
48811SOL     OW48329  10.995   5.197   9.528
48811SOL    HW148330  10.960   5.109   9.515
48811SOL    HW248331  11.033   5.195   9.616
48812SOL     OW48332  13.424  12.737   9.875
48812SOL    HW148333  13.434  12.684   9.796
48812SOL    HW248334  13.492  12.804   9.869
48813SOL     OW48335  10.158   1.693   3.788
48813SOL    HW148336  10.084   1.705   3.848
48813SOL    HW248337  10.130   1.624   3.728
48814SOL     OW48338  14.300   3.436   8.599
48814SOL    HW148339  14.316   3.492   8.524
48814SOL    HW248340  14.287   3.349   8.562
48815SOL     OW48341   8.019   0.566   4.050
48815SOL    HW148342   8.084   0.622   4.006
48815SOL    HW248343   7.948   0.626   4.072
48816SOL     OW48344   9.192  10.481   2.872
48816SOL    HW148345   9.203  10.546   2.802
48816SOL    HW248346   9.196  10.532   2.953
48817SOL     OW48347  14.854   8.786  11.925
48817SOL    HW148348  14.869   8.768  12.017
48817SOL    HW248349  14.782   8.849  11.924
48818SOL     OW48350   8.574   2.373  12.510
48818SOL    HW148351   8.586   2.340  12.421
48818SOL    HW248352   8.481   2.392  12.517
48819SOL     OW48353  12.920  10.408  10.640
48819SOL    HW148354  12.910  10.345  10.569
48819SOL    HW248355  13.009  10.394  10.672
48820SOL     OW48356  14.087   2.058   8.857
48820SOL    HW148357  14.161   1.996   8.860
48820SOL    HW248358  14.067   2.074   8.949
48821SOL     OW48359   2.146   1.349   3.326
48821SOL    HW148360   2.212   1.284   3.351
48821SOL    HW248361   2.063   1.302   3.332
48822SOL     OW48362  11.786   3.022   7.986
48822SOL    HW148363  11.813   3.092   8.046
48822SOL    HW248364  11.699   3.048   7.957
48823SOL     OW48365   1.955   9.494   8.868
48823SOL    HW148366   2.041   9.453   8.882
48823SOL    HW248367   1.892   9.425   8.887
48824SOL     OW48368   5.549  12.100   6.659
48824SOL    HW148369   5.506  12.144   6.732
48824SOL    HW248370   5.477  12.074   6.601
48825SOL     OW48371   1.039   4.719   8.946
48825SOL    HW148372   1.038   4.665   8.866
48825SOL    HW248373   1.075   4.661   9.013
48826SOL     OW48374   2.678   8.820   5.005
48826SOL    HW148375   2.740   8.814   4.932
48826SOL    HW248376   2.669   8.730   5.037
48827SOL     OW48377   7.394   0.647  12.621
48827SOL    HW148378   7.383   0.674  12.713
48827SOL    HW248379   7.487   0.625  12.614
48828SOL     OW48380  13.537   6.878  12.586
48828SOL    HW148381  13.457   6.923  12.558
48828SOL    HW248382  13.513   6.836  12.669
48829SOL     OW48383   3.778   0.205  12.408
48829SOL    HW148384   3.752   0.279  12.462
48829SOL    HW248385   3.769   0.236  12.318
48830SOL     OW48386   5.988  12.746   7.409
48830SOL    HW148387   6.017  12.688   7.479
48830SOL    HW248388   5.995  12.834   7.447
48831SOL     OW48389   8.727   9.707  13.650
48831SOL    HW148390   8.807   9.700  13.701
48831SOL    HW248391   8.662   9.744  13.711
48832SOL     OW48392   4.408   8.763   7.556
48832SOL    HW148393   4.420   8.721   7.640
48832SOL    HW248394   4.342   8.831   7.572
48833SOL     OW48395   7.840   1.543   3.732
48833SOL    HW148396   7.844   1.470   3.671
48833SOL    HW248397   7.760   1.590   3.708
48834SOL     OW48398   1.073   4.593   3.621
48834SOL    HW148399   1.141   4.653   3.652
48834SOL    HW248400   0.991   4.636   3.646
48835SOL     OW48401   7.588   1.001   6.441
48835SOL    HW148402   7.571   0.908   6.458
48835SOL    HW248403   7.676   1.016   6.476
48836SOL     OW48404   5.124   1.037  12.337
48836SOL    HW148405   5.211   1.074  12.326
48836SOL    HW248406   5.064   1.109  12.318
48837SOL     OW48407   2.263   4.039   8.322
48837SOL    HW148408   2.322   4.038   8.247
48837SOL    HW248409   2.298   3.973   8.381
48838SOL     OW48410  12.490   2.241  10.600
48838SOL    HW148411  12.544   2.162  10.606
48838SOL    HW248412  12.546   2.311  10.633
48839SOL     OW48413   2.945  13.238   2.629
48839SOL    HW148414   3.040  13.238   2.622
48839SOL    HW248415   2.917  13.166   2.572
48840SOL     OW48416   4.022  11.913  10.791
48840SOL    HW148417   3.942  11.963  10.805
48840SOL    HW248418   4.033  11.863  10.871
48841SOL     OW48419   4.529   8.708   0.866
48841SOL    HW148420   4.516   8.682   0.775
48841SOL    HW248421   4.579   8.635   0.904
48842SOL     OW48422   5.445  10.903   2.475
48842SOL    HW148423   5.427  10.918   2.568
48842SOL    HW248424   5.436  10.809   2.463
48843SOL     OW48425   1.298   9.496   4.078
48843SOL    HW148426   1.371   9.435   4.081
48843SOL    HW248427   1.282   9.519   4.170
48844SOL     OW48428   2.609  12.561   6.872
48844SOL    HW148429   2.515  12.545   6.859
48844SOL    HW248430   2.650  12.522   6.796
48845SOL     OW48431  12.915   9.422  11.461
48845SOL    HW148432  12.988   9.360  11.463
48845SOL    HW248433  12.856   9.389  11.394
48846SOL     OW48434   1.444   9.963   2.769
48846SOL    HW148435   1.393   9.884   2.786
48846SOL    HW248436   1.512   9.936   2.707
48847SOL     OW48437  11.050  11.537   6.559
48847SOL    HW148438  11.035  11.455   6.512
48847SOL    HW248439  11.112  11.514   6.628
48848SOL     OW48440  12.756  13.847   3.486
48848SOL    HW148441  12.738  13.911   3.554
48848SOL    HW248442  12.684  13.856   3.424
48849SOL     OW48443   9.225  13.499   3.737
48849SOL    HW148444   9.257  13.428   3.792
48849SOL    HW248445   9.236  13.578   3.791
48850SOL     OW48446  13.137   6.130   3.087
48850SOL    HW148447  13.067   6.077   3.124
48850SOL    HW248448  13.129   6.215   3.129
48851SOL     OW48449  11.111   9.609   4.328
48851SOL    HW148450  11.042   9.619   4.262
48851SOL    HW248451  11.071   9.642   4.409
48852SOL     OW48452   2.818  11.058   1.593
48852SOL    HW148453   2.768  11.131   1.556
48852SOL    HW248454   2.771  10.980   1.564
48853SOL     OW48455   6.823   8.108  10.598
48853SOL    HW148456   6.746   8.139  10.644
48853SOL    HW248457   6.825   8.157  10.516
48854SOL     OW48458   4.269  13.610   6.509
48854SOL    HW148459   4.348  13.651   6.544
48854SOL    HW248460   4.197  13.662   6.545
48855SOL     OW48461  13.612   0.620   9.117
48855SOL    HW148462  13.695   0.663   9.137
48855SOL    HW248463  13.633   0.556   9.049
48856SOL     OW48464   4.704   7.192  14.681
48856SOL    HW148465   4.685   7.101  14.655
48856SOL    HW248466   4.618   7.230  14.698
48857SOL     OW48467  11.256  11.439  13.869
48857SOL    HW148468  11.295  11.400  13.791
48857SOL    HW248469  11.248  11.366  13.931
48858SOL     OW48470   8.534   3.730   5.532
48858SOL    HW148471   8.514   3.753   5.441
48858SOL    HW248472   8.590   3.801   5.563
48859SOL     OW48473  13.000   9.038  12.048
48859SOL    HW148474  12.967   8.954  12.079
48859SOL    HW248475  13.095   9.028  12.046
48860SOL     OW48476   2.170   5.358   7.233
48860SOL    HW148477   2.200   5.448   7.246
48860SOL    HW248478   2.075   5.365   7.230
48861SOL     OW48479   2.347  13.139   6.926
48861SOL    HW148480   2.332  13.225   6.886
48861SOL    HW248481   2.432  13.148   6.970
48862SOL     OW48482   0.136   4.068  10.573
48862SOL    HW148483   0.045   4.045  10.557
48862SOL    HW248484   0.158   4.128  10.502
48863SOL     OW48485   9.584  13.711   9.418
48863SOL    HW148486   9.563  13.778   9.353
48863SOL    HW248487   9.509  13.652   9.417
48864SOL     OW48488  13.822   6.694  11.966
48864SOL    HW148489  13.903   6.655  11.933
48864SOL    HW248490  13.841   6.714  12.058
48865SOL     OW48491   8.051   5.162   0.170
48865SOL    HW148492   8.030   5.237   0.227
48865SOL    HW248493   8.002   5.179   0.090
48866SOL     OW48494  13.347  13.733  10.464
48866SOL    HW148495  13.299  13.757  10.385
48866SOL    HW248496  13.384  13.647  10.444
48867SOL     OW48497  12.037   1.641   1.699
48867SOL    HW148498  11.968   1.584   1.665
48867SOL    HW248499  12.083   1.672   1.621
48868SOL     OW48500  14.354   0.599   2.971
48868SOL    HW148501  14.326   0.644   2.891
48868SOL    HW248502  14.278   0.604   3.029
48869SOL     OW48503   0.421   5.031  11.117
48869SOL    HW148504   0.426   4.949  11.069
48869SOL    HW248505   0.356   5.083  11.070
48870SOL     OW48506   9.554   0.526  14.654
48870SOL    HW148507   9.485   0.567  14.601
48870SOL    HW248508   9.518   0.525  14.743
48871SOL     OW48509   2.330   4.941   3.213
48871SOL    HW148510   2.274   4.974   3.284
48871SOL    HW248511   2.375   4.867   3.252
48872SOL     OW48512  10.483   4.111  10.499
48872SOL    HW148513  10.523   4.192  10.531
48872SOL    HW248514  10.473   4.125  10.405
48873SOL     OW48515   8.066  14.448   6.893
48873SOL    HW148516   8.143  14.421   6.944
48873SOL    HW248517   8.034  14.526   6.938
48874SOL     OW48518  11.891   9.945  13.567
48874SOL    HW148519  11.930   9.955  13.480
48874SOL    HW248520  11.797   9.953  13.551
48875SOL     OW48521   2.043   8.863  10.164
48875SOL    HW148522   2.100   8.940  10.170
48875SOL    HW248523   2.102   8.790  10.148
48876SOL     OW48524  13.913   1.609  13.326
48876SOL    HW148525  13.915   1.526  13.372
48876SOL    HW248526  13.930   1.587  13.235
48877SOL     OW48527   1.509   6.503   6.450
48877SOL    HW148528   1.511   6.587   6.497
48877SOL    HW248529   1.600   6.474   6.451
48878SOL     OW48530   6.276  13.661   4.349
48878SOL    HW148531   6.284  13.734   4.287
48878SOL    HW248532   6.195  13.680   4.396
48879SOL     OW48533  13.965  11.236  14.683
48879SOL    HW148534  13.875  11.212  14.661
48879SOL    HW248535  14.015  11.155  14.673
48880SOL     OW48536   3.114  11.931   9.451
48880SOL    HW148537   3.127  11.848   9.497
48880SOL    HW248538   3.182  11.988   9.486
48881SOL     OW48539  14.686   1.627   0.672
48881SOL    HW148540  14.605   1.582   0.647
48881SOL    HW248541  14.665   1.670   0.754
48882SOL     OW48542   7.606  10.107   3.907
48882SOL    HW148543   7.610  10.200   3.928
48882SOL    HW248544   7.697  10.080   3.899
48883SOL     OW48545  12.630   9.051   3.694
48883SOL    HW148546  12.623   9.141   3.725
48883SOL    HW248547  12.565   9.003   3.746
48884SOL     OW48548   9.324   8.050   1.161
48884SOL    HW148549   9.263   8.069   1.090
48884SOL    HW248550   9.290   7.971   1.202
48885SOL     OW48551   0.675   2.267   6.521
48885SOL    HW148552   0.721   2.185   6.505
48885SOL    HW248553   0.658   2.267   6.615
48886SOL     OW48554  14.533   1.198   1.382
48886SOL    HW148555  14.616   1.243   1.369
48886SOL    HW248556  14.467   1.263   1.357
48887SOL     OW48557  11.161   1.786  14.450
48887SOL    HW148558  11.122   1.747  14.372
48887SOL    HW248559  11.249   1.813  14.423
48888SOL     OW48560   3.916   4.956   3.372
48888SOL    HW148561   3.956   4.869   3.374
48888SOL    HW248562   3.822   4.940   3.370
48889SOL     OW48563   9.019   9.147   6.027
48889SOL    HW148564   9.067   9.072   6.063
48889SOL    HW248565   9.031   9.216   6.092
48890SOL     OW48566   8.834   4.980   0.281
48890SOL    HW148567   8.917   5.026   0.297
48890SOL    HW248568   8.788   4.984   0.365
48891SOL     OW48569   2.073  10.537  10.736
48891SOL    HW148570   2.003  10.544  10.671
48891SOL    HW248571   2.066  10.618  10.787
48892SOL     OW48572   9.306   7.532   1.111
48892SOL    HW148573   9.277   7.589   1.039
48892SOL    HW248574   9.308   7.590   1.188
48893SOL     OW48575   6.817   2.894  10.489
48893SOL    HW148576   6.889   2.945  10.453
48893SOL    HW248577   6.800   2.826  10.425
48894SOL     OW48578   7.475   7.788   6.375
48894SOL    HW148579   7.474   7.692   6.366
48894SOL    HW248580   7.535   7.804   6.449
48895SOL     OW48581   9.256   0.427  11.834
48895SOL    HW148582   9.351   0.433  11.833
48895SOL    HW248583   9.227   0.490  11.768
48896SOL     OW48584   7.446   2.366  14.274
48896SOL    HW148585   7.424   2.420  14.350
48896SOL    HW248586   7.523   2.407  14.235
48897SOL     OW48587   2.242  13.439   4.536
48897SOL    HW148588   2.197  13.373   4.484
48897SOL    HW248589   2.318  13.395   4.571
48898SOL     OW48590   2.940  12.204   3.891
48898SOL    HW148591   2.855  12.160   3.890
48898SOL    HW248592   2.955  12.225   3.983
48899SOL     OW48593  10.655  13.198  14.011
48899SOL    HW148594  10.704  13.240  14.082
48899SOL    HW248595  10.568  13.239  14.015
48900SOL     OW48596  13.841   2.051   4.717
48900SOL    HW148597  13.889   2.072   4.797
48900SOL    HW248598  13.765   2.110   4.718
48901SOL     OW48599  12.929   1.367   7.715
48901SOL    HW148600  12.872   1.407   7.649
48901SOL    HW248601  12.892   1.394   7.798
48902SOL     OW48602   0.254   3.873   6.681
48902SOL    HW148603   0.252   3.906   6.770
48902SOL    HW248604   0.317   3.929   6.635
48903SOL     OW48605   7.874   9.801   2.047
48903SOL    HW148606   7.961   9.765   2.066
48903SOL    HW248607   7.818   9.763   2.114
48904SOL     OW48608  13.323   3.755   9.920
48904SOL    HW148609  13.377   3.676   9.930
48904SOL    HW248610  13.358   3.798   9.842
48905SOL     OW48611  10.925   9.547   5.081
48905SOL    HW148612  11.018   9.524   5.074
48905SOL    HW248613  10.921   9.640   5.062
48906SOL     OW48614  10.859   5.789   8.142
48906SOL    HW148615  10.846   5.831   8.227
48906SOL    HW248616  10.925   5.843   8.099
48907SOL     OW48617   4.096   1.520  13.647
48907SOL    HW148618   4.184   1.538  13.615
48907SOL    HW248619   4.100   1.430  13.679
48908SOL     OW48620   2.374   7.578  11.708
48908SOL    HW148621   2.290   7.595  11.666
48908SOL    HW248622   2.367   7.489  11.741
48909SOL     OW48623   4.547  13.011   0.425
48909SOL    HW148624   4.507  12.954   0.360
48909SOL    HW248625   4.596  13.075   0.374
48910SOL     OW48626   3.219   7.892   7.606
48910SOL    HW148627   3.236   7.880   7.512
48910SOL    HW248628   3.140   7.842   7.622
48911SOL     OW48629   1.120   8.659   9.950
48911SOL    HW148630   1.075   8.704   9.879
48911SOL    HW248631   1.116   8.566   9.926
48912SOL     OW48632   9.849   3.555   1.641
48912SOL    HW148633   9.884   3.478   1.686
48912SOL    HW248634   9.795   3.599   1.706
48913SOL     OW48635   3.562  10.173   0.949
48913SOL    HW148636   3.499  10.112   0.987
48913SOL    HW248637   3.520  10.204   0.869
48914SOL     OW48638   1.972   0.352  13.003
48914SOL    HW148639   2.056   0.386  12.971
48914SOL    HW248640   1.996   0.280  13.061
48915SOL     OW48641   1.871  13.940   8.772
48915SOL    HW148642   1.884  13.862   8.719
48915SOL    HW248643   1.952  13.949   8.822
48916SOL     OW48644   1.621   5.118   1.485
48916SOL    HW148645   1.679   5.107   1.410
48916SOL    HW248646   1.643   5.205   1.520
48917SOL     OW48647   4.796   9.059   8.035
48917SOL    HW148648   4.772   9.129   8.096
48917SOL    HW248649   4.737   9.072   7.960
48918SOL     OW48650   3.828   7.845   6.383
48918SOL    HW148651   3.915   7.826   6.418
48918SOL    HW248652   3.835   7.828   6.290
48919SOL     OW48653  12.139   4.779   8.226
48919SOL    HW148654  12.193   4.700   8.225
48919SOL    HW248655  12.176   4.833   8.296
48920SOL     OW48656   9.456   5.384   0.055
48920SOL    HW148657   9.510   5.331   0.114
48920SOL    HW248658   9.441   5.328  14.851
48921SOL     OW48659   8.890   7.285   3.163
48921SOL    HW148660   8.821   7.347   3.142
48921SOL    HW248661   8.947   7.285   3.086
48922SOL     OW48662   6.215   2.382  13.302
48922SOL    HW148663   6.273   2.404  13.375
48922SOL    HW248664   6.200   2.288  13.310
48923SOL     OW48665   4.359   6.368   0.416
48923SOL    HW148666   4.366   6.275   0.437
48923SOL    HW248667   4.431   6.409   0.463
48924SOL     OW48668   7.811   6.237  13.569
48924SOL    HW148669   7.744   6.231  13.636
48924SOL    HW248670   7.794   6.162  13.511
48925SOL     OW48671   8.875  13.811   5.251
48925SOL    HW148672   8.912  13.851   5.329
48925SOL    HW248673   8.781  13.804   5.270
48926SOL     OW48674   6.949  11.821  11.750
48926SOL    HW148675   6.961  11.863  11.665
48926SOL    HW248676   6.869  11.769  11.740
48927SOL     OW48677  11.869   2.080  10.575
48927SOL    HW148678  11.843   2.083  10.667
48927SOL    HW248679  11.877   2.172  10.550
48928SOL     OW48680  14.116  11.229  14.047
48928SOL    HW148681  14.171  11.248  14.123
48928SOL    HW248682  14.051  11.166  14.080
48929SOL     OW48683   2.912  12.655  12.029
48929SOL    HW148684   2.886  12.746  12.035
48929SOL    HW248685   2.930  12.629  12.120
48930SOL     OW48686  13.936   8.751   2.173
48930SOL    HW148687  13.951   8.744   2.079
48930SOL    HW248688  13.973   8.670   2.209
48931SOL     OW48689   4.163  13.288   5.186
48931SOL    HW148690   4.205  13.207   5.215
48931SOL    HW248691   4.102  13.310   5.257
48932SOL     OW48692   6.684  12.983   9.576
48932SOL    HW148693   6.616  12.984   9.509
48932SOL    HW248694   6.684  12.893   9.609
48933SOL     OW48695   3.369  10.806   7.938
48933SOL    HW148696   3.462  10.817   7.959
48933SOL    HW248697   3.325  10.880   7.980
48934SOL     OW48698  13.309   8.331  10.821
48934SOL    HW148699  13.321   8.332  10.726
48934SOL    HW248700  13.254   8.255  10.837
48935SOL     OW48701   5.922   0.093   0.558
48935SOL    HW148702   5.871   0.013   0.567
48935SOL    HW248703   5.890   0.133   0.477
48936SOL     OW48704   1.888   3.424   2.109
48936SOL    HW148705   1.798   3.398   2.087
48936SOL    HW248706   1.901   3.506   2.062
48937SOL     OW48707   6.572  13.256  12.161
48937SOL    HW148708   6.493  13.297  12.196
48937SOL    HW248709   6.639  13.274  12.227
48938SOL     OW48710   2.652  13.997   7.849
48938SOL    HW148711   2.742  13.976   7.874
48938SOL    HW248712   2.601  13.982   7.928
48939SOL     OW48713   8.493   6.268  10.214
48939SOL    HW148714   8.496   6.176  10.189
48939SOL    HW248715   8.553   6.274  10.289
48940SOL     OW48716   7.865   0.736  11.027
48940SOL    HW148717   7.892   0.671  10.962
48940SOL    HW248718   7.775   0.758  11.004
48941SOL     OW48719  13.333  11.051   0.343
48941SOL    HW148720  13.310  11.118   0.278
48941SOL    HW248721  13.398  10.997   0.298
48942SOL     OW48722  10.811  14.852   1.965
48942SOL    HW148723  10.875  14.796   1.920
48942SOL    HW248724  10.805  14.815   2.053
48943SOL     OW48725   1.154   3.875  14.484
48943SOL    HW148726   1.229   3.869  14.425
48943SOL    HW248727   1.100   3.944  14.446
48944SOL     OW48728  10.627   9.259  10.569
48944SOL    HW148729  10.693   9.327  10.584
48944SOL    HW248730  10.670   9.179  10.599
48945SOL     OW48731  14.511   0.095   8.316
48945SOL    HW148732  14.463   0.131   8.391
48945SOL    HW248733  14.555   0.017   8.351
48946SOL     OW48734   5.832   3.092  11.983
48946SOL    HW148735   5.879   3.168  12.017
48946SOL    HW248736   5.810   3.116  11.893
48947SOL     OW48737  12.654  13.139  13.775
48947SOL    HW148738  12.742  13.175  13.784
48947SOL    HW248739  12.668  13.047  13.753
48948SOL     OW48740   3.942   5.077   0.124
48948SOL    HW148741   3.869   5.016   0.110
48948SOL    HW248742   3.902   5.164   0.118
48949SOL     OW48743   3.307   1.528   6.141
48949SOL    HW148744   3.267   1.615   6.148
48949SOL    HW248745   3.363   1.521   6.219
48950SOL     OW48746   5.811  12.004   5.828
48950SOL    HW148747   5.902  11.977   5.817
48950SOL    HW248748   5.794  12.063   5.755
48951SOL     OW48749   1.265   4.540   7.131
48951SOL    HW148750   1.334   4.479   7.155
48951SOL    HW248751   1.276   4.614   7.191
48952SOL     OW48752   8.141  14.740  10.359
48952SOL    HW148753   8.226  14.704  10.385
48952SOL    HW248754   8.118  14.800  10.429
48953SOL     OW48755  12.600   2.943   2.159
48953SOL    HW148756  12.615   2.962   2.252
48953SOL    HW248757  12.649   2.862   2.144
48954SOL     OW48758   2.378  14.157   6.112
48954SOL    HW148759   2.337  14.105   6.042
48954SOL    HW248760   2.468  14.125   6.116
48955SOL     OW48761  10.067   5.290   8.623
48955SOL    HW148762  10.126   5.253   8.558
48955SOL    HW248763  10.124   5.329   8.689
48956SOL     OW48764   6.549  12.251   2.679
48956SOL    HW148765   6.475  12.311   2.667
48956SOL    HW248766   6.550  12.198   2.600
48957SOL     OW48767  12.488   5.959  13.649
48957SOL    HW148768  12.416   5.899  13.626
48957SOL    HW248769  12.526   5.921  13.728
48958SOL     OW48770   6.973  11.980   8.942
48958SOL    HW148771   7.066  11.966   8.962
48958SOL    HW248772   6.968  12.070   8.910
48959SOL     OW48773   6.686   1.939   4.535
48959SOL    HW148774   6.698   1.950   4.630
48959SOL    HW248775   6.593   1.955   4.521
48960SOL     OW48776  11.778   2.686  10.035
48960SOL    HW148777  11.815   2.770  10.008
48960SOL    HW248778  11.697   2.709  10.080
48961SOL     OW48779   0.439   1.569  12.962
48961SOL    HW148780   0.421   1.632  13.032
48961SOL    HW248781   0.355   1.524  12.949
48962SOL     OW48782   7.278   4.225  12.952
48962SOL    HW148783   7.184   4.230  12.936
48962SOL    HW248784   7.286   4.168  13.029
48963SOL     OW48785   1.580  12.536   0.841
48963SOL    HW148786   1.574  12.471   0.911
48963SOL    HW248787   1.589  12.620   0.887
48964SOL     OW48788  10.209   1.106  12.137
48964SOL    HW148789  10.237   1.193  12.166
48964SOL    HW248790  10.242   1.099  12.047
48965SOL     OW48791  11.771  12.450  11.356
48965SOL    HW148792  11.768  12.480  11.446
48965SOL    HW248793  11.792  12.528  11.305
48966SOL     OW48794   4.253   2.940   6.303
48966SOL    HW148795   4.324   2.914   6.361
48966SOL    HW248796   4.237   2.863   6.249
48967SOL     OW48797   8.564   0.572   4.391
48967SOL    HW148798   8.592   0.552   4.480
48967SOL    HW248799   8.481   0.526   4.381
48968SOL     OW48800   6.322   5.121  10.885
48968SOL    HW148801   6.408   5.130  10.846
48968SOL    HW248802   6.264   5.098  10.812
48969SOL     OW48803   1.444   9.500  11.420
48969SOL    HW148804   1.507   9.572  11.411
48969SOL    HW248805   1.370   9.526  11.365
48970SOL     OW48806   0.124   4.085   5.470
48970SOL    HW148807   0.079   4.068   5.387
48970SOL    HW248808   0.059   4.130   5.524
48971SOL     OW48809   6.936  11.415   1.555
48971SOL    HW148810   7.006  11.408   1.620
48971SOL    HW248811   6.979  11.392   1.472
48972SOL     OW48812   3.733   9.923   6.355
48972SOL    HW148813   3.725   9.840   6.401
48972SOL    HW248814   3.685   9.985   6.409
48973SOL     OW48815   6.684   1.511   9.183
48973SOL    HW148816   6.623   1.526   9.255
48973SOL    HW248817   6.733   1.594   9.175
48974SOL     OW48818   4.691  12.271  10.939
48974SOL    HW148819   4.597  12.273  10.955
48974SOL    HW248820   4.708  12.351  10.889
48975SOL     OW48821   0.058   6.096   5.520
48975SOL    HW148822   0.106   6.023   5.560
48975SOL    HW248823  14.864   6.054   5.465
48976SOL     OW48824   3.303   1.461   8.624
48976SOL    HW148825   3.260   1.496   8.702
48976SOL    HW248826   3.252   1.495   8.551
48977SOL     OW48827  10.230   1.948   9.811
48977SOL    HW148828  10.230   2.038   9.778
48977SOL    HW248829  10.191   1.896   9.741
48978SOL     OW48830   6.305  11.327   6.829
48978SOL    HW148831   6.323  11.238   6.799
48978SOL    HW248832   6.334  11.383   6.757
48979SOL     OW48833   4.946   1.468   4.422
48979SOL    HW148834   4.999   1.412   4.479
48979SOL    HW248835   4.878   1.503   4.480
48980SOL     OW48836   2.734   2.814  11.043
48980SOL    HW148837   2.725   2.758  10.965
48980SOL    HW248838   2.749   2.752  11.114
48981SOL     OW48839   1.409   3.673   8.616
48981SOL    HW148840   1.380   3.583   8.630
48981SOL    HW248841   1.490   3.665   8.565
48982SOL     OW48842   8.016   6.081   5.881
48982SOL    HW148843   7.925   6.100   5.905
48982SOL    HW248844   8.068   6.120   5.951
48983SOL     OW48845  10.649   8.645  10.582
48983SOL    HW148846  10.589   8.635  10.656
48983SOL    HW248847  10.669   8.555  10.555
48984SOL     OW48848  12.879   0.766   3.165
48984SOL    HW148849  12.916   0.838   3.114
48984SOL    HW248850  12.954   0.726   3.210
48985SOL     OW48851   0.002   5.284  10.858
48985SOL    HW148852   0.060   5.267  10.783
48985SOL    HW248853  14.869   5.379  10.864
48986SOL     OW48854  12.139  10.038   5.931
48986SOL    HW148855  12.053  10.033   5.972
48986SOL    HW248856  12.190   9.968   5.971
48987SOL     OW48857  11.215   3.269  14.657
48987SOL    HW148858  11.191   3.209  14.586
48987SOL    HW248859  11.236   3.212  14.731
48988SOL     OW48860   7.194   6.837  11.749
48988SOL    HW148861   7.246   6.916  11.735
48988SOL    HW248862   7.106   6.869  11.766
48989SOL     OW48863  12.806  11.541  14.748
48989SOL    HW148864  12.885  11.580  14.711
48989SOL    HW248865  12.735  11.595  14.715
48990SOL     OW48866   8.032   0.405   4.924
48990SOL    HW148867   8.089   0.334   4.953
48990SOL    HW248868   7.948   0.364   4.907
48991SOL     OW48869   3.216   1.194   5.473
48991SOL    HW148870   3.256   1.225   5.555
48991SOL    HW248871   3.122   1.206   5.485
48992SOL     OW48872   6.343   3.024   4.391
48992SOL    HW148873   6.342   3.112   4.353
48992SOL    HW248874   6.363   2.967   4.317
48993SOL     OW48875   1.857   0.483   4.841
48993SOL    HW148876   1.896   0.413   4.894
48993SOL    HW248877   1.930   0.540   4.820
48994SOL     OW48878   1.692   4.086  10.795
48994SOL    HW148879   1.610   4.060  10.836
48994SOL    HW248880   1.754   4.017  10.818
48995SOL     OW48881   6.951  12.240   7.595
48995SOL    HW148882   6.923  12.307   7.657
48995SOL    HW248883   6.873  12.187   7.579
48996SOL     OW48884   8.854  11.706  10.711
48996SOL    HW148885   8.827  11.680  10.623
48996SOL    HW248886   8.894  11.792  10.699
48997SOL     OW48887   1.506   5.770   6.264
48997SOL    HW148888   1.515   5.682   6.302
48997SOL    HW248889   1.527   5.829   6.337
48998SOL     OW48890  10.282   5.624  11.020
48998SOL    HW148891  10.292   5.713  10.988
48998SOL    HW248892  10.226   5.581  10.955
48999SOL     OW48893   9.274   5.768   2.356
48999SOL    HW148894   9.202   5.749   2.416
48999SOL    HW248895   9.263   5.705   2.284
49000SOL     OW48896  14.800   7.476   4.129
49000SOL    HW148897   0.019   7.505   4.129
49000SOL    HW248898  14.805   7.381   4.129
49001SOL     OW48899  12.399   8.473   6.620
49001SOL    HW148900  12.312   8.506   6.594
49001SOL    HW248901  12.460   8.524   6.566
49002SOL     OW48902  10.133  14.366   0.769
49002SOL    HW148903  10.049  14.389   0.731
49002SOL    HW248904  10.118  14.370   0.864
49003SOL     OW48905  11.459   6.649   1.629
49003SOL    HW148906  11.398   6.578   1.611
49003SOL    HW248907  11.496   6.628   1.715
49004SOL     OW48908   2.496   4.835   9.106
49004SOL    HW148909   2.467   4.889   9.179
49004SOL    HW248910   2.491   4.893   9.030
49005SOL     OW48911   6.452  10.056   5.204
49005SOL    HW148912   6.452  10.033   5.297
49005SOL    HW248913   6.494  10.142   5.199
49006SOL     OW48914  10.460   4.619  12.376
49006SOL    HW148915  10.399   4.545  12.376
49006SOL    HW248916  10.457   4.652  12.465
49007SOL     OW48917   0.225   2.367   9.241
49007SOL    HW148918   0.224   2.350   9.336
49007SOL    HW248919   0.263   2.454   9.233
49008SOL     OW48920   8.091   6.107   3.477
49008SOL    HW148921   8.042   6.179   3.517
49008SOL    HW248922   8.176   6.109   3.523
49009SOL     OW48923   3.399  14.436  10.424
49009SOL    HW148924   3.374  14.344  10.417
49009SOL    HW248925   3.368  14.463  10.510
49010SOL     OW48926   4.822  10.716   7.665
49010SOL    HW148927   4.873  10.797   7.657
49010SOL    HW248928   4.885  10.650   7.695
49011SOL     OW48929   3.504   3.196   5.349
49011SOL    HW148930   3.467   3.147   5.423
49011SOL    HW248931   3.516   3.131   5.280
49012SOL     OW48932   7.293   1.882  11.357
49012SOL    HW148933   7.344   1.809  11.393
49012SOL    HW248934   7.273   1.856  11.268
49013SOL     OW48935   4.427  12.825   8.640
49013SOL    HW148936   4.335  12.831   8.613
49013SOL    HW248937   4.464  12.757   8.584
49014SOL     OW48938   5.309   2.952  11.116
49014SOL    HW148939   5.376   2.924  11.054
49014SOL    HW248940   5.233   2.897  11.097
49015SOL     OW48941  11.017  10.578   0.338
49015SOL    HW148942  11.103  10.611   0.364
49015SOL    HW248943  11.036  10.505   0.279
49016SOL     OW48944   7.167   5.163   4.785
49016SOL    HW148945   7.199   5.092   4.729
49016SOL    HW248946   7.137   5.119   4.865
49017SOL     OW48947  12.861   6.131  11.718
49017SOL    HW148948  12.949   6.104  11.694
49017SOL    HW248949  12.870   6.167  11.806
49018SOL     OW48950   9.369   5.194   2.480
49018SOL    HW148951   9.408   5.279   2.499
49018SOL    HW248952   9.342   5.200   2.388
49019SOL     OW48953   4.141   7.766   3.081
49019SOL    HW148954   4.132   7.861   3.085
49019SOL    HW248955   4.073   7.733   3.140
49020SOL     OW48956  10.482  10.097  14.470
49020SOL    HW148957  10.468  10.043  14.392
49020SOL    HW248958  10.431  10.176  14.455
49021SOL     OW48959   1.968  13.840  12.170
49021SOL    HW148960   1.916  13.821  12.091
49021SOL    HW248961   1.989  13.754  12.207
49022SOL     OW48962   4.797  13.745   4.288
49022SOL    HW148963   4.739  13.749   4.364
49022SOL    HW248964   4.738  13.747   4.213
49023SOL     OW48965   1.328   8.523   4.050
49023SOL    HW148966   1.327   8.565   3.964
49023SOL    HW248967   1.419   8.500   4.065
49024SOL     OW48968   0.064   1.205   7.774
49024SOL    HW148969   0.100   1.291   7.798
49024SOL    HW248970   0.135   1.144   7.791
49025SOL     OW48971  11.292   1.142   5.311
49025SOL    HW148972  11.208   1.186   5.317
49025SOL    HW248973  11.299   1.117   5.219
49026SOL     OW48974  13.672  11.704  13.807
49026SOL    HW148975  13.743  11.755  13.768
49026SOL    HW248976  13.666  11.734  13.897
49027SOL     OW48977  11.623   4.302  14.744
49027SOL    HW148978  11.541   4.324  14.786
49027SOL    HW248979  11.598   4.261  14.661
49028SOL     OW48980  14.079  12.356   3.497
49028SOL    HW148981  13.985  12.336   3.492
49028SOL    HW248982  14.097  12.361   3.591
49029SOL     OW48983   4.441   1.919   8.900
49029SOL    HW148984   4.488   1.983   8.846
49029SOL    HW248985   4.473   1.934   8.989
49030SOL     OW48986  10.008   8.014  14.710
49030SOL    HW148987   9.918   7.988  14.729
49030SOL    HW248988  10.015   8.103  14.744
49031SOL     OW48989   1.036   6.542  12.580
49031SOL    HW148990   0.960   6.506  12.533
49031SOL    HW248991   1.047   6.630  12.544
49032SOL     OW48992   1.852  12.068   2.462
49032SOL    HW148993   1.921  12.010   2.493
49032SOL    HW248994   1.898  12.134   2.409
49033SOL     OW48995   7.508  13.370   8.264
49033SOL    HW148996   7.537  13.447   8.214
49033SOL    HW248997   7.585  13.313   8.267
49034SOL     OW48998   0.559  12.756   7.207
49034SOL    HW148999   0.477  12.707   7.208
49034SOL    HW249000   0.627  12.689   7.209
49035SOL     OW49001   6.012  10.573  12.890
49035SOL    HW149002   6.077  10.551  12.824
49035SOL    HW249003   5.955  10.637  12.847
49036SOL     OW49004  14.536   7.001   3.779
49036SOL    HW149005  14.522   6.910   3.751
49036SOL    HW249006  14.494   7.054   3.711
49037SOL     OW49007  14.427   2.370   1.672
49037SOL    HW149008  14.495   2.428   1.639
49037SOL    HW249009  14.346   2.403   1.634
49038SOL     OW49010  11.230   6.751  10.643
49038SOL    HW149011  11.210   6.661  10.616
49038SOL    HW249012  11.214   6.752  10.737
49039SOL     OW49013   9.103  14.161   5.323
49039SOL    HW149014   9.119  14.157   5.228
49039SOL    HW249015   9.064  14.247   5.337
49040SOL     OW49016   0.477   8.457  13.383
49040SOL    HW149017   0.448   8.379  13.431
49040SOL    HW249018   0.444   8.443  13.294
49041SOL     OW49019   3.224   7.142   9.080
49041SOL    HW149020   3.299   7.161   9.024
49041SOL    HW249021   3.154   7.120   9.018
49042SOL     OW49022   6.488   5.654  13.584
49042SOL    HW149023   6.538   5.710  13.525
49042SOL    HW249024   6.552   5.626  13.650
49043SOL     OW49025   0.500   8.968  12.422
49043SOL    HW149026   0.492   9.063  12.419
49043SOL    HW249027   0.536   8.943  12.337
49044SOL     OW49028  11.745   1.908   8.864
49044SOL    HW149029  11.713   1.853   8.792
49044SOL    HW249030  11.807   1.968   8.823
49045SOL     OW49031   2.448   7.901   4.053
49045SOL    HW149032   2.371   7.892   4.108
49045SOL    HW249033   2.516   7.851   4.098
49046SOL     OW49034   9.246   7.131  10.308
49046SOL    HW149035   9.294   7.075  10.368
49046SOL    HW249036   9.158   7.136  10.345
49047SOL     OW49037   4.379   1.047  14.240
49047SOL    HW149038   4.289   1.020  14.257
49047SOL    HW249039   4.388   1.131  14.286
49048SOL     OW49040  13.485  11.835  14.312
49048SOL    HW149041  13.579  11.854  14.317
49048SOL    HW249042  13.480  11.740  14.314
49049SOL     OW49043  10.108   0.574   6.129
49049SOL    HW149044  10.072   0.642   6.185
49049SOL    HW249045  10.095   0.606   6.040
49050SOL     OW49046   7.041  11.454   7.416
49050SOL    HW149047   6.954  11.417   7.400
49050SOL    HW249048   7.036  11.542   7.380
49051SOL     OW49049  11.271  13.012  12.541
49051SOL    HW149050  11.232  13.056  12.465
49051SOL    HW249051  11.355  12.978  12.510
49052SOL     OW49052   8.174   2.694   3.919
49052SOL    HW149053   8.240   2.625   3.927
49052SOL    HW249054   8.209   2.766   3.971
49053SOL     OW49055   2.617   7.440   2.117
49053SOL    HW149056   2.534   7.467   2.157
49053SOL    HW249057   2.677   7.513   2.133
49054SOL     OW49058   0.131   8.679   2.928
49054SOL    HW149059   0.091   8.642   3.006
49054SOL    HW249060   0.195   8.614   2.900
49055SOL     OW49061   7.278   6.972  11.362
49055SOL    HW149062   7.256   6.884  11.392
49055SOL    HW249063   7.198   7.004  11.320
49056SOL     OW49064   0.817  12.141  10.301
49056SOL    HW149065   0.838  12.147  10.395
49056SOL    HW249066   0.839  12.227  10.266
49057SOL     OW49067   9.237  14.319   0.374
49057SOL    HW149068   9.161  14.270   0.344
49057SOL    HW249069   9.247  14.390   0.311
49058SOL     OW49070   5.801   7.326  12.860
49058SOL    HW149071   5.890   7.350  12.837
49058SOL    HW249072   5.747   7.357  12.787
49059SOL     OW49073   3.554  10.417   8.830
49059SOL    HW149074   3.582  10.448   8.916
49059SOL    HW249075   3.490  10.483   8.800
49060SOL     OW49076   4.015   3.026  13.721
49060SOL    HW149077   4.077   3.099  13.714
49060SOL    HW249078   4.037   2.970  13.647
49061SOL     OW49079   2.865   8.469   0.122
49061SOL    HW149080   2.920   8.427   0.188
49061SOL    HW249081   2.776   8.438   0.141
49062SOL     OW49082  11.705   7.424   5.654
49062SOL    HW149083  11.783   7.371   5.667
49062SOL    HW249084  11.677   7.450   5.742
49063SOL     OW49085   1.407  11.329   7.746
49063SOL    HW149086   1.472  11.388   7.707
49063SOL    HW249087   1.375  11.276   7.673
49064SOL     OW49088   9.043  13.698  14.177
49064SOL    HW149089   9.078  13.784  14.153
49064SOL    HW249090   9.108  13.636  14.143
49065SOL     OW49091   5.901   3.773  14.572
49065SOL    HW149092   5.915   3.750  14.664
49065SOL    HW249093   5.923   3.693  14.524
49066SOL     OW49094   7.704  13.794   0.780
49066SOL    HW149095   7.649  13.826   0.709
49066SOL    HW249096   7.733  13.873   0.825
49067SOL     OW49097  10.916  12.518   3.813
49067SOL    HW149098  10.875  12.530   3.727
49067SOL    HW249099  10.862  12.453   3.857
49068SOL     OW49100  10.365   1.167  11.120
49068SOL    HW149101  10.342   1.074  11.119
49068SOL    HW249102  10.411   1.181  11.037
49069SOL     OW49103  10.912  14.103   1.260
49069SOL    HW149104  10.997  14.063   1.278
49069SOL    HW249105  10.860  14.088   1.339
49070SOL     OW49106  10.921   0.807   9.018
49070SOL    HW149107  10.934   0.899   8.995
49070SOL    HW249108  10.896   0.808   9.110
49071SOL     OW49109  14.303   2.743  13.228
49071SOL    HW149110  14.345   2.808  13.285
49071SOL    HW249111  14.355   2.744  13.148
49072SOL     OW49112   1.395   4.603   5.197
49072SOL    HW149113   1.447   4.551   5.259
49072SOL    HW249114   1.305   4.575   5.213
49073SOL     OW49115  14.179  13.489   2.164
49073SOL    HW149116  14.115  13.558   2.149
49073SOL    HW249117  14.252  13.533   2.208
49074SOL     OW49118   8.690  10.859   8.672
49074SOL    HW149119   8.732  10.935   8.712
49074SOL    HW249120   8.639  10.894   8.599
49075SOL     OW49121   8.640  13.483   2.722
49075SOL    HW149122   8.685  13.408   2.760
49075SOL    HW249123   8.607  13.451   2.638
49076SOL     OW49124   5.533  13.986   5.937
49076SOL    HW149125   5.531  14.037   5.856
49076SOL    HW249126   5.606  13.926   5.925
49077SOL     OW49127   2.069  14.685  11.822
49077SOL    HW149128   2.125  14.760  11.800
49077SOL    HW249129   2.118  14.638  11.889
49078SOL     OW49130   7.298   8.989  12.665
49078SOL    HW149131   7.330   9.079  12.660
49078SOL    HW249132   7.235   8.982  12.593
49079SOL     OW49133   8.720  12.420  14.590
49079SOL    HW149134   8.648  12.364  14.562
49079SOL    HW249135   8.794  12.394  14.535
49080SOL     OW49136  10.385   9.204  13.469
49080SOL    HW149137  10.436   9.253  13.404
49080SOL    HW249138  10.317   9.264  13.496
49081SOL     OW49139   5.540  10.809  11.223
49081SOL    HW149140   5.611  10.817  11.160
49081SOL    HW249141   5.469  10.767  11.175
49082SOL     OW49142   4.281   4.331   9.866
49082SOL    HW149143   4.349   4.390   9.834
49082SOL    HW249144   4.203   4.353   9.815
49083SOL     OW49145   7.194  13.396   8.098
49083SOL    HW149146   7.205  13.480   8.053
49083SOL    HW249147   7.111  13.362   8.064
49084SOL     OW49148  12.273   2.605   0.490
49084SOL    HW149149  12.233   2.633   0.572
49084SOL    HW249150  12.345   2.548   0.516
49085SOL     OW49151   5.932   0.316   5.492
49085SOL    HW149152   5.959   0.407   5.510
49085SOL    HW249153   5.869   0.324   5.420
49086SOL     OW49154  13.725   1.379   2.691
49086SOL    HW149155  13.778   1.406   2.616
49086SOL    HW249156  13.779   1.400   2.767
49087SOL     OW49157   6.177  12.412   9.584
49087SOL    HW149158   6.268  12.396   9.606
49087SOL    HW249159   6.134  12.426   9.668
49088SOL     OW49160  12.186   9.451   8.604
49088SOL    HW149161  12.247   9.383   8.574
49088SOL    HW249162  12.154   9.419   8.689
49089SOL     OW49163   2.669  10.243   0.177
49089SOL    HW149164   2.657  10.249   0.272
49089SOL    HW249165   2.584  10.266   0.140
49090SOL     OW49166   6.397   8.608  12.893
49090SOL    HW149167   6.403   8.597  12.798
49090SOL    HW249168   6.450   8.686  12.912
49091SOL     OW49169  14.865   1.343   8.204
49091SOL    HW149170  14.871   1.404   8.277
49091SOL    HW249171  14.815   1.390   8.137
49092SOL     OW49172  10.435   5.818  13.262
49092SOL    HW149173  10.462   5.864  13.182
49092SOL    HW249174  10.513   5.770  13.289
49093SOL     OW49175  13.628  10.549   8.932
49093SOL    HW149176  13.723  10.559   8.925
49093SOL    HW249177  13.595  10.571   8.845
49094SOL     OW49178   8.672  12.477   0.057
49094SOL    HW149179   8.710  12.564   0.043
49094SOL    HW249180   8.662  12.441  14.842
49095SOL     OW49181   0.775   3.994   4.378
49095SOL    HW149182   0.681   3.982   4.365
49095SOL    HW249183   0.808   4.021   4.293
49096SOL     OW49184  11.270   7.305   4.590
49096SOL    HW149185  11.205   7.291   4.659
49096SOL    HW249186  11.316   7.385   4.615
49097SOL     OW49187  12.347   2.509   6.740
49097SOL    HW149188  12.313   2.513   6.829
49097SOL    HW249189  12.415   2.442   6.743
49098SOL     OW49190   6.978  12.294   1.765
49098SOL    HW149191   7.001  12.290   1.672
49098SOL    HW249192   7.045  12.350   1.804
49099SOL     OW49193   2.092   3.510   3.667
49099SOL    HW149194   2.161   3.484   3.605
49099SOL    HW249195   2.068   3.599   3.641
49100SOL     OW49196   6.003   2.718  12.212
49100SOL    HW149197   6.080   2.715  12.269
49100SOL    HW249198   5.969   2.628  12.212
49101SOL     OW49199   8.220  10.456   4.894
49101SOL    HW149200   8.275  10.453   4.816
49101SOL    HW249201   8.133  10.477   4.861
49102SOL     OW49202   0.969  14.593   7.816
49102SOL    HW149203   0.996  14.685   7.820
49102SOL    HW249204   1.048  14.546   7.788
49103SOL     OW49205  14.079   0.503   2.272
49103SOL    HW149206  14.071   0.491   2.177
49103SOL    HW249207  14.166   0.543   2.283
49104SOL     OW49208   9.082  11.720   2.472
49104SOL    HW149209   9.136  11.772   2.531
49104SOL    HW249210   9.085  11.631   2.508
49105SOL     OW49211   9.959   5.913   8.378
49105SOL    HW149212   9.929   5.965   8.453
49105SOL    HW249213   9.926   5.825   8.395
49106SOL     OW49214   8.105   4.601  14.083
49106SOL    HW149215   8.095   4.506  14.074
49106SOL    HW249216   8.025   4.638  14.045
49107SOL     OW49217  12.071  12.944   4.300
49107SOL    HW149218  12.146  12.931   4.358
49107SOL    HW249219  12.058  13.039   4.297
49108SOL     OW49220   1.561   3.914   2.078
49108SOL    HW149221   1.504   3.870   2.015
49108SOL    HW249222   1.625   3.847   2.103
49109SOL     OW49223  13.400   4.096   9.554
49109SOL    HW149224  13.373   4.176   9.509
49109SOL    HW249225  13.420   4.034   9.484
49110SOL     OW49226   1.766  10.527  12.175
49110SOL    HW149227   1.701  10.575  12.227
49110SOL    HW249228   1.844  10.582  12.177
49111SOL     OW49229   1.283  14.433   3.007
49111SOL    HW149230   1.201  14.473   2.978
49111SOL    HW249231   1.276  14.430   3.103
49112SOL     OW49232  13.615  12.428  13.936
49112SOL    HW149233  13.586  12.384  14.017
49112SOL    HW249234  13.684  12.487  13.965
49113SOL     OW49235   3.313   0.753   0.158
49113SOL    HW149236   3.308   0.726   0.066
49113SOL    HW249237   3.361   0.682   0.201
49114SOL     OW49238   7.412  11.851   9.139
49114SOL    HW149239   7.393  11.896   9.221
49114SOL    HW249240   7.508  11.848   9.134
49115SOL     OW49241   8.068   2.628   8.482
49115SOL    HW149242   8.036   2.597   8.397
49115SOL    HW249243   7.990   2.629   8.538
49116SOL     OW49244  11.146   5.396   6.928
49116SOL    HW149245  11.134   5.443   7.010
49116SOL    HW249246  11.240   5.397   6.913
49117SOL     OW49247  14.650   2.013   2.579
49117SOL    HW149248  14.671   2.079   2.512
49117SOL    HW249249  14.731   2.003   2.629
49118SOL     OW49250   4.139   9.971   2.834
49118SOL    HW149251   4.060  10.000   2.878
49118SOL    HW249252   4.200   9.949   2.905
49119SOL     OW49253  12.511   1.217  11.643
49119SOL    HW149254  12.602   1.210  11.614
49119SOL    HW249255  12.508   1.296  11.696
49120SOL     OW49256   2.564   9.163  10.291
49120SOL    HW149257   2.509   9.203  10.358
49120SOL    HW249258   2.553   9.069  10.303
49121SOL     OW49259  13.307   1.556  12.924
49121SOL    HW149260  13.401   1.561  12.942
49121SOL    HW249261  13.266   1.565  13.010
49122SOL     OW49262   2.548   5.373   3.168
49122SOL    HW149263   2.608   5.402   3.099
49122SOL    HW249264   2.522   5.284   3.141
49123SOL     OW49265   9.346   6.056  13.798
49123SOL    HW149266   9.307   6.124  13.852
49123SOL    HW249267   9.288   5.980  13.809
49124SOL     OW49268   1.427   5.974   5.069
49124SOL    HW149269   1.486   6.009   5.002
49124SOL    HW249270   1.444   5.879   5.067
49125SOL     OW49271   1.188  13.961  14.291
49125SOL    HW149272   1.168  13.882  14.341
49125SOL    HW249273   1.269  13.994  14.331
49126SOL     OW49274   1.627   6.679   1.900
49126SOL    HW149275   1.640   6.714   1.988
49126SOL    HW249276   1.590   6.592   1.914
49127SOL     OW49277  14.509  13.421  13.646
49127SOL    HW149278  14.484  13.459  13.730
49127SOL    HW249279  14.427  13.417  13.597
49128SOL     OW49280  12.817   0.392   0.571
49128SOL    HW149281  12.746   0.378   0.508
49128SOL    HW249282  12.818   0.312   0.624
49129SOL     OW49283   3.825   4.117   2.492
49129SOL    HW149284   3.828   4.177   2.418
49129SOL    HW249285   3.732   4.099   2.504
49130SOL     OW49286   0.272   9.911   7.000
49130SOL    HW149287   0.232   9.898   7.086
49130SOL    HW249288   0.337   9.841   6.992
49131SOL     OW49289   3.015  13.980  14.399
49131SOL    HW149290   3.078  14.032  14.449
49131SOL    HW249291   2.979  13.918  14.463
49132SOL     OW49292  11.487   8.449  12.913
49132SOL    HW149293  11.458   8.420  13.000
49132SOL    HW249294  11.417   8.507  12.883
49133SOL     OW49295   0.698   9.753   4.406
49133SOL    HW149296   0.611   9.765   4.443
49133SOL    HW249297   0.705   9.818   4.337
49134SOL     OW49298   4.625  10.359   5.560
49134SOL    HW149299   4.590  10.308   5.633
49134SOL    HW249300   4.719  10.361   5.576
49135SOL     OW49301   7.397   4.048  11.976
49135SOL    HW149302   7.454   3.985  12.021
49135SOL    HW249303   7.402   4.127  12.029
49136SOL     OW49304   6.171   0.052   0.769
49136SOL    HW149305   6.135   0.087   0.850
49136SOL    HW249306   6.185   0.129   0.714
49137SOL     OW49307  12.928   8.620  11.951
49137SOL    HW149308  12.920   8.527  11.971
49137SOL    HW249309  12.991   8.624  11.880
49138SOL     OW49310   4.054  13.846   0.802
49138SOL    HW149311   4.126  13.783   0.809
49138SOL    HW249312   4.096  13.932   0.804
49139SOL     OW49313   6.183   5.401   6.322
49139SOL    HW149314   6.165   5.421   6.230
49139SOL    HW249315   6.254   5.460   6.346
49140SOL     OW49316  13.405   2.201   2.671
49140SOL    HW149317  13.371   2.219   2.583
49140SOL    HW249318  13.340   2.241   2.730
49141SOL     OW49319   0.359   0.653   4.599
49141SOL    HW149320   0.315   0.717   4.656
49141SOL    HW249321   0.385   0.702   4.522
49142SOL     OW49322   9.111   0.816  10.359
49142SOL    HW149323   9.108   0.864  10.276
49142SOL    HW249324   9.193   0.844  10.400
49143SOL     OW49325   0.312   6.214  12.733
49143SOL    HW149326   0.407   6.200  12.731
49143SOL    HW249327   0.276   6.130  12.761
49144SOL     OW49328   8.087   6.670   0.798
49144SOL    HW149329   8.068   6.576   0.805
49144SOL    HW249330   8.127   6.679   0.712
49145SOL     OW49331   0.151   2.842  11.410
49145SOL    HW149332   0.116   2.795  11.334
49145SOL    HW249333   0.125   2.933  11.395
49146SOL     OW49334  14.182  12.690  13.919
49146SOL    HW149335  14.174  12.594  13.919
49146SOL    HW249336  14.259  12.708  13.972
49147SOL     OW49337   3.630   5.683   0.759
49147SOL    HW149338   3.603   5.748   0.824
49147SOL    HW249339   3.576   5.607   0.778
49148SOL     OW49340   7.271  12.516   6.287
49148SOL    HW149341   7.261  12.452   6.358
49148SOL    HW249342   7.343  12.483   6.234
49149SOL     OW49343   1.728   7.649   8.695
49149SOL    HW149344   1.820   7.660   8.719
49149SOL    HW249345   1.681   7.713   8.749
49150SOL     OW49346   1.089  11.037  12.658
49150SOL    HW149347   1.092  11.102  12.728
49150SOL    HW249348   0.999  11.041  12.625
49151SOL     OW49349   1.178   5.919  14.020
49151SOL    HW149350   1.248   5.854  14.009
49151SOL    HW249351   1.149   5.939  13.931
49152SOL     OW49352   0.282   6.110   2.297
49152SOL    HW149353   0.240   6.059   2.227
49152SOL    HW249354   0.218   6.177   2.319
49153SOL     OW49355   2.378   5.762  12.974
49153SOL    HW149356   2.324   5.835  13.006
49153SOL    HW249357   2.460   5.769  13.023
49154SOL     OW49358  14.257  14.005  10.436
49154SOL    HW149359  14.235  14.060  10.512
49154SOL    HW249360  14.346  13.973  10.455
49155SOL     OW49361  10.530  10.346  14.699
49155SOL    HW149362  10.587  10.276  14.668
49155SOL    HW249363  10.532  10.339  14.794
49156SOL     OW49364   3.796   7.334   8.597
49156SOL    HW149365   3.812   7.377   8.513
49156SOL    HW249366   3.706   7.303   8.592
49157SOL     OW49367  13.244   6.802  14.713
49157SOL    HW149368  13.322   6.785  14.660
49157SOL    HW249369  13.205   6.716  14.727
49158SOL     OW49370   6.136   3.662  10.532
49158SOL    HW149371   6.059   3.661  10.475
49158SOL    HW249372   6.129   3.744  10.582
49159SOL     OW49373   0.550  12.360   7.874
49159SOL    HW149374   0.511  12.444   7.851
49159SOL    HW249375   0.488  12.294   7.844
49160SOL     OW49376  14.371   4.539   6.763
49160SOL    HW149377  14.333   4.627   6.763
49160SOL    HW249378  14.460   4.552   6.730
49161SOL     OW49379   8.246   3.213  11.651
49161SOL    HW149380   8.243   3.123  11.684
49161SOL    HW249381   8.282   3.264  11.723
49162SOL     OW49382   1.321  13.315   2.653
49162SOL    HW149383   1.387  13.283   2.591
49162SOL    HW249384   1.264  13.239   2.668
49163SOL     OW49385  12.037  12.604   6.129
49163SOL    HW149386  12.064  12.660   6.056
49163SOL    HW249387  12.098  12.627   6.200
49164SOL     OW49388   9.091   2.749  13.496
49164SOL    HW149389   9.149   2.705  13.435
49164SOL    HW249390   9.124   2.725  13.583
49165SOL     OW49391  13.711   7.604  10.806
49165SOL    HW149392  13.768   7.665  10.758
49165SOL    HW249393  13.625   7.617  10.767
49166SOL     OW49394   9.515   8.681   0.468
49166SOL    HW149395   9.508   8.630   0.387
49166SOL    HW249396   9.437   8.657   0.518
49167SOL     OW49397  13.021  10.951   4.308
49167SOL    HW149398  12.992  10.943   4.399
49167SOL    HW249399  12.972  11.026   4.274
49168SOL     OW49400   3.962   2.726   9.402
49168SOL    HW149401   4.057   2.734   9.397
49168SOL    HW249402   3.947   2.656   9.465
49169SOL     OW49403   9.698   5.189   7.363
49169SOL    HW149404   9.680   5.261   7.423
49169SOL    HW249405   9.670   5.221   7.277
49170SOL     OW49406   2.765   0.731  12.830
49170SOL    HW149407   2.738   0.642  12.804
49170SOL    HW249408   2.847   0.745  12.782
49171SOL     OW49409  14.482   1.007   9.669
49171SOL    HW149410  14.443   1.016   9.756
49171SOL    HW249411  14.420   0.952   9.620
49172SOL     OW49412   8.657   1.845   5.834
49172SOL    HW149413   8.689   1.903   5.903
49172SOL    HW249414   8.607   1.902   5.776
49173SOL     OW49415  13.438   1.259  12.187
49173SOL    HW149416  13.429   1.349  12.154
49173SOL    HW249417  13.475   1.210  12.113
49174SOL     OW49418   8.171   0.872   0.623
49174SOL    HW149419   8.118   0.931   0.676
49174SOL    HW249420   8.261   0.903   0.637
49175SOL     OW49421   3.818   7.637   5.722
49175SOL    HW149422   3.785   7.678   5.802
49175SOL    HW249423   3.870   7.563   5.753
49176SOL     OW49424   0.723   8.378   7.201
49176SOL    HW149425   0.797   8.318   7.200
49176SOL    HW249426   0.647   8.323   7.179
49177SOL     OW49427  14.349   8.862  13.659
49177SOL    HW149428  14.283   8.854  13.590
49177SOL    HW249429  14.322   8.939  13.709
49178SOL     OW49430   0.400   8.776   7.728
49178SOL    HW149431   0.495   8.774   7.724
49178SOL    HW249432   0.374   8.683   7.729
49179SOL     OW49433  12.353   0.850  12.430
49179SOL    HW149434  12.447   0.872  12.436
49179SOL    HW249435  12.319   0.868  12.518
49180SOL     OW49436   6.983  11.436  10.501
49180SOL    HW149437   6.930  11.358  10.513
49180SOL    HW249438   7.038  11.440  10.579
49181SOL     OW49439   8.670   0.224  11.677
49181SOL    HW149440   8.636   0.295  11.731
49181SOL    HW249441   8.623   0.233  11.594
49182SOL     OW49442  11.504   9.907  11.465
49182SOL    HW149443  11.442   9.838  11.488
49182SOL    HW249444  11.451   9.987  11.463
49183SOL     OW49445  11.632  13.178  10.100
49183SOL    HW149446  11.680  13.201  10.020
49183SOL    HW249447  11.695  13.192  10.170
49184SOL     OW49448   1.939   6.564  13.731
49184SOL    HW149449   1.866   6.625  13.718
49184SOL    HW249450   1.911   6.484  13.687
49185SOL     OW49451   2.419  12.207  11.018
49185SOL    HW149452   2.467  12.125  11.021
49185SOL    HW249453   2.401  12.220  10.925
49186SOL     OW49454  13.368   5.349  13.836
49186SOL    HW149455  13.440   5.410  13.822
49186SOL    HW249456  13.410   5.268  13.863
49187SOL     OW49457   9.830  10.514   8.062
49187SOL    HW149458   9.790  10.505   8.148
49187SOL    HW249459   9.813  10.605   8.036
49188SOL     OW49460  12.498   1.499   8.286
49188SOL    HW149461  12.485   1.579   8.236
49188SOL    HW249462  12.590   1.476   8.272
49189SOL     OW49463  14.288  13.153   9.245
49189SOL    HW149464  14.332  13.223   9.197
49189SOL    HW249465  14.225  13.117   9.183
49190SOL     OW49466  11.507   3.014   9.515
49190SOL    HW149467  11.590   2.983   9.478
49190SOL    HW249468  11.441   2.981   9.455
49191SOL     OW49469   2.207   4.751  12.938
49191SOL    HW149470   2.206   4.833  12.988
49191SOL    HW249471   2.196   4.682  13.004
49192SOL     OW49472  13.756   1.087   0.534
49192SOL    HW149473  13.841   1.069   0.494
49192SOL    HW249474  13.757   1.181   0.553
49193SOL     OW49475   9.984   2.922   2.612
49193SOL    HW149476  10.030   2.909   2.694
49193SOL    HW249477   9.991   2.837   2.566
49194SOL     OW49478  11.185   2.323   8.572
49194SOL    HW149479  11.223   2.397   8.524
49194SOL    HW249480  11.261   2.274   8.604
49195SOL     OW49481   3.712  14.154   3.875
49195SOL    HW149482   3.723  14.094   3.949
49195SOL    HW249483   3.742  14.239   3.910
49196SOL     OW49484   2.138   4.362   0.673
49196SOL    HW149485   2.228   4.378   0.703
49196SOL    HW249486   2.088   4.349   0.753
49197SOL     OW49487  11.375   5.375   9.178
49197SOL    HW149488  11.297   5.338   9.220
49197SOL    HW249489  11.432   5.398   9.251
49198SOL     OW49490  14.540   3.755   9.910
49198SOL    HW149491  14.608   3.698   9.947
49198SOL    HW249492  14.571   3.844   9.928
49199SOL     OW49493  11.458  11.029   5.471
49199SOL    HW149494  11.461  11.103   5.411
49199SOL    HW249495  11.513  11.056   5.545
49200SOL     OW49496  10.542   1.564   2.658
49200SOL    HW149497  10.572   1.569   2.748
49200SOL    HW249498  10.448   1.583   2.663
49201SOL     OW49499   7.160   7.841  10.494
49201SOL    HW149500   7.187   7.926  10.457
49201SOL    HW249501   7.103   7.864  10.567
49202SOL     OW49502   5.635   7.992   8.428
49202SOL    HW149503   5.543   7.969   8.415
49202SOL    HW249504   5.671   7.921   8.480
49203SOL     OW49505   2.667  13.576   3.407
49203SOL    HW149506   2.671  13.618   3.494
49203SOL    HW249507   2.757  13.574   3.377
49204SOL     OW49508   0.824  11.055   3.719
49204SOL    HW149509   0.738  11.017   3.738
49204SOL    HW249510   0.886  10.992   3.756
49205SOL     OW49511   1.914   3.650   1.955
49205SOL    HW149512   2.007   3.636   1.936
49205SOL    HW249513   1.891   3.728   1.904
49206SOL     OW49514   1.826  14.492  13.062
49206SOL    HW149515   1.736  14.505  13.091
49206SOL    HW249516   1.869  14.575  13.082
49207SOL     OW49517   1.407   5.064   0.258
49207SOL    HW149518   1.503   5.063   0.264
49207SOL    HW249519   1.387   5.025   0.173
49208SOL     OW49520   9.757   4.288   7.241
49208SOL    HW149521   9.745   4.259   7.332
49208SOL    HW249522   9.685   4.248   7.193
49209SOL     OW49523   1.616  12.760   7.791
49209SOL    HW149524   1.632  12.796   7.878
49209SOL    HW249525   1.690  12.700   7.777
49210SOL     OW49526  10.226   8.222  11.738
49210SOL    HW149527  10.251   8.146  11.685
49210SOL    HW249528  10.304   8.242  11.789
49211SOL     OW49529  10.016   8.522   7.921
49211SOL    HW149530   9.928   8.555   7.905
49211SOL    HW249531  10.051   8.503   7.834
49212SOL     OW49532   5.680   3.397   8.562
49212SOL    HW149533   5.696   3.464   8.629
49212SOL    HW249534   5.736   3.423   8.488
49213SOL     OW49535   1.161  13.876  13.033
49213SOL    HW149536   1.158  13.859  12.939
49213SOL    HW249537   1.192  13.794  13.071
49214SOL     OW49538   6.603   9.104  10.971
49214SOL    HW149539   6.640   9.050  11.040
49214SOL    HW249540   6.604   9.049  10.893
49215SOL     OW49541   1.643   3.335  14.072
49215SOL    HW149542   1.567   3.290  14.038
49215SOL    HW249543   1.620   3.356  14.163
49216SOL     OW49544   0.126   9.753  14.007
49216SOL    HW149545   0.111   9.769  14.100
49216SOL    HW249546   0.199   9.691  14.005
49217SOL     OW49547   4.641   5.279  13.290
49217SOL    HW149548   4.618   5.242  13.375
49217SOL    HW249549   4.561   5.271  13.238
49218SOL     OW49550   0.073   8.616  13.135
49218SOL    HW149551   0.113   8.609  13.048
49218SOL    HW249552  14.863   8.568  13.127
49219SOL     OW49553   5.330   2.300   4.285
49219SOL    HW149554   5.381   2.237   4.234
49219SOL    HW249555   5.387   2.325   4.358
49220SOL     OW49556  11.997   5.663   3.302
49220SOL    HW149557  12.032   5.679   3.389
49220SOL    HW249558  11.996   5.567   3.294
49221SOL     OW49559   4.319   6.557   6.852
49221SOL    HW149560   4.354   6.631   6.902
49221SOL    HW249561   4.360   6.480   6.891
49222SOL     OW49562   8.404   9.025  12.547
49222SOL    HW149563   8.374   8.942  12.584
49222SOL    HW249564   8.423   9.005  12.456
49223SOL     OW49565   3.085   6.622  14.068
49223SOL    HW149566   3.096   6.709  14.106
49223SOL    HW249567   3.106   6.562  14.140
49224SOL     OW49568  10.275   4.811  14.102
49224SOL    HW149569  10.278   4.759  14.021
49224SOL    HW249570  10.203   4.873  14.088
49225SOL     OW49571   7.205   1.478  12.409
49225SOL    HW149572   7.296   1.502  12.390
49225SOL    HW249573   7.202   1.383  12.398
49226SOL     OW49574   1.817   9.833  12.378
49226SOL    HW149575   1.840   9.908  12.322
49226SOL    HW249576   1.901   9.793  12.400
49227SOL     OW49577  12.855   4.387   5.880
49227SOL    HW149578  12.800   4.345   5.815
49227SOL    HW249579  12.936   4.408   5.834
49228SOL     OW49580   7.603  12.603  10.076
49228SOL    HW149581   7.606  12.524  10.022
49228SOL    HW249582   7.680  12.653  10.051
49229SOL     OW49583   4.869  14.005   3.313
49229SOL    HW149584   4.963  13.993   3.326
49229SOL    HW249585   4.847  13.946   3.241
49230SOL     OW49586   2.576  12.773   7.046
49230SOL    HW149587   2.567  12.827   6.967
49230SOL    HW249588   2.610  12.690   7.014
49231SOL     OW49589   8.645   2.157   5.435
49231SOL    HW149590   8.615   2.111   5.514
49231SOL    HW249591   8.685   2.088   5.381
49232SOL     OW49592  12.889   0.209   7.865
49232SOL    HW149593  12.815   0.212   7.926
49232SOL    HW249594  12.908   0.115   7.857
49233SOL     OW49595   3.697  14.071   0.968
49233SOL    HW149596   3.704  14.081   1.063
49233SOL    HW249597   3.746  14.145   0.933
49234SOL     OW49598   9.113   3.635   7.966
49234SOL    HW149599   9.193   3.688   7.969
49234SOL    HW249600   9.058   3.679   7.902
49235SOL     OW49601   7.260  10.541   5.373
49235SOL    HW149602   7.314  10.536   5.451
49235SOL    HW249603   7.302  10.483   5.310
49236SOL     OW49604  12.848   7.427   3.783
49236SOL    HW149605  12.931   7.474   3.781
49236SOL    HW249606  12.826   7.411   3.691
49237SOL     OW49607   3.387   8.073   1.704
49237SOL    HW149608   3.472   8.036   1.683
49237SOL    HW249609   3.334   8.058   1.625
49238SOL     OW49610   8.351   4.071   2.867
49238SOL    HW149611   8.331   4.117   2.785
49238SOL    HW249612   8.433   4.026   2.849
49239SOL     OW49613   3.334   0.031   4.189
49239SOL    HW149614   3.245   0.056   4.213
49239SOL    HW249615   3.349  14.820   4.235
49240SOL     OW49616   1.615   9.219  13.677
49240SOL    HW149617   1.523   9.216  13.649
49240SOL    HW249618   1.621   9.152  13.745
49241SOL     OW49619   2.418  12.276  13.802
49241SOL    HW149620   2.370  12.358  13.788
49241SOL    HW249621   2.485  12.298  13.867
49242SOL     OW49622   5.031   9.443   3.819
49242SOL    HW149623   4.993   9.513   3.872
49242SOL    HW249624   5.092   9.398   3.879
49243SOL     OW49625  12.211   9.196   9.430
49243SOL    HW149626  12.116   9.192   9.436
49243SOL    HW249627  12.229   9.272   9.375
49244SOL     OW49628   4.261   6.097   4.021
49244SOL    HW149629   4.237   6.051   3.941
49244SOL    HW249630   4.316   6.035   4.069
49245SOL     OW49631  12.636   7.775  13.059
49245SOL    HW149632  12.678   7.708  13.113
49245SOL    HW249633  12.674   7.858  13.088
49246SOL     OW49634   8.626   7.884  13.679
49246SOL    HW149635   8.674   7.842  13.751
49246SOL    HW249636   8.691   7.941  13.638
49247SOL     OW49637   2.239   9.277   9.568
49247SOL    HW149638   2.209   9.363   9.597
49247SOL    HW249639   2.161   9.221   9.574
49248SOL     OW49640   2.528  13.163  11.680
49248SOL    HW149641   2.545  13.154  11.586
49248SOL    HW249642   2.524  13.258  11.695
49249SOL     OW49643   4.174   6.303  11.290
49249SOL    HW149644   4.256   6.351  11.293
49249SOL    HW249645   4.186   6.230  11.351
49250SOL     OW49646  13.001   3.281   4.934
49250SOL    HW149647  13.038   3.199   4.966
49250SOL    HW249648  13.056   3.305   4.859
49251SOL     OW49649   8.184   5.900   3.221
49251SOL    HW149650   8.268   5.932   3.252
49251SOL    HW249651   8.120   5.959   3.261
49252SOL     OW49652  11.058  14.078   2.891
49252SOL    HW149653  11.119  14.056   2.820
49252SOL    HW249654  11.099  14.042   2.970
49253SOL     OW49655  14.361  10.806  11.653
49253SOL    HW149656  14.285  10.784  11.707
49253SOL    HW249657  14.324  10.823  11.566
49254SOL     OW49658   9.406   7.049  12.705
49254SOL    HW149659   9.351   7.101  12.647
49254SOL    HW249660   9.484   7.028  12.653
49255SOL     OW49661  12.349   3.738   2.406
49255SOL    HW149662  12.254   3.740   2.417
49255SOL    HW249663  12.380   3.822   2.440
49256SOL     OW49664   7.817   7.775   5.594
49256SOL    HW149665   7.727   7.742   5.600
49256SOL    HW249666   7.871   7.696   5.597
49257SOL     OW49667   4.522   4.271  12.589
49257SOL    HW149668   4.460   4.277  12.661
49257SOL    HW249669   4.468   4.261  12.511
49258SOL     OW49670   8.950  12.231   4.455
49258SOL    HW149671   9.017  12.268   4.397
49258SOL    HW249672   8.867  12.247   4.408
49259SOL     OW49673  14.207   5.165   7.948
49259SOL    HW149674  14.211   5.134   8.038
49259SOL    HW249675  14.291   5.209   7.933
49260SOL     OW49676   3.340  14.284   6.137
49260SOL    HW149677   3.286  14.350   6.179
49260SOL    HW249678   3.279  14.233   6.083
49261SOL     OW49679   8.839  14.498   1.744
49261SOL    HW149680   8.896  14.429   1.711
49261SOL    HW249681   8.891  14.578   1.737
49262SOL     OW49682   1.486   7.167   5.585
49262SOL    HW149683   1.515   7.227   5.516
49262SOL    HW249684   1.393   7.188   5.597
49263SOL     OW49685   2.863   7.681   0.834
49263SOL    HW149686   2.789   7.624   0.813
49263SOL    HW249687   2.926   7.625   0.878
49264SOL     OW49688   8.763   0.879   4.055
49264SOL    HW149689   8.780   0.919   4.140
49264SOL    HW249690   8.847   0.880   4.010
49265SOL     OW49691   1.410  10.437   5.067
49265SOL    HW149692   1.478  10.389   5.114
49265SOL    HW249693   1.458  10.504   5.017
49266SOL     OW49694   2.964   8.765   2.942
49266SOL    HW149695   3.028   8.708   2.985
49266SOL    HW249696   2.953   8.838   3.002
49267SOL     OW49697  10.674   0.415  12.598
49267SOL    HW149698  10.594   0.430  12.648
49267SOL    HW249699  10.651   0.347  12.535
49268SOL     OW49700   3.017   3.028   9.901
49268SOL    HW149701   3.068   3.027   9.982
49268SOL    HW249702   3.045   3.108   9.856
49269SOL     OW49703   4.319  12.798   7.635
49269SOL    HW149704   4.228  12.820   7.616
49269SOL    HW249705   4.343  12.735   7.566
49270SOL     OW49706   7.855   9.067   0.429
49270SOL    HW149707   7.831   9.010   0.502
49270SOL    HW249708   7.871   9.153   0.469
49271SOL     OW49709   0.095   2.411  11.303
49271SOL    HW149710   0.180   2.410  11.347
49271SOL    HW249711   0.102   2.342  11.237
49272SOL     OW49712  14.170   8.854   7.478
49272SOL    HW149713  14.181   8.893   7.565
49272SOL    HW249714  14.252   8.806   7.463
49273SOL     OW49715  11.140  13.992  10.625
49273SOL    HW149716  11.109  13.994  10.715
49273SOL    HW249717  11.106  14.072  10.586
49274SOL     OW49718   9.995   1.802   4.231
49274SOL    HW149719   9.960   1.771   4.147
49274SOL    HW249720   9.947   1.750   4.296
49275SOL     OW49721   9.991   2.638   4.729
49275SOL    HW149722  10.077   2.612   4.695
49275SOL    HW249723   9.995   2.619   4.823
49276SOL     OW49724   3.302   4.717  14.551
49276SOL    HW149725   3.314   4.662  14.473
49276SOL    HW249726   3.321   4.659  14.625
49277SOL     OW49727  12.454   4.816   3.197
49277SOL    HW149728  12.517   4.756   3.156
49277SOL    HW249729  12.502   4.855   3.270
49278SOL     OW49730  13.608   0.182   9.354
49278SOL    HW149731  13.553   0.260   9.368
49278SOL    HW249732  13.587   0.125   9.427
49279SOL     OW49733   6.722   1.392   1.321
49279SOL    HW149734   6.672   1.454   1.375
49279SOL    HW249735   6.806   1.435   1.306
49280SOL     OW49736   4.980  13.078  11.380
49280SOL    HW149737   4.984  12.994  11.334
49280SOL    HW249738   5.062  13.122  11.357
49281SOL     OW49739  10.202   1.783  13.420
49281SOL    HW149740  10.209   1.693  13.451
49281SOL    HW249741  10.286   1.801  13.379
49282SOL     OW49742   1.836   9.064   8.461
49282SOL    HW149743   1.872   8.977   8.445
49282SOL    HW249744   1.822   9.100   8.374
49283SOL     OW49745   7.186   4.055   9.275
49283SOL    HW149746   7.130   4.004   9.334
49283SOL    HW249747   7.185   4.006   9.193
49284SOL     OW49748   1.332   2.057   7.271
49284SOL    HW149749   1.360   2.072   7.180
49284SOL    HW249750   1.316   2.144   7.306
49285SOL     OW49751   2.470  12.875  10.811
49285SOL    HW149752   2.453  12.785  10.783
49285SOL    HW249753   2.532  12.909  10.746
49286SOL     OW49754  13.790  11.473   7.277
49286SOL    HW149755  13.736  11.469   7.197
49286SOL    HW249756  13.863  11.530   7.254
49287SOL     OW49757   1.241   6.649   6.586
49287SOL    HW149758   1.326   6.694   6.583
49287SOL    HW249759   1.182   6.707   6.537
49288SOL     OW49760   6.938   2.098   3.889
49288SOL    HW149761   6.985   2.043   3.951
49288SOL    HW249762   6.959   2.061   3.803
49289SOL     OW49763   9.390  10.944  11.557
49289SOL    HW149764   9.378  10.960  11.464
49289SOL    HW249765   9.482  10.965  11.574
49290SOL     OW49766   1.926  14.572   7.400
49290SOL    HW149767   1.992  14.637   7.424
49290SOL    HW249768   1.977  14.493   7.378
49291SOL     OW49769   2.242   6.265  11.085
49291SOL    HW149770   2.327   6.294  11.117
49291SOL    HW249771   2.246   6.280  10.990
49292SOL     OW49772   4.843  13.135   8.526
49292SOL    HW149773   4.826  13.062   8.584
49292SOL    HW249774   4.878  13.204   8.583
49293SOL     OW49775  14.508   2.508   1.395
49293SOL    HW149776  14.458   2.430   1.416
49293SOL    HW249777  14.593   2.495   1.438
49294SOL     OW49778   5.512  12.719   5.157
49294SOL    HW149779   5.572  12.645   5.147
49294SOL    HW249780   5.556  12.791   5.112
49295SOL     OW49781   6.716   1.232   1.758
49295SOL    HW149782   6.748   1.184   1.681
49295SOL    HW249783   6.671   1.309   1.721
49296SOL     OW49784   0.529   8.594   6.591
49296SOL    HW149785   0.566   8.512   6.623
49296SOL    HW249786   0.567   8.606   6.504
49297SOL     OW49787   8.250   7.362   3.917
49297SOL    HW149788   8.233   7.436   3.975
49297SOL    HW249789   8.341   7.375   3.889
49298SOL     OW49790   8.360   7.868  13.720
49298SOL    HW149791   8.455   7.868  13.735
49298SOL    HW249792   8.346   7.795  13.660
49299SOL     OW49793   2.636   6.913  14.384
49299SOL    HW149794   2.609   6.948  14.299
49299SOL    HW249795   2.612   6.981  14.447
49300SOL     OW49796  11.306   5.354  12.613
49300SOL    HW149797  11.334   5.379  12.525
49300SOL    HW249798  11.329   5.261  12.621
49301SOL     OW49799  10.644  12.442   6.212
49301SOL    HW149800  10.613  12.396   6.290
49301SOL    HW249801  10.716  12.496   6.244
49302SOL     OW49802   7.432  12.264  11.294
49302SOL    HW149803   7.355  12.320  11.306
49302SOL    HW249804   7.432  12.207  11.370
49303SOL     OW49805   5.621  11.868  14.317
49303SOL    HW149806   5.639  11.790  14.369
49303SOL    HW249807   5.599  11.935  14.381
49304SOL     OW49808   8.945  14.170   1.967
49304SOL    HW149809   8.939  14.087   1.919
49304SOL    HW249810   8.861  14.213   1.951
49305SOL     OW49811   8.087   8.350   5.127
49305SOL    HW149812   8.113   8.305   5.208
49305SOL    HW249813   8.076   8.280   5.063
49306SOL     OW49814   9.761  11.789   6.597
49306SOL    HW149815   9.685  11.753   6.550
49306SOL    HW249816   9.728  11.806   6.686
49307SOL     OW49817  13.824  12.888   8.314
49307SOL    HW149818  13.843  12.902   8.407
49307SOL    HW249819  13.750  12.946   8.296
49308SOL     OW49820   5.817   4.027   2.411
49308SOL    HW149821   5.843   4.113   2.445
49308SOL    HW249822   5.732   4.010   2.451
49309SOL     OW49823   9.691   5.928  13.195
49309SOL    HW149824   9.673   5.964  13.108
49309SOL    HW249825   9.618   5.959  13.249
49310SOL     OW49826   7.071   4.612   8.198
49310SOL    HW149827   7.142   4.607   8.134
49310SOL    HW249828   7.004   4.666   8.155
49311SOL     OW49829   3.768   2.385   5.303
49311SOL    HW149830   3.757   2.322   5.374
49311SOL    HW249831   3.722   2.464   5.333
49312SOL     OW49832  14.062   9.853  13.718
49312SOL    HW149833  13.968   9.872  13.716
49312SOL    HW249834  14.079   9.822  13.807
49313SOL     OW49835   0.873  12.816   3.086
49313SOL    HW149836   0.864  12.725   3.115
49313SOL    HW249837   0.856  12.869   3.164
49314SOL     OW49838  11.048  10.860  12.027
49314SOL    HW149839  11.089  10.942  12.000
49314SOL    HW249840  11.002  10.830  11.948
49315SOL     OW49841   1.660   9.802  12.613
49315SOL    HW149842   1.653   9.879  12.669
49315SOL    HW249843   1.699   9.835  12.532
49316SOL     OW49844   9.055   6.136   4.049
49316SOL    HW149845   9.052   6.227   4.019
49316SOL    HW249846   8.965   6.104   4.039
49317SOL     OW49847   3.441   2.731  14.620
49317SOL    HW149848   3.404   2.680  14.548
49317SOL    HW249849   3.464   2.815  14.581
49318SOL     OW49850   0.551   3.203  11.147
49318SOL    HW149851   0.465   3.173  11.176
49318SOL    HW249852   0.608   3.127  11.160
49319SOL     OW49853   3.618  13.452  13.311
49319SOL    HW149854   3.570  13.518  13.262
49319SOL    HW249855   3.554  13.383  13.328
49320SOL     OW49856   6.358   4.608   9.159
49320SOL    HW149857   6.311   4.690   9.170
49320SOL    HW249858   6.345   4.584   9.068
49321SOL     OW49859  14.486   1.469   1.066
49321SOL    HW149860  14.425   1.435   1.000
49321SOL    HW249861  14.494   1.562   1.045
49322SOL     OW49862  13.189  11.352  12.275
49322SOL    HW149863  13.144  11.317  12.353
49322SOL    HW249864  13.121  11.400  12.228
49323SOL     OW49865   0.603   9.413   1.474
49323SOL    HW149866   0.685   9.444   1.512
49323SOL    HW249867   0.548   9.492   1.468
49324SOL     OW49868   8.179   0.468  14.412
49324SOL    HW149869   8.101   0.519  14.387
49324SOL    HW249870   8.237   0.532  14.453
49325SOL     OW49871  13.357   4.637  11.502
49325SOL    HW149872  13.325   4.631  11.591
49325SOL    HW249873  13.398   4.724  11.497
49326SOL     OW49874  12.113  13.390   2.199
49326SOL    HW149875  12.183  13.344   2.245
49326SOL    HW249876  12.052  13.416   2.268
49327SOL     OW49877  11.909   8.928  12.714
49327SOL    HW149878  11.997   8.894  12.701
49327SOL    HW249879  11.852   8.863  12.674
49328SOL     OW49880   0.824   6.273   4.097
49328SOL    HW149881   0.803   6.201   4.038
49328SOL    HW249882   0.797   6.352   4.049
49329SOL     OW49883  11.046   8.247   6.691
49329SOL    HW149884  11.049   8.295   6.608
49329SOL    HW249885  10.969   8.191   6.683
49330SOL     OW49886   1.243   5.293   2.532
49330SOL    HW149887   1.336   5.300   2.555
49330SOL    HW249888   1.239   5.316   2.440
49331SOL     OW49889  11.313  14.717   0.125
49331SOL    HW149890  11.330  14.732   0.218
49331SOL    HW249891  11.218  14.705   0.120
49332SOL     OW49892  13.363  14.367   6.692
49332SOL    HW149893  13.436  14.306   6.682
49332SOL    HW249894  13.368  14.396   6.784
49333SOL     OW49895   8.223  13.232   8.830
49333SOL    HW149896   8.264  13.165   8.775
49333SOL    HW249897   8.198  13.185   8.910
49334SOL     OW49898  11.928   3.647  14.606
49334SOL    HW149899  11.886   3.722  14.649
49334SOL    HW249900  11.858   3.606  14.555
49335SOL     OW49901  12.822   7.218  14.281
49335SOL    HW149902  12.739   7.257  14.253
49335SOL    HW249903  12.883   7.291  14.284
49336SOL     OW49904   3.534   3.211   5.943
49336SOL    HW149905   3.602   3.270   5.913
49336SOL    HW249906   3.471   3.267   5.989
49337SOL     OW49907  12.984  10.872  14.702
49337SOL    HW149908  12.938  10.834  14.778
49337SOL    HW249909  12.918  10.928  14.660
49338SOL     OW49910  13.530   7.264   8.484
49338SOL    HW149911  13.550   7.349   8.523
49338SOL    HW249912  13.484   7.285   8.403
49339SOL     OW49913   0.613  12.095   0.105
49339SOL    HW149914   0.662  12.081   0.186
49339SOL    HW249915   0.677  12.128   0.043
49340SOL     OW49916  10.474   2.521   6.639
49340SOL    HW149917  10.539   2.460   6.605
49340SOL    HW249918  10.513   2.554   6.720
49341SOL     OW49919   5.350  10.054   9.816
49341SOL    HW149920   5.266  10.024   9.850
49341SOL    HW249921   5.329  10.134   9.767
49342SOL     OW49922  14.540   7.526   1.718
49342SOL    HW149923  14.457   7.552   1.759
49342SOL    HW249924  14.546   7.580   1.639
49343SOL     OW49925   0.421   3.775  14.396
49343SOL    HW149926   0.459   3.823  14.323
49343SOL    HW249927   0.494   3.723  14.431
49344SOL     OW49928   5.471  11.897  11.597
49344SOL    HW149929   5.379  11.895  11.624
49344SOL    HW249930   5.480  11.978  11.548
49345SOL     OW49931  14.811   8.583   1.832
49345SOL    HW149932  14.824   8.505   1.779
49345SOL    HW249933  14.781   8.550   1.917
49346SOL     OW49934  11.370  13.825   7.958
49346SOL    HW149935  11.449  13.875   7.975
49346SOL    HW249936  11.299  13.881   7.988
49347SOL     OW49937   5.941  12.196   8.090
49347SOL    HW149938   5.920  12.111   8.052
49347SOL    HW249939   5.907  12.192   8.179
49348SOL     OW49940  11.799   5.692  13.034
49348SOL    HW149941  11.810   5.605  13.072
49348SOL    HW249942  11.741   5.679  12.959
49349SOL     OW49943   8.489   1.586  13.346
49349SOL    HW149944   8.517   1.508  13.393
49349SOL    HW249945   8.559   1.603  13.283
49350SOL     OW49946  14.151   7.073  12.166
49350SOL    HW149947  14.227   7.104  12.215
49350SOL    HW249948  14.081   7.069  12.231
49351SOL     OW49949  13.963   1.217   1.848
49351SOL    HW149950  13.955   1.262   1.763
49351SOL    HW249951  13.898   1.261   1.904
49352SOL     OW49952  13.751   9.581   7.560
49352SOL    HW149953  13.766   9.606   7.469
49352SOL    HW249954  13.692   9.648   7.594
49353SOL     OW49955  11.321   8.935   3.423
49353SOL    HW149956  11.399   8.981   3.453
49353SOL    HW249957  11.277   8.906   3.503
49354SOL     OW49958   0.345   0.632  13.967
49354SOL    HW149959   0.389   0.655  14.049
49354SOL    HW249960   0.416   0.613  13.906
49355SOL     OW49961   0.832   5.035  12.854
49355SOL    HW149962   0.867   4.948  12.835
49355SOL    HW249963   0.904   5.095  12.831
49356SOL     OW49964   3.525   9.341   1.787
49356SOL    HW149965   3.522   9.320   1.880
49356SOL    HW249966   3.461   9.281   1.747
49357SOL     OW49967  12.194  11.398  12.276
49357SOL    HW149968  12.151  11.330  12.225
49357SOL    HW249969  12.123  11.449  12.315
49358SOL     OW49970   2.675  14.770   7.384
49358SOL    HW149971   2.582  14.770   7.405
49358SOL    HW249972   2.678  14.792   7.291
49359SOL     OW49973  14.262  11.455   8.072
49359SOL    HW149974  14.207  11.482   7.998
49359SOL    HW249975  14.343  11.423   8.031
49360SOL     OW49976   9.438   9.467   4.945
49360SOL    HW149977   9.390   9.542   4.909
49360SOL    HW249978   9.410   9.393   4.892
49361SOL     OW49979   8.791  14.380   5.611
49361SOL    HW149980   8.722  14.445   5.623
49361SOL    HW249981   8.772  14.341   5.526
49362SOL     OW49982   1.758  11.380  12.992
49362SOL    HW149983   1.840  11.428  13.005
49362SOL    HW249984   1.747  11.331  13.073
49363SOL     OW49985   0.933   5.750   6.656
49363SOL    HW149986   0.976   5.810   6.717
49363SOL    HW249987   0.889   5.686   6.712
49364SOL     OW49988  11.665   5.877   4.825
49364SOL    HW149989  11.710   5.942   4.770
49364SOL    HW249990  11.572   5.892   4.808
49365SOL     OW49991  10.431  11.809  11.318
49365SOL    HW149992  10.406  11.901  11.315
49365SOL    HW249993  10.523  11.809  11.292
49366SOL     OW49994   9.956   4.840   1.378
49366SOL    HW149995   9.889   4.845   1.446
49366SOL    HW249996   9.953   4.926   1.336
49367SOL     OW49997   1.662   3.585   5.895
49367SOL    HW149998   1.613   3.563   5.815
49367SOL    HW249999   1.753   3.564   5.874
49368SOL     OW50000   8.017   5.687   1.434
49368SOL    HW150001   7.943   5.650   1.481
49368SOL    HW250002   7.990   5.776   1.412
49369SOL     OW50003  13.125   7.444   3.390
49369SOL    HW150004  13.131   7.395   3.308
49369SOL    HW250005  13.204   7.420   3.438
49370SOL     OW50006   0.609  12.428   9.632
49370SOL    HW150007   0.681  12.404   9.690
49370SOL    HW250008   0.605  12.524   9.639
49371SOL     OW50009   7.471   9.689  10.844
49371SOL    HW150010   7.473   9.673  10.939
49371SOL    HW250011   7.492   9.781  10.835
49372SOL     OW50012   1.488   2.190   3.828
49372SOL    HW150013   1.549   2.198   3.755
49372SOL    HW250014   1.403   2.213   3.792
49373SOL     OW50015   3.923  10.597   2.075
49373SOL    HW150016   3.904  10.528   2.011
49373SOL    HW250017   3.950  10.672   2.021
49374SOL     OW50018  10.974   2.088   1.928
49374SOL    HW150019  10.926   2.166   1.957
49374SOL    HW250020  10.987   2.101   1.834
49375SOL     OW50021  10.917   0.839  14.652
49375SOL    HW150022  10.905   0.928  14.618
49375SOL    HW250023  10.870   0.783  14.590
49376SOL     OW50024   6.615  13.530  12.119
49376SOL    HW150025   6.707  13.541  12.096
49376SOL    HW250026   6.602  13.436  12.123
49377SOL     OW50027   2.514   2.081   4.442
49377SOL    HW150028   2.506   2.175   4.461
49377SOL    HW250029   2.568   2.077   4.364
49378SOL     OW50030  14.472  12.724   3.463
49378SOL    HW150031  14.391  12.675   3.451
49378SOL    HW250032  14.535  12.682   3.405
49379SOL     OW50033   8.172   6.833  12.587
49379SOL    HW150034   8.225   6.829  12.666
49379SOL    HW250035   8.097   6.777  12.605
49380SOL     OW50036   9.326   0.496  12.667
49380SOL    HW150037   9.354   0.417  12.714
49380SOL    HW250038   9.298   0.556  12.735
49381SOL     OW50039   3.279   9.932   5.275
49381SOL    HW150040   3.249   9.915   5.186
49381SOL    HW250041   3.367   9.895   5.279
49382SOL     OW50042   4.975   2.872   6.066
49382SOL    HW150043   5.031   2.805   6.105
49382SOL    HW250044   4.943   2.922   6.141
49383SOL     OW50045  13.545   8.600   0.272
49383SOL    HW150046  13.507   8.549   0.344
49383SOL    HW250047  13.613   8.543   0.236
49384SOL     OW50048   4.221  12.533  12.297
49384SOL    HW150049   4.311  12.503  12.291
49384SOL    HW250050   4.197  12.518  12.389
49385SOL     OW50051   6.887  12.676  11.270
49385SOL    HW150052   6.924  12.682  11.358
49385SOL    HW250053   6.919  12.754  11.224
49386SOL     OW50054   4.057  14.016   4.725
49386SOL    HW150055   3.990  13.972   4.672
49386SOL    HW250056   4.035  13.995   4.815
49387SOL     OW50057  14.812  10.859   9.154
49387SOL    HW150058   0.027  10.829   9.179
49387SOL    HW250059  14.760  10.779   9.147
49388SOL     OW50060   2.255   1.788  14.646
49388SOL    HW150061   2.298   1.741  14.719
49388SOL    HW250062   2.258   1.726  14.573
49389SOL     OW50063  11.635   6.215  14.372
49389SOL    HW150064  11.603   6.125  14.367
49389SOL    HW250065  11.730   6.207  14.359
49390SOL     OW50066  10.822   2.658   5.299
49390SOL    HW150067  10.789   2.649   5.210
49390SOL    HW250068  10.807   2.573   5.339
49391SOL     OW50069   7.190  11.087  12.273
49391SOL    HW150070   7.133  11.067  12.199
49391SOL    HW250071   7.175  11.015  12.334
49392SOL     OW50072   0.443   7.230  12.428
49392SOL    HW150073   0.483   7.278  12.501
49392SOL    HW250074   0.513   7.173  12.395
49393SOL     OW50075   1.783   2.150   3.936
49393SOL    HW150076   1.733   2.209   3.879
49393SOL    HW250077   1.793   2.198   4.018
49394SOL     OW50078   1.102   0.403   6.482
49394SOL    HW150079   1.010   0.405   6.458
49394SOL    HW250080   1.143   0.345   6.418
49395SOL     OW50081   7.831  13.363   9.698
49395SOL    HW150082   7.790  13.279   9.717
49395SOL    HW250083   7.923  13.342   9.681
49396SOL     OW50084   6.511  11.124   0.038
49396SOL    HW150085   6.568  11.159   0.106
49396SOL    HW250086   6.541  11.034   0.025
49397SOL     OW50087   6.967   2.911   7.356
49397SOL    HW150088   6.939   2.855   7.428
49397SOL    HW250089   6.889   2.961   7.332
49398SOL     OW50090   9.472   5.322   8.030
49398SOL    HW150091   9.502   5.412   8.025
49398SOL    HW250092   9.389   5.326   8.077
49399SOL     OW50093   8.625   9.795   8.223
49399SOL    HW150094   8.676   9.781   8.303
49399SOL    HW250095   8.638   9.888   8.203
49400SOL     OW50096   3.796   8.890   5.797
49400SOL    HW150097   3.823   8.934   5.717
49400SOL    HW250098   3.785   8.960   5.861
49401SOL     OW50099   5.155  11.582  13.802
49401SOL    HW150100   5.190  11.506  13.756
49401SOL    HW250101   5.080  11.548  13.851
49402SOL     OW50102   4.690   8.267   4.954
49402SOL    HW150103   4.622   8.305   5.010
49402SOL    HW250104   4.765   8.326   4.965
49403SOL     OW50105  12.134   2.752  14.523
49403SOL    HW150106  12.193   2.684  14.554
49403SOL    HW250107  12.107   2.724  14.435
49404SOL     OW50108   8.874   3.346  12.085
49404SOL    HW150109   8.941   3.321  12.149
49404SOL    HW250110   8.908   3.316  12.001
49405SOL     OW50111   0.335  12.029   3.082
49405SOL    HW150112   0.399  12.075   3.137
49405SOL    HW250113   0.251  12.041   3.128
49406SOL     OW50114   7.714   9.434   0.940
49406SOL    HW150115   7.791   9.452   0.994
49406SOL    HW250116   7.642   9.479   0.985
49407SOL     OW50117   4.256   5.832   9.004
49407SOL    HW150118   4.285   5.917   9.035
49407SOL    HW250119   4.265   5.774   9.080
49408SOL     OW50120  14.282  12.540   1.408
49408SOL    HW150121  14.205  12.495   1.374
49408SOL    HW250122  14.339  12.551   1.332
49409SOL     OW50123   5.180   1.042   7.998
49409SOL    HW150124   5.204   0.969   8.055
49409SOL    HW250125   5.258   1.058   7.946
49410SOL     OW50126   2.521   1.554  11.551
49410SOL    HW150127   2.595   1.590  11.599
49410SOL    HW250128   2.517   1.462  11.577
49411SOL     OW50129  12.163   6.763   6.918
49411SOL    HW150130  12.115   6.840   6.887
49411SOL    HW250131  12.249   6.798   6.943
49412SOL     OW50132  11.977   2.607   0.129
49412SOL    HW150133  12.029   2.632   0.053
49412SOL    HW250134  11.886   2.621   0.101
49413SOL     OW50135   1.427   5.332   0.381
49413SOL    HW150136   1.465   5.244   0.377
49413SOL    HW250137   1.474   5.375   0.453
49414SOL     OW50138   4.655   1.466   3.440
49414SOL    HW150139   4.676   1.373   3.429
49414SOL    HW250140   4.733   1.512   3.410
49415SOL     OW50141  10.816   8.419   9.790
49415SOL    HW150142  10.802   8.380   9.877
49415SOL    HW250143  10.734   8.466   9.772
49416SOL     OW50144  14.476  10.211  14.807
49416SOL    HW150145  14.420  10.158  14.864
49416SOL    HW250146  14.512  10.148  14.744
49417SOL     OW50147   2.521  11.513   7.162
49417SOL    HW150148   2.539  11.552   7.077
49417SOL    HW250149   2.441  11.555   7.192
49418SOL     OW50150   5.868   4.076   8.521
49418SOL    HW150151   5.906   4.145   8.575
49418SOL    HW250152   5.815   4.123   8.456
49419SOL     OW50153   3.816   0.297   7.702
49419SOL    HW150154   3.779   0.372   7.656
49419SOL    HW250155   3.790   0.310   7.793
49420SOL     OW50156   7.850  12.203   7.843
49420SOL    HW150157   7.782  12.139   7.863
49420SOL    HW250158   7.803  12.285   7.830
49421SOL     OW50159  11.611   5.554   8.009
49421SOL    HW150160  11.520   5.539   8.035
49421SOL    HW250161  11.606   5.622   7.942
49422SOL     OW50162  12.666   1.794   2.879
49422SOL    HW150163  12.605   1.753   2.817
49422SOL    HW250164  12.655   1.745   2.960
49423SOL     OW50165   5.563  11.281   5.861
49423SOL    HW150166   5.564  11.339   5.937
49423SOL    HW250167   5.567  11.193   5.899
49424SOL     OW50168   1.740  11.135  10.961
49424SOL    HW150169   1.828  11.174  10.962
49424SOL    HW250170   1.751  11.052  11.007
49425SOL     OW50171   7.315  12.221  10.831
49425SOL    HW150172   7.408  12.216  10.852
49425SOL    HW250173   7.285  12.130  10.830
49426SOL     OW50174  14.722   7.421   4.509
49426SOL    HW150175  14.806   7.398   4.548
49426SOL    HW250176  14.698   7.504   4.550
49427SOL     OW50177   9.842   5.002   4.282
49427SOL    HW150178   9.889   4.920   4.268
49427SOL    HW250179   9.761   4.977   4.326
49428SOL     OW50180   2.403   3.141  10.556
49428SOL    HW150181   2.390   3.085  10.632
49428SOL    HW250182   2.318   3.181  10.540
49429SOL     OW50183  10.496  12.369  11.758
49429SOL    HW150184  10.417  12.393  11.807
49429SOL    HW250185  10.482  12.407  11.671
49430SOL     OW50186  10.275   7.593   0.375
49430SOL    HW150187  10.197   7.581   0.321
49430SOL    HW250188  10.248   7.655   0.443
49431SOL     OW50189   3.353  10.385   5.949
49431SOL    HW150190   3.374  10.360   6.039
49431SOL    HW250191   3.385  10.314   5.895
49432SOL     OW50192  13.594   2.248   8.617
49432SOL    HW150193  13.587   2.193   8.539
49432SOL    HW250194  13.536   2.206   8.681
49433SOL     OW50195   2.625   4.475  10.353
49433SOL    HW150196   2.678   4.410  10.306
49433SOL    HW250197   2.618   4.441  10.442
49434SOL     OW50198   8.439   9.108  12.984
49434SOL    HW150199   8.386   9.034  12.954
49434SOL    HW250200   8.528   9.087  12.954
49435SOL     OW50201   2.628   4.965  12.617
49435SOL    HW150202   2.682   5.042  12.634
49435SOL    HW250203   2.564   4.964  12.687
49436SOL     OW50204   6.478  11.795   4.788
49436SOL    HW150205   6.521  11.878   4.809
49436SOL    HW250206   6.425  11.814   4.711
49437SOL     OW50207   9.267  10.570   2.536
49437SOL    HW150208   9.214  10.538   2.462
49437SOL    HW250209   9.275  10.494   2.594
49438SOL     OW50210   1.187   5.586  12.262
49438SOL    HW150211   1.126   5.659  12.248
49438SOL    HW250212   1.220   5.600  12.351
49439SOL     OW50213  12.164   2.506   6.942
49439SOL    HW150214  12.110   2.535   7.015
49439SOL    HW250215  12.169   2.411   6.953
49440SOL     OW50216  11.290   6.855   8.718
49440SOL    HW150217  11.356   6.923   8.731
49440SOL    HW250218  11.333   6.775   8.750
49441SOL     OW50219  14.676  11.140   1.730
49441SOL    HW150220  14.737  11.066   1.729
49441SOL    HW250221  14.605  11.112   1.788
49442SOL     OW50222  11.432   4.089   0.138
49442SOL    HW150223  11.350   4.039   0.143
49442SOL    HW250224  11.472   4.062   0.056
49443SOL     OW50225  12.181   0.662  14.320
49443SOL    HW150226  12.152   0.729  14.259
49443SOL    HW250227  12.102   0.609  14.337
49444SOL     OW50228  12.785   4.996   4.600
49444SOL    HW150229  12.720   4.927   4.587
49444SOL    HW250230  12.803   5.029   4.512
49445SOL     OW50231   5.988   0.736  12.691
49445SOL    HW150232   5.899   0.764  12.715
49445SOL    HW250233   6.003   0.775  12.605
49446SOL     OW50234   5.978   8.387  14.620
49446SOL    HW150235   6.022   8.302  14.612
49446SOL    HW250236   6.049   8.451  14.613
49447SOL     OW50237   3.954  13.716  11.959
49447SOL    HW150238   3.973  13.669  11.878
49447SOL    HW250239   3.870  13.760  11.942
49448SOL     OW50240  12.553   0.811   7.985
49448SOL    HW150241  12.548   0.867   7.908
49448SOL    HW250242  12.480   0.750   7.975
49449SOL     OW50243   7.695   5.812   4.774
49449SOL    HW150244   7.685   5.865   4.695
49449SOL    HW250245   7.628   5.744   4.766
49450SOL     OW50246  14.850   2.834   6.840
49450SOL    HW150247   0.027   2.800   6.765
49450SOL    HW250248   0.044   2.875   6.895
49451SOL     OW50249   7.581   0.432   3.458
49451SOL    HW150250   7.513   0.474   3.510
49451SOL    HW250251   7.556   0.450   3.367
49452SOL     OW50252  10.450   4.693  14.594
49452SOL    HW150253  10.413   4.615  14.552
49452SOL    HW250254  10.375   4.745  14.620
49453SOL     OW50255   8.920   1.234  14.468
49453SOL    HW150256   8.958   1.306  14.518
49453SOL    HW250257   8.859   1.192  14.528
49454SOL     OW50258   5.719   8.892   5.251
49454SOL    HW150259   5.766   8.906   5.332
49454SOL    HW250260   5.732   8.972   5.201
49455SOL     OW50261   5.231   8.177   9.800
49455SOL    HW150262   5.286   8.136   9.733
49455SOL    HW250263   5.294   8.222   9.857
49456SOL     OW50264  11.436  10.491  12.672
49456SOL    HW150265  11.452  10.480  12.766
49456SOL    HW250266  11.381  10.569  12.667
49457SOL     OW50267  10.926   3.340  13.842
49457SOL    HW150268  10.881   3.314  13.922
49457SOL    HW250269  10.942   3.258  13.795
49458SOL     OW50270   2.418   1.376   0.760
49458SOL    HW150271   2.367   1.352   0.837
49458SOL    HW250272   2.443   1.467   0.775
49459SOL     OW50273   6.003   2.621   1.757
49459SOL    HW150274   6.012   2.535   1.715
49459SOL    HW250275   6.051   2.612   1.839
49460SOL     OW50276   9.880   1.920  12.866
49460SOL    HW150277   9.839   1.845  12.824
49460SOL    HW250278   9.922   1.884  12.944
49461SOL     OW50279  14.290  13.204   4.484
49461SOL    HW150280  14.264  13.164   4.401
49461SOL    HW250281  14.210  13.206   4.536
49462SOL     OW50282   8.853  11.666  13.031
49462SOL    HW150283   8.892  11.609  13.097
49462SOL    HW250284   8.763  11.679  13.062
49463SOL     OW50285   9.608   0.639   4.924
49463SOL    HW150286   9.677   0.585   4.886
49463SOL    HW250287   9.656   0.709   4.969
49464SOL     OW50288  12.812  10.112  14.224
49464SOL    HW150289  12.863  10.167  14.284
49464SOL    HW250290  12.739  10.081  14.278
49465SOL     OW50291   3.210   0.501  12.872
49465SOL    HW150292   3.269   0.448  12.818
49465SOL    HW250293   3.267   0.537  12.940
49466SOL     OW50294  14.553   2.818   2.519
49466SOL    HW150295  14.511   2.733   2.533
49466SOL    HW250296  14.616   2.802   2.449
49467SOL     OW50297   5.081   2.970  14.013
49467SOL    HW150298   5.082   2.877  14.034
49467SOL    HW250299   5.009   2.980  13.950
49468SOL     OW50300   6.107   9.281   5.041
49468SOL    HW150301   6.191   9.235   5.041
49468SOL    HW250302   6.059   9.243   4.967
49469SOL     OW50303  10.592  14.807   2.345
49469SOL    HW150304  10.645  14.868   2.396
49469SOL    HW250305  10.510  14.801   2.394
49470SOL     OW50306   3.696  11.706   2.411
49470SOL    HW150307   3.712  11.800   2.410
49470SOL    HW250308   3.766  11.668   2.358
49471SOL     OW50309  13.835   7.414   2.187
49471SOL    HW150310  13.929   7.418   2.169
49471SOL    HW250311  13.827   7.348   2.256
49472SOL     OW50312   2.857  10.784   3.207
49472SOL    HW150313   2.908  10.865   3.214
49472SOL    HW250314   2.918  10.714   3.231
49473SOL     OW50315   1.092   7.169  14.318
49473SOL    HW150316   1.081   7.251  14.367
49473SOL    HW250317   1.146   7.114  14.375
49474SOL     OW50318  10.061   6.430  14.534
49474SOL    HW150319   9.997   6.371  14.573
49474SOL    HW250320  10.138   6.424  14.591
49475SOL     OW50321   8.171   7.163  14.424
49475SOL    HW150322   8.266   7.172  14.430
49475SOL    HW250323   8.155   7.140  14.333
49476SOL     OW50324   3.794   2.518   5.920
49476SOL    HW150325   3.779   2.424   5.910
49476SOL    HW250326   3.779   2.535   6.013
49477SOL     OW50327   3.716  11.794   1.774
49477SOL    HW150328   3.718  11.736   1.850
49477SOL    HW250329   3.720  11.735   1.698
49478SOL     OW50330   1.503   2.415   6.507
49478SOL    HW150331   1.583   2.468   6.515
49478SOL    HW250332   1.502   2.361   6.586
49479SOL     OW50333  12.708   8.248   5.944
49479SOL    HW150334  12.774   8.198   5.994
49479SOL    HW250335  12.627   8.199   5.956
49480SOL     OW50336   7.891  10.063   3.923
49480SOL    HW150337   7.913  10.025   3.838
49480SOL    HW250338   7.971  10.109   3.950
49481SOL     OW50339  14.515   5.031   1.159
49481SOL    HW150340  14.520   4.988   1.074
49481SOL    HW250341  14.462   5.110   1.144
49482SOL     OW50342   5.338  13.967   4.747
49482SOL    HW150343   5.298  13.934   4.828
49482SOL    HW250344   5.282  13.933   4.677
49483SOL     OW50345   6.153   8.996   9.009
49483SOL    HW150346   6.176   8.912   9.049
49483SOL    HW250347   6.226   9.053   9.029
49484SOL     OW50348   7.614   8.321  13.997
49484SOL    HW150349   7.577   8.322  14.085
49484SOL    HW250350   7.707   8.337  14.010
49485SOL     OW50351   6.025   8.669   8.144
49485SOL    HW150352   5.986   8.695   8.227
49485SOL    HW250353   5.956   8.620   8.099
49486SOL     OW50354   3.864   4.549   4.256
49486SOL    HW150355   3.931   4.615   4.275
49486SOL    HW250356   3.898   4.470   4.299
49487SOL     OW50357   4.447   1.664  10.284
49487SOL    HW150358   4.417   1.588  10.234
49487SOL    HW250359   4.543   1.660  10.279
49488SOL     OW50360   7.692   0.741   2.759
49488SOL    HW150361   7.717   0.648   2.756
49488SOL    HW250362   7.607   0.741   2.803
49489SOL     OW50363   3.846   4.799  12.376
49489SOL    HW150364   3.926   4.845  12.403
49489SOL    HW250365   3.858   4.785  12.282
49490SOL     OW50366   0.426   8.586  11.289
49490SOL    HW150367   0.345   8.552  11.250
49490SOL    HW250368   0.414   8.573  11.383
49491SOL     OW50369   0.197  12.647  12.156
49491SOL    HW150370   0.286  12.682  12.167
49491SOL    HW250371   0.186  12.586  12.229
49492SOL     OW50372  10.457   9.309   5.518
49492SOL    HW150373  10.545   9.313   5.481
49492SOL    HW250374  10.442   9.397   5.554
49493SOL     OW50375  11.615  11.714   3.794
49493SOL    HW150376  11.647  11.782   3.735
49493SOL    HW250377  11.579  11.647   3.736
49494SOL     OW50378   5.763   9.599  12.302
49494SOL    HW150379   5.692   9.602  12.239
49494SOL    HW250380   5.821   9.671  12.276
49495SOL     OW50381   9.646   1.187   6.897
49495SOL    HW150382   9.728   1.223   6.931
49495SOL    HW250383   9.673   1.109   6.849
49496SOL     OW50384   6.697   3.071  10.279
49496SOL    HW150385   6.716   3.041  10.367
49496SOL    HW250386   6.625   3.133  10.289
49497SOL     OW50387  12.491   1.623   6.388
49497SOL    HW150388  12.529   1.552   6.336
49497SOL    HW250389  12.435   1.578   6.452
49498SOL     OW50390   3.213   9.990  14.154
49498SOL    HW150391   3.128   9.961  14.187
49498SOL    HW250392   3.235  10.066  14.208
49499SOL     OW50393   3.201   1.110  14.711
49499SOL    HW150394   3.223   1.056  14.636
49499SOL    HW250395   3.284   1.124  14.757
49500SOL     OW50396   7.791  13.256   5.497
49500SOL    HW150397   7.872  13.245   5.546
49500SOL    HW250398   7.785  13.178   5.442
49501SOL     OW50399  12.870   4.441  14.809
49501SOL    HW150400  12.806   4.382  14.850
49501SOL    HW250401  12.824   4.477  14.733
49502SOL     OW50402   8.859  11.918   2.035
49502SOL    HW150403   8.796  11.848   2.016
49502SOL    HW250404   8.828  11.957   2.116
49503SOL     OW50405   4.045   0.083  10.712
49503SOL    HW150406   4.003   0.132  10.782
49503SOL    HW250407   4.131   0.061  10.746
49504SOL     OW50408  13.471   9.613   6.783
49504SOL    HW150409  13.559   9.591   6.751
49504SOL    HW250410  13.422   9.635   6.704
49505SOL     OW50411  11.039   9.689   3.946
49505SOL    HW150412  11.088   9.749   4.002
49505SOL    HW250413  10.964   9.662   4.000
49506SOL     OW50414   0.091  11.490   1.725
49506SOL    HW150415   0.024  11.428   1.696
49506SOL    HW250416   0.169  11.465   1.676
49507SOL     OW50417   0.410  12.857  12.778
49507SOL    HW150418   0.389  12.856  12.871
49507SOL    HW250419   0.501  12.887  12.774
49508SOL     OW50420   8.456   7.693   0.575
49508SOL    HW150421   8.390   7.735   0.520
49508SOL    HW250422   8.448   7.600   0.555
49509SOL     OW50423   7.550   9.082   7.679
49509SOL    HW150424   7.543   9.117   7.590
49509SOL    HW250425   7.556   9.160   7.734
49510SOL     OW50426   9.437   7.095   7.530
49510SOL    HW150427   9.479   7.017   7.565
49510SOL    HW250428   9.397   7.138   7.605
49511SOL     OW50429   3.720  12.199   9.024
49511SOL    HW150430   3.758  12.138   9.088
49511SOL    HW250431   3.676  12.265   9.077
49512SOL     OW50432   3.899   6.562   1.288
49512SOL    HW150433   3.836   6.514   1.343
49512SOL    HW250434   3.981   6.556   1.337
49513SOL     OW50435   6.610   5.850  13.411
49513SOL    HW150436   6.593   5.843  13.317
49513SOL    HW250437   6.612   5.944  13.428
49514SOL     OW50438   7.264  10.207   0.705
49514SOL    HW150439   7.311  10.158   0.637
49514SOL    HW250440   7.236  10.288   0.661
49515SOL     OW50441  13.418   9.072   8.926
49515SOL    HW150442  13.504   9.084   8.885
49515SOL    HW250443  13.428   9.109   9.014
49516SOL     OW50444   7.962   8.669   8.565
49516SOL    HW150445   7.902   8.651   8.492
49516SOL    HW250446   7.991   8.582   8.593
49517SOL     OW50447  13.841   9.986   2.542
49517SOL    HW150448  13.783  10.051   2.581
49517SOL    HW250449  13.865   9.929   2.615
49518SOL     OW50450   7.292   9.793  10.160
49518SOL    HW150451   7.372   9.759  10.119
49518SOL    HW250452   7.221   9.750  10.114
49519SOL     OW50453  10.224   6.549   0.379
49519SOL    HW150454  10.195   6.571   0.467
49519SOL    HW250455  10.270   6.466   0.388
49520SOL     OW50456   9.605   9.101   5.033
49520SOL    HW150457   9.550   9.137   5.102
49520SOL    HW250458   9.562   9.126   4.952
49521SOL     OW50459  12.146   1.528  10.996
49521SOL    HW150460  12.128   1.516  10.902
49521SOL    HW250461  12.235   1.495  11.007
49522SOL     OW50462   0.421  11.718   3.335
49522SOL    HW150463   0.408  11.628   3.305
49522SOL    HW250464   0.335  11.759   3.324
49523SOL     OW50465   8.391   4.157   2.187
49523SOL    HW150466   8.391   4.213   2.266
49523SOL    HW250467   8.298   4.145   2.167
49524SOL     OW50468   0.495   8.616   4.998
49524SOL    HW150469   0.479   8.699   4.954
49524SOL    HW250470   0.536   8.561   4.931
49525SOL     OW50471   7.622  10.984  10.381
49525SOL    HW150472   7.609  10.984  10.476
49525SOL    HW250473   7.643  11.075  10.359
49526SOL     OW50474  11.356   1.635   1.766
49526SOL    HW150475  11.296   1.562   1.782
49526SOL    HW250476  11.393   1.617   1.680
49527SOL     OW50477   3.773   7.544   9.480
49527SOL    HW150478   3.796   7.565   9.571
49527SOL    HW250479   3.843   7.584   9.428
49528SOL     OW50480   8.929  13.646  14.428
49528SOL    HW150481   8.959  13.555  14.427
49528SOL    HW250482   8.974  13.687  14.354
49529SOL     OW50483   3.822   0.788   8.612
49529SOL    HW150484   3.750   0.725   8.619
49529SOL    HW250485   3.889   0.754   8.671
49530SOL     OW50486   0.990   0.635   9.236
49530SOL    HW150487   0.907   0.650   9.281
49530SOL    HW250488   1.022   0.552   9.272
49531SOL     OW50489   6.633  13.781  11.564
49531SOL    HW150490   6.664  13.691  11.565
49531SOL    HW250491   6.565  13.782  11.497
49532SOL     OW50492   7.792   6.566   0.910
49532SOL    HW150493   7.865   6.543   0.853
49532SOL    HW250494   7.723   6.595   0.850
49533SOL     OW50495   9.747  10.730   3.500
49533SOL    HW150496   9.785  10.801   3.449
49533SOL    HW250497   9.711  10.670   3.434
49534SOL     OW50498  11.180   4.067  11.269
49534SOL    HW150499  11.091   4.089  11.296
49534SOL    HW250500  11.177   3.973  11.250
49535SOL     OW50501   1.558   7.624   7.701
49535SOL    HW150502   1.591   7.650   7.788
49535SOL    HW250503   1.625   7.656   7.640
49536SOL     OW50504  14.111   9.916   6.558
49536SOL    HW150505  14.023   9.888   6.534
49536SOL    HW250506  14.109   9.921   6.654
49537SOL     OW50507  11.984  14.672   8.720
49537SOL    HW150508  11.904  14.632   8.754
49537SOL    HW250509  11.964  14.691   8.628
49538SOL     OW50510   3.894  11.734  14.325
49538SOL    HW150511   3.986  11.745  14.300
49538SOL    HW250512   3.889  11.645  14.360
49539SOL     OW50513   3.332  14.421  12.639
49539SOL    HW150514   3.305  14.506  12.604
49539SOL    HW250515   3.264  14.399  12.703
49540SOL     OW50516  12.791   6.043  14.173
49540SOL    HW150517  12.728   5.997  14.229
49540SOL    HW250518  12.814   5.979  14.106
49541SOL     OW50519   3.481   2.399   2.053
49541SOL    HW150520   3.514   2.486   2.079
49541SOL    HW250521   3.386   2.409   2.054
49542SOL     OW50522   6.959   3.144   9.107
49542SOL    HW150523   6.881   3.148   9.162
49542SOL    HW250524   6.970   3.233   9.074
49543SOL     OW50525  14.212   2.105   4.808
49543SOL    HW150526  14.130   2.151   4.822
49543SOL    HW250527  14.201   2.021   4.852
49544SOL     OW50528   0.794   4.458  11.658
49544SOL    HW150529   0.833   4.498  11.580
49544SOL    HW250530   0.826   4.511  11.731
49545SOL     OW50531  11.751   2.559   4.410
49545SOL    HW150532  11.846   2.562   4.401
49545SOL    HW250533  11.733   2.474   4.450
49546SOL     OW50534   3.296   5.519   2.639
49546SOL    HW150535   3.332   5.431   2.653
49546SOL    HW250536   3.333   5.571   2.710
49547SOL     OW50537   6.168   0.731   0.041
49547SOL    HW150538   6.142   0.776  14.833
49547SOL    HW250539   6.228   0.793   0.084
49548SOL     OW50540   8.892   3.029   9.939
49548SOL    HW150541   8.896   3.008  10.033
49548SOL    HW250542   8.884   3.124   9.936
49549SOL     OW50543  12.529   3.151   8.750
49549SOL    HW150544  12.508   3.107   8.668
49549SOL    HW250545  12.618   3.122   8.771
49550SOL     OW50546  12.033   6.415   4.377
49550SOL    HW150547  12.129   6.413   4.376
49550SOL    HW250548  12.007   6.345   4.316
49551SOL     OW50549   4.842  14.686   9.627
49551SOL    HW150550   4.913  14.688   9.563
49551SOL    HW250551   4.770  14.641   9.581
49552SOL     OW50552  11.274   9.805   4.099
49552SOL    HW150553  11.289   9.754   4.019
49552SOL    HW250554  11.325   9.760   4.166
49553SOL     OW50555   5.507   7.916  14.148
49553SOL    HW150556   5.560   7.875  14.080
49553SOL    HW250557   5.480   7.845  14.205
49554SOL     OW50558  12.666  13.492   9.204
49554SOL    HW150559  12.631  13.404   9.190
49554SOL    HW250560  12.760  13.479   9.214
49555SOL     OW50561  13.377  11.885   7.419
49555SOL    HW150562  13.395  11.813   7.358
49555SOL    HW250563  13.289  11.867   7.452
49556SOL     OW50564   7.527   1.394  11.146
49556SOL    HW150565   7.561   1.466  11.199
49556SOL    HW250566   7.448   1.430  11.105
49557SOL     OW50567   9.170  13.935   2.443
49557SOL    HW150568   9.205  13.959   2.357
49557SOL    HW250569   9.162  13.840   2.440
49558SOL     OW50570  11.434  14.489   7.363
49558SOL    HW150571  11.526  14.513   7.353
49558SOL    HW250572  11.406  14.534   7.443
49559SOL     OW50573   7.532   5.075  12.414
49559SOL    HW150574   7.542   5.089  12.320
49559SOL    HW250575   7.615   5.104  12.452
49560SOL     OW50576  10.067   2.227  14.454
49560SOL    HW150577  10.060   2.281  14.376
49560SOL    HW250578  10.110   2.284  14.518
49561SOL     OW50579   4.022  14.617   8.129
49561SOL    HW150580   3.976  14.600   8.048
49561SOL    HW250581   4.114  14.602   8.108
49562SOL     OW50582  10.494   6.649   7.324
49562SOL    HW150583  10.473   6.558   7.345
49562SOL    HW250584  10.486   6.695   7.407
49563SOL     OW50585   4.956   8.101  11.621
49563SOL    HW150586   5.025   8.066  11.566
49563SOL    HW250587   4.877   8.095  11.568
49564SOL     OW50588   3.091   7.371   3.156
49564SOL    HW150589   3.184   7.352   3.166
49564SOL    HW250590   3.056   7.370   3.245
49565SOL     OW50591  14.024  10.037  10.326
49565SOL    HW150592  14.059  10.122  10.351
49565SOL    HW250593  14.057  10.021  10.238
49566SOL     OW50594   7.493   4.410   2.486
49566SOL    HW150595   7.488   4.319   2.456
49566SOL    HW250596   7.410   4.449   2.458
49567SOL     OW50597   7.178  10.966   9.161
49567SOL    HW150598   7.255  10.915   9.184
49567SOL    HW250599   7.127  10.970   9.242
49568SOL     OW50600   1.448   8.176   2.505
49568SOL    HW150601   1.372   8.197   2.450
49568SOL    HW250602   1.411   8.126   2.577
49569SOL     OW50603   5.489   8.889  11.601
49569SOL    HW150604   5.442   8.806  11.601
49569SOL    HW250605   5.425   8.953  11.632
49570SOL     OW50606  11.009  11.064  10.147
49570SOL    HW150607  10.926  11.100  10.176
49570SOL    HW250608  11.051  11.033  10.228
49571SOL     OW50609   3.469   2.923   2.012
49571SOL    HW150610   3.455   2.843   2.061
49571SOL    HW250611   3.505   2.985   2.076
49572SOL     OW50612   6.560   5.612   1.362
49572SOL    HW150613   6.491   5.624   1.296
49572SOL    HW250614   6.515   5.621   1.446
49573SOL     OW50615  12.353   7.948  11.996
49573SOL    HW150616  12.426   7.962  11.936
49573SOL    HW250617  12.380   7.991  12.077
49574SOL     OW50618  13.285   6.010   5.910
49574SOL    HW150619  13.231   6.088   5.898
49574SOL    HW250620  13.334   6.027   5.991
49575SOL     OW50621  14.449   2.460   6.233
49575SOL    HW150622  14.512   2.486   6.301
49575SOL    HW250623  14.429   2.541   6.187
49576SOL     OW50624   3.142   9.705   4.722
49576SOL    HW150625   3.080   9.752   4.778
49576SOL    HW250626   3.102   9.709   4.635
49577SOL     OW50627  11.374   6.272   6.716
49577SOL    HW150628  11.456   6.252   6.762
49577SOL    HW250629  11.392   6.354   6.670
49578SOL     OW50630   0.184   2.613   2.043
49578SOL    HW150631   0.164   2.701   2.076
49578SOL    HW250632   0.202   2.626   1.950
49579SOL     OW50633   8.642   7.657   4.761
49579SOL    HW150634   8.649   7.740   4.807
49579SOL    HW250635   8.580   7.606   4.814
49580SOL     OW50636   2.242   1.362  14.136
49580SOL    HW150637   2.293   1.336  14.059
49580SOL    HW250638   2.307   1.379  14.204
49581SOL     OW50639   1.965   9.664   8.225
49581SOL    HW150640   2.053   9.679   8.190
49581SOL    HW250641   1.941   9.578   8.192
49582SOL     OW50642  13.174   8.932   7.481
49582SOL    HW150643  13.257   8.967   7.450
49582SOL    HW250644  13.182   8.837   7.468
49583SOL     OW50645   8.000   7.800  12.336
49583SOL    HW150646   7.967   7.711  12.323
49583SOL    HW250647   8.030   7.827  12.250
49584SOL     OW50648   0.212  13.690  10.533
49584SOL    HW150649   0.192  13.700  10.626
49584SOL    HW250650   0.245  13.776  10.507
49585SOL     OW50651  14.777   0.778   5.095
49585SOL    HW150652  14.812   0.752   5.180
49585SOL    HW250653  14.736   0.699   5.060
49586SOL     OW50654   9.589   9.282  12.141
49586SOL    HW150655   9.552   9.324  12.218
49586SOL    HW250656   9.634   9.205  12.174
49587SOL     OW50657  13.338   5.273   4.301
49587SOL    HW150658  13.430   5.247   4.304
49587SOL    HW250659  13.339   5.366   4.324
49588SOL     OW50660  10.969   7.992   9.306
49588SOL    HW150661  10.975   8.048   9.228
49588SOL    HW250662  10.894   7.935   9.288
49589SOL     OW50663   1.625   9.398   9.630
49589SOL    HW150664   1.643   9.409   9.724
49589SOL    HW250665   1.658   9.478   9.590
49590SOL     OW50666   5.166   7.782   8.539
49590SOL    HW150667   5.097   7.827   8.491
49590SOL    HW250668   5.140   7.690   8.538
49591SOL     OW50669  13.424   8.520  11.797
49591SOL    HW150670  13.379   8.565  11.726
49591SOL    HW250671  13.509   8.496  11.760
49592SOL     OW50672   5.024  11.495   1.751
49592SOL    HW150673   5.016  11.403   1.776
49592SOL    HW250674   5.117  11.507   1.732
49593SOL     OW50675   9.589   6.264   0.230
49593SOL    HW150676   9.607   6.245   0.138
49593SOL    HW250677   9.553   6.183   0.264
49594SOL     OW50678   6.033   1.580   0.121
49594SOL    HW150679   5.968   1.521   0.160
49594SOL    HW250680   6.097   1.595   0.191
49595SOL     OW50681  13.218  10.044  13.865
49595SOL    HW150682  13.131  10.061  13.831
49595SOL    HW250683  13.206  10.035  13.960
49596SOL     OW50684   9.728   0.721  14.355
49596SOL    HW150685   9.753   0.718  14.447
49596SOL    HW250686   9.750   0.633  14.322
49597SOL     OW50687   5.476   7.823  10.093
49597SOL    HW150688   5.555   7.847  10.142
49597SOL    HW250689   5.404   7.861  10.143
49598SOL     OW50690   4.988   2.932  13.020
49598SOL    HW150691   5.079   2.955  13.002
49598SOL    HW250692   4.952   2.904  12.936
49599SOL     OW50693   9.381   6.223   3.873
49599SOL    HW150694   9.360   6.293   3.935
49599SOL    HW250695   9.454   6.176   3.913
49600SOL     OW50696  12.313  14.862   2.614
49600SOL    HW150697  12.284   0.080   2.628
49600SOL    HW250698  12.311  14.851   2.519
49601SOL     OW50699   3.731  13.124   6.692
49601SOL    HW150700   3.736  13.217   6.671
49601SOL    HW250701   3.758  13.120   6.784
49602SOL     OW50702   1.028   1.777  10.665
49602SOL    HW150703   1.051   1.737  10.749
49602SOL    HW250704   0.947   1.825  10.682
49603SOL     OW50705   5.372   1.661  10.776
49603SOL    HW150706   5.414   1.745  10.756
49603SOL    HW250707   5.424   1.626  10.849
49604SOL     OW50708  13.077   5.004  10.526
49604SOL    HW150709  12.985   5.004  10.499
49604SOL    HW250710  13.111   5.088  10.496
49605SOL     OW50711   1.320   3.919   8.545
49605SOL    HW150712   1.271   3.888   8.469
49605SOL    HW250713   1.361   3.839   8.581
49606SOL     OW50714   6.076   5.237  13.615
49606SOL    HW150715   6.087   5.269  13.705
49606SOL    HW250716   5.981   5.233  13.602
49607SOL     OW50717   3.120  10.564  10.613
49607SOL    HW150718   3.209  10.572  10.646
49607SOL    HW250719   3.107  10.470  10.600
49608SOL     OW50720   5.591   2.495   2.465
49608SOL    HW150721   5.538   2.530   2.536
49608SOL    HW250722   5.682   2.506   2.494
49609SOL     OW50723   2.471  13.337  10.895
49609SOL    HW150724   2.471  13.287  10.814
49609SOL    HW250725   2.444  13.425  10.868
49610SOL     OW50726   8.003   2.428   9.261
49610SOL    HW150727   8.037   2.340   9.249
49610SOL    HW250728   7.928   2.416   9.320
49611SOL     OW50729   5.346  14.648   4.375
49611SOL    HW150730   5.330  14.708   4.448
49611SOL    HW250731   5.327  14.700   4.296
49612SOL     OW50732   4.925  10.196   0.464
49612SOL    HW150733   4.976  10.119   0.440
49612SOL    HW250734   4.847  10.161   0.507
49613SOL     OW50735  11.782   3.265   4.999
49613SOL    HW150736  11.737   3.282   4.917
49613SOL    HW250737  11.856   3.327   4.999
49614SOL     OW50738  10.335  10.225   1.044
49614SOL    HW150739  10.282  10.302   1.025
49614SOL    HW250740  10.364  10.194   0.958
49615SOL     OW50741   9.192  12.205  12.206
49615SOL    HW150742   9.260  12.259  12.247
49615SOL    HW250743   9.241  12.145  12.150
49616SOL     OW50744  11.740   8.301   8.347
49616SOL    HW150745  11.713   8.325   8.436
49616SOL    HW250746  11.658   8.284   8.301
49617SOL     OW50747  14.708   2.525   0.969
49617SOL    HW150748  14.635   2.517   0.908
49617SOL    HW250749  14.668   2.562   1.048
49618SOL     OW50750   9.447   4.432  13.183
49618SOL    HW150751   9.501   4.356  13.161
49618SOL    HW250752   9.373   4.426  13.123
49619SOL     OW50753   9.520   4.922   2.599
49619SOL    HW150754   9.435   4.894   2.634
49619SOL    HW250755   9.503   5.009   2.564
49620SOL     OW50756   9.902  11.674   2.663
49620SOL    HW150757   9.815  11.640   2.684
49620SOL    HW250758   9.891  11.769   2.663
49621SOL     OW50759   6.130   4.877   6.362
49621SOL    HW150760   6.150   4.869   6.455
49621SOL    HW250761   6.187   4.946   6.330
49622SOL     OW50762   4.794  10.603  10.979
49622SOL    HW150763   4.758  10.666  11.042
49622SOL    HW250764   4.725  10.539  10.966
49623SOL     OW50765   0.646   7.843  13.872
49623SOL    HW150766   0.593   7.877  13.945
49623SOL    HW250767   0.625   7.749  13.870
49624SOL     OW50768   7.641   9.881  10.490
49624SOL    HW150769   7.722   9.851  10.449
49624SOL    HW250770   7.629   9.970  10.456
49625SOL     OW50771   6.911   4.030  10.093
49625SOL    HW150772   6.958   3.981  10.026
49625SOL    HW250773   6.883   3.964  10.157
49626SOL     OW50774   7.967   7.657  12.922
49626SOL    HW150775   7.896   7.634  12.862
49626SOL    HW250776   7.930   7.643  13.009
49627SOL     OW50777   0.595   9.496   2.719
49627SOL    HW150778   0.593   9.447   2.637
49627SOL    HW250779   0.632   9.435   2.783
49628SOL     OW50780   9.802   9.943   7.960
49628SOL    HW150781   9.815  10.019   8.015
49628SOL    HW250782   9.717   9.958   7.917
49629SOL     OW50783  13.976  12.889   6.029
49629SOL    HW150784  13.888  12.852   6.019
49629SOL    HW250785  14.029  12.816   6.062
49630SOL     OW50786   7.187   9.307   4.892
49630SOL    HW150787   7.145   9.243   4.834
49630SOL    HW250788   7.127   9.381   4.893
49631SOL     OW50789   7.882  11.065   6.699
49631SOL    HW150790   7.910  10.973   6.701
49631SOL    HW250791   7.814  11.067   6.632
49632SOL     OW50792  11.869   9.297   1.957
49632SOL    HW150793  11.861   9.292   2.052
49632SOL    HW250794  11.783   9.272   1.924
49633SOL     OW50795   6.368  14.184   9.820
49633SOL    HW150796   6.277  14.215   9.815
49633SOL    HW250797   6.361  14.089   9.817
49634SOL     OW50798   7.293   8.743   7.935
49634SOL    HW150799   7.199   8.747   7.922
49634SOL    HW250800   7.309   8.653   7.964
49635SOL     OW50801   9.442  12.402   1.326
49635SOL    HW150802   9.371  12.452   1.285
49635SOL    HW250803   9.400  12.320   1.354
49636SOL     OW50804  11.318  14.293   9.124
49636SOL    HW150805  11.300  14.274   9.216
49636SOL    HW250806  11.231  14.296   9.083
49637SOL     OW50807   9.599   6.905   2.533
49637SOL    HW150808   9.629   6.874   2.448
49637SOL    HW250809   9.680   6.916   2.584
49638SOL     OW50810   3.308   8.074   3.522
49638SOL    HW150811   3.309   8.096   3.429
49638SOL    HW250812   3.380   8.124   3.559
49639SOL     OW50813  13.337   0.681   2.668
49639SOL    HW150814  13.333   0.775   2.650
49639SOL    HW250815  13.428   0.656   2.648
49640SOL     OW50816   4.467  12.649  11.245
49640SOL    HW150817   4.401  12.706  11.205
49640SOL    HW250818   4.530  12.632  11.174
49641SOL     OW50819   2.615   7.302   5.606
49641SOL    HW150820   2.682   7.303   5.537
49641SOL    HW250821   2.659   7.265   5.682
49642SOL     OW50822  14.345  10.762  14.543
49642SOL    HW150823  14.434  10.729  14.546
49642SOL    HW250824  14.305  10.718  14.468
49643SOL     OW50825   4.826  13.198   5.139
49643SOL    HW150826   4.856  13.113   5.171
49643SOL    HW250827   4.901  13.233   5.090
49644SOL     OW50828  10.079  10.737   2.427
49644SOL    HW150829   9.990  10.722   2.396
49644SOL    HW250830  10.069  10.763   2.518
49645SOL     OW50831   4.351   8.587   2.117
49645SOL    HW150832   4.294   8.649   2.163
49645SOL    HW250833   4.421   8.641   2.080
49646SOL     OW50834   8.695   9.436   0.959
49646SOL    HW150835   8.604   9.430   0.986
49646SOL    HW250836   8.691   9.437   0.863
49647SOL     OW50837   2.992   2.774   3.409
49647SOL    HW150838   3.035   2.736   3.332
49647SOL    HW250839   2.964   2.698   3.460
49648SOL     OW50840  11.140   1.539  10.915
49648SOL    HW150841  11.146   1.602  10.843
49648SOL    HW250842  11.204   1.568  10.979
49649SOL     OW50843   7.804   0.730   4.632
49649SOL    HW150844   7.807   0.634   4.626
49649SOL    HW250845   7.827   0.760   4.545
49650SOL     OW50846   2.196   8.672   0.757
49650SOL    HW150847   2.252   8.604   0.793
49650SOL    HW250848   2.224   8.753   0.801
49651SOL     OW50849   4.835  13.544  14.148
49651SOL    HW150850   4.820  13.493  14.069
49651SOL    HW250851   4.750  13.582  14.169
49652SOL     OW50852  12.558   4.708  13.453
49652SOL    HW150853  12.650   4.680  13.454
49652SOL    HW250854  12.514   4.642  13.399
49653SOL     OW50855   3.760  10.845   8.695
49653SOL    HW150856   3.787  10.928   8.657
49653SOL    HW250857   3.792  10.779   8.634
49654SOL     OW50858   5.922   5.721   0.954
49654SOL    HW150859   5.896   5.633   0.925
49654SOL    HW250860   6.018   5.720   0.950
49655SOL     OW50861  13.511   1.219  11.916
49655SOL    HW150862  13.459   1.225  11.836
49655SOL    HW250863  13.550   1.131  11.913
49656SOL     OW50864   6.191   2.916   9.492
49656SOL    HW150865   6.248   2.840   9.499
49656SOL    HW250866   6.117   2.886   9.438
49657SOL     OW50867   5.998   5.004  14.058
49657SOL    HW150868   5.976   5.087  14.098
49657SOL    HW250869   6.094   5.000  14.063
49658SOL     OW50870  12.315   9.860  10.376
49658SOL    HW150871  12.329   9.768  10.397
49658SOL    HW250872  12.278   9.897  10.455
49659SOL     OW50873   2.312   9.823   4.080
49659SOL    HW150874   2.394   9.849   4.038
49659SOL    HW250875   2.296   9.734   4.047
49660SOL     OW50876   5.171   7.799   5.186
49660SOL    HW150877   5.209   7.823   5.102
49660SOL    HW250878   5.240   7.816   5.250
49661SOL     OW50879   3.222  11.095   4.810
49661SOL    HW150880   3.297  11.037   4.805
49661SOL    HW250881   3.248  11.163   4.871
49662SOL     OW50882   6.646  14.297   6.687
49662SOL    HW150883   6.691  14.363   6.634
49662SOL    HW250884   6.585  14.347   6.741
49663SOL     OW50885   5.351   5.805  12.014
49663SOL    HW150886   5.283   5.748  12.050
49663SOL    HW250887   5.315   5.893  12.024
49664SOL     OW50888   0.270  10.859   4.026
49664SOL    HW150889   0.188  10.908   4.016
49664SOL    HW250890   0.336  10.927   4.040
49665SOL     OW50891  12.100  13.413  11.104
49665SOL    HW150892  12.109  13.326  11.065
49665SOL    HW250893  12.185  13.430  11.145
49666SOL     OW50894   9.900   2.822   3.606
49666SOL    HW150895   9.958   2.748   3.585
49666SOL    HW250896   9.941   2.897   3.563
49667SOL     OW50897  10.754  11.675   2.666
49667SOL    HW150898  10.768  11.767   2.688
49667SOL    HW250899  10.830  11.629   2.703
49668SOL     OW50900   8.969   7.956   5.835
49668SOL    HW150901   8.917   7.979   5.758
49668SOL    HW250902   9.033   8.026   5.843
49669SOL     OW50903   9.163   1.691   2.567
49669SOL    HW150904   9.095   1.715   2.630
49669SOL    HW250905   9.117   1.679   2.485
49670SOL     OW50906  10.416   2.259  14.558
49670SOL    HW150907  10.365   2.338  14.541
49670SOL    HW250908  10.447   2.231  14.472
49671SOL     OW50909   3.284   7.597   3.933
49671SOL    HW150910   3.349   7.563   3.871
49671SOL    HW250911   3.273   7.526   3.996
49672SOL     OW50912   1.260   8.025  10.433
49672SOL    HW150913   1.168   8.015  10.410
49672SOL    HW250914   1.307   7.997  10.354
49673SOL     OW50915   6.310   3.568  10.185
49673SOL    HW150916   6.327   3.581  10.278
49673SOL    HW250917   6.223   3.605  10.171
49674SOL     OW50918  13.069   4.119   6.293
49674SOL    HW150919  13.117   4.129   6.211
49674SOL    HW250920  12.977   4.114   6.268
49675SOL     OW50921  13.520   7.638  12.118
49675SOL    HW150922  13.496   7.566  12.059
49675SOL    HW250923  13.528   7.714  12.061
49676SOL     OW50924  11.995   5.904   2.934
49676SOL    HW150925  12.068   5.847   2.958
49676SOL    HW250926  11.950   5.857   2.864
49677SOL     OW50927   8.195  12.179  12.044
49677SOL    HW150928   8.281  12.171  12.003
49677SOL    HW250929   8.214  12.179  12.138
49678SOL     OW50930   6.816   1.845   7.395
49678SOL    HW150931   6.905   1.812   7.409
49678SOL    HW250932   6.822   1.939   7.411
49679SOL     OW50933   5.166   2.525  13.455
49679SOL    HW150934   5.132   2.602  13.410
49679SOL    HW250935   5.244   2.558  13.501
49680SOL     OW50936  14.563  10.044  14.604
49680SOL    HW150937  14.654  10.074  14.606
49680SOL    HW250938  14.537  10.054  14.512
49681SOL     OW50939   4.454  12.366   7.835
49681SOL    HW150940   4.481  12.279   7.863
49681SOL    HW250941   4.476  12.424   7.908
49682SOL     OW50942   1.894   4.105   2.211
49682SOL    HW150943   1.990   4.110   2.211
49682SOL    HW250944   1.868   4.147   2.293
49683SOL     OW50945   5.236   0.661   8.708
49683SOL    HW150946   5.155   0.667   8.657
49683SOL    HW250947   5.303   0.636   8.644
49684SOL     OW50948  12.852  10.147   2.182
49684SOL    HW150949  12.934  10.128   2.228
49684SOL    HW250950  12.794  10.075   2.205
49685SOL     OW50951   8.817  10.794   2.906
49685SOL    HW150952   8.837  10.888   2.914
49685SOL    HW250953   8.778  10.771   2.990
49686SOL     OW50954  13.361   6.955   8.162
49686SOL    HW150955  13.293   6.904   8.117
49686SOL    HW250956  13.328   6.966   8.251
49687SOL     OW50957   6.800   8.117  13.597
49687SOL    HW150958   6.854   8.196  13.591
49687SOL    HW250959   6.748   8.129  13.677
49688SOL     OW50960   7.657  12.288   0.873
49688SOL    HW150961   7.721  12.236   0.825
49688SOL    HW250962   7.674  12.379   0.848
49689SOL     OW50963   4.590   1.013  11.520
49689SOL    HW150964   4.623   0.927  11.491
49689SOL    HW250965   4.497   0.999  11.535
49690SOL     OW50966  12.857  10.178   6.620
49690SOL    HW150967  12.832  10.151   6.532
49690SOL    HW250968  12.826  10.268   6.627
49691SOL     OW50969   4.110   1.197   7.540
49691SOL    HW150970   4.017   1.216   7.529
49691SOL    HW250971   4.153   1.282   7.533
49692SOL     OW50972  13.251   2.456  13.796
49692SOL    HW150973  13.221   2.536  13.839
49692SOL    HW250974  13.171   2.406  13.781
49693SOL     OW50975   8.827   7.035  12.490
49693SOL    HW150976   8.913   7.049  12.453
49693SOL    HW250977   8.842   6.978  12.566
49694SOL     OW50978  10.188  14.146  13.475
49694SOL    HW150979  10.253  14.212  13.449
49694SOL    HW250980  10.104  14.186  13.452
49695SOL     OW50981   3.797  10.110  13.297
49695SOL    HW150982   3.721  10.166  13.285
49695SOL    HW250983   3.870  10.171  13.310
49696SOL     OW50984   6.504  11.642   8.489
49696SOL    HW150985   6.566  11.694   8.540
49696SOL    HW250986   6.541  11.553   8.491
49697SOL     OW50987   5.654  11.058   4.027
49697SOL    HW150988   5.659  10.962   4.028
49697SOL    HW250989   5.561  11.077   4.011
49698SOL     OW50990  12.282   0.407   3.841
49698SOL    HW150991  12.269   0.417   3.935
49698SOL    HW250992  12.193   0.400   3.805
49699SOL     OW50993  11.086   8.280  14.039
49699SOL    HW150994  11.165   8.226  14.029
49699SOL    HW250995  11.114   8.354  14.093
49700SOL     OW50996   2.046   4.131  13.878
49700SOL    HW150997   2.038   4.171  13.964
49700SOL    HW250998   2.088   4.046  13.895
49701SOL     OW50999  14.384   6.752   0.169
49701SOL    HW151000  14.406   6.678   0.227
49701SOL    HW251001  14.450   6.818   0.188
49702SOL     OW51002  14.177  11.079  12.088
49702SOL    HW151003  14.177  11.054  12.180
49702SOL    HW251004  14.100  11.136  12.079
49703SOL     OW51005   5.401   7.874   2.057
49703SOL    HW151006   5.456   7.946   2.025
49703SOL    HW251007   5.456   7.796   2.048
49704SOL     OW51008  13.046  11.090   8.784
49704SOL    HW151009  13.120  11.076   8.726
49704SOL    HW251010  13.028  11.003   8.821
49705SOL     OW51011   1.341  11.521   6.103
49705SOL    HW151012   1.280  11.491   6.171
49705SOL    HW251013   1.405  11.574   6.150
49706SOL     OW51014   2.932   1.412   7.663
49706SOL    HW151015   2.856   1.389   7.716
49706SOL    HW251016   2.948   1.334   7.610
49707SOL     OW51017   2.349  12.700  14.517
49707SOL    HW151018   2.381  12.614  14.544
49707SOL    HW251019   2.301  12.733  14.594
49708SOL     OW51020   3.986  13.804   9.503
49708SOL    HW151021   3.934  13.751   9.563
49708SOL    HW251022   4.047  13.743   9.462
49709SOL     OW51023   9.361   0.391   0.666
49709SOL    HW151024   9.308   0.407   0.588
49709SOL    HW251025   9.302   0.343   0.725
49710SOL     OW51026   5.620  11.838   9.465
49710SOL    HW151027   5.639  11.913   9.521
49710SOL    HW251028   5.613  11.764   9.525
49711SOL     OW51029   5.619   0.175   4.828
49711SOL    HW151030   5.711   0.155   4.848
49711SOL    HW251031   5.602   0.129   4.746
49712SOL     OW51032   0.576   6.139  12.721
49712SOL    HW151033   0.602   6.046  12.716
49712SOL    HW251034   0.654   6.183  12.753
49713SOL     OW51035  12.699   0.410  11.851
49713SOL    HW151036  12.734   0.479  11.909
49713SOL    HW251037  12.673   0.340  11.910
49714SOL     OW51038   8.392   9.702   1.984
49714SOL    HW151039   8.484   9.677   1.989
49714SOL    HW251040   8.344   9.622   2.007
49715SOL     OW51041   5.415   7.063   5.811
49715SOL    HW151042   5.479   7.125   5.846
49715SOL    HW251043   5.467   7.003   5.757
49716SOL     OW51044  12.970   8.338   0.096
49716SOL    HW151045  12.917   8.319   0.173
49716SOL    HW251046  13.010   8.423   0.115
49717SOL     OW51047   5.205   0.411  11.299
49717SOL    HW151048   5.230   0.368  11.217
49717SOL    HW251049   5.253   0.364  11.366
49718SOL     OW51050  11.491   6.990  13.617
49718SOL    HW151051  11.560   7.047  13.582
49718SOL    HW251052  11.509   6.985  13.710
49719SOL     OW51053  11.852  14.206  13.937
49719SOL    HW151054  11.899  14.272  13.989
49719SOL    HW251055  11.863  14.236  13.847
49720SOL     OW51056   8.748   4.966   9.006
49720SOL    HW151057   8.800   4.982   8.927
49720SOL    HW251058   8.709   4.880   8.991
49721SOL     OW51059  14.579  12.237   9.724
49721SOL    HW151060  14.617  12.265   9.641
49721SOL    HW251061  14.643  12.265   9.790
49722SOL     OW51062   2.246   4.601   4.124
49722SOL    HW151063   2.213   4.540   4.190
49722SOL    HW251064   2.263   4.682   4.172
49723SOL     OW51065   2.779  14.546   9.495
49723SOL    HW151066   2.814  14.522   9.409
49723SOL    HW251067   2.850  14.529   9.556
49724SOL     OW51068   5.543   4.754  11.017
49724SOL    HW151069   5.540   4.815  11.090
49724SOL    HW251070   5.610   4.690  11.043
49725SOL     OW51071  14.045   1.369  13.407
49725SOL    HW151072  14.112   1.417  13.454
49725SOL    HW251073  14.090   1.293  13.371
49726SOL     OW51074   6.808   1.147   1.505
49726SOL    HW151075   6.799   1.237   1.476
49726SOL    HW251076   6.863   1.105   1.439
49727SOL     OW51077   0.954  10.468   7.421
49727SOL    HW151078   1.014  10.427   7.359
49727SOL    HW251079   1.011  10.512   7.484
49728SOL     OW51080  12.647  11.431   2.667
49728SOL    HW151081  12.629  11.358   2.608
49728SOL    HW251082  12.657  11.507   2.611
49729SOL     OW51083   8.742  12.160   1.907
49729SOL    HW151084   8.704  12.077   1.877
49729SOL    HW251085   8.750  12.149   2.002
49730SOL     OW51086  14.680  11.498  13.245
49730SOL    HW151087  14.588  11.479  13.228
49730SOL    HW251088  14.727  11.439  13.187
49731SOL     OW51089   3.649   0.338   7.440
49731SOL    HW151090   3.573   0.308   7.490
49731SOL    HW251091   3.628   0.429   7.418
49732SOL     OW51092   8.040   8.613  14.163
49732SOL    HW151093   8.017   8.521  14.176
49732SOL    HW251094   7.955   8.657  14.154
49733SOL     OW51095   2.235   3.462   6.914
49733SOL    HW151096   2.160   3.502   6.870
49733SOL    HW251097   2.305   3.526   6.905
49734SOL     OW51098  14.283  14.812   4.426
49734SOL    HW151099  14.341  14.843   4.356
49734SOL    HW251100  14.228  14.747   4.384
49735SOL     OW51101   8.194  14.810   4.365
49735SOL    HW151102   8.191  14.865   4.443
49735SOL    HW251103   8.263  14.746   4.383
49736SOL     OW51104   8.254   4.182   0.829
49736SOL    HW151105   8.280   4.198   0.920
49736SOL    HW251106   8.203   4.260   0.806
49737SOL     OW51107   8.442   1.108  11.103
49737SOL    HW151108   8.380   1.116  11.175
49737SOL    HW251109   8.459   1.198  11.075
49738SOL     OW51110   5.263   8.878   1.605
49738SOL    HW151111   5.311   8.953   1.571
49738SOL    HW251112   5.331   8.824   1.647
49739SOL     OW51113   5.520   0.433  11.152
49739SOL    HW151114   5.455   0.486  11.199
49739SOL    HW251115   5.549   0.368  11.216
49740SOL     OW51116   2.561   6.003   4.947
49740SOL    HW151117   2.500   6.073   4.923
49740SOL    HW251118   2.578   5.957   4.865
49741SOL     OW51119  10.664   9.883   1.827
49741SOL    HW151120  10.624   9.840   1.752
49741SOL    HW251121  10.713   9.814   1.872
49742SOL     OW51122   8.140  13.322  10.158
49742SOL    HW151123   8.216  13.320  10.100
49742SOL    HW251124   8.133  13.413  10.187
49743SOL     OW51125   7.614  13.809  11.767
49743SOL    HW151126   7.552  13.763  11.824
49743SOL    HW251127   7.663  13.739  11.723
49744SOL     OW51128  14.084   6.517  14.816
49744SOL    HW151129  14.036   6.473  14.745
49744SOL    HW251130  14.175   6.495  14.799
49745SOL     OW51131  11.358   4.225  13.781
49745SOL    HW151132  11.303   4.302  13.797
49745SOL    HW251133  11.334   4.164  13.851
49746SOL     OW51134  10.412   7.855  14.428
49746SOL    HW151135  10.471   7.787  14.396
49746SOL    HW251136  10.326   7.813  14.430
49747SOL     OW51137   4.463   4.913   4.505
49747SOL    HW151138   4.503   4.830   4.484
49747SOL    HW251139   4.513   4.946   4.580
49748SOL     OW51140   3.510   9.455   1.204
49748SOL    HW151141   3.500   9.539   1.249
49748SOL    HW251142   3.423   9.416   1.203
49749SOL     OW51143   8.235  11.788   3.718
49749SOL    HW151144   8.228  11.695   3.741
49749SOL    HW251145   8.323  11.798   3.683
49750SOL     OW51146   5.976  12.177   7.411
49750SOL    HW151147   5.925  12.120   7.352
49750SOL    HW251148   6.033  12.117   7.459
49751SOL     OW51149  10.763   7.024   8.508
49751SOL    HW151150  10.794   7.025   8.418
49751SOL    HW251151  10.715   6.941   8.516
49752SOL     OW51152   8.572   6.918   4.689
49752SOL    HW151153   8.555   7.009   4.662
49752SOL    HW251154   8.501   6.897   4.749
49753SOL     OW51155   5.308  11.372  13.289
49753SOL    HW151156   5.249  11.387  13.215
49753SOL    HW251157   5.361  11.451  13.295
49754SOL     OW51158  11.009   7.323   9.573
49754SOL    HW151159  10.954   7.377   9.516
49754SOL    HW251160  11.067   7.276   9.513
49755SOL     OW51161   2.058  12.887   7.275
49755SOL    HW151162   2.044  12.792   7.266
49755SOL    HW251163   2.153  12.896   7.285
49756SOL     OW51164   6.975   5.252   9.108
49756SOL    HW151165   7.049   5.290   9.062
49756SOL    HW251166   6.930   5.200   9.040
49757SOL     OW51167  10.754   4.515   1.677
49757SOL    HW151168  10.691   4.585   1.692
49757SOL    HW251169  10.756   4.467   1.760
49758SOL     OW51170   9.495   3.088   1.583
49758SOL    HW151171   9.441   3.070   1.659
49758SOL    HW251172   9.461   3.170   1.548
49759SOL     OW51173  13.643   9.912   4.513
49759SOL    HW151174  13.573   9.944   4.456
49759SOL    HW251175  13.616   9.936   4.601
49760SOL     OW51176  10.522   2.162  10.524
49760SOL    HW151177  10.535   2.132  10.434
49760SOL    HW251178  10.438   2.209  10.522
49761SOL     OW51179   4.231   8.793  11.754
49761SOL    HW151180   4.186   8.872  11.726
49761SOL    HW251181   4.276   8.818  11.835
49762SOL     OW51182   2.868   4.687   0.460
49762SOL    HW151183   2.917   4.730   0.530
49762SOL    HW251184   2.908   4.600   0.453
49763SOL     OW51185   9.208  14.471   4.525
49763SOL    HW151186   9.153  14.533   4.477
49763SOL    HW251187   9.197  14.388   4.478
49764SOL     OW51188   3.340  13.218   1.049
49764SOL    HW151189   3.279  13.287   1.077
49764SOL    HW251190   3.411  13.222   1.113
49765SOL     OW51191   3.679   8.948  11.347
49765SOL    HW151192   3.687   8.983  11.435
49765SOL    HW251193   3.598   8.985  11.313
49766SOL     OW51194  11.747  12.852  12.333
49766SOL    HW151195  11.784  12.940  12.344
49766SOL    HW251196  11.803  12.796  12.387
49767SOL     OW51197   3.661   7.006   1.743
49767SOL    HW151198   3.656   7.101   1.738
49767SOL    HW251199   3.739   6.989   1.796
49768SOL     OW51200   3.690   9.595  13.773
49768SOL    HW151201   3.692   9.685  13.740
49768SOL    HW251202   3.767   9.588  13.829
49769SOL     OW51203   4.338   7.722   6.899
49769SOL    HW151204   4.409   7.768   6.944
49769SOL    HW251205   4.366   7.720   6.807
49770SOL     OW51206  13.933   8.985   2.568
49770SOL    HW151207  13.850   8.938   2.568
49770SOL    HW251208  13.930   9.039   2.489
49771SOL     OW51209   2.053   2.965  10.088
49771SOL    HW151210   2.129   2.907  10.084
49771SOL    HW251211   2.013   2.946  10.173
49772SOL     OW51212   3.391   3.544   6.645
49772SOL    HW151213   3.444   3.555   6.723
49772SOL    HW251214   3.436   3.594   6.577
49773SOL     OW51215  13.763  13.813   8.574
49773SOL    HW151216  13.680  13.824   8.619
49773SOL    HW251217  13.829  13.817   8.643
49774SOL     OW51218  10.169  11.080   7.531
49774SOL    HW151219  10.076  11.058   7.538
49774SOL    HW251220  10.193  11.110   7.619
49775SOL     OW51221  11.590   0.627   8.729
49775SOL    HW151222  11.516   0.572   8.756
49775SOL    HW251223  11.666   0.584   8.767
49776SOL     OW51224  14.499   9.020   5.850
49776SOL    HW151225  14.477   9.030   5.758
49776SOL    HW251226  14.581   9.068   5.861
49777SOL     OW51227  12.774  10.500   3.447
49777SOL    HW151228  12.742  10.440   3.515
49777SOL    HW251229  12.774  10.586   3.489
49778SOL     OW51230  10.443   9.778   6.776
49778SOL    HW151231  10.378   9.709   6.762
49778SOL    HW251232  10.411   9.827   6.852
49779SOL     OW51233   4.398   9.276   8.913
49779SOL    HW151234   4.311   9.284   8.951
49779SOL    HW251235   4.458   9.283   8.987
49780SOL     OW51236   9.200   6.495   3.090
49780SOL    HW151237   9.154   6.419   3.124
49780SOL    HW251238   9.276   6.459   3.045
49781SOL     OW51239  12.317   5.378   4.811
49781SOL    HW151240  12.230   5.350   4.839
49781SOL    HW251241  12.301   5.451   4.751
49782SOL     OW51242   7.312   1.598   2.745
49782SOL    HW151243   7.296   1.568   2.835
49782SOL    HW251244   7.230   1.641   2.720
49783SOL     OW51245   2.318  14.421   6.163
49783SOL    HW151246   2.327  14.440   6.257
49783SOL    HW251247   2.322  14.326   6.157
49784SOL     OW51248  14.127   0.453   0.976
49784SOL    HW151249  14.172   0.533   1.002
49784SOL    HW251250  14.191   0.406   0.923
49785SOL     OW51251  13.851  11.531   5.637
49785SOL    HW151252  13.887  11.470   5.701
49785SOL    HW251253  13.794  11.477   5.582
49786SOL     OW51254  10.447   2.354   0.379
49786SOL    HW151255  10.472   2.430   0.327
49786SOL    HW251256  10.500   2.282   0.343
49787SOL     OW51257   1.790  12.356   1.358
49787SOL    HW151258   1.800  12.439   1.404
49787SOL    HW251259   1.797  12.290   1.427
49788SOL     OW51260   6.214  11.554  12.188
49788SOL    HW151261   6.275  11.529  12.119
49788SOL    HW251262   6.245  11.640  12.217
49789SOL     OW51263   6.823  10.698  13.124
49789SOL    HW151264   6.825  10.687  13.029
49789SOL    HW251265   6.915  10.692  13.151
49790SOL     OW51266  12.501   7.492   8.189
49790SOL    HW151267  12.437   7.466   8.122
49790SOL    HW251268  12.482   7.435   8.264
49791SOL     OW51269   1.849   9.545  13.202
49791SOL    HW151270   1.889   9.465  13.166
49791SOL    HW251271   1.771   9.559  13.148
49792SOL     OW51272   0.416  11.284   2.146
49792SOL    HW151273   0.366  11.249   2.073
49792SOL    HW251274   0.407  11.379   2.139
49793SOL     OW51275   6.120   7.845   3.154
49793SOL    HW151276   6.089   7.762   3.190
49793SOL    HW251277   6.197   7.822   3.103
49794SOL     OW51278   2.049   2.412   7.572
49794SOL    HW151279   1.986   2.403   7.501
49794SOL    HW251280   2.000   2.388   7.651
49795SOL     OW51281   0.796  13.472   1.057
49795SOL    HW151282   0.828  13.561   1.043
49795SOL    HW251283   0.834  13.421   0.985
49796SOL     OW51284  14.439   0.025  12.675
49796SOL    HW151285  14.461   0.104  12.625
49796SOL    HW251286  14.354   0.044  12.713
49797SOL     OW51287   8.986   3.771  11.581
49797SOL    HW151288   8.963   3.827  11.507
49797SOL    HW251289   8.962   3.822  11.658
49798SOL     OW51290   7.816  13.307  12.302
49798SOL    HW151291   7.886  13.312  12.237
49798SOL    HW251292   7.744  13.264  12.256
49799SOL     OW51293   6.129  13.160  10.952
49799SOL    HW151294   6.046  13.124  10.919
49799SOL    HW251295   6.136  13.246  10.911
49800SOL     OW51296   5.034   6.877   1.443
49800SOL    HW151297   5.061   6.817   1.513
49800SOL    HW251298   4.996   6.952   1.489
49801SOL     OW51299   0.349   7.564  13.766
49801SOL    HW151300   0.433   7.549  13.810
49801SOL    HW251301   0.373   7.607  13.684
49802SOL     OW51302  10.317  10.963   6.270
49802SOL    HW151303  10.328  10.875   6.305
49802SOL    HW251304  10.224  10.968   6.247
49803SOL     OW51305   1.370   6.949   0.795
49803SOL    HW151306   1.375   6.953   0.890
49803SOL    HW251307   1.456   6.919   0.767
49804SOL     OW51308   0.918  12.210   8.976
49804SOL    HW151309   0.827  12.212   8.946
49804SOL    HW251310   0.914  12.232   9.069
49805SOL     OW51311   7.777  11.726   6.308
49805SOL    HW151312   7.855  11.774   6.336
49805SOL    HW251313   7.737  11.696   6.389
49806SOL     OW51314  11.138   9.088   3.044
49806SOL    HW151315  11.120   9.112   3.135
49806SOL    HW251316  11.165   8.997   3.049
49807SOL     OW51317  12.379   2.853   8.277
49807SOL    HW151318  12.288   2.841   8.249
49807SOL    HW251319  12.429   2.794   8.220
49808SOL     OW51320  11.269  13.679   7.734
49808SOL    HW151321  11.278  13.708   7.825
49808SOL    HW251322  11.282  13.584   7.738
49809SOL     OW51323   8.304  11.802   5.194
49809SOL    HW151324   8.324  11.886   5.235
49809SOL    HW251325   8.361  11.739   5.238
49810SOL     OW51326   8.548  13.048  10.666
49810SOL    HW151327   8.552  12.989  10.591
49810SOL    HW251328   8.484  13.008  10.725
49811SOL     OW51329   9.086   5.922   5.417
49811SOL    HW151330   9.014   5.971   5.378
49811SOL    HW251331   9.136   5.988   5.464
49812SOL     OW51332   6.509   5.977   0.843
49812SOL    HW151333   6.459   5.948   0.767
49812SOL    HW251334   6.445   6.024   0.897
49813SOL     OW51335   2.064  14.460  14.761
49813SOL    HW151336   2.050  14.434  14.670
49813SOL    HW251337   2.022  14.392  14.813
49814SOL     OW51338   8.894   3.279   1.301
49814SOL    HW151339   8.983   3.268   1.268
49814SOL    HW251340   8.905   3.314   1.390
49815SOL     OW51341   1.266   4.150   3.294
49815SOL    HW151342   1.198   4.138   3.227
49815SOL    HW251343   1.234   4.222   3.349
49816SOL     OW51344   9.668  11.064   7.175
49816SOL    HW151345   9.580  11.101   7.179
49816SOL    HW251346   9.657  10.973   7.203
49817SOL     OW51347  12.590   6.316   1.291
49817SOL    HW151348  12.524   6.278   1.232
49817SOL    HW251349  12.603   6.405   1.258
49818SOL     OW51350   8.017   5.574  14.358
49818SOL    HW151351   7.959   5.575  14.434
49818SOL    HW251352   8.011   5.484  14.325
49819SOL     OW51353   3.557   6.491  12.503
49819SOL    HW151354   3.525   6.462  12.589
49819SOL    HW251355   3.623   6.426  12.479
49820SOL     OW51356   9.049   2.911   8.308
49820SOL    HW151357   9.037   2.855   8.384
49820SOL    HW251358   8.998   2.868   8.239
49821SOL     OW51359  14.701   6.970   9.915
49821SOL    HW151360  14.664   6.972  10.003
49821SOL    HW251361  14.697   7.061   9.885
49822SOL     OW51362   1.337   9.503   6.566
49822SOL    HW151363   1.364   9.486   6.476
49822SOL    HW251364   1.288   9.425   6.592
49823SOL     OW51365   7.023  13.085   4.609
49823SOL    HW151366   7.093  13.104   4.547
49823SOL    HW251367   6.944  13.120   4.568
49824SOL     OW51368  12.982  13.690   6.691
49824SOL    HW151369  13.033  13.768   6.669
49824SOL    HW251370  12.948  13.708   6.779
49825SOL     OW51371  10.204  12.671  13.946
49825SOL    HW151372  10.166  12.617  14.015
49825SOL    HW251373  10.264  12.612  13.901
49826SOL     OW51374   7.174  10.249   4.880
49826SOL    HW151375   7.138  10.163   4.901
49826SOL    HW251376   7.101  10.296   4.840
49827SOL     OW51377   3.474   5.026   9.342
49827SOL    HW151378   3.547   5.082   9.366
49827SOL    HW251379   3.514   4.947   9.306
49828SOL     OW51380  13.771   6.258   2.987
49828SOL    HW151381  13.786   6.324   3.055
49828SOL    HW251382  13.766   6.175   3.034
49829SOL     OW51383   6.994   8.583  14.823
49829SOL    HW151384   7.089   8.581  14.812
49829SOL    HW251385   6.962   8.622  14.742
49830SOL     OW51386  13.265   5.891   7.566
49830SOL    HW151387  13.181   5.846   7.558
49830SOL    HW251388  13.303   5.855   7.646
49831SOL     OW51389   8.188  10.501   9.214
49831SOL    HW151390   8.141  10.544   9.142
49831SOL    HW251391   8.153  10.542   9.293
49832SOL     OW51392   0.427  13.111   9.038
49832SOL    HW151393   0.410  13.031   8.989
49832SOL    HW251394   0.399  13.182   8.979
49833SOL     OW51395  14.188   2.338   2.066
49833SOL    HW151396  14.100   2.316   2.097
49833SOL    HW251397  14.176   2.416   2.013
49834SOL     OW51398  13.487   1.098   7.759
49834SOL    HW151399  13.557   1.033   7.761
49834SOL    HW251400  13.461   1.109   7.850
49835SOL     OW51401  11.389   3.440   0.520
49835SOL    HW151402  11.454   3.478   0.460
49835SOL    HW251403  11.340   3.516   0.552
49836SOL     OW51404   6.374   4.377  13.813
49836SOL    HW151405   6.323   4.297  13.830
49836SOL    HW251406   6.391   4.374  13.719
49837SOL     OW51407   7.638   9.853   6.962
49837SOL    HW151408   7.712   9.884   6.910
49837SOL    HW251409   7.562   9.892   6.919
49838SOL     OW51410  10.897   0.759   7.014
49838SOL    HW151411  10.948   0.723   7.086
49838SOL    HW251412  10.937   0.722   6.935
49839SOL     OW51413   0.827   4.949   4.151
49839SOL    HW151414   0.834   5.039   4.181
49839SOL    HW251415   0.748   4.916   4.193
49840SOL     OW51416   3.685   6.172   0.447
49840SOL    HW151417   3.695   6.145   0.538
49840SOL    HW251418   3.611   6.120   0.414
49841SOL     OW51419   0.227   0.382  13.980
49841SOL    HW151420   0.268   0.468  13.968
49841SOL    HW251421   0.166   0.395  14.052
49842SOL     OW51422   4.663   7.097  11.998
49842SOL    HW151423   4.728   7.035  11.967
49842SOL    HW251424   4.614   7.050  12.066
49843SOL     OW51425  10.215  10.620   5.149
49843SOL    HW151426  10.214  10.606   5.055
49843SOL    HW251427  10.242  10.536   5.186
49844SOL     OW51428  14.114  14.594   0.483
49844SOL    HW151429  14.024  14.595   0.517
49844SOL    HW251430  14.138  14.501   0.485
49845SOL     OW51431   0.925  12.476   1.524
49845SOL    HW151432   0.987  12.530   1.475
49845SOL    HW251433   0.939  12.388   1.491
49846SOL     OW51434   1.278   3.428   6.284
49846SOL    HW151435   1.248   3.346   6.323
49846SOL    HW251436   1.240   3.428   6.196
49847SOL     OW51437   5.908   1.319  14.091
49847SOL    HW151438   5.830   1.267  14.106
49847SOL    HW251439   5.951   1.324  14.177
49848SOL     OW51440  12.356   7.180   6.543
49848SOL    HW151441  12.317   7.260   6.508
49848SOL    HW251442  12.282   7.120   6.552
49849SOL     OW51443   8.849   1.006   5.365
49849SOL    HW151444   8.784   0.936   5.365
49849SOL    HW251445   8.929   0.965   5.333
49850SOL     OW51446   5.936   0.043  14.779
49850SOL    HW151447   5.941  14.821  14.758
49850SOL    HW251448   5.923   0.045   0.002
49851SOL     OW51449   7.272  11.379  10.281
49851SOL    HW151450   7.235  11.338  10.359
49851SOL    HW251451   7.308  11.307  10.230
49852SOL     OW51452  10.680  14.020  13.470
49852SOL    HW151453  10.647  13.975  13.547
49852SOL    HW251454  10.617  14.090  13.454
49853SOL     OW51455   6.896   2.925  11.080
49853SOL    HW151456   6.883   2.985  11.154
49853SOL    HW251457   6.924   2.843  11.120
49854SOL     OW51458  11.229   2.410   0.724
49854SOL    HW151459  11.177   2.473   0.775
49854SOL    HW251460  11.225   2.442   0.634
49855SOL     OW51461  10.088  13.190   5.002
49855SOL    HW151462  10.176  13.161   4.981
49855SOL    HW251463  10.098  13.244   5.080
49856SOL     OW51464   2.216   2.539   1.319
49856SOL    HW151465   2.258   2.491   1.390
49856SOL    HW251466   2.190   2.622   1.357
49857SOL     OW51467  11.057  10.052  11.510
49857SOL    HW151468  11.000  10.073  11.584
49857SOL    HW251469  11.133  10.008  11.550
49858SOL     OW51470   0.995   0.969   6.939
49858SOL    HW151471   0.984   0.993   7.031
49858SOL    HW251472   0.915   1.000   6.896
49859SOL     OW51473  12.244   0.811   5.300
49859SOL    HW151474  12.218   0.765   5.220
49859SOL    HW251475  12.262   0.900   5.272
49860SOL     OW51476  11.488  10.443   7.668
49860SOL    HW151477  11.561  10.400   7.624
49860SOL    HW251478  11.410  10.403   7.629
49861SOL     OW51479   7.460   4.305   7.116
49861SOL    HW151480   7.545   4.272   7.084
49861SOL    HW251481   7.396   4.245   7.079
49862SOL     OW51482  12.731   6.806   8.169
49862SOL    HW151483  12.660   6.776   8.112
49862SOL    HW251484  12.766   6.726   8.208
49863SOL     OW51485   7.010  12.435   4.371
49863SOL    HW151486   7.030  12.410   4.281
49863SOL    HW251487   6.956  12.513   4.363
49864SOL     OW51488  14.104   9.131   0.624
49864SOL    HW151489  14.104   9.093   0.536
49864SOL    HW251490  14.031   9.193   0.625
49865SOL     OW51491  10.335   0.534   2.043
49865SOL    HW151492  10.253   0.578   2.065
49865SOL    HW251493  10.402   0.586   2.086
49866SOL     OW51494  14.526  13.921   5.811
49866SOL    HW151495  14.475  13.842   5.793
49866SOL    HW251496  14.610  13.906   5.767
49867SOL     OW51497  14.110   3.905   0.526
49867SOL    HW151498  14.148   3.991   0.508
49867SOL    HW251499  14.106   3.900   0.622
49868SOL     OW51500  11.299   0.252   5.353
49868SOL    HW151501  11.260   0.166   5.369
49868SOL    HW251502  11.389   0.233   5.325
49869SOL     OW51503  11.764   2.862   1.365
49869SOL    HW151504  11.856   2.887   1.367
49869SOL    HW251505  11.742   2.855   1.272
49870SOL     OW51506   0.643   2.976  12.329
49870SOL    HW151507   0.702   3.048  12.308
49870SOL    HW251508   0.555   3.012  12.312
49871SOL     OW51509   9.301   7.892   4.120
49871SOL    HW151510   9.317   7.868   4.029
49871SOL    HW251511   9.233   7.833   4.150
49872SOL     OW51512  13.031   6.358   0.086
49872SOL    HW151513  12.951   6.349   0.034
49872SOL    HW251514  13.102   6.345   0.024
49873SOL     OW51515   5.443   0.206  10.558
49873SOL    HW151516   5.385   0.176  10.488
49873SOL    HW251517   5.526   0.161  10.541
49874SOL     OW51518   4.666   6.950   0.003
49874SOL    HW151519   4.586   6.933   0.053
49874SOL    HW251520   4.642   6.932  14.784
49875SOL     OW51521   9.326  12.738   9.979
49875SOL    HW151522   9.243  12.707   9.944
49875SOL    HW251523   9.388  12.668   9.958
49876SOL     OW51524   5.206  12.203   5.386
49876SOL    HW151525   5.204  12.285   5.337
49876SOL    HW251526   5.298  12.178   5.388
49877SOL     OW51527  14.080   6.128  14.658
49877SOL    HW151528  14.005   6.069  14.648
49877SOL    HW251529  14.046   6.214  14.634
49878SOL     OW51530   6.087  13.437  14.379
49878SOL    HW151531   6.104  13.509  14.319
49878SOL    HW251532   6.115  13.359  14.331
49879SOL     OW51533   0.764   4.684   6.574
49879SOL    HW151534   0.774   4.624   6.500
49879SOL    HW251535   0.701   4.640   6.631
49880SOL     OW51536  13.866  14.356   1.995
49880SOL    HW151537  13.931  14.347   2.065
49880SOL    HW251538  13.893  14.433   1.946
49881SOL     OW51539  12.711  13.211   8.943
49881SOL    HW151540  12.626  13.226   8.986
49881SOL    HW251541  12.739  13.297   8.914
49882SOL     OW51542   3.107   7.258  11.400
49882SOL    HW151543   3.037   7.236  11.339
49882SOL    HW251544   3.067   7.321  11.460
49883SOL     OW51545   1.011   1.552   0.930
49883SOL    HW151546   0.988   1.642   0.906
49883SOL    HW251547   1.055   1.561   1.015
49884SOL     OW51548  11.191   5.723  12.579
49884SOL    HW151549  11.162   5.632  12.580
49884SOL    HW251550  11.139   5.766  12.647
49885SOL     OW51551   2.633   7.356   6.305
49885SOL    HW151552   2.720   7.347   6.342
49885SOL    HW251553   2.618   7.450   6.299
49886SOL     OW51554   1.495  10.035   0.482
49886SOL    HW151555   1.582   9.996   0.491
49886SOL    HW251556   1.441   9.965   0.445
49887SOL     OW51557   8.255   7.861   1.328
49887SOL    HW151558   8.167   7.822   1.330
49887SOL    HW251559   8.297   7.821   1.252
49888SOL     OW51560  14.425   2.499   0.910
49888SOL    HW151561  14.405   2.410   0.939
49888SOL    HW251562  14.362   2.517   0.841
49889SOL     OW51563   2.320  10.302   5.994
49889SOL    HW151564   2.300  10.209   5.990
49889SOL    HW251565   2.235  10.344   6.006
49890SOL     OW51566   5.546   9.016   9.796
49890SOL    HW151567   5.493   8.964   9.856
49890SOL    HW251568   5.485   9.082   9.763
49891SOL     OW51569   1.531   8.529  11.667
49891SOL    HW151570   1.550   8.544  11.760
49891SOL    HW251571   1.616   8.505  11.629
49892SOL     OW51572   5.669   8.791   9.542
49892SOL    HW151573   5.576   8.814   9.541
49892SOL    HW251574   5.714   8.875   9.529
49893SOL     OW51575   5.847   3.827   3.020
49893SOL    HW151576   5.919   3.871   3.065
49893SOL    HW251577   5.793   3.899   2.987
49894SOL     OW51578  13.151  11.564  10.762
49894SOL    HW151579  13.228  11.587  10.710
49894SOL    HW251580  13.094  11.641  10.755
49895SOL     OW51581  14.646   3.887   8.427
49895SOL    HW151582  14.710   3.840   8.373
49895SOL    HW251583  14.602   3.946   8.367
49896SOL     OW51584   6.241   6.408  14.414
49896SOL    HW151585   6.268   6.449  14.496
49896SOL    HW251586   6.157   6.366  14.434
49897SOL     OW51587   9.018   7.652  12.805
49897SOL    HW151588   8.947   7.708  12.836
49897SOL    HW251589   9.076   7.643  12.881
49898SOL     OW51590  11.801  10.475  10.215
49898SOL    HW151591  11.865  10.481  10.286
49898SOL    HW251592  11.785  10.381  10.205
49899SOL     OW51593  11.581  11.286   5.904
49899SOL    HW151594  11.502  11.328   5.869
49899SOL    HW251595  11.607  11.224   5.836
49900SOL     OW51596   6.607  14.150   4.932
49900SOL    HW151597   6.550  14.208   4.982
49900SOL    HW251598   6.578  14.061   4.954
49901SOL     OW51599   7.553   3.100   8.568
49901SOL    HW151600   7.602   3.120   8.488
49901SOL    HW251601   7.477   3.050   8.537
49902SOL     OW51602  14.393   0.715   6.707
49902SOL    HW151603  14.383   0.796   6.659
49902SOL    HW251604  14.349   0.649   6.654
49903SOL     OW51605  12.230   9.714   7.898
49903SOL    HW151606  12.226   9.679   7.809
49903SOL    HW251607  12.245   9.638   7.953
49904SOL     OW51608   6.099   8.283   8.587
49904SOL    HW151609   6.106   8.189   8.598
49904SOL    HW251610   6.139   8.301   8.502
49905SOL     OW51611  14.593  10.794  12.471
49905SOL    HW151612  14.646  10.724  12.510
49905SOL    HW251613  14.656  10.847  12.422
49906SOL     OW51614   5.928  13.298   3.121
49906SOL    HW151615   5.981  13.298   3.042
49906SOL    HW251616   5.844  13.261   3.095
49907SOL     OW51617   8.559   2.936   8.772
49907SOL    HW151618   8.572   2.927   8.866
49907SOL    HW251619   8.475   2.893   8.755
49908SOL     OW51620   1.717   5.863   5.115
49908SOL    HW151621   1.676   5.870   5.028
49908SOL    HW251622   1.739   5.770   5.123
49909SOL     OW51623   6.858   3.022   8.175
49909SOL    HW151624   6.881   3.038   8.084
49909SOL    HW251625   6.831   3.108   8.208
49910SOL     OW51626   9.948   5.560   0.640
49910SOL    HW151627   9.901   5.533   0.561
49910SOL    HW251628   9.883   5.611   0.690
49911SOL     OW51629   8.860   4.436  10.624
49911SOL    HW151630   8.822   4.484  10.550
49911SOL    HW251631   8.801   4.362  10.637
49912SOL     OW51632  12.103  10.818   6.806
49912SOL    HW151633  12.165  10.838   6.737
49912SOL    HW251634  12.137  10.738   6.847
49913SOL     OW51635   5.917   8.929   2.110
49913SOL    HW151636   5.937   8.844   2.148
49913SOL    HW251637   5.979   8.989   2.150
49914SOL     OW51638   4.145   3.619   7.953
49914SOL    HW151639   4.161   3.578   8.038
49914SOL    HW251640   4.108   3.550   7.898
49915SOL     OW51641  11.725  13.356   7.459
49915SOL    HW151642  11.633  13.379   7.444
49915SOL    HW251643  11.756  13.327   7.373
49916SOL     OW51644   7.723   6.656  13.978
49916SOL    HW151645   7.631   6.681  13.983
49916SOL    HW251646   7.722   6.561  13.971
49917SOL     OW51647   1.714   0.359   8.508
49917SOL    HW151648   1.665   0.396   8.435
49917SOL    HW251649   1.655   0.294   8.546
49918SOL     OW51650   0.179   8.999  14.763
49918SOL    HW151651   0.158   8.919  14.810
49918SOL    HW251652   0.209   9.059  14.832
49919SOL     OW51653   2.143  13.753   0.741
49919SOL    HW151654   2.101  13.713   0.817
49919SOL    HW251655   2.165  13.680   0.684
49920SOL     OW51656   5.015   6.956   1.006
49920SOL    HW151657   4.926   6.963   1.042
49920SOL    HW251658   5.064   6.908   1.073
49921SOL     OW51659   6.937  11.914   3.736
49921SOL    HW151660   6.893  11.999   3.744
49921SOL    HW251661   6.894  11.858   3.801
49922SOL     OW51662   9.300  14.610   9.634
49922SOL    HW151663   9.341  14.634   9.551
49922SOL    HW251664   9.206  14.613   9.617
49923SOL     OW51665  14.089   3.224   8.354
49923SOL    HW151666  14.061   3.204   8.265
49923SOL    HW251667  14.030   3.174   8.410
49924SOL     OW51668   5.769   4.551   3.548
49924SOL    HW151669   5.782   4.467   3.593
49924SOL    HW251670   5.745   4.527   3.459
49925SOL     OW51671  11.811   4.574   2.664
49925SOL    HW151672  11.868   4.588   2.739
49925SOL    HW251673  11.759   4.497   2.687
49926SOL     OW51674   4.195  10.722  11.604
49926SOL    HW151675   4.209  10.767  11.687
49926SOL    HW251676   4.283  10.710  11.567
49927SOL     OW51677  11.826   9.681  13.544
49927SOL    HW151678  11.905   9.631  13.523
49927SOL    HW251679  11.855   9.772  13.546
49928SOL     OW51680   6.574   7.236   0.855
49928SOL    HW151681   6.563   7.179   0.931
49928SOL    HW251682   6.585   7.176   0.781
49929SOL     OW51683  12.550  13.323   9.692
49929SOL    HW151684  12.569  13.409   9.730
49929SOL    HW251685  12.544  13.264   9.767
49930SOL     OW51686  14.260  12.733  11.949
49930SOL    HW151687  14.170  12.746  11.977
49930SOL    HW251688  14.281  12.643  11.974
49931SOL     OW51689   4.888   3.117  14.533
49931SOL    HW151690   4.869   3.023  14.531
49931SOL    HW251691   4.855   3.150  14.450
49932SOL     OW51692   0.119  11.165  12.874
49932SOL    HW151693   0.081  11.121  12.799
49932SOL    HW251694   0.199  11.116  12.894
49933SOL     OW51695   9.972  12.869  14.690
49933SOL    HW151696  10.044  12.879  14.628
49933SOL    HW251697   9.954  12.774  14.690
49934SOL     OW51698  13.129   2.101  10.876
49934SOL    HW151699  13.158   2.186  10.842
49934SOL    HW251700  13.037   2.096  10.853
49935SOL     OW51701   5.487  10.641   7.874
49935SOL    HW151702   5.417  10.625   7.938
49935SOL    HW251703   5.556  10.579   7.897
49936SOL     OW51704   9.847   2.310   6.740
49936SOL    HW151705   9.751   2.303   6.744
49936SOL    HW251706   9.868   2.381   6.800
49937SOL     OW51707   2.039   0.254   0.751
49937SOL    HW151708   1.972   0.233   0.816
49937SOL    HW251709   1.993   0.261   0.668
49938SOL     OW51710  12.349   2.864  13.843
49938SOL    HW151711  12.319   2.883  13.754
49938SOL    HW251712  12.439   2.834  13.831
49939SOL     OW51713  10.079   9.970  12.047
49939SOL    HW151714   9.990   9.954  12.015
49939SOL    HW251715  10.133   9.907  11.999
49940SOL     OW51716   4.618   0.274   1.970
49940SOL    HW151717   4.622   0.182   1.942
49940SOL    HW251718   4.607   0.269   2.065
49941SOL     OW51719   2.704  12.546  14.163
49941SOL    HW151720   2.735  12.618  14.218
49941SOL    HW251721   2.782  12.492  14.148
49942SOL     OW51722  10.183  11.294   5.867
49942SOL    HW151723  10.223  11.317   5.950
49942SOL    HW251724  10.256  11.290   5.805
49943SOL     OW51725  10.462   4.597   2.447
49943SOL    HW151726  10.484   4.690   2.445
49943SOL    HW251727  10.526   4.559   2.507
49944SOL     OW51728  12.754   5.873  11.716
49944SOL    HW151729  12.789   5.955  11.753
49944SOL    HW251730  12.790   5.804  11.773
49945SOL     OW51731   7.922   0.918   4.792
49945SOL    HW151732   7.857   0.853   4.767
49945SOL    HW251733   7.929   0.975   4.715
49946SOL     OW51734  10.901  11.117   0.663
49946SOL    HW151735  10.818  11.151   0.697
49946SOL    HW251736  10.944  11.078   0.739
49947SOL     OW51737   1.980   1.316   4.175
49947SOL    HW151738   1.913   1.381   4.195
49947SOL    HW251739   1.976   1.306   4.080
49948SOL     OW51740   7.413   8.841  10.483
49948SOL    HW151741   7.440   8.829  10.391
49948SOL    HW251742   7.357   8.765  10.501
49949SOL     OW51743   3.994  13.997   9.121
49949SOL    HW151744   4.055  13.942   9.072
49949SOL    HW251745   3.975  14.070   9.062
49950SOL     OW51746  13.089   8.470   9.985
49950SOL    HW151747  13.121   8.560   9.977
49950SOL    HW251748  12.996   8.476   9.965
49951SOL     OW51749   4.557   6.209  13.936
49951SOL    HW151750   4.557   6.248  14.024
49951SOL    HW251751   4.468   6.223  13.903
49952SOL     OW51752   0.162   6.932   5.429
49952SOL    HW151753   0.163   6.854   5.484
49952SOL    HW251754   0.245   6.929   5.381
49953SOL     OW51755   4.221   5.687   1.680
49953SOL    HW151756   4.259   5.664   1.764
49953SOL    HW251757   4.238   5.610   1.625
49954SOL     OW51758  14.708  11.389   1.649
49954SOL    HW151759  14.689  11.297   1.667
49954SOL    HW251760  14.684  11.435   1.729
49955SOL     OW51761   5.854  12.340  10.451
49955SOL    HW151762   5.868  12.311  10.541
49955SOL    HW251763   5.802  12.420  10.459
49956SOL     OW51764   4.661   1.032  13.868
49956SOL    HW151765   4.705   0.968  13.923
49956SOL    HW251766   4.571   0.999  13.860
49957SOL     OW51767   3.906   7.919   2.714
49957SOL    HW151768   3.970   7.975   2.759
49957SOL    HW251769   3.821   7.947   2.748
49958SOL     OW51770   8.776  10.900   2.220
49958SOL    HW151771   8.824  10.928   2.142
49958SOL    HW251772   8.809  10.812   2.238
49959SOL     OW51773   1.613   6.923  12.978
49959SOL    HW151774   1.518   6.930  12.988
49959SOL    HW251775   1.625   6.850  12.917
49960SOL     OW51776   9.916   3.882   4.456
49960SOL    HW151777   9.900   3.858   4.547
49960SOL    HW251778   9.880   3.971   4.448
49961SOL     OW51779   4.270   5.332   3.893
49961SOL    HW151780   4.309   5.297   3.813
49961SOL    HW251781   4.344   5.355   3.948
49962SOL     OW51782   0.860   9.364   5.201
49962SOL    HW151783   0.829   9.309   5.129
49962SOL    HW251784   0.940   9.405   5.168
49963SOL     OW51785   5.520   6.274   6.314
49963SOL    HW151786   5.599   6.257   6.263
49963SOL    HW251787   5.458   6.313   6.252
49964SOL     OW51788   7.225   1.304   0.440
49964SOL    HW151789   7.155   1.300   0.506
49964SOL    HW251790   7.185   1.346   0.364
49965SOL     OW51791   0.545   3.321  10.150
49965SOL    HW151792   0.480   3.369  10.099
49965SOL    HW251793   0.522   3.229  10.138
49966SOL     OW51794   2.528  11.037  12.791
49966SOL    HW151795   2.558  11.122  12.823
49966SOL    HW251796   2.497  11.055  12.702
49967SOL     OW51797   5.632  12.499   4.679
49967SOL    HW151798   5.573  12.503   4.604
49967SOL    HW251799   5.663  12.588   4.690
49968SOL     OW51800   9.834   2.645   2.074
49968SOL    HW151801   9.850   2.574   2.136
49968SOL    HW251802   9.752   2.622   2.031
49969SOL     OW51803   8.499  14.273  14.129
49969SOL    HW151804   8.439  14.306  14.062
49969SOL    HW251805   8.442  14.248  14.202
49970SOL     OW51806   9.146   7.466  11.295
49970SOL    HW151807   9.200   7.528  11.245
49970SOL    HW251808   9.130   7.510  11.378
49971SOL     OW51809   5.895   5.085   7.687
49971SOL    HW151810   5.989   5.087   7.671
49971SOL    HW251811   5.856   5.117   7.606
49972SOL     OW51812  14.736   9.095  10.469
49972SOL    HW151813  14.768   9.122  10.555
49972SOL    HW251814  14.678   9.167  10.442
49973SOL     OW51815   9.350   9.745   8.014
49973SOL    HW151816   9.264   9.777   7.988
49973SOL    HW251817   9.332   9.673   8.075
49974SOL     OW51818   9.094  10.303  14.135
49974SOL    HW151819   9.148  10.232  14.169
49974SOL    HW251820   9.150  10.380  14.138
49975SOL     OW51821  12.099   9.610   9.070
49975SOL    HW151822  12.194   9.619   9.069
49975SOL    HW251823  12.070   9.675   9.133
49976SOL     OW51824  10.633   0.341   6.781
49976SOL    HW151825  10.553   0.354   6.831
49976SOL    HW251826  10.702   0.332   6.847
49977SOL     OW51827  10.675   5.452   4.415
49977SOL    HW151828  10.684   5.396   4.338
49977SOL    HW251829  10.656   5.539   4.380
49978SOL     OW51830   6.979   6.539   9.337
49978SOL    HW151831   6.955   6.571   9.424
49978SOL    HW251832   6.895   6.515   9.296
49979SOL     OW51833   6.640   4.829  13.726
49979SOL    HW151834   6.556   4.829  13.680
49979SOL    HW251835   6.655   4.921  13.751
49980SOL     OW51836   0.718  12.009   3.212
49980SOL    HW151837   0.656  12.081   3.225
49980SOL    HW251838   0.736  11.978   3.301
49981SOL     OW51839   6.362  11.657   7.445
49981SOL    HW151840   6.336  11.631   7.533
49981SOL    HW251841   6.407  11.580   7.409
49982SOL     OW51842  13.838  13.584   0.599
49982SOL    HW151843  13.744  13.587   0.582
49982SOL    HW251844  13.873  13.663   0.558
49983SOL     OW51845   5.737   5.964   7.091
49983SOL    HW151846   5.701   5.881   7.058
49983SOL    HW251847   5.680   6.031   7.053
49984SOL     OW51848   4.496   1.380   3.181
49984SOL    HW151849   4.420   1.339   3.139
49984SOL    HW251850   4.502   1.337   3.267
49985SOL     OW51851   0.555   7.125   8.049
49985SOL    HW151852   0.614   7.070   8.101
49985SOL    HW251853   0.562   7.212   8.089
49986SOL     OW51854   7.936   8.196   3.045
49986SOL    HW151855   7.991   8.225   3.117
49986SOL    HW251856   7.995   8.191   2.970
49987SOL     OW51857  14.410   6.269   5.356
49987SOL    HW151858  14.357   6.304   5.284
49987SOL    HW251859  14.384   6.177   5.362
49988SOL     OW51860   5.442   9.229   6.269
49988SOL    HW151861   5.383   9.176   6.215
49988SOL    HW251862   5.492   9.165   6.320
49989SOL     OW51863   8.318  11.509   1.099
49989SOL    HW151864   8.413  11.504   1.111
49989SOL    HW251865   8.307  11.556   1.016
49990SOL     OW51866  11.235   0.427   1.098
49990SOL    HW151867  11.221   0.339   1.064
49990SOL    HW251868  11.200   0.424   1.187
49991SOL     OW51869  12.360  10.815   2.449
49991SOL    HW151870  12.276  10.772   2.436
49991SOL    HW251871  12.340  10.909   2.442
49992SOL     OW51872  13.700  13.561   9.769
49992SOL    HW151873  13.657  13.476   9.758
49992SOL    HW251874  13.688  13.605   9.685
49993SOL     OW51875   6.478  14.804   4.747
49993SOL    HW151876   6.536  14.730   4.763
49993SOL    HW251877   6.436  14.784   4.664
49994SOL     OW51878  13.169  10.570   7.850
49994SOL    HW151879  13.084  10.572   7.893
49994SOL    HW251880  13.157  10.625   7.772
49995SOL     OW51881   2.641   5.261   2.776
49995SOL    HW151882   2.679   5.189   2.826
49995SOL    HW251883   2.674   5.340   2.819
49996SOL     OW51884   7.129   2.791   2.830
49996SOL    HW151885   7.056   2.758   2.883
49996SOL    HW251886   7.151   2.718   2.772
49997SOL     OW51887   5.456  14.382   2.661
49997SOL    HW151888   5.464  14.471   2.694
49997SOL    HW251889   5.369  14.379   2.621
49998SOL     OW51890  10.126   4.143  11.208
49998SOL    HW151891  10.062   4.158  11.138
49998SOL    HW251892  10.080   4.088  11.271
49999SOL     OW51893  12.880   3.236  14.827
49999SOL    HW151894  12.956   3.294  14.819
49999SOL    HW251895  12.805   3.295  14.833
50000SOL     OW51896   1.298   6.190   5.752
50000SOL    HW151897   1.288   6.158   5.841
50000SOL    HW251898   1.375   6.145   5.718
50001SOL     OW51899   2.883   1.064   4.467
50001SOL    HW151900   2.861   1.154   4.442
50001SOL    HW251901   2.883   1.016   4.384
50002SOL     OW51902  10.493   3.748   0.094
50002SOL    HW151903  10.523   3.787   0.012
50002SOL    HW251904  10.570   3.750   0.151
50003SOL     OW51905   2.454   1.476   3.888
50003SOL    HW151906   2.407   1.552   3.855
50003SOL    HW251907   2.479   1.426   3.810
50004SOL     OW51908  10.539   7.033   8.288
50004SOL    HW151909  10.522   7.121   8.255
50004SOL    HW251910  10.569   6.984   8.212
50005SOL     OW51911  10.966   2.007   4.044
50005SOL    HW151912  10.958   1.942   3.974
50005SOL    HW251913  11.039   2.062   4.016
50006SOL     OW51914   2.034   0.081  13.624
50006SOL    HW151915   1.998  14.869  13.651
50006SOL    HW251916   1.959   0.131  13.593
50007SOL     OW51917   6.482   9.908  12.890
50007SOL    HW151918   6.393   9.877  12.880
50007SOL    HW251919   6.475   9.982  12.951
50008SOL     OW51920  10.262   8.411   3.286
50008SOL    HW151921  10.215   8.338   3.246
50008SOL    HW251922  10.341   8.372   3.322
50009SOL     OW51923   1.532   0.934   4.587
50009SOL    HW151924   1.545   0.843   4.560
50009SOL    HW251925   1.608   0.980   4.551
50010SOL     OW51926   8.845  10.671   8.498
50010SOL    HW151927   8.790  10.628   8.433
50010SOL    HW251928   8.784  10.710   8.560
50011SOL     OW51929  11.517  10.460  13.942
50011SOL    HW151930  11.473  10.510  14.010
50011SOL    HW251931  11.610  10.479  13.954
50012SOL     OW51932  10.340   5.548   1.253
50012SOL    HW151933  10.427   5.557   1.212
50012SOL    HW251934  10.348   5.595   1.336
50013SOL     OW51935   8.654  14.053  14.028
50013SOL    HW151936   8.665  13.990  14.099
50013SOL    HW251937   8.584  14.112  14.059
50014SOL     OW51938  13.406   5.386  12.373
50014SOL    HW151939  13.478   5.328  12.394
50014SOL    HW251940  13.447   5.463  12.335
50015SOL     OW51941  11.530   4.335   2.190
50015SOL    HW151942  11.548   4.423   2.157
50015SOL    HW251943  11.514   4.346   2.283
50016SOL     OW51944   3.291  14.160   8.604
50016SOL    HW151945   3.359  14.096   8.623
50016SOL    HW251946   3.338  14.240   8.581
50017SOL     OW51947   5.335   7.210  11.017
50017SOL    HW151948   5.270   7.151  11.053
50017SOL    HW251949   5.419   7.174  11.046
50018SOL     OW51950   6.243  14.719   9.823
50018SOL    HW151951   6.223  14.756   9.737
50018SOL    HW251952   6.197  14.635   9.824
50019SOL     OW51953   5.036  12.536   0.926
50019SOL    HW151954   4.983  12.458   0.917
50019SOL    HW251955   5.019  12.566   1.015
50020SOL     OW51956  12.847   3.979   3.975
50020SOL    HW151957  12.869   3.893   4.010
50020SOL    HW251958  12.824   3.963   3.883
50021SOL     OW51959  13.043   7.374  13.827
50021SOL    HW151960  13.018   7.432  13.899
50021SOL    HW251961  13.098   7.308  13.868
50022SOL     OW51962   6.441  13.098   0.992
50022SOL    HW151963   6.499  13.151   1.046
50022SOL    HW251964   6.440  13.143   0.907
50023SOL     OW51965  12.176   6.383   8.829
50023SOL    HW151966  12.228   6.386   8.908
50023SOL    HW251967  12.211   6.308   8.780
50024SOL     OW51968   7.421   8.655   5.837
50024SOL    HW151969   7.509   8.655   5.874
50024SOL    HW251970   7.426   8.594   5.764
50025SOL     OW51971   0.780   0.202   1.598
50025SOL    HW151972   0.730   0.198   1.517
50025SOL    HW251973   0.822   0.288   1.596
50026SOL     OW51974  13.374  14.468  10.596
50026SOL    HW151975  13.416  14.386  10.569
50026SOL    HW251976  13.318  14.492  10.522
50027SOL     OW51977  12.094   3.563   7.459
50027SOL    HW151978  12.050   3.510   7.526
50027SOL    HW251979  12.028   3.575   7.391
50028SOL     OW51980   2.939   9.986  13.801
50028SOL    HW151981   2.889   9.915  13.759
50028SOL    HW251982   2.971   9.948  13.883
50029SOL     OW51983  12.078  10.412   3.884
50029SOL    HW151984  12.042  10.500   3.871
50029SOL    HW251985  12.099  10.382   3.796
50030SOL     OW51986  11.204   6.333   4.824
50030SOL    HW151987  11.271   6.357   4.760
50030SOL    HW251988  11.203   6.407   4.885
50031SOL     OW51989   4.069  12.061   1.624
50031SOL    HW151990   4.080  12.154   1.603
50031SOL    HW251991   3.986  12.057   1.673
50032SOL     OW51992  14.268   1.044   4.076
50032SOL    HW151993  14.222   1.059   3.994
50032SOL    HW251994  14.344   0.991   4.052
50033SOL     OW51995   9.733  14.767   0.923
50033SOL    HW151996   9.700  14.691   0.972
50033SOL    HW251997   9.659  14.797   0.871
50034SOL     OW51998   0.754  13.904   5.555
50034SOL    HW151999   0.811  13.832   5.528
50034SOL    HW252000   0.667  13.879   5.525
50035SOL     OW52001   3.041  10.885   7.244
50035SOL    HW152002   2.965  10.896   7.302
50035SOL    HW252003   3.103  10.832   7.294
50036SOL     OW52004  10.113   7.633   1.091
50036SOL    HW152005  10.078   7.710   1.045
50036SOL    HW252006  10.073   7.637   1.177
50037SOL     OW52007   7.793   6.290   8.929
50037SOL    HW152008   7.843   6.210   8.911
50037SOL    HW252009   7.857   6.348   8.971
50038SOL     OW52010  13.628   4.982   6.200
50038SOL    HW152011  13.676   4.939   6.271
50038SOL    HW252012  13.567   5.041   6.246
50039SOL     OW52013   0.172  12.778   1.507
50039SOL    HW152014   0.150  12.765   1.599
50039SOL    HW252015   0.116  12.851   1.478
50040SOL     OW52016   1.355  12.764   7.491
50040SOL    HW152017   1.291  12.711   7.539
50040SOL    HW252018   1.310  12.788   7.409
50041SOL     OW52019  13.960   0.606   5.820
50041SOL    HW152020  14.025   0.551   5.865
50041SOL    HW252021  14.011   0.671   5.773
50042SOL     OW52022  10.626  14.377  10.338
50042SOL    HW152023  10.605  14.398  10.429
50042SOL    HW252024  10.541  14.361  10.296
50043SOL     OW52025   1.522   4.885  10.515
50043SOL    HW152026   1.512   4.959  10.455
50043SOL    HW252027   1.434   4.847  10.520
50044SOL     OW52028   7.397   5.301   0.083
50044SOL    HW152029   7.330   5.357   0.046
50044SOL    HW252030   7.419   5.341   0.167
50045SOL     OW52031  12.371   7.738   6.357
50045SOL    HW152032  12.317   7.811   6.388
50045SOL    HW252033  12.449   7.741   6.412
50046SOL     OW52034   3.476   7.615  14.093
50046SOL    HW152035   3.451   7.574  14.176
50046SOL    HW252036   3.397   7.660  14.064
50047SOL     OW52037   7.562   1.489  10.382
50047SOL    HW152038   7.655   1.466  10.382
50047SOL    HW252039   7.548   1.527  10.469
50048SOL     OW52040  10.756   3.710  13.654
50048SOL    HW152041  10.821   3.735  13.589
50048SOL    HW252042  10.718   3.793  13.684
50049SOL     OW52043   4.244   4.209   5.516
50049SOL    HW152044   4.302   4.151   5.468
50049SOL    HW252045   4.156   4.175   5.499
50050SOL     OW52046  14.441  12.288  12.604
50050SOL    HW152047  14.348  12.274  12.624
50050SOL    HW252048  14.487  12.217  12.650
50051SOL     OW52049  12.360   0.401  13.522
50051SOL    HW152050  12.270   0.434  13.533
50051SOL    HW252051  12.360   0.359  13.436
50052SOL     OW52052   9.670   8.082   0.708
50052SOL    HW152053   9.604   8.062   0.775
50052SOL    HW252054   9.720   8.002   0.699
50053SOL     OW52055   1.912   6.146   3.171
50053SOL    HW152056   1.870   6.231   3.157
50053SOL    HW252057   1.974   6.162   3.242
50054SOL     OW52058   1.509  12.849  10.492
50054SOL    HW152059   1.453  12.907  10.544
50054SOL    HW252060   1.450  12.778  10.465
50055SOL     OW52061  14.308   0.594  14.347
50055SOL    HW152062  14.225   0.621  14.386
50055SOL    HW252063  14.283   0.530  14.280
50056SOL     OW52064   4.811   7.652   1.473
50056SOL    HW152065   4.757   7.730   1.466
50056SOL    HW252066   4.768   7.588   1.417
50057SOL     OW52067   3.640   0.610   6.170
50057SOL    HW152068   3.673   0.694   6.201
50057SOL    HW252069   3.675   0.601   6.081
50058SOL     OW52070  12.803   3.636  10.458
50058SOL    HW152071  12.781   3.700  10.526
50058SOL    HW252072  12.895   3.613  10.476
50059SOL     OW52073   9.607   9.644  13.077
50059SOL    HW152074   9.652   9.674  13.155
50059SOL    HW252075   9.546   9.715  13.055
50060SOL     OW52076  12.426   4.323   7.552
50060SOL    HW152077  12.411   4.372   7.471
50060SOL    HW252078  12.418   4.232   7.526
50061SOL     OW52079   8.463  12.758   5.668
50061SOL    HW152080   8.482  12.835   5.615
50061SOL    HW252081   8.487  12.784   5.757
50062SOL     OW52082  13.144  13.551   7.672
50062SOL    HW152083  13.117  13.470   7.715
50062SOL    HW252084  13.120  13.621   7.734
50063SOL     OW52085   5.564  14.200  12.836
50063SOL    HW152086   5.654  14.230  12.830
50063SOL    HW252087   5.520  14.242  12.762
50064SOL     OW52088   6.865   4.493   9.397
50064SOL    HW152089   6.937   4.435   9.371
50064SOL    HW252090   6.876   4.570   9.342
50065SOL     OW52091   2.588   9.676   4.951
50065SOL    HW152092   2.514   9.621   4.923
50065SOL    HW252093   2.666   9.624   4.930
50066SOL     OW52094  10.863   3.723   0.464
50066SOL    HW152095  10.774   3.723   0.430
50066SOL    HW252096  10.914   3.771   0.398
50067SOL     OW52097  14.773  12.604   1.646
50067SOL    HW152098  14.766  12.542   1.718
50067SOL    HW252099  14.836  12.669   1.676
50068SOL     OW52100   5.889   0.785  13.897
50068SOL    HW152101   5.805   0.804  13.939
50068SOL    HW252102   5.874   0.804  13.804
50069SOL     OW52103   4.024  13.191   2.446
50069SOL    HW152104   3.985  13.180   2.533
50069SOL    HW252105   4.118  13.194   2.463
50070SOL     OW52106   9.287  13.885   6.078
50070SOL    HW152107   9.213  13.836   6.043
50070SOL    HW252108   9.257  13.918   6.163
50071SOL     OW52109   2.130  14.643   7.692
50071SOL    HW152110   2.112  14.730   7.657
50071SOL    HW252111   2.181  14.600   7.623
50072SOL     OW52112  13.976  14.340   7.283
50072SOL    HW152113  13.907  14.276   7.298
50072SOL    HW252114  14.057  14.293   7.300
50073SOL     OW52115  12.098   4.188   7.945
50073SOL    HW152116  12.044   4.239   8.005
50073SOL    HW252117  12.085   4.230   7.860
50074SOL     OW52118   6.529   7.679   4.641
50074SOL    HW152119   6.493   7.609   4.587
50074SOL    HW252120   6.576   7.633   4.711
50075SOL     OW52121  14.690   7.566   8.103
50075SOL    HW152122  14.626   7.507   8.063
50075SOL    HW252123  14.649   7.652   8.101
50076SOL     OW52124   5.084  10.492   4.163
50076SOL    HW152125   5.073  10.525   4.074
50076SOL    HW252126   5.045  10.559   4.218
50077SOL     OW52127  14.565   2.617   9.168
50077SOL    HW152128  14.478   2.590   9.138
50077SOL    HW252129  14.605   2.536   9.200
50078SOL     OW52130   5.710   4.663  13.195
50078SOL    HW152131   5.711   4.632  13.105
50078SOL    HW252132   5.664   4.747  13.191
50079SOL     OW52133   2.655  11.815   9.328
50079SOL    HW152134   2.717  11.743   9.314
50079SOL    HW252135   2.697  11.871   9.394
50080SOL     OW52136   9.825   0.479   9.018
50080SOL    HW152137   9.847   0.545   9.083
50080SOL    HW252138   9.774   0.525   8.952
50081SOL     OW52139  13.799   2.515   6.059
50081SOL    HW152140  13.868   2.515   6.126
50081SOL    HW252141  13.812   2.433   6.012
50082SOL     OW52142  12.584  10.332  10.951
50082SOL    HW152143  12.617  10.376  10.873
50082SOL    HW252144  12.650  10.265  10.970
50083SOL     OW52145  10.158   5.049   1.489
50083SOL    HW152146  10.252   5.042   1.508
50083SOL    HW252147  10.149   5.010   1.402
50084SOL     OW52148   5.756  11.959   9.737
50084SOL    HW152149   5.688  12.025   9.753
50084SOL    HW252150   5.829  12.009   9.701
50085SOL     OW52151   8.919  10.024  14.290
50085SOL    HW152152   8.899   9.933  14.269
50085SOL    HW252153   8.834  10.069  14.288
50086SOL     OW52154  11.837  11.919  14.063
50086SOL    HW152155  11.809  11.879  13.980
50086SOL    HW252156  11.803  12.008  14.059
50087SOL     OW52157   3.571   2.775  10.273
50087SOL    HW152158   3.644   2.731  10.230
50087SOL    HW252159   3.539   2.837  10.208
50088SOL     OW52160   2.394   0.808   4.101
50088SOL    HW152161   2.458   0.830   4.169
50088SOL    HW252162   2.419   0.863   4.026
50089SOL     OW52163   5.579   2.465  11.927
50089SOL    HW152164   5.573   2.541  11.986
50089SOL    HW252165   5.589   2.390  11.985
50090SOL     OW52166  10.030  13.936   2.006
50090SOL    HW152167  10.042  14.000   2.076
50090SOL    HW252168  10.038  13.986   1.925
50091SOL     OW52169  14.087   0.514   6.791
50091SOL    HW152170  14.144   0.437   6.792
50091SOL    HW252171  14.110   0.560   6.710
50092SOL     OW52172   5.098   5.196  10.802
50092SOL    HW152173   5.120   5.171  10.892
50092SOL    HW252174   5.034   5.266  10.811
50093SOL     OW52175   8.456   7.308   1.382
50093SOL    HW152176   8.430   7.382   1.438
50093SOL    HW252177   8.389   7.242   1.397
50094SOL     OW52178   4.583  12.212  14.353
50094SOL    HW152179   4.539  12.287  14.393
50094SOL    HW252180   4.665  12.204  14.401
50095SOL     OW52181  14.131   8.822   3.873
50095SOL    HW152182  14.157   8.830   3.781
50095SOL    HW252183  14.036   8.808   3.870
50096SOL     OW52184   4.497   3.968  11.771
50096SOL    HW152185   4.524   3.951  11.861
50096SOL    HW252186   4.402   3.966  11.773
50097SOL     OW52187   0.864  11.070   9.868
50097SOL    HW152188   0.868  11.127   9.791
50097SOL    HW252189   0.900  10.986   9.838
50098SOL     OW52190   1.505   3.193   4.374
50098SOL    HW152191   1.471   3.263   4.429
50098SOL    HW252192   1.445   3.189   4.300
50099SOL     OW52193  13.069  13.783   8.964
50099SOL    HW152194  13.075  13.853   9.029
50099SOL    HW252195  13.006  13.721   9.002
50100SOL     OW52196   1.737  12.747   8.376
50100SOL    HW152197   1.773  12.663   8.346
50100SOL    HW252198   1.807  12.810   8.360
50101SOL     OW52199   9.075   6.939   8.363
50101SOL    HW152200   9.043   6.943   8.452
50101SOL    HW252201   9.145   7.004   8.359
50102SOL     OW52202   3.288   8.515  10.219
50102SOL    HW152203   3.294   8.560  10.303
50102SOL    HW252204   3.346   8.440  10.228
50103SOL     OW52205   2.618   4.636   6.948
50103SOL    HW152206   2.662   4.632   6.863
50103SOL    HW252207   2.661   4.708   6.994
50104SOL     OW52208  13.681  12.218   5.110
50104SOL    HW152209  13.736  12.244   5.184
50104SOL    HW252210  13.613  12.286   5.106
50105SOL     OW52211   1.734   3.784   3.390
50105SOL    HW152212   1.766   3.843   3.458
50105SOL    HW252213   1.639   3.785   3.401
50106SOL     OW52214  14.772  10.212   1.404
50106SOL    HW152215  14.738  10.129   1.369
50106SOL    HW252216  14.805  10.189   1.490
50107SOL     OW52217  12.700  12.258   3.758
50107SOL    HW152218  12.675  12.183   3.705
50107SOL    HW252219  12.686  12.230   3.848
50108SOL     OW52220  10.162  10.776  13.800
50108SOL    HW152221  10.105  10.852  13.814
50108SOL    HW252222  10.197  10.756  13.886
50109SOL     OW52223   4.765   1.447   5.377
50109SOL    HW152224   4.687   1.417   5.424
50109SOL    HW252225   4.832   1.383   5.398
50110SOL     OW52226   3.798   7.552  12.911
50110SOL    HW152227   3.833   7.578  12.826
50110SOL    HW252228   3.786   7.457  12.905
50111SOL     OW52229  14.560   2.121   1.792
50111SOL    HW152230  14.635   2.175   1.816
50111SOL    HW252231  14.499   2.182   1.751
50112SOL     OW52232  11.591  11.495  13.667
50112SOL    HW152233  11.566  11.567  13.726
50112SOL    HW252234  11.523  11.429  13.680
50113SOL     OW52235   6.596   7.123   2.656
50113SOL    HW152236   6.577   7.121   2.750
50113SOL    HW252237   6.669   7.062   2.645
50114SOL     OW52238   5.543  11.437   4.481
50114SOL    HW152239   5.477  11.367   4.481
50114SOL    HW252240   5.598  11.417   4.405
50115SOL     OW52241  12.951   7.137   9.872
50115SOL    HW152242  12.993   7.222   9.866
50115SOL    HW252243  13.022   7.076   9.892
50116SOL     OW52244   3.469   0.900   6.520
50116SOL    HW152245   3.484   0.994   6.516
50116SOL    HW252246   3.489   0.876   6.611
50117SOL     OW52247  12.339   6.516   6.188
50117SOL    HW152248  12.389   6.446   6.230
50117SOL    HW252249  12.395   6.593   6.193
50118SOL     OW52250   2.264  12.992  12.073
50118SOL    HW152251   2.202  13.006  12.001
50118SOL    HW252252   2.209  12.977  12.150
50119SOL     OW52253  12.883   0.136   1.879
50119SOL    HW152254  12.892   0.072   1.950
50119SOL    HW252255  12.966   0.184   1.879
50120SOL     OW52256  11.841   4.840  10.284
50120SOL    HW152257  11.778   4.803  10.222
50120SOL    HW252258  11.916   4.865  10.230
50121SOL     OW52259   5.351   7.325  14.837
50121SOL    HW152260   5.291   7.336  14.763
50121SOL    HW252261   5.430   7.373  14.812
50122SOL     OW52262   2.914   8.039   0.921
50122SOL    HW152263   2.878   8.071   1.003
50122SOL    HW252264   3.008   8.034   0.936
50123SOL     OW52265   8.783   6.375   9.351
50123SOL    HW152266   8.722   6.350   9.421
50123SOL    HW252267   8.854   6.311   9.357
50124SOL     OW52268  11.588   8.479  11.894
50124SOL    HW152269  11.608   8.572  11.887
50124SOL    HW252270  11.656   8.443  11.950
50125SOL     OW52271   8.214   9.335   7.536
50125SOL    HW152272   8.205   9.427   7.563
50125SOL    HW252273   8.174   9.332   7.449
50126SOL     OW52274  11.620   5.154  14.697
50126SOL    HW152275  11.623   5.166  14.602
50126SOL    HW252276  11.708   5.173  14.727
50127SOL     OW52277   4.257  14.460  12.750
50127SOL    HW152278   4.266  14.515  12.828
50127SOL    HW252279   4.194  14.392  12.776
50128SOL     OW52280   2.830   9.757   6.592
50128SOL    HW152281   2.903   9.741   6.533
50128SOL    HW252282   2.861   9.726   6.677
50129SOL     OW52283   8.941   2.132   5.666
50129SOL    HW152284   8.977   2.220   5.672
50129SOL    HW252285   8.866   2.132   5.724
50130SOL     OW52286   4.444  13.955   8.301
50130SOL    HW152287   4.509  13.934   8.369
50130SOL    HW252288   4.493  14.006   8.237
50131SOL     OW52289  10.418   0.958   5.368
50131SOL    HW152290  10.473   0.943   5.444
50131SOL    HW252291  10.335   0.990   5.404
50132SOL     OW52292   7.370   1.657   1.822
50132SOL    HW152293   7.371   1.563   1.839
50132SOL    HW252294   7.340   1.695   1.905
50133SOL     OW52295   7.896  10.472  10.274
50133SOL    HW152296   7.870  10.546  10.329
50133SOL    HW252297   7.873  10.498  10.185
50134SOL     OW52298   7.294   7.954  14.481
50134SOL    HW152299   7.246   7.902  14.416
50134SOL    HW252300   7.255   7.930  14.565
50135SOL     OW52301   0.766   6.431   3.871
50135SOL    HW152302   0.806   6.512   3.902
50135SOL    HW252303   0.822   6.404   3.798
50136SOL     OW52304  13.373  13.649   3.985
50136SOL    HW152305  13.370  13.745   3.987
50136SOL    HW252306  13.428  13.628   3.909
50137SOL     OW52307  10.154   6.247   6.631
50137SOL    HW152308  10.064   6.277   6.612
50137SOL    HW252309  10.169   6.176   6.569
50138SOL     OW52310   1.506   5.033   9.606
50138SOL    HW152311   1.443   5.002   9.672
50138SOL    HW252312   1.453   5.050   9.528
50139SOL     OW52313   1.366  11.003   0.703
50139SOL    HW152314   1.410  10.944   0.641
50139SOL    HW252315   1.407  11.088   0.688
50140SOL     OW52316  14.061  14.179   6.656
50140SOL    HW152317  14.067  14.088   6.684
50140SOL    HW252318  13.989  14.215   6.707
50141SOL     OW52319  12.905   1.237  12.576
50141SOL    HW152320  12.953   1.300  12.630
50141SOL    HW252321  12.860   1.290  12.511
50142SOL     OW52322  11.828  14.094   2.004
50142SOL    HW152323  11.864  14.097   2.092
50142SOL    HW252324  11.825  14.001   1.981
50143SOL     OW52325   3.151   6.608   0.012
50143SOL    HW152326   3.082   6.665   0.046
50143SOL    HW252327   3.145   6.617  14.789
50144SOL     OW52328   2.269  12.292   9.120
50144SOL    HW152329   2.339  12.260   9.177
50144SOL    HW252330   2.310  12.299   9.034
50145SOL     OW52331   4.590  12.372   8.719
50145SOL    HW152332   4.635  12.293   8.748
50145SOL    HW252333   4.636  12.444   8.762
50146SOL     OW52334   8.749   7.183  11.282
50146SOL    HW152335   8.677   7.159  11.223
50146SOL    HW252336   8.808   7.235  11.228
50147SOL     OW52337   4.293   8.204   8.008
50147SOL    HW152338   4.350   8.257   8.063
50147SOL    HW252339   4.281   8.123   8.058
50148SOL     OW52340   0.073   2.807   6.397
50148SOL    HW152341   0.159   2.840   6.423
50148SOL    HW252342   0.032   2.880   6.351
50149SOL     OW52343   0.492   2.435   5.242
50149SOL    HW152344   0.428   2.464   5.306
50149SOL    HW252345   0.450   2.450   5.157
50150SOL     OW52346  12.491   0.159   1.677
50150SOL    HW152347  12.449   0.146   1.763
50150SOL    HW252348  12.575   0.112   1.684
50151SOL     OW52349   0.912   1.689   5.077
50151SOL    HW152350   0.999   1.649   5.084
50151SOL    HW252351   0.868   1.667   5.159
50152SOL     OW52352  12.686   7.032  11.699
50152SOL    HW152353  12.637   7.000  11.775
50152SOL    HW252354  12.618   7.049  11.633
50153SOL     OW52355   8.317   2.135   3.879
50153SOL    HW152356   8.357   2.166   3.960
50153SOL    HW252357   8.297   2.215   3.830
50154SOL     OW52358   9.752   7.800  12.173
50154SOL    HW152359   9.836   7.777  12.212
50154SOL    HW252360   9.754   7.895  12.165
50155SOL     OW52361   3.391   5.087   1.238
50155SOL    HW152362   3.482   5.063   1.252
50155SOL    HW252363   3.360   5.115   1.324
50156SOL     OW52364   8.000   0.066  14.859
50156SOL    HW152365   8.081   0.112  14.834
50156SOL    HW252366   7.936   0.092  14.793
50157SOL     OW52367   5.386   0.214  13.278
50157SOL    HW152368   5.327   0.236  13.349
50157SOL    HW252369   5.339   0.150  13.226
50158SOL     OW52370   1.760   4.916  13.627
50158SOL    HW152371   1.667   4.905  13.607
50158SOL    HW252372   1.788   4.989  13.571
50159SOL     OW52373  12.577   9.907  13.966
50159SOL    HW152374  12.665   9.924  13.999
50159SOL    HW252375  12.528   9.987  13.985
50160SOL     OW52376  11.635   1.090   9.913
50160SOL    HW152377  11.666   1.092   9.823
50160SOL    HW252378  11.705   1.045   9.962
50161SOL     OW52379   4.293   3.258  12.424
50161SOL    HW152380   4.343   3.271  12.505
50161SOL    HW252381   4.202   3.257  12.452
50162SOL     OW52382   7.626   1.724   1.841
50162SOL    HW152383   7.634   1.732   1.936
50162SOL    HW252384   7.532   1.716   1.825
50163SOL     OW52385  10.441  13.151   6.798
50163SOL    HW152386  10.366  13.158   6.857
50163SOL    HW252387  10.457  13.241   6.768
50164SOL     OW52388   4.223   9.019   8.270
50164SOL    HW152389   4.188   9.109   8.274
50164SOL    HW252390   4.148   8.967   8.240
50165SOL     OW52391  13.268  14.046   9.838
50165SOL    HW152392  13.262  14.043   9.933
50165SOL    HW252393  13.227  13.965   9.809
50166SOL     OW52394  11.765   9.133   5.682
50166SOL    HW152395  11.822   9.204   5.711
50166SOL    HW252396  11.742   9.156   5.592
50167SOL     OW52397  11.301   2.001   5.402
50167SOL    HW152398  11.293   1.978   5.495
50167SOL    HW252399  11.273   1.923   5.355
50168SOL     OW52400   1.893   6.689   6.011
50168SOL    HW152401   1.807   6.701   5.970
50168SOL    HW252402   1.940   6.770   5.992
50169SOL     OW52403   0.484   9.664  11.938
50169SOL    HW152404   0.397   9.702  11.950
50169SOL    HW252405   0.541   9.715  11.997
50170SOL     OW52406  11.257  10.704   0.395
50170SOL    HW152407  11.271  10.704   0.490
50170SOL    HW252408  11.224  10.792   0.377
50171SOL     OW52409  14.540   1.925   0.170
50171SOL    HW152410  14.563   1.995   0.109
50171SOL    HW252411  14.604   1.932   0.240
50172SOL     OW52412  14.075   2.147  12.609
50172SOL    HW152413  14.032   2.223  12.649
50172SOL    HW252414  14.159   2.181  12.576
50173SOL     OW52415   0.941   4.996  10.017
50173SOL    HW152416   0.903   5.012  10.103
50173SOL    HW252417   1.013   4.934  10.033
50174SOL     OW52418   7.500  13.356  13.465
50174SOL    HW152419   7.517  13.263  13.478
50174SOL    HW252420   7.565  13.385  13.402
50175SOL     OW52421   7.871   2.278   6.587
50175SOL    HW152422   7.865   2.183   6.585
50175SOL    HW252423   7.816   2.304   6.661
50176SOL     OW52424  13.092   2.987   8.325
50176SOL    HW152425  13.058   2.921   8.386
50176SOL    HW252426  13.163   3.030   8.372
50177SOL     OW52427   8.604   9.722   0.498
50177SOL    HW152428   8.632   9.715   0.407
50177SOL    HW252429   8.578   9.813   0.508
50178SOL     OW52430   2.324   7.860   3.569
50178SOL    HW152431   2.343   7.940   3.617
50178SOL    HW252432   2.388   7.796   3.603
50179SOL     OW52433   6.742  12.635   0.181
50179SOL    HW152434   6.804  12.621   0.252
50179SOL    HW252435   6.734  12.550   0.138
50180SOL     OW52436   7.255  10.905   0.647
50180SOL    HW152437   7.264  10.997   0.623
50180SOL    HW252438   7.202  10.906   0.726
50181SOL     OW52439   9.818  10.715   0.722
50181SOL    HW152440   9.850  10.695   0.634
50181SOL    HW252441   9.895  10.707   0.778
50182SOL     OW52442   7.035  10.525   6.123
50182SOL    HW152443   7.004  10.434   6.124
50182SOL    HW252444   7.020  10.554   6.033
50183SOL     OW52445  13.966   1.375  12.206
50183SOL    HW152446  13.923   1.440  12.261
50183SOL    HW252447  14.028   1.426  12.153
50184SOL     OW52448  11.656  14.159   0.784
50184SOL    HW152449  11.702  14.200   0.858
50184SOL    HW252450  11.650  14.228   0.718
50185SOL     OW52451  13.565   3.943   4.138
50185SOL    HW152452  13.523   3.970   4.056
50185SOL    HW252453  13.542   3.850   4.147
50186SOL     OW52454   6.616   9.508   9.182
50186SOL    HW152455   6.599   9.423   9.223
50186SOL    HW252456   6.624   9.488   9.088
50187SOL     OW52457   2.933   7.733   8.451
50187SOL    HW152458   3.023   7.742   8.420
50187SOL    HW252459   2.915   7.816   8.496
50188SOL     OW52460   2.845   8.208   4.076
50188SOL    HW152461   2.876   8.277   4.018
50188SOL    HW252462   2.774   8.165   4.028
50189SOL     OW52463   1.860   7.158   3.077
50189SOL    HW152464   1.861   7.130   2.986
50189SOL    HW252465   1.770   7.139   3.106
50190SOL     OW52466   1.630   3.490   3.276
50190SOL    HW152467   1.589   3.576   3.277
50190SOL    HW252468   1.701   3.497   3.340
50191SOL     OW52469   4.643   2.814   6.244
50191SOL    HW152470   4.669   2.877   6.177
50191SOL    HW252471   4.611   2.739   6.195
50192SOL     OW52472   0.032  12.145   5.697
50192SOL    HW152473   0.084  12.094   5.635
50192SOL    HW252474   0.062  12.114   5.783
50193SOL     OW52475   7.778   4.337   8.388
50193SOL    HW152476   7.863   4.333   8.432
50193SOL    HW252477   7.785   4.413   8.331
50194SOL     OW52478   2.704   0.430   7.633
50194SOL    HW152479   2.674   0.342   7.610
50194SOL    HW252480   2.643   0.489   7.587
50195SOL     OW52481   8.967   4.572   1.250
50195SOL    HW152482   9.010   4.533   1.174
50195SOL    HW252483   9.028   4.556   1.322
50196SOL     OW52484  14.284   2.477   4.477
50196SOL    HW152485  14.269   2.383   4.490
50196SOL    HW252486  14.350   2.482   4.409
50197SOL     OW52487  11.919   7.231   1.939
50197SOL    HW152488  11.972   7.227   1.860
50197SOL    HW252489  11.828   7.231   1.907
50198SOL     OW52490   3.738   2.456   3.210
50198SOL    HW152491   3.660   2.498   3.245
50198SOL    HW252492   3.748   2.492   3.122
50199SOL     OW52493  10.439   4.190  13.209
50199SOL    HW152494  10.512   4.228  13.258
50199SOL    HW252495  10.370   4.256  13.214
50200SOL     OW52496   3.641  14.142  11.600
50200SOL    HW152497   3.617  14.057  11.636
50200SOL    HW252498   3.715  14.124  11.542
50201SOL     OW52499   2.709   2.456   0.348
50201SOL    HW152500   2.742   2.490   0.265
50201SOL    HW252501   2.621   2.491   0.356
50202SOL     OW52502  13.268  12.352   0.662
50202SOL    HW152503  13.280  12.267   0.703
50202SOL    HW252504  13.357  12.382   0.643
50203SOL     OW52505  12.391   6.275  12.550
50203SOL    HW152506  12.343   6.197  12.522
50203SOL    HW252507  12.447   6.244  12.621
50204SOL     OW52508   1.133   4.138   8.241
50204SOL    HW152509   1.172   4.225   8.228
50204SOL    HW252510   1.207   4.080   8.255
50205SOL     OW52511   0.870  11.781   3.530
50205SOL    HW152512   0.912  11.816   3.452
50205SOL    HW252513   0.928  11.805   3.602
50206SOL     OW52514   6.026   9.425   6.654
50206SOL    HW152515   6.082   9.493   6.692
50206SOL    HW252516   5.960   9.408   6.720
50207SOL     OW52517   6.983   0.186   8.830
50207SOL    HW152518   7.050   0.233   8.780
50207SOL    HW252519   6.974   0.237   8.911
50208SOL     OW52520   5.205  12.755   6.482
50208SOL    HW152521   5.178  12.829   6.427
50208SOL    HW252522   5.232  12.688   6.420
50209SOL     OW52523   5.838   9.114   6.505
50209SOL    HW152524   5.868   9.085   6.591
50209SOL    HW252525   5.811   9.205   6.519
50210SOL     OW52526  10.956  14.689   3.747
50210SOL    HW152527  10.894  14.744   3.795
50210SOL    HW252528  10.914  14.673   3.662
50211SOL     OW52529  14.238  10.825  11.130
50211SOL    HW152530  14.247  10.757  11.197
50211SOL    HW252531  14.324  10.865  11.124
50212SOL     OW52532  14.192   4.989  11.450
50212SOL    HW152533  14.237   5.072  11.465
50212SOL    HW252534  14.158   4.964  11.537
50213SOL     OW52535  12.799   5.976  12.049
50213SOL    HW152536  12.838   6.062  12.039
50213SOL    HW252537  12.733   5.987  12.118
50214SOL     OW52538   5.354   6.511   7.626
50214SOL    HW152539   5.296   6.463   7.685
50214SOL    HW252540   5.429   6.534   7.679
50215SOL     OW52541  14.368  13.625   9.486
50215SOL    HW152542  14.395  13.604   9.575
50215SOL    HW252543  14.280  13.661   9.495
50216SOL     OW52544  10.111  11.228   7.242
50216SOL    HW152545  10.177  11.256   7.305
50216SOL    HW252546  10.146  11.147   7.205
50217SOL     OW52547   6.543   6.300   4.558
50217SOL    HW152548   6.575   6.389   4.544
50217SOL    HW252549   6.618   6.245   4.541
50218SOL     OW52550   6.012   2.083  14.389
50218SOL    HW152551   6.068   2.111  14.317
50218SOL    HW252552   6.052   2.003  14.422
50219SOL     OW52553   8.207   3.905  10.036
50219SOL    HW152554   8.162   3.952   9.966
50219SOL    HW252555   8.299   3.930  10.027
50220SOL     OW52556  10.211   5.049   7.139
50220SOL    HW152557  10.222   4.997   7.060
50220SOL    HW252558  10.117   5.061   7.148
50221SOL     OW52559   5.141  11.534   1.221
50221SOL    HW152560   5.186  11.460   1.180
50221SOL    HW252561   5.207  11.603   1.226
50222SOL     OW52562   0.450   0.104   7.711
50222SOL    HW152563   0.493   0.019   7.701
50222SOL    HW252564   0.390   0.092   7.785
50223SOL     OW52565   4.614   1.174  12.481
50223SOL    HW152566   4.666   1.094  12.469
50223SOL    HW252567   4.651   1.214  12.560
50224SOL     OW52568   5.206   8.406  10.501
50224SOL    HW152569   5.111   8.393  10.503
50224SOL    HW252570   5.231   8.419  10.592
50225SOL     OW52571  13.041   8.700  13.713
50225SOL    HW152572  13.115   8.733  13.661
50225SOL    HW252573  13.014   8.620  13.669
50226SOL     OW52574  10.469   0.041   8.861
50226SOL    HW152575  10.386   0.016   8.901
50226SOL    HW252576  10.520  14.833   8.859
50227SOL     OW52577   5.707   1.119   6.647
50227SOL    HW152578   5.667   1.108   6.560
50227SOL    HW252579   5.797   1.087   6.636
50228SOL     OW52580   1.846   2.283   6.624
50228SOL    HW152581   1.818   2.230   6.549
50228SOL    HW252582   1.827   2.229   6.700
50229SOL     OW52583   8.390  13.343   4.007
50229SOL    HW152584   8.386  13.332   4.102
50229SOL    HW252585   8.311  13.300   3.975
50230SOL     OW52586   4.294  11.947  13.047
50230SOL    HW152587   4.226  11.992  13.096
50230SOL    HW252588   4.375  11.970  13.092
50231SOL     OW52589   0.978  10.701   0.838
50231SOL    HW152590   1.054  10.758   0.825
50231SOL    HW252591   0.937  10.733   0.918
50232SOL     OW52592   5.571   7.065   3.186
50232SOL    HW152593   5.561   7.128   3.257
50232SOL    HW252594   5.563   7.116   3.106
50233SOL     OW52595  11.163   2.594  13.283
50233SOL    HW152596  11.093   2.536  13.312
50233SOL    HW252597  11.122   2.680  13.276
50234SOL     OW52598  11.379   2.137   8.327
50234SOL    HW152599  11.368   2.195   8.251
50234SOL    HW252600  11.297   2.089   8.334
50235SOL     OW52601  12.999   6.666   0.457
50235SOL    HW152602  13.089   6.667   0.492
50235SOL    HW252603  12.949   6.616   0.522
50236SOL     OW52604  12.858   1.602   3.980
50236SOL    HW152605  12.780   1.592   3.925
50236SOL    HW252606  12.829   1.575   4.068
50237SOL     OW52607  11.201  10.249  11.941
50237SOL    HW152608  11.226  10.157  11.932
50237SOL    HW252609  11.277  10.298  11.908
50238SOL     OW52610   2.673   1.519   6.044
50238SOL    HW152611   2.759   1.482   6.022
50238SOL    HW252612   2.682   1.545   6.136
50239SOL     OW52613  10.620  13.991   1.821
50239SOL    HW152614  10.680  13.965   1.891
50239SOL    HW252615  10.558  14.050   1.864
50240SOL     OW52616  14.664  13.124   4.306
50240SOL    HW152617  14.635  13.104   4.395
50240SOL    HW252618  14.646  13.217   4.295
50241SOL     OW52619   6.381   5.019   2.638
50241SOL    HW152620   6.381   4.925   2.656
50241SOL    HW252621   6.442   5.030   2.565
50242SOL     OW52622   9.712   5.561  14.175
50242SOL    HW152623   9.716   5.611  14.093
50242SOL    HW252624   9.776   5.491  14.163
50243SOL     OW52625  13.824  10.529   3.740
50243SOL    HW152626  13.796  10.575   3.818
50243SOL    HW252627  13.918  10.549   3.732
50244SOL     OW52628   5.733   6.401   4.169
50244SOL    HW152629   5.697   6.488   4.151
50244SOL    HW252630   5.791   6.383   4.096
50245SOL     OW52631   6.928   2.492   0.260
50245SOL    HW152632   6.917   2.456   0.172
50245SOL    HW252633   6.997   2.558   0.251
50246SOL     OW52634   3.596   0.807   2.905
50246SOL    HW152635   3.517   0.813   2.958
50246SOL    HW252636   3.668   0.805   2.968
50247SOL     OW52637   2.702   6.442  12.921
50247SOL    HW152638   2.740   6.527  12.941
50247SOL    HW252639   2.770   6.379  12.942
50248SOL     OW52640   5.135   9.625   2.536
50248SOL    HW152641   5.116   9.713   2.566
50248SOL    HW252642   5.231   9.623   2.526
50249SOL     OW52643   7.734   1.660  11.009
50249SOL    HW152644   7.695   1.638  11.093
50249SOL    HW252645   7.661   1.692  10.956
50250SOL     OW52646  11.973  11.427   5.191
50250SOL    HW152647  11.893  11.389   5.155
50250SOL    HW252648  11.971  11.519   5.164
50251SOL     OW52649  12.666   3.956  13.950
50251SOL    HW152650  12.616   3.880  13.921
50251SOL    HW252651  12.706   3.990  13.870
50252SOL     OW52652   4.527  10.360  11.793
50252SOL    HW152653   4.613  10.318  11.800
50252SOL    HW252654   4.490  10.353  11.881
50253SOL     OW52655   4.584   6.710   6.189
50253SOL    HW152656   4.505   6.692   6.241
50253SOL    HW252657   4.630   6.778   6.237
50254SOL     OW52658  11.106   2.890  11.340
50254SOL    HW152659  11.089   2.797  11.323
50254SOL    HW252660  11.149   2.921  11.260
50255SOL     OW52661   8.680   7.211  14.341
50255SOL    HW152662   8.686   7.305  14.355
50255SOL    HW252663   8.771   7.180  14.342
50256SOL     OW52664   4.577   8.474   2.994
50256SOL    HW152665   4.598   8.437   2.908
50256SOL    HW252666   4.658   8.517   3.022
50257SOL     OW52667   2.405  11.781  11.608
50257SOL    HW152668   2.342  11.778  11.537
50257SOL    HW252669   2.369  11.846  11.669
50258SOL     OW52670  14.280  12.634   0.056
50258SOL    HW152671  14.192  12.644   0.021
50258SOL    HW252672  14.332  12.698   0.008
50259SOL     OW52673   0.903   1.105   4.272
50259SOL    HW152674   0.907   1.180   4.331
50259SOL    HW252675   0.811   1.101   4.245
50260SOL     OW52676   5.963   5.864  13.390
50260SOL    HW152677   5.871   5.891  13.389
50260SOL    HW252678   5.993   5.885  13.479
50261SOL     OW52679  12.630  14.766   9.648
50261SOL    HW152680  12.723  14.771   9.628
50261SOL    HW252681  12.612  14.843   9.701
50262SOL     OW52682   3.966   3.892   2.104
50262SOL    HW152683   4.010   3.832   2.164
50262SOL    HW252684   3.887   3.920   2.150
50263SOL     OW52685   0.341   5.813   6.011
50263SOL    HW152686   0.308   5.723   6.014
50263SOL    HW252687   0.387   5.825   6.095
50264SOL     OW52688   5.448   7.502  10.081
50264SOL    HW152689   5.533   7.523  10.044
50264SOL    HW252690   5.441   7.407  10.075
50265SOL     OW52691  11.891   2.132   5.451
50265SOL    HW152692  11.826   2.104   5.516
50265SOL    HW252693  11.973   2.094   5.480
50266SOL     OW52694   5.055   9.455  12.322
50266SOL    HW152695   4.961   9.474  12.324
50266SOL    HW252696   5.078   9.458  12.230
50267SOL     OW52697   6.985   7.894   2.138
50267SOL    HW152698   6.939   7.877   2.055
50267SOL    HW252699   7.028   7.978   2.124
50268SOL     OW52700   8.209  13.730   4.267
50268SOL    HW152701   8.191  13.636   4.258
50268SOL    HW252702   8.163  13.755   4.347
50269SOL     OW52703   9.962  13.806   9.766
50269SOL    HW152704  10.040  13.761   9.734
50269SOL    HW252705   9.987  13.898   9.768
50270SOL     OW52706   0.886  10.695   0.191
50270SOL    HW152707   0.938  10.619   0.169
50270SOL    HW252708   0.942  10.770   0.170
50271SOL     OW52709   2.665   0.664   2.696
50271SOL    HW152710   2.724   0.640   2.768
50271SOL    HW252711   2.724   0.689   2.624
50272SOL     OW52712   9.349  12.608   6.391
50272SOL    HW152713   9.382  12.660   6.465
50272SOL    HW252714   9.427  12.564   6.356
50273SOL     OW52715  11.915   2.580   1.321
50273SOL    HW152716  11.853   2.633   1.271
50273SOL    HW252717  11.995   2.632   1.323
50274SOL     OW52718   2.851   9.511   0.374
50274SOL    HW152719   2.905   9.512   0.453
50274SOL    HW252720   2.905   9.468   0.308
50275SOL     OW52721   6.284   4.079  12.363
50275SOL    HW152722   6.352   4.101  12.299
50275SOL    HW252723   6.329   4.080  12.447
50276SOL     OW52724  12.185  10.637   7.208
50276SOL    HW152725  12.181  10.593   7.292
50276SOL    HW252726  12.269  10.683   7.208
50277SOL     OW52727   9.972   9.116   3.546
50277SOL    HW152728  10.005   9.062   3.474
50277SOL    HW252729   9.877   9.111   3.538
50278SOL     OW52730   2.862  10.930   8.780
50278SOL    HW152731   2.951  10.897   8.791
50278SOL    HW252732   2.811  10.885   8.847
50279SOL     OW52733  10.644  13.537   4.857
50279SOL    HW152734  10.658  13.479   4.782
50279SOL    HW252735  10.658  13.481   4.934
50280SOL     OW52736   6.337   0.237   3.178
50280SOL    HW152737   6.369   0.229   3.268
50280SOL    HW252738   6.333   0.332   3.163
50281SOL     OW52739  13.897  11.649   5.020
50281SOL    HW152740  13.874  11.562   4.989
50281SOL    HW252741  13.886  11.706   4.944
50282SOL     OW52742  14.624   0.964   7.042
50282SOL    HW152743  14.695   0.899   7.035
50282SOL    HW252744  14.551   0.916   7.081
50283SOL     OW52745  11.680   0.633  10.772
50283SOL    HW152746  11.612   0.568  10.790
50283SOL    HW252747  11.661   0.665  10.684
50284SOL     OW52748   8.012  14.449  12.220
50284SOL    HW152749   8.102  14.439  12.251
50284SOL    HW252750   8.021  14.483  12.131
50285SOL     OW52751   2.168   3.801  12.445
50285SOL    HW152752   2.073   3.807  12.459
50285SOL    HW252753   2.177   3.767  12.356
50286SOL     OW52754   6.415   4.784  14.460
50286SOL    HW152755   6.361   4.863  14.456
50286SOL    HW252756   6.499   4.810  14.421
50287SOL     OW52757   9.509   3.185  12.729
50287SOL    HW152758   9.497   3.091  12.746
50287SOL    HW252759   9.574   3.213  12.793
50288SOL     OW52760   9.333   0.630   5.324
50288SOL    HW152761   9.349   0.541   5.292
50288SOL    HW252762   9.339   0.624   5.419
50289SOL     OW52763   1.651   4.035  14.511
50289SOL    HW152764   1.689   4.097  14.573
50289SOL    HW252765   1.593   3.980  14.564
50290SOL     OW52766  12.931  12.961   3.561
50290SOL    HW152767  12.989  12.889   3.537
50290SOL    HW252768  12.849  12.942   3.515
50291SOL     OW52769  13.031   9.924  10.478
50291SOL    HW152770  13.055   9.841  10.436
50291SOL    HW252771  12.945   9.906  10.517
50292SOL     OW52772   9.705   8.565  10.799
50292SOL    HW152773   9.795   8.599  10.802
50292SOL    HW252774   9.714   8.475  10.768
50293SOL     OW52775   9.979  12.384   9.284
50293SOL    HW152776   9.893  12.343   9.278
50293SOL    HW252777   9.969  12.452   9.351
50294SOL     OW52778   3.549  11.413   6.338
50294SOL    HW152779   3.461  11.413   6.299
50294SOL    HW252780   3.608  11.400   6.264
50295SOL     OW52781   8.584   6.132   7.154
50295SOL    HW152782   8.578   6.220   7.118
50295SOL    HW252783   8.671   6.127   7.194
50296SOL     OW52784   1.364  14.211   3.356
50296SOL    HW152785   1.299  14.140   3.359
50296SOL    HW252786   1.325  14.276   3.298
50297SOL     OW52787  12.602   1.262   0.862
50297SOL    HW152788  12.621   1.172   0.837
50297SOL    HW252789  12.514   1.258   0.900
50298SOL     OW52790   5.774   1.765   4.608
50298SOL    HW152791   5.689   1.744   4.647
50298SOL    HW252792   5.768   1.735   4.518
50299SOL     OW52793   2.621  14.785  11.044
50299SOL    HW152794   2.571  14.833  10.978
50299SOL    HW252795   2.561  14.718  11.075
50300SOL     OW52796   7.140  13.920   3.723
50300SOL    HW152797   7.078  13.970   3.670
50300SOL    HW252798   7.119  13.828   3.703
50301SOL     OW52799   3.140   1.160   4.307
50301SOL    HW152800   3.072   1.194   4.248
50301SOL    HW252801   3.196   1.236   4.323
50302SOL     OW52802   6.736   2.921   0.490
50302SOL    HW152803   6.675   2.994   0.499
50302SOL    HW252804   6.787   2.942   0.412
50303SOL     OW52805  13.182   6.932  14.249
50303SOL    HW152806  13.087   6.947  14.253
50303SOL    HW252807  13.191   6.836  14.246
50304SOL     OW52808   7.664  11.109   1.714
50304SOL    HW152809   7.701  11.081   1.798
50304SOL    HW252810   7.740  11.135   1.662
50305SOL     OW52811   6.242   8.162  12.368
50305SOL    HW152812   6.277   8.076  12.344
50305SOL    HW252813   6.300   8.225  12.326
50306SOL     OW52814   9.948  10.965  13.774
50306SOL    HW152815   9.866  10.970  13.822
50306SOL    HW252816  10.000  11.038  13.808
50307SOL     OW52817   1.827   3.770  11.583
50307SOL    HW152818   1.852   3.829  11.512
50307SOL    HW252819   1.775   3.702  11.541
50308SOL     OW52820   6.091   0.903   5.683
50308SOL    HW152821   5.999   0.879   5.697
50308SOL    HW252822   6.098   0.992   5.717
50309SOL     OW52823  10.389   3.540   2.759
50309SOL    HW152824  10.348   3.479   2.697
50309SOL    HW252825  10.453   3.587   2.706
50310SOL     OW52826  14.387  10.631   8.011
50310SOL    HW152827  14.364  10.557   8.068
50310SOL    HW252828  14.415  10.591   7.929
50311SOL     OW52829   3.547   3.339   3.830
50311SOL    HW152830   3.600   3.417   3.812
50311SOL    HW252831   3.495   3.326   3.751
50312SOL     OW52832   5.406   2.881   4.838
50312SOL    HW152833   5.364   2.963   4.815
50312SOL    HW252834   5.334   2.819   4.848
50313SOL     OW52835  14.668  12.331   2.109
50313SOL    HW152836  14.706  12.266   2.169
50313SOL    HW252837  14.681  12.415   2.153
50314SOL     OW52838   4.120   8.384   3.370
50314SOL    HW152839   4.176   8.367   3.294
50314SOL    HW252840   4.166   8.451   3.420
50315SOL     OW52841   0.892   8.841   7.188
50315SOL    HW152842   0.825   8.851   7.121
50315SOL    HW252843   0.855   8.778   7.250
50316SOL     OW52844   2.050  14.547   0.811
50316SOL    HW152845   2.136  14.589   0.814
50316SOL    HW252846   2.040  14.519   0.720
50317SOL     OW52847   8.322   9.822   0.635
50317SOL    HW152848   8.358   9.756   0.694
50317SOL    HW252849   8.258   9.870   0.688
50318SOL     OW52850   4.584   8.973  14.179
50318SOL    HW152851   4.677   8.953  14.175
50318SOL    HW252852   4.576   9.036  14.252
50319SOL     OW52853  11.647  13.051   7.087
50319SOL    HW152854  11.689  13.103   7.019
50319SOL    HW252855  11.708  13.055   7.161
50320SOL     OW52856  11.151  12.226   3.605
50320SOL    HW152857  11.131  12.306   3.556
50320SOL    HW252858  11.227  12.249   3.659
50321SOL     OW52859   6.778  10.866   2.123
50321SOL    HW152860   6.789  10.840   2.031
50321SOL    HW252861   6.751  10.786   2.168
50322SOL     OW52862   6.656   5.468  14.472
50322SOL    HW152863   6.671   5.561  14.454
50322SOL    HW252864   6.647   5.428  14.385
50323SOL     OW52865   9.042   3.813   1.398
50323SOL    HW152866   9.100   3.816   1.322
50323SOL    HW252867   8.990   3.894   1.391
50324SOL     OW52868  13.673  12.752  14.293
50324SOL    HW152869  13.721  12.702  14.227
50324SOL    HW252870  13.643  12.686  14.356
50325SOL     OW52871   4.061  13.828   2.174
50325SOL    HW152872   4.089  13.822   2.082
50325SOL    HW252873   3.985  13.770   2.180
50326SOL     OW52874   9.044  13.496  14.791
50326SOL    HW152875   9.123  13.481  14.842
50326SOL    HW252876   8.976  13.446  14.836
50327SOL     OW52877   7.486   6.426   7.983
50327SOL    HW152878   7.463   6.333   7.984
50327SOL    HW252879   7.511   6.443   7.892
50328SOL     OW52880   4.548   8.199   3.398
50328SOL    HW152881   4.479   8.159   3.344
50328SOL    HW252882   4.547   8.291   3.372
50329SOL     OW52883   2.568   4.068  11.335
50329SOL    HW152884   2.636   4.116  11.288
50329SOL    HW252885   2.590   4.079  11.427
50330SOL     OW52886   3.089  14.390   2.250
50330SOL    HW152887   3.154  14.327   2.219
50330SOL    HW252888   3.135  14.474   2.246
50331SOL     OW52889   5.465   8.357   9.606
50331SOL    HW152890   5.441   8.281   9.554
50331SOL    HW252891   5.437   8.432   9.554
50332SOL     OW52892  12.748  12.246   4.731
50332SOL    HW152893  12.749  12.240   4.826
50332SOL    HW252894  12.655  12.236   4.708
50333SOL     OW52895   0.597  12.435   2.298
50333SOL    HW152896   0.665  12.474   2.352
50333SOL    HW252897   0.622  12.343   2.290
50334SOL     OW52898  12.201  11.330   3.953
50334SOL    HW152899  12.177  11.239   3.940
50334SOL    HW252900  12.171  11.375   3.874
50335SOL     OW52901   0.939   6.432  10.799
50335SOL    HW152902   0.990   6.351  10.791
50335SOL    HW252903   0.853   6.411  10.762
50336SOL     OW52904   5.003   4.281  10.472
50336SOL    HW152905   5.016   4.190  10.499
50336SOL    HW252906   5.091   4.319  10.473
50337SOL     OW52907  14.866   0.913   9.873
50337SOL    HW152908  14.797   0.868   9.825
50337SOL    HW252909   0.037   0.967   9.807
50338SOL     OW52910  14.467   3.660  12.042
50338SOL    HW152911  14.437   3.670  11.952
50338SOL    HW252912  14.388   3.663  12.095
50339SOL     OW52913   1.055   3.180   0.998
50339SOL    HW152914   1.119   3.140   1.057
50339SOL    HW252915   1.040   3.267   1.035
50340SOL     OW52916   9.597   4.112   9.262
50340SOL    HW152917   9.667   4.177   9.267
50340SOL    HW252918   9.642   4.028   9.249
50341SOL     OW52919  11.687   4.992   3.997
50341SOL    HW152920  11.781   4.980   3.983
50341SOL    HW252921  11.680   5.017   4.089
50342SOL     OW52922   5.395   6.149   3.433
50342SOL    HW152923   5.406   6.159   3.339
50342SOL    HW252924   5.311   6.103   3.443
50343SOL     OW52925   8.888   5.351   2.990
50343SOL    HW152926   8.932   5.419   3.041
50343SOL    HW252927   8.838   5.399   2.924
50344SOL     OW52928  10.646   4.848   2.727
50344SOL    HW152929  10.599   4.825   2.647
50344SOL    HW252930  10.695   4.927   2.705
50345SOL     OW52931  14.261  13.726   7.956
50345SOL    HW152932  14.243  13.654   7.895
50345SOL    HW252933  14.270  13.683   8.041
50346SOL     OW52934   0.932   8.123  12.757
50346SOL    HW152935   0.930   8.218  12.752
50346SOL    HW252936   0.959   8.104  12.847
50347SOL     OW52937   6.921   9.644  14.722
50347SOL    HW152938   6.909   9.679  14.633
50347SOL    HW252939   7.015   9.649  14.737
50348SOL     OW52940   7.803  11.646   9.067
50348SOL    HW152941   7.711  11.621   9.058
50348SOL    HW252942   7.801  11.741   9.080
50349SOL     OW52943   4.628   3.253   4.602
50349SOL    HW152944   4.691   3.324   4.585
50349SOL    HW252945   4.549   3.280   4.556
50350SOL     OW52946   1.225   9.330   2.934
50350SOL    HW152947   1.242   9.329   3.028
50350SOL    HW252948   1.302   9.372   2.896
50351SOL     OW52949   4.948  13.500  13.602
50351SOL    HW152950   4.971  13.444  13.676
50351SOL    HW252951   5.024  13.557  13.590
50352SOL     OW52952   7.225   0.700   4.946
50352SOL    HW152953   7.136   0.689   4.980
50352SOL    HW252954   7.213   0.743   4.862
50353SOL     OW52955   4.189   1.140   5.829
50353SOL    HW152956   4.215   1.231   5.811
50353SOL    HW252957   4.209   1.093   5.748
50354SOL     OW52958   7.127  12.455   9.982
50354SOL    HW152959   7.156  12.386  10.042
50354SOL    HW252960   7.134  12.536  10.033
50355SOL     OW52961   4.413  12.072  14.135
50355SOL    HW152962   4.364  12.144  14.176
50355SOL    HW252963   4.488  12.114  14.093
50356SOL     OW52964  12.810  11.693   4.712
50356SOL    HW152965  12.873  11.744   4.662
50356SOL    HW252966  12.861  11.625   4.755
50357SOL     OW52967  14.411  14.112   4.069
50357SOL    HW152968  14.471  14.049   4.107
50357SOL    HW252969  14.411  14.186   4.130
50358SOL     OW52970  13.499   6.629   9.037
50358SOL    HW152971  13.431   6.693   9.014
50358SOL    HW252972  13.459   6.577   9.107
50359SOL     OW52973  12.973  11.801   1.030
50359SOL    HW152974  13.008  11.712   1.045
50359SOL    HW252975  13.013  11.829   0.948
50360SOL     OW52976  10.453   4.511  12.119
50360SOL    HW152977  10.443   4.555  12.204
50360SOL    HW252978  10.467   4.419  12.141
50361SOL     OW52979   2.671   2.763   3.138
50361SOL    HW152980   2.608   2.735   3.205
50361SOL    HW252981   2.735   2.816   3.185
50362SOL     OW52982   6.228   3.544   6.900
50362SOL    HW152983   6.224   3.524   6.806
50362SOL    HW252984   6.321   3.533   6.922
50363SOL     OW52985   2.204  14.325   2.705
50363SOL    HW152986   2.279  14.287   2.659
50363SOL    HW252987   2.170  14.253   2.758
50364SOL     OW52988  10.582  11.842   4.122
50364SOL    HW152989  10.581  11.746   4.125
50364SOL    HW252990  10.658  11.867   4.174
50365SOL     OW52991   3.583  11.702   3.421
50365SOL    HW152992   3.498  11.740   3.441
50365SOL    HW252993   3.563  11.618   3.379
50366SOL     OW52994   6.368   1.549  14.555
50366SOL    HW152995   6.386   1.525  14.464
50366SOL    HW252996   6.274   1.536  14.565
50367SOL     OW52997   8.857   7.029   8.201
50367SOL    HW152998   8.920   6.980   8.254
50367SOL    HW252999   8.784   6.969   8.188
50368SOL     OW53000  12.429   1.994   0.326
50368SOL    HW153001  12.421   1.947   0.409
50368SOL    HW253002  12.358   2.059   0.329
50369SOL     OW53003   1.334   1.959   8.302
50369SOL    HW153004   1.265   2.015   8.338
50369SOL    HW253005   1.289   1.903   8.239
50370SOL     OW53006  12.803   4.062  12.379
50370SOL    HW153007  12.766   3.980  12.412
50370SOL    HW253008  12.897   4.053  12.392
50371SOL     OW53009   7.677  14.290   2.962
50371SOL    HW153010   7.705  14.314   3.050
50371SOL    HW253011   7.758  14.265   2.918
50372SOL     OW53012  14.549   8.117   8.263
50372SOL    HW153013  14.559   8.172   8.186
50372SOL    HW253014  14.636   8.116   8.304
50373SOL     OW53015   6.155   3.223   4.656
50373SOL    HW153016   6.090   3.153   4.663
50373SOL    HW253017   6.144   3.257   4.567
50374SOL     OW53018  12.114   7.820   0.515
50374SOL    HW153019  12.199   7.805   0.474
50374SOL    HW253020  12.051   7.795   0.448
50375SOL     OW53021  10.232  12.801   8.025
50375SOL    HW153022  10.169  12.867   8.054
50375SOL    HW253023  10.311  12.851   8.004
50376SOL     OW53024  10.551  11.347  10.424
50376SOL    HW153025  10.470  11.345  10.373
50376SOL    HW253026  10.523  11.369  10.512
50377SOL     OW53027   7.401   3.482   6.909
50377SOL    HW153028   7.319   3.461   6.866
50377SOL    HW253029   7.432   3.562   6.865
50378SOL     OW53030  12.618   9.986   0.412
50378SOL    HW153031  12.611   9.899   0.373
50378SOL    HW253032  12.653   9.971   0.500
50379SOL     OW53033   0.820   2.535   9.130
50379SOL    HW153034   0.766   2.614   9.123
50379SOL    HW253035   0.757   2.466   9.151
50380SOL     OW53036  14.072  14.779  10.016
50380SOL    HW153037  14.147  14.743   9.968
50380SOL    HW253038  14.055  14.715  10.086
50381SOL     OW53039   8.950  12.454  13.624
50381SOL    HW153040   8.920  12.444  13.714
50381SOL    HW253041   8.984  12.368  13.600
50382SOL     OW53042   2.318  14.407  12.707
50382SOL    HW153043   2.294  14.477  12.647
50382SOL    HW253044   2.234  14.373  12.739
50383SOL     OW53045  10.071   9.137  12.552
50383SOL    HW153046  10.161   9.114  12.529
50383SOL    HW253047  10.068   9.233  12.543
50384SOL     OW53048   0.898   5.451  14.082
50384SOL    HW153049   0.828   5.516  14.078
50384SOL    HW253050   0.962   5.481  14.018
50385SOL     OW53051  13.213  14.625   9.085
50385SOL    HW153052  13.210  14.720   9.092
50385SOL    HW253053  13.306  14.605   9.072
50386SOL     OW53054   5.978   2.496  11.705
50386SOL    HW153055   6.068   2.492  11.673
50386SOL    HW253056   5.986   2.512  11.799
50387SOL     OW53057   7.106   8.505  11.012
50387SOL    HW153058   7.086   8.466  11.098
50387SOL    HW253059   7.078   8.439  10.949
50388SOL     OW53060   4.077  10.329   7.107
50388SOL    HW153061   4.108  10.343   7.018
50388SOL    HW253062   4.033  10.410   7.130
50389SOL     OW53063  12.833  13.731   0.729
50389SOL    HW153064  12.838  13.817   0.687
50389SOL    HW253065  12.908  13.683   0.694
50390SOL     OW53066  12.382   6.585  12.385
50390SOL    HW153067  12.378   6.593  12.290
50390SOL    HW253068  12.300   6.542  12.410
50391SOL     OW53069   5.497  14.776  14.216
50391SOL    HW153070   5.488  14.770  14.121
50391SOL    HW253071   5.408  14.791  14.248
50392SOL     OW53072   3.093   6.836   3.130
50392SOL    HW153073   3.061   6.841   3.040
50392SOL    HW253074   3.016   6.852   3.184
50393SOL     OW53075   4.927   8.526  12.906
50393SOL    HW153076   5.006   8.473  12.914
50393SOL    HW253077   4.856   8.468  12.934
50394SOL     OW53078   2.744   7.207   5.801
50394SOL    HW153079   2.693   7.179   5.877
50394SOL    HW253080   2.832   7.223   5.835
50395SOL     OW53081  13.531   2.887   7.777
50395SOL    HW153082  13.435   2.891   7.770
50395SOL    HW253083  13.556   2.815   7.719
50396SOL     OW53084   9.643   9.292   1.380
50396SOL    HW153085   9.597   9.343   1.313
50396SOL    HW253086   9.729   9.333   1.386
50397SOL     OW53087   3.980  14.178   0.094
50397SOL    HW153088   3.948  14.225   0.017
50397SOL    HW253089   3.911  14.114   0.114
50398SOL     OW53090   2.555  14.293  10.911
50398SOL    HW153091   2.598  14.338  10.838
50398SOL    HW253092   2.485  14.352  10.938
50399SOL     OW53093  14.236  11.100   5.965
50399SOL    HW153094  14.307  11.062   6.017
50399SOL    HW253095  14.243  11.194   5.980
50400SOL     OW53096   6.639   9.936   8.212
50400SOL    HW153097   6.605   9.846   8.207
50400SOL    HW253098   6.734   9.924   8.219
50401SOL     OW53099  14.481  12.721  14.397
50401SOL    HW153100  14.501  12.636  14.357
50401SOL    HW253101  14.434  12.769  14.330
50402SOL     OW53102  13.474   8.539   6.990
50402SOL    HW153103  13.499   8.522   7.081
50402SOL    HW253104  13.504   8.628   6.973
50403SOL     OW53105  11.056  14.102   9.176
50403SOL    HW153106  11.087  14.157   9.249
50403SOL    HW253107  11.072  14.012   9.204
50404SOL     OW53108   0.137  11.051   5.951
50404SOL    HW153109   0.056  11.014   5.914
50404SOL    HW253110   0.143  11.010   6.038
50405SOL     OW53111  11.405   0.552   7.045
50405SOL    HW153112  11.491   0.575   7.080
50405SOL    HW253113  11.354   0.526   7.122
50406SOL     OW53114   0.628   2.260   6.762
50406SOL    HW153115   0.618   2.317   6.838
50406SOL    HW253116   0.584   2.179   6.787
50407SOL     OW53117   5.182  12.802   5.574
50407SOL    HW153118   5.240  12.778   5.647
50407SOL    HW253119   5.200  12.737   5.507
50408SOL     OW53120  10.745   3.431  11.754
50408SOL    HW153121  10.669   3.479  11.789
50408SOL    HW253122  10.801   3.499  11.717
50409SOL     OW53123   9.270   6.150  10.666
50409SOL    HW153124   9.204   6.193  10.721
50409SOL    HW253125   9.353   6.169  10.710
50410SOL     OW53126  10.651   8.772   3.066
50410SOL    HW153127  10.574   8.716   3.055
50410SOL    HW253128  10.704   8.728   3.132
50411SOL     OW53129   7.981   1.912   3.478
50411SOL    HW153130   7.936   1.956   3.551
50411SOL    HW253131   8.053   1.865   3.520
50412SOL     OW53132   1.758   5.052   1.798
50412SOL    HW153133   1.665   5.031   1.801
50412SOL    HW253134   1.778   5.084   1.886
50413SOL     OW53135  10.409   8.634   8.675
50413SOL    HW153136  10.358   8.598   8.747
50413SOL    HW253137  10.425   8.725   8.699
50414SOL     OW53138   1.971  14.095  14.617
50414SOL    HW153139   1.972  14.186  14.587
50414SOL    HW253140   1.979  14.043  14.536
50415SOL     OW53141   1.870   8.048   0.108
50415SOL    HW153142   1.953   8.001   0.094
50415SOL    HW253143   1.893   8.140   0.101
50416SOL     OW53144   8.329   9.037  10.510
50416SOL    HW153145   8.386   9.099  10.464
50416SOL    HW253146   8.247   9.039  10.461
50417SOL     OW53147   2.111   6.919   5.126
50417SOL    HW153148   2.148   6.845   5.078
50417SOL    HW253149   2.065   6.970   5.059
50418SOL     OW53150   5.570   8.289   4.287
50418SOL    HW153151   5.602   8.343   4.214
50418SOL    HW253152   5.646   8.279   4.344
50419SOL     OW53153   2.589  13.137   0.376
50419SOL    HW153154   2.520  13.202   0.357
50419SOL    HW253155   2.669  13.177   0.343
50420SOL     OW53156   3.341   1.321   4.386
50420SOL    HW153157   3.313   1.400   4.341
50420SOL    HW253158   3.368   1.351   4.474
50421SOL     OW53159   6.861   1.355  10.180
50421SOL    HW153160   6.848   1.415  10.254
50421SOL    HW253161   6.797   1.285  10.195
50422SOL     OW53162   4.809   7.611   7.148
50422SOL    HW153163   4.881   7.576   7.096
50422SOL    HW253164   4.729   7.580   7.104
50423SOL     OW53165   1.854   9.407   8.134
50423SOL    HW153166   1.767   9.368   8.130
50423SOL    HW253167   1.914   9.337   8.109
50424SOL     OW53168   2.154  14.543   1.084
50424SOL    HW153169   2.141  14.566   0.992
50424SOL    HW253170   2.209  14.612   1.119
50425SOL     OW53171  12.081   5.434  10.454
50425SOL    HW153172  12.035   5.510  10.418
50425SOL    HW253173  12.064   5.364  10.391
50426SOL     OW53174   3.525   9.796  10.620
50426SOL    HW153175   3.506   9.703  10.630
50426SOL    HW253176   3.438   9.838  10.620
50427SOL     OW53177   3.394   1.445   5.838
50427SOL    HW153178   3.395   1.349   5.830
50427SOL    HW253179   3.428   1.462   5.926
50428SOL     OW53180   1.780   5.852  14.332
50428SOL    HW153181   1.705   5.904  14.361
50428SOL    HW253182   1.839   5.915  14.291
50429SOL     OW53183   2.659   2.512  11.484
50429SOL    HW153184   2.736   2.463  11.454
50429SOL    HW253185   2.589   2.446  11.487
50430SOL     OW53186  12.828  12.340   1.022
50430SOL    HW153187  12.885  12.384   0.959
50430SOL    HW253188  12.830  12.248   0.996
50431SOL     OW53189   7.485   6.194   1.929
50431SOL    HW153190   7.532   6.159   2.004
50431SOL    HW253191   7.393   6.192   1.956
50432SOL     OW53192   6.142   3.567   6.303
50432SOL    HW153193   6.231   3.570   6.267
50432SOL    HW253194   6.141   3.490   6.359
50433SOL     OW53195  13.524  14.744   8.879
50433SOL    HW153196  13.501  14.808   8.811
50433SOL    HW253197  13.590  14.788   8.932
50434SOL     OW53198   8.192   2.068   1.238
50434SOL    HW153199   8.287   2.066   1.247
50434SOL    HW253200   8.164   2.136   1.300
50435SOL     OW53201   9.870   9.400   2.304
50435SOL    HW153202   9.954   9.357   2.292
50435SOL    HW253203   9.863   9.413   2.399
50436SOL     OW53204   5.219   0.762   2.878
50436SOL    HW153205   5.207   0.820   2.803
50436SOL    HW253206   5.260   0.816   2.945
50437SOL     OW53207   9.292   9.382  14.263
50437SOL    HW153208   9.276   9.421  14.349
50437SOL    HW253209   9.376   9.338  14.272
50438SOL     OW53210   7.116   9.011  14.813
50438SOL    HW153211   7.146   8.983   0.028
50438SOL    HW253212   7.157   8.948  14.753
50439SOL     OW53213   7.032  10.578   2.658
50439SOL    HW153214   7.017  10.526   2.579
50439SOL    HW253215   7.074  10.516   2.719
50440SOL     OW53216   5.440   9.587   5.233
50440SOL    HW153217   5.462   9.679   5.224
50440SOL    HW253218   5.485   9.559   5.313
50441SOL     OW53219   6.482  13.601   2.103
50441SOL    HW153220   6.488  13.697   2.096
50441SOL    HW253221   6.550  13.578   2.166
50442SOL     OW53222   8.192  13.633   8.516
50442SOL    HW153223   8.108  13.588   8.525
50442SOL    HW253224   8.195  13.692   8.592
50443SOL     OW53225  12.733   6.309   7.304
50443SOL    HW153226  12.652   6.359   7.298
50443SOL    HW253227  12.794   6.355   7.246
50444SOL     OW53228   4.230  13.492   4.662
50444SOL    HW153229   4.174  13.566   4.687
50444SOL    HW253230   4.319  13.524   4.678
50445SOL     OW53231   2.466  10.534   3.106
50445SOL    HW153232   2.471  10.528   3.011
50445SOL    HW253233   2.517  10.613   3.128
50446SOL     OW53234   4.581  12.525   3.327
50446SOL    HW153235   4.615  12.462   3.391
50446SOL    HW253236   4.615  12.609   3.356
50447SOL     OW53237  11.730  13.447   6.391
50447SOL    HW153238  11.642  13.483   6.406
50447SOL    HW253239  11.754  13.409   6.476
50448SOL     OW53240  14.564   2.701   6.107
50448SOL    HW153241  14.649   2.669   6.138
50448SOL    HW253242  14.549   2.780   6.158
50449SOL     OW53243   9.424   4.064  12.372
50449SOL    HW153244   9.503   4.091  12.325
50449SOL    HW253245   9.432   4.105  12.458
50450SOL     OW53246  10.686   8.065   7.225
50450SOL    HW153247  10.613   8.022   7.270
50450SOL    HW253248  10.748   8.087   7.295
50451SOL     OW53249   4.949  13.253   4.566
50451SOL    HW153250   5.037  13.248   4.604
50451SOL    HW253251   4.913  13.165   4.574
50452SOL     OW53252   9.891  13.362  13.093
50452SOL    HW153253   9.886  13.413  13.174
50452SOL    HW253254   9.802  13.365  13.057
50453SOL     OW53255   4.865   0.282   7.864
50453SOL    HW153256   4.840   0.368   7.831
50453SOL    HW253257   4.960   0.286   7.873
50454SOL     OW53258  11.048   0.562   5.405
50454SOL    HW153259  11.094   0.545   5.323
50454SOL    HW253260  11.095   0.510   5.471
50455SOL     OW53261   5.537   8.789  10.646
50455SOL    HW153262   5.488   8.793  10.564
50455SOL    HW253263   5.591   8.710  10.638
50456SOL     OW53264   8.763   3.212  14.647
50456SOL    HW153265   8.701   3.215  14.573
50456SOL    HW253266   8.739   3.132  14.694
50457SOL     OW53267   8.538  13.072   7.099
50457SOL    HW153268   8.556  13.145   7.041
50457SOL    HW253269   8.624  13.037   7.121
50458SOL     OW53270   3.743  11.647   3.850
50458SOL    HW153271   3.684  11.589   3.898
50458SOL    HW253272   3.815  11.664   3.910
50459SOL     OW53273  14.164   0.551  12.923
50459SOL    HW153274  14.205   0.637  12.917
50459SOL    HW253275  14.183   0.521  13.012
50460SOL     OW53276   1.733   2.223  10.691
50460SOL    HW153277   1.741   2.270  10.608
50460SOL    HW253278   1.648   2.249  10.725
50461SOL     OW53279   6.983  12.253  11.121
50461SOL    HW153280   7.067  12.289  11.094
50461SOL    HW253281   6.928  12.259  11.043
50462SOL     OW53282   3.182   3.705   9.258
50462SOL    HW153283   3.240   3.628   9.250
50462SOL    HW253284   3.228   3.762   9.320
50463SOL     OW53285  13.253  11.830  13.661
50463SOL    HW153286  13.323  11.810  13.598
50463SOL    HW253287  13.181  11.862  13.607
50464SOL     OW53288  13.512  14.214   5.396
50464SOL    HW153289  13.607  14.204   5.405
50464SOL    HW253290  13.492  14.175   5.311
50465SOL     OW53291   1.957   9.689   9.988
50465SOL    HW153292   1.999   9.774   9.976
50465SOL    HW253293   1.865   9.704   9.971
50466SOL     OW53294  13.952   1.377   9.660
50466SOL    HW153295  14.029   1.382   9.604
50466SOL    HW253296  13.987   1.358   9.747
50467SOL     OW53297   8.564   9.535   0.707
50467SOL    HW153298   8.569   9.567   0.617
50467SOL    HW253299   8.510   9.457   0.703
50468SOL     OW53300  11.281  10.078   0.079
50468SOL    HW153301  11.312  10.160   0.116
50468SOL    HW253302  11.185  10.082   0.086
50469SOL     OW53303  13.939   5.137  13.428
50469SOL    HW153304  13.915   5.045  13.420
50469SOL    HW253305  13.868   5.185  13.387
50470SOL     OW53306   0.052  12.579   6.273
50470SOL    HW153307   0.071  12.672   6.262
50470SOL    HW253308   0.132  12.535   6.243
50471SOL     OW53309  13.906   4.363   3.996
50471SOL    HW153310  13.944   4.411   4.070
50471SOL    HW253311  13.962   4.286   3.986
50472SOL     OW53312   6.753   1.184  14.506
50472SOL    HW153313   6.841   1.222  14.504
50472SOL    HW253314   6.767   1.090  14.490
50473SOL     OW53315   8.721   2.563   6.416
50473SOL    HW153316   8.708   2.613   6.336
50473SOL    HW253317   8.807   2.522   6.405
50474SOL     OW53318  13.960   3.905  10.424
50474SOL    HW153319  13.960   3.810  10.431
50474SOL    HW253320  13.876   3.926  10.382
50475SOL     OW53321  13.886  13.156   6.445
50475SOL    HW153322  13.957  13.104   6.406
50475SOL    HW253323  13.927  13.241   6.463
50476SOL     OW53324  13.218  11.080   8.602
50476SOL    HW153325  13.279  11.009   8.624
50476SOL    HW253326  13.263  11.129   8.533
50477SOL     OW53327  10.591   3.976   7.414
50477SOL    HW153328  10.563   3.887   7.394
50477SOL    HW253329  10.529   4.032   7.367
50478SOL     OW53330   2.247  12.915  13.271
50478SOL    HW153331   2.280  12.834  13.232
50478SOL    HW253332   2.155  12.896  13.292
50479SOL     OW53333  13.613   3.932   8.265
50479SOL    HW153334  13.552   3.869   8.303
50479SOL    HW253335  13.585   3.940   8.173
50480SOL     OW53336  11.974   8.087   0.097
50480SOL    HW153337  11.948   8.139   0.173
50480SOL    HW253338  11.975   7.997   0.129
50481SOL     OW53339   0.393   6.778   1.760
50481SOL    HW153340   0.424   6.718   1.692
50481SOL    HW253341   0.468   6.789   1.818
50482SOL     OW53342   2.798   3.426   2.489
50482SOL    HW153343   2.766   3.513   2.464
50482SOL    HW253344   2.783   3.422   2.584
50483SOL     OW53345   2.658   7.359   7.513
50483SOL    HW153346   2.743   7.316   7.508
50483SOL    HW253347   2.595   7.290   7.492
50484SOL     OW53348   3.830   7.110   3.475
50484SOL    HW153349   3.924   7.097   3.488
50484SOL    HW253350   3.824   7.186   3.417
50485SOL     OW53351  13.029   3.433  12.050
50485SOL    HW153352  12.946   3.462  12.089
50485SOL    HW253353  13.004   3.367  11.986
50486SOL     OW53354  12.687   9.912   1.867
50486SOL    HW153355  12.631   9.976   1.911
50486SOL    HW253356  12.639   9.829   1.873
50487SOL     OW53357   2.225  13.928  12.176
50487SOL    HW153358   2.220  14.015  12.215
50487SOL    HW253359   2.134  13.901  12.163
50488SOL     OW53360   0.777   1.654   6.635
50488SOL    HW153361   0.713   1.586   6.615
50488SOL    HW253362   0.841   1.648   6.564
50489SOL     OW53363   3.385   2.048   8.124
50489SOL    HW153364   3.333   1.977   8.086
50489SOL    HW253365   3.353   2.055   8.214
50490SOL     OW53366   5.132  11.900   4.926
50490SOL    HW153367   5.197  11.849   4.877
50490SOL    HW253368   5.100  11.840   4.994
50491SOL     OW53369   3.381   4.983  13.223
50491SOL    HW153370   3.376   4.908  13.281
50491SOL    HW253371   3.302   4.978  13.169
50492SOL     OW53372  14.861   2.816  12.396
50492SOL    HW153373  14.852   2.884  12.463
50492SOL    HW253374  14.860   2.734  12.445
50493SOL     OW53375   4.939  10.664  11.793
50493SOL    HW153376   4.999  10.659  11.868
50493SOL    HW253377   4.990  10.706  11.724
50494SOL     OW53378  13.688   5.636   6.383
50494SOL    HW153379  13.641   5.669   6.459
50494SOL    HW253380  13.629   5.571   6.344
50495SOL     OW53381   0.889  14.583   0.832
50495SOL    HW153382   0.815  14.568   0.891
50495SOL    HW253383   0.880  14.673   0.803
50496SOL     OW53384  12.960   3.076  11.055
50496SOL    HW153385  12.907   3.064  11.134
50496SOL    HW253386  13.043   3.112  11.088
50497SOL     OW53387   8.517   2.535   8.530
50497SOL    HW153388   8.477   2.501   8.450
50497SOL    HW253389   8.452   2.594   8.567
50498SOL     OW53390  10.190   9.238   9.354
50498SOL    HW153391  10.258   9.181   9.317
50498SOL    HW253392  10.153   9.283   9.279
50499SOL     OW53393   7.893   7.642  13.179
50499SOL    HW153394   7.894   7.547  13.192
50499SOL    HW253395   7.959   7.675  13.240
50500SOL     OW53396  13.258   0.171   9.905
50500SOL    HW153397  13.282   0.131   9.821
50500SOL    HW253398  13.277   0.264   9.892
50501SOL     OW53399   3.521  13.520  11.076
50501SOL    HW153400   3.614  13.522  11.051
50501SOL    HW253401   3.497  13.428  11.070
50502SOL     OW53402  11.968   7.351   0.441
50502SOL    HW153403  12.007   7.395   0.517
50502SOL    HW253404  11.886   7.397   0.427
50503SOL     OW53405   5.271   5.283   2.287
50503SOL    HW153406   5.326   5.358   2.305
50503SOL    HW253407   5.209   5.281   2.360
50504SOL     OW53408   3.974   3.926   3.560
50504SOL    HW153409   3.983   3.832   3.545
50504SOL    HW253410   3.928   3.933   3.643
50505SOL     OW53411   9.655   3.532   1.843
50505SOL    HW153412   9.585   3.560   1.785
50505SOL    HW253413   9.636   3.440   1.861
50506SOL     OW53414   0.775   9.712   0.785
50506SOL    HW153415   0.759   9.730   0.692
50506SOL    HW253416   0.743   9.623   0.798
50507SOL     OW53417  13.972   0.227   8.117
50507SOL    HW153418  13.943   0.150   8.067
50507SOL    HW253419  13.978   0.196   8.207
50508SOL     OW53420  11.453  10.702  13.150
50508SOL    HW153421  11.487  10.642  13.216
50508SOL    HW253422  11.359  10.709  13.170
50509SOL     OW53423  12.680   6.319   0.874
50509SOL    HW153424  12.708   6.362   0.955
50509SOL    HW253425  12.652   6.391   0.817
50510SOL     OW53426   8.290   3.877  12.273
50510SOL    HW153427   8.233   3.950  12.296
50510SOL    HW253428   8.232   3.817  12.225
50511SOL     OW53429   0.767   3.530   9.182
50511SOL    HW153430   0.856   3.548   9.213
50511SOL    HW253431   0.716   3.518   9.263
50512SOL     OW53432   2.359   4.231   7.086
50512SOL    HW153433   2.321   4.251   7.172
50512SOL    HW253434   2.353   4.136   7.079
50513SOL     OW53435   6.843  12.446   4.108
50513SOL    HW153436   6.773  12.442   4.174
50513SOL    HW253437   6.838  12.362   4.063
50514SOL     OW53438   1.277   0.259   1.525
50514SOL    HW153439   1.287   0.227   1.614
50514SOL    HW253440   1.219   0.195   1.483
50515SOL     OW53441   8.658  14.005   5.416
50515SOL    HW153442   8.750  13.984   5.401
50515SOL    HW253443   8.653  14.100   5.410
50516SOL     OW53444  11.816  11.331  14.719
50516SOL    HW153445  11.753  11.274  14.765
50516SOL    HW253446  11.894  11.329  14.773
50517SOL     OW53447  10.464   9.293   9.206
50517SOL    HW153448  10.469   9.258   9.117
50517SOL    HW253449  10.462   9.388   9.194
50518SOL     OW53450   5.825   0.256   9.344
50518SOL    HW153451   5.837   0.297   9.430
50518SOL    HW253452   5.733   0.272   9.323
50519SOL     OW53453  13.610  10.134  10.775
50519SOL    HW153454  13.649  10.169  10.855
50519SOL    HW253455  13.671  10.067  10.746
50520SOL     OW53456  13.267   2.708  14.629
50520SOL    HW153457  13.217   2.641  14.582
50520SOL    HW253458  13.354   2.669  14.639
50521SOL     OW53459  14.011  13.870  11.237
50521SOL    HW153460  13.961  13.793  11.265
50521SOL    HW253461  13.951  13.943  11.249
50522SOL     OW53462   1.374  10.595   7.244
50522SOL    HW153463   1.404  10.559   7.328
50522SOL    HW253464   1.282  10.617   7.260
50523SOL     OW53465   0.824   6.461  10.371
50523SOL    HW153466   0.793   6.550  10.355
50523SOL    HW253467   0.913   6.473  10.406
50524SOL     OW53468   6.380   8.960   8.557
50524SOL    HW153469   6.391   8.884   8.614
50524SOL    HW253470   6.366   9.033   8.617
50525SOL     OW53471   0.827   8.055  11.377
50525SOL    HW153472   0.767   8.042  11.450
50525SOL    HW253473   0.795   7.996  11.309
50526SOL     OW53474   8.815   4.558   1.543
50526SOL    HW153475   8.893   4.558   1.488
50526SOL    HW253476   8.763   4.631   1.510
50527SOL     OW53477  14.367  11.682   1.408
50527SOL    HW153478  14.409  11.759   1.447
50527SOL    HW253479  14.422  11.660   1.333
50528SOL     OW53480  11.099  11.988  13.783
50528SOL    HW153481  11.027  12.014  13.725
50528SOL    HW253482  11.079  11.898  13.806
50529SOL     OW53483   5.833   2.605   6.562
50529SOL    HW153484   5.792   2.675   6.614
50529SOL    HW253485   5.782   2.601   6.482
50530SOL     OW53486  13.129  10.947   1.375
50530SOL    HW153487  13.205  10.892   1.393
50530SOL    HW253488  13.134  11.018   1.440
50531SOL     OW53489   5.656   7.231   7.392
50531SOL    HW153490   5.741   7.262   7.423
50531SOL    HW253491   5.601   7.310   7.389
50532SOL     OW53492   7.851   5.127   6.867
50532SOL    HW153493   7.795   5.167   6.801
50532SOL    HW253494   7.864   5.195   6.932
50533SOL     OW53495   9.564   8.560   2.676
50533SOL    HW153496   9.624   8.597   2.612
50533SOL    HW253497   9.479   8.600   2.656
50534SOL     OW53498   8.724   1.269   5.316
50534SOL    HW153499   8.780   1.209   5.366
50534SOL    HW253500   8.740   1.246   5.225
50535SOL     OW53501  14.594   8.807  13.270
50535SOL    HW153502  14.543   8.752  13.330
50535SOL    HW253503  14.685   8.791  13.294
50536SOL     OW53504  10.230   9.330   2.729
50536SOL    HW153505  10.213   9.255   2.787
50536SOL    HW253506  10.228   9.406   2.787
50537SOL     OW53507   6.796  10.024   2.648
50537SOL    HW153508   6.839   9.948   2.608
50537SOL    HW253509   6.707   9.995   2.666
50538SOL     OW53510  14.646   2.186  11.170
50538SOL    HW153511  14.587   2.226  11.106
50538SOL    HW253512  14.733   2.212  11.141
50539SOL     OW53513   7.409   4.124   8.483
50539SOL    HW153514   7.333   4.145   8.428
50539SOL    HW253515   7.371   4.106   8.569
50540SOL     OW53516  10.321   7.763   9.457
50540SOL    HW153517  10.246   7.810   9.493
50540SOL    HW253518  10.287   7.719   9.379
50541SOL     OW53519  13.088  14.599  13.782
50541SOL    HW153520  13.160  14.618  13.843
50541SOL    HW253521  13.033  14.677  13.786
50542SOL     OW53522  14.086  10.656   0.066
50542SOL    HW153523  14.079  10.746   0.034
50542SOL    HW253524  14.063  10.663   0.159
50543SOL     OW53525  10.318   9.944   2.947
50543SOL    HW153526  10.380   9.907   2.884
50543SOL    HW253527  10.336  10.038   2.945
50544SOL     OW53528   0.223  13.865   2.641
50544SOL    HW153529   0.215  13.808   2.564
50544SOL    HW253530   0.315  13.859   2.666
50545SOL     OW53531   3.140  11.753  10.105
50545SOL    HW153532   3.063  11.707  10.139
50545SOL    HW253533   3.179  11.795  10.181
50546SOL     OW53534   0.685   0.445   9.219
50546SOL    HW153535   0.736   0.409   9.146
50546SOL    HW253536   0.743   0.435   9.295
50547SOL     OW53537   3.868  10.188  13.602
50547SOL    HW153538   3.926  10.226  13.536
50547SOL    HW253539   3.917  10.196  13.684
50548SOL     OW53540   2.193   9.297   8.885
50548SOL    HW153541   2.166   9.258   8.802
50548SOL    HW253542   2.187   9.226   8.949
50549SOL     OW53543  11.867  13.210   1.929
50549SOL    HW153544  11.919  13.223   1.850
50549SOL    HW253545  11.792  13.270   1.919
50550SOL     OW53546   8.142   0.856   7.154
50550SOL    HW153547   8.193   0.777   7.174
50550SOL    HW253548   8.208   0.924   7.142
50551SOL     OW53549  14.857   8.945   6.804
50551SOL    HW153550  14.833   8.916   6.892
50551SOL    HW253551  14.800   9.020   6.787
50552SOL     OW53552  12.715   8.368   4.018
50552SOL    HW153553  12.808   8.384   4.002
50552SOL    HW253554  12.675   8.368   3.931
50553SOL     OW53555   3.704  13.108  11.036
50553SOL    HW153556   3.621  13.152  11.053
50553SOL    HW253557   3.758  13.126  11.113
50554SOL     OW53558   7.122   8.963  12.450
50554SOL    HW153559   7.058   8.896  12.475
50554SOL    HW253560   7.081   9.010  12.378
50555SOL     OW53561  12.589   2.112   6.238
50555SOL    HW153562  12.499   2.126   6.209
50555SOL    HW253563  12.582   2.048   6.309
50556SOL     OW53564   7.212   2.862   5.326
50556SOL    HW153565   7.134   2.912   5.350
50556SOL    HW253566   7.247   2.907   5.249
50557SOL     OW53567   2.341   4.238  11.300
50557SOL    HW153568   2.430   4.272  11.298
50557SOL    HW253569   2.321   4.219  11.208
50558SOL     OW53570  10.576   5.069   9.500
50558SOL    HW153571  10.604   4.998   9.557
50558SOL    HW253572  10.656   5.114   9.475
50559SOL     OW53573  13.409  11.635   8.176
50559SOL    HW153574  13.474  11.658   8.243
50559SOL    HW253575  13.327  11.674   8.208
50560SOL     OW53576   8.059  13.047   5.392
50560SOL    HW153577   8.046  12.956   5.367
50560SOL    HW253578   8.046  13.049   5.487
50561SOL     OW53579   5.318   5.439   8.632
50561SOL    HW153580   5.371   5.433   8.712
50561SOL    HW253581   5.228   5.445   8.664
50562SOL     OW53582   7.298  14.708   1.321
50562SOL    HW153583   7.241  14.631   1.328
50562SOL    HW253584   7.292  14.750   1.406
50563SOL     OW53585   9.604   7.132   3.456
50563SOL    HW153586   9.571   7.201   3.514
50563SOL    HW253587   9.525   7.089   3.423
50564SOL     OW53588   8.087   9.268   9.638
50564SOL    HW153589   8.068   9.239   9.727
50564SOL    HW253590   8.010   9.240   9.587
50565SOL     OW53591   4.729   6.747   5.482
50565SOL    HW153592   4.730   6.774   5.391
50565SOL    HW253593   4.821   6.727   5.503
50566SOL     OW53594   9.394  10.601   7.388
50566SOL    HW153595   9.444  10.535   7.437
50566SOL    HW253596   9.382  10.673   7.449
50567SOL     OW53597   2.047   0.585   8.809
50567SOL    HW153598   2.123   0.529   8.790
50567SOL    HW253599   1.971   0.529   8.791
50568SOL     OW53600  11.577  14.506   4.094
50568SOL    HW153601  11.591  14.412   4.082
50568SOL    HW253602  11.634  14.547   4.029
50569SOL     OW53603   7.666   1.072   3.628
50569SOL    HW153604   7.660   0.977   3.622
50569SOL    HW253605   7.759   1.091   3.623
50570SOL     OW53606   5.913   0.474   5.149
50570SOL    HW153607   5.913   0.554   5.098
50570SOL    HW253608   6.003   0.466   5.182
50571SOL     OW53609  11.908   3.943  14.730
50571SOL    HW153610  11.936   3.996  14.805
50571SOL    HW253611  11.813   3.953  14.728
50572SOL     OW53612   5.780   2.933   2.623
50572SOL    HW153613   5.711   2.931   2.556
50572SOL    HW253614   5.745   2.989   2.691
50573SOL     OW53615   4.929  13.542  12.088
50573SOL    HW153616   4.902  13.461  12.130
50573SOL    HW253617   4.879  13.544  12.006
50574SOL     OW53618  10.839  13.015  13.260
50574SOL    HW153619  10.933  13.026  13.276
50574SOL    HW253620  10.798  13.051  13.339
50575SOL     OW53621  10.287  12.994   2.995
50575SOL    HW153622  10.214  13.053   3.015
50575SOL    HW253623  10.364  13.051   2.994
50576SOL     OW53624   0.916  10.888   9.192
50576SOL    HW153625   0.999  10.843   9.176
50576SOL    HW253626   0.883  10.850   9.273
50577SOL     OW53627   1.887   7.744   9.576
50577SOL    HW153628   1.815   7.694   9.614
50577SOL    HW253629   1.941   7.770   9.651
50578SOL     OW53630  14.083   9.527   3.117
50578SOL    HW153631  14.002   9.577   3.115
50578SOL    HW253632  14.056   9.436   3.107
50579SOL     OW53633   8.072   2.211  14.149
50579SOL    HW153634   8.149   2.179  14.100
50579SOL    HW253635   8.033   2.133  14.186
50580SOL     OW53636   9.757  12.794   3.706
50580SOL    HW153637   9.806  12.862   3.753
50580SOL    HW253638   9.704  12.843   3.643
50581SOL     OW53639   3.942   2.982   3.896
50581SOL    HW153640   3.848   2.971   3.883
50581SOL    HW253641   3.955   2.967   3.989
50582SOL     OW53642   9.226  13.924  10.589
50582SOL    HW153643   9.247  13.994  10.526
50582SOL    HW253644   9.306  13.913  10.640
50583SOL     OW53645   4.382   6.970   3.581
50583SOL    HW153646   4.387   6.938   3.491
50583SOL    HW253647   4.472   6.994   3.603
50584SOL     OW53648   6.832   6.115  13.553
50584SOL    HW153649   6.908   6.113  13.612
50584SOL    HW253650   6.831   6.029  13.513
50585SOL     OW53651   0.465   8.553   3.730
50585SOL    HW153652   0.533   8.568   3.664
50585SOL    HW253653   0.479   8.621   3.796
50586SOL     OW53654  11.333   5.431   5.541
50586SOL    HW153655  11.375   5.483   5.609
50586SOL    HW253656  11.241   5.456   5.544
50587SOL     OW53657   4.317   6.517  13.588
50587SOL    HW153658   4.377   6.491  13.658
50587SOL    HW253659   4.271   6.594  13.622
50588SOL     OW53660  12.528  13.349   5.837
50588SOL    HW153661  12.515  13.424   5.780
50588SOL    HW253662  12.623  13.334   5.836
50589SOL     OW53663   5.680   8.704   7.609
50589SOL    HW153664   5.747   8.714   7.677
50589SOL    HW253665   5.660   8.610   7.609
50590SOL     OW53666  11.247   4.467   7.916
50590SOL    HW153667  11.252   4.398   7.850
50590SOL    HW253668  11.333   4.508   7.915
50591SOL     OW53669   0.140  10.594  13.893
50591SOL    HW153670   0.119  10.511  13.849
50591SOL    HW253671   0.235  10.591  13.904
50592SOL     OW53672   1.109  11.765   0.021
50592SOL    HW153673   1.028  11.764  14.843
50592SOL    HW253674   1.093  11.702   0.092
50593SOL     OW53675  11.242  13.727   2.102
50593SOL    HW153676  11.236  13.798   2.165
50593SOL    HW253677  11.332  13.730   2.070
50594SOL     OW53678   5.889  12.735  11.733
50594SOL    HW153679   5.956  12.803  11.725
50594SOL    HW253680   5.883  12.696  11.646
50595SOL     OW53681   6.498  10.051   2.586
50595SOL    HW153682   6.523  10.141   2.568
50595SOL    HW253683   6.465  10.018   2.502
50596SOL     OW53684  10.771  13.089  14.352
50596SOL    HW153685  10.800  13.068  14.263
50596SOL    HW253686  10.677  13.070  14.351
50597SOL     OW53687   6.490   3.621  10.956
50597SOL    HW153688   6.497   3.636  11.051
50597SOL    HW253689   6.446   3.699  10.923
50598SOL     OW53690   9.311   8.799   7.872
50598SOL    HW153691   9.228   8.767   7.907
50598SOL    HW253692   9.287   8.847   7.792
50599SOL     OW53693   2.374   5.841  10.865
50599SOL    HW153694   2.425   5.914  10.900
50599SOL    HW253695   2.339   5.797  10.943
50600SOL     OW53696   5.531   3.063   3.904
50600SOL    HW153697   5.520   3.018   3.988
50600SOL    HW253698   5.586   3.138   3.925
50601SOL     OW53699  13.706   5.924   4.971
50601SOL    HW153700  13.667   5.839   4.948
50601SOL    HW253701  13.753   5.951   4.892
50602SOL     OW53702   2.628   5.576   6.224
50602SOL    HW153703   2.590   5.621   6.148
50602SOL    HW253704   2.690   5.639   6.261
50603SOL     OW53705  11.632   3.046  13.850
50603SOL    HW153706  11.613   3.041  13.756
50603SOL    HW253707  11.554   3.009  13.892
50604SOL     OW53708   4.588   3.409   5.430
50604SOL    HW153709   4.495   3.385   5.435
50604SOL    HW253710   4.629   3.335   5.386
50605SOL     OW53711   6.762   8.078  14.609
50605SOL    HW153712   6.756   8.067  14.704
50605SOL    HW253713   6.856   8.082  14.590
50606SOL     OW53714  10.710   7.107  11.824
50606SOL    HW153715  10.708   7.088  11.730
50606SOL    HW253716  10.722   7.022  11.866
50607SOL     OW53717  10.290   3.574  12.745
50607SOL    HW153718  10.212   3.519  12.731
50607SOL    HW253719  10.318   3.597  12.656
50608SOL     OW53720  14.346   4.894   1.821
50608SOL    HW153721  14.427   4.844   1.831
50608SOL    HW253722  14.321   4.881   1.730
50609SOL     OW53723   9.684  14.700   1.738
50609SOL    HW153724   9.778  14.696   1.759
50609SOL    HW253725   9.681  14.744   1.653
50610SOL     OW53726   7.490   7.547  14.216
50610SOL    HW153727   7.584   7.559  14.203
50610SOL    HW253728   7.452   7.632  14.196
50611SOL     OW53729   9.177  11.576  13.084
50611SOL    HW153730   9.225  11.499  13.115
50611SOL    HW253731   9.188  11.574  12.989
50612SOL     OW53732   3.173   8.935   5.137
50612SOL    HW153733   3.158   9.009   5.196
50612SOL    HW253734   3.122   8.956   5.059
50613SOL     OW53735   1.270   0.031   7.652
50613SOL    HW153736   1.306  14.816   7.668
50613SOL    HW253737   1.296   0.051   7.562
50614SOL     OW53738   2.623   4.140   3.145
50614SOL    HW153739   2.623   4.044   3.147
50614SOL    HW253740   2.715   4.164   3.142
50615SOL     OW53741   7.323  10.292  14.438
50615SOL    HW153742   7.354  10.349  14.367
50615SOL    HW253743   7.269  10.349  14.493
50616SOL     OW53744   9.909   0.305   5.079
50616SOL    HW153745   9.862   0.366   5.023
50616SOL    HW253746   9.994   0.294   5.037
50617SOL     OW53747   9.977   1.880  11.614
50617SOL    HW153748   9.897   1.890  11.562
50617SOL    HW253749  10.042   1.930  11.567
50618SOL     OW53750   0.470   3.167  14.797
50618SOL    HW153751   0.510   3.183  14.712
50618SOL    HW253752   0.440   3.253  14.826
50619SOL     OW53753   9.523   2.448   3.749
50619SOL    HW153754   9.563   2.514   3.806
50619SOL    HW253755   9.583   2.374   3.753
50620SOL     OW53756   8.338   4.103   8.396
50620SOL    HW153757   8.428   4.072   8.404
50620SOL    HW253758   8.285   4.023   8.394
50621SOL     OW53759   2.824   2.961   2.544
50621SOL    HW153760   2.774   3.042   2.559
50621SOL    HW253761   2.870   2.945   2.626
50622SOL     OW53762   7.627   8.374  12.479
50622SOL    HW153763   7.571   8.452  12.487
50622SOL    HW253764   7.674   8.369  12.562
50623SOL     OW53765   4.874   2.056   0.425
50623SOL    HW153766   4.924   2.118   0.479
50623SOL    HW253767   4.883   1.972   0.470
50624SOL     OW53768   2.173   9.808   0.397
50624SOL    HW153769   2.255   9.819   0.349
50624SOL    HW253770   2.169   9.715   0.418
50625SOL     OW53771   4.562   6.103   8.438
50625SOL    HW153772   4.577   6.042   8.511
50625SOL    HW253773   4.649   6.135   8.415
50626SOL     OW53774   1.140   1.905  10.113
50626SOL    HW153775   1.216   1.934  10.164
50626SOL    HW253776   1.073   1.889  10.179
50627SOL     OW53777  10.646   2.574   7.990
50627SOL    HW153778  10.734   2.543   8.011
50627SOL    HW253779  10.660   2.660   7.950
50628SOL     OW53780   8.165   8.958   0.733
50628SOL    HW153781   8.202   8.949   0.821
50628SOL    HW253782   8.143   9.051   0.725
50629SOL     OW53783  14.452   3.966  12.927
50629SOL    HW153784  14.444   3.972  12.831
50629SOL    HW253785  14.385   4.024  12.960
50630SOL     OW53786   7.620   9.097   5.140
50630SOL    HW153787   7.683   9.141   5.083
50630SOL    HW253788   7.546   9.076   5.083
50631SOL     OW53789  11.573   3.977   3.964
50631SOL    HW153790  11.491   3.991   4.012
50631SOL    HW253791  11.573   4.045   3.897
50632SOL     OW53792  14.721  13.194  14.442
50632SOL    HW153793  14.671  13.202  14.361
50632SOL    HW253794  14.724  13.100  14.460
50633SOL     OW53795  11.338   3.308  10.702
50633SOL    HW153796  11.382   3.226  10.725
50633SOL    HW253797  11.341   3.361  10.782
50634SOL     OW53798   6.834  14.052   5.971
50634SOL    HW153799   6.894  13.978   5.965
50634SOL    HW253800   6.747  14.012   5.978
50635SOL     OW53801   9.229   5.041  13.542
50635SOL    HW153802   9.144   5.019  13.581
50635SOL    HW253803   9.215   5.125  13.500
50636SOL     OW53804   4.409   8.473  12.025
50636SOL    HW153805   4.449   8.511  12.103
50636SOL    HW253806   4.399   8.546  11.965
50637SOL     OW53807   4.511  12.092   6.352
50637SOL    HW153808   4.466  12.132   6.426
50637SOL    HW253809   4.455  12.110   6.276
50638SOL     OW53810  11.049  13.539   3.308
50638SOL    HW153811  10.958  13.528   3.336
50638SOL    HW253812  11.093  13.575   3.385
50639SOL     OW53813  10.286  11.956   0.984
50639SOL    HW153814  10.351  11.963   0.914
50639SOL    HW253815  10.279  11.862   1.000
50640SOL     OW53816   0.577   7.445   8.616
50640SOL    HW153817   0.499   7.396   8.588
50640SOL    HW253818   0.614   7.480   8.535
50641SOL     OW53819   7.758  11.494   2.289
50641SOL    HW153820   7.785  11.494   2.381
50641SOL    HW253821   7.767  11.403   2.262
50642SOL     OW53822  10.310  13.635  11.992
50642SOL    HW153823  10.263  13.692  12.053
50642SOL    HW253824  10.247  13.619  11.922
50643SOL     OW53825   5.392   2.215   3.849
50643SOL    HW153826   5.404   2.209   3.943
50643SOL    HW253827   5.348   2.299   3.835
50644SOL     OW53828   5.479   3.900   1.812
50644SOL    HW153829   5.569   3.876   1.833
50644SOL    HW253830   5.430   3.880   1.892
50645SOL     OW53831   3.824  14.537   9.774
50645SOL    HW153832   3.793  14.560   9.861
50645SOL    HW253833   3.919  14.545   9.780
50646SOL     OW53834   2.076  13.855   3.189
50646SOL    HW153835   2.001  13.888   3.141
50646SOL    HW253836   2.038  13.806   3.262
50647SOL     OW53837   7.242  11.531   9.749
50647SOL    HW153838   7.174  11.494   9.693
50647SOL    HW253839   7.305  11.459   9.761
50648SOL     OW53840   6.157   4.675  11.410
50648SOL    HW153841   6.101   4.661  11.486
50648SOL    HW253842   6.206   4.594  11.400
50649SOL     OW53843  10.812   4.189   6.644
50649SOL    HW153844  10.723   4.221   6.656
50649SOL    HW253845  10.816   4.161   6.553
50650SOL     OW53846  14.155   1.343   4.733
50650SOL    HW153847  14.069   1.299   4.726
50650SOL    HW253848  14.150   1.416   4.671
50651SOL     OW53849  11.335  11.499  10.922
50651SOL    HW153850  11.417  11.483  10.876
50651SOL    HW253851  11.280  11.425  10.899
50652SOL     OW53852  13.860  14.128   1.546
50652SOL    HW153853  13.852  14.060   1.480
50652SOL    HW253854  13.798  14.196   1.518
50653SOL     OW53855   2.559   9.960   1.583
50653SOL    HW153856   2.549   9.867   1.601
50653SOL    HW253857   2.633   9.965   1.523
50654SOL     OW53858   3.386   2.121   9.184
50654SOL    HW153859   3.425   2.035   9.174
50654SOL    HW253860   3.457   2.182   9.164
50655SOL     OW53861   6.856  11.847  11.091
50655SOL    HW153862   6.856  11.835  10.996
50655SOL    HW253863   6.926  11.790  11.122
50656SOL     OW53864   3.746   4.967  12.122
50656SOL    HW153865   3.658   4.932  12.109
50656SOL    HW253866   3.803   4.889  12.121
50657SOL     OW53867   6.594  14.155   2.833
50657SOL    HW153868   6.533  14.200   2.774
50657SOL    HW253869   6.540  14.089   2.877
50658SOL     OW53870  10.831  14.070   2.712
50658SOL    HW153871  10.872  14.013   2.647
50658SOL    HW253872  10.901  14.091   2.774
50659SOL     OW53873  14.060   6.219   7.172
50659SOL    HW153874  14.028   6.296   7.219
50659SOL    HW253875  14.036   6.235   7.081
50660SOL     OW53876  12.825   6.308   6.270
50660SOL    HW153877  12.911   6.323   6.310
50660SOL    HW253878  12.813   6.381   6.210
50661SOL     OW53879  10.996   0.479   9.087
50661SOL    HW153880  11.079   0.437   9.107
50661SOL    HW253881  10.972   0.444   9.001
50662SOL     OW53882   5.686   7.209   4.687
50662SOL    HW153883   5.627   7.162   4.746
50662SOL    HW253884   5.675   7.301   4.708
50663SOL     OW53885   3.267  14.401   9.602
50663SOL    HW153886   3.333  14.379   9.668
50663SOL    HW253887   3.272  14.329   9.538
50664SOL     OW53888   0.650   3.758  11.349
50664SOL    HW153889   0.699   3.752  11.267
50664SOL    HW253890   0.716   3.771  11.416
50665SOL     OW53891   9.938   8.627  14.257
50665SOL    HW153892   9.945   8.605  14.164
50665SOL    HW253893   9.851   8.667  14.266
50666SOL     OW53894   1.311   7.334  11.361
50666SOL    HW153895   1.403   7.315  11.377
50666SOL    HW253896   1.310   7.422  11.324
50667SOL     OW53897  11.788   5.776   1.314
50667SOL    HW153898  11.815   5.868   1.307
50667SOL    HW253899  11.726   5.775   1.386
50668SOL     OW53900   2.960  14.154   3.162
50668SOL    HW153901   3.000  14.162   3.248
50668SOL    HW253902   2.973  14.062   3.139
50669SOL     OW53903   0.122  11.873   4.126
50669SOL    HW153904   0.105  11.933   4.198
50669SOL    HW253905   0.195  11.819   4.155
50670SOL     OW53906  10.858  14.282  13.517
50670SOL    HW153907  10.907  14.335  13.580
50670SOL    HW253908  10.870  14.326  13.433
50671SOL     OW53909   6.531   6.740   5.855
50671SOL    HW153910   6.552   6.681   5.928
50671SOL    HW253911   6.594   6.717   5.787
50672SOL     OW53912  10.117  13.691  14.039
50672SOL    HW153913  10.100  13.658  14.127
50672SOL    HW253914  10.030  13.708  14.002
50673SOL     OW53915   8.811   6.148  10.834
50673SOL    HW153916   8.716   6.144  10.820
50673SOL    HW253917   8.831   6.073  10.889
50674SOL     OW53918   9.644   8.458  10.066
50674SOL    HW153919   9.668   8.365  10.060
50674SOL    HW253920   9.607   8.466  10.154
50675SOL     OW53921   5.428   2.917  12.537
50675SOL    HW153922   5.473   2.973  12.600
50675SOL    HW253923   5.477   2.835  12.537
50676SOL     OW53924   3.365   7.378   3.164
50676SOL    HW153925   3.430   7.344   3.103
50676SOL    HW253926   3.380   7.328   3.245
50677SOL     OW53927   1.579   9.108   2.527
50677SOL    HW153928   1.529   9.065   2.458
50677SOL    HW253929   1.621   9.037   2.575
50678SOL     OW53930   3.930   7.158  13.872
50678SOL    HW153931   3.942   7.252  13.885
50678SOL    HW253932   3.847   7.151  13.825
50679SOL     OW53933  10.554  10.015   7.057
50679SOL    HW153934  10.475   9.993   7.106
50679SOL    HW253935  10.617   9.947   7.080
50680SOL     OW53936   1.781  12.932  13.417
50680SOL    HW153937   1.792  12.965  13.506
50680SOL    HW253938   1.862  12.884  13.399
50681SOL     OW53939   2.978   7.100   0.878
50681SOL    HW153940   2.894   7.059   0.859
50681SOL    HW253941   2.992   7.161   0.805
50682SOL     OW53942   1.634  12.288   0.302
50682SOL    HW153943   1.625  12.380   0.277
50682SOL    HW253944   1.631  12.289   0.398
50683SOL     OW53945   5.273   5.216   1.734
50683SOL    HW153946   5.212   5.282   1.766
50683SOL    HW253947   5.359   5.256   1.745
50684SOL     OW53948   8.385   5.870   1.511
50684SOL    HW153949   8.303   5.914   1.488
50684SOL    HW253950   8.361   5.778   1.521
50685SOL     OW53951   0.984  11.520  14.808
50685SOL    HW153952   1.073  11.527  14.775
50685SOL    HW253953   0.994  11.524   0.031
50686SOL     OW53954  12.486   9.497   3.189
50686SOL    HW153955  12.552   9.433   3.217
50686SOL    HW253956  12.403   9.449   3.192
50687SOL     OW53957   3.300   2.844  13.019
50687SOL    HW153958   3.382   2.880  13.055
50687SOL    HW253959   3.231   2.895  13.062
50688SOL     OW53960   2.374   7.375   5.195
50688SOL    HW153961   2.344   7.405   5.281
50688SOL    HW253962   2.302   7.398   5.136
50689SOL     OW53963   0.975   0.818  10.845
50689SOL    HW153964   1.015   0.802  10.931
50689SOL    HW253965   0.898   0.761  10.843
50690SOL     OW53966  12.988   3.474   0.558
50690SOL    HW153967  12.956   3.391   0.595
50690SOL    HW253968  12.939   3.484   0.477
50691SOL     OW53969   6.395   9.283   2.400
50691SOL    HW153970   6.469   9.254   2.347
50691SOL    HW253971   6.397   9.226   2.477
50692SOL     OW53972   8.569  13.524   6.455
50692SOL    HW153973   8.529  13.546   6.539
50692SOL    HW253974   8.502  13.545   6.390
50693SOL     OW53975  11.709  14.493  14.774
50693SOL    HW153976  11.761  14.574  14.778
50693SOL    HW253977  11.726  14.450  14.858
50694SOL     OW53978   1.866  10.024  13.243
50694SOL    HW153979   1.960  10.010  13.234
50694SOL    HW253980   1.857  10.118  13.263
50695SOL     OW53981  10.068   3.393   5.003
50695SOL    HW153982  10.027   3.337   4.938
50695SOL    HW253983  10.156   3.410   4.968
50696SOL     OW53984   0.614   3.893   9.233
50696SOL    HW153985   0.646   3.940   9.310
50696SOL    HW253986   0.648   3.943   9.159
50697SOL     OW53987  10.247   5.205   3.181
50697SOL    HW153988  10.206   5.244   3.104
50697SOL    HW253989  10.287   5.124   3.149
50698SOL     OW53990  11.937   6.662   3.139
50698SOL    HW153991  11.963   6.585   3.089
50698SOL    HW253992  12.006   6.726   3.120
50699SOL     OW53993   9.684   8.729  14.206
50699SOL    HW153994   9.710   8.741  14.114
50699SOL    HW253995   9.591   8.707  14.202
50700SOL     OW53996  12.604  11.883   4.851
50700SOL    HW153997  12.622  11.790   4.832
50700SOL    HW253998  12.690  11.920   4.870
50701SOL     OW53999   3.153   9.115   6.991
50701SOL    HW154000   3.133   9.102   6.899
50701SOL    HW254001   3.088   9.063   7.038
50702SOL     OW54002   1.347   2.040   3.564
50702SOL    HW154003   1.261   2.022   3.602
50702SOL    HW254004   1.329   2.098   3.490
50703SOL     OW54005   1.069  13.161   1.551
50703SOL    HW154006   1.057  13.172   1.456
50703SOL    HW254007   1.149  13.109   1.559
50704SOL     OW54008  14.200   8.832  12.370
50704SOL    HW154009  14.292   8.833  12.398
50704SOL    HW254010  14.193   8.752  12.318
50705SOL     OW54011  14.748   8.340  12.075
50705SOL    HW154012  14.744   8.302  12.164
50705SOL    HW254013  14.665   8.314  12.035
50706SOL     OW54014   5.202   8.810   1.868
50706SOL    HW154015   5.285   8.840   1.905
50706SOL    HW254016   5.226   8.742   1.805
50707SOL     OW54017  12.251   4.238   4.790
50707SOL    HW154018  12.274   4.157   4.745
50707SOL    HW254019  12.155   4.236   4.797
50708SOL     OW54020  12.459   9.230   4.040
50708SOL    HW154021  12.368   9.254   4.020
50708SOL    HW254022  12.492   9.304   4.092
50709SOL     OW54023  10.405   2.321   9.193
50709SOL    HW154024  10.460   2.398   9.208
50709SOL    HW254025  10.465   2.247   9.199
50710SOL     OW54026   5.369   4.136   8.293
50710SOL    HW154027   5.364   4.213   8.237
50710SOL    HW254028   5.315   4.071   8.249
50711SOL     OW54029  10.626  13.912   3.675
50711SOL    HW154030  10.626  13.939   3.584
50711SOL    HW254031  10.577  13.830   3.676
50712SOL     OW54032  12.824  13.905   4.153
50712SOL    HW154033  12.845  13.874   4.065
50712SOL    HW254034  12.777  13.832   4.194
50713SOL     OW54035   2.626   3.079   1.158
50713SOL    HW154036   2.670   3.016   1.215
50713SOL    HW254037   2.696   3.127   1.115
50714SOL     OW54038  14.701   0.084  10.068
50714SOL    HW154039  14.676   0.031   9.992
50714SOL    HW254040  14.629   0.146  10.079
50715SOL     OW54041  13.030  10.290  14.100
50715SOL    HW154042  12.998  10.307  14.011
50715SOL    HW254043  12.951  10.295  14.154
50716SOL     OW54044   4.046  10.509   2.609
50716SOL    HW154045   3.977  10.507   2.543
50716SOL    HW254046   4.040  10.425   2.654
50717SOL     OW54047   9.268  10.188  11.449
50717SOL    HW154048   9.275  10.102  11.407
50717SOL    HW254049   9.265  10.169  11.543
50718SOL     OW54050  10.692  13.866   8.907
50718SOL    HW154051  10.717  13.792   8.963
50718SOL    HW254052  10.759  13.867   8.838
50719SOL     OW54053  13.599   0.496  11.837
50719SOL    HW154054  13.605   0.478  11.743
50719SOL    HW254055  13.505   0.505  11.852
50720SOL     OW54056   6.438   3.430  13.295
50720SOL    HW154057   6.533   3.415  13.301
50720SOL    HW254058   6.409   3.432  13.386
50721SOL     OW54059   4.862   8.452  13.656
50721SOL    HW154060   4.851   8.410  13.571
50721SOL    HW254061   4.842   8.384  13.720
50722SOL     OW54062   5.811   1.690   2.629
50722SOL    HW154063   5.858   1.756   2.578
50722SOL    HW254064   5.823   1.717   2.720
50723SOL     OW54065   6.666  12.964   4.442
50723SOL    HW154066   6.653  12.905   4.516
50723SOL    HW254067   6.745  13.014   4.465
50724SOL     OW54068   1.606   3.514   5.613
50724SOL    HW154069   1.518   3.477   5.618
50724SOL    HW254070   1.648   3.469   5.540
50725SOL     OW54071   9.844   7.877   1.743
50725SOL    HW154072   9.881   7.793   1.771
50725SOL    HW254073   9.817   7.862   1.653
50726SOL     OW54074   9.166   0.793   4.958
50726SOL    HW154075   9.146   0.775   5.050
50726SOL    HW254076   9.080   0.803   4.916
50727SOL     OW54077  14.540   4.381   1.173
50727SOL    HW154078  14.536   4.472   1.203
50727SOL    HW254079  14.601   4.383   1.099
50728SOL     OW54080   1.115  14.617   1.940
50728SOL    HW154081   1.131  14.608   2.034
50728SOL    HW254082   1.057  14.693   1.933
50729SOL     OW54083  14.536   5.145  14.074
50729SOL    HW154084  14.498   5.207  14.012
50729SOL    HW254085  14.470   5.136  14.142
50730SOL     OW54086  14.552   6.537   4.186
50730SOL    HW154087  14.614   6.564   4.118
50730SOL    HW254088  14.607   6.518   4.262
50731SOL     OW54089   9.802   9.459   2.041
50731SOL    HW154090   9.822   9.433   2.131
50731SOL    HW254091   9.859   9.534   2.025
50732SOL     OW54092   4.645   3.506   2.820
50732SOL    HW154093   4.552   3.527   2.830
50732SOL    HW254094   4.676   3.569   2.754
50733SOL     OW54095   2.287   9.108  13.809
50733SOL    HW154096   2.206   9.111  13.859
50733SOL    HW254097   2.312   9.200  13.798
50734SOL     OW54098   2.881   2.919   6.866
50734SOL    HW154099   2.938   2.988   6.901
50734SOL    HW254100   2.859   2.949   6.778
50735SOL     OW54101   1.969   9.086   2.994
50735SOL    HW154102   1.999   9.156   2.935
50735SOL    HW254103   2.049   9.042   3.021
50736SOL     OW54104   2.211   6.266   3.586
50736SOL    HW154105   2.232   6.350   3.546
50736SOL    HW254106   2.198   6.285   3.679
50737SOL     OW54107  14.174  12.258  12.642
50737SOL    HW154108  14.108  12.272  12.710
50737SOL    HW254109  14.157  12.168  12.611
50738SOL     OW54110  14.547   3.696   2.788
50738SOL    HW154111  14.612   3.703   2.718
50738SOL    HW254112  14.518   3.605   2.785
50739SOL     OW54113   9.762   7.187  12.247
50739SOL    HW154114   9.677   7.232  12.248
50739SOL    HW254115   9.823   7.252  12.212
50740SOL     OW54116   3.131  11.668   1.714
50740SOL    HW154117   3.118  11.754   1.754
50740SOL    HW254118   3.183  11.619   1.778
50741SOL     OW54119   6.744   3.564  12.217
50741SOL    HW154120   6.783   3.479  12.239
50741SOL    HW254121   6.769   3.579  12.126
50742SOL     OW54122  13.974   7.766  12.305
50742SOL    HW154123  13.927   7.735  12.228
50742SOL    HW254124  14.040   7.698  12.322
50743SOL     OW54125  13.712  10.132   1.695
50743SOL    HW154126  13.699  10.129   1.790
50743SOL    HW254127  13.652  10.200   1.665
50744SOL     OW54128   1.956   2.731  11.061
50744SOL    HW154129   1.880   2.678  11.038
50744SOL    HW254130   2.028   2.668  11.068
50745SOL     OW54131   3.354  14.447   1.495
50745SOL    HW154132   3.315  14.531   1.517
50745SOL    HW254133   3.429  14.439   1.555
50746SOL     OW54134   8.635   6.625   9.961
50746SOL    HW154135   8.643   6.532   9.979
50746SOL    HW254136   8.661   6.635   9.869
50747SOL     OW54137   2.491  11.133   8.685
50747SOL    HW154138   2.493  11.086   8.601
50747SOL    HW254139   2.471  11.066   8.750
50748SOL     OW54140   5.092   9.340   2.571
50748SOL    HW154141   5.027   9.316   2.506
50748SOL    HW254142   5.096   9.435   2.567
50749SOL     OW54143   7.976   1.791   1.299
50749SOL    HW154144   8.049   1.742   1.262
50749SOL    HW254145   8.016   1.846   1.367
50750SOL     OW54146   2.136  11.077   4.963
50750SOL    HW154147   2.064  11.036   4.914
50750SOL    HW254148   2.162  11.011   5.026
50751SOL     OW54149   6.242   9.814   5.350
50751SOL    HW154150   6.323   9.778   5.386
50751SOL    HW254151   6.247   9.794   5.257
50752SOL     OW54152   6.141   2.958   8.898
50752SOL    HW154153   6.145   3.051   8.876
50752SOL    HW254154   6.129   2.914   8.814
50753SOL     OW54155   6.803   1.325  11.025
50753SOL    HW154156   6.879   1.267  11.020
50753SOL    HW254157   6.840   1.413  11.017
50754SOL     OW54158   9.667   2.649   4.881
50754SOL    HW154159   9.680   2.737   4.916
50754SOL    HW254160   9.682   2.657   4.787
50755SOL     OW54161  13.986  11.780  11.643
50755SOL    HW154162  14.060  11.794  11.701
50755SOL    HW254163  14.012  11.707  11.588
50756SOL     OW54164   3.857  13.464   8.446
50756SOL    HW154165   3.854  13.553   8.481
50756SOL    HW254166   3.950  13.441   8.447
50757SOL     OW54167   3.584   6.974  10.970
50757SOL    HW154168   3.516   7.032  10.937
50757SOL    HW254169   3.600   7.004  11.060
50758SOL     OW54170   6.492   9.745   1.547
50758SOL    HW154171   6.435   9.672   1.571
50758SOL    HW254172   6.488   9.749   1.452
50759SOL     OW54173   2.928   6.709   8.862
50759SOL    HW154174   2.948   6.702   8.769
50759SOL    HW254175   2.907   6.620   8.889
50760SOL     OW54176  12.886   9.346   1.125
50760SOL    HW154177  12.860   9.271   1.178
50760SOL    HW254178  12.951   9.311   1.063
50761SOL     OW54179   4.325   5.963   1.008
50761SOL    HW154180   4.416   5.936   1.022
50761SOL    HW254181   4.316   6.044   1.058
50762SOL     OW54182  14.380  14.209  12.467
50762SOL    HW154183  14.391  14.126  12.421
50762SOL    HW254184  14.413  14.275  12.406
50763SOL     OW54185  10.362  10.995  13.352
50763SOL    HW154186  10.373  10.914  13.302
50763SOL    HW254187  10.374  10.968  13.443
50764SOL     OW54188   1.291   6.324   8.014
50764SOL    HW154189   1.292   6.240   7.968
50764SOL    HW254190   1.313   6.302   8.105
50765SOL     OW54191   8.145   6.268   6.915
50765SOL    HW154192   8.097   6.284   6.834
50765SOL    HW254193   8.084   6.289   6.985
50766SOL     OW54194  12.803  11.460   4.279
50766SOL    HW154195  12.786  11.479   4.371
50766SOL    HW254196  12.723  11.416   4.249
50767SOL     OW54197   8.652   7.944   4.479
50767SOL    HW154198   8.608   7.932   4.395
50767SOL    HW254199   8.666   7.856   4.512
50768SOL     OW54200   4.468   2.149   2.118
50768SOL    HW154201   4.458   2.062   2.078
50768SOL    HW254202   4.562   2.155   2.138
50769SOL     OW54203   0.957   1.164  14.568
50769SOL    HW154204   1.041   1.202  14.592
50769SOL    HW254205   0.960   1.157  14.473
50770SOL     OW54206   3.744   7.518   4.257
50770SOL    HW154207   3.807   7.449   4.236
50770SOL    HW254208   3.685   7.520   4.182
50771SOL     OW54209   9.475  11.563   1.315
50771SOL    HW154210   9.553  11.508   1.319
50771SOL    HW254211   9.503  11.648   1.350
50772SOL     OW54212  12.610   6.067   4.087
50772SOL    HW154213  12.550   6.032   4.153
50772SOL    HW254214  12.697   6.060   4.127
50773SOL     OW54215   9.239   1.389  14.491
50773SOL    HW154216   9.250   1.461  14.428
50773SOL    HW254217   9.254   1.310  14.439
50774SOL     OW54218   9.560   3.858   5.355
50774SOL    HW154219   9.622   3.918   5.396
50774SOL    HW254220   9.543   3.895   5.269
50775SOL     OW54221   3.589   7.716   2.674
50775SOL    HW154222   3.533   7.774   2.726
50775SOL    HW254223   3.677   7.750   2.687
50776SOL     OW54224   5.146   0.658  13.636
50776SOL    HW154225   5.178   0.582  13.684
50776SOL    HW254226   5.225   0.702  13.604
50777SOL     OW54227   9.774   3.206  12.800
50777SOL    HW154228   9.839   3.203  12.730
50777SOL    HW254229   9.811   3.152  12.870
50778SOL     OW54230  10.704  11.026   2.374
50778SOL    HW154231  10.785  11.048   2.421
50778SOL    HW254232  10.734  10.996   2.289
50779SOL     OW54233  14.330   2.824  10.973
50779SOL    HW154234  14.358   2.822  11.065
50779SOL    HW254235  14.243   2.784  10.973
50780SOL     OW54236   2.684  10.365   6.216
50780SOL    HW154237   2.594  10.355   6.247
50780SOL    HW254238   2.687  10.454   6.181
50781SOL     OW54239   0.707  12.853  12.331
50781SOL    HW154240   0.639  12.902  12.376
50781SOL    HW254241   0.728  12.781  12.391
50782SOL     OW54242  10.560  14.270   2.570
50782SOL    HW154243  10.542  14.190   2.521
50782SOL    HW254244  10.554  14.340   2.505
50783SOL     OW54245  11.244  11.834   8.750
50783SOL    HW154246  11.254  11.901   8.818
50783SOL    HW254247  11.167  11.784   8.777
50784SOL     OW54248   6.140  13.244   4.658
50784SOL    HW154249   6.129  13.159   4.615
50784SOL    HW254250   6.122  13.227   4.750
50785SOL     OW54251   9.456   6.109  11.071
50785SOL    HW154252   9.450   6.017  11.096
50785SOL    HW254253   9.533   6.114  11.015
50786SOL     OW54254   2.428   1.597  10.352
50786SOL    HW154255   2.411   1.530  10.285
50786SOL    HW254256   2.437   1.548  10.433
50787SOL     OW54257   3.892  12.259   2.374
50787SOL    HW154258   3.849  12.311   2.442
50787SOL    HW254259   3.982  12.291   2.373
50788SOL     OW54260   0.797  14.401   1.493
50788SOL    HW154261   0.734  14.473   1.491
50788SOL    HW254262   0.880  14.442   1.517
50789SOL     OW54263  10.450   6.534  14.694
50789SOL    HW154264  10.356   6.517  14.705
50789SOL    HW254265  10.453   6.611  14.638
50790SOL     OW54266   4.693   1.698   1.456
50790SOL    HW154267   4.701   1.611   1.415
50790SOL    HW254268   4.609   1.694   1.503
50791SOL     OW54269   0.394   2.670  13.132
50791SOL    HW154270   0.358   2.756  13.111
50791SOL    HW254271   0.318   2.618  13.158
50792SOL     OW54272   6.067   7.017   5.444
50792SOL    HW154273   6.151   7.041   5.482
50792SOL    HW254274   6.070   7.049   5.354
50793SOL     OW54275   4.835   5.323   9.947
50793SOL    HW154276   4.802   5.307  10.035
50793SOL    HW254277   4.816   5.242   9.899
50794SOL     OW54278  14.548  11.798  12.089
50794SOL    HW154279  14.586  11.811  12.176
50794SOL    HW254280  14.589  11.717  12.057
50795SOL     OW54281   1.992   4.500  13.382
50795SOL    HW154282   1.922   4.435  13.388
50795SOL    HW254283   1.952   4.582  13.410
50796SOL     OW54284  14.040  10.635  12.026
50796SOL    HW154285  13.953  10.597  12.010
50796SOL    HW254286  14.097  10.559  12.038
50797SOL     OW54287  12.462   3.114   7.744
50797SOL    HW154288  12.424   3.186   7.794
50797SOL    HW254289  12.552   3.142   7.726
50798SOL     OW54290   1.315   5.004   1.970
50798SOL    HW154291   1.391   4.955   1.940
50798SOL    HW254292   1.245   4.978   1.910
50799SOL     OW54293  10.125   3.424   2.203
50799SOL    HW154294  10.188   3.393   2.136
50799SOL    HW254295  10.042   3.384   2.177
50800SOL     OW54296   6.492   3.155  10.647
50800SOL    HW154297   6.460   3.168  10.557
50800SOL    HW254298   6.414   3.127  10.695
50801SOL     OW54299   8.897  12.709   2.953
50801SOL    HW154300   8.934  12.717   2.866
50801SOL    HW254301   8.935  12.629   2.988
50802SOL     OW54302  11.844   6.653   1.377
50802SOL    HW154303  11.882   6.691   1.456
50802SOL    HW254304  11.753   6.685   1.377
50803SOL     OW54305   0.866  13.170  12.554
50803SOL    HW154306   0.961  13.158  12.554
50803SOL    HW254307   0.852  13.251  12.506
50804SOL     OW54308  13.871   3.396  13.219
50804SOL    HW154309  13.817   3.317  13.226
50804SOL    HW254310  13.925   3.382  13.141
50805SOL     OW54311   6.061   6.444  12.299
50805SOL    HW154312   6.040   6.518  12.357
50805SOL    HW254313   6.095   6.377  12.358
50806SOL     OW54314  13.442   8.295   1.154
50806SOL    HW154315  13.487   8.247   1.084
50806SOL    HW254316  13.434   8.231   1.225
50807SOL     OW54317   1.985  11.341   2.124
50807SOL    HW154318   1.965  11.398   2.197
50807SOL    HW254319   1.901  11.307   2.095
50808SOL     OW54320   1.171  10.816   9.095
50808SOL    HW154321   1.258  10.855   9.101
50808SOL    HW254322   1.159  10.798   9.002
50809SOL     OW54323   5.581   5.809   9.722
50809SOL    HW154324   5.512   5.835   9.782
50809SOL    HW254325   5.661   5.848   9.757
50810SOL     OW54326  13.521   5.580  13.844
50810SOL    HW154327  13.470   5.586  13.925
50810SOL    HW254328  13.606   5.616  13.866
50811SOL     OW54329   3.783   4.058  11.785
50811SOL    HW154330   3.747   4.146  11.781
50811SOL    HW254331   3.878   4.071  11.791
50812SOL     OW54332   4.593   8.580   4.433
50812SOL    HW154333   4.683   8.571   4.401
50812SOL    HW254334   4.542   8.522   4.378
50813SOL     OW54335  11.571  10.012  13.113
50813SOL    HW154336  11.619   9.935  13.144
50813SOL    HW254337  11.598  10.022  13.022
50814SOL     OW54338   3.831   7.873   0.725
50814SOL    HW154339   3.875   7.794   0.691
50814SOL    HW254340   3.872   7.945   0.676
50815SOL     OW54341   6.008   6.181   5.817
50815SOL    HW154342   6.093   6.176   5.860
50815SOL    HW254343   6.001   6.101   5.766
50816SOL     OW54344  10.502   3.547  14.200
50816SOL    HW154345  10.460   3.619  14.248
50816SOL    HW254346  10.431   3.507  14.150
50817SOL     OW54347   5.473   5.618   8.254
50817SOL    HW154348   5.533   5.573   8.314
50817SOL    HW254349   5.522   5.626   8.173
50818SOL     OW54350   5.605  10.153   3.192
50818SOL    HW154351   5.579  10.062   3.203
50818SOL    HW254352   5.665  10.153   3.118
50819SOL     OW54353   3.635  13.710   1.262
50819SOL    HW154354   3.648  13.778   1.327
50819SOL    HW254355   3.698  13.729   1.193
50820SOL     OW54356  12.009  14.421   3.069
50820SOL    HW154357  11.965  14.369   3.001
50820SOL    HW254358  12.060  14.486   3.020
50821SOL     OW54359   1.932  10.188   6.282
50821SOL    HW154360   2.000  10.171   6.216
50821SOL    HW254361   1.969  10.154   6.363
50822SOL     OW54362   2.313   4.765   2.931
50822SOL    HW154363   2.302   4.835   2.996
50822SOL    HW254364   2.312   4.684   2.983
50823SOL     OW54365  10.864   6.113   7.384
50823SOL    HW154366  10.776   6.147   7.399
50823SOL    HW254367  10.851   6.018   7.374
50824SOL     OW54368  10.493  12.849   8.335
50824SOL    HW154369  10.536  12.898   8.266
50824SOL    HW254370  10.411  12.896   8.352
50825SOL     OW54371   4.747   2.451   6.536
50825SOL    HW154372   4.671   2.498   6.501
50825SOL    HW254373   4.782   2.509   6.604
50826SOL     OW54374   6.011  11.433   1.615
50826SOL    HW154375   6.032  11.425   1.708
50826SOL    HW254376   5.916  11.419   1.611
50827SOL     OW54377   1.855   3.150   7.033
50827SOL    HW154378   1.826   3.235   7.065
50827SOL    HW254379   1.931   3.170   6.978
50828SOL     OW54380   7.149  11.575   0.639
50828SOL    HW154381   7.083  11.566   0.570
50828SOL    HW254382   7.127  11.507   0.702
50829SOL     OW54383   3.725  10.813   4.072
50829SOL    HW154384   3.756  10.733   4.116
50829SOL    HW254385   3.699  10.783   3.985
50830SOL     OW54386  12.664   0.829  12.745
50830SOL    HW154387  12.721   0.781  12.805
50830SOL    HW254388  12.684   0.921  12.761
50831SOL     OW54389  14.227   7.015   3.373
50831SOL    HW154390  14.289   7.035   3.443
50831SOL    HW254391  14.180   7.096   3.358
50832SOL     OW54392  12.732  14.192  11.746
50832SOL    HW154393  12.784  14.252  11.799
50832SOL    HW254394  12.778  14.108  11.752
50833SOL     OW54395   7.863  11.754  10.217
50833SOL    HW154396   7.830  11.739  10.306
50833SOL    HW254397   7.787  11.740  10.161
50834SOL     OW54398   6.365   5.201   2.345
50834SOL    HW154399   6.382   5.107   2.340
50834SOL    HW254400   6.277   5.211   2.307
50835SOL     OW54401  12.300   5.555   6.374
50835SOL    HW154402  12.274   5.635   6.420
50835SOL    HW254403  12.376   5.581   6.323
50836SOL     OW54404  14.589  14.219   7.263
50836SOL    HW154405  14.544  14.303   7.255
50836SOL    HW254406  14.528  14.156   7.225
50837SOL     OW54407   8.156   7.969   7.854
50837SOL    HW154408   8.152   8.059   7.886
50837SOL    HW254409   8.089   7.923   7.905
50838SOL     OW54410  14.406   9.644  12.361
50838SOL    HW154411  14.325   9.676  12.321
50838SOL    HW254412  14.440   9.719  12.409
50839SOL     OW54413   8.964   0.081   1.651
50839SOL    HW154414   8.874   0.079   1.683
50839SOL    HW254415   9.001  14.869   1.677
50840SOL     OW54416  11.169   7.095   6.163
50840SOL    HW154417  11.187   7.167   6.102
50840SOL    HW254418  11.084   7.062   6.135
50841SOL     OW54419  10.982  12.054   0.509
50841SOL    HW154420  11.005  12.144   0.534
50841SOL    HW254421  11.054  12.001   0.542
50842SOL     OW54422   0.161  11.876  13.737
50842SOL    HW154423   0.230  11.861  13.671
50842SOL    HW254424   0.182  11.961  13.774
50843SOL     OW54425   7.680   2.035   0.442
50843SOL    HW154426   7.597   2.054   0.397
50843SOL    HW254427   7.700   2.116   0.489
50844SOL     OW54428  13.077   1.735   1.426
50844SOL    HW154429  13.046   1.645   1.426
50844SOL    HW254430  13.017   1.782   1.484
50845SOL     OW54431   9.867   3.194  12.263
50845SOL    HW154432   9.874   3.151  12.349
50845SOL    HW254433   9.893   3.126  12.201
50846SOL     OW54434  14.518   9.983   7.800
50846SOL    HW154435  14.428   9.970   7.770
50846SOL    HW254436  14.568   9.995   7.719
50847SOL     OW54437   5.595  13.201  11.378
50847SOL    HW154438   5.653  13.125  11.377
50847SOL    HW254439   5.523  13.177  11.437
50848SOL     OW54440   3.082  14.864   7.772
50848SOL    HW154441   3.082   0.086   7.758
50848SOL    HW254442   3.111  14.853   7.863
50849SOL     OW54443   8.900  14.512  11.074
50849SOL    HW154444   8.950  14.585  11.039
50849SOL    HW254445   8.963  14.461  11.125
50850SOL     OW54446   7.818   8.649  12.517
50850SOL    HW154447   7.791   8.580  12.578
50850SOL    HW254448   7.735   8.679  12.478
50851SOL     OW54449   3.881  14.425   1.705
50851SOL    HW154450   3.820  14.352   1.692
50851SOL    HW254451   3.966  14.391   1.678
50852SOL     OW54452   0.071   6.975   2.631
50852SOL    HW154453   0.017   7.041   2.674
50852SOL    HW254454   0.096   7.016   2.548
50853SOL     OW54455   1.764   5.469   4.033
50853SOL    HW154456   1.705   5.502   4.101
50853SOL    HW254457   1.706   5.423   3.971
50854SOL     OW54458   9.430   0.284  13.321
50854SOL    HW154459   9.430   0.347  13.249
50854SOL    HW254460   9.513   0.238  13.313
50855SOL     OW54461  13.542  12.310  13.537
50855SOL    HW154462  13.532  12.383  13.597
50855SOL    HW254463  13.598  12.248  13.584
50856SOL     OW54464  11.344  13.759   5.906
50856SOL    HW154465  11.413  13.824   5.919
50856SOL    HW254466  11.361  13.692   5.972
50857SOL     OW54467   0.777   3.623   1.574
50857SOL    HW154468   0.780   3.582   1.661
50857SOL    HW254469   0.785   3.549   1.513
50858SOL     OW54470   7.774   6.790  11.513
50858SOL    HW154471   7.806   6.848  11.444
50858SOL    HW254472   7.822   6.708  11.499
50859SOL     OW54473  10.062   4.795  13.142
50859SOL    HW154474   9.973   4.787  13.109
50859SOL    HW254475  10.059   4.870  13.202
50860SOL     OW54476  10.541   7.087   3.274
50860SOL    HW154477  10.610   7.038   3.318
50860SOL    HW254478  10.558   7.074   3.181
50861SOL     OW54479  11.177   3.987  12.899
50861SOL    HW154480  11.211   4.075  12.886
50861SOL    HW254481  11.136   3.989  12.985
50862SOL     OW54482   8.729  10.259   7.648
50862SOL    HW154483   8.776  10.310   7.583
50862SOL    HW254484   8.691  10.323   7.708
50863SOL     OW54485  12.426  13.158  14.855
50863SOL    HW154486  12.356  13.148   0.048
50863SOL    HW254487  12.450  13.250  14.861
50864SOL     OW54488  13.425  11.640  13.984
50864SOL    HW154489  13.518  11.638  13.960
50864SOL    HW254490  13.403  11.548  14.000
50865SOL     OW54491   4.927   7.305   2.687
50865SOL    HW154492   4.903   7.213   2.700
50865SOL    HW254493   4.901   7.324   2.597
50866SOL     OW54494   3.683   8.368   0.227
50866SOL    HW154495   3.605   8.401   0.181
50866SOL    HW254496   3.658   8.368   0.319
50867SOL     OW54497  12.649  12.843   2.096
50867SOL    HW154498  12.701  12.763   2.093
50867SOL    HW254499  12.662  12.884   2.010
50868SOL     OW54500   6.706   2.016   4.270
50868SOL    HW154501   6.623   2.064   4.265
50868SOL    HW254502   6.713   1.989   4.361
50869SOL     OW54503  13.973  12.314   7.345
50869SOL    HW154504  13.964  12.220   7.354
50869SOL    HW254505  14.015  12.327   7.260
50870SOL     OW54506  13.249   1.204   1.947
50870SOL    HW154507  13.231   1.237   1.859
50870SOL    HW254508  13.178   1.238   2.001
50871SOL     OW54509   2.730  10.342   2.855
50871SOL    HW154510   2.778  10.353   2.772
50871SOL    HW254511   2.771  10.265   2.896
50872SOL     OW54512   0.037   7.860   1.060
50872SOL    HW154513   0.119   7.900   1.032
50872SOL    HW254514   0.054   7.832   1.150
50873SOL     OW54515   9.934  14.400   3.519
50873SOL    HW154516   9.875  14.383   3.592
50873SOL    HW254517  10.021  14.377   3.553
50874SOL     OW54518   4.033  12.657   0.514
50874SOL    HW154519   4.084  12.731   0.548
50874SOL    HW254520   4.094  12.583   0.516
50875SOL     OW54521   8.566  12.713   6.392
50875SOL    HW154522   8.528  12.758   6.467
50875SOL    HW254523   8.655  12.691   6.420
50876SOL     OW54524  10.113   8.975   3.765
50876SOL    HW154525  10.036   8.928   3.795
50876SOL    HW254526  10.092   9.001   3.675
50877SOL     OW54527   5.627   9.654   9.221
50877SOL    HW154528   5.686   9.666   9.146
50877SOL    HW254529   5.636   9.734   9.272
50878SOL     OW54530   7.799   9.669  10.124
50878SOL    HW154531   7.834   9.585  10.154
50878SOL    HW254532   7.832   9.733  10.187
50879SOL     OW54533   9.852  10.637  14.493
50879SOL    HW154534   9.828  10.669  14.580
50879SOL    HW254535   9.896  10.554  14.509
50880SOL     OW54536  12.297   0.540   4.571
50880SOL    HW154537  12.387   0.545   4.540
50880SOL    HW254538  12.293   0.604   4.643
50881SOL     OW54539   7.598   0.320   5.735
50881SOL    HW154540   7.560   0.340   5.649
50881SOL    HW254541   7.576   0.396   5.789
50882SOL     OW54542   3.371  13.725   3.053
50882SOL    HW154543   3.377  13.806   3.104
50882SOL    HW254544   3.459  13.687   3.058
50883SOL     OW54545   1.035   8.609   2.423
50883SOL    HW154546   1.049   8.598   2.517
50883SOL    HW254547   1.117   8.578   2.383
50884SOL     OW54548  12.852  10.129  10.571
50884SOL    HW154549  12.869  10.110  10.663
50884SOL    HW254550  12.917  10.077  10.523
50885SOL     OW54551  10.395   4.298   0.817
50885SOL    HW154552  10.324   4.361   0.830
50885SOL    HW254553  10.441   4.296   0.901
50886SOL     OW54554   6.841  11.930  13.361
50886SOL    HW154555   6.819  12.010  13.314
50886SOL    HW254556   6.772  11.920  13.426
50887SOL     OW54557  11.823   8.361   4.309
50887SOL    HW154558  11.871   8.335   4.387
50887SOL    HW254559  11.732   8.367   4.338
50888SOL     OW54560   9.229   3.434   9.505
50888SOL    HW154561   9.219   3.526   9.479
50888SOL    HW254562   9.194   3.384   9.431
50889SOL     OW54563   1.851   8.139   2.757
50889SOL    HW154564   1.933   8.186   2.766
50889SOL    HW254565   1.785   8.207   2.744
50890SOL     OW54566  12.911  12.236  11.402
50890SOL    HW154567  12.962  12.165  11.441
50890SOL    HW254568  12.885  12.204  11.316
50891SOL     OW54569   4.595   2.583   4.167
50891SOL    HW154570   4.648   2.558   4.243
50891SOL    HW254571   4.607   2.511   4.105
50892SOL     OW54572   8.775   4.055  10.741
50892SOL    HW154573   8.725   4.130  10.708
50892SOL    HW254574   8.723   4.023  10.815
50893SOL     OW54575   7.541  10.420   2.898
50893SOL    HW154576   7.492  10.499   2.878
50893SOL    HW254577   7.486  10.348   2.866
50894SOL     OW54578  13.830   1.130  13.881
50894SOL    HW154579  13.801   1.046  13.845
50894SOL    HW254580  13.925   1.122  13.886
50895SOL     OW54581   8.810  13.078   7.183
50895SOL    HW154582   8.819  13.035   7.268
50895SOL    HW254583   8.845  13.166   7.197
50896SOL     OW54584   5.534   0.331   9.652
50896SOL    HW154585   5.588   0.401   9.687
50896SOL    HW254586   5.499   0.286   9.729
50897SOL     OW54587  13.925   1.394   2.516
50897SOL    HW154588  13.934   1.317   2.459
50897SOL    HW254589  13.972   1.464   2.470
50898SOL     OW54590   3.513   2.605  11.637
50898SOL    HW154591   3.491   2.633  11.726
50898SOL    HW254592   3.595   2.650  11.618
50899SOL     OW54593   8.827   7.744   1.650
50899SOL    HW154594   8.764   7.711   1.714
50899SOL    HW254595   8.856   7.666   1.603
50900SOL     OW54596  11.359   3.126  11.702
50900SOL    HW154597  11.297   3.117  11.630
50900SOL    HW254598  11.411   3.204  11.680
50901SOL     OW54599   6.317   9.136   3.429
50901SOL    HW154600   6.375   9.063   3.453
50901SOL    HW254601   6.338   9.154   3.337
50902SOL     OW54602   7.592   5.196   7.708
50902SOL    HW154603   7.519   5.249   7.737
50902SOL    HW254604   7.642   5.253   7.650
50903SOL     OW54605   9.705   8.426   0.547
50903SOL    HW154606   9.700   8.521   0.535
50903SOL    HW254607   9.681   8.390   0.462
50904SOL     OW54608   2.803   1.665   1.721
50904SOL    HW154609   2.773   1.580   1.688
50904SOL    HW254610   2.738   1.728   1.690
50905SOL     OW54611   3.063  12.390   9.477
50905SOL    HW154612   3.047  12.316   9.419
50905SOL    HW254613   3.135  12.437   9.435
50906SOL     OW54614   4.689   7.482  12.992
50906SOL    HW154615   4.671   7.500  12.900
50906SOL    HW254616   4.650   7.556  13.039
50907SOL     OW54617   7.465   0.129  14.535
50907SOL    HW154618   7.395   0.116  14.600
50907SOL    HW254619   7.465   0.048  14.484
50908SOL     OW54620  10.924   7.452  13.057
50908SOL    HW154621  10.835   7.448  13.092
50908SOL    HW254622  10.969   7.515  13.113
50909SOL     OW54623   1.621   0.264  13.470
50909SOL    HW154624   1.649   0.342  13.516
50909SOL    HW254625   1.700   0.230  13.429
50910SOL     OW54626   6.581   4.758   7.160
50910SOL    HW154627   6.519   4.799   7.100
50910SOL    HW254628   6.642   4.710   7.102
50911SOL     OW54629   9.477   0.565   0.072
50911SOL    HW154630   9.500   0.651   0.105
50911SOL    HW254631   9.480   0.508   0.149
50912SOL     OW54632   6.642   6.872  14.175
50912SOL    HW154633   6.649   6.791  14.125
50912SOL    HW254634   6.576   6.853  14.242
50913SOL     OW54635   7.776   9.687  10.849
50913SOL    HW154636   7.780   9.698  10.944
50913SOL    HW254637   7.820   9.764  10.814
50914SOL     OW54638   2.220   5.570   7.813
50914SOL    HW154639   2.226   5.649   7.758
50914SOL    HW254640   2.261   5.596   7.895
50915SOL     OW54641   0.677   2.769   9.082
50915SOL    HW154642   0.591   2.811   9.080
50915SOL    HW254643   0.720   2.798   9.001
50916SOL     OW54644   2.509   1.792   2.577
50916SOL    HW154645   2.513   1.705   2.616
50916SOL    HW254646   2.547   1.849   2.644
50917SOL     OW54647  13.806  10.265  14.419
50917SOL    HW154648  13.885  10.310  14.392
50917SOL    HW254649  13.813  10.177  14.380
50918SOL     OW54650   9.008   0.702   8.973
50918SOL    HW154651   9.091   0.690   8.928
50918SOL    HW254652   8.991   0.618   9.017
50919SOL     OW54653  10.519   3.933  14.675
50919SOL    HW154654  10.574   4.000  14.636
50919SOL    HW254655  10.547   3.851  14.634
50920SOL     OW54656  11.238   7.768   2.986
50920SOL    HW154657  11.273   7.773   3.075
50920SOL    HW254658  11.186   7.848   2.977
50921SOL     OW54659   3.248   0.341  11.775
50921SOL    HW154660   3.288   0.297  11.850
50921SOL    HW254661   3.178   0.282  11.748
50922SOL     OW54662  11.019  11.206   8.082
50922SOL    HW154663  11.065  11.223   8.000
50922SOL    HW254664  10.927  11.197   8.056
50923SOL     OW54665  13.874   9.484  11.831
50923SOL    HW154666  13.937   9.499  11.761
50923SOL    HW254667  13.852   9.391  11.824
50924SOL     OW54668   8.566   9.482  11.647
50924SOL    HW154669   8.622   9.412  11.681
50924SOL    HW254670   8.514   9.509  11.723
50925SOL     OW54671  14.479   4.652   3.201
50925SOL    HW154672  14.560   4.611   3.172
50925SOL    HW254673  14.483   4.651   3.296
50926SOL     OW54674   2.010  10.282   7.006
50926SOL    HW154675   1.983  10.226   6.933
50926SOL    HW254676   2.057  10.354   6.965
50927SOL     OW54677   0.726   0.449   7.854
50927SOL    HW154678   0.642   0.476   7.889
50927SOL    HW254679   0.709   0.427   7.763
50928SOL     OW54680  12.656   1.690  14.602
50928SOL    HW154681  12.750   1.672  14.609
50928SOL    HW254682  12.649   1.753  14.530
50929SOL     OW54683   7.248   6.600   0.245
50929SOL    HW154684   7.258   6.583   0.339
50929SOL    HW254685   7.260   6.694   0.236
50930SOL     OW54686  12.791   6.433   1.972
50930SOL    HW154687  12.790   6.412   1.879
50930SOL    HW254688  12.772   6.350   2.016
50931SOL     OW54689   7.992   7.675  14.781
50931SOL    HW154690   7.967   7.697  14.690
50931SOL    HW254691   8.038   7.592  14.774
50932SOL     OW54692  14.351  11.241   2.575
50932SOL    HW154693  14.304  11.275   2.651
50932SOL    HW254694  14.321  11.150   2.568
50933SOL     OW54695  12.100   8.568   3.730
50933SOL    HW154696  12.166   8.545   3.665
50933SOL    HW254697  12.030   8.504   3.717
50934SOL     OW54698   2.192   3.945   1.070
50934SOL    HW154699   2.134   3.997   1.124
50934SOL    HW254700   2.271   3.935   1.123
50935SOL     OW54701  13.125   3.703   8.016
50935SOL    HW154702  13.040   3.679   7.980
50935SOL    HW254703  13.139   3.793   7.986
50936SOL     OW54704   1.251   1.324  12.723
50936SOL    HW154705   1.213   1.339  12.637
50936SOL    HW254706   1.184   1.353  12.785
50937SOL     OW54707   1.308   0.377   2.427
50937SOL    HW154708   1.231   0.434   2.435
50937SOL    HW254709   1.337   0.389   2.336
50938SOL     OW54710   8.829  11.341  11.764
50938SOL    HW154711   8.846  11.318  11.673
50938SOL    HW254712   8.897  11.295  11.814
50939SOL     OW54713   6.130  10.505  13.807
50939SOL    HW154714   6.212  10.457  13.796
50939SOL    HW254715   6.062  10.442  13.782
50940SOL     OW54716   4.119   5.030   3.163
50940SOL    HW154717   4.073   5.013   3.245
50940SOL    HW254718   4.107   5.123   3.147
50941SOL     OW54719  10.609   1.472   9.513
50941SOL    HW154720  10.555   1.545   9.482
50941SOL    HW254721  10.605   1.478   9.608
50942SOL     OW54722   7.820  14.613   7.367
50942SOL    HW154723   7.870  14.534   7.345
50942SOL    HW254724   7.883  14.669   7.413
50943SOL     OW54725  13.790   5.691  13.901
50943SOL    HW154726  13.847   5.615  13.896
50943SOL    HW254727  13.789   5.715  13.993
50944SOL     OW54728   9.904   4.248   1.082
50944SOL    HW154729   9.908   4.177   1.018
50944SOL    HW254730   9.992   4.252   1.119
50945SOL     OW54731   1.455   3.930   5.496
50945SOL    HW154732   1.442   3.915   5.590
50945SOL    HW254733   1.494   3.848   5.464
50946SOL     OW54734   3.655   6.483   6.665
50946SOL    HW154735   3.735   6.445   6.701
50946SOL    HW254736   3.640   6.561   6.719
50947SOL     OW54737   9.576   8.998   0.431
50947SOL    HW154738   9.665   8.966   0.418
50947SOL    HW254739   9.524   8.920   0.447
50948SOL     OW54740   5.222   0.245   2.946
50948SOL    HW154741   5.218   0.327   2.897
50948SOL    HW254742   5.199   0.270   3.036
50949SOL     OW54743   3.750   1.506  14.665
50949SOL    HW154744   3.757   1.600  14.649
50949SOL    HW254745   3.693   1.474  14.594
50950SOL     OW54746   2.436   4.062   5.029
50950SOL    HW154747   2.404   4.052   4.940
50950SOL    HW254748   2.526   4.029   5.026
50951SOL     OW54749  11.774   2.226   4.726
50951SOL    HW154750  11.866   2.200   4.729
50951SOL    HW254751  11.734   2.182   4.801
50952SOL     OW54752  12.839   0.565   6.387
50952SOL    HW154753  12.869   0.483   6.348
50952SOL    HW254754  12.838   0.628   6.314
50953SOL     OW54755   1.176   1.846   1.334
50953SOL    HW154756   1.263   1.861   1.297
50953SOL    HW254757   1.174   1.900   1.412
50954SOL     OW54758   1.021   0.545   3.377
50954SOL    HW154759   1.002   0.636   3.402
50954SOL    HW254760   1.112   0.546   3.350
50955SOL     OW54761   0.985   3.495   0.525
50955SOL    HW154762   0.962   3.517   0.435
50955SOL    HW254763   0.951   3.569   0.576
50956SOL     OW54764  10.082  12.499  14.123
50956SOL    HW154765  10.065  12.550  14.202
50956SOL    HW254766  10.072  12.408  14.151
50957SOL     OW54767   9.343  13.732  12.144
50957SOL    HW154768   9.262  13.779  12.124
50957SOL    HW254769   9.373  13.770  12.226
50958SOL     OW54770  12.568  13.076  14.643
50958SOL    HW154771  12.543  13.116  14.726
50958SOL    HW254772  12.661  13.058  14.652
50959SOL     OW54773  10.500   0.765   5.204
50959SOL    HW154774  10.427   0.739   5.148
50959SOL    HW254775  10.464   0.837   5.257
50960SOL     OW54776   6.440  14.834   9.470
50960SOL    HW154777   6.482  14.747   9.476
50960SOL    HW254778   6.512   0.023   9.482
50961SOL     OW54779   6.586  10.356   5.961
50961SOL    HW154780   6.608  10.447   5.983
50961SOL    HW254781   6.626  10.305   6.032
50962SOL     OW54782   6.981  14.642   7.230
50962SOL    HW154783   7.037  14.575   7.271
50962SOL    HW254784   7.017  14.725   7.262
50963SOL     OW54785  14.518   8.305  11.886
50963SOL    HW154786  14.425   8.283  11.881
50963SOL    HW254787  14.548   8.305  11.795
50964SOL     OW54788   3.359   8.249   1.141
50964SOL    HW154789   3.339   8.223   1.230
50964SOL    HW254790   3.454   8.259   1.139
50965SOL     OW54791  13.773   8.043   7.067
50965SOL    HW154792  13.774   8.036   6.972
50965SOL    HW254793  13.744   8.132   7.085
50966SOL     OW54794   8.963   7.607   7.118
50966SOL    HW154795   8.948   7.699   7.141
50966SOL    HW254796   9.057   7.594   7.132
50967SOL     OW54797   6.791   2.133  12.550
50967SOL    HW154798   6.738   2.057  12.526
50967SOL    HW254799   6.816   2.118  12.641
50968SOL     OW54800  10.903   0.231   6.144
50968SOL    HW154801  10.995   0.236   6.119
50968SOL    HW254802  10.869   0.320   6.129
50969SOL     OW54803   6.271   0.283  10.469
50969SOL    HW154804   6.266   0.338  10.547
50969SOL    HW254805   6.359   0.246  10.471
50970SOL     OW54806  14.603   1.252  14.086
50970SOL    HW154807  14.685   1.246  14.136
50970SOL    HW254808  14.611   1.185  14.019
50971SOL     OW54809  14.176  13.471   9.899
50971SOL    HW154810  14.223  13.554   9.884
50971SOL    HW254811  14.175  13.461   9.994
50972SOL     OW54812   8.121   8.580   5.725
50972SOL    HW154813   8.151   8.664   5.759
50972SOL    HW254814   8.098   8.598   5.634
50973SOL     OW54815   1.347  14.012   2.767
50973SOL    HW154816   1.403  13.939   2.740
50973SOL    HW254817   1.363  14.020   2.861
50974SOL     OW54818  13.137   4.864   7.477
50974SOL    HW154819  13.090   4.947   7.468
50974SOL    HW254820  13.229   4.886   7.457
50975SOL     OW54821   6.336   8.987  11.072
50975SOL    HW154822   6.380   8.965  11.154
50975SOL    HW254823   6.279   8.911  11.055
50976SOL     OW54824   7.187  14.540  11.539
50976SOL    HW154825   7.215  14.631  11.524
50976SOL    HW254826   7.268  14.490  11.540
50977SOL     OW54827   8.258   2.742  10.170
50977SOL    HW154828   8.165   2.740  10.193
50977SOL    HW254829   8.261   2.797  10.091
50978SOL     OW54830   6.241  11.883   2.194
50978SOL    HW154831   6.307  11.849   2.255
50978SOL    HW254832   6.254  11.977   2.195
50979SOL     OW54833   0.536   8.640   2.912
50979SOL    HW154834   0.468   8.583   2.876
50979SOL    HW254835   0.531   8.720   2.858
50980SOL     OW54836   0.595   1.889   6.694
50980SOL    HW154837   0.544   1.900   6.614
50980SOL    HW254838   0.679   1.853   6.665
50981SOL     OW54839   7.534  11.437   6.715
50981SOL    HW154840   7.536  11.466   6.807
50981SOL    HW254841   7.451  11.471   6.682
50982SOL     OW54842  14.167   5.049   0.913
50982SOL    HW154843  14.073   5.046   0.900
50982SOL    HW254844  14.203   4.991   0.846
50983SOL     OW54845   6.241  10.657   0.270
50983SOL    HW154846   6.318  10.679   0.322
50983SOL    HW254847   6.203  10.581   0.314
50984SOL     OW54848  12.070   8.175   4.382
50984SOL    HW154849  12.152   8.216   4.410
50984SOL    HW254850  12.018   8.168   4.462
50985SOL     OW54851   2.670   1.138   9.900
50985SOL    HW154852   2.586   1.094   9.888
50985SOL    HW254853   2.714   1.087   9.969
50986SOL     OW54854   7.790  14.638   5.642
50986SOL    HW154855   7.797  14.569   5.576
50986SOL    HW254856   7.751  14.712   5.596
50987SOL     OW54857  10.845  13.061   7.246
50987SOL    HW154858  10.810  13.088   7.161
50987SOL    HW254859  10.909  12.993   7.225
50988SOL     OW54860   6.326  12.491  12.173
50988SOL    HW154861   6.232  12.479  12.185
50988SOL    HW254862   6.337  12.585  12.162
50989SOL     OW54863  10.452  14.126  13.043
50989SOL    HW154864  10.385  14.080  12.993
50989SOL    HW254865  10.422  14.216  13.046
50990SOL     OW54866  13.488  14.179   7.484
50990SOL    HW154867  13.570  14.132   7.476
50990SOL    HW254868  13.462  14.197   7.394
50991SOL     OW54869   7.148   8.187  12.346
50991SOL    HW154870   7.120   8.278  12.347
50991SOL    HW254871   7.081   8.141  12.295
50992SOL     OW54872  13.282  13.666   7.236
50992SOL    HW154873  13.343  13.738   7.249
50992SOL    HW254874  13.295  13.609   7.312
50993SOL     OW54875   7.006   4.419   0.334
50993SOL    HW154876   6.947   4.370   0.392
50993SOL    HW254877   7.037   4.491   0.387
50994SOL     OW54878   7.530   3.505   2.073
50994SOL    HW154879   7.607   3.511   2.016
50994SOL    HW254880   7.458   3.541   2.021
50995SOL     OW54881   4.421  13.365   1.998
50995SOL    HW154882   4.400  13.447   2.042
50995SOL    HW254883   4.466  13.313   2.065
50996SOL     OW54884   8.439   9.891   1.675
50996SOL    HW154885   8.462   9.810   1.629
50996SOL    HW254886   8.519   9.914   1.723
50997SOL     OW54887   2.003   9.645  14.688
50997SOL    HW154888   1.996   9.638  14.783
50997SOL    HW254889   1.934   9.587  14.655
50998SOL     OW54890   1.123  11.474   6.387
50998SOL    HW154891   1.085  11.561   6.370
50998SOL    HW254892   1.119  11.465   6.482
50999SOL     OW54893   5.909   3.070  12.335
50999SOL    HW154894   6.005   3.069  12.329
50999SOL    HW254895   5.891   3.133  12.405
51000SOL     OW54896   6.874  13.731  14.837
51000SOL    HW154897   6.816  13.736   0.041
51000SOL    HW254898   6.819  13.757  14.763
51001SOL     OW54899   3.554   9.805  11.913
51001SOL    HW154900   3.507   9.807  11.996
51001SOL    HW254901   3.605   9.886  11.912
51002SOL     OW54902   0.475   7.921   6.965
51002SOL    HW154903   0.447   7.877   7.045
51002SOL    HW254904   0.418   7.887   6.897
51003SOL     OW54905   4.965   0.381   9.657
51003SOL    HW154906   4.913   0.322   9.603
51003SOL    HW254907   4.997   0.325   9.729
51004SOL     OW54908   2.202  11.505  12.893
51004SOL    HW154909   2.220  11.411  12.893
51004SOL    HW254910   2.267  11.541  12.953
51005SOL     OW54911   0.353   4.458   8.822
51005SOL    HW154912   0.362   4.500   8.737
51005SOL    HW254913   0.335   4.366   8.803
51006SOL     OW54914   4.224   2.115   5.953
51006SOL    HW154915   4.276   2.192   5.978
51006SOL    HW254916   4.289   2.051   5.925
51007SOL     OW54917   9.812   3.904   1.478
51007SOL    HW154918   9.736   3.847   1.465
51007SOL    HW254919   9.879   3.846   1.514
51008SOL     OW54920   7.693   6.251  11.625
51008SOL    HW154921   7.628   6.316  11.654
51008SOL    HW254922   7.667   6.170  11.669
51009SOL     OW54923   4.204   1.683  12.845
51009SOL    HW154924   4.166   1.735  12.774
51009SOL    HW254925   4.173   1.594  12.828
51010SOL     OW54926   8.810   9.217   1.969
51010SOL    HW154927   8.831   9.264   2.049
51010SOL    HW254928   8.736   9.160   1.993
51011SOL     OW54929  13.309   5.532   6.880
51011SOL    HW154930  13.306   5.513   6.974
51011SOL    HW254931  13.220   5.511   6.849
51012SOL     OW54932   1.739   6.552  14.287
51012SOL    HW154933   1.769   6.558  14.378
51012SOL    HW254934   1.681   6.476  14.285
51013SOL     OW54935   0.832   6.002   9.689
51013SOL    HW154936   0.872   6.063   9.627
51013SOL    HW254937   0.903   5.941   9.711
51014SOL     OW54938   2.756   1.941  12.790
51014SOL    HW154939   2.734   2.017  12.844
51014SOL    HW254940   2.804   1.977  12.716
51015SOL     OW54941  11.243   0.286  13.868
51015SOL    HW154942  11.217   0.311  13.780
51015SOL    HW254943  11.286   0.363  13.903
51016SOL     OW54944   4.295   4.171   3.989
51016SOL    HW154945   4.248   4.251   4.009
51016SOL    HW254946   4.241   4.101   4.024
51017SOL     OW54947   0.520   2.988   7.833
51017SOL    HW154948   0.491   2.900   7.806
51017SOL    HW254949   0.605   2.973   7.873
51018SOL     OW54950   3.379   6.229   7.636
51018SOL    HW154951   3.348   6.172   7.706
51018SOL    HW254952   3.466   6.195   7.614
51019SOL     OW54953   5.074  13.075   6.806
51019SOL    HW154954   5.115  13.002   6.761
51019SOL    HW254955   4.996  13.095   6.753
51020SOL     OW54956   2.038   5.979   6.276
51020SOL    HW154957   1.962   5.952   6.224
51020SOL    HW254958   2.052   6.070   6.252
51021SOL     OW54959   1.857  11.803   1.660
51021SOL    HW154960   1.793  11.746   1.704
51021SOL    HW254961   1.879  11.869   1.726
51022SOL     OW54962  12.757  13.105   0.379
51022SOL    HW154963  12.829  13.168   0.368
51022SOL    HW254964  12.750  13.062   0.294
51023SOL     OW54965   6.804   1.320   6.481
51023SOL    HW154966   6.841   1.272   6.407
51023SOL    HW254967   6.807   1.412   6.454
51024SOL     OW54968   1.193   8.904  10.850
51024SOL    HW154969   1.106   8.915  10.810
51024SOL    HW254970   1.191   8.961  10.927
51025SOL     OW54971   4.972  14.760  10.889
51025SOL    HW154972   4.904  14.696  10.867
51025SOL    HW254973   4.990  14.745  10.982
51026SOL     OW54974   0.085   3.180   0.827
51026SOL    HW154975  14.870   3.203   0.798
51026SOL    HW254976   0.108   3.102   0.775
51027SOL     OW54977   3.435   7.660   4.310
51027SOL    HW154978   3.470   7.640   4.223
51027SOL    HW254979   3.342   7.677   4.294
51028SOL     OW54980   1.941  10.143   5.292
51028SOL    HW154981   1.976  10.193   5.218
51028SOL    HW254982   2.011  10.147   5.358
51029SOL     OW54983  12.112  10.593   8.426
51029SOL    HW154984  12.123  10.624   8.516
51029SOL    HW254985  12.039  10.532   8.430
51030SOL     OW54986   4.740   0.466   4.757
51030SOL    HW154987   4.811   0.406   4.732
51030SOL    HW254988   4.666   0.439   4.703
51031SOL     OW54989   9.881   5.333   5.821
51031SOL    HW154990   9.809   5.396   5.814
51031SOL    HW254991   9.954   5.375   5.775
51032SOL     OW54992   0.560   4.619   8.956
51032SOL    HW154993   0.484   4.604   8.901
51032SOL    HW254994   0.626   4.656   8.897
51033SOL     OW54995  11.194  13.780   0.073
51033SOL    HW154996  11.144  13.763   0.153
51033SOL    HW254997  11.126  13.796   0.007
51034SOL     OW54998   8.607   7.604   8.564
51034SOL    HW154999   8.658   7.651   8.630
51034SOL    HW255000   8.518   7.637   8.576
51035SOL     OW55001   7.413  11.795   1.662
51035SOL    HW155002   7.418  11.810   1.568
51035SOL    HW255003   7.340  11.848   1.692
51036SOL     OW55004  13.444  12.785   5.709
51036SOL    HW155005  13.350  12.794   5.723
51036SOL    HW255006  13.452  12.727   5.633
51037SOL     OW55007  13.766  14.216   2.738
51037SOL    HW155008  13.764  14.278   2.811
51037SOL    HW255009  13.695  14.155   2.756
51038SOL     OW55010  12.882   2.023   8.130
51038SOL    HW155011  12.865   1.930   8.138
51038SOL    HW255012  12.910   2.035   8.039
51039SOL     OW55013   9.737  14.783   3.753
51039SOL    HW155014   9.739  14.743   3.666
51039SOL    HW255015   9.647  14.811   3.765
51040SOL     OW55016   0.398   1.449   5.591
51040SOL    HW155017   0.493   1.455   5.581
51040SOL    HW255018   0.384   1.366   5.638
51041SOL     OW55019   2.036   6.253  13.698
51041SOL    HW155020   2.025   6.165  13.736
51041SOL    HW255021   1.947   6.279  13.672
51042SOL     OW55022   2.839   1.761   0.751
51042SOL    HW155023   2.932   1.778   0.767
51042SOL    HW255024   2.795   1.791   0.830
51043SOL     OW55025   5.628   3.715   3.282
51043SOL    HW155026   5.651   3.759   3.364
51043SOL    HW255027   5.700   3.653   3.267
51044SOL     OW55028  12.907   0.720   8.694
51044SOL    HW155029  12.870   0.670   8.621
51044SOL    HW255030  12.914   0.658   8.766
51045SOL     OW55031   0.319  14.012   9.778
51045SOL    HW155032   0.273  14.094   9.795
51045SOL    HW255033   0.396  14.037   9.727
51046SOL     OW55034   3.594  12.201   1.339
51046SOL    HW155035   3.683  12.216   1.308
51046SOL    HW255036   3.598  12.219   1.433
51047SOL     OW55037   1.604   9.614   9.386
51047SOL    HW155038   1.698   9.620   9.400
51047SOL    HW255039   1.568   9.692   9.429
51048SOL     OW55040   3.565  12.048   8.857
51048SOL    HW155041   3.613  12.102   8.919
51048SOL    HW255042   3.473  12.064   8.877
51049SOL     OW55043   9.573   7.776   6.361
51049SOL    HW155044   9.621   7.840   6.309
51049SOL    HW255045   9.603   7.791   6.451
51050SOL     OW55046   0.608   4.462  10.003
51050SOL    HW155047   0.611   4.444  10.097
51050SOL    HW255048   0.598   4.557   9.998
51051SOL     OW55049   1.808   8.652   0.875
51051SOL    HW155050   1.760   8.674   0.796
51051SOL    HW255051   1.740   8.628   0.939
51052SOL     OW55052   3.066  10.547   8.437
51052SOL    HW155053   3.004  10.529   8.366
51052SOL    HW255054   3.028  10.502   8.513
51053SOL     OW55055   7.082  13.218  14.045
51053SOL    HW155056   7.014  13.182  14.101
51053SOL    HW255057   7.141  13.145  14.028
51054SOL     OW55058   8.793   2.473  10.343
51054SOL    HW155059   8.850   2.410  10.299
51054SOL    HW255060   8.705   2.437  10.332
51055SOL     OW55061   6.038   9.748  13.900
51055SOL    HW155062   5.975   9.691  13.855
51055SOL    HW255063   6.018   9.736  13.993
51056SOL     OW55064   7.086  11.804   5.958
51056SOL    HW155065   7.124  11.751   5.888
51056SOL    HW255066   7.162  11.837   6.006
51057SOL     OW55067   0.212   2.056  12.166
51057SOL    HW155068   0.170   2.030  12.248
51057SOL    HW255069   0.259   2.137  12.188
51058SOL     OW55070  10.543   6.845  10.886
51058SOL    HW155071  10.535   6.931  10.846
51058SOL    HW255072  10.546   6.784  10.812
51059SOL     OW55073   9.162  14.748  11.937
51059SOL    HW155074   9.139  14.841  11.934
51059SOL    HW255075   9.140  14.715  11.850
51060SOL     OW55076   7.840   6.521   2.200
51060SOL    HW155077   7.751   6.491   2.218
51060SOL    HW255078   7.831   6.615   2.182
51061SOL     OW55079  11.327   5.416   7.615
51061SOL    HW155080  11.407   5.379   7.578
51061SOL    HW255081  11.350   5.438   7.705
51062SOL     OW55082   3.432  10.660   3.351
51062SOL    HW155083   3.421  10.568   3.328
51062SOL    HW255084   3.445  10.705   3.267
51063SOL     OW55085   6.502  10.349   5.151
51063SOL    HW155086   6.536  10.347   5.062
51063SOL    HW255087   6.577  10.372   5.205
51064SOL     OW55088   8.175   6.254  12.297
51064SOL    HW155089   8.112   6.224  12.361
51064SOL    HW255090   8.133   6.329  12.253
51065SOL     OW55091  14.008  10.886  11.959
51065SOL    HW155092  14.029  10.796  11.984
51065SOL    HW255093  14.066  10.940  12.012
51066SOL     OW55094  14.155   0.456   5.987
51066SOL    HW155095  14.211   0.396   6.035
51066SOL    HW255096  14.104   0.501   6.055
51067SOL     OW55097  14.180   7.598  13.896
51067SOL    HW155098  14.262   7.628  13.934
51067SOL    HW255099  14.203   7.563  13.810
51068SOL     OW55100   2.105   4.209   4.133
51068SOL    HW155101   2.174   4.156   4.092
51068SOL    HW255102   2.129   4.299   4.110
51069SOL     OW55103  14.098  12.495  13.214
51069SOL    HW155104  14.026  12.509  13.275
51069SOL    HW255105  14.064  12.525  13.129
51070SOL     OW55106  12.930   1.613  14.571
51070SOL    HW155107  13.002   1.600  14.510
51070SOL    HW255108  12.897   1.525  14.589
51071SOL     OW55109   5.807  13.150   4.619
51071SOL    HW155110   5.765  13.169   4.704
51071SOL    HW255111   5.889  13.199   4.622
51072SOL     OW55112  12.240  13.775  14.162
51072SOL    HW155113  12.152  13.813  14.166
51072SOL    HW255114  12.241  13.726  14.080
51073SOL     OW55115   3.083   0.637  11.233
51073SOL    HW155116   3.167   0.592  11.237
51073SOL    HW255117   3.101   0.724  11.268
51074SOL     OW55118   6.845   7.543  10.300
51074SOL    HW155119   6.798   7.511  10.224
51074SOL    HW255120   6.903   7.611  10.265
51075SOL     OW55121   2.839   0.734  13.152
51075SOL    HW155122   2.786   0.695  13.083
51075SOL    HW255123   2.870   0.817  13.115
51076SOL     OW55124   9.463   2.418  12.900
51076SOL    HW155125   9.508   2.339  12.929
51076SOL    HW255126   9.371   2.394  12.896
51077SOL     OW55127   7.446   4.711   7.829
51077SOL    HW155128   7.415   4.802   7.834
51077SOL    HW255129   7.406   4.668   7.905
51078SOL     OW55130   0.647  10.225   1.465
51078SOL    HW155131   0.601  10.195   1.544
51078SOL    HW255132   0.577  10.246   1.403
51079SOL     OW55133   8.378   8.814   9.046
51079SOL    HW155134   8.425   8.818   9.129
51079SOL    HW255135   8.289   8.790   9.069
51080SOL     OW55136   2.593  11.023   4.647
51080SOL    HW155137   2.535  11.099   4.652
51080SOL    HW255138   2.677  11.058   4.618
51081SOL     OW55139   1.264   8.392   6.649
51081SOL    HW155140   1.288   8.476   6.689
51081SOL    HW255141   1.258   8.411   6.555
51082SOL     OW55142  10.656  11.464  13.998
51082SOL    HW155143  10.663  11.552  14.034
51082SOL    HW255144  10.678  11.473  13.906
51083SOL     OW55145   6.715   0.325   5.314
51083SOL    HW155146   6.711   0.239   5.273
51083SOL    HW255147   6.627   0.362   5.302
51084SOL     OW55148  10.064   8.244   5.958
51084SOL    HW155149  10.075   8.297   5.879
51084SOL    HW255150  10.065   8.307   6.030
51085SOL     OW55151   9.517   4.911   1.287
51085SOL    HW155152   9.424   4.914   1.265
51085SOL    HW255153   9.521   4.931   1.380
51086SOL     OW55154   2.931  10.194   7.935
51086SOL    HW155155   2.909  10.135   7.862
51086SOL    HW255156   3.006  10.153   7.977
51087SOL     OW55157  10.355   4.044   9.342
51087SOL    HW155158  10.424   4.040   9.276
51087SOL    HW255159  10.374   4.125   9.391
51088SOL     OW55160   1.484   3.003   6.953
51088SOL    HW155161   1.392   3.026   6.942
51088SOL    HW255162   1.510   3.043   7.036
51089SOL     OW55163   6.021   3.621   4.827
51089SOL    HW155164   6.010   3.627   4.922
51089SOL    HW255165   6.011   3.710   4.796
51090SOL     OW55166   8.795  10.994   8.333
51090SOL    HW155167   8.816  11.019   8.423
51090SOL    HW255168   8.737  11.062   8.301
51091SOL     OW55169   3.255   8.402   6.297
51091SOL    HW155170   3.262   8.417   6.391
51091SOL    HW255171   3.247   8.307   6.289
51092SOL     OW55172   8.275   5.853   2.206
51092SOL    HW155173   8.313   5.929   2.250
51092SOL    HW255174   8.231   5.804   2.276
51093SOL     OW55175   8.341   5.705   5.777
51093SOL    HW155176   8.280   5.631   5.773
51093SOL    HW255177   8.347   5.736   5.687
51094SOL     OW55178  11.657   0.114   3.189
51094SOL    HW155179  11.617   0.088   3.106
51094SOL    HW255180  11.734   0.165   3.163
51095SOL     OW55181   7.698  12.610  13.409
51095SOL    HW155182   7.698  12.630  13.503
51095SOL    HW255183   7.629  12.545  13.399
51096SOL     OW55184   7.870   7.556  12.373
51096SOL    HW155185   7.903   7.476  12.414
51096SOL    HW255186   7.775   7.550  12.384
51097SOL     OW55187  12.104   6.902   9.875
51097SOL    HW155188  12.041   6.902   9.947
51097SOL    HW255189  12.161   6.976   9.894
51098SOL     OW55190   8.602   6.639   9.123
51098SOL    HW155191   8.621   6.546   9.113
51098SOL    HW255192   8.609   6.655   9.217
51099SOL     OW55193  12.041  11.213   8.438
51099SOL    HW155194  12.093  11.288   8.467
51099SOL    HW255195  12.094  11.137   8.462
51100SOL     OW55196  11.172  10.979   6.890
51100SOL    HW155197  11.092  10.937   6.858
51100SOL    HW255198  11.145  11.020   6.973
51101SOL     OW55199   8.410   8.301   8.136
51101SOL    HW155200   8.476   8.236   8.110
51101SOL    HW255201   8.431   8.378   8.083
51102SOL     OW55202  14.647   6.958   2.401
51102SOL    HW155203  14.723   6.987   2.351
51102SOL    HW255204  14.590   6.916   2.336
51103SOL     OW55205   2.444  13.463  13.435
51103SOL    HW155206   2.373  13.439  13.376
51103SOL    HW255207   2.480  13.379  13.464
51104SOL     OW55208   0.568  14.733   0.651
51104SOL    HW155209   0.564  14.644   0.686
51104SOL    HW255210   0.547  14.724   0.558
51105SOL     OW55211   9.891  12.752   5.816
51105SOL    HW155212   9.803  12.765   5.781
51105SOL    HW255213   9.892  12.801   5.898
51106SOL     OW55214   9.079  13.974   5.719
51106SOL    HW155215   9.080  14.008   5.808
51106SOL    HW255216   9.109  13.883   5.727
51107SOL     OW55217  11.289   9.139   0.791
51107SOL    HW155218  11.227   9.195   0.838
51107SOL    HW255219  11.301   9.182   0.707
51108SOL     OW55220   1.229  10.517   8.878
51108SOL    HW155221   1.147  10.472   8.857
51108SOL    HW255222   1.290  10.446   8.900
51109SOL     OW55223   7.270   5.153   3.584
51109SOL    HW155224   7.264   5.171   3.490
51109SOL    HW255225   7.347   5.201   3.613
51110SOL     OW55226   4.402  12.026   9.455
51110SOL    HW155227   4.474  12.089   9.466
51110SOL    HW255228   4.416  11.988   9.368
51111SOL     OW55229  10.220   3.476   3.808
51111SOL    HW155230  10.271   3.476   3.727
51111SOL    HW255231  10.151   3.541   3.793
51112SOL     OW55232   7.958   5.259   0.680
51112SOL    HW155233   7.992   5.257   0.590
51112SOL    HW255234   7.871   5.220   0.673
51113SOL     OW55235  14.621   3.520   9.364
51113SOL    HW155236  14.586   3.451   9.307
51113SOL    HW255237  14.663   3.581   9.304
51114SOL     OW55238   7.413   9.329  12.075
51114SOL    HW155239   7.428   9.296  12.164
51114SOL    HW255240   7.370   9.414  12.088
51115SOL     OW55241  14.542   7.721  13.363
51115SOL    HW155242  14.571   7.664  13.435
51115SOL    HW255243  14.511   7.661  13.296
51116SOL     OW55244   2.040   9.109  14.710
51116SOL    HW155245   2.021   9.065  14.793
51116SOL    HW255246   2.121   9.157  14.726
51117SOL     OW55247  12.521  10.693  12.129
51117SOL    HW155248  12.570  10.772  12.107
51117SOL    HW255249  12.436  10.725  12.161
51118SOL     OW55250  13.470   4.615   0.375
51118SOL    HW155251  13.459   4.526   0.409
51118SOL    HW255252  13.430   4.613   0.288
51119SOL     OW55253   7.194   2.766  14.080
51119SOL    HW155254   7.224   2.756  14.171
51119SOL    HW255255   7.252   2.709  14.030
51120SOL     OW55256  12.115   9.359  12.503
51120SOL    HW155257  12.105   9.454  12.513
51120SOL    HW255258  12.110   9.345  12.409
51121SOL     OW55259   1.748  11.270   5.436
51121SOL    HW155260   1.731  11.341   5.498
51121SOL    HW255261   1.753  11.314   5.351
51122SOL     OW55262  12.456   0.128  11.327
51122SOL    HW155263  12.461   0.075  11.247
51122SOL    HW255264  12.517   0.200  11.311
51123SOL     OW55265  10.487  14.104   3.140
51123SOL    HW155266  10.541  14.079   3.064
51123SOL    HW255267  10.506  14.197   3.152
51124SOL     OW55268   9.513   2.330   0.737
51124SOL    HW155269   9.547   2.315   0.826
51124SOL    HW255270   9.540   2.419   0.715
51125SOL     OW55271   9.904   9.699   8.231
51125SOL    HW155272   9.978   9.759   8.219
51125SOL    HW255273   9.918   9.630   8.167
51126SOL     OW55274   5.435   7.281  14.165
51126SOL    HW155275   5.434   7.376  14.170
51126SOL    HW255276   5.492   7.262  14.090
51127SOL     OW55277   1.242   6.565  10.292
51127SOL    HW155278   1.226   6.659  10.291
51127SOL    HW255279   1.336   6.557  10.302
51128SOL     OW55280  14.666  13.667   8.396
51128SOL    HW155281  14.695  13.732   8.461
51128SOL    HW255282  14.718  13.589   8.416
51129SOL     OW55283   9.260   1.042   7.683
51129SOL    HW155284   9.165   1.048   7.666
51129SOL    HW255285   9.300   1.090   7.611
51130SOL     OW55286   8.172  13.251   3.893
51130SOL    HW155287   8.186  13.253   3.798
51130SOL    HW255288   8.083  13.285   3.903
51131SOL     OW55289  12.534   9.536  11.028
51131SOL    HW155290  12.566   9.562  10.942
51131SOL    HW255291  12.495   9.449  11.014
51132SOL     OW55292   3.810   4.053   5.109
51132SOL    HW155293   3.797   4.141   5.146
51132SOL    HW255294   3.775   4.059   5.020
51133SOL     OW55295   7.019  12.243   1.494
51133SOL    HW155296   7.000  12.326   1.450
51133SOL    HW255297   7.103  12.215   1.457
51134SOL     OW55298   9.307   6.244   8.650
51134SOL    HW155299   9.278   6.214   8.564
51134SOL    HW255300   9.243   6.207   8.711
51135SOL     OW55301   4.297  12.576   5.778
51135SOL    HW155302   4.276  12.647   5.838
51135SOL    HW255303   4.215  12.556   5.734
51136SOL     OW55304  14.822  10.675   6.028
51136SOL    HW155305   0.004  10.698   5.953
51136SOL    HW255306  14.784  10.590   6.004
51137SOL     OW55307   1.314   9.819   3.164
51137SOL    HW155308   1.243   9.759   3.144
51137SOL    HW255309   1.282   9.905   3.138
51138SOL     OW55310   1.355  10.649   0.934
51138SOL    HW155311   1.344  10.744   0.926
51138SOL    HW255312   1.266  10.614   0.924
51139SOL     OW55313   0.070   2.369   3.767
51139SOL    HW155314   0.126   2.433   3.723
51139SOL    HW255315   0.131   2.306   3.806
51140SOL     OW55316   3.276   6.348   6.634
51140SOL    HW155317   3.255   6.308   6.718
51140SOL    HW255318   3.204   6.322   6.576
51141SOL     OW55319   7.940   6.806   7.844
51141SOL    HW155320   7.860   6.795   7.792
51141SOL    HW255321   7.948   6.901   7.854
51142SOL     OW55322  13.557   1.693   2.829
51142SOL    HW155323  13.518   1.781   2.824
51142SOL    HW255324  13.483   1.636   2.847
51143SOL     OW55325  13.455  11.325   0.967
51143SOL    HW155326  13.440  11.361   0.879
51143SOL    HW255327  13.450  11.230   0.955
51144SOL     OW55328   2.423   6.022   6.057
51144SOL    HW155329   2.425   6.032   6.153
51144SOL    HW255330   2.466   5.938   6.041
51145SOL     OW55331   5.527   5.047   1.836
51145SOL    HW155332   5.568   5.054   1.922
51145SOL    HW255333   5.523   5.137   1.804
51146SOL     OW55334  13.744   1.953   4.392
51146SOL    HW155335  13.830   1.969   4.430
51146SOL    HW255336  13.759   1.883   4.328
51147SOL     OW55337   3.277  14.711   0.814
51147SOL    HW155338   3.223  14.700   0.892
51147SOL    HW255339   3.279  14.624   0.773
51148SOL     OW55340  14.341   6.899  13.660
51148SOL    HW155341  14.435   6.885  13.657
51148SOL    HW255342  14.307   6.823  13.707
51149SOL     OW55343   2.175   9.936   0.666
51149SOL    HW155344   2.114  10.010   0.668
51149SOL    HW255345   2.205   9.931   0.575
51150SOL     OW55346  14.770   7.403   8.336
51150SOL    HW155347  14.691   7.366   8.375
51150SOL    HW255348  14.739   7.480   8.288
51151SOL     OW55349   6.551   3.128   0.490
51151SOL    HW155350   6.492   3.167   0.555
51151SOL    HW255351   6.567   3.198   0.426
51152SOL     OW55352  11.856   9.776  11.877
51152SOL    HW155353  11.903   9.838  11.821
51152SOL    HW255354  11.925   9.730  11.925
51153SOL     OW55355   1.923  12.530   5.584
51153SOL    HW155356   1.943  12.524   5.490
51153SOL    HW255357   2.004  12.501   5.626
51154SOL     OW55358   9.478   0.198   9.884
51154SOL    HW155359   9.427   0.118   9.899
51154SOL    HW255360   9.567   0.167   9.868
51155SOL     OW55361   3.457  13.912   5.038
51155SOL    HW155362   3.427  13.897   4.949
51155SOL    HW255363   3.435  13.832   5.086
51156SOL     OW55364   2.006   8.366   9.178
51156SOL    HW155365   2.057   8.440   9.146
51156SOL    HW255366   2.008   8.374   9.273
51157SOL     OW55367   3.019  10.996  10.043
51157SOL    HW155368   3.084  11.059  10.074
51157SOL    HW255369   3.053  10.965   9.959
51158SOL     OW55370   7.242   6.914  12.301
51158SOL    HW155371   7.160   6.945  12.262
51158SOL    HW255372   7.307   6.978  12.273
51159SOL     OW55373  11.609   8.220  12.653
51159SOL    HW155374  11.559   8.172  12.588
51159SOL    HW255375  11.583   8.312  12.640
51160SOL     OW55376   9.482   3.595   1.617
51160SOL    HW155377   9.462   3.664   1.553
51160SOL    HW255378   9.400   3.585   1.667
51161SOL     OW55379  10.562  10.120   8.520
51161SOL    HW155380  10.650  10.156   8.506
51161SOL    HW255381  10.508  10.165   8.456
51162SOL     OW55382   2.384   4.655  12.726
51162SOL    HW155383   2.342   4.668  12.811
51162SOL    HW255384   2.390   4.559  12.718
51163SOL     OW55385   3.822  13.100   8.904
51163SOL    HW155386   3.832  13.187   8.864
51163SOL    HW255387   3.731  13.098   8.934
51164SOL     OW55388  13.300   5.129   5.317
51164SOL    HW155389  13.356   5.173   5.380
51164SOL    HW255390  13.233   5.086   5.371
51165SOL     OW55391   6.702   9.371   4.225
51165SOL    HW155392   6.788   9.369   4.267
51165SOL    HW255393   6.666   9.457   4.249
51166SOL     OW55394   3.048   7.121  14.355
51166SOL    HW155395   2.984   7.126  14.283
51166SOL    HW255396   3.032   7.036  14.395
51167SOL     OW55397   3.464   3.619   9.499
51167SOL    HW155398   3.451   3.524   9.492
51167SOL    HW255399   3.380   3.652   9.529
51168SOL     OW55400  13.628   3.894  12.228
51168SOL    HW155401  13.695   3.923  12.166
51168SOL    HW255402  13.593   3.976  12.264
51169SOL     OW55403  10.324   4.886   3.384
51169SOL    HW155404  10.322   4.803   3.336
51169SOL    HW255405  10.277   4.948   3.329
51170SOL     OW55406   3.321   1.291   4.056
51170SOL    HW155407   3.256   1.237   4.011
51170SOL    HW255408   3.373   1.229   4.107
51171SOL     OW55409   4.654  12.878   2.959
51171SOL    HW155410   4.729  12.862   2.902
51171SOL    HW255411   4.617  12.791   2.974
51172SOL     OW55412   1.449  10.328   7.115
51172SOL    HW155413   1.443  10.403   7.175
51172SOL    HW255414   1.393  10.352   7.041
51173SOL     OW55415   8.461   2.799   9.434
51173SOL    HW155416   8.378   2.755   9.415
51173SOL    HW255417   8.438   2.892   9.439
51174SOL     OW55418   2.869   2.066  12.569
51174SOL    HW155419   2.962   2.076  12.590
51174SOL    HW255420   2.851   2.135  12.505
51175SOL     OW55421   3.737  10.242   3.184
51175SOL    HW155422   3.795  10.201   3.248
51175SOL    HW255423   3.728  10.177   3.115
51176SOL     OW55424   8.938  11.622   4.174
51176SOL    HW155425   8.853  11.593   4.207
51176SOL    HW255426   8.971  11.682   4.241
51177SOL     OW55427   7.047  10.999   7.426
51177SOL    HW155428   7.124  10.944   7.444
51177SOL    HW255429   6.991  10.988   7.502
51178SOL     OW55430   7.298   3.783  14.198
51178SOL    HW155431   7.341   3.822  14.122
51178SOL    HW255432   7.242   3.853  14.231
51179SOL     OW55433  10.899   5.862  13.506
51179SOL    HW155434  10.914   5.885  13.598
51179SOL    HW255435  10.924   5.770  13.501
51180SOL     OW55436   4.998   6.818   7.669
51180SOL    HW155437   4.968   6.758   7.601
51180SOL    HW255438   4.971   6.778   7.751
51181SOL     OW55439  12.119   7.155  13.402
51181SOL    HW155440  12.094   7.116  13.318
51181SOL    HW255441  12.198   7.108  13.428
51182SOL     OW55442  11.791   7.377   2.946
51182SOL    HW155443  11.859   7.432   2.906
51182SOL    HW255444  11.827   7.288   2.942
51183SOL     OW55445   1.050   7.455  13.084
51183SOL    HW155446   1.139   7.477  13.112
51183SOL    HW255447   1.059   7.374  13.034
51184SOL     OW55448   5.271   1.675   2.565
51184SOL    HW155449   5.295   1.594   2.610
51184SOL    HW255450   5.352   1.726   2.562
51185SOL     OW55451   0.002   2.322   7.682
51185SOL    HW155452   0.097   2.322   7.699
51185SOL    HW255453  14.835   2.349   7.765
51186SOL     OW55454  11.095  10.282  14.535
51186SOL    HW155455  11.173  10.282  14.591
51186SOL    HW255456  11.062  10.192  14.540
51187SOL     OW55457   4.503  11.681   6.515
51187SOL    HW155458   4.436  11.684   6.583
51187SOL    HW255459   4.563  11.612   6.543
51188SOL     OW55460   3.565  14.791   7.821
51188SOL    HW155461   3.660  14.786   7.809
51188SOL    HW255462   3.534  14.840   7.746
51189SOL     OW55463   4.087   7.807  12.433
51189SOL    HW155464   4.155   7.758  12.480
51189SOL    HW255465   4.125   7.824  12.347
51190SOL     OW55466  11.087  10.382  13.093
51190SOL    HW155467  11.122  10.299  13.060
51190SOL    HW255468  11.047  10.358  13.177
51191SOL     OW55469   7.706   7.835   2.149
51191SOL    HW155470   7.769   7.817   2.080
51191SOL    HW255471   7.754   7.890   2.211
51192SOL     OW55472  11.608  12.402   3.784
51192SOL    HW155473  11.656  12.364   3.858
51192SOL    HW255474  11.586  12.490   3.813
51193SOL     OW55475   3.172   4.124   3.569
51193SOL    HW155476   3.201   4.080   3.650
51193SOL    HW255477   3.088   4.084   3.549
51194SOL     OW55478  14.236   3.668   4.284
51194SOL    HW155479  14.257   3.714   4.366
51194SOL    HW255480  14.210   3.581   4.312
51195SOL     OW55481   0.394  14.488   7.597
51195SOL    HW155482   0.363  14.420   7.538
51195SOL    HW255483   0.322  14.501   7.659
51196SOL     OW55484  10.412   9.173   8.190
51196SOL    HW155485  10.388   9.190   8.281
51196SOL    HW255486  10.339   9.121   8.156
51197SOL     OW55487   5.190   1.626   2.202
51197SOL    HW155488   5.254   1.578   2.256
51197SOL    HW255489   5.111   1.628   2.256
51198SOL     OW55490   5.784   4.245   4.078
51198SOL    HW155491   5.742   4.164   4.107
51198SOL    HW255492   5.771   4.306   4.149
51199SOL     OW55493   8.172  10.529   2.845
51199SOL    HW155494   8.230  10.582   2.791
51199SOL    HW255495   8.117  10.482   2.782
51200SOL     OW55496  13.291   8.322  10.544
51200SOL    HW155497  13.304   8.356  10.455
51200SOL    HW255498  13.196   8.312  10.552
51201SOL     OW55499   7.691   4.437   0.434
51201SOL    HW155500   7.633   4.504   0.470
51201SOL    HW255501   7.732   4.398   0.511
51202SOL     OW55502   2.835   2.375   2.155
51202SOL    HW155503   2.913   2.337   2.195
51202SOL    HW255504   2.801   2.436   2.221
51203SOL     OW55505  12.912  11.916  10.141
51203SOL    HW155506  12.900  11.844  10.080
51203SOL    HW255507  13.006  11.933  10.139
51204SOL     OW55508   5.542   0.743   2.075
51204SOL    HW155509   5.550   0.797   1.997
51204SOL    HW255510   5.630   0.740   2.112
51205SOL     OW55511   4.346   0.582   5.156
51205SOL    HW155512   4.323   0.664   5.111
51205SOL    HW255513   4.383   0.527   5.087
51206SOL     OW55514  12.132  12.568  13.574
51206SOL    HW155515  12.202  12.505  13.587
51206SOL    HW255516  12.135  12.625  13.651
51207SOL     OW55517   2.086   3.955   7.834
51207SOL    HW155518   2.150   3.885   7.822
51207SOL    HW255519   2.136   4.026   7.876
51208SOL     OW55520   6.622   7.987   0.729
51208SOL    HW155521   6.643   8.077   0.752
51208SOL    HW255522   6.553   7.962   0.790
51209SOL     OW55523  10.282  12.157   6.829
51209SOL    HW155524  10.207  12.187   6.880
51209SOL    HW255525  10.267  12.191   6.741
51210SOL     OW55526   3.689  11.295  14.519
51210SOL    HW155527   3.699  11.234  14.446
51210SOL    HW255528   3.733  11.253  14.592
51211SOL     OW55529  14.215   5.662   3.880
51211SOL    HW155530  14.179   5.574   3.885
51211SOL    HW255531  14.158   5.715   3.936
51212SOL     OW55532   2.268  14.007   5.914
51212SOL    HW155533   2.182  13.966   5.916
51212SOL    HW255534   2.320  13.950   5.858
51213SOL     OW55535   0.745   8.338   6.258
51213SOL    HW155536   0.764   8.326   6.350
51213SOL    HW255537   0.702   8.424   6.253
51214SOL     OW55538  12.085   9.860   8.421
51214SOL    HW155539  12.149   9.789   8.432
51214SOL    HW255540  12.122   9.914   8.351
51215SOL     OW55541   4.696   5.628   0.302
51215SOL    HW155542   4.667   5.686   0.232
51215SOL    HW255543   4.791   5.623   0.293
51216SOL     OW55544   1.914  12.065   4.923
51216SOL    HW155545   1.982  12.039   4.861
51216SOL    HW255546   1.860  11.986   4.933
51217SOL     OW55547  11.703   1.078   7.493
51217SOL    HW155548  11.740   0.990   7.499
51217SOL    HW255549  11.717   1.115   7.580
51218SOL     OW55550   6.900   0.257   5.548
51218SOL    HW155551   6.933   0.170   5.571
51218SOL    HW255552   6.842   0.242   5.473
51219SOL     OW55553   6.142   9.408   8.627
51219SOL    HW155554   6.047   9.413   8.634
51219SOL    HW255555   6.169   9.491   8.589
51220SOL     OW55556   2.847   6.490   0.564
51220SOL    HW155557   2.862   6.574   0.522
51220SOL    HW255558   2.752   6.487   0.578
51221SOL     OW55559   8.111  12.475  11.823
51221SOL    HW155560   8.116  12.380  11.831
51221SOL    HW255561   8.202  12.505  11.831
51222SOL     OW55562   0.245  13.529   4.134
51222SOL    HW155563   0.247  13.524   4.038
51222SOL    HW255564   0.168  13.477   4.158
51223SOL     OW55565  13.371   2.550   3.103
51223SOL    HW155566  13.293   2.506   3.136
51223SOL    HW255567  13.412   2.484   3.046
51224SOL     OW55568   8.233   2.609   9.404
51224SOL    HW155569   8.230   2.533   9.346
51224SOL    HW255570   8.143   2.618   9.435
51225SOL     OW55571   5.115  11.325   6.996
51225SOL    HW155572   5.042  11.385   6.982
51225SOL    HW255573   5.141  11.298   6.908
51226SOL     OW55574   9.598  12.925   3.531
51226SOL    HW155575   9.575  12.915   3.439
51226SOL    HW255576   9.586  13.018   3.550
51227SOL     OW55577   7.310   7.637  14.572
51227SOL    HW155578   7.387   7.681  14.537
51227SOL    HW255579   7.237   7.673  14.522
51228SOL     OW55580   7.563   2.914   7.227
51228SOL    HW155581   7.556   2.914   7.322
51228SOL    HW255582   7.631   2.978   7.207
51229SOL     OW55583   1.504   3.808  10.586
51229SOL    HW155584   1.423   3.769  10.618
51229SOL    HW255585   1.572   3.746  10.612
51230SOL     OW55586   1.720   3.943   5.186
51230SOL    HW155587   1.771   3.994   5.124
51230SOL    HW255588   1.640   3.994   5.199
51231SOL     OW55589  13.807   3.412   6.345
51231SOL    HW155590  13.864   3.485   6.369
51231SOL    HW255591  13.866   3.346   6.310
51232SOL     OW55592  13.311  12.724   7.360
51232SOL    HW155593  13.323  12.734   7.265
51232SOL    HW255594  13.386  12.673   7.389
51233SOL     OW55595   0.796   6.614  10.017
51233SOL    HW155596   0.790   6.600   9.922
51233SOL    HW255597   0.792   6.709  10.027
51234SOL     OW55598  10.637   5.982  12.575
51234SOL    HW155599  10.577   6.045  12.615
51234SOL    HW255600  10.724   6.022  12.586
51235SOL     OW55601   6.160   5.569   9.641
51235SOL    HW155602   6.207   5.629   9.699
51235SOL    HW255603   6.075   5.556   9.683
51236SOL     OW55604   0.702   6.178  11.711
51236SOL    HW155605   0.654   6.230  11.774
51236SOL    HW255606   0.677   6.087  11.730
51237SOL     OW55607  12.868   7.462  14.532
51237SOL    HW155608  12.935   7.399  14.557
51237SOL    HW255609  12.895   7.543  14.576
51238SOL     OW55610   9.482  11.627   5.171
51238SOL    HW155611   9.418  11.649   5.238
51238SOL    HW255612   9.504  11.535   5.187
51239SOL     OW55613   5.691   7.194  13.467
51239SOL    HW155614   5.673   7.274  13.419
51239SOL    HW255615   5.687   7.125  13.401
51240SOL     OW55616  13.962   3.930   8.320
51240SOL    HW155617  13.957   3.836   8.336
51240SOL    HW255618  13.881   3.952   8.273
51241SOL     OW55619  14.704   6.172   6.781
51241SOL    HW155620  14.768   6.108   6.813
51241SOL    HW255621  14.756   6.249   6.761
51242SOL     OW55622  12.829  11.813  12.242
51242SOL    HW155623  12.818  11.813  12.147
51242SOL    HW255624  12.896  11.878  12.259
51243SOL     OW55625   6.008   8.740   7.043
51243SOL    HW155626   6.042   8.732   6.953
51243SOL    HW255627   5.953   8.662   7.054
51244SOL     OW55628   0.303   1.177   6.003
51244SOL    HW155629   0.300   1.095   6.052
51244SOL    HW255630   0.372   1.227   6.045
51245SOL     OW55631  13.961   2.132   4.928
51245SOL    HW155632  13.921   2.055   4.968
51245SOL    HW255633  13.974   2.193   5.000
51246SOL     OW55634   8.308   3.304   1.433
51246SOL    HW155635   8.401   3.300   1.410
51246SOL    HW255636   8.305   3.358   1.511
51247SOL     OW55637   5.787   2.910   7.751
51247SOL    HW155638   5.767   2.829   7.704
51247SOL    HW255639   5.716   2.969   7.728
51248SOL     OW55640   6.684   5.458   8.236
51248SOL    HW155641   6.739   5.472   8.313
51248SOL    HW255642   6.633   5.539   8.227
51249SOL     OW55643  10.728   1.313   2.285
51249SOL    HW155644  10.691   1.346   2.203
51249SOL    HW255645  10.737   1.391   2.340
51250SOL     OW55646   3.010   4.951   2.468
51250SOL    HW155647   3.054   4.874   2.504
51250SOL    HW255648   2.991   5.006   2.544
51251SOL     OW55649   4.658  13.024   5.442
51251SOL    HW155650   4.711  13.096   5.407
51251SOL    HW255651   4.720  12.954   5.458
51252SOL     OW55652   6.387   2.237  12.950
51252SOL    HW155653   6.418   2.284  13.027
51252SOL    HW255654   6.393   2.301  12.879
51253SOL     OW55655  12.034   4.885  12.255
51253SOL    HW155656  11.970   4.842  12.198
51253SOL    HW255657  11.981   4.928  12.321
51254SOL     OW55658   3.750  11.723  14.608
51254SOL    HW155659   3.701  11.715  14.526
51254SOL    HW255660   3.829  11.671  14.594
51255SOL     OW55661   0.881   6.243  11.260
51255SOL    HW155662   0.834   6.208  11.185
51255SOL    HW255663   0.856   6.335  11.263
51256SOL     OW55664   9.127   6.725  11.568
51256SOL    HW155665   9.111   6.777  11.647
51256SOL    HW255666   9.055   6.663  11.565
51257SOL     OW55667   1.731   3.261   3.599
51257SOL    HW155668   1.659   3.324   3.605
51257SOL    HW255669   1.770   3.277   3.513
51258SOL     OW55670   9.666   4.150   0.266
51258SOL    HW155671   9.601   4.212   0.298
51258SOL    HW255672   9.710   4.196   0.194
51259SOL     OW55673   9.657  13.191   4.999
51259SOL    HW155674   9.605  13.148   5.067
51259SOL    HW255675   9.724  13.128   4.976
51260SOL     OW55676   9.003   8.709   5.864
51260SOL    HW155677   8.952   8.758   5.801
51260SOL    HW255678   9.032   8.774   5.928
51261SOL     OW55679   3.907   7.277   1.306
51261SOL    HW155680   3.842   7.243   1.367
51261SOL    HW255681   3.991   7.260   1.349
51262SOL     OW55682   7.579   0.277   2.847
51262SOL    HW155683   7.500   0.247   2.891
51262SOL    HW255684   7.603   0.204   2.790
51263SOL     OW55685   2.775  13.371   1.880
51263SOL    HW155686   2.725  13.432   1.826
51263SOL    HW255687   2.845  13.424   1.917
51264SOL     OW55688   4.626   9.858   1.053
51264SOL    HW155689   4.600   9.775   1.013
51264SOL    HW255690   4.651   9.834   1.142
51265SOL     OW55691  10.396   8.814   1.771
51265SOL    HW155692  10.364   8.904   1.762
51265SOL    HW255693  10.368   8.788   1.859
51266SOL     OW55694  12.548  10.551   1.263
51266SOL    HW155695  12.470  10.496   1.259
51266SOL    HW255696  12.620  10.490   1.280
51267SOL     OW55697   4.156  12.606   5.046
51267SOL    HW155698   4.184  12.526   5.089
51267SOL    HW255699   4.191  12.599   4.957
51268SOL     OW55700   6.701   3.251   0.015
51268SOL    HW155701   6.794   3.270   0.021
51268SOL    HW255702   6.659   3.319   0.068
51269SOL     OW55703   8.015   6.174   9.308
51269SOL    HW155704   8.061   6.198   9.228
51269SOL    HW255705   7.999   6.080   9.299
51270SOL     OW55706   2.942  13.389  13.686
51270SOL    HW155707   2.996  13.467  13.692
51270SOL    HW255708   2.898  13.396  13.601
51271SOL     OW55709  11.888   9.228  11.173
51271SOL    HW155710  11.953   9.244  11.105
51271SOL    HW255711  11.890   9.133  11.186
51272SOL     OW55712  10.455   3.537  10.023
51272SOL    HW155713  10.419   3.622   9.997
51272SOL    HW255714  10.387   3.498  10.079
51273SOL     OW55715   3.326   7.522   9.779
51273SOL    HW155716   3.294   7.560   9.698
51273SOL    HW255717   3.410   7.483   9.757
51274SOL     OW55718  14.512   6.149   4.175
51274SOL    HW155719  14.500   6.173   4.267
51274SOL    HW255720  14.493   6.055   4.172
51275SOL     OW55721   3.007   9.231   6.124
51275SOL    HW155722   2.942   9.180   6.075
51275SOL    HW255723   3.089   9.181   6.113
51276SOL     OW55724   1.569   1.647   0.204
51276SOL    HW155725   1.540   1.605   0.284
51276SOL    HW255726   1.634   1.587   0.167
51277SOL     OW55727   7.862   1.283  13.952
51277SOL    HW155728   7.948   1.244  13.938
51277SOL    HW255729   7.879   1.377  13.960
51278SOL     OW55730   0.698  12.978  10.799
51278SOL    HW155731   0.707  13.054  10.742
51278SOL    HW255732   0.787  12.959  10.829
51279SOL     OW55733  14.097   2.019  13.954
51279SOL    HW155734  14.126   1.991  13.867
51279SOL    HW255735  14.070   2.110  13.941
51280SOL     OW55736  13.434  12.585   7.733
51280SOL    HW155737  13.464  12.539   7.811
51280SOL    HW255738  13.474  12.671   7.739
51281SOL     OW55739   2.359  10.558  11.099
51281SOL    HW155740   2.393  10.562  11.009
51281SOL    HW255741   2.276  10.512  11.091
51282SOL     OW55742  10.244  13.501  13.924
51282SOL    HW155743  10.237  13.577  13.982
51282SOL    HW255744  10.185  13.521  13.852
51283SOL     OW55745   1.711  11.002   5.549
51283SOL    HW155746   1.662  11.034   5.625
51283SOL    HW255747   1.733  11.081   5.500
51284SOL     OW55748   2.597   5.169   1.153
51284SOL    HW155749   2.539   5.176   1.077
51284SOL    HW255750   2.622   5.076   1.156
51285SOL     OW55751   8.793   0.059  11.411
51285SOL    HW155752   8.777   0.116  11.335
51285SOL    HW255753   8.850   0.111  11.468
51286SOL     OW55754  13.644   9.665   3.210
51286SOL    HW155755  13.608   9.700   3.291
51286SOL    HW255756  13.574   9.673   3.147
51287SOL     OW55757  10.581   0.356   3.219
51287SOL    HW155758  10.560   0.297   3.291
51287SOL    HW255759  10.548   0.311   3.141
51288SOL     OW55760  14.633   3.279   1.047
51288SOL    HW155761  14.645   3.211   0.981
51288SOL    HW255762  14.631   3.361   0.997
51289SOL     OW55763   9.380   5.847   6.413
51289SOL    HW155764   9.468   5.835   6.449
51289SOL    HW255765   9.322   5.818   6.483
51290SOL     OW55766   2.359   4.282   8.481
51290SOL    HW155767   2.385   4.191   8.466
51290SOL    HW255768   2.263   4.279   8.486
51291SOL     OW55769  13.117   5.736   6.813
51291SOL    HW155770  13.207   5.706   6.802
51291SOL    HW255771  13.063   5.661   6.788
51292SOL     OW55772  10.240   2.687   2.648
51292SOL    HW155773  10.185   2.663   2.573
51292SOL    HW255774  10.182   2.679   2.724
51293SOL     OW55775   2.772   3.830   4.025
51293SOL    HW155776   2.682   3.833   3.993
51293SOL    HW255777   2.797   3.922   4.035
51294SOL     OW55778   7.891   0.507  14.646
51294SOL    HW155779   7.804   0.466  14.653
51294SOL    HW255780   7.951   0.439  14.676
51295SOL     OW55781  14.094   9.728   4.979
51295SOL    HW155782  14.118   9.819   4.991
51295SOL    HW255783  14.150   9.697   4.908
51296SOL     OW55784   4.103  12.822  12.155
51296SOL    HW155785   4.148  12.743  12.125
51296SOL    HW255786   4.018  12.820  12.110
51297SOL     OW55787   1.294  10.917   0.950
51297SOL    HW155788   1.287  10.975   1.025
51297SOL    HW255789   1.331  10.972   0.880
51298SOL     OW55790   2.620  14.193  10.380
51298SOL    HW155791   2.621  14.103  10.412
51298SOL    HW255792   2.700  14.200  10.328
51299SOL     OW55793   7.397   7.838   8.087
51299SOL    HW155794   7.483   7.818   8.048
51299SOL    HW255795   7.335   7.787   8.035
51300SOL     OW55796   3.427  11.013   3.533
51300SOL    HW155797   3.506  10.960   3.518
51300SOL    HW255798   3.459  11.102   3.542
51301SOL     OW55799  14.824   6.639   7.922
51301SOL    HW155800   0.043   6.609   7.920
51301SOL    HW255801  14.809   6.675   7.834
51302SOL     OW55802   5.003   9.238   8.221
51302SOL    HW155803   4.946   9.172   8.261
51302SOL    HW255804   5.089   9.196   8.219
51303SOL     OW55805   3.576   3.983  13.627
51303SOL    HW155806   3.538   3.959  13.712
51303SOL    HW255807   3.540   3.920  13.565
51304SOL     OW55808  12.074   0.258   7.946
51304SOL    HW155809  12.089   0.326   8.012
51304SOL    HW255810  12.022   0.192   7.991
51305SOL     OW55811   6.520   9.307   0.477
51305SOL    HW155812   6.558   9.343   0.396
51305SOL    HW255813   6.466   9.234   0.447
51306SOL     OW55814   6.345  13.642   6.762
51306SOL    HW155815   6.299  13.703   6.820
51306SOL    HW255816   6.303  13.655   6.677
51307SOL     OW55817   9.468  12.314  12.345
51307SOL    HW155818   9.417  12.335  12.424
51307SOL    HW255819   9.471  12.218  12.344
51308SOL     OW55820   3.933   4.985  10.542
51308SOL    HW155821   3.950   5.036  10.463
51308SOL    HW255822   3.991   5.023  10.608
51309SOL     OW55823   6.821   2.775   1.179
51309SOL    HW155824   6.829   2.865   1.148
51309SOL    HW255825   6.728   2.763   1.196
51310SOL     OW55826  12.174   2.345   5.623
51310SOL    HW155827  12.171   2.432   5.663
51310SOL    HW255828  12.119   2.290   5.679
51311SOL     OW55829   3.507  14.230   1.403
51311SOL    HW155830   3.492  14.289   1.330
51311SOL    HW255831   3.426  14.233   1.454
51312SOL     OW55832   5.944  12.294   7.725
51312SOL    HW155833   5.855  12.280   7.693
51312SOL    HW255834   5.982  12.356   7.663
51313SOL     OW55835   2.619   5.218  10.378
51313SOL    HW155836   2.531   5.194  10.407
51313SOL    HW255837   2.677   5.180  10.444
51314SOL     OW55838   6.029   5.116  11.768
51314SOL    HW155839   6.083   5.075  11.701
51314SOL    HW255840   6.091   5.159  11.827
51315SOL     OW55841  11.528  11.771  12.476
51315SOL    HW155842  11.524  11.866  12.471
51315SOL    HW255843  11.462  11.747  12.541
51316SOL     OW55844   8.161  11.310  14.854
51316SOL    HW155845   8.245  11.324   0.025
51316SOL    HW255846   8.101  11.370   0.026
51317SOL     OW55847  11.940  10.844  10.904
51317SOL    HW155848  12.025  10.815  10.871
51317SOL    HW255849  11.944  10.940  10.900
51318SOL     OW55850   1.327   5.468   8.148
51318SOL    HW155851   1.313   5.431   8.235
51318SOL    HW255852   1.244   5.509   8.125
51319SOL     OW55853   1.790   0.811   7.127
51319SOL    HW155854   1.713   0.758   7.110
51319SOL    HW255855   1.766   0.899   7.096
51320SOL     OW55856   4.127  11.872   0.289
51320SOL    HW155857   4.101  11.787   0.254
51320SOL    HW255858   4.114  11.864   0.383
51321SOL     OW55859   6.274  11.635  12.780
51321SOL    HW155860   6.326  11.689  12.839
51321SOL    HW255861   6.318  11.643  12.695
51322SOL     OW55862   3.751   3.676  13.174
51322SOL    HW155863   3.823   3.721  13.130
51322SOL    HW255864   3.737   3.727  13.254
51323SOL     OW55865  11.300   0.093  13.090
51323SOL    HW155866  11.217   0.046  13.095
51323SOL    HW255867  11.282   0.178  13.131
51324SOL     OW55868  10.577   0.883   4.498
51324SOL    HW155869  10.493   0.892   4.542
51324SOL    HW255870  10.641   0.877   4.569
51325SOL     OW55871   4.936   7.010  14.772
51325SOL    HW155872   4.853   7.057  14.779
51325SOL    HW255873   4.986   7.037  14.848
51326SOL     OW55874  13.618   7.958   3.678
51326SOL    HW155875  13.615   7.940   3.584
51326SOL    HW255876  13.672   8.037   3.685
51327SOL     OW55877   3.498   6.427   8.403
51327SOL    HW155878   3.478   6.517   8.377
51327SOL    HW255879   3.534   6.436   8.491
51328SOL     OW55880  11.205   4.733  11.286
51328SOL    HW155881  11.130   4.691  11.329
51328SOL    HW255882  11.266   4.662  11.270
51329SOL     OW55883   2.830   5.557   5.326
51329SOL    HW155884   2.808   5.479   5.274
51329SOL    HW255885   2.925   5.565   5.318
51330SOL     OW55886  14.577   3.263   2.133
51330SOL    HW155887  14.628   3.283   2.054
51330SOL    HW255888  14.635   3.284   2.205
51331SOL     OW55889   8.467   8.772   3.008
51331SOL    HW155890   8.418   8.711   3.064
51331SOL    HW255891   8.554   8.775   3.048
51332SOL     OW55892  14.399  12.912   3.147
51332SOL    HW155893  14.491  12.893   3.163
51332SOL    HW255894  14.356  12.826   3.150
51333SOL     OW55895   8.560   5.413   9.610
51333SOL    HW155896   8.635   5.439   9.663
51333SOL    HW255897   8.573   5.320   9.593
51334SOL     OW55898   7.419  14.200   1.807
51334SOL    HW155899   7.459  14.264   1.865
51334SOL    HW255900   7.358  14.251   1.753
51335SOL     OW55901   1.146   7.197   7.236
51335SOL    HW155902   1.092   7.181   7.314
51335SOL    HW255903   1.137   7.291   7.220
51336SOL     OW55904   3.818   6.668   7.114
51336SOL    HW155905   3.807   6.615   7.192
51336SOL    HW255906   3.734   6.713   7.103
51337SOL     OW55907   7.765   0.727   6.340
51337SOL    HW155908   7.792   0.777   6.263
51337SOL    HW255909   7.769   0.790   6.412
51338SOL     OW55910   2.260  12.969   9.148
51338SOL    HW155911   2.210  13.047   9.173
51338SOL    HW255912   2.334  12.968   9.209
51339SOL     OW55913   1.220  13.913   6.571
51339SOL    HW155914   1.134  13.937   6.607
51339SOL    HW255915   1.201  13.845   6.507
51340SOL     OW55916   0.178   8.120   0.592
51340SOL    HW155917   0.151   8.031   0.613
51340SOL    HW255918   0.196   8.118   0.498
51341SOL     OW55919  10.214   0.809   9.831
51341SOL    HW155920  10.226   0.715   9.842
51341SOL    HW255921  10.255   0.829   9.747
51342SOL     OW55922   9.701  12.552   9.007
51342SOL    HW155923   9.731  12.641   8.988
51342SOL    HW255924   9.722  12.538   9.099
51343SOL     OW55925  11.609   4.085  14.568
51343SOL    HW155926  11.515   4.101  14.558
51343SOL    HW255927  11.628   4.017  14.504
51344SOL     OW55928  14.155  12.021  12.441
51344SOL    HW155929  14.248  12.003  12.455
51344SOL    HW255930  14.152  12.067  12.357
51345SOL     OW55931   5.760   2.790   3.460
51345SOL    HW155932   5.778   2.867   3.407
51345SOL    HW255933   5.735   2.825   3.545
51346SOL     OW55934  10.607   3.760  13.365
51346SOL    HW155935  10.699   3.780  13.380
51346SOL    HW255936  10.606   3.667  13.340
51347SOL     OW55937   2.028   9.888   6.205
51347SOL    HW155938   1.932   9.891   6.197
51347SOL    HW255939   2.059   9.955   6.144
51348SOL     OW55940   7.974   7.229   8.738
51348SOL    HW155941   8.047   7.265   8.687
51348SOL    HW255942   8.014   7.160   8.791
51349SOL     OW55943   0.300   8.319   3.752
51349SOL    HW155944   0.345   8.399   3.722
51349SOL    HW255945   0.219   8.350   3.792
51350SOL     OW55946  14.465   5.907   6.149
51350SOL    HW155947  14.434   5.885   6.061
51350SOL    HW255948  14.475   5.823   6.193
51351SOL     OW55949   0.630   1.434  11.462
51351SOL    HW155950   0.695   1.485  11.509
51351SOL    HW255951   0.561   1.496  11.440
51352SOL     OW55952   2.771   8.652   0.346
51352SOL    HW155953   2.784   8.625   0.256
51352SOL    HW255954   2.789   8.573   0.398
51353SOL     OW55955   4.389   4.404  14.192
51353SOL    HW155956   4.375   4.315  14.159
51353SOL    HW255957   4.345   4.460  14.128
51354SOL     OW55958   6.860  13.814  10.518
51354SOL    HW155959   6.806  13.745  10.479
51354SOL    HW255960   6.941  13.770  10.543
51355SOL     OW55961  14.146   3.092  13.694
51355SOL    HW155962  14.076   3.149  13.726
51355SOL    HW255963  14.102   3.011  13.669
51356SOL     OW55964   4.483   9.796   3.316
51356SOL    HW155965   4.501   9.704   3.299
51356SOL    HW255966   4.543   9.843   3.258
51357SOL     OW55967  14.024   9.353   0.920
51357SOL    HW155968  14.112   9.315   0.913
51357SOL    HW255969  13.970   9.300   0.862
51358SOL     OW55970   4.105  14.081   9.584
51358SOL    HW155971   4.080  14.003   9.535
51358SOL    HW255972   4.157  14.049   9.657
51359SOL     OW55973   1.182   4.051   6.190
51359SOL    HW155974   1.179   4.145   6.203
51359SOL    HW255975   1.108   4.032   6.132
51360SOL     OW55976   7.539   9.975   4.192
51360SOL    HW155977   7.445   9.991   4.185
51360SOL    HW255978   7.579  10.056   4.162
51361SOL     OW55979  13.123   7.171   4.036
51361SOL    HW155980  13.217   7.169   4.050
51361SOL    HW255981  13.086   7.183   4.123
51362SOL     OW55982  11.851  12.087  13.691
51362SOL    HW155983  11.917  12.048  13.634
51362SOL    HW255984  11.825  12.016  13.749
51363SOL     OW55985  11.520   6.713  11.852
51363SOL    HW155986  11.452   6.749  11.795
51363SOL    HW255987  11.602   6.744  11.814
51364SOL     OW55988  10.603   9.249   3.656
51364SOL    HW155989  10.541   9.254   3.582
51364SOL    HW255990  10.689   9.260   3.616
51365SOL     OW55991  14.649   7.918   7.884
51365SOL    HW155992  14.664   7.903   7.977
51365SOL    HW255993  14.554   7.917   7.874
51366SOL     OW55994   4.926  12.931   8.786
51366SOL    HW155995   4.864  12.907   8.718
51366SOL    HW255996   4.876  12.986   8.847
51367SOL     OW55997   5.584   9.573  11.630
51367SOL    HW155998   5.650   9.581  11.561
51367SOL    HW255999   5.575   9.662  11.665
51368SOL     OW56000   9.446   6.758   9.962
51368SOL    HW156001   9.382   6.782  10.029
51368SOL    HW256002   9.395   6.750   9.881
51369SOL     OW56003   3.845   9.591  10.068
51369SOL    HW156004   3.846   9.627  10.156
51369SOL    HW256005   3.810   9.502  10.078
51370SOL     OW56006  14.165   9.238   0.268
51370SOL    HW156007  14.141   9.242   0.176
51370SOL    HW256008  14.206   9.322   0.286
51371SOL     OW56009   8.283   4.956   1.077
51371SOL    HW156010   8.352   4.944   1.143
51371SOL    HW256011   8.215   5.006   1.121
51372SOL     OW56012   9.551  13.240   8.579
51372SOL    HW156013   9.625  13.231   8.639
51372SOL    HW256014   9.566  13.324   8.535
51373SOL     OW56015  12.215   6.032  11.189
51373SOL    HW156016  12.199   6.055  11.280
51373SOL    HW256017  12.194   5.938  11.184
51374SOL     OW56018  12.516   9.047   0.627
51374SOL    HW156019  12.553   9.110   0.566
51374SOL    HW256020  12.540   9.080   0.714
51375SOL     OW56021   8.329  11.689   2.027
51375SOL    HW156022   8.330  11.712   2.119
51375SOL    HW256023   8.312  11.771   1.981
51376SOL     OW56024   1.329   1.470   2.074
51376SOL    HW156025   1.272   1.484   1.998
51376SOL    HW256026   1.379   1.551   2.082
51377SOL     OW56027   9.311  10.760   2.725
51377SOL    HW156028   9.312  10.848   2.688
51377SOL    HW256029   9.296  10.702   2.650
51378SOL     OW56030   0.764  11.961   6.951
51378SOL    HW156031   0.740  11.976   6.859
51378SOL    HW256032   0.707  11.890   6.979
51379SOL     OW56033   0.455  11.029  11.146
51379SOL    HW156034   0.465  10.944  11.189
51379SOL    HW256035   0.389  11.074  11.199
51380SOL     OW56036  14.829  13.776   1.957
51380SOL    HW156037  14.769  13.795   1.884
51380SOL    HW256038  14.773  13.768   2.033
51381SOL     OW56039  12.778  14.807  10.069
51381SOL    HW156040  12.847  14.863  10.033
51381SOL    HW256041  12.739  14.859  10.139
51382SOL     OW56042   8.577   1.807   6.903
51382SOL    HW156043   8.558   1.713   6.909
51382SOL    HW256044   8.611   1.830   6.989
51383SOL     OW56045   9.870  12.705   1.828
51383SOL    HW156046   9.920  12.687   1.748
51383SOL    HW256047   9.910  12.649   1.894
51384SOL     OW56048   8.112  11.350  13.530
51384SOL    HW156049   8.111  11.378  13.622
51384SOL    HW256050   8.203  11.330  13.511
51385SOL     OW56051  10.309   5.572  14.284
51385SOL    HW156052  10.383   5.531  14.241
51385SOL    HW256053  10.237   5.565  14.221
51386SOL     OW56054   3.559   6.441   7.015
51386SOL    HW156055   3.581   6.390   7.093
51386SOL    HW256056   3.463   6.439   7.012
51387SOL     OW56057   8.817   9.268  13.513
51387SOL    HW156058   8.813   9.322  13.434
51387SOL    HW256059   8.747   9.204  13.502
51388SOL     OW56060   3.923  12.463  12.479
51388SOL    HW156061   3.912  12.555  12.502
51388SOL    HW256062   3.919  12.461  12.383
51389SOL     OW56063   2.847  10.182   3.148
51389SOL    HW156064   2.897  10.104   3.124
51389SOL    HW256065   2.911  10.238   3.193
51390SOL     OW56066  10.428  14.748  13.701
51390SOL    HW156067  10.504  14.801  13.676
51390SOL    HW256068  10.360  14.772  13.638
51391SOL     OW56069  12.269   1.352  10.546
51391SOL    HW156070  12.197   1.329  10.487
51391SOL    HW256071  12.339   1.383  10.487
51392SOL     OW56072   2.408   8.231   3.162
51392SOL    HW156073   2.420   8.136   3.163
51392SOL    HW256074   2.497   8.266   3.159
51393SOL     OW56075  12.127  11.126  11.996
51393SOL    HW156076  12.068  11.129  12.071
51393SOL    HW256077  12.211  11.099  12.032
51394SOL     OW56078  14.308  10.264  13.306
51394SOL    HW156079  14.331  10.176  13.335
51394SOL    HW256080  14.235  10.289  13.363
51395SOL     OW56081   7.930   3.028   9.541
51395SOL    HW156082   7.989   3.078   9.485
51395SOL    HW256083   7.857   3.088   9.558
51396SOL     OW56084   2.765  11.706   1.188
51396SOL    HW156085   2.716  11.721   1.268
51396SOL    HW256086   2.772  11.611   1.181
51397SOL     OW56087   3.487  14.834   2.987
51397SOL    HW156088   3.580  14.843   2.967
51397SOL    HW256089   3.454  14.771   2.922
51398SOL     OW56090   8.343   3.128   7.525
51398SOL    HW156091   8.298   3.196   7.474
51398SOL    HW256092   8.427   3.116   7.481
51399SOL     OW56093  12.648  10.666   6.062
51399SOL    HW156094  12.663  10.593   6.001
51399SOL    HW256095  12.728  10.719   6.056
51400SOL     OW56096   9.309  11.860  10.532
51400SOL    HW156097   9.401  11.884  10.526
51400SOL    HW256098   9.297  11.837  10.625
51401SOL     OW56099   1.895  12.798  12.003
51401SOL    HW156100   1.966  12.770  12.061
51401SOL    HW256101   1.915  12.889  11.982
51402SOL     OW56102   2.405  11.356  13.997
51402SOL    HW156103   2.400  11.425  13.932
51402SOL    HW256104   2.498  11.351  14.020
51403SOL     OW56105   6.994   9.839  12.545
51403SOL    HW156106   7.030   9.751  12.555
51403SOL    HW256107   6.989   9.873  12.634
51404SOL     OW56108   8.092  10.552  13.947
51404SOL    HW156109   8.116  10.504  13.868
51404SOL    HW256110   8.022  10.611  13.918
51405SOL     OW56111   0.587   8.649   8.663
51405SOL    HW156112   0.506   8.628   8.617
51405SOL    HW256113   0.603   8.741   8.646
51406SOL     OW56114  10.669  11.984  10.598
51406SOL    HW156115  10.626  11.948  10.675
51406SOL    HW256116  10.763  11.978  10.618
51407SOL     OW56117   0.833  11.408  11.934
51407SOL    HW156118   0.902  11.344  11.954
51407SOL    HW256119   0.881  11.488  11.911
51408SOL     OW56120   0.670   6.964  10.932
51408SOL    HW156121   0.659   6.890  10.873
51408SOL    HW256122   0.651   6.928  11.019
51409SOL     OW56123   5.891   8.866  12.422
51409SOL    HW156124   5.912   8.828  12.507
51409SOL    HW256125   5.876   8.959  12.440
51410SOL     OW56126   8.065   0.366   9.585
51410SOL    HW156127   8.068   0.413   9.502
51410SOL    HW256128   7.977   0.330   9.589
51411SOL     OW56129   7.497   9.331   2.411
51411SOL    HW156130   7.565   9.277   2.369
51411SOL    HW256131   7.461   9.383   2.339
51412SOL     OW56132   9.820  14.697   8.953
51412SOL    HW156133   9.869  14.723   8.875
51412SOL    HW256134   9.754  14.766   8.963
51413SOL     OW56135   8.681   0.439   8.564
51413SOL    HW156136   8.616   0.413   8.498
51413SOL    HW256137   8.660   0.530   8.583
51414SOL     OW56138   4.745   3.623   2.219
51414SOL    HW156139   4.809   3.611   2.289
51414SOL    HW256140   4.660   3.605   2.260
51415SOL     OW56141  12.711  14.243  10.005
51415SOL    HW156142  12.716  14.338  10.020
51415SOL    HW256143  12.735  14.233   9.913
51416SOL     OW56144   2.959  11.136   5.474
51416SOL    HW156145   3.012  11.070   5.518
51416SOL    HW256146   2.886  11.087   5.436
51417SOL     OW56147   6.662  12.909  10.759
51417SOL    HW156148   6.641  12.864  10.677
51417SOL    HW256149   6.594  12.976  10.768
51418SOL     OW56150   7.700  13.088   0.924
51418SOL    HW156151   7.681  13.093   0.830
51418SOL    HW256152   7.673  13.173   0.958
51419SOL     OW56153   8.800   0.963  13.515
51419SOL    HW156154   8.890   0.990  13.535
51419SOL    HW256155   8.745   1.035  13.548
51420SOL     OW56156   0.304  13.574   4.951
51420SOL    HW156157   0.279  13.604   4.863
51420SOL    HW256158   0.221  13.564   4.998
51421SOL     OW56159   8.757   0.510   9.905
51421SOL    HW156160   8.706   0.543   9.979
51421SOL    HW256161   8.846   0.541   9.921
51422SOL     OW56162   8.264  12.468   7.708
51422SOL    HW156163   8.176  12.504   7.691
51422SOL    HW256164   8.286  12.421   7.628
51423SOL     OW56165  11.814   9.805   1.069
51423SOL    HW156166  11.736   9.770   1.112
51423SOL    HW256167  11.887   9.773   1.123
51424SOL     OW56168   5.279  13.561   5.137
51424SOL    HW156169   5.313  13.473   5.153
51424SOL    HW256170   5.199  13.547   5.086
51425SOL     OW56171   7.358  11.717   2.545
51425SOL    HW156172   7.335  11.631   2.582
51425SOL    HW256173   7.391  11.767   2.620
51426SOL     OW56174   3.237   6.460  10.009
51426SOL    HW156175   3.280   6.399  10.070
51426SOL    HW256176   3.168   6.500  10.061
51427SOL     OW56177  14.114   0.699   3.109
51427SOL    HW156178  14.080   0.788   3.102
51427SOL    HW256179  14.147   0.693   3.199
51428SOL     OW56180  10.775  13.601   5.956
51428SOL    HW156181  10.804  13.647   6.035
51428SOL    HW256182  10.787  13.665   5.885
51429SOL     OW56183   6.627   9.708  13.593
51429SOL    HW156184   6.555   9.766  13.570
51429SOL    HW256185   6.706   9.761  13.583
51430SOL     OW56186  14.515  14.737  13.288
51430SOL    HW156187  14.543  14.646  13.275
51430SOL    HW256188  14.585  14.777  13.338
51431SOL     OW56189  12.714   3.590   4.856
51431SOL    HW156190  12.805   3.623   4.859
51431SOL    HW256191  12.671   3.635   4.929
51432SOL     OW56192   3.142   0.887   0.336
51432SOL    HW156193   3.100   0.958   0.286
51432SOL    HW256194   3.187   0.834   0.270
51433SOL     OW56195   7.469   4.212  13.856
51433SOL    HW156196   7.390   4.159  13.858
51433SOL    HW256197   7.532   4.158  13.808
51434SOL     OW56198  10.132  14.403  12.783
51434SOL    HW156199  10.199  14.467  12.810
51434SOL    HW256200  10.173  14.318  12.799
51435SOL     OW56201   2.998   0.924  14.193
51435SOL    HW156202   2.917   0.903  14.239
51435SOL    HW256203   2.990   1.016  14.169
51436SOL     OW56204   1.927   9.696   4.728
51436SOL    HW156205   1.919   9.703   4.823
51436SOL    HW256206   1.846   9.654   4.700
51437SOL     OW56207  14.501   5.668   6.311
51437SOL    HW156208  14.471   5.611   6.381
51437SOL    HW256209  14.501   5.613   6.233
51438SOL     OW56210   7.105   8.980  10.491
51438SOL    HW156211   7.162   9.002  10.417
51438SOL    HW256212   7.162   8.937  10.554
51439SOL     OW56213   0.280   7.826   6.784
51439SOL    HW156214   0.221   7.770   6.835
51439SOL    HW256215   0.254   7.810   6.693
51440SOL     OW56216   9.986   7.271  13.544
51440SOL    HW156217  10.041   7.349  13.529
51440SOL    HW256218   9.951   7.250  13.458
51441SOL     OW56219   9.459  14.086  10.440
51441SOL    HW156220   9.425  14.009  10.393
51441SOL    HW256221   9.381  14.137  10.461
51442SOL     OW56222   8.086   9.068   9.298
51442SOL    HW156223   8.110   9.035   9.385
51442SOL    HW256224   8.168   9.073   9.250
51443SOL     OW56225   8.994  11.859  13.673
51443SOL    HW156226   9.025  11.807  13.599
51443SOL    HW256227   8.982  11.795  13.744
51444SOL     OW56228   8.982  12.681   4.617
51444SOL    HW156229   9.071  12.660   4.590
51444SOL    HW256230   8.991  12.713   4.707
51445SOL     OW56231   0.300   9.945  13.707
51445SOL    HW156232   0.301   9.978  13.797
51445SOL    HW256233   0.293   9.850  13.716
51446SOL     OW56234   0.103   7.787   8.474
51446SOL    HW156235   0.123   7.795   8.380
51446SOL    HW256236   0.008   7.775   8.477
51447SOL     OW56237  11.515   0.143  10.762
51447SOL    HW156238  11.570   0.143  10.684
51447SOL    HW256239  11.568   0.099  10.829
51448SOL     OW56240   7.760   5.052  14.794
51448SOL    HW156241   7.772   4.968  14.839
51448SOL    HW256242   7.665   5.062  14.788
51449SOL     OW56243   7.141  13.286  10.271
51449SOL    HW156244   7.162  13.372  10.237
51449SOL    HW256245   7.225  13.250  10.301
51450SOL     OW56246  14.470   9.274  10.056
51450SOL    HW156247  14.495   9.360  10.089
51450SOL    HW256248  14.549   9.242  10.012
51451SOL     OW56249   2.317  11.042   3.068
51451SOL    HW156250   2.364  10.980   3.124
51451SOL    HW256251   2.248  10.990   3.027
51452SOL     OW56252   8.974  14.345  14.806
51452SOL    HW156253   8.963  14.306  14.720
51452SOL    HW256254   8.912  14.417  14.809
51453SOL     OW56255   5.580   9.833   8.858
51453SOL    HW156256   5.559   9.907   8.914
51453SOL    HW256257   5.509   9.771   8.873
51454SOL     OW56258  10.561  13.706  14.032
51454SOL    HW156259  10.578  13.647  13.959
51454SOL    HW256260  10.490  13.763  14.001
51455SOL     OW56261  12.266   5.410  11.612
51455SOL    HW156262  12.215   5.331  11.595
51455SOL    HW256263  12.354   5.378  11.634
51456SOL     OW56264  13.362   8.592   2.902
51456SOL    HW156265  13.395   8.599   2.992
51456SOL    HW256266  13.350   8.683   2.874
51457SOL     OW56267   5.481   9.037  10.138
51457SOL    HW156268   5.566   9.051  10.097
51457SOL    HW256269   5.465   9.117  10.189
51458SOL     OW56270   4.724  13.452  11.226
51458SOL    HW156271   4.734  13.411  11.312
51458SOL    HW256272   4.813  13.474  11.200
51459SOL     OW56273   5.536  12.126  12.705
51459SOL    HW156274   5.588  12.082  12.638
51459SOL    HW256275   5.464  12.167  12.657
51460SOL     OW56276   3.476   5.318  11.498
51460SOL    HW156277   3.477   5.393  11.557
51460SOL    HW256278   3.458   5.243  11.555
51461SOL     OW56279  10.594   4.648  13.891
51461SOL    HW156280  10.588   4.707  13.966
51461SOL    HW256281  10.503   4.628  13.868
51462SOL     OW56282   2.262  11.122   3.533
51462SOL    HW156283   2.326  11.167   3.587
51462SOL    HW256284   2.287  11.029   3.537
51463SOL     OW56285   0.853  10.145   8.714
51463SOL    HW156286   0.778  10.200   8.740
51463SOL    HW256287   0.828  10.057   8.739
51464SOL     OW56288   1.352  11.226   6.148
51464SOL    HW156289   1.346  11.321   6.151
51464SOL    HW256290   1.266  11.197   6.118
51465SOL     OW56291   2.870   3.660  11.918
51465SOL    HW156292   2.786   3.617  11.904
51465SOL    HW256293   2.935   3.594  11.894
51466SOL     OW56294   2.685  12.412   6.664
51466SOL    HW156295   2.649  12.458   6.588
51466SOL    HW256296   2.743  12.346   6.626
51467SOL     OW56297   8.594   2.021  12.191
51467SOL    HW156298   8.569   1.984  12.276
51467SOL    HW256299   8.668   1.968  12.163
51468SOL     OW56300   1.584   5.091   3.481
51468SOL    HW156301   1.503   5.045   3.460
51468SOL    HW256302   1.602   5.145   3.403
51469SOL     OW56303  12.458  10.158   0.037
51469SOL    HW156304  12.520  10.215  14.864
51469SOL    HW256305  12.480  10.069   0.007
51470SOL     OW56306   3.373   3.584   5.588
51470SOL    HW156307   3.288   3.614   5.622
51470SOL    HW256308   3.359   3.493   5.565
51471SOL     OW56309   8.042   2.371   3.718
51471SOL    HW156310   8.045   2.352   3.812
51471SOL    HW256311   8.134   2.372   3.691
51472SOL     OW56312  12.049  10.789  11.932
51472SOL    HW156313  12.042  10.708  11.883
51472SOL    HW256314  12.141  10.815  11.923
51473SOL     OW56315   7.682   9.284   4.840
51473SOL    HW156316   7.604   9.305   4.891
51473SOL    HW256317   7.748   9.263   4.906
51474SOL     OW56318   9.661  11.668   4.242
51474SOL    HW156319   9.714  11.687   4.319
51474SOL    HW256320   9.693  11.583   4.212
51475SOL     OW56321  10.393   6.870   4.883
51475SOL    HW156322  10.467   6.834   4.834
51475SOL    HW256323  10.317   6.849   4.830
51476SOL     OW56324   5.433   4.337  10.641
51476SOL    HW156325   5.497   4.387  10.692
51476SOL    HW256326   5.484   4.266  10.603
51477SOL     OW56327  12.636   6.903   0.884
51477SOL    HW156328  12.660   6.977   0.939
51477SOL    HW256329  12.630   6.939   0.795
51478SOL     OW56330   0.438  13.234   5.020
51478SOL    HW156331   0.477  13.320   5.008
51478SOL    HW256332   0.492  13.192   5.088
51479SOL     OW56333  14.049  12.306   3.177
51479SOL    HW156334  14.024  12.331   3.266
51479SOL    HW256335  14.025  12.214   3.170
51480SOL     OW56336  13.779  13.255   9.363
51480SOL    HW156337  13.825  13.294   9.289
51480SOL    HW256338  13.843  13.252   9.433
51481SOL     OW56339   2.804   2.588   2.331
51481SOL    HW156340   2.897   2.606   2.313
51481SOL    HW256341   2.757   2.660   2.289
51482SOL     OW56342   4.277   7.291   3.410
51482SOL    HW156343   4.256   7.340   3.489
51482SOL    HW256344   4.372   7.280   3.413
51483SOL     OW56345   9.931  10.614  11.631
51483SOL    HW156346   9.951  10.707  11.641
51483SOL    HW256347   9.884  10.591  11.711
51484SOL     OW56348   0.016   9.131   3.270
51484SOL    HW156349  14.857   9.083   3.194
51484SOL    HW256350  14.868   9.075   3.344
51485SOL     OW56351   4.718   1.791   8.330
51485SOL    HW156352   4.808   1.773   8.302
51485SOL    HW256353   4.723   1.793   8.426
51486SOL     OW56354   4.555   5.866  13.608
51486SOL    HW156355   4.616   5.935  13.632
51486SOL    HW256356   4.596   5.785  13.639
51487SOL     OW56357  12.260  14.640  13.621
51487SOL    HW156358  12.177  14.595  13.635
51487SOL    HW256359  12.317  14.573  13.584
51488SOL     OW56360   0.953   4.077  13.967
51488SOL    HW156361   0.864   4.103  13.943
51488SOL    HW256362   0.959   3.985  13.940
51489SOL     OW56363   8.553   0.117  12.014
51489SOL    HW156364   8.527   0.191  12.069
51489SOL    HW256365   8.551   0.151  11.925
51490SOL     OW56366   1.073  11.903  10.481
51490SOL    HW156367   1.130  11.882  10.555
51490SOL    HW256368   1.132  11.938  10.414
51491SOL     OW56369   4.715  12.306  11.860
51491SOL    HW156370   4.628  12.265  11.859
51491SOL    HW256371   4.729  12.329  11.952
51492SOL     OW56372   8.402  14.461   1.569
51492SOL    HW156373   8.484  14.421   1.539
51492SOL    HW256374   8.356  14.482   1.488
51493SOL     OW56375   0.117   6.735   7.702
51493SOL    HW156376   0.123   6.830   7.708
51493SOL    HW256377   0.098   6.717   7.610
51494SOL     OW56378  11.468   8.812  14.628
51494SOL    HW156379  11.512   8.748  14.572
51494SOL    HW256380  11.512   8.806  14.712
51495SOL     OW56381  14.565  10.076   8.159
51495SOL    HW156382  14.594   9.985   8.151
51495SOL    HW256383  14.508  10.090   8.084
51496SOL     OW56384   2.307   4.713   8.501
51496SOL    HW156385   2.343   4.685   8.585
51496SOL    HW256386   2.379   4.702   8.439
51497SOL     OW56387   2.671   7.002   6.266
51497SOL    HW156388   2.585   6.961   6.266
51497SOL    HW256389   2.731   6.931   6.290
51498SOL     OW56390  14.248   0.515   0.215
51498SOL    HW156391  14.233   0.593   0.267
51498SOL    HW256392  14.161   0.487   0.187
51499SOL     OW56393   8.464  13.930  14.482
51499SOL    HW156394   8.471  14.002  14.545
51499SOL    HW256395   8.543  13.879  14.495
51500SOL     OW56396   9.006   4.501   1.984
51500SOL    HW156397   8.940   4.468   1.923
51500SOL    HW256398   9.086   4.455   1.961
51501SOL     OW56399   7.981   7.828   8.041
51501SOL    HW156400   8.026   7.880   8.108
51501SOL    HW256401   7.956   7.748   8.087
51502SOL     OW56402  13.338  10.333   8.647
51502SOL    HW156403  13.313  10.425   8.656
51502SOL    HW256404  13.432  10.332   8.669
51503SOL     OW56405   6.566  11.692   5.131
51503SOL    HW156406   6.524  11.626   5.186
51503SOL    HW256407   6.570  11.651   5.044
51504SOL     OW56408   0.775   6.979   8.851
51504SOL    HW156409   0.776   6.929   8.770
51504SOL    HW256410   0.862   6.966   8.888
51505SOL     OW56411   2.890   2.261   0.939
51505SOL    HW156412   2.907   2.344   0.984
51505SOL    HW256413   2.796   2.247   0.949
51506SOL     OW56414  14.269  13.131   7.175
51506SOL    HW156415  14.256  13.088   7.091
51506SOL    HW256416  14.247  13.064   7.240
51507SOL     OW56417   9.814  14.156   2.730
51507SOL    HW156418   9.850  14.114   2.808
51507SOL    HW256419   9.867  14.123   2.658
51508SOL     OW56420   6.685  10.316  12.360
51508SOL    HW156421   6.635  10.360  12.292
51508SOL    HW256422   6.683  10.223  12.335
51509SOL     OW56423   8.699   3.679   7.057
51509SOL    HW156424   8.756   3.700   7.131
51509SOL    HW256425   8.664   3.763   7.028
51510SOL     OW56426  14.154  12.613  12.415
51510SOL    HW156427  14.090  12.579  12.478
51510SOL    HW256428  14.166  12.705  12.440
51511SOL     OW56429   4.937   5.799   1.668
51511SOL    HW156430   4.855   5.805   1.620
51511SOL    HW256431   4.934   5.872   1.731
51512SOL     OW56432   9.721   0.310  10.708
51512SOL    HW156433   9.695   0.275  10.792
51512SOL    HW256434   9.691   0.401  10.709
51513SOL     OW56435  13.887  10.940   9.080
51513SOL    HW156436  13.805  10.984   9.101
51513SOL    HW256437  13.886  10.860   9.132
51514SOL     OW56438   4.319   8.317  12.474
51514SOL    HW156439   4.288   8.241  12.425
51514SOL    HW256440   4.247   8.338  12.534
51515SOL     OW56441  11.339   2.368  10.752
51515SOL    HW156442  11.274   2.375  10.821
51515SOL    HW256443  11.337   2.276  10.726
51516SOL     OW56444   4.745  14.697   6.942
51516SOL    HW156445   4.754  14.713   6.848
51516SOL    HW256446   4.827  14.729   6.980
51517SOL     OW56447   1.401   6.687  12.033
51517SOL    HW156448   1.333   6.724  11.976
51517SOL    HW256449   1.461   6.760  12.050
51518SOL     OW56450  14.500   6.823   1.160
51518SOL    HW156451  14.461   6.863   1.237
51518SOL    HW256452  14.425   6.796   1.106
51519SOL     OW56453   1.854   4.719   6.067
51519SOL    HW156454   1.869   4.702   5.974
51519SOL    HW256455   1.932   4.685   6.111
51520SOL     OW56456  10.210   9.015   6.647
51520SOL    HW156457  10.218   8.920   6.637
51520SOL    HW256458  10.284   9.040   6.702
51521SOL     OW56459   9.558  14.218   0.475
51521SOL    HW156460   9.624  14.150   0.488
51521SOL    HW256461   9.519  14.230   0.562
51522SOL     OW56462   9.130   6.794  12.271
51522SOL    HW156463   9.166   6.732  12.333
51522SOL    HW256464   9.197   6.803  12.203
51523SOL     OW56465   9.751   2.031   6.975
51523SOL    HW156466   9.660   2.017   6.948
51523SOL    HW256467   9.747   2.109   7.031
51524SOL     OW56468  11.468   8.244   7.905
51524SOL    HW156469  11.476   8.211   7.816
51524SOL    HW256470  11.485   8.168   7.961
51525SOL     OW56471  11.207  14.022   8.071
51525SOL    HW156472  11.142  14.090   8.088
51525SOL    HW256473  11.287  14.056   8.111
51526SOL     OW56474   2.364  11.441  11.204
51526SOL    HW156475   2.437  11.440  11.266
51526SOL    HW256476   2.296  11.388  11.246
51527SOL     OW56477   7.930   2.347   2.852
51527SOL    HW156478   7.964   2.282   2.792
51527SOL    HW256479   7.900   2.419   2.796
51528SOL     OW56480   7.724   0.696   9.239
51528SOL    HW156481   7.660   0.690   9.309
51528SOL    HW256482   7.730   0.789   9.219
51529SOL     OW56483   0.014  10.858   8.125
51529SOL    HW156484   0.004  10.763   8.116
51529SOL    HW256485   0.102  10.870   8.160
51530SOL     OW56486   9.433  14.464  12.853
51530SOL    HW156487   9.360  14.525  12.852
51530SOL    HW256488   9.482  14.488  12.932
51531SOL     OW56489   8.580   9.858   8.579
51531SOL    HW156490   8.661   9.905   8.559
51531SOL    HW256491   8.518   9.885   8.512
51532SOL     OW56492  14.415  14.451   3.974
51532SOL    HW156493  14.472  14.468   3.899
51532SOL    HW256494  14.391  14.538   4.007
51533SOL     OW56495  10.516  12.996   5.132
51533SOL    HW156496  10.522  13.050   5.210
51533SOL    HW256497  10.476  12.915   5.161
51534SOL     OW56498   9.079  13.709   3.359
51534SOL    HW156499   8.997  13.730   3.404
51534SOL    HW256500   9.085  13.771   3.287
51535SOL     OW56501   9.979  11.866   4.460
51535SOL    HW156502   9.926  11.800   4.504
51535SOL    HW256503   9.921  11.906   4.396
51536SOL     OW56504  12.869   5.880  13.976
51536SOL    HW156505  12.868   5.807  13.914
51536SOL    HW256506  12.961   5.893  13.997
51537SOL     OW56507   6.645   2.224   2.481
51537SOL    HW156508   6.704   2.290   2.516
51537SOL    HW256509   6.683   2.200   2.396
51538SOL     OW56510  10.833  10.644   9.228
51538SOL    HW156511  10.893  10.590   9.177
51538SOL    HW256512  10.842  10.732   9.189
51539SOL     OW56513  12.725   8.164  13.960
51539SOL    HW156514  12.674   8.227  14.009
51539SOL    HW256515  12.782   8.217  13.904
51540SOL     OW56516   6.924   2.377   1.293
51540SOL    HW156517   6.997   2.321   1.318
51540SOL    HW256518   6.933   2.389   1.198
51541SOL     OW56519  12.316  13.358   2.556
51541SOL    HW156520  12.251  13.411   2.603
51541SOL    HW256521  12.400  13.384   2.593
51542SOL     OW56522   8.180   5.239   0.479
51542SOL    HW156523   8.269   5.255   0.448
51542SOL    HW256524   8.164   5.147   0.457
51543SOL     OW56525   5.492   5.514   9.608
51543SOL    HW156526   5.410   5.554   9.636
51543SOL    HW256527   5.529   5.478   9.689
51544SOL     OW56528  12.340  12.502   2.046
51544SOL    HW156529  12.393  12.495   2.125
51544SOL    HW256530  12.251  12.518   2.077
51545SOL     OW56531   4.511  13.684   2.871
51545SOL    HW156532   4.486  13.627   2.799
51545SOL    HW256533   4.473  13.769   2.849
51546SOL     OW56534  12.392  14.463   4.249
51546SOL    HW156535  12.327  14.393   4.242
51546SOL    HW256536  12.347  14.541   4.217
51547SOL     OW56537  13.325   0.818   8.444
51547SOL    HW156538  13.272   0.835   8.366
51547SOL    HW256539  13.304   0.889   8.504
51548SOL     OW56540  12.069   8.423   6.342
51548SOL    HW156541  12.058   8.393   6.432
51548SOL    HW256542  11.980   8.439   6.310
51549SOL     OW56543   6.954  14.674   3.630
51549SOL    HW156544   6.919  14.705   3.546
51549SOL    HW256545   6.886  14.619   3.666
51550SOL     OW56546  11.277   4.885  11.977
51550SOL    HW156547  11.331   4.871  12.054
51550SOL    HW256548  11.333   4.862  11.903
51551SOL     OW56549   3.540  12.999  14.743
51551SOL    HW156550   3.445  13.008  14.734
51551SOL    HW256551   3.561  12.916  14.702
51552SOL     OW56552   5.475   3.818   3.085
51552SOL    HW156553   5.530   3.876   3.032
51552SOL    HW256554   5.534   3.787   3.154
51553SOL     OW56555   5.520  12.815   7.430
51553SOL    HW156556   5.541  12.757   7.357
51553SOL    HW256557   5.424  12.820   7.430
51554SOL     OW56558  12.004   3.851  14.306
51554SOL    HW156559  12.076   3.896  14.263
51554SOL    HW256560  11.939   3.838  14.236
51555SOL     OW56561   9.805  10.847  12.576
51555SOL    HW156562   9.887  10.797  12.576
51555SOL    HW256563   9.816  10.911  12.646
51556SOL     OW56564  13.848   6.730  11.571
51556SOL    HW156565  13.935   6.709  11.606
51556SOL    HW256566  13.817   6.648  11.532
51557SOL     OW56567   6.608   7.669   9.963
51557SOL    HW156568   6.513   7.653   9.963
51557SOL    HW256569   6.647   7.583   9.978
51558SOL     OW56570   0.237   1.630  11.069
51558SOL    HW156571   0.314   1.575  11.084
51558SOL    HW256572   0.246   1.701  11.133
51559SOL     OW56573   8.561  10.409   8.929
51559SOL    HW156574   8.486  10.365   8.891
51559SOL    HW256575   8.540  10.416   9.023
51560SOL     OW56576  12.140   7.188   9.924
51560SOL    HW156577  12.086   7.268   9.927
51560SOL    HW256578  12.209   7.209   9.861
51561SOL     OW56579   0.589  12.878  11.801
51561SOL    HW156580   0.605  12.854  11.892
51561SOL    HW256581   0.629  12.965  11.792
51562SOL     OW56582   5.767   7.590   7.196
51562SOL    HW156583   5.806   7.633   7.120
51562SOL    HW256584   5.842   7.552   7.243
51563SOL     OW56585   0.070   9.616   2.573
51563SOL    HW156586   0.131   9.590   2.642
51563SOL    HW256587   0.065   9.541   2.515
51564SOL     OW56588  14.416   5.815   2.098
51564SOL    HW156589  14.465   5.756   2.156
51564SOL    HW256590  14.336   5.767   2.077
51565SOL     OW56591  12.735   7.150   5.581
51565SOL    HW156592  12.647   7.112   5.578
51565SOL    HW256593  12.778   7.118   5.501
51566SOL     OW56594   4.782   3.052  12.252
51566SOL    HW156595   4.741   3.138  12.263
51566SOL    HW256596   4.870   3.063  12.288
51567SOL     OW56597   2.074   1.772  13.411
51567SOL    HW156598   2.056   1.857  13.371
51567SOL    HW256599   2.161   1.748  13.379
51568SOL     OW56600   0.747   0.218   6.024
51568SOL    HW156601   0.789   0.190   6.105
51568SOL    HW256602   0.819   0.243   5.967
51569SOL     OW56603   0.562  12.989   3.723
51569SOL    HW156604   0.569  13.081   3.699
51569SOL    HW256605   0.508  12.988   3.802
51570SOL     OW56606  11.973   4.526   8.225
51570SOL    HW156607  11.975   4.497   8.316
51570SOL    HW256608  12.012   4.614   8.227
51571SOL     OW56609   2.060  14.013   0.802
51571SOL    HW156610   1.967  13.992   0.812
51571SOL    HW256611   2.101  13.930   0.779
51572SOL     OW56612   9.879   1.833   9.129
51572SOL    HW156613   9.862   1.927   9.128
51572SOL    HW256614   9.867   1.808   9.221
51573SOL     OW56615  10.487   7.459   3.944
51573SOL    HW156616  10.487   7.511   4.024
51573SOL    HW256617  10.576   7.469   3.909
51574SOL     OW56618   5.722   1.402   5.022
51574SOL    HW156619   5.727   1.394   4.927
51574SOL    HW256620   5.713   1.312   5.053
51575SOL     OW56621  13.680   6.992   6.398
51575SOL    HW156622  13.751   6.956   6.345
51575SOL    HW256623  13.645   7.064   6.346
51576SOL     OW56624  10.193   8.030  11.340
51576SOL    HW156625  10.130   8.084  11.292
51576SOL    HW256626  10.267   8.089  11.356
51577SOL     OW56627   1.191  13.218  13.650
51577SOL    HW156628   1.159  13.129  13.639
51577SOL    HW256629   1.128  13.260  13.709
51578SOL     OW56630   8.092   3.352   6.075
51578SOL    HW156631   8.013   3.392   6.036
51578SOL    HW256632   8.110   3.406   6.152
51579SOL     OW56633  13.167   8.563   3.280
51579SOL    HW156634  13.193   8.492   3.337
51579SOL    HW256635  13.246   8.616   3.268
51580SOL     OW56636   5.145   3.339   7.328
51580SOL    HW156637   5.130   3.247   7.308
51580SOL    HW256638   5.225   3.362   7.280
51581SOL     OW56639  13.681   0.156  10.631
51581SOL    HW156640  13.637   0.082  10.672
51581SOL    HW256641  13.744   0.116  10.571
51582SOL     OW56642  13.192  11.017   9.091
51582SOL    HW156643  13.239  11.098   9.109
51582SOL    HW256644  13.210  10.998   8.998
51583SOL     OW56645   9.826   5.214   6.512
51583SOL    HW156646   9.867   5.221   6.598
51583SOL    HW256647   9.754   5.278   6.515
51584SOL     OW56648   3.818  13.791   7.063
51584SOL    HW156649   3.834  13.718   7.004
51584SOL    HW256650   3.771  13.752   7.137
51585SOL     OW56651  14.632   0.509  10.333
51585SOL    HW156652  14.596   0.592  10.302
51585SOL    HW256653  14.724   0.512  10.308
51586SOL     OW56654  13.579  13.434   8.878
51586SOL    HW156655  13.589  13.411   8.970
51586SOL    HW256656  13.531  13.360   8.840
51587SOL     OW56657   6.758  11.512   4.038
51587SOL    HW156658   6.709  11.552   4.110
51587SOL    HW256659   6.704  11.437   4.011
51588SOL     OW56660  12.340  13.389   0.538
51588SOL    HW156661  12.298  13.415   0.455
51588SOL    HW256662  12.394  13.464   0.562
51589SOL     OW56663  10.447   0.173  10.816
51589SOL    HW156664  10.367   0.209  10.776
51589SOL    HW256665  10.518   0.223  10.777
51590SOL     OW56666   8.894   0.999   0.371
51590SOL    HW156667   8.905   1.043   0.455
51590SOL    HW256668   8.928   1.061   0.306
51591SOL     OW56669  10.851  11.878  11.868
51591SOL    HW156670  10.819  11.900  11.955
51591SOL    HW256671  10.889  11.791  11.877
51592SOL     OW56672  10.202  11.897   1.389
51592SOL    HW156673  10.292  11.869   1.371
51592SOL    HW256674  10.174  11.844   1.463
51593SOL     OW56675  11.332   2.534   6.846
51593SOL    HW156676  11.387   2.568   6.776
51593SOL    HW256677  11.248   2.516   6.804
51594SOL     OW56678   3.529  10.814  11.553
51594SOL    HW156679   3.566  10.822  11.465
51594SOL    HW256680   3.509  10.904  11.579
51595SOL     OW56681   9.755  11.229   1.908
51595SOL    HW156682   9.770  11.211   2.001
51595SOL    HW256683   9.775  11.322   1.898
51596SOL     OW56684  14.046   9.124   8.626
51596SOL    HW156685  14.027   9.205   8.675
51596SOL    HW256686  14.140   9.128   8.610
51597SOL     OW56687  11.861  13.338   7.198
51597SOL    HW156688  11.949  13.374   7.199
51597SOL    HW256689  11.818  13.383   7.125
51598SOL     OW56690  11.629  14.802   1.762
51598SOL    HW156691  11.719  14.787   1.791
51598SOL    HW256692  11.618  14.744   1.687
51599SOL     OW56693  11.668  12.009   2.310
51599SOL    HW156694  11.620  12.092   2.305
51599SOL    HW256695  11.708  11.999   2.224
51600SOL     OW56696  11.643  10.807   9.061
51600SOL    HW156697  11.632  10.851   9.145
51600SOL    HW256698  11.646  10.879   8.997
51601SOL     OW56699  12.552  11.314   4.949
51601SOL    HW156700  12.648  11.309   4.941
51601SOL    HW256701  12.537  11.332   5.042
51602SOL     OW56702   4.566   7.523   9.160
51602SOL    HW156703   4.642   7.549   9.107
51602SOL    HW256704   4.585   7.433   9.187
51603SOL     OW56705   9.655   5.004   4.982
51603SOL    HW156706   9.725   4.942   4.961
51603SOL    HW256707   9.586   4.950   5.020
51604SOL     OW56708   9.746  10.389  13.075
51604SOL    HW156709   9.724  10.467  13.126
51604SOL    HW256710   9.667  10.371  13.023
51605SOL     OW56711   1.135  12.533   9.787
51605SOL    HW156712   1.115  12.457   9.733
51605SOL    HW256713   1.230  12.542   9.782
51606SOL     OW56714   5.133   2.166  12.410
51606SOL    HW156715   5.070   2.139  12.343
51606SOL    HW256716   5.161   2.085  12.451
51607SOL     OW56717   1.167   3.374   6.026
51607SOL    HW156718   1.238   3.316   5.999
51607SOL    HW256719   1.087   3.326   6.008
51608SOL     OW56720  13.441  14.872   6.630
51608SOL    HW156721  13.491   0.059   6.686
51608SOL    HW256722  13.499  14.797   6.617
51609SOL     OW56723   4.722  10.556  10.533
51609SOL    HW156724   4.786  10.531  10.599
51609SOL    HW256725   4.692  10.643  10.560
51610SOL     OW56726   7.980  14.073   3.322
51610SOL    HW156727   7.886  14.078   3.341
51610SOL    HW256728   7.985  14.021   3.241
51611SOL     OW56729   8.796   5.698   0.392
51611SOL    HW156730   8.847   5.644   0.332
51611SOL    HW256731   8.733   5.743   0.335
51612SOL     OW56732  13.697   5.107   7.242
51612SOL    HW156733  13.725   5.026   7.284
51612SOL    HW256734  13.774   5.135   7.192
51613SOL     OW56735  14.324   2.302   5.334
51613SOL    HW156736  14.388   2.358   5.378
51613SOL    HW256737  14.284   2.252   5.405
51614SOL     OW56738   6.163   6.480   2.824
51614SOL    HW156739   6.245   6.529   2.832
51614SOL    HW256740   6.100   6.532   2.873
51615SOL     OW56741  14.348   0.619   2.276
51615SOL    HW156742  14.387   0.534   2.298
51615SOL    HW256743  14.421   0.670   2.242
51616SOL     OW56744  12.346  10.119   7.175
51616SOL    HW156745  12.310  10.039   7.136
51616SOL    HW256746  12.282  10.187   7.155
51617SOL     OW56747  12.094   3.436   4.986
51617SOL    HW156748  12.076   3.467   5.075
51617SOL    HW256749  12.018   3.465   4.935
51618SOL     OW56750  12.888  13.412   9.376
51618SOL    HW156751  12.928  13.327   9.390
51618SOL    HW256752  12.938  13.472   9.430
51619SOL     OW56753  11.723  12.288   0.401
51619SOL    HW156754  11.819  12.280   0.406
51619SOL    HW256755  11.708  12.368   0.351
51620SOL     OW56756  13.342   1.208   7.566
51620SOL    HW156757  13.390   1.167   7.638
51620SOL    HW256758  13.405   1.211   7.494
51621SOL     OW56759   3.670  13.783  10.245
51621SOL    HW156760   3.583  13.793  10.207
51621SOL    HW256761   3.654  13.750  10.333
51622SOL     OW56762  13.534   2.234   7.584
51622SOL    HW156763  13.594   2.165   7.556
51622SOL    HW256764  13.447   2.202   7.561
51623SOL     OW56765   1.625   0.985   0.914
51623SOL    HW156766   1.656   0.937   0.838
51623SOL    HW256767   1.704   1.022   0.953
51624SOL     OW56768   7.938   1.215   8.622
51624SOL    HW156769   8.005   1.169   8.571
51624SOL    HW256770   7.870   1.236   8.558
51625SOL     OW56771   3.575   1.762   1.422
51625SOL    HW156772   3.520   1.757   1.500
51625SOL    HW256773   3.566   1.852   1.391
51626SOL     OW56774   4.049   0.910   0.819
51626SOL    HW156775   4.073   0.957   0.739
51626SOL    HW256776   4.038   0.819   0.792
51627SOL     OW56777   1.259   6.575   1.463
51627SOL    HW156778   1.274   6.485   1.491
51627SOL    HW256779   1.346   6.612   1.449
51628SOL     OW56780   5.357  14.696   6.589
51628SOL    HW156781   5.342  14.725   6.679
51628SOL    HW256782   5.441  14.734   6.565
51629SOL     OW56783   7.479   4.460  12.497
51629SOL    HW156784   7.430   4.483  12.576
51629SOL    HW256785   7.428   4.390  12.456
51630SOL     OW56786   3.682   7.368   6.690
51630SOL    HW156787   3.622   7.348   6.761
51630SOL    HW256788   3.629   7.413   6.625
51631SOL     OW56789   8.088  12.466   6.293
51631SOL    HW156790   8.071  12.466   6.387
51631SOL    HW256791   8.057  12.551   6.263
51632SOL     OW56792   0.058   5.995  12.312
51632SOL    HW156793   0.016   6.077  12.337
51632SOL    HW256794   0.104   6.015  12.231
51633SOL     OW56795   2.118   3.395  10.262
51633SOL    HW156796   2.209   3.420  10.249
51633SOL    HW256797   2.085   3.374  10.175
51634SOL     OW56798  12.283   0.057   0.883
51634SOL    HW156799  12.349  14.869   0.849
51634SOL    HW256800  12.326   0.143   0.879
51635SOL     OW56801   8.573   0.623  11.192
51635SOL    HW156802   8.525   0.541  11.206
51635SOL    HW256803   8.577   0.633  11.097
51636SOL     OW56804   2.585  12.269   2.497
51636SOL    HW156805   2.542  12.303   2.575
51636SOL    HW256806   2.621  12.185   2.523
51637SOL     OW56807   3.853  12.307   0.336
51637SOL    HW156808   3.768  12.337   0.304
51637SOL    HW256809   3.863  12.220   0.297
51638SOL     OW56810  13.264   2.663   5.454
51638SOL    HW156811  13.185   2.659   5.507
51638SOL    HW256812  13.309   2.742   5.485
51639SOL     OW56813   6.783   7.737   4.504
51639SOL    HW156814   6.753   7.646   4.511
51639SOL    HW256815   6.872   7.730   4.468
51640SOL     OW56816  14.468  14.231   7.498
51640SOL    HW156817  14.382  14.217   7.460
51640SOL    HW256818  14.529  14.222   7.425
51641SOL     OW56819  10.306   9.188   8.446
51641SOL    HW156820  10.248   9.131   8.496
51641SOL    HW256821  10.269   9.276   8.458
51642SOL     OW56822  10.934   8.538  13.890
51642SOL    HW156823  10.956   8.625  13.923
51642SOL    HW256824  10.868   8.505  13.950
51643SOL     OW56825   6.435   0.021   0.699
51643SOL    HW156826   6.463   0.106   0.665
51643SOL    HW256827   6.351   0.039   0.742
51644SOL     OW56828  13.592   2.669  13.391
51644SOL    HW156829  13.607   2.757  13.358
51644SOL    HW256830  13.649   2.613  13.337
51645SOL     OW56831   1.444   3.438  11.380
51645SOL    HW156832   1.407   3.475  11.460
51645SOL    HW256833   1.377   3.453  11.313
51646SOL     OW56834  14.179   4.253   1.462
51646SOL    HW156835  14.260   4.299   1.486
51646SOL    HW256836  14.155   4.289   1.377
51647SOL     OW56837  11.586  12.909   2.721
51647SOL    HW156838  11.579  12.936   2.812
51647SOL    HW256839  11.646  12.834   2.723
51648SOL     OW56840   2.573   3.460   9.215
51648SOL    HW156841   2.592   3.382   9.267
51648SOL    HW256842   2.658   3.488   9.180
51649SOL     OW56843   8.711   6.205   0.738
51649SOL    HW156844   8.765   6.284   0.741
51649SOL    HW256845   8.770   6.137   0.706
51650SOL     OW56846  12.836  10.022   2.501
51650SOL    HW156847  12.790   9.979   2.429
51650SOL    HW256848  12.766  10.063   2.552
51651SOL     OW56849   4.421  14.542  13.158
51651SOL    HW156850   4.450  14.463  13.112
51651SOL    HW256851   4.482  14.610  13.129
51652SOL     OW56852   6.536   3.942   7.111
51652SOL    HW156853   6.616   3.893   7.127
51652SOL    HW256854   6.482   3.885   7.056
51653SOL     OW56855   9.299   9.032   6.475
51653SOL    HW156856   9.253   8.948   6.468
51653SOL    HW256857   9.382   9.011   6.517
51654SOL     OW56858   1.494  13.411  11.230
51654SOL    HW156859   1.497  13.349  11.304
51654SOL    HW256860   1.401  13.435  11.223
51655SOL     OW56861   7.138   7.863   0.543
51655SOL    HW156862   7.200   7.901   0.605
51655SOL    HW256863   7.054   7.903   0.567
51656SOL     OW56864   8.635   6.204  13.323
51656SOL    HW156865   8.666   6.288  13.290
51656SOL    HW256866   8.568   6.226  13.387
51657SOL     OW56867   3.263   6.504   0.431
51657SOL    HW156868   3.184   6.556   0.412
51657SOL    HW256869   3.252   6.476   0.522
51658SOL     OW56870   5.866   5.544   2.156
51658SOL    HW156871   5.838   5.547   2.248
51658SOL    HW256872   5.808   5.479   2.116
51659SOL     OW56873  11.651   9.391  12.572
51659SOL    HW156874  11.709   9.344  12.512
51659SOL    HW256875  11.643   9.479  12.535
51660SOL     OW56876  12.859   9.048   9.402
51660SOL    HW156877  12.816   8.988   9.463
51660SOL    HW256878  12.934   8.999   9.368
51661SOL     OW56879   7.717   1.850   9.675
51661SOL    HW156880   7.805   1.873   9.706
51661SOL    HW256881   7.703   1.906   9.598
51662SOL     OW56882  13.478   9.445  13.029
51662SOL    HW156883  13.522   9.476  12.950
51662SOL    HW256884  13.451   9.525  13.075
51663SOL     OW56885   6.515  13.157   2.089
51663SOL    HW156886   6.497  13.219   2.019
51663SOL    HW256887   6.445  13.173   2.153
51664SOL     OW56888  12.022   4.596   9.550
51664SOL    HW156889  11.988   4.578   9.462
51664SOL    HW256890  11.944   4.603   9.605
51665SOL     OW56891   8.358   9.826  13.365
51665SOL    HW156892   8.371   9.772  13.443
51665SOL    HW256893   8.313   9.904  13.398
51666SOL     OW56894   5.209   6.720  12.096
51666SOL    HW156895   5.284   6.758  12.051
51666SOL    HW256896   5.197   6.775  12.174
51667SOL     OW56897   4.143   9.377  11.812
51667SOL    HW156898   4.233   9.386  11.782
51667SOL    HW256899   4.094   9.443  11.761
51668SOL     OW56900  13.023   3.685   3.410
51668SOL    HW156901  13.034   3.660   3.318
51668SOL    HW256902  13.112   3.689   3.445
51669SOL     OW56903   8.864  13.020   9.537
51669SOL    HW156904   8.868  13.114   9.519
51669SOL    HW256905   8.894  12.978   9.456
51670SOL     OW56906   3.667   5.205  10.534
51670SOL    HW156907   3.739   5.185  10.475
51670SOL    HW256908   3.665   5.133  10.596
51671SOL     OW56909  14.243  14.176   9.282
51671SOL    HW156910  14.258  14.232   9.205
51671SOL    HW256911  14.148  14.172   9.291
51672SOL     OW56912   9.540   4.920   6.014
51672SOL    HW156913   9.613   4.982   6.013
51672SOL    HW256914   9.462   4.975   6.011
51673SOL     OW56915   9.215   8.861   2.802
51673SOL    HW156916   9.124   8.869   2.830
51673SOL    HW256917   9.263   8.846   2.883
51674SOL     OW56918  11.686  14.021   8.932
51674SOL    HW156919  11.676  14.044   8.840
51674SOL    HW256920  11.612  14.063   8.976
51675SOL     OW56921   5.897   4.722  11.236
51675SOL    HW156922   5.972   4.745  11.291
51675SOL    HW256923   5.898   4.626  11.233
51676SOL     OW56924   8.566  12.582   8.577
51676SOL    HW156925   8.570  12.565   8.483
51676SOL    HW256926   8.652  12.621   8.597
51677SOL     OW56927   4.685   3.540  13.028
51677SOL    HW156928   4.590   3.529  13.020
51677SOL    HW256929   4.717   3.540  12.938
51678SOL     OW56930   8.441   1.398  11.088
51678SOL    HW156931   8.501   1.431  11.155
51678SOL    HW256932   8.361   1.449  11.100
51679SOL     OW56933   8.526   4.781   5.576
51679SOL    HW156934   8.482   4.763   5.493
51679SOL    HW256935   8.603   4.831   5.552
51680SOL     OW56936  13.558  14.629   2.403
51680SOL    HW156937  13.629  14.591   2.350
51680SOL    HW256938  13.603  14.687   2.464
51681SOL     OW56939   7.720   2.820  13.719
51681SOL    HW156940   7.636   2.775  13.713
51681SOL    HW256941   7.769   2.770  13.785
51682SOL     OW56942   2.513  14.332   9.221
51682SOL    HW156943   2.459  14.349   9.298
51682SOL    HW256944   2.588  14.282   9.254
51683SOL     OW56945  11.088   5.142   9.784
51683SOL    HW156946  10.996   5.131   9.809
51683SOL    HW256947  11.133   5.160   9.867
51684SOL     OW56948   4.994   8.327  10.892
51684SOL    HW156949   5.006   8.243  10.936
51684SOL    HW256950   5.081   8.351  10.861
51685SOL     OW56951  11.199   2.666   5.516
51685SOL    HW156952  11.268   2.727   5.540
51685SOL    HW256953  11.118   2.711   5.543
51686SOL     OW56954   4.728  14.690   4.784
51686SOL    HW156955   4.659  14.708   4.720
51686SOL    HW256956   4.810  14.710   4.737
51687SOL     OW56957   3.149  11.435   6.797
51687SOL    HW156958   3.084  11.503   6.785
51687SOL    HW256959   3.113  11.379   6.865
51688SOL     OW56960   3.927   5.922   5.219
51688SOL    HW156961   4.021   5.923   5.200
51688SOL    HW256962   3.885   5.953   5.139
51689SOL     OW56963  14.391   9.845   2.554
51689SOL    HW156964  14.410   9.870   2.464
51689SOL    HW256965  14.344   9.762   2.547
51690SOL     OW56966   7.034  12.307  10.593
51690SOL    HW156967   7.123  12.309  10.557
51690SOL    HW256968   7.032  12.380  10.655
51691SOL     OW56969   9.992  12.145   6.838
51691SOL    HW156970  10.042  12.064   6.827
51691SOL    HW256971   9.947  12.158   6.754
51692SOL     OW56972  11.032   3.220  13.495
51692SOL    HW156973  10.939   3.218  13.470
51692SOL    HW256974  11.056   3.312  13.492
51693SOL     OW56975  12.732   4.555   7.010
51693SOL    HW156976  12.761   4.549   6.919
51693SOL    HW256977  12.783   4.627   7.046
51694SOL     OW56978   5.994  14.000   2.979
51694SOL    HW156979   5.998  14.060   2.905
51694SOL    HW256980   6.022  14.053   3.054
51695SOL     OW56981  10.331  13.246  14.524
51695SOL    HW156982  10.335  13.232  14.430
51695SOL    HW256983  10.416  13.284  14.546
51696SOL     OW56984   8.231   2.725  10.670
51696SOL    HW156985   8.224   2.657  10.603
51696SOL    HW256986   8.236   2.676  10.752
51697SOL     OW56987   8.072  12.635   4.994
51697SOL    HW156988   8.030  12.667   4.914
51697SOL    HW256989   8.148  12.692   5.005
51698SOL     OW56990   3.069   9.326   5.471
51698SOL    HW156991   3.143   9.387   5.469
51698SOL    HW256992   2.993   9.380   5.489
51699SOL     OW56993   6.694  14.576   0.374
51699SOL    HW156994   6.726  14.650   0.426
51699SOL    HW256995   6.757  14.506   0.390
51700SOL     OW56996   5.983  14.092  14.213
51700SOL    HW156997   5.916  14.072  14.278
51700SOL    HW256998   6.002  14.185  14.226
51701SOL     OW56999  14.664   0.174   8.882
51701SOL    HW157000  14.721   0.229   8.936
51701SOL    HW257001  14.617   0.120   8.945
51702SOL     OW57002  13.929   8.632   2.559
51702SOL    HW157003  13.847   8.626   2.510
51702SOL    HW257004  13.937   8.546   2.601
51703SOL     OW57005  10.064   2.770  14.244
51703SOL    HW157006  10.114   2.787  14.164
51703SOL    HW257007  10.015   2.690  14.225
51704SOL     OW57008   5.369   6.089   4.909
51704SOL    HW157009   5.434   6.115   4.974
51704SOL    HW257010   5.285   6.116   4.947
51705SOL     OW57011   4.846   7.830   4.154
51705SOL    HW157012   4.785   7.813   4.226
51705SOL    HW257013   4.931   7.804   4.189
51706SOL     OW57014   0.265   4.256  12.362
51706SOL    HW157015   0.176   4.289  12.371
51706SOL    HW257016   0.302   4.264  12.450
51707SOL     OW57017   1.585  10.782   5.919
51707SOL    HW157018   1.680  10.773   5.913
51707SOL    HW257019   1.572  10.864   5.967
51708SOL     OW57020   0.356   3.833   3.445
51708SOL    HW157021   0.301   3.899   3.488
51708SOL    HW257022   0.302   3.799   3.374
51709SOL     OW57023  14.002   4.404  12.185
51709SOL    HW157024  13.929   4.436  12.237
51709SOL    HW257025  14.076   4.459  12.212
51710SOL     OW57026   1.855   6.254  10.696
51710SOL    HW157027   1.787   6.275  10.632
51710SOL    HW257028   1.906   6.334  10.704
51711SOL     OW57029  13.376   9.305   7.281
51711SOL    HW157030  13.329   9.328   7.201
51711SOL    HW257031  13.310   9.264   7.337
51712SOL     OW57032   7.438  13.531  12.843
51712SOL    HW157033   7.517  13.578  12.871
51712SOL    HW257034   7.421  13.469  12.914
51713SOL     OW57035   0.059   4.801   5.533
51713SOL    HW157036   0.116   4.834   5.464
51713SOL    HW257037  14.853   4.856   5.527
51714SOL     OW57038   7.299  12.726   5.360
51714SOL    HW157039   7.366  12.778   5.404
51714SOL    HW257040   7.339  12.704   5.275
51715SOL     OW57041   9.732  12.806   8.934
51715SOL    HW157042   9.825  12.812   8.956
51715SOL    HW257043   9.720  12.868   8.863
51716SOL     OW57044  11.732   3.300  14.332
51716SOL    HW157045  11.810   3.355  14.327
51716SOL    HW257046  11.712   3.279  14.241
51717SOL     OW57047   8.161  14.153  13.038
51717SOL    HW157048   8.102  14.222  13.007
51717SOL    HW257049   8.104  14.078  13.052
51718SOL     OW57050  11.756   3.435   1.126
51718SOL    HW157051  11.702   3.494   1.178
51718SOL    HW257052  11.820   3.492   1.084
51719SOL     OW57053   6.560   8.887  13.477
51719SOL    HW157054   6.526   8.866  13.390
51719SOL    HW257055   6.482   8.892  13.532
51720SOL     OW57056   3.553   0.682   5.073
51720SOL    HW157057   3.512   0.721   4.996
51720SOL    HW257058   3.538   0.588   5.062
51721SOL     OW57059  12.475   9.657   0.600
51721SOL    HW157060  12.548   9.606   0.636
51721SOL    HW257061  12.462   9.728   0.663
51722SOL     OW57062   2.477   7.504   6.668
51722SOL    HW157063   2.467   7.469   6.580
51722SOL    HW257064   2.569   7.531   6.673
51723SOL     OW57065   6.868   5.058   6.076
51723SOL    HW157066   6.962   5.040   6.071
51723SOL    HW257067   6.863   5.146   6.113
51724SOL     OW57068  13.938   1.271   3.165
51724SOL    HW157069  14.031   1.262   3.141
51724SOL    HW257070  13.935   1.348   3.221
51725SOL     OW57071  10.224  13.317   0.544
51725SOL    HW157072  10.281  13.291   0.616
51725SOL    HW257073  10.135  13.308   0.579
51726SOL     OW57074   7.029   6.147   9.414
51726SOL    HW157075   7.079   6.218   9.454
51726SOL    HW257076   7.024   6.171   9.321
51727SOL     OW57077  12.209   4.023   1.458
51727SOL    HW157078  12.218   4.046   1.550
51727SOL    HW257079  12.152   3.946   1.458
51728SOL     OW57080   3.499   7.331  13.218
51728SOL    HW157081   3.435   7.300  13.282
51728SOL    HW257082   3.456   7.404  13.174
51729SOL     OW57083  13.278   4.653   8.903
51729SOL    HW157084  13.313   4.635   8.990
51729SOL    HW257085  13.298   4.746   8.889
51730SOL     OW57086  13.239   9.603   8.777
51730SOL    HW157087  13.184   9.537   8.819
51730SOL    HW257088  13.295   9.553   8.717
51731SOL     OW57089   2.251  10.682  14.367
51731SOL    HW157090   2.182  10.707  14.427
51731SOL    HW257091   2.207  10.672  14.282
51732SOL     OW57092   2.419   4.540   3.108
51732SOL    HW157093   2.395   4.449   3.123
51732SOL    HW257094   2.420   4.580   3.195
51733SOL     OW57095   7.115  12.948  11.892
51733SOL    HW157096   7.195  12.996  11.871
51733SOL    HW257097   7.108  12.953  11.987
51734SOL     OW57098   7.841   4.924  12.552
51734SOL    HW157099   7.797   4.864  12.612
51734SOL    HW257100   7.837   5.009  12.595
51735SOL     OW57101  12.303  10.849   3.598
51735SOL    HW157102  12.329  10.856   3.506
51735SOL    HW257103  12.298  10.755   3.614
51736SOL     OW57104   8.993   3.997   0.631
51736SOL    HW157105   9.052   4.033   0.698
51736SOL    HW257106   8.919   4.057   0.629
51737SOL     OW57107  10.232  11.808   3.711
51737SOL    HW157108  10.282  11.890   3.702
51737SOL    HW257109  10.141  11.836   3.710
51738SOL     OW57110   8.026   8.493   2.429
51738SOL    HW157111   8.066   8.452   2.352
51738SOL    HW257112   8.048   8.434   2.502
51739SOL     OW57113   2.506   8.549   0.346
51739SOL    HW157114   2.509   8.604   0.424
51739SOL    HW257115   2.571   8.587   0.286
51740SOL     OW57116   9.904  12.245   7.928
51740SOL    HW157117   9.848  12.187   7.878
51740SOL    HW257118   9.847  12.282   7.996
51741SOL     OW57119  14.738   2.991   8.140
51741SOL    HW157120  14.804   2.928   8.168
51741SOL    HW257121  14.694   3.017   8.221
51742SOL     OW57122  13.827  13.886   4.610
51742SOL    HW157123  13.790  13.920   4.691
51742SOL    HW257124  13.913  13.854   4.635
51743SOL     OW57125   4.001  14.417   2.563
51743SOL    HW157126   4.003  14.431   2.469
51743SOL    HW257127   4.026  14.326   2.575
51744SOL     OW57128  10.188  13.527   8.098
51744SOL    HW157129  10.216  13.540   8.008
51744SOL    HW257130  10.231  13.597   8.148
51745SOL     OW57131  10.464  11.529  11.713
51745SOL    HW157132  10.496  11.465  11.649
51745SOL    HW257133  10.417  11.594  11.661
51746SOL     OW57134   9.979   8.663   9.697
51746SOL    HW157135   9.950   8.733   9.755
51746SOL    HW257136   9.912   8.595   9.707
51747SOL     OW57137  14.254  14.535   2.156
51747SOL    HW157138  14.183  14.494   2.205
51747SOL    HW257139  14.312  14.463   2.131
51748SOL     OW57140   5.907  10.893   9.449
51748SOL    HW157141   5.832  10.950   9.463
51748SOL    HW257142   5.885  10.812   9.496
51749SOL     OW57143  14.719   4.229   5.847
51749SOL    HW157144  14.735   4.255   5.757
51749SOL    HW257145  14.632   4.265   5.866
51750SOL     OW57146   4.702   9.347  10.531
51750SOL    HW157147   4.726   9.438  10.546
51750SOL    HW257148   4.611   9.350  10.502
51751SOL     OW57149  13.560  10.434  11.865
51751SOL    HW157150  13.526  10.401  11.782
51751SOL    HW257151  13.510  10.388  11.932
51752SOL     OW57152   9.033  12.564   6.656
51752SOL    HW157153   8.994  12.640   6.699
51752SOL    HW257154   9.017  12.491   6.716
51753SOL     OW57155   4.808   8.749   8.783
51753SOL    HW157156   4.883   8.726   8.838
51753SOL    HW257157   4.825   8.706   8.699
51754SOL     OW57158   7.274   4.410   8.795
51754SOL    HW157159   7.213   4.408   8.868
51754SOL    HW257160   7.222   4.385   8.719
51755SOL     OW57161   9.172  10.135  10.706
51755SOL    HW157162   9.167  10.132  10.611
51755SOL    HW257163   9.145  10.048  10.734
51756SOL     OW57164  14.387   4.183  10.708
51756SOL    HW157165  14.351   4.236  10.636
51756SOL    HW257166  14.481   4.184  10.693
51757SOL     OW57167   4.368  12.660   4.186
51757SOL    HW157168   4.426  12.716   4.136
51757SOL    HW257169   4.388  12.680   4.278
51758SOL     OW57170   7.171  12.484   3.657
51758SOL    HW157171   7.180  12.579   3.647
51758SOL    HW257172   7.207  12.448   3.576
51759SOL     OW57173  12.354   5.876  14.030
51759SOL    HW157174  12.331   5.928  13.953
51759SOL    HW257175  12.285   5.896  14.094
51760SOL     OW57176   7.167   6.297   7.648
51760SOL    HW157177   7.111   6.374   7.654
51760SOL    HW257178   7.156   6.265   7.559
51761SOL     OW57179   2.239   5.370   9.796
51761SOL    HW157180   2.328   5.400   9.813
51761SOL    HW257181   2.213   5.326   9.877
51762SOL     OW57182  14.280   5.302   0.918
51762SOL    HW157183  14.347   5.323   0.853
51762SOL    HW257184  14.263   5.209   0.906
51763SOL     OW57185   6.776   1.908   5.753
51763SOL    HW157186   6.803   1.887   5.842
51763SOL    HW257187   6.682   1.892   5.752
51764SOL     OW57188   9.179  12.369   6.500
51764SOL    HW157189   9.229  12.422   6.437
51764SOL    HW257190   9.134  12.434   6.554
51765SOL     OW57191   1.197   4.649  11.520
51765SOL    HW157192   1.169   4.560  11.497
51765SOL    HW257193   1.133   4.706  11.477
51766SOL     OW57194  11.439   5.735  14.668
51766SOL    HW157195  11.498   5.668  14.702
51766SOL    HW257196  11.417   5.705  14.579
51767SOL     OW57197   7.595   8.859   0.030
51767SOL    HW157198   7.574   8.851   0.123
51767SOL    HW257199   7.511   8.851  14.857
51768SOL     OW57200   1.593   4.191   5.679
51768SOL    HW157201   1.688   4.179   5.679
51768SOL    HW257202   1.559   4.114   5.634
51769SOL     OW57203  11.355  14.805  13.363
51769SOL    HW157204  11.332   0.024  13.378
51769SOL    HW257205  11.271  14.759  13.359
51770SOL     OW57206   6.091   5.086   6.724
51770SOL    HW157207   6.057   5.034   6.797
51770SOL    HW257208   6.020   5.146   6.701
51771SOL     OW57209   1.319   3.584   1.898
51771SOL    HW157210   1.361   3.575   1.984
51771SOL    HW257211   1.391   3.591   1.836
51772SOL     OW57212   9.324  11.618  14.009
51772SOL    HW157213   9.315  11.628  13.914
51772SOL    HW257214   9.235  11.600  14.040
51773SOL     OW57215   5.984  13.347   2.137
51773SOL    HW157216   6.046  13.400   2.087
51773SOL    HW257217   6.015  13.257   2.125
51774SOL     OW57218  11.740   6.341   0.073
51774SOL    HW157219  11.674   6.397   0.032
51774SOL    HW257220  11.693   6.296   0.142
51775SOL     OW57221   6.711   0.274   3.228
51775SOL    HW157222   6.703   0.178   3.221
51775SOL    HW257223   6.703   0.304   3.137
51776SOL     OW57224   4.581   3.144   7.295
51776SOL    HW157225   4.661   3.185   7.327
51776SOL    HW257226   4.606   3.107   7.210
51777SOL     OW57227   5.813  10.938  13.574
51777SOL    HW157228   5.737  10.925  13.632
51777SOL    HW257229   5.777  10.935  13.486
51778SOL     OW57230   2.344  11.659   6.730
51778SOL    HW157231   2.272  11.721   6.719
51778SOL    HW257232   2.332  11.595   6.660
51779SOL     OW57233  13.021   9.825   1.981
51779SOL    HW157234  13.019   9.793   1.891
51779SOL    HW257235  13.054   9.915   1.973
51780SOL     OW57236   8.391  12.407  11.013
51780SOL    HW157237   8.304  12.403  11.053
51780SOL    HW257238   8.394  12.494  10.973
51781SOL     OW57239   6.942  13.767  13.037
51781SOL    HW157240   6.981  13.695  12.988
51781SOL    HW257241   6.925  13.834  12.971
51782SOL     OW57242   5.524  14.861   3.726
51782SOL    HW157243   5.572  14.797   3.778
51782SOL    HW257244   5.432  14.840   3.741
51783SOL     OW57245   4.626   2.500   0.158
51783SOL    HW157246   4.635   2.441   0.083
51783SOL    HW257247   4.538   2.537   0.149
51784SOL     OW57248   4.729  12.357   9.377
51784SOL    HW157249   4.678  12.356   9.296
51784SOL    HW257250   4.679  12.302   9.437
51785SOL     OW57251   5.438   0.976   0.554
51785SOL    HW157252   5.370   1.043   0.565
51785SOL    HW257253   5.389   0.894   0.549
51786SOL     OW57254   5.860  13.624  14.560
51786SOL    HW157255   5.830  13.666  14.641
51786SOL    HW257256   5.947  13.661  14.545
51787SOL     OW57257   1.672   5.620   3.763
51787SOL    HW157258   1.661   5.667   3.681
51787SOL    HW257259   1.754   5.653   3.800
51788SOL     OW57260   7.704  11.021   8.265
51788SOL    HW157261   7.640  10.958   8.296
51788SOL    HW257262   7.719  11.079   8.340
51789SOL     OW57263   5.683  13.448  12.839
51789SOL    HW157264   5.651  13.388  12.771
51789SOL    HW257265   5.609  13.458  12.899
51790SOL     OW57266   2.605  14.400   7.884
51790SOL    HW157267   2.611  14.305   7.885
51790SOL    HW257268   2.668  14.429   7.950
51791SOL     OW57269   3.191   7.589  10.814
51791SOL    HW157270   3.286   7.592  10.821
51791SOL    HW257271   3.169   7.662  10.755
51792SOL     OW57272   1.259   4.479  14.850
51792SOL    HW157273   1.333   4.514  14.801
51792SOL    HW257274   1.182   4.499  14.796
51793SOL     OW57275   6.480   0.571  13.326
51793SOL    HW157276   6.435   0.510  13.267
51793SOL    HW257277   6.469   0.657  13.284
51794SOL     OW57278  14.796   2.979  12.634
51794SOL    HW157279  14.776   3.057  12.583
51794SOL    HW257280  14.730   2.977  12.703
51795SOL     OW57281   2.504   0.693   5.132
51795SOL    HW157282   2.549   0.674   5.214
51795SOL    HW257283   2.504   0.609   5.086
51796SOL     OW57284  12.876  12.872  10.594
51796SOL    HW157285  12.923  12.800  10.552
51796SOL    HW257286  12.866  12.938  10.526
51797SOL     OW57287   1.136   8.816  11.220
51797SOL    HW157288   1.113   8.889  11.163
51797SOL    HW257289   1.055   8.765  11.230
51798SOL     OW57290  14.418   1.709  10.415
51798SOL    HW157291  14.360   1.741  10.346
51798SOL    HW257292  14.458   1.787  10.452
51799SOL     OW57293   5.581   5.445   7.278
51799SOL    HW157294   5.653   5.464   7.219
51799SOL    HW257295   5.585   5.516   7.343
51800SOL     OW57296  13.395   7.660   7.111
51800SOL    HW157297  13.482   7.694   7.090
51800SOL    HW257298  13.341   7.738   7.124
51801SOL     OW57299   7.566   2.109   8.265
51801SOL    HW157300   7.637   2.068   8.216
51801SOL    HW257301   7.605   2.186   8.304
51802SOL     OW57302   6.137  11.306  12.319
51802SOL    HW157303   6.228  11.324  12.298
51802SOL    HW257304   6.106  11.386  12.362
51803SOL     OW57305   9.869   4.550   3.510
51803SOL    HW157306   9.884   4.467   3.466
51803SOL    HW257307   9.924   4.613   3.462
51804SOL     OW57308   6.810  14.843   8.902
51804SOL    HW157309   6.833   0.055   8.862
51804SOL    HW257310   6.752  14.801   8.839
51805SOL     OW57311  12.972   0.288   3.626
51805SOL    HW157312  12.963   0.363   3.567
51805SOL    HW257313  12.919   0.219   3.586
51806SOL     OW57314   7.202   2.490   0.529
51806SOL    HW157315   7.169   2.424   0.468
51806SOL    HW257316   7.252   2.441   0.594
51807SOL     OW57317  12.319   1.395   6.214
51807SOL    HW157318  12.412   1.390   6.191
51807SOL    HW257319  12.285   1.469   6.164
51808SOL     OW57320   4.703   7.028   8.227
51808SOL    HW157321   4.615   7.024   8.191
51808SOL    HW257322   4.718   6.941   8.264
51809SOL     OW57323  13.014  14.024  14.304
51809SOL    HW157324  12.963  14.035  14.385
51809SOL    HW257325  13.061  14.107  14.295
51810SOL     OW57326   2.841   9.129   9.080
51810SOL    HW157327   2.824   9.048   9.031
51810SOL    HW257328   2.811   9.199   9.021
51811SOL     OW57329  12.718   7.955   9.373
51811SOL    HW157330  12.667   7.979   9.296
51811SOL    HW257331  12.670   7.883   9.413
51812SOL     OW57332   6.466   8.048  13.576
51812SOL    HW157333   6.435   8.139  13.581
51812SOL    HW257334   6.458   8.015  13.665
51813SOL     OW57335  13.426   9.384   6.542
51813SOL    HW157336  13.394   9.322   6.607
51813SOL    HW257337  13.381   9.466   6.562
51814SOL     OW57338   0.151  11.749   1.917
51814SOL    HW157339   0.073  11.771   1.866
51814SOL    HW257340   0.172  11.829   1.965
51815SOL     OW57341   5.446   9.168   5.318
51815SOL    HW157342   5.424   9.259   5.336
51815SOL    HW257343   5.362   9.125   5.304
51816SOL     OW57344  14.424   8.691   0.909
51816SOL    HW157345  14.337   8.659   0.885
51816SOL    HW257346  14.484   8.634   0.861
51817SOL     OW57347   9.244  13.327   2.905
51817SOL    HW157348   9.217  13.305   2.994
51817SOL    HW257349   9.163  13.354   2.862
51818SOL     OW57350   6.601  12.381   2.309
51818SOL    HW157351   6.519  12.367   2.261
51818SOL    HW257352   6.614  12.299   2.357
51819SOL     OW57353   5.275  13.774   1.271
51819SOL    HW157354   5.331  13.761   1.194
51819SOL    HW257355   5.221  13.695   1.274
51820SOL     OW57356  14.204  11.160  10.161
51820SOL    HW157357  14.135  11.107  10.122
51820SOL    HW257358  14.264  11.097  10.201
51821SOL     OW57359  12.323  12.514   3.187
51821SOL    HW157360  12.385  12.450   3.222
51821SOL    HW257361  12.237  12.477   3.205
51822SOL     OW57362   0.545   4.912   0.700
51822SOL    HW157363   0.568   4.841   0.640
51822SOL    HW257364   0.545   4.990   0.645
51823SOL     OW57365  11.682   3.222   0.969
51823SOL    HW157366  11.590   3.210   0.950
51823SOL    HW257367  11.684   3.292   1.035
51824SOL     OW57368   2.094  13.075  13.529
51824SOL    HW157369   2.031  13.011  13.561
51824SOL    HW257370   2.042  13.139  13.481
51825SOL     OW57371  12.006  11.105   7.282
51825SOL    HW157372  12.018  11.014   7.255
51825SOL    HW257373  11.915  11.126   7.258
51826SOL     OW57374   7.999  13.556   1.205
51826SOL    HW157375   8.083  13.586   1.169
51826SOL    HW257376   7.961  13.502   1.136
51827SOL     OW57377   0.056   5.421   9.288
51827SOL    HW157378   0.119   5.487   9.314
51827SOL    HW257379   0.060   5.355   9.358
51828SOL     OW57380   6.282  13.302   6.751
51828SOL    HW157381   6.366  13.274   6.713
51828SOL    HW257382   6.252  13.371   6.691
51829SOL     OW57383   5.101   1.610  13.659
51829SOL    HW157384   5.089   1.516  13.671
51829SOL    HW257385   5.188   1.618  13.621
51830SOL     OW57386   4.010   2.317   7.032
51830SOL    HW157387   3.953   2.271   7.093
51830SOL    HW257388   4.084   2.258   7.019
51831SOL     OW57389  10.529  12.089   1.285
51831SOL    HW157390  10.595  12.077   1.217
51831SOL    HW257391  10.499  12.179   1.275
51832SOL     OW57392   2.419   0.110  12.372
51832SOL    HW157393   2.503   0.140  12.337
51832SOL    HW257394   2.384   0.185  12.420
51833SOL     OW57395   5.920   0.575   0.698
51833SOL    HW157396   5.972   0.642   0.742
51833SOL    HW257397   5.829   0.606   0.706
51834SOL     OW57398   8.830   6.238  14.494
51834SOL    HW157399   8.811   6.321  14.538
51834SOL    HW257400   8.887   6.191  14.555
51835SOL     OW57401  10.233   7.598   9.257
51835SOL    HW157402  10.241   7.507   9.228
51835SOL    HW257403  10.228   7.648   9.175
51836SOL     OW57404   5.906  13.422  14.113
51836SOL    HW157405   5.907  13.400  14.206
51836SOL    HW257406   5.868  13.346  14.070
51837SOL     OW57407  10.686   9.796   7.679
51837SOL    HW157408  10.701   9.705   7.705
51837SOL    HW257409  10.754   9.813   7.614
51838SOL     OW57410   0.212  12.848  10.497
51838SOL    HW157411   0.146  12.791  10.458
51838SOL    HW257412   0.241  12.801  10.575
51839SOL     OW57413   0.433  13.934  14.171
51839SOL    HW157414   0.353  13.950  14.122
51839SOL    HW257415   0.488  13.883  14.111
51840SOL     OW57416   1.826   2.337   4.133
51840SOL    HW157417   1.822   2.407   4.069
51840SOL    HW257418   1.772   2.367   4.206
51841SOL     OW57419   4.358  10.737   5.033
51841SOL    HW157420   4.343  10.789   5.113
51841SOL    HW257421   4.335  10.797   4.962
51842SOL     OW57422   7.703   4.441   6.322
51842SOL    HW157423   7.637   4.397   6.375
51842SOL    HW257424   7.785   4.427   6.369
51843SOL     OW57425   6.947  10.343  12.431
51843SOL    HW157426   6.966  10.428  12.392
51843SOL    HW257427   6.871  10.310  12.383
51844SOL     OW57428  11.419   9.189   8.427
51844SOL    HW157429  11.393   9.112   8.377
51844SOL    HW257430  11.486   9.231   8.373
51845SOL     OW57431  13.874   8.787  10.680
51845SOL    HW157432  13.922   8.769  10.599
51845SOL    HW257433  13.919   8.735  10.747
51846SOL     OW57434  12.206   2.187  13.361
51846SOL    HW157435  12.272   2.246  13.325
51846SOL    HW257436  12.138   2.183  13.293
51847SOL     OW57437   3.848   9.341   3.246
51847SOL    HW157438   3.771   9.360   3.299
51847SOL    HW257439   3.922   9.360   3.304
51848SOL     OW57440   8.731   7.315  14.653
51848SOL    HW157441   8.733   7.221  14.637
51848SOL    HW257442   8.671   7.326  14.727
51849SOL     OW57443  12.946   9.520   8.017
51849SOL    HW157444  12.903   9.464   7.953
51849SOL    HW257445  12.906   9.495   8.101
51850SOL     OW57446   6.790  10.855  13.348
51850SOL    HW157447   6.700  10.876  13.373
51850SOL    HW257448   6.782  10.801  13.269
51851SOL     OW57449   6.970  12.905   7.728
51851SOL    HW157450   6.907  12.975   7.708
51851SOL    HW257451   6.916  12.827   7.738
51852SOL     OW57452  12.971  10.423   1.498
51852SOL    HW157453  12.901  10.385   1.444
51852SOL    HW257454  13.009  10.492   1.443
51853SOL     OW57455   6.587  12.216   0.244
51853SOL    HW157456   6.513  12.156   0.228
51853SOL    HW257457   6.546  12.294   0.281
51854SOL     OW57458   1.732   6.173   8.194
51854SOL    HW157459   1.785   6.103   8.230
51854SOL    HW257460   1.776   6.253   8.221
51855SOL     OW57461   2.818  13.059  12.710
51855SOL    HW157462   2.777  12.981  12.749
51855SOL    HW257463   2.767  13.075  12.630
51856SOL     OW57464   2.950   6.567  10.400
51856SOL    HW157465   3.003   6.500  10.444
51856SOL    HW257466   2.998   6.588  10.321
51857SOL     OW57467   4.511   1.819   3.850
51857SOL    HW157468   4.496   1.744   3.907
51857SOL    HW257469   4.519   1.893   3.909
51858SOL     OW57470  10.787   0.670  10.770
51858SOL    HW157471  10.850   0.741  10.787
51858SOL    HW257472  10.785   0.662  10.675
51859SOL     OW57473   6.120   4.370  12.592
51859SOL    HW157474   6.096   4.286  12.632
51859SOL    HW257475   6.212   4.382  12.615
51860SOL     OW57476  11.405  13.417  13.864
51860SOL    HW157477  11.388  13.446  13.774
51860SOL    HW257478  11.319  13.406  13.903
51861SOL     OW57479  11.096   9.654   6.695
51861SOL    HW157480  11.023   9.715   6.683
51861SOL    HW257481  11.079   9.583   6.633
51862SOL     OW57482   6.629   2.454  14.521
51862SOL    HW157483   6.544   2.465  14.478
51862SOL    HW257484   6.692   2.488  14.457
51863SOL     OW57485  13.953  13.443  11.025
51863SOL    HW157486  13.927  13.490  11.105
51863SOL    HW257487  13.898  13.365  11.024
51864SOL     OW57488   2.121   1.234  12.446
51864SOL    HW157489   2.129   1.139  12.447
51864SOL    HW257490   2.207   1.267  12.471
51865SOL     OW57491  13.631   7.499   0.999
51865SOL    HW157492  13.692   7.558   0.955
51865SOL    HW257493  13.589   7.555   1.065
51866SOL     OW57494  14.440  11.767   6.765
51866SOL    HW157495  14.521  11.771   6.817
51866SOL    HW257496  14.424  11.674   6.754
51867SOL     OW57497  12.849   4.912   6.043
51867SOL    HW157498  12.825   4.993   6.088
51867SOL    HW257499  12.931   4.885   6.084
51868SOL     OW57500   1.651   5.677   6.591
51868SOL    HW157501   1.666   5.714   6.504
51868SOL    HW257502   1.734   5.690   6.637
51869SOL     OW57503   2.671  14.318  11.190
51869SOL    HW157504   2.599  14.281  11.139
51869SOL    HW257505   2.671  14.268  11.272
51870SOL     OW57506   2.563   0.013   1.630
51870SOL    HW157507   2.574  14.859   1.538
51870SOL    HW257508   2.598  14.813   1.680
51871SOL     OW57509   1.368   0.996   1.011
51871SOL    HW157510   1.452   0.988   0.965
51871SOL    HW257511   1.338   0.906   1.023
51872SOL     OW57512  12.906   4.333  11.216
51872SOL    HW157513  12.860   4.349  11.134
51872SOL    HW257514  12.995   4.309  11.190
51873SOL     OW57515   5.171  11.997   4.284
51873SOL    HW157516   5.194  11.923   4.229
51873SOL    HW257517   5.251  12.050   4.287
51874SOL     OW57518   2.729   1.187  10.594
51874SOL    HW157519   2.699   1.121  10.531
51874SOL    HW257520   2.702   1.154  10.679
51875SOL     OW57521   5.197   7.993   4.412
51875SOL    HW157522   5.270   7.993   4.475
51875SOL    HW257523   5.224   8.056   4.345
51876SOL     OW57524   3.471  14.432   9.301
51876SOL    HW157525   3.391  14.440   9.248
51876SOL    HW257526   3.463  14.347   9.344
51877SOL     OW57527   4.368  11.199   6.593
51877SOL    HW157528   4.362  11.229   6.503
51877SOL    HW257529   4.406  11.273   6.641
51878SOL     OW57530  11.659  10.650   5.433
51878SOL    HW157531  11.620  10.714   5.373
51878SOL    HW257532  11.738  10.621   5.388
51879SOL     OW57533   3.137   2.334  11.684
51879SOL    HW157534   3.180   2.336  11.770
51879SOL    HW257535   3.112   2.243  11.671
51880SOL     OW57536   5.757  14.084  12.541
51880SOL    HW157537   5.742  14.148  12.611
51880SOL    HW257538   5.681  14.093  12.484
51881SOL     OW57539   3.384   1.192  10.328
51881SOL    HW157540   3.468   1.148  10.324
51881SOL    HW257541   3.332   1.140  10.390
51882SOL     OW57542  11.828   5.877   5.947
51882SOL    HW157543  11.786   5.807   5.896
51882SOL    HW257544  11.918   5.878   5.917
51883SOL     OW57545   4.975   6.440   2.613
51883SOL    HW157546   4.943   6.436   2.703
51883SOL    HW257547   5.069   6.426   2.620
51884SOL     OW57548   8.890   8.960  10.324
51884SOL    HW157549   8.825   9.029  10.312
51884SOL    HW257550   8.873   8.899  10.253
51885SOL     OW57551   8.760   6.202   1.609
51885SOL    HW157552   8.697   6.272   1.590
51885SOL    HW257553   8.707   6.122   1.611
51886SOL     OW57554   5.860  12.771  11.299
51886SOL    HW157555   5.905  12.712  11.359
51886SOL    HW257556   5.930  12.820  11.256
51887SOL     OW57557   8.329  11.646  14.569
51887SOL    HW157558   8.235  11.635  14.555
51887SOL    HW257559   8.346  11.607  14.655
51888SOL     OW57560   5.636   5.685   5.870
51888SOL    HW157561   5.677   5.634   5.940
51888SOL    HW257562   5.691   5.763   5.862
51889SOL     OW57563  10.816   3.078   8.446
51889SOL    HW157564  10.781   3.021   8.515
51889SOL    HW257565  10.904   3.045   8.430
51890SOL     OW57566   1.685  11.984   4.529
51890SOL    HW157567   1.698  11.907   4.475
51890SOL    HW257568   1.660  11.949   4.615
51891SOL     OW57569   1.459  10.394   0.892
51891SOL    HW157570   1.394  10.359   0.831
51891SOL    HW257571   1.429  10.483   0.910
51892SOL     OW57572   1.722   7.620   1.374
51892SOL    HW157573   1.686   7.545   1.422
51892SOL    HW257574   1.810   7.593   1.348
51893SOL     OW57575   8.233   8.191   9.844
51893SOL    HW157576   8.183   8.251   9.899
51893SOL    HW257577   8.177   8.174   9.769
51894SOL     OW57578  10.171  14.735   7.326
51894SOL    HW157579  10.086  14.691   7.319
51894SOL    HW257580  10.157  14.801   7.394
51895SOL     OW57581   1.976   1.824  14.283
51895SOL    HW157582   1.909   1.822  14.351
51895SOL    HW257583   2.054   1.857  14.327
51896SOL     OW57584   7.634  12.467  12.621
51896SOL    HW157585   7.582  12.495  12.695
51896SOL    HW257586   7.724  12.467  12.653
51897SOL     OW57587   2.618   3.880   3.098
51897SOL    HW157588   2.702   3.841   3.076
51897SOL    HW257589   2.578   3.900   3.013
51898SOL     OW57590  12.088  13.171  10.973
51898SOL    HW157591  12.139  13.134  11.045
51898SOL    HW257592  12.132  13.140  10.894
51899SOL     OW57593   3.690  11.438   3.119
51899SOL    HW157594   3.729  11.395   3.195
51899SOL    HW257595   3.729  11.395   3.044
51900SOL     OW57596  13.131   3.647   1.734
51900SOL    HW157597  13.072   3.714   1.765
51900SOL    HW257598  13.204   3.647   1.796
51901SOL     OW57599   2.891  14.212  10.961
51901SOL    HW157600   2.883  14.129  11.008
51901SOL    HW257601   2.983  14.238  10.972
51902SOL     OW57602   0.073   0.631  14.472
51902SOL    HW157603  14.851   0.623  14.465
51902SOL    HW257604   0.106   0.541  14.467
51903SOL     OW57605   0.544   0.527   9.797
51903SOL    HW157606   0.635   0.543   9.772
51903SOL    HW257607   0.505   0.490   9.718
51904SOL     OW57608   2.112   1.671   8.268
51904SOL    HW157609   2.150   1.749   8.309
51904SOL    HW257610   2.183   1.632   8.218
51905SOL     OW57611   3.468   8.964  12.755
51905SOL    HW157612   3.482   9.005  12.669
51905SOL    HW257613   3.464   9.038  12.816
51906SOL     OW57614   1.673   4.941   2.339
51906SOL    HW157615   1.763   4.916   2.358
51906SOL    HW257616   1.642   4.875   2.276
51907SOL     OW57617  11.066   4.043   8.761
51907SOL    HW157618  11.009   4.012   8.832
51907SOL    HW257619  11.154   4.014   8.788
51908SOL     OW57620   4.311   2.069  14.100
51908SOL    HW157621   4.218   2.046  14.108
51908SOL    HW257622   4.326   2.072  14.005
51909SOL     OW57623   3.954   5.972   6.660
51909SOL    HW157624   3.900   6.028   6.605
51909SOL    HW257625   3.898   5.949   6.734
51910SOL     OW57626   5.437  14.309   0.590
51910SOL    HW157627   5.360  14.286   0.643
51910SOL    HW257628   5.400  14.346   0.510
51911SOL     OW57629   2.066  13.657   3.835
51911SOL    HW157630   2.013  13.608   3.772
51911SOL    HW257631   2.045  13.749   3.818
51912SOL     OW57632  13.546   1.964  10.115
51912SOL    HW157633  13.460   1.988  10.150
51912SOL    HW257634  13.555   1.871  10.136
51913SOL     OW57635  11.921   5.107   4.107
51913SOL    HW157636  11.986   5.046   4.143
51913SOL    HW257637  11.974   5.177   4.068
51914SOL     OW57638   0.890   8.064   3.866
51914SOL    HW157639   0.914   7.972   3.878
51914SOL    HW257640   0.809   8.061   3.816
51915SOL     OW57641   4.888   6.840   8.398
51915SOL    HW157642   4.912   6.920   8.446
51915SOL    HW257643   4.943   6.842   8.320
51916SOL     OW57644   5.478  12.208   0.494
51916SOL    HW157645   5.461  12.138   0.557
51916SOL    HW257646   5.542  12.264   0.537
51917SOL     OW57647  14.803   7.752   5.476
51917SOL    HW157648  14.713   7.781   5.463
51917SOL    HW257649  14.856   7.832   5.467
51918SOL     OW57650   7.957  12.722  12.543
51918SOL    HW157651   8.052  12.716  12.541
51918SOL    HW257652   7.930  12.645  12.593
51919SOL     OW57653   8.757   2.129   8.056
51919SOL    HW157654   8.737   2.117   8.148
51919SOL    HW257655   8.708   2.061   8.011
51920SOL     OW57656   2.724  14.139  12.935
51920SOL    HW157657   2.746  14.170  12.847
51920SOL    HW257658   2.685  14.052  12.920
51921SOL     OW57659   5.918  11.281   0.448
51921SOL    HW157660   5.823  11.277   0.455
51921SOL    HW257661   5.943  11.201   0.402
51922SOL     OW57662   6.443   4.050   0.661
51922SOL    HW157663   6.538   4.043   0.649
51922SOL    HW257664   6.406   3.995   0.592
51923SOL     OW57665   3.096   5.113   5.476
51923SOL    HW157666   3.156   5.093   5.547
51923SOL    HW257667   3.128   5.195   5.439
51924SOL     OW57668   2.168   3.057   0.572
51924SOL    HW157669   2.106   3.122   0.606
51924SOL    HW257670   2.142   3.046   0.480
51925SOL     OW57671   0.344   5.881  11.513
51925SOL    HW157672   0.291   5.922  11.582
51925SOL    HW257673   0.313   5.921  11.432
51926SOL     OW57674   0.422   2.388  10.738
51926SOL    HW157675   0.447   2.359  10.651
51926SOL    HW257676   0.342   2.440  10.724
51927SOL     OW57677   9.372   1.581   7.669
51927SOL    HW157678   9.445   1.543   7.620
51927SOL    HW257679   9.320   1.506   7.697
51928SOL     OW57680  10.688   9.847   5.956
51928SOL    HW157681  10.632   9.839   6.032
51928SOL    HW257682  10.770   9.804   5.981
51929SOL     OW57683   1.420  12.056   9.923
51929SOL    HW157684   1.420  12.119   9.851
51929SOL    HW257685   1.457  11.976   9.885
51930SOL     OW57686  12.869  11.720   7.938
51930SOL    HW157687  12.816  11.705   8.016
51930SOL    HW257688  12.835  11.801   7.900
51931SOL     OW57689  10.021  10.024   0.048
51931SOL    HW157690   9.931  10.055   0.039
51931SOL    HW257691  10.031   9.958  14.851
51932SOL     OW57692   9.725   1.096   5.138
51932SOL    HW157693   9.650   1.140   5.177
51932SOL    HW257694   9.766   1.162   5.082
51933SOL     OW57695   8.967  12.394   1.177
51933SOL    HW157696   8.994  12.303   1.185
51933SOL    HW257697   8.872  12.393   1.192
51934SOL     OW57698  10.409   1.117   7.693
51934SOL    HW157699  10.402   1.059   7.617
51934SOL    HW257700  10.366   1.198   7.666
51935SOL     OW57701   8.884  12.441  13.908
51935SOL    HW157702   8.958  12.385  13.932
51935SOL    HW257703   8.878  12.505  13.979
51936SOL     OW57704  10.264  14.421  11.325
51936SOL    HW157705  10.176  14.446  11.354
51936SOL    HW257706  10.319  14.430  11.403
51937SOL     OW57707  13.008   9.659  12.252
51937SOL    HW157708  12.959   9.640  12.172
51937SOL    HW257709  13.091   9.613  12.242
51938SOL     OW57710   8.926   4.390  10.170
51938SOL    HW157711   8.867   4.323  10.138
51938SOL    HW257712   8.913   4.464  10.111
51939SOL     OW57713   1.341   2.180   4.954
51939SOL    HW157714   1.376   2.231   4.880
51939SOL    HW257715   1.246   2.183   4.943
51940SOL     OW57716   4.109   9.982  10.072
51940SOL    HW157717   4.137  10.019  10.156
51940SOL    HW257718   4.056  10.051  10.032
51941SOL     OW57719   1.527   6.112   3.207
51941SOL    HW157720   1.543   6.101   3.113
51941SOL    HW257721   1.503   6.024   3.238
51942SOL     OW57722   1.270   7.059  14.744
51942SOL    HW157723   1.204   6.990  14.735
51942SOL    HW257724   1.326   7.029  14.816
51943SOL     OW57725   1.316  11.650   4.514
51943SOL    HW157726   1.253  11.589   4.476
51943SOL    HW257727   1.382  11.594   4.555
51944SOL     OW57728   7.962   2.898   8.382
51944SOL    HW157729   7.893   2.864   8.326
51944SOL    HW257730   7.976   2.830   8.447
51945SOL     OW57731   6.330   7.102   5.517
51945SOL    HW157732   6.411   7.052   5.506
51945SOL    HW257733   6.354   7.192   5.493
51946SOL     OW57734  10.258   1.627   5.615
51946SOL    HW157735  10.200   1.557   5.644
51946SOL    HW257736  10.278   1.676   5.695
51947SOL     OW57737   3.598  12.452   0.234
51947SOL    HW157738   3.658  12.454   0.159
51947SOL    HW257739   3.523  12.504   0.205
51948SOL     OW57740   7.368   2.577   6.153
51948SOL    HW157741   7.319   2.498   6.176
51948SOL    HW257742   7.427   2.591   6.228
51949SOL     OW57743   8.465  14.115  10.386
51949SOL    HW157744   8.524  14.055  10.341
51949SOL    HW257745   8.518  14.192  10.404
51950SOL     OW57746   1.865   5.001  11.341
51950SOL    HW157747   1.814   4.921  11.323
51950SOL    HW257748   1.847   5.057  11.265
51951SOL     OW57749   7.227   8.448  14.490
51951SOL    HW157750   7.166   8.522  14.487
51951SOL    HW257751   7.188   8.386  14.552
51952SOL     OW57752  13.608   8.987   0.906
51952SOL    HW157753  13.694   8.972   0.867
51952SOL    HW257754  13.546   8.977   0.833
51953SOL     OW57755   0.921   3.685   7.265
51953SOL    HW157756   0.962   3.702   7.180
51953SOL    HW257757   0.854   3.619   7.247
51954SOL     OW57758   7.952  13.589  12.637
51954SOL    HW157759   7.966  13.677  12.673
51954SOL    HW257760   7.890  13.603  12.565
51955SOL     OW57761   1.921   7.698  11.594
51955SOL    HW157762   1.910   7.755  11.518
51955SOL    HW257763   1.922   7.757  11.669
51956SOL     OW57764   3.101  14.254  12.374
51956SOL    HW157765   3.145  14.335  12.349
51956SOL    HW257766   3.011  14.266  12.346
51957SOL     OW57767   9.716   3.484   5.926
51957SOL    HW157768   9.788   3.547   5.922
51957SOL    HW257769   9.700   3.472   6.020
51958SOL     OW57770   8.818   4.423   4.242
51958SOL    HW157771   8.786   4.419   4.151
51958SOL    HW257772   8.743   4.399   4.295
51959SOL     OW57773  14.091   4.047   3.447
51959SOL    HW157774  14.088   4.143   3.444
51959SOL    HW257775  14.136   4.027   3.529
51960SOL     OW57776   2.490  13.445   4.354
51960SOL    HW157777   2.410  13.464   4.402
51960SOL    HW257778   2.502  13.351   4.364
51961SOL     OW57779  13.376   8.894   0.200
51961SOL    HW157780  13.359   8.892   0.295
51961SOL    HW257781  13.436   8.822   0.185
51962SOL     OW57782  12.617   5.348   8.128
51962SOL    HW157783  12.651   5.361   8.217
51962SOL    HW257784  12.600   5.436   8.095
51963SOL     OW57785   0.062  14.402  12.882
51963SOL    HW157786   0.102  14.462  12.945
51963SOL    HW257787  14.840  14.413  12.895
51964SOL     OW57788   0.111   0.072   8.780
51964SOL    HW157789   0.108   0.126   8.702
51964SOL    HW257790   0.148   0.130   8.848
51965SOL     OW57791   1.896   6.930  13.684
51965SOL    HW157792   1.801   6.918  13.690
51965SOL    HW257793   1.909   6.998  13.619
51966SOL     OW57794   5.968  14.477   8.846
51966SOL    HW157795   6.035  14.535   8.810
51966SOL    HW257796   5.972  14.490   8.940
51967SOL     OW57797   4.985  10.344  10.617
51967SOL    HW157798   4.983  10.294  10.698
51967SOL    HW257799   4.944  10.286  10.552
51968SOL     OW57800   5.124   5.417   9.779
51968SOL    HW157801   5.090   5.504   9.798
51968SOL    HW257802   5.060   5.357   9.818
51969SOL     OW57803   5.248   4.659  14.515
51969SOL    HW157804   5.267   4.565  14.518
51969SOL    HW257805   5.307   4.692  14.448
51970SOL     OW57806   3.299   4.319  12.067
51970SOL    HW157807   3.212   4.306  12.030
51970SOL    HW257808   3.321   4.410  12.046
51971SOL     OW57809   2.621  14.143   0.401
51971SOL    HW157810   2.715  14.128   0.408
51971SOL    HW257811   2.591  14.144   0.492
51972SOL     OW57812   8.071   1.656   7.653
51972SOL    HW157813   8.152   1.695   7.685
51972SOL    HW257814   8.060   1.694   7.565
51973SOL     OW57815   8.068   0.120  12.984
51973SOL    HW157816   8.150   0.160  12.953
51973SOL    HW257817   8.054   0.046  12.925
51974SOL     OW57818   6.463   0.488   9.868
51974SOL    HW157819   6.502   0.422   9.925
51974SOL    HW257820   6.516   0.567   9.883
51975SOL     OW57821   8.595   8.386   6.547
51975SOL    HW157822   8.661   8.317   6.536
51975SOL    HW257823   8.605   8.413   6.639
51976SOL     OW57824  12.794  12.620   1.854
51976SOL    HW157825  12.836  12.534   1.856
51976SOL    HW257826  12.731  12.614   1.782
51977SOL     OW57827   4.973   0.077   3.222
51977SOL    HW157828   4.884   0.053   3.198
51977SOL    HW257829   4.987   0.162   3.180
51978SOL     OW57830  12.911  13.716   5.594
51978SOL    HW157831  12.827  13.749   5.626
51978SOL    HW257832  12.902  13.712   5.499
51979SOL     OW57833   9.591   3.115  13.051
51979SOL    HW157834   9.518   3.060  13.025
51979SOL    HW257835   9.665   3.055  13.061
51980SOL     OW57836  10.647   6.756   9.777
51980SOL    HW157837  10.726   6.775   9.828
51980SOL    HW257838  10.634   6.662   9.786
51981SOL     OW57839  10.871   6.386   3.022
51981SOL    HW157840  10.921   6.355   2.946
51981SOL    HW257841  10.780   6.365   3.000
51982SOL     OW57842  12.303  13.830   4.416
51982SOL    HW157843  12.265  13.830   4.504
51982SOL    HW257844  12.386  13.876   4.426
51983SOL     OW57845   7.161  12.482   8.745
51983SOL    HW157846   7.179  12.453   8.834
51983SOL    HW257847   7.139  12.402   8.697
51984SOL     OW57848   5.731   1.073   6.360
51984SOL    HW157849   5.819   1.075   6.322
51984SOL    HW257850   5.678   1.031   6.293
51985SOL     OW57851   0.303   8.307   3.260
51985SOL    HW157852   0.252   8.384   3.237
51985SOL    HW257853   0.238   8.240   3.282
51986SOL     OW57854   8.862   3.256   3.606
51986SOL    HW157855   8.953   3.258   3.635
51986SOL    HW257856   8.818   3.198   3.669
51987SOL     OW57857   8.923   6.553  11.549
51987SOL    HW157858   8.919   6.460  11.573
51987SOL    HW257859   8.899   6.555  11.456
51988SOL     OW57860   6.601   6.127  10.220
51988SOL    HW157861   6.568   6.215  10.237
51988SOL    HW257862   6.696   6.138  10.217
51989SOL     OW57863   9.376  12.767   3.635
51989SOL    HW157864   9.391  12.814   3.717
51989SOL    HW257865   9.397  12.830   3.567
51990SOL     OW57866  12.107   8.280  12.730
51990SOL    HW157867  12.103   8.187  12.755
51990SOL    HW257868  12.087   8.280  12.637
51991SOL     OW57869  14.338  14.547  12.881
51991SOL    HW157870  14.289  14.543  12.963
51991SOL    HW257871  14.393  14.624  12.890
51992SOL     OW57872  12.454  10.906   3.378
51992SOL    HW157873  12.534  10.878   3.334
51992SOL    HW257874  12.484  10.967   3.445
51993SOL     OW57875  11.036   9.470   1.315
51993SOL    HW157876  10.950   9.493   1.279
51993SOL    HW257877  11.016   9.417   1.392
51994SOL     OW57878   5.575   7.584   0.749
51994SOL    HW157879   5.670   7.574   0.753
51994SOL    HW257880   5.555   7.649   0.817
51995SOL     OW57881   2.361   3.821  12.652
51995SOL    HW157882   2.287   3.826  12.591
51995SOL    HW257883   2.423   3.886  12.619
51996SOL     OW57884  12.859   0.092   7.196
51996SOL    HW157885  12.944   0.050   7.211
51996SOL    HW257886  12.823   0.105   7.284
51997SOL     OW57887   9.761  10.099   9.744
51997SOL    HW157888   9.770  10.014   9.788
51997SOL    HW257889   9.703  10.081   9.670
51998SOL     OW57890  10.754  11.874   0.442
51998SOL    HW157891  10.796  11.830   0.368
51998SOL    HW257892  10.825  11.926   0.481
51999SOL     OW57893   5.988  13.245   3.816
51999SOL    HW157894   5.969  13.280   3.729
51999SOL    HW257895   5.995  13.323   3.871
52000SOL     OW57896  11.982   8.710   1.166
52000SOL    HW157897  11.991   8.672   1.078
52000SOL    HW257898  11.954   8.800   1.150
52001SOL     OW57899   5.419   2.712  14.386
52001SOL    HW157900   5.432   2.711  14.481
52001SOL    HW257901   5.482   2.648  14.353
52002SOL     OW57902   5.518   3.126  14.322
52002SOL    HW157903   5.452   3.082  14.269
52002SOL    HW257904   5.479   3.211  14.343
52003SOL     OW57905   7.382   8.078   9.096
52003SOL    HW157906   7.291   8.064   9.072
52003SOL    HW257907   7.432   8.032   9.029
52004SOL     OW57908   7.029   4.536   3.787
52004SOL    HW157909   6.974   4.517   3.862
52004SOL    HW257910   6.972   4.584   3.727
52005SOL     OW57911   3.288   2.392  11.444
52005SOL    HW157912   3.231   2.392  11.521
52005SOL    HW257913   3.372   2.360  11.477
52006SOL     OW57914  11.632   6.466  11.492
52006SOL    HW157915  11.564   6.533  11.500
52006SOL    HW257916  11.714   6.514  11.507
52007SOL     OW57917  13.513   5.017   8.550
52007SOL    HW157918  13.600   5.052   8.566
52007SOL    HW257919  13.528   4.933   8.506
52008SOL     OW57920   8.395   0.401  11.177
52008SOL    HW157921   8.326   0.338  11.158
52008SOL    HW257922   8.409   0.447  11.094
52009SOL     OW57923   9.232   4.433   1.705
52009SOL    HW157924   9.186   4.508   1.743
52009SOL    HW257925   9.324   4.445   1.732
52010SOL     OW57926   5.524  10.176   8.507
52010SOL    HW157927   5.560  10.146   8.424
52010SOL    HW257928   5.513  10.097   8.559
52011SOL     OW57929   6.748   6.286   4.828
52011SOL    HW157930   6.656   6.307   4.845
52011SOL    HW257931   6.748   6.254   4.738
52012SOL     OW57932   4.310  14.560  11.495
52012SOL    HW157933   4.324  14.591  11.406
52012SOL    HW257934   4.398  14.543  11.529
52013SOL     OW57935   1.777   9.907   4.415
52013SOL    HW157936   1.755   9.815   4.401
52013SOL    HW257937   1.695   9.954   4.395
52014SOL     OW57938  14.807   0.999  10.574
52014SOL    HW157939  14.822   1.088  10.541
52014SOL    HW257940  14.746   1.009  10.646
52015SOL     OW57941  13.679   9.336   6.004
52015SOL    HW157942  13.653   9.340   5.912
52015SOL    HW257943  13.692   9.242   6.021
52016SOL     OW57944   6.961   9.450   4.333
52016SOL    HW157945   6.983   9.473   4.423
52016SOL    HW257946   7.039   9.405   4.300
52017SOL     OW57947  12.719   9.768   8.390
52017SOL    HW157948  12.700   9.753   8.298
52017SOL    HW257949  12.671   9.848   8.412
52018SOL     OW57950   1.671   0.242   4.748
52018SOL    HW157951   1.647   0.233   4.656
52018SOL    HW257952   1.727   0.319   4.751
52019SOL     OW57953   8.497   1.434   8.021
52019SOL    HW157954   8.413   1.422   8.065
52019SOL    HW257955   8.547   1.356   8.042
52020SOL     OW57956   8.936   8.763   4.372
52020SOL    HW157957   9.014   8.707   4.376
52020SOL    HW257958   8.970   8.852   4.367
52021SOL     OW57959  14.161  11.378   5.083
52021SOL    HW157960  14.218  11.317   5.035
52021SOL    HW257961  14.217  11.452   5.103
52022SOL     OW57962   1.990   0.283   4.952
52022SOL    HW157963   1.998   0.290   5.048
52022SOL    HW257964   1.956   0.195   4.937
52023SOL     OW57965   0.114  11.409   3.017
52023SOL    HW157966   0.139  11.494   2.980
52023SOL    HW257967   0.181  11.348   2.985
52024SOL     OW57968   7.602   1.577  10.013
52024SOL    HW157969   7.548   1.625  10.075
52024SOL    HW257970   7.593   1.486  10.040
52025SOL     OW57971  12.051   1.787   2.246
52025SOL    HW157972  12.115   1.825   2.186
52025SOL    HW257973  11.975   1.766   2.192
52026SOL     OW57974  12.762  11.486   0.980
52026SOL    HW157975  12.684  11.512   1.028
52026SOL    HW257976  12.771  11.552   0.911
52027SOL     OW57977   6.036   9.597   9.412
52027SOL    HW157978   6.062   9.526   9.354
52027SOL    HW257979   6.069   9.571   9.498
52028SOL     OW57980   3.785   9.608  12.825
52028SOL    HW157981   3.709   9.662  12.804
52028SOL    HW257982   3.753   9.546  12.891
52029SOL     OW57983  14.359  11.845   3.861
52029SOL    HW157984  14.410  11.830   3.941
52029SOL    HW257985  14.366  11.762   3.813
52030SOL     OW57986  10.390  12.600   0.260
52030SOL    HW157987  10.472  12.630   0.220
52030SOL    HW257988  10.369  12.667   0.325
52031SOL     OW57989   2.952  10.425   0.708
52031SOL    HW157990   2.967  10.377   0.626
52031SOL    HW257991   2.992  10.511   0.692
52032SOL     OW57992   5.808   1.238   8.997
52032SOL    HW157993   5.805   1.294   9.075
52032SOL    HW257994   5.808   1.149   9.032
52033SOL     OW57995  13.298   0.842  14.039
52033SOL    HW157996  13.276   0.774  14.102
52033SOL    HW257997  13.272   0.806  13.954
52034SOL     OW57998  13.408   7.859  13.723
52034SOL    HW157999  13.347   7.793  13.689
52034SOL    HW258000  13.418   7.837  13.816
52035SOL     OW58001   7.607  12.572  10.978
52035SOL    HW158002   7.625  12.488  11.021
52035SOL    HW258003   7.514  12.588  10.996
52036SOL     OW58004   3.221  10.907  14.433
52036SOL    HW158005   3.142  10.859  14.407
52036SOL    HW258006   3.293  10.855  14.397
52037SOL     OW58007   2.871   0.679   7.593
52037SOL    HW158008   2.810   0.619   7.636
52037SOL    HW258009   2.817   0.754   7.568
52038SOL     OW58010   3.493  14.422  12.417
52038SOL    HW158011   3.480  14.452  12.507
52038SOL    HW258012   3.558  14.482  12.381
52039SOL     OW58013   1.008   5.556  10.166
52039SOL    HW158014   0.973   5.632  10.119
52039SOL    HW258015   0.962   5.481  10.128
52040SOL     OW58016   0.770   9.026   0.658
52040SOL    HW158017   0.697   8.965   0.646
52040SOL    HW258018   0.742   9.106   0.614
52041SOL     OW58019  14.238  10.843   5.555
52041SOL    HW158020  14.283  10.765   5.522
52041SOL    HW258021  14.305  10.891   5.603
52042SOL     OW58022   2.348   2.100  14.624
52042SOL    HW158023   2.319   2.074  14.712
52042SOL    HW258024   2.377   2.191  14.635
52043SOL     OW58025  12.911   2.865   7.140
52043SOL    HW158026  12.965   2.796   7.180
52043SOL    HW258027  12.823   2.850   7.175
52044SOL     OW58028  13.333   4.058   3.996
52044SOL    HW158029  13.360   4.150   3.998
52044SOL    HW258030  13.325   4.033   4.088
52045SOL     OW58031   3.689   2.470   2.601
52045SOL    HW158032   3.613   2.473   2.543
52045SOL    HW258033   3.736   2.551   2.583
52046SOL     OW58034  11.714   7.948   9.437
52046SOL    HW158035  11.661   7.987   9.507
52046SOL    HW258036  11.789   8.008   9.428
52047SOL     OW58037  11.728  12.161   6.933
52047SOL    HW158038  11.778  12.234   6.970
52047SOL    HW258039  11.660  12.202   6.880
52048SOL     OW58040   4.457   1.540  12.727
52048SOL    HW158041   4.527   1.486  12.764
52048SOL    HW258042   4.473   1.628  12.761
52049SOL     OW58043  11.060   9.022   0.218
52049SOL    HW158044  11.077   8.983   0.304
52049SOL    HW258045  10.964   9.028   0.214
52050SOL     OW58046  14.088   4.470   8.973
52050SOL    HW158047  14.140   4.454   9.051
52050SOL    HW258048  14.092   4.388   8.924
52051SOL     OW58049   6.039   9.637  13.004
52051SOL    HW158050   6.066   9.701  13.070
52051SOL    HW258051   6.079   9.555  13.033
52052SOL     OW58052   3.399  11.749  12.591
52052SOL    HW158053   3.415  11.721  12.682
52052SOL    HW258054   3.475  11.803  12.570
52053SOL     OW58055  13.810   4.483   2.642
52053SOL    HW158056  13.832   4.544   2.712
52053SOL    HW258057  13.823   4.397   2.681
52054SOL     OW58058   3.025  11.580   0.088
52054SOL    HW158059   3.020  11.664   0.135
52054SOL    HW258060   2.955  11.527   0.127
52055SOL     OW58061  11.644   1.186   8.785
52055SOL    HW158062  11.555   1.210   8.756
52055SOL    HW258063  11.648   1.092   8.772
52056SOL     OW58064   7.234  10.028  14.034
52056SOL    HW158065   7.293   9.998  14.102
52056SOL    HW258066   7.204  10.114  14.063
52057SOL     OW58067   3.124   5.420  10.760
52057SOL    HW158068   3.046   5.415  10.705
52057SOL    HW258069   3.197   5.400  10.701
52058SOL     OW58070   1.699   4.778  12.838
52058SOL    HW158071   1.681   4.748  12.927
52058SOL    HW258072   1.760   4.713  12.802
52059SOL     OW58073  12.015   1.090   7.533
52059SOL    HW158074  12.003   1.124   7.622
52059SOL    HW258075  11.941   1.031   7.519
52060SOL     OW58076  12.888   9.674   2.997
52060SOL    HW158077  12.814   9.720   2.958
52060SOL    HW258078  12.898   9.595   2.944
52061SOL     OW58079  11.331  13.836  11.426
52061SOL    HW158080  11.259  13.807  11.369
52061SOL    HW258081  11.287  13.882  11.498
52062SOL     OW58082  14.192  12.127  12.183
52062SOL    HW158083  14.198  12.221  12.199
52062SOL    HW258084  14.269  12.108  12.129
52063SOL     OW58085  13.701   0.156   8.365
52063SOL    HW158086  13.684   0.248   8.348
52063SOL    HW258087  13.797   0.149   8.367
52064SOL     OW58088  10.787   2.882   2.024
52064SOL    HW158089  10.717   2.927   1.977
52064SOL    HW258090  10.781   2.914   2.114
52065SOL     OW58091  12.438   5.507   5.065
52065SOL    HW158092  12.519   5.551   5.093
52065SOL    HW258093  12.397   5.569   5.005
52066SOL     OW58094   7.251   4.874   3.290
52066SOL    HW158095   7.309   4.845   3.360
52066SOL    HW258096   7.292   4.954   3.256
52067SOL     OW58097  14.003  12.726   2.059
52067SOL    HW158098  14.063  12.784   2.105
52067SOL    HW258099  13.918  12.741   2.101
52068SOL     OW58100   6.142   9.539   3.000
52068SOL    HW158101   6.123   9.505   2.912
52068SOL    HW258102   6.099   9.478   3.059
52069SOL     OW58103   9.745   8.859   6.003
52069SOL    HW158104   9.686   8.906   5.944
52069SOL    HW258105   9.765   8.923   6.071
52070SOL     OW58106   5.329   2.432  14.268
52070SOL    HW158107   5.285   2.346  14.270
52070SOL    HW258108   5.342   2.454  14.360
52071SOL     OW58109   3.840  11.807   0.147
52071SOL    HW158110   3.921  11.763   0.122
52071SOL    HW258111   3.830  11.787   0.241
52072SOL     OW58112   2.697   1.468   4.105
52072SOL    HW158113   2.671   1.426   4.187
52072SOL    HW258114   2.756   1.406   4.064
52073SOL     OW58115  12.407  12.480   0.291
52073SOL    HW158116  12.380  12.544   0.358
52073SOL    HW258117  12.329  12.427   0.275
52074SOL     OW58118   5.618  11.967   2.182
52074SOL    HW158119   5.653  12.024   2.113
52074SOL    HW258120   5.540  12.012   2.214
52075SOL     OW58121   4.609  11.491   9.487
52075SOL    HW158122   4.603  11.565   9.426
52075SOL    HW258123   4.701  11.488   9.512
52076SOL     OW58124   1.056   2.676  10.436
52076SOL    HW158125   1.031   2.762  10.471
52076SOL    HW258126   1.056   2.618  10.512
52077SOL     OW58127   1.763   0.695  12.927
52077SOL    HW158128   1.701   0.769  12.933
52077SOL    HW258129   1.821   0.718  12.855
52078SOL     OW58130   9.097   7.564   6.323
52078SOL    HW158131   9.113   7.479   6.281
52078SOL    HW258132   9.184   7.596   6.347
52079SOL     OW58133   1.163   6.099  11.194
52079SOL    HW158134   1.149   6.009  11.224
52079SOL    HW258135   1.102   6.151  11.246
52080SOL     OW58136  13.914   4.247   0.867
52080SOL    HW158137  13.906   4.319   0.930
52080SOL    HW258138  13.964   4.180   0.914
52081SOL     OW58139   2.948  14.177  14.167
52081SOL    HW158140   3.015  14.136  14.222
52081SOL    HW258141   2.890  14.222  14.229
52082SOL     OW58142   2.830   7.260  10.919
52082SOL    HW158143   2.744   7.244  10.881
52082SOL    HW258144   2.823   7.346  10.960
52083SOL     OW58145   5.403   9.013   3.469
52083SOL    HW158146   5.351   8.986   3.544
52083SOL    HW258147   5.397   9.108   3.468
52084SOL     OW58148   0.610   4.072   7.521
52084SOL    HW158149   0.702   4.073   7.549
52084SOL    HW258150   0.573   3.995   7.565
52085SOL     OW58151   6.410   2.242   4.082
52085SOL    HW158152   6.449   2.237   4.169
52085SOL    HW258153   6.450   2.320   4.042
52086SOL     OW58154  13.451   4.350   0.452
52086SOL    HW158155  13.365   4.313   0.431
52086SOL    HW258156  13.509   4.274   0.452
52087SOL     OW58157   4.194   3.287   4.238
52087SOL    HW158158   4.142   3.290   4.158
52087SOL    HW258159   4.138   3.243   4.302
52088SOL     OW58160   0.332   0.823   1.112
52088SOL    HW158161   0.278   0.744   1.121
52088SOL    HW258162   0.422   0.792   1.129
52089SOL     OW58163   1.781   6.148   7.396
52089SOL    HW158164   1.822   6.067   7.368
52089SOL    HW258165   1.739   6.183   7.317
52090SOL     OW58166  14.572   6.588  11.831
52090SOL    HW158167  14.617   6.537  11.763
52090SOL    HW258168  14.638   6.649  11.863
52091SOL     OW58169   5.690   8.399   2.832
52091SOL    HW158170   5.750   8.343   2.783
52091SOL    HW258171   5.736   8.483   2.838
52092SOL     OW58172   2.498  14.540   0.081
52092SOL    HW158173   2.572  14.500   0.127
52092SOL    HW258174   2.526  14.542  14.862
52093SOL     OW58175   9.143  12.269   1.792
52093SOL    HW158176   9.221  12.248   1.740
52093SOL    HW258177   9.120  12.187   1.835
52094SOL     OW58178   3.629  12.292  11.662
52094SOL    HW158179   3.664  12.214  11.706
52094SOL    HW258180   3.569  12.258  11.596
52095SOL     OW58181   1.253   3.095   8.642
52095SOL    HW158182   1.239   3.035   8.568
52095SOL    HW258183   1.321   3.155   8.611
52096SOL     OW58184   4.961   4.589   8.135
52096SOL    HW158185   4.946   4.542   8.217
52096SOL    HW258186   4.901   4.549   8.072
52097SOL     OW58187  13.358   2.942   5.410
52097SOL    HW158188  13.301   3.014   5.383
52097SOL    HW258189  13.441   2.960   5.366
52098SOL     OW58190   6.279   5.149   9.786
52098SOL    HW158191   6.298   5.193   9.703
52098SOL    HW258192   6.213   5.203   9.828
52099SOL     OW58193   2.257  11.493  14.816
52099SOL    HW158194   2.285  11.533  14.734
52099SOL    HW258195   2.312  11.416  14.826
52100SOL     OW58196   5.609   7.863   2.835
52100SOL    HW158197   5.610   7.806   2.758
52100SOL    HW258198   5.622   7.951   2.800
52101SOL     OW58199   1.050  13.753  14.840
52101SOL    HW158200   1.055  13.740   0.063
52101SOL    HW258201   1.024  13.845  14.830
52102SOL     OW58202  11.536   3.702  11.998
52102SOL    HW158203  11.557   3.791  12.027
52102SOL    HW258204  11.602   3.647  12.041
52103SOL     OW58205  13.897   9.452   4.923
52103SOL    HW158206  13.966   9.518   4.920
52103SOL    HW258207  13.874   9.436   4.831
52104SOL     OW58208   0.753   4.548   3.899
52104SOL    HW158209   0.660   4.571   3.906
52104SOL    HW258210   0.770   4.546   3.804
52105SOL     OW58211   3.644   1.301   4.770
52105SOL    HW158212   3.702   1.251   4.713
52105SOL    HW258213   3.583   1.236   4.806
52106SOL     OW58214   7.603   7.566  12.387
52106SOL    HW158215   7.554   7.641  12.422
52106SOL    HW258216   7.572   7.491  12.439
52107SOL     OW58217  13.556   5.129   3.762
52107SOL    HW158218  13.493   5.164   3.699
52107SOL    HW258219  13.506   5.116   3.842
52108SOL     OW58220   8.164   2.606   6.832
52108SOL    HW158221   8.079   2.644   6.855
52108SOL    HW258222   8.228   2.674   6.855
52109SOL     OW58223   8.333   6.555   0.084
52109SOL    HW158224   8.344   6.471   0.128
52109SOL    HW258225   8.296   6.534  14.871
52110SOL     OW58226   1.758  11.964   8.608
52110SOL    HW158227   1.735  11.871   8.602
52110SOL    HW258228   1.792  11.975   8.697
52111SOL     OW58229   2.904   1.408  14.474
52111SOL    HW158230   2.935   1.498  14.471
52111SOL    HW258231   2.928   1.371  14.389
52112SOL     OW58232   2.944   8.888   8.343
52112SOL    HW158233   3.022   8.869   8.291
52112SOL    HW258234   2.896   8.805   8.346
52113SOL     OW58235   2.048   1.523   8.730
52113SOL    HW158236   2.069   1.494   8.819
52113SOL    HW258237   1.980   1.589   8.742
52114SOL     OW58238  10.786   9.267   8.782
52114SOL    HW158239  10.762   9.289   8.872
52114SOL    HW258240  10.712   9.297   8.729
52115SOL     OW58241  11.213  11.166   4.559
52115SOL    HW158242  11.131  11.191   4.602
52115SOL    HW258243  11.280  11.182   4.625
52116SOL     OW58244  10.331   6.314  10.653
52116SOL    HW158245  10.276   6.341  10.579
52116SOL    HW258246  10.421   6.322  10.620
52117SOL     OW58247  11.772   4.155   0.050
52117SOL    HW158248  11.718   4.179   0.125
52117SOL    HW258249  11.733   4.201  14.848
52118SOL     OW58250   2.864   9.268   4.849
52118SOL    HW158251   2.810   9.224   4.916
52118SOL    HW258252   2.952   9.233   4.863
52119SOL     OW58253  11.786   9.408  14.166
52119SOL    HW158254  11.700   9.450  14.154
52119SOL    HW258255  11.845   9.480  14.185
52120SOL     OW58256   5.190   0.510  12.619
52120SOL    HW158257   5.181   0.454  12.542
52120SOL    HW258258   5.158   0.596  12.591
52121SOL     OW58259   4.787  14.495  10.551
52121SOL    HW158260   4.832  14.574  10.520
52121SOL    HW258261   4.844  14.423  10.524
52122SOL     OW58262  11.591   1.589   5.974
52122SOL    HW158263  11.657   1.576   5.906
52122SOL    HW258264  11.586   1.505   6.019
52123SOL     OW58265   7.321   2.990   2.816
52123SOL    HW158266   7.371   2.950   2.744
52123SOL    HW258267   7.264   2.920   2.847
52124SOL     OW58268  14.194  11.865   5.657
52124SOL    HW158269  14.171  11.956   5.638
52124SOL    HW258270  14.116  11.816   5.631
52125SOL     OW58271  12.501   2.753  13.473
52125SOL    HW158272  12.568   2.821  13.465
52125SOL    HW258273  12.485   2.723  13.384
52126SOL     OW58274  13.698   6.314   0.784
52126SOL    HW158275  13.635   6.263   0.734
52126SOL    HW258276  13.758   6.349   0.719
52127SOL     OW58277   7.960   7.691   3.882
52127SOL    HW158278   8.000   7.655   3.961
52127SOL    HW258279   8.033   7.702   3.821
52128SOL     OW58280   1.135   1.472   6.924
52128SOL    HW158281   1.051   1.436   6.895
52128SOL    HW258282   1.120   1.566   6.930
52129SOL     OW58283  14.358   4.249  14.113
52129SOL    HW158284  14.409   4.169  14.107
52129SOL    HW258285  14.304   4.250  14.034
52130SOL     OW58286   6.601  11.339   5.436
52130SOL    HW158287   6.538  11.270   5.416
52130SOL    HW258288   6.687  11.298   5.427
52131SOL     OW58289   5.755   9.792  12.013
52131SOL    HW158290   5.774   9.704  11.980
52131SOL    HW258291   5.664   9.807  11.989
52132SOL     OW58292   3.526   0.380   4.102
52132SOL    HW158293   3.570   0.303   4.140
52132SOL    HW258294   3.538   0.370   4.008
52133SOL     OW58295   9.761  10.159   7.366
52133SOL    HW158296   9.788  10.107   7.290
52133SOL    HW258297   9.693  10.107   7.409
52134SOL     OW58298   8.643   7.769   5.756
52134SOL    HW158299   8.550   7.792   5.761
52134SOL    HW258300   8.689   7.852   5.760
52135SOL     OW58301   7.729   4.093   7.281
52135SOL    HW158302   7.653   4.130   7.325
52135SOL    HW258303   7.692   4.041   7.209
52136SOL     OW58304  13.325  10.993   0.617
52136SOL    HW158305  13.295  11.001   0.527
52136SOL    HW258306  13.246  10.973   0.667
52137SOL     OW58307   3.402   9.172   1.604
52137SOL    HW158308   3.435   9.161   1.514
52137SOL    HW258309   3.317   9.128   1.603
52138SOL     OW58310   2.588   9.476   3.972
52138SOL    HW158311   2.548   9.544   4.026
52138SOL    HW258312   2.524   9.459   3.903
52139SOL     OW58313  14.319   2.062   1.361
52139SOL    HW158314  14.311   2.157   1.370
52139SOL    HW258315  14.389   2.038   1.422
52140SOL     OW58316  13.487   6.527   6.907
52140SOL    HW158317  13.402   6.545   6.866
52140SOL    HW258318  13.489   6.431   6.915
52141SOL     OW58319   0.479  14.366   1.068
52141SOL    HW158320   0.446  14.279   1.093
52141SOL    HW258321   0.573  14.352   1.057
52142SOL     OW58322   4.150  10.254  11.575
52142SOL    HW158323   4.143  10.349  11.564
52142SOL    HW258324   4.094  10.217  11.506
52143SOL     OW58325   1.031   2.674  12.026
52143SOL    HW158326   1.031   2.622  12.106
52143SOL    HW258327   1.101   2.636  11.973
52144SOL     OW58328   9.304   2.953   0.233
52144SOL    HW158329   9.335   3.036   0.268
52144SOL    HW258330   9.380   2.916   0.187
52145SOL     OW58331   5.202   7.312   7.644
52145SOL    HW158332   5.283   7.345   7.683
52145SOL    HW258333   5.136   7.323   7.713
52146SOL     OW58334   4.614  12.351   7.169
52146SOL    HW158335   4.672  12.298   7.115
52146SOL    HW258336   4.654  12.438   7.170
52147SOL     OW58337  13.831  11.835   4.851
52147SOL    HW158338  13.743  11.837   4.815
52147SOL    HW258339  13.847  11.924   4.882
52148SOL     OW58340  11.030   5.027   4.916
52148SOL    HW158341  11.023   4.943   4.960
52148SOL    HW258342  11.106   5.069   4.957
52149SOL     OW58343   5.243   0.274  11.071
52149SOL    HW158344   5.300   0.198  11.062
52149SOL    HW258345   5.218   0.297  10.982
52150SOL     OW58346   8.610  10.842   1.298
52150SOL    HW158347   8.617  10.916   1.236
52150SOL    HW258348   8.594  10.766   1.242
52151SOL     OW58349   9.619  13.565  13.112
52151SOL    HW158350   9.557  13.500  13.079
52151SOL    HW258351   9.659  13.602  13.032
52152SOL     OW58352   5.733   5.443   8.369
52152SOL    HW158353   5.827   5.425   8.370
52152SOL    HW258354   5.703   5.416   8.282
52153SOL     OW58355   0.671  14.664   5.679
52153SOL    HW158356   0.664  14.760   5.687
52153SOL    HW258357   0.589  14.637   5.639
52154SOL     OW58358   4.159   9.461  14.231
52154SOL    HW158359   4.116   9.434  14.313
52154SOL    HW258360   4.104   9.531  14.196
52155SOL     OW58361  14.693   3.156   9.749
52155SOL    HW158362  14.675   3.095   9.820
52155SOL    HW258363  14.699   3.100   9.671
52156SOL     OW58364   8.219   2.886  12.039
52156SOL    HW158365   8.297   2.942  12.034
52156SOL    HW258366   8.146   2.947  12.032
52157SOL     OW58367   4.929   4.992   4.789
52157SOL    HW158368   4.954   5.012   4.879
52157SOL    HW258369   4.833   4.997   4.789
52158SOL     OW58370   1.006  10.169   4.874
52158SOL    HW158371   1.035  10.252   4.837
52158SOL    HW258372   1.062  10.157   4.951
52159SOL     OW58373  12.853  11.467   9.797
52159SOL    HW158374  12.853  11.468   9.893
52159SOL    HW258375  12.761  11.479   9.773
52160SOL     OW58376  12.769   0.224  11.670
52160SOL    HW158377  12.691   0.207  11.617
52160SOL    HW258378  12.737   0.279  11.741
52161SOL     OW58379  14.337   6.136   8.038
52161SOL    HW158380  14.385   6.054   8.049
52161SOL    HW258381  14.334   6.150   7.944
52162SOL     OW58382   7.682  11.218   7.795
52162SOL    HW158383   7.599  11.254   7.828
52162SOL    HW258384   7.709  11.155   7.861
52163SOL     OW58385  13.753  11.142   1.464
52163SOL    HW158386  13.831  11.195   1.479
52163SOL    HW258387  13.685  11.182   1.519
52164SOL     OW58388   2.161  10.044   2.427
52164SOL    HW158389   2.168  10.035   2.332
52164SOL    HW258390   2.098   9.976   2.452
52165SOL     OW58391   4.964  13.938   1.267
52165SOL    HW158392   4.879  13.979   1.284
52165SOL    HW258393   5.025  14.011   1.259
52166SOL     OW58394   0.940  12.336   6.548
52166SOL    HW158395   0.965  12.309   6.636
52166SOL    HW258396   0.851  12.304   6.536
52167SOL     OW58397   1.952   3.941   2.756
52167SOL    HW158398   1.999   3.871   2.711
52167SOL    HW258399   1.861   3.929   2.731
52168SOL     OW58400   4.398   9.165   7.320
52168SOL    HW158401   4.310   9.147   7.287
52168SOL    HW258402   4.384   9.229   7.391
52169SOL     OW58403  14.665   2.839   9.025
52169SOL    HW158404  14.620   2.791   8.956
52169SOL    HW258405  14.641   2.793   9.106
52170SOL     OW58406  13.943  13.568   9.453
52170SOL    HW158407  13.864  13.579   9.506
52170SOL    HW258408  14.009  13.620   9.499
52171SOL     OW58409   0.977   8.336   3.584
52171SOL    HW158410   0.897   8.387   3.567
52171SOL    HW258411   1.012   8.317   3.498
52172SOL     OW58412   5.844   9.211   3.506
52172SOL    HW158413   5.828   9.224   3.599
52172SOL    HW258414   5.892   9.289   3.478
52173SOL     OW58415   0.677   3.304   5.747
52173SOL    HW158416   0.747   3.246   5.715
52173SOL    HW258417   0.691   3.309   5.841
52174SOL     OW58418   0.121   5.938  11.079
52174SOL    HW158419   0.191   5.963  11.138
52174SOL    HW258420   0.149   5.969  10.993
52175SOL     OW58421   9.610   8.259   8.395
52175SOL    HW158422   9.701   8.249   8.423
52175SOL    HW258423   9.611   8.235   8.302
52176SOL     OW58424   6.754   9.928   4.968
52176SOL    HW158425   6.756   9.863   4.898
52176SOL    HW258426   6.662   9.953   4.976
52177SOL     OW58427  12.387  12.050   5.150
52177SOL    HW158428  12.414  11.961   5.168
52177SOL    HW258429  12.304  12.060   5.197
52178SOL     OW58430   3.467   0.100   1.944
52178SOL    HW158431   3.516   0.042   2.002
52178SOL    HW258432   3.526   0.173   1.927
52179SOL     OW58433   1.134  11.818  11.875
52179SOL    HW158434   1.185  11.810  11.955
52179SOL    HW258435   1.193  11.861  11.813
52180SOL     OW58436   4.084  12.163   3.121
52180SOL    HW158437   4.080  12.255   3.147
52180SOL    HW258438   4.167  12.132   3.157
52181SOL     OW58439   3.159   8.139   0.427
52181SOL    HW158440   3.125   8.126   0.516
52181SOL    HW258441   3.217   8.064   0.413
52182SOL     OW58442   1.924  12.611  11.798
52182SOL    HW158443   1.940  12.663  11.720
52182SOL    HW258444   1.912  12.675  11.868
52183SOL     OW58445  13.958   8.637   5.174
52183SOL    HW158446  13.873   8.600   5.150
52183SOL    HW258447  13.945   8.732   5.167
52184SOL     OW58448   3.979  13.450   7.112
52184SOL    HW158449   3.908  13.503   7.076
52184SOL    HW258450   4.009  13.500   7.189
52185SOL     OW58451   8.784  13.622   8.181
52185SOL    HW158452   8.801  13.583   8.095
52185SOL    HW258453   8.689  13.621   8.189
52186SOL     OW58454   4.690  11.630   7.767
52186SOL    HW158455   4.679  11.547   7.721
52186SOL    HW258456   4.757  11.614   7.833
52187SOL     OW58457   2.739   1.344   2.535
52187SOL    HW158458   2.826   1.361   2.569
52187SOL    HW258459   2.754   1.313   2.446
52188SOL     OW58460   3.092  10.843   9.344
52188SOL    HW158461   3.174  10.795   9.332
52188SOL    HW258462   3.117  10.923   9.391
52189SOL     OW58463   8.143  14.029   5.037
52189SOL    HW158464   8.213  14.019   5.102
52189SOL    HW258465   8.188  14.056   4.957
52190SOL     OW58466   4.643  12.659   6.052
52190SOL    HW158467   4.730  12.673   6.090
52190SOL    HW258468   4.583  12.686   6.121
52191SOL     OW58469  12.990   6.388   8.426
52191SOL    HW158470  13.049   6.404   8.500
52191SOL    HW258471  13.014   6.301   8.394
52192SOL     OW58472   8.522   2.584   2.415
52192SOL    HW158473   8.489   2.543   2.495
52192SOL    HW258474   8.443   2.608   2.367
52193SOL     OW58475  12.248   9.638   9.655
52193SOL    HW158476  12.177   9.663   9.596
52193SOL    HW258477  12.308   9.587   9.601
52194SOL     OW58478   0.159   3.414  11.803
52194SOL    HW158479   0.242   3.412  11.755
52194SOL    HW258480   0.096   3.449  11.740
52195SOL     OW58481   3.379   2.460   6.134
52195SOL    HW158482   3.311   2.438   6.198
52195SOL    HW258483   3.332   2.473   6.052
52196SOL     OW58484  10.947  12.224  13.055
52196SOL    HW158485  10.983  12.312  13.042
52196SOL    HW258486  11.016  12.176  13.100
52197SOL     OW58487  12.772   7.890   4.595
52197SOL    HW158488  12.867   7.897   4.596
52197SOL    HW258489  12.742   7.974   4.562
52198SOL     OW58490   3.420   7.769  14.804
52198SOL    HW158491   3.512   7.743  14.806
52198SOL    HW258492   3.420   7.857  14.767
52199SOL     OW58493   5.632  10.033  12.974
52199SOL    HW158494   5.700   9.966  12.974
52199SOL    HW258495   5.612  10.046  12.881
52200SOL     OW58496   3.283   9.527   5.461
52200SOL    HW158497   3.264   9.561   5.548
52200SOL    HW258498   3.230   9.580   5.402
52201SOL     OW58499   7.599   3.705  10.051
52201SOL    HW158500   7.550   3.772  10.099
52201SOL    HW258501   7.679   3.749  10.022
52202SOL     OW58502  11.089   0.515  12.360
52202SOL    HW158503  11.040   0.566  12.425
52202SOL    HW258504  11.024   0.492  12.294
52203SOL     OW58505  10.690   8.574   2.794
52203SOL    HW158506  10.684   8.481   2.813
52203SOL    HW258507  10.767   8.604   2.843
52204SOL     OW58508   8.936  14.205   9.742
52204SOL    HW158509   8.936  14.286   9.690
52204SOL    HW258510   8.843  14.186   9.756
52205SOL     OW58511   9.325  10.723  10.039
52205SOL    HW158512   9.323  10.637  10.080
52205SOL    HW258513   9.284  10.710   9.954
52206SOL     OW58514  11.728   1.124  12.413
52206SOL    HW158515  11.822   1.130  12.428
52206SOL    HW258516  11.717   1.139  12.319
52207SOL     OW58517  14.504   0.496   5.454
52207SOL    HW158518  14.505   0.404   5.479
52207SOL    HW258519  14.427   0.532   5.498
52208SOL     OW58520  12.229   2.974   3.601
52208SOL    HW158521  12.201   3.047   3.656
52208SOL    HW258522  12.279   2.917   3.660
52209SOL     OW58523  13.856   9.624   1.779
52209SOL    HW158524  13.945   9.659   1.781
52209SOL    HW258525  13.828   9.626   1.871
52210SOL     OW58526   3.352   1.296  12.227
52210SOL    HW158527   3.262   1.329  12.232
52210SOL    HW258528   3.365   1.247  12.308
52211SOL     OW58529   3.465   8.384   4.203
52211SOL    HW158530   3.519   8.384   4.124
52211SOL    HW258531   3.386   8.431   4.177
52212SOL     OW58532  14.385   7.865  10.656
52212SOL    HW158533  14.323   7.931  10.626
52212SOL    HW258534  14.471   7.907  10.647
52213SOL     OW58535   8.178  12.759   6.047
52213SOL    HW158536   8.101  12.707   6.070
52213SOL    HW258537   8.230  12.762   6.127
52214SOL     OW58538   2.134  11.288   5.672
52214SOL    HW158539   2.209  11.347   5.659
52214SOL    HW258540   2.122  11.286   5.767
52215SOL     OW58541  13.068   3.876   6.984
52215SOL    HW158542  12.997   3.873   7.048
52215SOL    HW258543  13.111   3.961   6.999
52216SOL     OW58544   3.606   2.830  10.565
52216SOL    HW158545   3.683   2.824  10.622
52216SOL    HW258546   3.632   2.785  10.485
52217SOL     OW58547   2.746  13.260   8.769
52217SOL    HW158548   2.674  13.201   8.791
52217SOL    HW258549   2.791  13.276   8.852
52218SOL     OW58550   8.212  14.693   3.222
52218SOL    HW158551   8.153  14.704   3.147
52218SOL    HW258552   8.248  14.605   3.211
52219SOL     OW58553   7.007   0.972   2.666
52219SOL    HW158554   6.919   1.008   2.682
52219SOL    HW258555   7.066   1.036   2.705
52220SOL     OW58556  11.219   9.360   2.087
52220SOL    HW158557  11.288   9.322   2.141
52220SOL    HW258558  11.251   9.449   2.068
52221SOL     OW58559   8.045   6.338  14.848
52221SOL    HW158560   8.103   6.322  14.773
52221SOL    HW258561   8.074   6.275   0.042
52222SOL     OW58562   5.877   9.909   2.342
52222SOL    HW158563   5.950   9.969   2.326
52222SOL    HW258564   5.806   9.965   2.372
52223SOL     OW58565  13.414   8.069  12.181
52223SOL    HW158566  13.418   8.138  12.247
52223SOL    HW258567  13.326   8.032  12.190
52224SOL     OW58568  10.111   3.551   0.189
52224SOL    HW158569  10.093   3.617   0.256
52224SOL    HW258570  10.044   3.484   0.201
52225SOL     OW58571  12.410  10.494  11.768
52225SOL    HW158572  12.442  10.472  11.856
52225SOL    HW258573  12.402  10.409  11.724
52226SOL     OW58574   1.873   8.174  12.400
52226SOL    HW158575   1.816   8.150  12.472
52226SOL    HW258576   1.900   8.264  12.419
52227SOL     OW58577   6.285   3.075   8.601
52227SOL    HW158578   6.379   3.060   8.606
52227SOL    HW258579   6.262   3.113   8.686
52228SOL     OW58580   2.214   3.586   8.004
52228SOL    HW158581   2.230   3.493   7.990
52228SOL    HW258582   2.194   3.620   7.917
52229SOL     OW58583   3.127   1.775   1.136
52229SOL    HW158584   3.144   1.855   1.087
52229SOL    HW258585   3.156   1.705   1.077
52230SOL     OW58586   4.489   5.684   5.685
52230SOL    HW158587   4.549   5.742   5.731
52230SOL    HW258588   4.409   5.687   5.738
52231SOL     OW58589   5.731  11.405   3.878
52231SOL    HW158590   5.793  11.400   3.951
52231SOL    HW258591   5.767  11.471   3.820
52232SOL     OW58592  12.573  11.532   7.169
52232SOL    HW158593  12.574  11.494   7.081
52232SOL    HW258594  12.664  11.534   7.196
52233SOL     OW58595   5.307   9.899   4.422
52233SOL    HW158596   5.313   9.803   4.414
52233SOL    HW258597   5.309   9.930   4.332
52234SOL     OW58598   8.112  12.460  11.010
52234SOL    HW158599   8.141  12.551  11.014
52234SOL    HW258600   8.095  12.444  10.917
52235SOL     OW58601  11.266  10.253   3.505
52235SOL    HW158602  11.281  10.182   3.568
52235SOL    HW258603  11.220  10.211   3.432
52236SOL     OW58604   2.170   5.779   6.918
52236SOL    HW158605   2.207   5.865   6.939
52236SOL    HW258606   2.244   5.719   6.926
52237SOL     OW58607  10.503  13.015  11.678
52237SOL    HW158608  10.506  12.935  11.731
52237SOL    HW258609  10.463  13.080  11.736
52238SOL     OW58610   7.505   9.655   5.076
52238SOL    HW158611   7.549   9.698   5.002
52238SOL    HW258612   7.567   9.662   5.149
52239SOL     OW58613  13.849   3.320   9.700
52239SOL    HW158614  13.923   3.367   9.737
52239SOL    HW258615  13.786   3.315   9.772
52240SOL     OW58616   6.477   0.587   3.973
52240SOL    HW158617   6.460   0.613   4.063
52240SOL    HW258618   6.390   0.580   3.933
52241SOL     OW58619   3.252  12.259   9.717
52241SOL    HW158620   3.238  12.305   9.635
52241SOL    HW258621   3.347  12.257   9.727
52242SOL     OW58622   5.372  14.311   2.906
52242SOL    HW158623   5.338  14.222   2.892
52242SOL    HW258624   5.413  14.334   2.823
52243SOL     OW58625  12.448  13.389   7.638
52243SOL    HW158626  12.529  13.405   7.686
52243SOL    HW258627  12.420  13.476   7.609
52244SOL     OW58628  11.824   0.666   8.518
52244SOL    HW158629  11.749   0.675   8.576
52244SOL    HW258630  11.897   0.706   8.567
52245SOL     OW58631   1.136  11.697   1.170
52245SOL    HW158632   1.131  11.698   1.074
52245SOL    HW258633   1.228  11.716   1.189
52246SOL     OW58634   4.175  11.623   9.580
52246SOL    HW158635   4.132  11.682   9.518
52246SOL    HW258636   4.159  11.535   9.545
52247SOL     OW58637   4.805   1.393   2.188
52247SOL    HW158638   4.751   1.330   2.141
52247SOL    HW258639   4.826   1.350   2.270
52248SOL     OW58640   5.713  12.066   1.247
52248SOL    HW158641   5.724  12.087   1.340
52248SOL    HW258642   5.796  12.025   1.223
52249SOL     OW58643   9.697   1.738  10.841
52249SOL    HW158644   9.728   1.736  10.932
52249SOL    HW258645   9.603   1.723  10.848
52250SOL     OW58646   4.132   5.984  11.537
52250SOL    HW158647   4.131   5.932  11.457
52250SOL    HW258648   4.203   5.946  11.589
52251SOL     OW58649  12.714   3.114   8.279
52251SOL    HW158650  12.769   3.165   8.220
52251SOL    HW258651  12.627   3.154   8.272
52252SOL     OW58652  11.255  14.711   5.656
52252SOL    HW158653  11.296  14.679   5.737
52252SOL    HW258654  11.181  14.652   5.643
52253SOL     OW58655  12.494   3.268   3.502
52253SOL    HW158656  12.457   3.182   3.486
52253SOL    HW258657  12.517   3.301   3.415
52254SOL     OW58658  11.840   0.993  11.277
52254SOL    HW158659  11.797   0.909  11.262
52254SOL    HW258660  11.855   0.996  11.371
52255SOL     OW58661   6.925   2.883  11.979
52255SOL    HW158662   7.011   2.880  12.022
52255SOL    HW258663   6.908   2.976  11.965
52256SOL     OW58664   2.851   5.171   0.195
52256SOL    HW158665   2.792   5.096   0.191
52256SOL    HW258666   2.804   5.240   0.148
52257SOL     OW58667   1.850   7.660  14.702
52257SOL    HW158668   1.945   7.659  14.706
52257SOL    HW258669   1.826   7.570  14.681
52258SOL     OW58670  13.972  11.098   3.713
52258SOL    HW158671  13.947  11.124   3.802
52258SOL    HW258672  13.998  11.007   3.722
52259SOL     OW58673   4.391   2.804   3.494
52259SOL    HW158674   4.316   2.842   3.447
52259SOL    HW258675   4.418   2.730   3.440
52260SOL     OW58676   0.718  10.102   8.414
52260SOL    HW158677   0.692  10.103   8.322
52260SOL    HW258678   0.643  10.140   8.461
52261SOL     OW58679   1.144  10.860   9.896
52261SOL    HW158680   1.062  10.829   9.935
52261SOL    HW258681   1.197  10.781   9.885
52262SOL     OW58682   5.008  12.625   6.997
52262SOL    HW158683   4.986  12.561   6.929
52262SOL    HW258684   4.926  12.638   7.045
52263SOL     OW58685  13.875   9.644   8.725
52263SOL    HW158686  13.794   9.629   8.676
52263SOL    HW258687  13.918   9.716   8.678
52264SOL     OW58688  11.879   4.808  11.607
52264SOL    HW158689  11.947   4.796  11.673
52264SOL    HW258690  11.862   4.903  11.607
52265SOL     OW58691  14.091  11.647   2.771
52265SOL    HW158692  14.099  11.732   2.728
52265SOL    HW258693  14.180  11.628   2.802
52266SOL     OW58694   4.519   9.036   4.520
52266SOL    HW158695   4.518   9.104   4.588
52266SOL    HW258696   4.581   9.068   4.455
52267SOL     OW58697   1.251   8.328  14.784
52267SOL    HW158698   1.234   8.248  14.735
52267SOL    HW258699   1.226   8.307   0.002
52268SOL     OW58700  10.714   7.214   8.713
52268SOL    HW158701  10.711   7.144   8.648
52268SOL    HW258702  10.783   7.272   8.684
52269SOL     OW58703  10.719  12.457  14.175
52269SOL    HW158704  10.795  12.495  14.219
52269SOL    HW258705  10.703  12.514  14.100
52270SOL     OW58706   2.812  13.354   0.635
52270SOL    HW158707   2.899  13.377   0.604
52270SOL    HW258708   2.794  13.418   0.704
52271SOL     OW58709   7.962   6.669   4.608
52271SOL    HW158710   7.878   6.642   4.572
52271SOL    HW258711   7.979   6.608   4.680
52272SOL     OW58712   1.716   0.682  13.676
52272SOL    HW158713   1.685   0.718  13.593
52272SOL    HW258714   1.721   0.588  13.662
52273SOL     OW58715  12.153   4.975   4.210
52273SOL    HW158716  12.138   4.911   4.141
52273SOL    HW258717  12.122   4.932   4.290
52274SOL     OW58718   3.982   6.351   9.372
52274SOL    HW158719   3.935   6.397   9.303
52274SOL    HW258720   4.074   6.376   9.359
52275SOL     OW58721   9.396  12.610   5.928
52275SOL    HW158722   9.459  12.593   5.998
52275SOL    HW258723   9.331  12.540   5.936
52276SOL     OW58724   9.179   4.471  10.223
52276SOL    HW158725   9.246   4.409  10.195
52276SOL    HW258726   9.097   4.433  10.192
52277SOL     OW58727  13.316   9.956   9.457
52277SOL    HW158728  13.300  10.040   9.414
52277SOL    HW258729  13.228   9.925   9.482
52278SOL     OW58730   8.005  12.283  13.823
52278SOL    HW158731   7.959  12.354  13.778
52278SOL    HW258732   8.096  12.293  13.797
52279SOL     OW58733   6.978   7.452  12.904
52279SOL    HW158734   6.891   7.412  12.900
52279SOL    HW258735   6.962   7.539  12.941
52280SOL     OW58736   4.697  12.205   0.299
52280SOL    HW158737   4.678  12.112   0.306
52280SOL    HW258738   4.617  12.244   0.266
52281SOL     OW58739  14.858   3.958   9.769
52281SOL    HW158740  14.808   3.996   9.697
52281SOL    HW258741  14.802   3.972   9.846
52282SOL     OW58742   9.397   4.046   7.320
52282SOL    HW158743   9.493   4.047   7.322
52282SOL    HW258744   9.375   3.985   7.251
52283SOL     OW58745   3.011  10.551  12.906
52283SOL    HW158746   3.064  10.553  12.985
52283SOL    HW258747   2.973  10.638  12.900
52284SOL     OW58748  11.095   5.019   5.971
52284SOL    HW158749  11.151   5.060   6.036
52284SOL    HW258750  11.077   4.932   6.006
52285SOL     OW58751   4.624   7.090   3.699
52285SOL    HW158752   4.672   7.112   3.619
52285SOL    HW258753   4.676   7.022   3.741
52286SOL     OW58754  13.958   1.701   0.145
52286SOL    HW158755  14.042   1.672   0.182
52286SOL    HW258756  13.943   1.787   0.185
52287SOL     OW58757   9.513  12.918  10.117
52287SOL    HW158758   9.456  12.859  10.068
52287SOL    HW258759   9.477  13.005  10.101
52288SOL     OW58760   5.550   3.131   1.939
52288SOL    HW158761   5.583   3.174   2.018
52288SOL    HW258762   5.540   3.039   1.964
52289SOL     OW58763  11.646   9.429  10.700
52289SOL    HW158764  11.689   9.374  10.764
52289SOL    HW258765  11.711   9.494  10.675
52290SOL     OW58766  10.444   1.996  14.852
52290SOL    HW158767  10.370   2.056  14.853
52290SOL    HW258768  10.421   1.930   0.046
52291SOL     OW58769   1.729  10.447   2.990
52291SOL    HW158770   1.793  10.489   2.933
52291SOL    HW258771   1.705  10.515   3.053
52292SOL     OW58772   6.695  11.323   3.132
52292SOL    HW158773   6.643  11.245   3.115
52292SOL    HW258774   6.752  11.330   3.055
52293SOL     OW58775   2.426   6.602   3.249
52293SOL    HW158776   2.517   6.628   3.239
52293SOL    HW258777   2.430   6.507   3.262
52294SOL     OW58778   9.208  14.099   1.876
52294SOL    HW158779   9.117  14.090   1.905
52294SOL    HW258780   9.230  14.190   1.896
52295SOL     OW58781   2.722   5.325   8.640
52295SOL    HW158782   2.775   5.284   8.709
52295SOL    HW258783   2.647   5.363   8.687
52296SOL     OW58784  14.545   2.523  12.085
52296SOL    HW158785  14.638   2.542  12.075
52296SOL    HW258786  14.502   2.606  12.063
52297SOL     OW58787   5.974  14.836   8.662
52297SOL    HW158788   5.935  14.750   8.644
52297SOL    HW258789   5.966  14.847   8.757
52298SOL     OW58790  12.793   2.429   6.838
52298SOL    HW158791  12.862   2.494   6.825
52298SOL    HW258792  12.784   2.422   6.933
52299SOL     OW58793   3.363   0.450   5.277
52299SOL    HW158794   3.454   0.435   5.302
52299SOL    HW258795   3.358   0.425   5.185
52300SOL     OW58796   8.206   5.364  12.607
52300SOL    HW158797   8.172   5.450  12.629
52300SOL    HW258798   8.128   5.311  12.590
52301SOL     OW58799   2.047   0.088  10.524
52301SOL    HW158800   2.085   0.129  10.602
52301SOL    HW258801   2.041   0.158  10.460
52302SOL     OW58802   4.546   9.641   9.075
52302SOL    HW158803   4.590   9.558   9.055
52302SOL    HW258804   4.591   9.674   9.152
52303SOL     OW58805   4.779   7.948  13.913
52303SOL    HW158806   4.806   7.864  13.875
52303SOL    HW258807   4.841   7.962  13.985
52304SOL     OW58808  14.122   9.412  14.815
52304SOL    HW158809  14.067   9.487  14.837
52304SOL    HW258810  14.211   9.442  14.831
52305SOL     OW58811  10.120   9.829   6.656
52305SOL    HW158812  10.094   9.860   6.570
52305SOL    HW258813  10.084   9.740   6.662
52306SOL     OW58814   7.529   0.649   3.764
52306SOL    HW158815   7.557   0.621   3.851
52306SOL    HW258816   7.460   0.587   3.740
52307SOL     OW58817   6.185   2.010   9.668
52307SOL    HW158818   6.171   2.104   9.675
52307SOL    HW258819   6.178   1.978   9.758
52308SOL     OW58820   6.535  14.769  14.177
52308SOL    HW158821   6.506  14.807  14.094
52308SOL    HW258822   6.613  14.717  14.154
52309SOL     OW58823   5.848   4.614   9.650
52309SOL    HW158824   5.858   4.522   9.672
52309SOL    HW258825   5.824   4.656   9.733
52310SOL     OW58826   7.722   8.756   2.087
52310SOL    HW158827   7.685   8.757   1.999
52310SOL    HW258828   7.656   8.797   2.142
52311SOL     OW58829   1.160   6.191   6.920
52311SOL    HW158830   1.173   6.277   6.879
52311SOL    HW258831   1.067   6.190   6.943
52312SOL     OW58832  11.228   4.525   4.065
52312SOL    HW158833  11.221   4.608   4.113
52312SOL    HW258834  11.319   4.521   4.036
52313SOL     OW58835   1.506   9.067   4.931
52313SOL    HW158836   1.569   9.138   4.945
52313SOL    HW258837   1.561   8.990   4.917
52314SOL     OW58838  10.741   1.121  10.537
52314SOL    HW158839  10.690   1.200  10.522
52314SOL    HW258840  10.779   1.132  10.624
52315SOL     OW58841  14.574   6.219  10.835
52315SOL    HW158842  14.621   6.296  10.867
52315SOL    HW258843  14.528   6.250  10.757
52316SOL     OW58844  10.506   1.633   7.166
52316SOL    HW158845  10.532   1.690   7.094
52316SOL    HW258846  10.550   1.550   7.149
52317SOL     OW58847  12.265   2.684   0.770
52317SOL    HW158848  12.263   2.731   0.854
52317SOL    HW258849  12.272   2.754   0.705
52318SOL     OW58850  13.378  14.751   1.756
52318SOL    HW158851  13.448  14.759   1.821
52318SOL    HW258852  13.335  14.668   1.777
52319SOL     OW58853   0.996  13.329   4.997
52319SOL    HW158854   0.933  13.327   5.069
52319SOL    HW258855   1.075  13.367   5.035
52320SOL     OW58856   7.237   0.925   7.434
52320SOL    HW158857   7.265   0.880   7.513
52320SOL    HW258858   7.289   0.885   7.364
52321SOL     OW58859  13.206  10.397   0.618
52321SOL    HW158860  13.210  10.353   0.703
52321SOL    HW258861  13.293  10.382   0.580
52322SOL     OW58862  11.852   8.845  10.605
52322SOL    HW158863  11.790   8.897  10.657
52322SOL    HW258864  11.822   8.855  10.515
52323SOL     OW58865   3.590   9.330   2.522
52323SOL    HW158866   3.595   9.382   2.602
52323SOL    HW258867   3.681   9.303   2.505
52324SOL     OW58868   8.346   3.335  11.883
52324SOL    HW158869   8.256   3.342  11.914
52324SOL    HW258870   8.400   3.348  11.961
52325SOL     OW58871  14.430   8.031   8.493
52325SOL    HW158872  14.444   8.055   8.585
52325SOL    HW258873  14.476   8.099   8.444
52326SOL     OW58874   8.887   7.687   3.483
52326SOL    HW158875   8.843   7.764   3.520
52326SOL    HW258876   8.923   7.641   3.560
52327SOL     OW58877  11.904   3.327   7.321
52327SOL    HW158878  11.862   3.242   7.313
52327SOL    HW258879  11.886   3.354   7.411
52328SOL     OW58880   3.802   3.678  11.198
52328SOL    HW158881   3.730   3.734  11.171
52328SOL    HW258882   3.784   3.594  11.155
52329SOL     OW58883   4.396   9.065   6.854
52329SOL    HW158884   4.355   9.104   6.777
52329SOL    HW258885   4.336   9.083   6.926
52330SOL     OW58886  14.372   8.852  11.022
52330SOL    HW158887  14.417   8.812  10.947
52330SOL    HW258888  14.441   8.900  11.069
52331SOL     OW58889   1.208   3.871   1.636
52331SOL    HW158890   1.223   3.910   1.550
52331SOL    HW258891   1.114   3.881   1.651
52332SOL     OW58892   0.825   7.596  10.482
52332SOL    HW158893   0.845   7.503  10.473
52332SOL    HW258894   0.733   7.599  10.508
52333SOL     OW58895  13.113   5.567   7.852
52333SOL    HW158896  13.084   5.519   7.775
52333SOL    HW258897  13.128   5.499   7.918
52334SOL     OW58898   5.509  12.892   9.068
52334SOL    HW158899   5.417  12.919   9.066
52334SOL    HW258900   5.508  12.803   9.031
52335SOL     OW58901   8.004  11.343   8.334
52335SOL    HW158902   8.060  11.296   8.273
52335SOL    HW258903   8.058  11.356   8.411
52336SOL     OW58904   0.584  14.488  13.722
52336SOL    HW158905   0.593  14.449  13.635
52336SOL    HW258906   0.492  14.477  13.744
52337SOL     OW58907   9.759   3.621   0.088
52337SOL    HW158908   9.735   3.616   0.180
52337SOL    HW258909   9.788   3.711   0.075
52338SOL     OW58910   3.236   7.625   2.765
52338SOL    HW158911   3.267   7.615   2.855
52338SOL    HW258912   3.154   7.674   2.774
52339SOL     OW58913   1.071   0.048   1.900
52339SOL    HW158914   1.058   0.109   1.973
52339SOL    HW258915   0.983   0.035   1.864
52340SOL     OW58916  10.285   3.656   9.226
52340SOL    HW158917  10.215   3.707   9.186
52340SOL    HW258918  10.240   3.587   9.275
52341SOL     OW58919  10.867   4.213   8.543
52341SOL    HW158920  10.844   4.121   8.556
52341SOL    HW258921  10.953   4.211   8.501
52342SOL     OW58922   1.205   5.350   5.179
52342SOL    HW158923   1.226   5.259   5.197
52342SOL    HW258924   1.240   5.398   5.255
52343SOL     OW58925   3.724   0.803   1.596
52343SOL    HW158926   3.629   0.808   1.583
52343SOL    HW258927   3.758   0.778   1.510
52344SOL     OW58928   2.260   7.574   5.546
52344SOL    HW158929   2.268   7.666   5.519
52344SOL    HW258930   2.347   7.537   5.531
52345SOL     OW58931  10.927   2.304   1.279
52345SOL    HW158932  10.845   2.259   1.297
52345SOL    HW258933  10.995   2.241   1.305
52346SOL     OW58934   6.201  10.626   5.890
52346SOL    HW158935   6.281  10.631   5.942
52346SOL    HW258936   6.222  10.671   5.808
52347SOL     OW58937  13.505  11.945   6.320
52347SOL    HW158938  13.441  11.937   6.248
52347SOL    HW258939  13.518  12.039   6.330
52348SOL     OW58940  11.727  12.974   5.184
52348SOL    HW158941  11.770  12.931   5.110
52348SOL    HW258942  11.729  13.067   5.162
52349SOL     OW58943  14.672   0.939   8.438
52349SOL    HW158944  14.629   0.932   8.353
52349SOL    HW258945  14.654   0.856   8.481
52350SOL     OW58946   4.366   5.900   5.034
52350SOL    HW158947   4.391   5.975   4.981
52350SOL    HW258948   4.449   5.859   5.058
52351SOL     OW58949   2.709   4.391   0.489
52351SOL    HW158950   2.635   4.341   0.455
52351SOL    HW258951   2.781   4.372   0.429
52352SOL     OW58952  10.277   9.181  11.787
52352SOL    HW158953  10.280   9.231  11.869
52352SOL    HW258954  10.188   9.148  11.782
52353SOL     OW58955  14.658   4.956   7.726
52353SOL    HW158956  14.570   4.960   7.690
52353SOL    HW258957  14.704   4.893   7.671
52354SOL     OW58958  13.559   4.680  12.915
52354SOL    HW158959  13.654   4.677  12.910
52354SOL    HW258960  13.537   4.772  12.899
52355SOL     OW58961   3.416  12.294   4.119
52355SOL    HW158962   3.391  12.308   4.210
52355SOL    HW258963   3.334  12.269   4.075
52356SOL     OW58964   9.070   4.937   8.342
52356SOL    HW158965   9.161   4.907   8.351
52356SOL    HW258966   9.077   5.032   8.328
52357SOL     OW58967   6.058   8.213   9.753
52357SOL    HW158968   5.971   8.219   9.715
52357SOL    HW258969   6.103   8.146   9.701
52358SOL     OW58970   9.403  12.202   6.617
52358SOL    HW158971   9.484  12.242   6.648
52358SOL    HW258972   9.354  12.274   6.578
52359SOL     OW58973   0.015   7.280  13.839
52359SOL    HW158974  14.803   7.237  13.849
52359SOL    HW258975   0.075   7.228  13.893
52360SOL     OW58976   5.148   0.087  13.161
52360SOL    HW158977   5.139   0.029  13.086
52360SOL    HW258978   5.089   0.160  13.143
52361SOL     OW58979   5.600   2.344   6.608
52361SOL    HW158980   5.507   2.336   6.586
52361SOL    HW258981   5.644   2.284   6.547
52362SOL     OW58982  13.320  10.649   3.961
52362SOL    HW158983  13.265  10.713   3.916
52362SOL    HW258984  13.299  10.660   4.053
52363SOL     OW58985   5.630   4.584   7.061
52363SOL    HW158986   5.636   4.623   7.148
52363SOL    HW258987   5.683   4.505   7.067
52364SOL     OW58988   1.893  13.511  11.078
52364SOL    HW158989   1.824  13.521  11.143
52364SOL    HW258990   1.885  13.588  11.022
52365SOL     OW58991   6.111   1.485   4.695
52365SOL    HW158992   6.171   1.412   4.676
52365SOL    HW258993   6.156   1.535   4.764
52366SOL     OW58994  14.534  10.395   1.754
52366SOL    HW158995  14.619  10.412   1.715
52366SOL    HW258996  14.523  10.300   1.749
52367SOL     OW58997  11.097  14.763   3.299
52367SOL    HW158998  11.088  14.686   3.356
52367SOL    HW258999  11.007  14.791   3.283
52368SOL     OW59000  13.048   6.875   2.809
52368SOL    HW159001  13.087   6.855   2.894
52368SOL    HW259002  13.035   6.789   2.768
52369SOL     OW59003   1.354   0.571   2.231
52369SOL    HW159004   1.437   0.565   2.278
52369SOL    HW259005   1.369   0.637   2.163
52370SOL     OW59006   4.471   1.482   7.210
52370SOL    HW159007   4.454   1.471   7.116
52370SOL    HW259008   4.543   1.422   7.229
52371SOL     OW59009   1.477  12.271  12.471
52371SOL    HW159010   1.515  12.184  12.466
52371SOL    HW259011   1.515  12.318  12.396
52372SOL     OW59012   8.187   4.237   5.779
52372SOL    HW159013   8.187   4.148   5.814
52372SOL    HW259014   8.198   4.226   5.685
52373SOL     OW59015   4.183   7.248  10.354
52373SOL    HW159016   4.251   7.258  10.287
52373SOL    HW259017   4.192   7.158  10.384
52374SOL     OW59018   4.091   4.725   6.794
52374SOL    HW159019   4.160   4.716   6.860
52374SOL    HW259020   4.046   4.641   6.795
52375SOL     OW59021  13.081   7.242   4.287
52375SOL    HW159022  13.093   7.287   4.371
52375SOL    HW259023  13.057   7.153   4.311
52376SOL     OW59024  11.185   2.295   9.130
52376SOL    HW159025  11.172   2.255   9.216
52376SOL    HW259026  11.122   2.250   9.073
52377SOL     OW59027   5.622  10.978  10.031
52377SOL    HW159028   5.701  10.991   9.980
52377SOL    HW259029   5.556  11.032   9.987
52378SOL     OW59030   5.912   6.426   3.429
52378SOL    HW159031   5.903   6.465   3.342
52378SOL    HW259032   5.916   6.501   3.488
52379SOL     OW59033   2.438   1.656  14.850
52379SOL    HW159034   2.481   1.625  14.771
52379SOL    HW259035   2.487   1.615   0.049
52380SOL     OW59036   4.826  11.613  13.935
52380SOL    HW159037   4.899  11.603  13.996
52380SOL    HW259038   4.777  11.532  13.943
52381SOL     OW59039   0.802  11.811  12.541
52381SOL    HW159040   0.848  11.883  12.498
52381SOL    HW259041   0.851  11.733  12.517
52382SOL     OW59042   3.274   7.268   3.869
52382SOL    HW159043   3.268   7.197   3.805
52382SOL    HW259044   3.235   7.232   3.949
52383SOL     OW59045   6.214   4.052   2.417
52383SOL    HW159046   6.173   3.967   2.405
52383SOL    HW259047   6.142   4.114   2.413
52384SOL     OW59048   3.540  11.943   9.708
52384SOL    HW159049   3.464  11.988   9.671
52384SOL    HW259050   3.504  11.887   9.777
52385SOL     OW59051  13.561  12.983   9.263
52385SOL    HW159052  13.470  12.955   9.261
52385SOL    HW259053  13.600  12.936   9.336
52386SOL     OW59054  11.064  13.170  11.318
52386SOL    HW159055  11.073  13.081  11.282
52386SOL    HW259056  11.138  13.179  11.378
52387SOL     OW59057   2.162   7.565   8.196
52387SOL    HW159058   2.097   7.624   8.232
52387SOL    HW259059   2.127   7.477   8.213
52388SOL     OW59060   7.658   2.624  10.502
52388SOL    HW159061   7.699   2.559  10.560
52388SOL    HW259062   7.665   2.706  10.551
52389SOL     OW59063  10.878   5.810  11.476
52389SOL    HW159064  10.910   5.897  11.500
52389SOL    HW259065  10.852   5.770  11.559
52390SOL     OW59066   7.021   2.048   7.732
52390SOL    HW159067   6.927   2.063   7.746
52390SOL    HW259068   7.063   2.126   7.768
52391SOL     OW59069  12.582   2.498  12.237
52391SOL    HW159070  12.515   2.433  12.216
52391SOL    HW259071  12.664   2.455  12.213
52392SOL     OW59072  12.904  12.591   2.625
52392SOL    HW159073  12.903  12.683   2.601
52392SOL    HW259074  12.931  12.590   2.717
52393SOL     OW59075   9.516   8.308   2.779
52393SOL    HW159076   9.553   8.337   2.862
52393SOL    HW259077   9.510   8.387   2.725
52394SOL     OW59078  14.603  11.589   2.594
52394SOL    HW159079  14.642  11.535   2.662
52394SOL    HW259080  14.566  11.664   2.641
52395SOL     OW59081   5.589   9.268   9.128
52395SOL    HW159082   5.674   9.294   9.164
52395SOL    HW259083   5.562   9.342   9.074
52396SOL     OW59084   8.654   9.147  11.151
52396SOL    HW159085   8.650   9.191  11.066
52396SOL    HW259086   8.573   9.174  11.195
52397SOL     OW59087  14.735   5.389  11.718
52397SOL    HW159088  14.805   5.376  11.781
52397SOL    HW259089  14.770   5.451  11.654
52398SOL     OW59090  13.064  11.935  13.501
52398SOL    HW159091  12.971  11.956  13.496
52398SOL    HW259092  13.109  12.017  13.483
52399SOL     OW59093   9.391   8.423   3.579
52399SOL    HW159094   9.304   8.459   3.590
52399SOL    HW259095   9.447   8.476   3.636
52400SOL     OW59096   4.710   5.044   4.422
52400SOL    HW159097   4.727   4.950   4.419
52400SOL    HW259098   4.794   5.082   4.449
52401SOL     OW59099   2.820   6.768  10.667
52401SOL    HW159100   2.889   6.804  10.612
52401SOL    HW259101   2.786   6.843  10.715
52402SOL     OW59102   4.604   7.033  10.668
52402SOL    HW159103   4.612   6.938  10.678
52402SOL    HW259104   4.661   7.054  10.594
52403SOL     OW59105  14.765  11.850  14.285
52403SOL    HW159106  14.818  11.866  14.206
52403SOL    HW259107  14.825  11.867  14.357
52404SOL     OW59108  12.577  12.428   1.110
52404SOL    HW159109  12.595  12.418   1.204
52404SOL    HW259110  12.655  12.391   1.067
52405SOL     OW59111  10.497   1.668  14.652
52405SOL    HW159112  10.497   1.763  14.641
52405SOL    HW259113  10.480   1.655  14.746
52406SOL     OW59114   2.240   4.084   9.208
52406SOL    HW159115   2.201   4.063   9.293
52406SOL    HW259116   2.201   4.021   9.148
52407SOL     OW59117   2.495   7.043   8.689
52407SOL    HW159118   2.537   6.960   8.710
52407SOL    HW259119   2.402   7.026   8.700
52408SOL     OW59120   9.006   8.568   1.958
52408SOL    HW159121   9.081   8.515   1.936
52408SOL    HW259122   8.972   8.529   2.039
52409SOL     OW59123   0.775   9.666   1.544
52409SOL    HW159124   0.697   9.699   1.500
52409SOL    HW259125   0.845   9.724   1.515
52410SOL     OW59126   8.068   9.948   5.702
52410SOL    HW159127   8.118   9.876   5.665
52410SOL    HW259128   8.046   9.920   5.791
52411SOL     OW59129  14.438   7.449   2.486
52411SOL    HW159130  14.481   7.457   2.572
52411SOL    HW259131  14.468   7.364   2.453
52412SOL     OW59132  14.517   3.823  13.205
52412SOL    HW159133  14.473   3.740  13.227
52412SOL    HW259134  14.505   3.832  13.111
52413SOL     OW59135  10.215   5.602  14.799
52413SOL    HW159136  10.254   5.635  14.718
52413SOL    HW259137  10.125   5.580  14.775
52414SOL     OW59138   9.740   0.262   9.163
52414SOL    HW159139   9.799   0.189   9.142
52414SOL    HW259140   9.748   0.320   9.087
52415SOL     OW59141  13.777  13.396  13.211
52415SOL    HW159142  13.771  13.318  13.265
52415SOL    HW259143  13.861  13.388  13.166
52416SOL     OW59144   2.232   5.871   1.345
52416SOL    HW159145   2.275   5.957   1.354
52416SOL    HW259146   2.267   5.836   1.263
52417SOL     OW59147  10.360   9.537  13.343
52417SOL    HW159148  10.418   9.488  13.285
52417SOL    HW259149  10.299   9.472  13.378
52418SOL     OW59150   2.510   9.031   6.763
52418SOL    HW159151   2.455   9.036   6.685
52418SOL    HW259152   2.449   9.014   6.835
52419SOL     OW59153   9.836   3.551   4.995
52419SOL    HW159154   9.894   3.491   5.042
52419SOL    HW259155   9.787   3.494   4.936
52420SOL     OW59156  11.020  11.343  11.142
52420SOL    HW159157  10.952  11.361  11.207
52420SOL    HW259158  11.052  11.255  11.164
52421SOL     OW59159  11.304   5.992   6.372
52421SOL    HW159160  11.360   5.987   6.449
52421SOL    HW259161  11.364   6.005   6.298
52422SOL     OW59162   5.941  10.440  13.324
52422SOL    HW159163   5.961  10.442  13.230
52422SOL    HW259164   6.018  10.477  13.366
52423SOL     OW59165  14.403   3.472   0.971
52423SOL    HW159166  14.473   3.483   0.906
52423SOL    HW259167  14.414   3.547   1.030
52424SOL     OW59168  11.828   2.188   3.564
52424SOL    HW159169  11.864   2.112   3.609
52424SOL    HW259170  11.864   2.184   3.476
52425SOL     OW59171   4.430  13.976  14.774
52425SOL    HW159172   4.363  14.032  14.813
52425SOL    HW259173   4.469  13.929  14.847
52426SOL     OW59174  10.573   4.391   5.898
52426SOL    HW159175  10.610   4.435   5.822
52426SOL    HW259176  10.611   4.437   5.973
52427SOL     OW59177  11.140  11.888  13.067
52427SOL    HW159178  11.047  11.890  13.089
52427SOL    HW259179  11.148  11.820  13.001
52428SOL     OW59180   7.556   6.384   1.425
52428SOL    HW159181   7.591   6.380   1.336
52428SOL    HW259182   7.582   6.300   1.464
52429SOL     OW59183   0.529   2.891   5.018
52429SOL    HW159184   0.445   2.858   4.988
52429SOL    HW259185   0.511   2.980   5.049
52430SOL     OW59186   1.948   2.710   9.230
52430SOL    HW159187   1.975   2.799   9.255
52430SOL    HW259188   1.987   2.697   9.143
52431SOL     OW59189   1.961   6.947   3.382
52431SOL    HW159190   1.923   6.880   3.326
52431SOL    HW259191   2.030   6.987   3.329
52432SOL     OW59192   8.002  12.728   9.081
52432SOL    HW159193   8.082  12.779   9.090
52432SOL    HW259194   8.009  12.687   8.995
52433SOL     OW59195   4.590  14.419   5.818
52433SOL    HW159196   4.623  14.505   5.792
52433SOL    HW259197   4.608  14.413   5.911
52434SOL     OW59198   8.034   6.326  10.395
52434SOL    HW159199   7.964   6.380  10.360
52434SOL    HW259200   8.110   6.346  10.340
52435SOL     OW59201   1.876  13.460  11.679
52435SOL    HW159202   1.848  13.546  11.710
52435SOL    HW259203   1.885  13.470  11.585
52436SOL     OW59204   4.363   6.585   2.060
52436SOL    HW159205   4.303   6.542   2.121
52436SOL    HW259206   4.395   6.514   2.004
52437SOL     OW59207   3.222   8.701   6.847
52437SOL    HW159208   3.181   8.644   6.781
52437SOL    HW259209   3.312   8.713   6.816
52438SOL     OW59210  10.172   1.475   1.758
52438SOL    HW159211  10.240   1.498   1.694
52438SOL    HW259212  10.094   1.521   1.728
52439SOL     OW59213  10.933   0.693   8.025
52439SOL    HW159214  10.852   0.738   8.048
52439SOL    HW259215  10.936   0.696   7.929
52440SOL     OW59216   8.230  10.655  12.204
52440SOL    HW159217   8.232  10.571  12.249
52440SOL    HW259218   8.145  10.693  12.227
52441SOL     OW59219   3.527   1.955  13.394
52441SOL    HW159220   3.442   1.949  13.352
52441SOL    HW259221   3.583   1.895  13.345
52442SOL     OW59222  10.794   9.193   2.900
52442SOL    HW159223  10.884   9.218   2.880
52442SOL    HW259224  10.785   9.105   2.866
52443SOL     OW59225   3.697   6.332   4.284
52443SOL    HW159226   3.647   6.277   4.223
52443SOL    HW259227   3.696   6.419   4.244
52444SOL     OW59228  11.982  10.831   9.355
52444SOL    HW159229  11.898  10.785   9.342
52444SOL    HW259230  11.969  10.882   9.435
52445SOL     OW59231   9.731   2.330  13.801
52445SOL    HW159232   9.783   2.318  13.721
52445SOL    HW259233   9.705   2.241  13.826
52446SOL     OW59234   7.442  13.872  11.446
52446SOL    HW159235   7.531  13.880  11.412
52446SOL    HW259236   7.450  13.815  11.522
52447SOL     OW59237   0.302   4.285   4.739
52447SOL    HW159238   0.331   4.252   4.654
52447SOL    HW259239   0.351   4.234   4.803
52448SOL     OW59240   5.780   5.981  13.727
52448SOL    HW159241   5.831   6.062  13.730
52448SOL    HW259242   5.731   5.980  13.809
52449SOL     OW59243  11.498  10.928   1.256
52449SOL    HW159244  11.530  10.872   1.327
52449SOL    HW259245  11.404  10.909   1.250
52450SOL     OW59246   1.940   7.579  14.371
52450SOL    HW159247   1.987   7.658  14.398
52450SOL    HW259248   1.970   7.563  14.282
52451SOL     OW59249   2.551  11.891   0.083
52451SOL    HW159250   2.563  11.888   0.178
52451SOL    HW259251   2.553  11.799   0.056
52452SOL     OW59252  11.996  10.233  13.090
52452SOL    HW159253  11.999  10.231  13.186
52452SOL    HW259254  11.939  10.308  13.070
52453SOL     OW59255   2.066   9.328   0.903
52453SOL    HW159256   2.153   9.290   0.907
52453SOL    HW259257   2.024   9.300   0.985
52454SOL     OW59258   4.574   3.468   6.638
52454SOL    HW159259   4.515   3.399   6.667
52454SOL    HW259260   4.634   3.481   6.712
52455SOL     OW59261   7.655  12.723   0.983
52455SOL    HW159262   7.700  12.639   0.975
52455SOL    HW259263   7.725  12.785   1.004
52456SOL     OW59264   6.209   0.351   8.791
52456SOL    HW159265   6.169   0.349   8.704
52456SOL    HW259266   6.135   0.338   8.851
52457SOL     OW59267   3.895   4.334   9.360
52457SOL    HW159268   3.914   4.241   9.364
52457SOL    HW259269   3.959   4.369   9.297
52458SOL     OW59270  10.236  13.613   3.854
52458SOL    HW159271  10.266  13.523   3.846
52458SOL    HW259272  10.141  13.606   3.860
52459SOL     OW59273   7.398   0.416   9.263
52459SOL    HW159274   7.366   0.332   9.296
52459SOL    HW259275   7.492   0.403   9.249
52460SOL     OW59276   4.894  10.872   2.201
52460SOL    HW159277   4.883  10.882   2.296
52460SOL    HW259278   4.811  10.903   2.165
52461SOL     OW59279   1.020   6.924   2.105
52461SOL    HW159280   0.999   7.012   2.074
52461SOL    HW259281   1.111   6.910   2.078
52462SOL     OW59282   7.682   5.498   1.297
52462SOL    HW159283   7.746   5.526   1.363
52462SOL    HW259284   7.605   5.552   1.316
52463SOL     OW59285   7.358   5.517   5.078
52463SOL    HW159286   7.369   5.601   5.122
52463SOL    HW259287   7.281   5.478   5.119
52464SOL     OW59288  14.744  10.198  12.985
52464SOL    HW159289  14.685  10.220  13.056
52464SOL    HW259290  14.729  10.105  12.968
52465SOL     OW59291   2.370   4.180   8.815
52465SOL    HW159292   2.412   4.201   8.732
52465SOL    HW259293   2.415   4.102   8.847
52466SOL     OW59294   1.655   7.645  12.054
52466SOL    HW159295   1.690   7.557  12.066
52466SOL    HW259296   1.709   7.700  12.110
52467SOL     OW59297   6.632   0.813   2.843
52467SOL    HW159298   6.678   0.752   2.785
52467SOL    HW259299   6.700   0.870   2.877
52468SOL     OW59300  11.784   3.604   4.249
52468SOL    HW159301  11.721   3.671   4.222
52468SOL    HW259302  11.870   3.646   4.240
52469SOL     OW59303  10.764   5.966  14.167
52469SOL    HW159304  10.743   5.981  14.259
52469SOL    HW259305  10.793   5.874  14.164
52470SOL     OW59306  13.220   0.433   3.747
52470SOL    HW159307  13.199   0.488   3.671
52470SOL    HW259308  13.136   0.394   3.771
52471SOL     OW59309  14.290   8.374   3.382
52471SOL    HW159310  14.364   8.372   3.323
52471SOL    HW259311  14.327   8.398   3.467
52472SOL     OW59312   9.246  12.405   5.971
52472SOL    HW159313   9.256  12.370   6.059
52472SOL    HW259314   9.151  12.406   5.956
52473SOL     OW59315   0.713   7.253   4.709
52473SOL    HW159316   0.702   7.170   4.755
52473SOL    HW259317   0.782   7.236   4.645
52474SOL     OW59318  11.001   9.861   0.329
52474SOL    HW159319  11.064   9.835   0.262
52474SOL    HW259320  11.004   9.791   0.393
52475SOL     OW59321   5.935   3.519   3.686
52475SOL    HW159322   5.999   3.534   3.617
52475SOL    HW259323   5.963   3.576   3.758
52476SOL     OW59324   6.266   0.422  11.854
52476SOL    HW159325   6.218   0.480  11.795
52476SOL    HW259326   6.280   0.473  11.933
52477SOL     OW59327   3.886   2.249   3.023
52477SOL    HW159328   3.841   2.239   2.939
52477SOL    HW259329   3.861   2.336   3.054
52478SOL     OW59330   0.650  13.942   1.032
52478SOL    HW159331   0.560  13.923   1.005
52478SOL    HW259332   0.672  14.023   0.985
52479SOL     OW59333   1.216   6.671   5.490
52479SOL    HW159334   1.201   6.608   5.420
52479SOL    HW259335   1.288   6.634   5.541
52480SOL     OW59336   9.749   3.200   8.476
52480SOL    HW159337   9.823   3.169   8.528
52480SOL    HW259338   9.774   3.180   8.386
52481SOL     OW59339  10.372   6.629   9.719
52481SOL    HW159340  10.455   6.616   9.673
52481SOL    HW259341  10.342   6.540   9.740
52482SOL     OW59342  11.941  13.878   9.342
52482SOL    HW159343  11.997  13.931   9.285
52482SOL    HW259344  11.991  13.799   9.358
52483SOL     OW59345   5.343   1.282   5.926
52483SOL    HW159346   5.295   1.257   6.005
52483SOL    HW259347   5.323   1.375   5.914
52484SOL     OW59348   3.924   5.932  14.106
52484SOL    HW159349   3.982   5.866  14.070
52484SOL    HW259350   3.892   5.893  14.188
52485SOL     OW59351  12.499   4.372   8.496
52485SOL    HW159352  12.586   4.347   8.525
52485SOL    HW259353  12.442   4.303   8.530
52486SOL     OW59354   1.238   4.887   5.493
52486SOL    HW159355   1.303   4.902   5.425
52486SOL    HW259356   1.160   4.934   5.463
52487SOL     OW59357  10.319  13.207   0.787
52487SOL    HW159358  10.391  13.151   0.815
52487SOL    HW259359  10.243  13.174   0.835
52488SOL     OW59360  12.213   7.629   7.206
52488SOL    HW159361  12.191   7.618   7.299
52488SOL    HW259362  12.246   7.543   7.179
52489SOL     OW59363  11.204   3.348  12.553
52489SOL    HW159364  11.275   3.300  12.511
52489SOL    HW259365  11.244   3.393  12.626
52490SOL     OW59366  14.408   3.202  12.587
52490SOL    HW159367  14.372   3.231  12.503
52490SOL    HW259368  14.495   3.168  12.565
52491SOL     OW59369  14.171   1.731   4.662
52491SOL    HW159370  14.083   1.755   4.691
52491SOL    HW259371  14.158   1.647   4.616
52492SOL     OW59372   7.412   1.818   7.846
52492SOL    HW159373   7.471   1.742   7.846
52492SOL    HW259374   7.368   1.814   7.762
52493SOL     OW59375   5.722  10.541  10.972
52493SOL    HW159376   5.744  10.447  10.974
52493SOL    HW259377   5.630  10.543  10.943
52494SOL     OW59378  12.156   3.184   6.593
52494SOL    HW159379  12.075   3.232   6.609
52494SOL    HW259380  12.225   3.248   6.608
52495SOL     OW59381  10.476   4.413   8.158
52495SOL    HW159382  10.406   4.475   8.179
52495SOL    HW259383  10.503   4.378   8.243
52496SOL     OW59384   9.073   1.086   9.705
52496SOL    HW159385   8.993   1.056   9.662
52496SOL    HW259386   9.139   1.090   9.636
52497SOL     OW59387   3.941   2.522   5.605
52497SOL    HW159388   3.933   2.506   5.699
52497SOL    HW259389   4.035   2.536   5.591
52498SOL     OW59390  14.385   6.304   9.393
52498SOL    HW159391  14.478   6.280   9.387
52498SOL    HW259392  14.385   6.398   9.407
52499SOL     OW59393   9.419  13.242   8.171
52499SOL    HW159394   9.490  13.242   8.235
52499SOL    HW259395   9.400  13.335   8.155
52500SOL     OW59396  11.459  10.917  14.658
52500SOL    HW159397  11.444  11.010  14.639
52500SOL    HW259398  11.532  10.917  14.721
52501SOL     OW59399   8.003   1.922  13.003
52501SOL    HW159400   8.034   1.870  12.929
52501SOL    HW259401   7.992   1.858  13.074
52502SOL     OW59402   1.005   5.827  12.288
52502SOL    HW159403   1.063   5.881  12.235
52502SOL    HW259404   0.957   5.889  12.343
52503SOL     OW59405   6.639  11.928   0.452
52503SOL    HW159406   6.719  11.890   0.489
52503SOL    HW259407   6.667  11.963   0.367
52504SOL     OW59408   5.197   1.134   6.136
52504SOL    HW159409   5.187   1.055   6.082
52504SOL    HW259410   5.114   1.181   6.125
52505SOL     OW59411   7.811  13.224   1.869
52505SOL    HW159412   7.729  13.267   1.845
52505SOL    HW259413   7.813  13.145   1.815
52506SOL     OW59414   0.626  12.966  13.158
52506SOL    HW159415   0.712  12.924  13.171
52506SOL    HW259416   0.630  13.045  13.212
52507SOL     OW59417  11.827   9.521   6.467
52507SOL    HW159418  11.789   9.586   6.408
52507SOL    HW259419  11.757   9.500   6.528
52508SOL     OW59420  11.816  11.611   7.379
52508SOL    HW159421  11.814  11.627   7.473
52508SOL    HW259422  11.852  11.523   7.370
52509SOL     OW59423   7.207  11.666   5.607
52509SOL    HW159424   7.250  11.608   5.544
52509SOL    HW259425   7.260  11.659   5.687
52510SOL     OW59426   4.028   7.486   9.165
52510SOL    HW159427   3.982   7.422   9.112
52510SOL    HW259428   4.111   7.499   9.120
52511SOL     OW59429  14.531   6.755   2.714
52511SOL    HW159430  14.520   6.849   2.726
52511SOL    HW259431  14.622   6.745   2.686
52512SOL     OW59432  10.274  13.548   0.011
52512SOL    HW159433  10.230  13.580   0.090
52512SOL    HW259434  10.311  13.463   0.037
52513SOL     OW59435   3.167   0.567  10.920
52513SOL    HW159436   3.108   0.503  10.959
52513SOL    HW259437   3.211   0.519  10.850
52514SOL     OW59438   1.347   9.499   9.802
52514SOL    HW159439   1.283   9.428   9.807
52514SOL    HW259440   1.330   9.539   9.716
52515SOL     OW59441   0.173   7.723  13.524
52515SOL    HW159442   0.111   7.709  13.452
52515SOL    HW259443   0.139   7.670  13.596
52516SOL     OW59444   9.173  13.173  13.982
52516SOL    HW159445   9.106  13.193  13.916
52516SOL    HW259446   9.254  13.208  13.944
52517SOL     OW59447  10.319   4.730   8.717
52517SOL    HW159448  10.311   4.711   8.624
52517SOL    HW259449  10.387   4.797   8.723
52518SOL     OW59450   2.250  13.445   5.322
52518SOL    HW159451   2.219  13.482   5.239
52518SOL    HW259452   2.333  13.403   5.299
52519SOL     OW59453  14.364   3.917  10.261
52519SOL    HW159454  14.309   3.951  10.332
52519SOL    HW259455  14.302   3.899  10.190
52520SOL     OW59456  11.522  14.467   4.987
52520SOL    HW159457  11.515  14.483   5.081
52520SOL    HW259458  11.507  14.553   4.947
52521SOL     OW59459   7.698   2.348  10.120
52521SOL    HW159460   7.700   2.254  10.139
52521SOL    HW259461   7.787   2.378  10.136
52522SOL     OW59462  13.179   7.473  10.163
52522SOL    HW159463  13.148   7.563  10.174
52522SOL    HW259464  13.264   7.482  10.119
52523SOL     OW59465   4.319   2.067   6.719
52523SOL    HW159466   4.311   2.152   6.676
52523SOL    HW259467   4.348   2.008   6.650
52524SOL     OW59468  14.686   7.763   8.486
52524SOL    HW159469  14.643   7.694   8.537
52524SOL    HW259470  14.614   7.815   8.451
52525SOL     OW59471  10.322   6.951   3.979
52525SOL    HW159472  10.239   6.904   3.978
52525SOL    HW259473  10.304   7.034   3.936
52526SOL     OW59474   5.314   9.119   9.113
52526SOL    HW159475   5.409   9.137   9.114
52526SOL    HW259476   5.295   9.097   9.022
52527SOL     OW59477   3.856  12.519  11.212
52527SOL    HW159478   3.948  12.546  11.215
52527SOL    HW259479   3.835  12.498  11.303
52528SOL     OW59480   8.377   6.874   7.111
52528SOL    HW159481   8.342   6.952   7.069
52528SOL    HW259482   8.300   6.821   7.133
52529SOL     OW59483   8.540   5.728   6.471
52529SOL    HW159484   8.548   5.721   6.566
52529SOL    HW259485   8.595   5.804   6.448
52530SOL     OW59486  14.149   6.666   4.674
52530SOL    HW159487  14.125   6.715   4.595
52530SOL    HW259488  14.153   6.575   4.645
52531SOL     OW59489  14.505   9.371  11.204
52531SOL    HW159490  14.539   9.285  11.177
52531SOL    HW259491  14.455   9.353  11.284
52532SOL     OW59492  13.678  10.235  14.107
52532SOL    HW159493  13.624  10.263  14.181
52532SOL    HW259494  13.641  10.151  14.080
52533SOL     OW59495   2.940   8.948   7.059
52533SOL    HW159496   2.933   8.852   7.051
52533SOL    HW259497   2.894   8.982   6.983
52534SOL     OW59498   7.232   2.355   0.048
52534SOL    HW159499   7.137   2.343   0.044
52534SOL    HW259500   7.248   2.383   0.138
52535SOL     OW59501   7.096   0.806  10.970
52535SOL    HW159502   7.026   0.869  10.956
52535SOL    HW259503   7.064   0.746  11.037
52536SOL     OW59504  10.416   6.341   6.917
52536SOL    HW159505  10.473   6.282   6.966
52536SOL    HW259506  10.466   6.422   6.909
52537SOL     OW59507   9.598   3.476  10.967
52537SOL    HW159508   9.598   3.571  10.981
52537SOL    HW259509   9.507   3.456  10.942
52538SOL     OW59510   9.509   5.233  11.240
52538SOL    HW159511   9.540   5.192  11.160
52538SOL    HW259512   9.572   5.207  11.307
52539SOL     OW59513  12.444  14.633  11.425
52539SOL    HW159514  12.420  14.565  11.361
52539SOL    HW259515  12.467  14.584  11.504
52540SOL     OW59516   0.186   8.291   7.689
52540SOL    HW159517   0.248   8.356   7.655
52540SOL    HW259518   0.242   8.223   7.727
52541SOL     OW59519   8.324  10.069   0.278
52541SOL    HW159520   8.376  10.060   0.198
52541SOL    HW259521   8.381  10.033   0.347
52542SOL     OW59522   9.742   7.596   6.008
52542SOL    HW159523   9.828   7.570   5.973
52542SOL    HW259524   9.695   7.513   6.021
52543SOL     OW59525   5.846   8.233   5.030
52543SOL    HW159526   5.927   8.281   5.014
52543SOL    HW259527   5.800   8.285   5.096
52544SOL     OW59528   1.942   2.835  12.707
52544SOL    HW159529   2.021   2.859  12.659
52544SOL    HW259530   1.970   2.832  12.799
52545SOL     OW59531   1.213   0.499  14.150
52545SOL    HW159532   1.218   0.594  14.144
52545SOL    HW259533   1.179   0.483  14.238
52546SOL     OW59534   4.658  10.048   9.414
52546SOL    HW159535   4.699  10.134   9.409
52546SOL    HW259536   4.564  10.066   9.418
52547SOL     OW59537   6.401   4.400   6.609
52547SOL    HW159538   6.325   4.344   6.594
52547SOL    HW259539   6.379   4.482   6.566
52548SOL     OW59540  13.337   9.155   2.970
52548SOL    HW159541  13.333   9.240   2.926
52548SOL    HW259542  13.279   9.165   3.045
52549SOL     OW59543   3.806  13.498  13.488
52549SOL    HW159544   3.814  13.592  13.477
52549SOL    HW259545   3.736  13.473  13.427
52550SOL     OW59546  13.713  11.188  10.041
52550SOL    HW159547  13.626  11.217  10.012
52550SOL    HW259548  13.773  11.253  10.006
52551SOL     OW59549   9.014   5.649   3.961
52551SOL    HW159550   8.967   5.645   3.878
52551SOL    HW259551   9.003   5.561   3.999
52552SOL     OW59552   4.227   8.116   9.101
52552SOL    HW159553   4.244   8.172   9.026
52552SOL    HW259554   4.269   8.162   9.175
52553SOL     OW59555   4.684   0.969   0.248
52553SOL    HW159556   4.700   0.875   0.258
52553SOL    HW259557   4.701   1.005   0.335
52554SOL     OW59558  13.358   5.214  14.713
52554SOL    HW159559  13.273   5.204  14.670
52554SOL    HW259560  13.338   5.222  14.806
52555SOL     OW59561  10.161  10.851   2.652
52555SOL    HW159562  10.245  10.896   2.651
52555SOL    HW259563  10.096  10.921   2.655
52556SOL     OW59564   7.975   3.066   6.155
52556SOL    HW159565   7.912   3.033   6.091
52556SOL    HW259566   8.034   3.123   6.105
52557SOL     OW59567   7.782  14.798   9.033
52557SOL    HW159568   7.813  14.855   8.962
52557SOL    HW259569   7.696  14.832   9.056
52558SOL     OW59570   1.662   9.378  12.402
52558SOL    HW159571   1.594   9.431  12.444
52558SOL    HW259572   1.668   9.300  12.457
52559SOL     OW59573   9.580   7.606  12.795
52559SOL    HW159574   9.508   7.543  12.797
52559SOL    HW259575   9.628   7.585  12.715
52560SOL     OW59576  12.335   2.225  13.600
52560SOL    HW159577  12.283   2.222  13.519
52560SOL    HW259578  12.304   2.151  13.652
52561SOL     OW59579  13.500  12.538   9.658
52561SOL    HW159580  13.466  12.454   9.689
52561SOL    HW259581  13.538  12.519   9.572
52562SOL     OW59582   3.910  12.417   0.595
52562SOL    HW159583   3.911  12.513   0.592
52562SOL    HW259584   3.908  12.391   0.503
52563SOL     OW59585   5.578   1.364   1.361
52563SOL    HW159586   5.515   1.415   1.310
52563SOL    HW259587   5.546   1.370   1.451
52564SOL     OW59588   5.291   0.478  14.031
52564SOL    HW159589   5.342   0.519  14.101
52564SOL    HW259590   5.233   0.417  14.076
52565SOL     OW59591   8.053   6.020   9.674
52565SOL    HW159592   8.021   5.959   9.608
52565SOL    HW259593   7.993   6.095   9.668
52566SOL     OW59594  10.267  10.039   8.970
52566SOL    HW159595  10.247  10.038   8.876
52566SOL    HW259596  10.362  10.028   8.974
52567SOL     OW59597   0.541   2.597   7.917
52567SOL    HW159598   0.621   2.549   7.896
52567SOL    HW259599   0.492   2.539   7.976
52568SOL     OW59600  11.470   4.126  13.199
52568SOL    HW159601  11.544   4.129  13.139
52568SOL    HW259602  11.499   4.176  13.275
52569SOL     OW59603   5.723  13.225   2.087
52569SOL    HW159604   5.809  13.248   2.051
52569SOL    HW259605   5.742  13.187   2.173
52570SOL     OW59606  10.171  14.506   0.462
52570SOL    HW159607  10.211  14.430   0.420
52570SOL    HW259608  10.236  14.535   0.526
52571SOL     OW59609   6.823  10.215   1.959
52571SOL    HW159610   6.822  10.242   2.050
52571SOL    HW259611   6.761  10.273   1.915
52572SOL     OW59612   3.549   4.642   6.599
52572SOL    HW159613   3.481   4.701   6.631
52572SOL    HW259614   3.627   4.697   6.591
52573SOL     OW59615   9.625  10.780  10.412
52573SOL    HW159616   9.668  10.695  10.413
52573SOL    HW259617   9.555  10.771  10.348
52574SOL     OW59618   6.720  12.198   1.666
52574SOL    HW159619   6.811  12.206   1.693
52574SOL    HW259620   6.681  12.282   1.689
52575SOL     OW59621   5.167   9.204   7.898
52575SOL    HW159622   5.107   9.153   7.843
52575SOL    HW259623   5.182   9.149   7.975
52576SOL     OW59624   1.433  10.860   9.180
52576SOL    HW159625   1.422  10.953   9.201
52576SOL    HW259626   1.399  10.813   9.256
52577SOL     OW59627   8.448   8.020   4.768
52577SOL    HW159628   8.398   8.082   4.821
52577SOL    HW259629   8.512   7.983   4.829
52578SOL     OW59630  10.708  14.547  14.808
52578SOL    HW159631  10.764  14.470  14.811
52578SOL    HW259632  10.748  14.604  14.742
52579SOL     OW59633   6.246   1.759   7.015
52579SOL    HW159634   6.186   1.832   7.003
52579SOL    HW259635   6.191   1.685   7.040
52580SOL     OW59636   4.565   6.108  14.414
52580SOL    HW159637   4.475   6.088  14.389
52580SOL    HW259638   4.616   6.091  14.335
52581SOL     OW59639   0.128   5.789   4.498
52581SOL    HW159640   0.038   5.819   4.508
52581SOL    HW259641   0.165   5.794   4.586
52582SOL     OW59642   0.201   2.715  13.454
52582SOL    HW159643   0.266   2.675  13.512
52582SOL    HW259644   0.136   2.753  13.514
52583SOL     OW59645   6.823   1.233  13.865
52583SOL    HW159646   6.749   1.204  13.919
52583SOL    HW259647   6.900   1.199  13.910
52584SOL     OW59648  12.263   1.289  11.176
52584SOL    HW159649  12.265   1.318  11.267
52584SOL    HW259650  12.343   1.323  11.137
52585SOL     OW59651   9.185  10.243  12.435
52585SOL    HW159652   9.239  10.321  12.427
52585SOL    HW259653   9.223  10.194  12.508
52586SOL     OW59654   6.875  12.660   2.163
52586SOL    HW159655   6.883  12.626   2.252
52586SOL    HW259656   6.937  12.607   2.112
52587SOL     OW59657   7.152  12.387  11.333
52587SOL    HW159658   7.176  12.475  11.303
52587SOL    HW259659   7.061  12.376  11.304
52588SOL     OW59660   8.151   7.975   8.219
52588SOL    HW159661   8.176   8.055   8.265
52588SOL    HW259662   8.233   7.940   8.185
52589SOL     OW59663   7.793   5.044  14.530
52589SOL    HW159664   7.770   5.045  14.623
52589SOL    HW259665   7.838   4.960  14.517
52590SOL     OW59666  10.173  12.160  13.098
52590SOL    HW159667  10.078  12.165  13.085
52590SOL    HW259668  10.185  12.173  13.192
52591SOL     OW59669   9.807  13.361   9.928
52591SOL    HW159670   9.721  13.325   9.950
52591SOL    HW259671   9.867  13.321   9.991
52592SOL     OW59672  12.036   7.791   3.106
52592SOL    HW159673  11.972   7.737   3.060
52592SOL    HW259674  12.002   7.798   3.195
52593SOL     OW59675   9.573  13.075   0.020
52593SOL    HW159676   9.624  13.041  14.818
52593SOL    HW259677   9.614  13.036   0.097
52594SOL     OW59678   4.447   9.754  11.726
52594SOL    HW159679   4.385   9.787  11.661
52594SOL    HW259680   4.520   9.719  11.675
52595SOL     OW59681   5.237   3.496   2.999
52595SOL    HW159682   5.211   3.405   3.010
52595SOL    HW259683   5.168   3.534   2.945
52596SOL     OW59684   0.581   3.957   2.717
52596SOL    HW159685   0.671   3.981   2.737
52596SOL    HW259686   0.556   4.016   2.645
52597SOL     OW59687  14.750   9.887   2.024
52597SOL    HW159688  14.815   9.957   2.024
52597SOL    HW259689  14.666   9.932   2.038
52598SOL     OW59690   0.295   4.932   0.819
52598SOL    HW159691   0.266   4.984   0.894
52598SOL    HW259692   0.381   4.966   0.797
52599SOL     OW59693   7.131   8.806   0.994
52599SOL    HW159694   7.152   8.895   0.967
52599SOL    HW259695   7.067   8.776   0.930
52600SOL     OW59696   5.258   3.347  11.803
52600SOL    HW159697   5.189   3.374  11.742
52600SOL    HW259698   5.211   3.327  11.885
52601SOL     OW59699   2.314  10.259  14.615
52601SOL    HW159700   2.406  10.237  14.629
52601SOL    HW259701   2.312  10.355  14.621
52602SOL     OW59702   3.332   2.358  10.784
52602SOL    HW159703   3.400   2.328  10.722
52602SOL    HW259704   3.373   2.430  10.831
52603SOL     OW59705  12.520  14.359  11.598
52603SOL    HW159706  12.461  14.399  11.661
52603SOL    HW259707  12.591  14.322  11.651
52604SOL     OW59708   6.810   3.672   5.889
52604SOL    HW159709   6.861   3.713   5.819
52604SOL    HW259710   6.722   3.665   5.854
52605SOL     OW59711   2.563   2.364   4.276
52605SOL    HW159712   2.498   2.429   4.304
52605SOL    HW259713   2.518   2.312   4.210
52606SOL     OW59714  12.313  14.330   7.211
52606SOL    HW159715  12.344  14.421   7.221
52606SOL    HW259716  12.393  14.277   7.220
52607SOL     OW59717   6.301  13.585   8.531
52607SOL    HW159718   6.306  13.615   8.622
52607SOL    HW259719   6.391  13.561   8.508
52608SOL     OW59720   5.930   8.429   7.600
52608SOL    HW159721   5.970   8.503   7.645
52608SOL    HW259722   5.836   8.440   7.615
52609SOL     OW59723   0.536  10.900  14.448
52609SOL    HW159724   0.556  10.828  14.388
52609SOL    HW259725   0.548  10.863  14.536
52610SOL     OW59726   0.871   1.939  10.318
52610SOL    HW159727   0.819   1.862  10.297
52610SOL    HW259728   0.854   1.999  10.245
52611SOL     OW59729   0.788   7.048  14.317
52611SOL    HW159730   0.809   7.094  14.236
52611SOL    HW259731   0.792   6.955  14.294
52612SOL     OW59732   5.612  13.425   5.849
52612SOL    HW159733   5.673  13.416   5.922
52612SOL    HW259734   5.593  13.335   5.822
52613SOL     OW59735   1.203   2.598   2.894
52613SOL    HW159736   1.155   2.638   2.966
52613SOL    HW259737   1.278   2.555   2.935
52614SOL     OW59738   9.041  13.796   5.952
52614SOL    HW159739   8.963  13.817   5.901
52614SOL    HW259740   9.012  13.728   6.013
52615SOL     OW59741  11.710   7.028   0.785
52615SOL    HW159742  11.769   7.101   0.802
52615SOL    HW259743  11.670   7.048   0.700
52616SOL     OW59744   1.862   6.226  14.558
52616SOL    HW159745   1.851   6.272  14.641
52616SOL    HW259746   1.942   6.262  14.521
52617SOL     OW59747   7.051  11.047   3.844
52617SOL    HW159748   6.975  11.103   3.831
52617SOL    HW259749   7.061  11.042   3.940
52618SOL     OW59750   9.270   5.011  11.167
52618SOL    HW159751   9.267   4.915  11.168
52618SOL    HW259752   9.313   5.034  11.250
52619SOL     OW59753   1.912   4.348   4.544
52619SOL    HW159754   1.980   4.315   4.485
52619SOL    HW259755   1.953   4.421   4.590
52620SOL     OW59756  12.213  10.950   4.878
52620SOL    HW159757  12.154  10.995   4.817
52620SOL    HW259758  12.300  10.986   4.857
52621SOL     OW59759   7.673   0.106   4.595
52621SOL    HW159760   7.622   0.162   4.653
52621SOL    HW259761   7.655   0.140   4.507
52622SOL     OW59762   2.161   4.587   1.166
52622SOL    HW159763   2.081   4.566   1.118
52622SOL    HW259764   2.180   4.678   1.142
52623SOL     OW59765   4.017   3.634  12.261
52623SOL    HW159766   4.053   3.720  12.241
52623SOL    HW259767   4.087   3.573  12.236
52624SOL     OW59768  10.233   8.449  14.724
52624SOL    HW159769  10.164   8.515  14.715
52624SOL    HW259770  10.276   8.471  14.807
52625SOL     OW59771  11.618   2.743   6.954
52625SOL    HW159772  11.653   2.658   6.929
52625SOL    HW259773  11.544   2.723   7.012
52626SOL     OW59774  10.500   2.381   8.671
52626SOL    HW159775  10.588   2.401   8.639
52626SOL    HW259776  10.487   2.439   8.745
52627SOL     OW59777   2.925   3.793  13.536
52627SOL    HW159778   2.985   3.743  13.481
52627SOL    HW259779   2.881   3.728  13.590
52628SOL     OW59780   4.865   2.792   3.490
52628SOL    HW159781   4.780   2.788   3.532
52628SOL    HW259782   4.926   2.753   3.553
52629SOL     OW59783   7.308   7.279   9.812
52629SOL    HW159784   7.287   7.223   9.887
52629SOL    HW259785   7.323   7.217   9.740
52630SOL     OW59786   6.954   9.924  10.534
52630SOL    HW159787   6.992   9.969  10.610
52630SOL    HW259788   7.028   9.884  10.490
52631SOL     OW59789  12.352   5.077  13.267
52631SOL    HW159790  12.427   5.018  13.261
52631SOL    HW259791  12.281   5.030  13.224
52632SOL     OW59792  12.626  14.655   7.552
52632SOL    HW159793  12.596  14.734   7.596
52632SOL    HW259794  12.640  14.682   7.461
52633SOL     OW59795  14.520   7.173  11.639
52633SOL    HW159796  14.437   7.176  11.592
52633SOL    HW259797  14.533   7.080  11.659
52634SOL     OW59798  13.499  11.494   0.743
52634SOL    HW159799  13.490  11.496   0.648
52634SOL    HW259800  13.584  11.453   0.759
52635SOL     OW59801   3.615   1.720   8.221
52635SOL    HW159802   3.532   1.757   8.252
52635SOL    HW259803   3.674   1.727   8.296
52636SOL     OW59804   2.373   6.631  12.679
52636SOL    HW159805   2.466   6.623  12.700
52636SOL    HW259806   2.361   6.577  12.601
52637SOL     OW59807  13.534   4.294   5.252
52637SOL    HW159808  13.497   4.251   5.330
52637SOL    HW259809  13.626   4.269   5.252
52638SOL     OW59810   6.261  14.496   8.009
52638SOL    HW159811   6.174  14.495   8.048
52638SOL    HW259812   6.248  14.533   7.922
52639SOL     OW59813   0.074  11.107   7.540
52639SOL    HW159814   0.018  11.033   7.515
52639SOL    HW259815   0.090  11.094   7.633
52640SOL     OW59816   2.961  14.285   0.615
52640SOL    HW159817   2.896  14.247   0.674
52640SOL    HW259818   2.911  14.340   0.555
52641SOL     OW59819   6.920  11.368  12.125
52641SOL    HW159820   6.968  11.292  12.093
52641SOL    HW259821   6.980  11.410  12.187
52642SOL     OW59822  14.663  11.084   4.584
52642SOL    HW159823  14.744  11.100   4.535
52642SOL    HW259824  14.691  11.036   4.662
52643SOL     OW59825   5.051   7.102  14.495
52643SOL    HW159826   4.996   7.068  14.566
52643SOL    HW259827   5.019   7.057  14.416
52644SOL     OW59828   1.973   5.838  13.340
52644SOL    HW159829   1.957   5.783  13.416
52644SOL    HW259830   1.885   5.868  13.314
52645SOL     OW59831  14.036   6.411   3.329
52645SOL    HW159832  14.082   6.411   3.245
52645SOL    HW259833  14.063   6.330   3.371
52646SOL     OW59834   2.956  10.033   8.641
52646SOL    HW159835   2.973  10.015   8.734
52646SOL    HW259836   3.041  10.060   8.606
52647SOL     OW59837  11.671   0.491   6.494
52647SOL    HW159838  11.741   0.454   6.440
52647SOL    HW259839  11.666   0.583   6.466
52648SOL     OW59840   8.001   0.414  12.191
52648SOL    HW159841   8.060   0.391  12.263
52648SOL    HW259842   8.055   0.466  12.131
52649SOL     OW59843   8.022   8.693   7.390
52649SOL    HW159844   7.978   8.609   7.402
52649SOL    HW259845   7.955   8.751   7.355
52650SOL     OW59846  12.576  10.586   7.626
52650SOL    HW159847  12.646  10.521   7.620
52650SOL    HW259848  12.587  10.640   7.548
52651SOL     OW59849   3.186   4.308  11.489
52651SOL    HW159850   3.259   4.356  11.450
52651SOL    HW259851   3.154   4.366  11.558
52652SOL     OW59852  10.609  13.657   2.423
52652SOL    HW159853  10.543  13.725   2.433
52652SOL    HW259854  10.671  13.693   2.359
52653SOL     OW59855   5.752  12.517   6.374
52653SOL    HW159856   5.840  12.525   6.411
52653SOL    HW259857   5.747  12.426   6.344
52654SOL     OW59858   5.728   8.084   7.511
52654SOL    HW159859   5.752   8.042   7.429
52654SOL    HW259860   5.666   8.153   7.486
52655SOL     OW59861   8.903   4.248   4.796
52655SOL    HW159862   8.830   4.257   4.858
52655SOL    HW259863   8.897   4.158   4.765
52656SOL     OW59864   0.049   1.800   5.965
52656SOL    HW159865   0.123   1.787   5.907
52656SOL    HW259866  14.852   1.743   5.930
52657SOL     OW59867   1.448   4.658  11.614
52657SOL    HW159868   1.434   4.725  11.681
52657SOL    HW259869   1.366   4.654  11.566
52658SOL     OW59870  10.303   5.986   7.782
52658SOL    HW159871  10.257   5.994   7.866
52658SOL    HW259872  10.373   6.050   7.787
52659SOL     OW59873   5.736   1.394  10.459
52659SOL    HW159874   5.788   1.338  10.401
52659SOL    HW259875   5.718   1.472  10.406
52660SOL     OW59876   7.916  11.119  12.022
52660SOL    HW159877   7.962  11.081  11.947
52660SOL    HW259878   7.968  11.196  12.045
52661SOL     OW59879   8.204  10.920   4.684
52661SOL    HW159880   8.284  10.920   4.632
52661SOL    HW259881   8.225  10.971   4.762
52662SOL     OW59882  12.424   6.559   5.054
52662SOL    HW159883  12.425   6.493   4.984
52662SOL    HW259884  12.348   6.535   5.107
52663SOL     OW59885  11.689  14.819   6.236
52663SOL    HW159886  11.656   0.008   6.302
52663SOL    HW259887  11.652  14.734   6.261
52664SOL     OW59888   7.197  11.748  11.399
52664SOL    HW159889   7.231  11.824  11.447
52664SOL    HW259890   7.251  11.675  11.430
52665SOL     OW59891   7.300   2.982   2.079
52665SOL    HW159892   7.248   2.950   2.005
52665SOL    HW259893   7.305   3.077   2.066
52666SOL     OW59894   7.705   2.864   4.507
52666SOL    HW159895   7.671   2.899   4.424
52666SOL    HW259896   7.647   2.902   4.574
52667SOL     OW59897  11.449  14.295  11.622
52667SOL    HW159898  11.483  14.318  11.709
52667SOL    HW259899  11.455  14.200  11.618
52668SOL     OW59900   7.675   8.289   7.301
52668SOL    HW159901   7.620   8.312   7.376
52668SOL    HW259902   7.653   8.197   7.283
52669SOL     OW59903   9.056  11.217   3.839
52669SOL    HW159904   9.141  11.220   3.796
52669SOL    HW259905   9.076  11.201   3.931
52670SOL     OW59906  14.311  10.695  10.443
52670SOL    HW159907  14.351  10.735  10.521
52670SOL    HW259908  14.378  10.634  10.411
52671SOL     OW59909   4.164   3.494   4.807
52671SOL    HW159910   4.222   3.439   4.754
52671SOL    HW259911   4.082   3.445   4.811
52672SOL     OW59912   1.959   6.590   1.737
52672SOL    HW159913   1.873   6.634   1.738
52672SOL    HW259914   1.964   6.547   1.822
52673SOL     OW59915  11.836   5.615   7.345
52673SOL    HW159916  11.880   5.688   7.389
52673SOL    HW259917  11.859   5.538   7.397
52674SOL     OW59918   4.360   5.228   2.899
52674SOL    HW159919   4.275   5.270   2.882
52674SOL    HW259920   4.343   5.135   2.889
52675SOL     OW59921   5.106  11.442   8.966
52675SOL    HW159922   5.068  11.445   9.054
52675SOL    HW259923   5.162  11.365   8.966
52676SOL     OW59924  12.617  10.649   0.744
52676SOL    HW159925  12.574  10.632   0.828
52676SOL    HW259926  12.661  10.733   0.757
52677SOL     OW59927  13.598  10.954   5.664
52677SOL    HW159928  13.678  10.956   5.716
52677SOL    HW259929  13.625  10.987   5.578
52678SOL     OW59930  11.695  10.514   2.109
52678SOL    HW159931  11.648  10.570   2.170
52678SOL    HW259932  11.716  10.570   2.035
52679SOL     OW59933  11.364   5.662   0.859
52679SOL    HW159934  11.387   5.617   0.778
52679SOL    HW259935  11.290   5.612   0.894
52680SOL     OW59936  12.353  14.647   7.949
52680SOL    HW159937  12.262  14.647   7.922
52680SOL    HW259938  12.350  14.663   8.043
52681SOL     OW59939   0.038   9.917  10.965
52681SOL    HW159940  14.820   9.940  10.990
52681SOL    HW259941   0.084   9.905  11.048
52682SOL     OW59942   9.714  13.306   3.385
52682SOL    HW159943   9.678  13.394   3.377
52682SOL    HW259944   9.737  13.281   3.295
52683SOL     OW59945   1.611  11.900  14.615
52683SOL    HW159946   1.650  11.856  14.539
52683SOL    HW259947   1.524  11.862  14.621
52684SOL     OW59948   9.345   5.637   8.856
52684SOL    HW159949   9.333   5.711   8.796
52684SOL    HW259950   9.258   5.596   8.861
52685SOL     OW59951   3.602  11.382   8.147
52685SOL    HW159952   3.627  11.462   8.194
52685SOL    HW259953   3.507  11.384   8.144
52686SOL     OW59954  11.818  13.171   9.884
52686SOL    HW159955  11.873  13.242   9.851
52686SOL    HW259956  11.871  13.092   9.874
52687SOL     OW59957  11.273   9.584   8.841
52687SOL    HW159958  11.189   9.607   8.803
52687SOL    HW259959  11.274   9.488   8.842
52688SOL     OW59960  11.289   8.083   6.509
52688SOL    HW159961  11.349   8.017   6.543
52688SOL    HW259962  11.202   8.052   6.533
52689SOL     OW59963  12.003   0.987  14.845
52689SOL    HW159964  11.969   1.059  14.791
52689SOL    HW259965  11.945   0.985   0.049
52690SOL     OW59966  12.287  10.516  10.825
52690SOL    HW159967  12.264  10.479  10.910
52690SOL    HW259968  12.382  10.529  10.830
52691SOL     OW59969   9.954   6.630  11.059
52691SOL    HW159970   9.998   6.702  11.104
52691SOL    HW259971   9.862   6.653  11.062
52692SOL     OW59972  14.279   5.998   0.207
52692SOL    HW159973  14.218   6.034   0.271
52692SOL    HW259974  14.279   5.904   0.224
52693SOL     OW59975  14.309   0.983  14.481
52693SOL    HW159976  14.313   0.988  14.386
52693SOL    HW259977  14.339   1.069  14.511
52694SOL     OW59978   3.121   0.593   5.254
52694SOL    HW159979   3.066   0.583   5.332
52694SOL    HW259980   3.195   0.535   5.270
52695SOL     OW59981   1.433   6.887   4.972
52695SOL    HW159982   1.449   6.976   5.004
52695SOL    HW259983   1.455   6.891   4.879
52696SOL     OW59984   7.763  14.625   0.853
52696SOL    HW159985   7.743  14.536   0.881
52696SOL    HW259986   7.696  14.679   0.897
52697SOL     OW59987   5.227  10.757  10.930
52697SOL    HW159988   5.212  10.830  10.870
52697SOL    HW259989   5.199  10.680  10.881
52698SOL     OW59990   8.775   1.175   7.520
52698SOL    HW159991   8.868   1.171   7.540
52698SOL    HW259992   8.744   1.255   7.563
52699SOL     OW59993   1.175   0.120   4.779
52699SOL    HW159994   1.137   0.205   4.757
52699SOL    HW259995   1.111   0.079   4.837
52700SOL     OW59996   9.954  11.668   6.441
52700SOL    HW159997   9.947  11.580   6.478
52700SOL    HW259998   9.886  11.718   6.487
52701SOL     OW59999  13.072   8.603  14.596
52701SOL    HW160000  12.993   8.562  14.630
52701SOL    HW260001  13.120   8.532  14.554
52702SOL     OW60002   4.110   6.181  11.903
52702SOL    HW160003   4.047   6.220  11.842
52702SOL    HW260004   4.090   6.222  11.987
52703SOL     OW60005   3.951   9.767   8.874
52703SOL    HW160006   3.892   9.707   8.920
52703SOL    HW260007   3.894   9.834   8.837
52704SOL     OW60008   4.768   3.544   9.264
52704SOL    HW160009   4.811   3.628   9.251
52704SOL    HW260010   4.818   3.482   9.211
52705SOL     OW60011   1.534  12.524   2.216
52705SOL    HW160012   1.559  12.439   2.254
52705SOL    HW260013   1.516  12.505   2.124
52706SOL     OW60014   4.591   9.952   6.662
52706SOL    HW160015   4.524   9.895   6.624
52706SOL    HW260016   4.659   9.957   6.595
52707SOL     OW60017   6.288   9.529  13.502
52707SOL    HW160018   6.256   9.618  13.511
52707SOL    HW260019   6.329   9.527  13.415
52708SOL     OW60020  11.580   6.896   0.134
52708SOL    HW160021  11.511   6.831   0.126
52708SOL    HW260022  11.641   6.875   0.064
52709SOL     OW60023  14.246  10.501   4.359
52709SOL    HW160024  14.153  10.480   4.366
52709SOL    HW260025  14.284  10.425   4.315
52710SOL     OW60026  10.228   3.461   0.455
52710SOL    HW160027  10.272   3.398   0.398
52710SOL    HW260028  10.300   3.508   0.498
52711SOL     OW60029   5.366  11.528   4.158
52711SOL    HW160030   5.364  11.496   4.248
52711SOL    HW260031   5.365  11.449   4.104
52712SOL     OW60032   3.892   7.829  14.161
52712SOL    HW160033   3.936   7.825  14.076
52712SOL    HW260034   3.962   7.813  14.224
52713SOL     OW60035   4.638   0.991  14.261
52713SOL    HW160036   4.672   1.075  14.293
52713SOL    HW260037   4.547   1.010  14.236
52714SOL     OW60038   9.135   1.714  10.059
52714SOL    HW160039   9.104   1.707  10.149
52714SOL    HW260040   9.127   1.626  10.024
52715SOL     OW60041  14.112   1.877   5.831
52715SOL    HW160042  14.080   1.959   5.868
52715SOL    HW260043  14.183   1.851   5.889
52716SOL     OW60044  10.781   3.777   2.098
52716SOL    HW160045  10.772   3.687   2.131
52716SOL    HW260046  10.694   3.815   2.109
52717SOL     OW60047   9.196   4.978   0.807
52717SOL    HW160048   9.205   4.912   0.739
52717SOL    HW260049   9.117   5.026   0.784
52718SOL     OW60050   7.288   4.920   2.955
52718SOL    HW160051   7.217   4.976   2.986
52718SOL    HW260052   7.366   4.956   2.998
52719SOL     OW60053   4.497   5.891   4.694
52719SOL    HW160054   4.578   5.843   4.674
52719SOL    HW260055   4.442   5.827   4.739
52720SOL     OW60056   3.130   7.154  12.893
52720SOL    HW160057   3.092   7.066  12.888
52720SOL    HW260058   3.224   7.138  12.907
52721SOL     OW60059  10.787   3.824   9.874
52721SOL    HW160060  10.831   3.808   9.791
52721SOL    HW260061  10.697   3.845   9.850
52722SOL     OW60062  10.707  13.778   6.925
52722SOL    HW160063  10.729  13.729   7.005
52722SOL    HW260064  10.732  13.720   6.854
52723SOL     OW60065   3.331   6.869   6.348
52723SOL    HW160066   3.349   6.840   6.259
52723SOL    HW260067   3.347   6.791   6.402
52724SOL     OW60068  10.474   9.028  10.167
52724SOL    HW160069  10.521   8.945  10.178
52724SOL    HW260070  10.491   9.076  10.248
52725SOL     OW60071   4.482   4.342   8.119
52725SOL    HW160072   4.488   4.435   8.141
52725SOL    HW260073   4.397   4.333   8.076
52726SOL     OW60074   1.231  11.281   9.686
52726SOL    HW160075   1.226  11.185   9.680
52726SOL    HW260076   1.155  11.312   9.637
52727SOL     OW60077   4.924   5.277  13.284
52727SOL    HW160078   4.841   5.278  13.235
52727SOL    HW260079   4.907   5.218  13.358
52728SOL     OW60080  12.390   3.082   9.435
52728SOL    HW160081  12.324   3.080   9.504
52728SOL    HW260082  12.469   3.047   9.477
52729SOL     OW60083   2.920   7.153  11.726
52729SOL    HW160084   2.998   7.197  11.691
52729SOL    HW260085   2.955   7.086  11.785
52730SOL     OW60086  11.253   8.416  13.662
52730SOL    HW160087  11.266   8.509  13.679
52730SOL    HW260088  11.295   8.401  13.577
52731SOL     OW60089   8.334   1.452   9.188
52731SOL    HW160090   8.357   1.545   9.189
52731SOL    HW260091   8.267   1.445   9.120
52732SOL     OW60092   2.476   1.281   4.678
52732SOL    HW160093   2.536   1.311   4.610
52732SOL    HW260094   2.389   1.296   4.642
52733SOL     OW60095  11.296   0.920  10.824
52733SOL    HW160096  11.259   1.006  10.803
52733SOL    HW260097  11.390   0.932  10.819
52734SOL     OW60098   9.222  11.545  11.730
52734SOL    HW160099   9.184  11.471  11.684
52734SOL    HW260100   9.155  11.614  11.725
52735SOL     OW60101   2.119   6.153   9.823
52735SOL    HW160102   2.134   6.059   9.819
52735SOL    HW260103   2.188   6.185   9.882
52736SOL     OW60104  10.094   3.547  11.205
52736SOL    HW160105  10.107   3.452  11.195
52736SOL    HW260106  10.167   3.586  11.156
52737SOL     OW60107  13.154  13.947   2.515
52737SOL    HW160108  13.207  13.923   2.591
52737SOL    HW260109  13.116  13.863   2.486
52738SOL     OW60110  11.270   4.882   3.853
52738SOL    HW160111  11.253   4.970   3.819
52738SOL    HW260112  11.262   4.825   3.776
52739SOL     OW60113   1.094   3.263  14.378
52739SOL    HW160114   1.087   3.183  14.430
52739SOL    HW260115   1.082   3.235  14.288
52740SOL     OW60116   3.897   9.148   7.694
52740SOL    HW160117   3.938   9.226   7.656
52740SOL    HW260118   3.964   9.080   7.689
52741SOL     OW60119  11.286  14.589   3.029
52741SOL    HW160120  11.359  14.529   3.012
52741SOL    HW260121  11.216  14.534   3.063
52742SOL     OW60122  10.650  13.474   3.871
52742SOL    HW160123  10.584  13.541   3.855
52742SOL    HW260124  10.698  13.467   3.788
52743SOL     OW60125   0.054  12.542   2.073
52743SOL    HW160126   0.142  12.542   2.035
52743SOL    HW260127  14.868  12.530   1.998
52744SOL     OW60128   2.482   1.574   6.392
52744SOL    HW160129   2.404   1.625   6.414
52744SOL    HW260130   2.540   1.586   6.467
52745SOL     OW60131   7.454   3.746   6.551
52745SOL    HW160132   7.409   3.732   6.468
52745SOL    HW260133   7.510   3.668   6.561
52746SOL     OW60134   0.553   9.931   7.327
52746SOL    HW160135   0.491   9.862   7.354
52746SOL    HW260136   0.588   9.899   7.243
52747SOL     OW60137   6.681  10.554   1.878
52747SOL    HW160138   6.752  10.578   1.937
52747SOL    HW260139   6.693  10.610   1.801
52748SOL     OW60140   8.762   3.620   4.797
52748SOL    HW160141   8.758   3.716   4.787
52748SOL    HW260142   8.802   3.606   4.883
52749SOL     OW60143   9.509  14.031   9.009
52749SOL    HW160144   9.514  14.048   8.915
52749SOL    HW260145   9.438  14.087   9.040
52750SOL     OW60146   0.753  13.311   8.782
52750SOL    HW160147   0.662  13.309   8.753
52750SOL    HW260148   0.800  13.356   8.712
52751SOL     OW60149   9.916   2.135   5.367
52751SOL    HW160150   9.874   2.053   5.342
52751SOL    HW260151   9.865   2.167   5.442
52752SOL     OW60152   1.761   1.676  13.253
52752SOL    HW160153   1.817   1.604  13.283
52752SOL    HW260154   1.790   1.692  13.163
52753SOL     OW60155   6.793   1.245   6.013
52753SOL    HW160156   6.747   1.194   5.947
52753SOL    HW260157   6.729   1.311   6.042
52754SOL     OW60158   3.275   7.221  13.367
52754SOL    HW160159   3.224   7.251  13.292
52754SOL    HW260160   3.256   7.127  13.373
52755SOL     OW60161   0.111   9.705   3.659
52755SOL    HW160162   0.052   9.674   3.727
52755SOL    HW260163   0.176   9.757   3.705
52756SOL     OW60164  11.782   0.883   1.015
52756SOL    HW160165  11.807   0.941   0.944
52756SOL    HW260166  11.736   0.810   0.972
52757SOL     OW60167   4.948   1.805  13.765
52757SOL    HW160168   4.996   1.738  13.715
52757SOL    HW260169   4.927   1.761  13.848
52758SOL     OW60170   1.824  10.074  12.241
52758SOL    HW160171   1.866  10.160  12.245
52758SOL    HW260172   1.750  10.086  12.180
52759SOL     OW60173  10.020   7.917   4.255
52759SOL    HW160174  10.066   7.975   4.194
52759SOL    HW260175  10.048   7.829   4.230
52760SOL     OW60176  12.017   1.847   4.426
52760SOL    HW160177  11.945   1.858   4.488
52760SOL    HW260178  12.062   1.768   4.456
52761SOL     OW60179   4.188   9.847   9.130
52761SOL    HW160180   4.248   9.858   9.057
52761SOL    HW260181   4.175   9.752   9.137
52762SOL     OW60182   9.015   5.321  11.389
52762SOL    HW160183   9.025   5.259  11.461
52762SOL    HW260184   8.982   5.268  11.316
52763SOL     OW60185   1.136   2.484  14.752
52763SOL    HW160186   1.062   2.536  14.783
52763SOL    HW260187   1.205   2.499  14.816
52764SOL     OW60188   5.545  13.689   3.756
52764SOL    HW160189   5.543  13.723   3.845
52764SOL    HW260190   5.615  13.737   3.713
52765SOL     OW60191   1.889  11.941   7.559
52765SOL    HW160192   1.798  11.947   7.528
52765SOL    HW260193   1.898  12.014   7.621
52766SOL     OW60194   3.976   5.301   4.178
52766SOL    HW160195   4.040   5.358   4.220
52766SOL    HW260196   3.924   5.361   4.124
52767SOL     OW60197  11.057   2.202   7.361
52767SOL    HW160198  11.086   2.185   7.272
52767SOL    HW260199  11.066   2.297   7.372
52768SOL     OW60200   5.748   1.037   9.619
52768SOL    HW160201   5.809   1.050   9.692
52768SOL    HW260202   5.715   1.125   9.600
52769SOL     OW60203   2.788   7.931  10.760
52769SOL    HW160204   2.847   7.953  10.688
52769SOL    HW260205   2.708   7.981  10.741
52770SOL     OW60206   9.264   6.956   2.330
52770SOL    HW160207   9.298   6.931   2.244
52770SOL    HW260208   9.308   7.038   2.350
52771SOL     OW60209   6.968  11.684   8.047
52771SOL    HW160210   6.990  11.671   8.140
52771SOL    HW260211   6.972  11.596   8.010
52772SOL     OW60212   6.941  13.654  11.063
52772SOL    HW160213   6.894  13.730  11.028
52772SOL    HW260214   6.972  13.683  11.148
52773SOL     OW60215   2.898   9.512   5.525
52773SOL    HW160216   2.811   9.550   5.531
52773SOL    HW260217   2.948   9.553   5.596
52774SOL     OW60218  13.813   4.318  11.096
52774SOL    HW160219  13.889   4.333  11.039
52774SOL    HW260220  13.807   4.398  11.148
52775SOL     OW60221   3.024  10.306   1.938
52775SOL    HW160222   3.023  10.238   1.871
52775SOL    HW260223   2.932  10.318   1.962
52776SOL     OW60224   5.006   8.012  10.813
52776SOL    HW160225   4.914   8.035  10.807
52776SOL    HW260226   5.036   8.054  10.894
52777SOL     OW60227   1.795   4.539   1.252
52777SOL    HW160228   1.786   4.616   1.309
52777SOL    HW260229   1.822   4.469   1.311
52778SOL     OW60230   7.146  13.997   5.169
52778SOL    HW160231   7.061  13.993   5.125
52778SOL    HW260232   7.127  13.973   5.260
52779SOL     OW60233   0.523  12.274   8.543
52779SOL    HW160234   0.505  12.185   8.571
52779SOL    HW260235   0.617  12.287   8.560
52780SOL     OW60236   7.443  12.711  13.449
52780SOL    HW160237   7.397  12.747  13.373
52780SOL    HW260238   7.517  12.771  13.462
52781SOL     OW60239   0.516   8.735  10.242
52781SOL    HW160240   0.569   8.773  10.172
52781SOL    HW260241   0.578   8.718  10.312
52782SOL     OW60242   4.020  12.032   4.037
52782SOL    HW160243   4.070  12.040   3.956
52782SOL    HW260244   4.064  11.963   4.086
52783SOL     OW60245   4.132  14.553   8.846
52783SOL    HW160246   4.150  14.646   8.831
52783SOL    HW260247   4.052  14.536   8.796
52784SOL     OW60248  14.729  11.306   3.019
52784SOL    HW160249  14.714  11.242   3.088
52784SOL    HW260250  14.819  11.336   3.032
52785SOL     OW60251   5.924   0.476   9.622
52785SOL    HW160252   6.012   0.439   9.616
52785SOL    HW260253   5.937   0.571   9.612
52786SOL     OW60254   0.292   5.228   8.747
52786SOL    HW160255   0.216   5.198   8.797
52786SOL    HW260256   0.308   5.317   8.778
52787SOL     OW60257   6.349   2.634  13.738
52787SOL    HW160258   6.412   2.581  13.786
52787SOL    HW260259   6.264   2.602  13.767
52788SOL     OW60260   1.607   4.466   4.649
52788SOL    HW160261   1.645   4.421   4.724
52788SOL    HW260262   1.671   4.454   4.579
52789SOL     OW60263   5.395   2.547   8.006
52789SOL    HW160264   5.413   2.602   7.930
52789SOL    HW260265   5.300   2.536   8.005
52790SOL     OW60266  14.222   4.262  13.856
52790SOL    HW160267  14.172   4.310  13.790
52790SOL    HW260268  14.277   4.203  13.804
52791SOL     OW60269  14.843  14.100  14.862
52791SOL    HW160270  14.849  14.110   0.084
52791SOL    HW260271  14.749  14.096  14.844
52792SOL     OW60272  14.491   0.750   9.082
52792SOL    HW160273  14.508   0.801   9.002
52792SOL    HW260274  14.403   0.775   9.108
52793SOL     OW60275   8.410   4.157   7.727
52793SOL    HW160276   8.464   4.136   7.804
52793SOL    HW260277   8.379   4.246   7.742
52794SOL     OW60278   5.082   9.469   9.700
52794SOL    HW160279   5.015   9.404   9.719
52794SOL    HW260280   5.123   9.440   9.619
52795SOL     OW60281   0.226   6.697   7.041
52795SOL    HW160282   0.142   6.696   6.994
52795SOL    HW260283   0.288   6.735   6.979
52796SOL     OW60284  14.492   8.189  11.081
52796SOL    HW160285  14.490   8.097  11.110
52796SOL    HW260286  14.459   8.238  11.156
52797SOL     OW60287   0.009   3.571   0.863
52797SOL    HW160288   0.072   3.556   0.792
52797SOL    HW260289   0.064   3.588   0.940
52798SOL     OW60290  13.416  10.961  13.185
52798SOL    HW160291  13.479  10.970  13.256
52798SOL    HW260292  13.412  11.048  13.145
52799SOL     OW60293   5.729   4.541  13.468
52799SOL    HW160294   5.725   4.557  13.374
52799SOL    HW260295   5.818   4.566  13.493
52800SOL     OW60296   0.290   6.149   3.268
52800SOL    HW160297   0.348   6.217   3.304
52800SOL    HW260298   0.225   6.198   3.218
52801SOL     OW60299   6.988   7.725  12.344
52801SOL    HW160300   6.997   7.720  12.249
52801SOL    HW260301   6.919   7.790  12.358
52802SOL     OW60302   9.939   1.269   5.456
52802SOL    HW160303  10.019   1.249   5.407
52802SOL    HW260304   9.879   1.304   5.390
52803SOL     OW60305  14.770  14.804   5.100
52803SOL    HW160306  14.682  14.829   5.128
52803SOL    HW260307  14.821  14.800   5.181
52804SOL     OW60308   1.016  11.098   4.059
52804SOL    HW160309   0.921  11.100   4.074
52804SOL    HW260310   1.034  11.181   4.014
52805SOL     OW60311   9.514  14.612  10.857
52805SOL    HW160312   9.476  14.671  10.922
52805SOL    HW260313   9.573  14.556  10.907
52806SOL     OW60314  10.279   7.993   1.999
52806SOL    HW160315  10.196   8.014   1.955
52806SOL    HW260316  10.337   8.066   1.977
52807SOL     OW60317   7.356   9.838   1.520
52807SOL    HW160318   7.321   9.928   1.517
52807SOL    HW260319   7.294   9.787   1.467
52808SOL     OW60320  11.082   8.433   2.364
52808SOL    HW160321  11.173   8.431   2.333
52808SOL    HW260322  11.045   8.512   2.325
52809SOL     OW60323   6.701   3.940   8.280
52809SOL    HW160324   6.628   3.909   8.226
52809SOL    HW260325   6.661   4.007   8.337
52810SOL     OW60326  12.435   1.568  12.591
52810SOL    HW160327  12.360   1.584  12.533
52810SOL    HW260328  12.503   1.627  12.560
52811SOL     OW60329  14.321   2.098  13.199
52811SOL    HW160330  14.275   2.156  13.138
52811SOL    HW260331  14.412   2.100  13.170
52812SOL     OW60332   6.126   6.440   8.218
52812SOL    HW160333   6.121   6.361   8.164
52812SOL    HW260334   6.109   6.512   8.158
52813SOL     OW60335   8.790   0.514   3.895
52813SOL    HW160336   8.764   0.518   3.987
52813SOL    HW260337   8.738   0.442   3.859
52814SOL     OW60338  10.115   9.910   2.021
52814SOL    HW160339  10.041   9.953   2.063
52814SOL    HW260340  10.139   9.969   1.949
52815SOL     OW60341  14.554   1.544   4.858
52815SOL    HW160342  14.531   1.540   4.951
52815SOL    HW260343  14.489   1.489   4.814
52816SOL     OW60344   4.838   0.518   1.092
52816SOL    HW160345   4.891   0.459   1.038
52816SOL    HW260346   4.852   0.486   1.181
52817SOL     OW60347   4.817   2.578   1.381
52817SOL    HW160348   4.755   2.536   1.440
52817SOL    HW260349   4.842   2.509   1.319
52818SOL     OW60350   9.265   9.384   2.931
52818SOL    HW160351   9.215   9.303   2.940
52818SOL    HW260352   9.308   9.396   3.016
52819SOL     OW60353   7.923   8.173  12.708
52819SOL    HW160354   7.905   8.164  12.615
52819SOL    HW260355   7.941   8.084  12.739
52820SOL     OW60356  10.033  14.156   5.767
52820SOL    HW160357  10.088  14.155   5.688
52820SOL    HW260358   9.953  14.110   5.742
52821SOL     OW60359   5.808   9.021   9.835
52821SOL    HW160360   5.802   9.059   9.922
52821SOL    HW260361   5.719   8.990   9.816
52822SOL     OW60362  12.598  11.675   9.366
52822SOL    HW160363  12.519  11.658   9.316
52822SOL    HW260364  12.627  11.762   9.338
52823SOL     OW60365   7.386  13.853   2.043
52823SOL    HW160366   7.296  13.871   2.069
52823SOL    HW260367   7.439  13.881   2.117
52824SOL     OW60368  14.637   2.471  13.374
52824SOL    HW160369  14.605   2.462  13.284
52824SOL    HW260370  14.679   2.387  13.393
52825SOL     OW60371   0.921   6.268   5.060
52825SOL    HW160372   1.006   6.275   5.018
52825SOL    HW260373   0.905   6.174   5.069
52826SOL     OW60374  14.601   4.817  14.779
52826SOL    HW160375  14.696   4.826  14.774
52826SOL    HW260376  14.586   4.722  14.773
52827SOL     OW60377  11.107   4.315   8.407
52827SOL    HW160378  11.058   4.396   8.395
52827SOL    HW260379  11.114   4.278   8.319
52828SOL     OW60380  12.445  10.190  10.131
52828SOL    HW160381  12.453  10.096  10.146
52828SOL    HW260382  12.510  10.208  10.062
52829SOL     OW60383   0.301   6.662   5.169
52829SOL    HW160384   0.253   6.640   5.089
52829SOL    HW260385   0.242   6.637   5.240
52830SOL     OW60386  13.262  11.258   1.999
52830SOL    HW160387  13.243  11.164   1.998
52830SOL    HW260388  13.324  11.269   2.071
52831SOL     OW60389   3.976   4.692   2.017
52831SOL    HW160390   3.973   4.597   2.030
52831SOL    HW260391   4.069   4.713   2.012
52832SOL     OW60392   2.152  10.940   7.549
52832SOL    HW160393   2.211  10.918   7.477
52832SOL    HW260394   2.067  10.905   7.522
52833SOL     OW60395  10.360   0.589   4.570
52833SOL    HW160396  10.370   0.680   4.599
52833SOL    HW260397  10.437   0.544   4.605
52834SOL     OW60398   7.318  12.902   2.513
52834SOL    HW160399   7.239  12.859   2.480
52834SOL    HW260400   7.313  12.991   2.477
52835SOL     OW60401   2.098  13.288   4.373
52835SOL    HW160402   2.088  13.362   4.313
52835SOL    HW260403   2.011  13.249   4.378
52836SOL     OW60404   6.396   2.072   4.960
52836SOL    HW160405   6.400   2.134   4.887
52836SOL    HW260406   6.327   2.106   5.017
52837SOL     OW60407   6.290  12.066   7.570
52837SOL    HW160408   6.300  12.110   7.486
52837SOL    HW260409   6.210  12.014   7.561
52838SOL     OW60410   0.172   9.380   0.196
52838SOL    HW160411   0.183   9.445   0.265
52838SOL    HW260412   0.104   9.416   0.139
52839SOL     OW60413   0.889  12.587   2.851
52839SOL    HW160414   0.925  12.501   2.833
52839SOL    HW260415   0.965  12.645   2.857
52840SOL     OW60416   2.333  13.581  10.893
52840SOL    HW160417   2.297  13.662  10.929
52840SOL    HW260418   2.294  13.572  10.806
52841SOL     OW60419   4.032  13.125   3.813
52841SOL    HW160420   4.033  13.214   3.778
52841SOL    HW260421   4.123  13.095   3.803
52842SOL     OW60422   3.232   5.113   5.726
52842SOL    HW160423   3.268   5.196   5.757
52842SOL    HW260424   3.308   5.063   5.697
52843SOL     OW60425  11.622   1.356  11.867
52843SOL    HW160426  11.530   1.349  11.840
52843SOL    HW260427  11.663   1.277  11.832
52844SOL     OW60428   2.580   4.760   5.345
52844SOL    HW160429   2.538   4.676   5.361
52844SOL    HW260430   2.571   4.808   5.427
52845SOL     OW60431  11.699   8.735  13.876
52845SOL    HW160432  11.750   8.656  13.857
52845SOL    HW260433  11.731   8.799  13.813
52846SOL     OW60434  13.873   9.615   0.707
52846SOL    HW160435  13.912   9.606   0.794
52846SOL    HW260436  13.828   9.700   0.710
52847SOL     OW60437   7.662   9.947   7.944
52847SOL    HW160438   7.672  10.015   7.878
52847SOL    HW260439   7.601   9.884   7.905
52848SOL     OW60440  10.992   4.308  11.070
52848SOL    HW160441  10.911   4.350  11.100
52848SOL    HW260442  11.054   4.323  11.141
52849SOL     OW60443   6.750   0.426   4.517
52849SOL    HW160444   6.705   0.347   4.548
52849SOL    HW260445   6.712   0.443   4.430
52850SOL     OW60446   7.438  10.496   8.151
52850SOL    HW160447   7.376  10.427   8.172
52850SOL    HW260448   7.507  10.453   8.102
52851SOL     OW60449   9.657  11.177   9.490
52851SOL    HW160450   9.635  11.230   9.413
52851SOL    HW260451   9.572  11.146   9.522
52852SOL     OW60452   9.812   9.273   5.017
52852SOL    HW160453   9.778   9.362   5.008
52852SOL    HW260454   9.733   9.218   5.018
52853SOL     OW60455   2.084  11.811  11.746
52853SOL    HW160456   2.005  11.862  11.764
52853SOL    HW260457   2.151  11.875  11.724
52854SOL     OW60458  11.076  10.926   3.522
52854SOL    HW160459  11.048  10.913   3.612
52854SOL    HW260460  11.105  11.017   3.518
52855SOL     OW60461   0.086  14.757   7.546
52855SOL    HW160462   0.021  14.826   7.550
52855SOL    HW260463   0.042  14.685   7.501
52856SOL     OW60464   8.759   1.663   2.959
52856SOL    HW160465   8.795   1.637   3.044
52856SOL    HW260466   8.672   1.697   2.979
52857SOL     OW60467  13.253   2.444   9.248
52857SOL    HW160468  13.267   2.509   9.179
52857SOL    HW260469  13.307   2.370   9.222
52858SOL     OW60470  11.555  12.898   3.774
52858SOL    HW160471  11.506  12.836   3.721
52858SOL    HW260472  11.496  12.972   3.787
52859SOL     OW60473  12.558   6.435   7.717
52859SOL    HW160474  12.579   6.370   7.650
52859SOL    HW260475  12.549   6.517   7.668
52860SOL     OW60476   2.719  14.639  14.489
52860SOL    HW160477   2.689  14.686  14.411
52860SOL    HW260478   2.646  14.642  14.550
52861SOL     OW60479   1.342  13.108  11.921
52861SOL    HW160480   1.348  13.203  11.935
52861SOL    HW260481   1.257  13.084  11.957
52862SOL     OW60482   4.303   2.671   0.537
52862SOL    HW160483   4.392   2.702   0.555
52862SOL    HW260484   4.309   2.631   0.451
52863SOL     OW60485   4.340   1.950   4.630
52863SOL    HW160486   4.279   1.919   4.698
52863SOL    HW260487   4.424   1.953   4.675
52864SOL     OW60488  14.130   2.008  12.944
52864SOL    HW160489  14.109   1.978  12.856
52864SOL    HW260490  14.224   2.027  12.941
52865SOL     OW60491  14.297  10.072   6.426
52865SOL    HW160492  14.330   9.993   6.383
52865SOL    HW260493  14.215  10.044   6.468
52866SOL     OW60494   2.952   1.013  11.324
52866SOL    HW160495   2.924   1.021  11.415
52866SOL    HW260496   3.024   0.950  11.327
52867SOL     OW60497   3.519   3.637   4.054
52867SOL    HW160498   3.575   3.712   4.033
52867SOL    HW260499   3.450   3.640   3.988
52868SOL     OW60500  10.259   5.636  10.565
52868SOL    HW160501  10.165   5.649  10.579
52868SOL    HW260502  10.294   5.725  10.554
52869SOL     OW60503   9.227   6.948  11.397
52869SOL    HW160504   9.277   6.885  11.346
52869SOL    HW260505   9.177   6.893  11.458
52870SOL     OW60506   5.675  11.206  12.794
52870SOL    HW160507   5.635  11.126  12.827
52870SOL    HW260508   5.608  11.244  12.737
52871SOL     OW60509   7.434  13.671   3.445
52871SOL    HW160510   7.473  13.666   3.532
52871SOL    HW260511   7.500  13.634   3.386
52872SOL     OW60512   1.340   1.662   2.668
52872SOL    HW160513   1.323   1.635   2.577
52872SOL    HW260514   1.255   1.655   2.711
52873SOL     OW60515   5.938   4.316   9.674
52873SOL    HW160516   5.990   4.283   9.748
52873SOL    HW260517   5.855   4.269   9.680
52874SOL     OW60518  14.456   5.496   6.111
52874SOL    HW160519  14.375   5.491   6.061
52874SOL    HW260520  14.524   5.468   6.050
52875SOL     OW60521  10.530   1.844   6.180
52875SOL    HW160522  10.597   1.872   6.119
52875SOL    HW260523  10.449   1.845   6.128
52876SOL     OW60524  13.499   2.812   3.090
52876SOL    HW160525  13.544   2.804   3.175
52876SOL    HW260526  13.469   2.723   3.071
52877SOL     OW60527   1.981   5.500  14.477
52877SOL    HW160528   2.004   5.416  14.517
52877SOL    HW260529   2.012   5.566  14.540
52878SOL     OW60530   7.678  12.420   7.835
52878SOL    HW160531   7.625  12.393   7.761
52878SOL    HW260532   7.674  12.516   7.834
52879SOL     OW60533  13.678   5.840   6.719
52879SOL    HW160534  13.635   5.791   6.649
52879SOL    HW260535  13.609   5.853   6.784
52880SOL     OW60536   1.849   1.885   4.429
52880SOL    HW160537   1.920   1.849   4.376
52880SOL    HW260538   1.837   1.974   4.396
52881SOL     OW60539  14.459   2.675   3.125
52881SOL    HW160540  14.433   2.610   3.190
52881SOL    HW260541  14.536   2.717   3.163
52882SOL     OW60542   3.809  14.614  13.023
52882SOL    HW160543   3.796  14.688  13.082
52882SOL    HW260544   3.903  14.610  13.008
52883SOL     OW60545  14.323   3.648   9.793
52883SOL    HW160546  14.350   3.623   9.705
52883SOL    HW260547  14.396   3.698   9.828
52884SOL     OW60548   7.954   1.322   6.165
52884SOL    HW160549   7.918   1.254   6.107
52884SOL    HW260550   7.900   1.399   6.147
52885SOL     OW60551   2.611   8.913   4.649
52885SOL    HW160552   2.648   9.001   4.650
52885SOL    HW260553   2.672   8.861   4.700
52886SOL     OW60554   3.911   1.238   3.747
52886SOL    HW160555   3.849   1.308   3.729
52886SOL    HW260556   3.916   1.188   3.666
52887SOL     OW60557   0.008   0.982   6.716
52887SOL    HW160558  14.786   0.998   6.722
52887SOL    HW260559   0.016   0.887   6.712
52888SOL     OW60560   7.278   7.272   7.175
52888SOL    HW160561   7.318   7.208   7.116
52888SOL    HW260562   7.224   7.327   7.118
52889SOL     OW60563  14.607  11.926  13.835
52889SOL    HW160564  14.663  11.871  13.781
52889SOL    HW260565  14.541  11.960  13.775
52890SOL     OW60566   9.670   6.574  13.356
52890SOL    HW160567   9.604   6.505  13.347
52890SOL    HW260568   9.635   6.648  13.307
52891SOL     OW60569   8.446  11.956   3.546
52891SOL    HW160570   8.498  11.920   3.474
52891SOL    HW260571   8.509  12.007   3.597
52892SOL     OW60572   9.735   4.129   5.140
52892SOL    HW160573   9.823   4.105   5.112
52892SOL    HW260574   9.732   4.225   5.132
52893SOL     OW60575   1.233   3.399   9.953
52893SOL    HW160576   1.320   3.360   9.967
52893SOL    HW260577   1.247   3.470   9.891
52894SOL     OW60578   4.630  10.012   4.905
52894SOL    HW160579   4.706   9.993   4.960
52894SOL    HW260580   4.638   9.951   4.832
52895SOL     OW60581  14.650   6.787  13.102
52895SOL    HW160582  14.661   6.880  13.123
52895SOL    HW260583  14.683   6.779  13.012
52896SOL     OW60584   8.786   2.614  12.518
52896SOL    HW160585   8.776   2.678  12.449
52896SOL    HW260586   8.750   2.533  12.482
52897SOL     OW60587  13.540  14.628   3.853
52897SOL    HW160588  13.489  14.697   3.896
52897SOL    HW260589  13.515  14.634   3.761
52898SOL     OW60590   1.391  11.367   2.619
52898SOL    HW160591   1.324  11.306   2.649
52898SOL    HW260592   1.397  11.432   2.689
52899SOL     OW60593   3.436   4.867   1.469
52899SOL    HW160594   3.383   4.878   1.548
52899SOL    HW260595   3.465   4.776   1.472
52900SOL     OW60596  13.862   1.249  12.464
52900SOL    HW160597  13.933   1.282  12.409
52900SOL    HW260598  13.783   1.283  12.424
52901SOL     OW60599  11.493   0.993   3.901
52901SOL    HW160600  11.571   1.047   3.888
52901SOL    HW260601  11.470   0.963   3.813
52902SOL     OW60602   5.383   0.225   1.308
52902SOL    HW160603   5.397   0.169   1.232
52902SOL    HW260604   5.298   0.196   1.343
52903SOL     OW60605   8.628   9.342   5.633
52903SOL    HW160606   8.702   9.371   5.581
52903SOL    HW260607   8.662   9.335   5.722
52904SOL     OW60608   4.778  10.220  11.531
52904SOL    HW160609   4.784  10.260  11.444
52904SOL    HW260610   4.855  10.253  11.578
52905SOL     OW60611   9.109   5.342  11.903
52905SOL    HW160612   9.022   5.333  11.864
52905SOL    HW260613   9.160   5.273  11.861
52906SOL     OW60614  12.899   6.464   0.608
52906SOL    HW160615  12.954   6.454   0.685
52906SOL    HW260616  12.898   6.378   0.567
52907SOL     OW60617   0.116   7.372   4.586
52907SOL    HW160618   0.205   7.376   4.622
52907SOL    HW260619   0.128   7.354   4.493
52908SOL     OW60620   3.290  13.241   7.939
52908SOL    HW160621   3.363  13.282   7.985
52908SOL    HW260622   3.319  13.237   7.848
52909SOL     OW60623   3.917   4.314   3.195
52909SOL    HW160624   3.866   4.383   3.150
52909SOL    HW260625   3.889   4.319   3.286
52910SOL     OW60626   0.522   1.996   3.273
52910SOL    HW160627   0.452   1.956   3.324
52910SOL    HW260628   0.477   2.039   3.200
52911SOL     OW60629   6.193  14.259   3.575
52911SOL    HW160630   6.176  14.329   3.639
52911SOL    HW260631   6.106  14.232   3.546
52912SOL     OW60632  13.694   2.348   9.507
52912SOL    HW160633  13.614   2.373   9.553
52912SOL    HW260634  13.735   2.431   9.482
52913SOL     OW60635   7.174   2.052   6.047
52913SOL    HW160636   7.260   2.093   6.038
52913SOL    HW260637   7.178   2.007   6.131
52914SOL     OW60638  11.149   9.432   8.073
52914SOL    HW160639  11.178   9.424   8.164
52914SOL    HW260640  11.186   9.515   8.044
52915SOL     OW60641   9.558  11.493  13.722
52915SOL    HW160642   9.533  11.564  13.662
52915SOL    HW260643   9.490  11.494  13.790
52916SOL     OW60644  14.863   2.456   2.166
52916SOL    HW160645  14.802   2.502   2.109
52916SOL    HW260646   0.076   2.493   2.144
52917SOL     OW60647   4.210   4.730   4.698
52917SOL    HW160648   4.192   4.824   4.703
52917SOL    HW260649   4.290   4.719   4.750
52918SOL     OW60650   2.844   6.006  12.756
52918SOL    HW160651   2.749   5.997  12.762
52918SOL    HW260652   2.878   5.949  12.825
52919SOL     OW60653   3.248   5.391   3.376
52919SOL    HW160654   3.283   5.478   3.394
52919SOL    HW260655   3.184   5.405   3.306
52920SOL     OW60656   3.592  11.304  11.804
52920SOL    HW160657   3.598  11.245  11.879
52920SOL    HW260658   3.669  11.284  11.751
52921SOL     OW60659   8.373   8.337   7.772
52921SOL    HW160660   8.433   8.266   7.794
52921SOL    HW260661   8.286   8.301   7.787
52922SOL     OW60662  10.940   0.690   4.190
52922SOL    HW160663  10.943   0.724   4.100
52922SOL    HW260664  10.868   0.738   4.232
52923SOL     OW60665   3.707  12.159   3.672
52923SOL    HW160666   3.698  12.165   3.577
52923SOL    HW260667   3.617  12.147   3.703
52924SOL     OW60668   9.818   5.497   7.285
52924SOL    HW160669   9.856   5.479   7.199
52924SOL    HW260670   9.730   5.459   7.281
52925SOL     OW60671  10.155   7.384   2.477
52925SOL    HW160672  10.088   7.351   2.538
52925SOL    HW260673  10.154   7.479   2.488
52926SOL     OW60674  13.931  10.321   1.549
52926SOL    HW160675  13.986  10.351   1.622
52926SOL    HW260676  13.872  10.395   1.532
52927SOL     OW60677   1.198  12.551   3.064
52927SOL    HW160678   1.222  12.549   2.972
52927SOL    HW260679   1.234  12.633   3.097
52928SOL     OW60680   6.972   7.981   2.938
52928SOL    HW160681   6.966   8.070   2.903
52928SOL    HW260682   6.946   7.925   2.865
52929SOL     OW60683   3.333   5.847   5.556
52929SOL    HW160684   3.301   5.936   5.572
52929SOL    HW260685   3.424   5.858   5.527
52930SOL     OW60686   9.710   5.021   8.542
52930SOL    HW160687   9.681   5.078   8.613
52930SOL    HW260688   9.666   5.055   8.464
52931SOL     OW60689   9.570  12.885   6.133
52931SOL    HW160690   9.604  12.820   6.071
52931SOL    HW260691   9.551  12.835   6.212
52932SOL     OW60692   0.396   9.982   5.698
52932SOL    HW160693   0.448  10.062   5.710
52932SOL    HW260694   0.369   9.984   5.607
52933SOL     OW60695   5.933   3.523   8.951
52933SOL    HW160696   5.900   3.455   9.009
52933SOL    HW260697   5.953   3.597   9.009
52934SOL     OW60698   1.226  13.234  10.443
52934SOL    HW160699   1.188  13.283  10.370
52934SOL    HW260700   1.295  13.182  10.403
52935SOL     OW60701  13.533   1.934   4.605
52935SOL    HW160702  13.491   2.019   4.602
52935SOL    HW260703  13.602   1.939   4.538
52936SOL     OW60704   6.471   8.381   2.228
52936SOL    HW160705   6.461   8.464   2.275
52936SOL    HW260706   6.550   8.394   2.175
52937SOL     OW60707  12.754  10.369   6.843
52937SOL    HW160708  12.660  10.370   6.860
52937SOL    HW260709  12.788  10.301   6.901
52938SOL     OW60710   3.322   0.054  13.923
52938SOL    HW160711   3.291   0.116  13.857
52938SOL    HW260712   3.291  14.841  13.892
52939SOL     OW60713   1.707   2.002  12.459
52939SOL    HW160714   1.755   2.077  12.495
52939SOL    HW260715   1.617   2.033  12.450
52940SOL     OW60716   6.680   4.580   7.781
52940SOL    HW160717   6.765   4.565   7.741
52940SOL    HW260718   6.685   4.671   7.813
52941SOL     OW60719   9.136   6.744   7.357
52941SOL    HW160720   9.141   6.753   7.262
52941SOL    HW260721   9.217   6.699   7.381
52942SOL     OW60722   5.327   9.851  14.661
52942SOL    HW160723   5.333   9.946  14.663
52942SOL    HW260724   5.415   9.821  14.685
52943SOL     OW60725   8.863   3.867   0.396
52943SOL    HW160726   8.868   3.773   0.378
52943SOL    HW260727   8.912   3.879   0.477
52944SOL     OW60728   2.145   3.756   6.880
52944SOL    HW160729   2.095   3.685   6.839
52944SOL    HW260730   2.236   3.737   6.856
52945SOL     OW60731   9.599   9.108  14.055
52945SOL    HW160732   9.543   9.160  13.998
52945SOL    HW260733   9.672   9.081  13.999
52946SOL     OW60734   6.214  12.891   4.223
52946SOL    HW160735   6.238  12.973   4.266
52946SOL    HW260736   6.289  12.833   4.239
52947SOL     OW60737   9.835   5.599   4.726
52947SOL    HW160738   9.775   5.662   4.685
52947SOL    HW260739   9.914   5.605   4.672
52948SOL     OW60740   3.996  14.813  13.473
52948SOL    HW160741   4.078  14.800  13.426
52948SOL    HW260742   3.994  14.742  13.537
52949SOL     OW60743  13.369   8.308   9.906
52949SOL    HW160744  13.430   8.249   9.862
52949SOL    HW260745  13.384   8.393   9.865
52950SOL     OW60746   3.081   8.207   2.889
52950SOL    HW160747   3.124   8.273   2.835
52950SOL    HW260748   3.051   8.141   2.827
52951SOL     OW60749   0.069   5.505   3.202
52951SOL    HW160750   0.152   5.525   3.160
52951SOL    HW260751   0.029   5.591   3.218
52952SOL     OW60752   1.515   7.317   0.733
52952SOL    HW160753   1.526   7.357   0.819
52952SOL    HW260754   1.539   7.385   0.671
52953SOL     OW60755   6.959  13.276   6.304
52953SOL    HW160756   6.993  13.328   6.376
52953SOL    HW260757   6.864  13.289   6.308
52954SOL     OW60758   2.219   3.916   8.616
52954SOL    HW160759   2.169   3.997   8.622
52954SOL    HW260760   2.208   3.873   8.701
52955SOL     OW60761   9.960  12.603  11.160
52955SOL    HW160762   9.940  12.521  11.204
52955SOL    HW260763   9.875  12.633  11.127
52956SOL     OW60764  14.211   3.051   6.252
52956SOL    HW160765  14.145   3.036   6.184
52956SOL    HW260766  14.226   2.965   6.291
52957SOL     OW60767   1.668   1.550  13.671
52957SOL    HW160768   1.729   1.589  13.608
52957SOL    HW260769   1.587   1.600  13.659
52958SOL     OW60770   6.745   9.044   2.504
52958SOL    HW160771   6.710   9.132   2.517
52958SOL    HW260772   6.667   8.989   2.496
52959SOL     OW60773   5.171   6.275   4.762
52959SOL    HW160774   5.146   6.355   4.716
52959SOL    HW260775   5.172   6.300   4.854
52960SOL     OW60776   7.286   1.537  12.148
52960SOL    HW160777   7.338   1.486  12.086
52960SOL    HW260778   7.196   1.510  12.132
52961SOL     OW60779  11.698  13.248  14.675
52961SOL    HW160780  11.659  13.226  14.591
52961SOL    HW260781  11.779  13.295  14.653
52962SOL     OW60782   1.940   4.501   1.033
52962SOL    HW160783   1.884   4.515   1.110
52962SOL    HW260784   1.891   4.440   0.979
52963SOL     OW60785  13.130  11.746  11.083
52963SOL    HW160786  13.117  11.716  11.173
52963SOL    HW260787  13.225  11.753  11.074
52964SOL     OW60788   0.086  13.694   0.095
52964SOL    HW160789   0.151  13.741   0.147
52964SOL    HW260790   0.117  13.705   0.004
52965SOL     OW60791   3.268   7.674   6.245
52965SOL    HW160792   3.221   7.608   6.296
52965SOL    HW260793   3.247   7.757   6.287
52966SOL     OW60794   2.952   8.992   8.789
52966SOL    HW160795   3.017   8.938   8.745
52966SOL    HW260796   2.890   8.929   8.826
52967SOL     OW60797   1.912   5.187   8.377
52967SOL    HW160798   1.864   5.157   8.299
52967SOL    HW260799   1.895   5.120   8.443
52968SOL     OW60800   3.426   4.259   3.688
52968SOL    HW160801   3.363   4.201   3.644
52968SOL    HW260802   3.379   4.341   3.699
52969SOL     OW60803   9.308  12.130   8.223
52969SOL    HW160804   9.369  12.065   8.187
52969SOL    HW260805   9.235  12.078   8.258
52970SOL     OW60806   2.330   5.760  14.209
52970SOL    HW160807   2.269   5.803  14.270
52970SOL    HW260808   2.313   5.667  14.219
52971SOL     OW60809  10.540  13.049   5.404
52971SOL    HW160810  10.536  12.960   5.440
52971SOL    HW260811  10.509  13.104   5.476
52972SOL     OW60812   3.816   4.378  12.425
52972SOL    HW160813   3.798   4.284  12.435
52972SOL    HW260814   3.910   4.382  12.408
52973SOL     OW60815   3.903   7.932  10.239
52973SOL    HW160816   3.979   7.965  10.288
52973SOL    HW260817   3.849   7.889  10.305
52974SOL     OW60818  10.907   1.265   1.233
52974SOL    HW160819  10.906   1.281   1.138
52974SOL    HW260820  10.895   1.352   1.272
52975SOL     OW60821  12.344  13.464   0.828
52975SOL    HW160822  12.300  13.510   0.757
52975SOL    HW260823  12.273  13.419   0.875
52976SOL     OW60824   4.866   8.183   8.837
52976SOL    HW160825   4.887   8.132   8.916
52976SOL    HW260826   4.949   8.193   8.792
52977SOL     OW60827   7.454   0.080  10.768
52977SOL    HW160828   7.455   0.034  10.684
52977SOL    HW260829   7.363   0.074  10.798
52978SOL     OW60830  11.718  10.208   6.344
52978SOL    HW160831  11.688  10.202   6.435
52978SOL    HW260832  11.812  10.222   6.351
52979SOL     OW60833  12.606   6.546   2.950
52979SOL    HW160834  12.616   6.526   2.857
52979SOL    HW260835  12.694   6.534   2.987
52980SOL     OW60836   4.397  14.601   9.701
52980SOL    HW160837   4.421  14.634   9.788
52980SOL    HW260838   4.340  14.526   9.719
52981SOL     OW60839   3.309   3.198   5.679
52981SOL    HW160840   3.287   3.228   5.591
52981SOL    HW260841   3.388   3.146   5.667
52982SOL     OW60842   7.498   3.985   3.784
52982SOL    HW160843   7.486   4.046   3.857
52982SOL    HW260844   7.436   4.016   3.718
52983SOL     OW60845  11.471   9.043   3.719
52983SOL    HW160846  11.389   9.091   3.735
52983SOL    HW260847  11.493   9.063   3.628
52984SOL     OW60848   5.935   8.128   4.394
52984SOL    HW160849   5.911   8.036   4.390
52984SOL    HW260850   5.955   8.152   4.304
52985SOL     OW60851  12.208   7.958   6.433
52985SOL    HW160852  12.130   7.972   6.380
52985SOL    HW260853  12.241   8.046   6.451
52986SOL     OW60854  14.738  14.231  12.227
52986SOL    HW160855  14.654  14.265  12.257
52986SOL    HW260856  14.773  14.184  12.302
52987SOL     OW60857  10.123  12.170   8.095
52987SOL    HW160858  10.136  12.263   8.110
52987SOL    HW260859  10.057  12.165   8.025
52988SOL     OW60860   1.048   4.491   8.771
52988SOL    HW160861   1.042   4.462   8.680
52988SOL    HW260862   1.024   4.413   8.822
52989SOL     OW60863  13.504   7.756   3.978
52989SOL    HW160864  13.410   7.761   3.995
52989SOL    HW260865  13.537   7.842   4.000
52990SOL     OW60866  12.401  13.045   2.011
52990SOL    HW160867  12.491  13.016   1.996
52990SOL    HW260868  12.382  13.018   2.101
52991SOL     OW60869  10.258   0.912   5.738
52991SOL    HW160870  10.246   0.977   5.669
52991SOL    HW260871  10.246   0.828   5.693
52992SOL     OW60872  10.401   6.338  11.905
52992SOL    HW160873  10.339   6.410  11.903
52992SOL    HW260874  10.354   6.264  11.866
52993SOL     OW60875  13.762   1.649   2.650
52993SOL    HW160876  13.705   1.667   2.724
52993SOL    HW260877  13.850   1.649   2.687
52994SOL     OW60878   5.943   7.896   8.629
52994SOL    HW160879   6.036   7.871   8.630
52994SOL    HW260880   5.934   7.951   8.551
52995SOL     OW60881   9.181   9.098  12.041
52995SOL    HW160882   9.249   9.107  11.975
52995SOL    HW260883   9.151   9.188  12.056
52996SOL     OW60884  13.177  13.450   4.762
52996SOL    HW160885  13.250  13.477   4.818
52996SOL    HW260886  13.206  13.368   4.723
52997SOL     OW60887   0.442   0.014   5.317
52997SOL    HW160888   0.369  14.845   5.271
52997SOL    HW260889   0.511  14.820   5.316
52998SOL     OW60890   4.017   3.418  12.513
52998SOL    HW160891   3.966   3.338  12.504
52998SOL    HW260892   3.958   3.488  12.484
52999SOL     OW60893   6.637   8.761   8.171
52999SOL    HW160894   6.711   8.700   8.161
52999SOL    HW260895   6.623   8.795   8.082
53000SOL     OW60896   6.383  10.503   4.539
53000SOL    HW160897   6.331  10.467   4.611
53000SOL    HW260898   6.423  10.582   4.575
53001SOL     OW60899  13.008   5.976   7.671
53001SOL    HW160900  13.021   5.884   7.649
53001SOL    HW260901  12.984   6.017   7.588
53002SOL     OW60902  10.559   0.582   9.346
53002SOL    HW160903  10.593   0.613   9.262
53002SOL    HW260904  10.595   0.494   9.356
53003SOL     OW60905  12.763  10.408   7.545
53003SOL    HW160906  12.753  10.385   7.452
53003SOL    HW260907  12.854  10.388   7.564
53004SOL     OW60908   1.104   6.799  13.793
53004SOL    HW160909   1.127   6.738  13.863
53004SOL    HW260910   1.070   6.876  13.839
53005SOL     OW60911  12.763   7.821  12.809
53005SOL    HW160912  12.723   7.794  12.892
53005SOL    HW260913  12.802   7.741  12.774
53006SOL     OW60914  11.648   4.336   6.701
53006SOL    HW160915  11.674   4.370   6.786
53006SOL    HW260916  11.586   4.266   6.720
53007SOL     OW60917  12.705  10.622  14.488
53007SOL    HW160918  12.625  10.636  14.437
53007SOL    HW260919  12.770  10.594  14.424
53008SOL     OW60920   4.776  12.400   4.650
53008SOL    HW160921   4.762  12.375   4.559
53008SOL    HW260922   4.764  12.495   4.650
53009SOL     OW60923   2.877   9.652  11.601
53009SOL    HW160924   2.800   9.686  11.648
53009SOL    HW260925   2.892   9.715  11.531
53010SOL     OW60926  12.983  14.321  13.272
53010SOL    HW160927  12.909  14.342  13.329
53010SOL    HW260928  13.003  14.403  13.228
53011SOL     OW60929  12.235   8.491   7.353
53011SOL    HW160930  12.258   8.440   7.276
53011SOL    HW260931  12.234   8.428   7.425
53012SOL     OW60932   4.634   9.840   0.337
53012SOL    HW160933   4.686   9.762   0.318
53012SOL    HW260934   4.617   9.879   0.252
53013SOL     OW60935   6.233  10.021   8.772
53013SOL    HW160936   6.209  10.100   8.821
53013SOL    HW260937   6.211   9.949   8.831
53014SOL     OW60938   5.327  13.700  12.830
53014SOL    HW160939   5.374  13.783  12.845
53014SOL    HW260940   5.362  13.640  12.896
53015SOL     OW60941   0.671  13.105   1.083
53015SOL    HW160942   0.740  13.089   1.148
53015SOL    HW260943   0.677  13.199   1.065
53016SOL     OW60944   2.905   1.754  11.262
53016SOL    HW160945   2.841   1.787  11.325
53016SOL    HW260946   2.953   1.831  11.233
53017SOL     OW60947   4.546  10.813   3.682
53017SOL    HW160948   4.479  10.875   3.656
53017SOL    HW260949   4.623  10.867   3.700
53018SOL     OW60950  10.748  12.179   9.645
53018SOL    HW160951  10.737  12.199   9.738
53018SOL    HW260952  10.664  12.143   9.618
53019SOL     OW60953  14.552   7.821  12.100
53019SOL    HW160954  14.593   7.907  12.113
53019SOL    HW260955  14.600   7.783  12.026
53020SOL     OW60956   6.516   1.781   3.463
53020SOL    HW160957   6.538   1.870   3.491
53020SOL    HW260958   6.582   1.726   3.505
53021SOL     OW60959   1.303  14.533   6.014
53021SOL    HW160960   1.332  14.453   5.970
53021SOL    HW260961   1.383  14.586   6.021
53022SOL     OW60962  11.178   3.002  11.095
53022SOL    HW160963  11.250   2.975  11.038
53022SOL    HW260964  11.098   2.978  11.047
53023SOL     OW60965   8.122  14.078   6.226
53023SOL    HW160966   8.052  14.067   6.162
53023SOL    HW260967   8.199  14.098   6.173
53024SOL     OW60968   7.571   6.246   1.672
53024SOL    HW160969   7.581   6.198   1.754
53024SOL    HW260970   7.488   6.216   1.635
53025SOL     OW60971  11.826   1.874  11.438
53025SOL    HW160972  11.913   1.914  11.449
53025SOL    HW260973  11.780   1.933  11.379
53026SOL     OW60974   9.571   6.976   4.895
53026SOL    HW160975   9.654   6.932   4.879
53026SOL    HW260976   9.517   6.911   4.940
53027SOL     OW60977  14.799  11.223   9.917
53027SOL    HW160978   0.014  11.186   9.932
53027SOL    HW260979  14.745  11.147   9.896
53028SOL     OW60980   4.054   0.608  10.054
53028SOL    HW160981   3.991   0.658  10.002
53028SOL    HW260982   4.110   0.674  10.093
53029SOL     OW60983   0.555   9.247   1.937
53029SOL    HW160984   0.606   9.236   1.857
53029SOL    HW260985   0.594   9.186   1.999
53030SOL     OW60986   4.507   6.603   3.233
53030SOL    HW160987   4.590   6.613   3.186
53030SOL    HW260988   4.522   6.529   3.292
53031SOL     OW60989   5.756  12.093   5.473
53031SOL    HW160990   5.827  12.156   5.458
53031SOL    HW260991   5.794  12.008   5.450
53032SOL     OW60992  11.435  14.187   7.900
53032SOL    HW160993  11.410  14.110   7.849
53032SOL    HW260994  11.476  14.151   7.979
53033SOL     OW60995  10.998  13.512  12.476
53033SOL    HW160996  11.022  13.499  12.568
53033SOL    HW260997  11.067  13.569  12.441
53034SOL     OW60998  12.324   9.356   4.436
53034SOL    HW160999  12.287   9.279   4.391
53034SOL    HW261000  12.249   9.398   4.476
53035SOL     OW61001  10.922   4.642  14.038
53035SOL    HW161002  10.895   4.580  13.971
53035SOL    HW261003  10.857   4.631  14.108
53036SOL     OW61004   3.406   0.419   3.615
53036SOL    HW161005   3.325   0.383   3.651
53036SOL    HW261006   3.393   0.418   3.520
53037SOL     OW61007   3.093   2.466  10.597
53037SOL    HW161008   3.182   2.464  10.562
53037SOL    HW261009   3.051   2.388  10.560
53038SOL     OW61010   7.667   0.066   0.237
53038SOL    HW161011   7.759   0.049   0.253
53038SOL    HW261012   7.664   0.155   0.201
53039SOL     OW61013   7.317   3.621   8.029
53039SOL    HW161014   7.293   3.529   8.026
53039SOL    HW261015   7.373   3.634   7.952
53040SOL     OW61016   5.311   5.237   1.056
53040SOL    HW161017   5.264   5.291   0.992
53040SOL    HW261018   5.307   5.287   1.138
53041SOL     OW61019   8.337  11.742   0.092
53041SOL    HW161020   8.252  11.773   0.059
53041SOL    HW261021   8.383  11.821   0.119
53042SOL     OW61022   1.893   3.784  11.306
53042SOL    HW161023   1.965   3.809  11.247
53042SOL    HW261024   1.850   3.711  11.262
53043SOL     OW61025   8.196  11.814   4.698
53043SOL    HW161026   8.189  11.727   4.735
53043SOL    HW261027   8.148  11.870   4.759
53044SOL     OW61028   2.902   4.042   3.542
53044SOL    HW161029   2.822   4.080   3.506
53044SOL    HW261030   2.875   3.956   3.576
53045SOL     OW61031   3.724   7.153  13.694
53045SOL    HW161032   3.661   7.094  13.652
53045SOL    HW261033   3.747   7.216  13.625
53046SOL     OW61034   7.062   6.639  12.497
53046SOL    HW161035   7.038   6.726  12.530
53046SOL    HW261036   6.980   6.603  12.463
53047SOL     OW61037   3.560   5.249   9.923
53047SOL    HW161038   3.586   5.249  10.016
53047SOL    HW261039   3.590   5.333   9.889
53048SOL     OW61040   1.945   7.528   2.253
53048SOL    HW161041   1.984   7.613   2.272
53048SOL    HW261042   1.899   7.503   2.333
53049SOL     OW61043   2.076   1.943  10.427
53049SOL    HW161044   1.993   1.954  10.473
53049SOL    HW261045   2.141   1.984  10.484
53050SOL     OW61046   1.169   2.451  10.285
53050SOL    HW161047   1.127   2.516  10.342
53050SOL    HW261048   1.147   2.367  10.324
53051SOL     OW61049   0.606   8.615  11.736
53051SOL    HW161050   0.651   8.555  11.795
53051SOL    HW261051   0.676   8.670  11.700
53052SOL     OW61052  11.123   3.390   3.995
53052SOL    HW161053  11.199   3.347   4.035
53052SOL    HW261054  11.072   3.319   3.957
53053SOL     OW61055   8.753   2.933   6.054
53053SOL    HW161056   8.735   3.020   6.090
53053SOL    HW261057   8.835   2.944   6.006
53054SOL     OW61058   2.066   2.322  10.745
53054SOL    HW161059   2.092   2.233  10.770
53054SOL    HW261060   1.990   2.309  10.688
53055SOL     OW61061   4.824  13.468   2.640
53055SOL    HW161062   4.831  13.385   2.688
53055SOL    HW261063   4.842  13.444   2.549
53056SOL     OW61064   0.185  11.178   5.353
53056SOL    HW161065   0.168  11.126   5.431
53056SOL    HW261066   0.279  11.170   5.338
53057SOL     OW61067   8.693   5.862   9.512
53057SOL    HW161068   8.627   5.931   9.501
53057SOL    HW261069   8.776   5.909   9.513
53058SOL     OW61070   1.327   7.543   7.380
53058SOL    HW161071   1.361   7.563   7.467
53058SOL    HW261072   1.266   7.615   7.361
53059SOL     OW61073  11.274   0.964   5.087
53059SOL    HW161074  11.241   0.911   5.160
53059SOL    HW261075  11.202   0.964   5.023
53060SOL     OW61076   4.285  10.902  10.300
53060SOL    HW161077   4.231  10.956  10.358
53060SOL    HW261078   4.367  10.950  10.291
53061SOL     OW61079   4.675   4.098   1.357
53061SOL    HW161080   4.686   4.162   1.287
53061SOL    HW261081   4.606   4.040   1.326
53062SOL     OW61082   2.782   8.926   6.382
53062SOL    HW161083   2.729   8.851   6.409
53062SOL    HW261084   2.864   8.915   6.431
53063SOL     OW61085   3.602   3.784  12.307
53063SOL    HW161086   3.510   3.776  12.285
53063SOL    HW261087   3.647   3.791  12.223
53064SOL     OW61088   7.373  12.930   1.570
53064SOL    HW161089   7.407  12.906   1.656
53064SOL    HW261090   7.445  12.910   1.510
53065SOL     OW61091   4.822   1.431   0.609
53065SOL    HW161092   4.841   1.366   0.677
53065SOL    HW261093   4.898   1.489   0.609
53066SOL     OW61094   1.581   1.933   3.697
53066SOL    HW161095   1.539   1.982   3.627
53066SOL    HW261096   1.515   1.929   3.767
53067SOL     OW61097  11.761  10.720   8.178
53067SOL    HW161098  11.832  10.657   8.161
53067SOL    HW261099  11.807  10.803   8.192
53068SOL     OW61100   3.467   8.540   6.639
53068SOL    HW161101   3.543   8.522   6.585
53068SOL    HW261102   3.452   8.459   6.687
53069SOL     OW61103   4.504  11.621  12.923
53069SOL    HW161104   4.443  11.640  12.851
53069SOL    HW261105   4.590  11.616  12.881
53070SOL     OW61106   9.705   7.232  12.644
53070SOL    HW161107   9.677   7.311  12.597
53070SOL    HW261108   9.779   7.261  12.697
53071SOL     OW61109   3.000  10.435  12.653
53071SOL    HW161110   2.986  10.462  12.743
53071SOL    HW261111   2.929  10.476  12.604
53072SOL     OW61112  10.196   8.301   0.837
53072SOL    HW161113  10.267   8.255   0.882
53072SOL    HW261114  10.236   8.334   0.757
53073SOL     OW61115   0.832  14.745   9.116
53073SOL    HW161116   0.849  14.719   9.206
53073SOL    HW261117   0.746  14.708   9.096
53074SOL     OW61118   4.090   6.815   9.989
53074SOL    HW161119   4.126   6.730   9.964
53074SOL    HW261120   4.031   6.795  10.062
53075SOL     OW61121   0.592   4.825  13.232
53075SOL    HW161122   0.653   4.770  13.184
53075SOL    HW261123   0.513   4.827  13.177
53076SOL     OW61124  10.320  14.051  12.145
53076SOL    HW161125  10.274  14.080  12.066
53076SOL    HW261126  10.409  14.034  12.117
53077SOL     OW61127   2.285   2.700   5.001
53077SOL    HW161128   2.195   2.731   5.012
53077SOL    HW261129   2.331   2.736   5.077
53078SOL     OW61130   3.223  14.323   8.118
53078SOL    HW161131   3.236  14.230   8.137
53078SOL    HW261132   3.205  14.363   8.203
53079SOL     OW61133   2.013   4.915   7.393
53079SOL    HW161134   1.929   4.870   7.397
53079SOL    HW261135   2.030   4.942   7.483
53080SOL     OW61136   8.915   2.874  14.730
53080SOL    HW161137   8.957   2.930  14.665
53080SOL    HW261138   8.895   2.933  14.803
53081SOL     OW61139   7.390   0.547   8.322
53081SOL    HW161140   7.461   0.576   8.265
53081SOL    HW261141   7.432   0.487   8.384
53082SOL     OW61142   6.885  12.790   6.382
53082SOL    HW161143   6.947  12.728   6.421
53082SOL    HW261144   6.940  12.859   6.345
53083SOL     OW61145  11.800   3.239  13.632
53083SOL    HW161146  11.725   3.181  13.622
53083SOL    HW261147  11.876   3.181  13.622
53084SOL     OW61148   1.272  13.539   6.665
53084SOL    HW161149   1.195  13.587   6.695
53084SOL    HW261150   1.237  13.462   6.621
53085SOL     OW61151   3.149   4.689   0.070
53085SOL    HW161152   3.209   4.639   0.015
53085SOL    HW261153   3.068   4.639   0.068
53086SOL     OW61154   0.208  10.390   7.057
53086SOL    HW161155   0.152  10.401   6.980
53086SOL    HW261156   0.186  10.303   7.090
53087SOL     OW61157   4.694  14.192   3.362
53087SOL    HW161158   4.621  14.130   3.370
53087SOL    HW261159   4.769  14.136   3.342
53088SOL     OW61160  14.045   7.093  14.399
53088SOL    HW161161  14.114   7.062  14.457
53088SOL    HW261162  14.004   7.013  14.365
53089SOL     OW61163   7.601   7.676   0.440
53089SOL    HW161164   7.611   7.666   0.346
53089SOL    HW261165   7.640   7.761   0.460
53090SOL     OW61166   3.315  11.450   9.538
53090SOL    HW161167   3.354  11.366   9.512
53090SOL    HW261168   3.361  11.515   9.485
53091SOL     OW61169   0.599   5.487  13.922
53091SOL    HW161170   0.526   5.444  13.877
53091SOL    HW261171   0.637   5.544  13.855
53092SOL     OW61172   8.529  11.868  11.922
53092SOL    HW161173   8.451  11.834  11.877
53092SOL    HW261174   8.549  11.801  11.988
53093SOL     OW61175   7.070   4.374  10.663
53093SOL    HW161176   7.057   4.348  10.754
53093SOL    HW261177   7.069   4.469  10.665
53094SOL     OW61178  12.027   4.686   7.914
53094SOL    HW161179  12.052   4.726   7.831
53094SOL    HW261180  12.095   4.712   7.976
53095SOL     OW61181  10.904   8.033   2.503
53095SOL    HW161182  10.940   8.113   2.465
53095SOL    HW261183  10.830   8.010   2.447
53096SOL     OW61184  13.075  12.663  12.446
53096SOL    HW161185  13.026  12.595  12.400
53096SOL    HW261186  13.062  12.643  12.539
53097SOL     OW61187   8.484   5.620  13.424
53097SOL    HW161188   8.570   5.661  13.413
53097SOL    HW261189   8.457   5.598  13.335
53098SOL     OW61190  13.379   0.051  14.750
53098SOL    HW161191  13.379   0.138  14.711
53098SOL    HW261192  13.466   0.042  14.789
53099SOL     OW61193   0.483   7.267  13.021
53099SOL    HW161194   0.507   7.332  13.087
53099SOL    HW261195   0.387   7.273  13.016
53100SOL     OW61196  10.292   2.420  10.756
53100SOL    HW161197  10.267   2.470  10.678
53100SOL    HW261198  10.274   2.329  10.734
53101SOL     OW61199   3.196   5.246  14.632
53101SOL    HW161200   3.151   5.234  14.716
53101SOL    HW261201   3.145   5.313  14.587
53102SOL     OW61202  12.896   8.215  10.044
53102SOL    HW161203  12.979   8.245  10.080
53102SOL    HW261204  12.835   8.287  10.059
53103SOL     OW61205   0.371   5.441   0.819
53103SOL    HW161206   0.439   5.458   0.753
53103SOL    HW261207   0.292   5.483   0.783
53104SOL     OW61208   9.135   5.116   5.590
53104SOL    HW161209   9.136   5.108   5.495
53104SOL    HW261210   9.205   5.059   5.620
53105SOL     OW61211  11.683   1.222   1.558
53105SOL    HW161212  11.723   1.136   1.570
53105SOL    HW261213  11.668   1.229   1.464
53106SOL     OW61214   4.868   5.957   0.701
53106SOL    HW161215   4.902   5.906   0.628
53106SOL    HW261216   4.794   5.906   0.734
53107SOL     OW61217   1.498   2.949   5.228
53107SOL    HW161218   1.510   3.032   5.273
53107SOL    HW261219   1.574   2.897   5.252
53108SOL     OW61220   0.197  11.217   3.828
53108SOL    HW161221   0.151  11.154   3.883
53108SOL    HW261222   0.261  11.165   3.780
53109SOL     OW61223   8.248   9.441   3.711
53109SOL    HW161224   8.226   9.378   3.642
53109SOL    HW261225   8.339   9.420   3.733
53110SOL     OW61226  13.377   3.989   0.618
53110SOL    HW161227  13.344   3.902   0.594
53110SOL    HW261228  13.425   4.019   0.541
53111SOL     OW61229   8.779  10.582   1.576
53111SOL    HW161230   8.791  10.632   1.495
53111SOL    HW261231   8.815  10.637   1.645
53112SOL     OW61232  11.664  10.086  13.839
53112SOL    HW161233  11.717  10.025  13.890
53112SOL    HW261234  11.617  10.137  13.904
53113SOL     OW61235   2.776  12.337   5.304
53113SOL    HW161236   2.696  12.313   5.352
53113SOL    HW261237   2.743  12.375   5.222
53114SOL     OW61238  11.048  11.931   2.932
53114SOL    HW161239  11.010  11.986   3.001
53114SOL    HW261240  11.142  11.946   2.940
53115SOL     OW61241   1.134  13.094   5.754
53115SOL    HW161242   1.164  13.160   5.816
53115SOL    HW261243   1.038  13.100   5.756
53116SOL     OW61244  10.768  12.511   3.034
53116SOL    HW161245  10.740  12.497   3.125
53116SOL    HW261246  10.851  12.462   3.027
53117SOL     OW61247   0.173  13.253  10.680
53117SOL    HW161248   0.121  13.200  10.619
53117SOL    HW261249   0.210  13.323  10.626
53118SOL     OW61250   5.150   7.471   2.522
53118SOL    HW161251   5.132   7.556   2.563
53118SOL    HW261252   5.241   7.453   2.543
53119SOL     OW61253   5.723   3.704   6.934
53119SOL    HW161254   5.817   3.692   6.918
53119SOL    HW261255   5.707   3.658   7.016
53120SOL     OW61256  11.992   5.680   7.741
53120SOL    HW161257  12.041   5.753   7.779
53120SOL    HW261258  12.050   5.605   7.749
53121SOL     OW61259   8.534   1.510   0.466
53121SOL    HW161260   8.550   1.576   0.534
53121SOL    HW261261   8.440   1.495   0.467
53122SOL     OW61262  11.950   5.332   0.608
53122SOL    HW161263  12.004   5.345   0.530
53122SOL    HW261264  12.001   5.274   0.663
53123SOL     OW61265   1.875   4.748  12.536
53123SOL    HW161266   1.942   4.699  12.487
53123SOL    HW261267   1.911   4.755  12.624
53124SOL     OW61268  14.447   4.013   4.386
53124SOL    HW161269  14.474   3.922   4.404
53124SOL    HW261270  14.361   4.021   4.427
53125SOL     OW61271  12.856   4.216  12.162
53125SOL    HW161272  12.802   4.171  12.226
53125SOL    HW261273  12.801   4.287  12.129
53126SOL     OW61274   7.039   2.979   6.077
53126SOL    HW161275   7.086   2.896   6.069
53126SOL    HW261276   7.018   3.003   5.986
53127SOL     OW61277   3.734   8.987   8.642
53127SOL    HW161278   3.715   8.893   8.638
53127SOL    HW261279   3.811   8.998   8.586
53128SOL     OW61280   7.670   0.796   4.989
53128SOL    HW161281   7.695   0.706   5.004
53128SOL    HW261282   7.734   0.848   5.037
53129SOL     OW61283  14.131  13.132  14.670
53129SOL    HW161284  14.148  13.057  14.613
53129SOL    HW261285  14.199  13.127  14.737
53130SOL     OW61286   8.556  11.650  12.110
53130SOL    HW161287   8.632  11.617  12.062
53130SOL    HW261288   8.583  11.649  12.201
53131SOL     OW61289  13.937  13.043   7.026
53131SOL    HW161290  13.940  13.137   7.011
53131SOL    HW261291  13.934  13.005   6.938
53132SOL     OW61292   8.870   4.698   2.122
53132SOL    HW161293   8.953   4.743   2.141
53132SOL    HW261294   8.885   4.655   2.038
53133SOL     OW61295   1.000  12.997   3.579
53133SOL    HW161296   0.975  13.073   3.526
53133SOL    HW261297   0.917  12.958   3.605
53134SOL     OW61298   9.228  11.325  11.539
53134SOL    HW161299   9.193  11.300  11.453
53134SOL    HW261300   9.304  11.267  11.551
53135SOL     OW61301   1.806  11.332   7.034
53135SOL    HW161302   1.750  11.362   6.963
53135SOL    HW261303   1.868  11.271   6.993
53136SOL     OW61304   5.592  14.785   3.171
53136SOL    HW161305   5.558  14.782   3.260
53136SOL    HW261306   5.531  14.841   3.123
53137SOL     OW61307   5.017   0.330  12.483
53137SOL    HW161308   4.979   0.364  12.402
53137SOL    HW261309   5.028   0.236  12.467
53138SOL     OW61310   1.411   9.475   1.754
53138SOL    HW161311   1.414   9.379   1.746
53138SOL    HW261312   1.489   9.505   1.708
53139SOL     OW61313  14.019   3.434   7.339
53139SOL    HW161314  14.095   3.421   7.396
53139SOL    HW261315  13.985   3.520   7.364
53140SOL     OW61316  13.329   7.025  13.566
53140SOL    HW161317  13.336   7.068  13.651
53140SOL    HW261318  13.418   7.021  13.534
53141SOL     OW61319  11.010  11.335   1.468
53141SOL    HW161320  10.975  11.353   1.556
53141SOL    HW261321  10.950  11.379   1.408
53142SOL     OW61322  13.383   4.822  13.157
53142SOL    HW161323  13.369   4.791  13.247
53142SOL    HW261324  13.465   4.781  13.130
53143SOL     OW61325   4.110   0.234   2.823
53143SOL    HW161326   4.021   0.201   2.808
53143SOL    HW261327   4.104   0.328   2.804
53144SOL     OW61328  14.486   7.095  12.896
53144SOL    HW161329  14.421   7.024  12.897
53144SOL    HW261330  14.526   7.089  12.809
53145SOL     OW61331  14.682   4.425   6.080
53145SOL    HW161332  14.608   4.426   6.019
53145SOL    HW261333  14.738   4.497   6.050
53146SOL     OW61334   0.770   7.977   5.478
53146SOL    HW161335   0.741   8.034   5.550
53146SOL    HW261336   0.710   7.997   5.406
53147SOL     OW61337  11.051   2.663  10.016
53147SOL    HW161338  10.977   2.724  10.014
53147SOL    HW261339  11.028   2.599  10.084
53148SOL     OW61340   0.015   3.038  11.765
53148SOL    HW161341  14.839   3.055  11.845
53148SOL    HW261342  14.824   2.994  11.708
53149SOL     OW61343   0.232   9.902   5.926
53149SOL    HW161344   0.274   9.950   5.854
53149SOL    HW261345   0.209   9.817   5.888
53150SOL     OW61346  11.262   6.417  10.710
53150SOL    HW161347  11.268   6.367  10.629
53150SOL    HW261348  11.330   6.382  10.766
53151SOL     OW61349  13.716   7.004   4.239
53151SOL    HW161350  13.645   7.028   4.179
53151SOL    HW261351  13.675   6.941   4.299
53152SOL     OW61352   7.740   9.503   4.019
53152SOL    HW161353   7.779   9.566   3.958
53152SOL    HW261354   7.735   9.421   3.969
53153SOL     OW61355  13.882   4.796   6.931
53153SOL    HW161356  13.892   4.850   6.853
53153SOL    HW261357  13.965   4.748   6.938
53154SOL     OW61358  14.596  11.364   9.521
53154SOL    HW161359  14.587  11.454   9.491
53154SOL    HW261360  14.533  11.314   9.469
53155SOL     OW61361  12.021  12.299   0.463
53155SOL    HW161362  12.037  12.205   0.452
53155SOL    HW261363  12.042  12.315   0.556
53156SOL     OW61364  12.313   4.579  14.289
53156SOL    HW161365  12.393   4.611  14.248
53156SOL    HW261366  12.267   4.533  14.219
53157SOL     OW61367   0.613   5.071  10.076
53157SOL    HW161368   0.675   5.139  10.106
53157SOL    HW261369   0.650   4.989  10.110
53158SOL     OW61370  11.030   9.653  10.873
53158SOL    HW161371  10.944   9.662  10.831
53158SOL    HW261372  11.011   9.658  10.967
53159SOL     OW61373  10.636   6.436   4.274
53159SOL    HW161374  10.612   6.345   4.260
53159SOL    HW261375  10.645   6.444   4.369
53160SOL     OW61376   9.064  10.467   5.405
53160SOL    HW161377   9.005  10.491   5.477
53160SOL    HW261378   9.076  10.549   5.356
53161SOL     OW61379   0.390  11.244   4.996
53161SOL    HW161380   0.422  11.271   5.082
53161SOL    HW261381   0.464  11.197   4.957
53162SOL     OW61382   9.227   8.973   5.852
53162SOL    HW161383   9.191   8.937   5.933
53162SOL    HW261384   9.151   8.986   5.796
53163SOL     OW61385   8.229   8.293   1.907
53163SOL    HW161386   8.297   8.277   1.842
53163SOL    HW261387   8.239   8.222   1.970
53164SOL     OW61388   3.924   8.810   5.160
53164SOL    HW161389   3.860   8.801   5.089
53164SOL    HW261390   3.928   8.723   5.200
53165SOL     OW61391   4.522   1.003  12.795
53165SOL    HW161392   4.483   0.989  12.709
53165SOL    HW261393   4.522   1.098  12.807
53166SOL     OW61394  13.721  12.402   4.719
53166SOL    HW161395  13.678  12.354   4.648
53166SOL    HW261396  13.702  12.352   4.798
53167SOL     OW61397   5.855  10.160   6.481
53167SOL    HW161398   5.827  10.156   6.572
53167SOL    HW261399   5.842  10.072   6.447
53168SOL     OW61400   0.391   8.145  13.328
53168SOL    HW161401   0.324   8.212  13.316
53168SOL    HW261402   0.345   8.072  13.369
53169SOL     OW61403   2.629   5.423   8.243
53169SOL    HW161404   2.685   5.352   8.275
53169SOL    HW261405   2.546   5.380   8.222
53170SOL     OW61406   2.994   4.545  11.294
53170SOL    HW161407   3.073   4.560  11.242
53170SOL    HW261408   2.922   4.561  11.233
53171SOL     OW61409  11.097   9.104   7.917
53171SOL    HW161410  11.180   9.113   7.963
53171SOL    HW261411  11.034   9.079   7.985
53172SOL     OW61412   5.636  11.231   1.152
53172SOL    HW161413   5.632  11.156   1.093
53172SOL    HW261414   5.595  11.302   1.102
53173SOL     OW61415  11.991   7.792   5.996
53173SOL    HW161416  12.046   7.744   6.058
53173SOL    HW261417  11.919   7.825   6.050
53174SOL     OW61418   3.621   1.990   1.170
53174SOL    HW161419   3.647   2.080   1.188
53174SOL    HW261420   3.643   1.977   1.078
53175SOL     OW61421   5.516   5.338  14.001
53175SOL    HW161422   5.444   5.339  13.937
53175SOL    HW261423   5.585   5.289  13.956
53176SOL     OW61424   1.372   1.169   4.605
53176SOL    HW161425   1.429   1.092   4.597
53176SOL    HW261426   1.431   1.239   4.635
53177SOL     OW61427   4.958   7.035  14.225
53177SOL    HW161428   4.919   6.959  14.182
53177SOL    HW261429   5.052   7.020  14.219
53178SOL     OW61430  14.499   1.488   9.009
53178SOL    HW161431  14.518   1.415   9.067
53178SOL    HW261432  14.583   1.508   8.967
53179SOL     OW61433   7.714   9.528   3.103
53179SOL    HW161434   7.642   9.467   3.117
53179SOL    HW261435   7.705   9.555   3.012
53180SOL     OW61436  14.609   3.503   9.630
53180SOL    HW161437  14.695   3.472   9.659
53180SOL    HW261438  14.610   3.489   9.535
53181SOL     OW61439   1.759   4.154   1.968
53181SOL    HW161440   1.834   4.119   2.015
53181SOL    HW261441   1.694   4.084   1.971
53182SOL     OW61442   6.664   5.117   3.663
53182SOL    HW161443   6.728   5.175   3.703
53182SOL    HW261444   6.648   5.155   3.576
53183SOL     OW61445  10.892  13.595   8.663
53183SOL    HW161446  10.969  13.581   8.608
53183SOL    HW261447  10.846  13.511   8.662
53184SOL     OW61448   6.361   9.098  13.404
53184SOL    HW161449   6.430   9.150  13.444
53184SOL    HW261450   6.317   9.056  13.478
53185SOL     OW61451   1.931   4.747   4.839
53185SOL    HW161452   1.958   4.839   4.847
53185SOL    HW261453   1.861   4.749   4.773
53186SOL     OW61454   6.520   0.681   9.516
53186SOL    HW161455   6.472   0.605   9.483
53186SOL    HW261456   6.467   0.756   9.490
53187SOL     OW61457  13.838   9.377  13.717
53187SOL    HW161458  13.837   9.331  13.801
53187SOL    HW261459  13.832   9.470  13.741
53188SOL     OW61460   4.198   0.244  12.243
53188SOL    HW161461   4.185   0.317  12.182
53188SOL    HW261462   4.214   0.286  12.328
53189SOL     OW61463   0.948   6.586   4.797
53189SOL    HW161464   0.907   6.500   4.789
53189SOL    HW261465   1.042   6.568   4.792
53190SOL     OW61466   0.936   9.826  11.576
53190SOL    HW161467   0.896   9.748  11.539
53190SOL    HW261468   1.015   9.794  11.620
53191SOL     OW61469   5.613  12.530   5.891
53191SOL    HW161470   5.595  12.464   5.824
53191SOL    HW261471   5.691  12.497   5.936
53192SOL     OW61472   3.948   1.104  10.561
53192SOL    HW161473   3.930   1.124  10.652
53192SOL    HW261474   4.040   1.127  10.549
53193SOL     OW61475   0.961   2.103   1.956
53193SOL    HW161476   0.962   2.042   1.882
53193SOL    HW261477   1.026   2.169   1.932
53194SOL     OW61478   1.289   6.144  12.609
53194SOL    HW161479   1.289   6.061  12.658
53194SOL    HW261480   1.363   6.137  12.550
53195SOL     OW61481   4.501   8.944  12.263
53195SOL    HW161482   4.457   8.993  12.333
53195SOL    HW261483   4.583   8.992  12.249
53196SOL     OW61484   9.867   6.123   1.730
53196SOL    HW161485   9.842   6.191   1.667
53196SOL    HW261486   9.846   6.041   1.687
53197SOL     OW61487   6.523  12.549  11.074
53197SOL    HW161488   6.596  12.486  11.078
53197SOL    HW261489   6.449  12.499  11.041
53198SOL     OW61490  10.827   3.659   6.279
53198SOL    HW161491  10.876   3.729   6.235
53198SOL    HW261492  10.774   3.703   6.345
53199SOL     OW61493  11.993   8.261  14.342
53199SOL    HW161494  11.946   8.191  14.387
53199SOL    HW261495  12.051   8.298  14.408
53200SOL     OW61496   0.433   0.377  10.833
53200SOL    HW161497   0.456   0.469  10.824
53200SOL    HW261498   0.443   0.340  10.745
53201SOL     OW61499   2.744   7.143   4.766
53201SOL    HW161500   2.711   7.220   4.812
53201SOL    HW261501   2.839   7.148   4.774
53202SOL     OW61502   2.310   4.135  11.036
53202SOL    HW161503   2.388   4.141  10.981
53202SOL    HW261504   2.292   4.041  11.041
53203SOL     OW61505  14.808  11.771  10.984
53203SOL    HW161506   0.026  11.802  10.999
53203SOL    HW261507  14.759  11.800  11.060
53204SOL     OW61508   6.315   1.934   3.232
53204SOL    HW161509   6.342   1.964   3.318
53204SOL    HW261510   6.334   2.008   3.174
53205SOL     OW61511   5.525  10.103   3.804
53205SOL    HW161512   5.443  10.136   3.838
53205SOL    HW261513   5.505  10.014   3.774
53206SOL     OW61514  12.603   4.552   1.006
53206SOL    HW161515  12.627   4.614   1.075
53206SOL    HW261516  12.643   4.469   1.033
53207SOL     OW61517   9.729   9.517   0.755
53207SOL    HW161518   9.651   9.472   0.724
53207SOL    HW261519   9.701   9.561   0.835
53208SOL     OW61520   1.160   9.717   3.574
53208SOL    HW161521   1.233   9.660   3.598
53208SOL    HW261522   1.102   9.661   3.522
53209SOL     OW61523   3.182   1.421   9.895
53209SOL    HW161524   3.237   1.356   9.852
53209SOL    HW261525   3.205   1.414   9.988
53210SOL     OW61526   5.342  12.189   4.422
53210SOL    HW161527   5.402  12.202   4.349
53210SOL    HW261528   5.290  12.270   4.425
53211SOL     OW61529   3.025   1.758   8.737
53211SOL    HW161530   3.077   1.762   8.817
53211SOL    HW261531   2.954   1.697   8.757
53212SOL     OW61532  13.626   1.939  13.312
53212SOL    HW161533  13.677   1.882  13.369
53212SOL    HW261534  13.678   1.946  13.232
53213SOL     OW61535   2.836   0.815   0.261
53213SOL    HW161536   2.918   0.852   0.294
53213SOL    HW261537   2.857   0.724   0.239
53214SOL     OW61538  10.624   5.707  12.668
53214SOL    HW161539  10.562   5.778  12.652
53214SOL    HW261540  10.608   5.643  12.598
53215SOL     OW61541   2.573   3.407   7.612
53215SOL    HW161542   2.650   3.429   7.560
53215SOL    HW261543   2.556   3.315   7.592
53216SOL     OW61544  12.236  10.295   5.181
53216SOL    HW161545  12.225  10.341   5.098
53216SOL    HW261546  12.330  10.281   5.188
53217SOL     OW61547   9.051   6.749   2.405
53217SOL    HW161548   9.117   6.816   2.387
53217SOL    HW261549   8.967   6.794   2.390
53218SOL     OW61550   5.081   9.219  11.972
53218SOL    HW161551   5.023   9.276  12.022
53218SOL    HW261552   5.127   9.277  11.912
53219SOL     OW61553   1.177   1.333   2.800
53219SOL    HW161554   1.239   1.285   2.855
53219SOL    HW261555   1.134   1.265   2.747
53220SOL     OW61556   4.990   4.290  12.536
53220SOL    HW161557   4.909   4.250  12.568
53220SOL    HW261558   4.965   4.338  12.457
53221SOL     OW61559   9.394  13.563   3.511
53221SOL    HW161560   9.476  13.582   3.557
53221SOL    HW261561   9.339  13.521   3.577
53222SOL     OW61562  14.327   9.835  12.032
53222SOL    HW161563  14.315   9.920  11.991
53222SOL    HW261564  14.276   9.839  12.113
53223SOL     OW61565   0.517   4.965   7.775
53223SOL    HW161566   0.534   4.971   7.869
53223SOL    HW261567   0.487   5.052   7.751
53224SOL     OW61568   0.040   5.253   1.864
53224SOL    HW161569   0.118   5.199   1.852
53224SOL    HW261570  14.861   5.238   1.785
53225SOL     OW61571   0.882   4.372   4.211
53225SOL    HW161572   0.927   4.441   4.162
53225SOL    HW261573   0.946   4.344   4.277
53226SOL     OW61574  13.870   3.698  14.222
53226SOL    HW161575  13.942   3.691  14.159
53226SOL    HW261576  13.802   3.640  14.188
53227SOL     OW61577   6.243   4.073   0.833
53227SOL    HW161578   6.321   4.081   0.778
53227SOL    HW261579   6.191   4.150   0.811
53228SOL     OW61580   1.429  10.484   5.360
53228SOL    HW161581   1.460  10.545   5.293
53228SOL    HW261582   1.494  10.413   5.359
53229SOL     OW61583  12.684   5.085   9.314
53229SOL    HW161584  12.675   5.180   9.316
53229SOL    HW261585  12.716   5.062   9.401
53230SOL     OW61586  13.567  11.399  10.712
53230SOL    HW161587  13.634  11.417  10.779
53230SOL    HW261588  13.618  11.379  10.633
53231SOL     OW61589   4.247   5.203  12.147
53231SOL    HW161590   4.166   5.252  12.134
53231SOL    HW261591   4.236   5.124  12.094
53232SOL     OW61592   4.901   9.439   6.296
53232SOL    HW161593   4.832   9.497   6.263
53232SOL    HW261594   4.981   9.491   6.292
53233SOL     OW61595  10.190  13.759   7.645
53233SOL    HW161596  10.130  13.734   7.575
53233SOL    HW261597  10.269  13.787   7.600
53234SOL     OW61598   8.639  11.923  13.924
53234SOL    HW161599   8.545  11.935  13.908
53234SOL    HW261600   8.647  11.830  13.947
53235SOL     OW61601  11.918   0.795   2.730
53235SOL    HW161602  11.839   0.832   2.690
53235SOL    HW261603  11.974   0.870   2.745
53236SOL     OW61604   6.412  14.263   8.883
53236SOL    HW161605   6.484  14.207   8.912
53236SOL    HW261606   6.333  14.218   8.914
53237SOL     OW61607   9.953  10.540   6.531
53237SOL    HW161608  10.036  10.586   6.541
53237SOL    HW261609   9.975  10.461   6.482
53238SOL     OW61610  14.772  10.210   9.414
53238SOL    HW161611  14.788  10.212   9.508
53238SOL    HW261612  14.764  10.302   9.389
53239SOL     OW61613   8.623   2.336  13.733
53239SOL    HW161614   8.717   2.348  13.750
53239SOL    HW261615   8.584   2.332  13.821
53240SOL     OW61616   2.201   6.371   5.670
53240SOL    HW161617   2.108   6.387   5.653
53240SOL    HW261618   2.203   6.284   5.710
53241SOL     OW61619  12.403   8.951   9.314
53241SOL    HW161620  12.330   8.891   9.294
53241SOL    HW261621  12.361   9.035   9.330
53242SOL     OW61622   2.772  13.477   2.714
53242SOL    HW161623   2.800  13.394   2.676
53242SOL    HW261624   2.754  13.533   2.638
53243SOL     OW61625  14.751   2.044  13.879
53243SOL    HW161626  14.738   2.132  13.844
53243SOL    HW261627  14.763   2.057  13.973
53244SOL     OW61628  10.337   9.982  11.790
53244SOL    HW161629  10.293   9.940  11.716
53244SOL    HW261630  10.312  10.075  11.783
53245SOL     OW61631   3.953  11.430   8.965
53245SOL    HW161632   4.027  11.369   8.962
53245SOL    HW261633   3.990  11.512   8.999
53246SOL     OW61634   5.123   9.220   8.572
53246SOL    HW161635   5.195   9.207   8.634
53246SOL    HW261636   5.078   9.135   8.570
53247SOL     OW61637   0.722   0.577   2.577
53247SOL    HW161638   0.771   0.547   2.654
53247SOL    HW261639   0.690   0.664   2.601
53248SOL     OW61640   0.187   4.026   3.539
53248SOL    HW161641   0.127   4.008   3.612
53248SOL    HW261642   0.170   4.118   3.517
53249SOL     OW61643  10.943   9.855   6.199
53249SOL    HW161644  10.931   9.785   6.134
53249SOL    HW261645  10.910   9.933   6.155
53250SOL     OW61646   0.839   8.447   5.241
53250SOL    HW161647   0.758   8.414   5.280
53250SOL    HW261648   0.881   8.498   5.311
53251SOL     OW61649   2.018  12.800  13.432
53251SOL    HW161650   2.082  12.791  13.502
53251SOL    HW261651   2.035  12.726  13.374
53252SOL     OW61652   8.255   7.238   9.312
53252SOL    HW161653   8.218   7.195   9.235
53252SOL    HW261654   8.181   7.288   9.349
53253SOL     OW61655   3.256   8.463  13.828
53253SOL    HW161656   3.299   8.426  13.905
53253SOL    HW261657   3.266   8.557  13.838
53254SOL     OW61658   1.179   8.710   9.626
53254SOL    HW161659   1.223   8.795   9.629
53254SOL    HW261660   1.098   8.723   9.675
53255SOL     OW61661   5.973   0.403  11.810
53255SOL    HW161662   6.044   0.339  11.803
53255SOL    HW261663   5.932   0.385  11.895
53256SOL     OW61664   2.843  10.783  13.973
53256SOL    HW161665   2.763  10.742  13.941
53256SOL    HW261666   2.852  10.752  14.063
53257SOL     OW61667   0.718  13.683   0.126
53257SOL    HW161668   0.661  13.759   0.137
53257SOL    HW261669   0.794  13.701   0.181
53258SOL     OW61670   8.661   1.277   0.528
53258SOL    HW161671   8.620   1.355   0.491
53258SOL    HW261672   8.680   1.222   0.452
53259SOL     OW61673  14.794   5.495  12.267
53259SOL    HW161674  14.748   5.533  12.192
53259SOL    HW261675  14.781   5.400  12.257
53260SOL     OW61676  10.451   8.529  13.012
53260SOL    HW161677  10.538   8.512  12.976
53260SOL    HW261678  10.405   8.576  12.943
53261SOL     OW61679  14.592   9.422   3.750
53261SOL    HW161680  14.554   9.442   3.665
53261SOL    HW261681  14.605   9.507   3.793
53262SOL     OW61682  12.095   7.437   8.377
53262SOL    HW161683  12.097   7.463   8.469
53262SOL    HW261684  12.110   7.343   8.379
53263SOL     OW61685  14.081  10.567   7.359
53263SOL    HW161686  14.050  10.641   7.412
53263SOL    HW261687  14.106  10.501   7.423
53264SOL     OW61688   6.830  11.405   4.371
53264SOL    HW161689   6.819  11.319   4.331
53264SOL    HW261690   6.775  11.403   4.449
53265SOL     OW61691  13.140  13.329   9.827
53265SOL    HW161692  13.208  13.263   9.835
53265SOL    HW261693  13.150  13.384   9.905
53266SOL     OW61694  13.728   7.525  12.227
53266SOL    HW161695  13.790   7.543  12.157
53266SOL    HW261696  13.651   7.578  12.205
53267SOL     OW61697  10.126   6.279  13.594
53267SOL    HW161698  10.131   6.250  13.685
53267SOL    HW261699  10.040   6.321  13.587
53268SOL     OW61700   5.668   5.722   0.449
53268SOL    HW161701   5.698   5.805   0.485
53268SOL    HW261702   5.658   5.665   0.525
53269SOL     OW61703  10.854   3.726   9.169
53269SOL    HW161704  10.926   3.719   9.232
53269SOL    HW261705  10.793   3.657   9.196
53270SOL     OW61706   5.408  12.693   5.707
53270SOL    HW161707   5.393  12.609   5.751
53270SOL    HW261708   5.481  12.676   5.648
53271SOL     OW61709   4.479   6.670   9.073
53271SOL    HW161710   4.438   6.668   9.160
53271SOL    HW261711   4.565   6.632   9.087
53272SOL     OW61712   3.940   1.222   7.869
53272SOL    HW161713   3.970   1.226   7.778
53272SOL    HW261714   3.862   1.278   7.870
53273SOL     OW61715  14.604  12.926   3.862
53273SOL    HW161716  14.597  12.958   3.772
53273SOL    HW261717  14.611  12.830   3.853
53274SOL     OW61718  10.292   4.687   2.216
53274SOL    HW161719  10.362   4.651   2.270
53274SOL    HW261720  10.253   4.756   2.269
53275SOL     OW61721   4.704   0.213   0.958
53275SOL    HW161722   4.783   0.258   0.928
53275SOL    HW261723   4.632   0.259   0.914
53276SOL     OW61724   3.788  10.711  10.824
53276SOL    HW161725   3.850  10.781  10.844
53276SOL    HW261726   3.837  10.651  10.768
53277SOL     OW61727  10.020  11.996   0.537
53277SOL    HW161728   9.966  12.058   0.487
53277SOL    HW261729  10.085  12.051   0.581
53278SOL     OW61730   0.190  13.290   5.394
53278SOL    HW161731   0.143  13.243   5.463
53278SOL    HW261732   0.162  13.247   5.313
53279SOL     OW61733   2.858  12.959  14.689
53279SOL    HW161734   2.926  12.904  14.729
53279SOL    HW261735   2.904  13.009  14.622
53280SOL     OW61736   9.162  11.564  10.891
53280SOL    HW161737   9.198  11.483  10.928
53280SOL    HW261738   9.078  11.575  10.936
53281SOL     OW61739   2.167  11.218   9.862
53281SOL    HW161740   2.154  11.311   9.842
53281SOL    HW261741   2.092  11.195   9.918
53282SOL     OW61742   4.617   7.730   6.286
53282SOL    HW161743   4.606   7.804   6.347
53282SOL    HW261744   4.627   7.654   6.343
53283SOL     OW61745   0.587  13.488   0.766
53283SOL    HW161746   0.607  13.424   0.698
53283SOL    HW261747   0.672  13.525   0.790
53284SOL     OW61748   9.238  11.095   5.438
53284SOL    HW161749   9.300  11.166   5.422
53284SOL    HW261750   9.178  11.098   5.363
53285SOL     OW61751   4.844  10.516   7.967
53285SOL    HW161752   4.922  10.530   7.912
53285SOL    HW261753   4.781  10.474   7.908
53286SOL     OW61754   5.432   5.341  10.797
53286SOL    HW161755   5.437   5.288  10.876
53286SOL    HW261756   5.403   5.281  10.729
53287SOL     OW61757   0.748   8.100  10.430
53287SOL    HW161758   0.766   8.006  10.422
53287SOL    HW261759   0.710   8.125  10.346
53288SOL     OW61760  10.952  13.626  13.819
53288SOL    HW161761  10.995  13.696  13.770
53288SOL    HW261762  10.898  13.672  13.884
53289SOL     OW61763  13.836   6.605   2.676
53289SOL    HW161764  13.816   6.671   2.610
53289SOL    HW261765  13.927   6.624   2.702
53290SOL     OW61766   8.999  13.156   4.071
53290SOL    HW161767   8.911  13.192   4.077
53290SOL    HW261768   8.996  13.095   3.998
53291SOL     OW61769  11.434   8.692  10.155
53291SOL    HW161770  11.528   8.681  10.148
53291SOL    HW261771  11.414   8.680  10.248
53292SOL     OW61772  12.871   4.213   4.119
53292SOL    HW161773  12.891   4.261   4.039
53292SOL    HW261774  12.869   4.122   4.092
53293SOL     OW61775   3.083   3.099   0.790
53293SOL    HW161776   3.175   3.098   0.816
53293SOL    HW261777   3.035   3.086   0.872
53294SOL     OW61778  11.897   3.315  13.901
53294SOL    HW161779  11.880   3.278  13.814
53294SOL    HW261780  11.983   3.281  13.925
53295SOL     OW61781   2.868   6.570   1.897
53295SOL    HW161782   2.951   6.612   1.872
53295SOL    HW261783   2.851   6.601   1.986
53296SOL     OW61784   4.715  12.093  12.343
53296SOL    HW161785   4.792  12.140  12.311
53296SOL    HW261786   4.647  12.111  12.278
53297SOL     OW61787   0.796  13.900   2.128
53297SOL    HW161788   0.726  13.956   2.162
53297SOL    HW261789   0.866  13.910   2.193
53298SOL     OW61790   7.369  13.477   6.008
53298SOL    HW161791   7.457  13.500   6.038
53298SOL    HW261792   7.310  13.529   6.062
53299SOL     OW61793  11.747  12.876   8.074
53299SOL    HW161794  11.746  12.943   8.143
53299SOL    HW261795  11.800  12.805   8.111
53300SOL     OW61796   7.705  10.536   5.934
53300SOL    HW161797   7.796  10.562   5.925
53300SOL    HW261798   7.660  10.617   5.959
53301SOL     OW61799  10.855   4.703  12.463
53301SOL    HW161800  10.795   4.704  12.389
53301SOL    HW261801  10.913   4.778  12.447
53302SOL     OW61802   2.382   2.944  10.735
53302SOL    HW161803   2.385   2.933  10.830
53302SOL    HW261804   2.345   2.862  10.702
53303SOL     OW61805  10.103   2.142   6.724
53303SOL    HW161806  10.137   2.105   6.642
53303SOL    HW261807  10.034   2.203   6.696
53304SOL     OW61808   4.452  12.753   9.816
53304SOL    HW161809   4.494  12.798   9.890
53304SOL    HW261810   4.494  12.791   9.739
53305SOL     OW61811  13.605   7.323   8.773
53305SOL    HW161812  13.564   7.272   8.843
53305SOL    HW261813  13.669   7.378   8.818
53306SOL     OW61814   1.846   0.078  14.149
53306SOL    HW161815   1.778   0.012  14.134
53306SOL    HW261816   1.809   0.158  14.111
53307SOL     OW61817   9.999   6.267   2.919
53307SOL    HW161818   9.933   6.198   2.929
53307SOL    HW261819  10.072   6.238   2.975
53308SOL     OW61820   2.472   7.583  14.094
53308SOL    HW161821   2.470   7.606  14.001
53308SOL    HW261822   2.467   7.667  14.140
53309SOL     OW61823   7.429   8.259   3.269
53309SOL    HW161824   7.504   8.230   3.217
53309SOL    HW261825   7.403   8.182   3.319
53310SOL     OW61826  11.533   3.079   0.423
53310SOL    HW161827  11.542   3.107   0.514
53310SOL    HW261828  11.623   3.065   0.393
53311SOL     OW61829   6.932   5.627   0.668
53311SOL    HW161830   6.915   5.679   0.746
53311SOL    HW261831   7.020   5.651   0.641
53312SOL     OW61832  13.907   7.631  12.063
53312SOL    HW161833  13.863   7.668  11.986
53312SOL    HW261834  13.995   7.609  12.031
53313SOL     OW61835   0.937   8.572   8.923
53313SOL    HW161836   0.980   8.497   8.964
53313SOL    HW261837   0.848   8.571   8.960
53314SOL     OW61838   1.886   3.732   8.837
53314SOL    HW161839   1.914   3.813   8.879
53314SOL    HW261840   1.876   3.755   8.745
53315SOL     OW61841   0.715  12.266  13.623
53315SOL    HW161842   0.722  12.259  13.718
53315SOL    HW261843   0.622  12.262  13.604
53316SOL     OW61844  13.738   6.879   6.060
53316SOL    HW161845  13.797   6.887   6.135
53316SOL    HW261846  13.796   6.875   5.984
53317SOL     OW61847  13.797  13.622   2.298
53317SOL    HW161848  13.742  13.687   2.255
53317SOL    HW261849  13.881  13.627   2.251
53318SOL     OW61850   4.003  14.482  12.003
53318SOL    HW161851   4.017  14.574  12.023
53318SOL    HW261852   4.084  14.439  12.029
53319SOL     OW61853  14.102   8.031   0.083
53319SOL    HW161854  14.051   8.088   0.026
53319SOL    HW261855  14.075   7.943   0.059
53320SOL     OW61856  11.747   8.626   8.328
53320SOL    HW161857  11.677   8.667   8.279
53320SOL    HW261858  11.726   8.533   8.326
53321SOL     OW61859   1.673   8.186  12.194
53321SOL    HW161860   1.605   8.215  12.254
53321SOL    HW261861   1.752   8.181  12.248
53322SOL     OW61862   6.533   6.606  11.947
53322SOL    HW161863   6.476   6.598  12.024
53322SOL    HW261864   6.598   6.536  11.958
53323SOL     OW61865  11.113  12.631   6.794
53323SOL    HW161866  11.069  12.716   6.794
53323SOL    HW261867  11.166  12.631   6.874
53324SOL     OW61868   3.061  11.725   6.124
53324SOL    HW161869   3.041  11.670   6.048
53324SOL    HW261870   3.050  11.667   6.200
53325SOL     OW61871   8.945   4.634  13.211
53325SOL    HW161872   9.019   4.695  13.204
53325SOL    HW261873   8.925   4.633  13.305
53326SOL     OW61874  12.957  13.817  12.065
53326SOL    HW161875  13.008  13.736  12.063
53326SOL    HW261876  12.962  13.845  12.157
53327SOL     OW61877   1.097   0.947   8.208
53327SOL    HW161878   1.144   0.916   8.131
53327SOL    HW261879   1.164   0.963   8.273
53328SOL     OW61880   3.550   6.802   7.886
53328SOL    HW161881   3.567   6.830   7.796
53328SOL    HW261882   3.633   6.765   7.916
53329SOL     OW61883   8.653   5.974  13.134
53329SOL    HW161884   8.666   6.047  13.195
53329SOL    HW261885   8.676   6.010  13.049
53330SOL     OW61886  14.053   8.472  11.413
53330SOL    HW161887  14.101   8.428  11.483
53330SOL    HW261888  14.009   8.545  11.457
53331SOL     OW61889   3.322  12.044  11.617
53331SOL    HW161890   3.392  12.084  11.565
53331SOL    HW261891   3.319  11.953  11.586
53332SOL     OW61892  13.843   3.670   2.114
53332SOL    HW161893  13.892   3.715   2.183
53332SOL    HW261894  13.884   3.584   2.108
53333SOL     OW61895   1.247   1.973   8.003
53333SOL    HW161896   1.189   2.037   8.046
53333SOL    HW261897   1.313   2.027   7.958
53334SOL     OW61898   2.553   1.004   6.091
53334SOL    HW161899   2.469   1.027   6.133
53334SOL    HW261900   2.600   0.954   6.157
53335SOL     OW61901   7.917   5.971  13.102
53335SOL    HW161902   7.971   6.003  13.174
53335SOL    HW261903   7.878   5.890  13.136
53336SOL     OW61904   8.413  13.032   3.340
53336SOL    HW161905   8.431  13.072   3.425
53336SOL    HW261906   8.339  12.974   3.356
53337SOL     OW61907  11.177   0.163   8.129
53337SOL    HW161908  11.181   0.258   8.134
53337SOL    HW261909  11.246   0.139   8.067
53338SOL     OW61910   6.278  11.070  13.946
53338SOL    HW161911   6.205  11.051  14.006
53338SOL    HW261912   6.315  11.152  13.978
53339SOL     OW61913   7.624   7.433  14.720
53339SOL    HW161914   7.617   7.429  14.624
53339SOL    HW261915   7.535   7.413  14.751
53340SOL     OW61916   5.513  10.137  13.820
53340SOL    HW161917   5.546  10.130  13.731
53340SOL    HW261918   5.528  10.229  13.844
53341SOL     OW61919   1.224   0.952   4.336
53341SOL    HW161920   1.247   0.863   4.362
53341SOL    HW261921   1.164   0.942   4.263
53342SOL     OW61922   2.064  13.413   1.561
53342SOL    HW161923   2.097  13.458   1.483
53342SOL    HW261924   2.142  13.376   1.602
53343SOL     OW61925   9.815   7.461   8.373
53343SOL    HW161926   9.862   7.522   8.316
53343SOL    HW261927   9.879   7.434   8.438
53344SOL     OW61928  10.465   9.059   6.158
53344SOL    HW161929  10.377   9.053   6.122
53344SOL    HW261930  10.492   9.149   6.139
53345SOL     OW61931   3.309   2.010  12.447
53345SOL    HW161932   3.391   2.060  12.449
53345SOL    HW261933   3.337   1.919  12.437
53346SOL     OW61934  14.022   5.608   9.854
53346SOL    HW161935  14.086   5.607   9.926
53346SOL    HW261936  13.964   5.681   9.874
53347SOL     OW61937   1.338   1.103   0.681
53347SOL    HW161938   1.302   1.064   0.760
53347SOL    HW261939   1.275   1.172   0.657
53348SOL     OW61940   9.898   7.183   6.815
53348SOL    HW161941   9.818   7.224   6.783
53348SOL    HW261942   9.963   7.253   6.815
53349SOL     OW61943   8.302   4.445   4.395
53349SOL    HW161944   8.232   4.385   4.372
53349SOL    HW261945   8.266   4.532   4.377
53350SOL     OW61946  14.805  12.326   9.935
53350SOL    HW161947  14.867  12.334   9.862
53350SOL    HW261948  14.861  12.318  10.013
53351SOL     OW61949   2.955   5.573   9.298
53351SOL    HW161950   3.001   5.613   9.372
53351SOL    HW261951   2.887   5.636   9.276
53352SOL     OW61952   6.940  13.766   5.677
53352SOL    HW161953   6.936  13.730   5.765
53352SOL    HW261954   6.895  13.850   5.682
53353SOL     OW61955   8.259   3.210   5.357
53353SOL    HW161956   8.329   3.146   5.371
53353SOL    HW261957   8.235   3.201   5.265
53354SOL     OW61958   2.223  10.536  12.988
53354SOL    HW161959   2.288  10.474  12.957
53354SOL    HW261960   2.264  10.579  13.064
53355SOL     OW61961  11.300   5.036   2.208
53355SOL    HW161962  11.223   5.093   2.200
53355SOL    HW261963  11.363   5.088   2.257
53356SOL     OW61964   6.342   8.682   9.509
53356SOL    HW161965   6.305   8.612   9.455
53356SOL    HW261966   6.377   8.638   9.586
53357SOL     OW61967   5.668   5.681  14.514
53357SOL    HW161968   5.688   5.590  14.535
53357SOL    HW261969   5.574   5.689  14.530
53358SOL     OW61970  13.771   0.491   4.069
53358SOL    HW161971  13.839   0.492   4.001
53358SOL    HW261972  13.697   0.537   4.030
53359SOL     OW61973   3.924   4.787   9.616
53359SOL    HW161974   3.846   4.745   9.580
53359SOL    HW261975   3.967   4.827   9.541
53360SOL     OW61976   0.922  13.412  14.446
53360SOL    HW161977   0.833  13.435  14.422
53360SOL    HW261978   0.967  13.496  14.458
53361SOL     OW61979   6.213  13.984   3.807
53361SOL    HW161980   6.203  14.020   3.718
53361SOL    HW261981   6.130  13.940   3.824
53362SOL     OW61982   0.978   6.761   6.169
53362SOL    HW161983   0.946   6.694   6.108
53362SOL    HW261984   0.939   6.843   6.139
53363SOL     OW61985   8.827   1.473   2.509
53363SOL    HW161986   8.849   1.380   2.505
53363SOL    HW261987   8.776   1.483   2.589
53364SOL     OW61988   8.313   2.627   8.082
53364SOL    HW161989   8.369   2.688   8.032
53364SOL    HW261990   8.301   2.670   8.167
53365SOL     OW61991   1.314   8.585   3.486
53365SOL    HW161992   1.380   8.650   3.510
53365SOL    HW261993   1.341   8.505   3.531
53366SOL     OW61994   3.807   4.548   3.062
53366SOL    HW161995   3.740   4.593   3.113
53366SOL    HW261996   3.814   4.599   2.981
53367SOL     OW61997   6.605   3.681   2.776
53367SOL    HW161998   6.574   3.770   2.792
53367SOL    HW261999   6.612   3.641   2.863
53368SOL     OW62000   7.013   5.597   4.794
53368SOL    HW162001   6.995   5.508   4.822
53368SOL    HW262002   6.961   5.652   4.852
53369SOL     OW62003   0.424   6.212  12.264
53369SOL    HW162004   0.381   6.140  12.217
53369SOL    HW262005   0.355   6.247  12.321
53370SOL     OW62006   6.447  13.299   9.450
53370SOL    HW162007   6.464  13.287   9.543
53370SOL    HW262008   6.404  13.217   9.423
53371SOL     OW62009   2.607  13.832  11.721
53371SOL    HW162010   2.659  13.873  11.652
53371SOL    HW262011   2.537  13.786  11.675
53372SOL     OW62012   1.533  12.268   2.382
53372SOL    HW162013   1.486  12.289   2.463
53372SOL    HW262014   1.594  12.198   2.407
53373SOL     OW62015   9.672   0.608   1.968
53373SOL    HW162016   9.662   0.561   1.885
53373SOL    HW262017   9.643   0.545   2.035
53374SOL     OW62018   1.112   8.604   7.975
53374SOL    HW162019   1.135   8.578   8.064
53374SOL    HW262020   1.114   8.700   7.977
53375SOL     OW62021   5.579  10.790   1.786
53375SOL    HW162022   5.577  10.860   1.721
53375SOL    HW262023   5.626  10.828   1.861
53376SOL     OW62024  11.722   6.412   1.042
53376SOL    HW162025  11.709   6.496   0.999
53376SOL    HW262026  11.652   6.407   1.107
53377SOL     OW62027   8.057   0.032  10.596
53377SOL    HW162028   8.088   0.045  10.686
53377SOL    HW262029   7.962   0.037  10.603
53378SOL     OW62030   7.591   2.993  10.244
53378SOL    HW162031   7.623   3.064  10.299
53378SOL    HW262032   7.587   3.031  10.156
53379SOL     OW62033   5.111   5.582  10.892
53379SOL    HW162034   5.186   5.591  10.833
53379SOL    HW262035   5.071   5.499  10.867
53380SOL     OW62036   1.186  11.732   7.484
53380SOL    HW162037   1.278  11.757   7.483
53380SOL    HW262038   1.182  11.658   7.545
53381SOL     OW62039   3.964   7.339   2.813
53381SOL    HW162040   3.891   7.400   2.812
53381SOL    HW262041   4.009   7.354   2.730
53382SOL     OW62042   0.615   9.337   4.512
53382SOL    HW162043   0.652   9.263   4.465
53382SOL    HW262044   0.690   9.375   4.559
53383SOL     OW62045   9.146   9.439  13.435
53383SOL    HW162046   9.101   9.497  13.374
53383SOL    HW262047   9.203   9.386  13.379
53384SOL     OW62048   2.559   8.035  11.248
53384SOL    HW162049   2.583   8.026  11.340
53384SOL    HW262050   2.509   8.116  11.244
53385SOL     OW62051   2.255   5.800   6.149
53385SOL    HW162052   2.232   5.846   6.230
53385SOL    HW262053   2.266   5.870   6.084
53386SOL     OW62054   4.046  11.137   1.856
53386SOL    HW162055   4.063  11.055   1.901
53386SOL    HW262056   3.957  11.127   1.821
53387SOL     OW62057   8.820   2.133  13.637
53387SOL    HW162058   8.812   2.118  13.543
53387SOL    HW262059   8.741   2.180  13.661
53388SOL     OW62060   7.130   8.968   8.595
53388SOL    HW162061   7.100   8.879   8.576
53388SOL    HW262062   7.208   8.956   8.649
53389SOL     OW62063   4.444   6.232  11.492
53389SOL    HW162064   4.375   6.177  11.529
53389SOL    HW262065   4.476   6.283  11.566
53390SOL     OW62066   0.602  12.865   6.062
53390SOL    HW162067   0.653  12.806   6.118
53390SOL    HW262068   0.520  12.818   6.046
53391SOL     OW62069   1.852   1.214  12.599
53391SOL    HW162070   1.908   1.258  12.535
53391SOL    HW262071   1.878   1.122  12.594
53392SOL     OW62072  12.259   9.987   1.596
53392SOL    HW162073  12.203   9.938   1.655
53392SOL    HW262074  12.205  10.060   1.566
53393SOL     OW62075   0.363  12.020  12.148
53393SOL    HW162076   0.401  11.970  12.076
53393SOL    HW262077   0.275  12.042  12.118
53394SOL     OW62078   7.217  12.363   9.027
53394SOL    HW162079   7.312  12.350   9.031
53394SOL    HW262080   7.186  12.333   9.112
53395SOL     OW62081   6.133  10.834  13.440
53395SOL    HW162082   6.223  10.828  13.408
53395SOL    HW262083   6.141  10.867  13.529
53396SOL     OW62084   1.381  10.263   0.355
53396SOL    HW162085   1.451  10.327   0.373
53396SOL    HW262086   1.415  10.180   0.389
53397SOL     OW62087   9.916   1.599  13.373
53397SOL    HW162088   9.881   1.682  13.339
53397SOL    HW262089  10.008   1.599  13.346
53398SOL     OW62090  14.377   2.215  14.583
53398SOL    HW162091  14.363   2.294  14.531
53398SOL    HW262092  14.363   2.144  14.520
53399SOL     OW62093   8.239  12.898   1.885
53399SOL    HW162094   8.252  12.852   1.802
53399SOL    HW262095   8.324  12.937   1.905
53400SOL     OW62096   9.542   8.564   3.761
53400SOL    HW162097   9.524   8.658   3.770
53400SOL    HW262098   9.569   8.536   3.848
53401SOL     OW62099   2.255   2.003   9.630
53401SOL    HW162100   2.315   2.057   9.682
53401SOL    HW262101   2.189   1.974   9.692
53402SOL     OW62102  10.626   0.333  10.674
53402SOL    HW162103  10.721   0.340  10.669
53402SOL    HW262104  10.604   0.266  10.609
53403SOL     OW62105  11.065   1.016  13.264
53403SOL    HW162106  11.033   1.054  13.182
53403SOL    HW262107  11.103   1.090  13.311
53404SOL     OW62108   0.098  13.627   7.598
53404SOL    HW162109   0.171  13.598   7.543
53404SOL    HW262110   0.115  13.719   7.613
53405SOL     OW62111  14.177   1.478   9.283
53405SOL    HW162112  14.133   1.543   9.337
53405SOL    HW262113  14.109   1.446   9.224
53406SOL     OW62114  10.733   9.967   4.929
53406SOL    HW162115  10.804   9.907   4.952
53406SOL    HW262116  10.686   9.923   4.858
53407SOL     OW62117   7.394   4.842  12.047
53407SOL    HW162118   7.420   4.756  12.079
53407SOL    HW262119   7.404   4.837  11.952
53408SOL     OW62120  14.639   8.040  14.601
53408SOL    HW162121  14.702   8.100  14.642
53408SOL    HW262122  14.597   7.995  14.674
53409SOL     OW62123   9.158   1.102   3.524
53409SOL    HW162124   9.234   1.052   3.554
53409SOL    HW262125   9.188   1.147   3.445
53410SOL     OW62126  11.917   9.691   2.823
53410SOL    HW162127  11.893   9.654   2.908
53410SOL    HW262128  12.008   9.664   2.809
53411SOL     OW62129   1.041   8.473   9.682
53411SOL    HW162130   1.132   8.498   9.671
53411SOL    HW262131   0.995   8.515   9.609
53412SOL     OW62132   9.786   5.339   4.841
53412SOL    HW162133   9.718   5.306   4.783
53412SOL    HW262134   9.806   5.427   4.807
53413SOL     OW62135   8.625   4.839   1.633
53413SOL    HW162136   8.576   4.788   1.569
53413SOL    HW262137   8.621   4.929   1.601
53414SOL     OW62138   4.086   3.546  13.288
53414SOL    HW162139   4.092   3.642  13.289
53414SOL    HW262140   3.993   3.528  13.295
53415SOL     OW62141  10.973   8.468   2.616
53415SOL    HW162142  10.882   8.489   2.592
53415SOL    HW262143  11.020   8.469   2.532
53416SOL     OW62144  10.068   6.638   8.457
53416SOL    HW162145  10.077   6.710   8.519
53416SOL    HW262146  10.017   6.572   8.505
53417SOL     OW62147  11.337  10.190   8.204
53417SOL    HW162148  11.326  10.281   8.176
53417SOL    HW262149  11.331  10.194   8.300
53418SOL     OW62150   1.220   8.051   7.205
53418SOL    HW162151   1.180   8.101   7.277
53418SOL    HW262152   1.286   8.110   7.169
53419SOL     OW62153  12.425   7.067   8.891
53419SOL    HW162154  12.419   7.100   8.981
53419SOL    HW262155  12.449   6.975   8.901
53420SOL     OW62156   5.580   8.953  13.694
53420SOL    HW162157   5.606   8.947  13.786
53420SOL    HW262158   5.624   8.879  13.653
53421SOL     OW62159  13.739   9.299   1.339
53421SOL    HW162160  13.670   9.361   1.362
53421SOL    HW262161  13.705   9.253   1.262
53422SOL     OW62162  10.000  13.904  12.788
53422SOL    HW162163  10.010  13.809  12.788
53422SOL    HW262164   9.945  13.923  12.711
53423SOL     OW62165   5.032  14.249  14.421
53423SOL    HW162166   5.010  14.185  14.353
53423SOL    HW262167   5.128  14.247  14.426
53424SOL     OW62168   2.380   5.954   8.450
53424SOL    HW162169   2.445   5.919   8.512
53424SOL    HW262170   2.344   6.031   8.495
53425SOL     OW62171  10.213   2.119   2.094
53425SOL    HW162172  10.136   2.161   2.056
53425SOL    HW262173  10.177   2.058   2.159
53426SOL     OW62174   5.340  13.615   0.030
53426SOL    HW162175   5.400  13.687   0.046
53426SOL    HW262176   5.396  13.539   0.013
53427SOL     OW62177   6.719   8.342   0.045
53427SOL    HW162178   6.797   8.362   0.097
53427SOL    HW262179   6.728   8.248   0.025
53428SOL     OW62180   1.879   6.434   7.592
53428SOL    HW162181   1.910   6.456   7.504
53428SOL    HW262182   1.918   6.500   7.648
53429SOL     OW62183   7.568   5.955  14.846
53429SOL    HW162184   7.632   5.974   0.043
53429SOL    HW262185   7.557   6.038  14.799
53430SOL     OW62186   6.522   2.178  14.191
53430SOL    HW162187   6.528   2.112  14.259
53430SOL    HW262188   6.503   2.129  14.111
53431SOL     OW62189  10.455   4.169  12.087
53431SOL    HW162190  10.538   4.168  12.039
53431SOL    HW262191  10.481   4.169  12.179
53432SOL     OW62192   2.582   7.012   3.399
53432SOL    HW162193   2.635   7.020   3.478
53432SOL    HW262194   2.492   7.009   3.431
53433SOL     OW62195   1.508   5.280   6.699
53433SOL    HW162196   1.449   5.346   6.663
53433SOL    HW262197   1.484   5.274   6.792
53434SOL     OW62198   4.765   0.951  10.920
53434SOL    HW162199   4.860   0.956  10.905
53434SOL    HW262200   4.727   0.950  10.832
53435SOL     OW62201   0.656   4.056   5.984
53435SOL    HW162202   0.625   4.138   6.023
53435SOL    HW262203   0.745   4.046   6.019
53436SOL     OW62204   6.163   8.404   5.438
53436SOL    HW162205   6.115   8.339   5.490
53436SOL    HW262206   6.148   8.378   5.347
53437SOL     OW62207   9.285  13.227   3.215
53437SOL    HW162208   9.287  13.320   3.239
53437SOL    HW262209   9.195  13.200   3.234
53438SOL     OW62210  13.999  13.296  13.079
53438SOL    HW162211  14.055  13.309  13.003
53438SOL    HW262212  13.925  13.246  13.045
53439SOL     OW62213   3.823   4.321   5.140
53439SOL    HW162214   3.830   4.357   5.229
53439SOL    HW262215   3.890   4.368   5.090
53440SOL     OW62216   3.976  12.733   7.747
53440SOL    HW162217   3.982  12.658   7.688
53440SOL    HW262218   3.991  12.809   7.691
53441SOL     OW62219  10.408   1.782   0.144
53441SOL    HW162220  10.433   1.793   0.236
53441SOL    HW262221  10.408   1.687   0.131
53442SOL     OW62222   0.547   6.914   2.488
53442SOL    HW162223   0.454   6.901   2.468
53442SOL    HW262224   0.555   6.896   2.581
53443SOL     OW62225   2.806   1.644  11.892
53443SOL    HW162226   2.803   1.729  11.935
53443SOL    HW262227   2.879   1.598  11.935
53444SOL     OW62228  12.800   9.237   1.521
53444SOL    HW162229  12.743   9.161   1.507
53444SOL    HW262230  12.740   9.312   1.519
53445SOL     OW62231  14.737  11.852   8.929
53445SOL    HW162232  14.666  11.791   8.908
53445SOL    HW262233  14.696  11.916   8.988
53446SOL     OW62234   0.526   2.405  13.274
53446SOL    HW162235   0.473   2.373  13.347
53446SOL    HW262236   0.471   2.471  13.232
53447SOL     OW62237   2.874  11.187   1.211
53447SOL    HW162238   2.802  11.148   1.261
53447SOL    HW262239   2.953  11.152   1.252
53448SOL     OW62240   6.905   5.148   7.579
53448SOL    HW162241   6.885   5.197   7.499
53448SOL    HW262242   6.973   5.200   7.622
53449SOL     OW62243   9.550   7.364   0.350
53449SOL    HW162244   9.635   7.346   0.388
53449SOL    HW262245   9.568   7.384   0.258
53450SOL     OW62246   9.946   0.108   5.998
53450SOL    HW162247   9.906   0.033   6.042
53450SOL    HW262248  10.008   0.144   6.061
53451SOL     OW62249  14.725   5.654   0.521
53451SOL    HW162250  14.811   5.691   0.540
53451SOL    HW262251  14.699   5.695   0.438
53452SOL     OW62252   9.790  13.666  11.030
53452SOL    HW162253   9.738  13.726  10.977
53452SOL    HW262254   9.876  13.708  11.037
53453SOL     OW62255   5.476   8.570   3.963
53453SOL    HW162256   5.433   8.649   3.996
53453SOL    HW262257   5.495   8.518   4.041
53454SOL     OW62258   3.487   7.152  10.575
53454SOL    HW162259   3.447   7.233  10.542
53454SOL    HW262260   3.501   7.099  10.496
53455SOL     OW62261   5.914   3.170   6.115
53455SOL    HW162262   5.938   3.230   6.185
53455SOL    HW262263   5.877   3.094   6.160
53456SOL     OW62264   4.274   3.608   6.452
53456SOL    HW162265   4.364   3.626   6.425
53456SOL    HW262266   4.249   3.685   6.503
53457SOL     OW62267  10.513   2.198   0.934
53457SOL    HW162268  10.528   2.107   0.961
53457SOL    HW262269  10.500   2.193   0.839
53458SOL     OW62270   7.522   6.837  11.232
53458SOL    HW162271   7.454   6.867  11.291
53458SOL    HW262272   7.602   6.880  11.263
53459SOL     OW62273  14.325   6.098   5.755
53459SOL    HW162274  14.373   6.153   5.693
53459SOL    HW262275  14.393   6.054   5.806
53460SOL     OW62276  14.065   9.046  14.323
53460SOL    HW162277  14.058   9.139  14.300
53460SOL    HW262278  14.021   9.039  14.407
53461SOL     OW62279   8.028   4.817   0.600
53461SOL    HW162280   8.033   4.862   0.515
53461SOL    HW262281   8.011   4.887   0.663
53462SOL     OW62282  14.642   2.523   1.682
53462SOL    HW162283  14.707   2.572   1.631
53462SOL    HW262284  14.693   2.465   1.738
53463SOL     OW62285   9.867   8.176   2.943
53463SOL    HW162286   9.891   8.134   3.025
53463SOL    HW262287   9.821   8.107   2.893
53464SOL     OW62288  12.830  12.645  11.910
53464SOL    HW162289  12.741  12.673  11.890
53464SOL    HW262290  12.877  12.727  11.930
53465SOL     OW62291   3.869  14.636  13.948
53465SOL    HW162292   3.807  14.645  14.021
53465SOL    HW262293   3.886  14.542  13.943
53466SOL     OW62294   8.986   7.568   5.589
53466SOL    HW162295   8.987   7.637   5.523
53466SOL    HW262296   8.894   7.562   5.617
53467SOL     OW62297  11.760  10.749  11.072
53467SOL    HW162298  11.821  10.743  11.145
53467SOL    HW262299  11.810  10.792  11.003
53468SOL     OW62300  10.545  10.585   3.208
53468SOL    HW162301  10.524  10.548   3.293
53468SOL    HW262302  10.489  10.662   3.201
53469SOL     OW62303   9.541   2.191   7.222
53469SOL    HW162304   9.570   2.243   7.148
53469SOL    HW262305   9.615   2.135   7.244
53470SOL     OW62306   2.402  12.035  14.332
53470SOL    HW162307   2.355  11.982  14.268
53470SOL    HW262308   2.481  12.064  14.286
53471SOL     OW62309   1.597  12.450  11.150
53471SOL    HW162310   1.579  12.507  11.075
53471SOL    HW262311   1.629  12.369  11.111
53472SOL     OW62312   5.784   6.486   5.086
53472SOL    HW162313   5.718   6.495   5.017
53472SOL    HW262314   5.819   6.398   5.075
53473SOL     OW62315   9.136  14.106   7.763
53473SOL    HW162316   9.070  14.052   7.805
53473SOL    HW262317   9.172  14.051   7.694
53474SOL     OW62318   9.213   0.332   8.238
53474SOL    HW162319   9.220   0.237   8.241
53474SOL    HW262320   9.230   0.354   8.146
53475SOL     OW62321   7.947  11.586  14.725
53475SOL    HW162322   7.880  11.651  14.745
53475SOL    HW262323   7.948  11.529  14.801
53476SOL     OW62324   4.309   3.808  12.471
53476SOL    HW162325   4.234   3.755  12.444
53476SOL    HW262326   4.385   3.753  12.452
53477SOL     OW62327  11.478   4.711   8.593
53477SOL    HW162328  11.551   4.757   8.551
53477SOL    HW262329  11.481   4.623   8.557
53478SOL     OW62330   0.536   4.422   6.290
53478SOL    HW162331   0.475   4.491   6.316
53478SOL    HW262332   0.602   4.420   6.360
53479SOL     OW62333   5.140   6.331  10.975
53479SOL    HW162334   5.151   6.378  10.892
53479SOL    HW262335   5.077   6.384  11.024
53480SOL     OW62336   5.579  10.546   1.057
53480SOL    HW162337   5.662  10.593   1.053
53480SOL    HW262338   5.561  10.538   1.151
53481SOL     OW62339  12.120  14.217  13.081
53481SOL    HW162340  12.119  14.210  12.985
53481SOL    HW262341  12.200  14.171  13.107
53482SOL     OW62342   6.859   8.998   7.380
53482SOL    HW162343   6.815   8.927   7.334
53482SOL    HW262344   6.870   8.965   7.470
53483SOL     OW62345   2.702   1.635  10.100
53483SOL    HW162346   2.648   1.557  10.083
53483SOL    HW262347   2.687   1.691  10.023
53484SOL     OW62348   7.536   1.775   9.327
53484SOL    HW162349   7.537   1.757   9.421
53484SOL    HW262350   7.458   1.828   9.313
53485SOL     OW62351   5.595   5.637   1.385
53485SOL    HW162352   5.506   5.670   1.379
53485SOL    HW262353   5.646   5.693   1.327
53486SOL     OW62354  11.129  12.362   9.821
53486SOL    HW162355  11.094  12.450   9.834
53486SOL    HW262356  11.157  12.335   9.909
53487SOL     OW62357  13.045   2.988   5.577
53487SOL    HW162358  12.966   3.041   5.576
53487SOL    HW262359  13.014   2.899   5.561
53488SOL     OW62360   6.684   6.130   6.734
53488SOL    HW162361   6.748   6.195   6.707
53488SOL    HW262362   6.656   6.158   6.822
53489SOL     OW62363   4.986  12.635  11.318
53489SOL    HW162364   4.916  12.635  11.384
53489SOL    HW262365   5.018  12.545  11.317
53490SOL     OW62366  11.176   1.598  10.549
53490SOL    HW162367  11.260   1.572  10.510
53490SOL    HW262368  11.201   1.644  10.629
53491SOL     OW62369   3.632   5.302  13.081
53491SOL    HW162370   3.687   5.373  13.113
53491SOL    HW262371   3.578   5.278  13.156
53492SOL     OW62372   9.061   2.119   2.986
53492SOL    HW162373   9.049   2.102   2.893
53492SOL    HW262374   9.145   2.165   2.992
53493SOL     OW62375  13.843   3.962   4.630
53493SOL    HW162376  13.837   3.971   4.535
53493SOL    HW262377  13.754   3.973   4.661
53494SOL     OW62378   5.463   3.151   5.804
53494SOL    HW162379   5.544   3.116   5.840
53494SOL    HW262380   5.490   3.224   5.749
53495SOL     OW62381   3.529  12.596   7.372
53495SOL    HW162382   3.598  12.577   7.435
53495SOL    HW262383   3.448  12.572   7.418
53496SOL     OW62384   2.268  14.063   4.047
53496SOL    HW162385   2.219  13.981   4.038
53496SOL    HW262386   2.203  14.127   4.075
53497SOL     OW62387   5.770   2.302   1.302
53497SOL    HW162388   5.780   2.207   1.307
53497SOL    HW262389   5.678   2.318   1.321
53498SOL     OW62390   5.517  14.568   8.710
53498SOL    HW162391   5.498  14.563   8.804
53498SOL    HW262392   5.462  14.640   8.678
53499SOL     OW62393   2.866   9.575   4.207
53499SOL    HW162394   2.926   9.571   4.133
53499SOL    HW262395   2.863   9.485   4.241
53500SOL     OW62396   4.850   7.657   2.338
53500SOL    HW162397   4.894   7.668   2.253
53500SOL    HW262398   4.829   7.746   2.365
53501SOL     OW62399  14.391  13.879  12.442
53501SOL    HW162400  14.464  13.831  12.480
53501SOL    HW262401  14.314  13.847  12.489
53502SOL     OW62402   9.535   4.631   6.773
53502SOL    HW162403   9.484   4.660   6.849
53502SOL    HW262404   9.594   4.704   6.754
53503SOL     OW62405   4.125   9.113  14.406
53503SOL    HW162406   4.201   9.096  14.461
53503SOL    HW262407   4.056   9.140  14.467
53504SOL     OW62408  14.070   1.481   5.676
53504SOL    HW162409  14.022   1.475   5.758
53504SOL    HW262410  14.136   1.549   5.691
53505SOL     OW62411   3.423  12.512   6.592
53505SOL    HW162412   3.350  12.460   6.627
53505SOL    HW262413   3.439  12.579   6.659
53506SOL     OW62414   8.875  14.656  11.345
53506SOL    HW162415   8.816  14.604  11.290
53506SOL    HW262416   8.828  14.738  11.360
53507SOL     OW62417   6.363   7.480  13.154
53507SOL    HW162418   6.413   7.399  13.144
53507SOL    HW262419   6.377   7.528  13.073
53508SOL     OW62420   2.088   3.063  12.588
53508SOL    HW162421   2.135   3.120  12.649
53508SOL    HW262422   2.002   3.102  12.580
53509SOL     OW62423   7.030   9.844  11.450
53509SOL    HW162424   7.115   9.848  11.406
53509SOL    HW262425   7.005   9.752  11.445
53510SOL     OW62426   7.937   2.171  10.408
53510SOL    HW162427   7.850   2.146  10.376
53510SOL    HW262428   7.936   2.267  10.406
53511SOL     OW62429  11.166   9.407  11.635
53511SOL    HW162430  11.100   9.468  11.603
53511SOL    HW262431  11.218   9.459  11.697
53512SOL     OW62432  11.507  11.859  11.649
53512SOL    HW162433  11.431  11.801  11.639
53512SOL    HW262434  11.527  11.887  11.560
53513SOL     OW62435   7.739   5.600  12.169
53513SOL    HW162436   7.819   5.602  12.222
53513SOL    HW262437   7.684   5.669  12.206
53514SOL     OW62438   0.250   2.569  11.514
53514SOL    HW162439   0.272   2.652  11.557
53514SOL    HW262440   0.155   2.565  11.518
53515SOL     OW62441   0.382   2.622  13.656
53515SOL    HW162442   0.396   2.535  13.692
53515SOL    HW262443   0.436   2.680  13.710
53516SOL     OW62444   7.264  12.817   8.408
53516SOL    HW162445   7.212  12.744   8.440
53516SOL    HW262446   7.201  12.886   8.389
53517SOL     OW62447  10.736   7.095   0.387
53517SOL    HW162448  10.739   7.058   0.299
53517SOL    HW262449  10.646   7.125   0.397
53518SOL     OW62450   1.444   6.728  14.217
53518SOL    HW162451   1.373   6.714  14.156
53518SOL    HW262452   1.522   6.694  14.173
53519SOL     OW62453   0.827   7.917  12.328
53519SOL    HW162454   0.861   7.991  12.378
53519SOL    HW262455   0.817   7.847  12.392
53520SOL     OW62456  11.196   8.562  14.450
53520SOL    HW162457  11.190   8.640  14.505
53520SOL    HW262458  11.274   8.516  14.482
53521SOL     OW62459  11.324   0.104  12.602
53521SOL    HW162460  11.297   0.058  12.682
53521SOL    HW262461  11.346   0.192  12.632
53522SOL     OW62462   7.882   5.568   4.202
53522SOL    HW162463   7.969   5.607   4.199
53522SOL    HW262464   7.823   5.641   4.183
53523SOL     OW62465   2.618   6.891  10.246
53523SOL    HW162466   2.535   6.918  10.206
53523SOL    HW262467   2.624   6.797  10.228
53524SOL     OW62468   0.669  10.329   3.279
53524SOL    HW162469   0.759  10.353   3.301
53524SOL    HW262470   0.678  10.275   3.200
53525SOL     OW62471  10.343  11.537  13.105
53525SOL    HW162472  10.433  11.516  13.131
53525SOL    HW262473  10.323  11.474  13.035
53526SOL     OW62474   1.411  10.284  11.466
53526SOL    HW162475   1.496  10.272  11.422
53526SOL    HW262476   1.348  10.286  11.394
53527SOL     OW62477   1.381   0.284  12.780
53527SOL    HW162478   1.306   0.275  12.839
53527SOL    HW262479   1.422   0.366  12.805
53528SOL     OW62480   3.894   5.679  13.115
53528SOL    HW162481   3.907   5.668  13.021
53528SOL    HW262482   3.831   5.610  13.139
53529SOL     OW62483   3.578   4.354   4.720
53529SOL    HW162484   3.578   4.421   4.651
53529SOL    HW262485   3.510   4.292   4.694
53530SOL     OW62486   5.082  11.735   7.966
53530SOL    HW162487   5.151  11.718   7.901
53530SOL    HW262488   5.006  11.761   7.914
53531SOL     OW62489   1.083   3.956  12.400
53531SOL    HW162490   1.079   3.997  12.314
53531SOL    HW262491   1.114   4.026  12.458
53532SOL     OW62492   5.153   4.042   6.432
53532SOL    HW162493   5.078   4.013   6.380
53532SOL    HW262494   5.227   4.039   6.372
53533SOL     OW62495   1.150   8.178  12.446
53533SOL    HW162496   1.164   8.085  12.463
53533SOL    HW262497   1.181   8.222  12.525
53534SOL     OW62498   6.699   8.375   4.327
53534SOL    HW162499   6.677   8.290   4.290
53534SOL    HW262500   6.769   8.358   4.390
53535SOL     OW62501   0.508   9.045   4.907
53535SOL    HW162502   0.570   9.077   4.841
53535SOL    HW262503   0.482   9.123   4.956
53536SOL     OW62504  11.197  13.338   6.232
53536SOL    HW162505  11.173  13.253   6.269
53536SOL    HW262506  11.152  13.341   6.148
53537SOL     OW62507   2.916   2.936   7.863
53537SOL    HW162508   2.938   2.861   7.919
53537SOL    HW262509   2.820   2.940   7.865
53538SOL     OW62510  14.824   8.006  13.613
53538SOL    HW162511  14.806   7.915  13.588
53538SOL    HW262512  14.768   8.058  13.555
53539SOL     OW62513  12.217   2.690   7.874
53539SOL    HW162514  12.179   2.647   7.951
53539SOL    HW262515  12.226   2.781   7.900
53540SOL     OW62516   4.551   6.062   1.166
53540SOL    HW162517   4.611   6.010   1.113
53540SOL    HW262518   4.564   6.152   1.136
53541SOL     OW62519  13.305   3.177   3.756
53541SOL    HW162520  13.291   3.214   3.669
53541SOL    HW262521  13.217   3.170   3.794
53542SOL     OW62522  10.676  14.173  12.324
53542SOL    HW162523  10.601  14.152  12.381
53542SOL    HW262524  10.652  14.138  12.239
53543SOL     OW62525   1.601   1.593   5.890
53543SOL    HW162526   1.669   1.660   5.885
53543SOL    HW262527   1.620   1.546   5.972
53544SOL     OW62528  12.572   6.712  11.595
53544SOL    HW162529  12.541   6.796  11.562
53544SOL    HW262530  12.667   6.721  11.600
53545SOL     OW62531   7.427   4.880   9.795
53545SOL    HW162532   7.456   4.969   9.774
53545SOL    HW262533   7.427   4.834   9.711
53546SOL     OW62534  14.669   0.696   0.990
53546SOL    HW162535  14.599   0.652   1.038
53546SOL    HW262536  14.713   0.626   0.941
53547SOL     OW62537   2.583   8.171   2.529
53547SOL    HW162538   2.619   8.145   2.444
53547SOL    HW262539   2.567   8.088   2.574
53548SOL     OW62540  12.306   5.960   1.353
53548SOL    HW162541  12.219   5.921   1.342
53548SOL    HW262542  12.340   5.921   1.433
53549SOL     OW62543  13.118   0.685   0.702
53549SOL    HW162544  13.156   0.600   0.678
53549SOL    HW262545  13.036   0.663   0.745
53550SOL     OW62546   8.751  14.073  11.852
53550SOL    HW162547   8.696  13.999  11.876
53550SOL    HW262548   8.836  14.055  11.894
53551SOL     OW62549  11.973  12.432   5.010
53551SOL    HW162550  11.912  12.401   5.077
53551SOL    HW262551  11.984  12.358   4.951
53552SOL     OW62552   1.734   3.854   0.121
53552SOL    HW162553   1.811   3.854   0.065
53552SOL    HW262554   1.764   3.813   0.203
53553SOL     OW62555   8.648   4.067   9.266
53553SOL    HW162556   8.695   4.067   9.182
53553SOL    HW262557   8.593   4.146   9.262
53554SOL     OW62558   0.334   2.265  12.431
53554SOL    HW162559   0.424   2.296  12.422
53554SOL    HW262560   0.340   2.191  12.491
53555SOL     OW62561  10.516  13.186   0.458
53555SOL    HW162562  10.520  13.277   0.488
53555SOL    HW262563  10.427  13.175   0.426
53556SOL     OW62564   9.038   6.231  12.754
53556SOL    HW162565   8.963   6.286  12.729
53556SOL    HW262566   9.104   6.294  12.782
53557SOL     OW62567   5.624   5.664  11.692
53557SOL    HW162568   5.704   5.679  11.642
53557SOL    HW262569   5.557   5.715  11.647
53558SOL     OW62570   1.734  10.462   3.411
53558SOL    HW162571   1.708  10.496   3.326
53558SOL    HW262572   1.733  10.538   3.469
53559SOL     OW62573   1.636   6.929   7.390
53559SOL    HW162574   1.644   6.874   7.312
53559SOL    HW262575   1.555   6.978   7.377
53560SOL     OW62576   8.431  10.073   5.161
53560SOL    HW162577   8.405   9.981   5.167
53560SOL    HW262578   8.392  10.104   5.079
53561SOL     OW62579  13.656   5.745  11.460
53561SOL    HW162580  13.607   5.786  11.389
53561SOL    HW262581  13.614   5.776  11.540
53562SOL     OW62582   8.919   6.072   0.327
53562SOL    HW162583   8.874   6.156   0.337
53562SOL    HW262584   8.850   6.010   0.303
53563SOL     OW62585  11.371  13.419  13.126
53563SOL    HW162586  11.458  13.382  13.144
53563SOL    HW262587  11.339  13.447  13.212
53564SOL     OW62588   8.927   7.123   7.424
53564SOL    HW162589   8.939   7.058   7.494
53564SOL    HW262590   8.838   7.107   7.392
53565SOL     OW62591  11.968   3.843   8.100
53565SOL    HW162592  11.879   3.877   8.113
53565SOL    HW262593  12.003   3.894   8.027
53566SOL     OW62594   2.621   8.567   3.452
53566SOL    HW162595   2.593   8.655   3.477
53566SOL    HW262596   2.620   8.569   3.356
53567SOL     OW62597  13.469  14.398   2.858
53567SOL    HW162598  13.558  14.425   2.837
53567SOL    HW262599  13.422  14.480   2.875
53568SOL     OW62600   0.147   4.399   4.310
53568SOL    HW162601   0.237   4.381   4.338
53568SOL    HW262602   0.139   4.494   4.316
53569SOL     OW62603   5.373   7.198   1.356
53569SOL    HW162604   5.368   7.149   1.438
53569SOL    HW262605   5.458   7.174   1.319
53570SOL     OW62606  14.670  13.316  12.243
53570SOL    HW162607  14.762  13.303  12.220
53570SOL    HW262608  14.672  13.385  12.310
53571SOL     OW62609   1.397   6.004   1.017
53571SOL    HW162610   1.356   5.983   0.934
53571SOL    HW262611   1.438   5.923   1.045
53572SOL     OW62612  13.245   0.751  13.728
53572SOL    HW162613  13.183   0.712  13.790
53572SOL    HW262614  13.191   0.790  13.660
53573SOL     OW62615   7.030   3.651   7.590
53573SOL    HW162616   7.063   3.740   7.579
53573SOL    HW262617   6.946   3.662   7.635
53574SOL     OW62618   9.633  12.363  11.844
53574SOL    HW162619   9.633  12.355  11.939
53574SOL    HW262620   9.552  12.322  11.816
53575SOL     OW62621   6.418   2.617   5.392
53575SOL    HW162622   6.449   2.708   5.399
53575SOL    HW262623   6.329   2.626   5.357
53576SOL     OW62624  12.650   7.924   0.764
53576SOL    HW162625  12.743   7.947   0.769
53576SOL    HW262626  12.610   7.999   0.720
53577SOL     OW62627   4.855  11.647   2.330
53577SOL    HW162628   4.924  11.615   2.389
53577SOL    HW262629   4.887  11.628   2.242
53578SOL     OW62630   1.723   4.802   5.140
53578SOL    HW162631   1.713   4.848   5.224
53578SOL    HW262632   1.781   4.729   5.161
53579SOL     OW62633   8.381   9.015   3.105
53579SOL    HW162634   8.403   8.958   3.032
53579SOL    HW262635   8.289   9.038   3.091
53580SOL     OW62636   8.334   8.899  11.937
53580SOL    HW162637   8.305   8.892  11.846
53580SOL    HW262638   8.429   8.902  11.931
53581SOL     OW62639   9.034  12.623  11.334
53581SOL    HW162640   8.964  12.680  11.365
53581SOL    HW262641   9.029  12.628  11.239
53582SOL     OW62642   3.224  11.966  12.556
53582SOL    HW162643   3.135  11.941  12.531
53582SOL    HW262644   3.269  11.882  12.569
53583SOL     OW62645  13.029  10.954   4.646
53583SOL    HW162646  13.098  11.021   4.640
53583SOL    HW262647  12.993  10.965   4.734
53584SOL     OW62648  14.526  14.693   4.533
53584SOL    HW162649  14.497  14.605   4.556
53584SOL    HW262650  14.448  14.735   4.496
53585SOL     OW62651   8.096   6.500   2.500
53585SOL    HW162652   8.071   6.421   2.548
53585SOL    HW262653   8.092   6.570   2.565
53586SOL     OW62654   3.425   7.158   6.557
53586SOL    HW162655   3.417   7.249   6.527
53586SOL    HW262656   3.344   7.141   6.604
53587SOL     OW62657   4.536   2.578   6.421
53587SOL    HW162658   4.476   2.504   6.417
53587SOL    HW262659   4.480   2.654   6.438
53588SOL     OW62660   0.626   7.112   6.521
53588SOL    HW162661   0.572   7.062   6.582
53588SOL    HW262662   0.693   7.050   6.492
53589SOL     OW62663  13.567   1.608   3.608
53589SOL    HW162664  13.478   1.575   3.594
53589SOL    HW262665  13.616   1.576   3.532
53590SOL     OW62666   5.360   0.746  13.428
53590SOL    HW162667   5.352   0.839  13.447
53590SOL    HW262668   5.343   0.738  13.334
53591SOL     OW62669  14.356  12.742   5.713
53591SOL    HW162670  14.449  12.726   5.725
53591SOL    HW262671  14.313  12.661   5.739
53592SOL     OW62672   7.294  12.754  11.648
53592SOL    HW162673   7.314  12.761  11.741
53592SOL    HW262674   7.274  12.661  11.634
53593SOL     OW62675  14.610   5.425   3.838
53593SOL    HW162676  14.667   5.498   3.815
53593SOL    HW262677  14.602   5.374   3.758
53594SOL     OW62678  14.112   0.105  12.273
53594SOL    HW162679  14.081   0.195  12.285
53594SOL    HW262680  14.032   0.053  12.270
53595SOL     OW62681   5.794  13.253   9.900
53595SOL    HW162682   5.751  13.168   9.908
53595SOL    HW262683   5.734  13.314   9.942
53596SOL     OW62684  12.309  12.344  14.138
53596SOL    HW162685  12.356  12.422  14.110
53596SOL    HW262686  12.269  12.310  14.058
53597SOL     OW62687   4.659  11.200  12.908
53597SOL    HW162688   4.565  11.185  12.908
53597SOL    HW262689   4.675  11.254  12.986
53598SOL     OW62690   7.839   1.427   8.354
53598SOL    HW162691   7.864   1.519   8.365
53598SOL    HW262692   7.848   1.411   8.260
53599SOL     OW62693   1.144  13.365   2.293
53599SOL    HW162694   1.071  13.308   2.268
53599SOL    HW262695   1.221  13.322   2.257
53600SOL     OW62696   8.521   5.571   8.530
53600SOL    HW162697   8.506   5.581   8.624
53600SOL    HW262698   8.464   5.636   8.489
53601SOL     OW62699   7.463   5.707   5.683
53601SOL    HW162700   7.480   5.797   5.710
53601SOL    HW262701   7.537   5.684   5.628
53602SOL     OW62702  11.729   6.496   2.630
53602SOL    HW162703  11.708   6.540   2.713
53602SOL    HW262704  11.823   6.507   2.620
53603SOL     OW62705   0.473   9.358   1.235
53603SOL    HW162706   0.547   9.375   1.293
53603SOL    HW262707   0.474   9.431   1.173
53604SOL     OW62708  14.609  13.279   0.165
53604SOL    HW162709  14.650  13.355   0.207
53604SOL    HW262710  14.645  13.204   0.212
53605SOL     OW62711   3.219   7.617   1.313
53605SOL    HW162712   3.151   7.670   1.272
53605SOL    HW262713   3.278   7.595   1.241
53606SOL     OW62714   1.500   6.883   5.375
53606SOL    HW162715   1.432   6.949   5.369
53606SOL    HW262716   1.534   6.891   5.465
53607SOL     OW62717   0.049  13.402  14.864
53607SOL    HW162718   0.056  13.395   0.087
53607SOL    HW262719   0.124  13.456  14.838
53608SOL     OW62720   3.799   8.790  12.089
53608SOL    HW162721   3.894   8.788  12.097
53608SOL    HW262722   3.778   8.712  12.037
53609SOL     OW62723   5.821   1.021  11.499
53609SOL    HW162724   5.792   1.084  11.433
53609SOL    HW262725   5.889   0.970  11.456
53610SOL     OW62726   0.700  11.986   0.561
53610SOL    HW162727   0.644  12.015   0.634
53610SOL    HW262728   0.642  11.989   0.485
53611SOL     OW62729   6.044   4.087   4.023
53611SOL    HW162730   5.982   4.016   4.008
53611SOL    HW262731   5.997   4.148   4.080
53612SOL     OW62732   2.112   9.212   4.204
53612SOL    HW162733   2.181   9.237   4.143
53612SOL    HW262734   2.069   9.137   4.163
53613SOL     OW62735  13.077   0.545   1.631
53613SOL    HW162736  13.034   0.602   1.567
53613SOL    HW262737  13.043   0.458   1.613
53614SOL     OW62738   6.801  12.289  10.911
53614SOL    HW162739   6.845  12.355  10.858
53614SOL    HW262740   6.707  12.303  10.895
53615SOL     OW62741  12.290  13.222  14.279
53615SOL    HW162742  12.255  13.311  14.276
53615SOL    HW262743  12.384  13.233  14.293
53616SOL     OW62744   9.766  14.114   4.551
53616SOL    HW162745   9.842  14.139   4.499
53616SOL    HW262746   9.760  14.182   4.618
53617SOL     OW62747   1.111  11.782  10.179
53617SOL    HW162748   1.114  11.841  10.104
53617SOL    HW262749   1.198  11.789  10.219
53618SOL     OW62750  11.121   2.937   0.917
53618SOL    HW162751  11.136   3.031   0.902
53618SOL    HW262752  11.142   2.896   0.833
53619SOL     OW62753   8.141  14.242   2.726
53619SOL    HW162754   8.195  14.261   2.802
53619SOL    HW262755   8.077  14.178   2.756
53620SOL     OW62756  13.914   1.516   0.701
53620SOL    HW162757  13.985   1.528   0.639
53620SOL    HW262758  13.874   1.602   0.709
53621SOL     OW62759  12.910   7.430   0.879
53621SOL    HW162760  12.877   7.482   0.953
53621SOL    HW262761  12.835   7.376   0.852
53622SOL     OW62762   2.642  12.179   0.735
53622SOL    HW162763   2.726  12.133   0.738
53622SOL    HW262764   2.656  12.258   0.787
53623SOL     OW62765   8.183   1.517  10.907
53623SOL    HW162766   8.116   1.583  10.924
53623SOL    HW262767   8.150   1.468  10.831
53624SOL     OW62768   6.076   0.175   4.058
53624SOL    HW162769   6.011   0.211   3.997
53624SOL    HW262770   6.134   0.248   4.078
53625SOL     OW62771  11.946  12.978   5.972
53625SOL    HW162772  11.954  13.000   5.879
53625SOL    HW262773  12.037  12.973   6.003
53626SOL     OW62774   9.839   5.802  14.758
53626SOL    HW162775   9.923   5.795  14.712
53626SOL    HW262776   9.773   5.788  14.690
53627SOL     OW62777  13.606  12.601   6.292
53627SOL    HW162778  13.695  12.633   6.281
53627SOL    HW262779  13.597  12.588   6.387
53628SOL     OW62780  12.205   4.645   9.747
53628SOL    HW162781  12.144   4.617   9.679
53628SOL    HW262782  12.274   4.578   9.746
53629SOL     OW62783   9.584  14.810   5.182
53629SOL    HW162784   9.575  14.847   5.270
53629SOL    HW262785   9.610   0.012   5.127
53630SOL     OW62786  11.222   5.161   6.552
53630SOL    HW162787  11.192   5.247   6.583
53630SOL    HW262788  11.316   5.161   6.569
53631SOL     OW62789   8.120  13.794   5.495
53631SOL    HW162790   8.173  13.735   5.549
53631SOL    HW262791   8.162  13.879   5.506
53632SOL     OW62792   0.414   0.074  14.542
53632SOL    HW162793   0.386   0.156  14.583
53632SOL    HW262794   0.443   0.100  14.455
53633SOL     OW62795  12.574   1.917   0.960
53633SOL    HW162796  12.548   1.881   0.875
53633SOL    HW262797  12.618   1.845   1.004
53634SOL     OW62798   5.558   8.248   5.387
53634SOL    HW162799   5.526   8.337   5.401
53634SOL    HW262800   5.487   8.191   5.416
53635SOL     OW62801  10.633   4.865  10.304
53635SOL    HW162802  10.624   4.895  10.214
53635SOL    HW262803  10.727   4.864  10.320
53636SOL     OW62804   8.226   0.569  10.924
53636SOL    HW162805   8.246   0.661  10.941
53636SOL    HW262806   8.201   0.567  10.831
53637SOL     OW62807   9.882   6.451   5.715
53637SOL    HW162808   9.863   6.539   5.747
53637SOL    HW262809   9.970   6.456   5.678
53638SOL     OW62810   9.814   6.212   2.418
53638SOL    HW162811   9.764   6.278   2.369
53638SOL    HW262812   9.851   6.155   2.350
53639SOL     OW62813   4.848   6.510  14.444
53639SOL    HW162814   4.798   6.512  14.362
53639SOL    HW262815   4.835   6.596  14.483
53640SOL     OW62816   5.639   4.134   0.488
53640SOL    HW162817   5.698   4.141   0.563
53640SOL    HW262818   5.697   4.129   0.412
53641SOL     OW62819  14.406   3.030   4.260
53641SOL    HW162820  14.368   3.076   4.186
53641SOL    HW262821  14.343   3.044   4.332
53642SOL     OW62822   0.920   2.892  13.520
53642SOL    HW162823   0.865   2.967  13.542
53642SOL    HW262824   0.980   2.925  13.453
53643SOL     OW62825  11.255   1.964   2.386
53643SOL    HW162826  11.348   1.987   2.375
53643SOL    HW262827  11.256   1.888   2.444
53644SOL     OW62828   1.328  13.868   6.898
53644SOL    HW162829   1.335  13.851   6.804
53644SOL    HW262830   1.244  13.914   6.907
53645SOL     OW62831   8.128  11.417   2.700
53645SOL    HW162832   8.194  11.459   2.645
53645SOL    HW262833   8.177  11.385   2.776
53646SOL     OW62834   1.912   2.329  10.431
53646SOL    HW162835   1.919   2.266  10.360
53646SOL    HW262836   1.827   2.371  10.418
53647SOL     OW62837   4.846   8.078   0.368
53647SOL    HW162838   4.913   8.140   0.338
53647SOL    HW262839   4.872   8.057   0.458
53648SOL     OW62840   6.563   9.745   9.786
53648SOL    HW162841   6.516   9.742   9.703
53648SOL    HW262842   6.605   9.660   9.793
53649SOL     OW62843   1.370   9.188  13.321
53649SOL    HW162844   1.374   9.105  13.369
53649SOL    HW262845   1.369   9.255  13.389
53650SOL     OW62846   3.183  13.284   1.820
53650SOL    HW162847   3.262  13.321   1.780
53650SOL    HW262848   3.214  13.240   1.899
53651SOL     OW62849  13.820  10.127   1.377
53651SOL    HW162850  13.746  10.170   1.333
53651SOL    HW262851  13.850  10.190   1.442
53652SOL     OW62852  13.818  14.487   3.202
53652SOL    HW162853  13.886  14.435   3.159
53652SOL    HW262854  13.787  14.432   3.274
53653SOL     OW62855   4.941  10.717   7.356
53653SOL    HW162856   5.005  10.759   7.413
53653SOL    HW262857   4.930  10.629   7.392
53654SOL     OW62858   1.001   7.461   3.379
53654SOL    HW162859   0.991   7.490   3.289
53654SOL    HW262860   1.095   7.446   3.389
53655SOL     OW62861   3.078   4.546   8.427
53655SOL    HW162862   3.118   4.471   8.471
53655SOL    HW262863   2.987   4.519   8.413
53656SOL     OW62864   0.451   5.149  13.505
53656SOL    HW162865   0.529   5.126  13.454
53656SOL    HW262866   0.413   5.224  13.458
53657SOL     OW62867   1.962  10.166  11.718
53657SOL    HW162868   2.034  10.227  11.732
53657SOL    HW262869   1.905  10.179  11.794
53658SOL     OW62870   5.184   1.489   6.029
53658SOL    HW162871   5.186   1.585   6.036
53658SOL    HW262872   5.110   1.463   6.084
53659SOL     OW62873  10.772  12.641  10.605
53659SOL    HW162874  10.789  12.726  10.645
53659SOL    HW262875  10.710  12.599  10.664
53660SOL     OW62876   4.106   3.217  13.421
53660SOL    HW162877   4.090   3.160  13.346
53660SOL    HW262878   4.177   3.174  13.469
53661SOL     OW62879   3.463   1.789   6.463
53661SOL    HW162880   3.507   1.863   6.420
53661SOL    HW262881   3.373   1.819   6.476
53662SOL     OW62882  12.743   6.967   0.107
53662SOL    HW162883  12.728   6.881   0.144
53662SOL    HW262884  12.656   7.004   0.094
53663SOL     OW62885   1.044   2.638   4.641
53663SOL    HW162886   1.077   2.682   4.719
53663SOL    HW262887   1.123   2.604   4.598
53664SOL     OW62888  12.401   9.416  10.160
53664SOL    HW162889  12.354   9.337  10.186
53664SOL    HW262890  12.425   9.400  10.069
53665SOL     OW62891   8.587   5.694   8.162
53665SOL    HW162892   8.503   5.717   8.200
53665SOL    HW262893   8.649   5.756   8.202
53666SOL     OW62894  12.992   3.959  12.592
53666SOL    HW162895  12.978   3.869  12.565
53666SOL    HW262896  13.087   3.969  12.594
53667SOL     OW62897   6.844   3.344  11.570
53667SOL    HW162898   6.874   3.434  11.586
53667SOL    HW262899   6.923   3.291  11.576
53668SOL     OW62900  13.459  10.731   2.101
53668SOL    HW162901  13.390  10.792   2.126
53668SOL    HW262902  13.497  10.769   2.021
53669SOL     OW62903  14.580   2.950   7.406
53669SOL    HW162904  14.504   2.989   7.363
53669SOL    HW262905  14.633   3.025   7.433
53670SOL     OW62906   7.909  11.944   9.997
53670SOL    HW162907   7.895  11.881   9.926
53670SOL    HW262908   7.919  11.889  10.075
53671SOL     OW62909   5.616   9.732   4.895
53671SOL    HW162910   5.592   9.819   4.927
53671SOL    HW262911   5.677   9.749   4.824
53672SOL     OW62912   8.115   8.272   6.945
53672SOL    HW162913   8.078   8.245   6.861
53672SOL    HW262914   8.040   8.274   7.005
53673SOL     OW62915  12.639   4.573   9.088
53673SOL    HW162916  12.693   4.503   9.050
53673SOL    HW262917  12.694   4.651   9.084
53674SOL     OW62918   9.819   7.036   7.534
53674SOL    HW162919   9.818   7.099   7.463
53674SOL    HW262920   9.804   6.951   7.492
53675SOL     OW62921   7.111  12.713   3.348
53675SOL    HW162922   7.032  12.661   3.365
53675SOL    HW262923   7.144  12.736   3.435
53676SOL     OW62924   2.735   9.944   1.379
53676SOL    HW162925   2.763   9.857   1.350
53676SOL    HW262926   2.733   9.997   1.300
53677SOL     OW62927   2.730  13.623   6.840
53677SOL    HW162928   2.781  13.552   6.877
53677SOL    HW262929   2.780  13.702   6.860
53678SOL     OW62930   5.110  13.900   3.336
53678SOL    HW162931   5.076  13.811   3.323
53678SOL    HW262932   5.108  13.939   3.249
53679SOL     OW62933  11.069   2.332   8.191
53679SOL    HW162934  11.081   2.359   8.282
53679SOL    HW262935  11.156   2.305   8.162
53680SOL     OW62936  12.983   9.099   4.350
53680SOL    HW162937  13.010   9.190   4.367
53680SOL    HW262938  12.983   9.092   4.255
53681SOL     OW62939   2.149   3.569   7.394
53681SOL    HW162940   2.244   3.566   7.411
53681SOL    HW262941   2.121   3.652   7.431
53682SOL     OW62942   5.887  14.608   5.866
53682SOL    HW162943   5.811  14.647   5.823
53682SOL    HW262944   5.933  14.562   5.795
53683SOL     OW62945   5.732   8.803   6.280
53683SOL    HW162946   5.765   8.771   6.364
53683SOL    HW262947   5.692   8.727   6.239
53684SOL     OW62948   1.446  13.646  14.175
53684SOL    HW162949   1.422  13.576  14.114
53684SOL    HW262950   1.517  13.694  14.132
53685SOL     OW62951   7.316   1.335   8.219
53685SOL    HW162952   7.271   1.415   8.193
53685SOL    HW262953   7.264   1.265   8.178
53686SOL     OW62954   8.778  11.336   0.214
53686SOL    HW162955   8.750  11.299   0.131
53686SOL    HW262956   8.733  11.420   0.221
53687SOL     OW62957   5.034   4.324   2.579
53687SOL    HW162958   5.084   4.358   2.653
53687SOL    HW262959   5.095   4.268   2.532
53688SOL     OW62960   3.360  12.055   9.502
53688SOL    HW162961   3.449  12.043   9.467
53688SOL    HW262962   3.363  12.141   9.545
53689SOL     OW62963  11.950   2.783   5.505
53689SOL    HW162964  11.939   2.842   5.430
53689SOL    HW262965  11.891   2.710   5.487
53690SOL     OW62966  11.424  13.731   0.735
53690SOL    HW162967  11.331  13.710   0.735
53690SOL    HW262968  11.460  13.683   0.809
53691SOL     OW62969   6.215   9.828   1.249
53691SOL    HW162970   6.157   9.878   1.191
53691SOL    HW262971   6.264   9.771   1.189
53692SOL     OW62972   6.481   0.944  12.568
53692SOL    HW162973   6.386   0.949  12.562
53692SOL    HW262974   6.499   0.851  12.584
53693SOL     OW62975   9.491   1.358  12.776
53693SOL    HW162976   9.502   1.442  12.734
53693SOL    HW262977   9.577   1.337  12.813
53694SOL     OW62978   9.768  10.499   3.675
53694SOL    HW162979   9.763  10.536   3.763
53694SOL    HW262980   9.781  10.575   3.618
53695SOL     OW62981  12.674   7.832  14.538
53695SOL    HW162982  12.588   7.845  14.499
53695SOL    HW262983  12.734   7.876  14.478
53696SOL     OW62984  11.514  10.010   0.813
53696SOL    HW162985  11.434   9.992   0.764
53696SOL    HW262986  11.583  10.015   0.747
53697SOL     OW62987  12.645   4.930  11.553
53697SOL    HW162988  12.612   4.920  11.642
53697SOL    HW262989  12.673   4.842  11.528
53698SOL     OW62990  10.797   4.719   4.887
53698SOL    HW162991  10.770   4.811   4.884
53698SOL    HW262992  10.760   4.681   4.807
53699SOL     OW62993   6.416   1.969   4.553
53699SOL    HW162994   6.415   1.882   4.592
53699SOL    HW262995   6.347   1.966   4.486
53700SOL     OW62996   7.796   7.891   6.091
53700SOL    HW162997   7.712   7.858   6.061
53700SOL    HW262998   7.853   7.885   6.014
53701SOL     OW62999   8.192  12.763  13.665
53701SOL    HW163000   8.245  12.705  13.609
53701SOL    HW263001   8.239  12.763  13.748
53702SOL     OW63002   7.659   6.907  12.677
53702SOL    HW163003   7.698   6.993  12.689
53702SOL    HW263004   7.583   6.922  12.621
53703SOL     OW63005  11.289   7.546  14.343
53703SOL    HW163006  11.229   7.616  14.369
53703SOL    HW263007  11.372   7.590  14.328
53704SOL     OW63008  12.732   3.049   6.028
53704SOL    HW163009  12.783   3.128   6.013
53704SOL    HW263010  12.664   3.052   5.961
53705SOL     OW63011   6.198  13.696  14.842
53705SOL    HW163012   6.195  13.648   0.053
53705SOL    HW263013   6.161  13.782  14.863
53706SOL     OW63014   5.823  11.425  14.128
53706SOL    HW163015   5.856  11.507  14.163
53706SOL    HW263016   5.772  11.387  14.200
53707SOL     OW63017   4.549  11.565   3.712
53707SOL    HW163018   4.545  11.470   3.724
53707SOL    HW263019   4.610  11.595   3.780
53708SOL     OW63020   4.939  11.346  10.228
53708SOL    HW163021   4.949  11.290  10.304
53708SOL    HW263022   4.910  11.287  10.158
53709SOL     OW63023   1.874   8.521   5.424
53709SOL    HW163024   1.902   8.519   5.516
53709SOL    HW263025   1.880   8.613   5.399
53710SOL     OW63026   8.619   5.382   0.665
53710SOL    HW163027   8.697   5.437   0.675
53710SOL    HW263028   8.598   5.355   0.755
53711SOL     OW63029   7.726   5.134   7.187
53711SOL    HW163030   7.798   5.190   7.158
53711SOL    HW263031   7.658   5.148   7.121
53712SOL     OW63032  11.251   3.663   4.528
53712SOL    HW163033  11.312   3.722   4.573
53712SOL    HW263034  11.213   3.716   4.457
53713SOL     OW63035  10.520  14.509   6.150
53713SOL    HW163036  10.485  14.478   6.066
53713SOL    HW263037  10.453  14.569   6.183
53714SOL     OW63038   2.618  11.200  10.833
53714SOL    HW163039   2.607  11.293  10.815
53714SOL    HW263040   2.541  11.174  10.883
53715SOL     OW63041  11.502  12.022   5.076
53715SOL    HW163042  11.441  12.090   5.046
53715SOL    HW263043  11.588  12.063   5.071
53716SOL     OW63044   8.965   4.996   8.062
53716SOL    HW163045   8.871   4.985   8.076
53716SOL    HW263046   9.005   4.928   8.116
53717SOL     OW63047   9.806  11.048   2.809
53717SOL    HW163048   9.855  11.025   2.887
53717SOL    HW263049   9.851  11.003   2.737
53718SOL     OW63050  10.936   9.256   5.084
53718SOL    HW163051  10.900   9.343   5.101
53718SOL    HW263052  11.008   9.247   5.147
53719SOL     OW63053   5.399   8.810  13.394
53719SOL    HW163054   5.409   8.731  13.446
53719SOL    HW263055   5.334   8.862  13.441
53720SOL     OW63056   5.474  10.057   7.484
53720SOL    HW163057   5.539   9.991   7.510
53720SOL    HW263058   5.515  10.141   7.507
53721SOL     OW63059   8.107   3.675   4.901
53721SOL    HW163060   8.185   3.729   4.914
53721SOL    HW263061   8.050   3.696   4.975
53722SOL     OW63062   6.331  10.084   3.832
53722SOL    HW163063   6.367   9.999   3.855
53722SOL    HW263064   6.333  10.134   3.914
53723SOL     OW63065  12.576   4.929  13.268
53723SOL    HW163066  12.671   4.932  13.254
53723SOL    HW263067  12.559   4.840  13.298
53724SOL     OW63068   1.611   4.367   6.049
53724SOL    HW163069   1.551   4.305   6.007
53724SOL    HW263070   1.695   4.322   6.049
53725SOL     OW63071   9.961   5.097   1.219
53725SOL    HW163072   9.911   5.098   1.137
53725SOL    HW263073   9.917   5.161   1.274
53726SOL     OW63074   2.777   1.772   1.387
53726SOL    HW163075   2.757   1.854   1.342
53726SOL    HW263076   2.855   1.791   1.439
53727SOL     OW63077  13.587   0.425   8.215
53727SOL    HW163078  13.497   0.443   8.241
53727SOL    HW263079  13.633   0.509   8.227
53728SOL     OW63080  10.842  11.140   3.740
53728SOL    HW163081  10.814  11.056   3.704
53728SOL    HW263082  10.844  11.127   3.834
53729SOL     OW63083   9.868   4.054   7.006
53729SOL    HW163084   9.802   4.113   7.042
53729SOL    HW263085   9.945   4.067   7.060
53730SOL     OW63086   3.242   2.943   1.262
53730SOL    HW163087   3.160   2.909   1.298
53730SOL    HW263088   3.281   2.868   1.218
53731SOL     OW63089  11.177   0.909   7.648
53731SOL    HW163090  11.171   1.002   7.666
53731SOL    HW263091  11.224   0.872   7.723
53732SOL     OW63092  12.247  13.180   7.056
53732SOL    HW163093  12.245  13.276   7.061
53732SOL    HW263094  12.264  13.152   7.146
53733SOL     OW63095   3.609   8.455   1.097
53733SOL    HW163096   3.697   8.437   1.063
53733SOL    HW263097   3.556   8.475   1.020
53734SOL     OW63098   9.739  14.321   6.407
53734SOL    HW163099   9.754  14.308   6.500
53734SOL    HW263100   9.786  14.249   6.364
53735SOL     OW63101   2.589   6.684   6.687
53735SOL    HW163102   2.506   6.677   6.733
53735SOL    HW263103   2.644   6.738   6.745
53736SOL     OW63104  13.089   5.563   4.137
53736SOL    HW163105  13.159   5.537   4.077
53736SOL    HW263106  13.130   5.628   4.195
53737SOL     OW63107  14.403  13.321   4.813
53737SOL    HW163108  14.375  13.362   4.895
53737SOL    HW263109  14.338  13.252   4.799
53738SOL     OW63110  11.019   6.496   6.205
53738SOL    HW163111  10.971   6.418   6.179
53738SOL    HW263112  10.976   6.568   6.159
53739SOL     OW63113  12.544   3.912  12.973
53739SOL    HW163114  12.474   3.848  12.987
53739SOL    HW263115  12.623   3.860  12.962
53740SOL     OW63116   9.452   3.950   2.761
53740SOL    HW163117   9.462   4.037   2.722
53740SOL    HW263118   9.364   3.922   2.735
53741SOL     OW63119   1.946  10.490  13.034
53741SOL    HW163120   1.946  10.571  13.085
53741SOL    HW263121   2.032  10.490  12.990
53742SOL     OW63122   6.200   3.501  14.451
53742SOL    HW163123   6.214   3.511  14.545
53742SOL    HW263124   6.106   3.514  14.440
53743SOL     OW63125   1.697  13.940  13.616
53743SOL    HW163126   1.666  14.022  13.577
53743SOL    HW263127   1.634  13.874  13.587
53744SOL     OW63128   1.104   9.916  11.384
53744SOL    HW163129   1.068   9.926  11.471
53744SOL    HW263130   1.115  10.005  11.352
53745SOL     OW63131   4.702  10.577  14.747
53745SOL    HW163132   4.798  10.572  14.749
53745SOL    HW263133   4.677  10.595  14.838
53746SOL     OW63134  14.611  12.087  12.737
53746SOL    HW163135  14.685  12.087  12.676
53746SOL    HW263136  14.570  12.001  12.725
53747SOL     OW63137  13.415   4.713   9.607
53747SOL    HW163138  13.368   4.696   9.689
53747SOL    HW263139  13.507   4.695   9.627
53748SOL     OW63140  12.819   0.891  13.601
53748SOL    HW163141  12.742   0.867  13.653
53748SOL    HW263142  12.805   0.983  13.578
53749SOL     OW63143   9.566   9.227   0.318
53749SOL    HW163144   9.641   9.206   0.262
53749SOL    HW263145   9.561   9.153   0.379
53750SOL     OW63146   5.089   4.934  11.909
53750SOL    HW163147   5.121   4.894  11.990
53750SOL    HW263148   5.144   4.896  11.841
53751SOL     OW63149   7.707   3.062   4.028
53751SOL    HW163150   7.789   3.037   3.985
53751SOL    HW263151   7.642   3.000   3.996
53752SOL     OW63152   4.125   7.141   2.050
53752SOL    HW163153   4.147   7.157   1.958
53752SOL    HW263154   4.106   7.228   2.085
53753SOL     OW63155  10.908   3.236   0.778
53753SOL    HW163156  10.823   3.193   0.788
53753SOL    HW263157  10.888   3.329   0.774
53754SOL     OW63158   6.858   7.715   8.465
53754SOL    HW163159   6.771   7.685   8.491
53754SOL    HW263160   6.902   7.637   8.434
53755SOL     OW63161   0.151  13.496  12.210
53755SOL    HW163162   0.069  13.537  12.238
53755SOL    HW263163   0.220  13.543  12.257
53756SOL     OW63164   4.602   4.093   4.489
53756SOL    HW163165   4.537   4.062   4.552
53756SOL    HW263166   4.671   4.132   4.542
53757SOL     OW63167  12.186  14.161   0.623
53757SOL    HW163168  12.229  14.085   0.663
53757SOL    HW263169  12.257  14.219   0.598
53758SOL     OW63170   1.070  11.198   6.098
53758SOL    HW163171   1.027  11.116   6.121
53758SOL    HW263172   1.022  11.265   6.146
53759SOL     OW63173   1.115  12.592   2.013
53759SOL    HW163174   1.071  12.526   2.067
53759SOL    HW263175   1.084  12.576   1.924
53760SOL     OW63176  14.142   8.019   7.039
53760SOL    HW163177  14.104   8.004   7.126
53760SOL    HW263178  14.134   7.934   6.995
53761SOL     OW63179   1.357   6.653   9.740
53761SOL    HW163180   1.309   6.716   9.794
53761SOL    HW263181   1.295   6.627   9.672
53762SOL     OW63182  13.037   4.523   1.800
53762SOL    HW163183  12.942   4.517   1.811
53762SOL    HW263184  13.073   4.477   1.877
53763SOL     OW63185   9.613   7.332   5.976
53763SOL    HW163186   9.542   7.355   5.917
53763SOL    HW263187   9.665   7.267   5.929
53764SOL     OW63188  14.403   9.994   2.323
53764SOL    HW163189  14.492  10.014   2.350
53764SOL    HW263190  14.353  10.073   2.346
53765SOL     OW63191  13.503   5.456   6.321
53765SOL    HW163192  13.446   5.496   6.256
53765SOL    HW263193  13.452   5.457   6.402
53766SOL     OW63194   4.749   5.817   9.833
53766SOL    HW163195   4.821   5.856   9.883
53766SOL    HW263196   4.782   5.732   9.805
53767SOL     OW63197   5.461   2.294  11.147
53767SOL    HW163198   5.389   2.357  11.143
53767SOL    HW263199   5.425   2.213  11.109
53768SOL     OW63200  11.698   6.388   1.487
53768SOL    HW163201  11.706   6.301   1.526
53768SOL    HW263202  11.725   6.448   1.557
53769SOL     OW63203   9.009   5.008   4.638
53769SOL    HW163204   8.998   4.974   4.727
53769SOL    HW263205   9.100   4.986   4.615
53770SOL     OW63206  14.035   5.074  14.399
53770SOL    HW163207  14.054   5.168  14.400
53770SOL    HW263208  14.117   5.032  14.425
53771SOL     OW63209   3.231  11.013   8.164
53771SOL    HW163210   3.218  11.106   8.180
53771SOL    HW263211   3.143  10.976   8.159
53772SOL     OW63212   6.102  11.737   5.335
53772SOL    HW163213   6.014  11.772   5.320
53772SOL    HW263214   6.161  11.808   5.307
53773SOL     OW63215   9.090  12.289  13.983
53773SOL    HW163216   9.167  12.240  13.955
53773SOL    HW263217   9.048  12.233  14.048
53774SOL     OW63218  11.073   1.080  14.837
53774SOL    HW163219  11.024   1.077  14.755
53774SOL    HW263220  11.008   1.104   0.031
53775SOL     OW63221   5.774  12.665  13.106
53775SOL    HW163222   5.749  12.739  13.051
53775SOL    HW263223   5.714  12.668  13.180
53776SOL     OW63224   3.492  12.296  14.653
53776SOL    HW163225   3.475  12.220  14.598
53776SOL    HW263226   3.561  12.267  14.713
53777SOL     OW63227  14.078  14.622  11.717
53777SOL    HW163228  14.079  14.539  11.764
53777SOL    HW263229  14.108  14.686  11.781
53778SOL     OW63230  12.565   8.227  13.688
53778SOL    HW163231  12.520   8.211  13.771
53778SOL    HW263232  12.565   8.143  13.644
53779SOL     OW63233  12.526  12.412  10.725
53779SOL    HW163234  12.609  12.406  10.772
53779SOL    HW263235  12.516  12.327  10.684
53780SOL     OW63236   4.366   5.658   9.483
53780SOL    HW163237   4.441   5.679   9.538
53780SOL    HW263238   4.337   5.572   9.513
53781SOL     OW63239   6.705  12.232   3.135
53781SOL    HW163240   6.756  12.172   3.082
53781SOL    HW263241   6.656  12.285   3.072
53782SOL     OW63242   6.115   6.097  12.856
53782SOL    HW163243   6.210   6.110  12.856
53782SOL    HW263244   6.084   6.153  12.927
53783SOL     OW63245   5.823  13.915   1.235
53783SOL    HW163246   5.756  13.917   1.167
53783SOL    HW263247   5.798  13.841   1.291
53784SOL     OW63248   8.350  11.427   0.430
53784SOL    HW163249   8.415  11.479   0.477
53784SOL    HW263250   8.342  11.346   0.481
53785SOL     OW63251  14.218  10.599   9.853
53785SOL    HW163252  14.260  10.514   9.864
53785SOL    HW263253  14.208  10.633   9.942
53786SOL     OW63254   6.687   5.073   8.707
53786SOL    HW163255   6.655   5.155   8.668
53786SOL    HW263256   6.645   5.005   8.654
53787SOL     OW63257  11.520   6.112   1.185
53787SOL    HW163258  11.520   6.207   1.195
53787SOL    HW263259  11.613   6.088   1.188
53788SOL     OW63260   8.917   2.410   7.070
53788SOL    HW163261   8.843   2.398   7.010
53788SOL    HW263262   8.927   2.325   7.113
53789SOL     OW63263   3.237   3.290   7.254
53789SOL    HW163264   3.209   3.290   7.346
53789SOL    HW263265   3.188   3.361   7.214
53790SOL     OW63266   1.252  10.023  14.847
53790SOL    HW163267   1.294  10.102   0.008
53790SOL    HW263268   1.315   9.953  14.862
53791SOL     OW63269  13.417   7.244   3.224
53791SOL    HW163270  13.483   7.195   3.175
53791SOL    HW263271  13.439   7.336   3.209
53792SOL     OW63272   2.781  12.896  13.913
53792SOL    HW163273   2.694  12.869  13.943
53792SOL    HW263274   2.773  12.990  13.897
53793SOL     OW63275   3.268   0.793   4.268
53793SOL    HW163276   3.281   0.755   4.354
53793SOL    HW263277   3.278   0.720   4.207
53794SOL     OW63278  11.264  11.019   4.348
53794SOL    HW163279  11.302  11.081   4.285
53794SOL    HW263280  11.236  11.074   4.421
53795SOL     OW63281   7.985   9.734   0.279
53795SOL    HW163282   8.013   9.712   0.190
53795SOL    HW263283   8.021   9.821   0.295
53796SOL     OW63284   5.723  13.062   0.448
53796SOL    HW163285   5.640  13.084   0.405
53796SOL    HW263286   5.757  12.988   0.398
53797SOL     OW63287  14.754   5.943   7.847
53797SOL    HW163288  14.800   6.022   7.818
53797SOL    HW263289  14.751   5.887   7.770
53798SOL     OW63290  14.819  14.020  12.952
53798SOL    HW163291  14.800  14.030  13.046
53798SOL    HW263292   0.042  14.017  12.947
53799SOL     OW63293  14.213   1.137  12.783
53799SOL    HW163294  14.171   1.070  12.729
53799SOL    HW263295  14.220   1.097  12.870
53800SOL     OW63296  13.315  12.981   3.141
53800SOL    HW163297  13.326  12.894   3.181
53800SOL    HW263298  13.324  12.966   3.047
53801SOL     OW63299   6.740  13.789   8.824
53801SOL    HW163300   6.696  13.845   8.888
53801SOL    HW263301   6.832  13.789   8.852
53802SOL     OW63302   8.329  13.435   0.886
53802SOL    HW163303   8.361  13.389   0.964
53802SOL    HW263304   8.362  13.382   0.813
53803SOL     OW63305   4.544  14.464   6.617
53803SOL    HW163306   4.613  14.435   6.677
53803SOL    HW263307   4.563  14.418   6.535
53804SOL     OW63308   2.698   7.473   2.458
53804SOL    HW163309   2.716   7.508   2.371
53804SOL    HW263310   2.610   7.503   2.479
53805SOL     OW63311   6.098   2.451   8.106
53805SOL    HW163312   6.014   2.412   8.127
53805SOL    HW263313   6.161   2.402   8.158
53806SOL     OW63314   1.043   0.391   5.623
53806SOL    HW163315   0.989   0.332   5.571
53806SOL    HW263316   1.121   0.340   5.646
53807SOL     OW63317  12.804   8.151   9.522
53807SOL    HW163318  12.753   8.229   9.499
53807SOL    HW263319  12.772   8.084   9.461
53808SOL     OW63320   1.787   5.316   2.370
53808SOL    HW163321   1.795   5.355   2.283
53808SOL    HW263322   1.701   5.273   2.369
53809SOL     OW63323  10.518   9.073  14.482
53809SOL    HW163324  10.594   9.131  14.474
53809SOL    HW263325  10.556   8.985  14.482
53810SOL     OW63326  13.208   3.859   5.221
53810SOL    HW163327  13.127   3.908   5.208
53810SOL    HW263328  13.182   3.784   5.275
53811SOL     OW63329  13.211   5.734   5.212
53811SOL    HW163330  13.121   5.758   5.234
53811SOL    HW263331  13.256   5.818   5.201
53812SOL     OW63332   2.648   3.958   2.832
53812SOL    HW163333   2.617   3.927   2.747
53812SOL    HW263334   2.743   3.959   2.824
53813SOL     OW63335  12.432   8.660  11.172
53813SOL    HW163336  12.397   8.731  11.226
53813SOL    HW263337  12.401   8.580  11.215
53814SOL     OW63338  12.501   4.918   8.700
53814SOL    HW163339  12.509   4.847   8.764
53814SOL    HW263340  12.514   4.875   8.615
53815SOL     OW63341   1.520  11.277   7.998
53815SOL    HW163342   1.517  11.360   8.046
53815SOL    HW263343   1.487  11.299   7.911
53816SOL     OW63344   0.660   4.372   8.697
53816SOL    HW163345   0.625   4.358   8.610
53816SOL    HW263346   0.688   4.463   8.698
53817SOL     OW63347  14.585   3.851   9.293
53817SOL    HW163348  14.497   3.856   9.257
53817SOL    HW263349  14.622   3.771   9.255
53818SOL     OW63350  14.272   8.133  12.331
53818SOL    HW163351  14.201   8.124  12.267
53818SOL    HW263352  14.259   8.061  12.392
53819SOL     OW63353  14.777  12.084   1.757
53819SOL    HW163354  14.771  12.144   1.683
53819SOL    HW263355  14.857  12.035   1.743
53820SOL     OW63356   4.540   4.893   6.127
53820SOL    HW163357   4.600   4.905   6.201
53820SOL    HW263358   4.598   4.886   6.051
53821SOL     OW63359   4.519   9.017  10.369
53821SOL    HW163360   4.508   9.112  10.374
53821SOL    HW263361   4.432   8.985  10.346
53822SOL     OW63362  14.811  14.420  11.336
53822SOL    HW163363  14.781  14.375  11.257
53822SOL    HW263364  14.756  14.384  11.406
53823SOL     OW63365   5.697  14.197   0.633
53823SOL    HW163366   5.603  14.210   0.617
53823SOL    HW263367   5.706  14.103   0.647
53824SOL     OW63368  12.825   2.457  11.874
53824SOL    HW163369  12.780   2.403  11.809
53824SOL    HW263370  12.782   2.542  11.869
53825SOL     OW63371  12.290  12.905   4.430
53825SOL    HW163372  12.375  12.891   4.388
53825SOL    HW263373  12.296  12.859   4.513
53826SOL     OW63374  13.421   0.319  14.834
53826SOL    HW163375  13.466   0.402  14.853
53826SOL    HW263376  13.431   0.267   0.042
53827SOL     OW63377   0.284   1.275   3.371
53827SOL    HW163378   0.238   1.346   3.328
53827SOL    HW263379   0.281   1.203   3.308
53828SOL     OW63380   7.989   4.435  10.663
53828SOL    HW163381   7.940   4.491  10.603
53828SOL    HW263382   7.949   4.349  10.653
53829SOL     OW63383   1.136  10.045  13.567
53829SOL    HW163384   1.062  10.041  13.506
53829SOL    HW263385   1.203   9.991  13.527
53830SOL     OW63386   8.251   3.581   3.134
53830SOL    HW163387   8.263   3.631   3.053
53830SOL    HW263388   8.162   3.547   3.128
53831SOL     OW63389  13.203   7.246   5.691
53831SOL    HW163390  13.225   7.298   5.768
53831SOL    HW263391  13.116   7.212   5.709
53832SOL     OW63392   2.776   2.702  12.976
53832SOL    HW163393   2.782   2.792  12.944
53832SOL    HW263394   2.724   2.708  13.056
53833SOL     OW63395   0.757   9.465   8.646
53833SOL    HW163396   0.765   9.388   8.589
53833SOL    HW263397   0.742   9.428   8.733
53834SOL     OW63398   7.235  14.184  13.894
53834SOL    HW163399   7.224  14.279  13.890
53834SOL    HW263400   7.233  14.156  13.803
53835SOL     OW63401   6.804   6.142  10.731
53835SOL    HW163402   6.831   6.204  10.664
53835SOL    HW263403   6.741   6.190  10.785
53836SOL     OW63404   5.646   9.700  10.527
53836SOL    HW163405   5.644   9.787  10.487
53836SOL    HW263406   5.556   9.669  10.523
53837SOL     OW63407   9.474   5.162  13.608
53837SOL    HW163408   9.401   5.103  13.626
53837SOL    HW263409   9.434   5.249  13.600
53838SOL     OW63410   6.449   0.556   4.527
53838SOL    HW163411   6.497   0.629   4.566
53838SOL    HW263412   6.507   0.525   4.457
53839SOL     OW63413   6.580  13.951   7.590
53839SOL    HW163414   6.522  14.023   7.613
53839SOL    HW263415   6.665  13.992   7.574
53840SOL     OW63416   3.362   3.038  13.412
53840SOL    HW163417   3.379   3.132  13.413
53840SOL    HW263418   3.394   3.008  13.327
53841SOL     OW63419   1.724   8.327   1.605
53841SOL    HW163420   1.650   8.272   1.580
53841SOL    HW263421   1.714   8.406   1.551
53842SOL     OW63422  14.047   1.399   9.919
53842SOL    HW163423  14.093   1.315   9.927
53842SOL    HW263424  14.114   1.465   9.933
53843SOL     OW63425  13.828   5.872  10.531
53843SOL    HW163426  13.903   5.901  10.480
53843SOL    HW263427  13.762   5.940  10.518
53844SOL     OW63428   8.564  12.028   2.176
53844SOL    HW163429   8.474  12.059   2.162
53844SOL    HW263430   8.566  11.941   2.136
53845SOL     OW63431   7.922   1.400  13.415
53845SOL    HW163432   7.885   1.326  13.462
53845SOL    HW263433   7.863   1.473  13.435
53846SOL     OW63434   7.025  14.542   3.326
53846SOL    HW163435   6.940  14.547   3.369
53846SOL    HW263436   7.005  14.512   3.237
53847SOL     OW63437   2.937  11.958  13.819
53847SOL    HW163438   2.980  11.936  13.902
53847SOL    HW263439   2.885  11.880  13.798
53848SOL     OW63440   3.593   8.020   8.385
53848SOL    HW163441   3.681   8.056   8.378
53848SOL    HW263442   3.558   8.056   8.466
53849SOL     OW63443  12.355   8.982   8.600
53849SOL    HW163444  12.276   9.027   8.571
53849SOL    HW263445  12.380   9.027   8.681
53850SOL     OW63446  11.557   2.372   0.983
53850SOL    HW163447  11.627   2.322   1.025
53850SOL    HW263448  11.488   2.308   0.966
53851SOL     OW63449  13.427   4.415  13.881
53851SOL    HW163450  13.346   4.463  13.868
53851SOL    HW263451  13.430   4.398  13.975
53852SOL     OW63452   8.833   1.308  10.151
53852SOL    HW163453   8.827   1.399  10.122
53852SOL    HW263454   8.903   1.271  10.096
53853SOL     OW63455   6.106   3.758  11.052
53853SOL    HW163456   6.149   3.686  11.097
53853SOL    HW263457   6.142   3.837  11.094
53854SOL     OW63458   1.812   5.620  14.834
53854SOL    HW163459   1.827   5.598   0.054
53854SOL    HW263460   1.745   5.688  14.836
53855SOL     OW63461   7.330  10.661  12.626
53855SOL    HW163462   7.351  10.754  12.614
53855SOL    HW263463   7.243  10.651  12.588
53856SOL     OW63464   4.238   7.057  13.159
53856SOL    HW163465   4.333   7.041  13.158
53856SOL    HW263466   4.210   7.032  13.247
53857SOL     OW63467   2.415   7.149   7.514
53857SOL    HW163468   2.370   7.075   7.555
53857SOL    HW263469   2.456   7.112   7.436
53858SOL     OW63470   2.799  10.095   4.027
53858SOL    HW163471   2.732  10.047   4.075
53858SOL    HW263472   2.753  10.132   3.951
53859SOL     OW63473   1.063   7.536  10.933
53859SOL    HW163474   1.118   7.572  11.002
53859SOL    HW263475   0.973   7.552  10.963
53860SOL     OW63476  12.417   3.001  14.519
53860SOL    HW163477  12.426   2.961  14.433
53860SOL    HW263478  12.325   3.027  14.524
53861SOL     OW63479   6.992   8.256   5.144
53861SOL    HW163480   6.971   8.254   5.050
53861SOL    HW263481   7.088   8.252   5.146
53862SOL     OW63482  14.518   4.652   7.563
53862SOL    HW163483  14.613   4.664   7.568
53862SOL    HW263484  14.481   4.738   7.581
53863SOL     OW63485  10.268  12.528  11.618
53863SOL    HW163486  10.211  12.454  11.596
53863SOL    HW263487  10.324  12.538  11.540
53864SOL     OW63488   3.625  12.780  10.207
53864SOL    HW163489   3.599  12.871  10.220
53864SOL    HW263490   3.664  12.755  10.291
53865SOL     OW63491   1.975   7.330  14.137
53865SOL    HW163492   2.062   7.371  14.136
53865SOL    HW263493   1.990   7.243  14.173
53866SOL     OW63494   8.238  14.438   9.914
53866SOL    HW163495   8.172  14.412   9.978
53866SOL    HW263496   8.242  14.365   9.852
53867SOL     OW63497  10.879   1.462  10.151
53867SOL    HW163498  10.848   1.373  10.167
53867SOL    HW263499  10.881   1.503  10.238
53868SOL     OW63500  12.658  12.184   3.374
53868SOL    HW163501  12.620  12.266   3.345
53868SOL    HW263502  12.626  12.119   3.311
53869SOL     OW63503   3.558   8.501   1.336
53869SOL    HW163504   3.577   8.487   1.243
53869SOL    HW263505   3.471   8.539   1.337
53870SOL     OW63506   7.620  11.389   9.822
53870SOL    HW163507   7.553  11.326   9.795
53870SOL    HW263508   7.655  11.423   9.740
53871SOL     OW63509  10.369   6.801   5.842
53871SOL    HW163510  10.436   6.786   5.775
53871SOL    HW263511  10.418   6.802   5.924
53872SOL     OW63512  14.644   3.119   9.078
53872SOL    HW163513  14.614   3.162   8.998
53872SOL    HW263514  14.630   3.026   9.062
53873SOL     OW63515   0.928  14.749  10.233
53873SOL    HW163516   0.882  14.703  10.163
53873SOL    HW263517   0.859  14.801  10.275
53874SOL     OW63518  12.094   6.442   7.723
53874SOL    HW163519  12.134   6.401   7.799
53874SOL    HW263520  12.084   6.371   7.660
53875SOL     OW63521   2.048   8.815  13.505
53875SOL    HW163522   2.118   8.768  13.550
53875SOL    HW263523   1.967   8.787  13.550
53876SOL     OW63524   6.329  12.694   9.189
53876SOL    HW163525   6.314  12.706   9.283
53876SOL    HW263526   6.424  12.687   9.182
53877SOL     OW63527   2.299   7.196   0.186
53877SOL    HW163528   2.313   7.286   0.155
53877SOL    HW263529   2.293   7.144   0.106
53878SOL     OW63530   5.832  12.884  14.531
53878SOL    HW163531   5.905  12.894  14.591
53878SOL    HW263532   5.800  12.794  14.546
53879SOL     OW63533   8.565   5.915   4.923
53879SOL    HW163534   8.558   5.914   4.827
53879SOL    HW263535   8.513   5.991   4.949
53880SOL     OW63536  11.207   0.808   5.318
53880SOL    HW163537  11.230   0.875   5.383
53880SOL    HW263538  11.161   0.741   5.368
53881SOL     OW63539   9.677   7.614  10.700
53881SOL    HW163540   9.644   7.618  10.611
53881SOL    HW263541   9.599   7.604  10.755
53882SOL     OW63542   4.043   6.991  14.621
53882SOL    HW163543   4.120   6.938  14.643
53882SOL    HW263544   3.968   6.936  14.643
53883SOL     OW63545   0.534   2.707   9.397
53883SOL    HW163546   0.470   2.691   9.327
53883SOL    HW263547   0.514   2.796   9.426
53884SOL     OW63548   4.412   7.338  11.842
53884SOL    HW163549   4.342   7.404  11.845
53884SOL    HW263550   4.491   7.388  11.824
53885SOL     OW63551   5.855  11.371   6.411
53885SOL    HW163552   5.818  11.301   6.465
53885SOL    HW263553   5.869  11.331   6.325
53886SOL     OW63554   9.886   6.711   5.834
53886SOL    HW163555   9.962   6.749   5.789
53886SOL    HW263556   9.919   6.690   5.922
53887SOL     OW63557   0.792   3.068   5.351
53887SOL    HW163558   0.732   3.012   5.401
53887SOL    HW263559   0.816   3.015   5.275
53888SOL     OW63560  12.942   1.832  14.271
53888SOL    HW163561  12.978   1.833  14.359
53888SOL    HW263562  13.010   1.873  14.217
53889SOL     OW63563   0.836   5.694   8.666
53889SOL    HW163564   0.873   5.705   8.753
53889SOL    HW263565   0.902   5.643   8.618
53890SOL     OW63566   5.841   7.884   1.908
53890SOL    HW163567   5.892   7.961   1.935
53890SOL    HW263568   5.751   7.907   1.928
53891SOL     OW63569  12.399   0.359   0.159
53891SOL    HW163570  12.357   0.289   0.208
53891SOL    HW263571  12.363   0.351   0.071
53892SOL     OW63572   3.682  11.347  11.460
53892SOL    HW163573   3.651  11.388  11.541
53892SOL    HW263574   3.687  11.420  11.397
53893SOL     OW63575  13.501  14.387   7.252
53893SOL    HW163576  13.554  14.434   7.317
53893SOL    HW263577  13.556  14.314   7.224
53894SOL     OW63578  10.665  12.130   3.172
53894SOL    HW163579  10.698  12.197   3.232
53894SOL    HW263580  10.580  12.163   3.144
53895SOL     OW63581   9.910   7.032  11.314
53895SOL    HW163582   9.905   7.116  11.360
53895SOL    HW263583   9.819   7.012  11.291
53896SOL     OW63584   7.210   8.228   3.074
53896SOL    HW163585   7.183   8.271   2.993
53896SOL    HW263586   7.296   8.191   3.054
53897SOL     OW63587  11.406   8.696  13.417
53897SOL    HW163588  11.317   8.693  13.381
53897SOL    HW263589  11.394   8.723  13.508
53898SOL     OW63590   0.864   5.617  12.679
53898SOL    HW163591   0.828   5.557  12.745
53898SOL    HW263592   0.909   5.684  12.730
53899SOL     OW63593   6.442   6.322  12.448
53899SOL    HW163594   6.470   6.261  12.516
53899SOL    HW263595   6.389   6.386  12.495
53900SOL     OW63596   6.783   8.596  12.075
53900SOL    HW163597   6.768   8.685  12.043
53900SOL    HW263598   6.872   8.575  12.045
53901SOL     OW63599   7.843  11.173   2.598
53901SOL    HW163600   7.903  11.204   2.531
53901SOL    HW263601   7.896  11.113   2.652
53902SOL     OW63602   7.165  11.360  12.326
53902SOL    HW163603   7.239  11.359  12.387
53902SOL    HW263604   7.162  11.272  12.289
53903SOL     OW63605   4.780   7.143   4.530
53903SOL    HW163606   4.775   7.174   4.621
53903SOL    HW263607   4.873   7.147   4.509
53904SOL     OW63608   1.213  10.935  11.539
53904SOL    HW163609   1.214  11.024  11.575
53904SOL    HW263610   1.305  10.914  11.524
53905SOL     OW63611   6.073  12.305   3.453
53905SOL    HW163612   6.046  12.224   3.410
53905SOL    HW263613   6.067  12.371   3.384
53906SOL     OW63614   4.281  13.244   2.561
53906SOL    HW163615   4.321  13.322   2.601
53906SOL    HW263616   4.353  13.200   2.517
53907SOL     OW63617   4.558  12.769   2.024
53907SOL    HW163618   4.471  12.808   2.019
53907SOL    HW263619   4.544  12.683   2.065
53908SOL     OW63620   7.189   6.498  10.841
53908SOL    HW163621   7.130   6.572  10.832
53908SOL    HW263622   7.195   6.483  10.935
53909SOL     OW63623   9.334  13.009   6.461
53909SOL    HW163624   9.305  13.014   6.370
53909SOL    HW263625   9.262  12.965   6.507
53910SOL     OW63626   0.100   3.796   5.907
53910SOL    HW163627   0.125   3.869   5.850
53910SOL    HW263628   0.111   3.829   5.996
53911SOL     OW63629   0.717   6.111  12.148
53911SOL    HW163630   0.750   6.035  12.100
53911SOL    HW263631   0.707   6.080  12.238
53912SOL     OW63632   6.870  13.626  14.542
53912SOL    HW163633   6.949  13.676  14.523
53912SOL    HW263634   6.885  13.540  14.502
53913SOL     OW63635   5.412   6.858   6.412
53913SOL    HW163636   5.371   6.944   6.400
53913SOL    HW263637   5.450   6.837   6.327
53914SOL     OW63638  11.804   4.377   3.952
53914SOL    HW163639  11.829   4.423   4.032
53914SOL    HW263640  11.823   4.285   3.971
53915SOL     OW63641   2.021   9.260   1.360
53915SOL    HW163642   1.930   9.258   1.390
53915SOL    HW263643   2.054   9.346   1.387
53916SOL     OW63644   4.019   1.248   8.120
53916SOL    HW163645   3.984   1.221   8.035
53916SOL    HW263646   4.102   1.290   8.099
53917SOL     OW63647   0.789  10.560   7.195
53917SOL    HW163648   0.766  10.476   7.153
53917SOL    HW263649   0.845  10.535   7.268
53918SOL     OW63650   3.631   8.889  14.187
53918SOL    HW163651   3.610   8.799  14.211
53918SOL    HW263652   3.722   8.885  14.156
53919SOL     OW63653   0.341   7.534   3.427
53919SOL    HW163654   0.405   7.497   3.489
53919SOL    HW263655   0.259   7.534   3.476
53920SOL     OW63656  12.474   1.268   3.442
53920SOL    HW163657  12.444   1.275   3.532
53920SOL    HW263658  12.502   1.177   3.432
53921SOL     OW63659  14.765   0.269  14.770
53921SOL    HW163660  14.766   0.203  14.839
53921SOL    HW263661  14.817   0.230  14.699
53922SOL     OW63662   1.981   9.347   7.431
53922SOL    HW163663   1.998   9.269   7.483
53922SOL    HW263664   1.992   9.318   7.340
53923SOL     OW63665   4.743  14.737   1.185
53923SOL    HW163666   4.817  14.682   1.212
53923SOL    HW263667   4.708  14.693   1.108
53924SOL     OW63668   2.702   0.440   5.220
53924SOL    HW163669   2.698   0.409   5.311
53924SOL    HW263670   2.796   0.442   5.200
53925SOL     OW63671   6.263   1.928  14.403
53925SOL    HW163672   6.295   1.889  14.321
53925SOL    HW263673   6.251   1.854  14.462
53926SOL     OW63674  13.467   7.850   9.354
53926SOL    HW163675  13.425   7.785   9.299
53926SOL    HW263676  13.511   7.909   9.293
53927SOL     OW63677   4.704   6.440   5.247
53927SOL    HW163678   4.783   6.457   5.299
53927SOL    HW263679   4.707   6.505   5.177
53928SOL     OW63680   3.202   4.728  14.086
53928SOL    HW163681   3.235   4.772  14.007
53928SOL    HW263682   3.136   4.789  14.121
53929SOL     OW63683   1.729   3.612  11.973
53929SOL    HW163684   1.805   3.602  12.030
53929SOL    HW263685   1.708   3.705  11.978
53930SOL     OW63686   9.710   4.751   7.113
53930SOL    HW163687   9.653   4.683   7.148
53930SOL    HW263688   9.671   4.833   7.141
53931SOL     OW63689   0.338  13.212   0.814
53931SOL    HW163690   0.368  13.302   0.798
53931SOL    HW263691   0.256  13.206   0.764
53932SOL     OW63692  14.011   8.651   7.584
53932SOL    HW163693  14.055   8.725   7.542
53932SOL    HW263694  14.024   8.578   7.524
53933SOL     OW63695  13.030   9.224   5.868
53933SOL    HW163696  13.051   9.315   5.849
53933SOL    HW263697  12.959   9.203   5.807
53934SOL     OW63698   8.990   4.101   3.702
53934SOL    HW163699   8.975   4.079   3.794
53934SOL    HW263700   9.016   4.193   3.703
53935SOL     OW63701  10.900   8.500  11.438
53935SOL    HW163702  10.970   8.558  11.408
53935SOL    HW263703  10.883   8.528  11.528
53936SOL     OW63704   4.878   6.700   0.371
53936SOL    HW163705   4.799   6.655   0.340
53936SOL    HW263706   4.890   6.773   0.310
53937SOL     OW63707  11.220   9.271  10.006
53937SOL    HW163708  11.272   9.249   9.929
53937SOL    HW263709  11.263   9.347  10.044
53938SOL     OW63710   8.674   4.852  10.162
53938SOL    HW163711   8.700   4.833  10.252
53938SOL    HW263712   8.621   4.932  10.168
53939SOL     OW63713   4.617   2.127   8.172
53939SOL    HW163714   4.560   2.200   8.148
53939SOL    HW263715   4.556   2.058   8.199
53940SOL     OW63716  14.568  10.271   2.638
53940SOL    HW163717  14.588  10.181   2.663
53940SOL    HW263718  14.473  10.271   2.624
53941SOL     OW63719   2.010   6.021   7.108
53941SOL    HW163720   1.978   5.988   7.192
53941SOL    HW263721   1.930   6.042   7.059
53942SOL     OW63722   5.088   2.012  11.965
53942SOL    HW163723   5.141   1.933  11.950
53942SOL    HW263724   5.111   2.070  11.893
53943SOL     OW63725   2.371   6.270   6.342
53943SOL    HW163726   2.390   6.187   6.385
53943SOL    HW263727   2.456   6.306   6.320
53944SOL     OW63728  14.592   2.733  13.392
53944SOL    HW163729  14.643   2.657  13.363
53944SOL    HW263730  14.531   2.699  13.457
53945SOL     OW63731   4.380   5.588   3.551
53945SOL    HW163732   4.348   5.676   3.571
53945SOL    HW263733   4.302   5.538   3.527
53946SOL     OW63734   8.215  12.105   4.480
53946SOL    HW163735   8.207  12.105   4.576
53946SOL    HW263736   8.288  12.046   4.462
53947SOL     OW63737   1.506  10.736   4.971
53947SOL    HW163738   1.420  10.751   4.933
53947SOL    HW263739   1.506  10.787   5.052
53948SOL     OW63740   9.275  13.224   3.853
53948SOL    HW163741   9.208  13.185   3.796
53948SOL    HW263742   9.353  13.229   3.799
53949SOL     OW63743   9.527  11.864  13.781
53949SOL    HW163744   9.568  11.804  13.842
53949SOL    HW263745   9.513  11.811  13.702
53950SOL     OW63746   1.489   1.239   7.534
53950SOL    HW163747   1.484   1.271   7.624
53950SOL    HW263748   1.523   1.313   7.483
53951SOL     OW63749  14.849   3.200  14.612
53951SOL    HW163750  14.788   3.219  14.684
53951SOL    HW263751   0.058   3.175  14.656
53952SOL     OW63752   4.367   8.068   8.772
53952SOL    HW163753   4.303   8.133   8.744
53952SOL    HW263754   4.449   8.095   8.731
53953SOL     OW63755   9.621   4.954   7.852
53953SOL    HW163756   9.562   4.963   7.926
53953SOL    HW263757   9.583   5.008   7.783
53954SOL     OW63758   5.706   6.801   6.255
53954SOL    HW163759   5.773   6.779   6.320
53954SOL    HW263760   5.723   6.892   6.234
53955SOL     OW63761   6.434   7.367   3.971
53955SOL    HW163762   6.395   7.280   3.958
53955SOL    HW263763   6.522   7.350   4.004
53956SOL     OW63764   6.001   1.521   3.289
53956SOL    HW163765   5.950   1.553   3.214
53956SOL    HW263766   6.091   1.519   3.257
53957SOL     OW63767  14.288   1.373  10.092
53957SOL    HW163768  14.246   1.459  10.089
53957SOL    HW263769  14.235   1.324  10.155
53958SOL     OW63770   3.752  13.627   9.550
53958SOL    HW163771   3.737  13.636   9.645
53958SOL    HW263772   3.785  13.538   9.540
53959SOL     OW63773  10.106   9.078  13.201
53959SOL    HW163774  10.196   9.056  13.223
53959SOL    HW263775  10.103   9.080  13.106
53960SOL     OW63776   5.106  12.285  10.919
53960SOL    HW163777   5.090  12.341  10.843
53960SOL    HW263778   5.186  12.238  10.897
53961SOL     OW63779   7.971   0.741   3.719
53961SOL    HW163780   7.936   0.669   3.667
53961SOL    HW263781   7.904   0.757   3.785
53962SOL     OW63782   3.771   2.202  14.106
53962SOL    HW163783   3.831   2.153  14.162
53962SOL    HW263784   3.731   2.267  14.165
53963SOL     OW63785   8.601   8.127  12.120
53963SOL    HW163786   8.518   8.079  12.111
53963SOL    HW263787   8.667   8.058  12.125
53964SOL     OW63788  13.952   1.321   7.231
53964SOL    HW163789  14.021   1.269   7.190
53964SOL    HW263790  13.880   1.260   7.243
53965SOL     OW63791   1.532  11.254   2.406
53965SOL    HW163792   1.469  11.273   2.475
53965SOL    HW263793   1.498  11.299   2.329
53966SOL     OW63794  13.353   3.452   4.811
53966SOL    HW163795  13.331   3.535   4.854
53966SOL    HW263796  13.442   3.466   4.778
53967SOL     OW63797  14.324   0.945   1.529
53967SOL    HW163798  14.267   0.879   1.488
53967SOL    HW263799  14.274   0.977   1.604
53968SOL     OW63800   6.604   4.067   3.498
53968SOL    HW163801   6.512   4.088   3.486
53968SOL    HW263802   6.643   4.077   3.411
53969SOL     OW63803   5.201   4.045   0.707
53969SOL    HW163804   5.287   4.028   0.669
53969SOL    HW263805   5.146   4.065   0.632
53970SOL     OW63806  14.801  10.748  13.853
53970SOL    HW163807  14.796  10.825  13.796
53970SOL    HW263808   0.018  10.716  13.841
53971SOL     OW63809   4.879   2.537  14.189
53971SOL    HW163810   4.855   2.572  14.275
53971SOL    HW263811   4.968   2.570  14.173
53972SOL     OW63812   0.951   7.378   0.355
53972SOL    HW163813   0.970   7.299   0.305
53972SOL    HW263814   0.941   7.348   0.445
53973SOL     OW63815   3.725  11.976   2.450
53973SOL    HW163816   3.730  12.071   2.434
53973SOL    HW263817   3.633  11.961   2.472
53974SOL     OW63818  12.564  13.004   5.001
53974SOL    HW163819  12.577  13.052   5.083
53974SOL    HW263820  12.645  13.017   4.953
53975SOL     OW63821   4.699   5.403   9.081
53975SOL    HW163822   4.661   5.328   9.126
53975SOL    HW263823   4.761   5.440   9.144
53976SOL     OW63824   5.071   6.636  13.628
53976SOL    HW163825   5.008   6.705  13.606
53976SOL    HW263826   5.155   6.671  13.599
53977SOL     OW63827  10.061   0.452   2.276
53977SOL    HW163828  10.087   0.498   2.197
53977SOL    HW263829  10.017   0.518   2.329
53978SOL     OW63830  12.945   3.967   5.229
53978SOL    HW163831  12.858   3.995   5.202
53978SOL    HW263832  12.991   4.048   5.252
53979SOL     OW63833  12.275   6.165   8.711
53979SOL    HW163834  12.193   6.150   8.663
53979SOL    HW263835  12.343   6.125   8.656
53980SOL     OW63836  14.557   0.998   8.193
53980SOL    HW163837  14.486   0.934   8.194
53980SOL    HW263838  14.516   1.079   8.163
53981SOL     OW63839   1.089   6.295  14.744
53981SOL    HW163840   1.009   6.311  14.794
53981SOL    HW263841   1.074   6.339  14.660
53982SOL     OW63842  13.413   6.034  12.947
53982SOL    HW163843  13.350   6.092  12.903
53982SOL    HW263844  13.466   6.093  13.001
53983SOL     OW63845   3.751  13.895  11.880
53983SOL    HW163846   3.674  13.939  11.845
53983SOL    HW263847   3.824  13.955  11.862
53984SOL     OW63848   5.086  12.362   1.371
53984SOL    HW163849   5.165  12.330   1.415
53984SOL    HW263850   5.029  12.286   1.364
53985SOL     OW63851   3.754  13.015   0.170
53985SOL    HW163852   3.818  12.968   0.224
53985SOL    HW263853   3.739  12.957   0.095
53986SOL     OW63854  11.562   7.736   6.437
53986SOL    HW163855  11.523   7.796   6.373
53986SOL    HW263856  11.532   7.769   6.522
53987SOL     OW63857   2.212  10.633   2.051
53987SOL    HW163858   2.308  10.642   2.052
53987SOL    HW263859   2.187  10.645   2.143
53988SOL     OW63860  11.827   8.286   7.948
53988SOL    HW163861  11.827   8.202   7.903
53988SOL    HW263862  11.735   8.309   7.956
53989SOL     OW63863   0.906  10.463  11.109
53989SOL    HW163864   0.881  10.539  11.162
53989SOL    HW263865   0.982  10.426  11.153
53990SOL     OW63866   5.615   0.851   2.498
53990SOL    HW163867   5.641   0.760   2.488
53990SOL    HW263868   5.622   0.888   2.409
53991SOL     OW63869  13.063   1.877  13.141
53991SOL    HW163870  13.097   1.915  13.060
53991SOL    HW263871  13.142   1.861  13.194
53992SOL     OW63872   7.513   5.020   6.466
53992SOL    HW163873   7.572   5.095   6.460
53992SOL    HW263874   7.539   4.963   6.393
53993SOL     OW63875   7.202  14.604   3.676
53993SOL    HW163876   7.115  14.642   3.661
53993SOL    HW263877   7.187  14.533   3.738
53994SOL     OW63878  13.893   9.544   2.733
53994SOL    HW163879  13.867   9.451   2.729
53994SOL    HW263880  13.989   9.542   2.735
53995SOL     OW63881   0.482   5.357   8.375
53995SOL    HW163882   0.521   5.444   8.384
53995SOL    HW263883   0.533   5.315   8.306
53996SOL     OW63884   3.766   2.810   8.585
53996SOL    HW163885   3.694   2.847   8.533
53996SOL    HW263886   3.723   2.771   8.661
53997SOL     OW63887  10.138   3.831   7.003
53997SOL    HW163888  10.136   3.825   6.908
53997SOL    HW263889  10.191   3.757   7.031
53998SOL     OW63890  12.730  11.250   7.769
53998SOL    HW163891  12.662  11.307   7.806
53998SOL    HW263892  12.811  11.280   7.810
53999SOL     OW63893  10.969  12.641   2.130
53999SOL    HW163894  10.915  12.599   2.198
53999SOL    HW263895  11.030  12.696   2.179
54000SOL     OW63896   9.263   2.390  10.143
54000SOL    HW163897   9.310   2.308  10.159
54000SOL    HW263898   9.221   2.378  10.058
54001SOL     OW63899  11.668  14.217  12.822
54001SOL    HW163900  11.590  14.168  12.849
54001SOL    HW263901  11.735  14.193  12.885
54002SOL     OW63902  14.292   6.015   5.339
54002SOL    HW163903  14.362   5.956   5.312
54002SOL    HW263904  14.223   6.001   5.274
54003SOL     OW63905   4.672   7.091   6.727
54003SOL    HW163906   4.721   7.012   6.748
54003SOL    HW263907   4.722   7.162   6.767
54004SOL     OW63908   3.754   9.489   0.092
54004SOL    HW163909   3.715   9.422   0.147
54004SOL    HW263910   3.809   9.440   0.030
54005SOL     OW63911   0.779   0.032  13.866
54005SOL    HW163912   0.865   0.065  13.891
54005SOL    HW263913   0.716   0.087  13.913
54006SOL     OW63914   7.743   3.359   3.574
54006SOL    HW163915   7.680   3.390   3.509
54006SOL    HW263916   7.699   3.287   3.619
54007SOL     OW63917   3.548   3.085  10.405
54007SOL    HW163918   3.540   3.001  10.449
54007SOL    HW263919   3.576   3.146  10.473
54008SOL     OW63920   6.333   4.213  14.659
54008SOL    HW163921   6.389   4.289  14.642
54008SOL    HW263922   6.387   4.153  14.709
54009SOL     OW63923   2.592   7.984   1.344
54009SOL    HW163924   2.558   8.002   1.257
54009SOL    HW263925   2.650   7.908   1.333
54010SOL     OW63926   0.706   9.035   4.057
54010SOL    HW163927   0.663   9.036   3.971
54010SOL    HW263928   0.794   9.004   4.039
54011SOL     OW63929   9.568   1.342  14.667
54011SOL    HW163930   9.489   1.331  14.720
54011SOL    HW263931   9.636   1.292  14.713
54012SOL     OW63932  10.308   9.537   3.351
54012SOL    HW163933  10.381   9.586   3.315
54012SOL    HW263934  10.349   9.470   3.405
54013SOL     OW63935   3.905   0.534   8.822
54013SOL    HW163936   3.957   0.594   8.769
54013SOL    HW263937   3.885   0.584   8.901
54014SOL     OW63938   8.706   0.765  11.378
54014SOL    HW163939   8.675   0.692  11.324
54014SOL    HW263940   8.713   0.729  11.466
54015SOL     OW63941  13.423  10.425   5.115
54015SOL    HW163942  13.394  10.342   5.153
54015SOL    HW263943  13.367  10.491   5.156
54016SOL     OW63944   5.023   8.490  13.204
54016SOL    HW163945   5.042   8.506  13.297
54016SOL    HW263946   4.928   8.477  13.201
54017SOL     OW63947  12.347  12.879   1.390
54017SOL    HW163948  12.320  12.965   1.422
54017SOL    HW263949  12.274  12.849   1.337
54018SOL     OW63950   1.473  12.758   9.632
54018SOL    HW163951   1.540  12.773   9.565
54018SOL    HW263952   1.513  12.788   9.713
54019SOL     OW63953  11.417  14.402   9.713
54019SOL    HW163954  11.349  14.455   9.671
54019SOL    HW263955  11.397  14.312   9.687
54020SOL     OW63956  10.217   0.525   9.080
54020SOL    HW163957  10.198   0.586   9.151
54020SOL    HW263958  10.313   0.514   9.084
54021SOL     OW63959  14.840  14.117   0.521
54021SOL    HW163960  14.847  14.211   0.538
54021SOL    HW263961  14.775  14.086   0.584
54022SOL     OW63962   1.103  10.627  13.515
54022SOL    HW163963   1.061  10.554  13.470
54022SOL    HW263964   1.061  10.705  13.480
54023SOL     OW63965   2.143  12.194   8.513
54023SOL    HW163966   2.208  12.258   8.542
54023SOL    HW263967   2.074  12.197   8.579
54024SOL     OW63968  12.133   8.779   5.726
54024SOL    HW163969  12.178   8.694   5.721
54024SOL    HW263970  12.069   8.776   5.655
54025SOL     OW63971  10.429  10.497  13.308
54025SOL    HW163972  10.366  10.533  13.245
54025SOL    HW263973  10.376  10.448  13.370
54026SOL     OW63974   6.125   8.715   6.525
54026SOL    HW163975   6.204   8.724   6.579
54026SOL    HW263976   6.152   8.745   6.438
54027SOL     OW63977   2.289   4.596  12.108
54027SOL    HW163978   2.258   4.550  12.030
54027SOL    HW263979   2.314   4.526  12.169
54028SOL     OW63980   9.114   1.612   1.882
54028SOL    HW163981   9.097   1.695   1.925
54028SOL    HW263982   9.035   1.595   1.830
54029SOL     OW63983   2.763  14.666   1.293
54029SOL    HW163984   2.805  14.686   1.376
54029SOL    HW263985   2.831  14.624   1.240
54030SOL     OW63986   7.009  13.582   5.324
54030SOL    HW163987   7.096  13.622   5.317
54030SOL    HW263988   7.027  13.488   5.330
54031SOL     OW63989  10.994   6.103  10.763
54031SOL    HW163990  11.085   6.078  10.745
54031SOL    HW263991  10.993   6.130  10.854
54032SOL     OW63992   2.240  11.915  14.173
54032SOL    HW163993   2.233  11.992  14.116
54032SOL    HW263994   2.254  11.842  14.113
54033SOL     OW63995   8.407   0.890  10.304
54033SOL    HW163996   8.459   0.916  10.380
54033SOL    HW263997   8.365   0.971  10.275
54034SOL     OW63998   7.880   1.769   8.019
54034SOL    HW163999   7.967   1.796   7.989
54034SOL    HW264000   7.848   1.710   7.951
54035SOL     OW64001   3.430  13.018  14.246
54035SOL    HW164002   3.356  12.995  14.303
54035SOL    HW264003   3.488  12.942  14.251
54036SOL     OW64004   7.181  14.356   9.867
54036SOL    HW164005   7.106  14.298   9.858
54036SOL    HW264006   7.159  14.413   9.941
54037SOL     OW64007   6.967  14.471  10.282
54037SOL    HW164008   6.961  14.442  10.373
54037SOL    HW264009   6.876  14.476  10.253
54038SOL     OW64010  10.180  11.562   6.896
54038SOL    HW164011  10.168  11.495   6.830
54038SOL    HW264012  10.109  11.625   6.880
54039SOL     OW64013   2.833  12.034  11.764
54039SOL    HW164014   2.811  11.988  11.683
54039SOL    HW264015   2.912  11.990  11.796
54040SOL     OW64016   6.959  11.341   9.016
54040SOL    HW164017   6.930  11.361   8.927
54040SOL    HW264018   6.878  11.331   9.066
54041SOL     OW64019   9.034   1.303  11.950
54041SOL    HW164020   9.045   1.367  11.880
54041SOL    HW264021   8.946   1.267  11.936
54042SOL     OW64022   3.658   6.878   1.288
54042SOL    HW164023   3.717   6.855   1.359
54042SOL    HW264024   3.665   6.973   1.280
54043SOL     OW64025   1.774   6.379  13.939
54043SOL    HW164026   1.840   6.411  14.001
54043SOL    HW264027   1.714   6.453  13.929
54044SOL     OW64028   2.225   7.173   3.301
54044SOL    HW164029   2.164   7.246   3.290
54044SOL    HW264030   2.270   7.191   3.383
54045SOL     OW64031  10.842  11.875   1.936
54045SOL    HW164032  10.825  11.782   1.945
54045SOL    HW264033  10.821  11.896   1.845
54046SOL     OW64034   3.175   5.812   8.630
54046SOL    HW164035   3.139   5.729   8.601
54046SOL    HW264036   3.135   5.877   8.572
54047SOL     OW64037   3.382  10.637   6.341
54047SOL    HW164038   3.301  10.588   6.344
54047SOL    HW264039   3.422  10.614   6.257
54048SOL     OW64040   1.446   9.714   8.842
54048SOL    HW164041   1.477   9.626   8.818
54048SOL    HW264042   1.354   9.715   8.816
54049SOL     OW64043  11.149  14.051  13.528
54049SOL    HW164044  11.078  14.041  13.465
54049SOL    HW264045  11.158  14.146  13.538
54050SOL     OW64046  12.096   2.436  12.498
54050SOL    HW164047  12.034   2.402  12.562
54050SOL    HW264048  12.127   2.518  12.535
54051SOL     OW64049   3.761  14.406   4.696
54051SOL    HW164050   3.820  14.378   4.625
54051SOL    HW264051   3.810  14.474   4.742
54052SOL     OW64052   5.800   5.957   0.539
54052SOL    HW164053   5.848   6.031   0.501
54052SOL    HW264054   5.758   5.993   0.617
54053SOL     OW64055   3.711   0.900   0.791
54053SOL    HW164056   3.723   0.877   0.883
54053SOL    HW264057   3.791   0.947   0.767
54054SOL     OW64058   8.699  13.072   4.864
54054SOL    HW164059   8.751  13.043   4.790
54054SOL    HW264060   8.716  13.008   4.933
54055SOL     OW64061   9.033   0.175   9.534
54055SOL    HW164062   8.967   0.225   9.581
54055SOL    HW264063   9.104   0.164   9.597
54056SOL     OW64064   5.734  12.772   8.388
54056SOL    HW164065   5.821  12.779   8.428
54056SOL    HW264066   5.719  12.677   8.380
54057SOL     OW64067   1.306   2.600   0.050
54057SOL    HW164068   1.297   2.652   0.129
54057SOL    HW264069   1.344   2.517   0.080
54058SOL     OW64070   7.273   3.944  10.729
54058SOL    HW164071   7.278   3.888  10.806
54058SOL    HW264072   7.198   4.001  10.745
54059SOL     OW64073   9.695   3.338  10.696
54059SOL    HW164074   9.672   3.357  10.787
54059SOL    HW264075   9.784   3.371  10.686
54060SOL     OW64076   1.074   4.344   4.483
54060SOL    HW164077   1.166   4.343   4.510
54060SOL    HW264078   1.037   4.264   4.520
54061SOL     OW64079   1.662   5.456  12.445
54061SOL    HW164080   1.746   5.500  12.431
54061SOL    HW264081   1.615   5.466  12.363
54062SOL     OW64082   5.693  14.468   6.371
54062SOL    HW164083   5.760  14.501   6.431
54062SOL    HW264084   5.741  14.444   6.292
54063SOL     OW64085   3.740   1.248   6.114
54063SOL    HW164086   3.814   1.228   6.056
54063SOL    HW264087   3.769   1.221   6.201
54064SOL     OW64088   5.499   4.360   0.424
54064SOL    HW164089   5.563   4.296   0.454
54064SOL    HW264090   5.449   4.383   0.502
54065SOL     OW64091   1.033   9.038  12.238
54065SOL    HW164092   1.113   9.084  12.212
54065SOL    HW264093   1.016   8.977  12.167
54066SOL     OW64094   5.583   6.009   5.333
54066SOL    HW164095   5.672   6.015   5.367
54066SOL    HW264096   5.529   6.050   5.400
54067SOL     OW64097   2.631   7.324   5.234
54067SOL    HW164098   2.654   7.231   5.236
54067SOL    HW264099   2.536   7.326   5.228
54068SOL     OW64100  10.593   9.163   4.295
54068SOL    HW164101  10.616   9.176   4.203
54068SOL    HW264102  10.614   9.247   4.337
54069SOL     OW64103   9.815   3.018  10.828
54069SOL    HW164104   9.895   3.062  10.853
54069SOL    HW264105   9.746   3.060  10.880
54070SOL     OW64106   5.101   2.998   9.121
54070SOL    HW164107   5.079   3.068   9.182
54070SOL    HW264108   5.118   3.042   9.038
54071SOL     OW64109   4.167   3.712   9.858
54071SOL    HW164110   4.177   3.804   9.834
54071SOL    HW264111   4.084   3.709   9.906
54072SOL     OW64112   8.490   0.044  13.683
54072SOL    HW164113   8.570   0.001  13.652
54072SOL    HW264114   8.469  14.872  13.765
54073SOL     OW64115   2.043   4.389   2.898
54073SOL    HW164116   2.008   4.305   2.929
54073SOL    HW264117   2.088   4.367   2.816
54074SOL     OW64118   7.406   3.606   8.279
54074SOL    HW164119   7.448   3.520   8.288
54074SOL    HW264120   7.389   3.614   8.185
54075SOL     OW64121  10.649   0.504  13.477
54075SOL    HW164122  10.679   0.462  13.557
54075SOL    HW264123  10.706   0.580  13.466
54076SOL     OW64124   2.130   9.749  13.256
54076SOL    HW164125   2.196   9.747  13.188
54076SOL    HW264126   2.047   9.755  13.209
54077SOL     OW64127   3.509   0.012   8.924
54077SOL    HW164128   3.543   0.031   9.011
54077SOL    HW264129   3.564   0.063   8.865
54078SOL     OW64130  13.995  10.617  10.143
54078SOL    HW164131  13.919  10.603  10.086
54078SOL    HW264132  14.036  10.531  10.150
54079SOL     OW64133   9.229  10.596   8.438
54079SOL    HW164134   9.211  10.557   8.352
54079SOL    HW264135   9.297  10.539   8.476
54080SOL     OW64136   9.086   8.558  11.532
54080SOL    HW164137   9.086   8.596  11.444
54080SOL    HW264138   9.093   8.634  11.591
54081SOL     OW64139  12.983   6.319   1.229
54081SOL    HW164140  13.026   6.248   1.182
54081SOL    HW264141  12.902   6.281   1.263
54082SOL     OW64142  10.778   9.739  10.737
54082SOL    HW164143  10.728   9.725  10.657
54082SOL    HW264144  10.720   9.790  10.793
54083SOL     OW64145   7.661  12.667   4.137
54083SOL    HW164146   7.716  12.674   4.215
54083SOL    HW264147   7.681  12.747   4.087
54084SOL     OW64148   7.905   1.423   4.802
54084SOL    HW164149   7.811   1.416   4.788
54084SOL    HW264150   7.914   1.449   4.894
54085SOL     OW64151   2.813   6.912   9.017
54085SOL    HW164152   2.880   6.853   8.983
54085SOL    HW264153   2.775   6.864   9.090
54086SOL     OW64154  14.225   7.779   4.543
54086SOL    HW164155  14.166   7.751   4.613
54086SOL    HW264156  14.264   7.698   4.510
54087SOL     OW64157   0.746   7.684   2.572
54087SOL    HW164158   0.687   7.759   2.570
54087SOL    HW264159   0.698   7.613   2.530
54088SOL     OW64160   1.782   8.546  10.939
54088SOL    HW164161   1.689   8.559  10.921
54088SOL    HW264162   1.817   8.635  10.950
54089SOL     OW64163   7.768  11.208  11.217
54089SOL    HW164164   7.734  11.238  11.133
54089SOL    HW264165   7.747  11.115  11.219
54090SOL     OW64166   9.439   2.735  13.907
54090SOL    HW164167   9.504   2.679  13.864
54090SOL    HW264168   9.488   2.815  13.929
54091SOL     OW64169   2.398   7.630   7.094
54091SOL    HW164170   2.319   7.607   7.142
54091SOL    HW264171   2.462   7.564   7.120
54092SOL     OW64172   4.059   2.016   4.189
54092SOL    HW164173   3.977   2.063   4.180
54092SOL    HW264174   4.095   2.047   4.273
54093SOL     OW64175   7.762   1.304   9.291
54093SOL    HW164176   7.706   1.366   9.338
54093SOL    HW264177   7.703   1.263   9.228
54094SOL     OW64178   3.311   9.730   5.734
54094SOL    HW164179   3.300   9.805   5.792
54094SOL    HW264180   3.224   9.714   5.698
54095SOL     OW64181  12.942   9.226   2.195
54095SOL    HW164182  12.961   9.184   2.279
54095SOL    HW264183  12.847   9.235   2.194
54096SOL     OW64184  11.084  13.957   8.488
54096SOL    HW164185  11.062  14.050   8.489
54096SOL    HW264186  11.020  13.917   8.429
54097SOL     OW64187   2.704   5.447   4.801
54097SOL    HW164188   2.718   5.482   4.713
54097SOL    HW264189   2.639   5.378   4.789
54098SOL     OW64190   4.466   5.446  11.960
54098SOL    HW164191   4.476   5.418  12.051
54098SOL    HW264192   4.439   5.366  11.914
54099SOL     OW64193   4.877   2.055   7.221
54099SOL    HW164194   4.876   2.083   7.313
54099SOL    HW264195   4.881   2.137   7.172
54100SOL     OW64196  12.395  12.832  11.419
54100SOL    HW164197  12.367  12.818  11.328
54100SOL    HW264198  12.447  12.912  11.415
54101SOL     OW64199   3.048   4.789  10.316
54101SOL    HW164200   2.970   4.744  10.351
54101SOL    HW264201   3.069   4.741  10.236
54102SOL     OW64202   2.520  13.449   3.238
54102SOL    HW164203   2.470  13.386   3.289
54102SOL    HW264204   2.562  13.506   3.303
54103SOL     OW64205   7.082  11.063   0.453
54103SOL    HW164206   7.024  11.122   0.405
54103SOL    HW264207   7.148  11.121   0.493
54104SOL     OW64208  10.156   1.195   1.803
54104SOL    HW164209  10.087   1.182   1.869
54104SOL    HW264210  10.137   1.281   1.766
54105SOL     OW64211   9.979   6.049  13.082
54105SOL    HW164212   9.887   6.028  13.097
54105SOL    HW264213  10.024   5.965  13.086
54106SOL     OW64214  11.618  11.493   3.267
54106SOL    HW164215  11.596  11.559   3.332
54106SOL    HW264216  11.556  11.422   3.283
54107SOL     OW64217   4.469  10.433  14.253
54107SOL    HW164218   4.387  10.443  14.300
54107SOL    HW264219   4.444  10.439  14.160
54108SOL     OW64220  13.588  14.523   5.908
54108SOL    HW164221  13.657  14.515   5.973
54108SOL    HW264222  13.507  14.512   5.957
54109SOL     OW64223   3.737   7.465  13.279
54109SOL    HW164224   3.667   7.408  13.248
54109SOL    HW264225   3.733   7.542  13.222
54110SOL     OW64226   5.323   4.049   7.998
54110SOL    HW164227   5.318   3.969   7.947
54110SOL    HW264228   5.392   4.101   7.957
54111SOL     OW64229  13.686  12.656   0.504
54111SOL    HW164230  13.748  12.598   0.459
54111SOL    HW264231  13.633  12.694   0.434
54112SOL     OW64232   9.297   2.700   5.343
54112SOL    HW164233   9.309   2.658   5.258
54112SOL    HW264234   9.251   2.782   5.324
54113SOL     OW64235  12.046   7.553   0.232
54113SOL    HW164236  12.100   7.497   0.176
54113SOL    HW264237  11.981   7.493   0.270
54114SOL     OW64238   5.378  12.142  12.006
54114SOL    HW164239   5.317  12.182  11.944
54114SOL    HW264240   5.438  12.091  11.951
54115SOL     OW64241   5.348  10.616  14.010
54115SOL    HW164242   5.253  10.613  14.007
54115SOL    HW264243   5.370  10.606  14.102
54116SOL     OW64244   7.279   1.973   0.936
54116SOL    HW164245   7.243   1.897   0.981
54116SOL    HW264246   7.234   1.974   0.851
54117SOL     OW64247   4.083  10.558   9.367
54117SOL    HW164248   4.103  10.544   9.274
54117SOL    HW264249   4.043  10.476   9.396
54118SOL     OW64250   4.332   3.779   2.559
54118SOL    HW164251   4.338   3.856   2.616
54118SOL    HW264252   4.317   3.814   2.472
54119SOL     OW64253  14.302   5.117  12.281
54119SOL    HW164254  14.285   5.189  12.220
54119SOL    HW264255  14.237   5.050  12.258
54120SOL     OW64256   0.778  11.997   9.884
54120SOL    HW164257   0.694  11.956   9.864
54120SOL    HW264258   0.827  11.992   9.802
54121SOL     OW64259   0.873   2.690  10.214
54121SOL    HW164260   0.942   2.675  10.278
54121SOL    HW264261   0.845   2.781  10.229
54122SOL     OW64262   4.627  12.153  13.302
54122SOL    HW164263   4.589  12.228  13.346
54122SOL    HW264264   4.553  12.092  13.291
54123SOL     OW64265  14.042   1.909  12.705
54123SOL    HW164266  14.066   1.984  12.651
54123SOL    HW264267  14.016   1.841  12.643
54124SOL     OW64268   4.359   0.366  11.572
54124SOL    HW164269   4.301   0.335  11.503
54124SOL    HW264270   4.436   0.399  11.526
54125SOL     OW64271   1.361   7.311  12.799
54125SOL    HW164272   1.455   7.324  12.782
54125SOL    HW264273   1.318   7.369  12.736
54126SOL     OW64274  14.696   6.308   3.545
54126SOL    HW164275  14.723   6.340   3.631
54126SOL    HW264276  14.622   6.250   3.563
54127SOL     OW64277  12.497   7.532   4.701
54127SOL    HW164278  12.543   7.464   4.651
54127SOL    HW264279  12.567   7.591   4.730
54128SOL     OW64280   3.233   6.836  12.842
54128SOL    HW164281   3.310   6.785  12.817
54128SOL    HW264282   3.219   6.815  12.934
54129SOL     OW64283   0.989  10.402  13.364
54129SOL    HW164284   0.903  10.387  13.325
54129SOL    HW264285   1.051  10.391  13.292
54130SOL     OW64286   1.905  13.699   1.899
54130SOL    HW164287   1.841  13.708   1.828
54130SOL    HW264288   1.860  13.646   1.965
54131SOL     OW64289   6.816   2.054  10.498
54131SOL    HW164290   6.892   2.043  10.555
54131SOL    HW264291   6.852   2.045  10.409
54132SOL     OW64292  14.052   4.120   7.873
54132SOL    HW164293  14.087   4.031   7.869
54132SOL    HW264294  14.117   4.173   7.826
54133SOL     OW64295  13.791   7.010  11.089
54133SOL    HW164296  13.708   7.052  11.064
54133SOL    HW264297  13.781   6.991  11.182
54134SOL     OW64298  13.845   4.139   8.863
54134SOL    HW164299  13.831   4.233   8.852
54134SOL    HW264300  13.881   4.130   8.951
54135SOL     OW64301   2.750   8.820   9.843
54135SOL    HW164302   2.770   8.903   9.887
54135SOL    HW264303   2.727   8.845   9.754
54136SOL     OW64304  14.778   6.819   0.282
54136SOL    HW164305  14.801   6.765   0.358
54136SOL    HW264306  14.856   6.871   0.265
54137SOL     OW64307  14.834   0.260  11.653
54137SOL    HW164308  14.818   0.353  11.672
54137SOL    HW264309   0.056   0.249  11.669
54138SOL     OW64310   6.679  13.267   2.515
54138SOL    HW164311   6.655  13.179   2.485
54138SOL    HW264312   6.619  13.284   2.588
54139SOL     OW64313   5.201  13.568  13.543
54139SOL    HW164314   5.223  13.539  13.454
54139SOL    HW264315   5.275  13.539  13.596
54140SOL     OW64316   2.237   1.244   3.851
54140SOL    HW164317   2.142   1.259   3.859
54140SOL    HW264318   2.272   1.264   3.938
54141SOL     OW64319   5.331   1.001   3.351
54141SOL    HW164320   5.345   1.092   3.378
54141SOL    HW264321   5.312   0.954   3.433
54142SOL     OW64322  10.469   7.950   5.858
54142SOL    HW164323  10.487   7.861   5.886
54142SOL    HW264324  10.529   7.965   5.785
54143SOL     OW64325  12.283  11.008  13.013
54143SOL    HW164326  12.210  11.030  12.955
54143SOL    HW264327  12.360  11.011  12.956
54144SOL     OW64328  13.180  10.290   9.781
54144SOL    HW164329  13.176  10.275   9.687
54144SOL    HW264330  13.241  10.363   9.791
54145SOL     OW64331   7.018  11.237   8.371
54145SOL    HW164332   6.972  11.319   8.351
54145SOL    HW264333   6.949  11.171   8.375
54146SOL     OW64334  12.177   4.038   9.822
54146SOL    HW164335  12.117   3.975   9.863
54146SOL    HW264336  12.148   4.042   9.731
54147SOL     OW64337  12.086   9.560  10.552
54147SOL    HW164338  12.030   9.633  10.525
54147SOL    HW264339  12.092   9.570  10.647
54148SOL     OW64340   8.959   3.131   6.351
54148SOL    HW164341   8.920   3.079   6.421
54148SOL    HW264342   8.897   3.125   6.279
54149SOL     OW64343  11.466  13.472   7.844
54149SOL    HW164344  11.434  13.410   7.778
54149SOL    HW264345  11.393  13.480   7.906
54150SOL     OW64346   4.955  10.816  10.135
54150SOL    HW164347   4.890  10.844  10.199
54150SOL    HW264348   4.920  10.844  10.050
54151SOL     OW64349   4.093   9.149   6.265
54151SOL    HW164350   4.042   9.227   6.288
54151SOL    HW264351   4.184   9.175   6.280
54152SOL     OW64352   6.435   2.845   3.376
54152SOL    HW164353   6.346   2.816   3.355
54152SOL    HW264354   6.425   2.937   3.400
54153SOL     OW64355   7.212  13.127   7.219
54153SOL    HW164356   7.283  13.065   7.203
54153SOL    HW264357   7.147  13.077   7.268
54154SOL     OW64358   8.756   4.945  13.313
54154SOL    HW164359   8.742   5.018  13.374
54154SOL    HW264360   8.729   4.867  13.362
54155SOL     OW64361   7.511   2.584   5.895
54155SOL    HW164362   7.462   2.526   5.836
54155SOL    HW264363   7.467   2.575   5.979
54156SOL     OW64364   9.426  14.453   1.351
54156SOL    HW164365   9.387  14.369   1.375
54156SOL    HW264366   9.444  14.497   1.434
54157SOL     OW64367  13.104  14.226   5.285
54157SOL    HW164368  13.107  14.130   5.288
54157SOL    HW264369  13.171  14.250   5.221
54158SOL     OW64370   7.758   3.590  12.546
54158SOL    HW164371   7.793   3.513  12.593
54158SOL    HW264372   7.826   3.657  12.557
54159SOL     OW64373  11.659   6.815  10.638
54159SOL    HW164374  11.751   6.809  10.612
54159SOL    HW264375  11.636   6.727  10.667
54160SOL     OW64376   3.372  12.308   3.746
54160SOL    HW164377   3.413  12.226   3.716
54160SOL    HW264378   3.278  12.295   3.729
54161SOL     OW64379   0.779   4.307  11.077
54161SOL    HW164380   0.751   4.273  10.992
54161SOL    HW264381   0.807   4.397  11.059
54162SOL     OW64382   1.705  13.215  10.479
54162SOL    HW164383   1.768  13.270  10.434
54162SOL    HW264384   1.644  13.277  10.520
54163SOL     OW64385   8.196   2.199   1.465
54163SOL    HW164386   8.155   2.113   1.477
54163SOL    HW264387   8.124   2.261   1.469
54164SOL     OW64388   9.458   5.813  11.410
54164SOL    HW164389   9.401   5.877  11.453
54164SOL    HW264390   9.409   5.731  11.412
54165SOL     OW64391   6.406  10.389   9.450
54165SOL    HW164392   6.403  10.305   9.404
54165SOL    HW264393   6.315  10.419   9.450
54166SOL     OW64394  12.540  14.510   5.640
54166SOL    HW164395  12.625  14.505   5.683
54166SOL    HW264396  12.499  14.425   5.659
54167SOL     OW64397   8.886  13.465   6.167
54167SOL    HW164398   8.850  13.408   6.235
54167SOL    HW264399   8.946  13.523   6.214
54168SOL     OW64400   1.743   3.262   4.238
54168SOL    HW164401   1.750   3.186   4.181
54168SOL    HW264402   1.666   3.245   4.293
54169SOL     OW64403   6.093  12.720  12.892
54169SOL    HW164404   6.047  12.774  12.957
54169SOL    HW264405   6.023  12.677  12.843
54170SOL     OW64406  11.851  12.806   8.461
54170SOL    HW164407  11.936  12.839   8.431
54170SOL    HW264408  11.819  12.874   8.521
54171SOL     OW64409  10.640   2.369  13.961
54171SOL    HW164410  10.700   2.430  14.003
54171SOL    HW264411  10.637   2.396  13.870
54172SOL     OW64412   3.924   8.913   9.962
54172SOL    HW164413   3.910   9.006   9.948
54172SOL    HW264414   3.839   8.879   9.989
54173SOL     OW64415   6.435   7.593  12.907
54173SOL    HW164416   6.393   7.678  12.901
54173SOL    HW264417   6.528   7.613  12.921
54174SOL     OW64418   3.831   4.803  14.575
54174SOL    HW164419   3.792   4.881  14.536
54174SOL    HW264420   3.898   4.837  14.634
54175SOL     OW64421  14.514   1.787  12.192
54175SOL    HW164422  14.554   1.857  12.140
54175SOL    HW264423  14.465   1.736  12.128
54176SOL     OW64424  10.741  10.581  11.995
54176SOL    HW164425  10.800  10.555  12.066
54176SOL    HW264426  10.799  10.613  11.926
54177SOL     OW64427  13.503   0.855   1.815
54177SOL    HW164428  13.480   0.766   1.791
54177SOL    HW264429  13.598   0.854   1.824
54178SOL     OW64430  12.900   2.750  10.403
54178SOL    HW164431  12.903   2.840  10.434
54178SOL    HW264432  12.985   2.713  10.428
54179SOL     OW64433   7.374   1.700   9.857
54179SOL    HW164434   7.373   1.777   9.801
54179SOL    HW264435   7.411   1.730   9.939
54180SOL     OW64436  12.646   5.737   1.364
54180SOL    HW164437  12.677   5.801   1.428
54180SOL    HW264438  12.726   5.701   1.325
54181SOL     OW64439   7.177  11.926   8.348
54181SOL    HW164440   7.172  11.833   8.326
54181SOL    HW264441   7.126  11.969   8.280
54182SOL     OW64442   0.994   8.959   6.535
54182SOL    HW164443   0.997   8.947   6.630
54182SOL    HW264444   0.903   8.940   6.511
54183SOL     OW64445   0.368  10.156   0.388
54183SOL    HW164446   0.399  10.245   0.407
54183SOL    HW264447   0.273  10.165   0.383
54184SOL     OW64448  14.010   4.634   0.756
54184SOL    HW164449  14.056   4.586   0.687
54184SOL    HW264450  13.950   4.692   0.709
54185SOL     OW64451   2.322  12.542  13.331
54185SOL    HW164452   2.352  12.566  13.418
54185SOL    HW264453   2.397  12.560  13.274
54186SOL     OW64454   7.010  10.842   1.593
54186SOL    HW164455   6.934  10.849   1.536
54186SOL    HW264456   7.036  10.750   1.588
54187SOL     OW64457   1.857  10.175  10.028
54187SOL    HW164458   1.871  10.254  10.081
54187SOL    HW264459   1.803  10.119  10.084
54188SOL     OW64460   9.140   3.355   3.234
54188SOL    HW164461   9.047   3.373   3.244
54188SOL    HW264462   9.175   3.432   3.189
54189SOL     OW64463   3.560  12.366   8.860
54189SOL    HW164464   3.543  12.345   8.768
54189SOL    HW264465   3.475  12.396   8.894
54190SOL     OW64466   5.407   3.304   8.744
54190SOL    HW164467   5.451   3.224   8.773
54190SOL    HW264468   5.452   3.375   8.789
54191SOL     OW64469   2.074   5.078   2.401
54191SOL    HW164470   2.115   5.056   2.484
54191SOL    HW264471   2.011   5.147   2.423
54192SOL     OW64472  12.106   6.820   4.560
54192SOL    HW164473  12.118   6.750   4.624
54192SOL    HW264474  12.192   6.832   4.521
54193SOL     OW64475  11.500  10.306   6.191
54193SOL    HW164476  11.589  10.287   6.220
54193SOL    HW264477  11.453  10.327   6.272
54194SOL     OW64478  14.384   6.915   8.793
54194SOL    HW164479  14.355   6.826   8.772
54194SOL    HW264480  14.453   6.903   8.858
54195SOL     OW64481  12.085   3.406  12.657
54195SOL    HW164482  12.171   3.426  12.694
54195SOL    HW264483  12.029   3.477  12.688
54196SOL     OW64484   4.476   3.342  10.822
54196SOL    HW164485   4.524   3.265  10.853
54196SOL    HW264486   4.480   3.336  10.727
54197SOL     OW64487   0.237  14.363   7.242
54197SOL    HW164488   0.246  14.319   7.327
54197SOL    HW264489   0.301  14.320   7.185
54198SOL     OW64490   9.297  14.569   2.123
54198SOL    HW164491   9.281  14.627   2.198
54198SOL    HW264492   9.252  14.488   2.147
54199SOL     OW64493   5.090  10.613  10.492
54199SOL    HW164494   5.038  10.598  10.413
54199SOL    HW264495   5.025  10.622  10.562
54200SOL     OW64496   7.412  13.534   1.321
54200SOL    HW164497   7.505  13.545   1.302
54200SOL    HW264498   7.377  13.483   1.247
54201SOL     OW64499   3.552   5.871   1.572
54201SOL    HW164500   3.624   5.810   1.555
54201SOL    HW264501   3.584   5.927   1.642
54202SOL     OW64502   6.479  14.320   7.894
54202SOL    HW164503   6.447  14.356   7.977
54202SOL    HW264504   6.568  14.354   7.885
54203SOL     OW64505  12.210  12.764  12.146
54203SOL    HW164506  12.263  12.812  12.082
54203SOL    HW264507  12.224  12.672  12.125
54204SOL     OW64508   5.506   8.776   9.099
54204SOL    HW164509   5.543   8.703   9.048
54204SOL    HW264510   5.564   8.783   9.175
54205SOL     OW64511   5.078   9.703   0.296
54205SOL    HW164512   5.081   9.693   0.200
54205SOL    HW264513   5.109   9.792   0.311
54206SOL     OW64514   3.729   3.512   7.404
54206SOL    HW164515   3.776   3.430   7.393
54206SOL    HW264516   3.671   3.497   7.478
54207SOL     OW64517   2.626   3.134   0.053
54207SOL    HW164518   2.704   3.184   0.077
54207SOL    HW264519   2.562   3.156   0.121
54208SOL     OW64520   0.662  11.912  13.345
54208SOL    HW164521   0.645  11.900  13.439
54208SOL    HW264522   0.590  11.866  13.302
54209SOL     OW64523   6.140  10.007  14.359
54209SOL    HW164524   6.097  10.092  14.350
54209SOL    HW264525   6.136   9.988  14.453
54210SOL     OW64526   6.953   2.288   2.279
54210SOL    HW164527   7.002   2.348   2.335
54210SOL    HW264528   7.007   2.277   2.201
54211SOL     OW64529   2.741   3.325  13.224
54211SOL    HW164530   2.700   3.411  13.234
54211SOL    HW264531   2.692   3.284  13.152
54212SOL     OW64532   6.189  10.122   2.635
54212SOL    HW164533   6.247  10.093   2.565
54212SOL    HW264534   6.228  10.205   2.664
54213SOL     OW64535   7.874   6.555   6.862
54213SOL    HW164536   7.816   6.630   6.873
54213SOL    HW264537   7.924   6.550   6.944
54214SOL     OW64538   8.068   2.258   2.561
54214SOL    HW164539   8.068   2.323   2.490
54214SOL    HW264540   7.976   2.231   2.569
54215SOL     OW64541   5.526   5.506   3.248
54215SOL    HW164542   5.504   5.463   3.165
54215SOL    HW264543   5.442   5.538   3.281
54216SOL     OW64544   3.660   1.022  12.213
54216SOL    HW164545   3.613   1.042  12.293
54216SOL    HW264546   3.672   0.927  12.215
54217SOL     OW64547   8.771  10.559  10.535
54217SOL    HW164548   8.789  10.471  10.502
54217SOL    HW264549   8.751  10.546  10.628
54218SOL     OW64550   1.332   4.207   5.527
54218SOL    HW164551   1.322   4.117   5.498
54218SOL    HW264552   1.388   4.248   5.460
54219SOL     OW64553  14.753   7.715  13.638
54219SOL    HW164554  14.720   7.679  13.556
54219SOL    HW264555  14.807   7.645  13.675
54220SOL     OW64556   8.519   8.987   2.478
54220SOL    HW164557   8.600   8.974   2.429
54220SOL    HW264558   8.482   8.900   2.487
54221SOL     OW64559   1.661   8.253   6.584
54221SOL    HW164560   1.606   8.178   6.607
54221SOL    HW264561   1.751   8.221   6.593
54222SOL     OW64562   6.839   0.702   8.094
54222SOL    HW164563   6.870   0.654   8.017
54222SOL    HW264564   6.903   0.681   8.162
54223SOL     OW64565   5.579   5.181   3.959
54223SOL    HW164566   5.543   5.145   3.878
54223SOL    HW264567   5.640   5.249   3.930
54224SOL     OW64568   6.512   6.044  10.689
54224SOL    HW164569   6.456   5.972  10.718
54224SOL    HW264570   6.537   6.019  10.600
54225SOL     OW64571   0.543   1.696   2.880
54225SOL    HW164572   0.574   1.776   2.838
54225SOL    HW264573   0.496   1.649   2.811
54226SOL     OW64574   0.017   2.494  14.243
54226SOL    HW164575   0.063   2.570  14.279
54226SOL    HW264576   0.039   2.494  14.150
54227SOL     OW64577   3.529   5.188  12.659
54227SOL    HW164578   3.530   5.238  12.577
54227SOL    HW264579   3.508   5.253  12.725
54228SOL     OW64580  10.302  14.146   5.906
54228SOL    HW164581  10.210  14.123   5.920
54228SOL    HW264582  10.315  14.224   5.960
54229SOL     OW64583   8.544   1.092   0.882
54229SOL    HW164584   8.610   1.062   0.946
54229SOL    HW264585   8.516   1.177   0.915
54230SOL     OW64586   3.759  13.714  14.734
54230SOL    HW164587   3.847  13.706  14.699
54230SOL    HW264588   3.766  13.684  14.825
54231SOL     OW64589   3.847   5.451   2.775
54231SOL    HW164590   3.926   5.499   2.750
54231SOL    HW264591   3.815   5.413   2.693
54232SOL     OW64592   2.545  11.817   2.857
54232SOL    HW164593   2.471  11.876   2.841
54232SOL    HW264594   2.562  11.825   2.950
54233SOL     OW64595  11.523  12.770   6.091
54233SOL    HW164596  11.473  12.716   6.152
54233SOL    HW264597  11.590  12.811   6.145
54234SOL     OW64598  13.438  12.690   5.202
54234SOL    HW164599  13.516  12.713   5.151
54234SOL    HW264600  13.365  12.720   5.148
54235SOL     OW64601   8.593   5.632   2.337
54235SOL    HW164602   8.533   5.629   2.411
54235SOL    HW264603   8.674   5.670   2.374
54236SOL     OW64604  10.896   3.330   3.041
54236SOL    HW164605  10.857   3.384   2.972
54236SOL    HW264606  10.843   3.349   3.119
54237SOL     OW64607  13.038   6.072   1.860
54237SOL    HW164608  13.048   6.158   1.900
54237SOL    HW264609  13.077   6.082   1.773
54238SOL     OW64610   3.130  14.425   8.343
54238SOL    HW164611   3.093  14.513   8.333
54238SOL    HW264612   3.054  14.369   8.358
54239SOL     OW64613   4.068   5.685  11.113
54239SOL    HW164614   4.107   5.614  11.164
54239SOL    HW264615   4.079   5.659  11.022
54240SOL     OW64616  14.777  10.163  10.835
54240SOL    HW164617  14.809  10.145  10.746
54240SOL    HW264618  14.682  10.160  10.827
54241SOL     OW64619  13.576  12.747   3.784
54241SOL    HW164620  13.559  12.840   3.798
54241SOL    HW264621  13.660  12.744   3.739
54242SOL     OW64622   7.804   5.388  11.114
54242SOL    HW164623   7.732   5.344  11.069
54242SOL    HW264624   7.873   5.395  11.048
54243SOL     OW64625  11.257   5.811  12.289
54243SOL    HW164626  11.240   5.774  12.376
54243SOL    HW264627  11.251   5.906  12.302
54244SOL     OW64628   7.441   0.720  14.812
54244SOL    HW164629   7.490   0.800  14.790
54244SOL    HW264630   7.396   0.697  14.731
54245SOL     OW64631   4.986   9.766  12.159
54245SOL    HW164632   5.026   9.772  12.246
54245SOL    HW264633   4.931   9.844  12.153
54246SOL     OW64634   3.398   0.168  14.870
54246SOL    HW164635   3.443   0.251  14.857
54246SOL    HW264636   3.305   0.188  14.858
54247SOL     OW64637   4.230   5.426   9.595
54247SOL    HW164638   4.186   5.348   9.628
54247SOL    HW264639   4.182   5.499   9.635
54248SOL     OW64640  10.366   0.887   4.948
54248SOL    HW164641  10.430   0.937   4.998
54248SOL    HW264642  10.283   0.931   4.963
54249SOL     OW64643   8.881   5.855   6.957
54249SOL    HW164644   8.824   5.850   7.033
54249SOL    HW264645   8.915   5.945   6.958
54250SOL     OW64646   3.845   1.851   8.079
54250SOL    HW164647   3.821   1.882   7.991
54250SOL    HW264648   3.775   1.882   8.135
54251SOL     OW64649  12.620  12.311   7.770
54251SOL    HW164650  12.647  12.345   7.685
54251SOL    HW264651  12.524  12.321   7.771
54252SOL     OW64652   8.657  12.516  13.387
54252SOL    HW164653   8.682  12.470  13.307
54252SOL    HW264654   8.644  12.447  13.451
54253SOL     OW64655  12.214   2.550   8.347
54253SOL    HW164656  12.205   2.517   8.436
54253SOL    HW264657  12.309   2.551   8.332
54254SOL     OW64658   2.721   2.958  12.889
54254SOL    HW164659   2.790   3.023  12.876
54254SOL    HW264660   2.654   3.004  12.940
54255SOL     OW64661  13.146   9.007   9.327
54255SOL    HW164662  13.150   8.976   9.417
54255SOL    HW264663  13.227   8.976   9.287
54256SOL     OW64664   7.912   6.885  14.557
54256SOL    HW164665   7.853   6.909  14.628
54256SOL    HW264666   7.855   6.850  14.489
54257SOL     OW64667  10.681   5.566   6.245
54257SOL    HW164668  10.654   5.495   6.304
54257SOL    HW264669  10.709   5.636   6.304
54258SOL     OW64670   7.479   1.938   0.195
54258SOL    HW164671   7.510   2.021   0.159
54258SOL    HW264672   7.398   1.921   0.147
54259SOL     OW64673   7.568   7.965   3.152
54259SOL    HW164674   7.531   7.877   3.162
54259SOL    HW264675   7.512   8.007   3.087
54260SOL     OW64676   4.949   0.064   8.012
54260SOL    HW164677   4.914   0.139   7.964
54260SOL    HW264678   4.948  14.865   7.947
54261SOL     OW64679   7.083  13.187   3.839
54261SOL    HW164680   7.111  13.276   3.818
54261SOL    HW264681   6.993  13.197   3.871
54262SOL     OW64682   6.858  10.915  14.374
54262SOL    HW164683   6.870  11.009  14.386
54262SOL    HW264684   6.936  10.875  14.413
54263SOL     OW64685  10.977   9.280  13.256
54263SOL    HW164686  11.010   9.357  13.301
54263SOL    HW264687  11.019   9.283  13.170
54264SOL     OW64688  11.726   5.296   7.849
54264SOL    HW164689  11.746   5.364   7.786
54264SOL    HW264690  11.809   5.252   7.864
54265SOL     OW64691   6.260  10.179   9.319
54265SOL    HW164692   6.262  10.268   9.285
54265SOL    HW264693   6.329  10.132   9.272
54266SOL     OW64694   8.723   7.636   4.283
54266SOL    HW164695   8.754   7.656   4.372
54266SOL    HW264696   8.801   7.606   4.236
54267SOL     OW64697   1.183  14.838  14.320
54267SOL    HW164698   1.250   0.031  14.340
54267SOL    HW264699   1.230  14.756  14.310
54268SOL     OW64700  13.322   5.905   3.443
54268SOL    HW164701  13.314   5.980   3.385
54268SOL    HW264702  13.407   5.866   3.420
54269SOL     OW64703  10.751   7.577  10.814
54269SOL    HW164704  10.671   7.627  10.799
54269SOL    HW264705  10.722   7.496  10.855
54270SOL     OW64706  13.305  13.177  11.004
54270SOL    HW164707  13.293  13.138  11.091
54270SOL    HW264708  13.265  13.114  10.944
54271SOL     OW64709   5.438   9.601   2.527
54271SOL    HW164710   5.499   9.527   2.531
54271SOL    HW264711   5.433   9.623   2.434
54272SOL     OW64712   0.172   5.958   2.101
54272SOL    HW164713   0.109   5.888   2.082
54272SOL    HW264714   0.170   6.014   2.024
54273SOL     OW64715   4.523   3.615  14.583
54273SOL    HW164716   4.555   3.671  14.653
54273SOL    HW264717   4.503   3.675  14.511
54274SOL     OW64718   6.753   6.002   5.122
54274SOL    HW164719   6.838   6.046   5.120
54274SOL    HW264720   6.698   6.052   5.062
54275SOL     OW64721   1.782   5.267  10.624
54275SOL    HW164722   1.744   5.283  10.538
54275SOL    HW264723   1.815   5.353  10.652
54276SOL     OW64724   8.600   1.188  13.556
54276SOL    HW164725   8.521   1.218  13.510
54276SOL    HW264726   8.635   1.267  13.598
54277SOL     OW64727   7.645   3.496   8.937
54277SOL    HW164728   7.653   3.588   8.910
54277SOL    HW264729   7.616   3.451   8.858
54278SOL     OW64730  12.308   3.721   9.612
54278SOL    HW164731  12.257   3.746   9.535
54278SOL    HW264732  12.334   3.631   9.596
54279SOL     OW64733   2.745  12.429  10.386
54279SOL    HW164734   2.835  12.403  10.409
54279SOL    HW264735   2.697  12.347  10.380
54280SOL     OW64736  13.525   1.148   8.223
54280SOL    HW164737  13.478   1.096   8.158
54280SOL    HW264738  13.595   1.090   8.254
54281SOL     OW64739   1.353  13.881  11.709
54281SOL    HW164740   1.297  13.958  11.703
54281SOL    HW264741   1.339  13.834  11.626
54282SOL     OW64742  14.041   3.327   7.876
54282SOL    HW164743  13.976   3.274   7.923
54282SOL    HW264744  13.999   3.348   7.793
54283SOL     OW64745   4.749   0.317   6.093
54283SOL    HW164746   4.823   0.378   6.087
54283SOL    HW264747   4.785   0.233   6.064
54284SOL     OW64748   7.352   1.071   0.529
54284SOL    HW164749   7.323   1.152   0.486
54284SOL    HW264750   7.389   1.019   0.458
54285SOL     OW64751   5.706  11.538  13.048
54285SOL    HW164752   5.767  11.512  12.980
54285SOL    HW264753   5.748  11.611  13.093
54286SOL     OW64754   6.621  12.953   2.754
54286SOL    HW164755   6.669  12.873   2.731
54286SOL    HW264756   6.569  12.972   2.676
54287SOL     OW64757   5.326   5.381   7.406
54287SOL    HW164758   5.417   5.397   7.379
54287SOL    HW264759   5.300   5.462   7.450
54288SOL     OW64760  10.606  10.354  10.568
54288SOL    HW164761  10.535  10.361  10.505
54288SOL    HW264762  10.585  10.419  10.635
54289SOL     OW64763   2.277   7.420   1.478
54289SOL    HW164764   2.269   7.505   1.521
54289SOL    HW264765   2.314   7.363   1.545
54290SOL     OW64766   7.854  13.714   3.356
54290SOL    HW164767   7.879  13.800   3.322
54290SOL    HW264768   7.932  13.661   3.348
54291SOL     OW64769   1.998   5.613   1.781
54291SOL    HW164770   2.076   5.655   1.744
54291SOL    HW264771   1.945   5.590   1.705
54292SOL     OW64772   6.786  10.977  12.045
54292SOL    HW164773   6.730  11.033  11.992
54292SOL    HW264774   6.762  10.998  12.135
54293SOL     OW64775   9.427  13.292  12.604
54293SOL    HW164776   9.395  13.374  12.642
54293SOL    HW264777   9.520  13.306  12.591
54294SOL     OW64778   1.391   2.903   4.145
54294SOL    HW164779   1.404   2.994   4.117
54294SOL    HW264780   1.442   2.896   4.226
54295SOL     OW64781   3.050   3.595  10.198
54295SOL    HW164782   2.963   3.612  10.162
54295SOL    HW264783   3.069   3.504  10.175
54296SOL     OW64784   7.539   1.234   2.046
54296SOL    HW164785   7.595   1.261   2.120
54296SOL    HW264786   7.521   1.141   2.064
54297SOL     OW64787   4.062   7.475   6.871
54297SOL    HW164788   4.000   7.543   6.900
54297SOL    HW264789   4.144   7.498   6.915
54298SOL     OW64790   8.227   2.913   1.324
54298SOL    HW164791   8.203   2.932   1.234
54298SOL    HW264792   8.148   2.934   1.375
54299SOL     OW64793   3.019   6.701  13.792
54299SOL    HW164794   3.035   6.699  13.886
54299SOL    HW264795   3.092   6.653  13.754
54300SOL     OW64796   9.929   4.623   8.620
54300SOL    HW164797   9.951   4.543   8.572
54300SOL    HW264798   9.845   4.604   8.662
54301SOL     OW64799   2.634   3.661   0.799
54301SOL    HW164800   2.617   3.606   0.722
54301SOL    HW264801   2.719   3.702   0.780
54302SOL     OW64802   6.313  10.686   2.860
54302SOL    HW164803   6.239  10.648   2.813
54302SOL    HW264804   6.300  10.659   2.951
54303SOL     OW64805  11.768  13.644  12.221
54303SOL    HW164806  11.733  13.555  12.224
54303SOL    HW264807  11.833  13.642  12.151
54304SOL     OW64808   0.200  14.232  14.810
54304SOL    HW164809   0.110  14.199  14.811
54304SOL    HW264810   0.234  14.214   0.025
54305SOL     OW64811   0.142  14.001   3.042
54305SOL    HW164812   0.124  14.092   3.018
54305SOL    HW264813   0.101  13.990   3.128
54306SOL     OW64814   0.662  10.656   0.031
54306SOL    HW164815   0.748  10.680   0.066
54306SOL    HW264816   0.644  10.570   0.070
54307SOL     OW64817  13.203   6.185  10.056
54307SOL    HW164818  13.212   6.136  10.138
54307SOL    HW264819  13.168   6.270  10.082
54308SOL     OW64820   1.032  13.376   3.821
54308SOL    HW164821   0.983  13.297   3.842
54308SOL    HW264822   0.984  13.414   3.747
54309SOL     OW64823   4.115  10.075  10.342
54309SOL    HW164824   4.026  10.053  10.368
54309SOL    HW264825   4.109  10.165  10.308
54310SOL     OW64826  12.871   7.453   2.005
54310SOL    HW164827  12.838   7.538   2.034
54310SOL    HW264828  12.794   7.396   2.009
54311SOL     OW64829  12.146   5.523   2.422
54311SOL    HW164830  12.203   5.562   2.357
54311SOL    HW264831  12.187   5.438   2.442
54312SOL     OW64832   3.081   4.851  10.710
54312SOL    HW164833   3.135   4.776  10.685
54312SOL    HW264834   3.144   4.921  10.730
54313SOL     OW64835  12.928  12.585  14.319
54313SOL    HW164836  12.847  12.540  14.294
54313SOL    HW264837  12.954  12.633  14.241
54314SOL     OW64838   1.212   6.152   6.385
54314SOL    HW164839   1.299   6.187   6.367
54314SOL    HW264840   1.160   6.229   6.409
54315SOL     OW64841   2.742   4.024   1.458
54315SOL    HW164842   2.739   4.120   1.461
54315SOL    HW264843   2.691   4.001   1.381
54316SOL     OW64844   5.642   5.594  12.363
54316SOL    HW164845   5.661   5.625  12.452
54316SOL    HW264846   5.563   5.641  12.337
54317SOL     OW64847   6.626  11.130   2.944
54317SOL    HW164848   6.556  11.076   2.908
54317SOL    HW264849   6.707  11.083   2.923
54318SOL     OW64850   1.251   4.497   6.631
54318SOL    HW164851   1.326   4.492   6.573
54318SOL    HW264852   1.190   4.430   6.599
54319SOL     OW64853   0.768  13.696   5.305
54319SOL    HW164854   0.714  13.679   5.228
54319SOL    HW264855   0.728  13.643   5.374
54320SOL     OW64856   8.636  11.285  14.352
54320SOL    HW164857   8.601  11.303  14.439
54320SOL    HW264858   8.658  11.192  14.354
54321SOL     OW64859  12.903   7.324   2.740
54321SOL    HW164860  12.877   7.334   2.831
54321SOL    HW264861  12.916   7.230   2.729
54322SOL     OW64862   7.209   4.152   8.930
54322SOL    HW164863   7.303   4.165   8.915
54322SOL    HW264864   7.170   4.156   8.843
54323SOL     OW64865   1.415  10.764   9.724
54323SOL    HW164866   1.371  10.681   9.744
54323SOL    HW264867   1.497  10.739   9.684
54324SOL     OW64868   5.585   3.160  12.487
54324SOL    HW164869   5.609   3.074  12.452
54324SOL    HW264870   5.599   3.152  12.582
54325SOL     OW64871   6.727  13.272   2.206
54325SOL    HW164872   6.769  13.350   2.171
54325SOL    HW264873   6.644  13.266   2.158
54326SOL     OW64874  11.490  13.225   3.615
54326SOL    HW164875  11.524  13.161   3.554
54326SOL    HW264876  11.410  13.258   3.573
54327SOL     OW64877   6.802  14.455  10.780
54327SOL    HW164878   6.874  14.518  10.778
54327SOL    HW264879   6.723  14.509  10.783
54328SOL     OW64880  10.297  11.830  14.141
54328SOL    HW164881  10.329  11.760  14.198
54328SOL    HW264882  10.322  11.911  14.185
54329SOL     OW64883   9.618   1.922   9.554
54329SOL    HW164884   9.551   1.935   9.622
54329SOL    HW264885   9.601   1.992   9.491
54330SOL     OW64886  12.629   3.185  13.664
54330SOL    HW164887  12.704   3.159  13.717
54330SOL    HW264888  12.555   3.183  13.725
54331SOL     OW64889   0.261  13.168   1.309
54331SOL    HW164890   0.322  13.218   1.363
54331SOL    HW264891   0.301  13.167   1.222
54332SOL     OW64892   4.038   1.450   2.718
54332SOL    HW164893   4.110   1.438   2.779
54332SOL    HW264894   3.959   1.451   2.772
54333SOL     OW64895   1.788  14.705   6.391
54333SOL    HW164896   1.869  14.684   6.345
54333SOL    HW264897   1.800  14.794   6.423
54334SOL     OW64898   0.186  12.516   0.787
54334SOL    HW164899   0.206  12.606   0.811
54334SOL    HW264900   0.269  12.469   0.796
54335SOL     OW64901  10.407   0.146   9.460
54335SOL    HW164902  10.356   0.071   9.430
54335SOL    HW264903  10.395   0.147   9.555
54336SOL     OW64904   7.325   0.472   1.819
54336SOL    HW164905   7.277   0.511   1.745
54336SOL    HW264906   7.275   0.497   1.896
54337SOL     OW64907  12.591   2.223   3.682
54337SOL    HW164908  12.601   2.138   3.639
54337SOL    HW264909  12.540   2.204   3.761
54338SOL     OW64910   1.552   8.590   8.475
54338SOL    HW164911   1.623   8.591   8.539
54338SOL    HW264912   1.543   8.498   8.451
54339SOL     OW64913  12.206   9.642   2.808
54339SOL    HW164914  12.231   9.728   2.839
54339SOL    HW264915  12.241   9.581   2.873
54340SOL     OW64916   6.565  12.630   5.817
54340SOL    HW164917   6.579  12.558   5.756
54340SOL    HW264918   6.487  12.605   5.866
54341SOL     OW64919  11.320   2.729  12.335
54341SOL    HW164920  11.386   2.770  12.392
54341SOL    HW264921  11.236   2.760  12.369
54342SOL     OW64922  13.125   5.838   6.257
54342SOL    HW164923  13.062   5.825   6.327
54342SOL    HW264924  13.104   5.923   6.220
54343SOL     OW64925   5.737   9.746   6.143
54343SOL    HW164926   5.661   9.703   6.103
54343SOL    HW264927   5.813   9.705   6.101
54344SOL     OW64928  13.172   1.958   2.483
54344SOL    HW164929  13.168   2.037   2.430
54344SOL    HW264930  13.254   1.916   2.457
54345SOL     OW64931   9.348   1.909   5.070
54345SOL    HW164932   9.352   1.978   5.003
54345SOL    HW264933   9.273   1.932   5.124
54346SOL     OW64934  13.383   1.709   6.936
54346SOL    HW164935  13.473   1.706   6.967
54346SOL    HW264936  13.368   1.622   6.898
54347SOL     OW64937   2.580   5.771  13.162
54347SOL    HW164938   2.663   5.731  13.188
54347SOL    HW264939   2.546   5.809  13.243
54348SOL     OW64940  12.771   3.211   2.097
54348SOL    HW164941  12.704   3.231   2.031
54348SOL    HW264942  12.850   3.195   2.047
54349SOL     OW64943   4.227  12.953   1.103
54349SOL    HW164944   4.170  12.929   1.030
54349SOL    HW264945   4.214  12.883   1.167
54350SOL     OW64946   3.452   8.209   5.518
54350SOL    HW164947   3.356   8.201   5.516
54350SOL    HW264948   3.484   8.129   5.478
54351SOL     OW64949   5.832   7.399   4.944
54351SOL    HW164950   5.749   7.439   4.919
54351SOL    HW264951   5.858   7.444   5.024
54352SOL     OW64952   7.614   2.987   6.120
54352SOL    HW164953   7.684   2.950   6.067
54352SOL    HW264954   7.534   2.951   6.082
54353SOL     OW64955   5.405   3.754   8.160
54353SOL    HW164956   5.390   3.804   8.079
54353SOL    HW264957   5.482   3.795   8.199
54354SOL     OW64958   5.298   6.898   5.006
54354SOL    HW164959   5.354   6.823   4.988
54354SOL    HW264960   5.356   6.961   5.049
54355SOL     OW64961   2.762   6.086   4.308
54355SOL    HW164962   2.777   6.018   4.242
54355SOL    HW264963   2.773   6.040   4.392
54356SOL     OW64964   3.503   4.230  10.590
54356SOL    HW164965   3.482   4.276  10.509
54356SOL    HW264966   3.445   4.154  10.590
54357SOL     OW64967   9.444   8.787   9.276
54357SOL    HW164968   9.375   8.837   9.233
54357SOL    HW264969   9.399   8.713   9.317
54358SOL     OW64970   5.024  14.281  10.687
54358SOL    HW164971   5.077  14.360  10.698
54358SOL    HW264972   5.074  14.212  10.730
54359SOL     OW64973   6.185   9.135   8.703
54359SOL    HW164974   6.173   9.213   8.648
54359SOL    HW264975   6.169   9.167   8.792
54360SOL     OW64976  13.412  12.911   1.576
54360SOL    HW164977  13.369  12.829   1.551
54360SOL    HW264978  13.454  12.941   1.496
54361SOL     OW64979   5.192   7.984  10.001
54361SOL    HW164980   5.102   7.977   9.969
54361SOL    HW264981   5.236   8.042   9.939
54362SOL     OW64982   1.558   5.241   5.294
54362SOL    HW164983   1.622   5.277   5.355
54362SOL    HW264984   1.572   5.147   5.296
54363SOL     OW64985   8.289   0.405  14.153
54363SOL    HW164986   8.234   0.435  14.226
54363SOL    HW264987   8.356   0.350  14.195
54364SOL     OW64988  11.922   8.560   8.529
54364SOL    HW164989  11.872   8.589   8.605
54364SOL    HW264990  11.862   8.569   8.456
54365SOL     OW64991   5.828   2.178   8.546
54365SOL    HW164992   5.849   2.085   8.538
54365SOL    HW264993   5.732   2.181   8.545
54366SOL     OW64994  12.744  10.422   8.284
54366SOL    HW164995  12.740  10.484   8.212
54366SOL    HW264996  12.744  10.336   8.243
54367SOL     OW64997  14.476   7.974   0.297
54367SOL    HW164998  14.442   7.940   0.213
54367SOL    HW264999  14.462   8.069   0.292
54368SOL     OW65000   2.138  14.035   4.867
54368SOL    HW165001   2.204  14.101   4.883
54368SOL    HW265002   2.060  14.067   4.912
54369SOL     OW65003   3.446  12.550  11.410
54369SOL    HW165004   3.540  12.542  11.427
54369SOL    HW265005   3.405  12.525  11.493
54370SOL     OW65006   9.193   6.750   0.392
54370SOL    HW165007   9.224   6.668   0.354
54370SOL    HW265008   9.099   6.750   0.376
54371SOL     OW65009   3.018   4.286  12.050
54371SOL    HW165010   2.942   4.336  12.020
54371SOL    HW265011   3.027   4.311  12.142
54372SOL     OW65012  12.588  12.541   9.335
54372SOL    HW165013  12.621  12.621   9.294
54372SOL    HW265014  12.532  12.501   9.269
54373SOL     OW65015  12.606   1.079   2.600
54373SOL    HW165016  12.686   1.041   2.564
54373SOL    HW265017  12.543   1.007   2.599
54374SOL     OW65018   0.613   3.118   2.738
54374SOL    HW165019   0.597   3.044   2.679
54374SOL    HW265020   0.702   3.146   2.717
54375SOL     OW65021   2.701   3.824  13.939
54375SOL    HW165022   2.733   3.740  13.906
54375SOL    HW265023   2.701   3.814  14.034
54376SOL     OW65024  10.419   7.254   0.819
54376SOL    HW165025  10.402   7.250   0.913
54376SOL    HW265026  10.373   7.333   0.789
54377SOL     OW65027  11.952   9.414  13.826
54377SOL    HW165028  11.990   9.449  13.746
54377SOL    HW265029  11.954   9.487  13.888
54378SOL     OW65030   2.192  10.788   9.997
54378SOL    HW165031   2.212  10.699   9.969
54378SOL    HW265032   2.231  10.844   9.930
54379SOL     OW65033   6.440  10.462   1.129
54379SOL    HW165034   6.405  10.543   1.165
54379SOL    HW265035   6.480  10.487   1.046
54380SOL     OW65036  12.530   8.929  11.917
54380SOL    HW165037  12.541   8.989  11.844
54380SOL    HW265038  12.587   8.855  11.897
54381SOL     OW65039   9.885  14.323  12.884
54381SOL    HW165040   9.970  14.367  12.878
54381SOL    HW265041   9.874  14.282  12.799
54382SOL     OW65042  12.265  13.445   6.015
54382SOL    HW165043  12.269  13.534   5.981
54382SOL    HW265044  12.255  13.390   5.937
54383SOL     OW65045   2.476   9.155   8.085
54383SOL    HW165046   2.498   9.065   8.108
54383SOL    HW265047   2.381   9.159   8.092
54384SOL     OW65048   5.024   3.854  11.111
54384SOL    HW165049   4.945   3.892  11.071
54384SOL    HW265050   5.086   3.926  11.115
54385SOL     OW65051  12.472   6.196  14.302
54385SOL    HW165052  12.405   6.259  14.330
54385SOL    HW265053  12.474   6.205  14.207
54386SOL     OW65054   9.964   5.956   3.636
54386SOL    HW165055   9.892   5.953   3.699
54386SOL    HW265056   9.922   5.954   3.550
54387SOL     OW65057   3.953   9.497   9.373
54387SOL    HW165058   3.869   9.536   9.349
54387SOL    HW265059   3.969   9.526   9.463
54388SOL     OW65060  13.136   5.286   5.155
54388SOL    HW165061  13.120   5.231   5.078
54388SOL    HW265062  13.197   5.235   5.209
54389SOL     OW65063  13.343  10.509   7.288
54389SOL    HW165064  13.411  10.466   7.237
54389SOL    HW265065  13.360  10.484   7.378
54390SOL     OW65066   1.787   6.630  13.314
54390SOL    HW165067   1.826   6.645  13.228
54390SOL    HW265068   1.695   6.609  13.296
54391SOL     OW65069   8.436   7.712   6.791
54391SOL    HW165070   8.391   7.795   6.775
54391SOL    HW265071   8.365   7.649   6.808
54392SOL     OW65072   7.756  14.719   4.048
54392SOL    HW165073   7.782  14.632   4.015
54392SOL    HW265074   7.812  14.733   4.124
54393SOL     OW65075   6.987   9.569   5.645
54393SOL    HW165076   6.897   9.602   5.638
54393SOL    HW265077   7.003   9.522   5.564
54394SOL     OW65078   3.951   3.806   0.281
54394SOL    HW165079   4.045   3.814   0.265
54394SOL    HW265080   3.910   3.843   0.203
54395SOL     OW65081  11.482  14.050  12.974
54395SOL    HW165082  11.443  14.037  13.060
54395SOL    HW265083  11.562  13.997  12.975
54396SOL     OW65084   5.275   9.904  11.019
54396SOL    HW165085   5.332   9.828  11.032
54396SOL    HW265086   5.211   9.874  10.954
54397SOL     OW65087   4.355   1.607  13.540
54397SOL    HW165088   4.433   1.655  13.565
54397SOL    HW265089   4.308   1.667  13.481
54398SOL     OW65090   7.805  11.043   1.935
54398SOL    HW165091   7.819  11.060   2.029
54398SOL    HW265092   7.816  10.949   1.926
54399SOL     OW65093   1.843   5.170  10.934
54399SOL    HW165094   1.843   5.200  10.843
54399SOL    HW265095   1.898   5.091  10.934
54400SOL     OW65096   6.079   7.767   2.314
54400SOL    HW165097   6.102   7.727   2.230
54400SOL    HW265098   6.095   7.699   2.379
54401SOL     OW65099   2.243  10.110   1.930
54401SOL    HW165100   2.259  10.203   1.948
54401SOL    HW265101   2.189  10.109   1.852
54402SOL     OW65102   9.548  10.560   7.761
54402SOL    HW165103   9.586  10.529   7.679
54402SOL    HW265104   9.488  10.491   7.788
54403SOL     OW65105   1.269  12.920  13.403
54403SOL    HW165106   1.346  12.974  13.420
54403SOL    HW265107   1.196  12.981  13.406
54404SOL     OW65108   8.005  11.059   7.535
54404SOL    HW165109   8.063  11.060   7.611
54404SOL    HW265110   7.919  11.036   7.571
54405SOL     OW65111   6.399   7.618  13.983
54405SOL    HW165112   6.404   7.553  14.053
54405SOL    HW265113   6.305   7.633  13.971
54406SOL     OW65114  12.436  14.325  13.506
54406SOL    HW165115  12.461  14.235  13.488
54406SOL    HW265116  12.474  14.375  13.434
54407SOL     OW65117  14.501  13.761   1.023
54407SOL    HW165118  14.587  13.773   1.064
54407SOL    HW265119  14.511  13.800   0.936
54408SOL     OW65120   9.996   1.350   8.231
54408SOL    HW165121   9.957   1.435   8.211
54408SOL    HW265122  10.091   1.364   8.223
54409SOL     OW65123   1.891   2.326   1.248
54409SOL    HW165124   1.958   2.280   1.298
54409SOL    HW265125   1.936   2.402   1.211
54410SOL     OW65126   2.949  13.547  13.099
54410SOL    HW165127   3.037  13.515  13.083
54410SOL    HW265128   2.904  13.536  13.015
54411SOL     OW65129   6.503  12.431   3.328
54411SOL    HW165130   6.598  12.427   3.329
54411SOL    HW265131   6.481  12.477   3.246
54412SOL     OW65132   3.589  12.586  14.813
54412SOL    HW165133   3.543  12.631  14.742
54412SOL    HW265134   3.625  12.508  14.771
54413SOL     OW65135   7.162   8.270  13.379
54413SOL    HW165136   7.243   8.283  13.328
54413SOL    HW265137   7.092   8.285  13.316
54414SOL     OW65138  12.714  10.277  14.776
54414SOL    HW165139  12.800  10.305  14.746
54414SOL    HW265140  12.655  10.346  14.746
54415SOL     OW65141   4.166  14.381   9.595
54415SOL    HW165142   4.098  14.315   9.583
54415SOL    HW265143   4.132  14.459   9.552
54416SOL     OW65144   2.065   2.419   2.440
54416SOL    HW165145   2.108   2.474   2.505
54416SOL    HW265146   2.052   2.335   2.484
54417SOL     OW65147   9.933  11.626   9.664
54417SOL    HW165148   9.970  11.673   9.588
54417SOL    HW265149   9.913  11.539   9.630
54418SOL     OW65150  10.026   3.840   0.219
54418SOL    HW165151  10.046   3.882   0.135
54418SOL    HW265152  10.112   3.821   0.257
54419SOL     OW65153   6.328  12.422   7.523
54419SOL    HW165154   6.348  12.368   7.446
54419SOL    HW265155   6.396  12.398   7.586
54420SOL     OW65156   2.655  10.948   4.997
54420SOL    HW165157   2.717  10.925   4.928
54420SOL    HW265158   2.575  10.900   4.974
54421SOL     OW65159  10.553  14.162   8.428
54421SOL    HW165160  10.579  14.085   8.480
54421SOL    HW265161  10.467  14.139   8.394
54422SOL     OW65162   4.695   0.715   6.846
54422SOL    HW165163   4.679   0.628   6.809
54422SOL    HW265164   4.707   0.698   6.940
54423SOL     OW65165   1.768   0.087  12.529
54423SOL    HW165166   1.778   0.006  12.480
54423SOL    HW265167   1.674   0.105  12.527
54424SOL     OW65168   4.270  10.040  11.027
54424SOL    HW165169   4.359  10.074  11.029
54424SOL    HW265170   4.218  10.104  11.076
54425SOL     OW65171  13.876   6.911  12.841
54425SOL    HW165172  13.915   6.997  12.858
54425SOL    HW265173  13.786   6.920  12.873
54426SOL     OW65174   1.372  13.233   2.183
54426SOL    HW165175   1.433  13.269   2.247
54426SOL    HW265176   1.426  13.210   2.108
54427SOL     OW65177  11.374   7.405  12.167
54427SOL    HW165178  11.469   7.404  12.179
54427SOL    HW265179  11.341   7.453  12.243
54428SOL     OW65180   2.306   4.027   1.555
54428SOL    HW165181   2.225   3.993   1.517
54428SOL    HW265182   2.281   4.111   1.593
54429SOL     OW65183  11.340   9.079  10.196
54429SOL    HW165184  11.324   9.059  10.288
54429SOL    HW265185  11.262   9.127  10.168
54430SOL     OW65186  10.145   8.159   9.223
54430SOL    HW165187  10.236   8.186   9.231
54430SOL    HW265188  10.147   8.064   9.232
54431SOL     OW65189   9.741  11.559  11.850
54431SOL    HW165190   9.657  11.556  11.895
54431SOL    HW265191   9.806  11.565  11.920
54432SOL     OW65192  14.227   6.265   6.516
54432SOL    HW165193  14.277   6.346   6.506
54432SOL    HW265194  14.226   6.226   6.429
54433SOL     OW65195  13.450  12.575   6.077
54433SOL    HW165196  13.499  12.530   6.007
54433SOL    HW265197  13.510  12.575   6.152
54434SOL     OW65198  12.662  10.957   5.843
54434SOL    HW165199  12.679  10.971   5.750
54434SOL    HW265200  12.586  11.012   5.862
54435SOL     OW65201   4.930   9.829  12.463
54435SOL    HW165202   4.925   9.919  12.495
54435SOL    HW265203   5.023   9.808  12.463
54436SOL     OW65204   1.707   1.408  12.255
54436SOL    HW165205   1.640   1.471  12.283
54436SOL    HW265206   1.666   1.322  12.269
54437SOL     OW65207   3.179   9.703  10.172
54437SOL    HW165208   3.240   9.629  10.179
54437SOL    HW265209   3.206   9.763  10.241
54438SOL     OW65210  11.900  14.790   4.112
54438SOL    HW165211  11.963  14.801   4.041
54438SOL    HW265212  11.843  14.867   4.106
54439SOL     OW65213   3.824   1.470   4.299
54439SOL    HW165214   3.800   1.446   4.209
54439SOL    HW265215   3.748   1.517   4.333
54440SOL     OW65216   9.461  12.285  14.744
54440SOL    HW165217   9.486  12.373  14.771
54440SOL    HW265218   9.486  12.230  14.818
54441SOL     OW65219   4.619  11.698   1.903
54441SOL    HW165220   4.527  11.676   1.890
54441SOL    HW265221   4.617  11.773   1.962
54442SOL     OW65222   1.640   7.298  12.743
54442SOL    HW165223   1.698   7.373  12.754
54442SOL    HW265224   1.686   7.240  12.682
54443SOL     OW65225  12.966   3.720   0.293
54443SOL    HW165226  12.935   3.757   0.376
54443SOL    HW265227  12.924   3.635   0.287
54444SOL     OW65228  13.149  12.930  11.626
54444SOL    HW165229  13.224  12.981  11.596
54444SOL    HW265230  13.183  12.842  11.641
54445SOL     OW65231  11.600   1.915  10.526
54445SOL    HW165232  11.659   1.981  10.562
54445SOL    HW265233  11.556   1.959  10.453
54446SOL     OW65234   4.843   7.846   3.730
54446SOL    HW165235   4.796   7.824   3.811
54446SOL    HW265236   4.804   7.929   3.702
54447SOL     OW65237   2.269   4.384   4.764
54447SOL    HW165238   2.307   4.423   4.843
54447SOL    HW265239   2.204   4.448   4.735
54448SOL     OW65240   9.804  11.172   6.795
54448SOL    HW165241   9.757  11.144   6.717
54448SOL    HW265242   9.868  11.103   6.811
54449SOL     OW65243  13.927  12.528  14.413
54449SOL    HW165244  14.014  12.567  14.411
54449SOL    HW265245  13.932  12.455  14.351
54450SOL     OW65246  10.900   1.000   0.936
54450SOL    HW165247  10.846   0.974   1.011
54450SOL    HW265248  10.983   0.954   0.949
54451SOL     OW65249   9.997  12.554   1.627
54451SOL    HW165250   9.971  12.463   1.641
54451SOL    HW265251   9.966  12.575   1.539
54452SOL     OW65252  10.394   8.141   9.536
54452SOL    HW165253  10.411   8.229   9.570
54452SOL    HW265254  10.418   8.147   9.443
54453SOL     OW65255   9.003   7.355  13.309
54453SOL    HW165256   9.057   7.311  13.245
54453SOL    HW265257   9.027   7.448  13.302
54454SOL     OW65258  12.866   6.010   3.386
54454SOL    HW165259  12.879   5.945   3.455
54454SOL    HW265260  12.779   6.047   3.403
54455SOL     OW65261  14.298  10.614  10.772
54455SOL    HW165262  14.250  10.561  10.708
54455SOL    HW265263  14.257  10.700  10.769
54456SOL     OW65264   3.749   4.478   0.293
54456SOL    HW165265   3.727   4.425   0.370
54456SOL    HW265266   3.762   4.566   0.327
54457SOL     OW65267   4.911  10.312   4.502
54457SOL    HW165268   4.932  10.402   4.478
54457SOL    HW265269   4.841  10.286   4.442
54458SOL     OW65270   8.581   6.005   2.095
54458SOL    HW165271   8.614   6.083   2.051
54458SOL    HW265272   8.526   5.962   2.030
54459SOL     OW65273  13.954   7.220   1.852
54459SOL    HW165274  13.951   7.169   1.771
54459SOL    HW265275  13.884   7.183   1.905
54460SOL     OW65276   4.355   8.821   5.132
54460SOL    HW165277   4.311   8.760   5.191
54460SOL    HW265278   4.446   8.822   5.162
54461SOL     OW65279   4.330   5.087   1.091
54461SOL    HW165280   4.361   4.998   1.074
54461SOL    HW265281   4.368   5.139   1.020
54462SOL     OW65282   0.456   6.558  10.699
54462SOL    HW165283   0.412   6.599  10.624
54462SOL    HW265284   0.388   6.551  10.766
54463SOL     OW65285   9.651  10.997   9.189
54463SOL    HW165286   9.706  10.920   9.206
54463SOL    HW265287   9.563  10.962   9.179
54464SOL     OW65288   5.849   1.580   0.662
54464SOL    HW165289   5.916   1.639   0.696
54464SOL    HW265290   5.830   1.521   0.735
54465SOL     OW65291  13.343  11.751   1.565
54465SOL    HW165292  13.329  11.789   1.652
54465SOL    HW265293  13.327  11.823   1.505
54466SOL     OW65294  11.420   8.836  13.100
54466SOL    HW165295  11.435   8.926  13.127
54466SOL    HW265296  11.490   8.786  13.142
54467SOL     OW65297   0.131   8.328   2.166
54467SOL    HW165298   0.129   8.297   2.076
54467SOL    HW265299   0.177   8.412   2.161
54468SOL     OW65300   0.046   4.273  11.206
54468SOL    HW165301   0.092   4.352  11.234
54468SOL    HW265302  14.837   4.274  11.256
54469SOL     OW65303   0.749   5.048   0.537
54469SOL    HW165304   0.748   5.001   0.454
54469SOL    HW265305   0.830   5.020   0.580
54470SOL     OW65306   9.802  14.426   1.480
54470SOL    HW165307   9.781  14.451   1.390
54470SOL    HW265308   9.876  14.482   1.504
54471SOL     OW65309   0.621   1.361  13.878
54471SOL    HW165310   0.600   1.363  13.971
54471SOL    HW265311   0.715   1.343  13.875
54472SOL     OW65312  14.665  14.371  14.806
54472SOL    HW165313  14.640  14.280  14.820
54472SOL    HW265314  14.717  14.369  14.725
54473SOL     OW65315   8.792   0.601   6.067
54473SOL    HW165316   8.748   0.538   6.010
54473SOL    HW265317   8.729   0.616   6.138
54474SOL     OW65318  12.689  12.050   8.284
54474SOL    HW165319  12.663  12.040   8.375
54474SOL    HW265320  12.648  12.132   8.256
54475SOL     OW65321   3.251   9.208   7.786
54475SOL    HW165322   3.213   9.229   7.872
54475SOL    HW265323   3.191   9.143   7.749
54476SOL     OW65324  12.884  14.274   7.023
54476SOL    HW165325  12.846  14.186   7.020
54476SOL    HW265326  12.900  14.289   7.116
54477SOL     OW65327  14.218   3.216  10.754
54477SOL    HW165328  14.141   3.263  10.725
54477SOL    HW265329  14.283   3.232  10.685
54478SOL     OW65330  12.118   2.099  10.896
54478SOL    HW165331  12.150   2.077  10.808
54478SOL    HW265332  12.038   2.149  10.881
54479SOL     OW65333   4.252   0.034  13.299
54479SOL    HW165334   4.289   0.061  13.215
54479SOL    HW265335   4.217  14.818  13.282
54480SOL     OW65336  11.683   6.516   4.327
54480SOL    HW165337  11.655   6.576   4.396
54480SOL    HW265338  11.761   6.474   4.362
54481SOL     OW65339   5.859   8.774   6.527
54481SOL    HW165340   5.949   8.743   6.514
54481SOL    HW265341   5.868   8.869   6.533
54482SOL     OW65342   5.655  10.281   9.349
54482SOL    HW165343   5.590  10.225   9.306
54482SOL    HW265344   5.717  10.221   9.389
54483SOL     OW65345   7.350   0.992   5.843
54483SOL    HW165346   7.328   1.041   5.764
54483SOL    HW265347   7.441   1.015   5.861
54484SOL     OW65348   0.682   0.364  13.223
54484SOL    HW165349   0.655   0.455  13.234
54484SOL    HW265350   0.760   0.368  13.168
54485SOL     OW65351  10.049  12.048   2.762
54485SOL    HW165352   9.958  12.064   2.788
54485SOL    HW265353  10.055  12.084   2.674
54486SOL     OW65354  13.228  14.398  11.235
54486SOL    HW165355  13.160  14.460  11.211
54486SOL    HW265356  13.308  14.435  11.198
54487SOL     OW65357  11.958   7.880   7.546
54487SOL    HW165358  12.045   7.920   7.543
54487SOL    HW265359  11.916   7.919   7.622
54488SOL     OW65360   3.440   2.877  14.113
54488SOL    HW165361   3.471   2.914  14.195
54488SOL    HW265362   3.371   2.936  14.084
54489SOL     OW65363  12.081   2.653  10.338
54489SOL    HW165364  12.151   2.675  10.277
54489SOL    HW265365  12.079   2.726  10.400
54490SOL     OW65366  10.325   9.956   7.231
54490SOL    HW165367  10.287   9.868   7.228
54490SOL    HW265368  10.320   9.981   7.324
54491SOL     OW65369   0.173   6.574   9.120
54491SOL    HW165370   0.188   6.589   9.213
54491SOL    HW265371   0.186   6.659   9.079
54492SOL     OW65372   3.445  13.099  12.180
54492SOL    HW165373   3.379  13.088  12.248
54492SOL    HW265374   3.395  13.108  12.099
54493SOL     OW65375   9.690  12.885  10.743
54493SOL    HW165376   9.631  12.810  10.733
54493SOL    HW265377   9.643  12.958  10.702
54494SOL     OW65378   7.420   0.991   9.381
54494SOL    HW165379   7.400   0.991   9.288
54494SOL    HW265380   7.444   0.901   9.402
54495SOL     OW65381   2.584   8.728  11.137
54495SOL    HW165382   2.537   8.650  11.166
54495SOL    HW265383   2.622   8.704  11.053
54496SOL     OW65384  11.039   6.010   2.749
54496SOL    HW165385  11.020   5.955   2.673
54496SOL    HW265386  10.955   6.018   2.794
54497SOL     OW65387   3.266   3.448  14.793
54497SOL    HW165388   3.333   3.470  14.728
54497SOL    HW265389   3.308   3.464   0.005
54498SOL     OW65390  14.309  12.664   3.125
54498SOL    HW165391  14.359  12.609   3.064
54498SOL    HW265392  14.315  12.618   3.209
54499SOL     OW65393   2.797  14.044   2.355
54499SOL    HW165394   2.813  14.013   2.266
54499SOL    HW265395   2.801  14.139   2.349
54500SOL     OW65396   1.900  10.006  14.340
54500SOL    HW165397   1.871  10.048  14.420
54500SOL    HW265398   1.933   9.920  14.368
54501SOL     OW65399   8.362   3.392  14.225
54501SOL    HW165400   8.372   3.478  14.185
54501SOL    HW265401   8.452   3.363  14.242
54502SOL     OW65402   5.817   0.868  14.203
54502SOL    HW165403   5.837   0.937  14.266
54502SOL    HW265404   5.800   0.913  14.121
54503SOL     OW65405   0.678  11.505   2.512
54503SOL    HW165406   0.712  11.463   2.433
54503SOL    HW265407   0.731  11.584   2.521
54504SOL     OW65408   4.689   0.112   5.179
54504SOL    HW165409   4.652   0.193   5.213
54504SOL    HW265410   4.633   0.043   5.213
54505SOL     OW65411   2.135  10.965   3.320
54505SOL    HW165412   2.209  10.909   3.343
54505SOL    HW265413   2.150  11.045   3.369
54506SOL     OW65414   7.256  12.832   9.176
54506SOL    HW165415   7.258  12.899   9.108
54506SOL    HW265416   7.258  12.882   9.258
54507SOL     OW65417   1.608   2.895  14.035
54507SOL    HW165418   1.686   2.928  14.079
54507SOL    HW265419   1.538   2.955  14.063
54508SOL     OW65420   4.104  10.338  10.559
54508SOL    HW165421   4.184  10.379  10.594
54508SOL    HW265422   4.105  10.359  10.466
54509SOL     OW65423   1.593  12.433   5.144
54509SOL    HW165424   1.668  12.391   5.102
54509SOL    HW265425   1.557  12.491   5.076
54510SOL     OW65426   9.102   9.513   1.634
54510SOL    HW165427   9.189   9.541   1.660
54510SOL    HW265428   9.113   9.423   1.605
54511SOL     OW65429  10.213  14.098   5.265
54511SOL    HW165430  10.217  14.030   5.198
54511SOL    HW265431  10.242  14.054   5.345
54512SOL     OW65432   5.216   6.293  14.048
54512SOL    HW165433   5.181   6.311  13.961
54512SOL    HW265434   5.139   6.284  14.104
54513SOL     OW65435   5.149  12.351   6.467
54513SOL    HW165436   5.244  12.360   6.467
54513SOL    HW265437   5.121  12.389   6.550
54514SOL     OW65438  14.328   7.404   6.073
54514SOL    HW165439  14.241   7.383   6.039
54514SOL    HW265440  14.387   7.388   5.999
54515SOL     OW65441   3.147   6.398   1.093
54515SOL    HW165442   3.223   6.356   1.131
54515SOL    HW265443   3.159   6.491   1.112
54516SOL     OW65444   1.112   8.880  13.726
54516SOL    HW165445   1.048   8.939  13.766
54516SOL    HW265446   1.135   8.819  13.796
54517SOL     OW65447   8.707  12.309  13.701
54517SOL    HW165448   8.729  12.352  13.784
54517SOL    HW265449   8.747  12.222  13.708
54518SOL     OW65450   7.162   3.878   1.094
54518SOL    HW165451   7.212   3.943   1.044
54518SOL    HW265452   7.225   3.845   1.159
54519SOL     OW65453   3.494  11.467   8.561
54519SOL    HW165454   3.540  11.392   8.599
54519SOL    HW265455   3.407  11.464   8.600
54520SOL     OW65456   5.317   4.929   2.521
54520SOL    HW165457   5.400   4.906   2.480
54520SOL    HW265458   5.252   4.917   2.452
54521SOL     OW65459   2.229   8.656   1.878
54521SOL    HW165460   2.230   8.566   1.911
54521SOL    HW265461   2.270   8.708   1.947
54522SOL     OW65462   2.070   3.364   7.192
54522SOL    HW165463   2.083   3.438   7.251
54522SOL    HW265464   1.988   3.383   7.147
54523SOL     OW65465  14.779   6.058   0.412
54523SOL    HW165466  14.748   6.062   0.321
54523SOL    HW265467  14.846   5.990   0.411
54524SOL     OW65468  11.061   1.134   2.506
54524SOL    HW165469  11.047   1.093   2.591
54524SOL    HW265470  11.041   1.226   2.520
54525SOL     OW65471   9.983   0.951  11.240
54525SOL    HW165472   9.916   0.905  11.291
54525SOL    HW265473  10.014   1.020  11.299
54526SOL     OW65474   5.118  11.911   1.886
54526SOL    HW165475   5.033  11.947   1.859
54526SOL    HW265476   5.150  11.972   1.952
54527SOL     OW65477   5.508   2.118   5.815
54527SOL    HW165478   5.573   2.116   5.885
54527SOL    HW265479   5.448   2.188   5.842
54528SOL     OW65480   0.348  13.907   0.425
54528SOL    HW165481   0.331  13.876   0.336
54528SOL    HW265482   0.367  13.827   0.475
54529SOL     OW65483   9.966  12.603   8.141
54529SOL    HW165484   9.961  12.670   8.209
54529SOL    HW265485   9.908  12.635   8.072
54530SOL     OW65486  14.723  12.990   7.526
54530SOL    HW165487  14.782  12.914   7.523
54530SOL    HW265488  14.641  12.954   7.560
54531SOL     OW65489  10.772  11.424   5.365
54531SOL    HW165490  10.721  11.468   5.433
54531SOL    HW265491  10.766  11.483   5.289
54532SOL     OW65492   0.831  10.989  13.998
54532SOL    HW165493   0.897  10.945  13.944
54532SOL    HW265494   0.752  10.937  13.984
54533SOL     OW65495  11.125  14.231   8.741
54533SOL    HW165496  11.158  14.222   8.651
54533SOL    HW265497  11.030  14.237   8.731
54534SOL     OW65498   9.477   9.497   6.723
54534SOL    HW165499   9.487   9.468   6.632
54534SOL    HW265500   9.416   9.435   6.762
54535SOL     OW65501   1.405  13.102  10.267
54535SOL    HW165502   1.489  13.079  10.307
54535SOL    HW265503   1.422  13.100  10.172
54536SOL     OW65504   3.795  10.112   5.913
54536SOL    HW165505   3.719  10.079   5.962
54536SOL    HW265506   3.866  10.111   5.977
54537SOL     OW65507   5.691   7.418   1.107
54537SOL    HW165508   5.632   7.400   1.034
54537SOL    HW265509   5.633   7.438   1.180
54538SOL     OW65510   9.490  10.410   4.958
54538SOL    HW165511   9.421  10.380   5.016
54538SOL    HW265512   9.513  10.334   4.905
54539SOL     OW65513   3.991  10.780  13.346
54539SOL    HW165514   3.996  10.834  13.425
54539SOL    HW265515   4.078  10.740  13.339
54540SOL     OW65516  10.463   0.111  11.828
54540SOL    HW165517  10.478   0.017  11.823
54540SOL    HW265518  10.526   0.149  11.767
54541SOL     OW65519  10.108  14.230   1.280
54541SOL    HW165520  10.169  14.162   1.254
54541SOL    HW265521  10.063  14.193   1.356
54542SOL     OW65522   3.672   2.711   0.248
54542SOL    HW165523   3.701   2.773   0.182
54542SOL    HW265524   3.658   2.764   0.326
54543SOL     OW65525   8.640   2.875   4.244
54543SOL    HW165526   8.715   2.817   4.260
54543SOL    HW265527   8.577   2.853   4.313
54544SOL     OW65528  13.535   3.946   6.150
54544SOL    HW165529  13.499   4.000   6.219
54544SOL    HW265530  13.473   3.953   6.078
54545SOL     OW65531   7.163  12.513   5.921
54545SOL    HW165532   7.257  12.531   5.921
54545SOL    HW265533   7.123  12.599   5.908
54546SOL     OW65534   8.304   1.955  10.892
54546SOL    HW165535   8.230   2.008  10.861
54546SOL    HW265536   8.382   1.999  10.856
54547SOL     OW65537   9.549   8.150   4.478
54547SOL    HW165538   9.481   8.216   4.487
54547SOL    HW265539   9.626   8.188   4.520
54548SOL     OW65540   8.466   8.089   3.846
54548SOL    HW165541   8.444   8.129   3.931
54548SOL    HW265542   8.522   8.153   3.803
54549SOL     OW65543   1.254   5.366  12.712
54549SOL    HW165544   1.270   5.279  12.676
54549SOL    HW265545   1.163   5.364  12.742
54550SOL     OW65546   1.607   5.819  12.612
54550SOL    HW165547   1.580   5.889  12.552
54550SOL    HW265548   1.693   5.792  12.581
54551SOL     OW65549  10.334   3.412  14.565
54551SOL    HW165550  10.329   3.386  14.657
54551SOL    HW265551  10.395   3.486  14.564
54552SOL     OW65552   6.055   2.602   8.919
54552SOL    HW165553   5.995   2.619   8.991
54552SOL    HW265554   6.004   2.619   8.840
54553SOL     OW65555   0.018  12.546  13.598
54553SOL    HW165556  14.858  12.634  13.579
54553SOL    HW265557  14.856  12.493  13.526
54554SOL     OW65558   7.113   5.195  12.863
54554SOL    HW165559   7.095   5.264  12.799
54554SOL    HW265560   7.151   5.241  12.938
54555SOL     OW65561  12.070   2.961   1.648
54555SOL    HW165562  12.043   3.024   1.581
54555SOL    HW265563  12.042   2.999   1.731
54556SOL     OW65564   6.609  13.356   0.893
54556SOL    HW165565   6.542  13.355   0.824
54556SOL    HW265566   6.689  13.330   0.849
54557SOL     OW65567  13.598  12.505  14.475
54557SOL    HW165568  13.527  12.474  14.531
54557SOL    HW265569  13.652  12.427  14.460
54558SOL     OW65570   8.011   5.184  11.946
54558SOL    HW165571   7.926   5.227  11.960
54558SOL    HW265572   8.008   5.153  11.855
54559SOL     OW65573  11.426   2.332   1.868
54559SOL    HW165574  11.337   2.317   1.836
54559SOL    HW265575  11.458   2.406   1.817
54560SOL     OW65576   6.890  12.179   3.659
54560SOL    HW165577   6.946  12.199   3.734
54560SOL    HW265578   6.951  12.165   3.587
54561SOL     OW65579   9.976   4.087   8.375
54561SOL    HW165580  10.056   4.098   8.324
54561SOL    HW265581   9.984   4.000   8.415
54562SOL     OW65582  11.986   7.082   1.104
54562SOL    HW165583  11.898   7.083   1.141
54562SOL    HW265584  11.997   6.994   1.069
54563SOL     OW65585  11.233  10.385   7.874
54563SOL    HW165586  11.317  10.347   7.898
54563SOL    HW265587  11.230  10.380   7.778
54564SOL     OW65588  10.663   3.670   7.248
54564SOL    HW165589  10.598   3.655   7.317
54564SOL    HW265590  10.738   3.708   7.293
54565SOL     OW65591   9.986   9.310   2.555
54565SOL    HW165592  10.010   9.242   2.492
54565SOL    HW265593  10.065   9.323   2.608
54566SOL     OW65594  13.778   6.784   9.553
54566SOL    HW165595  13.697   6.735   9.564
54566SOL    HW265596  13.834   6.726   9.501
54567SOL     OW65597   1.249   4.559  14.151
54567SOL    HW165598   1.264   4.494  14.220
54567SOL    HW265599   1.153   4.564  14.144
54568SOL     OW65600   5.427   5.521   4.743
54568SOL    HW165601   5.413   5.554   4.832
54568SOL    HW265602   5.376   5.440   4.739
54569SOL     OW65603   7.551   2.065  11.807
54569SOL    HW165604   7.544   2.014  11.888
54569SOL    HW265605   7.645   2.079  11.796
54570SOL     OW65606   9.482   3.079   5.047
54570SOL    HW165607   9.539   3.154   5.061
54570SOL    HW265608   9.401   3.101   5.093
54571SOL     OW65609  12.264   2.063  14.252
54571SOL    HW165610  12.206   2.124  14.297
54571SOL    HW265611  12.265   1.985  14.308
54572SOL     OW65612  12.157   9.643   3.937
54572SOL    HW165613  12.209   9.605   3.866
54572SOL    HW265614  12.207   9.719   3.966
54573SOL     OW65615  14.155  13.617   4.381
54573SOL    HW165616  14.249  13.629   4.391
54573SOL    HW265617  14.136  13.646   4.292
54574SOL     OW65618  10.364   9.028   4.633
54574SOL    HW165619  10.364   9.064   4.722
54574SOL    HW265620  10.314   9.091   4.581
54575SOL     OW65621   3.916   3.078   1.425
54575SOL    HW165622   3.914   2.996   1.475
54575SOL    HW265623   3.840   3.127   1.455
54576SOL     OW65624   3.539   8.685  11.273
54576SOL    HW165625   3.458   8.690  11.325
54576SOL    HW265626   3.597   8.749  11.313
54577SOL     OW65627   3.841   6.810   4.416
54577SOL    HW165628   3.870   6.883   4.362
54577SOL    HW265629   3.780   6.762   4.361
54578SOL     OW65630   8.523   6.205   6.679
54578SOL    HW165631   8.477   6.280   6.717
54578SOL    HW265632   8.457   6.136   6.674
54579SOL     OW65633   9.443   6.592   4.491
54579SOL    HW165634   9.438   6.664   4.428
54579SOL    HW265635   9.377   6.529   4.462
54580SOL     OW65636   5.084   1.252   4.529
54580SOL    HW165637   5.166   1.259   4.478
54580SOL    HW265638   5.025   1.202   4.472
54581SOL     OW65639   6.568  11.328  11.265
54581SOL    HW165640   6.550  11.409  11.314
54581SOL    HW265641   6.482  11.288  11.252
54582SOL     OW65642   4.047   4.934   2.886
54582SOL    HW165643   3.991   4.856   2.889
54582SOL    HW265644   4.054   4.961   2.978
54583SOL     OW65645   9.317   6.699  11.306
54583SOL    HW165646   9.389   6.650  11.267
54583SOL    HW265647   9.315   6.671  11.397
54584SOL     OW65648   5.931   7.738  10.214
54584SOL    HW165649   6.010   7.756  10.264
54584SOL    HW265650   5.953   7.661  10.161
54585SOL     OW65651  10.249   5.050   8.644
54585SOL    HW165652  10.266   4.995   8.720
54585SOL    HW265653  10.213   4.990   8.579
54586SOL     OW65654  14.644   9.057  11.758
54586SOL    HW165655  14.714   9.007  11.714
54586SOL    HW265656  14.591   8.990  11.802
54587SOL     OW65657  10.133   7.160   5.767
54587SOL    HW165658  10.091   7.165   5.853
54587SOL    HW265659  10.110   7.073   5.735
54588SOL     OW65660  10.638   6.804  10.494
54588SOL    HW165661  10.616   6.837  10.406
54588SOL    HW265662  10.693   6.872  10.532
54589SOL     OW65663   6.505  13.391   1.930
54589SOL    HW165664   6.510  13.473   1.979
54589SOL    HW265665   6.590  13.384   1.887
54590SOL     OW65666   9.609   1.809   6.246
54590SOL    HW165667   9.558   1.732   6.222
54590SOL    HW265668   9.700   1.783   6.231
54591SOL     OW65669   7.491  14.684   4.331
54591SOL    HW165670   7.562  14.748   4.341
54591SOL    HW265671   7.507  14.620   4.401
54592SOL     OW65672  14.109  13.398   0.835
54592SOL    HW165673  14.139  13.364   0.919
54592SOL    HW265674  14.188  13.398   0.780
54593SOL     OW65675  12.940   1.669  11.306
54593SOL    HW165676  12.897   1.744  11.348
54593SOL    HW265677  12.873   1.602  11.302
54594SOL     OW65678   7.890   4.490   5.723
54594SOL    HW165679   7.817   4.432   5.746
54594SOL    HW265680   7.889   4.558   5.791
54595SOL     OW65681  12.982   5.050  12.905
54595SOL    HW165682  13.042   4.982  12.935
54595SOL    HW265683  13.023   5.086  12.827
54596SOL     OW65684   4.725   6.280  10.949
54596SOL    HW165685   4.754   6.271  10.858
54596SOL    HW265686   4.653   6.217  10.958
54597SOL     OW65687   1.334  12.202  11.120
54597SOL    HW165688   1.328  12.293  11.148
54597SOL    HW265689   1.373  12.156  11.195
54598SOL     OW65690   5.834  10.500  14.376
54598SOL    HW165691   5.794  10.475  14.293
54598SOL    HW265692   5.928  10.486  14.362
54599SOL     OW65693   1.908   9.000   7.768
54599SOL    HW165694   1.905   9.096   7.765
54599SOL    HW265695   1.920   8.980   7.860
54600SOL     OW65696   0.672  14.283   8.589
54600SOL    HW165697   0.660  14.264   8.496
54600SOL    HW265698   0.584  14.305   8.620
54601SOL     OW65699   2.447  13.889   5.545
54601SOL    HW165700   2.376  13.856   5.490
54601SOL    HW265701   2.525  13.842   5.515
54602SOL     OW65702   3.949  13.632   8.702
54602SOL    HW165703   4.015  13.609   8.637
54602SOL    HW265704   3.905  13.709   8.667
54603SOL     OW65705  14.690   3.114   2.772
54603SOL    HW165706  14.672   3.168   2.849
54603SOL    HW265707  14.604   3.091   2.738
54604SOL     OW65708   5.461   2.355  10.513
54604SOL    HW165709   5.556   2.362  10.509
54604SOL    HW265710   5.442   2.324  10.601
54605SOL     OW65711   2.292   2.093  10.636
54605SOL    HW165712   2.217   2.080  10.694
54605SOL    HW265713   2.368   2.089  10.694
54606SOL     OW65714  10.583   2.780   3.392
54606SOL    HW165715  10.595   2.700   3.443
54606SOL    HW265716  10.648   2.774   3.322
54607SOL     OW65717  12.681   7.292   7.622
54607SOL    HW165718  12.760   7.308   7.674
54607SOL    HW265719  12.684   7.198   7.603
54608SOL     OW65720   4.670   3.496   1.532
54608SOL    HW165721   4.756   3.472   1.498
54608SOL    HW265722   4.608   3.452   1.473
54609SOL     OW65723  14.200   8.820   4.134
54609SOL    HW165724  14.122   8.788   4.179
54609SOL    HW265725  14.172   8.828   4.042
54610SOL     OW65726   7.956  14.107   7.002
54610SOL    HW165727   7.924  14.169   6.936
54610SOL    HW265728   8.040  14.145   7.030
54611SOL     OW65729   4.951  12.399   2.285
54611SOL    HW165730   4.983  12.451   2.360
54611SOL    HW265731   5.002  12.432   2.211
54612SOL     OW65732   6.172  12.507   0.521
54612SOL    HW165733   6.090  12.555   0.513
54612SOL    HW265734   6.146  12.417   0.539
54613SOL     OW65735   1.639   8.023   0.645
54613SOL    HW165736   1.702   8.071   0.699
54613SOL    HW265737   1.682   8.015   0.559
54614SOL     OW65738   4.112   8.441   9.500
54614SOL    HW165739   4.178   8.476   9.440
54614SOL    HW265740   4.055   8.515   9.519
54615SOL     OW65741   8.075   3.799   6.663
54615SOL    HW165742   8.137   3.727   6.679
54615SOL    HW265743   8.066   3.841   6.749
54616SOL     OW65744  10.092   9.616   6.010
54616SOL    HW165745  10.099   9.571   5.926
54616SOL    HW265746  10.022   9.680   5.996
54617SOL     OW65747   6.935  14.178  13.122
54617SOL    HW165748   7.004  14.163  13.057
54617SOL    HW265749   6.981  14.170  13.206
54618SOL     OW65750   5.949   0.742   7.005
54618SOL    HW165751   5.949   0.775   6.915
54618SOL    HW265752   5.881   0.675   7.006
54619SOL     OW65753  11.293   2.415   1.503
54619SOL    HW165754  11.214   2.430   1.450
54619SOL    HW265755  11.300   2.492   1.558
54620SOL     OW65756   8.609  13.843  11.888
54620SOL    HW165757   8.617  13.765  11.833
54620SOL    HW265758   8.537  13.823  11.947
54621SOL     OW65759   2.260   0.468   5.253
54621SOL    HW165760   2.337   0.423   5.220
54621SOL    HW265761   2.188   0.407   5.238
54622SOL     OW65762   0.464  10.429   3.749
54622SOL    HW165763   0.398  10.491   3.717
54622SOL    HW265764   0.418  10.376   3.814
54623SOL     OW65765   7.855  13.422   8.303
54623SOL    HW165766   7.839  13.460   8.389
54623SOL    HW265767   7.799  13.344   8.301
54624SOL     OW65768   2.711   4.426   3.501
54624SOL    HW165769   2.758   4.440   3.418
54624SOL    HW265770   2.678   4.336   3.495
54625SOL     OW65771   2.142   3.394  12.349
54625SOL    HW165772   2.099   3.473  12.318
54625SOL    HW265773   2.083   3.359  12.416
54626SOL     OW65774   8.698   6.458  13.228
54626SOL    HW165775   8.688   6.496  13.315
54626SOL    HW265776   8.619   6.485  13.181
54627SOL     OW65777   6.339  13.402   0.040
54627SOL    HW165778   6.380  13.485   0.064
54627SOL    HW265779   6.277  13.384   0.111
54628SOL     OW65780   0.185   3.313   3.775
54628SOL    HW165781   0.248   3.274   3.715
54628SOL    HW265782   0.130   3.240   3.803
54629SOL     OW65783   7.950   2.056   3.931
54629SOL    HW165784   7.972   1.985   3.992
54629SOL    HW265785   7.983   2.135   3.974
54630SOL     OW65786   2.953  10.950   7.884
54630SOL    HW165787   2.883  10.936   7.821
54630SOL    HW265788   2.938  10.884   7.952
54631SOL     OW65789   3.115   7.454  12.343
54631SOL    HW165790   3.058   7.389  12.303
54631SOL    HW265791   3.059   7.531  12.353
54632SOL     OW65792  12.645  13.852  12.280
54632SOL    HW165793  12.608  13.890  12.201
54632SOL    HW265794  12.572  13.803  12.319
54633SOL     OW65795   4.895  12.725   8.356
54633SOL    HW165796   4.873  12.669   8.431
54633SOL    HW265797   4.811  12.737   8.311
54634SOL     OW65798   9.690   4.399  12.419
54634SOL    HW165799   9.645   4.449  12.487
54634SOL    HW265800   9.674   4.308  12.442
54635SOL     OW65801   6.470   8.208   1.479
54635SOL    HW165802   6.396   8.169   1.526
54635SOL    HW265803   6.522   8.250   1.547
54636SOL     OW65804   4.633   3.553  14.127
54636SOL    HW165805   4.641   3.639  14.167
54636SOL    HW265806   4.550   3.556  14.080
54637SOL     OW65807  13.949  14.487  14.199
54637SOL    HW165808  13.857  14.462  14.198
54637SOL    HW265809  13.980  14.466  14.287
54638SOL     OW65810  14.780   0.426  10.078
54638SOL    HW165811  14.692   0.387  10.082
54638SOL    HW265812  14.763   0.520  10.065
54639SOL     OW65813   3.777  12.816  13.230
54639SOL    HW165814   3.818  12.783  13.150
54639SOL    HW265815   3.837  12.885  13.260
54640SOL     OW65816   8.580   5.653   3.807
54640SOL    HW165817   8.567   5.748   3.816
54640SOL    HW265818   8.492   5.617   3.799
54641SOL     OW65819   8.383   1.307   5.145
54641SOL    HW165820   8.379   1.400   5.166
54641SOL    HW265821   8.434   1.303   5.064
54642SOL     OW65822   6.351   3.159   7.509
54642SOL    HW165823   6.407   3.154   7.431
54642SOL    HW265824   6.263   3.175   7.475
54643SOL     OW65825   0.101  14.131   2.761
54643SOL    HW165826   0.094  14.188   2.685
54643SOL    HW265827   0.194  14.109   2.766
54644SOL     OW65828  12.188   8.859   5.194
54644SOL    HW165829  12.237   8.929   5.237
54644SOL    HW265830  12.254   8.808   5.148
54645SOL     OW65831  11.029   1.097  12.823
54645SOL    HW165832  10.991   1.045  12.894
54645SOL    HW265833  10.968   1.086  12.750
54646SOL     OW65834  13.061   4.901   9.828
54646SOL    HW165835  13.106   4.953   9.761
54646SOL    HW265836  12.977   4.877   9.789
54647SOL     OW65837   8.172   9.863   6.141
54647SOL    HW165838   8.182   9.769   6.159
54647SOL    HW265839   8.250   9.903   6.179
54648SOL     OW65840  14.150   9.348   1.498
54648SOL    HW165841  14.196   9.431   1.512
54648SOL    HW265842  14.085   9.367   1.431
54649SOL     OW65843   9.690   0.808   6.017
54649SOL    HW165844   9.631   0.758   5.960
54649SOL    HW265845   9.746   0.856   5.957
54650SOL     OW65846   7.648  13.484   8.012
54650SOL    HW165847   7.731  13.457   7.972
54650SOL    HW265848   7.648  13.580   8.004
54651SOL     OW65849   2.993  11.776  11.172
54651SOL    HW165850   2.983  11.845  11.238
54651SOL    HW265851   2.909  11.730  11.173
54652SOL     OW65852   3.607   5.030   7.348
54652SOL    HW165853   3.641   5.061   7.432
54652SOL    HW265854   3.665   5.068   7.283
54653SOL     OW65855   6.161  12.276   5.242
54653SOL    HW165856   6.232  12.269   5.306
54653SOL    HW265857   6.189  12.219   5.170
54654SOL     OW65858   3.623   4.420   4.966
54654SOL    HW165859   3.621   4.404   4.871
54654SOL    HW265860   3.676   4.348   5.000
54655SOL     OW65861   2.003   9.468   2.963
54655SOL    HW165862   2.008   9.516   3.045
54655SOL    HW265863   1.923   9.415   2.970
54656SOL     OW65864   9.790  12.792  10.114
54656SOL    HW165865   9.719  12.750  10.163
54656SOL    HW265866   9.768  12.886  10.116
54657SOL     OW65867   0.205   9.153   1.370
54657SOL    HW165868   0.126   9.196   1.338
54657SOL    HW265869   0.212   9.180   1.461
54658SOL     OW65870   3.941   3.191  10.248
54658SOL    HW165871   4.012   3.131  10.227
54658SOL    HW265872   3.947   3.204  10.343
54659SOL     OW65873   8.878   1.182  11.597
54659SOL    HW165874   8.861   1.201  11.504
54659SOL    HW265875   8.814   1.115  11.619
54660SOL     OW65876  11.898  12.786   0.959
54660SOL    HW165877  11.977  12.745   0.995
54660SOL    HW265878  11.855  12.716   0.910
54661SOL     OW65879   1.127  12.634   3.921
54661SOL    HW165880   1.222  12.632   3.915
54661SOL    HW265881   1.103  12.722   3.890
54662SOL     OW65882   2.370  10.192   8.759
54662SOL    HW165883   2.296  10.147   8.718
54662SOL    HW265884   2.345  10.284   8.761
54663SOL     OW65885   5.556  13.681  13.981
54663SOL    HW165886   5.469  13.695  14.018
54663SOL    HW265887   5.552  13.720  13.894
54664SOL     OW65888   8.636   2.332  14.431
54664SOL    HW165889   8.704   2.399  14.430
54664SOL    HW265890   8.642   2.293  14.518
54665SOL     OW65891   2.550   6.726   5.582
54665SOL    HW165892   2.594   6.685   5.507
54665SOL    HW265893   2.614   6.787   5.618
54666SOL     OW65894   9.918   9.762   7.545
54666SOL    HW165895   9.827   9.779   7.569
54666SOL    HW265896   9.961   9.738   7.627
54667SOL     OW65897   6.609  13.699   4.675
54667SOL    HW165898   6.629  13.697   4.582
54667SOL    HW265899   6.695  13.691   4.718
54668SOL     OW65900   0.116   5.636   0.458
54668SOL    HW165901   0.177   5.675   0.521
54668SOL    HW265902   0.171   5.586   0.399
54669SOL     OW65903  12.733   0.709   9.468
54669SOL    HW165904  12.825   0.735   9.475
54669SOL    HW265905  12.696   0.729   9.554
54670SOL     OW65906   8.273   0.611  12.044
54670SOL    HW165907   8.241   0.673  12.109
54670SOL    HW265908   8.364   0.595  12.067
54671SOL     OW65909   7.699   3.827   0.603
54671SOL    HW165910   7.694   3.734   0.622
54671SOL    HW265911   7.710   3.832   0.508
54672SOL     OW65912   3.417   9.059   7.983
54672SOL    HW165913   3.413   9.003   7.905
54672SOL    HW265914   3.448   9.143   7.950
54673SOL     OW65915   9.367  13.067   1.261
54673SOL    HW165916   9.382  13.052   1.167
54673SOL    HW265917   9.273  13.055   1.272
54674SOL     OW65918   5.219  10.682  14.448
54674SOL    HW165919   5.124  10.690  14.433
54674SOL    HW265920   5.235  10.742  14.521
54675SOL     OW65921   3.373   8.811   2.719
54675SOL    HW165922   3.386   8.769   2.634
54675SOL    HW265923   3.349   8.902   2.697
54676SOL     OW65924   0.937  11.496   1.230
54676SOL    HW165925   1.015  11.544   1.203
54676SOL    HW265926   0.954  11.472   1.321
54677SOL     OW65927  10.524  10.360   4.295
54677SOL    HW165928  10.597  10.414   4.264
54677SOL    HW265929  10.452  10.382   4.236
54678SOL     OW65930   3.849  10.718   7.984
54678SOL    HW165931   3.783  10.669   7.936
54678SOL    HW265932   3.912  10.746   7.918
54679SOL     OW65933  10.222   6.621   9.229
54679SOL    HW165934  10.170   6.612   9.309
54679SOL    HW265935  10.304   6.576   9.247
54680SOL     OW65936   3.282   6.533   2.015
54680SOL    HW165937   3.377   6.522   2.011
54680SOL    HW265938   3.267   6.574   2.101
54681SOL     OW65939  13.237   7.733   4.051
54681SOL    HW165940  13.226   7.665   4.117
54681SOL    HW265941  13.164   7.719   3.990
54682SOL     OW65942  13.758   0.549  13.101
54682SOL    HW165943  13.743   0.614  13.169
54682SOL    HW265944  13.822   0.489  13.139
54683SOL     OW65945   6.565   3.988   1.775
54683SOL    HW165946   6.653   3.964   1.747
54683SOL    HW265947   6.524   3.905   1.800
54684SOL     OW65948   7.934   6.905   0.152
54684SOL    HW165949   8.013   6.920   0.100
54684SOL    HW265950   7.884   6.987   0.143
54685SOL     OW65951  10.944   6.385   3.664
54685SOL    HW165952  10.993   6.436   3.600
54685SOL    HW265953  10.903   6.450   3.721
54686SOL     OW65954   5.966   1.983   4.301
54686SOL    HW165955   5.895   2.017   4.355
54686SOL    HW265956   5.954   2.026   4.216
54687SOL     OW65957   6.763   0.415   3.460
54687SOL    HW165958   6.689   0.459   3.502
54687SOL    HW265959   6.735   0.400   3.370
54688SOL     OW65960  14.202   2.845   7.555
54688SOL    HW165961  14.138   2.855   7.626
54688SOL    HW265962  14.162   2.889   7.481
54689SOL     OW65963  10.369   3.178  14.418
54689SOL    HW165964  10.285   3.139  14.441
54689SOL    HW265965  10.363   3.269  14.449
54690SOL     OW65966   8.657   5.512   5.119
54690SOL    HW165967   8.739   5.462   5.113
54690SOL    HW265968   8.649   5.556   5.034
54691SOL     OW65969  10.132   0.152   2.208
54691SOL    HW165970  10.081   0.226   2.242
54691SOL    HW265971  10.210   0.193   2.169
54692SOL     OW65972  10.437   5.907   6.467
54692SOL    HW165973  10.359   5.871   6.510
54692SOL    HW265974  10.508   5.848   6.493
54693SOL     OW65975   2.187   3.904  10.661
54693SOL    HW165976   2.193   3.809  10.669
54693SOL    HW265977   2.142   3.917  10.577
54694SOL     OW65978  12.517  10.962   7.668
54694SOL    HW165979  12.505  11.001   7.755
54694SOL    HW265980  12.507  11.035   7.608
54695SOL     OW65981   2.364   3.503  12.610
54695SOL    HW165982   2.312   3.577  12.643
54695SOL    HW265983   2.404   3.537  12.530
54696SOL     OW65984   8.332   9.159  14.251
54696SOL    HW165985   8.244   9.184  14.278
54696SOL    HW265986   8.369   9.238  14.211
54697SOL     OW65987   2.802   3.622  10.663
54697SOL    HW165988   2.842   3.692  10.714
54697SOL    HW265989   2.837   3.541  10.701
54698SOL     OW65990   7.892   3.486  12.314
54698SOL    HW165991   7.911   3.442  12.396
54698SOL    HW265992   7.805   3.525  12.326
54699SOL     OW65993   8.315   3.681  14.111
54699SOL    HW165994   8.251   3.751  14.119
54699SOL    HW265995   8.357   3.697  14.026
54700SOL     OW65996   7.080   7.163  11.293
54700SOL    HW165997   7.024   7.210  11.231
54700SOL    HW265998   7.100   7.227  11.361
54701SOL     OW65999   4.582   9.330   6.176
54701SOL    HW166000   4.579   9.386   6.098
54701SOL    HW266001   4.654   9.269   6.158
54702SOL     OW66002  12.904   5.032   2.143
54702SOL    HW166003  12.950   5.005   2.063
54702SOL    HW266004  12.858   4.953   2.171
54703SOL     OW66005   2.294  11.957  12.323
54703SOL    HW166006   2.288  11.993  12.412
54703SOL    HW266007   2.387  11.966  12.301
54704SOL     OW66008   1.483   5.666   0.074
54704SOL    HW166009   1.482   5.631  14.857
54704SOL    HW266010   1.454   5.757   0.065
54705SOL     OW66011   5.417  10.257   9.168
54705SOL    HW166012   5.336  10.207   9.169
54705SOL    HW266013   5.454  10.241   9.081
54706SOL     OW66014  10.700   8.606   5.112
54706SOL    HW166015  10.701   8.511   5.104
54706SOL    HW266016  10.669   8.623   5.201
54707SOL     OW66017  13.357   3.921  11.716
54707SOL    HW166018  13.445   3.954  11.734
54707SOL    HW266019  13.329   3.968  11.638
54708SOL     OW66020  14.069  11.534  11.546
54708SOL    HW166021  13.980  11.509  11.521
54708SOL    HW266022  14.124  11.462  11.515
54709SOL     OW66023  13.178   4.259   3.766
54709SOL    HW166024  13.180   4.352   3.786
54709SOL    HW266025  13.232   4.218   3.834
54710SOL     OW66026   9.822   3.940  14.261
54710SOL    HW166027   9.813   4.007  14.329
54710SOL    HW266028   9.754   3.961  14.197
54711SOL     OW66029   4.931  14.779   7.803
54711SOL    HW166030   4.958  14.695   7.766
54711SOL    HW266031   4.907  14.832   7.727
54712SOL     OW66032  11.950   7.122  11.030
54712SOL    HW166033  11.993   7.172  11.099
54712SOL    HW266034  11.918   7.188  10.968
54713SOL     OW66035   6.379   3.840  14.061
54713SOL    HW166036   6.300   3.893  14.074
54713SOL    HW266037   6.418   3.874  13.981
54714SOL     OW66038   0.539  10.009   9.473
54714SOL    HW166039   0.610  10.053   9.520
54714SOL    HW266040   0.566   9.917   9.469
54715SOL     OW66041   5.132   0.845   1.248
54715SOL    HW166042   5.113   0.798   1.329
54715SOL    HW266043   5.224   0.871   1.256
54716SOL     OW66044   9.921  11.239   8.220
54716SOL    HW166045   9.886  11.230   8.309
54716SOL    HW266046   9.856  11.291   8.174
54717SOL     OW66047   6.101   0.954   9.303
54717SOL    HW166048   6.131   0.976   9.391
54717SOL    HW266049   6.167   0.992   9.245
54718SOL     OW66050   3.910  10.633   1.442
54718SOL    HW166051   3.821  10.613   1.412
54718SOL    HW266052   3.951  10.548   1.454
54719SOL     OW66053  14.383   6.447   7.040
54719SOL    HW166054  14.417   6.481   6.958
54719SOL    HW266055  14.292   6.423   7.020
54720SOL     OW66056   9.549   7.445   2.473
54720SOL    HW166057   9.551   7.383   2.546
54720SOL    HW266058   9.456   7.449   2.448
54721SOL     OW66059  13.156   1.546   4.391
54721SOL    HW166060  13.094   1.494   4.442
54721SOL    HW266061  13.107   1.625   4.367
54722SOL     OW66062   0.943   1.533   2.400
54722SOL    HW166063   0.868   1.578   2.438
54722SOL    HW266064   0.919   1.440   2.401
54723SOL     OW66065   6.069   9.259   0.357
54723SOL    HW166066   6.086   9.262   0.451
54723SOL    HW266067   6.155   9.248   0.317
54724SOL     OW66068   8.980  12.753  12.603
54724SOL    HW166069   9.049  12.690  12.623
54724SOL    HW266070   8.956  12.790  12.688
54725SOL     OW66071   5.469   1.046  13.195
54725SOL    HW166072   5.403   1.036  13.126
54725SOL    HW266073   5.422   1.026  13.276
54726SOL     OW66074   8.943  14.705  12.170
54726SOL    HW166075   8.991  14.630  12.134
54726SOL    HW266076   8.953  14.774  12.105
54727SOL     OW66077   3.837   8.834  10.247
54727SOL    HW166078   3.931   8.820  10.238
54727SOL    HW266079   3.828   8.904  10.311
54728SOL     OW66080   7.396   1.800   0.420
54728SOL    HW166081   7.301   1.810   0.415
54728SOL    HW266082   7.428   1.841   0.340
54729SOL     OW66083  11.591  14.835  10.969
54729SOL    HW166084  11.635  14.758  11.003
54729SOL    HW266085  11.532  14.802  10.901
54730SOL     OW66086   2.330   2.725   9.019
54730SOL    HW166087   2.256   2.773   9.056
54730SOL    HW266088   2.307   2.633   9.032
54731SOL     OW66089   8.469   6.695   6.698
54731SOL    HW166090   8.432   6.783   6.705
54731SOL    HW266091   8.394   6.637   6.684
54732SOL     OW66092   5.557  11.760   7.594
54732SOL    HW166093   5.544  11.672   7.628
54732SOL    HW266094   5.487  11.812   7.632
54733SOL     OW66095   4.934   6.379   3.269
54733SOL    HW166096   5.009   6.429   3.235
54733SOL    HW266097   4.861   6.440   3.261
54734SOL     OW66098   8.900   6.582   6.308
54734SOL    HW166099   8.978   6.626   6.340
54734SOL    HW266100   8.849   6.562   6.386
54735SOL     OW66101   9.671   7.445   7.713
54735SOL    HW166102   9.689   7.359   7.750
54735SOL    HW266103   9.724   7.450   7.634
54736SOL     OW66104   7.525   4.063   3.338
54736SOL    HW166105   7.565   4.086   3.254
54736SOL    HW266106   7.470   3.987   3.318
54737SOL     OW66107   2.277   4.148   7.905
54737SOL    HW166108   2.344   4.149   7.974
54737SOL    HW266109   2.240   4.237   7.907
54738SOL     OW66110   1.906   2.998   5.670
54738SOL    HW166111   1.864   3.028   5.589
54738SOL    HW266112   1.899   2.903   5.666
54739SOL     OW66113   9.787   9.575   8.718
54739SOL    HW166114   9.782   9.661   8.760
54739SOL    HW266115   9.845   9.524   8.775
54740SOL     OW66116  10.992  10.955   6.019
54740SOL    HW166117  10.930  10.912   6.078
54740SOL    HW266118  10.969  10.922   5.932
54741SOL     OW66119   0.892   4.733  12.286
54741SOL    HW166120   0.906   4.776  12.202
54741SOL    HW266121   0.964   4.765  12.341
54742SOL     OW66122   1.669   2.634   0.255
54742SOL    HW166123   1.761   2.652   0.234
54742SOL    HW266124   1.673   2.578   0.333
54743SOL     OW66125   0.225  13.457  11.936
54743SOL    HW166126   0.167  13.497  12.002
54743SOL    HW266127   0.258  13.378  11.979
54744SOL     OW66128   4.499  11.799   3.233
54744SOL    HW166129   4.427  11.785   3.172
54744SOL    HW266130   4.523  11.711   3.262
54745SOL     OW66131   8.139  10.681   0.627
54745SOL    HW166132   8.210  10.708   0.570
54745SOL    HW266133   8.179  10.619   0.688
54746SOL     OW66134  14.322  13.102   6.909
54746SOL    HW166135  14.337  13.191   6.941
54746SOL    HW266136  14.410  13.070   6.885
54747SOL     OW66137   2.034   4.367  11.687
54747SOL    HW166138   2.064   4.420  11.761
54747SOL    HW266139   2.096   4.386  11.617
54748SOL     OW66140   4.820  10.432  12.112
54748SOL    HW166141   4.759  10.372  12.155
54748SOL    HW266142   4.855  10.382  12.038
54749SOL     OW66143  11.149   6.075   1.335
54749SOL    HW166144  11.228   6.023   1.349
54749SOL    HW266145  11.179   6.151   1.285
54750SOL     OW66146   5.589  11.147   4.315
54750SOL    HW166147   5.644  11.167   4.240
54750SOL    HW266148   5.523  11.087   4.281
54751SOL     OW66149  11.034  12.217  14.604
54751SOL    HW166150  11.023  12.170  14.687
54751SOL    HW266151  10.972  12.174  14.545
54752SOL     OW66152   9.163   0.997  10.171
54752SOL    HW166153   9.232   0.983  10.107
54752SOL    HW266154   9.153   1.092  10.177
54753SOL     OW66155  13.297  10.784   6.075
54753SOL    HW166156  13.230  10.716   6.067
54753SOL    HW266157  13.315  10.811   5.985
54754SOL     OW66158  11.691  10.699   9.402
54754SOL    HW166159  11.603  10.670   9.376
54754SOL    HW266160  11.686  10.795   9.397
54755SOL     OW66161   0.289  13.355   3.704
54755SOL    HW166162   0.216  13.400   3.747
54755SOL    HW266163   0.316  13.288   3.767
54756SOL     OW66164  14.141   1.061   8.532
54756SOL    HW166165  14.054   1.092   8.555
54756SOL    HW266166  14.132   1.027   8.443
54757SOL     OW66167   8.260   1.692   2.132
54757SOL    HW166168   8.250   1.776   2.178
54757SOL    HW266169   8.182   1.685   2.078
54758SOL     OW66170   8.938  14.726   0.052
54758SOL    HW166171   8.900  14.643   0.080
54758SOL    HW266172   8.999  14.703  14.855
54759SOL     OW66173  14.562  10.363   7.122
54759SOL    HW166174  14.640  10.418   7.118
54759SOL    HW266175  14.596  10.273   7.121
54760SOL     OW66176  13.623   2.933   8.028
54760SOL    HW166177  13.606   2.937   7.934
54760SOL    HW266178  13.691   2.866   8.038
54761SOL     OW66179   5.748   6.310  10.301
54761SOL    HW166180   5.748   6.403  10.281
54761SOL    HW266181   5.699   6.270  10.229
54762SOL     OW66182   2.207   1.714   0.882
54762SOL    HW166183   2.186   1.752   0.796
54762SOL    HW266184   2.125   1.675   0.912
54763SOL     OW66185   7.016   1.386   9.821
54763SOL    HW166186   6.979   1.457   9.768
54763SOL    HW266187   7.059   1.329   9.756
54764SOL     OW66188   8.837   9.560  11.935
54764SOL    HW166189   8.827   9.553  12.030
54764SOL    HW266190   8.778   9.631  11.910
54765SOL     OW66191   8.826   2.168   8.923
54765SOL    HW166192   8.905   2.117   8.942
54765SOL    HW266193   8.794   2.133   8.840
54766SOL     OW66194  14.541   1.751   6.375
54766SOL    HW166195  14.475   1.816   6.348
54766SOL    HW266196  14.624   1.798   6.369
54767SOL     OW66197  10.813  11.346  12.967
54767SOL    HW166198  10.881  11.399  12.926
54767SOL    HW266199  10.849  11.322  13.053
54768SOL     OW66200   5.266  10.570   1.954
54768SOL    HW166201   5.237  10.656   1.926
54768SOL    HW266202   5.356  10.562   1.920
54769SOL     OW66203   0.037   2.100  10.204
54769SOL    HW166204   0.024   2.054  10.121
54769SOL    HW266205  14.850   2.057  10.265
54770SOL     OW66206  14.657   9.282   7.562
54770SOL    HW166207  14.730   9.334   7.595
54770SOL    HW266208  14.601   9.269   7.638
54771SOL     OW66209  13.567   6.813  10.156
54771SOL    HW166210  13.478   6.805  10.189
54771SOL    HW266211  13.577   6.905  10.133
54772SOL     OW66212   7.864   3.084  10.495
54772SOL    HW166213   7.867   2.990  10.476
54772SOL    HW266214   7.773   3.101  10.518
54773SOL     OW66215   6.411   4.430  14.065
54773SOL    HW166216   6.331   4.481  14.075
54773SOL    HW266217   6.402   4.388  13.979
54774SOL     OW66218  14.332   9.314   5.665
54774SOL    HW166219  14.419   9.303   5.626
54774SOL    HW266220  14.280   9.243   5.626
54775SOL     OW66221  11.477   1.014   6.329
54775SOL    HW166222  11.559   1.051   6.295
54775SOL    HW266223  11.424   1.091   6.352
54776SOL     OW66224   4.425   3.533  12.749
54776SOL    HW166225   4.364   3.467  12.782
54776SOL    HW266226   4.374   3.614  12.749
54777SOL     OW66227   4.722   5.155   2.244
54777SOL    HW166228   4.758   5.074   2.281
54777SOL    HW266229   4.798   5.213   2.237
54778SOL     OW66230  11.373   1.862   4.983
54778SOL    HW166231  11.295   1.915   4.969
54778SOL    HW266232  11.349   1.776   4.948
54779SOL     OW66233  12.827   8.672   9.360
54779SOL    HW166234  12.893   8.683   9.292
54779SOL    HW266235  12.763   8.612   9.322
54780SOL     OW66236  12.233   8.219   5.788
54780SOL    HW166237  12.313   8.235   5.738
54780SOL    HW266238  12.171   8.185   5.723
54781SOL     OW66239   4.079   0.305   5.854
54781SOL    HW166240   4.038   0.250   5.921
54781SOL    HW266241   4.009   0.319   5.790
54782SOL     OW66242   8.391  11.820   6.706
54782SOL    HW166243   8.335  11.746   6.728
54782SOL    HW266244   8.352  11.895   6.751
54783SOL     OW66245   6.589   9.611   6.184
54783SOL    HW166246   6.559   9.536   6.134
54783SOL    HW266247   6.543   9.686   6.145
54784SOL     OW66248   3.286  13.321   1.464
54784SOL    HW166249   3.246  13.262   1.400
54784SOL    HW266250   3.224  13.394   1.471
54785SOL     OW66251   7.579   5.493   1.733
54785SOL    HW166252   7.504   5.494   1.673
54785SOL    HW266253   7.546   5.450   1.812
54786SOL     OW66254  12.206   8.541   9.132
54786SOL    HW166255  12.187   8.507   9.045
54786SOL    HW266256  12.159   8.481   9.191
54787SOL     OW66257  14.818   5.109   4.826
54787SOL    HW166258  14.849   5.105   4.736
54787SOL    HW266259  14.774   5.025   4.840
54788SOL     OW66260  14.415   8.131   9.361
54788SOL    HW166261  14.335   8.080   9.350
54788SOL    HW266262  14.468   8.109   9.285
54789SOL     OW66263  12.224  13.269   7.812
54789SOL    HW166264  12.149  13.324   7.832
54789SOL    HW266265  12.284  13.327   7.765
54790SOL     OW66266   5.835   9.466   2.608
54790SOL    HW166267   5.800   9.456   2.697
54790SOL    HW266268   5.862   9.558   2.603
54791SOL     OW66269  11.699   7.532   8.139
54791SOL    HW166270  11.691   7.443   8.175
54791SOL    HW266271  11.671   7.523   8.048
54792SOL     OW66272  13.678   0.757  12.366
54792SOL    HW166273  13.730   0.767  12.286
54792SOL    HW266274  13.653   0.846  12.390
54793SOL     OW66275   0.008  10.094   4.677
54793SOL    HW166276   0.103  10.102   4.685
54793SOL    HW266277  14.845  10.159   4.737
54794SOL     OW66278   9.130   6.176   2.364
54794SOL    HW166279   9.081   6.214   2.291
54794SOL    HW266280   9.216   6.220   2.360
54795SOL     OW66281   8.111   4.314   0.363
54795SOL    HW166282   8.059   4.235   0.347
54795SOL    HW266283   8.081   4.376   0.296
54796SOL     OW66284   8.740   5.188   3.910
54796SOL    HW166285   8.830   5.176   3.879
54796SOL    HW266286   8.715   5.275   3.879
54797SOL     OW66287   3.319   9.766  13.770
54797SOL    HW166288   3.367   9.847  13.789
54797SOL    HW266289   3.372   9.697  13.811
54798SOL     OW66290   0.840   0.296   5.456
54798SOL    HW166291   0.758   0.267   5.496
54798SOL    HW266292   0.834   0.266   5.365
54799SOL     OW66293  14.560  12.982   4.960
54799SOL    HW166294  14.475  12.996   4.919
54799SOL    HW266295  14.562  12.888   4.978
54800SOL     OW66296   5.916  14.209   3.506
54800SOL    HW166297   5.853  14.204   3.434
54800SOL    HW266298   5.867  14.177   3.582
54801SOL     OW66299   1.432   1.820  12.012
54801SOL    HW166300   1.394   1.906  11.993
54801SOL    HW266301   1.514   1.840  12.056
54802SOL     OW66302   4.730   6.512   2.510
54802SOL    HW166303   4.731   6.607   2.522
54802SOL    HW266304   4.814   6.482   2.545
54803SOL     OW66305  11.026   2.083   9.868
54803SOL    HW166306  11.068   2.075   9.783
54803SOL    HW266307  10.962   2.012   9.871
54804SOL     OW66308   0.413  13.368   4.308
54804SOL    HW166309   0.347  13.341   4.371
54804SOL    HW266310   0.366  13.424   4.246
54805SOL     OW66311   3.779   5.004  14.375
54805SOL    HW166312   3.778   5.083  14.320
54805SOL    HW266313   3.708   4.950  14.340
54806SOL     OW66314  13.872  11.916   1.713
54806SOL    HW166315  13.811  11.847   1.687
54806SOL    HW266316  13.840  11.995   1.670
54807SOL     OW66317   0.970   4.106   4.549
54807SOL    HW166318   0.929   4.108   4.635
54807SOL    HW266319   0.909   4.058   4.493
54808SOL     OW66320   7.057  10.840   4.755
54808SOL    HW166321   7.093  10.928   4.745
54808SOL    HW266322   7.006  10.844   4.837
54809SOL     OW66323  10.575   2.420   4.897
54809SOL    HW166324  10.628   2.495   4.923
54809SOL    HW266325  10.611   2.393   4.812
54810SOL     OW66326   0.501   7.326   3.538
54810SOL    HW166327   0.469   7.245   3.499
54810SOL    HW266328   0.585   7.342   3.494
54811SOL     OW66329   1.161   0.338  13.767
54811SOL    HW166330   1.204   0.281  13.830
54811SOL    HW266331   1.176   0.296  13.682
54812SOL     OW66332  13.298   2.801   8.971
54812SOL    HW166333  13.364   2.741   9.005
54812SOL    HW266334  13.252   2.833   9.049
54813SOL     OW66335   2.025   0.917   1.226
54813SOL    HW166336   2.013   0.855   1.298
54813SOL    HW266337   2.112   0.955   1.242
54814SOL     OW66338  10.487   1.221  14.252
54814SOL    HW166339  10.496   1.179  14.166
54814SOL    HW266340  10.395   1.246  14.257
54815SOL     OW66341  13.769   6.361   9.637
54815SOL    HW166342  13.818   6.406   9.706
54815SOL    HW266343  13.685   6.339   9.679
54816SOL     OW66344   2.827   7.550  14.567
54816SOL    HW166345   2.894   7.484  14.547
54816SOL    HW266346   2.765   7.544  14.495
54817SOL     OW66347  11.311   8.101  14.085
54817SOL    HW166348  11.285   8.009  14.090
54817SOL    HW266349  11.337   8.123  14.174
54818SOL     OW66350  11.746  10.923   7.489
54818SOL    HW166351  11.838  10.937   7.511
54818SOL    HW266352  11.698  10.970   7.558
54819SOL     OW66353   8.340  13.307   6.766
54819SOL    HW166354   8.408  13.281   6.704
54819SOL    HW266355   8.297  13.225   6.791
54820SOL     OW66356  12.376   9.619  13.431
54820SOL    HW166357  12.392   9.643  13.523
54820SOL    HW266358  12.335   9.697  13.393
54821SOL     OW66359   8.643  13.596   1.567
54821SOL    HW166360   8.610  13.673   1.520
54821SOL    HW266361   8.611  13.608   1.657
54822SOL     OW66362  13.246  11.446   8.398
54822SOL    HW166363  13.196  11.440   8.479
54822SOL    HW266364  13.276  11.537   8.394
54823SOL     OW66365  12.528  11.735   8.939
54823SOL    HW166366  12.495  11.684   9.013
54823SOL    HW266367  12.478  11.703   8.864
54824SOL     OW66368   1.152  10.611   8.484
54824SOL    HW166369   1.229  10.643   8.531
54824SOL    HW266370   1.151  10.517   8.502
54825SOL     OW66371   8.980   0.778  12.899
54825SOL    HW166372   8.940   0.760  12.984
54825SOL    HW266373   8.947   0.865  12.875
54826SOL     OW66374   5.867   1.844  11.329
54826SOL    HW166375   5.816   1.812  11.255
54826SOL    HW266376   5.808   1.838  11.404
54827SOL     OW66377   8.338  12.384   2.550
54827SOL    HW166378   8.324  12.381   2.455
54827SOL    HW266379   8.289  12.308   2.583
54828SOL     OW66380   9.260   9.052  10.031
54828SOL    HW166381   9.207   9.053  10.111
54828SOL    HW266382   9.329   8.988  10.049
54829SOL     OW66383   5.390   9.133  12.632
54829SOL    HW166384   5.331   9.095  12.697
54829SOL    HW266385   5.446   9.061  12.606
54830SOL     OW66386   0.984  12.277   1.795
54830SOL    HW166387   0.970  12.358   1.844
54830SOL    HW266388   0.896  12.240   1.786
54831SOL     OW66389  14.507   3.814  14.237
54831SOL    HW166390  14.566   3.808  14.312
54831SOL    HW266391  14.432   3.759  14.261
54832SOL     OW66392   0.339   9.660  12.921
54832SOL    HW166393   0.407   9.717  12.885
54832SOL    HW266394   0.312   9.605  12.847
54833SOL     OW66395  12.443   0.532  12.494
54833SOL    HW166396  12.516   0.471  12.491
54833SOL    HW266397  12.476   0.610  12.448
54834SOL     OW66398  11.885  14.751   1.821
54834SOL    HW166399  11.918  14.800   1.746
54834SOL    HW266400  11.954  14.760   1.887
54835SOL     OW66401  10.391  11.547   5.799
54835SOL    HW166402  10.425  11.457   5.796
54835SOL    HW266403  10.372  11.568   5.708
54836SOL     OW66404   4.607   0.423   1.621
54836SOL    HW166405   4.693   0.402   1.585
54836SOL    HW266406   4.609   0.389   1.710
54837SOL     OW66407   9.620   6.221   9.621
54837SOL    HW166408   9.561   6.199   9.693
54837SOL    HW266409   9.585   6.303   9.586
54838SOL     OW66410   6.620   6.623   2.992
54838SOL    HW166411   6.640   6.543   2.945
54838SOL    HW266412   6.679   6.689   2.954
54839SOL     OW66413   8.696   3.306   3.410
54839SOL    HW166414   8.748   3.265   3.480
54839SOL    HW266415   8.614   3.258   3.411
54840SOL     OW66416   6.570  14.275  11.426
54840SOL    HW166417   6.519  14.287  11.346
54840SOL    HW266418   6.505  14.255  11.493
54841SOL     OW66419   0.426   0.002  13.508
54841SOL    HW166420   0.465   0.083  13.475
54841SOL    HW266421   0.456  14.867  13.598
54842SOL     OW66422   6.992   5.912  11.927
54842SOL    HW166423   6.992   5.945  12.017
54842SOL    HW266424   6.929   5.839  11.928
54843SOL     OW66425   9.082   6.441  10.523
54843SOL    HW166426   9.073   6.427  10.618
54843SOL    HW266427   9.151   6.507  10.516
54844SOL     OW66428   6.303   8.366   7.819
54844SOL    HW166429   6.279   8.299   7.883
54844SOL    HW266430   6.328   8.317   7.741
54845SOL     OW66431  12.550   4.816   4.600
54845SOL    HW166432  12.464   4.855   4.583
54845SOL    HW266433  12.538   4.767   4.682
54846SOL     OW66434  12.262  12.747  10.349
54846SOL    HW166435  12.178  12.785  10.374
54846SOL    HW266436  12.258  12.736  10.254
54847SOL     OW66437   0.796   8.509  10.234
54847SOL    HW166438   0.831   8.421  10.218
54847SOL    HW266439   0.711   8.509  10.189
54848SOL     OW66440  14.403   1.137   7.263
54848SOL    HW166441  14.484   1.176   7.297
54848SOL    HW266442  14.417   1.043   7.270
54849SOL     OW66443  13.982   5.529   1.112
54849SOL    HW166444  13.915   5.563   1.171
54849SOL    HW266445  13.956   5.562   1.025
54850SOL     OW66446  12.020  13.768   8.290
54850SOL    HW166447  12.020  13.804   8.379
54850SOL    HW266448  12.066  13.834   8.238
54851SOL     OW66449   0.037  11.814  11.299
54851SOL    HW166450   0.018  11.801  11.391
54851SOL    HW266451   0.104  11.749  11.279
54852SOL     OW66452   4.299  14.649   2.442
54852SOL    HW166453   4.220  14.595   2.447
54852SOL    HW266454   4.275  14.730   2.487
54853SOL     OW66455  10.498  13.574   8.698
54853SOL    HW166456  10.562  13.517   8.654
54853SOL    HW266457  10.417  13.561   8.649
54854SOL     OW66458  11.971   8.978   1.068
54854SOL    HW166459  11.956   9.065   1.107
54854SOL    HW266460  12.060   8.983   1.033
54855SOL     OW66461  13.069   2.261   4.546
54855SOL    HW166462  13.031   2.347   4.564
54855SOL    HW266463  13.069   2.217   4.631
54856SOL     OW66464   3.469  13.942   3.549
54856SOL    HW166465   3.464  13.926   3.454
54856SOL    HW266466   3.378  13.955   3.576
54857SOL     OW66467   3.352  11.068  13.685
54857SOL    HW166468   3.404  11.103  13.613
54857SOL    HW266469   3.327  11.145  13.735
54858SOL     OW66470   3.985   7.095   0.028
54858SOL    HW166471   4.067   7.145   0.034
54858SOL    HW266472   3.981   7.068  14.809
54859SOL     OW66473  13.637   4.189  13.881
54859SOL    HW166474  13.555   4.238  13.875
54859SOL    HW266475  13.655   4.183  13.974
54860SOL     OW66476   8.002   8.244  10.653
54860SOL    HW166477   8.023   8.167  10.600
54860SOL    HW266478   7.979   8.312  10.589
54861SOL     OW66479   8.539  14.490   3.446
54861SOL    HW166480   8.559  14.573   3.402
54861SOL    HW266481   8.461  14.458   3.401
54862SOL     OW66482   4.403  12.161   0.988
54862SOL    HW166483   4.408  12.247   1.030
54862SOL    HW266484   4.425  12.099   1.059
54863SOL     OW66485   0.835   3.006   7.530
54863SOL    HW166486   0.740   3.000   7.522
54863SOL    HW266487   0.861   2.923   7.570
54864SOL     OW66488   1.698   1.131   0.150
54864SOL    HW166489   1.650   1.191   0.094
54864SOL    HW266490   1.770   1.183   0.185
54865SOL     OW66491   6.034  10.880   5.550
54865SOL    HW166492   6.036  10.888   5.454
54865SOL    HW266493   6.085  10.801   5.569
54866SOL     OW66494   2.153   5.849   2.343
54866SOL    HW166495   2.151   5.786   2.270
54866SOL    HW266496   2.094   5.811   2.408
54867SOL     OW66497   8.291   8.456   4.534
54867SOL    HW166498   8.225   8.459   4.465
54867SOL    HW266499   8.319   8.365   4.537
54868SOL     OW66500   7.813   6.089   6.861
54868SOL    HW166501   7.801   6.096   6.956
54868SOL    HW266502   7.753   6.020   6.834
54869SOL     OW66503  13.636   9.365   3.038
54869SOL    HW166504  13.599   9.277   3.034
54869SOL    HW266505  13.631   9.396   2.948
54870SOL     OW66506  12.637   1.217   1.607
54870SOL    HW166507  12.545   1.197   1.622
54870SOL    HW266508  12.682   1.187   1.686
54871SOL     OW66509   2.381   7.027   5.104
54871SOL    HW166510   2.287   7.021   5.123
54871SOL    HW266511   2.405   7.116   5.131
54872SOL     OW66512   7.522  10.111  11.525
54872SOL    HW166513   7.461  10.150  11.587
54872SOL    HW266514   7.527  10.018  11.551
54873SOL     OW66515  14.861  10.380   7.894
54873SOL    HW166516   0.011  10.384   7.987
54873SOL    HW266517  14.778  10.332   7.892
54874SOL     OW66518   4.688   8.953  10.917
54874SOL    HW166519   4.597   8.958  10.943
54874SOL    HW266520   4.730   8.901  10.986
54875SOL     OW66521  11.587   2.433  12.058
54875SOL    HW166522  11.602   2.368  11.989
54875SOL    HW266523  11.654   2.415  12.123
54876SOL     OW66524  14.353  11.863   0.605
54876SOL    HW166525  14.422  11.842   0.542
54876SOL    HW266526  14.382  11.823   0.687
54877SOL     OW66527   6.574   9.078   8.810
54877SOL    HW166528   6.642   9.023   8.850
54877SOL    HW266529   6.608   9.099   8.724
54878SOL     OW66530   5.756  13.130   0.718
54878SOL    HW166531   5.738  13.115   0.625
54878SOL    HW266532   5.716  13.056   0.763
54879SOL     OW66533  12.070   6.954   6.738
54879SOL    HW166534  12.069   7.050   6.739
54879SOL    HW266535  12.050   6.930   6.648
54880SOL     OW66536  10.572   5.808   0.503
54880SOL    HW166537  10.579   5.800   0.407
54880SOL    HW266538  10.507   5.742   0.527
54881SOL     OW66539   2.010  12.657   3.593
54881SOL    HW166540   1.936  12.716   3.578
54881SOL    HW266541   2.087  12.715   3.595
54882SOL     OW66542  10.590  12.354   4.837
54882SOL    HW166543  10.498  12.341   4.860
54882SOL    HW266544  10.593  12.340   4.742
54883SOL     OW66545   7.391   0.115   6.617
54883SOL    HW166546   7.431   0.038   6.576
54883SOL    HW266547   7.350   0.081   6.697
54884SOL     OW66548   0.895   7.807   5.195
54884SOL    HW166549   0.827   7.853   5.147
54884SOL    HW266550   0.933   7.873   5.252
54885SOL     OW66551   8.209   3.680  13.214
54885SOL    HW166552   8.192   3.630  13.294
54885SOL    HW266553   8.275   3.744  13.240
54886SOL     OW66554  14.262  13.127  12.394
54886SOL    HW166555  14.204  13.108  12.468
54886SOL    HW266556  14.267  13.045  12.346
54887SOL     OW66557   1.560  13.314   1.007
54887SOL    HW166558   1.614  13.358   0.942
54887SOL    HW266559   1.620  13.298   1.081
54888SOL     OW66560  10.874   4.973  12.043
54888SOL    HW166561  10.856   4.892  12.089
54888SOL    HW266562  10.811   4.976  11.971
54889SOL     OW66563   2.116   8.935   1.186
54889SOL    HW166564   2.158   8.922   1.271
54889SOL    HW266565   2.058   8.860   1.176
54890SOL     OW66566  14.371   8.006  12.880
54890SOL    HW166567  14.426   8.012  12.802
54890SOL    HW266568  14.385   8.089  12.925
54891SOL     OW66569   6.120  11.720   1.678
54891SOL    HW166570   6.076  11.662   1.741
54891SOL    HW266571   6.213  11.704   1.693
54892SOL     OW66572   0.160   1.480   7.810
54892SOL    HW166573   0.220   1.470   7.736
54892SOL    HW266574   0.136   1.573   7.809
54893SOL     OW66575   6.724  11.165   7.908
54893SOL    HW166576   6.676  11.184   7.989
54893SOL    HW266577   6.816  11.166   7.933
54894SOL     OW66578  13.018   6.558  10.669
54894SOL    HW166579  12.929   6.534  10.693
54894SOL    HW266580  13.069   6.545  10.749
54895SOL     OW66581   7.212  14.795   0.655
54895SOL    HW166582   7.220  14.793   0.750
54895SOL    HW266583   7.220  14.703   0.628
54896SOL     OW66584   3.911   3.533   6.446
54896SOL    HW166585   3.856   3.599   6.488
54896SOL    HW266586   3.951   3.578   6.372
54897SOL     OW66587   7.693   6.009  11.369
54897SOL    HW166588   7.692   5.982  11.461
54897SOL    HW266589   7.752   5.948  11.326
54898SOL     OW66590   2.257   6.745   7.760
54898SOL    HW166591   2.324   6.771   7.822
54898SOL    HW266592   2.305   6.704   7.688
54899SOL     OW66593   6.250  11.689   2.637
54899SOL    HW166594   6.179  11.710   2.577
54899SOL    HW266595   6.329  11.686   2.582
54900SOL     OW66596  11.880   8.560   9.147
54900SOL    HW166597  11.901   8.604   9.065
54900SOL    HW266598  11.785   8.561   9.153
54901SOL     OW66599  13.379   5.057   6.733
54901SOL    HW166600  13.461   5.009   6.740
54901SOL    HW266601  13.332   5.016   6.661
54902SOL     OW66602  11.186  11.565   1.516
54902SOL    HW166603  11.180  11.484   1.465
54902SOL    HW266604  11.148  11.631   1.459
54903SOL     OW66605   2.770   8.877   2.767
54903SOL    HW166606   2.826   8.844   2.838
54903SOL    HW266607   2.769   8.972   2.780
54904SOL     OW66608   9.027   0.286   7.606
54904SOL    HW166609   8.936   0.256   7.609
54904SOL    HW266610   9.027   0.366   7.659
54905SOL     OW66611   1.937   8.928   3.806
54905SOL    HW166612   1.864   8.926   3.745
54905SOL    HW266613   2.015   8.923   3.751
54906SOL     OW66614   6.479   2.984   0.242
54906SOL    HW166615   6.389   2.951   0.241
54906SOL    HW266616   6.490   3.020   0.331
54907SOL     OW66617   6.985   7.913  10.693
54907SOL    HW166618   6.927   7.838  10.706
54907SOL    HW266619   6.928   7.983  10.664
54908SOL     OW66620   3.719   1.602   6.856
54908SOL    HW166621   3.652   1.539   6.830
54908SOL    HW266622   3.688   1.637   6.939
54909SOL     OW66623  12.449   3.332  14.402
54909SOL    HW166624  12.380   3.330  14.469
54909SOL    HW266625  12.479   3.423  14.401
54910SOL     OW66626  12.085   7.503   1.610
54910SOL    HW166627  11.995   7.534   1.616
54910SOL    HW266628  12.138   7.574   1.645
54911SOL     OW66629   0.671  10.902  11.499
54911SOL    HW166630   0.747  10.941  11.543
54911SOL    HW266631   0.696  10.900  11.407
54912SOL     OW66632   7.235  11.574   0.237
54912SOL    HW166633   7.146  11.547   0.214
54912SOL    HW266634   7.271  11.608   0.155
54913SOL     OW66635   3.926   0.732   3.989
54913SOL    HW166636   3.928   0.797   4.060
54913SOL    HW266637   3.895   0.780   3.913
54914SOL     OW66638  11.209  11.897  11.549
54914SOL    HW166639  11.144  11.923  11.614
54914SOL    HW266640  11.217  11.973  11.491
54915SOL     OW66641  13.937   7.085   3.304
54915SOL    HW166642  13.972   7.172   3.323
54915SOL    HW266643  13.945   7.077   3.208
54916SOL     OW66644   8.676  12.123   3.385
54916SOL    HW166645   8.644  12.036   3.363
54916SOL    HW266646   8.750  12.106   3.443
54917SOL     OW66647   3.794  10.825   5.136
54917SOL    HW166648   3.716  10.838   5.081
54917SOL    HW266649   3.864  10.805   5.074
54918SOL     OW66650  13.974   7.503   1.793
54918SOL    HW166651  13.931   7.470   1.714
54918SOL    HW266652  13.996   7.425   1.843
54919SOL     OW66653   4.970   6.130  11.012
54919SOL    HW166654   5.026   6.203  10.985
54919SOL    HW266655   4.887   6.171  11.037
54920SOL     OW66656   7.408   1.550   9.114
54920SOL    HW166657   7.382   1.482   9.177
54920SOL    HW266658   7.359   1.528   9.035
54921SOL     OW66659  10.319  13.392   4.414
54921SOL    HW166660  10.229  13.382   4.445
54921SOL    HW266661  10.363  13.442   4.483
54922SOL     OW66662   4.380   1.604   4.348
54922SOL    HW166663   4.336   1.582   4.431
54922SOL    HW266664   4.392   1.520   4.304
54923SOL     OW66665  14.488   4.139  10.167
54923SOL    HW166666  14.414   4.198  10.183
54923SOL    HW266667  14.457   4.053  10.197
54924SOL     OW66668  11.526   5.022   6.278
54924SOL    HW166669  11.530   5.073   6.196
54924SOL    HW266670  11.508   4.933   6.250
54925SOL     OW66671  13.721   4.743   4.995
54925SOL    HW166672  13.645   4.762   5.049
54925SOL    HW266673  13.759   4.664   5.034
54926SOL     OW66674  13.696   9.562   5.445
54926SOL    HW166675  13.780   9.585   5.405
54926SOL    HW266676  13.659   9.496   5.388
54927SOL     OW66677   3.605  12.710   1.193
54927SOL    HW166678   3.653  12.654   1.132
54927SOL    HW266679   3.561  12.649   1.252
54928SOL     OW66680   1.545   4.170   4.471
54928SOL    HW166681   1.516   4.109   4.403
54928SOL    HW266682   1.510   4.255   4.443
54929SOL     OW66683   7.488  13.324   2.688
54929SOL    HW166684   7.403  13.363   2.669
54929SOL    HW266685   7.486  13.240   2.644
54930SOL     OW66686  13.921  13.489   4.486
54930SOL    HW166687  14.003  13.499   4.438
54930SOL    HW266688  13.894  13.399   4.468
54931SOL     OW66689   2.948   9.884  14.830
54931SOL    HW166690   2.937   9.960  14.773
54931SOL    HW266691   2.883   9.896   0.027
54932SOL     OW66692   8.925  14.209  14.556
54932SOL    HW166693   8.891  14.282  14.504
54932SOL    HW266694   8.944  14.141  14.492
54933SOL     OW66695   5.508   5.092  11.637
54933SOL    HW166696   5.449   5.061  11.569
54933SOL    HW266697   5.531   5.181  11.610
54934SOL     OW66698   2.431   0.741  14.582
54934SOL    HW166699   2.341   0.743  14.550
54934SOL    HW266700   2.422   0.732  14.677
54935SOL     OW66701   4.480   2.071  10.466
54935SOL    HW166702   4.521   2.158  10.473
54935SOL    HW266703   4.497   2.030  10.551
54936SOL     OW66704   2.408   4.906   5.071
54936SOL    HW166705   2.330   4.852   5.086
54936SOL    HW266706   2.457   4.900   5.153
54937SOL     OW66707  10.857   0.620   8.833
54937SOL    HW166708  10.901   0.673   8.900
54937SOL    HW266709  10.765   0.647   8.838
54938SOL     OW66710   6.809   3.653   6.873
54938SOL    HW166711   6.893   3.635   6.831
54938SOL    HW266712   6.746   3.651   6.802
54939SOL     OW66713  14.736   4.732  10.563
54939SOL    HW166714  14.740   4.673  10.638
54939SOL    HW266715  14.649   4.771  10.569
54940SOL     OW66716   4.804  14.115   4.117
54940SOL    HW166717   4.877  14.164   4.156
54940SOL    HW266718   4.843  14.032   4.090
54941SOL     OW66719  12.769  10.652  11.104
54941SOL    HW166720  12.743  10.635  11.195
54941SOL    HW266721  12.811  10.738  11.107
54942SOL     OW66722  14.115   9.782   5.874
54942SOL    HW166723  14.155   9.697   5.859
54942SOL    HW266724  14.055   9.769   5.947
54943SOL     OW66725   9.134   2.558   8.012
54943SOL    HW166726   9.113   2.496   7.942
54943SOL    HW266727   9.222   2.533   8.040
54944SOL     OW66728   1.087   6.844  14.709
54944SOL    HW166729   1.118   6.754  14.694
54944SOL    HW266730   1.003   6.833  14.754
54945SOL     OW66731   0.284   3.482   3.284
54945SOL    HW166732   0.335   3.550   3.240
54945SOL    HW266733   0.250   3.525   3.363
54946SOL     OW66734   3.810   2.169   8.892
54946SOL    HW166735   3.718   2.168   8.865
54946SOL    HW266736   3.837   2.077   8.889
54947SOL     OW66737   0.986   9.762  13.857
54947SOL    HW166738   1.051   9.828  13.833
54947SOL    HW266739   1.013   9.684  13.808
54948SOL     OW66740   4.279   5.329   6.055
54948SOL    HW166741   4.237   5.381   6.124
54948SOL    HW266742   4.249   5.240   6.071
54949SOL     OW66743   2.629  11.050   0.631
54949SOL    HW166744   2.607  11.057   0.724
54949SOL    HW266745   2.583  10.972   0.601
54950SOL     OW66746   8.223   0.393   2.737
54950SOL    HW166747   8.197   0.474   2.781
54950SOL    HW266748   8.202   0.408   2.645
54951SOL     OW66749   2.122  13.465   0.594
54951SOL    HW166750   2.094  13.382   0.633
54951SOL    HW266751   2.048  13.492   0.540
54952SOL     OW66752  10.853  11.401   2.811
54952SOL    HW166753  10.763  11.381   2.788
54952SOL    HW266754  10.858  11.387   2.906
54953SOL     OW66755   5.473   9.007   4.665
54953SOL    HW166756   5.521   9.089   4.680
54953SOL    HW266757   5.541   8.941   4.656
54954SOL     OW66758   9.050  11.341   6.466
54954SOL    HW166759   9.102  11.261   6.457
54954SOL    HW266760   9.100  11.407   6.418
54955SOL     OW66761  14.360   1.741   4.957
54955SOL    HW166762  14.454   1.754   4.961
54955SOL    HW266763  14.345   1.702   4.871
54956SOL     OW66764  12.767   7.941   3.418
54956SOL    HW166765  12.832   7.995   3.375
54956SOL    HW266766  12.683   7.978   3.392
54957SOL     OW66767  13.719  12.712  10.071
54957SOL    HW166768  13.713  12.755  10.157
54957SOL    HW266769  13.661  12.764  10.015
54958SOL     OW66770   2.609   6.836   2.063
54958SOL    HW166771   2.573   6.799   1.982
54958SOL    HW266772   2.637   6.924   2.039
54959SOL     OW66773   2.269   8.102  10.730
54959SOL    HW166774   2.253   8.018  10.688
54959SOL    HW266775   2.229   8.166  10.671
54960SOL     OW66776   0.606   1.771   5.019
54960SOL    HW166777   0.676   1.754   5.082
54960SOL    HW266778   0.609   1.866   5.006
54961SOL     OW66779   4.182   5.365  13.305
54961SOL    HW166780   4.177   5.458  13.329
54961SOL    HW266781   4.153   5.363  13.213
54962SOL     OW66782  10.481   8.473  11.788
54962SOL    HW166783  10.527   8.397  11.825
54962SOL    HW266784  10.510   8.476  11.697
54963SOL     OW66785  13.846   9.106  14.549
54963SOL    HW166786  13.900   9.171  14.595
54963SOL    HW266787  13.757   9.143  14.551
54964SOL     OW66788   6.375   0.314  10.882
54964SOL    HW166789   6.382   0.383  10.816
54964SOL    HW266790   6.287   0.324  10.918
54965SOL     OW66791   1.493  10.144  10.592
54965SOL    HW166792   1.541  10.210  10.642
54965SOL    HW266793   1.401  10.159  10.614
54966SOL     OW66794   4.427   2.476  13.958
54966SOL    HW166795   4.421   2.421  14.036
54966SOL    HW266796   4.514   2.516  13.964
54967SOL     OW66797   7.773   1.700  12.203
54967SOL    HW166798   7.830   1.722  12.129
54967SOL    HW266799   7.689   1.741  12.181
54968SOL     OW66800  12.723   1.128   1.845
54968SOL    HW166801  12.633   1.099   1.861
54968SOL    HW266802  12.777   1.066   1.893
54969SOL     OW66803  10.934   9.048   0.640
54969SOL    HW166804  10.993   9.019   0.709
54969SOL    HW266805  10.872   8.976   0.629
54970SOL     OW66806   0.518   8.585   1.826
54970SOL    HW166807   0.467   8.665   1.827
54970SOL    HW266808   0.491   8.538   1.905
54971SOL     OW66809   9.108   9.862   7.959
54971SOL    HW166810   9.033   9.828   8.008
54971SOL    HW266811   9.073   9.879   7.871
54972SOL     OW66812  11.022   9.159   5.996
54972SOL    HW166813  10.945   9.102   5.997
54972SOL    HW266814  11.076   9.127   6.068
54973SOL     OW66815   6.122  13.740   8.123
54973SOL    HW166816   6.160  13.680   8.059
54973SOL    HW266817   6.122  13.690   8.205
54974SOL     OW66818   5.173  10.023  10.351
54974SOL    HW166819   5.258  10.049  10.388
54974SOL    HW266820   5.143   9.953  10.409
54975SOL     OW66821   1.833   1.015  12.236
54975SOL    HW166822   1.882   0.934  12.228
54975SOL    HW266823   1.764   0.996  12.299
54976SOL     OW66824   3.715   0.060   0.115
54976SOL    HW166825   3.737  14.855   0.063
54976SOL    HW266826   3.623   0.048   0.138
54977SOL     OW66827   3.156  12.191  14.588
54977SOL    HW166828   3.241  12.181  14.545
54977SOL    HW266829   3.099  12.129  14.544
54978SOL     OW66830   4.016  11.942  10.438
54978SOL    HW166831   4.057  12.020  10.402
54978SOL    HW266832   3.993  11.966  10.528
54979SOL     OW66833   5.748  12.233  14.206
54979SOL    HW166834   5.732  12.300  14.140
54979SOL    HW266835   5.737  12.150  14.159
54980SOL     OW66836   4.062   2.150   3.649
54980SOL    HW166837   4.142   2.187   3.686
54980SOL    HW266838   4.081   2.141   3.555
54981SOL     OW66839   7.647   4.085   6.799
54981SOL    HW166840   7.741   4.082   6.779
54981SOL    HW266841   7.605   4.062   6.716
54982SOL     OW66842   7.528   5.057   8.325
54982SOL    HW166843   7.610   5.101   8.347
54982SOL    HW266844   7.506   5.007   8.404
54983SOL     OW66845  12.418  12.726   1.065
54983SOL    HW166846  12.446  12.647   1.112
54983SOL    HW266847  12.492  12.748   1.009
54984SOL     OW66848   8.936   6.835   6.551
54984SOL    HW166849   8.861   6.775   6.557
54984SOL    HW266850   8.907   6.913   6.600
54985SOL     OW66851   0.900  12.994   7.065
54985SOL    HW166852   0.875  13.015   7.155
54985SOL    HW266853   0.932  12.904   7.070
54986SOL     OW66854   6.048   1.886  10.769
54986SOL    HW166855   6.040   1.981  10.777
54986SOL    HW266856   6.098   1.860  10.847
54987SOL     OW66857   5.509   0.578   1.610
54987SOL    HW166858   5.530   0.542   1.523
54987SOL    HW266859   5.503   0.672   1.595
54988SOL     OW66860  10.591   7.143  12.089
54988SOL    HW166861  10.663   7.168  12.147
54988SOL    HW266862  10.618   7.060  12.051
54989SOL     OW66863   5.595   1.266   0.308
54989SOL    HW166864   5.613   1.191   0.365
54989SOL    HW266865   5.680   1.289   0.271
54990SOL     OW66866  13.181   5.536  11.999
54990SOL    HW166867  13.260   5.483  11.990
54990SOL    HW266868  13.140   5.503  12.079
54991SOL     OW66869   0.271   8.914  13.199
54991SOL    HW166870   0.275   8.857  13.277
54991SOL    HW266871   0.291   8.856  13.126
54992SOL     OW66872   9.014   1.502  14.077
54992SOL    HW166873   8.987   1.415  14.105
54992SOL    HW266874   8.967   1.562  14.135
54993SOL     OW66875  12.680   3.645   6.406
54993SOL    HW166876  12.729   3.665   6.486
54993SOL    HW266877  12.741   3.595   6.352
54994SOL     OW66878   0.270  13.261  13.948
54994SOL    HW166879   0.175  13.266  13.945
54994SOL    HW266880   0.299  13.351  13.963
54995SOL     OW66881   8.650  13.770  11.008
54995SOL    HW166882   8.649  13.857  11.047
54995SOL    HW266883   8.628  13.785  10.916
54996SOL     OW66884  11.293   0.740  10.339
54996SOL    HW166885  11.257   0.720  10.253
54996SOL    HW266886  11.246   0.682  10.399
54997SOL     OW66887   7.060   0.449  13.573
54997SOL    HW166888   6.965   0.447  13.578
54997SOL    HW266889   7.081   0.392  13.499
54998SOL     OW66890  12.770  10.424   2.900
54998SOL    HW166891  12.724  10.453   2.821
54998SOL    HW266892  12.702  10.381   2.952
54999SOL     OW66893   9.883  11.181   3.104
54999SOL    HW166894   9.950  11.124   3.066
54999SOL    HW266895   9.888  11.261   3.052
55000SOL     OW66896   0.387  14.437  11.271
55000SOL    HW166897   0.330  14.482  11.333
55000SOL    HW266898   0.329  14.413  11.199
55001SOL     OW66899   2.900   0.762  10.158
55001SOL    HW166900   2.817   0.747  10.205
55001SOL    HW266901   2.896   0.704  10.082
55002SOL     OW66902   6.542   9.405  12.475
55002SOL    HW166903   6.537   9.348  12.552
55002SOL    HW266904   6.451   9.415  12.448
55003SOL     OW66905   4.728  13.715   7.314
55003SOL    HW166906   4.794  13.649   7.333
55003SOL    HW266907   4.661  13.668   7.265
55004SOL     OW66908   8.438   9.674  12.509
55004SOL    HW166909   8.498   9.746  12.492
55004SOL    HW266910   8.402   9.651  12.424
55005SOL     OW66911  14.401  10.034   8.666
55005SOL    HW166912  14.448  10.059   8.746
55005SOL    HW266913  14.309  10.057   8.684
55006SOL     OW66914   5.701   0.419   3.896
55006SOL    HW166915   5.659   0.337   3.922
55006SOL    HW266916   5.633   0.485   3.906
55007SOL     OW66917   8.215   3.647  12.957
55007SOL    HW166918   8.303   3.670  12.928
55007SOL    HW266919   8.221   3.642  13.052
55008SOL     OW66920   7.075   3.429  12.554
55008SOL    HW166921   7.016   3.472  12.616
55008SOL    HW266922   7.150   3.402  12.607
55009SOL     OW66923  10.340   0.625  10.063
55009SOL    HW166924  10.328   0.567   9.988
55009SOL    HW266925  10.400   0.693  10.031
55010SOL     OW66926   4.290   1.122   3.432
55010SOL    HW166927   4.249   1.191   3.484
55010SOL    HW266928   4.260   1.040   3.471
55011SOL     OW66929   7.462   6.358   8.277
55011SOL    HW166930   7.528   6.361   8.346
55011SOL    HW266931   7.422   6.272   8.287
55012SOL     OW66932   5.362   7.269  13.487
55012SOL    HW166933   5.290   7.253  13.426
55012SOL    HW266934   5.356   7.199  13.551
55013SOL     OW66935   5.843   8.669  13.301
55013SOL    HW166936   5.928   8.711  13.311
55013SOL    HW266937   5.823   8.674  13.208
55014SOL     OW66938   1.559   7.783   4.484
55014SOL    HW166939   1.545   7.875   4.507
55014SOL    HW266940   1.522   7.735   4.558
55015SOL     OW66941  13.572   9.730   1.511
55015SOL    HW166942  13.663   9.756   1.493
55015SOL    HW266943  13.557   9.760   1.601
55016SOL     OW66944   6.391   7.697   5.212
55016SOL    HW166945   6.433   7.613   5.234
55016SOL    HW266946   6.427   7.719   5.127
55017SOL     OW66947   0.773  11.269  10.158
55017SOL    HW166948   0.822  11.321  10.095
55017SOL    HW266949   0.713  11.331  10.199
55018SOL     OW66950   5.902  10.960   6.609
55018SOL    HW166951   5.861  10.942   6.694
55018SOL    HW266952   5.987  10.997   6.631
55019SOL     OW66953  14.619  10.861   2.123
55019SOL    HW166954  14.661  10.916   2.189
55019SOL    HW266955  14.636  10.906   2.040
55020SOL     OW66956   0.788  12.559   2.434
55020SOL    HW166957   0.867  12.526   2.475
55020SOL    HW266958   0.801  12.654   2.429
55021SOL     OW66959   0.927   2.952   9.655
55021SOL    HW166960   0.888   2.882   9.707
55021SOL    HW266961   1.016   2.959   9.688
55022SOL     OW66962   6.557   8.988  14.558
55022SOL    HW166963   6.591   9.046  14.490
55022SOL    HW266964   6.550   8.902  14.515
55023SOL     OW66965   2.260  10.761   7.325
55023SOL    HW166966   2.180  10.708   7.318
55023SOL    HW266967   2.323  10.716   7.269
55024SOL     OW66968   9.806  14.467  12.294
55024SOL    HW166969   9.817  14.519  12.373
55024SOL    HW266970   9.781  14.380  12.326
55025SOL     OW66971   2.970   8.488   9.107
55025SOL    HW166972   3.015   8.449   9.182
55025SOL    HW266973   2.986   8.426   9.036
55026SOL     OW66974   0.877   0.134  12.678
55026SOL    HW166975   0.932   0.086  12.616
55026SOL    HW266976   0.839   0.066  12.734
55027SOL     OW66977   4.398  13.721   5.823
55027SOL    HW166978   4.319  13.774   5.833
55027SOL    HW266979   4.470  13.782   5.836
55028SOL     OW66980  10.055   2.284   5.668
55028SOL    HW166981  10.063   2.204   5.719
55028SOL    HW266982  10.140   2.327   5.677
55029SOL     OW66983   0.265   5.256   5.871
55029SOL    HW166984   0.261   5.224   5.780
55029SOL    HW266985   0.359   5.262   5.890
55030SOL     OW66986   5.540   1.640   0.388
55030SOL    HW166987   5.531   1.598   0.474
55030SOL    HW266988   5.543   1.734   0.408
55031SOL     OW66989   1.736  10.704   4.528
55031SOL    HW166990   1.714  10.719   4.436
55031SOL    HW266991   1.760  10.612   4.532
55032SOL     OW66992  11.425  11.873   4.392
55032SOL    HW166993  11.460  11.889   4.480
55032SOL    HW266994  11.434  11.957   4.347
55033SOL     OW66995  14.096  11.662   3.819
55033SOL    HW166996  14.058  11.598   3.758
55033SOL    HW266997  14.188  11.667   3.795
55034SOL     OW66998   2.729   1.988   3.808
55034SOL    HW166999   2.715   2.060   3.869
55034SOL    HW267000   2.762   1.917   3.862
55035SOL     OW67001   7.991   5.593   5.078
55035SOL    HW167002   7.993   5.667   5.018
55035SOL    HW267003   7.898   5.582   5.100
55036SOL     OW67004  14.714   3.979  13.084
55036SOL    HW167005  14.624   3.969  13.050
55036SOL    HW267006  14.770   3.954  13.010
55037SOL     OW67007   3.486   9.743  13.339
55037SOL    HW167008   3.571   9.788  13.346
55037SOL    HW267009   3.484   9.686  13.416
55038SOL     OW67010   9.420   4.255   3.161
55038SOL    HW167011   9.348   4.262   3.223
55038SOL    HW267012   9.497   4.283   3.210
55039SOL     OW67013   5.054   4.473   6.097
55039SOL    HW167014   5.032   4.481   6.005
55039SOL    HW267015   5.126   4.535   6.110
55040SOL     OW67016  10.848   0.357   3.205
55040SOL    HW167017  10.878   0.270   3.231
55040SOL    HW267018  10.753   0.350   3.200
55041SOL     OW67019   0.740   9.252   8.427
55041SOL    HW167020   0.774   9.313   8.361
55041SOL    HW267021   0.779   9.167   8.403
55042SOL     OW67022  10.894  13.408   8.892
55042SOL    HW167023  10.892  13.320   8.931
55042SOL    HW267024  10.986  13.425   8.875
55043SOL     OW67025  13.089   3.448   0.226
55043SOL    HW167026  13.102   3.538   0.195
55043SOL    HW267027  13.178   3.413   0.235
55044SOL     OW67028   2.922  12.876   6.815
55044SOL    HW167029   2.986  12.942   6.788
55044SOL    HW267030   2.972  12.796   6.824
55045SOL     OW67031   6.945   4.307   6.381
55045SOL    HW167032   6.853   4.314   6.406
55045SOL    HW267033   6.966   4.392   6.342
55046SOL     OW67034   3.484   7.317   8.262
55046SOL    HW167035   3.576   7.338   8.245
55046SOL    HW267036   3.437   7.397   8.239
55047SOL     OW67037   3.466   2.105   0.042
55047SOL    HW167038   3.451   2.176  14.852
55047SOL    HW267039   3.456   2.025  14.862
55048SOL     OW67040   8.034   5.288  13.824
55048SOL    HW167041   8.023   5.355  13.891
55048SOL    HW267042   8.090   5.222  13.864
55049SOL     OW67043   9.523   3.955  11.368
55049SOL    HW167044   9.551   3.867  11.343
55049SOL    HW267045   9.522   4.004  11.286
55050SOL     OW67046  14.234   1.216   9.827
55050SOL    HW167047  14.288   1.153   9.875
55050SOL    HW267048  14.294   1.257   9.765
55051SOL     OW67049   4.444  12.668   9.364
55051SOL    HW167050   4.524  12.721   9.372
55051SOL    HW267051   4.397  12.707   9.290
55052SOL     OW67052  13.109   1.877   5.348
55052SOL    HW167053  13.062   1.937   5.291
55052SOL    HW267054  13.199   1.910   5.349
55053SOL     OW67055  12.099   9.738  13.579
55053SOL    HW167056  12.067   9.802  13.643
55053SOL    HW267057  12.166   9.786  13.530
55054SOL     OW67058  12.612   5.228   4.113
55054SOL    HW167059  12.637   5.319   4.128
55054SOL    HW267060  12.553   5.231   4.038
55055SOL     OW67061  10.833   9.494   7.438
55055SOL    HW167062  10.817   9.435   7.512
55055SOL    HW267063  10.882   9.441   7.375
55056SOL     OW67064   1.821   6.752   9.264
55056SOL    HW167065   1.781   6.833   9.294
55056SOL    HW267066   1.748   6.698   9.234
55057SOL     OW67067   4.670   0.455  10.714
55057SOL    HW167068   4.596   0.499  10.672
55057SOL    HW267069   4.638   0.432  10.801
55058SOL     OW67070   6.624   4.973  11.304
55058SOL    HW167071   6.573   4.919  11.364
55058SOL    HW267072   6.560   5.007  11.241
55059SOL     OW67073   2.835   3.640  13.751
55059SOL    HW167074   2.819   3.549  13.778
55059SOL    HW267075   2.911   3.667  13.802
55060SOL     OW67076  12.681   9.724   4.176
55060SOL    HW167077  12.741   9.755   4.244
55060SOL    HW267078  12.600   9.773   4.191
55061SOL     OW67079   9.901   1.737   1.688
55061SOL    HW167080   9.935   1.648   1.674
55061SOL    HW267081   9.846   1.754   1.611
55062SOL     OW67082   6.987   8.721   2.696
55062SOL    HW167083   7.038   8.687   2.769
55062SOL    HW267084   7.051   8.744   2.630
55063SOL     OW67085   6.446   0.745   9.042
55063SOL    HW167086   6.456   0.705   8.956
55063SOL    HW267087   6.361   0.714   9.073
55064SOL     OW67088  11.716  11.927  13.123
55064SOL    HW167089  11.658  11.882  13.061
55064SOL    HW267090  11.681  11.904  13.209
55065SOL     OW67091   0.282  11.245  14.625
55065SOL    HW167092   0.227  11.323  14.615
55065SOL    HW267093   0.250  11.184  14.559
55066SOL     OW67094   2.195  12.635   9.924
55066SOL    HW167095   2.150  12.598  10.001
55066SOL    HW267096   2.288  12.635   9.950
55067SOL     OW67097  13.116   3.284   4.683
55067SOL    HW167098  13.082   3.368   4.653
55067SOL    HW267099  13.209   3.300   4.700
55068SOL     OW67100  13.734  10.692  10.722
55068SOL    HW167101  13.750  10.607  10.765
55068SOL    HW267102  13.687  10.743  10.788
55069SOL     OW67103   6.035   9.177   9.967
55069SOL    HW167104   5.998   9.132   9.891
55069SOL    HW267105   6.039   9.269   9.939
55070SOL     OW67106  12.195  10.093   4.686
55070SOL    HW167107  12.200  10.189   4.693
55070SOL    HW267108  12.210  10.062   4.775
55071SOL     OW67109   5.054   3.163   1.271
55071SOL    HW167110   4.995   3.216   1.217
55071SOL    HW267111   5.007   3.081   1.284
55072SOL     OW67112   3.033   4.835  12.749
55072SOL    HW167113   2.946   4.818  12.784
55072SOL    HW267114   3.019   4.856  12.657
55073SOL     OW67115   7.818  12.144   9.069
55073SOL    HW167116   7.850  12.160   9.158
55073SOL    HW267117   7.892  12.164   9.013
55074SOL     OW67118   7.085   1.519   1.633
55074SOL    HW167119   7.173   1.548   1.609
55074SOL    HW267120   7.042   1.597   1.667
55075SOL     OW67121  12.255  13.165  12.517
55075SOL    HW167122  12.246  13.179  12.423
55075SOL    HW267123  12.347  13.180  12.535
55076SOL     OW67124   5.419   4.334   0.139
55076SOL    HW167125   5.401   4.414   0.091
55076SOL    HW267126   5.431   4.363   0.230
55077SOL     OW67127   2.561   6.440  12.701
55077SOL    HW167128   2.615   6.452  12.779
55077SOL    HW267129   2.613   6.478  12.630
55078SOL     OW67130   9.499  10.075   0.677
55078SOL    HW167131   9.515  10.039   0.764
55078SOL    HW267132   9.551  10.020   0.619
55079SOL     OW67133   1.003   7.550   8.744
55079SOL    HW167134   0.954   7.621   8.703
55079SOL    HW267135   0.958   7.470   8.716
55080SOL     OW67136   4.148   1.314  14.661
55080SOL    HW167137   4.061   1.291  14.629
55080SOL    HW267138   4.195   1.231  14.663
55081SOL     OW67139   2.894   8.478   2.153
55081SOL    HW167140   2.956   8.492   2.082
55081SOL    HW267141   2.808   8.480   2.112
55082SOL     OW67142   9.322   4.971  14.558
55082SOL    HW167143   9.249   4.921  14.594
55082SOL    HW267144   9.392   4.906  14.546
55083SOL     OW67145   9.588  12.866   1.251
55083SOL    HW167146   9.583  12.787   1.198
55083SOL    HW267147   9.501  12.905   1.244
55084SOL     OW67148   4.983  14.785   3.754
55084SOL    HW167149   4.906  14.730   3.771
55084SOL    HW267150   4.959  14.836   3.676
55085SOL     OW67151   8.301   3.799   5.065
55085SOL    HW167152   8.355   3.879   5.072
55085SOL    HW267153   8.353   3.732   5.111
55086SOL     OW67154   2.808   4.271   1.368
55086SOL    HW167155   2.819   4.227   1.283
55086SOL    HW267156   2.897   4.287   1.399
55087SOL     OW67157  10.602  10.676   4.478
55087SOL    HW167158  10.544  10.741   4.517
55087SOL    HW267159  10.621  10.711   4.391
55088SOL     OW67160   6.116  13.737  14.574
55088SOL    HW167161   6.185  13.718  14.511
55088SOL    HW267162   6.155  13.718  14.659
55089SOL     OW67163   1.483  13.746  13.585
55089SOL    HW167164   1.445  13.758  13.498
55089SOL    HW267165   1.446  13.664  13.617
55090SOL     OW67166   2.667  10.109   4.569
55090SOL    HW167167   2.629  10.181   4.620
55090SOL    HW267168   2.733  10.151   4.514
55091SOL     OW67169   4.810  14.328   5.320
55091SOL    HW167170   4.738  14.268   5.342
55091SOL    HW267171   4.788  14.410   5.365
55092SOL     OW67172  13.735   5.527   1.288
55092SOL    HW167173  13.751   5.459   1.353
55092SOL    HW267174  13.707   5.603   1.339
55093SOL     OW67175  13.806  14.432   5.580
55093SOL    HW167176  13.758  14.383   5.647
55093SOL    HW267177  13.840  14.365   5.521
55094SOL     OW67178   4.726   5.188   8.888
55094SOL    HW167179   4.752   5.121   8.952
55094SOL    HW267180   4.695   5.261   8.942
55095SOL     OW67181   9.449   9.613   9.640
55095SOL    HW167182   9.516   9.555   9.675
55095SOL    HW267183   9.430   9.674   9.711
55096SOL     OW67184   2.480  10.703  12.925
55096SOL    HW167185   2.527  10.646  12.865
55096SOL    HW267186   2.548  10.740  12.981
55097SOL     OW67187   5.185   2.414  10.931
55097SOL    HW167188   5.217   2.442  11.017
55097SOL    HW267189   5.090   2.412  10.940
55098SOL     OW67190   8.001   1.210   1.244
55098SOL    HW167191   8.010   1.261   1.163
55098SOL    HW267192   7.922   1.245   1.286
55099SOL     OW67193   6.636   8.267   3.725
55099SOL    HW167194   6.620   8.207   3.798
55099SOL    HW267195   6.731   8.280   3.726
55100SOL     OW67196  12.511   6.969   6.826
55100SOL    HW167197  12.490   7.050   6.873
55100SOL    HW267198  12.601   6.950   6.852
55101SOL     OW67199   0.678   0.028   1.376
55101SOL    HW167200   0.713   0.016   1.288
55101SOL    HW267201   0.739  14.852   1.432
55102SOL     OW67202   5.847   5.117  12.075
55102SOL    HW167203   5.759   5.115  12.112
55102SOL    HW267204   5.864   5.026  12.051
55103SOL     OW67205   4.533   5.226  12.135
55103SOL    HW167206   4.529   5.155  12.071
55103SOL    HW267207   4.457   5.211  12.192
55104SOL     OW67208   0.500   4.811   8.716
55104SOL    HW167209   0.488   4.904   8.734
55104SOL    HW267210   0.475   4.801   8.624
55105SOL     OW67211   5.079   2.303  12.891
55105SOL    HW167212   5.128   2.319  12.971
55105SOL    HW267213   5.002   2.360  12.897
55106SOL     OW67214   9.277  11.991   4.034
55106SOL    HW167215   9.275  11.946   4.118
55106SOL    HW267216   9.298  12.082   4.055
55107SOL     OW67217  14.213  13.559  13.988
55107SOL    HW167218  14.203  13.654  13.994
55107SOL    HW267219  14.243  13.533  14.075
55108SOL     OW67220  10.153   6.615   7.515
55108SOL    HW167221  10.153   6.639   7.422
55108SOL    HW267222  10.065   6.580   7.531
55109SOL     OW67223   0.861   7.237  13.774
55109SOL    HW167224   0.839   7.156  13.729
55109SOL    HW267225   0.955   7.231  13.791
55110SOL     OW67226  12.222   0.235   2.638
55110SOL    HW167227  12.283   0.305   2.612
55110SOL    HW267228  12.136   0.266   2.608
55111SOL     OW67229   6.537  12.537  12.367
55111SOL    HW167230   6.458  12.555  12.316
55111SOL    HW267231   6.567  12.623  12.396
55112SOL     OW67232   2.953   2.311  14.352
55112SOL    HW167233   2.900   2.232  14.340
55112SOL    HW267234   2.951   2.354  14.266
55113SOL     OW67235   8.690  10.830  13.605
55113SOL    HW167236   8.690  10.763  13.537
55113SOL    HW267237   8.634  10.794  13.674
55114SOL     OW67238   6.473  14.718   3.060
55114SOL    HW167239   6.424  14.640   3.034
55114SOL    HW267240   6.448  14.785   2.997
55115SOL     OW67241   9.976   8.860   4.498
55115SOL    HW167242  10.035   8.858   4.574
55115SOL    HW267243   9.913   8.929   4.518
55116SOL     OW67244   2.195   3.434   6.270
55116SOL    HW167245   2.277   3.423   6.222
55116SOL    HW267246   2.209   3.388   6.353
55117SOL     OW67247   4.872  13.032   1.244
55117SOL    HW167248   4.851  12.981   1.166
55117SOL    HW267249   4.811  13.001   1.311
55118SOL     OW67250  11.845  14.444   4.947
55118SOL    HW167251  11.791  14.410   5.018
55118SOL    HW267252  11.829  14.386   4.873
55119SOL     OW67253   5.740   7.551   6.527
55119SOL    HW167254   5.701   7.633   6.499
55119SOL    HW267255   5.808   7.576   6.589
55120SOL     OW67256   1.218  10.733   1.610
55120SOL    HW167257   1.150  10.671   1.582
55120SOL    HW267258   1.283  10.677   1.654
55121SOL     OW67259  12.499  14.260   6.974
55121SOL    HW167260  12.544  14.233   6.894
55121SOL    HW267261  12.506  14.356   6.974
55122SOL     OW67262  14.038  14.471   5.726
55122SOL    HW167263  13.984  14.421   5.787
55122SOL    HW267264  13.984  14.482   5.648
55123SOL     OW67265  12.039  13.557   7.132
55123SOL    HW167266  12.059  13.649   7.115
55123SOL    HW267267  12.123  13.513   7.130
55124SOL     OW67268   0.415  11.037   7.066
55124SOL    HW167269   0.474  10.963   7.070
55124SOL    HW267270   0.357  11.027   7.142
55125SOL     OW67271   6.610   3.179   3.133
55125SOL    HW167272   6.683   3.137   3.087
55125SOL    HW267273   6.627   3.161   3.225
55126SOL     OW67274   8.409   8.235   4.077
55126SOL    HW167275   8.374   8.324   4.064
55126SOL    HW267276   8.361   8.201   4.152
55127SOL     OW67277   5.299  12.258   1.590
55127SOL    HW167278   5.380  12.309   1.586
55127SOL    HW267279   5.302  12.204   1.511
55128SOL     OW67280   3.330  11.581   1.907
55128SOL    HW167281   3.258  11.556   1.964
55128SOL    HW267282   3.407  11.541   1.947
55129SOL     OW67283   1.887   9.922   5.047
55129SOL    HW167284   1.971   9.934   5.003
55129SOL    HW267285   1.909   9.875   5.128
55130SOL     OW67286   6.786   8.519   2.645
55130SOL    HW167287   6.855   8.575   2.609
55130SOL    HW267288   6.754   8.566   2.722
55131SOL     OW67289   0.754  12.588   7.225
55131SOL    HW167290   0.768  12.549   7.311
55131SOL    HW267291   0.779  12.520   7.163
55132SOL     OW67292   9.423   6.599  10.876
55132SOL    HW167293   9.336   6.639  10.884
55132SOL    HW267294   9.410   6.508  10.905
55133SOL     OW67295   0.138   7.544   3.606
55133SOL    HW167296   0.072   7.477   3.622
55133SOL    HW267297   0.097   7.606   3.546
55134SOL     OW67298   5.277   3.081   3.791
55134SOL    HW167299   5.232   3.057   3.872
55134SOL    HW267300   5.368   3.092   3.816
55135SOL     OW67301   8.890   2.734   4.243
55135SOL    HW167302   8.945   2.677   4.188
55135SOL    HW267303   8.930   2.729   4.330
55136SOL     OW67304  10.592  11.155   5.132
55136SOL    HW167305  10.575  11.090   5.064
55136SOL    HW267306  10.555  11.116   5.212
55137SOL     OW67307  14.422   1.952   2.066
55137SOL    HW167308  14.483   1.893   2.111
55137SOL    HW267309  14.450   1.952   1.975
55138SOL     OW67310  12.368   0.799   6.772
55138SOL    HW167311  12.422   0.871   6.740
55138SOL    HW267312  12.297   0.841   6.820
55139SOL     OW67313   6.034   4.633   8.641
55139SOL    HW167314   6.082   4.622   8.558
55139SOL    HW267315   5.951   4.673   8.615
55140SOL     OW67316   3.941   1.906   1.685
55140SOL    HW167317   3.902   1.853   1.754
55140SOL    HW267318   3.887   1.984   1.681
55141SOL     OW67319  14.580   9.651  11.496
55141SOL    HW167320  14.578   9.562  11.461
55141SOL    HW267321  14.538   9.645  11.582
55142SOL     OW67322   5.147  14.281   2.180
55142SOL    HW167323   5.223  14.291   2.123
55142SOL    HW267324   5.166  14.202   2.232
55143SOL     OW67325   4.040  10.554   4.271
55143SOL    HW167326   3.992  10.539   4.189
55143SOL    HW267327   3.981  10.607   4.324
55144SOL     OW67328  13.911  12.864   0.336
55144SOL    HW167329  14.005  12.863   0.352
55144SOL    HW267330  13.891  12.775   0.307
55145SOL     OW67331  14.239   5.526   8.147
55145SOL    HW167332  14.324   5.557   8.178
55145SOL    HW267333  14.226   5.441   8.190
55146SOL     OW67334   4.428   9.933   7.840
55146SOL    HW167335   4.335   9.914   7.853
55146SOL    HW267336   4.466   9.850   7.810
55147SOL     OW67337   2.194   6.808   2.877
55147SOL    HW167338   2.183   6.770   2.964
55147SOL    HW267339   2.146   6.890   2.879
55148SOL     OW67340  13.726   8.210   3.751
55148SOL    HW167341  13.637   8.247   3.753
55148SOL    HW267342  13.747   8.194   3.843
55149SOL     OW67343   4.059   9.197  13.640
55149SOL    HW167344   4.145   9.240  13.640
55149SOL    HW267345   4.024   9.216  13.553
55150SOL     OW67346   1.382  10.762   4.302
55150SOL    HW167347   1.309  10.817   4.275
55150SOL    HW267348   1.370  10.680   4.255
55151SOL     OW67349  13.701   5.782   8.054
55151SOL    HW167350  13.622   5.816   8.011
55151SOL    HW267351  13.738   5.721   7.991
55152SOL     OW67352  13.063   2.844   8.078
55152SOL    HW167353  13.051   2.895   8.158
55152SOL    HW267354  13.076   2.754   8.108
55153SOL     OW67355  13.949  13.017  10.860
55153SOL    HW167356  13.856  12.997  10.874
55153SOL    HW267357  13.991  12.932  10.850
55154SOL     OW67358   3.447   3.206   7.708
55154SOL    HW167359   3.413   3.156   7.782
55154SOL    HW267360   3.395   3.286   7.707
55155SOL     OW67361   3.399  11.416  14.742
55155SOL    HW167362   3.446  11.429  14.659
55155SOL    HW267363   3.462  11.368  14.797
55156SOL     OW67364   5.116   2.012   6.454
55156SOL    HW167365   5.203   2.034   6.421
55156SOL    HW267366   5.056   2.035   6.383
55157SOL     OW67367  14.296   1.245   3.750
55157SOL    HW167368  14.334   1.201   3.674
55157SOL    HW267369  14.236   1.180   3.788
55158SOL     OW67370  14.551   1.419  10.105
55158SOL    HW167371  14.582   1.434  10.194
55158SOL    HW267372  14.459   1.396  10.115
55159SOL     OW67373   6.294  13.623  13.114
55159SOL    HW167374   6.285  13.556  13.182
55159SOL    HW267375   6.268  13.705  13.158
55160SOL     OW67376   5.794  11.267   4.122
55160SOL    HW167377   5.734  11.210   4.075
55160SOL    HW267378   5.880  11.226   4.112
55161SOL     OW67379   6.996   3.441   5.862
55161SOL    HW167380   6.928   3.509   5.865
55161SOL    HW267381   6.954   3.363   5.899
55162SOL     OW67382   4.616   2.410  14.357
55162SOL    HW167383   4.664   2.331  14.383
55162SOL    HW267384   4.680   2.481  14.367
55163SOL     OW67385  11.068  12.852   3.596
55163SOL    HW167386  11.111  12.789   3.653
55163SOL    HW267387  10.986  12.874   3.641
55164SOL     OW67388  14.240  11.197   4.168
55164SOL    HW167389  14.194  11.255   4.108
55164SOL    HW267390  14.174  11.134   4.196
55165SOL     OW67391  10.496   4.115   8.383
55165SOL    HW167392  10.542   4.032   8.396
55165SOL    HW267393  10.409   4.099   8.421
55166SOL     OW67394   3.385  11.446  11.577
55166SOL    HW167395   3.371  11.446  11.672
55166SOL    HW267396   3.465  11.497  11.565
55167SOL     OW67397  13.100  12.374   0.420
55167SOL    HW167398  13.120  12.371   0.514
55167SOL    HW267399  13.174  12.421   0.381
55168SOL     OW67400  10.677  14.830   1.159
55168SOL    HW167401  10.702  14.769   1.090
55168SOL    HW267402  10.631   0.028   1.113
55169SOL     OW67403  12.996   3.090  12.737
55169SOL    HW167404  12.969   3.157  12.799
55169SOL    HW267405  13.044   3.139  12.669
55170SOL     OW67406  11.169   4.253  10.181
55170SOL    HW167407  11.130   4.299  10.107
55170SOL    HW267408  11.254   4.295  10.193
55171SOL     OW67409  13.937   4.602   2.031
55171SOL    HW167410  13.959   4.675   2.090
55171SOL    HW267411  14.022   4.573   1.997
55172SOL     OW67412   3.284   4.078   2.488
55172SOL    HW167413   3.280   4.011   2.420
55172SOL    HW267414   3.205   4.064   2.540
55173SOL     OW67415   4.671   6.581   7.234
55173SOL    HW167416   4.719   6.617   7.308
55173SOL    HW267417   4.718   6.613   7.157
55174SOL     OW67418   2.606   9.168  11.217
55174SOL    HW167419   2.690   9.133  11.246
55174SOL    HW267420   2.607   9.259  11.244
55175SOL     OW67421   9.634  11.351   8.881
55175SOL    HW167422   9.690  11.409   8.829
55175SOL    HW267423   9.556  11.403   8.900
55176SOL     OW67424   9.395  14.537   3.784
55176SOL    HW167425   9.360  14.449   3.776
55176SOL    HW267426   9.355  14.586   3.712
55177SOL     OW67427  13.134  14.051   5.602
55177SOL    HW167428  13.102  14.138   5.580
55177SOL    HW267429  13.165  14.015   5.519
55178SOL     OW67430  12.636   0.014   5.890
55178SOL    HW167431  12.627   0.026   5.795
55178SOL    HW267432  12.547  14.871   5.921
55179SOL     OW67433   5.087   8.063   5.618
55179SOL    HW167434   5.017   8.079   5.555
55179SOL    HW267435   5.062   8.115   5.695
55180SOL     OW67436   4.723   5.184  11.595
55180SOL    HW167437   4.774   5.131  11.656
55180SOL    HW267438   4.725   5.272  11.633
55181SOL     OW67439   4.527   2.557   9.980
55181SOL    HW167440   4.458   2.623   9.970
55181SOL    HW267441   4.549   2.531   9.890
55182SOL     OW67442   5.068   8.561   9.401
55182SOL    HW167443   5.088   8.590   9.490
55182SOL    HW267444   4.998   8.496   9.412
55183SOL     OW67445  11.918   6.294   3.553
55183SOL    HW167446  11.945   6.334   3.635
55183SOL    HW267447  11.925   6.200   3.568
55184SOL     OW67448   5.256   7.547   2.860
55184SOL    HW167449   5.198   7.471   2.857
55184SOL    HW267450   5.209   7.611   2.914
55185SOL     OW67451   7.184   7.767  14.339
55185SOL    HW167452   7.143   7.799  14.258
55185SOL    HW267453   7.138   7.686  14.359
55186SOL     OW67454   5.975  12.878   9.977
55186SOL    HW167455   6.066  12.854   9.992
55186SOL    HW267456   5.935  12.880  10.064
55187SOL     OW67457   8.073  10.472   3.271
55187SOL    HW167458   8.144  10.424   3.228
55187SOL    HW267459   8.116  10.547   3.313
55188SOL     OW67460   3.705   3.663   6.618
55188SOL    HW167461   3.686   3.737   6.675
55188SOL    HW267462   3.762   3.606   6.671
55189SOL     OW67463   8.793   1.121   6.858
55189SOL    HW167464   8.752   1.034   6.855
55189SOL    HW267465   8.723   1.182   6.837
55190SOL     OW67466  12.220   3.568   0.510
55190SOL    HW167467  12.215   3.647   0.564
55190SOL    HW267468  12.312   3.560   0.488
55191SOL     OW67469   0.980   8.914  11.867
55191SOL    HW167470   1.041   8.971  11.820
55191SOL    HW267471   0.920   8.882  11.799
55192SOL     OW67472  11.970   5.848   4.191
55192SOL    HW167473  11.998   5.823   4.279
55192SOL    HW267474  12.043   5.899   4.156
55193SOL     OW67475  12.438   8.762   2.569
55193SOL    HW167476  12.493   8.814   2.628
55193SOL    HW267477  12.388   8.705   2.627
55194SOL     OW67478   3.201   6.163   6.327
55194SOL    HW167479   3.191   6.076   6.365
55194SOL    HW267480   3.115   6.186   6.293
55195SOL     OW67481   9.054   3.776   2.070
55195SOL    HW167482   9.038   3.850   2.011
55195SOL    HW267483   9.013   3.801   2.153
55196SOL     OW67484   0.175  10.751   9.252
55196SOL    HW167485   0.261  10.741   9.211
55196SOL    HW267486   0.192  10.743   9.346
55197SOL     OW67487  11.808   7.686  10.712
55197SOL    HW167488  11.737   7.747  10.697
55197SOL    HW267489  11.766   7.607  10.746
55198SOL     OW67490   9.313   2.270  11.397
55198SOL    HW167491   9.330   2.324  11.320
55198SOL    HW267492   9.219   2.256  11.397
55199SOL     OW67493   4.198  11.689   4.754
55199SOL    HW167494   4.119  11.737   4.779
55199SOL    HW267495   4.166  11.618   4.698
55200SOL     OW67496   1.468   2.434   6.873
55200SOL    HW167497   1.450   2.501   6.939
55200SOL    HW267498   1.556   2.404   6.892
55201SOL     OW67499   0.345   3.390   5.230
55201SOL    HW167500   0.413   3.407   5.295
55201SOL    HW267501   0.280   3.338   5.276
55202SOL     OW67502  13.931   3.964  10.729
55202SOL    HW167503  13.996   3.906  10.767
55202SOL    HW267504  13.981   4.024  10.674
55203SOL     OW67505   3.626   1.684   4.444
55203SOL    HW167506   3.535   1.703   4.468
55203SOL    HW267507   3.641   1.733   4.364
55204SOL     OW67508   2.949   2.917   3.120
55204SOL    HW167509   2.917   2.947   3.205
55204SOL    HW267510   2.967   2.997   3.071
55205SOL     OW67511   2.282   9.613   5.157
55205SOL    HW167512   2.363   9.564   5.147
55205SOL    HW267513   2.239   9.573   5.234
55206SOL     OW67514   5.101   8.507   7.943
55206SOL    HW167515   5.124   8.453   8.018
55206SOL    HW267516   5.183   8.547   7.915
55207SOL     OW67517  12.867  13.690   5.307
55207SOL    HW167518  12.911  13.759   5.259
55207SOL    HW267519  12.797  13.661   5.249
55208SOL     OW67520  13.151   4.180  10.605
55208SOL    HW167521  13.138   4.275  10.601
55208SOL    HW267522  13.237   4.167  10.565
55209SOL     OW67523   2.627  13.764   8.909
55209SOL    HW167524   2.719  13.740   8.921
55209SOL    HW267525   2.580  13.714   8.976
55210SOL     OW67526   4.622   7.452   0.319
55210SOL    HW167527   4.651   7.372   0.276
55210SOL    HW267528   4.698   7.479   0.371
55211SOL     OW67529   8.403   2.998   9.849
55211SOL    HW167530   8.463   2.992   9.923
55211SOL    HW267531   8.450   3.050   9.784
55212SOL     OW67532   4.199   5.893   3.309
55212SOL    HW167533   4.118   5.852   3.280
55212SOL    HW267534   4.170   5.967   3.362
55213SOL     OW67535   7.878   3.473   1.660
55213SOL    HW167536   7.855   3.398   1.605
55213SOL    HW267537   7.958   3.508   1.621
55214SOL     OW67538   1.590   8.240   3.106
55214SOL    HW167539   1.528   8.293   3.155
55214SOL    HW267540   1.667   8.296   3.094
55215SOL     OW67541  11.679  11.284   4.312
55215SOL    HW167542  11.681  11.359   4.372
55215SOL    HW267543  11.742  11.306   4.244
55216SOL     OW67544  10.298   5.857   6.869
55216SOL    HW167545  10.216   5.860   6.820
55216SOL    HW267546  10.303   5.941   6.913
55217SOL     OW67547  14.160  12.731   4.943
55217SOL    HW167548  14.092  12.776   4.994
55217SOL    HW267549  14.145  12.762   4.853
55218SOL     OW67550   6.380   4.095  12.644
55218SOL    HW167551   6.400   4.187  12.624
55218SOL    HW267552   6.289   4.097  12.672
55219SOL     OW67553   1.604   5.237  12.813
55219SOL    HW167554   1.673   5.300  12.794
55219SOL    HW267555   1.602   5.179  12.738
55220SOL     OW67556   9.384   7.651  13.966
55220SOL    HW167557   9.438   7.652  14.045
55220SOL    HW267558   9.300   7.686  13.995
55221SOL     OW67559  12.985   0.165  12.189
55221SOL    HW167560  12.912   0.115  12.153
55221SOL    HW267561  13.010   0.118  12.268
55222SOL     OW67562   7.478   7.046  14.871
55222SOL    HW167563   7.401   7.026  14.818
55222SOL    HW267564   7.498   7.138  14.851
55223SOL     OW67565  13.535   2.039   2.255
55223SOL    HW167566  13.459   1.985   2.231
55223SOL    HW267567  13.564   2.078   2.172
55224SOL     OW67568   5.226   5.407  12.550
55224SOL    HW167569   5.304   5.381  12.598
55224SOL    HW267570   5.171   5.328  12.549
55225SOL     OW67571  11.078   1.337   5.337
55225SOL    HW167572  11.006   1.400   5.333
55225SOL    HW267573  11.157   1.391   5.330
55226SOL     OW67574   1.000   5.196   9.060
55226SOL    HW167575   0.960   5.110   9.046
55226SOL    HW267576   0.971   5.247   8.984
55227SOL     OW67577   9.781   8.406  13.226
55227SOL    HW167578   9.751   8.495  13.242
55227SOL    HW267579   9.742   8.354  13.296
55228SOL     OW67580   4.017   1.664   8.736
55228SOL    HW167581   4.099   1.679   8.783
55228SOL    HW267582   4.040   1.605   8.665
55229SOL     OW67583  12.077   2.801   6.847
55229SOL    HW167584  12.158   2.793   6.898
55229SOL    HW267585  12.061   2.895   6.842
55230SOL     OW67586  12.886  13.576   1.410
55230SOL    HW167587  12.815  13.559   1.348
55230SOL    HW267588  12.844  13.568   1.496
55231SOL     OW67589   1.307  12.338   6.433
55231SOL    HW167590   1.332  12.397   6.362
55231SOL    HW267591   1.352  12.256   6.411
55232SOL     OW67592   8.838  10.097  11.396
55232SOL    HW167593   8.743  10.095  11.384
55232SOL    HW267594   8.850  10.108  11.490
55233SOL     OW67595   8.618  13.599   0.813
55233SOL    HW167596   8.543  13.613   0.870
55233SOL    HW267597   8.584  13.615   0.724
55234SOL     OW67598   0.527   8.659  12.478
55234SOL    HW167599   0.587   8.618  12.542
55234SOL    HW267600   0.584   8.712  12.423
55235SOL     OW67601   1.170   5.542  14.472
55235SOL    HW167602   1.263   5.530  14.454
55235SOL    HW267603   1.138   5.454  14.493
55236SOL     OW67604   5.042   7.100   7.847
55236SOL    HW167605   5.134   7.078   7.856
55236SOL    HW267606   5.000   7.019   7.817
55237SOL     OW67607   2.253  12.429   4.601
55237SOL    HW167608   2.161  12.408   4.613
55237SOL    HW267609   2.256  12.476   4.517
55238SOL     OW67610   6.193   3.209   4.007
55238SOL    HW167611   6.109   3.253   4.015
55238SOL    HW267612   6.181   3.125   4.051
55239SOL     OW67613   9.196  13.475   6.511
55239SOL    HW167614   9.258  13.426   6.457
55239SOL    HW267615   9.216  13.447   6.601
55240SOL     OW67616   1.061  12.578   2.506
55240SOL    HW167617   1.073  12.543   2.594
55240SOL    HW267618   1.146  12.616   2.483
55241SOL     OW67619   7.084  10.086   9.633
55241SOL    HW167620   7.173  10.076   9.599
55241SOL    HW267621   7.064  10.001   9.673
55242SOL     OW67622  12.490  11.957   1.946
55242SOL    HW167623  12.449  11.871   1.957
55242SOL    HW267624  12.484  11.997   2.033
55243SOL     OW67625   9.667   3.006   8.112
55243SOL    HW167626   9.691   3.097   8.096
55243SOL    HW267627   9.748   2.965   8.141
55244SOL     OW67628   2.452   8.592   3.021
55244SOL    HW167629   2.422   8.503   3.037
55244SOL    HW267630   2.535   8.581   2.975
55245SOL     OW67631  11.462  11.188  11.568
55245SOL    HW167632  11.553  11.162  11.553
55245SOL    HW267633  11.434  11.227  11.485
55246SOL     OW67634  13.102   3.133   3.521
55246SOL    HW167635  13.030   3.177   3.476
55246SOL    HW267636  13.099   3.043   3.490
55247SOL     OW67637   7.948   9.753   6.517
55247SOL    HW167638   7.948   9.820   6.448
55247SOL    HW267639   7.971   9.672   6.471
55248SOL     OW67640  10.713  13.885   9.238
55248SOL    HW167641  10.788  13.850   9.286
55248SOL    HW267642  10.733  13.869   9.146
55249SOL     OW67643  10.329  14.281  11.689
55249SOL    HW167644  10.412  14.261  11.646
55249SOL    HW267645  10.308  14.370  11.661
55250SOL     OW67646   5.041   9.784   7.006
55250SOL    HW167647   5.034   9.833   6.924
55250SOL    HW267648   5.056   9.694   6.978
55251SOL     OW67649  13.125   8.722   8.036
55251SOL    HW167650  13.169   8.693   7.957
55251SOL    HW267651  13.069   8.794   8.008
55252SOL     OW67652  11.173  11.142   0.893
55252SOL    HW167653  11.140  11.188   0.970
55252SOL    HW267654  11.186  11.211   0.828
55253SOL     OW67655   9.573   2.757  11.573
55253SOL    HW167656   9.494   2.702  11.571
55253SOL    HW267657   9.633   2.714  11.512
55254SOL     OW67658  10.826  14.709  14.634
55254SOL    HW167659  10.917  14.724  14.611
55254SOL    HW267660  10.788  14.667  14.557
55255SOL     OW67661  14.121  10.554   1.126
55255SOL    HW167662  14.125  10.459   1.119
55255SOL    HW267663  14.211  10.584   1.110
55256SOL     OW67664   6.218   9.367  13.716
55256SOL    HW167665   6.283   9.422  13.672
55256SOL    HW267666   6.146   9.360  13.652
55257SOL     OW67667   7.246   4.300   5.642
55257SOL    HW167668   7.183   4.369   5.622
55257SOL    HW267669   7.193   4.223   5.664
55258SOL     OW67670   5.469   0.806  11.289
55258SOL    HW167671   5.502   0.831  11.375
55258SOL    HW267672   5.414   0.728  11.306
55259SOL     OW67673   2.011   6.662   9.030
55259SOL    HW167674   1.940   6.691   9.087
55259SOL    HW267675   2.083   6.722   9.049
55260SOL     OW67676   3.368   1.998   2.094
55260SOL    HW167677   3.278   2.015   2.066
55260SOL    HW267678   3.382   2.057   2.168
55261SOL     OW67679   4.420  10.248  10.412
55261SOL    HW167680   4.399  10.244  10.505
55261SOL    HW267681   4.389  10.165  10.376
55262SOL     OW67682   7.626  10.422   1.693
55262SOL    HW167683   7.687  10.428   1.619
55262SOL    HW267684   7.676  10.378   1.762
55263SOL     OW67685   1.655  10.802   1.348
55263SOL    HW167686   1.637  10.801   1.254
55263SOL    HW267687   1.616  10.721   1.380
55264SOL     OW67688   9.979  12.058   2.111
55264SOL    HW167689   9.911  12.011   2.159
55264SOL    HW267690  10.061  12.031   2.152
55265SOL     OW67691  12.057   1.698   4.690
55265SOL    HW167692  12.087   1.609   4.709
55265SOL    HW267693  11.974   1.686   4.643
55266SOL     OW67694   1.985   1.087   9.876
55266SOL    HW167695   2.024   1.006   9.911
55266SOL    HW267696   2.060   1.141   9.853
55267SOL     OW67697  12.416   1.788  14.329
55267SOL    HW167698  12.405   1.740  14.411
55267SOL    HW267699  12.422   1.719  14.262
55268SOL     OW67700   1.090   8.779   1.005
55268SOL    HW167701   1.141   8.854   1.036
55268SOL    HW267702   1.018   8.818   0.956
55269SOL     OW67703   9.377   1.115   5.033
55269SOL    HW167704   9.412   1.165   5.107
55269SOL    HW267705   9.355   1.030   5.069
55270SOL     OW67706   1.187   8.562   5.336
55270SOL    HW167707   1.138   8.643   5.327
55270SOL    HW267708   1.149   8.519   5.413
55271SOL     OW67709  10.663   1.419   2.035
55271SOL    HW167710  10.578   1.463   2.037
55271SOL    HW267711  10.706   1.455   1.957
55272SOL     OW67712   7.943   9.736   6.949
55272SOL    HW167713   7.969   9.824   6.978
55272SOL    HW267714   7.857   9.723   6.987
55273SOL     OW67715  10.682   1.503   1.480
55273SOL    HW167716  10.626   1.467   1.549
55273SOL    HW267717  10.667   1.445   1.405
55274SOL     OW67718   0.408  10.869   7.961
55274SOL    HW167719   0.331  10.829   7.920
55274SOL    HW267720   0.374  10.944   8.008
55275SOL     OW67721   5.481   6.713   4.900
55275SOL    HW167722   5.503   6.629   4.861
55275SOL    HW267723   5.564   6.761   4.904
55276SOL     OW67724  12.316   9.612   0.148
55276SOL    HW167725  12.312   9.707   0.160
55276SOL    HW267726  12.339   9.578   0.234
55277SOL     OW67727   7.136   2.613   8.605
55277SOL    HW167728   7.195   2.560   8.552
55277SOL    HW267729   7.109   2.684   8.547
55278SOL     OW67730   7.170  11.710   3.722
55278SOL    HW167731   7.116  11.788   3.712
55278SOL    HW267732   7.162  11.664   3.638
55279SOL     OW67733   6.598   6.053   0.527
55279SOL    HW167734   6.564   6.135   0.491
55279SOL    HW267735   6.521   6.009   0.563
55280SOL     OW67736   4.824  12.308   2.056
55280SOL    HW167737   4.872  12.258   2.122
55280SOL    HW267738   4.817  12.396   2.092
55281SOL     OW67739   9.787   5.953  12.756
55281SOL    HW167740   9.757   6.041  12.734
55281SOL    HW267741   9.788   5.907  12.672
55282SOL     OW67742   0.839  14.022   0.274
55282SOL    HW167743   0.773  14.042   0.340
55282SOL    HW267744   0.811  14.071   0.196
55283SOL     OW67745  11.115   1.216  12.186
55283SOL    HW167746  11.137   1.194  12.096
55283SOL    HW267747  11.023   1.190  12.195
55284SOL     OW67748  10.043  14.426   8.617
55284SOL    HW167749  10.022  14.380   8.536
55284SOL    HW267750   9.997  14.377   8.685
55285SOL     OW67751  10.426   6.938   9.748
55285SOL    HW167752  10.370   6.925   9.671
55285SOL    HW267753  10.483   6.861   9.749
55286SOL     OW67754   2.958   0.866  12.377
55286SOL    HW167755   3.047   0.829  12.369
55286SOL    HW267756   2.900   0.794  12.351
55287SOL     OW67757  12.453   2.040   9.664
55287SOL    HW167758  12.416   1.967   9.713
55287SOL    HW267759  12.417   2.118   9.706
55288SOL     OW67760  13.593   3.600  12.242
55288SOL    HW167761  13.500   3.579  12.232
55288SOL    HW267762  13.600   3.691  12.212
55289SOL     OW67763   5.594   5.941  12.016
55289SOL    HW167764   5.628   5.915  12.102
55289SOL    HW267765   5.524   5.878  11.998
55290SOL     OW67766  12.480   4.983   7.635
55290SOL    HW167767  12.495   4.891   7.658
55290SOL    HW267768  12.397   5.005   7.679
55291SOL     OW67769   4.932   7.271  10.553
55291SOL    HW167770   4.865   7.329  10.589
55291SOL    HW267771   5.011   7.324  10.550
55292SOL     OW67772   1.119   7.970   9.877
55292SOL    HW167773   1.206   7.930   9.885
55292SOL    HW267774   1.136   8.061   9.853
55293SOL     OW67775   1.969  13.963   1.714
55293SOL    HW167776   1.962  13.958   1.809
55293SOL    HW267777   1.878  13.958   1.683
55294SOL     OW67778   1.739   7.301   3.424
55294SOL    HW167779   1.674   7.280   3.491
55294SOL    HW267780   1.696   7.282   3.341
55295SOL     OW67781  11.155  13.727   0.422
55295SOL    HW167782  11.089  13.789   0.391
55295SOL    HW267783  11.232  13.781   0.438
55296SOL     OW67784   7.207  12.222   2.210
55296SOL    HW167785   7.226  12.131   2.188
55296SOL    HW267786   7.292  12.265   2.205
55297SOL     OW67787   2.592   5.469  10.246
55297SOL    HW167788   2.614   5.435  10.159
55297SOL    HW267789   2.611   5.397  10.306
55298SOL     OW67790   4.318   3.417   8.400
55298SOL    HW167791   4.367   3.434   8.319
55298SOL    HW267792   4.376   3.360   8.451
55299SOL     OW67793  12.982   1.703   9.729
55299SOL    HW167794  12.958   1.772   9.790
55299SOL    HW267795  12.986   1.746   9.644
55300SOL     OW67796   7.224   4.651  11.139
55300SOL    HW167797   7.293   4.678  11.200
55300SOL    HW267798   7.231   4.555  11.137
55301SOL     OW67799   9.855  11.442   2.991
55301SOL    HW167800   9.800  11.504   3.039
55301SOL    HW267801   9.933  11.492   2.966
55302SOL     OW67802  13.035   9.465   7.220
55302SOL    HW167803  13.007   9.556   7.207
55302SOL    HW267804  12.954   9.418   7.239
55303SOL     OW67805  14.088   0.913   7.676
55303SOL    HW167806  14.027   0.863   7.622
55303SOL    HW267807  14.134   0.969   7.614
55304SOL     OW67808  12.148  11.343   5.708
55304SOL    HW167809  12.065  11.355   5.662
55304SOL    HW267810  12.210  11.316   5.640
55305SOL     OW67811  12.203  14.510  13.920
55305SOL    HW167812  12.245  14.481  13.839
55305SOL    HW267813  12.260  14.479  13.990
55306SOL     OW67814   9.200   4.563   6.899
55306SOL    HW167815   9.237   4.476   6.915
55306SOL    HW267816   9.154   4.555   6.815
55307SOL     OW67817   7.048   8.630  12.885
55307SOL    HW167818   7.080   8.676  12.962
55307SOL    HW267819   7.107   8.555  12.877
55308SOL     OW67820  13.807   1.407  10.046
55308SOL    HW167821  13.888   1.437  10.004
55308SOL    HW267822  13.825   1.317  10.072
55309SOL     OW67823   6.990   3.594   4.073
55309SOL    HW167824   7.040   3.622   4.150
55309SOL    HW267825   6.904   3.571   4.108
55310SOL     OW67826   8.457   1.116   7.807
55310SOL    HW167827   8.524   1.168   7.850
55310SOL    HW267828   8.494   1.094   7.721
55311SOL     OW67829   1.513   7.782  11.863
55311SOL    HW167830   1.423   7.804  11.886
55311SOL    HW267831   1.546   7.734  11.939
55312SOL     OW67832   8.845   4.801   6.678
55312SOL    HW167833   8.758   4.775   6.646
55312SOL    HW267834   8.830   4.829   6.768
55313SOL     OW67835  10.646  10.839  12.667
55313SOL    HW167836  10.609  10.817  12.752
55313SOL    HW267837  10.594  10.789  12.604
55314SOL     OW67838   3.506   3.784  12.896
55314SOL    HW167839   3.414   3.808  12.892
55314SOL    HW267840   3.512   3.724  12.970
55315SOL     OW67841   1.242   5.466   6.267
55315SOL    HW167842   1.248   5.483   6.173
55315SOL    HW267843   1.330   5.480   6.300
55316SOL     OW67844  10.275   3.607  13.031
55316SOL    HW167845  10.278   3.606  12.935
55316SOL    HW267846  10.366   3.596  13.058
55317SOL     OW67847   7.131  13.687   6.098
55317SOL    HW167848   7.212  13.731   6.125
55317SOL    HW267849   7.085  13.753   6.046
55318SOL     OW67850   7.529  11.244   5.936
55318SOL    HW167851   7.534  11.292   6.019
55318SOL    HW267852   7.619  11.219   5.917
55319SOL     OW67853   1.732   4.498   2.929
55319SOL    HW167854   1.764   4.412   2.956
55319SOL    HW267855   1.642   4.502   2.962
55320SOL     OW67856   1.754  11.035   5.165
55320SOL    HW167857   1.831  11.056   5.218
55320SOL    HW267858   1.787  11.035   5.075
55321SOL     OW67859   9.120   3.105   1.578
55321SOL    HW167860   9.130   3.039   1.509
55321SOL    HW267861   9.176   3.177   1.550
55322SOL     OW67862   2.969   6.622   9.249
55322SOL    HW167863   2.926   6.547   9.210
55322SOL    HW267864   3.037   6.647   9.187
55323SOL     OW67865  11.141   9.627   1.037
55323SOL    HW167866  11.177   9.706   0.997
55323SOL    HW267867  11.216   9.582   1.075
55324SOL     OW67868   1.095  14.163   2.538
55324SOL    HW167869   1.080  14.070   2.521
55324SOL    HW267870   1.106  14.202   2.451
55325SOL     OW67871   2.561   6.339   2.345
55325SOL    HW167872   2.630   6.294   2.394
55325SOL    HW267873   2.606   6.372   2.267
55326SOL     OW67874   9.094  10.612   0.637
55326SOL    HW167875   9.153  10.573   0.702
55326SOL    HW267876   9.045  10.678   0.686
55327SOL     OW67877  14.353  12.323   3.145
55327SOL    HW167878  14.259  12.310   3.148
55327SOL    HW267879  14.387  12.271   3.218
55328SOL     OW67880   8.333  12.219   1.878
55328SOL    HW167881   8.376  12.303   1.895
55328SOL    HW267882   8.283  12.201   1.957
55329SOL     OW67883   6.005   3.014   4.368
55329SOL    HW167884   6.089   3.052   4.395
55329SOL    HW267885   5.940   3.081   4.391
55330SOL     OW67886   3.787   0.964  14.787
55330SOL    HW167887   3.729   0.960  14.711
55330SOL    HW267888   3.731   0.943  14.862
55331SOL     OW67889  13.475   5.802   1.725
55331SOL    HW167890  13.504   5.778   1.812
55331SOL    HW267891  13.383   5.775   1.721
55332SOL     OW67892   1.001   9.739  13.047
55332SOL    HW167893   1.061   9.697  13.108
55332SOL    HW267894   0.949   9.667  13.012
55333SOL     OW67895   8.825  11.519   2.020
55333SOL    HW167896   8.837  11.539   1.927
55333SOL    HW267897   8.914  11.515   2.055
55334SOL     OW67898  10.892   9.167  10.567
55334SOL    HW167899  10.933   9.083  10.549
55334SOL    HW267900  10.948   9.207  10.634
55335SOL     OW67901  11.289  13.323   3.466
55335SOL    HW167902  11.222  13.257   3.482
55335SOL    HW267903  11.248  13.384   3.404
55336SOL     OW67904   6.951   8.262  12.092
55336SOL    HW167905   6.922   8.244  12.002
55336SOL    HW267906   6.978   8.354  12.090
55337SOL     OW67907  13.000   5.115   7.114
55337SOL    HW167908  13.082   5.098   7.066
55337SOL    HW267909  12.932   5.078   7.058
55338SOL     OW67910   9.769   7.875  14.071
55338SOL    HW167911   9.706   7.843  14.006
55338SOL    HW267912   9.836   7.807  14.075
55339SOL     OW67913   2.623  13.404  12.144
55339SOL    HW167914   2.554  13.346  12.112
55339SOL    HW267915   2.594  13.428  12.233
55340SOL     OW67916   1.331   1.173   2.987
55340SOL    HW167917   1.322   1.077   2.980
55340SOL    HW267918   1.405   1.186   3.045
55341SOL     OW67919   2.230  12.097   1.433
55341SOL    HW167920   2.160  12.032   1.440
55341SOL    HW267921   2.223  12.149   1.513
55342SOL     OW67922   1.383   6.387  14.062
55342SOL    HW167923   1.327   6.313  14.084
55342SOL    HW267924   1.464   6.347  14.031
55343SOL     OW67925   5.240   1.386  11.041
55343SOL    HW167926   5.245   1.385  10.946
55343SOL    HW267927   5.248   1.294  11.066
55344SOL     OW67928  10.985  12.594  10.456
55344SOL    HW167929  10.898  12.617  10.487
55344SOL    HW267930  11.013  12.522  10.513
55345SOL     OW67931   8.670   1.800   6.337
55345SOL    HW167932   8.649   1.878   6.285
55345SOL    HW267933   8.758   1.817   6.371
55346SOL     OW67934  14.306  12.706   0.575
55346SOL    HW167935  14.235  12.645   0.595
55346SOL    HW267936  14.316  12.759   0.654
55347SOL     OW67937   8.024   9.922   1.624
55347SOL    HW167938   8.035   9.949   1.533
55347SOL    HW267939   7.962   9.850   1.621
55348SOL     OW67940   5.061   5.620   9.377
55348SOL    HW167941   5.055   5.693   9.315
55348SOL    HW267942   4.980   5.572   9.366
55349SOL     OW67943  10.430   1.016   7.365
55349SOL    HW167944  10.433   1.097   7.314
55349SOL    HW267945  10.414   0.947   7.301
55350SOL     OW67946   3.837   1.023   1.704
55350SOL    HW167947   3.819   1.033   1.798
55350SOL    HW267948   3.789   0.945   1.679
55351SOL     OW67949   8.591  10.482  10.158
55351SOL    HW167950   8.579  10.419  10.229
55351SOL    HW267951   8.519  10.545  10.169
55352SOL     OW67952   4.455   2.540   2.933
55352SOL    HW167953   4.478   2.628   2.903
55352SOL    HW267954   4.383   2.555   2.995
55353SOL     OW67955   5.037  10.370   0.293
55353SOL    HW167956   5.131  10.370   0.313
55353SOL    HW267957   4.999  10.307   0.354
55354SOL     OW67958   6.218  14.830  10.708
55354SOL    HW167959   6.251  14.832  10.618
55354SOL    HW267960   6.170  14.748  10.714
55355SOL     OW67961   9.448   4.478  11.450
55355SOL    HW167962   9.482   4.449  11.535
55355SOL    HW267963   9.514   4.540  11.418
55356SOL     OW67964  12.283   8.192  13.202
55356SOL    HW167965  12.340   8.269  13.203
55356SOL    HW267966  12.339   8.122  13.168
55357SOL     OW67967  11.579   3.810   4.424
55357SOL    HW167968  11.631   3.845   4.352
55357SOL    HW267969  11.553   3.723   4.393
55358SOL     OW67970  10.566   9.847   4.710
55358SOL    HW167971  10.498   9.900   4.669
55358SOL    HW267972  10.617   9.814   4.636
55359SOL     OW67973   9.016   0.802  14.623
55359SOL    HW167974   9.006   0.761  14.709
55359SOL    HW267975   9.029   0.895  14.642
55360SOL     OW67976   3.529   0.312   8.563
55360SOL    HW167977   3.502   0.233   8.517
55360SOL    HW267978   3.475   0.381   8.525
55361SOL     OW67979   3.319   3.197   0.544
55361SOL    HW167980   3.309   3.103   0.559
55361SOL    HW267981   3.282   3.238   0.622
55362SOL     OW67982  11.752   0.555   3.517
55362SOL    HW167983  11.718   0.582   3.432
55362SOL    HW267984  11.789   0.468   3.502
55363SOL     OW67985  14.151  11.058   9.590
55363SOL    HW167986  14.112  11.107   9.663
55363SOL    HW267987  14.077  11.009   9.553
55364SOL     OW67988   5.464  13.384   5.411
55364SOL    HW167989   5.508  13.358   5.330
55364SOL    HW267990   5.518  13.455   5.446
55365SOL     OW67991  14.653   1.400   6.877
55365SOL    HW167992  14.614   1.462   6.815
55365SOL    HW267993  14.739   1.380   6.841
55366SOL     OW67994   4.824   1.218  13.770
55366SOL    HW167995   4.766   1.148  13.799
55366SOL    HW267996   4.797   1.237  13.680
55367SOL     OW67997  11.798   8.057   8.871
55367SOL    HW167998  11.716   8.022   8.837
55367SOL    HW267999  11.788   8.055   8.966
55368SOL     OW68000   1.132   0.083   4.425
55368SOL    HW168001   1.081   0.002   4.428
55368SOL    HW268002   1.199   0.067   4.358
55369SOL     OW68003  14.399   8.229   5.802
55369SOL    HW168004  14.457   8.255   5.873
55369SOL    HW268005  14.450   8.246   5.723
55370SOL     OW68006   4.986   2.167   3.690
55370SOL    HW168007   4.897   2.137   3.707
55370SOL    HW268008   4.977   2.230   3.618
55371SOL     OW68009   4.657   8.939   0.937
55371SOL    HW168010   4.732   8.914   0.991
55371SOL    HW268011   4.608   8.858   0.925
55372SOL     OW68012  14.188   9.794  10.651
55372SOL    HW168013  14.119   9.729  10.655
55372SOL    HW268014  14.265   9.746  10.622
55373SOL     OW68015   0.639  11.469   5.449
55373SOL    HW168016   0.698  11.517   5.391
55373SOL    HW268017   0.653  11.377   5.427
55374SOL     OW68018  14.143  10.231  13.066
55374SOL    HW168019  14.192  10.250  12.986
55374SOL    HW268020  14.145  10.313  13.115
55375SOL     OW68021  12.665   4.934   4.886
55375SOL    HW168022  12.694   5.010   4.936
55375SOL    HW268023  12.654   4.966   4.797
55376SOL     OW68024   8.322   3.431   6.471
55376SOL    HW168025   8.371   3.498   6.421
55376SOL    HW268026   8.390   3.386   6.522
55377SOL     OW68027  12.317  14.202   2.264
55377SOL    HW168028  12.229  14.218   2.297
55377SOL    HW268029  12.305  14.144   2.189
55378SOL     OW68030   2.460   1.545   9.689
55378SOL    HW168031   2.513   1.504   9.621
55378SOL    HW268032   2.461   1.638   9.668
55379SOL     OW68033   6.365   4.370   5.360
55379SOL    HW168034   6.383   4.426   5.435
55379SOL    HW268035   6.423   4.403   5.291
55380SOL     OW68036   4.261   6.467   2.819
55380SOL    HW168037   4.233   6.559   2.821
55380SOL    HW268038   4.184   6.419   2.788
55381SOL     OW68039  14.547  12.348   2.498
55381SOL    HW168040  14.546  12.401   2.418
55381SOL    HW268041  14.473  12.380   2.549
55382SOL     OW68042  14.586   2.858  11.536
55382SOL    HW168043  14.492   2.874  11.538
55382SOL    HW268044  14.612   2.857  11.629
55383SOL     OW68045   1.470  10.456  10.640
55383SOL    HW168046   1.380  10.482  10.662
55383SOL    HW268047   1.480  10.478  10.548
55384SOL     OW68048   8.822   4.635   0.140
55384SOL    HW168049   8.737   4.679   0.142
55384SOL    HW268050   8.871   4.674   0.213
55385SOL     OW68051  12.144  11.888   6.274
55385SOL    HW168052  12.101  11.973   6.272
55385SOL    HW268053  12.075  11.826   6.299
55386SOL     OW68054  10.181   6.294  11.361
55386SOL    HW168055  10.103   6.245  11.385
55386SOL    HW268056  10.252   6.230  11.364
55387SOL     OW68057   0.116   4.478   1.758
55387SOL    HW168058   0.090   4.563   1.723
55387SOL    HW268059   0.079   4.414   1.697
55388SOL     OW68060   2.997   8.330  12.148
55388SOL    HW168061   2.938   8.365  12.215
55388SOL    HW268062   3.080   8.375  12.163
55389SOL     OW68063   9.673  13.376  12.535
55389SOL    HW168064   9.744  13.348  12.593
55389SOL    HW268065   9.715  13.387  12.449
55390SOL     OW68066  13.927   6.305   6.433
55390SOL    HW168067  13.988   6.363   6.388
55390SOL    HW268068  13.982   6.234   6.467
55391SOL     OW68069   9.788   7.935   5.432
55391SOL    HW168070   9.724   7.939   5.361
55391SOL    HW268071   9.771   8.013   5.485
55392SOL     OW68072  13.404   7.502   4.881
55392SOL    HW168073  13.425   7.593   4.864
55392SOL    HW268074  13.488   7.462   4.904
55393SOL     OW68075   5.808   8.242   9.661
55393SOL    HW168076   5.791   8.332   9.635
55393SOL    HW268077   5.773   8.189   9.589
55394SOL     OW68078  11.649   2.975  14.205
55394SOL    HW168079  11.584   3.043  14.218
55394SOL    HW268080  11.604   2.908  14.154
55395SOL     OW68081   8.768   9.530  12.497
55395SOL    HW168082   8.697   9.508  12.437
55395SOL    HW268083   8.725   9.571  12.572
55396SOL     OW68084   4.774   8.506  10.366
55396SOL    HW168085   4.767   8.413  10.342
55396SOL    HW268086   4.834   8.507  10.441
55397SOL     OW68087   8.377   2.161  11.611
55397SOL    HW168088   8.334   2.122  11.687
55397SOL    HW268089   8.342   2.250  11.607
55398SOL     OW68090   4.974  13.154   3.573
55398SOL    HW168091   4.940  13.196   3.495
55398SOL    HW268092   4.897  13.122   3.620
55399SOL     OW68093   0.913   3.275  12.713
55399SOL    HW168094   0.865   3.284  12.795
55399SOL    HW268095   0.899   3.358  12.668
55400SOL     OW68096   9.306  13.176   5.842
55400SOL    HW168097   9.361  13.143   5.913
55400SOL    HW268098   9.242  13.233   5.885
55401SOL     OW68099  10.189   2.360  13.091
55401SOL    HW168100  10.281   2.369  13.070
55401SOL    HW268101  10.144   2.415  13.027
55402SOL     OW68102  11.457   3.729   2.720
55402SOL    HW168103  11.508   3.756   2.796
55402SOL    HW268104  11.368   3.718   2.753
55403SOL     OW68105   5.529  12.358   2.151
55403SOL    HW168106   5.598  12.368   2.216
55403SOL    HW268107   5.560  12.409   2.075
55404SOL     OW68108  11.556   3.016  12.179
55404SOL    HW168109  11.496   3.088  12.201
55404SOL    HW268110  11.604   2.999  12.260
55405SOL     OW68111   4.419   3.705   3.863
55405SOL    HW168112   4.423   3.749   3.948
55405SOL    HW268113   4.510   3.699   3.835
55406SOL     OW68114  13.945  10.320  11.658
55406SOL    HW168115  13.906  10.258  11.596
55406SOL    HW268116  13.977  10.392  11.603
55407SOL     OW68117  12.736  11.051   7.073
55407SOL    HW168118  12.790  11.109   7.021
55407SOL    HW268119  12.730  10.970   7.022
55408SOL     OW68120   1.402  10.296   8.965
55408SOL    HW168121   1.497  10.289   8.966
55408SOL    HW268122   1.372  10.212   9.000
55409SOL     OW68123   7.332   7.011  13.450
55409SOL    HW168124   7.346   6.958  13.371
55409SOL    HW268125   7.257   6.971  13.493
55410SOL     OW68126   2.421  14.195   3.472
55410SOL    HW168127   2.492  14.146   3.433
55410SOL    HW268128   2.346  14.136   3.470
55411SOL     OW68129   7.602   8.614  12.867
55411SOL    HW168130   7.539   8.560  12.818
55411SOL    HW268131   7.589   8.703  12.833
55412SOL     OW68132   7.950  13.141   7.227
55412SOL    HW168133   7.994  13.219   7.261
55412SOL    HW268134   8.000  13.118   7.148
55413SOL     OW68135  12.432   7.444   0.380
55413SOL    HW168136  12.524   7.423   0.362
55413SOL    HW268137  12.393   7.456   0.293
55414SOL     OW68138   4.750   5.543   3.298
55414SOL    HW168139   4.779   5.613   3.356
55414SOL    HW268140   4.825   5.526   3.241
55415SOL     OW68141  13.847   1.869  13.910
55415SOL    HW168142  13.943   1.864  13.905
55415SOL    HW268143  13.816   1.797  13.855
55416SOL     OW68144  13.992   8.512   3.966
55416SOL    HW168145  14.036   8.593   3.943
55416SOL    HW268146  13.904   8.539   3.993
55417SOL     OW68147   2.441   9.966   8.888
55417SOL    HW168148   2.417  10.053   8.856
55417SOL    HW268149   2.519   9.943   8.838
55418SOL     OW68150   4.856   6.247   4.815
55418SOL    HW168151   4.835   6.337   4.790
55418SOL    HW268152   4.888   6.254   4.905
55419SOL     OW68153  12.375   7.230   1.988
55419SOL    HW168154  12.375   7.175   2.067
55419SOL    HW268155  12.436   7.187   1.928
55420SOL     OW68156   1.525   5.518   5.974
55420SOL    HW168157   1.580   5.594   5.955
55420SOL    HW268158   1.584   5.458   6.020
55421SOL     OW68159  10.254   8.951  14.623
55421SOL    HW168160  10.324   8.925  14.563
55421SOL    HW268161  10.173   8.928  14.577
55422SOL     OW68162   8.319  14.749  10.050
55422SOL    HW168163   8.407  14.723  10.021
55422SOL    HW268164   8.278  14.668  10.079
55423SOL     OW68165   2.713   2.513   3.737
55423SOL    HW168166   2.699   2.601   3.772
55423SOL    HW268167   2.625   2.484   3.711
55424SOL     OW68168   4.422   7.986   5.797
55424SOL    HW168169   4.450   8.077   5.810
55424SOL    HW268170   4.502   7.935   5.805
55425SOL     OW68171   2.469  11.406   5.101
55425SOL    HW168172   2.413  11.364   5.036
55425SOL    HW268173   2.468  11.347   5.176
55426SOL     OW68174   2.942  12.564   1.586
55426SOL    HW168175   3.033  12.584   1.606
55426SOL    HW268176   2.925  12.608   1.503
55427SOL     OW68177   9.758   7.964   4.324
55427SOL    HW168178   9.724   7.879   4.296
55427SOL    HW268179   9.853   7.952   4.325
55428SOL     OW68180  14.097  14.829   0.342
55428SOL    HW168181  14.100  14.757   0.405
55428SOL    HW268182  14.033   0.018   0.379
55429SOL     OW68183   9.324   1.530  11.894
55429SOL    HW168184   9.299   1.553  11.984
55429SOL    HW268185   9.409   1.488  11.904
55430SOL     OW68186  14.272  11.266   7.655
55430SOL    HW168187  14.285  11.335   7.590
55430SOL    HW268188  14.178  11.246   7.651
55431SOL     OW68189   8.014   0.533  13.289
55431SOL    HW168190   8.107   0.554  13.276
55431SOL    HW268191   8.007   0.509  13.381
55432SOL     OW68192   3.861  13.605  11.412
55432SOL    HW168193   3.784  13.598  11.468
55432SOL    HW268194   3.918  13.667  11.458
55433SOL     OW68195   2.665  10.202  11.933
55433SOL    HW168196   2.635  10.112  11.943
55433SOL    HW268197   2.594  10.255  11.968
55434SOL     OW68198  10.923   8.349  10.441
55434SOL    HW168199  10.881   8.394  10.514
55434SOL    HW268200  10.894   8.397  10.363
55435SOL     OW68201   2.978   7.712   5.048
55435SOL    HW168202   2.935   7.628   5.041
55435SOL    HW268203   3.059   7.694   5.096
55436SOL     OW68204   4.335  10.758   2.588
55436SOL    HW168205   4.293  10.697   2.527
55436SOL    HW268206   4.263  10.812   2.620
55437SOL     OW68207   6.230  12.081   1.019
55437SOL    HW168208   6.279  12.119   0.946
55437SOL    HW268209   6.179  12.153   1.055
55438SOL     OW68210   4.893  10.907   6.386
55438SOL    HW168211   4.953  10.836   6.411
55438SOL    HW268212   4.918  10.928   6.296
55439SOL     OW68213  13.866  10.581   9.695
55439SOL    HW168214  13.832  10.601   9.782
55439SOL    HW268215  13.931  10.648   9.678
55440SOL     OW68216  10.752  14.777   2.592
55440SOL    HW168217  10.753  14.708   2.659
55440SOL    HW268218  10.688  14.747   2.528
55441SOL     OW68219  13.730   7.940   2.407
55441SOL    HW168220  13.746   7.879   2.335
55441SOL    HW268221  13.636   7.931   2.425
55442SOL     OW68222  11.648   5.705  10.181
55442SOL    HW168223  11.743   5.718  10.183
55442SOL    HW268224  11.635   5.619  10.221
55443SOL     OW68225   4.709   3.641   3.848
55443SOL    HW168226   4.769   3.661   3.920
55443SOL    HW268227   4.758   3.666   3.770
55444SOL     OW68228  10.108   3.252   6.554
55444SOL    HW168229  10.169   3.248   6.629
55444SOL    HW268230  10.131   3.176   6.501
55445SOL     OW68231  10.583   3.648   9.579
55445SOL    HW168232  10.506   3.613   9.624
55445SOL    HW268233  10.547   3.697   9.505
55446SOL     OW68234   5.970  12.296   9.053
55446SOL    HW168235   5.963  12.387   9.082
55446SOL    HW268236   6.058  12.290   9.015
55447SOL     OW68237   4.115   3.889   3.317
55447SOL    HW168238   4.085   3.928   3.234
55447SOL    HW268239   4.048   3.916   3.381
55448SOL     OW68240   9.510   8.033  13.056
55448SOL    HW168241   9.586   8.090  13.045
55448SOL    HW268242   9.532   7.954  13.007
55449SOL     OW68243  11.698  11.344   8.827
55449SOL    HW168244  11.615  11.328   8.781
55449SOL    HW268245  11.758  11.279   8.791
55450SOL     OW68246   8.838  11.117   7.038
55450SOL    HW168247   8.853  11.058   6.964
55450SOL    HW268248   8.765  11.172   7.011
55451SOL     OW68249  11.474   7.614   8.633
55451SOL    HW168250  11.389   7.571   8.639
55451SOL    HW268251  11.535   7.554   8.676
55452SOL     OW68252   5.003   6.097   6.712
55452SOL    HW168253   4.911   6.118   6.729
55452SOL    HW268254   5.036   6.065   6.796
55453SOL     OW68255   4.022   4.972   9.407
55453SOL    HW168256   4.094   4.981   9.344
55453SOL    HW268257   3.944   4.995   9.357
55454SOL     OW68258   2.413   2.547   0.716
55454SOL    HW168259   2.430   2.636   0.686
55454SOL    HW268260   2.425   2.493   0.638
55455SOL     OW68261  13.065   7.316   4.588
55455SOL    HW168262  12.999   7.383   4.606
55455SOL    HW268263  13.144   7.366   4.563
55456SOL     OW68264   9.125   5.942   8.519
55456SOL    HW168265   9.145   6.031   8.488
55456SOL    HW268266   9.204   5.915   8.566
55457SOL     OW68267   6.642  12.047   3.320
55457SOL    HW168268   6.671  12.135   3.296
55457SOL    HW268269   6.639  12.048   3.416
55458SOL     OW68270   6.454   8.293   6.313
55458SOL    HW168271   6.537   8.275   6.358
55458SOL    HW268272   6.456   8.234   6.237
55459SOL     OW68273  14.156  11.644   2.216
55459SOL    HW168274  14.063  11.663   2.216
55459SOL    HW268275  14.164  11.565   2.163
55460SOL     OW68276  14.530   4.588  13.204
55460SOL    HW168277  14.441   4.556  13.221
55460SOL    HW268278  14.529   4.677  13.238
55461SOL     OW68279  10.580   0.944  11.232
55461SOL    HW168280  10.606   0.902  11.150
55461SOL    HW268281  10.486   0.958  11.223
55462SOL     OW68282   4.768   4.014  13.445
55462SOL    HW168283   4.736   4.099  13.414
55462SOL    HW268284   4.701   3.951  13.415
55463SOL     OW68285   1.463   4.448  12.067
55463SOL    HW168286   1.414   4.527  12.090
55463SOL    HW268287   1.398   4.391  12.024
55464SOL     OW68288   0.667   9.087  13.160
55464SOL    HW168289   0.650   9.000  13.194
55464SOL    HW268290   0.725   9.128  13.224
55465SOL     OW68291   1.559   1.204   0.590
55465SOL    HW168292   1.600   1.245   0.666
55465SOL    HW268293   1.493   1.145   0.627
55466SOL     OW68294   3.985   7.656  10.435
55466SOL    HW168295   4.022   7.616  10.356
55466SOL    HW268296   3.984   7.585  10.499
55467SOL     OW68297   8.857  10.526   4.775
55467SOL    HW168298   8.927  10.571   4.822
55467SOL    HW268299   8.900  10.449   4.737
55468SOL     OW68300   2.347   6.487   6.513
55468SOL    HW168301   2.316   6.398   6.533
55468SOL    HW268302   2.430   6.473   6.468
55469SOL     OW68303   4.844  13.585   3.121
55469SOL    HW168304   4.779  13.655   3.118
55469SOL    HW268305   4.793  13.505   3.107
55470SOL     OW68306  12.749   1.691   4.503
55470SOL    HW168307  12.772   1.643   4.583
55470SOL    HW268308  12.765   1.783   4.526
55471SOL     OW68309  10.222  13.933   4.322
55471SOL    HW168310  10.199  14.024   4.302
55471SOL    HW268311  10.226  13.890   4.237
55472SOL     OW68312   1.248   9.402   3.196
55472SOL    HW168313   1.185   9.354   3.249
55472SOL    HW268314   1.333   9.383   3.236
55473SOL     OW68315   3.897  14.129   7.397
55473SOL    HW168316   3.871  14.184   7.323
55473SOL    HW268317   3.967  14.179   7.440
55474SOL     OW68318   1.325  11.206   4.939
55474SOL    HW168319   1.295  11.130   4.989
55474SOL    HW268320   1.385  11.170   4.874
55475SOL     OW68321   4.197  10.988   9.564
55475SOL    HW168322   4.264  11.027   9.508
55475SOL    HW268323   4.245  10.932   9.624
55476SOL     OW68324  11.289   5.128   7.655
55476SOL    HW168325  11.367   5.072   7.655
55476SOL    HW268326  11.303   5.188   7.728
55477SOL     OW68327   7.741   7.179   0.798
55477SOL    HW168328   7.688   7.106   0.767
55477SOL    HW268329   7.792   7.206   0.722
55478SOL     OW68330   5.001  14.483   3.663
55478SOL    HW168331   4.993  14.504   3.756
55478SOL    HW268332   4.927  14.425   3.645
55479SOL     OW68333   6.565  12.103  14.760
55479SOL    HW168334   6.648  12.059  14.739
55479SOL    HW268335   6.501  12.032  14.761
55480SOL     OW68336   8.928  13.718  14.689
55480SOL    HW168337   8.958  13.634  14.723
55480SOL    HW268338   8.920  13.705  14.595
55481SOL     OW68339   8.238  11.517   6.287
55481SOL    HW168340   8.146  11.515   6.314
55481SOL    HW268341   8.256  11.610   6.271
55482SOL     OW68342   0.921   0.577  12.064
55482SOL    HW168343   0.966   0.551  11.984
55482SOL    HW268344   0.853   0.511  12.076
55483SOL     OW68345   7.014   7.769  10.221
55483SOL    HW168346   6.994   7.845  10.277
55483SOL    HW268347   7.011   7.803  10.132
55484SOL     OW68348   9.461  10.909   0.019
55484SOL    HW168349   9.370  10.924  14.867
55484SOL    HW268350   9.457  10.889   0.113
55485SOL     OW68351   4.971   2.479   6.239
55485SOL    HW168352   4.979   2.384   6.250
55485SOL    HW268353   4.955   2.512   6.327
55486SOL     OW68354   7.142   8.082   1.974
55486SOL    HW168355   7.083   8.041   1.911
55486SOL    HW268356   7.216   8.112   1.921
55487SOL     OW68357   4.225   1.746   1.385
55487SOL    HW168358   4.175   1.713   1.460
55487SOL    HW268359   4.233   1.840   1.400
55488SOL     OW68360  13.881   1.080   4.290
55488SOL    HW168361  13.855   1.010   4.230
55488SOL    HW268362  13.974   1.094   4.271
55489SOL     OW68363   3.641   6.795   4.190
55489SOL    HW168364   3.673   6.826   4.105
55489SOL    HW268365   3.621   6.703   4.176
55490SOL     OW68366  10.362  11.183   9.807
55490SOL    HW168367  10.394  11.267   9.773
55490SOL    HW268368  10.431  11.120   9.786
55491SOL     OW68369   2.157   0.726   5.177
55491SOL    HW168370   2.079   0.708   5.125
55491SOL    HW268371   2.192   0.639   5.198
55492SOL     OW68372  14.244   5.179   6.361
55492SOL    HW168373  14.291   5.254   6.396
55492SOL    HW268374  14.253   5.111   6.428
55493SOL     OW68375   5.817  14.128  13.784
55493SOL    HW168376   5.809  14.111  13.877
55493SOL    HW268377   5.909  14.149  13.771
55494SOL     OW68378   6.133   9.422   2.718
55494SOL    HW168379   6.167   9.483   2.653
55494SOL    HW268380   6.134   9.337   2.673
55495SOL     OW68381   6.702   4.858   5.120
55495SOL    HW168382   6.695   4.952   5.137
55495SOL    HW268383   6.611   4.831   5.104
55496SOL     OW68384   0.130   9.903   1.565
55496SOL    HW168385   0.122   9.838   1.635
55496SOL    HW268386   0.087   9.863   1.490
55497SOL     OW68387   8.801   8.735   9.715
55497SOL    HW168388   8.730   8.797   9.699
55497SOL    HW268389   8.863   8.783   9.770
55498SOL     OW68390   9.603   6.776   2.237
55498SOL    HW168391   9.593   6.860   2.191
55498SOL    HW268392   9.569   6.711   2.176
55499SOL     OW68393   3.933  10.475   0.451
55499SOL    HW168394   3.916  10.381   0.464
55499SOL    HW268395   3.871  10.501   0.382
55500SOL     OW68396  10.195  10.257   3.889
55500SOL    HW168397  10.203  10.174   3.841
55500SOL    HW268398  10.119  10.300   3.850
55501SOL     OW68399   6.648   2.979   2.170
55501SOL    HW168400   6.572   2.976   2.228
55501SOL    HW268401   6.721   3.001   2.228
55502SOL     OW68402  10.785  12.978   1.151
55502SOL    HW168403  10.706  12.933   1.180
55502SOL    HW268404  10.845  12.972   1.226
55503SOL     OW68405   3.047  10.611  13.190
55503SOL    HW168406   3.133  10.616  13.233
55503SOL    HW268407   3.023  10.702  13.175
55504SOL     OW68408   7.122  13.039   8.455
55504SOL    HW168409   7.160  13.120   8.421
55504SOL    HW268410   7.119  13.051   8.549
55505SOL     OW68411   3.892  11.532   4.991
55505SOL    HW168412   3.955  11.603   5.002
55505SOL    HW268413   3.916  11.468   5.058
55506SOL     OW68414   0.603   2.728  14.483
55506SOL    HW168415   0.680   2.705  14.431
55506SOL    HW268416   0.533   2.673  14.448
55507SOL     OW68417   7.427  14.047   7.916
55507SOL    HW168418   7.425  14.126   7.863
55507SOL    HW268419   7.348  13.999   7.891
55508SOL     OW68420  11.382   5.323  11.505
55508SOL    HW168421  11.339   5.339  11.421
55508SOL    HW268422  11.415   5.233  11.498
55509SOL     OW68423   0.157  10.925   2.563
55509SOL    HW168424   0.196  10.967   2.639
55509SOL    HW268425   0.106  10.993   2.520
55510SOL     OW68426   9.013  13.475   1.900
55510SOL    HW168427   8.938  13.419   1.882
55510SOL    HW268428   9.065  13.426   1.964
55511SOL     OW68429   7.179   9.702  10.816
55511SOL    HW168430   7.149   9.656  10.895
55511SOL    HW268431   7.270   9.674  10.806
55512SOL     OW68432  12.858   4.243   6.129
55512SOL    HW168433  12.852   4.155   6.090
55512SOL    HW268434  12.889   4.299   6.058
55513SOL     OW68435   9.628   4.953  14.232
55513SOL    HW168436   9.574   5.029  14.211
55513SOL    HW268437   9.682   4.983  14.306
55514SOL     OW68438  11.230   7.044  11.342
55514SOL    HW168439  11.284   6.967  11.360
55514SOL    HW268440  11.159   7.039  11.406
55515SOL     OW68441  14.383   1.422   1.332
55515SOL    HW168442  14.417   1.448   1.246
55515SOL    HW268443  14.299   1.381   1.313
55516SOL     OW68444   7.101   2.232   2.039
55516SOL    HW168445   7.167   2.301   2.026
55516SOL    HW268446   7.101   2.184   1.957
55517SOL     OW68447   2.500  13.118   8.857
55517SOL    HW168448   2.486  13.024   8.870
55517SOL    HW268449   2.440  13.160   8.918
55518SOL     OW68450   8.706  13.356  10.481
55518SOL    HW168451   8.720  13.337  10.389
55518SOL    HW268452   8.616  13.329  10.498
55519SOL     OW68453   5.507   2.100  13.531
55519SOL    HW168454   5.461   2.122  13.612
55519SOL    HW268455   5.508   2.004  13.528
55520SOL     OW68456   5.762   5.505   7.078
55520SOL    HW168457   5.847   5.545   7.100
55520SOL    HW268458   5.713   5.576   7.037
55521SOL     OW68459   7.861   2.422  13.980
55521SOL    HW168460   7.812   2.340  13.978
55521SOL    HW268461   7.946   2.400  13.943
55522SOL     OW68462   4.351   3.998  14.374
55522SOL    HW168463   4.350   3.916  14.325
55522SOL    HW268464   4.259   4.017  14.391
55523SOL     OW68465   7.923   2.611   6.254
55523SOL    HW168466   7.840   2.627   6.298
55523SOL    HW268467   7.979   2.573   6.322
55524SOL     OW68468   2.705  13.742   6.525
55524SOL    HW168469   2.627  13.728   6.579
55524SOL    HW268470   2.771  13.773   6.587
55525SOL     OW68471  11.883   7.767  13.577
55525SOL    HW168472  11.958   7.710  13.594
55525SOL    HW268473  11.915   7.827  13.509
55526SOL     OW68474  12.267   5.284  13.454
55526SOL    HW168475  12.229   5.197  13.438
55526SOL    HW268476  12.339   5.290  13.391
55527SOL     OW68477   8.123  14.721   3.721
55527SOL    HW168478   8.048  14.762   3.677
55527SOL    HW268479   8.120  14.756   3.810
55528SOL     OW68480  10.670  13.598   1.796
55528SOL    HW168481  10.633  13.680   1.763
55528SOL    HW268482  10.732  13.571   1.729
55529SOL     OW68483   1.744   2.647   7.828
55529SOL    HW168484   1.768   2.662   7.920
55529SOL    HW268485   1.755   2.732   7.786
55530SOL     OW68486  13.738   5.708   2.311
55530SOL    HW168487  13.769   5.623   2.280
55530SOL    HW268488  13.707   5.691   2.400
55531SOL     OW68489  13.752  13.381   2.843
55531SOL    HW168490  13.847  13.374   2.837
55531SOL    HW268491  13.723  13.398   2.754
55532SOL     OW68492  14.140   7.944   8.748
55532SOL    HW168493  14.098   7.977   8.828
55532SOL    HW268494  14.126   8.014   8.684
55533SOL     OW68495   8.986   6.527   9.064
55533SOL    HW168496   8.932   6.448   9.073
55533SOL    HW268497   8.942   6.578   8.995
55534SOL     OW68498   8.248   4.248   9.425
55534SOL    HW168499   8.257   4.153   9.432
55534SOL    HW268500   8.318   4.283   9.481
55535SOL     OW68501  14.754   2.330  12.642
55535SOL    HW168502  14.831   2.343  12.587
55535SOL    HW268503  14.730   2.418  12.671
55536SOL     OW68504   5.474  14.245   4.305
55536SOL    HW168505   5.566  14.263   4.325
55536SOL    HW268506   5.454  14.302   4.230
55537SOL     OW68507   5.956  14.613   2.989
55537SOL    HW168508   5.924  14.697   2.955
55537SOL    HW268509   6.038  14.636   3.034
55538SOL     OW68510   0.596  14.011   8.967
55538SOL    HW168511   0.542  13.999   8.889
55538SOL    HW268512   0.686  13.999   8.936
55539SOL     OW68513  14.122   4.013   0.143
55539SOL    HW168514  14.145   3.921   0.136
55539SOL    HW268515  14.042   4.022   0.092
55540SOL     OW68516   9.438   5.821   5.345
55540SOL    HW168517   9.466   5.766   5.272
55540SOL    HW268518   9.512   5.822   5.404
55541SOL     OW68519   8.966   1.799  13.328
55541SOL    HW168520   8.943   1.849  13.249
55541SOL    HW268521   8.983   1.866  13.394
55542SOL     OW68522   3.293   2.716   0.864
55542SOL    HW168523   3.328   2.628   0.852
55542SOL    HW268524   3.366   2.774   0.843
55543SOL     OW68525   7.992   6.657  13.554
55543SOL    HW168526   7.957   6.695  13.634
55543SOL    HW268527   8.007   6.565  13.576
55544SOL     OW68528  12.463   7.176   7.310
55544SOL    HW168529  12.400   7.171   7.382
55544SOL    HW268530  12.472   7.086   7.280
55545SOL     OW68531  13.562   1.735   5.837
55545SOL    HW168532  13.604   1.693   5.762
55545SOL    HW268533  13.476   1.762   5.804
55546SOL     OW68534  12.687   6.343   3.234
55546SOL    HW168535  12.683   6.252   3.262
55546SOL    HW268536  12.605   6.382   3.267
55547SOL     OW68537   1.138  10.768   8.845
55547SOL    HW168538   1.163  10.677   8.855
55547SOL    HW268539   1.200  10.803   8.781
55548SOL     OW68540   9.387   1.116   2.784
55548SOL    HW168541   9.459   1.076   2.833
55548SOL    HW268542   9.411   1.104   2.693
55549SOL     OW68543   4.917   1.143   6.447
55549SOL    HW168544   5.001   1.100   6.465
55549SOL    HW268545   4.891   1.181   6.531
55550SOL     OW68546   2.306   1.662   5.842
55550SOL    HW168547   2.246   1.600   5.884
55550SOL    HW268548   2.279   1.663   5.750
55551SOL     OW68549   3.378  12.539   7.586
55551SOL    HW168550   3.419  12.471   7.640
55551SOL    HW268551   3.307  12.573   7.640
55552SOL     OW68552   7.465   8.342   0.847
55552SOL    HW168553   7.385   8.293   0.829
55552SOL    HW268554   7.454   8.375   0.936
55553SOL     OW68555   3.202   9.538   1.140
55553SOL    HW168556   3.264   9.596   1.097
55553SOL    HW268557   3.152   9.595   1.198
55554SOL     OW68558  12.756   4.464  11.415
55554SOL    HW168559  12.812   4.408  11.361
55554SOL    HW268560  12.762   4.427  11.503
55555SOL     OW68561   8.580   8.614   6.153
55555SOL    HW168562   8.579   8.636   6.246
55555SOL    HW268563   8.673   8.602   6.132
55556SOL     OW68564   0.974  12.952  10.868
55556SOL    HW168565   1.019  13.025  10.825
55556SOL    HW268566   1.035  12.879  10.860
55557SOL     OW68567  10.190   4.140   8.171
55557SOL    HW168568  10.263   4.111   8.225
55557SOL    HW268569  10.181   4.234   8.191
55558SOL     OW68570   2.531   6.705   8.526
55558SOL    HW168571   2.446   6.666   8.545
55558SOL    HW268572   2.549   6.761   8.601
55559SOL     OW68573   1.150   2.444  10.723
55559SOL    HW168574   1.088   2.371  10.721
55559SOL    HW268575   1.227   2.410  10.677
55560SOL     OW68576  13.957  13.650  11.481
55560SOL    HW168577  14.015  13.677  11.552
55560SOL    HW268578  13.913  13.732  11.455
55561SOL     OW68579   1.090   6.581  11.192
55561SOL    HW168580   1.135   6.505  11.154
55561SOL    HW268581   1.078   6.559  11.284
55562SOL     OW68582   8.435   9.210  10.692
55562SOL    HW168583   8.422   9.184  10.784
55562SOL    HW268584   8.383   9.147  10.642
55563SOL     OW68585  12.331   0.932  13.538
55563SOL    HW168586  12.383   0.924  13.618
55563SOL    HW268587  12.241   0.943  13.568
55564SOL     OW68588   7.715   4.605  10.715
55564SOL    HW168589   7.726   4.700  10.721
55564SOL    HW268590   7.628   4.594  10.677
55565SOL     OW68591  11.594   7.512   6.802
55565SOL    HW168592  11.655   7.524   6.729
55565SOL    HW268593  11.651   7.499   6.878
55566SOL     OW68594  14.726   4.062   6.070
55566SOL    HW168595  14.728   4.126   5.999
55566SOL    HW268596  14.634   4.039   6.079
55567SOL     OW68597   8.070   4.510   6.523
55567SOL    HW168598   8.105   4.579   6.580
55567SOL    HW268599   8.082   4.544   6.434
55568SOL     OW68600   1.804   7.717   3.532
55568SOL    HW168601   1.727   7.709   3.587
55568SOL    HW268602   1.868   7.763   3.587
55569SOL     OW68603  11.321   1.633   6.765
55569SOL    HW168604  11.253   1.566   6.753
55569SOL    HW268605  11.295   1.703   6.706
55570SOL     OW68606  11.464  14.171   7.025
55570SOL    HW168607  11.379  14.141   7.057
55570SOL    HW268608  11.448  14.262   6.997
55571SOL     OW68609  11.489  11.421   1.786
55571SOL    HW168610  11.580  11.391   1.781
55571SOL    HW268611  11.470  11.453   1.697
55572SOL     OW68612   0.444   2.891   4.658
55572SOL    HW168613   0.498   2.814   4.641
55572SOL    HW268614   0.393   2.869   4.736
55573SOL     OW68615   2.462   7.559  10.041
55573SOL    HW168616   2.537   7.619  10.042
55573SOL    HW268617   2.497   7.476  10.009
55574SOL     OW68618   0.066  10.930  14.785
55574SOL    HW168619   0.070  11.004  14.846
55574SOL    HW268620   0.142  10.942  14.729
55575SOL     OW68621   4.029   3.162  12.865
55575SOL    HW168622   4.019   3.073  12.833
55575SOL    HW268623   3.948   3.181  12.911
55576SOL     OW68624   9.635   5.289   4.500
55576SOL    HW168625   9.718   5.241   4.504
55576SOL    HW268626   9.572   5.232   4.543
55577SOL     OW68627   3.709  14.556   9.211
55577SOL    HW168628   3.780  14.512   9.258
55577SOL    HW268629   3.631  14.505   9.232
55578SOL     OW68630  10.289  14.504   3.857
55578SOL    HW168631  10.258  14.588   3.825
55578SOL    HW268632  10.226  14.440   3.821
55579SOL     OW68633   7.743   5.065   9.525
55579SOL    HW168634   7.785   4.979   9.536
55579SOL    HW268635   7.723   5.069   9.431
55580SOL     OW68636   5.277   2.155   9.151
55580SOL    HW168637   5.318   2.221   9.206
55580SOL    HW268638   5.271   2.077   9.206
55581SOL     OW68639  13.709  12.241   8.825
55581SOL    HW168640  13.667  12.192   8.896
55581SOL    HW268641  13.735  12.324   8.866
55582SOL     OW68642   0.134   6.280   9.802
55582SOL    HW168643   0.051   6.248   9.836
55582SOL    HW268644   0.197   6.265   9.873
55583SOL     OW68645   7.860   5.069   4.141
55583SOL    HW168646   7.814   4.987   4.127
55583SOL    HW268647   7.859   5.082   4.235
55584SOL     OW68648   4.020  13.104  12.751
55584SOL    HW168649   4.032  13.080  12.843
55584SOL    HW268650   3.943  13.161  12.751
55585SOL     OW68651   2.712  14.027  14.365
55585SOL    HW168652   2.806  14.017  14.383
55585SOL    HW268653   2.679  13.938  14.362
55586SOL     OW68654   6.207   7.940   1.269
55586SOL    HW168655   6.206   7.847   1.293
55586SOL    HW268656   6.299   7.964   1.269
55587SOL     OW68657   0.213   3.471  13.825
55587SOL    HW168658   0.294   3.514  13.796
55587SOL    HW268659   0.157   3.542  13.854
55588SOL     OW68660  13.807   3.602   8.252
55588SOL    HW168661  13.869   3.640   8.189
55588SOL    HW268662  13.861   3.578   8.327
55589SOL     OW68663  14.654  10.966  10.908
55589SOL    HW168664  14.677  10.879  10.875
55589SOL    HW268665  14.739  11.008  10.925
55590SOL     OW68666  12.581  11.314  11.051
55590SOL    HW168667  12.547  11.224  11.048
55590SOL    HW268668  12.674  11.306  11.030
55591SOL     OW68669  14.075   7.322  14.232
55591SOL    HW168670  14.003   7.344  14.292
55591SOL    HW268671  14.080   7.227  14.236
55592SOL     OW68672  14.261  13.275   5.649
55592SOL    HW168673  14.226  13.318   5.727
55592SOL    HW268674  14.356  13.288   5.655
55593SOL     OW68675  14.728   2.414   4.800
55593SOL    HW168676  14.734   2.332   4.848
55593SOL    HW268677  14.731   2.389   4.708
55594SOL     OW68678  13.152   2.688   5.206
55594SOL    HW168679  13.220   2.675   5.272
55594SOL    HW268680  13.070   2.669   5.251
55595SOL     OW68681   0.063   0.875  11.563
55595SOL    HW168682   0.043   0.798  11.509
55595SOL    HW268683   0.069   0.840  11.652
55596SOL     OW68684  11.079  14.640  10.701
55596SOL    HW168685  11.024  14.573  10.660
55596SOL    HW268686  11.110  14.599  10.782
55597SOL     OW68687   7.504  14.010   4.925
55597SOL    HW168688   7.551  13.935   4.888
55597SOL    HW268689   7.447  13.972   4.992
55598SOL     OW68690   4.945   6.985   3.628
55598SOL    HW168691   4.901   7.052   3.575
55598SOL    HW268692   4.923   6.902   3.584
55599SOL     OW68693  10.460  11.733   9.744
55599SOL    HW168694  10.471  11.652   9.792
55599SOL    HW268695  10.543  11.745   9.697
55600SOL     OW68696  13.738  11.534   9.217
55600SOL    HW168697  13.792  11.574   9.149
55600SOL    HW268698  13.796  11.527   9.292
55601SOL     OW68699   7.616   1.974  13.858
55601SOL    HW168700   7.705   1.938  13.865
55601SOL    HW268701   7.565   1.923  13.921
55602SOL     OW68702   7.442   4.507  12.808
55602SOL    HW168703   7.426   4.580  12.747
55602SOL    HW268704   7.374   4.515  12.874
55603SOL     OW68705   2.560  12.573  12.722
55603SOL    HW168706   2.541  12.485  12.689
55603SOL    HW268707   2.508  12.581  12.802
55604SOL     OW68708  10.910   1.113   0.199
55604SOL    HW168709  10.869   1.129   0.284
55604SOL    HW268710  10.874   1.029   0.171
55605SOL     OW68711   4.523   0.619   2.104
55605SOL    HW168712   4.582   0.598   2.031
55605SOL    HW268713   4.580   0.653   2.172
55606SOL     OW68714   5.791  12.358  12.636
55606SOL    HW168715   5.780  12.269  12.667
55606SOL    HW268716   5.706  12.381  12.597
55607SOL     OW68717  12.832   7.790   6.636
55607SOL    HW168718  12.886   7.825   6.706
55607SOL    HW268719  12.866   7.701   6.622
55608SOL     OW68720  10.846  12.123  10.343
55608SOL    HW168721  10.932  12.136  10.384
55608SOL    HW268722  10.835  12.028  10.341
55609SOL     OW68723   8.520  10.246   1.234
55609SOL    HW168724   8.441  10.208   1.274
55609SOL    HW268725   8.551  10.310   1.298
55610SOL     OW68726   0.725  11.868   6.276
55610SOL    HW168727   0.768  11.953   6.274
55610SOL    HW268728   0.778  11.813   6.219
55611SOL     OW68729   3.430   6.231   4.874
55611SOL    HW168730   3.467   6.319   4.878
55611SOL    HW268731   3.336   6.244   4.886
55612SOL     OW68732  11.915  13.380   1.319
55612SOL    HW168733  11.914  13.450   1.254
55612SOL    HW268734  11.904  13.299   1.269
55613SOL     OW68735  10.903  12.449   6.838
55613SOL    HW168736  10.958  12.523   6.810
55613SOL    HW268737  10.912  12.384   6.768
55614SOL     OW68738  10.164  12.175  11.760
55614SOL    HW168739  10.205  12.089  11.774
55614SOL    HW268740  10.143  12.206  11.848
55615SOL     OW68741   1.674   5.495   9.602
55615SOL    HW168742   1.644   5.451   9.522
55615SOL    HW268743   1.615   5.464   9.670
55616SOL     OW68744   1.414   8.608  14.480
55616SOL    HW168745   1.334   8.583  14.434
55616SOL    HW268746   1.390   8.607  14.572
55617SOL     OW68747   7.924  12.856  11.187
55617SOL    HW168748   8.016  12.861  11.163
55617SOL    HW268749   7.887  12.792  11.127
55618SOL     OW68750   4.682   8.859   7.661
55618SOL    HW168751   4.669   8.766   7.680
55618SOL    HW268752   4.655   8.868   7.569
55619SOL     OW68753  14.455   1.183   5.260
55619SOL    HW168754  14.429   1.162   5.170
55619SOL    HW268755  14.541   1.224   5.251
55620SOL     OW68756   4.690   6.207   8.880
55620SOL    HW168757   4.629   6.280   8.873
55620SOL    HW268758   4.636   6.132   8.905
55621SOL     OW68759  13.631  11.179   0.422
55621SOL    HW168760  13.644  11.087   0.399
55621SOL    HW268761  13.575  11.214   0.353
55622SOL     OW68762   6.649   5.080  14.476
55622SOL    HW168763   6.717   5.120  14.530
55622SOL    HW268764   6.672   4.987  14.473
55623SOL     OW68765  13.955   2.117   5.693
55623SOL    HW168766  13.902   2.042   5.666
55623SOL    HW268767  14.042   2.100   5.658
55624SOL     OW68768   5.084   2.722   7.196
55624SOL    HW168769   4.993   2.741   7.220
55624SOL    HW268770   5.111   2.798   7.144
55625SOL     OW68771   2.839   8.187   0.369
55625SOL    HW168772   2.859   8.146   0.285
55625SOL    HW268773   2.925   8.210   0.405
55626SOL     OW68774  11.107   0.924   5.909
55626SOL    HW168775  11.093   0.977   5.831
55626SOL    HW268776  11.190   0.956   5.945
55627SOL     OW68777   8.649  12.649  11.705
55627SOL    HW168778   8.680  12.613  11.788
55627SOL    HW268779   8.573  12.595  11.682
55628SOL     OW68780   2.288  13.423   7.007
55628SOL    HW168781   2.318  13.402   6.918
55628SOL    HW268782   2.366  13.454   7.052
55629SOL     OW68783   1.306   6.864  12.943
55629SOL    HW168784   1.322   6.773  12.969
55629SOL    HW268785   1.211   6.869  12.930
55630SOL     OW68786   7.157  14.420   4.145
55630SOL    HW168787   7.200  14.436   4.229
55630SOL    HW268788   7.102  14.498   4.131
55631SOL     OW68789   4.548   3.100   2.599
55631SOL    HW168790   4.454   3.087   2.587
55631SOL    HW268791   4.556   3.143   2.684
55632SOL     OW68792   4.860   0.959   6.035
55632SOL    HW168793   4.926   0.899   6.070
55632SOL    HW268794   4.830   1.008   6.112
55633SOL     OW68795   9.887   5.514   6.086
55633SOL    HW168796   9.880   5.608   6.102
55633SOL    HW268797   9.903   5.507   5.992
55634SOL     OW68798   2.879  14.716  10.913
55634SOL    HW168799   2.845  14.630  10.937
55634SOL    HW268800   2.806  14.776  10.928
55635SOL     OW68801   3.496   0.201  10.212
55635SOL    HW168802   3.582   0.197  10.170
55635SOL    HW268803   3.475   0.295  10.215
55636SOL     OW68804   7.830   3.916  11.734
55636SOL    HW168805   7.835   3.918  11.829
55636SOL    HW268806   7.737   3.904  11.715
55637SOL     OW68807   2.162   4.880   7.664
55637SOL    HW168808   2.224   4.815   7.632
55637SOL    HW268809   2.205   4.965   7.648
55638SOL     OW68810   5.033   0.910   8.392
55638SOL    HW168811   4.952   0.924   8.342
55638SOL    HW268812   5.012   0.939   8.480
55639SOL     OW68813   4.236  12.295   8.181
55639SOL    HW168814   4.141  12.296   8.193
55639SOL    HW268815   4.250  12.326   8.091
55640SOL     OW68816  10.975   6.773   5.602
55640SOL    HW168817  11.009   6.725   5.526
55640SOL    HW268818  10.939   6.853   5.564
55641SOL     OW68819   3.384   8.673   5.383
55641SOL    HW168820   3.434   8.755   5.387
55641SOL    HW268821   3.441   8.613   5.336
55642SOL     OW68822   3.643   4.015   5.390
55642SOL    HW168823   3.645   3.986   5.299
55642SOL    HW268824   3.606   3.941   5.439
55643SOL     OW68825   2.817   6.811   6.858
55643SOL    HW168826   2.890   6.786   6.914
55643SOL    HW268827   2.778   6.887   6.902
55644SOL     OW68828   2.376  13.594   7.732
55644SOL    HW168829   2.350  13.661   7.796
55644SOL    HW268830   2.456  13.627   7.693
55645SOL     OW68831   1.873   8.794  10.981
55645SOL    HW168832   1.924   8.830  11.053
55645SOL    HW268833   1.913   8.831  10.902
55646SOL     OW68834  10.317   3.918   0.777
55646SOL    HW168835  10.267   3.981   0.725
55646SOL    HW268836  10.311   3.952   0.866
55647SOL     OW68837   6.651  14.312   5.197
55647SOL    HW168838   6.683  14.366   5.124
55647SOL    HW268839   6.556  14.316   5.189
55648SOL     OW68840  10.885   1.509  13.986
55648SOL    HW168841  10.837   1.585  13.953
55648SOL    HW268842  10.845   1.491  14.071
55649SOL     OW68843  12.715   6.243   0.111
55649SOL    HW168844  12.665   6.307   0.163
55649SOL    HW268845  12.655   6.169   0.100
55650SOL     OW68846  10.147   9.820   0.914
55650SOL    HW168847  10.089   9.773   0.974
55650SOL    HW268848  10.199   9.751   0.873
55651SOL     OW68849  14.005   3.204   3.294
55651SOL    HW168850  13.925   3.248   3.266
55651SOL    HW268851  13.981   3.111   3.300
55652SOL     OW68852  12.504   4.044  12.612
55652SOL    HW168853  12.525   4.137  12.616
55652SOL    HW268854  12.582   4.001  12.647
55653SOL     OW68855   7.854   2.644  14.448
55653SOL    HW168856   7.889   2.598  14.371
55653SOL    HW268857   7.774   2.686  14.416
55654SOL     OW68858  11.242  11.512  11.953
55654SOL    HW168859  11.235  11.450  11.880
55654SOL    HW268860  11.336  11.532  11.957
55655SOL     OW68861   4.569  10.235   2.052
55655SOL    HW168862   4.603  10.199   2.134
55655SOL    HW268863   4.603  10.325   2.050
55656SOL     OW68864   8.484  14.599  14.253
55656SOL    HW168865   8.397  14.609  14.214
55656SOL    HW268866   8.475  14.523  14.311
55657SOL     OW68867   5.937   5.726   0.661
55657SOL    HW168868   5.858   5.706   0.712
55657SOL    HW268869   5.909   5.796   0.601
55658SOL     OW68870   6.459  13.875  12.147
55658SOL    HW168871   6.394  13.914  12.205
55658SOL    HW268872   6.499  13.949  12.102
55659SOL     OW68873   1.372  10.577  10.316
55659SOL    HW168874   1.368  10.520  10.239
55659SOL    HW268875   1.280  10.597  10.336
55660SOL     OW68876   6.134   2.295   4.894
55660SOL    HW168877   6.071   2.259   4.956
55660SOL    HW268878   6.138   2.230   4.823
55661SOL     OW68879   4.585   0.558  13.115
55661SOL    HW168880   4.549   0.471  13.102
55661SOL    HW268881   4.561   0.581  13.204
55662SOL     OW68882   3.377   9.551   4.543
55662SOL    HW168883   3.329   9.612   4.488
55662SOL    HW268884   3.443   9.604   4.586
55663SOL     OW68885   1.206   5.485   7.052
55663SOL    HW168886   1.188   5.472   7.146
55663SOL    HW268887   1.192   5.579   7.038
55664SOL     OW68888  14.526  12.473  14.260
55664SOL    HW168889  14.444  12.456  14.214
55664SOL    HW268890  14.583  12.512  14.194
55665SOL     OW68891   6.010   0.735   1.185
55665SOL    HW168892   6.076   0.701   1.124
55665SOL    HW268893   5.983   0.658   1.236
55666SOL     OW68894   0.842   8.236  10.122
55666SOL    HW168895   0.888   8.165  10.167
55666SOL    HW268896   0.761   8.195  10.091
55667SOL     OW68897  12.762   2.965   6.775
55667SOL    HW168898  12.846   2.972   6.820
55667SOL    HW268899  12.786   2.965   6.682
55668SOL     OW68900   2.383   5.674   9.874
55668SOL    HW168901   2.327   5.696   9.949
55668SOL    HW268902   2.430   5.596   9.902
55669SOL     OW68903  14.326  12.618  13.327
55669SOL    HW168904  14.260  12.558  13.294
55669SOL    HW268905  14.407  12.592  13.283
55670SOL     OW68906   2.694   9.131   2.396
55670SOL    HW168907   2.662   9.103   2.311
55670SOL    HW268908   2.733   9.053   2.435
55671SOL     OW68909   1.240  13.042  14.835
55671SOL    HW168910   1.214  13.085  14.753
55671SOL    HW268911   1.189  12.961  14.836
55672SOL     OW68912  10.221   4.410   6.531
55672SOL    HW168913  10.171   4.329   6.541
55672SOL    HW268914  10.188   4.467   6.601
55673SOL     OW68915  11.687   9.986   2.826
55673SOL    HW168916  11.629  10.004   2.900
55673SOL    HW268917  11.637   9.926   2.771
55674SOL     OW68918   1.486   2.073  11.131
55674SOL    HW168919   1.479   2.003  11.065
55674SOL    HW268920   1.509   2.027  11.211
55675SOL     OW68921   0.039   3.772   8.717
55675SOL    HW168922   0.129   3.790   8.691
55675SOL    HW268923   0.028   3.678   8.705
55676SOL     OW68924   7.668  14.808  10.422
55676SOL    HW168925   7.716  14.845  10.496
55676SOL    HW268926   7.725  14.738  10.389
55677SOL     OW68927   9.647   9.040  13.359
55677SOL    HW168928   9.567   9.092  13.352
55677SOL    HW268929   9.689   9.049  13.273
55678SOL     OW68930  13.276   0.264  14.211
55678SOL    HW168931  13.272   0.234  14.302
55678SOL    HW268932  13.227   0.198  14.162
55679SOL     OW68933   0.311  13.249   0.440
55679SOL    HW168934   0.314  13.217   0.350
55679SOL    HW268935   0.337  13.174   0.493
55680SOL     OW68936   3.204   4.799   5.429
55680SOL    HW168937   3.124   4.804   5.481
55680SOL    HW268938   3.194   4.721   5.375
55681SOL     OW68939   8.544  13.933  12.321
55681SOL    HW168940   8.524  14.003  12.259
55681SOL    HW268941   8.549  13.854  12.268
55682SOL     OW68942   4.022   2.908   0.963
55682SOL    HW168943   3.936   2.879   0.994
55682SOL    HW268944   4.042   2.850   0.889
55683SOL     OW68945   0.177   3.183   1.932
55683SOL    HW168946   0.133   3.266   1.946
55683SOL    HW268947   0.126   3.140   1.863
55684SOL     OW68948   6.505   9.602   5.095
55684SOL    HW168949   6.432   9.656   5.066
55684SOL    HW268950   6.530   9.638   5.180
55685SOL     OW68951   9.619   6.311   4.837
55685SOL    HW168952   9.552   6.275   4.895
55685SOL    HW268953   9.584   6.397   4.811
55686SOL     OW68954  13.791   0.322  14.165
55686SOL    HW168955  13.817   0.406  14.203
55686SOL    HW268956  13.696   0.326  14.159
55687SOL     OW68957   9.261   2.956  14.521
55687SOL    HW168958   9.260   2.994  14.433
55687SOL    HW268959   9.186   2.996  14.565
55688SOL     OW68960  13.856   9.364   6.742
55688SOL    HW168961  13.793   9.339   6.810
55688SOL    HW268962  13.814   9.437   6.696
55689SOL     OW68963  14.720   1.556   5.963
55689SOL    HW168964  14.702   1.524   6.052
55689SOL    HW268965  14.633   1.569   5.925
55690SOL     OW68966   0.171   2.039  10.536
55690SOL    HW168967   0.170   2.125  10.493
55690SOL    HW268968   0.263   2.013  10.536
55691SOL     OW68969   0.168   1.624   2.451
55691SOL    HW168970   0.220   1.586   2.522
55691SOL    HW268971   0.118   1.694   2.494
55692SOL     OW68972   5.093   1.030  14.272
55692SOL    HW168973   5.071   1.097  14.207
55692SOL    HW268974   5.045   0.952  14.243
55693SOL     OW68975   9.802   4.282   9.281
55693SOL    HW168976   9.842   4.367   9.264
55693SOL    HW268977   9.791   4.279   9.376
55694SOL     OW68978   8.290  13.583   8.217
55694SOL    HW168979   8.257  13.595   8.306
55694SOL    HW268980   8.232  13.517   8.178
55695SOL     OW68981  14.475   1.372   0.539
55695SOL    HW168982  14.430   1.448   0.575
55695SOL    HW268983  14.408   1.304   0.533
55696SOL     OW68984   1.395   8.702   1.359
55696SOL    HW168985   1.469   8.685   1.301
55696SOL    HW268986   1.356   8.616   1.375
55697SOL     OW68987   8.732   3.787   5.915
55697SOL    HW168988   8.742   3.873   5.875
55697SOL    HW268989   8.753   3.725   5.845
55698SOL     OW68990   0.604   4.227  13.091
55698SOL    HW168991   0.522   4.257  13.130
55698SOL    HW268992   0.602   4.132  13.100
55699SOL     OW68993   9.338   6.279   5.281
55699SOL    HW168994   9.288   6.360   5.290
55699SOL    HW268995   9.311   6.226   5.355
55700SOL     OW68996  14.680  13.489   5.562
55700SOL    HW168997  14.691  13.417   5.499
55700SOL    HW268998  14.612  13.458   5.622
55701SOL     OW68999   3.395   9.424   2.329
55701SOL    HW169000   3.439   9.501   2.364
55701SOL    HW269001   3.413   9.354   2.392
55702SOL     OW69002  10.186   1.918   2.518
55702SOL    HW169003  10.243   1.993   2.501
55702SOL    HW269004  10.142   1.903   2.435
55703SOL     OW69005  11.139  11.923  10.520
55703SOL    HW169006  11.181  11.895  10.439
55703SOL    HW269007  11.090  12.001  10.495
55704SOL     OW69008   9.671   9.861  12.126
55704SOL    HW169009   9.685   9.771  12.096
55704SOL    HW269010   9.595   9.891  12.077
55705SOL     OW69011  14.392   1.856   7.312
55705SOL    HW169012  14.434   1.795   7.251
55705SOL    HW269013  14.361   1.927   7.256
55706SOL     OW69014   4.174  10.758   2.996
55706SOL    HW169015   4.153  10.837   2.946
55706SOL    HW269016   4.266  10.769   3.021
55707SOL     OW69017   1.835   5.102   2.070
55707SOL    HW169018   1.829   5.192   2.103
55707SOL    HW269019   1.927   5.079   2.077
55708SOL     OW69020   3.471  13.333   5.283
55708SOL    HW169021   3.398  13.271   5.273
55708SOL    HW269022   3.431  13.419   5.270
55709SOL     OW69023  10.056  11.352   2.738
55709SOL    HW169024  10.121  11.373   2.672
55709SOL    HW269025  10.040  11.434   2.784
55710SOL     OW69026   2.461  14.589   8.826
55710SOL    HW169027   2.521  14.533   8.875
55710SOL    HW269028   2.459  14.671   8.875
55711SOL     OW69029   4.570  14.081   0.588
55711SOL    HW169030   4.511  14.078   0.513
55711SOL    HW269031   4.649  14.124   0.554
55712SOL     OW69032   7.831   6.543   8.536
55712SOL    HW169033   7.848   6.582   8.622
55712SOL    HW269034   7.770   6.604   8.494
55713SOL     OW69035   0.403   8.181  12.127
55713SOL    HW169036   0.401   8.189  12.222
55713SOL    HW269037   0.423   8.089  12.111
55714SOL     OW69038  10.552  10.411  11.851
55714SOL    HW169039  10.564  10.438  11.760
55714SOL    HW269040  10.597  10.478  11.903
55715SOL     OW69041   4.297   2.556   5.072
55715SOL    HW169042   4.271   2.627   5.012
55715SOL    HW269043   4.379   2.522   5.035
55716SOL     OW69044   7.287   5.857   7.853
55716SOL    HW169045   7.312   5.878   7.943
55716SOL    HW269046   7.209   5.911   7.836
55717SOL     OW69047   7.098   1.444  11.478
55717SOL    HW169048   7.157   1.474  11.547
55717SOL    HW269049   7.043   1.520  11.458
55718SOL     OW69050  13.835  14.584   2.612
55718SOL    HW169051  13.791  14.669   2.604
55718SOL    HW269052  13.912  14.591   2.555
55719SOL     OW69053   6.314  14.441   9.521
55719SOL    HW169054   6.364  14.411   9.597
55719SOL    HW269055   6.223  14.444   9.551
55720SOL     OW69056   5.686   5.366  10.923
55720SOL    HW169057   5.627   5.397  10.854
55720SOL    HW269058   5.727   5.446  10.957
55721SOL     OW69059   2.057   0.702  13.918
55721SOL    HW169060   2.068   0.707  13.823
55721SOL    HW269061   1.975   0.748  13.935
55722SOL     OW69062   5.507   2.288   0.310
55722SOL    HW169063   5.455   2.289   0.230
55722SOL    HW269064   5.593   2.256   0.282
55723SOL     OW69065  13.012   2.394  11.044
55723SOL    HW169066  13.034   2.435  11.128
55723SOL    HW269067  13.057   2.448  10.979
55724SOL     OW69068  12.388  14.339   7.814
55724SOL    HW169069  12.341  14.269   7.769
55724SOL    HW269070  12.325  14.410   7.823
55725SOL     OW69071   5.864   0.796  10.820
55725SOL    HW169072   5.855   0.806  10.725
55725SOL    HW269073   5.898   0.881  10.850
55726SOL     OW69074  14.293   3.613  10.578
55726SOL    HW169075  14.320   3.522  10.566
55726SOL    HW269076  14.296   3.651  10.491
55727SOL     OW69077  13.721   7.262  14.641
55727SOL    HW169078  13.683   7.233  14.725
55727SOL    HW269079  13.673   7.342  14.619
55728SOL     OW69080  12.931  13.641   8.794
55728SOL    HW169081  12.992  13.701   8.837
55728SOL    HW269082  12.982  13.602   8.723
55729SOL     OW69083   9.561   0.153  10.924
55729SOL    HW169084   9.496   0.083  10.929
55729SOL    HW269085   9.510   0.234  10.925
55730SOL     OW69086  11.128  13.129  12.994
55730SOL    HW169087  11.118  13.057  12.932
55730SOL    HW269088  11.175  13.197  12.945
55731SOL     OW69089   2.731  10.851   7.782
55731SOL    HW169090   2.686  10.767   7.782
55731SOL    HW269091   2.680  10.906   7.842
55732SOL     OW69092   4.494   6.741   4.009
55732SOL    HW169093   4.454   6.683   4.072
55732SOL    HW269094   4.432   6.813   3.999
55733SOL     OW69095  12.803   1.562   2.188
55733SOL    HW169096  12.759   1.647   2.187
55733SOL    HW269097  12.737   1.501   2.221
55734SOL     OW69098  14.598   4.196   9.078
55734SOL    HW169099  14.580   4.268   9.139
55734SOL    HW269100  14.650   4.235   9.008
55735SOL     OW69101   2.424   6.366   5.503
55735SOL    HW169102   2.338   6.378   5.544
55735SOL    HW269103   2.413   6.399   5.414
55736SOL     OW69104   7.408  11.417   3.765
55736SOL    HW169105   7.399  11.322   3.760
55736SOL    HW269106   7.422  11.446   3.675
55737SOL     OW69107   4.108   9.073  10.123
55737SOL    HW169108   4.076   8.992  10.084
55737SOL    HW269109   4.032   9.108  10.169
55738SOL     OW69110  11.248  11.479   5.036
55738SOL    HW169111  11.284  11.494   5.123
55738SOL    HW269112  11.262  11.386   5.020
55739SOL     OW69113   9.828   2.634   7.735
55739SOL    HW169114   9.790   2.696   7.797
55739SOL    HW269115   9.753   2.596   7.689
55740SOL     OW69116   0.052   4.220   7.821
55740SOL    HW169117   0.089   4.165   7.890
55740SOL    HW269118  14.841   4.178   7.798
55741SOL     OW69119   6.050   7.564   0.097
55741SOL    HW169120   6.033   7.654   0.124
55741SOL    HW269121   6.084   7.522   0.176
55742SOL     OW69122   5.655   5.405   5.776
55742SOL    HW169123   5.563   5.396   5.803
55742SOL    HW269124   5.666   5.498   5.758
55743SOL     OW69125  14.513   2.832  12.225
55743SOL    HW169126  14.445   2.808  12.162
55743SOL    HW269127  14.579   2.877  12.174
55744SOL     OW69128   8.161   1.025   9.499
55744SOL    HW169129   8.172   0.934   9.472
55744SOL    HW269130   8.075   1.049   9.466
55745SOL     OW69131   5.592   9.529   7.588
55745SOL    HW169132   5.615   9.452   7.641
55745SOL    HW269133   5.599   9.498   7.498
55746SOL     OW69134   8.183  11.876  13.611
55746SOL    HW169135   8.250  11.836  13.666
55746SOL    HW269136   8.183  11.969  13.636
55747SOL     OW69137   9.433  11.654   3.940
55747SOL    HW169138   9.447  11.562   3.921
55747SOL    HW269139   9.356  11.656   3.996
55748SOL     OW69140   2.498   4.419  13.342
55748SOL    HW169141   2.486   4.511  13.319
55748SOL    HW269142   2.591   4.402  13.328
55749SOL     OW69143   5.539   1.234   2.955
55749SOL    HW169144   5.503   1.299   3.015
55749SOL    HW269145   5.462   1.193   2.915
55750SOL     OW69146   1.635   4.169   0.827
55750SOL    HW169147   1.703   4.109   0.858
55750SOL    HW269148   1.681   4.231   0.770
55751SOL     OW69149   0.044   6.995   6.867
55751SOL    HW169150   0.138   6.984   6.853
55751SOL    HW269151   0.016   7.054   6.798
55752SOL     OW69152  12.745   0.280  10.884
55752SOL    HW169153  12.816   0.342  10.867
55752SOL    HW269154  12.666   0.334  10.881
55753SOL     OW69155   4.418  10.563  12.363
55753SOL    HW169156   4.434  10.469  12.377
55753SOL    HW269157   4.374  10.567  12.278
55754SOL     OW69158  11.138  11.102  11.246
55754SOL    HW169159  11.102  11.081  11.332
55754SOL    HW269160  11.195  11.028  11.226
55755SOL     OW69161  12.700   8.874   6.471
55755SOL    HW169162  12.762   8.856   6.541
55755SOL    HW269163  12.669   8.963   6.489
55756SOL     OW69164   3.653   4.075   8.297
55756SOL    HW169165   3.656   3.980   8.308
55756SOL    HW269166   3.681   4.091   8.207
55757SOL     OW69167   1.535   7.741   9.489
55757SOL    HW169168   1.449   7.731   9.448
55757SOL    HW269169   1.549   7.659   9.536
55758SOL     OW69170   5.170  13.835   7.517
55758SOL    HW169171   5.262  13.846   7.494
55758SOL    HW269172   5.124  13.899   7.463
55759SOL     OW69173  13.606   2.882  10.431
55759SOL    HW169174  13.648   2.949  10.378
55759SOL    HW269175  13.527   2.923  10.465
55760SOL     OW69176   6.838   3.328   4.288
55760SOL    HW169177   6.755   3.333   4.241
55760SOL    HW269178   6.904   3.351   4.223
55761SOL     OW69179   6.001   6.163   0.538
55761SOL    HW169180   6.022   6.186   0.628
55761SOL    HW269181   6.083   6.173   0.490
55762SOL     OW69182   8.715   9.044  12.921
55762SOL    HW169183   8.761   8.971  12.961
55762SOL    HW269184   8.779   9.084  12.862
55763SOL     OW69185   5.987   8.216  10.631
55763SOL    HW169186   5.982   8.192  10.538
55763SOL    HW269187   6.064   8.169  10.664
55764SOL     OW69188  11.654   4.920  10.478
55764SOL    HW169189  11.565   4.885  10.464
55764SOL    HW269190  11.699   4.903  10.396
55765SOL     OW69191   3.357   0.047  14.184
55765SOL    HW169192   3.365  14.829  14.215
55765SOL    HW269193   3.359   0.041  14.089
55766SOL     OW69194  10.136   3.055   9.234
55766SOL    HW169195  10.068   3.030   9.297
55766SOL    HW269196  10.144   2.979   9.176
55767SOL     OW69197  11.180  14.179   2.061
55767SOL    HW169198  11.246  14.187   1.992
55767SOL    HW269199  11.096  14.179   2.014
55768SOL     OW69200   9.287   8.427  14.651
55768SOL    HW169201   9.225   8.497  14.672
55768SOL    HW269202   9.339   8.463  14.579
55769SOL     OW69203  10.363  14.450   1.983
55769SOL    HW169204  10.311  14.530   1.995
55769SOL    HW269205  10.379  14.446   1.888
55770SOL     OW69206  13.796   9.788   9.864
55770SOL    HW169207  13.732   9.775   9.793
55770SOL    HW269208  13.804   9.883   9.872
55771SOL     OW69209   7.294   1.238  12.282
55771SOL    HW169210   7.371   1.262  12.231
55771SOL    HW269211   7.304   1.145  12.300
55772SOL     OW69212   3.910   4.914  12.821
55772SOL    HW169213   3.991   4.961  12.799
55772SOL    HW269214   3.847   4.941  12.755
55773SOL     OW69215   2.221  12.411   9.722
55773SOL    HW169216   2.228  12.471   9.796
55773SOL    HW269217   2.131  12.378   9.726
55774SOL     OW69218  10.155   9.546  14.154
55774SOL    HW169219  10.197   9.463  14.133
55774SOL    HW269220  10.220   9.613  14.130
55775SOL     OW69221   2.249   9.566  11.894
55775SOL    HW169222   2.175   9.626  11.892
55775SOL    HW269223   2.263   9.541  11.803
55776SOL     OW69224  13.123   9.962   4.828
55776SOL    HW169225  13.180  10.029   4.865
55776SOL    HW269226  13.124   9.979   4.734
55777SOL     OW69227   5.811   2.130   5.592
55777SOL    HW169228   5.878   2.072   5.556
55777SOL    HW269229   5.858   2.187   5.652
55778SOL     OW69230   2.407   8.214  14.629
55778SOL    HW169231   2.461   8.164  14.691
55778SOL    HW269232   2.462   8.289  14.605
55779SOL     OW69233   3.814   0.188  12.121
55779SOL    HW169234   3.861   0.113  12.158
55779SOL    HW269235   3.882   0.244  12.085
55780SOL     OW69236   6.730   0.435   3.869
55780SOL    HW169237   6.795   0.447   3.800
55780SOL    HW269238   6.646   0.450   3.826
55781SOL     OW69239   8.691   7.910   5.398
55781SOL    HW169240   8.663   7.934   5.310
55781SOL    HW269241   8.610   7.887   5.444
55782SOL     OW69242   5.138   7.575  10.519
55782SOL    HW169243   5.101   7.652  10.477
55782SOL    HW269244   5.192   7.534  10.452
55783SOL     OW69245  13.375   5.009   0.932
55783SOL    HW169246  13.340   4.926   0.963
55783SOL    HW269247  13.313   5.037   0.865
55784SOL     OW69248   0.013  11.901  14.023
55784SOL    HW169249  14.832  11.881  13.947
55784SOL    HW269250  14.866  11.993  14.042
55785SOL     OW69251  14.202  12.022  13.537
55785SOL    HW169252  14.151  11.978  13.605
55785SOL    HW269253  14.138  12.072  13.486
55786SOL     OW69254  11.581   8.561   9.803
55786SOL    HW169255  11.594   8.623   9.730
55786SOL    HW269256  11.667   8.554   9.844
55787SOL     OW69257   2.621  11.084   8.187
55787SOL    HW169258   2.604  11.038   8.104
55787SOL    HW269259   2.623  11.176   8.163
55788SOL     OW69260   2.195   3.470   3.065
55788SOL    HW169261   2.270   3.527   3.077
55788SOL    HW269262   2.177   3.434   3.152
55789SOL     OW69263  12.160   2.844   3.920
55789SOL    HW169264  12.086   2.905   3.930
55789SOL    HW269265  12.169   2.804   4.007
55790SOL     OW69266   4.013   9.983   4.845
55790SOL    HW169267   3.997   9.913   4.908
55790SOL    HW269268   4.026  10.061   4.899
55791SOL     OW69269   4.372  13.901   0.664
55791SOL    HW169270   4.316  13.975   0.687
55791SOL    HW269271   4.460  13.939   0.658
55792SOL     OW69272   0.997   8.109  13.619
55792SOL    HW169273   0.959   8.158  13.691
55792SOL    HW269274   1.050   8.041  13.661
55793SOL     OW69275   9.210   8.426   2.589
55793SOL    HW169276   9.131   8.430   2.534
55793SOL    HW269277   9.269   8.367   2.541
55794SOL     OW69278   8.742  14.795   7.655
55794SOL    HW169279   8.795  14.733   7.704
55794SOL    HW269280   8.659  14.751   7.641
55795SOL     OW69281   9.176   6.897  14.421
55795SOL    HW169282   9.211   6.895  14.332
55795SOL    HW269283   9.246   6.862  14.476
55796SOL     OW69284   8.371  11.316   5.855
55796SOL    HW169285   8.307  11.368   5.903
55796SOL    HW269286   8.415  11.264   5.922
55797SOL     OW69287   4.408  12.950   5.778
55797SOL    HW169288   4.408  13.028   5.833
55797SOL    HW269289   4.380  12.981   5.692
55798SOL     OW69290   2.470   7.010  11.832
55798SOL    HW169291   2.514   7.094  11.824
55798SOL    HW269292   2.527   6.948  11.786
55799SOL     OW69293  12.866   0.494   2.818
55799SOL    HW169294  12.813   0.526   2.891
55799SOL    HW269295  12.935   0.443   2.858
55800SOL     OW69296   8.095   4.704   9.974
55800SOL    HW169297   8.074   4.621   9.931
55800SOL    HW269298   8.092   4.684  10.068
55801SOL     OW69299  13.944   9.498   9.009
55801SOL    HW169300  13.869   9.444   8.985
55801SOL    HW269301  13.906   9.575   9.050
55802SOL     OW69302   3.787  14.157  10.588
55802SOL    HW169303   3.718  14.221  10.603
55802SOL    HW269304   3.848  14.200  10.529
55803SOL     OW69305  11.513  13.974   5.933
55803SOL    HW169306  11.607  13.974   5.916
55803SOL    HW269307  11.481  14.053   5.888
55804SOL     OW69308   7.969  12.330   7.495
55804SOL    HW169309   8.003  12.275   7.566
55804SOL    HW269310   8.047  12.375   7.461
55805SOL     OW69311   6.145  13.413  14.725
55805SOL    HW169312   6.212  13.460  14.775
55805SOL    HW269313   6.155  13.446  14.636
55806SOL     OW69314  14.651  10.674  13.506
55806SOL    HW169315  14.716  10.620  13.460
55806SOL    HW269316  14.684  10.763  13.498
55807SOL     OW69317   4.967  14.119   3.723
55807SOL    HW169318   4.929  14.050   3.668
55807SOL    HW269319   4.910  14.194   3.710
55808SOL     OW69320   0.064   8.618   3.176
55808SOL    HW169321  14.872   8.564   3.221
55808SOL    HW269322   0.066   8.700   3.227
55809SOL     OW69323  14.193   2.883  10.655
55809SOL    HW169324  14.213   2.976  10.668
55809SOL    HW269325  14.100   2.876  10.674
55810SOL     OW69326   1.759   7.024   9.324
55810SOL    HW169327   1.812   7.098   9.353
55810SOL    HW269328   1.699   7.061   9.260
55811SOL     OW69329   5.684   7.937   5.377
55811SOL    HW169330   5.736   7.948   5.297
55811SOL    HW269331   5.628   8.015   5.380
55812SOL     OW69332   5.986  13.585   6.604
55812SOL    HW169333   5.943  13.649   6.660
55812SOL    HW269334   5.989  13.505   6.656
55813SOL     OW69335  12.317   1.983   5.329
55813SOL    HW169336  12.323   2.067   5.373
55813SOL    HW269337  12.228   1.952   5.348
55814SOL     OW69338   3.533   0.636   9.501
55814SOL    HW169339   3.472   0.614   9.431
55814SOL    HW269340   3.615   0.593   9.476
55815SOL     OW69341   8.692   3.340  11.653
55815SOL    HW169342   8.769   3.371  11.605
55815SOL    HW269343   8.727   3.282  11.721
55816SOL     OW69344   4.515   8.123   4.006
55816SOL    HW169345   4.578   8.173   4.057
55816SOL    HW269346   4.537   8.032   4.023
55817SOL     OW69347   6.320  14.148  11.214
55817SOL    HW169348   6.269  14.163  11.134
55817SOL    HW269349   6.331  14.235  11.252
55818SOL     OW69350  10.949   1.308   6.129
55818SOL    HW169351  10.877   1.250   6.103
55818SOL    HW269352  10.980   1.345   6.047
55819SOL     OW69353  10.230   3.515   7.486
55819SOL    HW169354  10.309   3.464   7.501
55819SOL    HW269355  10.160   3.466   7.530
55820SOL     OW69356   6.091  13.803  13.192
55820SOL    HW169357   6.030  13.781  13.263
55820SOL    HW269358   6.038  13.856  13.131
55821SOL     OW69359  10.958   1.106  14.603
55821SOL    HW169360  10.869   1.106  14.568
55821SOL    HW269361  11.004   1.173  14.552
55822SOL     OW69362   3.583   7.819   0.852
55822SOL    HW169363   3.659   7.830   0.795
55822SOL    HW269364   3.584   7.727   0.877
55823SOL     OW69365   1.435   7.152  10.416
55823SOL    HW169366   1.471   7.063  10.420
55823SOL    HW269367   1.496   7.205  10.467
55824SOL     OW69368   6.676  14.485  10.311
55824SOL    HW169369   6.710  14.460  10.396
55824SOL    HW269370   6.591  14.440  10.304
55825SOL     OW69371   4.192   5.895  10.824
55825SOL    HW169372   4.139   5.959  10.778
55825SOL    HW269373   4.251   5.946  10.879
55826SOL     OW69374   0.732  12.757  10.252
55826SOL    HW169375   0.694  12.834  10.296
55826SOL    HW269376   0.766  12.703  10.323
55827SOL     OW69377   8.565   5.390   9.010
55827SOL    HW169378   8.651   5.354   9.033
55827SOL    HW269379   8.511   5.371   9.086
55828SOL     OW69380   9.577   7.373  13.312
55828SOL    HW169381   9.584   7.367  13.407
55828SOL    HW269382   9.667   7.392  13.283
55829SOL     OW69383   8.982   9.343   7.955
55829SOL    HW169384   8.914   9.277   7.964
55829SOL    HW269385   8.938   9.425   7.976
55830SOL     OW69386   8.256  12.819   1.617
55830SOL    HW169387   8.296  12.884   1.561
55830SOL    HW269388   8.313  12.742   1.611
55831SOL     OW69389  14.620   3.607   1.307
55831SOL    HW169390  14.550   3.633   1.247
55831SOL    HW269391  14.700   3.626   1.259
55832SOL     OW69392   7.182   5.914  12.689
55832SOL    HW169393   7.272   5.885  12.704
55832SOL    HW269394   7.189   5.973  12.614
55833SOL     OW69395   0.482  11.940   0.401
55833SOL    HW169396   0.429  12.015   0.375
55833SOL    HW269397   0.475  11.879   0.328
55834SOL     OW69398   5.680   1.587  11.533
55834SOL    HW169399   5.735   1.562  11.458
55834SOL    HW269400   5.659   1.679  11.517
55835SOL     OW69401   9.885   3.902  10.822
55835SOL    HW169402   9.890   3.996  10.805
55835SOL    HW269403   9.895   3.895  10.917
55836SOL     OW69404  11.332  14.100   0.546
55836SOL    HW169405  11.359  14.008   0.535
55836SOL    HW269406  11.268  14.115   0.477
55837SOL     OW69407   0.393   9.539   6.491
55837SOL    HW169408   0.345   9.613   6.453
55837SOL    HW269409   0.452   9.579   6.555
55838SOL     OW69410  12.537   8.083   9.994
55838SOL    HW169411  12.620   8.097   9.949
55838SOL    HW269412  12.552   8.114  10.084
55839SOL     OW69413  11.445   6.719  14.019
55839SOL    HW169414  11.410   6.727  14.108
55839SOL    HW269415  11.376   6.677  13.969
55840SOL     OW69416   8.415   6.336   1.509
55840SOL    HW169417   8.445   6.321   1.419
55840SOL    HW269418   8.322   6.316   1.507
55841SOL     OW69419   2.819   6.584   5.940
55841SOL    HW169420   2.863   6.616   5.861
55841SOL    HW269421   2.787   6.497   5.917
55842SOL     OW69422  14.519  11.368   1.018
55842SOL    HW169423  14.433  11.351   0.980
55842SOL    HW269424  14.563  11.423   0.953
55843SOL     OW69425  10.949   7.201  11.116
55843SOL    HW169426  10.866   7.233  11.081
55843SOL    HW269427  10.972   7.126  11.061
55844SOL     OW69428  12.049   5.448   6.142
55844SOL    HW169429  11.961   5.410   6.131
55844SOL    HW269430  12.067   5.439   6.235
55845SOL     OW69431  10.263   6.829   2.863
55845SOL    HW169432  10.300   6.759   2.809
55845SOL    HW269433  10.168   6.815   2.858
55846SOL     OW69434  13.470   2.098  11.059
55846SOL    HW169435  13.549   2.064  11.102
55846SOL    HW269436  13.461   2.187  11.093
55847SOL     OW69437   7.848   3.933   8.317
55847SOL    HW169438   7.781   4.001   8.323
55847SOL    HW269439   7.807   3.855   8.354
55848SOL     OW69440   1.374   6.998   4.715
55848SOL    HW169441   1.410   7.065   4.657
55848SOL    HW269442   1.281   6.997   4.695
55849SOL     OW69443   2.839   4.966   9.654
55849SOL    HW169444   2.880   4.881   9.668
55849SOL    HW269445   2.913   5.025   9.636
55850SOL     OW69446  12.442   0.297   1.106
55850SOL    HW169447  12.485   0.364   1.159
55850SOL    HW269448  12.486   0.215   1.131
55851SOL     OW69449   7.708   8.264  10.300
55851SOL    HW169450   7.676   8.242  10.212
55851SOL    HW269451   7.629   8.278  10.352
55852SOL     OW69452  11.670   6.175  12.128
55852SOL    HW169453  11.657   6.179  12.222
55852SOL    HW269454  11.669   6.082  12.107
55853SOL     OW69455   1.805  13.509   7.880
55853SOL    HW169456   1.868  13.440   7.902
55853SOL    HW269457   1.720  13.471   7.899
55854SOL     OW69458  12.097   6.068   9.065
55854SOL    HW169459  12.185   6.090   9.036
55854SOL    HW269460  12.084   6.119   9.144
55855SOL     OW69461   7.849   6.861   6.653
55855SOL    HW169462   7.823   6.805   6.727
55855SOL    HW269463   7.792   6.938   6.660
55856SOL     OW69464  10.558   4.120   3.284
55856SOL    HW169465  10.544   4.097   3.376
55856SOL    HW269466  10.556   4.037   3.237
55857SOL     OW69467   9.801  10.192   0.100
55857SOL    HW169468   9.742  10.217   0.028
55857SOL    HW269469   9.752  10.126   0.149
55858SOL     OW69470  10.632   3.350  10.308
55858SOL    HW169471  10.640   3.405  10.387
55858SOL    HW269472  10.717   3.307  10.301
55859SOL     OW69473   3.647   2.162   4.507
55859SOL    HW169474   3.610   2.144   4.420
55859SOL    HW269475   3.738   2.131   4.500
55860SOL     OW69476  11.480   9.138   2.606
55860SOL    HW169477  11.523   9.216   2.641
55860SOL    HW269478  11.550   9.074   2.597
55861SOL     OW69479   5.722   4.092   4.474
55861SOL    HW169480   5.701   4.184   4.491
55861SOL    HW269481   5.673   4.071   4.395
55862SOL     OW69482  13.258   3.104   7.187
55862SOL    HW169483  13.233   3.160   7.260
55862SOL    HW269484  13.317   3.039   7.225
55863SOL     OW69485   3.293  14.196   1.916
55863SOL    HW169486   3.218  14.221   1.861
55863SOL    HW269487   3.368  14.236   1.872
55864SOL     OW69488  10.159   3.815   0.500
55864SOL    HW169489  10.150   3.903   0.537
55864SOL    HW269490  10.112   3.759   0.561
55865SOL     OW69491   7.751   3.856  12.904
55865SOL    HW169492   7.752   3.930  12.843
55865SOL    HW269493   7.672   3.807  12.881
55866SOL     OW69494  10.307   0.465   5.968
55866SOL    HW169495  10.384   0.440   6.019
55866SOL    HW269496  10.234   0.460   6.030
55867SOL     OW69497   3.997  10.498  12.737
55867SOL    HW169498   4.042  10.549  12.670
55867SOL    HW269499   3.938  10.441  12.689
55868SOL     OW69500   7.333   4.754   6.377
55868SOL    HW169501   7.281   4.745   6.297
55868SOL    HW269502   7.344   4.849   6.388
55869SOL     OW69503   1.069   9.676   8.911
55869SOL    HW169504   1.009   9.740   8.873
55869SOL    HW269505   1.135   9.662   8.842
55870SOL     OW69506  10.549   3.840  14.041
55870SOL    HW169507  10.549   3.819  14.134
55870SOL    HW269508  10.640   3.865  14.022
55871SOL     OW69509   8.684   0.848   2.568
55871SOL    HW169510   8.671   0.857   2.474
55871SOL    HW269511   8.745   0.774   2.577
55872SOL     OW69512   0.255   6.244  10.028
55872SOL    HW169513   0.331   6.301  10.017
55872SOL    HW269514   0.272   6.197  10.110
55873SOL     OW69515   3.962   0.618   9.303
55873SOL    HW169516   3.924   0.690   9.352
55873SOL    HW269517   4.015   0.660   9.235
55874SOL     OW69518   3.845   5.334   6.402
55874SOL    HW169519   3.896   5.254   6.403
55874SOL    HW269520   3.832   5.355   6.310
55875SOL     OW69521  11.196   0.706   0.240
55875SOL    HW169522  11.238   0.742   0.162
55875SOL    HW269523  11.178   0.615   0.218
55876SOL     OW69524   5.050   0.388  14.786
55876SOL    HW169525   5.009   0.332  14.720
55876SOL    HW269526   5.091   0.458  14.736
55877SOL     OW69527  13.132   3.361  14.659
55877SOL    HW169528  13.148   3.310  14.580
55877SOL    HW269529  13.210   3.346  14.714
55878SOL     OW69530   2.290   4.367  11.534
55878SOL    HW169531   2.314   4.308  11.605
55878SOL    HW269532   2.295   4.312  11.455
55879SOL     OW69533  11.954   8.522  10.889
55879SOL    HW169534  11.860   8.503  10.891
55879SOL    HW269535  11.996   8.437  10.878
55880SOL     OW69536   8.332   5.833   4.718
55880SOL    HW169537   8.422   5.852   4.692
55880SOL    HW269538   8.294   5.918   4.737
55881SOL     OW69539   6.943   3.880   2.336
55881SOL    HW169540   6.874   3.901   2.398
55881SOL    HW269541   6.974   3.793   2.363
55882SOL     OW69542  10.035   9.743   1.708
55882SOL    HW169543   9.955   9.750   1.762
55882SOL    HW269544  10.068   9.832   1.703
55883SOL     OW69545   5.006  13.621   9.240
55883SOL    HW169546   5.031  13.709   9.212
55883SOL    HW269547   4.973  13.633   9.329
55884SOL     OW69548   0.419  11.202   3.343
55884SOL    HW169549   0.511  11.198   3.319
55884SOL    HW269550   0.384  11.117   3.316
55885SOL     OW69551   1.530   7.420  13.160
55885SOL    HW169552   1.593   7.477  13.116
55885SOL    HW269553   1.537   7.337  13.114
55886SOL     OW69554   9.689   9.823   2.056
55886SOL    HW169555   9.650   9.910   2.056
55886SOL    HW269556   9.618   9.765   2.082
55887SOL     OW69557  10.330   5.490   6.052
55887SOL    HW169558  10.355   5.400   6.076
55887SOL    HW269559  10.313   5.532   6.136
55888SOL     OW69560  10.721   8.071   1.887
55888SOL    HW169561  10.679   8.013   1.951
55888SOL    HW269562  10.798   8.022   1.858
55889SOL     OW69563   5.010   2.074  14.785
55889SOL    HW169564   5.081   2.029  14.832
55889SOL    HW269565   4.934   2.067  14.843
55890SOL     OW69566  12.343   6.881  12.269
55890SOL    HW169567  12.268   6.822  12.267
55890SOL    HW269568  12.319   6.953  12.212
55891SOL     OW69569   7.803   2.191   2.581
55891SOL    HW169570   7.740   2.194   2.510
55891SOL    HW269571   7.773   2.119   2.637
55892SOL     OW69572   7.136   9.135  13.109
55892SOL    HW169573   7.228   9.113  13.118
55892SOL    HW269574   7.129   9.171  13.020
55893SOL     OW69575  13.231   1.757   1.866
55893SOL    HW169576  13.142   1.782   1.892
55893SOL    HW269577  13.230   1.661   1.866
55894SOL     OW69578   1.184   7.117   2.376
55894SOL    HW169579   1.102   7.096   2.332
55894SOL    HW269580   1.243   7.145   2.305
55895SOL     OW69581   3.650   5.895  11.453
55895SOL    HW169582   3.679   5.985  11.443
55895SOL    HW269583   3.555   5.899  11.443
55896SOL     OW69584   9.474  12.328   2.778
55896SOL    HW169585   9.488  12.306   2.870
55896SOL    HW269586   9.481  12.423   2.775
55897SOL     OW69587   7.704   1.318   2.250
55897SOL    HW169588   7.737   1.337   2.338
55897SOL    HW269589   7.783   1.313   2.196
55898SOL     OW69590   0.179   6.555   9.826
55898SOL    HW169591   0.163   6.462   9.809
55898SOL    HW269592   0.272   6.568   9.806
55899SOL     OW69593   8.448   3.393   2.824
55899SOL    HW169594   8.362   3.361   2.795
55899SOL    HW269595   8.450   3.375   2.918
55900SOL     OW69596   7.549   5.457  10.409
55900SOL    HW169597   7.501   5.519  10.464
55900SOL    HW269598   7.608   5.412  10.470
55901SOL     OW69599   6.812  13.310  13.594
55901SOL    HW169600   6.907  13.317  13.592
55901SOL    HW269601   6.785  13.372  13.662
55902SOL     OW69602   0.457   3.565  13.848
55902SOL    HW169603   0.538   3.609  13.873
55902SOL    HW269604   0.458   3.482  13.895
55903SOL     OW69605   4.406  14.169  10.917
55903SOL    HW169606   4.357  14.111  10.975
55903SOL    HW269607   4.485  14.190  10.967
55904SOL     OW69608   0.796   7.024   6.188
55904SOL    HW169609   0.790   6.946   6.244
55904SOL    HW269610   0.734   7.008   6.117
55905SOL     OW69611   9.874  14.820   4.512
55905SOL    HW169612   9.952  14.767   4.527
55905SOL    HW269613   9.801  14.758   4.525
55906SOL     OW69614   4.537  14.012   4.631
55906SOL    HW169615   4.460  14.042   4.679
55906SOL    HW269616   4.588  14.092   4.615
55907SOL     OW69617   1.492  10.894  11.182
55907SOL    HW169618   1.586  10.914  11.181
55907SOL    HW269619   1.475  10.867  11.272
55908SOL     OW69620   3.903   9.930   8.362
55908SOL    HW169621   3.985   9.906   8.404
55908SOL    HW269622   3.861   9.846   8.341
55909SOL     OW69623   9.538   2.980  13.577
55909SOL    HW169624   9.562   2.889  13.593
55909SOL    HW269625   9.615   3.018  13.534
55910SOL     OW69626   6.163  11.624   1.251
55910SOL    HW169627   6.195  11.622   1.161
55910SOL    HW269628   6.141  11.716   1.266
55911SOL     OW69629   8.406   2.842   1.684
55911SOL    HW169630   8.462   2.778   1.727
55911SOL    HW269631   8.440   2.848   1.595
55912SOL     OW69632  10.249  11.961  10.831
55912SOL    HW169633  10.227  11.938  10.922
55912SOL    HW269634  10.225  11.883  10.781
55913SOL     OW69635  13.984  11.014   8.812
55913SOL    HW169636  13.942  10.983   8.892
55913SOL    HW269637  13.912  11.024   8.749
55914SOL     OW69638   5.581   9.018   8.831
55914SOL    HW169639   5.514   8.954   8.853
55914SOL    HW269640   5.659   8.990   8.879
55915SOL     OW69641   7.990   5.755  12.047
55915SOL    HW169642   7.918   5.692  12.044
55915SOL    HW269643   7.950   5.839  12.025
55916SOL     OW69644   4.447   7.280  13.302
55916SOL    HW169645   4.363   7.237  13.319
55916SOL    HW269646   4.427   7.350  13.240
55917SOL     OW69647   8.271  14.342  13.989
55917SOL    HW169648   8.272  14.434  13.963
55917SOL    HW269649   8.178  14.321  14.000
55918SOL     OW69650   8.900   5.960   2.774
55918SOL    HW169651   8.806   5.972   2.767
55918SOL    HW269652   8.933   5.974   2.685
55919SOL     OW69653   5.505   8.270  12.457
55919SOL    HW169654   5.590   8.283  12.501
55919SOL    HW269655   5.527   8.262  12.365
55920SOL     OW69656   8.926   3.200  11.832
55920SOL    HW169657   8.926   3.110  11.797
55920SOL    HW269658   8.959   3.253  11.760
55921SOL     OW69659   7.407   5.992   6.427
55921SOL    HW169660   7.403   5.915   6.484
55921SOL    HW269661   7.485   6.039   6.456
55922SOL     OW69662  10.530   9.170   8.952
55922SOL    HW169663  10.586   9.092   8.946
55922SOL    HW269664  10.591   9.241   8.973
55923SOL     OW69665  13.567   9.057   3.679
55923SOL    HW169666  13.513   9.068   3.601
55923SOL    HW269667  13.651   9.024   3.646
55924SOL     OW69668   6.537   4.400   2.460
55924SOL    HW169669   6.620   4.412   2.506
55924SOL    HW269670   6.553   4.437   2.373
55925SOL     OW69671   4.938   4.464  12.333
55925SOL    HW169672   4.862   4.508  12.371
55925SOL    HW269673   4.993   4.534  12.299
55926SOL     OW69674   2.448   5.549  13.455
55926SOL    HW169675   2.484   5.545  13.543
55926SOL    HW269676   2.460   5.640  13.428
55927SOL     OW69677  13.943   3.319   9.302
55927SOL    HW169678  13.907   3.233   9.283
55927SOL    HW269679  13.879   3.360   9.359
55928SOL     OW69680   4.446  10.193   6.676
55928SOL    HW169681   4.492  10.109   6.681
55928SOL    HW269682   4.410  10.205   6.764
55929SOL     OW69683   5.716   1.615   9.096
55929SOL    HW169684   5.743   1.705   9.112
55929SOL    HW269685   5.792   1.563   9.123
55930SOL     OW69686  12.669   9.331  13.997
55930SOL    HW169687  12.678   9.427  13.993
55930SOL    HW269688  12.575   9.316  13.999
55931SOL     OW69689  13.286  10.607  10.048
55931SOL    HW169690  13.352  10.642   9.988
55931SOL    HW269691  13.288  10.665  10.124
55932SOL     OW69692  12.276  12.305   5.243
55932SOL    HW169693  12.241  12.394   5.246
55932SOL    HW269694  12.338  12.306   5.171
55933SOL     OW69695   1.942  11.898  13.587
55933SOL    HW169696   1.952  11.912  13.493
55933SOL    HW269697   1.892  11.817  13.595
55934SOL     OW69698   9.472   5.608   5.744
55934SOL    HW169699   9.450   5.701   5.737
55934SOL    HW269700   9.421   5.577   5.819
55935SOL     OW69701  11.834   2.943  13.367
55935SOL    HW169702  11.896   2.983  13.428
55935SOL    HW269703  11.801   2.866  13.413
55936SOL     OW69704  14.499  14.130   6.686
55936SOL    HW169705  14.472  14.143   6.595
55936SOL    HW269706  14.545  14.046   6.686
55937SOL     OW69707  14.754   5.020   5.546
55937SOL    HW169708  14.756   5.043   5.639
55937SOL    HW269709  14.682   5.072   5.509
55938SOL     OW69710   2.445   0.066   3.271
55938SOL    HW169711   2.532   0.036   3.245
55938SOL    HW269712   2.457   0.101   3.359
55939SOL     OW69713   7.949  13.174   0.579
55939SOL    HW169714   7.994  13.115   0.639
55939SOL    HW269715   7.940  13.256   0.628
55940SOL     OW69716  12.467  10.478   4.724
55940SOL    HW169717  12.485  10.433   4.642
55940SOL    HW269718  12.534  10.447   4.784
55941SOL     OW69719   0.620  13.043   6.474
55941SOL    HW169720   0.651  12.952   6.471
55941SOL    HW269721   0.691  13.092   6.515
55942SOL     OW69722  11.629  13.774  13.953
55942SOL    HW169723  11.620  13.817  14.038
55942SOL    HW269724  11.720  13.789  13.927
55943SOL     OW69725   5.036   6.414  14.643
55943SOL    HW169726   5.096   6.488  14.649
55943SOL    HW269727   4.967   6.443  14.583
55944SOL     OW69728   8.668  11.635   4.220
55944SOL    HW169729   8.683  11.730   4.217
55944SOL    HW269730   8.575  11.625   4.200
55945SOL     OW69731   7.528   0.231   1.569
55945SOL    HW169732   7.575   0.177   1.632
55945SOL    HW269733   7.536   0.184   1.486
55946SOL     OW69734   7.252  12.290   0.613
55946SOL    HW169735   7.283  12.357   0.674
55946SOL    HW269736   7.332  12.249   0.581
55947SOL     OW69737   2.578   3.729   4.620
55947SOL    HW169738   2.554   3.795   4.555
55947SOL    HW269739   2.635   3.668   4.573
55948SOL     OW69740   8.714   6.009   4.187
55948SOL    HW169741   8.770   5.987   4.261
55948SOL    HW269742   8.722   5.934   4.128
55949SOL     OW69743   4.779   6.795   5.231
55949SOL    HW169744   4.857   6.798   5.174
55949SOL    HW269745   4.714   6.747   5.180
55950SOL     OW69746   1.891   2.839   2.940
55950SOL    HW169747   1.853   2.902   2.878
55950SOL    HW269748   1.981   2.827   2.909
55951SOL     OW69749   9.458   9.401   3.446
55951SOL    HW169750   9.383   9.402   3.506
55951SOL    HW269751   9.533   9.427   3.500
55952SOL     OW69752   4.300   3.709  10.707
55952SOL    HW169753   4.270   3.692  10.796
55952SOL    HW269754   4.232   3.765  10.669
55953SOL     OW69755   1.887  11.799   2.309
55953SOL    HW169756   1.921  11.846   2.385
55953SOL    HW269757   1.845  11.867   2.255
55954SOL     OW69758   0.349   8.146   6.438
55954SOL    HW169759   0.349   8.235   6.403
55954SOL    HW269760   0.313   8.093   6.367
55955SOL     OW69761   5.210  14.329   7.323
55955SOL    HW169762   5.249  14.415   7.310
55955SOL    HW269763   5.151  14.340   7.398
55956SOL     OW69764   2.787   8.177  10.021
55956SOL    HW169765   2.712   8.226  10.055
55956SOL    HW269766   2.837   8.154  10.099
55957SOL     OW69767   3.355   6.801   2.989
55957SOL    HW169768   3.402   6.883   3.002
55957SOL    HW269769   3.277   6.810   3.043
55958SOL     OW69770  13.718  12.807   2.587
55958SOL    HW169771  13.756  12.881   2.634
55958SOL    HW269772  13.784  12.784   2.521
55959SOL     OW69773   4.009   3.527   2.842
55959SOL    HW169774   3.979   3.564   2.759
55959SOL    HW269775   3.951   3.565   2.908
55960SOL     OW69776   1.750   4.213  12.800
55960SOL    HW169777   1.701   4.231  12.880
55960SOL    HW269778   1.772   4.120  12.806
55961SOL     OW69779   9.547   0.207  10.514
55961SOL    HW169780   9.612   0.202  10.583
55961SOL    HW269781   9.528   0.300  10.506
55962SOL     OW69782   1.636  13.384  13.214
55962SOL    HW169783   1.652  13.303  13.262
55962SOL    HW269784   1.709  13.441  13.238
55963SOL     OW69785  13.126  13.048  12.250
55963SOL    HW169786  13.030  13.050  12.247
55963SOL    HW269787  13.153  13.137  12.227
55964SOL     OW69788   9.162   3.563   3.994
55964SOL    HW169789   9.076   3.588   3.960
55964SOL    HW269790   9.147   3.477   4.034
55965SOL     OW69791  13.334   5.199   2.864
55965SOL    HW169792  13.368   5.222   2.951
55965SOL    HW269793  13.339   5.280   2.814
55966SOL     OW69794  12.635   0.181   6.164
55966SOL    HW169795  12.642   0.085   6.160
55966SOL    HW269796  12.611   0.200   6.254
55967SOL     OW69797   6.448   1.053   2.736
55967SOL    HW169798   6.478   0.964   2.752
55967SOL    HW269799   6.411   1.051   2.647
55968SOL     OW69800  11.689   3.262  14.065
55968SOL    HW169801  11.651   3.183  14.027
55968SOL    HW269802  11.751   3.294  13.999
55969SOL     OW69803   5.591   9.591   1.291
55969SOL    HW169804   5.622   9.576   1.202
55969SOL    HW269805   5.669   9.581   1.346
55970SOL     OW69806   9.901   3.899   7.307
55970SOL    HW169807   9.946   3.815   7.302
55970SOL    HW269808   9.965   3.963   7.274
55971SOL     OW69809   2.952   5.699  14.159
55971SOL    HW169810   2.948   5.630  14.226
55971SOL    HW269811   3.001   5.659  14.087
55972SOL     OW69812  11.631   7.920   4.628
55972SOL    HW169813  11.641   7.827   4.649
55972SOL    HW269814  11.570   7.953   4.694
55973SOL     OW69815   0.743   0.146   7.760
55973SOL    HW169816   0.656   0.184   7.756
55973SOL    HW269817   0.790   0.199   7.825
55974SOL     OW69818  14.757  10.267  11.078
55974SOL    HW169819  14.850  10.287  11.065
55974SOL    HW269820  14.733  10.211  11.005
55975SOL     OW69821   4.147   9.721  10.146
55975SOL    HW169822   4.103   9.805  10.134
55975SOL    HW269823   4.122   9.669  10.070
55976SOL     OW69824  10.393   4.060  14.863
55976SOL    HW169825  10.442   4.041   0.071
55976SOL    HW269826  10.430   4.001  14.797
55977SOL     OW69827  13.621  11.499   4.722
55977SOL    HW169828  13.628  11.405   4.736
55977SOL    HW269829  13.592  11.535   4.806
55978SOL     OW69830  10.203  11.841   2.583
55978SOL    HW169831  10.176  11.806   2.498
55978SOL    HW269832  10.148  11.919   2.595
55979SOL     OW69833  14.799   6.804   6.074
55979SOL    HW169834  14.780   6.880   6.019
55979SOL    HW269835  14.847   6.840   6.149
55980SOL     OW69836  12.713   0.640   2.994
55980SOL    HW169837  12.668   0.590   3.063
55980SOL    HW269838  12.785   0.684   3.039
55981SOL     OW69839   9.224  12.621  10.648
55981SOL    HW169840   9.174  12.590  10.723
55981SOL    HW269841   9.208  12.556  10.580
55982SOL     OW69842   3.920  10.954   2.922
55982SOL    HW169843   3.959  11.032   2.963
55982SOL    HW269844   3.918  10.889   2.992
55983SOL     OW69845   5.170  13.989   1.047
55983SOL    HW169846   5.166  13.940   0.965
55983SOL    HW269847   5.132  13.929   1.112
55984SOL     OW69848  12.524   7.383  12.825
55984SOL    HW169849  12.468   7.314  12.861
55984SOL    HW269850  12.534   7.445  12.897
55985SOL     OW69851   3.049   6.482   4.040
55985SOL    HW169852   3.103   6.538   4.095
55985SOL    HW269853   3.042   6.530   3.957
55986SOL     OW69854  14.805  12.204  10.264
55986SOL    HW169855  14.736  12.157  10.311
55986SOL    HW269856   0.006  12.141  10.262
55987SOL     OW69857  12.319  13.316   1.106
55987SOL    HW169858  12.226  13.339   1.105
55987SOL    HW269859  12.333  13.269   1.024
55988SOL     OW69860   0.053   8.355   8.874
55988SOL    HW169861   0.025   8.416   8.806
55988SOL    HW269862  14.866   8.281   8.865
55989SOL     OW69863   3.677   2.799   9.073
55989SOL    HW169864   3.742   2.739   9.108
55989SOL    HW269865   3.699   2.884   9.110
55990SOL     OW69866   8.675   8.423   0.730
55990SOL    HW169867   8.683   8.506   0.684
55990SOL    HW269868   8.686   8.357   0.662
55991SOL     OW69869   5.263  13.615   8.736
55991SOL    HW169870   5.305  13.557   8.673
55991SOL    HW269871   5.232  13.557   8.806
55992SOL     OW69872   0.731   1.390   8.304
55992SOL    HW169873   0.656   1.368   8.249
55992SOL    HW269874   0.749   1.482   8.285
55993SOL     OW69875   4.100   2.626  12.806
55993SOL    HW169876   4.127   2.629  12.714
55993SOL    HW269877   4.005   2.625  12.803
55994SOL     OW69878   5.679  13.414   0.328
55994SOL    HW169879   5.604  13.377   0.373
55994SOL    HW269880   5.679  13.372   0.242
55995SOL     OW69881  12.926  14.602   3.575
55995SOL    HW169882  12.996  14.667   3.574
55995SOL    HW269883  12.922  14.569   3.485
55996SOL     OW69884   3.521  12.654   1.910
55996SOL    HW169885   3.427  12.651   1.895
55996SOL    HW269886   3.559  12.667   1.823
55997SOL     OW69887   9.907   3.049  10.534
55997SOL    HW169888   9.922   3.051  10.629
55997SOL    HW269889   9.900   3.141  10.509
55998SOL     OW69890   1.121   0.307  12.488
55998SOL    HW169891   1.067   0.296  12.409
55998SOL    HW269892   1.210   0.289  12.459
55999SOL     OW69893   8.473  12.254   1.367
55999SOL    HW169894   8.502  12.243   1.457
55999SOL    HW269895   8.378  12.240   1.370
56000SOL     OW69896   4.466   6.740   1.633
56000SOL    HW169897   4.495   6.806   1.696
56000SOL    HW269898   4.538   6.732   1.571
56001SOL     OW69899  14.280   6.615   6.570
56001SOL    HW169900  14.299   6.629   6.477
56001SOL    HW269901  14.187   6.596   6.573
56002SOL     OW69902  10.560   0.299  13.004
56002SOL    HW169903  10.572   0.394  13.001
56002SOL    HW269904  10.633   0.264  12.953
56003SOL     OW69905   3.198   0.354   3.938
56003SOL    HW169906   3.158   0.364   3.851
56003SOL    HW269907   3.200   0.260   3.953
56004SOL     OW69908   8.797   8.024   3.973
56004SOL    HW169909   8.773   8.109   4.011
56004SOL    HW269910   8.880   8.002   4.015
56005SOL     OW69911  12.276  13.292   5.729
56005SOL    HW169912  12.365  13.309   5.759
56005SOL    HW269913  12.272  13.197   5.717
56006SOL     OW69914  14.615  11.675   3.437
56006SOL    HW169915  14.661  11.656   3.355
56006SOL    HW269916  14.542  11.731   3.411
56007SOL     OW69917   4.522   2.082   3.014
56007SOL    HW169918   4.566   2.139   2.951
56007SOL    HW269919   4.574   2.002   3.015
56008SOL     OW69920   9.481   8.718   8.074
56008SOL    HW169921   9.464   8.625   8.057
56008SOL    HW269922   9.432   8.764   8.006
56009SOL     OW69923  14.531   2.485   5.480
56009SOL    HW169924  14.612   2.467   5.528
56009SOL    HW269925  14.560   2.526   5.398
56010SOL     OW69926   0.536  12.775   2.834
56010SOL    HW169927   0.491  12.852   2.798
56010SOL    HW269928   0.558  12.800   2.924
56011SOL     OW69929   7.974  10.943   3.403
56011SOL    HW169930   8.025  10.921   3.325
56011SOL    HW269931   7.987  10.868   3.462
56012SOL     OW69932  12.028  14.312   8.592
56012SOL    HW169933  12.113  14.353   8.575
56012SOL    HW269934  12.036  14.278   8.682
56013SOL     OW69935  12.316  11.818   4.177
56013SOL    HW169936  12.258  11.831   4.102
56013SOL    HW269937  12.391  11.876   4.160
56014SOL     OW69938  12.244   7.439  14.070
56014SOL    HW169939  12.149   7.434  14.081
56014SOL    HW269940  12.278   7.445  14.160
56015SOL     OW69941  13.103   3.000  10.647
56015SOL    HW169942  13.027   3.004  10.589
56015SOL    HW269943  13.121   3.092  10.669
56016SOL     OW69944   0.900   5.914  10.444
56016SOL    HW169945   0.878   5.994  10.493
56016SOL    HW269946   0.919   5.849  10.512
56017SOL     OW69947   8.914  11.630  10.328
56017SOL    HW169948   8.977  11.702  10.328
56017SOL    HW269949   8.912  11.600  10.238
56018SOL     OW69950   9.487  10.637   1.812
56018SOL    HW169951   9.403  10.595   1.793
56018SOL    HW269952   9.492  10.709   1.749
56019SOL     OW69953  12.082   1.432   4.772
56019SOL    HW169954  12.041   1.418   4.858
56019SOL    HW269955  12.161   1.378   4.774
56020SOL     OW69956   2.748  10.187  13.843
56020SOL    HW169957   2.664  10.142  13.844
56020SOL    HW269958   2.813  10.117  13.841
56021SOL     OW69959   0.190   5.492   8.458
56021SOL    HW169960   0.179   5.398   8.471
56021SOL    HW269961   0.181   5.505   8.364
56022SOL     OW69962   3.460  14.679   6.087
56022SOL    HW169963   3.393  14.678   6.018
56022SOL    HW269964   3.476  14.586   6.106
56023SOL     OW69965   3.552  10.991   1.262
56023SOL    HW169966   3.617  11.062   1.269
56023SOL    HW269967   3.480  11.030   1.213
56024SOL     OW69968   1.781  12.273   0.932
56024SOL    HW169969   1.803  12.203   0.871
56024SOL    HW269970   1.865  12.308   0.960
56025SOL     OW69971   4.888   5.828   4.566
56025SOL    HW169972   4.942   5.905   4.582
56025SOL    HW269973   4.938   5.756   4.605
56026SOL     OW69974   4.588   3.616  11.507
56026SOL    HW169975   4.625   3.679  11.445
56026SOL    HW269976   4.498   3.644  11.519
56027SOL     OW69977   9.869   2.452   2.243
56027SOL    HW169978   9.800   2.389   2.266
56027SOL    HW269979   9.922   2.461   2.322
56028SOL     OW69980  14.617   9.692  10.490
56028SOL    HW169981  14.677   9.673  10.418
56028SOL    HW269982  14.673   9.726  10.560
56029SOL     OW69983   2.351   9.514  12.846
56029SOL    HW169984   2.433   9.490  12.889
56029SOL    HW269985   2.330   9.439  12.790
56030SOL     OW69986   4.107   1.988  13.664
56030SOL    HW169987   4.047   1.923  13.702
56030SOL    HW269988   4.178   1.995  13.728
56031SOL     OW69989  10.857   1.494   3.376
56031SOL    HW169990  10.888   1.418   3.426
56031SOL    HW269991  10.789   1.460   3.319
56032SOL     OW69992   7.623   2.153   5.940
56032SOL    HW169993   7.555   2.128   5.878
56032SOL    HW269994   7.690   2.196   5.887
56033SOL     OW69995   9.822   2.830   2.291
56033SOL    HW169996   9.734   2.865   2.285
56033SOL    HW269997   9.826   2.761   2.225
56034SOL     OW69998   8.996   1.214   5.639
56034SOL    HW169999   8.947   1.162   5.703
56034SOL    HW270000   8.949   1.297   5.633
56035SOL     OW70001   7.894  10.115   0.436
56035SOL    HW170002   7.846  10.184   0.389
56035SOL    HW270003   7.952  10.077   0.370
56036SOL     OW70004   8.904   7.542   3.710
56036SOL    HW170005   8.995   7.522   3.732
56036SOL    HW270006   8.874   7.599   3.780
56037SOL     OW70007   7.253   2.447   1.466
56037SOL    HW170008   7.228   2.386   1.396
56037SOL    HW270009   7.284   2.525   1.419
56038SOL     OW70010   7.000  11.311  11.180
56038SOL    HW170011   6.983  11.296  11.273
56038SOL    HW270012   7.096  11.313  11.172
56039SOL     OW70013   6.504   1.347  12.646
56039SOL    HW170014   6.568   1.403  12.603
56039SOL    HW270015   6.433   1.338  12.582
56040SOL     OW70016   3.523  10.583   0.887
56040SOL    HW170017   3.464  10.620   0.821
56040SOL    HW270018   3.534  10.653   0.951
56041SOL     OW70019  11.679  14.317   1.629
56041SOL    HW170020  11.727  14.381   1.681
56041SOL    HW270021  11.664  14.243   1.687
56042SOL     OW70022   9.044  10.550   8.091
56042SOL    HW170023   8.971  10.494   8.063
56042SOL    HW270024   9.100  10.492   8.143
56043SOL     OW70025   4.098   3.910  12.235
56043SOL    HW170026   4.138   3.892  12.151
56043SOL    HW270027   4.015   3.954  12.214
56044SOL     OW70028  10.594   5.856   6.870
56044SOL    HW170029  10.511   5.831   6.830
56044SOL    HW270030  10.571   5.886   6.958
56045SOL     OW70031  11.107  11.183   3.361
56045SOL    HW170032  11.129  11.105   3.308
56045SOL    HW270033  11.132  11.257   3.305
56046SOL     OW70034  11.649   5.041   2.148
56046SOL    HW170035  11.609   4.973   2.093
56046SOL    HW270036  11.726   5.069   2.099
56047SOL     OW70037   9.420   4.505   7.396
56047SOL    HW170038   9.492   4.451   7.362
56047SOL    HW270039   9.427   4.586   7.345
56048SOL     OW70040   0.049   3.844  12.012
56048SOL    HW170041   0.104   3.885  11.945
56048SOL    HW270042   0.080   3.882  12.094
56049SOL     OW70043  10.952   9.297   0.585
56049SOL    HW170044  10.989   9.337   0.663
56049SOL    HW270045  10.942   9.205   0.607
56050SOL     OW70046   8.661   3.659  14.729
56050SOL    HW170047   8.611   3.692  14.655
56050SOL    HW270048   8.598   3.656  14.801
56051SOL     OW70049   0.585  10.110   1.701
56051SOL    HW170050   0.595  10.158   1.783
56051SOL    HW270051   0.635  10.029   1.714
56052SOL     OW70052   4.047  14.063   1.969
56052SOL    HW170053   4.126  14.092   1.924
56052SOL    HW270054   4.077  14.043   2.058
56053SOL     OW70055   9.144   5.564   6.703
56053SOL    HW170056   9.100   5.523   6.778
56053SOL    HW270057   9.108   5.653   6.700
56054SOL     OW70058   5.218  12.476  14.275
56054SOL    HW170059   5.266  12.409  14.226
56054SOL    HW270060   5.194  12.433  14.358
56055SOL     OW70061   4.429   1.199  12.968
56055SOL    HW170062   4.333   1.200  12.974
56055SOL    HW270063   4.456   1.284  13.005
56056SOL     OW70064   1.929   0.785   9.276
56056SOL    HW170065   1.979   0.792   9.195
56056SOL    HW270066   1.837   0.787   9.249
56057SOL     OW70067   7.538   9.644  11.123
56057SOL    HW170068   7.602   9.633  11.194
56057SOL    HW270069   7.470   9.580  11.141
56058SOL     OW70070  10.868  10.223   0.668
56058SOL    HW170071  10.853  10.135   0.703
56058SOL    HW270072  10.799  10.235   0.603
56059SOL     OW70073   8.385   5.944   8.074
56059SOL    HW170074   8.410   5.854   8.095
56059SOL    HW270075   8.296   5.953   8.109
56060SOL     OW70076   5.732   5.726  12.581
56060SOL    HW170077   5.679   5.769  12.648
56060SOL    HW270078   5.821   5.754  12.598
56061SOL     OW70079   3.531   7.528  12.132
56061SOL    HW170080   3.569   7.611  12.102
56061SOL    HW270081   3.605   7.469  12.138
56062SOL     OW70082  13.095  11.046   0.799
56062SOL    HW170083  13.016  11.004   0.765
56062SOL    HW270084  13.111  11.002   0.883
56063SOL     OW70085   4.191  13.802   0.137
56063SOL    HW170086   4.191  13.898   0.137
56063SOL    HW270087   4.227  13.778   0.052
56064SOL     OW70088   1.061   3.317  10.901
56064SOL    HW170089   1.081   3.342  10.811
56064SOL    HW270090   0.980   3.365  10.922
56065SOL     OW70091  11.294  11.570   0.011
56065SOL    HW170092  11.384  11.599   0.026
56065SOL    HW270093  11.299  11.474   0.013
56066SOL     OW70094   6.107  14.601  11.727
56066SOL    HW170095   6.129  14.682  11.680
56066SOL    HW270096   6.093  14.629  11.817
56067SOL     OW70097  11.264   7.941   9.817
56067SOL    HW170098  11.326   7.953   9.745
56067SOL    HW270099  11.181   7.922   9.774
56068SOL     OW70100   4.639   0.630   0.933
56068SOL    HW170101   4.576   0.586   0.990
56068SOL    HW270102   4.725   0.607   0.969
56069SOL     OW70103   3.349   2.622  14.388
56069SOL    HW170104   3.388   2.586  14.308
56069SOL    HW270105   3.302   2.548  14.427
56070SOL     OW70106   6.683  14.784   0.629
56070SOL    HW170107   6.591  14.805   0.641
56070SOL    HW270108   6.730  14.856   0.670
56071SOL     OW70109   1.512  11.194  14.818
56071SOL    HW170110   1.569  11.177   0.021
56071SOL    HW270111   1.433  11.143  14.836
56072SOL     OW70112   5.567  14.546   7.256
56072SOL    HW170113   5.633  14.563   7.323
56072SOL    HW270114   5.581  14.614   7.191
56073SOL     OW70115  10.724   4.532   2.673
56073SOL    HW170116  10.800   4.590   2.670
56073SOL    HW270117  10.750   4.461   2.732
56074SOL     OW70118   3.715  12.966   2.825
56074SOL    HW170119   3.794  12.952   2.771
56074SOL    HW270120   3.686  13.053   2.801
56075SOL     OW70121  10.401  12.743   9.065
56075SOL    HW170122  10.455  12.771   9.138
56075SOL    HW270123  10.430  12.654   9.046
56076SOL     OW70124   0.061   8.737  10.825
56076SOL    HW170125   0.087   8.807  10.766
56076SOL    HW270126   0.061   8.778  10.912
56077SOL     OW70127   4.095  12.751   3.928
56077SOL    HW170128   4.065  12.814   3.995
56077SOL    HW270129   4.082  12.666   3.969
56078SOL     OW70130   4.946   4.813   4.141
56078SOL    HW170131   5.038   4.829   4.163
56078SOL    HW270132   4.937   4.842   4.051
56079SOL     OW70133   0.555  10.821  12.675
56079SOL    HW170134   0.603  10.863  12.604
56079SOL    HW270135   0.477  10.784  12.632
56080SOL     OW70136   7.157  10.756   8.028
56080SOL    HW170137   7.215  10.742   8.103
56080SOL    HW270138   7.132  10.668   8.001
56081SOL     OW70139   2.764   2.032   1.343
56081SOL    HW170140   2.808   2.015   1.426
56081SOL    HW270141   2.791   2.120   1.318
56082SOL     OW70142   6.286   3.322  13.103
56082SOL    HW170143   6.348   3.360  13.165
56082SOL    HW270144   6.283   3.386  13.031
56083SOL     OW70145   5.368   5.789  11.644
56083SOL    HW170146   5.311   5.825  11.577
56083SOL    HW270147   5.379   5.860  11.707
56084SOL     OW70148   6.277  10.772   7.343
56084SOL    HW170149   6.274  10.736   7.432
56084SOL    HW270150   6.365  10.754   7.312
56085SOL     OW70151  14.705  14.411   2.676
56085SOL    HW170152  14.744  14.494   2.702
56085SOL    HW270153  14.699  14.415   2.581
56086SOL     OW70154   3.034   7.316   0.718
56086SOL    HW170155   3.042   7.265   0.637
56086SOL    HW270156   3.124   7.328   0.748
56087SOL     OW70157   3.712   1.683  11.021
56087SOL    HW170158   3.677   1.594  11.027
56087SOL    HW270159   3.793   1.681  11.073
56088SOL     OW70160   8.433  12.564  12.400
56088SOL    HW170161   8.385  12.526  12.326
56088SOL    HW270162   8.472  12.489  12.445
56089SOL     OW70163  14.652   0.962   5.319
56089SOL    HW170164  14.620   1.024   5.253
56089SOL    HW270165  14.575   0.910   5.342
56090SOL     OW70166   9.213   9.462   0.500
56090SOL    HW170167   9.292   9.498   0.539
56090SOL    HW270168   9.172   9.413   0.571
56091SOL     OW70169   5.427   7.726   9.820
56091SOL    HW170170   5.472   7.709   9.902
56091SOL    HW270171   5.338   7.693   9.834
56092SOL     OW70172  11.798   4.488   7.715
56092SOL    HW170173  11.838   4.529   7.638
56092SOL    HW270174  11.782   4.561   7.775
56093SOL     OW70175   6.072   2.869  13.890
56093SOL    HW170176   6.123   2.911  13.821
56093SOL    HW270177   5.984   2.862  13.855
56094SOL     OW70178   2.855  12.511   7.429
56094SOL    HW170179   2.906  12.568   7.486
56094SOL    HW270180   2.849  12.428   7.475
56095SOL     OW70181   2.601   9.441   9.202
56095SOL    HW170182   2.690   9.475   9.204
56095SOL    HW270183   2.545   9.518   9.204
56096SOL     OW70184   9.552   9.113   9.794
56096SOL    HW170185   9.487   9.154   9.736
56096SOL    HW270186   9.530   9.020   9.792
56097SOL     OW70187  13.473  13.933   5.870
56097SOL    HW170188  13.513  13.988   5.938
56097SOL    HW270189  13.380  13.956   5.872
56098SOL     OW70190   2.962   4.792   4.355
56098SOL    HW170191   2.936   4.738   4.430
56098SOL    HW270192   3.050   4.822   4.378
56099SOL     OW70193  13.165   8.424  12.182
56099SOL    HW170194  13.126   8.509  12.162
56099SOL    HW270195  13.245   8.421  12.130
56100SOL     OW70196   7.033  10.504   7.859
56100SOL    HW170197   6.997  10.427   7.903
56100SOL    HW270198   7.029  10.483   7.766
56101SOL     OW70199   8.853   4.404   6.189
56101SOL    HW170200   8.889   4.397   6.101
56101SOL    HW270201   8.875   4.493   6.217
56102SOL     OW70202   0.985   2.703   3.653
56102SOL    HW170203   0.906   2.711   3.601
56102SOL    HW270204   0.957   2.661   3.734
56103SOL     OW70205  11.028   1.001   2.798
56103SOL    HW170206  11.004   0.956   2.716
56103SOL    HW270207  10.946   1.039   2.828
56104SOL     OW70208   6.580   8.657   4.273
56104SOL    HW170209   6.578   8.672   4.367
56104SOL    HW270210   6.504   8.705   4.239
56105SOL     OW70211   1.972   1.474  13.296
56105SOL    HW170212   2.038   1.528  13.252
56105SOL    HW270213   2.014   1.444  13.376
56106SOL     OW70214   0.115   9.499   4.822
56106SOL    HW170215   0.036   9.524   4.774
56106SOL    HW270216   0.083   9.472   4.908
56107SOL     OW70217   4.159  10.266   0.324
56107SOL    HW170218   4.204  10.350   0.322
56107SOL    HW270219   4.177  10.231   0.411
56108SOL     OW70220   8.104   1.620   4.688
56108SOL    HW170221   8.062   1.561   4.751
56108SOL    HW270222   8.156   1.562   4.632
56109SOL     OW70223   7.397   8.882  13.228
56109SOL    HW170224   7.482   8.845  13.251
56109SOL    HW270225   7.402   8.973  13.256
56110SOL     OW70226   9.768  10.405  11.422
56110SOL    HW170227   9.682  10.387  11.384
56110SOL    HW270228   9.760  10.492  11.461
56111SOL     OW70229  13.590   9.035  10.101
56111SOL    HW170230  13.643   9.047  10.023
56111SOL    HW270231  13.636   9.083  10.170
56112SOL     OW70232   1.372   0.346   6.250
56112SOL    HW170233   1.362   0.441   6.257
56112SOL    HW270234   1.426   0.322   6.326
56113SOL     OW70235   2.573   7.749  11.695
56113SOL    HW170236   2.501   7.687  11.684
56113SOL    HW270237   2.535   7.822  11.742
56114SOL     OW70238   8.952   6.134   6.981
56114SOL    HW170239   9.019   6.198   6.957
56114SOL    HW270240   8.869   6.176   6.960
56115SOL     OW70241   2.713   7.737  13.283
56115SOL    HW170242   2.778   7.684  13.329
56115SOL    HW270243   2.764   7.805  13.240
56116SOL     OW70244   6.157   9.089   1.691
56116SOL    HW170245   6.136   9.176   1.725
56116SOL    HW270246   6.224   9.055   1.750
56117SOL     OW70247   7.546   4.106   2.469
56117SOL    HW170248   7.628   4.075   2.431
56117SOL    HW270249   7.479   4.088   2.403
56118SOL     OW70250  11.093  10.082   0.530
56118SOL    HW170251  11.007  10.118   0.550
56118SOL    HW270252  11.075  10.004   0.477
56119SOL     OW70253   3.532   2.700   9.492
56119SOL    HW170254   3.476   2.721   9.567
56119SOL    HW270255   3.582   2.624   9.520
56120SOL     OW70256   4.333  10.115   1.982
56120SOL    HW170257   4.425  10.141   1.994
56120SOL    HW270258   4.335  10.019   1.986
56121SOL     OW70259   3.798   9.854  10.663
56121SOL    HW170260   3.770   9.882  10.749
56121SOL    HW270261   3.717   9.847  10.612
56122SOL     OW70262  12.012   9.877   6.397
56122SOL    HW170263  11.968   9.906   6.477
56122SOL    HW270264  12.084   9.821   6.428
56123SOL     OW70265   8.633  10.059   2.274
56123SOL    HW170266   8.591  10.019   2.198
56123SOL    HW270267   8.560  10.080   2.333
56124SOL     OW70268   8.898  14.189  13.950
56124SOL    HW170269   8.816  14.141  13.963
56124SOL    HW270270   8.873  14.262  13.893
56125SOL     OW70271  13.388   9.736  12.465
56125SOL    HW170272  13.318   9.802  12.465
56125SOL    HW270273  13.439   9.755  12.386
56126SOL     OW70274   1.897   9.914   2.191
56126SOL    HW170275   1.865   9.860   2.119
56126SOL    HW270276   1.992   9.917   2.180
56127SOL     OW70277   5.198   5.208  12.858
56127SOL    HW170278   5.214   5.198  12.952
56127SOL    HW270279   5.165   5.297  12.848
56128SOL     OW70280   4.996  10.074   2.918
56128SOL    HW170281   4.921  10.028   2.881
56128SOL    HW270282   4.958  10.148   2.965
56129SOL     OW70283   3.865   4.856   2.241
56129SOL    HW170284   3.899   4.853   2.152
56129SOL    HW270285   3.940   4.886   2.294
56130SOL     OW70286   5.980   4.387   5.439
56130SOL    HW170287   5.926   4.453   5.483
56130SOL    HW270288   5.968   4.308   5.491
56131SOL     OW70289   8.900  12.340  10.344
56131SOL    HW170290   8.844  12.267  10.319
56131SOL    HW270291   8.873  12.412  10.287
56132SOL     OW70292   8.417   5.331   7.827
56132SOL    HW170293   8.359   5.370   7.892
56132SOL    HW270294   8.359   5.283   7.768
56133SOL     OW70295   8.886   8.814   2.203
56133SOL    HW170296   8.834   8.829   2.123
56133SOL    HW270297   8.827   8.767   2.261
56134SOL     OW70298   5.187  11.056  10.687
56134SOL    HW170299   5.163  11.124  10.750
56134SOL    HW270300   5.106  11.008  10.672
56135SOL     OW70301  12.884   6.089   5.128
56135SOL    HW170302  12.925   6.129   5.205
56135SOL    HW270303  12.958   6.054   5.078
56136SOL     OW70304  10.613   0.763  12.469
56136SOL    HW170305  10.675   0.820  12.424
56136SOL    HW270306  10.585   0.813  12.545
56137SOL     OW70307   8.456   0.559  13.995
56137SOL    HW170308   8.495   0.494  13.937
56137SOL    HW270309   8.409   0.507  14.061
56138SOL     OW70310   4.110  14.422  13.096
56138SOL    HW170311   4.067  14.360  13.036
56138SOL    HW270312   4.129  14.498  13.043
56139SOL     OW70313  10.194  10.134   6.754
56139SOL    HW170314  10.165  10.047   6.728
56139SOL    HW270315  10.284  10.122   6.783
56140SOL     OW70316   0.651   0.004   8.036
56140SOL    HW170317   0.709   0.044   7.971
56140SOL    HW270318   0.702   0.002   8.117
56141SOL     OW70319   6.965   6.155  10.239
56141SOL    HW170320   6.940   6.175  10.149
56141SOL    HW270321   6.983   6.240  10.279
56142SOL     OW70322  14.648   1.748   7.437
56142SOL    HW170323  14.582   1.679   7.432
56142SOL    HW270324  14.731   1.701   7.446
56143SOL     OW70325  10.967   4.976   0.646
56143SOL    HW170326  11.016   4.968   0.729
56143SOL    HW270327  10.875   4.977   0.673
56144SOL     OW70328   2.973  14.013   3.676
56144SOL    HW170329   2.963  13.920   3.654
56144SOL    HW270330   3.060  14.019   3.716
56145SOL     OW70331   3.076  12.753   3.864
56145SOL    HW170332   3.053  12.729   3.774
56145SOL    HW270333   3.172  12.746   3.866
56146SOL     OW70334   6.856   2.629  12.687
56146SOL    HW170335   6.769   2.603  12.656
56146SOL    HW270336   6.851   2.621  12.782
56147SOL     OW70337   4.446   6.486  12.463
56147SOL    HW170338   4.412   6.519  12.546
56147SOL    HW270339   4.540   6.477  12.477
56148SOL     OW70340   0.760   6.836   0.484
56148SOL    HW170341   0.711   6.766   0.527
56148SOL    HW270342   0.813   6.875   0.554
56149SOL     OW70343  12.348   0.949  10.124
56149SOL    HW170344  12.298   0.903  10.057
56149SOL    HW270345  12.431   0.902  10.128
56150SOL     OW70346   8.534   4.314   9.298
56150SOL    HW170347   8.465   4.335   9.361
56150SOL    HW270348   8.533   4.387   9.236
56151SOL     OW70349   0.678   6.286   1.129
56151SOL    HW170350   0.656   6.211   1.073
56151SOL    HW270351   0.596   6.308   1.173
56152SOL     OW70352   9.089   4.529  11.516
56152SOL    HW170353   9.151   4.599  11.498
56152SOL    HW270354   9.141   4.462  11.561
56153SOL     OW70355   7.029   1.697  10.182
56153SOL    HW170356   7.092   1.625  10.179
56153SOL    HW270357   7.018   1.723  10.090
56154SOL     OW70358   5.325   5.188  13.789
56154SOL    HW170359   5.361   5.162  13.704
56154SOL    HW270360   5.324   5.284  13.786
56155SOL     OW70361   3.088   4.861   9.027
56155SOL    HW170362   3.183   4.876   9.030
56155SOL    HW270363   3.054   4.911   9.101
56156SOL     OW70364   0.361   5.848   7.961
56156SOL    HW170365   0.267   5.850   7.977
56156SOL    HW270366   0.374   5.912   7.891
56157SOL     OW70367   8.460   3.042   1.130
56157SOL    HW170368   8.417   3.001   1.206
56157SOL    HW270369   8.441   3.135   1.139
56158SOL     OW70370   6.735  13.622   7.479
56158SOL    HW170371   6.684  13.608   7.400
56158SOL    HW270372   6.680  13.676   7.536
56159SOL     OW70373  14.307   6.795  14.788
56159SOL    HW170374  14.314   6.767   0.007
56159SOL    HW270375  14.249   6.871  14.791
56160SOL     OW70376   7.468   0.287  13.949
56160SOL    HW170377   7.483   0.282  13.855
56160SOL    HW270378   7.422   0.205  13.970
56161SOL     OW70379  13.127   3.892   5.726
56161SOL    HW170380  13.092   3.806   5.751
56161SOL    HW270381  13.058   3.954   5.749
56162SOL     OW70382  10.340   5.343   2.570
56162SOL    HW170383  10.257   5.372   2.608
56162SOL    HW270384  10.380   5.423   2.538
56163SOL     OW70385   8.222   5.366   8.394
56163SOL    HW170386   8.309   5.394   8.365
56163SOL    HW270387   8.169   5.446   8.391
56164SOL     OW70388   5.363   1.215   4.688
56164SOL    HW170389   5.310   1.135   4.686
56164SOL    HW270390   5.446   1.189   4.647
56165SOL     OW70391  13.600   2.129   2.012
56165SOL    HW170392  13.597   2.045   1.968
56165SOL    HW270393  13.600   2.194   1.941
56166SOL     OW70394   7.085  13.832   6.436
56166SOL    HW170395   7.097  13.891   6.362
56166SOL    HW270396   7.013  13.775   6.410
56167SOL     OW70397  13.094   5.851  13.401
56167SOL    HW170398  13.092   5.771  13.452
56167SOL    HW270399  13.011   5.895  13.421
56168SOL     OW70400   8.517  11.256   4.740
56168SOL    HW170401   8.492  11.347   4.755
56168SOL    HW270402   8.435  11.212   4.718
56169SOL     OW70403   6.109  14.175   8.251
56169SOL    HW170404   6.156  14.103   8.208
56169SOL    HW270405   6.018  14.160   8.229
56170SOL     OW70406   4.778   2.267   3.159
56170SOL    HW170407   4.728   2.305   3.232
56170SOL    HW270408   4.726   2.288   3.081
56171SOL     OW70409   4.020  11.508   0.899
56171SOL    HW170410   4.019  11.587   0.953
56171SOL    HW270411   4.101  11.463   0.924
56172SOL     OW70412   1.428   5.842   3.272
56172SOL    HW170413   1.337   5.860   3.248
56172SOL    HW270414   1.471   5.820   3.189
56173SOL     OW70415  11.435   1.097   2.828
56173SOL    HW170416  11.409   1.189   2.832
56173SOL    HW270417  11.503   1.088   2.894
56174SOL     OW70418  13.470   6.087   4.326
56174SOL    HW170419  13.400   6.150   4.309
56174SOL    HW270420  13.433   6.027   4.390
56175SOL     OW70421  14.459  12.725   1.846
56175SOL    HW170422  14.491  12.711   1.757
56175SOL    HW270423  14.378  12.675   1.851
56176SOL     OW70424  14.392  14.842   7.672
56176SOL    HW170425  14.431  14.784   7.737
56176SOL    HW270426  14.397  14.792   7.590
56177SOL     OW70427   4.089  14.477   0.244
56177SOL    HW170428   4.004  14.438   0.225
56177SOL    HW270429   4.079  14.569   0.217
56178SOL     OW70430  13.743   7.389   7.374
56178SOL    HW170431  13.724   7.364   7.465
56178SOL    HW270432  13.838   7.387   7.367
56179SOL     OW70433  12.288  13.514   7.128
56179SOL    HW170434  12.335  13.449   7.179
56179SOL    HW270435  12.353  13.546   7.064
56180SOL     OW70436   0.207   9.824   7.245
56180SOL    HW170437   0.169   9.737   7.238
56180SOL    HW270438   0.171   9.859   7.326
56181SOL     OW70439  11.470  12.677   0.921
56181SOL    HW170440  11.524  12.723   0.857
56181SOL    HW270441  11.524  12.674   1.000
56182SOL     OW70442   4.875  13.172   4.073
56182SOL    HW170443   4.837  13.096   4.118
56182SOL    HW270444   4.969  13.163   4.087
56183SOL     OW70445   7.721   4.085  12.747
56183SOL    HW170446   7.630   4.116  12.739
56183SOL    HW270447   7.774   4.155  12.710
56184SOL     OW70448  13.714   8.231   5.821
56184SOL    HW170449  13.739   8.312   5.777
56184SOL    HW270450  13.748   8.241   5.910
56185SOL     OW70451   5.067  10.379   5.166
56185SOL    HW170452   5.142  10.438   5.175
56185SOL    HW270453   5.061  10.361   5.072
56186SOL     OW70454  11.894   0.961   1.270
56186SOL    HW170455  11.861   0.938   1.183
56186SOL    HW270456  11.873   0.885   1.324
56187SOL     OW70457   0.631  13.898   8.525
56187SOL    HW170458   0.668  13.946   8.451
56187SOL    HW270459   0.692  13.825   8.538
56188SOL     OW70460   6.007   9.085   7.322
56188SOL    HW170461   6.041   9.160   7.371
56188SOL    HW270462   6.072   9.069   7.254
56189SOL     OW70463   7.629   4.052  13.678
56189SOL    HW170464   7.672   4.090  13.601
56189SOL    HW270465   7.675   3.969  13.692
56190SOL     OW70466  10.673   2.840  11.071
56190SOL    HW170467  10.591   2.794  11.087
56190SOL    HW270468  10.664   2.873  10.981
56191SOL     OW70469  11.997  11.254   5.414
56191SOL    HW170470  12.011  11.317   5.343
56191SOL    HW270471  11.949  11.183   5.373
56192SOL     OW70472   3.406  13.865   0.032
56192SOL    HW170473   3.386  13.798  14.838
56192SOL    HW270474   3.399  13.948  14.857
56193SOL     OW70475   4.541  12.865   4.045
56193SOL    HW170476   4.552  12.839   3.954
56193SOL    HW270477   4.501  12.952   4.040
56194SOL     OW70478  14.236   2.537   9.187
56194SOL    HW170479  14.248   2.476   9.260
56194SOL    HW270480  14.200   2.616   9.227
56195SOL     OW70481   0.297  12.143   4.601
56195SOL    HW170482   0.360  12.110   4.537
56195SOL    HW270483   0.232  12.190   4.550
56196SOL     OW70484   8.789   2.652  14.652
56196SOL    HW170485   8.834   2.726  14.693
56196SOL    HW270486   8.710   2.690  14.614
56197SOL     OW70487  11.162  12.488   1.853
56197SOL    HW170488  11.170  12.523   1.765
56197SOL    HW270489  11.216  12.545   1.908
56198SOL     OW70490  10.793   5.135   1.026
56198SOL    HW170491  10.781   5.074   0.954
56198SOL    HW270492  10.709   5.137   1.071
56199SOL     OW70493   5.905   4.371   0.166
56199SOL    HW170494   5.836   4.416   0.116
56199SOL    HW270495   5.973   4.353   0.101
56200SOL     OW70496  13.438  11.047   7.467
56200SOL    HW170497  13.419  11.080   7.380
56200SOL    HW270498  13.409  10.955   7.465
56201SOL     OW70499   3.558  12.830   9.385
56201SOL    HW170500   3.608  12.837   9.466
56201SOL    HW270501   3.622  12.846   9.316
56202SOL     OW70502   4.791   3.581  12.242
56202SOL    HW170503   4.781   3.553  12.151
56202SOL    HW270504   4.788   3.677  12.239
56203SOL     OW70505   3.894  14.348   8.280
56203SOL    HW170506   3.815  14.387   8.243
56203SOL    HW270507   3.936  14.420   8.328
56204SOL     OW70508  11.978  11.388   1.099
56204SOL    HW170509  12.019  11.303   1.084
56204SOL    HW270510  11.912  11.372   1.166
56205SOL     OW70511   7.653  14.645   3.077
56205SOL    HW170512   7.616  14.600   3.153
56205SOL    HW270513   7.737  14.679   3.108
56206SOL     OW70514   5.112   5.320   9.514
56206SOL    HW170515   5.175   5.368   9.460
56206SOL    HW270516   5.116   5.363   9.599
56207SOL     OW70517   3.396   9.369   6.744
56207SOL    HW170518   3.432   9.374   6.833
56207SOL    HW270519   3.470   9.341   6.690
56208SOL     OW70520   1.639  11.073  13.706
56208SOL    HW170521   1.574  11.140  13.727
56208SOL    HW270522   1.657  11.030  13.790
56209SOL     OW70523   1.776  11.451   2.743
56209SOL    HW170524   1.740  11.369   2.710
56209SOL    HW270525   1.766  11.513   2.671
56210SOL     OW70526   5.806   4.127   3.651
56210SOL    HW170527   5.801   4.033   3.636
56210SOL    HW270528   5.848   4.162   3.572
56211SOL     OW70529  11.980   2.733   8.995
56211SOL    HW170530  12.005   2.746   8.904
56211SOL    HW270531  12.062   2.716   9.041
56212SOL     OW70532  14.095   0.412  11.867
56212SOL    HW170533  14.164   0.394  11.803
56212SOL    HW270534  14.100   0.340  11.929
56213SOL     OW70535  14.275   4.117   5.720
56213SOL    HW170536  14.298   4.031   5.755
56213SOL    HW270537  14.355   4.147   5.677
56214SOL     OW70538   8.492  11.379  14.144
56214SOL    HW170539   8.541  11.352  14.222
56214SOL    HW270540   8.402  11.392  14.176
56215SOL     OW70541   4.796   3.772   9.693
56215SOL    HW170542   4.797   3.688   9.739
56215SOL    HW270543   4.713   3.772   9.644
56216SOL     OW70544   6.200   9.062  13.761
56216SOL    HW170545   6.193   9.155  13.781
56216SOL    HW270546   6.232   9.022  13.842
56217SOL     OW70547   4.379   3.759   6.746
56217SOL    HW170548   4.429   3.807   6.811
56217SOL    HW270549   4.433   3.760   6.667
56218SOL     OW70550   8.173  10.298   5.985
56218SOL    HW170551   8.109  10.229   6.001
56218SOL    HW270552   8.257  10.252   5.978
56219SOL     OW70553  12.180  14.336   5.312
56219SOL    HW170554  12.129  14.331   5.231
56219SOL    HW270555  12.167  14.425   5.343
56220SOL     OW70556   9.575  13.895  12.933
56220SOL    HW170557   9.485  13.911  12.962
56220SOL    HW270558   9.621  13.868  13.013
56221SOL     OW70559  12.956   2.807   0.522
56221SOL    HW170560  12.961   2.865   0.445
56221SOL    HW270561  12.914   2.728   0.489
56222SOL     OW70562   1.613   4.495   9.171
56222SOL    HW170563   1.600   4.445   9.252
56222SOL    HW270564   1.704   4.522   9.174
56223SOL     OW70565   2.468   4.384   1.497
56223SOL    HW170566   2.415   4.460   1.471
56223SOL    HW270567   2.406   4.327   1.543
56224SOL     OW70568   8.839  12.568  12.959
56224SOL    HW170569   8.783  12.641  12.934
56224SOL    HW270570   8.924  12.608  12.978
56225SOL     OW70571   9.301  14.473   7.341
56225SOL    HW170572   9.273  14.563   7.357
56225SOL    HW270573   9.332  14.442   7.426
56226SOL     OW70574  13.711   8.513   5.760
56226SOL    HW170575  13.756   8.539   5.680
56226SOL    HW270576  13.776   8.524   5.829
56227SOL     OW70577   8.590  12.761  12.568
56227SOL    HW170578   8.617  12.814  12.493
56227SOL    HW270579   8.514  12.711  12.537
56228SOL     OW70580  14.025   9.523   7.629
56228SOL    HW170581  13.931   9.530   7.614
56228SOL    HW270582  14.064   9.577   7.560
56229SOL     OW70583   6.381   2.964   3.775
56229SOL    HW170584   6.343   2.889   3.820
56229SOL    HW270585   6.307   3.023   3.759
56230SOL     OW70586   5.164   8.268   3.464
56230SOL    HW170587   5.128   8.351   3.496
56230SOL    HW270588   5.090   8.207   3.466
56231SOL     OW70589  14.266  12.230  13.758
56231SOL    HW170590  14.231  12.149  13.796
56231SOL    HW270591  14.264  12.215  13.664
56232SOL     OW70592   8.409   3.656  11.407
56232SOL    HW170593   8.408   3.568  11.369
56232SOL    HW270594   8.385   3.714  11.335
56233SOL     OW70595   7.039  10.813  14.638
56233SOL    HW170596   7.061  10.721  14.651
56233SOL    HW270597   6.995  10.839  14.719
56234SOL     OW70598  13.111  13.162   3.134
56234SOL    HW170599  13.100  13.206   3.218
56234SOL    HW270600  13.196  13.118   3.141
56235SOL     OW70601   5.770   8.780  10.306
56235SOL    HW170602   5.794   8.731  10.228
56235SOL    HW270603   5.687   8.742  10.334
56236SOL     OW70604  14.834   1.794  13.463
56236SOL    HW170605  14.751   1.837  13.441
56236SOL    HW270606  14.818   1.754  13.548
56237SOL     OW70607   8.686   4.025  11.007
56237SOL    HW170608   8.641   4.110  11.012
56237SOL    HW270609   8.735   4.020  11.089
56238SOL     OW70610   6.376   2.427   7.921
56238SOL    HW170611   6.283   2.450   7.925
56238SOL    HW270612   6.394   2.385   8.005
56239SOL     OW70613   2.964  14.576  14.567
56239SOL    HW170614   2.929  14.513  14.630
56239SOL    HW270615   2.886  14.616  14.528
56240SOL     OW70616   5.288  13.534   6.149
56240SOL    HW170617   5.372  13.530   6.194
56240SOL    HW270618   5.304  13.494   6.064
56241SOL     OW70619   9.179  14.442  10.915
56241SOL    HW170620   9.249  14.383  10.941
56241SOL    HW270621   9.199  14.525  10.959
56242SOL     OW70622  14.625  10.818  11.383
56242SOL    HW170623  14.650  10.826  11.475
56242SOL    HW270624  14.680  10.747  11.350
56243SOL     OW70625  14.436   3.683  13.610
56243SOL    HW170626  14.358   3.712  13.562
56243SOL    HW270627  14.446   3.591  13.585
56244SOL     OW70628   7.604   7.111  13.030
56244SOL    HW170629   7.578   7.047  12.963
56244SOL    HW270630   7.654   7.061  13.094
56245SOL     OW70631   8.756  14.820  11.049
56245SOL    HW170632   8.685  14.776  11.002
56245SOL    HW270633   8.836  14.780  11.015
56246SOL     OW70634   7.325  10.093  10.952
56246SOL    HW170635   7.398  10.056  11.002
56246SOL    HW270636   7.251  10.091  11.013
56247SOL     OW70637   4.881   1.886   6.550
56247SOL    HW170638   4.885   1.819   6.618
56247SOL    HW270639   4.973   1.903   6.527
56248SOL     OW70640  13.022   7.417  14.297
56248SOL    HW170641  12.971   7.466  14.361
56248SOL    HW270642  13.101   7.391  14.344
56249SOL     OW70643   7.510   5.970   5.715
56249SOL    HW170644   7.512   5.980   5.810
56249SOL    HW270645   7.560   6.044   5.681
56250SOL     OW70646  12.830   7.024   9.051
56250SOL    HW170647  12.853   6.931   9.045
56250SOL    HW270648  12.775   7.031   9.129
56251SOL     OW70649   2.871   7.044   6.520
56251SOL    HW170650   2.862   6.948   6.516
56251SOL    HW270651   2.936   7.065   6.453
56252SOL     OW70652   2.630   1.203   3.515
56252SOL    HW170653   2.693   1.134   3.495
56252SOL    HW270654   2.661   1.279   3.466
56253SOL     OW70655  14.532  13.213  13.873
56253SOL    HW170656  14.560  13.300  13.903
56253SOL    HW270657  14.477  13.180  13.944
56254SOL     OW70658   2.323  11.546  10.157
56254SOL    HW170659   2.368  11.463  10.145
56254SOL    HW270660   2.387  11.612  10.129
56255SOL     OW70661  10.916  10.045  10.238
56255SOL    HW170662  11.010  10.055  10.255
56255SOL    HW270663  10.873  10.077  10.317
56256SOL     OW70664   3.358   5.820   9.827
56256SOL    HW170665   3.330   5.758   9.759
56256SOL    HW270666   3.316   5.903   9.802
56257SOL     OW70667   6.556  11.926   4.018
56257SOL    HW170668   6.490  11.918   4.088
56257SOL    HW270669   6.639  11.928   4.065
56258SOL     OW70670   9.129   4.156   5.849
56258SOL    HW170671   9.197   4.097   5.816
56258SOL    HW270672   9.096   4.112   5.928
56259SOL     OW70673   7.590  12.405   9.378
56259SOL    HW170674   7.550  12.480   9.333
56259SOL    HW270675   7.682  12.408   9.352
56260SOL     OW70676   5.735   8.974  12.059
56260SOL    HW170677   5.726   9.045  12.123
56260SOL    HW270678   5.646   8.959  12.027
56261SOL     OW70679   0.573  12.025  14.219
56261SOL    HW170680   0.536  12.111  14.199
56261SOL    HW270681   0.508  11.984  14.276
56262SOL     OW70682   8.073   6.200   0.218
56262SOL    HW170683   8.031   6.231   0.299
56262SOL    HW270684   8.059   6.105   0.219
56263SOL     OW70685   7.552   2.569   2.719
56263SOL    HW170686   7.547   2.650   2.769
56263SOL    HW270687   7.564   2.501   2.786
56264SOL     OW70688   5.915   6.724  12.793
56264SOL    HW170689   6.010   6.735  12.796
56264SOL    HW270690   5.881   6.813  12.779
56265SOL     OW70691  10.091   0.038   1.929
56265SOL    HW170692  10.023   0.070   1.988
56265SOL    HW270693  10.057  14.827   1.895
56266SOL     OW70694   8.655  11.109  11.593
56266SOL    HW170695   8.638  11.165  11.668
56266SOL    HW270696   8.658  11.020  11.629
56267SOL     OW70697   4.812  11.167   8.327
56267SOL    HW170698   4.799  11.084   8.282
56267SOL    HW270699   4.835  11.143   8.416
56268SOL     OW70700  12.162  14.638   4.191
56268SOL    HW170701  12.076  14.680   4.181
56268SOL    HW270702  12.218  14.707   4.227
56269SOL     OW70703   9.183  13.453   4.558
56269SOL    HW170704   9.244  13.527   4.564
56269SOL    HW270705   9.237  13.381   4.525
56270SOL     OW70706  12.337   1.379  14.265
56270SOL    HW170707  12.269   1.400  14.329
56270SOL    HW270708  12.355   1.286  14.279
56271SOL     OW70709   2.075  13.937   7.009
56271SOL    HW170710   2.011  14.009   7.007
56271SOL    HW270711   2.080  13.913   7.102
56272SOL     OW70712  13.198   2.390   5.729
56272SOL    HW170713  13.172   2.327   5.662
56272SOL    HW270714  13.273   2.437   5.690
56273SOL     OW70715   2.332  11.534   1.435
56273SOL    HW170716   2.377  11.518   1.518
56273SOL    HW270717   2.346  11.454   1.384
56274SOL     OW70718   1.427   3.969   3.697
56274SOL    HW170719   1.495   4.035   3.681
56274SOL    HW270720   1.363   3.983   3.627
56275SOL     OW70721   1.938   6.437  12.144
56275SOL    HW170722   1.986   6.518  12.125
56275SOL    HW270723   1.856   6.447  12.096
56276SOL     OW70724   0.856   5.253   0.176
56276SOL    HW170725   0.950   5.235   0.179
56276SOL    HW270726   0.850   5.348   0.163
56277SOL     OW70727   0.820  14.122   7.448
56277SOL    HW170728   0.863  14.046   7.485
56277SOL    HW270729   0.878  14.195   7.468
56278SOL     OW70730  14.566   8.303  12.728
56278SOL    HW170731  14.503   8.353  12.676
56278SOL    HW270732  14.563   8.215  12.691
56279SOL     OW70733   1.502  11.338   8.624
56279SOL    HW170734   1.524  11.382   8.707
56279SOL    HW270735   1.433  11.393   8.586
56280SOL     OW70736   7.081  14.154   4.032
56280SOL    HW170737   7.001  14.104   4.047
56280SOL    HW270738   7.083  14.217   4.104
56281SOL     OW70739   2.226   9.777  13.522
56281SOL    HW170740   2.171   9.817  13.455
56281SOL    HW270741   2.287   9.722  13.474
56282SOL     OW70742   8.854   3.338   6.977
56282SOL    HW170743   8.811   3.410   6.931
56282SOL    HW270744   8.876   3.275   6.909
56283SOL     OW70745   1.817   0.957  13.189
56283SOL    HW170746   1.822   0.896  13.263
56283SOL    HW270747   1.727   0.948  13.157
56284SOL     OW70748   2.817   3.632   6.046
56284SOL    HW170749   2.761   3.554   6.058
56284SOL    HW270750   2.824   3.670   6.133
56285SOL     OW70751  13.176  12.577   8.409
56285SOL    HW170752  13.168  12.550   8.500
56285SOL    HW270753  13.271  12.573   8.391
56286SOL     OW70754   9.570   9.012   5.859
56286SOL    HW170755   9.547   9.098   5.825
56286SOL    HW270756   9.571   8.955   5.782
56287SOL     OW70757   3.996   9.526  13.661
56287SOL    HW170758   4.020   9.449  13.611
56287SOL    HW270759   3.983   9.493  13.750
56288SOL     OW70760  14.247   8.236   3.851
56288SOL    HW170761  14.176   8.172   3.852
56288SOL    HW270762  14.326   8.185   3.838
56289SOL     OW70763  12.152   6.819   2.967
56289SOL    HW170764  12.247   6.820   2.977
56289SOL    HW270765  12.127   6.912   2.970
56290SOL     OW70766   4.813  10.338   5.937
56290SOL    HW170767   4.823  10.292   6.020
56290SOL    HW270768   4.733  10.390   5.948
56291SOL     OW70769  12.645  13.542   4.693
56291SOL    HW170770  12.612  13.516   4.607
56291SOL    HW270771  12.737  13.516   4.692
56292SOL     OW70772   6.269   7.970  10.480
56292SOL    HW170773   6.235   7.996  10.566
56292SOL    HW270774   6.323   8.044  10.452
56293SOL     OW70775   8.374   3.376   6.081
56293SOL    HW170776   8.280   3.361   6.074
56293SOL    HW270777   8.382   3.442   6.150
56294SOL     OW70778  10.603   5.817  10.908
56294SOL    HW170779  10.507   5.818  10.903
56294SOL    HW270780  10.630   5.892  10.855
56295SOL     OW70781   8.718  14.036  11.592
56295SOL    HW170782   8.634  13.994  11.609
56295SOL    HW270783   8.744  14.073  11.676
56296SOL     OW70784   8.622  11.330   0.650
56296SOL    HW170785   8.538  11.283   0.649
56296SOL    HW270786   8.665  11.299   0.729
56297SOL     OW70787   3.798   4.246  10.600
56297SOL    HW170788   3.704   4.247  10.583
56297SOL    HW270789   3.814   4.327  10.648
56298SOL     OW70790   0.895   4.148  12.791
56298SOL    HW170791   0.909   4.225  12.736
56298SOL    HW270792   0.802   4.151  12.812
56299SOL     OW70793  13.264  11.578   3.379
56299SOL    HW170794  13.192  11.539   3.428
56299SOL    HW270795  13.240  11.566   3.287
56300SOL     OW70796   6.403  10.442   7.249
56300SOL    HW170797   6.351  10.380   7.300
56300SOL    HW270798   6.438  10.503   7.314
56301SOL     OW70799  12.026   9.750  11.211
56301SOL    HW170800  12.090   9.684  11.186
56301SOL    HW270801  11.999   9.726  11.299
56302SOL     OW70802   8.648   0.898  12.577
56302SOL    HW170803   8.713   0.919  12.510
56302SOL    HW270804   8.677   0.815  12.614
56303SOL     OW70805  13.180  14.398   7.467
56303SOL    HW170806  13.109  14.349   7.508
56303SOL    HW270807  13.182  14.481   7.514
56304SOL     OW70808   3.630  14.862  13.783
56304SOL    HW170809   3.664   0.054  13.844
56304SOL    HW270810   3.613  14.784  13.836
56305SOL     OW70811   6.158   1.192  13.318
56305SOL    HW170812   6.205   1.257  13.266
56305SOL    HW270813   6.067   1.202  13.294
56306SOL     OW70814   1.295   8.778   4.135
56306SOL    HW170815   1.229   8.825   4.083
56306SOL    HW270816   1.294   8.689   4.100
56307SOL     OW70817   9.329  13.553  14.466
56307SOL    HW170818   9.311  13.459  14.475
56307SOL    HW270819   9.244  13.591  14.441
56308SOL     OW70820  10.554   2.058   6.362
56308SOL    HW170821  10.625   2.106   6.320
56308SOL    HW270822  10.542   1.980   6.309
56309SOL     OW70823   1.775   4.007   0.981
56309SOL    HW170824   1.718   3.942   1.021
56309SOL    HW270825   1.862   3.968   0.982
56310SOL     OW70826  14.684   3.653   7.372
56310SOL    HW170827  14.715   3.639   7.283
56310SOL    HW270828  14.675   3.564   7.408
56311SOL     OW70829   5.638   7.373  14.797
56311SOL    HW170830   5.646   7.283  14.829
56311SOL    HW270831   5.707   7.421  14.844
56312SOL     OW70832  13.929   3.405   1.141
56312SOL    HW170833  13.963   3.469   1.204
56312SOL    HW270834  13.993   3.405   1.070
56313SOL     OW70835   4.496  11.166   9.166
56313SOL    HW170836   4.507  11.254   9.129
56313SOL    HW270837   4.415  11.171   9.217
56314SOL     OW70838   9.077   2.885   0.739
56314SOL    HW170839   9.041   2.921   0.820
56314SOL    HW270840   9.138   2.952   0.708
56315SOL     OW70841   2.338   3.151   4.106
56315SOL    HW170842   2.334   3.229   4.161
56315SOL    HW270843   2.280   3.171   4.032
56316SOL     OW70844   0.853   4.102  11.977
56316SOL    HW170845   0.902   4.026  11.945
56316SOL    HW270846   0.773   4.064  12.013
56317SOL     OW70847   9.947   2.964   7.835
56317SOL    HW170848   9.897   2.938   7.757
56317SOL    HW270849   9.905   3.045   7.864
56318SOL     OW70850   5.339  13.471   4.261
56318SOL    HW170851   5.282  13.439   4.331
56318SOL    HW270852   5.353  13.563   4.282
56319SOL     OW70853   0.795   8.898   2.145
56319SOL    HW170854   0.848   8.819   2.155
56319SOL    HW270855   0.792   8.913   2.051
56320SOL     OW70856   1.139   5.999   4.045
56320SOL    HW170857   1.109   6.047   3.968
56320SOL    HW270858   1.223   6.039   4.067
56321SOL     OW70859   1.804   3.449  13.395
56321SOL    HW170860   1.765   3.533  13.419
56321SOL    HW270861   1.898   3.466  13.394
56322SOL     OW70862  13.918   4.545   4.696
56322SOL    HW170863  13.877   4.459   4.701
56322SOL    HW270864  13.959   4.547   4.609
56323SOL     OW70865   6.271   9.930   0.509
56323SOL    HW170866   6.305   9.841   0.523
56323SOL    HW270867   6.339   9.973   0.457
56324SOL     OW70868   4.173  14.704  14.485
56324SOL    HW170869   4.146  14.733  14.398
56324SOL    HW270870   4.104  14.644  14.513
56325SOL     OW70871   8.970  13.759   8.603
56325SOL    HW170872   8.999  13.672   8.575
56325SOL    HW270873   8.928  13.796   8.526
56326SOL     OW70874   2.950   0.430   8.078
56326SOL    HW170875   2.931   0.392   8.164
56326SOL    HW270876   2.874   0.406   8.024
56327SOL     OW70877   4.215   7.715   9.310
56327SOL    HW170878   4.133   7.667   9.295
56327SOL    HW270879   4.217   7.731   9.404
56328SOL     OW70880   8.605   0.425   8.852
56328SOL    HW170881   8.624   0.445   8.761
56328SOL    HW270882   8.671   0.360   8.877
56329SOL     OW70883   1.835  11.953   9.738
56329SOL    HW170884   1.907  11.963   9.675
56329SOL    HW270885   1.863  12.002   9.815
56330SOL     OW70886   5.361   4.214  12.564
56330SOL    HW170887   5.334   4.167  12.486
56330SOL    HW270888   5.453   4.189  12.576
56331SOL     OW70889   0.203   2.059  14.626
56331SOL    HW170890   0.277   2.118  14.636
56331SOL    HW270891   0.221   2.012  14.544
56332SOL     OW70892   7.938   2.577   1.031
56332SOL    HW170893   7.987   2.547   1.108
56332SOL    HW270894   7.971   2.665   1.014
56333SOL     OW70895  14.706   3.752   3.106
56333SOL    HW170896  14.713   3.745   3.011
56333SOL    HW270897  14.681   3.665   3.135
56334SOL     OW70898   4.819  11.232   3.512
56334SOL    HW170899   4.837  11.209   3.421
56334SOL    HW270900   4.787  11.322   3.508
56335SOL     OW70901  12.620   1.495   8.624
56335SOL    HW170902  12.568   1.420   8.596
56335SOL    HW270903  12.558   1.554   8.667
56336SOL     OW70904   5.751   2.990   1.401
56336SOL    HW170905   5.750   2.922   1.334
56336SOL    HW270906   5.814   2.959   1.466
56337SOL     OW70907  11.011   8.554  10.695
56337SOL    HW170908  10.930   8.508  10.675
56337SOL    HW270909  11.007   8.570  10.789
56338SOL     OW70910   0.917  13.656  14.614
56338SOL    HW170911   0.833  13.669  14.658
56338SOL    HW270912   0.982  13.677  14.681
56339SOL     OW70913  14.796   4.419  10.678
56339SOL    HW170914  14.807   4.461  10.763
56339SOL    HW270915  14.767   4.330  10.699
56340SOL     OW70916  13.145  13.175   1.608
56340SOL    HW170917  13.152  13.168   1.513
56340SOL    HW270918  13.087  13.251   1.622
56341SOL     OW70919   9.569  13.059  11.613
56341SOL    HW170920   9.621  12.985  11.643
56341SOL    HW270921   9.478  13.030  11.621
56342SOL     OW70922   4.269   3.594   9.415
56342SOL    HW170923   4.295   3.592   9.507
56342SOL    HW270924   4.350   3.583   9.366
56343SOL     OW70925   7.803   0.594   9.677
56343SOL    HW170926   7.741   0.533   9.635
56343SOL    HW270927   7.801   0.568   9.770
56344SOL     OW70928  13.685  12.665   5.772
56344SOL    HW170929  13.610  12.713   5.738
56344SOL    HW270930  13.741  12.651   5.696
56345SOL     OW70931  14.509   3.878   2.367
56345SOL    HW170932  14.581   3.940   2.372
56345SOL    HW270933  14.430   3.932   2.358
56346SOL     OW70934   4.296   3.722   0.325
56346SOL    HW170935   4.353   3.652   0.357
56346SOL    HW270936   4.236   3.740   0.397
56347SOL     OW70937   7.791   6.072  11.063
56347SOL    HW170938   7.741   6.149  11.034
56347SOL    HW270939   7.798   6.017  10.984
56348SOL     OW70940   8.223   7.869   3.045
56348SOL    HW170941   8.228   7.913   2.959
56348SOL    HW270942   8.219   7.941   3.108
56349SOL     OW70943   5.274   6.276   8.052
56349SOL    HW170944   5.279   6.294   8.146
56349SOL    HW270945   5.353   6.318   8.016
56350SOL     OW70946   4.659   4.773  10.151
56350SOL    HW170947   4.634   4.773  10.059
56350SOL    HW270948   4.597   4.714  10.193
56351SOL     OW70949  13.903   6.840   8.549
56351SOL    HW170950  13.872   6.826   8.460
56351SOL    HW270951  13.841   6.793   8.605
56352SOL     OW70952   5.119   7.214   8.639
56352SOL    HW170953   5.120   7.132   8.589
56352SOL    HW270954   5.034   7.214   8.683
56353SOL     OW70955   6.709  11.134   7.167
56353SOL    HW170956   6.756  11.091   7.095
56353SOL    HW270957   6.620  11.144   7.135
56354SOL     OW70958  14.249  12.347   9.258
56354SOL    HW170959  14.282  12.360   9.347
56354SOL    HW270960  14.154  12.337   9.269
56355SOL     OW70961   9.719   6.670   9.761
56355SOL    HW170962   9.652   6.655   9.695
56355SOL    HW270963   9.693   6.615   9.835
56356SOL     OW70964   5.485   5.079   2.687
56356SOL    HW170965   5.437   5.044   2.611
56356SOL    HW270966   5.417   5.115   2.744
56357SOL     OW70967   5.181   1.903   1.107
56357SOL    HW170968   5.155   1.995   1.108
56357SOL    HW270969   5.197   1.882   1.199
56358SOL     OW70970   9.852  14.530  12.572
56358SOL    HW170971   9.945  14.553  12.566
56358SOL    HW270972   9.852  14.442  12.609
56359SOL     OW70973   5.525   1.836  14.821
56359SOL    HW170974   5.567   1.896   0.010
56359SOL    HW270975   5.543   1.749  14.856
56360SOL     OW70976   9.130  11.806   4.717
56360SOL    HW170977   9.209  11.783   4.766
56360SOL    HW270978   9.127  11.902   4.719
56361SOL     OW70979   0.231   6.581  10.211
56361SOL    HW170980   0.211   6.652  10.150
56361SOL    HW270981   0.148   6.536  10.224
56362SOL     OW70982   0.235   4.603   2.173
56362SOL    HW170983   0.262   4.647   2.254
56362SOL    HW270984   0.162   4.548   2.199
56363SOL     OW70985   6.319   0.591   8.823
56363SOL    HW170986   6.287   0.501   8.813
56363SOL    HW270987   6.264   0.643   8.765
56364SOL     OW70988   9.153   1.817   2.980
56364SOL    HW170989   9.109   1.766   2.912
56364SOL    HW270990   9.104   1.899   2.984
56365SOL     OW70991   8.455   8.739   2.099
56365SOL    HW170992   8.514   8.706   2.166
56365SOL    HW270993   8.442   8.831   2.121
56366SOL     OW70994   0.322   7.134   8.769
56366SOL    HW170995   0.378   7.192   8.820
56366SOL    HW270996   0.261   7.192   8.723
56367SOL     OW70997   8.883  12.263   7.820
56367SOL    HW170998   8.820  12.335   7.827
56367SOL    HW270999   8.909  12.244   7.910
56368SOL     OW71000   7.415   7.401  12.073
56368SOL    HW171001   7.487   7.464  12.064
56368SOL    HW271002   7.376   7.421  12.158
56369SOL     OW71003  11.060  10.087   3.333
56369SOL    HW171004  11.002  10.088   3.410
56369SOL    HW271005  11.129  10.025   3.356
56370SOL     OW71006   9.184  12.155   7.863
56370SOL    HW171007   9.221  12.188   7.945
56370SOL    HW271008   9.175  12.061   7.878
56371SOL     OW71009  11.481  12.052   7.034
56371SOL    HW171010  11.466  12.000   6.955
56371SOL    HW271011  11.576  12.048   7.048
56372SOL     OW71012   9.013   3.046  14.564
56372SOL    HW171013   9.008   3.141  14.573
56372SOL    HW271014   9.014   3.031  14.470
56373SOL     OW71015  13.236   7.172   1.860
56373SOL    HW171016  13.273   7.183   1.948
56373SOL    HW271017  13.204   7.259   1.836
56374SOL     OW71018   1.855  14.859  10.325
56374SOL    HW171019   1.895  14.867  10.412
56374SOL    HW271020   1.773   0.037  10.332
56375SOL     OW71021   8.666  12.706   1.281
56375SOL    HW171022   8.626  12.668   1.360
56375SOL    HW271023   8.595  12.756   1.241
56376SOL     OW71024  11.431  13.773  10.863
56376SOL    HW171025  11.399  13.792  10.951
56376SOL    HW271026  11.495  13.702  10.876
56377SOL     OW71027   0.715   0.248   4.406
56377SOL    HW171028   0.707   0.203   4.490
56377SOL    HW271029   0.801   0.290   4.409
56378SOL     OW71030   0.410   4.817   3.069
56378SOL    HW171031   0.425   4.910   3.084
56378SOL    HW271032   0.439   4.802   2.979
56379SOL     OW71033   3.619  12.569   8.010
56379SOL    HW171034   3.665  12.593   8.091
56379SOL    HW271035   3.560  12.498   8.036
56380SOL     OW71036  14.353   3.324   7.856
56380SOL    HW171037  14.415   3.303   7.925
56380SOL    HW271038  14.303   3.398   7.890
56381SOL     OW71039  13.878  10.569   5.206
56381SOL    HW171040  13.964  10.578   5.246
56381SOL    HW271041  13.854  10.478   5.220
56382SOL     OW71042   2.623   1.378   8.500
56382SOL    HW171043   2.528   1.361   8.499
56382SOL    HW271044   2.645   1.394   8.408
56383SOL     OW71045  10.728   2.108   1.323
56383SOL    HW171046  10.701   2.019   1.345
56383SOL    HW271047  10.672   2.165   1.376
56384SOL     OW71048  11.993   7.803   0.131
56384SOL    HW171049  12.006   7.717   0.170
56384SOL    HW271050  11.975   7.786   0.039
56385SOL     OW71051   4.777   1.743  11.417
56385SOL    HW171052   4.768   1.665  11.472
56385SOL    HW271053   4.728   1.811  11.463
56386SOL     OW71054   4.735   3.752  13.632
56386SOL    HW171055   4.750   3.764  13.539
56386SOL    HW271056   4.657   3.696  13.637
56387SOL     OW71057   7.921   4.433  11.909
56387SOL    HW171058   7.971   4.375  11.966
56387SOL    HW271059   7.985   4.471  11.850
56388SOL     OW71060  11.678   9.562  10.019
56388SOL    HW171061  11.683   9.607  10.104
56388SOL    HW271062  11.745   9.605   9.966
56389SOL     OW71063   1.283  14.653  14.024
56389SOL    HW171064   1.207  14.658  13.966
56389SOL    HW271065   1.331  14.734  14.008
56390SOL     OW71066   4.233   8.326  11.653
56390SOL    HW171067   4.289   8.399  11.678
56390SOL    HW271068   4.222   8.276  11.733
56391SOL     OW71069  12.991  12.958   2.957
56391SOL    HW171070  13.076  12.987   2.924
56391SOL    HW271071  12.969  13.021   3.025
56392SOL     OW71072  10.934   5.947   4.317
56392SOL    HW171073  10.922   6.021   4.257
56392SOL    HW271074  11.019   5.911   4.292
56393SOL     OW71075   5.623  13.032  13.603
56393SOL    HW171076   5.698  13.091  13.594
56393SOL    HW271077   5.598  13.011  13.513
56394SOL     OW71078  14.682   4.490   4.153
56394SOL    HW171079  14.764   4.538   4.138
56394SOL    HW271080  14.615   4.558   4.153
56395SOL     OW71081  11.855   3.218  10.015
56395SOL    HW171082  11.788   3.248   9.954
56395SOL    HW271083  11.923   3.286  10.012
56396SOL     OW71084  12.137   1.655   8.372
56396SOL    HW171085  12.177   1.707   8.442
56396SOL    HW271086  12.172   1.694   8.291
56397SOL     OW71087   4.721   7.542   9.786
56397SOL    HW171088   4.753   7.496   9.708
56397SOL    HW271089   4.769   7.501   9.859
56398SOL     OW71090  11.187   8.459  11.766
56398SOL    HW171091  11.243   8.388  11.734
56398SOL    HW271092  11.194   8.527  11.699
56399SOL     OW71093   5.326   1.764  13.347
56399SOL    HW171094   5.253   1.817  13.379
56399SOL    HW271095   5.349   1.803  13.262
56400SOL     OW71096   6.450   5.890   6.789
56400SOL    HW171097   6.469   5.928   6.704
56400SOL    HW271098   6.481   5.955   6.852
56401SOL     OW71099   3.027   6.196   4.372
56401SOL    HW171100   3.060   6.208   4.283
56401SOL    HW271101   2.933   6.180   4.360
56402SOL     OW71102   9.850   7.806   2.054
56402SOL    HW171103   9.915   7.863   2.012
56402SOL    HW271104   9.778   7.865   2.077
56403SOL     OW71105   8.054   7.149   5.003
56403SOL    HW171106   8.093   7.189   5.081
56403SOL    HW271107   8.009   7.071   5.035
56404SOL     OW71108  12.854   6.125   8.841
56404SOL    HW171109  12.806   6.045   8.866
56404SOL    HW271110  12.795   6.170   8.781
56405SOL     OW71111   6.212   1.649  10.605
56405SOL    HW171112   6.237   1.722  10.663
56405SOL    HW271113   6.165   1.691  10.533
56406SOL     OW71114  10.509  11.695  14.745
56406SOL    HW171115  10.450  11.623  14.769
56406SOL    HW271116  10.596  11.661  14.761
56407SOL     OW71117   4.587  10.425   0.356
56407SOL    HW171118   4.609  10.407   0.265
56407SOL    HW271119   4.615  10.347   0.404
56408SOL     OW71120   2.884  11.877   3.831
56408SOL    HW171121   2.817  11.932   3.872
56408SOL    HW271122   2.915  11.929   3.756
56409SOL     OW71123   9.329   2.008   8.202
56409SOL    HW171124   9.365   1.967   8.123
56409SOL    HW271125   9.236   2.021   8.181
56410SOL     OW71126   3.696  12.157   4.437
56410SOL    HW171127   3.784  12.142   4.402
56410SOL    HW271128   3.702  12.131   4.529
56411SOL     OW71129   0.363   9.217   3.473
56411SOL    HW171130   0.427   9.284   3.449
56411SOL    HW271131   0.392   9.139   3.426
56412SOL     OW71132   8.575   3.779   3.295
56412SOL    HW171133   8.660   3.796   3.335
56412SOL    HW271134   8.521   3.744   3.366
56413SOL     OW71135   4.726   1.066   5.797
56413SOL    HW171136   4.775   1.040   5.875
56413SOL    HW271137   4.682   0.985   5.769
56414SOL     OW71138   9.166   7.908  10.454
56414SOL    HW171139   9.080   7.923  10.494
56414SOL    HW271140   9.154   7.931  10.362
56415SOL     OW71141   9.041   1.975   0.183
56415SOL    HW171142   8.956   1.974   0.228
56415SOL    HW271143   9.041   1.896   0.130
56416SOL     OW71144   5.824   9.792   4.718
56416SOL    HW171145   5.913   9.761   4.736
56416SOL    HW271146   5.805   9.760   4.629
56417SOL     OW71147   5.958   3.726  14.834
56417SOL    HW171148   6.009   3.646  14.846
56417SOL    HW271149   5.973   3.777   0.041
56418SOL     OW71150   2.082   9.491  11.619
56418SOL    HW171151   2.006   9.521  11.668
56418SOL    HW271152   2.120   9.570  11.582
56419SOL     OW71153  12.388   2.357   3.318
56419SOL    HW171154  12.444   2.434   3.323
56419SOL    HW271155  12.428   2.303   3.249
56420SOL     OW71156  13.527  12.393   0.589
56420SOL    HW171157  13.578  12.315   0.610
56420SOL    HW271158  13.585  12.447   0.536
56421SOL     OW71159   5.275   8.766   7.622
56421SOL    HW171160   5.248   8.804   7.705
56421SOL    HW271161   5.193   8.752   7.574
56422SOL     OW71162   0.147   9.149   0.318
56422SOL    HW171163   0.169   9.068   0.274
56422SOL    HW271164   0.167   9.218   0.255
56423SOL     OW71165   7.696   4.285   5.869
56423SOL    HW171166   7.643   4.361   5.844
56423SOL    HW271167   7.685   4.278   5.964
56424SOL     OW71168  12.628   3.707   7.298
56424SOL    HW171169  12.538   3.681   7.277
56424SOL    HW271170  12.655   3.645   7.366
56425SOL     OW71171  11.925   9.651   9.893
56425SOL    HW171172  11.927   9.747   9.890
56425SOL    HW271173  11.978   9.628   9.969
56426SOL     OW71174   9.102   4.703   1.766
56426SOL    HW171175   9.151   4.737   1.841
56426SOL    HW271176   9.011   4.729   1.783
56427SOL     OW71177   8.263  13.570   0.086
56427SOL    HW171178   8.344  13.526   0.110
56427SOL    HW271179   8.248  13.633   0.156
56428SOL     OW71180   4.746  11.445   1.848
56428SOL    HW171181   4.729  11.539   1.845
56428SOL    HW271182   4.676  11.409   1.902
56429SOL     OW71183   5.051   0.197   6.122
56429SOL    HW171184   5.097   0.138   6.062
56429SOL    HW271185   4.979   0.144   6.157
56430SOL     OW71186  14.723   3.361   2.389
56430SOL    HW171187  14.783   3.433   2.369
56430SOL    HW271188  14.750   3.331   2.476
56431SOL     OW71189  12.823   0.461   6.840
56431SOL    HW171190  12.872   0.390   6.881
56431SOL    HW271191  12.755   0.416   6.789
56432SOL     OW71192   8.646   2.159   6.742
56432SOL    HW171193   8.556   2.155   6.773
56432SOL    HW271194   8.639   2.165   6.647
56433SOL     OW71195   9.273   9.669   5.707
56433SOL    HW171196   9.349   9.708   5.664
56433SOL    HW271197   9.249   9.595   5.651
56434SOL     OW71198   9.057   3.006   0.145
56434SOL    HW171199   9.140   2.985   0.190
56434SOL    HW271200   8.992   3.005   0.215
56435SOL     OW71201  14.349   5.605   1.826
56435SOL    HW171202  14.299   5.636   1.901
56435SOL    HW271203  14.319   5.515   1.813
56436SOL     OW71204   5.891   3.910  13.366
56436SOL    HW171205   5.906   3.861  13.447
56436SOL    HW271206   5.851   3.846  13.307
56437SOL     OW71207   2.727   6.651   3.316
56437SOL    HW171208   2.748   6.739   3.283
56437SOL    HW271209   2.787   6.593   3.268
56438SOL     OW71210   8.351   2.554   0.671
56438SOL    HW171211   8.430   2.550   0.617
56438SOL    HW271212   8.333   2.463   0.695
56439SOL     OW71213   2.964   9.085   4.474
56439SOL    HW171214   2.971   9.061   4.567
56439SOL    HW271215   2.927   9.006   4.433
56440SOL     OW71216   2.984   9.620   5.039
56440SOL    HW171217   3.044   9.694   5.027
56440SOL    HW271218   2.940   9.611   4.955
56441SOL     OW71219   7.723  10.737   5.294
56441SOL    HW171220   7.672  10.806   5.250
56441SOL    HW271221   7.657  10.680   5.334
56442SOL     OW71222   4.316  13.044   9.027
56442SOL    HW171223   4.286  13.073   8.941
56442SOL    HW271224   4.238  13.049   9.083
56443SOL     OW71225  13.938   5.388   5.935
56443SOL    HW171226  13.938   5.473   5.890
56443SOL    HW271227  13.893   5.329   5.874
56444SOL     OW71228  12.672  13.037   9.351
56444SOL    HW171229  12.736  13.085   9.299
56444SOL    HW271230  12.624  13.104   9.399
56445SOL     OW71231  14.038   4.178   5.635
56445SOL    HW171232  14.126   4.144   5.650
56445SOL    HW271233  14.023   4.238   5.708
56446SOL     OW71234   1.886  13.687   1.304
56446SOL    HW171235   1.849  13.677   1.392
56446SOL    HW271236   1.976  13.653   1.312
56447SOL     OW71237   9.357   1.574   5.522
56447SOL    HW171238   9.351   1.634   5.596
56447SOL    HW271239   9.306   1.498   5.549
56448SOL     OW71240   9.512   0.381   5.433
56448SOL    HW171241   9.525   0.289   5.456
56448SOL    HW271242   9.547   0.388   5.344
56449SOL     OW71243   9.298   3.079   1.769
56449SOL    HW171244   9.250   3.108   1.847
56449SOL    HW271245   9.230   3.048   1.710
56450SOL     OW71246   1.854  13.026  11.154
56450SOL    HW171247   1.920  13.003  11.220
56450SOL    HW271248   1.887  13.107  11.114
56451SOL     OW71249   7.585   8.873  11.647
56451SOL    HW171250   7.553   8.919  11.570
56451SOL    HW271251   7.578   8.780  11.625
56452SOL     OW71252   4.578   6.502   0.519
56452SOL    HW171253   4.628   6.511   0.438
56452SOL    HW271254   4.645   6.482   0.585
56453SOL     OW71255   2.921   0.265  11.931
56453SOL    HW171256   2.934   0.188  11.986
56453SOL    HW271257   2.967   0.244  11.850
56454SOL     OW71258  14.375   8.171   9.920
56454SOL    HW171259  14.348   8.136   9.835
56454SOL    HW271260  14.296   8.166   9.974
56455SOL     OW71261   2.822   8.766   3.822
56455SOL    HW171262   2.822   8.710   3.900
56455SOL    HW271263   2.763   8.722   3.761
56456SOL     OW71264   0.325  11.853  11.531
56456SOL    HW171265   0.413  11.876  11.562
56456SOL    HW271266   0.286  11.937  11.508
56457SOL     OW71267   7.058  11.812  10.210
56457SOL    HW171268   7.153  11.821  10.201
56457SOL    HW271269   7.045  11.725  10.246
56458SOL     OW71270   2.063  14.610   4.622
56458SOL    HW171271   2.152  14.607   4.659
56458SOL    HW271272   2.006  14.615   4.698
56459SOL     OW71273  12.937   3.881   0.521
56459SOL    HW171274  12.908   3.967   0.550
56459SOL    HW271275  12.935   3.826   0.600
56460SOL     OW71276   1.019   1.712  12.722
56460SOL    HW171277   0.986   1.788  12.768
56460SOL    HW271278   1.106   1.697  12.759
56461SOL     OW71279   7.926   2.720   5.602
56461SOL    HW171280   7.920   2.677   5.516
56461SOL    HW271281   7.860   2.676   5.656
56462SOL     OW71282   9.455  10.151  11.655
56462SOL    HW171283   9.496  10.208  11.590
56462SOL    HW271284   9.497  10.066  11.643
56463SOL     OW71285   6.553  13.500   8.476
56463SOL    HW171286   6.614  13.563   8.514
56463SOL    HW271287   6.601  13.417   8.478
56464SOL     OW71288   1.848   3.983  10.456
56464SOL    HW171289   1.938   3.994  10.485
56464SOL    HW271290   1.834   3.888  10.454
56465SOL     OW71291   3.039   4.975   5.851
56465SOL    HW171292   3.057   4.995   5.943
56465SOL    HW271293   3.107   5.020   5.803
56466SOL     OW71294   3.504   8.019  10.154
56466SOL    HW171295   3.554   7.994  10.076
56466SOL    HW271296   3.522   8.112  10.165
56467SOL     OW71297   5.189  14.285  11.459
56467SOL    HW171298   5.169  14.197  11.489
56467SOL    HW271299   5.164  14.285  11.367
56468SOL     OW71300  11.108   7.824   3.962
56468SOL    HW171301  11.148   7.905   3.994
56468SOL    HW271302  11.132   7.759   4.029
56469SOL     OW71303   0.102  13.200   1.601
56469SOL    HW171304   0.095  13.122   1.546
56469SOL    HW271305   0.046  13.265   1.557
56470SOL     OW71306   4.201   5.114   7.660
56470SOL    HW171307   4.164   5.100   7.747
56470SOL    HW271308   4.126   5.133   7.604
56471SOL     OW71309   0.352   6.915  13.125
56471SOL    HW171310   0.431   6.905  13.177
56471SOL    HW271311   0.380   6.963  13.047
56472SOL     OW71312   6.890   9.710   4.275
56472SOL    HW171313   6.857   9.708   4.186
56472SOL    HW271314   6.906   9.618   4.297
56473SOL     OW71315   7.990  13.811   1.002
56473SOL    HW171316   7.951  13.776   1.082
56473SOL    HW271317   8.075  13.845   1.030
56474SOL     OW71318   5.183   0.382   2.172
56474SOL    HW171319   5.246   0.448   2.202
56474SOL    HW271320   5.223   0.345   2.093
56475SOL     OW71321  13.484  13.456  13.484
56475SOL    HW171322  13.536  13.412  13.552
56475SOL    HW271323  13.483  13.548  13.511
56476SOL     OW71324   8.280   7.331   4.868
56476SOL    HW171325   8.239   7.381   4.939
56476SOL    HW271326   8.242   7.243   4.876
56477SOL     OW71327   1.472  13.515   3.020
56477SOL    HW171328   1.411  13.444   3.042
56477SOL    HW271329   1.480  13.511   2.924
56478SOL     OW71330   4.878  10.229   1.287
56478SOL    HW171331   4.917  10.228   1.375
56478SOL    HW271332   4.882  10.138   1.258
56479SOL     OW71333   3.147   6.352   8.984
56479SOL    HW171334   3.218   6.417   8.980
56479SOL    HW271335   3.090   6.374   8.911
56480SOL     OW71336  13.110  12.354   9.780
56480SOL    HW171337  13.025  12.371   9.819
56480SOL    HW271338  13.128  12.430   9.725
56481SOL     OW71339  11.151  10.686   8.467
56481SOL    HW171340  11.121  10.630   8.396
56481SOL    HW271341  11.233  10.646   8.496
56482SOL     OW71342   4.164   5.180  13.533
56482SOL    HW171343   4.195   5.236  13.462
56482SOL    HW271344   4.226   5.194  13.604
56483SOL     OW71345  12.148   6.737  11.646
56483SOL    HW171346  12.147   6.822  11.690
56483SOL    HW271347  12.064   6.734  11.599
56484SOL     OW71348  12.728   8.557  11.617
56484SOL    HW171349  12.678   8.538  11.537
56484SOL    HW271350  12.775   8.475  11.635
56485SOL     OW71351   4.299  13.322   6.538
56485SOL    HW171352   4.353  13.303   6.461
56485SOL    HW271353   4.284  13.416   6.534
56486SOL     OW71354   6.675   6.188   0.926
56486SOL    HW171355   6.641   6.138   0.852
56486SOL    HW271356   6.669   6.279   0.898
56487SOL     OW71357  13.380   7.199   7.795
56487SOL    HW171358  13.391   7.104   7.799
56487SOL    HW271359  13.312   7.219   7.859
56488SOL     OW71360   3.259   5.633   5.821
56488SOL    HW171361   3.215   5.549   5.808
56488SOL    HW271362   3.352   5.611   5.826
56489SOL     OW71363  10.072   8.373   4.366
56489SOL    HW171364  10.001   8.405   4.423
56489SOL    HW271365  10.097   8.448   4.313
56490SOL     OW71366   0.798   7.156   1.410
56490SOL    HW171367   0.891   7.171   1.396
56490SOL    HW271368   0.793   7.068   1.447
56491SOL     OW71369   9.287   0.067  10.913
56491SOL    HW171370   9.300   0.063  10.818
56491SOL    HW271371   9.203   0.111  10.924
56492SOL     OW71372   6.647   9.905  14.210
56492SOL    HW171373   6.655   9.915  14.305
56492SOL    HW271374   6.569   9.956  14.187
56493SOL     OW71375   2.777   4.621  11.145
56493SOL    HW171376   2.696   4.661  11.176
56493SOL    HW271377   2.830   4.694  11.114
56494SOL     OW71378  14.691   5.879   2.476
56494SOL    HW171379  14.606   5.852   2.511
56494SOL    HW271380  14.691   5.846   2.386
56495SOL     OW71381   6.961  12.978  12.845
56495SOL    HW171382   6.995  13.066  12.830
56495SOL    HW271383   6.880  12.991  12.895
56496SOL     OW71384  12.610   4.200   6.899
56496SOL    HW171385  12.578   4.157   6.820
56496SOL    HW271386  12.670   4.137   6.938
56497SOL     OW71387  13.691   3.510  14.126
56497SOL    HW171388  13.689   3.426  14.172
56497SOL    HW271389  13.600   3.539  14.124
56498SOL     OW71390   6.388  13.304   5.533
56498SOL    HW171391   6.469  13.337   5.492
56498SOL    HW271392   6.323  13.372   5.514
56499SOL     OW71393  12.811   2.151  14.626
56499SOL    HW171394  12.761   2.070  14.626
56499SOL    HW271395  12.887   2.133  14.681
56500SOL     OW71396  13.802  13.598   8.940
56500SOL    HW171397  13.724  13.593   8.885
56500SOL    HW271398  13.865  13.540   8.898
56501SOL     OW71399   1.670   7.468  10.793
56501SOL    HW171400   1.743   7.459  10.854
56501SOL    HW271401   1.592   7.449  10.845
56502SOL     OW71402   5.231  13.508   0.803
56502SOL    HW171403   5.215  13.439   0.739
56502SOL    HW271404   5.325  13.524   0.798
56503SOL     OW71405  10.042   5.878   6.802
56503SOL    HW171406  10.006   5.832   6.877
56503SOL    HW271407  10.000   5.964   6.804
56504SOL     OW71408   6.529  13.436   2.341
56504SOL    HW171409   6.592  13.371   2.372
56504SOL    HW271410   6.447  13.411   2.384
56505SOL     OW71411   4.879   6.958  10.198
56505SOL    HW171412   4.829   6.975  10.278
56505SOL    HW271413   4.912   6.869  10.209
56506SOL     OW71414   8.919   9.605   4.268
56506SOL    HW171415   8.940   9.657   4.191
56506SOL    HW271416   8.823   9.608   4.274
56507SOL     OW71417  14.373  13.367   9.120
56507SOL    HW171418  14.466  13.358   9.099
56507SOL    HW271419  14.336  13.414   9.045
56508SOL     OW71420  13.650   4.709   3.422
56508SOL    HW171421  13.567   4.693   3.376
56508SOL    HW271422  13.687   4.622   3.438
56509SOL     OW71423   4.141   8.231  10.032
56509SOL    HW171424   4.193   8.155  10.056
56509SOL    HW271425   4.147   8.236   9.937
56510SOL     OW71426  12.717  11.508   6.453
56510SOL    HW171427  12.637  11.455   6.445
56510SOL    HW271428  12.729  11.547   6.367
56511SOL     OW71429   9.139   5.533  13.347
56511SOL    HW171430   9.190   5.452  13.345
56511SOL    HW271431   9.201   5.599  13.377
56512SOL     OW71432  13.898   6.929   8.911
56512SOL    HW171433  13.887   6.923   9.006
56512SOL    HW271434  13.972   6.871   8.892
56513SOL     OW71435  10.669   4.325   8.367
56513SOL    HW171436  10.744   4.296   8.419
56513SOL    HW271437  10.604   4.256   8.379
56514SOL     OW71438   5.095   2.524   2.216
56514SOL    HW171439   5.060   2.547   2.129
56514SOL    HW271440   5.187   2.548   2.211
56515SOL     OW71441   9.152   8.451  11.982
56515SOL    HW171442   9.214   8.493  11.922
56515SOL    HW271443   9.200   8.376  12.017
56516SOL     OW71444  11.878   6.493  11.317
56516SOL    HW171445  11.856   6.407  11.281
56516SOL    HW271446  11.951   6.524  11.262
56517SOL     OW71447  13.477  12.901   3.440
56517SOL    HW171448  13.525  12.984   3.437
56517SOL    HW271449  13.392  12.924   3.478
56518SOL     OW71450   3.511   1.787   3.132
56518SOL    HW171451   3.522   1.847   3.058
56518SOL    HW271452   3.441   1.826   3.185
56519SOL     OW71453   1.930  11.370   1.178
56519SOL    HW171454   1.949  11.365   1.084
56519SOL    HW271455   1.984  11.442   1.209
56520SOL     OW71456  11.132  11.425   3.208
56520SOL    HW171457  11.172  11.481   3.141
56520SOL    HW271458  11.090  11.486   3.268
56521SOL     OW71459   1.120  13.268   5.310
56521SOL    HW171460   1.103  13.336   5.375
56521SOL    HW271461   1.075  13.190   5.345
56522SOL     OW71462  13.125   9.800  13.509
56522SOL    HW171463  13.094   9.718  13.546
56522SOL    HW271464  13.046   9.842  13.473
56523SOL     OW71465  10.031  11.921   9.207
56523SOL    HW171466  10.016  12.002   9.159
56523SOL    HW271467  10.016  11.852   9.143
56524SOL     OW71468   9.233   9.651   7.152
56524SOL    HW171469   9.280   9.661   7.069
56524SOL    HW271470   9.147   9.691   7.135
56525SOL     OW71471   6.302   6.724   0.386
56525SOL    HW171472   6.275   6.633   0.400
56525SOL    HW271473   6.355   6.745   0.462
56526SOL     OW71474  13.203   8.007   0.891
56526SOL    HW171475  13.192   8.076   0.825
56526SOL    HW271476  13.233   7.931   0.842
56527SOL     OW71477   1.484  10.059   8.120
56527SOL    HW171478   1.541  10.125   8.159
56527SOL    HW271479   1.431  10.109   8.057
56528SOL     OW71480   3.571   7.427   9.374
56528SOL    HW171481   3.658   7.439   9.411
56528SOL    HW271482   3.514   7.414   9.450
56529SOL     OW71483   4.922   5.334   4.152
56529SOL    HW171484   4.918   5.261   4.090
56529SOL    HW271485   4.855   5.315   4.217
56530SOL     OW71486   0.669  12.206   7.065
56530SOL    HW171487   0.685  12.118   7.030
56530SOL    HW271488   0.626  12.253   6.994
56531SOL     OW71489   2.639   2.943  14.552
56531SOL    HW171490   2.634   3.030  14.513
56531SOL    HW271491   2.577   2.890  14.501
56532SOL     OW71492  12.103   3.752   1.537
56532SOL    HW171493  12.097   3.679   1.599
56532SOL    HW271494  12.031   3.736   1.475
56533SOL     OW71495   6.055   5.362   9.149
56533SOL    HW171496   5.989   5.294   9.139
56533SOL    HW271497   6.005   5.440   9.174
56534SOL     OW71498   6.250  12.749   8.561
56534SOL    HW171499   6.315  12.681   8.577
56534SOL    HW271500   6.245  12.796   8.645
56535SOL     OW71501   4.700  12.778   9.397
56535SOL    HW171502   4.771  12.715   9.406
56535SOL    HW271503   4.721  12.827   9.318
56536SOL     OW71504   4.861  11.099  12.239
56536SOL    HW171505   4.957  11.104  12.242
56536SOL    HW271506   4.841  11.068  12.150
56537SOL     OW71507  13.487  13.560   9.422
56537SOL    HW171508  13.446  13.571   9.336
56537SOL    HW271509  13.519  13.470   9.421
56538SOL     OW71510   6.026   2.258   2.898
56538SOL    HW171511   6.071   2.342   2.904
56538SOL    HW271512   6.041   2.229   2.808
56539SOL     OW71513  13.659   8.623  14.702
56539SOL    HW171514  13.568   8.632  14.731
56539SOL    HW271515  13.658   8.656  14.612
56540SOL     OW71516   8.578   9.527   1.421
56540SOL    HW171517   8.661   9.493   1.454
56540SOL    HW271518   8.559   9.475   1.343
56541SOL     OW71519   3.374  13.994   6.853
56541SOL    HW171520   3.437  13.939   6.806
56541SOL    HW271521   3.425  14.071   6.880
56542SOL     OW71522   4.115  10.785  14.174
56542SOL    HW171523   4.210  10.795  14.183
56542SOL    HW271524   4.104  10.694  14.145
56543SOL     OW71525  12.660   7.267   3.207
56543SOL    HW171526  12.669   7.317   3.287
56543SOL    HW271527  12.565   7.260   3.193
56544SOL     OW71528   5.916   3.876  11.992
56544SOL    HW171529   5.923   3.967  11.963
56544SOL    HW271530   5.970   3.828  11.929
56545SOL     OW71531   0.335   6.018   8.853
56545SOL    HW171532   0.365   6.074   8.782
56545SOL    HW271533   0.359   6.066   8.933
56546SOL     OW71534   2.875   0.352   4.812
56546SOL    HW171535   2.843   0.441   4.827
56546SOL    HW271536   2.818   0.297   4.866
56547SOL     OW71537  11.795   1.645   0.074
56547SOL    HW171538  11.831   1.629   0.161
56547SOL    HW271539  11.713   1.691   0.090
56548SOL     OW71540   2.336   0.182  14.226
56548SOL    HW171541   2.397   0.244  14.265
56548SOL    HW271542   2.262   0.180  14.286
56549SOL     OW71543   6.728   9.917   9.109
56549SOL    HW171544   6.641   9.893   9.079
56549SOL    HW271545   6.718   9.933   9.203
56550SOL     OW71546   6.070  10.029   3.447
56550SOL    HW171547   6.049   9.939   3.472
56550SOL    HW271548   6.095  10.023   3.355
56551SOL     OW71549   5.686   9.024  10.715
56551SOL    HW171550   5.647   8.937  10.709
56551SOL    HW271551   5.778   9.008  10.737
56552SOL     OW71552   3.740   7.368   4.505
56552SOL    HW171553   3.782   7.300   4.557
56552SOL    HW271554   3.792   7.446   4.520
56553SOL     OW71555   3.442  11.797  13.615
56553SOL    HW171556   3.402  11.883  13.626
56553SOL    HW271557   3.373  11.743  13.578
56554SOL     OW71558   5.752  10.172   6.746
56554SOL    HW171559   5.685  10.147   6.810
56554SOL    HW271560   5.816  10.221   6.798
56555SOL     OW71561   4.408  13.592   3.147
56555SOL    HW171562   4.431  13.605   3.055
56555SOL    HW271563   4.371  13.676   3.174
56556SOL     OW71564   0.156   9.648  11.418
56556SOL    HW171565   0.203   9.567  11.397
56556SOL    HW271566   0.211   9.691  11.483
56557SOL     OW71567   6.142   7.704  14.014
56557SOL    HW171568   6.098   7.788  14.030
56557SOL    HW271569   6.098   7.643  14.073
56558SOL     OW71570  14.333   6.869  12.205
56558SOL    HW171571  14.256   6.926  12.213
56558SOL    HW271572  14.298   6.785  12.177
56559SOL     OW71573  11.901  14.369   3.512
56559SOL    HW171574  11.954  14.343   3.436
56559SOL    HW271575  11.928  14.310   3.582
56560SOL     OW71576   3.034  14.004   9.242
56560SOL    HW171577   3.012  14.052   9.322
56560SOL    HW271578   3.108  14.051   9.205
56561SOL     OW71579  12.919  13.496   4.676
56561SOL    HW171580  12.900  13.402   4.678
56561SOL    HW271581  13.009  13.503   4.708
56562SOL     OW71582   4.423   6.913  10.989
56562SOL    HW171583   4.427   6.981  11.057
56562SOL    HW271584   4.477   6.842  11.023
56563SOL     OW71585   2.814   4.812  10.680
56563SOL    HW171586   2.909   4.812  10.693
56563SOL    HW271587   2.778   4.831  10.767
56564SOL     OW71588   5.856   0.508   2.401
56564SOL    HW171589   5.766   0.522   2.430
56564SOL    HW271590   5.856   0.419   2.365
56565SOL     OW71591   6.717   1.044   0.123
56565SOL    HW171592   6.688   1.023   0.035
56565SOL    HW271593   6.795   1.098   0.111
56566SOL     OW71594   0.076   2.901   8.932
56566SOL    HW171595  14.859   2.888   8.964
56566SOL    HW271596   0.075   2.867   8.842
56567SOL     OW71597  10.358   3.022   2.787
56567SOL    HW171598  10.319   3.088   2.729
56567SOL    HW271599  10.421   3.071   2.840
56568SOL     OW71600  12.164  12.368  14.803
56568SOL    HW171601  12.216  12.344  14.726
56568SOL    HW271602  12.194  12.456  14.825
56569SOL     OW71603   3.817   7.584   2.899
56569SOL    HW171604   3.828   7.609   2.991
56569SOL    HW271605   3.722   7.573   2.889
56570SOL     OW71606  11.020  14.452   2.151
56570SOL    HW171607  11.030  14.424   2.060
56570SOL    HW271608  10.936  14.498   2.153
56571SOL     OW71609  12.508   1.135   4.581
56571SOL    HW171610  12.563   1.074   4.629
56571SOL    HW271611  12.424   1.090   4.571
56572SOL     OW71612   7.013   3.709   4.772
56572SOL    HW171613   6.946   3.708   4.705
56572SOL    HW271614   7.008   3.623   4.813
56573SOL     OW71615  12.797   6.736  13.028
56573SOL    HW171616  12.847   6.802  12.981
56573SOL    HW271617  12.743   6.786  13.089
56574SOL     OW71618   6.857   4.164  13.828
56574SOL    HW171619   6.844   4.084  13.879
56574SOL    HW271620   6.804   4.230  13.873
56575SOL     OW71621  13.945   1.254  12.698
56575SOL    HW171622  14.027   1.209  12.718
56575SOL    HW271623  13.919   1.220  12.613
56576SOL     OW71624   3.180   2.443   1.047
56576SOL    HW171625   3.275   2.447   1.035
56576SOL    HW271626   3.145   2.502   0.980
56577SOL     OW71627   7.523   3.706   4.418
56577SOL    HW171628   7.497   3.694   4.509
56577SOL    HW271629   7.609   3.665   4.411
56578SOL     OW71630  10.029   0.060  10.418
56578SOL    HW171631  10.103   0.039  10.361
56578SOL    HW271632   9.989  14.847  10.438
56579SOL     OW71633   9.767  11.711  14.236
56579SOL    HW171634   9.681  11.678  14.211
56579SOL    HW271635   9.769  11.801  14.202
56580SOL     OW71636   2.887  13.861   6.730
56580SOL    HW171637   2.915  13.938   6.780
56580SOL    HW271638   2.968  13.812   6.715
56581SOL     OW71639   8.226   4.617   1.494
56581SOL    HW171640   8.264   4.679   1.556
56581SOL    HW271641   8.188   4.548   1.549
56582SOL     OW71642  14.255   3.769  14.646
56582SOL    HW171643  14.188   3.732  14.590
56582SOL    HW271644  14.306   3.826  14.589
56583SOL     OW71645   2.101   4.067   0.739
56583SOL    HW171646   2.056   4.070   0.823
56583SOL    HW271647   2.192   4.087   0.759
56584SOL     OW71648   6.814  10.843  14.081
56584SOL    HW171649   6.827  10.831  14.175
56584SOL    HW271650   6.799  10.938  14.071
56585SOL     OW71651   3.254   5.307   8.051
56585SOL    HW171652   3.286   5.353   8.129
56585SOL    HW271653   3.196   5.239   8.085
56586SOL     OW71654   0.847   1.417   0.788
56586SOL    HW171655   0.911   1.468   0.837
56586SOL    HW271656   0.827   1.470   0.711
56587SOL     OW71657  14.558   7.526   5.673
56587SOL    HW171658  14.590   7.472   5.746
56587SOL    HW271659  14.529   7.607   5.715
56588SOL     OW71660   6.771  12.756   4.685
56588SOL    HW171661   6.744  12.742   4.776
56588SOL    HW271662   6.744  12.677   4.639
56589SOL     OW71663   9.090  13.619   8.234
56589SOL    HW171664   9.090  13.611   8.329
56589SOL    HW271665   9.002  13.593   8.207
56590SOL     OW71666   9.357  12.965   6.812
56590SOL    HW171667   9.314  12.958   6.726
56590SOL    HW271668   9.304  13.027   6.861
56591SOL     OW71669   1.969   6.123   2.792
56591SOL    HW171670   2.057   6.115   2.756
56591SOL    HW271671   1.973   6.202   2.846
56592SOL     OW71672   3.079  13.453   0.548
56592SOL    HW171673   3.104  13.448   0.456
56592SOL    HW271674   3.142  13.397   0.593
56593SOL     OW71675   3.810   5.777   2.385
56593SOL    HW171676   3.771   5.758   2.299
56593SOL    HW271677   3.737   5.771   2.446
56594SOL     OW71678   7.175  11.342   4.455
56594SOL    HW171679   7.137  11.334   4.368
56594SOL    HW271680   7.254  11.288   4.451
56595SOL     OW71681   8.373   5.374   1.137
56595SOL    HW171682   8.460   5.404   1.165
56595SOL    HW271683   8.332   5.453   1.100
56596SOL     OW71684   5.844   1.985   7.270
56596SOL    HW171685   5.775   2.035   7.225
56596SOL    HW271686   5.926   2.025   7.241
56597SOL     OW71687   0.121  13.763   7.105
56597SOL    HW171688   0.036  13.758   7.147
56597SOL    HW271689   0.121  13.690   7.042
56598SOL     OW71690   2.090   1.124   1.637
56598SOL    HW171691   2.108   1.031   1.622
56598SOL    HW271692   1.995   1.130   1.639
56599SOL     OW71693   5.875   5.553   5.218
56599SOL    HW171694   5.952   5.591   5.261
56599SOL    HW271695   5.800   5.598   5.256
56600SOL     OW71696   6.340   1.023   1.796
56600SOL    HW171697   6.283   0.946   1.793
56600SOL    HW271698   6.312   1.076   1.721
56601SOL     OW71699  14.246  13.191   6.561
56601SOL    HW171700  14.318  13.235   6.604
56601SOL    HW271701  14.168  13.239   6.589
56602SOL     OW71702  13.264   4.304   1.279
56602SOL    HW171703  13.332   4.305   1.346
56602SOL    HW271704  13.313   4.307   1.196
56603SOL     OW71705  11.296   9.493  13.351
56603SOL    HW171706  11.375   9.441  13.342
56603SOL    HW271707  11.263   9.472  13.438
56604SOL     OW71708  13.971   4.336   3.041
56604SOL    HW171709  13.974   4.243   3.017
56604SOL    HW271710  13.887   4.367   3.009
56605SOL     OW71711   7.225   1.171   6.980
56605SOL    HW171712   7.274   1.089   6.973
56605SOL    HW271713   7.138   1.145   7.010
56606SOL     OW71714  13.606  10.569   8.675
56606SOL    HW171715  13.576  10.598   8.588
56606SOL    HW271716  13.690  10.525   8.657
56607SOL     OW71717  11.754  13.083  12.652
56607SOL    HW171718  11.658  13.077  12.653
56607SOL    HW271719  11.775  13.107  12.562
56608SOL     OW71720   1.272  11.660   0.529
56608SOL    HW171721   1.252  11.753   0.540
56608SOL    HW271722   1.304  11.653   0.439
56609SOL     OW71723   6.343  13.997   7.841
56609SOL    HW171724   6.385  14.050   7.773
56609SOL    HW271725   6.413  13.938   7.871
56610SOL     OW71726  12.528   6.548   3.512
56610SOL    HW171727  12.619   6.562   3.487
56610SOL    HW271728  12.487   6.510   3.434
56611SOL     OW71729  11.118  13.336   6.680
56611SOL    HW171730  11.133  13.410   6.621
56611SOL    HW271731  11.025  13.341   6.701
56612SOL     OW71732  11.261   1.009  10.410
56612SOL    HW171733  11.180   0.995  10.459
56612SOL    HW271734  11.278   0.925  10.367
56613SOL     OW71735   0.344  11.969   9.559
56613SOL    HW171736   0.292  12.043   9.527
56613SOL    HW271737   0.307  11.950   9.645
56614SOL     OW71738   0.262   7.549   9.558
56614SOL    HW171739   0.295   7.638   9.542
56614SOL    HW271740   0.229   7.521   9.473
56615SOL     OW71741   5.139   2.973   4.572
56615SOL    HW171742   5.121   3.062   4.543
56615SOL    HW271743   5.189   2.934   4.500
56616SOL     OW71744   0.106   7.804   3.467
56616SOL    HW171745   0.191   7.841   3.489
56616SOL    HW271746   0.046   7.838   3.533
56617SOL     OW71747   4.100  14.527  10.261
56617SOL    HW171748   4.153  14.572  10.327
56617SOL    HW271749   4.038  14.593  10.231
56618SOL     OW71750   1.633   0.849  11.822
56618SOL    HW171751   1.674   0.900  11.892
56618SOL    HW271752   1.539   0.857  11.838
56619SOL     OW71753  11.641   4.362   3.253
56619SOL    HW171754  11.574   4.422   3.223
56619SOL    HW271755  11.594   4.299   3.308
56620SOL     OW71756   5.621   8.142   4.029
56620SOL    HW171757   5.654   8.099   4.108
56620SOL    HW271758   5.526   8.138   4.037
56621SOL     OW71759   8.418   8.729   4.939
56621SOL    HW171760   8.479   8.694   5.003
56621SOL    HW271761   8.332   8.702   4.971
56622SOL     OW71762   6.979   5.206   1.721
56622SOL    HW171763   6.914   5.192   1.790
56622SOL    HW271764   7.046   5.261   1.762
56623SOL     OW71765  13.854   9.059   7.787
56623SOL    HW171766  13.849   9.153   7.772
56623SOL    HW271767  13.839   9.020   7.701
56624SOL     OW71768   1.522   8.997  12.150
56624SOL    HW171769   1.589   9.048  12.196
56624SOL    HW271770   1.565   8.969  12.069
56625SOL     OW71771   3.428   1.816   9.866
56625SOL    HW171772   3.505   1.807   9.921
56625SOL    HW271773   3.462   1.825   9.777
56626SOL     OW71774   5.953   2.344   3.495
56626SOL    HW171775   5.938   2.278   3.428
56626SOL    HW271776   6.023   2.307   3.550
56627SOL     OW71777   4.733   3.452   8.081
56627SOL    HW171778   4.668   3.522   8.081
56627SOL    HW271779   4.740   3.425   8.172
56628SOL     OW71780   7.088   0.733   3.052
56628SOL    HW171781   7.030   0.728   2.976
56628SOL    HW271782   7.029   0.724   3.127
56629SOL     OW71783  12.291  12.088  11.375
56629SOL    HW171784  12.263  12.149  11.443
56629SOL    HW271785  12.344  12.141  11.315
56630SOL     OW71786   4.829   3.142   5.529
56630SOL    HW171787   4.758   3.095   5.485
56630SOL    HW271788   4.788   3.179   5.608
56631SOL     OW71789   5.349   3.137   1.740
56631SOL    HW171790   5.403   3.100   1.669
56631SOL    HW271791   5.407   3.139   1.816
56632SOL     OW71792  12.790   8.365   1.946
56632SOL    HW171793  12.743   8.284   1.925
56632SOL    HW271794  12.725   8.421   1.988
56633SOL     OW71795  13.790  10.870   0.626
56633SOL    HW171796  13.718  10.915   0.670
56633SOL    HW271797  13.795  10.785   0.669
56634SOL     OW71798   4.837   4.443  14.447
56634SOL    HW171799   4.894   4.478  14.516
56634SOL    HW271800   4.764   4.505  14.443
56635SOL     OW71801   7.703   5.876  10.266
56635SOL    HW171802   7.722   5.872  10.359
56635SOL    HW271803   7.667   5.790  10.244
56636SOL     OW71804   3.716   2.896   0.030
56636SOL    HW171805   3.724   2.817  14.848
56636SOL    HW271806   3.806   2.918   0.053
56637SOL     OW71807  12.370   5.681  13.361
56637SOL    HW171808  12.341   5.756  13.308
56637SOL    HW271809  12.370   5.607  13.300
56638SOL     OW71810  14.046   7.671   5.886
56638SOL    HW171811  14.100   7.722   5.947
56638SOL    HW271812  14.103   7.660   5.809
56639SOL     OW71813   7.393  14.775   7.115
56639SOL    HW171814   7.426  14.814   7.196
56639SOL    HW271815   7.467  14.779   7.054
56640SOL     OW71816   5.259   1.096   1.217
56640SOL    HW171817   5.323   1.091   1.146
56640SOL    HW271818   5.308   1.130   1.292
56641SOL     OW71819   0.998   8.926   6.842
56641SOL    HW171820   1.047   8.874   6.907
56641SOL    HW271821   0.973   9.006   6.889
56642SOL     OW71822   7.573   4.585   2.704
56642SOL    HW171823   7.581   4.654   2.769
56642SOL    HW271824   7.521   4.625   2.633
56643SOL     OW71825  13.861   1.082  10.435
56643SOL    HW171826  13.910   1.005  10.464
56643SOL    HW271827  13.778   1.077  10.483
56644SOL     OW71828   1.475  11.076   2.808
56644SOL    HW171829   1.470  11.127   2.889
56644SOL    HW271830   1.420  10.999   2.824
56645SOL     OW71831  13.306   5.930   0.957
56645SOL    HW171832  13.279   5.860   0.898
56645SOL    HW271833  13.357   5.887   1.025
56646SOL     OW71834   6.710   4.549  13.788
56646SOL    HW171835   6.667   4.630  13.760
56646SOL    HW271836   6.762   4.522  13.712
56647SOL     OW71837   0.432   6.619  11.072
56647SOL    HW171838   0.421   6.604  11.166
56647SOL    HW271839   0.471   6.706  11.066
56648SOL     OW71840   0.694   8.419  10.747
56648SOL    HW171841   0.659   8.427  10.836
56648SOL    HW271842   0.724   8.328  10.741
56649SOL     OW71843   1.308   4.798  14.058
56649SOL    HW171844   1.260   4.826  13.980
56649SOL    HW271845   1.294   4.703  14.062
56650SOL     OW71846   8.799  11.166   1.283
56650SOL    HW171847   8.713  11.135   1.253
56650SOL    HW271848   8.803  11.256   1.253
56651SOL     OW71849   3.917   7.423   1.994
56651SOL    HW171850   3.834   7.467   2.012
56651SOL    HW271851   3.984   7.485   2.026
56652SOL     OW71852  12.792  10.964   8.146
56652SOL    HW171853  12.848  10.998   8.076
56652SOL    HW271854  12.703  10.967   8.110
56653SOL     OW71855   0.484  12.950  14.832
56653SOL    HW171856   0.437  12.906  14.761
56653SOL    HW271857   0.514  12.879   0.016
56654SOL     OW71858   6.590  13.438   7.728
56654SOL    HW171859   6.521  13.476   7.674
56654SOL    HW271860   6.656  13.408   7.665
56655SOL     OW71861   9.693   5.653   2.064
56655SOL    HW171862   9.653   5.598   2.131
56655SOL    HW271863   9.764   5.600   2.027
56656SOL     OW71864   2.130   7.741  14.461
56656SOL    HW171865   2.169   7.765  14.377
56656SOL    HW271866   2.094   7.823  14.495
56657SOL     OW71867  13.462  12.739   3.181
56657SOL    HW171868  13.465  12.749   3.276
56657SOL    HW271869  13.523  12.805   3.147
56658SOL     OW71870  10.026   9.714  14.461
56658SOL    HW171871   9.999   9.753  14.377
56658SOL    HW271872  10.020   9.620  14.447
56659SOL     OW71873   7.479  14.780   2.909
56659SOL    HW171874   7.526  14.717   2.963
56659SOL    HW271875   7.456  14.851   2.969
56660SOL     OW71876  10.004   4.203   0.258
56660SOL    HW171877  10.000   4.221   0.351
56660SOL    HW271878   9.934   4.140   0.243
56661SOL     OW71879   7.147   0.912   3.430
56661SOL    HW171880   7.195   0.830   3.435
56661SOL    HW271881   7.205   0.970   3.379
56662SOL     OW71882   8.089  13.404   8.148
56662SOL    HW171883   8.057  13.382   8.060
56662SOL    HW271884   8.011  13.434   8.195
56663SOL     OW71885   0.973   4.316   9.682
56663SOL    HW171886   0.907   4.250   9.659
56663SOL    HW271887   0.931   4.370   9.749
56664SOL     OW71888  14.318  13.441   0.643
56664SOL    HW171889  14.364  13.378   0.699
56664SOL    HW271890  14.388  13.486   0.595
56665SOL     OW71891   0.589   9.903  13.881
56665SOL    HW171892   0.555   9.959  13.811
56665SOL    HW271893   0.563   9.815  13.855
56666SOL     OW71894  10.371  12.646   2.094
56666SOL    HW171895  10.417  12.612   2.170
56666SOL    HW271896  10.437  12.695   2.045
56667SOL     OW71897   7.593   2.647   0.686
56667SOL    HW171898   7.601   2.554   0.664
56667SOL    HW271899   7.545   2.648   0.768
56668SOL     OW71900  10.836  14.285   3.236
56668SOL    HW171901  10.824  14.286   3.141
56668SOL    HW271902  10.811  14.196   3.262
56669SOL     OW71903   6.783   8.965  11.443
56669SOL    HW171904   6.738   9.006  11.369
56669SOL    HW271905   6.825   9.038  11.489
56670SOL     OW71906   0.164   4.383  10.536
56670SOL    HW171907   0.075   4.388  10.571
56670SOL    HW271908   0.220   4.409  10.608
56671SOL     OW71909   2.821   8.983  14.756
56671SOL    HW171910   2.735   8.971  14.795
56671SOL    HW271911   2.861   8.896  14.759
56672SOL     OW71912   9.013   3.281   6.047
56672SOL    HW171913   9.071   3.351   6.079
56672SOL    HW271914   9.070   3.226   5.993
56673SOL     OW71915   9.967  13.754  12.124
56673SOL    HW171916  10.057  13.763  12.155
56673SOL    HW271917   9.964  13.666  12.086
56674SOL     OW71918   7.220   4.841   5.770
56674SOL    HW171919   7.237   4.920   5.719
56674SOL    HW271920   7.126   4.839   5.782
56675SOL     OW71921   1.054   7.209   2.596
56675SOL    HW171922   0.975   7.241   2.552
56675SOL    HW271923   1.111   7.178   2.525
56676SOL     OW71924   5.328  11.321   9.493
56676SOL    HW171925   5.268  11.281   9.556
56676SOL    HW271926   5.309  11.415   9.497
56677SOL     OW71927  10.480   0.088   0.669
56677SOL    HW171928  10.426   0.163   0.694
56677SOL    HW271929  10.445   0.059   0.585
56678SOL     OW71930   2.161   4.972  10.170
56678SOL    HW171931   2.164   4.876  10.176
56678SOL    HW271932   2.122   5.000  10.252
56679SOL     OW71933   9.977  11.777   7.449
56679SOL    HW171934   9.921  11.845   7.485
56679SOL    HW271935  10.036  11.823   7.389
56680SOL     OW71936   1.406   7.448  10.275
56680SOL    HW171937   1.476   7.459  10.210
56680SOL    HW271938   1.428   7.367  10.320
56681SOL     OW71939   3.675   9.795   6.089
56681SOL    HW171940   3.688   9.843   6.170
56681SOL    HW271941   3.608   9.844   6.042
56682SOL     OW71942   6.852   7.483   8.049
56682SOL    HW171943   6.821   7.424   7.980
56682SOL    HW271944   6.771   7.518   8.087
56683SOL     OW71945   8.789   9.153   7.162
56683SOL    HW171946   8.789   9.106   7.246
56683SOL    HW271947   8.697   9.166   7.141
56684SOL     OW71948   8.743  13.359  14.082
56684SOL    HW171949   8.822  13.343  14.133
56684SOL    HW271950   8.694  13.276  14.087
56685SOL     OW71951   3.781   3.342  12.265
56685SOL    HW171952   3.873   3.330  12.290
56685SOL    HW271953   3.749   3.410  12.323
56686SOL     OW71954   8.433  10.468   5.667
56686SOL    HW171955   8.463  10.514   5.588
56686SOL    HW271956   8.495  10.395   5.677
56687SOL     OW71957  12.966   1.331   4.205
56687SOL    HW171958  12.924   1.415   4.223
56687SOL    HW271959  13.036   1.352   4.143
56688SOL     OW71960   8.226   9.005   7.697
56688SOL    HW171961   8.197   8.920   7.662
56688SOL    HW271962   8.146   9.045   7.731
56689SOL     OW71963  14.178   3.519   4.593
56689SOL    HW171964  14.146   3.606   4.617
56689SOL    HW271965  14.117   3.489   4.525
56690SOL     OW71966   8.100  13.394   7.234
56690SOL    HW171967   8.037  13.431   7.172
56690SOL    HW271968   8.059  13.405   7.320
56691SOL     OW71969   7.427   3.351   0.800
56691SOL    HW171970   7.405   3.382   0.888
56691SOL    HW271971   7.391   3.262   0.796
56692SOL     OW71972   2.784  13.237   5.693
56692SOL    HW171973   2.761  13.176   5.622
56692SOL    HW271974   2.802  13.181   5.768
56693SOL     OW71975   6.815   9.382   2.791
56693SOL    HW171976   6.848   9.313   2.848
56693SOL    HW271977   6.721   9.383   2.806
56694SOL     OW71978   3.445   6.852  13.211
56694SOL    HW171979   3.499   6.801  13.270
56694SOL    HW271980   3.497   6.862  13.132
56695SOL     OW71981   5.179  12.796   8.760
56695SOL    HW171982   5.168  12.726   8.696
56695SOL    HW271983   5.098  12.846   8.755
56696SOL     OW71984   0.485  13.445  14.733
56696SOL    HW171985   0.407  13.429  14.680
56696SOL    HW271986   0.533  13.362  14.730
56697SOL     OW71987  14.023  14.462   5.376
56697SOL    HW171988  14.062  14.490   5.293
56697SOL    HW271989  14.030  14.366   5.374
56698SOL     OW71990  12.248   4.788  11.514
56698SOL    HW171991  12.195   4.795  11.593
56698SOL    HW271992  12.330   4.748  11.544
56699SOL     OW71993   0.060  12.790   9.132
56699SOL    HW171994   0.058  12.700   9.165
56699SOL    HW271995   0.153  12.810   9.123
56700SOL     OW71996   7.744  12.188   7.451
56700SOL    HW171997   7.679  12.253   7.477
56700SOL    HW271998   7.828  12.228   7.472
56701SOL     OW71999   1.122   3.663  11.885
56701SOL    HW172000   1.209   3.700  11.869
56701SOL    HW272001   1.128   3.574  11.850
56702SOL     OW72002   4.439   0.418  12.830
56702SOL    HW172003   4.431   0.461  12.745
56702SOL    HW272004   4.516   0.362  12.820
56703SOL     OW72005   6.904   7.797   0.298
56703SOL    HW172006   6.834   7.796   0.233
56703SOL    HW272007   6.862   7.770   0.380
56704SOL     OW72008   4.081   5.483   4.712
56704SOL    HW172009   4.141   5.558   4.719
56704SOL    HW272010   4.090   5.437   4.795
56705SOL     OW72011   7.175  11.851  10.516
56705SOL    HW172012   7.236  11.777  10.512
56705SOL    HW272013   7.231  11.928  10.526
56706SOL     OW72014  14.704   3.517  13.263
56706SOL    HW172015  14.624   3.491  13.309
56706SOL    HW272016  14.757   3.437  13.261
56707SOL     OW72017   0.782   8.377  13.971
56707SOL    HW172018   0.775   8.324  14.051
56707SOL    HW272019   0.854   8.338  13.922
56708SOL     OW72020   5.499   7.370  13.043
56708SOL    HW172021   5.412   7.331  13.040
56708SOL    HW272022   5.488   7.458  13.008
56709SOL     OW72023   0.904   5.845   8.326
56709SOL    HW172024   0.919   5.750   8.334
56709SOL    HW272025   0.992   5.881   8.312
56710SOL     OW72026   1.234   1.298   0.312
56710SOL    HW172027   1.286   1.249   0.248
56710SOL    HW272028   1.143   1.280   0.289
56711SOL     OW72029   8.716  14.121   6.559
56711SOL    HW172030   8.657  14.189   6.527
56711SOL    HW272031   8.791  14.169   6.593
56712SOL     OW72032   8.855   6.145   6.302
56712SOL    HW172033   8.828   6.236   6.313
56712SOL    HW272034   8.780   6.094   6.333
56713SOL     OW72035  10.336   5.198   6.029
56713SOL    HW172036  10.322   5.108   6.000
56713SOL    HW272037  10.249   5.238   6.027
56714SOL     OW72038   9.445   9.175   5.238
56714SOL    HW172039   9.364   9.165   5.189
56714SOL    HW272040   9.454   9.269   5.252
56715SOL     OW72041  12.141   3.594   3.945
56715SOL    HW172042  12.083   3.603   3.870
56715SOL    HW272043  12.229   3.598   3.909
56716SOL     OW72044   1.855  14.354   5.551
56716SOL    HW172045   1.897  14.439   5.538
56716SOL    HW272046   1.883  14.302   5.476
56717SOL     OW72047  14.647   3.447   0.835
56717SOL    HW172048  14.658   3.430   0.742
56717SOL    HW272049  14.721   3.504   0.859
56718SOL     OW72050  12.550  14.780  11.850
56718SOL    HW172051  12.489  14.774  11.777
56718SOL    HW272052  12.607  14.703  11.840
56719SOL     OW72053   3.952   0.498   1.430
56719SOL    HW172054   3.994   0.569   1.480
56719SOL    HW272055   3.970   0.419   1.481
56720SOL     OW72056   1.590   8.428   4.087
56720SOL    HW172057   1.633   8.429   4.002
56720SOL    HW272058   1.601   8.338   4.119
56721SOL     OW72059   5.752  10.342  13.113
56721SOL    HW172060   5.699  10.329  13.034
56721SOL    HW272061   5.729  10.431  13.142
56722SOL     OW72062   6.105   1.302   1.137
56722SOL    HW172063   6.020   1.270   1.106
56722SOL    HW272064   6.085   1.345   1.220
56723SOL     OW72065   2.349   5.453   4.993
56723SOL    HW172066   2.372   5.362   4.976
56723SOL    HW272067   2.428   5.492   5.028
56724SOL     OW72068   6.087   8.576  12.127
56724SOL    HW172069   6.000   8.601  12.157
56724SOL    HW272070   6.071   8.518  12.052
56725SOL     OW72071  10.477   5.773   9.079
56725SOL    HW172072  10.486   5.692   9.031
56725SOL    HW272073  10.400   5.816   9.040
56726SOL     OW72074  13.842   6.726   7.179
56726SOL    HW172075  13.854   6.685   7.264
56726SOL    HW272076  13.883   6.812   7.188
56727SOL     OW72077   3.107  14.669  12.746
56727SOL    HW172078   3.054  14.601  12.704
56727SOL    HW272079   3.044  14.729  12.784
56728SOL     OW72080  14.446   8.983   9.509
56728SOL    HW172081  14.417   8.965   9.419
56728SOL    HW272082  14.540   8.963   9.508
56729SOL     OW72083  13.696  11.810   0.834
56729SOL    HW172084  13.731  11.723   0.818
56729SOL    HW272085  13.773  11.863   0.857
56730SOL     OW72086  14.322  13.982  13.199
56730SOL    HW172087  14.309  13.961  13.291
56730SOL    HW272088  14.359  14.070  13.199
56731SOL     OW72089  14.307  13.206   8.471
56731SOL    HW172090  14.224  13.217   8.424
56731SOL    HW272091  14.294  13.127   8.524
56732SOL     OW72092  13.721   2.060   6.770
56732SOL    HW172093  13.672   2.141   6.755
56732SOL    HW272094  13.667   1.992   6.732
56733SOL     OW72095   7.043   9.962   4.269
56733SOL    HW172096   7.089   9.884   4.240
56733SOL    HW272097   6.950   9.942   4.259
56734SOL     OW72098   4.220   9.799   0.233
56734SOL    HW172099   4.134   9.824   0.199
56734SOL    HW272100   4.241   9.867   0.297
56735SOL     OW72101  11.616   3.526   5.253
56735SOL    HW172102  11.671   3.557   5.181
56735SOL    HW272103  11.585   3.440   5.225
56736SOL     OW72104  14.109   4.898   7.915
56736SOL    HW172105  14.018   4.883   7.889
56736SOL    HW272106  14.126   4.989   7.890
56737SOL     OW72107   8.282   6.332   9.953
56737SOL    HW172108   8.329   6.389   9.893
56737SOL    HW272109   8.271   6.250   9.905
56738SOL     OW72110  12.763   0.652  14.642
56738SOL    HW172111  12.795   0.728  14.690
56738SOL    HW272112  12.819   0.648  14.564
56739SOL     OW72113  13.164   0.243   4.864
56739SOL    HW172114  13.247   0.216   4.903
56739SOL    HW272115  13.118   0.161   4.846
56740SOL     OW72116   1.403   7.994   6.297
56740SOL    HW172117   1.354   7.935   6.355
56740SOL    HW272118   1.489   8.001   6.337
56741SOL     OW72119  11.935   6.350  12.697
56741SOL    HW172120  11.875   6.401  12.752
56741SOL    HW272121  11.949   6.269  12.745
56742SOL     OW72122   2.231   4.510   4.390
56742SOL    HW172123   2.323   4.509   4.417
56742SOL    HW272124   2.197   4.424   4.415
56743SOL     OW72125  10.862   3.208  10.286
56743SOL    HW172126  10.950   3.190  10.252
56743SOL    HW272127  10.871   3.205  10.381
56744SOL     OW72128   4.647  11.155   4.410
56744SOL    HW172129   4.662  11.065   4.439
56744SOL    HW272130   4.725  11.203   4.439
56745SOL     OW72131  11.701   6.473   9.235
56745SOL    HW172132  11.706   6.387   9.276
56745SOL    HW272133  11.732   6.534   9.302
56746SOL     OW72134   8.462   5.781   4.153
56746SOL    HW172135   8.459   5.834   4.073
56746SOL    HW272136   8.381   5.802   4.199
56747SOL     OW72137   7.523   0.979  14.725
56747SOL    HW172138   7.477   1.025  14.654
56747SOL    HW272139   7.612   0.968  14.692
56748SOL     OW72140   9.206   9.197   5.127
56748SOL    HW172141   9.212   9.215   5.034
56748SOL    HW272142   9.118   9.162   5.140
56749SOL     OW72143   8.832   1.002   7.240
56749SOL    HW172144   8.898   1.036   7.180
56749SOL    HW272145   8.870   1.013   7.327
56750SOL     OW72146   7.603   0.637   8.164
56750SOL    HW172147   7.626   0.686   8.085
56750SOL    HW272148   7.590   0.547   8.135
56751SOL     OW72149   4.511   0.604  12.611
56751SOL    HW172150   4.601   0.628  12.589
56751SOL    HW272151   4.462   0.686  12.608
56752SOL     OW72152  13.568   8.916  11.942
56752SOL    HW172153  13.533   9.003  11.923
56752SOL    HW272154  13.623   8.929  12.019
56753SOL     OW72155   5.439  14.276  10.453
56753SOL    HW172156   5.533  14.266  10.435
56753SOL    HW272157   5.415  14.195  10.498
56754SOL     OW72158  10.470  12.690   7.729
56754SOL    HW172159  10.530  12.699   7.655
56754SOL    HW272160  10.512  12.738   7.800
56755SOL     OW72161   3.453   3.542   3.305
56755SOL    HW172162   3.410   3.458   3.288
56755SOL    HW272163   3.524   3.521   3.365
56756SOL     OW72164   1.352   3.979   5.989
56756SOL    HW172165   1.288   3.980   6.060
56756SOL    HW272166   1.363   4.071   5.965
56757SOL     OW72167   0.772   5.270   5.755
56757SOL    HW172168   0.853   5.219   5.759
56757SOL    HW272169   0.801   5.361   5.762
56758SOL     OW72170   4.385   6.334   4.711
56758SOL    HW172171   4.469   6.297   4.739
56758SOL    HW272172   4.349   6.269   4.650
56759SOL     OW72173  13.601  13.674  10.032
56759SOL    HW172174  13.601  13.595  10.087
56759SOL    HW272175  13.611  13.641   9.943
56760SOL     OW72176   6.244   1.231   4.694
56760SOL    HW172177   6.320   1.281   4.664
56760SOL    HW272178   6.274   1.187   4.774
56761SOL     OW72179   8.844  11.973   4.512
56761SOL    HW172180   8.807  11.956   4.598
56761SOL    HW272181   8.870  12.065   4.514
56762SOL     OW72182   0.908  14.566   7.337
56762SOL    HW172183   0.920  14.616   7.418
56762SOL    HW272184   0.937  14.478   7.360
56763SOL     OW72185   7.739   8.787   4.670
56763SOL    HW172186   7.742   8.691   4.669
56763SOL    HW272187   7.698   8.809   4.754
56764SOL     OW72188   6.654  10.647  12.265
56764SOL    HW172189   6.636  10.646  12.171
56764SOL    HW272190   6.620  10.731  12.295
56765SOL     OW72191  10.814   2.245   3.626
56765SOL    HW172192  10.808   2.327   3.674
56765SOL    HW272193  10.889   2.258   3.567
56766SOL     OW72194   0.090  14.019  13.466
56766SOL    HW172195   0.009  13.969  13.472
56766SOL    HW272196   0.092  14.073  13.545
56767SOL     OW72197   2.734  11.941   8.984
56767SOL    HW172198   2.683  11.944   8.903
56767SOL    HW272199   2.696  11.868   9.034
56768SOL     OW72200  11.381  13.770   9.253
56768SOL    HW172201  11.434  13.769   9.333
56768SOL    HW272202  11.408  13.691   9.206
56769SOL     OW72203  11.030  14.558   5.677
56769SOL    HW172204  11.022  14.476   5.725
56769SOL    HW272205  11.013  14.534   5.586
56770SOL     OW72206   4.380   0.605   3.375
56770SOL    HW172207   4.461   0.630   3.420
56770SOL    HW272208   4.320   0.579   3.444
56771SOL     OW72209  12.753  11.551   3.345
56771SOL    HW172210  12.788  11.493   3.278
56771SOL    HW272211  12.828  11.605   3.371
56772SOL     OW72212  11.837   8.761  12.990
56772SOL    HW172213  11.860   8.849  12.960
56772SOL    HW272214  11.780   8.726  12.921
56773SOL     OW72215   7.843  12.667  12.126
56773SOL    HW172216   7.866  12.726  12.198
56773SOL    HW272217   7.846  12.721  12.048
56774SOL     OW72218  13.126   8.265   5.948
56774SOL    HW172219  13.212   8.274   5.907
56774SOL    HW272220  13.070   8.327   5.900
56775SOL     OW72221   9.246  14.266  14.786
56775SOL    HW172222   9.253  14.170  14.792
56775SOL    HW272223   9.154  14.284  14.809
56776SOL     OW72224   5.057   4.274   3.009
56776SOL    HW172225   4.992   4.331   2.970
56776SOL    HW272226   5.043   4.282   3.103
56777SOL     OW72227   1.780  12.643   0.678
56777SOL    HW172228   1.696  12.612   0.709
56777SOL    HW272229   1.816  12.570   0.626
56778SOL     OW72230  11.869   5.287  14.766
56778SOL    HW172231  11.932   5.309  14.697
56778SOL    HW272232  11.918   5.299  14.847
56779SOL     OW72233   7.383   4.764  11.329
56779SOL    HW172234   7.350   4.737  11.415
56779SOL    HW272235   7.473   4.729  11.325
56780SOL     OW72236   7.374   0.572   7.958
56780SOL    HW172237   7.293   0.521   7.966
56780SOL    HW272238   7.440   0.518   8.001
56781SOL     OW72239   7.187   3.265   8.506
56781SOL    HW172240   7.183   3.354   8.470
56781SOL    HW272241   7.107   3.223   8.473
56782SOL     OW72242  14.801  14.724   6.832
56782SOL    HW172243  14.865  14.756   6.895
56782SOL    HW272244  14.783  14.799   6.775
56783SOL     OW72245   4.318   8.620   1.444
56783SOL    HW172246   4.239   8.566   1.439
56783SOL    HW272247   4.314   8.659   1.532
56784SOL     OW72248   6.881  14.101   8.788
56784SOL    HW172249   6.878  14.195   8.774
56784SOL    HW272250   6.947  14.069   8.726
56785SOL     OW72251   3.934   1.430   1.684
56785SOL    HW172252   3.864   1.468   1.737
56785SOL    HW272253   3.971   1.361   1.739
56786SOL     OW72254  11.688   0.435   0.332
56786SOL    HW172255  11.603   0.392   0.321
56786SOL    HW272256  11.689   0.461   0.424
56787SOL     OW72257  11.847  13.196   8.399
56787SOL    HW172258  11.832  13.154   8.314
56787SOL    HW272259  11.943  13.198   8.407
56788SOL     OW72260   7.013   0.147   4.226
56788SOL    HW172261   7.107   0.151   4.244
56788SOL    HW272262   7.007   0.102   4.141
56789SOL     OW72263   5.501   7.223  12.763
56789SOL    HW172264   5.496   7.274  12.843
56789SOL    HW272265   5.580   7.255  12.719
56790SOL     OW72266   3.568  11.087   7.508
56790SOL    HW172267   3.602  11.012   7.557
56790SOL    HW272268   3.514  11.134   7.570
56791SOL     OW72269   2.423  13.081   6.552
56791SOL    HW172270   2.433  13.003   6.498
56791SOL    HW272271   2.461  13.057   6.637
56792SOL     OW72272   2.545   0.572   7.439
56792SOL    HW172273   2.466   0.616   7.469
56792SOL    HW272274   2.594   0.640   7.392
56793SOL     OW72275   9.176   4.551   5.173
56793SOL    HW172276   9.170   4.542   5.268
56793SOL    HW272277   9.094   4.515   5.139
56794SOL     OW72278  13.792  11.128  12.137
56794SOL    HW172279  13.775  11.216  12.103
56794SOL    HW272280  13.807  11.075  12.059
56795SOL     OW72281   2.654   0.785   7.286
56795SOL    HW172282   2.627   0.851   7.222
56795SOL    HW272283   2.706   0.722   7.236
56796SOL     OW72284  14.110   7.998  14.552
56796SOL    HW172285  14.147   8.067  14.496
56796SOL    HW272286  14.164   7.921  14.534
56797SOL     OW72287   5.475   5.278  13.058
56797SOL    HW172288   5.406   5.338  13.029
56797SOL    HW272289   5.513   5.245  12.977
56798SOL     OW72290   4.662   1.297   0.937
56798SOL    HW172291   4.572   1.329   0.946
56798SOL    HW272292   4.662   1.249   0.854
56799SOL     OW72293  13.646   6.067   2.458
56799SOL    HW172294  13.611   5.986   2.496
56799SOL    HW272295  13.699   6.105   2.528
56800SOL     OW72296   3.361   6.791   5.489
56800SOL    HW172297   3.434   6.837   5.532
56800SOL    HW272298   3.366   6.702   5.523
56801SOL     OW72299   1.552   5.326   8.600
56801SOL    HW172300   1.641   5.358   8.582
56801SOL    HW272301   1.559   5.285   8.686
56802SOL     OW72302   0.406   6.203   2.658
56802SOL    HW172303   0.455   6.260   2.599
56802SOL    HW272304   0.395   6.255   2.738
56803SOL     OW72305  10.607   7.868  10.420
56803SOL    HW172306  10.697   7.849  10.396
56803SOL    HW272307  10.564   7.782  10.421
56804SOL     OW72308   2.537   9.029   8.372
56804SOL    HW172309   2.513   8.968   8.302
56804SOL    HW272310   2.622   9.064   8.345
56805SOL     OW72311   8.070  10.316   9.694
56805SOL    HW172312   8.141  10.275   9.645
56805SOL    HW272313   8.003  10.335   9.628
56806SOL     OW72314   2.576  10.655   8.455
56806SOL    HW172315   2.625  10.704   8.389
56806SOL    HW272316   2.615  10.680   8.538
56807SOL     OW72317   3.062   8.068  13.289
56807SOL    HW172318   2.972   8.090  13.313
56807SOL    HW272319   3.103   8.152  13.270
56808SOL     OW72320   0.015   7.943   4.496
56808SOL    HW172321  14.831   7.986   4.432
56808SOL    HW272322  14.846   7.859   4.513
56809SOL     OW72323   0.632  13.712   9.295
56809SOL    HW172324   0.635  13.624   9.259
56809SOL    HW272325   0.633  13.699   9.390
56810SOL     OW72326   4.532  12.081   5.788
56810SOL    HW172327   4.455  12.025   5.777
56810SOL    HW272328   4.496  12.165   5.816
56811SOL     OW72329  10.544  11.394   5.019
56811SOL    HW172330  10.557  11.327   5.087
56811SOL    HW272331  10.454  11.382   4.991
56812SOL     OW72332   5.078   7.526  14.646
56812SOL    HW172333   4.991   7.494  14.622
56812SOL    HW272334   5.132   7.446  14.649
56813SOL     OW72335   5.591  13.850   6.700
56813SOL    HW172336   5.605  13.943   6.685
56813SOL    HW272337   5.574  13.843   6.794
56814SOL     OW72338   2.465   9.914  13.206
56814SOL    HW172339   2.403   9.880  13.141
56814SOL    HW272340   2.531   9.960  13.155
56815SOL     OW72341  12.312   5.371   2.128
56815SOL    HW172342  12.403   5.402   2.121
56815SOL    HW272343  12.261   5.451   2.140
56816SOL     OW72344   2.309   9.378  12.077
56816SOL    HW172345   2.405   9.374  12.077
56816SOL    HW272346   2.287   9.435  12.003
56817SOL     OW72347  14.599  10.752   8.859
56817SOL    HW172348  14.574  10.677   8.805
56817SOL    HW272349  14.689  10.735   8.885
56818SOL     OW72350   5.756   6.755   0.990
56818SOL    HW172351   5.796   6.840   0.971
56818SOL    HW272352   5.677   6.753   0.936
56819SOL     OW72353   5.826   6.419   7.083
56819SOL    HW172354   5.767   6.493   7.092
56819SOL    HW272355   5.864   6.429   6.995
56820SOL     OW72356   8.885   4.965  13.025
56820SOL    HW172357   8.833   4.955  13.105
56820SOL    HW272358   8.938   5.043  13.041
56821SOL     OW72359  13.737  10.863   8.669
56821SOL    HW172360  13.747  10.925   8.596
56821SOL    HW272361  13.643  10.852   8.678
56822SOL     OW72362   2.254   5.707   8.832
56822SOL    HW172363   2.199   5.666   8.898
56822SOL    HW272364   2.229   5.799   8.834
56823SOL     OW72365   5.362   8.081   5.497
56823SOL    HW172366   5.389   8.119   5.581
56823SOL    HW272367   5.267   8.069   5.505
56824SOL     OW72368  13.965   8.393   2.742
56824SOL    HW172369  14.045   8.403   2.793
56824SOL    HW272370  13.977   8.310   2.696
56825SOL     OW72371   8.485   0.239   6.951
56825SOL    HW172372   8.452   0.324   6.921
56825SOL    HW272373   8.577   0.255   6.970
56826SOL     OW72374  14.248  10.123  12.758
56826SOL    HW172375  14.286  10.187  12.819
56826SOL    HW272376  14.323  10.071  12.729
56827SOL     OW72377   1.150  10.393   4.801
56827SOL    HW172378   1.159  10.454   4.729
56827SOL    HW272379   1.235  10.350   4.807
56828SOL     OW72380   2.252   6.242  11.661
56828SOL    HW172381   2.279   6.270  11.748
56828SOL    HW272382   2.156   6.237  11.666
56829SOL     OW72383  10.456  13.439   2.450
56829SOL    HW172384  10.372  13.467   2.412
56829SOL    HW272385  10.516  13.510   2.429
56830SOL     OW72386  14.119  14.777   7.892
56830SOL    HW172387  14.151  14.701   7.940
56830SOL    HW272388  14.109  14.747   7.802
56831SOL     OW72389  13.034   7.995  13.734
56831SOL    HW172390  13.113   7.966  13.780
56831SOL    HW272391  13.066   8.056  13.668
56832SOL     OW72392   2.823   8.099  14.095
56832SOL    HW172393   2.748   8.157  14.107
56832SOL    HW272394   2.864   8.129  14.013
56833SOL     OW72395   6.515   6.589  10.844
56833SOL    HW172396   6.489   6.533  10.771
56833SOL    HW272397   6.475   6.674  10.825
56834SOL     OW72398   6.941   4.292   9.076
56834SOL    HW172399   6.995   4.371   9.074
56834SOL    HW272400   6.956   4.250   8.991
56835SOL     OW72401  13.153   0.200   3.179
56835SOL    HW172402  13.132   0.198   3.086
56835SOL    HW272403  13.248   0.200   3.183
56836SOL     OW72404   3.605   6.762  12.496
56836SOL    HW172405   3.593   6.669  12.481
56836SOL    HW272406   3.685   6.785  12.448
56837SOL     OW72407   3.825  13.593  10.994
56837SOL    HW172408   3.876  13.656  11.045
56837SOL    HW272409   3.776  13.647  10.931
56838SOL     OW72410   3.009  14.669  12.348
56838SOL    HW172411   3.004  14.630  12.435
56838SOL    HW272412   3.010  14.764  12.364
56839SOL     OW72413   9.452   7.627  14.528
56839SOL    HW172414   9.487   7.538  14.529
56839SOL    HW272415   9.524   7.681  14.561
56840SOL     OW72416   4.661   2.371   5.407
56840SOL    HW172417   4.716   2.446   5.385
56840SOL    HW272418   4.721   2.296   5.402
56841SOL     OW72419  10.665  14.183   9.225
56841SOL    HW172420  10.673  14.089   9.237
56841SOL    HW272421  10.694  14.221   9.308
56842SOL     OW72422  12.137  12.797   5.153
56842SOL    HW172423  12.112  12.889   5.142
56842SOL    HW272424  12.137  12.762   5.064
56843SOL     OW72425   8.512   1.356  10.826
56843SOL    HW172426   8.483   1.378  10.914
56843SOL    HW272427   8.435   1.369  10.770
56844SOL     OW72428  13.790  14.557   0.825
56844SOL    HW172429  13.799  14.595   0.912
56844SOL    HW272430  13.743  14.623   0.774
56845SOL     OW72431   3.969  11.399   1.575
56845SOL    HW172432   4.019  11.327   1.536
56845SOL    HW272433   3.892  11.357   1.613
56846SOL     OW72434   4.610  13.524  11.835
56846SOL    HW172435   4.573  13.449  11.790
56846SOL    HW272436   4.535  13.582  11.852
56847SOL     OW72437   8.980   9.930   5.063
56847SOL    HW172438   8.900   9.970   5.095
56847SOL    HW272439   9.006   9.869   5.133
56848SOL     OW72440   7.368  14.424  13.580
56848SOL    HW172441   7.438  14.425  13.515
56848SOL    HW272442   7.331  14.512  13.576
56849SOL     OW72443   5.034   3.816   5.586
56849SOL    HW172444   5.007   3.747   5.526
56849SOL    HW272445   5.116   3.850   5.549
56850SOL     OW72446   0.192   7.068  12.476
56850SOL    HW172447   0.244   7.137  12.437
56850SOL    HW272448   0.244   7.037  12.551
56851SOL     OW72449  10.002   1.136   2.010
56851SOL    HW172450  10.007   1.197   2.084
56851SOL    HW272451   9.908   1.127   1.992
56852SOL     OW72452   1.576   3.677   1.393
56852SOL    HW172453   1.572   3.773   1.389
56852SOL    HW272454   1.653   3.654   1.341
56853SOL     OW72455   6.105  13.980   3.320
56853SOL    HW172456   6.096  14.055   3.261
56853SOL    HW272457   6.015  13.948   3.332
56854SOL     OW72458   3.237   8.379  14.744
56854SOL    HW172459   3.289   8.455  14.719
56854SOL    HW272460   3.148   8.398  14.714
56855SOL     OW72461  12.788   5.539   2.553
56855SOL    HW172462  12.852   5.560   2.486
56855SOL    HW272463  12.797   5.444   2.566
56856SOL     OW72464  13.200  13.076   1.846
56856SOL    HW172465  13.293  13.077   1.869
56856SOL    HW272466  13.193  13.135   1.771
56857SOL     OW72467  14.378   1.184   3.336
56857SOL    HW172468  14.399   1.150   3.423
56857SOL    HW272469  14.289   1.153   3.319
56858SOL     OW72470  11.594   2.399   7.119
56858SOL    HW172471  11.681   2.424   7.151
56858SOL    HW272472  11.546   2.481   7.114
56859SOL     OW72473   0.856  12.432   7.416
56859SOL    HW172474   0.840  12.430   7.510
56859SOL    HW272475   0.840  12.342   7.387
56860SOL     OW72476   2.406   3.519   2.213
56860SOL    HW172477   2.492   3.517   2.254
56860SOL    HW272478   2.388   3.427   2.192
56861SOL     OW72479  13.726   6.312   7.915
56861SOL    HW172480  13.778   6.232   7.915
56861SOL    HW272481  13.637   6.283   7.894
56862SOL     OW72482   7.638   9.333   7.846
56862SOL    HW172483   7.721   9.338   7.800
56862SOL    HW272484   7.589   9.409   7.815
56863SOL     OW72485   5.708  12.700   6.620
56863SOL    HW172486   5.707  12.689   6.525
56863SOL    HW272487   5.777  12.641   6.650
56864SOL     OW72488   8.371  12.180  12.272
56864SOL    HW172489   8.346  12.259  12.319
56864SOL    HW272490   8.311  12.113  12.306
56865SOL     OW72491  13.504   8.398  12.941
56865SOL    HW172492  13.436   8.339  12.911
56865SOL    HW272493  13.586   8.361  12.907
56866SOL     OW72494  10.941   3.892   8.275
56866SOL    HW172495  10.937   3.907   8.369
56866SOL    HW272496  10.869   3.944   8.239
56867SOL     OW72497   6.798  13.081  10.573
56867SOL    HW172498   6.730  13.016  10.553
56867SOL    HW272499   6.778  13.109  10.662
56868SOL     OW72500   1.354   0.934   2.432
56868SOL    HW172501   1.431   0.899   2.476
56868SOL    HW272502   1.364   0.906   2.341
56869SOL     OW72503   7.165  10.888   6.891
56869SOL    HW172504   7.236  10.865   6.952
56869SOL    HW272505   7.200  10.865   6.805
56870SOL     OW72506  13.733  14.144  14.831
56870SOL    HW172507  13.773  14.136   0.045
56870SOL    HW272508  13.641  14.123  14.845
56871SOL     OW72509   2.935   1.941  13.667
56871SOL    HW172510   2.918   2.035  13.678
56871SOL    HW272511   2.914   1.923  13.575
56872SOL     OW72512   5.544  14.523   6.132
56872SOL    HW172513   5.581  14.612   6.138
56872SOL    HW272514   5.583  14.477   6.206
56873SOL     OW72515   0.644   0.573   5.285
56873SOL    HW172516   0.615   0.528   5.364
56873SOL    HW272517   0.726   0.615   5.310
56874SOL     OW72518   8.009   0.925  10.181
56874SOL    HW172519   8.035   0.986  10.113
56874SOL    HW272520   8.019   0.838  10.140
56875SOL     OW72521   4.574   5.186   0.556
56875SOL    HW172522   4.550   5.264   0.505
56875SOL    HW272523   4.503   5.175   0.618
56876SOL     OW72524   4.774   4.766  12.673
56876SOL    HW172525   4.824   4.731  12.747
56876SOL    HW272526   4.688   4.786  12.710
56877SOL     OW72527  13.175   8.199   4.656
56877SOL    HW172528  13.185   8.138   4.729
56877SOL    HW272529  13.083   8.193   4.632
56878SOL     OW72530   1.471   3.700  11.128
56878SOL    HW172531   1.416   3.622  11.138
56878SOL    HW272532   1.536   3.674  11.063
56879SOL     OW72533   0.150  12.102  14.311
56879SOL    HW172534   0.161  12.021  14.361
56879SOL    HW272535   0.062  12.132  14.333
56880SOL     OW72536   0.120   1.116   8.139
56880SOL    HW172537   0.055   1.056   8.103
56880SOL    HW272538   0.068   1.189   8.173
56881SOL     OW72539   1.474   1.345   9.341
56881SOL    HW172540   1.555   1.310   9.378
56881SOL    HW272541   1.418   1.364   9.417
56882SOL     OW72542  10.835   3.637   8.304
56882SOL    HW172543  10.849   3.730   8.320
56882SOL    HW272544  10.740   3.630   8.290
56883SOL     OW72545   4.811   7.317   6.829
56883SOL    HW172546   4.794   7.401   6.873
56883SOL    HW272547   4.865   7.268   6.891
56884SOL     OW72548   2.048   6.587   8.378
56884SOL    HW172549   2.117   6.610   8.440
56884SOL    HW272550   2.056   6.652   8.308
56885SOL     OW72551   9.139   6.569   9.966
56885SOL    HW172552   9.209   6.578  10.030
56885SOL    HW272553   9.090   6.651   9.972
56886SOL     OW72554  10.416  12.037   7.871
56886SOL    HW172555  10.359  12.075   7.805
56886SOL    HW272556  10.373  11.955   7.896
56887SOL     OW72557   5.146   6.854   6.898
56887SOL    HW172558   5.184   6.773   6.933
56887SOL    HW272559   5.206   6.881   6.829
56888SOL     OW72560   1.975  12.964  10.461
56888SOL    HW172561   1.994  12.872  10.442
56888SOL    HW272562   1.880  12.971  10.452
56889SOL     OW72563   3.229  13.565   6.902
56889SOL    HW172564   3.321  13.591   6.895
56889SOL    HW272565   3.181  13.648   6.911
56890SOL     OW72566  10.987  13.526   4.724
56890SOL    HW172567  11.053  13.563   4.784
56890SOL    HW272568  10.934  13.601   4.697
56891SOL     OW72569   0.792   0.835   4.849
56891SOL    HW172570   0.731   0.800   4.914
56891SOL    HW272571   0.801   0.767   4.783
56892SOL     OW72572  11.470   8.114  13.559
56892SOL    HW172573  11.466   8.128  13.653
56892SOL    HW272574  11.427   8.191  13.521
56893SOL     OW72575   3.696  10.054   9.364
56893SOL    HW172576   3.716   9.998   9.438
56893SOL    HW272577   3.781  10.086   9.333
56894SOL     OW72578   2.977   4.731   2.054
56894SOL    HW172579   2.935   4.741   1.969
56894SOL    HW272580   3.071   4.726   2.034
56895SOL     OW72581   6.407   4.334  13.549
56895SOL    HW172582   6.355   4.307  13.473
56895SOL    HW272583   6.484   4.376  13.511
56896SOL     OW72584  11.103   9.840   3.731
56896SOL    HW172585  11.081   9.784   3.806
56896SOL    HW272586  11.067   9.926   3.755
56897SOL     OW72587   7.687  14.199   5.348
56897SOL    HW172588   7.610  14.176   5.296
56897SOL    HW272589   7.757  14.206   5.284
56898SOL     OW72590   4.780   4.221  11.493
56898SOL    HW172591   4.865   4.191  11.462
56898SOL    HW272592   4.798   4.302  11.540
56899SOL     OW72593  12.142   5.120  13.989
56899SOL    HW172594  12.049   5.098  13.991
56899SOL    HW272595  12.153   5.182  14.061
56900SOL     OW72596   8.385  11.424  13.467
56900SOL    HW172597   8.470  11.441  13.427
56900SOL    HW272598   8.337  11.506  13.459
56901SOL     OW72599  13.815   6.452   3.151
56901SOL    HW172600  13.868   6.531   3.145
56901SOL    HW272601  13.824   6.424   3.242
56902SOL     OW72602   5.209   0.610   9.924
56902SOL    HW172603   5.265   0.627  10.000
56902SOL    HW272604   5.209   0.692   9.876
56903SOL     OW72605  10.425   1.143   1.237
56903SOL    HW172606  10.430   1.099   1.322
56903SOL    HW272607  10.343   1.113   1.199
56904SOL     OW72608   4.151  14.761  10.035
56904SOL    HW172609   4.105  14.844  10.019
56904SOL    HW272610   4.242  14.787  10.047
56905SOL     OW72611   8.678  14.238   1.854
56905SOL    HW172612   8.678  14.220   1.760
56905SOL    HW272613   8.619  14.313   1.863
56906SOL     OW72614   1.199   4.816  12.914
56906SOL    HW172615   1.184   4.834  13.007
56906SOL    HW272616   1.278   4.867  12.892
56907SOL     OW72617   3.564  11.634  10.021
56907SOL    HW172618   3.642  11.602   9.976
56907SOL    HW272619   3.555  11.577  10.097
56908SOL     OW72620   3.841  12.021   2.204
56908SOL    HW172621   3.773  11.997   2.267
56908SOL    HW272622   3.870  12.108   2.231
56909SOL     OW72623   5.308   9.492  14.689
56909SOL    HW172624   5.400   9.518  14.684
56909SOL    HW272625   5.298   9.426  14.621
56910SOL     OW72626   7.949   6.339   3.537
56910SOL    HW172627   7.898   6.362   3.615
56910SOL    HW272628   7.976   6.423   3.501
56911SOL     OW72629  14.309  11.101   5.705
56911SOL    HW172630  14.286  11.094   5.798
56911SOL    HW272631  14.307  11.195   5.687
56912SOL     OW72632   3.317   2.247   4.809
56912SOL    HW172633   3.397   2.277   4.766
56912SOL    HW272634   3.324   2.152   4.810
56913SOL     OW72635   1.893  14.780   5.199
56913SOL    HW172636   1.829  14.850   5.190
56913SOL    HW272637   1.879  14.746   5.288
56914SOL     OW72638   9.434  14.219   2.384
56914SOL    HW172639   9.463  14.129   2.371
56914SOL    HW272640   9.507  14.261   2.430
56915SOL     OW72641   8.890  10.286  13.926
56915SOL    HW172642   8.946  10.305  14.001
56915SOL    HW272643   8.805  10.263  13.965
56916SOL     OW72644   2.778   9.070   9.345
56916SOL    HW172645   2.700   9.125   9.354
56916SOL    HW272646   2.801   9.077   9.252
56917SOL     OW72647   4.859   8.075   0.627
56917SOL    HW172648   4.861   8.170   0.629
56917SOL    HW272649   4.885   8.048   0.715
56918SOL     OW72650  12.162   4.154   4.245
56918SOL    HW172651  12.240   4.171   4.298
56918SOL    HW272652  12.167   4.220   4.175
56919SOL     OW72653   3.656  14.814   2.095
56919SOL    HW172654   3.711   0.010   2.135
56919SOL    HW272655   3.630  14.759   2.169
56920SOL     OW72656   7.870  12.108  11.241
56920SOL    HW172657   7.929  12.181  11.260
56920SOL    HW272658   7.833  12.130  11.155
56921SOL     OW72659  12.359   4.228  11.778
56921SOL    HW172660  12.430   4.185  11.826
56921SOL    HW272661  12.285   4.167  11.786
56922SOL     OW72662   2.372   9.342  10.754
56922SOL    HW172663   2.421   9.316  10.832
56922SOL    HW272664   2.280   9.335  10.780
56923SOL     OW72665   1.640   0.314   3.569
56923SOL    HW172666   1.582   0.389   3.583
56923SOL    HW272667   1.630   0.294   3.476
56924SOL     OW72668   2.755   9.340  11.753
56924SOL    HW172669   2.724   9.251  11.732
56924SOL    HW272670   2.802   9.368  11.674
56925SOL     OW72671  14.747   8.365   9.749
56925SOL    HW172672  14.652   8.366   9.747
56925SOL    HW272673  14.769   8.295   9.812
56926SOL     OW72674   4.392   1.446   8.294
56926SOL    HW172675   4.352   1.456   8.208
56926SOL    HW272676   4.356   1.519   8.345
56927SOL     OW72677   5.205   3.846  10.613
56927SOL    HW172678   5.271   3.842  10.544
56927SOL    HW272679   5.244   3.901  10.681
56928SOL     OW72680  11.193   7.130   8.658
56928SOL    HW172681  11.120   7.069   8.669
56928SOL    HW272682  11.265   7.089   8.706
56929SOL     OW72683   7.520   9.706  10.066
56929SOL    HW172684   7.522   9.663   9.980
56929SOL    HW272685   7.609   9.739  10.078
56930SOL     OW72686   8.993  10.992   7.653
56930SOL    HW172687   8.994  10.914   7.598
56930SOL    HW272688   8.967  11.063   7.594
56931SOL     OW72689   9.809   5.393  12.023
56931SOL    HW172690   9.746   5.419  11.955
56931SOL    HW272691   9.769   5.316  12.064
56932SOL     OW72692  14.353  14.113   2.291
56932SOL    HW172693  14.363  14.193   2.239
56932SOL    HW272694  14.429  14.111   2.348
56933SOL     OW72695   8.533   5.806   3.462
56933SOL    HW172696   8.530   5.711   3.472
56933SOL    HW272697   8.561   5.839   3.547
56934SOL     OW72698  12.054   5.541  11.198
56934SOL    HW172699  11.992   5.508  11.264
56934SOL    HW272700  12.140   5.521  11.234
56935SOL     OW72701   0.089   6.052   0.822
56935SOL    HW172702   0.042   5.971   0.839
56935SOL    HW272703   0.136   6.070   0.904
56936SOL     OW72704   2.088   0.668   7.043
56936SOL    HW172705   2.120   0.720   7.117
56936SOL    HW272706   2.089   0.578   7.075
56937SOL     OW72707  11.460   3.446   9.907
56937SOL    HW172708  11.410   3.364   9.911
56937SOL    HW272709  11.405   3.510   9.953
56938SOL     OW72710   0.530   6.325  10.032
56938SOL    HW172711   0.571   6.267   9.968
56938SOL    HW272712   0.604   6.369  10.075
56939SOL     OW72713   8.903   8.622  13.419
56939SOL    HW172714   8.849   8.688  13.464
56939SOL    HW272715   8.978   8.672  13.385
56940SOL     OW72716   4.809   7.028  10.484
56940SOL    HW172717   4.855   7.111  10.498
56940SOL    HW272718   4.865   6.962  10.525
56941SOL     OW72719   7.345   4.410  14.260
56941SOL    HW172720   7.272   4.373  14.210
56941SOL    HW272721   7.370   4.340  14.321
56942SOL     OW72722   8.522  13.747   7.346
56942SOL    HW172723   8.485  13.715   7.264
56942SOL    HW272724   8.545  13.838   7.327
56943SOL     OW72725  11.912   9.573   3.812
56943SOL    HW172726  11.973   9.640   3.843
56943SOL    HW272727  11.875   9.535   3.892
56944SOL     OW72728   5.180  12.948   1.829
56944SOL    HW172729   5.183  12.892   1.906
56944SOL    HW272730   5.087  12.952   1.806
56945SOL     OW72731   6.296   6.472  14.148
56945SOL    HW172732   6.246   6.455  14.228
56945SOL    HW272733   6.383   6.437  14.166
56946SOL     OW72734   2.153   9.224  10.377
56946SOL    HW172735   2.120   9.303  10.419
56946SOL    HW272736   2.238   9.207  10.418
56947SOL     OW72737  10.701  13.566   4.327
56947SOL    HW172738  10.636  13.515   4.278
56947SOL    HW272739  10.773  13.578   4.266
56948SOL     OW72740   6.202   0.450  14.810
56948SOL    HW172741   6.182   0.530  14.859
56948SOL    HW272742   6.252   0.397  14.872
56949SOL     OW72743  10.020   3.407   2.717
56949SOL    HW172744  10.055   3.372   2.635
56949SOL    HW272745   9.974   3.486   2.692
56950SOL     OW72746   6.469   5.029   8.899
56950SOL    HW172747   6.380   4.993   8.905
56950SOL    HW272748   6.461   5.101   8.836
56951SOL     OW72749  13.079   6.218  11.116
56951SOL    HW172750  12.983   6.215  11.117
56951SOL    HW272751  13.104   6.230  11.207
56952SOL     OW72752  11.278  14.269   7.306
56952SOL    HW172753  11.337  14.339   7.335
56952SOL    HW272754  11.191  14.297   7.334
56953SOL     OW72755   9.646  10.062   4.517
56953SOL    HW172756   9.740  10.076   4.519
56953SOL    HW272757   9.633   9.973   4.548
56954SOL     OW72758  12.639   8.447   1.647
56954SOL    HW172759  12.642   8.509   1.721
56954SOL    HW272760  12.589   8.494   1.580
56955SOL     OW72761  13.241  14.652  14.775
56955SOL    HW172762  13.302  14.724  14.793
56955SOL    HW272763  13.269  14.618  14.690
56956SOL     OW72764   9.176  14.688   7.439
56956SOL    HW172765   9.169  14.669   7.532
56956SOL    HW272766   9.120  14.765   7.426
56957SOL     OW72767   6.414   2.403   2.532
56957SOL    HW172768   6.385   2.446   2.452
56957SOL    HW272769   6.476   2.336   2.502
56958SOL     OW72770   8.883   4.407   2.261
56958SOL    HW172771   8.918   4.471   2.200
56958SOL    HW272772   8.928   4.424   2.343
56959SOL     OW72773   6.183   1.805  11.030
56959SOL    HW172774   6.263   1.754  11.047
56959SOL    HW272775   6.206   1.894  11.055
56960SOL     OW72776   8.459   8.555   5.711
56960SOL    HW172777   8.431   8.638   5.674
56960SOL    HW272778   8.554   8.558   5.709
56961SOL     OW72779  10.379   1.919  12.488
56961SOL    HW172780  10.418   1.942  12.404
56961SOL    HW272781  10.328   1.840  12.469
56962SOL     OW72782   7.436   1.209   3.674
56962SOL    HW172783   7.516   1.157   3.666
56962SOL    HW272784   7.458   1.277   3.738
56963SOL     OW72785  13.104  14.266  14.337
56963SOL    HW172786  13.198  14.256  14.319
56963SOL    HW272787  13.077  14.338  14.279
56964SOL     OW72788   2.043   3.749   3.570
56964SOL    HW172789   1.972   3.806   3.599
56964SOL    HW272790   2.091   3.801   3.506
56965SOL     OW72791   5.676   9.234   4.788
56965SOL    HW172792   5.649   9.316   4.745
56965SOL    HW272793   5.604   9.214   4.848
56966SOL     OW72794   2.179   9.483   7.622
56966SOL    HW172795   2.179   9.419   7.693
56966SOL    HW272796   2.192   9.431   7.542
56967SOL     OW72797  11.881   0.097   4.817
56967SOL    HW172798  11.909   0.124   4.905
56967SOL    HW272799  11.881   0.001   4.820
56968SOL     OW72800   4.951  12.204  14.165
56968SOL    HW172801   4.958  12.278  14.225
56968SOL    HW272802   5.019  12.220  14.099
56969SOL     OW72803  13.897   4.116   6.991
56969SOL    HW172804  13.823   4.092   6.934
56969SOL    HW272805  13.974   4.102   6.937
56970SOL     OW72806   3.814   0.690  12.970
56970SOL    HW172807   3.841   0.617  13.026
56970SOL    HW272808   3.895   0.733  12.944
56971SOL     OW72809   1.141  13.367   8.628
56971SOL    HW172810   1.141  13.271   8.630
56971SOL    HW272811   1.053  13.390   8.597
56972SOL     OW72812  10.330  13.510   4.672
56972SOL    HW172813  10.244  13.513   4.628
56972SOL    HW272814  10.332  13.590   4.724
56973SOL     OW72815   3.688   2.114  14.639
56973SOL    HW172816   3.652   2.058  14.570
56973SOL    HW272817   3.637   2.195  14.633
56974SOL     OW72818   9.977  11.265  11.227
56974SOL    HW172819  10.042  11.296  11.164
56974SOL    HW272820  10.014  11.184  11.262
56975SOL     OW72821   2.041   4.936   2.971
56975SOL    HW172822   2.017   4.947   3.063
56975SOL    HW272823   2.078   4.848   2.967
56976SOL     OW72824   7.900   2.224   3.248
56976SOL    HW172825   7.850   2.142   3.253
56976SOL    HW272826   7.982   2.199   3.206
56977SOL     OW72827  13.534   3.174  13.729
56977SOL    HW172828  13.574   3.261  13.717
56977SOL    HW272829  13.531   3.136  13.641
56978SOL     OW72830  13.184   6.033   6.948
56978SOL    HW172831  13.158   5.941   6.939
56978SOL    HW272832  13.147   6.061   7.032
56979SOL     OW72833   0.006   0.898   5.968
56979SOL    HW172834   0.029   0.905   5.875
56979SOL    HW272835  14.788   0.865   5.968
56980SOL     OW72836  10.697   2.956  12.944
56980SOL    HW172837  10.751   3.020  12.899
56980SOL    HW272838  10.758   2.901  12.993
56981SOL     OW72839   3.639   3.642   0.157
56981SOL    HW172840   3.620   3.658   0.250
56981SOL    HW272841   3.683   3.557   0.156
56982SOL     OW72842   6.792   7.488   2.481
56982SOL    HW172843   6.797   7.524   2.569
56982SOL    HW272844   6.781   7.564   2.424
56983SOL     OW72845  11.908   7.508  10.300
56983SOL    HW172846  11.826   7.470  10.268
56983SOL    HW272847  11.975   7.444  10.275
56984SOL     OW72848  13.093   4.393   1.568
56984SOL    HW172849  13.182   4.424   1.548
56984SOL    HW272850  13.070   4.437   1.650
56985SOL     OW72851  10.661  12.314  10.452
56985SOL    HW172852  10.699  12.226  10.442
56985SOL    HW272853  10.722  12.360  10.509
56986SOL     OW72854   9.455   0.400   0.350
56986SOL    HW172855   9.384   0.344   0.381
56986SOL    HW272856   9.531   0.343   0.345
56987SOL     OW72857  12.959   1.579  12.709
56987SOL    HW172858  12.886   1.577  12.772
56987SOL    HW272859  13.025   1.522  12.747
56988SOL     OW72860  13.295  14.378   5.513
56988SOL    HW172861  13.363  14.378   5.581
56988SOL    HW272862  13.335  14.332   5.439
56989SOL     OW72863   4.087   0.225  12.652
56989SOL    HW172864   4.123   0.294  12.597
56989SOL    HW272865   4.023   0.269  12.708
56990SOL     OW72866  13.399  13.643  12.101
56990SOL    HW172867  13.409  13.727  12.055
56990SOL    HW272868  13.484  13.627  12.140
56991SOL     OW72869   9.557   7.624  10.439
56991SOL    HW172870   9.483   7.570  10.411
56991SOL    HW272871   9.603   7.647  10.359
56992SOL     OW72872  13.663  12.964  13.275
56992SOL    HW172873  13.732  12.950  13.210
56992SOL    HW272874  13.702  13.026  13.337
56993SOL     OW72875  10.611   9.208  12.397
56993SOL    HW172876  10.583   9.117  12.406
56993SOL    HW272877  10.636   9.234  12.486
56994SOL     OW72878  11.623   9.489   9.416
56994SOL    HW172879  11.695   9.521   9.470
56994SOL    HW272880  11.608   9.558   9.352
56995SOL     OW72881   5.033   9.666  11.143
56995SOL    HW172882   5.109   9.657  11.086
56995SOL    HW272883   5.041   9.595  11.207
56996SOL     OW72884  11.388  10.902   9.942
56996SOL    HW172885  11.399  10.808   9.959
56996SOL    HW272886  11.376  10.941  10.028
56997SOL     OW72887   6.022   6.108  10.717
56997SOL    HW172888   5.940   6.104  10.667
56997SOL    HW272889   5.994   6.108  10.809
56998SOL     OW72890   0.476   6.453   1.277
56998SOL    HW172891   0.386   6.444   1.244
56998SOL    HW272892   0.484   6.386   1.344
56999SOL     OW72893  13.515  11.367   6.583
56999SOL    HW172894  13.431  11.413   6.592
56999SOL    HW272895  13.579  11.428   6.619
57000SOL     OW72896  10.569  11.358   2.786
57000SOL    HW172897  10.540  11.376   2.876
57000SOL    HW272898  10.536  11.433   2.736
57001SOL     OW72899  10.258   4.332   4.927
57001SOL    HW172900  10.290   4.243   4.911
57001SOL    HW272901  10.229   4.362   4.840
57002SOL     OW72902   0.509  11.277   6.960
57002SOL    HW172903   0.460  11.196   6.967
57002SOL    HW272904   0.565  11.278   7.038
57003SOL     OW72905   2.233   3.281  11.846
57003SOL    HW172906   2.251   3.312  11.934
57003SOL    HW272907   2.151   3.325  11.822
57004SOL     OW72908  14.747  10.971   9.433
57004SOL    HW172909  14.757  10.939   9.343
57004SOL    HW272910  14.682  10.913   9.472
57005SOL     OW72911  12.632   7.131   6.464
57005SOL    HW172912  12.548   7.139   6.510
57005SOL    HW272913  12.664   7.044   6.488
57006SOL     OW72914   0.495   0.749   7.305
57006SOL    HW172915   0.463   0.809   7.373
57006SOL    HW272916   0.543   0.681   7.353
57007SOL     OW72917   9.844  14.253   5.415
57007SOL    HW172918   9.837  14.192   5.489
57007SOL    HW272919   9.918  14.309   5.437
57008SOL     OW72920   8.409   9.383   6.226
57008SOL    HW172921   8.436   9.438   6.299
57008SOL    HW272922   8.486   9.381   6.168
57009SOL     OW72923  13.070   5.220   6.013
57009SOL    HW172924  13.152   5.257   5.978
57009SOL    HW272925  13.042   5.159   5.946
57010SOL     OW72926  12.483   0.410   9.113
57010SOL    HW172927  12.535   0.433   9.190
57010SOL    HW272928  12.526   0.333   9.076
57011SOL     OW72929  11.768  11.311  10.708
57011SOL    HW172930  11.683  11.344  10.736
57011SOL    HW272931  11.755  11.282  10.618
57012SOL     OW72932   6.670   9.220   6.701
57012SOL    HW172933   6.631   9.169   6.772
57012SOL    HW272934   6.598   9.236   6.640
57013SOL     OW72935   1.667   4.455  10.719
57013SOL    HW172936   1.675   4.361  10.705
57013SOL    HW272937   1.752   4.491  10.694
57014SOL     OW72938  12.036   9.735   7.302
57014SOL    HW172939  12.111   9.760   7.249
57014SOL    HW272940  12.029   9.804   7.368
57015SOL     OW72941   9.655   2.618   8.326
57015SOL    HW172942   9.673   2.694   8.381
57015SOL    HW272943   9.578   2.644   8.275
57016SOL     OW72944   9.500   1.221   7.745
57016SOL    HW172945   9.503   1.199   7.651
57016SOL    HW272946   9.591   1.238   7.768
57017SOL     OW72947   9.957   4.910   5.197
57017SOL    HW172948   9.942   4.901   5.103
57017SOL    HW272949   9.870   4.906   5.236
57018SOL     OW72950  10.860  11.044   5.291
57018SOL    HW172951  10.765  11.045   5.294
57018SOL    HW272952  10.883  10.951   5.296
57019SOL     OW72953   3.309  10.962   4.100
57019SOL    HW172954   3.346  10.875   4.116
57019SOL    HW272955   3.333  10.982   4.010
57020SOL     OW72956   5.226   0.843   3.937
57020SOL    HW172957   5.204   0.787   4.012
57020SOL    HW272958   5.174   0.922   3.949
57021SOL     OW72959   0.895   1.935  13.327
57021SOL    HW172960   0.813   1.887  13.319
57021SOL    HW272961   0.946   1.908  13.251
57022SOL     OW72962   9.768  14.704   7.013
57022SOL    HW172963   9.840  14.685   6.953
57022SOL    HW272964   9.774  14.798   7.029
57023SOL     OW72965   1.268   5.477  13.464
57023SOL    HW172966   1.313   5.555  13.429
57023SOL    HW272967   1.274   5.412  13.394
57024SOL     OW72968  12.816  13.358   5.826
57024SOL    HW172969  12.867  13.374   5.746
57024SOL    HW272970  12.811  13.443   5.869
57025SOL     OW72971   0.860  13.697  12.214
57025SOL    HW172972   0.948  13.732  12.202
57025SOL    HW272973   0.807  13.741  12.148
57026SOL     OW72974   0.629   4.371   0.340
57026SOL    HW172975   0.646   4.288   0.383
57026SOL    HW272976   0.534   4.380   0.340
57027SOL     OW72977   9.284  10.223   5.807
57027SOL    HW172978   9.275  10.303   5.754
57027SOL    HW272979   9.223  10.161   5.767
57028SOL     OW72980  13.009  11.345   2.822
57028SOL    HW172981  12.979  11.283   2.756
57028SOL    HW272982  12.943  11.414   2.822
57029SOL     OW72983   6.955  10.227  11.709
57029SOL    HW172984   6.913  10.154  11.663
57029SOL    HW272985   7.008  10.185  11.777
57030SOL     OW72986   2.948  10.670  11.629
57030SOL    HW172987   3.035  10.656  11.591
57030SOL    HW272988   2.960  10.654  11.723
57031SOL     OW72989   0.978   2.713  12.607
57031SOL    HW172990   0.965   2.691  12.699
57031SOL    HW272991   1.069   2.742  12.602
57032SOL     OW72992  14.836   4.290   7.353
57032SOL    HW172993   0.010   4.318   7.432
57032SOL    HW272994  14.744   4.288   7.379
57033SOL     OW72995  11.930   5.614   4.015
57033SOL    HW172996  11.843   5.583   4.040
57033SOL    HW272997  11.942   5.694   4.067
57034SOL     OW72998  10.417   9.702   7.566
57034SOL    HW172999  10.348   9.760   7.598
57034SOL    HW273000  10.498   9.750   7.583
57035SOL     OW73001   8.652  14.589   1.918
57035SOL    HW173002   8.691  14.672   1.946
57035SOL    HW273003   8.721  14.544   1.870
57036SOL     OW73004   8.927   8.456   6.769
57036SOL    HW173005   8.846   8.429   6.812
57036SOL    HW273006   8.986   8.381   6.778
57037SOL     OW73007  13.194   3.566  11.136
57037SOL    HW173008  13.183   3.627  11.209
57037SOL    HW273009  13.113   3.516  11.134
57038SOL     OW73010   5.602   2.562   1.040
57038SOL    HW173011   5.525   2.600   0.999
57038SOL    HW273012   5.594   2.585   1.133
57039SOL     OW73013   9.610  11.941   7.285
57039SOL    HW173014   9.705  11.946   7.280
57039SOL    HW273015   9.593  11.882   7.358
57040SOL     OW73016   7.287   3.564   1.948
57040SOL    HW173017   7.257   3.550   1.858
57040SOL    HW273018   7.214   3.536   2.003
57041SOL     OW73019  10.982   8.660   3.024
57041SOL    HW173020  10.926   8.734   3.049
57041SOL    HW273021  11.042   8.649   3.098
57042SOL     OW73022  11.995   1.098  12.464
57042SOL    HW173023  12.011   1.022  12.519
57042SOL    HW273024  12.028   1.073  12.377
57043SOL     OW73025  10.820   2.128   4.252
57043SOL    HW173026  10.866   2.090   4.177
57043SOL    HW273027  10.781   2.053   4.296
57044SOL     OW73028  12.819   8.301   0.329
57044SOL    HW173029  12.736   8.345   0.351
57044SOL    HW273030  12.797   8.208   0.326
57045SOL     OW73031  12.542   0.540   8.365
57045SOL    HW173032  12.494   0.509   8.289
57045SOL    HW273033  12.482   0.526   8.438
57046SOL     OW73034  12.849  12.320   1.925
57046SOL    HW173035  12.778  12.291   1.981
57046SOL    HW273036  12.810  12.327   1.838
57047SOL     OW73037  10.589   0.495   4.752
57047SOL    HW173038  10.676   0.482   4.715
57047SOL    HW273039  10.602   0.563   4.819
57048SOL     OW73040   1.648   3.233   9.782
57048SOL    HW173041   1.625   3.316   9.741
57048SOL    HW273042   1.732   3.209   9.744
57049SOL     OW73043   5.973   4.813   3.250
57049SOL    HW173044   5.977   4.901   3.213
57049SOL    HW273045   5.969   4.827   3.345
57050SOL     OW73046   3.298   6.483   7.517
57050SOL    HW173047   3.281   6.420   7.447
57050SOL    HW273048   3.353   6.435   7.579
57051SOL     OW73049  10.204   1.082   9.614
57051SOL    HW173050  10.131   1.105   9.556
57051SOL    HW273051  10.281   1.085   9.557
57052SOL     OW73052   4.724  10.592   4.170
57052SOL    HW173053   4.652  10.599   4.107
57052SOL    HW273054   4.743  10.682   4.195
57053SOL     OW73055  10.237  14.130  14.271
57053SOL    HW173056  10.194  14.048  14.293
57053SOL    HW273057  10.191  14.196  14.323
57054SOL     OW73058  10.006   2.087   4.904
57054SOL    HW173059   9.990   2.098   4.998
57054SOL    HW273060  10.040   2.172   4.875
57055SOL     OW73061   8.070  14.659   1.691
57055SOL    HW173062   8.109  14.730   1.640
57055SOL    HW273063   8.084  14.685   1.782
57056SOL     OW73064  11.108   9.399   1.706
57056SOL    HW173065  11.071   9.451   1.634
57056SOL    HW273066  11.033   9.381   1.763
57057SOL     OW73067  12.859   5.630   4.645
57057SOL    HW173068  12.811   5.549   4.624
57057SOL    HW273069  12.880   5.668   4.561
57058SOL     OW73070   7.299   9.756  11.295
57058SOL    HW173071   7.326   9.676  11.250
57058SOL    HW273072   7.335   9.747  11.383
57059SOL     OW73073   3.557  13.163   4.879
57059SOL    HW173074   3.522  13.147   4.792
57059SOL    HW273075   3.489  13.212   4.924
57060SOL     OW73076  10.077  10.368   4.241
57060SOL    HW173077  10.075  10.308   4.316
57060SOL    HW273078  10.050  10.452   4.277
57061SOL     OW73079   9.316   7.146   9.741
57061SOL    HW173080   9.297   7.231   9.699
57061SOL    HW273081   9.408   7.130   9.723
57062SOL     OW73082   6.686   6.461  12.653
57062SOL    HW173083   6.625   6.514  12.602
57062SOL    HW273084   6.721   6.397  12.591
57063SOL     OW73085  14.505  10.932  13.947
57063SOL    HW173086  14.578  10.907  14.004
57063SOL    HW273087  14.467  11.009  13.988
57064SOL     OW73088   8.469   2.669  12.550
57064SOL    HW173089   8.565   2.659  12.547
57064SOL    HW273090   8.437   2.583  12.577
57065SOL     OW73091   7.714  10.263   6.993
57065SOL    HW173092   7.693  10.265   6.900
57065SOL    HW273093   7.647  10.318   7.034
57066SOL     OW73094   9.132   5.213   6.669
57066SOL    HW173095   9.105   5.121   6.680
57066SOL    HW273096   9.093   5.239   6.585
57067SOL     OW73097   0.344   4.444  11.946
57067SOL    HW173098   0.409   4.508  11.917
57067SOL    HW273099   0.338   4.382  11.874
57068SOL     OW73100   3.397   5.949   5.860
57068SOL    HW173101   3.446   5.997   5.794
57068SOL    HW273102   3.379   5.864   5.820
57069SOL     OW73103  11.528  11.782   6.006
57069SOL    HW173104  11.536  11.719   5.935
57069SOL    HW273105  11.436  11.807   6.007
57070SOL     OW73106  10.083   8.458   3.989
57070SOL    HW173107  10.115   8.395   3.924
57070SOL    HW273108  10.155   8.519   4.002
57071SOL     OW73109   9.183  10.942   0.007
57071SOL    HW173110   9.158  11.021   0.054
57071SOL    HW273111   9.140  10.948  14.795
57072SOL     OW73112   9.256  13.680  13.213
57072SOL    HW173113   9.298  13.621  13.276
57072SOL    HW273114   9.290  13.766  13.236
57073SOL     OW73115   2.156   9.520  10.108
57073SOL    HW173116   2.077   9.558  10.070
57073SOL    HW273117   2.182   9.582  10.177
57074SOL     OW73118   7.362  11.052   8.482
57074SOL    HW173119   7.447  11.078   8.518
57074SOL    HW273120   7.299  11.108   8.527
57075SOL     OW73121  10.520   9.241   2.828
57075SOL    HW173122  10.534   9.188   2.749
57075SOL    HW273123  10.578   9.201   2.894
57076SOL     OW73124  13.624   2.449   1.316
57076SOL    HW173125  13.673   2.504   1.255
57076SOL    HW273126  13.686   2.433   1.388
57077SOL     OW73127  14.152   5.938   0.728
57077SOL    HW173128  14.074   5.931   0.782
57077SOL    HW273129  14.186   5.848   0.723
57078SOL     OW73130   7.325   1.252   7.681
57078SOL    HW173131   7.411   1.284   7.709
57078SOL    HW273132   7.290   1.210   7.760
57079SOL     OW73133   1.187   4.314   7.830
57079SOL    HW173134   1.112   4.288   7.884
57079SOL    HW273135   1.260   4.320   7.892
57080SOL     OW73136  14.869   7.688   0.831
57080SOL    HW173137  14.867   7.758   0.896
57080SOL    HW273138  14.791   7.636   0.849
57081SOL     OW73139   9.571   2.561   0.070
57081SOL    HW173140   9.527   2.483   0.101
57081SOL    HW273141   9.650   2.529   0.026
57082SOL     OW73142  13.846   3.936  12.090
57082SOL    HW173143  13.896   4.016  12.072
57082SOL    HW273144  13.909   3.878  12.133
57083SOL     OW73145  12.251  13.323   8.920
57083SOL    HW173146  12.189  13.363   8.859
57083SOL    HW273147  12.279  13.395   8.977
57084SOL     OW73148  13.410   4.091  10.560
57084SOL    HW173149  13.435   4.053  10.476
57084SOL    HW273150  13.490   4.085  10.613
57085SOL     OW73151   4.657  14.128   2.491
57085SOL    HW173152   4.658  14.221   2.515
57085SOL    HW273153   4.641  14.082   2.573
57086SOL     OW73154  14.368   6.567   6.020
57086SOL    HW173155  14.425   6.569   5.943
57086SOL    HW273156  14.336   6.477   6.023
57087SOL     OW73157  11.650   7.485  10.831
57087SOL    HW173158  11.560   7.491  10.798
57087SOL    HW273159  11.649   7.409  10.888
57088SOL     OW73160   3.089   0.835   5.172
57088SOL    HW173161   3.095   0.741   5.189
57088SOL    HW273162   3.005   0.860   5.210
57089SOL     OW73163   5.318   8.581   7.253
57089SOL    HW173164   5.360   8.516   7.197
57089SOL    HW273165   5.278   8.531   7.323
57090SOL     OW73166  11.192   5.701   9.289
57090SOL    HW173167  11.215   5.706   9.196
57090SOL    HW273168  11.178   5.792   9.315
57091SOL     OW73169   2.801   9.974   3.328
57091SOL    HW173170   2.852  10.013   3.399
57091SOL    HW273171   2.786  10.045   3.266
57092SOL     OW73172   9.998  10.344   6.303
57092SOL    HW173173   9.980  10.286   6.229
57092SOL    HW273174   9.937  10.417   6.292
57093SOL     OW73175  10.795   0.926  12.351
57093SOL    HW173176  10.887   0.900  12.340
57093SOL    HW273177  10.765   0.948  12.263
57094SOL     OW73178   2.527  11.725   8.979
57094SOL    HW173179   2.592  11.671   9.024
57094SOL    HW273180   2.451  11.667   8.970
57095SOL     OW73181   6.552   8.816  11.592
57095SOL    HW173182   6.579   8.890  11.647
57095SOL    HW273183   6.635   8.772  11.571
57096SOL     OW73184  12.577   8.144   0.629
57096SOL    HW173185  12.563   8.222   0.683
57096SOL    HW273186  12.549   8.170   0.541
57097SOL     OW73187  12.849  12.357   0.597
57097SOL    HW173188  12.810  12.273   0.624
57097SOL    HW273189  12.905  12.382   0.670
57098SOL     OW73190  11.524  13.297   4.312
57098SOL    HW173191  11.496  13.381   4.349
57098SOL    HW273192  11.529  13.238   4.388
57099SOL     OW73193   7.166   4.818   3.891
57099SOL    HW173194   7.135   4.734   3.858
57099SOL    HW273195   7.112   4.883   3.845
57100SOL     OW73196  10.933   7.536  14.802
57100SOL    HW173197  11.025   7.559  14.795
57100SOL    HW273198  10.888   7.597  14.742
57101SOL     OW73199  11.743   7.013   9.495
57101SOL    HW173200  11.790   6.994   9.577
57101SOL    HW273201  11.669   7.067   9.522
57102SOL     OW73202   3.980   2.985   4.156
57102SOL    HW173203   3.960   3.034   4.236
57102SOL    HW273204   4.047   2.922   4.182
57103SOL     OW73205   5.474   7.202   2.176
57103SOL    HW173206   5.473   7.294   2.201
57103SOL    HW273207   5.479   7.154   2.259
57104SOL     OW73208  10.994   3.496  13.507
57104SOL    HW173209  10.970   3.536  13.423
57104SOL    HW273210  10.931   3.532  13.569
57105SOL     OW73211   0.622   8.360   0.864
57105SOL    HW173212   0.592   8.373   0.774
57105SOL    HW273213   0.711   8.396   0.865
57106SOL     OW73214   4.268   9.361   7.532
57106SOL    HW173215   4.181   9.371   7.494
57106SOL    HW273216   4.322   9.425   7.486
57107SOL     OW73217  10.269  12.304   9.007
57107SOL    HW173218  10.239  12.382   9.054
57107SOL    HW273219  10.326  12.339   8.938
57108SOL     OW73220  10.480   5.958   4.628
57108SOL    HW173221  10.433   5.884   4.666
57108SOL    HW273222  10.470   6.029   4.692
57109SOL     OW73223   6.612   6.090  14.091
57109SOL    HW173224   6.664   6.033  14.148
57109SOL    HW273225   6.562   6.144  14.151
57110SOL     OW73226   0.991   5.877   1.931
57110SOL    HW173227   0.898   5.895   1.944
57110SOL    HW273228   0.993   5.802   1.872
57111SOL     OW73229   4.153   6.999  10.462
57111SOL    HW173230   4.119   6.910  10.472
57111SOL    HW273231   4.247   6.988  10.449
57112SOL     OW73232   1.807  11.341  11.677
57112SOL    HW173233   1.782  11.335  11.769
57112SOL    HW273234   1.901  11.361  11.679
57113SOL     OW73235   6.428   5.964   8.166
57113SOL    HW173236   6.341   5.962   8.206
57113SOL    HW273237   6.416   6.013   8.085
57114SOL     OW73238   9.831   0.089   1.234
57114SOL    HW173239   9.828   0.182   1.212
57114SOL    HW273240   9.783   0.046   1.163
57115SOL     OW73241   1.517   0.570   9.615
57115SOL    HW173242   1.514   0.657   9.575
57115SOL    HW273243   1.583   0.578   9.684
57116SOL     OW73244  11.058  12.616  13.802
57116SOL    HW173245  11.140  12.615  13.753
57116SOL    HW273246  11.071  12.682  13.870
57117SOL     OW73247   7.058   5.534   2.618
57117SOL    HW173248   6.975   5.514   2.576
57117SOL    HW273249   7.123   5.528   2.548
57118SOL     OW73250  11.828   5.530   1.785
57118SOL    HW173251  11.817   5.624   1.770
57118SOL    HW273252  11.922   5.514   1.772
57119SOL     OW73253  10.448   8.438   3.714
57119SOL    HW173254  10.380   8.486   3.667
57119SOL    HW273255  10.468   8.363   3.658
57120SOL     OW73256   8.250   2.620   5.710
57120SOL    HW173257   8.305   2.563   5.763
57120SOL    HW273258   8.309   2.688   5.678
57121SOL     OW73259   4.569   4.196   0.902
57121SOL    HW173260   4.524   4.276   0.876
57121SOL    HW273261   4.657   4.225   0.925
57122SOL     OW73262   3.303  10.044   6.170
57122SOL    HW173263   3.351   9.995   6.236
57122SOL    HW273264   3.211  10.035   6.195
57123SOL     OW73265  10.915   6.972   5.424
57123SOL    HW173266  10.994   6.930   5.391
57123SOL    HW273267  10.913   7.058   5.381
57124SOL     OW73268  13.436   8.231   2.672
57124SOL    HW173269  13.421   8.218   2.579
57124SOL    HW273270  13.447   8.326   2.681
57125SOL     OW73271   1.114  12.486  11.564
57125SOL    HW173272   1.024  12.515  11.550
57125SOL    HW273273   1.150  12.478  11.476
57126SOL     OW73274  11.559   3.426   0.726
57126SOL    HW173275  11.493   3.412   0.658
57126SOL    HW273276  11.539   3.361   0.793
57127SOL     OW73277   1.296   2.258   3.384
57127SOL    HW173278   1.348   2.310   3.323
57127SOL    HW273279   1.253   2.322   3.441
57128SOL     OW73280  13.056   2.756  13.686
57128SOL    HW173281  13.099   2.824  13.635
57128SOL    HW273282  13.086   2.772  13.776
57129SOL     OW73283   5.464   0.828  11.003
57129SOL    HW173284   5.405   0.755  11.020
57129SOL    HW273285   5.473   0.872  11.088
57130SOL     OW73286  13.439  11.794  13.494
57130SOL    HW173287  13.527  11.762  13.511
57130SOL    HW273288  13.451  11.882  13.459
57131SOL     OW73289  10.719  12.083   1.081
57131SOL    HW173290  10.705  12.148   1.012
57131SOL    HW273291  10.790  12.028   1.049
57132SOL     OW73292   8.125   3.094  12.901
57132SOL    HW173293   8.161   3.058  12.982
57132SOL    HW273294   8.077   3.172  12.929
57133SOL     OW73295   5.201   2.848  11.942
57133SOL    HW173296   5.289   2.883  11.924
57133SOL    HW273297   5.180   2.881  12.029
57134SOL     OW73298   1.190  10.928   4.192
57134SOL    HW173299   1.099  10.956   4.184
57134SOL    HW273300   1.224  10.929   4.103
57135SOL     OW73301   0.145   9.548   8.863
57135SOL    HW173302   0.192   9.608   8.920
57135SOL    HW273303   0.096   9.605   8.803
57136SOL     OW73304   3.689   1.807  14.106
57136SOL    HW173305   3.763   1.802  14.167
57136SOL    HW273306   3.648   1.721  14.111
57137SOL     OW73307  13.380   8.163   2.315
57137SOL    HW173308  13.320   8.169   2.241
57137SOL    HW273309  13.407   8.071   2.317
57138SOL     OW73310  14.474   3.571  10.143
57138SOL    HW173311  14.498   3.568  10.050
57138SOL    HW273312  14.384   3.539  10.145
57139SOL     OW73313   1.614   1.585   0.679
57139SOL    HW173314   1.687   1.604   0.619
57139SOL    HW273315   1.630   1.495   0.707
57140SOL     OW73316  14.099  12.121   5.614
57140SOL    HW173317  14.097  12.207   5.656
57140SOL    HW273318  14.013  12.084   5.632
57141SOL     OW73319   6.305   4.155   4.668
57141SOL    HW173320   6.327   4.228   4.610
57141SOL    HW273321   6.295   4.196   4.754
57142SOL     OW73322   2.066   4.826  13.336
57142SOL    HW173323   2.000   4.885  13.373
57142SOL    HW273324   2.105   4.784  13.412
57143SOL     OW73325   2.978   6.819  11.496
57143SOL    HW173326   3.058   6.866  11.469
57143SOL    HW273327   2.922   6.887  11.534
57144SOL     OW73328  12.387   9.024  14.834
57144SOL    HW173329  12.382   8.952  14.771
57144SOL    HW273330  12.313   9.081  14.811
57145SOL     OW73331   9.461  13.367  12.258
57145SOL    HW173332   9.421  13.389  12.174
57145SOL    HW273333   9.396  13.394  12.323
57146SOL     OW73334  13.283   6.021   5.251
57146SOL    HW173335  13.333   6.095   5.216
57146SOL    HW273336  13.215   6.061   5.306
57147SOL     OW73337  11.453   8.912  12.454
57147SOL    HW173338  11.370   8.953  12.481
57147SOL    HW273339  11.497   8.978  12.401
57148SOL     OW73340  11.357   2.987   7.172
57148SOL    HW173341  11.430   3.049   7.167
57148SOL    HW273342  11.315   2.992   7.086
57149SOL     OW73343   2.364   4.394   1.840
57149SOL    HW173344   2.422   4.454   1.887
57149SOL    HW273345   2.279   4.403   1.885
57150SOL     OW73346   3.478   2.577  11.071
57150SOL    HW173347   3.426   2.627  11.009
57150SOL    HW273348   3.436   2.591  11.155
57151SOL     OW73349   6.769  11.252   5.674
57151SOL    HW173350   6.736  11.326   5.623
57151SOL    HW273351   6.859  11.278   5.697
57152SOL     OW73352  11.496   3.410  12.382
57152SOL    HW173353  11.561   3.388  12.316
57152SOL    HW273354  11.479   3.327  12.428
57153SOL     OW73355   0.785  13.440   7.561
57153SOL    HW173356   0.699  13.482   7.574
57153SOL    HW273357   0.828  13.449   7.646
57154SOL     OW73358  10.526   6.612   6.848
57154SOL    HW173359  10.566   6.656   6.923
57154SOL    HW273360  10.599   6.596   6.788
57155SOL     OW73361   7.215   1.923   3.062
57155SOL    HW173362   7.217   2.018   3.071
57155SOL    HW273363   7.164   1.907   2.983
57156SOL     OW73364   9.085  14.286   4.122
57156SOL    HW173365   9.033  14.365   4.133
57156SOL    HW273366   9.047  14.223   4.183
57157SOL     OW73367   9.517  10.402   2.882
57157SOL    HW173368   9.452  10.422   2.814
57157SOL    HW273369   9.577  10.340   2.840
57158SOL     OW73370   4.811  12.907   2.062
57158SOL    HW173371   4.729  12.861   2.042
57158SOL    HW273372   4.796  12.996   2.032
57159SOL     OW73373   1.259  14.498   0.717
57159SOL    HW173374   1.273  14.484   0.623
57159SOL    HW273375   1.253  14.593   0.727
57160SOL     OW73376   7.663  12.326   1.390
57160SOL    HW173377   7.642  12.252   1.334
57160SOL    HW273378   7.747  12.358   1.357
57161SOL     OW73379   2.829  10.624   5.160
57161SOL    HW173380   2.882  10.575   5.098
57161SOL    HW273381   2.739  10.604   5.135
57162SOL     OW73382   2.194  12.879   3.599
57162SOL    HW173383   2.178  12.973   3.601
57162SOL    HW273384   2.282  12.869   3.635
57163SOL     OW73385   6.864   4.714  11.982
57163SOL    HW173386   6.943   4.738  12.030
57163SOL    HW273387   6.846   4.788  11.925
57164SOL     OW73388   0.250   7.686   7.670
57164SOL    HW173389   0.278   7.700   7.580
57164SOL    HW273390   0.181   7.751   7.684
57165SOL     OW73391   4.332  10.209  13.818
57165SOL    HW173392   4.378  10.157  13.752
57165SOL    HW273393   4.256  10.157  13.842
57166SOL     OW73394  12.384  11.478   8.066
57166SOL    HW173395  12.294  11.494   8.037
57166SOL    HW273396  12.436  11.543   8.020
57167SOL     OW73397   1.228   4.028   2.719
57167SOL    HW173398   1.181   3.949   2.745
57167SOL    HW273399   1.262   4.008   2.631
57168SOL     OW73400   3.518  11.181   9.099
57168SOL    HW173401   3.482  11.142   9.019
57168SOL    HW273402   3.610  11.197   9.078
57169SOL     OW73403   0.034   0.394   6.509
57169SOL    HW173404   0.076   0.470   6.470
57169SOL    HW273405   0.010   0.339   6.435
57170SOL     OW73406  10.793   2.981   9.403
57170SOL    HW173407  10.741   2.906   9.373
57170SOL    HW273408  10.733   3.033   9.456
57171SOL     OW73409   6.438   7.549   2.357
57171SOL    HW173410   6.472   7.461   2.376
57171SOL    HW273411   6.376   7.535   2.285
57172SOL     OW73412   3.310  10.573  14.819
57172SOL    HW173413   3.247  10.533  14.759
57172SOL    HW273414   3.271  10.658  14.841
57173SOL     OW73415   9.348   2.334  14.701
57173SOL    HW173416   9.391   2.329  14.786
57173SOL    HW273417   9.255   2.346  14.721
57174SOL     OW73418  11.784   4.799   6.440
57174SOL    HW173419  11.852   4.741   6.406
57174SOL    HW273420  11.803   4.808   6.533
57175SOL     OW73421   0.712   7.374   3.380
57175SOL    HW173422   0.796   7.419   3.389
57175SOL    HW273423   0.688   7.385   3.288
57176SOL     OW73424  14.303   9.475  13.086
57176SOL    HW173425  14.311   9.379  13.089
57176SOL    HW273426  14.391   9.506  13.106
57177SOL     OW73427   3.719   4.970   6.414
57177SOL    HW173428   3.802   5.015   6.401
57177SOL    HW273429   3.742   4.889   6.460
57178SOL     OW73430   2.375   5.932   2.503
57178SOL    HW173431   2.318   5.953   2.577
57178SOL    HW273432   2.320   5.948   2.426
57179SOL     OW73433  13.161   7.594   6.922
57179SOL    HW173434  13.203   7.595   7.009
57179SOL    HW273435  13.086   7.537   6.932
57180SOL     OW73436   2.645   9.732   4.228
57180SOL    HW173437   2.725   9.680   4.230
57180SOL    HW273438   2.575   9.670   4.249
57181SOL     OW73439  11.971  10.522   7.078
57181SOL    HW173440  12.056  10.565   7.087
57181SOL    HW273441  11.930  10.530   7.164
57182SOL     OW73442  11.122   3.592  12.367
57182SOL    HW173443  11.148   3.557  12.281
57182SOL    HW273444  11.148   3.524  12.429
57183SOL     OW73445   6.759   5.465  13.169
57183SOL    HW173446   6.839   5.492  13.124
57183SOL    HW273447   6.691   5.524  13.135
57184SOL     OW73448   9.573   7.606  12.178
57184SOL    HW173449   9.638   7.673  12.156
57184SOL    HW273450   9.514   7.649  12.240
57185SOL     OW73451   7.893  13.803  12.878
57185SOL    HW173452   7.978  13.807  12.922
57185SOL    HW273453   7.899  13.868  12.808
57186SOL     OW73454   1.467   0.522   4.672
57186SOL    HW173455   1.479   0.552   4.583
57186SOL    HW273456   1.453   0.427   4.664
57187SOL     OW73457   2.366  10.133   1.421
57187SOL    HW173458   2.410  10.063   1.469
57187SOL    HW273459   2.382  10.212   1.474
57188SOL     OW73460  13.064   4.004   3.369
57188SOL    HW173461  13.053   3.910   3.384
57188SOL    HW273462  13.083   4.040   3.456
57189SOL     OW73463   2.980  13.370   5.093
57189SOL    HW173464   2.968  13.297   5.154
57189SOL    HW273465   3.024  13.437   5.144
57190SOL     OW73466  13.028   4.878   0.537
57190SOL    HW173467  13.048   4.787   0.517
57190SOL    HW273468  13.069   4.928   0.466
57191SOL     OW73469  10.825   2.126   0.217
57191SOL    HW173470  10.829   2.140   0.122
57191SOL    HW273471  10.900   2.175   0.251
57192SOL     OW73472   1.281   0.261   6.716
57192SOL    HW173473   1.293   0.336   6.774
57192SOL    HW273474   1.345   0.197   6.747
57193SOL     OW73475  10.900   5.379   8.601
57193SOL    HW173476  10.918   5.344   8.688
57193SOL    HW273477  10.964   5.335   8.544
57194SOL     OW73478   5.451  13.937   7.866
57194SOL    HW173479   5.416  13.887   7.940
57194SOL    HW273480   5.421  13.889   7.789
57195SOL     OW73481   5.061   8.386   9.794
57195SOL    HW173482   5.138   8.432   9.826
57195SOL    HW273483   5.080   8.293   9.807
57196SOL     OW73484  11.696  11.810   5.753
57196SOL    HW173485  11.702  11.715   5.763
57196SOL    HW273486  11.633  11.822   5.682
57197SOL     OW73487   4.976   0.576  13.339
57197SOL    HW173488   4.917   0.515  13.385
57197SOL    HW273489   4.976   0.654  13.393
57198SOL     OW73490  12.929  14.099   3.158
57198SOL    HW173491  12.947  14.095   3.252
57198SOL    HW273492  12.845  14.145   3.151
57199SOL     OW73493   3.044   2.033   3.788
57199SOL    HW173494   3.011   2.082   3.713
57199SOL    HW273495   2.977   1.967   3.806
57200SOL     OW73496  11.991   3.866   5.964
57200SOL    HW173497  12.035   3.855   6.049
57200SOL    HW273498  12.055   3.834   5.900
57201SOL     OW73499   1.052   2.408   7.859
57201SOL    HW173500   1.002   2.346   7.806
57201SOL    HW273501   1.093   2.466   7.796
57202SOL     OW73502   3.189   3.960  11.477
57202SOL    HW173503   3.122   3.892  11.481
57202SOL    HW273504   3.242   3.937  11.401
57203SOL     OW73505  14.101  10.762   6.901
57203SOL    HW173506  14.032  10.822   6.874
57203SOL    HW273507  14.065  10.716   6.977
57204SOL     OW73508   8.619   4.822   9.440
57204SOL    HW173509   8.698   4.802   9.389
57204SOL    HW273510   8.644   4.899   9.492
57205SOL     OW73511   5.763   6.931   7.605
57205SOL    HW173512   5.712   6.968   7.533
57205SOL    HW273513   5.796   6.848   7.570
57206SOL     OW73514   5.435   7.012  13.164
57206SOL    HW173515   5.524   7.021  13.199
57206SOL    HW273516   5.447   6.977  13.076
57207SOL     OW73517   1.967   0.816   6.050
57207SOL    HW173518   2.013   0.733   6.063
57207SOL    HW273519   2.031   0.872   6.004
57208SOL     OW73520  14.287   4.769  14.054
57208SOL    HW173521  14.378   4.745  14.075
57208SOL    HW273522  14.249   4.690  14.018
57209SOL     OW73523   0.470  14.097   9.551
57209SOL    HW173524   0.564  14.105   9.532
57209SOL    HW273525   0.427  14.117   9.468
57210SOL     OW73526   3.420   3.495  14.048
57210SOL    HW173527   3.411   3.563  14.116
57210SOL    HW273528   3.392   3.415  14.091
57211SOL     OW73529   2.708  10.280   8.093
57211SOL    HW173530   2.775  10.225   8.054
57211SOL    HW273531   2.652  10.306   8.020
57212SOL     OW73532   8.699   5.975   5.742
57212SOL    HW173533   8.615   5.975   5.788
57212SOL    HW273534   8.737   5.889   5.760
57213SOL     OW73535   3.267   3.948   5.448
57213SOL    HW173536   3.356   3.936   5.483
57213SOL    HW273537   3.276   4.017   5.383
57214SOL     OW73538   1.929   8.295   7.800
57214SOL    HW173539   1.903   8.205   7.819
57214SOL    HW273540   1.933   8.299   7.705
57215SOL     OW73541  13.856   2.607   2.417
57215SOL    HW173542  13.910   2.555   2.477
57215SOL    HW273543  13.914   2.629   2.345
57216SOL     OW73544   9.374   8.352   8.809
57216SOL    HW173545   9.308   8.306   8.757
57216SOL    HW273546   9.329   8.430   8.840
57217SOL     OW73547  11.424  14.030   9.062
57217SOL    HW173548  11.379  13.957   9.104
57217SOL    HW273549  11.390  14.108   9.105
57218SOL     OW73550  10.715   1.404  12.848
57218SOL    HW173551  10.700   1.398  12.753
57218SOL    HW273552  10.650   1.345  12.886
57219SOL     OW73553   4.747   3.478   1.795
57219SOL    HW173554   4.674   3.427   1.830
57219SOL    HW273555   4.719   3.505   1.708
57220SOL     OW73556  13.866   6.574  13.666
57220SOL    HW173557  13.808   6.619  13.604
57220SOL    HW273558  13.828   6.592  13.752
57221SOL     OW73559   1.237   8.465   0.642
57221SOL    HW173560   1.186   8.387   0.661
57221SOL    HW273561   1.174   8.527   0.606
57222SOL     OW73562   7.377  13.291   9.563
57222SOL    HW173563   7.390  13.312   9.655
57222SOL    HW273564   7.372  13.376   9.519
57223SOL     OW73565  13.861   2.565   8.103
57223SOL    HW173566  13.800   2.494   8.086
57223SOL    HW273567  13.937   2.523   8.144
57224SOL     OW73568   2.426  13.814   5.029
57224SOL    HW173569   2.490  13.883   5.049
57224SOL    HW273570   2.476  13.733   5.033
57225SOL     OW73571   4.683  13.059   8.309
57225SOL    HW173572   4.696  12.977   8.261
57225SOL    HW273573   4.762  13.069   8.360
57226SOL     OW73574  13.724   5.335   1.483
57226SOL    HW173575  13.686   5.263   1.433
57226SOL    HW273576  13.726   5.304   1.573
57227SOL     OW73577  11.435   4.991   1.101
57227SOL    HW173578  11.402   4.981   1.190
57227SOL    HW273579  11.453   4.902   1.071
57228SOL     OW73580   2.602   3.998   9.391
57228SOL    HW173581   2.542   3.935   9.431
57228SOL    HW273582   2.547   4.049   9.332
57229SOL     OW73583   8.368   6.149   3.523
57229SOL    HW173584   8.389   6.222   3.465
57229SOL    HW273585   8.385   6.184   3.611
57230SOL     OW73586   8.643  10.258   0.308
57230SOL    HW173587   8.726  10.290   0.272
57230SOL    HW273588   8.597  10.338   0.334
57231SOL     OW73589   4.261  14.792   1.852
57231SOL    HW173590   4.319  14.864   1.873
57231SOL    HW273591   4.199  14.829   1.788
57232SOL     OW73592   1.887  14.779  13.116
57232SOL    HW173593   1.885  14.853  13.056
57232SOL    HW273594   1.979  14.770  13.140
57233SOL     OW73595  10.958   6.014  14.472
57233SOL    HW173596  10.996   6.059  14.397
57233SOL    HW273597  10.981   5.922  14.459
57234SOL     OW73598   1.444   2.355  12.699
57234SOL    HW173599   1.444   2.445  12.731
57234SOL    HW273600   1.370   2.351  12.639
57235SOL     OW73601  11.906   9.612   6.755
57235SOL    HW173602  11.864   9.655   6.680
57235SOL    HW273603  11.895   9.673   6.827
57236SOL     OW73604   4.664   2.661   0.569
57236SOL    HW173605   4.650   2.609   0.648
57236SOL    HW273606   4.668   2.752   0.600
57237SOL     OW73607   5.576   6.582  12.352
57237SOL    HW173608   5.628   6.570  12.273
57237SOL    HW273609   5.639   6.612  12.418
57238SOL     OW73610  12.837   6.132   1.607
57238SOL    HW173611  12.773   6.065   1.586
57238SOL    HW273612  12.922   6.089   1.599
57239SOL     OW73613   9.372   3.693   7.725
57239SOL    HW173614   9.421   3.641   7.663
57239SOL    HW273615   9.410   3.781   7.718
57240SOL     OW73616   1.628   7.278   0.349
57240SOL    HW173617   1.569   7.287   0.274
57240SOL    HW273618   1.570   7.252   0.421
57241SOL     OW73619  10.722   5.228  13.363
57241SOL    HW173620  10.654   5.247  13.299
57241SOL    HW273621  10.802   5.261  13.324
57242SOL     OW73622  12.481   8.609   3.789
57242SOL    HW173623  12.437   8.693   3.774
57242SOL    HW273624  12.569   8.634   3.819
57243SOL     OW73625  14.193  13.143   1.740
57243SOL    HW173626  14.253  13.090   1.793
57243SOL    HW273627  14.194  13.102   1.654
57244SOL     OW73628   8.300   2.558  11.901
57244SOL    HW173629   8.215   2.592  11.930
57244SOL    HW273630   8.327   2.499  11.971
57245SOL     OW73631   0.335  13.715   6.434
57245SOL    HW173632   0.368  13.796   6.396
57245SOL    HW273633   0.317  13.736   6.525
57246SOL     OW73634   1.255  11.567   3.412
57246SOL    HW173635   1.214  11.481   3.400
57246SOL    HW273636   1.238  11.589   3.504
57247SOL     OW73637   3.374  13.782   0.473
57247SOL    HW173638   3.424  13.710   0.511
57247SOL    HW273639   3.437  13.854   0.467
57248SOL     OW73640   0.264   4.076   1.412
57248SOL    HW173641   0.337   4.016   1.394
57248SOL    HW273642   0.187   4.030   1.379
57249SOL     OW73643   8.704   1.179   4.511
57249SOL    HW173644   8.694   1.242   4.582
57249SOL    HW273645   8.618   1.178   4.468
57250SOL     OW73646  10.018   8.185  11.182
57250SOL    HW173647   9.968   8.215  11.257
57250SOL    HW273648   9.965   8.115  11.143
57251SOL     OW73649   9.803  11.405   0.136
57251SOL    HW173650   9.742  11.405   0.063
57251SOL    HW273651   9.846  11.320   0.132
57252SOL     OW73652   3.090  13.376  12.896
57252SOL    HW173653   3.063  13.362  12.806
57252SOL    HW273654   3.054  13.302  12.944
57253SOL     OW73655   1.941   7.801  10.430
57253SOL    HW173656   1.855   7.840  10.417
57253SOL    HW273657   1.933   7.750  10.511
57254SOL     OW73658  11.769   1.062   3.849
57254SOL    HW173659  11.850   1.097   3.812
57254SOL    HW273660  11.797   1.016   3.928
57255SOL     OW73661   6.548  12.203  10.867
57255SOL    HW173662   6.527  12.238  10.780
57255SOL    HW273663   6.546  12.108  10.855
57256SOL     OW73664   7.147  12.303   9.288
57256SOL    HW173665   7.209  12.267   9.351
57256SOL    HW273666   7.111  12.227   9.243
57257SOL     OW73667   8.529   4.708  14.279
57257SOL    HW173668   8.548   4.638  14.216
57257SOL    HW273669   8.537   4.788  14.228
57258SOL     OW73670   6.565   3.252   5.317
57258SOL    HW173671   6.495   3.284   5.375
57258SOL    HW273672   6.519   3.214   5.243
57259SOL     OW73673  10.598   8.901   0.153
57259SOL    HW173674  10.544   8.929   0.079
57259SOL    HW273675  10.536   8.888   0.225
57260SOL     OW73676   6.375   2.713  14.427
57260SOL    HW173677   6.433   2.685  14.356
57260SOL    HW273678   6.415   2.792  14.462
57261SOL     OW73679   8.338  14.665   8.105
57261SOL    HW173680   8.267  14.607   8.078
57261SOL    HW273681   8.335  14.664   8.201
57262SOL     OW73682  11.999  10.594   0.022
57262SOL    HW173683  11.985  10.593  14.800
57262SOL    HW273684  12.015  10.502   0.045
57263SOL     OW73685  13.385  13.971   7.659
57263SOL    HW173686  13.429  13.893   7.623
57263SOL    HW273687  13.410  14.041   7.599
57264SOL     OW73688   2.968  12.718  13.878
57264SOL    HW173689   3.033  12.735  13.946
57264SOL    HW273690   2.907  12.792  13.883
57265SOL     OW73691   1.271   8.184   2.307
57265SOL    HW173692   1.183   8.148   2.301
57265SOL    HW273693   1.310   8.168   2.221
57266SOL     OW73694  14.209  14.086  11.746
57266SOL    HW173695  14.261  14.166  11.752
57266SOL    HW273696  14.185  14.080  11.654
57267SOL     OW73697   4.715   0.130   4.896
57267SOL    HW173698   4.713   0.111   4.990
57267SOL    HW273699   4.623   0.140   4.871
57268SOL     OW73700   5.608   6.718  14.002
57268SOL    HW173701   5.673   6.746  14.067
57268SOL    HW273702   5.525   6.754  14.034
57269SOL     OW73703  12.025   2.075  11.619
57269SOL    HW173704  11.981   2.074  11.704
57269SOL    HW273705  11.978   2.141  11.568
57270SOL     OW73706  10.907   9.822   1.419
57270SOL    HW173707  11.000   9.841   1.434
57270SOL    HW273708  10.904   9.782   1.332
57271SOL     OW73709   4.007   0.264  13.884
57271SOL    HW173710   3.930   0.222  13.923
57271SOL    HW273711   4.042   0.320  13.953
57272SOL     OW73712   3.260   9.155   9.415
57272SOL    HW173713   3.174   9.130   9.449
57272SOL    HW273714   3.307   9.187   9.492
57273SOL     OW73715   0.416   7.905  13.073
57273SOL    HW173716   0.392   7.903  13.165
57273SOL    HW273717   0.502   7.947  13.071
57274SOL     OW73718  10.508   8.688  11.227
57274SOL    HW173719  10.468   8.773  11.209
57274SOL    HW273720  10.438   8.624  11.213
57275SOL     OW73721   6.994  10.331  13.354
57275SOL    HW173722   6.992  10.237  13.333
57275SOL    HW273723   6.939  10.372  13.287
57276SOL     OW73724  11.195  10.509  10.632
57276SOL    HW173725  11.255  10.528  10.704
57276SOL    HW273726  11.221  10.568  10.562
57277SOL     OW73727   7.356   4.828  13.337
57277SOL    HW173728   7.434   4.856  13.385
57277SOL    HW273729   7.347   4.891  13.266
57278SOL     OW73730   7.549   6.900   8.458
57278SOL    HW173731   7.498   6.824   8.431
57278SOL    HW273732   7.561   6.950   8.378
57279SOL     OW73733  13.220  10.388   1.188
57279SOL    HW173734  13.289  10.454   1.183
57279SOL    HW273735  13.222  10.359   1.279
57280SOL     OW73736   2.527   1.275   1.087
57280SOL    HW173737   2.473   1.285   1.166
57280SOL    HW273738   2.544   1.365   1.059
57281SOL     OW73739  11.948  14.005  12.829
57281SOL    HW173740  11.943  13.912  12.852
57281SOL    HW273741  11.889  14.048  12.891
57282SOL     OW73742   2.195   8.979   3.124
57282SOL    HW173743   2.263   9.006   3.062
57282SOL    HW273744   2.242   8.965   3.207
57283SOL     OW73745  11.997  10.954   8.940
57283SOL    HW173746  12.091  10.959   8.956
57283SOL    HW273747  11.988  10.894   8.866
57284SOL     OW73748  13.000   0.462   9.329
57284SOL    HW173749  12.981   0.456   9.423
57284SOL    HW273750  12.956   0.541   9.300
57285SOL     OW73751   4.957   7.248   7.078
57285SOL    HW173752   4.910   7.214   7.153
57285SOL    HW273753   5.050   7.240   7.101
57286SOL     OW73754   2.126   7.180  11.089
57286SOL    HW173755   2.169   7.123  11.025
57286SOL    HW273756   2.185   7.255  11.097
57287SOL     OW73757  10.917  10.292   9.596
57287SOL    HW173758  10.990  10.273   9.536
57287SOL    HW273759  10.879  10.206   9.614
57288SOL     OW73760   9.367  10.381   3.311
57288SOL    HW173761   9.325  10.316   3.254
57288SOL    HW273762   9.393  10.452   3.252
57289SOL     OW73763   4.694   7.340  12.697
57289SOL    HW173764   4.685   7.272  12.764
57289SOL    HW273765   4.607   7.381  12.693
57290SOL     OW73766   2.405   7.275  11.517
57290SOL    HW173767   2.331   7.218  11.539
57290SOL    HW273768   2.433   7.312  11.601
57291SOL     OW73769  12.377   4.506   3.376
57291SOL    HW173770  12.380   4.484   3.283
57291SOL    HW273771  12.329   4.434   3.416
57292SOL     OW73772   6.374  10.183  11.877
57292SOL    HW173773   6.383  10.092  11.848
57292SOL    HW273774   6.455  10.225  11.848
57293SOL     OW73775  10.500  13.788   1.673
57293SOL    HW173776  10.515  13.856   1.739
57293SOL    HW273777  10.405  13.783   1.664
57294SOL     OW73778   1.732   5.850   1.700
57294SOL    HW173779   1.739   5.945   1.691
57294SOL    HW273780   1.765   5.831   1.788
57295SOL     OW73781  12.351  11.525  14.627
57295SOL    HW173782  12.427  11.584  14.628
57295SOL    HW273783  12.389  11.437  14.631
57296SOL     OW73784   6.846   8.445   0.399
57296SOL    HW173785   6.925   8.474   0.442
57296SOL    HW273786   6.876   8.404   0.318
57297SOL     OW73787  12.852   2.788   1.393
57297SOL    HW173788  12.913   2.858   1.372
57297SOL    HW273789  12.767   2.830   1.398
57298SOL     OW73790   3.933   8.573   6.237
57298SOL    HW173791   3.927   8.617   6.152
57298SOL    HW273792   3.975   8.490   6.218
57299SOL     OW73793  11.338   4.162   4.259
57299SOL    HW173794  11.329   4.148   4.165
57299SOL    HW273795  11.248   4.179   4.289
57300SOL     OW73796   9.159   6.489   5.262
57300SOL    HW173797   9.088   6.468   5.322
57300SOL    HW273798   9.125   6.560   5.208
57301SOL     OW73799   3.446   3.863   7.389
57301SOL    HW173800   3.536   3.858   7.419
57301SOL    HW273801   3.397   3.896   7.465
57302SOL     OW73802   6.247   7.957   9.385
57302SOL    HW173803   6.157   7.983   9.362
57302SOL    HW273804   6.299   7.985   9.309
57303SOL     OW73805   2.300   3.051   8.896
57303SOL    HW173806   2.311   2.963   8.933
57303SOL    HW273807   2.274   3.035   8.805
57304SOL     OW73808   9.106  13.320   5.260
57304SOL    HW173809   9.097  13.379   5.185
57304SOL    HW273810   9.029  13.338   5.314
57305SOL     OW73811   4.289  11.897   5.784
57305SOL    HW173812   4.224  11.958   5.749
57305SOL    HW273813   4.295  11.828   5.717
57306SOL     OW73814   1.089   7.617   0.348
57306SOL    HW173815   1.035   7.537   0.347
57306SOL    HW273816   1.174   7.588   0.381
57307SOL     OW73817  12.512   1.310  11.345
57307SOL    HW173818  12.498   1.217  11.362
57307SOL    HW273819  12.442   1.354  11.395
57308SOL     OW73820   2.650  13.815   2.690
57308SOL    HW173821   2.732  13.799   2.642
57308SOL    HW273822   2.679  13.849   2.775
57309SOL     OW73823   2.274   6.635   6.971
57309SOL    HW173824   2.267   6.720   6.927
57309SOL    HW273825   2.308   6.577   6.903
57310SOL     OW73826   6.972  13.396  11.376
57310SOL    HW173827   7.009  13.321  11.330
57310SOL    HW273828   6.883  13.368  11.400
57311SOL     OW73829   3.809   5.888   9.486
57311SOL    HW173830   3.764   5.938   9.417
57311SOL    HW273831   3.769   5.919   9.567
57312SOL     OW73832  13.622   1.354   4.611
57312SOL    HW173833  13.673   1.342   4.691
57312SOL    HW273834  13.684   1.334   4.541
57313SOL     OW73835   9.470   5.041   0.633
57313SOL    HW173836   9.560   5.048   0.603
57313SOL    HW273837   9.477   4.995   0.717
57314SOL     OW73838   6.297   1.617   5.572
57314SOL    HW173839   6.256   1.689   5.619
57314SOL    HW273840   6.385   1.610   5.609
57315SOL     OW73841   4.071   2.772   4.923
57315SOL    HW173842   4.022   2.698   4.959
57315SOL    HW273843   4.025   2.793   4.842
57316SOL     OW73844   0.541   6.872   6.625
57316SOL    HW173845   0.580   6.787   6.643
57316SOL    HW273846   0.491   6.859   6.545
57317SOL     OW73847  14.279  10.794  10.067
57317SOL    HW173848  14.195  10.832  10.092
57317SOL    HW273849  14.306  10.844   9.990
57318SOL     OW73850  11.895   2.555  13.059
57318SOL    HW173851  11.842   2.611  13.117
57318SOL    HW273852  11.855   2.468  13.067
57319SOL     OW73853   5.038   2.265  10.212
57319SOL    HW173854   4.982   2.192  10.240
57319SOL    HW273855   5.062   2.243  10.121
57320SOL     OW73856   8.595  14.387   7.789
57320SOL    HW173857   8.510  14.384   7.745
57320SOL    HW273858   8.579  14.438   7.869
57321SOL     OW73859   8.453  10.451   9.180
57321SOL    HW173860   8.367  10.492   9.192
57321SOL    HW273861   8.515  10.518   9.208
57322SOL     OW73862   3.019   3.996  13.148
57322SOL    HW173863   3.076   4.057  13.196
57322SOL    HW273864   2.979   4.050  13.080
57323SOL     OW73865  14.477   6.107   6.936
57323SOL    HW173866  14.408   6.135   6.875
57323SOL    HW273867  14.559   6.135   6.894
57324SOL     OW73868   8.385  11.572   4.078
57324SOL    HW173869   8.319  11.635   4.106
57324SOL    HW273870   8.455  11.626   4.042
57325SOL     OW73871  10.985   1.393   2.053
57325SOL    HW173872  10.897   1.368   2.084
57325SOL    HW273873  10.975   1.484   2.024
57326SOL     OW73874  10.558   4.273   5.440
57326SOL    HW173875  10.518   4.199   5.394
57326SOL    HW273876  10.491   4.300   5.504
57327SOL     OW73877   3.406  10.555   4.533
57327SOL    HW173878   3.378  10.643   4.559
57327SOL    HW273879   3.483  10.537   4.587
57328SOL     OW73880   3.870  12.415  14.415
57328SOL    HW173881   3.813  12.430  14.340
57328SOL    HW273882   3.940  12.359  14.382
57329SOL     OW73883   8.220   9.616   6.246
57329SOL    HW173884   8.133   9.602   6.284
57329SOL    HW273885   8.245   9.530   6.214
57330SOL     OW73886  13.026   4.662   3.349
57330SOL    HW173887  12.978   4.697   3.424
57330SOL    HW273888  13.101   4.721   3.339
57331SOL     OW73889   1.362   3.164   5.989
57331SOL    HW173890   1.428   3.142   6.054
57331SOL    HW273891   1.329   3.079   5.959
57332SOL     OW73892  10.033  12.364   2.894
57332SOL    HW173893   9.997  12.303   2.830
57332SOL    HW273894   9.972  12.363   2.967
57333SOL     OW73895   6.839   2.477  12.941
57333SOL    HW173896   6.801   2.393  12.969
57333SOL    HW273897   6.839   2.531  13.021
57334SOL     OW73898   9.362   6.075   3.021
57334SOL    HW173899   9.444   6.125   3.020
57334SOL    HW273900   9.305   6.120   2.959
57335SOL     OW73901   7.876   9.351   7.116
57335SOL    HW173902   7.917   9.381   7.198
57335SOL    HW273903   7.810   9.288   7.144
57336SOL     OW73904  10.757   3.257  12.390
57336SOL    HW173905  10.715   3.324  12.336
57336SOL    HW273906  10.814   3.306  12.449
57337SOL     OW73907  11.778   0.426  13.173
57337SOL    HW173908  11.802   0.470  13.091
57337SOL    HW273909  11.706   0.369  13.150
57338SOL     OW73910   8.871   4.538   9.943
57338SOL    HW173911   8.931   4.524   9.869
57338SOL    HW273912   8.791   4.572   9.903
57339SOL     OW73913   1.958  12.527   5.298
57339SOL    HW173914   2.015  12.593   5.257
57339SOL    HW273915   1.985  12.444   5.259
57340SOL     OW73916   9.260   7.428  14.390
57340SOL    HW173917   9.201   7.401  14.460
57340SOL    HW273918   9.288   7.516  14.414
57341SOL     OW73919   1.480   8.350   2.212
57341SOL    HW173920   1.563   8.369   2.257
57341SOL    HW273921   1.439   8.282   2.266
57342SOL     OW73922   7.955  10.734   5.583
57342SOL    HW173923   8.020  10.686   5.532
57342SOL    HW273924   7.893  10.667   5.613
57343SOL     OW73925  12.719   5.785  14.618
57343SOL    HW173926  12.738   5.765  14.526
57343SOL    HW273927  12.784   5.733  14.666
57344SOL     OW73928   3.000  10.235   4.638
57344SOL    HW173929   2.964  10.171   4.700
57344SOL    HW273930   3.095  10.231   4.653
57345SOL     OW73931   2.917   0.012   0.895
57345SOL    HW173932   2.978   0.053   0.957
57345SOL    HW273933   2.948  14.794   0.888
57346SOL     OW73934   9.376  13.517   8.140
57346SOL    HW173935   9.402  13.589   8.083
57346SOL    HW273936   9.298  13.549   8.185
57347SOL     OW73937  10.498  14.152   1.439
57347SOL    HW173938  10.437  14.207   1.489
57347SOL    HW273939  10.456  14.141   1.354
57348SOL     OW73940   7.888   4.698  10.953
57348SOL    HW173941   7.973   4.678  10.994
57348SOL    HW273942   7.848   4.612  10.939
57349SOL     OW73943  13.889   0.024   7.584
57349SOL    HW173944  13.936  14.813   7.589
57349SOL    HW273945  13.901   0.052   7.494
57350SOL     OW73946   0.246   6.258  14.421
57350SOL    HW173947   0.264   6.346  14.387
57350SOL    HW273948   0.329   6.212  14.413
57351SOL     OW73949  12.958   2.089   6.206
57351SOL    HW173950  12.927   2.009   6.162
57351SOL    HW273951  13.052   2.088   6.193
57352SOL     OW73952   9.140   2.075   1.550
57352SOL    HW173953   9.082   2.063   1.626
57352SOL    HW273954   9.105   2.152   1.505
57353SOL     OW73955   8.980   0.264   9.073
57353SOL    HW173956   8.894   0.270   9.032
57353SOL    HW273957   9.002   0.354   9.097
57354SOL     OW73958   2.242  14.639   8.191
57354SOL    HW173959   2.194  14.558   8.205
57354SOL    HW273960   2.286  14.628   8.107
57355SOL     OW73961  11.873   8.040   3.491
57355SOL    HW173962  11.839   8.003   3.573
57355SOL    HW273963  11.799   8.034   3.430
57356SOL     OW73964  14.633  12.765  10.640
57356SOL    HW173965  14.601  12.823  10.709
57356SOL    HW273966  14.729  12.771  10.646
57357SOL     OW73967   7.882  14.468   8.124
57357SOL    HW173968   7.860  14.375   8.129
57357SOL    HW273969   7.813  14.506   8.069
57358SOL     OW73970  10.136  13.432  11.270
57358SOL    HW173971  10.145  13.485  11.349
57358SOL    HW273972  10.053  13.460  11.231
57359SOL     OW73973   5.480  12.708  10.166
57359SOL    HW173974   5.449  12.655  10.092
57359SOL    HW273975   5.478  12.798  10.134
57360SOL     OW73976   1.886   7.784   8.038
57360SOL    HW173977   1.948   7.779   7.965
57360SOL    HW273978   1.806   7.745   8.003
57361SOL     OW73979   3.981   0.349  14.454
57361SOL    HW173980   3.988   0.352  14.550
57361SOL    HW273981   4.071   0.355  14.423
57362SOL     OW73982   8.929  10.787  10.733
57362SOL    HW173983   8.839  10.771  10.704
57362SOL    HW273984   8.930  10.758  10.824
57363SOL     OW73985   2.339  12.036   0.405
57363SOL    HW173986   2.261  12.035   0.350
57363SOL    HW273987   2.368  11.945   0.407
57364SOL     OW73988   6.536   9.365   8.068
57364SOL    HW173989   6.465   9.369   8.003
57364SOL    HW273990   6.576   9.278   8.055
57365SOL     OW73991   3.300   9.623   8.396
57365SOL    HW173992   3.327   9.640   8.486
57365SOL    HW273993   3.378   9.637   8.343
57366SOL     OW73994   7.282   6.720  11.496
57366SOL    HW173995   7.269   6.770  11.577
57366SOL    HW273996   7.360   6.668  11.513
57367SOL     OW73997  12.725   5.899   7.285
57367SOL    HW173998  12.712   5.814   7.242
57367SOL    HW273999  12.735   5.961   7.213
57368SOL     OW74000   9.307   0.436  14.754
57368SOL    HW174001   9.358   0.496  14.808
57368SOL    HW274002   9.358   0.355  14.752
57369SOL     OW74003   1.847   9.960   3.352
57369SOL    HW174004   1.806  10.042   3.381
57369SOL    HW274005   1.916   9.988   3.291
57370SOL     OW74006   3.854   6.332   0.767
57370SOL    HW174007   3.795   6.339   0.842
57370SOL    HW274008   3.940   6.355   0.803
57371SOL     OW74009  10.383   0.364   6.547
57371SOL    HW174010  10.350   0.378   6.458
57371SOL    HW274011  10.348   0.437   6.597
57372SOL     OW74012  14.652   1.857  10.864
57372SOL    HW174013  14.726   1.796  10.860
57372SOL    HW274014  14.595   1.820  10.932
57373SOL     OW74015   5.754  13.369   1.309
57373SOL    HW174016   5.718  13.385   1.396
57373SOL    HW274017   5.678  13.376   1.251
57374SOL     OW74018   4.452  14.857   2.787
57374SOL    HW174019   4.546  14.843   2.790
57374SOL    HW274020   4.428   0.011   2.875
57375SOL     OW74021   3.061  12.824   2.400
57375SOL    HW174022   2.985  12.765   2.397
57375SOL    HW274023   3.097  12.811   2.488
57376SOL     OW74024   3.231   9.750   4.428
57376SOL    HW174025   3.277   9.833   4.442
57376SOL    HW274026   3.140   9.776   4.411
57377SOL     OW74027  12.914   4.168   0.564
57377SOL    HW174028  12.900   4.235   0.498
57377SOL    HW274029  12.922   4.216   0.646
57378SOL     OW74030  13.589   9.719  13.714
57378SOL    HW174031  13.509   9.751  13.756
57378SOL    HW274032  13.568   9.629  13.690
57379SOL     OW74033  12.635  11.872   5.926
57379SOL    HW174034  12.616  11.800   5.985
57379SOL    HW274035  12.581  11.945   5.958
57380SOL     OW74036  13.111  11.901   4.204
57380SOL    HW174037  13.122  11.822   4.151
57380SOL    HW274038  13.166  11.885   4.281
57381SOL     OW74039  10.763  10.403   0.155
57381SOL    HW174040  10.783  10.312   0.176
57381SOL    HW274041  10.697  10.429   0.219
57382SOL     OW74042  11.890   1.067   6.420
57382SOL    HW174043  11.895   1.003   6.491
57382SOL    HW274044  11.951   1.036   6.354
57383SOL     OW74045   5.195   6.380   7.779
57383SOL    HW174046   5.234   6.377   7.866
57383SOL    HW274047   5.101   6.371   7.794
57384SOL     OW74048   1.774   3.406  12.636
57384SOL    HW174049   1.786   3.331  12.694
57384SOL    HW274050   1.679   3.420  12.635
57385SOL     OW74051   2.473  11.746   4.578
57385SOL    HW174052   2.499  11.675   4.638
57385SOL    HW274053   2.538  11.814   4.594
57386SOL     OW74054  11.351   6.015   5.785
57386SOL    HW174055  11.291   6.086   5.808
57386SOL    HW274056  11.351   5.958   5.862
57387SOL     OW74057  11.400   4.582  14.473
57387SOL    HW174058  11.366   4.667  14.502
57387SOL    HW274059  11.493   4.586  14.493
57388SOL     OW74060   6.385  14.864   7.871
57388SOL    HW174061   6.351   0.037   7.794
57388SOL    HW274062   6.395   0.060   7.937
57389SOL     OW74063  13.445   7.200   3.748
57389SOL    HW174064  13.411   7.110   3.750
57389SOL    HW274065  13.500   7.207   3.825
57390SOL     OW74066   1.260   5.454   6.004
57390SOL    HW174067   1.352   5.472   5.990
57390SOL    HW274068   1.214   5.509   5.941
57391SOL     OW74069  14.296   5.577   9.741
57391SOL    HW174070  14.201   5.576   9.739
57391SOL    HW274071  14.322   5.487   9.722
57392SOL     OW74072  12.408   9.457   1.904
57392SOL    HW174073  12.387   9.376   1.951
57392SOL    HW274074  12.333   9.515   1.922
57393SOL     OW74075   7.824   9.343   0.606
57393SOL    HW174076   7.841   9.424   0.557
57393SOL    HW274077   7.807   9.372   0.695
57394SOL     OW74078   3.689   7.863  13.468
57394SOL    HW174079   3.614   7.826  13.422
57394SOL    HW274080   3.668   7.955  13.480
57395SOL     OW74081   6.689   5.186   8.417
57395SOL    HW174082   6.701   5.279   8.399
57395SOL    HW274083   6.775   5.156   8.445
57396SOL     OW74084   4.191   4.811   2.475
57396SOL    HW174085   4.221   4.843   2.561
57396SOL    HW274086   4.249   4.736   2.456
57397SOL     OW74087   3.215   9.588   2.211
57397SOL    HW174088   3.256   9.661   2.257
57397SOL    HW274089   3.272   9.513   2.228
57398SOL     OW74090   3.866  14.238   9.965
57398SOL    HW174091   3.905  14.310   9.917
57398SOL    HW274092   3.783  14.273   9.998
57399SOL     OW74093   6.164   6.004   4.429
57399SOL    HW174094   6.231   6.070   4.413
57399SOL    HW274095   6.113   6.039   4.502
57400SOL     OW74096   1.824  14.217   1.232
57400SOL    HW174097   1.792  14.302   1.202
57400SOL    HW274098   1.880  14.186   1.161
57401SOL     OW74099   8.822   9.799  12.295
57401SOL    HW174100   8.836   9.818  12.388
57401SOL    HW274101   8.828   9.885  12.252
57402SOL     OW74102   8.255   1.484   3.052
57402SOL    HW174103   8.215   1.551   3.107
57402SOL    HW274104   8.232   1.509   2.962
57403SOL     OW74105   2.943   4.084   9.196
57403SOL    HW174106   2.890   4.114   9.270
57403SOL    HW274107   3.033   4.087   9.229
57404SOL     OW74108  12.799  13.043   6.571
57404SOL    HW174109  12.895  13.046   6.572
57404SOL    HW274110  12.773  13.069   6.659
57405SOL     OW74111   8.190   9.980  12.300
57405SOL    HW174112   8.180  10.069  12.335
57405SOL    HW274113   8.141   9.982  12.217
57406SOL     OW74114  11.566   5.243   8.413
57406SOL    HW174115  11.635   5.242   8.479
57406SOL    HW274116  11.597   5.307   8.348
57407SOL     OW74117   4.675   8.576   7.708
57407SOL    HW174118   4.721   8.565   7.792
57407SOL    HW274119   4.616   8.501   7.703
57408SOL     OW74120   4.391   9.340   7.934
57408SOL    HW174121   4.420   9.296   7.854
57408SOL    HW274122   4.472   9.362   7.980
57409SOL     OW74123   3.867  10.616   8.539
57409SOL    HW174124   3.936  10.675   8.509
57409SOL    HW274125   3.911  10.531   8.548
57410SOL     OW74126   3.075  13.103   4.672
57410SOL    HW174127   3.001  13.049   4.699
57410SOL    HW274128   3.121  13.122   4.754
57411SOL     OW74129  11.493  14.502   2.176
57411SOL    HW174130  11.538  14.572   2.223
57411SOL    HW274131  11.401  14.509   2.202
57412SOL     OW74132   6.415   7.792   8.463
57412SOL    HW174133   6.426   7.773   8.370
57412SOL    HW274134   6.459   7.720   8.507
57413SOL     OW74135   1.107  10.613   9.312
57413SOL    HW174136   1.181  10.556   9.292
57413SOL    HW274137   1.100  10.671   9.236
57414SOL     OW74138   2.396   4.689   6.002
57414SOL    HW174139   2.408   4.741   6.082
57414SOL    HW274140   2.303   4.696   5.981
57415SOL     OW74141   3.505   6.823   3.365
57415SOL    HW174142   3.478   6.746   3.315
57415SOL    HW274143   3.438   6.832   3.433
57416SOL     OW74144  12.512   1.778   5.673
57416SOL    HW174145  12.536   1.863   5.709
57416SOL    HW274146  12.571   1.716   5.716
57417SOL     OW74147   8.965  10.873   6.568
57417SOL    HW174148   8.908  10.941   6.530
57417SOL    HW274149   9.021  10.920   6.630
57418SOL     OW74150   6.952   8.901  14.538
57418SOL    HW174151   6.879   8.853  14.578
57418SOL    HW274152   6.954   8.985  14.585
57419SOL     OW74153  10.010   6.637   2.089
57419SOL    HW174154  10.060   6.608   2.012
57419SOL    HW274155   9.919   6.625   2.064
57420SOL     OW74156   3.260   8.393  11.630
57420SOL    HW174157   3.269   8.309  11.584
57420SOL    HW274158   3.284   8.373  11.720
57421SOL     OW74159  13.155   0.005   7.901
57421SOL    HW174160  13.075  14.827   7.918
57421SOL    HW274161  13.161   0.008   7.806
57422SOL     OW74162   2.703   9.488  10.925
57422SOL    HW174163   2.628   9.534  10.965
57422SOL    HW274164   2.670   9.401  10.905
57423SOL     OW74165   5.731  10.631  13.838
57423SOL    HW174166   5.747  10.707  13.893
57423SOL    HW274167   5.779  10.649  13.757
57424SOL     OW74168   5.191   3.237   2.976
57424SOL    HW174169   5.286   3.231   2.988
57424SOL    HW274170   5.173   3.187   2.896
57425SOL     OW74171   4.852   2.399  10.470
57425SOL    HW174172   4.833   2.462  10.540
57425SOL    HW274173   4.947   2.395  10.466
57426SOL     OW74174  13.118   8.389   8.980
57426SOL    HW174175  13.184   8.373   8.913
57426SOL    HW274176  13.168   8.412   9.058
57427SOL     OW74177   2.002   9.773  14.420
57427SOL    HW174178   1.996   9.714  14.496
57427SOL    HW274179   2.089   9.758  14.384
57428SOL     OW74180   0.251   5.952  12.747
57428SOL    HW174181   0.175   5.896  12.766
57428SOL    HW274182   0.296   5.909  12.675
57429SOL     OW74183   1.694   0.589   0.164
57429SOL    HW174184   1.667   0.515   0.109
57429SOL    HW274185   1.618   0.606   0.219
57430SOL     OW74186  14.610   4.998  12.681
57430SOL    HW174187  14.543   4.959  12.625
57430SOL    HW274188  14.625   5.085  12.642
57431SOL     OW74189   9.551  11.233   9.152
57431SOL    HW174190   9.609  11.276   9.090
57431SOL    HW274191   9.593  11.149   9.171
57432SOL     OW74192  11.238   8.934  14.228
57432SOL    HW174193  11.230   9.029  14.237
57432SOL    HW274194  11.330   8.920  14.205
57433SOL     OW74195   7.392   3.065  14.031
57433SOL    HW174196   7.467   3.030  14.079
57433SOL    HW274197   7.400   3.160  14.040
57434SOL     OW74198   2.887  12.043   0.298
57434SOL    HW174199   2.922  11.959   0.268
57434SOL    HW274200   2.858  12.087   0.219
57435SOL     OW74201  10.072  13.425  12.893
57435SOL    HW174202  10.010  13.380  12.949
57435SOL    HW274203  10.121  13.355  12.849
57436SOL     OW74204  11.720   5.542  14.615
57436SOL    HW174205  11.805   5.586  14.620
57436SOL    HW274206  11.708   5.504  14.702
57437SOL     OW74207  13.027   2.931   7.401
57437SOL    HW174208  13.073   2.853   7.373
57437SOL    HW274209  13.004   2.977   7.320
57438SOL     OW74210   0.942   6.910   3.860
57438SOL    HW174211   0.896   6.993   3.853
57438SOL    HW274212   1.016   6.928   3.919
57439SOL     OW74213   2.503  13.961   0.029
57439SOL    HW174214   2.587  13.967   0.076
57439SOL    HW274215   2.474  13.870   0.043
57440SOL     OW74216  12.816  13.406  10.967
57440SOL    HW174217  12.777  13.337  11.022
57440SOL    HW274218  12.783  13.387  10.879
57441SOL     OW74219   4.560  13.067  11.070
57441SOL    HW174220   4.606  13.047  11.151
57441SOL    HW274221   4.606  13.018  11.003
57442SOL     OW74222  10.737   9.745   8.503
57442SOL    HW174223  10.732   9.820   8.443
57442SOL    HW274224  10.646   9.722   8.520
57443SOL     OW74225  13.165  12.013  10.042
57443SOL    HW174226  13.159  11.991   9.949
57443SOL    HW274227  13.195  12.103  10.044
57444SOL     OW74228   7.897  12.117   0.961
57444SOL    HW174229   7.897  12.110   0.865
57444SOL    HW274230   7.865  12.032   0.991
57445SOL     OW74231   7.825   6.539  12.732
57445SOL    HW174232   7.740   6.556  12.772
57445SOL    HW274233   7.847   6.450  12.758
57446SOL     OW74234   5.180  13.159  14.111
57446SOL    HW174235   5.249  13.168  14.046
57446SOL    HW274236   5.204  13.082  14.162
57447SOL     OW74237   8.785  12.300   8.373
57447SOL    HW174238   8.767  12.298   8.279
57447SOL    HW274239   8.720  12.241   8.411
57448SOL     OW74240   9.171   6.659  10.904
57448SOL    HW174241   9.149   6.618  10.988
57448SOL    HW274242   9.086   6.682  10.866
57449SOL     OW74243   4.092   6.874   2.137
57449SOL    HW174244   4.118   6.965   2.130
57449SOL    HW274245   4.144   6.828   2.071
57450SOL     OW74246  13.420  12.972   4.210
57450SOL    HW174247  13.426  13.065   4.233
57450SOL    HW274248  13.510  12.945   4.195
57451SOL     OW74249   5.122   3.945  12.618
57451SOL    HW174250   5.182   3.992  12.676
57451SOL    HW274251   5.043   3.931  12.670
57452SOL     OW74252   4.412   9.697   4.878
57452SOL    HW174253   4.410   9.784   4.837
57452SOL    HW274254   4.381   9.713   4.967
57453SOL     OW74255   1.587  12.252  10.314
57453SOL    HW174256   1.527  12.292  10.251
57453SOL    HW274257   1.580  12.307  10.392
57454SOL     OW74258  13.521  13.579   8.555
57454SOL    HW174259  13.493  13.620   8.637
57454SOL    HW274260  13.586  13.515   8.581
57455SOL     OW74261  13.870   0.394   6.698
57455SOL    HW174262  13.861   0.429   6.610
57455SOL    HW274263  13.935   0.451   6.740
57456SOL     OW74264   3.056   5.161  13.294
57456SOL    HW174265   2.976   5.133  13.249
57456SOL    HW274266   3.065   5.100  13.367
57457SOL     OW74267   7.901   4.113   1.455
57457SOL    HW174268   7.964   4.147   1.519
57457SOL    HW274269   7.905   4.018   1.465
57458SOL     OW74270  13.085   1.796  12.322
57458SOL    HW174271  13.087   1.800  12.418
57458SOL    HW274272  13.175   1.817  12.296
57459SOL     OW74273   1.864  14.156   6.951
57459SOL    HW174274   1.884  14.139   6.859
57459SOL    HW274275   1.822  14.242   6.951
57460SOL     OW74276   7.959   0.856   8.038
57460SOL    HW174277   8.055   0.865   8.032
57460SOL    HW274278   7.942   0.852   8.132
57461SOL     OW74279   3.040   0.375   3.719
57461SOL    HW174280   3.021   0.325   3.639
57461SOL    HW274281   2.957   0.378   3.766
57462SOL     OW74282   5.767  11.465   4.302
57462SOL    HW174283   5.763  11.386   4.248
57462SOL    HW274284   5.858  11.493   4.296
57463SOL     OW74285  12.033   3.568   3.334
57463SOL    HW174286  12.031   3.487   3.284
57463SOL    HW274287  12.120   3.570   3.373
57464SOL     OW74288   7.380   6.797   0.764
57464SOL    HW174289   7.355   6.769   0.853
57464SOL    HW274290   7.338   6.882   0.754
57465SOL     OW74291   0.067  12.706  14.160
57465SOL    HW174292   0.095  12.622  14.196
57465SOL    HW274293   0.118  12.716  14.080
57466SOL     OW74294   9.830   6.608  11.689
57466SOL    HW174295   9.818   6.696  11.726
57466SOL    HW274296   9.827   6.622  11.595
57467SOL     OW74297  13.670   1.481  14.735
57467SOL    HW174298  13.724   1.535  14.793
57467SOL    HW274299  13.693   1.391  14.758
57468SOL     OW74300   7.651   0.189   7.057
57468SOL    HW174301   7.711   0.126   7.016
57468SOL    HW274302   7.580   0.200   6.994
57469SOL     OW74303   7.406   4.592   7.108
57469SOL    HW174304   7.460   4.515   7.091
57469SOL    HW274305   7.452   4.664   7.067
57470SOL     OW74306   5.274   5.380   0.426
57470SOL    HW174307   5.212   5.387   0.353
57470SOL    HW274308   5.219   5.383   0.505
57471SOL     OW74309   4.504  13.476   5.852
57471SOL    HW174310   4.542  13.497   5.937
57471SOL    HW274311   4.463  13.557   5.823
57472SOL     OW74312  10.562   9.386  14.034
57472SOL    HW174313  10.563   9.462  14.092
57472SOL    HW274314  10.652   9.379  14.002
57473SOL     OW74315   9.615   4.955   3.130
57473SOL    HW174316   9.615   4.864   3.161
57473SOL    HW274317   9.540   4.960   3.071
57474SOL     OW74318   5.750  11.348   0.845
57474SOL    HW174319   5.776  11.430   0.802
57474SOL    HW274320   5.660  11.333   0.815
57475SOL     OW74321   3.617  13.736   5.527
57475SOL    HW174322   3.580  13.659   5.484
57475SOL    HW274323   3.678  13.772   5.464
57476SOL     OW74324   2.161   8.620   7.332
57476SOL    HW174325   2.157   8.572   7.415
57476SOL    HW274326   2.204   8.702   7.354
57477SOL     OW74327   2.901  13.974  11.064
57477SOL    HW174328   2.973  13.939  11.012
57477SOL    HW274329   2.877  13.903  11.123
57478SOL     OW74330   1.893  14.620  14.417
57478SOL    HW174331   1.947  14.543  14.436
57478SOL    HW274332   1.804  14.584  14.407
57479SOL     OW74333   6.005   5.479  10.940
57479SOL    HW174334   5.924   5.529  10.952
57479SOL    HW274335   6.023   5.442  11.026
57480SOL     OW74336   7.666   0.561  12.552
57480SOL    HW174337   7.729   0.605  12.608
57480SOL    HW274338   7.719   0.521  12.483
57481SOL     OW74339   1.492   7.383   4.864
57481SOL    HW174340   1.555   7.403   4.795
57481SOL    HW274341   1.412   7.428   4.837
57482SOL     OW74342   1.675   2.591   0.879
57482SOL    HW174343   1.716   2.507   0.859
57482SOL    HW274344   1.722   2.622   0.956
57483SOL     OW74345   4.724   9.316   6.536
57483SOL    HW174346   4.752   9.366   6.459
57483SOL    HW274347   4.707   9.228   6.502
57484SOL     OW74348  11.480   1.224   7.808
57484SOL    HW174349  11.453   1.292   7.871
57484SOL    HW274350  11.537   1.167   7.859
57485SOL     OW74351   3.200  12.576   2.730
57485SOL    HW174352   3.171  12.664   2.753
57485SOL    HW274353   3.137  12.517   2.771
57486SOL     OW74354  12.500   7.268  12.567
57486SOL    HW174355  12.475   7.316  12.645
57486SOL    HW274356  12.428   7.282  12.505
57487SOL     OW74357   2.040  11.227   9.002
57487SOL    HW174358   2.009  11.240   8.912
57487SOL    HW274359   1.988  11.154   9.035
57488SOL     OW74360  11.348   3.419   5.861
57488SOL    HW174361  11.425   3.404   5.916
57488SOL    HW274362  11.379   3.404   5.772
57489SOL     OW74363   8.209   4.523   5.317
57489SOL    HW174364   8.205   4.506   5.222
57489SOL    HW274365   8.135   4.475   5.353
57490SOL     OW74366   4.563  14.218   4.246
57490SOL    HW174367   4.569  14.300   4.198
57490SOL    HW274368   4.640  14.168   4.217
57491SOL     OW74369   3.874  10.100   8.095
57491SOL    HW174370   3.867  10.129   8.004
57491SOL    HW274371   3.967  10.108   8.116
57492SOL     OW74372   1.877  14.396  10.049
57492SOL    HW174373   1.844  14.342  10.121
57492SOL    HW274374   1.842  14.354   9.970
57493SOL     OW74375   3.534   0.086   6.847
57493SOL    HW174376   3.537   0.005   6.898
57493SOL    HW274377   3.454   0.130   6.877
57494SOL     OW74378   0.456  11.381  12.633
57494SOL    HW174379   0.361  11.380  12.622
57494SOL    HW274380   0.485  11.295  12.601
57495SOL     OW74381  13.688   6.900  11.417
57495SOL    HW174382  13.743   6.834  11.460
57495SOL    HW274383  13.637   6.851  11.352
57496SOL     OW74384  13.974   2.520  13.945
57496SOL    HW174385  13.888   2.540  13.908
57496SOL    HW274386  13.983   2.579  14.020
57497SOL     OW74387   7.264   4.299   9.164
57497SOL    HW174388   7.268   4.215   9.209
57497SOL    HW274389   7.243   4.277   9.073
57498SOL     OW74390  11.296   8.384   6.494
57498SOL    HW174391  11.389   8.399   6.508
57498SOL    HW274392  11.286   8.288   6.493
57499SOL     OW74393   7.312   9.875  12.658
57499SOL    HW174394   7.326   9.960  12.615
57499SOL    HW274395   7.238   9.889  12.716
57500SOL     OW74396  12.004   0.746  10.090
57500SOL    HW174397  11.960   0.702  10.162
57500SOL    HW274398  12.091   0.707  10.087
57501SOL     OW74399   9.731   9.018   1.717
57501SOL    HW174400   9.771   8.938   1.751
57501SOL    HW274401   9.786   9.043   1.643
57502SOL     OW74402   2.485  11.638  14.676
57502SOL    HW174403   2.470  11.732  14.669
57502SOL    HW274404   2.528  11.627  14.761
57503SOL     OW74405   6.451   0.112   8.358
57503SOL    HW174406   6.474   0.122   8.450
57503SOL    HW274407   6.476   0.021   8.337
57504SOL     OW74408   0.464   3.254   6.131
57504SOL    HW174409   0.475   3.193   6.058
57504SOL    HW274410   0.435   3.336   6.090
57505SOL     OW74411  11.007  12.474   7.922
57505SOL    HW174412  11.093  12.516   7.920
57505SOL    HW274413  10.982  12.476   8.014
57506SOL     OW74414   8.972   6.387  10.277
57506SOL    HW174415   8.909   6.458  10.268
57506SOL    HW274416   9.015   6.403  10.360
57507SOL     OW74417  12.959   1.510   5.781
57507SOL    HW174418  13.020   1.558   5.726
57507SOL    HW274419  12.974   1.544   5.869
57508SOL     OW74420   7.233  10.596  10.945
57508SOL    HW174421   7.179  10.637  10.877
57508SOL    HW274422   7.303  10.552  10.898
57509SOL     OW74423  11.221   4.048  13.907
57509SOL    HW174424  11.275   3.974  13.936
57509SOL    HW274425  11.134   4.010  13.895
57510SOL     OW74426  14.194   0.331  12.772
57510SOL    HW174427  14.165   0.409  12.820
57510SOL    HW274428  14.279   0.356  12.736
57511SOL     OW74429  10.584  10.078  12.227
57511SOL    HW174430  10.596  10.171  12.247
57511SOL    HW274431  10.496  10.072  12.190
57512SOL     OW74432  11.211   1.408   2.380
57512SOL    HW174433  11.220   1.315   2.401
57512SOL    HW274434  11.245   1.416   2.291
57513SOL     OW74435   7.740   6.309   8.139
57513SOL    HW174436   7.719   6.313   8.232
57513SOL    HW274437   7.657   6.325   8.095
57514SOL     OW74438  12.056   8.151  13.896
57514SOL    HW174439  11.994   8.158  13.823
57514SOL    HW274440  12.138   8.185  13.860
57515SOL     OW74441  12.756   9.445   6.324
57515SOL    HW174442  12.764   9.400   6.241
57515SOL    HW274443  12.833   9.501   6.329
57516SOL     OW74444   6.908   2.582   1.757
57516SOL    HW174445   6.854   2.560   1.681
57516SOL    HW274446   6.885   2.673   1.777
57517SOL     OW74447   5.416   5.634   2.602
57517SOL    HW174448   5.434   5.686   2.680
57517SOL    HW274449   5.322   5.618   2.604
57518SOL     OW74450  14.852  13.644  14.515
57518SOL    HW174451   0.014  13.627  14.602
57518SOL    HW274452  14.784  13.577  14.502
57519SOL     OW74453   1.723   8.568   4.313
57519SOL    HW174454   1.810   8.595   4.283
57519SOL    HW274455   1.676   8.547   4.232
57520SOL     OW74456   8.138   9.507   9.538
57520SOL    HW174457   8.065   9.526   9.479
57520SOL    HW274458   8.112   9.426   9.582
57521SOL     OW74459   9.440   8.341   8.013
57521SOL    HW174460   9.440   8.347   7.918
57521SOL    HW274461   9.505   8.273   8.033
57522SOL     OW74462   8.266   1.231   7.379
57522SOL    HW174463   8.347   1.266   7.416
57522SOL    HW274464   8.199   1.252   7.444
57523SOL     OW74465  14.508   7.094   2.759
57523SOL    HW174466  14.456   7.057   2.689
57523SOL    HW274467  14.463   7.068   2.839
57524SOL     OW74468   8.199   6.094  13.685
57524SOL    HW174469   8.270   6.059  13.632
57524SOL    HW274470   8.214   6.189  13.687
57525SOL     OW74471   8.710   2.766   5.292
57525SOL    HW174472   8.643   2.831   5.270
57525SOL    HW274473   8.664   2.682   5.288
57526SOL     OW74474   9.944   0.679  10.523
57526SOL    HW174475   9.915   0.694  10.613
57526SOL    HW274476  10.039   0.668  10.530
57527SOL     OW74477   1.201   5.739   4.645
57527SOL    HW174478   1.260   5.788   4.587
57527SOL    HW274479   1.158   5.677   4.587
57528SOL     OW74480  13.286  12.272   6.819
57528SOL    HW174481  13.201  12.309   6.795
57528SOL    HW274482  13.315  12.325   6.893
57529SOL     OW74483   9.947   4.990  12.893
57529SOL    HW174484   9.918   5.040  12.969
57529SOL    HW274485   9.907   5.035  12.818
57530SOL     OW74486   3.015   9.309   0.258
57530SOL    HW174487   2.938   9.255   0.277
57530SOL    HW274488   3.067   9.256   0.198
57531SOL     OW74489   4.076  12.706  10.052
57531SOL    HW174490   4.026  12.784  10.076
57531SOL    HW274491   4.158  12.715  10.102
57532SOL     OW74492  12.627   3.696  14.132
57532SOL    HW174493  12.721   3.713  14.125
57532SOL    HW274494  12.601   3.667  14.045
57533SOL     OW74495   9.664   6.091  10.664
57533SOL    HW174496   9.619   6.036  10.728
57533SOL    HW274497   9.632   6.180  10.681
57534SOL     OW74498   0.425   8.586   4.529
57534SOL    HW174499   0.506   8.635   4.516
57534SOL    HW274500   0.418   8.574   4.623
57535SOL     OW74501   4.332  12.093   2.418
57535SOL    HW174502   4.418  12.062   2.449
57535SOL    HW274503   4.269  12.036   2.462
57536SOL     OW74504   6.387  11.803   3.838
57536SOL    HW174505   6.293  11.812   3.855
57536SOL    HW274506   6.430  11.843   3.914
57537SOL     OW74507   9.765   5.192  12.216
57537SOL    HW174508   9.828   5.136  12.170
57537SOL    HW274509   9.818   5.249  12.271
57538SOL     OW74510  11.582  14.764   4.623
57538SOL    HW174511  11.666  14.792   4.587
57538SOL    HW274512  11.605  14.696   4.686
57539SOL     OW74513   1.418   4.989   1.601
57539SOL    HW174514   1.485   5.027   1.544
57539SOL    HW274515   1.351   5.057   1.607
57540SOL     OW74516   2.158  14.386   1.780
57540SOL    HW174517   2.133  14.408   1.870
57540SOL    HW274518   2.237  14.437   1.763
57541SOL     OW74519  11.666   3.569   3.225
57541SOL    HW174520  11.686   3.512   3.151
57541SOL    HW274521  11.613   3.640   3.188
57542SOL     OW74522   6.143   1.214   0.258
57542SOL    HW174523   6.219   1.178   0.302
57542SOL    HW274524   6.177   1.289   0.209
57543SOL     OW74525  14.278   0.327   6.833
57543SOL    HW174526  14.369   0.332   6.801
57543SOL    HW274527  14.281   0.370   6.918
57544SOL     OW74528   0.435   6.800   7.227
57544SOL    HW174529   0.493   6.867   7.263
57544SOL    HW274530   0.456   6.797   7.134
57545SOL     OW74531  13.467   0.547   7.776
57545SOL    HW174532  13.497   0.540   7.686
57545SOL    HW274533  13.546   0.562   7.827
57546SOL     OW74534   8.492   7.027  12.370
57546SOL    HW174535   8.511   6.935  12.388
57546SOL    HW274536   8.535   7.044  12.286
57547SOL     OW74537  11.201  11.270   5.895
57547SOL    HW174538  11.241  11.346   5.937
57547SOL    HW274539  11.215  11.285   5.801
57548SOL     OW74540  13.490  14.116   4.132
57548SOL    HW174541  13.466  14.201   4.096
57548SOL    HW274542  13.440  14.109   4.214
57549SOL     OW74543   8.944   5.561  11.306
57549SOL    HW174544   9.022   5.616  11.316
57549SOL    HW274545   8.972   5.474  11.336
57550SOL     OW74546   4.264   9.113  13.244
57550SOL    HW174547   4.200   9.183  13.256
57550SOL    HW274548   4.308   9.134  13.162
57551SOL     OW74549   2.808  14.574   8.432
57551SOL    HW174550   2.787  14.488   8.395
57551SOL    HW274551   2.724  14.620   8.435
57552SOL     OW74552  13.164   8.030   4.149
57552SOL    HW174553  13.186   7.937   4.142
57552SOL    HW274554  13.198   8.055   4.236
57553SOL     OW74555  13.128  11.926   7.830
57553SOL    HW174556  13.044  11.896   7.864
57553SOL    HW274557  13.122  12.021   7.829
57554SOL     OW74558   6.728   1.930  10.804
57554SOL    HW174559   6.650   1.948  10.752
57554SOL    HW274560   6.774   2.014  10.808
57555SOL     OW74561   9.695   1.973  12.316
57555SOL    HW174562   9.697   2.011  12.229
57555SOL    HW274563   9.688   1.879  12.301
57556SOL     OW74564  14.052  11.561   4.270
57556SOL    HW174565  13.966  11.602   4.267
57556SOL    HW274566  14.112  11.627   4.235
57557SOL     OW74567   2.684   4.386   1.671
57557SOL    HW174568   2.607   4.365   1.723
57557SOL    HW274569   2.653   4.383   1.580
57558SOL     OW74570   9.521   1.236   8.089
57558SOL    HW174571   9.508   1.278   8.174
57558SOL    HW274572   9.552   1.306   8.032
57559SOL     OW74573  12.309   8.357   4.514
57559SOL    HW174574  12.318   8.395   4.602
57559SOL    HW274575  12.399   8.339   4.487
57560SOL     OW74576   0.733  13.231   3.290
57560SOL    HW174577   0.664  13.244   3.225
57560SOL    HW274578   0.793  13.304   3.277
57561SOL     OW74579  14.627   4.243   2.203
57561SOL    HW174580  14.606   4.180   2.271
57561SOL    HW274581  14.579   4.213   2.126
57562SOL     OW74582   2.621  12.410   8.852
57562SOL    HW174583   2.531  12.388   8.876
57562SOL    HW274584   2.619  12.419   8.757
57563SOL     OW74585  11.237   8.772   6.291
57563SOL    HW174586  11.253   8.843   6.228
57563SOL    HW274587  11.169   8.719   6.249
57564SOL     OW74588   7.500  10.114   0.047
57564SOL    HW174589   7.457  10.146  14.840
57564SOL    HW274590   7.591  10.139   0.037
57565SOL     OW74591  11.779   3.463  10.301
57565SOL    HW174592  11.766   3.550  10.337
57565SOL    HW274593  11.751   3.470  10.210
57566SOL     OW74594  14.198   6.732   8.674
57566SOL    HW174595  14.145   6.766   8.602
57566SOL    HW274596  14.134   6.701   8.738
57567SOL     OW74597   6.543  11.777   7.649
57567SOL    HW174598   6.498  11.796   7.567
57567SOL    HW274599   6.543  11.860   7.697
57568SOL     OW74600   7.147   4.772   9.461
57568SOL    HW174601   7.098   4.780   9.543
57568SOL    HW274602   7.136   4.681   9.435
57569SOL     OW74603   1.179   2.089   8.494
57569SOL    HW174604   1.133   2.017   8.536
57569SOL    HW274605   1.230   2.130   8.563
57570SOL     OW74606   9.120  11.706  13.511
57570SOL    HW174607   9.071  11.626  13.532
57570SOL    HW274608   9.170  11.683  13.433
57571SOL     OW74609  12.505   6.990  11.492
57571SOL    HW174610  12.543   7.034  11.416
57571SOL    HW274611  12.418   6.964  11.464
57572SOL     OW74612   6.905  13.500   6.743
57572SOL    HW174613   6.829  13.558   6.745
57572SOL    HW274614   6.898  13.447   6.822
57573SOL     OW74615   6.072   8.219   7.434
57573SOL    HW174616   6.048   8.169   7.512
57573SOL    HW274617   6.122   8.293   7.468
57574SOL     OW74618   6.932   1.544   1.920
57574SOL    HW174619   6.932   1.525   1.826
57574SOL    HW274620   6.840   1.551   1.943
57575SOL     OW74621  10.982   4.963  10.135
57575SOL    HW174622  10.969   5.026  10.207
57575SOL    HW274623  11.037   4.895  10.173
57576SOL     OW74624  10.528   6.610  10.658
57576SOL    HW174625  10.525   6.527  10.609
57576SOL    HW274626  10.587   6.665  10.607
57577SOL     OW74627  10.226  13.500   6.996
57577SOL    HW174628  10.163  13.440   7.038
57577SOL    HW274629  10.203  13.497   6.903
57578SOL     OW74630  12.625  14.348  14.226
57578SOL    HW174631  12.647  14.260  14.256
57578SOL    HW274632  12.598  14.394  14.306
57579SOL     OW74633   2.908  14.205  11.691
57579SOL    HW174634   2.999  14.175  11.697
57579SOL    HW274635   2.857  14.125  11.681
57580SOL     OW74636   5.441  11.270   6.491
57580SOL    HW174637   5.526  11.235   6.462
57580SOL    HW274638   5.379  11.199   6.474
57581SOL     OW74639  10.129   8.959  10.526
57581SOL    HW174640  10.121   8.872  10.485
57581SOL    HW274641  10.048   9.004  10.502
57582SOL     OW74642   1.177   9.220   6.212
57582SOL    HW174643   1.105   9.250   6.157
57582SOL    HW274644   1.143   9.140   6.253
57583SOL     OW74645   1.436  14.592   8.202
57583SOL    HW174646   1.491  14.535   8.256
57583SOL    HW274647   1.487  14.606   8.122
57584SOL     OW74648   3.543   9.849  10.176
57584SOL    HW174649   3.589   9.765  10.187
57584SOL    HW274650   3.467   9.841  10.234
57585SOL     OW74651   1.370  13.829   5.536
57585SOL    HW174652   1.432  13.882   5.586
57585SOL    HW274653   1.328  13.773   5.601
57586SOL     OW74654   3.018   1.384  10.428
57586SOL    HW174655   2.964   1.462  10.440
57586SOL    HW274656   2.968   1.330  10.367
57587SOL     OW74657  10.799  12.528   8.903
57587SOL    HW174658  10.880  12.540   8.853
57587SOL    HW274659  10.822  12.555   8.992
57588SOL     OW74660   6.443   7.684   5.803
57588SOL    HW174661   6.524   7.733   5.790
57588SOL    HW274662   6.461   7.627   5.877
57589SOL     OW74663   0.285  14.383  10.099
57589SOL    HW174664   0.215  14.345  10.045
57589SOL    HW274665   0.253  14.372  10.189
57590SOL     OW74666   4.789   4.363  10.600
57590SOL    HW174667   4.719   4.324  10.549
57590SOL    HW274668   4.869   4.328  10.562
57591SOL     OW74669   4.877   8.487  14.471
57591SOL    HW174670   4.895   8.518  14.559
57591SOL    HW274671   4.798   8.434  14.480
57592SOL     OW74672   3.934   3.733   7.565
57592SOL    HW174673   3.882   3.722   7.485
57592SOL    HW274674   3.981   3.650   7.574
57593SOL     OW74675  13.384   7.171   4.184
57593SOL    HW174676  13.367   7.107   4.253
57593SOL    HW274677  13.406   7.252   4.230
57594SOL     OW74678  14.563   7.532  14.789
57594SOL    HW174679  14.587   7.616  14.750
57594SOL    HW274680  14.634   7.514  14.851
57595SOL     OW74681  12.485   1.049   6.264
57595SOL    HW174682  12.505   1.118   6.201
57595SOL    HW274683  12.570   1.023   6.299
57596SOL     OW74684   1.990   8.129   9.061
57596SOL    HW174685   1.977   8.217   9.095
57596SOL    HW274686   2.033   8.082   9.133
57597SOL     OW74687   8.204   1.449   4.488
57597SOL    HW174688   8.264   1.414   4.422
57597SOL    HW274689   8.142   1.378   4.504
57598SOL     OW74690   2.278  14.612   1.471
57598SOL    HW174691   2.329  14.539   1.505
57598SOL    HW274692   2.195  14.609   1.518
57599SOL     OW74693   7.776   2.226  12.439
57599SOL    HW174694   7.735   2.297  12.489
57599SOL    HW274695   7.858   2.264  12.408
57600SOL     OW74696   1.718   4.133  10.243
57600SOL    HW174697   1.743   4.223  10.263
57600SOL    HW274698   1.768   4.080  10.305
57601SOL     OW74699  10.831   5.747   7.220
57601SOL    HW174700  10.850   5.690   7.294
57601SOL    HW274701  10.903   5.811   7.219
57602SOL     OW74702   6.389   6.493  10.589
57602SOL    HW174703   6.305   6.535  10.607
57602SOL    HW274704   6.403   6.506  10.495
57603SOL     OW74705   1.139  13.933   9.995
57603SOL    HW174706   1.056  13.888  10.010
57603SOL    HW274707   1.176  13.945  10.083
57604SOL     OW74708  11.575   8.911   0.326
57604SOL    HW174709  11.583   8.816   0.313
57604SOL    HW274710  11.649   8.948   0.277
57605SOL     OW74711  10.009   1.636   1.266
57605SOL    HW174712  10.028   1.684   1.186
57605SOL    HW274713   9.918   1.659   1.286
57606SOL     OW74714   0.309   4.562   3.035
57606SOL    HW174715   0.383   4.577   2.977
57606SOL    HW274716   0.280   4.649   3.061
57607SOL     OW74717  11.830   5.001   4.693
57607SOL    HW174718  11.773   5.075   4.672
57607SOL    HW274719  11.888   5.035   4.761
57608SOL     OW74720  13.864  10.869   5.275
57608SOL    HW174721  13.844  10.794   5.219
57608SOL    HW274722  13.789  10.876   5.334
57609SOL     OW74723   4.826   0.423   7.557
57609SOL    HW174724   4.805   0.404   7.465
57609SOL    HW274725   4.914   0.462   7.553
57610SOL     OW74726  10.606  13.833   9.677
57610SOL    HW174727  10.688  13.856   9.720
57610SOL    HW274728  10.558  13.782   9.742
57611SOL     OW74729   9.363   4.095   1.526
57611SOL    HW174730   9.442   4.145   1.507
57611SOL    HW274731   9.387   4.037   1.598
57612SOL     OW74732   6.680   6.337   2.580
57612SOL    HW174733   6.775   6.342   2.570
57612SOL    HW274734   6.652   6.271   2.518
57613SOL     OW74735  13.853  11.799  12.762
57613SOL    HW174736  13.790  11.871  12.772
57613SOL    HW274737  13.906  11.824  12.686
57614SOL     OW74738   2.032   7.241  12.515
57614SOL    HW174739   2.012   7.279  12.430
57614SOL    HW274740   2.128   7.242  12.520
57615SOL     OW74741   4.256  12.506   4.785
57615SOL    HW174742   4.210  12.424   4.804
57615SOL    HW274743   4.257  12.510   4.689
57616SOL     OW74744  12.257  13.267   1.936
57616SOL    HW174745  12.309  13.192   1.964
57616SOL    HW274746  12.229  13.309   2.017
57617SOL     OW74747  10.177  12.930  14.305
57617SOL    HW174748  10.260  12.940  14.259
57617SOL    HW274749  10.201  12.895  14.391
57618SOL     OW74750   9.909   2.989   9.413
57618SOL    HW174751   9.921   2.905   9.456
57618SOL    HW274752   9.883   3.049   9.483
57619SOL     OW74753   0.025   0.529   8.512
57619SOL    HW174754  14.810   0.558   8.484
57619SOL    HW274755   0.081   0.547   8.437
57620SOL     OW74756   4.708  10.142   0.608
57620SOL    HW174757   4.681  10.050   0.607
57620SOL    HW274758   4.639  10.186   0.658
57621SOL     OW74759  11.850   4.127   6.427
57621SOL    HW174760  11.856   4.220   6.449
57621SOL    HW274761  11.802   4.087   6.499
57622SOL     OW74762   9.025  11.764  14.456
57622SOL    HW174763   9.090  11.830  14.480
57622SOL    HW274764   8.956  11.773  14.522
57623SOL     OW74765  14.088   2.452   8.264
57623SOL    HW174766  14.111   2.521   8.328
57623SOL    HW274767  14.060   2.379   8.318
57624SOL     OW74768   4.133  13.860  13.543
57624SOL    HW174769   4.088  13.925  13.490
57624SOL    HW274770   4.149  13.787  13.483
57625SOL     OW74771   4.045  13.919   4.185
57625SOL    HW174772   4.038  14.014   4.185
57625SOL    HW274773   4.104  13.899   4.258
57626SOL     OW74774   3.035   3.866   9.640
57626SOL    HW174775   2.968   3.912   9.589
57626SOL    HW274776   2.988   3.791   9.679
57627SOL     OW74777   7.311   2.575  11.741
57627SOL    HW174778   7.370   2.500  11.745
57627SOL    HW274779   7.356   2.639  11.686
57628SOL     OW74780   9.703   9.292   4.166
57628SOL    HW174781   9.715   9.233   4.240
57628SOL    HW274782   9.610   9.283   4.144
57629SOL     OW74783   9.723  14.115   3.490
57629SOL    HW174784   9.671  14.054   3.542
57629SOL    HW274785   9.725  14.195   3.542
57630SOL     OW74786   7.018  14.259   4.609
57630SOL    HW174787   7.111  14.281   4.601
57630SOL    HW274788   7.014  14.165   4.593
57631SOL     OW74789   1.052   0.234  10.419
57631SOL    HW174790   1.105   0.177  10.364
57631SOL    HW274791   1.040   0.184  10.500
57632SOL     OW74792   2.489   9.456  14.508
57632SOL    HW174793   2.401   9.488  14.528
57632SOL    HW274794   2.482   9.361  14.513
57633SOL     OW74795   5.172  14.576  10.746
57633SOL    HW174796   5.100  14.625  10.786
57633SOL    HW274797   5.251  14.610  10.788
57634SOL     OW74798   2.849   9.833   0.984
57634SOL    HW174799   2.871   9.788   1.066
57634SOL    HW274800   2.921   9.811   0.925
57635SOL     OW74801   7.917   8.134   8.263
57635SOL    HW174802   7.930   8.043   8.291
57635SOL    HW274803   8.003   8.174   8.270
57636SOL     OW74804   6.556   5.637  12.434
57636SOL    HW174805   6.485   5.597  12.384
57636SOL    HW274806   6.619   5.566  12.447
57637SOL     OW74807   5.781   8.141  12.608
57637SOL    HW174808   5.829   8.060  12.589
57637SOL    HW274809   5.825   8.208  12.555
57638SOL     OW74810   4.775  10.962   2.821
57638SOL    HW174811   4.709  10.947   2.753
57638SOL    HW274812   4.818  10.877   2.832
57639SOL     OW74813   9.068  10.050   3.273
57639SOL    HW174814   8.997  10.011   3.325
57639SOL    HW274815   9.089  10.132   3.319
57640SOL     OW74816   9.702  12.983  14.698
57640SOL    HW174817   9.789  12.953  14.724
57640SOL    HW274818   9.697  12.964  14.604
57641SOL     OW74819   0.553  12.855   5.718
57641SOL    HW174820   0.520  12.878   5.805
57641SOL    HW274821   0.613  12.927   5.695
57642SOL     OW74822   9.133   6.478   7.146
57642SOL    HW174823   9.136   6.450   7.237
57642SOL    HW274824   9.199   6.547   7.140
57643SOL     OW74825   6.854   4.030   7.333
57643SOL    HW174826   6.840   4.125   7.334
57643SOL    HW274827   6.924   4.016   7.396
57644SOL     OW74828   9.664   6.618  14.532
57644SOL    HW174829   9.642   6.688  14.593
57644SOL    HW274830   9.759   6.608  14.538
57645SOL     OW74831  14.367   0.015   3.527
57645SOL    HW174832  14.389   0.037   3.436
57645SOL    HW274833  14.286   0.062   3.544
57646SOL     OW74834  12.387   1.647   8.704
57646SOL    HW174835  12.300   1.607   8.707
57646SOL    HW274836  12.370   1.741   8.696
57647SOL     OW74837  14.777   8.646  12.739
57647SOL    HW174838  14.756   8.579  12.674
57647SOL    HW274839  14.707   8.641  12.803
57648SOL     OW74840   6.956   6.956   3.809
57648SOL    HW174841   7.021   6.901   3.765
57648SOL    HW274842   6.974   6.943   3.902
57649SOL     OW74843   1.509   6.144  11.187
57649SOL    HW174844   1.497   6.239  11.185
57649SOL    HW274845   1.470   6.117  11.270
57650SOL     OW74846   7.783   7.395  13.629
57650SOL    HW174847   7.792   7.415  13.722
57650SOL    HW274848   7.814   7.305  13.621
57651SOL     OW74849   2.348  11.481   6.503
57651SOL    HW174850   2.408  11.410   6.524
57651SOL    HW274851   2.396  11.537   6.442
57652SOL     OW74852   2.108   8.538   4.991
57652SOL    HW174853   2.016   8.529   4.968
57652SOL    HW274854   2.130   8.455   5.033
57653SOL     OW74855   3.384   1.745   4.526
57653SOL    HW174856   3.324   1.818   4.512
57653SOL    HW274857   3.331   1.667   4.510
57654SOL     OW74858   1.788  14.197   9.149
57654SOL    HW174859   1.797  14.287   9.117
57654SOL    HW274860   1.702  14.195   9.192
57655SOL     OW74861  11.708   6.667   5.408
57655SOL    HW174862  11.636   6.718   5.370
57655SOL    HW274863  11.666   6.592   5.450
57656SOL     OW74864   0.247   7.097   6.394
57656SOL    HW174865   0.231   7.113   6.487
57656SOL    HW274866   0.310   7.164   6.368
57657SOL     OW74867   2.709   3.659   2.665
57657SOL    HW174868   2.705   3.679   2.571
57657SOL    HW274869   2.778   3.715   2.699
57658SOL     OW74870   9.817  12.975   5.220
57658SOL    HW174871   9.908  12.998   5.200
57658SOL    HW274872   9.776  12.965   5.134
57659SOL     OW74873   3.349   4.559   5.974
57659SOL    HW174874   3.307   4.620   6.035
57659SOL    HW274875   3.387   4.492   6.030
57660SOL     OW74876   1.619  14.068  14.818
57660SOL    HW174877   1.689  14.099   0.004
57660SOL    HW274878   1.569  14.147  14.796
57661SOL     OW74879  11.695   7.720  10.306
57661SOL    HW174880  11.627   7.737  10.371
57661SOL    HW274881  11.718   7.628  10.319
57662SOL     OW74882   5.739   5.642   4.246
57662SOL    HW174883   5.773   5.702   4.313
57662SOL    HW274884   5.772   5.556   4.272
57663SOL     OW74885   4.942  14.542  12.719
57663SOL    HW174886   4.959  14.583  12.803
57663SOL    HW274887   4.862  14.492  12.732
57664SOL     OW74888   5.232   9.483   4.082
57664SOL    HW174889   5.294   9.410   4.086
57664SOL    HW274890   5.280   9.557   4.118
57665SOL     OW74891  13.469  13.816   4.401
57665SOL    HW174892  13.525  13.891   4.421
57665SOL    HW274893  13.520  13.740   4.429
57666SOL     OW74894   4.179   9.740   1.454
57666SOL    HW174895   4.200   9.788   1.374
57666SOL    HW274896   4.179   9.648   1.429
57667SOL     OW74897   5.574   9.926   9.237
57667SOL    HW174898   5.517   9.901   9.164
57667SOL    HW274899   5.514   9.938   9.311
57668SOL     OW74900   2.731   3.313   1.438
57668SOL    HW174901   2.638   3.333   1.446
57668SOL    HW274902   2.769   3.391   1.398
57669SOL     OW74903   9.523  11.804   2.070
57669SOL    HW174904   9.566  11.719   2.060
57669SOL    HW274905   9.539  11.827   2.162
57670SOL     OW74906   1.363   6.384  12.718
57670SOL    HW174907   1.329   6.318  12.658
57670SOL    HW274908   1.395   6.334  12.793
57671SOL     OW74909  12.353  12.178  10.583
57671SOL    HW174910  12.259  12.163  10.586
57671SOL    HW274911  12.377  12.162  10.491
57672SOL     OW74912   0.556   5.510   9.214
57672SOL    HW174913   0.509   5.427   9.207
57672SOL    HW274914   0.489   5.577   9.199
57673SOL     OW74915  13.540   6.661  12.294
57673SOL    HW174916  13.486   6.648  12.373
57673SOL    HW274917  13.486   6.627  12.223
57674SOL     OW74918   1.392  10.188   7.631
57674SOL    HW174919   1.384  10.140   7.549
57674SOL    HW274920   1.486  10.201   7.643
57675SOL     OW74921   1.591  12.841  12.930
57675SOL    HW174922   1.501  12.875  12.931
57675SOL    HW274923   1.602  12.805  12.842
57676SOL     OW74924   0.394  11.097   6.387
57676SOL    HW174925   0.392  11.159   6.460
57676SOL    HW274926   0.303  11.092   6.357
57677SOL     OW74927   8.488  13.647   8.776
57677SOL    HW174928   8.485  13.551   8.778
57677SOL    HW274929   8.544  13.671   8.850
57678SOL     OW74930   1.258   6.228   8.438
57678SOL    HW174931   1.348   6.200   8.451
57678SOL    HW274932   1.263   6.323   8.432
57679SOL     OW74933   9.623  14.780  12.084
57679SOL    HW174934   9.592  14.770  12.174
57679SOL    HW274935   9.656  14.869  12.079
57680SOL     OW74936   5.231   7.356   1.635
57680SOL    HW174937   5.302   7.419   1.629
57680SOL    HW274938   5.152   7.409   1.638
57681SOL     OW74939  12.093   1.306   3.189
57681SOL    HW174940  12.113   1.245   3.118
57681SOL    HW274941  12.027   1.365   3.152
57682SOL     OW74942   7.382   4.728   4.401
57682SOL    HW174943   7.298   4.771   4.390
57682SOL    HW274944   7.413   4.755   4.487
57683SOL     OW74945  14.008   9.143   2.799
57683SOL    HW174946  13.950   9.107   2.866
57683SOL    HW274947  13.978   9.103   2.717
57684SOL     OW74948   7.593   5.428   5.341
57684SOL    HW174949   7.564   5.431   5.432
57684SOL    HW274950   7.534   5.365   5.299
57685SOL     OW74951   4.571   2.147   1.609
57685SOL    HW174952   4.554   2.063   1.652
57685SOL    HW274953   4.598   2.205   1.680
57686SOL     OW74954   7.800   9.075   9.596
57686SOL    HW174955   7.855   9.026   9.656
57686SOL    HW274956   7.772   9.010   9.531
57687SOL     OW74957  10.457   2.707   4.437
57687SOL    HW174958  10.467   2.639   4.371
57687SOL    HW274959  10.489   2.786   4.395
57688SOL     OW74960  11.280   2.216   3.357
57688SOL    HW174961  11.347   2.201   3.423
57688SOL    HW274962  11.231   2.134   3.353
57689SOL     OW74963   1.518   9.622   7.415
57689SOL    HW174964   1.466   9.614   7.495
57689SOL    HW274965   1.521   9.533   7.379
57690SOL     OW74966  10.819   1.859   1.955
57690SOL    HW174967  10.755   1.894   1.892
57690SOL    HW274968  10.886   1.926   1.962
57691SOL     OW74969   9.523   2.436  12.122
57691SOL    HW174970   9.594   2.427  12.058
57691SOL    HW274971   9.516   2.531  12.136
57692SOL     OW74972   2.755   0.648   8.295
57692SOL    HW174973   2.765   0.739   8.325
57692SOL    HW274974   2.824   0.600   8.340
57693SOL     OW74975  13.754   0.155   0.252
57693SOL    HW174976  13.842   0.129   0.225
57693SOL    HW274977  13.757   0.151   0.348
57694SOL     OW74978   4.818   5.031   3.440
57694SOL    HW174979   4.779   5.057   3.524
57694SOL    HW274980   4.892   4.976   3.464
57695SOL     OW74981  13.725  14.505   8.627
57695SOL    HW174982  13.713  14.467   8.714
57695SOL    HW274983  13.643  14.552   8.609
57696SOL     OW74984   0.751  12.754   2.678
57696SOL    HW174985   0.789  12.693   2.741
57696SOL    HW274986   0.661  12.766   2.708
57697SOL     OW74987   3.953   9.486   8.608
57697SOL    HW174988   4.025   9.424   8.592
57697SOL    HW274989   3.886   9.433   8.651
57698SOL     OW74990   5.756   9.832   9.481
57698SOL    HW174991   5.670   9.863   9.511
57698SOL    HW274992   5.787   9.902   9.423
57699SOL     OW74993  13.499   4.499  13.493
57699SOL    HW174994  13.520   4.472  13.582
57699SOL    HW274995  13.479   4.417  13.447
57700SOL     OW74996   1.673   4.558  11.120
57700SOL    HW174997   1.747   4.598  11.165
57700SOL    HW274998   1.709   4.480  11.079
57701SOL     OW74999   1.541   5.950   3.563
57701SOL    HW175000   1.495   5.927   3.644
57701SOL    HW275001   1.509   5.886   3.499
57702SOL     OW75002   5.557   6.046   1.411
57702SOL    HW175003   5.546   6.094   1.329
57702SOL    HW275004   5.585   6.113   1.473
57703SOL     OW75005   6.602   0.242  14.309
57703SOL    HW175006   6.630   0.240  14.217
57703SOL    HW275007   6.558   0.326  14.319
57704SOL     OW75008   2.716   1.946  10.585
57704SOL    HW175009   2.710   1.882  10.514
57704SOL    HW275010   2.737   1.894  10.663
57705SOL     OW75011   6.126   7.367   1.138
57705SOL    HW175012   6.191   7.435   1.160
57705SOL    HW275013   6.081   7.349   1.221
57706SOL     OW75014   1.390   1.697   3.861
57706SOL    HW175015   1.417   1.639   3.933
57706SOL    HW275016   1.359   1.776   3.905
57707SOL     OW75017   4.769  13.886   4.771
57707SOL    HW175018   4.688  13.921   4.736
57707SOL    HW275019   4.741  13.820   4.835
57708SOL     OW75020  13.238   0.251   5.298
57708SOL    HW175021  13.187   0.214   5.370
57708SOL    HW275022  13.292   0.178   5.267
57709SOL     OW75023  10.866   7.698   2.605
57709SOL    HW175024  10.957   7.719   2.582
57709SOL    HW275025  10.841   7.630   2.543
57710SOL     OW75026   4.791   4.471   1.169
57710SOL    HW175027   4.820   4.452   1.258
57710SOL    HW275028   4.805   4.389   1.121
57711SOL     OW75029   5.294   6.188   7.635
57711SOL    HW175030   5.352   6.236   7.577
57711SOL    HW275031   5.249   6.255   7.686
57712SOL     OW75032  12.016   4.650  11.276
57712SOL    HW175033  11.969   4.616  11.200
57712SOL    HW275034  11.947   4.671  11.339
57713SOL     OW75035   2.189   4.959   9.169
57713SOL    HW175036   2.237   5.001   9.240
57713SOL    HW275037   2.174   5.029   9.106
57714SOL     OW75038  11.132  12.458   0.470
57714SOL    HW175039  11.188  12.428   0.399
57714SOL    HW275040  11.153  12.551   0.481
57715SOL     OW75041  11.767   2.389   3.763
57715SOL    HW175042  11.769   2.311   3.707
57715SOL    HW275043  11.807   2.458   3.710
57716SOL     OW75044   9.269   5.937   4.925
57716SOL    HW175045   9.247   5.845   4.939
57716SOL    HW275046   9.185   5.979   4.906
57717SOL     OW75047   1.289  14.620   7.479
57717SOL    HW175048   1.282  14.577   7.394
57717SOL    HW275049   1.359  14.685   7.467
57718SOL     OW75050  11.584  13.830   4.195
57718SOL    HW175051  11.541  13.775   4.130
57718SOL    HW275052  11.514  13.860   4.252
57719SOL     OW75053   4.552  14.427   9.970
57719SOL    HW175054   4.602  14.421  10.051
57719SOL    HW275055   4.500  14.507   9.979
57720SOL     OW75056   1.918   3.069  10.950
57720SOL    HW175057   1.865   3.084  11.028
57720SOL    HW275058   1.954   3.155  10.928
57721SOL     OW75059   5.051   1.447   1.976
57721SOL    HW175060   5.108   1.499   2.032
57721SOL    HW275061   4.974   1.429   2.030
57722SOL     OW75062   1.968   6.797  11.637
57722SOL    HW175063   2.058   6.795  11.668
57722SOL    HW275064   1.947   6.706  11.617
57723SOL     OW75065   8.743   4.436   1.081
57723SOL    HW175066   8.659   4.483   1.080
57723SOL    HW275067   8.799   4.489   1.138
57724SOL     OW75068   7.924  12.458  10.227
57724SOL    HW175069   7.960  12.547  10.226
57724SOL    HW275070   7.832  12.470  10.251
57725SOL     OW75071  11.427   6.203   7.503
57725SOL    HW175072  11.429   6.148   7.581
57725SOL    HW275073  11.338   6.194   7.470
57726SOL     OW75074   7.968   9.871  10.742
57726SOL    HW175075   7.955   9.965  10.741
57726SOL    HW275076   8.037   9.855  10.677
57727SOL     OW75077   9.181   5.451  12.292
57727SOL    HW175078   9.197   5.545  12.303
57727SOL    HW275079   9.220   5.429  12.207
57728SOL     OW75080   1.980   6.344   0.494
57728SOL    HW175081   2.016   6.335   0.406
57728SOL    HW275082   1.941   6.431   0.494
57729SOL     OW75083   0.059  13.944  10.059
57729SOL    HW175084   0.122  13.886  10.102
57729SOL    HW275085  14.847  13.919  10.097
57730SOL     OW75086   5.843  14.807  14.535
57730SOL    HW175087   5.889   0.012  14.502
57730SOL    HW275088   5.898  14.774  14.605
57731SOL     OW75089   7.016   5.857   3.422
57731SOL    HW175090   6.961   5.935   3.414
57731SOL    HW275091   7.074   5.877   3.495
57732SOL     OW75092  10.412   9.934   3.213
57732SOL    HW175093  10.461   9.854   3.233
57732SOL    HW275094  10.387   9.924   3.121
57733SOL     OW75095  14.122  12.853   9.622
57733SOL    HW175096  14.130  12.927   9.562
57733SOL    HW275097  14.212  12.828   9.642
57734SOL     OW75098   6.086  13.029   8.324
57734SOL    HW175099   6.050  13.030   8.235
57734SOL    HW275100   6.055  13.110   8.363
57735SOL     OW75101   4.315   6.255   7.929
57735SOL    HW175102   4.300   6.293   8.015
57735SOL    HW275103   4.406   6.275   7.908
57736SOL     OW75104  14.190  12.807   0.339
57736SOL    HW175105  14.232  12.762   0.411
57736SOL    HW275106  14.202  12.749   0.263
57737SOL     OW75107   8.406   0.476   6.819
57737SOL    HW175108   8.469   0.433   6.762
57737SOL    HW275109   8.321   0.452   6.784
57738SOL     OW75110   4.986   8.087   4.121
57738SOL    HW175111   5.067   8.054   4.083
57738SOL    HW275112   4.924   8.014   4.114
57739SOL     OW75113   1.841  14.536  11.210
57739SOL    HW175114   1.771  14.588  11.173
57739SOL    HW275115   1.903  14.523  11.138
57740SOL     OW75116  14.705  13.037   0.324
57740SOL    HW175117  14.777  12.991   0.367
57740SOL    HW275118  14.666  12.971   0.266
57741SOL     OW75119   0.761   7.930   3.295
57741SOL    HW175120   0.719   7.940   3.209
57741SOL    HW275121   0.852   7.953   3.280
57742SOL     OW75122   7.187   6.502   9.160
57742SOL    HW175123   7.210   6.410   9.158
57742SOL    HW275124   7.114   6.507   9.223
57743SOL     OW75125   8.628   7.441  12.366
57743SOL    HW175126   8.608   7.379  12.437
57743SOL    HW275127   8.580   7.406  12.290
57744SOL     OW75128   1.123  12.179   8.639
57744SOL    HW175129   1.034  12.157   8.613
57744SOL    HW275130   1.113  12.253   8.700
57745SOL     OW75131   8.655  13.786  13.289
57745SOL    HW175132   8.739  13.803  13.331
57745SOL    HW275133   8.591  13.831  13.344
57746SOL     OW75134  12.627  11.169   6.652
57746SOL    HW175135  12.554  11.138   6.705
57746SOL    HW275136  12.663  11.243   6.702
57747SOL     OW75137  14.146  10.881   1.267
57747SOL    HW175138  14.091  10.808   1.296
57747SOL    HW275139  14.223  10.877   1.322
57748SOL     OW75140   0.773  10.525   1.533
57748SOL    HW175141   0.823  10.465   1.478
57748SOL    HW275142   0.791  10.498   1.623
57749SOL     OW75143  11.832   3.354  12.294
57749SOL    HW175144  11.896   3.410  12.339
57749SOL    HW275145  11.837   3.381  12.202
57750SOL     OW75146   1.524   7.931   4.819
57750SOL    HW175147   1.586   7.995   4.784
57750SOL    HW275148   1.444   7.982   4.835
57751SOL     OW75149   7.956   1.171   9.403
57751SOL    HW175150   7.890   1.227   9.364
57751SOL    HW275151   8.039   1.200   9.366
57752SOL     OW75152   1.139  10.749   2.402
57752SOL    HW175153   1.097  10.834   2.416
57752SOL    HW275154   1.230  10.771   2.382
57753SOL     OW75155  12.680   6.402  11.070
57753SOL    HW175156  12.600   6.449  11.093
57753SOL    HW275157  12.666   6.313  11.101
57754SOL     OW75158   7.141   6.124   9.855
57754SOL    HW175159   7.104   6.068   9.787
57754SOL    HW275160   7.066   6.173   9.889
57755SOL     OW75161   5.822   8.934   8.953
57755SOL    HW175162   5.806   8.840   8.947
57755SOL    HW275163   5.900   8.948   8.899
57756SOL     OW75164   7.045   7.367   2.389
57756SOL    HW175165   6.956   7.387   2.360
57756SOL    HW275166   7.046   7.272   2.400
57757SOL     OW75167   6.873   3.176  11.868
57757SOL    HW175168   6.807   3.175  11.798
57757SOL    HW275169   6.823   3.195  11.948
57758SOL     OW75170  10.464  13.549   7.104
57758SOL    HW175171  10.392  13.527   7.045
57758SOL    HW275172  10.439  13.511   7.188
57759SOL     OW75173  11.666   0.652   7.192
57759SOL    HW175174  11.733   0.721   7.188
57759SOL    HW275175  11.715   0.571   7.178
57760SOL     OW75176   3.888   3.029   7.351
57760SOL    HW175177   3.984   3.026   7.356
57760SOL    HW275178   3.868   3.003   7.261
57761SOL     OW75179   3.567   2.975   6.702
57761SOL    HW175180   3.564   2.962   6.607
57761SOL    HW275181   3.560   3.069   6.714
57762SOL     OW75182   5.882   7.294   6.822
57762SOL    HW175183   5.877   7.350   6.899
57762SOL    HW275184   5.939   7.342   6.761
57763SOL     OW75185   8.731   5.524   2.856
57763SOL    HW175186   8.741   5.617   2.876
57763SOL    HW275187   8.656   5.497   2.908
57764SOL     OW75188   6.766  14.815  13.456
57764SOL    HW175189   6.773  14.757  13.380
57764SOL    HW275190   6.707  14.770  13.516
57765SOL     OW75191   7.874  12.859   3.144
57765SOL    HW175192   7.895  12.917   3.070
57765SOL    HW275193   7.947  12.796   3.145
57766SOL     OW75194  13.426   9.503  11.916
57766SOL    HW175195  13.425   9.598  11.920
57766SOL    HW275196  13.458   9.483  11.828
57767SOL     OW75197   2.546   1.001   1.850
57767SOL    HW175198   2.563   0.953   1.769
57767SOL    HW275199   2.457   1.034   1.839
57768SOL     OW75200   5.991  10.184  13.955
57768SOL    HW175201   5.913  10.221  13.998
57768SOL    HW275202   5.987  10.217  13.865
57769SOL     OW75203   3.539  13.021   4.259
57769SOL    HW175204   3.573  13.095   4.310
57769SOL    HW275205   3.444  13.024   4.273
57770SOL     OW75206   8.773   7.558  11.437
57770SOL    HW175207   8.860   7.543  11.474
57770SOL    HW275208   8.789   7.599  11.352
57771SOL     OW75209   6.864   5.519  12.186
57771SOL    HW175210   6.783   5.501  12.136
57771SOL    HW275211   6.930   5.536  12.119
57772SOL     OW75212   3.384   7.450   7.904
57772SOL    HW175213   3.363   7.535   7.942
57772SOL    HW275214   3.477   7.437   7.925
57773SOL     OW75215   9.076   7.917   1.655
57773SOL    HW175216   8.998   7.942   1.605
57773SOL    HW275217   9.063   7.824   1.676
57774SOL     OW75218   6.295   1.633   9.565
57774SOL    HW175219   6.342   1.602   9.642
57774SOL    HW275220   6.359   1.627   9.494
57775SOL     OW75221   8.700   4.673   7.545
57775SOL    HW175222   8.637   4.743   7.530
57775SOL    HW275223   8.718   4.638   7.458
57776SOL     OW75224   3.685   5.553   4.904
57776SOL    HW175225   3.633   5.474   4.916
57776SOL    HW275226   3.700   5.558   4.810
57777SOL     OW75227   6.707   5.871  11.652
57777SOL    HW175228   6.627   5.913  11.621
57777SOL    HW275229   6.771   5.887  11.582
57778SOL     OW75230   9.162   9.120   2.856
57778SOL    HW175231   9.113   9.125   2.774
57778SOL    HW275232   9.213   9.040   2.849
57779SOL     OW75233   8.152   4.730   3.050
57779SOL    HW175234   8.199   4.743   3.133
57779SOL    HW275235   8.191   4.792   2.990
57780SOL     OW75236  13.483  10.744   0.550
57780SOL    HW175237  13.497  10.708   0.638
57780SOL    HW275238  13.444  10.829   0.565
57781SOL     OW75239   4.992   3.434   7.981
57781SOL    HW175240   4.905   3.466   8.002
57781SOL    HW275241   4.978   3.370   7.911
57782SOL     OW75242   1.124   7.211  12.505
57782SOL    HW175243   1.048   7.267  12.493
57782SOL    HW275244   1.159   7.198  12.417
57783SOL     OW75245   2.000  14.219   0.966
57783SOL    HW175246   2.067  14.258   1.023
57783SOL    HW275247   2.050  14.175   0.897
57784SOL     OW75248  12.699   4.705  13.892
57784SOL    HW175249  12.666   4.778  13.839
57784SOL    HW275250  12.790   4.694  13.863
57785SOL     OW75251   1.527  14.244  13.069
57785SOL    HW175252   1.434  14.222  13.062
57785SOL    HW275253   1.528  14.329  13.114
57786SOL     OW75254  12.150  12.218   3.941
57786SOL    HW175255  12.059  12.222   3.910
57786SOL    HW275256  12.194  12.163   3.876
57787SOL     OW75257  12.950   2.368  10.397
57787SOL    HW175258  12.862   2.377  10.361
57787SOL    HW275259  13.008   2.395  10.325
57788SOL     OW75260   0.403  10.050   7.624
57788SOL    HW175261   0.376  10.130   7.669
57788SOL    HW275262   0.482  10.075   7.575
57789SOL     OW75263   3.157   7.049   7.924
57789SOL    HW175264   3.175   7.110   7.853
57789SOL    HW275265   3.244   7.025   7.957
57790SOL     OW75266   0.850  11.428   5.149
57790SOL    HW175267   0.901  11.400   5.225
57790SOL    HW275268   0.905  11.406   5.074
57791SOL     OW75269  12.297   1.359  12.656
57791SOL    HW175270  12.334   1.329  12.740
57791SOL    HW275271  12.353   1.432  12.630
57792SOL     OW75272   0.947  12.675   1.204
57792SOL    HW175273   0.899  12.744   1.159
57792SOL    HW275274   0.920  12.594   1.159
57793SOL     OW75275   2.008   0.211   2.904
57793SOL    HW175276   1.982   0.121   2.921
57793SOL    HW275277   1.927   0.262   2.911
57794SOL     OW75278   7.556  11.283   0.399
57794SOL    HW175279   7.462  11.295   0.412
57794SOL    HW275280   7.568  11.188   0.399
57795SOL     OW75281   1.820   4.211   4.235
57795SOL    HW175282   1.914   4.231   4.237
57795SOL    HW275283   1.778   4.289   4.270
57796SOL     OW75284   3.965  12.206  14.792
57796SOL    HW175285   4.031  12.193  14.859
57796SOL    HW275286   3.975  12.130  14.733
57797SOL     OW75287   9.198  11.558   0.281
57797SOL    HW175288   9.105  11.532   0.280
57797SOL    HW275289   9.199  11.639   0.331
57798SOL     OW75290   5.605  10.948  12.819
57798SOL    HW175291   5.522  10.944  12.866
57798SOL    HW275292   5.584  10.918  12.730
57799SOL     OW75293  12.797   2.506   1.401
57799SOL    HW175294  12.794   2.602   1.408
57799SOL    HW275295  12.884   2.482   1.432
57800SOL     OW75296   2.845  11.906   1.551
57800SOL    HW175297   2.843  11.967   1.625
57800SOL    HW275298   2.929  11.924   1.508
57801SOL     OW75299   2.468  12.457   8.390
57801SOL    HW175300   2.556  12.452   8.351
57801SOL    HW275301   2.427  12.532   8.347
57802SOL     OW75302  11.126  14.681  14.339
57802SOL    HW175303  11.117  14.602  14.392
57802SOL    HW275304  11.067  14.744  14.381
57803SOL     OW75305   0.558  10.221   7.487
57803SOL    HW175306   0.593  10.309   7.505
57803SOL    HW275307   0.530  10.225   7.396
57804SOL     OW75308   5.989  12.546   8.808
57804SOL    HW175309   6.062  12.546   8.870
57804SOL    HW275310   6.022  12.497   8.733
57805SOL     OW75311   8.770  13.553   9.730
57805SOL    HW175312   8.756  13.531   9.822
57805SOL    HW275313   8.728  13.637   9.719
57806SOL     OW75314   3.133  11.366   0.267
57806SOL    HW175315   3.092  11.360   0.353
57806SOL    HW275316   3.132  11.460   0.246
57807SOL     OW75317   5.228   7.176   4.140
57807SOL    HW175318   5.318   7.148   4.122
57807SOL    HW275319   5.223   7.264   4.104
57808SOL     OW75320   5.123  12.980  13.329
57808SOL    HW175321   5.069  12.918  13.280
57808SOL    HW275322   5.089  12.977  13.418
57809SOL     OW75323   7.780  13.441   6.971
57809SOL    HW175324   7.784  13.536   6.963
57809SOL    HW275325   7.710  13.414   6.912
57810SOL     OW75326   3.692   1.889   5.593
57810SOL    HW175327   3.765   1.918   5.648
57810SOL    HW275328   3.717   1.802   5.564
57811SOL     OW75329  13.076   2.430   1.047
57811SOL    HW175330  12.987   2.429   1.081
57811SOL    HW275331  13.082   2.350   0.994
57812SOL     OW75332  14.758  11.740   2.423
57812SOL    HW175333  14.700  11.681   2.471
57812SOL    HW275334  14.709  11.762   2.343
57813SOL     OW75335  12.014   6.985   3.268
57813SOL    HW175336  12.015   6.957   3.359
57813SOL    HW275337  11.921   6.988   3.244
57814SOL     OW75338  14.091   9.147   1.659
57814SOL    HW175339  14.055   9.188   1.738
57814SOL    HW275340  14.111   9.221   1.601
57815SOL     OW75341  11.262  10.920   9.007
57815SOL    HW175342  11.268  10.923   8.911
57815SOL    HW275343  11.280  11.009   9.035
57816SOL     OW75344   6.277   4.688   2.441
57816SOL    HW175345   6.335   4.754   2.402
57816SOL    HW275346   6.282   4.705   2.536
57817SOL     OW75347   4.860   2.754  11.641
57817SOL    HW175348   4.911   2.827  11.674
57817SOL    HW275349   4.888   2.744  11.550
57818SOL     OW75350   4.866  13.434   4.175
57818SOL    HW175351   4.878  13.345   4.140
57818SOL    HW275352   4.771  13.446   4.175
57819SOL     OW75353   0.783  11.180   9.570
57819SOL    HW175354   0.703  11.143   9.608
57819SOL    HW275355   0.752  11.238   9.501
57820SOL     OW75356   1.906  13.617   7.655
57820SOL    HW175357   1.970  13.546   7.644
57820SOL    HW275358   1.848  13.587   7.724
57821SOL     OW75359   5.467   7.795   4.094
57821SOL    HW175360   5.472   7.788   3.999
57821SOL    HW275361   5.464   7.704   4.124
57822SOL     OW75362  13.967   9.394   9.617
57822SOL    HW175363  13.925   9.469   9.575
57822SOL    HW275364  13.907   9.370   9.688
57823SOL     OW75365  11.306   7.378  12.983
57823SOL    HW175366  11.298   7.436  13.059
57823SOL    HW275367  11.228   7.323  12.986
57824SOL     OW75368  13.665  14.241   1.407
57824SOL    HW175369  13.628  14.215   1.491
57824SOL    HW275370  13.592  14.280   1.360
57825SOL     OW75371   1.653  14.720  10.653
57825SOL    HW175372   1.669  14.705  10.560
57825SOL    HW275373   1.557  14.717  10.661
57826SOL     OW75374   0.039   4.668  12.919
57826SOL    HW175375  14.860   4.611  12.977
57826SOL    HW275376   0.129   4.657  12.949
57827SOL     OW75377   7.943  13.286   5.165
57827SOL    HW175378   7.904  13.243   5.241
57827SOL    HW275379   7.871  13.339   5.128
57828SOL     OW75380  13.256   3.992  12.401
57828SOL    HW175381  13.195   4.050  12.355
57828SOL    HW275382  13.343   4.027  12.380
57829SOL     OW75383   6.546  10.435  11.317
57829SOL    HW175384   6.606  10.436  11.241
57829SOL    HW275385   6.599  10.402  11.389
57830SOL     OW75386   6.022   0.325   3.237
57830SOL    HW175387   6.066   0.357   3.316
57830SOL    HW275388   5.977   0.401   3.201
57831SOL     OW75389   9.307   5.294   7.745
57831SOL    HW175390   9.290   5.388   7.741
57831SOL    HW275391   9.274   5.268   7.831
57832SOL     OW75392   5.042   0.716  10.798
57832SOL    HW175393   5.110   0.660  10.760
57832SOL    HW275394   4.997   0.753  10.722
57833SOL     OW75395   0.694   9.470   6.424
57833SOL    HW175396   0.705   9.531   6.351
57833SOL    HW275397   0.599   9.461   6.433
57834SOL     OW75398  10.862   5.634   5.707
57834SOL    HW175399  10.775   5.643   5.747
57834SOL    HW275400  10.870   5.541   5.687
57835SOL     OW75401   6.464   3.082   5.090
57835SOL    HW175402   6.400   3.148   5.115
57835SOL    HW275403   6.414   3.001   5.085
57836SOL     OW75404   6.467   9.924   3.572
57836SOL    HW175405   6.505   9.998   3.620
57836SOL    HW275406   6.376   9.921   3.601
57837SOL     OW75407   6.881   0.863  12.944
57837SOL    HW175408   6.829   0.873  12.864
57837SOL    HW275409   6.817   0.867  13.015
57838SOL     OW75410   0.133   9.225   9.716
57838SOL    HW175411   0.056   9.169   9.718
57838SOL    HW275412   0.192   9.186   9.781
57839SOL     OW75413   1.240   8.373   4.440
57839SOL    HW175414   1.260   8.288   4.402
57839SOL    HW275415   1.172   8.409   4.382
57840SOL     OW75416   5.862  11.138  12.612
57840SOL    HW175417   5.801  11.135  12.686
57840SOL    HW275418   5.909  11.221  12.623
57841SOL     OW75419   9.625  10.240   7.771
57841SOL    HW175420   9.530  10.231   7.775
57841SOL    HW275421   9.641  10.333   7.788
57842SOL     OW75422   7.038   8.766   8.294
57842SOL    HW175423   7.006   8.771   8.384
57842SOL    HW275424   7.125   8.729   8.302
57843SOL     OW75425   6.788  10.876   3.207
57843SOL    HW175426   6.772  10.789   3.172
57843SOL    HW275427   6.883  10.886   3.204
57844SOL     OW75428  13.597   3.163  10.704
57844SOL    HW175429  13.618   3.099  10.772
57844SOL    HW275430  13.682   3.196  10.675
57845SOL     OW75431   1.342  14.788  11.125
57845SOL    HW175432   1.389  14.734  11.061
57845SOL    HW275433   1.386   0.001  11.122
57846SOL     OW75434   8.901   6.555   4.398
57846SOL    HW175435   8.892   6.466   4.363
57846SOL    HW275436   8.823   6.568   4.450
57847SOL     OW75437  14.723  12.021   4.551
57847SOL    HW175438  14.660  12.089   4.530
57847SOL    HW275439  14.669  11.945   4.576
57848SOL     OW75440   2.701   7.266   4.008
57848SOL    HW175441   2.662   7.319   3.938
57848SOL    HW275442   2.684   7.316   4.088
57849SOL     OW75443  10.629   1.274   4.998
57849SOL    HW175444  10.534   1.278   4.989
57849SOL    HW275445  10.661   1.265   4.908
57850SOL     OW75446   9.791   8.044  10.414
57850SOL    HW175447   9.707   8.041  10.368
57850SOL    HW275448   9.814   8.137  10.416
57851SOL     OW75449   3.747   2.714   8.050
57851SOL    HW175450   3.787   2.707   8.137
57851SOL    HW275451   3.766   2.803   8.022
57852SOL     OW75452   8.292   1.931   4.093
57852SOL    HW175453   8.316   1.966   4.007
57852SOL    HW275454   8.275   1.838   4.076
57853SOL     OW75455   6.163  13.983   8.062
57853SOL    HW175456   6.168  13.892   8.090
57853SOL    HW275457   6.230  13.991   7.993
57854SOL     OW75458   2.654   8.460  13.288
57854SOL    HW175459   2.744   8.466  13.320
57854SOL    HW275460   2.601   8.480  13.365
57855SOL     OW75461   7.403   2.780  10.450
57855SOL    HW175462   7.495   2.782  10.475
57855SOL    HW275463   7.404   2.764  10.355
57856SOL     OW75464   7.872   5.335   1.125
57856SOL    HW175465   7.793   5.380   1.155
57856SOL    HW275466   7.938   5.356   1.192
57857SOL     OW75467   6.110  11.457  10.754
57857SOL    HW175468   6.162  11.470  10.832
57857SOL    HW275469   6.019  11.454  10.785
57858SOL     OW75470  13.727   4.706   0.411
57858SOL    HW175471  13.759   4.728   0.324
57858SOL    HW275472  13.636   4.679   0.398
57859SOL     OW75473  12.392   3.435  12.790
57859SOL    HW175474  12.452   3.508  12.782
57859SOL    HW275475  12.448   3.357  12.789
57860SOL     OW75476   0.560   6.550   9.316
57860SOL    HW175477   0.609   6.473   9.343
57860SOL    HW275478   0.559   6.545   9.220
57861SOL     OW75479   6.713   4.339   5.616
57861SOL    HW175480   6.618   4.329   5.623
57861SOL    HW275481   6.725   4.400   5.544
57862SOL     OW75482   1.009   5.745   0.466
57862SOL    HW175483   1.059   5.760   0.386
57862SOL    HW275484   1.045   5.806   0.529
57863SOL     OW75485   1.612   6.615   9.111
57863SOL    HW175486   1.641   6.631   9.021
57863SOL    HW275487   1.626   6.521   9.124
57864SOL     OW75488   9.021   0.908  11.350
57864SOL    HW175489   9.052   0.850  11.280
57864SOL    HW275490   8.942   0.949  11.313
57865SOL     OW75491   1.651   5.241   9.769
57865SOL    HW175492   1.680   5.182   9.839
57865SOL    HW275493   1.604   5.184   9.707
57866SOL     OW75494   5.562  10.723   6.723
57866SOL    HW175495   5.558  10.628   6.715
57866SOL    HW275496   5.472  10.750   6.744
57867SOL     OW75497   6.619  11.901  10.597
57867SOL    HW175498   6.576  11.877  10.516
57867SOL    HW275499   6.574  11.980  10.626
57868SOL     OW75500   7.534  14.663  11.579
57868SOL    HW175501   7.612  14.716  11.595
57868SOL    HW275502   7.536  14.596  11.647
57869SOL     OW75503   8.767  10.041   5.180
57869SOL    HW175504   8.681  10.065   5.145
57869SOL    HW275505   8.808  10.124   5.202
57870SOL     OW75506   8.644  10.792  10.699
57870SOL    HW175507   8.564  10.748  10.728
57870SOL    HW275508   8.614  10.857  10.635
57871SOL     OW75509   0.104  12.264   2.556
57871SOL    HW175510   0.041  12.246   2.486
57871SOL    HW275511   0.147  12.180   2.572
57872SOL     OW75512   7.447  13.809  11.024
57872SOL    HW175513   7.462  13.860  10.945
57872SOL    HW275514   7.393  13.735  10.995
57873SOL     OW75515  12.482   5.138  14.337
57873SOL    HW175516  12.550   5.125  14.271
57873SOL    HW275517  12.470   5.052  14.377
57874SOL     OW75518  11.667   7.952   4.372
57874SOL    HW175519  11.662   7.932   4.465
57874SOL    HW275520  11.576   7.947   4.342
57875SOL     OW75521   3.795   0.804   9.397
57875SOL    HW175522   3.708   0.766   9.409
57875SOL    HW275523   3.778   0.892   9.364
57876SOL     OW75524   1.936   5.197   9.143
57876SOL    HW175525   1.914   5.106   9.121
57876SOL    HW275526   1.966   5.193   9.234
57877SOL     OW75527  11.410   1.600  10.365
57877SOL    HW175528  11.501   1.628  10.367
57877SOL    HW275529  11.406   1.538  10.292
57878SOL     OW75530   4.177  13.710   7.889
57878SOL    HW175531   4.226  13.766   7.949
57878SOL    HW275532   4.118  13.769   7.844
57879SOL     OW75533   0.155  12.967  12.992
57879SOL    HW175534   0.237  12.919  13.006
57879SOL    HW275535   0.178  13.058  13.011
57880SOL     OW75536   5.679   2.895   3.724
57880SOL    HW175537   5.640   2.972   3.766
57880SOL    HW275538   5.742   2.862   3.788
57881SOL     OW75539   7.397   2.888   2.550
57881SOL    HW175540   7.453   2.958   2.583
57881SOL    HW275541   7.457   2.814   2.537
57882SOL     OW75542  10.390   5.435   9.162
57882SOL    HW175543  10.470   5.487   9.155
57882SOL    HW275544  10.420   5.347   9.183
57883SOL     OW75545   4.435   8.549   8.512
57883SOL    HW175546   4.373   8.597   8.456
57883SOL    HW275547   4.449   8.606   8.587
57884SOL     OW75548   7.462   6.334   6.516
57884SOL    HW175549   7.377   6.290   6.525
57884SOL    HW275550   7.482   6.328   6.422
57885SOL     OW75551  12.289   9.503   8.104
57885SOL    HW175552  12.251   9.423   8.140
57885SOL    HW275553  12.377   9.478   8.077
57886SOL     OW75554   1.178  11.074   6.787
57886SOL    HW175555   1.093  11.038   6.811
57886SOL    HW275556   1.158  11.136   6.717
57887SOL     OW75557  10.019  11.451   9.224
57887SOL    HW175558   9.975  11.367   9.215
57887SOL    HW275559  10.112  11.429   9.221
57888SOL     OW75560   8.384  11.355   0.142
57888SOL    HW175561   8.413  11.424   0.202
57888SOL    HW275562   8.428  11.276   0.173
57889SOL     OW75563   8.415   4.618   0.033
57889SOL    HW175564   8.477   4.685   0.061
57889SOL    HW275565   8.456   4.535   0.061
57890SOL     OW75566  11.837   0.286   2.803
57890SOL    HW175567  11.878   0.320   2.723
57890SOL    HW275568  11.761   0.343   2.817
57891SOL     OW75569   8.737   4.602   4.726
57891SOL    HW175570   8.804   4.550   4.770
57891SOL    HW275571   8.772   4.616   4.638
57892SOL     OW75572  11.217   9.203  14.214
57892SOL    HW175573  11.129   9.238  14.230
57892SOL    HW275574  11.231   9.218  14.120
57893SOL     OW75575   5.480   2.073   9.817
57893SOL    HW175576   5.413   2.070   9.749
57893SOL    HW275577   5.546   2.010   9.789
57894SOL     OW75578   5.761   0.827   3.941
57894SOL    HW175579   5.787   0.876   4.018
57894SOL    HW275580   5.666   0.842   3.934
57895SOL     OW75581  11.208   3.757   3.896
57895SOL    HW175582  11.238   3.780   3.984
57895SOL    HW275583  11.151   3.681   3.909
57896SOL     OW75584   0.444  14.592  12.795
57896SOL    HW175585   0.453  14.552  12.881
57896SOL    HW275586   0.422  14.683  12.813
57897SOL     OW75587  12.850  12.240   0.326
57897SOL    HW175588  12.881  12.311   0.382
57897SOL    HW275589  12.755  12.248   0.328
57898SOL     OW75590  11.137   5.050   0.433
57898SOL    HW175591  11.118   5.004   0.352
57898SOL    HW275592  11.087   5.003   0.500
57899SOL     OW75593   0.606   4.809   5.126
57899SOL    HW175594   0.607   4.861   5.046
57899SOL    HW275595   0.523   4.760   5.121
57900SOL     OW75596  10.318   0.797   8.320
57900SOL    HW175597  10.405   0.769   8.294
57900SOL    HW275598  10.271   0.716   8.340
57901SOL     OW75599   0.276   4.422  14.115
57901SOL    HW175600   0.304   4.365  14.044
57901SOL    HW275601   0.332   4.398  14.189
57902SOL     OW75602   3.741   2.303   3.758
57902SOL    HW175603   3.657   2.343   3.737
57902SOL    HW275604   3.795   2.318   3.680
57903SOL     OW75605  14.660  12.226   5.182
57903SOL    HW175606  14.576  12.247   5.141
57903SOL    HW275607  14.683  12.305   5.230
57904SOL     OW75608   9.057  10.251   0.959
57904SOL    HW175609   9.117  10.177   0.965
57904SOL    HW275610   9.010  10.250   1.043
57905SOL     OW75611   5.538   4.708   1.174
57905SOL    HW175612   5.457   4.658   1.173
57905SOL    HW275613   5.573   4.700   1.085
57906SOL     OW75614  13.257   6.285   3.950
57906SOL    HW175615  13.258   6.367   3.901
57906SOL    HW275616  13.316   6.227   3.902
57907SOL     OW75617   1.103   8.997  12.985
57907SOL    HW175618   1.113   8.975  13.078
57907SOL    HW275619   1.010   9.013  12.974
57908SOL     OW75620   5.236   0.678   7.319
57908SOL    HW175621   5.162   0.733   7.292
57908SOL    HW275622   5.211   0.590   7.294
57909SOL     OW75623   1.753   8.839   7.013
57909SOL    HW175624   1.674   8.786   7.009
57909SOL    HW275625   1.728   8.916   7.063
57910SOL     OW75626   9.682   4.796  10.836
57910SOL    HW175627   9.712   4.812  10.747
57910SOL    HW275628   9.758   4.759  10.881
57911SOL     OW75629  12.089   0.343  10.087
57911SOL    HW175630  12.015   0.400  10.065
57911SOL    HW275631  12.065   0.306  10.172
57912SOL     OW75632   6.016  14.400   5.159
57912SOL    HW175633   5.981  14.313   5.179
57912SOL    HW275634   5.939  14.456   5.149
57913SOL     OW75635   8.743  11.781  11.620
57913SOL    HW175636   8.724  11.826  11.538
57913SOL    HW275637   8.678  11.817  11.682
57914SOL     OW75638   6.076   4.673   0.234
57914SOL    HW175639   6.119   4.732   0.172
57914SOL    HW275640   6.139   4.666   0.306
57915SOL     OW75641  12.677   4.663   3.164
57915SOL    HW175642  12.741   4.594   3.150
57915SOL    HW275643  12.657   4.659   3.258
57916SOL     OW75644   1.867   4.321   7.785
57916SOL    HW175645   1.865   4.228   7.760
57916SOL    HW275646   1.913   4.364   7.714
57917SOL     OW75647  13.404   5.438   3.730
57917SOL    HW175648  13.391   5.346   3.707
57917SOL    HW275649  13.489   5.461   3.690
57918SOL     OW75650  11.655   7.771   5.952
57918SOL    HW175651  11.713   7.712   5.904
57918SOL    HW275652  11.671   7.857   5.912
57919SOL     OW75653  10.168   8.807   0.103
57919SOL    HW175654  10.115   8.822   0.181
57919SOL    HW275655  10.165   8.712   0.090
57920SOL     OW75656   9.117   2.317   1.419
57920SOL    HW175657   9.179   2.380   1.455
57920SOL    HW275658   9.127   2.324   1.324
57921SOL     OW75659   8.772   4.291   7.772
57921SOL    HW175660   8.850   4.338   7.802
57921SOL    HW275661   8.785   4.282   7.678
57922SOL     OW75662   4.559   4.037   2.010
57922SOL    HW175663   4.504   3.974   1.963
57922SOL    HW275664   4.627   3.984   2.051
57923SOL     OW75665   5.926  13.924   9.318
57923SOL    HW175666   5.843  13.960   9.350
57923SOL    HW275667   5.917  13.923   9.223
57924SOL     OW75668  14.619   5.050   8.437
57924SOL    HW175669  14.544   5.044   8.378
57924SOL    HW275670  14.628   5.144   8.455
57925SOL     OW75671   2.931   7.185   4.269
57925SOL    HW175672   2.890   7.122   4.210
57925SOL    HW275673   2.974   7.131   4.335
57926SOL     OW75674   6.727   8.197   8.610
57926SOL    HW175675   6.705   8.285   8.579
57926SOL    HW275676   6.668   8.139   8.561
57927SOL     OW75677   6.889  14.406  14.120
57927SOL    HW175678   6.977  14.418  14.157
57927SOL    HW275679   6.884  14.313  14.100
57928SOL     OW75680   7.915   2.102   9.466
57928SOL    HW175681   7.966   2.116   9.546
57928SOL    HW275682   7.979   2.079   9.400
57929SOL     OW75683  11.047   5.872   3.871
57929SOL    HW175684  11.084   5.911   3.950
57929SOL    HW275685  10.969   5.925   3.852
57930SOL     OW75686   5.970   4.554   2.870
57930SOL    HW175687   6.062   4.570   2.850
57930SOL    HW275688   5.924   4.633   2.842
57931SOL     OW75689   5.652   8.068  13.595
57931SOL    HW175690   5.688   8.147  13.634
57931SOL    HW275691   5.629   8.012  13.670
57932SOL     OW75692   8.474   5.455  10.881
57932SOL    HW175693   8.543   5.456  10.947
57932SOL    HW275694   8.478   5.367  10.843
57933SOL     OW75695   1.877  12.167   7.742
57933SOL    HW175696   1.837  12.229   7.681
57933SOL    HW275697   1.968  12.195   7.748
57934SOL     OW75698   0.472   5.903  12.565
57934SOL    HW175699   0.548   5.896  12.507
57934SOL    HW275700   0.398   5.876  12.512
57935SOL     OW75701   4.657   6.478   3.992
57935SOL    HW175702   4.637   6.402   4.047
57935SOL    HW275703   4.657   6.552   4.052
57936SOL     OW75704  12.656   9.479   1.398
57936SOL    HW175705  12.618   9.531   1.470
57936SOL    HW275706  12.658   9.539   1.324
57937SOL     OW75707  14.033  10.849   5.052
57937SOL    HW175708  14.083  10.771   5.075
57937SOL    HW275709  14.016  10.893   5.136
57938SOL     OW75710   2.623   3.264   6.286
57938SOL    HW175711   2.589   3.339   6.335
57938SOL    HW275712   2.569   3.190   6.315
57939SOL     OW75713  11.641  10.297  14.561
57939SOL    HW175714  11.678  10.337  14.639
57939SOL    HW275715  11.704  10.231  14.535
57940SOL     OW75716  13.418  11.156   6.463
57940SOL    HW175717  13.402  11.177   6.371
57940SOL    HW275718  13.481  11.221   6.493
57941SOL     OW75719   8.282   7.150  12.793
57941SOL    HW175720   8.294   7.146  12.698
57941SOL    HW275721   8.211   7.213  12.806
57942SOL     OW75722   5.500   6.265   0.420
57942SOL    HW175723   5.435   6.319   0.466
57942SOL    HW275724   5.583   6.309   0.435
57943SOL     OW75725  13.015   8.479   1.335
57943SOL    HW175726  13.004   8.411   1.269
57943SOL    HW275727  13.047   8.432   1.413
57944SOL     OW75728   0.138   8.250  12.702
57944SOL    HW175729   0.128   8.209  12.616
57944SOL    HW275730   0.213   8.308  12.693
57945SOL     OW75731   6.885   0.546  12.939
57945SOL    HW175732   6.930   0.591  13.010
57945SOL    HW275733   6.937   0.565  12.861
57946SOL     OW75734  12.855   9.423   0.346
57946SOL    HW175735  12.764   9.400   0.331
57946SOL    HW275736  12.898   9.341   0.368
57947SOL     OW75737  12.963   7.595   2.995
57947SOL    HW175738  12.989   7.646   3.072
57947SOL    HW275739  13.015   7.631   2.924
57948SOL     OW75740   1.931   7.382   9.715
57948SOL    HW175741   1.853   7.438   9.708
57948SOL    HW275742   1.915   7.311   9.653
57949SOL     OW75743  12.173   0.879   2.971
57949SOL    HW175744  12.227   0.898   3.048
57949SOL    HW275745  12.179   0.785   2.959
57950SOL     OW75746   4.268   0.286  14.648
57950SOL    HW175747   4.210   0.210  14.648
57950SOL    HW275748   4.313   0.283  14.564
57951SOL     OW75749   2.992   3.060   6.195
57951SOL    HW175750   3.035   2.991   6.144
57951SOL    HW275751   2.977   3.020   6.281
57952SOL     OW75752   7.405  13.700   4.458
57952SOL    HW175753   7.420  13.690   4.552
57952SOL    HW275754   7.486  13.737   4.424
57953SOL     OW75755  10.555  10.332  10.217
57953SOL    HW175756  10.598  10.388  10.151
57953SOL    HW275757  10.562  10.244  10.180
57954SOL     OW75758   9.602   7.377   0.063
57954SOL    HW175759   9.579   7.297   0.016
57954SOL    HW275760   9.554   7.446   0.018
57955SOL     OW75761  14.354  10.028  11.322
57955SOL    HW175762  14.363  10.097  11.256
57955SOL    HW275763  14.304  10.069  11.393
57956SOL     OW75764   0.970   0.326  14.474
57956SOL    HW175765   1.036   0.370  14.419
57956SOL    HW275766   0.946   0.392  14.539
57957SOL     OW75767  12.357   9.263   8.508
57957SOL    HW175768  12.432   9.319   8.487
57957SOL    HW275769  12.396   9.188   8.553
57958SOL     OW75770  10.323   2.156   8.735
57958SOL    HW175771  10.339   2.085   8.672
57958SOL    HW275772  10.359   2.234   8.693
57959SOL     OW75773   0.073   1.722   7.845
57959SOL    HW175774   0.002   1.743   7.785
57959SOL    HW275775   0.134   1.796   7.837
57960SOL     OW75776   9.065   3.100  13.925
57960SOL    HW175777   9.092   3.098  13.833
57960SOL    HW275778   9.013   3.180  13.933
57961SOL     OW75779  14.058   7.713  10.664
57961SOL    HW175780  14.090   7.742  10.579
57961SOL    HW275781  13.976   7.761  10.676
57962SOL     OW75782   2.530   9.323   8.937
57962SOL    HW175783   2.438   9.299   8.941
57962SOL    HW275784   2.556   9.336   9.028
57963SOL     OW75785   0.924  10.264  14.553
57963SOL    HW175786   0.998  10.204  14.558
57963SOL    HW275787   0.914  10.284  14.460
57964SOL     OW75788   2.137   5.074  11.431
57964SOL    HW175789   2.051   5.036  11.417
57964SOL    HW275790   2.192   5.037  11.362
57965SOL     OW75791  10.489   5.123   4.581
57965SOL    HW175792  10.490   5.204   4.631
57965SOL    HW275793  10.553   5.067   4.625
57966SOL     OW75794   6.211  14.441   6.453
57966SOL    HW175795   6.191  14.367   6.511
57966SOL    HW275796   6.229  14.514   6.512
57967SOL     OW75797   3.751  11.493  11.254
57967SOL    HW175798   3.738  11.584  11.229
57967SOL    HW275799   3.840  11.473  11.224
57968SOL     OW75800  13.003  11.047   3.642
57968SOL    HW175801  12.972  11.132   3.609
57968SOL    HW275802  13.097  11.047   3.624
57969SOL     OW75803   6.422   0.733   2.191
57969SOL    HW175804   6.346   0.700   2.142
57969SOL    HW275805   6.385   0.772   2.270
57970SOL     OW75806   9.522   9.388   0.026
57970SOL    HW175807   9.457   9.455   0.005
57970SOL    HW275808   9.508   9.370   0.119
57971SOL     OW75809   3.569   4.172  12.675
57971SOL    HW175810   3.563   4.167  12.771
57971SOL    HW275811   3.614   4.091  12.650
57972SOL     OW75812  11.872   8.204   2.190
57972SOL    HW175813  11.929   8.184   2.263
57972SOL    HW275814  11.922   8.265   2.136
57973SOL     OW75815  14.299   0.846   9.589
57973SOL    HW175816  14.218   0.871   9.545
57973SOL    HW275817  14.272   0.810   9.673
57974SOL     OW75818  10.971  12.011   2.562
57974SOL    HW175819  10.908  11.986   2.630
57974SOL    HW275820  11.032  11.938   2.558
57975SOL     OW75821   9.790   4.831   0.135
57975SOL    HW175822   9.754   4.919   0.150
57975SOL    HW275823   9.879   4.846   0.103
57976SOL     OW75824   7.555   8.616   9.521
57976SOL    HW175825   7.466   8.649   9.529
57976SOL    HW275826   7.545   8.521   9.518
57977SOL     OW75827   8.493   2.420   4.270
57977SOL    HW175828   8.546   2.348   4.304
57977SOL    HW275829   8.556   2.481   4.233
57978SOL     OW75830   4.871  10.380  12.922
57978SOL    HW175831   4.956  10.359  12.883
57978SOL    HW275832   4.847  10.301  12.970
57979SOL     OW75833   0.543   6.036   3.158
57979SOL    HW175834   0.457   6.059   3.192
57979SOL    HW275835   0.552   5.942   3.176
57980SOL     OW75836  11.563   5.102   9.974
57980SOL    HW175837  11.545   5.036   9.907
57980SOL    HW275838  11.486   5.100  10.031
57981SOL     OW75839   0.487   6.252   7.571
57981SOL    HW175840   0.541   6.330   7.567
57981SOL    HW275841   0.397   6.283   7.557
57982SOL     OW75842  13.507   4.157  12.307
57982SOL    HW175843  13.488   4.191  12.219
57982SOL    HW275844  13.507   4.235  12.363
57983SOL     OW75845  11.486  11.367   9.252
57983SOL    HW175846  11.465  11.359   9.345
57983SOL    HW275847  11.515  11.458   9.242
57984SOL     OW75848   4.060   9.973   7.423
57984SOL    HW175849   4.047   9.978   7.328
57984SOL    HW275850   4.091  10.061   7.447
57985SOL     OW75851   4.482   6.661  11.742
57985SOL    HW175852   4.502   6.720  11.669
57985SOL    HW275853   4.547   6.683  11.809
57986SOL     OW75854   1.438  14.593   7.041
57986SOL    HW175855   1.451  14.511   6.993
57986SOL    HW275856   1.372  14.573   7.107
57987SOL     OW75857  14.044   9.278  14.600
57987SOL    HW175858  14.108   9.211  14.579
57987SOL    HW275859  14.076   9.319  14.680
57988SOL     OW75860   7.052   9.738   3.919
57988SOL    HW175861   7.125   9.702   3.970
57988SOL    HW275862   6.991   9.665   3.911
57989SOL     OW75863  14.457   5.419  10.230
57989SOL    HW175864  14.442   5.364  10.152
57989SOL    HW275865  14.464   5.356  10.302
57990SOL     OW75866  10.623  10.507  14.049
57990SOL    HW175867  10.600  10.486  13.959
57990SOL    HW275868  10.718  10.494  14.054
57991SOL     OW75869   5.887   9.460   0.255
57991SOL    HW175870   5.966   9.415   0.283
57991SOL    HW275871   5.818   9.426   0.312
57992SOL     OW75872   5.078  11.916   7.250
57992SOL    HW175873   5.165  11.930   7.289
57992SOL    HW275874   5.035  12.001   7.258
57993SOL     OW75875   4.695   8.772   5.998
57993SOL    HW175876   4.663   8.814   5.919
57993SOL    HW275877   4.628   8.708   6.021
57994SOL     OW75878  13.356   7.433   6.807
57994SOL    HW175879  13.297   7.450   6.733
57994SOL    HW275880  13.304   7.456   6.884
57995SOL     OW75881  12.311   1.691   2.355
57995SOL    HW175882  12.332   1.734   2.272
57995SOL    HW275883  12.238   1.742   2.391
57996SOL     OW75884   5.815   1.870   5.174
57996SOL    HW175885   5.748   1.807   5.147
57996SOL    HW275886   5.892   1.817   5.195
57997SOL     OW75887   5.719   1.898  13.139
57997SOL    HW175888   5.729   1.966  13.072
57997SOL    HW275889   5.625   1.888  13.150
57998SOL     OW75890   7.060   6.094   2.191
57998SOL    HW175891   7.099   6.041   2.260
57998SOL    HW275892   7.000   6.035   2.145
57999SOL     OW75893   9.413  13.996   2.640
57999SOL    HW175894   9.381  13.946   2.565
57999SOL    HW275895   9.364  13.962   2.714
58000SOL     OW75896   0.453   1.817   2.366
58000SOL    HW175897   0.457   1.816   2.270
58000SOL    HW275898   0.502   1.895   2.392
58001SOL     OW75899   1.499   4.175   6.900
58001SOL    HW175900   1.467   4.097   6.946
58001SOL    HW275901   1.426   4.236   6.901
58002SOL     OW75902  11.176   8.105   1.466
58002SOL    HW175903  11.208   8.193   1.486
58002SOL    HW275904  11.176   8.060   1.550
58003SOL     OW75905   4.942  13.574   0.531
58003SOL    HW175906   4.888  13.496   0.542
58003SOL    HW275907   5.023  13.542   0.491
58004SOL     OW75908   9.179   1.604  10.888
58004SOL    HW175909   9.145   1.529  10.839
58004SOL    HW275910   9.187   1.572  10.978
58005SOL     OW75911  13.711   9.553  12.673
58005SOL    HW175912  13.735   9.521  12.586
58005SOL    HW275913  13.776   9.514  12.731
58006SOL     OW75914   7.297   2.499  13.992
58006SOL    HW175915   7.280   2.465  13.904
58006SOL    HW275916   7.391   2.486  14.005
58007SOL     OW75917  10.150  12.086   1.180
58007SOL    HW175918  10.183  12.035   1.254
58007SOL    HW275919  10.200  12.055   1.105
58008SOL     OW75920   9.978  12.685   0.987
58008SOL    HW175921   9.923  12.606   0.990
58008SOL    HW275922   9.938  12.744   1.050
58009SOL     OW75923   0.082  14.053   1.920
58009SOL    HW175924   0.126  13.987   1.973
58009SOL    HW275925   0.031  14.003   1.857
58010SOL     OW75926   0.950  11.190  14.452
58010SOL    HW175927   0.876  11.131  14.469
58010SOL    HW275928   0.965  11.183  14.358
58011SOL     OW75929  14.610   5.683   5.805
58011SOL    HW175930  14.637   5.592   5.789
58011SOL    HW275931  14.515   5.678   5.814
58012SOL     OW75932  10.934   2.699   3.666
58012SOL    HW175933  10.925   2.784   3.622
58012SOL    HW275934  11.022   2.701   3.704
58013SOL     OW75935   5.587  13.621   9.742
58013SOL    HW175936   5.541  13.696   9.703
58013SOL    HW275937   5.677  13.630   9.712
58014SOL     OW75938   5.613   2.280   9.068
58014SOL    HW175939   5.579   2.263   9.156
58014SOL    HW275940   5.562   2.356   9.037
58015SOL     OW75941   1.873   6.689   6.398
58015SOL    HW175942   1.967   6.702   6.413
58015SOL    HW275943   1.867   6.601   6.358
58016SOL     OW75944  14.067  13.432   7.847
58016SOL    HW175945  14.074  13.348   7.891
58016SOL    HW275946  13.976  13.437   7.817
58017SOL     OW75947   1.075   4.118  13.035
58017SOL    HW175948   1.010   4.159  12.979
58017SOL    HW275949   1.036   4.120  13.123
58018SOL     OW75950  12.858   2.315   4.243
58018SOL    HW175951  12.802   2.275   4.310
58018SOL    HW275952  12.947   2.309   4.280
58019SOL     OW75953   6.494   4.488   0.598
58019SOL    HW175954   6.423   4.453   0.652
58019SOL    HW275955   6.573   4.470   0.648
58020SOL     OW75956  14.278   2.779   6.467
58020SOL    HW175957  14.213   2.777   6.396
58020SOL    HW275958  14.362   2.793   6.423
58021SOL     OW75959   9.225  10.441   6.773
58021SOL    HW175960   9.267  10.427   6.688
58021SOL    HW275961   9.152  10.501   6.753
58022SOL     OW75962   6.550   0.535   7.940
58022SOL    HW175963   6.598   0.515   8.021
58022SOL    HW275964   6.508   0.619   7.957
58023SOL     OW75965   4.735  12.265   8.214
58023SOL    HW175966   4.805  12.305   8.163
58023SOL    HW275967   4.744  12.302   8.301
58024SOL     OW75968  10.181   3.253  11.073
58024SOL    HW175969  10.247   3.312  11.036
58024SOL    HW275970  10.215   3.229  11.159
58025SOL     OW75971  12.577   8.917   5.941
58025SOL    HW175972  12.571   8.858   5.866
58025SOL    HW275973  12.615   8.864   6.011
58026SOL     OW75974   9.688   2.761  10.849
58026SOL    HW175975   9.749   2.828  10.817
58026SOL    HW275976   9.678   2.781  10.942
58027SOL     OW75977   6.003  14.520   1.064
58027SOL    HW175978   6.064  14.457   1.025
58027SOL    HW275979   6.033  14.605   1.034
58028SOL     OW75980  13.093   6.062   1.589
58028SOL    HW175981  13.157   6.122   1.551
58028SOL    HW275982  13.068   6.004   1.518
58029SOL     OW75983   8.774   6.108  11.806
58029SOL    HW175984   8.823   6.028  11.828
58029SOL    HW275985   8.703   6.077  11.749
58030SOL     OW75986   6.693   3.284   2.427
58030SOL    HW175987   6.613   3.271   2.376
58030SOL    HW275988   6.680   3.366   2.473
58031SOL     OW75989   6.244   7.797  11.645
58031SOL    HW175990   6.253   7.882  11.688
58031SOL    HW275991   6.158   7.801  11.602
58032SOL     OW75992   1.453   3.362   8.253
58032SOL    HW175993   1.461   3.342   8.159
58032SOL    HW275994   1.504   3.443   8.264
58033SOL     OW75995  13.328   3.138  11.318
58033SOL    HW175996  13.342   3.232  11.312
58033SOL    HW275997  13.408   3.099  11.282
58034SOL     OW75998   5.223   8.968   5.759
58034SOL    HW175999   5.312   8.934   5.768
58034SOL    HW276000   5.232   9.063   5.773
58035SOL     OW76001   4.238  14.675  10.892
58035SOL    HW176002   4.179  14.699  10.820
58035SOL    HW276003   4.213  14.585  10.914
58036SOL     OW76004  12.714   7.075   8.572
58036SOL    HW176005  12.659   7.009   8.613
58036SOL    HW276006  12.788   7.026   8.537
58037SOL     OW76007  11.039   2.901  10.444
58037SOL    HW176008  11.117   2.847  10.457
58037SOL    HW276009  10.977   2.870  10.511
58038SOL     OW76010   6.860   2.091  11.912
58038SOL    HW176011   6.870   2.004  11.874
58038SOL    HW276012   6.933   2.142  11.876
58039SOL     OW76013   0.345   2.155   5.766
58039SOL    HW176014   0.289   2.231   5.750
58039SOL    HW276015   0.377   2.167   5.855
58040SOL     OW76016   8.255  14.309  13.496
58040SOL    HW176017   8.255  14.286  13.403
58040SOL    HW276018   8.330  14.367  13.506
58041SOL     OW76019  12.247   0.803   1.277
58041SOL    HW176020  12.185   0.798   1.204
58041SOL    HW276021  12.222   0.731   1.335
58042SOL     OW76022   3.082  12.683   9.904
58042SOL    HW176023   3.132  12.745   9.956
58042SOL    HW276024   3.114  12.695   9.815
58043SOL     OW76025  13.987   7.076  10.879
58043SOL    HW176026  13.979   7.145  10.945
58043SOL    HW276027  13.937   7.003  10.916
58044SOL     OW76028   9.769  12.315  10.102
58044SOL    HW176029   9.793  12.407  10.089
58044SOL    HW276030   9.834  12.282  10.163
58045SOL     OW76031  13.921   0.531   3.015
58045SOL    HW176032  13.938   0.466   3.083
58045SOL    HW276033  13.996   0.590   3.020
58046SOL     OW76034  13.513  10.766  11.834
58046SOL    HW176035  13.445  10.739  11.894
58046SOL    HW276036  13.582  10.701  11.844
58047SOL     OW76037   0.873   4.065  13.264
58047SOL    HW176038   0.807   4.013  13.218
58047SOL    HW276039   0.894   4.013  13.342
58048SOL     OW76040   8.216   0.734   2.249
58048SOL    HW176041   8.127   0.749   2.280
58048SOL    HW276042   8.272   0.766   2.321
58049SOL     OW76043  14.567  11.167  11.235
58049SOL    HW176044  14.475  11.190  11.224
58049SOL    HW276045  14.573  11.077  11.201
58050SOL     OW76046   1.564   2.517   1.701
58050SOL    HW176047   1.557   2.478   1.614
58050SOL    HW276048   1.590   2.608   1.685
58051SOL     OW76049   5.518  13.997  13.984
58051SOL    HW176050   5.604  13.982  14.023
58051SOL    HW276051   5.466  13.922  14.013
58052SOL     OW76052   9.870  13.972   0.956
58052SOL    HW176053   9.889  13.984   0.863
58052SOL    HW276054   9.810  14.044   0.977
58053SOL     OW76055   2.957   7.750   0.216
58053SOL    HW176056   3.022   7.801   0.169
58053SOL    HW276057   3.007   7.691   0.271
58054SOL     OW76058   1.554  10.324   2.101
58054SOL    HW176059   1.522  10.247   2.053
58054SOL    HW276060   1.505  10.323   2.184
58055SOL     OW76061  12.898   0.626   0.432
58055SOL    HW176062  12.838   0.631   0.357
58055SOL    HW276063  12.866   0.552   0.482
58056SOL     OW76064  14.351  12.128   6.505
58056SOL    HW176065  14.438  12.169   6.510
58056SOL    HW276066  14.335  12.117   6.412
58057SOL     OW76067   9.310  12.873   5.334
58057SOL    HW176068   9.247  12.934   5.295
58057SOL    HW276069   9.327  12.909   5.421
58058SOL     OW76070   2.124  10.651  14.113
58058SOL    HW176071   2.163  10.692  14.037
58058SOL    HW276072   2.039  10.619  14.083
58059SOL     OW76073   0.665  13.419   7.867
58059SOL    HW176074   0.668  13.501   7.916
58059SOL    HW276075   0.632  13.444   7.780
58060SOL     OW76076   8.836   6.095  13.447
58060SOL    HW176077   8.770   6.130  13.387
58060SOL    HW276078   8.800   6.111  13.534
58061SOL     OW76079  11.323   3.492   3.749
58061SOL    HW176080  11.258   3.445   3.801
58061SOL    HW276081  11.386   3.525   3.813
58062SOL     OW76082  14.009   2.413   1.166
58062SOL    HW176083  13.949   2.487   1.176
58062SOL    HW276084  13.957   2.337   1.191
58063SOL     OW76085   5.844  11.984   0.161
58063SOL    HW176086   5.909  11.940   0.107
58063SOL    HW276087   5.823  12.064   0.114
58064SOL     OW76088   5.192   1.201   9.305
58064SOL    HW176089   5.286   1.204   9.292
58064SOL    HW276090   5.163   1.127   9.252
58065SOL     OW76091   7.801   2.930   2.918
58065SOL    HW176092   7.777   3.023   2.912
58065SOL    HW276093   7.890   2.926   2.884
58066SOL     OW76094  14.499  11.825   3.089
58066SOL    HW176095  14.526  11.734   3.074
58066SOL    HW276096  14.581  11.875   3.086
58067SOL     OW76097   7.407   9.142  13.904
58067SOL    HW176098   7.347   9.198  13.953
58067SOL    HW276099   7.378   9.151  13.813
58068SOL     OW76100   5.506  10.360   6.175
58068SOL    HW176101   5.507  10.455   6.167
58068SOL    HW276102   5.596  10.337   6.199
58069SOL     OW76103   4.199   3.075  10.245
58069SOL    HW176104   4.253   3.000  10.224
58069SOL    HW276105   4.234   3.107  10.328
58070SOL     OW76106  10.464   5.582   1.937
58070SOL    HW176107  10.533   5.516   1.944
58070SOL    HW276108  10.491   5.651   1.997
58071SOL     OW76109   0.007   5.957  13.089
58071SOL    HW176110  14.812   6.009  13.132
58071SOL    HW276111   0.042   6.015  13.021
58072SOL     OW76112   3.705   7.874   6.125
58072SOL    HW176113   3.637   7.939   6.105
58072SOL    HW276114   3.731   7.840   6.039
58073SOL     OW76115   5.447  13.269   6.186
58073SOL    HW176116   5.352  13.284   6.181
58073SOL    HW276117   5.455  13.174   6.179
58074SOL     OW76118  10.719   5.911  11.888
58074SOL    HW176119  10.684   5.854  11.957
58074SOL    HW276120  10.643   5.963  11.860
58075SOL     OW76121   2.368   7.081   6.091
58075SOL    HW176122   2.386   6.994   6.126
58075SOL    HW276123   2.434   7.093   6.023
58076SOL     OW76124   6.204  13.889   2.335
58076SOL    HW176125   6.286  13.867   2.291
58076SOL    HW276126   6.231  13.914   2.423
58077SOL     OW76127   8.283  10.564  14.749
58077SOL    HW176128   8.329  10.555  14.833
58077SOL    HW276129   8.353  10.564  14.683
58078SOL     OW76130   9.280  11.829   7.291
58078SOL    HW176131   9.374  11.814   7.292
58078SOL    HW276132   9.243  11.750   7.331
58079SOL     OW76133   8.137   7.138   9.073
58079SOL    HW176134   8.128   7.232   9.056
58079SOL    HW276135   8.135   7.098   8.986
58080SOL     OW76136  11.141   2.160  14.178
58080SOL    HW176137  11.217   2.160  14.121
58080SOL    HW276138  11.175   2.134  14.264
58081SOL     OW76139   9.243  13.323   6.747
58081SOL    HW176140   9.316  13.346   6.805
58081SOL    HW276141   9.165  13.351   6.796
58082SOL     OW76142   0.351  11.990   1.996
58082SOL    HW176143   0.408  11.984   1.919
58082SOL    HW276144   0.338  12.084   2.009
58083SOL     OW76145   1.148  12.311  13.079
58083SOL    HW176146   1.140  12.297  13.173
58083SOL    HW276147   1.099  12.238  13.040
58084SOL     OW76148   1.962   6.849   0.036
58084SOL    HW176149   1.956   6.755   0.026
58084SOL    HW276150   1.962   6.884  14.819
58085SOL     OW76151  12.363  14.169   7.580
58085SOL    HW176152  12.279  14.206   7.608
58085SOL    HW276153  12.415  14.245   7.554
58086SOL     OW76154  11.525   9.266   7.603
58086SOL    HW176155  11.610   9.264   7.560
58086SOL    HW276156  11.475   9.196   7.561
58087SOL     OW76157   1.776   4.211   0.288
58087SOL    HW176158   1.766   4.172   0.375
58087SOL    HW276159   1.704   4.175   0.237
58088SOL     OW76160   8.550  12.408  10.405
58088SOL    HW176161   8.472  12.374  10.449
58088SOL    HW276162   8.617  12.340  10.419
58089SOL     OW76163   1.017   4.467  10.087
58089SOL    HW176164   1.004   4.560  10.106
58089SOL    HW276165   0.998   4.423  10.169
58090SOL     OW76166  13.651  10.481   3.507
58090SOL    HW176167  13.674  10.551   3.568
58090SOL    HW276168  13.558  10.496   3.487
58091SOL     OW76169  12.837   9.197  11.029
58091SOL    HW176170  12.791   9.150  10.959
58091SOL    HW276171  12.910   9.141  11.052
58092SOL     OW76172   2.464  11.712   7.619
58092SOL    HW176173   2.556  11.738   7.609
58092SOL    HW276174   2.437  11.683   7.532
58093SOL     OW76175  13.594  14.810  10.765
58093SOL    HW176176  13.677  14.786  10.804
58093SOL    HW276177  13.556  14.727  10.736
58094SOL     OW76178   1.667   5.831  11.277
58094SOL    HW176179   1.674   5.847  11.372
58094SOL    HW276180   1.741   5.773  11.257
58095SOL     OW76181  11.984   0.874  14.392
58095SOL    HW176182  11.897   0.838  14.403
58095SOL    HW276183  12.029   0.854  14.474
58096SOL     OW76184  11.273   1.869   0.117
58096SOL    HW176185  11.231   1.853   0.202
58096SOL    HW276186  11.248   1.959   0.095
58097SOL     OW76187   9.052   3.366  11.318
58097SOL    HW176188   9.099   3.363  11.401
58097SOL    HW276189   9.106   3.423  11.262
58098SOL     OW76190  13.300  14.204   2.116
58098SOL    HW176191  13.336  14.241   2.035
58098SOL    HW276192  13.371  14.211   2.179
58099SOL     OW76193   6.906   3.746   1.098
58099SOL    HW176194   6.866   3.762   1.012
58099SOL    HW276195   6.990   3.791   1.095
58100SOL     OW76196   0.380  14.726  14.125
58100SOL    HW176197   0.459  14.718  14.072
58100SOL    HW276198   0.309  14.704  14.064
58101SOL     OW76199   2.857   4.550   4.260
58101SOL    HW176200   2.841   4.588   4.347
58101SOL    HW276201   2.870   4.457   4.277
58102SOL     OW76202   1.778  10.757   7.323
58102SOL    HW176203   1.819  10.728   7.241
58102SOL    HW276204   1.833  10.829   7.352
58103SOL     OW76205   9.401   3.640   5.174
58103SOL    HW176206   9.490   3.667   5.196
58103SOL    HW276207   9.347   3.715   5.197
58104SOL     OW76208   8.700   9.713  11.195
58104SOL    HW176209   8.657   9.637  11.157
58104SOL    HW276210   8.736   9.682  11.277
58105SOL     OW76211   7.177  12.417   0.393
58105SOL    HW176212   7.206  12.356   0.460
58105SOL    HW276213   7.123  12.480   0.440
58106SOL     OW76214  12.818   6.595  12.710
58106SOL    HW176215  12.738   6.645  12.700
58106SOL    HW276216  12.810   6.553  12.796
58107SOL     OW76217   6.815   9.158   3.205
58107SOL    HW176218   6.816   9.253   3.216
58107SOL    HW276219   6.905   9.132   3.225
58108SOL     OW76220   5.202  13.850  14.286
58108SOL    HW176221   5.197  13.755  14.291
58108SOL    HW276222   5.133  13.875  14.224
58109SOL     OW76223   2.039  11.675   8.743
58109SOL    HW176224   2.081  11.609   8.687
58109SOL    HW276225   1.948  11.647   8.749
58110SOL     OW76226   2.118  13.780   9.297
58110SOL    HW176227   2.028  13.801   9.320
58110SOL    HW276228   2.121  13.786   9.202
58111SOL     OW76229   9.063   2.721   6.405
58111SOL    HW176230   9.067   2.746   6.313
58111SOL    HW276231   8.980   2.759   6.436
58112SOL     OW76232   4.633  13.335   6.632
58112SOL    HW176233   4.697  13.371   6.694
58112SOL    HW276234   4.551  13.334   6.680
58113SOL     OW76235   5.477  13.537  13.016
58113SOL    HW176236   5.437  13.499  13.094
58113SOL    HW276237   5.526  13.613  13.049
58114SOL     OW76238  13.901   0.488   2.743
58114SOL    HW176239  13.820   0.527   2.712
58114SOL    HW276240  13.910   0.518   2.834
58115SOL     OW76241   5.573  14.230  11.091
58115SOL    HW176242   5.664  14.259  11.092
58115SOL    HW276243   5.564  14.180  11.010
58116SOL     OW76244   7.669  10.561   4.767
58116SOL    HW176245   7.579  10.540   4.741
58116SOL    HW276246   7.698  10.484   4.816
58117SOL     OW76247   5.921  14.412  11.802
58117SOL    HW176248   5.861  14.454  11.740
58117SOL    HW276249   5.997  14.470  11.805
58118SOL     OW76250   8.876   2.042   0.688
58118SOL    HW176251   8.879   2.073   0.598
58118SOL    HW276252   8.896   2.120   0.741
58119SOL     OW76253   2.823   2.983   4.075
58119SOL    HW176254   2.752   2.959   4.134
58119SOL    HW276255   2.893   3.011   4.133
58120SOL     OW76256   8.990  10.880   3.929
58120SOL    HW176257   8.955  10.961   3.967
58120SOL    HW276258   9.001  10.821   4.003
58121SOL     OW76259   6.288   5.114  13.499
58121SOL    HW176260   6.203   5.153  13.521
58121SOL    HW276261   6.270   5.020  13.492
58122SOL     OW76262   8.055   2.590  13.446
58122SOL    HW176263   8.030   2.682  13.438
58122SOL    HW276264   7.973   2.544  13.460
58123SOL     OW76265   3.494   2.482   1.530
58123SOL    HW176266   3.456   2.544   1.593
58123SOL    HW276267   3.588   2.502   1.530
58124SOL     OW76268   2.599   4.611   7.342
58124SOL    HW176269   2.504   4.615   7.332
58124SOL    HW276270   2.613   4.552   7.416
58125SOL     OW76271   9.049  12.385   3.619
58125SOL    HW176272   9.037  12.475   3.650
58125SOL    HW276273   8.985  12.374   3.549
58126SOL     OW76274  14.622   5.108   9.652
58126SOL    HW176275  14.631   5.130   9.559
58126SOL    HW276276  14.707   5.070   9.675
58127SOL     OW76277   9.743   8.776   1.048
58127SOL    HW176278   9.673   8.778   1.113
58127SOL    HW276279   9.702   8.812   0.969
58128SOL     OW76280  10.322   9.241   8.775
58128SOL    HW176281  10.328   9.333   8.802
58128SOL    HW276282  10.385   9.195   8.830
58129SOL     OW76283  10.251   7.843   8.664
58129SOL    HW176284  10.342   7.835   8.694
58129SOL    HW276285  10.257   7.838   8.568
58130SOL     OW76286   6.340   3.340   7.208
58130SOL    HW176287   6.397   3.343   7.284
58130SOL    HW276288   6.252   3.333   7.245
58131SOL     OW76289  10.414  14.078  10.149
58131SOL    HW176290  10.419  14.171  10.173
58131SOL    HW276291  10.335  14.072  10.096
58132SOL     OW76292   4.034  13.885   7.329
58132SOL    HW176293   4.071  13.905   7.243
58132SOL    HW276294   3.980  13.962   7.350
58133SOL     OW76295   1.794   4.729   4.330
58133SOL    HW176296   1.876   4.768   4.301
58133SOL    HW276297   1.730   4.801   4.323
58134SOL     OW76298  12.364   6.097   8.989
58134SOL    HW176299  12.373   6.121   8.897
58134SOL    HW276300  12.442   6.046   9.009
58135SOL     OW76301  13.268   6.639   0.457
58135SOL    HW176302  13.352   6.594   0.453
58135SOL    HW276303  13.226   6.618   0.374
58136SOL     OW76304  10.200   1.790   6.683
58136SOL    HW176305  10.265   1.788   6.613
58136SOL    HW276306  10.146   1.866   6.665
58137SOL     OW76307   2.085  13.830   2.050
58137SOL    HW176308   2.160  13.844   1.991
58137SOL    HW276309   2.018  13.791   1.994
58138SOL     OW76310   3.305  14.829   8.347
58138SOL    HW176311   3.220  14.786   8.347
58138SOL    HW276312   3.299   0.023   8.416
58139SOL     OW76313   6.807   4.774  12.412
58139SOL    HW176314   6.773   4.770  12.323
58139SOL    HW276315   6.816   4.867  12.430
58140SOL     OW76316   8.423   2.094   8.809
58140SOL    HW176317   8.430   2.110   8.715
58140SOL    HW276318   8.421   2.182   8.847
58141SOL     OW76319   5.070   3.410  11.625
58141SOL    HW176320   5.080   3.324  11.585
58141SOL    HW276321   5.033   3.465  11.556
58142SOL     OW76322   7.912   2.942   3.827
58142SOL    HW176323   7.986   2.883   3.840
58142SOL    HW276324   7.933   2.991   3.748
58143SOL     OW76325   8.142   1.992   8.504
58143SOL    HW176326   8.101   2.017   8.422
58143SOL    HW276327   8.094   1.915   8.533
58144SOL     OW76328   7.850   5.045   6.095
58144SOL    HW176329   7.842   5.139   6.082
58144SOL    HW276330   7.804   5.007   6.021
58145SOL     OW76331   2.052   9.542   0.756
58145SOL    HW176332   2.063   9.595   0.835
58145SOL    HW276333   2.055   9.451   0.787
58146SOL     OW76334   0.565   5.275   9.901
58146SOL    HW176335   0.568   5.242   9.812
58146SOL    HW276336   0.549   5.198   9.955
58147SOL     OW76337  11.319   9.659  11.464
58147SOL    HW176338  11.387   9.592  11.459
58147SOL    HW276339  11.293   9.674  11.373
58148SOL     OW76340  13.276   2.213   0.599
58148SOL    HW176341  13.209   2.148   0.623
58148SOL    HW276342  13.230   2.296   0.600
58149SOL     OW76343   7.171   1.102  13.094
58149SOL    HW176344   7.226   1.051  13.034
58149SOL    HW276345   7.095   1.127  13.041
58150SOL     OW76346  10.916   2.614  10.822
58150SOL    HW176347  10.915   2.659  10.907
58150SOL    HW276348  10.996   2.561  10.825
58151SOL     OW76349   3.061   6.312   7.230
58151SOL    HW176350   3.008   6.267   7.296
58151SOL    HW276351   3.075   6.247   7.162
58152SOL     OW76352  10.427   5.038   4.909
58152SOL    HW176353  10.468   4.952   4.917
58152SOL    HW276354  10.338   5.020   4.879
58153SOL     OW76355   4.891  11.168   5.718
58153SOL    HW176356   4.850  11.233   5.775
58153SOL    HW276357   4.845  11.176   5.635
58154SOL     OW76358  10.726  10.875   8.985
58154SOL    HW176359  10.703  10.790   8.948
58154SOL    HW276360  10.806  10.900   8.939
58155SOL     OW76361   5.914  12.751  12.081
58155SOL    HW176362   5.985  12.811  12.056
58155SOL    HW276363   5.836  12.790  12.043
58156SOL     OW76364  13.991   9.927   6.812
58156SOL    HW176365  13.994   9.832   6.801
58156SOL    HW276366  14.034   9.942   6.896
58157SOL     OW76367   8.797  14.660   8.257
58157SOL    HW176368   8.836  14.594   8.200
58157SOL    HW276369   8.726  14.615   8.302
58158SOL     OW76370  11.541  13.619   4.939
58158SOL    HW176371  11.541  13.668   4.856
58158SOL    HW276372  11.452  13.584   4.946
58159SOL     OW76373   1.277   3.593   7.845
58159SOL    HW176374   1.325   3.662   7.892
58159SOL    HW276375   1.291   3.613   7.752
58160SOL     OW76376   7.514   5.714  14.298
58160SOL    HW176377   7.502   5.806  14.272
58160SOL    HW276378   7.474   5.664  14.227
58161SOL     OW76379  14.517  10.881   5.275
58161SOL    HW176380  14.475  10.799   5.302
58161SOL    HW276381  14.492  10.944   5.342
58162SOL     OW76382   6.272   2.617  11.152
58162SOL    HW176383   6.317   2.686  11.201
58162SOL    HW276384   6.249   2.658  11.069
58163SOL     OW76385   6.309   3.887  10.156
58163SOL    HW176386   6.306   3.846  10.242
58163SOL    HW276387   6.219   3.915  10.140
58164SOL     OW76388   9.477  11.114   0.713
58164SOL    HW176389   9.506  11.032   0.754
58164SOL    HW276390   9.555  11.147   0.668
58165SOL     OW76391   7.008   8.711   8.573
58165SOL    HW176392   7.066   8.684   8.645
58165SOL    HW276393   6.930   8.743   8.617
58166SOL     OW76394  12.263  14.441  13.198
58166SOL    HW176395  12.214  14.375  13.148
58166SOL    HW276396  12.218  14.444  13.283
58167SOL     OW76397   6.092   1.171   5.765
58167SOL    HW176398   6.074   1.240   5.700
58167SOL    HW276399   6.164   1.206   5.817
58168SOL     OW76400   4.737   8.595   6.845
58168SOL    HW176401   4.719   8.684   6.877
58168SOL    HW276402   4.831   8.583   6.862
58169SOL     OW76403   8.988   3.682   5.561
58169SOL    HW176404   9.016   3.772   5.576
58169SOL    HW276405   8.919   3.667   5.626
58170SOL     OW76406  11.469   1.710  10.655
58170SOL    HW176407  11.488   1.619  10.631
58170SOL    HW276408  11.503   1.762  10.581
58171SOL     OW76409  10.253   6.566   1.516
58171SOL    HW176410  10.348   6.566   1.526
58171SOL    HW276411  10.239   6.608   1.431
58172SOL     OW76412   8.539   8.181   5.316
58172SOL    HW176413   8.587   8.260   5.343
58172SOL    HW276414   8.448   8.200   5.338
58173SOL     OW76415  12.553   5.898  14.219
58173SOL    HW176416  12.511   5.920  14.136
58173SOL    HW276417  12.488   5.918  14.286
58174SOL     OW76418   7.971  12.582  14.305
58174SOL    HW176419   8.064  12.596  14.324
58174SOL    HW276420   7.971  12.529  14.226
58175SOL     OW76421   1.421  10.955   4.503
58175SOL    HW176422   1.335  10.990   4.479
58175SOL    HW276423   1.431  10.877   4.449
58176SOL     OW76424  10.136   6.653   7.243
58176SOL    HW176425  10.158   6.579   7.187
58176SOL    HW276426  10.144   6.729   7.185
58177SOL     OW76427   2.672  11.267   7.180
58177SOL    HW176428   2.697  11.210   7.253
58177SOL    HW276429   2.622  11.338   7.220
58178SOL     OW76430  13.582   7.836   2.904
58178SOL    HW176431  13.502   7.809   2.950
58178SOL    HW276432  13.652   7.791   2.950
58179SOL     OW76433  14.831   0.468   3.672
58179SOL    HW176434   0.026   0.498   3.733
58179SOL    HW276435  14.866   0.490   3.586
58180SOL     OW76436   3.066   5.851   9.232
58180SOL    HW176437   3.109   5.792   9.294
58180SOL    HW276438   3.004   5.900   9.285
58181SOL     OW76439   0.821   7.471   1.546
58181SOL    HW176440   0.751   7.519   1.590
58181SOL    HW276441   0.796   7.470   1.454
58182SOL     OW76442  12.936   3.057   9.161
58182SOL    HW176443  13.026   3.090   9.156
58182SOL    HW276444  12.887   3.127   9.203
58183SOL     OW76445  10.373   9.836  11.186
58183SOL    HW176446  10.313   9.821  11.114
58183SOL    HW276447  10.354   9.925  11.216
58184SOL     OW76448  11.616   3.009   6.877
58184SOL    HW176449  11.611   2.926   6.925
58184SOL    HW276450  11.566   2.993   6.797
58185SOL     OW76451   4.748  10.979   3.709
58185SOL    HW176452   4.822  11.017   3.663
58185SOL    HW276453   4.769  10.991   3.802
58186SOL     OW76454   5.978   5.282  14.149
58186SOL    HW176455   5.992   5.234  14.231
58186SOL    HW276456   6.040   5.355  14.153
58187SOL     OW76457   7.694  12.256  10.534
58187SOL    HW176458   7.691  12.350  10.515
58187SOL    HW276459   7.676  12.214  10.450
58188SOL     OW76460  13.258   8.409   0.997
58188SOL    HW176461  13.263   8.505   1.000
58188SOL    HW276462  13.320   8.381   1.065
58189SOL     OW76463  11.640  10.805  12.342
58189SOL    HW176464  11.725  10.820  12.302
58189SOL    HW276465  11.616  10.716  12.315
58190SOL     OW76466  13.626   7.023   4.851
58190SOL    HW176467  13.602   6.968   4.777
58190SOL    HW276468  13.691   7.084   4.816
58191SOL     OW76469  13.434   4.966   3.400
58191SOL    HW176470  13.357   4.984   3.455
58191SOL    HW276471  13.437   5.040   3.339
58192SOL     OW76472   7.047  10.313   3.674
58192SOL    HW176473   7.117  10.252   3.653
58192SOL    HW276474   7.076  10.356   3.754
58193SOL     OW76475  14.126   2.036   8.347
58193SOL    HW176476  14.101   2.104   8.410
58193SOL    HW276477  14.050   2.028   8.289
58194SOL     OW76478   5.488   0.636   3.366
58194SOL    HW176479   5.416   0.595   3.318
58194SOL    HW276480   5.492   0.588   3.449
58195SOL     OW76481   8.807  13.967   6.826
58195SOL    HW176482   8.788  14.003   6.739
58195SOL    HW276483   8.729  13.987   6.878
58196SOL     OW76484  11.908  14.092   0.102
58196SOL    HW176485  11.924  14.063   0.192
58196SOL    HW276486  11.912  14.187   0.106
58197SOL     OW76487   6.592   2.604   9.459
58197SOL    HW176488   6.593   2.511   9.482
58197SOL    HW276489   6.592   2.605   9.364
58198SOL     OW76490   5.671  10.742   4.056
58198SOL    HW176491   5.721  10.724   3.976
58198SOL    HW276492   5.582  10.761   4.024
58199SOL     OW76493  14.778  11.702   4.143
58199SOL    HW176494  14.818  11.615   4.141
58199SOL    HW276495  14.852  11.762   4.134
58200SOL     OW76496   5.534   1.605   7.849
58200SOL    HW176497   5.471   1.636   7.784
58200SOL    HW276498   5.550   1.682   7.904
58201SOL     OW76499   4.859   9.722  13.825
58201SOL    HW176500   4.952   9.735  13.843
58201SOL    HW276501   4.816   9.731  13.910
58202SOL     OW76502   5.780   3.178   7.497
58202SOL    HW176503   5.860   3.215   7.534
58202SOL    HW276504   5.751   3.113   7.560
58203SOL     OW76505   3.301   0.337  14.280
58203SOL    HW176506   3.248   0.291  14.215
58203SOL    HW276507   3.390   0.333  14.247
58204SOL     OW76508  11.300   0.856  13.301
58204SOL    HW176509  11.212   0.893  13.293
58204SOL    HW276510  11.318   0.858  13.395
58205SOL     OW76511  11.187  11.544  12.232
58205SOL    HW176512  11.230  11.629  12.243
58205SOL    HW276513  11.200  11.522  12.140
58206SOL     OW76514   5.755   0.727   6.017
58206SOL    HW176515   5.682   0.705   6.076
58206SOL    HW276516   5.785   0.643   5.984
58207SOL     OW76517  12.621   6.495   2.655
58207SOL    HW176518  12.536   6.450   2.656
58207SOL    HW276519  12.670   6.451   2.586
58208SOL     OW76520   3.751  12.370  14.088
58208SOL    HW176521   3.696  12.328  14.022
58208SOL    HW276522   3.836  12.378  14.047
58209SOL     OW76523   0.419   2.686   3.415
58209SOL    HW176524   0.494   2.721   3.366
58209SOL    HW276525   0.457   2.620   3.473
58210SOL     OW76526  10.228  14.598   9.583
58210SOL    HW176527  10.209  14.661   9.514
58210SOL    HW276528  10.144  14.588   9.629
58211SOL     OW76529   4.196   5.773   1.326
58211SOL    HW176530   4.230   5.723   1.253
58211SOL    HW276531   4.207   5.717   1.403
58212SOL     OW76532   3.929   7.280   6.556
58212SOL    HW176533   3.852   7.304   6.609
58212SOL    HW276534   3.900   7.203   6.506
58213SOL     OW76535   2.558   5.470   7.926
58213SOL    HW176536   2.475   5.457   7.882
58213SOL    HW276537   2.535   5.493   8.016
58214SOL     OW76538  12.209   5.580   0.487
58214SOL    HW176539  12.302   5.567   0.505
58214SOL    HW276540  12.166   5.563   0.571
58215SOL     OW76541   7.599   5.360  12.150
58215SOL    HW176542   7.523   5.337  12.204
58215SOL    HW276543   7.614   5.453  12.169
58216SOL     OW76544   6.419   3.694   9.941
58216SOL    HW176545   6.365   3.667   9.867
58216SOL    HW276546   6.361   3.747   9.995
58217SOL     OW76547  13.662  12.750  11.791
58217SOL    HW176548  13.666  12.725  11.699
58217SOL    HW276549  13.739  12.709  11.830
58218SOL     OW76550   7.489  10.070   3.540
58218SOL    HW176551   7.549  10.105   3.475
58218SOL    HW276552   7.494   9.975   3.529
58219SOL     OW76553   4.908  12.410   1.574
58219SOL    HW176554   4.851  12.456   1.512
58219SOL    HW276555   4.992  12.402   1.529
58220SOL     OW76556   1.294   8.696   9.044
58220SOL    HW176557   1.249   8.776   9.019
58220SOL    HW276558   1.362   8.725   9.106
58221SOL     OW76559   1.165   5.660   5.840
58221SOL    HW176560   1.156   5.650   5.745
58221SOL    HW276561   1.163   5.754   5.855
58222SOL     OW76562   7.807  11.746   7.608
58222SOL    HW176563   7.833  11.824   7.560
58222SOL    HW276564   7.834  11.762   7.698
58223SOL     OW76565  11.504   7.948   6.210
58223SOL    HW176566  11.411   7.950   6.190
58223SOL    HW276567  11.546   7.920   6.129
58224SOL     OW76568   0.647   0.372   7.591
58224SOL    HW176569   0.665   0.446   7.533
58224SOL    HW276570   0.555   0.350   7.573
58225SOL     OW76571  11.431   6.450   5.934
58225SOL    HW176572  11.507   6.505   5.916
58225SOL    HW276573  11.364   6.510   5.965
58226SOL     OW76574   0.155   8.713   2.540
58226SOL    HW176575   0.175   8.726   2.447
58226SOL    HW276576   0.199   8.630   2.562
58227SOL     OW76577  13.531   8.762   0.686
58227SOL    HW176578  13.518   8.707   0.609
58227SOL    HW276579  13.460   8.825   0.684
58228SOL     OW76580   9.506   5.461   2.186
58228SOL    HW176581   9.427   5.466   2.239
58228SOL    HW276582   9.483   5.405   2.112
58229SOL     OW76583   6.813   5.963   1.374
58229SOL    HW176584   6.808   5.932   1.283
58229SOL    HW276585   6.866   6.043   1.368
58230SOL     OW76586  14.825  12.828  13.086
58230SOL    HW176587   0.010  12.893  13.045
58230SOL    HW276588  14.853  12.745  13.048
58231SOL     OW76589  11.851   9.242   7.657
58231SOL    HW176590  11.872   9.335   7.664
58231SOL    HW276591  11.934   9.197   7.675
58232SOL     OW76592  13.871  10.399   4.927
58232SOL    HW176593  13.819  10.425   4.852
58232SOL    HW276594  13.824  10.434   5.003
58233SOL     OW76595   3.976  14.109   8.135
58233SOL    HW176596   3.913  14.165   8.181
58233SOL    HW276597   4.060  14.130   8.176
58234SOL     OW76598   5.973   9.050   9.216
58234SOL    HW176599   6.003   9.016   9.132
58234SOL    HW276600   6.054   9.078   9.260
58235SOL     OW76601   4.855   5.646   5.407
58235SOL    HW176602   4.783   5.595   5.445
58235SOL    HW276603   4.817   5.731   5.386
58236SOL     OW76604  12.877   0.441   1.183
58236SOL    HW176605  12.917   0.485   1.259
58236SOL    HW276606  12.877   0.348   1.207
58237SOL     OW76607   2.772  11.807  11.539
58237SOL    HW176608   2.826  11.747  11.488
58237SOL    HW276609   2.726  11.751  11.601
58238SOL     OW76610   5.672   0.701   7.440
58238SOL    HW176611   5.598   0.755   7.415
58238SOL    HW276612   5.748   0.744   7.399
58239SOL     OW76613  13.151   9.284   1.040
58239SOL    HW176614  13.190   9.300   0.954
58239SOL    HW276615  13.226   9.282   1.100
58240SOL     OW76616   4.031   3.281   9.007
58240SOL    HW176617   4.073   3.350   9.058
58240SOL    HW276618   4.088   3.270   8.931
58241SOL     OW76619   9.151  13.130  10.535
58241SOL    HW176620   9.177  13.083  10.614
58241SOL    HW276621   9.079  13.186  10.564
58242SOL     OW76622  10.096   2.828   9.069
58242SOL    HW176623  10.136   2.742   9.068
58242SOL    HW276624  10.007   2.813   9.102
58243SOL     OW76625   9.107   7.012  13.823
58243SOL    HW176626   9.170   7.043  13.758
58243SOL    HW276627   9.140   7.044  13.906
58244SOL     OW76628   6.412  13.393  11.458
58244SOL    HW176629   6.418  13.307  11.500
58244SOL    HW276630   6.439  13.455  11.526
58245SOL     OW76631  14.254   1.955   7.094
58245SOL    HW176632  14.250   2.046   7.063
58245SOL    HW276633  14.241   1.903   7.015
58246SOL     OW76634   5.306   7.199   0.220
58246SOL    HW176635   5.348   7.205   0.305
58246SOL    HW276636   5.347   7.267   0.167
58247SOL     OW76637   8.217  14.144   8.213
58247SOL    HW176638   8.259  14.137   8.128
58247SOL    HW276639   8.241  14.063   8.259
58248SOL     OW76640  11.810   4.741   4.779
58248SOL    HW176641  11.849   4.683   4.714
58248SOL    HW276642  11.791   4.822   4.730
58249SOL     OW76643   0.497  10.519  10.240
58249SOL    HW176644   0.432  10.535  10.172
58249SOL    HW276645   0.446  10.512  10.321
58250SOL     OW76646   2.374   4.744   7.615
58250SOL    HW176647   2.392   4.738   7.709
58250SOL    HW276648   2.426   4.818   7.585
58251SOL     OW76649   3.127  10.159  13.746
58251SOL    HW176650   3.058  10.097  13.769
58251SOL    HW276651   3.202  10.103  13.724
58252SOL     OW76652   8.579  13.464   7.826
58252SOL    HW176653   8.522  13.392   7.799
58252SOL    HW276654   8.576  13.525   7.753
58253SOL     OW76655  13.639  14.269   9.893
58253SOL    HW176656  13.643  14.176   9.870
58253SOL    HW276657  13.572  14.273   9.962
58254SOL     OW76658   9.825   8.994   6.221
58254SOL    HW176659   9.790   9.076   6.185
58254SOL    HW276660   9.916   9.014   6.241
58255SOL     OW76661   8.088   3.397   6.366
58255SOL    HW176662   8.090   3.303   6.384
58255SOL    HW276663   8.164   3.432   6.412
58256SOL     OW76664  12.797  11.896  11.966
58256SOL    HW176665  12.853  11.972  11.979
58256SOL    HW276666  12.736  11.922  11.897
58257SOL     OW76667   3.851   8.201   4.165
58257SOL    HW176668   3.857   8.283   4.116
58257SOL    HW276669   3.799   8.224   4.242
58258SOL     OW76670  10.850   4.695  10.995
58258SOL    HW176671  10.845   4.602  10.972
58258SOL    HW276672  10.782   4.736  10.942
58259SOL     OW76673   2.947   3.846   2.676
58259SOL    HW176674   2.958   3.911   2.607
58259SOL    HW276675   2.948   3.897   2.757
58260SOL     OW76676  12.816   0.642  12.892
58260SOL    HW176677  12.785   0.551  12.883
58260SOL    HW276678  12.802   0.663  12.984
58261SOL     OW76679   3.502   6.580   2.995
58261SOL    HW176680   3.584   6.609   3.035
58261SOL    HW276681   3.450   6.660   2.985
58262SOL     OW76682   3.027  12.056   6.912
58262SOL    HW176683   2.935  12.033   6.922
58262SOL    HW276684   3.029  12.152   6.912
58263SOL     OW76685  13.237  10.899   6.320
58263SOL    HW176686  13.272  10.980   6.283
58263SOL    HW276687  13.223  10.842   6.244
58264SOL     OW76688  10.855   2.361  12.115
58264SOL    HW176689  10.923   2.296  12.098
58264SOL    HW276690  10.879   2.435  12.059
58265SOL     OW76691  13.239  11.672  14.164
58265SOL    HW176692  13.178  11.739  14.134
58265SOL    HW276693  13.322  11.695  14.122
58266SOL     OW76694   3.113   8.146   3.738
58266SOL    HW176695   3.155   8.152   3.653
58266SOL    HW276696   3.075   8.058   3.741
58267SOL     OW76697   5.580   8.085   2.678
58267SOL    HW176698   5.504   8.047   2.635
58267SOL    HW276699   5.610   8.153   2.617
58268SOL     OW76700   8.011  11.112  13.439
58268SOL    HW176701   7.926  11.134  13.401
58268SOL    HW276702   8.045  11.195  13.473
58269SOL     OW76703  13.064   9.133  12.720
58269SOL    HW176704  13.001   9.203  12.702
58269SOL    HW276705  13.078   9.137  12.814
58270SOL     OW76706  10.292  13.506   9.919
58270SOL    HW176707  10.361  13.548   9.971
58270SOL    HW276708  10.307  13.412   9.930
58271SOL     OW76709  12.555  10.601   3.649
58271SOL    HW176710  12.571  10.511   3.620
58271SOL    HW276711  12.496  10.592   3.724
58272SOL     OW76712   8.071   0.496   4.570
58272SOL    HW176713   8.121   0.458   4.498
58272SOL    HW276714   8.089   0.590   4.565
58273SOL     OW76715  10.957   1.564   0.427
58273SOL    HW176716  10.965   1.525   0.514
58273SOL    HW276717  10.873   1.611   0.429
58274SOL     OW76718  10.088   6.543  13.142
58274SOL    HW176719  10.000   6.581  13.147
58274SOL    HW276720  10.074   6.456  13.106
58275SOL     OW76721  12.561   0.461  10.592
58275SOL    HW176722  12.531   0.515  10.665
58275SOL    HW276723  12.591   0.524  10.527
58276SOL     OW76724   4.082   4.938  12.397
58276SOL    HW176725   4.068   5.008  12.334
58276SOL    HW276726   4.153   4.886  12.360
58277SOL     OW76727  12.917   9.943   9.705
58277SOL    HW176728  12.941  10.029   9.740
58277SOL    HW276729  12.856   9.962   9.634
58278SOL     OW76730  10.971  13.844  13.661
58278SOL    HW176731  10.950  13.885  13.745
58278SOL    HW276732  11.017  13.912  13.611
58279SOL     OW76733   7.080   0.304   6.699
58279SOL    HW176734   7.099   0.283   6.790
58279SOL    HW276735   7.090   0.221   6.652
58280SOL     OW76736  14.835  11.431   8.875
58280SOL    HW176737  14.765  11.366   8.868
58280SOL    HW276738  14.793  11.514   8.855
58281SOL     OW76739  10.361   5.600   6.342
58281SOL    HW176740  10.441   5.584   6.291
58281SOL    HW276741  10.390   5.594   6.433
58282SOL     OW76742   3.838  14.616   7.466
58282SOL    HW176743   3.798  14.531   7.486
58282SOL    HW276744   3.841  14.618   7.370
58283SOL     OW76745  10.696   7.186   5.101
58283SOL    HW176746  10.777   7.227   5.133
58283SOL    HW276747  10.627   7.242   5.136
58284SOL     OW76748   7.432  13.522   9.246
58284SOL    HW176749   7.337  13.510   9.240
58284SOL    HW276750   7.442  13.615   9.266
58285SOL     OW76751   2.249   5.419   1.622
58285SOL    HW176752   2.232   5.383   1.709
58285SOL    HW276753   2.303   5.496   1.638
58286SOL     OW76754   1.680   9.721   1.168
58286SOL    HW176755   1.587   9.731   1.147
58286SOL    HW276756   1.724   9.779   1.106
58287SOL     OW76757  13.524   1.035   3.122
58287SOL    HW176758  13.511   1.008   3.213
58287SOL    HW276759  13.570   1.119   3.129
58288SOL     OW76760  10.578   0.684   6.408
58288SOL    HW176761  10.615   0.626   6.341
58288SOL    HW276762  10.606   0.644   6.491
58289SOL     OW76763   6.945   3.796   5.609
58289SOL    HW176764   6.870   3.757   5.566
58289SOL    HW276765   6.972   3.868   5.551
58290SOL     OW76766   5.013   3.803   3.636
58290SOL    HW176767   4.919   3.792   3.621
58290SOL    HW276768   5.029   3.897   3.624
58291SOL     OW76769   6.911   8.281   8.888
58291SOL    HW176770   6.948   8.238   8.811
58291SOL    HW276771   6.927   8.219   8.960
58292SOL     OW76772  14.005   6.941   1.054
58292SOL    HW176773  13.930   6.974   1.005
58292SOL    HW276774  14.058   7.018   1.073
58293SOL     OW76775  12.032   1.300   0.126
58293SOL    HW176776  12.043   1.299   0.221
58293SOL    HW276777  12.013   1.392   0.105
58294SOL     OW76778  10.019   6.836   3.038
58294SOL    HW176779   9.964   6.857   3.113
58294SOL    HW276780  10.085   6.905   3.036
58295SOL     OW76781   7.974   4.476   7.311
58295SOL    HW176782   7.932   4.544   7.259
58295SOL    HW276783   7.934   4.485   7.398
58296SOL     OW76784   5.493   1.604   7.093
58296SOL    HW176785   5.522   1.629   7.005
58296SOL    HW276786   5.400   1.582   7.082
58297SOL     OW76787  14.134   1.437   2.797
58297SOL    HW176788  14.182   1.519   2.810
58297SOL    HW276789  14.185   1.371   2.844
58298SOL     OW76790   6.960   6.476  10.231
58298SOL    HW176791   6.929   6.535  10.299
58298SOL    HW276792   6.901   6.491  10.157
58299SOL     OW76793   8.575   0.682  10.914
58299SOL    HW176794   8.569   0.599  10.866
58299SOL    HW276795   8.646   0.730  10.871
58300SOL     OW76796   6.340   0.911   0.141
58300SOL    HW176797   6.404   0.932   0.209
58300SOL    HW276798   6.343   0.986   0.081
58301SOL     OW76799   5.125   1.398  10.528
58301SOL    HW176800   5.152   1.422  10.440
58301SOL    HW276801   5.058   1.330  10.514
58302SOL     OW76802   6.355   8.123   5.566
58302SOL    HW176803   6.372   8.033   5.540
58302SOL    HW276804   6.306   8.161   5.493
58303SOL     OW76805   1.577   9.479   6.163
58303SOL    HW176806   1.672   9.473   6.174
58303SOL    HW276807   1.555   9.564   6.201
58304SOL     OW76808   5.414  10.541   1.335
58304SOL    HW176809   5.432  10.610   1.399
58304SOL    HW276810   5.336  10.570   1.289
58305SOL     OW76811   5.805   4.568   5.173
58305SOL    HW176812   5.755   4.509   5.230
58305SOL    HW276813   5.896   4.542   5.186
58306SOL     OW76814   0.488   6.639   9.815
58306SOL    HW176815   0.523   6.714   9.765
58306SOL    HW276816   0.525   6.562   9.771
58307SOL     OW76817   0.240   7.477  14.414
58307SOL    HW176818   0.229   7.474  14.319
58307SOL    HW276819   0.274   7.391  14.437
58308SOL     OW76820   3.070   1.003   6.003
58308SOL    HW176821   3.116   1.086   6.016
58308SOL    HW276822   3.048   1.002   5.910
58309SOL     OW76823   0.880   4.030   7.058
58309SOL    HW176824   0.819   3.995   7.123
58309SOL    HW276825   0.873   4.125   7.067
58310SOL     OW76826   7.996  12.702  10.331
58310SOL    HW176827   7.941  12.767  10.376
58310SOL    HW276828   8.084  12.741  10.331
58311SOL     OW76829   4.393  14.246   8.630
58311SOL    HW176830   4.478  14.258   8.672
58311SOL    HW276831   4.358  14.165   8.668
58312SOL     OW76832   0.377  10.209  11.569
58312SOL    HW176833   0.373  10.260  11.650
58312SOL    HW276834   0.424  10.266  11.508
58313SOL     OW76835  13.064   6.508   5.637
58313SOL    HW176836  12.980   6.544   5.666
58313SOL    HW276837  13.116   6.501   5.717
58314SOL     OW76838  10.626   8.139   9.883
58314SOL    HW176839  10.611   8.233   9.896
58314SOL    HW276840  10.678   8.112   9.959
58315SOL     OW76841   8.248   1.599  13.694
58315SOL    HW176842   8.289   1.521  13.657
58315SOL    HW276843   8.187   1.565  13.760
58316SOL     OW76844   5.357  10.615  12.157
58316SOL    HW176845   5.383  10.588  12.245
58316SOL    HW276846   5.379  10.708  12.154
58317SOL     OW76847   2.431   9.873   7.089
58317SOL    HW176848   2.357   9.861   7.148
58317SOL    HW276849   2.484   9.795   7.099
58318SOL     OW76850   0.631   2.960   9.336
58318SOL    HW176851   0.666   2.880   9.297
58318SOL    HW276852   0.701   2.992   9.393
58319SOL     OW76853   5.099  13.336   2.785
58319SOL    HW176854   5.090  13.424   2.750
58319SOL    HW276855   5.110  13.280   2.708
58320SOL     OW76856   3.335  14.647  13.086
58320SOL    HW176857   3.405  14.596  13.127
58320SOL    HW276858   3.328  14.725  13.141
58321SOL     OW76859   3.662   4.248   5.704
58321SOL    HW176860   3.595   4.213   5.644
58321SOL    HW276861   3.618   4.252   5.789
58322SOL     OW76862   9.174  11.453   2.511
58322SOL    HW176863   9.213  11.428   2.427
58322SOL    HW276864   9.103  11.391   2.523
58323SOL     OW76865  11.651   4.434  10.582
58323SOL    HW176866  11.727   4.470  10.628
58323SOL    HW276867  11.610   4.375  10.645
58324SOL     OW76868   3.961   3.810   7.840
58324SOL    HW176869   4.031   3.748   7.858
58324SOL    HW276870   3.933   3.790   7.751
58325SOL     OW76871   4.972   7.407  12.912
58325SOL    HW176872   4.965   7.352  12.835
58325SOL    HW276873   4.882   7.425  12.938
58326SOL     OW76874   6.358   1.748   0.475
58326SOL    HW176875   6.356   1.827   0.530
58326SOL    HW276876   6.268   1.716   0.478
58327SOL     OW76877   6.039  13.855   0.500
58327SOL    HW176878   6.125  13.840   0.460
58327SOL    HW276879   6.035  13.950   0.511
58328SOL     OW76880   4.580  14.116   2.059
58328SOL    HW176881   4.589  14.208   2.038
58328SOL    HW276882   4.497  14.089   2.018
58329SOL     OW76883   7.236  12.318   6.453
58329SOL    HW176884   7.167  12.266   6.412
58329SOL    HW276885   7.261  12.268   6.531
58330SOL     OW76886   2.075   1.602   2.482
58330SOL    HW176887   2.076   1.692   2.448
58330SOL    HW276888   1.983   1.575   2.476
58331SOL     OW76889   4.914   6.381   7.935
58331SOL    HW176890   4.918   6.428   8.019
58331SOL    HW276891   4.854   6.433   7.882
58332SOL     OW76892  13.451   5.474   1.183
58332SOL    HW176893  13.536   5.440   1.208
58332SOL    HW276894  13.388   5.410   1.217
58333SOL     OW76895   5.779  11.950  10.379
58333SOL    HW176896   5.690  11.934  10.411
58333SOL    HW276897   5.820  11.864  10.377
58334SOL     OW76898  12.163  13.338  13.845
58334SOL    HW176899  12.123  13.422  13.822
58334SOL    HW276900  12.250  13.341  13.805
58335SOL     OW76901   8.282   0.974   4.527
58335SOL    HW176902   8.368   1.013   4.510
58335SOL    HW276903   8.236   0.979   4.443
58336SOL     OW76904  12.028   6.443   3.348
58336SOL    HW176905  11.963   6.425   3.280
58336SOL    HW276906  12.018   6.370   3.409
58337SOL     OW76907   0.205  10.783   9.902
58337SOL    HW176908   0.175  10.829   9.824
58337SOL    HW276909   0.294  10.814   9.916
58338SOL     OW76910   2.031   8.851   8.064
58338SOL    HW176911   1.945   8.808   8.058
58338SOL    HW276912   2.076   8.803   8.133
58339SOL     OW76913   4.506   1.044  13.455
58339SOL    HW176914   4.578   0.981  13.450
58339SOL    HW276915   4.466   1.040  13.368
58340SOL     OW76916   6.040   9.139   1.314
58340SOL    HW176917   5.995   9.142   1.229
58340SOL    HW276918   6.006   9.060   1.356
58341SOL     OW76919   1.309   8.658   4.827
58341SOL    HW176920   1.224   8.633   4.789
58341SOL    HW276921   1.372   8.599   4.785
58342SOL     OW76922  11.380  11.602   9.055
58342SOL    HW176923  11.310  11.583   8.993
58342SOL    HW276924  11.343  11.585   9.141
58343SOL     OW76925   2.188   5.575  13.942
58343SOL    HW176926   2.203   5.565  14.036
58343SOL    HW276927   2.169   5.486  13.911
58344SOL     OW76928   8.585  12.242   0.392
58344SOL    HW176929   8.538  12.281   0.465
58344SOL    HW276930   8.645  12.312   0.363
58345SOL     OW76931   6.264  11.513  13.834
58345SOL    HW176932   6.215  11.442  13.874
58345SOL    HW276933   6.291  11.478  13.749
58346SOL     OW76934  10.574   5.409   1.673
58346SOL    HW176935  10.487   5.370   1.679
58346SOL    HW276936  10.591   5.416   1.579
58347SOL     OW76937   4.465   8.926   7.964
58347SOL    HW176938   4.445   8.981   8.040
58347SOL    HW276939   4.524   8.979   7.910
58348SOL     OW76940   1.347  10.135   9.983
58348SOL    HW176941   1.398  10.082  10.044
58348SOL    HW276942   1.406  10.207   9.959
58349SOL     OW76943   0.023  12.584   7.163
58349SOL    HW176944   0.114  12.557   7.147
58349SOL    HW276945   0.029  12.677   7.185
58350SOL     OW76946   8.303  12.182   0.297
58350SOL    HW176947   8.367  12.227   0.352
58350SOL    HW276948   8.264  12.252   0.244
58351SOL     OW76949   0.382   9.646  14.839
58351SOL    HW176950   0.344   9.690   0.042
58351SOL    HW276951   0.315   9.584  14.810
58352SOL     OW76952  13.163   7.589  10.575
58352SOL    HW176953  13.185   7.589  10.669
58352SOL    HW276954  13.174   7.680  10.548
58353SOL     OW76955   7.586  14.425   6.499
58353SOL    HW176956   7.625  14.339   6.513
58353SOL    HW276957   7.619  14.479   6.571
58354SOL     OW76958   5.387   3.353  14.395
58354SOL    HW176959   5.371   3.379  14.486
58354SOL    HW276960   5.301   3.325  14.363
58355SOL     OW76961  13.195  13.953   3.122
58355SOL    HW176962  13.216  13.999   3.203
58355SOL    HW276963  13.168  14.022   3.062
58356SOL     OW76964   7.856   3.390  12.739
58356SOL    HW176965   7.903   3.457  12.789
58356SOL    HW276966   7.923   3.327  12.713
58357SOL     OW76967  11.686  12.693   6.397
58357SOL    HW176968  11.721  12.604   6.402
58357SOL    HW276969  11.753  12.743   6.352
58358SOL     OW76970   9.011   6.093  14.626
58358SOL    HW176971   8.994   6.005  14.592
58358SOL    HW276972   9.039   6.078  14.716
58359SOL     OW76973  13.128   1.075   5.570
58359SOL    HW176974  13.068   1.012   5.530
58359SOL    HW276975  13.139   1.044   5.660
58360SOL     OW76976   9.806   0.891  13.370
58360SOL    HW176977   9.747   0.817  13.385
58360SOL    HW276978   9.748   0.966  13.357
58361SOL     OW76979   0.847  12.884  10.503
58361SOL    HW176980   0.880  12.910  10.417
58361SOL    HW276981   0.828  12.967  10.547
58362SOL     OW76982  11.313  11.933   0.208
58362SOL    HW176983  11.257  12.008   0.227
58362SOL    HW276984  11.263  11.882   0.144
58363SOL     OW76985   4.831   6.447  13.780
58363SOL    HW176986   4.867   6.530  13.749
58363SOL    HW276987   4.851   6.385  13.710
58364SOL     OW76988   0.971   5.473   2.911
58364SOL    HW176989   0.948   5.429   2.829
58364SOL    HW276990   0.908   5.441   2.975
58365SOL     OW76991   2.867   6.035  11.884
58365SOL    HW176992   2.959   6.062  11.877
58365SOL    HW276993   2.822   6.087  11.817
58366SOL     OW76994   2.371   2.188  13.793
58366SOL    HW176995   2.385   2.134  13.871
58366SOL    HW276996   2.283   2.164  13.764
58367SOL     OW76997   1.895  12.841   7.067
58367SOL    HW176998   1.823  12.891   7.105
58367SOL    HW276999   1.967  12.853   7.129
58368SOL     OW77000   9.803  12.300  14.297
58368SOL    HW177001   9.837  12.370  14.352
58368SOL    HW277002   9.780  12.230  14.359
58369SOL     OW77003   5.938   1.243   9.527
58369SOL    HW177004   5.955   1.205   9.613
58369SOL    HW277005   5.843   1.258   9.526
58370SOL     OW77006   0.209   1.956   7.824
58370SOL    HW177007   0.136   1.968   7.763
58370SOL    HW277008   0.287   1.962   7.770
58371SOL     OW77009  14.241   9.376   8.815
58371SOL    HW177010  14.274   9.298   8.770
58371SOL    HW277011  14.224   9.347   8.905
58372SOL     OW77012   5.729   3.118   7.235
58372SOL    HW177013   5.815   3.101   7.197
58372SOL    HW277014   5.748   3.143   7.326
58373SOL     OW77015   6.372   4.614   8.180
58373SOL    HW177016   6.288   4.633   8.222
58373SOL    HW277017   6.437   4.659   8.234
58374SOL     OW77018   4.819   4.890  10.328
58374SOL    HW177019   4.762   4.845  10.266
58374SOL    HW277020   4.872   4.949  10.274
58375SOL     OW77021   7.648   1.245  14.562
58375SOL    HW177022   7.714   1.296  14.515
58375SOL    HW277023   7.697   1.193  14.625
58376SOL     OW77024   8.430   2.285  10.038
58376SOL    HW177025   8.413   2.376  10.012
58376SOL    HW277026   8.487   2.251   9.969
58377SOL     OW77027   1.653   5.857   7.299
58377SOL    HW177028   1.604   5.937   7.316
58377SOL    HW277029   1.597   5.787   7.333
58378SOL     OW77030  10.550   4.479   4.819
58378SOL    HW177031  10.584   4.527   4.743
58378SOL    HW277032  10.509   4.401   4.780
58379SOL     OW77033   9.014  13.995   8.741
58379SOL    HW177034   8.980  13.916   8.701
58379SOL    HW277035   9.032  14.054   8.668
58380SOL     OW77036  14.338  12.488  12.005
58380SOL    HW177037  14.260  12.455  12.049
58380SOL    HW277038  14.344  12.435  11.925
58381SOL     OW77039   8.046   1.291  14.425
58381SOL    HW177040   7.966   1.284  14.373
58381SOL    HW277041   8.049   1.210  14.475
58382SOL     OW77042   1.567   1.261   7.176
58382SOL    HW177043   1.568   1.335   7.236
58382SOL    HW277044   1.580   1.300   7.089
58383SOL     OW77045  14.065   9.145   3.281
58383SOL    HW177046  14.146   9.105   3.248
58383SOL    HW277047  14.042   9.091   3.357
58384SOL     OW77048  13.057   5.227   0.352
58384SOL    HW177049  13.097   5.141   0.339
58384SOL    HW277050  13.032   5.255   0.264
58385SOL     OW77051   5.106   9.586   4.665
58385SOL    HW177052   5.087   9.598   4.572
58385SOL    HW277053   5.035   9.632   4.710
58386SOL     OW77054  11.137  11.253   7.845
58386SOL    HW177055  11.143  11.158   7.834
58386SOL    HW277056  11.185  11.289   7.770
58387SOL     OW77057   4.148  11.702  10.410
58387SOL    HW177058   4.087  11.774  10.421
58387SOL    HW277059   4.164  11.697  10.316
58388SOL     OW77060   5.747   5.638   3.958
58388SOL    HW177061   5.837   5.607   3.945
58388SOL    HW277062   5.738   5.644   4.053
58389SOL     OW77063  11.246   7.314   1.108
58389SOL    HW177064  11.306   7.371   1.059
58389SOL    HW277065  11.193   7.375   1.160
58390SOL     OW77066   6.679  11.737  13.978
58390SOL    HW177067   6.765  11.774  14.001
58390SOL    HW277068   6.699  11.651  13.941
58391SOL     OW77069  11.671   2.230   8.688
58391SOL    HW177070  11.737   2.292   8.658
58391SOL    HW277071  11.704   2.198   8.772
58392SOL     OW77072   3.371   0.639   1.870
58392SOL    HW177073   3.392   0.607   1.782
58392SOL    HW277074   3.442   0.606   1.925
58393SOL     OW77075  12.102  11.424   2.035
58393SOL    HW177076  12.028  11.472   1.998
58393SOL    HW277077  12.140  11.484   2.099
58394SOL     OW77078   2.813   4.721  12.151
58394SOL    HW177079   2.820   4.676  12.236
58394SOL    HW277080   2.722   4.706  12.124
58395SOL     OW77081   8.895  10.756   1.412
58395SOL    HW177082   8.833  10.810   1.364
58395SOL    HW277083   8.942  10.817   1.469
58396SOL     OW77084   5.323   0.071   0.599
58396SOL    HW177085   5.344   0.031   0.515
58396SOL    HW277086   5.324  14.870   0.661
58397SOL     OW77087  12.816  14.546   3.091
58397SOL    HW177088  12.878  14.475   3.072
58397SOL    HW277089  12.750  14.505   3.148
58398SOL     OW77090   7.276   9.281   3.071
58398SOL    HW177091   7.318   9.331   3.001
58398SOL    HW277092   7.344   9.220   3.101
58399SOL     OW77093   2.326   8.475   7.497
58399SOL    HW177094   2.326   8.450   7.404
58399SOL    HW277095   2.400   8.534   7.506
58400SOL     OW77096  10.797  10.472   2.422
58400SOL    HW177097  10.817  10.413   2.350
58400SOL    HW277098  10.844  10.553   2.402
58401SOL     OW77099   1.589  13.943   1.243
58401SOL    HW177100   1.593  14.024   1.192
58401SOL    HW277101   1.620  13.875   1.183
58402SOL     OW77102   5.150   9.304  10.204
58402SOL    HW177103   5.195   9.286  10.122
58402SOL    HW277104   5.089   9.230  10.215
58403SOL     OW77105  13.071   3.425  10.256
58403SOL    HW177106  13.158   3.428  10.296
58403SOL    HW277107  13.081   3.370  10.179
58404SOL     OW77108   6.595  13.928   7.874
58404SOL    HW177109   6.572  13.962   7.960
58404SOL    HW277110   6.647  13.998   7.834
58405SOL     OW77111  10.655  13.232   1.973
58405SOL    HW177112  10.645  13.183   2.055
58405SOL    HW277113  10.743  13.207   1.942
58406SOL     OW77114  11.989   2.328   6.489
58406SOL    HW177115  11.928   2.337   6.563
58406SOL    HW277116  12.046   2.404   6.496
58407SOL     OW77117   2.614   5.271   7.141
58407SOL    HW177118   2.691   5.250   7.087
58407SOL    HW277119   2.544   5.217   7.105
58408SOL     OW77120  10.866  10.295   2.785
58408SOL    HW177121  10.822  10.243   2.852
58408SOL    HW277122  10.911  10.231   2.730
58409SOL     OW77123  14.084   1.862   1.348
58409SOL    HW177124  14.140   1.928   1.308
58409SOL    HW277125  14.133   1.831   1.423
58410SOL     OW77126   9.003  12.079  10.004
58410SOL    HW177127   9.060  12.099  10.078
58410SOL    HW277128   8.943  12.153   9.998
58411SOL     OW77129   8.379   5.309  10.018
58411SOL    HW177130   8.295   5.333  10.057
58411SOL    HW277131   8.371   5.335   9.927
58412SOL     OW77132   3.573   2.013  10.785
58412SOL    HW177133   3.627   1.944  10.823
58412SOL    HW277134   3.487   1.973  10.774
58413SOL     OW77135   8.036   0.136   2.869
58413SOL    HW177136   8.020   0.065   2.807
58413SOL    HW277137   8.131   0.148   2.869
58414SOL     OW77138  13.923   6.293  11.384
58414SOL    HW177139  13.842   6.257  11.420
58414SOL    HW277140  13.901   6.384  11.362
58415SOL     OW77141   3.618   7.941  12.623
58415SOL    HW177142   3.702   7.962  12.663
58415SOL    HW277143   3.557   8.005  12.660
58416SOL     OW77144   8.411  11.636   1.650
58416SOL    HW177145   8.405  11.725   1.615
58416SOL    HW277146   8.334  11.627   1.705
58417SOL     OW77147   5.951   5.489  11.371
58417SOL    HW177148   5.943   5.425  11.442
58417SOL    HW277149   5.868   5.485  11.325
58418SOL     OW77150   1.274   2.725   3.434
58418SOL    HW177151   1.245   2.799   3.380
58418SOL    HW277152   1.281   2.761   3.522
58419SOL     OW77153  10.310  14.715  12.139
58419SOL    HW177154  10.254  14.792  12.125
58419SOL    HW277155  10.265  14.664  12.206
58420SOL     OW77156  14.141   8.412  10.618
58420SOL    HW177157  14.204   8.356  10.663
58420SOL    HW277158  14.191   8.453  10.547
58421SOL     OW77159   7.065   1.930   5.796
58421SOL    HW177160   6.972   1.948   5.788
58421SOL    HW277161   7.099   2.000   5.852
58422SOL     OW77162  10.894   9.065   6.545
58422SOL    HW177163  10.888   8.969   6.548
58422SOL    HW277164  10.881   9.086   6.453
58423SOL     OW77165   0.473  13.187   5.655
58423SOL    HW177166   0.506  13.106   5.618
58423SOL    HW277167   0.409  13.159   5.721
58424SOL     OW77168   8.835   8.747   5.617
58424SOL    HW177169   8.803   8.748   5.527
58424SOL    HW277170   8.822   8.657   5.646
58425SOL     OW77171  14.731   0.019   7.631
58425SOL    HW177172  14.673   0.093   7.616
58425SOL    HW277173  14.732   0.007   7.726
58426SOL     OW77174  11.979   1.601   0.630
58426SOL    HW177175  11.903   1.548   0.652
58426SOL    HW277176  11.949   1.691   0.640
58427SOL     OW77177   4.501   7.073   4.571
58427SOL    HW177178   4.595   7.069   4.556
58427SOL    HW277179   4.489   7.145   4.632
58428SOL     OW77180  11.774   6.349  14.577
58428SOL    HW177181  11.775   6.289  14.502
58428SOL    HW277182  11.831   6.308  14.641
58429SOL     OW77183   8.498   3.650   1.167
58429SOL    HW177184   8.523   3.720   1.107
58429SOL    HW277185   8.530   3.570   1.126
58430SOL     OW77186  14.079  13.908   9.747
58430SOL    HW177187  13.984  13.904   9.763
58430SOL    HW277188  14.118  13.868   9.824
58431SOL     OW77189   4.755  11.748   7.116
58431SOL    HW177190   4.697  11.732   7.041
58431SOL    HW277191   4.699  11.736   7.193
58432SOL     OW77192  11.963   5.472   9.943
58432SOL    HW177193  11.917   5.403   9.990
58432SOL    HW277194  11.908   5.489   9.866
58433SOL     OW77195   5.024  10.238   9.546
58433SOL    HW177196   5.049  10.156   9.505
58433SOL    HW277197   4.930  10.245   9.530
58434SOL     OW77198  11.995   7.145   6.352
58434SOL    HW177199  11.977   7.051   6.359
58434SOL    HW277200  12.068   7.151   6.290
58435SOL     OW77201   8.776  13.307   8.829
58435SOL    HW177202   8.832  13.345   8.762
58435SOL    HW277203   8.741  13.227   8.789
58436SOL     OW77204  12.205   4.843   6.718
58436SOL    HW177205  12.134   4.822   6.780
58436SOL    HW277206  12.268   4.893   6.770
58437SOL     OW77207  14.551   3.058   1.883
58437SOL    HW177208  14.615   3.121   1.851
58437SOL    HW277209  14.575   2.976   1.840
58438SOL     OW77210   0.940  11.254   0.052
58438SOL    HW177211   0.888  11.180   0.019
58438SOL    HW277212   0.875  11.313   0.091
58439SOL     OW77213  11.335   0.703   9.545
58439SOL    HW177214  11.305   0.788   9.512
58439SOL    HW277215  11.287   0.639   9.493
58440SOL     OW77216   3.744   4.102   4.830
58440SOL    HW177217   3.682   4.161   4.786
58440SOL    HW277218   3.794   4.062   4.758
58441SOL     OW77219  12.579   3.465  11.636
58441SOL    HW177220  12.548   3.550  11.666
58441SOL    HW277221  12.618   3.482  11.550
58442SOL     OW77222  13.145  13.773  10.686
58442SOL    HW177223  13.199  13.742  10.758
58442SOL    HW277224  13.193  13.748  10.607
58443SOL     OW77225  13.503   4.033   8.765
58443SOL    HW177226  13.572   4.009   8.703
58443SOL    HW277227  13.536   4.109   8.811
58444SOL     OW77228   4.323   3.046  13.558
58444SOL    HW177229   4.417   3.044  13.543
58444SOL    HW277230   4.293   2.957  13.535
58445SOL     OW77231   0.107   3.511   1.441
58445SOL    HW177232   0.151   3.583   1.396
58445SOL    HW277233   0.047   3.474   1.376
58446SOL     OW77234   7.879  10.234  10.407
58446SOL    HW177235   7.921  10.169  10.352
58446SOL    HW277236   7.881  10.315  10.355
58447SOL     OW77237  10.400   0.344   6.946
58447SOL    HW177238  10.356   0.428   6.956
58447SOL    HW277239  10.330   0.281   6.929
58448SOL     OW77240   9.759  13.464   6.705
58448SOL    HW177241   9.833  13.416   6.666
58448SOL    HW277242   9.695  13.397   6.727
58449SOL     OW77243  10.220   9.298   5.248
58449SOL    HW177244  10.268   9.292   5.166
58449SOL    HW277245  10.129   9.311   5.222
58450SOL     OW77246  10.489   4.491   1.198
58450SOL    HW177247  10.429   4.552   1.156
58450SOL    HW277248  10.550   4.546   1.247
58451SOL     OW77249   1.772   7.106  10.373
58451SOL    HW177250   1.859   7.095  10.411
58451SOL    HW277251   1.712   7.099  10.447
58452SOL     OW77252   5.703   2.729   8.878
58452SOL    HW177253   5.738   2.689   8.799
58452SOL    HW277254   5.776   2.778   8.916
58453SOL     OW77255   2.208  11.753   1.598
58453SOL    HW177256   2.169  11.830   1.558
58453SOL    HW277257   2.213  11.689   1.527
58454SOL     OW77258   2.816  14.177   6.170
58454SOL    HW177259   2.765  14.125   6.233
58454SOL    HW277260   2.781  14.151   6.084
58455SOL     OW77261   6.705   3.738   0.565
58455SOL    HW177262   6.797   3.730   0.540
58455SOL    HW277263   6.662   3.770   0.485
58456SOL     OW77264   3.621   6.046  10.208
58456SOL    HW177265   3.564   6.008  10.275
58456SOL    HW277266   3.708   6.044  10.247
58457SOL     OW77267   9.923   6.930   5.444
58457SOL    HW177268   9.904   6.966   5.357
58457SOL    HW277269  10.012   6.896   5.438
58458SOL     OW77270  11.983   4.953   9.602
58458SOL    HW177271  11.938   5.033   9.629
58458SOL    HW277272  12.050   4.939   9.669
58459SOL     OW77273  11.831   0.447   9.980
58459SOL    HW177274  11.814   0.523   9.925
58459SOL    HW277275  11.749   0.429  10.024
58460SOL     OW77276   1.084   1.975  13.537
58460SOL    HW177277   1.037   1.955  13.455
58460SOL    HW277278   1.015   1.983  13.602
58461SOL     OW77279   4.778   8.553  11.597
58461SOL    HW177280   4.855   8.608  11.584
58461SOL    HW277281   4.721   8.605  11.653
58462SOL     OW77282  12.151   0.570  14.600
58462SOL    HW177283  12.114   0.584  14.513
58462SOL    HW277284  12.129   0.650  14.648
58463SOL     OW77285  12.476   5.442   2.872
58463SOL    HW177286  12.500   5.535   2.868
58463SOL    HW277287  12.388   5.438   2.833
58464SOL     OW77288  14.845   3.010  13.435
58464SOL    HW177289   0.064   3.039  13.425
58464SOL    HW277290  14.805   3.077  13.489
58465SOL     OW77291   9.904   5.241   2.878
58465SOL    HW177292   9.869   5.152   2.877
58465SOL    HW277293   9.901   5.267   2.971
58466SOL     OW77294   8.669   1.457   1.332
58466SOL    HW177295   8.667   1.552   1.343
58466SOL    HW277296   8.737   1.442   1.267
58467SOL     OW77297   4.784   4.159   7.088
58467SOL    HW177298   4.863   4.105   7.091
58467SOL    HW277299   4.756   4.166   7.180
58468SOL     OW77300   3.818   7.879  10.544
58468SOL    HW177301   3.866   7.797  10.528
58468SOL    HW277302   3.885   7.942  10.570
58469SOL     OW77303   6.847  13.629   9.513
58469SOL    HW177304   6.773  13.675   9.554
58469SOL    HW277305   6.915  13.695   9.506
58470SOL     OW77306   7.105   7.900  11.771
58470SOL    HW177307   7.080   7.808  11.777
58470SOL    HW277308   7.035   7.948  11.815
58471SOL     OW77309   4.416   6.580  14.000
58471SOL    HW177310   4.337   6.616  13.961
58471SOL    HW277311   4.481   6.583  13.930
58472SOL     OW77312   5.919   8.220   3.455
58472SOL    HW177313   5.927   8.152   3.389
58472SOL    HW277314   6.004   8.220   3.501
58473SOL     OW77315   9.210  10.324  13.086
58473SOL    HW177316   9.151  10.398  13.096
58473SOL    HW277317   9.269  10.330  13.162
58474SOL     OW77318  10.129   1.273  12.868
58474SOL    HW177319  10.161   1.277  12.778
58474SOL    HW277320  10.093   1.184  12.876
58475SOL     OW77321   1.420  13.325   6.824
58475SOL    HW177322   1.491  13.326   6.760
58475SOL    HW277323   1.380  13.411   6.816
58476SOL     OW77324  12.291   4.900   4.545
58476SOL    HW177325  12.261   4.965   4.608
58476SOL    HW277326  12.221   4.835   4.542
58477SOL     OW77327   2.729   0.771   9.435
58477SOL    HW177328   2.719   0.823   9.515
58477SOL    HW277329   2.814   0.727   9.446
58478SOL     OW77330   7.036   8.393   1.358
58478SOL    HW177331   7.067   8.476   1.322
58478SOL    HW277332   7.069   8.391   1.448
58479SOL     OW77333   7.982   7.910   7.585
58479SOL    HW177334   8.067   7.875   7.610
58479SOL    HW277335   7.921   7.838   7.600
58480SOL     OW77336   1.751   2.814   8.593
58480SOL    HW177337   1.673   2.779   8.549
58480SOL    HW277338   1.823   2.793   8.533
58481SOL     OW77339   8.960  13.558   3.680
58481SOL    HW177340   8.970  13.466   3.704
58481SOL    HW277341   9.049  13.594   3.684
58482SOL     OW77342   2.559   8.236  12.795
58482SOL    HW177343   2.610   8.306  12.837
58482SOL    HW277344   2.482   8.225  12.851
58483SOL     OW77345   9.634   4.379   5.046
58483SOL    HW177346   9.546   4.351   5.021
58483SOL    HW277347   9.690   4.349   4.974
58484SOL     OW77348  10.574   0.890   6.638
58484SOL    HW177349  10.623   0.812   6.609
58484SOL    HW277350  10.554   0.872   6.730
58485SOL     OW77351   0.348  13.192   4.546
58485SOL    HW177352   0.403  13.140   4.487
58485SOL    HW277353   0.263  13.149   4.543
58486SOL     OW77354   0.349  11.874   8.463
58486SOL    HW177355   0.327  11.856   8.554
58486SOL    HW277356   0.280  11.934   8.433
58487SOL     OW77357   7.044  12.635  11.941
58487SOL    HW177358   7.065  12.708  11.882
58487SOL    HW277359   7.024  12.562  11.883
58488SOL     OW77360  12.529   9.103  11.704
58488SOL    HW177361  12.524   9.199  11.708
58488SOL    HW277362  12.503   9.082  11.614
58489SOL     OW77363  10.581  10.823   7.136
58489SOL    HW177364  10.570  10.780   7.221
58489SOL    HW277365  10.648  10.890   7.151
58490SOL     OW77366   8.289   6.009   6.819
58490SOL    HW177367   8.374   5.986   6.856
58490SOL    HW277368   8.263   6.089   6.866
58491SOL     OW77369   6.580  11.617  13.444
58491SOL    HW177370   6.528  11.614  13.364
58491SOL    HW277371   6.564  11.532  13.486
58492SOL     OW77372  14.870  10.453  10.631
58492SOL    HW177373  14.834  10.496  10.554
58492SOL    HW277374  14.796  10.406  10.669
58493SOL     OW77375   8.657   4.410  12.282
58493SOL    HW177376   8.751   4.404  12.298
58493SOL    HW277377   8.639   4.344  12.215
58494SOL     OW77378   9.160  10.076   0.328
58494SOL    HW177379   9.192  10.115   0.410
58494SOL    HW277380   9.235  10.026   0.295
58495SOL     OW77381  13.244  13.010   3.533
58495SOL    HW177382  13.180  13.063   3.485
58495SOL    HW277383  13.237  13.040   3.623
58496SOL     OW77384  11.172  12.338  10.099
58496SOL    HW177385  11.203  12.419  10.061
58496SOL    HW277386  11.087  12.360  10.137
58497SOL     OW77387   8.597  10.741   9.219
58497SOL    HW177388   8.651  10.821   9.214
58497SOL    HW277389   8.650  10.681   9.272
58498SOL     OW77390  11.934  14.148   7.631
58498SOL    HW177391  11.898  14.071   7.587
58498SOL    HW277392  11.857  14.199   7.657
58499SOL     OW77393  11.637   9.095  12.363
58499SOL    HW177394  11.718   9.046  12.348
58499SOL    HW277395  11.663   9.187  12.352
58500SOL     OW77396  11.471  12.588  10.236
58500SOL    HW177397  11.481  12.493  10.237
58500SOL    HW277398  11.538  12.620  10.297
58501SOL     OW77399   8.591   7.642  14.282
58501SOL    HW177400   8.657   7.645  14.351
58501SOL    HW277401   8.574   7.548  14.269
58502SOL     OW77402  13.183   0.368  11.042
58502SOL    HW177403  13.224   0.334  11.121
58502SOL    HW277404  13.223   0.453  11.029
58503SOL     OW77405   9.204   4.190   1.310
58503SOL    HW177406   9.260   4.145   1.374
58503SOL    HW277407   9.115   4.176   1.341
58504SOL     OW77408   0.885  13.408  12.130
58504SOL    HW177409   0.831  13.329  12.140
58504SOL    HW277410   0.868  13.458  12.210
58505SOL     OW77411   1.667   7.087   4.784
58505SOL    HW177412   1.675   7.107   4.877
58505SOL    HW277413   1.604   7.151   4.752
58506SOL     OW77414   3.489   9.102   1.359
58506SOL    HW177415   3.544   9.030   1.329
58506SOL    HW277416   3.415   9.104   1.299
58507SOL     OW77417   8.547  14.004   7.756
58507SOL    HW177418   8.604  14.062   7.705
58507SOL    HW277419   8.459  14.028   7.729
58508SOL     OW77420  11.745  11.456   7.793
58508SOL    HW177421  11.706  11.492   7.873
58508SOL    HW277422  11.815  11.399   7.825
58509SOL     OW77423   9.510   3.949   0.169
58509SOL    HW177424   9.525   4.038   0.201
58509SOL    HW277425   9.592   3.924   0.127
58510SOL     OW77426  11.603   8.774  12.786
58510SOL    HW177427  11.585   8.730  12.703
58510SOL    HW277428  11.535   8.743  12.846
58511SOL     OW77429   6.255   3.383   1.052
58511SOL    HW177430   6.306   3.307   1.026
58511SOL    HW277431   6.176   3.378   0.998
58512SOL     OW77432  10.071   0.534   3.834
58512SOL    HW177433   9.995   0.548   3.776
58512SOL    HW277434  10.073   0.440   3.847
58513SOL     OW77435  13.960  12.051   4.953
58513SOL    HW177436  13.908  12.065   5.032
58513SOL    HW277437  14.033  11.996   4.982
58514SOL     OW77438  13.039   1.010  11.358
58514SOL    HW177439  13.032   0.959  11.278
58514SOL    HW277440  12.948   1.022  11.386
58515SOL     OW77441   9.603   5.685   9.127
58515SOL    HW177442   9.614   5.672   9.221
58515SOL    HW277443   9.529   5.630   9.103
58516SOL     OW77444   2.395   7.585   5.999
58516SOL    HW177445   2.467   7.545   5.951
58516SOL    HW277446   2.434   7.615   6.081
58517SOL     OW77447  14.020  10.413   6.886
58517SOL    HW177448  13.928  10.416   6.859
58517SOL    HW277449  14.054  10.334   6.844
58518SOL     OW77450   7.607   5.365   2.509
58518SOL    HW177451   7.597   5.443   2.454
58518SOL    HW277452   7.656   5.304   2.455
58519SOL     OW77453   9.517  13.167   5.676
58519SOL    HW177454   9.596  13.197   5.721
58519SOL    HW277455   9.448  13.173   5.741
58520SOL     OW77456   4.022   6.456  10.017
58520SOL    HW177457   4.039   6.385  10.077
58520SOL    HW277458   3.948   6.504  10.055
58521SOL     OW77459  13.518  10.601   0.031
58521SOL    HW177460  13.564  10.517   0.028
58521SOL    HW277461  13.464  10.596   0.110
58522SOL     OW77462   0.879   5.397   1.380
58522SOL    HW177463   0.896   5.305   1.401
58522SOL    HW277464   0.806   5.395   1.319
58523SOL     OW77465  12.548   8.543  12.569
58523SOL    HW177466  12.565   8.478  12.638
58523SOL    HW277467  12.625   8.538  12.513
58524SOL     OW77468  13.244  12.502  12.194
58524SOL    HW177469  13.164  12.474  12.238
58524SOL    HW277470  13.215  12.563  12.126
58525SOL     OW77471   1.457   5.632   9.421
58525SOL    HW177472   1.523   5.664   9.358
58525SOL    HW277473   1.468   5.537   9.420
58526SOL     OW77474   7.841   7.717   3.372
58526SOL    HW177475   7.807   7.652   3.433
58526SOL    HW277476   7.763   7.756   3.333
58527SOL     OW77477  14.694  10.463  14.474
58527SOL    HW177478  14.736  10.535  14.521
58527SOL    HW277479  14.603  10.491  14.463
58528SOL     OW77480   7.254   2.095   5.622
58528SOL    HW177481   7.203   2.018   5.650
58528SOL    HW277482   7.207   2.128   5.546
58529SOL     OW77483   9.241   7.759   0.900
58529SOL    HW177484   9.221   7.679   0.851
58529SOL    HW277485   9.185   7.825   0.860
58530SOL     OW77486   6.020   6.898  14.250
58530SOL    HW177487   6.033   6.993  14.254
58530SOL    HW277488   6.054   6.866  14.333
58531SOL     OW77489   6.882  14.579   9.022
58531SOL    HW177490   6.851  14.665   8.995
58531SOL    HW277491   6.803  14.532   9.049
58532SOL     OW77492   1.691   2.197  10.019
58532SOL    HW177493   1.689   2.138   9.944
58532SOL    HW277494   1.617   2.169  10.073
58533SOL     OW77495  11.888   7.755  11.405
58533SOL    HW177496  11.872   7.769  11.312
58533SOL    HW277497  11.801   7.738  11.442
58534SOL     OW77498   5.885   9.037   3.891
58534SOL    HW177499   5.948   8.964   3.893
58534SOL    HW277500   5.800   8.995   3.901
58535SOL     OW77501   6.141  10.375   5.875
58535SOL    HW177502   6.114  10.382   5.783
58535SOL    HW277503   6.181  10.459   5.895
58536SOL     OW77504  11.581  14.373  14.552
58536SOL    HW177505  11.621  14.412  14.630
58536SOL    HW277506  11.543  14.446  14.505
58537SOL     OW77507   7.026  14.651   0.239
58537SOL    HW177508   6.954  14.670   0.178
58537SOL    HW277509   7.025  14.725   0.300
58538SOL     OW77510   2.339   8.612   4.185
58538SOL    HW177511   2.262   8.563   4.159
58538SOL    HW277512   2.408   8.582   4.126
58539SOL     OW77513   9.264   7.388  11.929
58539SOL    HW177514   9.311   7.321  11.979
58539SOL    HW277515   9.183   7.402  11.978
58540SOL     OW77516  13.796  12.963  12.521
58540SOL    HW177517  13.768  12.956  12.612
58540SOL    HW277518  13.728  12.917  12.471
58541SOL     OW77519   9.288   8.086   8.201
58541SOL    HW177520   9.327   8.172   8.185
58541SOL    HW277521   9.307   8.069   8.294
58542SOL     OW77522  11.353  10.259   6.456
58542SOL    HW177523  11.376  10.167   6.462
58542SOL    HW277524  11.263  10.259   6.423
58543SOL     OW77525  12.457   2.340   0.296
58543SOL    HW177526  12.443   2.371   0.386
58543SOL    HW277527  12.525   2.274   0.303
58544SOL     OW77528   5.692   8.755   2.040
58544SOL    HW177529   5.773   8.711   2.014
58544SOL    HW277530   5.721   8.840   2.075
58545SOL     OW77531   0.490   9.230   0.282
58545SOL    HW177532   0.462   9.141   0.263
58545SOL    HW277533   0.440   9.254   0.361
58546SOL     OW77534   9.863   3.460  12.231
58546SOL    HW177535   9.861   3.367  12.256
58546SOL    HW277536   9.806   3.465  12.155
58547SOL     OW77537   6.248   5.681   3.948
58547SOL    HW177538   6.189   5.742   3.905
58547SOL    HW277539   6.240   5.700   4.041
58548SOL     OW77540   7.336   4.343  10.815
58548SOL    HW177541   7.244   4.363  10.796
58548SOL    HW277542   7.367   4.418  10.865
58549SOL     OW77543   9.169   3.649  13.737
58549SOL    HW177544   9.256   3.650  13.696
58549SOL    HW277545   9.140   3.558  13.729
58550SOL     OW77546   5.305   3.119   8.358
58550SOL    HW177547   5.323   3.199   8.309
58550SOL    HW277548   5.387   3.070   8.353
58551SOL     OW77549   8.064  12.683   3.667
58551SOL    HW177550   8.069  12.682   3.762
58551SOL    HW277551   8.084  12.593   3.640
58552SOL     OW77552  12.303   3.750   7.484
58552SOL    HW177553  12.228   3.691   7.488
58552SOL    HW277554  12.323   3.758   7.391
58553SOL     OW77555   1.857   3.444   8.794
58553SOL    HW177556   1.854   3.424   8.700
58553SOL    HW277557   1.858   3.540   8.798
58554SOL     OW77558   8.680   7.242   8.163
58554SOL    HW177559   8.752   7.179   8.158
58554SOL    HW277560   8.601   7.188   8.155
58555SOL     OW77561   2.316   4.329  10.510
58555SOL    HW177562   2.371   4.357  10.584
58555SOL    HW277563   2.306   4.408  10.457
58556SOL     OW77564  10.135   0.390   9.573
58556SOL    HW177565  10.151   0.342   9.654
58556SOL    HW277566  10.126   0.322   9.506
58557SOL     OW77567   7.142  12.350  13.860
58557SOL    HW177568   7.070  12.411  13.844
58557SOL    HW277569   7.203  12.398  13.915
58558SOL     OW77570   5.588   2.485   1.620
58558SOL    HW177571   5.626   2.571   1.603
58558SOL    HW277572   5.639   2.451   1.693
58559SOL     OW77573   9.508   4.725   2.921
58559SOL    HW177574   9.534   4.810   2.886
58559SOL    HW277575   9.444   4.745   2.989
58560SOL     OW77576   8.320  11.987  12.963
58560SOL    HW177577   8.265  11.913  12.990
58560SOL    HW277578   8.385  11.948  12.904
58561SOL     OW77579   2.867  13.535  12.070
58561SOL    HW177580   2.878  13.521  11.976
58561SOL    HW277581   2.783  13.493  12.091
58562SOL     OW77582   5.784   9.646  10.975
58562SOL    HW177583   5.739   9.682  11.052
58562SOL    HW277584   5.718   9.647  10.906
58563SOL     OW77585  14.361   5.403  13.268
58563SOL    HW177586  14.439   5.439  13.228
58563SOL    HW277587  14.291   5.464  13.245
58564SOL     OW77588   0.262   6.550   8.192
58564SOL    HW177589   0.314   6.625   8.221
58564SOL    HW277590   0.283   6.541   8.099
58565SOL     OW77591  11.630  13.392  12.188
58565SOL    HW177592  11.548  13.439  12.199
58565SOL    HW277593  11.627  13.361  12.097
58566SOL     OW77594   5.478   0.610   1.201
58566SOL    HW177595   5.562   0.605   1.155
58566SOL    HW277596   5.412   0.601   1.132
58567SOL     OW77597   3.011   2.923   2.728
58567SOL    HW177598   3.057   3.003   2.701
58567SOL    HW277599   3.017   2.924   2.823
58568SOL     OW77600   2.117  11.929  10.354
58568SOL    HW177601   2.067  11.847  10.352
58568SOL    HW277602   2.055  11.994  10.386
58569SOL     OW77603   2.742  13.542   2.418
58569SOL    HW177604   2.718  13.449   2.415
58569SOL    HW277605   2.713  13.577   2.334
58570SOL     OW77606  10.449   2.122  11.698
58570SOL    HW177607  10.375   2.168  11.660
58570SOL    HW277608  10.526   2.161  11.657
58571SOL     OW77609   7.871  10.301  13.751
58571SOL    HW177610   7.806  10.326  13.818
58571SOL    HW277611   7.955  10.319  13.792
58572SOL     OW77612   7.493  11.186  14.762
58572SOL    HW177613   7.410  11.184  14.714
58572SOL    HW277614   7.517  11.279  14.764
58573SOL     OW77615   2.802  11.229  13.450
58573SOL    HW177616   2.761  11.168  13.511
58573SOL    HW277617   2.744  11.305  13.451
58574SOL     OW77618   8.896   7.968   1.455
58574SOL    HW177619   8.876   7.875   1.449
58574SOL    HW277620   8.925   7.992   1.367
58575SOL     OW77621  14.145  12.890  12.896
58575SOL    HW177622  14.144  12.880  12.991
58575SOL    HW277623  14.220  12.946  12.878
58576SOL     OW77624   4.680   6.154   9.242
58576SOL    HW177625   4.764   6.168   9.286
58576SOL    HW277626   4.687   6.202   9.160
58577SOL     OW77627   3.367  13.161  12.708
58577SOL    HW177628   3.294  13.118  12.663
58577SOL    HW277629   3.443  13.107  12.688
58578SOL     OW77630   7.556   8.496  11.293
58578SOL    HW177631   7.479   8.448  11.321
58578SOL    HW277632   7.577   8.460  11.206
58579SOL     OW77633   5.965  12.896   3.797
58579SOL    HW177634   6.005  12.868   3.879
58579SOL    HW277635   5.878  12.855   3.798
58580SOL     OW77636  10.171   6.420   7.083
58580SOL    HW177637  10.264   6.413   7.063
58580SOL    HW277638  10.149   6.338   7.127
58581SOL     OW77639  11.538  11.411   0.366
58581SOL    HW177640  11.476  11.450   0.428
58581SOL    HW277641  11.559  11.325   0.403
58582SOL     OW77642   6.217   7.243   3.822
58582SOL    HW177643   6.231   7.323   3.771
58582SOL    HW277644   6.173   7.184   3.762
58583SOL     OW77645   4.612  10.190  14.734
58583SOL    HW177646   4.654  10.104  14.724
58583SOL    HW277647   4.633  10.236  14.653
58584SOL     OW77648  12.120  14.048  13.643
58584SOL    HW177649  12.187  14.007  13.589
58584SOL    HW277650  12.037  14.019  13.606
58585SOL     OW77651   6.685   0.652  12.110
58585SOL    HW177652   6.723   0.739  12.119
58585SOL    HW277653   6.669   0.623  12.200
58586SOL     OW77654   7.998   5.549  13.155
58586SOL    HW177655   7.910   5.530  13.122
58586SOL    HW277656   8.052   5.475  13.126
58587SOL     OW77657  11.972   8.076  10.280
58587SOL    HW177658  11.960   8.075  10.375
58587SOL    HW277659  12.049   8.022  10.265
58588SOL     OW77660   9.964   4.921   7.202
58588SOL    HW177661   9.925   4.959   7.280
58588SOL    HW277662   9.906   4.848   7.180
58589SOL     OW77663   2.303   0.967   8.947
58589SOL    HW177664   2.231   1.018   8.909
58589SOL    HW277665   2.315   0.894   8.887
58590SOL     OW77666  13.727   0.998   8.353
58590SOL    HW177667  13.776   0.972   8.275
58590SOL    HW277668  13.714   0.917   8.402
58591SOL     OW77669  10.314  10.268   2.676
58591SOL    HW177670  10.397  10.293   2.718
58591SOL    HW277671  10.324  10.294   2.585
58592SOL     OW77672  13.529   8.386   7.261
58592SOL    HW177673  13.471   8.327   7.213
58592SOL    HW277674  13.471   8.432   7.321
58593SOL     OW77675   9.974   3.643  12.658
58593SOL    HW177676   9.878   3.643  12.661
58593SOL    HW277677  10.000   3.693  12.736
58594SOL     OW77678  11.185   5.358   4.801
58594SOL    HW177679  11.203   5.323   4.888
58594SOL    HW277680  11.093   5.334   4.784
58595SOL     OW77681  10.837  12.466   8.505
58595SOL    HW177682  10.797  12.548   8.476
58595SOL    HW277683  10.785  12.440   8.581
58596SOL     OW77684   8.498  12.720   0.798
58596SOL    HW177685   8.553  12.685   0.867
58596SOL    HW277686   8.551  12.789   0.757
58597SOL     OW77687   8.361   9.612  14.152
58597SOL    HW177688   8.283   9.564  14.179
58597SOL    HW277689   8.364   9.688  14.210
58598SOL     OW77690   4.261  12.662  11.604
58598SOL    HW177691   4.239  12.726  11.535
58598SOL    HW277692   4.214  12.694  11.681
58599SOL     OW77693   5.449   7.737   6.095
58599SOL    HW177694   5.435   7.788   6.015
58599SOL    HW277695   5.529   7.688   6.079
58600SOL     OW77696  10.975   6.663   9.722
58600SOL    HW177697  10.980   6.750   9.761
58600SOL    HW277698  10.966   6.604   9.797
58601SOL     OW77699   4.660   6.944   9.279
58601SOL    HW177700   4.605   6.917   9.353
58601SOL    HW277701   4.602   6.935   9.203
58602SOL     OW77702  12.041   9.676   8.143
58602SOL    HW177703  12.125   9.633   8.124
58602SOL    HW277704  12.015   9.640   8.227
58603SOL     OW77705   1.128  14.091  11.655
58603SOL    HW177706   1.061  14.158  11.645
58603SOL    HW277707   1.158  14.073  11.566
58604SOL     OW77708   3.479   0.646   5.895
58604SOL    HW177709   3.462   0.630   5.802
58604SOL    HW277710   3.560   0.600   5.914
58605SOL     OW77711   5.008   0.974   7.140
58605SOL    HW177712   5.047   0.904   7.088
58605SOL    HW277713   5.021   0.946   7.231
58606SOL     OW77714  14.394  11.822  13.990
58606SOL    HW177715  14.429  11.832  14.078
58606SOL    HW277716  14.468  11.843  13.933
58607SOL     OW77717   8.156  11.751   1.241
58607SOL    HW177718   8.212  11.675   1.261
58607SOL    HW277719   8.146  11.796   1.325
58608SOL     OW77720   0.487   9.682   7.457
58608SOL    HW177721   0.565   9.627   7.462
58608SOL    HW277722   0.460   9.695   7.548
58609SOL     OW77723  12.432   7.648   0.036
58609SOL    HW177724  12.514   7.631  14.864
58609SOL    HW277725  12.413   7.568   0.084
58610SOL     OW77726   5.084   2.056   4.916
58610SOL    HW177727   5.128   2.071   4.832
58610SOL    HW277728   5.144   2.092   4.981
58611SOL     OW77729   0.119   6.307  11.875
58611SOL    HW177730   0.201   6.339  11.912
58611SOL    HW277731   0.078   6.260  11.948
58612SOL     OW77732   9.926   3.967   1.213
58612SOL    HW177733   9.910   3.946   1.305
58612SOL    HW277734   9.924   4.063   1.209
58613SOL     OW77735  10.154  12.119  14.762
58613SOL    HW177736  10.165  12.114  14.667
58613SOL    HW277737  10.165  12.029  14.792
58614SOL     OW77738   7.173   5.542   2.385
58614SOL    HW177739   7.263   5.564   2.361
58614SOL    HW277740   7.121   5.561   2.307
58615SOL     OW77741  13.143   0.090   1.437
58615SOL    HW177742  13.224   0.122   1.475
58615SOL    HW277743  13.169   0.013   1.387
58616SOL     OW77744   6.958   1.760  10.460
58616SOL    HW177745   6.985   1.809  10.382
58616SOL    HW277746   7.040   1.723  10.494
58617SOL     OW77747   2.705  14.115  12.142
58617SOL    HW177748   2.638  14.095  12.207
58617SOL    HW277749   2.717  14.033  12.093
58618SOL     OW77750   0.985   5.382   2.628
58618SOL    HW177751   1.073   5.355   2.603
58618SOL    HW277752   0.979   5.473   2.598
58619SOL     OW77753   6.112   4.770   9.414
58619SOL    HW177754   6.139   4.679   9.423
58619SOL    HW277755   6.097   4.781   9.320
58620SOL     OW77756  10.961   7.280   8.422
58620SOL    HW177757  10.910   7.303   8.500
58620SOL    HW277758  11.044   7.246   8.457
58621SOL     OW77759   5.790   3.290  14.374
58621SOL    HW177760   5.848   3.253  14.307
58621SOL    HW277761   5.702   3.268  14.344
58622SOL     OW77762   1.355  14.320   2.409
58622SOL    HW177763   1.278  14.301   2.355
58622SOL    HW277764   1.324  14.380   2.477
58623SOL     OW77765   5.723   9.771   4.449
58623SOL    HW177766   5.706   9.703   4.383
58623SOL    HW277767   5.641   9.820   4.454
58624SOL     OW77768   9.119   8.114  11.531
58624SOL    HW177769   9.129   8.151  11.444
58624SOL    HW277770   9.128   8.019  11.518
58625SOL     OW77771   3.490   4.012   9.068
58625SOL    HW177772   3.398   3.999   9.090
58625SOL    HW277773   3.498   4.107   9.057
58626SOL     OW77774   2.214  13.259   7.262
58626SOL    HW177775   2.126  13.296   7.266
58626SOL    HW277776   2.249  13.292   7.179
58627SOL     OW77777   4.151   9.721   2.718
58627SOL    HW177778   4.173   9.801   2.765
58627SOL    HW277779   4.167   9.742   2.626
58628SOL     OW77780  12.204  10.657  11.367
58628SOL    HW177781  12.200  10.568  11.331
58628SOL    HW277782  12.274  10.652  11.433
58629SOL     OW77783   0.825   6.367   1.953
58629SOL    HW177784   0.797   6.407   1.871
58629SOL    HW277785   0.908   6.411   1.974
58630SOL     OW77786   8.395   3.389  13.536
58630SOL    HW177787   8.403   3.484  13.534
58630SOL    HW277788   8.349   3.370  13.618
58631SOL     OW77789   3.776   3.499   4.335
58631SOL    HW177790   3.695   3.537   4.369
58631SOL    HW277791   3.844   3.562   4.357
58632SOL     OW77792   8.257  13.770   2.588
58632SOL    HW177793   8.329  13.830   2.607
58632SOL    HW277794   8.271  13.743   2.497
58633SOL     OW77795   6.427   8.082   1.753
58633SOL    HW177796   6.350   8.034   1.722
58633SOL    HW277797   6.390   8.155   1.803
58634SOL     OW77798   4.061   7.674   2.265
58634SOL    HW177799   3.984   7.721   2.233
58634SOL    HW277800   4.036   7.642   2.351
58635SOL     OW77801   4.402  11.472  14.843
58635SOL    HW177802   4.313  11.492  14.814
58635SOL    HW277803   4.442  11.427  14.768
58636SOL     OW77804   3.197   0.881   7.319
58636SOL    HW177805   3.275   0.927   7.288
58636SOL    HW277806   3.139   0.951   7.351
58637SOL     OW77807   4.420  14.356  14.768
58637SOL    HW177808   4.502  14.309  14.778
58637SOL    HW277809   4.444  14.439  14.728
58638SOL     OW77810   4.115   7.364   0.403
58638SOL    HW177811   4.112   7.284   0.351
58638SOL    HW277812   4.181   7.346   0.470
58639SOL     OW77813  11.510   2.331   3.786
58639SOL    HW177814  11.604   2.347   3.776
58639SOL    HW277815  11.491   2.354   3.877
58640SOL     OW77816  10.467   4.775  12.852
58640SOL    HW177817  10.518   4.702  12.816
58640SOL    HW277818  10.446   4.829  12.777
58641SOL     OW77819   9.592  10.600  13.222
58641SOL    HW177820   9.517  10.578  13.276
58641SOL    HW277821   9.637  10.670  13.270
58642SOL     OW77822   1.657   5.561  11.452
58642SOL    HW177823   1.702   5.588  11.532
58642SOL    HW277824   1.716   5.587  11.382
58643SOL     OW77825   5.645   7.513   5.175
58643SOL    HW177826   5.706   7.581   5.201
58643SOL    HW277827   5.696   7.432   5.178
58644SOL     OW77828  13.229  10.786   8.484
58644SOL    HW177829  13.164  10.785   8.413
58644SOL    HW277830  13.178  10.798   8.564
58645SOL     OW77831   3.784   8.719   2.603
58645SOL    HW177832   3.875   8.733   2.628
58645SOL    HW277833   3.735   8.727   2.685
58646SOL     OW77834   4.452   9.204   4.123
58646SOL    HW177835   4.485   9.163   4.042
58646SOL    HW277836   4.415   9.131   4.173
58647SOL     OW77837  11.602   4.881  14.407
58647SOL    HW177838  11.580   4.874  14.314
58647SOL    HW277839  11.593   4.974  14.427
58648SOL     OW77840   6.853  14.457   8.082
58648SOL    HW177841   6.823  14.544   8.109
58648SOL    HW277842   6.867  14.411   8.165
58649SOL     OW77843   1.849  13.745   0.356
58649SOL    HW177844   1.848  13.734   0.261
58649SOL    HW277845   1.939  13.724   0.381
58650SOL     OW77846  14.347  14.012   3.215
58650SOL    HW177847  14.383  14.075   3.278
58650SOL    HW277848  14.351  13.928   3.261
58651SOL     OW77849   6.166  10.791  10.240
58651SOL    HW177850   6.242  10.850  10.246
58651SOL    HW277851   6.200  10.706  10.270
58652SOL     OW77852  11.163  12.759   5.494
58652SOL    HW177853  11.119  12.839   5.520
58652SOL    HW277854  11.179  12.712   5.576
58653SOL     OW77855  14.351   8.250   5.160
58653SOL    HW177856  14.269   8.262   5.207
58653SOL    HW277857  14.415   8.302   5.208
58654SOL     OW77858   0.706  11.311   7.175
58654SOL    HW177859   0.687  11.373   7.245
58654SOL    HW277860   0.694  11.225   7.215
58655SOL     OW77861  10.878  12.580  11.437
58655SOL    HW177862  10.891  12.538  11.522
58655SOL    HW277863  10.844  12.667  11.458
58656SOL     OW77864   0.125   5.915  14.564
58656SOL    HW177865   0.212   5.912  14.603
58656SOL    HW277866   0.092   6.002  14.588
58657SOL     OW77867   9.660  11.731  10.509
58657SOL    HW177868   9.715  11.786  10.454
58657SOL    HW277869   9.589  11.702  10.450
58658SOL     OW77870  11.462   7.913  12.090
58658SOL    HW177871  11.478   7.935  12.182
58658SOL    HW277872  11.469   7.997  12.044
58659SOL     OW77873   0.846   9.362  12.413
58659SOL    HW177874   0.845   9.270  12.441
58659SOL    HW277875   0.868   9.358  12.320
58660SOL     OW77876   6.483  13.002   9.357
58660SOL    HW177877   6.459  12.910   9.348
58660SOL    HW277878   6.486  13.035   9.267
58661SOL     OW77879   6.419   7.730   8.202
58661SOL    HW177880   6.498   7.704   8.153
58661SOL    HW277881   6.372   7.649   8.216
58662SOL     OW77882   7.902   1.686   7.156
58662SOL    HW177883   7.879   1.593   7.153
58662SOL    HW277884   7.877   1.720   7.070
58663SOL     OW77885   0.941  10.299  10.465
58663SOL    HW177886   0.937  10.290  10.370
58663SOL    HW277887   0.897  10.220  10.498
58664SOL     OW77888   6.583  10.725   8.311
58664SOL    HW177889   6.560  10.635   8.335
58664SOL    HW277890   6.553  10.778   8.384
58665SOL     OW77891  10.014  14.287   0.187
58665SOL    HW177892  10.025  14.194   0.206
58665SOL    HW277893  10.012  14.292   0.092
58666SOL     OW77894   8.999  10.601   3.699
58666SOL    HW177895   9.025  10.692   3.684
58666SOL    HW277896   9.066  10.550   3.654
58667SOL     OW77897  10.394   1.229  11.550
58667SOL    HW177898  10.428   1.272  11.472
58667SOL    HW277899  10.428   1.139  11.544
58668SOL     OW77900   8.127  11.781  12.979
58668SOL    HW177901   8.174  11.703  13.009
58668SOL    HW277902   8.057  11.793  13.043
58669SOL     OW77903   5.934   4.237  10.257
58669SOL    HW177904   6.011   4.257  10.205
58669SOL    HW277905   5.896   4.322  10.279
58670SOL     OW77906   2.900   8.079   2.454
58670SOL    HW177907   2.965   8.122   2.398
58670SOL    HW277908   2.828   8.059   2.395
58671SOL     OW77909  10.965   7.925   3.470
58671SOL    HW177910  10.944   7.982   3.396
58671SOL    HW277911  10.983   7.840   3.430
58672SOL     OW77912   1.097  14.761  13.547
58672SOL    HW177913   1.122  14.699  13.615
58672SOL    HW277914   1.170  14.758  13.484
58673SOL     OW77915   2.626   4.252   8.669
58673SOL    HW177916   2.590   4.335   8.639
58673SOL    HW277917   2.642   4.266   8.763
58674SOL     OW77918  12.476   6.487   0.715
58674SOL    HW177919  12.464   6.557   0.779
58674SOL    HW277920  12.389   6.449   0.704
58675SOL     OW77921  10.904   4.006  10.777
58675SOL    HW177922  10.897   3.911  10.774
58675SOL    HW277923  10.841   4.032  10.844
58676SOL     OW77924   0.276   7.737   9.249
58676SOL    HW177925   0.333   7.801   9.207
58676SOL    HW277926   0.246   7.681   9.178
58677SOL     OW77927   7.779   3.157  12.279
58677SOL    HW177928   7.741   3.232  12.232
58677SOL    HW277929   7.719   3.142  12.352
58678SOL     OW77930   5.425  10.304   6.857
58678SOL    HW177931   5.398  10.348   6.777
58678SOL    HW277932   5.401  10.365   6.927
58679SOL     OW77933   5.789   7.958  11.646
58679SOL    HW177934   5.832   7.911  11.575
58679SOL    HW277935   5.702   7.979  11.611
58680SOL     OW77936   4.973   4.296   5.676
58680SOL    HW177937   5.032   4.289   5.751
58680SOL    HW277938   4.907   4.228   5.692
58681SOL     OW77939   2.031   7.857   3.622
58681SOL    HW177940   1.990   7.934   3.582
58681SOL    HW277941   2.123   7.882   3.631
58682SOL     OW77942   2.770   9.290   7.998
58682SOL    HW177943   2.847   9.266   8.048
58682SOL    HW277944   2.757   9.383   8.016
58683SOL     OW77945  14.141  11.897   1.406
58683SOL    HW177946  14.223  11.859   1.375
58683SOL    HW277947  14.097  11.826   1.452
58684SOL     OW77948  10.130   4.081  14.013
58684SOL    HW177949  10.087   4.054  13.932
58684SOL    HW277950  10.221   4.053  14.003
58685SOL     OW77951   0.506  12.674   6.666
58685SOL    HW177952   0.565  12.743   6.695
58685SOL    HW277953   0.461  12.712   6.590
58686SOL     OW77954  13.759   8.626   0.499
58686SOL    HW177955  13.777   8.559   0.433
58686SOL    HW277956  13.785   8.708   0.458
58687SOL     OW77957   0.504  10.091   2.673
58687SOL    HW177958   0.423  10.071   2.625
58687SOL    HW277959   0.496  10.043   2.755
58688SOL     OW77960   1.469   8.729  12.274
58688SOL    HW177961   1.490   8.817  12.241
58688SOL    HW277962   1.524   8.670  12.223
58689SOL     OW77963   2.137  10.163  11.164
58689SOL    HW177964   2.050  10.199  11.182
58689SOL    HW277965   2.195  10.239  11.164
58690SOL     OW77966   6.779   2.973  10.032
58690SOL    HW177967   6.840   3.046  10.015
58690SOL    HW277968   6.740   2.993  10.117
58691SOL     OW77969  13.509   8.796  11.660
58691SOL    HW177970  13.571   8.809  11.587
58691SOL    HW277971  13.561   8.752  11.727
58692SOL     OW77972   1.234  11.374   0.884
58692SOL    HW177973   1.176  11.397   0.812
58692SOL    HW277974   1.316  11.347   0.841
58693SOL     OW77975   2.793   9.556   1.644
58693SOL    HW177976   2.861   9.520   1.587
58693SOL    HW277977   2.814   9.521   1.731
58694SOL     OW77978   8.266  13.264  13.217
58694SOL    HW177979   8.296  13.277  13.128
58694SOL    HW277980   8.185  13.214  13.208
58695SOL     OW77981  13.682   0.265   5.882
58695SOL    HW177982  13.632   0.200   5.834
58695SOL    HW277983  13.773   0.250   5.855
58696SOL     OW77984  11.750  10.973  14.737
58696SOL    HW177985  11.840  11.006  14.731
58696SOL    HW277986  11.751  10.892  14.685
58697SOL     OW77987   1.271   7.683   8.663
58697SOL    HW177988   1.265   7.777   8.647
58697SOL    HW277989   1.220   7.669   8.742
58698SOL     OW77990   3.544   1.414   3.308
58698SOL    HW177991   3.513   1.388   3.395
58698SOL    HW277992   3.466   1.445   3.262
58699SOL     OW77993  10.236   8.725  12.484
58699SOL    HW177994  10.259   8.632  12.475
58699SOL    HW277995  10.141   8.725  12.493
58700SOL     OW77996   1.581  11.473   7.596
58700SOL    HW177997   1.623  11.468   7.510
58700SOL    HW277998   1.638  11.530   7.647
58701SOL     OW77999  10.942  13.427   5.191
58701SOL    HW178000  11.003  13.482   5.241
58701SOL    HW278001  10.926  13.352   5.248
58702SOL     OW78002   8.745   9.071  12.500
58702SOL    HW178003   8.805   9.108  12.435
58702SOL    HW278004   8.758   9.125  12.578
58703SOL     OW78005   0.825  12.675  12.507
58703SOL    HW178006   0.771  12.596  12.510
58703SOL    HW278007   0.912  12.644  12.480
58704SOL     OW78008  12.885   3.652  10.903
58704SOL    HW178009  12.847   3.596  10.970
58704SOL    HW278010  12.919   3.591  10.837
58705SOL     OW78011   7.234  10.122  10.351
58705SOL    HW178012   7.224  10.034  10.386
58705SOL    HW278013   7.302  10.114  10.285
58706SOL     OW78014   6.004  14.658  12.908
58706SOL    HW178015   5.950  14.658  12.987
58706SOL    HW278016   6.076  14.597  12.929
58707SOL     OW78017   5.079  11.911   5.999
58707SOL    HW178018   5.058  11.943   5.911
58707SOL    HW278019   5.159  11.860   5.987
58708SOL     OW78020   4.634   3.092  13.880
58708SOL    HW178021   4.645   3.185  13.861
58708SOL    HW278022   4.541   3.075  13.863
58709SOL     OW78023  11.107   4.353  13.765
58709SOL    HW178024  11.094   4.265  13.730
58709SOL    HW278025  11.018   4.388  13.775
58710SOL     OW78026   2.676   1.890   3.256
58710SOL    HW178027   2.599   1.848   3.296
58710SOL    HW278028   2.716   1.940   3.328
58711SOL     OW78029   6.306   4.231   4.129
58711SOL    HW178030   6.341   4.162   4.072
58711SOL    HW278031   6.382   4.283   4.154
58712SOL     OW78032  11.766   4.224  14.331
58712SOL    HW178033  11.694   4.169  14.363
58712SOL    HW278034  11.840   4.203  14.390
58713SOL     OW78035   4.044   1.705   4.326
58713SOL    HW178036   4.039   1.701   4.421
58713SOL    HW278037   3.955   1.727   4.298
58714SOL     OW78038  13.183   6.973   8.792
58714SOL    HW178039  13.102   7.022   8.809
58714SOL    HW278040  13.217   7.011   8.712
58715SOL     OW78041   8.303  10.623   3.863
58715SOL    HW178042   8.255  10.549   3.826
58715SOL    HW278043   8.236  10.675   3.907
58716SOL     OW78044   2.400   7.975  12.316
58716SOL    HW178045   2.409   8.036  12.389
58716SOL    HW278046   2.460   7.903  12.336
58717SOL     OW78047   7.851   4.738   7.763
58717SOL    HW178048   7.920   4.675   7.782
58717SOL    HW278049   7.807   4.752   7.846
58718SOL     OW78050   3.267   5.046   1.847
58718SOL    HW178051   3.315   5.011   1.922
58718SOL    HW278052   3.179   5.065   1.882
58719SOL     OW78053   7.951   3.209  13.449
58719SOL    HW178054   8.031   3.262  13.453
58719SOL    HW278055   7.882   3.272  13.430
58720SOL     OW78056   8.826   9.497   3.341
58720SOL    HW178057   8.779   9.578   3.358
58720SOL    HW278058   8.864   9.508   3.254
58721SOL     OW78059  10.600  11.025   1.055
58721SOL    HW178060  10.693  11.010   1.037
58721SOL    HW278061  10.591  11.120   1.055
58722SOL     OW78062   9.658   2.606  13.839
58722SOL    HW178063   9.643   2.512  13.830
58722SOL    HW278064   9.752   2.617  13.827
58723SOL     OW78065   1.380   0.157  10.278
58723SOL    HW178066   1.442   0.111  10.221
58723SOL    HW278067   1.319   0.200  10.218
58724SOL     OW78068   5.332  10.349   0.390
58724SOL    HW178069   5.329  10.262   0.430
58724SOL    HW278070   5.424  10.374   0.394
58725SOL     OW78071   6.483   5.773  14.032
58725SOL    HW178072   6.528   5.811  13.957
58725SOL    HW278073   6.451   5.688  14.000
58726SOL     OW78074   0.035  13.668  14.027
58726SOL    HW178075   0.052  13.700  14.116
58726SOL    HW278076   0.041  13.746  13.972
58727SOL     OW78077   8.300   1.077   7.172
58727SOL    HW178078   8.280   1.136   7.244
58727SOL    HW278079   8.396   1.079   7.165
58728SOL     OW78080   4.155  12.366   3.913
58728SOL    HW178081   4.136  12.414   3.994
58728SOL    HW278082   4.079  12.308   3.903
58729SOL     OW78083   8.105  12.317   9.520
58729SOL    HW178084   8.168  12.246   9.533
58729SOL    HW278085   8.107  12.366   9.602
58730SOL     OW78086   1.627   6.442   0.433
58730SOL    HW178087   1.609   6.447   0.527
58730SOL    HW278088   1.703   6.500   0.420
58731SOL     OW78089   5.943  13.884   8.588
58731SOL    HW178090   6.024  13.907   8.542
58731SOL    HW278091   5.889  13.840   8.523
58732SOL     OW78092   4.539  12.357  13.436
58732SOL    HW178093   4.553  12.433  13.379
58732SOL    HW278094   4.553  12.391  13.525
58733SOL     OW78095   5.413   6.611   8.360
58733SOL    HW178096   5.447   6.571   8.280
58733SOL    HW278097   5.458   6.565   8.431
58734SOL     OW78098  11.737   7.901   3.671
58734SOL    HW178099  11.643   7.882   3.663
58734SOL    HW278100  11.762   7.863   3.755
58735SOL     OW78101  10.053   3.484  12.456
58735SOL    HW178102   9.985   3.495  12.389
58735SOL    HW278103  10.026   3.542  12.527
58736SOL     OW78104   0.901   1.659  14.062
58736SOL    HW178105   0.956   1.637  14.137
58736SOL    HW278106   0.960   1.703  14.001
58737SOL     OW78107  11.811   6.175   0.483
58737SOL    HW178108  11.827   6.087   0.519
58737SOL    HW278109  11.717   6.189   0.496
58738SOL     OW78110   4.342   8.065   3.305
58738SOL    HW178111   4.369   7.973   3.312
58738SOL    HW278112   4.257   8.069   3.349
58739SOL     OW78113   0.604  10.479  12.019
58739SOL    HW178114   0.595  10.388  11.990
58739SOL    HW278115   0.515  10.510  12.029
58740SOL     OW78116  12.346  14.319   5.537
58740SOL    HW178117  12.429  14.333   5.491
58740SOL    HW278118  12.279  14.334   5.470
58741SOL     OW78119   4.572   1.537   2.699
58741SOL    HW178120   4.499   1.600   2.702
58741SOL    HW278121   4.599   1.527   2.791
58742SOL     OW78122   2.122  10.042   1.107
58742SOL    HW178123   2.102   9.974   1.043
58742SOL    HW278124   2.120  10.124   1.057
58743SOL     OW78125   7.297  14.576   1.854
58743SOL    HW178126   7.377  14.578   1.907
58743SOL    HW278127   7.236  14.522   1.904
58744SOL     OW78128   4.080   7.913   2.510
58744SOL    HW178129   4.141   7.961   2.566
58744SOL    HW278130   4.005   7.895   2.566
58745SOL     OW78131   7.912  13.188   9.207
58745SOL    HW178132   7.821  13.162   9.192
58745SOL    HW278133   7.924  13.179   9.301
58746SOL     OW78134   6.943  11.520  12.738
58746SOL    HW178135   6.980  11.602  12.706
58746SOL    HW278136   7.016  11.459  12.739
58747SOL     OW78137  14.124  11.145   6.781
58747SOL    HW178138  14.177  11.224   6.781
58747SOL    HW278139  14.105  11.129   6.874
58748SOL     OW78140   9.546   4.821  14.562
58748SOL    HW178141   9.622   4.782  14.520
58748SOL    HW278142   9.561   4.808  14.656
58749SOL     OW78143   2.700  12.760   1.050
58749SOL    HW178144   2.641  12.795   1.116
58749SOL    HW278145   2.784  12.802   1.068
58750SOL     OW78146   2.986  12.796   0.079
58750SOL    HW178147   3.036  12.823   0.001
58750SOL    HW278148   3.053  12.781   0.146
58751SOL     OW78149   1.702   4.528   8.852
58751SOL    HW178150   1.644   4.565   8.785
58751SOL    HW278151   1.649   4.460   8.894
58752SOL     OW78152   3.808  12.151   3.387
58752SOL    HW178153   3.878  12.127   3.448
58752SOL    HW278154   3.793  12.072   3.335
58753SOL     OW78155   0.385   4.863  13.066
58753SOL    HW178156   0.338   4.890  12.987
58753SOL    HW278157   0.317   4.856  13.133
58754SOL     OW78158   0.981  11.604  11.800
58754SOL    HW178159   1.042  11.676  11.813
58754SOL    HW278160   1.029  11.541  11.745
58755SOL     OW78161  14.857   1.665   0.326
58755SOL    HW178162  14.779   1.623   0.362
58755SOL    HW278163   0.018   1.720   0.396
58756SOL     OW78164   4.075  14.248  13.449
58756SOL    HW178165   4.020  14.324  13.430
58756SOL    HW278166   4.152  14.260  13.394
58757SOL     OW78167   6.567  10.831   5.055
58757SOL    HW178168   6.634  10.801   4.993
58757SOL    HW278169   6.560  10.760   5.119
58758SOL     OW78170   5.116  11.656   0.376
58758SOL    HW178171   5.191  11.715   0.386
58758SOL    HW278172   5.129  11.615   0.291
58759SOL     OW78173  10.710   0.135  11.642
58759SOL    HW178174  10.796   0.165  11.612
58759SOL    HW278175  10.699   0.049  11.601
58760SOL     OW78176   3.921   7.844  13.288
58760SOL    HW178177   3.847   7.838  13.228
58760SOL    HW278178   3.886   7.816  13.373
58761SOL     OW78179   2.677   2.189  12.855
58761SOL    HW178180   2.610   2.212  12.791
58761SOL    HW278181   2.706   2.273  12.890
58762SOL     OW78182  12.872  12.949   9.540
58762SOL    HW178183  12.838  12.960   9.629
58762SOL    HW278184  12.794  12.947   9.485
58763SOL     OW78185  12.557   8.285  14.149
58763SOL    HW178186  12.601   8.314  14.229
58763SOL    HW278187  12.489   8.225  14.180
58764SOL     OW78188  13.999   9.425   3.453
58764SOL    HW178189  14.025   9.334   3.436
58764SOL    HW278190  14.075   9.477   3.428
58765SOL     OW78191   1.405   9.306  13.862
58765SOL    HW178192   1.467   9.335  13.795
58765SOL    HW278193   1.373   9.388  13.901
58766SOL     OW78194   2.050   8.022   9.664
58766SOL    HW178195   1.973   8.078   9.667
58766SOL    HW278196   2.052   7.979   9.750
58767SOL     OW78197   2.465   1.303   5.238
58767SOL    HW178198   2.495   1.387   5.272
58767SOL    HW278199   2.371   1.315   5.227
58768SOL     OW78200  13.344   8.242   6.500
58768SOL    HW178201  13.419   8.301   6.486
58768SOL    HW278202  13.301   8.238   6.414
58769SOL     OW78203  12.732   0.160   6.557
58769SOL    HW178204  12.809   0.211   6.532
58769SOL    HW278205  12.746   0.074   6.517
58770SOL     OW78206   6.186   7.893   6.932
58770SOL    HW178207   6.253   7.952   6.968
58770SOL    HW278208   6.153   7.846   7.009
58771SOL     OW78209   3.713   3.132   4.143
58771SOL    HW178210   3.682   3.219   4.117
58771SOL    HW278211   3.721   3.084   4.061
58772SOL     OW78212  10.640   5.127  13.838
58772SOL    HW178213  10.707   5.064  13.812
58772SOL    HW278214  10.623   5.178  13.759
58773SOL     OW78215   4.361   4.548  10.953
58773SOL    HW178216   4.331   4.522  11.041
58773SOL    HW278217   4.295   4.610  10.922
58774SOL     OW78218   0.708   8.969  11.206
58774SOL    HW178219   0.733   9.058  11.230
58774SOL    HW278220   0.767   8.946  11.134
58775SOL     OW78221   4.028   3.400   5.031
58775SOL    HW178222   4.041   3.306   5.043
58775SOL    HW278223   4.114   3.438   5.050
58776SOL     OW78224   2.676   2.267   1.940
58776SOL    HW178225   2.582   2.277   1.956
58776SOL    HW278226   2.717   2.316   2.011
58777SOL     OW78227   6.969   5.572  11.317
58777SOL    HW178228   6.972   5.483  11.280
58777SOL    HW278229   7.032   5.622  11.264
58778SOL     OW78230   9.507  13.976   6.617
58778SOL    HW178231   9.523  13.888   6.582
58778SOL    HW278232   9.515  14.034   6.542
58779SOL     OW78233   2.652   8.066   3.933
58779SOL    HW178234   2.597   8.027   4.002
58779SOL    HW278235   2.688   7.990   3.886
58780SOL     OW78236  13.718   2.580   6.841
58780SOL    HW178237  13.768   2.661   6.832
58780SOL    HW278238  13.627   2.608   6.847
58781SOL     OW78239   0.857   8.684  14.155
58781SOL    HW178240   0.932   8.735  14.186
58781SOL    HW278241   0.872   8.676  14.060
58782SOL     OW78242   6.495   5.658   2.706
58782SOL    HW178243   6.591   5.656   2.706
58782SOL    HW278244   6.469   5.573   2.740
58783SOL     OW78245  13.864  14.031  10.884
58783SOL    HW178246  13.819  14.012  10.802
58783SOL    HW278247  13.894  13.946  10.916
58784SOL     OW78248   4.832   3.365  13.210
58784SOL    HW178249   4.775   3.385  13.136
58784SOL    HW278250   4.889   3.441  13.218
58785SOL     OW78251   5.815  12.058  12.661
58785SOL    HW178252   5.787  12.063  12.753
58785SOL    HW278253   5.866  11.977  12.656
58786SOL     OW78254   3.395   4.455  11.171
58786SOL    HW178255   3.367   4.519  11.106
58786SOL    HW278256   3.382   4.370  11.127
58787SOL     OW78257  12.639   2.471   8.891
58787SOL    HW178258  12.634   2.563   8.868
58787SOL    HW278259  12.577   2.428   8.832
58788SOL     OW78260   0.717   9.229   3.575
58788SOL    HW178261   0.736   9.250   3.484
58788SOL    HW278262   0.744   9.307   3.623
58789SOL     OW78263   9.526   0.560   6.343
58789SOL    HW178264   9.441   0.516   6.339
58789SOL    HW278265   9.583   0.505   6.290
58790SOL     OW78266  12.186   3.008   2.382
58790SOL    HW178267  12.150   2.994   2.294
58790SOL    HW278268  12.113   3.044   2.432
58791SOL     OW78269   0.652   2.384   5.949
58791SOL    HW178270   0.669   2.331   5.872
58791SOL    HW278271   0.654   2.474   5.916
58792SOL     OW78272  10.455   6.134  10.826
58792SOL    HW178273  10.417   6.206  10.776
58792SOL    HW278274  10.540   6.119  10.786
58793SOL     OW78275   8.468  10.227   7.909
58793SOL    HW178276   8.489  10.138   7.881
58793SOL    HW278277   8.423  10.216   7.993
58794SOL     OW78278   3.224  10.073   4.706
58794SOL    HW178279   3.253  10.011   4.639
58794SOL    HW278280   3.278  10.052   4.783
58795SOL     OW78281  10.864  10.783   0.212
58795SOL    HW178282  10.899  10.721   0.276
58795SOL    HW278283  10.929  10.786   0.142
58796SOL     OW78284   6.938   9.724   1.012
58796SOL    HW178285   6.915   9.671   0.936
58796SOL    HW278286   6.917   9.669   1.087
58797SOL     OW78287   7.912  13.012   2.936
58797SOL    HW178288   7.998  13.013   2.893
58797SOL    HW278289   7.849  13.024   2.865
58798SOL     OW78290   2.146   4.385   3.166
58798SOL    HW178291   2.219   4.327   3.145
58798SOL    HW278292   2.117   4.420   3.081
58799SOL     OW78293  11.281   3.427  11.769
58799SOL    HW178294  11.220   3.355  11.785
58799SOL    HW278295  11.248   3.468  11.688
58800SOL     OW78296  11.576  11.081   1.066
58800SOL    HW178297  11.518  11.054   0.995
58800SOL    HW278298  11.545  11.032   1.142
58801SOL     OW78299   2.450   5.087   7.028
58801SOL    HW178300   2.421   5.046   6.947
58801SOL    HW278301   2.415   5.031   7.097
58802SOL     OW78302   8.892  10.148   6.984
58802SOL    HW178303   8.953  10.220   6.968
58802SOL    HW278304   8.808  10.190   6.998
58803SOL     OW78305   6.223   0.951  12.015
58803SOL    HW178306   6.272   0.995  12.085
58803SOL    HW278307   6.280   0.879  11.989
58804SOL     OW78308   5.066   2.698   6.459
58804SOL    HW178309   5.063   2.614   6.503
58804SOL    HW278310   4.979   2.735   6.471
58805SOL     OW78311  11.367   7.575   1.924
58805SOL    HW178312  11.377   7.511   1.854
58805SOL    HW278313  11.365   7.523   2.004
58806SOL     OW78314  12.478  13.720   8.353
58806SOL    HW178315  12.570  13.723   8.329
58806SOL    HW278316  12.477  13.720   8.449
58807SOL     OW78317  10.176   7.433   8.758
58807SOL    HW178318  10.245   7.373   8.785
58807SOL    HW278319  10.208   7.473   8.677
58808SOL     OW78320  10.785  10.569   3.094
58808SOL    HW178321  10.699  10.589   3.130
58808SOL    HW278322  10.846  10.622   3.145
58809SOL     OW78323  14.328   3.693   3.107
58809SOL    HW178324  14.352   3.602   3.091
58809SOL    HW278325  14.360   3.711   3.195
58810SOL     OW78326  13.774  11.299  13.447
58810SOL    HW178327  13.813  11.386  13.459
58810SOL    HW278328  13.710  11.311  13.377
58811SOL     OW78329   8.292   1.466   0.225
58811SOL    HW178330   8.272   1.420   0.307
58811SOL    HW278331   8.207   1.473   0.181
58812SOL     OW78332   1.808   5.569  11.206
58812SOL    HW178333   1.874   5.503  11.183
58812SOL    HW278334   1.729   5.541  11.160
58813SOL     OW78335   8.444   7.547  12.770
58813SOL    HW178336   8.529   7.508  12.746
58813SOL    HW278337   8.466   7.636  12.796
58814SOL     OW78338   6.104  10.381   4.992
58814SOL    HW178339   6.053  10.343   5.063
58814SOL    HW278340   6.192  10.392   5.029
58815SOL     OW78341  14.252  12.528   5.791
58815SOL    HW178342  14.234  12.465   5.720
58815SOL    HW278343  14.174  12.525   5.846
58816SOL     OW78344   4.771   3.622   7.148
58816SOL    HW178345   4.759   3.710   7.185
58816SOL    HW278346   4.716   3.566   7.203
58817SOL     OW78347  14.549  11.193  13.287
58817SOL    HW178348  14.505  11.164  13.367
58817SOL    HW278349  14.501  11.271  13.260
58818SOL     OW78350  14.864   4.120   8.479
58818SOL    HW178351   0.026   4.205   8.507
58818SOL    HW278352   0.068   4.063   8.476
58819SOL     OW78353   3.867   4.946  13.379
58819SOL    HW178354   3.855   4.939  13.284
58819SOL    HW278355   3.792   4.998  13.410
58820SOL     OW78356   6.081  12.013  13.305
58820SOL    HW178357   6.095  11.924  13.338
58820SOL    HW278358   6.060  12.001  13.212
58821SOL     OW78359  11.097  14.086  12.987
58821SOL    HW178360  11.135  14.120  13.069
58821SOL    HW278361  11.172  14.078  12.928
58822SOL     OW78362   5.989  11.658  12.057
58822SOL    HW178363   5.932  11.607  11.999
58822SOL    HW278364   6.062  11.599  12.076
58823SOL     OW78365   9.679   5.151   2.207
58823SOL    HW178366   9.611   5.211   2.180
58823SOL    HW278367   9.632   5.076   2.244
58824SOL     OW78368   9.294  12.534  13.463
58824SOL    HW178369   9.321  12.451  13.502
58824SOL    HW278370   9.252  12.582  13.534
58825SOL     OW78371  12.047   7.346   6.535
58825SOL    HW178372  12.011   7.275   6.481
58825SOL    HW278373  12.054   7.420   6.476
58826SOL     OW78374   4.199  14.786   7.538
58826SOL    HW178375   4.139  14.828   7.600
58826SOL    HW278376   4.286  14.797   7.577
58827SOL     OW78377   9.437   5.895   3.825
58827SOL    HW178378   9.467   5.857   3.908
58827SOL    HW278379   9.345   5.915   3.840
58828SOL     OW78380   1.133   9.130   9.247
58828SOL    HW178381   1.189   9.052   9.256
58828SOL    HW278382   1.183   9.200   9.289
58829SOL     OW78383  11.659   4.356  12.526
58829SOL    HW178384  11.670   4.327  12.435
58829SOL    HW278385  11.568   4.385  12.531
58830SOL     OW78386   6.883   7.775   3.518
58830SOL    HW178387   6.961   7.731   3.484
58830SOL    HW278388   6.811   7.740   3.467
58831SOL     OW78389   6.504   7.423   3.403
58831SOL    HW178390   6.547   7.480   3.467
58831SOL    HW278391   6.470   7.484   3.337
58832SOL     OW78392  10.782  12.080   5.909
58832SOL    HW178393  10.792  12.063   5.815
58832SOL    HW278394  10.839  12.155   5.926
58833SOL     OW78395   3.208  11.499  12.573
58833SOL    HW178396   3.195  11.439  12.499
58833SOL    HW278397   3.298  11.530  12.563
58834SOL     OW78398  10.103   1.678   3.166
58834SOL    HW178399  10.151   1.715   3.239
58834SOL    HW278400  10.031   1.739   3.151
58835SOL     OW78401  13.433   1.998   7.077
58835SOL    HW178402  13.407   1.926   7.019
58835SOL    HW278403  13.418   2.077   7.025
58836SOL     OW78404   1.580   9.769   5.313
58836SOL    HW178405   1.527   9.849   5.302
58836SOL    HW278406   1.661   9.800   5.352
58837SOL     OW78407  12.414   0.541  13.784
58837SOL    HW178408  12.411   0.497  13.699
58837SOL    HW278409  12.323   0.546  13.812
58838SOL     OW78410   4.588   3.115  13.552
58838SOL    HW178411   4.650   3.188  13.541
58838SOL    HW278412   4.606   3.057  13.478
58839SOL     OW78413   8.169   3.256   9.040
58839SOL    HW178414   8.203   3.216   8.960
58839SOL    HW278415   8.081   3.220   9.050
58840SOL     OW78416   9.678   0.016   9.982
58840SOL    HW178417   9.736   0.069   9.927
58840SOL    HW278418   9.675   0.063  10.066
58841SOL     OW78419   5.976  12.071   3.287
58841SOL    HW178420   5.947  11.997   3.340
58841SOL    HW278421   6.059  12.042   3.249
58842SOL     OW78422   4.681  12.283   1.358
58842SOL    HW178423   4.679  12.368   1.402
58842SOL    HW278424   4.687  12.219   1.429
58843SOL     OW78425  12.303   5.330  14.400
58843SOL    HW178426  12.361   5.257  14.378
58843SOL    HW278427  12.362   5.400  14.429
58844SOL     OW78428   4.455   5.631   4.870
58844SOL    HW178429   4.506   5.672   4.940
58844SOL    HW278430   4.521   5.607   4.804
58845SOL     OW78431  10.185   4.197  11.597
58845SOL    HW178432  10.103   4.239  11.568
58845SOL    HW278433  10.254   4.256  11.568
58846SOL     OW78434   2.950   0.676   7.027
58846SOL    HW178435   2.974   0.605   6.967
58846SOL    HW278436   2.985   0.648   7.111
58847SOL     OW78437   3.294   3.697  12.312
58847SOL    HW178438   3.305   3.618  12.259
58847SOL    HW278439   3.245   3.757  12.255
58848SOL     OW78440   3.969   9.422  12.697
58848SOL    HW178441   3.934   9.511  12.709
58848SOL    HW278442   3.973   9.410  12.603
58849SOL     OW78443   7.587   1.315   2.778
58849SOL    HW178444   7.633   1.232   2.792
58849SOL    HW278445   7.510   1.291   2.727
58850SOL     OW78446  13.293   7.041   3.376
58850SOL    HW178447  13.231   7.068   3.443
58850SOL    HW278448  13.334   7.123   3.347
58851SOL     OW78449   0.192   1.748   0.141
58851SOL    HW178450   0.217   1.721   0.230
58851SOL    HW278451   0.097   1.755   0.144
58852SOL     OW78452   1.334   1.407   5.298
58852SOL    HW178453   1.251   1.427   5.340
58852SOL    HW278454   1.311   1.347   5.227
58853SOL     OW78455   6.910   9.003   0.697
58853SOL    HW178456   6.901   9.071   0.630
58853SOL    HW278457   6.843   8.939   0.675
58854SOL     OW78458  12.711   1.686   1.788
58854SOL    HW178459  12.726   1.714   1.698
58854SOL    HW278460  12.639   1.624   1.782
58855SOL     OW78461   5.300   7.386   4.550
58855SOL    HW178462   5.272   7.466   4.596
58855SOL    HW278463   5.243   7.381   4.474
58856SOL     OW78464  11.746   4.382   8.712
58856SOL    HW178465  11.709   4.456   8.761
58856SOL    HW278466  11.817   4.421   8.660
58857SOL     OW78467   4.992   3.588  13.186
58857SOL    HW178468   5.033   3.591  13.099
58857SOL    HW278469   5.017   3.670  13.227
58858SOL     OW78470   5.217   4.605   9.033
58858SOL    HW178471   5.229   4.566   8.947
58858SOL    HW278472   5.124   4.631   9.035
58859SOL     OW78473  12.254   4.295   3.518
58859SOL    HW178474  12.242   4.222   3.580
58859SOL    HW278475  12.192   4.276   3.448
58860SOL     OW78476   4.362  11.523  11.700
58860SOL    HW178477   4.409  11.445  11.671
58860SOL    HW278478   4.421  11.564  11.764
58861SOL     OW78479   5.198  10.268   8.112
58861SOL    HW178480   5.262  10.201   8.137
58861SOL    HW278481   5.119  10.244   8.160
58862SOL     OW78482   6.782   7.333   1.036
58862SOL    HW178483   6.735   7.344   1.118
58862SOL    HW278484   6.714   7.330   0.969
58863SOL     OW78485   8.762  14.845  10.414
58863SOL    HW178486   8.703   0.044  10.389
58863SOL    HW278487   8.704  14.774  10.441
58864SOL     OW78488   0.803   5.590   9.192
58864SOL    HW178489   0.714   5.557   9.175
58864SOL    HW278490   0.852   5.513   9.218
58865SOL     OW78491   9.407   3.617   3.376
58865SOL    HW178492   9.360   3.605   3.458
58865SOL    HW278493   9.356   3.681   3.327
58866SOL     OW78494   7.291   9.764   6.152
58866SOL    HW178495   7.282   9.795   6.062
58866SOL    HW278496   7.267   9.671   6.147
58867SOL     OW78497   7.519   5.870  12.482
58867SOL    HW178498   7.530   5.955  12.526
58867SOL    HW278499   7.587   5.869  12.415
58868SOL     OW78500   7.438  10.191   4.787
58868SOL    HW178501   7.346  10.182   4.813
58868SOL    HW278502   7.469  10.101   4.778
58869SOL     OW78503  12.764   8.131  12.411
58869SOL    HW178504  12.701   8.094  12.473
58869SOL    HW278505  12.828   8.061  12.397
58870SOL     OW78506   8.348  13.307   0.507
58870SOL    HW178507   8.307  13.221   0.511
58870SOL    HW278508   8.284  13.367   0.545
58871SOL     OW78509   6.018   2.524   7.785
58871SOL    HW178510   6.007   2.444   7.734
58871SOL    HW278511   5.967   2.509   7.865
58872SOL     OW78512  14.158  10.500   4.902
58872SOL    HW178513  14.067  10.475   4.891
58872SOL    HW278514  14.205  10.417   4.913
58873SOL     OW78515  12.931  14.578   5.516
58873SOL    HW178516  13.010  14.632   5.518
58873SOL    HW278517  12.869  14.630   5.464
58874SOL     OW78518   0.752  13.736   7.025
58874SOL    HW178519   0.845  13.747   7.006
58874SOL    HW278520   0.714  13.702   6.943
58875SOL     OW78521   4.582   2.608  11.072
58875SOL    HW178522   4.611   2.667  11.142
58875SOL    HW278523   4.649   2.618  11.004
58876SOL     OW78524   8.935   8.048   7.521
58876SOL    HW178525   9.020   8.017   7.488
58876SOL    HW278526   8.924   8.134   7.481
58877SOL     OW78527   7.469  13.534   7.711
58877SOL    HW178528   7.430  13.470   7.652
58877SOL    HW278529   7.489  13.484   7.790
58878SOL     OW78530   1.640   0.391  14.833
58878SOL    HW178531   1.649   0.350  14.746
58878SOL    HW278532   1.675   0.326   0.021
58879SOL     OW78533   4.217   1.853  14.415
58879SOL    HW178534   4.239   1.922  14.478
58879SOL    HW278535   4.253   1.883  14.332
58880SOL     OW78536   6.936  11.532   6.066
58880SOL    HW178537   6.857  11.518   6.012
58880SOL    HW278538   6.970  11.616   6.037
58881SOL     OW78539  10.972  11.673   9.420
58881SOL    HW178540  11.023  11.754   9.425
58881SOL    HW278541  10.962  11.657   9.326
58882SOL     OW78542  10.489   7.738  10.707
58882SOL    HW178543  10.488   7.672  10.776
58882SOL    HW278544  10.533   7.813  10.747
58883SOL     OW78545   3.608   4.431   2.439
58883SOL    HW178546   3.671   4.374   2.394
58883SOL    HW278547   3.654   4.514   2.449
58884SOL     OW78548  10.152   6.910   6.434
58884SOL    HW178549  10.110   6.844   6.488
58884SOL    HW278550  10.081   6.946   6.380
58885SOL     OW78551   7.940   1.068  12.345
58885SOL    HW178552   7.995   1.123  12.400
58885SOL    HW278553   7.939   0.983  12.390
58886SOL     OW78554   8.923   7.664   9.548
58886SOL    HW178555   9.002   7.623   9.512
58886SOL    HW278556   8.908   7.741   9.492
58887SOL     OW78557  10.325   9.611   6.140
58887SOL    HW178558  10.237   9.601   6.102
58887SOL    HW278559  10.325   9.554   6.216
58888SOL     OW78560   8.751  10.625   7.644
58888SOL    HW178561   8.770  10.592   7.731
58888SOL    HW278562   8.834  10.620   7.597
58889SOL     OW78563  11.311   2.071  11.677
58889SOL    HW178564  11.280   2.141  11.620
58889SOL    HW278565  11.377   2.025  11.624
58890SOL     OW78566   9.551   0.615  12.524
58890SOL    HW178567   9.516   0.701  12.544
58890SOL    HW278568   9.477   0.555  12.538
58891SOL     OW78569   9.365   9.015   2.198
58891SOL    HW178570   9.277   9.032   2.232
58891SOL    HW278571   9.409   8.968   2.269
58892SOL     OW78572  12.054  10.740   8.040
58892SOL    HW178573  12.006  10.658   8.025
58892SOL    HW278574  12.039  10.790   7.960
58893SOL     OW78575   1.713   0.939   1.953
58893SOL    HW178576   1.772   0.920   1.880
58893SOL    HW278577   1.749   0.890   2.027
58894SOL     OW78578  10.231  12.680   6.251
58894SOL    HW178579  10.225  12.585   6.257
58894SOL    HW278580  10.281  12.706   6.328
58895SOL     OW78581   5.045   7.114   0.642
58895SOL    HW178582   5.070   7.120   0.734
58895SOL    HW278583   5.001   7.030   0.635
58896SOL     OW78584  10.614  10.043   2.639
58896SOL    HW178585  10.608  10.110   2.707
58896SOL    HW278586  10.571   9.967   2.676
58897SOL     OW78587  14.420   9.661   9.830
58897SOL    HW178588  14.430   9.582   9.776
58897SOL    HW278589  14.496   9.714   9.810
58898SOL     OW78590   5.804   4.119   0.267
58898SOL    HW178591   5.861   4.194   0.250
58898SOL    HW278592   5.787   4.082   0.180
58899SOL     OW78593   1.285   3.906  13.300
58899SOL    HW178594   1.345   3.844  13.259
58899SOL    HW278595   1.335   3.988  13.305
58900SOL     OW78596  13.828   4.710   1.571
58900SOL    HW178597  13.855   4.629   1.612
58900SOL    HW278598  13.800   4.685   1.483
58901SOL     OW78599   9.498   3.418   3.189
58901SOL    HW178600   9.593   3.422   3.178
58901SOL    HW278601   9.473   3.508   3.208
58902SOL     OW78602   0.277  12.961   0.472
58902SOL    HW178603   0.264  12.961   0.567
58902SOL    HW278604   0.347  12.897   0.457
58903SOL     OW78605   8.132   4.247   3.006
58903SOL    HW178606   8.096   4.286   2.926
58903SOL    HW278607   8.208   4.197   2.976
58904SOL     OW78608  10.422   1.399   6.615
58904SOL    HW178609  10.450   1.411   6.706
58904SOL    HW278610  10.475   1.326   6.583
58905SOL     OW78611  11.149   4.504   4.756
58905SOL    HW178612  11.090   4.546   4.692
58905SOL    HW278613  11.184   4.428   4.709
58906SOL     OW78614   0.905   0.716   1.293
58906SOL    HW178615   0.944   0.629   1.296
58906SOL    HW278616   0.811   0.699   1.284
58907SOL     OW78617   6.452   8.386   4.184
58907SOL    HW178618   6.415   8.397   4.272
58907SOL    HW278619   6.540   8.423   4.191
58908SOL     OW78620   2.817  12.986   7.408
58908SOL    HW178621   2.900  12.996   7.455
58908SOL    HW278622   2.762  13.057   7.441
58909SOL     OW78623   5.282   6.199   8.369
58909SOL    HW178624   5.197   6.198   8.324
58909SOL    HW278625   5.289   6.112   8.408
58910SOL     OW78626   1.663   5.329   6.219
58910SOL    HW178627   1.714   5.350   6.297
58910SOL    HW278628   1.656   5.234   6.218
58911SOL     OW78629   2.210   7.381  13.865
58911SOL    HW178630   2.233   7.430  13.944
58911SOL    HW278631   2.250   7.295  13.879
58912SOL     OW78632   9.343  12.035   0.720
58912SOL    HW178633   9.303  11.952   0.746
58912SOL    HW278634   9.419  12.044   0.778
58913SOL     OW78635   3.858  12.764   6.792
58913SOL    HW178636   3.796  12.827   6.755
58913SOL    HW278637   3.941  12.784   6.748
58914SOL     OW78638  10.731   4.670  14.636
58914SOL    HW178639  10.638   4.687  14.621
58914SOL    HW278640  10.749   4.709  14.722
58915SOL     OW78641   5.909   9.462  10.338
58915SOL    HW178642   5.908   9.427  10.427
58915SOL    HW278643   5.840   9.414  10.293
58916SOL     OW78644   1.850   7.103   5.271
58916SOL    HW178645   1.911   7.120   5.343
58916SOL    HW278646   1.806   7.022   5.295
58917SOL     OW78647   2.374  10.931  10.165
58917SOL    HW178648   2.308  10.986  10.207
58917SOL    HW278649   2.328  10.888  10.093
58918SOL     OW78650   2.871  12.735   2.992
58918SOL    HW178651   2.890  12.805   3.055
58918SOL    HW278652   2.781  12.752   2.964
58919SOL     OW78653   8.780   7.343   4.691
58919SOL    HW178654   8.697   7.380   4.719
58919SOL    HW278655   8.804   7.282   4.761
58920SOL     OW78656   2.864  10.612   7.449
58920SOL    HW178657   2.917  10.536   7.472
58920SOL    HW278658   2.904  10.685   7.496
58921SOL     OW78659  14.497   8.962  14.373
58921SOL    HW178660  14.455   9.046  14.354
58921SOL    HW278661  14.487   8.911  14.293
58922SOL     OW78662  11.067  13.291   3.733
58922SOL    HW178663  10.980  13.325   3.711
58922SOL    HW278664  11.076  13.212   3.679
58923SOL     OW78665   0.585   9.441  10.656
58923SOL    HW178666   0.576   9.535  10.676
58923SOL    HW278667   0.678   9.429  10.638
58924SOL     OW78668   8.870   7.166  13.831
58924SOL    HW178669   8.816   7.148  13.753
58924SOL    HW278670   8.941   7.102  13.827
58925SOL     OW78671   8.690   1.025   2.023
58925SOL    HW178672   8.638   0.946   2.030
58925SOL    HW278673   8.628   1.092   1.994
58926SOL     OW78674   9.195   0.882   6.684
58926SOL    HW178675   9.185   0.958   6.625
58926SOL    HW278676   9.203   0.808   6.625
58927SOL     OW78677   3.697   1.390   6.472
58927SOL    HW178678   3.772   1.354   6.424
58927SOL    HW278679   3.735   1.424   6.553
58928SOL     OW78680  12.870  13.279   1.254
58928SOL    HW178681  12.838  13.210   1.196
58928SOL    HW278682  12.805  13.349   1.247
58929SOL     OW78683  14.320   7.821   0.096
58929SOL    HW178684  14.255   7.881   0.058
58929SOL    HW278685  14.268   7.751   0.136
58930SOL     OW78686   4.660   9.978   3.144
58930SOL    HW178687   4.683  10.063   3.182
58930SOL    HW278688   4.716   9.970   3.067
58931SOL     OW78689  12.382  14.049   2.502
58931SOL    HW178690  12.385  14.131   2.453
58931SOL    HW278691  12.397  13.981   2.436
58932SOL     OW78692   9.585   1.469   2.761
58932SOL    HW178693   9.561   1.478   2.853
58932SOL    HW278694   9.506   1.494   2.713
58933SOL     OW78695  10.562  12.328   6.432
58933SOL    HW178696  10.565  12.318   6.527
58933SOL    HW278697  10.505  12.257   6.402
58934SOL     OW78698   3.287   5.617  14.470
58934SOL    HW178699   3.208   5.563  14.478
58934SOL    HW278700   3.274   5.686  14.535
58935SOL     OW78701  10.481  11.155  12.005
58935SOL    HW178702  10.536  11.230  11.980
58935SOL    HW278703  10.392  11.182  11.981
58936SOL     OW78704   2.917   3.238   3.496
58936SOL    HW178705   2.895   3.237   3.589
58936SOL    HW278706   2.996   3.183   3.490
58937SOL     OW78707   9.170   0.711   3.698
58937SOL    HW178708   9.137   0.769   3.766
58937SOL    HW278709   9.197   0.771   3.628
58938SOL     OW78710   4.083   1.301   2.055
58938SOL    HW178711   4.141   1.259   2.119
58938SOL    HW278712   3.997   1.298   2.096
58939SOL     OW78713   9.801  12.718   0.754
58939SOL    HW178714   9.713  12.719   0.793
58939SOL    HW278715   9.859  12.694   0.826
58940SOL     OW78716   5.003  13.291   2.048
58940SOL    HW178717   5.026  13.383   2.033
58940SOL    HW278718   5.061  13.263   2.119
58941SOL     OW78719  12.674   3.470   5.371
58941SOL    HW178720  12.660   3.558   5.336
58941SOL    HW278721  12.679   3.414   5.294
58942SOL     OW78722   9.519  14.086  11.783
58942SOL    HW178723   9.500  14.034  11.706
58942SOL    HW278724   9.507  14.177  11.754
58943SOL     OW78725   6.194   1.909   9.919
58943SOL    HW178726   6.221   1.943  10.005
58943SOL    HW278727   6.190   1.815   9.930
58944SOL     OW78728   2.496   5.132   3.080
58944SOL    HW178729   2.563   5.064   3.090
58944SOL    HW278730   2.414   5.089   3.102
58945SOL     OW78731   3.727   5.652   9.142
58945SOL    HW178732   3.756   5.607   9.221
58945SOL    HW278733   3.762   5.740   9.150
58946SOL     OW78734   4.500   3.046  10.718
58946SOL    HW178735   4.595   3.045  10.719
58946SOL    HW278736   4.475   2.996  10.796
58947SOL     OW78737   9.593  12.059   3.649
58947SOL    HW178738   9.627  12.135   3.696
58947SOL    HW278739   9.566  11.998   3.718
58948SOL     OW78740  13.477   8.926   9.780
58948SOL    HW178741  13.546   8.878   9.826
58948SOL    HW278742  13.502   9.018   9.787
58949SOL     OW78743  14.128  13.779   5.647
58949SOL    HW178744  14.065  13.850   5.636
58949SOL    HW278745  14.081  13.700   5.620
58950SOL     OW78746  13.923   5.003   2.517
58950SOL    HW178747  13.840   4.978   2.477
58950SOL    HW278748  13.964   4.919   2.541
58951SOL     OW78749   9.335  10.366   5.302
58951SOL    HW178750   9.298  10.351   5.215
58951SOL    HW278751   9.258  10.379   5.358
58952SOL     OW78752  10.477   3.660   5.258
58952SOL    HW178753  10.485   3.571   5.223
58952SOL    HW278754  10.483   3.650   5.353
58953SOL     OW78755   2.206  13.605  11.841
58953SOL    HW178756   2.236  13.695  11.829
58953SOL    HW278757   2.242  13.578  11.925
58954SOL     OW78758   4.099   8.739   9.819
58954SOL    HW178759   4.042   8.805   9.858
58954SOL    HW278760   4.127   8.685   9.893
58955SOL     OW78761   3.848   4.421  14.433
58955SOL    HW178762   3.846   4.424  14.528
58955SOL    HW278763   3.939   4.443  14.410
58956SOL     OW78764   0.806   7.755   0.869
58956SOL    HW178765   0.879   7.768   0.809
58956SOL    HW278766   0.799   7.660   0.878
58957SOL     OW78767   3.136   1.386  14.230
58957SOL    HW178768   3.187   1.381  14.149
58957SOL    HW278769   3.120   1.480  14.243
58958SOL     OW78770   8.075   9.120  12.902
58958SOL    HW178771   8.156   9.168  12.883
58958SOL    HW278772   8.057   9.138  12.995
58959SOL     OW78773  11.623  11.387  10.464
58959SOL    HW178774  11.572  11.313  10.430
58959SOL    HW278775  11.581  11.410  10.547
58960SOL     OW78776  12.296  13.427   6.424
58960SOL    HW178777  12.219  13.415   6.368
58960SOL    HW278778  12.347  13.495   6.379
58961SOL     OW78779  10.262   4.412  11.946
58961SOL    HW178780  10.321   4.469  11.996
58961SOL    HW278781  10.318   4.342  11.914
58962SOL     OW78782   2.959  11.922   3.311
58962SOL    HW178783   2.923  12.005   3.281
58962SOL    HW278784   3.051  11.924   3.284
58963SOL     OW78785   8.685  14.274   7.053
58963SOL    HW178786   8.750  14.220   7.096
58963SOL    HW278787   8.632  14.213   7.002
58964SOL     OW78788  10.322   0.878   6.021
58964SOL    HW178789  10.260   0.908   5.953
58964SOL    HW278790  10.380   0.817   5.975
58965SOL     OW78791  13.142   6.707   1.989
58965SOL    HW178792  13.120   6.625   2.034
58965SOL    HW278793  13.072   6.717   1.924
58966SOL     OW78794  10.479   8.065   7.645
58966SOL    HW178795  10.560   8.056   7.695
58966SOL    HW278796  10.418   8.004   7.686
58967SOL     OW78797   9.896   1.486  12.317
58967SOL    HW178798   9.851   1.491  12.233
58967SOL    HW278799   9.985   1.459  12.294
58968SOL     OW78800   8.574  11.638   4.583
58968SOL    HW178801   8.624  11.571   4.535
58968SOL    HW278802   8.527  11.589   4.650
58969SOL     OW78803   4.222   8.242   7.636
58969SOL    HW178804   4.183   8.212   7.554
58969SOL    HW278805   4.272   8.167   7.668
58970SOL     OW78806  12.416   2.389   7.322
58970SOL    HW178807  12.330   2.422   7.296
58970SOL    HW278808  12.435   2.433   7.404
58971SOL     OW78809  11.694   6.313   5.315
58971SOL    HW178810  11.642   6.233   5.313
58971SOL    HW278811  11.671   6.354   5.399
58972SOL     OW78812  12.243   2.979  13.237
58972SOL    HW178813  12.216   2.962  13.327
58972SOL    HW278814  12.217   2.900  13.189
58973SOL     OW78815   1.569   8.538  13.685
58973SOL    HW178816   1.545   8.600  13.615
58973SOL    HW278817   1.642   8.488  13.648
58974SOL     OW78818  12.357   3.344  13.689
58974SOL    HW178819  12.291   3.376  13.628
58974SOL    HW278820  12.430   3.404  13.679
58975SOL     OW78821   6.806   1.186  11.861
58975SOL    HW178822   6.831   1.143  11.779
58975SOL    HW278823   6.799   1.278  11.840
58976SOL     OW78824  11.010   1.945   1.494
58976SOL    HW178825  11.077   1.889   1.532
58976SOL    HW278826  10.999   2.016   1.558
58977SOL     OW78827   5.482  12.756  10.901
58977SOL    HW178828   5.565  12.747  10.948
58977SOL    HW278829   5.424  12.802  10.962
58978SOL     OW78830  11.177  14.068   7.150
58978SOL    HW178831  11.215  14.111   7.227
58978SOL    HW278832  11.088  14.044   7.178
58979SOL     OW78833   5.890   8.609   1.939
58979SOL    HW178834   5.945   8.543   1.981
58979SOL    HW278835   5.951   8.675   1.906
58980SOL     OW78836   2.898   1.802   3.939
58980SOL    HW178837   2.877   1.764   4.024
58980SOL    HW278838   2.960   1.741   3.900
58981SOL     OW78839   0.496   8.122   0.919
58981SOL    HW178840   0.524   8.213   0.912
58981SOL    HW278841   0.575   8.071   0.900
58982SOL     OW78842  12.193   1.892   4.229
58982SOL    HW178843  12.144   1.920   4.151
58982SOL    HW278844  12.125   1.863   4.290
58983SOL     OW78845   1.054  12.343   2.942
58983SOL    HW178846   1.112  12.398   2.995
58983SOL    HW278847   1.018  12.280   3.004
58984SOL     OW78848   3.072  13.295   9.187
58984SOL    HW178849   3.141  13.273   9.250
58984SOL    HW278850   3.050  13.386   9.206
58985SOL     OW78851   0.807   6.957   6.909
58985SOL    HW178852   0.857   6.971   6.828
58985SOL    HW278853   0.874   6.954   6.978
58986SOL     OW78854   6.257  12.714   6.279
58986SOL    HW178855   6.318  12.708   6.205
58986SOL    HW278856   6.265  12.630   6.323
58987SOL     OW78857   8.728   3.682  13.881
58987SOL    HW178858   8.637   3.711  13.880
58987SOL    HW278859   8.735   3.624  13.805
58988SOL     OW78860   0.154   0.755  11.785
58988SOL    HW178861   0.168   0.696  11.859
58988SOL    HW278862   0.236   0.751  11.735
58989SOL     OW78863   6.199  10.600  11.337
58989SOL    HW178864   6.107  10.584  11.316
58989SOL    HW278865   6.220  10.536  11.406
58990SOL     OW78866  10.339  11.214  11.236
58990SOL    HW178867  10.285  11.262  11.174
58990SOL    HW278868  10.429  11.224  11.204
58991SOL     OW78869   9.252   4.767  12.664
58991SOL    HW178870   9.337   4.811  12.657
58991SOL    HW278871   9.218   4.766  12.575
58992SOL     OW78872   5.769   8.351  10.280
58992SOL    HW178873   5.812   8.270  10.308
58992SOL    HW278874   5.684   8.350  10.323
58993SOL     OW78875  12.241  12.816  11.153
58993SOL    HW178876  12.238  12.911  11.166
58993SOL    HW278877  12.163  12.796  11.102
58994SOL     OW78878   1.593   7.788  13.012
58994SOL    HW178879   1.625   7.869  12.974
58994SOL    HW278880   1.498   7.799  13.017
58995SOL     OW78881  10.371   8.103   8.080
58995SOL    HW178882  10.383   8.192   8.046
58995SOL    HW278883  10.455   8.081   8.121
58996SOL     OW78884  12.211  11.383  11.812
58996SOL    HW178885  12.137  11.342  11.856
58996SOL    HW278886  12.245  11.447  11.874
58997SOL     OW78887   1.598   8.133   4.686
58997SOL    HW178888   1.554   8.199   4.738
58997SOL    HW278889   1.613   8.176   4.601
58998SOL     OW78890  11.258   8.958   6.078
58998SOL    HW178891  11.279   8.962   5.985
58998SOL    HW278892  11.332   9.000   6.121
58999SOL     OW78893   9.026  11.360  13.410
58999SOL    HW178894   9.003  11.298  13.478
58999SOL    HW278895   9.119  11.346  13.394
59000SOL     OW78896   8.302   7.983   5.285
59000SOL    HW178897   8.232   8.019   5.338
59000SOL    HW278898   8.344   7.917   5.341
59001SOL     OW78899   5.864  12.165   8.349
59001SOL    HW178900   5.891  12.083   8.389
59001SOL    HW278901   5.857  12.227   8.422
59002SOL     OW78902   0.494   4.474  11.124
59002SOL    HW178903   0.496   4.515  11.211
59002SOL    HW278904   0.517   4.382  11.140
59003SOL     OW78905   0.019   8.894  12.574
59003SOL    HW178906  14.810   8.938  12.601
59003SOL    HW278907   0.026   8.819  12.632
59004SOL     OW78908   2.092  10.313  13.839
59004SOL    HW178909   2.159  10.278  13.897
59004SOL    HW278910   2.129  10.305  13.751
59005SOL     OW78911   0.313   4.753   1.659
59005SOL    HW178912   0.233   4.742   1.606
59005SOL    HW278913   0.283   4.739   1.749
59006SOL     OW78914   6.770  14.823  12.847
59006SOL    HW178915   6.710  14.838  12.920
59006SOL    HW278916   6.849  14.871  12.870
59007SOL     OW78917  10.036  12.329   1.075
59007SOL    HW178918  10.102  12.261   1.090
59007SOL    HW278919   9.954  12.280   1.065
59008SOL     OW78920   7.456   4.483   8.279
59008SOL    HW178921   7.426   4.421   8.212
59008SOL    HW278922   7.394   4.556   8.274
59009SOL     OW78923   9.320  10.249  14.857
59009SOL    HW178924   9.332  10.295   0.067
59009SOL    HW278925   9.384  10.178  14.859
59010SOL     OW78926   3.739   3.830   4.158
59010SOL    HW178927   3.774   3.798   4.076
59010SOL    HW278928   3.684   3.904   4.134
59011SOL     OW78929   6.127   3.595  12.417
59011SOL    HW178930   6.185   3.527  12.383
59011SOL    HW278931   6.041   3.553  12.419
59012SOL     OW78932  13.990   0.259   7.470
59012SOL    HW178933  13.953   0.273   7.383
59012SOL    HW278934  13.918   0.275   7.530
59013SOL     OW78935  12.982   6.312   6.694
59013SOL    HW178936  12.942   6.327   6.779
59013SOL    HW278937  12.910   6.281   6.638
59014SOL     OW78938  12.912   1.108   7.953
59014SOL    HW178939  12.932   1.040   7.889
59014SOL    HW278940  12.819   1.096   7.972
59015SOL     OW78941   9.315   5.747   9.830
59015SOL    HW178942   9.285   5.717   9.916
59015SOL    HW278943   9.323   5.842   9.839
59016SOL     OW78944   6.854   6.953   4.553
59016SOL    HW178945   6.936   7.004   4.555
59016SOL    HW278946   6.786   7.019   4.546
59017SOL     OW78947   5.566   8.810   6.729
59017SOL    HW178948   5.518   8.843   6.653
59017SOL    HW278949   5.631   8.878   6.748
59018SOL     OW78950   1.086  11.275   3.071
59018SOL    HW178951   1.149  11.218   3.027
59018SOL    HW278952   1.010  11.275   3.013
59019SOL     OW78953   9.387   2.522   9.363
59019SOL    HW178954   9.361   2.533   9.455
59019SOL    HW278955   9.480   2.499   9.368
59020SOL     OW78956   2.489   0.566   3.707
59020SOL    HW178957   2.559   0.527   3.759
59020SOL    HW278958   2.412   0.561   3.764
59021SOL     OW78959   8.906  11.136   7.886
59021SOL    HW178960   8.917  11.055   7.935
59021SOL    HW278961   8.891  11.108   7.795
59022SOL     OW78962   0.519  14.240  10.087
59022SOL    HW178963   0.441  14.293  10.102
59022SOL    HW278964   0.489  14.150  10.096
59023SOL     OW78965   5.648   2.494  10.914
59023SOL    HW178966   5.626   2.402  10.903
59023SOL    HW278967   5.677   2.501  11.005
59024SOL     OW78968   8.705  10.337   7.107
59024SOL    HW178969   8.748  10.382   7.179
59024SOL    HW278970   8.740  10.378   7.028
59025SOL     OW78971   3.108  11.206  14.093
59025SOL    HW178972   3.188  11.260  14.092
59025SOL    HW278973   3.056  11.238  14.019
59026SOL     OW78974  10.859   5.771   1.750
59026SOL    HW178975  10.779   5.738   1.710
59026SOL    HW278976  10.927   5.757   1.684
59027SOL     OW78977  14.198   2.154   8.061
59027SOL    HW178978  14.167   2.238   8.028
59027SOL    HW278979  14.276   2.175   8.112
59028SOL     OW78980   6.983   6.385   9.707
59028SOL    HW178981   6.903   6.378   9.654
59028SOL    HW278982   7.053   6.362   9.647
59029SOL     OW78983  11.331   7.166  10.336
59029SOL    HW178984  11.316   7.100  10.403
59029SOL    HW278985  11.244   7.198  10.314
59030SOL     OW78986   6.773   4.024   8.596
59030SOL    HW178987   6.798   3.956   8.657
59030SOL    HW278988   6.856   4.067   8.573
59031SOL     OW78989   9.811  10.670   8.382
59031SOL    HW178990   9.880  10.643   8.443
59031SOL    HW278991   9.856  10.722   8.316
59032SOL     OW78992   0.637  12.119   5.892
59032SOL    HW178993   0.573  12.149   5.956
59032SOL    HW278994   0.627  12.177   5.817
59033SOL     OW78995   2.549   9.289   2.560
59033SOL    HW178996   2.598   9.244   2.491
59033SOL    HW278997   2.527   9.374   2.521
59034SOL     OW78998  12.253   4.960  10.488
59034SOL    HW178999  12.280   5.047  10.457
59034SOL    HW279000  12.236   4.910  10.408
59035SOL     OW79001   1.294   6.427  12.035
59035SOL    HW179002   1.371   6.453  12.086
59035SOL    HW279003   1.311   6.336  12.012
59036SOL     OW79004   7.709   3.342   0.776
59036SOL    HW179005   7.614   3.348   0.779
59036SOL    HW279006   7.730   3.256   0.811
59037SOL     OW79007   8.040  13.233   8.544
59037SOL    HW179008   8.041  13.298   8.615
59037SOL    HW279009   8.003  13.155   8.585
59038SOL     OW79010   0.498   0.376  14.441
59038SOL    HW179011   0.531   0.314  14.376
59038SOL    HW279012   0.571   0.389  14.501
59039SOL     OW79013  13.378   9.843   5.188
59039SOL    HW179014  13.435   9.819   5.261
59039SOL    HW279015  13.334   9.761   5.164
59040SOL     OW79016   6.927  12.441  14.782
59040SOL    HW179017   6.871  12.393  14.843
59040SOL    HW279018   7.012  12.448  14.827
59041SOL     OW79019  14.520  13.999   4.300
59041SOL    HW179020  14.583  14.010   4.372
59041SOL    HW279021  14.436  14.021   4.339
59042SOL     OW79022   5.222   4.745  12.081
59042SOL    HW179023   5.254   4.717  12.167
59042SOL    HW279024   5.302   4.770  12.033
59043SOL     OW79025   2.501  14.570   2.809
59043SOL    HW179026   2.407  14.556   2.821
59043SOL    HW279027   2.542  14.495   2.852
59044SOL     OW79028  10.951   4.217   3.692
59044SOL    HW179029  10.967   4.310   3.674
59044SOL    HW279030  10.920   4.181   3.609
59045SOL     OW79031  11.956   8.913  13.471
59045SOL    HW179032  12.043   8.951  13.484
59045SOL    HW279033  11.971   8.835  13.417
59046SOL     OW79034  11.774   0.290   2.422
59046SOL    HW179035  11.766   0.231   2.346
59046SOL    HW279036  11.742   0.374   2.390
59047SOL     OW79037  11.292   8.068   4.142
59047SOL    HW179038  11.316   8.002   4.206
59047SOL    HW279039  11.371   8.120   4.128
59048SOL     OW79040   8.821   8.501   5.787
59048SOL    HW179041   8.904   8.545   5.805
59048SOL    HW279042   8.799   8.457   5.869
59049SOL     OW79043  12.985   8.303   1.133
59049SOL    HW179044  13.011   8.231   1.190
59049SOL    HW279045  13.057   8.311   1.069
59050SOL     OW79046   6.259   5.969   1.855
59050SOL    HW179047   6.252   6.043   1.915
59050SOL    HW279048   6.191   5.907   1.884
59051SOL     OW79049  11.719   7.393  10.163
59051SOL    HW179050  11.730   7.382  10.068
59051SOL    HW279051  11.624   7.387  10.177
59052SOL     OW79052  12.524   7.530  12.281
59052SOL    HW179053  12.580   7.463  12.241
59052SOL    HW279054  12.435   7.504  12.256
59053SOL     OW79055   4.183  12.159   9.568
59053SOL    HW179056   4.204  12.232   9.626
59053SOL    HW279057   4.268  12.129   9.535
59054SOL     OW79058  11.331   9.355   5.709
59054SOL    HW179059  11.365   9.443   5.691
59054SOL    HW279060  11.263   9.342   5.643
59055SOL     OW79061  12.728   5.883   5.224
59055SOL    HW179062  12.789   5.947   5.188
59055SOL    HW279063  12.738   5.891   5.319
59056SOL     OW79064  10.766   9.589  13.398
59056SOL    HW179065  10.728   9.677  13.401
59056SOL    HW279066  10.833   9.595  13.331
59057SOL     OW79067   4.995   5.971  12.043
59057SOL    HW179068   5.006   6.063  12.018
59057SOL    HW279069   4.974   5.926  11.962
59058SOL     OW79070   5.701  14.266   4.672
59058SOL    HW179071   5.657  14.194   4.715
59058SOL    HW279072   5.657  14.345   4.706
59059SOL     OW79073   3.716   1.457   2.655
59059SOL    HW179074   3.734   1.458   2.749
59059SOL    HW279075   3.675   1.371   2.639
59060SOL     OW79076   8.523   5.104  14.548
59060SOL    HW179077   8.456   5.171  14.561
59060SOL    HW279078   8.475   5.021  14.552
59061SOL     OW79079   6.554  10.422  10.228
59061SOL    HW179080   6.643  10.402  10.201
59061SOL    HW279081   6.553  10.410  10.323
59062SOL     OW79082  10.503  13.177   3.490
59062SOL    HW179083  10.539  13.103   3.540
59062SOL    HW279084  10.575  13.208   3.436
59063SOL     OW79085   0.859   6.423  13.478
59063SOL    HW179086   0.949   6.406  13.449
59063SOL    HW279087   0.842   6.357  13.545
59064SOL     OW79088   1.586   4.824  13.996
59064SOL    HW179089   1.493   4.825  13.977
59064SOL    HW279090   1.601   4.740  14.040
59065SOL     OW79091   3.664  10.233   8.257
59065SOL    HW179092   3.719  10.168   8.213
59065SOL    HW279093   3.703  10.317   8.233
59066SOL     OW79094  14.025   2.421   2.533
59066SOL    HW179095  14.088   2.471   2.482
59066SOL    HW279096  14.060   2.332   2.534
59067SOL     OW79097   4.903   4.966  14.780
59067SOL    HW179098   4.971   5.016  14.735
59067SOL    HW279099   4.931   4.965  14.872
59068SOL     OW79100  14.195   5.103   5.272
59068SOL    HW179101  14.217   5.071   5.184
59068SOL    HW279102  14.102   5.082   5.283
59069SOL     OW79103   8.920  14.536   6.464
59069SOL    HW179104   8.959  14.518   6.378
59069SOL    HW279105   8.852  14.601   6.446
59070SOL     OW79106   7.696   2.740  10.235
59070SOL    HW179107   7.679   2.705  10.322
59070SOL    HW279108   7.659   2.829  10.238
59071SOL     OW79109   9.048  12.773   0.718
59071SOL    HW179110   9.049  12.681   0.747
59071SOL    HW279111   9.133  12.786   0.676
59072SOL     OW79112  12.381  13.919   1.431
59072SOL    HW179113  12.475  13.906   1.441
59072SOL    HW279114  12.346  13.830   1.421
59073SOL     OW79115   1.087  14.619   4.866
59073SOL    HW179116   1.092  14.524   4.865
59073SOL    HW279117   1.179  14.648   4.869
59074SOL     OW79118   7.435  11.795   3.620
59074SOL    HW179119   7.398  11.774   3.706
59074SOL    HW279120   7.410  11.886   3.605
59075SOL     OW79121   2.846   0.949  11.619
59075SOL    HW179122   2.809   0.969  11.705
59075SOL    HW279123   2.883   0.861  11.629
59076SOL     OW79124  13.780   8.768   4.892
59076SOL    HW179125  13.700   8.746   4.940
59076SOL    HW279126  13.760   8.746   4.801
59077SOL     OW79127  10.308   1.443   8.814
59077SOL    HW179128  10.377   1.427   8.750
59077SOL    HW279129  10.302   1.538   8.820
59078SOL     OW79130  13.461   3.342   9.384
59078SOL    HW179131  13.378   3.326   9.339
59078SOL    HW279132  13.438   3.338   9.477
59079SOL     OW79133  10.082   6.588   2.695
59079SOL    HW179134   9.987   6.580   2.686
59079SOL    HW279135  10.117   6.567   2.609
59080SOL     OW79136  10.412   8.358   3.981
59080SOL    HW179137  10.378   8.442   4.014
59080SOL    HW279138  10.407   8.366   3.885
59081SOL     OW79139   7.106  14.268   2.446
59081SOL    HW179140   7.070  14.195   2.496
59081SOL    HW279141   7.157  14.318   2.509
59082SOL     OW79142   6.465   3.800  12.975
59082SOL    HW179143   6.440   3.838  13.059
59082SOL    HW279144   6.482   3.876  12.919
59083SOL     OW79145  13.830   0.121   3.748
59083SOL    HW179146  13.918   0.158   3.740
59083SOL    HW279147  13.788   0.142   3.665
59084SOL     OW79148  14.211  12.850  13.699
59084SOL    HW179149  14.290  12.898  13.727
59084SOL    HW279150  14.201  12.781  13.764
59085SOL     OW79151   2.672   1.571   5.371
59085SOL    HW179152   2.634   1.659   5.371
59085SOL    HW279153   2.649   1.535   5.457
59086SOL     OW79154  12.471   9.450  11.953
59086SOL    HW179155  12.493   9.429  11.863
59086SOL    HW279156  12.543   9.415  12.005
59087SOL     OW79157   7.311   1.446   9.755
59087SOL    HW179158   7.253   1.486   9.691
59087SOL    HW279159   7.351   1.520   9.801
59088SOL     OW79160  13.943   2.299  13.240
59088SOL    HW179161  14.020   2.320  13.293
59088SOL    HW279162  13.924   2.208  13.262
59089SOL     OW79163  12.584   8.963  13.891
59089SOL    HW179164  12.654   8.961  13.956
59089SOL    HW279165  12.577   9.056  13.866
59090SOL     OW79166   2.330   9.959  12.021
59090SOL    HW179167   2.311  10.021  12.092
59090SOL    HW279168   2.244   9.935  11.987
59091SOL     OW79169  12.772   5.025  12.363
59091SOL    HW179170  12.820   5.100  12.329
59091SOL    HW279171  12.682   5.038  12.330
59092SOL     OW79172   8.152   0.233  11.257
59092SOL    HW179173   8.098   0.288  11.315
59092SOL    HW279174   8.133   0.265  11.169
59093SOL     OW79175   9.628   0.385  10.192
59093SOL    HW179176   9.688   0.443  10.239
59093SOL    HW279177   9.610   0.429  10.110
59094SOL     OW79178  13.180   8.280   4.043
59094SOL    HW179179  13.148   8.193   4.021
59094SOL    HW279180  13.144   8.297   4.130
59095SOL     OW79181   3.670   9.752   6.760
59095SOL    HW179182   3.700   9.721   6.846
59095SOL    HW279183   3.734   9.818   6.734
59096SOL     OW79184  10.214   7.220  12.927
59096SOL    HW179185  10.126   7.200  12.897
59096SOL    HW279186  10.220   7.316  12.921
59097SOL     OW79187   7.019   1.933   2.824
59097SOL    HW179188   7.036   2.020   2.789
59097SOL    HW279189   6.951   1.946   2.890
59098SOL     OW79190  10.691  14.682   3.897
59098SOL    HW179191  10.619  14.745   3.893
59098SOL    HW279192  10.649  14.597   3.893
59099SOL     OW79193   7.317  13.337  14.214
59099SOL    HW179194   7.241  13.279  14.223
59099SOL    HW279195   7.310  13.374  14.126
59100SOL     OW79196   2.697   5.271   0.539
59100SOL    HW179197   2.704   5.253   0.632
59100SOL    HW279198   2.645   5.352   0.534
59101SOL     OW79199  10.195   7.356  13.221
59101SOL    HW179200  10.279   7.336  13.179
59101SOL    HW279201  10.149   7.273  13.223
59102SOL     OW79202   2.087  11.393   6.474
59102SOL    HW179203   2.180  11.415   6.470
59102SOL    HW279204   2.057  11.432   6.556
59103SOL     OW79205   1.935   5.234   4.979
59103SOL    HW179206   1.963   5.266   5.065
59103SOL    HW279207   1.915   5.313   4.929
59104SOL     OW79208   6.241   0.771   5.877
59104SOL    HW179209   6.311   0.741   5.819
59104SOL    HW279210   6.172   0.800   5.817
59105SOL     OW79211  14.011   4.245  12.753
59105SOL    HW179212  14.088   4.293  12.723
59105SOL    HW279213  14.033   4.153  12.738
59106SOL     OW79214  11.509  13.026  13.923
59106SOL    HW179215  11.553  13.101  13.883
59106SOL    HW279216  11.439  13.064  13.976
59107SOL     OW79217   3.977   9.483   5.654
59107SOL    HW179218   4.056   9.499   5.705
59107SOL    HW279219   4.003   9.418   5.589
59108SOL     OW79220  10.263  13.185   1.316
59108SOL    HW179221  10.210  13.123   1.267
59108SOL    HW279222  10.250  13.160   1.408
59109SOL     OW79223   7.194   6.417  12.650
59109SOL    HW179224   7.249   6.391  12.724
59109SOL    HW279225   7.206   6.512  12.644
59110SOL     OW79226   4.921   4.333  11.981
59110SOL    HW179227   4.956   4.422  11.979
59110SOL    HW279228   4.966   4.292  12.056
59111SOL     OW79229  11.075  12.167   3.971
59111SOL    HW179230  11.049  12.079   3.943
59111SOL    HW279231  11.007  12.225   3.935
59112SOL     OW79232   3.935   1.361  12.147
59112SOL    HW179233   3.880   1.379  12.071
59112SOL    HW279234   3.894   1.408  12.219
59113SOL     OW79235   4.877   5.912  10.800
59113SOL    HW179236   4.820   5.906  10.722
59113SOL    HW279237   4.837   5.980  10.854
59114SOL     OW79238  13.846   4.113   0.079
59114SOL    HW179239  13.841   4.174   0.152
59114SOL    HW279240  13.890   4.162   0.010
59115SOL     OW79241  13.698  13.356  12.182
59115SOL    HW179242  13.742  13.290  12.235
59115SOL    HW279243  13.622  13.383  12.235
59116SOL     OW79244   4.811  11.462  11.592
59116SOL    HW179245   4.882  11.405  11.563
59116SOL    HW279246   4.760  11.478  11.512
59117SOL     OW79247   1.415  14.416  13.940
59117SOL    HW179248   1.400  14.510  13.952
59117SOL    HW279249   1.496  14.399  13.988
59118SOL     OW79250   9.097   9.984  10.201
59118SOL    HW179251   9.010   9.948  10.188
59118SOL    HW279252   9.104  10.054  10.136
59119SOL     OW79253   0.930   5.753  13.996
59119SOL    HW179254   0.966   5.700  13.925
59119SOL    HW279255   1.006   5.774  14.051
59120SOL     OW79256  12.358  11.546   5.632
59120SOL    HW179257  12.286  11.608   5.640
59120SOL    HW279258  12.317  11.465   5.601
59121SOL     OW79259   3.771  11.353   2.200
59121SOL    HW179260   3.735  11.270   2.171
59121SOL    HW279261   3.751  11.357   2.294
59122SOL     OW79262   3.114   4.269   6.138
59122SOL    HW179263   3.124   4.353   6.183
59122SOL    HW279264   3.183   4.214   6.174
59123SOL     OW79265  12.494   8.180   0.364
59123SOL    HW179266  12.477   8.107   0.305
59123SOL    HW279267  12.431   8.247   0.338
59124SOL     OW79268   3.467  10.696  10.967
59124SOL    HW179269   3.559  10.706  10.941
59124SOL    HW279270   3.438  10.616  10.923
59125SOL     OW79271  14.381   3.181   5.194
59125SOL    HW179272  14.431   3.200   5.114
59125SOL    HW279273  14.444   3.136   5.250
59126SOL     OW79274   4.187  10.336  12.870
59126SOL    HW179275   4.128  10.398  12.827
59126SOL    HW279276   4.253  10.317  12.803
59127SOL     OW79277   9.496   5.053   8.058
59127SOL    HW179278   9.490   5.145   8.033
59127SOL    HW279279   9.430   5.041   8.126
59128SOL     OW79280  11.978   1.932   4.857
59128SOL    HW179281  11.967   1.842   4.827
59128SOL    HW279282  12.021   1.924   4.943
59129SOL     OW79283   9.490   6.258  10.787
59129SOL    HW179284   9.453   6.273  10.874
59129SOL    HW279285   9.549   6.332  10.773
59130SOL     OW79286  14.667   0.514   4.476
59130SOL    HW179287  14.623   0.590   4.438
59130SOL    HW279288  14.622   0.500   4.559
59131SOL     OW79289  10.729   2.406   8.264
59131SOL    HW179290  10.749   2.412   8.171
59131SOL    HW279291  10.661   2.473   8.279
59132SOL     OW79292  14.061   6.909   5.225
59132SOL    HW179293  13.983   6.855   5.218
59132SOL    HW279294  14.132   6.848   5.247
59133SOL     OW79295   6.193   3.884   1.366
59133SOL    HW179296   6.175   3.930   1.448
59133SOL    HW279297   6.136   3.925   1.302
59134SOL     OW79298  13.192   4.291   9.485
59134SOL    HW179299  13.106   4.316   9.520
59134SOL    HW279300  13.173   4.221   9.423
59135SOL     OW79301  12.123  13.076   9.979
59135SOL    HW179302  12.116  13.150  10.039
59135SOL    HW279303  12.214  13.078   9.949
59136SOL     OW79304   6.554   6.121   8.972
59136SOL    HW179305   6.461   6.109   8.955
59136SOL    HW279306   6.560   6.125   9.068
59137SOL     OW79307  13.440  13.440   1.449
59137SOL    HW179308  13.438  13.360   1.502
59137SOL    HW279309  13.489  13.502   1.502
59138SOL     OW79310   4.870  10.605  13.111
59138SOL    HW179311   4.844  10.515  13.126
59138SOL    HW279312   4.790  10.656  13.124
59139SOL     OW79313  13.683  11.259  12.771
59139SOL    HW179314  13.590  11.251  12.793
59139SOL    HW279315  13.684  11.315  12.693
59140SOL     OW79316   8.402  11.707  13.652
59140SOL    HW179317   8.484  11.711  13.602
59140SOL    HW279318   8.394  11.616  13.677
59141SOL     OW79319   3.162   7.480   4.519
59141SOL    HW179320   3.081   7.530   4.506
59141SOL    HW279321   3.212   7.533   4.582
59142SOL     OW79322   4.368  11.101   5.025
59142SOL    HW179323   4.455  11.129   4.997
59142SOL    HW279324   4.326  11.069   4.945
59143SOL     OW79325   1.926   5.021   8.727
59143SOL    HW179326   1.928   4.934   8.686
59143SOL    HW279327   2.018   5.047   8.734
59144SOL     OW79328  13.124  12.523   2.418
59144SOL    HW179329  13.050  12.509   2.478
59144SOL    HW279330  13.150  12.613   2.434
59145SOL     OW79331  12.868   0.993   8.297
59145SOL    HW179332  12.795   0.932   8.293
59145SOL    HW279333  12.937   0.952   8.244
59146SOL     OW79334   2.731   7.839  11.148
59146SOL    HW179335   2.684   7.756  11.146
59146SOL    HW279336   2.664   7.903  11.172
59147SOL     OW79337   1.673  14.178   0.679
59147SOL    HW179338   1.660  14.108   0.743
59147SOL    HW279339   1.752  14.222   0.708
59148SOL     OW79340   7.151   1.974   1.908
59148SOL    HW179341   7.197   1.928   1.979
59148SOL    HW279342   7.070   1.925   1.898
59149SOL     OW79343   7.490   7.619   6.785
59149SOL    HW179344   7.524   7.627   6.696
59149SOL    HW279345   7.405   7.577   6.775
59150SOL     OW79346   2.080   0.008   0.522
59150SOL    HW179347   2.061   0.093   0.482
59150SOL    HW279348   2.090   0.028   0.615
59151SOL     OW79349   7.262   8.081   3.416
59151SOL    HW179350   7.201   8.051   3.349
59151SOL    HW279351   7.253   8.018   3.487
59152SOL     OW79352  14.238   7.407   7.124
59152SOL    HW179353  14.297   7.475   7.156
59152SOL    HW279354  14.180   7.390   7.198
59153SOL     OW79355   4.670   9.341  14.596
59153SOL    HW179356   4.647   9.434  14.594
59153SOL    HW279357   4.720   9.330  14.676
59154SOL     OW79358  12.756   1.279   2.283
59154SOL    HW179359  12.797   1.305   2.366
59154SOL    HW279360  12.662   1.287   2.299
59155SOL     OW79361   0.221  14.027   7.059
59155SOL    HW179362   0.215  14.077   6.978
59155SOL    HW279363   0.187  13.940   7.036
59156SOL     OW79364   6.562   6.994   1.997
59156SOL    HW179365   6.577   6.900   2.009
59156SOL    HW279366   6.542   7.026   2.085
59157SOL     OW79367  10.913  13.318  11.503
59157SOL    HW179368  10.976  13.262  11.457
59157SOL    HW279369  10.857  13.256  11.550
59158SOL     OW79370   0.478  13.972   7.947
59158SOL    HW179371   0.442  13.969   8.036
59158SOL    HW279372   0.490  14.066   7.930
59159SOL     OW79373   1.005   7.173   7.465
59159SOL    HW179374   0.979   7.081   7.454
59159SOL    HW279375   0.983   7.192   7.556
59160SOL     OW79376   4.433   1.616  11.305
59160SOL    HW179377   4.465   1.646  11.390
59160SOL    HW279378   4.356   1.671  11.288
59161SOL     OW79379   4.315   9.855  11.504
59161SOL    HW179380   4.307   9.826  11.413
59161SOL    HW279381   4.355   9.942  11.498
59162SOL     OW79382  13.912   6.232   8.948
59162SOL    HW179383  13.986   6.292   8.939
59162SOL    HW279384  13.854   6.276   9.010
59163SOL     OW79385  13.922  13.705  12.980
59163SOL    HW179386  13.986  13.759  12.934
59163SOL    HW279387  13.975  13.641  13.028
59164SOL     OW79388   9.588  10.496  12.738
59164SOL    HW179389   9.579  10.421  12.680
59164SOL    HW279390   9.552  10.466  12.822
59165SOL     OW79391   0.245  14.558   0.562
59165SOL    HW179392   0.261  14.513   0.479
59165SOL    HW279393   0.310  14.523   0.622
59166SOL     OW79394  12.908   6.892   6.788
59166SOL    HW179395  12.871   6.810   6.819
59166SOL    HW279396  12.922   6.944   6.868
59167SOL     OW79397   3.804   9.468   4.229
59167SOL    HW179398   3.784   9.402   4.295
59167SOL    HW279399   3.722   9.515   4.216
59168SOL     OW79400   9.915   0.940   1.247
59168SOL    HW179401   9.871   0.855   1.241
59168SOL    HW279402   9.957   0.939   1.333
59169SOL     OW79403  10.189   0.874   0.801
59169SOL    HW179404  10.267   0.886   0.856
59169SOL    HW279405  10.120   0.924   0.845
59170SOL     OW79406   3.101  11.614   0.798
59170SOL    HW179407   3.182  11.597   0.845
59170SOL    HW279408   3.122  11.689   0.741
59171SOL     OW79409   2.050   1.876   2.465
59171SOL    HW179410   1.997   1.954   2.483
59171SOL    HW279411   2.133   1.893   2.510
59172SOL     OW79412   8.636   7.287   5.987
59172SOL    HW179413   8.677   7.339   6.056
59172SOL    HW279414   8.709   7.253   5.936
59173SOL     OW79415  13.265   3.876  14.457
59173SOL    HW179416  13.340   3.816  14.455
59173SOL    HW279417  13.200   3.835  14.400
59174SOL     OW79418   1.430   4.636   8.687
59174SOL    HW179419   1.400   4.559   8.736
59174SOL    HW279420   1.381   4.632   8.604
59175SOL     OW79421  12.010  12.936   4.025
59175SOL    HW179422  12.017  12.912   4.117
59175SOL    HW279423  12.099  12.924   3.990
59176SOL     OW79424   8.451   6.868  13.965
59176SOL    HW179425   8.439   6.861  14.059
59176SOL    HW279426   8.460   6.962  13.948
59177SOL     OW79427  10.503  11.942  12.572
59177SOL    HW179428  10.429  11.883  12.557
59177SOL    HW279429  10.462  12.025  12.597
59178SOL     OW79430  10.447   3.145  10.238
59178SOL    HW179431  10.496   3.220  10.203
59178SOL    HW279432  10.465   3.146  10.332
59179SOL     OW79433   1.329  14.678   4.378
59179SOL    HW179434   1.354  14.740   4.309
59179SOL    HW279435   1.351  14.723   4.460
59180SOL     OW79436  11.625  14.442  14.106
59180SOL    HW179437  11.668  14.525  14.127
59180SOL    HW279438  11.566  14.463  14.034
59181SOL     OW79439   6.805   1.637   3.902
59181SOL    HW179440   6.775   1.706   3.961
59181SOL    HW279441   6.901   1.637   3.911
59182SOL     OW79442   9.754   8.441   3.349
59182SOL    HW179443   9.713   8.521   3.382
59182SOL    HW279444   9.689   8.372   3.365
59183SOL     OW79445   5.937   9.640   2.245
59183SOL    HW179446   5.938   9.730   2.278
59183SOL    HW279447   5.845   9.623   2.227
59184SOL     OW79448   7.692  11.142   4.661
59184SOL    HW179449   7.662  11.054   4.638
59184SOL    HW279450   7.612  11.190   4.681
59185SOL     OW79451   2.696  12.642   6.269
59185SOL    HW179452   2.729  12.731   6.264
59185SOL    HW279453   2.616  12.649   6.322
59186SOL     OW79454  13.703  14.725   4.744
59186SOL    HW179455  13.695  14.733   4.649
59186SOL    HW279456  13.772  14.787   4.767
59187SOL     OW79457   5.561   5.970   9.130
59187SOL    HW179458   5.644   5.992   9.172
59187SOL    HW279459   5.578   5.979   9.037
59188SOL     OW79460   8.749   4.931   7.319
59188SOL    HW179461   8.685   4.909   7.387
59188SOL    HW279462   8.816   4.983   7.365
59189SOL     OW79463   2.476   9.525  13.710
59189SOL    HW179464   2.405   9.465  13.688
59189SOL    HW279465   2.510   9.491  13.793
59190SOL     OW79466  10.077   7.512   1.549
59190SOL    HW179467  10.129   7.445   1.593
59190SOL    HW279468  10.022   7.548   1.618
59191SOL     OW79469   0.754   8.519   1.687
59191SOL    HW179470   0.676   8.546   1.735
59191SOL    HW279471   0.762   8.425   1.704
59192SOL     OW79472  14.073   7.514   4.310
59192SOL    HW179473  14.148   7.572   4.320
59192SOL    HW279474  14.099   7.453   4.241
59193SOL     OW79475   6.703   5.730  14.423
59193SOL    HW179476   6.740   5.775  14.499
59193SOL    HW279477   6.631   5.787  14.395
59194SOL     OW79478   7.966   7.539  10.850
59194SOL    HW179479   7.967   7.613  10.789
59194SOL    HW279480   8.017   7.471  10.806
59195SOL     OW79481  10.430   4.598   6.208
59195SOL    HW179482  10.366   4.665   6.185
59195SOL    HW279483  10.377   4.524   6.237
59196SOL     OW79484  14.569  12.569   7.738
59196SOL    HW179485  14.548  12.571   7.644
59196SOL    HW279486  14.619  12.488   7.749
59197SOL     OW79487   3.117   2.358   4.227
59197SOL    HW179488   3.129   2.321   4.140
59197SOL    HW279489   3.022   2.367   4.236
59198SOL     OW79490  12.009   4.671   9.990
59198SOL    HW179491  12.041   4.587  10.021
59198SOL    HW279492  12.051   4.683   9.904
59199SOL     OW79493  14.077   5.386   6.198
59199SOL    HW179494  14.023   5.351   6.127
59199SOL    HW279495  14.129   5.312   6.228
59200SOL     OW79496  10.036   9.588  10.700
59200SOL    HW179497  10.036   9.506  10.650
59200SOL    HW279498  10.128   9.606  10.716
59201SOL     OW79499   7.327   5.556   8.161
59201SOL    HW179500   7.257   5.571   8.225
59201SOL    HW279501   7.393   5.506   8.210
59202SOL     OW79502   3.013  12.490   8.818
59202SOL    HW179503   3.093  12.501   8.767
59202SOL    HW279504   3.032  12.416   8.876
59203SOL     OW79505  14.311   1.266   7.597
59203SOL    HW179506  14.253   1.201   7.557
59203SOL    HW279507  14.304   1.342   7.540
59204SOL     OW79508  13.861  12.603   4.862
59204SOL    HW179509  13.886  12.531   4.920
59204SOL    HW279510  13.805  12.561   4.796
59205SOL     OW79511   3.988  10.207  11.349
59205SOL    HW179512   3.979  10.144  11.278
59205SOL    HW279513   3.906  10.200  11.398
59206SOL     OW79514   8.420   7.415   8.805
59206SOL    HW179515   8.468   7.390   8.726
59206SOL    HW279516   8.444   7.349   8.870
59207SOL     OW79517  14.627   7.923   2.720
59207SOL    HW179518  14.630   7.861   2.647
59207SOL    HW279519  14.649   8.007   2.681
59208SOL     OW79520   0.240  12.930  12.565
59208SOL    HW179521   0.147  12.907  12.563
59208SOL    HW279522   0.264  12.924  12.657
59209SOL     OW79523   0.635   4.755   9.938
59209SOL    HW179524   0.557   4.783   9.985
59209SOL    HW279525   0.638   4.810   9.861
59210SOL     OW79526   3.664  11.835   8.145
59210SOL    HW179527   3.576  11.858   8.175
59210SOL    HW279528   3.708  11.801   8.223
59211SOL     OW79529  10.923  11.053   3.146
59211SOL    HW179530  10.843  11.031   3.193
59211SOL    HW279531  10.992  11.001   3.188
59212SOL     OW79532   2.620   0.954  10.440
59212SOL    HW179533   2.619   0.878  10.381
59212SOL    HW279534   2.557   0.931  10.509
59213SOL     OW79535   3.964   8.600   8.425
59213SOL    HW179536   3.883   8.551   8.412
59213SOL    HW279537   3.951   8.680   8.374
59214SOL     OW79538   7.075  12.664   1.218
59214SOL    HW179539   7.154  12.707   1.252
59214SOL    HW279540   7.037  12.727   1.157
59215SOL     OW79541   0.104  12.030   7.828
59215SOL    HW179542   0.069  12.079   7.753
59215SOL    HW279543   0.093  11.938   7.803
59216SOL     OW79544   0.304   2.802  10.640
59216SOL    HW179545   0.342   2.890  10.631
59216SOL    HW279546   0.375   2.749  10.676
59217SOL     OW79547   6.709   3.377  13.373
59217SOL    HW179548   6.735   3.466  13.396
59217SOL    HW279549   6.762   3.356  13.296
59218SOL     OW79550   1.318   4.569   3.291
59218SOL    HW179551   1.248   4.629   3.316
59218SOL    HW279552   1.273   4.495   3.251
59219SOL     OW79553  11.476   6.215  10.404
59219SOL    HW179554  11.551   6.177  10.359
59219SOL    HW279555  11.461   6.299  10.361
59220SOL     OW79556  13.746  14.050   6.016
59220SOL    HW179557  13.807  14.028   5.946
59220SOL    HW279558  13.799  14.100   6.078
59221SOL     OW79559  14.287   2.722   6.733
59221SOL    HW179560  14.318   2.762   6.652
59221SOL    HW279561  14.237   2.791   6.777
59222SOL     OW79562  12.777   6.627   3.461
59222SOL    HW179563  12.777   6.687   3.536
59222SOL    HW279564  12.867   6.627   3.429
59223SOL     OW79565   0.463   6.880   5.697
59223SOL    HW179566   0.493   6.802   5.744
59223SOL    HW279567   0.467   6.855   5.605
59224SOL     OW79568   9.465   3.109  14.803
59224SOL    HW179569   9.376   3.145  14.799
59224SOL    HW279570   9.465   3.039  14.736
59225SOL     OW79571   1.056   3.402  11.805
59225SOL    HW179572   1.096   3.316  11.819
59225SOL    HW279573   0.962   3.387  11.811
59226SOL     OW79574   8.265   8.337   1.192
59226SOL    HW179575   8.248   8.298   1.107
59226SOL    HW279576   8.202   8.296   1.251
59227SOL     OW79577   3.287   3.119   1.079
59227SOL    HW179578   3.290   3.044   1.138
59227SOL    HW279579   3.376   3.127   1.046
59228SOL     OW79580  12.532  10.349   5.555
59228SOL    HW179581  12.580  10.414   5.505
59228SOL    HW279582  12.598  10.286   5.584
59229SOL     OW79583   0.989  14.045   7.173
59229SOL    HW179584   1.045  13.974   7.204
59229SOL    HW279585   0.959  14.089   7.253
59230SOL     OW79586  12.503   1.001   0.419
59230SOL    HW179587  12.446   0.928   0.441
59230SOL    HW279588  12.590   0.962   0.411
59231SOL     OW79589  12.051  12.203  10.659
59231SOL    HW179590  11.987  12.140  10.626
59231SOL    HW279591  11.999  12.265  10.712
59232SOL     OW79592   5.221   3.053  10.508
59232SOL    HW179593   5.192   2.962  10.514
59232SOL    HW279594   5.210   3.076  10.416
59233SOL     OW79595   2.362   8.933  13.618
59233SOL    HW179596   2.329   8.949  13.707
59233SOL    HW279597   2.342   9.014  13.570
59234SOL     OW79598  10.751   1.594  13.106
59234SOL    HW179599  10.812   1.523  13.091
59234SOL    HW279600  10.668   1.551  13.127
59235SOL     OW79601  12.197  12.521   1.240
59235SOL    HW179602  12.265  12.504   1.305
59235SOL    HW279603  12.178  12.615   1.249
59236SOL     OW79604   2.346   9.637  12.213
59236SOL    HW179605   2.342   9.711  12.152
59236SOL    HW279606   2.375   9.563  12.160
59237SOL     OW79607   0.855   6.049  12.426
59237SOL    HW179608   0.780   6.104  12.445
59237SOL    HW279609   0.931   6.102  12.451
59238SOL     OW79610   7.673   0.440  10.526
59238SOL    HW179611   7.676   0.414  10.618
59238SOL    HW279612   7.592   0.404  10.492
59239SOL     OW79613  11.864  12.378   9.940
59239SOL    HW179614  11.820  12.455   9.977
59239SOL    HW279615  11.957  12.394   9.955
59240SOL     OW79616   5.307   2.592  10.481
59240SOL    HW179617   5.354   2.522  10.526
59240SOL    HW279618   5.241   2.547  10.429
59241SOL     OW79619  11.737  12.127   3.276
59241SOL    HW179620  11.802  12.166   3.334
59241SOL    HW279621  11.752  12.168   3.192
59242SOL     OW79622  14.849   5.752  13.412
59242SOL    HW179623  14.804   5.805  13.478
59242SOL    HW279624   0.068   5.752  13.440
59243SOL     OW79625   5.695   2.437  13.001
59243SOL    HW179626   5.781   2.450  13.041
59243SOL    HW279627   5.703   2.473  12.913
59244SOL     OW79628   8.737  12.244   8.120
59244SOL    HW179629   8.697  12.293   8.048
59244SOL    HW279630   8.683  12.165   8.127
59245SOL     OW79631  13.676  11.722  11.455
59245SOL    HW179632  13.653  11.660  11.524
59245SOL    HW279633  13.753  11.769  11.489
59246SOL     OW79634  13.664  14.834  10.105
59246SOL    HW179635  13.717   0.037  10.079
59246SOL    HW279636  13.616  14.864  10.182
59247SOL     OW79637   1.065   6.884  13.158
59247SOL    HW179638   1.022   6.813  13.207
59247SOL    HW279639   1.050   6.862  13.066
59248SOL     OW79640   3.878   3.461   7.740
59248SOL    HW179641   3.971   3.449   7.761
59248SOL    HW279642   3.860   3.394   7.674
59249SOL     OW79643  13.487   5.398   8.745
59249SOL    HW179644  13.510   5.369   8.657
59249SOL    HW279645  13.568   5.392   8.795
59250SOL     OW79646   0.888   2.241   3.181
59250SOL    HW179647   0.977   2.207   3.171
59250SOL    HW279648   0.836   2.164   3.202
59251SOL     OW79649   7.726  11.204   9.095
59251SOL    HW179650   7.647  11.155   9.117
59251SOL    HW279651   7.694  11.280   9.046
59252SOL     OW79652   4.402   8.859   3.047
59252SOL    HW179653   4.361   8.885   2.964
59252SOL    HW279654   4.383   8.932   3.106
59253SOL     OW79655  10.986   3.031  13.874
59253SOL    HW179656  11.075   3.003  13.892
59253SOL    HW279657  10.940   3.022  13.957
59254SOL     OW79658   6.176   9.898   5.705
59254SOL    HW179659   6.255   9.871   5.659
59254SOL    HW279660   6.208   9.959   5.772
59255SOL     OW79661  11.524   4.718   4.608
59255SOL    HW179662  11.487   4.767   4.681
59255SOL    HW279663  11.606   4.763   4.588
59256SOL     OW79664   0.783  11.928   6.619
59256SOL    HW179665   0.744  11.954   6.535
59256SOL    HW279666   0.712  11.886   6.666
59257SOL     OW79667   7.799  13.499   7.606
59257SOL    HW179668   7.813  13.488   7.700
59257SOL    HW279669   7.735  13.432   7.582
59258SOL     OW79670   3.181   8.186  12.664
59258SOL    HW179671   3.095   8.190  12.706
59258SOL    HW279672   3.177   8.251  12.594
59259SOL     OW79673  12.028   2.310   8.809
59259SOL    HW179674  12.112   2.349   8.833
59259SOL    HW279675  11.966   2.349   8.870
59260SOL     OW79676   1.360   9.595  14.085
59260SOL    HW179677   1.361   9.642  14.002
59260SOL    HW279678   1.300   9.646  14.141
59261SOL     OW79679  13.875   8.999   9.628
59261SOL    HW179680  13.960   8.990   9.672
59261SOL    HW279681  13.892   8.974   9.538
59262SOL     OW79682   5.529  14.422   3.247
59262SOL    HW179683   5.607  14.477   3.237
59262SOL    HW279684   5.467  14.477   3.295
59263SOL     OW79685   8.404  13.933  13.288
59263SOL    HW179686   8.347  13.876  13.339
59263SOL    HW279687   8.381  13.914  13.197
59264SOL     OW79688   1.802   6.576  11.139
59264SOL    HW179689   1.874   6.556  11.200
59264SOL    HW279690   1.769   6.490  11.111
59265SOL     OW79691  11.006  12.280   7.044
59265SOL    HW179692  10.968  12.329   6.970
59265SOL    HW279693  10.945  12.207   7.058
59266SOL     OW79694   0.955   8.418   5.546
59266SOL    HW179695   0.928   8.337   5.589
59266SOL    HW279696   0.921   8.488   5.603
59267SOL     OW79697   4.184  13.237   9.208
59267SOL    HW179698   4.090  13.255   9.204
59267SOL    HW279699   4.223  13.292   9.140
59268SOL     OW79700   0.657   3.993   1.806
59268SOL    HW179701   0.668   4.057   1.735
59268SOL    HW279702   0.668   4.044   1.886
59269SOL     OW79703   1.283  14.681  13.327
59269SOL    HW179704   1.278  14.585  13.333
59269SOL    HW279705   1.328  14.697  13.244
59270SOL     OW79706   5.890   9.677  14.615
59270SOL    HW179707   5.894   9.619  14.691
59270SOL    HW279708   5.849   9.624  14.547
59271SOL     OW79709   0.045   8.578   5.841
59271SOL    HW179710   0.035   8.580   5.746
59271SOL    HW279711  14.870   8.500   5.869
59272SOL     OW79712   1.978   8.658   4.259
59272SOL    HW179713   1.965   8.664   4.164
59272SOL    HW279714   1.944   8.741   4.293
59273SOL     OW79715   1.495   0.580   3.156
59273SOL    HW179716   1.462   0.490   3.162
59273SOL    HW279717   1.444   0.629   3.221
59274SOL     OW79718   0.527   9.127   6.469
59274SOL    HW179719   0.461   9.193   6.449
59274SOL    HW279720   0.574   9.114   6.387
59275SOL     OW79721  10.605  10.982   2.027
59275SOL    HW179722  10.657  10.994   1.948
59275SOL    HW279723  10.548  10.907   2.008
59276SOL     OW79724  13.625   6.072   8.664
59276SOL    HW179725  13.688   6.138   8.634
59276SOL    HW279726  13.677   5.993   8.677
59277SOL     OW79727   5.422   8.428  14.496
59277SOL    HW179728   5.487   8.376  14.544
59277SOL    HW279729   5.450   8.425  14.405
59278SOL     OW79730   3.012   0.898  10.382
59278SOL    HW179731   2.972   0.903  10.469
59278SOL    HW279732   2.949   0.847  10.330
59279SOL     OW79733  13.895   9.823   5.679
59279SOL    HW179734  13.965   9.818   5.744
59279SOL    HW279735  13.816   9.797   5.727
59280SOL     OW79736   2.603   5.552   1.611
59280SOL    HW179737   2.676   5.528   1.667
59280SOL    HW279738   2.532   5.573   1.672
59281SOL     OW79739  13.598   1.484   1.149
59281SOL    HW179740  13.570   1.434   1.072
59281SOL    HW279741  13.573   1.429   1.223
59282SOL     OW79742  13.994  14.701   6.830
59282SOL    HW179743  14.018  14.793   6.843
59282SOL    HW279744  14.020  14.682   6.741
59283SOL     OW79745   7.633   6.279  11.966
59283SOL    HW179746   7.679   6.361  11.949
59283SOL    HW279747   7.658   6.255  12.055
59284SOL     OW79748   9.292   4.337   9.285
59284SOL    HW179749   9.381   4.371   9.273
59284SOL    HW279750   9.305   4.245   9.309
59285SOL     OW79751   0.676   6.848   6.013
59285SOL    HW179752   0.706   6.771   6.060
59285SOL    HW279753   0.717   6.840   5.927
59286SOL     OW79754   1.655   3.302  13.247
59286SOL    HW179755   1.716   3.350  13.303
59286SOL    HW279756   1.675   3.210  13.262
59287SOL     OW79757   2.438   5.683   4.019
59287SOL    HW179758   2.422   5.683   3.925
59287SOL    HW279759   2.373   5.743   4.054
59288SOL     OW79760   5.591   2.676  12.131
59288SOL    HW179761   5.510   2.693  12.180
59288SOL    HW279762   5.646   2.752  12.151
59289SOL     OW79763   3.708   4.555  11.881
59289SOL    HW179764   3.715   4.554  11.977
59289SOL    HW279765   3.797   4.570  11.851
59290SOL     OW79766  14.294  13.170  11.671
59290SOL    HW179767  14.338  13.228  11.609
59290SOL    HW279768  14.236  13.227  11.721
59291SOL     OW79769   0.593  10.419   1.043
59291SOL    HW179770   0.619  10.416   1.135
59291SOL    HW279771   0.534  10.495   1.038
59292SOL     OW79772   8.805  10.002   4.056
59292SOL    HW179773   8.759  10.080   4.025
59292SOL    HW279774   8.754   9.929   4.022
59293SOL     OW79775   4.262   2.722   8.062
59293SOL    HW179776   4.226   2.635   8.043
59293SOL    HW279777   4.350   2.704   8.096
59294SOL     OW79778  10.864   9.327   9.220
59294SOL    HW179779  10.873   9.237   9.188
59294SOL    HW279780  10.954   9.358   9.229
59295SOL     OW79781   0.961   3.586  14.255
59295SOL    HW179782   0.941   3.550  14.341
59295SOL    HW279783   0.962   3.510  14.197
59296SOL     OW79784   8.481   2.359   0.990
59296SOL    HW179785   8.388   2.380   1.001
59296SOL    HW279786   8.491   2.273   1.031
59297SOL     OW79787  14.670   9.100  12.572
59297SOL    HW179788  14.596   9.091  12.632
59297SOL    HW279789  14.631   9.117  12.487
59298SOL     OW79790   6.905   4.052   6.751
59298SOL    HW179791   6.900   4.003   6.669
59298SOL    HW279792   6.988   4.099   6.746
59299SOL     OW79793   3.888   6.926  14.176
59299SOL    HW179794   3.824   6.939  14.106
59299SOL    HW279795   3.870   6.839  14.209
59300SOL     OW79796  14.140   5.079   2.207
59300SOL    HW179797  14.177   5.088   2.295
59300SOL    HW279798  14.201   5.020   2.162
59301SOL     OW79799   5.361   4.791   7.634
59301SOL    HW179800   5.454   4.806   7.616
59301SOL    HW279801   5.326   4.756   7.552
59302SOL     OW79802   4.655  12.900  13.914
59302SOL    HW179803   4.653  12.934  14.003
59302SOL    HW279804   4.640  12.976  13.858
59303SOL     OW79805   7.508   8.653   0.348
59303SOL    HW179806   7.542   8.610   0.427
59303SOL    HW279807   7.534   8.595   0.276
59304SOL     OW79808   2.142  14.159   1.604
59304SOL    HW179809   2.087  14.083   1.621
59304SOL    HW279810   2.137  14.211   1.684
59305SOL     OW79811  10.747   5.239   8.432
59305SOL    HW179812  10.794   5.286   8.501
59305SOL    HW279813  10.658   5.227   8.467
59306SOL     OW79814   6.990  10.406   8.304
59306SOL    HW179815   6.987  10.375   8.395
59306SOL    HW279816   6.953  10.494   8.307
59307SOL     OW79817   7.729   8.100  13.222
59307SOL    HW179818   7.734   8.028  13.285
59307SOL    HW279819   7.635   8.108  13.203
59308SOL     OW79820   6.607   2.525   9.184
59308SOL    HW179821   6.615   2.448   9.128
59308SOL    HW279822   6.522   2.563   9.161
59309SOL     OW79823   7.517   4.540  10.555
59309SOL    HW179824   7.473   4.479  10.496
59309SOL    HW279825   7.469   4.622  10.543
59310SOL     OW79826  12.517  14.070   1.913
59310SOL    HW179827  12.497  14.073   1.819
59310SOL    HW279828  12.609  14.096   1.919
59311SOL     OW79829   9.380  11.919   9.787
59311SOL    HW179830   9.426  11.900   9.705
59311SOL    HW279831   9.389  11.838   9.838
59312SOL     OW79832   0.124  11.077   6.367
59312SOL    HW179833   0.057  11.072   6.299
59312SOL    HW279834   0.111  11.163   6.408
59313SOL     OW79835  13.782  12.065   8.617
59313SOL    HW179836  13.763  12.117   8.696
59313SOL    HW279837  13.719  12.096   8.553
59314SOL     OW79838  14.126  11.288  13.315
59314SOL    HW179839  14.148  11.205  13.358
59314SOL    HW279840  14.110  11.264  13.223
59315SOL     OW79841   2.807   5.910   2.974
59315SOL    HW179842   2.803   5.946   2.885
59315SOL    HW279843   2.825   5.986   3.030
59316SOL     OW79844  12.017  10.706   0.602
59316SOL    HW179845  11.993  10.641   0.667
59316SOL    HW279846  12.105  10.735   0.628
59317SOL     OW79847   6.998  14.406   2.797
59317SOL    HW179848   6.964  14.317   2.804
59317SOL    HW279849   7.090  14.395   2.774
59318SOL     OW79850  11.870  14.110  11.668
59318SOL    HW179851  11.804  14.126  11.601
59318SOL    HW279852  11.949  14.087  11.619
59319SOL     OW79853   0.614   9.137   6.735
59319SOL    HW179854   0.614   9.137   6.639
59319SOL    HW279855   0.612   9.229   6.759
59320SOL     OW79856   2.810   0.369   7.869
59320SOL    HW179857   2.808   0.430   7.796
59320SOL    HW279858   2.733   0.313   7.856
59321SOL     OW79859  12.988  12.519  14.594
59321SOL    HW179860  12.948  12.530  14.507
59321SOL    HW279861  12.935  12.451  14.636
59322SOL     OW79862  14.584  12.179  13.490
59322SOL    HW179863  14.501  12.214  13.457
59322SOL    HW279864  14.622  12.134  13.414
59323SOL     OW79865  10.927  14.093   5.254
59323SOL    HW179866  10.982  14.018   5.275
59323SOL    HW279867  10.990  14.163   5.233
59324SOL     OW79868   7.308  12.761   8.700
59324SOL    HW179869   7.291  12.667   8.694
59324SOL    HW279870   7.346  12.785   8.615
59325SOL     OW79871   5.151   3.742   3.142
59325SOL    HW179872   5.072   3.736   3.196
59325SOL    HW279873   5.132   3.813   3.081
59326SOL     OW79874   5.866   8.772   8.329
59326SOL    HW179875   5.934   8.839   8.340
59326SOL    HW279876   5.829   8.761   8.416
59327SOL     OW79877   1.267   1.718  12.827
59327SOL    HW179878   1.332   1.678  12.884
59327SOL    HW279879   1.302   1.806  12.810
59328SOL     OW79880   5.091   9.943   3.238
59328SOL    HW179881   5.012   9.893   3.261
59328SOL    HW279882   5.059  10.031   3.222
59329SOL     OW79883   0.287   1.642  10.341
59329SOL    HW179884   0.215   1.581  10.356
59329SOL    HW279885   0.304   1.637  10.247
59330SOL     OW79886   3.928   4.040   0.950
59330SOL    HW179887   3.905   3.982   0.878
59330SOL    HW279888   3.874   4.009   1.023
59331SOL     OW79889  14.451   0.489   5.189
59331SOL    HW179890  14.482   0.563   5.136
59331SOL    HW279891  14.493   0.501   5.274
59332SOL     OW79892   4.218  13.090  11.600
59332SOL    HW179893   4.222  13.037  11.680
59332SOL    HW279894   4.303  13.133  11.595
59333SOL     OW79895   9.703   8.283   5.345
59333SOL    HW179896   9.659   8.259   5.263
59333SOL    HW279897   9.639   8.337   5.391
59334SOL     OW79898   7.277   8.685  14.785
59334SOL    HW179899   7.350   8.631  14.755
59334SOL    HW279900   7.277   8.760  14.726
59335SOL     OW79901   8.490   4.907   4.489
59335SOL    HW179902   8.483   4.972   4.418
59335SOL    HW279903   8.585   4.893   4.498
59336SOL     OW79904  12.393  11.881  11.722
59336SOL    HW179905  12.302  11.854  11.720
59336SOL    HW279906  12.434  11.833  11.650
59337SOL     OW79907   5.222  14.680   8.918
59337SOL    HW179908   5.260  14.730   8.846
59337SOL    HW279909   5.214  14.591   8.882
59338SOL     OW79910   3.902   5.044  11.156
59338SOL    HW179911   3.837   4.983  11.192
59338SOL    HW279912   3.940   5.086  11.233
59339SOL     OW79913   9.558   1.400   5.797
59339SOL    HW179914   9.649   1.415   5.772
59339SOL    HW279915   9.515   1.485   5.784
59340SOL     OW79916   0.314   9.209   0.045
59340SOL    HW179917   0.258   9.279   0.012
59340SOL    HW279918   0.337   9.236   0.134
59341SOL     OW79919  13.235   9.150   9.641
59341SOL    HW179920  13.327   9.158   9.668
59341SOL    HW279921  13.191   9.221   9.688
59342SOL     OW79922   8.608   8.082   0.401
59342SOL    HW179923   8.577   8.168   0.427
59342SOL    HW279924   8.611   8.031   0.482
59343SOL     OW79925   8.670  10.303   4.967
59343SOL    HW179926   8.740  10.355   5.007
59343SOL    HW279927   8.594  10.319   5.022
59344SOL     OW79928  12.154   6.137   7.856
59344SOL    HW179929  12.228   6.194   7.876
59344SOL    HW279930  12.079   6.178   7.899
59345SOL     OW79931  12.056   7.569   8.619
59345SOL    HW179932  12.057   7.517   8.700
59345SOL    HW279933  11.976   7.621   8.626
59346SOL     OW79934  10.914   0.389   1.517
59346SOL    HW179935  10.892   0.438   1.596
59346SOL    HW279936  10.891   0.447   1.445
59347SOL     OW79937  10.494   3.159   6.522
59347SOL    HW179938  10.507   3.176   6.429
59347SOL    HW279939  10.449   3.075   6.525
59348SOL     OW79940   9.483   4.574  10.557
59348SOL    HW179941   9.486   4.666  10.583
59348SOL    HW279942   9.393   4.559  10.530
59349SOL     OW79943  12.977  13.022   2.256
59349SOL    HW179944  13.003  12.931   2.241
59349SOL    HW279945  13.001  13.068   2.175
59350SOL     OW79946   9.309  12.149   7.585
59350SOL    HW179947   9.390  12.200   7.591
59350SOL    HW279948   9.253  12.184   7.654
59351SOL     OW79949   7.539   2.136   7.679
59351SOL    HW179950   7.548   2.114   7.771
59351SOL    HW279951   7.461   2.089   7.650
59352SOL     OW79952   1.423  11.571   1.759
59352SOL    HW179953   1.338  11.527   1.768
59352SOL    HW279954   1.476  11.510   1.707
59353SOL     OW79955   5.002   8.017   9.034
59353SOL    HW179956   5.090   7.992   9.060
59353SOL    HW279957   4.945   7.977   9.100
59354SOL     OW79958  14.228   3.329   5.515
59354SOL    HW179959  14.278   3.396   5.468
59354SOL    HW279960  14.141   3.367   5.526
59355SOL     OW79961  12.116   0.539   6.854
59355SOL    HW179962  12.149   0.575   6.772
59355SOL    HW279963  12.176   0.572   6.921
59356SOL     OW79964   0.145   2.350   3.480
59356SOL    HW179965   0.054   2.377   3.497
59356SOL    HW279966   0.195   2.389   3.552
59357SOL     OW79967   4.590   3.289   1.373
59357SOL    HW179968   4.640   3.219   1.414
59357SOL    HW279969   4.499   3.263   1.385
59358SOL     OW79970  14.859   0.262   0.709
59358SOL    HW179971  14.840   0.284   0.618
59358SOL    HW279972   0.079   0.236   0.708
59359SOL     OW79973   2.728   5.355   5.883
59359SOL    HW179974   2.645   5.382   5.843
59359SOL    HW279975   2.709   5.349   5.976
59360SOL     OW79976   8.376   5.915   0.168
59360SOL    HW179977   8.353   5.993   0.118
59360SOL    HW279978   8.385   5.946   0.258
59361SOL     OW79979  13.279   3.764   2.236
59361SOL    HW179980  13.277   3.694   2.301
59361SOL    HW279981  13.293   3.844   2.287
59362SOL     OW79982   1.818   0.580  10.092
59362SOL    HW179983   1.875   0.657  10.088
59362SOL    HW279984   1.795   0.572  10.185
59363SOL     OW79985   1.728   7.523  12.644
59363SOL    HW179986   1.697   7.501  12.556
59363SOL    HW279987   1.685   7.605  12.666
59364SOL     OW79988   5.897   0.611   4.033
59364SOL    HW179989   5.826   0.661   3.992
59364SOL    HW279990   5.887   0.522   3.999
59365SOL     OW79991   8.775   8.310   5.592
59365SOL    HW179992   8.791   8.381   5.654
59365SOL    HW279993   8.721   8.248   5.641
59366SOL     OW79994   1.652   8.466  14.405
59366SOL    HW179995   1.577   8.505  14.450
59366SOL    HW279996   1.636   8.485  14.312
59367SOL     OW79997  10.975  10.144   2.587
59367SOL    HW179998  10.979  10.150   2.492
59367SOL    HW279999  10.975  10.050   2.605
59368SOL     OW80000   0.203   4.225   5.919
59368SOL    HW180001   0.230   4.294   5.858
59368SOL    HW280002   0.122   4.259   5.958
59369SOL     OW80003   6.769  12.594  14.340
59369SOL    HW180004   6.749  12.671  14.394
59369SOL    HW280005   6.825  12.540  14.396
59370SOL     OW80006   0.116   3.313  13.627
59370SOL    HW180007   0.197   3.325  13.577
59370SOL    HW280008   0.126   3.371  13.702
59371SOL     OW80009   5.421   5.486   2.358
59371SOL    HW180010   5.412   5.491   2.453
59371SOL    HW280011   5.441   5.576   2.331
59372SOL     OW80012   4.295  11.211   0.511
59372SOL    HW180013   4.321  11.303   0.509
59372SOL    HW280014   4.351  11.171   0.578
59373SOL     OW80015   1.299   2.965   8.413
59373SOL    HW180016   1.372   3.026   8.412
59373SOL    HW280017   1.243   2.992   8.340
59374SOL     OW80018   0.819  10.166   6.276
59374SOL    HW180019   0.901  10.215   6.285
59374SOL    HW280020   0.751  10.229   6.298
59375SOL     OW80021  13.526   9.442   0.855
59375SOL    HW180022  13.495   9.499   0.925
59375SOL    HW280023  13.596   9.391   0.895
59376SOL     OW80024  11.902  11.562  11.950
59376SOL    HW180025  11.966  11.632  11.949
59376SOL    HW280026  11.893  11.539  12.043
59377SOL     OW80027  10.992  13.568  12.987
59377SOL    HW180028  10.993  13.637  13.053
59377SOL    HW280029  10.983  13.487  13.037
59378SOL     OW80030   1.252  12.027  10.313
59378SOL    HW180031   1.283  12.110  10.349
59378SOL    HW280032   1.228  12.048  10.222
59379SOL     OW80033  12.586  12.340   6.555
59379SOL    HW180034  12.592  12.347   6.459
59379SOL    HW280035  12.533  12.416   6.580
59380SOL     OW80036  11.496  13.334   0.556
59380SOL    HW180037  11.455  13.408   0.513
59380SOL    HW280038  11.446  13.258   0.526
59381SOL     OW80039  11.692   2.323   1.420
59381SOL    HW180040  11.781   2.322   1.386
59381SOL    HW280041  11.681   2.411   1.456
59382SOL     OW80042  13.503   3.734   3.127
59382SOL    HW180043  13.574   3.794   3.149
59382SOL    HW280044  13.452   3.726   3.207
59383SOL     OW80045  14.431   9.428   3.535
59383SOL    HW180046  14.342   9.460   3.518
59383SOL    HW280047  14.486   9.476   3.473
59384SOL     OW80048  11.422   7.380  10.710
59384SOL    HW180049  11.380   7.303  10.671
59384SOL    HW280050  11.360   7.411  10.776
59385SOL     OW80051   5.954   1.531   9.206
59385SOL    HW180052   5.941   1.542   9.300
59385SOL    HW280053   6.039   1.487   9.199
59386SOL     OW80054  10.787   8.633  14.161
59386SOL    HW180055  10.849   8.606  14.229
59386SOL    HW280056  10.842   8.672  14.093
59387SOL     OW80057   4.348   2.141   7.634
59387SOL    HW180058   4.317   2.062   7.589
59387SOL    HW280059   4.301   2.213   7.593
59388SOL     OW80060   4.404   3.915  10.266
59388SOL    HW180061   4.500   3.907  10.263
59388SOL    HW280062   4.381   3.960  10.185
59389SOL     OW80063   4.498  10.334   0.684
59389SOL    HW180064   4.455  10.328   0.769
59389SOL    HW280065   4.434  10.378   0.628
59390SOL     OW80066   8.624   7.044  12.124
59390SOL    HW180067   8.607   7.009  12.037
59390SOL    HW280068   8.711   7.011  12.147
59391SOL     OW80069  13.685  12.381  11.588
59391SOL    HW180070  13.621  12.396  11.518
59391SOL    HW280071  13.673  12.288  11.610
59392SOL     OW80072   1.031  12.733   9.316
59392SOL    HW180073   1.118  12.766   9.294
59392SOL    HW280074   0.990  12.714   9.232
59393SOL     OW80075   0.371   9.771   7.682
59393SOL    HW180076   0.377   9.861   7.649
59393SOL    HW280077   0.338   9.780   7.771
59394SOL     OW80078   6.223   0.422   4.136
59394SOL    HW180079   6.212   0.465   4.052
59394SOL    HW280080   6.182   0.481   4.199
59395SOL     OW80081   7.248   2.144   8.069
59395SOL    HW180082   7.331   2.191   8.060
59395SOL    HW280083   7.189   2.185   8.007
59396SOL     OW80084  11.679   7.043   9.852
59396SOL    HW180085  11.755   6.994   9.822
59396SOL    HW280086  11.604   6.995   9.818
59397SOL     OW80087   0.205   7.197   5.380
59397SOL    HW180088   0.168   7.111   5.398
59397SOL    HW280089   0.167   7.254   5.447
59398SOL     OW80090   9.997   0.267   5.774
59398SOL    HW180091   9.944   0.339   5.809
59398SOL    HW280092   9.973   0.191   5.827
59399SOL     OW80093   2.717   1.223   5.350
59399SOL    HW180094   2.631   1.243   5.314
59399SOL    HW280095   2.704   1.219   5.444
59400SOL     OW80096   7.207  11.644   3.990
59400SOL    HW180097   7.246  11.685   4.067
59400SOL    HW280098   7.223  11.707   3.919
59401SOL     OW80099  11.663  13.851   0.218
59401SOL    HW180100  11.755  13.866   0.197
59401SOL    HW280101  11.664  13.814   0.307
59402SOL     OW80102   4.196  10.026   5.250
59402SOL    HW180103   4.123  10.081   5.224
59402SOL    HW280104   4.274  10.076   5.225
59403SOL     OW80105   7.707   2.252  11.295
59403SOL    HW180106   7.620   2.215  11.282
59403SOL    HW280107   7.692   2.336  11.338
59404SOL     OW80108   5.035   5.890   5.967
59404SOL    HW180109   5.023   5.802   5.933
59404SOL    HW280110   4.992   5.889   6.053
59405SOL     OW80111  11.840   8.497   7.016
59405SOL    HW180112  11.810   8.435   6.949
59405SOL    HW280113  11.855   8.442   7.094
59406SOL     OW80114   5.174   3.803   4.217
59406SOL    HW180115   5.079   3.799   4.228
59406SOL    HW280116   5.187   3.850   4.135
59407SOL     OW80117  13.881  13.917   6.476
59407SOL    HW180118  13.811  13.876   6.425
59407SOL    HW280119  13.859  13.896   6.567
59408SOL     OW80120   9.796   1.296  12.823
59408SOL    HW180121   9.845   1.229  12.776
59408SOL    HW280122   9.855   1.371  12.827
59409SOL     OW80123   8.196  11.535   3.870
59409SOL    HW180124   8.279  11.528   3.915
59409SOL    HW280125   8.173  11.444   3.848
59410SOL     OW80126  12.177   3.949   0.623
59410SOL    HW180127  12.090   3.990   0.630
59410SOL    HW280128  12.216   3.990   0.546
59411SOL     OW80129   9.219   4.103   0.763
59411SOL    HW180130   9.314   4.093   0.762
59411SOL    HW280131   9.204   4.193   0.733
59412SOL     OW80132   1.428  14.825   6.875
59412SOL    HW180133   1.521  14.847   6.869
59412SOL    HW280134   1.426  14.745   6.928
59413SOL     OW80135   3.176  13.159  11.701
59413SOL    HW180136   3.167  13.136  11.609
59413SOL    HW280137   3.092  13.137  11.741
59414SOL     OW80138   6.862   8.789   9.760
59414SOL    HW180139   6.900   8.724   9.701
59414SOL    HW280140   6.805   8.842   9.703
59415SOL     OW80141   0.744   2.480   5.145
59415SOL    HW180142   0.654   2.466   5.171
59415SOL    HW280143   0.796   2.454   5.221
59416SOL     OW80144   3.660   0.609  10.789
59416SOL    HW180145   3.603   0.658  10.849
59416SOL    HW280146   3.600   0.550  10.743
59417SOL     OW80147  12.624   1.999  11.304
59417SOL    HW180148  12.530   2.014  11.315
59417SOL    HW280149  12.656   2.078  11.261
59418SOL     OW80150   5.088  14.268   1.008
59418SOL    HW180151   5.124  14.183   1.033
59418SOL    HW280152   5.008  14.246   0.959
59419SOL     OW80153   1.033   2.943   5.999
59419SOL    HW180154   0.976   2.875   5.964
59419SOL    HW280155   0.991   2.971   6.080
59420SOL     OW80156   0.532   1.616  12.013
59420SOL    HW180157   0.470   1.549  11.984
59420SOL    HW280158   0.476   1.690  12.038
59421SOL     OW80159   2.745   8.162   6.661
59421SOL    HW180160   2.723   8.083   6.611
59421SOL    HW280161   2.674   8.223   6.641
59422SOL     OW80162  12.516   3.270  12.533
59422SOL    HW180163  12.523   3.231  12.620
59422SOL    HW280164  12.603   3.259  12.494
59423SOL     OW80165  12.397   2.483   0.066
59423SOL    HW180166  12.466   2.487  14.872
59423SOL    HW280167  12.431   2.424   0.133
59424SOL     OW80168   8.028  13.809   4.514
59424SOL    HW180169   8.009  13.716   4.523
59424SOL    HW280170   8.104  13.824   4.570
59425SOL     OW80171   4.437   2.737  14.115
59425SOL    HW180172   4.522   2.720  14.073
59425SOL    HW280173   4.391   2.795  14.054
59426SOL     OW80174   0.824   6.686   0.270
59426SOL    HW180175   0.778   6.737   0.337
59426SOL    HW280176   0.818   6.596   0.302
59427SOL     OW80177  10.512  11.945   4.384
59427SOL    HW180178  10.422  11.913   4.389
59427SOL    HW280179  10.537  11.930   4.293
59428SOL     OW80180   2.085  11.926   5.234
59428SOL    HW180181   2.013  11.910   5.173
59428SOL    HW280182   2.042  11.961   5.313
59429SOL     OW80183  10.120   0.179  14.446
59429SOL    HW180184  10.155   0.124  14.377
59429SOL    HW280185  10.166   0.150  14.525
59430SOL     OW80186   2.044   3.209   2.106
59430SOL    HW180187   2.002   3.143   2.051
59430SOL    HW280188   1.988   3.286   2.099
59431SOL     OW80189  14.492   1.853   1.805
59431SOL    HW180190  14.536   1.930   1.768
59431SOL    HW280191  14.563   1.791   1.823
59432SOL     OW80192  12.151   8.528  12.065
59432SOL    HW180193  12.135   8.434  12.081
59432SOL    HW280194  12.243   8.532  12.039
59433SOL     OW80195  13.890   4.632   0.196
59433SOL    HW180196  13.927   4.582   0.123
59433SOL    HW280197  13.937   4.715   0.194
59434SOL     OW80198   5.347   6.704  13.611
59434SOL    HW180199   5.367   6.756  13.534
59434SOL    HW280200   5.340   6.768  13.682
59435SOL     OW80201   5.787   6.794   2.844
59435SOL    HW180202   5.864   6.753   2.883
59435SOL    HW280203   5.786   6.762   2.753
59436SOL     OW80204  11.414  14.117   6.711
59436SOL    HW180205  11.396  14.157   6.626
59436SOL    HW280206  11.328  14.106   6.751
59437SOL     OW80207  10.741  10.454  10.059
59437SOL    HW180208  10.819  10.508  10.050
59437SOL    HW280209  10.749  10.389   9.989
59438SOL     OW80210   5.835   1.357   9.947
59438SOL    HW180211   5.787   1.437   9.964
59438SOL    HW280212   5.768   1.292   9.925
59439SOL     OW80213   9.878   9.286   5.826
59439SOL    HW180214   9.943   9.348   5.794
59439SOL    HW280215   9.922   9.201   5.825
59440SOL     OW80216   5.565   3.537  12.995
59440SOL    HW180217   5.570   3.609  12.933
59440SOL    HW280218   5.657   3.521  13.020
59441SOL     OW80219  13.412   8.446  12.049
59441SOL    HW180220  13.419   8.496  11.968
59441SOL    HW280221  13.409   8.355  12.021
59442SOL     OW80222  11.383  10.018   6.608
59442SOL    HW180223  11.291  10.025   6.632
59442SOL    HW280224  11.409   9.931   6.638
59443SOL     OW80225   1.857   2.284   7.169
59443SOL    HW180226   1.791   2.320   7.110
59443SOL    HW280227   1.860   2.191   7.148
59444SOL     OW80228   4.151  12.330   1.526
59444SOL    HW180229   4.130  12.422   1.512
59444SOL    HW280230   4.239  12.332   1.564
59445SOL     OW80231   7.577  11.960  14.694
59445SOL    HW180232   7.583  12.054  14.708
59445SOL    HW280233   7.536  11.950  14.608
59446SOL     OW80234  14.622  13.966   9.165
59446SOL    HW180235  14.653  13.921   9.243
59446SOL    HW280236  14.537  13.925   9.147
59447SOL     OW80237   7.641   0.279  10.251
59447SOL    HW180238   7.716   0.312  10.300
59447SOL    HW280239   7.588   0.357  10.233
59448SOL     OW80240   3.561   6.931   4.772
59448SOL    HW180241   3.476   6.970   4.795
59448SOL    HW280242   3.595   6.897   4.855
59449SOL     OW80243   3.539   1.434  12.864
59449SOL    HW180244   3.545   1.521  12.825
59449SOL    HW280245   3.595   1.379  12.809
59450SOL     OW80246   4.802   4.720  10.990
59450SOL    HW180247   4.842   4.636  11.014
59450SOL    HW280248   4.839   4.783  11.050
59451SOL     OW80249   8.687   9.530   3.998
59451SOL    HW180250   8.630   9.469   3.952
59451SOL    HW280251   8.764   9.479   4.022
59452SOL     OW80252  12.380   9.318   2.806
59452SOL    HW180253  12.298   9.301   2.760
59452SOL    HW280254  12.444   9.259   2.766
59453SOL     OW80255  11.108   9.005  11.765
59453SOL    HW180256  11.095   8.965  11.679
59453SOL    HW280257  11.100   8.932  11.827
59454SOL     OW80258   6.126  11.784   3.537
59454SOL    HW180259   6.158  11.737   3.460
59454SOL    HW280260   6.189  11.855   3.549
59455SOL     OW80261   8.706   6.435   6.124
59455SOL    HW180262   8.657   6.465   6.201
59455SOL    HW280263   8.659   6.357   6.095
59456SOL     OW80264  11.815   8.966   4.450
59456SOL    HW180265  11.794   9.000   4.363
59456SOL    HW280266  11.744   8.997   4.506
59457SOL     OW80267   3.403  13.108  11.831
59457SOL    HW180268   3.473  13.109  11.767
59457SOL    HW280269   3.323  13.120  11.780
59458SOL     OW80270   8.441   3.709  13.843
59458SOL    HW180271   8.411   3.676  13.759
59458SOL    HW280272   8.394   3.791  13.855
59459SOL     OW80273   8.768   6.957   5.294
59459SOL    HW180274   8.793   6.880   5.346
59459SOL    HW280275   8.776   6.929   5.203
59460SOL     OW80276  12.472  12.163  10.351
59460SOL    HW180277  12.499  12.090  10.295
59460SOL    HW280278  12.553  12.207  10.374
59461SOL     OW80279   9.528   4.353   8.106
59461SOL    HW180280   9.567   4.366   8.020
59461SOL    HW280281   9.583   4.405   8.165
59462SOL     OW80282   6.629   3.015   3.627
59462SOL    HW180283   6.639   3.099   3.672
59462SOL    HW280284   6.549   2.977   3.663
59463SOL     OW80285   8.253  14.034  11.600
59463SOL    HW180286   8.302  13.953  11.616
59463SOL    HW280287   8.318  14.103  11.604
59464SOL     OW80288   8.033   5.372   6.330
59464SOL    HW180289   7.997   5.342   6.414
59464SOL    HW280290   7.984   5.452   6.311
59465SOL     OW80291   3.824   2.146   4.223
59465SOL    HW180292   3.835   2.189   4.138
59465SOL    HW280293   3.832   2.217   4.287
59466SOL     OW80294  14.369   4.244   4.211
59466SOL    HW180295  14.442   4.213   4.265
59466SOL    HW280296  14.317   4.298   4.271
59467SOL     OW80297   1.422   4.731   9.282
59467SOL    HW180298   1.421   4.802   9.217
59467SOL    HW280299   1.508   4.690   9.272
59468SOL     OW80300   3.832   6.754   5.996
59468SOL    HW180301   3.872   6.838   5.974
59468SOL    HW280302   3.894   6.688   5.963
59469SOL     OW80303   4.175   2.099   5.533
59469SOL    HW180304   4.172   2.182   5.484
59469SOL    HW280305   4.260   2.061   5.510
59470SOL     OW80306   8.498   4.353   8.844
59470SOL    HW180307   8.480   4.367   8.751
59470SOL    HW280308   8.428   4.400   8.890
59471SOL     OW80309   7.953  13.546   4.541
59471SOL    HW180310   7.976  13.455   4.524
59471SOL    HW280311   7.896  13.543   4.618
59472SOL     OW80312  13.514  13.725  13.567
59472SOL    HW180313  13.603  13.758  13.557
59472SOL    HW280314  13.458  13.801  13.551
59473SOL     OW80315   9.229   1.976  11.254
59473SOL    HW180316   9.294   1.914  11.220
59473SOL    HW280317   9.260   1.999  11.341
59474SOL     OW80318   7.599   1.223  13.988
59474SOL    HW180319   7.691   1.252  13.988
59474SOL    HW280320   7.590   1.169  13.910
59475SOL     OW80321   2.666   2.121   0.674
59475SOL    HW180322   2.656   2.198   0.730
59475SOL    HW280323   2.623   2.145   0.592
59476SOL     OW80324   5.603   9.088   6.971
59476SOL    HW180325   5.618   8.997   6.948
59476SOL    HW280326   5.637   9.096   7.061
59477SOL     OW80327   4.095   7.346   2.552
59477SOL    HW180328   4.191   7.345   2.555
59477SOL    HW280329   4.073   7.437   2.530
59478SOL     OW80330   8.285   4.132   1.374
59478SOL    HW180331   8.328   4.217   1.372
59478SOL    HW280332   8.223   4.138   1.447
59479SOL     OW80333  12.975   0.847   1.243
59479SOL    HW180334  12.930   0.865   1.326
59479SOL    HW280335  12.913   0.877   1.176
59480SOL     OW80336  14.043   0.731  10.453
59480SOL    HW180337  14.103   0.791  10.497
59480SOL    HW280338  14.072   0.730  10.362
59481SOL     OW80339   1.487   2.533   1.390
59481SOL    HW180340   1.560   2.473   1.408
59481SOL    HW280341   1.439   2.491   1.319
59482SOL     OW80342   2.453   9.716   3.305
59482SOL    HW180343   2.487   9.655   3.240
59482SOL    HW280344   2.363   9.734   3.277
59483SOL     OW80345  12.861   9.574   3.293
59483SOL    HW180346  12.941   9.521   3.299
59483SOL    HW280347  12.866   9.613   3.206
59484SOL     OW80348   5.397  14.154   7.496
59484SOL    HW180349   5.336  14.181   7.427
59484SOL    HW280350   5.428  14.236   7.534
59485SOL     OW80351  11.779   6.144   3.850
59485SOL    HW180352  11.862   6.102   3.875
59485SOL    HW280353  11.806   6.227   3.809
59486SOL     OW80354   9.602   8.418   7.249
59486SOL    HW180355   9.565   8.338   7.288
59486SOL    HW280356   9.692   8.394   7.226
59487SOL     OW80357   1.292   5.704  10.072
59487SOL    HW180358   1.238   5.637  10.114
59487SOL    HW280359   1.380   5.689  10.107
59488SOL     OW80360  11.534   3.927   0.762
59488SOL    HW180361  11.509   3.846   0.806
59488SOL    HW280362  11.625   3.912   0.735
59489SOL     OW80363   6.022   1.755   7.631
59489SOL    HW180364   5.973   1.705   7.697
59489SOL    HW280365   5.957   1.815   7.594
59490SOL     OW80366  10.254  13.891  12.465
59490SOL    HW180367  10.248  13.853  12.553
59490SOL    HW280368  10.167  13.929  12.450
59491SOL     OW80369   9.269  11.117   8.050
59491SOL    HW180370   9.352  11.121   8.004
59491SOL    HW280371   9.292  11.120   8.143
59492SOL     OW80372  13.609   7.899   1.818
59492SOL    HW180373  13.618   7.822   1.763
59492SOL    HW280374  13.651   7.969   1.769
59493SOL     OW80375  13.274  13.289  12.245
59493SOL    HW180376  13.342  13.340  12.287
59493SOL    HW280377  13.241  13.344  12.174
59494SOL     OW80378  10.659  11.168   0.408
59494SOL    HW180379  10.725  11.138   0.471
59494SOL    HW280380  10.639  11.092   0.355
59495SOL     OW80381  14.405  13.420   2.412
59495SOL    HW180382  14.487  13.396   2.454
59495SOL    HW280383  14.417  13.511   2.384
59496SOL     OW80384  12.127  14.228   0.934
59496SOL    HW180385  12.125  14.212   1.028
59496SOL    HW280386  12.213  14.269   0.918
59497SOL     OW80387   1.053   7.366   4.132
59497SOL    HW180388   1.077   7.455   4.156
59497SOL    HW280389   0.967   7.353   4.170
59498SOL     OW80390   8.944   2.947  12.046
59498SOL    HW180391   8.965   3.005  12.119
59498SOL    HW280392   8.848   2.944  12.044
59499SOL     OW80393  11.046   4.773   0.285
59499SOL    HW180394  11.111   4.820   0.233
59499SOL    HW280395  10.986   4.737   0.221
59500SOL     OW80396   3.087  14.731  11.931
59500SOL    HW180397   3.048  14.765  11.850
59500SOL    HW280398   3.078  14.636  11.923
59501SOL     OW80399  14.246  11.377   6.048
59501SOL    HW180400  14.191  11.425   5.987
59501SOL    HW280401  14.185  11.342   6.114
59502SOL     OW80402  10.810  13.038   5.343
59502SOL    HW180403  10.864  13.113   5.369
59502SOL    HW280404  10.721  13.071   5.344
59503SOL     OW80405   2.436   8.723   8.741
59503SOL    HW180406   2.454   8.742   8.649
59503SOL    HW280407   2.455   8.805   8.787
59504SOL     OW80408   5.979  13.647   9.436
59504SOL    HW180409   5.967  13.585   9.364
59504SOL    HW280410   5.933  13.726   9.407
59505SOL     OW80411   6.882  13.458   7.863
59505SOL    HW180412   6.821  13.522   7.898
59505SOL    HW280413   6.879  13.385   7.924
59506SOL     OW80414  13.315   5.766   7.826
59506SOL    HW180415  13.258   5.690   7.832
59506SOL    HW280416  13.402   5.730   7.812
59507SOL     OW80417  10.666  10.992  11.543
59507SOL    HW180418  10.596  11.032  11.492
59507SOL    HW280419  10.628  10.981  11.630
59508SOL     OW80420  10.218   3.883   3.693
59508SOL    HW180421  10.150   3.818   3.715
59508SOL    HW280422  10.264   3.897   3.776
59509SOL     OW80423   9.362   4.436   5.006
59509SOL    HW180424   9.311   4.459   4.928
59509SOL    HW280425   9.319   4.483   5.077
59510SOL     OW80426  11.002   4.364  12.851
59510SOL    HW180427  10.953   4.381  12.931
59510SOL    HW280428  10.935   4.352  12.784
59511SOL     OW80429   6.251  10.595   1.527
59511SOL    HW180430   6.159  10.604   1.503
59511SOL    HW280431   6.296  10.659   1.472
59512SOL     OW80432  13.065   0.872   6.323
59512SOL    HW180433  13.147   0.882   6.274
59512SOL    HW280434  13.075   0.788   6.368
59513SOL     OW80435   0.171   3.859  13.055
59513SOL    HW180436   0.125   3.899  12.981
59513SOL    HW280437   0.117   3.784  13.078
59514SOL     OW80438  14.795  10.103   6.835
59514SOL    HW180439  14.728  10.120   6.769
59514SOL    HW280440  14.854  10.039   6.793
59515SOL     OW80441   8.672  14.559   2.907
59515SOL    HW180442   8.615  14.608   2.966
59515SOL    HW280443   8.705  14.486   2.959
59516SOL     OW80444   1.115   7.027  14.086
59516SOL    HW180445   1.209   7.038  14.070
59516SOL    HW280446   1.096   7.084  14.160
59517SOL     OW80447  14.290   7.680  11.595
59517SOL    HW180448  14.327   7.611  11.539
59517SOL    HW280449  14.265   7.749  11.534
59518SOL     OW80450   2.349  11.596  10.447
59518SOL    HW180451   2.355  11.606  10.352
59518SOL    HW280452   2.319  11.506  10.459
59519SOL     OW80453  11.996   7.571   3.858
59519SOL    HW180454  11.991   7.476   3.872
59519SOL    HW280455  12.024   7.607   3.942
59520SOL     OW80456   4.675   7.164   9.045
59520SOL    HW180457   4.614   7.091   9.052
59520SOL    HW280458   4.761   7.123   9.035
59521SOL     OW80459   4.366   4.260   9.068
59521SOL    HW180460   4.440   4.316   9.090
59521SOL    HW280461   4.367   4.191   9.134
59522SOL     OW80462  11.492   9.148  11.312
59522SOL    HW180463  11.471   9.129  11.221
59522SOL    HW280464  11.414   9.193  11.346
59523SOL     OW80465   1.058  10.906  14.317
59523SOL    HW180466   1.001  10.979  14.294
59523SOL    HW280467   0.997  10.832  14.330
59524SOL     OW80468  11.525   5.008   8.207
59524SOL    HW180469  11.574   5.026   8.127
59524SOL    HW280470  11.514   5.094   8.248
59525SOL     OW80471   4.685  11.876   0.985
59525SOL    HW180472   4.763  11.919   0.949
59525SOL    HW280473   4.655  11.934   1.054
59526SOL     OW80474   6.815   9.125   4.414
59526SOL    HW180475   6.766   9.189   4.466
59526SOL    HW280476   6.771   9.042   4.433
59527SOL     OW80477   7.949   3.679  10.074
59527SOL    HW180478   7.908   3.596  10.098
59527SOL    HW280479   8.043   3.663  10.085
59528SOL     OW80480   3.474  10.593   8.259
59528SOL    HW180481   3.475  10.605   8.164
59528SOL    HW280482   3.389  10.629   8.286
59529SOL     OW80483   1.535   0.958   6.072
59529SOL    HW180484   1.585   0.905   6.135
59529SOL    HW280485   1.483   0.895   6.023
59530SOL     OW80486   3.252  12.923   2.014
59530SOL    HW180487   3.234  12.875   1.933
59530SOL    HW280488   3.193  12.884   2.079
59531SOL     OW80489   4.898   9.959   7.144
59531SOL    HW180490   4.966  10.014   7.104
59531SOL    HW280491   4.911   9.873   7.104
59532SOL     OW80492   9.942   2.335   7.594
59532SOL    HW180493   9.949   2.268   7.526
59532SOL    HW280494   9.932   2.418   7.546
59533SOL     OW80495   8.875   0.220   8.618
59533SOL    HW180496   8.843   0.280   8.551
59533SOL    HW280497   8.882   0.136   8.573
59534SOL     OW80498   0.817   8.462  13.153
59534SOL    HW180499   0.814   8.409  13.233
59534SOL    HW280500   0.907   8.455  13.122
59535SOL     OW80501  12.229  11.420   4.765
59535SOL    HW180502  12.171  11.483   4.723
59535SOL    HW280503  12.251  11.460   4.849
59536SOL     OW80504   9.017   4.932  11.468
59536SOL    HW180505   9.073   4.855  11.461
59536SOL    HW280506   9.006   4.946  11.562
59537SOL     OW80507   3.303   9.101   1.935
59537SOL    HW180508   3.249   9.181   1.927
59537SOL    HW280509   3.373   9.126   1.996
59538SOL     OW80510  13.255  10.130   7.127
59538SOL    HW180511  13.323  10.146   7.062
59538SOL    HW280512  13.301  10.126   7.210
59539SOL     OW80513   6.916   8.032   5.762
59539SOL    HW180514   6.998   8.080   5.748
59539SOL    HW280515   6.944   7.941   5.772
59540SOL     OW80516   0.810   9.433   1.748
59540SOL    HW180517   0.792   9.487   1.826
59540SOL    HW280518   0.833   9.496   1.680
59541SOL     OW80519   1.582  10.154   6.650
59541SOL    HW180520   1.648  10.142   6.718
59541SOL    HW280521   1.524  10.079   6.659
59542SOL     OW80522   0.727   7.811   1.242
59542SOL    HW180523   0.674   7.801   1.163
59542SOL    HW280524   0.671   7.861   1.301
59543SOL     OW80525   5.993   8.356  13.136
59543SOL    HW180526   6.012   8.431  13.079
59543SOL    HW280527   6.068   8.297  13.123
59544SOL     OW80528   2.798   4.274   3.805
59544SOL    HW180529   2.791   4.367   3.824
59544SOL    HW280530   2.869   4.268   3.740
59545SOL     OW80531   0.198   3.332   2.961
59545SOL    HW180532   0.160   3.245   2.968
59545SOL    HW280533   0.289   3.321   2.989
59546SOL     OW80534   3.808  14.575   2.998
59546SOL    HW180535   3.765  14.541   3.076
59546SOL    HW280536   3.763  14.532   2.925
59547SOL     OW80537   7.644   9.775   2.390
59547SOL    HW180538   7.688   9.742   2.468
59547SOL    HW280539   7.552   9.754   2.404
59548SOL     OW80540   4.417   2.986  12.283
59548SOL    HW180541   4.355   3.036  12.231
59548SOL    HW280542   4.484   3.050  12.308
59549SOL     OW80543   8.698   3.074   8.561
59549SOL    HW180544   8.791   3.074   8.581
59549SOL    HW280545   8.658   3.023   8.632
59550SOL     OW80546  13.909   2.481   1.755
59550SOL    HW180547  13.939   2.571   1.754
59550SOL    HW280548  13.867   2.470   1.840
59551SOL     OW80549   4.605   8.982  14.725
59551SOL    HW180550   4.689   9.029  14.723
59551SOL    HW280551   4.620   8.906  14.670
59552SOL     OW80552   7.893   0.092   7.797
59552SOL    HW180553   7.832   0.117   7.728
59552SOL    HW280554   7.925   0.175   7.831
59553SOL     OW80555   5.376   5.162   8.168
59553SOL    HW180556   5.283   5.148   8.148
59553SOL    HW280557   5.380   5.160   8.264
59554SOL     OW80558   9.434   5.601   3.204
59554SOL    HW180559   9.434   5.697   3.210
59554SOL    HW280560   9.459   5.583   3.113
59555SOL     OW80561   9.282   8.332  13.797
59555SOL    HW180562   9.237   8.344  13.880
59555SOL    HW280563   9.212   8.335  13.731
59556SOL     OW80564  13.936   2.526  14.602
59556SOL    HW180565  13.961   2.474  14.525
59556SOL    HW280566  13.980   2.482  14.675
59557SOL     OW80567  10.400  10.635   8.491
59557SOL    HW180568  10.350  10.644   8.410
59557SOL    HW280569  10.462  10.708   8.489
59558SOL     OW80570   7.461  11.420  14.463
59558SOL    HW180571   7.461  11.330  14.430
59558SOL    HW280572   7.496  11.413  14.552
59559SOL     OW80573   0.105  10.943   4.924
59559SOL    HW180574   0.020  10.940   4.878
59559SOL    HW280575   0.104  10.868   4.983
59560SOL     OW80576  11.195   9.403  10.464
59560SOL    HW180577  11.197   9.453  10.546
59560SOL    HW280578  11.275   9.430  10.418
59561SOL     OW80579  11.552  11.507  11.701
59561SOL    HW180580  11.577  11.486  11.610
59561SOL    HW280581  11.458  11.521  11.697
59562SOL     OW80582   4.820  13.110   2.334
59562SOL    HW180583   4.803  13.141   2.245
59562SOL    HW280584   4.779  13.024   2.337
59563SOL     OW80585   6.942   5.870   0.814
59563SOL    HW180586   7.030   5.906   0.819
59563SOL    HW280587   6.894   5.930   0.757
59564SOL     OW80588  10.111  10.512   1.301
59564SOL    HW180589  10.105  10.518   1.397
59564SOL    HW280590  10.063  10.432   1.279
59565SOL     OW80591  14.336  10.021   7.571
59565SOL    HW180592  14.373   9.987   7.489
59565SOL    HW280593  14.320  10.114   7.553
59566SOL     OW80594   9.712   9.580   7.086
59566SOL    HW180595   9.679   9.670   7.080
59566SOL    HW280596   9.752   9.575   7.173
59567SOL     OW80597   6.239   6.549   4.484
59567SOL    HW180598   6.248   6.594   4.568
59567SOL    HW280599   6.294   6.471   4.493
59568SOL     OW80600   1.866   4.107   4.920
59568SOL    HW180601   1.959   4.083   4.918
59568SOL    HW280602   1.836   4.094   4.830
59569SOL     OW80603  11.409  11.484   8.710
59569SOL    HW180604  11.462  11.557   8.679
59569SOL    HW280605  11.365  11.518   8.788
59570SOL     OW80606  11.907   8.319   3.638
59570SOL    HW180607  11.981   8.260   3.623
59570SOL    HW280608  11.840   8.263   3.678
59571SOL     OW80609   0.092  13.082  11.101
59571SOL    HW180610   0.113  13.016  11.168
59571SOL    HW280611   0.131  13.048  11.021
59572SOL     OW80612  12.012  13.409  11.446
59572SOL    HW180613  11.964  13.335  11.411
59572SOL    HW280614  12.011  13.475  11.376
59573SOL     OW80615   0.065   4.578   1.051
59573SOL    HW180616   0.013   4.659   1.053
59573SOL    HW280617   0.155   4.607   1.067
59574SOL     OW80618  13.433   8.090   7.165
59574SOL    HW180619  13.477   8.038   7.231
59574SOL    HW280620  13.488   8.082   7.087
59575SOL     OW80621   8.107   0.739   5.678
59575SOL    HW180622   8.126   0.651   5.711
59575SOL    HW280623   8.118   0.733   5.584
59576SOL     OW80624  11.840  12.613   3.933
59576SOL    HW180625  11.748  12.632   3.915
59576SOL    HW280626  11.855  12.647   4.021
59577SOL     OW80627   2.748  12.679  11.353
59577SOL    HW180628   2.654  12.671  11.342
59577SOL    HW280629   2.778  12.725  11.274
59578SOL     OW80630  10.003  11.693  12.741
59578SOL    HW180631  10.047  11.723  12.821
59578SOL    HW280632   9.916  11.666  12.771
59579SOL     OW80633  11.952   0.643   7.980
59579SOL    HW180634  11.981   0.581   8.047
59579SOL    HW280635  11.942   0.726   8.028
59580SOL     OW80636   7.028   8.630   6.623
59580SOL    HW180637   7.032   8.698   6.690
59580SOL    HW280638   6.986   8.555   6.667
59581SOL     OW80639   0.248   0.028   0.052
59581SOL    HW180640   0.314   0.025   0.120
59581SOL    HW280641   0.244  14.810   0.019
59582SOL     OW80642  14.188  14.490   6.206
59582SOL    HW180643  14.136  14.541   6.145
59582SOL    HW280644  14.169  14.527   6.292
59583SOL     OW80645   7.151  14.172  14.203
59583SOL    HW180646   7.101  14.173  14.122
59583SOL    HW280647   7.159  14.264  14.228
59584SOL     OW80648   9.573  14.759   0.297
59584SOL    HW180649   9.579  14.670   0.333
59584SOL    HW280650   9.602  14.815   0.369
59585SOL     OW80651  13.829   3.283  11.139
59585SOL    HW180652  13.828   3.203  11.086
59585SOL    HW280653  13.900   3.336  11.102
59586SOL     OW80654   7.376   5.767  14.520
59586SOL    HW180655   7.407   5.714  14.447
59586SOL    HW280656   7.456   5.797  14.563
59587SOL     OW80657   8.048  13.169   3.153
59587SOL    HW180658   7.983  13.235   3.129
59587SOL    HW280659   8.082  13.138   3.069
59588SOL     OW80660   3.497  12.543  10.547
59588SOL    HW180661   3.533  12.626  10.581
59588SOL    HW280662   3.558  12.477  10.579
59589SOL     OW80663   9.553   0.509   1.676
59589SOL    HW180664   9.620   0.450   1.641
59589SOL    HW280665   9.527   0.470   1.759
59590SOL     OW80666  13.357   1.997   5.252
59590SOL    HW180667  13.408   1.921   5.224
59590SOL    HW280668  13.422   2.062   5.279
59591SOL     OW80669   1.577   7.548   3.299
59591SOL    HW180670   1.567   7.518   3.389
59591SOL    HW280671   1.672   7.556   3.287
59592SOL     OW80672  12.966   8.566   1.715
59592SOL    HW180673  12.919   8.499   1.765
59592SOL    HW280674  13.014   8.517   1.648
59593SOL     OW80675  11.930   9.554   7.497
59593SOL    HW180676  11.918   9.603   7.416
59593SOL    HW280677  11.841   9.533   7.525
59594SOL     OW80678   0.214  10.506   3.662
59594SOL    HW180679   0.195  10.536   3.751
59594SOL    HW280680   0.186  10.414   3.661
59595SOL     OW80681   7.401  11.388   5.247
59595SOL    HW180682   7.496  11.394   5.254
59595SOL    HW280683   7.380  11.298   5.272
59596SOL     OW80684   4.672   6.668   1.206
59596SOL    HW180685   4.756   6.644   1.166
59596SOL    HW280686   4.637   6.736   1.149
59597SOL     OW80687   3.891   2.045   7.504
59597SOL    HW180688   3.937   2.037   7.421
59597SOL    HW280689   3.954   2.015   7.569
59598SOL     OW80690   1.694   6.853   0.890
59598SOL    HW180691   1.784   6.820   0.889
59598SOL    HW280692   1.703   6.947   0.907
59599SOL     OW80693  14.805  13.293   0.985
59599SOL    HW180694  14.790  13.364   0.923
59599SOL    HW280695  14.736  13.230   0.967
59600SOL     OW80696   6.651   2.626   3.991
59600SOL    HW180697   6.670   2.717   4.017
59600SOL    HW280698   6.720   2.605   3.928
59601SOL     OW80699   9.511   4.027  11.035
59601SOL    HW180700   9.477   4.115  11.049
59601SOL    HW280701   9.435   3.977  11.003
59602SOL     OW80702   8.052  11.916   5.637
59602SOL    HW180703   8.030  11.908   5.544
59602SOL    HW280704   7.981  11.969   5.674
59603SOL     OW80705   5.886   2.685   2.618
59603SOL    HW180706   5.847   2.770   2.599
59603SOL    HW280707   5.899   2.686   2.713
59604SOL     OW80708   3.499   9.711   8.117
59604SOL    HW180709   3.552   9.639   8.152
59604SOL    HW280710   3.526   9.719   8.026
59605SOL     OW80711  10.285  11.942   6.027
59605SOL    HW180712  10.357  11.881   6.044
59605SOL    HW280713  10.261  11.927   5.936
59606SOL     OW80714   0.616  10.901  11.902
59606SOL    HW180715   0.581  10.978  11.945
59606SOL    HW280716   0.697  10.881  11.948
59607SOL     OW80717   5.124   7.869   9.289
59607SOL    HW180718   5.091   7.781   9.305
59607SOL    HW280719   5.156   7.898   9.375
59608SOL     OW80720   9.439   3.149   3.234
59608SOL    HW180721   9.498   3.119   3.302
59608SOL    HW280722   9.452   3.244   3.231
59609SOL     OW80723   2.272  13.609   0.004
59609SOL    HW180724   2.347  13.586   0.059
59609SOL    HW280725   2.206  13.642   0.064
59610SOL     OW80726   7.981  12.869   1.574
59610SOL    HW180727   7.963  12.848   1.482
59610SOL    HW280728   8.076  12.862   1.583
59611SOL     OW80729  12.781  10.145   7.748
59611SOL    HW180730  12.745  10.122   7.662
59611SOL    HW280731  12.773  10.241   7.752
59612SOL     OW80732  14.175  10.418  12.129
59612SOL    HW180733  14.180  10.400  12.222
59612SOL    HW280734  14.248  10.369  12.091
59613SOL     OW80735   7.010  13.776   2.020
59613SOL    HW180736   7.063  13.790   1.942
59613SOL    HW280737   7.052  13.828   2.089
59614SOL     OW80738  13.746   0.676  10.312
59614SOL    HW180739  13.771   0.638  10.397
59614SOL    HW280740  13.743   0.770  10.328
59615SOL     OW80741  14.314   6.704   0.484
59615SOL    HW180742  14.297   6.793   0.514
59615SOL    HW280743  14.398   6.709   0.439
59616SOL     OW80744   7.150   8.554   4.390
59616SOL    HW180745   7.163   8.518   4.477
59616SOL    HW280746   7.234   8.596   4.369
59617SOL     OW80747  14.731   0.760   6.271
59617SOL    HW180748  14.774   0.845   6.280
59617SOL    HW280749  14.688   0.765   6.186
59618SOL     OW80750   8.647   0.653   1.916
59618SOL    HW180751   8.612   0.713   1.982
59618SOL    HW280752   8.633   0.698   1.833
59619SOL     OW80753   7.927  11.189   9.734
59619SOL    HW180754   7.863  11.183   9.663
59619SOL    HW280755   7.988  11.258   9.706
59620SOL     OW80756   0.506   7.324   5.086
59620SOL    HW180757   0.438   7.261   5.062
59620SOL    HW280758   0.545   7.289   5.165
59621SOL     OW80759  11.158   3.461  12.125
59621SOL    HW180760  11.218   3.457  12.051
59621SOL    HW280761  11.161   3.373  12.163
59622SOL     OW80762  10.026  13.368   5.658
59622SOL    HW180763  10.058  13.397   5.743
59622SOL    HW280764  10.008  13.274   5.669
59623SOL     OW80765   3.135   1.074  12.186
59623SOL    HW180766   3.158   1.067  12.279
59623SOL    HW280767   3.054   1.125  12.186
59624SOL     OW80768   5.001   8.713  11.558
59624SOL    HW180769   5.011   8.652  11.486
59624SOL    HW280770   5.050   8.791  11.531
59625SOL     OW80771   4.241  14.375   5.454
59625SOL    HW180772   4.310  14.379   5.520
59625SOL    HW280773   4.161  14.400   5.501
59626SOL     OW80774  13.479  14.565   9.080
59626SOL    HW180775  13.515  14.635   9.134
59626SOL    HW280776  13.517  14.581   8.993
59627SOL     OW80777   9.535   1.567   6.161
59627SOL    HW180778   9.440   1.553   6.165
59627SOL    HW280779   9.571   1.479   6.152
59628SOL     OW80780  12.295   1.153  13.366
59628SOL    HW180781  12.290   1.231  13.421
59628SOL    HW280782  12.305   1.081  13.428
59629SOL     OW80783   2.384   2.044   5.881
59629SOL    HW180784   2.467   2.028   5.836
59629SOL    HW280785   2.407   2.106   5.950
59630SOL     OW80786   0.753  13.626   6.548
59630SOL    HW180787   0.828  13.581   6.508
59630SOL    HW280788   0.734  13.698   6.488
59631SOL     OW80789   0.465  14.013   6.207
59631SOL    HW180790   0.452  14.024   6.302
59631SOL    HW280791   0.446  14.099   6.171
59632SOL     OW80792  12.041  11.630   5.951
59632SOL    HW180793  12.113  11.609   6.010
59632SOL    HW280794  11.990  11.549   5.946
59633SOL     OW80795   9.696   7.162   4.634
59633SOL    HW180796   9.724   7.076   4.603
59633SOL    HW280797   9.754   7.224   4.591
59634SOL     OW80798   4.704  10.902   0.501
59634SOL    HW180799   4.644  10.930   0.432
59634SOL    HW280800   4.697  10.807   0.502
59635SOL     OW80801   2.435  13.274   2.041
59635SOL    HW180802   2.500  13.323   1.991
59635SOL    HW280803   2.362  13.334   2.052
59636SOL     OW80804  10.759   1.644  11.233
59636SOL    HW180805  10.717   1.655  11.147
59636SOL    HW280806  10.699   1.688  11.294
59637SOL     OW80807   5.104   8.665   3.787
59637SOL    HW180808   5.089   8.635   3.698
59637SOL    HW280809   5.195   8.693   3.788
59638SOL     OW80810  13.141   5.405   2.805
59638SOL    HW180811  13.062   5.352   2.816
59638SOL    HW280812  13.149   5.454   2.887
59639SOL     OW80813   0.378  10.022   1.479
59639SOL    HW180814   0.298   9.974   1.504
59639SOL    HW280815   0.408  10.063   1.560
59640SOL     OW80816   9.524   8.633   7.120
59640SOL    HW180817   9.535   8.547   7.161
59640SOL    HW280818   9.453   8.674   7.171
59641SOL     OW80819  11.506  11.923   7.643
59641SOL    HW180820  11.599  11.942   7.635
59641SOL    HW280821  11.479  11.898   7.554
59642SOL     OW80822   6.984   4.371  11.421
59642SOL    HW180823   6.935   4.452  11.409
59642SOL    HW280824   7.065   4.397  11.464
59643SOL     OW80825   2.481   9.311  10.999
59643SOL    HW180826   2.516   9.224  11.020
59643SOL    HW280827   2.422   9.331  11.072
59644SOL     OW80828  11.244   9.298   0.552
59644SOL    HW180829  11.218   9.213   0.516
59644SOL    HW280830  11.161   9.346   0.559
59645SOL     OW80831   5.382  12.023   7.286
59645SOL    HW180832   5.409  12.093   7.346
59645SOL    HW280833   5.386  12.063   7.199
59646SOL     OW80834   8.947   1.072   3.708
59646SOL    HW180835   9.004   1.104   3.638
59646SOL    HW280836   8.860   1.069   3.668
59647SOL     OW80837   1.155   5.761  11.074
59647SOL    HW180838   1.140   5.715  11.157
59647SOL    HW280839   1.247   5.788  11.079
59648SOL     OW80840   1.003   0.007  14.515
59648SOL    HW180841   1.065  14.855  14.446
59648SOL    HW280842   0.995   0.102  14.507
59649SOL     OW80843  11.745   2.581   5.082
59649SOL    HW180844  11.688   2.593   5.006
59649SOL    HW280845  11.738   2.488   5.103
59650SOL     OW80846   6.998  11.168   1.195
59650SOL    HW180847   6.996  11.194   1.287
59650SOL    HW280848   7.044  11.084   1.195
59651SOL     OW80849  14.321   0.154   3.926
59651SOL    HW180850  14.357   0.152   4.015
59651SOL    HW280851  14.397   0.139   3.870
59652SOL     OW80852   4.187  11.550   1.247
59652SOL    HW180853   4.135  11.602   1.308
59652SOL    HW280854   4.212  11.472   1.297
59653SOL     OW80855   8.501   4.585  12.174
59653SOL    HW180856   8.510   4.649  12.245
59653SOL    HW280857   8.560   4.514  12.199
59654SOL     OW80858   0.816  13.810  11.530
59654SOL    HW180859   0.829  13.834  11.622
59654SOL    HW280860   0.737  13.757  11.530
59655SOL     OW80861   6.654   7.796   2.682
59655SOL    HW180862   6.716   7.724   2.674
59655SOL    HW280863   6.705   7.874   2.659
59656SOL     OW80864   8.699   8.387  11.287
59656SOL    HW180865   8.688   8.379  11.193
59656SOL    HW280866   8.782   8.435  11.298
59657SOL     OW80867   9.231   4.629   5.995
59657SOL    HW180868   9.244   4.706   6.050
59657SOL    HW280869   9.253   4.555   6.052
59658SOL     OW80870  12.037   0.505   1.910
59658SOL    HW180871  12.005   0.504   2.000
59658SOL    HW280872  11.965   0.466   1.859
59659SOL     OW80873  12.732   7.059   4.796
59659SOL    HW180874  12.645   7.096   4.781
59659SOL    HW280875  12.718   6.965   4.799
59660SOL     OW80876  12.176   3.097  14.289
59660SOL    HW180877  12.116   3.152  14.239
59660SOL    HW280878  12.226   3.049  14.223
59661SOL     OW80879   1.280  10.017   4.217
59661SOL    HW180880   1.194   9.981   4.238
59661SOL    HW280881   1.341   9.945   4.231
59662SOL     OW80882   4.818   5.041   6.375
59662SOL    HW180883   4.808   5.063   6.282
59662SOL    HW280884   4.819   4.946   6.376
59663SOL     OW80885   0.692   1.511   6.938
59663SOL    HW180886   0.696   1.586   6.997
59663SOL    HW280887   0.783   1.495   6.913
59664SOL     OW80888   3.133   3.200  13.119
59664SOL    HW180889   3.213   3.240  13.153
59664SOL    HW280890   3.072   3.204  13.192
59665SOL     OW80891  12.745   4.267   8.612
59665SOL    HW180892  12.702   4.218   8.683
59665SOL    HW280893  12.814   4.208   8.581
59666SOL     OW80894   9.540  11.543  12.712
59666SOL    HW180895   9.610  11.532  12.648
59666SOL    HW280896   9.461  11.515  12.666
59667SOL     OW80897  10.890  13.770   0.318
59667SOL    HW180898  10.826  13.716   0.364
59667SOL    HW280899  10.837  13.836   0.272
59668SOL     OW80900   9.264  10.039   7.610
59668SOL    HW180901   9.225   9.952   7.612
59668SOL    HW280902   9.195  10.095   7.576
59669SOL     OW80903  10.976   4.599  11.406
59669SOL    HW180904  10.902   4.636  11.358
59669SOL    HW280905  10.974   4.642  11.491
59670SOL     OW80906   8.338  12.376   6.198
59670SOL    HW180907   8.332  12.356   6.105
59670SOL    HW280908   8.252  12.356   6.233
59671SOL     OW80909  14.622  13.238  11.852
59671SOL    HW180910  14.581  13.153  11.835
59671SOL    HW280911  14.633  13.277  11.766
59672SOL     OW80912   0.740   2.858   2.209
59672SOL    HW180913   0.647   2.837   2.211
59672SOL    HW280914   0.753   2.902   2.125
59673SOL     OW80915   2.397   7.424   4.210
59673SOL    HW180916   2.413   7.443   4.117
59673SOL    HW280917   2.483   7.408   4.247
59674SOL     OW80918   4.234   5.057   6.115
59674SOL    HW180919   4.199   4.981   6.068
59674SOL    HW280920   4.230   5.032   6.207
59675SOL     OW80921  10.950   2.045   2.886
59675SOL    HW180922  11.026   1.993   2.860
59675SOL    HW280923  10.975   2.084   2.969
59676SOL     OW80924   6.493  14.323  12.584
59676SOL    HW180925   6.434  14.391  12.616
59676SOL    HW280926   6.527  14.358  12.502
59677SOL     OW80927   4.185  14.287   4.609
59677SOL    HW180928   4.186  14.236   4.528
59677SOL    HW280929   4.208  14.225   4.677
59678SOL     OW80930   8.474   3.077  14.172
59678SOL    HW180931   8.526   3.018  14.118
59678SOL    HW280932   8.507   3.064  14.261
59679SOL     OW80933  12.050   9.129   3.627
59679SOL    HW180934  12.042   9.214   3.585
59679SOL    HW280935  12.108   9.145   3.702
59680SOL     OW80936   1.906   9.577   0.358
59680SOL    HW180937   1.882   9.611   0.444
59680SOL    HW280938   1.847   9.502   0.344
59681SOL     OW80939   1.870  14.747  11.445
59681SOL    HW180940   1.900  14.830  11.481
59681SOL    HW280941   1.825  14.770  11.364
59682SOL     OW80942   2.528   5.457   0.746
59682SOL    HW180943   2.575   5.493   0.671
59682SOL    HW280944   2.447   5.509   0.751
59683SOL     OW80945  13.599   9.701   6.431
59683SOL    HW180946  13.513   9.661   6.422
59683SOL    HW280947  13.610   9.754   6.352
59684SOL     OW80948   3.855   3.351  13.398
59684SOL    HW180949   3.947   3.327  13.411
59684SOL    HW280950   3.808   3.302  13.465
59685SOL     OW80951  14.212   1.556   2.078
59685SOL    HW180952  14.181   1.647   2.071
59685SOL    HW280953  14.266   1.555   2.156
59686SOL     OW80954   2.122   2.091   0.966
59686SOL    HW180955   2.136   2.019   1.028
59686SOL    HW280956   2.081   2.050   0.890
59687SOL     OW80957  13.529   7.872   8.838
59687SOL    HW180958  13.473   7.922   8.778
59687SOL    HW280959  13.617   7.883   8.802
59688SOL     OW80960   3.093   9.934  12.829
59688SOL    HW180961   3.100  10.027  12.808
59688SOL    HW280962   3.171   9.915  12.881
59689SOL     OW80963  11.225   3.084   5.584
59689SOL    HW180964  11.257   3.171   5.609
59689SOL    HW280965  11.210   3.090   5.490
59690SOL     OW80966   3.208  13.568   7.715
59690SOL    HW180967   3.126  13.518   7.708
59690SOL    HW280968   3.274  13.502   7.736
59691SOL     OW80969   8.291   8.330  10.560
59691SOL    HW180970   8.246   8.338  10.644
59691SOL    HW280971   8.302   8.420  10.529
59692SOL     OW80972  10.410   8.791   5.766
59692SOL    HW180973  10.495   8.784   5.722
59692SOL    HW280974  10.414   8.726   5.836
59693SOL     OW80975  12.080   6.253   2.779
59693SOL    HW180976  12.013   6.194   2.814
59693SOL    HW280977  12.089   6.322   2.844
59694SOL     OW80978  11.576  10.318  13.037
59694SOL    HW180979  11.663  10.357  13.030
59694SOL    HW280980  11.591  10.231  13.073
59695SOL     OW80981  12.917   4.237   5.398
59695SOL    HW180982  12.967   4.308   5.438
59695SOL    HW280983  12.895   4.269   5.311
59696SOL     OW80984  14.100  11.628   8.205
59696SOL    HW180985  14.115  11.686   8.131
59696SOL    HW280986  14.157  11.552   8.188
59697SOL     OW80987   0.830   9.292   9.464
59697SOL    HW180988   0.871   9.328   9.543
59697SOL    HW280989   0.870   9.341   9.392
59698SOL     OW80990   3.935  10.560   7.258
59698SOL    HW180991   3.993  10.588   7.186
59698SOL    HW280992   3.857  10.614   7.248
59699SOL     OW80993   8.832  10.581  10.108
59699SOL    HW180994   8.752  10.530  10.119
59699SOL    HW280995   8.808  10.670  10.132
59700SOL     OW80996  11.010  14.015  12.387
59700SOL    HW180997  10.989  14.097  12.431
59700SOL    HW280998  10.964  13.948  12.437
59701SOL     OW80999   9.760  12.536  10.469
59701SOL    HW181000   9.764  12.461  10.529
59701SOL    HW281001   9.830  12.594  10.499
59702SOL     OW81002   3.808   4.424  10.799
59702SOL    HW181003   3.732   4.424  10.857
59702SOL    HW281004   3.839   4.515  10.800
59703SOL     OW81005   0.663   4.128  13.600
59703SOL    HW181006   0.630   4.213  13.627
59703SOL    HW281007   0.589   4.085  13.557
59704SOL     OW81008   3.141   5.074  13.741
59704SOL    HW181009   3.054   5.089  13.778
59704SOL    HW281010   3.187   5.157  13.752
59705SOL     OW81011   8.670   2.072   7.665
59705SOL    HW181012   8.605   2.140   7.681
59705SOL    HW281013   8.680   2.070   7.570
59706SOL     OW81014   0.168  14.830   3.121
59706SOL    HW181015   0.100   0.009   3.166
59706SOL    HW281016   0.244  14.835   3.180
59707SOL     OW81017   5.366  12.927  12.525
59707SOL    HW181018   5.362  12.839  12.560
59707SOL    HW281019   5.453  12.934  12.486
59708SOL     OW81020  13.708   4.095   8.553
59708SOL    HW181021  13.691   4.035   8.481
59708SOL    HW281022  13.802   4.084   8.571
59709SOL     OW81023   6.750   7.563   9.390
59709SOL    HW181024   6.765   7.658   9.386
59709SOL    HW281025   6.834   7.524   9.367
59710SOL     OW81026   5.456   3.544   5.062
59710SOL    HW181027   5.363   3.567   5.061
59710SOL    HW281028   5.490   3.579   4.980
59711SOL     OW81029   7.129  13.343   9.063
59711SOL    HW181030   7.107  13.341   9.156
59711SOL    HW281031   7.045  13.345   9.018
59712SOL     OW81032   8.092   8.504   7.912
59712SOL    HW181033   8.002   8.536   7.901
59712SOL    HW281034   8.132   8.567   7.972
59713SOL     OW81035   2.461  14.597  10.631
59713SOL    HW181036   2.383  14.543  10.639
59713SOL    HW281037   2.533  14.534  10.628
59714SOL     OW81038   5.560   1.333   7.813
59714SOL    HW181039   5.590   1.339   7.722
59714SOL    HW281040   5.540   1.423   7.838
59715SOL     OW81041   2.240   5.164   8.286
59715SOL    HW181042   2.229   5.172   8.381
59715SOL    HW281043   2.279   5.078   8.273
59716SOL     OW81044   5.692  14.212   3.349
59716SOL    HW181045   5.700  14.214   3.254
59716SOL    HW281046   5.655  14.297   3.372
59717SOL     OW81047   3.700   7.290  10.848
59717SOL    HW181048   3.757   7.249  10.912
59717SOL    HW281049   3.691   7.224  10.779
59718SOL     OW81050  12.003   6.188   9.317
59718SOL    HW181051  11.915   6.167   9.348
59718SOL    HW281052  12.049   6.218   9.395
59719SOL     OW81053  10.845  14.419   6.690
59719SOL    HW181054  10.889  14.468   6.621
59719SOL    HW281055  10.910  14.413   6.760
59720SOL     OW81056   1.328   0.505   3.969
59720SOL    HW181057   1.356   0.552   4.048
59720SOL    HW281058   1.404   0.511   3.910
59721SOL     OW81059   1.781  14.827  13.369
59721SOL    HW181060   1.801  14.795  13.281
59721SOL    HW281061   1.790   0.050  13.362
59722SOL     OW81062  13.451   7.961  12.818
59722SOL    HW181063  13.442   7.871  12.851
59722SOL    HW281064  13.543   7.967  12.790
59723SOL     OW81065  12.932  11.640   6.864
59723SOL    HW181066  12.878  11.690   6.925
59723SOL    HW281067  12.871  11.612   6.796
59724SOL     OW81068  10.760   1.258   0.420
59724SOL    HW181069  10.747   1.260   0.515
59724SOL    HW281070  10.672   1.242   0.385
59725SOL     OW81071   3.850  11.068   7.764
59725SOL    HW181072   3.865  11.117   7.684
59725SOL    HW281073   3.758  11.040   7.758
59726SOL     OW81074  13.363  10.379   5.561
59726SOL    HW181075  13.278  10.352   5.596
59726SOL    HW281076  13.426  10.324   5.607
59727SOL     OW81077   9.157   9.863  12.524
59727SOL    HW181078   9.080   9.869  12.580
59727SOL    HW281079   9.126   9.820  12.445
59728SOL     OW81080   0.186  11.310  10.891
59728SOL    HW181081   0.148  11.392  10.859
59728SOL    HW281082   0.281  11.324  10.886
59729SOL     OW81083  14.509   6.511   1.909
59729SOL    HW181084  14.443   6.568   1.950
59729SOL    HW281085  14.523   6.549   1.823
59730SOL     OW81086   6.073   2.079  14.794
59730SOL    HW181087   5.990   2.124  14.779
59730SOL    HW281088   6.048   1.989  14.817
59731SOL     OW81089  13.239   6.958   1.619
59731SOL    HW181090  13.298   7.018   1.664
59731SOL    HW281091  13.155   6.968   1.664
59732SOL     OW81092   3.030   1.988   3.320
59732SOL    HW181093   3.003   1.908   3.366
59732SOL    HW281094   2.994   1.979   3.232
59733SOL     OW81095   1.324   5.449   6.620
59733SOL    HW181096   1.301   5.503   6.545
59733SOL    HW281097   1.240   5.431   6.663
59734SOL     OW81098   0.416   8.146  14.815
59734SOL    HW181099   0.488   8.106  14.766
59734SOL    HW281100   0.446   8.146   0.034
59735SOL     OW81101   6.915   4.138   1.608
59735SOL    HW181102   6.896   4.052   1.644
59735SOL    HW281103   6.935   4.193   1.684
59736SOL     OW81104   0.727  12.887   7.673
59736SOL    HW181105   0.815  12.923   7.685
59736SOL    HW281106   0.685  12.949   7.613
59737SOL     OW81107  14.739   2.994  12.105
59737SOL    HW181108  14.777   3.077  12.078
59737SOL    HW281109  14.810   2.948  12.149
59738SOL     OW81110   1.143   6.738  10.689
59738SOL    HW181111   1.051   6.746  10.664
59738SOL    HW281112   1.174   6.660  10.643
59739SOL     OW81113   1.803   4.316   7.404
59739SOL    HW181114   1.820   4.223   7.416
59739SOL    HW281115   1.791   4.326   7.309
59740SOL     OW81116   6.045   9.333   1.752
59740SOL    HW181117   6.009   9.328   1.841
59740SOL    HW281118   6.016   9.419   1.720
59741SOL     OW81119  11.141   2.019  11.223
59741SOL    HW181120  11.093   1.938  11.241
59741SOL    HW281121  11.233   1.996  11.236
59742SOL     OW81122  10.398   8.685   9.966
59742SOL    HW181123  10.332   8.744  10.003
59742SOL    HW281124  10.471   8.689  10.029
59743SOL     OW81125  11.655  11.628   3.025
59743SOL    HW181126  11.701  11.624   3.109
59743SOL    HW281127  11.673  11.716   2.992
59744SOL     OW81128  10.496  10.827   9.659
59744SOL    HW181129  10.537  10.913   9.658
59744SOL    HW281130  10.534  10.781   9.584
59745SOL     OW81131   9.016   6.648   9.663
59745SOL    HW181132   8.977   6.676   9.581
59745SOL    HW281133   8.965   6.693   9.730
59746SOL     OW81134  10.682   5.894   7.486
59746SOL    HW181135  10.653   5.814   7.530
59746SOL    HW281136  10.746   5.932   7.546
59747SOL     OW81137   1.777   7.952   1.627
59747SOL    HW181138   1.871   7.964   1.634
59747SOL    HW281139   1.742   7.996   1.705
59748SOL     OW81140  12.858   5.547  12.738
59748SOL    HW181141  12.868   5.509  12.826
59748SOL    HW281142  12.808   5.627  12.752
59749SOL     OW81143   4.766  13.176   2.042
59749SOL    HW181144   4.716  13.226   2.107
59749SOL    HW281145   4.847  13.225   2.031
59750SOL     OW81146   1.061   9.824   1.837
59750SOL    HW181147   1.077   9.738   1.798
59750SOL    HW281148   1.143   9.872   1.822
59751SOL     OW81149  14.670  10.642   7.652
59751SOL    HW181150  14.589  10.669   7.609
59751SOL    HW281151  14.690  10.556   7.615
59752SOL     OW81152  11.118  13.011   5.646
59752SOL    HW181153  11.147  13.038   5.559
59752SOL    HW281154  11.199  12.997   5.695
59753SOL     OW81155   9.221  10.038  13.357
59753SOL    HW181156   9.181  10.035  13.270
59753SOL    HW281157   9.195   9.956  13.399
59754SOL     OW81158   9.924   5.361   3.114
59754SOL    HW181159   9.852   5.399   3.163
59754SOL    HW281160   9.990   5.431   3.110
59755SOL     OW81161   5.665   2.288   6.923
59755SOL    HW181162   5.672   2.268   6.830
59755SOL    HW281163   5.666   2.384   6.927
59756SOL     OW81164   9.771  13.864  13.526
59756SOL    HW181165   9.795  13.851  13.434
59756SOL    HW281166   9.786  13.958  13.542
59757SOL     OW81167   0.312   2.085  14.345
59757SOL    HW181168   0.376   2.101  14.276
59757SOL    HW281169   0.230   2.072  14.299
59758SOL     OW81170  10.588   3.229   2.269
59758SOL    HW181171  10.581   3.232   2.173
59758SOL    HW281172  10.567   3.319   2.296
59759SOL     OW81173  11.255   1.698   1.178
59759SOL    HW181174  11.173   1.683   1.130
59759SOL    HW281175  11.226   1.716   1.268
59760SOL     OW81176  11.636  13.626  10.387
59760SOL    HW181177  11.695  13.681  10.440
59760SOL    HW281178  11.648  13.538  10.422
59761SOL     OW81179   6.589   2.935   9.838
59761SOL    HW181180   6.635   2.928   9.754
59761SOL    HW281181   6.651   2.979   9.896
59762SOL     OW81182   8.855   6.538   8.024
59762SOL    HW181183   8.950   6.524   8.027
59762SOL    HW281184   8.822   6.499   8.105
59763SOL     OW81185   4.130  14.146  11.039
59763SOL    HW181186   4.118  14.143  11.134
59763SOL    HW281187   4.084  14.225  11.011
59764SOL     OW81188  11.470  14.014  12.594
59764SOL    HW181189  11.563  13.992  12.597
59764SOL    HW281190  11.466  14.097  12.546
59765SOL     OW81191   6.345  12.875   2.941
59765SOL    HW181192   6.398  12.831   3.008
59765SOL    HW281193   6.396  12.953   2.918
59766SOL     OW81194   5.198   9.835  12.739
59766SOL    HW181195   5.112   9.809  12.772
59766SOL    HW281196   5.253   9.758  12.753
59767SOL     OW81197   1.086  11.549  11.342
59767SOL    HW181198   1.071  11.591  11.257
59767SOL    HW281199   1.181  11.538  11.346
59768SOL     OW81200   8.682   8.286  12.806
59768SOL    HW181201   8.743   8.360  12.807
59768SOL    HW281202   8.678   8.259  12.715
59769SOL     OW81203   8.966   2.253   0.836
59769SOL    HW181204   9.058   2.250   0.812
59769SOL    HW281205   8.963   2.311   0.912
59770SOL     OW81206  12.244  11.953   0.660
59770SOL    HW181207  12.267  11.875   0.610
59770SOL    HW281208  12.323  11.973   0.710
59771SOL     OW81209   3.491  14.331   6.534
59771SOL    HW181210   3.451  14.274   6.468
59771SOL    HW281211   3.584  14.333   6.511
59772SOL     OW81212   5.754   8.031   1.453
59772SOL    HW181213   5.742   8.110   1.399
59772SOL    HW281214   5.667   8.011   1.486
59773SOL     OW81215   8.939  10.842   7.203
59773SOL    HW181216   8.992  10.893   7.143
59773SOL    HW281217   8.859  10.823   7.154
59774SOL     OW81218   5.154  10.342   9.871
59774SOL    HW181219   5.245  10.334   9.901
59774SOL    HW281220   5.102  10.312   9.946
59775SOL     OW81221  11.391   1.900   9.053
59775SOL    HW181222  11.420   1.973   8.998
59775SOL    HW281223  11.304   1.879   9.021
59776SOL     OW81224  11.945   0.510  14.359
59776SOL    HW181225  11.917   0.419  14.358
59776SOL    HW281226  11.916   0.544  14.443
59777SOL     OW81227   1.486   8.663   9.769
59777SOL    HW181228   1.501   8.755   9.788
59777SOL    HW281229   1.554   8.617   9.818
59778SOL     OW81230   6.204   2.892   7.071
59778SOL    HW181231   6.238   2.982   7.065
59778SOL    HW281232   6.216   2.856   6.983
59779SOL     OW81233   1.301   5.582   1.967
59779SOL    HW181234   1.290   5.567   2.061
59779SOL    HW281235   1.392   5.611   1.958
59780SOL     OW81236   5.738  13.740  14.783
59780SOL    HW181237   5.731  13.696  14.867
59780SOL    HW281238   5.771  13.827  14.804
59781SOL     OW81239   2.943  10.644   7.981
59781SOL    HW181240   2.966  10.614   7.893
59781SOL    HW281241   2.942  10.564   8.034
59782SOL     OW81242   8.308   3.918  11.896
59782SOL    HW181243   8.389   3.881  11.861
59782SOL    HW281244   8.327   4.012  11.907
59783SOL     OW81245   8.569  14.498   5.147
59783SOL    HW181246   8.557  14.572   5.207
59783SOL    HW281247   8.645  14.523   5.094
59784SOL     OW81248   5.875   9.647   3.278
59784SOL    HW181249   5.842   9.707   3.211
59784SOL    HW281250   5.966   9.672   3.290
59785SOL     OW81251  10.010   2.639  12.180
59785SOL    HW181252  10.080   2.687  12.225
59785SOL    HW281253  10.034   2.547  12.190
59786SOL     OW81254  13.002   1.630  12.126
59786SOL    HW181255  12.936   1.683  12.082
59786SOL    HW281256  13.036   1.686  12.196
59787SOL     OW81257   0.149   2.087   2.533
59787SOL    HW181258   0.065   2.118   2.567
59787SOL    HW281259   0.211   2.105   2.603
59788SOL     OW81260  10.700   9.507   1.100
59788SOL    HW181261  10.623   9.476   1.147
59788SOL    HW281262  10.668   9.529   1.012
59789SOL     OW81263  12.076  14.539   0.949
59789SOL    HW181264  12.141  14.484   0.906
59789SOL    HW281265  12.024  14.479   1.001
59790SOL     OW81266   3.774  12.258   0.862
59790SOL    HW181267   3.756  12.211   0.781
59790SOL    HW281268   3.830  12.199   0.912
59791SOL     OW81269   5.498   4.421   6.670
59791SOL    HW181270   5.591   4.433   6.647
59791SOL    HW281271   5.480   4.330   6.647
59792SOL     OW81272   6.424   6.317   1.971
59792SOL    HW181273   6.513   6.297   1.999
59792SOL    HW281274   6.397   6.392   2.024
59793SOL     OW81275   1.389  14.301   5.875
59793SOL    HW181276   1.384  14.216   5.831
59793SOL    HW281277   1.418  14.280   5.964
59794SOL     OW81278   7.785   0.332  11.583
59794SOL    HW181279   7.818   0.245  11.605
59794SOL    HW281280   7.740   0.361  11.662
59795SOL     OW81281   1.494   6.544   6.757
59795SOL    HW181282   1.516   6.543   6.663
59795SOL    HW281283   1.472   6.635   6.776
59796SOL     OW81284  11.379   6.336  11.016
59796SOL    HW181285  11.433   6.257  11.013
59796SOL    HW281286  11.298   6.308  11.060
59797SOL     OW81287   1.514   2.993  13.222
59797SOL    HW181288   1.579   3.014  13.288
59797SOL    HW281289   1.488   2.902  13.241
59798SOL     OW81290  14.202   1.867   2.606
59798SOL    HW181291  14.208   1.779   2.568
59798SOL    HW281292  14.143   1.914   2.547
59799SOL     OW81293   1.974  12.192   1.205
59799SOL    HW181294   2.010  12.255   1.268
59799SOL    HW281295   1.881  12.188   1.226
59800SOL     OW81296  13.504   4.013  13.237
59800SOL    HW181297  13.499   4.023  13.141
59800SOL    HW281298  13.483   3.921  13.252
59801SOL     OW81299   7.565   9.106   2.585
59801SOL    HW181300   7.500   9.037   2.567
59801SOL    HW281301   7.568   9.157   2.504
59802SOL     OW81302   0.103   8.917   1.958
59802SOL    HW181303   0.125   8.989   1.900
59802SOL    HW281304   0.122   8.838   1.907
59803SOL     OW81305   8.209   0.038  12.037
59803SOL    HW181306   8.287  14.866  12.005
59803SOL    HW281307   8.213   0.125  11.996
59804SOL     OW81308   8.805   3.768  11.086
59804SOL    HW181309   8.794   3.820  11.166
59804SOL    HW281310   8.850   3.827  11.026
59805SOL     OW81311  12.943   4.084   5.793
59805SOL    HW181312  12.874   4.098   5.728
59805SOL    HW281313  12.895   4.072   5.876
59806SOL     OW81314   3.803  13.983   8.366
59806SOL    HW181315   3.890  13.962   8.331
59806SOL    HW281316   3.808  13.958   8.459
59807SOL     OW81317   9.841   8.627   0.195
59807SOL    HW181318   9.850   8.678   0.114
59807SOL    HW281319   9.787   8.682   0.252
59808SOL     OW81320   8.334  14.132   3.936
59808SOL    HW181321   8.385  14.089   3.868
59808SOL    HW281322   8.308  14.061   3.995
59809SOL     OW81323   3.519  12.347   1.859
59809SOL    HW181324   3.471  12.394   1.926
59809SOL    HW281325   3.453  12.297   1.812
59810SOL     OW81326   1.980   7.345   3.229
59810SOL    HW181327   1.941   7.276   3.175
59810SOL    HW281328   1.933   7.339   3.312
59811SOL     OW81329   8.519   2.336  13.282
59811SOL    HW181330   8.445   2.376  13.328
59811SOL    HW281331   8.489   2.326  13.192
59812SOL     OW81332   0.404  10.556   6.548
59812SOL    HW181333   0.330  10.495   6.555
59812SOL    HW281334   0.377  10.632   6.602
59813SOL     OW81335  12.240  10.403  13.204
59813SOL    HW181336  12.193  10.485  13.217
59813SOL    HW281337  12.232  10.385  13.110
59814SOL     OW81338  13.245   3.279  12.074
59814SOL    HW181339  13.169   3.335  12.059
59814SOL    HW281340  13.318   3.326  12.034
59815SOL     OW81341   4.999  13.115  12.827
59815SOL    HW181342   5.045  13.116  12.743
59815SOL    HW281343   5.017  13.029  12.864
59816SOL     OW81344   0.331   0.762  13.634
59816SOL    HW181345   0.249   0.725  13.603
59816SOL    HW281346   0.390   0.757  13.558
59817SOL     OW81347   9.838  13.828   2.450
59817SOL    HW181348   9.836  13.844   2.544
59817SOL    HW281349   9.912  13.769   2.437
59818SOL     OW81350   7.970   8.164   7.627
59818SOL    HW181351   7.985   8.147   7.720
59818SOL    HW281352   7.950   8.077   7.590
59819SOL     OW81353  12.152  10.388   1.000
59819SOL    HW181354  12.068  10.405   1.043
59819SOL    HW281355  12.132  10.393   0.907
59820SOL     OW81356  13.029   3.867   9.828
59820SOL    HW181357  13.100   3.923   9.795
59820SOL    HW281358  13.025   3.888   9.922
59821SOL     OW81359  14.321  11.767  12.223
59821SOL    HW181360  14.317  11.801  12.312
59821SOL    HW281361  14.400  11.806  12.186
59822SOL     OW81362  13.156   4.077   9.312
59822SOL    HW181363  13.077   4.027   9.291
59822SOL    HW281364  13.221   4.011   9.335
59823SOL     OW81365   0.553   5.816   8.170
59823SOL    HW181366   0.500   5.797   8.093
59823SOL    HW281367   0.572   5.910   8.164
59824SOL     OW81368  11.056  13.212  13.252
59824SOL    HW181369  10.968  13.244  13.230
59824SOL    HW281370  11.086  13.168  13.173
59825SOL     OW81371   9.926   5.194  13.846
59825SOL    HW181372  10.009   5.164  13.809
59825SOL    HW281373   9.894   5.119  13.898
59826SOL     OW81374   0.292   2.807   0.999
59826SOL    HW181375   0.348   2.782   1.073
59826SOL    HW281376   0.218   2.747   1.003
59827SOL     OW81377  13.951   9.850  11.768
59827SOL    HW181378  13.863   9.817  11.789
59827SOL    HW281379  13.979   9.896  11.847
59828SOL     OW81380  10.570  11.809   8.915
59828SOL    HW181381  10.567  11.878   8.849
59828SOL    HW281382  10.486  11.817   8.962
59829SOL     OW81383   1.603   7.633   2.025
59829SOL    HW181384   1.625   7.662   1.936
59829SOL    HW281385   1.579   7.713   2.071
59830SOL     OW81386   7.261   6.845  10.942
59830SOL    HW181387   7.322   6.919  10.942
59830SOL    HW281388   7.301   6.782  11.002
59831SOL     OW81389   7.234   9.689   1.305
59831SOL    HW181390   7.324   9.655   1.301
59831SOL    HW281391   7.183   9.626   1.254
59832SOL     OW81392  14.243   4.178   9.354
59832SOL    HW181393  14.313   4.183   9.420
59832SOL    HW281394  14.209   4.089   9.363
59833SOL     OW81395  14.243  14.583  13.131
59833SOL    HW181396  14.165  14.635  13.150
59833SOL    HW281397  14.267  14.542  13.214
59834SOL     OW81398   5.467   7.579  12.109
59834SOL    HW181399   5.441   7.621  12.027
59834SOL    HW281400   5.443   7.487  12.098
59835SOL     OW81401  13.816   3.295   7.656
59835SOL    HW181402  13.724   3.295   7.682
59835SOL    HW281403  13.822   3.227   7.589
59836SOL     OW81404   2.468   0.347   1.254
59836SOL    HW181405   2.395   0.288   1.272
59836SOL    HW281406   2.442   0.394   1.175
59837SOL     OW81407  10.409   8.935   4.289
59837SOL    HW181408  10.483   8.884   4.257
59837SOL    HW281409  10.439   9.026   4.287
59838SOL     OW81410   9.614   0.869   1.964
59838SOL    HW181411   9.655   0.783   1.950
59838SOL    HW281412   9.528   0.848   2.001
59839SOL     OW81413   4.942   3.238   4.806
59839SOL    HW181414   4.984   3.243   4.892
59839SOL    HW281415   4.972   3.317   4.760
59840SOL     OW81416  11.149   1.009   3.219
59840SOL    HW181417  11.184   1.009   3.130
59840SOL    HW281418  11.060   1.042   3.211
59841SOL     OW81419   0.174   5.831   8.780
59841SOL    HW181420   0.221   5.911   8.802
59841SOL    HW281421   0.228   5.787   8.714
59842SOL     OW81422   3.597   8.393  13.481
59842SOL    HW181423   3.509   8.431  13.486
59842SOL    HW281424   3.654   8.459  13.521
59843SOL     OW81425   2.391  10.864  13.628
59843SOL    HW181426   2.419  10.878  13.537
59843SOL    HW281427   2.297  10.844  13.622
59844SOL     OW81428  11.358   2.462  13.416
59844SOL    HW181429  11.292   2.510  13.366
59844SOL    HW281430  11.365   2.510  13.499
59845SOL     OW81431   1.229   8.312  14.062
59845SOL    HW181432   1.304   8.356  14.021
59845SOL    HW281433   1.249   8.314  14.156
59846SOL     OW81434  11.624   9.112   4.094
59846SOL    HW181435  11.652   9.021   4.103
59846SOL    HW281436  11.647   9.152   4.179
59847SOL     OW81437   5.033  12.855   0.492
59847SOL    HW181438   5.106  12.894   0.540
59847SOL    HW281439   5.056  12.763   0.484
59848SOL     OW81440  10.663   0.345  11.172
59848SOL    HW181441  10.711   0.388  11.101
59848SOL    HW281442  10.725   0.344  11.246
59849SOL     OW81443   2.253   4.316   6.610
59849SOL    HW181444   2.232   4.286   6.522
59849SOL    HW281445   2.238   4.411   6.607
59850SOL     OW81446   6.728   2.313   5.468
59850SOL    HW181447   6.779   2.254   5.523
59850SOL    HW281448   6.794   2.359   5.415
59851SOL     OW81449  13.371   8.755  12.022
59851SOL    HW181450  13.453   8.782  11.981
59851SOL    HW281451  13.320   8.717  11.951
59852SOL     OW81452  14.652   0.569   4.949
59852SOL    HW181453  14.663   0.474   4.954
59852SOL    HW281454  14.621   0.585   4.860
59853SOL     OW81455   0.294  10.408   1.525
59853SOL    HW181456   0.367  10.467   1.541
59853SOL    HW281457   0.240  10.415   1.604
59854SOL     OW81458  13.347   1.830   3.014
59854SOL    HW181459  13.355   1.734   3.011
59854SOL    HW281460  13.341   1.856   2.922
59855SOL     OW81461  12.288   7.957   3.230
59855SOL    HW181462  12.281   8.052   3.225
59855SOL    HW281463  12.201   7.927   3.256
59856SOL     OW81464   4.651  13.672  11.587
59856SOL    HW181465   4.743  13.646  11.591
59856SOL    HW281466   4.611  13.631  11.663
59857SOL     OW81467  13.728  11.855   5.782
59857SOL    HW181468  13.649  11.907   5.794
59857SOL    HW281469  13.696  11.766   5.767
59858SOL     OW81470  10.051  14.159  10.390
59858SOL    HW181471  10.021  14.080  10.344
59858SOL    HW281472  10.122  14.128  10.446
59859SOL     OW81473  14.591   0.496   2.071
59859SOL    HW181474  14.672   0.461   2.035
59859SOL    HW281475  14.535   0.420   2.087
59860SOL     OW81476   4.490   0.298  10.398
59860SOL    HW181477   4.409   0.334  10.360
59860SOL    HW281478   4.463   0.262  10.482
59861SOL     OW81479   3.071   7.795   5.971
59861SOL    HW181480   3.034   7.881   5.991
59861SOL    HW281481   3.058   7.785   5.877
59862SOL     OW81482   8.512   0.074  13.191
59862SOL    HW181483   8.558   0.054  13.272
59862SOL    HW281484   8.489  14.860  13.155
59863SOL     OW81485   9.858   5.820  13.432
59863SOL    HW181486   9.891   5.906  13.457
59863SOL    HW281487   9.777   5.838  13.384
59864SOL     OW81488   9.282   1.841  14.049
59864SOL    HW181489   9.333   1.770  14.087
59864SOL    HW281490   9.224   1.869  14.120
59865SOL     OW81491  13.880  12.462   1.982
59865SOL    HW181492  13.907  12.546   2.019
59865SOL    HW281493  13.912  12.396   2.044
59866SOL     OW81494   3.990   6.971  13.419
59866SOL    HW181495   4.064   7.026  13.443
59866SOL    HW281496   4.029   6.896  13.373
59867SOL     OW81497  14.712   9.775   7.747
59867SOL    HW181498  14.677   9.691   7.775
59867SOL    HW281499  14.638   9.836   7.754
59868SOL     OW81500   3.706  14.364   5.752
59868SOL    HW181501   3.645  14.437   5.741
59868SOL    HW281502   3.677  14.298   5.688
59869SOL     OW81503   2.540   2.939   2.885
59869SOL    HW181504   2.484   2.950   2.808
59869SOL    HW281505   2.566   3.028   2.909
59870SOL     OW81506   7.866   9.696   1.564
59870SOL    HW181507   7.770   9.690   1.567
59870SOL    HW281508   7.896   9.612   1.599
59871SOL     OW81509   8.463  13.051  12.895
59871SOL    HW181510   8.402  13.125  12.893
59871SOL    HW281511   8.438  13.002  12.973
59872SOL     OW81512   8.194   5.273   7.513
59872SOL    HW181513   8.200   5.227   7.596
59872SOL    HW281514   8.111   5.322   7.518
59873SOL     OW81515   7.814   0.597   8.961
59873SOL    HW181516   7.907   0.619   8.950
59873SOL    HW281517   7.772   0.630   8.881
59874SOL     OW81518   6.815   0.567   4.106
59874SOL    HW181519   6.772   0.533   4.027
59874SOL    HW281520   6.907   0.571   4.083
59875SOL     OW81521   6.787  10.989   6.045
59875SOL    HW181522   6.848  11.062   6.031
59875SOL    HW281523   6.829  10.934   6.111
59876SOL     OW81524   4.325   4.691   7.265
59876SOL    HW181525   4.365   4.688   7.178
59876SOL    HW281526   4.393   4.657   7.323
59877SOL     OW81527   6.103  10.501  14.716
59877SOL    HW181528   6.198  10.504  14.712
59877SOL    HW281529   6.078  10.444  14.643
59878SOL     OW81530  10.572   5.660  13.927
59878SOL    HW181531  10.656   5.657  13.881
59878SOL    HW281532  10.562   5.751  13.954
59879SOL     OW81533   0.143   5.622  14.728
59879SOL    HW181534   0.077   5.575  14.677
59879SOL    HW281535   0.153   5.706  14.683
59880SOL     OW81536   4.024   5.731   5.966
59880SOL    HW181537   4.101   5.725   5.909
59880SOL    HW281538   3.975   5.652   5.947
59881SOL     OW81539   3.625  13.746   2.070
59881SOL    HW181540   3.544  13.705   2.038
59881SOL    HW281541   3.688  13.734   1.999
59882SOL     OW81542   2.759   4.029   2.188
59882SOL    HW181543   2.847   4.047   2.153
59882SOL    HW281544   2.734   3.946   2.147
59883SOL     OW81545  13.302   4.501  14.694
59883SOL    HW181546  13.397   4.500  14.686
59883SOL    HW281547  13.270   4.514  14.605
59884SOL     OW81548   2.512   2.162   4.102
59884SOL    HW181549   2.595   2.177   4.056
59884SOL    HW281550   2.505   2.067   4.107
59885SOL     OW81551   0.592   4.721  10.669
59885SOL    HW181552   0.663   4.784  10.679
59885SOL    HW281553   0.634   4.643  10.631
59886SOL     OW81554  14.733  14.867  13.724
59886SOL    HW181555  14.647   0.036  13.729
59886SOL    HW281556  14.783   0.034  13.795
59887SOL     OW81557   0.257  14.211  11.989
59887SOL    HW181558   0.310  14.282  11.953
59887SOL    HW281559   0.167  14.243  11.983
59888SOL     OW81560   6.136  11.629  11.195
59888SOL    HW181561   6.099  11.546  11.165
59888SOL    HW281562   6.228  11.624  11.170
59889SOL     OW81563  10.450  13.831  11.740
59889SOL    HW181564  10.422  13.764  11.677
59889SOL    HW281565  10.374  13.844  11.796
59890SOL     OW81566   1.886   4.200   3.314
59890SOL    HW181567   1.886   4.106   3.296
59890SOL    HW281568   1.975   4.228   3.289
59891SOL     OW81569   6.642   5.429   7.809
59891SOL    HW181570   6.634   5.388   7.723
59891SOL    HW281571   6.694   5.508   7.793
59892SOL     OW81572   3.408   9.784   0.739
59892SOL    HW181573   3.371   9.843   0.673
59892SOL    HW281574   3.416   9.700   0.694
59893SOL     OW81575   0.958   5.230  13.349
59893SOL    HW181576   1.035   5.200  13.397
59893SOL    HW281577   0.919   5.297  13.405
59894SOL     OW81578   8.191   6.207   2.347
59894SOL    HW181579   8.284   6.229   2.352
59894SOL    HW281580   8.179   6.139   2.414
59895SOL     OW81581   4.396  10.987  11.024
59895SOL    HW181582   4.417  10.938  11.103
59895SOL    HW281583   4.326  10.936  10.982
59896SOL     OW81584  12.102   6.019   3.421
59896SOL    HW181585  12.043   5.996   3.493
59896SOL    HW281586  12.147   6.097   3.451
59897SOL     OW81587   1.326  11.678   2.064
59897SOL    HW181588   1.346  11.769   2.084
59897SOL    HW281589   1.412  11.634   2.066
59898SOL     OW81590   9.189   6.641   0.717
59898SOL    HW181591   9.269   6.613   0.673
59898SOL    HW281592   9.216   6.658   0.808
59899SOL     OW81593   6.968   5.826   5.262
59899SOL    HW181594   6.908   5.890   5.300
59899SOL    HW281595   7.054   5.852   5.294
59900SOL     OW81596  14.328   9.140  11.277
59900SOL    HW181597  14.391   9.081  11.236
59900SOL    HW281598  14.278   9.176  11.204
59901SOL     OW81599   1.239   9.702   6.891
59901SOL    HW181600   1.248   9.607   6.893
59901SOL    HW281601   1.241   9.725   6.798
59902SOL     OW81602  12.144  10.070  14.762
59902SOL    HW181603  12.152  10.099  14.853
59902SOL    HW281604  12.113   9.980  14.768
59903SOL     OW81605   3.394   3.281   6.592
59903SOL    HW181606   3.391   3.287   6.687
59903SOL    HW281607   3.402   3.371   6.562
59904SOL     OW81608   3.854   6.685  13.872
59904SOL    HW181609   3.807   6.727  13.944
59904SOL    HW281610   3.885   6.758  13.818
59905SOL     OW81611  11.531   9.507  14.137
59905SOL    HW181612  11.464   9.523  14.071
59905SOL    HW281613  11.489   9.528  14.220
59906SOL     OW81614   0.630  10.062  14.100
59906SOL    HW181615   0.630   9.989  14.038
59906SOL    HW281616   0.656  10.138  14.047
59907SOL     OW81617  11.624   3.753   5.603
59907SOL    HW181618  11.569   3.823   5.638
59907SOL    HW281619  11.692   3.739   5.669
59908SOL     OW81620  13.952   3.986   5.454
59908SOL    HW181621  13.970   4.067   5.501
59908SOL    HW281622  13.857   3.989   5.438
59909SOL     OW81623   6.792  13.117  11.470
59909SOL    HW181624   6.750  13.033  11.455
59909SOL    HW281625   6.737  13.161  11.534
59910SOL     OW81626  11.229   0.740   3.769
59910SOL    HW181627  11.285   0.770   3.698
59910SOL    HW281628  11.286   0.735   3.845
59911SOL     OW81629   9.747   3.934   1.744
59911SOL    HW181630   9.768   3.914   1.652
59911SOL    HW281631   9.804   3.876   1.795
59912SOL     OW81632  14.251   1.660   3.324
59912SOL    HW181633  14.255   1.688   3.415
59912SOL    HW281634  14.168   1.694   3.292
59913SOL     OW81635   0.747  11.372  10.823
59913SOL    HW181636   0.709  11.422  10.750
59913SOL    HW281637   0.754  11.435  10.894
59914SOL     OW81638  13.982   2.821   5.180
59914SOL    HW181639  14.048   2.881   5.146
59914SOL    HW281640  13.899   2.862   5.158
59915SOL     OW81641   1.167  10.237   4.355
59915SOL    HW181642   1.247  10.237   4.407
59915SOL    HW281643   1.161  10.147   4.321
59916SOL     OW81644   5.557  10.786  12.557
59916SOL    HW181645   5.644  10.747  12.566
59916SOL    HW281646   5.571  10.861  12.499
59917SOL     OW81647   2.176   3.763   4.614
59917SOL    HW181648   2.176   3.715   4.697
59917SOL    HW281649   2.093   3.809   4.613
59918SOL     OW81650  10.860  11.239   9.721
59918SOL    HW181651  10.821  11.262   9.636
59918SOL    HW281652  10.832  11.309   9.779
59919SOL     OW81653  10.993  12.896   6.801
59919SOL    HW181654  10.947  12.935   6.875
59919SOL    HW281655  11.057  12.962   6.774
59920SOL     OW81656  14.184   5.891   7.869
59920SOL    HW181657  14.242   5.883   7.793
59920SOL    HW281658  14.243   5.887   7.944
59921SOL     OW81659  10.958   2.482  13.381
59921SOL    HW181660  10.996   2.406  13.337
59921SOL    HW281661  10.864   2.468  13.378
59922SOL     OW81662  12.621   2.115   7.469
59922SOL    HW181663  12.592   2.081   7.554
59922SOL    HW281664  12.677   2.190   7.491
59923SOL     OW81665  11.647   8.237  14.155
59923SOL    HW181666  11.641   8.317  14.209
59923SOL    HW281667  11.658   8.270  14.066
59924SOL     OW81668   0.341   8.293  10.205
59924SOL    HW181669   0.310   8.225  10.265
59924SOL    HW281670   0.309   8.375  10.243
59925SOL     OW81671   9.507   2.090   1.060
59925SOL    HW181672   9.463   2.175   1.063
59925SOL    HW281673   9.463   2.037   1.127
59926SOL     OW81674   2.897   2.802   8.218
59926SOL    HW181675   2.806   2.792   8.248
59926SOL    HW281676   2.927   2.712   8.203
59927SOL     OW81677   3.976   8.972  10.687
59927SOL    HW181678   3.960   8.900  10.626
59927SOL    HW281679   4.070   8.989  10.681
59928SOL     OW81680  10.241  10.235  11.079
59928SOL    HW181681  10.267  10.319  11.117
59928SOL    HW281682  10.146  10.242  11.068
59929SOL     OW81683   0.160   2.957   9.976
59929SOL    HW181684   0.170   2.911  10.059
59929SOL    HW281685   0.249   2.969   9.944
59930SOL     OW81686   2.376   6.151  10.616
59930SOL    HW181687   2.338   6.064  10.603
59930SOL    HW281688   2.356   6.172  10.708
59931SOL     OW81689   0.359   0.017   9.778
59931SOL    HW181690   0.360  14.824   9.848
59931SOL    HW281691   0.329  14.841   9.701
59932SOL     OW81692  13.024  10.932   2.617
59932SOL    HW181693  13.099  10.916   2.675
59932SOL    HW281694  12.981  10.847   2.610
59933SOL     OW81695  13.337   2.777   7.094
59933SOL    HW181696  13.335   2.764   7.000
59933SOL    HW281697  13.315   2.691   7.130
59934SOL     OW81698  10.160  11.804   4.848
59934SOL    HW181699  10.085  11.747   4.835
59934SOL    HW281700  10.221  11.754   4.902
59935SOL     OW81701   5.634  13.835  11.308
59935SOL    HW181702   5.708  13.832  11.247
59935SOL    HW281703   5.647  13.915  11.359
59936SOL     OW81704   4.269   4.590  14.058
59936SOL    HW181705   4.174   4.600  14.067
59936SOL    HW281706   4.303   4.680  14.060
59937SOL     OW81707  14.315   2.545   8.947
59937SOL    HW181708  14.305   2.456   8.912
59937SOL    HW281709  14.290   2.537   9.039
59938SOL     OW81710  11.881  12.008  12.295
59938SOL    HW181711  11.821  11.948  12.252
59938SOL    HW281712  11.863  11.998  12.389
59939SOL     OW81713   9.263  13.852   9.901
59939SOL    HW181714   9.241  13.829   9.811
59939SOL    HW281715   9.305  13.938   9.894
59940SOL     OW81716   7.995   8.255   5.598
59940SOL    HW181717   7.920   8.199   5.618
59940SOL    HW281718   8.064   8.224   5.657
59941SOL     OW81719   0.606   6.761   6.945
59941SOL    HW181720   0.673   6.827   6.927
59941SOL    HW281721   0.598   6.711   6.864
59942SOL     OW81722  14.044   9.796   2.434
59942SOL    HW181723  13.991   9.867   2.471
59942SOL    HW281724  14.077   9.831   2.351
59943SOL     OW81725   6.870  10.318   2.195
59943SOL    HW181726   6.888  10.410   2.216
59943SOL    HW281727   6.855  10.276   2.279
59944SOL     OW81728   4.522   1.912   1.763
59944SOL    HW181729   4.532   1.915   1.859
59944SOL    HW281730   4.442   1.862   1.749
59945SOL     OW81731   9.766   3.557   4.653
59945SOL    HW181732   9.845   3.611   4.664
59945SOL    HW281733   9.697   3.620   4.634
59946SOL     OW81734   0.854   3.143   1.531
59946SOL    HW181735   0.841   3.157   1.437
59946SOL    HW281736   0.774   3.176   1.571
59947SOL     OW81737   2.546  10.696   4.303
59947SOL    HW181738   2.498  10.666   4.380
59947SOL    HW281739   2.633  10.658   4.312
59948SOL     OW81740  14.073   6.645   9.680
59948SOL    HW181741  14.013   6.638   9.606
59948SOL    HW281742  14.159   6.657   9.640
59949SOL     OW81743   8.260   0.995   6.201
59949SOL    HW181744   8.316   1.069   6.178
59949SOL    HW281745   8.208   1.025   6.275
59950SOL     OW81746  11.963   0.207   1.918
59950SOL    HW181747  12.020   0.144   1.874
59950SOL    HW281748  11.924   0.257   1.846
59951SOL     OW81749  14.860  13.085  11.935
59951SOL    HW181750  14.866  13.105  12.029
59951SOL    HW281751  14.780  13.129  11.907
59952SOL     OW81752  13.134  10.771   1.966
59952SOL    HW181753  13.178  10.847   1.927
59952SOL    HW281754  13.110  10.799   2.054
59953SOL     OW81755  10.985   9.245   3.556
59953SOL    HW181756  10.974   9.218   3.648
59953SOL    HW281757  10.895   9.250   3.523
59954SOL     OW81758   5.070   0.676   4.392
59954SOL    HW181759   4.976   0.668   4.410
59954SOL    HW281760   5.112   0.629   4.464
59955SOL     OW81761   5.295   7.487   8.035
59955SOL    HW181762   5.285   7.529   8.120
59955SOL    HW281763   5.208   7.451   8.016
59956SOL     OW81764   9.529   9.938   7.882
59956SOL    HW181765   9.476   9.865   7.915
59956SOL    HW281766   9.479   9.974   7.810
59957SOL     OW81767   6.296   4.851   7.242
59957SOL    HW181768   6.212   4.809   7.224
59957SOL    HW281769   6.309   4.839   7.336
59958SOL     OW81770  10.756   4.482   2.396
59958SOL    HW181771  10.832   4.423   2.397
59958SOL    HW281772  10.738   4.498   2.489
59959SOL     OW81773  10.552   1.754  10.005
59959SOL    HW181774  10.643   1.752  10.033
59959SOL    HW281775  10.539   1.841   9.968
59960SOL     OW81776  12.025   9.895  14.264
59960SOL    HW181777  12.059   9.983  14.277
59960SOL    HW281778  12.008   9.862  14.353
59961SOL     OW81779   1.181  10.300   6.686
59961SOL    HW181780   1.120  10.372   6.672
59961SOL    HW281781   1.253  10.316   6.625
59962SOL     OW81782   4.197   3.798  11.213
59962SOL    HW181783   4.123   3.808  11.273
59962SOL    HW281784   4.267   3.850  11.253
59963SOL     OW81785   3.827   6.066   3.213
59963SOL    HW181786   3.844   6.132   3.280
59963SOL    HW281787   3.894   6.080   3.147
59964SOL     OW81788   0.495  13.982  10.776
59964SOL    HW181789   0.464  14.050  10.837
59964SOL    HW281790   0.555  14.027  10.718
59965SOL     OW81791   0.280   8.248   0.814
59965SOL    HW181792   0.251   8.204   0.734
59965SOL    HW281793   0.357   8.199   0.842
59966SOL     OW81794   2.227   7.302   0.995
59966SOL    HW181795   2.154   7.358   1.022
59966SOL    HW281796   2.285   7.300   1.072
59967SOL     OW81797   3.918  13.249   2.078
59967SOL    HW181798   3.997  13.274   2.030
59967SOL    HW281799   3.846  13.270   2.017
59968SOL     OW81800   3.328  10.211  11.760
59968SOL    HW181801   3.283  10.127  11.761
59968SOL    HW281802   3.371  10.217  11.845
59969SOL     OW81803   9.845   6.411   7.272
59969SOL    HW181804   9.806   6.468   7.338
59969SOL    HW281805   9.930   6.451   7.253
59970SOL     OW81806   5.435   1.744   2.785
59970SOL    HW181807   5.504   1.759   2.849
59970SOL    HW281808   5.368   1.809   2.806
59971SOL     OW81809  12.144  13.008  14.179
59971SOL    HW181810  12.206  13.070  14.217
59971SOL    HW281811  12.151  12.930  14.233
59972SOL     OW81812   7.977   9.650   9.316
59972SOL    HW181813   8.010   9.732   9.353
59972SOL    HW281814   7.885   9.647   9.343
59973SOL     OW81815   2.278   5.121   1.688
59973SOL    HW181816   2.319   5.105   1.773
59973SOL    HW281817   2.185   5.133   1.707
59974SOL     OW81818   0.452   2.177   2.876
59974SOL    HW181819   0.393   2.180   2.801
59974SOL    HW281820   0.486   2.266   2.884
59975SOL     OW81821   7.532   4.939   8.090
59975SOL    HW181822   7.437   4.948   8.096
59975SOL    HW281823   7.567   4.993   8.161
59976SOL     OW81824   3.067   9.159  10.995
59976SOL    HW181825   3.105   9.071  10.991
59976SOL    HW281826   3.027   9.171  10.909
59977SOL     OW81827   3.793  11.765   3.589
59977SOL    HW181828   3.732  11.763   3.515
59977SOL    HW281829   3.743  11.728   3.662
59978SOL     OW81830   4.638   4.202   9.678
59978SOL    HW181831   4.615   4.221   9.769
59978SOL    HW281832   4.723   4.159   9.683
59979SOL     OW81833   8.420  12.973  10.892
59979SOL    HW181834   8.464  12.949  10.973
59979SOL    HW281835   8.331  12.938  10.902
59980SOL     OW81836   0.337   8.307   8.952
59980SOL    HW181837   0.317   8.216   8.929
59980SOL    HW281838   0.264   8.358   8.916
59981SOL     OW81839   3.084   4.329  10.394
59981SOL    HW181840   3.149   4.280  10.444
59981SOL    HW281841   3.019   4.264  10.367
59982SOL     OW81842   1.547   5.910   2.127
59982SOL    HW181843   1.474   5.956   2.169
59982SOL    HW281844   1.625   5.955   2.159
59983SOL     OW81845  11.948   3.816   3.275
59983SOL    HW181846  11.944   3.834   3.369
59983SOL    HW281847  11.973   3.723   3.270
59984SOL     OW81848  14.573   8.791   1.208
59984SOL    HW181849  14.558   8.866   1.266
59984SOL    HW281850  14.595   8.830   1.124
59985SOL     OW81851  13.809  14.626   7.827
59985SOL    HW181852  13.871  14.593   7.892
59985SOL    HW281853  13.786  14.549   7.775
59986SOL     OW81854   0.094  14.356   6.762
59986SOL    HW181855   0.006  14.380   6.733
59986SOL    HW281856   0.138  14.440   6.776
59987SOL     OW81857   7.258   0.734   8.473
59987SOL    HW181858   7.316   0.810   8.481
59987SOL    HW281859   7.303   0.675   8.413
59988SOL     OW81860   9.051  10.522   7.093
59988SOL    HW181861   9.020  10.440   7.055
59988SOL    HW281862   9.141  10.504   7.119
59989SOL     OW81863  10.994  11.471  14.087
59989SOL    HW181864  11.016  11.560  14.115
59989SOL    HW281865  10.984  11.422  14.168
59990SOL     OW81866   6.924   2.135  10.818
59990SOL    HW181867   6.981   2.094  10.754
59990SOL    HW281868   6.978   2.143  10.897
59991SOL     OW81869   0.363   3.350  14.582
59991SOL    HW181870   0.365   3.287  14.509
59991SOL    HW281871   0.395   3.431  14.543
59992SOL     OW81872   7.468   0.071  11.656
59992SOL    HW181873   7.501   0.132  11.722
59992SOL    HW281874   7.546   0.039  11.611
59993SOL     OW81875  11.871   4.752   0.427
59993SOL    HW181876  11.951   4.804   0.415
59993SOL    HW281877  11.865   4.739   0.521
59994SOL     OW81878  13.568   7.280  10.322
59994SOL    HW181879  13.532   7.191  10.323
59994SOL    HW281880  13.497   7.335  10.353
59995SOL     OW81881   6.450   3.237   6.817
59995SOL    HW181882   6.469   3.312   6.873
59995SOL    HW281883   6.473   3.266   6.729
59996SOL     OW81884  13.322  10.171   9.286
59996SOL    HW181885  13.404  10.174   9.236
59996SOL    HW281886  13.257  10.142   9.222
59997SOL     OW81887   8.357  11.393  12.143
59997SOL    HW181888   8.396  11.312  12.108
59997SOL    HW281889   8.418  11.462  12.117
59998SOL     OW81890   6.966  13.625   6.289
59998SOL    HW181891   7.035  13.641   6.224
59998SOL    HW281892   6.979  13.534   6.316
59999SOL     OW81893   4.250   8.968   7.583
59999SOL    HW181894   4.211   9.019   7.512
59999SOL    HW281895   4.175   8.926   7.626
60000SOL     OW81896  10.828   3.606  13.226
60000SOL    HW181897  10.789   3.532  13.179
60000SOL    HW281898  10.916   3.613  13.191
60001SOL     OW81899   4.833   7.424   5.892
60001SOL    HW181900   4.914   7.474   5.885
60001SOL    HW281901   4.837   7.362   5.819
60002SOL     OW81902  13.200   7.424  11.218
60002SOL    HW181903  13.277   7.460  11.263
60002SOL    HW281904  13.126   7.475  11.251
60003SOL     OW81905   4.058  11.598   3.575
60003SOL    HW181906   3.989  11.585   3.510
60003SOL    HW281907   4.060  11.692   3.591
60004SOL     OW81908   0.434   4.445   3.770
60004SOL    HW181909   0.480   4.395   3.702
60004SOL    HW281910   0.352   4.397   3.783
60005SOL     OW81911   2.390  11.047   5.524
60005SOL    HW181912   2.294  11.049   5.520
60005SOL    HW281913   2.409  10.982   5.592
60006SOL     OW81914   0.906   7.460  13.950
60006SOL    HW181915   0.999   7.447  13.967
60006SOL    HW281916   0.888   7.406  13.873
60007SOL     OW81917  12.896  13.642   8.333
60007SOL    HW181918  12.843  13.708   8.289
60007SOL    HW281919  12.987  13.665   8.312
60008SOL     OW81920   6.866   4.934  13.138
60008SOL    HW181921   6.917   5.008  13.172
60008SOL    HW281922   6.793   4.975  13.092
60009SOL     OW81923  11.752   8.927   0.831
60009SOL    HW181924  11.814   8.941   0.903
60009SOL    HW281925  11.807   8.920   0.753
60010SOL     OW81926   7.753  10.552  10.054
60010SOL    HW181927   7.791  10.590   9.975
60010SOL    HW281928   7.660  10.575  10.049
60011SOL     OW81929   5.283   0.905   9.821
60011SOL    HW181930   5.228   0.866   9.753
60011SOL    HW281931   5.362   0.933   9.775
60012SOL     OW81932   6.973   1.099   3.501
60012SOL    HW181933   7.034   1.025   3.502
60012SOL    HW281934   6.894   1.065   3.545
60013SOL     OW81935  14.544   4.545   2.040
60013SOL    HW181936  14.568   4.565   2.130
60013SOL    HW281937  14.572   4.454   2.027
60014SOL     OW81938   6.933   9.104   8.743
60014SOL    HW181939   6.854   9.097   8.689
60014SOL    HW281940   6.991   9.036   8.709
60015SOL     OW81941   8.369   6.229   3.784
60015SOL    HW181942   8.340   6.306   3.833
60015SOL    HW281943   8.317   6.157   3.819
60016SOL     OW81944   9.126   4.259   7.966
60016SOL    HW181945   9.106   4.333   8.023
60016SOL    HW281946   9.047   4.205   7.969
60017SOL     OW81947   3.967   6.845   8.101
60017SOL    HW181948   3.985   6.832   8.195
60017SOL    HW281949   4.037   6.904   8.072
60018SOL     OW81950   9.014   8.861  11.640
60018SOL    HW181951   8.987   8.947  11.672
60018SOL    HW281952   8.932   8.815  11.623
60019SOL     OW81953   8.060   8.761   1.295
60019SOL    HW181954   8.041   8.667   1.289
60019SOL    HW281955   8.155   8.766   1.298
60020SOL     OW81956  13.288   1.317  10.076
60020SOL    HW181957  13.301   1.387  10.140
60020SOL    HW281958  13.353   1.334  10.008
60021SOL     OW81959   8.160   4.761   9.481
60021SOL    HW181960   8.152   4.669   9.456
60021SOL    HW281961   8.188   4.759   9.572
60022SOL     OW81962  11.042   6.410   7.491
60022SOL    HW181963  11.064   6.322   7.461
60022SOL    HW281964  11.082   6.468   7.426
60023SOL     OW81965   2.241   7.515   4.413
60023SOL    HW181966   2.285   7.488   4.332
60023SOL    HW281967   2.194   7.436   4.441
60024SOL     OW81968   0.264   3.554  12.603
60024SOL    HW181969   0.340   3.611  12.594
60024SOL    HW281970   0.204   3.602  12.661
60025SOL     OW81971   5.899  12.680   6.090
60025SOL    HW181972   5.984  12.708   6.056
60025SOL    HW281973   5.896  12.586   6.071
60026SOL     OW81974  13.607   6.834   0.606
60026SOL    HW181975  13.680   6.875   0.559
60026SOL    HW281976  13.530   6.860   0.556
60027SOL     OW81977   0.208   6.582  12.630
60027SOL    HW181978   0.213   6.530  12.710
60027SOL    HW281979   0.144   6.537  12.575
60028SOL     OW81980  13.241   7.233  14.332
60028SOL    HW181981  13.306   7.293  14.370
60028SOL    HW281982  13.250   7.153  14.383
60029SOL     OW81983   2.596   9.614   5.774
60029SOL    HW181984   2.645   9.542   5.813
60029SOL    HW281985   2.654   9.650   5.707
60030SOL     OW81986  11.253   2.440   3.195
60030SOL    HW181987  11.244   2.355   3.237
60030SOL    HW281988  11.210   2.431   3.110
60031SOL     OW81989   2.382   4.860   6.216
60031SOL    HW181990   2.455   4.918   6.234
60031SOL    HW281991   2.309   4.918   6.196
60032SOL     OW81992   1.869   6.433   3.769
60032SOL    HW181993   1.819   6.434   3.851
60032SOL    HW281994   1.888   6.525   3.752
60033SOL     OW81995  11.821  14.242   4.131
60033SOL    HW181996  11.909  14.278   4.129
60033SOL    HW281997  11.803  14.216   4.041
60034SOL     OW81998   4.270   6.536   3.088
60034SOL    HW181999   4.284   6.502   2.999
60034SOL    HW282000   4.357   6.540   3.127
60035SOL     OW82001   7.198  10.745   2.273
60035SOL    HW182002   7.178  10.763   2.181
60035SOL    HW282003   7.293  10.755   2.279
60036SOL     OW82004  13.786   2.049  13.557
60036SOL    HW182005  13.750   1.961  13.566
60036SOL    HW282006  13.842   2.044  13.480
60037SOL     OW82007   4.186   6.293   7.014
60037SOL    HW182008   4.118   6.227   6.998
60037SOL    HW282009   4.268   6.248   6.995
60038SOL     OW82010  11.385   1.285  12.150
60038SOL    HW182011  11.397   1.362  12.206
60038SOL    HW282012  11.302   1.247  12.178
60039SOL     OW82013   2.000  12.575   7.310
60039SOL    HW182014   2.034  12.527   7.235
60039SOL    HW282015   2.062  12.556   7.381
60040SOL     OW82016   2.873   9.387   0.642
60040SOL    HW182017   2.910   9.299   0.653
60040SOL    HW282018   2.785   9.372   0.607
60041SOL     OW82019  11.453   2.854  11.329
60041SOL    HW182020  11.425   2.833  11.419
60041SOL    HW282021  11.548   2.844  11.331
60042SOL     OW82022  12.632   8.353  12.282
60042SOL    HW182023  12.623   8.335  12.189
60042SOL    HW282024  12.694   8.287  12.314
60043SOL     OW82025   6.202   5.685   0.619
60043SOL    HW182026   6.212   5.595   0.650
60043SOL    HW282027   6.111   5.706   0.637
60044SOL     OW82028   6.929   0.051   7.719
60044SOL    HW182029   6.943   0.103   7.640
60044SOL    HW282030   6.838   0.069   7.744
60045SOL     OW82031   7.559   1.880   8.459
60045SOL    HW182032   7.636   1.877   8.515
60045SOL    HW282033   7.558   1.968   8.423
60046SOL     OW82034  14.586  10.218   3.826
60046SOL    HW182035  14.568  10.290   3.887
60046SOL    HW282036  14.506  10.165   3.826
60047SOL     OW82037   4.386   5.852   0.361
60047SOL    HW182038   4.387   5.757   0.359
60047SOL    HW282039   4.471   5.876   0.397
60048SOL     OW82040   4.255  11.942  11.037
60048SOL    HW182041   4.172  11.896  11.029
60048SOL    HW282042   4.307  11.887  11.096
60049SOL     OW82043   9.215   8.378   8.158
60049SOL    HW182044   9.295   8.384   8.106
60049SOL    HW282045   9.146   8.410   8.101
60050SOL     OW82046  12.768   2.869  14.248
60050SOL    HW182047  12.753   2.964  14.252
60050SOL    HW282048  12.698   2.837  14.190
60051SOL     OW82049   8.639   5.016  14.323
60051SOL    HW182050   8.608   5.048  14.408
60051SOL    HW282051   8.734   5.014  14.331
60052SOL     OW82052   7.530  12.751  14.362
60052SOL    HW182053   7.611  12.744  14.312
60052SOL    HW282054   7.516  12.663  14.397
60053SOL     OW82055   5.485   6.912  13.786
60053SOL    HW182056   5.565   6.866  13.812
60053SOL    HW282057   5.515   6.995  13.751
60054SOL     OW82058   3.257  12.652   0.521
60054SOL    HW182059   3.262  12.742   0.555
60054SOL    HW282060   3.163  12.634   0.516
60055SOL     OW82061   2.821   7.211   2.487
60055SOL    HW182062   2.761   7.269   2.534
60055SOL    HW282063   2.790   7.213   2.397
60056SOL     OW82064  13.091   0.499  11.908
60056SOL    HW182065  13.031   0.572  11.896
60056SOL    HW282066  13.059   0.431  11.848
60057SOL     OW82067  13.834   7.823   4.937
60057SOL    HW182068  13.820   7.848   5.028
60057SOL    HW282069  13.912   7.767   4.939
60058SOL     OW82070   9.833  11.562  10.124
60058SOL    HW182071   9.902  11.597  10.180
60058SOL    HW282072   9.835  11.467  10.139
60059SOL     OW82073   8.649  14.751   4.686
60059SOL    HW182074   8.701  14.789   4.757
60059SOL    HW282075   8.702  14.765   4.608
60060SOL     OW82076   7.175   2.503  11.066
60060SOL    HW182077   7.217   2.418  11.051
60060SOL    HW282078   7.132   2.523  10.983
60061SOL     OW82079   1.207   2.220   6.046
60061SOL    HW182080   1.232   2.194   6.134
60061SOL    HW282081   1.154   2.299   6.057
60062SOL     OW82082  13.709  13.550  14.694
60062SOL    HW182083  13.663  13.565  14.777
60062SOL    HW282084  13.714  13.454  14.688
60063SOL     OW82085   4.982   1.739  14.066
60063SOL    HW182086   4.936   1.765  14.146
60063SOL    HW282087   5.041   1.813  14.048
60064SOL     OW82088  13.282  13.731   6.562
60064SOL    HW182089  13.272  13.754   6.470
60064SOL    HW282090  13.329  13.648   6.561
60065SOL     OW82091   6.697   7.797   2.962
60065SOL    HW182092   6.789   7.771   2.963
60065SOL    HW282093   6.679   7.821   2.871
60066SOL     OW82094  12.511   0.603  12.056
60066SOL    HW182095  12.532   0.687  12.098
60066SOL    HW282096  12.588   0.548  12.074
60067SOL     OW82097   6.423   0.549  10.667
60067SOL    HW182098   6.328   0.550  10.660
60067SOL    HW282099   6.444   0.622  10.725
60068SOL     OW82100   6.004  11.367   0.950
60068SOL    HW182101   5.917  11.343   0.920
60068SOL    HW282102   6.028  11.443   0.896
60069SOL     OW82103   2.497  11.535  14.408
60069SOL    HW182104   2.529  11.445  14.399
60069SOL    HW282105   2.510  11.556  14.500
60070SOL     OW82106   4.385   1.446   1.906
60070SOL    HW182107   4.428   1.404   1.980
60070SOL    HW282108   4.302   1.479   1.942
60071SOL     OW82109   1.878  11.453  10.980
60071SOL    HW182110   1.810  11.444  10.914
60071SOL    HW282111   1.831  11.460  11.063
60072SOL     OW82112   5.297  10.679   0.579
60072SOL    HW182113   5.234  10.607   0.579
60072SOL    HW282114   5.362  10.653   0.644
60073SOL     OW82115   1.417   9.085   8.560
60073SOL    HW182116   1.400   8.991   8.558
60073SOL    HW282117   1.359   9.121   8.493
60074SOL     OW82118  13.742   7.886   6.304
60074SOL    HW182119  13.675   7.879   6.373
60074SOL    HW282120  13.798   7.958   6.332
60075SOL     OW82121   8.429  12.618  11.255
60075SOL    HW182122   8.359  12.610  11.321
60075SOL    HW282123   8.482  12.540  11.267
60076SOL     OW82124   3.125   7.431  14.178
60076SOL    HW182125   3.081   7.498  14.125
60076SOL    HW282126   3.131   7.355  14.121
60077SOL     OW82127  13.477  12.123   3.138
60077SOL    HW182128  13.534  12.123   3.215
60077SOL    HW282129  13.530  12.083   3.069
60078SOL     OW82130  11.077   3.552  11.585
60078SOL    HW182131  11.053   3.460  11.584
60078SOL    HW282132  11.014   3.592  11.645
60079SOL     OW82133   8.433  10.331  12.695
60079SOL    HW182134   8.475  10.383  12.627
60079SOL    HW282135   8.499  10.268  12.722
60080SOL     OW82136   6.027  13.814   2.101
60080SOL    HW182137   6.014  13.901   2.063
60080SOL    HW282138   6.055  13.831   2.191
60081SOL     OW82139   2.339  14.662   5.932
60081SOL    HW182140   2.414  14.714   5.959
60081SOL    HW282141   2.287  14.650   6.011
60082SOL     OW82142   6.983   4.791  11.168
60082SOL    HW182143   7.063   4.739  11.175
60082SOL    HW282144   7.003   4.857  11.102
60083SOL     OW82145  14.407  10.466   9.469
60083SOL    HW182146  14.499  10.491   9.462
60083SOL    HW282147  14.379  10.501   9.553
60084SOL     OW82148   9.501   2.742   9.874
60084SOL    HW182149   9.463   2.739   9.962
60084SOL    HW282150   9.435   2.788   9.821
60085SOL     OW82151   0.149   7.509   3.230
60085SOL    HW182152   0.197   7.502   3.147
60085SOL    HW282153   0.215   7.496   3.297
60086SOL     OW82154   3.543   6.142   5.703
60086SOL    HW182155   3.611   6.209   5.692
60086SOL    HW282156   3.461   6.192   5.704
60087SOL     OW82157   9.006  14.155   8.975
60087SOL    HW182158   8.984  14.245   8.950
60087SOL    HW282159   9.001  14.106   8.893
60088SOL     OW82160  12.697   3.620  13.224
60088SOL    HW182161  12.767   3.659  13.172
60088SOL    HW282162  12.740   3.591  13.305
60089SOL     OW82163  14.733   8.163  11.659
60089SOL    HW182164  14.821   8.192  11.682
60089SOL    HW282165  14.682   8.243  11.651
60090SOL     OW82166   9.677   8.038   2.108
60090SOL    HW182167   9.607   8.096   2.079
60090SOL    HW282168   9.751   8.060   2.051
60091SOL     OW82169   6.344   7.369   2.836
60091SOL    HW182170   6.345   7.463   2.816
60091SOL    HW282171   6.320   7.365   2.929
60092SOL     OW82172   1.790  10.558   2.584
60092SOL    HW182173   1.737  10.581   2.508
60092SOL    HW282174   1.733  10.503   2.637
60093SOL     OW82175   3.313  14.369   7.839
60093SOL    HW182176   3.352  14.448   7.802
60093SOL    HW282177   3.280  14.397   7.925
60094SOL     OW82178  14.313  12.829   7.931
60094SOL    HW182179  14.350  12.851   8.016
60094SOL    HW282180  14.323  12.734   7.924
60095SOL     OW82181  12.472  13.168   1.607
60095SOL    HW182182  12.390  13.195   1.649
60095SOL    HW282183  12.447  13.149   1.516
60096SOL     OW82184   4.331  11.801   0.626
60096SOL    HW182185   4.418  11.831   0.651
60096SOL    HW282186   4.328  11.710   0.655
60097SOL     OW82187   9.273  11.326   2.266
60097SOL    HW182188   9.193  11.297   2.222
60097SOL    HW282189   9.329  11.359   2.195
60098SOL     OW82190   4.241   8.544  11.392
60098SOL    HW182191   4.237   8.576  11.301
60098SOL    HW282192   4.334   8.527  11.407
60099SOL     OW82193   0.937  13.567   3.387
60099SOL    HW182194   0.977  13.654   3.393
60099SOL    HW282195   0.883  13.560   3.466
60100SOL     OW82196  10.064   8.867   7.722
60100SOL    HW182197  10.036   8.848   7.811
60100SOL    HW282198   9.997   8.927   7.688
60101SOL     OW82199  14.025   0.951   0.203
60101SOL    HW182200  13.977   0.869   0.217
60101SOL    HW282201  13.989   0.986   0.122
60102SOL     OW82202   6.592   1.881   1.990
60102SOL    HW182203   6.667   1.931   2.021
60102SOL    HW282204   6.521   1.901   2.051
60103SOL     OW82205   0.735   2.588  14.282
60103SOL    HW182206   0.819   2.619  14.247
60103SOL    HW282207   0.685   2.562  14.206
60104SOL     OW82208   5.699   8.825  12.714
60104SOL    HW182209   5.614   8.799  12.748
60104SOL    HW282210   5.743   8.742  12.693
60105SOL     OW82211   4.432   7.526   3.011
60105SOL    HW182212   4.338   7.512   3.026
60105SOL    HW282213   4.442   7.621   3.010
60106SOL     OW82214  14.452  10.289   4.411
60106SOL    HW182215  14.410  10.211   4.445
60106SOL    HW282216  14.545  10.278   4.433
60107SOL     OW82217   4.536   4.601   0.782
60107SOL    HW182218   4.481   4.538   0.736
60107SOL    HW282219   4.533   4.680   0.729
60108SOL     OW82220   3.001  11.122   0.659
60108SOL    HW182221   2.998  11.053   0.593
60108SOL    HW282222   2.911  11.153   0.666
60109SOL     OW82223  12.027   3.355   6.792
60109SOL    HW182224  12.030   3.314   6.879
60109SOL    HW282225  12.062   3.442   6.806
60110SOL     OW82226   0.495   3.470   9.450
60110SOL    HW182227   0.498   3.531   9.524
60110SOL    HW282228   0.405   3.439   9.448
60111SOL     OW82229   7.821   9.238  14.125
60111SOL    HW182230   7.752   9.245  14.191
60111SOL    HW282231   7.777   9.255  14.042
60112SOL     OW82232  13.510   8.389  14.132
60112SOL    HW182233  13.546   8.317  14.080
60112SOL    HW282234  13.587   8.438  14.162
60113SOL     OW82235   6.278   3.723   6.602
60113SOL    HW182236   6.246   3.634   6.612
60113SOL    HW282237   6.346   3.718   6.535
60114SOL     OW82238   8.393  11.506   4.759
60114SOL    HW182239   8.306  11.478   4.733
60114SOL    HW282240   8.379  11.561   4.836
60115SOL     OW82241   4.287   7.756   5.307
60115SOL    HW182242   4.347   7.706   5.363
60115SOL    HW282243   4.342   7.822   5.266
60116SOL     OW82244   8.403  10.964   8.897
60116SOL    HW182245   8.334  11.014   8.941
60116SOL    HW282246   8.414  10.886   8.951
60117SOL     OW82247   9.295   9.910  11.274
60117SOL    HW182248   9.261   9.988  11.230
60117SOL    HW282249   9.390   9.917  11.266
60118SOL     OW82250   5.626   5.302  10.567
60118SOL    HW182251   5.655   5.380  10.615
60118SOL    HW282252   5.657   5.317  10.477
60119SOL     OW82253   5.167   6.134   2.841
60119SOL    HW182254   5.168   6.119   2.746
60119SOL    HW282255   5.256   6.112   2.870
60120SOL     OW82256  11.010  14.344  10.344
60120SOL    HW182257  10.981  14.254  10.328
60120SOL    HW282258  11.101  14.345  10.315
60121SOL     OW82259  11.649   5.491   4.679
60121SOL    HW182260  11.706   5.536   4.741
60121SOL    HW282261  11.576   5.459   4.731
60122SOL     OW82262  12.465  14.665   3.503
60122SOL    HW182263  12.529  14.721   3.547
60122SOL    HW282264  12.483  14.577   3.536
60123SOL     OW82265   6.597  13.897   6.295
60123SOL    HW182266   6.516  13.944   6.279
60123SOL    HW282267   6.616  13.911   6.388
60124SOL     OW82268  10.074  13.623   6.532
60124SOL    HW182269   9.996  13.678   6.527
60124SOL    HW282270  10.087  13.591   6.443
60125SOL     OW82271  14.313   0.223   6.087
60125SOL    HW182272  14.383   0.221   6.022
60125SOL    HW282273  14.309   0.134   6.122
60126SOL     OW82274  11.246  14.404   7.854
60126SOL    HW182275  11.283  14.453   7.928
60126SOL    HW282276  11.295  14.322   7.853
60127SOL     OW82277  12.702   9.829   2.890
60127SOL    HW182278  12.614   9.840   2.853
60127SOL    HW282279  12.746   9.912   2.871
60128SOL     OW82280   7.049   2.420  10.122
60128SOL    HW182281   6.968   2.420  10.071
60128SOL    HW282282   7.079   2.511  10.118
60129SOL     OW82283  10.457  10.246   0.132
60129SOL    HW182284  10.496  10.171   0.177
60129SOL    HW282285  10.377  10.212   0.092
60130SOL     OW82286   2.787   4.286   5.618
60130SOL    HW182287   2.725   4.349   5.654
60130SOL    HW282288   2.855   4.278   5.685
60131SOL     OW82289  14.309  14.463   9.139
60131SOL    HW182290  14.281  14.473   9.049
60131SOL    HW282291  14.230  14.477   9.191
60132SOL     OW82292   9.925   4.506   9.454
60132SOL    HW182293   9.907   4.597   9.475
60132SOL    HW282294  10.008   4.508   9.407
60133SOL     OW82295   2.847   1.545   1.243
60133SOL    HW182296   2.872   1.584   1.159
60133SOL    HW282297   2.813   1.619   1.294
60134SOL     OW82298  14.729  13.280   7.800
60134SOL    HW182299  14.803  13.269   7.741
60134SOL    HW282300  14.661  13.320   7.746
60135SOL     OW82301   3.158  11.019   7.040
60135SOL    HW182302   3.104  10.959   7.091
60135SOL    HW282303   3.236  10.968   7.017
60136SOL     OW82304   2.763   1.198   6.724
60136SOL    HW182305   2.795   1.116   6.685
60136SOL    HW282306   2.678   1.213   6.682
60137SOL     OW82307  13.611   5.257   4.263
60137SOL    HW182308  13.646   5.306   4.188
60137SOL    HW282309  13.663   5.177   4.265
60138SOL     OW82310   1.696   0.488   8.097
60138SOL    HW182311   1.786   0.491   8.129
60138SOL    HW282312   1.679   0.576   8.063
60139SOL     OW82313   7.937  12.034  13.825
60139SOL    HW182314   7.936  12.128  13.839
60139SOL    HW282315   7.958  11.996  13.910
60140SOL     OW82316   5.916   1.043  12.732
60140SOL    HW182317   5.878   1.021  12.817
60140SOL    HW282318   6.011   1.034  12.745
60141SOL     OW82319   2.387   2.397   1.487
60141SOL    HW182320   2.418   2.341   1.415
60141SOL    HW282321   2.367   2.335   1.557
60142SOL     OW82322  13.190   9.651   2.630
60142SOL    HW182323  13.248   9.650   2.554
60142SOL    HW282324  13.160   9.742   2.636
60143SOL     OW82325   4.412   1.681   3.243
60143SOL    HW182326   4.326   1.694   3.282
60143SOL    HW282327   4.444   1.599   3.281
60144SOL     OW82328   6.200   1.417  13.495
60144SOL    HW182329   6.155   1.345  13.449
60144SOL    HW282330   6.293   1.394  13.489
60145SOL     OW82331  14.203   2.335   1.382
60145SOL    HW182332  14.129   2.347   1.322
60145SOL    HW282333  14.163   2.321   1.468
60146SOL     OW82334   3.558   8.232  14.743
60146SOL    HW182335   3.551   8.316  14.789
60146SOL    HW282336   3.558   8.255  14.650
60147SOL     OW82337   8.456   1.571   8.791
60147SOL    HW182338   8.394   1.515   8.840
60147SOL    HW282339   8.505   1.617   8.859
60148SOL     OW82340   6.400  11.084   3.587
60148SOL    HW182341   6.359  10.997   3.593
60148SOL    HW282342   6.486  11.067   3.549
60149SOL     OW82343   2.518   9.740   9.967
60149SOL    HW182344   2.441   9.791   9.941
60149SOL    HW282345   2.592   9.797   9.946
60150SOL     OW82346  12.620   8.319  11.990
60150SOL    HW182347  12.713   8.338  11.983
60150SOL    HW282348  12.607   8.242  11.935
60151SOL     OW82349   2.540   8.299   8.940
60151SOL    HW182350   2.494   8.225   8.900
60151SOL    HW282351   2.488   8.321   9.017
60152SOL     OW82352  13.568   4.502   8.029
60152SOL    HW182353  13.608   4.447   8.097
60152SOL    HW282354  13.491   4.453   8.001
60153SOL     OW82355  12.432   6.516   5.646
60153SOL    HW182356  12.340   6.515   5.673
60153SOL    HW282357  12.447   6.606   5.616
60154SOL     OW82358   6.136  14.827   3.613
60154SOL    HW182359   6.197  14.756   3.632
60154SOL    HW282360   6.087  14.797   3.536
60155SOL     OW82361  10.163  12.840   3.810
60155SOL    HW182362  10.246  12.875   3.843
60155SOL    HW282363  10.106  12.917   3.802
60156SOL     OW82364   6.464   7.352  14.785
60156SOL    HW182365   6.383   7.371  14.832
60156SOL    HW282366   6.435   7.321  14.699
60157SOL     OW82367  10.141   5.797   9.797
60157SOL    HW182368  10.175   5.867   9.852
60157SOL    HW282369  10.114   5.840   9.717
60158SOL     OW82370  13.993   0.378   0.193
60158SOL    HW182371  14.055   0.331   0.137
60158SOL    HW282372  13.919   0.396   0.136
60159SOL     OW82373   2.363   2.961   7.395
60159SOL    HW182374   2.389   2.877   7.356
60159SOL    HW282375   2.286   2.987   7.345
60160SOL     OW82376  11.008   3.454   4.557
60160SOL    HW182377  11.028   3.466   4.464
60160SOL    HW282378  11.066   3.514   4.603
60161SOL     OW82379   4.233   6.042   6.688
60161SOL    HW182380   4.195   6.055   6.775
60161SOL    HW282381   4.172   5.983   6.643
60162SOL     OW82382  14.033   5.983   7.349
60162SOL    HW182383  13.979   5.905   7.357
60162SOL    HW282384  13.975   6.049   7.310
60163SOL     OW82385   1.466   4.230   3.096
60163SOL    HW182386   1.404   4.195   3.160
60163SOL    HW282387   1.419   4.223   3.012
60164SOL     OW82388   9.239   1.415   8.058
60164SOL    HW182389   9.270   1.335   8.101
60164SOL    HW282390   9.252   1.399   7.965
60165SOL     OW82391   9.349   8.074   3.251
60165SOL    HW182392   9.420   8.137   3.267
60165SOL    HW282393   9.292   8.081   3.327
60166SOL     OW82394  10.128  11.418  12.624
60166SOL    HW182395  10.139  11.493  12.566
60166SOL    HW282396  10.201  11.425  12.686
60167SOL     OW82397  12.067   8.431   2.843
60167SOL    HW182398  12.036   8.382   2.767
60167SOL    HW282399  11.986   8.463   2.885
60168SOL     OW82400   4.806  10.613   6.744
60168SOL    HW182401   4.795  10.685   6.805
60168SOL    HW282402   4.886  10.568   6.773
60169SOL     OW82403   1.070   8.246   3.815
60169SOL    HW182404   1.039   8.278   3.731
60169SOL    HW282405   1.005   8.180   3.841
60170SOL     OW82406   7.586  13.867  13.348
60170SOL    HW182407   7.645  13.916  13.405
60170SOL    HW282408   7.638  13.847  13.270
60171SOL     OW82409  14.489  12.286   3.393
60171SOL    HW182410  14.550  12.213   3.399
60171SOL    HW282411  14.541  12.363   3.414
60172SOL     OW82412  10.433  12.007  14.293
60172SOL    HW182413  10.491  11.963  14.355
60172SOL    HW282414  10.489  12.067  14.244
60173SOL     OW82415   6.024   0.856   8.500
60173SOL    HW182416   5.976   0.916   8.557
60173SOL    HW282417   6.089   0.816   8.556
60174SOL     OW82418  12.973   1.356  12.042
60174SOL    HW182419  12.969   1.449  12.068
60174SOL    HW282420  12.905   1.314  12.095
60175SOL     OW82421   3.348   3.189  10.816
60175SOL    HW182422   3.271   3.135  10.834
60175SOL    HW282423   3.403   3.134  10.760
60176SOL     OW82424   8.015   5.677   3.170
60176SOL    HW182425   7.996   5.703   3.080
60176SOL    HW282426   8.083   5.739   3.198
60177SOL     OW82427   4.787  11.846  10.475
60177SOL    HW182428   4.786  11.770  10.532
60177SOL    HW282429   4.737  11.819  10.398
60178SOL     OW82430  10.431   8.974  11.436
60178SOL    HW182431  10.370   8.955  11.366
60178SOL    HW282432  10.518   8.959  11.397
60179SOL     OW82433   4.237   4.291   1.893
60179SOL    HW182434   4.241   4.203   1.856
60179SOL    HW282435   4.322   4.305   1.934
60180SOL     OW82436   6.666   2.548   3.184
60180SOL    HW182437   6.660   2.515   3.274
60180SOL    HW282438   6.749   2.595   3.181
60181SOL     OW82439  10.686  11.348   7.251
60181SOL    HW182440  10.618  11.408   7.221
60181SOL    HW282441  10.647  11.304   7.327
60182SOL     OW82442   1.746   1.079  13.850
60182SOL    HW182443   1.736   1.062  13.757
60182SOL    HW282444   1.766   1.172  13.856
60183SOL     OW82445   2.426   8.055   5.056
60183SOL    HW182446   2.514   8.018   5.041
60183SOL    HW282447   2.423   8.132   5.000
60184SOL     OW82448   1.894   9.015  12.285
60184SOL    HW182449   1.850   9.098  12.268
60184SOL    HW282450   1.838   8.971  12.349
60185SOL     OW82451   8.132   8.822   4.844
60185SOL    HW182452   8.174   8.777   4.917
60185SOL    HW282453   8.111   8.752   4.781
60186SOL     OW82454  11.398   6.803   8.197
60186SOL    HW182455  11.435   6.827   8.112
60186SOL    HW282456  11.330   6.868   8.212
60187SOL     OW82457  14.814   1.584   4.975
60187SOL    HW182458  14.864   1.504   4.958
60187SOL    HW282459  14.730   1.569   4.931
60188SOL     OW82460   5.500  13.619  13.446
60188SOL    HW182461   5.536  13.705  13.467
60188SOL    HW282462   5.437  13.636  13.376
60189SOL     OW82463  11.412   9.885  14.074
60189SOL    HW182464  11.498   9.898  14.032
60189SOL    HW282465  11.386   9.797  14.048
60190SOL     OW82466  11.275   6.064  12.331
60190SOL    HW182467  11.303   6.107  12.250
60190SOL    HW282468  11.318   6.112  12.401
60191SOL     OW82469   5.238  14.246   9.506
60191SOL    HW182470   5.274  14.294   9.582
60191SOL    HW282471   5.154  14.212   9.537
60192SOL     OW82472   8.700  11.616  12.352
60192SOL    HW182473   8.693  11.710  12.368
60192SOL    HW282474   8.657  11.576  12.428
60193SOL     OW82475   4.670  13.439   5.035
60193SOL    HW182476   4.620  13.390   5.100
60193SOL    HW282477   4.721  13.373   4.989
60194SOL     OW82478  10.692   3.507  11.055
60194SOL    HW182479  10.732   3.483  10.972
60194SOL    HW282480  10.761   3.557  11.101
60195SOL     OW82481   0.403   4.214  12.123
60195SOL    HW182482   0.460   4.290  12.111
60195SOL    HW282483   0.336   4.243  12.184
60196SOL     OW82484   1.128   7.870   7.967
60196SOL    HW182485   1.115   7.777   7.948
60196SOL    HW282486   1.045   7.912   7.946
60197SOL     OW82487   5.770   1.404   4.746
60197SOL    HW182488   5.785   1.322   4.700
60197SOL    HW282489   5.773   1.471   4.678
60198SOL     OW82490   4.868   0.273  14.049
60198SOL    HW182491   4.868   0.352  13.995
60198SOL    HW282492   4.794   0.221  14.016
60199SOL     OW82493   8.275  13.238  11.851
60199SOL    HW182494   8.360  13.202  11.874
60199SOL    HW282495   8.295  13.311  11.793
60200SOL     OW82496  13.552   7.717   6.783
60200SOL    HW182497  13.496   7.640   6.795
60200SOL    HW282498  13.537   7.770   6.860
60201SOL     OW82499  11.449  13.178   3.164
60201SOL    HW182500  11.541  13.183   3.139
60201SOL    HW282501  11.410  13.259   3.131
60202SOL     OW82502  11.880   7.110  13.982
60202SOL    HW182503  11.925   7.176  13.930
60202SOL    HW282504  11.949   7.064  14.029
60203SOL     OW82505   0.782   0.741   3.619
60203SOL    HW182506   0.845   0.759   3.549
60203SOL    HW282507   0.797   0.811   3.682
60204SOL     OW82508   8.278   2.783   8.333
60204SOL    HW182509   8.187   2.810   8.327
60204SOL    HW282510   8.284   2.737   8.417
60205SOL     OW82511   4.041   8.789   6.036
60205SOL    HW182512   4.133   8.808   6.055
60205SOL    HW282513   3.999   8.875   6.030
60206SOL     OW82514   7.907   7.692  13.837
60206SOL    HW182515   7.956   7.773  13.823
60206SOL    HW282516   7.961   7.624  13.796
60207SOL     OW82517  13.044  10.042  10.789
60207SOL    HW182518  13.079   9.966  10.743
60207SOL    HW282519  13.119  10.100  10.800
60208SOL     OW82520  11.109   0.542   4.744
60208SOL    HW182521  11.163   0.463   4.739
60208SOL    HW282522  11.171   0.615   4.734
60209SOL     OW82523  13.653   1.444   2.324
60209SOL    HW182524  13.685   1.361   2.356
60209SOL    HW282525  13.731   1.498   2.313
60210SOL     OW82526   1.716  14.629   2.533
60210SOL    HW182527   1.627  14.641   2.500
60210SOL    HW282528   1.731  14.535   2.529
60211SOL     OW82529   1.070   1.966   6.184
60211SOL    HW182530   1.037   2.056   6.183
60211SOL    HW282531   1.138   1.966   6.251
60212SOL     OW82532   3.706   8.852   2.064
60212SOL    HW182533   3.748   8.831   2.147
60212SOL    HW282534   3.636   8.787   2.056
60213SOL     OW82535  13.266   2.373   7.896
60213SOL    HW182536  13.301   2.460   7.918
60213SOL    HW282537  13.175   2.376   7.926
60214SOL     OW82538   7.674  10.017   5.874
60214SOL    HW182539   7.705  10.081   5.938
60214SOL    HW282540   7.719  10.040   5.793
60215SOL     OW82541  13.871  13.106   4.701
60215SOL    HW182542  13.849  13.033   4.759
60215SOL    HW282543  13.821  13.180   4.736
60216SOL     OW82544   0.195   7.245   4.362
60216SOL    HW182545   0.202   7.285   4.276
60216SOL    HW282546   0.283   7.211   4.380
60217SOL     OW82547   1.213  14.714   3.823
60217SOL    HW182548   1.131  14.679   3.859
60217SOL    HW282549   1.268  14.636   3.807
60218SOL     OW82550   6.176  14.774   6.579
60218SOL    HW182551   6.190  14.864   6.607
60218SOL    HW282552   6.160  14.780   6.485
60219SOL     OW82553   8.306   8.168  10.199
60219SOL    HW182554   8.273   8.108  10.131
60219SOL    HW282555   8.261   8.251  10.182
60220SOL     OW82556  12.792   9.364   7.857
60220SOL    HW182557  12.769   9.375   7.765
60220SOL    HW282558  12.725   9.305   7.892
60221SOL     OW82559  12.472   2.438   2.264
60221SOL    HW182560  12.490   2.455   2.356
60221SOL    HW282561  12.557   2.442   2.221
60222SOL     OW82562   6.283  12.859   8.806
60222SOL    HW182563   6.293  12.899   8.892
60222SOL    HW282564   6.247  12.930   8.752
60223SOL     OW82565  12.303   4.054   0.400
60223SOL    HW182566  12.292   4.144   0.370
60223SOL    HW282567  12.343   4.008   0.326
60224SOL     OW82568   3.440   2.249  13.273
60224SOL    HW182569   3.465   2.162  13.241
60224SOL    HW282570   3.383   2.231  13.348
60225SOL     OW82571  10.337  14.292   8.997
60225SOL    HW182572  10.271  14.223   8.988
60225SOL    HW282573  10.317  14.353   8.926
60226SOL     OW82574  11.811  10.672  14.356
60226SOL    HW182575  11.744  10.640  14.296
60226SOL    HW282576  11.817  10.766  14.339
60227SOL     OW82577   6.630   7.592  14.766
60227SOL    HW182578   6.599   7.664  14.711
60227SOL    HW282579   6.560   7.526  14.761
60228SOL     OW82580  11.678  12.532  12.699
60228SOL    HW182581  11.678  12.436  12.699
60228SOL    HW282582  11.674  12.557  12.791
60229SOL     OW82583  11.050   4.130   1.375
60229SOL    HW182584  11.104   4.195   1.420
60229SOL    HW282585  11.010   4.078   1.446
60230SOL     OW82586   3.637   2.466   8.146
60230SOL    HW182587   3.697   2.431   8.211
60230SOL    HW282588   3.689   2.532   8.099
60231SOL     OW82589   4.061   4.704  12.783
60231SOL    HW182590   3.997   4.775  12.783
60231SOL    HW282591   4.009   4.625  12.791
60232SOL     OW82592  14.584  11.368   9.872
60232SOL    HW182593  14.554  11.410   9.953
60232SOL    HW282594  14.657  11.312   9.900
60233SOL     OW82595   1.003   4.924   0.706
60233SOL    HW182596   1.085   4.944   0.750
60233SOL    HW282597   0.944   4.894   0.775
60234SOL     OW82598   4.174  13.631   4.320
60234SOL    HW182599   4.118  13.644   4.244
60234SOL    HW282600   4.182  13.718   4.360
60235SOL     OW82601   0.497  10.173   5.019
60235SOL    HW182602   0.591  10.158   5.008
60235SOL    HW282603   0.490  10.227   5.098
60236SOL     OW82604   4.950   2.388   0.948
60236SOL    HW182605   4.855   2.377   0.937
60236SOL    HW282606   4.975   2.447   0.877
60237SOL     OW82607   1.882  10.729   8.340
60237SOL    HW182608   1.915  10.818   8.354
60237SOL    HW282609   1.788  10.739   8.327
60238SOL     OW82610   9.528   4.905  13.923
60238SOL    HW182611   9.445   4.953  13.917
60238SOL    HW282612   9.521   4.854  14.003
60239SOL     OW82613  14.587   5.792   7.982
60239SOL    HW182614  14.628   5.869   7.942
60239SOL    HW282615  14.620   5.718   7.930
60240SOL     OW82616  12.604   3.636  12.767
60240SOL    HW182617  12.655   3.715  12.783
60240SOL    HW282618  12.667   3.564  12.775
60241SOL     OW82619  12.222   4.695  12.128
60241SOL    HW182620  12.151   4.632  12.121
60241SOL    HW282621  12.194   4.755  12.197
60242SOL     OW82622   4.125   4.303   1.144
60242SOL    HW182623   4.217   4.330   1.140
60242SOL    HW282624   4.128   4.207   1.143
60243SOL     OW82625   9.485   4.962   3.577
60243SOL    HW182626   9.453   5.049   3.598
60243SOL    HW282627   9.565   4.977   3.526
60244SOL     OW82628  14.460   8.982  12.727
60244SOL    HW182629  14.375   8.998  12.769
60244SOL    HW282630  14.513   8.942  12.796
60245SOL     OW82631   6.994   4.527   2.047
60245SOL    HW182632   6.923   4.476   2.009
60245SOL    HW282633   6.957   4.562   2.128
60246SOL     OW82634   1.108  14.625   9.963
60246SOL    HW182635   1.166  14.657   9.894
60246SOL    HW282636   1.047  14.567   9.917
60247SOL     OW82637   5.120   2.814  14.622
60247SOL    HW182638   5.151   2.877  14.557
60247SOL    HW282639   5.102   2.868  14.700
60248SOL     OW82640   0.021  11.945  12.354
60248SOL    HW182641   0.038  12.008  12.283
60248SOL    HW282642   0.094  11.884  12.349
60249SOL     OW82643  12.322   3.610   3.671
60249SOL    HW182644  12.244   3.627   3.619
60249SOL    HW282645  12.333   3.515   3.668
60250SOL     OW82646  13.197   8.800  10.960
60250SOL    HW182647  13.211   8.866  10.892
60250SOL    HW282648  13.225   8.718  10.919
60251SOL     OW82649  13.983   3.798   3.927
60251SOL    HW182650  13.944   3.715   3.952
60251SOL    HW282651  14.017   3.784   3.839
60252SOL     OW82652  10.463   3.090  14.681
60252SOL    HW182653  10.496   3.171  14.641
60252SOL    HW282654  10.505   3.088  14.767
60253SOL     OW82655   2.637   3.764   9.713
60253SOL    HW182656   2.574   3.707   9.668
60253SOL    HW282657   2.722   3.722   9.697
60254SOL     OW82658  14.246  13.910  12.196
60254SOL    HW182659  14.304  13.910  12.120
60254SOL    HW282660  14.301  13.880  12.268
60255SOL     OW82661   1.338   9.568   7.648
60255SOL    HW182662   1.262   9.574   7.590
60255SOL    HW282663   1.339   9.651   7.696
60256SOL     OW82664   8.106   9.628   2.024
60256SOL    HW182665   8.127   9.677   1.944
60256SOL    HW282666   8.050   9.557   1.994
60257SOL     OW82667   2.622   8.452  11.728
60257SOL    HW182668   2.682   8.525  11.718
60257SOL    HW282669   2.628   8.428  11.820
60258SOL     OW82670   0.854   9.376  13.209
60258SOL    HW182671   0.852   9.460  13.256
60258SOL    HW282672   0.826   9.399  13.120
60259SOL     OW82673   5.492  11.392   0.759
60259SOL    HW182674   5.422  11.364   0.700
60259SOL    HW282675   5.449  11.449   0.822
60260SOL     OW82676  14.496   0.696   7.496
60260SOL    HW182677  14.562   0.641   7.537
60260SOL    HW282678  14.461   0.748   7.569
60261SOL     OW82679   4.976  14.038   9.983
60261SOL    HW182680   4.892  14.068   9.950
60261SOL    HW282681   4.955  13.981  10.056
60262SOL     OW82682   4.420   6.853   3.315
60262SOL    HW182683   4.427   6.760   3.293
60262SOL    HW282684   4.375   6.892   3.240
60263SOL     OW82685  12.919  14.793   5.138
60263SOL    HW182686  12.943  14.718   5.082
60263SOL    HW282687  12.981  14.788   5.211
60264SOL     OW82688   1.521   5.726   1.908
60264SOL    HW182689   1.535   5.766   1.994
60264SOL    HW282690   1.465   5.788   1.862
60265SOL     OW82691   2.109   1.285   5.506
60265SOL    HW182692   2.172   1.339   5.553
60265SOL    HW282693   2.026   1.331   5.514
60266SOL     OW82694   1.567   6.542   3.177
60266SOL    HW182695   1.489   6.585   3.212
60266SOL    HW282696   1.543   6.517   3.088
60267SOL     OW82697  10.783   1.759  11.839
60267SOL    HW182698  10.865   1.789  11.799
60267SOL    HW282699  10.747   1.837  11.880
60268SOL     OW82700  12.726   5.271   7.160
60268SOL    HW182701  12.726   5.285   7.066
60268SOL    HW282702  12.815   5.293   7.188
60269SOL     OW82703   8.706  12.662   6.809
60269SOL    HW182704   8.673  12.668   6.719
60269SOL    HW282705   8.706  12.568   6.829
60270SOL     OW82706   1.772   4.582   1.580
60270SOL    HW182707   1.691   4.534   1.560
60270SOL    HW282708   1.766   4.661   1.527
60271SOL     OW82709   1.186   8.870   8.515
60271SOL    HW182710   1.189   8.836   8.604
60271SOL    HW282711   1.093   8.864   8.490
60272SOL     OW82712   5.154   2.334   2.939
60272SOL    HW182713   5.169   2.391   2.864
60272SOL    HW282714   5.089   2.270   2.907
60273SOL     OW82715   1.426   7.655  10.914
60273SOL    HW182716   1.457   7.565  10.906
60273SOL    HW282717   1.350   7.659  10.856
60274SOL     OW82718   5.924   1.824  12.360
60274SOL    HW182719   5.902   1.740  12.400
60274SOL    HW282720   5.840   1.868  12.348
60275SOL     OW82721   3.448   1.059  12.655
60275SOL    HW182722   3.391   1.030  12.726
60275SOL    HW282723   3.514   0.990  12.648
60276SOL     OW82724   5.378   0.971   4.364
60276SOL    HW182725   5.308   0.972   4.429
60276SOL    HW282726   5.428   0.892   4.384
60277SOL     OW82727   3.367  12.473   0.704
60277SOL    HW182728   3.354  12.553   0.653
60277SOL    HW282729   3.391  12.407   0.639
60278SOL     OW82730   0.913   2.000   0.651
60278SOL    HW182731   0.883   2.087   0.678
60278SOL    HW282732   0.950   2.014   0.564
60279SOL     OW82733   5.306  11.412   2.680
60279SOL    HW182734   5.249  11.393   2.755
60279SOL    HW282735   5.367  11.478   2.712
60280SOL     OW82736   7.933   0.376   7.830
60280SOL    HW182737   7.965   0.437   7.897
60280SOL    HW282738   7.933   0.427   7.749
60281SOL     OW82739  12.451   0.751  14.465
60281SOL    HW182740  12.440   0.786  14.553
60281SOL    HW282741  12.366   0.711  14.444
60282SOL     OW82742   5.494   4.006   5.587
60282SOL    HW182743   5.521   3.918   5.563
60282SOL    HW282744   5.572   4.060   5.575
60283SOL     OW82745   6.149  11.970   4.409
60283SOL    HW182746   6.115  11.913   4.340
60283SOL    HW282747   6.097  12.050   4.402
60284SOL     OW82748  12.743   9.626  14.809
60284SOL    HW182749  12.768   9.534  14.809
60284SOL    HW282750  12.648   9.626  14.806
60285SOL     OW82751  13.180   1.387   0.247
60285SOL    HW182752  13.184   1.361   0.155
60285SOL    HW282753  13.192   1.483   0.245
60286SOL     OW82754  10.730   5.821  14.726
60286SOL    HW182755  10.746   5.868  14.644
60286SOL    HW282756  10.815   5.783  14.749
60287SOL     OW82757   0.141   1.726   6.531
60287SOL    HW182758   0.131   1.708   6.438
60287SOL    HW282759   0.219   1.676   6.557
60288SOL     OW82760  11.141   6.640  13.326
60288SOL    HW182761  11.070   6.615  13.267
60288SOL    HW282762  11.167   6.559  13.370
60289SOL     OW82763   5.226  13.460   1.400
60289SOL    HW182764   5.165  13.446   1.328
60289SOL    HW282765   5.174  13.502   1.468
60290SOL     OW82766   8.329   6.158   9.063
60290SOL    HW182767   8.256   6.196   9.013
60290SOL    HW282768   8.319   6.063   9.052
60291SOL     OW82769  11.564   7.427   4.216
60291SOL    HW182770  11.633   7.479   4.258
60291SOL    HW282771  11.535   7.366   4.284
60292SOL     OW82772   0.866   0.060   0.279
60292SOL    HW182773   0.907   0.061   0.193
60292SOL    HW282774   0.811   0.138   0.280
60293SOL     OW82775  11.797  10.486  12.338
60293SOL    HW182776  11.862  10.463  12.272
60293SOL    HW282777  11.717  10.442  12.309
60294SOL     OW82778   4.434   3.262   3.658
60294SOL    HW182779   4.402   3.208   3.730
60294SOL    HW282780   4.503   3.209   3.618
60295SOL     OW82781   1.456   3.582   2.141
60295SOL    HW182782   1.462   3.503   2.195
60295SOL    HW282783   1.539   3.628   2.155
60296SOL     OW82784   3.981   9.661   9.621
60296SOL    HW182785   4.030   9.736   9.654
60296SOL    HW282786   3.979   9.599   9.694
60297SOL     OW82787   3.643   8.399   2.220
60297SOL    HW182788   3.695   8.433   2.294
60297SOL    HW282789   3.556   8.435   2.233
60298SOL     OW82790   5.114   8.164   8.723
60298SOL    HW182791   5.083   8.181   8.634
60298SOL    HW282792   5.196   8.116   8.711
60299SOL     OW82793   8.762   4.851   4.480
60299SOL    HW182794   8.789   4.915   4.415
60299SOL    HW282795   8.828   4.859   4.550
60300SOL     OW82796  11.565  13.479   5.781
60300SOL    HW182797  11.633  13.546   5.777
60300SOL    HW282798  11.603  13.408   5.833
60301SOL     OW82799  11.933  10.800   1.998
60301SOL    HW182800  11.846  10.774   1.968
60301SOL    HW282801  11.980  10.825   1.918
60302SOL     OW82802   2.048  13.372  12.556
60302SOL    HW182803   1.965  13.386  12.602
60302SOL    HW282804   2.034  13.411  12.470
60303SOL     OW82805   9.489   2.222   4.566
60303SOL    HW182806   9.546   2.212   4.490
60303SOL    HW282807   9.535   2.176   4.637
60304SOL     OW82808   2.697   2.054   3.546
60304SOL    HW182809   2.757   2.128   3.559
60304SOL    HW282810   2.710   1.999   3.624
60305SOL     OW82811  11.276   7.582  12.713
60305SOL    HW182812  11.344   7.559  12.649
60305SOL    HW282813  11.259   7.500  12.760
60306SOL     OW82814  10.442  11.519  10.868
60306SOL    HW182815  10.529  11.498  10.834
60306SOL    HW282816  10.383  11.464  10.817
60307SOL     OW82817   2.916  13.059   4.264
60307SOL    HW182818   2.964  13.025   4.189
60307SOL    HW282819   2.977  13.118   4.308
60308SOL     OW82820   9.823  10.290  12.147
60308SOL    HW182821   9.784  10.238  12.077
60308SOL    HW282822   9.917  10.293  12.125
60309SOL     OW82823   5.179  14.598   1.877
60309SOL    HW182824   5.227  14.567   1.800
60309SOL    HW282825   5.156  14.688   1.857
60310SOL     OW82826  13.875   5.136   5.343
60310SOL    HW182827  13.783   5.109   5.339
60310SOL    HW282828  13.873   5.222   5.383
60311SOL     OW82829  12.006  12.790   2.817
60311SOL    HW182830  11.952  12.752   2.749
60311SOL    HW282831  12.010  12.883   2.796
60312SOL     OW82832   8.684  14.850   6.852
60312SOL    HW182833   8.704  14.845   6.946
60312SOL    HW282834   8.593   0.007   6.849
60313SOL     OW82835   0.580   4.460  14.608
60313SOL    HW182836   0.494   4.421  14.622
60313SOL    HW282837   0.641   4.400  14.652
60314SOL     OW82838  10.875   2.461   3.808
60314SOL    HW182839  10.889   2.541   3.756
60314SOL    HW282840  10.786   2.471   3.842
60315SOL     OW82841   7.154   7.702  12.817
60315SOL    HW182842   7.069   7.658  12.828
60315SOL    HW282843   7.133   7.794  12.805
60316SOL     OW82844   6.671   2.307  10.394
60316SOL    HW182845   6.699   2.389  10.435
60316SOL    HW282846   6.751   2.255  10.388
60317SOL     OW82847  12.368   9.287   6.223
60317SOL    HW182848  12.288   9.254   6.182
60317SOL    HW282849  12.396   9.216   6.281
60318SOL     OW82850   6.189   8.774   6.256
60318SOL    HW182851   6.266   8.719   6.245
60318SOL    HW282852   6.124   8.735   6.197
60319SOL     OW82853   1.651  11.710   1.404
60319SOL    HW182854   1.657  11.759   1.487
60319SOL    HW282855   1.704  11.760   1.343
60320SOL     OW82856  11.124   6.041   8.725
60320SOL    HW182857  11.039   6.063   8.686
60320SOL    HW282858  11.185   6.105   8.689
60321SOL     OW82859  14.634   5.281  11.136
60321SOL    HW182860  14.576   5.340  11.185
60321SOL    HW282861  14.722   5.317  11.152
60322SOL     OW82862  14.218   4.555  12.275
60322SOL    HW182863  14.245   4.647  12.279
60322SOL    HW282864  14.296   4.506  12.299
60323SOL     OW82865  12.630   8.347   6.797
60323SOL    HW182866  12.542   8.381   6.780
60323SOL    HW282867  12.627   8.256   6.768
60324SOL     OW82868   7.121   3.073   0.022
60324SOL    HW182869   7.207   3.098   0.056
60324SOL    HW282870   7.136   2.989  14.850
60325SOL     OW82871   4.055   9.768   3.751
60325SOL    HW182872   4.030   9.680   3.780
60325SOL    HW282873   4.151   9.769   3.760
60326SOL     OW82874   6.439   3.769   1.337
60326SOL    HW182875   6.356   3.818   1.339
60326SOL    HW282876   6.506   3.837   1.329
60327SOL     OW82877  12.402   9.133   5.940
60327SOL    HW182878  12.449   9.053   5.964
60327SOL    HW282879  12.365   9.113   5.854
60328SOL     OW82880   4.839   4.563   2.559
60328SOL    HW182881   4.831   4.577   2.464
60328SOL    HW282882   4.888   4.482   2.567
60329SOL     OW82883   7.041   0.041   6.595
60329SOL    HW182884   7.082  14.868   6.521
60329SOL    HW282885   7.009  14.844   6.651
60330SOL     OW82886  10.370   1.604  11.797
60330SOL    HW182887  10.438   1.639  11.739
60330SOL    HW282888  10.314   1.552  11.740
60331SOL     OW82889  14.735   4.978  14.136
60331SOL    HW182890  14.794   5.034  14.185
60331SOL    HW282891  14.662   5.035  14.111
60332SOL     OW82892   4.939   6.636   5.872
60332SOL    HW182893   4.941   6.544   5.845
60332SOL    HW282894   5.029   6.666   5.861
60333SOL     OW82895  12.078  10.236   3.225
60333SOL    HW182896  12.048  10.187   3.148
60333SOL    HW282897  12.164  10.199   3.244
60334SOL     OW82898   4.216   6.707   5.554
60334SOL    HW182899   4.282   6.645   5.584
60334SOL    HW282900   4.191   6.756   5.632
60335SOL     OW82901   8.773   4.633   8.193
60335SOL    HW182902   8.770   4.653   8.099
60335SOL    HW282903   8.720   4.554   8.203
60336SOL     OW82904   1.353  13.750  13.333
60336SOL    HW182905   1.394  13.758  13.247
60336SOL    HW282906   1.283  13.816  13.332
60337SOL     OW82907   4.497   7.879   7.042
60337SOL    HW182908   4.548   7.958   7.023
60337SOL    HW282909   4.542   7.838   7.116
60338SOL     OW82910  12.178  12.704   0.965
60338SOL    HW182911  12.172  12.622   0.914
60338SOL    HW282912  12.264  12.700   1.007
60339SOL     OW82913   1.212   0.844   8.776
60339SOL    HW182914   1.280   0.835   8.709
60339SOL    HW282915   1.213   0.936   8.800
60340SOL     OW82916  13.837  10.992   7.571
60340SOL    HW182917  13.916  10.962   7.615
60340SOL    HW282918  13.863  11.071   7.524
60341SOL     OW82919  13.152   9.337  11.948
60341SOL    HW182920  13.107   9.276  11.890
60341SOL    HW282921  13.214   9.384  11.891
60342SOL     OW82922   6.734   0.765   0.963
60342SOL    HW182923   6.757   0.761   0.871
60342SOL    HW282924   6.809   0.727   1.009
60343SOL     OW82925   0.652   1.058   6.663
60343SOL    HW182926   0.661   1.018   6.749
60343SOL    HW282927   0.606   0.991   6.611
60344SOL     OW82928  10.463   8.060   4.524
60344SOL    HW182929  10.471   7.993   4.456
60344SOL    HW282930  10.374   8.094   4.514
60345SOL     OW82931   6.614   8.035   0.400
60345SOL    HW182932   6.619   8.028   0.496
60345SOL    HW282933   6.599   8.128   0.383
60346SOL     OW82934   1.758  13.734   3.277
60346SOL    HW182935   1.757  13.646   3.239
60346SOL    HW282936   1.782  13.791   3.205
60347SOL     OW82937   8.565   7.729   8.331
60347SOL    HW182938   8.641   7.696   8.284
60347SOL    HW282939   8.569   7.687   8.417
60348SOL     OW82940   6.377   0.914  14.583
60348SOL    HW182941   6.374   0.903  14.488
60348SOL    HW282942   6.352   0.828  14.617
60349SOL     OW82943   1.084   1.390   2.157
60349SOL    HW182944   1.041   1.467   2.195
60349SOL    HW282945   1.178   1.407   2.167
60350SOL     OW82946  12.705   8.953   1.517
60350SOL    HW182947  12.687   8.876   1.462
60350SOL    HW282948  12.785   8.931   1.564
60351SOL     OW82949  14.699  10.556  10.126
60351SOL    HW182950  14.739  10.635  10.090
60351SOL    HW282951  14.616  10.586  10.162
60352SOL     OW82952   1.094   5.077   5.298
60352SOL    HW182953   1.042   5.020   5.241
60352SOL    HW282954   1.045   5.080   5.380
60353SOL     OW82955   1.405   5.325  12.978
60353SOL    HW182956   1.324   5.311  12.929
60353SOL    HW282957   1.473   5.282  12.925
60354SOL     OW82958   8.344   9.241  13.536
60354SOL    HW182959   8.399   9.314  13.508
60354SOL    HW282960   8.330   9.256  13.629
60355SOL     OW82961   1.371  10.753   2.060
60355SOL    HW182962   1.316  10.831   2.066
60355SOL    HW282963   1.428  10.757   2.136
60356SOL     OW82964   5.921  11.089   4.946
60356SOL    HW182965   5.884  11.033   5.014
60356SOL    HW282966   5.872  11.171   4.953
60357SOL     OW82967  14.854  13.254  13.259
60357SOL    HW182968  14.832  13.338  13.219
60357SOL    HW282969  14.811  13.255  13.344
60358SOL     OW82970   9.938   5.541   6.981
60358SOL    HW182971  10.023   5.569   7.013
60358SOL    HW282972   9.956   5.505   6.894
60359SOL     OW82973   5.216  14.450   3.506
60359SOL    HW182974   5.200  14.357   3.490
60359SOL    HW282975   5.151  14.474   3.573
60360SOL     OW82976  13.767  13.307   6.104
60360SOL    HW182977  13.746  13.334   6.015
60360SOL    HW282978  13.755  13.212   6.104
60361SOL     OW82979   8.361   1.583   6.221
60361SOL    HW182980   8.283   1.539   6.188
60361SOL    HW282981   8.434   1.534   6.183
60362SOL     OW82982  13.233  10.062  12.139
60362SOL    HW182983  13.277  10.044  12.221
60362SOL    HW282984  13.152  10.011  12.143
60363SOL     OW82985   7.124   0.263  11.854
60363SOL    HW182986   7.098   0.355  11.851
60363SOL    HW282987   7.094   0.227  11.770
60364SOL     OW82988   8.298   5.959  14.344
60364SOL    HW182989   8.392   5.947  14.356
60364SOL    HW282990   8.287   6.054  14.341
60365SOL     OW82991  10.769   7.151   4.120
60365SOL    HW182992  10.700   7.091   4.091
60365SOL    HW282993  10.788   7.204   4.043
60366SOL     OW82994  12.278   3.662   5.448
60366SOL    HW182995  12.188   3.655   5.417
60366SOL    HW282996  12.286   3.751   5.480
60367SOL     OW82997  13.615   0.420   9.927
60367SOL    HW182998  13.704   0.411   9.893
60367SOL    HW282999  13.611   0.357  10.000
60368SOL     OW83000   3.732  12.910   6.125
60368SOL    HW183001   3.812  12.955   6.150
60368SOL    HW283002   3.694  12.967   6.057
60369SOL     OW83003  14.150  13.276  12.087
60369SOL    HW183004  14.233  13.301  12.128
60369SOL    HW283005  14.166  13.190  12.048
60370SOL     OW83006  14.142   4.186   6.831
60370SOL    HW183007  14.221   4.237   6.848
60370SOL    HW283008  14.123   4.202   6.738
60371SOL     OW83009   3.463  14.400   2.966
60371SOL    HW183010   3.470  14.466   2.896
60371SOL    HW283011   3.543  14.348   2.957
60372SOL     OW83012   9.369   3.358  10.860
60372SOL    HW183013   9.334   3.271  10.840
60372SOL    HW283014   9.292   3.410  10.883
60373SOL     OW83015   2.728  14.133   3.944
60373SOL    HW183016   2.658  14.077   3.979
60373SOL    HW283017   2.711  14.219   3.981
60374SOL     OW83018  13.127   5.249  11.747
60374SOL    HW183019  13.189   5.179  11.729
60374SOL    HW283020  13.085   5.266  11.662
60375SOL     OW83021  10.597   8.409   1.321
60375SOL    HW183022  10.538   8.351   1.369
60375SOL    HW283023  10.664   8.432   1.386
60376SOL     OW83024   0.237  12.429   6.709
60376SOL    HW183025   0.226  12.513   6.754
60376SOL    HW283026   0.320  12.437   6.663
60377SOL     OW83027   0.167   9.586   6.818
60377SOL    HW183028   0.221   9.508   6.820
60377SOL    HW283029   0.209   9.646   6.880
60378SOL     OW83030  10.971   7.910   7.562
60378SOL    HW183031  10.902   7.847   7.584
60378SOL    HW283032  11.047   7.880   7.613
60379SOL     OW83033  14.859   7.180   4.165
60379SOL    HW183034   0.066   7.130   4.146
60379SOL    HW283035  14.851   7.177   4.260
60380SOL     OW83036   6.588  13.911   1.490
60380SOL    HW183037   6.531  13.840   1.519
60380SOL    HW283038   6.528  13.980   1.462
60381SOL     OW83039   2.053   3.678   7.738
60381SOL    HW183040   2.022   3.589   7.723
60381SOL    HW283041   1.985   3.718   7.792
60382SOL     OW83042   1.933   3.398  12.929
60382SOL    HW183043   2.004   3.452  12.896
60382SOL    HW283044   1.971   3.311  12.941
60383SOL     OW83045   0.708  13.706   4.735
60383SOL    HW183046   0.658  13.641   4.687
60383SOL    HW283047   0.732  13.663   4.817
60384SOL     OW83048   0.688   4.975   3.734
60384SOL    HW183049   0.710   4.895   3.782
60384SOL    HW283050   0.772   5.018   3.719
60385SOL     OW83051  11.637   6.013   8.260
60385SOL    HW183052  11.679   5.995   8.176
60385SOL    HW283053  11.702   5.988   8.326
60386SOL     OW83054   6.286   1.718   1.967
60386SOL    HW183055   6.323   1.630   1.964
60386SOL    HW283056   6.264   1.732   2.059
60387SOL     OW83057   7.687   0.961   2.556
60387SOL    HW183058   7.776   0.995   2.562
60387SOL    HW283059   7.692   0.874   2.596
60388SOL     OW83060   1.401   8.374   3.609
60388SOL    HW183061   1.492   8.343   3.616
60388SOL    HW283062   1.348   8.298   3.633
60389SOL     OW83063  12.255   6.402   1.437
60389SOL    HW183064  12.160   6.407   1.434
60389SOL    HW283065  12.284   6.436   1.352
60390SOL     OW83066  12.734  10.091   0.200
60390SOL    HW183067  12.686  10.154   0.146
60390SOL    HW283068  12.678  10.077   0.276
60391SOL     OW83069  13.223  12.428  11.297
60391SOL    HW183070  13.229  12.380  11.380
60391SOL    HW283071  13.180  12.510  11.320
60392SOL     OW83072   7.703  13.032   7.007
60392SOL    HW183073   7.643  13.105   7.023
60392SOL    HW283074   7.790  13.068   7.029
60393SOL     OW83075   5.209   5.825   2.371
60393SOL    HW183076   5.137   5.880   2.341
60393SOL    HW283077   5.269   5.820   2.296
60394SOL     OW83078   8.182  12.501   5.267
60394SOL    HW183079   8.101  12.502   5.217
60394SOL    HW283080   8.190  12.591   5.302
60395SOL     OW83081   0.855  10.899   7.188
60395SOL    HW183082   0.832  10.941   7.105
60395SOL    HW283083   0.897  10.817   7.162
60396SOL     OW83084   8.865   7.431   7.462
60396SOL    HW183085   8.874   7.405   7.554
60396SOL    HW283086   8.862   7.348   7.414
60397SOL     OW83087   8.538  11.375  11.755
60397SOL    HW183088   8.634  11.380  11.750
60397SOL    HW283089   8.520  11.325  11.834
60398SOL     OW83090  10.151   9.873  11.605
60398SOL    HW183091  10.066   9.861  11.648
60398SOL    HW283092  10.157   9.800  11.544
60399SOL     OW83093   7.145   4.085  12.232
60399SOL    HW183094   7.157   4.176  12.260
60399SOL    HW283095   7.096   4.091  12.150
60400SOL     OW83096   4.369   1.221   0.994
60400SOL    HW183097   4.411   1.146   1.037
60400SOL    HW283098   4.326   1.268   1.065
60401SOL     OW83099  10.419  12.884   6.127
60401SOL    HW183100  10.355  12.956   6.125
60401SOL    HW283101  10.398  12.836   6.206
60402SOL     OW83102  11.703   0.752  11.284
60402SOL    HW183103  11.659   0.739  11.200
60402SOL    HW283104  11.637   0.792  11.340
60403SOL     OW83105   5.395  14.377  13.828
60403SOL    HW183106   5.300  14.393  13.823
60403SOL    HW283107   5.405  14.288  13.794
60404SOL     OW83108  14.484  11.821   2.731
60404SOL    HW183109  14.555  11.883   2.750
60404SOL    HW283110  14.405  11.875   2.731
60405SOL     OW83111   5.760   4.508   4.275
60405SOL    HW183112   5.673   4.538   4.247
60405SOL    HW283113   5.819   4.577   4.243
60406SOL     OW83114  13.522  12.989   5.518
60406SOL    HW183115  13.501  13.078   5.544
60406SOL    HW283116  13.513  12.938   5.598
60407SOL     OW83117   0.585  13.330  11.739
60407SOL    HW183118   0.506  13.275  11.735
60407SOL    HW283119   0.565  13.395  11.807
60408SOL     OW83120   3.116   3.226   9.790
60408SOL    HW183121   3.080   3.311   9.816
60408SOL    HW283122   3.113   3.226   9.695
60409SOL     OW83123   5.663   9.985   5.050
60409SOL    HW183124   5.748   9.995   5.092
60409SOL    HW283125   5.661  10.053   4.983
60410SOL     OW83126   9.326  10.534  10.743
60410SOL    HW183127   9.379  10.473  10.691
60410SOL    HW283128   9.251  10.555  10.687
60411SOL     OW83129   6.760   1.067   2.701
60411SOL    HW183130   6.691   1.039   2.641
60411SOL    HW283131   6.748   1.162   2.709
60412SOL     OW83132   5.285   2.569   7.085
60412SOL    HW183133   5.213   2.603   7.137
60412SOL    HW283134   5.357   2.630   7.102
60413SOL     OW83135   0.668  11.107   2.809
60413SOL    HW183136   0.623  11.037   2.762
60413SOL    HW283137   0.658  11.084   2.902
60414SOL     OW83138   4.620   2.009   6.116
60414SOL    HW183139   4.629   1.972   6.203
60414SOL    HW283140   4.634   2.103   6.128
60415SOL     OW83141   2.001   2.148   3.362
60415SOL    HW183142   1.981   2.219   3.301
60415SOL    HW283143   2.068   2.185   3.420
60416SOL     OW83144  14.164   4.459   9.849
60416SOL    HW183145  14.095   4.452   9.915
60416SOL    HW283146  14.185   4.369   9.825
60417SOL     OW83147  12.603  12.673  10.095
60417SOL    HW183148  12.584  12.623  10.174
60417SOL    HW283149  12.632  12.607  10.032
60418SOL     OW83150   0.626   1.405   7.476
60418SOL    HW183151   0.647   1.314   7.500
60418SOL    HW283152   0.554   1.396   7.413
60419SOL     OW83153  13.214  11.505   0.760
60419SOL    HW183154  13.212  11.600   0.776
60419SOL    HW283155  13.296  11.490   0.714
60420SOL     OW83156   8.993   0.853   0.814
60420SOL    HW183157   8.897   0.847   0.822
60420SOL    HW283158   9.017   0.774   0.765
60421SOL     OW83159   0.337  10.493  10.514
60421SOL    HW183160   0.309  10.581  10.538
60421SOL    HW283161   0.292  10.436  10.576
60422SOL     OW83162  12.164  12.056   7.814
60422SOL    HW183163  12.188  12.012   7.732
60422SOL    HW283164  12.115  12.133   7.786
60423SOL     OW83165   2.566  13.419   4.800
60423SOL    HW183166   2.643  13.389   4.848
60423SOL    HW283167   2.599  13.480   4.735
60424SOL     OW83168  12.043   5.550   0.764
60424SOL    HW183169  11.983   5.578   0.832
60424SOL    HW283170  11.993   5.488   0.712
60425SOL     OW83171   1.204  14.036  11.407
60425SOL    HW183172   1.136  14.082  11.358
60425SOL    HW283173   1.227  13.961  11.352
60426SOL     OW83174   1.384   6.480   5.079
60426SOL    HW183175   1.418   6.457   4.993
60426SOL    HW283176   1.426   6.564   5.100
60427SOL     OW83177   2.338   5.054   9.371
60427SOL    HW183178   2.414   5.002   9.401
60427SOL    HW283179   2.335   5.128   9.432
60428SOL     OW83180   3.338   1.711   7.859
60428SOL    HW183181   3.398   1.736   7.788
60428SOL    HW283182   3.373   1.628   7.892
60429SOL     OW83183  14.400  12.042   1.136
60429SOL    HW183184  14.337  12.086   1.194
60429SOL    HW283185  14.464  12.110   1.114
60430SOL     OW83186   2.755   9.085   1.144
60430SOL    HW183187   2.815   9.159   1.139
60430SOL    HW283188   2.669   9.125   1.157
60431SOL     OW83189   1.827  11.319   9.416
60431SOL    HW183190   1.785  11.244   9.457
60431SOL    HW283191   1.772  11.394   9.440
60432SOL     OW83192   4.451   9.847   8.252
60432SOL    HW183193   4.399   9.898   8.190
60432SOL    HW283194   4.514   9.910   8.288
60433SOL     OW83195   2.811   0.733   1.272
60433SOL    HW183196   2.777   0.756   1.186
60433SOL    HW283197   2.751   0.666   1.305
60434SOL     OW83198   5.614  10.218  14.255
60434SOL    HW183199   5.603  10.209  14.349
60434SOL    HW283200   5.596  10.130  14.220
60435SOL     OW83201  12.400   7.532   8.697
60435SOL    HW183202  12.306   7.517   8.689
60435SOL    HW283203  12.435   7.449   8.731
60436SOL     OW83204   2.306   3.286   5.070
60436SOL    HW183205   2.337   3.364   5.024
60436SOL    HW283206   2.355   3.214   5.031
60437SOL     OW83207  13.675  10.363   5.114
60437SOL    HW183208  13.589  10.392   5.145
60437SOL    HW283209  13.704  10.299   5.179
60438SOL     OW83210   9.056   7.968   0.829
60438SOL    HW183211   9.023   7.996   0.743
60438SOL    HW283212   9.086   8.048   0.870
60439SOL     OW83213   3.819   7.764  13.868
60439SOL    HW183214   3.726   7.787  13.865
60439SOL    HW283215   3.864   7.849  13.862
60440SOL     OW83216   9.183   8.247  11.285
60440SOL    HW183217   9.190   8.338  11.255
60440SOL    HW283218   9.233   8.197  11.221
60441SOL     OW83219   4.543   3.625   6.019
60441SOL    HW183220   4.529   3.588   5.932
60441SOL    HW283221   4.517   3.556   6.079
60442SOL     OW83222  10.866   7.796  10.378
60442SOL    HW183223  10.904   7.790  10.290
60442SOL    HW283224  10.940   7.819  10.434
60443SOL     OW83225   5.158   0.361   8.370
60443SOL    HW183226   5.246   0.395   8.354
60443SOL    HW283227   5.128   0.409   8.447
60444SOL     OW83228   1.991   2.330   8.491
60444SOL    HW183229   1.916   2.280   8.459
60444SOL    HW283230   2.001   2.402   8.428
60445SOL     OW83231  14.720   5.145   0.638
60445SOL    HW183232  14.742   5.164   0.547
60445SOL    HW283233  14.794   5.177   0.688
60446SOL     OW83234  11.718  12.989   1.023
60446SOL    HW183235  11.766  12.913   0.989
60446SOL    HW283236  11.666  12.954   1.096
60447SOL     OW83237   5.291  12.428   0.434
60447SOL    HW183238   5.364  12.490   0.434
60447SOL    HW283239   5.333  12.342   0.425
60448SOL     OW83240   5.624   5.684   5.041
60448SOL    HW183241   5.698   5.650   4.991
60448SOL    HW283242   5.655   5.687   5.131
60449SOL     OW83243  10.858   1.933   5.005
60449SOL    HW183244  10.797   1.934   5.079
60449SOL    HW283245  10.803   1.909   4.929
60450SOL     OW83246   1.610   5.879   7.904
60450SOL    HW183247   1.683   5.908   7.850
60450SOL    HW283248   1.581   5.958   7.951
60451SOL     OW83249  10.947   5.415  13.969
60451SOL    HW183250  10.868   5.386  14.015
60451SOL    HW283251  11.019   5.377  14.019
60452SOL     OW83252   1.524   9.875   7.290
60452SOL    HW183253   1.493   9.884   7.200
60452SOL    HW283254   1.509   9.783   7.312
60453SOL     OW83255   5.457  13.013   4.224
60453SOL    HW183256   5.447  13.090   4.168
60453SOL    HW283257   5.528  13.037   4.284
60454SOL     OW83258   8.774   5.280   5.494
60454SOL    HW183259   8.692   5.328   5.510
60454SOL    HW283260   8.826   5.338   5.439
60455SOL     OW83261   0.172   3.908  14.417
60455SOL    HW183262   0.202   3.835  14.362
60455SOL    HW283263   0.210   3.889  14.503
60456SOL     OW83264   0.066   1.454  11.196
60456SOL    HW183265  14.862   1.422  11.148
60456SOL    HW283266   0.099   1.527  11.143
60457SOL     OW83267   2.797  13.091   1.236
60457SOL    HW183268   2.843  13.050   1.163
60457SOL    HW283269   2.765  13.174   1.201
60458SOL     OW83270  11.094  10.006   7.113
60458SOL    HW183271  11.144   9.926   7.102
60458SOL    HW283272  11.010   9.978   7.149
60459SOL     OW83273  14.340   4.887   7.744
60459SOL    HW183274  14.248   4.869   7.766
60459SOL    HW283275  14.387   4.871   7.826
60460SOL     OW83276   2.469   3.689   5.700
60460SOL    HW183277   2.414   3.684   5.778
60460SOL    HW283278   2.504   3.601   5.688
60461SOL     OW83279   8.095   6.292   9.070
60461SOL    HW183280   8.130   6.349   9.002
60461SOL    HW283281   8.031   6.347   9.117
60462SOL     OW83282   5.428  11.814  12.739
60462SOL    HW183283   5.502  11.856  12.785
60462SOL    HW283284   5.353  11.870  12.759
60463SOL     OW83285   7.557  14.476  14.617
60463SOL    HW183286   7.541  14.501  14.526
60463SOL    HW283287   7.501  14.534  14.668
60464SOL     OW83288  11.049   6.883  10.227
60464SOL    HW183289  11.107   6.823  10.275
60464SOL    HW283290  11.103   6.913  10.153
60465SOL     OW83291   0.178  13.088   2.586
60465SOL    HW183292   0.217  13.022   2.529
60465SOL    HW283293   0.083  13.075   2.576
60466SOL     OW83294  14.571  13.908   5.092
60466SOL    HW183295  14.622  13.960   5.154
60466SOL    HW283296  14.605  13.933   5.006
60467SOL     OW83297   9.613   4.480   9.761
60467SOL    HW183298   9.571   4.402   9.795
60467SOL    HW283299   9.541   4.537   9.735
60468SOL     OW83300  10.942  13.736  10.333
60468SOL    HW183301  10.986  13.745  10.248
60468SOL    HW283302  10.860  13.691  10.313
60469SOL     OW83303   1.602   7.399   8.354
60469SOL    HW183304   1.547   7.476   8.339
60469SOL    HW283305   1.540   7.327   8.367
60470SOL     OW83306   7.107   2.044   6.526
60470SOL    HW183307   7.028   2.098   6.528
60470SOL    HW283308   7.127   2.027   6.618
60471SOL     OW83309  10.764   1.267   9.054
60471SOL    HW183310  10.802   1.281   8.967
60471SOL    HW283311  10.673   1.243   9.035
60472SOL     OW83312  10.339   6.843   8.452
60472SOL    HW183313  10.350   6.759   8.407
60472SOL    HW283314  10.348   6.909   8.384
60473SOL     OW83315  11.019   4.892   8.763
60473SOL    HW183316  11.092   4.875   8.703
60473SOL    HW283317  11.041   4.843   8.842
60474SOL     OW83318   3.190   6.807  13.095
60474SOL    HW183319   3.272   6.820  13.142
60474SOL    HW283320   3.135   6.881  13.120
60475SOL     OW83321   3.927  12.992   7.933
60475SOL    HW183322   3.929  12.978   7.838
60475SOL    HW283323   3.969  13.077   7.945
60476SOL     OW83324  10.839  13.625   0.601
60476SOL    HW183325  10.888  13.703   0.575
60476SOL    HW283326  10.748  13.653   0.601
60477SOL     OW83327   2.842  10.776  13.384
60477SOL    HW183328   2.815  10.725  13.307
60477SOL    HW283329   2.857  10.864  13.350
60478SOL     OW83330   5.935   3.894   4.786
60478SOL    HW183331   5.982   3.953   4.845
60478SOL    HW283332   5.951   3.929   4.699
60479SOL     OW83333   7.318   3.695   9.516
60479SOL    HW183334   7.394   3.690   9.458
60479SOL    HW283335   7.288   3.604   9.524
60480SOL     OW83336   2.654  13.982  13.193
60480SOL    HW183337   2.657  14.074  13.168
60480SOL    HW283338   2.636  13.983  13.287
60481SOL     OW83339  10.559   0.747   3.807
60481SOL    HW183340  10.573   0.800   3.885
60481SOL    HW283341  10.464   0.733   3.804
60482SOL     OW83342  13.573   3.852  10.651
60482SOL    HW183343  13.547   3.784  10.590
60482SOL    HW283344  13.629   3.808  10.715
60483SOL     OW83345  14.711   9.789   5.872
60483SOL    HW183346  14.755   9.823   5.950
60483SOL    HW283347  14.768   9.719   5.842
60484SOL     OW83348   0.832   9.078  12.444
60484SOL    HW183349   0.750   9.049  12.403
60484SOL    HW283350   0.901   9.042  12.387
60485SOL     OW83351  14.460   6.905   7.470
60485SOL    HW183352  14.548   6.913   7.434
60485SOL    HW283353  14.468   6.938   7.560
60486SOL     OW83354  14.704   7.028  11.959
60486SOL    HW183355  14.741   7.114  11.973
60486SOL    HW283356  14.760   6.968  12.008
60487SOL     OW83357   0.600   1.971   7.138
60487SOL    HW183358   0.602   2.010   7.050
60487SOL    HW283359   0.534   2.021   7.185
60488SOL     OW83360  11.487  11.053   2.099
60488SOL    HW183361  11.542  11.062   2.177
60488SOL    HW283362  11.439  11.136   2.094
60489SOL     OW83363   2.264   8.222   0.245
60489SOL    HW183364   2.268   8.298   0.303
60489SOL    HW283365   2.353   8.188   0.245
60490SOL     OW83366   1.604  13.253   6.368
60490SOL    HW183367   1.519  13.213   6.352
60490SOL    HW283368   1.668  13.192   6.331
60491SOL     OW83369   4.124   7.934   2.054
60491SOL    HW183370   4.214   7.918   2.082
60491SOL    HW283371   4.077   7.956   2.134
60492SOL     OW83372   8.480  13.148   8.179
60492SOL    HW183373   8.424  13.091   8.231
60492SOL    HW283374   8.458  13.237   8.206
60493SOL     OW83375  10.438   6.966   1.223
60493SOL    HW183376  10.397   7.029   1.281
60493SOL    HW283377  10.486   6.906   1.281
60494SOL     OW83378   4.012   5.456   3.861
60494SOL    HW183379   3.978   5.510   3.933
60494SOL    HW283380   4.103   5.440   3.884
60495SOL     OW83381   5.210  11.937   9.865
60495SOL    HW183382   5.231  12.018   9.911
60495SOL    HW283383   5.259  11.869   9.911
60496SOL     OW83384  11.350  14.461   8.653
60496SOL    HW183385  11.260  14.486   8.674
60496SOL    HW283386  11.385  14.536   8.605
60497SOL     OW83387   7.748   6.014   7.958
60497SOL    HW183388   7.700   5.939   7.993
60497SOL    HW283389   7.687   6.087   7.966
60498SOL     OW83390   9.381  12.854  11.687
60498SOL    HW183391   9.362  12.801  11.610
60498SOL    HW283392   9.306  12.841  11.744
60499SOL     OW83393   4.179  14.655  13.276
60499SOL    HW183394   4.146  14.599  13.346
60499SOL    HW283395   4.217  14.594  13.213
60500SOL     OW83396   4.947  13.165   9.349
60500SOL    HW183397   5.003  13.217   9.291
60500SOL    HW283398   5.008  13.119   9.406
60501SOL     OW83399   3.352   4.094  12.344
60501SOL    HW183400   3.324   4.059  12.259
60501SOL    HW283401   3.372   4.186  12.326
60502SOL     OW83402   1.370   2.545   4.818
60502SOL    HW183403   1.423   2.529   4.896
60502SOL    HW283404   1.298   2.600   4.848
60503SOL     OW83405   5.923   6.538  11.995
60503SOL    HW183406   5.995   6.594  12.025
60503SOL    HW283407   5.943   6.521  11.903
60504SOL     OW83408  14.390  11.463  11.960
60504SOL    HW183409  14.298  11.484  11.976
60504SOL    HW283410  14.411  11.396  12.025
60505SOL     OW83411   3.472   1.867  13.708
60505SOL    HW183412   3.523   1.881  13.629
60505SOL    HW283413   3.504   1.932  13.770
60506SOL     OW83414  12.188  12.342   0.227
60506SOL    HW183415  12.130  12.331   0.303
60506SOL    HW283416  12.178  12.260   0.178
60507SOL     OW83417   2.594  13.176   7.045
60507SOL    HW183418   2.597  13.191   7.139
60507SOL    HW283419   2.680  13.139   7.024
60508SOL     OW83420   4.540   7.408   7.933
60508SOL    HW183421   4.526   7.365   7.849
60508SOL    HW283422   4.453   7.410   7.974
60509SOL     OW83423   2.335   5.066   6.482
60509SOL    HW183424   2.405   5.096   6.423
60509SOL    HW283425   2.313   5.144   6.535
60510SOL     OW83426   6.473   5.824  11.060
60510SOL    HW183427   6.452   5.737  11.095
60510SOL    HW283428   6.459   5.815  10.965
60511SOL     OW83429   2.384  14.173   3.784
60511SOL    HW183430   2.346  14.122   3.855
60511SOL    HW283431   2.412  14.254   3.826
60512SOL     OW83432  11.372  12.640   1.953
60512SOL    HW183433  11.464  12.661   1.969
60512SOL    HW283434  11.332  12.725   1.935
60513SOL     OW83435   7.842   3.387  10.484
60513SOL    HW183436   7.774   3.368  10.419
60513SOL    HW283437   7.884   3.303  10.500
60514SOL     OW83438  12.133  11.734  10.366
60514SOL    HW183439  12.124  11.639  10.370
60514SOL    HW283440  12.171  11.751  10.280
60515SOL     OW83441   6.294   4.167   5.542
60515SOL    HW183442   6.201   4.171   5.563
60515SOL    HW283443   6.307   4.235   5.475
60516SOL     OW83444  13.198   7.960   5.490
60516SOL    HW183445  13.262   8.031   5.500
60516SOL    HW283446  13.118   7.994   5.528
60517SOL     OW83447   4.923   1.779   4.391
60517SOL    HW183448   4.896   1.687   4.394
60517SOL    HW283449   5.016   1.776   4.370
60518SOL     OW83450   6.285   6.482   0.550
60518SOL    HW183451   6.196   6.515   0.535
60518SOL    HW283452   6.297   6.488   0.645
60519SOL     OW83453   8.737   7.712   8.796
60519SOL    HW183454   8.750   7.630   8.844
60519SOL    HW283455   8.822   7.728   8.754
60520SOL     OW83456   1.268  12.880  11.590
60520SOL    HW183457   1.282  12.921  11.504
60520SOL    HW283458   1.352  12.887  11.634
60521SOL     OW83459   2.575  10.575   5.147
60521SOL    HW183460   2.528  10.540   5.071
60521SOL    HW283461   2.511  10.630   5.192
60522SOL     OW83462  11.259   0.019  10.727
60522SOL    HW183463  11.306   0.078  10.669
60522SOL    HW283464  11.321  14.822  10.747
60523SOL     OW83465  11.368   6.149   0.823
60523SOL    HW183466  11.427   6.206   0.773
60523SOL    HW283467  11.424   6.077   0.852
60524SOL     OW83468   6.453   0.824  13.221
60524SOL    HW183469   6.422   0.836  13.131
60524SOL    HW283470   6.397   0.882  13.273
60525SOL     OW83471   0.276   4.594   0.057
60525SOL    HW183472   0.190   4.573   0.019
60525SOL    HW283473   0.260   4.594   0.152
60526SOL     OW83474   3.714   6.211  12.750
60526SOL    HW183475   3.703   6.174  12.838
60526SOL    HW283476   3.626   6.234  12.722
60527SOL     OW83477  13.067  13.112  10.814
60527SOL    HW183478  13.068  13.126  10.719
60527SOL    HW283479  12.974  13.108  10.836
60528SOL     OW83480  12.468   4.890  10.654
60528SOL    HW183481  12.504   4.970  10.693
60528SOL    HW283482  12.397   4.921  10.597
60529SOL     OW83483   7.183   0.589   9.303
60529SOL    HW183484   7.268   0.548   9.289
60529SOL    HW283485   7.123   0.516   9.320
60530SOL     OW83486  14.292   2.526  10.115
60530SOL    HW183487  14.334   2.568  10.040
60530SOL    HW283488  14.262   2.441  10.081
60531SOL     OW83489  11.189   7.939   0.700
60531SOL    HW183490  11.216   7.962   0.789
60531SOL    HW283491  11.255   7.876   0.671
60532SOL     OW83492   7.405  13.545   0.792
60532SOL    HW183493   7.337  13.610   0.809
60532SOL    HW283494   7.419  13.549   0.698
60533SOL     OW83495  13.935   4.116  12.328
60533SOL    HW183496  13.898   4.197  12.362
60533SOL    HW283497  13.915   4.118  12.234
60534SOL     OW83498   8.936   7.761  11.961
60534SOL    HW183499   8.893   7.758  12.047
60534SOL    HW283500   8.867   7.790  11.902
60535SOL     OW83501  12.943  11.278   9.546
60535SOL    HW183502  12.853  11.307   9.530
60535SOL    HW283503  12.935  11.216   9.619
60536SOL     OW83504   4.218  10.128  13.052
60536SOL    HW183505   4.189  10.204  13.001
60536SOL    HW283506   4.295  10.160  13.100
60537SOL     OW83507   4.987   3.752   4.660
60537SOL    HW183508   5.021   3.766   4.749
60537SOL    HW283509   4.915   3.691   4.671
60538SOL     OW83510  14.699   3.484  11.833
60538SOL    HW183511  14.632   3.417  11.815
60538SOL    HW283512  14.700   3.492  11.929
60539SOL     OW83513  11.320   7.498   6.758
60539SOL    HW183514  11.409   7.525   6.779
60539SOL    HW283515  11.276   7.579   6.729
60540SOL     OW83516  10.290   3.385   8.187
60540SOL    HW183517  10.372   3.408   8.142
60540SOL    HW283518  10.299   3.423   8.274
60541SOL     OW83519   0.097   6.296   7.966
60541SOL    HW183520   0.133   6.382   7.942
60541SOL    HW283521   0.002   6.307   7.961
60542SOL     OW83522   5.900  10.604   5.954
60542SOL    HW183523   5.988  10.625   5.986
60542SOL    HW283524   5.869  10.686   5.915
60543SOL     OW83525  11.632  14.594   2.967
60543SOL    HW183526  11.651  14.625   3.055
60543SOL    HW283527  11.568  14.523   2.980
60544SOL     OW83528   5.307   4.388  14.571
60544SOL    HW183529   5.269   4.336  14.642
60544SOL    HW283530   5.345   4.323  14.512
60545SOL     OW83531  12.555   7.103   9.459
60545SOL    HW183532  12.562   7.184   9.408
60545SOL    HW283533  12.596   7.037   9.404
60546SOL     OW83534  10.777  10.294   8.456
60546SOL    HW183535  10.709  10.340   8.504
60546SOL    HW283536  10.801  10.353   8.385
60547SOL     OW83537  12.517   1.612   2.673
60547SOL    HW183538  12.524   1.521   2.643
60547SOL    HW283539  12.430   1.641   2.645
60548SOL     OW83540   8.217   4.081  12.712
60548SOL    HW183541   8.197   4.173  12.731
60548SOL    HW283542   8.135   4.034  12.731
60549SOL     OW83543   9.544   5.818   1.701
60549SOL    HW183544   9.485   5.787   1.633
60549SOL    HW283545   9.627   5.836   1.656
60550SOL     OW83546  11.454   6.402   8.100
60550SOL    HW183547  11.376   6.421   8.152
60550SOL    HW283548  11.439   6.448   8.018
60551SOL     OW83549   0.869   2.825  11.412
60551SOL    HW183550   0.928   2.804  11.340
60551SOL    HW283551   0.817   2.900  11.380
60552SOL     OW83552   2.160   5.048  14.636
60552SOL    HW183553   2.155   4.971  14.692
60552SOL    HW283554   2.254   5.061  14.622
60553SOL     OW83555   4.535   2.464   8.888
60553SOL    HW183556   4.576   2.396   8.941
60553SOL    HW283557   4.591   2.541   8.898
60554SOL     OW83558  11.371   4.203   5.752
60554SOL    HW183559  11.382   4.224   5.845
60554SOL    HW283560  11.446   4.148   5.730
60555SOL     OW83561   0.435  10.855   9.695
60555SOL    HW183562   0.461  10.945   9.675
60555SOL    HW283563   0.441  10.849   9.790
60556SOL     OW83564   0.744   1.977  12.575
60556SOL    HW183565   0.810   1.943  12.514
60556SOL    HW283566   0.707   1.899  12.616
60557SOL     OW83567   6.778   8.871   8.441
60557SOL    HW183568   6.775   8.849   8.348
60557SOL    HW283569   6.755   8.790   8.486
60558SOL     OW83570   9.934   8.119  13.915
60558SOL    HW183571   9.866   8.184  13.897
60558SOL    HW283572   9.891   8.052  13.968
60559SOL     OW83573   6.244  13.536   9.530
60559SOL    HW183574   6.176  13.533   9.463
60559SOL    HW283575   6.291  13.453   9.521
60560SOL     OW83576  11.239   3.448  12.829
60560SOL    HW183577  11.294   3.389  12.881
60560SOL    HW283578  11.292   3.528  12.821
60561SOL     OW83579   4.569   0.240   6.410
60561SOL    HW183580   4.575   0.333   6.387
60561SOL    HW283581   4.493   0.234   6.469
60562SOL     OW83582  14.612  13.474   4.686
60562SOL    HW183583  14.681  13.412   4.708
60562SOL    HW283584  14.533  13.439   4.728
60563SOL     OW83585   6.911   5.911   0.002
60563SOL    HW183586   6.834   5.858  14.855
60563SOL    HW283587   6.985   5.852  14.861
60564SOL     OW83588   4.240  12.844   6.949
60564SOL    HW183589   4.313  12.847   6.888
60564SOL    HW283590   4.234  12.751   6.974
60565SOL     OW83591   5.461   4.680   5.118
60565SOL    HW183592   5.530   4.661   5.055
60565SOL    HW283593   5.492   4.643   5.200
60566SOL     OW83594  13.701   2.277   8.234
60566SOL    HW183595  13.692   2.212   8.165
60566SOL    HW283596  13.693   2.361   8.189
60567SOL     OW83597   9.840  10.470   8.704
60567SOL    HW183598   9.891  10.497   8.628
60567SOL    HW283599   9.769  10.535   8.709
60568SOL     OW83600   4.832   3.845  12.205
60568SOL    HW183601   4.806   3.914  12.267
60568SOL    HW283602   4.924   3.830  12.224
60569SOL     OW83603   1.167   8.804  12.034
60569SOL    HW183604   1.096   8.863  12.012
60569SOL    HW283605   1.125   8.719  12.046
60570SOL     OW83606  12.140  14.575   0.218
60570SOL    HW183607  12.138  14.622   0.301
60570SOL    HW283608  12.075  14.505   0.228
60571SOL     OW83609  12.500  12.119   0.016
60571SOL    HW183610  12.428  12.086  14.834
60571SOL    HW283611  12.508  12.211  14.864
60572SOL     OW83612  10.863   3.278   8.648
60572SOL    HW183613  10.838   3.230   8.569
60572SOL    HW283614  10.906   3.214   8.704
60573SOL     OW83615  14.555  14.516   9.814
60573SOL    HW183616  14.617  14.537   9.744
60573SOL    HW283617  14.502  14.445   9.779
60574SOL     OW83618   3.997   4.394   2.038
60574SOL    HW183619   4.083   4.372   2.003
60574SOL    HW283620   3.941   4.320   2.014
60575SOL     OW83621  12.468  12.864   5.824
60575SOL    HW183622  12.510  12.895   5.743
60575SOL    HW283623  12.532  12.882   5.893
60576SOL     OW83624  12.758   1.861   3.795
60576SOL    HW183625  12.766   1.801   3.721
60576SOL    HW283626  12.785   1.946   3.760
60577SOL     OW83627  14.640  10.651   1.834
60577SOL    HW183628  14.641  10.629   1.927
60577SOL    HW283629  14.590  10.580   1.793
60578SOL     OW83630   8.785  10.397  11.356
60578SOL    HW183631   8.710  10.345  11.387
60578SOL    HW283632   8.757  10.430  11.271
60579SOL     OW83633   5.832  14.716  10.081
60579SOL    HW183634   5.883  14.635  10.086
60579SOL    HW283635   5.808  14.723   9.989
60580SOL     OW83636  12.140  11.891  14.078
60580SOL    HW183637  12.168  11.964  14.022
60580SOL    HW283638  12.062  11.924  14.123
60581SOL     OW83639   8.333  10.174   9.517
60581SOL    HW183640   8.413  10.198   9.563
60581SOL    HW283641   8.363  10.139   9.433
60582SOL     OW83642  13.433   3.923  10.328
60582SOL    HW183643  13.403   3.975  10.253
60582SOL    HW283644  13.382   3.842  10.324
60583SOL     OW83645   6.234   1.363  10.661
60583SOL    HW183646   6.328   1.343  10.664
60583SOL    HW283647   6.231   1.454  10.631
60584SOL     OW83648   8.237  11.752   3.235
60584SOL    HW183649   8.224  11.815   3.307
60584SOL    HW283650   8.251  11.668   3.279
60585SOL     OW83651   0.735   5.464   6.441
60585SOL    HW183652   0.831   5.462   6.443
60585SOL    HW283653   0.710   5.373   6.453
60586SOL     OW83654   5.841   7.557   7.558
60586SOL    HW183655   5.860   7.567   7.651
60586SOL    HW283656   5.899   7.620   7.515
60587SOL     OW83657   8.840   4.507  11.371
60587SOL    HW183658   8.871   4.549  11.291
60587SOL    HW283659   8.894   4.546  11.441
60588SOL     OW83660   4.710   1.448   7.957
60588SOL    HW183661   4.785   1.504   7.939
60588SOL    HW283662   4.709   1.439   8.052
60589SOL     OW83663   1.632   0.534   2.409
60589SOL    HW183664   1.677   0.526   2.493
60589SOL    HW283665   1.630   0.445   2.374
60590SOL     OW83666   5.250   0.132   3.699
60590SOL    HW183667   5.154   0.140   3.697
60590SOL    HW283668   5.279   0.176   3.619
60591SOL     OW83669   0.044  13.812  14.293
60591SOL    HW183670  14.845  13.875  14.300
60591SOL    HW283671   0.035  13.757  14.371
60592SOL     OW83672   8.760   0.452  14.708
60592SOL    HW183673   8.722   0.532  14.673
60592SOL    HW283674   8.766   0.467  14.803
60593SOL     OW83675   9.448   3.147   3.582
60593SOL    HW183676   9.499   3.087   3.528
60593SOL    HW283677   9.399   3.200   3.520
60594SOL     OW83678   4.681  11.345  13.143
60594SOL    HW183679   4.755  11.398  13.170
60594SOL    HW283680   4.604  11.401  13.157
60595SOL     OW83681  13.498   8.303  13.256
60595SOL    HW183682  13.536   8.306  13.168
60595SOL    HW283683  13.468   8.213  13.267
60596SOL     OW83684   5.339   8.373  12.116
60596SOL    HW183685   5.354   8.301  12.178
60596SOL    HW283686   5.244   8.380  12.109
60597SOL     OW83687  13.970   4.216   8.164
60597SOL    HW183688  14.045   4.202   8.107
60597SOL    HW283689  14.001   4.277   8.231
60598SOL     OW83690   1.751  11.355   5.873
60598SOL    HW183691   1.712  11.318   5.794
60598SOL    HW283692   1.808  11.425   5.841
60599SOL     OW83693  10.587   2.170   7.703
60599SOL    HW183694  10.574   2.264   7.719
60599SOL    HW283695  10.535   2.152   7.624
60600SOL     OW83696   0.222   8.445   6.947
60600SOL    HW183697   0.288   8.513   6.935
60600SOL    HW283698   0.212   8.405   6.860
60601SOL     OW83699   7.986  10.026   3.640
60601SOL    HW183700   7.993  10.107   3.588
60601SOL    HW283701   7.894  10.001   3.633
60602SOL     OW83702  10.322   1.728   8.467
60602SOL    HW183703  10.362   1.705   8.383
60602SOL    HW283704  10.234   1.690   8.462
60603SOL     OW83705   9.887   5.076  14.754
60603SOL    HW183706   9.807   5.068  14.807
60603SOL    HW283707   9.856   5.079  14.664
60604SOL     OW83708  12.925  12.599   8.030
60604SOL    HW183709  12.923  12.503   8.027
60604SOL    HW283710  12.889  12.627   7.946
60605SOL     OW83711   7.124  11.848  14.094
60605SOL    HW183712   7.051  11.895  14.054
60605SOL    HW283713   7.171  11.915  14.143
60606SOL     OW83714   4.111   2.592   1.962
60606SOL    HW183715   4.072   2.590   1.875
60606SOL    HW283716   4.204   2.610   1.946
60607SOL     OW83717  11.052   3.260  11.584
60607SOL    HW183718  11.075   3.230  11.672
60607SOL    HW283719  11.121   3.225  11.528
60608SOL     OW83720   5.041   0.077  11.114
60608SOL    HW183721   5.088   0.012  11.167
60608SOL    HW283722   5.091   0.158  11.126
60609SOL     OW83723   9.253   0.139   5.969
60609SOL    HW183724   9.336   0.170   6.005
60609SOL    HW283725   9.195   0.214   5.976
60610SOL     OW83726  12.931   3.737   4.879
60610SOL    HW183727  13.025   3.726   4.886
60610SOL    HW283728  12.918   3.832   4.874
60611SOL     OW83729  14.139   1.464  11.777
60611SOL    HW183730  14.097   1.487  11.694
60611SOL    HW283731  14.198   1.537  11.795
60612SOL     OW83732   2.379   6.090   1.405
60612SOL    HW183733   2.354   6.182   1.400
60612SOL    HW283734   2.473   6.091   1.417
60613SOL     OW83735  11.354   7.636   7.979
60613SOL    HW183736  11.311   7.619   7.895
60613SOL    HW283737  11.448   7.632   7.958
60614SOL     OW83738   0.313   1.883   3.417
60614SOL    HW183739   0.228   1.871   3.374
60614SOL    HW283740   0.294   1.943   3.490
60615SOL     OW83741   5.773   8.594   6.716
60615SOL    HW183742   5.816   8.659   6.661
60615SOL    HW283743   5.686   8.631   6.732
60616SOL     OW83744  11.240  12.370   6.447
60616SOL    HW183745  11.146  12.367   6.430
60616SOL    HW283746  11.257  12.462   6.469
60617SOL     OW83747   6.414   1.791  11.838
60617SOL    HW183748   6.330   1.826  11.865
60617SOL    HW283749   6.392   1.713  11.786
60618SOL     OW83750   6.010  11.554   1.893
60618SOL    HW183751   5.923  11.534   1.927
60618SOL    HW283752   6.036  11.634   1.939
60619SOL     OW83753   7.622  13.322   1.075
60619SOL    HW183754   7.662  13.367   1.150
60619SOL    HW283755   7.660  13.364   0.998
60620SOL     OW83756   8.433  10.796  10.458
60620SOL    HW183757   8.449  10.714  10.505
60620SOL    HW283758   8.520  10.834  10.446
60621SOL     OW83759   0.920   0.569   5.017
60621SOL    HW183760   0.935   0.663   5.013
60621SOL    HW283761   0.988   0.536   5.075
60622SOL     OW83762   1.169   3.512  13.688
60622SOL    HW183763   1.252   3.468  13.673
60622SOL    HW283764   1.147   3.551  13.603
60623SOL     OW83765   5.866  13.957   4.296
60623SOL    HW183766   5.881  13.953   4.202
60623SOL    HW283767   5.945  14.000   4.331
60624SOL     OW83768  12.059  13.736   2.231
60624SOL    HW183769  12.003  13.660   2.212
60624SOL    HW283770  12.092  13.719   2.319
60625SOL     OW83771   0.022  14.457  11.808
60625SOL    HW183772   0.018  14.366  11.835
60625SOL    HW283773   0.070  14.501  11.878
60626SOL     OW83774  12.284   3.005  11.137
60626SOL    HW183775  12.326   2.997  11.223
60626SOL    HW283776  12.346   2.966  11.076
60627SOL     OW83777  14.297   8.612   6.457
60627SOL    HW183778  14.209   8.634   6.427
60627SOL    HW283779  14.327   8.689   6.505
60628SOL     OW83780   9.708   9.314  13.618
60628SOL    HW183781   9.736   9.351  13.534
60628SOL    HW283782   9.620   9.279  13.600
60629SOL     OW83783   8.988  11.966  10.683
60629SOL    HW183784   9.049  11.954  10.755
60629SOL    HW283785   9.035  12.020  10.620
60630SOL     OW83786  13.443   1.127   6.094
60630SOL    HW183787  13.507   1.167   6.036
60630SOL    HW283788  13.482   1.043   6.119
60631SOL     OW83789   9.197   4.992   1.246
60631SOL    HW183790   9.155   4.934   1.310
60631SOL    HW283791   9.189   5.080   1.284
60632SOL     OW83792   9.435   1.060   1.761
60632SOL    HW183793   9.434   0.975   1.805
60632SOL    HW283794   9.506   1.054   1.697
60633SOL     OW83795  10.167   0.463   7.248
60633SOL    HW183796  10.073   0.446   7.257
60633SOL    HW283797  10.207   0.377   7.263
60634SOL     OW83798  11.954   0.351   4.686
60634SOL    HW183799  11.916   0.266   4.708
60634SOL    HW283800  12.027   0.330   4.627
60635SOL     OW83801  10.636   9.454  13.627
60635SOL    HW183802  10.725   9.485  13.643
60635SOL    HW283803  10.632   9.440  13.533
60636SOL     OW83804  13.396   5.608   7.469
60636SOL    HW183805  13.354   5.623   7.384
60636SOL    HW283806  13.326   5.573   7.524
60637SOL     OW83807   4.563   5.232   1.742
60637SOL    HW183808   4.543   5.165   1.807
60637SOL    HW283809   4.607   5.185   1.671
60638SOL     OW83810   9.012   1.988  13.101
60638SOL    HW183811   9.056   2.066  13.136
60638SOL    HW283812   9.069   1.958  13.030
60639SOL     OW83813   4.232  13.488  11.149
60639SOL    HW183814   4.240  13.570  11.099
60639SOL    HW283815   4.322  13.467  11.174
60640SOL     OW83816   8.059  12.155   7.689
60640SOL    HW183817   7.995  12.172   7.757
60640SOL    HW283818   8.083  12.063   7.701
60641SOL     OW83819   6.682   5.207  14.021
60641SOL    HW183820   6.734   5.286  14.002
60641SOL    HW283821   6.631   5.230  14.099
60642SOL     OW83822  14.825   6.290  13.929
60642SOL    HW183823  14.732   6.311  13.932
60642SOL    HW283824  14.864   6.361  13.877
60643SOL     OW83825  13.938   7.989   8.412
60643SOL    HW183826  13.979   8.062   8.458
60643SOL    HW283827  13.968   7.911   8.459
60644SOL     OW83828  13.496  10.344  13.290
60644SOL    HW183829  13.556  10.272  13.310
60644SOL    HW283830  13.536  10.420  13.331
60645SOL     OW83831   7.378  14.362   4.322
60645SOL    HW183832   7.473  14.364   4.330
60645SOL    HW283833   7.348  14.314   4.400
60646SOL     OW83834   1.933   4.592   5.054
60646SOL    HW183835   1.925   4.638   4.970
60646SOL    HW283836   2.005   4.531   5.041
60647SOL     OW83837  14.492  13.328   3.292
60647SOL    HW183838  14.451  13.386   3.356
60647SOL    HW283839  14.446  13.244   3.302
60648SOL     OW83840   2.704   9.886   9.092
60648SOL    HW183841   2.762   9.956   9.061
60648SOL    HW283842   2.624   9.932   9.119
60649SOL     OW83843   7.545   4.891   2.045
60649SOL    HW183844   7.528   4.805   2.083
60649SOL    HW283845   7.574   4.945   2.119
60650SOL     OW83846   5.087   6.344   5.527
60650SOL    HW183847   5.175   6.368   5.496
60650SOL    HW283848   5.028   6.405   5.482
60651SOL     OW83849   8.707   5.949   6.459
60651SOL    HW183850   8.761   5.885   6.412
60651SOL    HW283851   8.714   5.924   6.551
60652SOL     OW83852  13.016  14.525   1.058
60652SOL    HW183853  13.074  14.519   0.981
60652SOL    HW283854  12.953  14.592   1.034
60653SOL     OW83855  12.384  12.670   9.820
60653SOL    HW183856  12.458  12.622   9.856
60653SOL    HW283857  12.418  12.709   9.739
60654SOL     OW83858  13.569   7.227   3.994
60654SOL    HW183859  13.499   7.221   4.059
60654SOL    HW283860  13.583   7.321   3.983
60655SOL     OW83861   7.659   9.774   4.309
60655SOL    HW183862   7.621   9.849   4.264
60655SOL    HW283863   7.681   9.806   4.397
60656SOL     OW83864   8.287   8.057  13.118
60656SOL    HW183865   8.291   7.961  13.123
60656SOL    HW283866   8.262   8.075  13.028
60657SOL     OW83867   2.061   1.056   0.691
60657SOL    HW183868   2.110   1.011   0.623
60657SOL    HW283869   2.115   1.048   0.770
60658SOL     OW83870   6.308   0.956   1.171
60658SOL    HW183871   6.327   0.926   1.082
60658SOL    HW283872   6.337   1.047   1.172
60659SOL     OW83873   1.082   4.550  13.611
60659SOL    HW183874   1.133   4.522  13.687
60659SOL    HW283875   1.108   4.641  13.597
60660SOL     OW83876  10.030  11.415  13.914
60660SOL    HW183877  10.123  11.409  13.889
60660SOL    HW283878  10.032  11.448  14.003
60661SOL     OW83879   9.678   2.202   4.370
60661SOL    HW183880   9.761   2.246   4.390
60661SOL    HW283881   9.701   2.109   4.367
60662SOL     OW83882   9.235  12.586  14.091
60662SOL    HW183883   9.209  12.507  14.042
60662SOL    HW283884   9.188  12.580  14.174
60663SOL     OW83885   0.406   4.662   0.843
60663SOL    HW183886   0.384   4.755   0.846
60663SOL    HW283887   0.477   4.652   0.906
60664SOL     OW83888  11.839   6.380   6.233
60664SOL    HW183889  11.798   6.438   6.298
60664SOL    HW283890  11.767   6.349   6.179
60665SOL     OW83891   0.693   9.157   4.300
60665SOL    HW183892   0.705   9.081   4.356
60665SOL    HW283893   0.679   9.121   4.213
60666SOL     OW83894  14.836  13.566   2.374
60666SOL    HW183895  14.867  13.505   2.307
60666SOL    HW283896   0.031  13.634   2.379
60667SOL     OW83897   8.439   3.038  11.971
60667SOL    HW183898   8.394   3.122  11.963
60667SOL    HW283899   8.437   3.002  11.882
60668SOL     OW83900   0.159  12.326   1.789
60668SOL    HW183901   0.227  12.391   1.809
60668SOL    HW283902   0.197  12.270   1.722
60669SOL     OW83903   3.545   4.325   8.361
60669SOL    HW183904   3.577   4.244   8.320
60669SOL    HW283905   3.493   4.295   8.435
60670SOL     OW83906   2.910   4.744   8.035
60670SOL    HW183907   2.983   4.803   8.015
60670SOL    HW283908   2.932   4.663   7.990
60671SOL     OW83909   1.197   8.540  14.317
60671SOL    HW183910   1.107   8.540  14.350
60671SOL    HW283911   1.226   8.449  14.330
60672SOL     OW83912  12.763   8.617  14.453
60672SOL    HW183913  12.843   8.670  14.458
60672SOL    HW283914  12.768   8.575  14.367
60673SOL     OW83915   9.725  10.170   2.875
60673SOL    HW183916   9.739  10.164   2.781
60673SOL    HW283917   9.658  10.104   2.894
60674SOL     OW83918   1.382   8.842   0.443
60674SOL    HW183919   1.348   8.772   0.498
60674SOL    HW283920   1.305   8.895   0.420
60675SOL     OW83921  11.139  14.764   8.165
60675SOL    HW183922  11.132  14.859   8.163
60675SOL    HW283923  11.126  14.738   8.074
60676SOL     OW83924   0.811   8.196   4.326
60676SOL    HW183925   0.730   8.146   4.315
60676SOL    HW283926   0.854   8.157   4.402
60677SOL     OW83927   9.224  14.507   1.671
60677SOL    HW183928   9.242  14.457   1.750
60677SOL    HW283929   9.307  14.548   1.648
60678SOL     OW83930  12.393   5.880   6.951
60678SOL    HW183931  12.425   5.849   7.035
60678SOL    HW283932  12.305   5.914   6.969
60679SOL     OW83933   3.303   3.416  13.213
60679SOL    HW183934   3.347   3.501  13.214
60679SOL    HW283935   3.211   3.437  13.197
60680SOL     OW83936   3.584   6.079   7.517
60680SOL    HW183937   3.651   6.091   7.584
60680SOL    HW283938   3.521   6.019   7.556
60681SOL     OW83939   3.894   6.124  11.637
60681SOL    HW183940   3.968   6.090  11.587
60681SOL    HW283941   3.893   6.073  11.718
60682SOL     OW83942   4.206   2.866   9.391
60682SOL    HW183943   4.248   2.855   9.306
60682SOL    HW283944   4.174   2.956   9.390
60683SOL     OW83945   3.159  12.737   1.445
60683SOL    HW183946   3.111  12.819   1.431
60683SOL    HW283947   3.230  12.760   1.505
60684SOL     OW83948   9.533  13.521   5.798
60684SOL    HW183949   9.530  13.529   5.703
60684SOL    HW283950   9.443  13.539   5.826
60685SOL     OW83951   0.887   4.933  10.426
60685SOL    HW183952   0.932   4.849  10.434
60685SOL    HW283953   0.800   4.910  10.395
60686SOL     OW83954   6.404  11.473  10.482
60686SOL    HW183955   6.334  11.487  10.418
60686SOL    HW283956   6.401  11.379  10.500
60687SOL     OW83957  10.416   1.294  12.317
60687SOL    HW183958  10.491   1.351  12.302
60687SOL    HW283959  10.447   1.206  12.299
60688SOL     OW83960  12.835   0.109   0.672
60688SOL    HW183961  12.817   0.078   0.760
60688SOL    HW283962  12.814   0.035   0.615
60689SOL     OW83963   9.365   4.340   8.597
60689SOL    HW183964   9.350   4.253   8.558
60689SOL    HW283965   9.315   4.339   8.678
60690SOL     OW83966  12.259  12.172  10.936
60690SOL    HW183967  12.203  12.214  10.871
60690SOL    HW283968  12.232  12.080  10.936
60691SOL     OW83969   3.298   9.115  10.163
60691SOL    HW183970   3.277   9.064  10.084
60691SOL    HW283971   3.230   9.091  10.226
60692SOL     OW83972  11.169   1.609   5.526
60692SOL    HW183973  11.101   1.654   5.575
60692SOL    HW283974  11.180   1.661   5.446
60693SOL     OW83975   2.440   0.880   3.465
60693SOL    HW183976   2.370   0.815   3.472
60693SOL    HW283977   2.451   0.892   3.370
60694SOL     OW83978  12.025   0.695   7.344
60694SOL    HW183979  12.091   0.764   7.341
60694SOL    HW283980  12.050   0.640   7.418
60695SOL     OW83981  12.352   7.224  12.951
60695SOL    HW183982  12.262   7.193  12.950
60695SOL    HW283983  12.389   7.186  13.031
60696SOL     OW83984  13.891  10.029   2.946
60696SOL    HW183985  13.803  10.057   2.970
60696SOL    HW283986  13.877   9.959   2.882
60697SOL     OW83987   5.950  10.439  11.380
60697SOL    HW183988   5.925  10.468  11.468
60697SOL    HW283989   5.957  10.344  11.388
60698SOL     OW83990  14.793  12.157   8.450
60698SOL    HW183991  14.746  12.208   8.384
60698SOL    HW283992  14.727  12.095   8.483
60699SOL     OW83993   7.122   4.843  10.152
60699SOL    HW183994   7.035   4.850  10.112
60699SOL    HW283995   7.174   4.911  10.110
60700SOL     OW83996   3.081   5.250   7.127
60700SOL    HW183997   3.100   5.190   7.199
60700SOL    HW283998   3.151   5.236   7.064
60701SOL     OW83999   4.394   1.940   9.469
60701SOL    HW184000   4.325   1.888   9.428
60701SOL    HW284001   4.398   1.907   9.559
60702SOL     OW84002   0.141  11.387   9.061
60702SOL    HW184003   0.079  11.418   8.995
60702SOL    HW284004   0.086  11.343   9.126
60703SOL     OW84005   4.157   2.775   4.221
60703SOL    HW184006   4.187   2.761   4.311
60703SOL    HW284007   4.202   2.708   4.170
60704SOL     OW84008   4.289   5.489   7.431
60704SOL    HW184009   4.380   5.459   7.441
60704SOL    HW284010   4.245   5.458   7.510
60705SOL     OW84011  11.774  13.574   9.597
60705SOL    HW184012  11.740  13.661   9.576
60705SOL    HW284013  11.729  13.550   9.678
60706SOL     OW84014  13.607  10.431   4.140
60706SOL    HW184015  13.539  10.363   4.141
60706SOL    HW284016  13.688  10.383   4.124
60707SOL     OW84017   3.218  11.843   5.771
60707SOL    HW184018   3.273  11.765   5.781
60707SOL    HW284019   3.213  11.880   5.859
60708SOL     OW84020   0.983  14.254   2.845
60708SOL    HW184021   1.033  14.218   2.771
60708SOL    HW284022   0.995  14.190   2.915
60709SOL     OW84023   7.158   8.220   2.549
60709SOL    HW184024   7.160   8.139   2.498
60709SOL    HW284025   7.208   8.200   2.628
60710SOL     OW84026  13.391  14.759   5.712
60710SOL    HW184027  13.482  14.785   5.724
60710SOL    HW284028  13.345  14.794   5.788
60711SOL     OW84029   6.475   0.849   7.739
60711SOL    HW184030   6.559   0.806   7.722
60711SOL    HW284031   6.415   0.811   7.674
60712SOL     OW84032  13.272   1.258   3.863
60712SOL    HW184033  13.288   1.197   3.935
60712SOL    HW284034  13.225   1.331   3.903
60713SOL     OW84035  10.141   5.862  13.273
60713SOL    HW184036  10.230   5.878  13.306
60713SOL    HW284037  10.084   5.912  13.331
60714SOL     OW84038  13.284   3.688  10.903
60714SOL    HW184039  13.276   3.648  10.989
60714SOL    HW284040  13.344   3.761  10.916
60715SOL     OW84041  11.449   9.294   2.908
60715SOL    HW184042  11.441   9.303   3.003
60715SOL    HW284043  11.439   9.200   2.892
60716SOL     OW84044  13.087  12.099   0.353
60716SOL    HW184045  12.999  12.112   0.317
60716SOL    HW284046  13.115  12.186   0.379
60717SOL     OW84047  13.354   9.636   3.354
60717SOL    HW184048  13.415   9.700   3.390
60717SOL    HW284049  13.332   9.670   3.268
60718SOL     OW84050   9.961  11.349   2.381
60718SOL    HW184051   9.887  11.369   2.439
60718SOL    HW284052  10.034  11.332   2.441
60719SOL     OW84053   9.473  12.824   3.878
60719SOL    HW184054   9.473  12.748   3.936
60719SOL    HW284055   9.566  12.842   3.863
60720SOL     OW84056  11.711  10.365   7.531
60720SOL    HW184057  11.804  10.370   7.511
60720SOL    HW284058  11.673  10.323   7.454
60721SOL     OW84059  12.985  12.038   6.984
60721SOL    HW184060  12.890  12.051   6.980
60721SOL    HW284061  13.013  12.086   7.062
60722SOL     OW84062   8.475   8.133   9.860
60722SOL    HW184063   8.475   8.040   9.883
60722SOL    HW284064   8.383   8.156   9.854
60723SOL     OW84065  12.549   7.582  14.201
60723SOL    HW184066  12.557   7.499  14.154
60723SOL    HW284067  12.627   7.632  14.174
60724SOL     OW84068   5.451  10.188   7.969
60724SOL    HW184069   5.369  10.238   7.977
60724SOL    HW284070   5.520  10.254   7.978
60725SOL     OW84071  14.040   8.431   1.127
60725SOL    HW184072  13.998   8.508   1.090
60725SOL    HW284073  13.986   8.358   1.097
60726SOL     OW84074   1.240   3.727   7.608
60726SOL    HW184075   1.206   3.674   7.535
60726SOL    HW284076   1.331   3.744   7.585
60727SOL     OW84077  12.113   1.442  10.750
60727SOL    HW184078  12.164   1.422  10.671
60727SOL    HW284079  12.024   1.414  10.729
60728SOL     OW84080   4.452  11.126   6.065
60728SOL    HW184081   4.371  11.121   6.115
60728SOL    HW284082   4.518  11.088   6.122
60729SOL     OW84083   3.388   9.018  13.712
60729SOL    HW184084   3.437   9.018  13.794
60729SOL    HW284085   3.296   9.013  13.738
60730SOL     OW84086   5.905  13.255  14.766
60730SOL    HW184087   5.985  13.306  14.767
60730SOL    HW284088   5.862  13.280  14.684
60731SOL     OW84089   3.356   2.241   9.962
60731SOL    HW184090   3.316   2.317   9.919
60731SOL    HW284091   3.351   2.261  10.055
60732SOL     OW84092   5.592   0.443  11.794
60732SOL    HW184093   5.622   0.360  11.829
60732SOL    HW284094   5.666   0.503  11.805
60733SOL     OW84095   3.227  10.577   3.791
60733SOL    HW184096   3.178  10.618   3.720
60733SOL    HW284097   3.176  10.499   3.814
60734SOL     OW84098   9.089   8.643   9.040
60734SOL    HW184099   9.165   8.592   9.013
60734SOL    HW284100   9.066   8.608   9.126
60735SOL     OW84101  12.687   3.940   7.024
60735SOL    HW184102  12.759   3.908   7.079
60735SOL    HW284103  12.612   3.947   7.083
60736SOL     OW84104   2.557   6.597  10.224
60736SOL    HW184105   2.516   6.539  10.159
60736SOL    HW284106   2.607   6.538  10.280
60737SOL     OW84107   9.140  10.811   9.467
60737SOL    HW184108   9.059  10.767   9.443
60737SOL    HW284109   9.125  10.842   9.556
60738SOL     OW84110  13.512   1.915   8.125
60738SOL    HW184111  13.445   1.851   8.148
60738SOL    HW284112  13.594   1.876   8.155
60739SOL     OW84113  11.835   2.586   5.324
60739SOL    HW184114  11.797   2.581   5.237
60739SOL    HW284115  11.883   2.503   5.334
60740SOL     OW84116   3.501  14.790   4.702
60740SOL    HW184117   3.595  14.769   4.698
60740SOL    HW284118   3.497  14.865   4.761
60741SOL     OW84119  14.822   8.982   3.506
60741SOL    HW184120  14.844   8.906   3.560
60741SOL    HW284121  14.796   9.049   3.569
60742SOL     OW84122  12.877  11.276   1.395
60742SOL    HW184123  12.895  11.185   1.370
60742SOL    HW284124  12.793  11.271   1.442
60743SOL     OW84125   8.453   7.043   8.323
60743SOL    HW184126   8.389   7.113   8.333
60743SOL    HW284127   8.459   7.029   8.228
60744SOL     OW84128   4.727   0.128   7.097
60744SOL    HW184129   4.696   0.180   7.172
60744SOL    HW284130   4.647   0.096   7.055
60745SOL     OW84131   2.530   2.336   5.055
60745SOL    HW184132   2.445   2.374   5.078
60745SOL    HW284133   2.530   2.251   5.099
60746SOL     OW84134  10.650   7.897  10.865
60746SOL    HW184135  10.732   7.865  10.903
60746SOL    HW284136  10.611   7.951  10.934
60747SOL     OW84137   4.375   8.917  13.421
60747SOL    HW184138   4.419   8.956  13.496
60747SOL    HW284139   4.321   8.988  13.386
60748SOL     OW84140  10.190  10.465   6.101
60748SOL    HW184141  10.233  10.459   6.186
60748SOL    HW284142  10.172  10.374   6.077
60749SOL     OW84143  10.671   4.069   2.106
60749SOL    HW184144  10.585   4.031   2.122
60749SOL    HW284145  10.701   4.100   2.192
60750SOL     OW84146   8.277   0.131   1.216
60750SOL    HW184147   8.314   0.217   1.196
60750SOL    HW284148   8.186   0.150   1.239
60751SOL     OW84149   3.695   9.518   5.641
60751SOL    HW184150   3.790   9.519   5.650
60751SOL    HW284151   3.680   9.503   5.547
60752SOL     OW84152   7.066   5.146   4.012
60752SOL    HW184153   7.032   5.118   4.097
60752SOL    HW284154   7.024   5.087   3.949
60753SOL     OW84155   2.213   5.160   4.278
60753SOL    HW184156   2.135   5.210   4.303
60753SOL    HW284157   2.217   5.168   4.182
60754SOL     OW84158   9.792   2.683  13.189
60754SOL    HW184159   9.858   2.614  13.196
60754SOL    HW284160   9.778   2.693  13.095
60755SOL     OW84161   9.007   8.624   6.958
60755SOL    HW184162   8.991   8.561   6.887
60755SOL    HW284163   8.921   8.636   6.998
60756SOL     OW84164   2.632  13.511   2.933
60756SOL    HW184165   2.550  13.560   2.921
60756SOL    HW284166   2.665  13.499   2.844
60757SOL     OW84167  10.757   1.988   7.243
60757SOL    HW184168  10.719   2.075   7.257
60757SOL    HW284169  10.720   1.959   7.159
60758SOL     OW84170   0.235   3.297  10.749
60758SOL    HW184171   0.313   3.313  10.801
60758SOL    HW284172   0.262   3.230  10.686
60759SOL     OW84173  14.330   0.849  13.139
60759SOL    HW184174  14.392   0.786  13.102
60759SOL    HW284175  14.306   0.812  13.224
60760SOL     OW84176   3.648  13.225   4.402
60760SOL    HW184177   3.731  13.185   4.379
60760SOL    HW284178   3.638  13.208   4.496
60761SOL     OW84179   2.524   7.671  11.153
60761SOL    HW184180   2.439   7.708  11.127
60761SOL    HW284181   2.504   7.619  11.231
60762SOL     OW84182   8.680   8.691  10.716
60762SOL    HW184183   8.668   8.597  10.705
60762SOL    HW284184   8.611   8.730  10.662
60763SOL     OW84185  10.550  13.348  11.445
60763SOL    HW184186  10.629  13.305  11.476
60763SOL    HW284187  10.536  13.311  11.357
60764SOL     OW84188   3.361   6.708   2.690
60764SOL    HW184189   3.333   6.714   2.781
60764SOL    HW284190   3.398   6.794   2.671
60765SOL     OW84191   4.916   6.241   1.244
60765SOL    HW184192   4.967   6.321   1.254
60765SOL    HW284193   4.865   6.255   1.164
60766SOL     OW84194  13.345   2.271   7.245
60766SOL    HW184195  13.294   2.191   7.231
60766SOL    HW284196  13.436   2.243   7.239
60767SOL     OW84197   3.614   2.703   0.549
60767SOL    HW184198   3.654   2.638   0.607
60767SOL    HW284199   3.654   2.786   0.576
60768SOL     OW84200  12.294  14.132   0.016
60768SOL    HW184201  12.335  14.108   0.099
60768SOL    HW284202  12.356  14.101  14.822
60769SOL     OW84203   1.421  12.917   2.858
60769SOL    HW184204   1.395  12.899   2.767
60769SOL    HW284205   1.453  13.008   2.856
60770SOL     OW84206   9.404   8.089   8.456
60770SOL    HW184207   9.372   8.098   8.546
60770SOL    HW284208   9.455   8.169   8.441
60771SOL     OW84209   9.383   7.221  14.220
60771SOL    HW184210   9.414   7.265  14.142
60771SOL    HW284211   9.363   7.291  14.282
60772SOL     OW84212  13.782  10.344  12.190
60772SOL    HW184213  13.747  10.432  12.175
60772SOL    HW284214  13.762  10.296  12.110
60773SOL     OW84215  14.828   8.859   1.355
60773SOL    HW184216  14.753   8.817   1.313
60773SOL    HW284217  14.865   8.915   1.288
60774SOL     OW84218   3.624  12.899   4.035
60774SOL    HW184219   3.602  12.936   4.120
60774SOL    HW284220   3.703  12.946   4.009
60775SOL     OW84221  10.396   6.022   1.299
60775SOL    HW184222  10.354   6.108   1.292
60775SOL    HW284223  10.340   5.973   1.359
60776SOL     OW84224   1.823   1.980  11.296
60776SOL    HW184225   1.798   2.008  11.208
60776SOL    HW284226   1.836   1.886  11.288
60777SOL     OW84227  10.741   8.271   0.337
60777SOL    HW184228  10.675   8.294   0.271
60777SOL    HW284229  10.825   8.284   0.293
60778SOL     OW84230  13.324  14.514  14.077
60778SOL    HW184231  13.229  14.507  14.089
60778SOL    HW284232  13.350  14.426  14.050
60779SOL     OW84233   1.197  12.541  11.280
60779SOL    HW184234   1.223  12.633  11.281
60779SOL    HW284235   1.278  12.493  11.299
60780SOL     OW84236   4.754  10.852   7.231
60780SOL    HW184237   4.817  10.807   7.287
60780SOL    HW284238   4.802  10.927   7.195
60781SOL     OW84239   1.353   4.494   7.532
60781SOL    HW184240   1.436   4.508   7.485
60781SOL    HW284241   1.350   4.399   7.546
60782SOL     OW84242   5.701   9.569  13.421
60782SOL    HW184243   5.779   9.552  13.369
60782SOL    HW284244   5.644   9.619  13.362
60783SOL     OW84245   5.888  12.070   0.811
60783SOL    HW184246   5.909  12.123   0.888
60783SOL    HW284247   5.955  12.002   0.810
60784SOL     OW84248   1.507  13.506   2.727
60784SOL    HW184249   1.587  13.493   2.676
60784SOL    HW284250   1.445  13.442   2.692
60785SOL     OW84251   8.749  10.842   9.613
60785SOL    HW184252   8.691  10.812   9.684
60785SOL    HW284253   8.734  10.936   9.607
60786SOL     OW84254   2.915   8.274  12.709
60786SOL    HW184255   2.932   8.368  12.710
60786SOL    HW284256   2.823   8.266  12.683
60787SOL     OW84257  14.168   7.809   7.609
60787SOL    HW184258  14.213   7.871   7.552
60787SOL    HW284259  14.077   7.836   7.607
60788SOL     OW84260   7.148  14.491  10.108
60788SOL    HW184261   7.085  14.477  10.179
60788SOL    HW284262   7.233  14.469  10.147
60789SOL     OW84263   1.154   6.401   0.952
60789SOL    HW184264   1.139   6.459   1.026
60789SOL    HW284265   1.080   6.341   0.953
60790SOL     OW84266   4.640   0.089  10.356
60790SOL    HW184267   4.705   0.110  10.289
60790SOL    HW284268   4.603   0.173  10.380
60791SOL     OW84269   2.791  14.647   6.382
60791SOL    HW184270   2.867  14.705   6.385
60791SOL    HW284271   2.821  14.570   6.334
60792SOL     OW84272   0.464  14.098  14.504
60792SOL    HW184273   0.539  14.085  14.446
60792SOL    HW284274   0.404  14.027  14.481
60793SOL     OW84275  10.192  12.082   3.916
60793SOL    HW184276  10.287  12.072   3.926
60793SOL    HW284277  10.155  12.013   3.972
60794SOL     OW84278   0.980  14.574   6.951
60794SOL    HW184279   0.965  14.633   6.877
60794SOL    HW284280   1.031  14.626   7.014
60795SOL     OW84281   5.183   6.268   2.312
60795SOL    HW184282   5.201   6.248   2.220
60795SOL    HW284283   5.093   6.301   2.312
60796SOL     OW84284   4.104   6.512  13.123
60796SOL    HW184285   4.163   6.490  13.051
60796SOL    HW284286   4.033   6.448  13.116
60797SOL     OW84287   3.907  12.848   1.126
60797SOL    HW184288   3.870  12.833   1.213
60797SOL    HW284289   3.840  12.898   1.080
60798SOL     OW84290   2.051   7.091  14.281
60798SOL    HW184291   2.138   7.112  14.245
60798SOL    HW284292   2.044   6.996  14.273
60799SOL     OW84293   5.658   0.360   6.791
60799SOL    HW184294   5.738   0.333   6.746
60799SOL    HW284295   5.620   0.427   6.734
60800SOL     OW84296   7.815   9.112   7.535
60800SOL    HW184297   7.727   9.087   7.564
60800SOL    HW284298   7.874   9.070   7.597
60801SOL     OW84299  12.652   8.690  11.845
60801SOL    HW184300  12.658   8.650  11.758
60801SOL    HW284301  12.741   8.684  11.880
60802SOL     OW84302  10.051   4.597   2.995
60802SOL    HW184303  10.045   4.524   3.057
60802SOL    HW284304   9.981   4.581   2.932
60803SOL     OW84305   8.091   6.479   8.439
60803SOL    HW184306   7.996   6.484   8.429
60803SOL    HW284307   8.123   6.566   8.414
60804SOL     OW84308  11.528   8.565   8.922
60804SOL    HW184309  11.542   8.646   8.872
60804SOL    HW284310  11.532   8.593   9.014
60805SOL     OW84311  11.449   2.588   2.168
60805SOL    HW184312  11.445   2.612   2.260
60805SOL    HW284313  11.423   2.496   2.166
60806SOL     OW84314   0.977   2.066   1.316
60806SOL    HW184315   1.013   1.978   1.308
60806SOL    HW284316   0.882   2.053   1.325
60807SOL     OW84317   3.804  13.733   0.730
60807SOL    HW184318   3.896  13.752   0.749
60807SOL    HW284319   3.806  13.679   0.651
60808SOL     OW84320   1.435   2.427  10.190
60808SOL    HW184321   1.445   2.342  10.146
60808SOL    HW284322   1.347   2.424  10.227
60809SOL     OW84323   6.687   5.286  11.485
60809SOL    HW184324   6.637   5.298  11.404
60809SOL    HW284325   6.628   5.238  11.543
60810SOL     OW84326   9.325   7.082  11.834
60810SOL    HW184327   9.361   7.004  11.792
60810SOL    HW284328   9.390   7.151  11.817
60811SOL     OW84329   7.207   9.675   5.782
60811SOL    HW184330   7.125   9.636   5.753
60811SOL    HW284331   7.273   9.609   5.763
60812SOL     OW84332   4.823  10.687   1.786
60812SOL    HW184333   4.853  10.630   1.715
60812SOL    HW284334   4.814  10.773   1.745
60813SOL     OW84335   7.113   0.454   8.299
60813SOL    HW184336   7.059   0.527   8.332
60813SOL    HW284337   7.202   0.478   8.323
60814SOL     OW84338   8.560   1.206  14.794
60814SOL    HW184339   8.465   1.196  14.785
60814SOL    HW284340   8.574   1.215   0.016
60815SOL     OW84341  10.496   4.542  10.452
60815SOL    HW184342  10.487   4.515  10.360
60815SOL    HW284343  10.419   4.598  10.467
60816SOL     OW84344  13.368   2.347  13.400
60816SOL    HW184345  13.416   2.334  13.482
60816SOL    HW284346  13.351   2.258  13.368
60817SOL     OW84347   2.119   9.678   2.318
60817SOL    HW184348   2.107   9.593   2.360
60817SOL    HW284349   2.057   9.735   2.364
60818SOL     OW84350  12.544   2.413   9.855
60818SOL    HW184351  12.629   2.386   9.887
60818SOL    HW284352  12.553   2.414   9.760
60819SOL     OW84353  13.815   5.473   6.964
60819SOL    HW184354  13.906   5.444   6.974
60819SOL    HW284355  13.810   5.555   7.012
60820SOL     OW84356  11.218   9.884   4.503
60820SOL    HW184357  11.189   9.901   4.592
60820SOL    HW284358  11.143   9.841   4.461
60821SOL     OW84359  11.563   6.504   9.645
60821SOL    HW184360  11.529   6.528   9.559
60821SOL    HW284361  11.487   6.503   9.702
60822SOL     OW84362   7.084  13.862   2.874
60822SOL    HW184363   7.095  13.808   2.952
60822SOL    HW284364   7.003  13.910   2.889
60823SOL     OW84365   2.515   9.180  12.286
60823SOL    HW184366   2.607   9.202  12.300
60823SOL    HW284367   2.514   9.129  12.205
60824SOL     OW84368   4.662   8.565  13.923
60824SOL    HW184369   4.696   8.534  14.007
60824SOL    HW284370   4.737   8.560  13.864
60825SOL     OW84371  13.418  14.851   9.980
60825SOL    HW184372  13.506  14.872  10.013
60825SOL    HW284373  13.373   0.063   9.980
60826SOL     OW84374   8.589  12.421   3.923
60826SOL    HW184375   8.526  12.348   3.920
60826SOL    HW284376   8.535  12.499   3.913
60827SOL     OW84377   5.569  11.852  13.159
60827SOL    HW184378   5.618  11.923  13.200
60827SOL    HW284379   5.620  11.773  13.179
60828SOL     OW84380   9.634   3.314   0.670
60828SOL    HW184381   9.583   3.270   0.737
60828SOL    HW284382   9.658   3.398   0.709
60829SOL     OW84383  13.855   8.858   8.853
60829SOL    HW184384  13.812   8.907   8.784
60829SOL    HW284385  13.910   8.794   8.807
60830SOL     OW84386   4.912  12.447   7.813
60830SOL    HW184387   4.845  12.453   7.745
60830SOL    HW284388   4.991  12.481   7.771
60831SOL     OW84389  14.183  11.118   4.662
60831SOL    HW184390  14.229  11.104   4.579
60831SOL    HW284391  14.209  11.044   4.716
60832SOL     OW84392  13.853   6.479  10.623
60832SOL    HW184393  13.945   6.496  10.644
60832SOL    HW284394  13.856   6.421  10.547
60833SOL     OW84395  14.262   6.194   2.400
60833SOL    HW184396  14.205   6.188   2.324
60833SOL    HW284397  14.349   6.212   2.364
60834SOL     OW84398   9.257  14.303   6.728
60834SOL    HW184399   9.233  14.333   6.640
60834SOL    HW284400   9.332  14.358   6.753
60835SOL     OW84401  10.469  13.618   5.337
60835SOL    HW184402  10.383  13.600   5.375
60835SOL    HW284403  10.519  13.659   5.408
60836SOL     OW84404  12.415  14.329   6.552
60836SOL    HW184405  12.383  14.245   6.519
60836SOL    HW284406  12.363  14.345   6.631
60837SOL     OW84407  10.933   7.330   8.130
60837SOL    HW184408  10.926   7.353   8.222
60837SOL    HW284409  11.023   7.353   8.106
60838SOL     OW84410  12.344   5.961   2.129
60838SOL    HW184411  12.368   6.030   2.191
60838SOL    HW284412  12.420   5.905   2.125
60839SOL     OW84413  11.886   7.613   1.318
60839SOL    HW184414  11.874   7.520   1.338
60839SOL    HW284415  11.824   7.630   1.246
60840SOL     OW84416  14.693   0.159   7.207
60840SOL    HW184417  14.643   0.119   7.278
60840SOL    HW284418  14.666   0.251   7.207
60841SOL     OW84419   1.827   2.147   1.039
60841SOL    HW184420   1.823   2.209   1.112
60841SOL    HW284421   1.921   2.127   1.029
60842SOL     OW84422  11.052   7.238   8.955
60842SOL    HW184423  11.016   7.156   8.920
60842SOL    HW284424  11.140   7.215   8.983
60843SOL     OW84425   3.852  11.387   8.523
60843SOL    HW184426   3.792  11.452   8.560
60843SOL    HW284427   3.830  11.384   8.430
60844SOL     OW84428   3.112   1.776   5.849
60844SOL    HW184429   3.162   1.724   5.786
60844SOL    HW284430   3.020   1.759   5.826
60845SOL     OW84431   4.361   6.994   9.385
60845SOL    HW184432   4.379   6.992   9.291
60845SOL    HW284433   4.385   7.082   9.413
60846SOL     OW84434   9.423  11.252   3.153
60846SOL    HW184435   9.422  11.337   3.110
60846SOL    HW284436   9.506  11.212   3.124
60847SOL     OW84437   6.014   9.968   1.904
60847SOL    HW184438   5.957  10.023   1.957
60847SOL    HW284439   6.073  10.029   1.860
60848SOL     OW84440   2.243   0.491  10.025
60848SOL    HW184441   2.256   0.429   9.953
60848SOL    HW284442   2.246   0.577   9.983
60849SOL     OW84443   0.721   0.214   2.827
60849SOL    HW184444   0.662   0.167   2.768
60849SOL    HW284445   0.808   0.199   2.790
60850SOL     OW84446  14.778  13.487  10.579
60850SOL    HW184447  14.716  13.530  10.520
60850SOL    HW284448  14.744  13.399  10.590
60851SOL     OW84449   8.678   9.754   3.385
60851SOL    HW184450   8.722   9.839   3.381
60851SOL    HW284451   8.657   9.733   3.295
60852SOL     OW84452   8.368  14.563   8.485
60852SOL    HW184453   8.323  14.483   8.509
60852SOL    HW284454   8.300  14.621   8.452
60853SOL     OW84455   4.109   6.049  13.230
60853SOL    HW184456   4.138   6.106  13.301
60853SOL    HW284457   4.184   5.991  13.214
60854SOL     OW84458   2.308   9.867  10.109
60854SOL    HW184459   2.396   9.898  10.130
60854SOL    HW284460   2.262   9.945  10.078
60855SOL     OW84461   1.215   2.265  12.148
60855SOL    HW184462   1.287   2.324  12.171
60855SOL    HW284463   1.136   2.319  12.158
60856SOL     OW84464   7.862  12.181  10.197
60856SOL    HW184465   7.867  12.261  10.144
60856SOL    HW284466   7.924  12.121  10.155
60857SOL     OW84467  10.414   2.825  14.671
60857SOL    HW184468  10.352   2.828  14.598
60857SOL    HW284469  10.420   2.915  14.701
60858SOL     OW84470  14.750   6.064   5.939
60858SOL    HW184471  14.828   6.008   5.947
60858SOL    HW284472  14.778   6.135   5.882
60859SOL     OW84473   3.985  14.596   4.422
60859SOL    HW184474   3.945  14.668   4.471
60859SOL    HW284475   4.014  14.636   4.340
60860SOL     OW84476   2.502   3.973   0.288
60860SOL    HW184477   2.491   3.889   0.245
60860SOL    HW284478   2.442   3.971   0.363
60861SOL     OW84479   7.529  11.487   5.835
60861SOL    HW184480   7.540  11.392   5.844
60861SOL    HW284481   7.572  11.509   5.753
60862SOL     OW84482  12.034   8.141   1.600
60862SOL    HW184483  12.015   8.053   1.568
60862SOL    HW284484  12.122   8.160   1.567
60863SOL     OW84485   9.439   6.420   3.003
60863SOL    HW184486   9.525   6.433   3.043
60863SOL    HW284487   9.452   6.443   2.911
60864SOL     OW84488  10.783  14.207  10.497
60864SOL    HW184489  10.851  14.173  10.437
60864SOL    HW284490  10.716  14.241  10.438
60865SOL     OW84491   9.007   3.439   4.431
60865SOL    HW184492   8.924   3.483   4.450
60865SOL    HW284493   8.983   3.367   4.373
60866SOL     OW84494  12.269   7.377   7.122
60866SOL    HW184495  12.314   7.335   7.196
60866SOL    HW284496  12.280   7.316   7.049
60867SOL     OW84497  10.068   6.464   3.584
60867SOL    HW184498  10.159   6.487   3.605
60867SOL    HW284499  10.022   6.548   3.582
60868SOL     OW84500  14.778   6.975   5.883
60868SOL    HW184501  14.868   6.968   5.850
60868SOL    HW284502  14.730   7.022   5.815
60869SOL     OW84503  11.498   6.321   0.623
60869SOL    HW184504  11.406   6.302   0.603
60869SOL    HW284505  11.535   6.349   0.539
60870SOL     OW84506  10.507   0.970   0.312
60870SOL    HW184507  10.532   0.992   0.222
60870SOL    HW284508  10.508   1.054   0.358
60871SOL     OW84509   0.583   3.429   3.544
60871SOL    HW184510   0.591   3.505   3.486
60871SOL    HW284511   0.665   3.429   3.594
60872SOL     OW84512   3.326   2.207   1.035
60872SOL    HW184513   3.242   2.246   1.060
60872SOL    HW284514   3.340   2.138   1.100
60873SOL     OW84515   8.478   6.216   8.151
60873SOL    HW184516   8.398   6.257   8.183
60873SOL    HW284517   8.450   6.128   8.122
60874SOL     OW84518  11.519   5.445  14.757
60874SOL    HW184519  11.521   5.358  14.799
60874SOL    HW284520  11.550   5.429  14.668
60875SOL     OW84521  10.087   0.538   5.231
60875SOL    HW184522  10.101   0.513   5.323
60875SOL    HW284523  10.126   0.467   5.181
60876SOL     OW84524   7.392  10.644   2.817
60876SOL    HW184525   7.317  10.594   2.850
60876SOL    HW284526   7.402  10.716   2.880
60877SOL     OW84527   4.473   9.405   1.843
60877SOL    HW184528   4.414   9.375   1.775
60877SOL    HW284529   4.533   9.332   1.857
60878SOL     OW84530  14.504  13.953   6.297
60878SOL    HW184531  14.524  13.897   6.222
60878SOL    HW284532  14.588  13.964   6.342
60879SOL     OW84533   8.183   9.915  14.223
60879SOL    HW184534   8.145   9.841  14.272
60879SOL    HW284535   8.224   9.875  14.147
60880SOL     OW84536   0.496   2.402  13.831
60880SOL    HW184537   0.591   2.397  13.823
60880SOL    HW284538   0.471   2.317  13.869
60881SOL     OW84539   7.073   5.062  13.449
60881SOL    HW184540   6.983   5.042  13.476
60881SOL    HW284541   7.125   5.046  13.528
60882SOL     OW84542   3.485  10.783   4.676
60882SOL    HW184543   3.507  10.875   4.692
60882SOL    HW284544   3.545  10.734   4.732
60883SOL     OW84545   7.449   9.702  10.535
60883SOL    HW184546   7.508   9.778  10.525
60883SOL    HW284547   7.453   9.682  10.629
60884SOL     OW84548  13.068   1.618   5.480
60884SOL    HW184549  13.114   1.538   5.458
60884SOL    HW284550  13.115   1.687   5.433
60885SOL     OW84551  13.401  12.905   9.589
60885SOL    HW184552  13.469  12.852   9.547
60885SOL    HW284553  13.417  12.994   9.558
60886SOL     OW84554   6.882   4.641  11.360
60886SOL    HW184555   6.917   4.713  11.308
60886SOL    HW284556   6.933   4.641  11.440
60887SOL     OW84557   4.662  12.166  14.096
60887SOL    HW184558   4.651  12.178  14.190
60887SOL    HW284559   4.756  12.178  14.081
60888SOL     OW84560   5.265   4.017  10.223
60888SOL    HW184561   5.181   4.005  10.178
60888SOL    HW284562   5.279   4.111  10.222
60889SOL     OW84563   5.187  12.193   3.694
60889SOL    HW184564   5.221  12.257   3.757
60889SOL    HW284565   5.208  12.229   3.608
60890SOL     OW84566  13.306   1.012  13.367
60890SOL    HW184567  13.386   0.962  13.380
60890SOL    HW284568  13.299   1.024  13.272
60891SOL     OW84569   4.747   0.541   5.504
60891SOL    HW184570   4.728   0.622   5.552
60891SOL    HW284571   4.803   0.491   5.564
60892SOL     OW84572   8.298   5.028  10.721
60892SOL    HW184573   8.232   5.063  10.662
60892SOL    HW284574   8.344   4.962  10.670
60893SOL     OW84575  13.969  10.688   0.325
60893SOL    HW184576  13.901  10.657   0.385
60893SOL    HW284577  14.028  10.739   0.380
60894SOL     OW84578   3.337  12.653   9.396
60894SOL    HW184579   3.407  12.716   9.376
60894SOL    HW284580   3.377  12.567   9.380
60895SOL     OW84581   7.897   4.859   4.476
60895SOL    HW184582   7.912   4.949   4.447
60895SOL    HW284583   7.854   4.817   4.401
60896SOL     OW84584   9.331  13.748   1.197
60896SOL    HW184585   9.307  13.832   1.237
60896SOL    HW284586   9.267  13.686   1.232
60897SOL     OW84587  14.078   2.962   2.159
60897SOL    HW184588  14.172   2.972   2.145
60897SOL    HW284589  14.038   2.988   2.076
60898SOL     OW84590   6.033  13.646   4.153
60898SOL    HW184591   6.097  13.617   4.218
60898SOL    HW284592   6.021  13.739   4.171
60899SOL     OW84593   0.200   8.278   4.328
60899SOL    HW184594   0.283   8.324   4.338
60899SOL    HW284595   0.151   8.330   4.264
60900SOL     OW84596   7.267   5.478   7.545
60900SOL    HW184597   7.228   5.453   7.461
60900SOL    HW284598   7.253   5.573   7.551
60901SOL     OW84599  14.761   1.408   3.141
60901SOL    HW184600  14.829   1.346   3.118
60901SOL    HW284601  14.696   1.401   3.072
60902SOL     OW84602  13.312  14.644   5.083
60902SOL    HW184603  13.322  14.590   5.162
60902SOL    HW284604  13.392  14.629   5.034
60903SOL     OW84605   7.995   2.765  11.355
60903SOL    HW184606   8.046   2.845  11.343
60903SOL    HW284607   8.002   2.746  11.448
60904SOL     OW84608  12.359   9.335   9.865
60904SOL    HW184609  12.278   9.329   9.915
60904SOL    HW284610  12.362   9.254   9.815
60905SOL     OW84611  12.308   5.075  11.087
60905SOL    HW184612  12.400   5.048  11.091
60905SOL    HW284613  12.266   5.027  11.158
60906SOL     OW84614   6.775   0.513   0.164
60906SOL    HW184615   6.816   0.598   0.181
60906SOL    HW284616   6.700   0.510   0.224
60907SOL     OW84617  10.491   1.236   0.382
60907SOL    HW184618  10.415   1.234   0.324
60907SOL    HW284619  10.464   1.290   0.456
60908SOL     OW84620  13.928   5.487  10.524
60908SOL    HW184621  13.884   5.404  10.538
60908SOL    HW284622  13.987   5.471  10.450
60909SOL     OW84623   6.160   4.890   7.853
60909SOL    HW184624   6.196   4.977   7.835
60909SOL    HW284625   6.238   4.834   7.860
60910SOL     OW84626  14.753  10.440  13.898
60910SOL    HW184627  14.746  10.535  13.901
60910SOL    HW284628  14.751  10.412  13.989
60911SOL     OW84629  11.806  14.722  12.093
60911SOL    HW184630  11.803  14.720  12.188
60911SOL    HW284631  11.757  14.644  12.066
60912SOL     OW84632  14.478   0.014  13.775
60912SOL    HW184633  14.417   0.073  13.819
60912SOL    HW284634  14.444   0.006  13.686
60913SOL     OW84635   2.587  13.612   0.038
60913SOL    HW184636   2.576  13.517   0.034
60913SOL    HW284637   2.679  13.624   0.060
60914SOL     OW84638  12.617   3.993   8.082
60914SOL    HW184639  12.577   4.061   8.028
60914SOL    HW284640  12.554   3.921   8.082
60915SOL     OW84641  12.415   9.713   3.027
60915SOL    HW184642  12.443   9.652   3.095
60915SOL    HW284643  12.445   9.674   2.945
60916SOL     OW84644   8.948   2.653   0.167
60916SOL    HW184645   9.020   2.682   0.223
60916SOL    HW284646   8.974   2.679   0.079
60917SOL     OW84647   5.440   9.101   1.558
60917SOL    HW184648   5.465   9.103   1.465
60917SOL    HW284649   5.485   9.176   1.596
60918SOL     OW84650  12.352   0.095  14.750
60918SOL    HW184651  12.279   0.138  14.705
60918SOL    HW284652  12.412   0.167  14.772
60919SOL     OW84653   9.648   8.671   7.413
60919SOL    HW184654   9.602   8.683   7.496
60919SOL    HW284655   9.590   8.616   7.361
60920SOL     OW84656  14.845   9.686  13.793
60920SOL    HW184657  14.788   9.761  13.775
60920SOL    HW284658   0.029   9.716  13.864
60921SOL     OW84659   7.041  13.849  13.280
60921SOL    HW184660   7.041  13.764  13.324
60921SOL    HW284661   6.999  13.833  13.196
60922SOL     OW84662   6.959   3.427   1.986
60922SOL    HW184663   6.998   3.378   1.914
60922SOL    HW284664   7.002   3.393   2.064
60923SOL     OW84665   6.159   1.167  10.473
60923SOL    HW184666   6.068   1.140  10.488
60923SOL    HW284667   6.181   1.222  10.548
60924SOL     OW84668   2.019   4.978  11.004
60924SOL    HW184669   2.012   4.952  11.095
60924SOL    HW284670   2.064   4.906  10.961
60925SOL     OW84671   1.597  12.697   6.908
60925SOL    HW184672   1.596  12.604   6.930
60925SOL    HW284673   1.532  12.736   6.965
60926SOL     OW84674   0.774  10.998   8.965
60926SOL    HW184675   0.797  10.939   8.893
60926SOL    HW284676   0.803  10.952   9.044
60927SOL     OW84677   9.149   4.986   3.472
60927SOL    HW184678   9.124   4.945   3.389
60927SOL    HW284679   9.197   5.064   3.447
60928SOL     OW84680   7.137  13.919   6.700
60928SOL    HW184681   7.109  13.840   6.747
60928SOL    HW284682   7.110  13.904   6.610
60929SOL     OW84683   1.591   4.171   7.614
60929SOL    HW184684   1.657   4.146   7.550
60929SOL    HW284685   1.509   4.170   7.565
60930SOL     OW84686   9.865   7.103   2.824
60930SOL    HW184687   9.867   7.015   2.787
60930SOL    HW284688   9.836   7.090   2.914
60931SOL     OW84689   9.264  12.936   2.364
60931SOL    HW184690   9.255  12.847   2.330
60931SOL    HW284691   9.281  12.925   2.458
60932SOL     OW84692   0.359   6.611   7.558
60932SOL    HW184693   0.422   6.581   7.493
60932SOL    HW284694   0.310   6.533   7.582
60933SOL     OW84695   0.327   1.108  10.168
60933SOL    HW184696   0.287   1.071  10.247
60933SOL    HW284697   0.292   1.056  10.096
60934SOL     OW84698   7.320   0.209   3.384
60934SOL    HW184699   7.274   0.145   3.437
60934SOL    HW284700   7.413   0.199   3.408
60935SOL     OW84701   2.320   7.373  12.516
60935SOL    HW184702   2.399   7.426  12.504
60935SOL    HW284703   2.314   7.360  12.611
60936SOL     OW84704   7.795   0.484   1.757
60936SOL    HW184705   7.772   0.503   1.848
60936SOL    HW284706   7.715   0.448   1.719
60937SOL     OW84707  14.233   3.956   1.148
60937SOL    HW184708  14.312   4.007   1.164
60937SOL    HW284709  14.187   3.954   1.231
60938SOL     OW84710   4.328  14.606   5.727
60938SOL    HW184711   4.304  14.634   5.816
60938SOL    HW284712   4.334  14.511   5.733
60939SOL     OW84713  14.528   4.516   2.801
60939SOL    HW184714  14.550   4.436   2.754
60939SOL    HW284715  14.589   4.518   2.875
60940SOL     OW84716   5.529  10.469  14.864
60940SOL    HW184717   5.595  10.465  14.795
60940SOL    HW284718   5.541  10.555   0.032
60941SOL     OW84719   0.827   0.029   1.799
60941SOL    HW184720   0.786  14.820   1.771
60941SOL    HW284721   0.790   0.096   1.741
60942SOL     OW84722  14.760   8.364   7.161
60942SOL    HW184723  14.845   8.407   7.170
60942SOL    HW284724  14.704   8.431   7.121
60943SOL     OW84725   1.044  14.797  12.560
60943SOL    HW184726   1.115  14.782  12.622
60943SOL    HW284727   1.006  14.710  12.545
60944SOL     OW84728  13.095  11.054  14.316
60944SOL    HW184729  13.131  11.119  14.256
60944SOL    HW284730  13.155  10.979  14.310
60945SOL     OW84731   6.997   7.348   9.465
60945SOL    HW184732   6.957   7.261   9.467
60945SOL    HW284733   6.990   7.376   9.374
60946SOL     OW84734   1.662   5.744   5.853
60946SOL    HW184735   1.679   5.826   5.807
60946SOL    HW284736   1.737   5.688   5.830
60947SOL     OW84737   7.106  14.185  10.748
60947SOL    HW184738   7.167  14.140  10.806
60947SOL    HW284739   7.021  14.179  10.792
60948SOL     OW84740  11.320  13.622   3.250
60948SOL    HW184741  11.392  13.584   3.300
60948SOL    HW284742  11.304  13.560   3.179
60949SOL     OW84743   5.387   6.218   1.162
60949SOL    HW184744   5.319   6.162   1.198
60949SOL    HW284745   5.357   6.238   1.073
60950SOL     OW84746   9.348  14.035   3.624
60950SOL    HW184747   9.295  14.000   3.552
60950SOL    HW284748   9.428  13.982   3.623
60951SOL     OW84749   8.473   2.836   1.410
60951SOL    HW184750   8.388   2.868   1.380
60951SOL    HW284751   8.495   2.765   1.350
60952SOL     OW84752   1.432  13.008   6.340
60952SOL    HW184753   1.402  13.003   6.430
60952SOL    HW284754   1.468  12.921   6.322
60953SOL     OW84755  13.363  10.785   1.387
60953SOL    HW184756  13.353  10.697   1.421
60953SOL    HW284757  13.419  10.829   1.451
60954SOL     OW84758  13.644   7.156   6.645
60954SOL    HW184759  13.592   7.107   6.581
60954SOL    HW284760  13.696   7.090   6.690
60955SOL     OW84761   5.598   7.898   7.680
60955SOL    HW184762   5.675   7.928   7.631
60955SOL    HW284763   5.633   7.836   7.743
60956SOL     OW84764   1.823   0.194  11.781
60956SOL    HW184765   1.747   0.145  11.748
60956SOL    HW284766   1.895   0.166  11.724
60957SOL     OW84767   3.782   5.829   0.188
60957SOL    HW184768   3.761   5.904   0.133
60957SOL    HW284769   3.805   5.867   0.273
60958SOL     OW84770   5.322  11.711   9.630
60958SOL    HW184771   5.300  11.797   9.666
60958SOL    HW284772   5.413  11.697   9.657
60959SOL     OW84773  14.310   7.959   5.805
60959SOL    HW184774  14.357   8.039   5.781
60959SOL    HW284775  14.229   7.991   5.847
60960SOL     OW84776   2.462   6.865   8.324
60960SOL    HW184777   2.479   6.800   8.392
60960SOL    HW284778   2.448   6.814   8.244
60961SOL     OW84779   3.099   3.850   1.344
60961SOL    HW184780   3.017   3.855   1.295
60961SOL    HW284781   3.167   3.856   1.277
60962SOL     OW84782  14.737  13.944  13.221
60962SOL    HW184783  14.677  13.898  13.279
60962SOL    HW284784  14.807  13.881  13.204
60963SOL     OW84785   6.002  10.249  13.117
60963SOL    HW184786   5.911  10.269  13.097
60963SOL    HW284787   6.026  10.311  13.186
60964SOL     OW84788  13.862   5.262   2.470
60964SOL    HW184789  13.906   5.197   2.415
60964SOL    HW284790  13.930   5.326   2.491
60965SOL     OW84791   7.047   3.695   9.198
60965SOL    HW184792   7.088   3.782   9.197
60965SOL    HW284793   7.103   3.641   9.142
60966SOL     OW84794  12.971  11.378   6.979
60966SOL    HW184795  13.049  11.418   7.020
60966SOL    HW284796  12.984  11.284   6.991
60967SOL     OW84797  11.309   0.180  13.437
60967SOL    HW184798  11.264   0.202  13.518
60967SOL    HW284799  11.326   0.265  13.396
60968SOL     OW84800   9.888  11.486   4.502
60968SOL    HW184801   9.962  11.480   4.442
60968SOL    HW284802   9.850  11.399   4.502
60969SOL     OW84803   9.951   1.424   6.295
60969SOL    HW184804  10.009   1.438   6.220
60969SOL    HW284805   9.989   1.476   6.366
60970SOL     OW84806  14.720   3.746   0.658
60970SOL    HW184807  14.809   3.753   0.693
60970SOL    HW284808  14.705   3.830   0.614
60971SOL     OW84809   7.116   2.057  12.969
60971SOL    HW184810   7.199   2.025  12.934
60971SOL    HW284811   7.122   2.041  13.063
60972SOL     OW84812   9.500  11.205   1.757
60972SOL    HW184813   9.483  11.286   1.709
60972SOL    HW284814   9.595  11.205   1.770
60973SOL     OW84815   3.661   4.382   0.848
60973SOL    HW184816   3.646   4.292   0.819
60973SOL    HW284817   3.744   4.379   0.895
60974SOL     OW84818   9.330   5.090   1.626
60974SOL    HW184819   9.318   5.067   1.718
60974SOL    HW284820   9.422   5.068   1.609
60975SOL     OW84821   8.508   2.488  10.745
60975SOL    HW184822   8.473   2.506  10.832
60975SOL    HW284823   8.432   2.468  10.692
60976SOL     OW84824   4.388   6.956  11.996
60976SOL    HW184825   4.350   6.869  11.981
60976SOL    HW284826   4.428   6.950  12.082
60977SOL     OW84827   4.994  11.291   2.581
60977SOL    HW184828   4.989  11.297   2.677
60977SOL    HW284829   5.066  11.230   2.565
60978SOL     OW84830   1.848   9.436  10.745
60978SOL    HW184831   1.783   9.489  10.698
60978SOL    HW284832   1.814   9.346  10.739
60979SOL     OW84833  11.729   3.876   4.190
60979SOL    HW184834  11.672   3.879   4.113
60979SOL    HW284835  11.813   3.911   4.159
60980SOL     OW84836   3.643   5.657  11.138
60980SOL    HW184837   3.624   5.576  11.091
60980SOL    HW284838   3.719   5.636  11.191
60981SOL     OW84839  14.197   9.180   2.583
60981SOL    HW184840  14.230   9.143   2.665
60981SOL    HW284841  14.255   9.145   2.516
60982SOL     OW84842   7.588   8.247   7.773
60982SOL    HW184843   7.630   8.308   7.834
60982SOL    HW284844   7.509   8.217   7.819
60983SOL     OW84845  13.973   5.928  12.891
60983SOL    HW184846  13.964   6.020  12.916
60983SOL    HW284847  13.898   5.911  12.833
60984SOL     OW84848  12.388  10.149   5.834
60984SOL    HW184849  12.440  10.089   5.890
60984SOL    HW284850  12.298  10.121   5.848
60985SOL     OW84851  10.957   2.183   1.611
60985SOL    HW184852  10.902   2.260   1.625
60985SOL    HW284853  11.046   2.215   1.624
60986SOL     OW84854  11.390  10.494   0.861
60986SOL    HW184855  11.308  10.519   0.904
60986SOL    HW284856  11.404  10.403   0.889
60987SOL     OW84857   3.621   3.149  14.831
60987SOL    HW184858   3.527   3.161  14.843
60987SOL    HW284859   3.638   3.059  14.861
60988SOL     OW84860  11.622   0.737   6.428
60988SOL    HW184861  11.544   0.788   6.404
60988SOL    HW284862  11.639   0.761   6.519
60989SOL     OW84863  12.712   8.317   2.866
60989SOL    HW184864  12.749   8.237   2.904
60989SOL    HW284865  12.697   8.374   2.942
60990SOL     OW84866   3.208   0.816   4.694
60990SOL    HW184867   3.163   0.828   4.777
60990SOL    HW284868   3.209   0.902   4.654
60991SOL     OW84869  14.162  14.748   2.408
60991SOL    HW184870  14.162  14.656   2.434
60991SOL    HW284871  14.098  14.789   2.466
60992SOL     OW84872   0.539   8.272   1.161
60992SOL    HW184873   0.615   8.225   1.195
60992SOL    HW284874   0.511   8.221   1.085
60993SOL     OW84875   1.253  13.269   7.858
60993SOL    HW184876   1.286  13.348   7.814
60993SOL    HW284877   1.286  13.196   7.805
60994SOL     OW84878   0.924   6.195  14.075
60994SOL    HW184879   0.912   6.281  14.115
60994SOL    HW284880   0.977   6.146  14.138
60995SOL     OW84881   0.846   8.576   0.679
60995SOL    HW184882   0.750   8.579   0.682
60995SOL    HW284883   0.872   8.557   0.769
60996SOL     OW84884   7.098   5.545   5.429
60996SOL    HW184885   7.028   5.585   5.480
60996SOL    HW284886   7.161   5.615   5.416
60997SOL     OW84887   1.790  10.704   3.527
60997SOL    HW184888   1.752  10.791   3.515
60997SOL    HW284889   1.855  10.715   3.597
60998SOL     OW84890   2.764   5.472   0.916
60998SOL    HW184891   2.692   5.424   0.874
60998SOL    HW284892   2.734   5.486   1.006
60999SOL     OW84893   8.815   6.499   7.443
60999SOL    HW184894   8.730   6.491   7.400
60999SOL    HW284895   8.855   6.576   7.402
61000SOL     OW84896   6.478  13.986   4.586
61000SOL    HW184897   6.393  13.951   4.560
61000SOL    HW284898   6.525  13.910   4.623
61001SOL     OW84899  12.891  10.741   4.090
61001SOL    HW184900  12.873  10.767   4.000
61001SOL    HW284901  12.935  10.817   4.129
61002SOL     OW84902   2.216  14.173  14.403
61002SOL    HW184903   2.174  14.163  14.318
61002SOL    HW284904   2.251  14.086  14.423
61003SOL     OW84905   9.760  13.831   5.651
61003SOL    HW184906   9.772  13.821   5.557
61003SOL    HW284907   9.820  13.766   5.689
61004SOL     OW84908  14.611   0.551  11.501
61004SOL    HW184909  14.660   0.621  11.457
61004SOL    HW284910  14.564   0.506  11.430
61005SOL     OW84911   5.088   6.118   5.384
61005SOL    HW184912   5.092   6.200   5.434
61005SOL    HW284913   5.177   6.107   5.350
61006SOL     OW84914   0.220   4.565   7.671
61006SOL    HW184915   0.260   4.644   7.635
61006SOL    HW284916   0.260   4.555   7.758
61007SOL     OW84917   3.720   2.517   1.264
61007SOL    HW184918   3.768   2.572   1.202
61007SOL    HW284919   3.697   2.576   1.336
61008SOL     OW84920  14.542  10.093  11.641
61008SOL    HW184921  14.613  10.124  11.696
61008SOL    HW284922  14.488  10.171  11.625
61009SOL     OW84923  10.183   4.993  13.354
61009SOL    HW184924  10.098   5.011  13.394
61009SOL    HW284925  10.196   5.065  13.292
61010SOL     OW84926   3.473   5.313  12.400
61010SOL    HW184927   3.551   5.302  12.346
61010SOL    HW284928   3.443   5.402  12.382
61011SOL     OW84929   1.449   0.893  12.216
61011SOL    HW184930   1.380   0.884  12.281
61011SOL    HW284931   1.526   0.919  12.266
61012SOL     OW84932   6.462   3.437   7.439
61012SOL    HW184933   6.425   3.524   7.422
61012SOL    HW284934   6.554   3.444   7.414
61013SOL     OW84935   1.768   9.884   0.542
61013SOL    HW184936   1.808   9.811   0.589
61013SOL    HW284937   1.827   9.900   0.468
61014SOL     OW84938   8.964   9.057   5.167
61014SOL    HW184939   8.959   8.991   5.236
61014SOL    HW284940   8.902   9.125   5.194
61015SOL     OW84941   1.383   3.247   0.025
61015SOL    HW184942   1.323   3.177   0.049
61015SOL    HW284943   1.470   3.206   0.026
61016SOL     OW84944   6.295  11.065   3.851
61016SOL    HW184945   6.312  11.080   3.758
61016SOL    HW284946   6.243  11.140   3.879
61017SOL     OW84947   7.201   0.753  13.927
61017SOL    HW184948   7.225   0.801  13.848
61017SOL    HW284949   7.131   0.693  13.898
61018SOL     OW84950   8.680  14.785   6.427
61018SOL    HW184951   8.599  14.768   6.475
61018SOL    HW284952   8.652  14.809   6.339
61019SOL     OW84953  11.776   4.356   4.931
61019SOL    HW184954  11.723   4.418   4.881
61019SOL    HW284955  11.857   4.403   4.951
61020SOL     OW84956  13.024  10.588   1.312
61020SOL    HW184957  13.089  10.658   1.299
61020SOL    HW284958  12.980  10.580   1.227
61021SOL     OW84959   8.685   0.392  10.353
61021SOL    HW184960   8.761   0.377  10.408
61021SOL    HW284961   8.720   0.397  10.264
61022SOL     OW84962   1.056   0.360   4.751
61022SOL    HW184963   1.101   0.437   4.786
61022SOL    HW284964   0.973   0.356   4.800
61023SOL     OW84965  14.403   3.730   6.530
61023SOL    HW184966  14.418   3.725   6.436
61023SOL    HW284967  14.383   3.640   6.556
61024SOL     OW84968   4.712   9.245   8.251
61024SOL    HW184969   4.678   9.334   8.256
61024SOL    HW284970   4.741   9.225   8.341
61025SOL     OW84971  14.429   8.756   3.960
61025SOL    HW184972  14.339   8.788   3.959
61025SOL    HW284973  14.430   8.689   4.029
61026SOL     OW84974   4.643   2.006  11.580
61026SOL    HW184975   4.565   1.975  11.625
61026SOL    HW284976   4.716   1.972  11.632
61027SOL     OW84977   4.696  13.971   1.076
61027SOL    HW184978   4.689  14.030   1.002
61027SOL    HW284979   4.734  13.891   1.040
61028SOL     OW84980   0.924   2.331   2.307
61028SOL    HW184981   0.865   2.265   2.273
61028SOL    HW284982   0.907   2.409   2.254
61029SOL     OW84983   3.652   2.433   0.233
61029SOL    HW184984   3.652   2.527   0.254
61029SOL    HW284985   3.591   2.394   0.296
61030SOL     OW84986   0.876  14.445   3.683
61030SOL    HW184987   0.865  14.493   3.765
61030SOL    HW284988   0.787  14.434   3.650
61031SOL     OW84989   5.924  13.705   0.725
61031SOL    HW184990   5.877  13.637   0.676
61031SOL    HW284991   5.960  13.762   0.657
61032SOL     OW84992   9.471   2.708  10.163
61032SOL    HW184993   9.442   2.755  10.241
61032SOL    HW284994   9.519   2.633  10.196
61033SOL     OW84995   0.474  11.514   0.940
61033SOL    HW184996   0.430  11.479   1.018
61033SOL    HW284997   0.408  11.510   0.871
61034SOL     OW84998  11.807  11.449   4.661
61034SOL    HW184999  11.758  11.470   4.581
61034SOL    HW285000  11.899  11.447   4.633
61035SOL     OW85001   2.775   9.212  10.142
61035SOL    HW185002   2.695   9.221  10.195
61035SOL    HW285003   2.743   9.204  10.052
61036SOL     OW85004   2.618   8.936   1.632
61036SOL    HW185005   2.655   9.012   1.677
61036SOL    HW285006   2.637   8.951   1.540
61037SOL     OW85007   7.912   9.840   8.768
61037SOL    HW185008   7.923   9.878   8.855
61037SOL    HW285009   7.953   9.754   8.773
61038SOL     OW85010  11.494   7.393   5.468
61038SOL    HW185011  11.458   7.305   5.474
61038SOL    HW285012  11.565   7.394   5.532
61039SOL     OW85013   5.671   8.320  14.741
61039SOL    HW185014   5.703   8.335  14.652
61039SOL    HW285015   5.668   8.408  14.780
61040SOL     OW85016   3.675   9.223   4.339
61040SOL    HW185017   3.731   9.202   4.413
61040SOL    HW285018   3.594   9.257   4.378
61041SOL     OW85019  12.345   6.028  11.999
61041SOL    HW185020  12.371   6.093  11.934
61041SOL    HW285021  12.277   6.071  12.050
61042SOL     OW85022   3.216   4.686   3.977
61042SOL    HW185023   3.126   4.654   3.978
61042SOL    HW285024   3.210   4.775   4.013
61043SOL     OW85025  14.048   6.340   4.084
61043SOL    HW185026  13.959   6.305   4.079
61043SOL    HW285027  14.040   6.414   4.145
61044SOL     OW85028   9.228   3.697  11.454
61044SOL    HW185029   9.294   3.723  11.518
61044SOL    HW285030   9.145   3.702  11.501
61045SOL     OW85031  13.689   9.210   4.702
61045SOL    HW185032  13.729   9.296   4.690
61045SOL    HW285033  13.763   9.149   4.702
61046SOL     OW85034  10.868   9.007   8.058
61046SOL    HW185035  10.868   9.098   8.087
61046SOL    HW285036  10.841   8.957   8.135
61047SOL     OW85037  13.426  10.066   6.394
61047SOL    HW185038  13.517  10.051   6.370
61047SOL    HW285039  13.377  10.002   6.342
61048SOL     OW85040  13.337   8.856  10.720
61048SOL    HW185041  13.319   8.800  10.645
61048SOL    HW285042  13.431   8.846  10.736
61049SOL     OW85043   4.400   1.736   7.298
61049SOL    HW185044   4.350   1.777   7.227
61049SOL    HW285045   4.427   1.651   7.263
61050SOL     OW85046   7.288   7.900  12.190
61050SOL    HW185047   7.203   7.929  12.223
61050SOL    HW285048   7.311   7.825  12.245
61051SOL     OW85049   9.623   8.276   8.752
61051SOL    HW185050   9.658   8.339   8.689
61051SOL    HW285051   9.532   8.302   8.764
61052SOL     OW85052   4.132  10.787   6.754
61052SOL    HW185053   4.217  10.773   6.795
61052SOL    HW285054   4.130  10.881   6.734
61053SOL     OW85055  13.703  10.267   2.700
61053SOL    HW185056  13.721  10.272   2.794
61053SOL    HW285057  13.608  10.280   2.694
61054SOL     OW85058  12.423   0.250  13.969
61054SOL    HW185059  12.387   0.177  14.021
61054SOL    HW285060  12.351   0.313  13.964
61055SOL     OW85061   0.986   9.001   7.630
61055SOL    HW185062   1.019   9.080   7.674
61055SOL    HW285063   0.904   8.980   7.674
61056SOL     OW85064  13.836   1.310   0.037
61056SOL    HW185065  13.840   1.217   0.014
61056SOL    HW285066  13.894   1.353  14.847
61057SOL     OW85067  10.886   7.252   6.805
61057SOL    HW185068  10.941   7.226   6.879
61057SOL    HW285069  10.799   7.264   6.843
61058SOL     OW85070   8.672   5.419   2.616
61058SOL    HW185071   8.721   5.474   2.677
61058SOL    HW285072   8.583   5.419   2.650
61059SOL     OW85073   3.052   5.769  14.573
61059SOL    HW185074   3.131   5.784  14.625
61059SOL    HW285075   2.998   5.711  14.627
61060SOL     OW85076  13.964   0.738   0.440
61060SOL    HW185077  14.051   0.712   0.411
61060SOL    HW285078  13.979   0.785   0.522
61061SOL     OW85079   0.391   5.602   7.621
61061SOL    HW185080   0.352   5.514   7.622
61061SOL    HW285081   0.480   5.588   7.653
61062SOL     OW85082   6.321   7.199   9.694
61062SOL    HW185083   6.239   7.158   9.721
61062SOL    HW285084   6.296   7.287   9.667
61063SOL     OW85085  13.531  10.971   0.173
61063SOL    HW185086  13.621  10.956   0.202
61063SOL    HW285087  13.538  10.983   0.079
61064SOL     OW85088  13.625   8.942   2.517
61064SOL    HW185089  13.588   8.991   2.444
61064SOL    HW285090  13.604   8.994   2.595
61065SOL     OW85091   5.142   6.263  10.402
61065SOL    HW185092   5.114   6.333  10.342
61065SOL    HW285093   5.197   6.206  10.347
61066SOL     OW85094   6.693  14.814  11.488
61066SOL    HW185095   6.681  14.757  11.564
61066SOL    HW285096   6.772  14.781  11.446
61067SOL     OW85097   2.299  11.020   6.888
61067SOL    HW185098   2.391  11.028   6.913
61067SOL    HW285099   2.290  11.076   6.811
61068SOL     OW85100   1.709   9.838  14.202
61068SOL    HW185101   1.698   9.808  14.292
61068SOL    HW285102   1.767   9.914  14.209
61069SOL     OW85103  12.003  11.815  14.568
61069SOL    HW185104  12.024  11.884  14.630
61069SOL    HW285105  11.995  11.859  14.483
61070SOL     OW85106   7.049   4.932   8.763
61070SOL    HW185107   7.094   4.981   8.694
61070SOL    HW285108   7.119   4.886   8.810
61071SOL     OW85109   5.352  13.204  10.139
61071SOL    HW185110   5.419  13.230  10.202
61071SOL    HW285111   5.367  13.259  10.063
61072SOL     OW85112  12.329   7.520   5.678
61072SOL    HW185113  12.280   7.486   5.753
61072SOL    HW285114  12.273   7.502   5.602
61073SOL     OW85115  13.809  11.434  11.523
61073SOL    HW185116  13.735  11.477  11.567
61073SOL    HW285117  13.769  11.377  11.458
61074SOL     OW85118   1.299  12.150  13.417
61074SOL    HW185119   1.265  12.236  13.441
61074SOL    HW285120   1.394  12.164  13.409
61075SOL     OW85121  13.568   5.811   3.684
61075SOL    HW185122  13.570   5.716   3.683
61075SOL    HW285123  13.601   5.837   3.599
61076SOL     OW85124   0.440  10.234   8.489
61076SOL    HW185125   0.374  10.258   8.554
61076SOL    HW285126   0.483  10.316   8.467
61077SOL     OW85127   3.613   3.442  14.815
61077SOL    HW185128   3.677   3.462  14.747
61077SOL    HW285129   3.608   3.346  14.816
61078SOL     OW85130  12.209   1.787  12.247
61078SOL    HW185131  12.268   1.858  12.222
61078SOL    HW285132  12.122   1.821  12.228
61079SOL     OW85133   0.950  11.194  11.085
61079SOL    HW185134   0.886  11.151  11.029
61079SOL    HW285135   0.942  11.151  11.170
61080SOL     OW85136   9.927   5.466   1.054
61080SOL    HW185137   9.875   5.464   0.974
61080SOL    HW285138  10.017   5.455   1.025
61081SOL     OW85139  13.046   9.431  12.954
61081SOL    HW185140  13.090   9.485  13.019
61081SOL    HW285141  13.109   9.424  12.882
61082SOL     OW85142   0.412   1.820  12.728
61082SOL    HW185143   0.392   1.737  12.771
61082SOL    HW285144   0.507   1.831  12.738
61083SOL     OW85145   7.895   7.980  14.132
61083SOL    HW185146   7.835   8.040  14.088
61083SOL    HW285147   7.980   8.024  14.128
61084SOL     OW85148  12.367   6.704  10.757
61084SOL    HW185149  12.362   6.610  10.771
61084SOL    HW285150  12.460   6.722  10.745
61085SOL     OW85151   9.962   7.942   1.414
61085SOL    HW185152  10.011   7.872   1.372
61085SOL    HW285153   9.894   7.897   1.464
61086SOL     OW85154   5.114   8.677   5.010
61086SOL    HW185155   5.180   8.632   5.062
61086SOL    HW285156   5.114   8.767   5.044
61087SOL     OW85157   6.044   5.917  13.662
61087SOL    HW185158   6.105   5.967  13.716
61087SOL    HW285159   5.962   5.919  13.710
61088SOL     OW85160  14.734  11.784   0.740
61088SOL    HW185161  14.806  11.753   0.685
61088SOL    HW285162  14.752  11.878   0.750
61089SOL     OW85163   5.298   8.408  11.138
61089SOL    HW185164   5.277   8.501  11.127
61089SOL    HW285165   5.384   8.397  11.098
61090SOL     OW85166   8.770   7.114   6.881
61090SOL    HW185167   8.705   7.185   6.880
61090SOL    HW285168   8.723   7.038   6.846
61091SOL     OW85169  14.374   2.957   0.723
61091SOL    HW185170  14.345   3.048   0.732
61091SOL    HW285171  14.298   2.911   0.687
61092SOL     OW85172   6.620   2.131  13.508
61092SOL    HW185173   6.644   2.222  13.490
61092SOL    HW285174   6.580   2.101  13.426
61093SOL     OW85175   1.423  10.623   6.529
61093SOL    HW185176   1.421  10.651   6.621
61093SOL    HW285177   1.418  10.528   6.533
61094SOL     OW85178   4.716   7.484   6.364
61094SOL    HW185179   4.779   7.485   6.436
61094SOL    HW285180   4.658   7.410   6.384
61095SOL     OW85181   5.772  11.592   0.623
61095SOL    HW185182   5.698  11.648   0.643
61095SOL    HW285183   5.733  11.511   0.589
61096SOL     OW85184   4.116  10.899   2.687
61096SOL    HW185185   4.046  10.913   2.623
61096SOL    HW285186   4.073  10.912   2.772
61097SOL     OW85187   5.862   3.343   7.995
61097SOL    HW185188   5.888   3.254   7.972
61097SOL    HW285189   5.779   3.334   8.040
61098SOL     OW85190   0.478  14.564   1.246
61098SOL    HW185191   0.387  14.587   1.268
61098SOL    HW285192   0.469  14.493   1.181
61099SOL     OW85193   7.570   4.458  10.149
61099SOL    HW185194   7.508   4.496  10.087
61099SOL    HW285195   7.516   4.423  10.220
61100SOL     OW85196   4.668  14.582   5.440
61100SOL    HW185197   4.621  14.599   5.522
61100SOL    HW285198   4.605  14.603   5.371
61101SOL     OW85199   7.073   1.701   9.018
61101SOL    HW185200   7.071   1.685   8.923
61101SOL    HW285201   7.165   1.717   9.038
61102SOL     OW85202  10.486  14.393   3.124
61102SOL    HW185203  10.437  14.418   3.045
61102SOL    HW285204  10.436  14.432   3.196
61103SOL     OW85205   1.579   1.159   8.854
61103SOL    HW185206   1.601   1.139   8.945
61103SOL    HW285207   1.490   1.126   8.843
61104SOL     OW85208   8.486   4.806  12.323
61104SOL    HW185209   8.480   4.890  12.368
61104SOL    HW285210   8.420   4.810  12.254
61105SOL     OW85211  10.391   3.439   8.816
61105SOL    HW185212  10.329   3.374   8.848
61105SOL    HW285213  10.341   3.492   8.754
61106SOL     OW85214   5.289   9.671   0.831
61106SOL    HW185215   5.243   9.632   0.756
61106SOL    HW285216   5.278   9.607   0.901
61107SOL     OW85217   2.372   7.188   9.644
61107SOL    HW185218   2.299   7.127   9.635
61107SOL    HW285219   2.335   7.264   9.690
61108SOL     OW85220   1.829   8.316  13.125
61108SOL    HW185221   1.806   8.409  13.116
61108SOL    HW285222   1.924   8.314  13.113
61109SOL     OW85223  13.946   1.991  13.330
61109SOL    HW185224  13.921   1.934  13.257
61109SOL    HW285225  14.008   1.939  13.381
61110SOL     OW85226   4.053   9.917  10.933
61110SOL    HW185227   4.036   9.974  10.858
61110SOL    HW285228   4.141   9.941  10.961
61111SOL     OW85229  12.606  14.344  13.031
61111SOL    HW185230  12.542  14.360  12.961
61111SOL    HW285231  12.673  14.290  12.989
61112SOL     OW85232   5.584   4.463   5.591
61112SOL    HW185233   5.609   4.389   5.648
61112SOL    HW285234   5.562   4.533   5.652
61113SOL     OW85235  14.213   1.901   1.774
61113SOL    HW185236  14.306   1.878   1.783
61113SOL    HW285237  14.213   1.997   1.769
61114SOL     OW85238  13.836   6.870  13.196
61114SOL    HW185239  13.920   6.835  13.166
61114SOL    HW285240  13.844   6.965  13.185
61115SOL     OW85241   1.432   3.250  11.744
61115SOL    HW185242   1.369   3.180  11.759
61115SOL    HW285243   1.484   3.221  11.669
61116SOL     OW85244   1.748   2.125  11.017
61116SOL    HW185245   1.753   2.164  10.930
61116SOL    HW285246   1.656   2.129  11.040
61117SOL     OW85247   0.511  12.384  12.850
61117SOL    HW185248   0.456  12.438  12.793
61117SOL    HW285249   0.574  12.446  12.887
61118SOL     OW85250   6.341  12.439   4.077
61118SOL    HW185251   6.410  12.484   4.029
61118SOL    HW285252   6.263  12.452   4.022
61119SOL     OW85253   4.746   6.214   9.973
61119SOL    HW185254   4.772   6.227   9.882
61119SOL    HW285255   4.779   6.292  10.019
61120SOL     OW85256   5.660   4.965   8.226
61120SOL    HW185257   5.715   4.988   8.151
61120SOL    HW285258   5.695   5.017   8.299
61121SOL     OW85259  11.070   8.467  11.149
61121SOL    HW185260  11.119   8.492  11.227
61121SOL    HW285261  11.020   8.390  11.175
61122SOL     OW85262   1.269   9.907   9.712
61122SOL    HW185263   1.320   9.877   9.787
61122SOL    HW285264   1.186   9.860   9.719
61123SOL     OW85265  12.183   2.635   7.594
61123SOL    HW185266  12.159   2.726   7.574
61123SOL    HW285267  12.194   2.633   7.689
61124SOL     OW85268   6.194  10.663   5.618
61124SOL    HW185269   6.132  10.590   5.629
61124SOL    HW285270   6.270  10.623   5.576
61125SOL     OW85271  11.165   3.041   1.183
61125SOL    HW185272  11.166   2.979   1.110
61125SOL    HW285273  11.148   2.987   1.261
61126SOL     OW85274  12.017   1.337   5.030
61126SOL    HW185275  11.946   1.308   5.087
61126SOL    HW285276  12.065   1.257   5.008
61127SOL     OW85277  12.004  14.380  14.089
61127SOL    HW185278  12.057  14.428  14.026
61127SOL    HW285279  11.952  14.447  14.133
61128SOL     OW85280  13.707   2.034   7.470
61128SOL    HW185281  13.800   2.056   7.476
61128SOL    HW285282  13.705   1.939   7.462
61129SOL     OW85283   3.974   1.631   8.228
61129SOL    HW185284   3.921   1.698   8.185
61129SOL    HW285285   3.975   1.656   8.320
61130SOL     OW85286   2.396  14.069   9.495
61130SOL    HW185287   2.447  14.047   9.417
61130SOL    HW285288   2.421  14.159   9.515
61131SOL     OW85289   5.665   3.742   7.977
61131SOL    HW185290   5.663   3.788   8.061
61131SOL    HW285291   5.713   3.801   7.918
61132SOL     OW85292  13.987   4.082   4.336
61132SOL    HW185293  13.894   4.060   4.325
61132SOL    HW285294  14.032   4.034   4.267
61133SOL     OW85295  11.554   1.127   6.743
61133SOL    HW185296  11.487   1.084   6.796
61133SOL    HW285297  11.635   1.115   6.793
61134SOL     OW85298   0.445  13.639   7.131
61134SOL    HW185299   0.509  13.612   7.066
61134SOL    HW285300   0.447  13.734   7.130
61135SOL     OW85301   0.591   0.158   6.785
61135SOL    HW185302   0.520   0.098   6.804
61135SOL    HW285303   0.664   0.127   6.838
61136SOL     OW85304  11.307   8.640   0.471
61136SOL    HW185305  11.308   8.546   0.456
61136SOL    HW285306  11.249   8.652   0.546
61137SOL     OW85307   0.078   6.942   3.925
61137SOL    HW185308   0.131   6.938   4.005
61137SOL    HW285309  14.862   6.960   3.955
61138SOL     OW85310   5.137   1.000   6.481
61138SOL    HW185311   5.218   1.051   6.476
61138SOL    HW285312   5.166   0.910   6.491
61139SOL     OW85313  11.626   8.264  14.468
61139SOL    HW185314  11.702   8.300  14.514
61139SOL    HW285315  11.662   8.194  14.414
61140SOL     OW85316   9.765   2.467   1.625
61140SOL    HW185317   9.694   2.530   1.610
61140SOL    HW285318   9.761   2.448   1.719
61141SOL     OW85319  12.211   4.008   1.105
61141SOL    HW185320  12.116   4.020   1.097
61141SOL    HW285321  12.237   4.069   1.174
61142SOL     OW85322  13.081   6.127   8.433
61142SOL    HW185323  13.096   6.135   8.527
61142SOL    HW285324  13.082   6.032   8.417
61143SOL     OW85325   6.441  10.387   8.840
61143SOL    HW185326   6.520  10.334   8.851
61143SOL    HW285327   6.377  10.345   8.898
61144SOL     OW85328   8.377   8.508   3.137
61144SOL    HW185329   8.342   8.469   3.057
61144SOL    HW285330   8.454   8.455   3.158
61145SOL     OW85331  13.071  14.351  14.600
61145SOL    HW185332  13.160  14.336  14.633
61145SOL    HW285333  13.066  14.301  14.519
61146SOL     OW85334  13.102   9.340   6.231
61146SOL    HW185335  13.100   9.262   6.286
61146SOL    HW285336  13.058   9.407   6.284
61147SOL     OW85337  13.499  11.478   7.606
61147SOL    HW185338  13.421  11.477   7.661
61147SOL    HW285339  13.534  11.567   7.616
61148SOL     OW85340  14.543  14.455   3.736
61148SOL    HW185341  14.633  14.489   3.739
61148SOL    HW285342  14.491  14.528   3.705
61149SOL     OW85343  11.832   7.099   4.346
61149SOL    HW185344  11.887   7.163   4.299
61149SOL    HW285345  11.864   7.102   4.436
61150SOL     OW85346   4.388   6.840   9.791
61150SOL    HW185347   4.311   6.896   9.805
61150SOL    HW285348   4.447   6.893   9.738
61151SOL     OW85349  12.690   5.885   4.510
61151SOL    HW185350  12.712   5.867   4.602
61151SOL    HW285351  12.595   5.876   4.507
61152SOL     OW85352   9.113   8.281   6.471
61152SOL    HW185353   9.173   8.353   6.454
61152SOL    HW285354   9.170   8.207   6.493
61153SOL     OW85355   5.507   1.427   1.717
61153SOL    HW185356   5.599   1.439   1.743
61153SOL    HW285357   5.472   1.368   1.784
61154SOL     OW85358  10.526   7.475   7.861
61154SOL    HW185359  10.467   7.425   7.805
61154SOL    HW285360  10.484   7.474   7.948
61155SOL     OW85361  12.951   9.407   5.447
61155SOL    HW185362  13.017   9.350   5.407
61155SOL    HW285363  12.940   9.372   5.535
61156SOL     OW85364   0.128   0.844  14.749
61156SOL    HW185365   0.048   0.895  14.763
61156SOL    HW285366   0.111   0.793  14.670
61157SOL     OW85367   7.731   1.031  10.590
61157SOL    HW185368   7.721   1.018  10.684
61157SOL    HW285369   7.819   1.067  10.580
61158SOL     OW85370  13.314   0.883   6.174
61158SOL    HW185371  13.376   0.871   6.246
61158SOL    HW285372  13.369   0.891   6.096
61159SOL     OW85373   2.698  11.736   1.706
61159SOL    HW185374   2.622  11.786   1.736
61159SOL    HW285375   2.730  11.784   1.630
61160SOL     OW85376  10.820   5.953   2.088
61160SOL    HW185377  10.735   5.928   2.125
61160SOL    HW285378  10.818   5.921   1.998
61161SOL     OW85379   5.005   1.301   5.441
61161SOL    HW185380   5.088   1.274   5.402
61161SOL    HW285381   5.001   1.254   5.524
61162SOL     OW85382  11.932  10.932   8.226
61162SOL    HW185383  11.968  10.920   8.313
61162SOL    HW285384  11.997  10.985   8.180
61163SOL     OW85385  12.350  14.174  14.198
61163SOL    HW185386  12.282  14.150  14.136
61163SOL    HW285387  12.428  14.126  14.168
61164SOL     OW85388   4.186  11.817   1.081
61164SOL    HW185389   4.119  11.763   1.123
61164SOL    HW285390   4.159  11.824   0.990
61165SOL     OW85391  10.776   1.737   3.267
61165SOL    HW185392  10.681   1.735   3.260
61165SOL    HW285393  10.800   1.652   3.303
61166SOL     OW85394   3.798   6.814   2.141
61166SOL    HW185395   3.762   6.898   2.168
61166SOL    HW285396   3.892   6.828   2.136
61167SOL     OW85397  12.896   5.594   7.365
61167SOL    HW185398  12.924   5.504   7.355
61167SOL    HW285399  12.809   5.597   7.326
61168SOL     OW85400   1.131   0.752   1.926
61168SOL    HW185401   1.221   0.757   1.958
61168SOL    HW285402   1.086   0.823   1.971
61169SOL     OW85403   1.259   0.587   6.299
61169SOL    HW185404   1.216   0.581   6.384
61169SOL    HW285405   1.253   0.680   6.275
61170SOL     OW85406  13.457   1.598   4.893
61170SOL    HW185407  13.520   1.656   4.851
61170SOL    HW285408  13.404   1.564   4.821
61171SOL     OW85409   9.482  10.101  10.547
61171SOL    HW185410   9.460  10.194  10.553
61171SOL    HW285411   9.513  10.089  10.457
61172SOL     OW85412   0.768  13.299   4.831
61172SOL    HW185413   0.706  13.349   4.884
61172SOL    HW285414   0.844  13.286   4.888
61173SOL     OW85415   6.998   2.834   0.305
61173SOL    HW185416   7.066   2.783   0.261
61173SOL    HW285417   6.938   2.860   0.234
61174SOL     OW85418   5.158  11.980   2.587
61174SOL    HW185419   5.245  11.942   2.578
61174SOL    HW285420   5.151  12.040   2.512
61175SOL     OW85421  14.047   4.930  14.682
61175SOL    HW185422  14.132   4.891  14.704
61175SOL    HW285423  14.015   4.966  14.765
61176SOL     OW85424   1.099   5.458   3.225
61176SOL    HW185425   1.022   5.433   3.275
61176SOL    HW285426   1.172   5.415   3.271
61177SOL     OW85427  11.605  12.747   9.327
61177SOL    HW185428  11.636  12.829   9.366
61177SOL    HW285429  11.514  12.740   9.356
61178SOL     OW85430  13.402  13.088   0.024
61178SOL    HW185431  13.324  13.051   0.065
61178SOL    HW285432  13.368  13.157  14.839
61179SOL     OW85433   5.210   3.500   9.868
61179SOL    HW185434   5.261   3.577   9.843
61179SOL    HW285435   5.171   3.469   9.786
61180SOL     OW85436   3.192  11.928   2.271
61180SOL    HW185437   3.112  11.961   2.312
61180SOL    HW285438   3.207  11.844   2.314
61181SOL     OW85439   0.677   1.816  13.310
61181SOL    HW185440   0.624   1.841  13.386
61181SOL    HW285441   0.652   1.725  13.293
61182SOL     OW85442   3.832   8.868   4.813
61182SOL    HW185443   3.824   8.909   4.899
61182SOL    HW285444   3.867   8.938   4.757
61183SOL     OW85445  11.238   9.269   0.134
61183SOL    HW185446  11.180   9.194   0.144
61183SOL    HW285447  11.207   9.333   0.199
61184SOL     OW85448   1.688  10.271   4.009
61184SOL    HW185449   1.746  10.199   4.035
61184SOL    HW285450   1.600  10.232   4.010
61185SOL     OW85451  11.973   5.124   7.916
61185SOL    HW185452  11.969   5.074   7.997
61185SOL    HW285453  12.053   5.176   7.924
61186SOL     OW85454   1.305  11.029  13.796
61186SOL    HW185455   1.368  10.964  13.766
61186SOL    HW285456   1.346  11.113  13.776
61187SOL     OW85457   3.362   4.141   5.268
61187SOL    HW185458   3.344   4.216   5.211
61187SOL    HW285459   3.427   4.090   5.220
61188SOL     OW85460   5.018  13.835   5.291
61188SOL    HW185461   5.010  13.790   5.207
61188SOL    HW285462   5.100  13.884   5.284
61189SOL     OW85463   8.189  12.017  10.907
61189SOL    HW185464   8.252  12.058  10.847
61189SOL    HW285465   8.105  12.024  10.861
61190SOL     OW85466  12.975  14.220   8.911
61190SOL    HW185467  12.962  14.314   8.916
61190SOL    HW285468  13.070  14.208   8.903
61191SOL     OW85469   0.079   5.124   8.316
61191SOL    HW185470   0.138   5.152   8.386
61191SOL    HW285471  14.866   5.158   8.342
61192SOL     OW85472  10.433   0.894   1.743
61192SOL    HW185473  10.444   0.804   1.774
61192SOL    HW285474  10.487   0.946   1.802
61193SOL     OW85475   1.202   6.838   9.898
61193SOL    HW185476   1.211   6.930   9.874
61193SOL    HW285477   1.200   6.838   9.994
61194SOL     OW85478  11.595   2.172   0.702
61194SOL    HW185479  11.502   2.170   0.728
61194SOL    HW285480  11.599   2.117   0.624
61195SOL     OW85481   8.099   3.654  12.243
61195SOL    HW185482   8.130   3.597  12.313
61195SOL    HW285483   8.007   3.631  12.231
61196SOL     OW85484   9.326   5.629  11.580
61196SOL    HW185485   9.249   5.578  11.605
61196SOL    HW285486   9.323   5.706  11.636
61197SOL     OW85487  14.291   4.922  12.039
61197SOL    HW185488  14.260   4.952  11.953
61197SOL    HW285489  14.368   4.869  12.019
61198SOL     OW85490  10.295   1.978   5.489
61198SOL    HW185491  10.298   1.975   5.393
61198SOL    HW285492  10.206   1.950   5.511
61199SOL     OW85493   4.114   1.578   0.440
61199SOL    HW185494   4.125   1.668   0.472
61199SOL    HW285495   4.038   1.545   0.489
61200SOL     OW85496   6.170  11.276   7.686
61200SOL    HW185497   6.088  11.242   7.722
61200SOL    HW285498   6.144  11.322   7.606
61201SOL     OW85499   8.222  13.898   8.361
61201SOL    HW185500   8.305  13.851   8.367
61201SOL    HW285501   8.178  13.880   8.444
61202SOL     OW85502   5.152   6.091   1.245
61202SOL    HW185503   5.142   5.996   1.256
61202SOL    HW285504   5.067   6.120   1.212
61203SOL     OW85505   2.440  13.789   6.782
61203SOL    HW185506   2.403  13.801   6.695
61203SOL    HW285507   2.364  13.766   6.837
61204SOL     OW85508   6.508   3.517  11.716
61204SOL    HW185509   6.492   3.479  11.630
61204SOL    HW285510   6.421   3.530  11.754
61205SOL     OW85511   2.346   1.057   1.103
61205SOL    HW185512   2.414   1.122   1.083
61205SOL    HW285513   2.332   1.065   1.197
61206SOL     OW85514   9.098   0.664   8.131
61206SOL    HW185515   9.106   0.608   8.054
61206SOL    HW285516   9.141   0.616   8.201
61207SOL     OW85517  11.817   3.019  10.492
61207SOL    HW185518  11.801   3.025  10.586
61207SOL    HW285519  11.793   3.105  10.458
61208SOL     OW85520   9.008   5.781   1.796
61208SOL    HW185521   9.049   5.803   1.880
61208SOL    HW285522   8.929   5.835   1.793
61209SOL     OW85523   7.843   8.670   2.508
61209SOL    HW185524   7.911   8.603   2.503
61209SOL    HW285525   7.768   8.626   2.549
61210SOL     OW85526  11.219  13.085   1.846
61210SOL    HW185527  11.288  13.109   1.908
61210SOL    HW285528  11.237  12.993   1.826
61211SOL     OW85529  10.229   4.420   8.485
61211SOL    HW185530  10.289   4.494   8.477
61211SOL    HW285531  10.264   4.368   8.558
61212SOL     OW85532   4.208   9.264  13.908
61212SOL    HW185533   4.137   9.297  13.854
61212SOL    HW285534   4.165   9.221  13.981
61213SOL     OW85535  12.709  12.683   4.113
61213SOL    HW185536  12.804  12.666   4.117
61213SOL    HW285537  12.669  12.597   4.128
61214SOL     OW85538   7.813   3.950  11.996
61214SOL    HW185539   7.752   3.884  12.030
61214SOL    HW285540   7.899   3.912  12.010
61215SOL     OW85541  10.091   8.360  14.065
61215SOL    HW185542  10.054   8.323  13.985
61215SOL    HW285543  10.032   8.332  14.135
61216SOL     OW85544  11.791   4.995  13.017
61216SOL    HW185545  11.857   4.940  13.060
61216SOL    HW285546  11.841   5.050  12.957
61217SOL     OW85547   3.476   2.154  11.039
61217SOL    HW185548   3.527   2.223  10.998
61217SOL    HW285549   3.488   2.078  10.983
61218SOL     OW85550   7.188   0.490  12.062
61218SOL    HW185551   7.192   0.560  12.127
61218SOL    HW285552   7.244   0.421  12.097
61219SOL     OW85553  12.771  13.358   7.608
61219SOL    HW185554  12.747  13.434   7.662
61219SOL    HW285555  12.703  13.294   7.626
61220SOL     OW85556  11.705   9.264  10.062
61220SOL    HW185557  11.766   9.222  10.002
61220SOL    HW285558  11.678   9.344  10.017
61221SOL     OW85559  10.004   5.190   5.309
61221SOL    HW185560   9.980   5.282   5.295
61221SOL    HW285561   9.958   5.142   5.241
61222SOL     OW85562   3.660   6.759   6.787
61222SOL    HW185563   3.660   6.840   6.736
61222SOL    HW285564   3.753   6.740   6.801
61223SOL     OW85565   5.535   8.946   2.495
61223SOL    HW185566   5.626   8.950   2.468
61223SOL    HW285567   5.512   8.853   2.491
61224SOL     OW85568   9.786   4.556   3.203
61224SOL    HW185569   9.835   4.476   3.181
61224SOL    HW285570   9.739   4.579   3.123
61225SOL     OW85571   4.560   3.915   9.917
61225SOL    HW185572   4.495   3.983   9.935
61225SOL    HW285573   4.597   3.939   9.832
61226SOL     OW85574  14.496   4.843   4.180
61226SOL    HW185575  14.420   4.900   4.169
61226SOL    HW285576  14.464   4.755   4.157
61227SOL     OW85577  14.681  13.275   1.746
61227SOL    HW185578  14.678  13.179   1.747
61227SOL    HW285579  14.712  13.298   1.658
61228SOL     OW85580   8.642  14.671  10.807
61228SOL    HW185581   8.660  14.582  10.837
61228SOL    HW285582   8.548  14.674  10.792
61229SOL     OW85583   4.631  13.729   3.398
61229SOL    HW185584   4.588  13.644   3.405
61229SOL    HW285585   4.703  13.725   3.461
61230SOL     OW85586   6.797   7.782  12.639
61230SOL    HW185587   6.754   7.844  12.580
61230SOL    HW285588   6.887   7.814  12.645
61231SOL     OW85589   9.506   6.648  11.785
61231SOL    HW185590   9.591   6.690  11.801
61231SOL    HW285591   9.467   6.639  11.872
61232SOL     OW85592   4.548  11.531   3.289
61232SOL    HW185593   4.465  11.516   3.333
61232SOL    HW285594   4.563  11.451   3.238
61233SOL     OW85595   6.515  11.659   2.553
61233SOL    HW185596   6.602  11.674   2.589
61233SOL    HW285597   6.493  11.569   2.581
61234SOL     OW85598  12.341  10.432   1.832
61234SOL    HW185599  12.333  10.521   1.797
61234SOL    HW285600  12.415  10.437   1.892
61235SOL     OW85601   6.812   9.954   3.766
61235SOL    HW185602   6.876   9.994   3.708
61235SOL    HW285603   6.828   9.860   3.758
61236SOL     OW85604  14.134  10.182   1.339
61236SOL    HW185605  14.066  10.158   1.403
61236SOL    HW285606  14.189  10.244   1.385
61237SOL     OW85607   6.240  13.846   6.950
61237SOL    HW185608   6.158  13.840   6.998
61237SOL    HW285609   6.297  13.899   7.005
61238SOL     OW85610   9.565  10.312   6.595
61238SOL    HW185611   9.610  10.392   6.567
61238SOL    HW285612   9.472  10.330   6.580
61239SOL     OW85613   7.918   3.398  10.079
61239SOL    HW185614   7.892   3.358   9.996
61239SOL    HW285615   7.990   3.343  10.110
61240SOL     OW85616   2.984  13.363   1.593
61240SOL    HW185617   3.057  13.356   1.655
61240SOL    HW285618   2.940  13.278   1.597
61241SOL     OW85619   3.058  10.737   6.098
61241SOL    HW185620   3.099  10.809   6.146
61241SOL    HW285621   3.131  10.678   6.078
61242SOL     OW85622   4.837  14.670  11.623
61242SOL    HW185623   4.821  14.761  11.598
61242SOL    HW285624   4.921  14.672  11.670
61243SOL     OW85625  14.420   4.001   9.120
61243SOL    HW185626  14.496   4.059   9.115
61243SOL    HW285627  14.411   3.966   9.031
61244SOL     OW85628   4.158   4.462   7.088
61244SOL    HW185629   4.174   4.556   7.081
61244SOL    HW285630   4.094   4.454   7.159
61245SOL     OW85631  10.691  13.340   5.059
61245SOL    HW185632  10.772  13.347   5.109
61245SOL    HW285633  10.692  13.251   5.023
61246SOL     OW85634  10.977  14.864   8.795
61246SOL    HW185635  10.925   0.017   8.718
61246SOL    HW285636  10.926   0.023   8.869
61247SOL     OW85637   9.023   5.796   0.516
61247SOL    HW185638   8.944   5.751   0.487
61247SOL    HW285639   9.093   5.763   0.459
61248SOL     OW85640   8.745  12.167   4.012
61248SOL    HW185641   8.839  12.176   3.994
61248SOL    HW285642   8.708  12.252   3.989
61249SOL     OW85643  10.424  13.019   4.220
61249SOL    HW185644  10.455  13.065   4.298
61249SOL    HW285645  10.374  12.945   4.255
61250SOL     OW85646   4.367   3.990  13.363
61250SOL    HW185647   4.439   3.929  13.343
61250SOL    HW285648   4.351   4.036  13.281
61251SOL     OW85649  14.653  10.488   8.196
61251SOL    HW185650  14.682  10.572   8.159
61251SOL    HW285651  14.579  10.511   8.251
61252SOL     OW85652   0.936   3.678   9.463
61252SOL    HW185653   1.024   3.702   9.432
61252SOL    HW285654   0.929   3.585   9.443
61253SOL     OW85655  11.146  13.681   0.736
61253SOL    HW185656  11.120  13.600   0.691
61253SOL    HW285657  11.063  13.724   0.756
61254SOL     OW85658   0.161  10.008   8.403
61254SOL    HW185659   0.245  10.027   8.444
61254SOL    HW285660   0.159  10.066   8.326
61255SOL     OW85661  14.191  10.122   8.034
61255SOL    HW185662  14.191  10.209   7.993
61255SOL    HW285663  14.178  10.141   8.127
61256SOL     OW85664  14.244   7.068   5.484
61256SOL    HW185665  14.211   7.091   5.571
61256SOL    HW285666  14.167   7.074   5.428
61257SOL     OW85667  11.382   8.432  14.586
61257SOL    HW185668  11.315   8.388  14.638
61257SOL    HW285669  11.464   8.389  14.610
61258SOL     OW85670   7.159   4.740   4.653
61258SOL    HW185671   7.206   4.658   4.639
61258SOL    HW285672   7.226   4.808   4.649
61259SOL     OW85673  14.153   3.047  12.887
61259SOL    HW185674  14.148   3.070  12.979
61259SOL    HW285675  14.156   2.951  12.886
61260SOL     OW85676   4.885  11.276   5.177
61260SOL    HW185677   4.962  11.242   5.223
61260SOL    HW285678   4.915  11.360   5.140
61261SOL     OW85679  13.792  10.428   2.051
61261SOL    HW185680  13.808  10.495   1.985
61261SOL    HW285681  13.733  10.469   2.114
61262SOL     OW85682   4.984  14.334   3.298
61262SOL    HW185683   5.020  14.299   3.379
61262SOL    HW285684   5.054  14.323   3.234
61263SOL     OW85685   6.904   2.980   4.521
61263SOL    HW185686   6.936   3.069   4.536
61263SOL    HW285687   6.827   2.991   4.465
61264SOL     OW85688  14.813  11.213   9.555
61264SOL    HW185689  14.773  11.140   9.508
61264SOL    HW285690  14.747  11.282   9.555
61265SOL     OW85691   3.964  13.832   4.940
61265SOL    HW185692   3.879  13.841   4.983
61265SOL    HW285693   4.026  13.821   5.011
61266SOL     OW85694   4.830   2.630  10.187
61266SOL    HW185695   4.766   2.561  10.203
61266SOL    HW285696   4.915   2.590  10.205
61267SOL     OW85697   7.367   0.612   0.464
61267SOL    HW185698   7.285   0.661   0.463
61267SOL    HW285699   7.397   0.614   0.373
61268SOL     OW85700   4.939   3.713   3.984
61268SOL    HW185701   4.932   3.745   4.074
61268SOL    HW285702   5.017   3.755   3.950
61269SOL     OW85703   1.173   7.087   8.014
61269SOL    HW185704   1.195   7.105   8.106
61269SOL    HW285705   1.086   7.125   8.002
61270SOL     OW85706   8.357   8.203  14.741
61270SOL    HW185707   8.361   8.109  14.728
61270SOL    HW285708   8.429   8.223  14.800
61271SOL     OW85709   5.571   2.668  10.315
61271SOL    HW185710   5.576   2.595  10.253
61271SOL    HW285711   5.485   2.659  10.357
61272SOL     OW85712  10.707   9.238  11.413
61272SOL    HW185713  10.679   9.177  11.344
61272SOL    HW285714  10.649   9.314  11.402
61273SOL     OW85715   3.149  12.862   2.729
61273SOL    HW185716   3.113  12.935   2.780
61273SOL    HW285717   3.244  12.873   2.736
61274SOL     OW85718   4.464   2.692   5.745
61274SOL    HW185719   4.544   2.649   5.715
61274SOL    HW285720   4.465   2.777   5.701
61275SOL     OW85721   1.714   9.094  11.245
61275SOL    HW185722   1.800   9.135  11.237
61275SOL    HW285723   1.710   9.066  11.337
61276SOL     OW85724   2.214   1.593  12.526
61276SOL    HW185725   2.139   1.542  12.555
61276SOL    HW285726   2.226   1.660  12.593
61277SOL     OW85727  11.385   3.882   4.673
61277SOL    HW185728  11.423   3.922   4.752
61277SOL    HW285729  11.408   3.943   4.603
61278SOL     OW85730   3.613   5.229   8.856
61278SOL    HW185731   3.522   5.218   8.827
61278SOL    HW285732   3.644   5.140   8.870
61279SOL     OW85733   3.718   8.380   3.148
61279SOL    HW185734   3.748   8.434   3.075
61279SOL    HW285735   3.735   8.433   3.225
61280SOL     OW85736   3.352   0.955  11.117
61280SOL    HW185737   3.335   0.990  11.029
61280SOL    HW285738   3.378   1.032  11.168
61281SOL     OW85739  13.579   1.296   5.901
61281SOL    HW185740  13.503   1.353   5.889
61281SOL    HW285741  13.584   1.244   5.821
61282SOL     OW85742   9.352   3.884  14.543
61282SOL    HW185743   9.374   3.936  14.465
61282SOL    HW285744   9.268   3.844  14.521
61283SOL     OW85745  13.357   5.367   2.641
61283SOL    HW185746  13.359   5.382   2.546
61283SOL    HW285747  13.273   5.404   2.669
61284SOL     OW85748  12.761   3.763   6.101
61284SOL    HW185749  12.724   3.713   6.029
61284SOL    HW285750  12.840   3.715   6.126
61285SOL     OW85751   8.178   0.372   9.290
61285SOL    HW185752   8.102   0.423   9.261
61285SOL    HW285753   8.250   0.402   9.235
61286SOL     OW85754   8.399  14.130   9.644
61286SOL    HW185755   8.394  14.039   9.614
61286SOL    HW285756   8.315  14.146   9.686
61287SOL     OW85757   7.169   3.481   8.353
61287SOL    HW185758   7.116   3.540   8.301
61287SOL    HW285759   7.257   3.519   8.350
61288SOL     OW85760   0.645   1.727  14.047
61288SOL    HW185761   0.732   1.688  14.055
61288SOL    HW285762   0.660   1.821  14.053
61289SOL     OW85763   4.859   1.984  13.577
61289SOL    HW185764   4.893   1.915  13.633
61289SOL    HW285765   4.785   1.944  13.531
61290SOL     OW85766  12.504   6.923   7.174
61290SOL    HW185767  12.490   6.848   7.115
61290SOL    HW285768  12.579   6.968   7.137
61291SOL     OW85769   7.147   7.267  12.698
61291SOL    HW185770   7.069   7.303  12.741
61291SOL    HW285771   7.143   7.173  12.717
61292SOL     OW85772   0.412   2.745   1.430
61292SOL    HW185773   0.449   2.825   1.466
61292SOL    HW285774   0.465   2.727   1.353
61293SOL     OW85775  11.243  14.846   6.042
61293SOL    HW185776  11.283   0.033   6.106
61293SOL    HW285777  11.157  14.826   6.079
61294SOL     OW85778   9.128  14.599   5.786
61294SOL    HW185779   9.034  14.610   5.783
61294SOL    HW285780   9.141  14.512   5.826
61295SOL     OW85781  13.200   3.993   1.318
61295SOL    HW185782  13.209   3.999   1.413
61295SOL    HW285783  13.122   4.045   1.298
61296SOL     OW85784  14.057   9.875   9.635
61296SOL    HW185785  14.117   9.801   9.630
61296SOL    HW285786  14.012   9.875   9.550
61297SOL     OW85787   2.868   1.109  12.498
61297SOL    HW185788   2.895   1.017  12.501
61297SOL    HW285789   2.774   1.106  12.477
61298SOL     OW85790   9.497  11.814  14.615
61298SOL    HW185791   9.560  11.876  14.651
61298SOL    HW285792   9.532  11.728  14.639
61299SOL     OW85793   0.540   6.106   7.912
61299SOL    HW185794   0.531   6.201   7.903
61299SOL    HW285795   0.492   6.070   7.837
61300SOL     OW85796  13.972   0.168   8.904
61300SOL    HW185797  13.988   0.230   8.975
61300SOL    HW285798  14.027   0.093   8.924
61301SOL     OW85799   8.716  13.285  12.700
61301SOL    HW185800   8.709  13.380  12.688
61301SOL    HW285801   8.698  13.272  12.794
61302SOL     OW85802  14.542  11.157  14.843
61302SOL    HW185803  14.600  11.098  14.794
61302SOL    HW285804  14.516  11.223  14.779
61303SOL     OW85805   4.830  10.354   4.115
61303SOL    HW185806   4.897  10.367   4.049
61303SOL    HW285807   4.796  10.442   4.133
61304SOL     OW85808   7.707   5.704   5.589
61304SOL    HW185809   7.742   5.666   5.509
61304SOL    HW285810   7.784   5.719   5.644
61305SOL     OW85811   9.074   1.179   0.233
61305SOL    HW185812   9.163   1.208   0.250
61305SOL    HW285813   9.066   1.180   0.138
61306SOL     OW85814   5.986   7.458   8.594
61306SOL    HW185815   5.993   7.440   8.500
61306SOL    HW285816   6.036   7.539   8.607
61307SOL     OW85817   2.013  14.326  14.462
61307SOL    HW185818   2.088  14.269  14.441
61307SOL    HW285819   1.968  14.338  14.378
61308SOL     OW85820   8.982   7.478   4.264
61308SOL    HW185821   8.916   7.419   4.228
61308SOL    HW285822   9.003   7.441   4.350
61309SOL     OW85823   3.214   6.465   4.376
61309SOL    HW185824   3.260   6.420   4.447
61309SOL    HW285825   3.123   6.440   4.387
61310SOL     OW85826   9.333   7.176   0.153
61310SOL    HW185827   9.424   7.167   0.125
61310SOL    HW285828   9.288   7.102   0.113
61311SOL     OW85829  13.299   7.090   4.881
61311SOL    HW185830  13.395   7.090   4.879
61311SOL    HW285831  13.277   7.143   4.959
61312SOL     OW85832   6.735   5.429   5.676
61312SOL    HW185833   6.716   5.384   5.758
61312SOL    HW285834   6.785   5.506   5.703
61313SOL     OW85835  10.668   7.067  11.544
61313SOL    HW185836  10.743   7.076  11.485
61313SOL    HW285837  10.612   7.001  11.502
61314SOL     OW85838  10.504   5.839   9.755
61314SOL    HW185839  10.548   5.754   9.746
61314SOL    HW285840  10.557   5.886   9.820
61315SOL     OW85841   2.699  14.378   3.440
61315SOL    HW185842   2.705  14.461   3.488
61315SOL    HW285843   2.681  14.312   3.507
61316SOL     OW85844   3.488   2.046   5.552
61316SOL    HW185845   3.418   2.005   5.602
61316SOL    HW285846   3.566   1.993   5.571
61317SOL     OW85847  13.950  12.682   1.078
61317SOL    HW185848  14.026  12.647   1.032
61317SOL    HW285849  13.901  12.605   1.106
61318SOL     OW85850   5.960  10.379   4.042
61318SOL    HW185851   5.897  10.358   3.972
61318SOL    HW285852   5.923  10.457   4.083
61319SOL     OW85853   6.344   2.672   9.509
61319SOL    HW185854   6.347   2.636   9.421
61319SOL    HW285855   6.432   2.659   9.543
61320SOL     OW85856   7.895   2.684   1.910
61320SOL    HW185857   7.978   2.667   1.866
61320SOL    HW285858   7.876   2.776   1.892
61321SOL     OW85859  12.417   0.728   4.112
61321SOL    HW185860  12.492   0.683   4.150
61321SOL    HW285861  12.449   0.762   4.028
61322SOL     OW85862  10.923   1.667   1.684
61322SOL    HW185863  10.976   1.718   1.745
61322SOL    HW285864  10.986   1.625   1.626
61323SOL     OW85865   2.775   8.880   8.982
61323SOL    HW185866   2.808   8.790   8.978
61323SOL    HW285867   2.685   8.871   9.014
61324SOL     OW85868  11.778   1.520   8.333
61324SOL    HW185869  11.871   1.498   8.330
61324SOL    HW285870  11.733   1.435   8.336
61325SOL     OW85871   2.121   5.560   9.031
61325SOL    HW185872   2.057   5.541   9.100
61325SOL    HW285873   2.202   5.519   9.061
61326SOL     OW85874   0.745   5.141   1.121
61326SOL    HW185875   0.705   5.225   1.145
61326SOL    HW285876   0.704   5.078   1.181
61327SOL     OW85877   5.858  14.750   4.628
61327SOL    HW185878   5.928  14.750   4.693
61327SOL    HW285879   5.833  14.842   4.620
61328SOL     OW85880   3.023  13.845   5.927
61328SOL    HW185881   3.089  13.908   5.899
61328SOL    HW285882   3.008  13.866   6.019
61329SOL     OW85883   1.871   9.225   8.910
61329SOL    HW185884   1.924   9.145   8.915
61329SOL    HW285885   1.880   9.253   8.819
61330SOL     OW85886   3.278  14.337   7.513
61330SOL    HW185887   3.202  14.394   7.520
61330SOL    HW285888   3.347  14.384   7.561
61331SOL     OW85889   3.274   6.212   6.899
61331SOL    HW185890   3.346   6.206   6.837
61331SOL    HW285891   3.287   6.139   6.959
61332SOL     OW85892   2.866   1.305   5.980
61332SOL    HW185893   2.857   1.324   5.887
61332SOL    HW285894   2.941   1.357   6.008
61333SOL     OW85895   0.334  11.078  10.632
61333SOL    HW185896   0.348  11.011  10.699
61333SOL    HW285897   0.255  11.124  10.660
61334SOL     OW85898  13.105   3.777   9.139
61334SOL    HW185899  13.072   3.689   9.121
61334SOL    HW285900  13.071   3.830   9.067
61335SOL     OW85901  10.354  10.506  10.130
61335SOL    HW185902  10.346  10.442  10.200
61335SOL    HW285903  10.408  10.576  10.166
61336SOL     OW85904   7.514   7.792   6.991
61336SOL    HW185905   7.425   7.826   6.982
61336SOL    HW285906   7.526   7.735   6.915
61337SOL     OW85907  10.588  11.375   0.683
61337SOL    HW185908  10.584  11.282   0.703
61337SOL    HW285909  10.497  11.405   0.693
61338SOL     OW85910   8.542   1.245   8.608
61338SOL    HW185911   8.477   1.176   8.593
61338SOL    HW285912   8.514   1.286   8.690
61339SOL     OW85913  13.557  11.732   1.956
61339SOL    HW185914  13.606  11.810   1.983
61339SOL    HW285915  13.613  11.690   1.891
61340SOL     OW85916   9.579  10.295   8.781
61340SOL    HW185917   9.607  10.204   8.771
61340SOL    HW285918   9.658  10.346   8.763
61341SOL     OW85919   0.330   3.286  12.575
61341SOL    HW185920   0.296   3.369  12.609
61341SOL    HW285921   0.399   3.312  12.514
61342SOL     OW85922   7.661  12.542   0.015
61342SOL    HW185923   7.657  12.557   0.109
61342SOL    HW285924   7.626  12.623  14.849
61343SOL     OW85925   2.774   8.821  12.650
61343SOL    HW185926   2.726   8.875  12.587
61343SOL    HW285927   2.783   8.877  12.727
61344SOL     OW85928   3.673   9.385  10.159
61344SOL    HW185929   3.611   9.330  10.112
61344SOL    HW285930   3.654   9.371  10.251
61345SOL     OW85931   6.081   8.882  13.065
61345SOL    HW185932   6.080   8.941  12.990
61345SOL    HW285933   6.037   8.802  13.034
61346SOL     OW85934  13.176  11.025   8.150
61346SOL    HW185935  13.126  10.957   8.196
61346SOL    HW285936  13.211  11.080   8.219
61347SOL     OW85937   8.082   1.331   7.545
61347SOL    HW185938   8.124   1.346   7.629
61347SOL    HW285939   8.055   1.418   7.515
61348SOL     OW85940   0.163  11.509  14.602
61348SOL    HW185941   0.226  11.581  14.596
61348SOL    HW285942   0.080  11.547  14.574
61349SOL     OW85943   8.578   0.380   7.951
61349SOL    HW185944   8.628   0.315   8.000
61349SOL    HW285945   8.487   0.353   7.960
61350SOL     OW85946   5.098  10.295  12.789
61350SOL    HW185947   5.127  10.209  12.821
61350SOL    HW285948   5.178  10.346  12.781
61351SOL     OW85949   3.999   7.837   6.149
61351SOL    HW185950   3.945   7.850   6.071
61351SOL    HW285951   4.086   7.867   6.123
61352SOL     OW85952   4.365   8.360  13.859
61352SOL    HW185953   4.353   8.435  13.801
61352SOL    HW285954   4.352   8.395  13.947
61353SOL     OW85955  14.012  14.517   7.004
61353SOL    HW185956  13.993  14.598   6.957
61353SOL    HW285957  14.076  14.472   6.950
61354SOL     OW85958   5.751   7.453   2.670
61354SOL    HW185959   5.670   7.413   2.637
61354SOL    HW285960   5.801   7.379   2.706
61355SOL     OW85961   0.867   7.953   7.938
61355SOL    HW185962   0.780   7.918   7.920
61355SOL    HW285963   0.872   8.034   7.887
61356SOL     OW85964  10.866  13.863   8.701
61356SOL    HW185965  10.942  13.894   8.652
61356SOL    HW285966  10.866  13.768   8.687
61357SOL     OW85967  11.402  10.083   0.433
61357SOL    HW185968  11.376  10.045   0.517
61357SOL    HW285969  11.421  10.007   0.377
61358SOL     OW85970   0.412  13.222   1.079
61358SOL    HW185971   0.374  13.219   0.991
61358SOL    HW285972   0.470  13.146   1.082
61359SOL     OW85973  14.334   3.549  11.590
61359SOL    HW185974  14.394   3.484  11.626
61359SOL    HW285975  14.259   3.499  11.559
61360SOL     OW85976   7.357   1.031  10.762
61360SOL    HW185977   7.305   1.062  10.837
61360SOL    HW285978   7.389   0.945  10.789
61361SOL     OW85979  13.075   1.921   7.533
61361SOL    HW185980  12.982   1.925   7.557
61361SOL    HW285981  13.100   1.831   7.550
61362SOL     OW85982   9.713   1.991   4.126
61362SOL    HW185983   9.663   1.950   4.056
61362SOL    HW285984   9.752   2.068   4.086
61363SOL     OW85985  10.931   7.919  14.347
61363SOL    HW185986  10.931   7.979  14.273
61363SOL    HW285987  10.842   7.925  14.382
61364SOL     OW85988  13.374   3.984  14.712
61364SOL    HW185989  13.446   4.020  14.660
61364SOL    HW285990  13.339   3.912  14.659
61365SOL     OW85991   9.626  10.783   2.879
61365SOL    HW185992   9.531  10.783   2.873
61365SOL    HW285993   9.644  10.796   2.972
61366SOL     OW85994  10.838  12.205  11.583
61366SOL    HW185995  10.912  12.265  11.571
61366SOL    HW285996  10.811  12.219  11.673
61367SOL     OW85997   0.872   5.510   1.940
61367SOL    HW185998   0.794   5.464   1.907
61367SOL    HW285999   0.912   5.549   1.862
61368SOL     OW86000   1.694   5.375   1.566
61368SOL    HW186001   1.786   5.360   1.587
61368SOL    HW286002   1.655   5.408   1.647
61369SOL     OW86003   6.613   9.360   1.656
61369SOL    HW186004   6.564   9.281   1.680
61369SOL    HW286005   6.599   9.370   1.562
61370SOL     OW86006  13.431   2.718   4.380
61370SOL    HW186007  13.415   2.652   4.313
61370SOL    HW286008  13.522   2.705   4.405
61371SOL     OW86009   7.721  13.929   8.838
61371SOL    HW186010   7.676  13.861   8.888
61371SOL    HW286011   7.803  13.887   8.810
61372SOL     OW86012  13.299  13.022  11.222
61372SOL    HW186013  13.324  13.034  11.314
61372SOL    HW286014  13.296  12.927  11.211
61373SOL     OW86015   8.716   9.378   2.976
61373SOL    HW186016   8.756   9.433   2.908
61373SOL    HW286017   8.670   9.309   2.927
61374SOL     OW86018   5.059   9.096  14.279
61374SOL    HW186019   5.029   9.113  14.190
61374SOL    HW286020   5.000   9.147  14.335
61375SOL     OW86021  13.651   0.935   0.014
61375SOL    HW186022  13.575   0.993   0.017
61375SOL    HW286023  13.625   0.859   0.067
61376SOL     OW86024  10.980  12.098  14.833
61376SOL    HW186025  10.885  12.098  14.826
61376SOL    HW286026  10.998  12.100   0.055
61377SOL     OW86027  11.403   3.131   3.740
61377SOL    HW186028  11.470   3.193   3.713
61377SOL    HW286029  11.380   3.085   3.659
61378SOL     OW86030   1.124  11.022  10.826
61378SOL    HW186031   1.153  10.986  10.743
61378SOL    HW286032   1.031  11.043  10.812
61379SOL     OW86033   1.793   6.998   0.215
61379SOL    HW186034   1.793   6.964   0.125
61379SOL    HW286035   1.853   7.072   0.214
61380SOL     OW86036   3.331   7.966   6.889
61380SOL    HW186037   3.265   8.034   6.876
61380SOL    HW286038   3.376   7.990   6.970
61381SOL     OW86039   7.264   1.777  12.242
61381SOL    HW186040   7.301   1.699  12.199
61381SOL    HW286041   7.324   1.795  12.314
61382SOL     OW86042   2.573   7.928  12.894
61382SOL    HW186043   2.551   7.929  12.801
61382SOL    HW286044   2.554   8.017  12.924
61383SOL     OW86045   3.249  12.793  10.879
61383SOL    HW186046   3.315  12.729  10.904
61383SOL    HW286047   3.175  12.740  10.848
61384SOL     OW86048   0.402  12.243   1.033
61384SOL    HW186049   0.438  12.195   0.958
61384SOL    HW286050   0.470  12.305   1.058
61385SOL     OW86051  11.620  13.575   7.205
61385SOL    HW186052  11.549  13.634   7.180
61385SOL    HW286053  11.584  13.487   7.196
61386SOL     OW86054  11.665   4.820  11.860
61386SOL    HW186055  11.570   4.811  11.873
61386SOL    HW286056  11.674   4.901  11.809
61387SOL     OW86057  14.492  14.708  10.233
61387SOL    HW186058  14.453  14.772  10.173
61387SOL    HW286059  14.584  14.705  10.209
61388SOL     OW86060  11.547   9.514  11.462
61388SOL    HW186061  11.581   9.554  11.542
61388SOL    HW286062  11.597   9.434  11.450
61389SOL     OW86063   8.562   7.136   9.967
61389SOL    HW186064   8.482   7.176   9.932
61389SOL    HW286065   8.537   7.045   9.985
61390SOL     OW86066   6.206  11.808  10.285
61390SOL    HW186067   6.130  11.752  10.270
61390SOL    HW286068   6.170  11.894  10.306
61391SOL     OW86069  10.552  13.532  13.811
61391SOL    HW186070  10.494  13.550  13.737
61391SOL    HW286071  10.509  13.459  13.857
61392SOL     OW86072  14.720  12.447   3.043
61392SOL    HW186073  14.737  12.529   2.996
61392SOL    HW286074  14.806  12.418   3.073
61393SOL     OW86075   6.898   2.471  14.361
61393SOL    HW186076   6.974   2.472  14.303
61393SOL    HW286077   6.836   2.410  14.319
61394SOL     OW86078   8.311  10.907   3.483
61394SOL    HW186079   8.286  10.995   3.512
61394SOL    HW286080   8.406  10.904   3.494
61395SOL     OW86081  11.922   7.062   4.589
61395SOL    HW186082  11.888   7.064   4.679
61395SOL    HW286083  11.990   6.994   4.591
61396SOL     OW86084  12.962   4.556  14.114
61396SOL    HW186085  12.965   4.530  14.022
61396SOL    HW286086  12.934   4.477  14.161
61397SOL     OW86087   4.574   1.138   8.857
61397SOL    HW186088   4.499   1.083   8.838
61397SOL    HW286089   4.545   1.227   8.836
61398SOL     OW86090  14.589   6.121   3.924
61398SOL    HW186091  14.670   6.172   3.928
61398SOL    HW286092  14.549   6.132   4.010
61399SOL     OW86093  13.024   6.995  10.428
61399SOL    HW186094  12.931   6.990  10.452
61399SOL    HW286095  13.069   6.950  10.500
61400SOL     OW86096  10.273  10.888   8.634
61400SOL    HW186097  10.360  10.850   8.646
61400SOL    HW286098  10.289  10.972   8.591
61401SOL     OW86099  12.935   3.007   2.712
61401SOL    HW186100  13.025   2.979   2.723
61401SOL    HW286101  12.898   2.945   2.648
61402SOL     OW86102  13.308   4.376  13.071
61402SOL    HW186103  13.394   4.414  13.056
61402SOL    HW286104  13.327   4.288  13.104
61403SOL     OW86105   8.799   6.713   7.232
61403SOL    HW186106   8.810   6.633   7.181
61403SOL    HW286107   8.850   6.778   7.185
61404SOL     OW86108   9.135  12.443  10.465
61404SOL    HW186109   9.091  12.523  10.435
61404SOL    HW286110   9.080  12.372  10.431
61405SOL     OW86111   1.023  10.076   1.287
61405SOL    HW186112   1.018  10.168   1.310
61405SOL    HW286113   0.959  10.033   1.343
61406SOL     OW86114  10.001   8.061   2.007
61406SOL    HW186115  10.060   8.127   2.045
61406SOL    HW286116   9.945   8.110   1.948
61407SOL     OW86117  14.012   6.099   1.195
61407SOL    HW186118  13.957   6.177   1.198
61407SOL    HW286119  13.974   6.040   1.260
61408SOL     OW86120   7.384   8.928   2.485
61408SOL    HW186121   7.372   8.853   2.544
61408SOL    HW286122   7.295   8.951   2.458
61409SOL     OW86123  11.464   4.508   9.113
61409SOL    HW186124  11.461   4.568   9.187
61409SOL    HW286125  11.554   4.517   9.079
61410SOL     OW86126   4.598   4.908   8.728
61410SOL    HW186127   4.650   4.980   8.693
61410SOL    HW286128   4.564   4.941   8.811
61411SOL     OW86129   9.230   5.930   6.026
61411SOL    HW186130   9.194   5.997   6.084
61411SOL    HW286131   9.219   5.848   6.075
61412SOL     OW86132   7.553   4.769   7.006
61412SOL    HW186133   7.606   4.824   7.063
61412SOL    HW286134   7.610   4.749   6.932
61413SOL     OW86135  10.326   4.588   5.265
61413SOL    HW186136  10.284   4.643   5.199
61413SOL    HW286137  10.409   4.562   5.225
61414SOL     OW86138   0.746  14.418   9.564
61414SOL    HW186139   0.703  14.477   9.502
61414SOL    HW286140   0.741  14.332   9.522
61415SOL     OW86141   7.747   2.652  14.705
61415SOL    HW186142   7.821   2.630  14.649
61415SOL    HW286143   7.697   2.715  14.653
61416SOL     OW86144   2.201   2.139   8.249
61416SOL    HW186145   2.174   2.084   8.322
61416SOL    HW286146   2.273   2.091   8.207
61417SOL     OW86147   0.183   7.892  11.439
61417SOL    HW186148   0.206   7.951  11.367
61417SOL    HW286149   0.178   7.806  11.398
61418SOL     OW86150   3.927   4.432  13.245
61418SOL    HW186151   4.014   4.463  13.222
61418SOL    HW286152   3.867   4.493  13.202
61419SOL     OW86153   0.878   9.734  10.600
61419SOL    HW186154   0.937   9.738  10.675
61419SOL    HW286155   0.791   9.727  10.639
61420SOL     OW86156   9.904   6.332   8.282
61420SOL    HW186157   9.948   6.385   8.216
61420SOL    HW286158   9.898   6.244   8.244
61421SOL     OW86159   9.294   8.382   5.577
61421SOL    HW186160   9.292   8.470   5.539
61421SOL    HW286161   9.212   8.342   5.548
61422SOL     OW86162  11.638   9.673  11.686
61422SOL    HW186163  11.691   9.631  11.753
61422SOL    HW286164  11.699   9.726  11.636
61423SOL     OW86165   0.961  10.904   4.549
61423SOL    HW186166   0.931  10.824   4.504
61423SOL    HW286167   0.993  10.873   4.634
61424SOL     OW86168   4.486  10.139   1.542
61424SOL    HW186169   4.399  10.152   1.581
61424SOL    HW286170   4.512  10.227   1.513
61425SOL     OW86171  11.315  10.064  13.225
61425SOL    HW186172  11.401  10.052  13.185
61425SOL    HW286173  11.334  10.095  13.314
61426SOL     OW86174  11.844   0.039   9.953
61426SOL    HW186175  11.856   0.087  10.035
61426SOL    HW286176  11.918   0.065   9.898
61427SOL     OW86177   8.137   1.714   1.018
61427SOL    HW186178   8.202   1.694   0.950
61427SOL    HW286179   8.127   1.632   1.067
61428SOL     OW86180  12.709  10.585   1.591
61428SOL    HW186181  12.652  10.508   1.589
61428SOL    HW286182  12.772  10.569   1.520
61429SOL     OW86183   4.762   6.784   9.641
61429SOL    HW186184   4.848   6.827   9.648
61429SOL    HW286185   4.701   6.855   9.621
61430SOL     OW86186  12.048   7.249  12.973
61430SOL    HW186187  12.003   7.167  12.994
61430SOL    HW286188  12.008   7.314  13.031
61431SOL     OW86189   6.560   3.574   1.171
61431SOL    HW186190   6.524   3.584   1.083
61431SOL    HW286191   6.512   3.636   1.225
61432SOL     OW86192  10.411   8.050   9.015
61432SOL    HW186193  10.404   8.144   8.996
61432SOL    HW286194  10.489   8.022   8.967
61433SOL     OW86195   1.054   3.837  11.031
61433SOL    HW186196   1.133   3.883  11.059
61433SOL    HW286197   1.040   3.866  10.941
61434SOL     OW86198  12.170   4.775  10.700
61434SOL    HW186199  12.111   4.827  10.755
61434SOL    HW286200  12.202   4.837  10.634
61435SOL     OW86201   7.974  12.996  14.850
61435SOL    HW186202   7.946  12.934   0.045
61435SOL    HW286203   7.903  13.060  14.845
61436SOL     OW86204   6.618   7.622   8.605
61436SOL    HW186205   6.592   7.530   8.601
61436SOL    HW286206   6.605   7.646   8.696
61437SOL     OW86207   8.953   6.317  13.296
61437SOL    HW186208   8.882   6.324  13.232
61437SOL    HW286209   8.923   6.252  13.359
61438SOL     OW86210  13.007   6.058   9.820
61438SOL    HW186211  12.983   6.125   9.757
61438SOL    HW286212  12.975   6.090   9.904
61439SOL     OW86213   2.678   2.111  14.119
61439SOL    HW186214   2.706   2.153  14.038
61439SOL    HW286215   2.668   2.019  14.097
61440SOL     OW86216   5.032   0.741   1.472
61440SOL    HW186217   5.097   0.743   1.542
61440SOL    HW286218   5.025   0.649   1.448
61441SOL     OW86219   0.505   3.869   5.850
61441SOL    HW186220   0.415   3.901   5.839
61441SOL    HW286221   0.545   3.930   5.912
61442SOL     OW86222   1.817   6.360   4.477
61442SOL    HW186223   1.870   6.435   4.450
61442SOL    HW286224   1.839   6.346   4.569
61443SOL     OW86225   5.084   9.002  12.487
61443SOL    HW186226   5.081   8.939  12.415
61443SOL    HW286227   5.099   8.948  12.565
61444SOL     OW86228   6.686   4.052   7.781
61444SOL    HW186229   6.756   3.986   7.786
61444SOL    HW286230   6.725   4.131   7.818
61445SOL     OW86231   8.853   2.484   0.489
61445SOL    HW186232   8.864   2.561   0.545
61445SOL    HW286233   8.942   2.463   0.460
61446SOL     OW86234   0.292   0.423   2.399
61446SOL    HW186235   0.368   0.430   2.342
61446SOL    HW286236   0.325   0.443   2.486
61447SOL     OW86237  13.741   2.815  13.580
61447SOL    HW186238  13.675   2.809  13.648
61447SOL    HW286239  13.722   2.741  13.522
61448SOL     OW86240   6.915  12.969   0.865
61448SOL    HW186241   6.854  12.926   0.925
61448SOL    HW286242   6.995  12.916   0.872
61449SOL     OW86243   7.344   7.250   5.095
61449SOL    HW186244   7.381   7.335   5.072
61449SOL    HW286245   7.323   7.210   5.010
61450SOL     OW86246   8.917  13.624   2.697
61450SOL    HW186247   8.893  13.533   2.712
61450SOL    HW286248   9.011  13.627   2.712
61451SOL     OW86249  13.305   9.868   8.636
61451SOL    HW186250  13.259   9.791   8.603
61451SOL    HW286251  13.239   9.938   8.634
61452SOL     OW86252   5.998  11.708   8.206
61452SOL    HW186253   5.965  11.720   8.117
61452SOL    HW286254   5.920  11.688   8.258
61453SOL     OW86255   8.270   9.473  14.690
61453SOL    HW186256   8.234   9.558  14.713
61453SOL    HW286257   8.275   9.425  14.773
61454SOL     OW86258  13.471  14.575  12.699
61454SOL    HW186259  13.547  14.611  12.745
61454SOL    HW286260  13.396  14.624  12.734
61455SOL     OW86261   8.826   1.195   5.065
61455SOL    HW186262   8.869   1.110   5.061
61455SOL    HW286263   8.896   1.258   5.045
61456SOL     OW86264   8.026  12.673  10.041
61456SOL    HW186265   8.045  12.688  10.133
61456SOL    HW286266   8.109  12.687   9.996
61457SOL     OW86267   4.509   2.177   5.774
61457SOL    HW186268   4.525   2.247   5.837
61457SOL    HW286269   4.464   2.219   5.702
61458SOL     OW86270   2.737   5.105  12.223
61458SOL    HW186271   2.660   5.159  12.209
61458SOL    HW286272   2.704   5.015  12.225
61459SOL     OW86273   0.893   3.814  13.919
61459SOL    HW186274   0.819   3.775  13.967
61459SOL    HW286275   0.869   3.805  13.827
61460SOL     OW86276   4.002  13.139  11.458
61460SOL    HW186277   4.077  13.126  11.517
61460SOL    HW286278   4.025  13.217  11.408
61461SOL     OW86279  14.396   1.848   5.876
61461SOL    HW186280  14.445   1.815   5.800
61461SOL    HW286281  14.448   1.920   5.910
61462SOL     OW86282   3.908  13.405   7.491
61462SOL    HW186283   3.931  13.440   7.576
61462SOL    HW286284   3.923  13.477   7.430
61463SOL     OW86285   0.579   4.387  13.660
61463SOL    HW186286   0.533   4.430  13.587
61463SOL    HW286287   0.670   4.411  13.647
61464SOL     OW86288  10.491   8.813   2.749
61464SOL    HW186289  10.532   8.728   2.763
61464SOL    HW286290  10.413   8.812   2.804
61465SOL     OW86291  13.222  13.124   6.177
61465SOL    HW186292  13.311  13.100   6.153
61465SOL    HW286293  13.216  13.217   6.156
61466SOL     OW86294   6.775   7.580  13.124
61466SOL    HW186295   6.746   7.601  13.213
61466SOL    HW286296   6.759   7.661  13.075
61467SOL     OW86297   5.326   7.983   8.657
61467SOL    HW186298   5.250   7.934   8.626
61467SOL    HW286299   5.367   8.017   8.578
61468SOL     OW86300   5.773   2.737  10.772
61468SOL    HW186301   5.721   2.664  10.802
61468SOL    HW286302   5.768   2.732  10.676
61469SOL     OW86303  10.008   2.832   9.787
61469SOL    HW186304  10.049   2.865   9.867
61469SOL    HW286305   9.923   2.800   9.815
61470SOL     OW86306   7.433   6.656   1.912
61470SOL    HW186307   7.491   6.730   1.893
61470SOL    HW286308   7.492   6.585   1.935
61471SOL     OW86309  12.974   1.882   1.632
61471SOL    HW186310  12.982   1.840   1.718
61471SOL    HW286311  12.880   1.893   1.620
61472SOL     OW86312  13.674   6.630  13.889
61472SOL    HW186313  13.650   6.541  13.914
61472SOL    HW286314  13.726   6.663  13.962
61473SOL     OW86315   7.895   9.579  12.344
61473SOL    HW186316   7.823   9.516  12.341
61473SOL    HW286317   7.870   9.641  12.412
61474SOL     OW86318   2.030   0.803  12.796
61474SOL    HW186319   2.046   0.898  12.794
61474SOL    HW286320   2.094   0.769  12.859
61475SOL     OW86321  14.006  10.021  12.025
61475SOL    HW186322  13.923  10.068  12.021
61475SOL    HW286323  14.009   9.987  12.115
61476SOL     OW86324   3.997   5.914  14.810
61476SOL    HW186325   4.071   5.880  14.861
61476SOL    HW286326   3.995   6.007  14.829
61477SOL     OW86327   6.013  14.430   9.124
61477SOL    HW186328   6.106  14.450   9.129
61477SOL    HW286329   5.972  14.493   9.183
61478SOL     OW86330   3.559   2.609   5.058
61478SOL    HW186331   3.490   2.673   5.043
61478SOL    HW286332   3.611   2.611   4.978
61479SOL     OW86333  13.551   4.540  10.597
61479SOL    HW186334  13.621   4.494  10.644
61479SOL    HW286335  13.513   4.599  10.663
61480SOL     OW86336   6.487   5.208  14.775
61480SOL    HW186337   6.527   5.228  14.691
61480SOL    HW286338   6.401   5.172  14.754
61481SOL     OW86339  12.745   9.946  12.883
61481SOL    HW186340  12.810   9.901  12.938
61481SOL    HW286341  12.671   9.886  12.881
61482SOL     OW86342   5.983   6.348   4.617
61482SOL    HW186343   5.970   6.388   4.531
61482SOL    HW286344   6.077   6.327   4.619
61483SOL     OW86345   0.641   1.512   0.372
61483SOL    HW186346   0.721   1.463   0.389
61483SOL    HW286347   0.634   1.515   0.277
61484SOL     OW86348   8.250   2.039  12.707
61484SOL    HW186349   8.194   2.116  12.702
61484SOL    HW286350   8.199   1.975  12.756
61485SOL     OW86351   5.375  13.229  13.936
61485SOL    HW186352   5.433  13.160  13.904
61485SOL    HW286353   5.427  13.309  13.928
61486SOL     OW86354   7.964   6.534   6.141
61486SOL    HW186355   7.922   6.454   6.172
61486SOL    HW286356   7.971   6.522   6.047
61487SOL     OW86357   3.752   7.945   7.941
61487SOL    HW186358   3.795   7.945   7.855
61487SOL    HW286359   3.820   7.973   8.002
61488SOL     OW86360   2.068   1.725   9.132
61488SOL    HW186361   1.977   1.752   9.125
61488SOL    HW286362   2.100   1.768   9.211
61489SOL     OW86363   1.824   1.656   7.451
61489SOL    HW186364   1.910   1.668   7.491
61489SOL    HW286365   1.801   1.565   7.470
61490SOL     OW86366  11.686   1.907  12.783
61490SOL    HW186367  11.639   1.950  12.711
61490SOL    HW286368  11.641   1.937  12.862
61491SOL     OW86369  12.972   5.055   5.825
61491SOL    HW186370  12.915   5.097   5.761
61491SOL    HW286371  12.912   5.007   5.882
61492SOL     OW86372   9.192   3.877   2.746
61492SOL    HW186373   9.157   3.798   2.706
61492SOL    HW286374   9.165   3.871   2.837
61493SOL     OW86375   2.730   3.187   5.393
61493SOL    HW186376   2.819   3.151   5.392
61493SOL    HW286377   2.723   3.236   5.311
61494SOL     OW86378   8.037   3.336   1.044
61494SOL    HW186379   7.995   3.377   0.968
61494SOL    HW286380   8.084   3.408   1.086
61495SOL     OW86381  14.636  12.837  11.650
61495SOL    HW186382  14.601  12.915  11.694
61495SOL    HW286383  14.679  12.871  11.572
61496SOL     OW86384  11.496   7.332   3.108
61496SOL    HW186385  11.567   7.395   3.118
61496SOL    HW286386  11.431   7.358   3.173
61497SOL     OW86387   8.924   1.193   2.490
61497SOL    HW186388   8.928   1.184   2.395
61497SOL    HW286389   9.015   1.185   2.519
61498SOL     OW86390   5.928   8.283   3.093
61498SOL    HW186391   5.994   8.320   3.153
61498SOL    HW286392   5.864   8.242   3.151
61499SOL     OW86393   7.716  12.286  14.546
61499SOL    HW186394   7.765  12.365  14.524
61499SOL    HW286395   7.669  12.308  14.626
61500SOL     OW86396  11.398   6.252   7.126
61500SOL    HW186397  11.380   6.163   7.158
61500SOL    HW286398  11.319   6.275   7.077
61501SOL     OW86399   2.933   7.100   5.203
61501SOL    HW186400   2.983   7.112   5.284
61501SOL    HW286401   2.846   7.071   5.233
61502SOL     OW86402   5.971   4.733  14.026
61502SOL    HW186403   5.976   4.825  14.054
61502SOL    HW286404   5.880   4.709  14.038
61503SOL     OW86405   6.731  12.609   1.778
61503SOL    HW186406   6.794  12.658   1.830
61503SOL    HW286407   6.732  12.520   1.816
61504SOL     OW86408   3.304  11.183  14.355
61504SOL    HW186409   3.231  11.172  14.416
61504SOL    HW286410   3.314  11.098  14.313
61505SOL     OW86411   7.649   9.501   6.851
61505SOL    HW186412   7.722   9.542   6.896
61505SOL    HW286413   7.598   9.459   6.920
61506SOL     OW86414  10.879   7.143   4.369
61506SOL    HW186415  10.844   7.137   4.280
61506SOL    HW286416  10.974   7.145   4.358
61507SOL     OW86417   6.488  13.104   6.599
61507SOL    HW186418   6.541  13.114   6.678
61507SOL    HW286419   6.550  13.115   6.527
61508SOL     OW86420   3.733   8.203   1.488
61508SOL    HW186421   3.692   8.162   1.412
61508SOL    HW286422   3.750   8.130   1.548
61509SOL     OW86423   3.696   1.865   9.410
61509SOL    HW186424   3.723   1.829   9.325
61509SOL    HW286425   3.751   1.943   9.422
61510SOL     OW86426   1.587   1.751  14.521
61510SOL    HW186427   1.554   1.723  14.606
61510SOL    HW286428   1.537   1.700  14.457
61511SOL     OW86429   5.409  11.124  11.220
61511SOL    HW186430   5.472  11.122  11.149
61511SOL    HW286431   5.396  11.033  11.245
61512SOL     OW86432   2.154  13.548   6.689
61512SOL    HW186433   2.114  13.624   6.732
61512SOL    HW286434   2.091  13.478   6.702
61513SOL     OW86435   8.130   3.955   9.201
61513SOL    HW186436   8.154   3.929   9.112
61513SOL    HW286437   8.104   3.874   9.244
61514SOL     OW86438  12.597   7.296   9.287
61514SOL    HW186439  12.510   7.280   9.249
61514SOL    HW286440  12.650   7.326   9.214
61515SOL     OW86441  12.001   3.626   3.714
61515SOL    HW186442  11.942   3.700   3.729
61515SOL    HW286443  11.954   3.571   3.651
61516SOL     OW86444  13.394  12.326  13.003
61516SOL    HW186445  13.331  12.314  12.932
61516SOL    HW286446  13.382  12.249  13.058
61517SOL     OW86447  13.710   0.060   8.989
61517SOL    HW186448  13.652   0.129   9.023
61517SOL    HW286449  13.796   0.103   8.983
61518SOL     OW86450  11.789  10.561  13.105
61518SOL    HW186451  11.711  10.534  13.153
61518SOL    HW286452  11.854  10.579  13.173
61519SOL     OW86453  11.594   2.328  10.960
61519SOL    HW186454  11.656   2.400  10.955
61519SOL    HW286455  11.564   2.328  11.051
61520SOL     OW86456   6.848   4.100  14.418
61520SOL    HW186457   6.905   4.031  14.453
61520SOL    HW286458   6.908   4.164  14.381
61521SOL     OW86459  13.744  13.055   9.625
61521SOL    HW186460  13.743  12.981   9.564
61521SOL    HW286461  13.796  13.025   9.699
61522SOL     OW86462   9.120   3.900   6.637
61522SOL    HW186463   9.063   3.832   6.673
61522SOL    HW286464   9.207   3.877   6.671
61523SOL     OW86465  12.749   2.389   2.554
61523SOL    HW186466  12.662   2.422   2.572
61523SOL    HW286467  12.735   2.310   2.501
61524SOL     OW86468   8.772  13.453   5.885
61524SOL    HW186469   8.843  13.510   5.915
61524SOL    HW286470   8.756  13.394   5.959
61525SOL     OW86471   8.021   9.398  12.585
61525SOL    HW186472   8.054   9.426  12.500
61525SOL    HW286473   8.093   9.351  12.626
61526SOL     OW86474   7.187   9.725   4.240
61526SOL    HW186475   7.123   9.671   4.286
61526SOL    HW286476   7.220   9.668   4.170
61527SOL     OW86477  11.673   0.693  11.765
61527SOL    HW186478  11.592   0.677  11.715
61527SOL    HW286479  11.643   0.738  11.844
61528SOL     OW86480   6.187   8.275   7.031
61528SOL    HW186481   6.187   8.239   6.942
61528SOL    HW286482   6.192   8.198   7.088
61529SOL     OW86483   5.709   3.935  13.697
61529SOL    HW186484   5.796   3.912  13.731
61529SOL    HW286485   5.715   4.029  13.678
61530SOL     OW86486  10.895   4.369   5.641
61530SOL    HW186487  10.972   4.314   5.655
61530SOL    HW286488  10.847   4.326   5.571
61531SOL     OW86489  13.712   9.592  14.662
61531SOL    HW186490  13.782   9.549  14.613
61531SOL    HW286491  13.637   9.591  14.603
61532SOL     OW86492   0.934   8.734  13.043
61532SOL    HW186493   0.922   8.731  13.138
61532SOL    HW286494   0.871   8.800  13.013
61533SOL     OW86495   2.444   0.714   2.565
61533SOL    HW186496   2.419   0.797   2.605
61533SOL    HW286497   2.516   0.683   2.620
61534SOL     OW86498   0.504   0.191   2.122
61534SOL    HW186499   0.471   0.274   2.156
61534SOL    HW286500   0.544   0.214   2.038
61535SOL     OW86501  13.593   3.192  11.778
61535SOL    HW186502  13.605   3.225  11.689
61535SOL    HW286503  13.499   3.191  11.792
61536SOL     OW86504   4.108   7.277   4.303
61536SOL    HW186505   4.193   7.248   4.271
61536SOL    HW286506   4.097   7.233   4.387
61537SOL     OW86507   6.095   0.055   7.998
61537SOL    HW186508   6.102   0.149   8.012
61537SOL    HW286509   6.182   0.021   8.022
61538SOL     OW86510  14.064  14.675   2.030
61538SOL    HW186511  14.116  14.609   2.076
61538SOL    HW286512  14.028  14.628   1.955
61539SOL     OW86513   7.008   1.226   1.751
61539SOL    HW186514   6.919   1.242   1.784
61539SOL    HW286515   7.054   1.308   1.769
61540SOL     OW86516   2.568  12.365   9.894
61540SOL    HW186517   2.500  12.314   9.849
61540SOL    HW286518   2.628  12.391   9.824
61541SOL     OW86519  13.214   6.504  11.164
61541SOL    HW186520  13.120   6.515  11.176
61541SOL    HW286521  13.222   6.420  11.119
61542SOL     OW86522   3.899   8.552  13.407
61542SOL    HW186523   3.876   8.528  13.496
61542SOL    HW286524   3.921   8.470  13.364
61543SOL     OW86525   7.356   0.714   3.202
61543SOL    HW186526   7.386   0.801   3.228
61543SOL    HW286527   7.274   0.729   3.156
61544SOL     OW86528   4.483  13.369   1.731
61544SOL    HW186529   4.497  13.462   1.713
61544SOL    HW286530   4.479  13.364   1.826
61545SOL     OW86531   9.044  13.301   8.076
61545SOL    HW186532   9.041  13.228   8.014
61545SOL    HW286533   8.992  13.370   8.035
61546SOL     OW86534   0.908   2.409   3.548
61546SOL    HW186535   0.878   2.320   3.565
61546SOL    HW286536   0.881   2.459   3.625
61547SOL     OW86537   4.672  13.865   5.474
61547SOL    HW186538   4.709  13.819   5.550
61547SOL    HW286539   4.591  13.904   5.507
61548SOL     OW86540   9.247   1.715   0.218
61548SOL    HW186541   9.330   1.761   0.232
61548SOL    HW286542   9.195   1.735   0.296
61549SOL     OW86543  13.990   1.490  13.079
61549SOL    HW186544  14.061   1.434  13.050
61549SOL    HW286545  13.913   1.433  13.084
61550SOL     OW86546  10.857  14.745   4.995
61550SOL    HW186547  10.820  14.820   4.947
61550SOL    HW286548  10.781  14.699   5.029
61551SOL     OW86549   6.335   4.949   4.694
61551SOL    HW186550   6.379   4.923   4.613
61551SOL    HW286551   6.310   5.040   4.680
61552SOL     OW86552   0.300   7.032   8.242
61552SOL    HW186553   0.346   7.113   8.219
61552SOL    HW286554   0.304   7.028   8.337
61553SOL     OW86555   4.214   6.412   8.644
61553SOL    HW186556   4.241   6.380   8.558
61553SOL    HW286557   4.195   6.504   8.631
61554SOL     OW86558  12.237   6.935   1.428
61554SOL    HW186559  12.230   6.941   1.524
61554SOL    HW286560  12.180   6.862   1.404
61555SOL     OW86561   7.985   9.044   1.952
61555SOL    HW186562   7.890   9.049   1.964
61555SOL    HW286563   8.003   8.951   1.941
61556SOL     OW86564   9.128   0.601  12.188
61556SOL    HW186565   9.185   0.525  12.198
61556SOL    HW286566   9.135   0.647  12.272
61557SOL     OW86567  12.297   4.246  13.434
61557SOL    HW186568  12.218   4.248  13.488
61557SOL    HW286569  12.264   4.229  13.345
61558SOL     OW86570  10.911  12.390   5.448
61558SOL    HW186571  10.950  12.388   5.535
61558SOL    HW286572  10.928  12.479   5.416
61559SOL     OW86573  10.061  13.669  11.844
61559SOL    HW186574   9.970  13.672  11.875
61559SOL    HW286575  10.069  13.583  11.802
61560SOL     OW86576  13.106   5.306   8.281
61560SOL    HW186577  13.185   5.259   8.309
61560SOL    HW286578  13.081   5.358   8.358
61561SOL     OW86579   4.196   8.211   5.832
61561SOL    HW186580   4.102   8.208   5.818
61561SOL    HW286581   4.208   8.175   5.920
61562SOL     OW86582   0.023   1.783   3.201
61562SOL    HW186583   0.011   1.877   3.210
61562SOL    HW286584  14.838   1.745   3.268
61563SOL     OW86585   1.519  14.513   3.815
61563SOL    HW186586   1.575  14.522   3.892
61563SOL    HW286587   1.579  14.503   3.742
61564SOL     OW86588  12.252   7.886  14.637
61564SOL    HW186589  12.259   7.797  14.603
61564SOL    HW286590  12.305   7.886  14.717
61565SOL     OW86591   0.159  13.772   2.385
61565SOL    HW186592   0.207  13.698   2.346
61565SOL    HW286593   0.200  13.850   2.348
61566SOL     OW86594   5.818   2.645   3.857
61566SOL    HW186595   5.740   2.608   3.899
61566SOL    HW286596   5.836   2.586   3.784
61567SOL     OW86597  14.250  14.118   6.109
61567SOL    HW186598  14.180  14.054   6.124
61567SOL    HW286599  14.324  14.086   6.161
61568SOL     OW86600   1.763  12.871   8.698
61568SOL    HW186601   1.711  12.807   8.650
61568SOL    HW286602   1.755  12.951   8.647
61569SOL     OW86603  13.592   3.526   2.765
61569SOL    HW186604  13.572   3.505   2.856
61569SOL    HW286605  13.659   3.463   2.739
61570SOL     OW86606   6.133   8.539   0.089
61570SOL    HW186607   6.160   8.568   0.002
61570SOL    HW286608   6.087   8.456   0.074
61571SOL     OW86609   8.543  11.380  10.008
61571SOL    HW186610   8.480  11.315   9.980
61571SOL    HW286611   8.495  11.434  10.071
61572SOL     OW86612  14.549  13.740   1.865
61572SOL    HW186613  14.582  13.722   1.777
61572SOL    HW286614  14.469  13.687   1.872
61573SOL     OW86615   6.953  12.934   7.351
61573SOL    HW186616   6.999  12.883   7.418
61573SOL    HW286617   6.968  12.887   7.269
61574SOL     OW86618   4.704   6.797  13.061
61574SOL    HW186619   4.724   6.885  13.027
61574SOL    HW286620   4.744   6.795  13.147
61575SOL     OW86621  13.849   2.970  11.285
61575SOL    HW186622  13.869   2.983  11.192
61575SOL    HW286623  13.889   2.885  11.305
61576SOL     OW86624  13.609   6.013  11.851
61576SOL    HW186625  13.687   6.009  11.796
61576SOL    HW286626  13.637   5.982  11.937
61577SOL     OW86627  14.233  12.295   4.744
61577SOL    HW186628  14.278  12.257   4.820
61577SOL    HW286629  14.213  12.385   4.771
61578SOL     OW86630   5.894   7.157   4.495
61578SOL    HW186631   5.815   7.184   4.544
61578SOL    HW286632   5.876   7.066   4.469
61579SOL     OW86633   1.178  11.428   2.028
61579SOL    HW186634   1.179  11.363   2.099
61579SOL    HW286635   1.194  11.511   2.072
61580SOL     OW86636   7.525  11.399   6.191
61580SOL    HW186637   7.499  11.456   6.263
61580SOL    HW286638   7.616  11.377   6.209
61581SOL     OW86639  13.680   2.319   2.989
61581SOL    HW186640  13.708   2.234   3.024
61581SOL    HW286641  13.757   2.375   2.997
61582SOL     OW86642   1.614   0.347  11.839
61582SOL    HW186643   1.643   0.438  11.851
61582SOL    HW286644   1.692   0.301  11.807
61583SOL     OW86645   0.345   6.706  14.567
61583SOL    HW186646   0.290   6.775  14.604
61583SOL    HW286647   0.412   6.754  14.517
61584SOL     OW86648  11.104   2.697   5.017
61584SOL    HW186649  11.190   2.681   5.053
61584SOL    HW286650  11.097   2.637   4.943
61585SOL     OW86651  10.910   8.443   5.695
61585SOL    HW186652  10.821   8.410   5.702
61585SOL    HW286653  10.952   8.416   5.777
61586SOL     OW86654   2.334   8.083   6.095
61586SOL    HW186655   2.314   8.003   6.047
61586SOL    HW286656   2.377   8.140   6.031
61587SOL     OW86657   1.828   4.221   6.073
61587SOL    HW186658   1.880   4.272   6.135
61587SOL    HW286659   1.877   4.140   6.061
61588SOL     OW86660   3.563   0.919   7.924
61588SOL    HW186661   3.571   0.903   7.831
61588SOL    HW286662   3.558   1.015   7.932
61589SOL     OW86663  13.529  12.584  12.959
61589SOL    HW186664  13.584  12.573  13.036
61589SOL    HW286665  13.486  12.499  12.948
61590SOL     OW86666   1.545   8.765   2.231
61590SOL    HW186667   1.488   8.713   2.175
61590SOL    HW286668   1.615   8.795   2.173
61591SOL     OW86669   6.247  12.384   4.641
61591SOL    HW186670   6.212  12.369   4.553
61591SOL    HW286671   6.172  12.375   4.699
61592SOL     OW86672  14.436   9.429   6.516
61592SOL    HW186673  14.349   9.448   6.481
61592SOL    HW286674  14.419   9.384   6.599
61593SOL     OW86675   5.723  12.078  13.248
61593SOL    HW186676   5.799  12.133  13.229
61593SOL    HW286677   5.648  12.138  13.239
61594SOL     OW86678   1.284   4.328   6.946
61594SOL    HW186679   1.271   4.411   6.991
61594SOL    HW286680   1.260   4.346   6.855
61595SOL     OW86681   8.485  13.022  11.519
61595SOL    HW186682   8.470  12.973  11.599
61595SOL    HW286683   8.561  12.979  11.478
61596SOL     OW86684  11.284   8.905   5.504
61596SOL    HW186685  11.378   8.894   5.493
61596SOL    HW286686  11.257   8.829   5.556
61597SOL     OW86687  13.626   1.439   7.148
61597SOL    HW186688  13.651   1.519   7.103
61597SOL    HW286689  13.584   1.385   7.081
61598SOL     OW86690   0.094  11.215   9.303
61598SOL    HW186691   0.066  11.217   9.394
61598SOL    HW286692   0.017  11.184   9.255
61599SOL     OW86693  10.196   7.122   3.769
61599SOL    HW186694  10.215   7.048   3.711
61599SOL    HW286695  10.276   7.175   3.767
61600SOL     OW86696   8.876  11.602   5.453
61600SOL    HW186697   8.894  11.532   5.391
61600SOL    HW286698   8.850  11.557   5.533
61601SOL     OW86699   4.551  11.220   4.170
61601SOL    HW186700   4.561  11.130   4.138
61601SOL    HW286701   4.588  11.219   4.258
61602SOL     OW86702   1.061   9.985   8.145
61602SOL    HW186703   1.054   9.940   8.061
61602SOL    HW286704   1.125   9.935   8.194
61603SOL     OW86705   8.996   5.802  14.603
61603SOL    HW186706   9.043   5.731  14.560
61603SOL    HW286707   8.945   5.759  14.672
61604SOL     OW86708  10.369   5.274  11.047
61604SOL    HW186709  10.442   5.279  11.109
61604SOL    HW286710  10.412   5.265  10.961
61605SOL     OW86711  11.692   9.426   2.686
61605SOL    HW186712  11.701   9.412   2.781
61605SOL    HW286713  11.711   9.519   2.674
61606SOL     OW86714   3.034   0.000   3.217
61606SOL    HW186715   3.004  14.793   3.174
61606SOL    HW286716   3.128   0.004   3.199
61607SOL     OW86717   5.656  14.447   2.956
61607SOL    HW186718   5.693  14.462   3.043
61607SOL    HW286719   5.584  14.386   2.971
61608SOL     OW86720   5.305   2.127  13.325
61608SOL    HW186721   5.242   2.066  13.362
61608SOL    HW286722   5.366   2.146  13.397
61609SOL     OW86723   2.540   5.388  12.433
61609SOL    HW186724   2.470   5.416  12.492
61609SOL    HW286725   2.610   5.451  12.447
61610SOL     OW86726   2.368   7.845   5.486
61610SOL    HW186727   2.433   7.855   5.557
61610SOL    HW286728   2.355   7.933   5.453
61611SOL     OW86729  10.641  10.241   9.731
61611SOL    HW186730  10.671  10.318   9.682
61611SOL    HW286731  10.704  10.233   9.802
61612SOL     OW86732   3.420   8.782   1.697
61612SOL    HW186733   3.422   8.742   1.784
61612SOL    HW286734   3.509   8.774   1.664
61613SOL     OW86735   5.282   8.473   4.511
61613SOL    HW186736   5.292   8.568   4.517
61613SOL    HW286737   5.308   8.440   4.596
61614SOL     OW86738   4.969   1.494   6.599
61614SOL    HW186739   4.874   1.507   6.609
61614SOL    HW286740   4.984   1.506   6.505
61615SOL     OW86741   4.689   1.021   5.048
61615SOL    HW186742   4.622   0.957   5.072
61615SOL    HW286743   4.731   0.985   4.970
61616SOL     OW86744   7.157   9.499   6.479
61616SOL    HW186745   7.106   9.506   6.560
61616SOL    HW286746   7.162   9.405   6.462
61617SOL     OW86747  12.544  11.596   4.812
61617SOL    HW186748  12.506  11.508   4.816
61617SOL    HW286749  12.634  11.582   4.785
61618SOL     OW86750   8.152  11.468   9.874
61618SOL    HW186751   8.116  11.407   9.939
61618SOL    HW286752   8.239  11.433   9.854
61619SOL     OW86753   7.162   7.192   1.424
61619SOL    HW186754   7.146   7.221   1.334
61619SOL    HW286755   7.182   7.272   1.472
61620SOL     OW86756   1.653  11.130   0.796
61620SOL    HW186757   1.621  11.066   0.859
61620SOL    HW286758   1.722  11.177   0.842
61621SOL     OW86759   8.137   6.279   7.270
61621SOL    HW186760   8.074   6.339   7.309
61621SOL    HW286761   8.120   6.284   7.176
61622SOL     OW86762  11.051  12.723  12.775
61622SOL    HW186763  11.062  12.816  12.793
61622SOL    HW286764  11.114  12.679  12.833
61623SOL     OW86765   3.654  12.627   4.203
61623SOL    HW186766   3.645  12.678   4.122
61623SOL    HW286767   3.603  12.677   4.267
61624SOL     OW86768   7.916  12.369   8.848
61624SOL    HW186769   7.838  12.406   8.889
61624SOL    HW286770   7.969  12.445   8.825
61625SOL     OW86771   0.983  14.817   5.962
61625SOL    HW186772   1.034  14.807   6.042
61625SOL    HW286773   1.021   0.021   5.918
61626SOL     OW86774   9.732  12.076  14.472
61626SOL    HW186775   9.715  12.033  14.555
61626SOL    HW286776   9.645  12.095  14.436
61627SOL     OW86777   0.551   3.737   0.605
61627SOL    HW186778   0.525   3.815   0.554
61627SOL    HW286779   0.507   3.665   0.561
61628SOL     OW86780  12.982  11.691  11.331
61628SOL    HW186781  13.070  11.658  11.352
61628SOL    HW286782  12.933  11.612  11.307
61629SOL     OW86783   6.474   8.462   0.849
61629SOL    HW186784   6.496   8.531   0.912
61629SOL    HW286785   6.431   8.509   0.777
61630SOL     OW86786   6.539   2.272   2.165
61630SOL    HW186787   6.582   2.329   2.100
61630SOL    HW286788   6.598   2.198   2.174
61631SOL     OW86789   1.525   7.662   4.239
61631SOL    HW186790   1.495   7.579   4.276
61631SOL    HW286791   1.515   7.725   4.311
61632SOL     OW86792   0.197  10.553  11.605
61632SOL    HW186793   0.291  10.546  11.625
61632SOL    HW286794   0.186  10.643  11.576
61633SOL     OW86795  14.311   1.675  14.327
61633SOL    HW186796  14.262   1.739  14.275
61633SOL    HW286797  14.336   1.606  14.266
61634SOL     OW86798  14.338   3.070  14.745
61634SOL    HW186799  14.313   3.106  14.830
61634SOL    HW286800  14.396   2.997  14.767
61635SOL     OW86801  10.239   7.329   8.237
61635SOL    HW186802  10.176   7.342   8.166
61635SOL    HW286803  10.232   7.236   8.259
61636SOL     OW86804  13.283  12.131   3.906
61636SOL    HW186805  13.340  12.130   3.984
61636SOL    HW286806  13.333  12.179   3.840
61637SOL     OW86807   1.882   6.529   2.716
61637SOL    HW186808   1.928   6.611   2.697
61637SOL    HW286809   1.818   6.552   2.783
61638SOL     OW86810   0.058   2.666  11.227
61638SOL    HW186811   0.070   2.574  11.253
61638SOL    HW286812  14.841   2.686  11.252
61639SOL     OW86813   2.211   2.725   8.083
61639SOL    HW186814   2.194   2.631   8.094
61639SOL    HW286815   2.261   2.731   8.002
61640SOL     OW86816   6.274   3.680   2.802
61640SOL    HW186817   6.307   3.688   2.712
61640SOL    HW286818   6.289   3.588   2.824
61641SOL     OW86819   8.899  14.489   1.097
61641SOL    HW186820   8.956  14.428   1.145
61641SOL    HW286821   8.931  14.486   1.007
61642SOL     OW86822  12.411  14.253   9.839
61642SOL    HW186823  12.413  14.157   9.838
61642SOL    HW286824  12.441  14.277   9.927
61643SOL     OW86825  10.181   0.850   0.109
61643SOL    HW186826  10.100   0.801   0.097
61643SOL    HW286827  10.194   0.897   0.026
61644SOL     OW86828   2.986   3.078   5.354
61644SOL    HW186829   3.027   3.080   5.441
61644SOL    HW286830   2.961   2.987   5.341
61645SOL     OW86831   9.308   4.746   1.603
61645SOL    HW186832   9.260   4.804   1.543
61645SOL    HW286833   9.263   4.755   1.687
61646SOL     OW86834  14.573  13.280   8.519
61646SOL    HW186835  14.586  13.237   8.604
61646SOL    HW286836  14.483  13.259   8.495
61647SOL     OW86837  11.567   0.141   6.366
61647SOL    HW186838  11.484   0.164   6.326
61647SOL    HW286839  11.624   0.216   6.349
61648SOL     OW86840   9.287  11.650  13.747
61648SOL    HW186841   9.240  11.567  13.742
61648SOL    HW286842   9.255  11.701  13.673
61649SOL     OW86843  13.876  10.960   6.856
61649SOL    HW186844  13.811  10.898   6.889
61649SOL    HW286845  13.825  11.034   6.824
61650SOL     OW86846   9.367  13.035  14.418
61650SOL    HW186847   9.401  13.008  14.332
61650SOL    HW286848   9.409  12.975  14.480
61651SOL     OW86849   0.064  12.729   8.634
61651SOL    HW186850   0.121  12.671   8.684
61651SOL    HW286851  14.848  12.707   8.662
61652SOL     OW86852  11.468  13.316  12.678
61652SOL    HW186853  11.500  13.290  12.592
61652SOL    HW286854  11.528  13.385  12.707
61653SOL     OW86855   4.308   2.094   9.129
61653SOL    HW186856   4.270   2.176   9.098
61653SOL    HW286857   4.239   2.029   9.115
61654SOL     OW86858  10.616   8.122  13.120
61654SOL    HW186859  10.635   8.147  13.211
61654SOL    HW286860  10.522   8.137  13.110
61655SOL     OW86861   4.239   2.873   9.667
61655SOL    HW186862   4.162   2.929   9.674
61655SOL    HW286863   4.236   2.839   9.578
61656SOL     OW86864   5.977   9.184   7.813
61656SOL    HW186865   5.960   9.113   7.874
61656SOL    HW286866   5.930   9.159   7.733
61657SOL     OW86867   7.506  12.064   5.935
61657SOL    HW186868   7.582  12.041   5.990
61657SOL    HW286869   7.493  11.987   5.879
61658SOL     OW86870   1.977  11.500  13.137
61658SOL    HW186871   1.937  11.480  13.222
61658SOL    HW286872   1.993  11.594  13.140
61659SOL     OW86873   6.970   3.837  13.643
61659SOL    HW186874   7.041   3.870  13.588
61659SOL    HW286875   6.890   3.863  13.597
61660SOL     OW86876   9.780  10.570   6.904
61660SOL    HW186877   9.819  10.615   6.979
61660SOL    HW286878   9.837  10.495   6.889
61661SOL     OW86879   3.491  14.498   7.584
61661SOL    HW186880   3.452  14.565   7.640
61661SOL    HW286881   3.584  14.520   7.582
61662SOL     OW86882   5.068  14.240  14.062
61662SOL    HW186883   5.104  14.156  14.032
61662SOL    HW286884   4.994  14.215  14.119
61663SOL     OW86885   6.214   9.531   5.456
61663SOL    HW186886   6.132   9.580   5.454
61663SOL    HW286887   6.206   9.468   5.385
61664SOL     OW86888  13.287  12.369   6.135
61664SOL    HW186889  13.221  12.397   6.199
61664SOL    HW286890  13.329  12.449   6.106
61665SOL     OW86891  11.112  12.658   9.435
61665SOL    HW186892  11.033  12.682   9.483
61665SOL    HW286893  11.096  12.568   9.406
61666SOL     OW86894  14.816  10.618  11.300
61666SOL    HW186895  14.749  10.556  11.271
61666SOL    HW286896  14.870  10.568  11.362
61667SOL     OW86897   0.363  12.974   2.071
61667SOL    HW186898   0.444  12.936   2.103
61667SOL    HW286899   0.390  13.033   2.000
61668SOL     OW86900   9.997   2.594   1.522
61668SOL    HW186901   9.957   2.557   1.601
61668SOL    HW286902  10.050   2.668   1.553
61669SOL     OW86903   5.345   3.591   3.261
61669SOL    HW186904   5.270   3.634   3.221
61669SOL    HW286905   5.410   3.660   3.271
61670SOL     OW86906   6.825  11.663   5.666
61670SOL    HW186907   6.820  11.655   5.761
61670SOL    HW286908   6.784  11.748   5.647
61671SOL     OW86909   7.395  10.926   6.271
61671SOL    HW186910   7.344  10.851   6.241
61671SOL    HW286911   7.361  11.000   6.220
61672SOL     OW86912   6.480   3.673   3.198
61672SOL    HW186913   6.398   3.702   3.157
61672SOL    HW286914   6.496   3.586   3.161
61673SOL     OW86915   2.144   4.959   0.835
61673SOL    HW186916   2.108   4.892   0.777
61673SOL    HW286917   2.229   4.980   0.798
61674SOL     OW86918   3.831  12.388  13.754
61674SOL    HW186919   3.751  12.406  13.705
61674SOL    HW286920   3.881  12.470  13.748
61675SOL     OW86921   7.243   3.708  12.781
61675SOL    HW186922   7.161   3.721  12.732
61675SOL    HW286923   7.283   3.632  12.740
61676SOL     OW86924   9.335   6.911   9.188
61676SOL    HW186925   9.361   6.956   9.269
61676SOL    HW286926   9.256   6.956   9.160
61677SOL     OW86927  11.426   9.493  10.072
61677SOL    HW186928  11.418   9.468  10.164
61677SOL    HW286929  11.513   9.533  10.065
61678SOL     OW86930   2.724  13.243   4.090
61678SOL    HW186931   2.768  13.206   4.167
61678SOL    HW286932   2.777  13.318   4.066
61679SOL     OW86933   8.710   2.602   2.200
61679SOL    HW186934   8.804   2.611   2.215
61679SOL    HW286935   8.672   2.589   2.287
61680SOL     OW86936   9.080   8.655  11.273
61680SOL    HW186937   9.137   8.594  11.227
61680SOL    HW286938   9.057   8.721  11.207
61681SOL     OW86939   2.220   6.915   8.497
61681SOL    HW186940   2.198   6.902   8.589
61681SOL    HW286941   2.309   6.883   8.488
61682SOL     OW86942   9.331   7.604   7.038
61682SOL    HW186943   9.404   7.542   7.047
61682SOL    HW286944   9.260   7.552   6.999
61683SOL     OW86945   3.702   3.989   1.096
61683SOL    HW186946   3.657   3.905   1.092
61683SOL    HW286947   3.640   4.048   1.140
61684SOL     OW86948   3.719   1.053   4.539
61684SOL    HW186949   3.743   0.965   4.569
61684SOL    HW286950   3.624   1.051   4.534
61685SOL     OW86951  13.816  12.619  14.640
61685SOL    HW186952  13.872  12.595  14.566
61685SOL    HW286953  13.730  12.585  14.617
61686SOL     OW86954   9.836   9.946   0.712
61686SOL    HW186955   9.918   9.984   0.743
61686SOL    HW286956   9.862   9.864   0.669
61687SOL     OW86957   0.219   9.136  10.444
61687SOL    HW186958   0.214   9.206  10.379
61687SOL    HW286959   0.237   9.057  10.393
61688SOL     OW86960  11.108   8.863   7.785
61688SOL    HW186961  11.050   8.799   7.826
61688SOL    HW286962  11.073   8.948   7.812
61689SOL     OW86963  12.407   8.269   4.111
61689SOL    HW186964  12.496   8.243   4.134
61689SOL    HW286965  12.375   8.198   4.056
61690SOL     OW86966   5.946  13.347  11.148
61690SOL    HW186967   5.875  13.389  11.197
61690SOL    HW286968   5.904  13.275  11.102
61691SOL     OW86969   3.155   7.776   8.680
61691SOL    HW186970   3.239   7.811   8.710
61691SOL    HW286971   3.115   7.848   8.631
61692SOL     OW86972   6.805   8.724  14.686
61692SOL    HW186973   6.758   8.739  14.768
61692SOL    HW286974   6.766   8.645  14.649
61693SOL     OW86975  14.424  10.761  14.200
61693SOL    HW186976  14.430  10.725  14.111
61693SOL    HW286977  14.339  10.805  14.203
61694SOL     OW86978  10.891  12.895   0.908
61694SOL    HW186979  10.863  12.916   0.997
61694SOL    HW286980  10.818  12.845   0.871
61695SOL     OW86981  14.217   4.552   1.427
61695SOL    HW186982  14.299   4.503   1.422
61695SOL    HW286983  14.211   4.581   1.518
61696SOL     OW86984  14.842   0.250   2.804
61696SOL    HW186985  14.789   0.212   2.874
61696SOL    HW286986   0.058   0.218   2.821
61697SOL     OW86987   3.225   7.186   6.948
61697SOL    HW186988   3.271   7.103   6.934
61697SOL    HW286989   3.286   7.239   6.998
61698SOL     OW86990  13.253  13.102   1.112
61698SOL    HW186991  13.348  13.116   1.109
61698SOL    HW286992  13.242  13.024   1.166
61699SOL     OW86993   7.548  12.593   7.548
61699SOL    HW186994   7.622  12.593   7.488
61699SOL    HW286995   7.570  12.660   7.613
61700SOL     OW86996  11.101   5.914   8.975
61700SOL    HW186997  11.122   5.962   8.895
61700SOL    HW286998  11.148   5.960   9.044
61701SOL     OW86999  10.177   4.725   1.588
61701SOL    HW187000  10.155   4.795   1.649
61701SOL    HW287001  10.102   4.720   1.529
61702SOL     OW87002   5.430   5.710  11.335
61702SOL    HW187003   5.378   5.739  11.410
61702SOL    HW287004   5.427   5.784  11.274
61703SOL     OW87005  10.519  10.285  11.288
61703SOL    HW187006  10.452  10.218  11.304
61703SOL    HW287007  10.484  10.364  11.330
61704SOL     OW87008  11.668   0.405  11.205
61704SOL    HW187009  11.608   0.423  11.277
61704SOL    HW287010  11.706   0.320  11.225
61705SOL     OW87011  12.697   1.108  14.150
61705SOL    HW187012  12.771   1.160  14.120
61705SOL    HW287013  12.735   1.025  14.179
61706SOL     OW87014   2.404   7.239   6.522
61706SOL    HW187015   2.421   7.249   6.428
61706SOL    HW287016   2.327   7.293   6.538
61707SOL     OW87017  11.101   2.879   6.581
61707SOL    HW187018  11.168   2.920   6.527
61707SOL    HW287019  11.094   2.789   6.547
61708SOL     OW87020  10.889   9.390  12.010
61708SOL    HW187021  10.811   9.422  11.965
61708SOL    HW287022  10.932   9.334  11.945
61709SOL     OW87023   7.748   4.781   7.480
61709SOL    HW187024   7.776   4.759   7.569
61709SOL    HW287025   7.653   4.769   7.480
61710SOL     OW87026  11.993  14.215  10.692
61710SOL    HW187027  11.941  14.145  10.653
61710SOL    HW287028  11.995  14.283  10.625
61711SOL     OW87029   5.318   1.306   3.652
61711SOL    HW187030   5.403   1.270   3.625
61711SOL    HW287031   5.322   1.398   3.626
61712SOL     OW87032  11.908   6.379   9.591
61712SOL    HW187033  11.868   6.333   9.518
61712SOL    HW287034  11.959   6.312   9.637
61713SOL     OW87035   2.227   7.053  10.872
61713SOL    HW187036   2.262   6.971  10.836
61713SOL    HW287037   2.275   7.122  10.826
61714SOL     OW87038  11.624   5.255  12.412
61714SOL    HW187039  11.561   5.324  12.395
61714SOL    HW287040  11.571   5.177  12.427
61715SOL     OW87041  12.629  14.200  14.691
61715SOL    HW187042  12.677  14.230  14.769
61715SOL    HW287043  12.550  14.254  14.689
61716SOL     OW87044  13.685  13.010  12.753
61716SOL    HW187045  13.645  13.075  12.694
61716SOL    HW287046  13.611  12.972  12.800
61717SOL     OW87047   3.214   2.850   3.058
61717SOL    HW187048   3.246   2.936   3.085
61717SOL    HW287049   3.120   2.861   3.047
61718SOL     OW87050   1.023  14.533   2.348
61718SOL    HW187051   1.045  14.616   2.306
61718SOL    HW287052   1.022  14.553   2.442
61719SOL     OW87053   7.310   2.731  13.333
61719SOL    HW187054   7.362   2.741  13.254
61719SOL    HW287055   7.359   2.778  13.400
61720SOL     OW87056   5.264  10.494  14.792
61720SOL    HW187057   5.359  10.483  14.782
61720SOL    HW287058   5.227  10.426  14.736
61721SOL     OW87059  13.082   7.552   0.203
61721SOL    HW187060  13.141   7.514   0.139
61721SOL    HW287061  12.994   7.531   0.171
61722SOL     OW87062   5.811   2.532   3.606
61722SOL    HW187063   5.808   2.607   3.548
61722SOL    HW287064   5.855   2.464   3.555
61723SOL     OW87065  11.409   5.739  13.404
61723SOL    HW187066  11.390   5.684  13.328
61723SOL    HW287067  11.501   5.722  13.424
61724SOL     OW87068  10.251  11.310  11.488
61724SOL    HW187069  10.262  11.405  11.487
61724SOL    HW287070  10.276  11.282  11.400
61725SOL     OW87071   6.329  10.887   5.304
61725SOL    HW187072   6.398  10.821   5.315
61725SOL    HW287073   6.278  10.856   5.229
61726SOL     OW87074   0.681   3.747   8.250
61726SOL    HW187075   0.723   3.708   8.173
61726SOL    HW287076   0.742   3.730   8.322
61727SOL     OW87077  13.992   9.410   1.293
61727SOL    HW187078  13.911   9.359   1.302
61727SOL    HW287079  13.962   9.500   1.279
61728SOL     OW87080   0.029  14.664   8.813
61728SOL    HW187081   0.032  14.758   8.793
61728SOL    HW287082  14.863  14.660   8.901
61729SOL     OW87083   5.065   7.527   8.600
61729SOL    HW187084   5.053   7.485   8.685
61729SOL    HW287085   5.140   7.480   8.561
61730SOL     OW87086  10.974  14.662   1.840
61730SOL    HW187087  11.037  14.591   1.850
61730SOL    HW287088  10.952  14.662   1.747
61731SOL     OW87089   1.995   8.393   2.493
61731SOL    HW187090   1.920   8.335   2.505
61731SOL    HW287091   2.071   8.335   2.493
61732SOL     OW87092   6.565   3.054   5.667
61732SOL    HW187093   6.506   3.032   5.738
61732SOL    HW287094   6.652   3.050   5.705
61733SOL     OW87095  12.233   0.253   9.502
61733SOL    HW187096  12.186   0.237   9.421
61733SOL    HW287097  12.257   0.166   9.535
61734SOL     OW87098   3.942   1.477   4.860
61734SOL    HW187099   3.979   1.507   4.777
61734SOL    HW287100   3.918   1.385   4.844
61735SOL     OW87101   4.934   1.945   0.131
61735SOL    HW187102   4.920   1.860   0.091
61735SOL    HW287103   4.929   1.930   0.225
61736SOL     OW87104   1.517  13.124   1.987
61736SOL    HW187105   1.595  13.171   1.956
61736SOL    HW287106   1.469  13.103   1.906
61737SOL     OW87107  12.987   5.357   0.096
61737SOL    HW187108  12.923   5.416   0.135
61737SOL    HW287109  12.953   5.339   0.008
61738SOL     OW87110   9.371   8.385   1.734
61738SOL    HW187111   9.302   8.344   1.786
61738SOL    HW287112   9.372   8.476   1.764
61739SOL     OW87113   4.871   4.056   2.304
61739SOL    HW187114   4.915   4.135   2.337
61739SOL    HW287115   4.930   4.023   2.236
61740SOL     OW87116  14.832  13.774   0.614
61740SOL    HW187117  14.800  13.780   0.524
61740SOL    HW287118  14.756  13.798   0.668
61741SOL     OW87119   9.563  14.339  14.363
61741SOL    HW187120   9.540  14.422  14.323
61741SOL    HW287121   9.551  14.274  14.294
61742SOL     OW87122   6.494   8.483   2.558
61742SOL    HW187123   6.497   8.557   2.498
61742SOL    HW287124   6.583   8.446   2.554
61743SOL     OW87125   7.707   0.567   0.446
61743SOL    HW187126   7.757   0.622   0.385
61743SOL    HW287127   7.689   0.624   0.520
61744SOL     OW87128   5.951  10.378   8.585
61744SOL    HW187129   5.972  10.462   8.626
61744SOL    HW287130   5.856  10.379   8.574
61745SOL     OW87131   5.505  11.152  11.799
61745SOL    HW187132   5.463  11.198  11.872
61745SOL    HW287133   5.583  11.113  11.837
61746SOL     OW87134  13.773   1.292   0.787
61746SOL    HW187135  13.690   1.268   0.746
61746SOL    HW287136  13.802   1.370   0.740
61747SOL     OW87137   1.700   6.045  11.872
61747SOL    HW187138   1.654   5.981  11.817
61747SOL    HW287139   1.792   6.032  11.851
61748SOL     OW87140   3.591   1.214   8.530
61748SOL    HW187141   3.657   1.150   8.504
61748SOL    HW287142   3.615   1.294   8.483
61749SOL     OW87143   6.409   3.815  10.408
61749SOL    HW187144   6.474   3.855  10.467
61749SOL    HW287145   6.392   3.729  10.447
61750SOL     OW87146   6.205   5.938  10.327
61750SOL    HW187147   6.151   6.011  10.356
61750SOL    HW287148   6.231   5.960  10.238
61751SOL     OW87149   2.497  13.176  12.039
61751SOL    HW187150   2.548  13.101  12.008
61751SOL    HW287151   2.408  13.142  12.047
61752SOL     OW87152   8.479  14.567   7.134
61752SOL    HW187153   8.495  14.640   7.193
61752SOL    HW287154   8.565  14.542   7.101
61753SOL     OW87155   5.975   8.839   1.294
61753SOL    HW187156   6.018   8.754   1.301
61753SOL    HW287157   6.000   8.873   1.208
61754SOL     OW87158   0.374   3.033   9.486
61754SOL    HW187159   0.465   3.009   9.468
61754SOL    HW287160   0.341   3.066   9.403
61755SOL     OW87161   8.667  10.011   3.249
61755SOL    HW187162   8.686   9.970   3.164
61755SOL    HW287163   8.730  10.083   3.255
61756SOL     OW87164   3.675  12.072  14.090
61756SOL    HW187165   3.684  12.125  14.011
61756SOL    HW287166   3.591  12.028  14.080
61757SOL     OW87167  13.471   0.759   1.523
61757SOL    HW187168  13.448   0.714   1.442
61757SOL    HW287169  13.447   0.697   1.592
61758SOL     OW87170   3.112   3.839   3.077
61758SOL    HW187171   3.197   3.813   3.110
61758SOL    HW287172   3.125   3.927   3.043
61759SOL     OW87173   3.906   8.902  11.175
61759SOL    HW187174   3.833   8.938  11.224
61759SOL    HW287175   3.950   8.844  11.237
61760SOL     OW87176  11.541   0.526  12.101
61760SOL    HW187177  11.558   0.447  12.051
61760SOL    HW287178  11.506   0.495  12.185
61761SOL     OW87179  10.802   1.966   0.826
61761SOL    HW187180  10.801   1.884   0.876
61761SOL    HW287181  10.792   2.034   0.892
61762SOL     OW87182   8.810   5.878  12.549
61762SOL    HW187183   8.786   5.862  12.458
61762SOL    HW287184   8.904   5.860  12.553
61763SOL     OW87185   7.264   5.692  10.217
61763SOL    HW187186   7.209   5.760  10.255
61763SOL    HW287187   7.352   5.731  10.213
61764SOL     OW87188  12.697  10.713   1.879
61764SOL    HW187189  12.634  10.667   1.933
61764SOL    HW287190  12.715  10.653   1.806
61765SOL     OW87191   5.169   7.156   6.765
61765SOL    HW187192   5.100   7.108   6.810
61765SOL    HW287193   5.228   7.186   6.835
61766SOL     OW87194   3.780  12.037   6.821
61766SOL    HW187195   3.761  12.007   6.909
61766SOL    HW287196   3.857  12.093   6.830
61767SOL     OW87197   9.413  10.622   1.341
61767SOL    HW187198   9.473  10.652   1.273
61767SOL    HW287199   9.457  10.547   1.381
61768SOL     OW87200   7.087   5.114   2.590
61768SOL    HW187201   7.180   5.096   2.577
61768SOL    HW287202   7.072   5.197   2.545
61769SOL     OW87203  14.712   8.208   9.519
61769SOL    HW187204  14.637   8.235   9.465
61769SOL    HW287205  14.748   8.291   9.552
61770SOL     OW87206   4.689   0.113   3.754
61770SOL    HW187207   4.708   0.059   3.831
61770SOL    HW287208   4.614   0.071   3.712
61771SOL     OW87209  12.403  12.952  13.224
61771SOL    HW187210  12.311  12.933  13.204
61771SOL    HW287211  12.451  12.921  13.147
61772SOL     OW87212   6.767   2.917   1.471
61772SOL    HW187213   6.834   2.977   1.503
61772SOL    HW287214   6.691   2.973   1.455
61773SOL     OW87215   8.391  12.587   8.122
61773SOL    HW187216   8.368  12.540   8.042
61773SOL    HW287217   8.329  12.660   8.125
61774SOL     OW87218  11.953   2.486  11.245
61774SOL    HW187219  11.947   2.535  11.163
61774SOL    HW287220  12.020   2.532  11.295
61775SOL     OW87221   2.001  13.894   4.387
61775SOL    HW187222   2.009  13.951   4.463
61775SOL    HW287223   2.057  13.819   4.406
61776SOL     OW87224   2.489  14.713   3.488
61776SOL    HW187225   2.404  14.758   3.492
61776SOL    HW287226   2.493  14.678   3.399
61777SOL     OW87227   3.610  12.460  13.364
61777SOL    HW187228   3.679  12.434  13.303
61777SOL    HW287229   3.544  12.503  13.309
61778SOL     OW87230  11.216   7.612   9.018
61778SOL    HW187231  11.296   7.663   9.033
61778SOL    HW287232  11.192   7.629   8.927
61779SOL     OW87233  10.219   8.610   8.868
61779SOL    HW187234  10.155   8.543   8.844
61779SOL    HW287235  10.169   8.674   8.919
61780SOL     OW87236  12.934  14.425   6.098
61780SOL    HW187237  12.972  14.428   6.010
61780SOL    HW287238  12.983  14.357   6.143
61781SOL     OW87239   7.602   2.453   2.985
61781SOL    HW187240   7.529   2.514   2.999
61781SOL    HW287241   7.674   2.488   3.038
61782SOL     OW87242   8.537   3.834   1.817
61782SOL    HW187243   8.481   3.859   1.744
61782SOL    HW287244   8.487   3.859   1.895
61783SOL     OW87245   0.969   4.513   1.196
61783SOL    HW187246   0.972   4.467   1.280
61783SOL    HW287247   1.059   4.512   1.165
61784SOL     OW87248   9.392   8.007   3.768
61784SOL    HW187249   9.403   8.092   3.812
61784SOL    HW287250   9.480   7.971   3.764
61785SOL     OW87251  14.165   5.142  10.822
61785SOL    HW187252  14.203   5.218  10.777
61785SOL    HW287253  14.215   5.136  10.904
61786SOL     OW87254   4.051  12.839   6.552
61786SOL    HW187255   4.081  12.930   6.549
61786SOL    HW287256   4.124  12.792   6.593
61787SOL     OW87257  10.757   4.768   8.514
61787SOL    HW187258  10.672   4.786   8.473
61787SOL    HW287259  10.816   4.832   8.475
61788SOL     OW87260   7.145   4.786  14.743
61788SOL    HW187261   7.190   4.834  14.673
61788SOL    HW287262   7.079   4.734  14.697
61789SOL     OW87263   9.875   5.954  11.748
61789SOL    HW187264   9.795   6.005  11.741
61789SOL    HW287265   9.932   5.990  11.680
61790SOL     OW87266  14.193   8.337  11.875
61790SOL    HW187267  14.220   8.419  11.834
61790SOL    HW287268  14.101   8.326  11.849
61791SOL     OW87269  11.051   6.819   8.314
61791SOL    HW187270  11.093   6.897   8.279
61791SOL    HW287271  11.086   6.811   8.403
61792SOL     OW87272   3.174  11.915  10.822
61792SOL    HW187273   3.143  11.836  10.777
61792SOL    HW287274   3.098  11.945  10.872
61793SOL     OW87275   9.205  11.351   1.547
61793SOL    HW187276   9.285  11.394   1.576
61793SOL    HW287277   9.235  11.284   1.486
61794SOL     OW87278   3.809   5.350  11.960
61794SOL    HW187279   3.829   5.257  11.963
61794SOL    HW287280   3.743   5.358  11.891
61795SOL     OW87281  11.622   7.142   0.508
61795SOL    HW187282  11.647   7.070   0.450
61795SOL    HW287283  11.529   7.156   0.489
61796SOL     OW87284  13.737   9.652   4.492
61796SOL    HW187285  13.794   9.643   4.416
61796SOL    HW287286  13.712   9.745   4.493
61797SOL     OW87287   7.253   7.014   0.471
61797SOL    HW187288   7.175   6.993   0.522
61797SOL    HW287289   7.322   7.027   0.536
61798SOL     OW87290  11.656  14.529   1.162
61798SOL    HW187291  11.661  14.597   1.229
61798SOL    HW287292  11.608  14.569   1.090
61799SOL     OW87293   7.211   8.512   6.983
61799SOL    HW187294   7.137   8.451   6.993
61799SOL    HW287295   7.184   8.590   7.031
61800SOL     OW87296   5.981   2.166   3.779
61800SOL    HW187297   6.059   2.163   3.725
61800SOL    HW287298   5.913   2.123   3.726
61801SOL     OW87299   1.716  10.146  11.014
61801SOL    HW187300   1.669  10.226  10.991
61801SOL    HW287301   1.787  10.175  11.070
61802SOL     OW87302  14.862  12.510   5.255
61802SOL    HW187303  14.801  12.564   5.204
61802SOL    HW287304   0.019  12.443   5.193
61803SOL     OW87305  12.232   8.721   8.665
61803SOL    HW187306  12.253   8.797   8.611
61803SOL    HW287307  12.292   8.728   8.739
61804SOL     OW87308  12.235   0.191   0.259
61804SOL    HW187309  12.168   0.259   0.254
61804SOL    HW287310  12.216   0.144   0.340
61805SOL     OW87311  12.069   8.302   6.863
61805SOL    HW187312  12.055   8.226   6.919
61805SOL    HW287313  12.122   8.362   6.917
61806SOL     OW87314  12.682   6.333   2.451
61806SOL    HW187315  12.706   6.240   2.443
61806SOL    HW287316  12.615   6.346   2.384
61807SOL     OW87317   8.758  13.479   9.991
61807SOL    HW187318   8.766  13.540  10.064
61807SOL    HW287319   8.732  13.396  10.031
61808SOL     OW87320   9.797   8.665   7.852
61808SOL    HW187321   9.817   8.734   7.790
61808SOL    HW287322   9.707   8.640   7.833
61809SOL     OW87323   7.387   8.791   1.754
61809SOL    HW187324   7.395   8.874   1.706
61809SOL    HW287325   7.396   8.816   1.846
61810SOL     OW87326   6.061  12.747   9.645
61810SOL    HW187327   6.031  12.837   9.657
61810SOL    HW287328   6.113  12.729   9.723
61811SOL     OW87329   3.305  12.692   3.581
61811SOL    HW187330   3.369  12.631   3.545
61811SOL    HW287331   3.354  12.773   3.594
61812SOL     OW87332   7.965  11.461   6.330
61812SOL    HW187333   7.901  11.398   6.298
61812SOL    HW287334   7.946  11.469   6.424
61813SOL     OW87335   5.590   8.972  12.510
61813SOL    HW187336   5.596   8.887  12.555
61813SOL    HW287337   5.682   9.000  12.501
61814SOL     OW87338   4.745   6.762   9.980
61814SOL    HW187339   4.818   6.702   9.995
61814SOL    HW287340   4.761   6.799   9.893
61815SOL     OW87341   6.306   6.188   0.517
61815SOL    HW187342   6.304   6.278   0.485
61815SOL    HW287343   6.336   6.195   0.608
61816SOL     OW87344   1.664   8.508   6.551
61816SOL    HW187345   1.601   8.519   6.480
61816SOL    HW287346   1.646   8.420   6.585
61817SOL     OW87347   9.818   0.263   4.479
61817SOL    HW187348   9.746   0.248   4.541
61817SOL    HW287349   9.873   0.185   4.488
61818SOL     OW87350  12.436   4.800   2.254
61818SOL    HW187351  12.446   4.860   2.328
61818SOL    HW287352  12.489   4.724   2.278
61819SOL     OW87353   8.047  10.747   1.368
61819SOL    HW187354   8.130  10.765   1.413
61819SOL    HW287355   8.047  10.807   1.293
61820SOL     OW87356   2.660  14.481   7.636
61820SOL    HW187357   2.634  14.485   7.728
61820SOL    HW287358   2.704  14.565   7.620
61821SOL     OW87359   5.381  12.620   6.017
61821SOL    HW187360   5.453  12.583   5.966
61821SOL    HW287361   5.364  12.705   5.976
61822SOL     OW87362  13.622   0.614   4.887
61822SOL    HW187363  13.530   0.613   4.863
61822SOL    HW287364  13.659   0.535   4.846
61823SOL     OW87365   4.111   2.339   6.762
61823SOL    HW187366   4.080   2.337   6.852
61823SOL    HW287367   4.170   2.415   6.758
61824SOL     OW87368  10.356   5.480   2.940
61824SOL    HW187369  10.388   5.519   3.021
61824SOL    HW287370  10.434   5.445   2.897
61825SOL     OW87371  11.374   3.810  11.765
61825SOL    HW187372  11.427   3.782  11.840
61825SOL    HW287373  11.402   3.752  11.694
61826SOL     OW87374   4.880   9.846   8.110
61826SOL    HW187375   4.804   9.857   8.052
61826SOL    HW287376   4.949   9.812   8.053
61827SOL     OW87377  13.853  14.570  10.508
61827SOL    HW187378  13.919  14.633  10.534
61827SOL    HW287379  13.827  14.597  10.420
61828SOL     OW87380   1.148   2.754   4.859
61828SOL    HW187381   1.161   2.837   4.904
61828SOL    HW287382   1.109   2.696   4.924
61829SOL     OW87383   5.185   5.364  13.251
61829SOL    HW187384   5.101   5.332  13.285
61829SOL    HW287385   5.229   5.402  13.327
61830SOL     OW87386  14.829  10.623   8.895
61830SOL    HW187387   0.027  10.688   8.900
61830SOL    HW287388  14.864  10.554   8.839
61831SOL     OW87389  13.734   2.990   6.112
61831SOL    HW187390  13.714   3.074   6.070
61831SOL    HW287391  13.654   2.969   6.161
61832SOL     OW87392  11.047  10.537   6.656
61832SOL    HW187393  11.099  10.582   6.590
61832SOL    HW287394  11.040  10.447   6.623
61833SOL     OW87395   3.138   3.631  10.768
61833SOL    HW187396   3.169   3.554  10.720
61833SOL    HW287397   3.069   3.597  10.826
61834SOL     OW87398  10.607  10.964  14.269
61834SOL    HW187399  10.592  11.036  14.329
61834SOL    HW287400  10.680  10.993  14.214
61835SOL     OW87401  10.456   2.966   2.335
61835SOL    HW187402  10.386   2.949   2.398
61835SOL    HW287403  10.462   3.062   2.331
61836SOL     OW87404   9.401   0.571   3.154
61836SOL    HW187405   9.329   0.532   3.104
61836SOL    HW287406   9.412   0.658   3.116
61837SOL     OW87407   0.571   5.792  14.402
61837SOL    HW187408   0.658   5.755  14.395
61837SOL    HW287409   0.535   5.755  14.483
61838SOL     OW87410   9.220   2.066   0.919
61838SOL    HW187411   9.233   2.098   1.009
61838SOL    HW287412   9.216   2.145   0.866
61839SOL     OW87413   7.916   2.712   6.931
61839SOL    HW187414   7.916   2.709   7.026
61839SOL    HW287415   7.924   2.806   6.910
61840SOL     OW87416  13.022   6.499   9.814
61840SOL    HW187417  12.944   6.451   9.842
61840SOL    HW287418  13.020   6.580   9.864
61841SOL     OW87419  13.336   9.841   2.440
61841SOL    HW187420  13.261   9.881   2.483
61841SOL    HW287421  13.314   9.844   2.347
61842SOL     OW87422   3.273   1.055   3.110
61842SOL    HW187423   3.214   1.058   3.186
61842SOL    HW287424   3.270   0.964   3.082
61843SOL     OW87425   6.116   2.122  12.973
61843SOL    HW187426   6.194   2.164  13.008
61843SOL    HW287427   6.130   2.028  12.989
61844SOL     OW87428   2.131  11.836   7.829
61844SOL    HW187429   2.158  11.822   7.920
61844SOL    HW287430   2.117  11.931   7.823
61845SOL     OW87431   9.121   0.966  11.594
61845SOL    HW187432   9.205   0.958  11.549
61845SOL    HW287433   9.055   0.954  11.526
61846SOL     OW87434   1.385   6.702   7.111
61846SOL    HW187435   1.344   6.699   7.025
61846SOL    HW287436   1.351   6.782   7.151
61847SOL     OW87437   1.706  14.022   7.407
61847SOL    HW187438   1.741  13.938   7.438
61847SOL    HW287439   1.742  14.032   7.319
61848SOL     OW87440  10.652  12.992   6.529
61848SOL    HW187441  10.643  13.004   6.435
61848SOL    HW287442  10.564  12.965   6.558
61849SOL     OW87443   8.580   2.549   0.188
61849SOL    HW187444   8.549   2.594   0.110
61849SOL    HW287445   8.500   2.514   0.229
61850SOL     OW87446   3.870   5.923   0.475
61850SOL    HW187447   3.883   5.978   0.552
61850SOL    HW287448   3.865   5.834   0.509
61851SOL     OW87449   4.874   4.536   0.075
61851SOL    HW187450   4.916   4.454   0.101
61851SOL    HW287451   4.787   4.509   0.044
61852SOL     OW87452   9.611  11.049   2.377
61852SOL    HW187453   9.633  10.962   2.411
61852SOL    HW287454   9.635  11.045   2.284
61853SOL     OW87455   7.934   5.886   2.439
61853SOL    HW187456   7.861   5.942   2.465
61853SOL    HW287457   7.999   5.897   2.508
61854SOL     OW87458   9.743   8.932   1.387
61854SOL    HW187459   9.830   8.959   1.415
61854SOL    HW287460   9.738   8.959   1.295
61855SOL     OW87461   0.560   9.692  13.726
61855SOL    HW187462   0.595   9.615  13.772
61855SOL    HW287463   0.634   9.726  13.675
61856SOL     OW87464   5.883   6.018  14.305
61856SOL    HW187465   5.834   5.939  14.283
61856SOL    HW287466   5.875   6.074  14.227
61857SOL     OW87467   7.007   8.320  13.618
61857SOL    HW187468   7.071   8.312  13.548
61857SOL    HW287469   7.059   8.329  13.698
61858SOL     OW87470   8.552  13.152  11.901
61858SOL    HW187471   8.561  13.194  11.816
61858SOL    HW287472   8.549  13.059  11.882
61859SOL     OW87473   4.176  11.649  14.729
61859SOL    HW187474   4.216  11.674  14.646
61859SOL    HW287475   4.152  11.732  14.770
61860SOL     OW87476  11.802   7.741   2.915
61860SOL    HW187477  11.769   7.831   2.909
61860SOL    HW287478  11.727   7.691   2.947
61861SOL     OW87479   8.503   8.109   0.729
61861SOL    HW187480   8.411   8.083   0.730
61861SOL    HW287481   8.548   8.037   0.687
61862SOL     OW87482   2.657  10.711   1.149
61862SOL    HW187483   2.614  10.698   1.064
61862SOL    HW287484   2.717  10.637   1.157
61863SOL     OW87485   3.294   6.942   6.048
61863SOL    HW187486   3.205   6.966   6.072
61863SOL    HW287487   3.346   7.021   6.066
61864SOL     OW87488   8.317   9.030   4.636
61864SOL    HW187489   8.406   8.997   4.634
61864SOL    HW287490   8.262   8.953   4.625
61865SOL     OW87491   9.696   6.289   4.261
61865SOL    HW187492   9.747   6.363   4.227
61865SOL    HW287493   9.608   6.326   4.274
61866SOL     OW87494   6.395  12.887  10.172
61866SOL    HW187495   6.435  12.952  10.114
61866SOL    HW287496   6.468  12.834  10.203
61867SOL     OW87497   1.730  13.119   8.572
61867SOL    HW187498   1.781  13.179   8.626
61867SOL    HW287499   1.680  13.176   8.513
61868SOL     OW87500   7.659  13.190   7.414
61868SOL    HW187501   7.647  13.222   7.503
61868SOL    HW287502   7.680  13.098   7.424
61869SOL     OW87503  11.773   6.736   7.896
61869SOL    HW187504  11.848   6.746   7.837
61869SOL    HW287505  11.801   6.672   7.961
61870SOL     OW87506   0.780   5.930   6.852
61870SOL    HW187507   0.739   5.922   6.766
61870SOL    HW287508   0.738   5.862   6.905
61871SOL     OW87509   5.583  10.520   7.255
61871SOL    HW187510   5.556  10.431   7.234
61871SOL    HW287511   5.677  10.514   7.273
61872SOL     OW87512  14.730  11.737   5.328
61872SOL    HW187513  14.681  11.726   5.410
61872SOL    HW287514  14.664  11.734   5.259
61873SOL     OW87515  14.803   3.414  13.874
61873SOL    HW187516   0.006   3.357  13.891
61873SOL    HW287517  14.727   3.360  13.897
61874SOL     OW87518   2.073   7.253   1.380
61874SOL    HW187519   2.097   7.161   1.371
61874SOL    HW287520   2.149   7.293   1.423
61875SOL     OW87521   0.858   8.069   9.868
61875SOL    HW187522   0.827   7.980   9.882
61875SOL    HW287523   0.950   8.059   9.842
61876SOL     OW87524   6.403  11.282  10.837
61876SOL    HW187525   6.394  11.245  10.750
61876SOL    HW287526   6.412  11.207  10.895
61877SOL     OW87527   6.836   9.209   5.486
61877SOL    HW187528   6.842   9.131   5.431
61877SOL    HW287529   6.866   9.179   5.572
61878SOL     OW87530  14.413   7.364  14.635
61878SOL    HW187531  14.401   7.428  14.565
61878SOL    HW287532  14.473   7.407  14.696
61879SOL     OW87533   7.045   9.853   8.512
61879SOL    HW187534   6.978   9.791   8.541
61879SOL    HW287535   6.995   9.922   8.468
61880SOL     OW87536   5.116  13.562   3.110
61880SOL    HW187537   5.023  13.583   3.100
61880SOL    HW287538   5.121  13.507   3.188
61881SOL     OW87539  12.945   1.913   5.752
61881SOL    HW187540  12.876   1.920   5.686
61881SOL    HW287541  12.917   1.840   5.807
61882SOL     OW87542   4.707  13.587  12.988
61882SOL    HW187543   4.650  13.542  12.926
61882SOL    HW287544   4.796  13.563  12.960
61883SOL     OW87545   9.744  14.099   6.244
61883SOL    HW187546   9.744  14.118   6.150
61883SOL    HW287547   9.661  14.133   6.275
61884SOL     OW87548  13.897   2.018  10.680
61884SOL    HW187549  13.852   2.015  10.764
61884SOL    HW287550  13.848   1.958  10.624
61885SOL     OW87551   9.823   7.820   1.092
61885SOL    HW187552   9.817   7.846   1.000
61885SOL    HW287553   9.877   7.888   1.133
61886SOL     OW87554   2.618   1.157   7.508
61886SOL    HW187555   2.573   1.220   7.452
61886SOL    HW287556   2.708   1.188   7.511
61887SOL     OW87557   7.397   8.637   7.558
61887SOL    HW187558   7.446   8.696   7.615
61887SOL    HW287559   7.319   8.687   7.532
61888SOL     OW87560   5.720  10.917   4.751
61888SOL    HW187561   5.721  10.998   4.700
61888SOL    HW287562   5.648  10.929   4.813
61889SOL     OW87563   1.673   1.795   3.439
61889SOL    HW187564   1.655   1.787   3.533
61889SOL    HW287565   1.728   1.873   3.432
61890SOL     OW87566   9.849   8.813  10.314
61890SOL    HW187567   9.774   8.780  10.363
61890SOL    HW287568   9.894   8.734  10.282
61891SOL     OW87569   8.080  11.505  12.612
61891SOL    HW187570   8.021  11.558  12.666
61891SOL    HW287571   8.049  11.415  12.625
61892SOL     OW87572  12.769   0.871  11.790
61892SOL    HW187573  12.691   0.827  11.758
61892SOL    HW287574  12.841   0.814  11.762
61893SOL     OW87575  10.889  11.726   5.394
61893SOL    HW187576  10.881  11.679   5.311
61893SOL    HW287577  10.841  11.671   5.457
61894SOL     OW87578   2.009   6.369   2.885
61894SOL    HW187579   1.973   6.423   2.815
61894SOL    HW287580   1.992   6.418   2.966
61895SOL     OW87581   5.366   2.609   5.918
61895SOL    HW187582   5.381   2.596   5.824
61895SOL    HW287583   5.320   2.693   5.923
61896SOL     OW87584  12.257  11.242  13.883
61896SOL    HW187585  12.297  11.267  13.800
61896SOL    HW287586  12.296  11.302  13.947
61897SOL     OW87587   3.292   2.678  10.031
61897SOL    HW187588   3.300   2.760   9.982
61897SOL    HW287589   3.283   2.611   9.964
61898SOL     OW87590  13.935  13.959   5.578
61898SOL    HW187591  13.853  13.911   5.568
61898SOL    HW287592  13.965  13.973   5.488
61899SOL     OW87593   0.253   5.330   6.766
61899SOL    HW187594   0.286   5.279   6.840
61899SOL    HW287595   0.197   5.397   6.807
61900SOL     OW87596  10.275  12.942  10.185
61900SOL    HW187597  10.221  12.980  10.116
61900SOL    HW287598  10.323  13.017  10.221
61901SOL     OW87599   6.663   4.045   0.495
61901SOL    HW187600   6.729   4.019   0.559
61901SOL    HW287601   6.709   4.042   0.411
61902SOL     OW87602  14.679   6.919   2.952
61902SOL    HW187603  14.698   6.923   3.046
61902SOL    HW287604  14.739   6.983   2.913
61903SOL     OW87605   9.602  14.340   8.963
61903SOL    HW187606   9.575  14.427   8.934
61903SOL    HW287607   9.591  14.285   8.885
61904SOL     OW87608   2.256  14.002   1.019
61904SOL    HW187609   2.249  14.091   1.054
61904SOL    HW287610   2.177  13.991   0.966
61905SOL     OW87611   6.920   6.037  14.336
61905SOL    HW187612   6.972   5.961  14.364
61905SOL    HW287613   6.879   6.068  14.417
61906SOL     OW87614  11.826  12.561   1.359
61906SOL    HW187615  11.869  12.588   1.278
61906SOL    HW287616  11.843  12.633   1.420
61907SOL     OW87617   9.477   6.617   0.669
61907SOL    HW187618   9.513   6.695   0.627
61907SOL    HW287619   9.496   6.546   0.608
61908SOL     OW87620   7.771   4.813   9.101
61908SOL    HW187621   7.861   4.847   9.108
61908SOL    HW287622   7.719   4.889   9.075
61909SOL     OW87623   6.323  12.142   1.331
61909SOL    HW187624   6.394  12.185   1.379
61909SOL    HW287625   6.346  12.050   1.332
61910SOL     OW87626  12.531   5.836  11.548
61910SOL    HW187627  12.597   5.862  11.613
61910SOL    HW287628  12.579   5.781  11.487
61911SOL     OW87629   6.955   9.138   0.453
61911SOL    HW187630   6.887   9.199   0.482
61911SOL    HW287631   6.938   9.127   0.360
61912SOL     OW87632   9.068  11.693   2.181
61912SOL    HW187633   9.088  11.694   2.275
61912SOL    HW287634   9.002  11.761   2.170
61913SOL     OW87635   8.465   0.325   1.519
61913SOL    HW187636   8.547   0.299   1.476
61913SOL    HW287637   8.419   0.376   1.452
61914SOL     OW87638  14.229   9.563   2.036
61914SOL    HW187639  14.152   9.507   2.051
61914SOL    HW287640  14.303   9.502   2.038
61915SOL     OW87641   9.137  11.511  12.412
61915SOL    HW187642   9.152  11.569  12.338
61915SOL    HW287643   9.068  11.452  12.384
61916SOL     OW87644  11.574   8.483   8.115
61916SOL    HW187645  11.492   8.442   8.090
61916SOL    HW287646  11.548   8.558   8.169
61917SOL     OW87647   5.476  13.279  14.595
61917SOL    HW187648   5.517  13.205  14.639
61917SOL    HW287649   5.459  13.248  14.506
61918SOL     OW87650  14.768   3.505   5.776
61918SOL    HW187651  14.686   3.524   5.730
61918SOL    HW287652  14.829   3.571   5.744
61919SOL     OW87653   5.817   9.888   7.662
61919SOL    HW187654   5.724   9.908   7.673
61919SOL    HW287655   5.825   9.856   7.573
61920SOL     OW87656   1.011   6.742  12.931
61920SOL    HW187657   1.035   6.658  12.893
61920SOL    HW287658   0.923   6.760  12.897
61921SOL     OW87659  13.982   1.715  12.523
61921SOL    HW187660  13.983   1.710  12.428
61921SOL    HW287661  13.941   1.633  12.551
61922SOL     OW87662   3.929   9.334  14.814
61922SOL    HW187663   3.922   9.253  14.865
61922SOL    HW287664   4.023   9.346  14.802
61923SOL     OW87665   2.071   4.096  11.660
61923SOL    HW187666   2.055   4.190  11.670
61923SOL    HW287667   2.165   4.088  11.650
61924SOL     OW87668   0.405   1.929  10.907
61924SOL    HW187669   0.458   1.993  10.859
61924SOL    HW287670   0.468   1.871  10.948
61925SOL     OW87671   0.087   7.467   2.923
61925SOL    HW187672   0.115   7.454   2.832
61925SOL    HW287673   0.164   7.506   2.966
61926SOL     OW87674   4.779  11.463   0.607
61926SOL    HW187675   4.746  11.408   0.678
61926SOL    HW287676   4.712  11.531   0.597
61927SOL     OW87677  11.893   7.400   2.435
61927SOL    HW187678  11.855   7.466   2.494
61927SOL    HW287679  11.988   7.405   2.452
61928SOL     OW87680   1.999   9.959   7.115
61928SOL    HW187681   2.026   9.943   7.025
61928SOL    HW287682   1.944   9.884   7.137
61929SOL     OW87683   4.723  11.273   7.130
61929SOL    HW187684   4.685  11.296   7.045
61929SOL    HW287685   4.749  11.181   7.121
61930SOL     OW87686   9.863   6.999   1.933
61930SOL    HW187687   9.884   7.071   1.873
61930SOL    HW287688   9.804   7.038   1.998
61931SOL     OW87689   2.284  12.443  10.284
61931SOL    HW187690   2.364  12.423  10.333
61931SOL    HW287691   2.245  12.357  10.267
61932SOL     OW87692  14.402  13.245   7.373
61932SOL    HW187693  14.363  13.195   7.445
61932SOL    HW287694  14.353  13.216   7.296
61933SOL     OW87695   3.542   6.244   2.644
61933SOL    HW187696   3.469   6.306   2.647
61933SOL    HW287697   3.590   6.266   2.565
61934SOL     OW87698   4.386   9.181   7.706
61934SOL    HW187699   4.363   9.101   7.659
61934SOL    HW287700   4.325   9.247   7.671
61935SOL     OW87701   7.758   2.847   0.748
61935SOL    HW187702   7.667   2.825   0.729
61935SOL    HW287703   7.803   2.763   0.750
61936SOL     OW87704   0.915   5.250   6.232
61936SOL    HW187705   0.992   5.254   6.289
61936SOL    HW287706   0.917   5.332   6.183
61937SOL     OW87707   0.332   0.758   2.386
61937SOL    HW187708   0.338   0.781   2.293
61937SOL    HW287709   0.317   0.664   2.386
61938SOL     OW87710   3.865   3.690  14.205
61938SOL    HW187711   3.935   3.735  14.253
61938SOL    HW287712   3.850   3.743  14.128
61939SOL     OW87713   1.145  13.214  13.317
61939SOL    HW187714   1.145  13.308  13.303
61939SOL    HW287715   1.214  13.181  13.259
61940SOL     OW87716  11.634   3.785  10.961
61940SOL    HW187717  11.694   3.743  10.899
61940SOL    HW287718  11.630   3.876  10.932
61941SOL     OW87719   0.980   6.814  12.462
61941SOL    HW187720   0.927   6.806  12.383
61941SOL    HW287721   1.034   6.892  12.448
61942SOL     OW87722   7.654   2.018   9.450
61942SOL    HW187723   7.737   2.062   9.463
61942SOL    HW287724   7.630   2.036   9.359
61943SOL     OW87725  11.594  14.559  11.947
61943SOL    HW187726  11.615  14.481  11.896
61943SOL    HW287727  11.620  14.632  11.891
61944SOL     OW87728   0.562   0.442   5.510
61944SOL    HW187729   0.580   0.349   5.498
61944SOL    HW287730   0.467   0.449   5.501
61945SOL     OW87731   6.950   2.650  13.969
61945SOL    HW187732   6.919   2.733  13.933
61945SOL    HW287733   7.030   2.674  14.018
61946SOL     OW87734   0.021   0.683   1.350
61946SOL    HW187735   0.096   0.650   1.398
61946SOL    HW287736  14.834   0.716   1.417
61947SOL     OW87737  12.557   7.115  13.918
61947SOL    HW187738  12.475   7.066  13.926
61947SOL    HW287739  12.613   7.080  13.987
61948SOL     OW87740   8.070   4.316   6.012
61948SOL    HW187741   8.052   4.410   6.009
61948SOL    HW287742   8.106   4.295   5.926
61949SOL     OW87743  11.121  11.307   7.296
61949SOL    HW187744  11.095  11.281   7.385
61949SOL    HW287745  11.069  11.385   7.278
61950SOL     OW87746  10.689  10.602  13.422
61950SOL    HW187747  10.664  10.638  13.507
61950SOL    HW287748  10.606  10.593  13.375
61951SOL     OW87749  11.155   0.767   2.255
61951SOL    HW187750  11.249   0.786   2.246
61951SOL    HW287751  11.152   0.677   2.287
61952SOL     OW87752   9.689   5.538   6.529
61952SOL    HW187753   9.726   5.516   6.443
61952SOL    HW287754   9.649   5.624   6.517
61953SOL     OW87755  14.229   6.309   0.683
61953SOL    HW187756  14.220   6.367   0.608
61953SOL    HW287757  14.244   6.369   0.757
61954SOL     OW87758   0.075   7.786   9.656
61954SOL    HW187759   0.053   7.695   9.636
61954SOL    HW287760  14.865   7.834   9.643
61955SOL     OW87761  14.158   4.697  11.477
61955SOL    HW187762  14.152   4.742  11.392
61955SOL    HW287763  14.248   4.665  11.481
61956SOL     OW87764   1.898   1.090   4.973
61956SOL    HW187765   1.828   1.030   4.947
61956SOL    HW287766   1.937   1.050   5.051
61957SOL     OW87767   0.483   3.238  12.811
61957SOL    HW187768   0.496   3.313  12.869
61957SOL    HW287769   0.443   3.275  12.732
61958SOL     OW87770   3.690  12.735   8.894
61958SOL    HW187771   3.767  12.760   8.843
61958SOL    HW287772   3.616  12.768   8.844
61959SOL     OW87773   4.574  10.632   0.537
61959SOL    HW187774   4.597  10.571   0.466
61959SOL    HW287775   4.480  10.623   0.547
61960SOL     OW87776  12.705  10.204   5.739
61960SOL    HW187777  12.733  10.113   5.735
61960SOL    HW287778  12.683  10.218   5.831
61961SOL     OW87779   5.579  12.325   4.905
61961SOL    HW187780   5.645  12.289   4.846
61961SOL    HW287781   5.532  12.389   4.851
61962SOL     OW87782  11.667  12.197  12.247
61962SOL    HW187783  11.746  12.145  12.236
61962SOL    HW287784  11.698  12.281  12.280
61963SOL     OW87785   6.053  12.218  11.903
61963SOL    HW187786   5.996  12.252  11.834
61963SOL    HW287787   5.994  12.192  11.973
61964SOL     OW87788   2.433  12.271   6.043
61964SOL    HW187789   2.366  12.214   6.005
61964SOL    HW287790   2.424  12.354   5.996
61965SOL     OW87791   7.584  10.299   4.995
61965SOL    HW187792   7.540  10.261   4.919
61965SOL    HW287793   7.677  10.296   4.974
61966SOL     OW87794  14.011   8.501  12.284
61966SOL    HW187795  14.031   8.491  12.377
61966SOL    HW287796  13.957   8.580  12.279
61967SOL     OW87797   4.021   2.636  10.769
61967SOL    HW187798   3.998   2.599  10.684
61967SOL    HW287799   4.108   2.675  10.756
61968SOL     OW87800  13.425   4.581   0.091
61968SOL    HW187801  13.379   4.519   0.034
61968SOL    HW287802  13.516   4.579   0.062
61969SOL     OW87803   8.745   9.528  14.742
61969SOL    HW187804   8.740   9.610  14.791
61969SOL    HW287805   8.725   9.460  14.807
61970SOL     OW87806   3.277   9.964  10.632
61970SOL    HW187807   3.296  10.047  10.675
61970SOL    HW287808   3.192   9.937  10.667
61971SOL     OW87809   4.105   4.251   5.944
61971SOL    HW187810   4.161   4.313   5.897
61971SOL    HW287811   4.157   4.226   6.021
61972SOL     OW87812   8.062  14.807   9.994
61972SOL    HW187813   8.065   0.026   9.964
61972SOL    HW287814   8.152  14.775   9.982
61973SOL     OW87815   7.884  10.007  11.676
61973SOL    HW187816   7.836  10.038  11.753
61973SOL    HW287817   7.937   9.935  11.708
61974SOL     OW87818  11.110  12.449  11.005
61974SOL    HW187819  11.069  12.521  10.958
61974SOL    HW287820  11.204  12.460  10.989
61975SOL     OW87821   8.747   2.266   5.030
61975SOL    HW187822   8.835   2.292   5.005
61975SOL    HW287823   8.696   2.272   4.949
61976SOL     OW87824   0.359  12.496   0.346
61976SOL    HW187825   0.337  12.515   0.255
61976SOL    HW287826   0.354  12.401   0.353
61977SOL     OW87827   9.835  10.223   8.074
61977SOL    HW187828   9.915  10.238   8.024
61977SOL    HW287829   9.793  10.309   8.079
61978SOL     OW87830   7.640   1.448   8.590
61978SOL    HW187831   7.729   1.471   8.563
61978SOL    HW287832   7.622   1.505   8.665
61979SOL     OW87833   2.477  11.338  12.097
61979SOL    HW187834   2.384  11.321  12.086
61979SOL    HW287835   2.513  11.254  12.128
61980SOL     OW87836   8.450  12.743   3.048
61980SOL    HW187837   8.541  12.774   3.045
61980SOL    HW287838   8.439  12.712   3.138
61981SOL     OW87839   8.391   9.354   0.673
61981SOL    HW187840   8.401   9.302   0.594
61981SOL    HW287841   8.297   9.373   0.678
61982SOL     OW87842   5.027   5.266  11.410
61982SOL    HW187843   4.994   5.356  11.413
61982SOL    HW287844   4.995   5.232  11.326
61983SOL     OW87845  13.131   4.459   5.731
61983SOL    HW187846  13.200   4.525   5.739
61983SOL    HW287847  13.105   4.463   5.639
61984SOL     OW87848  11.425   8.687  10.442
61984SOL    HW187849  11.514   8.695  10.407
61984SOL    HW287850  11.434   8.714  10.534
61985SOL     OW87851  14.311  12.468  11.546
61985SOL    HW187852  14.311  12.382  11.503
61985SOL    HW287853  14.381  12.463  11.611
61986SOL     OW87854   1.876  12.316   3.762
61986SOL    HW187855   1.844  12.330   3.850
61986SOL    HW287856   1.826  12.377   3.708
61987SOL     OW87857   8.777   1.765   0.246
61987SOL    HW187858   8.791   1.806   0.332
61987SOL    HW287859   8.691   1.797   0.218
61988SOL     OW87860  13.454  10.580   4.890
61988SOL    HW187861  13.500  10.660   4.918
61988SOL    HW287862  13.458  10.523   4.966
61989SOL     OW87863  11.902   6.651   6.745
61989SOL    HW187864  11.983   6.642   6.794
61989SOL    HW287865  11.833   6.636   6.809
61990SOL     OW87866   5.293   9.050  11.686
61990SOL    HW187867   5.319   9.138  11.658
61990SOL    HW287868   5.198   9.048  11.673
61991SOL     OW87869   1.300   3.000   6.270
61991SOL    HW187870   1.382   3.049   6.268
61991SOL    HW287871   1.312   2.930   6.206
61992SOL     OW87872  14.744   1.952   9.890
61992SOL    HW187873  14.730   1.903   9.971
61992SOL    HW287874  14.665   2.004   9.879
61993SOL     OW87875   1.813  11.151   0.561
61993SOL    HW187876   1.750  11.127   0.629
61993SOL    HW287877   1.822  11.071   0.508
61994SOL     OW87878  13.104  13.322   9.065
61994SOL    HW187879  13.190  13.288   9.039
61994SOL    HW287880  13.123  13.408   9.103
61995SOL     OW87881   4.891  14.198   8.520
61995SOL    HW187882   4.918  14.267   8.581
61995SOL    HW287883   4.895  14.240   8.434
61996SOL     OW87884  13.122  10.333   5.677
61996SOL    HW187885  13.050  10.290   5.630
61996SOL    HW287886  13.101  10.320   5.770
61997SOL     OW87887  13.915   9.232   3.894
61997SOL    HW187888  13.860   9.163   3.932
61997SOL    HW287889  13.858   9.274   3.830
61998SOL     OW87890   3.193   9.126   0.073
61998SOL    HW187891   3.259   9.195   0.070
61998SOL    HW287892   3.170   9.110  14.854
61999SOL     OW87893   0.427   9.227   5.504
61999SOL    HW187894   0.403   9.144   5.463
61999SOL    HW287895   0.485   9.269   5.440
62000SOL     OW87896   5.758   7.660   0.363
62000SOL    HW187897   5.732   7.616   0.444
62000SOL    HW287898   5.848   7.688   0.378
62001SOL     OW87899  12.273   1.007   1.070
62001SOL    HW187900  12.311   0.946   1.133
62001SOL    HW287901  12.193   0.965   1.041
62002SOL     OW87902   7.805  11.512   4.056
62002SOL    HW187903   7.805  11.417   4.045
62002SOL    HW287904   7.746  11.545   3.988
62003SOL     OW87905   1.347   1.841   4.285
62003SOL    HW187906   1.413   1.824   4.352
62003SOL    HW287907   1.391   1.821   4.202
62004SOL     OW87908  13.260  12.411  10.733
62004SOL    HW187909  13.172  12.377  10.717
62004SOL    HW287910  13.247  12.493  10.780
62005SOL     OW87911   7.178   2.413  12.997
62005SOL    HW187912   7.132   2.396  12.915
62005SOL    HW287913   7.216   2.500  12.985
62006SOL     OW87914   9.497   0.294   1.084
62006SOL    HW187915   9.559   0.296   1.011
62006SOL    HW287916   9.418   0.253   1.047
62007SOL     OW87917  14.129   1.111  11.813
62007SOL    HW187918  14.194   1.041  11.801
62007SOL    HW287919  14.052   1.066  11.849
62008SOL     OW87920  14.499  13.779  14.330
62008SOL    HW187921  14.563  13.849  14.339
62008SOL    HW287922  14.507  13.729  14.411
62009SOL     OW87923   6.689   8.650   3.794
62009SOL    HW187924   6.626   8.720   3.811
62009SOL    HW287925   6.689   8.639   3.699
62010SOL     OW87926  10.060   0.785  12.951
62010SOL    HW187927  10.057   0.825  13.038
62010SOL    HW287928   9.973   0.800  12.914
62011SOL     OW87929   6.452   9.714  10.854
62011SOL    HW187930   6.488   9.685  10.938
62011SOL    HW287931   6.479   9.806  10.847
62012SOL     OW87932   0.475   9.477   3.044
62012SOL    HW187933   0.526   9.554   3.020
62012SOL    HW287934   0.464   9.484   3.139
62013SOL     OW87935   9.769  10.421   2.171
62013SOL    HW187936   9.724  10.461   2.097
62013SOL    HW287937   9.715  10.346   2.196
62014SOL     OW87938   4.591   0.927  11.868
62014SOL    HW187939   4.596   0.835  11.894
62014SOL    HW287940   4.516   0.932  11.809
62015SOL     OW87941   0.709  10.697   1.305
62015SOL    HW187942   0.727  10.637   1.377
62015SOL    HW287943   0.614  10.693   1.294
62016SOL     OW87944   5.807  11.294   6.948
62016SOL    HW187945   5.880  11.233   6.952
62016SOL    HW287946   5.756  11.267   6.872
62017SOL     OW87947  11.505   5.495   1.143
62017SOL    HW187948  11.447   5.538   1.205
62017SOL    HW287949  11.504   5.403   1.168
62018SOL     OW87950   3.764   7.136  14.365
62018SOL    HW187951   3.680   7.161  14.326
62018SOL    HW287952   3.783   7.050  14.326
62019SOL     OW87953  12.836   3.157  14.267
62019SOL    HW187954  12.776   3.231  14.261
62019SOL    HW287955  12.838   3.135  14.360
62020SOL     OW87956  11.319  12.903  10.581
62020SOL    HW187957  11.384  12.972  10.568
62020SOL    HW287958  11.300  12.905  10.675
62021SOL     OW87959   3.595   5.662   3.665
62021SOL    HW187960   3.520   5.720   3.673
62021SOL    HW287961   3.671   5.718   3.678
62022SOL     OW87962   7.929   1.623   6.309
62022SOL    HW187963   7.882   1.573   6.243
62022SOL    HW287964   7.921   1.714   6.281
62023SOL     OW87965   2.281  12.684   4.385
62023SOL    HW187966   2.346  12.618   4.361
62023SOL    HW287967   2.333  12.760   4.410
62024SOL     OW87968  11.603  12.281  12.735
62024SOL    HW187969  11.551  12.290  12.815
62024SOL    HW287970  11.573  12.200  12.695
62025SOL     OW87971   0.032   9.091   2.603
62025SOL    HW187972  14.813   9.115   2.586
62025SOL    HW287973   0.044   9.110   2.697
62026SOL     OW87974   8.188  12.070  11.169
62026SOL    HW187975   8.199  12.042  11.078
62026SOL    HW287976   8.136  12.150  11.163
62027SOL     OW87977   0.596  12.235   5.635
62027SOL    HW187978   0.542  12.194   5.568
62027SOL    HW287979   0.552  12.318   5.654
62028SOL     OW87980   1.773   8.898   4.265
62028SOL    HW187981   1.691   8.849   4.262
62028SOL    HW287982   1.762   8.968   4.201
62029SOL     OW87983   9.036  10.049   6.493
62029SOL    HW187984   9.093  10.046   6.570
62029SOL    HW287985   8.947  10.048   6.529
62030SOL     OW87986   5.349  13.668   3.303
62030SOL    HW187987   5.402  13.712   3.237
62030SOL    HW287988   5.270  13.641   3.256
62031SOL     OW87989   7.131  11.425  14.451
62031SOL    HW187990   7.214  11.389  14.420
62031SOL    HW287991   7.106  11.489  14.384
62032SOL     OW87992   9.074   6.043  10.428
62032SOL    HW187993   9.159   6.088  10.426
62032SOL    HW287994   9.064   6.016  10.520
62033SOL     OW87995  14.474  12.774  12.501
62033SOL    HW187996  14.452  12.738  12.587
62033SOL    HW287997  14.568  12.755  12.490
62034SOL     OW87998   8.071   1.319  10.726
62034SOL    HW187999   8.069   1.285  10.815
62034SOL    HW288000   8.059   1.242  10.670
62035SOL     OW88001  14.655  11.285   3.333
62035SOL    HW188002  14.677  11.211   3.277
62035SOL    HW288003  14.643  11.247   3.420
62036SOL     OW88004  13.278  11.702   9.431
62036SOL    HW188005  13.362  11.679   9.392
62036SOL    HW288006  13.234  11.618   9.445
62037SOL     OW88007   3.161   9.034  10.639
62037SOL    HW188008   3.099   9.079  10.696
62037SOL    HW288009   3.236   9.093  10.632
62038SOL     OW88010  11.228  10.655  14.007
62038SOL    HW188011  11.221  10.629  13.916
62038SOL    HW288012  11.205  10.577  14.057
62039SOL     OW88013  11.380   3.700   5.271
62039SOL    HW188014  11.435   3.624   5.291
62039SOL    HW288015  11.441   3.771   5.256
62040SOL     OW88016  14.598   6.603   9.156
62040SOL    HW188017  14.677   6.550   9.167
62040SOL    HW288018  14.590   6.651   9.238
62041SOL     OW88019   0.054   8.295   2.557
62041SOL    HW188020  14.867   8.338   2.495
62041SOL    HW288021   0.142   8.315   2.523
62042SOL     OW88022   4.590   5.221   9.255
62042SOL    HW188023   4.517   5.175   9.297
62042SOL    HW288024   4.657   5.225   9.322
62043SOL     OW88025   8.261  12.875   9.049
62043SOL    HW188026   8.240  12.968   9.047
62043SOL    HW288027   8.254  12.851   9.141
62044SOL     OW88028  13.600   8.415   6.525
62044SOL    HW188029  13.684   8.449   6.495
62044SOL    HW288030  13.621   8.356   6.596
62045SOL     OW88031   1.015   5.680   1.753
62045SOL    HW188032   1.080   5.614   1.776
62045SOL    HW288033   1.014   5.680   1.657
62046SOL     OW88034   4.258   3.448  10.101
62046SOL    HW188035   4.314   3.496  10.041
62046SOL    HW288036   4.263   3.357  10.072
62047SOL     OW88037   3.940   9.133   0.150
62047SOL    HW188038   4.034   9.133   0.167
62047SOL    HW288039   3.904   9.072   0.214
62048SOL     OW88040   5.788  12.574   7.807
62048SOL    HW188041   5.697  12.581   7.778
62048SOL    HW288042   5.788  12.498   7.866
62049SOL     OW88043   1.349   8.865  12.513
62049SOL    HW188044   1.415   8.830  12.452
62049SOL    HW288045   1.351   8.960  12.498
62050SOL     OW88046   7.388   0.358   6.014
62050SOL    HW188047   7.463   0.416   6.024
62050SOL    HW288048   7.341   0.393   5.938
62051SOL     OW88049   8.932   4.881   5.428
62051SOL    HW188050   8.858   4.898   5.487
62051SOL    HW288051   9.007   4.871   5.487
62052SOL     OW88052  13.566  13.285   0.256
62052SOL    HW188053  13.552  13.254   0.345
62052SOL    HW288054  13.588  13.207   0.206
62053SOL     OW88055   7.395  14.112   6.631
62053SOL    HW188056   7.309  14.120   6.591
62053SOL    HW288057   7.441  14.192   6.605
62054SOL     OW88058  13.004  11.962   1.548
62054SOL    HW188059  13.084  12.014   1.547
62054SOL    HW288060  12.942  12.012   1.494
62055SOL     OW88061   2.103   0.141  13.172
62055SOL    HW188062   2.162   0.207  13.206
62055SOL    HW288063   2.147   0.058  13.188
62056SOL     OW88064   2.868   8.440   5.053
62056SOL    HW188065   2.905   8.488   5.127
62056SOL    HW288066   2.928   8.457   4.981
62057SOL     OW88067  10.387   7.479   3.049
62057SOL    HW188068  10.366   7.399   3.097
62057SOL    HW288069  10.349   7.465   2.962
62058SOL     OW88070   6.696   5.618  14.178
62058SOL    HW188071   6.615   5.656  14.147
62058SOL    HW288072   6.701   5.645  14.270
62059SOL     OW88073   4.837  12.406  10.644
62059SOL    HW188074   4.754  12.383  10.601
62059SOL    HW288075   4.892  12.440  10.573
62060SOL     OW88076   7.339   4.954   1.202
62060SOL    HW188077   7.434   4.944   1.215
62060SOL    HW288078   7.318   5.038   1.243
62061SOL     OW88079  14.745   9.411   8.744
62061SOL    HW188080  14.790   9.496   8.742
62061SOL    HW288081  14.652   9.434   8.737
62062SOL     OW88082  10.600  12.077   4.615
62062SOL    HW188083  10.517  12.062   4.659
62062SOL    HW288084  10.584  12.050   4.524
62063SOL     OW88085  12.572  12.760   0.222
62063SOL    HW188086  12.550  12.730   0.134
62063SOL    HW288087  12.489  12.791   0.259
62064SOL     OW88088  14.418  12.231   8.301
62064SOL    HW188089  14.478  12.173   8.254
62064SOL    HW288090  14.368  12.173   8.358
62065SOL     OW88091  10.097   1.336   7.891
62065SOL    HW188092  10.024   1.292   7.935
62065SOL    HW288093  10.158   1.357   7.961
62066SOL     OW88094   6.697   1.610   7.276
62066SOL    HW188095   6.756   1.561   7.334
62066SOL    HW288096   6.694   1.698   7.315
62067SOL     OW88097  14.514  14.800   4.236
62067SOL    HW188098  14.540  14.761   4.153
62067SOL    HW288099  14.588  14.857   4.259
62068SOL     OW88100  13.759   8.055  10.547
62068SOL    HW188101  13.667   8.066  10.569
62068SOL    HW288102  13.802   8.131  10.586
62069SOL     OW88103   4.587   6.267  13.422
62069SOL    HW188104   4.520   6.335  13.425
62069SOL    HW288105   4.625   6.275  13.334
62070SOL     OW88106  11.000   8.085   7.992
62070SOL    HW188107  10.989   7.999   8.033
62070SOL    HW288108  11.064   8.130   8.047
62071SOL     OW88109  13.451   5.880   2.554
62071SOL    HW188110  13.444   5.945   2.624
62071SOL    HW288111  13.371   5.891   2.502
62072SOL     OW88112  10.060   1.513  11.461
62072SOL    HW188113   9.978   1.466  11.446
62072SOL    HW288114  10.076   1.502  11.555
62073SOL     OW88115   4.828   4.834   8.494
62073SOL    HW188116   4.776   4.779   8.435
62073SOL    HW288117   4.819   4.922   8.459
62074SOL     OW88118   4.220   4.915   8.955
62074SOL    HW188119   4.259   4.833   8.927
62074SOL    HW288120   4.125   4.899   8.952
62075SOL     OW88121   8.063   8.291  12.378
62075SOL    HW188122   8.120   8.229  12.332
62075SOL    HW288123   7.985   8.240  12.402
62076SOL     OW88124  11.827   0.534   8.835
62076SOL    HW188125  11.823   0.453   8.885
62076SOL    HW288126  11.919   0.561   8.842
62077SOL     OW88127   6.899   1.758   5.174
62077SOL    HW188128   6.874   1.845   5.144
62077SOL    HW288129   6.867   1.699   5.107
62078SOL     OW88130   0.009   8.857   6.519
62078SOL    HW188131   0.036   8.948   6.508
62078SOL    HW288132   0.014   8.841   6.613
62079SOL     OW88133   1.817  14.134  13.335
62079SOL    HW188134   1.792  14.205  13.394
62079SOL    HW288135   1.884  14.086  13.383
62080SOL     OW88136   5.790  10.245   3.865
62080SOL    HW188137   5.856  10.198   3.814
62080SOL    HW288138   5.717  10.184   3.871
62081SOL     OW88139   9.660   2.954   0.497
62081SOL    HW188140   9.589   2.943   0.560
62081SOL    HW288141   9.620   3.000   0.423
62082SOL     OW88142   6.115   7.544   1.840
62082SOL    HW188143   6.110   7.465   1.893
62082SOL    HW288144   6.201   7.539   1.797
62083SOL     OW88145   0.041  12.038   4.313
62083SOL    HW188146   0.031  12.125   4.275
62083SOL    HW288147  14.837  12.027   4.371
62084SOL     OW88148  10.417   3.193   0.412
62084SOL    HW188149  10.344   3.137   0.386
62084SOL    HW288150  10.437   3.244   0.333
62085SOL     OW88151   7.452   4.213  12.754
62085SOL    HW188152   7.461   4.305  12.729
62085SOL    HW288153   7.415   4.216  12.842
62086SOL     OW88154   5.853   0.378  13.671
62086SOL    HW188155   5.799   0.306  13.703
62086SOL    HW288156   5.865   0.361  13.578
62087SOL     OW88157  12.746  14.091  12.913
62087SOL    HW188158  12.824  14.041  12.935
62087SOL    HW288159  12.677  14.025  12.905
62088SOL     OW88160   5.440   7.759   7.490
62088SOL    HW188161   5.519   7.775   7.437
62088SOL    HW288162   5.465   7.784   7.579
62089SOL     OW88163   6.083  13.797  11.837
62089SOL    HW188164   6.030  13.844  11.901
62089SOL    HW288165   6.068  13.705  11.856
62090SOL     OW88166   5.657   9.881   0.242
62090SOL    HW188167   5.750   9.860   0.232
62090SOL    HW288168   5.628   9.903   0.153
62091SOL     OW88169  14.684   7.642   3.937
62091SOL    HW188170  14.731   7.590   4.002
62091SOL    HW288171  14.664   7.580   3.867
62092SOL     OW88172   9.054   7.820   6.061
62092SOL    HW188173   9.024   7.865   5.981
62092SOL    HW288174   9.040   7.884   6.131
62093SOL     OW88175  13.155   7.664   4.880
62093SOL    HW188176  13.108   7.613   4.814
62093SOL    HW288177  13.095   7.669   4.954
62094SOL     OW88178  12.379   4.994   9.479
62094SOL    HW188179  12.387   5.063   9.414
62094SOL    HW288180  12.306   4.939   9.448
62095SOL     OW88181  10.796   8.157  12.939
62095SOL    HW188182  10.880   8.158  12.986
62095SOL    HW288183  10.730   8.162  13.008
62096SOL     OW88184   6.072   1.090  14.865
62096SOL    HW188185   6.095   1.093   0.086
62096SOL    HW288186   6.147   1.130  14.821
62097SOL     OW88187  12.554   0.393   1.792
62097SOL    HW188188  12.647   0.392   1.771
62097SOL    HW288189  12.515   0.329   1.733
62098SOL     OW88190   9.620   5.983   8.732
62098SOL    HW188191   9.707   6.005   8.765
62098SOL    HW288192   9.623   6.006   8.639
62099SOL     OW88193   9.540   9.374   6.035
62099SOL    HW188194   9.480   9.324   5.980
62099SOL    HW288195   9.487   9.404   6.109
62100SOL     OW88196   2.320   8.408   5.853
62100SOL    HW188197   2.324   8.503   5.843
62100SOL    HW288198   2.253   8.394   5.920
62101SOL     OW88199  12.704  10.617  11.378
62101SOL    HW188200  12.674  10.527  11.395
62101SOL    HW288201  12.626  10.671  11.393
62102SOL     OW88202   3.563   7.614   9.621
62102SOL    HW188203   3.630   7.657   9.674
62102SOL    HW288204   3.607   7.593   9.539
62103SOL     OW88205  13.013   5.715   0.802
62103SOL    HW188206  13.102   5.727   0.770
62103SOL    HW288207  13.022   5.652   0.874
62104SOL     OW88208   2.709   1.671   6.550
62104SOL    HW188209   2.705   1.610   6.624
62104SOL    HW288210   2.797   1.708   6.553
62105SOL     OW88211   2.289   7.193   3.984
62105SOL    HW188212   2.248   7.244   3.914
62105SOL    HW288213   2.383   7.206   3.971
62106SOL     OW88214   9.164  11.930   0.112
62106SOL    HW188215   9.252  11.893   0.117
62106SOL    HW288216   9.174  12.005   0.053
62107SOL     OW88217   7.425   2.392   5.720
62107SOL    HW188218   7.458   2.421   5.636
62107SOL    HW288219   7.418   2.297   5.713
62108SOL     OW88220   9.083   2.334   2.742
62108SOL    HW188221   9.133   2.373   2.670
62108SOL    HW288222   8.991   2.346   2.717
62109SOL     OW88223   6.725  12.710   2.647
62109SOL    HW188224   6.808  12.751   2.670
62109SOL    HW288225   6.734  12.687   2.555
62110SOL     OW88226  12.975   5.549  10.714
62110SOL    HW188227  13.033   5.475  10.697
62110SOL    HW288228  13.005   5.584  10.798
62111SOL     OW88229   8.240   0.864   4.896
62111SOL    HW188230   8.232   0.926   4.968
62111SOL    HW288231   8.177   0.895   4.830
62112SOL     OW88232   8.105  14.384   5.155
62112SOL    HW188233   8.159  14.391   5.077
62112SOL    HW288234   8.162  14.342   5.220
62113SOL     OW88235  12.847   6.253   4.398
62113SOL    HW188236  12.879   6.341   4.377
62113SOL    HW288237  12.816   6.259   4.488
62114SOL     OW88238  11.697  13.445   1.583
62114SOL    HW188239  11.616  13.457   1.633
62114SOL    HW288240  11.699  13.518   1.522
62115SOL     OW88241   7.709  12.035  12.133
62115SOL    HW188242   7.735  11.944  12.116
62115SOL    HW288243   7.700  12.039  12.228
62116SOL     OW88244   8.063   7.374   7.244
62116SOL    HW188245   8.025   7.454   7.207
62116SOL    HW288246   8.157   7.383   7.227
62117SOL     OW88247   3.874   5.149  11.418
62117SOL    HW188248   3.946   5.213  11.421
62117SOL    HW288249   3.909   5.073  11.464
62118SOL     OW88250  12.303  11.149   4.243
62118SOL    HW188251  12.370  11.194   4.293
62118SOL    HW288252  12.344  11.129   4.159
62119SOL     OW88253   3.751  13.178  14.721
62119SOL    HW188254   3.720  13.262  14.687
62119SOL    HW288255   3.671  13.129  14.740
62120SOL     OW88256   1.431   6.928   7.572
62120SOL    HW188257   1.520   6.906   7.599
62120SOL    HW288258   1.395   6.847   7.537
62121SOL     OW88259   4.913  14.629   5.025
62121SOL    HW188260   4.878  14.645   4.938
62121SOL    HW288261   4.908  14.533   5.035
62122SOL     OW88262  10.008  14.574   5.393
62122SOL    HW188263  10.029  14.494   5.442
62122SOL    HW288264  10.081  14.585   5.333
62123SOL     OW88265   8.090   9.501  14.152
62123SOL    HW188266   8.125   9.413  14.140
62123SOL    HW288267   8.077   9.535  14.064
62124SOL     OW88268   2.001   8.727   6.764
62124SOL    HW188269   1.965   8.741   6.676
62124SOL    HW288270   1.971   8.641   6.790
62125SOL     OW88271   5.633  14.163   1.699
62125SOL    HW188272   5.543  14.133   1.713
62125SOL    HW288273   5.668  14.104   1.632
62126SOL     OW88274   7.398   3.405  14.106
62126SOL    HW188275   7.461   3.401  14.178
62126SOL    HW288276   7.446   3.447  14.035
62127SOL     OW88277   5.418   1.516   5.525
62127SOL    HW188278   5.405   1.519   5.620
62127SOL    HW288279   5.410   1.608   5.497
62128SOL     OW88280  14.284  12.199   7.060
62128SOL    HW188281  14.282  12.259   7.135
62128SOL    HW288282  14.325  12.250   6.990
62129SOL     OW88283  13.868   0.748   9.055
62129SOL    HW188284  13.909   0.822   9.009
62129SOL    HW288285  13.939   0.706   9.103
62130SOL     OW88286  13.130   6.132   5.460
62130SOL    HW188287  13.072   6.182   5.402
62130SOL    HW288288  13.203   6.192   5.479
62131SOL     OW88289   6.128   2.272   0.315
62131SOL    HW188290   6.151   2.334   0.384
62131SOL    HW288291   6.181   2.299   0.240
62132SOL     OW88292  11.117   9.425   5.432
62132SOL    HW188293  11.180   9.406   5.363
62132SOL    HW288294  11.056   9.351   5.429
62133SOL     OW88295   3.971   3.274   4.069
62133SOL    HW188296   3.878   3.293   4.079
62133SOL    HW288297   3.980   3.183   4.099
62134SOL     OW88298  13.226   7.241  12.382
62134SOL    HW188299  13.237   7.324  12.428
62134SOL    HW288300  13.132   7.222  12.389
62135SOL     OW88301   2.396  14.386  14.369
62135SOL    HW188302   2.481  14.343  14.380
62135SOL    HW288303   2.332  14.315  14.374
62136SOL     OW88304   4.012   5.866   1.646
62136SOL    HW188305   4.082   5.801   1.634
62136SOL    HW288306   3.932   5.817   1.628
62137SOL     OW88307   9.236  13.000  10.795
62137SOL    HW188308   9.306  12.968  10.738
62137SOL    HW288309   9.166  12.936  10.785
62138SOL     OW88310   5.594   6.348   0.951
62138SOL    HW188311   5.665   6.336   0.889
62138SOL    HW288312   5.515   6.345   0.897
62139SOL     OW88313   4.325   8.904  12.004
62139SOL    HW188314   4.389   8.908  12.074
62139SOL    HW288315   4.363   8.958  11.934
62140SOL     OW88316   0.186   6.282   9.511
62140SOL    HW188317   0.247   6.355   9.523
62140SOL    HW288318   0.151   6.266   9.599
62141SOL     OW88319  13.535  13.452   4.997
62141SOL    HW188320  13.496  13.537   4.978
62141SOL    HW288321  13.464  13.389   4.982
62142SOL     OW88322  11.369   5.768   0.085
62142SOL    HW188323  11.390   5.861   0.081
62142SOL    HW288324  11.393   5.734  14.871
62143SOL     OW88325   8.016  11.357  14.209
62143SOL    HW188326   7.983  11.411  14.137
62143SOL    HW288327   7.945  11.359  14.274
62144SOL     OW88328   1.059  14.455   1.529
62144SOL    HW188329   1.132  14.426   1.475
62144SOL    HW288330   1.085  14.432   1.619
62145SOL     OW88331   0.917   2.058   2.936
62145SOL    HW188332   0.961   2.143   2.933
62145SOL    HW288333   0.947   2.012   2.858
62146SOL     OW88334  12.502  10.580   1.002
62146SOL    HW188335  12.531  10.583   1.093
62146SOL    HW288336  12.412  10.614   1.004
62147SOL     OW88337  14.679  12.459  14.770
62147SOL    HW188338  14.676  12.382  14.713
62147SOL    HW288339  14.623  12.523  14.726
62148SOL     OW88340   7.388  10.843   9.312
62148SOL    HW188341   7.346  10.860   9.396
62148SOL    HW288342   7.442  10.765   9.327
62149SOL     OW88343   3.973   0.348   8.510
62149SOL    HW188344   3.924   0.376   8.587
62149SOL    HW288345   3.966   0.421   8.449
62150SOL     OW88346  14.178   9.221  14.011
62150SOL    HW188347  14.204   9.297  13.959
62150SOL    HW288348  14.098   9.247  14.055
62151SOL     OW88349   5.160   8.734  12.270
62151SOL    HW188350   5.216   8.770  12.202
62151SOL    HW288351   5.104   8.671  12.225
62152SOL     OW88352   4.331  14.101   5.830
62152SOL    HW188353   4.239  14.117   5.853
62152SOL    HW288354   4.369  14.062   5.909
62153SOL     OW88355   0.674   8.561   4.776
62153SOL    HW188356   0.723   8.641   4.795
62153SOL    HW288357   0.733   8.490   4.800
62154SOL     OW88358   2.037   7.159   0.249
62154SOL    HW188359   2.027   7.227   0.317
62154SOL    HW288360   2.128   7.167   0.220
62155SOL     OW88361   7.451   2.041  11.554
62155SOL    HW188362   7.362   2.075  11.562
62155SOL    HW288363   7.480   2.027  11.644
62156SOL     OW88364   2.987   2.018   7.941
62156SOL    HW188365   3.015   2.042   8.030
62156SOL    HW288366   2.969   2.101   7.898
62157SOL     OW88367   0.032   2.552   8.351
62157SOL    HW188368   0.123   2.563   8.326
62157SOL    HW288369   0.024   2.458   8.370
62158SOL     OW88370   7.176   2.196   3.132
62158SOL    HW188371   7.185   2.259   3.204
62158SOL    HW288372   7.153   2.250   3.056
62159SOL     OW88373   3.022  10.084  11.108
62159SOL    HW188374   2.937  10.041  11.116
62159SOL    HW288375   3.081  10.032  11.163
62160SOL     OW88376   7.696  10.137   7.745
62160SOL    HW188377   7.783  10.177   7.738
62160SOL    HW288378   7.639  10.193   7.692
62161SOL     OW88379   6.052   3.968  10.137
62161SOL    HW188380   5.994   3.988  10.211
62161SOL    HW288381   6.010   4.012  10.062
62162SOL     OW88382   0.837   3.093   9.458
62162SOL    HW188383   0.791   3.166   9.500
62162SOL    HW288384   0.888   3.053   9.528
62163SOL     OW88385   9.422   1.208   0.846
62163SOL    HW188386   9.491   1.186   0.908
62163SOL    HW288387   9.374   1.126   0.833
62164SOL     OW88388  12.343   6.825   6.663
62164SOL    HW188389  12.274   6.816   6.729
62164SOL    HW288390  12.416   6.865   6.710
62165SOL     OW88391  13.328  11.122   2.601
62165SOL    HW188392  13.275  11.198   2.625
62165SOL    HW288393  13.298  11.053   2.660
62166SOL     OW88394   7.491  12.934   7.904
62166SOL    HW188395   7.416  12.902   7.855
62166SOL    HW288396   7.454  12.999   7.964
62167SOL     OW88397   8.205   5.534  11.654
62167SOL    HW188398   8.285   5.507  11.700
62167SOL    HW288399   8.167   5.452  11.623
62168SOL     OW88400   5.102   9.130  13.794
62168SOL    HW188401   5.167   9.061  13.779
62168SOL    HW288402   5.134   9.205  13.743
62169SOL     OW88403   7.484   8.451   6.536
62169SOL    HW188404   7.487   8.365   6.493
62169SOL    HW288405   7.416   8.442   6.603
62170SOL     OW88406   3.551  11.473   4.329
62170SOL    HW188407   3.486  11.404   4.325
62170SOL    HW288408   3.631  11.430   4.359
62171SOL     OW88409   7.229  13.839   9.017
62171SOL    HW188410   7.266  13.835   8.929
62171SOL    HW288411   7.303  13.825   9.075
62172SOL     OW88412  11.465  11.735  13.730
62172SOL    HW188413  11.390  11.690  13.767
62172SOL    HW288414  11.472  11.817  13.780
62173SOL     OW88415   4.473   7.542   9.408
62173SOL    HW188416   4.478   7.560   9.314
62173SOL    HW288417   4.532   7.607   9.447
62174SOL     OW88418   1.247   7.450   9.485
62174SOL    HW188419   1.234   7.513   9.556
62174SOL    HW288420   1.178   7.469   9.422
62175SOL     OW88421   7.475   7.977   0.405
62175SOL    HW188422   7.565   7.945   0.416
62175SOL    HW288423   7.424   7.899   0.384
62176SOL     OW88424   0.962   2.473   3.270
62176SOL    HW188425   0.943   2.387   3.233
62176SOL    HW288426   0.951   2.462   3.365
62177SOL     OW88427   6.334   1.985  11.590
62177SOL    HW188428   6.426   2.009  11.573
62177SOL    HW288429   6.340   1.914  11.654
62178SOL     OW88430   8.867   0.732   7.922
62178SOL    HW188431   8.950   0.779   7.932
62178SOL    HW288432   8.835   0.720   8.012
62179SOL     OW88433   9.139   5.901  12.643
62179SOL    HW188434   9.211   5.839  12.638
62179SOL    HW288435   9.143   5.950  12.561
62180SOL     OW88436  14.305   4.744   1.045
62180SOL    HW188437  14.244   4.775   1.112
62180SOL    HW288438  14.314   4.650   1.062
62181SOL     OW88439   3.538   5.974   7.930
62181SOL    HW188440   3.508   5.934   7.848
62181SOL    HW288441   3.510   6.066   7.924
62182SOL     OW88442   1.993  14.411   8.982
62182SOL    HW188443   2.062  14.477   8.989
62182SOL    HW288444   2.031  14.343   8.926
62183SOL     OW88445  13.430   9.137  13.227
62183SOL    HW188446  13.344   9.175  13.209
62183SOL    HW288447  13.471   9.131  13.141
62184SOL     OW88448   5.312   7.416   3.892
62184SOL    HW188449   5.375   7.406   3.821
62184SOL    HW288450   5.226   7.401   3.851
62185SOL     OW88451   0.205  10.480   7.730
62185SOL    HW188452   0.138  10.469   7.797
62185SOL    HW288453   0.175  10.427   7.656
62186SOL     OW88454   6.955  13.009   9.227
62186SOL    HW188455   7.025  13.074   9.239
62186SOL    HW288456   6.967  12.947   9.298
62187SOL     OW88457  11.455   4.072   4.500
62187SOL    HW188458  11.437   4.115   4.416
62187SOL    HW288459  11.501   3.992   4.476
62188SOL     OW88460   2.596   4.891  10.523
62188SOL    HW188461   2.666   4.852  10.577
62188SOL    HW288462   2.571   4.970  10.570
62189SOL     OW88463   5.629  11.215  14.580
62189SOL    HW188464   5.633  11.120  14.577
62189SOL    HW288465   5.680  11.239  14.658
62190SOL     OW88466  11.334  13.802   4.451
62190SOL    HW188467  11.249  13.846   4.448
62190SOL    HW288468  11.391  13.862   4.499
62191SOL     OW88469   9.093   5.080   4.207
62191SOL    HW188470   9.121   5.119   4.124
62191SOL    HW288471   9.131   4.992   4.207
62192SOL     OW88472   1.154   7.601   1.897
62192SOL    HW188473   1.148   7.557   1.981
62192SOL    HW288474   1.105   7.545   1.837
62193SOL     OW88475   3.777   8.327  10.480
62193SOL    HW188476   3.838   8.280  10.537
62193SOL    HW288477   3.826   8.404  10.452
62194SOL     OW88478  10.823  14.220  12.967
62194SOL    HW188479  10.915  14.194  12.971
62194SOL    HW288480  10.784  14.159  12.904
62195SOL     OW88481   4.009   3.818   5.089
62195SOL    HW188482   4.035   3.804   4.998
62195SOL    HW288483   3.988   3.911   5.094
62196SOL     OW88484  11.016  13.803  13.168
62196SOL    HW188485  10.971  13.876  13.211
62196SOL    HW288486  11.051  13.841  13.087
62197SOL     OW88487  13.726   2.058   3.082
62197SOL    HW188488  13.746   1.988   3.020
62197SOL    HW288489  13.641   2.034   3.119
62198SOL     OW88490   0.142   5.013   9.992
62198SOL    HW188491   0.095   5.060  10.061
62198SOL    HW288492   0.160   4.927  10.029
62199SOL     OW88493  11.866   3.650   1.413
62199SOL    HW188494  11.788   3.704   1.424
62199SOL    HW288495  11.833   3.560   1.414
62200SOL     OW88496  11.681   6.999   8.530
62200SOL    HW188497  11.623   6.957   8.593
62200SOL    HW288498  11.674   6.945   8.451
62201SOL     OW88499  13.825  10.373   0.175
62201SOL    HW188500  13.869  10.290   0.158
62201SOL    HW288501  13.895  10.436   0.189
62202SOL     OW88502   5.335   5.999  12.328
62202SOL    HW188503   5.403   6.064  12.312
62202SOL    HW288504   5.255   6.039  12.293
62203SOL     OW88505  14.302   7.381   1.091
62203SOL    HW188506  14.366   7.431   1.042
62203SOL    HW288507  14.220   7.391   1.042
62204SOL     OW88508  11.359   6.329   1.475
62204SOL    HW188509  11.418   6.338   1.550
62204SOL    HW288510  11.323   6.241   1.483
62205SOL     OW88511   2.009   0.663   5.644
62205SOL    HW188512   2.050   0.726   5.585
62205SOL    HW288513   1.951   0.717   5.699
62206SOL     OW88514   3.259   5.485  12.987
62206SOL    HW188515   3.248   5.574  12.954
62206SOL    HW288516   3.253   5.493  13.082
62207SOL     OW88517  13.029   8.860   4.061
62207SOL    HW188518  13.067   8.840   3.975
62207SOL    HW288519  13.005   8.952   4.055
62208SOL     OW88520  12.141   9.597   5.125
62208SOL    HW188521  12.135   9.637   5.038
62208SOL    HW288522  12.234   9.583   5.139
62209SOL     OW88523   0.292  11.530   2.073
62209SOL    HW188524   0.251  11.568   2.151
62209SOL    HW288525   0.237  11.560   2.001
62210SOL     OW88526  11.225   9.217   4.605
62210SOL    HW188527  11.255   9.257   4.686
62210SOL    HW288528  11.173   9.285   4.562
62211SOL     OW88529   8.300   3.668  10.749
62211SOL    HW188530   8.306   3.732  10.820
62211SOL    HW288531   8.211   3.634  10.754
62212SOL     OW88532   1.326   3.658  14.101
62212SOL    HW188533   1.245   3.708  14.106
62212SOL    HW288534   1.392   3.716  14.141
62213SOL     OW88535  11.115   2.373   4.429
62213SOL    HW188536  11.167   2.303   4.470
62213SOL    HW288537  11.024   2.350   4.449
62214SOL     OW88538   8.176   9.242   3.491
62214SOL    HW188539   8.086   9.214   3.475
62214SOL    HW288540   8.230   9.174   3.449
62215SOL     OW88541  10.902   2.827  14.852
62215SOL    HW188542  10.967   2.875   0.030
62215SOL    HW288543  10.888   2.746   0.029
62216SOL     OW88544  13.950   4.340   5.444
62216SOL    HW188545  14.013   4.295   5.500
62216SOL    HW288546  13.963   4.433   5.463
62217SOL     OW88547  14.443  12.359   5.095
62217SOL    HW188548  14.447  12.415   5.173
62217SOL    HW288549  14.355  12.372   5.061
62218SOL     OW88550   1.854  13.366  10.281
62218SOL    HW188551   1.929  13.345  10.226
62218SOL    HW288552   1.885  13.438  10.337
62219SOL     OW88553  10.463  14.389   0.997
62219SOL    HW188554  10.522  14.405   0.924
62219SOL    HW288555  10.460  14.293   1.005
62220SOL     OW88556   2.665  14.025   5.658
62220SOL    HW188557   2.695  14.081   5.587
62220SOL    HW288558   2.575  14.004   5.635
62221SOL     OW88559   2.315   8.684   5.172
62221SOL    HW188560   2.351   8.760   5.125
62221SOL    HW288561   2.227   8.673   5.135
62222SOL     OW88562   4.515   1.748  12.878
62222SOL    HW188563   4.436   1.721  12.924
62222SOL    HW288564   4.503   1.842  12.861
62223SOL     OW88565  10.646   5.911   5.362
62223SOL    HW188566  10.661   5.976   5.432
62223SOL    HW288567  10.718   5.849   5.371
62224SOL     OW88568   2.468   1.987  12.275
62224SOL    HW188569   2.507   2.012  12.359
62224SOL    HW288570   2.400   2.053  12.259
62225SOL     OW88571   3.748   2.786   6.570
62225SOL    HW188572   3.825   2.730   6.578
62225SOL    HW288573   3.754   2.846   6.645
62226SOL     OW88574   4.728   9.015   8.808
62226SOL    HW188575   4.748   8.922   8.803
62226SOL    HW288576   4.637   9.019   8.837
62227SOL     OW88577   1.929  12.081   5.727
62227SOL    HW188578   1.856  12.020   5.734
62227SOL    HW288579   1.976  12.054   5.648
62228SOL     OW88580  12.305   3.614   2.778
62228SOL    HW188581  12.215   3.641   2.797
62228SOL    HW288582  12.327   3.659   2.697
62229SOL     OW88583   6.366   9.914  11.892
62229SOL    HW188584   6.342   9.895  11.983
62229SOL    HW288585   6.288   9.889  11.842
62230SOL     OW88586   5.464  11.224   8.950
62230SOL    HW188587   5.499  11.229   9.039
62230SOL    HW288588   5.390  11.163   8.957
62231SOL     OW88589   7.326   2.962  14.464
62231SOL    HW188590   7.306   2.965  14.558
62231SOL    HW288591   7.242   2.973  14.421
62232SOL     OW88592   6.048  12.725   1.170
62232SOL    HW188593   6.078  12.736   1.080
62232SOL    HW288594   5.979  12.790   1.181
62233SOL     OW88595   2.466   5.766  10.272
62233SOL    HW188596   2.484   5.675  10.247
62233SOL    HW288597   2.545   5.814  10.248
62234SOL     OW88598   9.312  11.641   0.582
62234SOL    HW188599   9.385  11.612   0.526
62234SOL    HW288600   9.248  11.676   0.520
62235SOL     OW88601   7.652  11.183   2.238
62235SOL    HW188602   7.680  11.115   2.299
62235SOL    HW288603   7.733  11.213   2.197
62236SOL     OW88604   1.382  13.861   7.229
62236SOL    HW188605   1.377  13.812   7.147
62236SOL    HW288606   1.427  13.942   7.206
62237SOL     OW88607  11.307   0.773   6.448
62237SOL    HW188608  11.288   0.858   6.408
62237SOL    HW288609  11.231   0.755   6.503
62238SOL     OW88610   8.053   3.790   9.742
62238SOL    HW188611   8.120   3.745   9.793
62238SOL    HW288612   8.075   3.883   9.751
62239SOL     OW88613   3.210   5.106  10.184
62239SOL    HW188614   3.237   5.028  10.232
62239SOL    HW288615   3.288   5.131  10.133
62240SOL     OW88616   4.494   5.404   5.909
62240SOL    HW188617   4.428   5.362   5.965
62240SOL    HW288618   4.553   5.449   5.969
62241SOL     OW88619   0.570   7.521   2.861
62241SOL    HW188620   0.655   7.563   2.870
62241SOL    HW288621   0.580   7.462   2.787
62242SOL     OW88622   5.099   9.715   5.387
62242SOL    HW188623   5.117   9.664   5.307
62242SOL    HW288624   5.104   9.651   5.458
62243SOL     OW88625   8.176   0.589   2.973
62243SOL    HW188626   8.112   0.660   2.972
62243SOL    HW288627   8.240   0.616   3.039
62244SOL     OW88628   9.300   1.969  10.673
62244SOL    HW188629   9.279   1.942  10.583
62244SOL    HW288630   9.216   1.994  10.711
62245SOL     OW88631   5.218  12.411  11.957
62245SOL    HW188632   5.136  12.376  11.993
62245SOL    HW288633   5.282  12.397  12.027
62246SOL     OW88634   3.171   2.099  13.851
62246SOL    HW188635   3.180   2.090  13.756
62246SOL    HW288636   3.221   2.025  13.887
62247SOL     OW88637   7.451  10.383   7.056
62247SOL    HW188638   7.462  10.430   6.973
62247SOL    HW288639   7.388  10.435   7.105
62248SOL     OW88640   8.678   5.119   9.217
62248SOL    HW188641   8.668   5.211   9.195
62248SOL    HW288642   8.701   5.076   9.134
62249SOL     OW88643   7.759  13.118   3.174
62249SOL    HW188644   7.818  13.045   3.156
62249SOL    HW288645   7.701  13.086   3.243
62250SOL     OW88646   4.538   3.287   9.344
62250SOL    HW188647   4.480   3.270   9.417
62250SOL    HW288648   4.623   3.253   9.372
62251SOL     OW88649   1.570   7.243   1.990
62251SOL    HW188650   1.611   7.165   1.951
62251SOL    HW288651   1.643   7.299   2.014
62252SOL     OW88652   6.977   5.730   0.324
62252SOL    HW188653   6.932   5.685   0.395
62252SOL    HW288654   6.931   5.813   0.314
62253SOL     OW88655   5.239   1.779   5.220
62253SOL    HW188656   5.299   1.813   5.287
62253SOL    HW288657   5.172   1.732   5.269
62254SOL     OW88658   2.405   5.592   3.756
62254SOL    HW188659   2.465   5.545   3.697
62254SOL    HW288660   2.394   5.678   3.715
62255SOL     OW88661   8.013   5.969  12.813
62255SOL    HW188662   7.958   6.048  12.819
62255SOL    HW288663   7.958   5.900  12.850
62256SOL     OW88664   0.264   8.657   3.947
62256SOL    HW188665   0.262   8.746   3.911
62256SOL    HW288666   0.330   8.611   3.894
62257SOL     OW88667   2.124   2.465  13.042
62257SOL    HW188668   2.179   2.430  12.972
62257SOL    HW288669   2.186   2.489  13.111
62258SOL     OW88670   6.962   4.721   5.827
62258SOL    HW188671   6.990   4.631   5.811
62258SOL    HW288672   6.899   4.714   5.899
62259SOL     OW88673   7.757   5.169   4.420
62259SOL    HW188674   7.675   5.188   4.375
62259SOL    HW288675   7.765   5.236   4.487
62260SOL     OW88676   8.209   4.188   6.188
62260SOL    HW188677   8.213   4.098   6.156
62260SOL    HW288678   8.159   4.235   6.122
62261SOL     OW88679  12.316   3.936  12.405
62261SOL    HW188680  12.328   3.871  12.475
62261SOL    HW288681  12.377   4.006  12.427
62262SOL     OW88682  12.643  13.485   5.357
62262SOL    HW188683  12.663  13.427   5.284
62262SOL    HW288684  12.629  13.571   5.317
62263SOL     OW88685  14.818  12.811  11.912
62263SOL    HW188686  14.729  12.779  11.925
62263SOL    HW288687  14.809  12.905  11.899
62264SOL     OW88688  10.519  13.744   9.408
62264SOL    HW188689  10.552  13.808   9.344
62264SOL    HW288690  10.554  13.775   9.492
62265SOL     OW88691  10.268   0.596   8.077
62265SOL    HW188692  10.336   0.660   8.096
62265SOL    HW288693  10.315   0.512   8.075
62266SOL     OW88694  11.204   2.022   2.742
62266SOL    HW188695  11.193   2.099   2.686
62266SOL    HW288696  11.283   1.980   2.708
62267SOL     OW88697  12.311  13.144   1.351
62267SOL    HW188698  12.278  13.134   1.261
62267SOL    HW288699  12.251  13.208   1.390
62268SOL     OW88700   2.297  10.038   2.896
62268SOL    HW188701   2.321  10.029   2.804
62268SOL    HW288702   2.248  10.120   2.900
62269SOL     OW88703  13.404   1.646   1.637
62269SOL    HW188704  13.460   1.614   1.566
62269SOL    HW288705  13.343   1.706   1.594
62270SOL     OW88706   3.968   2.077  13.228
62270SOL    HW188707   3.985   2.003  13.286
62270SOL    HW288708   3.898   2.126  13.271
62271SOL     OW88709   4.143   3.434   7.747
62271SOL    HW188710   4.156   3.380   7.669
62271SOL    HW288711   4.188   3.516   7.728
62272SOL     OW88712   9.128  10.678   6.457
62272SOL    HW188713   9.088  10.591   6.464
62272SOL    HW288714   9.066  10.737   6.500
62273SOL     OW88715  10.013  10.834   6.840
62273SOL    HW188716  10.008  10.763   6.775
62273SOL    HW288717   9.923  10.844   6.871
62274SOL     OW88718   3.663  14.172   8.511
62274SOL    HW188719   3.709  14.112   8.452
62274SOL    HW288720   3.674  14.258   8.472
62275SOL     OW88721  10.705   9.847   2.204
62275SOL    HW188722  10.643   9.793   2.253
62275SOL    HW288723  10.732   9.793   2.130
62276SOL     OW88724   0.371   4.371  14.810
62276SOL    HW188725   0.326   4.310  14.869
62276SOL    HW288726   0.361   4.457  14.851
62277SOL     OW88727  12.156  12.391   7.352
62277SOL    HW188728  12.085  12.455   7.341
62277SOL    HW288729  12.112  12.311   7.378
62278SOL     OW88730  10.648   2.012   6.993
62278SOL    HW188731  10.724   2.012   6.935
62278SOL    HW288732  10.597   1.936   6.966
62279SOL     OW88733   9.000  11.675  11.983
62279SOL    HW188734   8.935  11.606  11.979
62279SOL    HW288735   9.012  11.702  11.891
62280SOL     OW88736   2.192   9.339   1.895
62280SOL    HW188737   2.254   9.266   1.891
62280SOL    HW288738   2.149   9.338   1.809
62281SOL     OW88739   3.090   8.036   4.451
62281SOL    HW188740   3.055   8.115   4.410
62281SOL    HW288741   3.043   8.029   4.534
62282SOL     OW88742  14.752   0.519   4.216
62282SOL    HW188743  14.748   0.614   4.225
62282SOL    HW288744  14.721   0.485   4.300
62283SOL     OW88745   0.516   8.886   9.581
62283SOL    HW188746   0.530   8.945   9.654
62283SOL    HW288747   0.452   8.822   9.613
62284SOL     OW88748   4.785   1.823   9.027
62284SOL    HW188749   4.711   1.847   9.082
62284SOL    HW288750   4.841   1.770   9.085
62285SOL     OW88751   3.881   4.110  12.835
62285SOL    HW188752   3.805   4.054  12.819
62285SOL    HW288753   3.878   4.128  12.929
62286SOL     OW88754   8.033   9.796   7.917
62286SOL    HW188755   8.104   9.858   7.903
62286SOL    HW288756   7.965   9.847   7.961
62287SOL     OW88757  10.012   3.775   6.308
62287SOL    HW188758   9.926   3.772   6.264
62287SOL    HW288759  10.053   3.692   6.287
62288SOL     OW88760   6.078  13.779  10.873
62288SOL    HW188761   6.159  13.786  10.923
62288SOL    HW288762   6.019  13.729  10.930
62289SOL     OW88763   3.273   9.737  12.954
62289SOL    HW188764   3.283   9.771  13.043
62289SOL    HW288765   3.255   9.644  12.966
62290SOL     OW88766  13.428   7.450   6.395
62290SOL    HW188767  13.427   7.525   6.336
62290SOL    HW288768  13.409   7.487   6.481
62291SOL     OW88769  12.206   8.182   8.405
62291SOL    HW188770  12.142   8.207   8.471
62291SOL    HW288771  12.212   8.087   8.411
62292SOL     OW88772  12.571   0.156   8.983
62292SOL    HW188773  12.557   0.085   8.921
62292SOL    HW288774  12.597   0.112   9.064
62293SOL     OW88775   7.809  10.529   6.865
62293SOL    HW188776   7.722  10.550   6.830
62293SOL    HW288777   7.825  10.595   6.932
62294SOL     OW88778   8.667  13.299   1.514
62294SOL    HW188779   8.695  13.282   1.604
62294SOL    HW288780   8.648  13.393   1.513
62295SOL     OW88781   0.004   0.041   6.271
62295SOL    HW188782  14.834   0.106   6.214
62295SOL    HW288783  14.825  14.834   6.259
62296SOL     OW88784   7.457   8.224  11.641
62296SOL    HW188785   7.525   8.258  11.583
62296SOL    HW288786   7.425   8.301  11.688
62297SOL     OW88787  10.259  14.459  13.485
62297SOL    HW188788  10.341  14.496  13.518
62297SOL    HW288789  10.213  14.431  13.564
62298SOL     OW88790   1.336   9.281  13.080
62298SOL    HW188791   1.384   9.249  13.157
62298SOL    HW288792   1.249   9.303  13.113
62299SOL     OW88793   3.940   3.033  11.502
62299SOL    HW188794   4.024   2.998  11.471
62299SOL    HW288795   3.943   3.126  11.478
62300SOL     OW88796   5.429  12.855   3.085
62300SOL    HW188797   5.468  12.833   3.000
62300SOL    HW288798   5.414  12.949   3.080
62301SOL     OW88799   9.070  11.492  13.723
62301SOL    HW188800   9.112  11.412  13.690
62301SOL    HW288801   8.976  11.471  13.724
62302SOL     OW88802   6.284   5.749  10.548
62302SOL    HW188803   6.305   5.676  10.490
62302SOL    HW288804   6.247   5.816  10.491
62303SOL     OW88805   6.015   9.644   6.401
62303SOL    HW188806   6.054   9.560   6.423
62303SOL    HW288807   5.938   9.650   6.458
62304SOL     OW88808  12.269  13.688   9.791
62304SOL    HW188809  12.205  13.752   9.761
62304SOL    HW288810  12.353  13.732   9.780
62305SOL     OW88811   2.237   7.709  10.358
62305SOL    HW188812   2.161   7.700  10.416
62305SOL    HW288813   2.290   7.778  10.398
62306SOL     OW88814  12.043   6.326   1.893
62306SOL    HW188815  12.050   6.298   1.984
62306SOL    HW288816  12.109   6.394   1.884
62307SOL     OW88817   3.636   9.603   3.566
62307SOL    HW188818   3.614   9.628   3.656
62307SOL    HW288819   3.731   9.614   3.561
62308SOL     OW88820   8.430  10.195   9.261
62308SOL    HW188821   8.501  10.167   9.204
62308SOL    HW288822   8.431  10.291   9.256
62309SOL     OW88823   5.392   3.022   9.873
62309SOL    HW188824   5.366   2.984   9.957
62309SOL    HW288825   5.359   3.112   9.876
62310SOL     OW88826  11.857  10.928   4.686
62310SOL    HW188827  11.763  10.938   4.695
62310SOL    HW288828  11.893  11.011   4.717
62311SOL     OW88829  12.128   4.825   5.168
62311SOL    HW188830  12.200   4.776   5.209
62311SOL    HW288831  12.094   4.765   5.101
62312SOL     OW88832   7.238  10.662   8.808
62312SOL    HW188833   7.292  10.620   8.875
62312SOL    HW288834   7.167  10.703   8.858
62313SOL     OW88835   7.801  13.778  14.292
62313SOL    HW188836   7.748  13.731  14.227
62313SOL    HW288837   7.740  13.799  14.362
62314SOL     OW88838   1.880   9.161   4.800
62314SOL    HW188839   1.965   9.122   4.821
62314SOL    HW288840   1.820   9.087   4.797
62315SOL     OW88841   4.476  14.457  14.202
62315SOL    HW188842   4.529  14.528  14.239
62315SOL    HW288843   4.515  14.440  14.116
62316SOL     OW88844   5.260   9.995   4.672
62316SOL    HW188845   5.291   9.953   4.592
62316SOL    HW288846   5.175  10.033   4.648
62317SOL     OW88847   6.927   6.233  13.921
62317SOL    HW188848   6.960   6.170  13.857
62317SOL    HW288849   6.995   6.235  13.989
62318SOL     OW88850   9.870   3.723   5.910
62318SOL    HW188851   9.863   3.755   6.000
62318SOL    HW288852   9.815   3.783   5.859
62319SOL     OW88853  13.554  10.449   4.678
62319SOL    HW188854  13.496  10.493   4.741
62319SOL    HW288855  13.615  10.518   4.651
62320SOL     OW88856   4.182   7.098   0.990
62320SOL    HW188857   4.125   7.060   1.057
62320SOL    HW288858   4.133   7.174   0.957
62321SOL     OW88859  11.156   3.310   9.477
62321SOL    HW188860  11.215   3.362   9.531
62321SOL    HW288861  11.120   3.245   9.536
62322SOL     OW88862  13.401   9.961   2.185
62322SOL    HW188863  13.448   9.995   2.108
62322SOL    HW288864  13.343   9.894   2.150
62323SOL     OW88865   6.129   3.582   7.633
62323SOL    HW188866   6.054   3.635   7.659
62323SOL    HW288867   6.201   3.645   7.624
62324SOL     OW88868  12.280   8.234   5.305
62324SOL    HW188869  12.250   8.319   5.338
62324SOL    HW288870  12.203   8.196   5.263
62325SOL     OW88871   0.287  14.534   8.641
62325SOL    HW188872   0.288  14.629   8.655
62325SOL    HW288873   0.346  14.520   8.567
62326SOL     OW88874  13.393  13.198   9.575
62326SOL    HW188875  13.306  13.236   9.565
62326SOL    HW288876  13.438  13.221   9.493
62327SOL     OW88877   3.190   7.992   5.313
62327SOL    HW188878   3.189   8.068   5.371
62327SOL    HW288879   3.108   7.946   5.333
62328SOL     OW88880   0.299  12.292  14.409
62328SOL    HW188881   0.253  12.216  14.373
62328SOL    HW288882   0.383  12.293  14.364
62329SOL     OW88883   0.470  13.557  12.769
62329SOL    HW188884   0.386  13.512  12.774
62329SOL    HW288885   0.475  13.587  12.678
62330SOL     OW88886   7.282  10.705   5.891
62330SOL    HW188887   7.244  10.767   5.830
62330SOL    HW288888   7.281  10.621   5.844
62331SOL     OW88889   2.545   4.171   0.097
62331SOL    HW188890   2.463   4.205   0.061
62331SOL    HW288891   2.517   4.101   0.157
62332SOL     OW88892  11.378   7.522  13.940
62332SOL    HW188893  11.310   7.475  13.988
62332SOL    HW288894  11.460   7.485  13.972
62333SOL     OW88895   2.366   2.715   4.726
62333SOL    HW188896   2.460   2.712   4.745
62333SOL    HW288897   2.324   2.712   4.812
62334SOL     OW88898   4.015   8.046   2.273
62334SOL    HW188899   4.044   7.985   2.341
62334SOL    HW288900   3.947   8.099   2.316
62335SOL     OW88901   6.945   3.629   3.291
62335SOL    HW188902   6.851   3.647   3.299
62335SOL    HW288903   6.987   3.705   3.331
62336SOL     OW88904  13.156  14.165   6.536
62336SOL    HW188905  13.085  14.216   6.576
62336SOL    HW288906  13.226  14.228   6.524
62337SOL     OW88907  13.629  10.226   6.771
62337SOL    HW188908  13.567  10.210   6.699
62337SOL    HW288909  13.676  10.143   6.781
62338SOL     OW88910  12.481   7.532   3.487
62338SOL    HW188911  12.397   7.566   3.455
62338SOL    HW288912  12.467   7.514   3.579
62339SOL     OW88913  12.197   3.625   9.879
62339SOL    HW188914  12.146   3.700   9.909
62339SOL    HW288915  12.239   3.655   9.798
62340SOL     OW88916   0.333   4.801   6.004
62340SOL    HW188917   0.254   4.809   5.951
62340SOL    HW288918   0.382   4.881   5.987
62341SOL     OW88919   0.743   6.701   5.260
62341SOL    HW188920   0.712   6.610   5.257
62341SOL    HW288921   0.779   6.717   5.173
62342SOL     OW88922   9.591   0.190   6.754
62342SOL    HW188923   9.595   0.280   6.788
62342SOL    HW288924   9.547   0.140   6.823
62343SOL     OW88925   8.315  12.014   6.081
62343SOL    HW188926   8.408  12.006   6.100
62343SOL    HW288927   8.275  12.035   6.166
62344SOL     OW88928   5.223  10.819   6.524
62344SOL    HW188929   5.296  10.758   6.524
62344SOL    HW288930   5.173  10.798   6.445
62345SOL     OW88931   3.066   6.396   8.177
62345SOL    HW188932   3.066   6.491   8.169
62345SOL    HW288933   3.143   6.377   8.231
62346SOL     OW88934   3.728   0.310   3.160
62346SOL    HW188935   3.747   0.216   3.167
62346SOL    HW288936   3.658   0.315   3.095
62347SOL     OW88937   2.373  12.315   0.588
62347SOL    HW188938   2.379  12.288   0.680
62347SOL    HW288939   2.365  12.232   0.540
62348SOL     OW88940   4.688   5.428   0.827
62348SOL    HW188941   4.629   5.446   0.754
62348SOL    HW288942   4.774   5.413   0.786
62349SOL     OW88943   1.850   7.778  12.254
62349SOL    HW188944   1.888   7.837  12.189
62349SOL    HW288945   1.900   7.796  12.334
62350SOL     OW88946  14.368   2.950  12.708
62350SOL    HW188947  14.339   3.038  12.684
62350SOL    HW288948  14.357   2.899  12.628
62351SOL     OW88949  13.928   3.897   7.183
62351SOL    HW188950  13.869   3.850   7.124
62351SOL    HW288951  13.955   3.975   7.133
62352SOL     OW88952   7.628   3.885  10.358
62352SOL    HW188953   7.587   3.888  10.272
62352SOL    HW288954   7.574   3.943  10.412
62353SOL     OW88955   8.227  12.958  11.886
62353SOL    HW188956   8.218  13.050  11.860
62353SOL    HW288957   8.267  12.961  11.973
62354SOL     OW88958   1.660   6.827  12.101
62354SOL    HW188959   1.621   6.903  12.143
62354SOL    HW288960   1.687   6.858  12.014
62355SOL     OW88961   8.176  10.975   6.001
62355SOL    HW188962   8.144  11.040   6.064
62355SOL    HW288963   8.131  10.997   5.920
62356SOL     OW88964   6.527   9.551   6.675
62356SOL    HW188965   6.519   9.501   6.756
62356SOL    HW288966   6.620   9.544   6.651
62357SOL     OW88967   6.386   0.059   2.940
62357SOL    HW188968   6.315   0.052   2.876
62357SOL    HW288969   6.343   0.093   3.018
62358SOL     OW88970   2.521   5.361  14.754
62358SOL    HW188971   2.474   5.280  14.735
62358SOL    HW288972   2.550   5.393  14.668
62359SOL     OW88973   9.942   8.828   5.798
62359SOL    HW188974   9.868   8.843   5.857
62359SOL    HW288975   9.906   8.844   5.710
62360SOL     OW88976   9.716   7.217   1.083
62360SOL    HW188977   9.735   7.191   1.174
62360SOL    HW288978   9.669   7.300   1.091
62361SOL     OW88979   8.588   9.084   6.300
62361SOL    HW188980   8.565   9.006   6.350
62361SOL    HW288981   8.518   9.093   6.235
62362SOL     OW88982  14.004  13.280   9.545
62362SOL    HW188983  13.990  13.317   9.632
62362SOL    HW288984  14.070  13.336   9.505
62363SOL     OW88985   5.418  11.172  10.815
62363SOL    HW188986   5.365  11.140  10.743
62363SOL    HW288987   5.358  11.181  10.889
62364SOL     OW88988  10.931   1.649   9.705
62364SOL    HW188989  10.928   1.628   9.612
62364SOL    HW288990  10.889   1.573   9.747
62365SOL     OW88991   5.158  13.292   0.217
62365SOL    HW188992   5.152  13.202   0.249
62365SOL    HW288993   5.224  13.289   0.148
62366SOL     OW88994  14.594   1.728   4.633
62366SOL    HW188995  14.617   1.818   4.655
62366SOL    HW288996  14.607   1.679   4.714
62367SOL     OW88997  12.923   3.929   9.248
62367SOL    HW188998  12.986   3.862   9.221
62367SOL    HW288999  12.908   3.913   9.341
62368SOL     OW89000   0.698   1.853   8.525
62368SOL    HW189001   0.665   1.935   8.489
62368SOL    HW289002   0.752   1.880   8.600
62369SOL     OW89003  10.019   5.472   5.230
62369SOL    HW189004  10.042   5.565   5.239
62369SOL    HW289005  10.055   5.447   5.145
62370SOL     OW89006   4.245   6.121   3.545
62370SOL    HW189007   4.204   6.177   3.611
62370SOL    HW289008   4.315   6.076   3.591
62371SOL     OW89009   0.922   1.147   8.164
62371SOL    HW189010   0.983   1.073   8.157
62371SOL    HW289011   0.871   1.129   8.244
62372SOL     OW89012   0.527   1.271  10.630
62372SOL    HW189013   0.509   1.190  10.678
62372SOL    HW289014   0.592   1.246  10.564
62373SOL     OW89015  11.040   8.221   5.254
62373SOL    HW189016  11.040   8.223   5.159
62373SOL    HW289017  11.030   8.312   5.281
62374SOL     OW89018  13.896  11.689   6.876
62374SOL    HW189019  13.935  11.756   6.931
62374SOL    HW289020  13.887  11.730   6.790
62375SOL     OW89021  10.086  10.315   5.222
62375SOL    HW189022   9.996  10.346   5.208
62375SOL    HW289023  10.115  10.361   5.301
62376SOL     OW89024   9.818  13.597   9.482
62376SOL    HW189025   9.804  13.576   9.574
62376SOL    HW289026   9.739  13.644   9.455
62377SOL     OW89027   0.431  11.547   0.478
62377SOL    HW189028   0.504  11.596   0.440
62377SOL    HW289029   0.405  11.597   0.555
62378SOL     OW89030  10.847  10.035   2.358
62378SOL    HW189031  10.779  10.058   2.421
62378SOL    HW289032  10.801   9.984   2.291
62379SOL     OW89033   6.025  13.088   6.775
62379SOL    HW189034   5.947  13.085   6.721
62379SOL    HW289035   6.092  13.042   6.724
62380SOL     OW89036   0.051   7.623   8.230
62380SOL    HW189037   0.039   7.718   8.230
62380SOL    HW289038  14.837   7.588   8.207
62381SOL     OW89039   1.974   5.564   4.642
62381SOL    HW189040   1.931   5.481   4.618
62381SOL    HW289041   2.007   5.549   4.731
62382SOL     OW89042   5.186  12.334   9.806
62382SOL    HW189043   5.119  12.373   9.861
62382SOL    HW289044   5.201  12.247   9.844
62383SOL     OW89045   3.203   1.940   4.515
62383SOL    HW189046   3.119   1.927   4.471
62383SOL    HW289047   3.216   2.035   4.514
62384SOL     OW89048   2.871  10.864   7.544
62384SOL    HW189049   2.948  10.919   7.558
62384SOL    HW289050   2.808  10.893   7.610
62385SOL     OW89051   6.426  11.779  11.699
62385SOL    HW189052   6.366  11.817  11.635
62385SOL    HW289053   6.441  11.848  11.762
62386SOL     OW89054   4.808   0.390   4.234
62386SOL    HW189055   4.850   0.362   4.154
62386SOL    HW289056   4.797   0.485   4.223
62387SOL     OW89057   9.867   4.469  12.711
62387SOL    HW189058   9.785   4.442  12.754
62387SOL    HW289059   9.860   4.565  12.705
62388SOL     OW89060  14.157  11.127  13.721
62388SOL    HW189061  14.237  11.073  13.728
62388SOL    HW289062  14.087  11.067  13.747
62389SOL     OW89063  14.743  13.908  12.524
62389SOL    HW189064  14.680  13.961  12.573
62389SOL    HW289065  14.772  13.841  12.586
62390SOL     OW89066  10.429   0.726   3.050
62390SOL    HW189067  10.474   0.662   2.996
62390SOL    HW289068  10.462   0.710   3.139
62391SOL     OW89069   4.373   4.905   7.723
62391SOL    HW189070   4.370   4.894   7.818
62391SOL    HW289071   4.296   4.957   7.703
62392SOL     OW89072   0.676  12.232   6.567
62392SOL    HW189073   0.634  12.316   6.586
62392SOL    HW289074   0.616  12.188   6.508
62393SOL     OW89075   6.417   1.915   4.032
62393SOL    HW189076   6.409   2.009   4.052
62393SOL    HW289077   6.395   1.909   3.939
62394SOL     OW89078   4.466   1.103   0.149
62394SOL    HW189079   4.551   1.062   0.168
62394SOL    HW289080   4.422   1.041   0.090
62395SOL     OW89081   0.755  13.217   6.991
62395SOL    HW189082   0.726  13.251   7.076
62395SOL    HW289083   0.795  13.133   7.010
62396SOL     OW89084   2.956  14.373   0.956
62396SOL    HW189085   3.041  14.353   0.915
62396SOL    HW289086   2.952  14.315   1.032
62397SOL     OW89087  12.012  14.557   3.898
62397SOL    HW189088  12.072  14.579   3.826
62397SOL    HW289089  12.061  14.497   3.953
62398SOL     OW89090   9.426   4.661   0.977
62398SOL    HW189091   9.504   4.652   1.032
62398SOL    HW289092   9.392   4.748   0.997
62399SOL     OW89093   5.842  12.786   7.165
62399SOL    HW189094   5.817  12.878   7.167
62399SOL    HW289095   5.902  12.775   7.239
62400SOL     OW89096   9.804   9.483   4.434
62400SOL    HW189097   9.712   9.462   4.422
62400SOL    HW289098   9.848   9.398   4.441
62401SOL     OW89099  10.539   5.417  10.408
62401SOL    HW189100  10.454   5.403  10.368
62401SOL    HW289101  10.597   5.356  10.364
62402SOL     OW89102  12.572   8.836  12.987
62402SOL    HW189103  12.583   8.795  13.073
62402SOL    HW289104  12.477   8.832  12.971
62403SOL     OW89105   2.437   8.051   8.181
62403SOL    HW189106   2.526   8.028   8.156
62403SOL    HW289107   2.434   8.146   8.178
62404SOL     OW89108   0.844   2.393   8.287
62404SOL    HW189109   0.776   2.388   8.354
62404SOL    HW289110   0.915   2.338   8.321
62405SOL     OW89111  10.074   1.610   6.494
62405SOL    HW189112  10.064   1.628   6.587
62405SOL    HW289113  10.162   1.639   6.472
62406SOL     OW89114   8.077  13.968   4.087
62406SOL    HW189115   8.018  13.918   4.031
62406SOL    HW289116   8.161  13.923   4.078
62407SOL     OW89117  11.288   8.524   1.870
62407SOL    HW189118  11.311   8.603   1.820
62407SOL    HW289119  11.373   8.489   1.898
62408SOL     OW89120  14.672  11.883  11.181
62408SOL    HW189121  14.652  11.974  11.206
62408SOL    HW289122  14.748  11.861  11.234
62409SOL     OW89123   0.167   2.732  14.283
62409SOL    HW189124   0.263   2.726  14.282
62409SOL    HW289125   0.149   2.826  14.290
62410SOL     OW89126   3.813   3.073   5.292
62410SOL    HW189127   3.746   3.005   5.294
62410SOL    HW289128   3.842   3.075   5.201
62411SOL     OW89129   0.006   4.094   8.875
62411SOL    HW189130  14.807   4.086   8.811
62411SOL    HW289131   0.032   4.186   8.871
62412SOL     OW89132   1.817  11.010  11.879
62412SOL    HW189133   1.814  11.007  11.783
62412SOL    HW289134   1.751  10.946  11.906
62413SOL     OW89135  14.693   0.771  12.084
62413SOL    HW189136  14.731   0.688  12.054
62413SOL    HW289137  14.727   0.782  12.173
62414SOL     OW89138   9.304   4.307   4.525
62414SOL    HW189139   9.233   4.359   4.488
62414SOL    HW289140   9.266   4.268   4.604
62415SOL     OW89141   9.266   2.310   6.766
62415SOL    HW189142   9.181   2.265   6.768
62415SOL    HW289143   9.285   2.323   6.673
62416SOL     OW89144  10.343   2.851   3.107
62416SOL    HW189145  10.267   2.873   3.161
62416SOL    HW289146  10.313   2.777   3.054
62417SOL     OW89147  11.657   1.783  12.067
62417SOL    HW189148  11.734   1.729  12.084
62417SOL    HW289149  11.666   1.856  12.129
62418SOL     OW89150   2.472   0.815   1.361
62418SOL    HW189151   2.391   0.858   1.387
62418SOL    HW289152   2.533   0.887   1.345
62419SOL     OW89153   7.804  12.179  10.982
62419SOL    HW189154   7.720  12.222  10.993
62419SOL    HW289155   7.846  12.226  10.910
62420SOL     OW89156   2.302   0.285   4.976
62420SOL    HW189157   2.228   0.328   4.933
62420SOL    HW289158   2.352   0.247   4.905
62421SOL     OW89159   5.689   5.852   8.175
62421SOL    HW189160   5.719   5.932   8.132
62421SOL    HW289161   5.657   5.796   8.104
62422SOL     OW89162  11.478   5.705   4.136
62422SOL    HW189163  11.523   5.651   4.200
62422SOL    HW289164  11.535   5.782   4.125
62423SOL     OW89165   2.013   4.265  11.211
62423SOL    HW189166   2.102   4.249  11.179
62423SOL    HW289167   1.972   4.318  11.143
62424SOL     OW89168   9.326   6.058   5.478
62424SOL    HW189169   9.305   5.976   5.434
62424SOL    HW289170   9.418   6.049   5.504
62425SOL     OW89171   1.748  13.852  14.403
62425SOL    HW189172   1.711  13.859  14.491
62425SOL    HW289173   1.685  13.897  14.347
62426SOL     OW89174   5.691   0.797  12.759
62426SOL    HW189175   5.695   0.883  12.801
62426SOL    HW289176   5.633   0.746  12.816
62427SOL     OW89177   3.232  12.791   4.215
62427SOL    HW189178   3.178  12.859   4.174
62427SOL    HW289179   3.248  12.728   4.145
62428SOL     OW89180   1.805   3.119   1.260
62428SOL    HW189181   1.897   3.116   1.236
62428SOL    HW289182   1.764   3.174   1.193
62429SOL     OW89183   9.067   6.361   6.226
62429SOL    HW189184   9.057   6.349   6.320
62429SOL    HW289185   9.124   6.289   6.199
62430SOL     OW89186   0.949  13.065   4.503
62430SOL    HW189187   1.036  13.089   4.536
62430SOL    HW289188   0.919  13.142   4.455
62431SOL     OW89189   6.744   4.911  11.856
62431SOL    HW189190   6.754   4.995  11.901
62431SOL    HW289191   6.776   4.929  11.767
62432SOL     OW89192   4.869  13.282   3.379
62432SOL    HW189193   4.776  13.289   3.399
62432SOL    HW289194   4.884  13.345   3.309
62433SOL     OW89195   1.043   3.524   4.996
62433SOL    HW189196   1.076   3.614   4.994
62433SOL    HW289197   0.960   3.528   4.949
62434SOL     OW89198   0.172   0.571  14.175
62434SOL    HW189199   0.150   0.598  14.264
62434SOL    HW289200   0.267   0.575  14.171
62435SOL     OW89201   3.944  12.222   3.854
62435SOL    HW189202   3.957  12.142   3.906
62435SOL    HW289203   3.861  12.207   3.808
62436SOL     OW89204  13.881   3.448  13.911
62436SOL    HW189205  13.875   3.367  13.962
62436SOL    HW289206  13.952   3.432  13.849
62437SOL     OW89207   8.579   2.522   5.342
62437SOL    HW189208   8.567   2.445   5.286
62437SOL    HW289209   8.500   2.526   5.396
62438SOL     OW89210   1.634   0.920  10.521
62438SOL    HW189211   1.542   0.893  10.513
62438SOL    HW289212   1.630   1.011  10.551
62439SOL     OW89213  10.121  14.309  12.149
62439SOL    HW189214  10.048  14.247  12.155
62439SOL    HW289215  10.085  14.391  12.183
62440SOL     OW89216   1.869  14.708   0.520
62440SOL    HW189217   1.934  14.778   0.515
62440SOL    HW289218   1.916  14.630   0.493
62441SOL     OW89219   8.409   9.229   2.494
62441SOL    HW189220   8.350   9.247   2.568
62441SOL    HW289221   8.427   9.135   2.500
62442SOL     OW89222   9.313   5.175  12.210
62442SOL    HW189223   9.360   5.210  12.134
62442SOL    HW289224   9.271   5.096  12.178
62443SOL     OW89225  11.880   4.370   6.569
62443SOL    HW189226  11.923   4.444   6.613
62443SOL    HW289227  11.803   4.351   6.623
62444SOL     OW89228  11.472   3.250   9.687
62444SOL    HW189229  11.440   3.232   9.775
62444SOL    HW289230  11.484   3.164   9.648
62445SOL     OW89231  13.072   6.666  12.598
62445SOL    HW189232  13.093   6.733  12.663
62445SOL    HW289233  12.984   6.637  12.621
62446SOL     OW89234  12.751   2.793   0.727
62446SOL    HW189235  12.804   2.781   0.648
62446SOL    HW289236  12.752   2.708   0.770
62447SOL     OW89237  14.720  14.753   8.440
62447SOL    HW189238  14.806  14.724   8.411
62447SOL    HW289239  14.738  14.823   8.503
62448SOL     OW89240  11.118   2.023  10.921
62448SOL    HW189241  11.089   1.969  10.994
62448SOL    HW289242  11.211   2.040  10.939
62449SOL     OW89243  12.663   9.438   0.963
62449SOL    HW189244  12.588   9.462   1.017
62449SOL    HW289245  12.731   9.415   1.026
62450SOL     OW89246  13.470  12.670   4.036
62450SOL    HW189247  13.513  12.705   3.957
62450SOL    HW289248  13.382  12.647   4.007
62451SOL     OW89249   8.426   6.716   9.667
62451SOL    HW189250   8.391   6.627   9.675
62451SOL    HW289251   8.379   6.767   9.732
62452SOL     OW89252  12.250  13.286  10.566
62452SOL    HW189253  12.316  13.255  10.505
62452SOL    HW289254  12.267  13.380  10.574
62453SOL     OW89255   2.662  14.456   0.701
62453SOL    HW189256   2.640  14.374   0.745
62453SOL    HW289257   2.580  14.505   0.700
62454SOL     OW89258   7.829   9.021   5.626
62454SOL    HW189259   7.770   8.946   5.624
62454SOL    HW289260   7.826   9.057   5.538
62455SOL     OW89261   3.078   0.700   8.121
62455SOL    HW189262   3.055   0.679   8.030
62455SOL    HW289263   3.052   0.622   8.171
62456SOL     OW89264  10.699   1.948   4.438
62456SOL    HW189265  10.635   1.884   4.408
62456SOL    HW289266  10.649   2.028   4.450
62457SOL     OW89267  13.754   1.357  12.896
62457SOL    HW189268  13.778   1.334  12.986
62457SOL    HW289269  13.800   1.292  12.842
62458SOL     OW89270   1.580  10.949  14.484
62458SOL    HW189271   1.538  10.934  14.569
62458SOL    HW289272   1.620  11.036  14.492
62459SOL     OW89273   3.821   4.717   6.542
62459SOL    HW189274   3.831   4.622   6.533
62459SOL    HW289275   3.910   4.752   6.533
62460SOL     OW89276   7.894   1.545  12.400
62460SOL    HW189277   7.852   1.585  12.323
62460SOL    HW289278   7.858   1.457  12.403
62461SOL     OW89279  13.900  12.937  13.087
62461SOL    HW189280  13.877  12.845  13.080
62461SOL    HW289281  13.947  12.957  13.006
62462SOL     OW89282  13.930  12.262   0.742
62462SOL    HW189283  13.851  12.266   0.795
62462SOL    HW289284  13.924  12.178   0.695
62463SOL     OW89285   1.048   2.822   8.573
62463SOL    HW189286   1.095   2.740   8.558
62463SOL    HW289287   1.019   2.816   8.664
62464SOL     OW89288  14.577   0.429  13.189
62464SOL    HW189289  14.593   0.369  13.262
62464SOL    HW289290  14.655   0.422  13.135
62465SOL     OW89291   7.640   0.389   1.083
62465SOL    HW189292   7.554   0.398   1.125
62465SOL    HW289293   7.676   0.309   1.121
62466SOL     OW89294   4.081   9.692  13.469
62466SOL    HW189295   4.028   9.628  13.516
62466SOL    HW289296   4.143   9.639  13.418
62467SOL     OW89297  10.292   7.894   1.690
62467SOL    HW189298  10.231   7.968   1.682
62467SOL    HW289299  10.378   7.935   1.694
62468SOL     OW89300  12.244   8.968   1.650
62468SOL    HW189301  12.179   9.003   1.589
62468SOL    HW289302  12.314   9.032   1.651
62469SOL     OW89303   0.539   2.659  10.723
62469SOL    HW189304   0.564   2.574  10.760
62469SOL    HW289305   0.531   2.643  10.629
62470SOL     OW89306   9.940  14.074   9.913
62470SOL    HW189307   9.992  14.154   9.928
62470SOL    HW289308   9.899  14.088   9.827
62471SOL     OW89309  13.101  11.611  14.732
62471SOL    HW189310  13.106  11.592  14.639
62471SOL    HW289311  13.172  11.559  14.771
62472SOL     OW89312  10.374   7.903   0.050
62472SOL    HW189313  10.292   7.856   0.037
62472SOL    HW289314  10.411   7.911  14.834
62473SOL     OW89315   4.791   5.552  12.779
62473SOL    HW189316   4.844   5.472  12.787
62473SOL    HW289317   4.837   5.616  12.833
62474SOL     OW89318   5.885   2.333   5.002
62474SOL    HW189319   5.871   2.239   5.005
62474SOL    HW289320   5.799   2.372   5.015
62475SOL     OW89321   0.645   3.136   8.251
62475SOL    HW189322   0.651   3.130   8.346
62475SOL    HW289323   0.651   3.229   8.232
62476SOL     OW89324   8.592  11.183   8.303
62476SOL    HW189325   8.523  11.186   8.236
62476SOL    HW289326   8.589  11.270   8.343
62477SOL     OW89327  11.211  13.458   0.051
62477SOL    HW189328  11.174  13.481  14.839
62477SOL    HW289329  11.148  13.491   0.115
62478SOL     OW89330   5.944   7.173   3.050
62478SOL    HW189331   5.976   7.246   3.103
62478SOL    HW289332   5.871   7.209   3.000
62479SOL     OW89333   1.362  14.005   0.080
62479SOL    HW189334   1.387  13.912   0.085
62479SOL    HW289335   1.426  14.043   0.020
62480SOL     OW89336  11.983   1.549   9.617
62480SOL    HW189337  11.914   1.616   9.617
62480SOL    HW289338  12.045   1.579   9.684
62481SOL     OW89339   9.852   5.510   8.113
62481SOL    HW189340   9.903   5.453   8.056
62481SOL    HW289341   9.844   5.462   8.196
62482SOL     OW89342  10.945  12.526  12.292
62482SOL    HW189343  10.934  12.576  12.373
62482SOL    HW289344  10.870  12.551  12.239
62483SOL     OW89345   0.542   1.621  11.698
62483SOL    HW189346   0.629   1.592  11.672
62483SOL    HW289347   0.554   1.660  11.785
62484SOL     OW89348   6.682   1.575   7.786
62484SOL    HW189349   6.590   1.553   7.802
62484SOL    HW289350   6.731   1.508   7.833
62485SOL     OW89351   6.758  12.433   7.421
62485SOL    HW189352   6.829  12.495   7.437
62485SOL    HW289353   6.678  12.483   7.440
62486SOL     OW89354   3.918   8.613   5.364
62486SOL    HW189355   3.934   8.521   5.341
62486SOL    HW289356   3.859   8.609   5.439
62487SOL     OW89357   1.802   3.710  10.432
62487SOL    HW189358   1.718   3.716  10.386
62487SOL    HW289359   1.779   3.677  10.519
62488SOL     OW89360   1.666   9.261   4.998
62488SOL    HW189361   1.642   9.254   5.090
62488SOL    HW289362   1.761   9.270   4.998
62489SOL     OW89363  11.780   3.751   0.113
62489SOL    HW189364  11.758   3.743   0.020
62489SOL    HW289365  11.804   3.662   0.139
62490SOL     OW89366  12.323   8.775   1.831
62490SOL    HW189367  12.395   8.837   1.843
62490SOL    HW289368  12.288   8.797   1.744
62491SOL     OW89369   2.664   5.744   7.396
62491SOL    HW189370   2.707   5.659   7.387
62491SOL    HW289371   2.571   5.724   7.396
62492SOL     OW89372   7.203  14.121   8.731
62492SOL    HW189373   7.286  14.076   8.721
62492SOL    HW289374   7.139  14.064   8.689
62493SOL     OW89375   5.549   3.463   0.429
62493SOL    HW189376   5.543   3.436   0.338
62493SOL    HW289377   5.546   3.559   0.426
62494SOL     OW89378  10.160   3.644   4.845
62494SOL    HW189379  10.147   3.676   4.756
62494SOL    HW289380  10.071   3.627   4.877
62495SOL     OW89381  13.213   3.102  13.247
62495SOL    HW189382  13.226   3.012  13.275
62495SOL    HW289383  13.199   3.097  13.153
62496SOL     OW89384   0.965   4.612   4.101
62496SOL    HW189385   1.045   4.626   4.050
62496SOL    HW289386   0.895   4.603   4.036
62497SOL     OW89387   0.363   3.431  11.468
62497SOL    HW189388   0.373   3.336  11.473
62497SOL    HW289389   0.409   3.464  11.546
62498SOL     OW89390   4.681  13.160   9.321
62498SOL    HW189391   4.774  13.140   9.321
62498SOL    HW289392   4.658  13.167   9.414
62499SOL     OW89393  13.710   9.786  14.855
62499SOL    HW189394  13.684   9.755  14.768
62499SOL    HW289395  13.639   9.757   0.041
62500SOL     OW89396  13.116  13.295  12.509
62500SOL    HW189397  13.144  13.273  12.420
62500SOL    HW289398  13.147  13.385  12.522
62501SOL     OW89399  12.301   2.877   0.951
62501SOL    HW189400  12.269   2.963   0.924
62501SOL    HW289401  12.346   2.892   1.034
62502SOL     OW89402   8.806  12.954   4.622
62502SOL    HW189403   8.841  12.905   4.549
62502SOL    HW289404   8.882  12.998   4.661
62503SOL     OW89405   4.300  10.099   0.156
62503SOL    HW189406   4.263  10.151   0.227
62503SOL    HW289407   4.363  10.041   0.198
62504SOL     OW89408   6.402   2.073  10.863
62504SOL    HW189409   6.343   2.148  10.871
62504SOL    HW289410   6.461   2.095  10.792
62505SOL     OW89411   0.723  14.628   1.705
62505SOL    HW189412   0.745  14.588   1.789
62505SOL    HW289413   0.627  14.620   1.700
62506SOL     OW89414   4.398   1.542  13.832
62506SOL    HW189415   4.455   1.468  13.848
62506SOL    HW289416   4.359   1.525  13.746
62507SOL     OW89417   0.519  11.622  12.730
62507SOL    HW189418   0.469  11.553  12.686
62507SOL    HW289419   0.536  11.687  12.661
62508SOL     OW89420   1.699   0.387  12.251
62508SOL    HW189421   1.728   0.376  12.342
62508SOL    HW289422   1.694   0.298  12.217
62509SOL     OW89423   5.684   5.704  13.804
62509SOL    HW189424   5.752   5.771  13.793
62509SOL    HW289425   5.713   5.653  13.879
62510SOL     OW89426   2.327  13.779   8.671
62510SOL    HW189427   2.250  13.753   8.721
62510SOL    HW289428   2.401  13.760   8.730
62511SOL     OW89429   2.823  13.420  13.318
62511SOL    HW189430   2.864  13.451  13.237
62511SOL    HW289431   2.773  13.343  13.292
62512SOL     OW89432   6.727   7.954   7.174
62512SOL    HW189433   6.659   8.011   7.137
62512SOL    HW289434   6.752   7.997   7.256
62513SOL     OW89435  11.940  13.531  10.614
62513SOL    HW189436  12.011  13.476  10.581
62513SOL    HW289437  11.967  13.556  10.702
62514SOL     OW89438   0.863   2.959  13.898
62514SOL    HW189439   0.884   2.872  13.865
62514SOL    HW289440   0.813   3.000  13.828
62515SOL     OW89441   2.174   7.579   9.187
62515SOL    HW189442   2.151   7.583   9.280
62515SOL    HW289443   2.091   7.591   9.142
62516SOL     OW89444   8.897   6.145   3.038
62516SOL    HW189445   8.867   6.095   3.113
62516SOL    HW289446   8.851   6.107   2.963
62517SOL     OW89447  10.137   9.465  10.038
62517SOL    HW189448  10.232   9.459  10.032
62517SOL    HW289449  10.121   9.487  10.130
62518SOL     OW89450  12.136   3.170   2.945
62518SOL    HW189451  12.121   3.075   2.946
62518SOL    HW289452  12.199   3.185   3.015
62519SOL     OW89453   3.833   9.067  11.834
62519SOL    HW189454   3.779   9.137  11.797
62519SOL    HW289455   3.804   9.060  11.925
62520SOL     OW89456   3.643  13.403   5.853
62520SOL    HW189457   3.680  13.476   5.802
62520SOL    HW289458   3.707  13.387   5.922
62521SOL     OW89459   1.982   0.240   1.313
62521SOL    HW189460   1.948   0.164   1.267
62521SOL    HW289461   1.908   0.301   1.315
62522SOL     OW89462  11.989   9.900   7.493
62522SOL    HW189463  12.033   9.916   7.577
62522SOL    HW289464  11.896   9.899   7.515
62523SOL     OW89465  14.292  12.486   3.714
62523SOL    HW189466  14.358  12.422   3.688
62523SOL    HW289467  14.313  12.507   3.805
62524SOL     OW89468   9.357   8.747  14.026
62524SOL    HW189469   9.394   8.780  13.944
62524SOL    HW289470   9.344   8.826  14.079
62525SOL     OW89471   3.715  11.685   7.909
62525SOL    HW189472   3.684  11.735   7.985
62525SOL    HW289473   3.785  11.738   7.873
62526SOL     OW89474   3.699   0.178   8.334
62526SOL    HW189475   3.617   0.163   8.287
62526SOL    HW289476   3.700   0.272   8.353
62527SOL     OW89477   8.323   4.817   3.636
62527SOL    HW189478   8.355   4.728   3.646
62527SOL    HW289479   8.233   4.815   3.671
62528SOL     OW89480   4.316   3.910   2.322
62528SOL    HW189481   4.273   3.996   2.317
62528SOL    HW289482   4.409   3.930   2.313
62529SOL     OW89483   8.592   0.287  13.627
62529SOL    HW189484   8.683   0.265  13.607
62529SOL    HW289485   8.547   0.203  13.636
62530SOL     OW89486   3.338   6.432   2.631
62530SOL    HW189487   3.386   6.502   2.676
62530SOL    HW289488   3.344   6.453   2.538
62531SOL     OW89489   3.333  14.004  14.623
62531SOL    HW189490   3.427  13.998  14.604
62531SOL    HW289491   3.309  13.916  14.651
62532SOL     OW89492   4.269   2.554   0.265
62532SOL    HW189493   4.283   2.620   0.197
62532SOL    HW289494   4.175   2.558   0.283
62533SOL     OW89495   5.750   9.101  10.120
62533SOL    HW189496   5.761   9.032  10.185
62533SOL    HW289497   5.832   9.151  10.124
62534SOL     OW89498  12.762   9.443  12.122
62534SOL    HW189499  12.795   9.360  12.088
62534SOL    HW289500  12.800   9.509  12.063
62535SOL     OW89501   0.244  11.960   5.589
62535SOL    HW189502   0.164  11.942   5.539
62535SOL    HW289503   0.264  11.877   5.632
62536SOL     OW89504  14.077  14.034   7.928
62536SOL    HW189505  14.006  14.016   7.989
62536SOL    HW289506  14.157  14.011   7.976
62537SOL     OW89507  11.260  13.811   5.077
62537SOL    HW189508  11.270  13.864   4.998
62537SOL    HW289509  11.346  13.811   5.118
62538SOL     OW89510   7.447   2.851   5.537
62538SOL    HW189511   7.489   2.766   5.523
62538SOL    HW289512   7.355   2.831   5.550
62539SOL     OW89513  12.862   2.680   8.700
62539SOL    HW189514  12.902   2.713   8.619
62539SOL    HW289515  12.860   2.756   8.759
62540SOL     OW89516   4.625   5.760   5.021
62540SOL    HW189517   4.695   5.712   5.066
62540SOL    HW289518   4.671   5.827   4.970
62541SOL     OW89519  10.544   1.779   6.911
62541SOL    HW189520  10.532   1.761   6.818
62541SOL    HW289521  10.638   1.765   6.927
62542SOL     OW89522  14.143   2.222   0.811
62542SOL    HW189523  14.180   2.173   0.738
62542SOL    HW289524  14.214   2.230   0.874
62543SOL     OW89525   7.797  12.797   3.675
62543SOL    HW189526   7.786  12.798   3.580
62543SOL    HW289527   7.883  12.757   3.688
62544SOL     OW89528   3.823  12.539   6.670
62544SOL    HW189529   3.823  12.611   6.733
62544SOL    HW289530   3.774  12.469   6.713
62545SOL     OW89531   9.746  10.582   0.061
62545SOL    HW189532   9.714  10.548   0.145
62545SOL    HW289533   9.674  10.565   0.000
62546SOL     OW89534   2.016  10.860   6.320
62546SOL    HW189535   2.022  10.952   6.296
62546SOL    HW289536   2.076  10.849   6.393
62547SOL     OW89537  12.870  14.593   7.331
62547SOL    HW189538  12.834  14.671   7.372
62547SOL    HW289539  12.885  14.618   7.240
62548SOL     OW89540   2.191   4.380  10.993
62548SOL    HW189541   2.251   4.305  10.992
62548SOL    HW289542   2.224   4.436  11.063
62549SOL     OW89543   4.715   4.976   0.785
62549SOL    HW189544   4.744   4.893   0.822
62549SOL    HW289545   4.710   5.035   0.861
62550SOL     OW89546   5.266   3.622   0.247
62550SOL    HW189547   5.194   3.685   0.248
62550SOL    HW289548   5.224   3.537   0.238
62551SOL     OW89549  11.289   3.033   7.848
62551SOL    HW189550  11.284   2.980   7.769
62551SOL    HW289551  11.370   3.083   7.839
62552SOL     OW89552   6.587   0.558   1.072
62552SOL    HW189553   6.679   0.578   1.090
62552SOL    HW289554   6.542   0.571   1.156
62553SOL     OW89555   8.446   6.731  12.386
62553SOL    HW189556   8.415   6.645  12.417
62553SOL    HW289557   8.367   6.774  12.353
62554SOL     OW89558   4.069  10.416   2.222
62554SOL    HW189559   4.013  10.475   2.171
62554SOL    HW289560   4.013  10.385   2.293
62555SOL     OW89561  12.128  10.443   5.380
62555SOL    HW189562  12.174  10.410   5.457
62555SOL    HW289563  12.164  10.394   5.306
62556SOL     OW89564   9.525   8.045   7.191
62556SOL    HW189565   9.512   7.953   7.212
62556SOL    HW289566   9.476   8.059   7.110
62557SOL     OW89567  14.342   1.345   4.170
62557SOL    HW189568  14.405   1.273   4.165
62557SOL    HW289569  14.260   1.303   4.195
62558SOL     OW89570  14.734  14.055  13.781
62558SOL    HW189571  14.676  14.127  13.803
62558SOL    HW289572  14.812  14.097  13.745
62559SOL     OW89573   4.812  11.866   7.951
62559SOL    HW189574   4.840  11.916   8.027
62559SOL    HW289575   4.716  11.867   7.956
62560SOL     OW89576  11.419   6.962  11.075
62560SOL    HW189577  11.484   6.974  11.006
62560SOL    HW289578  11.350   6.910  11.034
62561SOL     OW89579   2.333   4.352   2.159
62561SOL    HW189580   2.338   4.448   2.158
62561SOL    HW289581   2.424   4.323   2.160
62562SOL     OW89582  10.618  13.778   2.721
62562SOL    HW189583  10.608  13.872   2.729
62562SOL    HW289584  10.565  13.741   2.791
62563SOL     OW89585  14.079  11.129   7.044
62563SOL    HW189586  13.989  11.096   7.041
62563SOL    HW289587  14.130  11.057   7.081
62564SOL     OW89588   4.195   9.077   0.207
62564SOL    HW189589   4.164   8.991   0.236
62564SOL    HW289590   4.264   9.057   0.143
62565SOL     OW89591  11.462   2.424   4.032
62565SOL    HW189592  11.450   2.517   4.053
62565SOL    HW289593  11.459   2.380   4.116
62566SOL     OW89594  13.106   8.113   0.043
62566SOL    HW189595  13.059   8.072   0.116
62566SOL    HW289596  13.081   8.205   0.047
62567SOL     OW89597   7.357  14.117   7.193
62567SOL    HW189598   7.315  14.108   7.108
62567SOL    HW289599   7.446  14.083   7.181
62568SOL     OW89600   1.672  10.277   8.195
62568SOL    HW189601   1.583  10.305   8.216
62568SOL    HW289602   1.711  10.353   8.151
62569SOL     OW89603  13.440   5.876  10.688
62569SOL    HW189604  13.358   5.922  10.672
62569SOL    HW289605  13.493   5.893  10.610
62570SOL     OW89606   6.148   1.766  13.878
62570SOL    HW189607   6.174   1.857  13.889
62570SOL    HW289608   6.155   1.729  13.966
62571SOL     OW89609   2.760   8.898   8.576
62571SOL    HW189610   2.768   8.987   8.611
62571SOL    HW289611   2.817   8.897   8.499
62572SOL     OW89612   3.752   3.836  12.805
62572SOL    HW189613   3.666   3.829  12.846
62572SOL    HW289614   3.785   3.747  12.803
62573SOL     OW89615  13.650  12.474  14.862
62573SOL    HW189616  13.724  12.414   0.000
62573SOL    HW289617  13.689  12.562  14.867
62574SOL     OW89618  13.801   0.213   2.768
62574SOL    HW189619  13.819   0.307   2.763
62574SOL    HW289620  13.884   0.175   2.797
62575SOL     OW89621  14.234   4.452  12.003
62575SOL    HW189622  14.190   4.451  12.088
62575SOL    HW289623  14.261   4.361  11.989
62576SOL     OW89624  13.438  14.493   3.561
62576SOL    HW189625  13.350  14.458   3.572
62576SOL    HW289626  13.496  14.420   3.583
62577SOL     OW89627   1.830   9.279   7.754
62577SOL    HW189628   1.774   9.290   7.830
62577SOL    HW289629   1.828   9.364   7.710
62578SOL     OW89630   2.377   2.785  11.736
62578SOL    HW189631   2.387   2.743  11.821
62578SOL    HW289632   2.344   2.873  11.756
62579SOL     OW89633   1.261  14.836   2.488
62579SOL    HW189634   1.174  14.862   2.460
62579SOL    HW289635   1.246  14.777   2.562
62580SOL     OW89636  11.389  11.646   3.617
62580SOL    HW189637  11.389  11.570   3.559
62580SOL    HW289638  11.308  11.637   3.668
62581SOL     OW89639  13.576   2.723   8.704
62581SOL    HW189640  13.671   2.732   8.696
62581SOL    HW289641  13.563   2.646   8.759
62582SOL     OW89642  12.494   1.538  13.419
62582SOL    HW189643  12.541   1.467  13.376
62582SOL    HW289644  12.522   1.617  13.374
62583SOL     OW89645  13.495   7.507   2.039
62583SOL    HW189646  13.485   7.442   1.969
62583SOL    HW289647  13.532   7.458   2.112
62584SOL     OW89648  12.080   2.643   6.387
62584SOL    HW189649  12.040   2.707   6.447
62584SOL    HW289650  12.025   2.646   6.309
62585SOL     OW89651   2.008   7.814   2.284
62585SOL    HW189652   1.976   7.864   2.209
62585SOL    HW289653   1.970   7.859   2.360
62586SOL     OW89654   9.345   7.191   2.368
62586SOL    HW189655   9.440   7.183   2.374
62586SOL    HW289656   9.331   7.266   2.310
62587SOL     OW89657   3.759   8.204  10.177
62587SOL    HW189658   3.803   8.146  10.239
62587SOL    HW289659   3.812   8.199  10.098
62588SOL     OW89660   5.851   0.460   5.823
62588SOL    HW189661   5.897   0.376   5.819
62588SOL    HW289662   5.758   0.437   5.829
62589SOL     OW89663   6.690   3.963   9.464
62589SOL    HW189664   6.709   4.025   9.535
62589SOL    HW289665   6.764   3.974   9.404
62590SOL     OW89666   1.955   4.675   2.843
62590SOL    HW189667   1.892   4.688   2.772
62590SOL    HW289668   1.932   4.590   2.881
62591SOL     OW89669   1.537   5.747   1.105
62591SOL    HW189670   1.595   5.762   1.030
62591SOL    HW289671   1.578   5.795   1.177
62592SOL     OW89672  10.383   2.848   9.283
62592SOL    HW189673  10.457   2.850   9.344
62592SOL    HW289674  10.312   2.891   9.330
62593SOL     OW89675   7.887   5.979  11.914
62593SOL    HW189676   7.842   5.930  11.845
62593SOL    HW289677   7.933   6.049  11.868
62594SOL     OW89678   5.570   2.734   7.570
62594SOL    HW189679   5.494   2.719   7.514
62594SOL    HW289680   5.619   2.651   7.567
62595SOL     OW89681   4.755  10.775  13.693
62595SOL    HW189682   4.793  10.844  13.748
62595SOL    HW289683   4.697  10.822  13.633
62596SOL     OW89684   4.328   3.435  14.147
62596SOL    HW189685   4.324   3.340  14.160
62596SOL    HW289686   4.339   3.445  14.052
62597SOL     OW89687   2.104  10.461   6.825
62597SOL    HW189688   2.128  10.541   6.778
62597SOL    HW289689   2.170  10.397   6.800
62598SOL     OW89690   2.812  11.566   3.122
62598SOL    HW189691   2.734  11.608   3.157
62598SOL    HW289692   2.867  11.639   3.092
62599SOL     OW89693   7.589   1.744  13.114
62599SOL    HW189694   7.639   1.825  13.102
62599SOL    HW289695   7.516   1.770  13.170
62600SOL     OW89696   1.971   9.453   5.053
62600SOL    HW189697   1.924   9.524   5.098
62600SOL    HW289698   1.983   9.486   4.964
62601SOL     OW89699   7.340   2.525  10.802
62601SOL    HW189700   7.273   2.470  10.761
62601SOL    HW289701   7.321   2.520  10.895
62602SOL     OW89702  12.143   0.891  10.300
62602SOL    HW189703  12.158   0.855  10.213
62602SOL    HW289704  12.230   0.909  10.335
62603SOL     OW89705   8.670   1.467  13.600
62603SOL    HW189706   8.727   1.421  13.661
62603SOL    HW289707   8.719   1.546  13.577
62604SOL     OW89708   7.159   5.502  10.027
62604SOL    HW189709   7.198   5.580  10.067
62604SOL    HW289710   7.195   5.429  10.078
62605SOL     OW89711  11.068   3.873  14.839
62605SOL    HW189712  11.129   3.802  14.856
62605SOL    HW289713  11.042   3.862  14.748
62606SOL     OW89714  10.075  11.446   5.649
62606SOL    HW189715  10.054  11.357   5.619
62606SOL    HW289716  10.106  11.434   5.738
62607SOL     OW89717  13.542  11.905   4.768
62607SOL    HW189718  13.531  11.997   4.791
62607SOL    HW289719  13.532  11.903   4.672
62608SOL     OW89720   3.585  10.311   7.240
62608SOL    HW189721   3.538  10.380   7.287
62608SOL    HW289722   3.673  10.314   7.276
62609SOL     OW89723  12.671   3.661  10.041
62609SOL    HW189724  12.766   3.646  10.039
62609SOL    HW289725  12.651   3.702   9.957
62610SOL     OW89726   4.974  12.244   1.789
62610SOL    HW189727   4.949  12.296   1.713
62610SOL    HW289728   4.914  12.273   1.858
62611SOL     OW89729  12.895   8.134   4.564
62611SOL    HW189730  12.887   8.175   4.479
62611SOL    HW289731  12.849   8.193   4.624
62612SOL     OW89732  12.804   0.863   4.016
62612SOL    HW189733  12.743   0.820   3.957
62612SOL    HW289734  12.750   0.892   4.090
62613SOL     OW89735   7.823   9.383   3.571
62613SOL    HW189736   7.800   9.302   3.527
62613SOL    HW289737   7.861   9.438   3.502
62614SOL     OW89738   4.444   5.243   3.689
62614SOL    HW189739   4.373   5.192   3.651
62614SOL    HW289740   4.488   5.284   3.615
62615SOL     OW89741  10.863  14.857  10.117
62615SOL    HW189742  10.942  14.855  10.064
62615SOL    HW289743  10.845  14.766  10.137
62616SOL     OW89744   4.154  10.014  13.879
62616SOL    HW189745   4.093   9.953  13.839
62616SOL    HW289746   4.209   9.960  13.935
62617SOL     OW89747   6.136   0.755   4.798
62617SOL    HW189748   6.168   0.810   4.726
62617SOL    HW289749   6.189   0.676   4.793
62618SOL     OW89750   9.328  14.299  12.501
62618SOL    HW189751   9.320  14.307  12.406
62618SOL    HW289752   9.411  14.340  12.522
62619SOL     OW89753  11.578   0.695  13.504
62619SOL    HW189754  11.621   0.701  13.419
62619SOL    HW289755  11.513   0.766  13.502
62620SOL     OW89756   6.117  12.660   5.465
62620SOL    HW189757   6.065  12.609   5.403
62620SOL    HW289758   6.059  12.674   5.539
62621SOL     OW89759   2.379   6.948   7.995
62621SOL    HW189760   2.289   6.979   7.988
62621SOL    HW289761   2.371   6.855   8.016
62622SOL     OW89762   1.804   0.834   1.697
62622SOL    HW189763   1.825   0.915   1.650
62622SOL    HW289764   1.714   0.814   1.670
62623SOL     OW89765  11.595   2.290   9.310
62623SOL    HW189766  11.549   2.333   9.238
62623SOL    HW289767  11.688   2.308   9.292
62624SOL     OW89768   5.656  14.215  14.150
62624SOL    HW189769   5.661  14.270  14.072
62624SOL    HW289770   5.676  14.274  14.223
62625SOL     OW89771  14.167  11.714   3.345
62625SOL    HW189772  14.169  11.688   3.253
62625SOL    HW289773  14.256  11.745   3.363
62626SOL     OW89774   6.145   4.656  12.271
62626SOL    HW189775   6.206   4.656  12.198
62626SOL    HW289776   6.196   4.689  12.345
62627SOL     OW89777   5.639  13.114   4.398
62627SOL    HW189778   5.693  13.109   4.477
62627SOL    HW289779   5.670  13.192   4.352
62628SOL     OW89780   3.956   6.288  13.132
62628SOL    HW189781   4.022   6.220  13.146
62628SOL    HW289782   3.928   6.275  13.041
62629SOL     OW89783   0.149  12.412   3.836
62629SOL    HW189784   0.173  12.420   3.929
62629SOL    HW289785   0.228  12.437   3.789
62630SOL     OW89786   2.856   7.263   8.709
62630SOL    HW189787   2.803   7.270   8.630
62630SOL    HW289788   2.909   7.343   8.710
62631SOL     OW89789   7.725   5.477   5.831
62631SOL    HW189790   7.767   5.411   5.776
62631SOL    HW289791   7.743   5.560   5.785
62632SOL     OW89792  10.022   3.717   1.531
62632SOL    HW189793   9.967   3.666   1.591
62632SOL    HW289794  10.107   3.673   1.535
62633SOL     OW89795   1.953   4.062  11.942
62633SOL    HW189796   1.971   4.113  11.864
62633SOL    HW289797   2.038   4.054  11.986
62634SOL     OW89798   1.385   4.204   0.915
62634SOL    HW189799   1.329   4.154   0.856
62634SOL    HW289800   1.474   4.186   0.884
62635SOL     OW89801   4.409  12.182  11.478
62635SOL    HW189802   4.419  12.091  11.450
62635SOL    HW289803   4.491  12.202  11.523
62636SOL     OW89804   3.076   3.654  14.787
62636SOL    HW189805   3.123   3.571  14.799
62636SOL    HW289806   3.145   3.717  14.768
62637SOL     OW89807  11.511  10.388  13.522
62637SOL    HW189808  11.537  10.296  13.533
62637SOL    HW289809  11.444  10.402  13.590
62638SOL     OW89810   9.284   9.159   0.304
62638SOL    HW189811   9.360   9.203   0.342
62638SOL    HW289812   9.263   9.210   0.225
62639SOL     OW89813  12.015   2.126   6.042
62639SOL    HW189814  12.104   2.127   6.006
62639SOL    HW289815  12.003   2.214   6.078
62640SOL     OW89816   3.108   2.092   2.092
62640SOL    HW189817   3.133   2.168   2.144
62640SOL    HW289818   3.093   2.023   2.156
62641SOL     OW89819   8.754   4.365   8.918
62641SOL    HW189820   8.670   4.350   8.875
62641SOL    HW289821   8.811   4.398   8.849
62642SOL     OW89822   7.074   5.267   8.253
62642SOL    HW189823   7.058   5.357   8.281
62642SOL    HW289824   7.167   5.252   8.270
62643SOL     OW89825  12.208   7.229  14.718
62643SOL    HW189826  12.122   7.188  14.705
62643SOL    HW289827  12.245   7.183  14.793
62644SOL     OW89828  12.657  11.836   6.254
62644SOL    HW189829  12.649  11.905   6.320
62644SOL    HW289830  12.573  11.790   6.255
62645SOL     OW89831   1.234  13.422   5.118
62645SOL    HW189832   1.320  13.389   5.089
62645SOL    HW289833   1.205  13.359   5.183
62646SOL     OW89834   2.002   2.438   6.847
62646SOL    HW189835   2.062   2.464   6.777
62646SOL    HW289836   2.006   2.510   6.910
62647SOL     OW89837   5.083  11.676  14.609
62647SOL    HW189838   5.146  11.643  14.672
62647SOL    HW289839   5.000  11.634  14.633
62648SOL     OW89840   3.959   9.545   4.694
62648SOL    HW189841   4.052   9.532   4.678
62648SOL    HW289842   3.925   9.579   4.612
62649SOL     OW89843   6.042   3.295   2.233
62649SOL    HW189844   6.101   3.325   2.163
62649SOL    HW289845   5.976   3.363   2.240
62650SOL     OW89846  11.134   5.860  11.220
62650SOL    HW189847  11.165   5.899  11.138
62650SOL    HW289848  11.075   5.790  11.192
62651SOL     OW89849   3.743   5.314  14.579
62651SOL    HW189850   3.651   5.309  14.605
62651SOL    HW289851   3.745   5.275  14.492
62652SOL     OW89852   9.162   6.891   7.126
62652SOL    HW189853   9.243   6.932   7.094
62652SOL    HW289854   9.141   6.939   7.206
62653SOL     OW89855  13.836   2.504  10.918
62653SOL    HW189856  13.882   2.523  10.836
62653SOL    HW289857  13.821   2.410  10.915
62654SOL     OW89858   2.420  12.758  14.270
62654SOL    HW189859   2.386  12.844  14.249
62654SOL    HW289860   2.396  12.744  14.362
62655SOL     OW89861   3.547   3.039   3.317
62655SOL    HW189862   3.630   2.992   3.327
62655SOL    HW289863   3.572   3.131   3.320
62656SOL     OW89864  14.560   1.200   5.542
62656SOL    HW189865  14.581   1.285   5.504
62656SOL    HW289866  14.513   1.153   5.472
62657SOL     OW89867   6.892   6.503   9.920
62657SOL    HW189868   6.813   6.451   9.931
62657SOL    HW289869   6.936   6.463   9.844
62658SOL     OW89870   3.752  13.491  12.068
62658SOL    HW189871   3.735  13.436  11.991
62658SOL    HW289872   3.670  13.539  12.081
62659SOL     OW89873   6.283  10.545   8.067
62659SOL    HW189874   6.369  10.582   8.044
62659SOL    HW289875   6.276  10.557   8.161
62660SOL     OW89876   0.822   9.743   0.136
62660SOL    HW189877   0.756   9.750   0.068
62660SOL    HW289878   0.903   9.725   0.090
62661SOL     OW89879   4.585  10.689  13.115
62661SOL    HW189880   4.588  10.621  13.048
62661SOL    HW289881   4.563  10.769  13.067
62662SOL     OW89882  14.664   6.096   6.200
62662SOL    HW189883  14.587   6.040   6.186
62662SOL    HW289884  14.712   6.091   6.117
62663SOL     OW89885   5.836   2.977   8.982
62663SOL    HW189886   5.835   2.988   8.887
62663SOL    HW289887   5.929   2.972   9.004
62664SOL     OW89888   6.875   2.103  13.254
62664SOL    HW189889   6.824   2.036  13.300
62664SOL    HW289890   6.946   2.125  13.315
62665SOL     OW89891  11.452   9.406   7.838
62665SOL    HW189892  11.475   9.372   7.752
62665SOL    HW289893  11.400   9.485   7.820
62666SOL     OW89894   8.387   5.441   7.412
62666SOL    HW189895   8.306   5.399   7.440
62666SOL    HW289896   8.456   5.380   7.440
62667SOL     OW89897   4.599  13.078  12.374
62667SOL    HW189898   4.617  13.045  12.462
62667SOL    HW289899   4.663  13.033  12.318
62668SOL     OW89900   5.969  12.592   2.634
62668SOL    HW189901   6.033  12.642   2.685
62668SOL    HW289902   5.884  12.612   2.674
62669SOL     OW89903  13.286  14.659  13.402
62669SOL    HW189904  13.195  14.631  13.415
62669SOL    HW289905  13.335  14.611  13.469
62670SOL     OW89906   3.391  10.810  13.801
62670SOL    HW189907   3.343  10.803  13.884
62670SOL    HW289908   3.385  10.903  13.779
62671SOL     OW89909   4.335   2.294   2.812
62671SOL    HW189910   4.418   2.287   2.766
62671SOL    HW289911   4.334   2.384   2.845
62672SOL     OW89912   1.265  14.397   9.444
62672SOL    HW189913   1.220  14.361   9.368
62672SOL    HW289914   1.254  14.331   9.513
62673SOL     OW89915   9.848   0.714  11.041
62673SOL    HW189916   9.860   0.654  10.967
62673SOL    HW289917   9.885   0.797  11.012
62674SOL     OW89918   5.188  11.906  11.590
62674SOL    HW189919   5.106  11.943  11.621
62674SOL    HW289920   5.162  11.828  11.541
62675SOL     OW89921   0.118   4.535  10.165
62675SOL    HW189922   0.123   4.444  10.135
62675SOL    HW289923   0.045   4.572  10.116
62676SOL     OW89924   5.031   2.579   1.155
62676SOL    HW189925   5.092   2.542   1.219
62676SOL    HW289926   5.004   2.503   1.102
62677SOL     OW89927   9.665  14.143   2.053
62677SOL    HW189928   9.690  14.231   2.081
62677SOL    HW289929   9.606  14.157   1.979
62678SOL     OW89930   8.126   9.318   8.829
62678SOL    HW189931   8.218   9.298   8.849
62678SOL    HW289932   8.120   9.310   8.734
62679SOL     OW89933   3.581   5.154   1.741
62679SOL    HW189934   3.538   5.103   1.810
62679SOL    HW289935   3.623   5.227   1.788
62680SOL     OW89936   4.710   9.538   3.419
62680SOL    HW189937   4.802   9.565   3.407
62680SOL    HW289938   4.697   9.470   3.353
62681SOL     OW89939  13.470   4.406  12.480
62681SOL    HW189940  13.512   4.488  12.506
62681SOL    HW289941  13.383   4.433  12.449
62682SOL     OW89942  12.744   0.801   7.428
62682SOL    HW189943  12.820   0.780   7.481
62682SOL    HW289944  12.781   0.838   7.347
62683SOL     OW89945   8.390   9.243   5.856
62683SOL    HW189946   8.371   9.182   5.928
62683SOL    HW289947   8.364   9.329   5.891
62684SOL     OW89948  10.248   7.708  11.853
62684SOL    HW189949  10.254   7.620  11.891
62684SOL    HW289950  10.257   7.767  11.927
62685SOL     OW89951   5.231   6.588   5.849
62685SOL    HW189952   5.233   6.501   5.810
62685SOL    HW289953   5.248   6.574   5.942
62686SOL     OW89954  12.935   3.890  11.071
62686SOL    HW189955  12.916   3.960  11.009
62686SOL    HW289956  12.927   3.809  11.019
62687SOL     OW89957   9.241  12.079   8.780
62687SOL    HW189958   9.216  11.987   8.767
62687SOL    HW289959   9.226  12.120   8.695
62688SOL     OW89960   4.345   5.548   4.507
62688SOL    HW189961   4.318   5.601   4.581
62688SOL    HW289962   4.363   5.611   4.437
62689SOL     OW89963   9.059  14.706   2.266
62689SOL    HW189964   9.076  14.689   2.359
62689SOL    HW289965   9.024  14.623   2.233
62690SOL     OW89966   0.930   7.389   6.353
62690SOL    HW189967   1.013   7.410   6.396
62690SOL    HW289968   0.956   7.354   6.267
62691SOL     OW89969  11.722   3.057  11.976
62691SOL    HW189970  11.668   3.022  12.048
62691SOL    HW289971  11.714   3.152  11.984
62692SOL     OW89972  14.267   8.391   6.599
62692SOL    HW189973  14.292   8.471   6.552
62692SOL    HW289974  14.280   8.413   6.691
62693SOL     OW89975   6.240   3.570   0.745
62693SOL    HW189976   6.166   3.512   0.728
62693SOL    HW289977   6.201   3.650   0.781
62694SOL     OW89978   6.392  12.028   0.186
62694SOL    HW189979   6.357  11.940   0.178
62694SOL    HW289980   6.428  12.048   0.100
62695SOL     OW89981  10.691   9.532  14.538
62695SOL    HW189982  10.671   9.570  14.623
62695SOL    HW289983  10.779   9.563  14.518
62696SOL     OW89984  10.942   1.290   3.610
62696SOL    HW189985  10.917   1.199   3.593
62696SOL    HW289986  10.981   1.288   3.697
62697SOL     OW89987  11.887   7.943  10.807
62697SOL    HW189988  11.963   7.968  10.860
62697SOL    HW289989  11.902   7.851  10.785
62698SOL     OW89990   0.167  11.688   3.011
62698SOL    HW189991   0.097  11.750   2.989
62698SOL    HW289992   0.158  11.675   3.106
62699SOL     OW89993   3.132   4.144   3.090
62699SOL    HW189994   3.189   4.171   3.018
62699SOL    HW289995   3.175   4.177   3.168
62700SOL     OW89996   5.137  10.956   0.326
62700SOL    HW189997   5.084  10.908   0.262
62700SOL    HW289998   5.073  11.009   0.374
62701SOL     OW89999  12.568   0.190  10.533
62701SOL    HW190000  12.571   0.283  10.553
62701SOL    HW290001  12.636   0.151  10.587
62702SOL     OW90002   3.596  11.618  11.861
62702SOL    HW190003   3.538  11.691  11.838
62702SOL    HW290004   3.658  11.613  11.788
62703SOL     OW90005  13.526   9.272   4.338
62703SOL    HW190006  13.493   9.219   4.411
62703SOL    HW290007  13.454   9.333   4.320
62704SOL     OW90008   9.036  13.039   9.063
62704SOL    HW190009   9.040  12.985   9.142
62704SOL    HW290010   9.110  13.009   9.010
62705SOL     OW90011   9.654  14.747  11.261
62705SOL    HW190012   9.581  14.691  11.285
62705SOL    HW290013   9.705  14.696  11.198
62706SOL     OW90014   3.541   2.344   6.693
62706SOL    HW190015   3.487   2.356   6.615
62706SOL    HW290016   3.610   2.284   6.665
62707SOL     OW90017   9.114  12.141  10.237
62707SOL    HW190018   9.074  12.224  10.263
62707SOL    HW290019   9.136  12.098  10.320
62708SOL     OW90020   1.377  11.007  11.802
62708SOL    HW190021   1.425  11.007  11.719
62708SOL    HW290022   1.340  11.095  11.808
62709SOL     OW90023   4.644  10.639   5.588
62709SOL    HW190024   4.737  10.618   5.592
62709SOL    HW290025   4.603  10.560   5.553
62710SOL     OW90026  11.200  12.624   3.090
62710SOL    HW190027  11.191  12.540   3.045
62710SOL    HW290028  11.237  12.602   3.176
62711SOL     OW90029   4.608  14.558   9.486
62711SOL    HW190030   4.553  14.564   9.564
62711SOL    HW290031   4.548  14.533   9.416
62712SOL     OW90032   4.165   1.382  10.929
62712SOL    HW190033   4.216   1.460  10.948
62712SOL    HW290034   4.214   1.338  10.859
62713SOL     OW90035   3.709  14.239   0.317
62713SOL    HW190036   3.766  14.208   0.387
62713SOL    HW290037   3.760  14.307   0.273
62714SOL     OW90038   2.213  14.327  13.393
62714SOL    HW190039   2.145  14.305  13.329
62714SOL    HW290040   2.289  14.276  13.365
62715SOL     OW90041  12.535   3.142   2.606
62715SOL    HW190042  12.534   3.211   2.540
62715SOL    HW290043  12.599   3.079   2.575
62716SOL     OW90044   7.413   2.937   1.021
62716SOL    HW190045   7.348   2.889   1.072
62716SOL    HW290046   7.496   2.917   1.064
62717SOL     OW90047   4.133   3.460   3.961
62717SOL    HW190048   4.154   3.430   3.873
62717SOL    HW290049   4.074   3.394   3.996
62718SOL     OW90050   3.297   2.621   7.666
62718SOL    HW190051   3.319   2.528   7.660
62718SOL    HW290052   3.377   2.663   7.697
62719SOL     OW90053   2.186   1.165  11.889
62719SOL    HW190054   2.167   1.157  11.983
62719SOL    HW290055   2.107   1.206  11.852
62720SOL     OW90056   5.341   7.458  13.830
62720SOL    HW190057   5.386   7.470  13.913
62720SOL    HW290058   5.410   7.443  13.766
62721SOL     OW90059   7.698   5.293  14.365
62721SOL    HW190060   7.762   5.222  14.372
62721SOL    HW290061   7.613   5.249  14.364
62722SOL     OW90062   5.219  13.940   5.615
62722SOL    HW190063   5.259  14.008   5.562
62722SOL    HW290064   5.126  13.945   5.595
62723SOL     OW90065  14.680  14.426   2.124
62723SOL    HW190066  14.763  14.380   2.112
62723SOL    HW290067  14.697  14.514   2.092
62724SOL     OW90068  12.178   4.671   0.353
62724SOL    HW190069  12.214   4.645   0.438
62724SOL    HW290070  12.093   4.627   0.349
62725SOL     OW90071   4.227   0.636   8.874
62725SOL    HW190072   4.264   0.699   8.935
62725SOL    HW290073   4.239   0.551   8.917
62726SOL     OW90074   0.924   1.154   6.163
62726SOL    HW190075   0.895   1.243   6.180
62726SOL    HW290076   0.966   1.126   6.244
62727SOL     OW90077  12.813   5.820  12.313
62727SOL    HW190078  12.740   5.871  12.277
62727SOL    HW290079  12.876   5.886  12.342
62728SOL     OW90080   6.339  14.165   0.959
62728SOL    HW190081   6.274  14.232   0.938
62728SOL    HW290082   6.291  14.082   0.954
62729SOL     OW90083   4.184   7.987   8.166
62729SOL    HW190084   4.252   7.938   8.121
62729SOL    HW290085   4.184   7.952   8.255
62730SOL     OW90086   6.633   4.234  11.026
62730SOL    HW190087   6.654   4.295  10.956
62730SOL    HW290088   6.588   4.287  11.092
62731SOL     OW90089  11.010  13.198   8.311
62731SOL    HW190090  10.968  13.174   8.394
62731SOL    HW290091  11.101  13.215   8.335
62732SOL     OW90092   6.266   8.226   4.834
62732SOL    HW190093   6.229   8.138   4.837
62732SOL    HW290094   6.310   8.237   4.918
62733SOL     OW90095   6.527   1.501  14.291
62733SOL    HW190096   6.556   1.592  14.280
62733SOL    HW290097   6.509   1.471  14.202
62734SOL     OW90098   4.136   0.261   4.794
62734SOL    HW190099   4.179   0.342   4.822
62734SOL    HW290100   4.051   0.263   4.837
62735SOL     OW90101   7.876   8.936   7.324
62735SOL    HW190102   7.860   8.980   7.408
62735SOL    HW290103   7.966   8.961   7.302
62736SOL     OW90104   6.734   3.833   3.237
62736SOL    HW190105   6.665   3.800   3.179
62736SOL    HW290106   6.716   3.927   3.242
62737SOL     OW90107  11.035   4.397  10.805
62737SOL    HW190108  11.033   4.358  10.893
62737SOL    HW290109  11.079   4.331  10.751
62738SOL     OW90110  10.652   6.218  13.106
62738SOL    HW190111  10.711   6.192  13.178
62738SOL    HW290112  10.602   6.291  13.142
62739SOL     OW90113  14.283   6.746   5.648
62739SOL    HW190114  14.198   6.717   5.681
62739SOL    HW290115  14.315   6.673   5.596
62740SOL     OW90116   3.602  14.763  11.439
62740SOL    HW190117   3.529  14.706  11.414
62740SOL    HW290118   3.648  14.716  11.508
62741SOL     OW90119  11.893   7.165   5.701
62741SOL    HW190120  11.899   7.120   5.785
62741SOL    HW290121  11.967   7.226   5.701
62742SOL     OW90122   0.742  13.829  14.027
62742SOL    HW190123   0.793  13.909  14.011
62742SOL    HW290124   0.677  13.827  13.957
62743SOL     OW90125   0.911  10.445   2.750
62743SOL    HW190126   0.989  10.393   2.729
62743SOL    HW290127   0.923  10.469   2.842
62744SOL     OW90128   0.633   6.201  13.812
62744SOL    HW190129   0.574   6.187  13.886
62744SOL    HW290130   0.575   6.223  13.739
62745SOL     OW90131   1.318   0.816  13.014
62745SOL    HW190132   1.237   0.865  12.997
62745SOL    HW290133   1.302   0.770  13.096
62746SOL     OW90134   6.612   8.894   6.966
62746SOL    HW190135   6.530   8.848   6.985
62746SOL    HW290136   6.585   8.985   6.952
62747SOL     OW90137   8.606   1.344   9.897
62747SOL    HW190138   8.545   1.417   9.905
62747SOL    HW290139   8.688   1.384   9.869
62748SOL     OW90140  12.251  11.076  11.593
62748SOL    HW190141  12.178  11.133  11.618
62748SOL    HW290142  12.216  10.987  11.603
62749SOL     OW90143   0.419   3.686   5.653
62749SOL    HW190144   0.456   3.748   5.716
62749SOL    HW290145   0.476   3.693   5.576
62750SOL     OW90146  12.777   7.698   3.274
62750SOL    HW190147  12.775   7.774   3.332
62750SOL    HW290148  12.689   7.696   3.235
62751SOL     OW90149   5.638  11.896   5.170
62751SOL    HW190150   5.707  11.909   5.105
62751SOL    HW290151   5.588  11.978   5.169
62752SOL     OW90152   4.461  11.110   8.291
62752SOL    HW190153   4.392  11.146   8.348
62752SOL    HW290154   4.543  11.138   8.333
62753SOL     OW90155  10.155   2.411  12.227
62753SOL    HW190156  10.192   2.323  12.234
62753SOL    HW290157  10.071   2.406  12.272
62754SOL     OW90158   7.510  11.585   1.808
62754SOL    HW190159   7.472  11.661   1.764
62754SOL    HW290160   7.596  11.615   1.838
62755SOL     OW90161   4.425   8.809   3.532
62755SOL    HW190162   4.451   8.718   3.521
62755SOL    HW290163   4.375   8.809   3.614
62756SOL     OW90164   8.170   2.317   0.495
62756SOL    HW190165   8.163   2.224   0.476
62756SOL    HW290166   8.194   2.321   0.587
62757SOL     OW90167   9.284   6.633  10.568
62757SOL    HW190168   9.341   6.647  10.643
62757SOL    HW290169   9.334   6.664  10.493
62758SOL     OW90170  11.519   5.314   5.849
62758SOL    HW190171  11.482   5.228   5.827
62758SOL    HW290172  11.459   5.376   5.809
62759SOL     OW90173  12.444  11.786  10.477
62759SOL    HW190174  12.403  11.707  10.512
62759SOL    HW290175  12.374  11.852  10.480
62760SOL     OW90176  10.082   8.254  10.072
62760SOL    HW190177  10.115   8.165  10.058
62760SOL    HW290178  10.161   8.308  10.082
62761SOL     OW90179   7.701   9.117   2.010
62761SOL    HW190180   7.676   9.028   1.984
62761SOL    HW290181   7.635   9.173   1.971
62762SOL     OW90182   0.879   6.136   6.983
62762SOL    HW190183   0.828   6.064   6.944
62762SOL    HW290184   0.813   6.191   7.025
62763SOL     OW90185  10.542   2.152   4.450
62763SOL    HW190186  10.456   2.112   4.454
62763SOL    HW290187  10.534   2.220   4.383
62764SOL     OW90188   0.408   5.738   6.821
62764SOL    HW190189   0.420   5.828   6.790
62764SOL    HW290190   0.482   5.722   6.879
62765SOL     OW90191   1.909   3.797   0.675
62765SOL    HW190192   1.970   3.818   0.746
62765SOL    HW290193   1.824   3.828   0.706
62766SOL     OW90194   5.155  13.581   6.397
62766SOL    HW190195   5.219  13.598   6.465
62766SOL    HW290196   5.201  13.599   6.315
62767SOL     OW90197  11.267   4.114  14.194
62767SOL    HW190198  11.253   4.116  14.099
62767SOL    HW290199  11.247   4.202  14.224
62768SOL     OW90200  11.890  13.083   7.542
62768SOL    HW190201  11.849  12.998   7.555
62768SOL    HW290202  11.962  13.085   7.605
62769SOL     OW90203   8.976   2.381   4.950
62769SOL    HW190204   8.926   2.453   4.911
62769SOL    HW290205   9.056   2.376   4.898
62770SOL     OW90206  10.223  12.406   0.878
62770SOL    HW190207  10.158  12.395   0.947
62770SOL    HW290208  10.237  12.500   0.874
62771SOL     OW90209   7.593  11.103  13.321
62771SOL    HW190210   7.516  11.149  13.287
62771SOL    HW290211   7.593  11.019  13.275
62772SOL     OW90212  11.160  10.364   3.176
62772SOL    HW190213  11.123  10.404   3.097
62772SOL    HW290214  11.085  10.333   3.226
62773SOL     OW90215   3.102   1.901  12.824
62773SOL    HW190216   3.065   1.860  12.746
62773SOL    HW290217   3.100   1.994  12.806
62774SOL     OW90218  10.721   2.861   0.710
62774SOL    HW190219  10.715   2.788   0.771
62774SOL    HW290220  10.815   2.882   0.707
62775SOL     OW90221  12.607  13.275  14.248
62775SOL    HW190222  12.610  13.316  14.162
62775SOL    HW290223  12.602  13.347  14.310
62776SOL     OW90224   1.718   8.042  10.825
62776SOL    HW190225   1.720   8.073  10.915
62776SOL    HW290226   1.695   8.119  10.773
62777SOL     OW90227  10.903  14.673   4.097
62777SOL    HW190228  10.957  14.594   4.095
62777SOL    HW290229  10.831  14.654   4.037
62778SOL     OW90230   0.798   5.531   0.387
62778SOL    HW190231   0.834   5.457   0.437
62778SOL    HW290232   0.873   5.588   0.371
62779SOL     OW90233  13.108   5.721  10.891
62779SOL    HW190234  13.080   5.806  10.857
62779SOL    HW290235  13.181   5.740  10.950
62780SOL     OW90236   2.390   9.092   6.532
62780SOL    HW190237   2.312   9.129   6.488
62780SOL    HW290238   2.462   9.113   6.473
62781SOL     OW90239   9.099  12.121   2.835
62781SOL    HW190240   9.170  12.104   2.897
62781SOL    HW290241   9.115  12.210   2.805
62782SOL     OW90242  14.542  11.472  11.473
62782SOL    HW190243  14.570  11.542  11.533
62782SOL    HW290244  14.464  11.436  11.515
62783SOL     OW90245  14.458   2.702   4.889
62783SOL    HW190246  14.423   2.702   4.800
62783SOL    HW290247  14.395   2.651   4.939
62784SOL     OW90248   9.638   7.699   0.256
62784SOL    HW190249   9.635   7.604   0.268
62784SOL    HW290250   9.585   7.735   0.328
62785SOL     OW90251   6.230   4.679   6.133
62785SOL    HW190252   6.266   4.699   6.220
62785SOL    HW290253   6.250   4.756   6.081
62786SOL     OW90254  11.561   8.068   9.918
62786SOL    HW190255  11.654   8.079   9.935
62786SOL    HW290256  11.518   8.091  10.001
62787SOL     OW90257  12.607   1.362  10.152
62787SOL    HW190258  12.533   1.301  10.156
62787SOL    HW290259  12.664   1.325  10.085
62788SOL     OW90260   9.821   0.018  12.864
62788SOL    HW190261   9.824   0.106  12.903
62788SOL    HW290262   9.899  14.847  12.897
62789SOL     OW90263   6.118  12.817   4.914
62789SOL    HW190264   6.130  12.843   5.005
62789SOL    HW290265   6.139  12.724   4.912
62790SOL     OW90266  13.978   9.325   1.868
62790SOL    HW190267  13.909   9.387   1.843
62790SOL    HW290268  14.002   9.351   1.957
62791SOL     OW90269  12.160   1.185   0.619
62791SOL    HW190270  12.208   1.112   0.657
62791SOL    HW290271  12.089   1.203   0.681
62792SOL     OW90272   9.992  12.352   2.339
62792SOL    HW190273   9.928  12.386   2.276
62792SOL    HW290274  10.077  12.374   2.300
62793SOL     OW90275   3.236   6.952  12.005
62793SOL    HW190276   3.296   6.878  12.013
62793SOL    HW290277   3.271   7.018  12.065
62794SOL     OW90278   4.175   4.748  13.661
62794SOL    HW190279   4.265   4.720  13.650
62794SOL    HW290280   4.160   4.811  13.590
62795SOL     OW90281   9.011   4.522   9.702
62795SOL    HW190282   8.970   4.594   9.653
62795SOL    HW290283   9.055   4.470   9.634
62796SOL     OW90284   3.534   7.579   3.189
62796SOL    HW190285   3.507   7.605   3.277
62796SOL    HW290286   3.474   7.508   3.165
62797SOL     OW90287   3.671  10.200   5.163
62797SOL    HW190288   3.634  10.149   5.091
62797SOL    HW290289   3.598  10.211   5.224
62798SOL     OW90290   8.395  12.782   4.560
62798SOL    HW190291   8.483  12.796   4.596
62798SOL    HW290292   8.370  12.694   4.589
62799SOL     OW90293   5.179  13.959   2.075
62799SOL    HW190294   5.231  13.880   2.061
62799SOL    HW290295   5.125  13.967   1.997
62800SOL     OW90296   6.147   0.037  14.610
62800SOL    HW190297   6.196   0.111  14.575
62800SOL    HW290298   6.064   0.076  14.641
62801SOL     OW90299   0.209   2.965   0.628
62801SOL    HW190300   0.276   2.949   0.562
62801SOL    HW290301   0.126   2.946   0.584
62802SOL     OW90302   8.797  10.900  14.633
62802SOL    HW190303   8.839  10.819  14.605
62802SOL    HW290304   8.730  10.872  14.696
62803SOL     OW90305   7.801  14.336   3.517
62803SOL    HW190306   7.771  14.426   3.526
62803SOL    HW290307   7.762  14.306   3.435
62804SOL     OW90308   5.640   8.914   1.700
62804SOL    HW190309   5.585   8.992   1.694
62804SOL    HW290310   5.722   8.945   1.739
62805SOL     OW90311   0.697  14.609   1.112
62805SOL    HW190312   0.625  14.599   1.174
62805SOL    HW290313   0.759  14.540   1.134
62806SOL     OW90314  14.443  10.911   8.097
62806SOL    HW190315  14.424  10.822   8.067
62806SOL    HW290316  14.363  10.940   8.141
62807SOL     OW90317   2.993   1.028  13.460
62807SOL    HW190318   3.028   1.071  13.538
62807SOL    HW290319   2.919   1.083  13.433
62808SOL     OW90320   4.946   0.974   5.238
62808SOL    HW190321   4.950   0.885   5.274
62808SOL    HW290322   4.864   0.976   5.189
62809SOL     OW90323  12.227   7.620   3.386
62809SOL    HW190324  12.221   7.714   3.365
62809SOL    HW290325  12.137   7.588   3.380
62810SOL     OW90326   3.099  13.199   4.414
62810SOL    HW190327   3.079  13.158   4.498
62810SOL    HW290328   3.194  13.209   4.414
62811SOL     OW90329   2.490   3.099   5.250
62811SOL    HW190330   2.423   3.165   5.265
62811SOL    HW290331   2.535   3.090   5.334
62812SOL     OW90332  12.714  14.379   3.263
62812SOL    HW190333  12.770  14.301   3.261
62812SOL    HW290334  12.724  14.414   3.352
62813SOL     OW90335   5.889  12.439   5.624
62813SOL    HW190336   5.815  12.401   5.671
62813SOL    HW290337   5.933  12.364   5.584
62814SOL     OW90338   1.087   5.729   1.248
62814SOL    HW190339   1.148   5.661   1.218
62814SOL    HW290340   1.141   5.788   1.300
62815SOL     OW90341   9.188  11.965  13.875
62815SOL    HW190342   9.196  11.910  13.797
62815SOL    HW290343   9.260  11.938  13.931
62816SOL     OW90344   2.485  12.657  12.333
62816SOL    HW190345   2.412  12.700  12.378
62816SOL    HW290346   2.470  12.673  12.240
62817SOL     OW90347   7.350   5.854   1.516
62817SOL    HW190348   7.422   5.844   1.453
62817SOL    HW290349   7.357   5.944   1.546
62818SOL     OW90350   0.602  13.166  14.723
62818SOL    HW190351   0.687  13.129  14.748
62818SOL    HW290352   0.538  13.116  14.774
62819SOL     OW90353   6.951   9.780   1.646
62819SOL    HW190354   6.988   9.691   1.641
62819SOL    HW290355   6.963   9.806   1.737
62820SOL     OW90356   2.904  13.454  11.097
62820SOL    HW190357   2.972  13.407  11.146
62820SOL    HW290358   2.931  13.448  11.006
62821SOL     OW90359   3.852   7.610   1.150
62821SOL    HW190360   3.856   7.540   1.085
62821SOL    HW290361   3.872   7.690   1.102
62822SOL     OW90362   5.067   1.569   1.204
62822SOL    HW190363   5.097   1.636   1.265
62822SOL    HW290364   4.975   1.591   1.188
62823SOL     OW90365  13.944  13.897   8.378
62823SOL    HW190366  13.945  13.821   8.321
62823SOL    HW290367  13.870  13.882   8.437
62824SOL     OW90368   7.712   6.838   0.271
62824SOL    HW190369   7.789   6.863   0.220
62824SOL    HW290370   7.641   6.836   0.206
62825SOL     OW90371  13.110   3.632   3.136
62825SOL    HW190372  13.125   3.709   3.080
62825SOL    HW290373  13.044   3.581   3.089
62826SOL     OW90374  14.405  10.015  12.367
62826SOL    HW190375  14.419  10.110  12.360
62826SOL    HW290376  14.491   9.980  12.390
62827SOL     OW90377   8.281   0.680   1.519
62827SOL    HW190378   8.260   0.602   1.467
62827SOL    HW290379   8.212   0.743   1.498
62828SOL     OW90380  10.327   2.411  13.492
62828SOL    HW190381  10.356   2.460  13.569
62828SOL    HW290382  10.308   2.478  13.427
62829SOL     OW90383  11.407  13.504  10.450
62829SOL    HW190384  11.481  13.560  10.427
62829SOL    HW290385  11.419  13.483  10.542
62830SOL     OW90386  10.593  14.299   0.007
62830SOL    HW190387  10.614  14.387  14.849
62830SOL    HW290388  10.594  14.246  14.800
62831SOL     OW90389   0.214   6.145   9.087
62831SOL    HW190390   0.134   6.144   9.033
62831SOL    HW290391   0.264   6.220   9.055
62832SOL     OW90392   1.770   6.489   3.349
62832SOL    HW190393   1.713   6.438   3.407
62832SOL    HW290394   1.712   6.519   3.279
62833SOL     OW90395   8.616   5.762   4.385
62833SOL    HW190396   8.695   5.816   4.394
62833SOL    HW290397   8.578   5.789   4.301
62834SOL     OW90398   8.435   6.058   7.809
62834SOL    HW190399   8.492   6.135   7.802
62834SOL    HW290400   8.458   6.017   7.891
62835SOL     OW90401   2.669   0.774   3.604
62835SOL    HW190402   2.638   0.689   3.634
62835SOL    HW290403   2.599   0.807   3.547
62836SOL     OW90404  12.035   0.542   1.598
62836SOL    HW190405  11.956   0.502   1.633
62836SOL    HW290406  12.098   0.538   1.670
62837SOL     OW90407  11.061  13.698   2.375
62837SOL    HW190408  11.056  13.605   2.355
62837SOL    HW290409  11.155  13.716   2.382
62838SOL     OW90410   8.493   1.374   7.435
62838SOL    HW190411   8.539   1.390   7.518
62838SOL    HW290412   8.563   1.353   7.372
62839SOL     OW90413   2.521   9.245   0.244
62839SOL    HW190414   2.609   9.220   0.271
62839SOL    HW290415   2.465   9.172   0.272
62840SOL     OW90416   6.004  12.798   8.479
62840SOL    HW190417   6.084  12.749   8.494
62840SOL    HW290418   6.034  12.883   8.444
62841SOL     OW90419   3.585  10.814   2.474
62841SOL    HW190420   3.598  10.750   2.545
62841SOL    HW290421   3.542  10.764   2.405
62842SOL     OW90422  11.398   4.676  11.843
62842SOL    HW190423  11.363   4.624  11.770
62842SOL    HW290424  11.392   4.619  11.919
62843SOL     OW90425   6.684   9.300   4.606
62843SOL    HW190426   6.738   9.368   4.646
62843SOL    HW290427   6.594   9.321   4.633
62844SOL     OW90428   0.880   6.702   8.173
62844SOL    HW190429   0.952   6.757   8.142
62844SOL    HW290430   0.923   6.635   8.226
62845SOL     OW90431   1.929   7.154   5.522
62845SOL    HW190432   1.905   7.100   5.598
62845SOL    HW290433   2.018   7.182   5.541
62846SOL     OW90434   3.217   7.900  11.445
62846SOL    HW190435   3.161   7.883  11.369
62846SOL    HW290436   3.289   7.837  11.437
62847SOL     OW90437  12.932  14.729   9.091
62847SOL    HW190438  13.011  14.715   9.143
62847SOL    HW290439  12.922  14.824   9.089
62848SOL     OW90440   0.746   8.784  12.683
62848SOL    HW190441   0.652   8.803  12.695
62848SOL    HW290442   0.789   8.836  12.751
62849SOL     OW90443  11.731   4.927   3.574
62849SOL    HW190444  11.717   5.016   3.541
62849SOL    HW290445  11.662   4.915   3.639
62850SOL     OW90446   2.364   1.235  12.230
62850SOL    HW190447   2.364   1.276  12.317
62850SOL    HW290448   2.354   1.308  12.169
62851SOL     OW90449  13.792   0.471   9.530
62851SOL    HW190450  13.708   0.455   9.574
62851SOL    HW290451  13.790   0.564   9.508
62852SOL     OW90452  13.308   3.070   0.148
62852SOL    HW190453  13.241   3.013   0.112
62852SOL    HW290454  13.312   3.143   0.086
62853SOL     OW90455  12.191  13.554   8.359
62853SOL    HW190456  12.262  13.611   8.389
62853SOL    HW290457  12.124  13.615   8.326
62854SOL     OW90458   8.798   4.129   1.883
62854SOL    HW190459   8.825   4.221   1.873
62854SOL    HW290460   8.737   4.130   1.956
62855SOL     OW90461  10.318   6.061   9.155
62855SOL    HW190462  10.342   6.008   9.231
62855SOL    HW290463  10.235   6.023   9.125
62856SOL     OW90464  11.042  13.707   2.885
62856SOL    HW190465  10.978  13.739   2.948
62856SOL    HW290466  10.992  13.693   2.805
62857SOL     OW90467   0.974  10.786   3.426
62857SOL    HW190468   0.962  10.881   3.427
62857SOL    HW290469   0.892  10.752   3.391
62858SOL     OW90470   8.549   1.197  12.105
62858SOL    HW190471   8.469   1.165  12.148
62858SOL    HW290472   8.542   1.163  12.016
62859SOL     OW90473   5.969   4.572  13.591
62859SOL    HW190474   6.031   4.545  13.523
62859SOL    HW290475   6.016   4.555  13.673
62860SOL     OW90476   5.210   6.837   9.304
62860SOL    HW190477   5.132   6.892   9.303
62860SOL    HW290478   5.260   6.868   9.379
62861SOL     OW90479  13.192   5.762   1.709
62861SOL    HW190480  13.131   5.713   1.764
62861SOL    HW290481  13.171   5.853   1.726
62862SOL     OW90482   1.674   7.618   5.400
62862SOL    HW190483   1.686   7.527   5.426
62862SOL    HW290484   1.599   7.616   5.341
62863SOL     OW90485   2.596   2.804   0.783
62863SOL    HW190486   2.509   2.786   0.746
62863SOL    HW290487   2.632   2.873   0.727
62864SOL     OW90488   0.407  10.174   7.268
62864SOL    HW190489   0.323  10.130   7.255
62864SOL    HW290490   0.470  10.103   7.274
62865SOL     OW90491   0.590   7.139   0.564
62865SOL    HW190492   0.554   7.185   0.489
62865SOL    HW290493   0.623   7.056   0.528
62866SOL     OW90494   6.702   2.383  12.515
62866SOL    HW190495   6.767   2.398  12.446
62866SOL    HW290496   6.739   2.314  12.570
62867SOL     OW90497   0.565   7.530   7.377
62867SOL    HW190498   0.583   7.510   7.285
62867SOL    HW290499   0.473   7.505   7.390
62868SOL     OW90500   7.781   6.223   7.472
62868SOL    HW190501   7.842   6.150   7.483
62868SOL    HW290502   7.740   6.207   7.386
62869SOL     OW90503  14.800  14.666   1.973
62869SOL    HW190504  14.837  14.614   1.901
62869SOL    HW290505  14.728  14.714   1.932
62870SOL     OW90506  13.398   8.286   9.306
62870SOL    HW190507  13.438   8.268   9.221
62870SOL    HW290508  13.448   8.233   9.368
62871SOL     OW90509   2.570   2.270   6.995
62871SOL    HW190510   2.626   2.245   6.921
62871SOL    HW290511   2.521   2.346   6.963
62872SOL     OW90512   1.669   5.294  13.336
62872SOL    HW190513   1.762   5.273  13.325
62872SOL    HW290514   1.661   5.384  13.304
62873SOL     OW90515   8.394   4.075   5.899
62873SOL    HW190516   8.365   4.156   5.859
62873SOL    HW290517   8.318   4.017   5.895
62874SOL     OW90518   4.068   6.923   1.368
62874SOL    HW190519   4.160   6.943   1.390
62874SOL    HW290520   4.063   6.828   1.371
62875SOL     OW90521   5.948   5.867   9.007
62875SOL    HW190522   5.890   5.829   9.073
62875SOL    HW290523   5.985   5.945   9.048
62876SOL     OW90524   4.319   1.130   4.014
62876SOL    HW190525   4.318   1.079   4.095
62876SOL    HW290526   4.226   1.145   3.993
62877SOL     OW90527   5.366   4.375   3.276
62877SOL    HW190528   5.334   4.460   3.308
62877SOL    HW290529   5.354   4.315   3.350
62878SOL     OW90530   8.354   4.421  11.641
62878SOL    HW190531   8.446   4.449  11.642
62878SOL    HW290532   8.355   4.337  11.594
62879SOL     OW90533  13.355   5.243   8.467
62879SOL    HW190534  13.421   5.312   8.458
62879SOL    HW290535  13.404   5.164   8.488
62880SOL     OW90536   1.554  11.123  10.762
62880SOL    HW190537   1.484  11.136  10.826
62880SOL    HW290538   1.635  11.127  10.814
62881SOL     OW90539   9.885   2.178   8.811
62881SOL    HW190540   9.963   2.192   8.864
62881SOL    HW290541   9.920   2.160   8.723
62882SOL     OW90542   1.546   9.334  12.888
62882SOL    HW190543   1.504   9.332  12.801
62882SOL    HW290544   1.473   9.324  12.949
62883SOL     OW90545   4.461   1.230  11.665
62883SOL    HW190546   4.546   1.195  11.692
62883SOL    HW290547   4.428   1.167  11.601
62884SOL     OW90548  13.860  10.412  13.996
62884SOL    HW190549  13.861  10.507  13.987
62884SOL    HW290550  13.821  10.396  14.082
62885SOL     OW90551   4.961  13.054  11.950
62885SOL    HW190552   4.975  12.972  11.996
62885SOL    HW290553   5.046  13.077  11.914
62886SOL     OW90554  12.876   2.932  13.235
62886SOL    HW190555  12.941   2.873  13.199
62886SOL    HW290556  12.792   2.898  13.203
62887SOL     OW90557   6.086   7.011   6.737
62887SOL    HW190558   6.169   7.019   6.784
62887SOL    HW290559   6.098   7.064   6.658
62888SOL     OW90560  13.324  13.287   0.501
62888SOL    HW190561  13.265  13.255   0.569
62888SOL    HW290562  13.411  13.278   0.538
62889SOL     OW90563   6.230   8.931   9.503
62889SOL    HW190564   6.311   8.881   9.512
62889SOL    HW290565   6.181   8.913   9.584
62890SOL     OW90566   9.748   4.342   1.318
62890SOL    HW190567   9.824   4.358   1.373
62890SOL    HW290568   9.785   4.304   1.237
62891SOL     OW90569  12.970   0.013  10.802
62891SOL    HW190570  12.911   0.011  10.877
62891SOL    HW290571  13.052  14.849  10.834
62892SOL     OW90572  12.999   9.358   9.186
62892SOL    HW190573  12.941   9.404   9.124
62892SOL    HW290574  13.081   9.406   9.181
62893SOL     OW90575   6.016   9.739   5.464
62893SOL    HW190576   6.094   9.795   5.462
62893SOL    HW290577   6.007   9.707   5.374
62894SOL     OW90578  10.224   3.040   9.576
62894SOL    HW190579  10.272   3.094   9.639
62894SOL    HW290580  10.160   3.100   9.536
62895SOL     OW90581   2.172   7.213   7.197
62895SOL    HW190582   2.139   7.154   7.264
62895SOL    HW290583   2.142   7.300   7.224
62896SOL     OW90584   1.957   5.986  11.828
62896SOL    HW190585   2.024   5.940  11.776
62896SOL    HW290586   2.007   6.038  11.890
62897SOL     OW90587   5.399   0.458   4.591
62897SOL    HW190588   5.363   0.467   4.503
62897SOL    HW290589   5.330   0.415   4.641
62898SOL     OW90590   5.334  12.492   8.117
62898SOL    HW190591   5.288  12.565   8.077
62898SOL    HW290592   5.415  12.485   8.067
62899SOL     OW90593   3.021  14.590   4.797
62899SOL    HW190594   2.988  14.565   4.711
62899SOL    HW290595   3.082  14.661   4.779
62900SOL     OW90596   7.617   6.021  11.780
62900SOL    HW190597   7.631   5.959  11.851
62900SOL    HW290598   7.594   6.103  11.824
62901SOL     OW90599   1.489  11.343   5.206
62901SOL    HW190600   1.512  11.292   5.128
62901SOL    HW290601   1.573  11.371   5.243
62902SOL     OW90602  14.179   6.743   2.429
62902SOL    HW190603  14.205   6.749   2.337
62902SOL    HW290604  14.150   6.832   2.452
62903SOL     OW90605  11.956   9.487   6.033
62903SOL    HW190606  11.897   9.558   6.007
62903SOL    HW290607  11.969   9.501   6.127
62904SOL     OW90608   4.096  10.613   3.965
62904SOL    HW190609   4.014  10.596   3.919
62904SOL    HW290610   4.111  10.706   3.954
62905SOL     OW90611  13.966   5.615  12.965
62905SOL    HW190612  13.903   5.544  12.952
62905SOL    HW290613  13.949   5.675  12.892
62906SOL     OW90614   9.741  13.592   0.425
62906SOL    HW190615   9.666  13.536   0.444
62906SOL    HW290616   9.703  13.674   0.394
62907SOL     OW90617   3.600   6.978   4.499
62907SOL    HW190618   3.618   6.995   4.591
62907SOL    HW290619   3.683   6.946   4.464
62908SOL     OW90620  13.944   5.087   6.061
62908SOL    HW190621  14.003   5.082   5.986
62908SOL    HW290622  13.860   5.055   6.028
62909SOL     OW90623   9.746   2.197   1.803
62909SOL    HW190624   9.655   2.225   1.793
62909SOL    HW290625   9.746   2.105   1.778
62910SOL     OW90626  13.032  14.690  10.065
62910SOL    HW190627  12.938  14.697  10.081
62910SOL    HW290628  13.039  14.645   9.981
62911SOL     OW90629   5.515  12.108  12.954
62911SOL    HW190630   5.532  12.114  12.860
62911SOL    HW290631   5.427  12.070  12.959
62912SOL     OW90632   5.433   8.282  10.431
62912SOL    HW190633   5.444   8.246  10.343
62912SOL    HW290634   5.340   8.300  10.438
62913SOL     OW90635  10.524  14.507   2.385
62913SOL    HW190636  10.544  14.490   2.293
62913SOL    HW290637  10.446  14.563   2.383
62914SOL     OW90638  14.820   0.569   0.349
62914SOL    HW190639  14.730   0.578   0.320
62914SOL    HW290640   0.000   0.601   0.275
62915SOL     OW90641   2.106   6.261   6.874
62915SOL    HW190642   2.128   6.274   6.781
62915SOL    HW290643   2.125   6.168   6.889
62916SOL     OW90644   6.745  14.408   9.878
62916SOL    HW190645   6.783  14.493   9.856
62916SOL    HW290646   6.676  14.428   9.941
62917SOL     OW90647   5.160   6.323   8.618
62917SOL    HW190648   5.230   6.388   8.625
62917SOL    HW290649   5.190   6.262   8.551
62918SOL     OW90650  12.554   3.407  14.077
62918SOL    HW190651  12.474   3.454  14.056
62918SOL    HW290652  12.524   3.332  14.129
62919SOL     OW90653   7.714   4.744   4.634
62919SOL    HW190654   7.747   4.738   4.724
62919SOL    HW290655   7.781   4.793   4.587
62920SOL     OW90656  10.524   1.978  10.289
62920SOL    HW190657  10.609   1.998  10.250
62920SOL    HW290658  10.537   1.897  10.338
62921SOL     OW90659  14.060  14.604   7.279
62921SOL    HW190660  14.054  14.615   7.185
62921SOL    HW290661  14.017  14.520   7.297
62922SOL     OW90662   2.585   3.855  14.855
62922SOL    HW190663   2.666   3.804  14.862
62922SOL    HW290664   2.529   3.820   0.052
62923SOL     OW90665  13.575  12.418  13.244
62923SOL    HW190666  13.494  12.469  13.238
62923SOL    HW290667  13.576  12.386  13.334
62924SOL     OW90668   0.265  12.865   2.429
62924SOL    HW190669   0.334  12.857   2.363
62924SOL    HW290670   0.280  12.792   2.488
62925SOL     OW90671  11.786  14.403  13.309
62925SOL    HW190672  11.719  14.360  13.363
62925SOL    HW290673  11.737  14.460  13.250
62926SOL     OW90674   4.117   8.601   7.699
62926SOL    HW190675   4.066   8.529   7.736
62926SOL    HW290676   4.173   8.630   7.771
62927SOL     OW90677  14.449  11.192  10.353
62927SOL    HW190678  14.430  11.103  10.380
62927SOL    HW290679  14.395  11.247  10.409
62928SOL     OW90680  10.687  13.674   7.179
62928SOL    HW190681  10.729  13.604   7.230
62928SOL    HW290682  10.606  13.635   7.146
62929SOL     OW90683   3.972   7.770   0.277
62929SOL    HW190684   4.016   7.842   0.322
62929SOL    HW290685   3.920   7.728   0.346
62930SOL     OW90686  11.209   3.021   1.598
62930SOL    HW190687  11.211   2.926   1.583
62930SOL    HW290688  11.274   3.055   1.537
62931SOL     OW90689  12.057   5.491  10.699
62931SOL    HW190690  12.124   5.553  10.729
62931SOL    HW290691  12.073   5.482  10.605
62932SOL     OW90692  14.029   1.911   7.450
62932SOL    HW190693  14.090   1.985   7.452
62932SOL    HW290694  14.051   1.859   7.527
62933SOL     OW90695   9.329  11.183   1.064
62933SOL    HW190696   9.323  11.264   1.014
62933SOL    HW290697   9.283  11.118   1.011
62934SOL     OW90698   4.409   0.880   8.886
62934SOL    HW190699   4.355   0.929   8.949
62934SOL    HW290700   4.392   0.923   8.803
62935SOL     OW90701   8.938   2.435   9.396
62935SOL    HW190702   9.000   2.362   9.389
62935SOL    HW290703   8.881   2.411   9.469
62936SOL     OW90704  14.415  13.651   9.220
62936SOL    HW190705  14.491  13.592   9.219
62936SOL    HW290706  14.394  13.661   9.312
62937SOL     OW90707   2.413   8.178  12.482
62937SOL    HW190708   2.339   8.230  12.451
62937SOL    HW290709   2.471   8.241  12.526
62938SOL     OW90710  13.092   1.652   8.710
62938SOL    HW190711  13.010   1.601   8.705
62938SOL    HW290712  13.081   1.705   8.789
62939SOL     OW90713   8.518  14.518   3.719
62939SOL    HW190714   8.518  14.513   3.623
62939SOL    HW290715   8.426  14.529   3.742
62940SOL     OW90716   0.714   1.126   2.188
62940SOL    HW190717   0.621   1.132   2.210
62940SOL    HW290718   0.731   1.202   2.132
62941SOL     OW90719  14.344   3.034  10.372
62941SOL    HW190720  14.434   3.022  10.402
62941SOL    HW290721  14.316   2.947  10.344
62942SOL     OW90722   3.201   4.837   1.150
62942SOL    HW190723   3.281   4.890   1.139
62942SOL    HW290724   3.150   4.855   1.072
62943SOL     OW90725  13.374   0.174   3.839
62943SOL    HW190726  13.392   0.115   3.766
62943SOL    HW290727  13.341   0.254   3.798
62944SOL     OW90728   5.171   8.427   0.537
62944SOL    HW190729   5.142   8.496   0.596
62944SOL    HW290730   5.254   8.460   0.502
62945SOL     OW90731  14.263   5.691   0.720
62945SOL    HW190732  14.358   5.679   0.724
62945SOL    HW290733  14.234   5.635   0.648
62946SOL     OW90734  14.566   8.477   7.355
62946SOL    HW190735  14.605   8.466   7.442
62946SOL    HW290736  14.642   8.491   7.297
62947SOL     OW90737  13.511  10.174   2.349
62947SOL    HW190738  13.566  10.218   2.285
62947SOL    HW290739  13.467  10.105   2.300
62948SOL     OW90740   5.762  10.370  13.541
62948SOL    HW190741   5.723  10.458  13.535
62948SOL    HW290742   5.834  10.371  13.478
62949SOL     OW90743  12.181   5.113   9.865
62949SOL    HW190744  12.181   5.180   9.797
62949SOL    HW290745  12.250   5.052   9.837
62950SOL     OW90746   9.877   6.915  12.696
62950SOL    HW190747   9.965   6.877  12.707
62950SOL    HW290748   9.885   6.971  12.620
62951SOL     OW90749  14.741   7.155   5.233
62951SOL    HW190750  14.653   7.180   5.206
62951SOL    HW290751  14.799   7.194   5.167
62952SOL     OW90752  12.717  13.168  12.926
62952SOL    HW190753  12.789  13.120  12.886
62952SOL    HW290754  12.749  13.257  12.937
62953SOL     OW90755   1.145   7.653   2.969
62953SOL    HW190756   1.101   7.619   3.047
62953SOL    HW290757   1.185   7.576   2.928
62954SOL     OW90758  11.614  11.865   8.851
62954SOL    HW190759  11.683  11.928   8.830
62954SOL    HW290760  11.583  11.833   8.766
62955SOL     OW90761   9.601   7.285   9.468
62955SOL    HW190762   9.681   7.337   9.471
62955SOL    HW290763   9.544   7.332   9.407
62956SOL     OW90764  13.887   0.073  11.981
62956SOL    HW190765  13.875   0.144  11.919
62956SOL    HW290766  13.941   0.009  11.934
62957SOL     OW90767  14.460   0.601   3.947
62957SOL    HW190768  14.529   0.536   3.932
62957SOL    HW290769  14.475   0.669   3.882
62958SOL     OW90770   2.083  10.703   2.288
62958SOL    HW190771   2.049  10.780   2.242
62958SOL    HW290772   2.138  10.738   2.357
62959SOL     OW90773   1.660   0.039   3.656
62959SOL    HW190774   1.738   0.003   3.613
62959SOL    HW290775   1.650   0.126   3.618
62960SOL     OW90776  13.822   4.192   0.361
62960SOL    HW190777  13.798   4.281   0.386
62960SOL    HW290778  13.911   4.181   0.393
62961SOL     OW90779  14.546  13.941  14.060
62961SOL    HW190780  14.500  14.016  14.098
62961SOL    HW290781  14.639  13.965  14.063
62962SOL     OW90782   4.502  13.544  13.505
62962SOL    HW190783   4.596  13.537  13.488
62962SOL    HW290784   4.461  13.506  13.427
62963SOL     OW90785  11.502   8.519   7.076
62963SOL    HW190786  11.591   8.552   7.062
62963SOL    HW290787  11.479   8.477   6.993
62964SOL     OW90788   9.283  14.305  12.214
62964SOL    HW190789   9.342  14.380  12.205
62964SOL    HW290790   9.294  14.256  12.133
62965SOL     OW90791  14.675   3.899  10.236
62965SOL    HW190792  14.733   3.895  10.312
62965SOL    HW290793  14.587   3.884  10.271
62966SOL     OW90794   3.802   3.442   4.684
62966SOL    HW190795   3.803   3.537   4.671
62966SOL    HW290796   3.759   3.430   4.769
62967SOL     OW90797  10.316  13.775   2.783
62967SOL    HW190798  10.370  13.703   2.816
62967SOL    HW290799  10.241  13.778   2.843
62968SOL     OW90800  12.922   3.649  10.098
62968SOL    HW190801  13.002   3.700  10.113
62968SOL    HW290802  12.928   3.576  10.160
62969SOL     OW90803  14.484   5.236   5.039
62969SOL    HW190804  14.568   5.279   5.019
62969SOL    HW290805  14.508   5.144   5.053
62970SOL     OW90806   1.378  14.709   4.085
62970SOL    HW190807   1.336  14.795   4.079
62970SOL    HW290808   1.304  14.648   4.093
62971SOL     OW90809   4.922  14.492   9.802
62971SOL    HW190810   4.901  14.576   9.760
62971SOL    HW290811   4.898  14.426   9.737
62972SOL     OW90812  10.201   2.447  14.547
62972SOL    HW190813  10.235   2.526  14.590
62972SOL    HW290814  10.136   2.480  14.485
62973SOL     OW90815  13.100   2.659   0.920
62973SOL    HW190816  13.100   2.593   0.990
62973SOL    HW290817  13.010   2.657   0.885
62974SOL     OW90818  14.867   2.453   9.453
62974SOL    HW190819   0.049   2.381   9.484
62974SOL    HW290820   0.058   2.519   9.423
62975SOL     OW90821   3.056   5.636   2.256
62975SOL    HW190822   2.991   5.602   2.318
62975SOL    HW290823   3.130   5.663   2.311
62976SOL     OW90824  11.478   1.264   9.728
62976SOL    HW190825  11.512   1.335   9.783
62976SOL    HW290826  11.461   1.306   9.643
62977SOL     OW90827   1.698  13.232   4.853
62977SOL    HW190828   1.646  13.213   4.775
62977SOL    HW290829   1.785  13.253   4.820
62978SOL     OW90830  11.635   1.184  12.170
62978SOL    HW190831  11.627   1.106  12.115
62978SOL    HW290832  11.544   1.213  12.184
62979SOL     OW90833  10.287   7.015   9.309
62979SOL    HW190834  10.253   6.978   9.228
62979SOL    HW290835  10.321   6.940   9.358
62980SOL     OW90836   8.843   1.339   6.303
62980SOL    HW190837   8.852   1.268   6.239
62980SOL    HW290838   8.847   1.294   6.388
62981SOL     OW90839   2.722  12.529   5.073
62981SOL    HW190840   2.714  12.605   5.016
62981SOL    HW290841   2.807  12.491   5.050
62982SOL     OW90842   5.399  10.750   1.531
62982SOL    HW190843   5.315  10.794   1.546
62982SOL    HW290844   5.464  10.821   1.536
62983SOL     OW90845   5.433   6.596   7.199
62983SOL    HW190846   5.495   6.627   7.133
62983SOL    HW290847   5.445   6.655   7.273
62984SOL     OW90848   4.960   1.547   8.050
62984SOL    HW190849   5.023   1.481   8.019
62984SOL    HW290850   5.000   1.583   8.129
62985SOL     OW90851   4.977  14.143  12.946
62985SOL    HW190852   4.946  14.081  13.011
62985SOL    HW290853   4.991  14.224  12.995
62986SOL     OW90854   2.531   1.908   8.509
62986SOL    HW190855   2.598   1.842   8.530
62986SOL    HW290856   2.529   1.910   8.413
62987SOL     OW90857   4.889   9.376   8.640
62987SOL    HW190858   4.977   9.344   8.621
62987SOL    HW290859   4.831   9.318   8.590
62988SOL     OW90860   7.430  13.113   0.210
62988SOL    HW190861   7.377  13.047   0.165
62988SOL    HW290862   7.454  13.175   0.141
62989SOL     OW90863   9.770  11.536   9.158
62989SOL    HW190864   9.862  11.513   9.174
62989SOL    HW290865   9.722  11.489   9.227
62990SOL     OW90866  12.860   5.118  14.024
62990SOL    HW190867  12.848   5.212  14.015
62990SOL    HW290868  12.906   5.091  13.944
62991SOL     OW90869   2.158  13.119   4.658
62991SOL    HW190870   2.157  13.097   4.565
62991SOL    HW290871   2.242  13.164   4.671
62992SOL     OW90872   3.504   4.865   0.038
62992SOL    HW190873   3.481   4.812  14.833
62992SOL    HW290874   3.592   4.838   0.061
62993SOL     OW90875  12.528   4.503   5.770
62993SOL    HW190876  12.581   4.550   5.835
62993SOL    HW290877  12.444   4.491   5.813
62994SOL     OW90878   2.785   1.224   6.990
62994SOL    HW190879   2.717   1.288   7.011
62994SOL    HW290880   2.775   1.207   6.897
62995SOL     OW90881   6.339   7.422   1.714
62995SOL    HW190882   6.260   7.410   1.660
62995SOL    HW290883   6.407   7.445   1.651
62996SOL     OW90884  10.997   2.425  10.158
62996SOL    HW190885  10.989   2.376  10.076
62996SOL    HW290886  10.908   2.429  10.192
62997SOL     OW90887   5.523   7.958   1.530
62997SOL    HW190888   5.461   7.892   1.498
62997SOL    HW290889   5.472   8.039   1.535
62998SOL     OW90890  12.275   9.318   0.490
62998SOL    HW190891  12.278   9.263   0.411
62998SOL    HW290892  12.272   9.255   0.562
62999SOL     OW90893   6.938   6.322   8.370
62999SOL    HW190894   7.021   6.323   8.418
62999SOL    HW290895   6.960   6.287   8.283
63000SOL     OW90896   0.759   0.685   0.824
63000SOL    HW190897   0.716   0.600   0.833
63000SOL    HW290898   0.687   0.747   0.814
63001SOL     OW90899  14.678   0.186  12.297
63001SOL    HW190900  14.719   0.267  12.265
63001SOL    HW290901  14.656   0.138  12.217
63002SOL     OW90902   4.099  11.323   2.059
63002SOL    HW190903   4.085  11.271   2.139
63002SOL    HW290904   4.066  11.267   1.989
63003SOL     OW90905   7.770   5.369   8.482
63003SOL    HW190906   7.789   5.406   8.568
63003SOL    HW290907   7.804   5.280   8.486
63004SOL     OW90908   7.343  10.400   1.736
63004SOL    HW190909   7.326  10.483   1.693
63004SOL    HW290910   7.427  10.371   1.700
63005SOL     OW90911   0.027   7.940   2.317
63005SOL    HW190912   0.051   7.854   2.282
63005SOL    HW290913   0.101   7.996   2.294
63006SOL     OW90914   1.563   5.281   4.234
63006SOL    HW190915   1.553   5.246   4.323
63006SOL    HW290916   1.527   5.213   4.177
63007SOL     OW90917  12.331  10.416   9.239
63007SOL    HW190918  12.321  10.511   9.249
63007SOL    HW290919  12.289  10.379   9.316
63008SOL     OW90920   8.196   2.371   2.904
63008SOL    HW190921   8.104   2.362   2.881
63008SOL    HW290922   8.229   2.281   2.909
63009SOL     OW90923   4.536   4.752   9.896
63009SOL    HW190924   4.550   4.822   9.832
63009SOL    HW290925   4.541   4.671   9.845
63010SOL     OW90926  13.230  14.804   0.393
63010SOL    HW190927  13.166  14.744   0.354
63010SOL    HW290928  13.192   0.019   0.380
63011SOL     OW90929  10.341   8.963   6.982
63011SOL    HW190930  10.351   8.869   6.996
63011SOL    HW290931  10.393   8.981   6.903
63012SOL     OW90932   1.128  13.148  10.701
63012SOL    HW190933   1.165  13.132  10.614
63012SOL    HW290934   1.102  13.240  10.700
63013SOL     OW90935   4.168   7.553  14.799
63013SOL    HW190936   4.210   7.607  14.865
63013SOL    HW290937   4.086   7.525  14.840
63014SOL     OW90938   0.949   5.087   2.465
63014SOL    HW190939   0.996   5.169   2.484
63014SOL    HW290940   1.017   5.020   2.468
63015SOL     OW90941   1.822  10.220  11.940
63015SOL    HW190942   1.786  10.142  11.982
63015SOL    HW290943   1.759  10.243  11.872
63016SOL     OW90944   4.312  11.347   1.390
63016SOL    HW190945   4.323  11.388   1.475
63016SOL    HW290946   4.274  11.261   1.409
63017SOL     OW90947   4.070   2.371   8.916
63017SOL    HW190948   4.038   2.461   8.922
63017SOL    HW290949   3.992   2.318   8.901
63018SOL     OW90950   5.449  11.397   3.903
63018SOL    HW190951   5.450  11.301   3.908
63018SOL    HW290952   5.542  11.422   3.901
63019SOL     OW90953   3.301   1.318   1.727
63019SOL    HW190954   3.301   1.341   1.634
63019SOL    HW290955   3.240   1.381   1.766
63020SOL     OW90956   3.374   4.212   8.543
63020SOL    HW190957   3.387   4.124   8.509
63020SOL    HW290958   3.280   4.225   8.541
63021SOL     OW90959   5.357   4.919   5.056
63021SOL    HW190960   5.399   4.844   5.097
63021SOL    HW290961   5.430   4.975   5.027
63022SOL     OW90962   8.121   2.325   6.703
63022SOL    HW190963   8.059   2.253   6.710
63022SOL    HW290964   8.074   2.401   6.736
63023SOL     OW90965   7.532   5.958  11.116
63023SOL    HW190966   7.472   5.940  11.188
63023SOL    HW290967   7.599   6.014  11.155
63024SOL     OW90968   8.738   5.192  11.530
63024SOL    HW190969   8.715   5.103  11.503
63024SOL    HW290970   8.714   5.247  11.456
63025SOL     OW90971   6.890  10.631   3.778
63025SOL    HW190972   6.895  10.566   3.708
63025SOL    HW290973   6.972  10.680   3.772
63026SOL     OW90974  12.438   4.760   1.426
63026SOL    HW190975  12.363   4.705   1.400
63026SOL    HW290976  12.405   4.811   1.499
63027SOL     OW90977  10.535  11.564   7.163
63027SOL    HW190978  10.611  11.621   7.155
63027SOL    HW290979  10.507  11.549   7.072
63028SOL     OW90980  11.115   3.613   6.742
63028SOL    HW190981  11.090   3.597   6.652
63028SOL    HW290982  11.208   3.634   6.738
63029SOL     OW90983   4.823  13.512   5.554
63029SOL    HW190984   4.878  13.455   5.499
63029SOL    HW290985   4.734  13.479   5.541
63030SOL     OW90986   8.201  12.245   5.323
63030SOL    HW190987   8.107  12.259   5.325
63030SOL    HW290988   8.238  12.333   5.315
63031SOL     OW90989   8.708  11.193   2.040
63031SOL    HW190990   8.773  11.124   2.035
63031SOL    HW290991   8.722  11.245   1.961
63032SOL     OW90992  14.475   5.501   8.579
63032SOL    HW190993  14.502   5.513   8.488
63032SOL    HW290994  14.534   5.556   8.629
63033SOL     OW90995   3.193  10.606   7.394
63033SOL    HW190996   3.139  10.537   7.433
63033SOL    HW290997   3.201  10.672   7.462
63034SOL     OW90998  14.563   5.107  12.098
63034SOL    HW190999  14.472   5.136  12.089
63034SOL    HW291000  14.578   5.050  12.022
63035SOL     OW91001   1.894   9.394   8.406
63035SOL    HW191002   1.865   9.484   8.425
63035SOL    HW291003   1.879   9.384   8.312
63036SOL     OW91004  11.498   5.710  12.621
63036SOL    HW191005  11.511   5.739  12.711
63036SOL    HW291006  11.404   5.718  12.606
63037SOL     OW91007   2.317   3.927   6.502
63037SOL    HW191008   2.395   3.923   6.447
63037SOL    HW291009   2.252   3.973   6.449
63038SOL     OW91010   1.313   4.277  11.920
63038SOL    HW191011   1.373   4.204  11.907
63038SOL    HW291012   1.285   4.301  11.831
63039SOL     OW91013  12.035   2.850   0.994
63039SOL    HW191014  12.112   2.800   1.022
63039SOL    HW291015  12.070   2.936   0.969
63040SOL     OW91016   7.278   8.011   8.627
63040SOL    HW191017   7.219   7.935   8.626
63040SOL    HW291018   7.338   7.996   8.554
63041SOL     OW91019   7.881   2.066  13.288
63041SOL    HW191020   7.966   2.110  13.285
63041SOL    HW291021   7.902   1.975  13.310
63042SOL     OW91022   8.301  10.533   5.221
63042SOL    HW191023   8.264  10.482   5.149
63042SOL    HW291024   8.381  10.571   5.185
63043SOL     OW91025   4.424   2.857   7.598
63043SOL    HW191026   4.347   2.815   7.635
63043SOL    HW291027   4.496   2.799   7.621
63044SOL     OW91028   8.916  11.531   0.372
63044SOL    HW191029   8.824  11.504   0.370
63044SOL    HW291030   8.951  11.489   0.451
63045SOL     OW91031   8.140   7.872   8.799
63045SOL    HW191032   8.199   7.811   8.842
63045SOL    HW291033   8.155   7.955   8.844
63046SOL     OW91034   9.565   5.681   8.255
63046SOL    HW191035   9.538   5.670   8.163
63046SOL    HW291036   9.607   5.767   8.257
63047SOL     OW91037  13.570   2.297  12.007
63047SOL    HW191038  13.572   2.373  12.065
63047SOL    HW291039  13.537   2.332  11.924
63048SOL     OW91040   4.923   7.890   6.414
63048SOL    HW191041   4.937   7.844   6.331
63048SOL    HW291042   4.980   7.844   6.476
63049SOL     OW91043  14.287   9.147   4.044
63049SOL    HW191044  14.245   9.077   4.095
63049SOL    HW291045  14.218   9.211   4.029
63050SOL     OW91046   7.386   4.022   0.039
63050SOL    HW191047   7.331   3.959   0.085
63050SOL    HW291048   7.344   4.107   0.056
63051SOL     OW91049   7.601   1.618   3.658
63051SOL    HW191050   7.579   1.690   3.716
63051SOL    HW291051   7.517   1.591   3.621
63052SOL     OW91052   4.204   9.935   8.087
63052SOL    HW191053   4.191  10.029   8.077
63052SOL    HW291054   4.213   9.921   8.181
63053SOL     OW91055   4.554  12.213  10.587
63053SOL    HW191056   4.634  12.206  10.535
63053SOL    HW291057   4.504  12.134  10.565
63054SOL     OW91058   9.198   1.107  12.896
63054SOL    HW191059   9.106   1.090  12.880
63054SOL    HW291060   9.208   1.100  12.991
63055SOL     OW91061   4.488   4.132  14.140
63055SOL    HW191062   4.460   4.082  14.216
63055SOL    HW291063   4.434   4.099  14.068
63056SOL     OW91064  13.826   6.234   8.264
63056SOL    HW191065  13.747   6.285   8.248
63056SOL    HW291066  13.890   6.269   8.203
63057SOL     OW91067   5.615   6.336   1.262
63057SOL    HW191068   5.534   6.304   1.223
63057SOL    HW291069   5.677   6.339   1.189
63058SOL     OW91070  10.938   0.054  10.385
63058SOL    HW191071  10.927   0.022  10.296
63058SOL    HW291072  11.033   0.053  10.400
63059SOL     OW91073   5.108  14.113   4.972
63059SOL    HW191074   5.027  14.096   5.020
63059SOL    HW291075   5.162  14.036   4.987
63060SOL     OW91076   5.199  10.877  12.757
63060SOL    HW191077   5.187  10.944  12.824
63060SOL    HW291078   5.136  10.809  12.778
63061SOL     OW91079   0.971   3.496   6.320
63061SOL    HW191080   1.065   3.493   6.306
63061SOL    HW291081   0.946   3.404   6.330
63062SOL     OW91082   6.364  13.482   2.973
63062SOL    HW191083   6.272  13.501   2.991
63062SOL    HW291084   6.413  13.548   3.023
63063SOL     OW91085   8.274  13.175   7.679
63063SOL    HW191086   8.229  13.187   7.596
63063SOL    HW291087   8.264  13.259   7.724
63064SOL     OW91088  14.552  12.742   5.478
63064SOL    HW191089  14.572  12.712   5.567
63064SOL    HW291090  14.618  12.809   5.461
63065SOL     OW91091  13.187   7.623   3.778
63065SOL    HW191092  13.151   7.535   3.785
63065SOL    HW291093  13.280   7.610   3.764
63066SOL     OW91094  14.577   1.469   8.241
63066SOL    HW191095  14.570   1.525   8.164
63066SOL    HW291096  14.611   1.527   8.309
63067SOL     OW91097  11.974   3.649  12.071
63067SOL    HW191098  12.041   3.706  12.108
63067SOL    HW291099  12.013   3.561  12.074
63068SOL     OW91100   0.027  12.370   8.031
63068SOL    HW191101   0.103  12.404   7.984
63068SOL    HW291102   0.005  12.438   8.094
63069SOL     OW91103   4.041   0.103   5.275
63069SOL    HW191104   4.070   0.178   5.328
63069SOL    HW291105   3.951   0.088   5.302
63070SOL     OW91106  10.796   0.904   1.317
63070SOL    HW191107  10.889   0.918   1.304
63070SOL    HW291108  10.790   0.844   1.391
63071SOL     OW91109   7.643   8.778  13.274
63071SOL    HW191110   7.691   8.763  13.356
63071SOL    HW291111   7.695   8.844  13.228
63072SOL     OW91112  11.824   7.991  12.105
63072SOL    HW191113  11.806   7.911  12.153
63072SOL    HW291114  11.916   8.011  12.125
63073SOL     OW91115  14.559   8.604  11.935
63073SOL    HW191116  14.533   8.517  11.903
63073SOL    HW291117  14.653   8.596  11.953
63074SOL     OW91118   6.283  11.651   4.446
63074SOL    HW191119   6.365  11.649   4.396
63074SOL    HW291120   6.218  11.616   4.385
63075SOL     OW91121   9.368   4.864  10.502
63075SOL    HW191122   9.321   4.935  10.546
63075SOL    HW291123   9.304   4.828  10.441
63076SOL     OW91124   6.724   0.560  13.846
63076SOL    HW191125   6.702   0.547  13.939
63076SOL    HW291126   6.685   0.484  13.802
63077SOL     OW91127   0.072   5.737  12.743
63077SOL    HW191128   0.038   5.783  12.667
63077SOL    HW291129  14.867   5.710  12.792
63078SOL     OW91130   9.942   6.931   6.230
63078SOL    HW191131   9.899   6.847   6.240
63078SOL    HW291132  10.008   6.916   6.162
63079SOL     OW91133   9.803   6.056  14.084
63079SOL    HW191134   9.708   6.065  14.081
63079SOL    HW291135   9.823   6.041  14.176
63080SOL     OW91136   7.385   1.884  12.714
63080SOL    HW191137   7.402   1.814  12.776
63080SOL    HW291138   7.404   1.964  12.763
63081SOL     OW91139  14.649   1.271   7.318
63081SOL    HW191140  14.669   1.248   7.409
63081SOL    HW291141  14.735   1.278   7.276
63082SOL     OW91142  14.506  12.885   7.636
63082SOL    HW191143  14.464  12.900   7.721
63082SOL    HW291144  14.439  12.842   7.583
63083SOL     OW91145  10.421  10.822   5.991
63083SOL    HW191146  10.378  10.800   6.074
63083SOL    HW291147  10.420  10.918   5.988
63084SOL     OW91148  10.241   8.723   6.675
63084SOL    HW191149  10.199   8.710   6.760
63084SOL    HW291150  10.317   8.665   6.677
63085SOL     OW91151  10.018   1.338  14.528
63085SOL    HW191152   9.956   1.371  14.594
63085SOL    HW291153  10.011   1.402  14.456
63086SOL     OW91154   2.807   6.872   4.788
63086SOL    HW191155   2.768   6.810   4.726
63086SOL    HW291156   2.763   6.954   4.771
63087SOL     OW91157  14.229   8.308   8.520
63087SOL    HW191158  14.291   8.295   8.593
63087SOL    HW291159  14.277   8.364   8.459
63088SOL     OW91160  10.972  11.645  11.923
63088SOL    HW191161  10.911  11.580  11.959
63088SOL    HW291162  11.058  11.609  11.941
63089SOL     OW91163   2.119  13.739   0.440
63089SOL    HW191164   2.181  13.784   0.382
63089SOL    HW291165   2.170  13.667   0.477
63090SOL     OW91166   6.815   3.830  10.828
63090SOL    HW191167   6.846   3.762  10.888
63090SOL    HW291168   6.817   3.910  10.880
63091SOL     OW91169  12.257  13.905   2.709
63091SOL    HW191170  12.297  13.981   2.667
63091SOL    HW291171  12.258  13.837   2.642
63092SOL     OW91172   1.549  13.894  12.390
63092SOL    HW191173   1.455  13.875  12.388
63092SOL    HW291174   1.577  13.885  12.298
63093SOL     OW91175   7.972  11.618   1.558
63093SOL    HW191176   7.877  11.619   1.563
63093SOL    HW291177   8.001  11.647   1.644
63094SOL     OW91178   1.655  10.276  14.503
63094SOL    HW191179   1.650  10.337  14.577
63094SOL    HW291180   1.729  10.219  14.524
63095SOL     OW91181  12.264   0.452   1.768
63095SOL    HW191182  12.353   0.472   1.799
63095SOL    HW291183  12.206   0.488   1.835
63096SOL     OW91184   0.520   7.537   7.096
63096SOL    HW191185   0.483   7.618   7.131
63096SOL    HW291186   0.454   7.507   7.033
63097SOL     OW91187  12.803   4.792   6.600
63097SOL    HW191188  12.847   4.876   6.612
63097SOL    HW291189  12.813   4.772   6.507
63098SOL     OW91190   8.797   0.205   4.741
63098SOL    HW191191   8.856   0.280   4.729
63098SOL    HW291192   8.751   0.223   4.823
63099SOL     OW91193   8.585   6.103   8.968
63099SOL    HW191194   8.498   6.121   9.002
63099SOL    HW291195   8.585   6.143   8.881
63100SOL     OW91196   4.835   5.509   1.048
63100SOL    HW191197   4.899   5.558   0.997
63100SOL    HW291198   4.772   5.478   0.982
63101SOL     OW91199   8.609  10.845  11.309
63101SOL    HW191200   8.699  10.832  11.339
63101SOL    HW291201   8.568  10.759  11.320
63102SOL     OW91202  13.105  14.245   4.264
63102SOL    HW191203  13.062  14.171   4.222
63102SOL    HW291204  13.187  14.209   4.298
63103SOL     OW91205  11.794   4.533  12.208
63103SOL    HW191206  11.814   4.533  12.301
63103SOL    HW291207  11.835   4.613  12.175
63104SOL     OW91208  12.153   5.752  12.138
63104SOL    HW191209  12.167   5.794  12.054
63104SOL    HW291210  12.194   5.666  12.129
63105SOL     OW91211   5.839   5.900   6.650
63105SOL    HW191212   5.861   5.947   6.730
63105SOL    HW291213   5.799   5.818   6.680
63106SOL     OW91214   4.405   9.821  14.601
63106SOL    HW191215   4.347   9.857  14.534
63106SOL    HW291216   4.346   9.782  14.666
63107SOL     OW91217  11.794  12.909   1.986
63107SOL    HW191218  11.855  12.983   1.992
63107SOL    HW291219  11.790  12.874   2.075
63108SOL     OW91220  11.487   0.588   9.310
63108SOL    HW191221  11.444   0.611   9.228
63108SOL    HW291222  11.461   0.657   9.371
63109SOL     OW91223   6.336   2.567   9.252
63109SOL    HW191224   6.318   2.619   9.173
63109SOL    HW291225   6.304   2.479   9.230
63110SOL     OW91226   4.644   1.041   3.138
63110SOL    HW191227   4.644   1.004   3.050
63110SOL    HW291228   4.600   0.975   3.192
63111SOL     OW91229  10.489   1.269  13.335
63111SOL    HW191230  10.454   1.181  13.349
63111SOL    HW291231  10.519   1.297  13.422
63112SOL     OW91232   1.462  11.031  12.692
63112SOL    HW191233   1.506  11.103  12.736
63112SOL    HW291234   1.518  10.955  12.707
63113SOL     OW91235   6.048   7.398   4.154
63113SOL    HW191236   6.064   7.479   4.105
63113SOL    HW291237   6.133   7.376   4.192
63114SOL     OW91238   0.449   1.204  11.424
63114SOL    HW191239   0.489   1.286  11.454
63114SOL    HW291240   0.490   1.186  11.339
63115SOL     OW91241  10.006   3.391  10.594
63115SOL    HW191242  10.051   3.309  10.616
63115SOL    HW291243  10.077   3.453  10.575
63116SOL     OW91244  11.367   1.442   5.003
63116SOL    HW191245  11.462   1.430   5.005
63116SOL    HW291246  11.354   1.522   4.951
63117SOL     OW91247   9.442   1.143   7.482
63117SOL    HW191248   9.439   1.205   7.409
63117SOL    HW291249   9.489   1.067   7.447
63118SOL     OW91250   8.791  14.863   9.611
63118SOL    HW191251   8.724   0.051   9.579
63118SOL    HW291252   8.763  14.777   9.580
63119SOL     OW91253  11.146  13.286   8.680
63119SOL    HW191254  11.192  13.203   8.679
63119SOL    HW291255  11.055  13.263   8.658
63120SOL     OW91256   6.080  10.919   7.230
63120SOL    HW191257   6.012  10.856   7.255
63120SOL    HW291258   6.161  10.880   7.264
63121SOL     OW91259   0.820   8.082   5.163
63121SOL    HW191260   0.729   8.088   5.193
63121SOL    HW291261   0.816   8.108   5.071
63122SOL     OW91262   4.300   7.706   0.140
63122SOL    HW191263   4.321   7.618   0.170
63122SOL    HW291264   4.239   7.740   0.206
63123SOL     OW91265   1.854  14.081  12.212
63123SOL    HW191266   1.774  14.076  12.159
63123SOL    HW291267   1.878  13.990  12.227
63124SOL     OW91268   8.318   6.566  13.572
63124SOL    HW191269   8.283   6.637  13.518
63124SOL    HW291270   8.374   6.610  13.637
63125SOL     OW91271  14.598   2.670   0.159
63125SOL    HW191272  14.663   2.736   0.184
63125SOL    HW291273  14.613   2.598   0.220
63126SOL     OW91274   8.464  12.079   2.767
63126SOL    HW191275   8.473  11.983   2.767
63126SOL    HW291276   8.371  12.094   2.748
63127SOL     OW91277   7.981   4.279  14.106
63127SOL    HW191278   7.920   4.215  14.070
63127SOL    HW291279   8.057   4.226  14.133
63128SOL     OW91280  14.078  12.532  10.657
63128SOL    HW191281  14.118  12.446  10.646
63128SOL    HW291282  14.084  12.572  10.571
63129SOL     OW91283   4.553   3.656  12.521
63129SOL    HW191284   4.555   3.587  12.588
63129SOL    HW291285   4.595   3.731  12.563
63130SOL     OW91286  11.789   0.262   6.868
63130SOL    HW191287  11.869   0.303   6.838
63130SOL    HW291288  11.764   0.201   6.798
63131SOL     OW91289  14.700   1.265  14.435
63131SOL    HW191290  14.726   1.337  14.492
63131SOL    HW291291  14.756   1.274  14.358
63132SOL     OW91292  11.853   9.827   3.129
63132SOL    HW191293  11.769   9.806   3.087
63132SOL    HW291294  11.884   9.743   3.163
63133SOL     OW91295   7.713  10.531  10.925
63133SOL    HW191296   7.634  10.557  10.973
63133SOL    HW291297   7.708  10.578  10.842
63134SOL     OW91298  14.059   3.413   4.352
63134SOL    HW191299  14.003   3.343   4.386
63134SOL    HW291300  14.010   3.449   4.277
63135SOL     OW91301  13.754   9.845   0.665
63135SOL    HW191302  13.717   9.857   0.578
63135SOL    HW291303  13.786   9.932   0.690
63136SOL     OW91304  13.416   6.158   6.075
63136SOL    HW191305  13.415   6.250   6.102
63136SOL    HW291306  13.480   6.117   6.133
63137SOL     OW91307   9.664   3.308   1.051
63137SOL    HW191308   9.670   3.398   1.019
63137SOL    HW291309   9.661   3.316   1.146
63138SOL     OW91310   8.102   8.793  11.021
63138SOL    HW191311   8.015   8.756  11.008
63138SOL    HW291312   8.156   8.718  11.046
63139SOL     OW91313  12.906   8.070   1.716
63139SOL    HW191314  12.830   8.124   1.695
63139SOL    HW291315  12.882   8.026   1.798
63140SOL     OW91316   8.465   8.025   8.659
63140SOL    HW191317   8.393   7.991   8.607
63140SOL    HW291318   8.542   8.019   8.601
63141SOL     OW91319  14.679   2.903  10.515
63141SOL    HW191320  14.755   2.849  10.534
63141SOL    HW291321  14.678   2.970  10.583
63142SOL     OW91322   4.145  10.967  12.333
63142SOL    HW191323   4.169  11.020  12.409
63142SOL    HW291324   4.082  10.904  12.367
63143SOL     OW91325   9.970   7.173   6.000
63143SOL    HW191326   9.914   7.217   6.064
63143SOL    HW291327  10.041   7.135   6.052
63144SOL     OW91328   5.463  11.455   1.056
63144SOL    HW191329   5.490  11.510   1.129
63144SOL    HW291330   5.388  11.405   1.089
63145SOL     OW91331  10.685   7.494   1.061
63145SOL    HW191332  10.619   7.563   1.062
63145SOL    HW291333  10.667   7.444   0.982
63146SOL     OW91334  14.330   9.188   3.671
63146SOL    HW191335  14.395   9.147   3.614
63146SOL    HW291336  14.328   9.280   3.644
63147SOL     OW91337  14.068  10.250   1.086
63147SOL    HW191338  14.107  10.227   1.170
63147SOL    HW291339  14.066  10.167   1.037
63148SOL     OW91340  13.903  11.890   6.673
63148SOL    HW191341  13.843  11.954   6.711
63148SOL    HW291342  13.966  11.941   6.623
63149SOL     OW91343   7.377  14.119  14.818
63149SOL    HW191344   7.323  14.114  14.739
63149SOL    HW291345   7.452  14.173  14.792
63150SOL     OW91346   7.233   5.759   8.525
63150SOL    HW191347   7.307   5.783   8.470
63150SOL    HW291348   7.159   5.808   8.489
63151SOL     OW91349  13.622   8.189   4.495
63151SOL    HW191350  13.581   8.106   4.520
63151SOL    HW291351  13.555   8.236   4.446
63152SOL     OW91352   5.422  11.219   9.257
63152SOL    HW191353   5.427  11.307   9.219
63152SOL    HW291354   5.370  11.231   9.337
63153SOL     OW91355   9.288   5.420  14.626
63153SOL    HW191356   9.343   5.343  14.638
63153SOL    HW291357   9.241   5.429  14.709
63154SOL     OW91358   5.898  12.993  14.789
63154SOL    HW191359   5.898  13.088  14.775
63154SOL    HW291360   5.982  12.963  14.756
63155SOL     OW91361  14.732   4.516   6.482
63155SOL    HW191362  14.809   4.560   6.446
63155SOL    HW291363  14.680   4.586   6.521
63156SOL     OW91364  12.433  11.188  11.758
63156SOL    HW191365  12.341  11.191  11.784
63156SOL    HW291366  12.431  11.155  11.668
63157SOL     OW91367   6.437  14.471   0.379
63157SOL    HW191368   6.532  14.469   0.365
63157SOL    HW291369   6.427  14.498   0.470
63158SOL     OW91370  12.585  13.207   4.319
63158SOL    HW191371  12.495  13.185   4.296
63158SOL    HW291372  12.636  13.182   4.242
63159SOL     OW91373   2.846   2.499  13.500
63159SOL    HW191374   2.907   2.571  13.513
63159SOL    HW291375   2.848   2.481  13.406
63160SOL     OW91376  11.735   9.459   1.665
63160SOL    HW191377  11.686   9.540   1.682
63160SOL    HW291378  11.699   9.427   1.582
63161SOL     OW91379  10.702   3.815   5.991
63161SOL    HW191380  10.721   3.880   6.058
63161SOL    HW291381  10.736   3.853   5.910
63162SOL     OW91382  10.895   5.711  14.187
63162SOL    HW191383  10.980   5.709  14.143
63162SOL    HW291384  10.851   5.631  14.159
63163SOL     OW91385   7.528   9.578  14.785
63163SOL    HW191386   7.553   9.661  14.827
63163SOL    HW291387   7.526   9.515  14.857
63164SOL     OW91388   1.189   5.098   0.426
63164SOL    HW191389   1.269   5.088   0.374
63164SOL    HW291390   1.141   5.017   0.413
63165SOL     OW91391  11.541  13.530  14.060
63165SOL    HW191392  11.574  13.605  14.011
63165SOL    HW291393  11.488  13.482  13.997
63166SOL     OW91394   4.122  11.590   5.427
63166SOL    HW191395   4.164  11.539   5.358
63166SOL    HW291396   4.031  11.560   5.428
63167SOL     OW91397   0.134   5.994   3.035
63167SOL    HW191398   0.180   6.069   3.072
63167SOL    HW291399   0.074   6.032   2.971
63168SOL     OW91400   7.684   4.233   2.818
63168SOL    HW191401   7.592   4.252   2.800
63168SOL    HW291402   7.710   4.300   2.882
63169SOL     OW91403   4.446  14.570   1.768
63169SOL    HW191404   4.391  14.644   1.793
63169SOL    HW291405   4.394  14.521   1.705
63170SOL     OW91406  12.106   0.836  14.633
63170SOL    HW191407  12.201   0.840  14.636
63170SOL    HW291408  12.078   0.867  14.719
63171SOL     OW91409   1.518  13.436  14.023
63171SOL    HW191410   1.610  13.448  13.998
63171SOL    HW291411   1.475  13.406  13.942
63172SOL     OW91412   2.672   7.205   2.232
63172SOL    HW191413   2.719   7.154   2.166
63172SOL    HW291414   2.655   7.289   2.189
63173SOL     OW91415   3.782  14.447   8.827
63173SOL    HW191416   3.751  14.537   8.817
63173SOL    HW291417   3.860  14.442   8.772
63174SOL     OW91418   2.416   9.354   6.874
63174SOL    HW191419   2.323   9.337   6.886
63174SOL    HW291420   2.458   9.270   6.895
63175SOL     OW91421   3.377   8.284   1.420
63175SOL    HW191422   3.439   8.353   1.397
63175SOL    HW291423   3.429   8.204   1.426
63176SOL     OW91424  12.823   2.394   1.167
63176SOL    HW191425  12.730   2.398   1.146
63176SOL    HW291426  12.832   2.445   1.248
63177SOL     OW91427   5.701   1.274  14.832
63177SOL    HW191428   5.612   1.298  14.858
63177SOL    HW291429   5.750   1.272   0.042
63178SOL     OW91430   1.191   0.697  12.265
63178SOL    HW191431   1.268   0.648  12.294
63178SOL    HW291432   1.167   0.656  12.181
63179SOL     OW91433   6.872   3.103   2.283
63179SOL    HW191434   6.813   3.156   2.337
63179SOL    HW291435   6.934   3.166   2.248
63180SOL     OW91436  11.507  12.876   6.489
63180SOL    HW191437  11.574  12.819   6.452
63180SOL    HW291438  11.537  12.893   6.578
63181SOL     OW91439   7.496   6.457   6.255
63181SOL    HW191440   7.408   6.438   6.221
63181SOL    HW291441   7.493   6.549   6.280
63182SOL     OW91442   0.065  10.617   2.724
63182SOL    HW191443   0.036  10.527   2.713
63182SOL    HW291444   0.160  10.611   2.738
63183SOL     OW91445   3.843  14.685  10.351
63183SOL    HW191446   3.810  14.660  10.264
63183SOL    HW291447   3.824  14.778  10.359
63184SOL     OW91448   1.960   2.949  11.257
63184SOL    HW191449   2.029   3.000  11.215
63184SOL    HW291450   1.935   2.884  11.192
63185SOL     OW91451   4.817   1.581  14.365
63185SOL    HW191452   4.862   1.505  14.329
63185SOL    HW291453   4.783   1.551  14.449
63186SOL     OW91454  11.657  10.594   4.122
63186SOL    HW191455  11.597  10.531   4.162
63186SOL    HW291456  11.698  10.638   4.197
63187SOL     OW91457  12.517   1.918  11.832
63187SOL    HW191458  12.526   1.927  11.738
63187SOL    HW291459  12.484   2.003  11.862
63188SOL     OW91460  13.725   9.996   3.420
63188SOL    HW191461  13.805  10.044   3.442
63188SOL    HW291462  13.710  10.015   3.327
63189SOL     OW91463  11.081   2.895   3.958
63189SOL    HW191464  11.139   2.942   4.018
63189SOL    HW291465  11.020   2.848   4.016
63190SOL     OW91466  13.498  14.656   4.489
63190SOL    HW191467  13.476  14.668   4.396
63190SOL    HW291468  13.593  14.645   4.490
63191SOL     OW91469  12.522   3.205   0.095
63191SOL    HW191470  12.606   3.250   0.104
63191SOL    HW291471  12.542   3.125   0.047
63192SOL     OW91472  10.608  11.670   8.166
63192SOL    HW191473  10.628  11.627   8.249
63192SOL    HW291474  10.647  11.757   8.172
63193SOL     OW91475  12.583   8.110   8.803
63193SOL    HW191476  12.536   8.072   8.728
63193SOL    HW291477  12.514   8.142   8.861
63194SOL     OW91478  13.725   9.292   7.791
63194SOL    HW191479  13.637   9.331   7.790
63194SOL    HW291480  13.764   9.323   7.873
63195SOL     OW91481  14.804   8.645   9.546
63195SOL    HW191482  14.804   8.594   9.465
63195SOL    HW291483   0.010   8.615   9.594
63196SOL     OW91484   3.115   4.330   8.614
63196SOL    HW191485   3.095   4.378   8.695
63196SOL    HW291486   3.105   4.238   8.637
63197SOL     OW91487   1.132   6.395  13.680
63197SOL    HW191488   1.063   6.357  13.735
63197SOL    HW291489   1.137   6.338  13.604
63198SOL     OW91490  12.842   8.572   8.364
63198SOL    HW191491  12.788   8.567   8.285
63198SOL    HW291492  12.836   8.485   8.404
63199SOL     OW91493  13.331   5.982   4.560
63199SOL    HW191494  13.352   6.006   4.650
63199SOL    HW291495  13.235   5.980   4.558
63200SOL     OW91496   7.913  13.326  13.175
63200SOL    HW191497   7.920  13.232  13.156
63200SOL    HW291498   7.967  13.368  13.107
63201SOL     OW91499   8.104  13.712  13.135
63201SOL    HW191500   8.032  13.659  13.101
63201SOL    HW291501   8.159  13.729  13.059
63202SOL     OW91502  10.839   0.053   6.821
63202SOL    HW191503  10.832  14.844   6.771
63202SOL    HW291504  10.765   0.049   6.882
63203SOL     OW91505  13.183   9.260  13.815
63203SOL    HW191506  13.180   9.325  13.745
63203SOL    HW291507  13.241   9.192  13.781
63204SOL     OW91508  10.095   2.909   8.781
63204SOL    HW191509  10.118   2.857   8.857
63204SOL    HW291510  10.138   2.866   8.708
63205SOL     OW91511  10.503   8.255   4.893
63205SOL    HW191512  10.519   8.262   4.799
63205SOL    HW291513  10.558   8.183   4.921
63206SOL     OW91514   2.731   6.218  11.702
63206SOL    HW191515   2.676   6.174  11.637
63206SOL    HW291516   2.677   6.289  11.736
63207SOL     OW91517  12.577   5.352  11.099
63207SOL    HW191518  12.652   5.299  11.127
63207SOL    HW291519  12.608   5.398  11.021
63208SOL     OW91520  13.291   4.122   7.833
63208SOL    HW191521  13.382   4.134   7.804
63208SOL    HW291522  13.239   4.172   7.771
63209SOL     OW91523  13.018   1.773   4.338
63209SOL    HW191524  13.087   1.840   4.334
63209SOL    HW291525  12.947   1.816   4.387
63210SOL     OW91526  10.588  10.142   2.396
63210SOL    HW191527  10.507  10.104   2.359
63210SOL    HW291528  10.586  10.117   2.488
63211SOL     OW91529  10.056   8.212   7.342
63211SOL    HW191530  10.113   8.180   7.273
63211SOL    HW291531  10.110   8.273   7.392
63212SOL     OW91532   1.770   9.244   1.505
63212SOL    HW191533   1.698   9.247   1.569
63212SOL    HW291534   1.740   9.300   1.433
63213SOL     OW91535   3.288  10.945  12.663
63213SOL    HW191536   3.289  10.849  12.653
63213SOL    HW291537   3.374  10.973  12.631
63214SOL     OW91538   3.515  12.792   5.493
63214SOL    HW191539   3.488  12.816   5.404
63214SOL    HW291540   3.610  12.788   5.489
63215SOL     OW91541  10.743  11.053   3.369
63215SOL    HW191542  10.738  11.147   3.383
63215SOL    HW291543  10.655  11.021   3.387
63216SOL     OW91544   4.739   1.292   6.020
63216SOL    HW191545   4.701   1.206   6.003
63216SOL    HW291546   4.797   1.308   5.946
63217SOL     OW91547   9.300   6.792   1.646
63217SOL    HW191548   9.244   6.831   1.580
63217SOL    HW291549   9.301   6.699   1.626
63218SOL     OW91550  11.152   9.946   9.670
63218SOL    HW191551  11.111   9.972   9.587
63218SOL    HW291552  11.169   9.852   9.660
63219SOL     OW91553   9.648   1.874  10.524
63219SOL    HW191554   9.739   1.861  10.550
63219SOL    HW291555   9.604   1.904  10.604
63220SOL     OW91556   5.244  11.791   4.097
63220SOL    HW191557   5.267  11.700   4.116
63220SOL    HW291558   5.162  11.785   4.046
63221SOL     OW91559   9.509   4.593   1.447
63221SOL    HW191560   9.434   4.624   1.499
63221SOL    HW291561   9.575   4.569   1.512
63222SOL     OW91562   1.336   0.637  14.834
63222SOL    HW191563   1.332   0.731  14.847
63222SOL    HW291564   1.338   0.599   0.050
63223SOL     OW91565  14.192   6.571  13.457
63223SOL    HW191566  14.141   6.579  13.537
63223SOL    HW291567  14.129   6.542  13.391
63224SOL     OW91568   7.620  13.115  13.514
63224SOL    HW191569   7.692  13.156  13.562
63224SOL    HW291570   7.648  13.024  13.501
63225SOL     OW91571   8.163  11.073   0.990
63225SOL    HW191572   8.210  11.046   0.911
63225SOL    HW291573   8.087  11.122   0.958
63226SOL     OW91574  14.661  12.567   2.290
63226SOL    HW191575  14.660  12.603   2.202
63226SOL    HW291576  14.748  12.588   2.324
63227SOL     OW91577   0.465  11.819  10.199
63227SOL    HW191578   0.484  11.906  10.165
63227SOL    HW291579   0.524  11.809  10.274
63228SOL     OW91580   7.822   9.563   0.418
63228SOL    HW191581   7.855   9.639   0.370
63228SOL    HW291582   7.731   9.586   0.438
63229SOL     OW91583   5.790   3.822   0.378
63229SOL    HW191584   5.779   3.910   0.343
63229SOL    HW291585   5.708   3.805   0.425
63230SOL     OW91586   0.981   9.060  11.572
63230SOL    HW191587   0.928   9.125  11.618
63230SOL    HW291588   0.917   9.007  11.524
63231SOL     OW91589  14.822   5.597  13.156
63231SOL    HW191590  14.803   5.649  13.235
63231SOL    HW291591  14.789   5.509  13.177
63232SOL     OW91592  11.548  13.220  12.430
63232SOL    HW191593  11.608  13.275  12.379
63232SOL    HW291594  11.508  13.161  12.366
63233SOL     OW91595  13.903  12.523  13.418
63233SOL    HW191596  13.924  12.442  13.465
63233SOL    HW291597  13.920  12.592  13.482
63234SOL     OW91598   9.425  11.173   5.153
63234SOL    HW191599   9.506  11.222   5.139
63234SOL    HW291600   9.453  11.084   5.174
63235SOL     OW91601   4.459  11.546   2.107
63235SOL    HW191602   4.368  11.568   2.087
63235SOL    HW291603   4.485  11.488   2.035
63236SOL     OW91604   6.687   5.072   4.456
63236SOL    HW191605   6.762   5.027   4.495
63236SOL    HW291606   6.725   5.129   4.389
63237SOL     OW91607  13.576   9.491   2.139
63237SOL    HW191608  13.663   9.469   2.104
63237SOL    HW291609  13.581   9.584   2.158
63238SOL     OW91610  11.368   1.050   9.950
63238SOL    HW191611  11.408   0.963   9.955
63238SOL    HW291612  11.437   1.106   9.913
63239SOL     OW91613   4.806   5.002   7.157
63239SOL    HW191614   4.797   4.907   7.163
63239SOL    HW291615   4.780   5.024   7.068
63240SOL     OW91616   4.173   3.106   0.861
63240SOL    HW191617   4.118   3.038   0.900
63240SOL    HW291618   4.184   3.078   0.770
63241SOL     OW91619   0.772   9.506   4.008
63241SOL    HW191620   0.765   9.473   4.097
63241SOL    HW291621   0.853   9.556   4.007
63242SOL     OW91622  10.944  12.644   6.280
63242SOL    HW191623  10.864  12.656   6.229
63242SOL    HW291624  10.948  12.721   6.337
63243SOL     OW91625   0.452   6.439   5.734
63243SOL    HW191626   0.521   6.503   5.753
63243SOL    HW291627   0.378   6.467   5.788
63244SOL     OW91628   8.420  12.616   3.871
63244SOL    HW191629   8.392  12.607   3.780
63244SOL    HW291630   8.406  12.709   3.891
63245SOL     OW91631   6.815   1.721  12.598
63245SOL    HW191632   6.860   1.774  12.531
63245SOL    HW291633   6.735   1.771  12.617
63246SOL     OW91634  10.611   8.292   2.801
63246SOL    HW191635  10.702   8.271   2.780
63246SOL    HW291636  10.567   8.207   2.801
63247SOL     OW91637  14.833   0.545   8.780
63247SOL    HW191638  14.870   0.632   8.794
63247SOL    HW291639   0.012   0.507   8.709
63248SOL     OW91640   8.635  14.363  11.648
63248SOL    HW191641   8.667  14.358  11.558
63248SOL    HW291642   8.678  14.441  11.684
63249SOL     OW91643   4.763  11.728   8.409
63249SOL    HW191644   4.837  11.677   8.376
63249SOL    HW291645   4.695  11.664   8.429
63250SOL     OW91646   0.122   2.364   0.826
63250SOL    HW191647   0.197   2.314   0.795
63250SOL    HW291648   0.129   2.361   0.921
63251SOL     OW91649   7.153  10.251  13.696
63251SOL    HW191650   7.141  10.232  13.789
63251SOL    HW291651   7.080  10.309  13.673
63252SOL     OW91652   1.971   3.273   6.594
63252SOL    HW191653   1.913   3.344   6.623
63252SOL    HW291654   2.007   3.237   6.675
63253SOL     OW91655   4.542  10.336   9.713
63253SOL    HW191656   4.577  10.416   9.674
63253SOL    HW291657   4.448  10.341   9.697
63254SOL     OW91658  14.282  13.710   4.745
63254SOL    HW191659  14.352  13.754   4.697
63254SOL    HW291660  14.317  13.623   4.764
63255SOL     OW91661   3.124   4.934   0.460
63255SOL    HW191662   3.154   4.942   0.550
63255SOL    HW291663   3.097   5.023   0.436
63256SOL     OW91664  12.128  11.324  14.467
63256SOL    HW191665  12.089  11.411  14.462
63256SOL    HW291666  12.194  11.323  14.399
63257SOL     OW91667   1.889   9.292   3.342
63257SOL    HW191668   1.818   9.349   3.372
63257SOL    HW291669   1.966   9.349   3.339
63258SOL     OW91670  12.220   2.936   9.289
63258SOL    HW191671  12.282   2.984   9.344
63258SOL    HW291672  12.254   2.847   9.285
63259SOL     OW91673  13.626  13.197  10.066
63259SOL    HW191674  13.593  13.148  10.142
63259SOL    HW291675  13.547  13.225  10.020
63260SOL     OW91676   2.311  14.768   1.744
63260SOL    HW191677   2.363  14.792   1.667
63260SOL    HW291678   2.237  14.718   1.708
63261SOL     OW91679   9.349   8.291   6.712
63261SOL    HW191680   9.312   8.373   6.744
63261SOL    HW291681   9.444   8.303   6.719
63262SOL     OW91682  11.078   6.480   3.192
63262SOL    HW191683  11.000   6.483   3.136
63262SOL    HW291684  11.048   6.444   3.275
63263SOL     OW91685   3.614   4.942   8.927
63263SOL    HW191686   3.603   4.871   8.864
63263SOL    HW291687   3.669   4.904   8.996
63264SOL     OW91688   2.385   9.104   5.716
63264SOL    HW191689   2.389   9.138   5.806
63264SOL    HW291690   2.477   9.097   5.689
63265SOL     OW91691  11.887  14.512   2.726
63265SOL    HW191692  11.922  14.427   2.753
63265SOL    HW291693  11.961  14.557   2.685
63266SOL     OW91694   2.822  11.575  10.229
63266SOL    HW191695   2.884  11.526  10.174
63266SOL    HW291696   2.748  11.516  10.240
63267SOL     OW91697   7.199  13.948   1.123
63267SOL    HW191698   7.258  13.945   1.048
63267SOL    HW291699   7.208  13.862   1.164
63268SOL     OW91700   5.232   8.678   2.630
63268SOL    HW191701   5.256   8.683   2.537
63268SOL    HW291702   5.303   8.626   2.669
63269SOL     OW91703   2.016   9.969   9.898
63269SOL    HW191704   2.088  10.029   9.879
63269SOL    HW291705   1.944  10.026   9.925
63270SOL     OW91706  12.681   6.362  11.668
63270SOL    HW191707  12.732   6.283  11.685
63270SOL    HW291708  12.700   6.419  11.742
63271SOL     OW91709   6.681   0.119   6.891
63271SOL    HW191710   6.727   0.143   6.810
63271SOL    HW291711   6.626   0.045   6.866
63272SOL     OW91712   9.588   4.167   2.732
63272SOL    HW191713   9.670   4.205   2.702
63272SOL    HW291714   9.569   4.213   2.814
63273SOL     OW91715   3.528   5.866  12.864
63273SOL    HW191716   3.486   5.831  12.942
63273SOL    HW291717   3.621   5.873  12.888
63274SOL     OW91718  11.378   6.937  12.095
63274SOL    HW191719  11.372   6.953  12.001
63274SOL    HW291720  11.345   7.017  12.136
63275SOL     OW91721   5.651   8.451   4.849
63275SOL    HW191722   5.618   8.493   4.928
63275SOL    HW291723   5.733   8.497   4.829
63276SOL     OW91724  12.955   9.047  12.420
63276SOL    HW191725  12.861   9.024  12.420
63276SOL    HW291726  12.958   9.134  12.458
63277SOL     OW91727  13.071  12.399  11.063
63277SOL    HW191728  12.979  12.376  11.072
63277SOL    HW291729  13.107  12.391  11.151
63278SOL     OW91730  14.544   4.098   7.279
63278SOL    HW191731  14.464   4.149   7.266
63278SOL    HW291732  14.539   4.027   7.215
63279SOL     OW91733   7.083  10.814   8.959
63279SOL    HW191734   7.088  10.873   8.883
63279SOL    HW291735   7.110  10.869   9.033
63280SOL     OW91736   7.612   2.506  10.747
63280SOL    HW191737   7.626   2.544  10.834
63280SOL    HW291738   7.518   2.513  10.732
63281SOL     OW91739  10.322  12.408  13.573
63281SOL    HW191740  10.330  12.443  13.662
63281SOL    HW291741  10.411  12.382  13.550
63282SOL     OW91742  12.425   8.815   3.056
63282SOL    HW191743  12.346   8.867   3.074
63282SOL    HW291744  12.394   8.724   3.057
63283SOL     OW91745   6.072   8.740   7.377
63283SOL    HW191746   6.096   8.691   7.299
63283SOL    HW291747   6.059   8.830   7.345
63284SOL     OW91748   2.324   4.259   9.739
63284SOL    HW191749   2.385   4.206   9.689
63284SOL    HW291750   2.242   4.254   9.690
63285SOL     OW91751   9.992  14.567  11.466
63285SOL    HW191752  10.061  14.581  11.531
63285SOL    HW291753   9.911  14.574  11.516
63286SOL     OW91754  10.369  11.452   1.686
63286SOL    HW191755  10.387  11.543   1.662
63286SOL    HW291756  10.455  11.414   1.703
63287SOL     OW91757  14.671   8.725   1.645
63287SOL    HW191758  14.733   8.684   1.705
63287SOL    HW291759  14.700   8.816   1.639
63288SOL     OW91760   9.994  10.865   1.913
63288SOL    HW191761   9.940  10.822   1.979
63288SOL    HW291762  10.078  10.878   1.957
63289SOL     OW91763   8.600  11.840   9.657
63289SOL    HW191764   8.680  11.892   9.656
63289SOL    HW291765   8.630  11.751   9.677
63290SOL     OW91766   9.877   2.482   9.655
63290SOL    HW191767   9.852   2.401   9.610
63290SOL    HW291768   9.935   2.454   9.725
63291SOL     OW91769  10.829   4.446   8.187
63291SOL    HW191770  10.761   4.425   8.250
63291SOL    HW291771  10.785   4.502   8.122
63292SOL     OW91772   9.205   3.568  12.826
63292SOL    HW191773   9.286   3.568  12.878
63292SOL    HW291774   9.140   3.607  12.884
63293SOL     OW91775  12.985  13.159   1.990
63293SOL    HW191776  13.003  13.253   1.993
63293SOL    HW291777  13.067  13.120   1.959
63294SOL     OW91778  11.425   8.165  10.153
63294SOL    HW191779  11.497   8.146  10.212
63294SOL    HW291780  11.449   8.248  10.112
63295SOL     OW91781  12.773   9.877  14.700
63295SOL    HW191782  12.808   9.914  14.781
63295SOL    HW291783  12.772   9.782  14.715
63296SOL     OW91784  10.212   8.467   4.865
63296SOL    HW191785  10.245   8.498   4.781
63296SOL    HW291786  10.286   8.475   4.925
63297SOL     OW91787  10.727   6.483   2.467
63297SOL    HW191788  10.804   6.537   2.452
63297SOL    HW291789  10.702   6.500   2.558
63298SOL     OW91790  14.206  11.848  11.108
63298SOL    HW191791  14.274  11.803  11.159
63298SOL    HW291792  14.239  11.846  11.018
63299SOL     OW91793   3.881  13.380   2.316
63299SOL    HW191794   3.937  13.325   2.372
63299SOL    HW291795   3.881  13.336   2.231
63300SOL     OW91796   3.502   6.552  13.283
63300SOL    HW191797   3.463   6.466  13.266
63300SOL    HW291798   3.484   6.569  13.376
63301SOL     OW91799  11.935   8.849   0.623
63301SOL    HW191800  11.894   8.920   0.574
63301SOL    HW291801  12.026   8.876   0.633
63302SOL     OW91802  14.439   6.655  11.254
63302SOL    HW191803  14.345   6.667  11.260
63302SOL    HW291804  14.473   6.689  11.337
63303SOL     OW91805   6.976   3.486  13.291
63303SOL    HW191806   6.992   3.393  13.308
63303SOL    HW291807   6.948   3.490  13.200
63304SOL     OW91808  12.835  13.778  12.451
63304SOL    HW191809  12.777  13.800  12.379
63304SOL    HW291810  12.830  13.854  12.510
63305SOL     OW91811   0.354   1.958  12.987
63305SOL    HW191812   0.321   2.048  12.983
63305SOL    HW291813   0.389   1.941  12.900
63306SOL     OW91814   8.045   6.605  11.001
63306SOL    HW191815   8.087   6.672  10.947
63306SOL    HW291816   7.955   6.602  10.970
63307SOL     OW91817  14.525   2.291   3.505
63307SOL    HW191818  14.577   2.219   3.469
63307SOL    HW291819  14.507   2.266   3.595
63308SOL     OW91820  13.964   7.634   8.211
63308SOL    HW191821  13.978   7.626   8.306
63308SOL    HW291822  13.876   7.671   8.203
63309SOL     OW91823   5.313   8.302   8.061
63309SOL    HW191824   5.395   8.259   8.086
63309SOL    HW291825   5.306   8.286   7.966
63310SOL     OW91826   4.262   8.058   4.085
63310SOL    HW191827   4.352   8.054   4.054
63310SOL    HW291828   4.268   8.099   4.171
63311SOL     OW91829  12.161   6.793  13.982
63311SOL    HW191830  12.212   6.740  13.921
63311SOL    HW291831  12.180   6.884  13.958
63312SOL     OW91832   5.532  13.084   7.815
63312SOL    HW191833   5.514  12.996   7.848
63312SOL    HW291834   5.588  13.124   7.881
63313SOL     OW91835   3.105   3.721   5.439
63313SOL    HW191836   3.164   3.797   5.443
63313SOL    HW291837   3.112   3.682   5.526
63314SOL     OW91838   0.440  13.130   6.103
63314SOL    HW191839   0.500  13.055   6.095
63314SOL    HW291840   0.409  13.126   6.194
63315SOL     OW91841  11.514   1.669   0.120
63315SOL    HW191842  11.459   1.747   0.125
63315SOL    HW291843  11.504   1.638   0.030
63316SOL     OW91844   7.150   7.558   7.231
63316SOL    HW191845   7.236   7.536   7.266
63316SOL    HW291846   7.126   7.639   7.277
63317SOL     OW91847   0.440   6.541   5.446
63317SOL    HW191848   0.477   6.544   5.535
63317SOL    HW291849   0.509   6.501   5.393
63318SOL     OW91850   9.953  11.403   6.537
63318SOL    HW191851   9.992  11.379   6.621
63318SOL    HW291852   9.965  11.325   6.483
63319SOL     OW91853  11.038   0.035  12.901
63319SOL    HW191854  10.996   0.015  12.817
63319SOL    HW291855  11.103   0.102  12.880
63320SOL     OW91856  12.846   2.822   2.543
63320SOL    HW191857  12.898   2.753   2.502
63320SOL    HW291858  12.824   2.787   2.630
63321SOL     OW91859   1.513  11.728   3.558
63321SOL    HW191860   1.446  11.663   3.538
63321SOL    HW291861   1.486  11.806   3.509
63322SOL     OW91862   2.549  11.279   8.910
63322SOL    HW191863   2.468  11.277   8.961
63322SOL    HW291864   2.528  11.233   8.829
63323SOL     OW91865   3.442   4.320  10.351
63323SOL    HW191866   3.393   4.382  10.297
63323SOL    HW291867   3.522   4.303  10.301
63324SOL     OW91868  14.548   8.420   4.051
63324SOL    HW191869  14.552   8.358   4.124
63324SOL    HW291870  14.519   8.502   4.092
63325SOL     OW91871   5.201   7.691   7.591
63325SOL    HW191872   5.237   7.638   7.662
63325SOL    HW291873   5.277   7.726   7.546
63326SOL     OW91874   3.808   6.059   2.272
63326SOL    HW191875   3.791   5.975   2.315
63326SOL    HW291876   3.846   6.114   2.341
63327SOL     OW91877  11.654   3.474   1.496
63327SOL    HW191878  11.608   3.493   1.414
63327SOL    HW291879  11.692   3.387   1.482
63328SOL     OW91880   7.139   4.666  10.700
63328SOL    HW191881   7.208   4.693  10.761
63328SOL    HW291882   7.171   4.691  10.614
63329SOL     OW91883  13.030   7.620   7.828
63329SOL    HW191884  13.081   7.699   7.844
63329SOL    HW291885  12.940   7.652   7.815
63330SOL     OW91886   0.289  13.851  12.365
63330SOL    HW191887   0.231  13.903  12.309
63330SOL    HW291888   0.238  13.774  12.388
63331SOL     OW91889  14.706   7.438   1.896
63331SOL    HW191890  14.790   7.440   1.850
63331SOL    HW291891  14.641   7.454   1.828
63332SOL     OW91892  10.063  11.071   9.403
63332SOL    HW191893  10.060  10.983   9.365
63332SOL    HW291894  10.025  11.128   9.336
63333SOL     OW91895   1.340   9.307  13.574
63333SOL    HW191896   1.349   9.378  13.637
63333SOL    HW291897   1.247   9.284  13.577
63334SOL     OW91898   3.454   1.837   9.178
63334SOL    HW191899   3.549   1.852   9.178
63334SOL    HW291900   3.445   1.742   9.188
63335SOL     OW91901   4.680   7.342   0.762
63335SOL    HW191902   4.740   7.416   0.757
63335SOL    HW291903   4.736   7.265   0.753
63336SOL     OW91904   6.521   7.851  10.298
63336SOL    HW191905   6.568   7.785  10.349
63336SOL    HW291906   6.493   7.916  10.362
63337SOL     OW91907   6.065   4.420   7.751
63337SOL    HW191908   6.052   4.374   7.835
63337SOL    HW291909   6.024   4.505   7.764
63338SOL     OW91910   3.501  12.085   2.154
63338SOL    HW191911   3.416  12.121   2.127
63338SOL    HW291912   3.487  11.990   2.154
63339SOL     OW91913  14.751   6.503   0.980
63339SOL    HW191914  14.667   6.539   0.951
63339SOL    HW291915  14.752   6.414   0.945
63340SOL     OW91916  12.652   3.502   6.976
63340SOL    HW191917  12.673   3.419   6.933
63340SOL    HW291918  12.687   3.492   7.065
63341SOL     OW91919  10.728  12.927   7.793
63341SOL    HW191920  10.754  12.845   7.833
63341SOL    HW291921  10.810  12.968   7.764
63342SOL     OW91922   3.465   1.488   5.104
63342SOL    HW191923   3.397   1.556   5.102
63342SOL    HW291924   3.429   1.420   5.162
63343SOL     OW91925  12.257  13.729  12.950
63343SOL    HW191926  12.295  13.798  12.895
63343SOL    HW291927  12.329  13.668  12.964
63344SOL     OW91928  11.725   7.305   9.890
63344SOL    HW191929  11.688   7.361   9.822
63344SOL    HW291930  11.696   7.217   9.867
63345SOL     OW91931   8.815  12.189  11.302
63345SOL    HW191932   8.764  12.129  11.247
63345SOL    HW291933   8.878  12.229  11.242
63346SOL     OW91934   5.783  11.634   6.292
63346SOL    HW191935   5.784  11.539   6.302
63346SOL    HW291936   5.862  11.664   6.338
63347SOL     OW91937   3.244  11.383   0.880
63347SOL    HW191938   3.240  11.354   0.789
63347SOL    HW291939   3.158  11.362   0.916
63348SOL     OW91940   9.139   7.061   9.028
63348SOL    HW191941   9.145   7.155   9.046
63348SOL    HW291942   9.045   7.043   9.028
63349SOL     OW91943   2.118  10.436   9.519
63349SOL    HW191944   2.118  10.396   9.432
63349SOL    HW291945   2.211  10.438   9.544
63350SOL     OW91946  11.854   4.105  14.110
63350SOL    HW191947  11.822   4.160  14.181
63350SOL    HW291948  11.789   4.035  14.102
63351SOL     OW91949  14.235   0.725   9.812
63351SOL    HW191950  14.250   0.632   9.790
63351SOL    HW291951  14.278   0.736   9.897
63352SOL     OW91952  12.722  10.498  13.554
63352SOL    HW191953  12.794  10.470  13.498
63352SOL    HW291954  12.646  10.501  13.496
63353SOL     OW91955  14.020  12.249   9.051
63353SOL    HW191956  14.047  12.166   9.012
63353SOL    HW291957  13.979  12.298   8.979
63354SOL     OW91958  11.068   8.717   6.027
63354SOL    HW191959  11.040   8.636   5.983
63354SOL    HW291960  11.160   8.727   6.002
63355SOL     OW91961  11.779   7.331  14.680
63355SOL    HW191962  11.756   7.354  14.770
63355SOL    HW291963  11.702   7.353  14.628
63356SOL     OW91964   6.848  10.189  10.556
63356SOL    HW191965   6.915  10.257  10.549
63356SOL    HW291966   6.897  10.107  10.559
63357SOL     OW91967  10.260  14.717  10.933
63357SOL    HW191968  10.226  14.638  10.974
63357SOL    HW291969  10.236  14.788  10.993
63358SOL     OW91970  11.041   2.493   1.631
63358SOL    HW191971  10.954   2.460   1.651
63358SOL    HW291972  11.035   2.524   1.541
63359SOL     OW91973   6.517  14.374  11.741
63359SOL    HW191974   6.481  14.311  11.803
63359SOL    HW291975   6.539  14.322  11.664
63360SOL     OW91976   6.666   5.409   5.417
63360SOL    HW191977   6.708   5.464   5.351
63360SOL    HW291978   6.699   5.442   5.500
63361SOL     OW91979  13.582   0.437   8.909
63361SOL    HW191980  13.529   0.362   8.935
63361SOL    HW291981  13.642   0.402   8.843
63362SOL     OW91982  11.641   5.538   0.172
63362SOL    HW191983  11.585   5.492   0.108
63362SOL    HW291984  11.719   5.562   0.122
63363SOL     OW91985   2.449  11.964   0.706
63363SOL    HW191986   2.378  11.966   0.770
63363SOL    HW291987   2.491  12.050   0.715
63364SOL     OW91988   9.828   6.232   8.831
63364SOL    HW191989   9.760   6.257   8.893
63364SOL    HW291990   9.904   6.284   8.857
63365SOL     OW91991   0.265   0.224   8.953
63365SOL    HW191992   0.298   0.247   8.866
63365SOL    HW291993   0.330   0.259   9.014
63366SOL     OW91994   5.468   0.753  10.738
63366SOL    HW191995   5.409   0.679  10.725
63366SOL    HW291996   5.492   0.749  10.830
63367SOL     OW91997   2.471   1.381   5.863
63367SOL    HW191998   2.516   1.297   5.868
63367SOL    HW291999   2.472   1.415   5.952
63368SOL     OW92000  12.331   0.876   0.168
63368SOL    HW192001  12.323   0.968   0.144
63368SOL    HW292002  12.314   0.874   0.262
63369SOL     OW92003   0.815   4.161   3.475
63369SOL    HW192004   0.761   4.083   3.488
63369SOL    HW292005   0.799   4.214   3.553
63370SOL     OW92006  13.402  14.243  14.333
63370SOL    HW192007  13.449  14.326  14.345
63370SOL    HW292008  13.462  14.188  14.283
63371SOL     OW92009   7.977   2.980   9.813
63371SOL    HW192010   8.042   2.910   9.810
63371SOL    HW292011   7.968   3.007   9.722
63372SOL     OW92012   6.486   7.446   1.961
63372SOL    HW192013   6.580   7.430   1.958
63372SOL    HW292014   6.454   7.414   1.877
63373SOL     OW92015   7.193  14.777   0.006
63373SOL    HW192016   7.122  14.745  14.823
63373SOL    HW292017   7.210  14.705   0.067
63374SOL     OW92018   1.664   3.219   5.181
63374SOL    HW192019   1.756   3.220   5.205
63374SOL    HW292020   1.661   3.177   5.096
63375SOL     OW92021  13.174   0.135   6.252
63375SOL    HW192022  13.251   0.123   6.308
63375SOL    HW292023  13.210   0.153   6.165
63376SOL     OW92024  10.650   5.087   3.445
63376SOL    HW192025  10.656   5.165   3.388
63376SOL    HW292026  10.665   5.121   3.533
63377SOL     OW92027   5.479   9.855   2.959
63377SOL    HW192028   5.410   9.789   2.962
63377SOL    HW292029   5.487   9.885   3.050
63378SOL     OW92030  11.841   2.788  11.280
63378SOL    HW192031  11.914   2.747  11.326
63378SOL    HW292032  11.880   2.825  11.201
63379SOL     OW92033   8.578   3.850  10.600
63379SOL    HW192034   8.552   3.785  10.667
63379SOL    HW292035   8.673   3.850  10.602
63380SOL     OW92036  12.807  14.246   8.001
63380SOL    HW192037  12.730  14.253   8.058
63380SOL    HW292038  12.780  14.284   7.918
63381SOL     OW92039  11.037  11.738  14.108
63381SOL    HW192040  11.121  11.769  14.144
63381SOL    HW292041  10.976  11.743  14.181
63382SOL     OW92042  10.551   9.257   6.552
63382SOL    HW192043  10.530   9.232   6.462
63382SOL    HW292044  10.622   9.321   6.544
63383SOL     OW92045   8.576   5.672   1.006
63383SOL    HW192046   8.499   5.616   1.014
63383SOL    HW292047   8.548   5.745   0.950
63384SOL     OW92048   1.341   2.797   2.408
63384SOL    HW192049   1.268   2.769   2.354
63384SOL    HW292050   1.330   2.749   2.490
63385SOL     OW92051   3.486   4.861   4.463
63385SOL    HW192052   3.536   4.920   4.518
63385SOL    HW292053   3.544   4.842   4.389
63386SOL     OW92054   4.392   7.958   0.323
63386SOL    HW192055   4.437   7.877   0.343
63386SOL    HW292056   4.460   8.017   0.290
63387SOL     OW92057  11.554  12.097  11.725
63387SOL    HW192058  11.523  12.015  11.687
63387SOL    HW292059  11.605  12.071  11.801
63388SOL     OW92060  13.065   9.327  10.610
63388SOL    HW192061  13.088   9.295  10.697
63388SOL    HW292062  13.109   9.267  10.550
63389SOL     OW92063   9.959   4.551   6.168
63389SOL    HW192064   9.865   4.532   6.165
63389SOL    HW292065   9.973   4.586   6.256
63390SOL     OW92066  10.191   3.738   7.356
63390SOL    HW192067  10.136   3.685   7.299
63390SOL    HW292068  10.223   3.676   7.422
63391SOL     OW92069   3.461   6.422  12.736
63391SOL    HW192070   3.491   6.362  12.804
63391SOL    HW292071   3.425   6.497  12.785
63392SOL     OW92072   5.819   2.038   3.603
63392SOL    HW192073   5.747   2.001   3.653
63392SOL    HW292074   5.797   2.019   3.512
63393SOL     OW92075   7.404  14.756  10.558
63393SOL    HW192076   7.465  14.698  10.513
63393SOL    HW292077   7.334  14.772  10.496
63394SOL     OW92078   6.768   2.376   0.465
63394SOL    HW192079   6.802   2.294   0.430
63394SOL    HW292080   6.827   2.443   0.431
63395SOL     OW92081   0.428  12.765  13.313
63395SOL    HW192082   0.429  12.669  13.313
63395SOL    HW292083   0.521  12.789  13.320
63396SOL     OW92084   0.808   0.954   3.782
63396SOL    HW192085   0.889   0.983   3.825
63396SOL    HW292086   0.740   1.013   3.816
63397SOL     OW92087   9.858   1.362  11.140
63397SOL    HW192088   9.944   1.389  11.172
63397SOL    HW292089   9.877   1.307  11.064
63398SOL     OW92090  14.655   0.878  14.166
63398SOL    HW192091  14.690   0.789  14.164
63398SOL    HW292092  14.732   0.934  14.169
63399SOL     OW92093  14.771   1.404  13.650
63399SOL    HW192094  14.842   1.340  13.651
63399SOL    HW292095  14.710   1.370  13.585
63400SOL     OW92096   6.144   2.260  14.201
63400SOL    HW192097   6.197   2.317  14.256
63400SOL    HW292098   6.207   2.211  14.149
63401SOL     OW92099  11.093   3.383   1.429
63401SOL    HW192100  11.038   3.460   1.444
63401SOL    HW292101  11.170   3.399   1.483
63402SOL     OW92102  10.481  14.651   6.856
63402SOL    HW192103  10.402  14.680   6.902
63402SOL    HW292104  10.449  14.609   6.777
63403SOL     OW92105  10.946   2.439  14.365
63403SOL    HW192106  10.871   2.414  14.310
63403SOL    HW292107  10.907   2.486  14.439
63404SOL     OW92108   0.627   2.553   1.675
63404SOL    HW192109   0.710   2.527   1.715
63404SOL    HW292110   0.649   2.627   1.619
63405SOL     OW92111   1.485   7.944  13.698
63405SOL    HW192112   1.548   7.905  13.638
63405SOL    HW292113   1.446   7.870  13.744
63406SOL     OW92114   1.529   5.838   9.589
63406SOL    HW192115   1.492   5.762   9.545
63406SOL    HW292116   1.617   5.848   9.551
63407SOL     OW92117  14.366  10.409   5.201
63407SOL    HW192118  14.421  10.371   5.269
63407SOL    HW292119  14.383  10.355   5.123
63408SOL     OW92120   0.875  11.978   1.632
63408SOL    HW192121   0.789  11.955   1.597
63408SOL    HW292122   0.935  11.914   1.593
63409SOL     OW92123  14.516   9.287  13.765
63409SOL    HW192124  14.499   9.291  13.671
63409SOL    HW292125  14.542   9.196  13.780
63410SOL     OW92126   5.989   6.077  14.031
63410SOL    HW192127   6.025   6.165  14.039
63410SOL    HW292128   5.923   6.084  13.963
63411SOL     OW92129   8.442   0.293   0.637
63411SOL    HW192130   8.358   0.309   0.594
63411SOL    HW292131   8.444   0.198   0.652
63412SOL     OW92132   8.702  14.325  10.057
63412SOL    HW192133   8.646  14.353   9.985
63412SOL    HW292134   8.772  14.391  10.061
63413SOL     OW92135   8.285   7.897  14.695
63413SOL    HW192136   8.244   7.908  14.609
63413SOL    HW292137   8.378   7.884  14.676
63414SOL     OW92138   7.673   2.625  13.002
63414SOL    HW192139   7.698   2.611  12.911
63414SOL    HW292140   7.750   2.597  13.052
63415SOL     OW92141   2.306   0.011  13.399
63415SOL    HW192142   2.299   0.078  13.467
63415SOL    HW292143   2.383  14.832  13.425
63416SOL     OW92144   4.365   0.993   0.733
63416SOL    HW192145   4.274   0.984   0.760
63416SOL    HW292146   4.403   0.906   0.747
63417SOL     OW92147   5.037  11.544   2.494
63417SOL    HW192148   5.017  11.452   2.511
63417SOL    HW292149   5.132  11.548   2.488
63418SOL     OW92150  11.003   5.947   7.210
63418SOL    HW192151  11.080   5.953   7.153
63418SOL    HW292152  10.966   6.036   7.210
63419SOL     OW92153   1.198   7.059   8.681
63419SOL    HW192154   1.147   7.118   8.624
63419SOL    HW292155   1.241   6.999   8.620
63420SOL     OW92156   9.284   3.087   2.706
63420SOL    HW192157   9.361   3.060   2.655
63420SOL    HW292158   9.315   3.091   2.796
63421SOL     OW92159   3.750   3.024  12.127
63421SOL    HW192160   3.690   2.954  12.152
63421SOL    HW292161   3.717   3.055  12.043
63422SOL     OW92162  11.595   5.750   1.071
63422SOL    HW192163  11.571   5.658   1.081
63422SOL    HW292164  11.653   5.767   1.146
63423SOL     OW92165   6.249   9.733  14.715
63423SOL    HW192166   6.340   9.763  14.713
63423SOL    HW292167   6.255   9.638  14.712
63424SOL     OW92168  13.505   2.812   8.373
63424SOL    HW192169  13.560   2.885   8.345
63424SOL    HW292170  13.563   2.736   8.372
63425SOL     OW92171   5.919   4.547   4.684
63425SOL    HW192172   5.928   4.634   4.722
63425SOL    HW292173   5.870   4.497   4.750
63426SOL     OW92174   0.234   2.706   2.389
63426SOL    HW192175   0.207   2.707   2.297
63426SOL    HW292176   0.174   2.766   2.432
63427SOL     OW92177   0.297   7.391   6.132
63427SOL    HW192178   0.360   7.320   6.121
63427SOL    HW292179   0.308   7.418   6.224
63428SOL     OW92180  12.593  10.108   8.672
63428SOL    HW192181  12.604  10.198   8.642
63428SOL    HW292182  12.500  10.090   8.659
63429SOL     OW92183   0.817  11.588  14.020
63429SOL    HW192184   0.821  11.683  14.031
63429SOL    HW292185   0.731  11.564  14.056
63430SOL     OW92186   7.362   0.976  12.341
63430SOL    HW192187   7.451   0.957  12.370
63430SOL    HW292188   7.306   0.925  12.399
63431SOL     OW92189  10.920   6.324  10.988
63431SOL    HW192190  10.904   6.396  11.049
63431SOL    HW292191  10.881   6.247  11.030
63432SOL     OW92192   8.147  12.894   4.593
63432SOL    HW192193   8.166  12.801   4.600
63432SOL    HW292194   8.233  12.935   4.583
63433SOL     OW92195   6.138   2.100   7.352
63433SOL    HW192196   6.221   2.130   7.317
63433SOL    HW292197   6.072   2.155   7.310
63434SOL     OW92198  14.293   2.233  11.054
63434SOL    HW192199  14.254   2.315  11.082
63434SOL    HW292200  14.310   2.244  10.961
63435SOL     OW92201  11.801   7.440  13.383
63435SOL    HW192202  11.743   7.364  13.383
63435SOL    HW292203  11.745   7.513  13.409
63436SOL     OW92204   3.746  13.996   3.262
63436SOL    HW192205   3.800  14.044   3.199
63436SOL    HW292206   3.805  13.981   3.336
63437SOL     OW92207  11.957   1.332   9.483
63437SOL    HW192208  11.955   1.407   9.542
63437SOL    HW292209  12.049   1.325   9.457
63438SOL     OW92210   9.262   3.248   8.812
63438SOL    HW192211   9.178   3.284   8.842
63438SOL    HW292212   9.314   3.324   8.787
63439SOL     OW92213   3.458  14.146   7.918
63439SOL    HW192214   3.410  14.220   7.880
63439SOL    HW292215   3.537  14.139   7.864
63440SOL     OW92216  10.990   6.659   2.167
63440SOL    HW192217  10.995   6.700   2.081
63440SOL    HW292218  11.071   6.685   2.211
63441SOL     OW92219  12.814   3.844  12.003
63441SOL    HW192220  12.853   3.815  11.921
63441SOL    HW292221  12.800   3.938  11.991
63442SOL     OW92222   6.115   1.914  10.520
63442SOL    HW192223   6.194   1.968  10.530
63442SOL    HW292224   6.085   1.898  10.609
63443SOL     OW92225  12.460  11.386  13.454
63443SOL    HW192226  12.475  11.475  13.422
63443SOL    HW292227  12.477  11.330  13.379
63444SOL     OW92228   7.988   0.229   1.230
63444SOL    HW192229   7.917   0.180   1.190
63444SOL    HW292230   7.999   0.190   1.316
63445SOL     OW92231  13.618   8.251   7.919
63445SOL    HW192232  13.585   8.305   7.846
63445SOL    HW292233  13.698   8.212   7.885
63446SOL     OW92234   1.868   5.668  13.508
63446SOL    HW192235   1.934   5.623  13.560
63446SOL    HW292236   1.846   5.606  13.438
63447SOL     OW92237   2.684   0.933   0.830
63447SOL    HW192238   2.706   1.018   0.793
63447SOL    HW292239   2.688   0.873   0.755
63448SOL     OW92240  12.765   4.155  13.682
63448SOL    HW192241  12.693   4.176  13.742
63448SOL    HW292242  12.723   4.145  13.597
63449SOL     OW92243   3.887   4.799   7.543
63449SOL    HW192244   3.889   4.738   7.469
63449SOL    HW292245   3.978   4.826   7.554
63450SOL     OW92246  12.534   2.339   4.788
63450SOL    HW192247  12.551   2.418   4.738
63450SOL    HW292248  12.531   2.268   4.723
63451SOL     OW92249  10.716   4.676   0.542
63451SOL    HW192250  10.675   4.762   0.539
63451SOL    HW292251  10.785   4.684   0.608
63452SOL     OW92252   4.342   7.236   7.037
63452SOL    HW192253   4.312   7.219   6.947
63452SOL    HW292254   4.306   7.322   7.058
63453SOL     OW92255  10.043   2.465   9.862
63453SOL    HW192256  10.024   2.558   9.851
63453SOL    HW292257  10.139   2.461   9.868
63454SOL     OW92258   2.922   3.004   4.979
63454SOL    HW192259   3.013   3.004   4.949
63454SOL    HW292260   2.887   3.088   4.947
63455SOL     OW92261  10.790  12.720  14.255
63455SOL    HW192262  10.709  12.747  14.298
63455SOL    HW292263  10.805  12.786  14.187
63456SOL     OW92264   0.326   9.988  14.266
63456SOL    HW192265   0.281  10.046  14.327
63456SOL    HW292266   0.376   9.928  14.321
63457SOL     OW92267   1.797  14.278  13.718
63457SOL    HW192268   1.892  14.282  13.708
63457SOL    HW292269   1.763  14.293  13.630
63458SOL     OW92270   4.979  11.301  11.450
63458SOL    HW192271   4.989  11.365  11.380
63458SOL    HW292272   5.054  11.243  11.441
63459SOL     OW92273   9.120  14.464   5.343
63459SOL    HW192274   9.050  14.516   5.303
63459SOL    HW292275   9.173  14.528   5.390
63460SOL     OW92276  12.384   5.058   1.258
63460SOL    HW192277  12.317   5.028   1.319
63460SOL    HW292278  12.406   4.980   1.207
63461SOL     OW92279  10.004   9.487   1.630
63461SOL    HW192280  10.038   9.450   1.712
63461SOL    HW292281  10.030   9.579   1.633
63462SOL     OW92282   6.471  10.506   2.692
63462SOL    HW192283   6.515  10.563   2.629
63462SOL    HW292284   6.439  10.565   2.760
63463SOL     OW92285   4.564  11.157   8.546
63463SOL    HW192286   4.640  11.166   8.604
63463SOL    HW292287   4.498  11.216   8.584
63464SOL     OW92288   7.231   1.856   5.029
63464SOL    HW192289   7.214   1.948   5.048
63464SOL    HW292290   7.261   1.820   5.113
63465SOL     OW92291   9.699   8.560   6.443
63465SOL    HW192292   9.749   8.499   6.497
63465SOL    HW292293   9.746   8.643   6.450
63466SOL     OW92294  13.743   4.170  14.141
63466SOL    HW192295  13.749   4.249  14.193
63466SOL    HW292296  13.801   4.108  14.184
63467SOL     OW92297   2.400   2.928   1.702
63467SOL    HW192298   2.467   2.870   1.738
63467SOL    HW292299   2.357   2.966   1.779
63468SOL     OW92300   8.061  12.562   2.568
63468SOL    HW192301   8.101  12.509   2.638
63468SOL    HW292302   8.011  12.499   2.516
63469SOL     OW92303  14.822  12.869   9.965
63469SOL    HW192304  14.845  12.881   9.873
63469SOL    HW292305  14.841  12.954  10.005
63470SOL     OW92306   9.823   5.127   4.613
63470SOL    HW192307   9.884   5.089   4.550
63470SOL    HW292308   9.754   5.062   4.621
63471SOL     OW92309   7.949   9.623   7.225
63471SOL    HW192310   7.912   9.646   7.310
63471SOL    HW292311   7.873   9.610   7.168
63472SOL     OW92312  14.618   0.243   4.660
63472SOL    HW192313  14.542   0.209   4.614
63472SOL    HW292314  14.691   0.232   4.598
63473SOL     OW92315  12.071   2.688  13.464
63473SOL    HW192316  12.073   2.616  13.526
63473SOL    HW292317  11.983   2.684  13.426
63474SOL     OW92318   4.754   5.980   5.632
63474SOL    HW192319   4.746   5.924   5.710
63474SOL    HW292320   4.842   5.963   5.599
63475SOL     OW92321   6.552  11.121  12.649
63475SOL    HW192322   6.576  11.059  12.719
63475SOL    HW292323   6.599  11.201  12.671
63476SOL     OW92324  13.590   4.943  12.282
63476SOL    HW192325  13.555   4.855  12.268
63476SOL    HW292326  13.536   4.999  12.227
63477SOL     OW92327   3.739  14.723  14.814
63477SOL    HW192328   3.743  14.762  14.726
63477SOL    HW292329   3.651  14.687  14.820
63478SOL     OW92330   5.336   3.621   4.703
63478SOL    HW192331   5.352   3.696   4.760
63478SOL    HW292332   5.326   3.658   4.616
63479SOL     OW92333   1.353   6.382  14.413
63479SOL    HW192334   1.441   6.389  14.375
63479SOL    HW292335   1.367   6.374  14.507
63480SOL     OW92336  13.521   5.787  13.469
63480SOL    HW192337  13.550   5.817  13.383
63480SOL    HW292338  13.593   5.808  13.528
63481SOL     OW92339   5.080   8.000  11.977
63481SOL    HW192340   5.118   8.084  11.952
63481SOL    HW292341   4.994   7.999  11.936
63482SOL     OW92342   0.374   1.364  10.049
63482SOL    HW192343   0.304   1.427  10.067
63482SOL    HW292344   0.349   1.286  10.099
63483SOL     OW92345   2.138   2.265   4.535
63483SOL    HW192346   2.104   2.203   4.599
63483SOL    HW292347   2.206   2.314   4.582
63484SOL     OW92348   4.109  12.535   4.129
63484SOL    HW192349   4.199  12.557   4.153
63484SOL    HW292350   4.073  12.493   4.208
63485SOL     OW92351   3.311   1.935  10.750
63485SOL    HW192352   3.246   1.865  10.745
63485SOL    HW292353   3.260   2.014  10.769
63486SOL     OW92354   3.739  13.935   5.058
63486SOL    HW192355   3.731  14.029   5.072
63486SOL    HW292356   3.649  13.902   5.056
63487SOL     OW92357  12.015   6.146  12.352
63487SOL    HW192358  11.961   6.223  12.364
63487SOL    HW292359  11.970   6.077  12.402
63488SOL     OW92360  14.007   5.521   2.753
63488SOL    HW192361  14.069   5.474   2.697
63488SOL    HW292362  13.978   5.595   2.699
63489SOL     OW92363  12.328   1.666   5.164
63489SOL    HW192364  12.396   1.719   5.206
63489SOL    HW292365  12.368   1.581   5.150
63490SOL     OW92366   4.789   1.459  11.718
63490SOL    HW192367   4.765   1.369  11.739
63490SOL    HW292368   4.832   1.454  11.633
63491SOL     OW92369   4.215   5.340  10.653
63491SOL    HW192370   4.290   5.290  10.622
63491SOL    HW292371   4.176   5.285  10.721
63492SOL     OW92372   4.192  11.858  13.780
63492SOL    HW192373   4.210  11.850  13.874
63492SOL    HW292374   4.105  11.899  13.776
63493SOL     OW92375   4.603  14.164   5.457
63493SOL    HW192376   4.589  14.197   5.546
63493SOL    HW292377   4.635  14.075   5.469
63494SOL     OW92378   0.384   3.070   4.465
63494SOL    HW192379   0.380   3.000   4.530
63494SOL    HW292380   0.474   3.069   4.433
63495SOL     OW92381  11.846   4.701  12.774
63495SOL    HW192382  11.826   4.646  12.849
63495SOL    HW292383  11.941   4.691  12.761
63496SOL     OW92384   7.645   5.747  11.866
63496SOL    HW192385   7.598   5.756  11.949
63496SOL    HW292386   7.608   5.668  11.826
63497SOL     OW92387  10.433   6.104   8.916
63497SOL    HW192388  10.486   6.179   8.944
63497SOL    HW292389  10.394   6.071   8.997
63498SOL     OW92390   8.324  14.663  10.762
63498SOL    HW192391   8.322  14.741  10.707
63498SOL    HW292392   8.234  14.652  10.792
63499SOL     OW92393   7.314   8.873   6.552
63499SOL    HW192394   7.237   8.850   6.499
63499SOL    HW292395   7.280   8.878   6.641
63500SOL     OW92396   0.790   6.365  14.670
63500SOL    HW192397   0.780   6.292  14.732
63500SOL    HW292398   0.738   6.340  14.594
63501SOL     OW92399   5.820   8.274   3.915
63501SOL    HW192400   5.738   8.232   3.941
63501SOL    HW292401   5.794   8.357   3.877
63502SOL     OW92402   9.906   6.024   8.133
63502SOL    HW192403   9.947   6.001   8.217
63502SOL    HW292404   9.883   5.940   8.093
63503SOL     OW92405  12.165   9.129   9.025
63503SOL    HW192406  12.161   9.053   9.082
63503SOL    HW292407  12.083   9.175   9.040
63504SOL     OW92408   3.514   9.222  10.007
63504SOL    HW192409   3.430   9.267   9.995
63504SOL    HW292410   3.490   9.130  10.020
63505SOL     OW92411   9.293   2.532   6.896
63505SOL    HW192412   9.362   2.546   6.831
63505SOL    HW292413   9.247   2.453   6.866
63506SOL     OW92414   7.566   5.874  13.114
63506SOL    HW192415   7.592   5.892  13.024
63506SOL    HW292416   7.633   5.814  13.147
63507SOL     OW92417   9.924   5.561   8.424
63507SOL    HW192418   9.924   5.469   8.449
63507SOL    HW292419   9.859   5.601   8.481
63508SOL     OW92420  14.534   0.566   1.503
63508SOL    HW192421  14.501   0.489   1.549
63508SOL    HW292422  14.612   0.591   1.552
63509SOL     OW92423   5.233  12.940  14.278
63509SOL    HW192424   5.309  12.891  14.310
63509SOL    HW292425   5.164  12.874  14.272
63510SOL     OW92426   8.199  10.631   6.636
63510SOL    HW192427   8.235  10.636   6.548
63510SOL    HW292428   8.165  10.541   6.643
63511SOL     OW92429  13.927   1.054   1.576
63511SOL    HW192430  13.923   0.960   1.560
63511SOL    HW292431  14.007   1.083   1.532
63512SOL     OW92432   5.647  13.960   1.024
63512SOL    HW192433   5.565  14.008   1.008
63512SOL    HW292434   5.647  13.890   0.960
63513SOL     OW92435   5.319   1.624   4.437
63513SOL    HW192436   5.393   1.606   4.494
63513SOL    HW292437   5.262   1.547   4.447
63514SOL     OW92438  13.357   1.714   0.526
63514SOL    HW192439  13.382   1.754   0.443
63514SOL    HW292440  13.261   1.712   0.524
63515SOL     OW92441  12.135  12.427   3.411
63515SOL    HW192442  12.130  12.508   3.462
63515SOL    HW292443  12.077  12.442   3.336
63516SOL     OW92444   2.783   7.733   1.447
63516SOL    HW192445   2.690   7.729   1.425
63516SOL    HW292446   2.803   7.644   1.479
63517SOL     OW92447   7.619  14.293   7.562
63517SOL    HW192448   7.569  14.374   7.552
63517SOL    HW292449   7.553  14.225   7.579
63518SOL     OW92450   1.005   9.480   4.995
63518SOL    HW192451   1.019   9.574   4.998
63518SOL    HW292452   0.930   9.469   4.937
63519SOL     OW92453  13.792   2.929  11.555
63519SOL    HW192454  13.719   2.986  11.578
63519SOL    HW292455  13.784   2.915  11.460
63520SOL     OW92456   5.812  11.973   6.596
63520SOL    HW192457   5.881  12.022   6.551
63520SOL    HW292458   5.731  12.013   6.566
63521SOL     OW92459   4.108   2.538  13.988
63521SOL    HW192460   4.084   2.535  14.081
63521SOL    HW292461   4.190   2.489  13.982
63522SOL     OW92462   5.968   8.646   6.161
63522SOL    HW192463   6.002   8.558   6.176
63522SOL    HW292464   5.879   8.643   6.196
63523SOL     OW92465  14.582   9.298   1.361
63523SOL    HW192466  14.675   9.321   1.363
63523SOL    HW292467  14.538   9.382   1.347
63524SOL     OW92468  13.940   0.975   7.153
63524SOL    HW192469  13.990   1.054   7.136
63524SOL    HW292470  14.005   0.910   7.180
63525SOL     OW92471   9.023   8.924   3.863
63525SOL    HW192472   9.103   8.882   3.830
63525SOL    HW292473   8.984   8.858   3.920
63526SOL     OW92474   2.549   4.041   8.475
63526SOL    HW192475   2.621   4.099   8.499
63526SOL    HW292476   2.562   3.964   8.531
63527SOL     OW92477   7.606  11.455   8.905
63527SOL    HW192478   7.684  11.495   8.867
63527SOL    HW292479   7.553  11.430   8.830
63528SOL     OW92480  11.295   1.950  12.820
63528SOL    HW192481  11.387   1.955  12.848
63528SOL    HW292482  11.268   1.862  12.843
63529SOL     OW92483   2.378   0.538   4.046
63529SOL    HW192484   2.290   0.519   4.080
63529SOL    HW292485   2.387   0.633   4.055
63530SOL     OW92486   5.390   0.073   2.400
63530SOL    HW192487   5.464   0.039   2.451
63530SOL    HW292488   5.346  14.866   2.367
63531SOL     OW92489   3.541   6.510  11.444
63531SOL    HW192490   3.585   6.588  11.478
63531SOL    HW292491   3.561   6.511  11.350
63532SOL     OW92492  10.127   3.582   4.569
63532SOL    HW192493  10.114   3.675   4.551
63532SOL    HW292494  10.144   3.542   4.483
63533SOL     OW92495  13.067   2.275  11.882
63533SOL    HW192496  12.995   2.333  11.858
63533SOL    HW292497  13.032   2.187  11.869
63534SOL     OW92498   8.000   6.223   6.302
63534SOL    HW192499   8.007   6.136   6.343
63534SOL    HW292500   7.919   6.259   6.338
63535SOL     OW92501   6.664  12.772  12.471
63535SOL    HW192502   6.603  12.842  12.496
63535SOL    HW292503   6.697  12.798  12.385
63536SOL     OW92504  11.781   0.411  13.947
63536SOL    HW192505  11.848   0.346  13.928
63536SOL    HW292506  11.746   0.434  13.861
63537SOL     OW92507   2.812  10.373   5.754
63537SOL    HW192508   2.778  10.462   5.766
63537SOL    HW292509   2.826  10.341   5.843
63538SOL     OW92510   2.145  10.042   8.230
63538SOL    HW192511   2.107  10.068   8.146
63538SOL    HW292512   2.133  10.118   8.286
63539SOL     OW92513  10.551   0.467  14.453
63539SOL    HW192514  10.539   0.380  14.414
63539SOL    HW292515  10.481   0.474  14.517
63540SOL     OW92516   6.721   8.876   5.844
63540SOL    HW192517   6.701   8.789   5.879
63540SOL    HW292518   6.643   8.928   5.865
63541SOL     OW92519   0.543  11.059   1.891
63541SOL    HW192520   0.580  11.061   1.979
63541SOL    HW292521   0.564  11.146   1.854
63542SOL     OW92522  12.381  10.369   3.980
63542SOL    HW192523  12.332  10.351   3.900
63542SOL    HW292524  12.379  10.287   4.029
63543SOL     OW92525  13.585   9.111  11.226
63543SOL    HW192526  13.493   9.104  11.202
63543SOL    HW292527  13.631   9.124  11.142
63544SOL     OW92528  12.970   0.465  13.469
63544SOL    HW192529  13.055   0.428  13.492
63544SOL    HW292530  12.932   0.493  13.552
63545SOL     OW92531   5.279   3.230   4.825
63545SOL    HW192532   5.334   3.246   4.903
63545SOL    HW292533   5.192   3.212   4.861
63546SOL     OW92534   2.475   7.939   4.476
63546SOL    HW192535   2.463   8.033   4.460
63546SOL    HW292536   2.471   7.930   4.571
63547SOL     OW92537   2.453   6.493  12.386
63547SOL    HW192538   2.468   6.411  12.340
63547SOL    HW292539   2.536   6.512  12.430
63548SOL     OW92540   6.261  13.106   9.638
63548SOL    HW192541   6.239  13.069   9.552
63548SOL    HW292542   6.188  13.165   9.658
63549SOL     OW92543  10.969  13.982   5.742
63549SOL    HW192544  10.909  14.053   5.717
63549SOL    HW292545  11.038  13.985   5.676
63550SOL     OW92546  14.237   8.968  10.472
63550SOL    HW192547  14.182   8.974  10.551
63550SOL    HW292548  14.271   9.057  10.461
63551SOL     OW92549   5.373   9.010   6.048
63551SOL    HW192550   5.299   9.057   6.085
63551SOL    HW292551   5.334   8.936   6.002
63552SOL     OW92552   1.417  12.163   2.157
63552SOL    HW192553   1.444  12.204   2.239
63552SOL    HW292554   1.403  12.237   2.097
63553SOL     OW92555   0.068  14.165   8.817
63553SOL    HW192556   0.095  14.103   8.886
63553SOL    HW292557   0.023  14.235   8.864
63554SOL     OW92558  13.897  11.987   0.662
63554SOL    HW192559  13.964  11.922   0.685
63554SOL    HW292560  13.833  11.939   0.610
63555SOL     OW92561   4.686   0.453   8.955
63555SOL    HW192562   4.764   0.400   8.970
63555SOL    HW292563   4.637   0.405   8.888
63556SOL     OW92564  12.944   6.457   8.015
63556SOL    HW192565  13.017   6.502   7.972
63556SOL    HW292566  12.911   6.397   7.948
63557SOL     OW92567   4.594  11.363   2.283
63557SOL    HW192568   4.547  11.281   2.272
63557SOL    HW292569   4.563  11.418   2.211
63558SOL     OW92570  12.457   4.106  10.555
63558SOL    HW192571  12.539   4.056  10.561
63558SOL    HW292572  12.470   4.180  10.613
63559SOL     OW92573   3.589   2.213   1.555
63559SOL    HW192574   3.519   2.164   1.509
63559SOL    HW292575   3.556   2.303   1.558
63560SOL     OW92576   8.786   7.107   8.485
63560SOL    HW192577   8.792   7.194   8.525
63560SOL    HW292578   8.790   7.123   8.391
63561SOL     OW92579   5.556   2.694   2.710
63561SOL    HW192580   5.551   2.770   2.768
63561SOL    HW292581   5.550   2.619   2.769
63562SOL     OW92582   2.517   3.948   8.938
63562SOL    HW192583   2.537   3.922   8.848
63562SOL    HW292584   2.570   3.888   8.992
63563SOL     OW92585   2.879   7.999   3.584
63563SOL    HW192586   2.910   7.967   3.499
63563SOL    HW292587   2.913   8.088   3.590
63564SOL     OW92588   5.892  11.226   7.719
63564SOL    HW192589   5.838  11.153   7.748
63564SOL    HW292590   5.831  11.298   7.704
63565SOL     OW92591   6.257  11.683  13.061
63565SOL    HW192592   6.187  11.736  13.098
63565SOL    HW292593   6.326  11.745  13.038
63566SOL     OW92594   4.305   0.500   1.988
63566SOL    HW192595   4.382   0.535   2.033
63566SOL    HW292596   4.263   0.576   1.948
63567SOL     OW92597   1.098   2.482   5.739
63567SOL    HW192598   1.175   2.502   5.793
63567SOL    HW292599   1.110   2.534   5.659
63568SOL     OW92600   1.112  12.483   7.273
63568SOL    HW192601   1.026  12.480   7.315
63568SOL    HW292602   1.172  12.446   7.338
63569SOL     OW92603  12.792   7.591   5.331
63569SOL    HW192604  12.768   7.601   5.239
63569SOL    HW292605  12.850   7.515   5.334
63570SOL     OW92606   5.154   7.552   8.267
63570SOL    HW192607   5.224   7.605   8.304
63570SOL    HW292608   5.165   7.465   8.306
63571SOL     OW92609   9.533   9.741   5.628
63571SOL    HW192610   9.522   9.657   5.673
63571SOL    HW292611   9.614   9.777   5.666
63572SOL     OW92612  10.267  10.585  12.844
63572SOL    HW192613  10.239  10.547  12.928
63572SOL    HW292614  10.229  10.526  12.778
63573SOL     OW92615   0.326   1.553   4.371
63573SOL    HW192616   0.417   1.582   4.359
63573SOL    HW292617   0.289   1.554   4.282
63574SOL     OW92618   6.525   8.667   1.016
63574SOL    HW192619   6.602   8.699   1.063
63574SOL    HW292620   6.513   8.728   0.943
63575SOL     OW92621   1.546   2.886   7.617
63575SOL    HW192622   1.641   2.880   7.626
63575SOL    HW292623   1.513   2.853   7.701
63576SOL     OW92624   2.357   9.790   2.435
63576SOL    HW192625   2.352   9.758   2.525
63576SOL    HW292626   2.272   9.767   2.397
63577SOL     OW92627   6.563   6.402   0.457
63577SOL    HW192628   6.616   6.479   0.434
63577SOL    HW292629   6.486   6.438   0.500
63578SOL     OW92630   4.081  11.739   6.910
63578SOL    HW192631   4.061  11.825   6.872
63578SOL    HW292632   4.027  11.678   6.860
63579SOL     OW92633  14.139  10.702   9.394
63579SOL    HW192634  14.139  10.624   9.450
63579SOL    HW292635  14.204  10.760   9.434
63580SOL     OW92636  14.684   1.562  14.000
63580SOL    HW192637  14.634   1.592  13.923
63580SOL    HW292638  14.701   1.470  13.983
63581SOL     OW92639   8.790   2.534   5.868
63581SOL    HW192640   8.826   2.464   5.812
63581SOL    HW292641   8.699   2.509   5.882
63582SOL     OW92642   2.463  10.077   6.889
63582SOL    HW192643   2.432  10.098   6.977
63582SOL    HW292644   2.472   9.981   6.890
63583SOL     OW92645   4.760   4.849  13.235
63583SOL    HW192646   4.790   4.934  13.202
63583SOL    HW292647   4.762   4.859  13.330
63584SOL     OW92648   2.377  10.599   9.718
63584SOL    HW192649   2.378  10.527   9.656
63584SOL    HW292650   2.363  10.677   9.664
63585SOL     OW92651  11.134  13.498  14.313
63585SOL    HW192652  11.205  13.557  14.338
63585SOL    HW292653  11.065  13.556  14.281
63586SOL     OW92654   7.063   6.872  14.601
63586SOL    HW192655   7.128   6.918  14.655
63586SOL    HW292656   7.060   6.784  14.638
63587SOL     OW92657   6.882   8.390   9.917
63587SOL    HW192658   6.876   8.301   9.954
63587SOL    HW292659   6.859   8.379   9.824
63588SOL     OW92660  11.900  12.653   2.349
63588SOL    HW192661  11.831  12.591   2.325
63588SOL    HW292662  11.923  12.629   2.439
63589SOL     OW92663   7.103  12.748   9.776
63589SOL    HW192664   7.139  12.833   9.751
63589SOL    HW292665   7.177  12.700   9.813
63590SOL     OW92666  10.294   1.311  12.609
63590SOL    HW192667  10.306   1.307  12.514
63590SOL    HW292668  10.299   1.405  12.630
63591SOL     OW92669   8.169   8.761  14.352
63591SOL    HW192670   8.129   8.710  14.282
63591SOL    HW292671   8.202   8.840  14.308
63592SOL     OW92672  10.351   7.276   3.283
63592SOL    HW192673  10.425   7.216   3.285
63592SOL    HW292674  10.338   7.302   3.374
63593SOL     OW92675   9.317   3.721  13.301
63593SOL    HW192676   9.223   3.720  13.314
63593SOL    HW292677   9.335   3.809  13.266
63594SOL     OW92678   9.456   4.855   9.168
63594SOL    HW192679   9.514   4.878   9.096
63594SOL    HW292680   9.369   4.847   9.128
63595SOL     OW92681  14.558   6.107   0.573
63595SOL    HW192682  14.521   6.195   0.580
63595SOL    HW292683  14.636   6.119   0.518
63596SOL     OW92684   0.500  11.797  11.101
63596SOL    HW192685   0.571  11.802  11.037
63596SOL    HW292686   0.510  11.876  11.154
63597SOL     OW92687   1.168  11.885   4.532
63597SOL    HW192688   1.224  11.820   4.575
63597SOL    HW292689   1.214  11.907   4.451
63598SOL     OW92690   5.846   9.558   1.431
63598SOL    HW192691   5.856   9.575   1.525
63598SOL    HW292692   5.904   9.621   1.389
63599SOL     OW92693   0.207   1.185   6.961
63599SOL    HW192694   0.217   1.090   6.960
63599SOL    HW292695   0.297   1.219   6.956
63600SOL     OW92696   6.222   6.479   1.682
63600SOL    HW192697   6.210   6.506   1.773
63600SOL    HW292698   6.281   6.404   1.687
63601SOL     OW92699  11.230  10.908   2.519
63601SOL    HW192700  11.140  10.902   2.552
63601SOL    HW292701  11.273  10.830   2.553
63602SOL     OW92702   2.254   7.952  10.083
63602SOL    HW192703   2.227   7.860  10.074
63602SOL    HW292704   2.350   7.948  10.088
63603SOL     OW92705  10.280   7.328   7.012
63603SOL    HW192706  10.193   7.292   7.028
63603SOL    HW292707  10.340   7.255   7.030
63604SOL     OW92708   4.147   3.724  14.618
63604SOL    HW192709   4.176   3.679  14.539
63604SOL    HW292710   4.209   3.797  14.628
63605SOL     OW92711  13.359  11.350   9.421
63605SOL    HW192712  13.415  11.427   9.410
63605SOL    HW292713  13.420  11.276   9.419
63606SOL     OW92714  14.479   2.076   3.691
63606SOL    HW192715  14.474   2.023   3.770
63606SOL    HW292716  14.529   2.022   3.629
63607SOL     OW92717  14.187   8.612   0.818
63607SOL    HW192718  14.162   8.704   0.817
63607SOL    HW292719  14.147   8.577   0.897
63608SOL     OW92720   8.741   6.660   6.612
63608SOL    HW192721   8.779   6.623   6.691
63608SOL    HW292722   8.648   6.669   6.630
63609SOL     OW92723   6.280  10.334  12.497
63609SOL    HW192724   6.350  10.398  12.488
63609SOL    HW292725   6.324  10.249  12.485
63610SOL     OW92726  13.677   8.831   0.113
63610SOL    HW192727  13.636   8.760   0.162
63610SOL    HW292728  13.730   8.787   0.046
63611SOL     OW92729   2.617   2.237   1.007
63611SOL    HW192730   2.615   2.330   0.987
63611SOL    HW292731   2.539   2.202   0.965
63612SOL     OW92732   9.975   5.607  11.160
63612SOL    HW192733  10.039   5.536  11.169
63612SOL    HW292734   9.919   5.580  11.087
63613SOL     OW92735   9.365   9.015   6.936
63613SOL    HW192736   9.316   9.094   6.960
63613SOL    HW292737   9.315   8.943   6.973
63614SOL     OW92738   5.605   5.073  10.727
63614SOL    HW192739   5.566   5.102  10.809
63614SOL    HW292740   5.612   5.152  10.674
63615SOL     OW92741   2.042   6.546   3.410
63615SOL    HW192742   2.121   6.544   3.464
63615SOL    HW292743   2.025   6.454   3.390
63616SOL     OW92744  13.552   1.604   4.455
63616SOL    HW192745  13.541   1.513   4.483
63616SOL    HW292746  13.548   1.654   4.537
63617SOL     OW92747  14.209   1.448   8.492
63617SOL    HW192748  14.280   1.485   8.545
63617SOL    HW292749  14.252   1.382   8.438
63618SOL     OW92750   8.861  10.879   4.880
63618SOL    HW192751   8.906  10.863   4.797
63618SOL    HW292752   8.771  10.849   4.864
63619SOL     OW92753  14.654   0.326   2.413
63619SOL    HW192754  14.671   0.250   2.357
63619SOL    HW292755  14.740   0.367   2.424
63620SOL     OW92756   7.255  12.585   7.797
63620SOL    HW192757   7.231  12.516   7.735
63620SOL    HW292758   7.219  12.665   7.759
63621SOL     OW92759   2.445   6.869   3.019
63621SOL    HW192760   2.359   6.862   2.978
63621SOL    HW292761   2.439   6.812   3.096
63622SOL     OW92762   5.946   6.097   1.903
63622SOL    HW192763   5.941   6.192   1.892
63622SOL    HW292764   6.016   6.083   1.967
63623SOL     OW92765  11.944   6.653   7.105
63623SOL    HW192766  11.982   6.628   7.189
63623SOL    HW292767  11.995   6.728   7.076
63624SOL     OW92768   0.991  10.909   5.694
63624SOL    HW192769   0.922  10.941   5.752
63624SOL    HW292770   0.977  10.814   5.691
63625SOL     OW92771  13.910   9.322  10.797
63625SOL    HW192772  13.984   9.273  10.761
63625SOL    HW292773  13.934   9.339  10.887
63626SOL     OW92774  14.843   8.916   7.759
63626SOL    HW192775  14.836   8.990   7.819
63626SOL    HW292776   0.060   8.923   7.723
63627SOL     OW92777   6.677   4.663   3.759
63627SOL    HW192778   6.648   4.665   3.851
63627SOL    HW292779   6.623   4.730   3.716
63628SOL     OW92780   4.421  11.446   5.669
63628SOL    HW192781   4.462  11.380   5.724
63628SOL    HW292782   4.417  11.524   5.724
63629SOL     OW92783   2.895   3.096  10.611
63629SOL    HW192784   2.911   3.188  10.590
63629SOL    HW292785   2.809   3.095  10.653
63630SOL     OW92786  11.748   4.672   7.926
63630SOL    HW192787  11.829   4.705   7.887
63630SOL    HW292788  11.748   4.706   8.015
63631SOL     OW92789  14.252  12.847   5.470
63631SOL    HW192790  14.307  12.838   5.548
63631SOL    HW292791  14.180  12.903   5.498
63632SOL     OW92792   7.350  10.301   6.721
63632SOL    HW192793   7.262  10.270   6.704
63632SOL    HW292794   7.339  10.374   6.783
63633SOL     OW92795  14.705  13.881   4.127
63633SOL    HW192796  14.646  13.812   4.099
63633SOL    HW292797  14.662  13.921   4.202
63634SOL     OW92798   9.661   9.369   8.347
63634SOL    HW192799   9.567   9.353   8.346
63634SOL    HW292800   9.671   9.453   8.391
63635SOL     OW92801   7.981   8.438   0.688
63635SOL    HW192802   7.940   8.467   0.607
63635SOL    HW292803   7.908   8.414   0.745
63636SOL     OW92804  10.040   5.353   6.358
63636SOL    HW192805  10.037   5.448   6.342
63636SOL    HW292806   9.950   5.330   6.381
63637SOL     OW92807   8.888   3.625  12.064
63637SOL    HW192808   8.896   3.530  12.070
63637SOL    HW292809   8.795   3.640  12.046
63638SOL     OW92810   9.046  11.209   9.860
63638SOL    HW192811   9.013  11.297   9.848
63638SOL    HW292812   9.019  11.185   9.949
63639SOL     OW92813  13.160   2.523   3.828
63639SOL    HW192814  13.141   2.442   3.781
63639SOL    HW292815  13.139   2.593   3.767
63640SOL     OW92816   2.288  13.026   8.346
63640SOL    HW192817   2.255  13.111   8.377
63640SOL    HW292818   2.300  12.975   8.426
63641SOL     OW92819   5.972   5.944   6.930
63641SOL    HW192820   6.055   5.959   6.976
63641SOL    HW292821   5.905   5.950   6.998
63642SOL     OW92822   4.309   0.089  12.748
63642SOL    HW192823   4.295   0.025  12.679
63642SOL    HW292824   4.237   0.152  12.737
63643SOL     OW92825   8.775   3.182   6.159
63643SOL    HW192826   8.852   3.223   6.119
63643SOL    HW292827   8.740   3.249   6.217
63644SOL     OW92828   3.527   8.122   3.675
63644SOL    HW192829   3.596   8.186   3.658
63644SOL    HW292830   3.574   8.042   3.699
63645SOL     OW92831  11.292   1.634   4.834
63645SOL    HW192832  11.351   1.659   4.763
63645SOL    HW292833  11.205   1.647   4.798
63646SOL     OW92834  13.148  14.743   6.426
63646SOL    HW192835  13.229  14.793   6.439
63646SOL    HW292836  13.178  14.654   6.405
63647SOL     OW92837   2.447   0.438  10.854
63647SOL    HW192838   2.510   0.379  10.897
63647SOL    HW292839   2.502   0.495  10.801
63648SOL     OW92840   8.515   7.399   5.748
63648SOL    HW192841   8.432   7.442   5.770
63648SOL    HW292842   8.552   7.376   5.833
63649SOL     OW92843   8.772  13.361   2.449
63649SOL    HW192844   8.848  13.327   2.497
63649SOL    HW292845   8.770  13.311   2.368
63650SOL     OW92846   0.374   2.575   7.192
63650SOL    HW192847   0.348   2.547   7.104
63650SOL    HW292848   0.470   2.577   7.188
63651SOL     OW92849   5.548   3.375  11.124
63651SOL    HW192850   5.627   3.357  11.176
63651SOL    HW292851   5.493   3.427  11.183
63652SOL     OW92852   4.161   7.392   2.254
63652SOL    HW192853   4.231   7.398   2.319
63652SOL    HW292854   4.124   7.480   2.249
63653SOL     OW92855   6.998   4.753   6.823
63653SOL    HW192856   6.910   4.779   6.849
63653SOL    HW292857   7.021   4.683   6.884
63654SOL     OW92858  11.606  10.487   3.046
63654SOL    HW192859  11.559  10.469   2.965
63654SOL    HW292860  11.540  10.478   3.114
63655SOL     OW92861   2.780  12.817   2.264
63655SOL    HW192862   2.686  12.809   2.250
63655SOL    HW292863   2.796  12.771   2.346
63656SOL     OW92864   1.517  11.969   8.856
63656SOL    HW192865   1.481  12.018   8.782
63656SOL    HW292866   1.609  11.956   8.834
63657SOL     OW92867  11.597  13.550  10.928
63657SOL    HW192868  11.682  13.506  10.934
63657SOL    HW292869  11.545  13.513  10.999
63658SOL     OW92870   2.559   5.394  11.147
63658SOL    HW192871   2.469   5.383  11.176
63658SOL    HW292872   2.568   5.487  11.129
63659SOL     OW92873   2.373   8.301   9.352
63659SOL    HW192874   2.311   8.250   9.405
63659SOL    HW292875   2.418   8.236   9.298
63660SOL     OW92876   3.161   5.777   7.383
63660SOL    HW192877   3.113   5.702   7.417
63660SOL    HW292878   3.202   5.816   7.461
63661SOL     OW92879   4.243   2.334  12.114
63661SOL    HW192880   4.159   2.289  12.113
63661SOL    HW292881   4.272   2.333  12.023
63662SOL     OW92882   5.446   5.860   8.679
63662SOL    HW192883   5.387   5.800   8.635
63662SOL    HW292884   5.489   5.908   8.608
63663SOL     OW92885  13.680   2.569  10.182
63663SOL    HW192886  13.602   2.598  10.228
63663SOL    HW292887  13.749   2.628  10.212
63664SOL     OW92888   5.108   7.296   6.195
63664SOL    HW192889   5.160   7.375   6.184
63664SOL    HW292890   5.055   7.291   6.116
63665SOL     OW92891  12.135  13.803   0.895
63665SOL    HW192892  12.223  13.804   0.857
63665SOL    HW292893  12.088  13.738   0.843
63666SOL     OW92894   8.505   2.647  13.257
63666SOL    HW192895   8.432   2.589  13.237
63666SOL    HW292896   8.492   2.672  13.349
63667SOL     OW92897   1.136   6.075  12.281
63667SOL    HW192898   1.180   6.080  12.196
63667SOL    HW292899   1.206   6.072  12.345
63668SOL     OW92900  10.435   4.407   2.679
63668SOL    HW192901  10.460   4.484   2.730
63668SOL    HW292902  10.343   4.422   2.657
63669SOL     OW92903   0.828   4.912  11.217
63669SOL    HW192904   0.783   4.989  11.183
63669SOL    HW292905   0.781   4.838  11.178
63670SOL     OW92906   0.253   5.355   4.530
63670SOL    HW192907   0.286   5.281   4.480
63670SOL    HW292908   0.327   5.384   4.583
63671SOL     OW92909  13.898   3.827   7.792
63671SOL    HW192910  13.845   3.750   7.773
63671SOL    HW292911  13.979   3.813   7.743
63672SOL     OW92912   8.349  13.390   1.218
63672SOL    HW192913   8.278  13.329   1.241
63672SOL    HW292914   8.304  13.465   1.180
63673SOL     OW92915  11.876   6.841   0.610
63673SOL    HW192916  11.838   6.908   0.667
63673SOL    HW292917  11.863   6.759   0.657
63674SOL     OW92918  13.497  14.313   9.145
63674SOL    HW192919  13.430  14.276   9.086
63674SOL    HW292920  13.492  14.407   9.130
63675SOL     OW92921  10.499   3.625   0.916
63675SOL    HW192922  10.409   3.630   0.883
63675SOL    HW292923  10.553   3.662   0.846
63676SOL     OW92924   1.801   9.890  11.859
63676SOL    HW192925   1.804   9.821  11.925
63676SOL    HW292926   1.755   9.962  11.901
63677SOL     OW92927   7.660  11.027  12.387
63677SOL    HW192928   7.585  11.024  12.328
63677SOL    HW292929   7.657  10.944  12.435
63678SOL     OW92930   7.372   2.607   4.500
63678SOL    HW192931   7.448   2.577   4.551
63678SOL    HW292932   7.336   2.679   4.550
63679SOL     OW92933   1.410  10.665   3.631
63679SOL    HW192934   1.330  10.657   3.683
63679SOL    HW292935   1.475  10.699   3.692
63680SOL     OW92936  10.685  11.343   6.752
63680SOL    HW192937  10.630  11.273   6.717
63680SOL    HW292938  10.674  11.416   6.691
63681SOL     OW92939   7.062   2.977  14.373
63681SOL    HW192940   7.009   3.017  14.304
63681SOL    HW292941   7.000   2.953  14.441
63682SOL     OW92942   5.674  11.445  10.656
63682SOL    HW192943   5.702  11.402  10.575
63682SOL    HW292944   5.686  11.539  10.639
63683SOL     OW92945   5.317  12.418   8.407
63683SOL    HW192946   5.247  12.475   8.438
63683SOL    HW292947   5.306  12.417   8.312
63684SOL     OW92948   2.718  12.903   6.667
63684SOL    HW192949   2.786  12.897   6.735
63684SOL    HW292950   2.638  12.923   6.716
63685SOL     OW92951   8.319  11.780   6.436
63685SOL    HW192952   8.352  11.764   6.524
63685SOL    HW292953   8.391  11.823   6.390
63686SOL     OW92954  13.052   7.869   4.572
63686SOL    HW192955  13.084   7.902   4.656
63686SOL    HW292956  13.027   7.947   4.523
63687SOL     OW92957   9.192   6.019   7.382
63687SOL    HW192958   9.190   6.034   7.287
63687SOL    HW292959   9.273   5.970   7.397
63688SOL     OW92960   0.446  11.989   7.175
63688SOL    HW192961   0.374  12.052   7.176
63688SOL    HW292962   0.510  12.024   7.237
63689SOL     OW92963   7.091   6.428   8.650
63689SOL    HW192964   7.078   6.505   8.705
63689SOL    HW292965   7.118   6.464   8.565
63690SOL     OW92966   6.654   2.415   0.843
63690SOL    HW192967   6.711   2.483   0.808
63690SOL    HW292968   6.642   2.353   0.772
63691SOL     OW92969   3.745  13.122   7.397
63691SOL    HW192970   3.755  13.027   7.388
63691SOL    HW292971   3.818  13.158   7.346
63692SOL     OW92972   9.007  13.388  10.282
63692SOL    HW192973   8.974  13.446  10.350
63692SOL    HW292974   8.993  13.436  10.200
63693SOL     OW92975  14.116   4.621   6.918
63693SOL    HW192976  14.085   4.541   6.961
63693SOL    HW292977  14.208   4.627   6.941
63694SOL     OW92978  14.571   4.419  10.453
63694SOL    HW192979  14.542   4.470  10.378
63694SOL    HW292980  14.667   4.422  10.448
63695SOL     OW92981  13.802  14.732   2.114
63695SOL    HW192982  13.891  14.741   2.080
63695SOL    HW292983  13.809  14.664   2.181
63696SOL     OW92984  12.317   3.243   0.946
63696SOL    HW192985  12.323   3.338   0.941
63696SOL    HW292986  12.402   3.215   0.980
63697SOL     OW92987   1.026  11.851   6.546
63697SOL    HW192988   1.071  11.849   6.631
63697SOL    HW292989   0.933  11.856   6.568
63698SOL     OW92990  13.994  13.929  14.228
63698SOL    HW192991  14.001  13.983  14.307
63698SOL    HW292992  14.072  13.874  14.229
63699SOL     OW92993   7.479  14.359   1.043
63699SOL    HW192994   7.502  14.433   1.100
63699SOL    HW292995   7.529  14.286   1.078
63700SOL     OW92996   6.471  14.384   8.186
63700SOL    HW192997   6.456  14.375   8.280
63700SOL    HW292998   6.390  14.423   8.152
63701SOL     OW92999  14.422   2.742   5.467
63701SOL    HW193000  14.424   2.647   5.453
63701SOL    HW293001  14.366   2.753   5.544
63702SOL     OW93002   4.432   4.542   0.454
63702SOL    HW193003   4.373   4.615   0.476
63702SOL    HW293004   4.374   4.469   0.435
63703SOL     OW93005   0.238   0.012   0.441
63703SOL    HW193006   0.177  14.815   0.416
63703SOL    HW293007   0.188   0.093   0.432
63704SOL     OW93008   1.083   2.282  13.487
63704SOL    HW193009   1.040   2.346  13.544
63704SOL    HW293010   1.011   2.234  13.446
63705SOL     OW93011  13.183   9.867   9.202
63705SOL    HW193012  13.162   9.789   9.150
63705SOL    HW293013  13.208   9.832   9.288
63706SOL     OW93014  11.875   7.076   2.170
63706SOL    HW193015  11.961   7.045   2.197
63706SOL    HW293016  11.893   7.151   2.113
63707SOL     OW93017   2.167   8.571   9.131
63707SOL    HW193018   2.146   8.625   9.054
63707SOL    HW293019   2.260   8.554   9.124
63708SOL     OW93020   9.924  10.299  14.606
63708SOL    HW193021   9.844  10.255  14.635
63708SOL    HW293022   9.971  10.232  14.556
63709SOL     OW93023   0.183   4.498   5.264
63709SOL    HW193024   0.094   4.468   5.282
63709SOL    HW293025   0.236   4.418   5.265
63710SOL     OW93026   1.547   0.634   7.217
63710SOL    HW193027   1.507   0.554   7.183
63710SOL    HW293028   1.500   0.652   7.298
63711SOL     OW93029   4.664   5.176  10.126
63711SOL    HW193030   4.584   5.200  10.078
63711SOL    HW293031   4.708   5.114  10.068
63712SOL     OW93032   3.675  14.512   6.257
63712SOL    HW193033   3.704  14.450   6.324
63712SOL    HW293034   3.683  14.598   6.299
63713SOL     OW93035   0.148   9.328  10.810
63713SOL    HW193036   0.140   9.351  10.902
63713SOL    HW293037   0.236   9.291  10.802
63714SOL     OW93038   1.078  13.628   8.438
63714SOL    HW193039   1.132  13.551   8.423
63714SOL    HW293040   1.109  13.692   8.375
63715SOL     OW93041  10.211   3.354  12.189
63715SOL    HW193042  10.228   3.442  12.156
63715SOL    HW293043  10.177   3.369  12.278
63716SOL     OW93044  10.667  11.295   5.834
63716SOL    HW193045  10.731  11.267   5.899
63716SOL    HW293046  10.711  11.282   5.750
63717SOL     OW93047   6.349   3.805  12.015
63717SOL    HW193048   6.308   3.880  11.972
63717SOL    HW293049   6.296   3.790  12.093
63718SOL     OW93050   9.171   2.406   2.496
63718SOL    HW193051   9.160   2.479   2.437
63718SOL    HW293052   9.162   2.328   2.441
63719SOL     OW93053   7.418  14.807   3.559
63719SOL    HW193054   7.477   0.009   3.565
63719SOL    HW293055   7.458  14.740   3.614
63720SOL     OW93056   5.836  13.140  10.992
63720SOL    HW193057   5.750  13.105  10.968
63720SOL    HW293058   5.859  13.199  10.920
63721SOL     OW93059  12.782  14.333  13.454
63721SOL    HW193060  12.753  14.252  13.496
63721SOL    HW293061  12.702  14.372  13.418
63722SOL     OW93062  14.428   3.052   7.649
63722SOL    HW193063  14.419   2.965   7.610
63722SOL    HW293064  14.347   3.064   7.699
63723SOL     OW93065   5.401   5.982   5.580
63723SOL    HW193066   5.317   6.029   5.588
63723SOL    HW293067   5.381   5.893   5.608
63724SOL     OW93068  11.666  13.240  13.853
63724SOL    HW193069  11.584  13.280  13.824
63724SOL    HW293070  11.734  13.301  13.823
63725SOL     OW93071   7.334  11.923   3.936
63725SOL    HW193072   7.422  11.934   3.973
63725SOL    HW293073   7.282  11.993   3.976
63726SOL     OW93074  13.734  12.390   0.353
63726SOL    HW193075  13.763  12.313   0.402
63726SOL    HW293076  13.675  12.355   0.285
63727SOL     OW93077  10.512   6.691   1.304
63727SOL    HW193078  10.496   6.597   1.312
63727SOL    HW293079  10.608   6.699   1.306
63728SOL     OW93080  13.488   0.380   2.120
63728SOL    HW193081  13.581   0.377   2.142
63728SOL    HW293082  13.457   0.461   2.160
63729SOL     OW93083   7.195  14.416  10.973
63729SOL    HW193084   7.142  14.378  11.044
63729SOL    HW293085   7.152  14.499  10.954
63730SOL     OW93086  11.031   7.564   9.781
63730SOL    HW193087  11.027   7.507   9.704
63730SOL    HW293088  10.940   7.591   9.796
63731SOL     OW93089   9.990  13.441   9.077
63731SOL    HW193090   9.936  13.485   9.143
63731SOL    HW293091   9.972  13.348   9.090
63732SOL     OW93092  13.928  12.455  11.456
63732SOL    HW193093  13.844  12.426  11.492
63732SOL    HW293094  13.991  12.389  11.485
63733SOL     OW93095  14.056   9.368   2.131
63733SOL    HW193096  14.018   9.353   2.217
63733SOL    HW293097  14.105   9.289   2.111
63734SOL     OW93098   1.494   6.280   9.571
63734SOL    HW193099   1.423   6.318   9.518
63734SOL    HW293100   1.473   6.307   9.660
63735SOL     OW93101  14.793  14.590   2.447
63735SOL    HW193102  14.815  14.683   2.445
63735SOL    HW293103  14.824  14.556   2.363
63736SOL     OW93104  13.573  11.341  12.268
63736SOL    HW193105  13.661  11.375  12.286
63736SOL    HW293106  13.519  11.374  12.340
63737SOL     OW93107  10.910  14.371  14.797
63737SOL    HW193108  10.945  14.283  14.805
63737SOL    HW293109  10.986  14.428  14.809
63738SOL     OW93110  10.535   7.607   3.244
63738SOL    HW193111  10.487   7.541   3.193
63738SOL    HW293112  10.468   7.650   3.297
63739SOL     OW93113   2.194   2.006  13.629
63739SOL    HW193114   2.263   1.942  13.647
63739SOL    HW293115   2.215   2.040  13.542
63740SOL     OW93116   2.213   7.201   6.937
63740SOL    HW193117   2.202   7.223   7.030
63740SOL    HW293118   2.268   7.123   6.938
63741SOL     OW93119   4.736   1.238  11.389
63741SOL    HW193120   4.698   1.189  11.462
63741SOL    HW293121   4.716   1.184  11.312
63742SOL     OW93122  14.000   6.779  14.763
63742SOL    HW193123  14.042   6.849  14.813
63742SOL    HW293124  14.023   6.699  14.810
63743SOL     OW93125   2.947   3.694   6.894
63743SOL    HW193126   3.021   3.708   6.953
63743SOL    HW293127   2.984   3.700   6.806
63744SOL     OW93128   9.394   2.778   3.360
63744SOL    HW193129   9.342   2.825   3.426
63744SOL    HW293130   9.424   2.699   3.405
63745SOL     OW93131   1.161   9.024   4.159
63745SOL    HW193132   1.151   9.048   4.252
63745SOL    HW293133   1.240   8.970   4.157
63746SOL     OW93134   2.632   5.233   2.011
63746SOL    HW193135   2.607   5.279   2.091
63746SOL    HW293136   2.716   5.191   2.034
63747SOL     OW93137   1.042   9.966   1.011
63747SOL    HW193138   0.964   9.980   0.959
63747SOL    HW293139   1.017   9.991   1.100
63748SOL     OW93140  13.129  12.786   2.180
63748SOL    HW193141  13.094  12.783   2.091
63748SOL    HW293142  13.161  12.697   2.196
63749SOL     OW93143   6.436   5.912   4.322
63749SOL    HW193144   6.423   6.006   4.313
63749SOL    HW293145   6.460   5.900   4.414
63750SOL     OW93146   0.763   0.610   6.486
63750SOL    HW193147   0.763   0.523   6.447
63750SOL    HW293148   0.806   0.665   6.422
63751SOL     OW93149   9.011  10.765   9.150
63751SOL    HW193150   8.949  10.792   9.218
63751SOL    HW293151   9.042  10.848   9.113
63752SOL     OW93152  12.375   9.555   9.043
63752SOL    HW193153  12.464   9.588   9.034
63752SOL    HW293154  12.373   9.475   8.990
63753SOL     OW93155   5.335   5.694   8.500
63753SOL    HW193156   5.316   5.610   8.542
63753SOL    HW293157   5.364   5.671   8.412
63754SOL     OW93158   1.133   8.417   7.238
63754SOL    HW193159   1.202   8.480   7.259
63754SOL    HW293160   1.058   8.445   7.290
63755SOL     OW93161   0.572   6.660  12.135
63755SOL    HW193162   0.496   6.635  12.188
63755SOL    HW293163   0.626   6.581  12.133
63756SOL     OW93164   9.997   9.276   9.719
63756SOL    HW193165  10.066   9.341   9.702
63756SOL    HW293166  10.044   9.193   9.725
63757SOL     OW93167  11.916   8.434   9.588
63757SOL    HW193168  11.908   8.498   9.658
63757SOL    HW293169  12.000   8.453   9.548
63758SOL     OW93170   5.434   7.798   2.504
63758SOL    HW193171   5.365   7.775   2.442
63758SOL    HW293172   5.442   7.721   2.561
63759SOL     OW93173  12.299   0.789   8.619
63759SOL    HW193174  12.219   0.840   8.629
63759SOL    HW293175  12.367   0.855   8.605
63760SOL     OW93176   5.152   3.368   0.205
63760SOL    HW193177   5.234   3.322   0.224
63760SOL    HW293178   5.097   3.302   0.164
63761SOL     OW93179   5.062   5.804   6.830
63761SOL    HW193180   4.995   5.783   6.895
63761SOL    HW293181   5.121   5.865   6.876
63762SOL     OW93182  13.919   9.017   1.181
63762SOL    HW193183  13.975   9.001   1.257
63762SOL    HW293184  13.830   9.004   1.214
63763SOL     OW93185   3.853   9.271   5.786
63763SOL    HW193186   3.857   9.205   5.717
63763SOL    HW293187   3.889   9.350   5.744
63764SOL     OW93188   1.369   4.388  11.269
63764SOL    HW193189   1.302   4.442  11.311
63764SOL    HW293190   1.449   4.439  11.274
63765SOL     OW93191   4.330  12.299   3.220
63765SOL    HW193192   4.410  12.352   3.223
63765SOL    HW293193   4.358  12.211   3.248
63766SOL     OW93194   8.877  14.615  14.626
63766SOL    HW193195   8.820  14.556  14.675
63766SOL    HW293196   8.957  14.622  14.679
63767SOL     OW93197   9.174  12.068   4.291
63767SOL    HW193198   9.239  12.092   4.357
63767SOL    HW293199   9.174  12.142   4.229
63768SOL     OW93200  12.091   9.922  11.747
63768SOL    HW193201  12.164   9.932  11.808
63768SOL    HW293202  12.049  10.008  11.745
63769SOL     OW93203   7.083   8.289  10.854
63769SOL    HW193204   7.121   8.214  10.900
63769SOL    HW293205   6.989   8.282  10.872
63770SOL     OW93206   5.249  14.767   8.401
63770SOL    HW193207   5.227  14.674   8.405
63770SOL    HW293208   5.305  14.775   8.324
63771SOL     OW93209   8.059   5.736   6.796
63771SOL    HW193210   7.977   5.745   6.844
63771SOL    HW293211   8.086   5.826   6.777
63772SOL     OW93212   6.234   4.959   7.482
63772SOL    HW193213   6.247   5.017   7.557
63772SOL    HW293214   6.282   5.000   7.411
63773SOL     OW93215   0.159   3.013  10.392
63773SOL    HW193216   0.157   3.080  10.323
63773SOL    HW293217   0.118   3.054  10.468
63774SOL     OW93218   7.078   5.968   4.144
63774SOL    HW193219   6.998   5.931   4.107
63774SOL    HW293220   7.143   5.960   4.075
63775SOL     OW93221  10.907  10.822   9.612
63775SOL    HW193222  10.960  10.847   9.687
63775SOL    HW293223  10.965  10.833   9.537
63776SOL     OW93224   7.680   6.912   0.726
63776SOL    HW193225   7.610   6.854   0.755
63776SOL    HW293226   7.754   6.892   0.784
63777SOL     OW93227   7.638  11.102   3.633
63777SOL    HW193228   7.638  11.045   3.710
63777SOL    HW293229   7.655  11.189   3.668
63778SOL     OW93230   8.072   9.216   0.723
63778SOL    HW193231   7.977   9.216   0.709
63778SOL    HW293232   8.095   9.309   0.731
63779SOL     OW93233  12.015   3.610   7.893
63779SOL    HW193234  12.004   3.699   7.927
63779SOL    HW293235  11.943   3.600   7.830
63780SOL     OW93236  10.036   9.974   2.732
63780SOL    HW193237   9.961   9.915   2.735
63780SOL    HW293238  10.026  10.030   2.809
63781SOL     OW93239   4.877   0.591   1.723
63781SOL    HW193240   4.930   0.658   1.766
63781SOL    HW293241   4.905   0.593   1.632
63782SOL     OW93242  11.747   4.001   5.940
63782SOL    HW193243  11.732   4.034   6.029
63782SOL    HW293244  11.838   3.971   5.941
63783SOL     OW93245   6.354  12.877   9.763
63783SOL    HW193246   6.383  12.898   9.852
63783SOL    HW293247   6.303  12.953   9.736
63784SOL     OW93248   3.244  13.322  13.634
63784SOL    HW193249   3.242  13.227  13.620
63784SOL    HW293250   3.155  13.345  13.658
63785SOL     OW93251  10.080   4.082   7.201
63785SOL    HW193252  10.125   4.091   7.285
63785SOL    HW293253  10.135   4.023   7.150
63786SOL     OW93254   3.430   4.378   6.206
63786SOL    HW193255   3.472   4.435   6.270
63786SOL    HW293256   3.428   4.292   6.246
63787SOL     OW93257   8.945   7.853  12.269
63787SOL    HW193258   9.029   7.818  12.240
63787SOL    HW293259   8.968   7.929  12.324
63788SOL     OW93260  12.152   0.179  12.453
63788SOL    HW193261  12.072   0.158  12.500
63788SOL    HW293262  12.173   0.269  12.480
63789SOL     OW93263  10.422   2.713  11.072
63789SOL    HW193264  10.360   2.748  11.136
63789SOL    HW293265  10.405   2.765  10.993
63790SOL     OW93266   6.410   1.782   4.255
63790SOL    HW193267   6.403   1.835   4.176
63790SOL    HW293268   6.319   1.765   4.281
63791SOL     OW93269  12.173   2.009  13.939
63791SOL    HW193270  12.198   1.930  13.987
63791SOL    HW293271  12.111   1.979  13.873
63792SOL     OW93272   0.916   6.323   9.862
63792SOL    HW193273   0.852   6.307   9.931
63792SOL    HW293274   0.996   6.348   9.908
63793SOL     OW93275   5.722   1.787  11.082
63793SOL    HW193276   5.781   1.745  11.019
63793SOL    HW293277   5.668   1.846  11.029
63794SOL     OW93278   3.433   1.094  14.855
63794SOL    HW193279   3.429   1.155   0.056
63794SOL    HW293280   3.481   1.019   0.017
63795SOL     OW93281   4.802  11.593   6.247
63795SOL    HW193282   4.767  11.541   6.319
63795SOL    HW293283   4.858  11.658   6.290
63796SOL     OW93284   5.461   3.297   5.449
63796SOL    HW193285   5.374   3.257   5.448
63796SOL    HW293286   5.446   3.389   5.429
63797SOL     OW93287  14.073  14.279   6.404
63797SOL    HW193288  14.090  14.255   6.495
63797SOL    HW293289  14.148  14.333   6.379
63798SOL     OW93290   6.116  14.276   6.681
63798SOL    HW193291   6.154  14.231   6.756
63798SOL    HW293292   6.050  14.335   6.718
63799SOL     OW93293  11.338   6.473   5.561
63799SOL    HW193294  11.295   6.527   5.627
63799SOL    HW293295  11.290   6.391   5.561
63800SOL     OW93296  12.279   4.834   2.026
63800SOL    HW193297  12.201   4.878   2.060
63800SOL    HW293298  12.337   4.826   2.101
63801SOL     OW93299   7.089   7.436   9.723
63801SOL    HW193300   7.180   7.406   9.726
63801SOL    HW293301   7.061   7.417   9.633
63802SOL     OW93302   1.517   5.978   9.829
63802SOL    HW193303   1.445   5.943   9.881
63802SOL    HW293304   1.512   5.929   9.747
63803SOL     OW93305   2.634   0.168   7.924
63803SOL    HW193306   2.672   0.176   8.012
63803SOL    HW293307   2.540   0.172   7.938
63804SOL     OW93308   6.028  12.896   0.655
63804SOL    HW193309   5.939  12.931   0.666
63804SOL    HW293310   6.076  12.966   0.611
63805SOL     OW93311   9.714  10.622  14.274
63805SOL    HW193312   9.690  10.531  14.258
63805SOL    HW293313   9.757  10.622  14.359
63806SOL     OW93314  14.010  11.797   8.447
63806SOL    HW193315  13.942  11.731   8.433
63806SOL    HW293316  14.016  11.843   8.363
63807SOL     OW93317  13.348  11.064   4.821
63807SOL    HW193318  13.343  10.985   4.767
63807SOL    HW293319  13.386  11.130   4.763
63808SOL     OW93320  12.278   9.665   1.588
63808SOL    HW193321  12.362   9.710   1.587
63808SOL    HW293322  12.239   9.688   1.672
63809SOL     OW93323   7.036   3.043   3.576
63809SOL    HW193324   7.011   3.045   3.483
63809SOL    HW293325   7.132   3.049   3.575
63810SOL     OW93326   6.568   8.624   7.164
63810SOL    HW193327   6.595   8.577   7.243
63810SOL    HW293328   6.532   8.557   7.107
63811SOL     OW93329  12.969   4.388  10.662
63811SOL    HW193330  12.973   4.442  10.583
63811SOL    HW293331  12.891   4.333  10.650
63812SOL     OW93332   2.557   0.361  14.309
63812SOL    HW193333   2.550   0.443  14.260
63812SOL    HW293334   2.521   0.382  14.395
63813SOL     OW93335   6.328   7.736   0.363
63813SOL    HW193336   6.323   7.806   0.428
63813SOL    HW293337   6.406   7.686   0.387
63814SOL     OW93338   6.289  14.375   5.752
63814SOL    HW193339   6.219  14.335   5.701
63814SOL    HW293340   6.370  14.338   5.715
63815SOL     OW93341  14.300   8.906   8.274
63815SOL    HW193342  14.318   8.846   8.346
63815SOL    HW293343  14.332   8.991   8.305
63816SOL     OW93344   0.641   1.002   4.528
63816SOL    HW193345   0.729   1.001   4.489
63816SOL    HW293346   0.655   1.034   4.617
63817SOL     OW93347  14.787   8.138   5.407
63817SOL    HW193348   0.002   8.108   5.385
63817SOL    HW293349  14.733   8.059   5.408
63818SOL     OW93350   1.152   7.919  13.731
63818SOL    HW193351   1.129   7.868  13.809
63818SOL    HW293352   1.222   7.978  13.760
63819SOL     OW93353   1.611  14.348   7.241
63819SOL    HW193354   1.562  14.293   7.302
63819SOL    HW293355   1.703  14.324   7.257
63820SOL     OW93356   6.859  11.894   7.945
63820SOL    HW193357   6.767  11.905   7.921
63820SOL    HW293358   6.867  11.802   7.970
63821SOL     OW93359  14.776   0.883   4.527
63821SOL    HW193360  14.793   0.925   4.612
63821SOL    HW293361  14.851   0.825   4.514
63822SOL     OW93362   3.247  11.640   2.274
63822SOL    HW193363   3.193  11.615   2.349
63822SOL    HW293364   3.326  11.586   2.283
63823SOL     OW93365  13.658   7.688  10.186
63823SOL    HW193366  13.609   7.609  10.206
63823SOL    HW293367  13.592   7.751  10.157
63824SOL     OW93368  11.846   1.643   3.971
63824SOL    HW193369  11.882   1.623   4.057
63824SOL    HW293370  11.751   1.633   3.982
63825SOL     OW93371   8.848   9.619   1.056
63825SOL    HW193372   8.923   9.634   0.999
63825SOL    HW293373   8.800   9.547   1.015
63826SOL     OW93374  14.759   1.183   8.447
63826SOL    HW193375  14.728   1.092   8.449
63826SOL    HW293376  14.724   1.218   8.365
63827SOL     OW93377  11.126  12.956  13.418
63827SOL    HW193378  11.204  12.955  13.363
63827SOL    HW293379  11.132  13.038  13.467
63828SOL     OW93380  13.192   3.255   8.600
63828SOL    HW193381  13.242   3.175   8.583
63828SOL    HW293382  13.105   3.237   8.565
63829SOL     OW93383   9.867  10.285  13.328
63829SOL    HW193384   9.874  10.378  13.346
63829SOL    HW293385   9.859  10.279  13.232
63830SOL     OW93386   5.973  14.542   7.074
63830SOL    HW193387   5.911  14.613   7.094
63830SOL    HW293388   6.047  14.559   7.132
63831SOL     OW93389   8.629   4.081   3.229
63831SOL    HW193390   8.573   4.114   3.158
63831SOL    HW293391   8.580   4.007   3.265
63832SOL     OW93392   0.007   6.419   7.656
63832SOL    HW193393  14.867   6.513   7.641
63832SOL    HW293394  14.795   6.379   7.635
63833SOL     OW93395   0.304   0.359   4.077
63833SOL    HW193396   0.334   0.429   4.019
63833SOL    HW293397   0.340   0.382   4.163
63834SOL     OW93398  13.317   0.508   8.275
63834SOL    HW193399  13.316   0.568   8.349
63834SOL    HW293400  13.272   0.429   8.307
63835SOL     OW93401  14.603  10.463  11.363
63835SOL    HW193402  14.583  10.391  11.304
63835SOL    HW293403  14.681  10.434  11.411
63836SOL     OW93404   8.948   4.169   9.494
63836SOL    HW193405   8.922   4.215   9.414
63836SOL    HW293406   8.866   4.149   9.538
63837SOL     OW93407   8.865   5.203   3.571
63837SOL    HW193408   8.786   5.155   3.548
63837SOL    HW293409   8.871   5.274   3.507
63838SOL     OW93410   8.635   7.010   6.395
63838SOL    HW193411   8.708   7.069   6.378
63838SOL    HW293412   8.658   6.930   6.347
63839SOL     OW93413   7.136  10.240   2.105
63839SOL    HW193414   7.196  10.288   2.162
63839SOL    HW293415   7.048  10.265   2.136
63840SOL     OW93416   4.100   7.075   3.471
63840SOL    HW193417   4.171   7.136   3.452
63840SOL    HW293418   4.093   7.021   3.392
63841SOL     OW93419   3.960  10.379   5.048
63841SOL    HW193420   3.966  10.295   5.092
63841SOL    HW293421   3.902  10.431   5.104
63842SOL     OW93422  11.222   1.450   0.756
63842SOL    HW193423  11.178   1.440   0.671
63842SOL    HW293424  11.297   1.506   0.737
63843SOL     OW93425   2.745  12.908   8.783
63843SOL    HW193426   2.660  12.864   8.781
63843SOL    HW293427   2.797  12.857   8.845
63844SOL     OW93428   4.909   1.403  13.051
63844SOL    HW193429   4.917   1.446  12.965
63844SOL    HW293430   4.985   1.434  13.100
63845SOL     OW93431   8.430   7.334   7.944
63845SOL    HW193432   8.436   7.414   7.996
63845SOL    HW293433   8.372   7.356   7.871
63846SOL     OW93434   4.081  13.823   5.507
63846SOL    HW193435   4.002  13.823   5.453
63846SOL    HW293436   4.111  13.914   5.505
63847SOL     OW93437   0.041  11.606   8.411
63847SOL    HW193438   0.131  11.602   8.378
63847SOL    HW293439  14.861  11.568   8.341
63848SOL     OW93440   1.253  10.844  14.521
63848SOL    HW193441   1.311  10.774  14.491
63848SOL    HW293442   1.188  10.853  14.451
63849SOL     OW93443   3.519   6.953   7.191
63849SOL    HW193444   3.539   6.861   7.173
63849SOL    HW293445   3.530   6.997   7.107
63850SOL     OW93446  12.257  11.645  13.785
63850SOL    HW193447  12.300  11.674  13.865
63850SOL    HW293448  12.184  11.590  13.816
63851SOL     OW93449   5.219  14.411  14.623
63851SOL    HW193450   5.259  14.338  14.576
63851SOL    HW293451   5.262  14.411  14.709
63852SOL     OW93452  12.356  14.454  14.174
63852SOL    HW193453  12.387  14.491  14.256
63852SOL    HW293454  12.384  14.362  14.177
63853SOL     OW93455   5.772   3.241   3.380
63853SOL    HW193456   5.687   3.200   3.363
63853SOL    HW293457   5.753   3.308   3.446
63854SOL     OW93458   4.821   1.992  13.969
63854SOL    HW193459   4.884   2.040  14.024
63854SOL    HW293460   4.870   1.919  13.933
63855SOL     OW93461   5.651  14.434   1.753
63855SOL    HW193462   5.611  14.481   1.680
63855SOL    HW293463   5.613  14.346   1.749
63856SOL     OW93464   4.718   2.464   7.942
63856SOL    HW193465   4.728   2.370   7.958
63856SOL    HW293466   4.768   2.505   8.012
63857SOL     OW93467   6.570   2.590  13.175
63857SOL    HW193468   6.664   2.605  13.180
63857SOL    HW293469   6.537   2.659  13.117
63858SOL     OW93470  12.691   0.574  14.318
63858SOL    HW193471  12.596   0.587  14.315
63858SOL    HW293472  12.707   0.499  14.261
63859SOL     OW93473  13.153  12.098  10.332
63859SOL    HW193474  13.116  12.082  10.246
63859SOL    HW293475  13.105  12.173  10.366
63860SOL     OW93476   7.568   8.209   0.533
63860SOL    HW193477   7.527   8.126   0.510
63860SOL    HW293478   7.660   8.187   0.548
63861SOL     OW93479   4.381   7.368   2.414
63861SOL    HW193480   4.367   7.274   2.403
63861SOL    HW293481   4.456   7.375   2.474
63862SOL     OW93482   9.006   2.099   6.752
63862SOL    HW193483   8.936   2.037   6.773
63862SOL    HW293484   8.961   2.174   6.715
63863SOL     OW93485  11.807  13.046   3.702
63863SOL    HW193486  11.737  12.982   3.712
63863SOL    HW293487  11.772  13.127   3.740
63864SOL     OW93488   9.298   5.705  10.558
63864SOL    HW193489   9.297   5.613  10.532
63864SOL    HW293490   9.243   5.708  10.636
63865SOL     OW93491  11.611  12.160  10.665
63865SOL    HW193492  11.557  12.216  10.609
63865SOL    HW293493  11.550  12.095  10.700
63866SOL     OW93494  11.516  14.166   9.933
63866SOL    HW193495  11.506  14.106  10.007
63866SOL    HW293496  11.598  14.212   9.950
63867SOL     OW93497   4.391   3.450  14.794
63867SOL    HW193498   4.398   3.509  14.719
63867SOL    HW293499   4.443   3.373  14.769
63868SOL     OW93500   4.164  14.729   0.731
63868SOL    HW193501   4.157  14.810   0.682
63868SOL    HW293502   4.107  14.668   0.684
63869SOL     OW93503   5.733  12.619  10.230
63869SOL    HW193504   5.796  12.690  10.220
63869SOL    HW293505   5.648  12.661  10.218
63870SOL     OW93506   3.659  12.932   6.903
63870SOL    HW193507   3.670  12.973   6.817
63870SOL    HW293508   3.718  12.981   6.960
63871SOL     OW93509  10.253   2.923   2.506
63871SOL    HW193510  10.168   2.946   2.469
63871SOL    HW293511  10.234   2.854   2.569
63872SOL     OW93512  14.124   6.991   0.007
63872SOL    HW193513  14.140   7.015   0.098
63872SOL    HW293514  14.076   7.065  14.843
63873SOL     OW93515   6.617   6.249   3.071
63873SOL    HW193516   6.698   6.268   3.117
63873SOL    HW293517   6.552   6.306   3.112
63874SOL     OW93518   0.791   4.700   1.422
63874SOL    HW193519   0.822   4.627   1.475
63874SOL    HW293520   0.705   4.721   1.458
63875SOL     OW93521  13.723   8.630  11.719
63875SOL    HW193522  13.760   8.640  11.806
63875SOL    HW293523  13.749   8.542  11.692
63876SOL     OW93524  12.862   1.214   8.796
63876SOL    HW193525  12.858   1.227   8.891
63876SOL    HW293526  12.934   1.153   8.783
63877SOL     OW93527   9.158   8.612   4.392
63877SOL    HW193528   9.156   8.538   4.451
63877SOL    HW293529   9.204   8.580   4.314
63878SOL     OW93530   5.753  10.726   0.943
63878SOL    HW193531   5.673  10.740   0.893
63878SOL    HW293532   5.824  10.732   0.878
63879SOL     OW93533   0.683  10.821   3.148
63879SOL    HW193534   0.655  10.749   3.205
63879SOL    HW293535   0.750  10.782   3.092
63880SOL     OW93536  11.986  10.818   2.544
63880SOL    HW193537  11.911  10.828   2.486
63880SOL    HW293538  12.014  10.727   2.532
63881SOL     OW93539   4.652  10.366  14.504
63881SOL    HW193540   4.612  10.393  14.421
63881SOL    HW293541   4.632  10.436  14.565
63882SOL     OW93542  13.788   1.076   7.343
63882SOL    HW193543  13.705   1.038   7.314
63882SOL    HW293544  13.855   1.030   7.291
63883SOL     OW93545  12.522  14.413   3.555
63883SOL    HW193546  12.563  14.374   3.633
63883SOL    HW293547  12.431  14.384   3.559
63884SOL     OW93548  13.013   9.061   1.914
63884SOL    HW193549  13.091   9.069   1.970
63884SOL    HW293550  12.976   8.976   1.937
63885SOL     OW93551   4.350   7.999   2.562
63885SOL    HW193552   4.417   7.931   2.560
63885SOL    HW293553   4.358   8.044   2.478
63886SOL     OW93554   4.635  11.413  13.931
63886SOL    HW193555   4.566  11.473  13.903
63886SOL    HW293556   4.597  11.363  14.003
63887SOL     OW93557  13.958   9.630  14.831
63887SOL    HW193558  13.874   9.609  14.788
63887SOL    HW293559  13.989   9.709  14.786
63888SOL     OW93560  13.327  11.597   9.104
63888SOL    HW193561  13.387  11.664   9.138
63888SOL    HW293562  13.385  11.525   9.079
63889SOL     OW93563   8.340   7.049   4.829
63889SOL    HW193564   8.255   7.068   4.788
63889SOL    HW293565   8.399   7.115   4.792
63890SOL     OW93566  13.577  12.250   1.945
63890SOL    HW193567  13.493  12.270   1.906
63890SOL    HW293568  13.639  12.310   1.902
63891SOL     OW93569   2.360   6.540  14.118
63891SOL    HW193570   2.295   6.471  14.129
63891SOL    HW293571   2.366   6.581  14.204
63892SOL     OW93572   5.817   9.210   7.135
63892SOL    HW193573   5.773   9.135   7.175
63892SOL    HW293574   5.907   9.204   7.166
63893SOL     OW93575   7.915   8.049  11.555
63893SOL    HW193576   7.907   8.110  11.629
63893SOL    HW293577   7.967   8.096  11.491
63894SOL     OW93578  10.434   9.886   4.381
63894SOL    HW193579  10.413   9.975   4.413
63894SOL    HW293580  10.353   9.856   4.340
63895SOL     OW93581  10.565  11.542   7.720
63895SOL    HW193582  10.484  11.561   7.673
63895SOL    HW293583  10.593  11.627   7.755
63896SOL     OW93584   8.643   8.045  13.073
63896SOL    HW193585   8.705   7.995  13.019
63896SOL    HW293586   8.588   8.091  13.010
63897SOL     OW93587  10.115   2.870  12.287
63897SOL    HW193588  10.186   2.933  12.273
63897SOL    HW293589  10.037   2.915  12.253
63898SOL     OW93590   1.001   5.304   0.878
63898SOL    HW193591   1.006   5.244   0.952
63898SOL    HW293592   1.082   5.354   0.881
63899SOL     OW93593   8.938  12.873  11.231
63899SOL    HW193594   9.014  12.850  11.179
63899SOL    HW293595   8.880  12.797  11.225
63900SOL     OW93596   0.920   4.732   0.965
63900SOL    HW193597   0.986   4.689   1.019
63900SOL    HW293598   0.904   4.670   0.893
63901SOL     OW93599   4.258   9.958  12.668
63901SOL    HW193600   4.169   9.930  12.689
63901SOL    HW293601   4.285  10.011  12.743
63902SOL     OW93602   9.834  13.811   2.722
63902SOL    HW193603   9.792  13.830   2.806
63902SOL    HW293604   9.862  13.720   2.730
63903SOL     OW93605  12.182   2.146   1.065
63903SOL    HW193606  12.106   2.088   1.057
63903SOL    HW293607  12.144   2.234   1.072
63904SOL     OW93608   3.456   5.466   5.264
63904SOL    HW193609   3.537   5.423   5.235
63904SOL    HW293610   3.485   5.551   5.299
63905SOL     OW93611   4.587  10.102   6.066
63905SOL    HW193612   4.656  10.148   6.113
63905SOL    HW293613   4.596  10.130   5.975
63906SOL     OW93614  14.512   3.556   5.625
63906SOL    HW193615  14.502   3.650   5.610
63906SOL    HW293616  14.452   3.536   5.697
63907SOL     OW93617   6.896   3.048   4.183
63907SOL    HW193618   6.930   3.089   4.262
63907SOL    HW293619   6.887   3.120   4.120
63908SOL     OW93620  11.167   8.164  13.311
63908SOL    HW193621  11.224   8.090  13.289
63908SOL    HW293622  11.227   8.234  13.338
63909SOL     OW93623   1.530   3.215  11.997
63909SOL    HW193624   1.457   3.241  11.941
63909SOL    HW293625   1.605   3.207  11.938
63910SOL     OW93626  11.734  13.116  14.086
63910SOL    HW193627  11.707  13.153  14.002
63910SOL    HW293628  11.830  13.114  14.081
63911SOL     OW93629   9.643   0.128  13.291
63911SOL    HW193630   9.592   0.120  13.210
63911SOL    HW293631   9.656   0.038  13.320
63912SOL     OW93632  13.458   5.097  13.935
63912SOL    HW193633  13.510   5.018  13.923
63912SOL    HW293634  13.454   5.109  14.030
63913SOL     OW93635   6.814   7.366   3.783
63913SOL    HW193636   6.868   7.312   3.725
63913SOL    HW293637   6.871   7.437   3.811
63914SOL     OW93638  13.651   9.296  10.992
63914SOL    HW193639  13.746   9.301  10.981
63914SOL    HW293640  13.631   9.369  11.051
63915SOL     OW93641   2.062  10.962   8.379
63915SOL    HW193642   2.156  10.980   8.381
63915SOL    HW293643   2.026  11.026   8.317
63916SOL     OW93644   4.931   6.664   9.304
63916SOL    HW193645   4.955   6.751   9.334
63916SOL    HW293646   4.993   6.605   9.348
63917SOL     OW93647   5.245   6.738  12.931
63917SOL    HW193648   5.236   6.698  13.017
63917SOL    HW293649   5.337   6.729  12.909
63918SOL     OW93650   1.642   9.268   6.568
63918SOL    HW193651   1.590   9.249   6.490
63918SOL    HW293652   1.713   9.323   6.537
63919SOL     OW93653   6.383  13.533   0.754
63919SOL    HW193654   6.314  13.480   0.794
63919SOL    HW293655   6.403  13.488   0.672
63920SOL     OW93656   5.376   5.606  12.766
63920SOL    HW193657   5.288   5.592  12.733
63920SOL    HW293658   5.409   5.518  12.785
63921SOL     OW93659  11.395   4.890   7.928
63921SOL    HW193660  11.305   4.923   7.936
63921SOL    HW293661  11.401   4.858   7.838
63922SOL     OW93662  14.263  12.873   0.907
63922SOL    HW193663  14.247  12.924   0.828
63922SOL    HW293664  14.249  12.936   0.979
63923SOL     OW93665   3.432  13.003   5.663
63923SOL    HW193666   3.411  12.976   5.752
63923SOL    HW293667   3.474  12.927   5.624
63924SOL     OW93668   2.168   9.235   0.651
63924SOL    HW193669   2.130   9.160   0.606
63924SOL    HW293670   2.105   9.256   0.720
63925SOL     OW93671   5.840   1.354   1.473
63925SOL    HW193672   5.758   1.345   1.424
63925SOL    HW293673   5.815   1.347   1.565
63926SOL     OW93674   2.634  13.009   5.105
63926SOL    HW193675   2.552  13.011   5.055
63926SOL    HW293676   2.608  13.033   5.194
63927SOL     OW93677   1.452   1.240  12.208
63927SOL    HW193678   1.512   1.258  12.136
63927SOL    HW293679   1.384   1.184  12.170
63928SOL     OW93680  11.803  12.630   0.260
63928SOL    HW193681  11.793  12.717   0.222
63928SOL    HW293682  11.733  12.578   0.220
63929SOL     OW93683   3.268   2.551  13.007
63929SOL    HW193684   3.299   2.641  13.018
63929SOL    HW293685   3.177   2.553  13.036
63930SOL     OW93686   2.518   3.927   6.325
63930SOL    HW193687   2.491   3.887   6.243
63930SOL    HW293688   2.539   4.017   6.303
63931SOL     OW93689  14.622   0.714  12.727
63931SOL    HW193690  14.634   0.743  12.637
63931SOL    HW293691  14.560   0.776  12.765
63932SOL     OW93692  12.747   4.899   5.634
63932SOL    HW193693  12.700   4.840   5.693
63932SOL    HW293694  12.696   4.898   5.553
63933SOL     OW93695   2.321   2.733   1.510
63933SOL    HW193696   2.400   2.684   1.486
63933SOL    HW293697   2.349   2.788   1.584
63934SOL     OW93698   2.744   7.475   4.689
63934SOL    HW193699   2.745   7.443   4.780
63934SOL    HW293700   2.674   7.540   4.688
63935SOL     OW93701  11.501   1.666  11.501
63935SOL    HW193702  11.587   1.624  11.497
63935SOL    HW293703  11.481   1.687  11.410
63936SOL     OW93704   6.295   0.161   7.688
63936SOL    HW193705   6.337   0.198   7.610
63936SOL    HW293706   6.289   0.235   7.749
63937SOL     OW93707  14.751   3.534   5.190
63937SOL    HW193708  14.799   3.568   5.266
63937SOL    HW293709  14.818   3.520   5.123
63938SOL     OW93710   6.363   8.726   5.605
63938SOL    HW193711   6.449   8.702   5.638
63938SOL    HW293712   6.370   8.715   5.510
63939SOL     OW93713   9.205  14.224  11.771
63939SOL    HW193714   9.223  14.254  11.682
63939SOL    HW293715   9.129  14.275  11.799
63940SOL     OW93716   3.045   8.131  14.489
63940SOL    HW193717   3.100   8.098  14.560
63940SOL    HW293718   2.956   8.131  14.525
63941SOL     OW93719   1.138   4.001   7.136
63941SOL    HW193720   1.078   4.025   7.207
63941SOL    HW293721   1.096   3.926   7.094
63942SOL     OW93722  10.426  12.771   5.245
63942SOL    HW193723  10.422  12.800   5.336
63942SOL    HW293724  10.340  12.731   5.229
63943SOL     OW93725   4.091   9.714   1.150
63943SOL    HW193726   4.137   9.796   1.165
63943SOL    HW293727   4.098   9.667   1.233
63944SOL     OW93728  14.607   2.032  13.100
63944SOL    HW193729  14.619   2.125  13.084
63944SOL    HW293730  14.594   1.994  13.013
63945SOL     OW93731   4.587   3.346  10.566
63945SOL    HW193732   4.616   3.394  10.489
63945SOL    HW293733   4.668   3.316  10.608
63946SOL     OW93734  12.900   9.144   3.362
63946SOL    HW193735  12.848   9.082   3.414
63946SOL    HW293736  12.895   9.109   3.273
63947SOL     OW93737  14.626   5.326  12.637
63947SOL    HW193738  14.579   5.300  12.557
63947SOL    HW293739  14.710   5.359  12.605
63948SOL     OW93740  10.027  13.787  11.004
63948SOL    HW193741  10.022  13.849  10.932
63948SOL    HW293742  10.077  13.833  11.072
63949SOL     OW93743   5.779  10.474   6.902
63949SOL    HW193744   5.847  10.511   6.846
63949SOL    HW293745   5.705  10.534   6.893
63950SOL     OW93746   5.480  13.809   4.005
63950SOL    HW193747   5.398  13.766   4.027
63950SOL    HW293748   5.517  13.835   4.090
63951SOL     OW93749  10.396   9.719   4.092
63951SOL    HW193750  10.358   9.791   4.143
63951SOL    HW293751  10.446   9.668   4.156
63952SOL     OW93752   6.401   9.023   6.471
63952SOL    HW193753   6.364   9.090   6.529
63952SOL    HW293754   6.364   9.043   6.385
63953SOL     OW93755   6.349   8.383  12.173
63953SOL    HW193756   6.403   8.450  12.131
63953SOL    HW293757   6.262   8.393  12.133
63954SOL     OW93758   3.942  13.900   1.134
63954SOL    HW193759   3.982  13.941   1.057
63954SOL    HW293760   3.869  13.957   1.157
63955SOL     OW93761  13.040   9.230   6.844
63955SOL    HW193762  12.954   9.223   6.885
63955SOL    HW293763  13.095   9.273   6.909
63956SOL     OW93764   1.324  10.852   8.652
63956SOL    HW193765   1.382  10.778   8.630
63956SOL    HW293766   1.382  10.917   8.691
63957SOL     OW93767   6.675   4.661  12.188
63957SOL    HW193768   6.715   4.588  12.236
63957SOL    HW293769   6.728   4.670  12.109
63958SOL     OW93770  10.840   1.950   6.584
63958SOL    HW193771  10.877   1.959   6.672
63958SOL    HW293772  10.759   2.001   6.588
63959SOL     OW93773   8.081   3.212   0.158
63959SOL    HW193774   8.158   3.162   0.132
63959SOL    HW293775   8.037   3.233   0.075
63960SOL     OW93776   1.754   6.697  12.841
63960SOL    HW193777   1.683   6.654  12.795
63960SOL    HW293778   1.821   6.630  12.852
63961SOL     OW93779   8.729   2.900   9.459
63961SOL    HW193780   8.758   2.885   9.549
63961SOL    HW293781   8.641   2.863   9.455
63962SOL     OW93782   2.795   7.921  13.058
63962SOL    HW193783   2.725   7.943  12.996
63962SOL    HW293784   2.869   7.975  13.029
63963SOL     OW93785   9.607  13.068   1.633
63963SOL    HW193786   9.612  13.081   1.727
63963SOL    HW293787   9.541  13.130   1.603
63964SOL     OW93788   7.031   1.286  14.250
63964SOL    HW193789   6.948   1.331  14.233
63964SOL    HW293790   7.040   1.288  14.345
63965SOL     OW93791  11.665   6.303  12.766
63965SOL    HW193792  11.587   6.315  12.819
63965SOL    HW293793  11.688   6.211  12.776
63966SOL     OW93794  10.145  10.545  10.571
63966SOL    HW193795  10.138  10.623  10.515
63966SOL    HW293796  10.227  10.504  10.544
63967SOL     OW93797  13.232   6.170  12.115
63967SOL    HW193798  13.157   6.173  12.174
63967SOL    HW293799  13.239   6.077  12.090
63968SOL     OW93800  11.016  14.654   0.895
63968SOL    HW193801  11.047  14.737   0.932
63968SOL    HW293802  11.032  14.590   0.964
63969SOL     OW93803   9.392  12.548   4.064
63969SOL    HW193804   9.357  12.603   4.134
63969SOL    HW293805   9.487  12.556   4.072
63970SOL     OW93806   8.583   6.802   0.852
63970SOL    HW193807   8.571   6.801   0.947
63970SOL    HW293808   8.658   6.859   0.838
63971SOL     OW93809   2.166   8.834  11.052
63971SOL    HW193810   2.098   8.841  11.119
63971SOL    HW293811   2.224   8.909  11.068
63972SOL     OW93812   8.585   3.596   2.026
63972SOL    HW193813   8.566   3.670   1.968
63972SOL    HW293814   8.557   3.624   2.112
63973SOL     OW93815   1.531  13.212   9.190
63973SOL    HW193816   1.465  13.177   9.130
63973SOL    HW293817   1.489  13.286   9.233
63974SOL     OW93818   2.911  11.170   2.581
63974SOL    HW193819   2.960  11.251   2.578
63974SOL    HW293820   2.853  11.174   2.505
63975SOL     OW93821  11.437  12.425   7.154
63975SOL    HW193822  11.387  12.346   7.132
63975SOL    HW293823  11.528  12.396   7.154
63976SOL     OW93824   8.564  13.456  13.717
63976SOL    HW193825   8.508  13.390  13.676
63976SOL    HW293826   8.642  13.408  13.744
63977SOL     OW93827   4.996   5.358   2.444
63977SOL    HW193828   5.064   5.369   2.510
63977SOL    HW293829   4.928   5.306   2.487
63978SOL     OW93830   1.722  13.769   1.087
63978SOL    HW193831   1.729  13.676   1.063
63978SOL    HW293832   1.780  13.779   1.162
63979SOL     OW93833   1.673   3.406   5.386
63979SOL    HW193834   1.662   3.325   5.337
63979SOL    HW293835   1.762   3.434   5.366
63980SOL     OW93836   4.892   5.934   7.083
63980SOL    HW193837   4.985   5.953   7.067
63980SOL    HW293838   4.888   5.915   7.177
63981SOL     OW93839   1.433  11.153  11.307
63981SOL    HW193840   1.370  11.104  11.253
63981SOL    HW293841   1.481  11.207  11.244
63982SOL     OW93842  14.353   5.034  13.513
63982SOL    HW193843  14.409   5.082  13.574
63982SOL    HW293844  14.283   5.096  13.490
63983SOL     OW93845   1.945   5.045  12.722
63983SOL    HW193846   1.889   5.105  12.673
63983SOL    HW293847   2.004   5.008  12.656
63984SOL     OW93848   3.567   4.063   2.919
63984SOL    HW193849   3.479   4.073   2.883
63984SOL    HW293850   3.612   4.145   2.897
63985SOL     OW93851   2.399   5.183   5.519
63985SOL    HW193852   2.457   5.206   5.591
63985SOL    HW293853   2.457   5.157   5.448
63986SOL     OW93854   4.585   1.320  13.861
63986SOL    HW193855   4.574   1.237  13.815
63986SOL    HW293856   4.672   1.351  13.834
63987SOL     OW93857  11.690  13.489   4.144
63987SOL    HW193858  11.631  13.543   4.091
63987SOL    HW293859  11.650  13.488   4.231
63988SOL     OW93860   9.089  12.883   3.446
63988SOL    HW193861   9.036  12.845   3.517
63988SOL    HW293862   9.025  12.922   3.387
63989SOL     OW93863   4.391   1.300   0.009
63989SOL    HW193864   4.419   1.238   0.077
63989SOL    HW293865   4.331   1.360   0.054
63990SOL     OW93866   6.999   8.132  11.354
63990SOL    HW193867   6.916   8.102  11.317
63990SOL    HW293868   7.036   8.054  11.396
63991SOL     OW93869   0.915  10.729   9.969
63991SOL    HW193870   0.822  10.718   9.950
63991SOL    HW293871   0.939  10.652  10.019
63992SOL     OW93872   2.536   8.985  13.855
63992SOL    HW193873   2.459   9.040  13.839
63992SOL    HW293874   2.579   9.025  13.930
63993SOL     OW93875  10.532  12.791   4.047
63993SOL    HW193876  10.549  12.860   4.112
63993SOL    HW293877  10.617  12.778   4.004
63994SOL     OW93878   1.513   3.961   1.335
63994SOL    HW193879   1.440   4.012   1.370
63994SOL    HW293880   1.561   4.022   1.280
63995SOL     OW93881   2.484   4.379  11.790
63995SOL    HW193882   2.563   4.426  11.818
63995SOL    HW293883   2.517   4.311  11.731
63996SOL     OW93884   3.985   0.394   7.270
63996SOL    HW193885   4.066   0.390   7.322
63996SOL    HW293886   3.916   0.410   7.334
63997SOL     OW93887   9.961   0.807   7.409
63997SOL    HW193888   9.994   0.891   7.377
63997SOL    HW293889  10.037   0.750   7.411
63998SOL     OW93890   9.816  13.598  11.898
63998SOL    HW193891   9.828  13.505  11.917
63998SOL    HW293892   9.728  13.617  11.930
63999SOL     OW93893  11.771   1.235   2.993
63999SOL    HW193894  11.708   1.163   2.984
63999SOL    HW293895  11.854   1.199   2.961
64000SOL     OW93896  14.392   0.987  13.499
64000SOL    HW193897  14.475   0.978  13.453
64000SOL    HW293898  14.366   0.897  13.520
64001SOL     OW93899  11.411   7.811   2.052
64001SOL    HW193900  11.496   7.850   2.031
64001SOL    HW293901  11.400   7.741   1.988
64002SOL     OW93902  13.497  12.762   0.701
64002SOL    HW193903  13.560  12.753   0.629
64002SOL    HW293904  13.541  12.725   0.777
64003SOL     OW93905  10.842  11.917   6.125
64003SOL    HW193906  10.824  11.983   6.058
64003SOL    HW293907  10.931  11.936   6.155
64004SOL     OW93908   0.067   5.062  13.350
64004SOL    HW193909   0.097   5.086  13.262
64004SOL    HW293910   0.095   4.971  13.360
64005SOL     OW93911  10.881  10.492  12.220
64005SOL    HW193912  10.930  10.543  12.285
64005SOL    HW293913  10.917  10.404  12.226
64006SOL     OW93914   0.244   9.251   6.738
64006SOL    HW193915   0.240   9.196   6.816
64006SOL    HW293916   0.218   9.193   6.667
64007SOL     OW93917  10.096   8.175  13.640
64007SOL    HW193918  10.130   8.175  13.730
64007SOL    HW293919  10.174   8.169  13.585
64008SOL     OW93920   3.468   4.140   4.577
64008SOL    HW193921   3.445   4.052   4.605
64008SOL    HW293922   3.391   4.172   4.531
64009SOL     OW93923   3.850   2.803   8.325
64009SOL    HW193924   3.805   2.833   8.404
64009SOL    HW293925   3.905   2.730   8.354
64010SOL     OW93926   4.347   1.281  14.406
64010SOL    HW193927   4.389   1.366  14.392
64010SOL    HW293928   4.377   1.253  14.492
64011SOL     OW93929  12.023  12.301   9.113
64011SOL    HW193930  12.079  12.257   9.049
64011SOL    HW293931  11.934  12.290   9.079
64012SOL     OW93932   1.845  14.571   7.674
64012SOL    HW193933   1.832  14.608   7.587
64012SOL    HW293934   1.921  14.619   7.709
64013SOL     OW93935   5.385  12.868   4.452
64013SOL    HW193936   5.353  12.782   4.426
64013SOL    HW293937   5.399  12.915   4.370
64014SOL     OW93938  13.080  13.581   3.920
64014SOL    HW193939  13.036  13.619   3.843
64014SOL    HW293940  13.162  13.629   3.926
64015SOL     OW93941   7.853   0.297   2.976
64015SOL    HW193942   7.781   0.244   2.943
64015SOL    HW293943   7.932   0.248   2.954
64016SOL     OW93944   6.844   8.020   7.427
64016SOL    HW193945   6.884   7.941   7.391
64016SOL    HW293946   6.904   8.048   7.497
64017SOL     OW93947  10.843  13.592   8.009
64017SOL    HW193948  10.900  13.520   8.036
64017SOL    HW293949  10.754  13.555   8.012
64018SOL     OW93950   0.575  13.454   6.916
64018SOL    HW193951   0.553  13.518   6.849
64018SOL    HW293952   0.520  13.378   6.896
64019SOL     OW93953   9.443  10.505   3.876
64019SOL    HW193954   9.535  10.481   3.875
64019SOL    HW293955   9.406  10.464   3.798
64020SOL     OW93956   0.824   5.907  11.995
64020SOL    HW193957   0.910   5.883  11.961
64020SOL    HW293958   0.764   5.887  11.923
64021SOL     OW93959   2.422   9.088  12.594
64021SOL    HW193960   2.435   9.036  12.674
64021SOL    HW293961   2.327   9.099  12.588
64022SOL     OW93962   2.018   3.686   9.467
64022SOL    HW193963   2.083   3.617   9.455
64022SOL    HW293964   2.045   3.755   9.407
64023SOL     OW93965  13.934   0.556  10.662
64023SOL    HW193966  13.845   0.564  10.629
64023SOL    HW293967  13.982   0.627  10.619
64024SOL     OW93968   4.975   3.206  10.536
64024SOL    HW193969   4.912   3.135  10.548
64024SOL    HW293970   5.060   3.165  10.553
64025SOL     OW93971  10.820  13.712   2.233
64025SOL    HW193972  10.847  13.660   2.157
64025SOL    HW293973  10.901  13.725   2.282
64026SOL     OW93974   7.647   2.242   2.338
64026SOL    HW193975   7.654   2.194   2.256
64026SOL    HW293976   7.672   2.332   2.315
64027SOL     OW93977   9.520   3.090   2.558
64027SOL    HW193978   9.614   3.099   2.575
64027SOL    HW293979   9.503   3.151   2.486
64028SOL     OW93980   9.222  14.681   0.514
64028SOL    HW193981   9.315  14.698   0.530
64028SOL    HW293982   9.203  14.726   0.431
64029SOL     OW93983   0.709  11.027  11.018
64029SOL    HW193984   0.695  10.982  10.934
64029SOL    HW293985   0.620  11.047  11.048
64030SOL     OW93986   6.712   1.871   4.815
64030SOL    HW193987   6.619   1.849   4.821
64030SOL    HW293988   6.756   1.805   4.870
64031SOL     OW93989   9.143   3.194   8.550
64031SOL    HW193990   9.226   3.182   8.596
64031SOL    HW293991   9.084   3.129   8.589
64032SOL     OW93992   0.364   6.493   9.529
64032SOL    HW193993   0.436   6.508   9.468
64032SOL    HW293994   0.295   6.554   9.500
64033SOL     OW93995  14.773   7.911  11.511
64033SOL    HW193996  14.865   7.897  11.488
64033SOL    HW293997  14.773   7.993  11.560
64034SOL     OW93998  14.545  12.937   2.374
64034SOL    HW193999  14.459  12.971   2.401
64034SOL    HW294000  14.550  12.958   2.280
64035SOL     OW94001   0.761   7.191  14.076
64035SOL    HW194002   0.776   7.285  14.070
64035SOL    HW294003   0.799   7.156  13.995
64036SOL     OW94004  13.396   4.385   2.766
64036SOL    HW194005  13.379   4.338   2.684
64036SOL    HW294006  13.463   4.333   2.810
64037SOL     OW94007   8.802   1.198  12.035
64037SOL    HW194008   8.859   1.188  12.111
64037SOL    HW294009   8.713   1.193  12.072
64038SOL     OW94010  12.538   8.555   1.059
64038SOL    HW194011  12.505   8.642   1.082
64038SOL    HW294012  12.459   8.502   1.049
64039SOL     OW94013   1.707  11.654  10.382
64039SOL    HW194014   1.723  11.700  10.300
64039SOL    HW294015   1.670  11.719  10.441
64040SOL     OW94016  14.838  11.797   9.684
64040SOL    HW194017  14.828  11.705   9.709
64040SOL    HW294018  14.782  11.844   9.746
64041SOL     OW94019  11.667  12.732   3.130
64041SOL    HW194020  11.762  12.742   3.127
64041SOL    HW294021  11.643  12.756   3.219
64042SOL     OW94022   6.857   1.259   6.744
64042SOL    HW194023   6.895   1.347   6.749
64042SOL    HW294024   6.822   1.253   6.655
64043SOL     OW94025   0.110   2.229   4.721
64043SOL    HW194026   0.097   2.254   4.630
64043SOL    HW294027   0.205   2.230   4.733
64044SOL     OW94028   8.458   4.042   9.666
64044SOL    HW194029   8.415   3.977   9.609
64044SOL    HW294030   8.449   4.006   9.754
64045SOL     OW94031   4.419   9.037   1.304
64045SOL    HW194032   4.330   9.072   1.302
64045SOL    HW294033   4.410   8.947   1.274
64046SOL     OW94034   7.963   8.376  13.565
64046SOL    HW194035   7.868   8.380  13.552
64046SOL    HW294036   7.986   8.464  13.595
64047SOL     OW94037   3.533   7.931   9.767
64047SOL    HW194038   3.570   7.940   9.679
64047SOL    HW294039   3.468   7.862   9.759
64048SOL     OW94040   5.287  12.454   1.878
64048SOL    HW194041   5.297  12.359   1.879
64048SOL    HW294042   5.376  12.487   1.863
64049SOL     OW94043  10.930   3.837   1.881
64049SOL    HW194044  10.949   3.921   1.922
64049SOL    HW294045  10.883   3.787   1.948
64050SOL     OW94046   6.590   5.393   1.708
64050SOL    HW194047   6.580   5.416   1.800
64050SOL    HW294048   6.683   5.404   1.691
64051SOL     OW94049   9.828   7.018   8.665
64051SOL    HW194050   9.733   7.028   8.670
64051SOL    HW294051   9.850   7.040   8.575
64052SOL     OW94052  10.315   0.517   9.823
64052SOL    HW194053  10.258   0.441   9.815
64052SOL    HW294054  10.351   0.529   9.734
64053SOL     OW94055   2.211   1.748  10.216
64053SOL    HW194056   2.273   1.711  10.278
64053SOL    HW294057   2.173   1.823  10.262
64054SOL     OW94058  10.044   0.161   3.195
64054SOL    HW194059  10.121   0.126   3.238
64054SOL    HW294060  10.009   0.089   3.143
64055SOL     OW94061  12.130   4.685   1.819
64055SOL    HW194062  12.187   4.609   1.826
64055SOL    HW294063  12.171   4.752   1.874
64056SOL     OW94064  14.815   1.382   6.508
64056SOL    HW194065  14.775   1.468   6.519
64056SOL    HW294066  14.840   1.356   6.597
64057SOL     OW94067   4.504   7.326   0.951
64057SOL    HW194068   4.589   7.342   0.909
64057SOL    HW294069   4.444   7.386   0.908
64058SOL     OW94070   2.597  12.155   7.927
64058SOL    HW194071   2.614  12.114   8.012
64058SOL    HW294072   2.531  12.099   7.886
64059SOL     OW94073   3.432  14.099   0.699
64059SOL    HW194074   3.483  14.018   0.700
64059SOL    HW294075   3.467  14.150   0.772
64060SOL     OW94076   5.543   5.306   4.189
64060SOL    HW194077   5.555   5.244   4.118
64060SOL    HW294078   5.454   5.340   4.178
64061SOL     OW94079   5.044   5.174   4.990
64061SOL    HW194080   5.032   5.222   5.072
64061SOL    HW294081   5.125   5.210   4.953
64062SOL     OW94082   8.994   7.070   2.588
64062SOL    HW194083   9.067   7.014   2.618
64062SOL    HW294084   9.035   7.153   2.565
64063SOL     OW94085  13.116   5.743   8.762
64063SOL    HW194086  13.182   5.680   8.730
64063SOL    HW294087  13.099   5.715   8.852
64064SOL     OW94088   5.155   9.782  10.797
64064SOL    HW194089   5.121   9.798  10.709
64064SOL    HW294090   5.198   9.697  10.792
64065SOL     OW94091   8.422  13.781   6.797
64065SOL    HW194092   8.354  13.734   6.747
64065SOL    HW294093   8.475  13.824   6.731
64066SOL     OW94094   1.558   9.226   0.490
64066SOL    HW194095   1.591   9.253   0.575
64066SOL    HW294096   1.621   9.262   0.427
64067SOL     OW94097   8.092  12.501   1.152
64067SOL    HW194098   8.179  12.476   1.121
64067SOL    HW294099   8.103  12.511   1.247
64068SOL     OW94100  11.219   6.935   7.234
64068SOL    HW194101  11.243   7.025   7.257
64068SOL    HW294102  11.281   6.881   7.284
64069SOL     OW94103   8.267  10.640   5.871
64069SOL    HW194104   8.296  10.580   5.803
64069SOL    HW294105   8.285  10.727   5.837
64070SOL     OW94106   6.967   5.584  11.952
64070SOL    HW194107   6.895   5.644  11.936
64070SOL    HW294108   6.996   5.557  11.864
64071SOL     OW94109  13.848   7.236   2.803
64071SOL    HW194110  13.869   7.296   2.874
64071SOL    HW294111  13.891   7.154   2.827
64072SOL     OW94112   5.314   1.740  11.457
64072SOL    HW194113   5.330   1.648  11.478
64072SOL    HW294114   5.320   1.744  11.362
64073SOL     OW94115   0.458  12.812   4.563
64073SOL    HW194116   0.548  12.800   4.535
64073SOL    HW294117   0.415  12.856   4.489
64074SOL     OW94118  10.301   9.278  11.194
64074SOL    HW194119  10.298   9.246  11.284
64074SOL    HW294120  10.209   9.286  11.169
64075SOL     OW94121  14.596  12.442  10.060
64075SOL    HW194122  14.654  12.366  10.051
64075SOL    HW294123  14.508  12.405  10.054
64076SOL     OW94124   0.604   4.648  10.283
64076SOL    HW194125   0.648   4.586  10.342
64076SOL    HW294126   0.511   4.632  10.297
64077SOL     OW94127   9.241  13.639   7.031
64077SOL    HW194128   9.237  13.731   7.007
64077SOL    HW294129   9.329  13.627   7.067
64078SOL     OW94130   9.796   7.746  13.078
64078SOL    HW194131   9.824   7.662  13.040
64078SOL    HW294132   9.738   7.784  13.013
64079SOL     OW94133   4.509  11.699   0.086
64079SOL    HW194134   4.449  11.716   0.158
64079SOL    HW294135   4.460  11.642   0.026
64080SOL     OW94136   7.453   5.134  13.691
64080SOL    HW194137   7.486   5.082  13.618
64080SOL    HW294138   7.463   5.077  13.768
64081SOL     OW94139   2.497   4.115   1.013
64081SOL    HW194140   2.585   4.083   0.995
64081SOL    HW294141   2.501   4.145   1.104
64082SOL     OW94142  10.690   7.183   1.955
64082SOL    HW194143  10.650   7.219   1.875
64082SOL    HW294144  10.718   7.261   2.004
64083SOL     OW94145  14.037   2.280   4.333
64083SOL    HW194146  14.085   2.198   4.332
64083SOL    HW294147  13.975   2.271   4.406
64084SOL     OW94148   5.977  10.620   1.414
64084SOL    HW194149   5.901  10.637   1.469
64084SOL    HW294150   5.964  10.677   1.338
64085SOL     OW94151   2.110   8.618   0.500
64085SOL    HW194152   2.026   8.590   0.536
64085SOL    HW294153   2.161   8.647   0.576
64086SOL     OW94154  12.744  13.791   9.475
64086SOL    HW194155  12.769  13.857   9.410
64086SOL    HW294156  12.665  13.751   9.439
64087SOL     OW94157   3.979   7.590   8.238
64087SOL    HW194158   3.906   7.600   8.299
64087SOL    HW294159   4.057   7.595   8.293
64088SOL     OW94160   1.024   6.182   9.628
64088SOL    HW194161   1.117   6.174   9.648
64088SOL    HW294162   0.985   6.215   9.709
64089SOL     OW94163   9.056  12.693   8.894
64089SOL    HW194164   9.054  12.708   8.800
64089SOL    HW294165   9.139  12.731   8.923
64090SOL     OW94166   1.339  10.104  13.152
64090SOL    HW194167   1.251  10.130  13.179
64090SOL    HW294168   1.365  10.037  13.215
64091SOL     OW94169   2.984   1.493  10.831
64091SOL    HW194170   3.070   1.454  10.849
64091SOL    HW294171   2.951   1.521  10.916
64092SOL     OW94172   4.977   4.563   3.485
64092SOL    HW194173   5.073   4.558   3.480
64092SOL    HW294174   4.960   4.622   3.558
64093SOL     OW94175  14.737   0.003   0.741
64093SOL    HW194176  14.768   0.094   0.736
64093SOL    HW294177  14.796  14.834   0.804
64094SOL     OW94178  10.273   7.779   2.186
64094SOL    HW194179  10.275   7.847   2.118
64094SOL    HW294180  10.196   7.727   2.166
64095SOL     OW94181   2.722   3.168   7.363
64095SOL    HW194182   2.800   3.222   7.378
64095SOL    HW294183   2.710   3.169   7.268
64096SOL     OW94184   1.895  12.038  11.790
64096SOL    HW194185   1.924  12.106  11.729
64096SOL    HW294186   1.918  12.072  11.876
64097SOL     OW94187   5.181   1.345   1.289
64097SOL    HW194188   5.188   1.273   1.226
64097SOL    HW294189   5.143   1.417   1.239
64098SOL     OW94190   8.492  10.631  10.889
64098SOL    HW194191   8.449  10.561  10.839
64098SOL    HW294192   8.547  10.585  10.952
64099SOL     OW94193  12.406  11.432  14.011
64099SOL    HW194194  12.491  11.410  13.973
64099SOL    HW294195  12.399  11.527  14.003
64100SOL     OW94196  14.237   2.938  11.563
64100SOL    HW194197  14.169   2.911  11.625
64100SOL    HW294198  14.194   2.935  11.478
64101SOL     OW94199  13.008   8.605   4.327
64101SOL    HW194200  12.957   8.678   4.361
64101SOL    HW294201  12.951   8.563   4.263
64102SOL     OW94202   3.051   2.531  10.872
64102SOL    HW194203   3.073   2.492  10.787
64102SOL    HW294204   2.957   2.548  10.868
64103SOL     OW94205   8.478   7.744   5.436
64103SOL    HW194206   8.550   7.687   5.464
64103SOL    HW294207   8.406   7.684   5.416
64104SOL     OW94208   0.301  14.461   2.918
64104SOL    HW194209   0.255  14.545   2.920
64104SOL    HW294210   0.235  14.397   2.946
64105SOL     OW94211  12.545  13.528   5.600
64105SOL    HW194212  12.521  13.503   5.511
64105SOL    HW294213  12.606  13.601   5.588
64106SOL     OW94214   9.877  10.938  14.322
64106SOL    HW194215   9.899  10.846  14.332
64106SOL    HW294216   9.945  10.984  14.372
64107SOL     OW94217  13.358   0.427   9.832
64107SOL    HW194218  13.360   0.467   9.745
64107SOL    HW294219  13.448   0.437   9.865
64108SOL     OW94220   0.357   5.704   9.164
64108SOL    HW194221   0.345   5.721   9.070
64108SOL    HW294222   0.360   5.791   9.203
64109SOL     OW94223   4.952  12.022   9.813
64109SOL    HW194224   4.932  11.988   9.726
64109SOL    HW294225   5.039  11.986   9.833
64110SOL     OW94226  14.531   7.343   5.874
64110SOL    HW194227  14.569   7.298   5.799
64110SOL    HW294228  14.574   7.303   5.950
64111SOL     OW94229  11.869   0.953   7.195
64111SOL    HW194230  11.774   0.951   7.194
64111SOL    HW294231  11.892   0.953   7.288
64112SOL     OW94232   3.824  12.476   1.521
64112SOL    HW194233   3.895  12.484   1.586
64112SOL    HW294234   3.772  12.402   1.552
64113SOL     OW94235   0.511   6.121   1.922
64113SOL    HW194236   0.452   6.196   1.923
64113SOL    HW294237   0.545   6.116   2.011
64114SOL     OW94238   0.357   8.428   4.757
64114SOL    HW194239   0.357   8.376   4.677
64114SOL    HW294240   0.309   8.375   4.821
64115SOL     OW94241   4.214   2.758   3.898
64115SOL    HW194242   4.284   2.704   3.934
64115SOL    HW294243   4.185   2.812   3.971
64116SOL     OW94244   6.674  14.429   6.971
64116SOL    HW194245   6.693  14.518   6.999
64116SOL    HW294246   6.579  14.428   6.957
64117SOL     OW94247   2.361  10.036   6.607
64117SOL    HW194248   2.423   9.975   6.566
64117SOL    HW294249   2.403  10.063   6.688
64118SOL     OW94250   9.875   8.217   9.217
64118SOL    HW194251   9.963   8.191   9.191
64118SOL    HW294252   9.821   8.201   9.140
64119SOL     OW94253  11.764  10.522   6.409
64119SOL    HW194254  11.709  10.544   6.485
64119SOL    HW294255  11.832  10.589   6.408
64120SOL     OW94256  11.743   7.968  12.769
64120SOL    HW194257  11.757   7.983  12.863
64120SOL    HW294258  11.725   8.055  12.734
64121SOL     OW94259   9.169  11.596  11.359
64121SOL    HW194260   9.192  11.523  11.417
64121SOL    HW294261   9.171  11.673  11.416
64122SOL     OW94262  11.822   3.329   3.371
64122SOL    HW194263  11.811   3.343   3.277
64122SOL    HW294264  11.783   3.243   3.388
64123SOL     OW94265   5.385  14.147  14.285
64123SOL    HW194266   5.473  14.142  14.247
64123SOL    HW294267   5.344  14.222  14.242
64124SOL     OW94268   6.924   1.772   7.820
64124SOL    HW194269   6.914   1.773   7.915
64124SOL    HW294270   7.016   1.795   7.805
64125SOL     OW94271   7.980  14.569   0.460
64125SOL    HW194272   7.972  14.476   0.440
64125SOL    HW294273   7.933  14.613   0.390
64126SOL     OW94274   9.311  13.489  12.740
64126SOL    HW194275   9.285  13.527  12.823
64126SOL    HW294276   9.332  13.564  12.684
64127SOL     OW94277  14.594   5.287   5.550
64127SOL    HW194278  14.559   5.376   5.548
64127SOL    HW294279  14.531   5.235   5.501
64128SOL     OW94280   8.948  13.132  11.317
64128SOL    HW194281   9.017  13.168  11.261
64128SOL    HW294282   8.942  13.040  11.292
64129SOL     OW94283   7.705   7.593  14.050
64129SOL    HW194284   7.702   7.503  14.017
64129SOL    HW294285   7.761   7.640  13.988
64130SOL     OW94286   9.274  10.430   0.192
64130SOL    HW194287   9.248  10.508   0.142
64130SOL    HW294288   9.294  10.463   0.279
64131SOL     OW94289   4.057   8.778   2.641
64131SOL    HW194290   4.092   8.866   2.624
64131SOL    HW294291   4.118   8.719   2.597
64132SOL     OW94292   8.456   5.565  11.984
64132SOL    HW194293   8.394   5.630  11.954
64132SOL    HW294294   8.516   5.613  12.041
64133SOL     OW94295  14.354   7.227  11.058
64133SOL    HW194296  14.326   7.318  11.044
64133SOL    HW294297  14.298   7.195  11.129
64134SOL     OW94298   7.838   2.488   3.222
64134SOL    HW194299   7.835   2.393   3.214
64134SOL    HW294300   7.857   2.503   3.315
64135SOL     OW94301   9.367   6.680   1.046
64135SOL    HW194302   9.433   6.646   0.985
64135SOL    HW294303   9.380   6.775   1.044
64136SOL     OW94304   3.337   4.548   5.513
64136SOL    HW194305   3.320   4.544   5.419
64136SOL    HW294306   3.266   4.602   5.548
64137SOL     OW94307   1.414   1.725   2.105
64137SOL    HW194308   1.448   1.771   2.028
64137SOL    HW294309   1.480   1.739   2.172
64138SOL     OW94310   4.685   5.644  13.671
64138SOL    HW194311   4.725   5.700  13.604
64138SOL    HW294312   4.734   5.562  13.666
64139SOL     OW94313  11.758  12.336   4.041
64139SOL    HW194314  11.826  12.390   4.081
64139SOL    HW294315  11.773  12.248   4.077
64140SOL     OW94316   4.129  13.539   8.909
64140SOL    HW194317   4.075  13.578   8.840
64140SOL    HW294318   4.211  13.518   8.866
64141SOL     OW94319   0.411  12.846   6.985
64141SOL    HW194320   0.473  12.831   7.056
64141SOL    HW294321   0.464  12.833   6.905
64142SOL     OW94322   9.846   1.896   0.085
64142SOL    HW194323   9.920   1.906   0.024
64142SOL    HW294324   9.817   1.806   0.073
64143SOL     OW94325  13.351   0.752   4.248
64143SOL    HW194326  13.347   0.662   4.280
64143SOL    HW294327  13.405   0.799   4.311
64144SOL     OW94328   7.674  12.324   1.661
64144SOL    HW194329   7.599  12.286   1.707
64144SOL    HW294330   7.653  12.313   1.568
64145SOL     OW94331   1.460   7.805   3.254
64145SOL    HW194332   1.533   7.745   3.238
64145SOL    HW294333   1.451   7.808   3.349
64146SOL     OW94334   0.726   1.279   5.217
64146SOL    HW194335   0.648   1.329   5.241
64146SOL    HW294336   0.714   1.257   5.125
64147SOL     OW94337   2.280   8.350   2.952
64147SOL    HW194338   2.323   8.301   3.022
64147SOL    HW294339   2.349   8.364   2.887
64148SOL     OW94340  10.169   5.081   4.888
64148SOL    HW194341  10.145   5.162   4.844
64148SOL    HW294342  10.092   5.057   4.939
64149SOL     OW94343   9.524  11.150   4.098
64149SOL    HW194344   9.609  11.168   4.058
64149SOL    HW294345   9.543  11.143   4.192
64150SOL     OW94346   5.223   8.095   2.373
64150SOL    HW194347   5.193   8.021   2.322
64150SOL    HW294348   5.194   8.172   2.324
64151SOL     OW94349  13.597   5.526  10.127
64151SOL    HW194350  13.513   5.546  10.084
64151SOL    HW294351  13.626   5.444  10.087
64152SOL     OW94352   5.256  12.188  11.751
64152SOL    HW194353   5.168  12.150  11.754
64152SOL    HW294354   5.247  12.274  11.792
64153SOL     OW94355  10.104   2.990  10.308
64153SOL    HW194356  10.042   2.990  10.381
64153SOL    HW294357  10.077   2.915  10.254
64154SOL     OW94358   4.687   2.926   0.667
64154SOL    HW194359   4.728   2.947   0.751
64154SOL    HW294360   4.722   2.992   0.607
64155SOL     OW94361  12.804   8.882   9.598
64155SOL    HW194362  12.732   8.818   9.602
64155SOL    HW294363  12.866   8.844   9.536
64156SOL     OW94364  13.104   0.870   8.188
64156SOL    HW194365  13.080   0.807   8.256
64156SOL    HW294366  13.126   0.816   8.112
64157SOL     OW94367   3.199   4.164  14.770
64157SOL    HW194368   3.130   4.223  14.799
64157SOL    HW294369   3.177   4.080  14.810
64158SOL     OW94370   3.720   2.661  14.732
64158SOL    HW194371   3.729   2.575  14.773
64158SOL    HW294372   3.626   2.679  14.733
64159SOL     OW94373   4.336   5.918  12.149
64159SOL    HW194374   4.273   5.926  12.077
64159SOL    HW294375   4.299   5.851  12.206
64160SOL     OW94376  12.771  12.851  11.633
64160SOL    HW194377  12.853  12.855  11.682
64160SOL    HW294378  12.704  12.883  11.694
64161SOL     OW94379   0.326   0.226   0.999
64161SOL    HW194380   0.338   0.184   0.914
64161SOL    HW294381   0.286   0.310   0.979
64162SOL     OW94382  12.292   7.010   1.728
64162SOL    HW194383  12.313   7.103   1.734
64162SOL    HW294384  12.213   7.000   1.781
64163SOL     OW94385   2.715   0.267   3.105
64163SOL    HW194386   2.640   0.230   3.058
64163SOL    HW294387   2.790   0.216   3.074
64164SOL     OW94388  12.855   2.073   2.508
64164SOL    HW194389  12.899   2.097   2.427
64164SOL    HW294390  12.905   2.116   2.577
64165SOL     OW94391   8.512   6.590   5.936
64165SOL    HW194392   8.578   6.552   5.996
64165SOL    HW294393   8.442   6.525   5.935
64166SOL     OW94394  12.153   6.561   2.869
64166SOL    HW194395  12.177   6.653   2.877
64166SOL    HW294396  12.133   6.534   2.959
64167SOL     OW94397   1.158   3.392  11.431
64167SOL    HW194398   1.105   3.458  11.386
64167SOL    HW294399   1.195   3.438  11.507
64168SOL     OW94400  12.223  12.756   2.428
64168SOL    HW194401  12.263  12.749   2.341
64168SOL    HW294402  12.235  12.848   2.452
64169SOL     OW94403  12.566   0.275   7.370
64169SOL    HW194404  12.611   0.265   7.453
64169SOL    HW294405  12.616   0.343   7.324
64170SOL     OW94406   1.943   9.727   1.365
64170SOL    HW194407   1.864   9.773   1.335
64170SOL    HW294408   1.998   9.721   1.287
64171SOL     OW94409   5.594  13.268   6.872
64171SOL    HW194410   5.629  13.300   6.788
64171SOL    HW294411   5.669  13.231   6.917
64172SOL     OW94412   3.487   5.308  14.632
64172SOL    HW194413   3.423   5.241  14.656
64172SOL    HW294414   3.480   5.373  14.702
64173SOL     OW94415   7.403   5.196  11.975
64173SOL    HW194416   7.349   5.274  11.989
64173SOL    HW294417   7.473   5.203  12.039
64174SOL     OW94418   5.338  10.496   9.616
64174SOL    HW194419   5.254  10.453   9.628
64174SOL    HW294420   5.360  10.530   9.703
64175SOL     OW94421  11.416   2.220   0.107
64175SOL    HW194422  11.503   2.226   0.148
64175SOL    HW294423  11.374   2.303   0.130
64176SOL     OW94424   6.555   1.869   8.541
64176SOL    HW194425   6.490   1.841   8.477
64176SOL    HW294426   6.522   1.838   8.625
64177SOL     OW94427  11.504  12.216  13.161
64177SOL    HW194428  11.443  12.164  13.109
64177SOL    HW294429  11.541  12.154  13.224
64178SOL     OW94430   4.570  11.869  14.673
64178SOL    HW194431   4.664  11.852  14.678
64178SOL    HW294432   4.537  11.849  14.761
64179SOL     OW94433   6.312   4.537  11.673
64179SOL    HW194434   6.288   4.622  11.709
64179SOL    HW294435   6.397   4.517  11.714
64180SOL     OW94436  10.022   1.096  12.504
64180SOL    HW194437   9.939   1.122  12.463
64180SOL    HW294438  10.059   1.031  12.445
64181SOL     OW94439  14.577   6.728   3.738
64181SOL    HW194440  14.519   6.684   3.677
64181SOL    HW294441  14.652   6.756   3.685
64182SOL     OW94442   6.156   8.456   8.788
64182SOL    HW194443   6.143   8.414   8.703
64182SOL    HW294444   6.134   8.388   8.852
64183SOL     OW94445  14.667  13.499   1.259
64183SOL    HW194446  14.618  13.464   1.185
64183SOL    HW294447  14.713  13.576   1.223
64184SOL     OW94448  14.775   0.986   3.347
64184SOL    HW194449  14.780   0.986   3.442
64184SOL    HW294450  14.719   1.061   3.326
64185SOL     OW94451  14.370   6.551   5.418
64185SOL    HW194452  14.406   6.636   5.394
64185SOL    HW294453  14.446   6.495   5.430
64186SOL     OW94454  10.658   6.811  11.144
64186SOL    HW194455  10.612   6.841  11.065
64186SOL    HW294456  10.610   6.853  11.216
64187SOL     OW94457   9.971  14.213   7.215
64187SOL    HW194458  10.053  14.214   7.263
64187SOL    HW294459   9.922  14.140   7.252
64188SOL     OW94460   5.424   7.310  12.164
64188SOL    HW194461   5.423   7.222  12.126
64188SOL    HW294462   5.483   7.303  12.239
64189SOL     OW94463   3.836  10.499   9.618
64189SOL    HW194464   3.871  10.588   9.607
64189SOL    HW294465   3.910  10.447   9.649
64190SOL     OW94466   1.405  10.900  12.077
64190SOL    HW194467   1.438  10.929  11.992
64190SOL    HW294468   1.437  10.966  12.139
64191SOL     OW94469   8.486   3.585   5.096
64191SOL    HW194470   8.457   3.520   5.159
64191SOL    HW294471   8.462   3.549   5.011
64192SOL     OW94472  12.523  14.544   9.792
64192SOL    HW194473  12.461  14.524   9.721
64192SOL    HW294474  12.579  14.613   9.756
64193SOL     OW94475  10.738   9.865   9.800
64193SOL    HW194476  10.757   9.772   9.790
64193SOL    HW294477  10.793   9.893   9.872
64194SOL     OW94478   6.085   4.838   4.633
64194SOL    HW194479   6.167   4.861   4.677
64194SOL    HW294480   6.107   4.761   4.581
64195SOL     OW94481   2.159   6.665  14.858
64195SOL    HW194482   2.230   6.614  14.819
64195SOL    HW294483   2.153   6.743  14.803
64196SOL     OW94484   1.170   7.740   4.943
64196SOL    HW194485   1.201   7.816   4.991
64196SOL    HW294486   1.116   7.692   5.006
64197SOL     OW94487   0.555  14.569   8.769
64197SOL    HW194488   0.481  14.513   8.790
64197SOL    HW294489   0.545  14.588   8.675
64198SOL     OW94490  11.246   8.728   7.581
64198SOL    HW194491  11.192   8.747   7.657
64198SOL    HW294492  11.242   8.808   7.528
64199SOL     OW94493   5.978   1.242   6.852
64199SOL    HW194494   5.970   1.263   6.759
64199SOL    HW294495   5.981   1.327   6.896
64200SOL     OW94496  12.558   9.447   9.690
64200SOL    HW194497  12.602   9.522   9.729
64200SOL    HW294498  12.486   9.427   9.751
64201SOL     OW94499   8.172  14.587   0.659
64201SOL    HW194500   8.129  14.584   0.744
64201SOL    HW294501   8.100  14.587   0.595
64202SOL     OW94502   6.328  10.050   7.186
64202SOL    HW194503   6.418  10.048   7.217
64202SOL    HW294504   6.277  10.085   7.259
64203SOL     OW94505   9.742  14.802   4.198
64203SOL    HW194506   9.738  14.708   4.210
64203SOL    HW294507   9.653  14.827   4.172
64204SOL     OW94508  14.481   6.271   1.011
64204SOL    HW194509  14.441   6.198   0.963
64204SOL    HW294510  14.575   6.260   0.999
64205SOL     OW94511   3.963   6.354   2.056
64205SOL    HW194512   4.029   6.422   2.065
64205SOL    HW294513   3.983   6.292   2.127
64206SOL     OW94514  11.751  12.633   0.710
64206SOL    HW194515  11.776  12.725   0.704
64206SOL    HW294516  11.808  12.589   0.648
64207SOL     OW94517   0.005   4.981   2.116
64207SOL    HW194518   0.087   5.004   2.159
64207SOL    HW294519   0.030   4.918   2.048
64208SOL     OW94520  10.560   4.186   8.024
64208SOL    HW194521  10.522   4.271   8.047
64208SOL    HW294522  10.490   4.123   8.039
64209SOL     OW94523   0.491   9.339  14.172
64209SOL    HW194524   0.512   9.383  14.254
64209SOL    HW294525   0.558   9.368  14.110
64210SOL     OW94526  12.679  10.279  13.343
64210SOL    HW194527  12.623  10.341  13.297
64210SOL    HW294528  12.768  10.302  13.317
64211SOL     OW94529   3.517  10.140   3.787
64211SOL    HW194530   3.563  10.176   3.711
64211SOL    HW294531   3.556  10.185   3.862
64212SOL     OW94532  11.577  11.128  11.912
64212SOL    HW194533  11.643  11.062  11.934
64212SOL    HW294534  11.594  11.200  11.973
64213SOL     OW94535   4.614  10.667   8.945
64213SOL    HW194536   4.671  10.597   8.975
64213SOL    HW294537   4.639  10.681   8.853
64214SOL     OW94538   6.914   7.777  14.726
64214SOL    HW194539   6.848   7.728  14.775
64214SOL    HW294540   6.887   7.769  14.635
64215SOL     OW94541   0.939   0.165  13.161
64215SOL    HW194542   0.890   0.192  13.083
64215SOL    HW294543   0.940   0.070  13.158
64216SOL     OW94544   4.980   7.823   7.679
64216SOL    HW194545   5.062   7.782   7.651
64216SOL    HW294546   4.959   7.885   7.609
64217SOL     OW94547   3.657   8.460  13.051
64217SOL    HW194548   3.612   8.378  13.074
64217SOL    HW294549   3.628   8.479  12.962
64218SOL     OW94550   5.745  10.183   2.754
64218SOL    HW194551   5.698  10.104   2.726
64218SOL    HW294552   5.694  10.255   2.716
64219SOL     OW94553   2.120   5.542  12.860
64219SOL    HW194554   2.066   5.503  12.791
64219SOL    HW294555   2.171   5.469  12.894
64220SOL     OW94556   9.910   9.778   4.408
64220SOL    HW194557   9.820   9.792   4.380
64220SOL    HW294558   9.912   9.687   4.438
64221SOL     OW94559  11.729   6.571   6.974
64221SOL    HW194560  11.701   6.490   7.015
64221SOL    HW294561  11.814   6.591   7.013
64222SOL     OW94562  13.950  14.835   5.080
64222SOL    HW194563  14.015  14.808   5.144
64222SOL    HW294564  13.955   0.059   5.081
64223SOL     OW94565  14.117   6.636   4.938
64223SOL    HW194566  14.145   6.661   4.850
64223SOL    HW294567  14.031   6.596   4.925
64224SOL     OW94568   4.234   7.826  11.527
64224SOL    HW194569   4.200   7.850  11.441
64224SOL    HW294570   4.203   7.737  11.541
64225SOL     OW94571  11.198   0.438   8.506
64225SOL    HW194572  11.110   0.448   8.468
64225SOL    HW294573  11.182   0.423   8.599
64226SOL     OW94574   9.723   0.926   8.983
64226SOL    HW194575   9.654   0.992   8.987
64226SOL    HW294576   9.717   0.880   9.067
64227SOL     OW94577  13.407   0.246   5.578
64227SOL    HW194578  13.379   0.327   5.536
64227SOL    HW294579  13.498   0.233   5.550
64228SOL     OW94580  11.639   3.591   2.582
64228SOL    HW194581  11.565   3.628   2.629
64228SOL    HW294582  11.649   3.646   2.504
64229SOL     OW94583  13.427   3.638  11.582
64229SOL    HW194584  13.517   3.661  11.557
64229SOL    HW294585  13.385   3.722  11.600
64230SOL     OW94586   9.096   8.877   3.247
64230SOL    HW194587   9.116   8.954   3.300
64230SOL    HW294588   9.004   8.889   3.222
64231SOL     OW94589   3.081   2.753  14.790
64231SOL    HW194590   3.042   2.744  14.703
64231SOL    HW294591   3.090   2.848  14.802
64232SOL     OW94592  11.530   6.054  13.086
64232SOL    HW194593  11.520   5.983  13.022
64232SOL    HW294594  11.450   6.107  13.075
64233SOL     OW94595   7.469   8.273  12.285
64233SOL    HW194596   7.541   8.310  12.335
64233SOL    HW294597   7.402   8.251  12.350
64234SOL     OW94598  11.315  10.901  11.199
64234SOL    HW194599  11.403  10.863  11.208
64234SOL    HW294600  11.325  10.967  11.130
64235SOL     OW94601  14.817   9.289  12.719
64235SOL    HW194602   0.030   9.245  12.717
64235SOL    HW294603  14.759   9.232  12.669
64236SOL     OW94604   2.951   3.283   9.519
64236SOL    HW194605   3.019   3.351   9.525
64236SOL    HW294606   2.926   3.283   9.426
64237SOL     OW94607   2.524   4.166   9.182
64237SOL    HW194608   2.430   4.154   9.194
64237SOL    HW294609   2.537   4.158   9.087
64238SOL     OW94610  14.801   0.397  12.580
64238SOL    HW194611  14.751   0.448  12.516
64238SOL    HW294612  14.736   0.374  12.647
64239SOL     OW94613  13.949  10.516   6.205
64239SOL    HW194614  13.887  10.589   6.198
64239SOL    HW294615  13.935  10.481   6.292
64240SOL     OW94616   1.834  12.164   0.478
64240SOL    HW194617   1.891  12.087   0.481
64240SOL    HW294618   1.784  12.154   0.398
64241SOL     OW94619  11.010   0.880   3.513
64241SOL    HW194620  10.928   0.862   3.467
64241SOL    HW294621  11.075   0.827   3.467
64242SOL     OW94622   4.423   3.703  13.982
64242SOL    HW194623   4.456   3.759  13.912
64242SOL    HW294624   4.361   3.645  13.938
64243SOL     OW94625   2.279   9.420   2.977
64243SOL    HW194626   2.194   9.386   2.951
64243SOL    HW294627   2.342   9.377   2.919
64244SOL     OW94628   3.297   2.282  10.225
64244SOL    HW194629   3.279   2.365  10.269
64244SOL    HW294630   3.211   2.242  10.211
64245SOL     OW94631  11.566   5.149   8.870
64245SOL    HW194632  11.541   5.240   8.882
64245SOL    HW294633  11.568   5.113   8.958
64246SOL     OW94634   6.979   4.810   5.015
64246SOL    HW194635   6.884   4.813   5.019
64246SOL    HW294636   7.001   4.719   5.033
64247SOL     OW94637   3.853   5.586   9.382
64247SOL    HW194638   3.927   5.646   9.370
64247SOL    HW294639   3.796   5.631   9.444
64248SOL     OW94640   2.287  11.724   2.598
64248SOL    HW194641   2.311  11.697   2.687
64248SOL    HW294642   2.197  11.693   2.587
64249SOL     OW94643   9.424   0.226   6.549
64249SOL    HW194644   9.493   0.202   6.610
64249SOL    HW294645   9.344   0.229   6.601
64250SOL     OW94646   8.313  13.467   1.860
64250SOL    HW194647   8.384  13.532   1.853
64250SOL    HW294648   8.347  13.390   1.815
64251SOL     OW94649   5.603   4.557   8.289
64251SOL    HW194650   5.678   4.597   8.246
64251SOL    HW294651   5.534   4.623   8.283
64252SOL     OW94652   0.999  12.242  13.361
64252SOL    HW194653   1.060  12.282  13.423
64252SOL    HW294654   0.931  12.308  13.347
64253SOL     OW94655   3.228   7.193   6.192
64253SOL    HW194656   3.289   7.256   6.231
64253SOL    HW294657   3.208   7.132   6.263
64254SOL     OW94658   5.572  12.656  13.990
64254SOL    HW194659   5.586  12.682  13.898
64254SOL    HW294660   5.477  12.650  13.999
64255SOL     OW94661  11.339  12.786   8.580
64255SOL    HW194662  11.385  12.731   8.515
64255SOL    HW294663  11.273  12.833   8.528
64256SOL     OW94664   7.600  12.136  10.299
64256SOL    HW194665   7.547  12.084  10.239
64256SOL    HW294666   7.674  12.165  10.247
64257SOL     OW94667   2.562   6.224   7.778
64257SOL    HW194668   2.548   6.130   7.789
64257SOL    HW294669   2.621   6.248   7.848
64258SOL     OW94670   1.507  13.965  12.790
64258SOL    HW194671   1.597  13.999  12.797
64258SOL    HW294672   1.516  13.871  12.805
64259SOL     OW94673  14.598  12.711  10.002
64259SOL    HW194674  14.679  12.755   9.977
64259SOL    HW294675  14.624  12.620  10.019
64260SOL     OW94676   0.666  10.773   5.362
64260SOL    HW194677   0.627  10.761   5.275
64260SOL    HW294678   0.671  10.868   5.373
64261SOL     OW94679   0.609  13.188  14.001
64261SOL    HW194680   0.700  13.212  13.984
64261SOL    HW294681   0.562  13.218  13.924
64262SOL     OW94682   0.424   2.702   4.361
64262SOL    HW194683   0.475   2.662   4.291
64262SOL    HW294684   0.484   2.703   4.436
64263SOL     OW94685   9.822   4.567   0.064
64263SOL    HW194686   9.776   4.560  14.853
64263SOL    HW294687   9.824   4.661   0.082
64264SOL     OW94688   1.928  11.648   5.319
64264SOL    HW194689   1.943  11.661   5.412
64264SOL    HW294690   2.004  11.599   5.289
64265SOL     OW94691  11.766  14.255  10.038
64265SOL    HW194692  11.795  14.303  10.115
64265SOL    HW294693  11.782  14.163  10.059
64266SOL     OW94694   2.791   5.078   6.058
64266SOL    HW194695   2.775   5.162   6.101
64266SOL    HW294696   2.886   5.070   6.054
64267SOL     OW94697   3.333   0.809   3.042
64267SOL    HW194698   3.288   0.752   2.978
64267SOL    HW294699   3.293   0.787   3.126
64268SOL     OW94700  14.216   9.622   8.672
64268SOL    HW194701  14.195   9.584   8.587
64268SOL    HW294702  14.224   9.547   8.731
64269SOL     OW94703  13.862  13.597   7.299
64269SOL    HW194704  13.956  13.580   7.308
64269SOL    HW294705  13.822  13.511   7.310
64270SOL     OW94706   6.832   0.036   6.329
64270SOL    HW194707   6.924   0.029   6.354
64270SOL    HW294708   6.833   0.088   6.249
64271SOL     OW94709   6.537   6.916   5.562
64271SOL    HW194710   6.604   6.980   5.582
64271SOL    HW294711   6.585   6.837   5.536
64272SOL     OW94712  10.875   4.105   3.466
64272SOL    HW194713  10.943   4.073   3.407
64272SOL    HW294714  10.799   4.048   3.450
64273SOL     OW94715  10.968  10.184   4.362
64273SOL    HW194716  10.903  10.124   4.325
64273SOL    HW294717  11.052  10.141   4.345
64274SOL     OW94718   2.247  11.025  11.484
64274SOL    HW194719   2.231  10.955  11.421
64274SOL    HW294720   2.342  11.023  11.498
64275SOL     OW94721   9.326   2.330   9.816
64275SOL    HW194722   9.236   2.310   9.842
64275SOL    HW294723   9.379   2.305   9.892
64276SOL     OW94724   8.914   1.210   8.213
64276SOL    HW194725   9.007   1.197   8.234
64276SOL    HW294726   8.867   1.168   8.285
64277SOL     OW94727  13.247   6.687   5.202
64277SOL    HW194728  13.339   6.688   5.226
64277SOL    HW294729  13.204   6.641   5.274
64278SOL     OW94730  11.022   7.047   2.946
64278SOL    HW194731  11.036   7.007   2.860
64278SOL    HW294732  10.942   7.006   2.978
64279SOL     OW94733   1.604   9.310   7.545
64279SOL    HW194734   1.651   9.391   7.560
64279SOL    HW294735   1.546   9.301   7.621
64280SOL     OW94736  12.315   7.175   9.720
64280SOL    HW194737  12.383   7.233   9.756
64280SOL    HW294738  12.348   7.151   9.633
64281SOL     OW94739   5.397  10.971  13.492
64281SOL    HW194740   5.397  10.919  13.412
64281SOL    HW294741   5.446  11.050  13.468
64282SOL     OW94742   0.066   6.195   6.271
64282SOL    HW194743   0.097   6.104   6.272
64282SOL    HW294744  14.843   6.188   6.279
64283SOL     OW94745   1.171   8.249   5.071
64283SOL    HW194746   1.120   8.330   5.069
64283SOL    HW294747   1.141   8.203   5.149
64284SOL     OW94748  13.254  14.230   0.182
64284SOL    HW194749  13.168  14.220   0.143
64284SOL    HW294750  13.287  14.314   0.148
64285SOL     OW94751   2.450   3.069   2.124
64285SOL    HW194752   2.488   3.057   2.211
64285SOL    HW294753   2.524   3.062   2.064
64286SOL     OW94754   4.146   6.652   4.665
64286SOL    HW194755   4.138   6.586   4.734
64286SOL    HW294756   4.125   6.605   4.585
64287SOL     OW94757  12.649   3.703  12.199
64287SOL    HW194758  12.662   3.762  12.274
64287SOL    HW294759  12.689   3.749  12.126
64288SOL     OW94760   0.673   4.418   1.741
64288SOL    HW194761   0.583   4.428   1.771
64288SOL    HW294762   0.704   4.337   1.782
64289SOL     OW94763   7.047   7.718   6.738
64289SOL    HW194764   7.070   7.781   6.806
64289SOL    HW294765   7.125   7.663   6.730
64290SOL     OW94766   9.391  14.257   8.142
64290SOL    HW194767   9.425  14.345   8.127
64290SOL    HW294768   9.389  14.216   8.056
64291SOL     OW94769  11.527  14.696   2.382
64291SOL    HW194770  11.585  14.759   2.423
64291SOL    HW294771  11.444  14.705   2.429
64292SOL     OW94772  12.708   5.504  10.470
64292SOL    HW194773  12.791   5.455  10.468
64292SOL    HW294774  12.695   5.532  10.379
64293SOL     OW94775   0.775   8.714   4.055
64293SOL    HW194776   0.791   8.765   4.134
64293SOL    HW294777   0.850   8.654   4.049
64294SOL     OW94778   3.836  11.976   5.611
64294SOL    HW194779   3.808  11.931   5.531
64294SOL    HW294780   3.786  11.933   5.681
64295SOL     OW94781  10.770  11.744   9.069
64295SOL    HW194782  10.738  11.672   9.123
64295SOL    HW294783  10.706  11.750   8.997
64296SOL     OW94784   4.415   3.407  13.877
64296SOL    HW194785   4.386   3.373  13.792
64296SOL    HW294786   4.507   3.382  13.883
64297SOL     OW94787   9.674  14.792   3.126
64297SOL    HW194788   9.668  14.814   3.033
64297SOL    HW294789   9.626  14.710   3.135
64298SOL     OW94790   9.593   6.132   7.312
64298SOL    HW194791   9.528   6.149   7.243
64298SOL    HW294792   9.676   6.125   7.265
64299SOL     OW94793  12.731  11.520  13.115
64299SOL    HW194794  12.823  11.544  13.127
64299SOL    HW294795  12.715  11.452  13.180
64300SOL     OW94796   8.112   3.294   4.674
64300SOL    HW194797   8.072   3.323   4.593
64300SOL    HW294798   8.166   3.219   4.649
64301SOL     OW94799  12.850   7.252   5.125
64301SOL    HW194800  12.899   7.268   5.206
64301SOL    HW294801  12.891   7.175   5.087
64302SOL     OW94802   3.486   6.430   5.384
64302SOL    HW194803   3.485   6.519   5.352
64302SOL    HW294804   3.457   6.437   5.475
64303SOL     OW94805   2.463  13.748   2.960
64303SOL    HW194806   2.476  13.839   2.933
64303SOL    HW294807   2.413  13.754   3.041
64304SOL     OW94808   2.100   3.528   0.024
64304SOL    HW194809   2.025   3.475  14.869
64304SOL    HW294810   2.124   3.578  14.818
64305SOL     OW94811  14.082  10.794   1.885
64305SOL    HW194812  14.111  10.879   1.918
64305SOL    HW294813  14.162  10.744   1.870
64306SOL     OW94814   1.959  10.220   5.781
64306SOL    HW194815   1.875  10.189   5.816
64306SOL    HW294816   1.945  10.313   5.763
64307SOL     OW94817  14.760   6.214  12.532
64307SOL    HW194818  14.697   6.224  12.461
64307SOL    HW294819  14.750   6.122  12.559
64308SOL     OW94820  13.413   1.386  13.917
64308SOL    HW194821  13.482   1.357  13.857
64308SOL    HW294822  13.351   1.313  13.919
64309SOL     OW94823   4.674   7.881   8.667
64309SOL    HW194824   4.735   7.854   8.737
64309SOL    HW294825   4.638   7.964   8.698
64310SOL     OW94826   6.510  10.529   6.433
64310SOL    HW194827   6.512  10.531   6.528
64310SOL    HW294828   6.422  10.560   6.410
64311SOL     OW94829   2.231   9.906  13.775
64311SOL    HW194830   2.238   9.852  13.696
64311SOL    HW294831   2.150   9.876  13.817
64312SOL     OW94832   6.878   3.443  12.755
64312SOL    HW194833   6.831   3.526  12.754
64312SOL    HW294834   6.953   3.459  12.812
64313SOL     OW94835   2.238   8.849   0.410
64313SOL    HW194836   2.193   8.805   0.338
64313SOL    HW294837   2.297   8.782   0.446
64314SOL     OW94838   5.658  11.073  10.681
64314SOL    HW194839   5.622  11.161  10.667
64314SOL    HW294840   5.688  11.045  10.595
64315SOL     OW94841   6.618   5.404   5.985
64315SOL    HW194842   6.689   5.448   6.032
64315SOL    HW294843   6.659   5.325   5.949
64316SOL     OW94844   1.792  12.200  13.492
64316SOL    HW194845   1.826  12.289  13.478
64316SOL    HW294846   1.799  12.186  13.586
64317SOL     OW94847  12.349   5.613   9.242
64317SOL    HW194848  12.432   5.648   9.209
64317SOL    HW294849  12.364   5.599   9.335
64318SOL     OW94850   9.913  11.940   5.204
64318SOL    HW194851   9.948  11.980   5.125
64318SOL    HW294852   9.833  11.895   5.176
64319SOL     OW94853  13.822  10.444  10.830
64319SOL    HW194854  13.795  10.397  10.751
64319SOL    HW294855  13.805  10.383  10.901
64320SOL     OW94856   8.616   8.857  10.237
64320SOL    HW194857   8.663   8.854  10.154
64320SOL    HW294858   8.636   8.773  10.279
64321SOL     OW94859  14.042  14.629   3.488
64321SOL    HW194860  14.008  14.546   3.521
64321SOL    HW294861  14.136  14.616   3.480
64322SOL     OW94862   4.344  11.077  12.143
64322SOL    HW194863   4.428  11.030  12.149
64322SOL    HW294864   4.285  11.030  12.201
64323SOL     OW94865   9.502  12.132  13.708
64323SOL    HW194866   9.583  12.113  13.660
64323SOL    HW294867   9.474  12.047  13.742
64324SOL     OW94868   0.253   7.691  14.010
64324SOL    HW194869   0.240   7.602  14.042
64324SOL    HW294870   0.276   7.680  13.917
64325SOL     OW94871   4.809   2.658   2.086
64325SOL    HW194872   4.844   2.659   2.175
64325SOL    HW294873   4.882   2.628   2.031
64326SOL     OW94874  10.259  12.659   9.676
64326SOL    HW194875  10.193  12.710   9.722
64326SOL    HW294876  10.338  12.667   9.730
64327SOL     OW94877   3.464   5.598   9.486
64327SOL    HW194878   3.446   5.637   9.400
64327SOL    HW294879   3.410   5.519   9.487
64328SOL     OW94880  12.988   0.715   8.415
64328SOL    HW194881  13.028   0.708   8.502
64328SOL    HW294882  12.895   0.698   8.430
64329SOL     OW94883   0.161   7.940  14.471
64329SOL    HW194884   0.139   7.990  14.392
64329SOL    HW294885   0.118   7.856  14.459
64330SOL     OW94886  11.073   8.905   3.291
64330SOL    HW194887  11.165   8.910   3.319
64330SOL    HW294888  11.044   8.996   3.288
64331SOL     OW94889   6.942  14.098   1.462
64331SOL    HW194890   6.848  14.110   1.476
64331SOL    HW294891   6.983  14.147   1.533
64332SOL     OW94892   4.518  14.507  10.798
64332SOL    HW194893   4.432  14.497  10.839
64332SOL    HW294894   4.518  14.443  10.727
64333SOL     OW94895  14.641  12.910  10.317
64333SOL    HW194896  14.604  12.964  10.247
64333SOL    HW294897  14.628  12.962  10.397
64334SOL     OW94898   3.372  11.877   8.160
64334SOL    HW194899   3.340  11.788   8.177
64334SOL    HW294900   3.304  11.934   8.195
64335SOL     OW94901   2.943   6.708   5.430
64335SOL    HW194902   2.872   6.772   5.427
64335SOL    HW294903   2.925   6.648   5.357
64336SOL     OW94904   4.903  10.640   2.056
64336SOL    HW194905   4.897  10.718   2.110
64336SOL    HW294906   4.875  10.669   1.969
64337SOL     OW94907  14.807   1.013   4.746
64337SOL    HW194908   0.018   1.056   4.726
64337SOL    HW294909  14.811   0.995   4.840
64338SOL     OW94910   2.701  10.534   0.626
64338SOL    HW194911   2.793  10.513   0.637
64338SOL    HW294912   2.696  10.629   0.639
64339SOL     OW94913   5.519  13.651   8.473
64339SOL    HW194914   5.542  13.693   8.556
64339SOL    HW294915   5.599  13.656   8.420
64340SOL     OW94916   1.271  14.731  10.174
64340SOL    HW194917   1.213  14.689  10.111
64340SOL    HW294918   1.359  14.701  10.149
64341SOL     OW94919  11.732   5.705   0.741
64341SOL    HW194920  11.640   5.726   0.760
64341SOL    HW294921  11.767   5.673   0.825
64342SOL     OW94922   3.798   4.712  10.206
64342SOL    HW194923   3.781   4.782  10.269
64342SOL    HW294924   3.893   4.715  10.192
64343SOL     OW94925   6.666   0.700   3.830
64343SOL    HW194926   6.598   0.649   3.874
64343SOL    HW294927   6.736   0.638   3.812
64344SOL     OW94928  12.847   0.169   5.959
64344SOL    HW194929  12.764   0.128   5.934
64344SOL    HW294930  12.873   0.122   6.039
64345SOL     OW94931   1.383   9.798   0.127
64345SOL    HW194932   1.463   9.786   0.179
64345SOL    HW294933   1.339   9.713   0.129
64346SOL     OW94934   0.541   2.645   0.455
64346SOL    HW194935   0.516   2.627   0.546
64346SOL    HW294936   0.458   2.654   0.408
64347SOL     OW94937   1.607   7.209  13.007
64347SOL    HW194938   1.609   7.223  12.913
64347SOL    HW294939   1.614   7.115  13.018
64348SOL     OW94940   4.159   3.615   5.767
64348SOL    HW194941   4.082   3.622   5.711
64348SOL    HW294942   4.181   3.522   5.766
64349SOL     OW94943   4.763   9.786   5.897
64349SOL    HW194944   4.757   9.877   5.868
64349SOL    HW294945   4.756   9.734   5.816
64350SOL     OW94946   2.500   7.149   1.400
64350SOL    HW194947   2.575   7.135   1.457
64350SOL    HW294948   2.445   7.072   1.412
64351SOL     OW94949   1.890   5.210   4.066
64351SOL    HW194950   1.827   5.138   4.072
64351SOL    HW294951   1.839   5.283   4.032
64352SOL     OW94952   6.946   2.306  10.340
64352SOL    HW194953   6.999   2.354  10.277
64352SOL    HW294954   6.978   2.334  10.426
64353SOL     OW94955   2.383   4.642   8.804
64353SOL    HW194956   2.414   4.619   8.892
64353SOL    HW294957   2.316   4.577   8.785
64354SOL     OW94958   8.954   0.022   8.172
64354SOL    HW194959   8.876  14.859   8.214
64354SOL    HW294960   8.943   0.117   8.175
64355SOL     OW94961   5.361   4.270  10.246
64355SOL    HW194962   5.453   4.268  10.272
64355SOL    HW294963   5.317   4.316  10.317
64356SOL     OW94964   1.395   6.483   7.271
64356SOL    HW194965   1.379   6.556   7.212
64356SOL    HW294966   1.459   6.516   7.334
64357SOL     OW94967   9.376   4.737   3.659
64357SOL    HW194968   9.422   4.819   3.644
64357SOL    HW294969   9.404   4.709   3.746
64358SOL     OW94970  13.458   6.188   8.306
64358SOL    HW194971  13.444   6.236   8.388
64358SOL    HW294972  13.379   6.205   8.254
64359SOL     OW94973  13.124   1.129   8.184
64359SOL    HW194974  13.103   1.038   8.203
64359SOL    HW294975  13.076   1.148   8.104
64360SOL     OW94976   3.613   0.048  13.214
64360SOL    HW194977   3.610   0.089  13.128
64360SOL    HW294978   3.540   0.087  13.261
64361SOL     OW94979   4.640   3.811   5.580
64361SOL    HW194980   4.550   3.778   5.583
64361SOL    HW294981   4.676   3.790   5.666
64362SOL     OW94982   0.847   6.331   3.249
64362SOL    HW194983   0.818   6.384   3.324
64362SOL    HW294984   0.820   6.242   3.271
64363SOL     OW94985  12.245  10.376   9.513
64363SOL    HW194986  12.164  10.326   9.506
64363SOL    HW294987  12.235  10.426   9.595
64364SOL     OW94988  13.053   9.860   4.154
64364SOL    HW194989  13.108   9.792   4.114
64364SOL    HW294990  12.969   9.852   4.109
64365SOL     OW94991   6.092   9.250   8.381
64365SOL    HW194992   6.081   9.330   8.433
64365SOL    HW294993   6.152   9.275   8.311
64366SOL     OW94994   5.483   0.888   4.746
64366SOL    HW194995   5.552   0.934   4.793
64366SOL    HW294996   5.469   0.807   4.795
64367SOL     OW94997  11.349  14.241   6.476
64367SOL    HW194998  11.401  14.172   6.433
64367SOL    HW294999  11.291  14.272   6.406
64368SOL     OW95000   2.577  12.153   0.278
64368SOL    HW195001   2.499  12.156   0.334
64368SOL    HW295002   2.630  12.082   0.315
64369SOL     OW95003   3.267   5.900   2.506
64369SOL    HW195004   3.269   5.936   2.595
64369SOL    HW295005   3.190   5.939   2.466
64370SOL     OW95006   1.789   8.013   0.375
64370SOL    HW195007   1.862   7.952   0.385
64370SOL    HW295008   1.778   8.022   0.280
64371SOL     OW95009   8.839   3.489  14.270
64371SOL    HW195010   8.913   3.487  14.331
64371SOL    HW295011   8.866   3.550  14.201
64372SOL     OW95012  11.536   7.180   4.088
64372SOL    HW195013  11.560   7.176   3.995
64372SOL    HW295014  11.569   7.265   4.118
64373SOL     OW95015   8.752  13.361  11.179
64373SOL    HW195016   8.792  13.301  11.242
64373SOL    HW295017   8.691  13.306  11.129
64374SOL     OW95018   0.620   6.657   4.130
64374SOL    HW195019   0.649   6.667   4.039
64374SOL    HW295020   0.701   6.649   4.180
64375SOL     OW95021   9.482   2.102   6.195
64375SOL    HW195022   9.549   2.087   6.128
64375SOL    HW295023   9.439   2.017   6.206
64376SOL     OW95024   9.735   1.382   7.288
64376SOL    HW195025   9.755   1.289   7.275
64376SOL    HW295026   9.821   1.423   7.298
64377SOL     OW95027   0.211   2.262  13.358
64377SOL    HW195028   0.152   2.194  13.326
64377SOL    HW295029   0.277   2.215  13.409
64378SOL     OW95030  14.154   8.070   0.355
64378SOL    HW195031  14.149   8.057   0.260
64378SOL    HW295032  14.062   8.070   0.383
64379SOL     OW95033   2.032  10.971  11.092
64379SOL    HW195034   2.123  10.982  11.121
64379SOL    HW295035   2.014  11.049  11.040
64380SOL     OW95036   8.667   4.158   8.157
64380SOL    HW195037   8.643   4.128   8.069
64380SOL    HW295038   8.626   4.095   8.216
64381SOL     OW95039   8.837   3.204   8.103
64381SOL    HW195040   8.868   3.237   8.018
64381SOL    HW295041   8.897   3.133   8.125
64382SOL     OW95042   8.659   5.405   1.185
64382SOL    HW195043   8.632   5.488   1.225
64382SOL    HW295044   8.731   5.429   1.128
64383SOL     OW95045   9.859  12.313  13.564
64383SOL    HW195046   9.816  12.228  13.561
64383SOL    HW295047   9.789  12.375  13.586
64384SOL     OW95048  11.536   3.422   3.403
64384SOL    HW195049  11.544   3.337   3.358
64384SOL    HW295050  11.590   3.481   3.350
64385SOL     OW95051  11.640  10.838   8.755
64385SOL    HW195052  11.669  10.748   8.773
64385SOL    HW295053  11.555  10.827   8.711
64386SOL     OW95054   8.064   5.000   0.806
64386SOL    HW195055   8.039   5.092   0.792
64386SOL    HW295056   8.148   5.005   0.851
64387SOL     OW95057   3.566   2.656   2.104
64387SOL    HW195058   3.661   2.668   2.099
64387SOL    HW295059   3.537   2.667   2.013
64388SOL     OW95060  11.663   6.351   3.508
64388SOL    HW195061  11.651   6.444   3.487
64388SOL    HW295062  11.757   6.341   3.520
64389SOL     OW95063  13.832   7.611  14.246
64389SOL    HW195064  13.857   7.703  14.235
64389SOL    HW295065  13.907   7.562  14.212
64390SOL     OW95066  11.530   7.329   9.333
64390SOL    HW195067  11.496   7.266   9.396
64390SOL    HW295068  11.453   7.372   9.297
64391SOL     OW95069  13.276   9.320   7.633
64391SOL    HW195070  13.334   9.299   7.560
64391SOL    HW295071  13.192   9.338   7.592
64392SOL     OW95072   1.123   1.875  14.583
64392SOL    HW195073   1.140   1.788  14.548
64392SOL    HW295074   1.144   1.869  14.676
64393SOL     OW95075   7.364   4.627   1.924
64393SOL    HW195076   7.347   4.676   1.844
64393SOL    HW295077   7.409   4.548   1.895
64394SOL     OW95078   5.792  13.881  13.659
64394SOL    HW195079   5.744  13.829  13.723
64394SOL    HW295080   5.817  13.960  13.707
64395SOL     OW95081   0.350   1.220   5.735
64395SOL    HW195082   0.430   1.169   5.747
64395SOL    HW295083   0.321   1.240   5.823
64396SOL     OW95084   5.594  10.424  13.922
64396SOL    HW195085   5.503  10.455  13.924
64396SOL    HW295086   5.640  10.489  13.869
64397SOL     OW95087  13.102   6.763   8.623
64397SOL    HW195088  13.040   6.693   8.642
64397SOL    HW295089  13.095   6.823   8.697
64398SOL     OW95090   7.121   0.460   3.491
64398SOL    HW195091   7.059   0.452   3.564
64398SOL    HW295092   7.103   0.384   3.436
64399SOL     OW95093   9.164  11.226   4.083
64399SOL    HW195094   9.207  11.140   4.081
64399SOL    HW295095   9.216  11.277   4.145
64400SOL     OW95096   0.431   9.955   0.220
64400SOL    HW195097   0.365   9.923   0.159
64400SOL    HW295098   0.393  10.034   0.258
64401SOL     OW95099   4.260   1.658   0.803
64401SOL    HW195100   4.242   1.566   0.825
64401SOL    HW295101   4.294   1.655   0.714
64402SOL     OW95102   6.485   4.399  14.324
64402SOL    HW195103   6.468   4.384  14.231
64402SOL    HW295104   6.497   4.311  14.361
64403SOL     OW95105   9.096   3.676   2.572
64403SOL    HW195106   9.083   3.589   2.611
64403SOL    HW295107   9.011   3.698   2.533
64404SOL     OW95108   9.036   5.016   8.847
64404SOL    HW195109   9.022   5.108   8.825
64404SOL    HW295110   9.101   4.986   8.783
64405SOL     OW95111  10.148  13.454  10.232
64405SOL    HW195112  10.222  13.501  10.194
64405SOL    HW295113  10.106  13.518  10.289
64406SOL     OW95114  12.758  13.827   6.317
64406SOL    HW195115  12.835  13.810   6.371
64406SOL    HW295116  12.711  13.895   6.364
64407SOL     OW95117   4.232   2.639  10.403
64407SOL    HW195118   4.271   2.723  10.428
64407SOL    HW295119   4.265   2.578  10.469
64408SOL     OW95120  10.294   7.466   6.443
64408SOL    HW195121  10.240   7.526   6.494
64408SOL    HW295122  10.265   7.479   6.353
64409SOL     OW95123  13.834   7.296   7.865
64409SOL    HW195124  13.891   7.360   7.907
64409SOL    HW295125  13.846   7.311   7.771
64410SOL     OW95126   7.637   3.134  11.750
64410SOL    HW195127   7.668   3.103  11.665
64410SOL    HW295128   7.542   3.121  11.746
64411SOL     OW95129  11.777   3.385   5.752
64411SOL    HW195130  11.817   3.463   5.792
64411SOL    HW295131  11.705   3.363   5.811
64412SOL     OW95132   1.838   6.175  13.272
64412SOL    HW195133   1.894   6.112  13.226
64412SOL    HW295134   1.893   6.253  13.282
64413SOL     OW95135   7.548  10.752   5.916
64413SOL    HW195136   7.528  10.832   5.964
64413SOL    HW295137   7.465  10.726   5.876
64414SOL     OW95138   0.027   3.303   5.611
64414SOL    HW195139   0.063   3.375   5.663
64414SOL    HW295140  14.806   3.324   5.602
64415SOL     OW95141  11.222   7.740   5.721
64415SOL    HW195142  11.283   7.751   5.794
64415SOL    HW295143  11.236   7.651   5.691
64416SOL     OW95144   5.934   9.167   8.160
64416SOL    HW195145   5.976   9.165   8.246
64416SOL    HW295146   5.943   9.077   8.127
64417SOL     OW95147  14.089   7.770  11.780
64417SOL    HW195148  14.139   7.791  11.859
64417SOL    HW295149  14.140   7.701  11.737
64418SOL     OW95150   1.508   4.378  11.615
64418SOL    HW195151   1.594   4.400  11.580
64418SOL    HW295152   1.463   4.463  11.623
64419SOL     OW95153  10.269  10.530   4.543
64419SOL    HW195154  10.283  10.436   4.550
64419SOL    HW295155  10.325  10.568   4.611
64420SOL     OW95156   7.481   9.665  12.028
64420SOL    HW195157   7.566   9.707  12.012
64420SOL    HW295158   7.422   9.706  11.965
64421SOL     OW95159  12.309   4.374  12.059
64421SOL    HW195160  12.250   4.317  12.009
64421SOL    HW295161  12.276   4.462  12.044
64422SOL     OW95162   0.859  14.447  10.416
64422SOL    HW195163   0.854  14.455  10.321
64422SOL    HW295164   0.931  14.505  10.441
64423SOL     OW95165   0.325   6.728   6.057
64423SOL    HW195166   0.367   6.803   6.098
64423SOL    HW295167   0.241   6.761   6.026
64424SOL     OW95168   6.384   1.109  11.617
64424SOL    HW195169   6.294   1.136  11.602
64424SOL    HW295170   6.405   1.144  11.704
64425SOL     OW95171   4.942   9.716   3.922
64425SOL    HW195172   4.910   9.743   3.836
64425SOL    HW295173   4.934   9.795   3.976
64426SOL     OW95174  10.825   0.241   7.208
64426SOL    HW195175  10.864   0.159   7.238
64426SOL    HW295176  10.819   0.295   7.287
64427SOL     OW95177   4.785   0.843   7.515
64427SOL    HW195178   4.841   0.780   7.562
64427SOL    HW295179   4.696   0.810   7.529
64428SOL     OW95180  12.236   4.820   0.636
64428SOL    HW195181  12.299   4.767   0.685
64428SOL    HW295182  12.150   4.789   0.667
64429SOL     OW95183   5.421   9.566  13.257
64429SOL    HW195184   5.376   9.646  13.284
64429SOL    HW295185   5.399   9.555  13.165
64430SOL     OW95186   9.199   0.684  14.482
64430SOL    HW195187   9.138   0.715  14.549
64430SOL    HW295188   9.143   0.656  14.410
64431SOL     OW95189   3.606   3.084   9.189
64431SOL    HW195190   3.635   3.043   9.270
64431SOL    HW295191   3.636   3.174   9.196
64432SOL     OW95192  12.897   3.694  14.104
64432SOL    HW195193  12.982   3.731  14.077
64432SOL    HW295194  12.911   3.669  14.195
64433SOL     OW95195   8.995   9.845   8.366
64433SOL    HW195196   8.968   9.847   8.274
64433SOL    HW295197   9.078   9.799   8.365
64434SOL     OW95198  14.247   3.960   2.024
64434SOL    HW195199  14.185   4.006   1.967
64434SOL    HW295200  14.236   3.868   2.002
64435SOL     OW95201  13.976  11.279  10.285
64435SOL    HW195202  14.059  11.262  10.241
64435SOL    HW295203  13.921  11.203  10.263
64436SOL     OW95204   3.223   0.216   4.721
64436SOL    HW195205   3.254   0.168   4.798
64436SOL    HW295206   3.303   0.233   4.669
64437SOL     OW95207   7.924   8.514  10.823
64437SOL    HW195208   7.886   8.572  10.889
64437SOL    HW295209   7.976   8.573  10.767
64438SOL     OW95210  13.484   3.719   8.846
64438SOL    HW195211  13.555   3.712   8.782
64438SOL    HW295212  13.416   3.661   8.812
64439SOL     OW95213   2.199   6.873  14.612
64439SOL    HW195214   2.115   6.904  14.578
64439SOL    HW295215   2.260   6.883  14.538
64440SOL     OW95216   9.140   1.923  14.277
64440SOL    HW195217   9.182   1.882  14.352
64440SOL    HW295218   9.048   1.929  14.300
64441SOL     OW95219   5.983  14.812  12.479
64441SOL    HW195220   5.991  14.863  12.399
64441SOL    HW295221   5.931  14.735  12.453
64442SOL     OW95222   6.884   5.201   2.774
64442SOL    HW195223   6.955   5.174   2.715
64442SOL    HW295224   6.855   5.119   2.816
64443SOL     OW95225   9.325   9.466   3.211
64443SOL    HW195226   9.247   9.416   3.231
64443SOL    HW295227   9.383   9.452   3.287
64444SOL     OW95228  10.204  14.070   3.974
64444SOL    HW195229  10.116  14.046   3.945
64444SOL    HW295230  10.245  13.987   3.997
64445SOL     OW95231   7.038   3.692   6.360
64445SOL    HW195232   7.100   3.620   6.346
64445SOL    HW295233   6.960   3.666   6.311
64446SOL     OW95234   9.432   4.006   9.698
64446SOL    HW195235   9.338   4.008   9.680
64446SOL    HW295236   9.472   3.985   9.614
64447SOL     OW95237   1.166   4.009   8.918
64447SOL    HW195238   1.161   4.072   8.846
64447SOL    HW295239   1.259   3.988   8.926
64448SOL     OW95240   5.019   3.635  12.499
64448SOL    HW195241   4.952   3.632  12.431
64448SOL    HW295242   5.074   3.559  12.483
64449SOL     OW95243   6.156  12.609   4.438
64449SOL    HW195244   6.166  12.523   4.396
64449SOL    HW295245   6.072  12.642   4.406
64450SOL     OW95246  11.621  10.324   8.946
64450SOL    HW195247  11.528  10.342   8.955
64450SOL    HW295248  11.663  10.382   9.011
64451SOL     OW95249   4.965   8.564   4.806
64451SOL    HW195250   5.025   8.602   4.870
64451SOL    HW295251   4.981   8.470   4.811
64452SOL     OW95252  11.597  11.168   2.308
64452SOL    HW195253  11.514  11.178   2.355
64452SOL    HW295254  11.658  11.136   2.374
64453SOL     OW95255  14.424  10.383  10.940
64453SOL    HW195256  14.376  10.454  10.897
64453SOL    HW295257  14.378  10.371  11.023
64454SOL     OW95258  14.101   7.471   2.245
64454SOL    HW195259  14.160   7.542   2.221
64454SOL    HW295260  14.155   7.392   2.242
64455SOL     OW95261   1.674   8.486  10.149
64455SOL    HW195262   1.766   8.464  10.166
64455SOL    HW295263   1.626   8.435  10.213
64456SOL     OW95264  13.506   8.441   6.083
64456SOL    HW195265  13.564   8.508   6.120
64456SOL    HW295266  13.545   8.358   6.110
64457SOL     OW95267   9.023   5.804  12.124
64457SOL    HW195268   9.040   5.761  12.040
64457SOL    HW295269   8.969   5.880  12.101
64458SOL     OW95270   4.757   1.355  14.616
64458SOL    HW195271   4.799   1.293  14.675
64458SOL    HW295272   4.785   1.441  14.649
64459SOL     OW95273  11.925  10.616   5.313
64459SOL    HW195274  12.019  10.604   5.296
64459SOL    HW295275  11.917  10.708   5.338
64460SOL     OW95276   8.956   6.399   5.403
64460SOL    HW195277   8.893   6.378   5.335
64460SOL    HW295278   8.905   6.400   5.484
64461SOL     OW95279  13.915   8.747   1.390
64461SOL    HW195280  13.913   8.783   1.478
64461SOL    HW295281  13.843   8.684   1.388
64462SOL     OW95282   5.327  14.421   1.009
64462SOL    HW195283   5.242  14.379   1.004
64462SOL    HW295284   5.321  14.481   1.084
64463SOL     OW95285  10.823   0.148  10.975
64463SOL    HW195286  10.843   0.096  10.897
64463SOL    HW295287  10.767   0.219  10.944
64464SOL     OW95288   1.891   6.329   4.729
64464SOL    HW195289   1.967   6.386   4.748
64464SOL    HW295290   1.892   6.264   4.800
64465SOL     OW95291  14.061  12.689   4.227
64465SOL    HW195292  14.083  12.775   4.193
64465SOL    HW295293  14.103  12.686   4.313
64466SOL     OW95294   8.049   0.839   6.845
64466SOL    HW195295   8.008   0.912   6.891
64466SOL    HW295296   8.142   0.844   6.870
64467SOL     OW95297  11.127  11.487   9.744
64467SOL    HW195298  11.146  11.579   9.762
64467SOL    HW295299  11.148  11.442   9.826
64468SOL     OW95300  10.115  11.932  11.451
64468SOL    HW195301  10.193  11.988  11.448
64468SOL    HW295302  10.064  11.966  11.524
64469SOL     OW95303  12.685   0.202   5.071
64469SOL    HW195304  12.618   0.238   5.013
64469SOL    HW295305  12.767   0.214   5.023
64470SOL     OW95306  10.092  12.396   4.923
64470SOL    HW195307  10.002  12.394   4.953
64470SOL    HW295308  10.118  12.487   4.931
64471SOL     OW95309   6.838   5.232   7.874
64471SOL    HW195310   6.810   5.324   7.882
64471SOL    HW295311   6.898   5.232   7.800
64472SOL     OW95312   3.479   5.369  12.845
64472SOL    HW195313   3.521   5.333  12.923
64472SOL    HW295314   3.405   5.419  12.878
64473SOL     OW95315   2.293   9.527  10.573
64473SOL    HW195316   2.336   9.476  10.641
64473SOL    HW295317   2.353   9.525  10.499
64474SOL     OW95318   6.652   2.298   1.344
64474SOL    HW195319   6.680   2.313   1.435
64474SOL    HW295320   6.734   2.296   1.295
64475SOL     OW95321   4.588   6.435   6.107
64475SOL    HW195322   4.683   6.425   6.100
64475SOL    HW295323   4.574   6.528   6.122
64476SOL     OW95324   0.645   4.239  12.817
64476SOL    HW195325   0.572   4.182  12.794
64476SOL    HW295326   0.651   4.234  12.912
64477SOL     OW95327  11.151   8.678   2.810
64477SOL    HW195328  11.197   8.594   2.804
64477SOL    HW295329  11.072   8.659   2.861
64478SOL     OW95330   1.923   9.493  12.561
64478SOL    HW195331   1.944   9.411  12.606
64478SOL    HW295332   1.933   9.472  12.468
64479SOL     OW95333   4.698  13.912  12.716
64479SOL    HW195334   4.658  13.912  12.803
64479SOL    HW295335   4.623  13.905  12.656
64480SOL     OW95336  14.059  12.985   6.280
64480SOL    HW195337  13.997  12.959   6.212
64480SOL    HW295338  14.117  13.049   6.236
64481SOL     OW95339  14.169   1.797   0.723
64481SOL    HW195340  14.077   1.783   0.746
64481SOL    HW295341  14.166   1.868   0.658
64482SOL     OW95342   7.565   3.094  12.049
64482SOL    HW195343   7.597   3.141  11.972
64482SOL    HW295344   7.595   3.147  12.123
64483SOL     OW95345  11.049   0.474  13.399
64483SOL    HW195346  10.986   0.542  13.423
64483SOL    HW295347  11.085   0.503  13.315
64484SOL     OW95348  14.751  12.486  12.404
64484SOL    HW195349  14.775  12.577  12.420
64484SOL    HW295350  14.655  12.487  12.400
64485SOL     OW95351  12.981   2.802  14.805
64485SOL    HW195352  12.941   2.792  14.719
64485SOL    HW295353  12.937   2.878  14.843
64486SOL     OW95354  12.194   3.194   4.907
64486SOL    HW195355  12.157   3.282   4.912
64486SOL    HW295356  12.224   3.175   4.995
64487SOL     OW95357   0.287   3.583   6.892
64487SOL    HW195358   0.366   3.549   6.849
64487SOL    HW295359   0.234   3.618   6.820
64488SOL     OW95360  10.883   5.313   6.935
64488SOL    HW195361  10.974   5.322   6.906
64488SOL    HW295362  10.850   5.403   6.935
64489SOL     OW95363  10.575   4.985   7.228
64489SOL    HW195364  10.652   4.985   7.172
64489SOL    HW295365  10.544   5.076   7.227
64490SOL     OW95366  12.409  11.199   7.546
64490SOL    HW195367  12.342  11.217   7.481
64490SOL    HW295368  12.489  11.236   7.509
64491SOL     OW95369   2.401   2.313   8.827
64491SOL    HW195370   2.390   2.230   8.781
64491SOL    HW295371   2.482   2.349   8.793
64492SOL     OW95372   9.031  11.920  12.995
64492SOL    HW195373   9.056  11.944  12.906
64492SOL    HW295374   8.969  11.849  12.985
64493SOL     OW95375   6.445  14.647  13.310
64493SOL    HW195376   6.439  14.555  13.336
64493SOL    HW295377   6.447  14.696  13.392
64494SOL     OW95378   0.110   9.189   2.861
64494SOL    HW195379   0.204   9.178   2.869
64494SOL    HW295380   0.085   9.234   2.942
64495SOL     OW95381  14.310   4.853   0.193
64495SOL    HW195382  14.337   4.894   0.111
64495SOL    HW295383  14.363   4.773   0.198
64496SOL     OW95384  13.727   2.847   3.527
64496SOL    HW195385  13.635   2.847   3.551
64496SOL    HW295386  13.736   2.773   3.466
64497SOL     OW95387  14.301   8.177   0.955
64497SOL    HW195388  14.376   8.209   1.005
64497SOL    HW295389  14.236   8.152   1.021
64498SOL     OW95390  14.248   8.325   4.593
64498SOL    HW195391  14.306   8.401   4.601
64498SOL    HW295392  14.259   8.296   4.503
64499SOL     OW95393  11.572  13.062   3.422
64499SOL    HW195394  11.657  13.033   3.389
64499SOL    HW295395  11.509  13.000   3.385
64500SOL     OW95396  11.688  12.515   1.727
64500SOL    HW195397  11.759  12.473   1.680
64500SOL    HW295398  11.726  12.595   1.763
64501SOL     OW95399  11.153   8.983   2.335
64501SOL    HW195400  11.155   8.966   2.429
64501SOL    HW295401  11.245   8.993   2.311
64502SOL     OW95402   0.123  13.081   3.572
64502SOL    HW195403   0.143  13.000   3.618
64502SOL    HW295404   0.198  13.094   3.514
64503SOL     OW95405   0.377   2.925  12.561
64503SOL    HW195406   0.320   2.878  12.621
64503SOL    HW295407   0.414   2.996  12.613
64504SOL     OW95408  11.902   3.228  12.819
64504SOL    HW195409  11.978   3.270  12.778
64504SOL    HW295410  11.851   3.194  12.746
64505SOL     OW95411   7.919   7.351  13.241
64505SOL    HW195412   7.980   7.339  13.314
64505SOL    HW295413   7.833   7.331  13.278
64506SOL     OW95414  11.860  11.375   5.618
64506SOL    HW195415  11.897  11.322   5.548
64506SOL    HW295416  11.867  11.465   5.587
64507SOL     OW95417  13.740  11.797  10.549
64507SOL    HW195418  13.827  11.758  10.535
64507SOL    HW295419  13.754  11.865  10.615
64508SOL     OW95420   3.620   0.451   3.790
64508SOL    HW195421   3.546   0.443   3.730
64508SOL    HW295422   3.676   0.518   3.750
64509SOL     OW95423   9.265   6.944  10.798
64509SOL    HW195424   9.279   6.851  10.813
64509SOL    HW295425   9.184   6.964  10.845
64510SOL     OW95426   2.834  13.681   0.064
64510SOL    HW195427   2.897  13.669   0.135
64510SOL    HW295428   2.816  13.775   0.064
64511SOL     OW95429   2.230   8.760  11.340
64511SOL    HW195430   2.298   8.759  11.272
64511SOL    HW295431   2.181   8.679  11.326
64512SOL     OW95432  10.962  11.111  14.565
64512SOL    HW195433  11.032  11.176  14.563
64512SOL    HW295434  11.008  11.027  14.566
64513SOL     OW95435   5.820   3.714   7.202
64513SOL    HW195436   5.786   3.801   7.181
64513SOL    HW295437   5.914   3.727   7.214
64514SOL     OW95438   2.062  13.904  14.115
64514SOL    HW195439   2.060  13.809  14.123
64514SOL    HW295440   2.014  13.922  14.034
64515SOL     OW95441   8.018   0.862  12.979
64515SOL    HW195442   7.998   0.830  13.067
64515SOL    HW295443   8.027   0.957  12.990
64516SOL     OW95444   5.481   0.033  11.452
64516SOL    HW195445   5.442   0.120  11.443
64516SOL    HW295446   5.553   0.045  11.513
64517SOL     OW95447   2.064   4.124   3.528
64517SOL    HW195448   1.982   4.165   3.502
64517SOL    HW295449   2.111   4.192   3.576
64518SOL     OW95450   2.135   5.826   8.505
64518SOL    HW195451   2.114   5.737   8.474
64518SOL    HW295452   2.219   5.845   8.464
64519SOL     OW95453  12.980   9.611   5.227
64519SOL    HW195454  12.970   9.529   5.274
64519SOL    HW295455  12.948   9.592   5.139
64520SOL     OW95456   5.905   3.051   7.958
64520SOL    HW195457   5.956   2.977   7.992
64520SOL    HW295458   5.863   3.016   7.879
64521SOL     OW95459  12.050   9.693   5.763
64521SOL    HW195460  12.113   9.669   5.832
64521SOL    HW295461  11.983   9.744   5.808
64522SOL     OW95462   5.928  12.978   9.739
64522SOL    HW195463   5.940  12.946   9.828
64522SOL    HW295464   5.967  13.065   9.739
64523SOL     OW95465   6.091  12.044  10.367
64523SOL    HW195466   5.997  12.025  10.359
64523SOL    HW295467   6.099  12.088  10.452
64524SOL     OW95468   2.409   4.616   0.253
64524SOL    HW195469   2.465   4.656   0.318
64524SOL    HW295470   2.432   4.523   0.254
64525SOL     OW95471   7.511   2.924  12.371
64525SOL    HW195472   7.424   2.964  12.372
64525SOL    HW295473   7.562   2.975  12.434
64526SOL     OW95474   6.937   4.280  12.071
64526SOL    HW195475   6.941   4.325  11.987
64526SOL    HW295476   6.896   4.196  12.050
64527SOL     OW95477   5.044   8.724   7.487
64527SOL    HW195478   5.004   8.767   7.563
64527SOL    HW295479   4.989   8.647   7.472
64528SOL     OW95480   8.808   0.065   3.241
64528SOL    HW195481   8.813   0.001   3.170
64528SOL    HW295482   8.892   0.055   3.287
64529SOL     OW95483   7.456   7.276   8.106
64529SOL    HW195484   7.418   7.222   8.037
64529SOL    HW295485   7.385   7.333   8.134
64530SOL     OW95486  14.538   2.769   2.207
64530SOL    HW195487  14.465   2.831   2.208
64530SOL    HW295488  14.499   2.685   2.184
64531SOL     OW95489   9.818   1.644  12.891
64531SOL    HW195490   9.753   1.629  12.959
64531SOL    HW295491   9.890   1.585  12.912
64532SOL     OW95492  10.332  11.966  11.882
64532SOL    HW195493  10.326  11.889  11.939
64532SOL    HW295494  10.374  12.032  11.936
64533SOL     OW95495   5.489   5.746   2.830
64533SOL    HW195496   5.552   5.685   2.868
64533SOL    HW295497   5.543   5.808   2.781
64534SOL     OW95498  14.462   6.230  13.368
64534SOL    HW195499  14.471   6.140  13.401
64534SOL    HW295500  14.391   6.225  13.303
64535SOL     OW95501   1.036   5.620   2.162
64535SOL    HW195502   0.986   5.550   2.122
64535SOL    HW295503   1.093   5.652   2.092
64536SOL     OW95504   8.403   2.035   5.914
64536SOL    HW195505   8.410   1.977   5.990
64536SOL    HW295506   8.388   2.122   5.952
64537SOL     OW95507   0.886   1.454   9.306
64537SOL    HW195508   0.964   1.465   9.253
64537SOL    HW295509   0.907   1.382   9.366
64538SOL     OW95510   4.408   0.497   1.076
64538SOL    HW195511   4.360   0.545   1.144
64538SOL    HW295512   4.420   0.409   1.112
64539SOL     OW95513   0.778   5.558  11.380
64539SOL    HW195514   0.755   5.523  11.466
64539SOL    HW295515   0.740   5.646  11.379
64540SOL     OW95516   1.276   2.800  11.676
64540SOL    HW195517   1.338   2.837  11.613
64540SOL    HW295518   1.252   2.874  11.732
64541SOL     OW95519  12.622   1.149  10.730
64541SOL    HW195520  12.704   1.166  10.775
64541SOL    HW295521  12.555   1.181  10.791
64542SOL     OW95522  12.852   1.072  13.376
64542SOL    HW195523  12.765   1.039  13.396
64542SOL    HW295524  12.841   1.167  13.370
64543SOL     OW95525   5.726  13.186   7.987
64543SOL    HW195526   5.786  13.132   8.038
64543SOL    HW295527   5.708  13.261   8.043
64544SOL     OW95528  10.694  11.518  14.831
64544SOL    HW195529  10.739  11.491   0.039
64544SOL    HW295530  10.719  11.453  14.766
64545SOL     OW95531   5.571   2.002   3.762
64545SOL    HW195532   5.527   2.084   3.784
64545SOL    HW295533   5.539   1.939   3.827
64546SOL     OW95534   0.838   5.697   7.982
64546SOL    HW195535   0.814   5.757   7.911
64546SOL    HW295536   0.805   5.738   8.061
64547SOL     OW95537  14.016   8.897   9.404
64547SOL    HW195538  14.074   8.964   9.440
64547SOL    HW295539  14.066   8.857   9.333
64548SOL     OW95540   1.243   0.219   2.795
64548SOL    HW195541   1.296   0.178   2.864
64548SOL    HW295542   1.305   0.239   2.725
64549SOL     OW95543   8.031   3.119   0.718
64549SOL    HW195544   8.035   3.173   0.639
64549SOL    HW295545   8.026   3.029   0.685
64550SOL     OW95546   7.839  14.200   8.103
64550SOL    HW195547   7.791  14.125   8.137
64550SOL    HW295548   7.869  14.172   8.016
64551SOL     OW95549  10.559   1.424   9.227
64551SOL    HW195550  10.597   1.444   9.312
64551SOL    HW295551  10.633   1.396   9.173
64552SOL     OW95552   5.986  14.011   0.793
64552SOL    HW195553   5.949  14.069   0.860
64552SOL    HW295554   5.910  13.968   0.754
64553SOL     OW95555   6.569   3.762  14.414
64553SOL    HW195556   6.531   3.849  14.425
64553SOL    HW295557   6.557   3.719  14.498
64554SOL     OW95558   8.098  12.748   5.327
64554SOL    HW195559   8.090  12.734   5.421
64554SOL    HW295560   8.008  12.754   5.295
64555SOL     OW95561  12.626   8.802  10.729
64555SOL    HW195562  12.693   8.746  10.769
64555SOL    HW295563  12.574   8.742  10.675
64556SOL     OW95564   2.367   0.039   8.024
64556SOL    HW195565   2.318   0.086   8.092
64556SOL    HW295566   2.300  14.861   7.977
64557SOL     OW95567  10.516  11.874  10.862
64557SOL    HW195568  10.481  11.813  10.928
64557SOL    HW295569  10.444  11.885  10.800
64558SOL     OW95570   7.771   4.393   7.534
64558SOL    HW195571   7.715   4.464   7.564
64558SOL    HW295572   7.714   4.339   7.480
64559SOL     OW95573   2.328   9.072   4.748
64559SOL    HW195574   2.337   9.112   4.835
64559SOL    HW295575   2.418   9.053   4.721
64560SOL     OW95576   6.830   1.579  14.422
64560SOL    HW195577   6.759   1.516  14.438
64560SOL    HW295578   6.785   1.661  14.402
64561SOL     OW95579   1.410   6.885   8.016
64561SOL    HW195580   1.351   6.960   8.018
64561SOL    HW295581   1.485   6.914   7.965
64562SOL     OW95582   7.174   8.213   0.120
64562SOL    HW195583   7.254   8.213   0.173
64562SOL    HW295584   7.140   8.124   0.128
64563SOL     OW95585   7.485   7.267   3.539
64563SOL    HW195586   7.423   7.272   3.611
64563SOL    HW295587   7.490   7.173   3.519
64564SOL     OW95588   7.573   2.639   2.461
64564SOL    HW195589   7.562   2.629   2.555
64564SOL    HW295590   7.649   2.585   2.440
64565SOL     OW95591   5.548   8.080   3.413
64565SOL    HW195592   5.640   8.058   3.426
64565SOL    HW295593   5.501   8.027   3.478
64566SOL     OW95594   4.518   1.909  14.276
64566SOL    HW195595   4.473   1.974  14.222
64566SOL    HW295596   4.573   1.961  14.335
64567SOL     OW95597  12.423   4.006   6.541
64567SOL    HW195598  12.500   3.996   6.485
64567SOL    HW295599  12.349   4.001   6.481
64568SOL     OW95600   5.075  11.768   5.177
64568SOL    HW195601   5.102  11.701   5.240
64568SOL    HW295602   5.095  11.851   5.220
64569SOL     OW95603   9.780  13.782   0.702
64569SOL    HW195604   9.818  13.870   0.696
64569SOL    HW295605   9.854  13.723   0.692
64570SOL     OW95606   6.902   9.667   0.739
64570SOL    HW195607   6.857   9.736   0.691
64570SOL    HW295608   6.994   9.678   0.716
64571SOL     OW95609  11.489  13.171   4.983
64571SOL    HW195610  11.572  13.140   5.019
64571SOL    HW295611  11.425  13.104   5.006
64572SOL     OW95612  11.589   9.463  13.402
64572SOL    HW195613  11.667   9.418  13.370
64572SOL    HW295614  11.525   9.393  13.417
64573SOL     OW95615  11.411   5.119  13.576
64573SOL    HW195616  11.468   5.190  13.605
64573SOL    HW295617  11.322   5.152  13.591
64574SOL     OW95618   9.407   9.058   8.964
64574SOL    HW195619   9.500   9.055   8.941
64574SOL    HW295620   9.405   9.099   9.050
64575SOL     OW95621  13.931  11.560   7.774
64575SOL    HW195622  13.886  11.497   7.830
64575SOL    HW295623  13.936  11.517   7.689
64576SOL     OW95624  11.677  13.243   5.936
64576SOL    HW195625  11.614  13.273   6.002
64576SOL    HW295626  11.664  13.148   5.933
64577SOL     OW95627   0.520   5.324  10.588
64577SOL    HW195628   0.434   5.350  10.555
64577SOL    HW295629   0.501   5.279  10.671
64578SOL     OW95630   9.254   2.590  10.813
64578SOL    HW195631   9.345   2.563  10.827
64578SOL    HW295632   9.222   2.613  10.900
64579SOL     OW95633   0.859   2.388   1.311
64579SOL    HW195634   0.811   2.350   1.237
64579SOL    HW295635   0.947   2.402   1.278
64580SOL     OW95636   4.877  13.682   1.565
64580SOL    HW195637   4.824  13.634   1.502
64580SOL    HW295638   4.965  13.645   1.556
64581SOL     OW95639  13.224  11.423  12.687
64581SOL    HW195640  13.161  11.381  12.745
64581SOL    HW295641  13.246  11.505  12.730
64582SOL     OW95642   5.901   4.286   8.227
64582SOL    HW195643   5.877   4.332   8.308
64582SOL    HW295644   5.822   4.289   8.173
64583SOL     OW95645   8.903   4.092  14.205
64583SOL    HW195646   8.900   4.125  14.295
64583SOL    HW295647   8.871   4.002  14.211
64584SOL     OW95648   6.207   5.201  14.710
64584SOL    HW195649   6.176   5.285  14.676
64584SOL    HW295650   6.129   5.160  14.747
64585SOL     OW95651   7.138   9.242   7.931
64585SOL    HW195652   7.105   9.167   7.883
64585SOL    HW295653   7.060   9.294   7.952
64586SOL     OW95654   2.992  12.323   6.989
64586SOL    HW195655   3.078  12.349   7.022
64586SOL    HW295656   2.931  12.351   7.057
64587SOL     OW95657  14.667   5.152   3.154
64587SOL    HW195658  14.680   5.064   3.191
64587SOL    HW295659  14.617   5.199   3.220
64588SOL     OW95660   1.519  11.476  12.650
64588SOL    HW195661   1.569  11.472  12.568
64588SOL    HW295662   1.427  11.477  12.621
64589SOL     OW95663   8.554   3.508   1.763
64589SOL    HW195664   8.596   3.502   1.849
64589SOL    HW295665   8.589   3.589   1.724
64590SOL     OW95666   4.510  13.449  11.063
64590SOL    HW195667   4.571  13.444  11.137
64590SOL    HW295668   4.566  13.460  10.986
64591SOL     OW95669   3.730  12.698   3.802
64591SOL    HW195670   3.676  12.729   3.874
64591SOL    HW295671   3.785  12.630   3.840
64592SOL     OW95672   9.487   0.189  12.224
64592SOL    HW195673   9.575   0.192  12.187
64592SOL    HW295674   9.488   0.113  12.282
64593SOL     OW95675  13.546   0.367   3.557
64593SOL    HW195676  13.611   0.401   3.619
64593SOL    HW295677  13.561   0.273   3.556
64594SOL     OW95678  10.190  11.512   8.101
64594SOL    HW195679  10.240  11.593   8.116
64594SOL    HW295680  10.124  11.511   8.169
64595SOL     OW95681   7.076   1.287   8.921
64595SOL    HW195682   6.983   1.283   8.899
64595SOL    HW295683   7.111   1.204   8.889
64596SOL     OW95684  10.364   9.116   6.410
64596SOL    HW195685  10.308   9.046   6.444
64596SOL    HW295686  10.401   9.080   6.329
64597SOL     OW95687  11.450  11.366   6.211
64597SOL    HW195688  11.401  11.367   6.293
64597SOL    HW295689  11.392  11.408   6.148
64598SOL     OW95690  13.207   9.164   3.887
64598SOL    HW195691  13.273   9.102   3.858
64598SOL    HW295692  13.142   9.165   3.817
64599SOL     OW95693   6.574  12.084  14.169
64599SOL    HW195694   6.533  12.151  14.224
64599SOL    HW295695   6.656  12.124  14.139
64600SOL     OW95696   9.552   3.947  13.528
64600SOL    HW195697   9.606   3.927  13.604
64600SOL    HW295698   9.582   4.032  13.498
64601SOL     OW95699   7.662   8.543   7.170
64601SOL    HW195700   7.675   8.462   7.219
64601SOL    HW295701   7.591   8.588   7.216
64602SOL     OW95702   9.643   6.649   7.922
64602SOL    HW195703   9.737   6.643   7.938
64602SOL    HW295704   9.602   6.611   8.000
64603SOL     OW95705  12.751   4.683  11.602
64603SOL    HW195706  12.789   4.610  11.554
64603SOL    HW295707  12.803   4.690  11.681
64604SOL     OW95708  11.518   2.605   9.250
64604SOL    HW195709  11.513   2.547   9.174
64604SOL    HW295710  11.459   2.677   9.229
64605SOL     OW95711   2.750   5.028   6.688
64605SOL    HW195712   2.668   4.980   6.679
64605SOL    HW295713   2.817   4.961   6.701
64606SOL     OW95714  13.684   8.923  13.034
64606SOL    HW195715  13.746   8.985  12.996
64606SOL    HW295716  13.599   8.965  13.027
64607SOL     OW95717  11.180   0.819   8.714
64607SOL    HW195718  11.220   0.899   8.749
64607SOL    HW295719  11.086   0.833   8.726
64608SOL     OW95720   8.166   8.417   3.803
64608SOL    HW195721   8.140   8.325   3.814
64608SOL    HW295722   8.230   8.432   3.872
64609SOL     OW95723   9.603   4.270   1.543
64609SOL    HW195724   9.649   4.319   1.475
64609SOL    HW295725   9.667   4.206   1.574
64610SOL     OW95726  11.970   4.261   4.696
64610SOL    HW195727  11.900   4.307   4.649
64610SOL    HW295728  12.002   4.325   4.759
64611SOL     OW95729   2.054   2.396   1.578
64611SOL    HW195730   2.013   2.480   1.561
64611SOL    HW295731   2.025   2.340   1.506
64612SOL     OW95732   0.224  14.128   6.800
64612SOL    HW195733   0.169  14.206   6.791
64612SOL    HW295734   0.311  14.157   6.770
64613SOL     OW95735   7.771   5.317  14.100
64613SOL    HW195736   7.727   5.340  14.181
64613SOL    HW295737   7.862   5.342  14.114
64614SOL     OW95738   8.286   8.132   3.073
64614SOL    HW195739   8.262   8.178   2.993
64614SOL    HW295740   8.235   8.175   3.142
64615SOL     OW95741   3.535   9.100   2.240
64615SOL    HW195742   3.566   9.010   2.231
64615SOL    HW295743   3.453   9.093   2.289
64616SOL     OW95744   7.163   8.271  13.841
64616SOL    HW195745   7.094   8.207  13.853
64616SOL    HW295746   7.235   8.238  13.895
64617SOL     OW95747   5.180  10.907   6.058
64617SOL    HW195748   5.196  10.835   6.120
64617SOL    HW295749   5.218  10.877   5.976
64618SOL     OW95750   8.619   6.336   9.969
64618SOL    HW195751   8.563   6.281   9.914
64618SOL    HW295752   8.566   6.354  10.047
64619SOL     OW95753   6.180   7.190   1.568
64619SOL    HW195754   6.275   7.201   1.555
64619SOL    HW295755   6.173   7.126   1.638
64620SOL     OW95756   7.118   9.596   4.981
64620SOL    HW195757   7.126   9.664   4.914
64620SOL    HW295758   7.168   9.630   5.055
64621SOL     OW95759   8.527   0.820  13.747
64621SOL    HW195760   8.446   0.808  13.797
64621SOL    HW295761   8.595   0.785  13.804
64622SOL     OW95762   2.141   4.955  12.552
64622SOL    HW195763   2.113   4.977  12.463
64622SOL    HW295764   2.195   4.876  12.542
64623SOL     OW95765  11.936   1.071  12.152
64623SOL    HW195766  11.991   1.041  12.080
64623SOL    HW295767  11.910   1.160  12.127
64624SOL     OW95768  14.197   2.426   4.840
64624SOL    HW195769  14.210   2.365   4.913
64624SOL    HW295770  14.149   2.499   4.879
64625SOL     OW95771   5.194  11.158   5.792
64625SOL    HW195772   5.117  11.133   5.741
64625SOL    HW295773   5.267  11.114   5.749
64626SOL     OW95774   5.650   8.434   7.651
64626SOL    HW195775   5.646   8.460   7.743
64626SOL    HW295776   5.559   8.420   7.625
64627SOL     OW95777  14.589  13.103  14.792
64627SOL    HW195778  14.622  13.185  14.829
64627SOL    HW295779  14.667  13.062  14.754
64628SOL     OW95780   2.506   3.059  12.613
64628SOL    HW195781   2.562   3.053  12.691
64628SOL    HW295782   2.532   3.141  12.571
64629SOL     OW95783   1.637  13.266  11.576
64629SOL    HW195784   1.654  13.345  11.628
64629SOL    HW295785   1.712  13.261  11.516
64630SOL     OW95786   9.853   4.429   5.904
64630SOL    HW195787   9.762   4.432   5.876
64630SOL    HW295788   9.869   4.515   5.943
64631SOL     OW95789   2.645  13.581   8.341
64631SOL    HW195790   2.700  13.534   8.403
64631SOL    HW295791   2.574  13.617   8.394
64632SOL     OW95792   0.370  13.894  11.363
64632SOL    HW195793   0.398  13.971  11.411
64632SOL    HW295794   0.402  13.820  11.415
64633SOL     OW95795   3.278   4.708   6.191
64633SOL    HW195796   3.362   4.754   6.181
64633SOL    HW295797   3.237   4.749   6.266
64634SOL     OW95798  12.008   4.600   0.936
64634SOL    HW195799  12.032   4.517   0.976
64634SOL    HW295800  12.036   4.666   0.999
64635SOL     OW95801  14.105   5.638  14.033
64635SOL    HW195802  14.145   5.722  14.008
64635SOL    HW295803  14.022   5.635  13.986
64636SOL     OW95804  12.324  10.583   4.214
64636SOL    HW195805  12.267  10.533   4.156
64636SOL    HW295806  12.315  10.541   4.300
64637SOL     OW95807  14.585   6.251  14.766
64637SOL    HW195808  14.625   6.239  14.680
64637SOL    HW295809  14.653   6.292  14.819
64638SOL     OW95810   7.235   9.817   0.443
64638SOL    HW195811   7.203   9.854   0.525
64638SOL    HW295812   7.193   9.731   0.438
64639SOL     OW95813  13.913   6.549  10.049
64639SOL    HW195814  13.843   6.523  10.109
64639SOL    HW295815  13.963   6.615  10.098
64640SOL     OW95816  10.036   0.466  14.453
64640SOL    HW195817  10.054   0.372  14.445
64640SOL    HW295818  10.110   0.508  14.410
64641SOL     OW95819   9.986   2.946   6.744
64641SOL    HW195820   9.976   2.942   6.839
64641SOL    HW295821  10.080   2.939   6.729
64642SOL     OW95822   9.149  12.200   8.994
64642SOL    HW195823   9.144  12.170   8.903
64642SOL    HW295824   9.172  12.293   8.988
64643SOL     OW95825   2.728  12.024   6.928
64643SOL    HW195826   2.697  12.102   6.974
64643SOL    HW295827   2.685  12.028   6.843
64644SOL     OW95828  10.660   3.285   1.312
64644SOL    HW195829  10.668   3.349   1.383
64644SOL    HW295830  10.732   3.224   1.326
64645SOL     OW95831   1.073  12.706   8.801
64645SOL    HW195832   1.095  12.757   8.723
64645SOL    HW295833   1.133  12.631   8.798
64646SOL     OW95834  13.278   7.834   9.899
64646SOL    HW195835  13.209   7.779   9.863
64646SOL    HW295836  13.253   7.923   9.874
64647SOL     OW95837  11.584   4.760   6.847
64647SOL    HW195838  11.528   4.684   6.860
64647SOL    HW295839  11.649   4.731   6.783
64648SOL     OW95840   4.042   8.493   8.728
64648SOL    HW195841   4.069   8.520   8.640
64648SOL    HW295842   4.054   8.571   8.782
64649SOL     OW95843  13.476   7.555   3.725
64649SOL    HW195844  13.555   7.603   3.701
64649SOL    HW295845  13.479   7.548   3.820
64650SOL     OW95846   4.071  10.539  11.063
64650SOL    HW195847   4.099  10.450  11.083
64650SOL    HW295848   4.023  10.567  11.141
64651SOL     OW95849   7.829  13.076  11.911
64651SOL    HW195850   7.811  13.104  12.000
64651SOL    HW295851   7.883  13.146  11.874
64652SOL     OW95852   6.130  14.317   0.915
64652SOL    HW195853   6.132  14.378   0.842
64652SOL    HW295854   6.048  14.269   0.904
64653SOL     OW95855   2.775   0.853  13.436
64653SOL    HW195856   2.777   0.842  13.341
64653SOL    HW295857   2.852   0.906  13.456
64654SOL     OW95858  10.541   4.829   3.528
64654SOL    HW195859  10.452   4.847   3.498
64654SOL    HW295860  10.590   4.909   3.509
64655SOL     OW95861   0.280   6.109   8.555
64655SOL    HW195862   0.332   6.187   8.535
64655SOL    HW295863   0.317   6.041   8.498
64656SOL     OW95864   9.412  10.200  14.031
64656SOL    HW195865   9.339  10.173  14.087
64656SOL    HW295866   9.391  10.289  14.005
64657SOL     OW95867   7.793  10.348   4.535
64657SOL    HW195868   7.777  10.425   4.589
64657SOL    HW295869   7.888  10.338   4.537
64658SOL     OW95870  10.097  10.722   5.577
64658SOL    HW195871  10.028  10.787   5.590
64658SOL    HW295872  10.095  10.669   5.656
64659SOL     OW95873   6.376  14.695   3.659
64659SOL    HW195874   6.419  14.615   3.628
64659SOL    HW295875   6.447  14.759   3.666
64660SOL     OW95876   0.347   9.129   1.149
64660SOL    HW195877   0.382   9.217   1.166
64660SOL    HW295878   0.293   9.110   1.226
64661SOL     OW95879  10.634   8.428   5.716
64661SOL    HW195880  10.636   8.519   5.686
64661SOL    HW295881  10.642   8.376   5.637
64662SOL     OW95882   8.651   6.235   1.959
64662SOL    HW195883   8.685   6.227   1.870
64662SOL    HW295884   8.727   6.221   2.015
64663SOL     OW95885   7.561   4.973  12.958
64663SOL    HW195886   7.557   4.885  12.996
64663SOL    HW295887   7.653   4.998  12.966
64664SOL     OW95888   5.640   1.698  12.915
64664SOL    HW195889   5.733   1.677  12.922
64664SOL    HW295890   5.609   1.696  13.006
64665SOL     OW95891   7.868   4.426   3.088
64665SOL    HW195892   7.939   4.458   3.144
64665SOL    HW295893   7.888   4.460   3.001
64666SOL     OW95894  13.552  13.249  12.661
64666SOL    HW195895  13.618  13.306  12.620
64666SOL    HW295896  13.485  13.309  12.693
64667SOL     OW95897   1.847  13.861   3.059
64667SOL    HW195898   1.825  13.944   3.016
64667SOL    HW295899   1.851  13.797   2.989
64668SOL     OW95900   6.190   9.793   7.656
64668SOL    HW195901   6.170   9.836   7.739
64668SOL    HW295902   6.268   9.837   7.624
64669SOL     OW95903   6.221  12.887  11.242
64669SOL    HW195904   6.188  12.798  11.230
64669SOL    HW295905   6.223  12.899  11.337
64670SOL     OW95906   9.940   8.589   5.549
64670SOL    HW195907   9.868   8.580   5.612
64670SOL    HW295908   9.917   8.665   5.497
64671SOL     OW95909   8.786  12.919   1.937
64671SOL    HW195910   8.846  12.890   1.869
64671SOL    HW295911   8.819  12.879   2.017
64672SOL     OW95912  11.240   8.619  10.987
64672SOL    HW195913  11.159   8.570  11.004
64672SOL    HW295914  11.211   8.708  10.970
64673SOL     OW95915   5.486   0.887   4.003
64673SOL    HW195916   5.492   0.964   4.060
64673SOL    HW295917   5.398   0.892   3.966
64674SOL     OW95918  10.646  14.327   7.097
64674SOL    HW195919  10.690  14.409   7.121
64674SOL    HW295920  10.579  14.315   7.165
64675SOL     OW95921   9.085   0.423   2.193
64675SOL    HW195922   9.162   0.407   2.247
64675SOL    HW295923   9.079   0.347   2.135
64676SOL     OW95924   0.414   8.750  13.432
64676SOL    HW195925   0.491   8.694  13.424
64676SOL    HW295926   0.340   8.690  13.438
64677SOL     OW95927   2.804  13.612   5.604
64677SOL    HW195928   2.855  13.690   5.622
64677SOL    HW295929   2.772  13.625   5.514
64678SOL     OW95930   6.273   0.278   6.784
64678SOL    HW195931   6.225   0.239   6.712
64678SOL    HW295932   6.364   0.279   6.754
64679SOL     OW95933   9.149   9.635   3.583
64679SOL    HW195934   9.157   9.671   3.671
64679SOL    HW295935   9.193   9.699   3.527
64680SOL     OW95936   2.293   6.858  14.053
64680SOL    HW195937   2.249   6.887  13.972
64680SOL    HW295938   2.225   6.862  14.120
64681SOL     OW95939   3.031   0.969   7.612
64681SOL    HW195940   2.966   0.951   7.680
64681SOL    HW295941   2.990   1.037   7.558
64682SOL     OW95942  13.005   2.168   2.290
64682SOL    HW195943  12.984   2.128   2.206
64682SOL    HW295944  13.048   2.251   2.267
64683SOL     OW95945  10.172   8.792  11.460
64683SOL    HW195946  10.092   8.750  11.491
64683SOL    HW295947  10.141   8.872  11.416
64684SOL     OW95948  10.813   3.491   5.163
64684SOL    HW195949  10.721   3.470   5.149
64684SOL    HW295950  10.812   3.573   5.212
64685SOL     OW95951  14.452  14.361   4.223
64685SOL    HW195952  14.448  14.402   4.137
64685SOL    HW295953  14.532  14.309   4.221
64686SOL     OW95954  13.194   8.565  12.937
64686SOL    HW195955  13.221   8.525  12.855
64686SOL    HW295956  13.276   8.585  12.983
64687SOL     OW95957   2.768   0.606   4.711
64687SOL    HW195958   2.772   0.667   4.637
64687SOL    HW295959   2.818   0.649   4.780
64688SOL     OW95960  14.123  14.845   7.108
64688SOL    HW195961  14.104   0.025   7.029
64688SOL    HW295962  14.168  14.767   7.075
64689SOL     OW95963   2.100   9.594   4.508
64689SOL    HW195964   2.015   9.622   4.543
64689SOL    HW295965   2.161   9.662   4.536
64690SOL     OW95966  11.593   0.696   0.897
64690SOL    HW195967  11.560   0.675   0.984
64690SOL    HW295968  11.520   0.679   0.838
64691SOL     OW95969   8.050  14.005   1.374
64691SOL    HW195970   8.081  14.040   1.457
64691SOL    HW295971   7.971  13.956   1.397
64692SOL     OW95972   3.843  10.070   2.436
64692SOL    HW195973   3.923  10.059   2.488
64692SOL    HW295974   3.773  10.044   2.496
64693SOL     OW95975   5.358   1.889   5.872
64693SOL    HW195976   5.406   1.966   5.843
64693SOL    HW295977   5.266   1.908   5.854
64694SOL     OW95978   3.644   0.572  11.176
64694SOL    HW195979   3.633   0.496  11.119
64694SOL    HW295980   3.679   0.536  11.257
64695SOL     OW95981  10.636   7.850   2.601
64695SOL    HW195982  10.621   7.857   2.695
64695SOL    HW295983  10.726   7.818   2.593
64696SOL     OW95984   4.604  13.819   4.452
64696SOL    HW195985   4.580  13.885   4.517
64696SOL    HW295986   4.600  13.736   4.500
64697SOL     OW95987  11.203   5.349   0.413
64697SOL    HW195988  11.179   5.256   0.415
64697SOL    HW295989  11.240   5.362   0.326
64698SOL     OW95990   5.888   7.281   7.530
64698SOL    HW195991   5.899   7.375   7.518
64698SOL    HW295992   5.843   7.273   7.615
64699SOL     OW95993  13.436   7.580  11.255
64699SOL    HW195994  13.485   7.524  11.195
64699SOL    HW295995  13.395   7.646  11.199
64700SOL     OW95996   0.997   2.411   7.300
64700SOL    HW195997   1.059   2.340   7.284
64700SOL    HW295998   0.917   2.368   7.329
64701SOL     OW95999  14.617  11.597   8.909
64701SOL    HW196000  14.558  11.587   8.835
64701SOL    HW296001  14.563  11.579   8.986
64702SOL     OW96002  14.612   8.867   7.935
64702SOL    HW196003  14.679   8.887   7.870
64702SOL    HW296004  14.636   8.781   7.969
64703SOL     OW96005   1.681  13.741   6.796
64703SOL    HW196006   1.662  13.687   6.719
64703SOL    HW296007   1.694  13.829   6.761
64704SOL     OW96008   0.654   2.391   8.525
64704SOL    HW196009   0.561   2.380   8.542
64704SOL    HW296010   0.686   2.441   8.601
64705SOL     OW96011   7.510   3.603  14.620
64705SOL    HW196012   7.603   3.582  14.611
64705SOL    HW296013   7.482   3.627  14.532
64706SOL     OW96014   4.953   1.561  12.833
64706SOL    HW196015   4.919   1.647  12.809
64706SOL    HW296016   5.043   1.561  12.801
64707SOL     OW96017   0.783   2.688   0.636
64707SOL    HW196018   0.832   2.628   0.579
64707SOL    HW296019   0.699   2.699   0.591
64708SOL     OW96020  11.734   8.614   3.226
64708SOL    HW196021  11.673   8.684   3.248
64708SOL    HW296022  11.773   8.589   3.310
64709SOL     OW96023   6.123  11.896   1.223
64709SOL    HW196024   6.158  11.973   1.267
64709SOL    HW296025   6.146  11.908   1.131
64710SOL     OW96026   5.738   4.368   1.295
64710SOL    HW196027   5.691   4.340   1.373
64710SOL    HW296028   5.735   4.293   1.236
64711SOL     OW96029  14.334   9.796   2.098
64711SOL    HW196030  14.320   9.708   2.065
64711SOL    HW296031  14.399   9.785   2.167
64712SOL     OW96032   9.167   2.427  12.386
64712SOL    HW196033   9.170   2.340  12.346
64712SOL    HW296034   9.151   2.487  12.313
64713SOL     OW96035   7.253   8.533   1.772
64713SOL    HW196036   7.291   8.561   1.856
64713SOL    HW296037   7.325   8.491   1.726
64714SOL     OW96038   8.950  10.839  12.184
64714SOL    HW196039   8.966  10.932  12.171
64714SOL    HW296040   8.946  10.829  12.280
64715SOL     OW96041  12.528   7.387   6.005
64715SOL    HW196042  12.564   7.373   5.917
64715SOL    HW296043  12.563   7.472   6.032
64716SOL     OW96044  10.367   1.194  11.939
64716SOL    HW196045  10.321   1.213  11.857
64716SOL    HW296046  10.418   1.272  11.956
64717SOL     OW96047  13.202   0.447   7.833
64717SOL    HW196048  13.293   0.474   7.818
64717SOL    HW296049  13.207   0.377   7.897
64718SOL     OW96050   6.164  10.707  11.082
64718SOL    HW196051   6.196  10.696  11.172
64718SOL    HW296052   6.073  10.678  11.085
64719SOL     OW96053  11.832  10.858   1.710
64719SOL    HW196054  11.918  10.893   1.686
64719SOL    HW296055  11.837  10.765   1.689
64720SOL     OW96056  10.684   4.230   0.676
64720SOL    HW196057  10.709   4.138   0.671
64720SOL    HW296058  10.660   4.244   0.768
64721SOL     OW96059   1.119  11.674   1.457
64721SOL    HW196060   1.201  11.658   1.410
64721SOL    HW296061   1.059  11.709   1.391
64722SOL     OW96062   2.655   1.222   1.967
64722SOL    HW196063   2.727   1.192   2.024
64722SOL    HW296064   2.624   1.142   1.925
64723SOL     OW96065   2.738   7.279   0.225
64723SOL    HW196066   2.826   7.313   0.211
64723SOL    HW296067   2.721   7.223   0.149
64724SOL     OW96068   5.892   9.543  11.932
64724SOL    HW196069   5.809   9.502  11.954
64724SOL    HW296070   5.954   9.471  11.927
64725SOL     OW96071   5.874  10.801  12.751
64725SOL    HW196072   5.949  10.805  12.692
64725SOL    HW296073   5.855  10.892  12.773
64726SOL     OW96074   8.180   1.813   3.620
64726SOL    HW196075   8.237   1.740   3.644
64726SOL    HW296076   8.238   1.889   3.620
64727SOL     OW96077   6.950   8.091   8.323
64727SOL    HW196078   6.976   8.010   8.280
64727SOL    HW296079   7.032   8.132   8.349
64728SOL     OW96080  10.619   2.498   9.313
64728SOL    HW196081  10.669   2.520   9.392
64728SOL    HW296082  10.676   2.438   9.265
64729SOL     OW96083   8.464  11.555   6.081
64729SOL    HW196084   8.385  11.567   6.027
64729SOL    HW296085   8.431  11.520   6.164
64730SOL     OW96086   5.324  14.784   4.652
64730SOL    HW196087   5.365  14.701   4.677
64730SOL    HW296088   5.329  14.838   4.731
64731SOL     OW96089  11.402   8.374   9.640
64731SOL    HW196090  11.444   8.434   9.701
64731SOL    HW296091  11.309   8.399   9.643
64732SOL     OW96092   7.946  13.238   6.295
64732SOL    HW196093   7.954  13.295   6.371
64732SOL    HW296094   8.023  13.259   6.241
64733SOL     OW96095  13.409  14.290  12.247
64733SOL    HW196096  13.316  14.277  12.230
64733SOL    HW296097  13.416  14.287  12.343
64734SOL     OW96098  12.943   0.498  14.826
64734SOL    HW196099  12.891   0.574  14.802
64734SOL    HW296100  13.020   0.503  14.771
64735SOL     OW96101   8.205   5.434   5.146
64735SOL    HW196102   8.144   5.506   5.130
64735SOL    HW296103   8.166   5.359   5.099
64736SOL     OW96104   9.018   5.114   9.684
64736SOL    HW196105   9.075   5.067   9.745
64736SOL    HW296106   9.016   5.203   9.718
64737SOL     OW96107   7.920   9.081  13.763
64737SOL    HW196108   8.000   9.030  13.752
64737SOL    HW296109   7.893   9.065  13.853
64738SOL     OW96110  13.288   1.451   7.685
64738SOL    HW196111  13.244   1.403   7.755
64738SOL    HW296112  13.313   1.384   7.622
64739SOL     OW96113   1.088  11.921   9.797
64739SOL    HW196114   1.026  11.910   9.725
64739SOL    HW296115   1.091  11.835   9.839
64740SOL     OW96116   0.038   5.490   6.850
64740SOL    HW196117  14.868   5.563   6.805
64740SOL    HW296118  14.850   5.468   6.921
64741SOL     OW96119   9.937  13.617   3.841
64741SOL    HW196120   9.868  13.677   3.811
64741SOL    HW296121   9.964  13.570   3.762
64742SOL     OW96122   7.416  10.373   5.545
64742SOL    HW196123   7.411  10.383   5.640
64742SOL    HW296124   7.392  10.282   5.529
64743SOL     OW96125   8.284   5.620   1.041
64743SOL    HW196126   8.260   5.712   1.037
64743SOL    HW296127   8.204   5.573   1.019
64744SOL     OW96128   0.117  14.834   1.456
64744SOL    HW196129   0.031  14.798   1.476
64744SOL    HW296130   0.130   0.030   1.522
64745SOL     OW96131   8.003   4.112   4.652
64745SOL    HW196132   8.085   4.071   4.624
64745SOL    HW296133   7.939   4.041   4.645
64746SOL     OW96134   1.401   1.499  14.241
64746SOL    HW196135   1.376   1.533  14.155
64746SOL    HW296136   1.497   1.495  14.238
64747SOL     OW96137  13.882   6.485   8.057
64747SOL    HW196138  13.846   6.440   7.981
64747SOL    HW296139  13.866   6.578   8.040
64748SOL     OW96140   1.773   9.242  14.208
64748SOL    HW196141   1.812   9.234  14.122
64748SOL    HW296142   1.846   9.264  14.266
64749SOL     OW96143   7.307  14.794   5.334
64749SOL    HW196144   7.257  14.815   5.413
64749SOL    HW296145   7.317  14.699   5.337
64750SOL     OW96146   9.352  12.461   0.843
64750SOL    HW196147   9.347  12.375   0.885
64750SOL    HW296148   9.268  12.470   0.797
64751SOL     OW96149   5.515  13.442  14.804
64751SOL    HW196150   5.521  13.393  14.722
64751SOL    HW296151   5.587  13.409  14.857
64752SOL     OW96152   9.099   1.593   6.591
64752SOL    HW196153   9.056   1.563   6.671
64752SOL    HW296154   9.086   1.522   6.528
64753SOL     OW96155  13.538   7.473  10.591
64753SOL    HW196156  13.589   7.554  10.581
64753SOL    HW296157  13.458   7.489  10.542
64754SOL     OW96158   5.452   9.448  10.503
64754SOL    HW196159   5.476   9.421  10.414
64754SOL    HW296160   5.532   9.434  10.555
64755SOL     OW96161   5.235   2.398  12.175
64755SOL    HW196162   5.274   2.481  12.203
64755SOL    HW296163   5.303   2.333  12.191
64756SOL     OW96164   2.859   0.570   1.968
64756SOL    HW196165   2.812   0.487   1.972
64756SOL    HW296166   2.951   0.545   1.963
64757SOL     OW96167   5.929  10.096   4.831
64757SOL    HW196168   5.921  10.082   4.737
64757SOL    HW296169   5.841  10.124   4.859
64758SOL     OW96170   6.798   8.266   7.928
64758SOL    HW196171   6.883   8.310   7.920
64758SOL    HW296172   6.742   8.309   7.863
64759SOL     OW96173   6.095   5.773  10.748
64759SOL    HW196174   6.129   5.684  10.743
64759SOL    HW296175   6.172   5.829  10.734
64760SOL     OW96176   3.511   7.241   2.357
64760SOL    HW196177   3.531   7.331   2.331
64760SOL    HW296178   3.495   7.247   2.452
64761SOL     OW96179  13.304   3.797   6.780
64761SOL    HW196180  13.240   3.776   6.848
64761SOL    HW296181  13.273   3.751   6.702
64762SOL     OW96182   0.871  11.293  11.574
64762SOL    HW196183   0.776  11.303  11.586
64762SOL    HW296184   0.894  11.219  11.631
64763SOL     OW96185  13.621   9.929   8.989
64763SOL    HW196186  13.630   9.903   8.897
64763SOL    HW296187  13.527   9.925   9.006
64764SOL     OW96188   3.438  10.201   5.341
64764SOL    HW196189   3.382  10.131   5.308
64764SOL    HW296190   3.481  10.163   5.418
64765SOL     OW96191   0.142   6.935  11.804
64765SOL    HW196192   0.091   6.856  11.785
64765SOL    HW296193   0.231   6.902  11.820
64766SOL     OW96194  13.127  10.916  11.770
64766SOL    HW196195  13.203  10.942  11.822
64766SOL    HW296196  13.136  10.967  11.689
64767SOL     OW96197   2.405  10.918   8.849
64767SOL    HW196198   2.327  10.912   8.795
64767SOL    HW296199   2.376  10.893   8.937
64768SOL     OW96200   3.070  10.162  11.600
64768SOL    HW196201   3.131  10.088  11.593
64768SOL    HW296202   3.094  10.219  11.528
64769SOL     OW96203  12.530  11.656  10.766
64769SOL    HW196204  12.436  11.640  10.751
64769SOL    HW296205  12.556  11.711  10.692
64770SOL     OW96206   3.474   7.964   5.408
64770SOL    HW196207   3.382   7.951   5.386
64770SOL    HW296208   3.488   7.908   5.484
64771SOL     OW96209   2.805   8.915   3.413
64771SOL    HW196210   2.764   8.959   3.488
64771SOL    HW296211   2.889   8.959   3.403
64772SOL     OW96212   1.327   8.499   7.564
64772SOL    HW196213   1.373   8.484   7.646
64772SOL    HW296214   1.245   8.451   7.573
64773SOL     OW96215  12.620   8.248  11.471
64773SOL    HW196216  12.570   8.273  11.549
64773SOL    HW296217  12.711   8.257  11.497
64774SOL     OW96218   1.343   8.153   8.847
64774SOL    HW196219   1.369   8.230   8.796
64774SOL    HW296220   1.386   8.163   8.931
64775SOL     OW96221   3.607   7.627   5.548
64775SOL    HW196222   3.649   7.584   5.474
64775SOL    HW296223   3.658   7.599   5.624
64776SOL     OW96224   2.176   1.097  13.208
64776SOL    HW196225   2.211   1.013  13.237
64776SOL    HW296226   2.130   1.132  13.285
64777SOL     OW96227   4.366  10.612   6.817
64777SOL    HW196228   4.389  10.569   6.899
64777SOL    HW296229   4.364  10.542   6.752
64778SOL     OW96230   5.798   8.571   1.358
64778SOL    HW196231   5.778   8.583   1.265
64778SOL    HW296232   5.890   8.595   1.366
64779SOL     OW96233  13.807   2.773  10.886
64779SOL    HW196234  13.812   2.680  10.907
64779SOL    HW296235  13.835   2.778  10.795
64780SOL     OW96236   3.274  14.186   4.339
64780SOL    HW196237   3.315  14.216   4.258
64780SOL    HW296238   3.259  14.266   4.390
64781SOL     OW96239   2.797   7.657   8.013
64781SOL    HW196240   2.839   7.600   7.949
64781SOL    HW296241   2.851   7.737   8.013
64782SOL     OW96242   0.176   3.220   1.081
64782SOL    HW196243   0.139   3.214   0.993
64782SOL    HW296244   0.189   3.314   1.095
64783SOL     OW96245  12.267   7.545   4.561
64783SOL    HW196246  12.272   7.458   4.522
64783SOL    HW296247  12.338   7.547   4.624
64784SOL     OW96248   6.606   4.775   3.008
64784SOL    HW196249   6.699   4.795   3.012
64784SOL    HW296250   6.594   4.701   3.068
64785SOL     OW96251   2.439   1.137  11.423
64785SOL    HW196252   2.529   1.156  11.447
64785SOL    HW296253   2.445   1.070  11.356
64786SOL     OW96254  10.543  14.632   6.450
64786SOL    HW196255  10.490  14.648   6.371
64786SOL    HW296256  10.522  14.705   6.508
64787SOL     OW96257   9.715  10.434   0.304
64787SOL    HW196258   9.773  10.373   0.259
64787SOL    HW296259   9.659  10.379   0.357
64788SOL     OW96260   8.628   0.584   1.332
64788SOL    HW196261   8.676   0.554   1.409
64788SOL    HW296262   8.677   0.547   1.258
64789SOL     OW96263   9.157   3.150   2.258
64789SOL    HW196264   9.132   3.236   2.223
64789SOL    HW296265   9.085   3.124   2.314
64790SOL     OW96266   2.467  11.174   1.057
64790SOL    HW196267   2.534  11.198   0.992
64790SOL    HW296268   2.464  11.078   1.054
64791SOL     OW96269   9.623  12.134  10.447
64791SOL    HW196270   9.599  12.214  10.494
64791SOL    HW296271   9.643  12.071  10.517
64792SOL     OW96272   0.864   6.712   7.864
64792SOL    HW196273   0.921   6.759   7.925
64792SOL    HW296274   0.828   6.780   7.808
64793SOL     OW96275   7.794  10.514   2.840
64793SOL    HW196276   7.798  10.607   2.819
64793SOL    HW296277   7.701  10.494   2.846
64794SOL     OW96278   0.473   8.976   5.862
64794SOL    HW196279   0.464   9.023   5.944
64794SOL    HW296280   0.566   8.956   5.855
64795SOL     OW96281   1.588   9.216   5.279
64795SOL    HW196282   1.571   9.223   5.373
64795SOL    HW296283   1.641   9.137   5.270
64796SOL     OW96284  14.619  11.346   4.706
64796SOL    HW196285  14.534  11.387   4.695
64796SOL    HW296286  14.635  11.302   4.622
64797SOL     OW96287   1.043   3.119   7.355
64797SOL    HW196288   1.016   3.159   7.273
64797SOL    HW296289   0.962   3.085   7.393
64798SOL     OW96290  12.749   5.290  12.244
64798SOL    HW196291  12.689   5.296  12.170
64798SOL    HW296292  12.695   5.311  12.320
64799SOL     OW96293   5.600  10.534   0.380
64799SOL    HW196294   5.606  10.578   0.296
64799SOL    HW296295   5.665  10.463   0.375
64800SOL     OW96296  12.094  10.043  13.757
64800SOL    HW196297  12.135  10.121  13.720
64800SOL    HW296298  12.040  10.008  13.686
64801SOL     OW96299   7.649  12.169  11.785
64801SOL    HW196300   7.732  12.122  11.781
64801SOL    HW296301   7.649  12.211  11.871
64802SOL     OW96302   5.594   7.176  13.720
64802SOL    HW196303   5.541   7.254  13.704
64802SOL    HW296304   5.623   7.149  13.633
64803SOL     OW96305   2.686  11.834   5.567
64803SOL    HW196306   2.740  11.834   5.487
64803SOL    HW296307   2.749  11.818   5.638
64804SOL     OW96308   2.233   1.249   8.649
64804SOL    HW196309   2.316   1.287   8.621
64804SOL    HW296310   2.186   1.322   8.689
64805SOL     OW96311   6.932   3.868   7.816
64805SOL    HW196312   6.897   3.780   7.831
64805SOL    HW296313   7.005   3.876   7.877
64806SOL     OW96314   6.477  11.000   4.471
64806SOL    HW196315   6.393  11.042   4.453
64806SOL    HW296316   6.485  10.931   4.405
64807SOL     OW96317  14.820   6.231   7.396
64807SOL    HW196318  14.841   6.138   7.406
64807SOL    HW296319  14.738   6.231   7.345
64808SOL     OW96320   6.557  10.405  10.874
64808SOL    HW196321   6.566  10.488  10.826
64808SOL    HW296322   6.463  10.389  10.878
64809SOL     OW96323   6.922   6.331   2.165
64809SOL    HW196324   6.967   6.253   2.198
64809SOL    HW296325   6.829   6.311   2.176
64810SOL     OW96326  10.897  10.810  11.780
64810SOL    HW196327  10.896  10.720  11.747
64810SOL    HW296328  10.977  10.848  11.743
64811SOL     OW96329   6.834   7.755  12.079
64811SOL    HW196330   6.812   7.696  12.151
64811SOL    HW296331   6.761   7.816  12.074
64812SOL     OW96332  13.420   5.725   3.077
64812SOL    HW196333  13.353   5.793   3.069
64812SOL    HW296334  13.479   5.740   3.003
64813SOL     OW96335   0.772  12.583   8.820
64813SOL    HW196336   0.710  12.561   8.890
64813SOL    HW296337   0.732  12.657   8.775
64814SOL     OW96338  13.440   7.770   4.889
64814SOL    HW196339  13.441   7.857   4.927
64814SOL    HW296340  13.359   7.730   4.921
64815SOL     OW96341   6.724   2.451   1.949
64815SOL    HW196342   6.799   2.486   1.901
64815SOL    HW296343   6.693   2.525   2.001
64816SOL     OW96344  12.589   1.795   7.544
64816SOL    HW196345  12.529   1.863   7.574
64816SOL    HW296346  12.553   1.767   7.460
64817SOL     OW96347   5.156  14.530   6.822
64817SOL    HW196348   5.085  14.530   6.757
64817SOL    HW296349   5.132  14.461   6.883
64818SOL     OW96350   9.387   3.413  13.784
64818SOL    HW196351   9.416   3.499  13.754
64818SOL    HW296352   9.436   3.399  13.865
64819SOL     OW96353   1.845  13.400   1.248
64819SOL    HW196354   1.782  13.365   1.311
64819SOL    HW296355   1.816  13.489   1.230
64820SOL     OW96356   6.629  10.512   7.028
64820SOL    HW196357   6.553  10.477   7.073
64820SOL    HW296358   6.700  10.505   7.092
64821SOL     OW96359   3.681   0.284   1.833
64821SOL    HW196360   3.709   0.198   1.803
64821SOL    HW296361   3.623   0.316   1.764
64822SOL     OW96362   4.243   3.505   2.327
64822SOL    HW196363   4.201   3.463   2.252
64822SOL    HW296364   4.273   3.433   2.382
64823SOL     OW96365  10.444  10.875   4.568
64823SOL    HW196366  10.381  10.895   4.499
64823SOL    HW296367  10.394  10.886   4.649
64824SOL     OW96368   2.578   4.028  12.612
64824SOL    HW196369   2.624   4.055  12.692
64824SOL    HW296370   2.645   3.982  12.560
64825SOL     OW96371  12.676   9.689   9.753
64825SOL    HW196372  12.638   9.766   9.793
64825SOL    HW296373  12.741   9.658   9.816
64826SOL     OW96374   0.304   7.438  12.276
64826SOL    HW196375   0.310   7.523  12.320
64826SOL    HW296376   0.366   7.382  12.324
64827SOL     OW96377  11.413   6.393  13.190
64827SOL    HW196378  11.327   6.389  13.231
64827SOL    HW296379  11.474   6.363  13.258
64828SOL     OW96380  11.537  12.083   6.236
64828SOL    HW196381  11.615  12.137   6.243
64828SOL    HW296382  11.557  12.005   6.287
64829SOL     OW96383   5.342   6.508  11.563
64829SOL    HW196384   5.375   6.575  11.624
64829SOL    HW296385   5.410   6.502  11.496
64830SOL     OW96386   4.418   3.435   9.089
64830SOL    HW196387   4.423   3.354   9.038
64830SOL    HW296388   4.488   3.427   9.154
64831SOL     OW96389  10.175   3.296  13.240
64831SOL    HW196390  10.225   3.313  13.160
64831SOL    HW296391  10.175   3.380  13.286
64832SOL     OW96392   4.253   4.957  11.982
64832SOL    HW196393   4.235   4.998  11.898
64832SOL    HW296394   4.257   4.863  11.963
64833SOL     OW96395  13.365   1.137   4.072
64833SOL    HW196396  13.360   1.188   4.153
64833SOL    HW296397  13.457   1.142   4.046
64834SOL     OW96398   0.537  12.349  14.649
64834SOL    HW196399   0.442  12.354  14.653
64834SOL    HW296400   0.556  12.256  14.639
64835SOL     OW96401  13.929   9.290   3.099
64835SOL    HW196402  13.955   9.219   3.156
64835SOL    HW296403  13.834   9.292   3.104
64836SOL     OW96404  10.764   8.088   6.125
64836SOL    HW196405  10.755   8.131   6.210
64836SOL    HW296406  10.701   8.133   6.068
64837SOL     OW96407   0.131  13.558   6.319
64837SOL    HW196408   0.183  13.478   6.312
64837SOL    HW296409   0.195  13.628   6.331
64838SOL     OW96410   2.771  11.716   5.259
64838SOL    HW196411   2.762  11.636   5.207
64838SOL    HW296412   2.754  11.787   5.196
64839SOL     OW96413  10.691   3.410   4.399
64839SOL    HW196414  10.652   3.390   4.313
64839SOL    HW296415  10.619   3.448   4.449
64840SOL     OW96416   9.281  10.999  13.460
64840SOL    HW196417   9.225  11.073  13.435
64840SOL    HW296418   9.230  10.922  13.437
64841SOL     OW96419  14.579   0.059  10.456
64841SOL    HW196420  14.627  14.854  10.486
64841SOL    HW296421  14.488   0.031  10.452
64842SOL     OW96422  11.052   4.042   0.793
64842SOL    HW196423  11.117   4.090   0.743
64842SOL    HW296424  11.017   4.106   0.855
64843SOL     OW96425   2.303   6.725  12.261
64843SOL    HW196426   2.355   6.745  12.183
64843SOL    HW296427   2.363   6.676  12.318
64844SOL     OW96428   0.869   1.763  14.437
64844SOL    HW196429   0.899   1.721  14.517
64844SOL    HW296430   0.831   1.846  14.466
64845SOL     OW96431   8.657   9.619   1.981
64845SOL    HW196432   8.643   9.562   1.905
64845SOL    HW296433   8.741   9.591   2.018
64846SOL     OW96434   3.060  10.789   6.515
64846SOL    HW196435   3.091  10.793   6.606
64846SOL    HW296436   3.048  10.695   6.499
64847SOL     OW96437   6.004   9.318  11.150
64847SOL    HW196438   6.031   9.385  11.087
64847SOL    HW296439   5.946   9.363  11.211
64848SOL     OW96440  14.561   1.112   0.432
64848SOL    HW196441  14.542   1.197   0.473
64848SOL    HW296442  14.570   1.132   0.339
64849SOL     OW96443   2.737   0.164  13.304
64849SOL    HW196444   2.711   0.255  13.287
64849SOL    HW296445   2.748   0.160  13.399
64850SOL     OW96446  12.896   2.132   1.110
64850SOL    HW196447  12.893   2.063   1.175
64850SOL    HW296448  12.855   2.208   1.152
64851SOL     OW96449   2.985   8.992   2.041
64851SOL    HW196450   3.009   9.076   2.079
64851SOL    HW296451   2.893   8.981   2.062
64852SOL     OW96452   3.706   9.378   6.353
64852SOL    HW196453   3.766   9.374   6.279
64852SOL    HW296454   3.619   9.366   6.315
64853SOL     OW96455  10.394  14.749  12.766
64853SOL    HW196456  10.302  14.774  12.754
64853SOL    HW296457  10.394  14.654  12.760
64854SOL     OW96458   0.061   2.638   0.657
64854SOL    HW196459   0.039   2.555   0.614
64854SOL    HW296460   0.035   2.625   0.748
64855SOL     OW96461   3.657  13.627   7.194
64855SOL    HW196462   3.655  13.562   7.264
64855SOL    HW296463   3.568  13.663   7.194
64856SOL     OW96464   8.721  12.205   4.682
64856SOL    HW196465   8.749  12.161   4.763
64856SOL    HW296466   8.781  12.279   4.674
64857SOL     OW96467  12.039   9.381   4.064
64857SOL    HW196468  11.944   9.378   4.051
64857SOL    HW296469  12.059   9.474   4.072
64858SOL     OW96470   5.566   1.530   9.652
64858SOL    HW196471   5.510   1.504   9.579
64858SOL    HW296472   5.509   1.581   9.709
64859SOL     OW96473   1.132  12.735   2.755
64859SOL    HW196474   1.091  12.815   2.788
64859SOL    HW296475   1.226  12.749   2.769
64860SOL     OW96476   8.323   5.763  12.611
64860SOL    HW196477   8.275   5.695  12.658
64860SOL    HW296478   8.414   5.732  12.608
64861SOL     OW96479  10.006   4.766   9.689
64861SOL    HW196480  10.067   4.710   9.736
64861SOL    HW296481   9.941   4.792   9.755
64862SOL     OW96482   7.698   2.969  14.036
64862SOL    HW196483   7.740   2.884  14.038
64862SOL    HW296484   7.724   3.008  13.952
64863SOL     OW96485   0.828  12.386   3.350
64863SOL    HW196486   0.822  12.409   3.258
64863SOL    HW296487   0.919  12.408   3.374
64864SOL     OW96488  11.393   5.535   0.606
64864SOL    HW196489  11.331   5.524   0.534
64864SOL    HW296490  11.479   5.520   0.567
64865SOL     OW96491   4.258  14.699   5.962
64865SOL    HW196492   4.296  14.731   6.044
64865SOL    HW296493   4.165  14.717   5.970
64866SOL     OW96494   0.472   5.790  11.060
64866SOL    HW196495   0.560   5.767  11.090
64866SOL    HW296496   0.413   5.745  11.120
64867SOL     OW96497   1.651   6.963  13.323
64867SOL    HW196498   1.742   6.995  13.324
64867SOL    HW296499   1.603   7.025  13.378
64868SOL     OW96500   7.379   8.232   1.931
64868SOL    HW196501   7.418   8.239   1.844
64868SOL    HW296502   7.444   8.271   1.990
64869SOL     OW96503   4.414   1.930   2.392
64869SOL    HW196504   4.327   1.889   2.387
64869SOL    HW296505   4.397   2.023   2.375
64870SOL     OW96506   6.779   7.731   6.837
64870SOL    HW196507   6.780   7.811   6.890
64870SOL    HW296508   6.867   7.727   6.799
64871SOL     OW96509   5.992   5.356   8.327
64871SOL    HW196510   5.991   5.260   8.327
64871SOL    HW296511   6.075   5.379   8.285
64872SOL     OW96512   0.095   2.648   1.007
64872SOL    HW196513   0.002   2.634   0.989
64872SOL    HW296514   0.124   2.566   1.047
64873SOL     OW96515  14.333  12.807   4.116
64873SOL    HW196516  14.416  12.851   4.133
64873SOL    HW296517  14.273  12.843   4.181
64874SOL     OW96518   3.678   5.551   4.525
64874SOL    HW196519   3.761   5.598   4.540
64874SOL    HW296520   3.635   5.601   4.456
64875SOL     OW96521  14.066   6.254  13.990
64875SOL    HW196522  14.104   6.167  14.004
64875SOL    HW296523  14.053   6.260  13.895
64876SOL     OW96524  11.607   1.853   9.244
64876SOL    HW196525  11.666   1.924   9.219
64876SOL    HW296526  11.539   1.853   9.175
64877SOL     OW96527   3.648   2.452  12.912
64877SOL    HW196528   3.665   2.438  13.005
64877SOL    HW296529   3.714   2.515  12.884
64878SOL     OW96530   7.050   8.063   3.243
64878SOL    HW196531   6.986   8.020   3.186
64878SOL    HW296532   7.094   8.126   3.187
64879SOL     OW96533  14.118   3.796   5.884
64879SOL    HW196534  14.185   3.826   5.822
64879SOL    HW296535  14.101   3.873   5.938
64880SOL     OW96536  14.591  14.815   6.000
64880SOL    HW196537  14.531  14.747   5.969
64880SOL    HW296538  14.558   0.024   5.962
64881SOL     OW96539   5.889  14.478  11.376
64881SOL    HW196540   5.799  14.468  11.344
64881SOL    HW296541   5.908  14.394  11.418
64882SOL     OW96542   2.946  13.440   6.463
64882SOL    HW196543   2.885  13.469   6.531
64882SOL    HW296544   2.906  13.359   6.429
64883SOL     OW96545   3.666   5.345  12.200
64883SOL    HW196546   3.735   5.398  12.160
64883SOL    HW296547   3.618   5.308  12.126
64884SOL     OW96548   5.141   1.811   1.819
64884SOL    HW196549   5.073   1.760   1.774
64884SOL    HW296550   5.092   1.872   1.874
64885SOL     OW96551   6.484   4.559   5.826
64885SOL    HW196552   6.561   4.512   5.858
64885SOL    HW296553   6.515   4.649   5.813
64886SOL     OW96554  12.474   7.055   9.940
64886SOL    HW196555  12.435   7.088   9.859
64886SOL    HW296556  12.552   7.008   9.911
64887SOL     OW96557   1.928   2.866  10.315
64887SOL    HW196558   1.989   2.854  10.387
64887SOL    HW296559   1.902   2.777  10.289
64888SOL     OW96560   0.593   9.940  12.365
64888SOL    HW196561   0.686   9.957  12.380
64888SOL    HW296562   0.548  10.017  12.402
64889SOL     OW96563   1.876  13.751   4.916
64889SOL    HW196564   1.832  13.724   4.835
64889SOL    HW296565   1.848  13.686   4.981
64890SOL     OW96566  10.284  11.229   6.367
64890SOL    HW196567  10.283  11.134   6.358
64890SOL    HW296568  10.263  11.245   6.459
64891SOL     OW96569   6.766   7.241   9.838
64891SOL    HW196570   6.840   7.214   9.783
64891SOL    HW296571   6.766   7.178   9.911
64892SOL     OW96572   5.028   5.921   5.581
64892SOL    HW196573   5.041   5.944   5.489
64892SOL    HW296574   5.062   5.832   5.589
64893SOL     OW96575  11.689   1.125   0.510
64893SOL    HW196576  11.650   1.039   0.493
64893SOL    HW296577  11.717   1.120   0.601
64894SOL     OW96578  13.215   8.121   0.457
64894SOL    HW196579  13.155   8.084   0.393
64894SOL    HW296580  13.163   8.128   0.537
64895SOL     OW96581   2.154   8.180  13.947
64895SOL    HW196582   2.067   8.165  13.983
64895SOL    HW296583   2.194   8.093  13.941
64896SOL     OW96584   6.935   0.089  13.842
64896SOL    HW196585   6.854   0.140  13.841
64896SOL    HW296586   6.992   0.137  13.904
64897SOL     OW96587   4.727  14.326  13.995
64897SOL    HW196588   4.684  14.331  13.910
64897SOL    HW296589   4.759  14.236  14.001
64898SOL     OW96590  10.246   3.170   3.039
64898SOL    HW196591  10.323   3.114   3.025
64898SOL    HW296592  10.273   3.231   3.107
64899SOL     OW96593   0.164   4.750   3.337
64899SOL    HW196594   0.156   4.657   3.315
64899SOL    HW296595   0.215   4.787   3.265
64900SOL     OW96596   2.546   1.205   9.278
64900SOL    HW196597   2.553   1.155   9.197
64900SOL    HW296598   2.631   1.249   9.286
64901SOL     OW96599   8.669  13.723  14.454
64901SOL    HW196600   8.763  13.712  14.445
64901SOL    HW296601   8.654  13.724  14.548
64902SOL     OW96602   6.052   8.278   8.950
64902SOL    HW196603   6.135   8.233   8.963
64902SOL    HW296604   5.992   8.210   8.921
64903SOL     OW96605   4.120   5.314   0.587
64903SOL    HW196606   4.090   5.400   0.616
64903SOL    HW296607   4.209   5.306   0.621
64904SOL     OW96608   7.596   0.820  12.490
64904SOL    HW196609   7.583   0.855  12.578
64904SOL    HW296610   7.603   0.726  12.502
64905SOL     OW96611  14.602   8.513   0.058
64905SOL    HW196612  14.585   8.422   0.035
64905SOL    HW296613  14.647   8.550  14.854
64906SOL     OW96614  14.040   0.646   0.749
64906SOL    HW196615  13.976   0.716   0.737
64906SOL    HW296616  13.987   0.570   0.774
64907SOL     OW96617   3.210  12.487   1.407
64907SOL    HW196618   3.200  12.581   1.422
64907SOL    HW296619   3.131  12.462   1.360
64908SOL     OW96620   4.620  13.314  14.215
64908SOL    HW196621   4.545  13.334  14.272
64908SOL    HW296622   4.686  13.378  14.240
64909SOL     OW96623  13.158   0.888   9.634
64909SOL    HW196624  13.129   0.978   9.645
64909SOL    HW296625  13.247   0.895   9.599
64910SOL     OW96626   4.621   5.467  10.300
64910SOL    HW196627   4.664   5.531  10.244
64910SOL    HW296628   4.667   5.385  10.283
64911SOL     OW96629   1.486   7.028   9.970
64911SOL    HW196630   1.561   7.087   9.977
64911SOL    HW296631   1.429   7.068   9.905
64912SOL     OW96632   4.096  10.691   7.438
64912SOL    HW196633   4.029  10.629   7.410
64912SOL    HW296634   4.051  10.775   7.440
64913SOL     OW96635   6.540   9.202   2.134
64913SOL    HW196636   6.487   9.251   2.071
64913SOL    HW296637   6.615   9.171   2.083
64914SOL     OW96638   7.461  11.569  13.691
64914SOL    HW196639   7.540  11.516  13.705
64914SOL    HW296640   7.457  11.627  13.768
64915SOL     OW96641   2.401  12.872   8.934
64915SOL    HW196642   2.347  12.931   8.986
64915SOL    HW296643   2.395  12.788   8.979
64916SOL     OW96644  10.203   6.590   2.447
64916SOL    HW196645  10.126   6.640   2.420
64916SOL    HW296646  10.256   6.652   2.497
64917SOL     OW96647   4.024   0.493   3.746
64917SOL    HW196648   4.017   0.495   3.841
64917SOL    HW296649   3.937   0.519   3.715
64918SOL     OW96650  12.233   6.861   7.284
64918SOL    HW196651  12.190   6.923   7.225
64918SOL    HW296652  12.327   6.878   7.273
64919SOL     OW96653  10.381   8.224  11.397
64919SOL    HW196654  10.393   8.319  11.399
64919SOL    HW296655  10.463   8.191  11.361
64920SOL     OW96656  12.027   8.701   7.380
64920SOL    HW196657  11.966   8.731   7.313
64920SOL    HW296658  12.052   8.613   7.352
64921SOL     OW96659   5.226   4.473  14.296
64921SOL    HW196660   5.309   4.509  14.329
64921SOL    HW296661   5.236   4.378  14.308
64922SOL     OW96662   5.833   2.196   3.075
64922SOL    HW196663   5.881   2.221   2.996
64922SOL    HW296664   5.897   2.204   3.146
64923SOL     OW96665  13.313   2.066   4.130
64923SOL    HW196666  13.330   2.150   4.173
64923SOL    HW296667  13.293   2.007   4.202
64924SOL     OW96668  14.508  13.990   5.448
64924SOL    HW196669  14.563  14.021   5.376
64924SOL    HW296670  14.569  13.972   5.519
64925SOL     OW96671  12.467  14.431  14.723
64925SOL    HW196672  12.427  14.427  14.809
64925SOL    HW296673  12.476  14.524  14.704
64926SOL     OW96674  14.018   4.593  11.873
64926SOL    HW196675  14.065   4.529  11.819
64926SOL    HW296676  14.055   4.582  11.961
64927SOL     OW96677   2.590  11.562   4.751
64927SOL    HW196678   2.666  11.607   4.788
64927SOL    HW296679   2.518  11.584   4.809
64928SOL     OW96680   8.702   2.809   0.220
64928SOL    HW196681   8.613   2.779   0.239
64928SOL    HW296682   8.748   2.731   0.189
64929SOL     OW96683   5.103  11.846   1.036
64929SOL    HW196684   5.041  11.781   1.002
64929SOL    HW296685   5.173  11.793   1.075
64930SOL     OW96686   0.068   4.873   3.035
64930SOL    HW196687   0.013   4.903   3.108
64930SOL    HW296688   0.139   4.937   3.030
64931SOL     OW96689  12.778  12.400   8.967
64931SOL    HW196690  12.790  12.346   8.889
64931SOL    HW296691  12.738  12.480   8.935
64932SOL     OW96692   6.412  11.998   0.574
64932SOL    HW196693   6.488  11.960   0.530
64932SOL    HW296694   6.429  12.092   0.576
64933SOL     OW96695   2.793  10.269   4.357
64933SOL    HW196696   2.783  10.246   4.265
64933SOL    HW296697   2.854  10.343   4.357
64934SOL     OW96698   7.868  14.045   1.984
64934SOL    HW196699   7.829  14.070   1.900
64934SOL    HW296700   7.963  14.048   1.968
64935SOL     OW96701   4.781  10.863   9.780
64935SOL    HW196702   4.794  10.771   9.805
64935SOL    HW296703   4.858  10.908   9.813
64936SOL     OW96704  10.511   2.721  12.005
64936SOL    HW196705  10.507   2.637  12.050
64936SOL    HW296706  10.605   2.738  11.996
64937SOL     OW96707  11.160   2.112   7.603
64937SOL    HW196708  11.121   2.138   7.520
64937SOL    HW296709  11.238   2.063   7.579
64938SOL     OW96710   5.193  11.212  13.474
64938SOL    HW196711   5.259  11.265  13.429
64938SOL    HW296712   5.140  11.175  13.404
64939SOL     OW96713  10.263   6.449   5.331
64939SOL    HW196714  10.254   6.354   5.324
64939SOL    HW296715  10.338   6.470   5.274
64940SOL     OW96716   5.393  14.730   9.852
64940SOL    HW196717   5.422  14.686   9.932
64940SOL    HW296718   5.317  14.679   9.823
64941SOL     OW96719   8.319   2.696   2.299
64941SOL    HW196720   8.264   2.766   2.265
64941SOL    HW296721   8.288   2.617   2.256
64942SOL     OW96722   1.952   2.043   4.179
64942SOL    HW196723   1.973   2.110   4.114
64942SOL    HW296724   1.963   1.960   4.133
64943SOL     OW96725   3.577   7.800  12.103
64943SOL    HW196726   3.496   7.847  12.084
64943SOL    HW296727   3.587   7.808  12.198
64944SOL     OW96728   3.126   1.812  11.470
64944SOL    HW196729   3.059   1.762  11.424
64944SOL    HW296730   3.127   1.897  11.425
64945SOL     OW96731   5.961   6.383   7.333
64945SOL    HW196732   5.996   6.294   7.328
64945SOL    HW296733   5.895   6.387   7.264
64946SOL     OW96734   8.410  12.076   5.602
64946SOL    HW196735   8.325  12.037   5.624
64946SOL    HW296736   8.445  12.106   5.685
64947SOL     OW96737   4.657  13.053  10.116
64947SOL    HW196738   4.562  13.042  10.108
64947SOL    HW296739   4.669  13.145  10.140
64948SOL     OW96740  12.522  11.943  13.413
64948SOL    HW196741  12.531  11.921  13.321
64948SOL    HW296742  12.434  11.980  13.421
64949SOL     OW96743   0.180   4.393   1.444
64949SOL    HW196744   0.275   4.391   1.453
64949SOL    HW296745   0.149   4.324   1.503
64950SOL     OW96746   4.999   4.850   3.252
64950SOL    HW196747   4.944   4.859   3.174
64950SOL    HW296748   4.951   4.788   3.307
64951SOL     OW96749  11.799  10.604   2.431
64951SOL    HW196750  11.718  10.617   2.381
64951SOL    HW296751  11.780  10.532   2.490
64952SOL     OW96752   0.077   1.836   2.649
64952SOL    HW196753   0.110   1.910   2.597
64952SOL    HW296754   0.131   1.837   2.728
64953SOL     OW96755   0.654   5.412   1.231
64953SOL    HW196756   0.569   5.428   1.272
64953SOL    HW296757   0.644   5.448   1.143
64954SOL     OW96758  14.162  11.662  12.796
64954SOL    HW196759  14.111  11.634  12.721
64954SOL    HW296760  14.191  11.751  12.774
64955SOL     OW96761  13.631  10.483  14.399
64955SOL    HW196762  13.662  10.396  14.424
64955SOL    HW296763  13.711  10.537  14.399
64956SOL     OW96764  13.800   4.857   3.913
64956SOL    HW196765  13.813   4.774   3.866
64956SOL    HW296766  13.707   4.876   3.903
64957SOL     OW96767   7.541  14.525   9.069
64957SOL    HW196768   7.535  14.608   9.022
64957SOL    HW296769   7.604  14.543   9.140
64958SOL     OW96770   3.636  13.621  11.576
64958SOL    HW196771   3.625  13.543  11.630
64958SOL    HW296772   3.559  13.622  11.519
64959SOL     OW96773  12.634  13.122   2.751
64959SOL    HW196774  12.624  13.134   2.656
64959SOL    HW296775  12.692  13.046   2.759
64960SOL     OW96776  10.613   1.015  10.301
64960SOL    HW196777  10.536   0.957  10.305
64960SOL    HW296778  10.640   1.025  10.392
64961SOL     OW96779   8.584   2.805   1.056
64961SOL    HW196780   8.553   2.895   1.067
64961SOL    HW296781   8.532   2.754   1.119
64962SOL     OW96782   4.458  10.750   5.286
64962SOL    HW196783   4.495  10.786   5.367
64962SOL    HW296784   4.515  10.675   5.266
64963SOL     OW96785  10.834   6.058   2.936
64963SOL    HW196786  10.839   6.065   3.032
64963SOL    HW296787  10.775   6.128   2.910
64964SOL     OW96788  11.982  13.694  11.355
64964SOL    HW196789  12.011  13.698  11.263
64964SOL    HW296790  11.932  13.775  11.367
64965SOL     OW96791   8.326  12.558  10.372
64965SOL    HW196792   8.272  12.492  10.328
64965SOL    HW296793   8.413  12.518  10.377
64966SOL     OW96794  13.741  10.003  11.249
64966SOL    HW196795  13.755  10.071  11.314
64966SOL    HW296796  13.820   9.949  11.253
64967SOL     OW96797   5.776   3.295  11.357
64967SOL    HW196798   5.852   3.348  11.381
64967SOL    HW296799   5.815   3.217  11.316
64968SOL     OW96800  13.886   0.578   1.046
64968SOL    HW196801  13.959   0.521   1.021
64968SOL    HW296802  13.910   0.612   1.132
64969SOL     OW96803   0.417   2.983   9.890
64969SOL    HW196804   0.433   2.916   9.823
64969SOL    HW296805   0.459   3.062   9.856
64970SOL     OW96806   1.785   2.024   4.877
64970SOL    HW196807   1.796   1.949   4.818
64970SOL    HW296808   1.748   2.093   4.822
64971SOL     OW96809   5.515  12.297   8.529
64971SOL    HW196810   5.600  12.340   8.532
64971SOL    HW296811   5.461  12.354   8.474
64972SOL     OW96812   9.033   2.649  14.208
64972SOL    HW196813   9.117   2.637  14.164
64972SOL    HW296814   9.052   2.635  14.301
64973SOL     OW96815  10.235  12.677  14.607
64973SOL    HW196816  10.316  12.702  14.651
64973SOL    HW296817  10.209  12.595  14.648
64974SOL     OW96818   3.309  14.683   5.528
64974SOL    HW196819   3.249  14.755   5.546
64974SOL    HW296820   3.314  14.679   5.432
64975SOL     OW96821  13.659  12.483   8.543
64975SOL    HW196822  13.751  12.489   8.569
64975SOL    HW296823  13.614  12.453   8.621
64976SOL     OW96824   7.381   8.485   7.932
64976SOL    HW196825   7.426   8.463   8.014
64976SOL    HW296826   7.427   8.435   7.865
64977SOL     OW96827   8.686  14.415  10.899
64977SOL    HW196828   8.644  14.360  10.966
64977SOL    HW296829   8.767  14.445  10.939
64978SOL     OW96830   7.521  10.623  11.115
64978SOL    HW196831   7.434  10.659  11.097
64978SOL    HW296832   7.529  10.627  11.210
64979SOL     OW96833   4.254  14.390  10.884
64979SOL    HW196834   4.308  14.311  10.891
64979SOL    HW296835   4.207  14.378  10.801
64980SOL     OW96836   3.469   0.378  10.740
64980SOL    HW196837   3.491   0.306  10.681
64980SOL    HW296838   3.376   0.393  10.726
64981SOL     OW96839   7.635  12.416   6.394
64981SOL    HW196840   7.689  12.467   6.334
64981SOL    HW296841   7.562  12.386   6.341
64982SOL     OW96842   6.995   2.359   5.253
64982SOL    HW196843   7.049   2.432   5.224
64982SOL    HW296844   6.910   2.374   5.212
64983SOL     OW96845   5.169  13.746   5.793
64983SOL    HW196846   5.195  13.817   5.734
64983SOL    HW296847   5.197  13.776   5.880
64984SOL     OW96848   3.284   0.180  12.016
64984SOL    HW196849   3.375   0.152  12.022
64984SOL    HW296850   3.250   0.171  12.104
64985SOL     OW96851   8.409   5.862  14.660
64985SOL    HW196852   8.474   5.921  14.699
64985SOL    HW296853   8.412   5.882  14.566
64986SOL     OW96854   2.509   9.653  10.982
64986SOL    HW196855   2.429   9.637  10.933
64986SOL    HW296856   2.480   9.688  11.066
64987SOL     OW96857  12.438  10.910   0.985
64987SOL    HW196858  12.389  10.991   0.999
64987SOL    HW296859  12.388  10.843   1.033
64988SOL     OW96860   5.751   5.008  11.802
64988SOL    HW196861   5.806   5.086  11.801
64988SOL    HW296862   5.664   5.038  11.776
64989SOL     OW96863  10.575   2.799   9.474
64989SOL    HW196864  10.501   2.819   9.531
64989SOL    HW296865  10.623   2.731   9.521
64990SOL     OW96866   0.868   6.948  11.997
64990SOL    HW196867   0.878   6.944  11.902
64990SOL    HW296868   0.799   7.014  12.012
64991SOL     OW96869   9.781  10.162   1.824
64991SOL    HW196870   9.741  10.134   1.741
64991SOL    HW296871   9.730  10.239   1.850
64992SOL     OW96872   7.695   5.232   6.658
64992SOL    HW196873   7.691   5.220   6.563
64992SOL    HW296874   7.639   5.308   6.675
64993SOL     OW96875   5.978   8.007  13.259
64993SOL    HW196876   6.033   7.959  13.321
64993SOL    HW296877   5.895   7.960  13.260
64994SOL     OW96878  11.142   5.752   7.961
64994SOL    HW196879  11.142   5.776   7.869
64994SOL    HW296880  11.178   5.663   7.963
64995SOL     OW96881   6.063  11.497   9.218
64995SOL    HW196882   6.140  11.525   9.267
64995SOL    HW296883   6.001  11.569   9.227
64996SOL     OW96884   7.499   8.986  11.407
64996SOL    HW196885   7.433   8.918  11.395
64996SOL    HW296886   7.531   9.005  11.319
64997SOL     OW96887   5.450  14.342   3.593
64997SOL    HW196888   5.528  14.396   3.599
64997SOL    HW296889   5.382  14.401   3.560
64998SOL     OW96890   8.339   1.737   7.740
64998SOL    HW196891   8.303   1.783   7.816
64998SOL    HW296892   8.434   1.747   7.748
64999SOL     OW96893   8.010  11.978   8.613
64999SOL    HW196894   8.087  12.007   8.564
64999SOL    HW296895   7.943  11.964   8.546
65000SOL     OW96896  12.566   8.364   5.162
65000SOL    HW196897  12.515   8.328   5.090
65000SOL    HW296898  12.506   8.424   5.207
65001SOL     OW96899   2.768   8.981  10.493
65001SOL    HW196900   2.830   8.955  10.562
65001SOL    HW296901   2.776   8.913  10.426
65002SOL     OW96902   5.342  10.861   0.114
65002SOL    HW196903   5.353  10.790   0.178
65002SOL    HW296904   5.248  10.879   0.114
65003SOL     OW96905  10.216   6.156   5.543
65003SOL    HW196906  10.255   6.074   5.571
65003SOL    HW296907  10.228   6.157   5.448
65004SOL     OW96908  12.813   2.421  12.144
65004SOL    HW196909  12.809   2.332  12.108
65004SOL    HW296910  12.842   2.475  12.070
65005SOL     OW96911  13.161  10.880  14.017
65005SOL    HW196912  13.079  10.929  14.011
65005SOL    HW296913  13.149  10.825  14.095
65006SOL     OW96914  11.656  11.092  10.524
65006SOL    HW196915  11.642  11.039  10.602
65006SOL    HW296916  11.570  11.130  10.504
65007SOL     OW96917  10.338   6.571   3.632
65007SOL    HW196918  10.364   6.608   3.716
65007SOL    HW296919  10.381   6.486   3.628
65008SOL     OW96920  10.803  14.115   0.995
65008SOL    HW196921  10.834  14.198   0.958
65008SOL    HW296922  10.863  14.097   1.068
65009SOL     OW96923  14.479   8.933   0.988
65009SOL    HW196924  14.413   8.956   1.053
65009SOL    HW296925  14.454   8.847   0.957
65010SOL     OW96926   7.677   3.001   4.982
65010SOL    HW196927   7.696   3.094   4.989
65010SOL    HW296928   7.644   2.990   4.893
65011SOL     OW96929   2.848   8.811   7.310
65011SOL    HW196930   2.848   8.888   7.366
65011SOL    HW296931   2.935   8.773   7.320
65012SOL     OW96932   3.316   0.216   6.959
65012SOL    HW196933   3.247   0.281   6.971
65012SOL    HW296934   3.278   0.134   6.991
65013SOL     OW96935  14.642   9.497   2.809
65013SOL    HW196936  14.571   9.560   2.800
65013SOL    HW296937  14.600   9.416   2.836
65014SOL     OW96938  11.364   7.804  13.941
65014SOL    HW196939  11.359   7.710  13.924
65014SOL    HW296940  11.336   7.814  14.032
65015SOL     OW96941   5.695   9.366   6.579
65015SOL    HW196942   5.641   9.354   6.657
65015SOL    HW296943   5.697   9.461   6.565
65016SOL     OW96944  10.069   0.917   1.468
65016SOL    HW196945  10.042   0.912   1.559
65016SOL    HW296946  10.138   0.984   1.467
65017SOL     OW96947   2.213  13.894  10.151
65017SOL    HW196948   2.290  13.875  10.098
65017SOL    HW296949   2.207  13.990  10.151
65018SOL     OW96950   6.965  12.845  12.336
65018SOL    HW196951   6.977  12.840  12.431
65018SOL    HW296952   7.036  12.791  12.300
65019SOL     OW96953   9.661  11.018  12.838
65019SOL    HW196954   9.756  11.009  12.838
65019SOL    HW296955   9.645  11.095  12.783
65020SOL     OW96956   6.863   4.398  12.806
65020SOL    HW196957   6.863   4.488  12.772
65020SOL    HW296958   6.784   4.392  12.860
65021SOL     OW96959  12.864  11.446   2.369
65021SOL    HW196960  12.881  11.521   2.312
65021SOL    HW296961  12.919  11.462   2.446
65022SOL     OW96962   1.082  12.291   9.616
65022SOL    HW196963   1.112  12.240   9.540
65022SOL    HW296964   1.018  12.353   9.579
65023SOL     OW96965   8.206   2.232  11.829
65023SOL    HW196966   8.118   2.245  11.794
65023SOL    HW296967   8.261   2.292  11.779
65024SOL     OW96968   0.454   0.124  12.485
65024SOL    HW196969   0.489   0.111  12.397
65024SOL    HW296970   0.417   0.039  12.509
65025SOL     OW96971   1.066   1.225   7.641
65025SOL    HW196972   1.028   1.298   7.691
65025SOL    HW296973   0.990   1.175   7.612
65026SOL     OW96974   6.454   8.745   8.705
65026SOL    HW196975   6.361   8.723   8.701
65026SOL    HW296976   6.486   8.701   8.784
65027SOL     OW96977  14.759  11.628   2.095
65027SOL    HW196978  14.848  11.609   2.126
65027SOL    HW296979  14.741  11.716   2.130
65028SOL     OW96980   7.179  12.377   1.990
65028SOL    HW196981   7.254  12.329   1.956
65028SOL    HW296982   7.157  12.333   2.073
65029SOL     OW96983   3.379   9.193  11.046
65029SOL    HW196984   3.298   9.244  11.055
65029SOL    HW296985   3.353   9.115  10.997
65030SOL     OW96986  14.660  11.054   6.650
65030SOL    HW196987  14.592  11.061   6.717
65030SOL    HW296988  14.624  11.100   6.575
65031SOL     OW96989  13.789  14.486   2.250
65031SOL    HW196990  13.797  14.411   2.308
65031SOL    HW296991  13.773  14.448   2.163
65032SOL     OW96992  14.014  13.493  12.120
65032SOL    HW196993  13.922  13.468  12.122
65032SOL    HW296994  14.062  13.411  12.106
65033SOL     OW96995  14.525   8.602   1.453
65033SOL    HW196996  14.576   8.637   1.380
65033SOL    HW296997  14.557   8.650   1.529
65034SOL     OW96998   9.248  13.711   3.929
65034SOL    HW196999   9.243  13.659   4.009
65034SOL    HW297000   9.183  13.780   3.941
65035SOL     OW97001  14.520   1.467   1.960
65035SOL    HW197002  14.564   1.394   1.916
65035SOL    HW297003  14.427   1.452   1.944
65036SOL     OW97004   1.216   1.987   2.045
65036SOL    HW197005   1.174   1.997   1.960
65036SOL    HW297006   1.286   1.924   2.030
65037SOL     OW97007   8.317  10.092   5.902
65037SOL    HW197008   8.239  10.058   5.944
65037SOL    HW297009   8.353  10.016   5.855
65038SOL     OW97010   9.316  11.203   1.339
65038SOL    HW197011   9.397  11.249   1.316
65038SOL    HW297012   9.280  11.175   1.254
65039SOL     OW97013   3.036   3.942  14.856
65039SOL    HW197014   3.046   3.928   0.077
65039SOL    HW297015   3.041   3.855  14.817
65040SOL     OW97016   2.454  11.900   7.286
65040SOL    HW197017   2.464  11.992   7.263
65040SOL    HW297018   2.497  11.852   7.215
65041SOL     OW97019  13.726   0.464   3.725
65041SOL    HW197020  13.792   0.454   3.794
65041SOL    HW297021  13.673   0.538   3.752
65042SOL     OW97022   0.221  11.863  10.942
65042SOL    HW197023   0.253  11.934  10.886
65042SOL    HW297024   0.300  11.815  10.967
65043SOL     OW97025  10.772   8.721   0.380
65043SOL    HW197026  10.801   8.716   0.289
65043SOL    HW297027  10.691   8.669   0.381
65044SOL     OW97028   9.091   9.990   0.690
65044SOL    HW197029   9.103   9.913   0.634
65044SOL    HW297030   9.152  10.055   0.655
65045SOL     OW97031  14.454  14.619   3.054
65045SOL    HW197032  14.543  14.584   3.046
65045SOL    HW297033  14.398  14.542   3.056
65046SOL     OW97034  10.107  12.309   4.666
65046SOL    HW197035  10.198  12.334   4.650
65046SOL    HW297036  10.084  12.353   4.748
65047SOL     OW97037   5.785   7.308   7.132
65047SOL    HW197038   5.865   7.336   7.177
65047SOL    HW297039   5.742   7.249   7.193
65048SOL     OW97040  13.622   3.169   3.113
65048SOL    HW197041  13.674   3.245   3.141
65048SOL    HW297042  13.578   3.140   3.194
65049SOL     OW97043   3.496  13.910   9.082
65049SOL    HW197044   3.556  13.985   9.084
65049SOL    HW297045   3.525  13.854   9.154
65050SOL     OW97046   2.476  13.005   9.356
65050SOL    HW197047   2.490  13.087   9.403
65050SOL    HW297048   2.555  12.995   9.302
65051SOL     OW97049   6.119  10.732   9.354
65051SOL    HW197050   6.032  10.752   9.387
65051SOL    HW297051   6.122  10.772   9.267
65052SOL     OW97052   5.358   3.776  11.580
65052SOL    HW197053   5.378   3.720  11.655
65052SOL    HW297054   5.265   3.797  11.590
65053SOL     OW97055   2.140   6.890   0.567
65053SOL    HW197056   2.182   6.975   0.576
65053SOL    HW297057   2.123   6.881   0.473
65054SOL     OW97058  13.583   2.833   2.802
65054SOL    HW197059  13.649   2.902   2.811
65054SOL    HW297060  13.535   2.835   2.884
65055SOL     OW97061   5.398  12.368   6.570
65055SOL    HW197062   5.396  12.417   6.652
65055SOL    HW297063   5.488  12.379   6.538
65056SOL     OW97064   0.931   7.333   3.620
65056SOL    HW197065   0.844   7.294   3.615
65056SOL    HW297066   0.952   7.357   3.529
65057SOL     OW97067   5.321   8.662  14.423
65057SOL    HW197068   5.237   8.705  14.439
65057SOL    HW297069   5.302   8.569  14.426
65058SOL     OW97070  10.753  11.388  12.385
65058SOL    HW197071  10.766  11.294  12.371
65058SOL    HW297072  10.772  11.428  12.299
65059SOL     OW97073   0.304   1.057   6.611
65059SOL    HW197074   0.358   1.127   6.648
65059SOL    HW297075   0.242   1.037   6.680
65060SOL     OW97076   7.269   5.095  10.779
65060SOL    HW197077   7.355   5.052  10.785
65060SOL    HW297078   7.258   5.111  10.685
65061SOL     OW97079   6.290  14.761  13.102
65061SOL    HW197080   6.350  14.728  13.168
65061SOL    HW297081   6.234  14.687  13.081
65062SOL     OW97082   2.839  10.401   8.565
65062SOL    HW197083   2.844  10.346   8.487
65062SOL    HW297084   2.770  10.360   8.618
65063SOL     OW97085   0.402   3.902  13.905
65063SOL    HW197086   0.366   3.868  13.824
65063SOL    HW297087   0.326   3.915  13.962
65064SOL     OW97088   4.257  11.854   8.913
65064SOL    HW197089   4.179  11.839   8.859
65064SOL    HW297090   4.241  11.804   8.993
65065SOL     OW97091   5.545   5.316   1.763
65065SOL    HW197092   5.630   5.305   1.805
65065SOL    HW297093   5.563   5.361   1.681
65066SOL     OW97094   4.056   1.223   6.917
65066SOL    HW197095   4.029   1.229   7.009
65066SOL    HW297096   4.085   1.311   6.895
65067SOL     OW97097   9.843  14.770   6.151
65067SOL    HW197098   9.871  14.685   6.187
65067SOL    HW297099   9.757  14.785   6.191
65068SOL     OW97100   7.929   7.845   9.383
65068SOL    HW197101   7.986   7.777   9.348
65068SOL    HW297102   7.841   7.810   9.373
65069SOL     OW97103  13.488   8.684  13.664
65069SOL    HW197104  13.577   8.687  13.701
65069SOL    HW297105  13.431   8.670  13.740
65070SOL     OW97106   6.469   1.006  14.215
65070SOL    HW197107   6.388   1.030  14.171
65070SOL    HW297108   6.484   1.078  14.277
65071SOL     OW97109   1.212  12.656   4.923
65071SOL    HW197110   1.234  12.603   4.999
65071SOL    HW297111   1.261  12.616   4.851
65072SOL     OW97112  14.304   9.989  13.357
65072SOL    HW197113  14.365   9.938  13.304
65072SOL    HW297114  14.223   9.940  13.354
65073SOL     OW97115   7.539   8.302  14.264
65073SOL    HW197116   7.622   8.306  14.310
65073SOL    HW297117   7.472   8.306  14.333
65074SOL     OW97118  10.931   0.054   1.160
65074SOL    HW197119  10.837   0.038   1.148
65074SOL    HW297120  10.940   0.072   1.254
65075SOL     OW97121   9.645  12.307   9.277
65075SOL    HW197122   9.632  12.220   9.241
65075SOL    HW297123   9.645  12.295   9.372
65076SOL     OW97124  13.900   7.612  14.819
65076SOL    HW197125  13.881   7.625  14.726
65076SOL    HW297126  13.886   7.518  14.834
65077SOL     OW97127   2.938   7.342   5.040
65077SOL    HW197128   2.913   7.411   5.100
65077SOL    HW297129   2.942   7.263   5.094
65078SOL     OW97130   6.577   5.384  10.471
65078SOL    HW197131   6.516   5.310  10.470
65078SOL    HW297132   6.543   5.443  10.403
65079SOL     OW97133   9.816  12.989   1.880
65079SOL    HW197134   9.817  12.899   1.846
65079SOL    HW297135   9.866  12.985   1.961
65080SOL     OW97136   9.574   9.334   2.277
65080SOL    HW197137   9.538   9.268   2.217
65080SOL    HW297138   9.667   9.336   2.257
65081SOL     OW97139  13.458   5.486   4.438
65081SOL    HW197140  13.551   5.481   4.459
65081SOL    HW297141  13.415   5.433   4.505
65082SOL     OW97142   5.420   5.095   9.844
65082SOL    HW197143   5.471   5.132   9.772
65082SOL    HW297144   5.471   5.020   9.874
65083SOL     OW97145   4.705   4.402   5.178
65083SOL    HW197146   4.655   4.344   5.235
65083SOL    HW297147   4.650   4.481   5.171
65084SOL     OW97148   8.056   1.823   9.029
65084SOL    HW197149   8.092   1.879   8.961
65084SOL    HW297150   7.996   1.764   8.983
65085SOL     OW97151   5.590  12.142  12.378
65085SOL    HW197152   5.528  12.070  12.391
65085SOL    HW297153   5.665  12.118  12.432
65086SOL     OW97154   1.592   9.389   2.555
65086SOL    HW197155   1.599   9.294   2.549
65086SOL    HW297156   1.682   9.420   2.556
65087SOL     OW97157   7.865  13.545  11.913
65087SOL    HW197158   7.792  13.486  11.894
65087SOL    HW297159   7.823  13.625  11.946
65088SOL     OW97160   1.860  12.459  10.403
65088SOL    HW197161   1.800  12.429  10.471
65088SOL    HW297162   1.865  12.385  10.342
65089SOL     OW97163   6.344   0.299   9.105
65089SOL    HW197164   6.432   0.290   9.141
65089SOL    HW297165   6.288   0.319   9.180
65090SOL     OW97166  14.414   5.800   3.079
65090SOL    HW197167  14.364   5.844   3.010
65090SOL    HW297168  14.348   5.775   3.144
65091SOL     OW97169   9.092   9.550   3.862
65091SOL    HW197170   9.113   9.642   3.845
65091SOL    HW297171   8.997   9.547   3.866
65092SOL     OW97172   0.368   5.502  10.866
65092SOL    HW197173   0.305   5.544  10.807
65092SOL    HW297174   0.454   5.528  10.831
65093SOL     OW97175   0.179   7.494  10.623
65093SOL    HW197176   0.176   7.568  10.562
65093SOL    HW297177   0.214   7.422  10.571
65094SOL     OW97178   4.573  12.103   9.971
65094SOL    HW197179   4.502  12.079   9.912
65094SOL    HW297180   4.530  12.149  10.043
65095SOL     OW97181  13.524  10.616   7.600
65095SOL    HW197182  13.577  10.695   7.599
65095SOL    HW297183  13.588  10.544   7.596
65096SOL     OW97184   4.591   0.075  11.999
65096SOL    HW197185   4.548   0.037  12.076
65096SOL    HW297186   4.526   0.070  11.930
65097SOL     OW97187   2.414   7.800   6.240
65097SOL    HW197188   2.465   7.750   6.304
65097SOL    HW297189   2.361   7.859   6.293
65098SOL     OW97190   9.573  10.803   7.236
65098SOL    HW197191   9.633  10.784   7.308
65098SOL    HW297192   9.488  10.773   7.266
65099SOL     OW97193   8.628   4.588   5.324
65099SOL    HW197194   8.550   4.644   5.333
65099SOL    HW297195   8.643   4.582   5.230
65100SOL     OW97196  14.530  12.329   3.679
65100SOL    HW197197  14.604  12.272   3.699
65100SOL    HW297198  14.459  12.269   3.656
65101SOL     OW97199  13.873   2.975  12.143
65101SOL    HW197200  13.862   3.068  12.165
65101SOL    HW297201  13.784   2.944  12.126
65102SOL     OW97202  12.877   6.403  10.439
65102SOL    HW197203  12.804   6.395  10.501
65102SOL    HW297204  12.852   6.347  10.366
65103SOL     OW97205   4.364   1.378   6.036
65103SOL    HW197206   4.423   1.446   6.005
65103SOL    HW297207   4.291   1.379   5.974
65104SOL     OW97208  11.571   9.959   8.802
65104SOL    HW197209  11.625   9.989   8.875
65104SOL    HW297210  11.563   9.864   8.815
65105SOL     OW97211   7.113   8.174   3.932
65105SOL    HW197212   7.200   8.174   3.891
65105SOL    HW297213   7.129   8.151   4.023
65106SOL     OW97214   5.321   7.262   3.573
65106SOL    HW197215   5.306   7.351   3.608
65106SOL    HW297216   5.334   7.208   3.651
65107SOL     OW97217   6.823  13.791   6.149
65107SOL    HW197218   6.775  13.848   6.210
65107SOL    HW297219   6.876  13.735   6.206
65108SOL     OW97220  12.718   6.995   3.334
65108SOL    HW197221  12.658   7.061   3.302
65108SOL    HW297222  12.666   6.943   3.396
65109SOL     OW97223   7.247   8.785   5.076
65109SOL    HW197224   7.316   8.816   5.135
65109SOL    HW297225   7.265   8.830   4.994
65110SOL     OW97226  10.345  14.535   8.295
65110SOL    HW197227  10.324  14.597   8.225
65110SOL    HW297228  10.355  14.451   8.250
65111SOL     OW97229  10.256  13.596  14.568
65111SOL    HW197230  10.236  13.597  14.661
65111SOL    HW297231  10.345  13.562  14.561
65112SOL     OW97232  11.749   8.902  13.666
65112SOL    HW197233  11.753   8.992  13.699
65112SOL    HW297234  11.819   8.897  13.601
65113SOL     OW97235   9.481   7.274  14.693
65113SOL    HW197236   9.404   7.331  14.693
65113SOL    HW297237   9.451   7.193  14.653
65114SOL     OW97238   7.473  12.878   8.213
65114SOL    HW197239   7.380  12.872   8.233
65114SOL    HW297240   7.486  12.968   8.185
65115SOL     OW97241   8.883   6.026   1.397
65115SOL    HW197242   8.901   6.119   1.384
65115SOL    HW297243   8.829   6.023   1.476
65116SOL     OW97244  11.517   0.595  11.467
65116SOL    HW197245  11.479   0.662  11.524
65116SOL    HW297246  11.600   0.573  11.509
65117SOL     OW97247   7.310   6.718   1.013
65117SOL    HW197248   7.344   6.757   1.093
65117SOL    HW297249   7.217   6.741   1.012
65118SOL     OW97250  14.644  10.855   1.654
65118SOL    HW197251  14.595  10.926   1.695
65118SOL    HW297252  14.659  10.792   1.726
65119SOL     OW97253   7.159   8.000   0.879
65119SOL    HW197254   7.082   7.945   0.866
65119SOL    HW297255   7.132   8.087   0.847
65120SOL     OW97256   7.474  14.723  11.870
65120SOL    HW197257   7.518  14.645  11.837
65120SOL    HW297258   7.470  14.782  11.796
65121SOL     OW97259   2.910   3.129   1.098
65121SOL    HW197260   2.887   3.038   1.083
65121SOL    HW297261   2.917   3.137   1.193
65122SOL     OW97262  11.595   6.763   4.847
65122SOL    HW197263  11.661   6.798   4.907
65122SOL    HW297264  11.519   6.744   4.902
65123SOL     OW97265   2.787   8.883   6.798
65123SOL    HW197266   2.745   8.797   6.802
65123SOL    HW297267   2.716   8.945   6.817
65124SOL     OW97268  13.658   9.097   0.199
65124SOL    HW197269  13.750   9.112   0.222
65124SOL    HW297270  13.657   9.008   0.164
65125SOL     OW97271   2.275   9.745  13.021
65125SOL    HW197272   2.277   9.651  13.003
65125SOL    HW297273   2.279   9.787  12.935
65126SOL     OW97274   1.974   6.035   6.538
65126SOL    HW197275   1.966   5.954   6.588
65126SOL    HW297276   2.021   6.009   6.459
65127SOL     OW97277  11.874  10.280   2.156
65127SOL    HW197278  11.841  10.202   2.111
65127SOL    HW297279  11.796  10.335   2.168
65128SOL     OW97280   8.022   1.421   5.784
65128SOL    HW197281   7.961   1.495   5.796
65128SOL    HW297282   8.025   1.407   5.689
65129SOL     OW97283   1.790   5.969  10.389
65129SOL    HW197284   1.821   5.952  10.478
65129SOL    HW297285   1.706   6.014  10.402
65130SOL     OW97286  13.652   5.602   1.019
65130SOL    HW197287  13.699   5.574   1.098
65130SOL    HW297288  13.560   5.607   1.047
65131SOL     OW97289  14.697   4.799   9.475
65131SOL    HW197290  14.740   4.730   9.425
65131SOL    HW297291  14.707   4.773   9.567
65132SOL     OW97292   1.241  12.443   0.660
65132SOL    HW197293   1.288  12.525   0.643
65132SOL    HW297294   1.214  12.450   0.751
65133SOL     OW97295   9.508   5.274   2.872
65133SOL    HW197296   9.491   5.357   2.827
65133SOL    HW297297   9.597   5.284   2.906
65134SOL     OW97298   1.644  11.074   0.157
65134SOL    HW197299   1.592  10.996   0.174
65134SOL    HW297300   1.692  11.054   0.077
65135SOL     OW97301  10.798   2.910   6.596
65135SOL    HW197302  10.755   2.981   6.644
65135SOL    HW297303  10.891   2.922   6.613
65136SOL     OW97304  12.924   3.921   0.864
65136SOL    HW197305  12.977   3.883   0.935
65136SOL    HW297306  12.906   3.847   0.806
65137SOL     OW97307   9.885   1.327   7.000
65137SOL    HW197308   9.878   1.364   7.088
65137SOL    HW297309   9.895   1.403   6.943
65138SOL     OW97310   1.267  11.251   3.628
65138SOL    HW197311   1.283  11.231   3.536
65138SOL    HW297312   1.174  11.275   3.631
65139SOL     OW97313   6.713  10.135  11.192
65139SOL    HW197314   6.676  10.107  11.108
65139SOL    HW297315   6.637  10.161  11.244
65140SOL     OW97316   9.947   8.780   3.098
65140SOL    HW197317   9.976   8.870   3.085
65140SOL    HW297318   9.902   8.758   3.016
65141SOL     OW97319   8.203   6.427  13.171
65141SOL    HW197320   8.181   6.449  13.080
65141SOL    HW297321   8.245   6.342  13.166
65142SOL     OW97322  10.792   6.052  12.894
65142SOL    HW197323  10.757   6.139  12.872
65142SOL    HW297324  10.718   6.006  12.933
65143SOL     OW97325   8.570   7.900  14.593
65143SOL    HW197326   8.615   7.895  14.509
65143SOL    HW297327   8.626   7.852  14.654
65144SOL     OW97328   4.229   2.302   9.827
65144SOL    HW197329   4.216   2.226   9.770
65144SOL    HW297330   4.142   2.319   9.864
65145SOL     OW97331   7.265   0.840  13.666
65145SOL    HW197332   7.330   0.888  13.616
65145SOL    HW297333   7.254   0.757  13.619
65146SOL     OW97334  14.625   8.120   7.164
65146SOL    HW197335  14.650   8.056   7.097
65146SOL    HW297336  14.691   8.189   7.158
65147SOL     OW97337   5.998   0.316  10.525
65147SOL    HW197338   5.995   0.254  10.598
65147SOL    HW297339   6.085   0.304  10.487
65148SOL     OW97340   9.869  12.172   4.266
65148SOL    HW197341   9.817  12.252   4.260
65148SOL    HW297342   9.957  12.202   4.287
65149SOL     OW97343  12.601   2.430   6.165
65149SOL    HW197344  12.584   2.452   6.257
65149SOL    HW297345  12.622   2.337   6.166
65150SOL     OW97346   0.208  13.880   7.741
65150SOL    HW197347   0.249  13.955   7.784
65150SOL    HW297348   0.153  13.918   7.672
65151SOL     OW97349   5.443   3.833  13.112
65151SOL    HW197350   5.453   3.887  13.191
65151SOL    HW297351   5.455   3.743  13.142
65152SOL     OW97352  12.372   1.354   4.425
65152SOL    HW197353  12.368   1.413   4.500
65152SOL    HW297354  12.437   1.289   4.450
65153SOL     OW97355  14.804  12.867   0.029
65153SOL    HW197356  14.859  12.899   0.100
65153SOL    HW297357  14.715  12.876   0.062
65154SOL     OW97358   5.048   2.807   9.318
65154SOL    HW197359   5.042   2.869   9.245
65154SOL    HW297360   4.965   2.818   9.366
65155SOL     OW97361   8.476   0.935   8.366
65155SOL    HW197362   8.496   0.963   8.456
65155SOL    HW297363   8.444   1.014   8.323
65156SOL     OW97364  11.806   3.261   6.612
65156SOL    HW197365  11.861   3.314   6.669
65156SOL    HW297366  11.782   3.186   6.666
65157SOL     OW97367  11.455   0.198  11.596
65157SOL    HW197368  11.457   0.160  11.684
65157SOL    HW297369  11.519   0.147  11.546
65158SOL     OW97370  13.127   0.814   3.803
65158SOL    HW197371  13.166   0.806   3.890
65158SOL    HW297372  13.147   0.903   3.774
65159SOL     OW97373  10.629  12.001   7.007
65159SOL    HW197374  10.651  12.064   7.075
65159SOL    HW297375  10.703  12.002   6.947
65160SOL     OW97376   9.461   4.332  10.973
65160SOL    HW197377   9.416   4.316  10.890
65160SOL    HW297378   9.495   4.421  10.965
65161SOL     OW97379   3.721   9.716   1.303
65161SOL    HW197380   3.651   9.694   1.364
65161SOL    HW297381   3.711   9.653   1.232
65162SOL     OW97382   6.670  11.147  10.758
65162SOL    HW197383   6.600  11.116  10.816
65162SOL    HW297384   6.737  11.181  10.817
65163SOL     OW97385  11.710   9.297   0.216
65163SOL    HW197386  11.641   9.251   0.263
65163SOL    HW297387  11.666   9.338   0.142
65164SOL     OW97388  14.763  13.194  13.709
65164SOL    HW197389  14.745  13.238  13.627
65164SOL    HW297390  14.678  13.194  13.755
65165SOL     OW97391  12.645   1.584  10.680
65165SOL    HW197392  12.550   1.580  10.671
65165SOL    HW297393  12.663   1.677  10.697
65166SOL     OW97394   8.369   6.019   1.182
65166SOL    HW197395   8.431   5.947   1.197
65166SOL    HW297396   8.323   5.994   1.101
65167SOL     OW97397  11.599   3.080  12.792
65167SOL    HW197398  11.615   3.009  12.855
65167SOL    HW297399  11.595   3.159  12.847
65168SOL     OW97400   5.204   4.037   3.732
65168SOL    HW197401   5.150   4.109   3.698
65168SOL    HW297402   5.293   4.059   3.705
65169SOL     OW97403  12.394   4.093   3.154
65169SOL    HW197404  12.476   4.095   3.205
65169SOL    HW297405  12.349   4.015   3.186
65170SOL     OW97406   2.268  13.586  10.584
65170SOL    HW197407   2.279  13.492  10.579
65170SOL    HW297408   2.278  13.617  10.494
65171SOL     OW97409   6.306  11.733   4.990
65171SOL    HW197410   6.360  11.762   4.917
65171SOL    HW297411   6.331  11.642   5.004
65172SOL     OW97412  11.365   7.039   0.420
65172SOL    HW197413  11.375   6.949   0.391
65172SOL    HW297414  11.270   7.049   0.433
65173SOL     OW97415  14.798   3.098   1.430
65173SOL    HW197416  14.800   3.003   1.418
65173SOL    HW297417  14.872   3.130   1.379
65174SOL     OW97418   0.694   8.193   3.733
65174SOL    HW197419   0.617   8.180   3.679
65174SOL    HW297420   0.761   8.223   3.671
65175SOL     OW97421   3.243   6.691   3.332
65175SOL    HW197422   3.241   6.595   3.334
65175SOL    HW297423   3.194   6.714   3.253
65176SOL     OW97424  14.104  14.288   2.153
65176SOL    HW197425  14.082  14.238   2.231
65176SOL    HW297426  14.102  14.224   2.082
65177SOL     OW97427   3.320   6.591   5.016
65177SOL    HW197428   3.290   6.663   5.072
65177SOL    HW297429   3.414   6.586   5.032
65178SOL     OW97430   0.102   2.701   0.002
65178SOL    HW197431   0.021   2.685  14.826
65178SOL    HW297432   0.136   2.783  14.838
65179SOL     OW97433  10.383   9.253  12.238
65179SOL    HW197434  10.323   9.180  12.252
65179SOL    HW297435  10.462   9.229  12.287
65180SOL     OW97436   0.241   5.557  12.499
65180SOL    HW197437   0.224   5.649  12.477
65180SOL    HW297438   0.324   5.559  12.547
65181SOL     OW97439   7.424   2.817  11.078
65181SOL    HW197440   7.375   2.766  11.142
65181SOL    HW297441   7.499   2.851  11.127
65182SOL     OW97442  12.067   3.201  13.232
65182SOL    HW197443  12.120   3.127  13.261
65182SOL    HW297444  12.126   3.252  13.176
65183SOL     OW97445   7.420   1.679   4.903
65183SOL    HW197446   7.422   1.610   4.970
65183SOL    HW297447   7.355   1.742   4.935
65184SOL     OW97448   4.093  10.351   9.715
65184SOL    HW197449   4.130  10.426   9.760
65184SOL    HW297450   4.158  10.329   9.647
65185SOL     OW97451   1.277  14.564  14.503
65185SOL    HW197452   1.226  14.484  14.492
65185SOL    HW297453   1.238  14.609  14.578
65186SOL     OW97454  12.051   8.093  14.708
65186SOL    HW197455  12.114   8.021  14.710
65186SOL    HW297456  12.011   8.092  14.795
65187SOL     OW97457   7.334   2.605   3.840
65187SOL    HW197458   7.307   2.671   3.776
65187SOL    HW297459   7.429   2.605   3.835
65188SOL     OW97460  13.464   2.238  13.639
65188SOL    HW197461  13.451   2.299  13.712
65188SOL    HW297462  13.416   2.159  13.666
65189SOL     OW97463  12.799  10.282   3.215
65189SOL    HW197464  12.806  10.334   3.295
65189SOL    HW297465  12.888  10.276   3.182
65190SOL     OW97466   2.263  13.760  14.645
65190SOL    HW197467   2.283  13.710  14.725
65190SOL    HW297468   2.240  13.692  14.581
65191SOL     OW97469   9.488   6.369   7.486
65191SOL    HW197470   9.489   6.279   7.518
65191SOL    HW297471   9.481   6.423   7.565
65192SOL     OW97472   6.299   6.657   7.430
65192SOL    HW197473   6.216   6.626   7.395
65192SOL    HW297474   6.357   6.581   7.422
65193SOL     OW97475  11.063   9.229  12.968
65193SOL    HW197476  11.034   9.304  12.916
65193SOL    HW297477  11.145   9.201  12.928
65194SOL     OW97478   0.344   4.295   3.381
65194SOL    HW197479   0.282   4.310   3.453
65194SOL    HW297480   0.292   4.255   3.313
65195SOL     OW97481  12.218   1.268   6.488
65195SOL    HW197482  12.212   1.175   6.466
65195SOL    HW297483  12.241   1.311   6.406
65196SOL     OW97484   9.492   7.512   3.220
65196SOL    HW197485   9.413   7.497   3.272
65196SOL    HW297486   9.503   7.431   3.170
65197SOL     OW97487  12.221  11.859  10.099
65197SOL    HW197488  12.222  11.947  10.063
65197SOL    HW297489  12.187  11.804  10.029
65198SOL     OW97490   3.068  10.332   3.012
65198SOL    HW197491   3.120  10.345   3.091
65198SOL    HW297492   3.034  10.420   2.991
65199SOL     OW97493  14.167  13.579   3.021
65199SOL    HW197494  14.180  13.629   2.940
65199SOL    HW297495  14.221  13.501   3.011
65200SOL     OW97496   1.189  12.132   1.256
65200SOL    HW197497   1.275  12.170   1.239
65200SOL    HW297498   1.204  12.037   1.253
65201SOL     OW97499  10.786   1.750  13.956
65201SOL    HW197500  10.795   1.790  14.042
65201SOL    HW297501  10.711   1.794  13.916
65202SOL     OW97502   7.828  14.603   1.843
65202SOL    HW197503   7.907  14.649   1.815
65202SOL    HW297504   7.854  14.555   1.922
65203SOL     OW97505   2.605   0.872   4.320
65203SOL    HW197506   2.576   0.829   4.401
65203SOL    HW297507   2.666   0.810   4.281
65204SOL     OW97508   1.503   2.556   5.049
65204SOL    HW197509   1.578   2.610   5.024
65204SOL    HW297510   1.535   2.502   5.120
65205SOL     OW97511   9.928   6.504   5.353
65205SOL    HW197512   9.892   6.559   5.422
65205SOL    HW297513  10.015   6.540   5.335
65206SOL     OW97514  10.164   6.903   5.210
65206SOL    HW197515  10.155   6.812   5.180
65206SOL    HW297516  10.145   6.955   5.132
65207SOL     OW97517  13.214   3.180   1.308
65207SOL    HW197518  13.255   3.234   1.377
65207SOL    HW297519  13.195   3.242   1.238
65208SOL     OW97520  13.296   6.026   4.843
65208SOL    HW197521  13.292   5.932   4.864
65208SOL    HW297522  13.230   6.065   4.901
65209SOL     OW97523  13.749  14.667   9.586
65209SOL    HW197524  13.803  14.647   9.662
65209SOL    HW297525  13.790  14.618   9.514
65210SOL     OW97526  11.350   0.992  13.798
65210SOL    HW197527  11.321   1.004  13.889
65210SOL    HW297528  11.356   1.081  13.763
65211SOL     OW97529   2.645   9.723  11.277
65211SOL    HW197530   2.696   9.651  11.241
65211SOL    HW297531   2.700   9.761  11.345
65212SOL     OW97532   9.911   3.810   1.920
65212SOL    HW197533   9.970   3.838   1.990
65212SOL    HW297534   9.899   3.716   1.936
65213SOL     OW97535  14.859  14.135  14.561
65213SOL    HW197536  14.850  14.148  14.655
65213SOL    HW297537  14.852  14.222  14.523
65214SOL     OW97538   8.769   6.340   5.607
65214SOL    HW197539   8.801   6.298   5.686
65214SOL    HW297540   8.754   6.268   5.545
65215SOL     OW97541  12.045   5.369   4.912
65215SOL    HW197542  12.087   5.323   4.985
65215SOL    HW297543  11.955   5.386   4.942
65216SOL     OW97544  11.022   1.488  12.622
65216SOL    HW197545  11.063   1.408  12.590
65216SOL    HW297546  10.970   1.520  12.549
65217SOL     OW97547   9.962   9.044   3.045
65217SOL    HW197548   9.915   9.067   2.965
65217SOL    HW297549  10.023   9.117   3.059
65218SOL     OW97550   7.313   5.536  12.218
65218SOL    HW197551   7.227   5.559  12.254
65218SOL    HW297552   7.294   5.471  12.151
65219SOL     OW97553  10.475   3.709   4.214
65219SOL    HW197554  10.513   3.746   4.293
65219SOL    HW297555  10.550   3.673   4.166
65220SOL     OW97556  13.659  11.996   1.951
65220SOL    HW197557  13.612  12.079   1.957
65220SOL    HW297558  13.740  12.017   1.904
65221SOL     OW97559   0.469   1.719   9.797
65221SOL    HW197560   0.542   1.740   9.739
65221SOL    HW297561   0.430   1.641   9.758
65222SOL     OW97562  14.103   0.238   3.754
65222SOL    HW197563  14.155   0.207   3.828
65222SOL    HW297564  14.135   0.188   3.679
65223SOL     OW97565   3.647  13.956   5.722
65223SOL    HW197566   3.633  13.892   5.653
65223SOL    HW297567   3.737  13.985   5.710
65224SOL     OW97568   1.528   0.556  13.901
65224SOL    HW197569   1.437   0.570  13.874
65224SOL    HW297570   1.580   0.600  13.834
65225SOL     OW97571   9.169   5.757   3.171
65225SOL    HW197572   9.139   5.721   3.087
65225SOL    HW297573   9.260   5.783   3.155
65226SOL     OW97574   3.838   7.931   9.569
65226SOL    HW197575   3.757   7.961   9.527
65226SOL    HW297576   3.893   7.903   9.496
65227SOL     OW97577   1.078  10.112  11.640
65227SOL    HW197578   1.001  10.148  11.685
65227SOL    HW297579   1.140  10.185  11.635
65228SOL     OW97580  14.745  14.018   9.734
65228SOL    HW197581  14.780  13.942   9.781
65228SOL    HW297582  14.745  14.088   9.800
65229SOL     OW97583   1.867  13.270  14.663
65229SOL    HW197584   1.787  13.219  14.676
65229SOL    HW297585   1.937  13.205  14.657
65230SOL     OW97586   9.066   8.183   9.135
65230SOL    HW197587   9.129   8.254   9.125
65230SOL    HW297588   9.032   8.193   9.223
65231SOL     OW97589   0.619   8.594   6.210
65231SOL    HW197590   0.713   8.605   6.219
65231SOL    HW297591   0.582   8.678   6.237
65232SOL     OW97592  11.840   8.206   7.174
65232SOL    HW197593  11.924   8.169   7.147
65232SOL    HW297594  11.863   8.285   7.223
65233SOL     OW97595   8.105  11.021   5.737
65233SOL    HW197596   8.026  11.024   5.683
65233SOL    HW297597   8.162  11.088   5.699
65234SOL     OW97598  14.087  12.455  10.123
65234SOL    HW197599  14.168  12.406  10.111
65234SOL    HW297600  14.050  12.420  10.204
65235SOL     OW97601   0.334   5.641  11.279
65235SOL    HW197602   0.264   5.637  11.343
65235SOL    HW297603   0.412   5.663  11.330
65236SOL     OW97604   0.411  13.870   1.278
65236SOL    HW197605   0.399  13.787   1.324
65236SOL    HW297606   0.500  13.898   1.302
65237SOL     OW97607   0.570   2.441   2.881
65237SOL    HW197608   0.572   2.455   2.787
65237SOL    HW297609   0.618   2.516   2.917
65238SOL     OW97610   4.755   3.812   5.332
65238SOL    HW197611   4.810   3.890   5.324
65238SOL    HW297612   4.712   3.821   5.417
65239SOL     OW97613   7.650   5.918   6.687
65239SOL    HW197614   7.676   5.863   6.761
65239SOL    HW297615   7.569   5.879   6.655
65240SOL     OW97616  13.466  11.825  10.904
65240SOL    HW197617  13.451  11.843  10.997
65240SOL    HW297618  13.459  11.911  10.862
65241SOL     OW97619   0.673   3.351   3.891
65241SOL    HW197620   0.594   3.398   3.864
65241SOL    HW297621   0.734   3.420   3.917
65242SOL     OW97622  11.170  11.363   0.726
65242SOL    HW197623  11.144  11.345   0.635
65242SOL    HW297624  11.091  11.401   0.766
65243SOL     OW97625   6.531   9.346  10.894
65243SOL    HW197626   6.558   9.256  10.910
65243SOL    HW297627   6.609   9.398  10.914
65244SOL     OW97628  10.592   5.914   7.151
65244SOL    HW197629  10.527   5.926   7.221
65244SOL    HW297630  10.658   5.856   7.188
65245SOL     OW97631   4.848   9.488   2.522
65245SOL    HW197632   4.927   9.530   2.489
65245SOL    HW297633   4.848   9.401   2.481
65246SOL     OW97634   0.010  12.883  10.786
65246SOL    HW197635   0.093  12.843  10.761
65246SOL    HW297636  14.858  12.841  10.868
65247SOL     OW97637   5.839  14.560   9.620
65247SOL    HW197638   5.813  14.637   9.570
65247SOL    HW297639   5.770  14.549   9.685
65248SOL     OW97640   6.297   9.122   1.124
65248SOL    HW197641   6.248   9.163   1.196
65248SOL    HW297642   6.235   9.060   1.086
65249SOL     OW97643   0.462   7.352   0.017
65249SOL    HW197644   0.510   7.370  14.809
65249SOL    HW297645   0.520   7.298   0.070
65250SOL     OW97646   3.712  11.999  11.680
65250SOL    HW197647   3.808  12.001  11.684
65250SOL    HW297648   3.692  12.007  11.586
65251SOL     OW97649  10.949  13.009  10.039
65251SOL    HW197650  10.929  12.995  10.132
65251SOL    HW297651  10.882  12.961   9.992
65252SOL     OW97652  13.558   2.490   8.834
65252SOL    HW197653  13.637   2.440   8.858
65252SOL    HW297654  13.517   2.437   8.765
65253SOL     OW97655  11.978  13.490  11.700
65253SOL    HW197656  11.969  13.584  11.680
65253SOL    HW297657  11.958  13.446  11.617
65254SOL     OW97658  13.005  14.054  13.334
65254SOL    HW197659  13.069  14.048  13.405
65254SOL    HW297660  13.003  14.146  13.310
65255SOL     OW97661  14.393   4.145   3.516
65255SOL    HW197662  14.370   4.112   3.429
65255SOL    HW297663  14.347   4.229   3.522
65256SOL     OW97664   6.890   4.575   8.507
65256SOL    HW197665   6.872   4.605   8.596
65256SOL    HW297666   6.904   4.655   8.457
65257SOL     OW97667   0.208   0.582  10.684
65257SOL    HW197668   0.192   0.655  10.744
65257SOL    HW297669   0.239   0.512  10.741
65258SOL     OW97670   6.905  13.495  14.118
65258SOL    HW197671   6.970  13.552  14.160
65258SOL    HW297672   6.855  13.459  14.191
65259SOL     OW97673  13.052   9.482   5.841
65259SOL    HW197674  13.066   9.538   5.917
65259SOL    HW297675  13.066   9.540   5.766
65260SOL     OW97676  13.836  11.661   8.248
65260SOL    HW197677  13.925  11.637   8.222
65260SOL    HW297678  13.812  11.734   8.191
65261SOL     OW97679  14.458   5.450  11.275
65261SOL    HW197680  14.447   5.509  11.200
65261SOL    HW297681  14.452   5.508  11.351
65262SOL     OW97682  12.161   7.003  11.731
65262SOL    HW197683  12.069   7.029  11.726
65262SOL    HW297684  12.189   7.033  11.818
65263SOL     OW97685   5.885   7.876   0.990
65263SOL    HW197686   5.813   7.885   0.928
65263SOL    HW297687   5.863   7.797   1.040
65264SOL     OW97688   4.869   3.771   1.551
65264SOL    HW197689   4.950   3.730   1.579
65264SOL    HW297690   4.843   3.722   1.473
65265SOL     OW97691   5.434   8.817   2.230
65265SOL    HW197692   5.497   8.761   2.275
65265SOL    HW297693   5.402   8.877   2.299
65266SOL     OW97694   8.455   7.085   8.041
65266SOL    HW197695   8.437   7.158   7.982
65266SOL    HW297696   8.404   7.012   8.005
65267SOL     OW97697   3.733   5.334   3.650
65267SOL    HW197698   3.796   5.405   3.642
65267SOL    HW297699   3.669   5.365   3.714
65268SOL     OW97700   1.077  12.484  12.587
65268SOL    HW197701   1.105  12.507  12.676
65268SOL    HW297702   1.127  12.405  12.567
65269SOL     OW97703   8.251  11.653   0.873
65269SOL    HW197704   8.216  11.586   0.814
65269SOL    HW297705   8.184  11.721   0.875
65270SOL     OW97706   3.786   3.326  10.749
65270SOL    HW197707   3.701   3.351  10.712
65270SOL    HW297708   3.850   3.353  10.683
65271SOL     OW97709   2.750   7.163   9.207
65271SOL    HW197710   2.685   7.167   9.277
65271SOL    HW297711   2.699   7.166   9.126
65272SOL     OW97712   5.840   9.012   2.467
65272SOL    HW197713   5.860   9.099   2.499
65272SOL    HW297714   5.918   8.985   2.419
65273SOL     OW97715   8.002   2.478   7.195
65273SOL    HW197716   7.906   2.476   7.184
65273SOL    HW297717   8.020   2.567   7.225
65274SOL     OW97718  10.806   0.734   1.535
65274SOL    HW197719  10.742   0.706   1.601
65274SOL    HW297720  10.802   0.667   1.467
65275SOL     OW97721   0.027   2.363   0.291
65275SOL    HW197722   0.081   2.337   0.366
65275SOL    HW297723   0.089   2.400   0.229
65276SOL     OW97724  12.705  12.399   2.826
65276SOL    HW197725  12.711  12.446   2.909
65276SOL    HW297726  12.795  12.374   2.805
65277SOL     OW97727   6.943   2.308   0.007
65277SOL    HW197728   6.924   2.330  14.788
65277SOL    HW297729   6.856   2.296   0.047
65278SOL     OW97730   1.511   2.124   8.200
65278SOL    HW197731   1.544   2.088   8.118
65278SOL    HW297732   1.451   2.057   8.233
65279SOL     OW97733   4.832   6.989   5.961
65279SOL    HW197734   4.921   6.997   5.926
65279SOL    HW297735   4.776   6.985   5.883
65280SOL     OW97736   3.764   2.754   7.558
65280SOL    HW197737   3.784   2.703   7.479
65280SOL    HW297738   3.833   2.730   7.619
65281SOL     OW97739  12.741   1.494   7.555
65281SOL    HW197740  12.734   1.512   7.461
65281SOL    HW297741  12.690   1.563   7.597
65282SOL     OW97742   8.889   1.272   9.368
65282SOL    HW197743   8.830   1.223   9.311
65282SOL    HW297744   8.864   1.364   9.353
65283SOL     OW97745   4.457   6.872   2.841
65283SOL    HW197746   4.477   6.780   2.825
65283SOL    HW297747   4.515   6.920   2.782
65284SOL     OW97748  12.535  12.339  14.386
65284SOL    HW197749  12.611  12.303  14.432
65284SOL    HW297750  12.495  12.263  14.344
65285SOL     OW97751   5.954   2.527   1.303
65285SOL    HW197752   5.886   2.460   1.305
65285SOL    HW297753   5.959   2.554   1.212
65286SOL     OW97754   7.642   8.294  13.000
65286SOL    HW197755   7.606   8.351  13.068
65286SOL    HW297756   7.715   8.249  13.043
65287SOL     OW97757   1.513   8.923   6.536
65287SOL    HW197758   1.499   8.905   6.629
65287SOL    HW297759   1.438   8.977   6.510
65288SOL     OW97760   4.578   0.536  11.090
65288SOL    HW197761   4.553   0.609  11.033
65288SOL    HW297762   4.667   0.514  11.064
65289SOL     OW97763   0.022   9.620   5.766
65289SOL    HW197764   0.021   9.541   5.712
65289SOL    HW297765   0.039   9.588   5.855
65290SOL     OW97766   8.518   5.197   6.572
65290SOL    HW197767   8.469   5.266   6.617
65290SOL    HW297768   8.504   5.214   6.479
65291SOL     OW97769   6.000  10.919   3.521
65291SOL    HW197770   5.997  10.992   3.583
65291SOL    HW297771   6.040  10.848   3.570
65292SOL     OW97772   1.993  14.093   1.975
65292SOL    HW197773   2.087  14.103   1.987
65292SOL    HW297774   1.960  14.183   1.966
65293SOL     OW97775  10.416  13.611   1.092
65293SOL    HW197776  10.389  13.565   1.013
65293SOL    HW297777  10.456  13.544   1.147
65294SOL     OW97778   2.049   8.762   3.067
65294SOL    HW197779   2.107   8.707   3.119
65294SOL    HW297780   2.100   8.842   3.050
65295SOL     OW97781   5.439   3.222   6.320
65295SOL    HW197782   5.393   3.240   6.402
65295SOL    HW297783   5.385   3.157   6.275
65296SOL     OW97784  13.570  14.712  12.250
65296SOL    HW197785  13.542  14.761  12.173
65296SOL    HW297786  13.500  14.725  12.313
65297SOL     OW97787   2.850   7.566   1.171
65297SOL    HW197788   2.796   7.540   1.096
65297SOL    HW297789   2.807   7.525   1.247
65298SOL     OW97790   5.216   9.833   8.054
65298SOL    HW197791   5.183   9.878   7.976
65298SOL    HW297792   5.273   9.897   8.096
65299SOL     OW97793   1.335   6.553  13.714
65299SOL    HW197794   1.257   6.501  13.698
65299SOL    HW297795   1.321   6.592  13.801
65300SOL     OW97796   8.352  11.216   6.682
65300SOL    HW197797   8.325  11.134   6.724
65300SOL    HW297798   8.354  11.280   6.753
65301SOL     OW97799   2.760   1.758   7.314
65301SOL    HW197800   2.784   1.687   7.253
65301SOL    HW297801   2.752   1.835   7.258
65302SOL     OW97802   9.826  13.621  11.613
65302SOL    HW197803   9.733  13.625  11.589
65302SOL    HW297804   9.826  13.625  11.708
65303SOL     OW97805  11.729   6.330  11.085
65303SOL    HW197806  11.676   6.259  11.051
65303SOL    HW297807  11.800   6.287  11.132
65304SOL     OW97808   2.872   0.166   5.188
65304SOL    HW197809   2.920   0.248   5.182
65304SOL    HW297810   2.884   0.137   5.279
65305SOL     OW97811   0.896  14.444   4.031
65305SOL    HW197812   0.915  14.372   4.091
65305SOL    HW297813   0.800  14.450   4.030
65306SOL     OW97814   9.878   4.592   4.951
65306SOL    HW197815   9.881   4.502   4.920
65306SOL    HW297816   9.864   4.585   5.045
65307SOL     OW97817   1.776  11.522   8.762
65307SOL    HW197818   1.795  11.433   8.730
65307SOL    HW297819   1.756  11.510   8.855
65308SOL     OW97820  11.000  14.322   5.502
65308SOL    HW197821  11.008  14.234   5.540
65308SOL    HW297822  10.914  14.321   5.459
65309SOL     OW97823   8.006  14.381  12.997
65309SOL    HW197824   8.042  14.388  12.908
65309SOL    HW297825   7.912  14.368  12.983
65310SOL     OW97826   0.716   0.668   8.008
65310SOL    HW197827   0.737   0.597   7.948
65310SOL    HW297828   0.792   0.672   8.067
65311SOL     OW97829  11.964  13.435  11.987
65311SOL    HW197830  11.997  13.423  11.898
65311SOL    HW297831  11.929  13.349  12.012
65312SOL     OW97832  10.714   8.801   9.470
65312SOL    HW197833  10.656   8.795   9.546
65312SOL    HW297834  10.674   8.869   9.415
65313SOL     OW97835   5.398   9.752  12.488
65313SOL    HW197836   5.474   9.695  12.499
65313SOL    HW297837   5.429   9.823  12.432
65314SOL     OW97838   1.069   1.454   5.450
65314SOL    HW197839   1.068   1.464   5.546
65314SOL    HW297840   1.007   1.520   5.419
65315SOL     OW97841   3.188   3.640   7.505
65315SOL    HW197842   3.231   3.629   7.420
65315SOL    HW297843   3.104   3.681   7.485
65316SOL     OW97844   4.210  14.417  11.717
65316SOL    HW197845   4.240  14.478  11.784
65316SOL    HW297846   4.205  14.469  11.637
65317SOL     OW97847   3.802   7.681   3.158
65317SOL    HW197848   3.778   7.771   3.177
65317SOL    HW297849   3.718   7.635   3.151
65318SOL     OW97850  11.909   9.093   0.129
65318SOL    HW197851  11.895   9.018   0.186
65318SOL    HW297852  11.832   9.149   0.144
65319SOL     OW97853  12.159  13.689   6.346
65319SOL    HW197854  12.179  13.598   6.370
65319SOL    HW297855  12.228  13.740   6.390
65320SOL     OW97856  13.350   1.733  14.636
65320SOL    HW197857  13.349   1.749  14.541
65320SOL    HW297858  13.341   1.638  14.644
65321SOL     OW97859   2.162  11.578  11.878
65321SOL    HW197860   2.130  11.643  11.816
65321SOL    HW297861   2.123  11.496  11.849
65322SOL     OW97862   0.809   2.000   6.475
65322SOL    HW197863   0.851   1.919   6.503
65322SOL    HW297864   0.718   1.976   6.459
65323SOL     OW97865   1.027  14.812   1.207
65323SOL    HW197866   1.034  14.785   1.116
65323SOL    HW297867   0.962  14.753   1.245
65324SOL     OW97868  13.373   4.598   8.648
65324SOL    HW197869  13.299   4.567   8.597
65324SOL    HW297870  13.347   4.585   8.739
65325SOL     OW97871   9.662   3.804   0.936
65325SOL    HW197872   9.704   3.741   0.994
65325SOL    HW297873   9.584   3.831   0.983
65326SOL     OW97874   4.953   6.632   4.152
65326SOL    HW197875   4.954   6.689   4.075
65326SOL    HW297876   4.988   6.548   4.120
65327SOL     OW97877   8.646   4.687  13.168
65327SOL    HW197878   8.720   4.632  13.143
65327SOL    HW297879   8.671   4.722  13.254
65328SOL     OW97880  14.760   7.130   6.684
65328SOL    HW197881  14.695   7.193   6.716
65328SOL    HW297882  14.777   7.158   6.594
65329SOL     OW97883   5.036   0.030  10.521
65329SOL    HW197884   5.101  14.839  10.490
65329SOL    HW297885   4.954  14.854  10.521
65330SOL     OW97886  13.455   3.322   3.928
65330SOL    HW197887  13.385   3.264   3.898
65330SOL    HW297888  13.506   3.268   3.989
65331SOL     OW97889  10.953   5.053   2.492
65331SOL    HW197890  10.977   4.960   2.496
65331SOL    HW297891  10.987   5.089   2.574
65332SOL     OW97892   3.204   9.814   3.125
65332SOL    HW197893   3.121   9.770   3.108
65332SOL    HW297894   3.229   9.852   3.040
65333SOL     OW97895   9.954   3.962   6.504
65333SOL    HW197896   9.928   4.031   6.445
65333SOL    HW297897   9.984   3.891   6.447
65334SOL     OW97898   2.232  13.198  11.383
65334SOL    HW197899   2.212  13.124  11.441
65334SOL    HW297900   2.273  13.159  11.307
65335SOL     OW97901   3.541   9.863  11.148
65335SOL    HW197902   3.633   9.886  11.137
65335SOL    HW297903   3.512   9.917  11.221
65336SOL     OW97904   4.713   8.503   1.063
65336SOL    HW197905   4.638   8.542   1.109
65336SOL    HW297906   4.678   8.425   1.020
65337SOL     OW97907   0.484   7.598  11.541
65337SOL    HW197908   0.569   7.555  11.556
65337SOL    HW297909   0.447   7.608  11.629
65338SOL     OW97910   4.104  10.783  10.526
65338SOL    HW197911   4.163  10.792  10.451
65338SOL    HW297912   4.104  10.869  10.567
65339SOL     OW97913  12.615  14.836   7.315
65339SOL    HW197914  12.662  14.858   7.234
65339SOL    HW297915  12.594   0.048   7.354
65340SOL     OW97916  11.310  12.304   9.058
65340SOL    HW197917  11.366  12.356   9.116
65340SOL    HW297918  11.245  12.265   9.117
65341SOL     OW97919   8.399  13.605   0.433
65341SOL    HW197920   8.322  13.581   0.485
65341SOL    HW297921   8.449  13.664   0.491
65342SOL     OW97922   3.078   1.828  12.070
65342SOL    HW197923   3.152   1.768  12.073
65342SOL    HW297924   3.106   1.903  12.122
65343SOL     OW97925  11.128   6.535  10.096
65343SOL    HW197926  11.207   6.553  10.045
65343SOL    HW297927  11.137   6.588  10.175
65344SOL     OW97928  11.721  13.887  10.907
65344SOL    HW197929  11.665  13.825  10.862
65344SOL    HW297930  11.706  13.970  10.862
65345SOL     OW97931  11.887   0.146   9.111
65345SOL    HW197932  11.864   0.054   9.124
65345SOL    HW297933  11.818   0.181   9.055
65346SOL     OW97934  12.102   8.368  14.123
65346SOL    HW197935  12.076   8.334  14.209
65346SOL    HW297936  12.083   8.296  14.063
65347SOL     OW97937   6.291  11.084  13.522
65347SOL    HW197938   6.259  11.027  13.592
65347SOL    HW297939   6.252  11.169  13.540
65348SOL     OW97940   5.667   7.133   4.206
65348SOL    HW197941   5.728   7.064   4.232
65348SOL    HW297942   5.619   7.154   4.286
65349SOL     OW97943   9.854  12.347   6.043
65349SOL    HW197944   9.785  12.352   5.976
65349SOL    HW297945   9.933  12.324   5.994
65350SOL     OW97946   7.466   2.809  14.287
65350SOL    HW197947   7.387   2.824  14.339
65350SOL    HW297948   7.515   2.890  14.293
65351SOL     OW97949   7.162  12.912  10.073
65351SOL    HW197950   7.191  12.830  10.032
65351SOL    HW297951   7.214  12.918  10.153
65352SOL     OW97952  13.942   6.886  14.265
65352SOL    HW197953  13.927   6.799  14.302
65352SOL    HW297954  13.904   6.882  14.178
65353SOL     OW97955  11.611   1.683   5.418
65353SOL    HW197956  11.529   1.673   5.467
65353SOL    HW297957  11.679   1.685   5.485
65354SOL     OW97958   0.823  12.889   0.212
65354SOL    HW197959   0.812  12.975   0.252
65354SOL    HW297960   0.917  12.874   0.211
65355SOL     OW97961  11.059   5.355  10.100
65355SOL    HW197962  11.001   5.371  10.025
65355SOL    HW297963  11.012   5.392  10.175
65356SOL     OW97964   4.228   3.461   2.984
65356SOL    HW197965   4.151   3.475   2.928
65356SOL    HW297966   4.224   3.533   3.048
65357SOL     OW97967   6.890   9.416   3.253
65357SOL    HW197968   6.970   9.424   3.200
65357SOL    HW297969   6.847   9.501   3.245
65358SOL     OW97970  13.355  10.824   4.689
65358SOL    HW197971  13.380  10.770   4.764
65358SOL    HW297972  13.288  10.773   4.644
65359SOL     OW97973  14.286  14.489   3.396
65359SOL    HW197974  14.239  14.427   3.340
65359SOL    HW297975  14.375  14.491   3.360
65360SOL     OW97976  13.811  14.124   1.870
65360SOL    HW197977  13.861  14.118   1.788
65360SOL    HW297978  13.836  14.209   1.907
65361SOL     OW97979  13.304   3.395   8.796
65361SOL    HW197980  13.376   3.335   8.811
65361SOL    HW297981  13.251   3.352   8.728
65362SOL     OW97982  11.805  13.579   3.505
65362SOL    HW197983  11.717  13.551   3.480
65362SOL    HW297984  11.812  13.558   3.598
65363SOL     OW97985   9.928  12.689   4.185
65363SOL    HW197986   9.950  12.656   4.098
65363SOL    HW297987   9.972  12.629   4.246
65364SOL     OW97988   2.843   4.616   8.944
65364SOL    HW197989   2.860   4.678   9.015
65364SOL    HW297990   2.792   4.667   8.880
65365SOL     OW97991  12.268  14.222  10.576
65365SOL    HW197992  12.270  14.260  10.488
65365SOL    HW297993  12.180  14.185  10.585
65366SOL     OW97994  11.809   2.440   0.301
65366SOL    HW197995  11.848   2.382   0.367
65366SOL    HW297996  11.861   2.520   0.306
65367SOL     OW97997   8.423   5.145   9.327
65367SOL    HW197998   8.518   5.141   9.318
65367SOL    HW297999   8.398   5.227   9.285
65368SOL     OW98000  12.151   0.275  11.218
65368SOL    HW198001  12.231   0.222  11.218
65368SOL    HW298002  12.167   0.342  11.285
65369SOL     OW98003   2.750   1.337   6.456
65369SOL    HW198004   2.662   1.304   6.438
65369SOL    HW298005   2.809   1.277   6.410
65370SOL     OW98006   1.715   6.325   3.573
65370SOL    HW198007   1.776   6.377   3.625
65370SOL    HW298008   1.763   6.244   3.553
65371SOL     OW98009   0.849   3.195  13.135
65371SOL    HW198010   0.886   3.132  13.073
65371SOL    HW298011   0.794   3.253  13.082
65372SOL     OW98012  11.037  13.095   2.523
65372SOL    HW198013  11.071  13.014   2.486
65372SOL    HW298014  10.953  13.108   2.480
65373SOL     OW98015   2.951   6.600   3.795
65373SOL    HW198016   2.937   6.608   3.701
65373SOL    HW298017   2.866   6.622   3.834
65374SOL     OW98018  10.151   2.910   4.444
65374SOL    HW198019  10.174   2.988   4.392
65374SOL    HW298020  10.213   2.911   4.516
65375SOL     OW98021  12.142   3.477  10.423
65375SOL    HW198022  12.069   3.535  10.402
65375SOL    HW298023  12.194   3.475  10.342
65376SOL     OW98024   4.353  14.361   0.189
65376SOL    HW198025   4.278  14.416   0.212
65376SOL    HW298026   4.365  14.374   0.095
65377SOL     OW98027   9.301   8.943  13.815
65377SOL    HW198028   9.206   8.954  13.815
65377SOL    HW298029   9.335   9.032  13.828
65378SOL     OW98030   7.336   7.241   0.346
65378SOL    HW198031   7.395   7.187   0.399
65378SOL    HW298032   7.257   7.188   0.338
65379SOL     OW98033  12.008  13.864  10.690
65379SOL    HW198034  12.021  13.841  10.782
65379SOL    HW298035  12.097  13.872  10.655
65380SOL     OW98036   1.284   1.024   1.332
65380SOL    HW198037   1.227   0.980   1.269
65380SOL    HW298038   1.257   1.115   1.331
65381SOL     OW98039   9.416  12.844  12.272
65381SOL    HW198040   9.446  12.911  12.334
65381SOL    HW298041   9.328  12.872  12.248
65382SOL     OW98042   2.245   4.406   6.130
65382SOL    HW198043   2.269   4.352   6.056
65382SOL    HW298044   2.322   4.460   6.147
65383SOL     OW98045  13.382   3.769   8.130
65383SOL    HW198046  13.287   3.771   8.121
65383SOL    HW298047  13.413   3.837   8.071
65384SOL     OW98048   1.239  14.668   5.149
65384SOL    HW198049   1.216  14.582   5.183
65384SOL    HW298050   1.181  14.729   5.196
65385SOL     OW98051   1.315   6.376   6.090
65385SOL    HW198052   1.402   6.349   6.059
65385SOL    HW298053   1.266   6.294   6.097
65386SOL     OW98054  13.206   8.058  13.437
65386SOL    HW198055  13.156   8.139  13.423
65386SOL    HW298056  13.139   7.989  13.443
65387SOL     OW98057  10.710   2.182  13.650
65387SOL    HW198058  10.623   2.158  13.619
65387SOL    HW298059  10.733   2.115  13.714
65388SOL     OW98060   8.978  13.708  11.399
65388SOL    HW198061   8.982  13.628  11.452
65388SOL    HW298062   8.936  13.681  11.318
65389SOL     OW98063  14.154   9.241   6.840
65389SOL    HW198064  14.060   9.261   6.836
65389SOL    HW298065  14.159   9.156   6.884
65390SOL     OW98066  10.994  14.794   2.477
65390SOL    HW198067  10.940  14.772   2.553
65390SOL    HW298068  10.948  14.867   2.436
65391SOL     OW98069   4.497   1.166  14.667
65391SOL    HW198070   4.471   1.212  14.747
65391SOL    HW298071   4.567   1.221  14.630
65392SOL     OW98072   3.260   2.649   3.566
65392SOL    HW198073   3.272   2.670   3.473
65392SOL    HW298074   3.188   2.586   3.567
65393SOL     OW98075  12.724  10.059   6.844
65393SOL    HW198076  12.772  10.004   6.905
65393SOL    HW298077  12.791  10.099   6.789
65394SOL     OW98078  14.247   0.113   1.109
65394SOL    HW198079  14.306   0.184   1.082
65394SOL    HW298080  14.305   0.037   1.121
65395SOL     OW98081   9.312   2.660   5.065
65395SOL    HW198082   9.217   2.670   5.054
65395SOL    HW298083   9.349   2.690   4.982
65396SOL     OW98084   0.121  11.651   2.560
65396SOL    HW198085   0.048  11.697   2.517
65396SOL    HW298086   0.197  11.706   2.542
65397SOL     OW98087   8.425   6.128   4.899
65397SOL    HW198088   8.389   6.183   4.968
65397SOL    HW298089   8.351   6.108   4.842
65398SOL     OW98090   0.821  11.930   8.580
65398SOL    HW198091   0.764  11.978   8.520
65398SOL    HW298092   0.772  11.850   8.599
65399SOL     OW98093   5.414   3.228   6.875
65399SOL    HW198094   5.443   3.308   6.833
65399SOL    HW298095   5.475   3.161   6.843
65400SOL     OW98096   1.990   7.313  10.010
65400SOL    HW198097   2.069   7.265   9.987
65400SOL    HW298098   1.983   7.381   9.943
65401SOL     OW98099   9.792   0.555   8.497
65401SOL    HW198100   9.852   0.562   8.423
65401SOL    HW298101   9.833   0.609   8.565
65402SOL     OW98102   8.212  14.018  10.388
65402SOL    HW198103   8.298  14.058  10.404
65402SOL    HW298104   8.232  13.928  10.363
65403SOL     OW98105  10.375   3.240   1.366
65403SOL    HW198106  10.330   3.247   1.281
65403SOL    HW298107  10.468   3.239   1.344
65404SOL     OW98108   6.778  11.194   8.673
65404SOL    HW198109   6.869  11.180   8.647
65404SOL    HW298110   6.745  11.107   8.695
65405SOL     OW98111  14.787  13.890   9.420
65405SOL    HW198112  14.859  13.946   9.449
65405SOL    HW298113  14.751  13.854   9.502
65406SOL     OW98114   6.680  10.328  14.602
65406SOL    HW198115   6.745  10.388  14.639
65406SOL    HW298116   6.662  10.266  14.672
65407SOL     OW98117   3.690   3.852   1.438
65407SOL    HW198118   3.641   3.924   1.477
65407SOL    HW298119   3.717   3.798   1.513
65408SOL     OW98120   5.230   4.596   3.394
65408SOL    HW198121   5.244   4.684   3.360
65408SOL    HW298122   5.251   4.602   3.487
65409SOL     OW98123   1.299   2.222   9.093
65409SOL    HW198124   1.374   2.196   9.041
65409SOL    HW298125   1.310   2.316   9.107
65410SOL     OW98126   2.279  13.222   6.379
65410SOL    HW198127   2.334  13.179   6.445
65410SOL    HW298128   2.335  13.288   6.340
65411SOL     OW98129   5.414  11.381   3.233
65411SOL    HW198130   5.466  11.305   3.208
65411SOL    HW298131   5.447  11.406   3.319
65412SOL     OW98132   7.375   2.460   3.255
65412SOL    HW198133   7.449   2.408   3.287
65412SOL    HW298134   7.416   2.538   3.216
65413SOL     OW98135   5.378   4.912   1.637
65413SOL    HW198136   5.424   4.952   1.711
65413SOL    HW298137   5.285   4.922   1.658
65414SOL     OW98138   5.482  10.814   8.703
65414SOL    HW198139   5.473  10.724   8.736
65414SOL    HW298140   5.575  10.824   8.685
65415SOL     OW98141   6.389  13.612  11.153
65415SOL    HW198142   6.356  13.523  11.170
65415SOL    HW298143   6.462  13.600  11.093
65416SOL     OW98144   4.921   6.930   4.704
65416SOL    HW198145   4.916   6.904   4.613
65416SOL    HW298146   4.995   6.881   4.739
65417SOL     OW98147   7.184   5.330  12.042
65417SOL    HW198148   7.154   5.337  11.951
65417SOL    HW298149   7.137   5.254  12.077
65418SOL     OW98150   4.777   6.306  12.283
65418SOL    HW198151   4.751   6.307  12.375
65418SOL    HW298152   4.778   6.213  12.259
65419SOL     OW98153   3.041   9.400   3.034
65419SOL    HW198154   3.005   9.479   3.075
65419SOL    HW298155   3.135   9.415   3.033
65420SOL     OW98156  13.028   6.726  11.927
65420SOL    HW198157  13.091   6.672  11.880
65420SOL    HW298158  13.081   6.793  11.969
65421SOL     OW98159   3.267  12.922   8.555
65421SOL    HW198160   3.261  12.966   8.470
65421SOL    HW298161   3.177  12.892   8.572
65422SOL     OW98162  11.582   1.780   2.728
65422SOL    HW198163  11.657   1.729   2.758
65422SOL    HW298164  11.517   1.772   2.798
65423SOL     OW98165   5.163   6.807   4.784
65423SOL    HW198166   5.212   6.847   4.855
65423SOL    HW298167   5.222   6.809   4.709
65424SOL     OW98168  11.824   3.259   8.119
65424SOL    HW198169  11.756   3.312   8.077
65424SOL    HW298170  11.905   3.308   8.105
65425SOL     OW98171   7.102   6.448   1.988
65425SOL    HW198172   7.157   6.371   1.999
65425SOL    HW298173   7.029   6.434   2.049
65426SOL     OW98174  12.553   1.811   5.360
65426SOL    HW198175  12.618   1.834   5.427
65426SOL    HW298176  12.470   1.840   5.397
65427SOL     OW98177   3.005   7.765   2.840
65427SOL    HW198178   2.951   7.688   2.826
65427SOL    HW298179   3.009   7.775   2.935
65428SOL     OW98180   9.350   3.352   1.089
65428SOL    HW198181   9.310   3.371   1.174
65428SOL    HW298182   9.425   3.295   1.110
65429SOL     OW98183  10.070   7.156   2.130
65429SOL    HW198184  10.119   7.094   2.076
65429SOL    HW298185  10.137   7.216   2.164
65430SOL     OW98186   0.257  12.535   1.379
65430SOL    HW198187   0.194  12.581   1.323
65430SOL    HW298188   0.276  12.596   1.450
65431SOL     OW98189   0.073  11.344   1.276
65431SOL    HW198190   0.074  11.262   1.324
65431SOL    HW298191   0.021  11.404   1.330
65432SOL     OW98192  14.076   6.036   9.094
65432SOL    HW198193  14.145   6.090   9.132
65432SOL    HW298194  14.019   6.098   9.048
65433SOL     OW98195   5.065  13.916   6.499
65433SOL    HW198196   5.119  13.874   6.567
65433SOL    HW298197   5.128  13.942   6.432
65434SOL     OW98198  14.754  14.008   6.403
65434SOL    HW198199  14.781  13.916   6.396
65434SOL    HW298200  14.825  14.050   6.452
65435SOL     OW98201  13.087  14.683   0.112
65435SOL    HW198202  13.140  14.673   0.033
65435SOL    HW298203  12.997  14.691   0.079
65436SOL     OW98204   8.654   6.349  14.790
65436SOL    HW198205   8.715   6.383  14.725
65436SOL    HW298206   8.579   6.408  14.785
65437SOL     OW98207   9.415   5.935  12.137
65437SOL    HW198208   9.363   5.865  12.177
65437SOL    HW298209   9.360   5.969  12.066
65438SOL     OW98210  14.506   0.656   1.230
65438SOL    HW198211  14.546   0.741   1.247
65438SOL    HW298212  14.518   0.607   1.311
65439SOL     OW98213   5.190   3.666  12.955
65439SOL    HW198214   5.245   3.731  12.997
65439SOL    HW298215   5.206   3.678  12.861
65440SOL     OW98216   2.190  14.108   9.240
65440SOL    HW198217   2.236  14.088   9.321
65440SOL    HW298218   2.243  14.176   9.198
65441SOL     OW98219   1.551   1.793   4.890
65441SOL    HW198220   1.469   1.819   4.932
65441SOL    HW298221   1.557   1.849   4.813
65442SOL     OW98222   7.716   3.604   3.190
65442SOL    HW198223   7.651   3.658   3.145
65442SOL    HW298224   7.665   3.550   3.250
65443SOL     OW98225   2.752   1.212   4.880
65443SOL    HW198226   2.675   1.184   4.930
65443SOL    HW298227   2.716   1.251   4.801
65444SOL     OW98228  12.407   2.886  14.279
65444SOL    HW198229  12.339   2.826  14.310
65444SOL    HW298230  12.462   2.833  14.222
65445SOL     OW98231   9.270   2.740   3.833
65445SOL    HW198232   9.336   2.800   3.799
65445SOL    HW298233   9.278   2.745   3.928
65446SOL     OW98234   5.383  13.403   9.372
65446SOL    HW198235   5.450  13.448   9.320
65446SOL    HW298236   5.431  13.370   9.449
65447SOL     OW98237  14.312   2.063  12.472
65447SOL    HW198238  14.403   2.085  12.494
65447SOL    HW298239  14.317   1.973  12.440
65448SOL     OW98240   8.891   2.151  11.043
65448SOL    HW198241   8.893   2.224  11.106
65448SOL    HW298242   8.802   2.117  11.049
65449SOL     OW98243  14.467  10.911   3.966
65449SOL    HW198244  14.439  10.992   3.923
65449SOL    HW298245  14.422  10.911   4.050
65450SOL     OW98246   0.741   3.362  11.663
65450SOL    HW198247   0.767   3.300  11.595
65450SOL    HW298248   0.748   3.312  11.745
65451SOL     OW98249  14.704  12.571   3.660
65451SOL    HW198250  14.654  12.628   3.718
65451SOL    HW298251  14.643  12.500   3.639
65452SOL     OW98252  10.993  10.538   9.889
65452SOL    HW198253  10.924  10.522   9.824
65452SOL    HW298254  10.991  10.633   9.904
65453SOL     OW98255  14.485   0.125   0.858
65453SOL    HW198256  14.519   0.134   0.947
65453SOL    HW298257  14.556   0.084   0.808
65454SOL     OW98258   5.665   5.237   5.389
65454SOL    HW198259   5.753   5.200   5.381
65454SOL    HW298260   5.649   5.279   5.305
65455SOL     OW98261  13.187  13.668   8.197
65455SOL    HW198262  13.269  13.629   8.226
65455SOL    HW298263  13.161  13.616   8.121
65456SOL     OW98264   2.110  12.415  13.030
65456SOL    HW198265   2.068  12.374  12.955
65456SOL    HW298266   2.115  12.345  13.096
65457SOL     OW98267   8.591   2.741   9.182
65457SOL    HW198268   8.660   2.678   9.205
65457SOL    HW298269   8.562   2.777   9.266
65458SOL     OW98270  12.179  13.981   5.057
65458SOL    HW198271  12.168  13.899   5.105
65458SOL    HW298272  12.115  14.040   5.096
65459SOL     OW98273  11.009   1.530  12.078
65459SOL    HW198274  11.086   1.572  12.116
65459SOL    HW298275  11.032   1.515  11.986
65460SOL     OW98276  13.204   3.139   2.968
65460SOL    HW198277  13.274   3.130   2.904
65460SOL    HW298278  13.234   3.087   3.043
65461SOL     OW98279   2.288   9.064  11.665
65461SOL    HW198280   2.259   9.059  11.574
65461SOL    HW298281   2.377   9.027  11.664
65462SOL     OW98282  14.453  12.732  11.124
65462SOL    HW198283  14.443  12.827  11.133
65462SOL    HW298284  14.403  12.695  11.197
65463SOL     OW98285   8.592  14.747   5.303
65463SOL    HW198286   8.500  14.768   5.315
65463SOL    HW298287   8.630  14.752   5.391
65464SOL     OW98288   2.277   1.624   3.285
65464SOL    HW198289   2.232   1.541   3.269
65464SOL    HW298290   2.217   1.690   3.250
65465SOL     OW98291   5.817  12.061   9.033
65465SOL    HW198292   5.723  12.074   9.023
65465SOL    HW298293   5.848  12.138   9.081
65466SOL     OW98294   6.950   9.678  12.942
65466SOL    HW198295   6.893   9.742  12.901
65466SOL    HW298296   7.013   9.730  12.992
65467SOL     OW98297  11.051   1.336   4.200
65467SOL    HW198298  11.100   1.286   4.265
65467SOL    HW298299  10.975   1.281   4.180
65468SOL     OW98300   9.926   0.762   8.118
65468SOL    HW198301   9.987   0.820   8.072
65468SOL    HW298302   9.848   0.760   8.062
65469SOL     OW98303   5.788   3.462   0.134
65469SOL    HW198304   5.752   3.551   0.133
65469SOL    HW298305   5.743   3.417   0.063
65470SOL     OW98306   4.447   8.235   1.578
65470SOL    HW198307   4.397   8.273   1.650
65470SOL    HW298308   4.517   8.186   1.620
65471SOL     OW98309  11.367   9.427   2.687
65471SOL    HW198310  11.431   9.383   2.744
65471SOL    HW298311  11.302   9.360   2.666
65472SOL     OW98312   9.732  11.165  13.058
65472SOL    HW198313   9.735  11.070  13.046
65472SOL    HW298314   9.657  11.193  13.007
65473SOL     OW98315  12.814   8.567   0.591
65473SOL    HW198316  12.880   8.498   0.584
65473SOL    HW298317  12.733   8.527   0.560
65474SOL     OW98318  10.069  13.227   3.619
65474SOL    HW198319  10.122  13.194   3.546
65474SOL    HW298320  10.093  13.171   3.693
65475SOL     OW98321   0.018   3.036   5.693
65475SOL    HW198322  14.814   3.021   5.749
65475SOL    HW298323   0.008   3.126   5.662
65476SOL     OW98324   4.752   4.150  12.169
65476SOL    HW198325   4.702   4.108  12.100
65476SOL    HW298326   4.843   4.144  12.141
65477SOL     OW98327   3.308   7.264   5.424
65477SOL    HW198328   3.335   7.313   5.346
65477SOL    HW298329   3.362   7.299   5.495
65478SOL     OW98330  14.519   1.956   1.527
65478SOL    HW198331  14.604   1.932   1.489
65478SOL    HW298332  14.500   1.886   1.589
65479SOL     OW98333   3.786   1.457   2.916
65479SOL    HW198334   3.811   1.380   2.966
65479SOL    HW298335   3.741   1.513   2.980
65480SOL     OW98336   3.858  13.651   2.253
65480SOL    HW198337   3.772  13.657   2.211
65480SOL    HW298338   3.876  13.557   2.257
65481SOL     OW98339   8.033   0.304  14.127
65481SOL    HW198340   8.123   0.324  14.102
65481SOL    HW298341   8.037   0.214  14.161
65482SOL     OW98342   1.684   1.166   2.737
65482SOL    HW198343   1.618   1.223   2.776
65482SOL    HW298344   1.689   1.192   2.645
65483SOL     OW98345   3.084   1.700  13.371
65483SOL    HW198346   3.011   1.756  13.343
65483SOL    HW298347   3.114   1.740  13.453
65484SOL     OW98348   8.993  11.473   1.150
65484SOL    HW198349   9.088  11.488   1.159
65484SOL    HW298350   8.987  11.390   1.103
65485SOL     OW98351   5.392   9.833   6.969
65485SOL    HW198352   5.463   9.862   6.911
65485SOL    HW298353   5.371   9.910   7.022
65486SOL     OW98354   6.424   5.603   6.251
65486SOL    HW198355   6.411   5.650   6.334
65486SOL    HW298356   6.518   5.602   6.239
65487SOL     OW98357  12.418   6.357   3.320
65487SOL    HW198358  12.401   6.295   3.249
65487SOL    HW298359  12.364   6.433   3.299
65488SOL     OW98360   8.255   7.907  10.064
65488SOL    HW198361   8.205   7.882   9.987
65488SOL    HW298362   8.226   7.846  10.132
65489SOL     OW98363  14.501   9.742   6.082
65489SOL    HW198364  14.563   9.811   6.057
65489SOL    HW298365  14.545   9.661   6.059
65490SOL     OW98366   5.974   2.465  13.152
65490SOL    HW198367   5.928   2.459  13.236
65490SOL    HW298368   6.038   2.394  13.154
65491SOL     OW98369   4.938   2.822   0.393
65491SOL    HW198370   4.997   2.898   0.391
65491SOL    HW298371   4.851   2.860   0.381
65492SOL     OW98372   9.013   0.248   6.220
65492SOL    HW198373   8.992   0.255   6.313
65492SOL    HW298374   9.053   0.161   6.211
65493SOL     OW98375  14.274   9.757  11.050
65493SOL    HW198376  14.313   9.775  11.135
65493SOL    HW298377  14.259   9.662  11.050
65494SOL     OW98378   7.125  12.074   7.719
65494SOL    HW198379   7.146  11.995   7.669
65494SOL    HW298380   7.075  12.129   7.658
65495SOL     OW98381   4.386   9.833   4.325
65495SOL    HW198382   4.419   9.801   4.241
65495SOL    HW298383   4.307   9.782   4.341
65496SOL     OW98384   6.321   4.786  13.208
65496SOL    HW198385   6.334   4.879  13.228
65496SOL    HW298386   6.397   4.743  13.247
65497SOL     OW98387  13.089   3.538  12.781
65497SOL    HW198388  13.049   3.490  12.853
65497SOL    HW298389  13.180   3.509  12.780
65498SOL     OW98390   2.901   2.782   5.691
65498SOL    HW198391   2.991   2.797   5.720
65498SOL    HW298392   2.910   2.754   5.599
65499SOL     OW98393   3.385   7.142   4.176
65499SOL    HW198394   3.453   7.161   4.241
65499SOL    HW298395   3.429   7.152   4.091
65500SOL     OW98396  12.517   4.125  13.179
65500SOL    HW198397  12.429   4.159  13.165
65500SOL    HW298398  12.526   4.054  13.116
65501SOL     OW98399  14.232   0.880   9.170
65501SOL    HW198400  14.171   0.813   9.202
65501SOL    HW298401  14.200   0.901   9.082
65502SOL     OW98402   4.914   0.637  12.063
65502SOL    HW198403   4.845   0.704  12.053
65502SOL    HW298404   4.990   0.686  12.095
65503SOL     OW98405   9.504  14.772  12.327
65503SOL    HW198406   9.408  14.768  12.336
65503SOL    HW298407   9.537  14.723  12.402
65504SOL     OW98408  10.667   9.754   5.675
65504SOL    HW198409  10.719   9.674   5.670
65504SOL    HW298410  10.687   9.790   5.761
65505SOL     OW98411   3.432   0.679   9.213
65505SOL    HW198412   3.498   0.653   9.148
65505SOL    HW298413   3.349   0.650   9.176
65506SOL     OW98414   4.334   6.513  11.301
65506SOL    HW198415   4.320   6.601  11.266
65506SOL    HW298416   4.427   6.497  11.290
65507SOL     OW98417  13.760  12.140   9.239
65507SOL    HW198418  13.704  12.119   9.164
65507SOL    HW298419  13.826  12.199   9.204
65508SOL     OW98420  14.719   3.526  12.496
65508SOL    HW198421  14.773   3.597  12.464
65508SOL    HW298422  14.686   3.557  12.581
65509SOL     OW98423   6.697   7.309  12.885
65509SOL    HW198424   6.707   7.258  12.805
65509SOL    HW298425   6.611   7.351  12.877
65510SOL     OW98426   5.551   8.669   8.187
65510SOL    HW198427   5.576   8.753   8.148
65510SOL    HW298428   5.484   8.634   8.128
65511SOL     OW98429  11.011   4.459   1.620
65511SOL    HW198430  10.936   4.514   1.644
65511SOL    HW298431  11.003   4.382   1.677
65512SOL     OW98432   2.921  10.377  13.284
65512SOL    HW198433   2.972  10.447  13.244
65512SOL    HW298434   2.838  10.418  13.307
65513SOL     OW98435   8.981   7.365  14.230
65513SOL    HW198436   8.948   7.428  14.294
65513SOL    HW298437   8.980   7.281  14.275
65514SOL     OW98438  13.054   2.697   4.922
65514SOL    HW198439  13.073   2.654   5.005
65514SOL    HW298440  12.970   2.660   4.895
65515SOL     OW98441   2.583   5.012   3.997
65515SOL    HW198442   2.512   4.956   3.965
65515SOL    HW298443   2.617   4.964   4.073
65516SOL     OW98444  10.391  14.343  14.488
65516SOL    HW198445  10.436  14.286  14.551
65516SOL    HW298446  10.307  14.300  14.472
65517SOL     OW98447   6.824  10.783  11.875
65517SOL    HW198448   6.827  10.832  11.793
65517SOL    HW298449   6.792  10.846  11.939
65518SOL     OW98450   6.360  10.235  11.395
65518SOL    HW198451   6.418  10.302  11.359
65518SOL    HW298452   6.416  10.158  11.405
65519SOL     OW98453   4.572   4.639   1.061
65519SOL    HW198454   4.647   4.606   1.110
65519SOL    HW298455   4.605   4.655   0.973
65520SOL     OW98456   6.398   9.912   8.084
65520SOL    HW198457   6.455   9.986   8.104
65520SOL    HW298458   6.458   9.839   8.069
65521SOL     OW98459   6.028   6.753  10.455
65521SOL    HW198460   5.956   6.798  10.497
65521SOL    HW298461   6.036   6.794  10.369
65522SOL     OW98462   3.254   7.599  12.118
65522SOL    HW198463   3.248   7.546  12.198
65522SOL    HW298464   3.348   7.611  12.104
65523SOL     OW98465  13.394   3.344   4.539
65523SOL    HW198466  13.485   3.373   4.539
65523SOL    HW298467  13.398   3.251   4.561
65524SOL     OW98468  11.633   0.342   4.122
65524SOL    HW198469  11.555   0.350   4.066
65524SOL    HW298470  11.606   0.379   4.206
65525SOL     OW98471   5.113   4.936   6.376
65525SOL    HW198472   5.143   4.886   6.300
65525SOL    HW298473   5.019   4.948   6.361
65526SOL     OW98474   0.386  10.566  12.691
65526SOL    HW198475   0.325  10.632  12.725
65526SOL    HW298476   0.459  10.567  12.753
65527SOL     OW98477  10.606   4.477   2.142
65527SOL    HW198478  10.634   4.495   2.232
65527SOL    HW298479  10.538   4.411   2.150
65528SOL     OW98480   0.376  14.713   7.438
65528SOL    HW198481   0.286  14.731   7.465
65528SOL    HW298482   0.398  14.630   7.480
65529SOL     OW98483   5.197   5.874   6.269
65529SOL    HW198484   5.281   5.911   6.241
65529SOL    HW298485   5.190   5.900   6.361
65530SOL     OW98486   6.431   8.487  14.245
65530SOL    HW198487   6.515   8.517  14.211
65530SOL    HW298488   6.378   8.567  14.250
65531SOL     OW98489   2.985   1.001  14.840
65531SOL    HW198490   3.059   1.043  14.796
65531SOL    HW298491   3.001   1.014   0.061
65532SOL     OW98492   0.503   2.465   9.600
65532SOL    HW198493   0.584   2.475   9.650
65532SOL    HW298494   0.520   2.510   9.517
65533SOL     OW98495   5.669   8.647  12.419
65533SOL    HW198496   5.737   8.714  12.425
65533SOL    HW298497   5.590   8.694  12.392
65534SOL     OW98498   9.006   4.247  11.369
65534SOL    HW198499   8.960   4.331  11.378
65534SOL    HW298500   9.098   4.271  11.359
65535SOL     OW98501  11.044   0.437  14.074
65535SOL    HW198502  11.012   0.395  14.154
65535SOL    HW298503  11.075   0.366  14.020
65536SOL     OW98504   1.327   8.613   7.329
65536SOL    HW198505   1.335   8.584   7.420
65536SOL    HW298506   1.332   8.709   7.334
65537SOL     OW98507   6.290   7.086  12.145
65537SOL    HW198508   6.253   7.018  12.201
65537SOL    HW298509   6.342   7.039  12.081
65538SOL     OW98510   2.635   8.061   5.325
65538SOL    HW198511   2.666   8.151   5.338
65538SOL    HW298512   2.585   8.065   5.244
65539SOL     OW98513   9.915   7.632  14.146
65539SOL    HW198514   9.953   7.587  14.070
65539SOL    HW298515   9.873   7.562  14.196
65540SOL     OW98516  11.677   7.499   1.820
65540SOL    HW198517  11.697   7.501   1.913
65540SOL    HW298518  11.730   7.568   1.782
65541SOL     OW98519   2.976   7.817  12.707
65541SOL    HW198520   3.003   7.847  12.620
65541SOL    HW298521   2.910   7.749  12.689
65542SOL     OW98522  11.982   6.992   0.208
65542SOL    HW198523  11.999   6.920   0.146
65542SOL    HW298524  11.886   6.999   0.209
65543SOL     OW98525   5.009  10.903   8.917
65543SOL    HW198526   4.930  10.953   8.938
65543SOL    HW298527   4.982  10.842   8.848
65544SOL     OW98528  10.373   7.895   1.189
65544SOL    HW198529  10.345   7.879   1.279
65544SOL    HW298530  10.292   7.894   1.137
65545SOL     OW98531  12.016   3.353   0.183
65545SOL    HW198532  12.102   3.384   0.155
65545SOL    HW298533  11.981   3.424   0.237
65546SOL     OW98534   2.093   2.345   4.229
65546SOL    HW198535   1.998   2.355   4.217
65546SOL    HW298536   2.103   2.325   4.322
65547SOL     OW98537  12.719   5.027   9.606
65547SOL    HW198538  12.774   5.105   9.618
65547SOL    HW298539  12.780   4.959   9.578
65548SOL     OW98540  10.356   0.996   9.402
65548SOL    HW198541  10.432   0.937   9.408
65548SOL    HW298542  10.395   1.083   9.393
65549SOL     OW98543   7.589   7.079  12.131
65549SOL    HW198544   7.632   7.091  12.046
65549SOL    HW298545   7.497   7.101  12.115
65550SOL     OW98546   7.055  13.323   5.339
65550SOL    HW198547   7.105  13.267   5.280
65550SOL    HW298548   7.005  13.262   5.393
65551SOL     OW98549  12.408   9.537   9.459
65551SOL    HW198550  12.451   9.578   9.384
65551SOL    HW298551  12.480   9.501   9.510
65552SOL     OW98552   0.538   6.158   2.196
65552SOL    HW198553   0.608   6.127   2.254
65552SOL    HW298554   0.457   6.135   2.241
65553SOL     OW98555   3.101  10.531  10.073
65553SOL    HW198556   3.092  10.523   9.978
65553SOL    HW298557   3.099  10.626  10.089
65554SOL     OW98558   6.681   9.579   7.666
65554SOL    HW198559   6.677   9.626   7.749
65554SOL    HW298560   6.610   9.515   7.672
65555SOL     OW98561   1.878  11.739   9.980
65555SOL    HW198562   1.842  11.785   9.905
65555SOL    HW298563   1.801  11.707  10.028
65556SOL     OW98564  13.773  12.407   3.259
65556SOL    HW198565  13.774  12.402   3.163
65556SOL    HW298566  13.685  12.376   3.283
65557SOL     OW98567  14.074   5.370   6.921
65557SOL    HW198568  14.012   5.299   6.903
65557SOL    HW298569  14.138   5.365   6.850
65558SOL     OW98570   9.725   5.118   3.315
65558SOL    HW198571   9.691   5.031   3.294
65558SOL    HW298572   9.688   5.176   3.249
65559SOL     OW98573  14.233   2.534  13.863
65559SOL    HW198574  14.140   2.532  13.883
65559SOL    HW298575  14.259   2.625  13.877
65560SOL     OW98576   3.913  10.261   7.833
65560SOL    HW198577   3.939  10.302   7.750
65560SOL    HW298578   3.938  10.324   7.900
65561SOL     OW98579   8.381  14.746   6.068
65561SOL    HW198580   8.332  14.821   6.101
65561SOL    HW298581   8.315  14.679   6.051
65562SOL     OW98582   8.521   8.294  10.382
65562SOL    HW198583   8.459   8.330  10.446
65562SOL    HW298584   8.465   8.262  10.311
65563SOL     OW98585   2.412   2.127   1.626
65563SOL    HW198586   2.386   2.059   1.565
65563SOL    HW298587   2.409   2.085   1.712
65564SOL     OW98588  14.545  13.239  12.630
65564SOL    HW198589  14.454  13.229  12.600
65564SOL    HW298590  14.566  13.330  12.611
65565SOL     OW98591  14.440   1.212  14.415
65565SOL    HW198592  14.414   1.303  14.400
65565SOL    HW298593  14.535   1.216  14.427
65566SOL     OW98594  12.855  10.516  13.299
65566SOL    HW198595  12.945  10.489  13.317
65566SOL    HW298596  12.858  10.548  13.208
65567SOL     OW98597   7.557  13.930   5.701
65567SOL    HW198598   7.634  13.913   5.647
65567SOL    HW298599   7.490  13.956   5.638
65568SOL     OW98600  10.899   1.066  10.768
65568SOL    HW198601  10.806   1.072  10.792
65568SOL    HW298602  10.940   1.138  10.816
65569SOL     OW98603   8.382   8.393   2.648
65569SOL    HW198604   8.290   8.372   2.628
65569SOL    HW298605   8.401   8.470   2.594
65570SOL     OW98606   1.059   3.311   8.514
65570SOL    HW198607   1.013   3.361   8.581
65570SOL    HW298608   1.017   3.225   8.515
65571SOL     OW98609   4.548   3.531   4.188
65571SOL    HW198610   4.509   3.491   4.110
65571SOL    HW298611   4.622   3.474   4.210
65572SOL     OW98612   0.168   2.040   3.590
65572SOL    HW198613   0.155   2.039   3.685
65572SOL    HW298614   0.137   2.126   3.562
65573SOL     OW98615   7.524  12.065   1.737
65573SOL    HW198616   7.588  12.001   1.705
65573SOL    HW298617   7.464  12.077   1.664
65574SOL     OW98618   6.256  10.072   5.412
65574SOL    HW198619   6.166  10.094   5.436
65574SOL    HW298620   6.253   9.978   5.393
65575SOL     OW98621  13.214  13.678  13.074
65575SOL    HW198622  13.139  13.701  13.128
65575SOL    HW298623  13.277  13.749  13.086
65576SOL     OW98624   2.990  13.807   5.642
65576SOL    HW198625   2.968  13.898   5.619
65576SOL    HW298626   3.005  13.809   5.736
65577SOL     OW98627  13.630   8.095   1.061
65577SOL    HW198628  13.652   8.015   1.108
65577SOL    HW298629  13.635   8.071   0.969
65578SOL     OW98630   8.139   2.479   1.201
65578SOL    HW198631   8.197   2.490   1.276
65578SOL    HW298632   8.130   2.384   1.191
65579SOL     OW98633  11.751  12.420   6.645
65579SOL    HW198634  11.706  12.430   6.561
65579SOL    HW298635  11.844  12.418   6.622
65580SOL     OW98636  13.752   1.506   8.889
65580SOL    HW198637  13.717   1.467   8.969
65580SOL    HW298638  13.746   1.601   8.904
65581SOL     OW98639   1.614   5.047   6.239
65581SOL    HW198640   1.553   5.003   6.180
65581SOL    HW298641   1.628   4.984   6.310
65582SOL     OW98642  13.079  13.023  13.584
65582SOL    HW198643  13.077  13.112  13.619
65582SOL    HW298644  13.149  13.024  13.518
65583SOL     OW98645   8.593  12.568  13.780
65583SOL    HW198646   8.687  12.571  13.760
65583SOL    HW298647   8.554  12.635  13.723
65584SOL     OW98648  12.935   3.528   2.968
65584SOL    HW198649  12.933   3.456   2.905
65584SOL    HW298650  12.901   3.603   2.919
65585SOL     OW98651   3.778  11.558   9.372
65585SOL    HW198652   3.732  11.605   9.442
65585SOL    HW298653   3.803  11.626   9.310
65586SOL     OW98654  12.154   6.370  10.517
65586SOL    HW198655  12.100   6.442  10.548
65586SOL    HW298656  12.157   6.308  10.590
65587SOL     OW98657  13.489   1.553   8.185
65587SOL    HW198658  13.413   1.514   8.142
65587SOL    HW298659  13.558   1.487   8.175
65588SOL     OW98660   4.320   5.483   1.446
65588SOL    HW198661   4.362   5.397   1.442
65588SOL    HW298662   4.387   5.545   1.419
65589SOL     OW98663   5.777  13.653   0.167
65589SOL    HW198664   5.742  13.587   0.227
65589SOL    HW298665   5.844  13.698   0.218
65590SOL     OW98666   0.891   4.949  14.394
65590SOL    HW198667   0.875   4.886  14.464
65590SOL    HW298668   0.981   4.932  14.366
65591SOL     OW98669   7.350   5.365  11.609
65591SOL    HW198670   7.327   5.446  11.563
65591SOL    HW298671   7.398   5.314  11.544
65592SOL     OW98672   9.202   0.395  12.427
65592SOL    HW198673   9.257   0.418  12.353
65592SOL    HW298674   9.238   0.444  12.501
65593SOL     OW98675   5.423   0.457  10.342
65593SOL    HW198676   5.462   0.498  10.419
65593SOL    HW298677   5.491   0.465  10.274
65594SOL     OW98678  14.740   8.858   0.429
65594SOL    HW198679  14.739   8.839   0.522
65594SOL    HW298680  14.652   8.834   0.399
65595SOL     OW98681   4.343   2.170  13.048
65595SOL    HW198682   4.281   2.218  12.993
65595SOL    HW298683   4.426   2.217  13.038
65596SOL     OW98684   3.395  10.712   4.134
65596SOL    HW198685   3.327  10.647   4.154
65596SOL    HW298686   3.454  10.708   4.210
65597SOL     OW98687   9.159   1.143   2.052
65597SOL    HW198688   9.186   1.218   2.105
65597SOL    HW298689   9.143   1.179   1.965
65598SOL     OW98690   4.154   6.741  13.612
65598SOL    HW198691   4.180   6.823  13.569
65598SOL    HW298692   4.128   6.684  13.541
65599SOL     OW98693   0.658   3.846  11.952
65599SOL    HW198694   0.572   3.806  11.939
65599SOL    HW298695   0.641   3.919  12.011
65600SOL     OW98696   2.430  10.448  13.916
65600SOL    HW198697   2.363  10.384  13.941
65600SOL    HW298698   2.510  10.396  13.906
65601SOL     OW98699   9.797  14.313   6.670
65601SOL    HW198700   9.850  14.368   6.727
65601SOL    HW298701   9.756  14.250   6.729
65602SOL     OW98702   5.007   2.812   0.706
65602SOL    HW198703   5.021   2.892   0.655
65602SOL    HW298704   4.962   2.842   0.785
65603SOL     OW98705   6.746   6.278   9.567
65603SOL    HW198706   6.682   6.332   9.614
65603SOL    HW298707   6.744   6.194   9.614
65604SOL     OW98708   9.486   6.567   0.012
65604SOL    HW198709   9.441   6.525   0.085
65604SOL    HW298710   9.439   6.538  14.806
65605SOL     OW98711   1.688   1.575   3.273
65605SOL    HW198712   1.783   1.566   3.268
65605SOL    HW298713   1.674   1.654   3.325
65606SOL     OW98714   1.673   3.399   2.339
65606SOL    HW198715   1.658   3.493   2.345
65606SOL    HW298716   1.590   3.362   2.309
65607SOL     OW98717   8.506  14.678   0.850
65607SOL    HW198718   8.476  14.658   0.761
65607SOL    HW298719   8.595  14.710   0.838
65608SOL     OW98720   3.189  11.421  10.756
65608SOL    HW198721   3.133  11.354  10.717
65608SOL    HW298722   3.184  11.403  10.850
65609SOL     OW98723  13.495   9.046   7.647
65609SOL    HW198724  13.452   9.017   7.567
65609SOL    HW298725  13.557   9.113   7.618
65610SOL     OW98726  11.457   4.071  11.643
65610SOL    HW198727  11.414   4.005  11.697
65610SOL    HW298728  11.520   4.022  11.590
65611SOL     OW98729   5.297   6.453   5.011
65611SOL    HW198730   5.386   6.421   5.027
65611SOL    HW298731   5.305   6.548   5.010
65612SOL     OW98732  13.137   1.076   3.730
65612SOL    HW198733  13.044   1.099   3.738
65612SOL    HW298734  13.184   1.153   3.762
65613SOL     OW98735  10.777   4.107   1.866
65613SOL    HW198736  10.755   4.081   1.955
65613SOL    HW298737  10.729   4.045   1.811
65614SOL     OW98738   3.221   9.860   1.606
65614SOL    HW198739   3.143   9.885   1.557
65614SOL    HW298740   3.187   9.834   1.692
65615SOL     OW98741   2.025   5.411   2.434
65615SOL    HW198742   1.930   5.413   2.431
65615SOL    HW298743   2.048   5.454   2.517
65616SOL     OW98744   3.029   7.725   4.781
65616SOL    HW198745   3.017   7.719   4.876
65616SOL    HW298746   3.118   7.693   4.766
65617SOL     OW98747  13.833   5.636  12.223
65617SOL    HW198748  13.744   5.606  12.206
65617SOL    HW298749  13.823   5.723  12.260
65618SOL     OW98750   8.629   5.145   7.750
65618SOL    HW198751   8.609   5.052   7.761
65618SOL    HW298752   8.554   5.190   7.790
65619SOL     OW98753   3.242   6.509   6.946
65619SOL    HW198754   3.232   6.415   6.929
65619SOL    HW298755   3.161   6.533   6.991
65620SOL     OW98756   0.737   2.482   3.771
65620SOL    HW198757   0.808   2.535   3.809
65620SOL    HW298758   0.734   2.404   3.826
65621SOL     OW98759  11.306  12.131  14.804
65621SOL    HW198760  11.277  12.070  14.872
65621SOL    HW298761  11.394  12.101  14.781
65622SOL     OW98762   4.038   0.480  14.083
65622SOL    HW198763   4.124   0.454  14.116
65622SOL    HW298764   4.046   0.575  14.068
65623SOL     OW98765   1.523   2.213   8.927
65623SOL    HW198766   1.589   2.160   8.882
65623SOL    HW298767   1.570   2.254   8.999
65624SOL     OW98768   8.709   4.413   6.546
65624SOL    HW198769   8.696   4.506   6.566
65624SOL    HW298770   8.800   4.396   6.569
65625SOL     OW98771  13.091  11.390   3.490
65625SOL    HW198772  13.001  11.370   3.513
65625SOL    HW298773  13.137  11.306   3.501
65626SOL     OW98774  13.871   2.840   8.192
65626SOL    HW198775  13.842   2.864   8.280
65626SOL    HW298776  13.860   2.745   8.188
65627SOL     OW98777  10.901   8.237  10.022
65627SOL    HW198778  10.975   8.214   9.966
65627SOL    HW298779  10.894   8.164  10.083
65628SOL     OW98780  12.792   6.145   1.343
65628SOL    HW198781  12.713   6.197   1.332
65628SOL    HW298782  12.805   6.141   1.438
65629SOL     OW98783  13.447   7.669   6.264
65629SOL    HW198784  13.369   7.662   6.208
65629SOL    HW298785  13.456   7.762   6.281
65630SOL     OW98786   0.584   8.437  12.983
65630SOL    HW198787   0.658   8.434  13.044
65630SOL    HW298788   0.624   8.454  12.898
65631SOL     OW98789  14.779   3.230   5.927
65631SOL    HW198790   0.002   3.227   5.927
65631SOL    HW298791  14.757   3.308   5.876
65632SOL     OW98792   4.284   6.953   1.507
65632SOL    HW198793   4.346   6.884   1.532
65632SOL    HW298794   4.336   7.034   1.509
65633SOL     OW98795   3.620   5.973   6.908
65633SOL    HW198796   3.574   6.053   6.884
65633SOL    HW298797   3.659   5.942   6.826
65634SOL     OW98798   6.994   3.066   5.218
65634SOL    HW198799   6.947   3.062   5.135
65634SOL    HW298800   6.935   3.114   5.277
65635SOL     OW98801   2.684   3.703  13.076
65635SOL    HW198802   2.633   3.767  13.026
65635SOL    HW298803   2.642   3.702  13.162
65636SOL     OW98804  13.063   7.439  13.562
65636SOL    HW198805  13.058   7.445  13.657
65636SOL    HW298806  12.977   7.405  13.536
65637SOL     OW98807  13.334   8.475   8.794
65637SOL    HW198808  13.306   8.511   8.710
65637SOL    HW298809  13.355   8.551   8.847
65638SOL     OW98810   4.235   3.185   8.256
65638SOL    HW198811   4.227   3.277   8.281
65638SOL    HW298812   4.161   3.142   8.297
65639SOL     OW98813   2.856   9.751   8.477
65639SOL    HW198814   2.822   9.665   8.503
65639SOL    HW298815   2.910   9.734   8.400
65640SOL     OW98816  11.490   3.385   9.374
65640SOL    HW198817  11.472   3.302   9.418
65640SOL    HW298818  11.454   3.452   9.434
65641SOL     OW98819  13.712   1.612   0.088
65641SOL    HW198820  13.699   1.522   0.117
65641SOL    HW298821  13.799   1.635   0.120
65642SOL     OW98822   7.627   9.106   3.034
65642SOL    HW198823   7.692   9.124   2.966
65642SOL    HW298824   7.679   9.094   3.114
65643SOL     OW98825  13.743   1.894  10.368
65643SOL    HW198826  13.722   1.834  10.296
65643SOL    HW298827  13.838   1.899  10.368
65644SOL     OW98828   2.287  10.818   3.596
65644SOL    HW198829   2.333  10.781   3.671
65644SOL    HW298830   2.271  10.744   3.537
65645SOL     OW98831   1.274   3.139  11.405
65645SOL    HW198832   1.363   3.169  11.419
65645SOL    HW298833   1.225   3.218  11.384
65646SOL     OW98834   4.760   6.208  14.207
65646SOL    HW198835   4.847   6.243  14.189
65646SOL    HW298836   4.701   6.283  14.198
65647SOL     OW98837   9.936   9.685   1.066
65647SOL    HW198838   9.859   9.741   1.078
65647SOL    HW298839   9.932   9.623   1.139
65648SOL     OW98840   1.127  12.186  11.614
65648SOL    HW198841   1.187  12.151  11.680
65648SOL    HW298842   1.121  12.280  11.634
65649SOL     OW98843  11.105   9.316   6.256
65649SOL    HW198844  11.029   9.361   6.291
65649SOL    HW298845  11.165   9.307   6.330
65650SOL     OW98846   4.256  10.128  11.969
65650SOL    HW198847   4.240  10.119  11.875
65650SOL    HW298848   4.250  10.039  12.003
65651SOL     OW98849   7.938   0.068   4.662
65651SOL    HW198850   7.935   0.077   4.757
65651SOL    HW298851   7.848   0.082   4.633
65652SOL     OW98852   1.595   4.597  13.673
65652SOL    HW198853   1.542   4.677  13.672
65652SOL    HW298854   1.559   4.543  13.603
65653SOL     OW98855   5.148  14.719  11.173
65653SOL    HW198856   5.138  14.625  11.155
65653SOL    HW298857   5.161  14.724  11.268
65654SOL     OW98858   2.414   1.578   4.466
65654SOL    HW198859   2.358   1.505   4.492
65654SOL    HW298860   2.356   1.655   4.469
65655SOL     OW98861   3.203   6.675   4.194
65655SOL    HW198862   3.248   6.607   4.245
65655SOL    HW298863   3.244   6.757   4.221
65656SOL     OW98864   4.843   9.143   5.817
65656SOL    HW198865   4.810   9.195   5.744
65656SOL    HW298866   4.827   9.197   5.894
65657SOL     OW98867  14.863  14.219   9.575
65657SOL    HW198868   0.062  14.175   9.528
65657SOL    HW298869  14.810  14.148   9.611
65658SOL     OW98870   4.276  12.821   6.310
65658SOL    HW198871   4.181  12.826   6.301
65658SOL    HW298872   4.302  12.908   6.339
65659SOL     OW98873   9.317  14.601   9.167
65659SOL    HW198874   9.280  14.668   9.223
65659SOL    HW298875   9.368  14.649   9.102
65660SOL     OW98876   7.846   4.130  10.138
65660SOL    HW198877   7.882   4.067  10.201
65660SOL    HW298878   7.754   4.106  10.131
65661SOL     OW98879   6.254   4.748   0.811
65661SOL    HW198880   6.196   4.789   0.747
65661SOL    HW298881   6.225   4.783   0.896
65662SOL     OW98882   5.887   5.227   0.164
65662SOL    HW198883   5.897   5.269   0.078
65662SOL    HW298884   5.944   5.151   0.159
65663SOL     OW98885   8.896  10.415   1.177
65663SOL    HW198886   8.872  10.476   1.108
65663SOL    HW298887   8.980  10.448   1.210
65664SOL     OW98888   0.068   7.527  13.706
65664SOL    HW198889   0.035   7.447  13.746
65664SOL    HW298890   0.142   7.553  13.761
65665SOL     OW98891   0.822   3.489   8.356
65665SOL    HW198892   0.741   3.463   8.398
65665SOL    HW298893   0.804   3.484   8.262
65666SOL     OW98894   2.566   8.315   3.793
65666SOL    HW198895   2.584   8.231   3.835
65666SOL    HW298896   2.534   8.291   3.706
65667SOL     OW98897   0.543   3.835  12.781
65667SOL    HW198898   0.463   3.850  12.730
65667SOL    HW298899   0.521   3.863  12.870
65668SOL     OW98900   1.621   7.423   8.797
65668SOL    HW198901   1.632   7.518   8.788
65668SOL    HW298902   1.554   7.414   8.865
65669SOL     OW98903   1.186   4.676   6.228
65669SOL    HW198904   1.245   4.722   6.288
65669SOL    HW298905   1.243   4.638   6.162
65670SOL     OW98906   4.302  11.974   1.270
65670SOL    HW198907   4.256  11.943   1.348
65670SOL    HW298908   4.255  11.934   1.197
65671SOL     OW98909   4.404  12.975   4.970
65671SOL    HW198910   4.398  13.071   4.967
65671SOL    HW298911   4.414  12.954   5.063
65672SOL     OW98912   9.656   1.798   5.588
65672SOL    HW198913   9.579   1.746   5.566
65672SOL    HW298914   9.620   1.881   5.620
65673SOL     OW98915  10.518   2.764   1.381
65673SOL    HW198916  10.434   2.788   1.343
65673SOL    HW298917  10.581   2.776   1.309
65674SOL     OW98918   4.308   8.881  14.124
65674SOL    HW198919   4.334   8.902  14.035
65674SOL    HW298920   4.373   8.927  14.179
65675SOL     OW98921   7.297   7.753   8.850
65675SOL    HW198922   7.202   7.763   8.857
65675SOL    HW298923   7.309   7.703   8.769
65676SOL     OW98924   7.711   2.326   6.830
65676SOL    HW198925   7.618   2.339   6.810
65676SOL    HW298926   7.715   2.240   6.872
65677SOL     OW98927  13.743   3.963  10.306
65677SOL    HW198928  13.665   3.914  10.332
65677SOL    HW298929  13.719   4.006  10.225
65678SOL     OW98930   3.584   1.371  12.350
65678SOL    HW198931   3.577   1.330  12.264
65678SOL    HW298932   3.514   1.437  12.351
65679SOL     OW98933  14.032   0.145   4.424
65679SOL    HW198934  13.967   0.207   4.391
65679SOL    HW298935  14.115   0.192   4.416
65680SOL     OW98936  14.526   6.615  12.810
65680SOL    HW198937  14.534   6.582  12.720
65680SOL    HW298938  14.500   6.538  12.861
65681SOL     OW98939  14.802  10.681   6.526
65681SOL    HW198940  14.742  10.715   6.459
65681SOL    HW298941  14.835  10.760   6.570
65682SOL     OW98942   2.232   0.348  13.315
65682SOL    HW198943   2.185   0.430  13.303
65682SOL    HW298944   2.299   0.369  13.380
65683SOL     OW98945   1.084   6.869   5.367
65683SOL    HW198946   1.129   6.804   5.420
65683SOL    HW298947   1.118   6.855   5.278
65684SOL     OW98948   4.664   0.649   9.578
65684SOL    HW198949   4.737   0.659   9.639
65684SOL    HW298950   4.703   0.612   9.499
65685SOL     OW98951  11.649   1.638   4.372
65685SOL    HW198952  11.594   1.605   4.301
65685SOL    HW298953  11.736   1.645   4.333
65686SOL     OW98954  10.822  14.773  12.330
65686SOL    HW198955  10.867  14.856  12.346
65686SOL    HW298956  10.759  14.792  12.261
65687SOL     OW98957  14.244  12.388  10.822
65687SOL    HW198958  14.288  12.456  10.771
65687SOL    HW298959  14.173  12.434  10.866
65688SOL     OW98960  14.513  12.619   0.383
65688SOL    HW198961  14.508  12.614   0.478
65688SOL    HW298962  14.498  12.529   0.353
65689SOL     OW98963  13.342   1.843   6.302
65689SOL    HW198964  13.280   1.814   6.369
65689SOL    HW298965  13.419   1.787   6.314
65690SOL     OW98966  11.371   5.543   6.446
65690SOL    HW198967  11.333   5.611   6.501
65690SOL    HW298968  11.395   5.472   6.506
65691SOL     OW98969   9.762   6.650   3.353
65691SOL    HW198970   9.674   6.653   3.391
65691SOL    HW298971   9.763   6.721   3.289
65692SOL     OW98972  10.021   5.157   8.888
65692SOL    HW198973   9.957   5.087   8.878
65692SOL    HW298974  10.036   5.189   8.799
65693SOL     OW98975   4.476   8.553   3.550
65693SOL    HW198976   4.486   8.522   3.460
65693SOL    HW298977   4.539   8.501   3.600
65694SOL     OW98978   5.950   1.811  11.965
65694SOL    HW198979   5.877   1.782  11.910
65694SOL    HW298980   5.914   1.881  12.019
65695SOL     OW98981  13.251   4.209   8.135
65695SOL    HW198982  13.269   4.196   8.042
65695SOL    HW298983  13.164   4.250   8.137
65696SOL     OW98984  14.340  14.326  10.587
65696SOL    HW198985  14.413  14.269  10.564
65696SOL    HW298986  14.355  14.406  10.536
65697SOL     OW98987   7.381   9.704  14.159
65697SOL    HW198988   7.467   9.728  14.194
65697SOL    HW298989   7.401   9.638  14.092
65698SOL     OW98990   5.981  14.526  14.096
65698SOL    HW198991   5.931  14.475  14.033
65698SOL    HW298992   6.020  14.462  14.155
65699SOL     OW98993   3.617   9.783   4.810
65699SOL    HW198994   3.711   9.800   4.797
65699SOL    HW298995   3.607   9.690   4.787
65700SOL     OW98996   8.491   2.043   0.485
65700SOL    HW198997   8.503   2.062   0.392
65700SOL    HW298998   8.510   2.126   0.530
65701SOL     OW98999  12.048   1.125  12.957
65701SOL    HW199000  12.078   1.060  13.021
65701SOL    HW299001  12.032   1.204  13.008
65702SOL     OW99002   2.206   6.257  12.234
65702SOL    HW199003   2.281   6.317  12.240
65702SOL    HW299004   2.131   6.311  12.259
65703SOL     OW99005  14.676   5.095  10.912
65703SOL    HW199006  14.624   5.147  10.974
65703SOL    HW299007  14.749   5.152  10.889
65704SOL     OW99008   7.272   4.093  11.308
65704SOL    HW199009   7.322   4.115  11.229
65704SOL    HW299010   7.312   4.012  11.340
65705SOL     OW99011  11.609  13.052   0.377
65705SOL    HW199012  11.589  13.102   0.298
65705SOL    HW299013  11.525  13.041   0.421
65706SOL     OW99014   1.250   2.496   4.539
65706SOL    HW199015   1.269   2.448   4.458
65706SOL    HW299016   1.331   2.543   4.559
65707SOL     OW99017   1.680   5.364  10.404
65707SOL    HW199018   1.713   5.388  10.317
65707SOL    HW299019   1.609   5.425  10.420
65708SOL     OW99020  11.723   3.774   4.662
65708SOL    HW199021  11.660   3.779   4.589
65708SOL    HW299022  11.750   3.865   4.676
65709SOL     OW99023   7.973   2.599  11.020
65709SOL    HW199024   7.996   2.507  11.030
65709SOL    HW299025   7.895   2.610  11.075
65710SOL     OW99026  11.838  11.544  10.369
65710SOL    HW199027  11.746  11.523  10.387
65710SOL    HW299028  11.840  11.563  10.275
65711SOL     OW99029   5.786  12.363  13.347
65711SOL    HW199030   5.824  12.337  13.263
65711SOL    HW299031   5.716  12.424  13.323
65712SOL     OW99032   7.411   6.473   1.019
65712SOL    HW199033   7.348   6.413   0.980
65712SOL    HW299034   7.365   6.557   1.021
65713SOL     OW99035   7.660   1.678   5.431
65713SOL    HW199036   7.606   1.600   5.417
65713SOL    HW299037   7.748   1.651   5.404
65714SOL     OW99038   6.598   4.815   5.815
65714SOL    HW199039   6.674   4.819   5.756
65714SOL    HW299040   6.562   4.904   5.813
65715SOL     OW99041   0.295   0.685  11.099
65715SOL    HW199042   0.382   0.724  11.102
65715SOL    HW299043   0.311   0.591  11.095
65716SOL     OW99044  13.746   0.985  12.573
65716SOL    HW199045  13.790   1.049  12.518
65716SOL    HW299046  13.653   0.999  12.556
65717SOL     OW99047   3.421   5.766   1.794
65717SOL    HW199048   3.338   5.799   1.828
65717SOL    HW299049   3.415   5.780   1.699
65718SOL     OW99050  11.846   6.127   2.865
65718SOL    HW199051  11.751   6.132   2.879
65718SOL    HW299052  11.878   6.070   2.934
65719SOL     OW99053  14.258   4.441   2.707
65719SOL    HW199054  14.237   4.369   2.767
65719SOL    HW299055  14.340   4.477   2.742
65720SOL     OW99056   5.247   2.284  14.730
65720SOL    HW199057   5.249   2.275  14.635
65720SOL    HW299058   5.230   2.195  14.762
65721SOL     OW99059  11.990   8.804   7.812
65721SOL    HW199060  11.895   8.801   7.804
65721SOL    HW299061  12.009   8.746   7.886
65722SOL     OW99062   6.076  12.818   0.922
65722SOL    HW199063   6.041  12.830   0.834
65722SOL    HW299064   6.091  12.907   0.955
65723SOL     OW99065  14.080   1.371  14.212
65723SOL    HW199066  13.995   1.415  14.203
65723SOL    HW299067  14.124   1.386  14.128
65724SOL     OW99068   3.800   6.697  14.315
65724SOL    HW199069   3.826   6.609  14.343
65724SOL    HW299070   3.754   6.733  14.391
65725SOL     OW99071   5.190   0.997   6.777
65725SOL    HW199072   5.189   0.979   6.683
65725SOL    HW299073   5.157   1.087   6.785
65726SOL     OW99074   5.751  10.259   9.028
65726SOL    HW199075   5.828  10.281   8.975
65726SOL    HW299076   5.733  10.338   9.078
65727SOL     OW99077  12.443   8.419  13.245
65727SOL    HW199078  12.448   8.447  13.337
65727SOL    HW299079  12.412   8.496  13.198
65728SOL     OW99080  12.859  10.960   7.497
65728SOL    HW199081  12.922  10.959   7.426
65728SOL    HW299082  12.862  11.050   7.530
65729SOL     OW99083  10.482   2.142  13.539
65729SOL    HW199084  10.532   2.119  13.461
65729SOL    HW299085  10.392   2.150  13.509
65730SOL     OW99086   8.754  11.340   9.727
65730SOL    HW199087   8.707  11.422   9.738
65730SOL    HW299088   8.755  11.326   9.632
65731SOL     OW99089   7.011   8.390   1.700
65731SOL    HW199090   7.092   8.442   1.708
65731SOL    HW299091   7.041   8.300   1.693
65732SOL     OW99092  13.284   8.943   6.164
65732SOL    HW199093  13.358   8.915   6.219
65732SOL    HW299094  13.242   9.012   6.214
65733SOL     OW99095   9.579  14.370  13.684
65733SOL    HW199096   9.659  14.367  13.737
65733SOL    HW299097   9.554  14.278  13.674
65734SOL     OW99098  10.131   7.975   5.116
65734SOL    HW199099  10.141   7.893   5.067
65734SOL    HW299100  10.056   8.019   5.075
65735SOL     OW99101   0.244  12.915   0.750
65735SOL    HW199102   0.293  12.845   0.791
65735SOL    HW299103   0.194  12.956   0.821
65736SOL     OW99104   9.216   5.070  10.880
65736SOL    HW199105   9.192   5.147  10.932
65736SOL    HW299106   9.188   4.996  10.933
65737SOL     OW99107   8.734   6.227   6.830
65737SOL    HW199108   8.658   6.200   6.778
65737SOL    HW299109   8.722   6.322   6.842
65738SOL     OW99110   4.510  12.738  11.529
65738SOL    HW199111   4.503  12.751  11.434
65738SOL    HW299112   4.425  12.702  11.554
65739SOL     OW99113  13.386  14.546   8.708
65739SOL    HW199114  13.417  14.616   8.766
65739SOL    HW299115  13.360  14.592   8.628
65740SOL     OW99116   7.511  14.202   5.132
65740SOL    HW199117   7.533  14.140   5.062
65740SOL    HW299118   7.415  14.210   5.127
65741SOL     OW99119   3.291  14.422   0.476
65741SOL    HW199120   3.255  14.412   0.388
65741SOL    HW299121   3.384  14.402   0.467
65742SOL     OW99122  12.754   6.828   0.438
65742SOL    HW199123  12.721   6.753   0.488
65742SOL    HW299124  12.841   6.800   0.408
65743SOL     OW99125   3.914   2.017   4.531
65743SOL    HW199126   3.952   1.929   4.522
65743SOL    HW299127   3.964   2.058   4.601
65744SOL     OW99128   2.117  14.309   6.478
65744SOL    HW199129   2.192  14.357   6.442
65744SOL    HW299130   2.133  14.307   6.573
65745SOL     OW99131   1.186   1.060   5.811
65745SOL    HW199132   1.175   1.053   5.717
65745SOL    HW299133   1.226   1.146   5.825
65746SOL     OW99134   9.244  10.043  12.710
65746SOL    HW199135   9.335  10.070  12.699
65746SOL    HW299136   9.231   9.975  12.644
65747SOL     OW99137  12.574   8.616   4.745
65747SOL    HW199138  12.608   8.608   4.834
65747SOL    HW299139  12.652   8.611   4.689
65748SOL     OW99140  12.350   3.387   9.645
65748SOL    HW199141  12.266   3.352   9.616
65748SOL    HW299142  12.406   3.381   9.567
65749SOL     OW99143   0.082   2.006  13.304
65749SOL    HW199144   0.050   1.930  13.353
65749SOL    HW299145   0.103   1.971  13.217
65750SOL     OW99146   2.209   8.970   2.205
65750SOL    HW199147   2.135   8.925   2.246
65750SOL    HW299148   2.216   9.053   2.252
65751SOL     OW99149   8.664  14.574   2.636
65751SOL    HW199150   8.722  14.502   2.613
65751SOL    HW299151   8.673  14.584   2.731
65752SOL     OW99152   8.760   5.226   1.775
65752SOL    HW199153   8.667   5.212   1.757
65752SOL    HW299154   8.775   5.318   1.753
65753SOL     OW99155   0.433  13.772   8.968
65753SOL    HW199156   0.504  13.731   8.919
65753SOL    HW299157   0.469  13.855   8.998
65754SOL     OW99158  12.112   4.979   0.088
65754SOL    HW199159  12.086   5.065   0.055
65754SOL    HW299160  12.133   4.995   0.180
65755SOL     OW99161   9.117   3.108  11.202
65755SOL    HW199162   9.187   3.096  11.265
65755SOL    HW299163   9.088   3.199  11.214
65756SOL     OW99164   8.180  13.847  13.375
65756SOL    HW199165   8.145  13.786  13.310
65756SOL    HW299166   8.143  13.817  13.458
65757SOL     OW99167   4.629   7.847   5.155
65757SOL    HW199168   4.606   7.899   5.232
65757SOL    HW299169   4.550   7.845   5.102
65758SOL     OW99170  11.567  10.579   2.631
65758SOL    HW199171  11.593  10.487   2.627
65758SOL    HW299172  11.625  10.617   2.697
65759SOL     OW99173   5.432  11.704  11.255
65759SOL    HW199174   5.518  11.713  11.216
65759SOL    HW299175   5.406  11.614  11.235
65760SOL     OW99176  11.923   6.130   5.789
65760SOL    HW199177  11.855   6.086   5.840
65760SOL    HW299178  11.885   6.215   5.766
65761SOL     OW99179   3.399   2.789   1.589
65761SOL    HW199180   3.304   2.804   1.596
65761SOL    HW299181   3.438   2.867   1.629
65762SOL     OW99182   3.534   2.751   4.377
65762SOL    HW199183   3.522   2.841   4.347
65762SOL    HW299184   3.447   2.712   4.371
65763SOL     OW99185  12.344   3.512   9.096
65763SOL    HW199186  12.249   3.523   9.091
65763SOL    HW299187  12.356   3.421   9.123
65764SOL     OW99188   6.079   4.584   8.929
65764SOL    HW199189   6.045   4.598   8.841
65764SOL    HW299190   6.001   4.576   8.984
65765SOL     OW99191   1.276   0.519   4.876
65765SOL    HW199192   1.327   0.501   4.955
65765SOL    HW299193   1.340   0.516   4.805
65766SOL     OW99194   3.954  11.222  12.905
65766SOL    HW199195   4.042  11.258  12.897
65766SOL    HW299196   3.967  11.127  12.902
65767SOL     OW99197  10.113   0.969   2.183
65767SOL    HW199198  10.091   1.018   2.104
65767SOL    HW299199  10.095   1.030   2.254
65768SOL     OW99200   5.052   7.775  12.350
65768SOL    HW199201   4.977   7.808  12.300
65768SOL    HW299202   5.126   7.828  12.321
65769SOL     OW99203   0.514   8.259  11.706
65769SOL    HW199204   0.450   8.310  11.755
65769SOL    HW299205   0.568   8.218  11.774
65770SOL     OW99206  12.905   7.930  10.006
65770SOL    HW199207  12.850   7.905  10.080
65770SOL    HW299208  12.876   8.019   9.985
65771SOL     OW99209   7.886   4.503  14.793
65771SOL    HW199210   7.975   4.471  14.805
65771SOL    HW299211   7.850   4.450  14.722
65772SOL     OW99212   3.044   0.425   5.777
65772SOL    HW199213   3.052   0.480   5.855
65772SOL    HW299214   3.132   0.422   5.741
65773SOL     OW99215   1.602   7.383   1.476
65773SOL    HW199216   1.619   7.297   1.514
65773SOL    HW299217   1.519   7.411   1.515
65774SOL     OW99218  12.096   5.771   2.633
65774SOL    HW199219  12.080   5.689   2.587
65774SOL    HW299220  12.166   5.813   2.583
65775SOL     OW99221   9.838  13.949   7.831
65775SOL    HW199222   9.927  13.976   7.809
65775SOL    HW299223   9.816  13.882   7.766
65776SOL     OW99224   1.472  10.228   9.289
65776SOL    HW199225   1.416  10.163   9.246
65776SOL    HW299226   1.495  10.189   9.373
65777SOL     OW99227   9.059  14.228  10.761
65777SOL    HW199228   8.980  14.227  10.707
65777SOL    HW299229   9.045  14.300  10.822
65778SOL     OW99230   8.075  14.571  13.460
65778SOL    HW199231   8.041  14.499  13.405
65778SOL    HW299232   8.049  14.547  13.549
65779SOL     OW99233   4.183   1.549   8.094
65779SOL    HW199234   4.239   1.620   8.063
65779SOL    HW299235   4.108   1.593   8.133
65780SOL     OW99236   9.186  12.454  12.869
65780SOL    HW199237   9.193  12.529  12.928
65780SOL    HW299238   9.177  12.493  12.782
65781SOL     OW99239  14.364  11.820   2.135
65781SOL    HW199240  14.317  11.798   2.215
65781SOL    HW299241  14.330  11.758   2.070
65782SOL     OW99242  12.245  14.341  10.336
65782SOL    HW199243  12.181  14.339  10.265
65782SOL    HW299244  12.324  14.377  10.295
65783SOL     OW99245   1.598  13.828   9.866
65783SOL    HW199246   1.664  13.773   9.825
65783SOL    HW299247   1.529  13.835   9.800
65784SOL     OW99248   2.360   3.296   9.021
65784SOL    HW199249   2.328   3.213   8.986
65784SOL    HW299250   2.315   3.363   8.970
65785SOL     OW99251  14.654   3.175  13.879
65785SOL    HW199252  14.615   3.194  13.964
65785SOL    HW299253  14.631   3.083  13.862
65786SOL     OW99254   0.934   2.164   1.059
65786SOL    HW199255   1.022   2.167   1.023
65786SOL    HW299256   0.946   2.144   1.152
65787SOL     OW99257   9.152   2.993   2.030
65787SOL    HW199258   9.147   3.070   2.087
65787SOL    HW299259   9.061   2.971   2.012
65788SOL     OW99260   9.459   1.185   5.307
65788SOL    HW199261   9.469   1.255   5.372
65788SOL    HW299262   9.459   1.105   5.359
65789SOL     OW99263  12.827   2.588   0.866
65789SOL    HW199264  12.821   2.493   0.855
65789SOL    HW299265  12.780   2.605   0.947
65790SOL     OW99266   4.100   2.695   6.189
65790SOL    HW199267   4.010   2.719   6.166
65790SOL    HW299268   4.111   2.607   6.153
65791SOL     OW99269   0.734   8.918   1.626
65791SOL    HW199270   0.732   8.828   1.660
65791SOL    HW299271   0.827   8.940   1.623
65792SOL     OW99272  14.374   6.467  14.119
65792SOL    HW199273  14.371   6.553  14.076
65792SOL    HW299274  14.285   6.452  14.151
65793SOL     OW99275   7.833   0.145   8.877
65793SOL    HW199276   7.872   0.156   8.790
65793SOL    HW299277   7.874   0.214   8.930
65794SOL     OW99278   7.089   1.920   7.519
65794SOL    HW199279   7.090   1.973   7.440
65794SOL    HW299280   7.062   1.980   7.588
65795SOL     OW99281   1.901  12.148   6.327
65795SOL    HW199282   1.884  12.102   6.245
65795SOL    HW299283   1.832  12.214   6.332
65796SOL     OW99284  14.247   1.611   0.224
65796SOL    HW199285  14.304   1.659   0.284
65796SOL    HW299286  14.264   1.519   0.243
65797SOL     OW99287   0.128   6.376  10.707
65797SOL    HW199288   0.124   6.469  10.681
65797SOL    HW299289   0.041   6.343  10.687
65798SOL     OW99290  10.219   5.224   0.452
65798SOL    HW199291  10.206   5.284   0.525
65798SOL    HW299292  10.220   5.281   0.375
65799SOL     OW99293   4.476   8.865   4.753
65799SOL    HW199294   4.550   8.820   4.712
65799SOL    HW299295   4.409   8.869   4.684
65800SOL     OW99296   0.485   3.708   6.524
65800SOL    HW199297   0.461   3.735   6.435
65800SOL    HW299298   0.407   3.726   6.576
65801SOL     OW99299   3.134  13.916   9.729
65801SOL    HW199300   3.170  13.850   9.789
65801SOL    HW299301   3.159  14.000   9.768
65802SOL     OW99302   6.995  11.635   4.137
65802SOL    HW199303   6.910  11.608   4.101
65802SOL    HW299304   7.054  11.635   4.061
65803SOL     OW99305  11.647   5.031  10.804
65803SOL    HW199306  11.711   5.073  10.862
65803SOL    HW299307  11.669   5.063  10.717
65804SOL     OW99308   1.929   8.361   6.119
65804SOL    HW199309   1.997   8.365   6.186
65804SOL    HW299310   1.935   8.273   6.084
65805SOL     OW99311   5.014   8.390   7.067
65805SOL    HW199312   5.090   8.370   7.013
65805SOL    HW299313   4.979   8.472   7.031
65806SOL     OW99314  11.402  10.801   3.176
65806SOL    HW199315  11.478  10.808   3.119
65806SOL    HW299316  11.395  10.707   3.194
65807SOL     OW99317  12.910   6.898   4.576
65807SOL    HW199318  12.870   6.838   4.640
65807SOL    HW299319  12.963   6.958   4.629
65808SOL     OW99320  12.138   9.324  11.327
65808SOL    HW199321  12.187   9.296  11.404
65808SOL    HW299322  12.047   9.326  11.356
65809SOL     OW99323  13.391   4.612   3.668
65809SOL    HW199324  13.462   4.604   3.731
65809SOL    HW299325  13.407   4.543   3.604
65810SOL     OW99326   7.651   6.502   1.127
65810SOL    HW199327   7.702   6.519   1.048
65810SOL    HW299328   7.563   6.480   1.095
65811SOL     OW99329   5.228  12.005   3.306
65811SOL    HW199330   5.248  12.014   3.213
65811SOL    HW299331   5.308  11.969   3.344
65812SOL     OW99332   2.593   1.571  13.601
65812SOL    HW199333   2.610   1.662  13.579
65812SOL    HW299334   2.535   1.575  13.678
65813SOL     OW99335   5.891   1.000   9.123
65813SOL    HW199336   5.919   0.973   9.210
65813SOL    HW299337   5.972   1.020   9.077
65814SOL     OW99338  14.397   1.855   0.881
65814SOL    HW199339  14.343   1.812   0.815
65814SOL    HW299340  14.335   1.884   0.948
65815SOL     OW99341   2.394   3.512   4.622
65815SOL    HW199342   2.425   3.599   4.648
65815SOL    HW299343   2.331   3.529   4.552
65816SOL     OW99344   5.794   2.701  10.502
65816SOL    HW199345   5.708   2.716  10.464
65816SOL    HW299346   5.839   2.786  10.494
65817SOL     OW99347   8.191  10.166  11.365
65817SOL    HW199348   8.144  10.193  11.286
65817SOL    HW299349   8.220  10.077  11.346
65818SOL     OW99350  11.263  11.267   9.481
65818SOL    HW199351  11.221  11.252   9.566
65818SOL    HW299352  11.205  11.329   9.436
65819SOL     OW99353  11.341  14.848   2.951
65819SOL    HW199354  11.348  14.764   2.996
65819SOL    HW299355  11.279   0.026   3.003
65820SOL     OW99356  14.763  11.414   2.740
65820SOL    HW199357  14.764  11.369   2.824
65820SOL    HW299358  14.855  11.414   2.712
65821SOL     OW99359   4.480   7.347   1.248
65821SOL    HW199360   4.526   7.330   1.166
65821SOL    HW299361   4.395   7.383   1.221
65822SOL     OW99362   4.844  13.233  14.017
65822SOL    HW199363   4.849  13.143  13.986
65822SOL    HW299364   4.760  13.239  14.062
65823SOL     OW99365   8.208  13.088   5.148
65823SOL    HW199366   8.156  13.165   5.122
65823SOL    HW299367   8.171  13.062   5.233
65824SOL     OW99368   1.134  11.993   2.922
65824SOL    HW199369   1.063  11.929   2.917
65824SOL    HW299370   1.202  11.949   2.974
65825SOL     OW99371  10.743   8.994   2.302
65825SOL    HW199372  10.798   9.016   2.377
65825SOL    HW299373  10.805   8.966   2.235
65826SOL     OW99374   3.859  14.409  10.422
65826SOL    HW199375   3.948  14.385  10.396
65826SOL    HW299376   3.858  14.504  10.420
65827SOL     OW99377  11.453   0.994   1.390
65827SOL    HW199378  11.461   1.054   1.316
65827SOL    HW299379  11.383   1.032   1.443
65828SOL     OW99380   5.389   9.218   9.680
65828SOL    HW199381   5.452   9.289   9.679
65828SOL    HW299382   5.369   9.201   9.588
65829SOL     OW99383   1.564  11.044   6.549
65829SOL    HW199384   1.611  11.008   6.473
65829SOL    HW299385   1.472  11.034   6.527
65830SOL     OW99386  11.638   4.096   2.175
65830SOL    HW199387  11.598   4.182   2.181
65830SOL    HW299388  11.721   4.103   2.222
65831SOL     OW99389   2.225  12.360   1.914
65831SOL    HW199390   2.313  12.398   1.904
65831SOL    HW299391   2.235  12.270   1.882
65832SOL     OW99392   1.986   2.901   9.818
65832SOL    HW199393   1.940   2.818   9.814
65832SOL    HW299394   2.002   2.916   9.911
65833SOL     OW99395   0.341   4.550   9.309
65833SOL    HW199396   0.309   4.586   9.227
65833SOL    HW299397   0.306   4.608   9.376
65834SOL     OW99398   6.748  14.127  13.440
65834SOL    HW199399   6.834  14.085  13.444
65834SOL    HW299400   6.687  14.055  13.426
65835SOL     OW99401  11.001  14.746   8.426
65835SOL    HW199402  11.061  14.784   8.362
65835SOL    HW299403  10.951  14.821   8.459
65836SOL     OW99404   3.061   8.835  14.125
65836SOL    HW199405   3.106   8.868  14.203
65836SOL    HW299406   3.041   8.914  14.074
65837SOL     OW99407   3.015  11.270   5.931
65837SOL    HW199408   3.070  11.285   5.854
65837SOL    HW299409   2.926  11.264   5.897
65838SOL     OW99410   3.551   3.335   6.230
65838SOL    HW199411   3.581   3.255   6.274
65838SOL    HW299412   3.632   3.376   6.200
65839SOL     OW99413  12.486   1.757   7.882
65839SOL    HW199414  12.565   1.710   7.853
65839SOL    HW299415  12.495   1.762   7.977
65840SOL     OW99416   6.468   6.467   0.976
65840SOL    HW199417   6.496   6.481   1.067
65840SOL    HW299418   6.519   6.530   0.926
65841SOL     OW99419   2.871   0.720   4.928
65841SOL    HW199420   2.821   0.750   5.004
65841SOL    HW299421   2.935   0.790   4.913
65842SOL     OW99422   6.095   6.615   7.273
65842SOL    HW199423   6.074   6.649   7.186
65842SOL    HW299424   6.062   6.525   7.272
65843SOL     OW99425   5.699   0.702  12.503
65843SOL    HW199426   5.686   0.719  12.596
65843SOL    HW299427   5.755   0.774  12.473
65844SOL     OW99428  14.438  13.387   4.355
65844SOL    HW199429  14.362  13.353   4.402
65844SOL    HW299430  14.508  13.387   4.420
65845SOL     OW99431   1.432   3.680   0.410
65845SOL    HW199432   1.516   3.647   0.441
65845SOL    HW299433   1.417   3.633   0.328
65846SOL     OW99434  12.572   3.109   4.454
65846SOL    HW199435  12.505   3.092   4.520
65846SOL    HW299436  12.541   3.063   4.376
65847SOL     OW99437   0.863  14.537   8.050
65847SOL    HW199438   0.923  14.579   7.988
65847SOL    HW299439   0.776  14.566   8.022
65848SOL     OW99440   2.685   9.852  10.602
65848SOL    HW199441   2.726   9.887  10.681
65848SOL    HW299442   2.711   9.759  10.601
65849SOL     OW99443   7.587  10.188   9.710
65849SOL    HW199444   7.529  10.114   9.690
65849SOL    HW299445   7.658  10.149   9.762
65850SOL     OW99446  14.443   5.526  13.033
65850SOL    HW199447  14.359   5.531  13.079
65850SOL    HW299448  14.471   5.617  13.024
65851SOL     OW99449   8.777   2.443   7.507
65851SOL    HW199450   8.697   2.480   7.544
65851SOL    HW299451   8.747   2.390   7.433
65852SOL     OW99452   9.241   7.347  13.755
65852SOL    HW199453   9.193   7.384  13.829
65852SOL    HW299454   9.248   7.420  13.693
65853SOL     OW99455   5.362   3.069   2.537
65853SOL    HW199456   5.315   3.066   2.453
65853SOL    HW299457   5.391   3.160   2.544
65854SOL     OW99458  13.460  12.810   4.454
65854SOL    HW199459  13.418  12.859   4.382
65854SOL    HW299460  13.481  12.724   4.415
65855SOL     OW99461   8.306   3.083   0.039
65855SOL    HW199462   8.348   3.102  14.828
65855SOL    HW299463   8.370   3.112   0.105
65856SOL     OW99464  13.958   2.259   2.210
65856SOL    HW199465  13.921   2.340   2.175
65856SOL    HW299466  13.887   2.221   2.261
65857SOL     OW99467   9.407   3.377   4.441
65857SOL    HW199468   9.328   3.327   4.462
65857SOL    HW299469   9.479   3.325   4.476
65858SOL     OW99470  11.178   3.671   1.250
65858SOL    HW199471  11.102   3.637   1.296
65858SOL    HW299472  11.237   3.702   1.319
65859SOL     OW99473  13.424   9.992   7.934
65859SOL    HW199474  13.403   9.925   7.869
65859SOL    HW299475  13.339  10.021   7.967
65860SOL     OW99476  11.581  13.745  12.722
65860SOL    HW199477  11.595  13.838  12.738
65860SOL    HW299478  11.637  13.725  12.647
65861SOL     OW99479   6.920  10.366   3.407
65861SOL    HW199480   6.915  10.427   3.334
65861SOL    HW299481   6.915  10.421   3.485
65862SOL     OW99482   7.669   7.863   5.014
65862SOL    HW199483   7.577   7.881   4.992
65862SOL    HW299484   7.691   7.784   4.965
65863SOL     OW99485  12.632  13.277   9.446
65863SOL    HW199486  12.619  13.307   9.536
65863SOL    HW299487  12.711  13.322   9.417
65864SOL     OW99488   2.746   5.060   3.410
65864SOL    HW199489   2.767   5.020   3.495
65864SOL    HW299490   2.661   5.102   3.424
65865SOL     OW99491   5.548   7.341   5.829
65865SOL    HW199492   5.546   7.337   5.924
65865SOL    HW299493   5.615   7.407   5.809
65866SOL     OW99494   4.472   6.890   1.851
65866SOL    HW199495   4.545   6.912   1.909
65866SOL    HW299496   4.430   6.974   1.833
65867SOL     OW99497  13.308   0.752   7.662
65867SOL    HW199498  13.360   0.696   7.720
65867SOL    HW299499  13.291   0.698   7.585
65868SOL     OW99500   5.472  12.869   8.361
65868SOL    HW199501   5.544  12.807   8.349
65868SOL    HW299502   5.430  12.841   8.442
65869SOL     OW99503   8.043   1.148  12.977
65869SOL    HW199504   8.044   1.210  13.050
65869SOL    HW299505   8.026   1.201  12.900
65870SOL     OW99506   0.581   1.293   6.141
65870SOL    HW199507   0.581   1.208   6.184
65870SOL    HW299508   0.523   1.347   6.195
65871SOL     OW99509  13.831   9.630   2.335
65871SOL    HW199510  13.902   9.662   2.391
65871SOL    HW299511  13.778   9.708   2.317
65872SOL     OW99512   1.772   6.955   8.098
65872SOL    HW199513   1.803   6.866   8.114
65872SOL    HW299514   1.765   6.994   8.185
65873SOL     OW99515   2.399  12.972  11.034
65873SOL    HW199516   2.423  12.915  10.961
65873SOL    HW299517   2.473  12.966  11.094
65874SOL     OW99518  11.521   1.562  10.879
65874SOL    HW199519  11.511   1.626  10.808
65874SOL    HW299520  11.517   1.477  10.835
65875SOL     OW99521  12.177  12.742   7.073
65875SOL    HW199522  12.108  12.790   7.027
65875SOL    HW299523  12.152  12.744   7.165
65876SOL     OW99524  11.862   9.575   1.974
65876SOL    HW199525  11.767   9.588   1.975
65876SOL    HW299526  11.873   9.487   1.939
65877SOL     OW99527   6.057   3.073   2.568
65877SOL    HW199528   6.096   3.001   2.617
65877SOL    HW299529   5.964   3.052   2.564
65878SOL     OW99530   1.760  12.343   6.047
65878SOL    HW199531   1.795  12.413   6.101
65878SOL    HW299532   1.682  12.380   6.006
65879SOL     OW99533  12.435  11.750   4.609
65879SOL    HW199534  12.488  11.700   4.671
65879SOL    HW299535  12.495  11.773   4.538
65880SOL     OW99536  10.718   1.709   5.676
65880SOL    HW199537  10.657   1.665   5.617
65880SOL    HW299538  10.670   1.787   5.706
65881SOL     OW99539   2.872  11.629   9.260
65881SOL    HW199540   2.828  11.574   9.196
65881SOL    HW299541   2.896  11.568   9.331
65882SOL     OW99542   9.154   5.531   8.395
65882SOL    HW199543   9.215   5.605   8.403
65882SOL    HW299544   9.174   5.493   8.309
65883SOL     OW99545   9.397   4.379   0.876
65883SOL    HW199546   9.324   4.383   0.814
65883SOL    HW299547   9.392   4.462   0.924
65884SOL     OW99548   1.409   9.565   0.522
65884SOL    HW199549   1.344   9.512   0.476
65884SOL    HW299550   1.358   9.615   0.586
65885SOL     OW99551   1.214  12.802  10.612
65885SOL    HW199552   1.239  12.893  10.624
65885SOL    HW299553   1.180  12.775  10.697
65886SOL     OW99554   5.356  12.253  14.139
65886SOL    HW199555   5.431  12.284  14.088
65886SOL    HW299556   5.299  12.211  14.075
65887SOL     OW99557  10.769  14.402   4.805
65887SOL    HW199558  10.853  14.447   4.808
65887SOL    HW299559  10.711  14.457   4.858
65888SOL     OW99560  14.820  14.556   6.535
65888SOL    HW199561  14.786  14.644   6.523
65888SOL    HW299562  14.745  14.505   6.565
65889SOL     OW99563   2.232   2.971  12.371
65889SOL    HW199564   2.311   3.026  12.377
65889SOL    HW299565   2.186   2.987  12.453
65890SOL     OW99566   3.845   5.912   8.200
65890SOL    HW199567   3.885   5.864   8.128
65890SOL    HW299568   3.751   5.895   8.190
65891SOL     OW99569   8.567   2.813   4.617
65891SOL    HW199570   8.653   2.770   4.620
65891SOL    HW299571   8.524   2.776   4.541
65892SOL     OW99572   9.429   7.088   3.038
65892SOL    HW199573   9.404   7.043   2.958
65892SOL    HW299574   9.422   7.181   3.016
65893SOL     OW99575  12.659   6.735   5.977
65893SOL    HW199576  12.627   6.801   5.914
65893SOL    HW299577  12.660   6.653   5.927
65894SOL     OW99578  12.011   8.786   2.551
65894SOL    HW199579  12.036   8.840   2.627
65894SOL    HW299580  12.077   8.717   2.548
65895SOL     OW99581   2.649  12.897  14.313
65895SOL    HW199582   2.607  12.814  14.292
65895SOL    HW299583   2.649  12.902  14.408
65896SOL     OW99584  11.625   7.409   5.905
65896SOL    HW199585  11.712   7.412   5.946
65896SOL    HW299586  11.577   7.343   5.956
65897SOL     OW99587   4.053  10.942   0.720
65897SOL    HW199588   4.005  10.947   0.803
65897SOL    HW299589   3.997  10.890   0.663
65898SOL     OW99590   2.498   8.398   9.856
65898SOL    HW199591   2.416   8.378   9.810
65898SOL    HW299592   2.487   8.359   9.942
65899SOL     OW99593   2.792   6.071  10.580
65899SOL    HW199594   2.802   5.984  10.542
65899SOL    HW299595   2.843   6.068  10.661
65900SOL     OW99596   6.300  11.311   0.148
65900SOL    HW199597   6.223  11.255   0.160
65900SOL    HW299598   6.370  11.250   0.127
65901SOL     OW99599  11.720   3.709  10.367
65901SOL    HW199600  11.724   3.720  10.462
65901SOL    HW299601  11.786   3.769  10.333
65902SOL     OW99602   1.920  10.923   3.181
65902SOL    HW199603   1.983  10.896   3.248
65902SOL    HW299604   1.933  10.862   3.109
65903SOL     OW99605   4.405   7.463  14.144
65903SOL    HW199606   4.353   7.391  14.179
65903SOL    HW299607   4.355   7.494  14.068
65904SOL     OW99608   6.492   0.460   5.834
65904SOL    HW199609   6.451   0.530   5.782
65904SOL    HW299610   6.554   0.419   5.773
65905SOL     OW99611   7.154   1.996  12.119
65905SOL    HW199612   7.207   1.923  12.151
65905SOL    HW299613   7.065   1.976  12.147
65906SOL     OW99614   4.672   5.969   8.676
65906SOL    HW199615   4.648   5.931   8.761
65906SOL    HW299616   4.734   6.038   8.697
65907SOL     OW99617   4.302   6.904   4.679
65907SOL    HW199618   4.374   6.914   4.616
65907SOL    HW299619   4.287   6.810   4.682
65908SOL     OW99620   1.929   7.235   6.115
65908SOL    HW199621   1.847   7.189   6.096
65908SOL    HW299622   1.997   7.178   6.079
65909SOL     OW99623   9.384  11.891  12.219
65909SOL    HW199624   9.382  11.981  12.253
65909SOL    HW299625   9.419  11.899  12.130
65910SOL     OW99626   4.017  13.794   8.314
65910SOL    HW199627   4.037  13.724   8.377
65910SOL    HW299628   4.089  13.857   8.326
65911SOL     OW99629  11.678   3.006   1.576
65911SOL    HW199630  11.698   2.956   1.497
65911SOL    HW299631  11.678   2.942   1.647
65912SOL     OW99632   6.402   1.285   3.805
65912SOL    HW199633   6.385   1.197   3.838
65912SOL    HW299634   6.465   1.322   3.867
65913SOL     OW99635   5.851   9.144  13.324
65913SOL    HW199636   5.929   9.110  13.367
65913SOL    HW299637   5.781   9.083  13.348
65914SOL     OW99638   2.448   0.212   5.955
65914SOL    HW199639   2.371   0.185   5.905
65914SOL    HW299640   2.494   0.273   5.897
65915SOL     OW99641   2.275   2.990   3.411
65915SOL    HW199642   2.238   2.980   3.499
65915SOL    HW299643   2.367   3.010   3.426
65916SOL     OW99644   2.958   1.003   3.075
65916SOL    HW199645   2.945   1.093   3.103
65916SOL    HW299646   2.983   0.956   3.154
65917SOL     OW99647   4.545   6.198   2.957
65917SOL    HW199648   4.613   6.225   3.020
65917SOL    HW299649   4.571   6.240   2.875
65918SOL     OW99650   3.866   2.575   8.890
65918SOL    HW199651   3.802   2.612   8.829
65918SOL    HW299652   3.814   2.527   8.953
65919SOL     OW99653   1.053   1.243  11.092
65919SOL    HW199654   1.012   1.301  11.157
65919SOL    HW299655   1.002   1.163  11.096
65920SOL     OW99656   5.063   2.087  13.749
65920SOL    HW199657   5.018   2.172  13.752
65920SOL    HW299658   4.992   2.023  13.738
65921SOL     OW99659  11.827   3.657   7.008
65921SOL    HW199660  11.809   3.748   7.033
65921SOL    HW299661  11.916   3.659   6.972
65922SOL     OW99662   2.499   4.566   2.650
65922SOL    HW199663   2.515   4.534   2.738
65922SOL    HW299664   2.478   4.659   2.662
65923SOL     OW99665   4.249   3.673   7.648
65923SOL    HW199666   4.292   3.720   7.720
65923SOL    HW299667   4.253   3.733   7.574
65924SOL     OW99668   2.944   0.575   5.455
65924SOL    HW199669   2.872   0.513   5.469
65924SOL    HW299670   2.912   0.658   5.489
65925SOL     OW99671  11.969  12.652  11.512
65925SOL    HW199672  11.992  12.617  11.426
65925SOL    HW299673  12.002  12.586  11.574
65926SOL     OW99674  13.417  11.390  10.416
65926SOL    HW199675  13.382  11.451  10.351
65926SOL    HW299676  13.445  11.445  10.489
65927SOL     OW99677  10.742   2.982  10.500
65927SOL    HW199678  10.794   2.914  10.541
65927SOL    HW299679  10.760   2.974  10.406
65928SOL     OW99680   9.035  12.867   1.006
65928SOL    HW199681   9.038  12.771   1.013
65928SOL    HW299682   8.990  12.883   0.923
65929SOL     OW99683  12.893   5.114   3.599
65929SOL    HW199684  12.798   5.110   3.593
65929SOL    HW299685  12.911   5.200   3.638
65930SOL     OW99686   9.994   9.304  10.646
65930SOL    HW199687   9.998   9.254  10.564
65930SOL    HW299688   9.904   9.293  10.676
65931SOL     OW99689  10.213   1.402   4.724
65931SOL    HW199690  10.242   1.393   4.815
65931SOL    HW299691  10.123   1.434   4.730
65932SOL     OW99692   1.640   9.051   2.187
65932SOL    HW199693   1.673   9.120   2.244
65932SOL    HW299694   1.545   9.061   2.189
65933SOL     OW99695   6.910  11.471   2.953
65933SOL    HW199696   6.912  11.557   2.996
65933SOL    HW299697   6.975  11.477   2.884
65934SOL     OW99698  13.756  10.281   4.628
65934SOL    HW199699  13.738  10.262   4.536
65934SOL    HW299700  13.677  10.323   4.660
65935SOL     OW99701  11.419  13.654   4.678
65935SOL    HW199702  11.368  13.691   4.606
65935SOL    HW299703  11.427  13.561   4.657
65936SOL     OW99704  12.540   6.077   8.539
65936SOL    HW199705  12.487   6.022   8.596
65936SOL    HW299706  12.581   6.016   8.478
65937SOL     OW99707   5.667   1.150   0.594
65937SOL    HW199708   5.671   1.128   0.686
65937SOL    HW299709   5.587   1.108   0.562
65938SOL     OW99710   6.534  14.825  12.399
65938SOL    HW199711   6.445  14.859  12.389
65938SOL    HW299712   6.565  14.864  12.481
65939SOL     OW99713   5.065   7.626  12.565
65939SOL    HW199714   4.973   7.602  12.572
65939SOL    HW299715   5.072   7.672  12.481
65940SOL     OW99716  13.196  10.293   9.495
65940SOL    HW199717  13.155  10.362   9.443
65940SOL    HW299718  13.260  10.253   9.436
65941SOL     OW99719   8.481   7.180   2.552
65941SOL    HW199720   8.403   7.143   2.591
65941SOL    HW299721   8.524   7.227   2.623
65942SOL     OW99722   5.161   4.894   3.625
65942SOL    HW199723   5.247   4.933   3.641
65942SOL    HW299724   5.179   4.802   3.609
65943SOL     OW99725  14.409  11.955   7.042
65943SOL    HW199726  14.377  11.940   6.953
65943SOL    HW299727  14.379  12.043   7.064
65944SOL     OW99728   2.377   6.818  13.175
65944SOL    HW199729   2.343   6.831  13.263
65944SOL    HW299730   2.370   6.724  13.160
65945SOL     OW99731   1.433   9.966  14.129
65945SOL    HW199732   1.487   9.895  14.095
65945SOL    HW299733   1.471   9.986  14.214
65946SOL     OW99734   0.691   0.131   8.832
65946SOL    HW199735   0.653   0.128   8.745
65946SOL    HW299736   0.772   0.081   8.825
65947SOL     OW99737   9.869   8.406   6.618
65947SOL    HW199738   9.800   8.362   6.667
65947SOL    HW299739   9.913   8.462   6.682
65948SOL     OW99740   6.936   4.908   9.058
65948SOL    HW199741   7.014   4.919   9.112
65948SOL    HW299742   6.919   4.995   9.022
65949SOL     OW99743   2.252   6.564  11.855
65949SOL    HW199744   2.183   6.573  11.920
65949SOL    HW299745   2.264   6.652  11.821
65950SOL     OW99746  11.843   5.679   4.826
65950SOL    HW199747  11.770   5.741   4.819
65950SOL    HW299748  11.874   5.689   4.916
65951SOL     OW99749  10.511   0.398   5.062
65951SOL    HW199750  10.492   0.344   4.985
65951SOL    HW299751  10.585   0.354   5.104
65952SOL     OW99752  12.833   1.926   7.633
65952SOL    HW199753  12.776   1.985   7.681
65952SOL    HW299754  12.773   1.862   7.593
65953SOL     OW99755   6.987  11.051  10.335
65953SOL    HW199756   6.936  10.991  10.280
65953SOL    HW299757   6.939  11.134  10.328
65954SOL     OW99758  10.932  11.704  10.897
65954SOL    HW199759  10.984  11.667  10.968
65954SOL    HW299760  10.882  11.775  10.939
65955SOL     OW99761   9.045   0.300  10.855
65955SOL    HW199762   9.020   0.221  10.806
65955SOL    HW299763   9.113   0.341  10.801
65956SOL     OW99764  14.079  13.743  13.738
65956SOL    HW199765  14.050  13.834  13.746
65956SOL    HW299766  14.002  13.691  13.762
65957SOL     OW99767  12.668   9.558  13.429
65957SOL    HW199768  12.715   9.641  13.418
65957SOL    HW299769  12.576   9.581  13.420
65958SOL     OW99770   5.463   3.834  10.142
65958SOL    HW199771   5.402   3.908  10.141
65958SOL    HW299772   5.414   3.763  10.183
65959SOL     OW99773   0.500   8.150   2.044
65959SOL    HW199774   0.415   8.107   2.041
65959SOL    HW299775   0.546   8.107   2.116
65960SOL     OW99776   7.272  13.169  12.685
65960SOL    HW199777   7.352  13.129  12.650
65960SOL    HW299778   7.259  13.247  12.632
65961SOL     OW99779   0.459   9.018  10.172
65961SOL    HW199780   0.421   8.951  10.228
65961SOL    HW299781   0.542   9.041  10.214
65962SOL     OW99782  10.325   5.656  14.554
65962SOL    HW199783  10.415   5.684  14.536
65962SOL    HW299784  10.293   5.623  14.470
65963SOL     OW99785   4.318   4.710   6.975
65963SOL    HW199786   4.348   4.646   6.911
65963SOL    HW299787   4.390   4.773   6.982
65964SOL     OW99788   9.611  13.859   4.090
65964SOL    HW199789   9.539  13.888   4.033
65964SOL    HW299790   9.622  13.931   4.152
65965SOL     OW99791  11.863   5.924   8.979
65965SOL    HW199792  11.908   5.849   9.017
65965SOL    HW299793  11.918   5.999   9.000
65966SOL     OW99794   1.581   8.750   9.112
65966SOL    HW199795   1.614   8.693   9.181
65966SOL    HW299796   1.646   8.743   9.042
65967SOL     OW99797   1.411   4.429   9.540
65967SOL    HW199798   1.325   4.439   9.499
65967SOL    HW299799   1.433   4.517   9.570
65968SOL     OW99800   0.337   1.781  12.154
65968SOL    HW199801   0.301   1.863  12.186
65968SOL    HW299802   0.283   1.760  12.078
65969SOL     OW99803   9.781  11.653   5.396
65969SOL    HW199804   9.718  11.620   5.461
65969SOL    HW299805   9.829  11.722   5.442
65970SOL     OW99806   6.624   1.466  14.639
65970SOL    HW199807   6.667   1.540  14.683
65970SOL    HW299808   6.548   1.506  14.596
65971SOL     OW99809   1.206   7.133  13.179
65971SOL    HW199810   1.148   7.057  13.172
65971SOL    HW299811   1.204   7.172  13.091
65972SOL     OW99812   3.514   9.025  11.869
65972SOL    HW199813   3.432   9.000  11.912
65972SOL    HW299814   3.492   9.103  11.819
65973SOL     OW99815  11.068   7.699  12.106
65973SOL    HW199816  11.024   7.737  12.029
65973SOL    HW299817  11.151   7.665  12.071
65974SOL     OW99818  14.732   8.171   8.806
65974SOL    HW199819  14.663   8.171   8.872
65974SOL    HW299820  14.754   8.079   8.794
65975SOL     OW99821   8.649  12.086   0.930
65975SOL    HW199822   8.681  12.176   0.935
65975SOL    HW299823   8.647  12.056   1.021
65976SOL     OW99824   7.978   5.238   3.239
65976SOL    HW199825   7.900   5.186   3.219
65976SOL    HW299826   8.039   5.177   3.279
65977SOL     OW99827  12.553   7.574  11.379
65977SOL    HW199828  12.631   7.525  11.355
65977SOL    HW299829  12.491   7.508  11.410
65978SOL     OW99830  11.416   9.445   0.856
65978SOL    HW199831  11.506   9.463   0.827
65978SOL    HW299832  11.370   9.422   0.775
65979SOL     OW99833   7.985   6.803  10.266
65979SOL    HW199834   7.993   6.798  10.170
65979SOL    HW299835   7.896   6.775  10.284
65980SOL     OW99836   3.466  14.481   3.590
65980SOL    HW199837   3.532  14.527   3.642
65980SOL    HW299838   3.517  14.419   3.537
65981SOL     OW99839   0.479   4.104  10.305
65981SOL    HW199840   0.505   4.169  10.240
65981SOL    HW299841   0.486   4.150  10.389
65982SOL     OW99842   5.526  11.109   8.393
65982SOL    HW199843   5.476  11.156   8.460
65982SOL    HW299844   5.579  11.047   8.443
65983SOL     OW99845   2.894  14.301   5.152
65983SOL    HW199846   2.866  14.357   5.080
65983SOL    HW299847   2.910  14.361   5.225
65984SOL     OW99848   7.522   3.639   0.315
65984SOL    HW199849   7.524   3.605   0.404
65984SOL    HW299850   7.605   3.611   0.276
65985SOL     OW99851  10.691  10.886   3.720
65985SOL    HW199852  10.623  10.901   3.655
65985SOL    HW299853  10.659  10.931   3.799
65986SOL     OW99854   5.848   6.521   1.104
65986SOL    HW199855   5.842   6.594   1.042
65986SOL    HW299856   5.920   6.468   1.072
65987SOL     OW99857   5.863  10.829   5.843
65987SOL    HW199858   5.851  10.868   5.757
65987SOL    HW299859   5.877  10.904   5.902
65988SOL     OW99860   9.493  12.471   1.800
65988SOL    HW199861   9.542  12.475   1.717
65988SOL    HW299862   9.468  12.562   1.816
65989SOL     OW99863   5.607   2.888  13.540
65989SOL    HW199864   5.689   2.932  13.558
65989SOL    HW299865   5.540   2.953  13.562
65990SOL     OW99866   9.832  14.463   3.272
65990SOL    HW199867   9.877  14.455   3.356
65990SOL    HW299868   9.896  14.431   3.208
65991SOL     OW99869   2.726   6.623  13.255
65991SOL    HW199870   2.648   6.677  13.265
65991SOL    HW299871   2.778   6.669  13.189
65992SOL     OW99872  12.149   6.032   5.044
65992SOL    HW199873  12.082   6.101   5.045
65992SOL    HW299874  12.180   6.028   5.134
65993SOL     OW99875   0.514   2.394   1.491
65993SOL    HW199876   0.536   2.487   1.491
65993SOL    HW299877   0.548   2.361   1.574
65994SOL     OW99878   1.918   9.733  11.137
65994SOL    HW199879   1.979   9.805  11.123
65994SOL    HW299880   1.843   9.754  11.081
65995SOL     OW99881   3.809   8.657   1.169
65995SOL    HW199882   3.842   8.589   1.109
65995SOL    HW299883   3.784   8.609   1.248
65996SOL     OW99884   5.457  13.369   8.252
65996SOL    HW199885   5.437  13.393   8.162
65996SOL    HW299886   5.482  13.277   8.248
65997SOL     OW99887   6.472  14.070   9.226
65997SOL    HW199888   6.471  14.148   9.280
65997SOL    HW299889   6.379  14.045   9.219
65998SOL     OW99890   5.282   5.712   0.507
65998SOL    HW199891   5.274   5.616   0.503
65998SOL    HW299892   5.260   5.733   0.598
65999SOL     OW99893  13.546   2.016  10.616
65999SOL    HW199894  13.492   2.083  10.573
65999SOL    HW299895  13.582   1.965  10.543
66000SOL     OW99896   6.262   3.683   9.187
66000SOL    HW199897   6.264   3.588   9.182
66000SOL    HW299898   6.338   3.711   9.135
66001SOL     OW99899   9.636   8.008  14.302
66001SOL    HW199900   9.680   8.093  14.295
66001SOL    HW299901   9.684   7.951  14.242
66002SOL     OW99902  10.891  12.049  14.100
66002SOL    HW199903  10.939  12.046  14.018
66002SOL    HW299904  10.916  12.133  14.139
66003SOL     OW99905   8.289  13.674   7.907
66003SOL    HW199906   8.374  13.717   7.899
66003SOL    HW299907   8.255  13.703   7.991
66004SOL     OW99908   8.542  12.320   5.791
66004SOL    HW199909   8.585  12.377   5.854
66004SOL    HW299910   8.494  12.380   5.734
66005SOL     OW99911   9.362   4.347   7.816
66005SOL    HW199912   9.298   4.341   7.888
66005SOL    HW299913   9.342   4.431   7.774
66006SOL     OW99914  10.230   0.039   8.996
66006SOL    HW199915  10.243   0.093   9.074
66006SOL    HW299916  10.206  14.825   9.031
66007SOL     OW99917   4.951  12.234   3.221
66007SOL    HW199918   4.879  12.213   3.281
66007SOL    HW299919   4.942  12.170   3.150
66008SOL     OW99920   5.844  10.648   3.524
66008SOL    HW199921   5.904  10.584   3.562
66008SOL    HW299922   5.859  10.728   3.574
66009SOL     OW99923   5.763   1.653  13.486
66009SOL    HW199924   5.774   1.586  13.418
66009SOL    HW299925   5.774   1.605  13.568
66010SOL     OW99926   5.278   4.493   7.222
66010SOL    HW199927   5.296   4.499   7.128
66010SOL    HW299928   5.214   4.422   7.230
66011SOL     OW99929   1.211   8.639  10.728
66011SOL    HW199930   1.172   8.575  10.787
66011SOL    HW299931   1.212   8.721  10.778
66012SOL     OW99932   3.457   5.875   3.340
66012SOL    HW199933   3.458   5.939   3.269
66012SOL    HW299934   3.538   5.825   3.328
66013SOL     OW99935   1.485  13.770   0.959
66013SOL    HW199936   1.428  13.737   1.028
66013SOL    HW299937   1.574  13.755   0.991
66014SOL     OW99938   5.838  14.836   5.215
66014SOL    HW199939   5.806   0.030   5.154
66014SOL    HW299940   5.916   0.004   5.255
66015SOL     OW99941  13.619  11.816   9.048
66015SOL    HW199942  13.709  11.845   9.034
66015SOL    HW299943  13.578  11.825   8.962
66016SOL     OW99944   6.252  10.414  11.008
66016SOL    HW199945   6.257  10.492  11.064
66016SOL    HW299946   6.222  10.345  11.067
66017SOL     OW99947  10.787  11.078  10.603
66017SOL    HW199948  10.812  10.986  10.610
66017SOL    HW299949  10.696  11.076  10.574
66018SOL     OW99950   8.877   2.275   1.945
66018SOL    HW199951   8.840   2.256   2.031
66018SOL    HW299952   8.904   2.366   1.950
66019SOL     OW99953   1.777   4.327  13.499
66019SOL    HW199954   1.711   4.390  13.529
66019SOL    HW299955   1.791   4.269  13.574
66020SOL     OW99956  13.189   4.357  14.270
66020SOL    HW199957  13.134   4.422  14.314
66020SOL    HW299958  13.178   4.277  14.322
66021SOL     OW99959   1.577   7.727   0.365
66021SOL    HW199960   1.596   7.814   0.327
66021SOL    HW299961   1.632   7.723   0.443
66022SOL     OW99962  11.976   5.527   3.740
66022SOL    HW199963  11.900   5.546   3.685
66022SOL    HW299964  11.947   5.548   3.829
66023SOL     OW99965   9.957   8.005  12.871
66023SOL    HW199966  10.044   8.044  12.882
66023SOL    HW299967   9.904   8.047  12.939
66024SOL     OW99968  11.090   5.107  11.826
66024SOL    HW199969  11.072   5.068  11.741
66024SOL    HW299970  11.179   5.078  11.848
66025SOL     OW99971  12.049  13.285   4.994
66025SOL    HW199972  12.029  13.291   4.901
66025SOL    HW299973  11.981  13.337   5.037
66026SOL     OW99974   9.245  11.269  13.646
66026SOL    HW199975   9.292  11.261  13.729
66026SOL    HW299976   9.313  11.256  13.579
66027SOL     OW99977   3.901   0.195  11.304
66027SOL    HW199978   3.934   0.105  11.298
66027SOL    HW299979   3.971   0.249  11.267
66028SOL     OW99980  10.980   1.820  12.853
66028SOL    HW199981  10.999   1.728  12.867
66028SOL    HW299982  11.024   1.865  12.925
66029SOL     OW99983   6.569   8.302   0.415
66029SOL    HW199984   6.610   8.372   0.364
66029SOL    HW299985   6.543   8.344   0.497
66030SOL     OW99986   6.779   8.482  13.287
66030SOL    HW199987   6.744   8.468  13.375
66030SOL    HW299988   6.802   8.575  13.285
66031SOL     OW99989   3.887  13.189  14.479
66031SOL    HW199990   3.847  13.207  14.564
66031SOL    HW299991   3.975  13.224  14.487
66032SOL     OW99992   5.583  12.256   3.158
66032SOL    HW199993   5.488  12.249   3.147
66032SOL    HW299994   5.596  12.334   3.212
66033SOL     OW99995   8.034  10.475   9.911
66033SOL    HW199996   8.056  10.426   9.832
66033SOL    HW299997   7.999  10.558   9.879
66034SOL     OW99998   1.143  11.729  13.689
66034SOL    HW199999   1.119  11.723  13.782
66034SOL    HW2    0   1.063  11.706  13.642
66035SOL     OW    1   9.652   2.405   8.789
66035SOL    HW1    2   9.715   2.344   8.750
66035SOL    HW2    3   9.592   2.427   8.717
66036SOL     OW    4   3.847  13.043   5.363
66036SOL    HW1    5   3.861  13.122   5.311
66036SOL    HW2    6   3.816  12.978   5.299
66037SOL     OW    7   7.414  12.538   1.299
66037SOL    HW1    8   7.464  12.463   1.266
66037SOL    HW2    9   7.329  12.530   1.256
66038SOL     OW   10   5.579   9.948  10.905
66038SOL    HW1   11   5.564   9.971  10.997
66038SOL    HW2   12   5.674   9.945  10.896
66039SOL     OW   13  13.705  13.491  11.536
66039SOL    HW1   14  13.662  13.530  11.613
66039SOL    HW2   15  13.769  13.556  11.510
66040SOL     OW   16   8.836   7.414   7.732
66040SOL    HW1   17   8.898   7.413   7.805
66040SOL    HW2   18   8.760   7.366   7.764
66041SOL     OW   19  12.216   0.777   3.572
66041SOL    HW1   20  12.224   0.860   3.525
66041SOL    HW2   21  12.227   0.800   3.664
66042SOL     OW   22  14.603   0.487   3.339
66042SOL    HW1   23  14.621   0.432   3.263
66042SOL    HW2   24  14.659   0.564   3.327
66043SOL     OW   25  12.959   7.756   1.818
66043SOL    HW1   26  12.977   7.846   1.791
66043SOL    HW2   27  13.025   7.737   1.885
66044SOL     OW   28   1.528   9.779  13.558
66044SOL    HW1   29   1.586   9.854  13.570
66044SOL    HW2   30   1.445   9.805  13.599
66045SOL     OW   31  12.021   3.077   6.885
66045SOL    HW1   32  12.077   3.120   6.821
66045SOL    HW2   33  12.020   3.137   6.960
66046SOL     OW   34   0.684   4.539   3.631
66046SOL    HW1   35   0.680   4.449   3.599
66046SOL    HW2   36   0.592   4.562   3.647
66047SOL     OW   37  12.858   4.504   5.100
66047SOL    HW1   38  12.954   4.507   5.100
66047SOL    HW2   39  12.833   4.557   5.024
66048SOL     OW   40   9.358   5.681  14.512
66048SOL    HW1   41   9.345   5.588  14.532
66048SOL    HW2   42   9.301   5.697  14.437
66049SOL     OW   43   5.404  11.077   5.164
66049SOL    HW1   44   5.495  11.077   5.195
66049SOL    HW2   45   5.405  11.136   5.088
66050SOL     OW   46   9.289   3.057   8.359
66050SOL    HW1   47   9.255   3.135   8.403
66050SOL    HW2   48   9.212   3.016   8.319
66051SOL     OW   49   5.620  14.114   5.717
66051SOL    HW1   50   5.639  14.171   5.792
66051SOL    HW2   51   5.600  14.174   5.645
66052SOL     OW   52  10.368  10.293  10.422
66052SOL    HW1   53  10.290  10.272  10.371
66052SOL    HW2   54  10.438  10.302  10.357
66053SOL     OW   55  13.815   9.759  10.153
66053SOL    HW1   56  13.819   9.746  10.058
66053SOL    HW2   57  13.757   9.690  10.184
66054SOL     OW   58  13.333   0.811   7.014
66054SOL    HW1   59  13.393   0.736   7.016
66054SOL    HW2   60  13.299   0.812   6.924
66055SOL     OW   61   7.217   2.750   0.788
66055SOL    HW1   62   7.219   2.757   0.692
66055SOL    HW2   63   7.285   2.810   0.818
66056SOL     OW   64   1.388  14.112   5.651
66056SOL    HW1   65   1.355  14.137   5.564
66056SOL    HW2   66   1.481  14.136   5.649
66057SOL     OW   67  12.638  13.523   2.389
66057SOL    HW1   68  12.580  13.500   2.316
66057SOL    HW2   69  12.723  13.487   2.363
66058SOL     OW   70   3.016  11.178   8.489
66058SOL    HW1   71   2.932  11.134   8.503
66058SOL    HW2   72   3.010  11.256   8.544
66059SOL     OW   73   3.529   1.813   5.327
66059SOL    HW1   74   3.524   1.851   5.239
66059SOL    HW2   75   3.558   1.885   5.383
66060SOL     OW   76   0.190  10.435   0.001
66060SOL    HW1   77   0.109  10.384  14.866
66060SOL    HW2   78   0.210  10.433   0.095
66061SOL     OW   79   9.497   1.787   2.029
66061SOL    HW1   80   9.568   1.783   1.965
66061SOL    HW2   81   9.484   1.880   2.045
66062SOL     OW   82   5.587   7.441   6.947
66062SOL    HW1   83   5.576   7.535   6.957
66062SOL    HW2   84   5.664   7.420   6.999
66063SOL     OW   85   3.748   6.217   1.139
66063SOL    HW1   86   3.835   6.201   1.105
66063SOL    HW2   87   3.714   6.290   1.086
66064SOL     OW   88   9.521  11.752   8.420
66064SOL    HW1   89   9.464  11.785   8.351
66064SOL    HW2   90   9.602  11.802   8.410
66065SOL     OW   91   5.024   3.177   4.380
66065SOL    HW1   92   5.002   3.188   4.288
66065SOL    HW2   93   4.975   3.099   4.407
66066SOL     OW   94   5.404  10.602  14.275
66066SOL    HW1   95   5.493  10.620  14.304
66066SOL    HW2   96   5.348  10.641  14.342
66067SOL     OW   97   7.628   2.341   3.430
66067SOL    HW1   98   7.607   2.281   3.358
66067SOL    HW2   99   7.721   2.325   3.447
66068SOL     OW  100   1.733   6.616   2.916
66068SOL    HW1  101   1.639   6.601   2.920
66068SOL    HW2  102   1.766   6.588   3.001
66069SOL     OW  103  11.310   8.702  11.657
66069SOL    HW1  104  11.358   8.753  11.722
66069SOL    HW2  105  11.271   8.768  11.599
66070SOL     OW  106  13.643   2.366   0.934
66070SOL    HW1  107  13.727   2.321   0.937
66070SOL    HW2  108  13.655   2.436   0.870
66071SOL     OW  109  10.099  12.322  11.508
66071SOL    HW1  110  10.056  12.299  11.591
66071SOL    HW2  111  10.030  12.316  11.443
66072SOL     OW  112  12.481   6.702  14.014
66072SOL    HW1  113  12.448   6.613  14.023
66072SOL    HW2  114  12.541   6.698  13.939
66073SOL     OW  115   4.298  11.897   3.026
66073SOL    HW1  116   4.239  11.946   2.969
66073SOL    HW2  117   4.374  11.878   2.972
66074SOL     OW  118  13.975  13.014  13.693
66074SOL    HW1  119  13.910  12.944  13.681
66074SOL    HW2  120  14.054  12.968  13.721
66075SOL     OW  121   7.274  14.013  12.767
66075SOL    HW1  122   7.279  13.919  12.753
66075SOL    HW2  123   7.358  14.047  12.736
66076SOL     OW  124   5.672   7.834   2.318
66076SOL    HW1  125   5.615   7.844   2.394
66076SOL    HW2  126   5.739   7.772   2.345
66077SOL     OW  127   9.688  13.713   8.729
66077SOL    HW1  128   9.594  13.717   8.709
66077SOL    HW2  129   9.693  13.727   8.824
66078SOL     OW  130   8.014   7.223   3.448
66078SOL    HW1  131   8.078   7.152   3.446
66078SOL    HW2  132   8.043   7.280   3.518
66079SOL     OW  133   5.443   2.541   0.797
66079SOL    HW1  134   5.538   2.547   0.787
66079SOL    HW2  135   5.414   2.495   0.719
66080SOL     OW  136   1.083   3.356   1.374
66080SOL    HW1  137   1.054   3.351   1.465
66080SOL    HW2  138   1.178   3.360   1.379
66081SOL     OW  139   7.836  10.397   0.340
66081SOL    HW1  140   7.918  10.447   0.338
66081SOL    HW2  141   7.773  10.457   0.380
66082SOL     OW  142   1.836  13.550  14.271
66082SOL    HW1  143   1.789  13.633  14.285
66082SOL    HW2  144   1.870  13.526  14.357
66083SOL     OW  145   6.739   8.962  13.001
66083SOL    HW1  146   6.735   9.040  13.058
66083SOL    HW2  147   6.813   8.979  12.942
66084SOL     OW  148   2.434   0.879  14.318
66084SOL    HW1  149   2.480   0.881  14.234
66084SOL    HW2  150   2.397   0.791  14.322
66085SOL     OW  151  12.777  14.849  12.111
66085SOL    HW1  152  12.777  14.803  12.195
66085SOL    HW2  153  12.778  14.779  12.046
66086SOL     OW  154   0.744  10.903   0.655
66086SOL    HW1  155   0.745  10.822   0.706
66086SOL    HW2  156   0.785  10.968   0.712
66087SOL     OW  157   9.431   5.252   3.641
66087SOL    HW1  158   9.480   5.236   3.721
66087SOL    HW2  159   9.391   5.337   3.653
66088SOL     OW  160  12.671  10.265   2.398
66088SOL    HW1  161  12.708  10.343   2.440
66088SOL    HW2  162  12.740  10.235   2.339
66089SOL     OW  163  12.568   8.354   2.337
66089SOL    HW1  164  12.550   8.381   2.427
66089SOL    HW2  165  12.659   8.324   2.338
66090SOL     OW  166   1.154   5.807  14.862
66090SOL    HW1  167   1.099   5.732  14.839
66090SOL    HW2  168   1.235   5.794  14.812
66091SOL     OW  169   0.850  12.020   8.014
66091SOL    HW1  170   0.783  12.084   7.990
66091SOL    HW2  171   0.920  12.072   8.053
66092SOL     OW  172   1.971   3.009  13.883
66092SOL    HW1  173   1.933   2.977  13.965
66092SOL    HW2  174   2.051   3.053  13.910
66093SOL     OW  175  10.618   3.575   5.832
66093SOL    HW1  176  10.563   3.520   5.887
66093SOL    HW2  177  10.650   3.644   5.891
66094SOL     OW  178  10.124  13.000   1.518
66094SOL    HW1  179  10.042  13.048   1.506
66094SOL    HW2  180  10.099  12.907   1.511
66095SOL     OW  181   2.200   1.260   6.586
66095SOL    HW1  182   2.234   1.170   6.593
66095SOL    HW2  183   2.274   1.315   6.611
66096SOL     OW  184   7.665  12.295   4.309
66096SOL    HW1  185   7.667  12.370   4.367
66096SOL    HW2  186   7.652  12.220   4.367
66097SOL     OW  187   0.281   2.872   4.213
66097SOL    HW1  188   0.295   2.789   4.257
66097SOL    HW2  189   0.315   2.938   4.274
66098SOL     OW  190   6.472   5.819   3.280
66098SOL    HW1  191   6.524   5.743   3.306
66098SOL    HW2  192   6.483   5.824   3.185
66099SOL     OW  193  12.221   6.154   8.344
66099SOL    HW1  194  12.177   6.098   8.408
66099SOL    HW2  195  12.182   6.240   8.357
66100SOL     OW  196  10.307   2.033   7.052
66100SOL    HW1  197  10.226   2.011   7.005
66100SOL    HW2  198  10.318   2.127   7.038
66101SOL     OW  199  12.989  13.362   0.590
66101SOL    HW1  200  12.966  13.389   0.501
66101SOL    HW2  201  12.960  13.271   0.596
66102SOL     OW  202  10.768  14.411   1.900
66102SOL    HW1  203  10.848  14.416   1.848
66102SOL    HW2  204  10.698  14.398   1.836
66103SOL     OW  205   5.135  14.364   3.031
66103SOL    HW1  206   5.197  14.390   3.099
66103SOL    HW2  207   5.187  14.361   2.950
66104SOL     OW  208  12.498   9.668   5.900
66104SOL    HW1  209  12.505   9.580   5.938
66104SOL    HW2  210  12.578   9.678   5.848
66105SOL     OW  211   2.090   2.196  11.596
66105SOL    HW1  212   2.155   2.163  11.658
66105SOL    HW2  213   2.060   2.279  11.635
66106SOL     OW  214   7.796   4.630  13.492
66106SOL    HW1  215   7.817   4.708  13.441
66106SOL    HW2  216   7.757   4.570  13.429
66107SOL     OW  217  11.312   1.338   1.832
66107SOL    HW1  218  11.395   1.334   1.785
66107SOL    HW2  219  11.292   1.246   1.853
66108SOL     OW  220  10.180   5.244   2.877
66108SOL    HW1  221  10.085   5.254   2.870
66108SOL    HW2  222  10.213   5.333   2.885
66109SOL     OW  223   7.070   9.036   3.291
66109SOL    HW1  224   7.147   8.994   3.254
66109SOL    HW2  225   7.033   8.971   3.351
66110SOL     OW  226   0.541   6.861  10.249
66110SOL    HW1  227   0.541   6.818  10.335
66110SOL    HW2  228   0.521   6.791  10.187
66111SOL     OW  229   9.317  13.912  13.024
66111SOL    HW1  230   9.325  13.989  13.080
66111SOL    HW2  231   9.241  13.930  12.969
66112SOL     OW  232   1.483   8.006   6.623
66112SOL    HW1  233   1.538   7.943   6.576
66112SOL    HW2  234   1.399   8.003   6.577
66113SOL     OW  235   1.511   9.495  14.811
66113SOL    HW1  236   1.592   9.453  14.841
66113SOL    HW2  237   1.505   9.472  14.719
66114SOL     OW  238  14.275   9.104   9.962
66114SOL    HW1  239  14.333   9.166  10.006
66114SOL    HW2  240  14.334   9.035   9.931
66115SOL     OW  241  11.056   7.647   9.255
66115SOL    HW1  242  11.103   7.688   9.182
66115SOL    HW2  243  10.982   7.706   9.271
66116SOL     OW  244   4.485  11.466   8.012
66116SOL    HW1  245   4.414  11.403   8.006
66116SOL    HW2  246   4.543  11.445   7.939
66117SOL     OW  247  10.215   9.353   9.594
66117SOL    HW1  248  10.273   9.429   9.583
66117SOL    HW2  249  10.203   9.318   9.506
66118SOL     OW  250  10.574   0.847  14.190
66118SOL    HW1  251  10.499   0.894  14.154
66118SOL    HW2  252  10.638   0.845  14.119
66119SOL     OW  253   6.346   0.167   6.545
66119SOL    HW1  254   6.426   0.119   6.528
66119SOL    HW2  255   6.300   0.168   6.460
66120SOL     OW  256   0.212   1.141   4.062
66120SOL    HW1  257   0.266   1.218   4.078
66120SOL    HW2  258   0.266   1.066   4.088
66121SOL     OW  259   1.237  11.789   5.699
66121SOL    HW1  260   1.216  11.883   5.695
66121SOL    HW2  261   1.186  11.756   5.773
66122SOL     OW  262  11.180   9.477   7.594
66122SOL    HW1  263  11.147   9.397   7.636
66122SOL    HW2  264  11.148   9.470   7.504
66123SOL     OW  265   7.789  13.507  13.647
66123SOL    HW1  266   7.739  13.586  13.625
66123SOL    HW2  267   7.770  13.492  13.739
66124SOL     OW  268   5.425   2.720  14.658
66124SOL    HW1  269   5.412   2.814  14.654
66124SOL    HW2  270   5.379   2.692  14.737
66125SOL     OW  271  10.737   6.897   7.552
66125SOL    HW1  272  10.680   6.823   7.534
66125SOL    HW2  273  10.802   6.896   7.481
66126SOL     OW  274   5.435  10.816  13.245
66126SOL    HW1  275   5.470  10.760  13.314
66126SOL    HW2  276   5.386  10.756  13.188
66127SOL     OW  277   8.946   4.700  12.288
66127SOL    HW1  278   8.937   4.682  12.194
66127SOL    HW2  279   8.859   4.726  12.316
66128SOL     OW  280   6.119   5.499  14.125
66128SOL    HW1  281   6.115   5.518  14.218
66128SOL    HW2  282   6.211   5.514  14.101
66129SOL     OW  283   9.345   9.934   8.533
66129SOL    HW1  284   9.333   9.887   8.616
66129SOL    HW2  285   9.379   9.869   8.473
66130SOL     OW  286   2.990   9.960   2.207
66130SOL    HW1  287   3.083   9.947   2.185
66130SOL    HW2  288   2.950   9.989   2.126
66131SOL     OW  289   9.036   6.547  11.855
66131SOL    HW1  290   9.018   6.499  11.773
66131SOL    HW2  291   9.030   6.639  11.830
66132SOL     OW  292   7.351   9.626   2.542
66132SOL    HW1  293   7.373   9.661   2.455
66132SOL    HW2  294   7.256   9.630   2.546
66133SOL     OW  295   9.611   0.810   0.301
66133SOL    HW1  296   9.576   0.845   0.384
66133SOL    HW2  297   9.698   0.776   0.324
66134SOL     OW  298   8.211  12.331   0.707
66134SOL    HW1  299   8.166  12.250   0.683
66134SOL    HW2  300   8.170  12.358   0.789
66135SOL     OW  301   7.678   3.260  14.690
66135SOL    HW1  302   7.706   3.238  14.779
66135SOL    HW2  303   7.593   3.302  14.702
66136SOL     OW  304  12.909  10.212   9.780
66136SOL    HW1  305  12.997  10.249   9.778
66136SOL    HW2  306  12.863  10.256   9.709
66137SOL     OW  307  12.098  11.666   9.521
66137SOL    HW1  308  12.150  11.741   9.491
66137SOL    HW2  309  12.020  11.667   9.465
66138SOL     OW  310   6.129   6.254  14.749
66138SOL    HW1  311   6.049   6.241  14.800
66138SOL    HW2  312   6.196   6.206  14.799
66139SOL     OW  313   3.096  13.809  10.934
66139SOL    HW1  314   3.176  13.756  10.937
66139SOL    HW2  315   3.025  13.746  10.940
66140SOL     OW  316   6.977  11.126   3.335
66140SOL    HW1  317   7.001  11.118   3.427
66140SOL    HW2  318   6.893  11.080   3.328
66141SOL     OW  319  10.977   4.165  11.411
66141SOL    HW1  320  10.982   4.161  11.506
66141SOL    HW2  321  11.054   4.216  11.386
66142SOL     OW  322   3.841   6.900  11.643
66142SOL    HW1  323   3.861   6.957  11.718
66142SOL    HW2  324   3.901   6.827  11.652
66143SOL     OW  325   5.445   0.553  14.291
66143SOL    HW1  326   5.444   0.645  14.321
66143SOL    HW2  327   5.423   0.503  14.369
66144SOL     OW  328   8.123   3.881   1.967
66144SOL    HW1  329   8.213   3.848   1.972
66144SOL    HW2  330   8.096   3.863   1.877
66145SOL     OW  331   4.234   7.146  11.883
66145SOL    HW1  332   4.282   7.083  11.936
66145SOL    HW2  333   4.301   7.207  11.853
66146SOL     OW  334   1.844   0.217  13.311
66146SOL    HW1  335   1.843   0.240  13.218
66146SOL    HW2  336   1.916   0.267  13.348
66147SOL     OW  337   9.679  10.525   3.344
66147SOL    HW1  338   9.631  10.471   3.282
66147SOL    HW2  339   9.757  10.474   3.366
66148SOL     OW  340   6.604  11.070  11.877
66148SOL    HW1  341   6.590  11.137  11.810
66148SOL    HW2  342   6.557  10.993  11.845
66149SOL     OW  343   0.570   7.680   6.100
66149SOL    HW1  344   0.487   7.701   6.143
66149SOL    HW2  345   0.613   7.619   6.159
66150SOL     OW  346   1.770   7.531  10.375
66150SOL    HW1  347   1.831   7.483  10.319
66150SOL    HW2  348   1.823   7.603  10.411
66151SOL     OW  349   1.364  14.275  10.797
66151SOL    HW1  350   1.297  14.318  10.744
66151SOL    HW2  351   1.327  14.274  10.885
66152SOL     OW  352   4.629   8.697   3.787
66152SOL    HW1  353   4.540   8.709   3.753
66152SOL    HW2  354   4.683   8.752   3.730
66153SOL     OW  355   3.825  13.292  11.218
66153SOL    HW1  356   3.803  13.377  11.179
66153SOL    HW2  357   3.914  13.303  11.250
66154SOL     OW  358   3.270  14.167   5.203
66154SOL    HW1  359   3.321  14.172   5.122
66154SOL    HW2  360   3.181  14.149   5.174
66155SOL     OW  361   7.921  12.491  13.679
66155SOL    HW1  362   7.951  12.539  13.756
66155SOL    HW2  363   7.825  12.491  13.688
66156SOL     OW  364   0.901   4.664   7.932
66156SOL    HW1  365   0.940   4.622   7.855
66156SOL    HW2  366   0.887   4.592   7.993
66157SOL     OW  367   2.028   5.311   9.616
66157SOL    HW1  368   1.966   5.383   9.608
66157SOL    HW2  369   2.074   5.328   9.698
66158SOL     OW  370   5.443   8.500   5.344
66158SOL    HW1  371   5.359   8.497   5.391
66158SOL    HW2  372   5.485   8.579   5.375
66159SOL     OW  373  14.675   3.405   7.521
66159SOL    HW1  374  14.697   3.357   7.441
66159SOL    HW2  375  14.581   3.390   7.533
66160SOL     OW  376   7.062  10.385   7.618
66160SOL    HW1  377   7.012  10.304   7.630
66160SOL    HW2  378   7.152  10.357   7.606
66161SOL     OW  379   2.820   4.750   8.280
66161SOL    HW1  380   2.855   4.747   8.191
66161SOL    HW2  381   2.822   4.660   8.310
66162SOL     OW  382   9.904   7.772   3.184
66162SOL    HW1  383   9.910   7.709   3.256
66162SOL    HW2  384   9.814   7.804   3.187
66163SOL     OW  385   5.634  11.541   8.901
66163SOL    HW1  386   5.663  11.475   8.964
66163SOL    HW2  387   5.708  11.601   8.894
66164SOL     OW  388   7.603   5.799   8.026
66164SOL    HW1  389   7.517   5.798   8.068
66164SOL    HW2  390   7.653   5.730   8.070
66165SOL     OW  391  12.823  10.100  12.082
66165SOL    HW1  392  12.915  10.079  12.099
66165SOL    HW2  393  12.774  10.039  12.137
66166SOL     OW  394   6.398  11.189   7.788
66166SOL    HW1  395   6.453  11.174   7.711
66166SOL    HW2  396   6.315  11.221   7.752
66167SOL     OW  397   3.018   1.335   8.427
66167SOL    HW1  398   3.092   1.302   8.374
66167SOL    HW2  399   2.946   1.275   8.407
66168SOL     OW  400   1.792   2.531   6.677
66168SOL    HW1  401   1.818   2.575   6.758
66168SOL    HW2  402   1.817   2.439   6.690
66169SOL     OW  403   1.502  13.243   2.466
66169SOL    HW1  404   1.573  13.303   2.488
66169SOL    HW2  405   1.538  13.188   2.396
66170SOL     OW  406   4.780   6.247   6.923
66170SOL    HW1  407   4.869   6.268   6.950
66170SOL    HW2  408   4.734   6.331   6.922
66171SOL     OW  409  10.483  14.403  11.070
66171SOL    HW1  410  10.415  14.363  11.015
66171SOL    HW2  411  10.502  14.337  11.136
66172SOL     OW  412  13.228   2.986  10.311
66172SOL    HW1  413  13.243   2.924  10.240
66172SOL    HW2  414  13.275   2.948  10.386
66173SOL     OW  415   8.959  10.541   3.978
66173SOL    HW1  416   8.894  10.588   4.030
66173SOL    HW2  417   8.949  10.575   3.889
66174SOL     OW  418   1.702   7.370  13.749
66174SOL    HW1  419   1.788   7.332  13.768
66174SOL    HW2  420   1.641   7.315  13.799
66175SOL     OW  421   4.299   3.732   6.217
66175SOL    HW1  422   4.286   3.670   6.145
66175SOL    HW2  423   4.261   3.688   6.293
66176SOL     OW  424   2.589   6.175  10.437
66176SOL    HW1  425   2.509   6.165  10.488
66176SOL    HW2  426   2.659   6.146  10.496
66177SOL     OW  427  11.922   3.205   8.382
66177SOL    HW1  428  11.869   3.190   8.460
66177SOL    HW2  429  11.859   3.232   8.315
66178SOL     OW  430   3.053   1.757   7.075
66178SOL    HW1  431   3.059   1.822   7.145
66178SOL    HW2  432   3.117   1.690   7.098
66179SOL     OW  433   6.850  13.141   9.750
66179SOL    HW1  434   6.839  13.127   9.844
66179SOL    HW2  435   6.812  13.063   9.709
66180SOL     OW  436  10.829   4.786   9.324
66180SOL    HW1  437  10.783   4.764   9.243
66180SOL    HW2  438  10.922   4.783   9.302
66181SOL     OW  439   4.085   2.138   3.378
66181SOL    HW1  440   4.043   2.224   3.369
66181SOL    HW2  441   4.109   2.114   3.289
66182SOL     OW  442  12.565  11.989  13.958
66182SOL    HW1  443  12.524  11.949  13.882
66182SOL    HW2  444  12.589  12.077  13.929
66183SOL     OW  445  12.990   4.476   9.879
66183SOL    HW1  446  12.969   4.551   9.934
66183SOL    HW2  447  12.996   4.512   9.790
66184SOL     OW  448   7.152   0.443   8.032
66184SOL    HW1  449   7.142   0.461   8.126
66184SOL    HW2  450   7.120   0.353   8.022
66185SOL     OW  451   6.741   7.606   0.128
66185SOL    HW1  452   6.711   7.617   0.037
66185SOL    HW2  453   6.773   7.516   0.132
66186SOL     OW  454   7.836  12.375  13.209
66186SOL    HW1  455   7.921  12.331  13.212
66186SOL    HW2  456   7.785  12.334  13.278
66187SOL     OW  457  13.056   2.997  14.176
66187SOL    HW1  458  13.007   3.049  14.240
66187SOL    HW2  459  13.031   2.907  14.195
66188SOL     OW  460   4.980  12.357  11.630
66188SOL    HW1  461   4.951  12.265  11.633
66188SOL    HW2  462   5.021  12.366  11.544
66189SOL     OW  463  13.706   2.331   6.447
66189SOL    HW1  464  13.616   2.353   6.422
66189SOL    HW2  465  13.721   2.244   6.410
66190SOL     OW  466  10.089  10.942   1.570
66190SOL    HW1  467  10.116  10.862   1.617
66190SOL    HW2  468  10.022  10.981   1.626
66191SOL     OW  469  12.792  11.932  13.514
66191SOL    HW1  470  12.782  11.838  13.524
66191SOL    HW2  471  12.717  11.959  13.460
66192SOL     OW  472   0.598  14.709   6.629
66192SOL    HW1  473   0.518  14.733   6.675
66192SOL    HW2  474   0.606  14.614   6.641
66193SOL     OW  475   4.422   9.272   2.287
66193SOL    HW1  476   4.387   9.280   2.198
66193SOL    HW2  477   4.344   9.264   2.342
66194SOL     OW  478  13.501  13.115   6.485
66194SOL    HW1  479  13.414  13.077   6.496
66194SOL    HW2  480  13.484  13.207   6.463
66195SOL     OW  481  10.954   7.151   2.363
66195SOL    HW1  482  10.955   7.148   2.459
66195SOL    HW2  483  10.862   7.164   2.340
66196SOL     OW  484   8.765  14.518   4.492
66196SOL    HW1  485   8.797  14.606   4.477
66196SOL    HW2  486   8.794  14.497   4.581
66197SOL     OW  487   5.633   4.821   7.542
66197SOL    HW1  488   5.713   4.808   7.592
66197SOL    HW2  489   5.661   4.819   7.450
66198SOL     OW  490  11.853  10.333   0.098
66198SOL    HW1  491  11.784  10.327   0.164
66198SOL    HW2  492  11.933  10.347   0.148
66199SOL     OW  493   0.257   5.783   2.695
66199SOL    HW1  494   0.164   5.801   2.689
66199SOL    HW2  495   0.295   5.821   2.615
66200SOL     OW  496  10.591   8.663  11.965
66200SOL    HW1  497  10.666   8.622  12.007
66200SOL    HW2  498  10.558   8.597  11.905
66201SOL     OW  499  12.677   5.088   8.396
66201SOL    HW1  500  12.728   5.134   8.330
66201SOL    HW2  501  12.720   5.003   8.405
66202SOL     OW  502  13.299   1.331  14.805
66202SOL    HW1  503  13.313   1.403  14.867
66202SOL    HW2  504  13.337   1.361  14.723
66203SOL     OW  505  12.784   9.669   5.696
66203SOL    HW1  506  12.731   9.612   5.641
66203SOL    HW2  507  12.871   9.666   5.658
66204SOL     OW  508  12.243   2.001   0.079
66204SOL    HW1  509  12.244   2.054   0.158
66204SOL    HW2  510  12.171   1.940   0.091
66205SOL     OW  511   9.088   7.617  14.700
66205SOL    HW1  512   9.113   7.704  14.730
66205SOL    HW2  513   9.037   7.580  14.772
66206SOL     OW  514   8.529   9.835   2.760
66206SOL    HW1  515   8.576   9.910   2.797
66206SOL    HW2  516   8.559   9.829   2.670
66207SOL     OW  517   7.839   2.418   9.609
66207SOL    HW1  518   7.893   2.349   9.648
66207SOL    HW2  519   7.771   2.435   9.674
66208SOL     OW  520   4.170  13.180   0.380
66208SOL    HW1  521   4.193  13.267   0.349
66208SOL    HW2  522   4.234  13.161   0.448
66209SOL     OW  523   2.100  11.788  12.267
66209SOL    HW1  524   2.188  11.825  12.276
66209SOL    HW2  525   2.059  11.802  12.352
66210SOL     OW  526   3.754  13.782   6.302
66210SOL    HW1  527   3.846  13.799   6.322
66210SOL    HW2  528   3.707  13.857   6.338
66211SOL     OW  529   0.066   7.835   2.766
66211SOL    HW1  530   0.030   7.861   2.681
66211SOL    HW2  531  14.866   7.789   2.809
66212SOL     OW  532   9.245   0.036   8.289
66212SOL    HW1  533   9.165   0.020   8.239
66212SOL    HW2  534   9.311  14.853   8.246
66213SOL     OW  535   2.289   9.593   6.426
66213SOL    HW1  536   2.223   9.581   6.494
66213SOL    HW2  537   2.370   9.611   6.474
66214SOL     OW  538   6.552   6.822   3.160
66214SOL    HW1  539   6.634   6.871   3.148
66214SOL    HW2  540   6.554   6.754   3.092
66215SOL     OW  541   0.573  13.713   4.405
66215SOL    HW1  542   0.663  13.698   4.376
66215SOL    HW2  543   0.560  13.650   4.476
66216SOL     OW  544  14.019   6.251   6.902
66216SOL    HW1  545  13.969   6.171   6.884
66216SOL    HW2  546  13.967   6.320   6.861
66217SOL     OW  547   5.776  13.631  11.932
66217SOL    HW1  548   5.853  13.575  11.934
66217SOL    HW2  549   5.806  13.714  11.970
66218SOL     OW  550   6.024   6.751   6.975
66218SOL    HW1  551   6.006   6.840   6.946
66218SOL    HW2  552   5.967   6.696   6.920
66219SOL     OW  553  12.807  11.897  11.318
66219SOL    HW1  554  12.826  11.939  11.234
66219SOL    HW2  555  12.874  11.829  11.327
66220SOL     OW  556   9.922  10.215   9.442
66220SOL    HW1  557   9.974  10.284   9.403
66220SOL    HW2  558   9.847  10.260   9.482
66221SOL     OW  559  13.227   5.395   8.055
66221SOL    HW1  560  13.314   5.418   8.086
66221SOL    HW2  561  13.182   5.359   8.132
66222SOL     OW  562   3.725  12.858   9.607
66222SOL    HW1  563   3.808  12.811   9.618
66222SOL    HW2  564   3.751  12.944   9.574
66223SOL     OW  565   2.551  11.945   6.622
66223SOL    HW1  566   2.457  11.943   6.643
66223SOL    HW2  567   2.553  11.958   6.527
66224SOL     OW  568  13.467   2.354   9.685
66224SOL    HW1  569  13.442   2.369   9.776
66224SOL    HW2  570  13.388   2.372   9.634
66225SOL     OW  571   7.082   8.721   5.570
66225SOL    HW1  572   6.996   8.757   5.548
66225SOL    HW2  573   7.099   8.753   5.659
66226SOL     OW  574   2.259   2.084   0.632
66226SOL    HW1  575   2.167   2.110   0.633
66226SOL    HW2  576   2.256   1.989   0.616
66227SOL     OW  577   9.261   4.994   4.822
66227SOL    HW1  578   9.327   4.940   4.867
66227SOL    HW2  579   9.179   4.975   4.867
66228SOL     OW  580   0.965  13.379   3.152
66228SOL    HW1  581   0.953  13.471   3.175
66228SOL    HW2  582   0.996  13.338   3.232
66229SOL     OW  583   4.314  13.955   2.076
66229SOL    HW1  584   4.361  13.886   2.030
66229SOL    HW2  585   4.368  13.974   2.153
66230SOL     OW  586   5.052   9.666  13.365
66230SOL    HW1  587   4.994   9.712  13.426
66230SOL    HW2  588   5.139   9.701  13.384
66231SOL     OW  589   2.154   5.551   8.474
66231SOL    HW1  590   2.136   5.473   8.526
66231SOL    HW2  591   2.113   5.534   8.390
66232SOL     OW  592   7.360   8.113  13.458
66232SOL    HW1  593   7.393   8.176  13.522
66232SOL    HW2  594   7.280   8.152  13.425
66233SOL     OW  595   9.728   6.430   2.286
66233SOL    HW1  596   9.641   6.453   2.317
66233SOL    HW2  597   9.759   6.508   2.241
66234SOL     OW  598  14.146   1.660  10.932
66234SOL    HW1  599  14.124   1.704  10.850
66234SOL    HW2  600  14.117   1.720  11.000
66235SOL     OW  601   2.270  14.254   4.960
66235SOL    HW1  602   2.274  14.232   5.053
66235SOL    HW2  603   2.361  14.245   4.930
66236SOL     OW  604  12.087  11.852   1.922
66236SOL    HW1  605  12.002  11.835   1.962
66236SOL    HW2  606  12.092  11.948   1.916
66237SOL     OW  607  12.076  13.339   0.996
66237SOL    HW1  608  11.993  13.303   1.027
66237SOL    HW2  609  12.065  13.346   0.901
66238SOL     OW  610   9.325  11.952  12.503
66238SOL    HW1  611   9.266  11.879  12.521
66238SOL    HW2  612   9.411  11.912  12.494
66239SOL     OW  613   3.700   2.214   8.429
66239SOL    HW1  614   3.701   2.171   8.344
66239SOL    HW2  615   3.757   2.290   8.418
66240SOL     OW  616   2.088  14.642   4.319
66240SOL    HW1  617   2.163  14.681   4.274
66240SOL    HW2  618   2.124  14.606   4.400
66241SOL     OW  619  11.817  14.012   3.540
66241SOL    HW1  620  11.809  14.082   3.475
66241SOL    HW2  621  11.781  14.050   3.621
66242SOL     OW  622  10.415   4.688   9.293
66242SOL    HW1  623  10.340   4.746   9.284
66242SOL    HW2  624  10.473   4.712   9.221
66243SOL     OW  625   6.460   1.100  11.243
66243SOL    HW1  626   6.502   1.067  11.323
66243SOL    HW2  627   6.431   1.021  11.198
66244SOL     OW  628   5.772   3.035   2.335
66244SOL    HW1  629   5.717   2.959   2.350
66244SOL    HW2  630   5.822   3.013   2.256
66245SOL     OW  631   2.680  13.115   4.666
66245SOL    HW1  632   2.734  13.175   4.716
66245SOL    HW2  633   2.692  13.142   4.575
66246SOL     OW  634   7.490   2.544   7.711
66246SOL    HW1  635   7.463   2.613   7.651
66246SOL    HW2  636   7.535   2.589   7.782
66247SOL     OW  637  12.720  10.533  12.333
66247SOL    HW1  638  12.640  10.557  12.286
66247SOL    HW2  639  12.739  10.609  12.387
66248SOL     OW  640  12.797  12.827   5.021
66248SOL    HW1  641  12.732  12.848   5.088
66248SOL    HW2  642  12.749  12.777   4.955
66249SOL     OW  643   2.915   7.307   1.400
66249SOL    HW1  644   2.987   7.323   1.338
66249SOL    HW2  645   2.839   7.350   1.360
66250SOL     OW  646  12.043   6.945  14.150
66250SOL    HW1  647  12.092   6.879  14.100
66250SOL    HW2  648  11.976   6.895  14.196
66251SOL     OW  649  11.531   9.622   1.946
66251SOL    HW1  650  11.489   9.707   1.933
66251SOL    HW2  651  11.482   9.581   2.017
66252SOL     OW  652   7.329   3.592  10.578
66252SOL    HW1  653   7.419   3.625  10.575
66252SOL    HW2  654   7.334   3.504  10.540
66253SOL     OW  655   1.492   4.125   9.521
66253SOL    HW1  656   1.520   4.079   9.600
66253SOL    HW2  657   1.441   4.200   9.553
66254SOL     OW  658   8.198   8.544   6.986
66254SOL    HW1  659   8.111   8.563   7.020
66254SOL    HW2  660   8.195   8.451   6.962
66255SOL     OW  661   4.261  13.808   4.700
66255SOL    HW1  662   4.312  13.763   4.768
66255SOL    HW2  663   4.180  13.833   4.744
66256SOL     OW  664   9.449  12.058   4.614
66256SOL    HW1  665   9.427  11.973   4.576
66256SOL    HW2  666   9.364  12.102   4.625
66257SOL     OW  667   2.246   9.404   3.266
66257SOL    HW1  668   2.282   9.400   3.178
66257SOL    HW2  669   2.258   9.315   3.300
66258SOL     OW  670   3.277  11.886  13.009
66258SOL    HW1  671   3.354  11.942  12.999
66258SOL    HW2  672   3.222  11.908  12.934
66259SOL     OW  673   2.902   4.247  14.418
66259SOL    HW1  674   2.965   4.210  14.357
66259SOL    HW2  675   2.895   4.182  14.488
66260SOL     OW  676  13.646   4.715  10.139
66260SOL    HW1  677  13.670   4.792  10.190
66260SOL    HW2  678  13.578   4.672  10.192
66261SOL     OW  679  10.380  10.218   3.005
66261SOL    HW1  680  10.385  10.306   2.966
66261SOL    HW2  681  10.332  10.231   3.087
66262SOL     OW  682  12.935   7.712  14.612
66262SOL    HW1  683  12.937   7.806  14.592
66262SOL    HW2  684  12.882   7.706  14.692
66263SOL     OW  685   0.810  11.879  14.072
66263SOL    HW1  686   0.766  11.931  14.140
66263SOL    HW2  687   0.901  11.875  14.101
66264SOL     OW  688  11.665   1.467   2.853
66264SOL    HW1  689  11.725   1.541   2.865
66264SOL    HW2  690  11.697   1.400   2.914
66265SOL     OW  691   0.714   6.409   4.572
66265SOL    HW1  692   0.702   6.346   4.500
66265SOL    HW2  693   0.755   6.358   4.642
66266SOL     OW  694   9.535  12.667  14.342
66266SOL    HW1  695   9.483  12.704  14.413
66266SOL    HW2  696   9.523  12.728  14.269
66267SOL     OW  697   9.889   0.441   9.974
66267SOL    HW1  698   9.948   0.503  10.017
66267SOL    HW2  699   9.887   0.469   9.883
66268SOL     OW  700  11.236   9.106   1.895
66268SOL    HW1  701  11.216   9.187   1.944
66268SOL    HW2  702  11.279   9.137   1.815
66269SOL     OW  703   2.597   5.491   4.136
66269SOL    HW1  704   2.539   5.560   4.104
66269SOL    HW2  705   2.577   5.416   4.080
66270SOL     OW  706   9.289   2.009  11.775
66270SOL    HW1  707   9.246   2.079  11.726
66270SOL    HW2  708   9.271   2.030  11.867
66271SOL     OW  709   4.806   2.704   7.278
66271SOL    HW1  710   4.717   2.727   7.250
66271SOL    HW2  711   4.806   2.609   7.282
66272SOL     OW  712   5.174  13.890   2.833
66272SOL    HW1  713   5.191  13.974   2.789
66272SOL    HW2  714   5.256  13.841   2.825
66273SOL     OW  715   2.626  11.424  11.321
66273SOL    HW1  716   2.597  11.333  11.327
66273SOL    HW2  717   2.699  11.430  11.383
66274SOL     OW  718   9.348  11.380   7.422
66274SOL    HW1  719   9.365  11.464   7.463
66274SOL    HW2  720   9.265  11.392   7.376
66275SOL     OW  721   1.367   1.398   8.207
66275SOL    HW1  722   1.324   1.448   8.277
66275SOL    HW2  723   1.452   1.373   8.243
66276SOL     OW  724  13.797   5.742  12.724
66276SOL    HW1  725  13.712   5.708  12.750
66276SOL    HW2  726  13.815   5.702  12.639
66277SOL     OW  727  13.344   5.195   3.258
66277SOL    HW1  728  13.263   5.200   3.208
66277SOL    HW2  729  13.340   5.269   3.319
66278SOL     OW  730   7.080  10.560  13.811
66278SOL    HW1  731   7.020  10.579  13.883
66278SOL    HW2  732   7.037  10.491  13.761
66279SOL     OW  733   6.971   7.610   6.362
66279SOL    HW1  734   6.889   7.649   6.333
66279SOL    HW2  735   7.024   7.684   6.391
66280SOL     OW  736  13.639  13.880   9.031
66280SOL    HW1  737  13.666  13.954   9.085
66280SOL    HW2  738  13.680  13.804   9.072
66281SOL     OW  739  14.288   9.238   8.272
66281SOL    HW1  740  14.201   9.253   8.309
66281SOL    HW2  741  14.273   9.229   8.178
66282SOL     OW  742   6.530   3.629  11.227
66282SOL    HW1  743   6.591   3.556  11.233
66282SOL    HW2  744   6.584   3.707  11.240
66283SOL     OW  745   8.157  10.733  10.426
66283SOL    HW1  746   8.246  10.734  10.461
66283SOL    HW2  747   8.146  10.821  10.388
66284SOL     OW  748   8.950  11.711   2.895
66284SOL    HW1  749   9.030  11.734   2.942
66284SOL    HW2  750   8.921  11.793   2.856
66285SOL     OW  751   7.523   3.528  13.883
66285SOL    HW1  752   7.472   3.497  13.808
66285SOL    HW2  753   7.614   3.517  13.857
66286SOL     OW  754   1.560   2.627   2.012
66286SOL    HW1  755   1.535   2.571   2.086
66286SOL    HW2  756   1.630   2.578   1.968
66287SOL     OW  757   3.864   8.634  13.093
66287SOL    HW1  758   3.892   8.595  13.176
66287SOL    HW2  759   3.792   8.578  13.063
66288SOL     OW  760  10.622   3.791   4.452
66288SOL    HW1  761  10.677   3.731   4.501
66288SOL    HW2  762  10.683   3.852   4.411
66289SOL     OW  763   1.861   9.244   0.701
66289SOL    HW1  764   1.854   9.175   0.767
66289SOL    HW2  765   1.814   9.318   0.738
66290SOL     OW  766   9.451   1.799   7.414
66290SOL    HW1  767   9.500   1.727   7.373
66290SOL    HW2  768   9.378   1.815   7.354
66291SOL     OW  769   4.114   6.355   3.286
66291SOL    HW1  770   4.149   6.392   3.205
66291SOL    HW2  771   4.191   6.343   3.342
66292SOL     OW  772   4.184   7.107   4.545
66292SOL    HW1  773   4.245   7.178   4.563
66292SOL    HW2  774   4.224   7.030   4.587
66293SOL     OW  775   4.354   0.645   9.508
66293SOL    HW1  776   4.449   0.633   9.508
66293SOL    HW2  777   4.323   0.594   9.582
66294SOL     OW  778   8.185  13.099   2.924
66294SOL    HW1  779   8.231  13.035   2.870
66294SOL    HW2  780   8.188  13.180   2.874
66295SOL     OW  781   3.885   4.703  11.336
66295SOL    HW1  782   3.808   4.707  11.279
66295SOL    HW2  783   3.852   4.730  11.422
66296SOL     OW  784  11.461   4.244   3.851
66296SOL    HW1  785  11.496   4.248   3.940
66296SOL    HW2  786  11.371   4.215   3.861
66297SOL     OW  787   6.463  11.591  12.573
66297SOL    HW1  788   6.533  11.603  12.638
66297SOL    HW2  789   6.504  11.613  12.490
66298SOL     OW  790   5.788  12.795   0.343
66298SOL    HW1  791   5.755  12.762   0.260
66298SOL    HW2  792   5.815  12.716   0.391
66299SOL     OW  793   0.683   4.170   4.152
66299SOL    HW1  794   0.762   4.217   4.178
66299SOL    HW2  795   0.713   4.081   4.135
66300SOL     OW  796   2.906  13.730  10.363
66300SOL    HW1  797   2.819  13.707  10.331
66300SOL    HW2  798   2.924  13.666  10.432
66301SOL     OW  799   3.921   8.474   7.532
66301SOL    HW1  800   3.971   8.442   7.457
66301SOL    HW2  801   3.958   8.561   7.550
66302SOL     OW  802  14.297  13.820  14.109
66302SOL    HW1  803  14.325  13.792  14.196
66302SOL    HW2  804  14.372  13.868  14.074
66303SOL     OW  805   8.119  10.230   1.357
66303SOL    HW1  806   8.192  10.172   1.380
66303SOL    HW2  807   8.108  10.218   1.263
66304SOL     OW  808   3.485   4.066   2.168
66304SOL    HW1  809   3.461   4.107   2.085
66304SOL    HW2  810   3.469   4.133   2.234
66305SOL     OW  811   7.576   7.398   4.887
66305SOL    HW1  812   7.625   7.338   4.943
66305SOL    HW2  813   7.514   7.342   4.841
66306SOL     OW  814   3.654   2.783  11.013
66306SOL    HW1  815   3.587   2.714  11.021
66306SOL    HW2  816   3.604   2.865  11.013
66307SOL     OW  817  12.050   5.906   1.316
66307SOL    HW1  818  12.039   5.820   1.358
66307SOL    HW2  819  12.048   5.887   1.222
66308SOL     OW  820  13.940  13.909   0.625
66308SOL    HW1  821  14.000  13.849   0.670
66308SOL    HW2  822  13.868  13.854   0.595
66309SOL     OW  823  12.515   4.931  11.795
66309SOL    HW1  824  12.456   4.857  11.807
66309SOL    HW2  825  12.465   5.007  11.824
66310SOL     OW  826   2.235   9.427   4.344
66310SOL    HW1  827   2.183   9.472   4.410
66310SOL    HW2  828   2.187   9.346   4.327
66311SOL     OW  829   8.553   7.263   6.559
66311SOL    HW1  830   8.562   7.316   6.481
66311SOL    HW2  831   8.605   7.184   6.541
66312SOL     OW  832   2.501   9.694   2.887
66312SOL    HW1  833   2.450   9.665   2.811
66312SOL    HW2  834   2.579   9.734   2.849
66313SOL     OW  835   1.134   9.214   5.384
66313SOL    HW1  836   1.213   9.166   5.410
66313SOL    HW2  837   1.063   9.168   5.428
66314SOL     OW  838  11.265  10.542   5.590
66314SOL    HW1  839  11.346  10.537   5.640
66314SOL    HW2  840  11.262  10.632   5.557
66315SOL     OW  841   8.535   9.425  13.739
66315SOL    HW1  842   8.479   9.349  13.758
66315SOL    HW2  843   8.622   9.388  13.724
66316SOL     OW  844  13.761   5.217  11.245
66316SOL    HW1  845  13.785   5.252  11.331
66316SOL    HW2  846  13.810   5.135  11.238
66317SOL     OW  847  11.691   0.077   5.119
66317SOL    HW1  848  11.764   0.018   5.135
66317SOL    HW2  849  11.647   0.041   5.042
66318SOL     OW  850   6.097   1.395  12.411
66318SOL    HW1  851   6.174   1.360  12.367
66318SOL    HW2  852   6.133   1.452  12.479
66319SOL     OW  853   5.210   1.483   7.822
66319SOL    HW1  854   5.195   1.477   7.728
66319SOL    HW2  855   5.225   1.576   7.839
66320SOL     OW  856   4.620   6.394   3.411
66320SOL    HW1  857   4.674   6.406   3.489
66320SOL    HW2  858   4.647   6.310   3.376
66321SOL     OW  859  13.872   1.561   4.344
66321SOL    HW1  860  13.901   1.616   4.271
66321SOL    HW2  861  13.797   1.608   4.381
66322SOL     OW  862   2.006   7.487  12.112
66322SOL    HW1  863   2.007   7.562  12.053
66322SOL    HW2  864   2.085   7.496  12.165
66323SOL     OW  865  10.055   8.202   8.957
66323SOL    HW1  866   9.959   8.197   8.958
66323SOL    HW2  867  10.081   8.176   9.045
66324SOL     OW  868   5.144  14.173  12.024
66324SOL    HW1  869   5.099  14.117  12.087
66324SOL    HW2  870   5.078  14.191  11.957
66325SOL     OW  871  12.987   1.861  11.091
66325SOL    HW1  872  12.978   1.813  11.173
66325SOL    HW2  873  13.025   1.946  11.118
66326SOL     OW  874   9.738   9.766  12.732
66326SOL    HW1  875   9.701   9.833  12.789
66326SOL    HW2  876   9.723   9.684  12.778
66327SOL     OW  877   6.732   7.406  14.416
66327SOL    HW1  878   6.714   7.317  14.385
66327SOL    HW2  879   6.735   7.459  14.336
66328SOL     OW  880   8.194  11.604   9.525
66328SOL    HW1  881   8.151  11.572   9.604
66328SOL    HW2  882   8.127  11.656   9.480
66329SOL     OW  883   8.011  12.257   8.255
66329SOL    HW1  884   7.917  12.274   8.265
66329SOL    HW2  885   8.024  12.255   8.160
66330SOL     OW  886  10.070   4.237   5.660
66330SOL    HW1  887  10.023   4.154   5.653
66330SOL    HW2  888  10.080   4.250   5.755
66331SOL     OW  889   2.501  12.393   3.584
66331SOL    HW1  890   2.587  12.390   3.541
66331SOL    HW2  891   2.521  12.395   3.677
66332SOL     OW  892   8.011   4.241  12.131
66332SOL    HW1  893   7.974   4.158  12.160
66332SOL    HW2  894   8.102   4.238  12.160
66333SOL     OW  895   3.465  10.772   1.363
66333SOL    HW1  896   3.524  10.841   1.334
66333SOL    HW2  897   3.443  10.796   1.454
66334SOL     OW  898   5.098  10.676   8.045
66334SOL    HW1  899   5.003  10.666   8.048
66334SOL    HW2  900   5.113  10.768   8.067
66335SOL     OW  901   3.302   3.261   2.749
66335SOL    HW1  902   3.330   3.221   2.831
66335SOL    HW2  903   3.326   3.353   2.758
66336SOL     OW  904   5.056   6.203   4.407
66336SOL    HW1  905   5.014   6.129   4.452
66336SOL    HW2  906   4.989   6.271   4.404
66337SOL     OW  907   7.379   6.344  13.386
66337SOL    HW1  908   7.439   6.418  13.377
66337SOL    HW2  909   7.427   6.270  13.348
66338SOL     OW  910   8.615   8.372  11.029
66338SOL    HW1  911   8.541   8.312  11.017
66338SOL    HW2  912   8.623   8.417  10.945
66339SOL     OW  913  12.935   8.943   7.929
66339SOL    HW1  914  12.979   8.996   7.995
66339SOL    HW2  915  12.866   8.999   7.894
66340SOL     OW  916   2.278  11.109  12.203
66340SOL    HW1  917   2.194  11.075  12.233
66340SOL    HW2  918   2.312  11.158  12.278
66341SOL     OW  919   1.567   5.186   8.243
66341SOL    HW1  920   1.601   5.240   8.172
66341SOL    HW2  921   1.644   5.145   8.282
66342SOL     OW  922   0.263  10.961   4.442
66342SOL    HW1  923   0.224  10.873   4.441
66342SOL    HW2  924   0.208  11.011   4.502
66343SOL     OW  925   2.062   4.065   5.940
66343SOL    HW1  926   2.118   4.041   6.014
66343SOL    HW2  927   2.088   4.004   5.870
66344SOL     OW  928   4.480  10.111  11.442
66344SOL    HW1  929   4.556  10.154  11.479
66344SOL    HW2  930   4.512  10.026  11.412
66345SOL     OW  931   7.521  12.634   3.715
66345SOL    HW1  932   7.600  12.626   3.768
66345SOL    HW2  933   7.455  12.583   3.763
66346SOL     OW  934   3.872  12.535   5.436
66346SOL    HW1  935   3.825  12.615   5.460
66346SOL    HW2  936   3.811  12.464   5.457
66347SOL     OW  937   2.038   6.519   5.180
66347SOL    HW1  938   1.946   6.522   5.206
66347SOL    HW2  939   2.041   6.571   5.099
66348SOL     OW  940  14.757   6.123   9.583
66348SOL    HW1  941  14.742   6.056   9.650
66348SOL    HW2  942  14.781   6.073   9.505
66349SOL     OW  943   7.460   2.649   9.596
66349SOL    HW1  944   7.490   2.558   9.605
66349SOL    HW2  945   7.538   2.701   9.613
66350SOL     OW  946   3.810  10.033  12.609
66350SOL    HW1  947   3.783   9.978  12.536
66350SOL    HW2  948   3.880   9.984  12.652
66351SOL     OW  949   0.252   2.298   8.864
66351SOL    HW1  950   0.308   2.234   8.908
66351SOL    HW2  951   0.268   2.380   8.911
66352SOL     OW  952   4.121  11.596   1.518
66352SOL    HW1  953   4.053  11.536   1.546
66352SOL    HW2  954   4.203  11.553   1.544
66353SOL     OW  955   7.833  11.554   8.757
66353SOL    HW1  956   7.887  11.633   8.765
66353SOL    HW2  957   7.896  11.484   8.737
66354SOL     OW  958   2.189   5.713   2.874
66354SOL    HW1  959   2.120   5.674   2.928
66354SOL    HW2  960   2.249   5.754   2.936
66355SOL     OW  961   5.689  11.169   2.673
66355SOL    HW1  962   5.739  11.240   2.631
66355SOL    HW2  963   5.753  11.099   2.685
66356SOL     OW  964   3.634   0.618   8.577
66356SOL    HW1  965   3.646   0.527   8.603
66356SOL    HW2  966   3.596   0.613   8.490
66357SOL     OW  967   5.727   4.125   8.951
66357SOL    HW1  968   5.716   4.045   8.899
66357SOL    HW2  969   5.797   4.173   8.905
66358SOL     OW  970  13.880   3.776   0.837
66358SOL    HW1  971  13.857   3.857   0.883
66358SOL    HW2  972  13.970   3.790   0.808
66359SOL     OW  973   3.181   8.439   5.257
66359SOL    HW1  974   3.177   8.387   5.177
66359SOL    HW2  975   3.273   8.463   5.266
66360SOL     OW  976  13.133   9.832   4.589
66360SOL    HW1  977  13.199   9.789   4.534
66360SOL    HW2  978  13.097   9.901   4.533
66361SOL     OW  979   9.431   6.649  13.012
66361SOL    HW1  980   9.491   6.720  13.032
66361SOL    HW2  981   9.396   6.622  13.097
66362SOL     OW  982   7.004  11.589  14.282
66362SOL    HW1  983   6.930  11.548  14.236
66362SOL    HW2  984   7.050  11.637  14.213
66363SOL     OW  985  11.608   8.660   4.338
66363SOL    HW1  986  11.596   8.634   4.429
66363SOL    HW2  987  11.703   8.662   4.327
66364SOL     OW  988   0.384  14.474   0.327
66364SOL    HW1  989   0.381  14.444   0.236
66364SOL    HW2  990   0.413  14.565   0.321
66365SOL     OW  991   7.328   7.543  13.490
66365SOL    HW1  992   7.418   7.576  13.488
66365SOL    HW2  993   7.324   7.478  13.420
66366SOL     OW  994  13.213   5.793  13.135
66366SOL    HW1  995  13.197   5.797  13.229
66366SOL    HW2  996  13.131   5.760  13.098
66367SOL     OW  997   9.450   6.062  13.247
66367SOL    HW1  998   9.390   6.019  13.185
66367SOL    HW2  999   9.462   6.150  13.212
66368SOL     OW 1000   7.215  13.348   2.624
66368SOL    HW1 1001   7.124  13.319   2.633
66368SOL    HW2 1002   7.253  13.288   2.559
66369SOL     OW 1003   2.036   3.355  10.974
66369SOL    HW1 1004   2.078   3.368  11.058
66369SOL    HW2 1005   2.106   3.327  10.915
66370SOL     OW 1006   6.726   3.526  10.792
66370SOL    HW1 1007   6.660   3.595  10.796
66370SOL    HW2 1008   6.796   3.557  10.849
66371SOL     OW 1009   5.875  11.117   1.482
66371SOL    HW1 1010   5.888  11.143   1.390
66371SOL    HW2 1011   5.785  11.143   1.501
66372SOL     OW 1012  10.231   5.573   8.008
66372SOL    HW1 1013  10.310   5.610   8.048
66372SOL    HW2 1014  10.226   5.485   8.044
66373SOL     OW 1015  10.594   8.528   4.711
66373SOL    HW1 1016  10.628   8.448   4.672
66373SOL    HW2 1017  10.499   8.521   4.700
66374SOL     OW 1018   6.074   3.881   6.444
66374SOL    HW1 1019   6.138   3.847   6.506
66374SOL    HW2 1020   6.120   3.880   6.360
66375SOL     OW 1021  14.687   6.445   8.925
66375SOL    HW1 1022  14.644   6.506   8.986
66375SOL    HW2 1023  14.646   6.463   8.841
66376SOL     OW 1024  11.327  14.564   3.502
66376SOL    HW1 1025  11.349  14.586   3.593
66376SOL    HW2 1026  11.399  14.600   3.451
66377SOL     OW 1027   2.863   6.396   6.568
66377SOL    HW1 1028   2.854   6.377   6.662
66377SOL    HW2 1029   2.846   6.490   6.562
66378SOL     OW 1030   2.639   2.199  11.992
66378SOL    HW1 1031   2.709   2.244  11.947
66378SOL    HW2 1032   2.662   2.106  11.987
66379SOL     OW 1033   3.494   9.130   6.464
66379SOL    HW1 1034   3.541   9.177   6.533
66379SOL    HW2 1035   3.485   9.194   6.393
66380SOL     OW 1036  10.402  10.552  11.001
66380SOL    HW1 1037  10.344  10.506  11.061
66380SOL    HW2 1038  10.419  10.636  11.043
66381SOL     OW 1039  12.772   4.810   8.420
66381SOL    HW1 1040  12.839   4.794   8.488
66381SOL    HW2 1041  12.692   4.775   8.457
66382SOL     OW 1042   9.816  11.359  13.711
66382SOL    HW1 1043   9.846  11.374  13.801
66382SOL    HW2 1044   9.727  11.393  13.709
66383SOL     OW 1045  14.138  12.494   0.651
66383SOL    HW1 1046  14.128  12.446   0.569
66383SOL    HW2 1047  14.062  12.468   0.703
66384SOL     OW 1048   1.072   4.855   8.586
66384SOL    HW1 1049   1.152   4.859   8.638
66384SOL    HW2 1050   1.090   4.788   8.520
66385SOL     OW 1051  14.862  11.610   6.675
66385SOL    HW1 1052   0.081  11.582   6.672
66385SOL    HW2 1053  14.815  11.534   6.711
66386SOL     OW 1054  10.777  12.089   5.637
66386SOL    HW1 1055  10.737  12.004   5.656
66386SOL    HW2 1056  10.733  12.119   5.557
66387SOL     OW 1057   4.305  11.756   8.508
66387SOL    HW1 1058   4.360  11.714   8.441
66387SOL    HW2 1059   4.367  11.801   8.565
66388SOL     OW 1060   2.341   0.528   4.563
66388SOL    HW1 1061   2.276   0.589   4.527
66388SOL    HW2 1062   2.289   0.458   4.602
66389SOL     OW 1063   9.230   9.653  12.963
66389SOL    HW1 1064   9.302   9.714  12.974
66389SOL    HW2 1065   9.205   9.660  12.871
66390SOL     OW 1066   1.864   5.843   0.370
66390SOL    HW1 1067   1.871   5.915   0.434
66390SOL    HW2 1068   1.853   5.888   0.286
66391SOL     OW 1069  14.655  14.232   6.968
66391SOL    HW1 1070  14.620  14.156   7.015
66391SOL    HW2 1071  14.731  14.258   7.020
66392SOL     OW 1072   7.418  13.636  13.231
66392SOL    HW1 1073   7.371  13.578  13.172
66392SOL    HW2 1074   7.499  13.589  13.252
66393SOL     OW 1075   8.524   4.320  13.343
66393SOL    HW1 1076   8.601   4.308  13.288
66393SOL    HW2 1077   8.555   4.299  13.432
66394SOL     OW 1078   2.991   8.480   3.571
66394SOL    HW1 1079   3.081   8.497   3.545
66394SOL    HW2 1080   2.938   8.523   3.504
66395SOL     OW 1081   4.398   8.141   2.335
66395SOL    HW1 1082   4.394   8.076   2.265
66395SOL    HW2 1083   4.355   8.218   2.298
66396SOL     OW 1084   1.688   2.271   3.670
66396SOL    HW1 1085   1.657   2.337   3.609
66396SOL    HW2 1086   1.713   2.197   3.615
66397SOL     OW 1087   0.887   4.557   0.475
66397SOL    HW1 1088   0.969   4.509   0.485
66397SOL    HW2 1089   0.883   4.580   0.382
66398SOL     OW 1090   8.215   1.968  12.311
66398SOL    HW1 1091   8.126   1.949  12.343
66398SOL    HW2 1092   8.250   1.883  12.285
66399SOL     OW 1093  12.364   1.193   9.443
66399SOL    HW1 1094  12.330   1.255   9.378
66399SOL    HW2 1095  12.455   1.179   9.418
66400SOL     OW 1096   7.570   4.528   5.797
66400SOL    HW1 1097   7.637   4.596   5.790
66400SOL    HW2 1098   7.506   4.565   5.858
66401SOL     OW 1099  11.836   9.832   5.074
66401SOL    HW1 1100  11.835   9.793   5.161
66401SOL    HW2 1101  11.866   9.921   5.088
66402SOL     OW 1102  12.719  12.289   5.751
66402SOL    HW1 1103  12.624  12.278   5.747
66402SOL    HW2 1104  12.741  12.328   5.666
66403SOL     OW 1105  10.018   4.710   7.421
66403SOL    HW1 1106   9.974   4.792   7.440
66403SOL    HW2 1107  10.039   4.673   7.507
66404SOL     OW 1108   7.146   5.933   9.528
66404SOL    HW1 1109   7.098   6.014   9.512
66404SOL    HW2 1110   7.234   5.951   9.497
66405SOL     OW 1111   0.685   1.721   8.105
66405SOL    HW1 1112   0.604   1.704   8.057
66405SOL    HW2 1113   0.662   1.709   8.197
66406SOL     OW 1114   8.174   8.719   6.740
66406SOL    HW1 1115   8.235   8.793   6.742
66406SOL    HW2 1116   8.195   8.669   6.819
66407SOL     OW 1117   5.873   9.557  13.809
66407SOL    HW1 1118   5.902   9.492  13.746
66407SOL    HW2 1119   5.807   9.608  13.762
66408SOL     OW 1120   4.148   2.798  11.776
66408SOL    HW1 1121   4.127   2.769  11.688
66408SOL    HW2 1122   4.204   2.874  11.764
66409SOL     OW 1123   7.830  11.031   6.175
66409SOL    HW1 1124   7.828  10.972   6.100
66409SOL    HW2 1125   7.798  10.978   6.248
66410SOL     OW 1126   4.206   6.968   6.570
66410SOL    HW1 1127   4.196   6.899   6.635
66410SOL    HW2 1128   4.289   6.947   6.525
66411SOL     OW 1129  14.784   4.615   0.782
66411SOL    HW1 1130  14.866   4.629   0.829
66411SOL    HW2 1131  14.804   4.637   0.691
66412SOL     OW 1132   1.131   0.540  14.420
66412SOL    HW1 1133   1.110   0.622  14.465
66412SOL    HW2 1134   1.214   0.513  14.459
66413SOL     OW 1135   1.436   2.210  13.915
66413SOL    HW1 1136   1.348   2.239  13.892
66413SOL    HW2 1137   1.491   2.242  13.843
66414SOL     OW 1138   8.086   1.768  12.811
66414SOL    HW1 1139   8.017   1.760  12.745
66414SOL    HW2 1140   8.168   1.759  12.762
66415SOL     OW 1141   9.831   5.240   8.293
66415SOL    HW1 1142   9.742   5.275   8.283
66415SOL    HW2 1143   9.818   5.145   8.303
66416SOL     OW 1144   7.382  14.846  12.372
66416SOL    HW1 1145   7.439   0.045  12.401
66416SOL    HW2 1146   7.407  14.830  12.281
66417SOL     OW 1147   9.113  10.610  10.590
66417SOL    HW1 1148   9.082  10.530  10.546
66417SOL    HW2 1149   9.033  10.650  10.624
66418SOL     OW 1150  12.632   5.521   5.730
66418SOL    HW1 1151  12.634   5.507   5.824
66418SOL    HW2 1152  12.546   5.488   5.703
66419SOL     OW 1153   6.645   1.681   4.416
66419SOL    HW1 1154   6.695   1.751   4.458
66419SOL    HW2 1155   6.556   1.715   4.409
66420SOL     OW 1156   6.531   4.018   1.265
66420SOL    HW1 1157   6.456   4.062   1.305
66420SOL    HW2 1158   6.607   4.062   1.302
66421SOL     OW 1159   1.123   1.053   4.594
66421SOL    HW1 1160   1.145   1.035   4.503
66421SOL    HW2 1161   1.187   1.119   4.622
66422SOL     OW 1162  12.492  11.199  11.461
66422SOL    HW1 1163  12.499  11.291  11.488
66422SOL    HW2 1164  12.423  11.199  11.395
66423SOL     OW 1165   9.807  13.734  12.358
66423SOL    HW1 1166   9.878  13.779  12.313
66423SOL    HW2 1167   9.824  13.641  12.344
66424SOL     OW 1168  13.270  11.924   3.564
66424SOL    HW1 1169  13.351  11.880   3.588
66424SOL    HW2 1170  13.264  11.915   3.469
66425SOL     OW 1171   7.349   3.801   1.290
66425SOL    HW1 1172   7.351   3.848   1.373
66425SOL    HW2 1173   7.390   3.717   1.309
66426SOL     OW 1174  14.869  12.229   3.434
66426SOL    HW1 1175  14.786  12.192   3.404
66426SOL    HW2 1176  14.856  12.243   3.528
66427SOL     OW 1177   8.986   6.691   7.778
66427SOL    HW1 1178   8.907   6.664   7.825
66427SOL    HW2 1179   8.953   6.746   7.707
66428SOL     OW 1180  13.344  13.683   1.246
66428SOL    HW1 1181  13.341  13.706   1.339
66428SOL    HW2 1182  13.291  13.604   1.240
66429SOL     OW 1183   9.339   1.895  14.511
66429SOL    HW1 1184   9.369   1.899  14.602
66429SOL    HW2 1185   9.418   1.884  14.459
66430SOL     OW 1186   3.616  12.293  10.911
66430SOL    HW1 1187   3.669  12.250  10.978
66430SOL    HW2 1188   3.559  12.224  10.878
66431SOL     OW 1189   9.983   6.599   9.727
66431SOL    HW1 1190   9.980   6.511   9.764
66431SOL    HW2 1191   9.893   6.631   9.730
66432SOL     OW 1192  11.543   7.423  14.607
66432SOL    HW1 1193  11.463   7.370  14.607
66432SOL    HW2 1194  11.565   7.432  14.514
66433SOL     OW 1195   1.538   2.788  12.338
66433SOL    HW1 1196   1.603   2.854  12.314
66433SOL    HW2 1197   1.485   2.777  12.259
66434SOL     OW 1198   1.334  11.292   6.631
66434SOL    HW1 1199   1.254  11.244   6.611
66434SOL    HW2 1200   1.385  11.232   6.686
66435SOL     OW 1201  12.309   8.368   0.356
66435SOL    HW1 1202  12.292   8.431   0.285
66435SOL    HW2 1203  12.244   8.389   0.423
66436SOL     OW 1204   8.188   8.211   9.493
66436SOL    HW1 1205   8.177   8.139   9.432
66436SOL    HW2 1206   8.123   8.195   9.562
66437SOL     OW 1207   2.945   4.964  14.714
66437SOL    HW1 1208   3.027   4.977  14.763
66437SOL    HW2 1209   2.968   4.899  14.647
66438SOL     OW 1210   1.926   5.644   9.744
66438SOL    HW1 1211   1.914   5.567   9.800
66438SOL    HW2 1212   1.891   5.617   9.659
66439SOL     OW 1213   2.849   8.399  13.529
66439SOL    HW1 1214   2.873   8.476  13.477
66439SOL    HW2 1215   2.825   8.435  13.614
66440SOL     OW 1216   2.221   5.791   9.490
66440SOL    HW1 1217   2.143   5.737   9.477
66440SOL    HW2 1218   2.217   5.816   9.583
66441SOL     OW 1219   0.631   6.077   4.666
66441SOL    HW1 1220   0.615   6.056   4.574
66441SOL    HW2 1221   0.579   6.013   4.715
66442SOL     OW 1222   5.103  12.082  11.357
66442SOL    HW1 1223   5.100  12.044  11.269
66442SOL    HW2 1224   5.019  12.058  11.395
66443SOL     OW 1225  11.279  11.854   8.076
66443SOL    HW1 1226  11.245  11.806   8.000
66443SOL    HW2 1227  11.202  11.896   8.114
66444SOL     OW 1228  10.764  11.208   7.974
66444SOL    HW1 1229  10.681  11.163   7.958
66444SOL    HW2 1230  10.740  11.301   7.983
66445SOL     OW 1231   6.209  12.286   9.856
66445SOL    HW1 1232   6.250  12.210   9.813
66445SOL    HW2 1233   6.248  12.289   9.943
66446SOL     OW 1234   6.335   2.231   9.439
66446SOL    HW1 1235   6.306   2.165   9.376
66446SOL    HW2 1236   6.278   2.306   9.423
66447SOL     OW 1237   5.173   7.356   4.896
66447SOL    HW1 1238   5.187   7.357   4.990
66447SOL    HW2 1239   5.082   7.385   4.885
66448SOL     OW 1240   0.201   7.580   1.167
66448SOL    HW1 1241   0.137   7.519   1.205
66448SOL    HW2 1242   0.202   7.558   1.073
66449SOL     OW 1243   6.942   6.182   1.900
66449SOL    HW1 1244   6.926   6.213   1.989
66449SOL    HW2 1245   6.866   6.211   1.849
66450SOL     OW 1246   0.618  14.172  12.850
66450SOL    HW1 1247   0.657  14.259  12.857
66450SOL    HW2 1248   0.659  14.122  12.920
66451SOL     OW 1249   8.949   0.466   8.383
66451SOL    HW1 1250   9.036   0.488   8.418
66451SOL    HW2 1251   8.888   0.512   8.440
66452SOL     OW 1252  12.907   6.563   4.306
66452SOL    HW1 1253  12.957   6.578   4.226
66452SOL    HW2 1254  12.845   6.636   4.310
66453SOL     OW 1255   1.095  12.087   4.183
66453SOL    HW1 1256   1.089  12.183   4.178
66453SOL    HW2 1257   1.047  12.056   4.107
66454SOL     OW 1258   1.455   3.015  11.188
66454SOL    HW1 1259   1.364   3.040  11.203
66454SOL    HW2 1260   1.452   2.953  11.114
66455SOL     OW 1261   2.741   4.486  11.803
66455SOL    HW1 1262   2.772   4.454  11.887
66455SOL    HW2 1263   2.816   4.475  11.744
66456SOL     OW 1264   4.940  12.942   5.574
66456SOL    HW1 1265   4.906  12.881   5.639
66456SOL    HW2 1266   5.031  12.916   5.562
66457SOL     OW 1267  11.397  13.380   4.612
66457SOL    HW1 1268  11.346  13.390   4.531
66457SOL    HW2 1269  11.345  13.321   4.666
66458SOL     OW 1270   9.129  10.464   5.940
66458SOL    HW1 1271   9.206  10.443   5.993
66458SOL    HW2 1272   9.069  10.391   5.955
66459SOL     OW 1273  13.490   8.710  12.347
66459SOL    HW1 1274  13.445   8.756  12.277
66459SOL    HW2 1275  13.454   8.747  12.428
66460SOL     OW 1276   1.037   3.022   4.310
66460SOL    HW1 1277   1.102   3.087   4.336
66460SOL    HW2 1278   0.998   3.058   4.230
66461SOL     OW 1279   4.392   0.128  11.830
66461SOL    HW1 1280   4.382   0.105  11.737
66461SOL    HW2 1281   4.303   0.136  11.863
66462SOL     OW 1282  13.964   1.218  14.513
66462SOL    HW1 1283  13.980   1.136  14.562
66462SOL    HW2 1284  13.869   1.227  14.512
66463SOL     OW 1285   4.300   5.149   6.690
66463SOL    HW1 1286   4.390   5.165   6.661
66463SOL    HW2 1287   4.307   5.130   6.783
66464SOL     OW 1288  11.999   5.168   8.319
66464SOL    HW1 1289  11.987   5.084   8.275
66464SOL    HW2 1290  11.924   5.221   8.290
66465SOL     OW 1291   5.896   1.299   8.758
66465SOL    HW1 1292   5.875   1.286   8.851
66465SOL    HW2 1293   5.817   1.340   8.721
66466SOL     OW 1294  10.579   1.026   1.985
66466SOL    HW1 1295  10.546   1.112   1.960
66466SOL    HW2 1296  10.529   1.002   2.063
66467SOL     OW 1297  14.118   1.118  13.955
66467SOL    HW1 1298  14.208   1.110  13.924
66467SOL    HW2 1299  14.122   1.092  14.047
66468SOL     OW 1300   4.960   4.407   7.476
66468SOL    HW1 1301   4.933   4.497   7.494
66468SOL    HW2 1302   4.884   4.354   7.500
66469SOL     OW 1303   4.466   6.906   5.764
66469SOL    HW1 1304   4.536   6.843   5.782
66469SOL    HW2 1305   4.388   6.866   5.804
66470SOL     OW 1306   7.176   1.540  10.554
66470SOL    HW1 1307   7.212   1.516  10.640
66470SOL    HW2 1308   7.163   1.457  10.509
66471SOL     OW 1309   2.231   4.850   1.073
66471SOL    HW1 1310   2.188   4.902   1.005
66471SOL    HW2 1311   2.323   4.847   1.045
66472SOL     OW 1312   6.011   7.282   1.375
66472SOL    HW1 1313   6.072   7.237   1.434
66472SOL    HW2 1314   5.938   7.307   1.431
66473SOL     OW 1315  12.852  10.120   8.789
66473SOL    HW1 1316  12.834  10.160   8.874
66473SOL    HW2 1317  12.766  10.097   8.755
66474SOL     OW 1318   0.062   5.231  12.837
66474SOL    HW1 1319   0.097   5.318  12.818
66474SOL    HW2 1320   0.049   5.191  12.751
66475SOL     OW 1321   4.933   9.265   1.821
66475SOL    HW1 1322   4.960   9.355   1.803
66475SOL    HW2 1323   5.008   9.212   1.796
66476SOL     OW 1324   3.390   4.522  14.730
66476SOL    HW1 1325   3.467   4.562  14.689
66476SOL    HW2 1326   3.423   4.440  14.766
66477SOL     OW 1327  10.932  14.006  13.356
66477SOL    HW1 1328  10.853  13.990  13.408
66477SOL    HW2 1329  10.914  14.089  13.312
66478SOL     OW 1330  11.099  13.005  12.740
66478SOL    HW1 1331  11.159  13.007  12.666
66478SOL    HW2 1332  11.054  13.090  12.736
66479SOL     OW 1333   4.080  12.460   2.721
66479SOL    HW1 1334   3.996  12.418   2.702
66479SOL    HW2 1335   4.129  12.395   2.771
66480SOL     OW 1336   3.659   8.660  11.881
66480SOL    HW1 1337   3.684   8.735  11.827
66480SOL    HW2 1338   3.574   8.683  11.917
66481SOL     OW 1339   0.273   0.531  11.607
66481SOL    HW1 1340   0.336   0.559  11.542
66481SOL    HW2 1341   0.188   0.554  11.570
66482SOL     OW 1342   1.886  14.293   7.198
66482SOL    HW1 1343   1.875  14.216   7.143
66482SOL    HW2 1344   1.907  14.364   7.137
66483SOL     OW 1345   1.892  14.564   1.512
66483SOL    HW1 1346   1.935  14.489   1.471
66483SOL    HW2 1347   1.851  14.612   1.440
66484SOL     OW 1348  14.153   7.385  12.292
66484SOL    HW1 1349  14.217   7.314  12.302
66484SOL    HW2 1350  14.182   7.432  12.213
66485SOL     OW 1351   8.750   7.373   9.062
66485SOL    HW1 1352   8.720   7.449   9.112
66485SOL    HW2 1353   8.672   7.319   9.051
66486SOL     OW 1354  10.361   9.204   0.092
66486SOL    HW1 1355  10.328   9.225   0.005
66486SOL    HW2 1356  10.387   9.113   0.087
66487SOL     OW 1357  13.428   5.957   5.490
66487SOL    HW1 1358  13.357   5.982   5.431
66487SOL    HW2 1359  13.394   5.879   5.536
66488SOL     OW 1360   7.160   5.392  13.406
66488SOL    HW1 1361   7.066   5.372  13.405
66488SOL    HW2 1362   7.173   5.450  13.331
66489SOL     OW 1363  13.877   2.186   7.149
66489SOL    HW1 1364  13.857   2.094   7.136
66489SOL    HW2 1365  13.917   2.215   7.067
66490SOL     OW 1366   3.367   3.926   1.595
66490SOL    HW1 1367   3.284   3.946   1.554
66490SOL    HW2 1368   3.417   4.007   1.590
66491SOL     OW 1369   3.365  13.023  13.577
66491SOL    HW1 1370   3.364  13.017  13.481
66491SOL    HW2 1371   3.451  13.061  13.597
66492SOL     OW 1372   1.205  10.672   0.324
66492SOL    HW1 1373   1.143  10.629   0.265
66492SOL    HW2 1374   1.152  10.700   0.399
66493SOL     OW 1375  13.081   7.387   9.859
66493SOL    HW1 1376  13.167   7.425   9.843
66493SOL    HW2 1377  13.029   7.459   9.895
66494SOL     OW 1378   0.345  14.510   4.361
66494SOL    HW1 1379   0.421  14.549   4.318
66494SOL    HW2 1380   0.270  14.553   4.320
66495SOL     OW 1381   9.222   4.855   9.025
66495SOL    HW1 1382   9.152   4.912   8.993
66495SOL    HW2 1383   9.179   4.770   9.035
66496SOL     OW 1384   9.376   3.313   0.824
66496SOL    HW1 1385   9.350   3.387   0.769
66496SOL    HW2 1386   9.371   3.347   0.913
66497SOL     OW 1387   5.576  14.780  13.187
66497SOL    HW1 1388   5.605  14.836  13.115
66497SOL    HW2 1389   5.546  14.841  13.254
66498SOL     OW 1390   6.965   1.134   4.375
66498SOL    HW1 1391   6.970   1.054   4.323
66498SOL    HW2 1392   6.939   1.202   4.313
66499SOL     OW 1393   1.239   9.742   6.614
66499SOL    HW1 1394   1.145   9.733   6.595
66499SOL    HW2 1395   1.276   9.657   6.591
66500SOL     OW 1396   3.000   5.714   4.599
66500SOL    HW1 1397   3.018   5.796   4.646
66500SOL    HW2 1398   3.017   5.646   4.664
66501SOL     OW 1399   5.044  10.606   2.665
66501SOL    HW1 1400   4.951  10.627   2.667
66501SOL    HW2 1401   5.088  10.691   2.666
66502SOL     OW 1402   5.860   7.858  13.531
66502SOL    HW1 1403   5.811   7.791  13.482
66502SOL    HW2 1404   5.797   7.928  13.546
66503SOL     OW 1405   7.190   6.330   5.768
66503SOL    HW1 1406   7.097   6.344   5.748
66503SOL    HW2 1407   7.200   6.235   5.770
66504SOL     OW 1408   8.180  10.951   0.729
66504SOL    HW1 1409   8.131  10.869   0.723
66504SOL    HW2 1410   8.272  10.924   0.723
66505SOL     OW 1411   1.897   3.628  13.127
66505SOL    HW1 1412   1.947   3.569  13.071
66505SOL    HW2 1413   1.917   3.598  13.216
66506SOL     OW 1414   1.795   1.136   8.459
66506SOL    HW1 1415   1.797   1.197   8.534
66506SOL    HW2 1416   1.885   1.102   8.454
66507SOL     OW 1417  12.151   2.422   1.707
66507SOL    HW1 1418  12.161   2.486   1.777
66507SOL    HW2 1419  12.063   2.387   1.720
66508SOL     OW 1420   7.225  12.971   5.923
66508SOL    HW1 1421   7.169  13.038   5.962
66508SOL    HW2 1422   7.314  13.002   5.937
66509SOL     OW 1423   3.949   4.041   3.172
66509SOL    HW1 1424   3.939   4.136   3.183
66509SOL    HW2 1425   3.859   4.009   3.164
66510SOL     OW 1426   4.468  13.557  11.417
66510SOL    HW1 1427   4.465  13.610  11.337
66510SOL    HW2 1428   4.534  13.599  11.472
66511SOL     OW 1429   1.745   6.218   9.482
66511SOL    HW1 1430   1.797   6.246   9.556
66511SOL    HW2 1431   1.656   6.250   9.501
66512SOL     OW 1432  10.825   4.180   9.082
66512SOL    HW1 1433  10.889   4.111   9.065
66512SOL    HW2 1434  10.795   4.207   8.995
66513SOL     OW 1435   4.254  10.790   5.591
66513SOL    HW1 1436   4.159  10.780   5.590
66513SOL    HW2 1437   4.269  10.884   5.581
66514SOL     OW 1438   1.077  11.828   7.172
66514SOL    HW1 1439   1.071  11.761   7.104
66514SOL    HW2 1440   1.166  11.819   7.207
66515SOL     OW 1441  10.539   4.849   8.348
66515SOL    HW1 1442  10.569   4.836   8.258
66515SOL    HW2 1443  10.481   4.925   8.342
66516SOL     OW 1444  11.455   2.404  14.440
66516SOL    HW1 1445  11.462   2.491  14.480
66516SOL    HW2 1446  11.375   2.409  14.387
66517SOL     OW 1447   1.063  12.149   8.131
66517SOL    HW1 1448   1.054  12.174   8.223
66517SOL    HW2 1449   1.070  12.233   8.084
66518SOL     OW 1450   1.634  11.309   4.459
66518SOL    HW1 1451   1.729  11.303   4.467
66518SOL    HW2 1452   1.600  11.234   4.508
66519SOL     OW 1453   8.010   2.666   9.065
66519SOL    HW1 1454   8.091   2.708   9.095
66519SOL    HW2 1455   8.007   2.584   9.115
66520SOL     OW 1456   7.072   1.230   7.882
66520SOL    HW1 1457   7.088   1.150   7.831
66520SOL    HW2 1458   7.130   1.222   7.958
66521SOL     OW 1459   7.012   0.538   4.484
66521SOL    HW1 1460   6.924   0.537   4.522
66521SOL    HW2 1461   7.007   0.478   4.409
66522SOL     OW 1462   3.694   2.212   1.288
66522SOL    HW1 1463   3.663   2.211   1.379
66522SOL    HW2 1464   3.724   2.302   1.275
66523SOL     OW 1465  10.455   2.333   2.303
66523SOL    HW1 1466  10.456   2.311   2.210
66523SOL    HW2 1467  10.393   2.405   2.310
66524SOL     OW 1468  14.163  11.032   2.441
66524SOL    HW1 1469  14.207  11.004   2.361
66524SOL    HW2 1470  14.118  11.113   2.416
66525SOL     OW 1471  11.536  13.704   5.565
66525SOL    HW1 1472  11.621  13.702   5.608
66525SOL    HW2 1473  11.523  13.796   5.542
66526SOL     OW 1474  13.274   3.305   3.371
66526SOL    HW1 1475  13.271   3.361   3.448
66526SOL    HW2 1476  13.251   3.218   3.404
66527SOL     OW 1477   4.697   7.174  11.177
66527SOL    HW1 1478   4.753   7.149  11.103
66527SOL    HW2 1479   4.655   7.255  11.149
66528SOL     OW 1480  11.192  11.263  12.254
66528SOL    HW1 1481  11.182  11.358  12.254
66528SOL    HW2 1482  11.241  11.244  12.334
66529SOL     OW 1483   2.230   5.455   5.325
66529SOL    HW1 1484   2.226   5.547   5.296
66529SOL    HW2 1485   2.313   5.423   5.290
66530SOL     OW 1486  11.760   1.597  11.554
66530SOL    HW1 1487  11.778   1.581  11.647
66530SOL    HW2 1488  11.813   1.673  11.532
66531SOL     OW 1489  14.164   1.207  10.281
66531SOL    HW1 1490  14.189   1.117  10.298
66531SOL    HW2 1491  14.200   1.257  10.354
66532SOL     OW 1492   7.976   5.718  12.367
66532SOL    HW1 1493   8.056   5.766  12.346
66532SOL    HW2 1494   7.989   5.632  12.328
66533SOL     OW 1495   8.934  13.456   7.626
66533SOL    HW1 1496   8.882  13.416   7.557
66533SOL    HW2 1497   9.023  13.424   7.610
66534SOL     OW 1498   0.209   4.320  12.903
66534SOL    HW1 1499   0.160   4.309  12.984
66534SOL    HW2 1500   0.279   4.382  12.926
66535SOL     OW 1501   1.924   1.407  12.830
66535SOL    HW1 1502   2.016   1.383  12.843
66535SOL    HW2 1503   1.879   1.323  12.820
66536SOL     OW 1504   2.551   5.890  14.267
66536SOL    HW1 1505   2.490   5.823  14.236
66536SOL    HW2 1506   2.538   5.964  14.208
66537SOL     OW 1507   4.270   7.740   1.264
66537SOL    HW1 1508   4.289   7.665   1.208
66537SOL    HW2 1509   4.194   7.782   1.222
66538SOL     OW 1510  11.048  14.541   3.449
66538SOL    HW1 1511  11.011  14.464   3.493
66538SOL    HW2 1512  11.135  14.550   3.486
66539SOL     OW 1513  12.615   3.111  12.240
66539SOL    HW1 1514  12.654   3.137  12.157
66539SOL    HW2 1515  12.660   3.165  12.305
66540SOL     OW 1516   8.914  11.385   9.229
66540SOL    HW1 1517   9.000  11.408   9.194
66540SOL    HW2 1518   8.856  11.383   9.153
66541SOL     OW 1519  14.191   5.601   7.885
66541SOL    HW1 1520  14.208   5.695   7.889
66541SOL    HW2 1521  14.215   5.568   7.972
66542SOL     OW 1522   7.122   8.039   8.932
66542SOL    HW1 1523   7.105   7.948   8.907
66542SOL    HW2 1524   7.138   8.084   8.849
66543SOL     OW 1525   0.806   2.015   4.436
66543SOL    HW1 1526   0.839   1.994   4.524
66543SOL    HW2 1527   0.713   1.993   4.439
66544SOL     OW 1528   1.733   8.270   5.709
66544SOL    HW1 1529   1.767   8.354   5.680
66544SOL    HW2 1530   1.811   8.219   5.732
66545SOL     OW 1531  14.104  10.417   0.478
66545SOL    HW1 1532  14.146  10.416   0.391
66545SOL    HW2 1533  14.161  10.474   0.530
66546SOL     OW 1534   1.278  11.044   1.319
66546SOL    HW1 1535   1.309  11.059   1.229
66546SOL    HW2 1536   1.237  11.127   1.344
66547SOL     OW 1537   9.903   4.912   8.767
66547SOL    HW1 1538   9.857   4.939   8.687
66547SOL    HW2 1539   9.848   4.843   8.804
66548SOL     OW 1540   0.748  10.992   5.841
66548SOL    HW1 1541   0.683  10.934   5.881
66548SOL    HW2 1542   0.751  11.068   5.899
66549SOL     OW 1543  13.054   9.475  10.030
66549SOL    HW1 1544  12.983   9.538  10.047
66549SOL    HW2 1545  13.020   9.391  10.061
66550SOL     OW 1546   0.583   5.750   3.089
66550SOL    HW1 1547   0.642   5.722   3.020
66550SOL    HW2 1548   0.506   5.782   3.043
66551SOL     OW 1549   7.520   3.951   5.544
66551SOL    HW1 1550   7.449   3.891   5.570
66551SOL    HW2 1551   7.482   4.005   5.475
66552SOL     OW 1552   2.746   5.583  11.383
66552SOL    HW1 1553   2.755   5.661  11.329
66552SOL    HW2 1554   2.667   5.598  11.435
66553SOL     OW 1555  12.901   4.852  10.334
66553SOL    HW1 1556  12.816   4.819  10.306
66553SOL    HW2 1557  12.933   4.787  10.397
66554SOL     OW 1558  10.027   2.015   6.942
66554SOL    HW1 1559   9.932   2.004   6.943
66554SOL    HW2 1560  10.045   2.060   6.860
66555SOL     OW 1561   4.921  14.182   2.940
66555SOL    HW1 1562   5.001  14.200   2.890
66555SOL    HW2 1563   4.902  14.264   2.985
66556SOL     OW 1564   2.894  13.404  14.753
66556SOL    HW1 1565   2.827  13.445  14.808
66556SOL    HW2 1566   2.846  13.345  14.695
66557SOL     OW 1567  13.966  10.284  10.007
66557SOL    HW1 1568  14.005  10.312   9.924
66557SOL    HW2 1569  14.004  10.343  10.072
66558SOL     OW 1570  13.824   7.585  13.259
66558SOL    HW1 1571  13.883   7.655  13.232
66558SOL    HW2 1572  13.788   7.551  13.177
66559SOL     OW 1573  13.316   9.427   2.055
66559SOL    HW1 1574  13.405   9.448   2.086
66559SOL    HW2 1575  13.299   9.340   2.091
66560SOL     OW 1576   1.990  10.315   3.597
66560SOL    HW1 1577   1.897  10.331   3.579
66560SOL    HW2 1578   2.012  10.379   3.665
66561SOL     OW 1579   6.215   8.577  14.705
66561SOL    HW1 1580   6.247   8.666  14.690
66561SOL    HW2 1581   6.265   8.523  14.644
66562SOL     OW 1582  10.121   7.586  10.806
66562SOL    HW1 1583  10.063   7.649  10.848
66562SOL    HW2 1584  10.100   7.592  10.713
66563SOL     OW 1585   8.791  12.207  14.190
66563SOL    HW1 1586   8.832  12.151  14.124
66563SOL    HW2 1587   8.769  12.148  14.262
66564SOL     OW 1588   3.293  12.961   1.105
66564SOL    HW1 1589   3.281  13.050   1.072
66564SOL    HW2 1590   3.386  12.943   1.093
66565SOL     OW 1591   1.111  11.680   9.916
66565SOL    HW1 1592   1.112  11.655  10.008
66565SOL    HW2 1593   1.173  11.620   9.874
66566SOL     OW 1594   2.531  13.679   2.316
66566SOL    HW1 1595   2.451  13.632   2.295
66566SOL    HW2 1596   2.516  13.716   2.403
66567SOL     OW 1597   2.955   9.014   1.509
66567SOL    HW1 1598   3.034   8.963   1.525
66567SOL    HW2 1599   2.981   9.105   1.524
66568SOL     OW 1600  10.832   4.247   5.414
66568SOL    HW1 1601  10.737   4.255   5.423
66568SOL    HW2 1602  10.844   4.177   5.350
66569SOL     OW 1603  14.342   6.426   3.378
66569SOL    HW1 1604  14.254   6.421   3.415
66569SOL    HW2 1605  14.361   6.337   3.348
66570SOL     OW 1606   8.987  11.717   6.312
66570SOL    HW1 1607   8.961  11.652   6.247
66570SOL    HW2 1608   9.067  11.681   6.351
66571SOL     OW 1609  14.391   3.896   2.897
66571SOL    HW1 1610  14.462   3.836   2.873
66571SOL    HW2 1611  14.344   3.851   2.967
66572SOL     OW 1612   4.644   9.567   2.676
66572SOL    HW1 1613   4.716   9.529   2.626
66572SOL    HW2 1614   4.577   9.587   2.611
66573SOL     OW 1615   6.099   3.326   4.929
66573SOL    HW1 1616   6.068   3.414   4.908
66573SOL    HW2 1617   6.140   3.295   4.848
66574SOL     OW 1618   8.087   2.819   6.214
66574SOL    HW1 1619   8.029   2.753   6.250
66574SOL    HW2 1620   8.044   2.902   6.233
66575SOL     OW 1621   0.746   9.399  11.534
66575SOL    HW1 1622   0.695   9.464  11.583
66575SOL    HW2 1623   0.806   9.363  11.599
66576SOL     OW 1624   3.501  10.214   0.644
66576SOL    HW1 1625   3.490  10.285   0.580
66576SOL    HW2 1626   3.531  10.140   0.593
66577SOL     OW 1627  10.328   4.271   8.704
66577SOL    HW1 1628  10.255   4.276   8.767
66577SOL    HW2 1629  10.335   4.178   8.683
66578SOL     OW 1630  10.945   5.222   2.797
66578SOL    HW1 1631  10.873   5.172   2.835
66578SOL    HW2 1632  10.912   5.312   2.793
66579SOL     OW 1633   0.165   8.384  13.940
66579SOL    HW1 1634   0.219   8.452  13.901
66579SOL    HW2 1635   0.222   8.308  13.946
66580SOL     OW 1636   7.079  13.507   1.596
66580SOL    HW1 1637   7.165  13.547   1.586
66580SOL    HW2 1638   7.063  13.462   1.513
66581SOL     OW 1639   5.937   1.153   4.809
66581SOL    HW1 1640   5.972   1.113   4.729
66581SOL    HW2 1641   5.978   1.239   4.814
66582SOL     OW 1642   7.799   6.154   3.419
66582SOL    HW1 1643   7.855   6.228   3.440
66582SOL    HW2 1644   7.795   6.153   3.324
66583SOL     OW 1645   5.454  14.546   4.690
66583SOL    HW1 1646   5.473  14.480   4.756
66583SOL    HW2 1647   5.410  14.499   4.620
66584SOL     OW 1648  13.731   4.132   9.547
66584SOL    HW1 1649  13.644   4.161   9.519
66584SOL    HW2 1650  13.777   4.114   9.465
66585SOL     OW 1651  11.537   5.139   5.006
66585SOL    HW1 1652  11.546   5.054   5.050
66585SOL    HW2 1653  11.541   5.203   5.077
66586SOL     OW 1654  14.838   3.024   6.252
66586SOL    HW1 1655   0.039   3.081   6.227
66586SOL    HW2 1656  14.823   2.970   6.175
66587SOL     OW 1657   9.325  12.482   3.136
66587SOL    HW1 1658   9.234  12.484   3.167
66587SOL    HW2 1659   9.354  12.392   3.150
66588SOL     OW 1660  10.175  11.601   6.005
66588SOL    HW1 1661  10.243  11.555   5.957
66588SOL    HW2 1662  10.213  11.619   6.091
66589SOL     OW 1663  12.360  12.357   4.449
66589SOL    HW1 1664  12.337  12.274   4.490
66589SOL    HW2 1665  12.312  12.423   4.499
66590SOL     OW 1666   8.304   9.196   4.408
66590SOL    HW1 1667   8.300   9.121   4.467
66590SOL    HW2 1668   8.352   9.263   4.457
66591SOL     OW 1669   3.912  11.940  14.661
66591SOL    HW1 1670   3.832  11.891  14.680
66591SOL    HW2 1671   3.910  11.951  14.565
66592SOL     OW 1672  10.380  11.652   4.965
66592SOL    HW1 1673  10.441  11.586   4.931
66592SOL    HW2 1674  10.436  11.713   5.013
66593SOL     OW 1675   0.029   3.254   6.616
66593SOL    HW1 1676   0.090   3.181   6.625
66593SOL    HW2 1677  14.833   3.221   6.557
66594SOL     OW 1678   0.796  10.091   9.986
66594SOL    HW1 1679   0.842  10.028  10.042
66594SOL    HW2 1680   0.851  10.170   9.990
66595SOL     OW 1681  14.231  10.372   2.693
66595SOL    HW1 1682  14.194  10.387   2.606
66595SOL    HW2 1683  14.241  10.277   2.699
66596SOL     OW 1684   6.697   0.967   4.808
66596SOL    HW1 1685   6.744   0.886   4.786
66596SOL    HW2 1686   6.735   1.033   4.750
66597SOL     OW 1687   9.545   5.236  14.183
66597SOL    HW1 1688   9.591   5.319  14.192
66597SOL    HW2 1689   9.454   5.256  14.203
66598SOL     OW 1690   5.262   0.595   3.212
66598SOL    HW1 1691   5.278   0.541   3.135
66598SOL    HW2 1692   5.279   0.685   3.182
66599SOL     OW 1693   5.316   2.381   0.989
66599SOL    HW1 1694   5.297   2.308   0.930
66599SOL    HW2 1695   5.370   2.441   0.936
66600SOL     OW 1696   7.703   4.008  10.930
66600SOL    HW1 1697   7.644   4.056  10.873
66600SOL    HW2 1698   7.687   3.916  10.910
66601SOL     OW 1699  14.039   6.289   5.788
66601SOL    HW1 1700  13.973   6.240   5.740
66601SOL    HW2 1701  14.085   6.341   5.721
66602SOL     OW 1702   5.772   7.327   1.500
66602SOL    HW1 1703   5.682   7.357   1.485
66602SOL    HW2 1704   5.765   7.233   1.515
66603SOL     OW 1705   7.997   8.469   1.121
66603SOL    HW1 1706   8.055   8.493   1.049
66603SOL    HW2 1707   8.055   8.463   1.197
66604SOL     OW 1708   5.196   6.220   1.516
66604SOL    HW1 1709   5.170   6.166   1.590
66604SOL    HW2 1710   5.174   6.167   1.439
66605SOL     OW 1711  14.485   3.237   3.817
66605SOL    HW1 1712  14.557   3.217   3.877
66605SOL    HW2 1713  14.525   3.286   3.746
66606SOL     OW 1714   2.535   9.388  13.037
66606SOL    HW1 1715   2.577   9.333  12.972
66606SOL    HW2 1716   2.597   9.390  13.110
66607SOL     OW 1717   9.994   5.468   9.639
66607SOL    HW1 1718   9.951   5.512   9.566
66607SOL    HW2 1719  10.088   5.478   9.621
66608SOL     OW 1720  11.780   5.587   6.964
66608SOL    HW1 1721  11.750   5.498   6.947
66608SOL    HW2 1722  11.783   5.629   6.877
66609SOL     OW 1723   9.217   6.218  10.189
66609SOL    HW1 1724   9.274   6.195  10.263
66609SOL    HW2 1725   9.143   6.263  10.230
66610SOL     OW 1726  10.905  13.867  12.922
66610SOL    HW1 1727  10.835  13.912  12.969
66610SOL    HW2 1728  10.973  13.933  12.911
66611SOL     OW 1729   4.117   0.065  14.644
66611SOL    HW1 1730   4.069   0.055  14.726
66611SOL    HW2 1731   4.112  14.851  14.603
66612SOL     OW 1732   1.432   1.442   1.256
66612SOL    HW1 1733   1.457   1.357   1.220
66612SOL    HW2 1734   1.483   1.450   1.337
66613SOL     OW 1735   6.918  13.012  13.364
66613SOL    HW1 1736   6.988  13.058  13.317
66613SOL    HW2 1737   6.840  13.066  13.349
66614SOL     OW 1738   8.068  11.543  11.534
66614SOL    HW1 1739   8.081  11.506  11.446
66614SOL    HW2 1740   8.151  11.525  11.579
66615SOL     OW 1741  13.534   3.695   0.234
66615SOL    HW1 1742  13.593   3.728   0.301
66615SOL    HW2 1743  13.524   3.768   0.172
66616SOL     OW 1744   7.860   1.212  11.805
66616SOL    HW1 1745   7.873   1.136  11.748
66616SOL    HW2 1746   7.869   1.176  11.894
66617SOL     OW 1747   7.189   8.071   4.449
66617SOL    HW1 1748   7.227   8.124   4.520
66617SOL    HW2 1749   7.175   7.985   4.489
66618SOL     OW 1750   7.073   7.575  12.083
66618SOL    HW1 1751   7.135   7.584  12.155
66618SOL    HW2 1752   7.123   7.601  12.005
66619SOL     OW 1753   4.768  13.635   0.752
66619SOL    HW1 1754   4.805  13.721   0.771
66619SOL    HW2 1755   4.796  13.616   0.662
66620SOL     OW 1756  14.705  13.642   9.276
66620SOL    HW1 1757  14.762  13.622   9.202
66620SOL    HW2 1758  14.740  13.724   9.311
66621SOL     OW 1759   5.811  14.207  13.123
66621SOL    HW1 1760   5.826  14.255  13.041
66621SOL    HW2 1761   5.719  14.181  13.120
66622SOL     OW 1762   0.124   5.659  10.765
66622SOL    HW1 1763   0.175   5.737  10.744
66622SOL    HW2 1764   0.036   5.679  10.735
66623SOL     OW 1765   0.130   3.570  11.433
66623SOL    HW1 1766   0.061   3.513  11.465
66623SOL    HW2 1767   0.209   3.515  11.433
66624SOL     OW 1768   5.012   6.981   4.104
66624SOL    HW1 1769   4.927   7.016   4.134
66624SOL    HW2 1770   5.076   7.022   4.162
66625SOL     OW 1771   9.723   7.361   8.789
66625SOL    HW1 1772   9.796   7.316   8.831
66625SOL    HW2 1773   9.754   7.451   8.778
66626SOL     OW 1774   2.897  12.980   3.537
66626SOL    HW1 1775   2.951  12.901   3.538
66626SOL    HW2 1776   2.921  13.024   3.456
66627SOL     OW 1777   8.958   4.887  10.924
66627SOL    HW1 1778   9.000   4.830  10.859
66627SOL    HW2 1779   8.864   4.878  10.906
66628SOL     OW 1780  10.564  10.022   5.143
66628SOL    HW1 1781  10.558   9.930   5.167
66628SOL    HW2 1782  10.619  10.024   5.065
66629SOL     OW 1783   4.825   9.388   0.444
66629SOL    HW1 1784   4.857   9.450   0.510
66629SOL    HW2 1785   4.901   9.331   0.427
66630SOL     OW 1786   5.059  12.884   9.737
66630SOL    HW1 1787   5.010  12.808   9.770
66630SOL    HW2 1788   5.082  12.862   9.647
66631SOL     OW 1789   5.292   5.040   8.781
66631SOL    HW1 1790   5.220   5.006   8.834
66631SOL    HW2 1791   5.280   5.135   8.783
66632SOL     OW 1792   3.216   1.018   0.864
66632SOL    HW1 1793   3.262   0.936   0.849
66632SOL    HW2 1794   3.127   0.992   0.885
66633SOL     OW 1795   6.924   4.318  12.552
66633SOL    HW1 1796   6.886   4.348  12.634
66633SOL    HW2 1797   7.017   4.309  12.570
66634SOL     OW 1798   9.967  10.776   8.141
66634SOL    HW1 1799  10.023  10.853   8.146
66634SOL    HW2 1800  10.023  10.707   8.107
66635SOL     OW 1801   6.669  12.132   1.125
66635SOL    HW1 1802   6.667  12.210   1.070
66635SOL    HW2 1803   6.702  12.163   1.210
66636SOL     OW 1804   8.784  11.440  14.652
66636SOL    HW1 1805   8.736  11.358  14.651
66636SOL    HW2 1806   8.747  11.488  14.727
66637SOL     OW 1807  14.084   2.242   6.785
66637SOL    HW1 1808  14.160   2.290   6.818
66637SOL    HW2 1809  14.008   2.291   6.817
66638SOL     OW 1810   7.756  13.403   8.972
66638SOL    HW1 1811   7.664  13.423   8.987
66638SOL    HW2 1812   7.788  13.373   9.057
66639SOL     OW 1813   6.417   9.323  14.032
66639SOL    HW1 1814   6.496   9.369  14.059
66639SOL    HW2 1815   6.372   9.385  13.974
66640SOL     OW 1816   4.452  10.184   5.213
66640SOL    HW1 1817   4.499  10.243   5.155
66640SOL    HW2 1818   4.520  10.134   5.257
66641SOL     OW 1819   3.821   9.595  11.061
66641SOL    HW1 1820   3.843   9.518  11.008
66641SOL    HW2 1821   3.904   9.641  11.071
66642SOL     OW 1822  11.282   5.973  11.996
66642SOL    HW1 1823  11.279   6.059  12.039
66642SOL    HW2 1824  11.211   5.923  12.036
66643SOL     OW 1825  13.077   2.681   7.281
66643SOL    HW1 1826  13.132   2.621   7.231
66643SOL    HW2 1827  12.987   2.652   7.264
66644SOL     OW 1828  12.217  14.628   4.497
66644SOL    HW1 1829  12.181  14.546   4.463
66644SOL    HW2 1830  12.276  14.659   4.427
66645SOL     OW 1831   7.534   2.325   9.886
66645SOL    HW1 1832   7.476   2.314   9.962
66645SOL    HW2 1833   7.615   2.281   9.912
66646SOL     OW 1834  12.892   9.523   8.955
66646SOL    HW1 1835  12.854   9.455   8.899
66646SOL    HW2 1836  12.823   9.588   8.965
66647SOL     OW 1837   8.807  14.226   1.359
66647SOL    HW1 1838   8.747  14.297   1.337
66647SOL    HW2 1839   8.894  14.258   1.335
66648SOL     OW 1840   4.707   6.245   2.384
66648SOL    HW1 1841   4.645   6.218   2.316
66648SOL    HW2 1842   4.672   6.329   2.415
66649SOL     OW 1843   1.522   2.826  11.829
66649SOL    HW1 1844   1.452   2.780  11.782
66649SOL    HW2 1845   1.585   2.850  11.761
66650SOL     OW 1846  14.743   5.579   8.378
66650SOL    HW1 1847  14.780   5.642   8.440
66650SOL    HW2 1848  14.791   5.596   8.297
66651SOL     OW 1849  11.524  12.416  14.135
66651SOL    HW1 1850  11.517  12.469  14.214
66651SOL    HW2 1851  11.467  12.341  14.151
66652SOL     OW 1852  12.825   9.029   9.824
66652SOL    HW1 1853  12.840   8.989   9.738
66652SOL    HW2 1854  12.739   9.069   9.817
66653SOL     OW 1855   1.643  14.136   6.419
66653SOL    HW1 1856   1.663  14.076   6.347
66653SOL    HW2 1857   1.705  14.208   6.408
66654SOL     OW 1858   2.050  12.492   0.339
66654SOL    HW1 1859   1.994  12.489   0.261
66654SOL    HW2 1860   2.009  12.431   0.400
66655SOL     OW 1861   6.943   0.415   0.802
66655SOL    HW1 1862   6.918   0.472   0.730
66655SOL    HW2 1863   7.037   0.430   0.814
66656SOL     OW 1864   6.752  12.669  12.041
66656SOL    HW1 1865   6.839  12.704  12.025
66656SOL    HW2 1866   6.694  12.745  12.038
66657SOL     OW 1867  12.856  13.041  12.228
66657SOL    HW1 1868  12.817  12.953  12.228
66657SOL    HW2 1869  12.795  13.094  12.279
66658SOL     OW 1870   2.689  10.097  13.261
66658SOL    HW1 1871   2.690  10.061  13.350
66658SOL    HW2 1872   2.756  10.047  13.214
66659SOL     OW 1873   8.590   8.293   0.938
66659SOL    HW1 1874   8.536   8.234   0.885
66659SOL    HW2 1875   8.632   8.351   0.874
66660SOL     OW 1876   9.350  12.875  10.499
66660SOL    HW1 1877   9.299  12.875  10.418
66660SOL    HW2 1878   9.315  12.801  10.549
66661SOL     OW 1879   1.451   8.931  11.578
66661SOL    HW1 1880   1.413   8.881  11.649
66661SOL    HW2 1881   1.376   8.969  11.532
66662SOL     OW 1882  10.730   2.946  11.744
66662SOL    HW1 1883  10.755   2.896  11.666
66662SOL    HW2 1884  10.743   3.037  11.720
66663SOL     OW 1885   6.052   0.496  14.466
66663SOL    HW1 1886   5.974   0.456  14.428
66663SOL    HW2 1887   6.029   0.589  14.478
66664SOL     OW 1888   1.775   1.847  11.683
66664SOL    HW1 1889   1.699   1.906  11.682
66664SOL    HW2 1890   1.841   1.893  11.632
66665SOL     OW 1891  13.589   0.094   1.611
66665SOL    HW1 1892  13.603   0.017   1.556
66665SOL    HW2 1893  13.499   0.121   1.593
66666SOL     OW 1894   3.485  11.032  11.700
66666SOL    HW1 1895   3.507  11.092  11.628
66666SOL    HW2 1896   3.547  11.054  11.769
66667SOL     OW 1897  14.630   5.556   3.255
66667SOL    HW1 1898  14.691   5.573   3.327
66667SOL    HW2 1899  14.671   5.596   3.179
66668SOL     OW 1900   3.961   9.859   1.861
66668SOL    HW1 1901   3.900   9.790   1.836
66668SOL    HW2 1902   4.036   9.814   1.898
66669SOL     OW 1903   3.833  13.571   6.886
66669SOL    HW1 1904   3.744  13.541   6.867
66669SOL    HW2 1905   3.890  13.502   6.850
66670SOL     OW 1906  10.322   6.429   7.632
66670SOL    HW1 1907  10.267   6.498   7.595
66670SOL    HW2 1908  10.262   6.354   7.642
66671SOL     OW 1909  13.256  11.469   1.681
66671SOL    HW1 1910  13.273  11.558   1.648
66671SOL    HW2 1911  13.231  11.419   1.604
66672SOL     OW 1912  10.102   9.498   0.215
66672SOL    HW1 1913  10.063   9.411   0.218
66672SOL    HW2 1914  10.153   9.499   0.134
66673SOL     OW 1915   0.742   6.383  12.809
66673SOL    HW1 1916   0.729   6.477  12.794
66673SOL    HW2 1917   0.786   6.378  12.893
66674SOL     OW 1918   1.540  10.108  12.375
66674SOL    HW1 1919   1.485  10.038  12.411
66674SOL    HW2 1920   1.629  10.085  12.403
66675SOL     OW 1921   8.447  10.431  13.591
66675SOL    HW1 1922   8.516  10.365  13.582
66675SOL    HW2 1923   8.401  10.430  13.507
66676SOL     OW 1924  11.803  14.556   6.021
66676SOL    HW1 1925  11.727  14.574   5.966
66676SOL    HW2 1926  11.770  14.560   6.110
66677SOL     OW 1927  10.830   8.677   1.919
66677SOL    HW1 1928  10.834   8.771   1.934
66677SOL    HW2 1929  10.907   8.657   1.866
66678SOL     OW 1930   2.811   7.875   9.342
66678SOL    HW1 1931   2.725   7.900   9.378
66678SOL    HW2 1932   2.798   7.876   9.247
66679SOL     OW 1933  11.317   2.096  13.859
66679SOL    HW1 1934  11.224   2.077  13.869
66679SOL    HW2 1935  11.320   2.187  13.829
66680SOL     OW 1936   5.114   0.792   9.636
66680SOL    HW1 1937   5.121   0.754   9.549
66680SOL    HW2 1938   5.073   0.877   9.622
66681SOL     OW 1939   0.751   5.393  11.993
66681SOL    HW1 1940   0.837   5.391  11.953
66681SOL    HW2 1941   0.751   5.319  12.054
66682SOL     OW 1942  11.439   9.573   5.400
66682SOL    HW1 1943  11.529   9.542   5.414
66682SOL    HW2 1944  11.410   9.600   5.487
66683SOL     OW 1945   3.784  12.477   8.927
66683SOL    HW1 1946   3.703  12.429   8.913
66683SOL    HW2 1947   3.757  12.568   8.939
66684SOL     OW 1948   1.198  14.415   4.322
66684SOL    HW1 1949   1.227  14.503   4.347
66684SOL    HW2 1950   1.162  14.426   4.235
66685SOL     OW 1951  10.463   3.764   3.285
66685SOL    HW1 1952  10.473   3.754   3.379
66685SOL    HW2 1953  10.384   3.816   3.274
66686SOL     OW 1954   3.261  10.740  13.298
66686SOL    HW1 1955   3.214  10.779  13.373
66686SOL    HW2 1956   3.303  10.814  13.255
66687SOL     OW 1957  12.420   7.975  13.122
66687SOL    HW1 1958  12.361   7.910  13.084
66687SOL    HW2 1959  12.507   7.936  13.115
66688SOL     OW 1960   3.811   9.965   3.235
66688SOL    HW1 1961   3.827   9.871   3.236
66688SOL    HW2 1962   3.737   9.978   3.294
66689SOL     OW 1963  13.270  12.803   6.007
66689SOL    HW1 1964  13.317  12.725   5.977
66689SOL    HW2 1965  13.295  12.813   6.099
66690SOL     OW 1966   8.053  13.743   6.604
66690SOL    HW1 1967   8.122  13.678   6.589
66690SOL    HW2 1968   8.065  13.807   6.533
66691SOL     OW 1969   1.968  12.974   7.769
66691SOL    HW1 1970   1.941  12.955   7.679
66691SOL    HW2 1971   2.037  13.040   7.759
66692SOL     OW 1972   1.952   7.234  11.290
66692SOL    HW1 1973   1.920   7.324  11.285
66692SOL    HW2 1974   2.014   7.226  11.218
66693SOL     OW 1975   6.283   0.573  12.107
66693SOL    HW1 1976   6.235   0.588  12.189
66693SOL    HW2 1977   6.312   0.482  12.114
66694SOL     OW 1978   6.853  13.820  11.407
66694SOL    HW1 1979   6.825  13.902  11.368
66694SOL    HW2 1980   6.805  13.815  11.490
66695SOL     OW 1981  13.431   1.330   8.585
66695SOL    HW1 1982  13.499   1.264   8.598
66695SOL    HW2 1983  13.372   1.291   8.521
66696SOL     OW 1984   4.450   0.432   8.469
66696SOL    HW1 1985   4.417   0.446   8.380
66696SOL    HW2 1986   4.453   0.520   8.508
66697SOL     OW 1987  11.275  13.508   6.461
66697SOL    HW1 1988  11.291  13.602   6.455
66697SOL    HW2 1989  11.277  13.478   6.370
66698SOL     OW 1990   1.643   1.730  10.807
66698SOL    HW1 1991   1.673   1.640  10.799
66698SOL    HW2 1992   1.724   1.782  10.812
66699SOL     OW 1993   5.551   7.226   3.407
66699SOL    HW1 1994   5.585   7.186   3.487
66699SOL    HW2 1995   5.466   7.261   3.431
66700SOL     OW 1996   2.588   3.752   3.357
66700SOL    HW1 1997   2.611   3.798   3.276
66700SOL    HW2 1998   2.673   3.732   3.397
66701SOL     OW 1999   7.903   5.180   2.155
66701SOL    HW1 2000   7.947   5.119   2.096
66701SOL    HW2 2001   7.967   5.250   2.169
66702SOL     OW 2002  14.006  10.841   9.786
66702SOL    HW1 2003  13.921  10.883   9.770
66702SOL    HW2 2004  14.024  10.857   9.878
66703SOL     OW 2005   5.312  13.381   8.512
66703SOL    HW1 2006   5.246  13.328   8.467
66703SOL    HW2 2007   5.378  13.399   8.445
66704SOL     OW 2008   0.245   6.820   4.397
66704SOL    HW1 2009   0.245   6.728   4.369
66704SOL    HW2 2010   0.217   6.817   4.489
66705SOL     OW 2011   1.075  11.832  14.142
66705SOL    HW1 2012   1.151  11.780  14.118
66705SOL    HW2 2013   1.108  11.922  14.146
66706SOL     OW 2014  10.903   5.656   8.564
66706SOL    HW1 2015  10.920   5.562   8.568
66706SOL    HW2 2016  10.988   5.695   8.544
66707SOL     OW 2017   9.512   2.096   8.533
66707SOL    HW1 2018   9.584   2.067   8.588
66707SOL    HW2 2019   9.439   2.038   8.556
66708SOL     OW 2020   6.346   0.713  14.072
66708SOL    HW1 2021   6.361   0.706  14.167
66708SOL    HW2 2022   6.408   0.781  14.044
66709SOL     OW 2023   2.216   1.530   7.784
66709SOL    HW1 2024   2.124   1.557   7.786
66709SOL    HW2 2025   2.229   1.495   7.697
66710SOL     OW 2026  11.182   8.938  14.868
66710SOL    HW1 2027  11.144   8.985   0.070
66710SOL    HW2 2028  11.108   8.915  14.813
66711SOL     OW 2029  13.775   7.286   1.134
66711SOL    HW1 2030  13.692   7.242   1.116
66711SOL    HW2 2031  13.755   7.380   1.128
66712SOL     OW 2032  14.552   8.874   2.922
66712SOL    HW1 2033  14.520   8.790   2.955
66712SOL    HW2 2034  14.637   8.853   2.883
66713SOL     OW 2035  11.858   7.057   5.331
66713SOL    HW1 2036  11.929   6.998   5.354
66713SOL    HW2 2037  11.803   7.059   5.409
66714SOL     OW 2038  10.350  10.028  12.079
66714SOL    HW1 2039  10.263   9.997  12.101
66714SOL    HW2 2040  10.357  10.016  11.984
66715SOL     OW 2041   8.712   8.409   7.383
66715SOL    HW1 2042   8.644   8.469   7.350
66715SOL    HW2 2043   8.733   8.355   7.307
66716SOL     OW 2044  10.745   1.728  12.789
66716SOL    HW1 2045  10.711   1.676  12.862
66716SOL    HW2 2046  10.816   1.779  12.827
66717SOL     OW 2047   7.038   0.257   2.416
66717SOL    HW1 2048   6.969   0.218   2.470
66717SOL    HW2 2049   7.023   0.220   2.328
66718SOL     OW 2050  12.310  12.008   1.728
66718SOL    HW1 2051  12.354  12.086   1.696
66718SOL    HW2 2052  12.342  11.996   1.817
66719SOL     OW 2053   0.920   1.112   0.340
66719SOL    HW1 2054   0.833   1.089   0.308
66719SOL    HW2 2055   0.905   1.151   0.426
66720SOL     OW 2056  11.001   3.394   3.693
66720SOL    HW1 2057  11.014   3.317   3.749
66720SOL    HW2 2058  10.922   3.435   3.727
66721SOL     OW 2059  11.158  10.888   7.263
66721SOL    HW1 2060  11.188  10.809   7.218
66721SOL    HW2 2061  11.125  10.856   7.348
66722SOL     OW 2062   4.768   3.390   6.222
66722SOL    HW1 2063   4.799   3.310   6.180
66722SOL    HW2 2064   4.764   3.455   6.152
66723SOL     OW 2065   9.830   8.187   1.318
66723SOL    HW1 2066   9.737   8.166   1.314
66723SOL    HW2 2067   9.871   8.109   1.357
66724SOL     OW 2068   9.011   3.389   1.513
66724SOL    HW1 2069   8.946   3.452   1.484
66724SOL    HW2 2070   8.981   3.361   1.600
66725SOL     OW 2071   0.922   6.945   0.685
66725SOL    HW1 2072   1.002   6.894   0.695
66725SOL    HW2 2073   0.909   6.986   0.770
66726SOL     OW 2074   6.919  12.470   3.232
66726SOL    HW1 2075   6.853  12.526   3.191
66726SOL    HW2 2076   6.869  12.417   3.294
66727SOL     OW 2077   2.877  10.915   6.337
66727SOL    HW1 2078   2.938  10.848   6.369
66727SOL    HW2 2079   2.919  10.949   6.258
66728SOL     OW 2080   7.659   9.923  13.945
66728SOL    HW1 2081   7.748   9.948  13.971
66728SOL    HW2 2082   7.671   9.863  13.872
66729SOL     OW 2083  14.669   1.225  11.970
66729SOL    HW1 2084  14.656   1.199  11.879
66729SOL    HW2 2085  14.619   1.161  12.021
66730SOL     OW 2086  11.480   7.601   4.018
66730SOL    HW1 2087  11.515   7.688   4.038
66730SOL    HW2 2088  11.529   7.542   4.075
66731SOL     OW 2089  13.062  14.734   6.953
66731SOL    HW1 2090  13.148  14.715   6.989
66731SOL    HW2 2091  13.078  14.753   6.860
66732SOL     OW 2092   3.156  12.982  13.899
66732SOL    HW1 2093   3.135  12.931  13.821
66732SOL    HW2 2094   3.145  12.920  13.971
66733SOL     OW 2095   1.062   2.537   2.433
66733SOL    HW1 2096   1.004   2.613   2.427
66733SOL    HW2 2097   1.010   2.465   2.395
66734SOL     OW 2098   5.703   1.472  12.693
66734SOL    HW1 2099   5.643   1.404  12.662
66734SOL    HW2 2100   5.657   1.512  12.767
66735SOL     OW 2101  12.671  12.000   9.814
66735SOL    HW1 2102  12.577  12.019   9.818
66735SOL    HW2 2103  12.675  11.906   9.800
66736SOL     OW 2104  13.150  10.565   7.102
66736SOL    HW1 2105  13.230  10.577   7.153
66736SOL    HW2 2106  13.170  10.493   7.042
66737SOL     OW 2107   0.902   0.521  13.152
66737SOL    HW1 2108   0.977   0.495  13.098
66737SOL    HW2 2109   0.923   0.610  13.181
66738SOL     OW 2110   5.226  13.199  11.286
66738SOL    HW1 2111   5.312  13.164  11.308
66738SOL    HW2 2112   5.224  13.202  11.190
66739SOL     OW 2113   0.447  10.691   9.193
66739SOL    HW1 2114   0.469  10.599   9.204
66739SOL    HW2 2115   0.494  10.718   9.114
66740SOL     OW 2116  13.245  10.232   4.792
66740SOL    HW1 2117  13.240  10.314   4.744
66740SOL    HW2 2118  13.249  10.258   4.884
66741SOL     OW 2119  10.893   1.065   2.279
66741SOL    HW1 2120  10.975   1.082   2.326
66741SOL    HW2 2121  10.842   1.145   2.291
66742SOL     OW 2122  11.391   7.875  10.310
66742SOL    HW1 2123  11.464   7.937  10.311
66742SOL    HW2 2124  11.398   7.827  10.392
66743SOL     OW 2125   0.584  13.611   8.368
66743SOL    HW1 2126   0.540  13.647   8.291
66743SOL    HW2 2127   0.671  13.587   8.337
66744SOL     OW 2128   8.661  11.370   7.561
66744SOL    HW1 2129   8.666  11.453   7.513
66744SOL    HW2 2130   8.567  11.355   7.572
66745SOL     OW 2131   0.390   2.166   0.759
66745SOL    HW1 2132   0.430   2.088   0.721
66745SOL    HW2 2133   0.384   2.147   0.853
66746SOL     OW 2134  11.508  10.166   1.254
66746SOL    HW1 2135  11.464  10.082   1.240
66746SOL    HW2 2136  11.438  10.231   1.255
66747SOL     OW 2137   6.073   3.553   5.523
66747SOL    HW1 2138   6.115   3.581   5.442
66747SOL    HW2 2139   6.137   3.572   5.592
66748SOL     OW 2140   8.435   9.951   0.034
66748SOL    HW1 2141   8.525   9.969   0.061
66748SOL    HW2 2142   8.407  10.030  14.861
66749SOL     OW 2143  12.646  14.795   5.121
66749SOL    HW1 2144  12.739  14.792   5.099
66749SOL    HW2 2145  12.619   0.013   5.102
66750SOL     OW 2146   0.696   7.718   9.565
66750SOL    HW1 2147   0.704   7.630   9.530
66750SOL    HW2 2148   0.780   7.735   9.607
66751SOL     OW 2149  13.204  10.794  14.288
66751SOL    HW1 2150  13.182  10.803  14.381
66751SOL    HW2 2151  13.292  10.755  14.288
66752SOL     OW 2152  11.304  10.179   1.553
66752SOL    HW1 2153  11.343  10.247   1.498
66752SOL    HW2 2154  11.229  10.147   1.502
66753SOL     OW 2155   2.577   2.351  14.216
66753SOL    HW1 2156   2.619   2.270  14.187
66753SOL    HW2 2157   2.593   2.413  14.145
66754SOL     OW 2158   3.483  11.687  14.412
66754SOL    HW1 2159   3.476  11.749  14.340
66754SOL    HW2 2160   3.480  11.601  14.370
66755SOL     OW 2161   0.837   3.107   0.247
66755SOL    HW1 2162   0.893   3.146   0.316
66755SOL    HW2 2163   0.748   3.133   0.272
66756SOL     OW 2164   2.062   7.992   0.945
66756SOL    HW1 2165   2.068   7.913   0.999
66756SOL    HW2 2166   2.023   7.961   0.863
66757SOL     OW 2167  11.009   9.906   7.889
66757SOL    HW1 2168  11.002   9.979   7.950
66757SOL    HW2 2169  11.079   9.931   7.828
66758SOL     OW 2170   7.981  13.344   3.476
66758SOL    HW1 2171   7.998  13.414   3.413
66758SOL    HW2 2172   7.887  13.346   3.490
66759SOL     OW 2173   5.934  10.760   0.676
66759SOL    HW1 2174   6.017  10.793   0.710
66759SOL    HW2 2175   5.890  10.837   0.641
66760SOL     OW 2176  14.472  11.567   4.854
66760SOL    HW1 2177  14.539  11.574   4.786
66760SOL    HW2 2178  14.407  11.506   4.818
66761SOL     OW 2179   5.784  12.366  10.734
66761SOL    HW1 2180   5.785  12.338  10.825
66761SOL    HW2 2181   5.699  12.409  10.723
66762SOL     OW 2182  12.166   4.271   2.031
66762SOL    HW1 2183  12.174   4.196   2.090
66762SOL    HW2 2184  12.109   4.240   1.961
66763SOL     OW 2185   0.606   3.530   7.651
66763SOL    HW1 2186   0.554   3.456   7.620
66763SOL    HW2 2187   0.684   3.530   7.596
66764SOL     OW 2188   0.313   1.000   2.791
66764SOL    HW1 2189   0.319   1.085   2.747
66764SOL    HW2 2190   0.222   0.995   2.820
66765SOL     OW 2191  14.133   3.833   0.809
66765SOL    HW1 2192  14.217   3.788   0.807
66765SOL    HW2 2193  14.144   3.904   0.872
66766SOL     OW 2194   2.326   2.591  14.213
66766SOL    HW1 2195   2.360   2.680  14.214
66766SOL    HW2 2196   2.276   2.585  14.132
66767SOL     OW 2197  10.395   8.161   2.455
66767SOL    HW1 2198  10.316   8.179   2.506
66767SOL    HW2 2199  10.377   8.076   2.413
66768SOL     OW 2200   7.449  11.784   7.191
66768SOL    HW1 2201   7.518  11.842   7.221
66768SOL    HW2 2202   7.399  11.762   7.270
66769SOL     OW 2203   3.799   1.272  14.843
66769SOL    HW1 2204   3.771   1.196  14.792
66769SOL    HW2 2205   3.771   1.347  14.790
66770SOL     OW 2206   9.722  12.636   2.896
66770SOL    HW1 2207   9.648  12.658   2.953
66770SOL    HW2 2208   9.791  12.696   2.923
66771SOL     OW 2209   1.958   7.109   3.926
66771SOL    HW1 2210   1.938   7.101   3.832
66771SOL    HW2 2211   1.976   7.202   3.939
66772SOL     OW 2212   5.371   0.223   9.443
66772SOL    HW1 2213   5.430   0.231   9.367
66772SOL    HW2 2214   5.426   0.246   9.518
66773SOL     OW 2215   1.721  13.702  12.479
66773SOL    HW1 2216   1.764  13.735  12.558
66773SOL    HW2 2217   1.648  13.762  12.465
66774SOL     OW 2218  14.039   3.765   2.336
66774SOL    HW1 2219  14.004   3.854   2.329
66774SOL    HW2 2220  14.018   3.738   2.425
66775SOL     OW 2221   6.948   6.631   1.799
66775SOL    HW1 2222   6.891   6.573   1.749
66775SOL    HW2 2223   6.898   6.651   1.878
66776SOL     OW 2224   0.592   9.998   8.968
66776SOL    HW1 2225   0.619  10.011   8.877
66776SOL    HW2 2226   0.668  10.023   9.020
66777SOL     OW 2227   1.549   7.678   9.988
66777SOL    HW1 2228   1.557   7.584   9.974
66777SOL    HW2 2229   1.629   7.702  10.034
66778SOL     OW 2230  10.217   7.026   4.457
66778SOL    HW1 2231  10.143   7.016   4.397
66778SOL    HW2 2232  10.294   7.027   4.399
66779SOL     OW 2233   8.031   5.949   6.378
66779SOL    HW1 2234   7.993   5.987   6.457
66779SOL    HW2 2235   8.105   5.897   6.409
66780SOL     OW 2236   2.402   8.264   1.638
66780SOL    HW1 2237   2.421   8.292   1.728
66780SOL    HW2 2238   2.488   8.251   1.598
66781SOL     OW 2239  12.830  13.181   9.830
66781SOL    HW1 2240  12.762  13.134   9.781
66781SOL    HW2 2241  12.908  13.126   9.822
66782SOL     OW 2242  10.408   4.628   4.122
66782SOL    HW1 2243  10.477   4.692   4.109
66782SOL    HW2 2244  10.331   4.667   4.081
66783SOL     OW 2245   2.819   0.340   3.579
66783SOL    HW1 2246   2.814   0.245   3.575
66783SOL    HW2 2247   2.791   0.370   3.493
66784SOL     OW 2248   9.357   2.887   6.933
66784SOL    HW1 2249   9.329   2.912   7.021
66784SOL    HW2 2250   9.295   2.819   6.907
66785SOL     OW 2251   2.305   3.740   7.621
66785SOL    HW1 2252   2.214   3.738   7.650
66785SOL    HW2 2253   2.310   3.673   7.553
66786SOL     OW 2254  14.237  13.214   6.261
66786SOL    HW1 2255  14.230  13.203   6.356
66786SOL    HW2 2256  14.167  13.274   6.238
66787SOL     OW 2257  12.349   0.635   7.980
66787SOL    HW1 2258  12.393   0.559   8.018
66787SOL    HW2 2259  12.291   0.665   8.049
66788SOL     OW 2260   1.706  14.210   2.587
66788SOL    HW1 2261   1.642  14.267   2.629
66788SOL    HW2 2262   1.655  14.136   2.555
66789SOL     OW 2263   9.647   7.255  13.862
66789SOL    HW1 2264   9.598   7.331  13.895
66789SOL    HW2 2265   9.737   7.272  13.887
66790SOL     OW 2266   4.439   6.846   8.387
66790SOL    HW1 2267   4.419   6.906   8.459
66790SOL    HW2 2268   4.506   6.787   8.424
66791SOL     OW 2269   6.007   9.025   5.270
66791SOL    HW1 2270   5.963   9.021   5.185
66791SOL    HW2 2271   6.071   8.953   5.267
66792SOL     OW 2272  14.656   1.865  10.150
66792SOL    HW1 2273  14.628   1.789  10.098
66792SOL    HW2 2274  14.751   1.854  10.157
66793SOL     OW 2275  14.002   2.051  11.369
66793SOL    HW1 2276  13.982   1.981  11.431
66793SOL    HW2 2277  14.073   2.100  11.410
66794SOL     OW 2278   7.898  14.289   8.632
66794SOL    HW1 2279   7.849  14.365   8.663
66794SOL    HW2 2280   7.921  14.310   8.542
66795SOL     OW 2281   6.258   0.009   6.924
66795SOL    HW1 2282   6.290   0.099   6.918
66795SOL    HW2 2283   6.273  14.857   7.015
66796SOL     OW 2284   0.151  11.473   3.936
66796SOL    HW1 2285   0.061  11.497   3.914
66796SOL    HW2 2286   0.158  11.381   3.912
66797SOL     OW 2287   8.123  11.446   4.705
66797SOL    HW1 2288   8.067  11.387   4.657
66797SOL    HW2 2289   8.080  11.457   4.790
66798SOL     OW 2290  10.773  10.644  12.533
66798SOL    HW1 2291  10.763  10.712  12.600
66798SOL    HW2 2292  10.867  10.644  12.513
66799SOL     OW 2293   7.400   4.169   4.880
66799SOL    HW1 2294   7.458   4.096   4.857
66799SOL    HW2 2295   7.459   4.243   4.894
66800SOL     OW 2296   6.011   3.099   0.677
66800SOL    HW1 2297   6.083   3.043   0.648
66800SOL    HW2 2298   5.975   3.136   0.596
66801SOL     OW 2299   4.805  12.951   0.983
66801SOL    HW1 2300   4.735  12.893   0.953
66801SOL    HW2 2301   4.776  13.039   0.958
66802SOL     OW 2302   0.553   7.353  12.631
66802SOL    HW1 2303   0.627   7.324  12.685
66802SOL    HW2 2304   0.481   7.366  12.693
66803SOL     OW 2305  11.149   3.221   0.886
66803SOL    HW1 2306  11.060   3.219   0.850
66803SOL    HW2 2307  11.136   3.237   0.979
66804SOL     OW 2308  10.621  11.124  11.172
66804SOL    HW1 2309  10.711  11.091  11.169
66804SOL    HW2 2310  10.595  11.132  11.081
66805SOL     OW 2311  12.752   8.030  13.045
66805SOL    HW1 2312  12.747   8.117  13.084
66805SOL    HW2 2313  12.831   8.032  12.991
66806SOL     OW 2314   3.578   6.597  10.521
66806SOL    HW1 2315   3.513   6.661  10.490
66806SOL    HW2 2316   3.563   6.592  10.615
66807SOL     OW 2317   6.278   9.487  13.043
66807SOL    HW1 2318   6.373   9.480  13.050
66807SOL    HW2 2319   6.245   9.447  13.123
66808SOL     OW 2320   2.328   2.713  11.461
66808SOL    HW1 2321   2.331   2.665  11.378
66808SOL    HW2 2322   2.318   2.645  11.528
66809SOL     OW 2323   6.202  10.029  10.728
66809SOL    HW1 2324   6.168   9.960  10.671
66809SOL    HW2 2325   6.279  10.062  10.681
66810SOL     OW 2326  10.539   9.941   0.775
66810SOL    HW1 2327  10.474  10.009   0.754
66810SOL    HW2 2328  10.487   9.870   0.811
66811SOL     OW 2329  11.289  14.705  11.696
66811SOL    HW1 2330  11.253  14.671  11.778
66811SOL    HW2 2331  11.217  14.753  11.656
66812SOL     OW 2332   9.739  12.063   7.723
66812SOL    HW1 2333   9.707  11.976   7.746
66812SOL    HW2 2334   9.824  12.047   7.681
66813SOL     OW 2335  12.113   5.646   1.436
66813SOL    HW1 2336  12.105   5.557   1.472
66813SOL    HW2 2337  12.089   5.703   1.509
66814SOL     OW 2338   1.367   0.528   8.471
66814SOL    HW1 2339   1.455   0.494   8.454
66814SOL    HW2 2340   1.341   0.488   8.554
66815SOL     OW 2341   2.598  10.747  12.237
66815SOL    HW1 2342   2.606  10.751  12.332
66815SOL    HW2 2343   2.679  10.785  12.204
66816SOL     OW 2344   1.414   7.944  13.311
66816SOL    HW1 2345   1.362   7.891  13.371
66816SOL    HW2 2346   1.497   7.897  13.303
66817SOL     OW 2347  14.355   4.928   8.399
66817SOL    HW1 2348  14.281   4.966   8.446
66817SOL    HW2 2349  14.319   4.848   8.359
66818SOL     OW 2350  10.792  14.192   4.638
66818SOL    HW1 2351  10.780  14.276   4.682
66818SOL    HW2 2352  10.757  14.128   4.699
66819SOL     OW 2353   2.434   7.921  14.279
66819SOL    HW1 2354   2.529   7.917  14.269
66819SOL    HW2 2355   2.404   7.960  14.197
66820SOL     OW 2356   7.884   0.611   1.116
66820SOL    HW1 2357   7.821   0.541   1.131
66820SOL    HW2 2358   7.839   0.690   1.145
66821SOL     OW 2359   3.204   4.607   1.752
66821SOL    HW1 2360   3.229   4.687   1.705
66821SOL    HW2 2361   3.137   4.567   1.696
66822SOL     OW 2362   1.031   5.766   4.339
66822SOL    HW1 2363   1.059   5.737   4.252
66822SOL    HW2 2364   1.071   5.702   4.399
66823SOL     OW 2365   2.086   6.732   2.629
66823SOL    HW1 2366   2.121   6.744   2.718
66823SOL    HW2 2367   2.162   6.738   2.572
66824SOL     OW 2368   1.223   1.264  10.469
66824SOL    HW1 2369   1.218   1.359  10.466
66824SOL    HW2 2370   1.176   1.240  10.549
66825SOL     OW 2371   9.065   4.533   7.603
66825SOL    HW1 2372   9.059   4.438   7.616
66825SOL    HW2 2373   9.068   4.568   7.692
66826SOL     OW 2374   7.200  13.086   3.440
66826SOL    HW1 2375   7.139  13.160   3.435
66826SOL    HW2 2376   7.205  13.053   3.351
66827SOL     OW 2377   3.436  12.894  11.477
66827SOL    HW1 2378   3.345  12.870  11.462
66827SOL    HW2 2379   3.460  12.849  11.558
66828SOL     OW 2380   6.667   2.757   4.933
66828SOL    HW1 2381   6.683   2.664   4.915
66828SOL    HW2 2382   6.697   2.802   4.853
66829SOL     OW 2383   6.812   8.382   6.247
66829SOL    HW1 2384   6.835   8.314   6.184
66829SOL    HW2 2385   6.752   8.339   6.308
66830SOL     OW 2386   5.829   3.618   5.618
66830SOL    HW1 2387   5.823   3.570   5.700
66830SOL    HW2 2388   5.913   3.590   5.581
66831SOL     OW 2389  12.297   7.295   2.868
66831SOL    HW1 2390  12.362   7.246   2.919
66831SOL    HW2 2391  12.220   7.296   2.924
66832SOL     OW 2392  13.621  14.639   7.029
66832SOL    HW1 2393  13.648  14.686   7.107
66832SOL    HW2 2394  13.661  14.553   7.037
66833SOL     OW 2395   9.483   8.973   5.543
66833SOL    HW1 2396   9.469   8.940   5.455
66833SOL    HW2 2397   9.529   8.902   5.589
66834SOL     OW 2398  12.085  11.502  10.910
66834SOL    HW1 2399  12.052  11.449  10.837
66834SOL    HW2 2400  12.022  11.573  10.919
66835SOL     OW 2401   4.281  14.566   8.086
66835SOL    HW1 2402   4.311  14.487   8.040
66835SOL    HW2 2403   4.361  14.610   8.113
66836SOL     OW 2404   4.414   8.701   7.819
66836SOL    HW1 2405   4.433   8.784   7.863
66836SOL    HW2 2406   4.469   8.637   7.864
66837SOL     OW 2407   8.048   2.811   1.002
66837SOL    HW1 2408   8.005   2.896   1.016
66837SOL    HW2 2409   8.132   2.834   0.962
66838SOL     OW 2410  13.117  12.990   7.942
66838SOL    HW1 2411  13.154  13.026   8.022
66838SOL    HW2 2412  13.186  13.001   7.876
66839SOL     OW 2413  11.324  11.757  10.867
66839SOL    HW1 2414  11.328  11.664  10.889
66839SOL    HW2 2415  11.341  11.803  10.949
66840SOL     OW 2416  14.040  10.184   6.717
66840SOL    HW1 2417  14.026  10.107   6.772
66840SOL    HW2 2418  14.045  10.150   6.628
66841SOL     OW 2419  11.513  12.974   2.983
66841SOL    HW1 2420  11.469  13.049   3.023
66841SOL    HW2 2421  11.532  12.915   3.056
66842SOL     OW 2422  10.721  11.056   9.184
66842SOL    HW1 2423  10.644  11.041   9.239
66842SOL    HW2 2424  10.734  10.973   9.138
66843SOL     OW 2425   5.112   9.013  10.187
66843SOL    HW1 2426   5.027   9.013  10.143
66843SOL    HW2 2427   5.158   8.938  10.151
66844SOL     OW 2428  14.413  14.785   9.623
66844SOL    HW1 2429  14.342  14.748   9.572
66844SOL    HW2 2430  14.491  14.739   9.592
66845SOL     OW 2431   1.679   3.408   1.921
66845SOL    HW1 2432   1.596   3.367   1.899
66845SOL    HW2 2433   1.729   3.407   1.839
66846SOL     OW 2434  13.329   1.498   5.757
66846SOL    HW1 2435  13.331   1.570   5.694
66846SOL    HW2 2436  13.347   1.420   5.705
66847SOL     OW 2437   4.556  14.366   7.133
66847SOL    HW1 2438   4.504  14.299   7.177
66847SOL    HW2 2439   4.646  14.334   7.137
66848SOL     OW 2440   0.670   7.560   5.876
66848SOL    HW1 2441   0.597   7.502   5.852
66848SOL    HW2 2442   0.635   7.615   5.946
66849SOL     OW 2443  13.243  14.427  13.592
66849SOL    HW1 2444  13.318  14.474  13.629
66849SOL    HW2 2445  13.168  14.483  13.613
66850SOL     OW 2446   3.596   0.004  11.723
66850SOL    HW1 2447   3.645  14.810  11.676
66850SOL    HW2 2448   3.517  14.830  11.753
66851SOL     OW 2449  10.206   3.906   7.687
66851SOL    HW1 2450  10.240   3.817   7.699
66851SOL    HW2 2451  10.228   3.951   7.768
66852SOL     OW 2452   7.106  13.420   5.020
66852SOL    HW1 2453   7.023  13.421   5.066
66852SOL    HW2 2454   7.087  13.375   4.937
66853SOL     OW 2455  13.025   4.528   5.476
66853SOL    HW1 2456  12.996   4.617   5.497
66853SOL    HW2 2457  13.105   4.540   5.425
66854SOL     OW 2458   2.116   8.997   1.476
66854SOL    HW1 2459   2.074   8.968   1.557
66854SOL    HW2 2460   2.063   9.071   1.447
66855SOL     OW 2461   3.755   1.567   1.474
66855SOL    HW1 2462   3.768   1.512   1.398
66855SOL    HW2 2463   3.692   1.633   1.445
66856SOL     OW 2464  12.405   0.991   8.151
66856SOL    HW1 2465  12.452   0.935   8.090
66856SOL    HW2 2466  12.319   1.002   8.111
66857SOL     OW 2467  14.393   7.949  13.416
66857SOL    HW1 2468  14.371   7.887  13.486
66857SOL    HW2 2469  14.468   7.909  13.372
66858SOL     OW 2470   3.758   3.689   2.007
66858SOL    HW1 2471   3.761   3.785   2.004
66858SOL    HW2 2472   3.669   3.669   2.036
66859SOL     OW 2473   9.039   5.756   7.590
66859SOL    HW1 2474   9.063   5.803   7.670
66859SOL    HW2 2475   9.077   5.809   7.519
66860SOL     OW 2476  13.143  10.322  10.888
66860SOL    HW1 2477  13.185  10.340  10.972
66860SOL    HW2 2478  13.049  10.319  10.909
66861SOL     OW 2479   2.034   7.731  11.972
66861SOL    HW1 2480   1.973   7.765  11.906
66861SOL    HW2 2481   2.118   7.770  11.948
66862SOL     OW 2482  13.088  13.981   6.113
66862SOL    HW1 2483  13.023  13.914   6.089
66862SOL    HW2 2484  13.156  13.974   6.047
66863SOL     OW 2485  12.922   0.272  10.327
66863SOL    HW1 2486  12.996   0.254  10.269
66863SOL    HW2 2487  12.940   0.221  10.406
66864SOL     OW 2488  11.050  13.865  12.618
66864SOL    HW1 2489  11.040  13.959  12.604
66864SOL    HW2 2490  11.094  13.834  12.539
66865SOL     OW 2491  11.474   5.300   0.745
66865SOL    HW1 2492  11.553   5.279   0.695
66865SOL    HW2 2493  11.417   5.343   0.681
66866SOL     OW 2494   9.569   1.773   9.146
66866SOL    HW1 2495   9.499   1.747   9.207
66866SOL    HW2 2496   9.525   1.785   9.062
66867SOL     OW 2497   8.556  12.586   2.366
66867SOL    HW1 2498   8.483  12.606   2.425
66867SOL    HW2 2499   8.559  12.660   2.306
66868SOL     OW 2500  12.354   0.958  13.841
66868SOL    HW1 2501  12.318   1.041  13.810
66868SOL    HW2 2502  12.344   0.961  13.936
66869SOL     OW 2503  12.015   0.300   5.302
66869SOL    HW1 2504  12.011   0.345   5.386
66869SOL    HW2 2505  12.072   0.224   5.318
66870SOL     OW 2506   8.773   7.751   3.028
66870SOL    HW1 2507   8.722   7.793   2.959
66870SOL    HW2 2508   8.851   7.719   2.984
66871SOL     OW 2509   4.928   6.219   0.632
66871SOL    HW1 2510   4.960   6.132   0.655
66871SOL    HW2 2511   4.984   6.246   0.558
66872SOL     OW 2512  11.443   0.384   3.713
66872SOL    HW1 2513  11.470   0.295   3.692
66872SOL    HW2 2514  11.462   0.394   3.806
66873SOL     OW 2515  14.075  14.802  13.107
66873SOL    HW1 2516  14.155  14.794  13.056
66873SOL    HW2 2517  14.065   0.024  13.121
66874SOL     OW 2518  10.077  13.565   8.849
66874SOL    HW1 2519  10.171  13.555   8.834
66874SOL    HW2 2520  10.064  13.532   8.938
66875SOL     OW 2521  11.214   6.208  10.493
66875SOL    HW1 2522  11.201   6.122  10.534
66875SOL    HW2 2523  11.304   6.204  10.460
66876SOL     OW 2524   9.192   3.928   1.220
66876SOL    HW1 2525   9.186   4.023   1.210
66876SOL    HW2 2526   9.166   3.894   1.135
66877SOL     OW 2527   0.388  13.130   6.416
66877SOL    HW1 2528   0.472  13.086   6.431
66877SOL    HW2 2529   0.345  13.130   6.501
66878SOL     OW 2530   0.678   8.126   2.814
66878SOL    HW1 2531   0.674   8.214   2.853
66878SOL    HW2 2532   0.682   8.142   2.719
66879SOL     OW 2533   9.199   0.760  13.542
66879SOL    HW1 2534   9.142   0.837  13.550
66879SOL    HW2 2535   9.193   0.716  13.627
66880SOL     OW 2536  14.393   3.755  11.741
66880SOL    HW1 2537  14.468   3.790  11.692
66880SOL    HW2 2538  14.355   3.689  11.683
66881SOL     OW 2539   5.213  10.866   5.175
66881SOL    HW1 2540   5.236  10.798   5.238
66881SOL    HW2 2541   5.285  10.929   5.181
66882SOL     OW 2542  13.342  13.494   5.384
66882SOL    HW1 2543  13.391  13.426   5.338
66882SOL    HW2 2544  13.250  13.475   5.363
66883SOL     OW 2545   0.593   7.566  13.899
66883SOL    HW1 2546   0.600   7.473  13.876
66883SOL    HW2 2547   0.610   7.569  13.993
66884SOL     OW 2548  10.653  12.097   7.770
66884SOL    HW1 2549  10.566  12.056   7.775
66884SOL    HW2 2550  10.698  12.064   7.848
66885SOL     OW 2551   3.449   3.065   0.811
66885SOL    HW1 2552   3.498   3.001   0.862
66885SOL    HW2 2553   3.398   3.012   0.749
66886SOL     OW 2554   1.141   9.335   9.837
66886SOL    HW1 2555   1.117   9.352   9.928
66886SOL    HW2 2556   1.138   9.240   9.828
66887SOL     OW 2557   8.421  12.188   7.042
66887SOL    HW1 2558   8.336  12.215   7.078
66887SOL    HW2 2559   8.476  12.173   7.118
66888SOL     OW 2560   2.365   1.746   1.891
66888SOL    HW1 2561   2.372   1.738   1.986
66888SOL    HW2 2562   2.314   1.826   1.878
66889SOL     OW 2563  11.892  11.768   2.279
66889SOL    HW1 2564  11.944  11.799   2.353
66889SOL    HW2 2565  11.868  11.848   2.231
66890SOL     OW 2566   5.885   3.619   3.217
66890SOL    HW1 2567   5.847   3.566   3.148
66890SOL    HW2 2568   5.875   3.709   3.186
66891SOL     OW 2569   7.908  10.638  12.876
66891SOL    HW1 2570   7.922  10.582  12.800
66891SOL    HW2 2571   7.876  10.578  12.944
66892SOL     OW 2572  10.287   8.477  13.769
66892SOL    HW1 2573  10.230   8.550  13.790
66892SOL    HW2 2574  10.316   8.493  13.679
66893SOL     OW 2575   6.499   1.081   1.999
66893SOL    HW1 2576   6.435   1.055   1.933
66893SOL    HW2 2577   6.582   1.043   1.968
66894SOL     OW 2578  11.196   0.455  12.685
66894SOL    HW1 2579  11.102   0.468  12.698
66894SOL    HW2 2580  11.215   0.500  12.603
66895SOL     OW 2581  13.602  11.338   8.567
66895SOL    HW1 2582  13.543  11.263   8.567
66895SOL    HW2 2583  13.545  11.413   8.584
66896SOL     OW 2584  13.888   6.299  13.477
66896SOL    HW1 2585  13.815   6.361  13.473
66896SOL    HW2 2586  13.848   6.214  13.461
66897SOL     OW 2587   2.427   5.849  13.413
66897SOL    HW1 2588   2.366   5.906  13.365
66897SOL    HW2 2589   2.417   5.875  13.505
66898SOL     OW 2590  10.168  13.526   2.958
66898SOL    HW1 2591  10.214  13.478   2.889
66898SOL    HW2 2592  10.138  13.459   3.019
66899SOL     OW 2593   2.743   9.754   2.770
66899SOL    HW1 2594   2.714   9.762   2.679
66899SOL    HW2 2595   2.838   9.756   2.765
66900SOL     OW 2596   1.459   7.151   8.363
66900SOL    HW1 2597   1.365   7.161   8.374
66900SOL    HW2 2598   1.472   7.153   8.268
66901SOL     OW 2599  11.534  11.211  14.540
66901SOL    HW1 2600  11.629  11.198  14.540
66901SOL    HW2 2601  11.515  11.254  14.457
66902SOL     OW 2602   1.748   6.127  12.827
66902SOL    HW1 2603   1.794   6.090  12.903
66902SOL    HW2 2604   1.739   6.220  12.848
66903SOL     OW 2605   9.977   9.283  13.382
66903SOL    HW1 2606   9.891   9.325  13.374
66903SOL    HW2 2607   9.987   9.232  13.302
66904SOL     OW 2608  12.140  14.648   9.745
66904SOL    HW1 2609  12.145  14.737   9.708
66904SOL    HW2 2610  12.129  14.662   9.839
66905SOL     OW 2611  12.771   3.105   3.640
66905SOL    HW1 2612  12.719   3.184   3.655
66905SOL    HW2 2613  12.833   3.130   3.571
66906SOL     OW 2614  13.445  11.024  10.903
66906SOL    HW1 2615  13.416  11.109  10.869
66906SOL    HW2 2616  13.368  10.968  10.898
66907SOL     OW 2617   0.234  10.735   6.646
66907SOL    HW1 2618   0.235  10.719   6.740
66907SOL    HW2 2619   0.167  10.803   6.634
66908SOL     OW 2620   0.281   0.827  14.449
66908SOL    HW1 2621   0.362   0.782  14.426
66908SOL    HW2 2622   0.223   0.759  14.483
66909SOL     OW 2623   7.847   5.625   3.360
66909SOL    HW1 2624   7.914   5.629   3.292
66909SOL    HW2 2625   7.893   5.651   3.440
66910SOL     OW 2626   1.112   6.647  12.086
66910SOL    HW1 2627   1.182   6.585  12.067
66910SOL    HW2 2628   1.121   6.714  12.017
66911SOL     OW 2629  14.376   8.599  14.269
66911SOL    HW1 2630  14.334   8.550  14.199
66911SOL    HW2 2631  14.394   8.685  14.231
66912SOL     OW 2632   0.319   0.048   5.817
66912SOL    HW1 2633   0.350   0.133   5.848
66912SOL    HW2 2634   0.273   0.011   5.892
66913SOL     OW 2635  11.320   3.227   9.927
66913SOL    HW1 2636  11.231   3.226   9.891
66913SOL    HW2 2637  11.327   3.145   9.976
66914SOL     OW 2638  12.424   6.738   8.218
66914SOL    HW1 2639  12.347   6.718   8.272
66914SOL    HW2 2640  12.497   6.695   8.262
66915SOL     OW 2641   9.410   9.673   6.919
66915SOL    HW1 2642   9.486   9.730   6.929
66915SOL    HW2 2643   9.443   9.597   6.869
66916SOL     OW 2644  12.743  14.369   9.740
66916SOL    HW1 2645  12.662  14.401   9.780
66916SOL    HW2 2646  12.715  14.326   9.660
66917SOL     OW 2647   1.382   5.621   8.681
66917SOL    HW1 2648   1.390   5.526   8.679
66917SOL    HW2 2649   1.327   5.642   8.606
66918SOL     OW 2650   5.665   0.201  12.984
66918SOL    HW1 2651   5.755   0.215  13.013
66918SOL    HW2 2652   5.625   0.288  12.983
66919SOL     OW 2653   3.130  14.748   2.431
66919SOL    HW1 2654   3.191  14.708   2.369
66919SOL    HW2 2655   3.046  14.706   2.413
66920SOL     OW 2656   4.042  13.151   4.970
66920SOL    HW1 2657   4.058  13.191   5.055
66920SOL    HW2 2658   3.988  13.214   4.923
66921SOL     OW 2659   7.349  13.338  12.106
66921SOL    HW1 2660   7.280  13.314  12.168
66921SOL    HW2 2661   7.304  13.358  12.025
66922SOL     OW 2662  11.545   4.669   6.055
66922SOL    HW1 2663  11.500   4.699   6.135
66922SOL    HW2 2664  11.581   4.584   6.078
66923SOL     OW 2665   9.551   7.986   8.942
66923SOL    HW1 2666   9.531   7.952   8.855
66923SOL    HW2 2667   9.465   8.000   8.983
66924SOL     OW 2668   6.354   5.714   5.939
66924SOL    HW1 2669   6.416   5.739   5.870
66924SOL    HW2 2670   6.358   5.619   5.942
66925SOL     OW 2671  11.575   5.799   6.566
66925SOL    HW1 2672  11.497   5.745   6.576
66925SOL    HW2 2673  11.647   5.736   6.557
66926SOL     OW 2674  10.150  10.110  13.240
66926SOL    HW1 2675  10.172  10.079  13.328
66926SOL    HW2 2676  10.107  10.194  13.254
66927SOL     OW 2677   5.575  13.275   5.165
66927SOL    HW1 2678   5.643  13.225   5.210
66927SOL    HW2 2679   5.602  13.275   5.073
66928SOL     OW 2680   0.803  11.803   4.099
66928SOL    HW1 2681   0.878  11.765   4.144
66928SOL    HW2 2682   0.753  11.728   4.067
66929SOL     OW 2683   6.418   3.673   4.079
66929SOL    HW1 2684   6.383   3.659   3.991
66929SOL    HW2 2685   6.347   3.647   4.138
66930SOL     OW 2686   9.779   2.297   3.383
66930SOL    HW1 2687   9.710   2.244   3.423
66930SOL    HW2 2688   9.770   2.283   3.289
66931SOL     OW 2689  14.019   6.477   8.408
66931SOL    HW1 2690  13.942   6.456   8.462
66931SOL    HW2 2691  14.050   6.561   8.442
66932SOL     OW 2692  10.318  12.264  11.180
66932SOL    HW1 2693  10.291  12.203  11.248
66932SOL    HW2 2694  10.291  12.350  11.212
66933SOL     OW 2695   6.956   4.378   8.209
66933SOL    HW1 2696   6.911   4.378   8.125
66933SOL    HW2 2697   6.995   4.465   8.216
66934SOL     OW 2698   5.300   0.571  11.042
66934SOL    HW1 2699   5.205   0.582  11.053
66934SOL    HW2 2700   5.313   0.477  11.043
66935SOL     OW 2701   0.427  12.648  14.287
66935SOL    HW1 2702   0.407  12.741  14.288
66935SOL    HW2 2703   0.347  12.606  14.256
66936SOL     OW 2704   4.900   3.104   5.238
66936SOL    HW1 2705   4.823   3.155   5.211
66936SOL    HW2 2706   4.915   3.130   5.329
66937SOL     OW 2707   1.837  12.571   7.889
66937SOL    HW1 2708   1.886  12.594   7.810
66937SOL    HW2 2709   1.904  12.562   7.957
66938SOL     OW 2710  10.123  10.394   9.351
66938SOL    HW1 2711  10.149  10.347   9.272
66938SOL    HW2 2712  10.205  10.426   9.389
66939SOL     OW 2713   9.389   6.955   3.660
66939SOL    HW1 2714   9.448   6.936   3.733
66939SOL    HW2 2715   9.346   7.036   3.685
66940SOL     OW 2716   8.778  12.513   4.067
66940SOL    HW1 2717   8.714  12.473   4.008
66940SOL    HW2 2718   8.734  12.590   4.102
66941SOL     OW 2719   7.746  13.277   4.373
66941SOL    HW1 2720   7.794  13.255   4.453
66941SOL    HW2 2721   7.657  13.247   4.390
66942SOL     OW 2722  12.388   3.007   9.870
66942SOL    HW1 2723  12.318   3.072   9.858
66942SOL    HW2 2724  12.363   2.958   9.948
66943SOL     OW 2725   8.666   6.760   6.215
66943SOL    HW1 2726   8.678   6.794   6.126
66943SOL    HW2 2727   8.734   6.694   6.225
66944SOL     OW 2728   8.818  10.166   5.597
66944SOL    HW1 2729   8.897  10.212   5.624
66944SOL    HW2 2730   8.769  10.231   5.546
66945SOL     OW 2731  12.327  11.151   6.695
66945SOL    HW1 2732  12.310  11.243   6.678
66945SOL    HW2 2733  12.243  11.108   6.679
66946SOL     OW 2734  13.399   2.396  12.401
66946SOL    HW1 2735  13.330   2.431  12.458
66946SOL    HW2 2736  13.463   2.466  12.395
66947SOL     OW 2737  10.847   6.506   9.530
66947SOL    HW1 2738  10.885   6.568   9.591
66947SOL    HW2 2739  10.812   6.436   9.586
66948SOL     OW 2740  10.039   8.651  12.711
66948SOL    HW1 2741   9.997   8.692  12.786
66948SOL    HW2 2742  10.027   8.713  12.639
66949SOL     OW 2743   8.982   4.459  12.386
66949SOL    HW1 2744   9.029   4.463  12.470
66949SOL    HW2 2745   8.967   4.550  12.362
66950SOL     OW 2746   0.879   3.734   8.459
66950SOL    HW1 2747   0.897   3.645   8.432
66950SOL    HW2 2748   0.848   3.726   8.549
66951SOL     OW 2749   3.916   6.089  12.438
66951SOL    HW1 2750   3.972   6.048  12.504
66951SOL    HW2 2751   3.948   6.055  12.354
66952SOL     OW 2752   0.856   2.683   5.634
66952SOL    HW1 2753   0.851   2.686   5.730
66952SOL    HW2 2754   0.764   2.679   5.606
66953SOL     OW 2755   0.719   0.548   7.138
66953SOL    HW1 2756   0.785   0.488   7.102
66953SOL    HW2 2757   0.682   0.500   7.212
66954SOL     OW 2758   2.614   3.876   6.751
66954SOL    HW1 2759   2.568   3.946   6.705
66954SOL    HW2 2760   2.694   3.918   6.783
66955SOL     OW 2761   7.767   3.823   9.297
66955SOL    HW1 2762   7.861   3.829   9.309
66955SOL    HW2 2763   7.753   3.737   9.257
66956SOL     OW 2764  10.221   3.724   6.680
66956SOL    HW1 2765  10.269   3.683   6.609
66956SOL    HW2 2766  10.197   3.652   6.738
66957SOL     OW 2767  11.740  13.014   9.357
66957SOL    HW1 2768  11.719  13.090   9.411
66957SOL    HW2 2769  11.832  12.996   9.375
66958SOL     OW 2770  14.231  14.139   7.674
66958SOL    HW1 2771  14.169  14.147   7.747
66958SOL    HW2 2772  14.316  14.160   7.713
66959SOL     OW 2773  10.228   4.417  13.220
66959SOL    HW1 2774  10.155   4.423  13.281
66959SOL    HW2 2775  10.193   4.452  13.138
66960SOL     OW 2776  11.499   1.806   1.422
66960SOL    HW1 2777  11.590   1.834   1.431
66960SOL    HW2 2778  11.452   1.884   1.393
66961SOL     OW 2779   5.513  10.229   2.134
66961SOL    HW1 2780   5.491  10.154   2.080
66961SOL    HW2 2781   5.579  10.277   2.084
66962SOL     OW 2782   9.506   8.196  11.623
66962SOL    HW1 2783   9.490   8.144  11.545
66962SOL    HW2 2784   9.440   8.266  11.619
66963SOL     OW 2785   1.041   8.525   8.268
66963SOL    HW1 2786   0.955   8.568   8.271
66963SOL    HW2 2787   1.058   8.500   8.359
66964SOL     OW 2788   8.327   5.058   9.008
66964SOL    HW1 2789   8.304   4.970   8.980
66964SOL    HW2 2790   8.382   5.046   9.085
66965SOL     OW 2791  12.955   8.581   6.763
66965SOL    HW1 2792  12.870   8.546   6.787
66965SOL    HW2 2793  13.009   8.503   6.746
66966SOL     OW 2794  10.555   0.660   2.225
66966SOL    HW1 2795  10.486   0.719   2.194
66966SOL    HW2 2796  10.636   0.707   2.207
66967SOL     OW 2797   5.514   5.512  13.242
66967SOL    HW1 2798   5.433   5.505  13.293
66967SOL    HW2 2799   5.516   5.431  13.190
66968SOL     OW 2800   3.611  10.894   8.016
66968SOL    HW1 2801   3.701  10.862   8.017
66968SOL    HW2 2802   3.617  10.983   7.983
66969SOL     OW 2803   0.674  11.684   0.406
66969SOL    HW1 2804   0.697  11.744   0.477
66969SOL    HW2 2805   0.748  11.623   0.401
66970SOL     OW 2806   0.361   6.570   0.936
66970SOL    HW1 2807   0.368   6.478   0.911
66970SOL    HW2 2808   0.285   6.602   0.886
66971SOL     OW 2809  12.092   5.373   6.408
66971SOL    HW1 2810  12.114   5.289   6.370
66971SOL    HW2 2811  12.175   5.421   6.411
66972SOL     OW 2812  11.538   3.691  13.545
66972SOL    HW1 2813  11.612   3.632  13.533
66972SOL    HW2 2814  11.540   3.747  13.467
66973SOL     OW 2815   7.775  10.556   3.260
66973SOL    HW1 2816   7.869  10.548   3.278
66973SOL    HW2 2817   7.770  10.613   3.183
66974SOL     OW 2818  10.348  10.906  13.606
66974SOL    HW1 2819  10.430  10.930  13.650
66974SOL    HW2 2820  10.285  10.895  13.677
66975SOL     OW 2821   8.797   2.840   9.731
66975SOL    HW1 2822   8.721   2.784   9.750
66975SOL    HW2 2823   8.809   2.892   9.810
66976SOL     OW 2824  13.556   4.644  11.152
66976SOL    HW1 2825  13.568   4.720  11.094
66976SOL    HW2 2826  13.631   4.647  11.211
66977SOL     OW 2827  10.643   7.217   5.543
66977SOL    HW1 2828  10.651   7.139   5.597
66977SOL    HW2 2829  10.555   7.249   5.560
66978SOL     OW 2830   9.556   2.369   2.147
66978SOL    HW1 2831   9.519   2.282   2.163
66978SOL    HW2 2832   9.552   2.413   2.232
66979SOL     OW 2833  11.146   1.773   0.876
66979SOL    HW1 2834  11.123   1.681   0.876
66979SOL    HW2 2835  11.165   1.794   0.785
66980SOL     OW 2836   5.039   3.160   1.795
66980SOL    HW1 2837   5.119   3.123   1.758
66980SOL    HW2 2838   5.059   3.174   1.887
66981SOL     OW 2839   2.825  12.435   4.188
66981SOL    HW1 2840   2.767  12.437   4.112
66981SOL    HW2 2841   2.850  12.343   4.196
66982SOL     OW 2842  10.313   1.091   8.185
66982SOL    HW1 2843  10.375   1.076   8.114
66982SOL    HW2 2844  10.255   1.014   8.183
66983SOL     OW 2845  11.569   7.442   6.337
66983SOL    HW1 2846  11.528   7.412   6.419
66983SOL    HW2 2847  11.570   7.537   6.345
66984SOL     OW 2848   2.038  10.263   8.318
66984SOL    HW1 2849   1.970  10.324   8.344
66984SOL    HW2 2850   2.001  10.214   8.245
66985SOL     OW 2851   2.654   7.230  11.783
66985SOL    HW1 2852   2.715   7.301  11.802
66985SOL    HW2 2853   2.709   7.151  11.781
66986SOL     OW 2854  12.329   3.279   2.420
66986SOL    HW1 2855  12.276   3.201   2.436
66986SOL    HW2 2856  12.323   3.294   2.326
66987SOL     OW 2857  12.887   4.474   3.062
66987SOL    HW1 2858  12.810   4.440   3.016
66987SOL    HW2 2859  12.943   4.398   3.076
66988SOL     OW 2860   7.914   4.668  10.518
66988SOL    HW1 2861   7.872   4.710  10.593
66988SOL    HW2 2862   7.845   4.664  10.451
66989SOL     OW 2863  13.971   5.702   1.995
66989SOL    HW1 2864  13.914   5.665   2.062
66989SOL    HW2 2865  13.972   5.636   1.926
66990SOL     OW 2866   2.788   6.048   3.210
66990SOL    HW1 2867   2.761   6.078   3.296
66990SOL    HW2 2868   2.834   5.966   3.226
66991SOL     OW 2869  14.318   8.821   9.669
66991SOL    HW1 2870  14.358   8.887   9.612
66991SOL    HW2 2871  14.249   8.868   9.716
66992SOL     OW 2872   7.889  12.106   6.171
66992SOL    HW1 2873   7.853  12.031   6.125
66992SOL    HW2 2874   7.933  12.157   6.103
66993SOL     OW 2875  10.512   6.781  10.217
66993SOL    HW1 2876  10.445   6.795  10.150
66993SOL    HW2 2877  10.589   6.755  10.168
66994SOL     OW 2878   7.068   9.426  12.427
66994SOL    HW1 2879   7.079   9.486  12.501
66994SOL    HW2 2880   7.033   9.346  12.466
66995SOL     OW 2881   5.804   6.026  10.165
66995SOL    HW1 2882   5.841   6.114  10.162
66995SOL    HW2 2883   5.851   5.982  10.235
66996SOL     OW 2884   4.158   5.747   7.547
66996SOL    HW1 2885   4.223   5.769   7.480
66996SOL    HW2 2886   4.205   5.690   7.607
66997SOL     OW 2887  14.382   9.778  14.373
66997SOL    HW1 2888  14.438   9.854  14.358
66997SOL    HW2 2889  14.438   9.717  14.422
66998SOL     OW 2890   7.525   9.605   4.120
66998SOL    HW1 2891   7.555   9.662   4.190
66998SOL    HW2 2892   7.606   9.570   4.081
66999SOL     OW 2893  13.184   8.261  10.112
66999SOL    HW1 2894  13.175   8.350  10.077
66999SOL    HW2 2895  13.256   8.222  10.062
67000SOL     OW 2896   6.945   5.934   9.711
67000SOL    HW1 2897   6.976   5.868   9.772
67000SOL    HW2 2898   6.990   5.914   9.629
67001SOL     OW 2899   8.498   3.172   9.665
67001SOL    HW1 2900   8.454   3.171   9.580
67001SOL    HW2 2901   8.480   3.259   9.701
67002SOL     OW 2902  10.366  11.054  10.146
67002SOL    HW1 2903  10.283  11.098  10.162
67002SOL    HW2 2904  10.360  11.025  10.055
67003SOL     OW 2905   3.860  12.858   0.397
67003SOL    HW1 2906   3.768  12.859   0.423
67003SOL    HW2 2907   3.897  12.781   0.441
67004SOL     OW 2908   6.905  14.213  12.507
67004SOL    HW1 2909   6.904  14.211  12.411
67004SOL    HW2 2910   6.855  14.136  12.534
67005SOL     OW 2911   5.406  14.427   7.011
67005SOL    HW1 2912   5.311  14.425   7.022
67005SOL    HW2 2913   5.440  14.446   7.099
67006SOL     OW 2914   9.455   8.540   0.169
67006SOL    HW1 2915   9.408   8.596   0.108
67006SOL    HW2 2916   9.536   8.517   0.123
67007SOL     OW 2917   2.207   0.439  13.706
67007SOL    HW1 2918   2.153   0.512  13.738
67007SOL    HW2 2919   2.291   0.479  13.685
67008SOL     OW 2920   8.433  14.447   2.535
67008SOL    HW1 2921   8.359  14.445   2.595
67008SOL    HW2 2922   8.504  14.486   2.585
67009SOL     OW 2923  12.067   3.964   2.448
67009SOL    HW1 2924  12.039   4.036   2.390
67009SOL    HW2 2925  12.002   3.896   2.434
67010SOL     OW 2926   1.402   8.742   6.095
67010SOL    HW1 2927   1.483   8.691   6.101
67010SOL    HW2 2928   1.345   8.690   6.039
67011SOL     OW 2929   7.791   3.122   8.103
67011SOL    HW1 2930   7.861   3.173   8.146
67011SOL    HW2 2931   7.727   3.107   8.173
67012SOL     OW 2932   3.024   5.345   9.792
67012SOL    HW1 2933   3.010   5.256   9.823
67012SOL    HW2 2934   3.119   5.351   9.778
67013SOL     OW 2935   4.344   1.950  13.802
67013SOL    HW1 2936   4.390   2.034  13.807
67013SOL    HW2 2937   4.413   1.887  13.781
67014SOL     OW 2938   4.229   2.880   5.119
67014SOL    HW1 2939   4.199   2.842   5.037
67014SOL    HW2 2940   4.213   2.812   5.184
67015SOL     OW 2941   1.642  11.448   5.645
67015SOL    HW1 2942   1.637  11.542   5.664
67015SOL    HW2 2943   1.552  11.422   5.625
67016SOL     OW 2944   5.309   9.266  11.466
67016SOL    HW1 2945   5.346   9.194  11.415
67016SOL    HW2 2946   5.346   9.345  11.426
67017SOL     OW 2947  12.655   0.837   8.797
67017SOL    HW1 2948  12.683   0.862   8.885
67017SOL    HW2 2949  12.731   0.793   8.759
67018SOL     OW 2950   9.363   7.454   9.614
67018SOL    HW1 2951   9.320   7.481   9.695
67018SOL    HW2 2952   9.449   7.421   9.641
67019SOL     OW 2953   8.463  14.631   9.327
67019SOL    HW1 2954   8.456  14.538   9.307
67019SOL    HW2 2955   8.375  14.658   9.353
67020SOL     OW 2956   9.070  12.695  10.997
67020SOL    HW1 2957   9.093  12.632  10.929
67020SOL    HW2 2958   8.988  12.733  10.967
67021SOL     OW 2959   8.285   5.123   3.584
67021SOL    HW1 2960   8.256   5.059   3.519
67021SOL    HW2 2961   8.204   5.154   3.625
67022SOL     OW 2962  13.967  11.862  13.578
67022SOL    HW1 2963  13.946  11.779  13.619
67022SOL    HW2 2964  13.950  11.848  13.484
67023SOL     OW 2965  12.152  14.636  10.021
67023SOL    HW1 2966  12.084  14.569  10.031
67023SOL    HW2 2967  12.149  14.686  10.102
67024SOL     OW 2968   7.637   9.382   1.439
67024SOL    HW1 2969   7.686   9.425   1.369
67024SOL    HW2 2970   7.611   9.298   1.402
67025SOL     OW 2971  12.352   8.562   3.571
67025SOL    HW1 2972  12.383   8.577   3.660
67025SOL    HW2 2973  12.348   8.650   3.533
67026SOL     OW 2974  10.160  14.505  11.101
67026SOL    HW1 2975  10.232  14.473  11.154
67026SOL    HW2 2976  10.138  14.431  11.044
67027SOL     OW 2977   1.729  14.611   2.078
67027SOL    HW1 2978   1.704  14.520   2.099
67027SOL    HW2 2979   1.680  14.664   2.141
67028SOL     OW 2980  10.550   3.883  11.076
67028SOL    HW1 2981  10.586   3.817  11.136
67028SOL    HW2 2982  10.627   3.921  11.034
67029SOL     OW 2983  10.744   8.286   2.106
67029SOL    HW1 2984  10.740   8.224   2.033
67029SOL    HW2 2985  10.654   8.316   2.117
67030SOL     OW 2986  10.770  12.891   9.397
67030SOL    HW1 2987  10.744  12.936   9.478
67030SOL    HW2 2988  10.799  12.805   9.426
67031SOL     OW 2989  11.720   8.319   2.473
67031SOL    HW1 2990  11.772   8.298   2.396
67031SOL    HW2 2991  11.636   8.275   2.460
67032SOL     OW 2992   9.787   7.724   7.083
67032SOL    HW1 2993   9.837   7.688   7.157
67032SOL    HW2 2994   9.696   7.705   7.104
67033SOL     OW 2995  14.090  12.802   4.671
67033SOL    HW1 2996  14.133  12.803   4.585
67033SOL    HW2 2997  13.999  12.825   4.653
67034SOL     OW 2998   7.065   6.827  10.749
67034SOL    HW1 2999   7.106   6.879  10.680
67034SOL    HW2 3000   7.125   6.833  10.823
67035SOL     OW 3001   7.950  12.615   8.458
67035SOL    HW1 3002   7.984  12.697   8.492
67035SOL    HW2 3003   8.027  12.569   8.423
67036SOL     OW 3004   4.205   1.152  10.503
67036SOL    HW1 3005   4.199   1.059  10.480
67036SOL    HW2 3006   4.284   1.183  10.458
67037SOL     OW 3007   9.489   9.956  11.934
67037SOL    HW1 3008   9.395   9.937  11.938
67037SOL    HW2 3009   9.528   9.876  11.900
67038SOL     OW 3010  11.385   1.949   3.217
67038SOL    HW1 3011  11.309   1.983   3.264
67038SOL    HW2 3012  11.390   2.000   3.137
67039SOL     OW 3013  13.743  10.174  11.014
67039SOL    HW1 3014  13.820  10.160  10.958
67039SOL    HW2 3015  13.760  10.120  11.091
67040SOL     OW 3016   0.767   8.839  13.536
67040SOL    HW1 3017   0.708   8.910  13.511
67040SOL    HW2 3018   0.787   8.795  13.453
67041SOL     OW 3019   5.782   5.687   8.877
67041SOL    HW1 3020   5.821   5.772   8.896
67041SOL    HW2 3021   5.855   5.625   8.883
67042SOL     OW 3022  14.204   4.545   4.788
67042SOL    HW1 3023  14.253   4.554   4.871
67042SOL    HW2 3024  14.114   4.566   4.811
67043SOL     OW 3025   1.594  10.535  13.476
67043SOL    HW1 3026   1.625  10.467  13.536
67043SOL    HW2 3027   1.505  10.554  13.506
67044SOL     OW 3028   6.514   0.459  14.663
67044SOL    HW1 3029   6.538   0.454  14.571
67044SOL    HW2 3030   6.476   0.373  14.683
67045SOL     OW 3031   1.365  14.301   4.006
67045SOL    HW1 3032   1.428  14.366   3.976
67045SOL    HW2 3033   1.390  14.220   3.960
67046SOL     OW 3034   8.752  11.291   9.448
67046SOL    HW1 3035   8.696  11.232   9.397
67046SOL    HW2 3036   8.796  11.346   9.383
67047SOL     OW 3037  10.337  12.856   0.435
67047SOL    HW1 3038  10.313  12.926   0.375
67047SOL    HW2 3039  10.329  12.896   0.522
67048SOL     OW 3040   2.607   5.052   8.637
67048SOL    HW1 3041   2.567   5.125   8.590
67048SOL    HW2 3042   2.671   5.016   8.576
67049SOL     OW 3043  11.955   5.580   0.216
67049SOL    HW1 3044  11.978   5.660   0.263
67049SOL    HW2 3045  11.958   5.605   0.123
67050SOL     OW 3046   2.522  10.047  10.194
67050SOL    HW1 3047   2.558  10.130  10.165
67050SOL    HW2 3048   2.469  10.069  10.271
67051SOL     OW 3049   7.660   5.499   7.598
67051SOL    HW1 3050   7.668   5.586   7.560
67051SOL    HW2 3051   7.568   5.475   7.585
67052SOL     OW 3052   4.736   7.616   8.621
67052SOL    HW1 3053   4.789   7.585   8.547
67052SOL    HW2 3054   4.731   7.710   8.610
67053SOL     OW 3055   2.273   6.525   9.810
67053SOL    HW1 3056   2.212   6.460   9.843
67053SOL    HW2 3057   2.236   6.553   9.726
67054SOL     OW 3058  10.111  13.754  10.316
67054SOL    HW1 3059  10.034  13.802  10.283
67054SOL    HW2 3060  10.178  13.822  10.325
67055SOL     OW 3061   9.654   2.928   7.668
67055SOL    HW1 3062   9.672   2.964   7.581
67055SOL    HW2 3063   9.593   2.856   7.652
67056SOL     OW 3064   3.291   3.334   3.204
67056SOL    HW1 3065   3.331   3.336   3.117
67056SOL    HW2 3066   3.306   3.245   3.235
67057SOL     OW 3067  14.541   3.413   9.882
67057SOL    HW1 3068  14.620   3.357   9.881
67057SOL    HW2 3069  14.533   3.443   9.792
67058SOL     OW 3070  12.918  14.143   2.450
67058SOL    HW1 3071  12.886  14.083   2.382
67058SOL    HW2 3072  13.012  14.124   2.457
67059SOL     OW 3073   0.006   2.127   0.176
67059SOL    HW1 3074  14.866   2.216   0.208
67059SOL    HW2 3075  14.799   2.108   0.127
67060SOL     OW 3076   1.952  10.473   2.304
67060SOL    HW1 3077   1.909  10.447   2.223
67060SOL    HW2 3078   1.997  10.555   2.283
67061SOL     OW 3079   2.637   6.892  11.061
67061SOL    HW1 3080   2.711   6.874  11.119
67061SOL    HW2 3081   2.588   6.962  11.105
67062SOL     OW 3082   1.914   9.599   9.344
67062SOL    HW1 3083   1.957   9.514   9.354
67062SOL    HW2 3084   1.984   9.663   9.353
67063SOL     OW 3085   0.819  14.098  10.118
67063SOL    HW1 3086   0.724  14.093  10.108
67063SOL    HW2 3087   0.832  14.141  10.202
67064SOL     OW 3088   8.122  11.829   2.579
67064SOL    HW1 3089   8.060  11.865   2.515
67064SOL    HW2 3090   8.170  11.762   2.530
67065SOL     OW 3091   8.837   3.378   7.704
67065SOL    HW1 3092   8.895   3.395   7.778
67065SOL    HW2 3093   8.749   3.386   7.741
67066SOL     OW 3094   9.900  10.972   2.545
67066SOL    HW1 3095   9.831  10.906   2.539
67066SOL    HW2 3096   9.881  11.033   2.474
67067SOL     OW 3097   7.994   4.932   5.436
67067SOL    HW1 3098   8.051   4.911   5.510
67067SOL    HW2 3099   7.929   4.862   5.436
67068SOL     OW 3100  12.429  10.506   8.800
67068SOL    HW1 3101  12.506  10.451   8.782
67068SOL    HW2 3102  12.462  10.596   8.794
67069SOL     OW 3103   0.244   4.686  13.500
67069SOL    HW1 3104   0.265   4.771  13.540
67069SOL    HW2 3105   0.265   4.622  13.568
67070SOL     OW 3106  13.120  12.082   5.287
67070SOL    HW1 3107  13.083  12.154   5.337
67070SOL    HW2 3108  13.044  12.035   5.252
67071SOL     OW 3109   8.199   8.840  13.247
67071SOL    HW1 3110   8.236   8.873  13.328
67071SOL    HW2 3111   8.250   8.761  13.228
67072SOL     OW 3112   4.108   9.261   3.741
67072SOL    HW1 3113   4.171   9.231   3.675
67072SOL    HW2 3114   4.034   9.201   3.733
67073SOL     OW 3115  13.801   9.267   0.772
67073SOL    HW1 3116  13.769   9.188   0.727
67073SOL    HW2 3117  13.790   9.337   0.708
67074SOL     OW 3118   2.390  14.838   2.941
67074SOL    HW1 3119   2.337  14.786   2.881
67074SOL    HW2 3120   2.479  14.804   2.931
67075SOL     OW 3121  11.830  11.825   7.828
67075SOL    HW1 3122  11.897  11.847   7.893
67075SOL    HW2 3123  11.827  11.902   7.771
67076SOL     OW 3124  11.578   8.601  14.478
67076SOL    HW1 3125  11.505   8.549  14.512
67076SOL    HW2 3126  11.620   8.544  14.413
67077SOL     OW 3127  14.245   1.417   1.776
67077SOL    HW1 3128  14.243   1.485   1.844
67077SOL    HW2 3129  14.180   1.447   1.711
67078SOL     OW 3130   8.434  10.963  14.505
67078SOL    HW1 3131   8.488  10.926  14.436
67078SOL    HW2 3132   8.345  10.934  14.484
67079SOL     OW 3133  10.844   8.916  14.364
67079SOL    HW1 3134  10.803   8.852  14.422
67079SOL    HW2 3135  10.898   8.864  14.304
67080SOL     OW 3136  14.057   5.058  13.835
67080SOL    HW1 3137  14.150   5.053  13.856
67080SOL    HW2 3138  14.014   5.017  13.910
67081SOL     OW 3139  10.455   6.844   1.651
67081SOL    HW1 3140  10.500   6.837   1.735
67081SOL    HW2 3141  10.462   6.757   1.612
67082SOL     OW 3142   3.800  14.084  11.045
67082SOL    HW1 3143   3.747  14.040  10.978
67082SOL    HW2 3144   3.865  14.134  10.995
67083SOL     OW 3145   5.979   3.100  13.281
67083SOL    HW1 3146   6.016   3.074  13.365
67083SOL    HW2 3147   6.007   3.032  13.220
67084SOL     OW 3148  10.051   1.176  11.405
67084SOL    HW1 3149  10.110   1.114  11.447
67084SOL    HW2 3150  10.108   1.246  11.373
67085SOL     OW 3151   0.019  13.064   4.907
67085SOL    HW1 3152  14.851  12.979   4.890
67085SOL    HW2 3153   0.113  13.047   4.909
67086SOL     OW 3154  11.817  10.210   8.579
67086SOL    HW1 3155  11.847  10.243   8.664
67086SOL    HW2 3156  11.820  10.115   8.588
67087SOL     OW 3157   9.173   7.719  14.179
67087SOL    HW1 3158   9.260   7.750  14.204
67087SOL    HW2 3159   9.128   7.703  14.262
67088SOL     OW 3160  10.801   6.007   3.685
67088SOL    HW1 3161  10.772   6.050   3.766
67088SOL    HW2 3162  10.764   6.061   3.615
67089SOL     OW 3163   4.900   8.195   1.522
67089SOL    HW1 3164   4.810   8.183   1.492
67089SOL    HW2 3165   4.952   8.198   1.442
67090SOL     OW 3166   8.614   3.983   8.358
67090SOL    HW1 3167   8.654   3.896   8.358
67090SOL    HW2 3168   8.653   4.026   8.434
67091SOL     OW 3169  10.568  13.807   4.906
67091SOL    HW1 3170  10.610  13.721   4.902
67091SOL    HW2 3171  10.495  13.801   4.844
67092SOL     OW 3172  10.734   4.441  11.078
67092SOL    HW1 3173  10.672   4.381  11.036
67092SOL    HW2 3174  10.684   4.479  11.151
67093SOL     OW 3175   9.742  11.099   4.312
67093SOL    HW1 3176   9.833  11.127   4.299
67093SOL    HW2 3177   9.731  11.025   4.251
67094SOL     OW 3178   0.065   6.013   6.738
67094SOL    HW1 3179   0.134   6.051   6.793
67094SOL    HW2 3180   0.062   5.921   6.763
67095SOL     OW 3181   6.620   3.058  12.299
67095SOL    HW1 3182   6.632   3.018  12.385
67095SOL    HW2 3183   6.637   3.151  12.313
67096SOL     OW 3184   6.347  12.170   7.322
67096SOL    HW1 3185   6.339  12.234   7.252
67096SOL    HW2 3186   6.367  12.088   7.277
67097SOL     OW 3187  12.729  11.206   1.865
67097SOL    HW1 3188  12.725  11.121   1.910
67097SOL    HW2 3189  12.817  11.238   1.883
67098SOL     OW 3190   0.347   1.945   5.571
67098SOL    HW1 3191   0.374   2.005   5.640
67098SOL    HW2 3192   0.328   2.002   5.496
67099SOL     OW 3193   3.078  13.709   1.774
67099SOL    HW1 3194   3.098  13.649   1.702
67099SOL    HW2 3195   3.158  13.762   1.784
67100SOL     OW 3196   7.166  11.693   1.958
67100SOL    HW1 3197   7.250  11.664   1.995
67100SOL    HW2 3198   7.126  11.614   1.922
67101SOL     OW 3199   0.318   0.651   7.091
67101SOL    HW1 3200   0.374   0.641   7.015
67101SOL    HW2 3201   0.374   0.693   7.157
67102SOL     OW 3202  14.147  14.691   1.286
67102SOL    HW1 3203  14.086  14.643   1.230
67102SOL    HW2 3204  14.115  14.676   1.375
67103SOL     OW 3205   1.156   3.466   6.877
67103SOL    HW1 3206   1.211   3.447   6.801
67103SOL    HW2 3207   1.081   3.407   6.867
67104SOL     OW 3208   8.695   7.088  10.455
67104SOL    HW1 3209   8.747   7.010  10.473
67104SOL    HW2 3210   8.626   7.059  10.396
67105SOL     OW 3211   0.423  12.961   3.970
67105SOL    HW1 3212   0.404  12.868   3.985
67105SOL    HW2 3213   0.443  12.995   4.057
67106SOL     OW 3214  13.637   8.309  10.835
67106SOL    HW1 3215  13.623   8.384  10.777
67106SOL    HW2 3216  13.732   8.305  10.846
67107SOL     OW 3217  13.432   0.904   1.281
67107SOL    HW1 3218  13.440   0.954   1.200
67107SOL    HW2 3219  13.346   0.862   1.275
67108SOL     OW 3220   3.422  11.898   1.803
67108SOL    HW1 3221   3.512  11.868   1.791
67108SOL    HW2 3222   3.377  11.824   1.845
67109SOL     OW 3223  10.607  14.599   4.932
67109SOL    HW1 3224  10.560  14.616   5.014
67109SOL    HW2 3225  10.573  14.664   4.870
67110SOL     OW 3226   3.597  11.824   4.402
67110SOL    HW1 3227   3.660  11.875   4.351
67110SOL    HW2 3228   3.524  11.809   4.342
67111SOL     OW 3229  10.637   0.674   4.947
67111SOL    HW1 3230  10.650   0.764   4.977
67111SOL    HW2 3231  10.660   0.620   5.022
67112SOL     OW 3232   4.428  14.304  11.414
67112SOL    HW1 3233   4.392  14.349  11.337
67112SOL    HW2 3234   4.373  14.334  11.487
67113SOL     OW 3235  14.679   0.284   4.906
67113SOL    HW1 3236  14.662   0.248   4.820
67113SOL    HW2 3237  14.607   0.253   4.960
67114SOL     OW 3238  11.602  12.393   3.333
67114SOL    HW1 3239  11.656  12.320   3.301
67114SOL    HW2 3240  11.662  12.446   3.385
67115SOL     OW 3241  12.147  10.103  12.021
67115SOL    HW1 3242  12.224  10.107  12.079
67115SOL    HW2 3243  12.072  10.099  12.081
67116SOL     OW 3244   5.528   3.541   7.187
67116SOL    HW1 3245   5.591   3.506   7.125
67116SOL    HW2 3246   5.572   3.538   7.271
67117SOL     OW 3247   7.163   0.758   3.731
67117SOL    HW1 3248   7.160   0.852   3.752
67117SOL    HW2 3249   7.220   0.753   3.655
67118SOL     OW 3250   5.345  13.020   3.548
67118SOL    HW1 3251   5.345  13.110   3.582
67118SOL    HW2 3252   5.390  12.969   3.615
67119SOL     OW 3253  11.243  14.645   6.595
67119SOL    HW1 3254  11.303  14.710   6.559
67119SOL    HW2 3255  11.299  14.580   6.637
67120SOL     OW 3256   9.977   4.884   7.773
67120SOL    HW1 3257   9.934   4.952   7.824
67120SOL    HW2 3258   9.916   4.809   7.777
67121SOL     OW 3259  12.521   0.914   8.572
67121SOL    HW1 3260  12.550   1.005   8.578
67121SOL    HW2 3261  12.574   0.867   8.636
67122SOL     OW 3262   6.341   7.186  12.577
67122SOL    HW1 3263   6.405   7.226  12.519
67122SOL    HW2 3264   6.338   7.243  12.654
67123SOL     OW 3265   0.644   7.139  14.499
67123SOL    HW1 3266   0.691   7.177  14.573
67123SOL    HW2 3267   0.712   7.106  14.441
67124SOL     OW 3268  14.305   5.417   2.299
67124SOL    HW1 3269  14.376   5.440   2.358
67124SOL    HW2 3270  14.344   5.356   2.236
67125SOL     OW 3271   0.305   3.512   4.744
67125SOL    HW1 3272   0.274   3.460   4.818
67125SOL    HW2 3273   0.351   3.449   4.688
67126SOL     OW 3274   1.093   3.410   1.092
67126SOL    HW1 3275   1.114   3.400   1.185
67126SOL    HW2 3276   1.020   3.472   1.091
67127SOL     OW 3277  10.638   4.938   4.726
67127SOL    HW1 3278  10.571   4.870   4.737
67127SOL    HW2 3279  10.653   4.972   4.814
67128SOL     OW 3280  11.121  12.223   1.951
67128SOL    HW1 3281  11.170  12.300   1.921
67128SOL    HW2 3282  11.084  12.249   2.035
67129SOL     OW 3283  13.626   2.251   0.081
67129SOL    HW1 3284  13.718   2.227   0.088
67129SOL    HW2 3285  13.617   2.328   0.137
67130SOL     OW 3286   6.144  14.614  11.317
67130SOL    HW1 3287   6.107  14.700  11.336
67130SOL    HW2 3288   6.070  14.554  11.323
67131SOL     OW 3289  11.292  11.856  11.906
67131SOL    HW1 3290  11.212  11.858  11.854
67131SOL    HW2 3291  11.362  11.876  11.843
67132SOL     OW 3292   9.965  11.684   8.009
67132SOL    HW1 3293   9.950  11.703   7.917
67132SOL    HW2 3294   9.996  11.767   8.046
67133SOL     OW 3295  10.668   3.506   2.922
67133SOL    HW1 3296  10.607   3.568   2.882
67133SOL    HW2 3297  10.753   3.527   2.882
67134SOL     OW 3298   5.430   5.792  14.140
67134SOL    HW1 3299   5.520   5.799  14.171
67134SOL    HW2 3300   5.425   5.852  14.066
67135SOL     OW 3301  10.887   7.972  14.769
67135SOL    HW1 3302  10.863   7.880  14.763
67135SOL    HW2 3303  10.804   8.017  14.789
67136SOL     OW 3304   5.644  13.011   9.897
67136SOL    HW1 3305   5.638  13.007   9.801
67136SOL    HW2 3306   5.727  12.968   9.918
67137SOL     OW 3307   6.082  12.373   4.920
67137SOL    HW1 3308   6.052  12.290   4.884
67137SOL    HW2 3309   6.002  12.419   4.946
67138SOL     OW 3310  11.152   1.750   1.911
67138SOL    HW1 3311  11.228   1.700   1.881
67138SOL    HW2 3312  11.182   1.841   1.914
67139SOL     OW 3313   1.178   6.615   9.541
67139SOL    HW1 3314   1.225   6.664   9.473
67139SOL    HW2 3315   1.213   6.526   9.535
67140SOL     OW 3316   2.842   0.620  13.826
67140SOL    HW1 3317   2.790   0.540  13.820
67140SOL    HW2 3318   2.900   0.606  13.902
67141SOL     OW 3319   5.326   9.822   5.975
67141SOL    HW1 3320   5.239   9.837   6.011
67141SOL    HW2 3321   5.319   9.847   5.883
67142SOL     OW 3322   3.399   3.430   0.155
67142SOL    HW1 3323   3.455   3.384   0.217
67142SOL    HW2 3324   3.459   3.461   0.087
67143SOL     OW 3325   2.395  14.142   2.876
67143SOL    HW1 3326   2.454  14.205   2.834
67143SOL    HW2 3327   2.416  14.148   2.969
67144SOL     OW 3328   1.923   9.309   9.622
67144SOL    HW1 3329   1.908   9.387   9.674
67144SOL    HW2 3330   1.951   9.242   9.685
67145SOL     OW 3331   4.231   5.784   2.098
67145SOL    HW1 3332   4.214   5.808   2.007
67145SOL    HW2 3333   4.144   5.769   2.136
67146SOL     OW 3334   1.069   2.601   8.395
67146SOL    HW1 3335   0.994   2.655   8.370
67146SOL    HW2 3336   1.061   2.523   8.340
67147SOL     OW 3337   8.196   9.411   5.233
67147SOL    HW1 3338   8.195   9.507   5.230
67147SOL    HW2 3339   8.248   9.385   5.156
67148SOL     OW 3340   9.651   3.976   7.869
67148SOL    HW1 3341   9.711   3.941   7.934
67148SOL    HW2 3342   9.667   4.070   7.869
67149SOL     OW 3343  13.332  12.831   7.028
67149SOL    HW1 3344  13.318  12.921   7.058
67149SOL    HW2 3345  13.400  12.838   6.962
67150SOL     OW 3346   0.087   2.379  12.446
67150SOL    HW1 3347   0.083   2.460  12.396
67150SOL    HW2 3348   0.177   2.348  12.436
67151SOL     OW 3349  13.862  11.057  10.226
67151SOL    HW1 3350  13.801  11.097  10.164
67151SOL    HW2 3351  13.807  11.024  10.297
67152SOL     OW 3352   2.622   2.192   5.395
67152SOL    HW1 3353   2.656   2.282   5.399
67152SOL    HW2 3354   2.559   2.193   5.324
67153SOL     OW 3355  12.137   9.936   8.056
67153SOL    HW1 3356  12.229   9.910   8.049
67153SOL    HW2 3357  12.092   9.856   8.083
67154SOL     OW 3358   8.153   7.112  14.167
67154SOL    HW1 3359   8.197   7.167  14.102
67154SOL    HW2 3360   8.064   7.101  14.133
67155SOL     OW 3361   6.729   9.338  14.444
67155SOL    HW1 3362   6.776   9.389  14.378
67155SOL    HW2 3363   6.648   9.310  14.400
67156SOL     OW 3364   9.950  13.143  11.989
67156SOL    HW1 3365   9.971  13.145  11.896
67156SOL    HW2 3366   9.857  13.165  11.993
67157SOL     OW 3367   5.823  12.897   1.492
67157SOL    HW1 3368   5.729  12.914   1.504
67157SOL    HW2 3369   5.863  12.926   1.573
67158SOL     OW 3370   6.401   1.830  14.623
67158SOL    HW1 3371   6.486   1.813  14.663
67158SOL    HW2 3372   6.365   1.743  14.604
67159SOL     OW 3373   7.258  11.236   2.824
67159SOL    HW1 3374   7.194  11.223   2.893
67159SOL    HW2 3375   7.228  11.180   2.752
67160SOL     OW 3376  12.438   1.170  10.257
67160SOL    HW1 3377  12.394   1.105  10.203
67160SOL    HW2 3378  12.471   1.120  10.332
67161SOL     OW 3379   5.517  14.632   2.762
67161SOL    HW1 3380   5.581  14.697   2.734
67161SOL    HW2 3381   5.562  14.581   2.829
67162SOL     OW 3382   7.951   9.595   4.739
67162SOL    HW1 3383   8.024   9.571   4.682
67162SOL    HW2 3384   7.922   9.681   4.707
67163SOL     OW 3385  11.372   0.357  13.212
67163SOL    HW1 3386  11.451   0.304  13.204
67163SOL    HW2 3387  11.401   0.447  13.193
67164SOL     OW 3388   6.786   3.662   0.024
67164SOL    HW1 3389   6.711   3.628   0.073
67164SOL    HW2 3390   6.857   3.602   0.046
67165SOL     OW 3391  12.417   8.768   9.743
67165SOL    HW1 3392  12.415   8.831   9.671
67165SOL    HW2 3393  12.457   8.689   9.705
67166SOL     OW 3394   4.683   6.858   4.335
67166SOL    HW1 3395   4.688   6.770   4.373
67166SOL    HW2 3396   4.599   6.893   4.365
67167SOL     OW 3397  10.638  10.190   0.499
67167SOL    HW1 3398  10.595  10.273   0.521
67167SOL    HW2 3399  10.565  10.129   0.485
67168SOL     OW 3400   8.280  13.436   7.780
67168SOL    HW1 3401   8.304  13.475   7.696
67168SOL    HW2 3402   8.280  13.510   7.841
67169SOL     OW 3403  13.221  12.108  11.180
67169SOL    HW1 3404  13.238  12.199  11.205
67169SOL    HW2 3405  13.242  12.104  11.087
67170SOL     OW 3406  11.146  11.424  12.796
67170SOL    HW1 3407  11.087  11.481  12.745
67170SOL    HW2 3408  11.156  11.470  12.879
67171SOL     OW 3409   3.074   5.076   9.686
67171SOL    HW1 3410   3.140   5.010   9.706
67171SOL    HW2 3411   3.119   5.137   9.627
67172SOL     OW 3412   9.381  10.606  11.581
67172SOL    HW1 3413   9.365  10.534  11.642
67172SOL    HW2 3414   9.305  10.664  11.592
67173SOL     OW 3415   9.458   8.730   2.284
67173SOL    HW1 3416   9.409   8.706   2.363
67173SOL    HW2 3417   9.462   8.650   2.232
67174SOL     OW 3418   4.966  10.055   1.681
67174SOL    HW1 3419   5.014  10.132   1.651
67174SOL    HW2 3420   4.904  10.088   1.746
67175SOL     OW 3421   4.629   4.089  10.205
67175SOL    HW1 3422   4.671   4.077  10.290
67175SOL    HW2 3423   4.594   4.178  10.207
67176SOL     OW 3424   1.031   3.532  12.214
67176SOL    HW1 3425   1.026   3.546  12.120
67176SOL    HW2 3426   1.060   3.617  12.249
67177SOL     OW 3427  14.819   1.401   1.091
67177SOL    HW1 3428  14.752   1.400   1.023
67177SOL    HW2 3429  14.828   1.309   1.117
67178SOL     OW 3430   8.412   0.038  14.707
67178SOL    HW1 3431   8.333   0.092  14.716
67178SOL    HW2 3432   8.484   0.100  14.712
67179SOL     OW 3433   2.547   0.998  14.695
67179SOL    HW1 3434   2.573   0.953  14.776
67179SOL    HW2 3435   2.532   0.928  14.632
67180SOL     OW 3436  13.530   8.766  13.283
67180SOL    HW1 3437  13.606   8.722  13.322
67180SOL    HW2 3438  13.558   8.856  13.271
67181SOL     OW 3439  14.755  11.907   3.531
67181SOL    HW1 3440  14.845  11.887   3.559
67181SOL    HW2 3441  14.718  11.823   3.508
67182SOL     OW 3442   6.838   0.155  14.400
67182SOL    HW1 3443   6.753   0.189  14.371
67182SOL    HW2 3444   6.829   0.060  14.395
67183SOL     OW 3445   4.934  12.820   0.078
67183SOL    HW1 3446   4.886  12.793  14.872
67183SOL    HW2 3447   4.990  12.746   0.099
67184SOL     OW 3448   6.004  12.547  13.917
67184SOL    HW1 3449   6.085  12.598  13.912
67184SOL    HW2 3450   6.026  12.464  13.874
67185SOL     OW 3451   9.709  11.286   4.501
67185SOL    HW1 3452   9.703  11.197   4.466
67185SOL    HW2 3453   9.637  11.292   4.565
67186SOL     OW 3454   0.516   2.713  12.423
67186SOL    HW1 3455   0.452   2.775  12.458
67186SOL    HW2 3456   0.599   2.759  12.428
67187SOL     OW 3457   4.098   4.609   6.270
67187SOL    HW1 3458   4.179   4.608   6.219
67187SOL    HW2 3459   4.122   4.651   6.352
67188SOL     OW 3460   1.767   0.435   2.669
67188SOL    HW1 3461   1.821   0.377   2.615
67188SOL    HW2 3462   1.831   0.493   2.711
67189SOL     OW 3463   1.099   5.202   4.423
67189SOL    HW1 3464   1.043   5.214   4.345
67189SOL    HW2 3465   1.051   5.138   4.476
67190SOL     OW 3466  10.814  13.374  12.323
67190SOL    HW1 3467  10.879  13.414  12.381
67190SOL    HW2 3468  10.856  13.295  12.290
67191SOL     OW 3469   2.834   4.036   2.479
67191SOL    HW1 3470   2.828   4.131   2.489
67191SOL    HW2 3471   2.786   4.018   2.398
67192SOL     OW 3472  11.234   8.217   8.757
67192SOL    HW1 3473  11.139   8.228   8.761
67192SOL    HW2 3474  11.266   8.256   8.838
67193SOL     OW 3475   6.662  10.267  11.521
67193SOL    HW1 3476   6.599  10.279  11.592
67193SOL    HW2 3477   6.683  10.174  11.522
67194SOL     OW 3478   0.804   9.906  14.593
67194SOL    HW1 3479   0.816   9.953  14.676
67194SOL    HW2 3480   0.797   9.976  14.527
67195SOL     OW 3481   5.697  14.641   1.368
67195SOL    HW1 3482   5.644  14.680   1.299
67195SOL    HW2 3483   5.779  14.617   1.325
67196SOL     OW 3484   6.546   8.293   9.809
67196SOL    HW1 3485   6.503   8.231   9.867
67196SOL    HW2 3486   6.478   8.356   9.785
67197SOL     OW 3487   9.967   7.221   8.801
67197SOL    HW1 3488  10.048   7.175   8.779
67197SOL    HW2 3489   9.898   7.157   8.785
67198SOL     OW 3490  14.061  12.974   6.768
67198SOL    HW1 3491  14.130  13.034   6.796
67198SOL    HW2 3492  14.099  12.887   6.780
67199SOL     OW 3493   0.951  10.604   3.905
67199SOL    HW1 3494   0.974  10.588   3.813
67199SOL    HW2 3495   0.872  10.552   3.919
67200SOL     OW 3496  14.539  14.498   5.464
67200SOL    HW1 3497  14.470  14.497   5.531
67200SOL    HW2 3498  14.524  14.418   5.413
67201SOL     OW 3499  10.696  14.483   1.130
67201SOL    HW1 3500  10.605  14.456   1.120
67201SOL    HW2 3501  10.702  14.511   1.222
67202SOL     OW 3502   5.362   5.938   9.307
67202SOL    HW1 3503   5.378   6.020   9.356
67202SOL    HW2 3504   5.436   5.932   9.246
67203SOL     OW 3505   0.424   3.996   4.155
67203SOL    HW1 3506   0.461   4.079   4.184
67203SOL    HW2 3507   0.370   3.965   4.228
67204SOL     OW 3508  10.197   2.796   1.627
67204SOL    HW1 3509  10.254   2.873   1.623
67204SOL    HW2 3510  10.256   2.725   1.652
67205SOL     OW 3511   0.141   2.812  12.163
67205SOL    HW1 3512   0.153   2.719  12.180
67205SOL    HW2 3513   0.091   2.844  12.238
67206SOL     OW 3514   5.751   1.078   3.021
67206SOL    HW1 3515   5.811   1.152   3.022
67206SOL    HW2 3516   5.665   1.116   3.004
67207SOL     OW 3517  10.477  14.348   8.125
67207SOL    HW1 3518  10.570  14.326   8.119
67207SOL    HW2 3519  10.432  14.263   8.127
67208SOL     OW 3520  12.959   2.555   2.990
67208SOL    HW1 3521  12.920   2.585   2.908
67208SOL    HW2 3522  13.027   2.620   3.010
67209SOL     OW 3523   5.754   6.255   2.129
67209SOL    HW1 3524   5.726   6.230   2.041
67209SOL    HW2 3525   5.798   6.177   2.163
67210SOL     OW 3526   6.281  14.870  13.503
67210SOL    HW1 3527   6.270  14.778  13.527
67210SOL    HW2 3528   6.192   0.034  13.506
67211SOL     OW 3529   4.677   3.983   4.024
67211SOL    HW1 3530   4.624   3.903   4.025
67211SOL    HW2 3531   4.714   3.986   3.935
67212SOL     OW 3532   3.498   6.896  11.343
67212SOL    HW1 3533   3.544   6.852  11.415
67212SOL    HW2 3534   3.521   6.845  11.265
67213SOL     OW 3535   4.404   1.842   5.694
67213SOL    HW1 3536   4.423   1.936   5.694
67213SOL    HW2 3537   4.397   1.820   5.787
67214SOL     OW 3538   9.852   7.789   3.607
67214SOL    HW1 3539   9.881   7.875   3.576
67214SOL    HW2 3540   9.898   7.775   3.689
67215SOL     OW 3541   2.898   1.620   8.425
67215SOL    HW1 3542   2.917   1.526   8.419
67215SOL    HW2 3543   2.981   1.663   8.406
67216SOL     OW 3544   1.182  11.009   9.650
67216SOL    HW1 3545   1.168  10.942   9.584
67216SOL    HW2 3546   1.157  10.967   9.733
67217SOL     OW 3547   0.826   0.849   0.186
67217SOL    HW1 3548   0.891   0.857   0.255
67217SOL    HW2 3549   0.755   0.907   0.213
67218SOL     OW 3550   1.062   1.581   4.520
67218SOL    HW1 3551   1.091   1.652   4.577
67218SOL    HW2 3552   0.967   1.581   4.528
67219SOL     OW 3553   5.906   9.175  14.205
67219SOL    HW1 3554   5.949   9.215  14.281
67219SOL    HW2 3555   5.972   9.182  14.135
67220SOL     OW 3556   4.370  13.004  10.434
67220SOL    HW1 3557   4.372  13.039  10.523
67220SOL    HW2 3558   4.325  13.072  10.383
67221SOL     OW 3559   8.060   0.711   0.441
67221SOL    HW1 3560   8.038   0.644   0.506
67221SOL    HW2 3561   8.101   0.781   0.493
67222SOL     OW 3562   0.455   8.628   9.773
67222SOL    HW1 3563   0.410   8.544   9.759
67222SOL    HW2 3564   0.455   8.640   9.868
67223SOL     OW 3565   9.039   9.529  12.556
67223SOL    HW1 3566   9.037   9.566  12.644
67223SOL    HW2 3567   8.949   9.534  12.526
67224SOL     OW 3568   4.776  14.524  14.436
67224SOL    HW1 3569   4.725  14.517  14.516
67224SOL    HW2 3570   4.866  14.540  14.466
67225SOL     OW 3571   4.243   2.874   1.875
67225SOL    HW1 3572   4.301   2.804   1.908
67225SOL    HW2 3573   4.252   2.945   1.939
67226SOL     OW 3574   0.389  10.767   5.130
67226SOL    HW1 3575   0.363  10.772   5.222
67226SOL    HW2 3576   0.344  10.689   5.097
67227SOL     OW 3577  13.353   0.092   8.722
67227SOL    HW1 3578  13.263   0.122   8.718
67227SOL    HW2 3579  13.381   0.084   8.631
67228SOL     OW 3580   3.112   4.718  11.508
67228SOL    HW1 3581   3.089   4.678  11.424
67228SOL    HW2 3582   3.061   4.799  11.511
67229SOL     OW 3583   6.195   9.875   6.439
67229SOL    HW1 3584   6.158   9.899   6.523
67229SOL    HW2 3585   6.154   9.791   6.417
67230SOL     OW 3586   7.000   5.549  13.004
67230SOL    HW1 3587   6.968   5.549  12.914
67230SOL    HW2 3588   6.978   5.636  13.038
67231SOL     OW 3589  10.699   6.853   6.571
67231SOL    HW1 3590  10.606   6.832   6.561
67231SOL    HW2 3591  10.745   6.772   6.551
67232SOL     OW 3592  12.046   6.122  11.457
67232SOL    HW1 3593  12.018   6.179  11.528
67232SOL    HW2 3594  12.141   6.122  11.463
67233SOL     OW 3595   5.462  12.460   5.441
67233SOL    HW1 3596   5.557  12.466   5.437
67233SOL    HW2 3597   5.443  12.368   5.422
67234SOL     OW 3598   2.034  14.174   3.102
67234SOL    HW1 3599   2.049  14.111   3.031
67234SOL    HW2 3600   1.941  14.197   3.095
67235SOL     OW 3601  11.055   7.291   1.673
67235SOL    HW1 3602  11.142   7.265   1.642
67235SOL    HW2 3603  11.070   7.322   1.762
67236SOL     OW 3604  14.750  11.833  10.730
67236SOL    HW1 3605  14.660  11.864  10.740
67236SOL    HW2 3606  14.772  11.796  10.816
67237SOL     OW 3607   7.465   0.553   5.069
67237SOL    HW1 3608   7.506   0.561   4.982
67237SOL    HW2 3609   7.373   0.571   5.053
67238SOL     OW 3610  12.553   2.432  12.998
67238SOL    HW1 3611  12.466   2.393  12.997
67238SOL    HW2 3612  12.609   2.364  13.036
67239SOL     OW 3613  12.904  11.887   3.264
67239SOL    HW1 3614  12.900  11.836   3.344
67239SOL    HW2 3615  12.896  11.978   3.292
67240SOL     OW 3616  13.259   2.968   5.848
67240SOL    HW1 3617  13.340   3.009   5.819
67240SOL    HW2 3618  13.204   2.965   5.769
67241SOL     OW 3619   2.090   1.073   0.992
67241SOL    HW1 3620   2.185   1.071   0.999
67241SOL    HW2 3621   2.058   1.041   1.077
67242SOL     OW 3622   9.438  11.856   0.195
67242SOL    HW1 3623   9.411  11.879   0.283
67242SOL    HW2 3624   9.527  11.820   0.205
67243SOL     OW 3625   6.580   5.921  12.457
67243SOL    HW1 3626   6.655   5.894  12.405
67243SOL    HW2 3627   6.523   5.844  12.460
67244SOL     OW 3628   2.628  14.226   5.496
67244SOL    HW1 3629   2.681  14.301   5.525
67244SOL    HW2 3630   2.539  14.249   5.522
67245SOL     OW 3631  12.877   6.257   9.612
67245SOL    HW1 3632  12.832   6.190   9.561
67245SOL    HW2 3633  12.822   6.269   9.689
67246SOL     OW 3634   9.285  13.737   6.538
67246SOL    HW1 3635   9.231  13.785   6.601
67246SOL    HW2 3636   9.260  13.645   6.551
67247SOL     OW 3637  13.714  13.768  14.017
67247SOL    HW1 3638  13.710  13.790  14.110
67247SOL    HW2 3639  13.628  13.732  13.997
67248SOL     OW 3640   8.548   5.087   1.541
67248SOL    HW1 3641   8.506   5.094   1.627
67248SOL    HW2 3642   8.583   5.174   1.524
67249SOL     OW 3643   3.990   5.213  12.751
67249SOL    HW1 3644   4.067   5.207  12.695
67249SOL    HW2 3645   3.920   5.173  12.700
67250SOL     OW 3646   7.464   2.127  11.271
67250SOL    HW1 3647   7.496   2.056  11.216
67250SOL    HW2 3648   7.438   2.084  11.352
67251SOL     OW 3649   6.973   7.831   4.984
67251SOL    HW1 3650   7.049   7.847   4.928
67251SOL    HW2 3651   7.007   7.775   5.054
67252SOL     OW 3652   8.127  10.770  12.734
67252SOL    HW1 3653   8.099  10.862  12.733
67252SOL    HW2 3654   8.080  10.732  12.808
67253SOL     OW 3655  13.696   2.664   3.338
67253SOL    HW1 3656  13.716   2.576   3.307
67253SOL    HW2 3657  13.619   2.652   3.394
67254SOL     OW 3658   7.470   4.079   9.394
67254SOL    HW1 3659   7.416   4.047   9.466
67254SOL    HW2 3660   7.452   4.173   9.392
67255SOL     OW 3661   0.299   7.475   0.214
67255SOL    HW1 3662   0.349   7.441   0.139
67255SOL    HW2 3663   0.243   7.403   0.240
67256SOL     OW 3664   5.126   7.788  14.305
67256SOL    HW1 3665   5.031   7.794  14.294
67256SOL    HW2 3666   5.139   7.783  14.400
67257SOL     OW 3667   8.137   2.164   9.243
67257SOL    HW1 3668   8.117   2.157   9.150
67257SOL    HW2 3669   8.209   2.227   9.248
67258SOL     OW 3670  13.113   1.393   0.526
67258SOL    HW1 3671  13.126   1.410   0.433
67258SOL    HW2 3672  13.051   1.460   0.555
67259SOL     OW 3673   8.182   9.698  13.732
67259SOL    HW1 3674   8.253   9.658  13.682
67259SOL    HW2 3675   8.137   9.754  13.668
67260SOL     OW 3676   2.793  14.334  14.367
67260SOL    HW1 3677   2.721  14.272  14.375
67260SOL    HW2 3678   2.777  14.399  14.436
67261SOL     OW 3679   1.657   0.019   5.635
67261SOL    HW1 3680   1.656   0.025   5.731
67261SOL    HW2 3681   1.652   0.110   5.606
67262SOL     OW 3682  12.530   0.575   2.565
67262SOL    HW1 3683  12.585   0.545   2.493
67262SOL    HW2 3684  12.591   0.590   2.637
67263SOL     OW 3685  10.905   9.083  11.165
67263SOL    HW1 3686  10.949   9.166  11.183
67263SOL    HW2 3687  10.874   9.091  11.075
67264SOL     OW 3688   0.507   9.956  11.581
67264SOL    HW1 3689   0.486  10.049  11.582
67264SOL    HW2 3690   0.546   9.940  11.667
67265SOL     OW 3691   0.964  11.980   1.890
67265SOL    HW1 3692   0.926  11.982   1.802
67265SOL    HW2 3693   1.034  11.915   1.884
67266SOL     OW 3694  14.182  14.585   4.311
67266SOL    HW1 3695  14.096  14.543   4.324
67266SOL    HW2 3696  14.244  14.528   4.356
67267SOL     OW 3697  10.344  10.644   7.550
67267SOL    HW1 3698  10.360  10.738   7.546
67267SOL    HW2 3699  10.249  10.635   7.539
67268SOL     OW 3700  10.868   8.049   0.962
67268SOL    HW1 3701  10.919   7.970   0.946
67268SOL    HW2 3702  10.873   8.063   1.056
67269SOL     OW 3703   8.372  12.271   3.558
67269SOL    HW1 3704   8.390  12.189   3.604
67269SOL    HW2 3705   8.329  12.245   3.477
67270SOL     OW 3706  11.012   5.818   6.166
67270SOL    HW1 3707  11.032   5.776   6.250
67270SOL    HW2 3708  10.919   5.839   6.173
67271SOL     OW 3709   9.370  14.801   7.705
67271SOL    HW1 3710   9.286  14.846   7.693
67271SOL    HW2 3711   9.388  14.760   7.621
67272SOL     OW 3712   0.562   0.628   3.694
67272SOL    HW1 3713   0.648   0.657   3.665
67272SOL    HW2 3714   0.501   0.689   3.651
67273SOL     OW 3715   4.387   3.704   7.292
67273SOL    HW1 3716   4.404   3.620   7.335
67273SOL    HW2 3717   4.328   3.750   7.352
67274SOL     OW 3718   6.999   6.730   1.553
67274SOL    HW1 3719   7.023   6.704   1.642
67274SOL    HW2 3720   7.020   6.823   1.549
67275SOL     OW 3721   2.063   7.120   4.245
67275SOL    HW1 3722   2.056   7.190   4.180
67275SOL    HW2 3723   2.100   7.046   4.196
67276SOL     OW 3724  14.137  13.699   0.809
67276SOL    HW1 3725  14.185  13.721   0.729
67276SOL    HW2 3726  14.143  13.604   0.814
67277SOL     OW 3727   1.719   4.355  12.286
67277SOL    HW1 3728   1.706   4.303  12.365
67277SOL    HW2 3729   1.693   4.444  12.312
67278SOL     OW 3730   2.792   6.015   1.907
67278SOL    HW1 3731   2.852   5.941   1.921
67278SOL    HW2 3732   2.709   5.974   1.882
67279SOL     OW 3733  11.507  11.744   6.570
67279SOL    HW1 3734  11.495  11.649   6.576
67279SOL    HW2 3735  11.418  11.779   6.569
67280SOL     OW 3736  14.145  12.427  13.903
67280SOL    HW1 3737  14.212  12.394  13.843
67280SOL    HW2 3738  14.139  12.360  13.971
67281SOL     OW 3739  13.054   0.662  13.916
67281SOL    HW1 3740  13.122   0.622  13.970
67281SOL    HW2 3741  13.000   0.711  13.978
67282SOL     OW 3742   2.679   7.103   1.981
67282SOL    HW1 3743   2.626   7.115   1.902
67282SOL    HW2 3744   2.747   7.170   1.975
67283SOL     OW 3745   4.570   7.887   4.100
67283SOL    HW1 3746   4.534   7.799   4.098
67283SOL    HW2 3747   4.665   7.874   4.103
67284SOL     OW 3748  14.397   7.762   8.363
67284SOL    HW1 3749  14.350   7.825   8.417
67284SOL    HW2 3750  14.353   7.764   8.278
67285SOL     OW 3751   9.223   9.005  11.221
67285SOL    HW1 3752   9.212   8.936  11.154
67285SOL    HW2 3753   9.317   9.011  11.234
67286SOL     OW 3754  14.040   5.963   3.202
67286SOL    HW1 3755  14.008   6.017   3.130
67286SOL    HW2 3756  14.076   6.025   3.265
67287SOL     OW 3757   0.593   7.602  10.669
67287SOL    HW1 3758   0.572   7.659  10.743
67287SOL    HW2 3759   0.621   7.520  10.709
67288SOL     OW 3760   1.224   3.008   1.164
67288SOL    HW1 3761   1.265   2.922   1.153
67288SOL    HW2 3762   1.292   3.071   1.139
67289SOL     OW 3763  11.791   8.963   9.308
67289SOL    HW1 3764  11.851   9.005   9.369
67289SOL    HW2 3765  11.814   9.000   9.223
67290SOL     OW 3766   9.100   0.201  12.255
67290SOL    HW1 3767   9.104   0.252  12.174
67290SOL    HW2 3768   9.130   0.261  12.323
67291SOL     OW 3769  14.574   1.435   0.113
67291SOL    HW1 3770  14.507   1.367   0.102
67291SOL    HW2 3771  14.594   1.433   0.207
67292SOL     OW 3772   1.479  12.386  14.617
67292SOL    HW1 3773   1.411  12.408  14.680
67292SOL    HW2 3774   1.461  12.441  14.541
67293SOL     OW 3775  14.745   5.564   4.293
67293SOL    HW1 3776  14.708   5.494   4.347
67293SOL    HW2 3777  14.826   5.527   4.258
67294SOL     OW 3778   4.310   0.922   1.052
67294SOL    HW1 3779   4.277   0.914   1.142
67294SOL    HW2 3780   4.234   0.903   0.997
67295SOL     OW 3781   5.085   7.275   3.142
67295SOL    HW1 3782   5.047   7.190   3.120
67295SOL    HW2 3783   5.110   7.268   3.234
67296SOL     OW 3784   3.706   8.628   7.799
67296SOL    HW1 3785   3.634   8.565   7.796
67296SOL    HW2 3786   3.779   8.580   7.839
67297SOL     OW 3787  10.942   5.297   3.124
67297SOL    HW1 3788  10.893   5.339   3.054
67297SOL    HW2 3789  10.879   5.293   3.197
67298SOL     OW 3790   7.115  14.107   9.050
67298SOL    HW1 3791   7.130  14.114   8.956
67298SOL    HW2 3792   7.148  14.021   9.074
67299SOL     OW 3793   4.804  10.022  10.642
67299SOL    HW1 3794   4.837  10.077  10.571
67299SOL    HW2 3795   4.709  10.020  10.628
67300SOL     OW 3796   6.381  11.718   7.986
67300SOL    HW1 3797   6.426  11.674   8.058
67300SOL    HW2 3798   6.355  11.803   8.023
67301SOL     OW 3799   9.934   5.955   7.082
67301SOL    HW1 3800   9.852   6.000   7.062
67301SOL    HW2 3801   9.925   5.930   7.174
67302SOL     OW 3802   0.190  10.730   7.861
67302SOL    HW1 3803   0.219  10.676   7.787
67302SOL    HW2 3804   0.129  10.674   7.909
67303SOL     OW 3805   7.487   7.355   0.700
67303SOL    HW1 3806   7.433   7.434   0.695
67303SOL    HW2 3807   7.469   7.318   0.786
67304SOL     OW 3808   1.665   9.470  14.325
67304SOL    HW1 3809   1.579   9.496  14.291
67304SOL    HW2 3810   1.692   9.397  14.270
67305SOL     OW 3811   1.574  13.761   4.114
67305SOL    HW1 3812   1.508  13.759   4.184
67305SOL    HW2 3813   1.527  13.791   4.037
67306SOL     OW 3814   7.744   5.348   7.008
67306SOL    HW1 3815   7.760   5.432   7.052
67306SOL    HW2 3816   7.649   5.337   7.012
67307SOL     OW 3817  11.093  12.941   0.533
67307SOL    HW1 3818  11.098  12.865   0.591
67307SOL    HW2 3819  11.100  13.017   0.591
67308SOL     OW 3820   1.566  13.292  10.019
67308SOL    HW1 3821   1.484  13.243  10.007
67308SOL    HW2 3822   1.624  13.231  10.064
67309SOL     OW 3823   6.791  12.253   6.849
67309SOL    HW1 3824   6.728  12.319   6.878
67309SOL    HW2 3825   6.764  12.173   6.893
67310SOL     OW 3826  12.435  10.898   8.322
67310SOL    HW1 3827  12.482  10.921   8.242
67310SOL    HW2 3828  12.356  10.854   8.292
67311SOL     OW 3829   1.032   3.522   3.843
67311SOL    HW1 3830   1.097   3.586   3.872
67311SOL    HW2 3831   0.964   3.525   3.910
67312SOL     OW 3832  11.722   6.531   4.045
67312SOL    HW1 3833  11.636   6.533   4.003
67312SOL    HW2 3834  11.705   6.554   4.136
67313SOL     OW 3835  13.865  11.291   8.183
67313SOL    HW1 3836  13.869  11.375   8.137
67313SOL    HW2 3837  13.877  11.314   8.275
67314SOL     OW 3838   4.994   0.723   5.360
67314SOL    HW1 3839   5.074   0.687   5.322
67314SOL    HW2 3840   5.017   0.746   5.449
67315SOL     OW 3841   3.959   9.565  11.686
67315SOL    HW1 3842   3.910   9.644  11.665
67315SOL    HW2 3843   3.993   9.534  11.602
67316SOL     OW 3844   1.036  13.276   0.806
67316SOL    HW1 3845   1.089  13.235   0.874
67316SOL    HW2 3846   0.962  13.216   0.794
67317SOL     OW 3847   5.912   1.390   7.267
67317SOL    HW1 3848   5.931   1.331   7.341
67317SOL    HW2 3849   5.906   1.477   7.307
67318SOL     OW 3850  10.461  12.327   9.226
67318SOL    HW1 3851  10.389  12.297   9.170
67318SOL    HW2 3852  10.516  12.250   9.238
67319SOL     OW 3853   7.236   4.950   8.152
67319SOL    HW1 3854   7.183   5.006   8.095
67319SOL    HW2 3855   7.176   4.920   8.220
67320SOL     OW 3856  13.965   0.718   5.010
67320SOL    HW1 3857  13.890   0.680   5.056
67320SOL    HW2 3858  13.951   0.692   4.918
67321SOL     OW 3859   7.487  11.789   8.527
67321SOL    HW1 3860   7.448  11.876   8.536
67321SOL    HW2 3861   7.432  11.745   8.462
67322SOL     OW 3862  10.832   4.579   1.053
67322SOL    HW1 3863  10.900   4.514   1.070
67322SOL    HW2 3864  10.855   4.616   0.968
67323SOL     OW 3865   3.984   4.620  14.093
67323SOL    HW1 3866   3.955   4.653  14.008
67323SOL    HW2 3867   3.903   4.613  14.144
67324SOL     OW 3868   5.530  14.333   3.988
67324SOL    HW1 3869   5.603  14.384   3.953
67324SOL    HW2 3870   5.539  14.247   3.947
67325SOL     OW 3871   3.263   7.783   0.249
67325SOL    HW1 3872   3.358   7.787   0.238
67325SOL    HW2 3873   3.248   7.816   0.338
67326SOL     OW 3874  11.950   5.144  12.834
67326SOL    HW1 3875  11.995   5.060  12.822
67326SOL    HW2 3876  11.945   5.181  12.746
67327SOL     OW 3877   0.455   0.755   0.493
67327SOL    HW1 3878   0.372   0.801   0.487
67327SOL    HW2 3879   0.442   0.689   0.561
67328SOL     OW 3880   0.457   0.108  14.248
67328SOL    HW1 3881   0.511   0.153  14.182
67328SOL    HW2 3882   0.429   0.028  14.205
67329SOL     OW 3883  12.203   7.202   8.831
67329SOL    HW1 3884  12.150   7.124   8.848
67329SOL    HW2 3885  12.286   7.184   8.876
67330SOL     OW 3886   1.825  13.083   6.293
67330SOL    HW1 3887   1.920  13.077   6.293
67330SOL    HW2 3888   1.798  13.039   6.374
67331SOL     OW 3889   3.359   7.174   9.306
67331SOL    HW1 3890   3.453   7.177   9.286
67331SOL    HW2 3891   3.317   7.167   9.220
67332SOL     OW 3892   4.599   5.972   8.967
67332SOL    HW1 3893   4.606   5.882   8.998
67332SOL    HW2 3894   4.510   5.999   8.991
67333SOL     OW 3895   4.670  13.490   3.943
67333SOL    HW1 3896   4.634  13.408   3.978
67333SOL    HW2 3897   4.759  13.469   3.918
67334SOL     OW 3898  12.705   0.871  14.371
67334SOL    HW1 3899  12.611   0.866  14.391
67334SOL    HW2 3900  12.736   0.781  14.378
67335SOL     OW 3901   0.279   0.226  14.747
67335SOL    HW1 3902   0.260   0.164  14.817
67335SOL    HW2 3903   0.349   0.281  14.783
67336SOL     OW 3904   0.646   5.503  10.034
67336SOL    HW1 3905   0.636   5.466  10.121
67336SOL    HW2 3906   0.611   5.436   9.975
67337SOL     OW 3907   1.168  13.484   4.035
67337SOL    HW1 3908   1.105  13.441   3.977
67337SOL    HW2 3909   1.180  13.571   3.997
67338SOL     OW 3910  11.477   1.581   5.711
67338SOL    HW1 3911  11.514   1.627   5.786
67338SOL    HW2 3912  11.382   1.590   5.723
67339SOL     OW 3913  12.807   4.452   3.634
67339SOL    HW1 3914  12.746   4.386   3.668
67339SOL    HW2 3915  12.854   4.408   3.564
67340SOL     OW 3916  13.969  12.045   6.081
67340SOL    HW1 3917  13.922  12.053   6.164
67340SOL    HW2 3918  14.054  12.009   6.105
67341SOL     OW 3919   5.589   4.825   7.940
67341SOL    HW1 3920   5.500   4.853   7.959
67341SOL    HW2 3921   5.641   4.905   7.948
67342SOL     OW 3922   6.453  14.042  10.582
67342SOL    HW1 3923   6.410  14.056  10.667
67342SOL    HW2 3924   6.390  13.992  10.531
67343SOL     OW 3925   8.175   8.748   0.114
67343SOL    HW1 3926   8.211   8.796   0.039
67343SOL    HW2 3927   8.113   8.810   0.153
67344SOL     OW 3928   4.140   2.652   0.933
67344SOL    HW1 3929   4.199   2.687   1.000
67344SOL    HW2 3930   4.187   2.578   0.896
67345SOL     OW 3931  10.462   7.566  10.465
67345SOL    HW1 3932  10.394   7.627  10.437
67345SOL    HW2 3933  10.479   7.590  10.556
67346SOL     OW 3934   3.017  13.823  12.794
67346SOL    HW1 3935   3.096  13.862  12.832
67346SOL    HW2 3936   2.957  13.812  12.868
67347SOL     OW 3937  12.719   5.164  11.853
67347SOL    HW1 3938  12.673   5.235  11.898
67347SOL    HW2 3939  12.675   5.084  11.883
67348SOL     OW 3940   7.522   4.490  14.634
67348SOL    HW1 3941   7.538   4.569  14.582
67348SOL    HW2 3942   7.427   4.488  14.646
67349SOL     OW 3943   0.274   7.895  12.354
67349SOL    HW1 3944   0.312   7.983  12.363
67349SOL    HW2 3945   0.254   7.887  12.261
67350SOL     OW 3946  14.312  12.905   3.845
67350SOL    HW1 3947  14.360  12.978   3.884
67350SOL    HW2 3948  14.318  12.835   3.909
67351SOL     OW 3949   1.645   1.509  10.052
67351SOL    HW1 3950   1.721   1.452  10.053
67351SOL    HW2 3951   1.640   1.544  10.141
67352SOL     OW 3952   8.001  12.219   5.936
67352SOL    HW1 3953   7.983  12.215   5.843
67352SOL    HW2 3954   8.097  12.214   5.943
67353SOL     OW 3955  11.668  11.803  13.413
67353SOL    HW1 3956  11.622  11.887  13.406
67353SOL    HW2 3957  11.599  11.738  13.419
67354SOL     OW 3958   1.468   2.601  12.801
67354SOL    HW1 3959   1.421   2.685  12.799
67354SOL    HW2 3960   1.550   2.620  12.755
67355SOL     OW 3961   7.013   7.272   1.193
67355SOL    HW1 3962   7.001   7.335   1.264
67355SOL    HW2 3963   6.944   7.294   1.131
67356SOL     OW 3964  12.535  13.778   2.864
67356SOL    HW1 3965  12.529  13.744   2.774
67356SOL    HW2 3966  12.601  13.847   2.859
67357SOL     OW 3967  13.883   9.025  13.433
67357SOL    HW1 3968  13.864   8.953  13.374
67357SOL    HW2 3969  13.893   9.101  13.376
67358SOL     OW 3970   3.077   3.007  12.713
67358SOL    HW1 3971   3.153   3.051  12.750
67358SOL    HW2 3972   3.002   3.054  12.750
67359SOL     OW 3973   4.419  11.436  14.514
67359SOL    HW1 3974   4.406  11.527  14.488
67359SOL    HW2 3975   4.332  11.396  14.509
67360SOL     OW 3976   4.535  11.960   5.341
67360SOL    HW1 3977   4.451  11.989   5.375
67360SOL    HW2 3978   4.514  11.918   5.257
67361SOL     OW 3979   7.472   9.963  11.131
67361SOL    HW1 3980   7.426   9.881  11.145
67361SOL    HW2 3981   7.565   9.941  11.137
67362SOL     OW 3982   0.468  13.455  13.157
67362SOL    HW1 3983   0.456  13.389  13.088
67362SOL    HW2 3984   0.381  13.492  13.170
67363SOL     OW 3985  14.676   8.465  14.042
67363SOL    HW1 3986  14.750   8.414  14.072
67363SOL    HW2 3987  14.699   8.556  14.064
67364SOL     OW 3988   7.613   3.213   2.216
67364SOL    HW1 3989   7.545   3.171   2.163
67364SOL    HW2 3990   7.637   3.292   2.167
67365SOL     OW 3991   3.289   4.897  10.338
67365SOL    HW1 3992   3.209   4.844  10.340
67365SOL    HW2 3993   3.302   4.925  10.428
67366SOL     OW 3994   4.697  10.133   9.757
67366SOL    HW1 3995   4.692  10.179   9.840
67366SOL    HW2 3996   4.670  10.197   9.692
67367SOL     OW 3997   5.835  14.794  11.131
67367SOL    HW1 3998   5.914  14.795  11.077
67367SOL    HW2 3999   5.867  14.781  11.220
67368SOL     OW 4000   6.107   5.009   5.218
67368SOL    HW1 4001   6.108   5.043   5.128
67368SOL    HW2 4002   6.040   4.941   5.216
67369SOL     OW 4003  10.599  13.459   3.452
67369SOL    HW1 4004  10.573  13.506   3.373
67369SOL    HW2 4005  10.517  13.437   3.496
67370SOL     OW 4006  11.859   3.992   3.073
67370SOL    HW1 4007  11.938   4.006   3.021
67370SOL    HW2 4008  11.889   3.943   3.149
67371SOL     OW 4009  10.003   5.271   4.223
67371SOL    HW1 4010   9.909   5.260   4.206
67371SOL    HW2 4011  10.033   5.330   4.155
67372SOL     OW 4012   6.890  14.815   9.983
67372SOL    HW1 4013   6.851  14.763   9.913
67372SOL    HW2 4014   6.982  14.790   9.983
67373SOL     OW 4015  12.285   0.442   9.914
67373SOL    HW1 4016  12.235   0.520   9.888
67373SOL    HW2 4017  12.232   0.401   9.982
67374SOL     OW 4018  10.019   2.044  14.234
67374SOL    HW1 4019  10.056   2.084  14.313
67374SOL    HW2 4020   9.957   2.109  14.202
67375SOL     OW 4021   8.122   6.807   7.217
67375SOL    HW1 4022   8.089   6.887   7.258
67375SOL    HW2 4023   8.088   6.811   7.127
67376SOL     OW 4024   5.922   5.165   1.789
67376SOL    HW1 4025   5.908   5.125   1.704
67376SOL    HW2 4026   6.013   5.194   1.787
67377SOL     OW 4027   0.954   0.352  14.052
67377SOL    HW1 4028   0.971   0.404  14.131
67377SOL    HW2 4029   1.023   0.378  13.991
67378SOL     OW 4030   4.487  10.539   2.750
67378SOL    HW1 4031   4.558  10.556   2.812
67378SOL    HW2 4032   4.456  10.625   2.725
67379SOL     OW 4033   7.703  14.509  10.543
67379SOL    HW1 4034   7.641  14.455  10.591
67379SOL    HW2 4035   7.721  14.460  10.462
67380SOL     OW 4036   9.212  10.073  14.235
67380SOL    HW1 4037   9.278  10.019  14.279
67380SOL    HW2 4038   9.129  10.047  14.276
67381SOL     OW 4039   7.427   9.180   0.216
67381SOL    HW1 4040   7.462   9.222   0.294
67381SOL    HW2 4041   7.363   9.116   0.249
67382SOL     OW 4042  11.513   5.935  10.768
67382SOL    HW1 4043  11.529   5.841  10.756
67382SOL    HW2 4044  11.576   5.977  10.709
67383SOL     OW 4045   5.689   6.533   9.428
67383SOL    HW1 4046   5.757   6.601   9.425
67383SOL    HW2 4047   5.674   6.511   9.336
67384SOL     OW 4048   3.214   2.006   9.362
67384SOL    HW1 4049   3.282   2.023   9.297
67384SOL    HW2 4050   3.232   1.917   9.392
67385SOL     OW 4051   1.493  13.875   3.885
67385SOL    HW1 4052   1.576  13.843   3.849
67385SOL    HW2 4053   1.491  13.968   3.861
67386SOL     OW 4054   8.450   6.353  11.069
67386SOL    HW1 4055   8.425   6.404  11.146
67386SOL    HW2 4056   8.375   6.296  11.053
67387SOL     OW 4057   0.290   1.474   3.627
67387SOL    HW1 4058   0.325   1.474   3.538
67387SOL    HW2 4059   0.258   1.385   3.640
67388SOL     OW 4060   6.424   2.136   6.026
67388SOL    HW1 4061   6.512   2.153   6.059
67388SOL    HW2 4062   6.397   2.054   6.068
67389SOL     OW 4063   7.809   0.845  13.454
67389SOL    HW1 4064   7.735   0.799  13.493
67389SOL    HW2 4065   7.863   0.872  13.528
67390SOL     OW 4066   8.070   2.057   8.261
67390SOL    HW1 4067   8.035   2.142   8.232
67390SOL    HW2 4068   8.164   2.063   8.243
67391SOL     OW 4069   5.012  10.121   4.661
67391SOL    HW1 4070   5.002  10.205   4.617
67391SOL    HW2 4071   4.956  10.061   4.611
67392SOL     OW 4072   7.628   5.635   3.005
67392SOL    HW1 4073   7.658   5.658   3.094
67392SOL    HW2 4074   7.630   5.718   2.958
67393SOL     OW 4075  11.743   0.740   4.291
67393SOL    HW1 4076  11.732   0.647   4.309
67393SOL    HW2 4077  11.717   0.750   4.199
67394SOL     OW 4078  12.996   6.680   1.046
67394SOL    HW1 4079  13.048   6.720   1.116
67394SOL    HW2 4080  12.921   6.739   1.035
67395SOL     OW 4081  12.498   9.748  11.548
67395SOL    HW1 4082  12.549   9.778  11.473
67395SOL    HW2 4083  12.448   9.673  11.514
67396SOL     OW 4084  14.047  10.063  10.607
67396SOL    HW1 4085  14.127  10.116  10.605
67396SOL    HW2 4086  14.077   9.974  10.592
67397SOL     OW 4087   5.433  11.162   3.639
67397SOL    HW1 4088   5.523  11.195   3.646
67397SOL    HW2 4089   5.438  11.091   3.576
67398SOL     OW 4090  12.436   3.793   3.857
67398SOL    HW1 4091  12.478   3.719   3.901
67398SOL    HW2 4092  12.375   3.753   3.794
67399SOL     OW 4093   2.748   5.676   4.262
67399SOL    HW1 4094   2.784   5.702   4.177
67399SOL    HW2 4095   2.673   5.621   4.240
67400SOL     OW 4096   6.893   6.279  12.200
67400SOL    HW1 4097   6.984   6.250  12.192
67400SOL    HW2 4098   6.893   6.369  12.168
67401SOL     OW 4099  13.205   8.917   8.973
67401SOL    HW1 4100  13.163   8.993   9.015
67401SOL    HW2 4101  13.288   8.951   8.939
67402SOL     OW 4102   4.126   8.777   7.192
67402SOL    HW1 4103   4.219   8.780   7.168
67402SOL    HW2 4104   4.124   8.727   7.274
67403SOL     OW 4105   6.734   1.746   1.250
67403SOL    HW1 4106   6.663   1.785   1.301
67403SOL    HW2 4107   6.813   1.791   1.281
67404SOL     OW 4108   4.175   3.559   4.359
67404SOL    HW1 4109   4.172   3.464   4.344
67404SOL    HW2 4110   4.091   3.590   4.325
67405SOL     OW 4111   2.712  11.832  13.953
67405SOL    HW1 4112   2.669  11.800  14.033
67405SOL    HW2 4113   2.646  11.888  13.911
67406SOL     OW 4114  10.059  10.233   2.147
67406SOL    HW1 4115  10.146  10.236   2.108
67406SOL    HW2 4116  10.033  10.325   2.154
67407SOL     OW 4117   0.364  10.843   3.532
67407SOL    HW1 4118   0.372  10.763   3.480
67407SOL    HW2 4119   0.270  10.852   3.549
67408SOL     OW 4120   5.891  13.387   5.883
67408SOL    HW1 4121   5.839  13.406   5.961
67408SOL    HW2 4122   5.979  13.367   5.916
67409SOL     OW 4123   0.705   9.460   0.844
67409SOL    HW1 4124   0.652   9.514   0.902
67409SOL    HW2 4125   0.652   9.382   0.828
67410SOL     OW 4126   2.373  12.410   6.545
67410SOL    HW1 4127   2.342  12.333   6.592
67410SOL    HW2 4128   2.354  12.393   6.453
67411SOL     OW 4129   3.161   1.206   7.974
67411SOL    HW1 4130   3.102   1.140   8.012
67411SOL    HW2 4131   3.127   1.290   8.005
67412SOL     OW 4132   2.301   9.667   2.700
67412SOL    HW1 4133   2.244   9.716   2.759
67412SOL    HW2 4134   2.262   9.579   2.696
67413SOL     OW 4135   2.657  10.635  13.209
67413SOL    HW1 4136   2.682  10.598  13.124
67413SOL    HW2 4137   2.596  10.572  13.247
67414SOL     OW 4138   8.101  11.551   5.232
67414SOL    HW1 4139   8.117  11.634   5.187
67414SOL    HW2 4140   8.091  11.487   5.162
67415SOL     OW 4141   9.046   3.011   2.903
67415SOL    HW1 4142   9.091   3.082   2.950
67415SOL    HW2 4143   9.071   3.023   2.812
67416SOL     OW 4144   2.297   5.781   4.398
67416SOL    HW1 4145   2.310   5.801   4.305
67416SOL    HW2 4146   2.246   5.700   4.398
67417SOL     OW 4147   6.665   7.014   5.860
67417SOL    HW1 4148   6.736   6.986   5.917
67417SOL    HW2 4149   6.586   6.973   5.897
67418SOL     OW 4150   6.546  13.708   9.296
67418SOL    HW1 4151   6.556  13.627   9.245
67418SOL    HW2 4152   6.468  13.750   9.259
67419SOL     OW 4153   4.567  12.606   8.493
67419SOL    HW1 4154   4.536  12.520   8.467
67419SOL    HW2 4155   4.662  12.596   8.498
67420SOL     OW 4156  13.677   5.948   2.193
67420SOL    HW1 4157  13.626   5.992   2.261
67420SOL    HW2 4158  13.716   5.872   2.237
67421SOL     OW 4159  11.176   5.341   9.389
67421SOL    HW1 4160  11.110   5.289   9.435
67421SOL    HW2 4161  11.136   5.428   9.380
67422SOL     OW 4162   2.915   7.324  11.979
67422SOL    HW1 4163   2.935   7.247  11.927
67422SOL    HW2 4164   2.986   7.385  11.960
67423SOL     OW 4165   8.856  14.859  10.143
67423SOL    HW1 4166   8.918   0.057  10.126
67423SOL    HW2 4167   8.840  14.864  10.237
67424SOL     OW 4168  14.507   4.327  14.518
67424SOL    HW1 4169  14.551   4.253  14.476
67424SOL    HW2 4170  14.446   4.287  14.580
67425SOL     OW 4171  11.138   4.591   6.501
67425SOL    HW1 4172  11.062   4.547   6.539
67425SOL    HW2 4173  11.116   4.684   6.505
67426SOL     OW 4174  13.914   6.086   0.151
67426SOL    HW1 4175  13.906   6.126   0.238
67426SOL    HW2 4176  13.888   6.156   0.091
67427SOL     OW 4177   1.807   4.308   2.728
67427SOL    HW1 4178   1.752   4.358   2.788
67427SOL    HW2 4179   1.896   4.320   2.761
67428SOL     OW 4180   1.654  12.899   2.091
67428SOL    HW1 4181   1.610  12.824   2.051
67428SOL    HW2 4182   1.616  12.975   2.047
67429SOL     OW 4183   4.420   8.999   3.357
67429SOL    HW1 4184   4.513   9.016   3.343
67429SOL    HW2 4185   4.418   8.931   3.424
67430SOL     OW 4186   8.820   8.714  12.326
67430SOL    HW1 4187   8.747   8.775  12.335
67430SOL    HW2 4188   8.781   8.635  12.289
67431SOL     OW 4189   3.784   3.300   1.099
67431SOL    HW1 4190   3.872   3.310   1.135
67431SOL    HW2 4191   3.728   3.349   1.158
67432SOL     OW 4192   0.203   3.135  13.393
67432SOL    HW1 4193   0.260   3.061  13.374
67432SOL    HW2 4194   0.260   3.201  13.431
67433SOL     OW 4195  11.385   8.992   2.173
67433SOL    HW1 4196  11.464   8.937   2.170
67433SOL    HW2 4197  11.352   8.991   2.083
67434SOL     OW 4198   5.361   7.011   4.304
67434SOL    HW1 4199   5.416   7.080   4.342
67434SOL    HW2 4200   5.275   7.051   4.296
67435SOL     OW 4201   9.012   8.395   0.864
67435SOL    HW1 4202   8.951   8.436   0.925
67435SOL    HW2 4203   8.966   8.393   0.780
67436SOL     OW 4204   0.757   7.166   5.643
67436SOL    HW1 4205   0.794   7.084   5.609
67436SOL    HW2 4206   0.830   7.207   5.689
67437SOL     OW 4207   3.994  14.192   4.200
67437SOL    HW1 4208   4.000  14.214   4.108
67437SOL    HW2 4209   3.952  14.268   4.241
67438SOL     OW 4210   3.452   9.920  14.509
67438SOL    HW1 4211   3.457   9.890  14.600
67438SOL    HW2 4212   3.378   9.980  14.508
67439SOL     OW 4213   2.669  11.646   2.631
67439SOL    HW1 4214   2.621  11.702   2.692
67439SOL    HW2 4215   2.747  11.618   2.680
67440SOL     OW 4216  14.057   0.697   9.264
67440SOL    HW1 4217  14.054   0.602   9.260
67440SOL    HW2 4218  14.045   0.718   9.356
67441SOL     OW 4219  13.967   6.280  11.952
67441SOL    HW1 4220  13.873   6.292  11.966
67441SOL    HW2 4221  13.981   6.302  11.860
67442SOL     OW 4222   6.859   8.943   6.451
67442SOL    HW1 4223   6.848   9.003   6.525
67442SOL    HW2 4224   6.787   8.965   6.392
67443SOL     OW 4225  10.788   6.783  13.215
67443SOL    HW1 4226  10.839   6.702  13.216
67443SOL    HW2 4227  10.742   6.780  13.131
67444SOL     OW 4228  11.651  14.528  13.611
67444SOL    HW1 4229  11.612  14.515  13.524
67444SOL    HW2 4230  11.631  14.619  13.633
67445SOL     OW 4231  14.371   5.135   7.210
67445SOL    HW1 4232  14.397   5.116   7.300
67445SOL    HW2 4233  14.410   5.220   7.190
67446SOL     OW 4234   6.563  12.903   2.179
67446SOL    HW1 4235   6.481  12.866   2.147
67446SOL    HW2 4236   6.556  12.997   2.160
67447SOL     OW 4237   7.202  10.739   2.005
67447SOL    HW1 4238   7.230  10.660   1.957
67447SOL    HW2 4239   7.240  10.811   1.956
67448SOL     OW 4240   0.783   7.294   0.706
67448SOL    HW1 4241   0.729   7.249   0.640
67448SOL    HW2 4242   0.869   7.253   0.698
67449SOL     OW 4243  11.386   9.265  13.493
67449SOL    HW1 4244  11.359   9.182  13.454
67449SOL    HW2 4245  11.408   9.243  13.583
67450SOL     OW 4246   8.235   1.015  11.580
67450SOL    HW1 4247   8.176   0.978  11.515
67450SOL    HW2 4248   8.212   1.108  11.584
67451SOL     OW 4249   9.995   3.483   0.883
67451SOL    HW1 4250  10.044   3.406   0.853
67451SOL    HW2 4251   9.958   3.456   0.967
67452SOL     OW 4252   8.370   6.450   9.686
67452SOL    HW1 4253   8.442   6.387   9.686
67452SOL    HW2 4254   8.322   6.431   9.606
67453SOL     OW 4255  10.515  12.389   7.524
67453SOL    HW1 4256  10.535  12.340   7.444
67453SOL    HW2 4257  10.446  12.451   7.498
67454SOL     OW 4258   9.527   5.604   2.954
67454SOL    HW1 4259   9.565   5.586   2.868
67454SOL    HW2 4260   9.475   5.683   2.941
67455SOL     OW 4261  13.280   8.845   5.916
67455SOL    HW1 4262  13.262   8.891   5.998
67455SOL    HW2 4263  13.265   8.753   5.937
67456SOL     OW 4264  11.524   4.482  12.201
67456SOL    HW1 4265  11.611   4.522  12.203
67456SOL    HW2 4266  11.531   4.404  12.256
67457SOL     OW 4267   2.231   7.197   9.979
67457SOL    HW1 4268   2.315   7.216   9.937
67457SOL    HW2 4269   2.215   7.104   9.959
67458SOL     OW 4270   9.796   6.875   3.210
67458SOL    HW1 4271   9.840   6.932   3.273
67458SOL    HW2 4272   9.736   6.934   3.163
67459SOL     OW 4273   6.877   9.136  14.805
67459SOL    HW1 4274   6.883   9.161  14.713
67459SOL    HW2 4275   6.958   9.089  14.823
67460SOL     OW 4276  13.125  13.943   5.251
67460SOL    HW1 4277  13.160  13.877   5.312
67460SOL    HW2 4278  13.030  13.929   5.253
67461SOL     OW 4279   2.275  11.137   6.616
67461SOL    HW1 4280   2.244  11.207   6.674
67461SOL    HW2 4281   2.309  11.183   6.539
67462SOL     OW 4282   9.005   0.299   3.788
67462SOL    HW1 4283   9.012   0.261   3.875
67462SOL    HW2 4284   9.037   0.389   3.798
67463SOL     OW 4285   1.689   5.347   7.349
67463SOL    HW1 4286   1.731   5.357   7.434
67463SOL    HW2 4287   1.704   5.255   7.326
67464SOL     OW 4288  12.467   5.719  11.232
67464SOL    HW1 4289  12.529   5.670  11.285
67464SOL    HW2 4290  12.389   5.663  11.228
67465SOL     OW 4291   4.005   4.631  14.863
67465SOL    HW1 4292   4.034   4.660   0.078
67465SOL    HW2 4293   4.087   4.619  14.814
67466SOL     OW 4294   4.187  10.504   7.950
67466SOL    HW1 4295   4.181  10.414   7.919
67466SOL    HW2 4296   4.209  10.555   7.872
67467SOL     OW 4297   8.128   3.686   0.735
67467SOL    HW1 4298   8.110   3.695   0.641
67467SOL    HW2 4299   8.155   3.774   0.762
67468SOL     OW 4300   6.427   6.294   1.686
67468SOL    HW1 4301   6.522   6.288   1.692
67468SOL    HW2 4302   6.398   6.307   1.776
67469SOL     OW 4303   0.507   9.753  12.627
67469SOL    HW1 4304   0.420   9.763  12.590
67469SOL    HW2 4305   0.529   9.840  12.661
67470SOL     OW 4306   7.218   2.396  12.374
67470SOL    HW1 4307   7.283   2.369  12.309
67470SOL    HW2 4308   7.220   2.327  12.440
67471SOL     OW 4309   3.607  10.102  14.096
67471SOL    HW1 4310   3.613  10.095  14.191
67471SOL    HW2 4311   3.676  10.164  14.072
67472SOL     OW 4312   0.228   3.689   1.305
67472SOL    HW1 4313   0.297   3.746   1.336
67472SOL    HW2 4314   0.261   3.654   1.222
67473SOL     OW 4315  12.860   5.163   9.876
67473SOL    HW1 4316  12.825   5.134   9.960
67473SOL    HW2 4317  12.944   5.203   9.897
67474SOL     OW 4318   5.142   9.443   0.297
67474SOL    HW1 4319   5.107   9.528   0.326
67474SOL    HW2 4320   5.214   9.466   0.238
67475SOL     OW 4321   2.910  12.280  13.322
67475SOL    HW1 4322   2.963  12.261  13.399
67475SOL    HW2 4323   2.868  12.197  13.301
67476SOL     OW 4324   0.749  11.689   7.071
67476SOL    HW1 4325   0.723  11.703   7.161
67476SOL    HW2 4326   0.677  11.639   7.032
67477SOL     OW 4327   8.503  12.258   1.645
67477SOL    HW1 4328   8.466  12.226   1.727
67477SOL    HW2 4329   8.595  12.276   1.665
67478SOL     OW 4330   2.994   1.769   3.487
67478SOL    HW1 4331   2.910   1.776   3.533
67478SOL    HW2 4332   3.059   1.757   3.557
67479SOL     OW 4333   5.035   2.308   5.952
67479SOL    HW1 4334   5.028   2.395   5.914
67479SOL    HW2 4335   4.989   2.251   5.891
67480SOL     OW 4336  14.470   4.021   5.324
67480SOL    HW1 4337  14.395   4.030   5.264
67480SOL    HW2 4338  14.544   4.057   5.275
67481SOL     OW 4339   6.480   8.807   0.731
67481SOL    HW1 4340   6.449   8.897   0.737
67481SOL    HW2 4341   6.405   8.757   0.701
67482SOL     OW 4342  10.531   2.058   9.916
67482SOL    HW1 4343  10.460   2.076   9.978
67482SOL    HW2 4344  10.533   2.135   9.858
67483SOL     OW 4345  11.063   0.435   7.733
67483SOL    HW1 4346  11.058   0.382   7.653
67483SOL    HW2 4347  11.072   0.525   7.701
67484SOL     OW 4348   4.359   9.712  13.717
67484SOL    HW1 4349   4.378   9.731  13.809
67484SOL    HW2 4350   4.306   9.786  13.687
67485SOL     OW 4351   1.732  14.817   6.906
67485SOL    HW1 4352   1.732  14.768   6.989
67485SOL    HW2 4353   1.793  14.768   6.850
67486SOL     OW 4354   9.790   4.034   3.403
67486SOL    HW1 4355   9.818   3.961   3.457
67486SOL    HW2 4356   9.775   3.996   3.316
67487SOL     OW 4357   6.173   1.841   6.336
67487SOL    HW1 4358   6.081   1.858   6.316
67487SOL    HW2 4359   6.206   1.794   6.260
67488SOL     OW 4360  12.043   3.370   5.945
67488SOL    HW1 4361  12.103   3.296   5.941
67488SOL    HW2 4362  11.986   3.351   6.019
67489SOL     OW 4363   7.204   5.641   3.698
67489SOL    HW1 4364   7.215   5.733   3.678
67489SOL    HW2 4365   7.227   5.595   3.617
67490SOL     OW 4366   0.559   5.122   3.023
67490SOL    HW1 4367   0.464   5.107   3.023
67490SOL    HW2 4368   0.596   5.041   2.988
67491SOL     OW 4369  10.994  11.428   9.515
67491SOL    HW1 4370  10.998  11.520   9.491
67491SOL    HW2 4371  11.008  11.427   9.609
67492SOL     OW 4372  10.647  14.260   5.868
67492SOL    HW1 4373  10.694  14.265   5.951
67492SOL    HW2 4374  10.575  14.323   5.877
67493SOL     OW 4375   0.781   7.339   4.238
67493SOL    HW1 4376   0.698   7.388   4.235
67493SOL    HW2 4377   0.764   7.260   4.188
67494SOL     OW 4378  10.538  12.333   4.568
67494SOL    HW1 4379  10.577  12.245   4.577
67494SOL    HW2 4380  10.512  12.338   4.477
67495SOL     OW 4381  11.334   8.221  11.681
67495SOL    HW1 4382  11.278   8.152  11.646
67495SOL    HW2 4383  11.339   8.202  11.775
67496SOL     OW 4384   4.578   2.028  14.769
67496SOL    HW1 4385   4.588   2.030  14.674
67496SOL    HW2 4386   4.485   2.012  14.783
67497SOL     OW 4387   6.207  12.001   3.146
67497SOL    HW1 4388   6.232  12.029   3.058
67497SOL    HW2 4389   6.188  11.907   3.137
67498SOL     OW 4390   9.938   9.705   2.081
67498SOL    HW1 4391   9.867   9.768   2.070
67498SOL    HW2 4392  10.012   9.745   2.034
67499SOL     OW 4393   2.592  11.830  12.772
67499SOL    HW1 4394   2.608  11.806  12.681
67499SOL    HW2 4395   2.512  11.882  12.769
67500SOL     OW 4396   1.290   7.782   9.682
67500SOL    HW1 4397   1.294   7.689   9.705
67500SOL    HW2 4398   1.324   7.827   9.760
67501SOL     OW 4399   6.132   5.844   7.614
67501SOL    HW1 4400   6.142   5.887   7.529
67501SOL    HW2 4401   6.039   5.825   7.620
67502SOL     OW 4402   1.646  10.874  12.425
67502SOL    HW1 4403   1.654  10.867  12.520
67502SOL    HW2 4404   1.623  10.786  12.396
67503SOL     OW 4405   2.817   5.903   1.489
67503SOL    HW1 4406   2.830   5.859   1.573
67503SOL    HW2 4407   2.841   5.837   1.424
67504SOL     OW 4408   4.988   9.926  13.230
67504SOL    HW1 4409   4.972   9.832  13.220
67504SOL    HW2 4410   5.065   9.931  13.288
67505SOL     OW 4411   5.258   9.039   1.229
67505SOL    HW1 4412   5.186   8.977   1.232
67505SOL    HW2 4413   5.273   9.055   1.136
67506SOL     OW 4414   1.996   9.805   4.199
67506SOL    HW1 4415   2.069   9.807   4.137
67506SOL    HW2 4416   2.037   9.820   4.284
67507SOL     OW 4417   3.895   6.171   9.952
67507SOL    HW1 4418   3.968   6.161   9.891
67507SOL    HW2 4419   3.935   6.160  10.039
67508SOL     OW 4420   9.650   1.528  13.083
67508SOL    HW1 4421   9.628   1.499  13.172
67508SOL    HW2 4422   9.666   1.447  13.034
67509SOL     OW 4423   2.064   0.666   8.072
67509SOL    HW1 4424   2.079   0.591   8.129
67509SOL    HW2 4425   1.995   0.717   8.117
67510SOL     OW 4426   9.446  12.564  13.749
67510SOL    HW1 4427   9.410  12.478  13.727
67510SOL    HW2 4428   9.424  12.576  13.841
67511SOL     OW 4429   4.927   7.553  10.739
67511SOL    HW1 4430   5.023   7.559  10.741
67511SOL    HW2 4431   4.904   7.573  10.648
67512SOL     OW 4432   4.412  10.786   3.318
67512SOL    HW1 4433   4.427  10.811   3.227
67512SOL    HW2 4434   4.438  10.863   3.369
67513SOL     OW 4435   9.560   2.595   1.976
67513SOL    HW1 4436   9.493   2.548   1.926
67513SOL    HW2 4437   9.570   2.544   2.057
67514SOL     OW 4438   8.841   8.912   6.211
67514SOL    HW1 4439   8.764   8.968   6.220
67514SOL    HW2 4440   8.833   8.849   6.283
67515SOL     OW 4441  14.109   5.198   9.661
67515SOL    HW1 4442  14.077   5.282   9.628
67515SOL    HW2 4443  14.191   5.183   9.615
67516SOL     OW 4444  11.424  10.036  13.741
67516SOL    HW1 4445  11.385  10.116  13.776
67516SOL    HW2 4446  11.518  10.046  13.757
67517SOL     OW 4447   6.617   4.007   7.482
67517SOL    HW1 4448   6.684   4.056   7.433
67517SOL    HW2 4449   6.633   4.030   7.573
67518SOL     OW 4450   5.335  14.401  10.086
67518SOL    HW1 4451   5.318  14.405  10.180
67518SOL    HW2 4452   5.284  14.326  10.055
67519SOL     OW 4453   8.179   7.153   8.167
67519SOL    HW1 4454   8.229   7.182   8.243
67519SOL    HW2 4455   8.131   7.230   8.138
67520SOL     OW 4456  13.960   4.565   3.215
67520SOL    HW1 4457  14.055   4.570   3.223
67520SOL    HW2 4458  13.944   4.480   3.175
67521SOL     OW 4459   7.531   7.730   7.511
67521SOL    HW1 4460   7.554   7.717   7.419
67521SOL    HW2 4461   7.540   7.643   7.550
67522SOL     OW 4462  11.296  13.402   5.819
67522SOL    HW1 4463  11.383  13.440   5.831
67522SOL    HW2 4464  11.249  13.465   5.765
67523SOL     OW 4465   2.710   3.027   7.601
67523SOL    HW1 4466   2.790   2.973   7.599
67523SOL    HW2 4467   2.715   3.079   7.521
67524SOL     OW 4468   6.039   6.081   8.250
67524SOL    HW1 4469   6.089   6.125   8.318
67524SOL    HW2 4470   6.015   5.996   8.288
67525SOL     OW 4471  14.027  14.156   3.389
67525SOL    HW1 4472  13.939  14.184   3.412
67525SOL    HW2 4473  14.067  14.131   3.472
67526SOL     OW 4474   5.445   3.762  11.241
67526SOL    HW1 4475   5.477   3.683  11.286
67526SOL    HW2 4476   5.484   3.834  11.289
67527SOL     OW 4477   4.010   2.009   0.959
67527SOL    HW1 4478   3.963   1.926   0.950
67527SOL    HW2 4479   4.090   1.996   0.907
67528SOL     OW 4480  10.075   1.491   6.031
67528SOL    HW1 4481  10.072   1.575   6.077
67528SOL    HW2 4482  10.169   1.470   6.026
67529SOL     OW 4483  12.779   0.469  10.208
67529SOL    HW1 4484  12.826   0.390  10.233
67529SOL    HW2 4485  12.697   0.437  10.169
67530SOL     OW 4486   4.434   5.540   0.223
67530SOL    HW1 4487   4.528   5.554   0.230
67530SOL    HW2 4488   4.418   5.461   0.274
67531SOL     OW 4489  10.809   6.102   8.024
67531SOL    HW1 4490  10.769   6.111   8.111
67531SOL    HW2 4491  10.895   6.063   8.042
67532SOL     OW 4492   8.201   0.995   8.969
67532SOL    HW1 4493   8.294   0.999   8.992
67532SOL    HW2 4494   8.164   1.075   9.006
67533SOL     OW 4495  12.184   6.229  10.745
67533SOL    HW1 4496  12.100   6.216  10.791
67533SOL    HW2 4497  12.220   6.141  10.737
67534SOL     OW 4498   1.322  10.888   6.957
67534SOL    HW1 4499   1.412  10.917   6.971
67534SOL    HW2 4500   1.293  10.936   6.879
67535SOL     OW 4501   0.418  13.537   1.916
67535SOL    HW1 4502   0.324  13.556   1.920
67535SOL    HW2 4503   0.426  13.467   1.851
67536SOL     OW 4504   4.527  13.851   9.562
67536SOL    HW1 4505   4.534  13.881   9.471
67536SOL    HW2 4506   4.438  13.876   9.588
67537SOL     OW 4507   3.055  13.801   9.444
67537SOL    HW1 4508   3.028  13.868   9.506
67537SOL    HW2 4509   3.029  13.834   9.359
67538SOL     OW 4510   8.220   0.178   4.992
67538SOL    HW1 4511   8.258   0.108   4.939
67538SOL    HW2 4512   8.154   0.134   5.045
67539SOL     OW 4513   7.006   3.524   0.097
67539SOL    HW1 4514   7.092   3.525   0.139
67539SOL    HW2 4515   7.002   3.440   0.053
67540SOL     OW 4516   6.861  14.711  13.192
67540SOL    HW1 4517   6.769  14.687  13.181
67540SOL    HW2 4518   6.910  14.644  13.145
67541SOL     OW 4519  13.677   5.260  12.355
67541SOL    HW1 4520  13.714   5.172  12.369
67541SOL    HW2 4521  13.701   5.282  12.265
67542SOL     OW 4522  10.995   1.869   4.441
67542SOL    HW1 4523  11.015   1.776   4.457
67542SOL    HW2 4524  10.900   1.871   4.433
67543SOL     OW 4525   1.585   7.077   1.542
67543SOL    HW1 4526   1.644   7.046   1.610
67543SOL    HW2 4527   1.501   7.088   1.586
67544SOL     OW 4528   7.072  11.271   5.389
67544SOL    HW1 4529   7.028  11.351   5.419
67544SOL    HW2 4530   7.165  11.292   5.394
67545SOL     OW 4531  10.132   6.175   5.017
67545SOL    HW1 4532  10.208   6.224   4.985
67545SOL    HW2 4533  10.069   6.177   4.945
67546SOL     OW 4534   7.904   2.593   7.899
67546SOL    HW1 4535   7.939   2.573   7.812
67546SOL    HW2 4536   7.897   2.689   7.901
67547SOL     OW 4537   3.602   7.815   6.887
67547SOL    HW1 4538   3.580   7.907   6.874
67547SOL    HW2 4539   3.639   7.811   6.975
67548SOL     OW 4540   4.634  14.637   6.234
67548SOL    HW1 4541   4.697  14.668   6.300
67548SOL    HW2 4542   4.676  14.561   6.194
67549SOL     OW 4543  10.601  11.632  10.061
67549SOL    HW1 4544  10.617  11.614  10.154
67549SOL    HW2 4545  10.557  11.717  10.061
67550SOL     OW 4546   4.974  12.105  11.775
67550SOL    HW1 4547   4.934  12.042  11.714
67550SOL    HW2 4548   4.901  12.157  11.807
67551SOL     OW 4549   3.664  13.350  11.829
67551SOL    HW1 4550   3.574  13.380  11.844
67551SOL    HW2 4551   3.654  13.263  11.791
67552SOL     OW 4552  11.326   1.357  13.936
67552SOL    HW1 4553  11.283   1.442  13.924
67552SOL    HW2 4554  11.300   1.328  14.023
67553SOL     OW 4555  11.551   2.719  12.780
67553SOL    HW1 4556  11.638   2.758  12.773
67553SOL    HW2 4557  11.529   2.726  12.872
67554SOL     OW 4558   2.257   0.060   7.063
67554SOL    HW1 4559   2.184  14.872   7.051
67554SOL    HW2 4560   2.264   0.107   6.980
67555SOL     OW 4561   0.740  10.422   3.573
67555SOL    HW1 4562   0.684  10.489   3.613
67555SOL    HW2 4563   0.773  10.463   3.494
67556SOL     OW 4564   4.706   4.958  11.378
67556SOL    HW1 4565   4.783   4.968  11.323
67556SOL    HW2 4566   4.684   5.046  11.407
67557SOL     OW 4567   4.380   0.200   5.170
67557SOL    HW1 4568   4.325   0.196   5.249
67557SOL    HW2 4569   4.397   0.108   5.148
67558SOL     OW 4570   4.070  14.826  14.247
67558SOL    HW1 4571   4.108  14.794  14.165
67558SOL    HW2 4572   4.021   0.032  14.221
67559SOL     OW 4573   5.786  14.540   3.196
67559SOL    HW1 4574   5.748  14.622   3.163
67559SOL    HW2 4575   5.876  14.540   3.164
67560SOL     OW 4576  13.038  13.870   3.458
67560SOL    HW1 4577  13.067  13.955   3.424
67560SOL    HW2 4578  12.943  13.879   3.467
67561SOL     OW 4579   7.250  13.915  11.215
67561SOL    HW1 4580   7.195  13.837  11.209
67561SOL    HW2 4581   7.340  13.880  11.217
67562SOL     OW 4582   9.355   0.926  12.347
67562SOL    HW1 4583   9.414   0.890  12.281
67562SOL    HW2 4584   9.310   0.850  12.384
67563SOL     OW 4585   9.038  10.623  11.717
67563SOL    HW1 4586   9.019  10.539  11.757
67563SOL    HW2 4587   9.028  10.608  11.623
67564SOL     OW 4588  12.821   1.052   2.116
67564SOL    HW1 4589  12.801   1.131   2.167
67564SOL    HW2 4590  12.746   0.995   2.131
67565SOL     OW 4591  12.699   2.297   5.002
67565SOL    HW1 4592  12.637   2.324   4.934
67565SOL    HW2 4593  12.659   2.220   5.042
67566SOL     OW 4594  13.403   9.842   5.555
67566SOL    HW1 4595  13.354   9.921   5.531
67566SOL    HW2 4596  13.340   9.771   5.542
67567SOL     OW 4597  11.198  12.161   6.808
67567SOL    HW1 4598  11.131  12.225   6.785
67567SOL    HW2 4599  11.274  12.186   6.755
67568SOL     OW 4600   1.851   0.542   7.265
67568SOL    HW1 4601   1.871   0.603   7.193
67568SOL    HW2 4602   1.800   0.595   7.327
67569SOL     OW 4603   8.328  11.957   9.265
67569SOL    HW1 4604   8.243  11.946   9.223
67569SOL    HW2 4605   8.344  11.875   9.311
67570SOL     OW 4606   7.685  10.539  13.348
67570SOL    HW1 4607   7.605  10.489  13.334
67570SOL    HW2 4608   7.716  10.511  13.434
67571SOL     OW 4609   7.010  14.662   4.153
67571SOL    HW1 4610   7.087  14.686   4.204
67571SOL    HW2 4611   6.936  14.673   4.213
67572SOL     OW 4612   6.560   1.938   5.148
67572SOL    HW1 4613   6.544   1.998   5.221
67572SOL    HW2 4614   6.549   1.993   5.070
67573SOL     OW 4615  13.267   9.466  12.800
67573SOL    HW1 4616  13.304   9.480  12.713
67573SOL    HW2 4617  13.308   9.385  12.832
67574SOL     OW 4618  12.924   5.302   0.739
67574SOL    HW1 4619  13.017   5.284   0.751
67574SOL    HW2 4620  12.880   5.245   0.803
67575SOL     OW 4621  13.463   5.505  13.230
67575SOL    HW1 4622  13.486   5.594  13.256
67575SOL    HW2 4623  13.378   5.513  13.188
67576SOL     OW 4624  13.835  14.113  12.131
67576SOL    HW1 4625  13.869  14.065  12.206
67576SOL    HW2 4626  13.889  14.085  12.057
67577SOL     OW 4627   0.083   6.285  13.511
67577SOL    HW1 4628   0.103   6.373  13.541
67577SOL    HW2 4629   0.135   6.275  13.431
67578SOL     OW 4630   8.592   0.716   5.045
67578SOL    HW1 4631   8.538   0.650   5.088
67578SOL    HW2 4632   8.650   0.748   5.114
67579SOL     OW 4633   0.716   6.166  13.314
67579SOL    HW1 4634   0.688   6.258  13.323
67579SOL    HW2 4635   0.687   6.141  13.226
67580SOL     OW 4636   3.356   4.002  12.077
67580SOL    HW1 4637   3.434   3.956  12.045
67580SOL    HW2 4638   3.334   4.063  12.006
67581SOL     OW 4639  12.434  10.542  13.667
67581SOL    HW1 4640  12.378  10.546  13.589
67581SOL    HW2 4641  12.486  10.462  13.655
67582SOL     OW 4642   5.249  13.290  11.023
67582SOL    HW1 4643   5.242  13.221  10.957
67582SOL    HW2 4644   5.202  13.364  10.985
67583SOL     OW 4645  10.827   9.608   4.730
67583SOL    HW1 4646  10.737   9.575   4.735
67583SOL    HW2 4647  10.837   9.661   4.809
67584SOL     OW 4648   0.212   9.219   7.117
67584SOL    HW1 4649   0.157   9.140   7.124
67584SOL    HW2 4650   0.291   9.197   7.166
67585SOL     OW 4651   3.338  14.631   1.764
67585SOL    HW1 4652   3.377  14.666   1.684
67585SOL    HW2 4653   3.411  14.626   1.826
67586SOL     OW 4654  13.525   3.012   8.653
67586SOL    HW1 4655  13.454   3.002   8.590
67586SOL    HW2 4656  13.567   2.926   8.657
67587SOL     OW 4657   8.261   5.322   1.702
67587SOL    HW1 4658   8.209   5.352   1.627
67587SOL    HW2 4659   8.316   5.397   1.724
67588SOL     OW 4660  11.551   5.300   9.387
67588SOL    HW1 4661  11.536   5.244   9.462
67588SOL    HW2 4662  11.612   5.251   9.331
67589SOL     OW 4663   9.008  14.011  11.893
67589SOL    HW1 4664   9.060  14.049  11.822
67589SOL    HW2 4665   9.067  13.947  11.933
67590SOL     OW 4666  14.219   2.629  10.539
67590SOL    HW1 4667  14.206   2.625  10.444
67590SOL    HW2 4668  14.229   2.722  10.558
67591SOL     OW 4669   0.445   7.616  14.551
67591SOL    HW1 4670   0.394   7.663  14.617
67591SOL    HW2 4671   0.382   7.561  14.505
67592SOL     OW 4672   3.692   6.269  13.555
67592SOL    HW1 4673   3.690   6.312  13.470
67592SOL    HW2 4674   3.690   6.342  13.618
67593SOL     OW 4675   3.804  10.444   1.773
67593SOL    HW1 4676   3.748  10.367   1.773
67593SOL    HW2 4677   3.885  10.415   1.729
67594SOL     OW 4678   0.988  14.179  11.278
67594SOL    HW1 4679   0.895  14.164  11.291
67594SOL    HW2 4680   1.000  14.176  11.183
67595SOL     OW 4681   2.342   5.907   1.081
67595SOL    HW1 4682   2.426   5.898   1.124
67595SOL    HW2 4683   2.356   5.976   1.015
67596SOL     OW 4684   0.420   4.157   4.949
67596SOL    HW1 4685   0.373   4.195   5.023
67596SOL    HW2 4686   0.385   4.069   4.941
67597SOL     OW 4687   0.236   1.046  12.113
67597SOL    HW1 4688   0.208   0.958  12.140
67597SOL    HW2 4689   0.203   1.055  12.024
67598SOL     OW 4690  12.422   2.057   1.155
67598SOL    HW1 4691  12.349   2.099   1.109
67598SOL    HW2 4692  12.453   1.990   1.094
67599SOL     OW 4693   3.666   0.775   5.695
67599SOL    HW1 4694   3.690   0.703   5.637
67599SOL    HW2 4695   3.716   0.849   5.663
67600SOL     OW 4696  10.256  14.070  13.739
67600SOL    HW1 4697  10.168  14.079  13.774
67600SOL    HW2 4698  10.249  14.099  13.648
67601SOL     OW 4699   3.024   6.232   3.245
67601SOL    HW1 4700   3.023   6.173   3.320
67601SOL    HW2 4701   3.039   6.175   3.170
67602SOL     OW 4702   4.508   1.059   4.709
67602SOL    HW1 4703   4.563   1.097   4.777
67602SOL    HW2 4704   4.424   1.104   4.718
67603SOL     OW 4705   4.324  13.610   5.589
67603SOL    HW1 4706   4.358  13.640   5.673
67603SOL    HW2 4707   4.258  13.674   5.565
67604SOL     OW 4708   2.600  11.620  14.137
67604SOL    HW1 4709   2.678  11.567  14.125
67604SOL    HW2 4710   2.570  11.599  14.225
67605SOL     OW 4711   0.588   4.722  14.626
67605SOL    HW1 4712   0.680   4.748  14.635
67605SOL    HW2 4713   0.592   4.628  14.608
67606SOL     OW 4714   3.217   7.495   8.705
67606SOL    HW1 4715   3.188   7.584   8.688
67606SOL    HW2 4716   3.176   7.472   8.789
67607SOL     OW 4717  10.030   8.931  10.179
67607SOL    HW1 4718   9.949   8.909  10.225
67607SOL    HW2 4719  10.094   8.870  10.215
67608SOL     OW 4720   3.052   3.315   0.408
67608SOL    HW1 4721   2.963   3.334   0.382
67608SOL    HW2 4722   3.044   3.244   0.472
67609SOL     OW 4723   1.265   1.129  11.204
67609SOL    HW1 4724   1.176   1.165  11.203
67609SOL    HW2 4725   1.273   1.088  11.289
67610SOL     OW 4726   5.422   3.838   4.855
67610SOL    HW1 4727   5.383   3.854   4.941
67610SOL    HW2 4728   5.504   3.888   4.856
67611SOL     OW 4729  10.532   0.233   2.986
67611SOL    HW1 4730  10.587   0.167   2.943
67611SOL    HW2 4731  10.443   0.200   2.975
67612SOL     OW 4732   4.478  10.551  11.277
67612SOL    HW1 4733   4.447  10.517  11.361
67612SOL    HW2 4734   4.471  10.647  11.285
67613SOL     OW 4735   8.218   3.041   1.631
67613SOL    HW1 4736   8.300   2.992   1.628
67613SOL    HW2 4737   8.220   3.097   1.554
67614SOL     OW 4738   6.085   9.889  11.501
67614SOL    HW1 4739   6.139   9.868  11.425
67614SOL    HW2 4740   6.089   9.985  11.507
67615SOL     OW 4741   4.265  10.665   4.715
67615SOL    HW1 4742   4.320  10.587   4.719
67615SOL    HW2 4743   4.176  10.632   4.707
67616SOL     OW 4744   0.380  10.259   4.594
67616SOL    HW1 4745   0.405  10.296   4.510
67616SOL    HW2 4746   0.443  10.294   4.657
67617SOL     OW 4747   6.361   9.843  14.071
67617SOL    HW1 4748   6.440   9.821  14.023
67617SOL    HW2 4749   6.313   9.903  14.014
67618SOL     OW 4750   9.817  10.657  14.015
67618SOL    HW1 4751   9.791  10.644  14.107
67618SOL    HW2 4752   9.809  10.752  14.002
67619SOL     OW 4753  12.338  14.347   2.005
67619SOL    HW1 4754  12.410  14.326   2.064
67619SOL    HW2 4755  12.276  14.396   2.059
67620SOL     OW 4756   6.283   9.846  11.284
67620SOL    HW1 4757   6.217   9.792  11.239
67620SOL    HW2 4758   6.330   9.784  11.340
67621SOL     OW 4759  13.391   2.892  11.908
67621SOL    HW1 4760  13.321   2.890  11.973
67621SOL    HW2 4761  13.367   2.963  11.849
67622SOL     OW 4762   1.317   6.224   0.612
67622SOL    HW1 4763   1.373   6.149   0.594
67622SOL    HW2 4764   1.334   6.245   0.704
67623SOL     OW 4765   9.261   7.257  11.178
67623SOL    HW1 4766   9.221   7.333  11.221
67623SOL    HW2 4767   9.186   7.202  11.154
67624SOL     OW 4768   8.096  10.685   4.643
67624SOL    HW1 4769   8.179  10.638   4.640
67624SOL    HW2 4770   8.120  10.775   4.668
67625SOL     OW 4771   4.794   6.753   2.200
67625SOL    HW1 4772   4.779   6.747   2.105
67625SOL    HW2 4773   4.717   6.713   2.240
67626SOL     OW 4774   4.380   1.808   0.995
67626SOL    HW1 4775   4.462   1.772   0.962
67626SOL    HW2 4776   4.316   1.791   0.925
67627SOL     OW 4777   3.301  12.005   4.776
67627SOL    HW1 4778   3.260  11.961   4.851
67627SOL    HW2 4779   3.355  11.938   4.734
67628SOL     OW 4780   2.755  10.652  11.926
67628SOL    HW1 4781   2.741  10.732  11.876
67628SOL    HW2 4782   2.845  10.659  11.959
67629SOL     OW 4783   6.524   2.658   0.812
67629SOL    HW1 4784   6.470   2.710   0.871
67629SOL    HW2 4785   6.523   2.570   0.849
67630SOL     OW 4786   0.793   0.509  12.892
67630SOL    HW1 4787   0.887   0.491  12.885
67630SOL    HW2 4788   0.779   0.526  12.985
67631SOL     OW 4789   6.196   4.935   3.564
67631SOL    HW1 4790   6.104   4.957   3.579
67631SOL    HW2 4791   6.239   5.020   3.551
67632SOL     OW 4792   0.802   5.186  10.885
67632SOL    HW1 4793   0.892   5.157  10.898
67632SOL    HW2 4794   0.754   5.152  10.960
67633SOL     OW 4795  13.591   9.554   0.217
67633SOL    HW1 4796  13.643   9.569   0.296
67633SOL    HW2 4797  13.501   9.550   0.249
67634SOL     OW 4798   2.116   3.522   9.000
67634SOL    HW1 4799   2.138   3.436   9.036
67634SOL    HW2 4800   2.049   3.503   8.934
67635SOL     OW 4801   3.765   4.961   4.493
67635SOL    HW1 4802   3.798   5.005   4.414
67635SOL    HW2 4803   3.815   4.999   4.565
67636SOL     OW 4804   8.614  13.234  10.990
67636SOL    HW1 4805   8.628  13.277  10.906
67636SOL    HW2 4806   8.594  13.143  10.968
67637SOL     OW 4807   8.872   8.783   4.053
67637SOL    HW1 4808   8.779   8.806   4.061
67637SOL    HW2 4809   8.872   8.687   4.048
67638SOL     OW 4810  11.817  13.812   1.975
67638SOL    HW1 4811  11.800  13.754   2.050
67638SOL    HW2 4812  11.811  13.754   1.899
67639SOL     OW 4813   8.830  13.956  14.740
67639SOL    HW1 4814   8.903  14.016  14.756
67639SOL    HW2 4815   8.870  13.869  14.738
67640SOL     OW 4816   5.223   7.655  10.770
67640SOL    HW1 4817   5.246   7.748  10.763
67640SOL    HW2 4818   5.209   7.628  10.679
67641SOL     OW 4819  10.379   4.501   3.558
67641SOL    HW1 4820  10.396   4.448   3.480
67641SOL    HW2 4821  10.450   4.566   3.559
67642SOL     OW 4822   6.946   0.474   2.855
67642SOL    HW1 4823   6.993   0.546   2.813
67642SOL    HW2 4824   6.856   0.506   2.863
67643SOL     OW 4825   9.576  10.243   2.230
67643SOL    HW1 4826   9.630  10.164   2.230
67643SOL    HW2 4827   9.511  10.227   2.299
67644SOL     OW 4828  14.092   9.807   9.149
67644SOL    HW1 4829  14.009   9.762   9.133
67644SOL    HW2 4830  14.151   9.772   9.082
67645SOL     OW 4831   9.893   3.815  14.647
67645SOL    HW1 4832   9.848   3.763  14.714
67645SOL    HW2 4833   9.965   3.759  14.618
67646SOL     OW 4834   4.819   5.073  11.826
67646SOL    HW1 4835   4.884   5.003  11.812
67646SOL    HW2 4836   4.792   5.062  11.917
67647SOL     OW 4837   1.538   6.706   5.161
67647SOL    HW1 4838   1.545   6.762   5.083
67647SOL    HW2 4839   1.523   6.767   5.233
67648SOL     OW 4840  12.150   5.529   5.904
67648SOL    HW1 4841  12.214   5.458   5.907
67648SOL    HW2 4842  12.098   5.518   5.983
67649SOL     OW 4843  11.080   6.740   0.866
67649SOL    HW1 4844  11.023   6.805   0.824
67649SOL    HW2 4845  11.167   6.759   0.830
67650SOL     OW 4846   4.332  12.731   0.065
67650SOL    HW1 4847   4.317  12.654   0.119
67650SOL    HW2 4848   4.285  12.713  14.855
67651SOL     OW 4849   2.459   0.696   8.033
67651SOL    HW1 4850   2.540   0.646   8.048
67651SOL    HW2 4851   2.425   0.662   7.950
67652SOL     OW 4852   9.212   7.785  11.927
67652SOL    HW1 4853   9.118   7.772  11.940
67652SOL    HW2 4854   9.223   7.784  11.832
67653SOL     OW 4855  11.567   5.106   9.567
67653SOL    HW1 4856  11.641   5.148   9.610
67653SOL    HW2 4857  11.590   5.013   9.563
67654SOL     OW 4858   0.205   3.068   5.877
67654SOL    HW1 4859   0.300   3.066   5.866
67654SOL    HW2 4860   0.171   3.052   5.789
67655SOL     OW 4861   8.423  14.272   6.804
67655SOL    HW1 4862   8.356  14.206   6.785
67655SOL    HW2 4863   8.465  14.289   6.720
67656SOL     OW 4864   9.308  10.987   4.012
67656SOL    HW1 4865   9.333  10.936   3.935
67656SOL    HW2 4866   9.386  11.038   4.033
67657SOL     OW 4867  13.983   1.312   3.693
67657SOL    HW1 4868  14.077   1.301   3.679
67657SOL    HW2 4869  13.964   1.401   3.664
67658SOL     OW 4870   5.732  11.129   6.473
67658SOL    HW1 4871   5.664  11.067   6.448
67658SOL    HW2 4872   5.802  11.075   6.511
67659SOL     OW 4873   5.632   6.247   6.966
67659SOL    HW1 4874   5.671   6.276   6.883
67659SOL    HW2 4875   5.697   6.270   7.032
67660SOL     OW 4876   1.189   3.056   2.970
67660SOL    HW1 4877   1.217   3.019   3.054
67660SOL    HW2 4878   1.269   3.056   2.917
67661SOL     OW 4879   6.436   6.696   8.947
67661SOL    HW1 4880   6.374   6.724   8.880
67661SOL    HW2 4881   6.480   6.776   8.973
67662SOL     OW 4882  12.794  14.292  10.625
67662SOL    HW1 4883  12.873  14.277  10.573
67662SOL    HW2 4884  12.818  14.263  10.713
67663SOL     OW 4885   4.902   0.422  12.228
67663SOL    HW1 4886   4.808   0.406  12.213
67663SOL    HW2 4887   4.920   0.503  12.180
67664SOL     OW 4888   9.911  14.806  14.209
67664SOL    HW1 4889  10.006  14.814  14.220
67664SOL    HW2 4890   9.888  14.726  14.255
67665SOL     OW 4891   9.767  12.990   5.496
67665SOL    HW1 4892   9.765  13.009   5.402
67665SOL    HW2 4893   9.710  12.914   5.506
67666SOL     OW 4894   0.832   9.316  10.595
67666SOL    HW1 4895   0.838   9.227  10.630
67666SOL    HW2 4896   0.787   9.305  10.511
67667SOL     OW 4897   9.814   7.850  12.694
67667SOL    HW1 4898   9.863   7.826  12.616
67667SOL    HW2 4899   9.852   7.932  12.722
67668SOL     OW 4900  11.345   7.590   7.101
67668SOL    HW1 4901  11.420   7.644   7.125
67668SOL    HW2 4902  11.299   7.640   7.033
67669SOL     OW 4903   1.048   3.129   0.047
67669SOL    HW1 4904   0.991   3.110   0.121
67669SOL    HW2 4905   1.118   3.063   0.052
67670SOL     OW 4906  12.590  11.151   4.569
67670SOL    HW1 4907  12.619  11.126   4.481
67670SOL    HW2 4908  12.522  11.217   4.554
67671SOL     OW 4909   9.631   6.225   9.047
67671SOL    HW1 4910   9.595   6.148   9.004
67671SOL    HW2 4911   9.691   6.190   9.113
67672SOL     OW 4912   3.047  12.774   3.572
67672SOL    HW1 4913   3.005  12.712   3.513
67672SOL    HW2 4914   3.140  12.750   3.570
67673SOL     OW 4915   2.773   6.262   9.746
67673SOL    HW1 4916   2.698   6.315   9.718
67673SOL    HW2 4917   2.822   6.319   9.806
67674SOL     OW 4918  11.104   7.083   0.584
67674SOL    HW1 4919  11.018   7.052   0.614
67674SOL    HW2 4920  11.090   7.111   0.494
67675SOL     OW 4921   0.641  14.699   9.896
67675SOL    HW1 4922   0.567  14.648   9.863
67675SOL    HW2 4923   0.630  14.698   9.991
67676SOL     OW 4924   5.630  10.344  14.535
67676SOL    HW1 4925   5.684  10.391  14.472
67676SOL    HW2 4926   5.682  10.344  14.616
67677SOL     OW 4927   8.406   0.374   9.052
67677SOL    HW1 4928   8.459   0.407   8.979
67677SOL    HW2 4929   8.406   0.445   9.116
67678SOL     OW 4930   4.948  12.240   0.538
67678SOL    HW1 4931   4.916  12.320   0.496
67678SOL    HW2 4932   4.871  12.203   0.582
67679SOL     OW 4933  13.880   0.126   6.687
67679SOL    HW1 4934  13.800   0.092   6.727
67679SOL    HW2 4935  13.873   0.221   6.698
67680SOL     OW 4936   2.085   4.083   2.553
67680SOL    HW1 4937   2.156   4.086   2.617
67680SOL    HW2 4938   2.011   4.045   2.600
67681SOL     OW 4939   2.883   0.276   8.306
67681SOL    HW1 4940   2.807   0.223   8.330
67681SOL    HW2 4941   2.947   0.213   8.274
67682SOL     OW 4942   9.748  11.610   2.072
67682SOL    HW1 4943   9.768  11.567   1.989
67682SOL    HW2 4944   9.719  11.539   2.130
67683SOL     OW 4945   5.974   5.786   6.319
67683SOL    HW1 4946   5.948   5.878   6.320
67683SOL    HW2 4947   6.044   5.781   6.253
67684SOL     OW 4948   1.961   5.231   2.709
67684SOL    HW1 4949   1.906   5.159   2.741
67684SOL    HW2 4950   2.035   5.187   2.666
67685SOL     OW 4951   5.045  12.653   5.211
67685SOL    HW1 4952   5.129  12.635   5.252
67685SOL    HW2 4953   4.983  12.657   5.284
67686SOL     OW 4954   2.491   8.894  10.442
67686SOL    HW1 4955   2.560   8.923  10.501
67686SOL    HW2 4956   2.416   8.876  10.499
67687SOL     OW 4957   6.464   3.769   7.511
67687SOL    HW1 4958   6.525   3.839   7.486
67687SOL    HW2 4959   6.378   3.811   7.509
67688SOL     OW 4960   1.399  11.938   1.138
67688SOL    HW1 4961   1.414  11.878   1.066
67688SOL    HW2 4962   1.457  12.012   1.121
67689SOL     OW 4963   7.916   7.951   2.329
67689SOL    HW1 4964   7.893   7.960   2.422
67689SOL    HW2 4965   7.963   7.868   2.325
67690SOL     OW 4966  12.356   0.831   5.883
67690SOL    HW1 4967  12.298   0.813   5.809
67690SOL    HW2 4968  12.414   0.755   5.887
67691SOL     OW 4969   0.669  14.496   4.465
67691SOL    HW1 4970   0.609  14.427   4.435
67691SOL    HW2 4971   0.724  14.453   4.530
67692SOL     OW 4972   1.055  12.852   6.013
67692SOL    HW1 4973   1.048  12.760   5.988
67692SOL    HW2 4974   1.029  12.854   6.105
67693SOL     OW 4975   7.481   7.202  10.399
67693SOL    HW1 4976   7.437   7.120  10.379
67693SOL    HW2 4977   7.572   7.189  10.372
67694SOL     OW 4978   8.818   9.429   5.478
67694SOL    HW1 4979   8.759   9.482   5.424
67694SOL    HW2 4980   8.815   9.342   5.439
67695SOL     OW 4981   3.853   0.656   2.073
67695SOL    HW1 4982   3.913   0.729   2.085
67695SOL    HW2 4983   3.786   0.668   2.140
67696SOL     OW 4984   3.839  11.939   5.944
67696SOL    HW1 4985   3.814  11.868   6.004
67696SOL    HW2 4986   3.859  12.013   6.001
67697SOL     OW 4987   9.283   0.633   2.211
67697SOL    HW1 4988   9.251   0.556   2.258
67697SOL    HW2 4989   9.349   0.670   2.268
67698SOL     OW 4990   7.100   7.430   5.219
67698SOL    HW1 4991   7.161   7.420   5.145
67698SOL    HW2 4992   7.097   7.524   5.236
67699SOL     OW 4993  10.382   2.994   1.603
67699SOL    HW1 4994  10.460   2.940   1.593
67699SOL    HW2 4995  10.383   3.052   1.527
67700SOL     OW 4996   2.547  11.349  13.417
67700SOL    HW1 4997   2.522  11.257  13.413
67700SOL    HW2 4998   2.491  11.391  13.351
67701SOL     OW 4999  11.333  14.086   0.819
67701SOL    HW1 5000  11.397  14.022   0.851
67701SOL    HW2 5001  11.361  14.105   0.729
67702SOL     OW 5002  13.908   8.379   6.808
67702SOL    HW1 5003  13.949   8.397   6.893
67702SOL    HW2 5004  13.973   8.328   6.760
67703SOL     OW 5005   8.028  11.091   2.818
67703SOL    HW1 5006   8.117  11.125   2.808
67703SOL    HW2 5007   7.992  11.139   2.892
67704SOL     OW 5008   9.374  10.362  12.121
67704SOL    HW1 5009   9.361  10.441  12.173
67704SOL    HW2 5010   9.467  10.364  12.099
67705SOL     OW 5011   9.001   9.141   2.658
67705SOL    HW1 5012   8.977   9.219   2.608
67705SOL    HW2 5013   8.918   9.105   2.688
67706SOL     OW 5014   1.698   4.922   9.254
67706SOL    HW1 5015   1.610   4.908   9.220
67706SOL    HW2 5016   1.755   4.911   9.179
67707SOL     OW 5017   7.153  11.258   7.611
67707SOL    HW1 5018   7.071  11.281   7.567
67707SOL    HW2 5019   7.188  11.342   7.642
67708SOL     OW 5020   1.305   3.405   6.647
67708SOL    HW1 5021   1.361   3.328   6.647
67708SOL    HW2 5022   1.288   3.421   6.554
67709SOL     OW 5023   2.329  14.310  12.102
67709SOL    HW1 5024   2.247  14.262  12.088
67709SOL    HW2 5025   2.312  14.366  12.178
67710SOL     OW 5026   6.547  10.315   2.492
67710SOL    HW1 5027   6.529  10.357   2.408
67710SOL    HW2 5028   6.518  10.379   2.557
67711SOL     OW 5029   2.445  14.605   1.949
67711SOL    HW1 5030   2.415  14.658   1.875
67711SOL    HW2 5031   2.366  14.563   1.982
67712SOL     OW 5032   6.007   1.036  12.300
67712SOL    HW1 5033   6.075   1.049  12.233
67712SOL    HW2 5034   5.926   1.028  12.250
67713SOL     OW 5035  14.270   4.099   5.157
67713SOL    HW1 5036  14.256   4.145   5.074
67713SOL    HW2 5037  14.189   4.050   5.171
67714SOL     OW 5038  12.376  13.523   4.670
67714SOL    HW1 5039  12.454  13.476   4.698
67714SOL    HW2 5040  12.363  13.591   4.736
67715SOL     OW 5041  14.367   7.964   7.879
67715SOL    HW1 5042  14.306   7.988   7.809
67715SOL    HW2 5043  14.345   8.023   7.951
67716SOL     OW 5044   1.956   1.865   9.540
67716SOL    HW1 5045   2.015   1.940   9.538
67716SOL    HW2 5046   2.006   1.793   9.503
67717SOL     OW 5047   7.956  10.806  11.212
67717SOL    HW1 5048   7.915  10.774  11.292
67717SOL    HW2 5049   7.977  10.727  11.162
67718SOL     OW 5050   1.410   4.298   7.996
67718SOL    HW1 5051   1.396   4.203   7.988
67718SOL    HW2 5052   1.472   4.319   7.927
67719SOL     OW 5053  11.803   4.404   4.579
67719SOL    HW1 5054  11.783   4.475   4.518
67719SOL    HW2 5055  11.723   4.392   4.630
67720SOL     OW 5056   5.102  12.614  12.365
67720SOL    HW1 5057   5.159  12.552  12.320
67720SOL    HW2 5058   5.140  12.700  12.347
67721SOL     OW 5059   8.668  11.105  13.592
67721SOL    HW1 5060   8.658  11.010  13.606
67721SOL    HW2 5061   8.581  11.134  13.565
67722SOL     OW 5062  13.481  11.018   3.292
67722SOL    HW1 5063  13.429  10.996   3.214
67722SOL    HW2 5064  13.498  10.934   3.334
67723SOL     OW 5065   6.879   9.266  13.843
67723SOL    HW1 5066   6.905   9.188  13.794
67723SOL    HW2 5067   6.816   9.311  13.786
67724SOL     OW 5068   2.862   9.035   5.977
67724SOL    HW1 5069   2.797   8.992   6.031
67724SOL    HW2 5070   2.917   8.964   5.943
67725SOL     OW 5071   6.581  12.612   9.136
67725SOL    HW1 5072   6.643  12.685   9.129
67725SOL    HW2 5073   6.589  12.566   9.053
67726SOL     OW 5074  12.710   5.625  12.134
67726SOL    HW1 5075  12.754   5.682  12.197
67726SOL    HW2 5076  12.625   5.667  12.119
67727SOL     OW 5077  14.395   5.076   0.442
67727SOL    HW1 5078  14.378   5.107   0.353
67727SOL    HW2 5079  14.331   5.122   0.496
67728SOL     OW 5080   6.924   9.621   2.741
67728SOL    HW1 5081   6.901   9.528   2.751
67728SOL    HW2 5082   6.943   9.630   2.647
67729SOL     OW 5083   0.421   9.687   6.970
67729SOL    HW1 5084   0.511   9.710   6.947
67729SOL    HW2 5085   0.428   9.643   7.054
67730SOL     OW 5086   1.871  10.753   9.748
67730SOL    HW1 5087   1.873  10.791   9.836
67730SOL    HW2 5088   1.940  10.686   9.749
67731SOL     OW 5089   3.593   5.869   2.132
67731SOL    HW1 5090   3.581   5.950   2.083
67731SOL    HW2 5091   3.583   5.894   2.224
67732SOL     OW 5092   4.431   8.565  10.159
67732SOL    HW1 5093   4.434   8.569  10.255
67732SOL    HW2 5094   4.464   8.478  10.137
67733SOL     OW 5095   5.849   4.828  14.798
67733SOL    HW1 5096   5.814   4.810   0.012
67733SOL    HW2 5097   5.874   4.742  14.764
67734SOL     OW 5098   8.025   6.182   3.876
67734SOL    HW1 5099   7.976   6.240   3.934
67734SOL    HW2 5100   7.962   6.156   3.808
67735SOL     OW 5101   7.587   1.896  11.149
67735SOL    HW1 5102   7.555   1.826  11.092
67735SOL    HW2 5103   7.603   1.854  11.233
67736SOL     OW 5104   3.313   6.715  11.758
67736SOL    HW1 5105   3.314   6.706  11.853
67736SOL    HW2 5106   3.403   6.735  11.734
67737SOL     OW 5107  11.164   7.749   1.365
67737SOL    HW1 5108  11.233   7.761   1.430
67737SOL    HW2 5109  11.083   7.748   1.416
67738SOL     OW 5110   2.579  10.640   7.780
67738SOL    HW1 5111   2.497  10.689   7.782
67738SOL    HW2 5112   2.552  10.548   7.782
67739SOL     OW 5113   2.881   4.397   9.514
67739SOL    HW1 5114   2.816   4.362   9.454
67739SOL    HW2 5115   2.833   4.415   9.594
67740SOL     OW 5116  11.201  11.781   6.435
67740SOL    HW1 5117  11.195  11.847   6.504
67740SOL    HW2 5118  11.146  11.709   6.466
67741SOL     OW 5119  10.221  10.544  11.618
67741SOL    HW1 5120  10.125  10.538  11.613
67741SOL    HW2 5121  10.237  10.631  11.655
67742SOL     OW 5122   8.413   3.540   7.343
67742SOL    HW1 5123   8.463   3.481   7.287
67742SOL    HW2 5124   8.422   3.626   7.302
67743SOL     OW 5125   5.616   5.165   7.244
67743SOL    HW1 5126   5.583   5.248   7.279
67743SOL    HW2 5127   5.645   5.117   7.322
67744SOL     OW 5128   2.518  12.883   0.495
67744SOL    HW1 5129   2.443  12.937   0.519
67744SOL    HW2 5130   2.575  12.942   0.445
67745SOL     OW 5131   7.605  11.950   7.317
67745SOL    HW1 5132   7.623  12.042   7.337
67745SOL    HW2 5133   7.588  11.911   7.402
67746SOL     OW 5134   1.182   9.049  11.087
67746SOL    HW1 5135   1.259   9.079  11.135
67746SOL    HW2 5136   1.129   9.127  11.074
67747SOL     OW 5137  12.087   3.405  12.104
67747SOL    HW1 5138  12.077   3.325  12.157
67747SOL    HW2 5139  12.180   3.426  12.110
67748SOL     OW 5140   3.188   6.743   5.216
67748SOL    HW1 5141   3.200   6.812   5.151
67748SOL    HW2 5142   3.231   6.776   5.295
67749SOL     OW 5143   0.142  11.892   2.271
67749SOL    HW1 5144   0.119  11.984   2.260
67749SOL    HW2 5145   0.237  11.890   2.264
67750SOL     OW 5146   4.221   6.706  12.457
67750SOL    HW1 5147   4.287   6.694  12.389
67750SOL    HW2 5148   4.257   6.660  12.533
67751SOL     OW 5149   1.006   4.432  12.359
67751SOL    HW1 5150   0.995   4.526  12.343
67751SOL    HW2 5151   1.098   4.415  12.341
67752SOL     OW 5152  12.127   7.185  11.215
67752SOL    HW1 5153  12.213   7.155  11.188
67752SOL    HW2 5154  12.131   7.281  11.204
67753SOL     OW 5155   7.612   8.551  11.888
67753SOL    HW1 5156   7.705   8.553  11.865
67753SOL    HW2 5157   7.598   8.465  11.927
67754SOL     OW 5158  14.548  13.545  10.383
67754SOL    HW1 5159  14.491  13.484  10.430
67754SOL    HW2 5160  14.604  13.488  10.329
67755SOL     OW 5161  13.397   6.023   3.785
67755SOL    HW1 5162  13.316   5.977   3.810
67755SOL    HW2 5163  13.445   5.959   3.732
67756SOL     OW 5164  14.007  10.372   4.371
67756SOL    HW1 5165  13.932  10.332   4.328
67756SOL    HW2 5166  14.047  10.301   4.421
67757SOL     OW 5167  13.823   4.848  13.425
67757SOL    HW1 5168  13.907   4.840  13.381
67757SOL    HW2 5169  13.803   4.759  13.455
67758SOL     OW 5170  10.882  12.914   4.365
67758SOL    HW1 5171  10.864  12.933   4.458
67758SOL    HW2 5172  10.846  12.826   4.352
67759SOL     OW 5173   5.914   9.715   2.884
67759SOL    HW1 5174   6.003   9.717   2.918
67759SOL    HW2 5175   5.921   9.749   2.795
67760SOL     OW 5176   2.432  10.553   9.239
67760SOL    HW1 5177   2.513  10.517   9.202
67760SOL    HW2 5178   2.384  10.586   9.163
67761SOL     OW 5179  12.998   3.788   1.410
67761SOL    HW1 5180  12.948   3.718   1.453
67761SOL    HW2 5181  13.089   3.756   1.412
67762SOL     OW 5182   7.364  13.551   9.655
67762SOL    HW1 5183   7.340  13.572   9.746
67762SOL    HW2 5184   7.375  13.636   9.613
67763SOL     OW 5185   3.660   5.242   8.192
67763SOL    HW1 5186   3.675   5.310   8.257
67763SOL    HW2 5187   3.705   5.272   8.113
67764SOL     OW 5188  14.612   5.501  14.067
67764SOL    HW1 5189  14.566   5.432  14.019
67764SOL    HW2 5190  14.691   5.459  14.099
67765SOL     OW 5191   7.364  14.477   8.595
67765SOL    HW1 5192   7.338  14.453   8.683
67765SOL    HW2 5193   7.409  14.400   8.561
67766SOL     OW 5194   6.918  12.183   9.478
67766SOL    HW1 5195   6.908  12.183   9.383
67766SOL    HW2 5196   7.011  12.201   9.492
67767SOL     OW 5197  11.947   0.793   8.202
67767SOL    HW1 5198  12.038   0.776   8.225
67767SOL    HW2 5199  11.897   0.745   8.268
67768SOL     OW 5200   3.263   4.576  10.930
67768SOL    HW1 5201   3.176   4.536  10.926
67768SOL    HW2 5202   3.316   4.526  10.867
67769SOL     OW 5203   4.118   9.312   9.169
67769SOL    HW1 5204   4.079   9.225   9.172
67769SOL    HW2 5205   4.045   9.370   9.147
67770SOL     OW 5206   6.748   1.190  10.719
67770SOL    HW1 5207   6.730   1.158  10.630
67770SOL    HW2 5208   6.782   1.279  10.705
67771SOL     OW 5209  14.164   9.271  11.897
67771SOL    HW1 5210  14.146   9.238  11.985
67771SOL    HW2 5211  14.181   9.365  11.910
67772SOL     OW 5212   7.786   2.708   9.341
67772SOL    HW1 5213   7.721   2.737   9.405
67772SOL    HW2 5214   7.745   2.633   9.298
67773SOL     OW 5215  13.598   6.422   0.231
67773SOL    HW1 5216  13.566   6.464   0.311
67773SOL    HW2 5217  13.660   6.486   0.194
67774SOL     OW 5218   1.811   0.117   6.454
67774SOL    HW1 5219   1.892   0.103   6.503
67774SOL    HW2 5220   1.839   0.159   6.373
67775SOL     OW 5221   2.656   5.592   0.546
67775SOL    HW1 5222   2.632   5.664   0.487
67775SOL    HW2 5223   2.743   5.566   0.517
67776SOL     OW 5224   9.932   1.957   1.268
67776SOL    HW1 5225   9.964   1.992   1.351
67776SOL    HW2 5226  10.007   1.961   1.209
67777SOL     OW 5227  13.459  12.103   4.105
67777SOL    HW1 5228  13.528  12.140   4.049
67777SOL    HW2 5229  13.498  12.100   4.192
67778SOL     OW 5230   5.612  14.817   6.730
67778SOL    HW1 5231   5.693  14.832   6.681
67778SOL    HW2 5232   5.620   0.003   6.806
67779SOL     OW 5233  14.762   7.118   1.570
67779SOL    HW1 5234  14.830   7.168   1.614
67779SOL    HW2 5235  14.799   7.031   1.558
67780SOL     OW 5236   3.658  10.740   3.173
67780SOL    HW1 5237   3.693  10.681   3.107
67780SOL    HW2 5238   3.594  10.794   3.126
67781SOL     OW 5239   9.182   0.900   6.152
67781SOL    HW1 5240   9.241   0.975   6.154
67781SOL    HW2 5241   9.224   0.838   6.092
67782SOL     OW 5242  14.009   8.089   3.885
67782SOL    HW1 5243  13.959   8.071   3.965
67782SOL    HW2 5244  14.064   8.011   3.874
67783SOL     OW 5245  11.537   5.917   7.318
67783SOL    HW1 5246  11.569   5.986   7.377
67783SOL    HW2 5247  11.519   5.843   7.376
67784SOL     OW 5248  12.185  11.071   0.648
67784SOL    HW1 5249  12.176  11.077   0.553
67784SOL    HW2 5250  12.203  11.161   0.676
67785SOL     OW 5251   4.408   5.348  14.048
67785SOL    HW1 5252   4.459   5.405  13.990
67785SOL    HW2 5253   4.475   5.297  14.095
67786SOL     OW 5254   9.056   5.949  10.691
67786SOL    HW1 5255   9.086   5.861  10.715
67786SOL    HW2 5256   9.131   6.005  10.707
67787SOL     OW 5257  11.687   3.307   2.444
67787SOL    HW1 5258  11.687   3.395   2.481
67787SOL    HW2 5259  11.637   3.254   2.507
67788SOL     OW 5260  10.501  12.557   5.569
67788SOL    HW1 5261  10.476  12.482   5.623
67788SOL    HW2 5262  10.496  12.524   5.479
67789SOL     OW 5263   0.723  10.576   8.263
67789SOL    HW1 5264   0.647  10.633   8.249
67789SOL    HW2 5265   0.795  10.636   8.281
67790SOL     OW 5266  13.081   5.237   1.832
67790SOL    HW1 5267  13.088   5.265   1.923
67790SOL    HW2 5268  12.991   5.205   1.823
67791SOL     OW 5269   9.527   9.749  10.509
67791SOL    HW1 5270   9.573   9.670  10.538
67791SOL    HW2 5271   9.518   9.802  10.589
67792SOL     OW 5272   0.142   8.371  12.417
67792SOL    HW1 5273   0.108   8.282  12.418
67792SOL    HW2 5274   0.064   8.426  12.420
67793SOL     OW 5275  13.386  10.056  12.688
67793SOL    HW1 5276  13.458  10.054  12.626
67793SOL    HW2 5277  13.427  10.044  12.774
67794SOL     OW 5278   0.052   3.104  11.383
67794SOL    HW1 5279  14.846   3.100  11.438
67794SOL    HW2 5280   0.042   3.185  11.333
67795SOL     OW 5281   4.369   1.173   3.039
67795SOL    HW1 5282   4.463   1.156   3.047
67795SOL    HW2 5283   4.333   1.092   3.004
67796SOL     OW 5284   2.326  11.956   9.475
67796SOL    HW1 5285   2.380  11.911   9.410
67796SOL    HW2 5286   2.380  12.029   9.506
67797SOL     OW 5287  14.695   0.096   0.170
67797SOL    HW1 5288  14.724   0.067   0.256
67797SOL    HW2 5289  14.613   0.143   0.187
67798SOL     OW 5290   9.304   1.943   2.563
67798SOL    HW1 5291   9.375   1.927   2.625
67798SOL    HW2 5292   9.304   1.866   2.505
67799SOL     OW 5293  14.073   6.403   9.228
67799SOL    HW1 5294  14.139   6.334   9.237
67799SOL    HW2 5295  14.109   6.462   9.163
67800SOL     OW 5296   0.130   4.319   7.571
67800SOL    HW1 5297   0.108   4.306   7.663
67800SOL    HW2 5298   0.189   4.395   7.571
67801SOL     OW 5299   0.373  13.390  14.389
67801SOL    HW1 5300   0.278  13.384  14.380
67801SOL    HW2 5301   0.386  13.463  14.449
67802SOL     OW 5302   3.675  13.831   2.507
67802SOL    HW1 5303   3.742  13.822   2.440
67802SOL    HW2 5304   3.652  13.741   2.530
67803SOL     OW 5305  13.256   0.394   9.147
67803SOL    HW1 5306  13.328   0.423   9.203
67803SOL    HW2 5307  13.177   0.421   9.194
67804SOL     OW 5308  12.585   2.058  10.844
67804SOL    HW1 5309  12.522   2.124  10.874
67804SOL    HW2 5310  12.533   1.997  10.792
67805SOL     OW 5311   4.814   5.815   3.111
67805SOL    HW1 5312   4.851   5.790   3.196
67805SOL    HW2 5313   4.882   5.868   3.069
67806SOL     OW 5314   1.100   6.309   4.413
67806SOL    HW1 5315   1.129   6.306   4.504
67806SOL    HW2 5316   1.092   6.217   4.387
67807SOL     OW 5317  10.036   8.384  12.664
67807SOL    HW1 5318  10.104   8.384  12.597
67807SOL    HW2 5319  10.019   8.476  12.682
67808SOL     OW 5320  12.302   8.713   6.258
67808SOL    HW1 5321  12.250   8.675   6.187
67808SOL    HW2 5322  12.386   8.735   6.218
67809SOL     OW 5323   1.658  10.643   2.354
67809SOL    HW1 5324   1.696  10.604   2.275
67809SOL    HW2 5325   1.662  10.737   2.338
67810SOL     OW 5326   4.758  10.410   8.970
67810SOL    HW1 5327   4.791  10.381   8.885
67810SOL    HW2 5328   4.837  10.438   9.018
67811SOL     OW 5329   6.936  11.852   9.912
67811SOL    HW1 5330   6.980  11.813   9.988
67811SOL    HW2 5331   6.927  11.944   9.935
67812SOL     OW 5332   1.195  10.686  11.340
67812SOL    HW1 5333   1.176  10.761  11.396
67812SOL    HW2 5334   1.281  10.705  11.303
67813SOL     OW 5335   8.646   6.610   9.429
67813SOL    HW1 5336   8.574   6.598   9.490
67813SOL    HW2 5337   8.663   6.523   9.394
67814SOL     OW 5338   3.028   4.804  14.537
67814SOL    HW1 5339   3.123   4.800  14.528
67814SOL    HW2 5340   2.996   4.735  14.479
67815SOL     OW 5341   1.644  10.233  11.749
67815SOL    HW1 5342   1.629  10.168  11.680
67815SOL    HW2 5343   1.558  10.247  11.788
67816SOL     OW 5344   0.331   8.910   0.259
67816SOL    HW1 5345   0.390   8.884   0.188
67816SOL    HW2 5346   0.258   8.847   0.253
67817SOL     OW 5347   0.977  12.910   6.295
67817SOL    HW1 5348   1.039  12.879   6.361
67817SOL    HW2 5349   0.944  12.992   6.330
67818SOL     OW 5350  10.044   9.457   0.963
67818SOL    HW1 5351   9.994   9.530   1.000
67818SOL    HW2 5352  10.135   9.481   0.976
67819SOL     OW 5353   2.488   1.102   8.711
67819SOL    HW1 5354   2.415   1.041   8.704
67819SOL    HW2 5355   2.566   1.047   8.713
67820SOL     OW 5356   2.678  10.280   5.091
67820SOL    HW1 5357   2.615  10.335   5.138
67820SOL    HW2 5358   2.641  10.192   5.094
67821SOL     OW 5359   6.489  12.904   6.161
67821SOL    HW1 5360   6.420  12.969   6.174
67821SOL    HW2 5361   6.531  12.896   6.247
67822SOL     OW 5362  13.324   7.379   1.173
67822SOL    HW1 5363  13.370   7.397   1.091
67822SOL    HW2 5364  13.234   7.405   1.156
67823SOL     OW 5365  10.052   9.386   7.266
67823SOL    HW1 5366  10.009   9.304   7.292
67823SOL    HW2 5367   9.980   9.448   7.254
67824SOL     OW 5368  14.586   0.456   0.767
67824SOL    HW1 5369  14.661   0.424   0.818
67824SOL    HW2 5370  14.511   0.410   0.804
67825SOL     OW 5371   7.723   9.794  13.701
67825SOL    HW1 5372   7.773   9.713  13.690
67825SOL    HW2 5373   7.635   9.773  13.670
67826SOL     OW 5374   2.289   9.195   2.609
67826SOL    HW1 5375   2.307   9.107   2.642
67826SOL    HW2 5376   2.373   9.240   2.613
67827SOL     OW 5377   7.924  14.275   4.210
67827SOL    HW1 5378   7.939  14.189   4.250
67827SOL    HW2 5379   7.910  14.334   4.283
67828SOL     OW 5380   7.361   2.584   9.936
67828SOL    HW1 5381   7.341   2.497   9.970
67828SOL    HW2 5382   7.456   2.588   9.933
67829SOL     OW 5383   9.825   3.918   8.909
67829SOL    HW1 5384   9.744   3.870   8.894
67829SOL    HW2 5385   9.846   3.957   8.824
67830SOL     OW 5386  14.217  10.372  13.986
67830SOL    HW1 5387  14.271  10.309  13.940
67830SOL    HW2 5388  14.136  10.325  14.005
67831SOL     OW 5389   2.984   0.148  13.689
67831SOL    HW1 5390   2.984   0.183  13.600
67831SOL    HW2 5391   2.929   0.209  13.738
67832SOL     OW 5392   5.289   9.904   7.632
67832SOL    HW1 5393   5.357   9.837   7.621
67832SOL    HW2 5394   5.323   9.981   7.587
67833SOL     OW 5395   6.412   8.388   1.789
67833SOL    HW1 5396   6.321   8.374   1.761
67833SOL    HW2 5397   6.405   8.414   1.881
67834SOL     OW 5398   0.833  10.750   4.351
67834SOL    HW1 5399   0.899  10.701   4.302
67834SOL    HW2 5400   0.815  10.827   4.297
67835SOL     OW 5401   1.876  14.055  11.910
67835SOL    HW1 5402   1.856  13.966  11.940
67835SOL    HW2 5403   1.877  14.049  11.815
67836SOL     OW 5404   7.548   6.334  12.669
67836SOL    HW1 5405   7.536   6.385  12.589
67836SOL    HW2 5406   7.584   6.396  12.732
67837SOL     OW 5407   2.363  10.879   6.209
67837SOL    HW1 5408   2.300  10.808   6.201
67837SOL    HW2 5409   2.402  10.867   6.296
67838SOL     OW 5410   2.429   8.773   6.234
67838SOL    HW1 5411   2.417   8.779   6.329
67838SOL    HW2 5412   2.391   8.854   6.200
67839SOL     OW 5413   6.283  11.210  14.201
67839SOL    HW1 5414   6.221  11.281  14.220
67839SOL    HW2 5415   6.228  11.137  14.174
67840SOL     OW 5416   1.875   1.625   5.693
67840SOL    HW1 5417   1.870   1.715   5.726
67840SOL    HW2 5418   1.842   1.571   5.765
67841SOL     OW 5419   0.824  11.949  13.084
67841SOL    HW1 5420   0.809  11.973  12.993
67841SOL    HW2 5421   0.772  12.012  13.134
67842SOL     OW 5422   0.783   6.875   8.620
67842SOL    HW1 5423   0.739   6.866   8.536
67842SOL    HW2 5424   0.865   6.825   8.610
67843SOL     OW 5425  13.187   4.619  12.761
67843SOL    HW1 5426  13.217   4.620  12.852
67843SOL    HW2 5427  13.200   4.709  12.730
67844SOL     OW 5428  14.126   8.713  10.344
67844SOL    HW1 5429  14.167   8.775  10.404
67844SOL    HW2 5430  14.186   8.638  10.342
67845SOL     OW 5431  13.542   3.855   7.713
67845SOL    HW1 5432  13.482   3.870   7.641
67845SOL    HW2 5433  13.551   3.759   7.718
67846SOL     OW 5434   4.521  11.243   5.820
67846SOL    HW1 5435   4.484  11.212   5.902
67846SOL    HW2 5436   4.605  11.283   5.845
67847SOL     OW 5437   0.871  10.397   2.057
67847SOL    HW1 5438   0.895  10.453   1.983
67847SOL    HW2 5439   0.952  10.350   2.079
67848SOL     OW 5440   7.741  11.300   3.827
67848SOL    HW1 5441   7.742  11.269   3.918
67848SOL    HW2 5442   7.685  11.377   3.828
67849SOL     OW 5443   2.379  14.689  11.902
67849SOL    HW1 5444   2.344  14.702  11.990
67849SOL    HW2 5445   2.454  14.631  11.914
67850SOL     OW 5446  12.565  12.839  10.337
67850SOL    HW1 5447  12.480  12.796  10.349
67850SOL    HW2 5448  12.615  12.779  10.281
67851SOL     OW 5449   3.001   8.771   4.210
67851SOL    HW1 5450   3.096   8.771   4.221
67851SOL    HW2 5451   2.967   8.774   4.300
67852SOL     OW 5452   0.514   6.170  11.963
67852SOL    HW1 5453   0.520   6.090  11.912
67852SOL    HW2 5454   0.564   6.152  12.043
67853SOL     OW 5455   1.943   9.179   5.601
67853SOL    HW1 5456   1.878   9.112   5.579
67853SOL    HW2 5457   1.934   9.191   5.695
67854SOL     OW 5458   6.494  14.699   3.329
67854SOL    HW1 5459   6.493  14.712   3.235
67854SOL    HW2 5460   6.429  14.630   3.345
67855SOL     OW 5461  10.224  10.109   5.967
67855SOL    HW1 5462  10.296  10.053   5.939
67855SOL    HW2 5463  10.183  10.138   5.886
67856SOL     OW 5464   4.291   7.809   5.644
67856SOL    HW1 5465   4.370   7.799   5.592
67856SOL    HW2 5466   4.315   7.871   5.713
67857SOL     OW 5467   9.247  11.183   2.778
67857SOL    HW1 5468   9.297  11.263   2.793
67857SOL    HW2 5469   9.309  11.123   2.738
67858SOL     OW 5470   6.511  14.443   3.582
67858SOL    HW1 5471   6.551  14.358   3.601
67858SOL    HW2 5472   6.454  14.426   3.507
67859SOL     OW 5473   3.495   3.839   8.002
67859SOL    HW1 5474   3.474   3.897   8.076
67859SOL    HW2 5475   3.590   3.841   7.996
67860SOL     OW 5476   1.115   7.956   1.705
67860SOL    HW1 5477   1.134   7.892   1.636
67860SOL    HW2 5478   1.065   8.025   1.661
67861SOL     OW 5479   7.553   7.118   1.336
67861SOL    HW1 5480   7.516   7.040   1.378
67861SOL    HW2 5481   7.517   7.116   1.247
67862SOL     OW 5482   4.123   3.269  13.731
67862SOL    HW1 5483   4.218   3.280  13.725
67862SOL    HW2 5484   4.092   3.353  13.764
67863SOL     OW 5485  10.815  13.358   3.194
67863SOL    HW1 5486  10.811  13.425   3.126
67863SOL    HW2 5487  10.760  13.287   3.162
67864SOL     OW 5488   4.724   6.998   0.483
67864SOL    HW1 5489   4.769   6.978   0.565
67864SOL    HW2 5490   4.789   6.982   0.415
67865SOL     OW 5491  10.292   2.547   7.255
67865SOL    HW1 5492  10.219   2.607   7.238
67865SOL    HW2 5493  10.279   2.476   7.191
67866SOL     OW 5494   5.768  14.416  13.394
67866SOL    HW1 5495   5.700  14.431  13.329
67866SOL    HW2 5496   5.850  14.429  13.346
67867SOL     OW 5497   5.280  14.254   3.251
67867SOL    HW1 5498   5.342  14.324   3.232
67867SOL    HW2 5499   5.291  14.235   3.344
67868SOL     OW 5500   2.197   7.869   0.580
67868SOL    HW1 5501   2.181   7.814   0.657
67868SOL    HW2 5502   2.287   7.850   0.556
67869SOL     OW 5503   5.865   1.137   5.937
67869SOL    HW1 5504   5.848   1.230   5.946
67869SOL    HW2 5505   5.940   1.131   5.878
67870SOL     OW 5506   0.236   2.171   3.887
67870SOL    HW1 5507   0.286   2.191   3.966
67870SOL    HW2 5508   0.298   2.184   3.816
67871SOL     OW 5509   9.160   8.671   9.688
67871SOL    HW1 5510   9.083   8.616   9.676
67871SOL    HW2 5511   9.203   8.672   9.603
67872SOL     OW 5512   6.462   8.789   9.074
67872SOL    HW1 5513   6.369   8.776   9.093
67872SOL    HW2 5514   6.488   8.712   9.023
67873SOL     OW 5515   4.260   8.178  13.029
67873SOL    HW1 5516   4.306   8.245  12.980
67873SOL    HW2 5517   4.175   8.170  12.985
67874SOL     OW 5518   2.647  13.310   1.164
67874SOL    HW1 5519   2.608  13.381   1.215
67874SOL    HW2 5520   2.600  13.311   1.081
67875SOL     OW 5521   2.541   5.059   5.298
67875SOL    HW1 5522   2.572   5.061   5.207
67875SOL    HW2 5523   2.608   5.008   5.344
67876SOL     OW 5524   2.801  11.050   8.559
67876SOL    HW1 5525   2.757  10.990   8.500
67876SOL    HW2 5526   2.812  11.001   8.640
67877SOL     OW 5527  12.202   8.594   0.829
67877SOL    HW1 5528  12.216   8.518   0.772
67877SOL    HW2 5529  12.209   8.559   0.917
67878SOL     OW 5530   1.285  12.183  10.848
67878SOL    HW1 5531   1.303  12.192  10.941
67878SOL    HW2 5532   1.190  12.172  10.842
67879SOL     OW 5533  12.721  11.039   4.316
67879SOL    HW1 5534  12.726  11.110   4.252
67879SOL    HW2 5535  12.687  10.965   4.267
67880SOL     OW 5536   2.620   6.570   0.325
67880SOL    HW1 5537   2.621   6.476   0.340
67880SOL    HW2 5538   2.611   6.609   0.412
67881SOL     OW 5539   5.758  10.116  13.310
67881SOL    HW1 5540   5.800  10.197  13.340
67881SOL    HW2 5541   5.715  10.141  13.228
67882SOL     OW 5542   8.399   4.261   3.399
67882SOL    HW1 5543   8.384   4.211   3.479
67882SOL    HW2 5544   8.485   4.231   3.369
67883SOL     OW 5545   7.120  13.723   0.734
67883SOL    HW1 5546   7.029  13.694   0.745
67883SOL    HW2 5547   7.112  13.813   0.701
67884SOL     OW 5548  14.642   7.180   6.090
67884SOL    HW1 5549  14.737   7.194   6.090
67884SOL    HW2 5550  14.631   7.087   6.069
67885SOL     OW 5551   5.001   7.786   6.180
67885SOL    HW1 5552   4.953   7.733   6.117
67885SOL    HW2 5553   5.067   7.726   6.215
67886SOL     OW 5554   7.443  13.341  10.287
67886SOL    HW1 5555   7.480  13.253  10.284
67886SOL    HW2 5556   7.454  13.369  10.378
67887SOL     OW 5557   0.267  13.205   5.829
67887SOL    HW1 5558   0.266  13.288   5.877
67887SOL    HW2 5559   0.184  13.203   5.782
67888SOL     OW 5560   4.015   7.829   5.644
67888SOL    HW1 5561   3.996   7.735   5.640
67888SOL    HW2 5562   4.111   7.834   5.639
67889SOL     OW 5563  10.725   4.732   6.720
67889SOL    HW1 5564  10.726   4.705   6.628
67889SOL    HW2 5565  10.659   4.676   6.761
67890SOL     OW 5566   8.967   0.027  14.344
67890SOL    HW1 5567   8.959   0.097  14.279
67890SOL    HW2 5568   8.946  14.819  14.296
67891SOL     OW 5569  14.452  13.990   8.831
67891SOL    HW1 5570  14.409  13.942   8.901
67891SOL    HW2 5571  14.545  13.970   8.842
67892SOL     OW 5572   1.027  12.458   8.135
67892SOL    HW1 5573   1.040  12.547   8.168
67892SOL    HW2 5574   1.022  12.403   8.213
67893SOL     OW 5575   3.643  11.380  12.069
67893SOL    HW1 5576   3.561  11.344  12.103
67893SOL    HW2 5577   3.618  11.421  11.986
67894SOL     OW 5578  11.632  13.419   3.390
67894SOL    HW1 5579  11.623  13.405   3.296
67894SOL    HW2 5580  11.619  13.332   3.428
67895SOL     OW 5581  11.172   4.263  12.194
67895SOL    HW1 5582  11.153   4.170  12.188
67895SOL    HW2 5583  11.231   4.272  12.269
67896SOL     OW 5584  13.294  11.791   3.036
67896SOL    HW1 5585  13.280  11.798   3.131
67896SOL    HW2 5586  13.237  11.857   2.998
67897SOL     OW 5587  13.913   2.905   3.276
67897SOL    HW1 5588  13.936   2.813   3.261
67897SOL    HW2 5589  13.843   2.901   3.341
67898SOL     OW 5590  11.773   1.967   2.504
67898SOL    HW1 5591  11.801   1.987   2.415
67898SOL    HW2 5592  11.723   1.886   2.496
67899SOL     OW 5593   2.966   2.150  12.064
67899SOL    HW1 5594   3.036   2.129  12.126
67899SOL    HW2 5595   2.893   2.096  12.093
67900SOL     OW 5596   0.136  11.012   5.539
67900SOL    HW1 5597   0.096  10.930   5.510
67900SOL    HW2 5598   0.173  10.992   5.625
67901SOL     OW 5599   7.313   9.384  13.603
67901SOL    HW1 5600   7.288   9.292  13.609
67901SOL    HW2 5601   7.242   9.425  13.555
67902SOL     OW 5602   6.820   7.446  14.651
67902SOL    HW1 5603   6.811   7.429  14.558
67902SOL    HW2 5604   6.742   7.495  14.675
67903SOL     OW 5605  13.322   8.873   1.789
67903SOL    HW1 5606  13.305   8.966   1.771
67903SOL    HW2 5607  13.302   8.829   1.707
67904SOL     OW 5608  14.342   3.584   0.277
67904SOL    HW1 5609  14.376   3.505   0.318
67904SOL    HW2 5610  14.247   3.576   0.284
67905SOL     OW 5611   0.260   5.346  10.455
67905SOL    HW1 5612   0.231   5.428  10.415
67905SOL    HW2 5613   0.291   5.292  10.382
67906SOL     OW 5614   0.352   8.859  14.009
67906SOL    HW1 5615   0.376   8.888  13.921
67906SOL    HW2 5616   0.424   8.802  14.036
67907SOL     OW 5617   1.294   6.535   2.125
67907SOL    HW1 5618   1.293   6.628   2.100
67907SOL    HW2 5619   1.337   6.533   2.210
67908SOL     OW 5620   7.850  11.163  12.948
67908SOL    HW1 5621   7.928  11.218  12.948
67908SOL    HW2 5622   7.796  11.196  13.019
67909SOL     OW 5623  12.415   8.945  12.350
67909SOL    HW1 5624  12.432   8.854  12.327
67909SOL    HW2 5625  12.372   8.941  12.435
67910SOL     OW 5626   2.361   8.360   7.235
67910SOL    HW1 5627   2.442   8.330   7.193
67910SOL    HW2 5628   2.293   8.300   7.204
67911SOL     OW 5629   1.257  10.233  12.898
67911SOL    HW1 5630   1.282  10.159  12.953
67911SOL    HW2 5631   1.202  10.195  12.829
67912SOL     OW 5632   3.349   7.532   8.227
67912SOL    HW1 5633   3.356   7.582   8.308
67912SOL    HW2 5634   3.255   7.516   8.217
67913SOL     OW 5635   3.214  12.651  13.412
67913SOL    HW1 5636   3.230  12.559  13.432
67913SOL    HW2 5637   3.263  12.667  13.331
67914SOL     OW 5638   8.389   9.981  12.795
67914SOL    HW1 5639   8.296   9.976  12.775
67914SOL    HW2 5640   8.399   9.930  12.875
67915SOL     OW 5641  14.454   0.959   6.576
67915SOL    HW1 5642  14.507   1.009   6.639
67915SOL    HW2 5643  14.450   1.015   6.498
67916SOL     OW 5644   2.256  10.161  10.013
67916SOL    HW1 5645   2.186  10.224   9.992
67916SOL    HW2 5646   2.317  10.169   9.940
67917SOL     OW 5647   8.510  10.870   7.130
67917SOL    HW1 5648   8.466  10.818   7.198
67917SOL    HW2 5649   8.594  10.827   7.118
67918SOL     OW 5650   1.153   1.654   4.269
67918SOL    HW1 5651   1.215   1.723   4.291
67918SOL    HW2 5652   1.100   1.644   4.349
67919SOL     OW 5653   3.165   0.297   0.006
67919SOL    HW1 5654   3.072   0.277   0.018
67919SOL    HW2 5655   3.194   0.331   0.090
67920SOL     OW 5656   0.227   1.037   1.892
67920SOL    HW1 5657   0.285   1.112   1.886
67920SOL    HW2 5658   0.182   1.048   1.976
67921SOL     OW 5659   2.941   0.421  13.266
67921SOL    HW1 5660   2.987   0.466  13.195
67921SOL    HW2 5661   2.850   0.417  13.237
67922SOL     OW 5662   7.504   6.418   0.201
67922SOL    HW1 5663   7.574   6.436   0.263
67922SOL    HW2 5664   7.424   6.446   0.246
67923SOL     OW 5665   5.830   0.124   8.140
67923SOL    HW1 5666   5.891   0.063   8.099
67923SOL    HW2 5667   5.834   0.203   8.085
67924SOL     OW 5668   1.155  10.334   8.529
67924SOL    HW1 5669   1.218  10.277   8.573
67924SOL    HW2 5670   1.085  10.276   8.501
67925SOL     OW 5671   6.136  14.467   6.179
67925SOL    HW1 5672   6.185  14.450   6.259
67925SOL    HW2 5673   6.150  14.560   6.161
67926SOL     OW 5674  10.731   1.282   8.235
67926SOL    HW1 5675  10.796   1.351   8.250
67926SOL    HW2 5676  10.747   1.253   8.146
67927SOL     OW 5677   0.054   7.070  10.627
67927SOL    HW1 5678   0.013   7.017  10.696
67927SOL    HW2 5679   0.004   7.152  10.627
67928SOL     OW 5680   1.667   9.475   1.348
67928SOL    HW1 5681   1.603   9.437   1.288
67928SOL    HW2 5682   1.683   9.563   1.315
67929SOL     OW 5683   0.024  10.554   4.630
67929SOL    HW1 5684   0.105  10.597   4.657
67929SOL    HW2 5685  14.842  10.554   4.708
67930SOL     OW 5686  10.982  12.353   2.962
67930SOL    HW1 5687  11.062  12.361   2.910
67930SOL    HW2 5688  10.984  12.263   2.995
67931SOL     OW 5689   3.853   9.669   8.302
67931SOL    HW1 5690   3.853   9.576   8.279
67931SOL    HW2 5691   3.826   9.714   8.221
67932SOL     OW 5692  11.063  14.430   9.254
67932SOL    HW1 5693  11.158  14.426   9.249
67932SOL    HW2 5694  11.034  14.434   9.163
67933SOL     OW 5695  11.247   1.553  13.540
67933SOL    HW1 5696  11.316   1.541  13.474
67933SOL    HW2 5697  11.252   1.473  13.593
67934SOL     OW 5698   6.368   7.500  11.368
67934SOL    HW1 5699   6.344   7.449  11.291
67934SOL    HW2 5700   6.293   7.491  11.427
67935SOL     OW 5701  10.093  14.472   2.717
67935SOL    HW1 5702  10.081  14.483   2.623
67935SOL    HW2 5703  10.012  14.504   2.756
67936SOL     OW 5704   9.395   4.655   2.296
67936SOL    HW1 5705   9.459   4.589   2.271
67936SOL    HW2 5706   9.411   4.671   2.389
67937SOL     OW 5707   0.486  11.717  13.950
67937SOL    HW1 5708   0.544  11.784  13.914
67937SOL    HW2 5709   0.409  11.765  13.979
67938SOL     OW 5710  11.753   4.274   5.779
67938SOL    HW1 5711  11.704   4.345   5.820
67938SOL    HW2 5712  11.736   4.198   5.836
67939SOL     OW 5713   5.263   2.995   6.208
67939SOL    HW1 5714   5.177   3.025   6.237
67939SOL    HW2 5715   5.272   2.907   6.245
67940SOL     OW 5716   7.366   0.988   1.838
67940SOL    HW1 5717   7.288   0.951   1.880
67940SOL    HW2 5718   7.428   1.001   1.909
67941SOL     OW 5719  11.404  12.153   8.389
67941SOL    HW1 5720  11.385  12.089   8.457
67941SOL    HW2 5721  11.403  12.238   8.434
67942SOL     OW 5722  12.037   0.739  11.156
67942SOL    HW1 5723  11.970   0.754  11.090
67942SOL    HW2 5724  12.067   0.826  11.180
67943SOL     OW 5725   2.546   4.710   3.861
67943SOL    HW1 5726   2.614   4.664   3.812
67943SOL    HW2 5727   2.578   4.711   3.951
67944SOL     OW 5728   5.232   8.889   8.653
67944SOL    HW1 5729   5.278   8.836   8.587
67944SOL    HW2 5730   5.258   8.979   8.632
67945SOL     OW 5731   9.147   5.695  14.339
67945SOL    HW1 5732   9.169   5.698  14.246
67945SOL    HW2 5733   9.101   5.612  14.351
67946SOL     OW 5734   0.466   1.734   9.269
67946SOL    HW1 5735   0.450   1.667   9.202
67946SOL    HW2 5736   0.538   1.698   9.322
67947SOL     OW 5737   0.124   7.179  13.030
67947SOL    HW1 5738   0.168   7.134  12.958
67947SOL    HW2 5739   0.037   7.140  13.034
67948SOL     OW 5740   8.979  12.584   0.986
67948SOL    HW1 5741   9.010  12.525   0.917
67948SOL    HW2 5742   8.958  12.526   1.059
67949SOL     OW 5743   4.610  13.163   7.196
67949SOL    HW1 5744   4.676  13.224   7.229
67949SOL    HW2 5745   4.607  13.094   7.262
67950SOL     OW 5746   4.485   0.859   7.332
67950SOL    HW1 5747   4.547   0.914   7.286
67950SOL    HW2 5748   4.411   0.917   7.352
67951SOL     OW 5749  12.107   6.824   7.545
67951SOL    HW1 5750  12.142   6.913   7.543
67951SOL    HW2 5751  12.139   6.783   7.465
67952SOL     OW 5752  10.662   2.315   3.927
67952SOL    HW1 5753  10.632   2.292   4.014
67952SOL    HW2 5754  10.588   2.294   3.869
67953SOL     OW 5755   4.949  13.816  12.709
67953SOL    HW1 5756   4.984  13.836  12.622
67953SOL    HW2 5757   4.856  13.836  12.702
67954SOL     OW 5758   3.708   9.685   6.498
67954SOL    HW1 5759   3.783   9.624   6.493
67954SOL    HW2 5760   3.695   9.699   6.592
67955SOL     OW 5761  14.581   2.781   9.870
67955SOL    HW1 5762  14.545   2.857   9.825
67955SOL    HW2 5763  14.673   2.777   9.841
67956SOL     OW 5764   6.007   7.396   7.269
67956SOL    HW1 5765   6.064   7.393   7.345
67956SOL    HW2 5766   6.064   7.420   7.196
67957SOL     OW 5767   5.076   1.600  11.609
67957SOL    HW1 5768   5.150   1.552  11.572
67957SOL    HW2 5769   5.000   1.565  11.563
67958SOL     OW 5770  11.126  12.263  11.577
67958SOL    HW1 5771  11.139  12.197  11.509
67958SOL    HW2 5772  11.214  12.292  11.601
67959SOL     OW 5773  11.090   4.189   6.136
67959SOL    HW1 5774  11.084   4.141   6.219
67959SOL    HW2 5775  11.090   4.281   6.161
67960SOL     OW 5776  13.118  11.222  10.726
67960SOL    HW1 5777  13.202  11.253  10.761
67960SOL    HW2 5778  13.085  11.296  10.675
67961SOL     OW 5779  12.028  13.625   9.468
67961SOL    HW1 5780  12.084  13.563   9.516
67961SOL    HW2 5781  11.940  13.590   9.477
67962SOL     OW 5782   7.635  10.688   1.785
67962SOL    HW1 5783   7.639  10.628   1.711
67962SOL    HW2 5784   7.592  10.767   1.750
67963SOL     OW 5785   7.773  12.274  12.040
67963SOL    HW1 5786   7.748  12.186  12.070
67963SOL    HW2 5787   7.788  12.323  12.121
67964SOL     OW 5788   3.527   4.974  10.948
67964SOL    HW1 5789   3.527   5.069  10.957
67964SOL    HW2 5790   3.446   4.946  10.991
67965SOL     OW 5791   7.184  11.089   2.589
67965SOL    HW1 5792   7.262  11.105   2.536
67965SOL    HW2 5793   7.186  10.995   2.609
67966SOL     OW 5794  14.750  12.353   6.019
67966SOL    HW1 5795  14.785  12.437   5.988
67966SOL    HW2 5796  14.661  12.350   5.984
67967SOL     OW 5797  14.429  14.268  13.295
67967SOL    HW1 5798  14.437  14.291  13.202
67967SOL    HW2 5799  14.519  14.246  13.321
67968SOL     OW 5800  11.791  14.059  13.037
67968SOL    HW1 5801  11.838  14.091  13.115
67968SOL    HW2 5802  11.752  13.976  13.066
67969SOL     OW 5803  12.003  12.696   9.354
67969SOL    HW1 5804  12.009  12.791   9.360
67969SOL    HW2 5805  11.965  12.679   9.268
67970SOL     OW 5806  14.579  12.247   5.774
67970SOL    HW1 5807  14.517  12.317   5.755
67970SOL    HW2 5808  14.665  12.284   5.755
67971SOL     OW 5809  12.044   9.857  10.186
67971SOL    HW1 5810  11.993   9.937  10.179
67971SOL    HW2 5811  12.109   9.875  10.253
67972SOL     OW 5812  10.556   5.951  13.076
67972SOL    HW1 5813  10.496   5.982  13.009
67972SOL    HW2 5814  10.597   6.031  13.110
67973SOL     OW 5815   2.352   6.359   4.310
67973SOL    HW1 5816   2.433   6.329   4.351
67973SOL    HW2 5817   2.283   6.310   4.353
67974SOL     OW 5818  11.712   9.659  14.372
67974SOL    HW1 5819  11.634   9.606  14.355
67974SOL    HW2 5820  11.714   9.722  14.299
67975SOL     OW 5821   5.883   8.975   6.149
67975SOL    HW1 5822   5.808   9.014   6.105
67975SOL    HW2 5823   5.848   8.899   6.195
67976SOL     OW 5824   4.867   5.663  10.407
67976SOL    HW1 5825   4.949   5.651  10.455
67976SOL    HW2 5826   4.852   5.757  10.409
67977SOL     OW 5827  11.893   3.075   1.845
67977SOL    HW1 5828  11.815   3.040   1.889
67977SOL    HW2 5829  11.878   3.169   1.841
67978SOL     OW 5830  13.575  14.195  10.795
67978SOL    HW1 5831  13.621  14.222  10.874
67978SOL    HW2 5832  13.632  14.130  10.754
67979SOL     OW 5833   2.632  11.990   5.809
67979SOL    HW1 5834   2.683  12.060   5.767
67979SOL    HW2 5835   2.663  11.910   5.767
67980SOL     OW 5836   1.265   8.933   4.668
67980SOL    HW1 5837   1.283   8.987   4.746
67980SOL    HW2 5838   1.266   8.843   4.700
67981SOL     OW 5839  14.726  10.193   4.464
67981SOL    HW1 5840  14.778  10.157   4.536
67981SOL    HW2 5841  14.789  10.209   4.394
67982SOL     OW 5842  14.695   5.803  13.882
67982SOL    HW1 5843  14.607   5.783  13.914
67982SOL    HW2 5844  14.748   5.812  13.961
67983SOL     OW 5845   3.819  12.051   1.775
67983SOL    HW1 5846   3.794  11.959   1.781
67983SOL    HW2 5847   3.760  12.096   1.836
67984SOL     OW 5848   8.087  13.444   2.000
67984SOL    HW1 5849   8.163  13.465   1.946
67984SOL    HW2 5850   8.095  13.503   2.076
67985SOL     OW 5851   7.873   8.352   4.508
67985SOL    HW1 5852   7.884   8.323   4.417
67985SOL    HW2 5853   7.788   8.316   4.533
67986SOL     OW 5854   2.979   4.941  11.493
67986SOL    HW1 5855   2.900   4.984  11.526
67986SOL    HW2 5856   3.006   4.996  11.419
67987SOL     OW 5857   1.518  13.467   7.958
67987SOL    HW1 5858   1.433  13.506   7.973
67987SOL    HW2 5859   1.500  13.392   7.901
67988SOL     OW 5860   3.003   5.813  10.671
67988SOL    HW1 5861   2.947   5.866  10.728
67988SOL    HW2 5862   2.942   5.758  10.623
67989SOL     OW 5863   8.659   3.892  14.151
67989SOL    HW1 5864   8.692   3.802  14.145
67989SOL    HW2 5865   8.586   3.886  14.212
67990SOL     OW 5866  13.639   6.677  13.197
67990SOL    HW1 5867  13.718   6.729  13.214
67990SOL    HW2 5868  13.650   6.645  13.108
67991SOL     OW 5869   8.192  11.228   1.939
67991SOL    HW1 5870   8.271  11.277   1.917
67991SOL    HW2 5871   8.120  11.286   1.917
67992SOL     OW 5872   4.597   9.964   2.236
67992SOL    HW1 5873   4.582   9.881   2.281
67992SOL    HW2 5874   4.598  10.029   2.307
67993SOL     OW 5875  13.915  10.854   2.989
67993SOL    HW1 5876  13.912  10.901   2.906
67993SOL    HW2 5877  13.994  10.799   2.982
67994SOL     OW 5878   1.104   4.320   3.544
67994SOL    HW1 5879   1.033   4.263   3.515
67994SOL    HW2 5880   1.063   4.406   3.552
67995SOL     OW 5881  13.073  10.265  10.318
67995SOL    HW1 5882  13.140  10.211  10.359
67995SOL    HW2 5883  13.070  10.345  10.370
67996SOL     OW 5884   8.135   1.307  12.070
67996SOL    HW1 5885   8.119   1.235  12.009
67996SOL    HW2 5886   8.164   1.379  12.015
67997SOL     OW 5887   9.159  10.647  14.393
67997SOL    HW1 5888   9.217  10.723  14.387
67997SOL    HW2 5889   9.198  10.583  14.334
67998SOL     OW 5890   7.976  11.481   9.338
67998SOL    HW1 5891   7.911  11.521   9.396
67998SOL    HW2 5892   7.929  11.410   9.294
67999SOL     OW 5893   4.191   3.863   7.438
67999SOL    HW1 5894   4.169   3.922   7.510
67999SOL    HW2 5895   4.157   3.908   7.360
68000SOL     OW 5896  12.680   8.755  13.252
68000SOL    HW1 5897  12.734   8.829  13.281
68000SOL    HW2 5898  12.605   8.756  13.312
68001SOL     OW 5899  11.810   3.359   9.304
68001SOL    HW1 5900  11.798   3.391   9.394
68001SOL    HW2 5901  11.722   3.363   9.266
68002SOL     OW 5902   6.684   1.114   0.516
68002SOL    HW1 5903   6.674   1.209   0.520
68002SOL    HW2 5904   6.778   1.099   0.525
68003SOL     OW 5905   9.948   2.845  13.358
68003SOL    HW1 5906   9.920   2.934  13.380
68003SOL    HW2 5907   9.882   2.813  13.297
68004SOL     OW 5908   9.527  14.185   5.657
68004SOL    HW1 5909   9.446  14.161   5.612
68004SOL    HW2 5910   9.551  14.270   5.619
68005SOL     OW 5911   4.533   0.819  11.027
68005SOL    HW1 5912   4.503   0.896  11.076
68005SOL    HW2 5913   4.599   0.854  10.967
68006SOL     OW 5914   6.691  11.435   8.106
68006SOL    HW1 5915   6.667  11.450   8.014
68006SOL    HW2 5916   6.698  11.340   8.114
68007SOL     OW 5917   2.844  14.007  10.413
68007SOL    HW1 5918   2.806  13.978  10.496
68007SOL    HW2 5919   2.857  13.926  10.363
68008SOL     OW 5920   8.496   2.396   6.362
68008SOL    HW1 5921   8.405   2.420   6.382
68008SOL    HW2 5922   8.547   2.471   6.390
68009SOL     OW 5923   6.462   8.243   2.839
68009SOL    HW1 5924   6.427   8.308   2.778
68009SOL    HW2 5925   6.548   8.221   2.803
68010SOL     OW 5926   3.848   0.090   6.928
68010SOL    HW1 5927   3.864   0.107   7.020
68010SOL    HW2 5928   3.797   0.165   6.898
68011SOL     OW 5929  13.505   0.187   2.412
68011SOL    HW1 5930  13.518   0.227   2.498
68011SOL    HW2 5931  13.571   0.228   2.356
68012SOL     OW 5932  11.352   3.602   7.940
68012SOL    HW1 5933  11.263   3.584   7.969
68012SOL    HW2 5934  11.353   3.577   7.848
68013SOL     OW 5935   9.543   1.179   2.240
68013SOL    HW1 5936   9.631   1.142   2.238
68013SOL    HW2 5937   9.545   1.251   2.177
68014SOL     OW 5938  14.053   3.238   6.363
68014SOL    HW1 5939  14.113   3.182   6.315
68014SOL    HW2 5940  14.003   3.178   6.419
68015SOL     OW 5941  12.164   7.387   2.016
68015SOL    HW1 5942  12.241   7.331   2.017
68015SOL    HW2 5943  12.093   7.330   1.986
68016SOL     OW 5944  14.829  14.671  14.152
68016SOL    HW1 5945   0.038  14.694  14.197
68016SOL    HW2 5946  14.771  14.746  14.169
68017SOL     OW 5947   9.867   1.684   5.454
68017SOL    HW1 5948   9.827   1.603   5.420
68017SOL    HW2 5949   9.828   1.694   5.541
68018SOL     OW 5950   2.235   9.274   7.772
68018SOL    HW1 5951   2.202   9.214   7.839
68018SOL    HW2 5952   2.284   9.340   7.821
68019SOL     OW 5953   9.732   4.257   0.027
68019SOL    HW1 5954   9.766   4.345   0.041
68019SOL    HW2 5955   9.788   4.220  14.831
68020SOL     OW 5956   1.521   4.574  14.791
68020SOL    HW1 5957   1.466   4.647  14.763
68020SOL    HW2 5958   1.546   4.531  14.710
68021SOL     OW 5959   2.843  10.045   5.356
68021SOL    HW1 5960   2.790  10.093   5.420
68021SOL    HW2 5961   2.897  10.112   5.314
68022SOL     OW 5962  14.408   9.863   6.305
68022SOL    HW1 5963  14.491   9.842   6.349
68022SOL    HW2 5964  14.417   9.823   6.218
68023SOL     OW 5965   8.614   6.440  10.879
68023SOL    HW1 5966   8.559   6.407  10.950
68023SOL    HW2 5967   8.669   6.366  10.855
68024SOL     OW 5968  11.748   1.601   1.381
68024SOL    HW1 5969  11.777   1.622   1.292
68024SOL    HW2 5970  11.757   1.684   1.429
68025SOL     OW 5971  11.426   3.163  14.225
68025SOL    HW1 5972  11.409   3.105  14.299
68025SOL    HW2 5973  11.369   3.238  14.241
68026SOL     OW 5974   6.522   5.000   3.171
68026SOL    HW1 5975   6.433   5.006   3.136
68026SOL    HW2 5976   6.553   4.914   3.142
68027SOL     OW 5977   6.893   0.652   8.749
68027SOL    HW1 5978   6.947   0.619   8.821
68027SOL    HW2 5979   6.941   0.728   8.716
68028SOL     OW 5980  13.130   0.411   8.873
68028SOL    HW1 5981  13.192   0.403   8.945
68028SOL    HW2 5982  13.072   0.483   8.899
68029SOL     OW 5983   6.539  11.793   6.109
68029SOL    HW1 5984   6.497  11.864   6.157
68029SOL    HW2 5985   6.495  11.714   6.140
68030SOL     OW 5986   6.681   2.035   9.591
68030SOL    HW1 5987   6.773   2.008   9.587
68030SOL    HW2 5988   6.681   2.111   9.649
68031SOL     OW 5989  10.300  13.307   1.937
68031SOL    HW1 5990  10.229  13.366   1.961
68031SOL    HW2 5991  10.332  13.341   1.853
68032SOL     OW 5992   2.071   8.762  14.794
68032SOL    HW1 5993   1.993   8.707  14.807
68032SOL    HW2 5994   2.091   8.752  14.700
68033SOL     OW 5995   0.387   9.403  11.121
68033SOL    HW1 5996   0.460   9.400  11.059
68033SOL    HW2 5997   0.389   9.319  11.166
68034SOL     OW 5998   2.006  12.612   3.053
68034SOL    HW1 5999   2.085  12.602   3.000
68034SOL    HW2 6000   1.960  12.686   3.013
68035SOL     OW 6001  14.296   7.610  12.417
68035SOL    HW1 6002  14.255   7.524  12.422
68035SOL    HW2 6003  14.387   7.592  12.394
68036SOL     OW 6004   3.127   4.505  11.686
68036SOL    HW1 6005   3.143   4.529  11.777
68036SOL    HW2 6006   3.121   4.589  11.640
68037SOL     OW 6007   3.556  12.824  14.522
68037SOL    HW1 6008   3.528  12.735  14.503
68037SOL    HW2 6009   3.647  12.828  14.493
68038SOL     OW 6010   5.451   5.478  14.871
68038SOL    HW1 6011   5.404   5.430  14.803
68038SOL    HW2 6012   5.450   5.569  14.841
68039SOL     OW 6013  14.251   3.803   6.135
68039SOL    HW1 6014  14.240   3.859   6.212
68039SOL    HW2 6015  14.163   3.796   6.098
68040SOL     OW 6016  13.626   4.019  14.487
68040SOL    HW1 6017  13.674   4.004  14.569
68040SOL    HW2 6018  13.566   4.090  14.507
68041SOL     OW 6019   0.779  10.770   1.775
68041SOL    HW1 6020   0.824  10.687   1.793
68041SOL    HW2 6021   0.697  10.764   1.824
68042SOL     OW 6022   7.430  14.131  14.514
68042SOL    HW1 6023   7.407  14.060  14.454
68042SOL    HW2 6024   7.526  14.133  14.513
68043SOL     OW 6025  10.557   4.946   6.727
68043SOL    HW1 6026  10.575   4.852   6.726
68043SOL    HW2 6027  10.509   4.962   6.646
68044SOL     OW 6028   9.025   2.239  11.734
68044SOL    HW1 6029   9.030   2.211  11.642
68044SOL    HW2 6030   9.088   2.310  11.741
68045SOL     OW 6031  13.998  10.076   3.968
68045SOL    HW1 6032  14.079  10.067   4.017
68045SOL    HW2 6033  14.022  10.052   3.878
68046SOL     OW 6034  10.594  10.243   5.332
68046SOL    HW1 6035  10.600  10.167   5.274
68046SOL    HW2 6036  10.616  10.209   5.419
68047SOL     OW 6037   3.878   0.519  13.703
68047SOL    HW1 6038   3.873   0.478  13.617
68047SOL    HW2 6039   3.965   0.496  13.736
68048SOL     OW 6040   0.336   3.636   1.729
68048SOL    HW1 6041   0.307   3.671   1.813
68048SOL    HW2 6042   0.426   3.668   1.720
68049SOL     OW 6043  12.774  14.470   5.793
68049SOL    HW1 6044  12.761  14.376   5.804
68049SOL    HW2 6045  12.844  14.477   5.729
68050SOL     OW 6046  12.829   9.595   4.980
68050SOL    HW1 6047  12.861   9.636   4.900
68050SOL    HW2 6048  12.752   9.646   5.005
68051SOL     OW 6049   0.792  13.415  14.078
68051SOL    HW1 6050   0.837  13.349  14.130
68051SOL    HW2 6051   0.747  13.470  14.142
68052SOL     OW 6052  12.032   5.269   5.522
68052SOL    HW1 6053  12.042   5.245   5.430
68052SOL    HW2 6054  11.942   5.244   5.544
68053SOL     OW 6055   9.168   9.387  11.861
68053SOL    HW1 6056   9.089   9.409  11.811
68053SOL    HW2 6057   9.136   9.379  11.951
68054SOL     OW 6058   0.533  14.469   4.836
68054SOL    HW1 6059   0.581  14.449   4.756
68054SOL    HW2 6060   0.589  14.436   4.907
68055SOL     OW 6061   0.496   3.796   1.061
68055SOL    HW1 6062   0.483   3.716   1.009
68055SOL    HW2 6063   0.589   3.815   1.052
68056SOL     OW 6064   1.936  10.965  14.330
68056SOL    HW1 6065   1.898  11.025  14.266
68056SOL    HW2 6066   2.030  10.972  14.317
68057SOL     OW 6067   1.504   3.216   3.049
68057SOL    HW1 6068   1.523   3.285   2.986
68057SOL    HW2 6069   1.536   3.136   3.007
68058SOL     OW 6070  13.442   0.650  14.468
68058SOL    HW1 6071  13.393   0.680  14.545
68058SOL    HW2 6072  13.496   0.578  14.500
68059SOL     OW 6073   9.668  14.116   5.921
68059SOL    HW1 6074   9.713  14.153   5.846
68059SOL    HW2 6075   9.646  14.026   5.894
68060SOL     OW 6076   1.138   4.902   1.777
68060SOL    HW1 6077   1.043   4.919   1.773
68060SOL    HW2 6078   1.174   4.955   1.707
68061SOL     OW 6079  12.949   8.013  12.844
68061SOL    HW1 6080  12.981   8.021  12.754
68061SOL    HW2 6081  12.886   7.940  12.841
68062SOL     OW 6082   3.760   4.057   3.780
68062SOL    HW1 6083   3.742   4.114   3.854
68062SOL    HW2 6084   3.844   4.017   3.800
68063SOL     OW 6085   5.183   4.448   3.890
68063SOL    HW1 6086   5.239   4.481   3.960
68063SOL    HW2 6087   5.244   4.414   3.825
68064SOL     OW 6088   9.060   3.364  10.458
68064SOL    HW1 6089   9.117   3.439  10.474
68064SOL    HW2 6090   9.084   3.335  10.370
68065SOL     OW 6091  12.635   5.427   3.375
68065SOL    HW1 6092  12.723   5.392   3.387
68065SOL    HW2 6093  12.612   5.406   3.285
68066SOL     OW 6094   2.318  11.935  12.716
68066SOL    HW1 6095   2.362  12.007  12.671
68066SOL    HW2 6096   2.273  11.977  12.790
68067SOL     OW 6097   9.878   4.847  10.634
68067SOL    HW1 6098   9.928   4.921  10.667
68067SOL    HW2 6099   9.901   4.843  10.541
68068SOL     OW 6100   9.125   4.814   3.680
68068SOL    HW1 6101   9.217   4.787   3.679
68068SOL    HW2 6102   9.111   4.854   3.594
68069SOL     OW 6103  14.594   3.796   0.904
68069SOL    HW1 6104  14.623   3.761   0.820
68069SOL    HW2 6105  14.627   3.886   0.906
68070SOL     OW 6106   9.900   2.985   5.022
68070SOL    HW1 6107   9.861   3.029   5.098
68070SOL    HW2 6108   9.827   2.938   4.982
68071SOL     OW 6109   0.202   7.838   0.722
68071SOL    HW1 6110   0.118   7.791   0.726
68071SOL    HW2 6111   0.266   7.775   0.755
68072SOL     OW 6112   6.758   7.214  10.202
68072SOL    HW1 6113   6.789   7.172  10.282
68072SOL    HW2 6114   6.734   7.140  10.145
68073SOL     OW 6115  12.751   6.257  12.350
68073SOL    HW1 6116  12.752   6.300  12.435
68073SOL    HW2 6117  12.660   6.261  12.321
68074SOL     OW 6118   4.806   3.569   4.748
68074SOL    HW1 6119   4.803   3.528   4.835
68074SOL    HW2 6120   4.880   3.526   4.705
68075SOL     OW 6121   7.124   3.328  12.296
68075SOL    HW1 6122   7.148   3.347  12.386
68075SOL    HW2 6123   7.192   3.269  12.264
68076SOL     OW 6124  14.290   9.862   8.282
68076SOL    HW1 6125  14.375   9.830   8.315
68076SOL    HW2 6126  14.294   9.846   8.188
68077SOL     OW 6127  13.913   0.407  13.276
68077SOL    HW1 6128  13.926   0.317  13.244
68077SOL    HW2 6129  13.985   0.420  13.337
68078SOL     OW 6130  12.219   4.449   7.939
68078SOL    HW1 6131  12.166   4.376   7.970
68078SOL    HW2 6132  12.156   4.518   7.918
68079SOL     OW 6133  13.105   1.092  10.404
68079SOL    HW1 6134  13.130   1.002  10.424
68079SOL    HW2 6135  13.051   1.085  10.325
68080SOL     OW 6136  14.283   9.198   0.904
68080SOL    HW1 6137  14.369   9.170   0.874
68080SOL    HW2 6138  14.225   9.127   0.877
68081SOL     OW 6139  14.168  13.701   1.525
68081SOL    HW1 6140  14.195  13.610   1.512
68081SOL    HW2 6141  14.142  13.731   1.438
68082SOL     OW 6142   5.464   9.129  14.089
68082SOL    HW1 6143   5.552   9.092  14.082
68082SOL    HW2 6144   5.408   9.054  14.109
68083SOL     OW 6145   4.581  12.205   2.632
68083SOL    HW1 6146   4.605  12.119   2.597
68083SOL    HW2 6147   4.582  12.263   2.556
68084SOL     OW 6148  11.511   4.888   5.078
68084SOL    HW1 6149  11.600   4.863   5.102
68084SOL    HW2 6150  11.455   4.831   5.130
68085SOL     OW 6151  13.638   6.223  12.790
68085SOL    HW1 6152  13.608   6.183  12.872
68085SOL    HW2 6153  13.650   6.148  12.731
68086SOL     OW 6154  14.099   9.687  10.253
68086SOL    HW1 6155  14.007   9.708  10.242
68086SOL    HW2 6156  14.136   9.688  10.165
68087SOL     OW 6157   1.999   2.901   3.902
68087SOL    HW1 6158   2.052   2.970   3.942
68087SOL    HW2 6159   2.009   2.826   3.961
68088SOL     OW 6160   5.422   1.469  14.006
68088SOL    HW1 6161   5.462   1.531  13.944
68088SOL    HW2 6162   5.356   1.520  14.052
68089SOL     OW 6163   3.113  14.687  10.776
68089SOL    HW1 6164   3.141  14.602  10.808
68089SOL    HW2 6165   3.029  14.703  10.819
68090SOL     OW 6166   7.099  12.260  13.548
68090SOL    HW1 6167   7.098  12.340  13.600
68090SOL    HW2 6168   7.069  12.287  13.461
68091SOL     OW 6169   3.966   7.127  13.090
68091SOL    HW1 6170   3.934   7.048  13.132
68091SOL    HW2 6171   4.059   7.131  13.114
68092SOL     OW 6172   8.441  12.539   6.667
68092SOL    HW1 6173   8.462  12.469   6.605
68092SOL    HW2 6174   8.373  12.503   6.722
68093SOL     OW 6175   7.495   7.551   7.936
68093SOL    HW1 6176   7.418   7.559   7.991
68093SOL    HW2 6177   7.462   7.513   7.854
68094SOL     OW 6178   7.917  11.020  12.288
68094SOL    HW1 6179   7.827  11.034  12.318
68094SOL    HW2 6180   7.919  11.055  12.199
68095SOL     OW 6181   3.091   4.272   4.172
68095SOL    HW1 6182   3.086   4.251   4.079
68095SOL    HW2 6183   3.025   4.215   4.213
68096SOL     OW 6184   2.730   3.508   1.061
68096SOL    HW1 6185   2.701   3.532   1.149
68096SOL    HW2 6186   2.684   3.570   1.004
68097SOL     OW 6187   8.253   4.171  14.117
68097SOL    HW1 6188   8.286   4.256  14.088
68097SOL    HW2 6189   8.289   4.159  14.204
68098SOL     OW 6190  10.263   5.016   4.480
68098SOL    HW1 6191  10.335   5.057   4.528
68098SOL    HW2 6192  10.203   5.087   4.459
68099SOL     OW 6193   1.170   6.372   0.285
68099SOL    HW1 6194   1.121   6.399   0.362
68099SOL    HW2 6195   1.253   6.339   0.320
68100SOL     OW 6196   8.418   4.620   9.444
68100SOL    HW1 6197   8.452   4.706   9.467
68100SOL    HW2 6198   8.423   4.569   9.525
68101SOL     OW 6199   6.668  12.407   0.988
68101SOL    HW1 6200   6.651  12.486   1.039
68101SOL    HW2 6201   6.759  12.385   1.008
68102SOL     OW 6202   5.108   0.828  12.125
68102SOL    HW1 6203   5.111   0.875  12.208
68102SOL    HW2 6204   5.137   0.891  12.060
68103SOL     OW 6205   6.716   4.588  10.025
68103SOL    HW1 6206   6.678   4.612   9.940
68103SOL    HW2 6207   6.738   4.495  10.016
68104SOL     OW 6208  14.597   3.863  11.589
68104SOL    HW1 6209  14.655   3.828  11.656
68104SOL    HW2 6210  14.622   3.816  11.509
68105SOL     OW 6211  10.543  10.120   1.676
68105SOL    HW1 6212  10.616  10.100   1.616
68105SOL    HW2 6213  10.508  10.034   1.700
68106SOL     OW 6214   3.062  11.565   5.912
68106SOL    HW1 6215   2.981  11.545   5.865
68106SOL    HW2 6216   3.131  11.525   5.859
68107SOL     OW 6217  14.174   1.770   4.031
68107SOL    HW1 6218  14.184   1.817   3.948
68107SOL    HW2 6219  14.124   1.692   4.009
68108SOL     OW 6220  10.812   0.350   7.859
68108SOL    HW1 6221  10.900   0.366   7.827
68108SOL    HW2 6222  10.818   0.363   7.954
68109SOL     OW 6223   0.452   7.310  14.080
68109SOL    HW1 6224   0.508   7.378  14.116
68109SOL    HW2 6225   0.512   7.248  14.039
68110SOL     OW 6226   3.777   4.764   0.072
68110SOL    HW1 6227   3.836   4.705   0.025
68110SOL    HW2 6228   3.774   4.729   0.161
68111SOL     OW 6229   3.639  11.988   4.983
68111SOL    HW1 6230   3.566  11.933   4.955
68111SOL    HW2 6231   3.599  12.054   5.039
68112SOL     OW 6232  12.628   0.635  11.111
68112SOL    HW1 6233  12.537   0.657  11.130
68112SOL    HW2 6234  12.662   0.711  11.064
68113SOL     OW 6235   5.434   2.944   6.533
68113SOL    HW1 6236   5.517   2.990   6.516
68113SOL    HW2 6237   5.408   2.910   6.448
68114SOL     OW 6238   8.864   1.280   1.466
68114SOL    HW1 6239   8.797   1.308   1.403
68114SOL    HW2 6240   8.939   1.256   1.412
68115SOL     OW 6241   2.579  11.993   3.532
68115SOL    HW1 6242   2.591  11.988   3.627
68115SOL    HW2 6243   2.628  11.919   3.497
68116SOL     OW 6244  13.350   4.494  11.262
68116SOL    HW1 6245  13.423   4.540  11.221
68116SOL    HW2 6246  13.340   4.536  11.348
68117SOL     OW 6247  11.879  10.822   6.982
68117SOL    HW1 6248  11.916  10.792   6.899
68117SOL    HW2 6249  11.797  10.774   6.990
68118SOL     OW 6250   2.976  10.782  12.309
68118SOL    HW1 6251   2.899  10.825  12.271
68118SOL    HW2 6252   2.970  10.800  12.402
68119SOL     OW 6253  13.629  12.124   4.347
68119SOL    HW1 6254  13.656  12.215   4.344
68119SOL    HW2 6255  13.711  12.074   4.344
68120SOL     OW 6256  13.115  13.915   6.674
68120SOL    HW1 6257  13.171  13.841   6.651
68120SOL    HW2 6258  13.143  13.985   6.615
68121SOL     OW 6259  10.054  10.065   0.857
68121SOL    HW1 6260  10.052  10.094   0.948
68121SOL    HW2 6261  10.086   9.975   0.861
68122SOL     OW 6262   2.175   9.278   9.965
68122SOL    HW1 6263   2.179   9.345  10.033
68122SOL    HW2 6264   2.244   9.302   9.903
68123SOL     OW 6265  10.269   9.530   2.931
68123SOL    HW1 6266  10.350   9.579   2.944
68123SOL    HW2 6267  10.201   9.597   2.924
68124SOL     OW 6268  11.713   4.325   1.698
68124SOL    HW1 6269  11.779   4.393   1.707
68124SOL    HW2 6270  11.646   4.348   1.763
68125SOL     OW 6271   4.057   3.052   3.654
68125SOL    HW1 6272   3.996   3.049   3.728
68125SOL    HW2 6273   4.006   3.088   3.582
68126SOL     OW 6274   9.875   3.377  13.010
68126SOL    HW1 6275   9.884   3.306  13.074
68126SOL    HW2 6276   9.792   3.358  12.965
68127SOL     OW 6277   3.454   1.451  13.471
68127SOL    HW1 6278   3.419   1.364  13.488
68127SOL    HW2 6279   3.445   1.498  13.554
68128SOL     OW 6280   9.996  14.471   7.761
68128SOL    HW1 6281  10.084  14.509   7.756
68128SOL    HW2 6282   9.971  14.480   7.853
68129SOL     OW 6283   1.066  10.537   1.475
68129SOL    HW1 6284   1.083  10.487   1.395
68129SOL    HW2 6285   0.984  10.500   1.509
68130SOL     OW 6286   3.402   8.946   9.968
68130SOL    HW1 6287   3.486   8.902   9.983
68130SOL    HW2 6288   3.340   8.899  10.023
68131SOL     OW 6289   3.470  10.271  11.528
68131SOL    HW1 6290   3.491  10.364  11.533
68131SOL    HW2 6291   3.441  10.248  11.616
68132SOL     OW 6292   8.788  13.996   0.596
68132SOL    HW1 6293   8.860  14.023   0.653
68132SOL    HW2 6294   8.820  14.011   0.507
68133SOL     OW 6295  12.994   1.407   4.552
68133SOL    HW1 6296  12.918   1.352   4.573
68133SOL    HW2 6297  12.987   1.482   4.611
68134SOL     OW 6298   9.196  13.444   9.671
68134SOL    HW1 6299   9.156  13.512   9.724
68134SOL    HW2 6300   9.154  13.363   9.700
68135SOL     OW 6301  11.185   8.538  14.146
68135SOL    HW1 6302  11.164   8.551  14.239
68135SOL    HW2 6303  11.127   8.599  14.100
68136SOL     OW 6304   5.743   3.624   9.208
68136SOL    HW1 6305   5.825   3.635   9.254
68136SOL    HW2 6306   5.677   3.612   9.277
68137SOL     OW 6307   9.854   9.251   2.802
68137SOL    HW1 6308   9.824   9.160   2.799
68137SOL    HW2 6309   9.899   9.264   2.719
68138SOL     OW 6310   1.686   2.383   7.843
68138SOL    HW1 6311   1.603   2.372   7.889
68138SOL    HW2 6312   1.685   2.473   7.811
68139SOL     OW 6313   3.170   2.069   0.385
68139SOL    HW1 6314   3.121   2.005   0.333
68139SOL    HW2 6315   3.260   2.061   0.353
68140SOL     OW 6316   4.451   0.845   2.544
68140SOL    HW1 6317   4.438   0.797   2.626
68140SOL    HW2 6318   4.405   0.928   2.558
68141SOL     OW 6319   1.500   6.521   8.611
68141SOL    HW1 6320   1.532   6.573   8.686
68141SOL    HW2 6321   1.580   6.490   8.568
68142SOL     OW 6322   8.649  13.890   2.864
68142SOL    HW1 6323   8.615  13.979   2.872
68142SOL    HW2 6324   8.696  13.889   2.781
68143SOL     OW 6325   0.709   9.503   9.708
68143SOL    HW1 6326   0.673   9.448   9.778
68143SOL    HW2 6327   0.802   9.480   9.706
68144SOL     OW 6328   9.278  11.678  14.315
68144SOL    HW1 6329   9.324  11.734  14.377
68144SOL    HW2 6330   9.191  11.717  14.307
68145SOL     OW 6331   4.123  14.082   5.468
68145SOL    HW1 6332   4.173  14.164   5.467
68145SOL    HW2 6333   4.031  14.110   5.468
68146SOL     OW 6334   3.076   7.941  10.959
68146SOL    HW1 6335   2.991   7.986  10.956
68146SOL    HW2 6336   3.066   7.874  11.027
68147SOL     OW 6337  11.482   8.211   2.403
68147SOL    HW1 6338  11.477   8.116   2.411
68147SOL    HW2 6339  11.441   8.245   2.482
68148SOL     OW 6340   8.148  10.965   9.115
68148SOL    HW1 6341   8.073  10.906   9.115
68148SOL    HW2 6342   8.219  10.913   9.154
68149SOL     OW 6343  11.973   4.838   7.223
68149SOL    HW1 6344  12.027   4.917   7.220
68149SOL    HW2 6345  12.029   4.769   7.187
68150SOL     OW 6346  14.858   0.135  10.321
68150SOL    HW1 6347  14.849   0.109  10.229
68150SOL    HW2 6348  14.769   0.129  10.356
68151SOL     OW 6349   2.980   5.042   1.874
68151SOL    HW1 6350   2.957   5.094   1.797
68151SOL    HW2 6351   2.960   4.952   1.849
68152SOL     OW 6352   0.519   1.961   4.359
68152SOL    HW1 6353   0.436   1.940   4.401
68152SOL    HW2 6354   0.542   1.881   4.311
68153SOL     OW 6355  14.235   9.680   4.420
68153SOL    HW1 6356  14.295   9.720   4.357
68153SOL    HW2 6357  14.164   9.744   4.430
68154SOL     OW 6358   3.215   2.369   2.505
68154SOL    HW1 6359   3.155   2.398   2.574
68154SOL    HW2 6360   3.217   2.274   2.513
68155SOL     OW 6361   8.466   7.124  11.720
68155SOL    HW1 6362   8.541   7.133  11.662
68155SOL    HW2 6363   8.391   7.150  11.666
68156SOL     OW 6364   0.684   3.459   9.792
68156SOL    HW1 6365   0.774   3.488   9.777
68156SOL    HW2 6366   0.640   3.537   9.826
68157SOL     OW 6367  11.425   7.182  12.525
68157SOL    HW1 6368  11.433   7.277  12.522
68157SOL    HW2 6369  11.370   7.164  12.601
68158SOL     OW 6370   1.773   3.765  12.922
68158SOL    HW1 6371   1.831   3.752  12.997
68158SOL    HW2 6372   1.691   3.721  12.947
68159SOL     OW 6373   1.474  13.066  13.901
68159SOL    HW1 6374   1.569  13.067  13.888
68159SOL    HW2 6375   1.441  13.009  13.832
68160SOL     OW 6376   7.182   2.479   1.737
68160SOL    HW1 6377   7.205   2.484   1.644
68160SOL    HW2 6378   7.110   2.541   1.747
68161SOL     OW 6379  11.271   2.921  12.753
68161SOL    HW1 6380  11.223   2.999  12.723
68161SOL    HW2 6381  11.362   2.948  12.755
68162SOL     OW 6382  14.181   4.109  11.343
68162SOL    HW1 6383  14.270   4.087  11.371
68162SOL    HW2 6384  14.134   4.026  11.347
68163SOL     OW 6385   2.176   8.582   6.298
68163SOL    HW1 6386   2.094   8.550   6.337
68163SOL    HW2 6387   2.237   8.586   6.371
68164SOL     OW 6388   9.857  14.162   5.146
68164SOL    HW1 6389   9.820  14.200   5.226
68164SOL    HW2 6390   9.949  14.146   5.169
68165SOL     OW 6391   5.186   4.641  12.945
68165SOL    HW1 6392   5.132   4.571  12.907
68165SOL    HW2 6393   5.234   4.599  13.016
68166SOL     OW 6394  14.437   1.264   9.600
68166SOL    HW1 6395  14.450   1.169   9.590
68166SOL    HW2 6396  14.501   1.303   9.540
68167SOL     OW 6397   9.622   4.411   3.382
68167SOL    HW1 6398   9.552   4.476   3.379
68167SOL    HW2 6399   9.702   4.463   3.376
68168SOL     OW 6400   6.434   8.483   5.964
68168SOL    HW1 6401   6.397   8.465   6.051
68168SOL    HW2 6402   6.361   8.467   5.904
68169SOL     OW 6403   4.641  13.912  10.859
68169SOL    HW1 6404   4.652  14.007  10.845
68169SOL    HW2 6405   4.613  13.904  10.950
68170SOL     OW 6406   7.308  14.336   0.820
68170SOL    HW1 6407   7.353  14.337   0.904
68170SOL    HW2 6408   7.374  14.363   0.756
68171SOL     OW 6409   2.928  14.147   1.924
68171SOL    HW1 6410   2.861  14.100   1.874
68171SOL    HW2 6411   2.880  14.218   1.967
68172SOL     OW 6412   9.261   1.243   2.980
68172SOL    HW1 6413   9.319   1.207   2.913
68172SOL    HW2 6414   9.188   1.182   2.983
68173SOL     OW 6415   8.633  12.311   2.461
68173SOL    HW1 6416   8.583  12.379   2.506
68173SOL    HW2 6417   8.677  12.358   2.390
68174SOL     OW 6418   0.837   7.793   9.909
68174SOL    HW1 6419   0.777   7.717   9.909
68174SOL    HW2 6420   0.910   7.765   9.964
68175SOL     OW 6421  13.136   0.582   9.971
68175SOL    HW1 6422  13.199   0.518   9.940
68175SOL    HW2 6423  13.183   0.632  10.037
68176SOL     OW 6424  12.173   5.169   1.994
68176SOL    HW1 6425  12.211   5.242   2.042
68176SOL    HW2 6426  12.173   5.096   2.056
68177SOL     OW 6427   8.292   5.996   9.342
68177SOL    HW1 6428   8.259   5.909   9.365
68177SOL    HW2 6429   8.267   6.007   9.250
68178SOL     OW 6430   8.725   8.867   7.969
68178SOL    HW1 6431   8.751   8.799   8.031
68178SOL    HW2 6432   8.710   8.945   8.023
68179SOL     OW 6433   8.387   3.639   4.170
68179SOL    HW1 6434   8.386   3.724   4.127
68179SOL    HW2 6435   8.304   3.599   4.146
68180SOL     OW 6436   5.864  14.361   6.198
68180SOL    HW1 6437   5.956  14.370   6.174
68180SOL    HW2 6438   5.845  14.268   6.185
68181SOL     OW 6439  12.955   1.768   1.909
68181SOL    HW1 6440  12.864   1.740   1.902
68181SOL    HW2 6441  12.973   1.768   2.003
68182SOL     OW 6442  10.983  10.929  13.600
68182SOL    HW1 6443  11.074  10.942  13.575
68182SOL    HW2 6444  10.951  10.861  13.541
68183SOL     OW 6445  11.891  12.910   6.680
68183SOL    HW1 6446  11.839  12.954   6.747
68183SOL    HW2 6447  11.886  12.967   6.604
68184SOL     OW 6448  10.792   1.769   5.396
68184SOL    HW1 6449  10.732   1.744   5.466
68184SOL    HW2 6450  10.821   1.686   5.358
68185SOL     OW 6451  12.256  13.016   5.685
68185SOL    HW1 6452  12.255  12.954   5.612
68185SOL    HW2 6453  12.309  12.975   5.752
68186SOL     OW 6454  11.546   6.124  11.012
68186SOL    HW1 6455  11.482   6.096  11.078
68186SOL    HW2 6456  11.540   6.058  10.943
68187SOL     OW 6457   5.913   8.727   7.808
68187SOL    HW1 6458   5.945   8.639   7.828
68187SOL    HW2 6459   5.974   8.760   7.742
68188SOL     OW 6460   0.383   7.073   3.450
68188SOL    HW1 6461   0.358   7.006   3.514
68188SOL    HW2 6462   0.305   7.083   3.395
68189SOL     OW 6463   1.347   4.332   8.472
68189SOL    HW1 6464   1.415   4.267   8.490
68189SOL    HW2 6465   1.336   4.378   8.555
68190SOL     OW 6466   4.869  12.453  13.282
68190SOL    HW1 6467   4.801  12.420  13.223
68190SOL    HW2 6468   4.888  12.540  13.248
68191SOL     OW 6469   9.710   0.102  11.781
68191SOL    HW1 6470   9.634   0.043  11.778
68191SOL    HW2 6471   9.786   0.044  11.779
68192SOL     OW 6472   6.311   9.541  11.047
68192SOL    HW1 6473   6.354   9.502  10.971
68192SOL    HW2 6474   6.220   9.555  11.018
68193SOL     OW 6475   1.415   8.541  12.872
68193SOL    HW1 6476   1.500   8.585  12.867
68193SOL    HW2 6477   1.353   8.612  12.890
68194SOL     OW 6478  13.199   3.233  10.492
68194SOL    HW1 6479  13.241   3.172  10.431
68194SOL    HW2 6480  13.116   3.256  10.450
68195SOL     OW 6481  12.692   0.419  14.058
68195SOL    HW1 6482  12.742   0.338  14.053
68195SOL    HW2 6483  12.604   0.395  14.029
68196SOL     OW 6484   5.357   9.136   8.693
68196SOL    HW1 6485   5.402   9.171   8.616
68196SOL    HW2 6486   5.419   9.074   8.731
68197SOL     OW 6487   5.802   4.227   2.900
68197SOL    HW1 6488   5.828   4.242   2.810
68197SOL    HW2 6489   5.754   4.307   2.925
68198SOL     OW 6490  11.848   0.541   3.889
68198SOL    HW1 6491  11.798   0.594   3.827
68198SOL    HW2 6492  11.871   0.462   3.840
68199SOL     OW 6493   3.067   5.706   9.899
68199SOL    HW1 6494   3.157   5.718   9.867
68199SOL    HW2 6495   3.076   5.644   9.971
68200SOL     OW 6496  11.793   1.895   4.291
68200SOL    HW1 6497  11.740   1.924   4.365
68200SOL    HW2 6498  11.880   1.880   4.328
68201SOL     OW 6499  10.404   4.590  14.240
68201SOL    HW1 6500  10.393   4.658  14.174
68201SOL    HW2 6501  10.447   4.518  14.193
68202SOL     OW 6502   2.749   2.209   4.731
68202SOL    HW1 6503   2.798   2.196   4.650
68202SOL    HW2 6504   2.729   2.121   4.761
68203SOL     OW 6505  10.301  14.113   7.550
68203SOL    HW1 6506  10.370  14.060   7.590
68203SOL    HW2 6507  10.233  14.119   7.617
68204SOL     OW 6508   0.221  14.273   5.434
68204SOL    HW1 6509   0.146  14.322   5.468
68204SOL    HW2 6510   0.247  14.320   5.355
68205SOL     OW 6511  10.115  14.514  10.256
68205SOL    HW1 6512  10.048  14.452  10.228
68205SOL    HW2 6513  10.069  14.572  10.317
68206SOL     OW 6514  12.330   5.488   1.264
68206SOL    HW1 6515  12.347   5.405   1.309
68206SOL    HW2 6516  12.272   5.536   1.323
68207SOL     OW 6517  13.036  12.005   5.574
68207SOL    HW1 6518  13.000  12.049   5.496
68207SOL    HW2 6519  13.128  12.032   5.576
68208SOL     OW 6520   8.728   0.225   6.653
68208SOL    HW1 6521   8.770   0.256   6.733
68208SOL    HW2 6522   8.641   0.197   6.681
68209SOL     OW 6523   9.095  12.457  10.835
68209SOL    HW1 6524   9.113  12.397  10.907
68209SOL    HW2 6525   9.001  12.445  10.817
68210SOL     OW 6526   0.346  11.700  14.569
68210SOL    HW1 6527   0.371  11.739  14.485
68210SOL    HW2 6528   0.409  11.736  14.632
68211SOL     OW 6529  11.700   8.677  11.244
68211SOL    HW1 6530  11.768   8.666  11.177
68211SOL    HW2 6531  11.618   8.662  11.197
68212SOL     OW 6532  13.686   3.202   9.987
68212SOL    HW1 6533  13.681   3.297   9.988
68212SOL    HW2 6534  13.762   3.181  10.041
68213SOL     OW 6535   5.571  13.411  13.930
68213SOL    HW1 6536   5.660  13.379  13.915
68213SOL    HW2 6537   5.582  13.503  13.953
68214SOL     OW 6538  11.117   7.251   6.435
68214SOL    HW1 6539  11.198   7.295   6.460
68214SOL    HW2 6540  11.122   7.244   6.339
68215SOL     OW 6541  14.434   6.937  11.115
68215SOL    HW1 6542  14.384   6.951  11.034
68215SOL    HW2 6543  14.516   6.899  11.086
68216SOL     OW 6544   4.340   2.161   2.542
68216SOL    HW1 6545   4.323   2.092   2.607
68216SOL    HW2 6546   4.390   2.227   2.591
68217SOL     OW 6547   8.421   5.985  14.022
68217SOL    HW1 6548   8.337   5.944  14.043
68217SOL    HW2 6549   8.400   6.078  14.010
68218SOL     OW 6550   8.692   9.299  13.113
68218SOL    HW1 6551   8.636   9.228  13.084
68218SOL    HW2 6552   8.762   9.256  13.163
68219SOL     OW 6553   5.537   1.742   4.863
68219SOL    HW1 6554   5.452   1.751   4.907
68219SOL    HW2 6555   5.550   1.826   4.819
68220SOL     OW 6556  11.322  10.314  14.727
68220SOL    HW1 6557  11.364  10.310  14.813
68220SOL    HW2 6558  11.336  10.405  14.698
68221SOL     OW 6559   2.023  10.290   9.834
68221SOL    HW1 6560   1.993  10.279   9.924
68221SOL    HW2 6561   1.965  10.234   9.782
68222SOL     OW 6562   3.935  13.728   9.812
68222SOL    HW1 6563   4.014  13.768   9.776
68222SOL    HW2 6564   3.870  13.798   9.812
68223SOL     OW 6565   6.020   2.336   4.535
68223SOL    HW1 6566   6.078   2.361   4.462
68223SOL    HW2 6567   6.046   2.393   4.607
68224SOL     OW 6568   3.373   1.152  13.246
68224SOL    HW1 6569   3.373   1.245  13.223
68224SOL    HW2 6570   3.311   1.113  13.184
68225SOL     OW 6571   5.556   3.589   9.699
68225SOL    HW1 6572   5.503   3.631   9.767
68225SOL    HW2 6573   5.631   3.647   9.688
68226SOL     OW 6574  13.887  10.873   4.839
68226SOL    HW1 6575  13.945  10.852   4.912
68226SOL    HW2 6576  13.915  10.814   4.769
68227SOL     OW 6577   7.921   1.453   6.861
68227SOL    HW1 6578   7.882   1.452   6.948
68227SOL    HW2 6579   7.901   1.539   6.826
68228SOL     OW 6580   4.504  14.161   9.949
68228SOL    HW1 6581   4.509  14.157  10.045
68228SOL    HW2 6582   4.525  14.252   9.928
68229SOL     OW 6583   9.942   9.841   4.682
68229SOL    HW1 6584   9.894   9.848   4.599
68229SOL    HW2 6585   9.905   9.909   4.737
68230SOL     OW 6586  13.383   0.633   1.975
68230SOL    HW1 6587  13.366   0.613   2.067
68230SOL    HW2 6588  13.419   0.722   1.977
68231SOL     OW 6589   9.407  10.260   6.846
68231SOL    HW1 6590   9.336  10.323   6.832
68231SOL    HW2 6591   9.486  10.305   6.817
68232SOL     OW 6592   8.547  11.680  11.248
68232SOL    HW1 6593   8.582  11.602  11.292
68232SOL    HW2 6594   8.460  11.692  11.285
68233SOL     OW 6595   7.127   4.336   1.418
68233SOL    HW1 6596   7.064   4.398   1.382
68233SOL    HW2 6597   7.074   4.277   1.471
68234SOL     OW 6598   9.274   6.520   6.291
68234SOL    HW1 6599   9.187   6.483   6.272
68234SOL    HW2 6600   9.312   6.535   6.205
68235SOL     OW 6601   3.650   0.159   8.767
68235SOL    HW1 6602   3.732   0.200   8.793
68235SOL    HW2 6603   3.605   0.226   8.715
68236SOL     OW 6604   1.540   9.379   4.183
68236SOL    HW1 6605   1.588   9.338   4.255
68236SOL    HW2 6606   1.585   9.348   4.104
68237SOL     OW 6607   5.369   3.784   1.545
68237SOL    HW1 6608   5.412   3.699   1.554
68237SOL    HW2 6609   5.393   3.832   1.625
68238SOL     OW 6610   7.460   4.512   1.335
68238SOL    HW1 6611   7.487   4.440   1.278
68238SOL    HW2 6612   7.407   4.568   1.278
68239SOL     OW 6613  14.446   7.003   8.342
68239SOL    HW1 6614  14.440   6.912   8.313
68239SOL    HW2 6615  14.363   7.020   8.386
68240SOL     OW 6616   0.013  14.558   1.064
68240SOL    HW1 6617  14.806  14.606   1.040
68240SOL    HW2 6618   0.072  14.572   0.990
68241SOL     OW 6619   4.243  11.054   5.689
68241SOL    HW1 6620   4.327  11.095   5.670
68241SOL    HW2 6621   4.213  11.095   5.770
68242SOL     OW 6622   1.609  10.053  11.529
68242SOL    HW1 6623   1.533  10.012  11.571
68242SOL    HW2 6624   1.580  10.073  11.440
68243SOL     OW 6625  11.208  13.982   2.247
68243SOL    HW1 6626  11.150  14.041   2.295
68243SOL    HW2 6627  11.225  14.027   2.164
68244SOL     OW 6628  12.175  13.478   7.472
68244SOL    HW1 6629  12.180  13.564   7.429
68244SOL    HW2 6630  12.170  13.498   7.565
68245SOL     OW 6631   7.378   0.977   9.827
68245SOL    HW1 6632   7.324   1.050   9.798
68245SOL    HW2 6633   7.348   0.903   9.775
68246SOL     OW 6634  13.127   9.300   4.493
68246SOL    HW1 6635  13.200   9.296   4.555
68246SOL    HW2 6636  13.065   9.360   4.533
68247SOL     OW 6637   2.155  14.359   8.188
68247SOL    HW1 6638   2.078  14.315   8.225
68247SOL    HW2 6639   2.156  14.332   8.096
68248SOL     OW 6640   5.380   4.388   8.144
68248SOL    HW1 6641   5.348   4.466   8.190
68248SOL    HW2 6642   5.361   4.405   8.052
68249SOL     OW 6643  12.985  12.233  10.713
68249SOL    HW1 6644  12.961  12.321  10.684
68249SOL    HW2 6645  12.927  12.175  10.664
68250SOL     OW 6646  11.848  14.788  13.696
68250SOL    HW1 6647  11.841  14.853  13.766
68250SOL    HW2 6648  11.771  14.802  13.642
68251SOL     OW 6649   0.928   1.825   9.672
68251SOL    HW1 6650   0.961   1.824   9.762
68251SOL    HW2 6651   1.006   1.813   9.618
68252SOL     OW 6652  12.087   6.290  11.726
68252SOL    HW1 6653  12.108   6.381  11.744
68252SOL    HW2 6654  12.029   6.263  11.798
68253SOL     OW 6655  12.266   7.145   7.495
68253SOL    HW1 6656  12.184   7.194   7.488
68253SOL    HW2 6657  12.296   7.163   7.585
68254SOL     OW 6658  13.838   9.057   4.276
68254SOL    HW1 6659  13.744   9.056   4.257
68254SOL    HW2 6660  13.864   8.965   4.269
68255SOL     OW 6661   0.318   5.362   0.320
68255SOL    HW1 6662   0.401   5.406   0.300
68255SOL    HW2 6663   0.258   5.392   0.252
68256SOL     OW 6664   9.737   8.509   2.243
68256SOL    HW1 6665   9.755   8.509   2.149
68256SOL    HW2 6666   9.696   8.424   2.259
68257SOL     OW 6667   5.239   4.788  10.581
68257SOL    HW1 6668   5.181   4.755  10.650
68257SOL    HW2 6669   5.321   4.807  10.626
68258SOL     OW 6670   9.694   6.203   7.978
68258SOL    HW1 6671   9.642   6.220   8.057
68258SOL    HW2 6672   9.776   6.167   8.011
68259SOL     OW 6673   5.604   8.928  11.135
68259SOL    HW1 6674   5.613   8.984  11.058
68259SOL    HW2 6675   5.578   8.843  11.101
68260SOL     OW 6676   8.372   6.480  10.515
68260SOL    HW1 6677   8.353   6.398  10.562
68260SOL    HW2 6678   8.287   6.508  10.481
68261SOL     OW 6679   6.650  11.093   9.719
68261SOL    HW1 6680   6.688  11.165   9.668
68261SOL    HW2 6681   6.724  11.035   9.736
68262SOL     OW 6682   3.007   6.878  14.121
68262SOL    HW1 6683   2.965   6.963  14.138
68262SOL    HW2 6684   2.934   6.820  14.099
68263SOL     OW 6685   7.240   2.659   8.287
68263SOL    HW1 6686   7.278   2.616   8.210
68263SOL    HW2 6687   7.238   2.752   8.264
68264SOL     OW 6688  14.540  10.001  11.984
68264SOL    HW1 6689  14.586   9.917  11.981
68264SOL    HW2 6690  14.450   9.979  11.960
68265SOL     OW 6691  14.599   7.614   6.459
68265SOL    HW1 6692  14.519   7.597   6.507
68265SOL    HW2 6693  14.622   7.530   6.419
68266SOL     OW 6694  11.131  11.943   5.891
68266SOL    HW1 6695  11.220  11.934   5.857
68266SOL    HW2 6696  11.135  12.020   5.948
68267SOL     OW 6697  12.996  14.277   1.228
68267SOL    HW1 6698  13.027  14.216   1.161
68267SOL    HW2 6699  13.023  14.363   1.196
68268SOL     OW 6700   3.842   7.159   5.365
68268SOL    HW1 6701   3.888   7.075   5.359
68268SOL    HW2 6702   3.765   7.140   5.418
68269SOL     OW 6703   6.952   9.428  13.003
68269SOL    HW1 6704   6.949   9.425  13.098
68269SOL    HW2 6705   6.960   9.521  12.982
68270SOL     OW 6706   5.994   5.881  14.527
68270SOL    HW1 6707   5.953   5.943  14.467
68270SOL    HW2 6708   5.921   5.826  14.558
68271SOL     OW 6709   6.780   2.996   0.195
68271SOL    HW1 6710   6.775   3.068   0.132
68271SOL    HW2 6711   6.690   2.965   0.204
68272SOL     OW 6712  11.696   7.494   2.272
68272SOL    HW1 6713  11.783   7.470   2.305
68272SOL    HW2 6714  11.711   7.518   2.181
68273SOL     OW 6715   2.554   1.616   7.717
68273SOL    HW1 6716   2.496   1.564   7.772
68273SOL    HW2 6717   2.635   1.622   7.767
68274SOL     OW 6718   7.838   1.099   3.398
68274SOL    HW1 6719   7.866   1.123   3.310
68274SOL    HW2 6720   7.906   1.040   3.430
68275SOL     OW 6721   0.694   9.809  12.991
68275SOL    HW1 6722   0.662   9.864  12.920
68275SOL    HW2 6723   0.647   9.839  13.068
68276SOL     OW 6724   1.618   0.211   3.304
68276SOL    HW1 6725   1.679   0.286   3.305
68276SOL    HW2 6726   1.673   0.136   3.280
68277SOL     OW 6727   1.837   2.426   9.428
68277SOL    HW1 6728   1.845   2.388   9.341
68277SOL    HW2 6729   1.914   2.482   9.437
68278SOL     OW 6730  11.219   6.142   2.081
68278SOL    HW1 6731  11.283   6.102   2.140
68278SOL    HW2 6732  11.143   6.085   2.086
68279SOL     OW 6733   4.046  14.798   4.240
68279SOL    HW1 6734   4.118  14.798   4.176
68279SOL    HW2 6735   3.985  14.864   4.206
68280SOL     OW 6736   5.442  11.639   5.143
68280SOL    HW1 6737   5.463  11.732   5.132
68280SOL    HW2 6738   5.372  11.637   5.208
68281SOL     OW 6739   9.359   5.414  10.562
68281SOL    HW1 6740   9.274   5.379  10.536
68281SOL    HW2 6741   9.414   5.403  10.485
68282SOL     OW 6742   0.313   5.960   5.757
68282SOL    HW1 6743   0.285   6.044   5.794
68282SOL    HW2 6744   0.342   5.910   5.834
68283SOL     OW 6745   8.212  10.728   3.037
68283SOL    HW1 6746   8.218  10.648   2.985
68283SOL    HW2 6747   8.301  10.743   3.068
68284SOL     OW 6748  14.174  14.675  11.460
68284SOL    HW1 6749  14.135  14.672  11.547
68284SOL    HW2 6750  14.101  14.690  11.401
68285SOL     OW 6751   7.070   9.309   8.349
68285SOL    HW1 6752   7.084   9.215   8.336
68285SOL    HW2 6753   7.151   9.350   8.319
68286SOL     OW 6754   9.772   3.003   1.827
68286SOL    HW1 6755   9.712   2.930   1.808
68286SOL    HW2 6756   9.859   2.963   1.823
68287SOL     OW 6757   2.041   6.397   9.026
68287SOL    HW1 6758   2.032   6.492   9.021
68287SOL    HW2 6759   1.974   6.369   9.088
68288SOL     OW 6760   6.733  11.869  10.212
68288SOL    HW1 6761   6.775  11.790  10.180
68288SOL    HW2 6762   6.722  11.854  10.306
68289SOL     OW 6763  10.934  10.222  11.212
68289SOL    HW1 6764  10.997  10.164  11.168
68289SOL    HW2 6765  10.848  10.187  11.187
68290SOL     OW 6766   5.774   7.813   8.205
68290SOL    HW1 6767   5.679   7.820   8.213
68290SOL    HW2 6768   5.789   7.725   8.170
68291SOL     OW 6769   0.137   7.413   5.193
68291SOL    HW1 6770   0.174   7.335   5.235
68291SOL    HW2 6771   0.168   7.486   5.246
68292SOL     OW 6772   5.133   9.355  13.977
68292SOL    HW1 6773   5.104   9.286  13.917
68292SOL    HW2 6774   5.069   9.354  14.048
68293SOL     OW 6775   1.459   6.815  10.122
68293SOL    HW1 6776   1.473   6.884  10.057
68293SOL    HW2 6777   1.365   6.795  10.116
68294SOL     OW 6778   7.340  11.123   5.259
68294SOL    HW1 6779   7.311  11.063   5.327
68294SOL    HW2 6780   7.343  11.070   5.179
68295SOL     OW 6781   7.172  14.164  11.350
68295SOL    HW1 6782   7.214  14.154  11.435
68295SOL    HW2 6783   7.186  14.079  11.307
68296SOL     OW 6784  12.708  13.152  11.853
68296SOL    HW1 6785  12.720  13.241  11.886
68296SOL    HW2 6786  12.795  13.123  11.829
68297SOL     OW 6787  11.468  13.909   1.387
68297SOL    HW1 6788  11.450  13.982   1.447
68297SOL    HW2 6789  11.481  13.950   1.302
68298SOL     OW 6790   2.898   4.601   2.565
68298SOL    HW1 6791   2.899   4.623   2.658
68298SOL    HW2 6792   2.819   4.644   2.531
68299SOL     OW 6793   2.494  10.341   7.530
68299SOL    HW1 6794   2.424  10.322   7.468
68299SOL    HW2 6795   2.476  10.429   7.561
68300SOL     OW 6796   9.746  11.894   8.375
68300SOL    HW1 6797   9.763  11.877   8.283
68300SOL    HW2 6798   9.790  11.978   8.392
68301SOL     OW 6799   7.664   3.191   2.909
68301SOL    HW1 6800   7.740   3.239   2.944
68301SOL    HW2 6801   7.600   3.260   2.889
68302SOL     OW 6802  14.566  10.230  11.247
68302SOL    HW1 6803  14.597  10.160  11.305
68302SOL    HW2 6804  14.631  10.234  11.177
68303SOL     OW 6805   1.164  12.847   8.586
68303SOL    HW1 6806   1.099  12.907   8.549
68303SOL    HW2 6807   1.239  12.853   8.527
68304SOL     OW 6808   1.068   1.214   1.951
68304SOL    HW1 6809   1.065   1.270   2.029
68304SOL    HW2 6810   1.042   1.128   1.983
68305SOL     OW 6811   2.606  11.424   2.084
68305SOL    HW1 6812   2.570  11.503   2.123
68305SOL    HW2 6813   2.660  11.455   2.011
68306SOL     OW 6814  11.492  10.995   5.091
68306SOL    HW1 6815  11.545  10.933   5.142
68306SOL    HW2 6816  11.410  11.001   5.140
68307SOL     OW 6817   0.754   7.806  13.255
68307SOL    HW1 6818   0.775   7.737  13.318
68307SOL    HW2 6819   0.782   7.887  13.297
68308SOL     OW 6820   7.594   0.309   0.518
68308SOL    HW1 6821   7.628   0.396   0.539
68308SOL    HW2 6822   7.595   0.304   0.422
68309SOL     OW 6823   7.470   1.904   7.513
68309SOL    HW1 6824   7.540   1.890   7.577
68309SOL    HW2 6825   7.393   1.862   7.553
68310SOL     OW 6826   4.089  12.476  12.054
68310SOL    HW1 6827   4.015  12.424  12.085
68310SOL    HW2 6828   4.146  12.485  12.130
68311SOL     OW 6829  14.725   4.536   3.672
68311SOL    HW1 6830  14.792   4.549   3.605
68311SOL    HW2 6831  14.773   4.498   3.747
68312SOL     OW 6832   3.970   2.570   0.261
68312SOL    HW1 6833   3.934   2.481   0.262
68312SOL    HW2 6834   3.893   2.627   0.261
68313SOL     OW 6835   5.569  10.250   6.555
68313SOL    HW1 6836   5.630  10.232   6.627
68313SOL    HW2 6837   5.572  10.171   6.501
68314SOL     OW 6838   7.243   0.990   6.220
68314SOL    HW1 6839   7.184   1.013   6.149
68314SOL    HW2 6840   7.329   0.983   6.178
68315SOL     OW 6841   7.831  11.463   6.862
68315SOL    HW1 6842   7.874  11.546   6.839
68315SOL    HW2 6843   7.903  11.400   6.870
68316SOL     OW 6844  12.184   1.748  14.053
68316SOL    HW1 6845  12.153   1.700  13.976
68316SOL    HW2 6846  12.260   1.698  14.083
68317SOL     OW 6847   6.145  11.852   6.860
68317SOL    HW1 6848   6.071  11.864   6.920
68317SOL    HW2 6849   6.167  11.760   6.867
68318SOL     OW 6850   8.832   9.198   6.902
68318SOL    HW1 6851   8.837   9.294   6.908
68318SOL    HW2 6852   8.842   9.168   6.992
68319SOL     OW 6853  13.051   5.481   6.725
68319SOL    HW1 6854  13.070   5.388   6.743
68319SOL    HW2 6855  13.029   5.483   6.631
68320SOL     OW 6856   3.338   1.444   7.693
68320SOL    HW1 6857   3.374   1.464   7.607
68320SOL    HW2 6858   3.317   1.350   7.689
68321SOL     OW 6859   8.633   9.293  12.733
68321SOL    HW1 6860   8.574   9.272  12.806
68321SOL    HW2 6861   8.616   9.386  12.714
68322SOL     OW 6862   0.710   7.300  12.872
68322SOL    HW1 6863   0.718   7.206  12.854
68322SOL    HW2 6864   0.624   7.309  12.914
68323SOL     OW 6865   6.206  14.353  11.897
68323SOL    HW1 6866   6.287  14.342  11.947
68323SOL    HW2 6867   6.233  14.397  11.817
68324SOL     OW 6868   0.441   8.342   9.607
68324SOL    HW1 6869   0.410   8.290   9.534
68324SOL    HW2 6870   0.494   8.411   9.566
68325SOL     OW 6871   6.680   7.953  11.430
68325SOL    HW1 6872   6.719   7.871  11.460
68325SOL    HW2 6873   6.586   7.933  11.423
68326SOL     OW 6874  13.648   4.420   7.009
68326SOL    HW1 6875  13.706   4.405   6.934
68326SOL    HW2 6876  13.686   4.496   7.054
68327SOL     OW 6877  10.794   7.578   9.569
68327SOL    HW1 6878  10.757   7.490   9.561
68327SOL    HW2 6879  10.753   7.615   9.646
68328SOL     OW 6880   1.711   2.864   9.674
68328SOL    HW1 6881   1.720   2.771   9.652
68328SOL    HW2 6882   1.721   2.909   9.590
68329SOL     OW 6883  11.792   9.118  14.635
68329SOL    HW1 6884  11.832   9.192  14.682
68329SOL    HW2 6885  11.778   9.151  14.546
68330SOL     OW 6886   9.803   0.222   3.625
68330SOL    HW1 6887   9.826   0.182   3.542
68330SOL    HW2 6888   9.879   0.206   3.681
68331SOL     OW 6889   4.031   5.855   1.127
68331SOL    HW1 6890   4.087   5.911   1.073
68331SOL    HW2 6891   4.079   5.846   1.210
68332SOL     OW 6892   7.359  11.508   7.389
68332SOL    HW1 6893   7.397  11.572   7.451
68332SOL    HW2 6894   7.267  11.502   7.415
68333SOL     OW 6895  10.568   1.533   2.930
68333SOL    HW1 6896  10.594   1.445   2.958
68333SOL    HW2 6897  10.643   1.588   2.952
68334SOL     OW 6898   4.803   6.090   2.105
68334SOL    HW1 6899   4.789   6.183   2.086
68334SOL    HW2 6900   4.719   6.059   2.137
68335SOL     OW 6901   7.934   8.873   4.487
68335SOL    HW1 6902   7.872   8.845   4.555
68335SOL    HW2 6903   7.886   8.939   4.437
68336SOL     OW 6904  13.055   8.317  14.540
68336SOL    HW1 6905  13.071   8.364  14.459
68336SOL    HW2 6906  13.136   8.270  14.558
68337SOL     OW 6907   2.593  10.461   2.203
68337SOL    HW1 6908   2.539  10.383   2.193
68337SOL    HW2 6909   2.681  10.428   2.218
68338SOL     OW 6910   7.150   9.611   7.460
68338SOL    HW1 6911   7.095   9.652   7.394
68338SOL    HW2 6912   7.205   9.683   7.492
68339SOL     OW 6913   0.087   7.310   5.584
68339SOL    HW1 6914   0.129   7.286   5.667
68339SOL    HW2 6915   0.053   7.398   5.599
68340SOL     OW 6916  13.111   1.801   0.451
68340SOL    HW1 6917  13.098   1.833   0.540
68340SOL    HW2 6918  13.154   1.874   0.406
68341SOL     OW 6919   8.139   5.896  11.160
68341SOL    HW1 6920   8.056   5.874  11.202
68341SOL    HW2 6921   8.162   5.982  11.197
68342SOL     OW 6922   2.158  14.404  11.417
68342SOL    HW1 6923   2.188  14.483  11.461
68342SOL    HW2 6924   2.067  14.421  11.395
68343SOL     OW 6925   0.150   6.702  11.216
68343SOL    HW1 6926   0.222   6.644  11.241
68343SOL    HW2 6927   0.192   6.786  11.199
68344SOL     OW 6928  14.438   1.959   2.386
68344SOL    HW1 6929  14.439   2.052   2.362
68344SOL    HW2 6930  14.459   1.958   2.479
68345SOL     OW 6931   1.009   0.119   2.380
68345SOL    HW1 6932   0.967   0.193   2.425
68345SOL    HW2 6933   0.943   0.050   2.379
68346SOL     OW 6934   6.182   5.221   1.420
68346SOL    HW1 6935   6.277   5.227   1.412
68346SOL    HW2 6936   6.153   5.312   1.425
68347SOL     OW 6937   7.693   7.701   3.909
68347SOL    HW1 6938   7.785   7.714   3.888
68347SOL    HW2 6939   7.691   7.689   4.004
68348SOL     OW 6940   6.950   8.678   0.789
68348SOL    HW1 6941   6.907   8.599   0.822
68348SOL    HW2 6942   6.888   8.714   0.725
68349SOL     OW 6943   2.703   2.273   7.433
68349SOL    HW1 6944   2.650   2.313   7.502
68349SOL    HW2 6945   2.641   2.251   7.364
68350SOL     OW 6946   7.572  13.749   2.722
68350SOL    HW1 6947   7.482  13.775   2.705
68350SOL    HW2 6948   7.616  13.831   2.745
68351SOL     OW 6949  14.570   6.077  11.473
68351SOL    HW1 6950  14.551   6.095  11.381
68351SOL    HW2 6951  14.660   6.107  11.486
68352SOL     OW 6952   6.217   3.588   8.271
68352SOL    HW1 6953   6.169   3.567   8.191
68352SOL    HW2 6954   6.250   3.677   8.256
68353SOL     OW 6955  11.534  10.847   0.139
68353SOL    HW1 6956  11.627  10.822   0.137
68353SOL    HW2 6957  11.490  10.769   0.173
68354SOL     OW 6958  11.701  11.515  14.061
68354SOL    HW1 6959  11.796  11.522  14.074
68354SOL    HW2 6960  11.692  11.452  13.989
68355SOL     OW 6961   2.104   2.210   8.822
68355SOL    HW1 6962   2.178   2.263   8.854
68355SOL    HW2 6963   2.114   2.126   8.866
68356SOL     OW 6964   6.234   1.247   3.556
68356SOL    HW1 6965   6.155   1.287   3.593
68356SOL    HW2 6966   6.306   1.292   3.601
68357SOL     OW 6967   3.143  13.721   6.637
68357SOL    HW1 6968   3.089  13.643   6.628
68357SOL    HW2 6969   3.226  13.699   6.594
68358SOL     OW 6970   7.197   4.673   9.170
68358SOL    HW1 6971   7.227   4.760   9.196
68358SOL    HW2 6972   7.221   4.617   9.243
68359SOL     OW 6973   2.155   8.885   4.453
68359SOL    HW1 6974   2.147   8.972   4.493
68359SOL    HW2 6975   2.245   8.859   4.471
68360SOL     OW 6976  11.872   2.285   6.747
68360SOL    HW1 6977  11.861   2.213   6.684
68360SOL    HW2 6978  11.853   2.246   6.832
68361SOL     OW 6979   3.740   6.319  13.285
68361SOL    HW1 6980   3.820   6.314  13.232
68361SOL    HW2 6981   3.673   6.349  13.223
68362SOL     OW 6982  13.705   8.462  10.017
68362SOL    HW1 6983  13.705   8.394  10.085
68362SOL    HW2 6984  13.704   8.414   9.935
68363SOL     OW 6985   0.707   2.152   7.900
68363SOL    HW1 6986   0.778   2.110   7.853
68363SOL    HW2 6987   0.632   2.145   7.842
68364SOL     OW 6988   4.771   0.278  14.806
68364SOL    HW1 6989   4.754   0.242   0.020
68364SOL    HW2 6990   4.787   0.201  14.751
68365SOL     OW 6991  13.308   4.714   4.470
68365SOL    HW1 6992  13.388   4.762   4.449
68365SOL    HW2 6993  13.258   4.712   4.388
68366SOL     OW 6994   9.485   3.228   7.900
68366SOL    HW1 6995   9.453   3.138   7.910
68366SOL    HW2 6996   9.426   3.280   7.955
68367SOL     OW 6997   0.539  14.473  13.021
68367SOL    HW1 6998   0.634  14.478  13.024
68367SOL    HW2 6999   0.520  14.380  13.007
68368SOL     OW 7000   4.757   4.276   2.528
68368SOL    HW1 7001   4.841   4.277   2.574
68368SOL    HW2 7002   4.704   4.341   2.575
68369SOL     OW 7003  12.140   9.536  11.123
68369SOL    HW1 7004  12.218   9.499  11.081
68369SOL    HW2 7005  12.125   9.480  11.199
68370SOL     OW 7006  14.732   8.063   3.737
68370SOL    HW1 7007  14.756   7.981   3.778
68370SOL    HW2 7008  14.812   8.095   3.696
68371SOL     OW 7009   1.064   2.239   5.606
68371SOL    HW1 7010   0.970   2.232   5.586
68371SOL    HW2 7011   1.073   2.322   5.652
68372SOL     OW 7012   4.316  12.266  13.019
68372SOL    HW1 7013   4.286  12.190  12.969
68372SOL    HW2 7014   4.258  12.268  13.096
68373SOL     OW 7015   6.889   6.210   3.907
68373SOL    HW1 7016   6.886   6.121   3.870
68373SOL    HW2 7017   6.970   6.247   3.872
68374SOL     OW 7018  12.031  12.010   8.652
68374SOL    HW1 7019  12.110  12.022   8.599
68374SOL    HW2 7020  11.976  11.951   8.600
68375SOL     OW 7021  10.603   5.526  14.424
68375SOL    HW1 7022  10.567   5.527  14.335
68375SOL    HW2 7023  10.549   5.463  14.471
68376SOL     OW 7024   2.098  12.592   3.863
68376SOL    HW1 7025   2.063  12.617   3.778
68376SOL    HW2 7026   2.023  12.596   3.922
68377SOL     OW 7027   9.808  11.566   7.217
68377SOL    HW1 7028   9.854  11.634   7.268
68377SOL    HW2 7029   9.878  11.513   7.179
68378SOL     OW 7030   2.760   6.891  13.446
68378SOL    HW1 7031   2.787   6.950  13.517
68378SOL    HW2 7032   2.716   6.948  13.383
68379SOL     OW 7033   3.766   2.370   9.087
68379SOL    HW1 7034   3.788   2.292   9.036
68379SOL    HW2 7035   3.773   2.343   9.178
68380SOL     OW 7036   7.141  11.244   8.618
68380SOL    HW1 7037   7.094  11.257   8.536
68380SOL    HW2 7038   7.195  11.323   8.628
68381SOL     OW 7039  14.517  11.675   6.347
68381SOL    HW1 7040  14.456  11.638   6.411
68381SOL    HW2 7041  14.572  11.735   6.397
68382SOL     OW 7042  10.260  10.052   9.279
68382SOL    HW1 7043  10.327  10.004   9.230
68382SOL    HW2 7044  10.229  10.120   9.220
68383SOL     OW 7045   9.721   4.680   9.100
68383SOL    HW1 7046   9.802   4.629   9.102
68383SOL    HW2 7047   9.746   4.765   9.138
68384SOL     OW 7048   5.813   7.066   7.838
68384SOL    HW1 7049   5.810   7.016   7.756
68384SOL    HW2 7050   5.789   7.002   7.905
68385SOL     OW 7051  13.093   9.023  12.955
68385SOL    HW1 7052  13.073   9.071  13.035
68385SOL    HW2 7053  13.033   8.949  12.956
68386SOL     OW 7054   1.300   2.822  12.841
68386SOL    HW1 7055   1.267   2.872  12.916
68386SOL    HW2 7056   1.254   2.859  12.766
68387SOL     OW 7057   9.664   8.194   8.099
68387SOL    HW1 7058   9.755   8.220   8.086
68387SOL    HW2 7059   9.663   8.101   8.078
68388SOL     OW 7060   1.968   0.579   2.789
68388SOL    HW1 7061   2.010   0.660   2.759
68388SOL    HW2 7062   2.038   0.529   2.830
68389SOL     OW 7063   7.619   4.008   6.540
68389SOL    HW1 7064   7.680   3.935   6.551
68389SOL    HW2 7065   7.556   3.976   6.474
68390SOL     OW 7066  10.684   4.518   6.102
68390SOL    HW1 7067  10.717   4.605   6.079
68390SOL    HW2 7068  10.594   4.533   6.131
68391SOL     OW 7069  12.380   5.873  10.542
68391SOL    HW1 7070  12.353   5.915  10.624
68391SOL    HW2 7071  12.303   5.882  10.485
68392SOL     OW 7072  11.561  11.699   8.623
68392SOL    HW1 7073  11.514  11.764   8.570
68392SOL    HW2 7074  11.623  11.659   8.562
68393SOL     OW 7075  12.335   3.881   6.958
68393SOL    HW1 7076  12.266   3.917   6.903
68393SOL    HW2 7077  12.403   3.853   6.897
68394SOL     OW 7078   8.929   5.085   1.935
68394SOL    HW1 7079   8.870   5.043   1.997
68394SOL    HW2 7080   8.872   5.119   1.867
68395SOL     OW 7081   1.832   6.581   2.294
68395SOL    HW1 7082   1.854   6.537   2.212
68395SOL    HW2 7083   1.773   6.652   2.269
68396SOL     OW 7084   8.649  12.150  12.250
68396SOL    HW1 7085   8.655  12.098  12.170
68396SOL    HW2 7086   8.555  12.160  12.266
68397SOL     OW 7087   6.246   3.646  13.378
68397SOL    HW1 7088   6.244   3.553  13.357
68397SOL    HW2 7089   6.284   3.650  13.466
68398SOL     OW 7090   9.094   4.911   6.638
68398SOL    HW1 7091   9.148   4.853   6.584
68398SOL    HW2 7092   9.009   4.868   6.643
68399SOL     OW 7093   6.328  11.873   5.250
68399SOL    HW1 7094   6.402  11.854   5.307
68399SOL    HW2 7095   6.336  11.810   5.178
68400SOL     OW 7096   1.256   1.645   0.704
68400SOL    HW1 7097   1.237   1.587   0.630
68400SOL    HW2 7098   1.273   1.585   0.777
68401SOL     OW 7099   4.440   9.299  10.411
68401SOL    HW1 7100   4.435   9.392  10.433
68401SOL    HW2 7101   4.359   9.262  10.447
68402SOL     OW 7102  10.067  10.227   7.850
68402SOL    HW1 7103   9.994  10.211   7.789
68402SOL    HW2 7104  10.134  10.268   7.796
68403SOL     OW 7105   4.401   5.258   7.828
68403SOL    HW1 7106   4.341   5.200   7.780
68403SOL    HW2 7107   4.487   5.240   7.790
68404SOL     OW 7108   2.137   2.368   0.045
68404SOL    HW1 7109   2.221   2.391   0.004
68404SOL    HW2 7110   2.075   2.362  14.845
68405SOL     OW 7111   3.594   1.229   2.598
68405SOL    HW1 7112   3.522   1.181   2.558
68405SOL    HW2 7113   3.601   1.194   2.687
68406SOL     OW 7114   7.182  12.433  12.742
68406SOL    HW1 7115   7.143  12.346  12.749
68406SOL    HW2 7116   7.153  12.465  12.656
68407SOL     OW 7117   2.485  12.869  13.884
68407SOL    HW1 7118   2.486  12.783  13.927
68407SOL    HW2 7119   2.393  12.897  13.889
68408SOL     OW 7120  10.045  10.598   2.957
68408SOL    HW1 7121  10.013  10.593   3.047
68408SOL    HW2 7122   9.990  10.537   2.909
68409SOL     OW 7123   5.395  11.823   3.575
68409SOL    HW1 7124   5.404  11.734   3.610
68409SOL    HW2 7125   5.402  11.812   3.480
68410SOL     OW 7126   9.919   0.972  10.090
68410SOL    HW1 7127   9.908   1.058  10.051
68410SOL    HW2 7128  10.012   0.950  10.075
68411SOL     OW 7129  10.041   4.888  14.003
68411SOL    HW1 7130  10.052   4.827  13.930
68411SOL    HW2 7131   9.956   4.929  13.987
68412SOL     OW 7132   3.318   0.235   9.190
68412SOL    HW1 7133   3.274   0.287   9.258
68412SOL    HW2 7134   3.328   0.295   9.116
68413SOL     OW 7135  12.109   5.088   8.713
68413SOL    HW1 7136  12.143   5.151   8.649
68413SOL    HW2 7137  12.053   5.139   8.770
68414SOL     OW 7138  14.588   9.190  12.983
68414SOL    HW1 7139  14.549   9.234  12.907
68414SOL    HW2 7140  14.681   9.185  12.963
68415SOL     OW 7141   6.874  11.169   0.016
68415SOL    HW1 7142   6.879  11.202  14.798
68415SOL    HW2 7143   6.801  11.218   0.055
68416SOL     OW 7144   3.941   9.048   8.152
68416SOL    HW1 7145   3.856   9.082   8.180
68416SOL    HW2 7146   3.984   9.122   8.110
68417SOL     OW 7147   3.685  11.293   9.356
68417SOL    HW1 7148   3.709  11.262   9.268
68417SOL    HW2 7149   3.709  11.386   9.356
68418SOL     OW 7150  10.232   3.386   6.194
68418SOL    HW1 7151  10.198   3.327   6.127
68418SOL    HW2 7152  10.154   3.421   6.237
68419SOL     OW 7153  13.247   2.990  12.108
68419SOL    HW1 7154  13.256   3.084  12.097
68419SOL    HW2 7155  13.290   2.971  12.192
68420SOL     OW 7156   0.692  11.447  12.325
68420SOL    HW1 7157   0.739  11.392  12.262
68420SOL    HW2 7158   0.633  11.386  12.370
68421SOL     OW 7159   0.743   2.831  12.550
68421SOL    HW1 7160   0.741   2.879  12.467
68421SOL    HW2 7161   0.828   2.789  12.551
68422SOL     OW 7162   1.244   3.677   4.253
68422SOL    HW1 7163   1.299   3.711   4.323
68422SOL    HW2 7164   1.304   3.627   4.198
68423SOL     OW 7165   4.628  13.772   0.411
68423SOL    HW1 7166   4.718  13.739   0.413
68423SOL    HW2 7167   4.574  13.696   0.432
68424SOL     OW 7168   1.322   7.969   7.777
68424SOL    HW1 7169   1.239   7.964   7.730
68424SOL    HW2 7170   1.304   7.929   7.862
68425SOL     OW 7171  14.154   1.189  12.339
68425SOL    HW1 7172  14.245   1.188  12.367
68425SOL    HW2 7173  14.157   1.210  12.246
68426SOL     OW 7174   6.454  11.973   9.265
68426SOL    HW1 7175   6.521  11.990   9.199
68426SOL    HW2 7176   6.483  11.892   9.308
68427SOL     OW 7177   1.098   0.974   2.478
68427SOL    HW1 7178   1.190   0.946   2.480
68427SOL    HW2 7179   1.051   0.904   2.524
68428SOL     OW 7180  10.180  12.055   3.459
68428SOL    HW1 7181  10.132  11.993   3.514
68428SOL    HW2 7182  10.272  12.038   3.478
68429SOL     OW 7183  14.576   9.374  14.026
68429SOL    HW1 7184  14.634   9.297  14.030
68429SOL    HW2 7185  14.536   9.368  13.939
68430SOL     OW 7186   7.252  13.136  10.931
68430SOL    HW1 7187   7.283  13.082  11.003
68430SOL    HW2 7188   7.326  13.194  10.912
68431SOL     OW 7189   0.206   5.107   4.091
68431SOL    HW1 7190   0.173   5.039   4.031
68431SOL    HW2 7191   0.299   5.115   4.069
68432SOL     OW 7192  13.058  12.883   0.591
68432SOL    HW1 7193  13.128  12.818   0.580
68432SOL    HW2 7194  12.993  12.840   0.646
68433SOL     OW 7195  10.451   3.430  11.456
68433SOL    HW1 7196  10.432   3.357  11.515
68433SOL    HW2 7197  10.398   3.502  11.489
68434SOL     OW 7198  14.645   7.680   4.631
68434SOL    HW1 7199  14.663   7.696   4.723
68434SOL    HW2 7200  14.598   7.759   4.602
68435SOL     OW 7201   0.409  12.231   2.557
68435SOL    HW1 7202   0.314  12.244   2.550
68435SOL    HW2 7203   0.445  12.319   2.566
68436SOL     OW 7204   2.505   9.239   1.158
68436SOL    HW1 7205   2.410   9.237   1.146
68436SOL    HW2 7206   2.540   9.230   1.070
68437SOL     OW 7207  11.386   4.525   4.453
68437SOL    HW1 7208  11.355   4.456   4.512
68437SOL    HW2 7209  11.412   4.597   4.512
68438SOL     OW 7210   2.114  10.296   1.479
68438SOL    HW1 7211   2.025  10.331   1.475
68438SOL    HW2 7212   2.144  10.293   1.388
68439SOL     OW 7213  12.542   4.777   0.291
68439SOL    HW1 7214  12.448   4.765   0.275
68439SOL    HW2 7215  12.549   4.864   0.328
68440SOL     OW 7216  12.100   0.659   6.102
68440SOL    HW1 7217  12.032   0.691   6.044
68440SOL    HW2 7218  12.063   0.580   6.142
68441SOL     OW 7219  11.730   5.814   4.423
68441SOL    HW1 7220  11.642   5.777   4.416
68441SOL    HW2 7221  11.717   5.909   4.417
68442SOL     OW 7222   3.438  10.225   2.228
68442SOL    HW1 7223   3.518  10.173   2.237
68442SOL    HW2 7224   3.433  10.246   2.135
68443SOL     OW 7225  12.088   1.918   5.503
68443SOL    HW1 7226  12.126   1.977   5.568
68443SOL    HW2 7227  12.149   1.845   5.498
68444SOL     OW 7228   7.610   0.654   2.220
68444SOL    HW1 7229   7.551   0.712   2.268
68444SOL    HW2 7230   7.642   0.592   2.286
68445SOL     OW 7231  14.867  12.770   7.586
68445SOL    HW1 7232   0.068  12.808   7.636
68445SOL    HW2 7233   0.003  12.676   7.601
68446SOL     OW 7234   4.214   5.098  12.610
68446SOL    HW1 7235   4.225   5.043  12.688
68446SOL    HW2 7236   4.156   5.047  12.553
68447SOL     OW 7237  14.382   1.071   9.323
68447SOL    HW1 7238  14.307   1.108   9.369
68447SOL    HW2 7239  14.344   1.009   9.261
68448SOL     OW 7240   8.231   8.335   7.373
68448SOL    HW1 7241   8.148   8.382   7.369
68448SOL    HW2 7242   8.270   8.364   7.456
68449SOL     OW 7243   7.871  11.222  14.682
68449SOL    HW1 7244   7.818  11.171  14.744
68449SOL    HW2 7245   7.961  11.203  14.707
68450SOL     OW 7246   0.574   3.878   7.988
68450SOL    HW1 7247   0.583   3.852   8.079
68450SOL    HW2 7248   0.501   3.939   7.987
68451SOL     OW 7249   2.075   2.037   6.904
68451SOL    HW1 7250   2.091   1.988   6.823
68451SOL    HW2 7251   2.160   2.078   6.924
68452SOL     OW 7252  14.655   5.493  13.522
68452SOL    HW1 7253  14.647   5.404  13.557
68452SOL    HW2 7254  14.701   5.541  13.591
68453SOL     OW 7255   1.649  13.780   6.116
68453SOL    HW1 7256   1.650  13.686   6.134
68453SOL    HW2 7257   1.709  13.817   6.181
68454SOL     OW 7258   2.911   5.003   4.923
68454SOL    HW1 7259   2.919   4.929   4.983
68454SOL    HW2 7260   2.959   4.975   4.845
68455SOL     OW 7261   7.507   3.734   4.944
68455SOL    HW1 7262   7.575   3.667   4.948
68455SOL    HW2 7263   7.432   3.696   4.991
68456SOL     OW 7264   4.570   4.653   6.667
68456SOL    HW1 7265   4.609   4.600   6.597
68456SOL    HW2 7266   4.602   4.742   6.650
68457SOL     OW 7267   7.986   4.969   9.037
68457SOL    HW1 7268   8.075   4.964   9.002
68457SOL    HW2 7269   7.993   5.025   9.114
68458SOL     OW 7270  10.812  13.791   6.492
68458SOL    HW1 7271  10.791  13.875   6.533
68458SOL    HW2 7272  10.907  13.794   6.478
68459SOL     OW 7273   8.209   7.559   4.628
68459SOL    HW1 7274   8.142   7.617   4.665
68459SOL    HW2 7275   8.199   7.478   4.679
68460SOL     OW 7276   0.625   1.406   4.549
68460SOL    HW1 7277   0.679   1.336   4.586
68460SOL    HW2 7278   0.580   1.445   4.624
68461SOL     OW 7279   0.353   7.193   7.238
68461SOL    HW1 7280   0.365   7.167   7.147
68461SOL    HW2 7281   0.276   7.249   7.238
68462SOL     OW 7282   4.123   4.238   7.963
68462SOL    HW1 7283   4.038   4.275   7.941
68462SOL    HW2 7284   4.122   4.227   8.058
68463SOL     OW 7285  11.957   9.457   4.865
68463SOL    HW1 7286  12.051   9.438   4.861
68463SOL    HW2 7287  11.925   9.404   4.937
68464SOL     OW 7288  10.848  10.239   4.946
68464SOL    HW1 7289  10.792  10.162   4.935
68464SOL    HW2 7290  10.883  10.231   5.035
68465SOL     OW 7291  12.790  12.998  14.737
68465SOL    HW1 7292  12.882  12.987  14.714
68465SOL    HW2 7293  12.784  12.967  14.827
68466SOL     OW 7294  13.267  11.112  10.167
68466SOL    HW1 7295  13.247  11.196  10.128
68466SOL    HW2 7296  13.232  11.117  10.256
68467SOL     OW 7297   6.164   0.922   7.749
68467SOL    HW1 7298   6.208   0.980   7.687
68467SOL    HW2 7299   6.166   0.968   7.832
68468SOL     OW 7300   4.167   0.495  14.822
68468SOL    HW1 7301   4.196   0.413  14.780
68468SOL    HW2 7302   4.248   0.543  14.837
68469SOL     OW 7303  10.286   3.280   2.044
68469SOL    HW1 7304  10.287   3.184   2.038
68469SOL    HW2 7305  10.378   3.305   2.035
68470SOL     OW 7306   2.191   1.759   9.928
68470SOL    HW1 7307   2.118   1.818   9.947
68470SOL    HW2 7308   2.225   1.734  10.013
68471SOL     OW 7309   5.315  10.156   0.090
68471SOL    HW1 7310   5.396  10.110   0.067
68471SOL    HW2 7311   5.342  10.222   0.154
68472SOL     OW 7312   0.970   0.015   4.947
68472SOL    HW1 7313   1.029  14.813   4.962
68472SOL    HW2 7314   0.912  14.857   4.877
68473SOL     OW 7315   9.589   1.253  13.980
68473SOL    HW1 7316   9.639   1.248  13.898
68473SOL    HW2 7317   9.618   1.176  14.030
68474SOL     OW 7318  11.271  11.664  13.177
68474SOL    HW1 7319  11.265  11.755  13.150
68474SOL    HW2 7320  11.365  11.646  13.178
68475SOL     OW 7321  14.468   7.751   9.072
68475SOL    HW1 7322  14.432   7.775   8.986
68475SOL    HW2 7323  14.548   7.802   9.080
68476SOL     OW 7324   4.002  10.294  11.855
68476SOL    HW1 7325   4.002  10.209  11.812
68476SOL    HW2 7326   4.073  10.342  11.812
68477SOL     OW 7327  14.383   1.269   8.853
68477SOL    HW1 7328  14.439   1.347   8.859
68477SOL    HW2 7329  14.299   1.303   8.821
68478SOL     OW 7330   5.044   1.125   5.765
68478SOL    HW1 7331   4.967   1.068   5.762
68478SOL    HW2 7332   5.008   1.213   5.760
68479SOL     OW 7333   4.418  10.374  11.554
68479SOL    HW1 7334   4.381  10.287  11.539
68479SOL    HW2 7335   4.470  10.366  11.634
68480SOL     OW 7336   7.520  14.427  12.527
68480SOL    HW1 7337   7.578  14.501  12.512
68480SOL    HW2 7338   7.435  14.466  12.547
68481SOL     OW 7339   3.974  12.637  13.611
68481SOL    HW1 7340   4.035  12.700  13.571
68481SOL    HW2 7341   3.893  12.646  13.561
68482SOL     OW 7342   7.662   3.220  11.244
68482SOL    HW1 7343   7.729   3.181  11.187
68482SOL    HW2 7344   7.699   3.216  11.332
68483SOL     OW 7345   4.434   7.420   6.546
68483SOL    HW1 7346   4.352   7.382   6.578
68483SOL    HW2 7347   4.408   7.474   6.471
68484SOL     OW 7348  12.007  14.540  13.660
68484SOL    HW1 7349  11.951  14.464  13.647
68484SOL    HW2 7350  11.950  14.605  13.700
68485SOL     OW 7351  13.482   7.796   2.051
68485SOL    HW1 7352  13.530   7.836   1.978
68485SOL    HW2 7353  13.516   7.707   2.056
68486SOL     OW 7354  12.998   7.616   6.025
68486SOL    HW1 7355  12.937   7.689   6.039
68486SOL    HW2 7356  12.999   7.604   5.930
68487SOL     OW 7357   0.148   2.655   5.179
68487SOL    HW1 7358   0.137   2.749   5.166
68487SOL    HW2 7359   0.117   2.616   5.097
68488SOL     OW 7360   2.723   7.336   8.482
68488SOL    HW1 7361   2.746   7.361   8.393
68488SOL    HW2 7362   2.627   7.328   8.481
68489SOL     OW 7363  11.491  12.529  12.166
68489SOL    HW1 7364  11.561  12.595  12.171
68489SOL    HW2 7365  11.438  12.543  12.244
68490SOL     OW 7366  10.747  10.797   0.748
68490SOL    HW1 7367  10.664  10.752   0.731
68490SOL    HW2 7368  10.788  10.805   0.662
68491SOL     OW 7369  10.484  10.485  14.321
68491SOL    HW1 7370  10.539  10.508  14.246
68491SOL    HW2 7371  10.511  10.545  14.390
68492SOL     OW 7372  13.701   9.765  13.228
68492SOL    HW1 7373  13.706   9.670  13.220
68492SOL    HW2 7374  13.623   9.781  13.281
68493SOL     OW 7375   0.430  13.227  12.432
68493SOL    HW1 7376   0.352  13.191  12.390
68493SOL    HW2 7377   0.487  13.151  12.445
68494SOL     OW 7378  13.039   3.687   5.874
68494SOL    HW1 7379  13.033   3.671   5.968
68494SOL    HW2 7380  13.051   3.601   5.834
68495SOL     OW 7381   6.019   9.196   6.226
68495SOL    HW1 7382   5.942   9.252   6.237
68495SOL    HW2 7383   5.985   9.116   6.187
68496SOL     OW 7384   1.476   4.472  12.695
68496SOL    HW1 7385   1.456   4.475  12.788
68496SOL    HW2 7386   1.391   4.483  12.652
68497SOL     OW 7387   3.927   2.813   9.792
68497SOL    HW1 7388   3.912   2.907   9.783
68497SOL    HW2 7389   3.990   2.806   9.864
68498SOL     OW 7390  12.142   2.359  14.753
68498SOL    HW1 7391  12.100   2.317  14.828
68498SOL    HW2 7392  12.072   2.410  14.713
68499SOL     OW 7393  13.957  11.400  10.583
68499SOL    HW1 7394  14.010  11.363  10.654
68499SOL    HW2 7395  13.894  11.332  10.561
68500SOL     OW 7396   3.085   8.965  13.464
68500SOL    HW1 7397   3.177   8.989  13.457
68500SOL    HW2 7398   3.043   9.043  13.501
68501SOL     OW 7399   1.408   1.971   6.053
68501SOL    HW1 7400   1.500   1.955   6.076
68501SOL    HW2 7401   1.409   2.057   6.010
68502SOL     OW 7402   9.604   8.105  12.381
68502SOL    HW1 7403   9.578   8.197  12.375
68502SOL    HW2 7404   9.673   8.095  12.316
68503SOL     OW 7405   9.624   9.531   5.807
68503SOL    HW1 7406   9.612   9.453   5.861
68503SOL    HW2 7407   9.655   9.498   5.723
68504SOL     OW 7408   9.876   0.898   5.261
68504SOL    HW1 7409   9.801   0.955   5.244
68504SOL    HW2 7410   9.851   0.814   5.222
68505SOL     OW 7411   4.345  12.611   6.140
68505SOL    HW1 7412   4.331  12.641   6.050
68505SOL    HW2 7413   4.336  12.690   6.193
68506SOL     OW 7414   0.683   9.698   8.962
68506SOL    HW1 7415   0.629   9.738   9.030
68506SOL    HW2 7416   0.625   9.634   8.919
68507SOL     OW 7417   6.008  14.738  11.940
68507SOL    HW1 7418   5.912  14.739  11.930
68507SOL    HW2 7419   6.024  14.666  12.001
68508SOL     OW 7420   8.017  12.143   3.574
68508SOL    HW1 7421   8.066  12.135   3.656
68508SOL    HW2 7422   8.071  12.097   3.510
68509SOL     OW 7423   5.414   6.733   7.423
68509SOL    HW1 7424   5.447   6.660   7.475
68509SOL    HW2 7425   5.375   6.793   7.487
68510SOL     OW 7426   7.277  14.378   2.694
68510SOL    HW1 7427   7.303  14.294   2.731
68510SOL    HW2 7428   7.359  14.417   2.665
68511SOL     OW 7429   4.288  12.622   3.229
68511SOL    HW1 7430   4.237  12.542   3.244
68511SOL    HW2 7431   4.379  12.595   3.245
68512SOL     OW 7432   4.578  13.288   5.648
68512SOL    HW1 7433   4.637  13.230   5.696
68512SOL    HW2 7434   4.580  13.371   5.697
68513SOL     OW 7435   4.642   5.549  13.269
68513SOL    HW1 7436   4.599   5.552  13.184
68513SOL    HW2 7437   4.652   5.456  13.288
68514SOL     OW 7438   7.864   8.862  14.551
68514SOL    HW1 7439   7.917   8.848  14.629
68514SOL    HW2 7440   7.808   8.785  14.545
68515SOL     OW 7441  10.558   6.671   4.516
68515SOL    HW1 7442  10.577   6.577   4.516
68515SOL    HW2 7443  10.463   6.676   4.509
68516SOL     OW 7444  12.720   2.073   0.770
68516SOL    HW1 7445  12.676   2.015   0.832
68516SOL    HW2 7446  12.809   2.038   0.763
68517SOL     OW 7447  10.892   9.289   8.446
68517SOL    HW1 7448  10.914   9.382   8.448
68517SOL    HW2 7449  10.827   9.278   8.516
68518SOL     OW 7450   9.528   0.605   7.547
68518SOL    HW1 7451   9.582   0.651   7.483
68518SOL    HW2 7452   9.444   0.650   7.547
68519SOL     OW 7453   9.311  12.420   7.262
68519SOL    HW1 7454   9.361  12.452   7.186
68519SOL    HW2 7455   9.361  12.345   7.294
68520SOL     OW 7456   5.290   5.805   5.145
68520SOL    HW1 7457   5.316   5.844   5.228
68520SOL    HW2 7458   5.221   5.863   5.112
68521SOL     OW 7459   4.953   9.095   7.072
68521SOL    HW1 7460   5.002   9.013   7.063
68521SOL    HW2 7461   5.014   9.155   7.115
68522SOL     OW 7462   9.191  12.622   3.784
68522SOL    HW1 7463   9.248  12.553   3.816
68522SOL    HW2 7464   9.237  12.658   3.708
68523SOL     OW 7465   9.633   2.194   5.007
68523SOL    HW1 7466   9.642   2.172   5.099
68523SOL    HW2 7467   9.601   2.284   5.007
68524SOL     OW 7468   2.634   1.487  11.158
68524SOL    HW1 7469   2.588   1.569  11.176
68524SOL    HW2 7470   2.569   1.419  11.176
68525SOL     OW 7471   1.011  11.071  11.343
68525SOL    HW1 7472   1.073  11.141  11.362
68525SOL    HW2 7473   1.009  11.018  11.422
68526SOL     OW 7474   1.114   3.625   5.933
68526SOL    HW1 7475   1.131   3.634   5.839
68526SOL    HW2 7476   1.138   3.534   5.953
68527SOL     OW 7477  10.276   1.419   2.962
68527SOL    HW1 7478  10.184   1.443   2.947
68527SOL    HW2 7479  10.326   1.497   2.937
68528SOL     OW 7480  12.859   7.853   8.034
68528SOL    HW1 7481  12.780   7.864   7.981
68528SOL    HW2 7482  12.836   7.785   8.097
68529SOL     OW 7483   8.150   4.689  10.410
68529SOL    HW1 7484   8.071   4.691  10.464
68529SOL    HW2 7485   8.124   4.645  10.330
68530SOL     OW 7486  12.686   5.086  10.106
68530SOL    HW1 7487  12.638   5.003  10.109
68530SOL    HW2 7488  12.695   5.111  10.198
68531SOL     OW 7489   9.756   2.635   5.620
68531SOL    HW1 7490   9.743   2.662   5.711
68531SOL    HW2 7491   9.825   2.569   5.623
68532SOL     OW 7492  12.991   5.122  11.968
68532SOL    HW1 7493  12.905   5.141  11.928
68532SOL    HW2 7494  13.042   5.202  11.952
68533SOL     OW 7495  12.903  13.694   9.207
68533SOL    HW1 7496  12.942  13.640   9.276
68533SOL    HW2 7497  12.907  13.783   9.240
68534SOL     OW 7498  10.294   4.442  12.816
68534SOL    HW1 7499  10.255   4.508  12.759
68534SOL    HW2 7500  10.262   4.462  12.903
68535SOL     OW 7501   2.119   5.781  10.058
68535SOL    HW1 7502   2.115   5.685  10.063
68535SOL    HW2 7503   2.057   5.811  10.124
68536SOL     OW 7504   6.438  14.760   2.205
68536SOL    HW1 7505   6.398  14.784   2.289
68536SOL    HW2 7506   6.514  14.817   2.197
68537SOL     OW 7507   8.305   2.645   7.212
68537SOL    HW1 7508   8.244   2.598   7.155
68537SOL    HW2 7509   8.391   2.632   7.172
68538SOL     OW 7510   9.199   7.324   6.263
68538SOL    HW1 7511   9.268   7.271   6.303
68538SOL    HW2 7512   9.213   7.315   6.169
68539SOL     OW 7513  14.023   3.703  14.464
68539SOL    HW1 7514  13.946   3.676  14.415
68539SOL    HW2 7515  14.010   3.797  14.479
68540SOL     OW 7516   3.024  10.836   8.217
68540SOL    HW1 7517   2.973  10.845   8.297
68540SOL    HW2 7518   2.970  10.781   8.160
68541SOL     OW 7519  13.251  12.677  11.628
68541SOL    HW1 7520  13.304  12.704  11.704
68541SOL    HW2 7521  13.212  12.594  11.655
68542SOL     OW 7522  14.370   2.323   4.060
68542SOL    HW1 7523  14.297   2.276   4.020
68542SOL    HW2 7524  14.445   2.302   4.005
68543SOL     OW 7525   9.749  12.640  10.909
68543SOL    HW1 7526   9.796  12.684  10.838
68543SOL    HW2 7527   9.658  12.634  10.878
68544SOL     OW 7528  12.565   3.027   0.481
68544SOL    HW1 7529  12.580   3.025   0.575
68544SOL    HW2 7530  12.581   2.938   0.451
68545SOL     OW 7531  10.782   8.241   1.147
68545SOL    HW1 7532  10.750   8.331   1.137
68545SOL    HW2 7533  10.705   8.192   1.176
68546SOL     OW 7534  12.363   1.833   0.584
68546SOL    HW1 7535  12.419   1.808   0.657
68546SOL    HW2 7536  12.334   1.922   0.605
68547SOL     OW 7537   0.033   9.684   1.740
68547SOL    HW1 7538   0.061   9.616   1.801
68547SOL    HW2 7539  14.815   9.661   1.718
68548SOL     OW 7540   4.895   7.633  13.451
68548SOL    HW1 7541   4.864   7.712  13.496
68548SOL    HW2 7542   4.893   7.565  13.518
68549SOL     OW 7543   7.450   6.739   8.003
68549SOL    HW1 7544   7.377   6.802   8.000
68549SOL    HW2 7545   7.456   6.704   7.915
68550SOL     OW 7546   2.783   1.524   0.349
68550SOL    HW1 7547   2.708   1.541   0.406
68550SOL    HW2 7548   2.851   1.585   0.379
68551SOL     OW 7549   5.886  13.469  13.709
68551SOL    HW1 7550   5.850  13.384  13.736
68551SOL    HW2 7551   5.936  13.499  13.785
68552SOL     OW 7552   0.971  13.383   0.139
68552SOL    HW1 7553   0.884  13.353   0.165
68552SOL    HW2 7554   0.969  13.477   0.154
68553SOL     OW 7555   7.886   5.819   9.509
68553SOL    HW1 7556   7.802   5.865   9.498
68553SOL    HW2 7557   7.861   5.727   9.518
68554SOL     OW 7558  11.419   7.231   8.188
68554SOL    HW1 7559  11.391   7.269   8.105
68554SOL    HW2 7560  11.501   7.186   8.167
68555SOL     OW 7561   4.157  14.002   2.336
68555SOL    HW1 7562   4.135  13.938   2.268
68555SOL    HW2 7563   4.250  14.020   2.322
68556SOL     OW 7564   2.280   1.992   7.133
68556SOL    HW1 7565   2.218   1.919   7.130
68556SOL    HW2 7566   2.261   2.036   7.216
68557SOL     OW 7567   8.424   7.189  14.485
68557SOL    HW1 7568   8.450   7.167  14.574
68557SOL    HW2 7569   8.503   7.176  14.432
68558SOL     OW 7570   3.444  14.709   6.981
68558SOL    HW1 7571   3.481  14.679   7.064
68558SOL    HW2 7572   3.398  14.633   6.947
68559SOL     OW 7573  13.580  10.313   0.503
68559SOL    HW1 7574  13.552  10.282   0.417
68559SOL    HW2 7575  13.675  10.304   0.501
68560SOL     OW 7576   5.527   0.810  14.359
68560SOL    HW1 7577   5.539   0.898  14.396
68560SOL    HW2 7578   5.605   0.762  14.389
68561SOL     OW 7579  12.074   3.672  14.074
68561SOL    HW1 7580  12.066   3.707  13.985
68561SOL    HW2 7581  12.146   3.721  14.113
68562SOL     OW 7582   1.049   3.433   2.946
68562SOL    HW1 7583   1.026   3.342   2.930
68562SOL    HW2 7584   1.144   3.437   2.932
68563SOL     OW 7585   8.773   2.089  14.291
68563SOL    HW1 7586   8.808   2.120  14.207
68563SOL    HW2 7587   8.731   2.166  14.329
68564SOL     OW 7588  10.104  13.395  11.786
68564SOL    HW1 7589  10.183  13.363  11.741
68564SOL    HW2 7590  10.032  13.370  11.728
68565SOL     OW 7591   6.378   4.964   5.300
68565SOL    HW1 7592   6.285   4.972   5.276
68565SOL    HW2 7593   6.409   4.889   5.249
68566SOL     OW 7594   9.625  12.114   3.292
68566SOL    HW1 7595   9.632  12.209   3.300
68566SOL    HW2 7596   9.542  12.092   3.334
68567SOL     OW 7597   9.853   8.337   7.211
68567SOL    HW1 7598   9.893   8.406   7.159
68567SOL    HW2 7599   9.925   8.302   7.264
68568SOL     OW 7600   0.605  14.531   7.327
68568SOL    HW1 7601   0.591  14.587   7.404
68568SOL    HW2 7602   0.701  14.527   7.318
68569SOL     OW 7603   4.295  13.583   7.355
68569SOL    HW1 7604   4.339  13.547   7.432
68569SOL    HW2 7605   4.341  13.545   7.280
68570SOL     OW 7606   0.016   2.209  11.050
68570SOL    HW1 7607   0.043   2.250  10.968
68570SOL    HW2 7608   0.040   2.117  11.040
68571SOL     OW 7609   6.223   5.048   7.028
68571SOL    HW1 7610   6.249   5.003   7.109
68571SOL    HW2 7611   6.131   5.026   7.016
68572SOL     OW 7612   1.448   3.144  10.601
68572SOL    HW1 7613   1.439   3.238  10.584
68572SOL    HW2 7614   1.358   3.110  10.596
68573SOL     OW 7615   9.332  10.577   0.397
68573SOL    HW1 7616   9.426  10.595   0.408
68573SOL    HW2 7617   9.303  10.549   0.484
68574SOL     OW 7618  13.259   2.212   3.034
68574SOL    HW1 7619  13.264   2.215   3.130
68574SOL    HW2 7620  13.209   2.133   3.015
68575SOL     OW 7621  10.110  14.702   4.989
68575SOL    HW1 7622  10.069  14.663   4.911
68575SOL    HW2 7623  10.052  14.774   5.013
68576SOL     OW 7624   4.384   0.159   1.133
68576SOL    HW1 7625   4.478   0.153   1.148
68576SOL    HW2 7626   4.368   0.101   1.059
68577SOL     OW 7627   0.792   2.756   9.804
68577SOL    HW1 7628   0.837   2.697   9.866
68577SOL    HW2 7629   0.775   2.701   9.728
68578SOL     OW 7630  12.436   5.289  14.853
68578SOL    HW1 7631  12.383   5.344  14.795
68578SOL    HW2 7632  12.448   5.208  14.805
68579SOL     OW 7633  13.346   2.702   4.113
68579SOL    HW1 7634  13.419   2.642   4.095
68579SOL    HW2 7635  13.386   2.788   4.119
68580SOL     OW 7636   3.846  13.493  10.240
68580SOL    HW1 7637   3.794  13.527  10.167
68580SOL    HW2 7638   3.791  13.508  10.317
68581SOL     OW 7639  10.680   7.357   3.005
68581SOL    HW1 7640  10.772   7.365   2.979
68581SOL    HW2 7641  10.638   7.434   2.965
68582SOL     OW 7642   3.420  10.223  10.493
68582SOL    HW1 7643   3.364  10.209  10.569
68582SOL    HW2 7644   3.504  10.184  10.517
68583SOL     OW 7645   3.366   7.988   2.214
68583SOL    HW1 7646   3.392   7.990   2.122
68583SOL    HW2 7647   3.365   7.895   2.236
68584SOL     OW 7648   4.315  12.641   1.438
68584SOL    HW1 7649   4.378  12.709   1.416
68584SOL    HW2 7650   4.244  12.652   1.374
68585SOL     OW 7651   7.526   5.754   7.416
68585SOL    HW1 7652   7.548   5.775   7.507
68585SOL    HW2 7653   7.568   5.823   7.364
68586SOL     OW 7654   6.954  10.719   7.141
68586SOL    HW1 7655   6.979  10.688   7.228
68586SOL    HW2 7656   6.952  10.814   7.150
68587SOL     OW 7657   4.810   1.232   2.392
68587SOL    HW1 7658   4.787   1.149   2.349
68587SOL    HW2 7659   4.794   1.216   2.485
68588SOL     OW 7660   0.947   7.062  14.620
68588SOL    HW1 7661   1.012   6.997  14.646
68588SOL    HW2 7662   0.953   7.065  14.524
68589SOL     OW 7663   1.030  10.062  12.292
68589SOL    HW1 7664   1.106  10.027  12.247
68589SOL    HW2 7665   0.981   9.984  12.321
68590SOL     OW 7666  11.433  10.160  14.454
68590SOL    HW1 7667  11.379  10.232  14.423
68590SOL    HW2 7668  11.511  10.203  14.491
68591SOL     OW 7669   2.347   3.607  10.507
68591SOL    HW1 7670   2.381   3.644  10.425
68591SOL    HW2 7671   2.410   3.636  10.573
68592SOL     OW 7672  10.409   6.730  12.362
68592SOL    HW1 7673  10.466   6.690  12.296
68592SOL    HW2 7674  10.449   6.815  12.380
68593SOL     OW 7675   1.298   8.353   1.114
68593SOL    HW1 7676   1.328   8.360   1.205
68593SOL    HW2 7677   1.349   8.280   1.078
68594SOL     OW 7678   5.432  14.018  11.977
68594SOL    HW1 7679   5.446  13.928  12.005
68594SOL    HW2 7680   5.411  14.065  12.058
68595SOL     OW 7681   4.150   3.193   7.187
68595SOL    HW1 7682   4.147   3.103   7.219
68595SOL    HW2 7683   4.236   3.225   7.214
68596SOL     OW 7684   4.728   9.318   2.766
68596SOL    HW1 7685   4.677   9.245   2.729
68596SOL    HW2 7686   4.697   9.395   2.720
68597SOL     OW 7687   8.911   8.385  10.497
68597SOL    HW1 7688   8.848   8.438  10.546
68597SOL    HW2 7689   8.857   8.317  10.456
68598SOL     OW 7690   5.823   1.852   2.079
68598SOL    HW1 7691   5.757   1.876   2.014
68598SOL    HW2 7692   5.889   1.921   2.074
68599SOL     OW 7693   9.479  12.152   8.439
68599SOL    HW1 7694   9.419  12.151   8.514
68599SOL    HW2 7695   9.429  12.114   8.367
68600SOL     OW 7696   2.829   1.797  12.459
68600SOL    HW1 7697   2.796   1.884  12.483
68600SOL    HW2 7698   2.763   1.736  12.493
68601SOL     OW 7699   9.409  11.624   7.520
68601SOL    HW1 7700   9.503  11.626   7.503
68601SOL    HW2 7701   9.399  11.661   7.607
68602SOL     OW 7702   8.639   3.411   8.057
68602SOL    HW1 7703   8.603   3.382   7.973
68602SOL    HW2 7704   8.678   3.332   8.094
68603SOL     OW 7705   3.135   2.864   1.624
68603SOL    HW1 7706   3.093   2.826   1.547
68603SOL    HW2 7707   3.126   2.798   1.692
68604SOL     OW 7708   8.209  14.568   3.471
68604SOL    HW1 7709   8.173  14.627   3.405
68604SOL    HW2 7710   8.225  14.624   3.547
68605SOL     OW 7711   5.426   0.911   5.772
68605SOL    HW1 7712   5.425   0.888   5.679
68605SOL    HW2 7713   5.434   1.006   5.774
68606SOL     OW 7714  11.476   5.432   8.924
68606SOL    HW1 7715  11.403   5.480   8.886
68606SOL    HW2 7716  11.442   5.398   9.007
68607SOL     OW 7717   9.636  11.845   8.856
68607SOL    HW1 7718   9.614  11.938   8.864
68607SOL    HW2 7719   9.650  11.817   8.946
68608SOL     OW 7720  14.093  14.128   3.670
68608SOL    HW1 7721  14.072  14.038   3.645
68608SOL    HW2 7722  14.136  14.120   3.755
68609SOL     OW 7723   9.800   1.099   7.294
68609SOL    HW1 7724   9.720   1.051   7.314
68609SOL    HW2 7725   9.850   1.040   7.238
68610SOL     OW 7726   3.467  10.974   8.314
68610SOL    HW1 7727   3.487  10.883   8.291
68610SOL    HW2 7728   3.384  10.992   8.271
68611SOL     OW 7729   0.941   3.178   2.958
68611SOL    HW1 7730   1.013   3.117   2.968
68611SOL    HW2 7731   0.863   3.128   2.983
68612SOL     OW 7732  13.681  13.397   6.338
68612SOL    HW1 7733  13.658  13.311   6.373
68612SOL    HW2 7734  13.716  13.379   6.250
68613SOL     OW 7735   8.013   5.557   8.397
68613SOL    HW1 7736   7.988   5.639   8.439
68613SOL    HW2 7737   7.937   5.500   8.409
68614SOL     OW 7738  11.078   9.951  10.883
68614SOL    HW1 7739  11.167   9.973  10.857
68614SOL    HW2 7740  11.064   9.863  10.848
68615SOL     OW 7741   9.570   0.542   3.656
68615SOL    HW1 7742   9.518   0.498   3.723
68615SOL    HW2 7743   9.544   0.499   3.574
68616SOL     OW 7744   5.112   9.967   0.419
68616SOL    HW1 7745   5.081   9.915   0.494
68616SOL    HW2 7746   5.188  10.014   0.454
68617SOL     OW 7747   8.231   1.117   5.027
68617SOL    HW1 7748   8.228   1.160   4.942
68617SOL    HW2 7749   8.300   1.162   5.075
68618SOL     OW 7750  12.283   6.868  14.338
68618SOL    HW1 7751  12.289   6.775  14.315
68618SOL    HW2 7752  12.194   6.878  14.373
68619SOL     OW 7753  11.731   8.659   1.296
68619SOL    HW1 7754  11.801   8.661   1.230
68619SOL    HW2 7755  11.651   8.664   1.245
68620SOL     OW 7756  10.933   4.456   5.247
68620SOL    HW1 7757  10.914   4.384   5.308
68620SOL    HW2 7758  10.856   4.458   5.189
68621SOL     OW 7759   1.383   0.053   9.892
68621SOL    HW1 7760   1.462   0.036   9.944
68621SOL    HW2 7761   1.415   0.060   9.802
68622SOL     OW 7762   5.417   1.548  14.655
68622SOL    HW1 7763   5.420   1.553  14.750
68622SOL    HW2 7764   5.494   1.597  14.626
68623SOL     OW 7765  12.981   5.295   4.260
68623SOL    HW1 7766  13.028   5.335   4.187
68623SOL    HW2 7767  12.892   5.330   4.255
68624SOL     OW 7768   9.948   2.076   0.726
68624SOL    HW1 7769   9.951   2.135   0.650
68624SOL    HW2 7770  10.013   2.113   0.786
68625SOL     OW 7771  12.699   2.155   2.143
68625SOL    HW1 7772  12.742   2.238   2.160
68625SOL    HW2 7773  12.753   2.113   2.076
68626SOL     OW 7774   5.644  14.488  13.772
68626SOL    HW1 7775   5.612  14.537  13.696
68626SOL    HW2 7776   5.567  14.444  13.807
68627SOL     OW 7777  14.511  12.172   3.958
68627SOL    HW1 7778  14.417  12.159   3.960
68627SOL    HW2 7779  14.541  12.122   3.882
68628SOL     OW 7780  13.334  11.658   0.167
68628SOL    HW1 7781  13.254  11.611   0.192
68628SOL    HW2 7782  13.332  11.738   0.220
68629SOL     OW 7783   4.275   0.550   7.222
68629SOL    HW1 7784   4.194   0.601   7.209
68629SOL    HW2 7785   4.268   0.478   7.160
68630SOL     OW 7786  12.663  13.348  12.683
68630SOL    HW1 7787  12.680  13.386  12.597
68630SOL    HW2 7788  12.724  13.274  12.689
68631SOL     OW 7789   4.733   4.622   9.624
68631SOL    HW1 7790   4.761   4.605   9.714
68631SOL    HW2 7791   4.771   4.707   9.603
68632SOL     OW 7792   2.841   4.126   8.461
68632SOL    HW1 7793   2.869   4.175   8.538
68632SOL    HW2 7794   2.787   4.189   8.411
68633SOL     OW 7795   8.810  14.176  12.882
68633SOL    HW1 7796   8.738  14.144  12.936
68633SOL    HW2 7797   8.768  14.201  12.799
68634SOL     OW 7798  14.672  12.300  13.721
68634SOL    HW1 7799  14.593  12.259  13.687
68634SOL    HW2 7800  14.645  12.337  13.806
68635SOL     OW 7801   8.022  10.703   8.997
68635SOL    HW1 7802   7.927  10.696   8.991
68635SOL    HW2 7803   8.052  10.693   8.907
68636SOL     OW 7804  11.267   3.845  13.602
68636SOL    HW1 7805  11.275   3.935  13.571
68636SOL    HW2 7806  11.333   3.796  13.554
68637SOL     OW 7807   6.907  10.256   1.584
68637SOL    HW1 7808   6.900  10.170   1.544
68637SOL    HW2 7809   6.828  10.266   1.636
68638SOL     OW 7810  11.588   9.071   4.569
68638SOL    HW1 7811  11.545   9.033   4.645
68638SOL    HW2 7812  11.613   9.159   4.596
68639SOL     OW 7813  13.397   9.110   6.615
68639SOL    HW1 7814  13.308   9.076   6.608
68639SOL    HW2 7815  13.447   9.060   6.552
68640SOL     OW 7816  13.099  12.111  13.744
68640SOL    HW1 7817  13.180  12.157  13.764
68640SOL    HW2 7818  13.030  12.171  13.773
68641SOL     OW 7819  11.153   5.181  10.589
68641SOL    HW1 7820  11.204   5.244  10.641
68641SOL    HW2 7821  11.178   5.095  10.625
68642SOL     OW 7822  11.906  11.351   5.942
68642SOL    HW1 7823  11.881  11.321   5.855
68642SOL    HW2 7824  11.824  11.349   5.992
68643SOL     OW 7825   2.291   6.108   4.977
68643SOL    HW1 7826   2.264   6.180   4.920
68643SOL    HW2 7827   2.321   6.040   4.916
68644SOL     OW 7828   3.827   5.978  11.857
68644SOL    HW1 7829   3.813   5.907  11.794
68644SOL    HW2 7830   3.740   5.993  11.895
68645SOL     OW 7831   1.755  10.609  10.845
68645SOL    HW1 7832   1.737  10.658  10.765
68645SOL    HW2 7833   1.721  10.664  10.915
68646SOL     OW 7834   6.382   1.096   4.897
68646SOL    HW1 7835   6.469   1.058   4.888
68646SOL    HW2 7836   6.334   1.034   4.951
68647SOL     OW 7837   3.648   0.380   2.388
68647SOL    HW1 7838   3.728   0.388   2.335
68647SOL    HW2 7839   3.680   0.382   2.478
68648SOL     OW 7840   6.135  13.516   9.807
68648SOL    HW1 7841   6.153  13.545   9.718
68648SOL    HW2 7842   6.212  13.543   9.857
68649SOL     OW 7843  10.636   2.646   5.897
68649SOL    HW1 7844  10.633   2.734   5.860
68649SOL    HW2 7845  10.720   2.611   5.867
68650SOL     OW 7846   5.949   1.171   3.493
68650SOL    HW1 7847   5.914   1.250   3.535
68650SOL    HW2 7848   5.894   1.160   3.415
68651SOL     OW 7849  12.851   7.441   3.507
68651SOL    HW1 7850  12.792   7.369   3.487
68651SOL    HW2 7851  12.923   7.432   3.446
68652SOL     OW 7852   0.686  12.518   0.879
68652SOL    HW1 7853   0.654  12.595   0.832
68652SOL    HW2 7854   0.766  12.492   0.832
68653SOL     OW 7855  13.389   6.767  12.807
68653SOL    HW1 7856  13.390   6.790  12.900
68653SOL    HW2 7857  13.296   6.773  12.783
68654SOL     OW 7858   7.026   0.276  10.075
68654SOL    HW1 7859   6.970   0.342  10.115
68654SOL    HW2 7860   6.997   0.194  10.114
68655SOL     OW 7861   8.222   3.495   2.695
68655SOL    HW1 7862   8.142   3.527   2.655
68655SOL    HW2 7863   8.245   3.561   2.761
68656SOL     OW 7864   9.215   1.940   3.272
68656SOL    HW1 7865   9.252   1.973   3.190
68656SOL    HW2 7866   9.155   2.010   3.300
68657SOL     OW 7867   8.126  11.927   1.444
68657SOL    HW1 7868   8.176  12.004   1.419
68657SOL    HW2 7869   8.135  11.924   1.540
68658SOL     OW 7870   1.408  14.624  10.905
68658SOL    HW1 7871   1.426  14.532  10.889
68658SOL    HW2 7872   1.314  14.633  10.896
68659SOL     OW 7873   0.927   2.904   6.882
68659SOL    HW1 7874   0.957   2.889   6.972
68659SOL    HW2 7875   1.007   2.922   6.833
68660SOL     OW 7876  13.838   9.418   6.277
68660SOL    HW1 7877  13.767   9.355   6.275
68660SOL    HW2 7878  13.800   9.499   6.241
68661SOL     OW 7879  14.701   2.947  10.825
68661SOL    HW1 7880  14.790   2.957  10.791
68661SOL    HW2 7881  14.668   3.037  10.832
68662SOL     OW 7882  13.694  10.011   6.501
68662SOL    HW1 7883  13.679   9.917   6.485
68662SOL    HW2 7884  13.715  10.016   6.594
68663SOL     OW 7885  11.828   3.325  14.860
68663SOL    HW1 7886  11.805   3.232  14.866
68663SOL    HW2 7887  11.897   3.338   0.053
68664SOL     OW 7888   1.183   7.405   2.082
68664SOL    HW1 7889   1.261   7.446   2.121
68664SOL    HW2 7890   1.117   7.411   2.151
68665SOL     OW 7891  13.260   6.894   4.046
68665SOL    HW1 7892  13.266   6.856   4.133
68665SOL    HW2 7893  13.185   6.851   4.005
68666SOL     OW 7894   5.752  10.362  11.944
68666SOL    HW1 7895   5.759  10.368  12.040
68666SOL    HW2 7896   5.661  10.385  11.926
68667SOL     OW 7897   0.016  12.306   5.438
68667SOL    HW1 7898   0.001  12.335   5.528
68667SOL    HW2 7899  14.862  12.381   5.384
68668SOL     OW 7900   9.384  12.066   5.545
68668SOL    HW1 7901   9.296  12.066   5.509
68668SOL    HW2 7902   9.379  12.007   5.621
68669SOL     OW 7903   2.728   0.226   2.413
68669SOL    HW1 7904   2.707   0.306   2.365
68669SOL    HW2 7905   2.658   0.217   2.477
68670SOL     OW 7906   3.333   4.651   6.951
68670SOL    HW1 7907   3.280   4.716   6.996
68670SOL    HW2 7908   3.392   4.616   7.018
68671SOL     OW 7909   3.774   1.924   6.943
68671SOL    HW1 7910   3.839   1.930   6.873
68671SOL    HW2 7911   3.690   1.934   6.897
68672SOL     OW 7912  11.816  13.138   2.291
68672SOL    HW1 7913  11.734  13.188   2.293
68672SOL    HW2 7914  11.875  13.188   2.347
68673SOL     OW 7915   3.128  11.476   8.974
68673SOL    HW1 7916   3.194  11.433   9.028
68673SOL    HW2 7917   3.045  11.439   9.003
68674SOL     OW 7918  11.172   8.689  12.455
68674SOL    HW1 7919  11.144   8.752  12.522
68674SOL    HW2 7920  11.092   8.672  12.404
68675SOL     OW 7921   7.390   7.828   1.354
68675SOL    HW1 7922   7.382   7.888   1.427
68675SOL    HW2 7923   7.484   7.812   1.345
68676SOL     OW 7924   7.006   7.364  13.733
68676SOL    HW1 7925   6.979   7.299  13.798
68676SOL    HW2 7926   7.011   7.315  13.651
68677SOL     OW 7927   9.580   9.868   6.372
68677SOL    HW1 7928   9.658   9.815   6.359
68677SOL    HW2 7929   9.542   9.879   6.285
68678SOL     OW 7930  10.112   2.647   7.724
68678SOL    HW1 7931  10.156   2.569   7.690
68678SOL    HW2 7932  10.019   2.626   7.717
68679SOL     OW 7933   6.087  12.257   7.052
68679SOL    HW1 7934   6.160  12.204   7.023
68679SOL    HW2 7935   6.020  12.245   6.985
68680SOL     OW 7936  11.584   5.112  11.479
68680SOL    HW1 7937  11.534   5.032  11.463
68680SOL    HW2 7938  11.671   5.094  11.443
68681SOL     OW 7939   1.212   4.590  12.151
68681SOL    HW1 7940   1.179   4.614  12.237
68681SOL    HW2 7941   1.224   4.673  12.105
68682SOL     OW 7942  11.237   9.091   4.354
68682SOL    HW1 7943  11.252   9.129   4.441
68682SOL    HW2 7944  11.306   9.025   4.345
68683SOL     OW 7945   7.105  10.913   2.916
68683SOL    HW1 7946   7.114  11.004   2.943
68683SOL    HW2 7947   7.190  10.889   2.879
68684SOL     OW 7948  12.657   4.188   1.458
68684SOL    HW1 7949  12.742   4.144   1.467
68684SOL    HW2 7950  12.652   4.211   1.366
68685SOL     OW 7951  13.507  14.526   1.861
68685SOL    HW1 7952  13.464  14.442   1.869
68685SOL    HW2 7953  13.508  14.562   1.950
68686SOL     OW 7954   3.351  14.528   8.766
68686SOL    HW1 7955   3.374  14.615   8.734
68686SOL    HW2 7956   3.354  14.473   8.688
68687SOL     OW 7957   7.330  14.717  11.033
68687SOL    HW1 7958   7.348  14.703  11.126
68687SOL    HW2 7959   7.275  14.795  11.030
68688SOL     OW 7960   4.412   8.035  11.194
68688SOL    HW1 7961   4.344   7.972  11.215
68688SOL    HW2 7962   4.408   8.099  11.266
68689SOL     OW 7963  12.600  10.586   4.428
68689SOL    HW1 7964  12.620  10.577   4.335
68689SOL    HW2 7965  12.504  10.591   4.431
68690SOL     OW 7966   1.510   0.316   1.381
68690SOL    HW1 7967   1.505   0.262   1.302
68690SOL    HW2 7968   1.429   0.298   1.429
68691SOL     OW 7969   8.884  10.579   9.600
68691SOL    HW1 7970   8.874  10.541   9.687
68691SOL    HW2 7971   8.863  10.672   9.612
68692SOL     OW 7972  14.200   8.266   6.357
68692SOL    HW1 7973  14.193   8.296   6.448
68692SOL    HW2 7974  14.157   8.334   6.306
68693SOL     OW 7975   8.375   7.497   0.153
68693SOL    HW1 7976   8.319   7.500   0.230
68693SOL    HW2 7977   8.334   7.434   0.095
68694SOL     OW 7978  11.662   3.018   6.073
68694SOL    HW1 7979  11.753   3.036   6.098
68694SOL    HW2 7980  11.668   2.970   5.991
68695SOL     OW 7981   7.362  13.190   2.456
68695SOL    HW1 7982   7.294  13.193   2.388
68695SOL    HW2 7983   7.444  13.204   2.408
68696SOL     OW 7984   6.673   6.547   3.281
68696SOL    HW1 7985   6.643   6.596   3.205
68696SOL    HW2 7986   6.733   6.481   3.245
68697SOL     OW 7987  11.283  13.140  12.265
68697SOL    HW1 7988  11.277  13.104  12.176
68697SOL    HW2 7989  11.275  13.235  12.252
68698SOL     OW 7990   3.380  10.931   0.740
68698SOL    HW1 7991   3.294  10.962   0.769
68698SOL    HW2 7992   3.373  10.835   0.742
68699SOL     OW 7993   7.888   0.851   8.626
68699SOL    HW1 7994   7.875   0.773   8.680
68699SOL    HW2 7995   7.937   0.911   8.683
68700SOL     OW 7996   0.887  12.147   7.415
68700SOL    HW1 7997   0.917  12.109   7.333
68700SOL    HW2 7998   0.924  12.092   7.483
68701SOL     OW 7999   6.130   5.545  14.415
68701SOL    HW1 8000   6.210   5.596  14.426
68701SOL    HW2 8001   6.094   5.539  14.504
68702SOL     OW 8002   0.839  14.725   4.408
68702SOL    HW1 8003   0.783  14.669   4.462
68702SOL    HW2 8004   0.779  14.769   4.348
68703SOL     OW 8005  14.125   7.334  14.566
68703SOL    HW1 8006  14.125   7.258  14.508
68703SOL    HW2 8007  14.210   7.375  14.552
68704SOL     OW 8008   7.342   6.233   9.156
68704SOL    HW1 8009   7.308   6.144   9.167
68704SOL    HW2 8010   7.368   6.237   9.064
68705SOL     OW 8011   7.916   9.964   9.078
68705SOL    HW1 8012   7.832   9.921   9.096
68705SOL    HW2 8013   7.973   9.936   9.149
68706SOL     OW 8014  10.722  10.147  13.944
68706SOL    HW1 8015  10.662  10.124  13.873
68706SOL    HW2 8016  10.798  10.091  13.929
68707SOL     OW 8017  13.009   8.029   5.262
68707SOL    HW1 8018  12.943   7.961   5.246
68707SOL    HW2 8019  13.080   7.984   5.307
68708SOL     OW 8020  11.964   9.990  12.948
68708SOL    HW1 8021  11.956  10.056  13.017
68708SOL    HW2 8022  12.058   9.988  12.928
68709SOL     OW 8023   0.185   4.808  10.222
68709SOL    HW1 8024   0.151   4.722  10.201
68709SOL    HW2 8025   0.127   4.841  10.291
68710SOL     OW 8026   0.911   2.534   6.111
68710SOL    HW1 8027   1.002   2.509   6.126
68710SOL    HW2 8028   0.860   2.475   6.167
68711SOL     OW 8029   7.299   8.955   3.172
68711SOL    HW1 8030   7.270   8.864   3.177
68711SOL    HW2 8031   7.395   8.950   3.169
68712SOL     OW 8032   3.338   8.338   9.342
68712SOL    HW1 8033   3.296   8.420   9.315
68712SOL    HW2 8034   3.388   8.362   9.420
68713SOL     OW 8035  11.462   9.261   1.276
68713SOL    HW1 8036  11.401   9.206   1.326
68713SOL    HW2 8037  11.406   9.328   1.237
68714SOL     OW 8038  14.217  13.023   4.259
68714SOL    HW1 8039  14.273  13.073   4.200
68714SOL    HW2 8040  14.137  13.075   4.265
68715SOL     OW 8041  14.709  14.750   2.806
68715SOL    HW1 8042  14.733  14.708   2.888
68715SOL    HW2 8043  14.663  14.830   2.832
68716SOL     OW 8044   8.939  12.017  12.557
68716SOL    HW1 8045   9.019  12.008  12.609
68716SOL    HW2 8046   8.948  12.101  12.512
68717SOL     OW 8047   9.379   1.984   3.958
68717SOL    HW1 8048   9.294   1.943   3.975
68717SOL    HW2 8049   9.442   1.912   3.961
68718SOL     OW 8050   0.828   5.175  10.265
68718SOL    HW1 8051   0.842   5.246  10.327
68718SOL    HW2 8052   0.843   5.095  10.315
68719SOL     OW 8053   6.424  10.053  11.150
68719SOL    HW1 8054   6.358  10.117  11.126
68719SOL    HW2 8055   6.382   9.998  11.216
68720SOL     OW 8056   5.448  11.125   6.889
68720SOL    HW1 8057   5.366  11.129   6.839
68720SOL    HW2 8058   5.432  11.059   6.956
68721SOL     OW 8059  10.316  10.089  11.308
68721SOL    HW1 8060  10.276  10.136  11.234
68721SOL    HW2 8061  10.252  10.098  11.379
68722SOL     OW 8062   5.420   1.908   0.457
68722SOL    HW1 8063   5.349   1.972   0.466
68722SOL    HW2 8064   5.497   1.960   0.433
68723SOL     OW 8065   6.589   1.671   0.301
68723SOL    HW1 8066   6.532   1.640   0.231
68723SOL    HW2 8067   6.538   1.739   0.345
68724SOL     OW 8068  12.737   6.788   1.115
68724SOL    HW1 8069  12.717   6.810   1.024
68724SOL    HW2 8070  12.660   6.740   1.146
68725SOL     OW 8071  10.067   1.966   2.289
68725SOL    HW1 8072   9.997   2.028   2.311
68725SOL    HW2 8073  10.026   1.905   2.228
68726SOL     OW 8074   1.924  11.706   6.449
68726SOL    HW1 8075   1.865  11.632   6.439
68726SOL    HW2 8076   1.872  11.782   6.421
68727SOL     OW 8077   7.243   4.731   7.278
68727SOL    HW1 8078   7.311   4.699   7.219
68727SOL    HW2 8079   7.195   4.795   7.226
68728SOL     OW 8080   0.867  13.278  10.298
68728SOL    HW1 8081   0.891  13.186  10.288
68728SOL    HW2 8082   0.949  13.326  10.281
68729SOL     OW 8083   0.444   6.337   3.409
68729SOL    HW1 8084   0.467   6.360   3.499
68729SOL    HW2 8085   0.525   6.302   3.373
68730SOL     OW 8086  11.957  10.533  11.001
68730SOL    HW1 8087  11.885  10.587  11.032
68730SOL    HW2 8088  11.994  10.582  10.927
68731SOL     OW 8089   9.646   5.659  12.163
68731SOL    HW1 8090   9.717   5.620  12.113
68731SOL    HW2 8091   9.645   5.751  12.136
68732SOL     OW 8092  11.288  10.007   2.854
68732SOL    HW1 8093  11.291  10.074   2.785
68732SOL    HW2 8094  11.293  10.057   2.936
68733SOL     OW 8095   4.756   2.629   5.400
68733SOL    HW1 8096   4.764   2.692   5.472
68733SOL    HW2 8097   4.697   2.670   5.338
68734SOL     OW 8098   4.787   1.435   8.676
68734SOL    HW1 8099   4.694   1.411   8.673
68734SOL    HW2 8100   4.796   1.503   8.609
68735SOL     OW 8101   8.058   8.863   7.002
68735SOL    HW1 8102   8.013   8.788   7.039
68735SOL    HW2 8103   8.151   8.842   7.009
68736SOL     OW 8104  11.230   5.928  13.774
68736SOL    HW1 8105  11.313   5.909  13.819
68736SOL    HW2 8106  11.228   5.866  13.702
68737SOL     OW 8107  13.263   4.933   2.319
68737SOL    HW1 8108  13.298   4.895   2.399
68737SOL    HW2 8109  13.242   4.859   2.263
68738SOL     OW 8110   1.408   9.536   9.239
68738SOL    HW1 8111   1.480   9.564   9.296
68738SOL    HW2 8112   1.410   9.596   9.165
68739SOL     OW 8113   9.158   1.175   9.260
68739SOL    HW1 8114   9.122   1.102   9.209
68739SOL    HW2 8115   9.088   1.198   9.321
68740SOL     OW 8116   2.051  13.305   9.540
68740SOL    HW1 8117   1.975  13.353   9.573
68740SOL    HW2 8118   2.074  13.349   9.458
68741SOL     OW 8119   6.300   3.159  11.302
68741SOL    HW1 8120   6.235   3.094  11.272
68741SOL    HW2 8121   6.323   3.208  11.223
68742SOL     OW 8122   1.224   1.861  11.363
68742SOL    HW1 8123   1.183   1.946  11.343
68742SOL    HW2 8124   1.318   1.879  11.357
68743SOL     OW 8125   0.013  12.560   7.747
68743SOL    HW1 8126   0.085  12.551   7.809
68743SOL    HW2 8127  14.833  12.481   7.758
68744SOL     OW 8128  10.389   7.332   6.683
68744SOL    HW1 8129  10.361   7.368   6.598
68744SOL    HW2 8130  10.310   7.292   6.719
68745SOL     OW 8131  10.017   3.632   5.348
68745SOL    HW1 8132  10.014   3.544   5.309
68745SOL    HW2 8133  10.075   3.682   5.290
68746SOL     OW 8134  13.757   9.901  10.729
68746SOL    HW1 8135  13.835   9.845  10.734
68746SOL    HW2 8136  13.746   9.918  10.635
68747SOL     OW 8137   7.404   9.963   5.676
68747SOL    HW1 8138   7.377   9.973   5.768
68747SOL    HW2 8139   7.493   9.997   5.674
68748SOL     OW 8140   7.905   3.942   4.149
68748SOL    HW1 8141   7.820   3.916   4.116
68748SOL    HW2 8142   7.966   3.876   4.114
68749SOL     OW 8143   0.759   4.328   2.404
68749SOL    HW1 8144   0.846   4.363   2.388
68749SOL    HW2 8145   0.712   4.340   2.321
68750SOL     OW 8146  12.921   0.519  11.156
68750SOL    HW1 8147  12.915   0.519  11.060
68750SOL    HW2 8148  12.935   0.427  11.179
68751SOL     OW 8149  13.745  12.780  12.057
68751SOL    HW1 8150  13.711  12.849  12.000
68751SOL    HW2 8151  13.722  12.810  12.146
68752SOL     OW 8152   5.728   0.587   2.789
68752SOL    HW1 8153   5.655   0.646   2.770
68752SOL    HW2 8154   5.702   0.542   2.869
68753SOL     OW 8155   5.096   3.329  14.410
68753SOL    HW1 8156   5.040   3.270  14.360
68753SOL    HW2 8157   5.061   3.327  14.499
68754SOL     OW 8158   1.220   7.083  11.773
68754SOL    HW1 8159   1.292   7.095  11.710
68754SOL    HW2 8160   1.141   7.077  11.718
68755SOL     OW 8161   6.433   8.556  11.164
68755SOL    HW1 8162   6.472   8.564  11.251
68755SOL    HW2 8163   6.467   8.631  11.116
68756SOL     OW 8164   5.779   3.393   1.471
68756SOL    HW1 8165   5.755   3.305   1.499
68756SOL    HW2 8166   5.709   3.421   1.413
68757SOL     OW 8167   0.019  13.039   6.908
68757SOL    HW1 8168   0.087  12.972   6.920
68757SOL    HW2 8169  14.812  12.990   6.890
68758SOL     OW 8170   3.156  10.322   8.741
68758SOL    HW1 8171   3.230  10.382   8.729
68758SOL    HW2 8172   3.170  10.254   8.674
68759SOL     OW 8173   0.680   9.046   7.349
68759SOL    HW1 8174   0.614   9.077   7.288
68759SOL    HW2 8175   0.733   9.124   7.368
68760SOL     OW 8176   1.159  10.390   1.801
68760SOL    HW1 8177   1.181  10.366   1.711
68760SOL    HW2 8178   1.216  10.464   1.821
68761SOL     OW 8179  14.021   1.887  11.609
68761SOL    HW1 8180  14.104   1.931  11.625
68761SOL    HW2 8181  13.976   1.889  11.694
68762SOL     OW 8182   9.704  13.794  12.064
68762SOL    HW1 8183   9.797  13.770  12.064
68762SOL    HW2 8184   9.661  13.723  12.112
68763SOL     OW 8185  10.950  11.580  14.512
68763SOL    HW1 8186  10.961  11.668  14.476
68763SOL    HW2 8187  11.013  11.575  14.584
68764SOL     OW 8188   3.317   7.057   4.528
68764SOL    HW1 8189   3.334   7.133   4.584
68764SOL    HW2 8190   3.404   7.020   4.510
68765SOL     OW 8191  13.511   6.632   8.092
68765SOL    HW1 8192  13.510   6.551   8.039
68765SOL    HW2 8193  13.536   6.700   8.030
68766SOL     OW 8194  12.454   7.123   5.605
68766SOL    HW1 8195  12.371   7.125   5.559
68766SOL    HW2 8196  12.451   7.199   5.664
68767SOL     OW 8197   3.725   7.407   8.222
68767SOL    HW1 8198   3.808   7.375   8.187
68767SOL    HW2 8199   3.749   7.477   8.283
68768SOL     OW 8200   7.679  11.794   8.065
68768SOL    HW1 8201   7.643  11.851   8.134
68768SOL    HW2 8202   7.651  11.706   8.090
68769SOL     OW 8203   0.339   4.641   4.073
68769SOL    HW1 8204   0.277   4.594   4.017
68769SOL    HW2 8205   0.391   4.571   4.115
68770SOL     OW 8206   9.860   4.689   5.590
68770SOL    HW1 8207   9.902   4.668   5.673
68770SOL    HW2 8208   9.904   4.768   5.559
68771SOL     OW 8209   7.971   6.490   5.874
68771SOL    HW1 8210   7.888   6.537   5.875
68771SOL    HW2 8211   8.010   6.510   5.789
68772SOL     OW 8212  14.292   5.931  11.434
68772SOL    HW1 8213  14.228   5.999  11.456
68772SOL    HW2 8214  14.377   5.971  11.452
68773SOL     OW 8215  14.660  13.880  14.679
68773SOL    HW1 8216  14.613  13.810  14.633
68773SOL    HW2 8217  14.717  13.918  14.611
68774SOL     OW 8218   8.181  12.093   2.303
68774SOL    HW1 8219   8.248  12.082   2.370
68774SOL    HW2 8220   8.099  12.098   2.353
68775SOL     OW 8221  13.888  10.282   6.088
68775SOL    HW1 8222  13.827  10.260   6.158
68775SOL    HW2 8223  13.940  10.354   6.124
68776SOL     OW 8224   3.810  11.817  10.019
68776SOL    HW1 8225   3.839  11.732  10.052
68776SOL    HW2 8226   3.791  11.802   9.926
68777SOL     OW 8227   2.426  13.692   2.599
68777SOL    HW1 8228   2.490  13.745   2.647
68777SOL    HW2 8229   2.350  13.749   2.590
68778SOL     OW 8230  14.778   6.917  11.064
68778SOL    HW1 8231  14.729   6.979  11.011
68778SOL    HW2 8232  14.742   6.926  11.152
68779SOL     OW 8233   0.691  11.807   3.029
68779SOL    HW1 8234   0.680  11.898   3.058
68779SOL    HW2 8235   0.707  11.758   3.110
68780SOL     OW 8236   9.182   7.523   8.535
68780SOL    HW1 8237   9.270   7.555   8.514
68780SOL    HW2 8238   9.197   7.441   8.582
68781SOL     OW 8239   2.328   1.404   9.257
68781SOL    HW1 8240   2.353   1.479   9.311
68781SOL    HW2 8241   2.407   1.352   9.250
68782SOL     OW 8242  11.445  12.336  13.492
68782SOL    HW1 8243  11.535  12.307  13.479
68782SOL    HW2 8244  11.407  12.338  13.405
68783SOL     OW 8245   7.319   7.446   3.358
68783SOL    HW1 8246   7.411   7.420   3.351
68783SOL    HW2 8247   7.282   7.383   3.421
68784SOL     OW 8248   6.646   0.041   2.207
68784SOL    HW1 8249   6.651   0.124   2.255
68784SOL    HW2 8250   6.696   0.057   2.127
68785SOL     OW 8251   6.459   1.015   3.421
68785SOL    HW1 8252   6.365   1.006   3.403
68785SOL    HW2 8253   6.468   1.102   3.461
68786SOL     OW 8254   5.357   6.242  13.629
68786SOL    HW1 8255   5.311   6.306  13.683
68786SOL    HW2 8256   5.441   6.229  13.673
68787SOL     OW 8257  11.854   3.521   2.755
68787SOL    HW1 8258  11.776   3.553   2.708
68787SOL    HW2 8259  11.905   3.476   2.688
68788SOL     OW 8260   8.758  12.272   6.167
68788SOL    HW1 8261   8.779  12.198   6.110
68788SOL    HW2 8262   8.735  12.343   6.107
68789SOL     OW 8263  11.743  13.608   4.471
68789SOL    HW1 8264  11.719  13.629   4.561
68789SOL    HW2 8265  11.753  13.694   4.429
68790SOL     OW 8266   6.840   0.323  12.349
68790SOL    HW1 8267   6.844   0.295  12.258
68790SOL    HW2 8268   6.750   0.352  12.362
68791SOL     OW 8269  13.331  13.902   1.782
68791SOL    HW1 8270  13.304  13.985   1.744
68791SOL    HW2 8271  13.288  13.898   1.868
68792SOL     OW 8272   9.355  12.470   7.930
68792SOL    HW1 8273   9.401  12.386   7.926
68792SOL    HW2 8274   9.420  12.535   7.904
68793SOL     OW 8275  11.968   1.208   2.357
68793SOL    HW1 8276  11.900   1.204   2.424
68793SOL    HW2 8277  12.034   1.145   2.386
68794SOL     OW 8278   7.350  13.052   9.410
68794SOL    HW1 8279   7.426  12.997   9.393
68794SOL    HW2 8280   7.380  13.116   9.474
68795SOL     OW 8281   3.134   3.856  12.197
68795SOL    HW1 8282   3.060   3.883  12.142
68795SOL    HW2 8283   3.211   3.890  12.152
68796SOL     OW 8284   9.778   0.370   1.263
68796SOL    HW1 8285   9.707   0.352   1.201
68796SOL    HW2 8286   9.737   0.362   1.349
68797SOL     OW 8287   3.351  10.678   6.018
68797SOL    HW1 8288   3.432  10.728   6.028
68797SOL    HW2 8289   3.379  10.597   5.975
68798SOL     OW 8290   1.480   6.733   4.724
68798SOL    HW1 8291   1.542   6.724   4.652
68798SOL    HW2 8292   1.426   6.808   4.701
68799SOL     OW 8293   1.864   6.555   9.653
68799SOL    HW1 8294   1.866   6.461   9.671
68799SOL    HW2 8295   1.773   6.580   9.666
68800SOL     OW 8296   8.331   8.051  10.593
68800SOL    HW1 8297   8.289   8.132  10.561
68800SOL    HW2 8298   8.273   8.022  10.664
68801SOL     OW 8299   7.580  11.702   0.602
68801SOL    HW1 8300   7.623  11.760   0.539
68801SOL    HW2 8301   7.487  11.705   0.578
68802SOL     OW 8302  14.184   6.873   1.629
68802SOL    HW1 8303  14.191   6.810   1.701
68802SOL    HW2 8304  14.269   6.917   1.628
68803SOL     OW 8305  11.944   1.451   6.297
68803SOL    HW1 8306  12.013   1.405   6.248
68803SOL    HW2 8307  11.869   1.392   6.293
68804SOL     OW 8308   7.826  10.337   4.857
68804SOL    HW1 8309   7.850  10.258   4.809
68804SOL    HW2 8310   7.901  10.396   4.846
68805SOL     OW 8311  10.717   0.745  11.058
68805SOL    HW1 8312  10.803   0.787  11.066
68805SOL    HW2 8313  10.736   0.660  11.019
68806SOL     OW 8314  12.488   0.400  12.818
68806SOL    HW1 8315  12.406   0.441  12.790
68806SOL    HW2 8316  12.502   0.328  12.757
68807SOL     OW 8317  12.769   4.771   1.871
68807SOL    HW1 8318  12.806   4.685   1.852
68807SOL    HW2 8319  12.675   4.761   1.852
68808SOL     OW 8320   0.517  10.849   2.255
68808SOL    HW1 8321   0.555  10.762   2.241
68808SOL    HW2 8322   0.593  10.906   2.271
68809SOL     OW 8323  14.812   0.430  12.229
68809SOL    HW1 8324  14.800   0.445  12.135
68809SOL    HW2 8325  14.775   0.508  12.270
68810SOL     OW 8326   3.109  14.077   7.987
68810SOL    HW1 8327   3.107  14.075   8.083
68810SOL    HW2 8328   3.194  14.039   7.965
68811SOL     OW 8329  10.103   3.263  10.237
68811SOL    HW1 8330  10.116   3.171  10.259
68811SOL    HW2 8331  10.023   3.287  10.284
68812SOL     OW 8332  12.010   8.356   6.601
68812SOL    HW1 8333  11.941   8.290   6.602
68812SOL    HW2 8334  12.042   8.358   6.692
68813SOL     OW 8335   4.322   9.160  12.486
68813SOL    HW1 8336   4.337   9.214  12.409
68813SOL    HW2 8337   4.312   9.222  12.558
68814SOL     OW 8338   4.202   8.345   8.864
68814SOL    HW1 8339   4.152   8.403   8.807
68814SOL    HW2 8340   4.270   8.401   8.901
68815SOL     OW 8341  12.106   7.871  12.338
68815SOL    HW1 8342  12.174   7.862  12.404
68815SOL    HW2 8343  12.024   7.860  12.386
68816SOL     OW 8344  14.212   4.411   2.439
68816SOL    HW1 8345  14.150   4.340   2.425
68816SOL    HW2 8346  14.229   4.410   2.533
68817SOL     OW 8347   5.510   1.052  10.823
68817SOL    HW1 8348   5.434   1.066  10.766
68817SOL    HW2 8349   5.500   0.962  10.853
68818SOL     OW 8350   7.472  14.318  10.918
68818SOL    HW1 8351   7.381  14.336  10.941
68818SOL    HW2 8352   7.484  14.359  10.833
68819SOL     OW 8353   3.197   5.988   3.204
68819SOL    HW1 8354   3.273   6.037   3.171
68819SOL    HW2 8355   3.207   5.990   3.299
68820SOL     OW 8356   8.730   1.848   4.868
68820SOL    HW1 8357   8.694   1.788   4.802
68820SOL    HW2 8358   8.700   1.934   4.841
68821SOL     OW 8359   7.371  14.684  13.852
68821SOL    HW1 8360   7.281  14.677  13.882
68821SOL    HW2 8361   7.365  14.700  13.758
68822SOL     OW 8362   7.953   7.328   8.382
68822SOL    HW1 8363   8.014   7.265   8.419
68822SOL    HW2 8364   7.867   7.303   8.417
68823SOL     OW 8365   9.252   0.584   1.918
68823SOL    HW1 8366   9.261   0.599   2.012
68823SOL    HW2 8367   9.321   0.521   1.897
68824SOL     OW 8368  13.681   2.771   3.861
68824SOL    HW1 8369  13.617   2.702   3.843
68824SOL    HW2 8370  13.643   2.850   3.823
68825SOL     OW 8371  13.843   4.653  12.932
68825SOL    HW1 8372  13.927   4.607  12.935
68825SOL    HW2 8373  13.847   4.713  13.006
68826SOL     OW 8374   8.670   0.296   4.979
68826SOL    HW1 8375   8.669   0.385   5.015
68826SOL    HW2 8376   8.702   0.242   5.050
68827SOL     OW 8377   7.273   1.425   1.237
68827SOL    HW1 8378   7.349   1.427   1.178
68827SOL    HW2 8379   7.306   1.383   1.316
68828SOL     OW 8380  10.827   0.168  13.461
68828SOL    HW1 8381  10.837   0.207  13.374
68828SOL    HW2 8382  10.802   0.242  13.517
68829SOL     OW 8383   3.127  10.777  10.167
68829SOL    HW1 8384   3.117  10.779  10.262
68829SOL    HW2 8385   3.059  10.837  10.135
68830SOL     OW 8386   0.916  12.892  12.614
68830SOL    HW1 8387   0.839  12.842  12.587
68830SOL    HW2 8388   0.890  12.983  12.604
68831SOL     OW 8389  10.441  13.915   4.532
68831SOL    HW1 8390  10.520  13.944   4.487
68831SOL    HW2 8391  10.377  13.901   4.462
68832SOL     OW 8392   7.569   2.765  12.032
68832SOL    HW1 8393   7.533   2.795  11.948
68832SOL    HW2 8394   7.567   2.843  12.088
68833SOL     OW 8395  10.627   5.705  10.107
68833SOL    HW1 8396  10.581   5.789  10.100
68833SOL    HW2 8397  10.659   5.703  10.197
68834SOL     OW 8398   0.478   7.016   0.331
68834SOL    HW1 8399   0.491   6.924   0.308
68834SOL    HW2 8400   0.451   7.058   0.249
68835SOL     OW 8401   6.965   2.715  14.849
68835SOL    HW1 8402   6.988   2.655  14.778
68835SOL    HW2 8403   6.882   2.754  14.822
68836SOL     OW 8404  12.430   6.450  11.205
68836SOL    HW1 8405  12.419   6.439  11.299
68836SOL    HW2 8406  12.415   6.543  11.190
68837SOL     OW 8407  10.882   0.504  11.347
68837SOL    HW1 8408  10.959   0.447  11.347
68837SOL    HW2 8409  10.905   0.576  11.289
68838SOL     OW 8410   8.930   9.933  11.625
68838SOL    HW1 8411   9.008   9.878  11.629
68838SOL    HW2 8412   8.899   9.938  11.715
68839SOL     OW 8413   5.377   2.714  11.630
68839SOL    HW1 8414   5.316   2.742  11.698
68839SOL    HW2 8415   5.342   2.751  11.549
68840SOL     OW 8416   9.459  14.062   6.293
68840SOL    HW1 8417   9.464  14.115   6.214
68840SOL    HW2 8418   9.369  14.029   6.294
68841SOL     OW 8419   4.870   7.880  13.572
68841SOL    HW1 8420   4.862   7.833  13.655
68841SOL    HW2 8421   4.954   7.926  13.578
68842SOL     OW 8422  14.802  14.172   0.250
68842SOL    HW1 8423  14.843  14.259   0.250
68842SOL    HW2 8424  14.801  14.146   0.342
68843SOL     OW 8425   7.521   5.425   6.650
68843SOL    HW1 8426   7.452   5.487   6.672
68843SOL    HW2 8427   7.498   5.395   6.561
68844SOL     OW 8428   0.740   8.591   9.698
68844SOL    HW1 8429   0.656   8.633   9.717
68844SOL    HW2 8430   0.740   8.511   9.751
68845SOL     OW 8431   3.930  12.062   1.007
68845SOL    HW1 8432   3.899  12.026   1.089
68845SOL    HW2 8433   3.945  11.986   0.950
68846SOL     OW 8434  14.782   2.906  14.586
68846SOL    HW1 8435  14.755   2.814  14.580
68846SOL    HW2 8436  14.802   2.932  14.496
68847SOL     OW 8437   3.970   2.909  13.419
68847SOL    HW1 8438   4.005   2.926  13.332
68847SOL    HW2 8439   4.046   2.916  13.477
68848SOL     OW 8440   1.263   0.595  13.810
68848SOL    HW1 8441   1.201   0.524  13.798
68848SOL    HW2 8442   1.214   0.674  13.787
68849SOL     OW 8443   8.581   7.845   9.854
68849SOL    HW1 8444   8.634   7.871   9.779
68849SOL    HW2 8445   8.539   7.764   9.826
68850SOL     OW 8446  11.562   2.293   6.709
68850SOL    HW1 8447  11.605   2.351   6.773
68850SOL    HW2 8448  11.634   2.246   6.667
68851SOL     OW 8449   2.906   3.207  11.919
68851SOL    HW1 8450   3.001   3.192  11.915
68851SOL    HW2 8451   2.868   3.135  11.869
68852SOL     OW 8452  11.360   7.855   3.257
68852SOL    HW1 8453  11.406   7.935   3.229
68852SOL    HW2 8454  11.364   7.858   3.353
68853SOL     OW 8455  14.092   6.822  10.606
68853SOL    HW1 8456  14.182   6.821  10.574
68853SOL    HW2 8457  14.052   6.744  10.566
68854SOL     OW 8458   5.638   0.463  12.410
68854SOL    HW1 8459   5.649   0.544  12.459
68854SOL    HW2 8460   5.685   0.397  12.461
68855SOL     OW 8461   7.280   6.676  14.250
68855SOL    HW1 8462   7.233   6.685  14.167
68855SOL    HW2 8463   7.237   6.602  14.294
68856SOL     OW 8464   4.023   5.008  14.286
68856SOL    HW1 8465   4.068   5.078  14.333
68856SOL    HW2 8466   3.936   5.003  14.326
68857SOL     OW 8467   7.975   0.684  10.038
68857SOL    HW1 8468   7.905   0.626  10.008
68857SOL    HW2 8469   8.051   0.659   9.984
68858SOL     OW 8470   9.546   4.549  10.854
68858SOL    HW1 8471   9.587   4.632  10.877
68858SOL    HW2 8472   9.515   4.562  10.764
68859SOL     OW 8473  13.490  12.698   8.771
68859SOL    HW1 8474  13.494  12.609   8.736
68859SOL    HW2 8475  13.423  12.694   8.839
68860SOL     OW 8476  11.148  13.281  11.807
68860SOL    HW1 8477  11.080  13.311  11.867
68860SOL    HW2 8478  11.105  13.213  11.755
68861SOL     OW 8479   9.254  10.057  13.007
68861SOL    HW1 8480   9.234  10.147  13.031
68861SOL    HW2 8481   9.249  10.055  12.912
68862SOL     OW 8482  10.726   2.291  10.649
68862SOL    HW1 8483  10.679   2.213  10.619
68862SOL    HW2 8484  10.775   2.262  10.726
68863SOL     OW 8485   1.203   5.063   0.875
68863SOL    HW1 8486   1.270   5.126   0.902
68863SOL    HW2 8487   1.127   5.085   0.929
68864SOL     OW 8488  10.888   1.538  14.654
68864SOL    HW1 8489  10.872   1.609  14.716
68864SOL    HW2 8490  10.878   1.579  14.568
68865SOL     OW 8491   0.319  10.186  13.567
68865SOL    HW1 8492   0.328  10.103  13.614
68865SOL    HW2 8493   0.266  10.165  13.491
68866SOL     OW 8494   2.275   9.113  11.049
68866SOL    HW1 8495   2.238   9.130  10.962
68866SOL    HW2 8496   2.251   9.190  11.101
68867SOL     OW 8497  13.362   1.168   2.922
68867SOL    HW1 8498  13.327   1.250   2.954
68867SOL    HW2 8499  13.397   1.124   2.999
68868SOL     OW 8500   2.476   4.490   6.329
68868SOL    HW1 8501   2.427   4.572   6.342
68868SOL    HW2 8502   2.560   4.506   6.372
68869SOL     OW 8503   5.255   1.185   0.558
68869SOL    HW1 8504   5.178   1.184   0.500
68869SOL    HW2 8505   5.218   1.194   0.646
68870SOL     OW 8506   5.162   0.797   6.969
68870SOL    HW1 8507   5.235   0.833   7.020
68870SOL    HW2 8508   5.162   0.846   6.887
68871SOL     OW 8509   6.356   8.206   0.264
68871SOL    HW1 8510   6.418   8.258   0.315
68871SOL    HW2 8511   6.275   8.257   0.266
68872SOL     OW 8512  11.302   1.428  11.305
68872SOL    HW1 8513  11.276   1.399  11.392
68872SOL    HW2 8514  11.376   1.372  11.281
68873SOL     OW 8515  10.331   7.253   1.088
68873SOL    HW1 8516  10.279   7.221   1.162
68873SOL    HW2 8517  10.350   7.344   1.110
68874SOL     OW 8518   6.034   8.558   6.810
68874SOL    HW1 8519   6.040   8.535   6.717
68874SOL    HW2 8520   5.942   8.581   6.822
68875SOL     OW 8521   4.802   1.636   1.179
68875SOL    HW1 8522   4.709   1.614   1.173
68875SOL    HW2 8523   4.804   1.730   1.195
68876SOL     OW 8524   9.069  13.377   5.978
68876SOL    HW1 8525   8.998  13.321   5.944
68876SOL    HW2 8526   9.037  13.406   6.063
68877SOL     OW 8527   3.289   5.400   9.605
68877SOL    HW1 8528   3.310   5.389   9.698
68877SOL    HW2 8529   3.267   5.312   9.574
68878SOL     OW 8530   2.672   0.450   2.188
68878SOL    HW1 8531   2.682   0.403   2.105
68878SOL    HW2 8532   2.762   0.465   2.218
68879SOL     OW 8533  14.435   3.620   2.185
68879SOL    HW1 8534  14.450   3.530   2.216
68879SOL    HW2 8535  14.466   3.675   2.256
68880SOL     OW 8536   3.737   1.524   6.080
68880SOL    HW1 8537   3.736   1.431   6.102
68880SOL    HW2 8538   3.740   1.526   5.984
68881SOL     OW 8539  13.287   4.925  11.456
68881SOL    HW1 8540  13.263   4.860  11.390
68881SOL    HW2 8541  13.242   5.005  11.429
68882SOL     OW 8542  13.639  10.671  11.529
68882SOL    HW1 8543  13.668  10.752  11.487
68882SOL    HW2 8544  13.544  10.680  11.537
68883SOL     OW 8545  12.667   8.199   1.660
68883SOL    HW1 8546  12.669   8.188   1.755
68883SOL    HW2 8547  12.659   8.293   1.646
68884SOL     OW 8548  13.245   6.238   4.229
68884SOL    HW1 8549  13.215   6.320   4.267
68884SOL    HW2 8550  13.243   6.253   4.134
68885SOL     OW 8551   1.663  14.839  11.285
68885SOL    HW1 8552   1.583   0.000  11.326
68885SOL    HW2 8553   1.638  14.822  11.194
68886SOL     OW 8554  11.542  13.265  13.596
68886SOL    HW1 8555  11.634  13.241  13.592
68886SOL    HW2 8556  11.537  13.350  13.551
68887SOL     OW 8557  13.079  11.143  13.136
68887SOL    HW1 8558  13.114  11.143  13.225
68887SOL    HW2 8559  13.086  11.052  13.107
68888SOL     OW 8560   7.873  13.979   3.654
68888SOL    HW1 8561   7.884  13.967   3.748
68888SOL    HW2 8562   7.924  14.058   3.634
68889SOL     OW 8563   3.842   0.921  11.331
68889SOL    HW1 8564   3.762   0.874  11.351
68889SOL    HW2 8565   3.910   0.853  11.329
68890SOL     OW 8566   1.510  13.267   7.057
68890SOL    HW1 8567   1.474  13.293   6.973
68890SOL    HW2 8568   1.556  13.345   7.089
68891SOL     OW 8569  13.516   3.127   3.411
68891SOL    HW1 8570  13.473   3.042   3.398
68891SOL    HW2 8571  13.455   3.190   3.373
68892SOL     OW 8572   0.687   5.827   1.835
68892SOL    HW1 8573   0.706   5.878   1.914
68892SOL    HW2 8574   0.669   5.739   1.867
68893SOL     OW 8575   9.583   9.487   0.404
68893SOL    HW1 8576   9.512   9.493   0.341
68893SOL    HW2 8577   9.615   9.397   0.396
68894SOL     OW 8578   7.369  11.544  13.320
68894SOL    HW1 8579   7.338  11.496  13.397
68894SOL    HW2 8580   7.293  11.596  13.292
68895SOL     OW 8581   8.067   4.580   5.982
68895SOL    HW1 8582   8.131   4.644   5.950
68895SOL    HW2 8583   7.982   4.615   5.955
68896SOL     OW 8584   0.621  11.283  13.885
68896SOL    HW1 8585   0.704  11.281  13.837
68896SOL    HW2 8586   0.645  11.267  13.976
68897SOL     OW 8587  10.591  10.378   1.983
68897SOL    HW1 8588  10.611  10.288   2.007
68897SOL    HW2 8589  10.621  10.430   2.058
68898SOL     OW 8590   9.833  10.439   4.859
68898SOL    HW1 8591   9.788  10.373   4.806
68898SOL    HW2 8592   9.810  10.417   4.949
68899SOL     OW 8593  11.205   3.562   8.472
68899SOL    HW1 8594  11.219   3.657   8.474
68899SOL    HW2 8595  11.192   3.538   8.564
68900SOL     OW 8596   6.119   1.754   4.274
68900SOL    HW1 8597   6.125   1.727   4.182
68900SOL    HW2 8598   6.060   1.830   4.273
68901SOL     OW 8599   5.828   8.236   2.638
68901SOL    HW1 8600   5.829   8.148   2.676
68901SOL    HW2 8601   5.893   8.232   2.568
68902SOL     OW 8602   6.559  12.407   9.353
68902SOL    HW1 8603   6.569  12.487   9.301
68902SOL    HW2 8604   6.474  12.372   9.328
68903SOL     OW 8605   0.962   9.206   1.795
68903SOL    HW1 8606   0.955   9.193   1.700
68903SOL    HW2 8607   0.903   9.279   1.813
68904SOL     OW 8608  12.904   4.586  10.467
68904SOL    HW1 8609  12.870   4.627  10.547
68904SOL    HW2 8610  12.830   4.536  10.432
68905SOL     OW 8611  11.058  10.632  12.392
68905SOL    HW1 8612  11.093  10.561  12.446
68905SOL    HW2 8613  11.134  10.689  12.376
68906SOL     OW 8614   7.746   7.586   4.897
68906SOL    HW1 8615   7.818   7.527   4.921
68906SOL    HW2 8616   7.671   7.528   4.884
68907SOL     OW 8617   4.212   0.732   2.634
68907SOL    HW1 8618   4.152   0.750   2.706
68907SOL    HW2 8619   4.184   0.792   2.564
68908SOL     OW 8620   3.193   5.926  12.307
68908SOL    HW1 8621   3.179   5.899  12.216
68908SOL    HW2 8622   3.138   6.004  12.318
68909SOL     OW 8623  10.668   1.172  10.922
68909SOL    HW1 8624  10.690   1.225  10.999
68909SOL    HW2 8625  10.614   1.229  10.868
68910SOL     OW 8626   7.358   3.762   9.854
68910SOL    HW1 8627   7.373   3.834   9.793
68910SOL    HW2 8628   7.443   3.748   9.896
68911SOL     OW 8629   3.300  10.475  11.082
68911SOL    HW1 8630   3.208  10.450  11.087
68911SOL    HW2 8631   3.334  10.464  11.171
68912SOL     OW 8632  13.408   9.203   0.284
68912SOL    HW1 8633  13.354   9.137   0.240
68912SOL    HW2 8634  13.498   9.174   0.270
68913SOL     OW 8635   0.812  14.744   9.680
68913SOL    HW1 8636   0.887  14.685   9.689
68913SOL    HW2 8637   0.752  14.717   9.749
68914SOL     OW 8638  10.330   5.645  12.580
68914SOL    HW1 8639  10.260   5.709  12.595
68914SOL    HW2 8640  10.381   5.683  12.508
68915SOL     OW 8641   0.359   8.736  10.595
68915SOL    HW1 8642   0.318   8.660  10.636
68915SOL    HW2 8643   0.429   8.761  10.654
68916SOL     OW 8644  10.058  12.468   3.176
68916SOL    HW1 8645  10.041  12.478   3.269
68916SOL    HW2 8646   9.972  12.448   3.138
68917SOL     OW 8647  10.007   4.855  14.286
68917SOL    HW1 8648  10.004   4.851  14.191
68917SOL    HW2 8649  10.042   4.770  14.313
68918SOL     OW 8650  11.208   5.288  13.043
68918SOL    HW1 8651  11.237   5.264  13.131
68918SOL    HW2 8652  11.185   5.204  13.002
68919SOL     OW 8653  10.999   3.641   1.460
68919SOL    HW1 8654  11.035   3.685   1.536
68919SOL    HW2 8655  10.925   3.695   1.433
68920SOL     OW 8656   0.958   6.213  11.603
68920SOL    HW1 8657   0.961   6.300  11.565
68920SOL    HW2 8658   0.871   6.207  11.643
68921SOL     OW 8659   3.734   4.132   8.044
68921SOL    HW1 8660   3.818   4.173   8.025
68921SOL    HW2 8661   3.674   4.168   7.978
68922SOL     OW 8662   8.309  10.900   1.300
68922SOL    HW1 8663   8.402  10.893   1.319
68922SOL    HW2 8664   8.298  10.857   1.215
68923SOL     OW 8665   9.904   0.090   2.510
68923SOL    HW1 8666   9.896   0.002   2.548
68923SOL    HW2 8667   9.994   0.094   2.477
68924SOL     OW 8668   7.002   6.882  10.223
68924SOL    HW1 8669   7.022   6.932  10.144
68924SOL    HW2 8670   6.952   6.944  10.277
68925SOL     OW 8671   7.351   6.833  14.489
68925SOL    HW1 8672   7.438   6.807  14.459
68925SOL    HW2 8673   7.290   6.779  14.438
68926SOL     OW 8674   9.687   7.850   6.595
68926SOL    HW1 8675   9.676   7.872   6.688
68926SOL    HW2 8676   9.755   7.911   6.564
68927SOL     OW 8677  10.521   2.530  10.583
68927SOL    HW1 8678  10.511   2.546  10.677
68927SOL    HW2 8679  10.550   2.439  10.577
68928SOL     OW 8680   6.247   8.217   6.527
68928SOL    HW1 8681   6.215   8.142   6.476
68928SOL    HW2 8682   6.308   8.262   6.470
68929SOL     OW 8683   1.280   2.211   8.738
68929SOL    HW1 8684   1.326   2.258   8.806
68929SOL    HW2 8685   1.188   2.214   8.764
68930SOL     OW 8686  12.659   6.489  10.001
68930SOL    HW1 8687  12.604   6.436  10.058
68930SOL    HW2 8688  12.717   6.536  10.061
68931SOL     OW 8689  11.496   4.358  11.086
68931SOL    HW1 8690  11.453   4.276  11.061
68931SOL    HW2 8691  11.486   4.414  11.009
68932SOL     OW 8692  11.566   6.981  10.843
68932SOL    HW1 8693  11.483   7.024  10.823
68932SOL    HW2 8694  11.577   6.915  10.774
68933SOL     OW 8695   5.109   1.491  10.072
68933SOL    HW1 8696   5.113   1.413  10.128
68933SOL    HW2 8697   5.164   1.469   9.997
68934SOL     OW 8698  12.899   9.086   1.260
68934SOL    HW1 8699  12.994   9.085   1.265
68934SOL    HW2 8700  12.870   9.054   1.346
68935SOL     OW 8701   6.584   8.150  10.359
68935SOL    HW1 8702   6.563   8.158  10.452
68935SOL    HW2 8703   6.629   8.231  10.337
68936SOL     OW 8704  12.457  11.724   8.400
68936SOL    HW1 8705  12.458  11.775   8.319
68936SOL    HW2 8706  12.536  11.670   8.395
68937SOL     OW 8707   5.525  10.611   6.093
68937SOL    HW1 8708   5.560  10.578   6.010
68937SOL    HW2 8709   5.592  10.672   6.124
68938SOL     OW 8710   9.296   6.930   0.857
68938SOL    HW1 8711   9.363   6.998   0.857
68938SOL    HW2 8712   9.274   6.918   0.765
68939SOL     OW 8713   3.013  14.349  13.493
68939SOL    HW1 8714   3.090  14.295  13.480
68939SOL    HW2 8715   3.010  14.407  13.417
68940SOL     OW 8716  14.314   4.316  10.481
68940SOL    HW1 8717  14.404   4.319  10.449
68940SOL    HW2 8718  14.261   4.306  10.402
68941SOL     OW 8719   9.955   3.372   5.278
68941SOL    HW1 8720  10.010   3.352   5.203
68941SOL    HW2 8721   9.975   3.304   5.342
68942SOL     OW 8722  13.235   0.812   4.602
68942SOL    HW1 8723  13.199   0.847   4.521
68942SOL    HW2 8724  13.325   0.845   4.605
68943SOL     OW 8725   7.705  14.030  12.683
68943SOL    HW1 8726   7.623  14.063  12.645
68943SOL    HW2 8727   7.766  14.103  12.674
68944SOL     OW 8728   3.256  10.932   6.141
68944SOL    HW1 8729   3.304  10.934   6.224
68944SOL    HW2 8730   3.276  10.846   6.104
68945SOL     OW 8731  13.718  11.747  14.607
68945SOL    HW1 8732  13.709  11.651  14.608
68945SOL    HW2 8733  13.659  11.777  14.676
68946SOL     OW 8734   2.278   5.159   7.457
68946SOL    HW1 8735   2.250   5.156   7.548
68946SOL    HW2 8736   2.335   5.235   7.452
68947SOL     OW 8737   0.626   0.684   7.539
68947SOL    HW1 8738   0.690   0.756   7.543
68947SOL    HW2 8739   0.586   0.683   7.626
68948SOL     OW 8740   9.893   2.374   8.581
68948SOL    HW1 8741   9.879   2.280   8.570
68948SOL    HW2 8742   9.910   2.406   8.493
68949SOL     OW 8743   3.171   2.814   0.440
68949SOL    HW1 8744   3.211   2.729   0.425
68949SOL    HW2 8745   3.122   2.832   0.360
68950SOL     OW 8746   6.544   8.128  14.244
68950SOL    HW1 8747   6.543   8.036  14.220
68950SOL    HW2 8748   6.492   8.171  14.175
68951SOL     OW 8749  10.418  10.026  13.039
68951SOL    HW1 8750  10.374  10.020  13.124
68951SOL    HW2 8751  10.461  10.111  13.041
68952SOL     OW 8752   3.448  13.273  14.102
68952SOL    HW1 8753   3.539  13.244  14.095
68952SOL    HW2 8754   3.401  13.199  14.139
68953SOL     OW 8755   1.636   6.253   8.693
68953SOL    HW1 8756   1.621   6.234   8.785
68953SOL    HW2 8757   1.720   6.300   8.692
68954SOL     OW 8758   1.065   4.105   6.848
68954SOL    HW1 8759   1.109   4.152   6.919
68954SOL    HW2 8760   0.977   4.090   6.880
68955SOL     OW 8761  12.668   4.494   5.396
68955SOL    HW1 8762  12.648   4.471   5.305
68955SOL    HW2 8763  12.763   4.484   5.403
68956SOL     OW 8764  12.671   9.361   8.129
68956SOL    HW1 8765  12.594   9.308   8.152
68956SOL    HW2 8766  12.636   9.431   8.074
68957SOL     OW 8767   8.037  12.428  12.892
68957SOL    HW1 8768   8.073  12.341  12.906
68957SOL    HW2 8769   8.114  12.485  12.885
68958SOL     OW 8770   7.950   1.134   2.040
68958SOL    HW1 8771   7.934   1.107   1.949
68958SOL    HW2 8772   7.942   1.229   2.038
68959SOL     OW 8773   8.457  11.137  13.259
68959SOL    HW1 8774   8.476  11.209  13.198
68959SOL    HW2 8775   8.517  11.067  13.233
68960SOL     OW 8776  14.323   2.230   8.298
68960SOL    HW1 8777  14.250   2.168   8.298
68960SOL    HW2 8778  14.314   2.278   8.381
68961SOL     OW 8779   6.128   7.648   4.006
68961SOL    HW1 8780   6.046   7.694   4.024
68961SOL    HW2 8781   6.139   7.653   3.912
68962SOL     OW 8782  11.105  14.464   2.824
68962SOL    HW1 8783  11.188  14.483   2.780
68962SOL    HW2 8784  11.073  14.550   2.851
68963SOL     OW 8785   3.380   5.040   5.412
68963SOL    HW1 8786   3.460   4.994   5.439
68963SOL    HW2 8787   3.312   4.972   5.411
68964SOL     OW 8788   7.076   6.676   4.374
68964SOL    HW1 8789   7.169   6.663   4.391
68964SOL    HW2 8790   7.039   6.703   4.458
68965SOL     OW 8791   5.530   1.168   4.015
68965SOL    HW1 8792   5.479   1.131   3.943
68965SOL    HW2 8793   5.613   1.193   3.975
68966SOL     OW 8794  10.124  12.975   6.485
68966SOL    HW1 8795  10.154  13.024   6.408
68966SOL    HW2 8796  10.201  12.925   6.513
68967SOL     OW 8797   8.406   6.825   4.428
68967SOL    HW1 8798   8.447   6.777   4.356
68967SOL    HW2 8799   8.417   6.917   4.404
68968SOL     OW 8800   3.076   9.730  13.893
68968SOL    HW1 8801   3.158   9.736  13.846
68968SOL    HW2 8802   3.100   9.701  13.981
68969SOL     OW 8803   4.013  14.113  10.148
68969SOL    HW1 8804   4.062  14.070  10.078
68969SOL    HW2 8805   3.979  14.193  10.108
68970SOL     OW 8806   5.041   8.928  13.568
68970SOL    HW1 8807   5.125   8.903  13.606
68970SOL    HW2 8808   5.061   9.004  13.513
68971SOL     OW 8809   6.548   5.109   7.498
68971SOL    HW1 8810   6.510   5.065   7.574
68971SOL    HW2 8811   6.614   5.048   7.465
68972SOL     OW 8812  12.315  11.716   1.987
68972SOL    HW1 8813  12.307  11.745   2.078
68972SOL    HW2 8814  12.234  11.746   1.946
68973SOL     OW 8815   9.098   5.518   8.916
68973SOL    HW1 8816   9.094   5.452   8.986
68973SOL    HW2 8817   9.033   5.583   8.942
68974SOL     OW 8818  10.252   2.772  14.451
68974SOL    HW1 8819  10.209   2.726  14.379
68974SOL    HW2 8820  10.217   2.861  14.447
68975SOL     OW 8821   7.803  12.530   1.158
68975SOL    HW1 8822   7.897  12.544   1.169
68975SOL    HW2 8823   7.766  12.618   1.159
68976SOL     OW 8824   2.273  12.746  11.293
68976SOL    HW1 8825   2.222  12.667  11.313
68976SOL    HW2 8826   2.356  12.712  11.258
68977SOL     OW 8827  12.869   7.791  10.472
68977SOL    HW1 8828  12.953   7.811  10.513
68977SOL    HW2 8829  12.805   7.798  10.543
68978SOL     OW 8830   2.080   9.180  13.969
68978SOL    HW1 8831   2.164   9.219  13.994
68978SOL    HW2 8832   2.019   9.254  13.971
68979SOL     OW 8833   9.699  12.018   5.595
68979SOL    HW1 8834   9.791  12.022   5.566
68979SOL    HW2 8835   9.658  12.095   5.556
68980SOL     OW 8836   2.422   8.240  11.731
68980SOL    HW1 8837   2.342   8.268  11.687
68980SOL    HW2 8838   2.487   8.306  11.707
68981SOL     OW 8839   5.682   8.506   3.345
68981SOL    HW1 8840   5.675   8.595   3.311
68981SOL    HW2 8841   5.749   8.511   3.413
68982SOL     OW 8842   1.024   5.724   6.118
68982SOL    HW1 8843   1.064   5.677   6.045
68982SOL    HW2 8844   1.097   5.753   6.172
68983SOL     OW 8845   8.603  12.549   8.306
68983SOL    HW1 8846   8.663  12.614   8.271
68983SOL    HW2 8847   8.532  12.544   8.242
68984SOL     OW 8848   3.257   3.308   5.930
68984SOL    HW1 8849   3.270   3.273   5.842
68984SOL    HW2 8850   3.183   3.369   5.921
68985SOL     OW 8851   3.103   4.579   7.639
68985SOL    HW1 8852   3.165   4.565   7.567
68985SOL    HW2 8853   3.127   4.663   7.676
68986SOL     OW 8854   8.710   1.549  14.004
68986SOL    HW1 8855   8.769   1.602  14.059
68986SOL    HW2 8856   8.632   1.604  13.993
68987SOL     OW 8857   9.624   5.936  10.018
68987SOL    HW1 8858   9.644   5.915  10.109
68987SOL    HW2 8859   9.626   5.852   9.972
68988SOL     OW 8860   3.065   3.982  12.412
68988SOL    HW1 8861   3.158   3.996  12.431
68988SOL    HW2 8862   3.063   3.942  12.325
68989SOL     OW 8863   6.845   0.922  12.227
68989SOL    HW1 8864   6.780   0.957  12.288
68989SOL    HW2 8865   6.818   0.954  12.141
68990SOL     OW 8866   3.478  10.198   4.316
68990SOL    HW1 8867   3.452  10.253   4.242
68990SOL    HW2 8868   3.554  10.243   4.353
68991SOL     OW 8869  10.575  14.834  14.256
68991SOL    HW1 8870  10.511  14.845  14.185
68991SOL    HW2 8871  10.660  14.836  14.212
68992SOL     OW 8872   4.817   1.229   8.847
68992SOL    HW1 8873   4.819   1.307   8.793
68992SOL    HW2 8874   4.730   1.192   8.835
68993SOL     OW 8875  12.957  10.043   0.723
68993SOL    HW1 8876  12.975   9.957   0.761
68993SOL    HW2 8877  12.934  10.024   0.632
68994SOL     OW 8878   2.583  13.766   9.341
68994SOL    HW1 8879   2.569  13.856   9.314
68994SOL    HW2 8880   2.574  13.715   9.260
68995SOL     OW 8881   5.930   6.166   7.751
68995SOL    HW1 8882   5.989   6.241   7.747
68995SOL    HW2 8883   5.974   6.104   7.810
68996SOL     OW 8884  11.583  14.348   8.772
68996SOL    HW1 8885  11.660  14.323   8.721
68996SOL    HW2 8886  11.524  14.388   8.708
68997SOL     OW 8887   8.088   2.544  13.116
68997SOL    HW1 8888   8.065   2.633  13.142
68997SOL    HW2 8889   8.008   2.493  13.129
68998SOL     OW 8890   7.480   4.141   4.005
68998SOL    HW1 8891   7.408   4.197   3.975
68998SOL    HW2 8892   7.519   4.189   4.078
68999SOL     OW 8893   0.391   1.767  13.964
68999SOL    HW1 8894   0.342   1.699  14.010
68999SOL    HW2 8895   0.483   1.751  13.987
69000SOL     OW 8896   7.340   9.401   7.856
69000SOL    HW1 8897   7.268   9.347   7.889
69000SOL    HW2 8898   7.391   9.423   7.934
69001SOL     OW 8899   2.137  10.667  10.272
69001SOL    HW1 8900   2.187  10.714  10.206
69001SOL    HW2 8901   2.119  10.733  10.340
69002SOL     OW 8902   3.584   6.925  13.592
69002SOL    HW1 8903   3.663   6.875  13.568
69002SOL    HW2 8904   3.535   6.866  13.649
69003SOL     OW 8905   9.640  11.087  14.230
69003SOL    HW1 8906   9.616  11.021  14.165
69003SOL    HW2 8907   9.682  11.036  14.300
69004SOL     OW 8908  14.134   4.636  10.878
69004SOL    HW1 8909  14.203   4.696  10.907
69004SOL    HW2 8910  14.159   4.614  10.788
69005SOL     OW 8911   7.240   4.526  14.610
69005SOL    HW1 8912   7.181   4.454  14.586
69005SOL    HW2 8913   7.230   4.589  14.539
69006SOL     OW 8914  12.503   5.292   3.879
69006SOL    HW1 8915  12.543   5.308   3.793
69006SOL    HW2 8916  12.416   5.332   3.872
69007SOL     OW 8917  12.821   7.585   0.039
69007SOL    HW1 8918  12.769   7.579  14.831
69007SOL    HW2 8919  12.773   7.648   0.094
69008SOL     OW 8920   7.221   0.196   7.478
69008SOL    HW1 8921   7.259   0.207   7.565
69008SOL    HW2 8922   7.154   0.265   7.473
69009SOL     OW 8923   4.234   0.589  13.821
69009SOL    HW1 8924   4.254   0.633  13.739
69009SOL    HW2 8925   4.296   0.516  13.825
69010SOL     OW 8926   8.841   6.892   2.360
69010SOL    HW1 8927   8.795   6.938   2.431
69010SOL    HW2 8928   8.870   6.962   2.302
69011SOL     OW 8929   5.459   1.343   9.148
69011SOL    HW1 8930   5.386   1.343   9.085
69011SOL    HW2 8931   5.498   1.256   9.138
69012SOL     OW 8932   3.325  13.039  12.416
69012SOL    HW1 8933   3.232  13.061  12.414
69012SOL    HW2 8934   3.327  12.946  12.440
69013SOL     OW 8935   1.834  14.678  12.012
69013SOL    HW1 8936   1.924  14.660  11.986
69013SOL    HW2 8937   1.790  14.706  11.932
69014SOL     OW 8938  11.053  11.144  12.782
69014SOL    HW1 8939  11.041  11.153  12.688
69014SOL    HW2 8940  11.062  11.234  12.814
69015SOL     OW 8941   9.932  13.926  10.231
69015SOL    HW1 8942   9.963  13.951  10.144
69015SOL    HW2 8943   9.837  13.923  10.223
69016SOL     OW 8944  13.462  13.129   6.766
69016SOL    HW1 8945  13.384  13.178   6.792
69016SOL    HW2 8946  13.432  13.073   6.694
69017SOL     OW 8947  13.488   5.750  12.140
69017SOL    HW1 8948  13.538   5.831  12.135
69017SOL    HW2 8949  13.511   5.713  12.226
69018SOL     OW 8950  13.851  10.015  14.300
69018SOL    HW1 8951  13.926   9.971  14.341
69018SOL    HW2 8952  13.850   9.980  14.211
69019SOL     OW 8953   6.463  10.580  12.774
69019SOL    HW1 8954   6.452  10.486  12.789
69019SOL    HW2 8955   6.387  10.605  12.721
69020SOL     OW 8956   7.261   4.382  11.144
69020SOL    HW1 8957   7.216   4.329  11.210
69020SOL    HW2 8958   7.350   4.392  11.178
69021SOL     OW 8959   8.214  11.529   5.481
69021SOL    HW1 8960   8.151  11.511   5.412
69021SOL    HW2 8961   8.168  11.589   5.540
69022SOL     OW 8962   3.061   8.449  10.061
69022SOL    HW1 8963   3.147   8.453  10.103
69022SOL    HW2 8964   3.079   8.414   9.973
69023SOL     OW 8965   1.680   2.059   5.769
69023SOL    HW1 8966   1.759   2.107   5.742
69023SOL    HW2 8967   1.625   2.125   5.811
69024SOL     OW 8968  13.295  14.732  11.869
69024SOL    HW1 8969  13.327  14.783  11.796
69024SOL    HW2 8970  13.330  14.776  11.947
69025SOL     OW 8971   3.353  12.483  13.740
69025SOL    HW1 8972   3.306  12.543  13.797
69025SOL    HW2 8973   3.288  12.454  13.676
69026SOL     OW 8974   4.547   1.587  10.808
69026SOL    HW1 8975   4.473   1.618  10.756
69026SOL    HW2 8976   4.535   1.630  10.893
69027SOL     OW 8977  13.218  12.765   5.058
69027SOL    HW1 8978  13.226  12.845   5.004
69027SOL    HW2 8979  13.203  12.695   4.994
69028SOL     OW 8980   3.020   9.712   7.134
69028SOL    HW1 8981   3.044   9.784   7.192
69028SOL    HW2 8982   3.099   9.697   7.081
69029SOL     OW 8983   6.181   8.715   8.675
69029SOL    HW1 8984   6.164   8.635   8.724
69029SOL    HW2 8985   6.179   8.689   8.583
69030SOL     OW 8986  12.039   2.405   4.888
69030SOL    HW1 8987  12.037   2.355   4.806
69030SOL    HW2 8988  12.104   2.360   4.942
69031SOL     OW 8989  10.995   4.665   3.814
69031SOL    HW1 8990  11.066   4.711   3.769
69031SOL    HW2 8991  11.028   4.650   3.902
69032SOL     OW 8992  12.526   0.987   7.357
69032SOL    HW1 8993  12.616   0.990   7.389
69032SOL    HW2 8994  12.534   0.976   7.263
69033SOL     OW 8995  12.621   4.072   2.161
69033SOL    HW1 8996  12.661   3.992   2.193
69033SOL    HW2 8997  12.562   4.044   2.091
69034SOL     OW 8998   1.166   0.281   4.008
69034SOL    HW1 8999   1.157   0.226   3.930
69034SOL    HW2 9000   1.220   0.355   3.979
69035SOL     OW 9001   4.439   3.103   8.503
69035SOL    HW1 9002   4.463   3.052   8.581
69035SOL    HW2 9003   4.344   3.093   8.497
69036SOL     OW 9004   3.019  12.372   2.850
69036SOL    HW1 9005   2.933  12.332   2.863
69036SOL    HW2 9006   3.048  12.339   2.765
69037SOL     OW 9007   9.186  10.961  10.115
69037SOL    HW1 9008   9.207  10.870  10.093
69037SOL    HW2 9009   9.249  10.984  10.184
69038SOL     OW 9010  12.053   7.963   8.105
69038SOL    HW1 9011  11.983   7.980   8.168
69038SOL    HW2 9012  12.097   7.885   8.140
69039SOL     OW 9013   6.286   3.922  13.414
69039SOL    HW1 9014   6.236   3.858  13.363
69039SOL    HW2 9015   6.375   3.916  13.380
69040SOL     OW 9016   8.199   1.838   2.960
69040SOL    HW1 9017   8.176   1.766   2.902
69040SOL    HW2 9018   8.178   1.807   3.048
69041SOL     OW 9019  14.621   6.487  14.384
69041SOL    HW1 9020  14.660   6.498  14.471
69041SOL    HW2 9021  14.564   6.562  14.373
69042SOL     OW 9022  12.558   4.758   5.067
69042SOL    HW1 9023  12.586   4.825   5.005
69042SOL    HW2 9024  12.487   4.712   5.022
69043SOL     OW 9025   7.531   3.334   1.729
69043SOL    HW1 9026   7.559   3.414   1.773
69043SOL    HW2 9027   7.611   3.301   1.687
69044SOL     OW 9028   9.044  13.010   5.238
69044SOL    HW1 9029   9.118  13.056   5.200
69044SOL    HW2 9030   8.967  13.045   5.192
69045SOL     OW 9031   4.137   0.645  12.342
69045SOL    HW1 9032   4.205   0.667  12.278
69045SOL    HW2 9033   4.164   0.561  12.379
69046SOL     OW 9034   0.560   6.249   6.660
69046SOL    HW1 9035   0.636   6.285   6.614
69046SOL    HW2 9036   0.486   6.268   6.602
69047SOL     OW 9037  12.193   2.315  11.220
69047SOL    HW1 9038  12.104   2.348  11.236
69047SOL    HW2 9039  12.226   2.369  11.149
69048SOL     OW 9040   0.607   8.633   5.559
69048SOL    HW1 9041   0.568   8.578   5.490
69048SOL    HW2 9042   0.539   8.697   5.579
69049SOL     OW 9043   8.672  13.230   3.225
69049SOL    HW1 9044   8.610  13.216   3.153
69049SOL    HW2 9045   8.702  13.142   3.248
69050SOL     OW 9046   1.621  14.072   3.078
69050SOL    HW1 9047   1.588  14.160   3.059
69050SOL    HW2 9048   1.559  14.014   3.034
69051SOL     OW 9049   3.868  13.194  13.035
69051SOL    HW1 9050   3.901  13.270  13.082
69051SOL    HW2 9051   3.879  13.121  13.096
69052SOL     OW 9052  11.734  13.223   5.122
69052SOL    HW1 9053  11.735  13.292   5.056
69052SOL    HW2 9054  11.742  13.269   5.205
69053SOL     OW 9055   9.664  11.971  13.328
69053SOL    HW1 9056   9.747  11.965  13.282
69053SOL    HW2 9057   9.598  11.946  13.263
69054SOL     OW 9058  14.680  10.865   7.846
69054SOL    HW1 9059  14.682  10.813   7.765
69054SOL    HW2 9060  14.664  10.954   7.816
69055SOL     OW 9061  13.164   5.642   3.441
69055SOL    HW1 9062  13.151   5.642   3.536
69055SOL    HW2 9063  13.216   5.720   3.425
69056SOL     OW 9064   3.299  14.059  14.043
69056SOL    HW1 9065   3.275  14.147  14.072
69056SOL    HW2 9066   3.259  14.000  14.107
69057SOL     OW 9067   5.167   8.126   3.107
69057SOL    HW1 9068   5.260   8.109   3.116
69057SOL    HW2 9069   5.161   8.213   3.067
69058SOL     OW 9070  12.876  12.486   7.636
69058SOL    HW1 9071  12.799  12.468   7.582
69058SOL    HW2 9072  12.943  12.512   7.573
69059SOL     OW 9073   0.658  13.928  12.688
69059SOL    HW1 9074   0.581  13.980  12.711
69059SOL    HW2 9075   0.623  13.852  12.642
69060SOL     OW 9076   2.133  11.025   5.558
69060SOL    HW1 9077   2.112  11.107   5.604
69060SOL    HW2 9078   2.133  10.958   5.627
69061SOL     OW 9079   3.843   0.023   9.826
69061SOL    HW1 9080   3.936   0.010   9.805
69061SOL    HW2 9081   3.797  14.846   9.758
69062SOL     OW 9082   9.288   7.308   8.653
69062SOL    HW1 9083   9.368   7.311   8.705
69062SOL    HW2 9084   9.235   7.240   8.694
69063SOL     OW 9085  12.193   2.824   8.870
69063SOL    HW1 9086  12.247   2.777   8.807
69063SOL    HW2 9087  12.245   2.822   8.951
69064SOL     OW 9088   4.751   8.545   5.434
69064SOL    HW1 9089   4.811   8.528   5.362
69064SOL    HW2 9090   4.705   8.462   5.447
69065SOL     OW 9091   9.730  13.762  14.737
69065SOL    HW1 9092   9.809  13.774  14.685
69065SOL    HW2 9093   9.735  13.671  14.767
69066SOL     OW 9094   1.119  10.871   6.001
69066SOL    HW1 9095   1.194  10.878   6.060
69066SOL    HW2 9096   1.157  10.873   5.913
69067SOL     OW 9097   5.948  14.785   2.518
69067SOL    HW1 9098   5.914  14.734   2.444
69067SOL    HW2 9099   6.041  14.764   2.522
69068SOL     OW 9100  13.163  10.960   0.125
69068SOL    HW1 9101  13.096  11.025   0.103
69068SOL    HW2 9102  13.126  10.877   0.093
69069SOL     OW 9103   0.980  10.778  12.377
69069SOL    HW1 9104   0.903  10.829  12.351
69069SOL    HW2 9105   1.053  10.839  12.371
69070SOL     OW 9106  11.528   8.663  10.719
69070SOL    HW1 9107  11.596   8.623  10.774
69070SOL    HW2 9108  11.459   8.597  10.716
69071SOL     OW 9109  13.896  14.861  14.126
69071SOL    HW1 9110  13.806   0.021  14.139
69071SOL    HW2 9111  13.916   0.011  14.035
69072SOL     OW 9112  12.258   2.890  12.144
69072SOL    HW1 9113  12.218   2.886  12.231
69072SOL    HW2 9114  12.207   2.956  12.097
69073SOL     OW 9115   4.232  11.442   8.397
69073SOL    HW1 9116   4.233  11.357   8.354
69073SOL    HW2 9117   4.198  11.426   8.485
69074SOL     OW 9118   8.514   1.135   3.363
69074SOL    HW1 9119   8.460   1.084   3.303
69074SOL    HW2 9120   8.604   1.115   3.338
69075SOL     OW 9121  14.801   4.088  11.807
69075SOL    HW1 9122  14.866   4.106  11.739
69075SOL    HW2 9123  14.732   4.038  11.762
69076SOL     OW 9124   5.657   4.692   1.802
69076SOL    HW1 9125   5.705   4.623   1.756
69076SOL    HW2 9126   5.654   4.765   1.740
69077SOL     OW 9127  11.156  13.839  12.109
69077SOL    HW1 9128  11.120  13.812  12.024
69077SOL    HW2 9129  11.095  13.905  12.141
69078SOL     OW 9130   0.939  11.108   8.780
69078SOL    HW1 9131   0.876  11.123   8.709
69078SOL    HW2 9132   0.893  11.052   8.842
69079SOL     OW 9133   9.533   3.457   6.465
69079SOL    HW1 9134   9.618   3.443   6.424
69079SOL    HW2 9135   9.552   3.460   6.559
69080SOL     OW 9136   4.870  12.043   0.835
69080SOL    HW1 9137   4.837  12.132   0.817
69080SOL    HW2 9138   4.965  12.052   0.832
69081SOL     OW 9139  11.444   9.564  14.382
69081SOL    HW1 9140  11.437   9.481  14.429
69081SOL    HW2 9141  11.429   9.631  14.449
69082SOL     OW 9142  13.555   1.535   7.710
69082SOL    HW1 9143  13.492   1.526   7.781
69082SOL    HW2 9144  13.518   1.484   7.638
69083SOL     OW 9145   3.228  10.688  12.522
69083SOL    HW1 9146   3.248  10.596  12.538
69083SOL    HW2 9147   3.142  10.687  12.480
69084SOL     OW 9148   9.390  13.363   8.889
69084SOL    HW1 9149   9.308  13.335   8.931
69084SOL    HW2 9150   9.362  13.417   8.816
69085SOL     OW 9151  14.493  11.860   1.534
69085SOL    HW1 9152  14.438  11.926   1.577
69085SOL    HW2 9153  14.573  11.857   1.586
69086SOL     OW 9154   4.536  12.193   2.229
69086SOL    HW1 9155   4.613  12.230   2.271
69086SOL    HW2 9156   4.471  12.187   2.299
69087SOL     OW 9157   2.645  13.183  14.384
69087SOL    HW1 9158   2.645  13.089  14.366
69087SOL    HW2 9159   2.670  13.224  14.301
69088SOL     OW 9160  11.553   4.210   0.351
69088SOL    HW1 9161  11.469   4.239   0.387
69088SOL    HW2 9162  11.529   4.150   0.280
69089SOL     OW 9163  13.264   1.874   4.672
69089SOL    HW1 9164  13.349   1.918   4.674
69089SOL    HW2 9165  13.283   1.786   4.638
69090SOL     OW 9166   8.695   9.832  13.958
69090SOL    HW1 9167   8.716   9.742  13.981
69090SOL    HW2 9168   8.780   9.876  13.953
69091SOL     OW 9169  12.976  11.242   5.506
69091SOL    HW1 9170  12.977  11.243   5.601
69091SOL    HW2 9171  12.924  11.165   5.483
69092SOL     OW 9172   1.777   8.654   3.385
69092SOL    HW1 9173   1.790   8.561   3.400
69092SOL    HW2 9174   1.743   8.660   3.296
69093SOL     OW 9175   9.663  12.950   0.516
69093SOL    HW1 9176   9.612  12.911   0.586
69093SOL    HW2 9177   9.753  12.953   0.550
69094SOL     OW 9178   5.915   1.291   3.003
69094SOL    HW1 9179   5.872   1.375   2.987
69094SOL    HW2 9180   5.995   1.295   2.951
69095SOL     OW 9181  13.428   8.092   5.506
69095SOL    HW1 9182  13.514   8.087   5.464
69095SOL    HW2 9183  13.411   8.186   5.513
69096SOL     OW 9184   0.239   1.227   3.716
69096SOL    HW1 9185   0.239   1.136   3.686
69096SOL    HW2 9186   0.222   1.222   3.810
69097SOL     OW 9187  13.468   7.094   8.946
69097SOL    HW1 9188  13.462   6.999   8.948
69097SOL    HW2 9189  13.378   7.124   8.937
69098SOL     OW 9190   3.253   0.871  13.201
69098SOL    HW1 9191   3.339   0.832  13.214
69098SOL    HW2 9192   3.192   0.807  13.236
69099SOL     OW 9193  11.828  10.603   0.439
69099SOL    HW1 9194  11.748  10.639   0.478
69099SOL    HW2 9195  11.898  10.631   0.497
69100SOL     OW 9196   0.704   5.504   9.490
69100SOL    HW1 9197   0.712   5.505   9.394
69100SOL    HW2 9198   0.739   5.419   9.517
69101SOL     OW 9199  12.272   3.598   1.212
69101SOL    HW1 9200  12.204   3.663   1.226
69101SOL    HW2 9201  12.225   3.515   1.205
69102SOL     OW 9202   1.165  10.329   5.117
69102SOL    HW1 9203   1.175  10.236   5.096
69102SOL    HW2 9204   1.248  10.369   5.088
69103SOL     OW 9205   8.678   2.258  12.303
69103SOL    HW1 9206   8.748   2.286  12.244
69103SOL    HW2 9207   8.643   2.179  12.262
69104SOL     OW 9208  12.826   5.894   2.800
69104SOL    HW1 9209  12.823   5.986   2.826
69104SOL    HW2 9210  12.916   5.867   2.819
69105SOL     OW 9211  13.448   6.808  13.332
69105SOL    HW1 9212  13.453   6.883  13.390
69105SOL    HW2 9213  13.538   6.777  13.324
69106SOL     OW 9214   2.947   5.780   7.180
69106SOL    HW1 9215   2.908   5.695   7.163
69106SOL    HW2 9216   3.007   5.765   7.253
69107SOL     OW 9217   9.936   1.245   3.045
69107SOL    HW1 9218   9.881   1.246   2.967
69107SOL    HW2 9219   9.885   1.198   3.111
69108SOL     OW 9220   8.328   5.901  10.759
69108SOL    HW1 9221   8.407   5.955  10.754
69108SOL    HW2 9222   8.346   5.838  10.829
69109SOL     OW 9223  14.161   0.475   2.671
69109SOL    HW1 9224  14.189   0.550   2.619
69109SOL    HW2 9225  14.074   0.497   2.702
69110SOL     OW 9226   4.865  11.991   1.932
69110SOL    HW1 9227   4.826  12.062   1.881
69110SOL    HW2 9228   4.793  11.958   1.986
69111SOL     OW 9229   6.310   9.673   9.650
69111SOL    HW1 9230   6.294   9.591   9.603
69111SOL    HW2 9231   6.292   9.741   9.586
69112SOL     OW 9232   3.802  13.843   5.321
69112SOL    HW1 9233   3.806  13.918   5.261
69112SOL    HW2 9234   3.840  13.770   5.271
69113SOL     OW 9235   2.349  14.457  10.924
69113SOL    HW1 9236   2.278  14.495  10.975
69113SOL    HW2 9237   2.309  14.439  10.839
69114SOL     OW 9238  13.974  14.262   9.362
69114SOL    HW1 9239  13.890  14.307   9.361
69114SOL    HW2 9240  13.970  14.205   9.438
69115SOL     OW 9241  13.481   6.251   6.970
69115SOL    HW1 9242  13.421   6.258   7.044
69115SOL    HW2 9243  13.538   6.177   6.992
69116SOL     OW 9244  10.750   1.714  12.363
69116SOL    HW1 9245  10.819   1.651  12.381
69116SOL    HW2 9246  10.795   1.797  12.351
69117SOL     OW 9247   1.718   5.736  12.222
69117SOL    HW1 9248   1.752   5.753  12.134
69117SOL    HW2 9249   1.749   5.809  12.275
69118SOL     OW 9250   7.885  12.409   9.203
69118SOL    HW1 9251   7.846  12.441   9.121
69118SOL    HW2 9252   7.975  12.386   9.179
69119SOL     OW 9253   6.835   0.777   0.665
69119SOL    HW1 9254   6.892   0.701   0.664
69119SOL    HW2 9255   6.783   0.770   0.585
69120SOL     OW 9256  13.670   0.283   6.480
69120SOL    HW1 9257  13.634   0.261   6.566
69120SOL    HW2 9258  13.701   0.200   6.445
69121SOL     OW 9259  14.278  12.090   5.389
69121SOL    HW1 9260  14.227  12.112   5.467
69121SOL    HW2 9261  14.364  12.065   5.422
69122SOL     OW 9262  10.963  11.413   0.128
69122SOL    HW1 9263  11.030  11.375   0.186
69122SOL    HW2 9264  10.883  11.365   0.149
69123SOL     OW 9265   6.376   1.306   2.831
69123SOL    HW1 9266   6.383   1.297   2.926
69123SOL    HW2 9267   6.377   1.217   2.798
69124SOL     OW 9268   5.383   3.574  12.307
69124SOL    HW1 9269   5.373   3.568  12.212
69124SOL    HW2 9270   5.307   3.527  12.342
69125SOL     OW 9271  12.754   6.654   5.072
69125SOL    HW1 9272  12.774   6.678   5.163
69125SOL    HW2 9273  12.690   6.583   5.081
69126SOL     OW 9274   4.533   9.622   9.361
69126SOL    HW1 9275   4.481   9.559   9.311
69126SOL    HW2 9276   4.594   9.568   9.412
69127SOL     OW 9277   1.528  12.063   0.277
69127SOL    HW1 9278   1.460  12.078   0.212
69127SOL    HW2 9279   1.579  12.144   0.277
69128SOL     OW 9280  11.432   3.549  13.182
69128SOL    HW1 9281  11.509   3.541  13.238
69128SOL    HW2 9282  11.358   3.545  13.243
69129SOL     OW 9283   4.174   6.577   9.837
69129SOL    HW1 9284   4.154   6.553   9.747
69129SOL    HW2 9285   4.108   6.530   9.889
69130SOL     OW 9286  11.651   9.695   3.691
69130SOL    HW1 9287  11.719   9.659   3.747
69130SOL    HW2 9288  11.579   9.633   3.697
69131SOL     OW 9289   9.460   5.231   3.161
69131SOL    HW1 9290   9.400   5.287   3.113
69131SOL    HW2 9291   9.429   5.142   3.143
69132SOL     OW 9292   9.561   6.980   5.681
69132SOL    HW1 9293   9.485   7.036   5.698
69132SOL    HW2 9294   9.636   7.034   5.703
69133SOL     OW 9295   2.558   0.062  12.897
69133SOL    HW1 9296   2.469   0.029  12.887
69133SOL    HW2 9297   2.595   0.009  12.968
69134SOL     OW 9298   5.530  10.876   8.245
69134SOL    HW1 9299   5.521  10.965   8.278
69134SOL    HW2 9300   5.456  10.829   8.283
69135SOL     OW 9301  12.396  10.454  10.150
69135SOL    HW1 9302  12.316  10.445  10.098
69135SOL    HW2 9303  12.413  10.365  10.182
69136SOL     OW 9304   1.166   1.902   0.777
69136SOL    HW1 9305   1.213   1.826   0.743
69136SOL    HW2 9306   1.089   1.909   0.721
69137SOL     OW 9307   1.355   8.071  13.940
69137SOL    HW1 9308   1.431   8.093  13.993
69137SOL    HW2 9309   1.281   8.106  13.990
69138SOL     OW 9310   1.942   1.986  11.546
69138SOL    HW1 9311   1.991   2.067  11.559
69138SOL    HW2 9312   1.898   1.998  11.462
69139SOL     OW 9313   7.817   4.426   3.417
69139SOL    HW1 9314   7.761   4.358   3.381
69139SOL    HW2 9315   7.906   4.396   3.399
69140SOL     OW 9316  13.218   9.274   8.574
69140SOL    HW1 9317  13.240   9.185   8.546
69140SOL    HW2 9318  13.238   9.276   8.667
69141SOL     OW 9319   5.975   8.291  11.658
69141SOL    HW1 9320   5.912   8.239  11.609
69141SOL    HW2 9321   6.001   8.360  11.598
69142SOL     OW 9322  11.605  10.639  11.392
69142SOL    HW1 9323  11.530  10.613  11.339
69142SOL    HW2 9324  11.665  10.565  11.387
69143SOL     OW 9325  11.589   4.867  13.282
69143SOL    HW1 9326  11.518   4.918  13.244
69143SOL    HW2 9327  11.599   4.792  13.223
69144SOL     OW 9328  14.829   5.131  10.165
69144SOL    HW1 9329  14.788   5.188  10.230
69144SOL    HW2 9330  14.799   5.166  10.081
69145SOL     OW 9331  13.800  13.442   7.714
69145SOL    HW1 9332  13.846  13.395   7.644
69145SOL    HW2 9333  13.783  13.528   7.677
69146SOL     OW 9334   5.555   1.565   7.456
69146SOL    HW1 9335   5.612   1.514   7.514
69146SOL    HW2 9336   5.514   1.499   7.399
69147SOL     OW 9337  12.948   3.827   1.981
69147SOL    HW1 9338  12.932   3.875   1.899
69147SOL    HW2 9339  12.861   3.806   2.014
69148SOL     OW 9340   9.663   4.071   6.791
69148SOL    HW1 9341   9.585   4.029   6.826
69148SOL    HW2 9342   9.728   4.062   6.861
69149SOL     OW 9343   3.117  12.178   4.577
69149SOL    HW1 9344   3.135  12.136   4.662
69149SOL    HW2 9345   3.083  12.264   4.600
69150SOL     OW 9346   6.730  11.318  10.519
69150SOL    HW1 9347   6.700  11.406  10.542
69150SOL    HW2 9348   6.709  11.265  10.596
69151SOL     OW 9349  11.495  10.615   4.430
69151SOL    HW1 9350  11.407  10.582   4.449
69151SOL    HW2 9351  11.546  10.536   4.410
69152SOL     OW 9352   1.809   1.754  14.101
69152SOL    HW1 9353   1.779   1.664  14.106
69152SOL    HW2 9354   1.878   1.761  14.167
69153SOL     OW 9355   7.013   7.509   9.250
69153SOL    HW1 9356   6.997   7.595   9.211
69153SOL    HW2 9357   7.074   7.467   9.190
69154SOL     OW 9358   3.116  14.230  14.607
69154SOL    HW1 9359   3.153  14.224  14.518
69154SOL    HW2 9360   3.144  14.149  14.649
69155SOL     OW 9361   3.770  11.385   0.815
69155SOL    HW1 9362   3.838  11.398   0.881
69155SOL    HW2 9363   3.802  11.432   0.738
69156SOL     OW 9364   7.616   6.435   3.137
69156SOL    HW1 9365   7.674   6.502   3.101
69156SOL    HW2 9366   7.577   6.476   3.215
69157SOL     OW 9367  10.448   3.149   6.227
69157SOL    HW1 9368  10.511   3.160   6.156
69157SOL    HW2 9369  10.387   3.222   6.217
69158SOL     OW 9370   2.276   0.871   2.978
69158SOL    HW1 9371   2.291   0.799   2.917
69158SOL    HW2 9372   2.223   0.833   3.048
69159SOL     OW 9373   6.611   0.800  13.998
69159SOL    HW1 9374   6.607   0.734  13.928
69159SOL    HW2 9375   6.701   0.832  13.995
69160SOL     OW 9376   0.031   2.274   4.465
69160SOL    HW1 9377  14.840   2.217   4.507
69160SOL    HW2 9378  14.853   2.351   4.439
69161SOL     OW 9379   1.507  14.306  12.586
69161SOL    HW1 9380   1.552  14.338  12.664
69161SOL    HW2 9381   1.564  14.238  12.551
69162SOL     OW 9382   2.847   9.521   4.792
69162SOL    HW1 9383   2.779   9.523   4.725
69162SOL    HW2 9384   2.861   9.428   4.811
69163SOL     OW 9385   9.506   1.153   9.467
69163SOL    HW1 9386   9.515   1.163   9.562
69163SOL    HW2 9387   9.523   1.060   9.451
69164SOL     OW 9388   6.909  11.978  10.489
69164SOL    HW1 9389   7.002  12.000  10.493
69164SOL    HW2 9390   6.906  11.882  10.488
69165SOL     OW 9391   3.483  10.995   0.034
69165SOL    HW1 9392   3.479  11.090   0.041
69165SOL    HW2 9393   3.577  10.976   0.031
69166SOL     OW 9394   3.121  14.688   3.895
69166SOL    HW1 9395   3.141  14.657   3.983
69166SOL    HW2 9396   3.167  14.628   3.837
69167SOL     OW 9397   7.222   2.030  10.107
69167SOL    HW1 9398   7.182   1.990  10.029
69167SOL    HW2 9399   7.148   2.063  10.157
69168SOL     OW 9400   3.005   0.246   8.894
69168SOL    HW1 9401   3.004   0.238   8.990
69168SOL    HW2 9402   3.090   0.211   8.869
69169SOL     OW 9403  12.409  11.139  12.051
69169SOL    HW1 9404  12.469  11.208  12.081
69169SOL    HW2 9405  12.431  11.127  11.959
69170SOL     OW 9406  11.835  13.637   6.896
69170SOL    HW1 9407  11.792  13.708   6.945
69170SOL    HW2 9408  11.901  13.603   6.956
69171SOL     OW 9409   2.103  12.176   3.764
69171SOL    HW1 9410   2.137  12.170   3.675
69171SOL    HW2 9411   2.029  12.235   3.758
69172SOL     OW 9412  13.943  11.554   1.262
69172SOL    HW1 9413  13.932  11.629   1.203
69172SOL    HW2 9414  13.906  11.480   1.214
69173SOL     OW 9415   2.017  13.435  14.487
69173SOL    HW1 9416   1.983  13.357  14.532
69173SOL    HW2 9417   1.984  13.509  14.538
69174SOL     OW 9418   2.441  14.291  12.902
69174SOL    HW1 9419   2.442  14.196  12.886
69174SOL    HW2 9420   2.403  14.328  12.823
69175SOL     OW 9421   8.462  11.804   1.101
69175SOL    HW1 9422   8.399  11.873   1.079
69175SOL    HW2 9423   8.411  11.740   1.150
69176SOL     OW 9424   4.754  12.747   3.410
69176SOL    HW1 9425   4.765  12.841   3.424
69176SOL    HW2 9426   4.842  12.710   3.424
69177SOL     OW 9427   8.407   6.236  13.088
69177SOL    HW1 9428   8.433   6.283  13.009
69177SOL    HW2 9429   8.488   6.227  13.138
69178SOL     OW 9430  13.528  12.878  14.786
69178SOL    HW1 9431  13.480  12.851  14.709
69178SOL    HW2 9432  13.476  12.949  14.824
69179SOL     OW 9433   3.579   0.546  14.700
69179SOL    HW1 9434   3.496   0.523  14.658
69179SOL    HW2 9435   3.636   0.573  14.628
69180SOL     OW 9436  13.448   1.812   2.450
69180SOL    HW1 9437  13.467   1.901   2.423
69180SOL    HW2 9438  13.530   1.764   2.436
69181SOL     OW 9439   0.268  12.940   9.217
69181SOL    HW1 9440   0.333  12.952   9.148
69181SOL    HW2 9441   0.320  12.924   9.296
69182SOL     OW 9442  12.202  14.668   3.412
69182SOL    HW1 9443  12.287  14.672   3.456
69182SOL    HW2 9444  12.218  14.613   3.335
69183SOL     OW 9445   1.890  10.411  12.743
69183SOL    HW1 9446   1.877  10.390  12.836
69183SOL    HW2 9447   1.984  10.398  12.728
69184SOL     OW 9448   1.181   1.682  13.265
69184SOL    HW1 9449   1.181   1.774  13.238
69184SOL    HW2 9450   1.265   1.670  13.309
69185SOL     OW 9451   5.780   3.498   5.913
69185SOL    HW1 9452   5.793   3.562   5.983
69185SOL    HW2 9453   5.685   3.494   5.901
69186SOL     OW 9454   8.082  11.963  11.734
69186SOL    HW1 9455   7.997  11.933  11.702
69186SOL    HW2 9456   8.064  12.048  11.775
69187SOL     OW 9457   3.896  10.767  12.386
69187SOL    HW1 9458   3.807  10.756  12.419
69187SOL    HW2 9459   3.926  10.679  12.365
69188SOL     OW 9460   1.045   1.913   1.765
69188SOL    HW1 9461   1.105   1.843   1.793
69188SOL    HW2 9462   0.979   1.868   1.712
69189SOL     OW 9463   2.032  13.672  13.868
69189SOL    HW1 9464   2.023  13.660  13.963
69189SOL    HW2 9465   2.088  13.600  13.840
69190SOL     OW 9466   1.141   3.835   1.063
69190SOL    HW1 9467   1.218   3.798   1.105
69190SOL    HW2 9468   1.159   3.828   0.969
69191SOL     OW 9469   2.621   8.098  10.469
69191SOL    HW1 9470   2.669   8.147  10.402
69191SOL    HW2 9471   2.667   8.119  10.551
69192SOL     OW 9472   0.607   9.631  12.376
69192SOL    HW1 9473   0.534   9.593  12.327
69192SOL    HW2 9474   0.566   9.691  12.437
69193SOL     OW 9475  13.893   5.128   3.366
69193SOL    HW1 9476  13.953   5.085   3.306
69193SOL    HW2 9477  13.903   5.080   3.448
69194SOL     OW 9478   8.507   6.778   1.113
69194SOL    HW1 9479   8.527   6.729   1.193
69194SOL    HW2 9480   8.412   6.786   1.112
69195SOL     OW 9481  12.570   3.880   6.345
69195SOL    HW1 9482  12.495   3.876   6.285
69195SOL    HW2 9483  12.598   3.789   6.354
69196SOL     OW 9484   7.330   3.038  10.490
69196SOL    HW1 9485   7.345   2.944  10.492
69196SOL    HW2 9486   7.301   3.059  10.579
69197SOL     OW 9487  10.451  11.535   6.630
69197SOL    HW1 9488  10.409  11.450   6.620
69197SOL    HW2 9489  10.409  11.591   6.566
69198SOL     OW 9490   7.624  13.721   8.968
69198SOL    HW1 9491   7.585  13.768   9.043
69198SOL    HW2 9492   7.581  13.635   8.970
69199SOL     OW 9493   4.867  12.641   5.451
69199SOL    HW1 9494   4.802  12.577   5.479
69199SOL    HW2 9495   4.874  12.702   5.524
69200SOL     OW 9496  11.075   6.497  12.972
69200SOL    HW1 9497  11.056   6.407  12.998
69200SOL    HW2 9498  11.048   6.502  12.880
69201SOL     OW 9499   9.984   7.273   3.105
69201SOL    HW1 9500   9.920   7.238   3.167
69201SOL    HW2 9501  10.059   7.213   3.110
69202SOL     OW 9502   8.966   6.060  12.065
69202SOL    HW1 9503   8.875   6.092  12.061
69202SOL    HW2 9504   9.014   6.130  12.109
69203SOL     OW 9505  14.154   7.362   9.803
69203SOL    HW1 9506  14.176   7.454   9.792
69203SOL    HW2 9507  14.062   7.356   9.778
69204SOL     OW 9508   6.381   1.743   2.754
69204SOL    HW1 9509   6.313   1.727   2.820
69204SOL    HW2 9510   6.339   1.802   2.691
69205SOL     OW 9511  10.628   6.281   7.506
69205SOL    HW1 9512  10.669   6.345   7.564
69205SOL    HW2 9513  10.591   6.215   7.565
69206SOL     OW 9514   4.677   1.190   3.432
69206SOL    HW1 9515   4.670   1.135   3.354
69206SOL    HW2 9516   4.647   1.134   3.504
69207SOL     OW 9517   4.551  11.882  10.808
69207SOL    HW1 9518   4.463  11.910  10.785
69207SOL    HW2 9519   4.608  11.953  10.780
69208SOL     OW 9520  12.105  13.922   7.371
69208SOL    HW1 9521  12.094  14.008   7.331
69208SOL    HW2 9522  12.020  13.880   7.362
69209SOL     OW 9523  11.385  10.993   8.069
69209SOL    HW1 9524  11.452  10.934   8.033
69209SOL    HW2 9525  11.309  10.937   8.083
69210SOL     OW 9526  14.584   2.244   8.327
69210SOL    HW1 9527  14.577   2.334   8.358
69210SOL    HW2 9528  14.493   2.216   8.313
69211SOL     OW 9529   1.303   0.418   9.540
69211SOL    HW1 9530   1.373   0.478   9.565
69211SOL    HW2 9531   1.278   0.374   9.621
69212SOL     OW 9532   3.627   8.438   3.991
69212SOL    HW1 9533   3.631   8.524   4.032
69212SOL    HW2 9534   3.718   8.418   3.967
69213SOL     OW 9535   0.984   7.168   2.032
69213SOL    HW1 9536   0.931   7.224   2.089
69213SOL    HW2 9537   1.048   7.227   1.993
69214SOL     OW 9538  10.000  11.380   9.854
69214SOL    HW1 9539   9.982  11.471   9.876
69214SOL    HW2 9540  10.035  11.383   9.765
69215SOL     OW 9541  10.383   3.642   6.392
69215SOL    HW1 9542  10.409   3.664   6.302
69215SOL    HW2 9543  10.343   3.555   6.385
69216SOL     OW 9544  12.790   2.604   0.516
69216SOL    HW1 9545  12.784   2.542   0.588
69216SOL    HW2 9546  12.787   2.550   0.437
69217SOL     OW 9547   1.155   4.180  12.518
69217SOL    HW1 9548   1.156   4.267  12.558
69217SOL    HW2 9549   1.246   4.150  12.524
69218SOL     OW 9550  11.536  12.660   0.478
69218SOL    HW1 9551  11.468  12.667   0.410
69218SOL    HW2 9552  11.610  12.619   0.433
69219SOL     OW 9553   1.760   7.679   0.570
69219SOL    HW1 9554   1.799   7.764   0.586
69219SOL    HW2 9555   1.827   7.616   0.594
69220SOL     OW 9556  14.282   3.736   7.168
69220SOL    HW1 9557  14.218   3.754   7.099
69220SOL    HW2 9558  14.290   3.641   7.169
69221SOL     OW 9559  10.300   6.758  10.734
69221SOL    HW1 9560  10.342   6.680  10.697
69221SOL    HW2 9561  10.281   6.813  10.658
69222SOL     OW 9562   1.363   7.114  14.149
69222SOL    HW1 9563   1.383   7.047  14.215
69222SOL    HW2 9564   1.334   7.190  14.200
69223SOL     OW 9565   3.504  13.221   0.133
69223SOL    HW1 9566   3.481  13.142   0.086
69223SOL    HW2 9567   3.494  13.291   0.069
69224SOL     OW 9568   3.420   1.192   0.896
69224SOL    HW1 9569   3.346   1.135   0.873
69224SOL    HW2 9570   3.489   1.131   0.925
69225SOL     OW 9571   1.391   3.769   1.206
69225SOL    HW1 9572   1.436   3.692   1.240
69225SOL    HW2 9573   1.425   3.841   1.258
69226SOL     OW 9574  13.817  11.181   0.091
69226SOL    HW1 9575  13.790  11.103   0.043
69226SOL    HW2 9576  13.906  11.199   0.061
69227SOL     OW 9577   0.416  11.307   6.648
69227SOL    HW1 9578   0.459  11.302   6.734
69227SOL    HW2 9579   0.488  11.327   6.587
69228SOL     OW 9580  11.409   3.535  10.230
69228SOL    HW1 9581  11.383   3.526  10.321
69228SOL    HW2 9582  11.434   3.447  10.203
69229SOL     OW 9583   3.209   9.179   4.353
69229SOL    HW1 9584   3.205   9.205   4.261
69229SOL    HW2 9585   3.119   9.156   4.375
69230SOL     OW 9586   9.246  12.829   9.382
69230SOL    HW1 9587   9.323  12.874   9.348
69230SOL    HW2 9588   9.269  12.736   9.378
69231SOL     OW 9589  14.637   4.476  14.317
69231SOL    HW1 9590  14.613   4.435  14.400
69231SOL    HW2 9591  14.704   4.419  14.280
69232SOL     OW 9592   0.251   7.994   0.944
69232SOL    HW1 9593   0.339   8.032   0.937
69232SOL    HW2 9594   0.231   7.963   0.855
69233SOL     OW 9595   7.113   6.360   2.379
69233SOL    HW1 9596   7.149   6.295   2.440
69233SOL    HW2 9597   7.178   6.365   2.309
69234SOL     OW 9598  10.762  13.293   1.494
69234SOL    HW1 9599  10.727  13.223   1.550
69234SOL    HW2 9600  10.839  13.253   1.452
69235SOL     OW 9601   0.441   9.080   9.077
69235SOL    HW1 9602   0.348   9.057   9.081
69235SOL    HW2 9603   0.475   9.060   9.164
69236SOL     OW 9604   4.393   9.129  12.987
69236SOL    HW1 9605   4.482   9.165  12.989
69236SOL    HW2 9606   4.389   9.081  12.904
69237SOL     OW 9607   4.765   5.713  11.781
69237SOL    HW1 9608   4.850   5.749  11.805
69237SOL    HW2 9609   4.705   5.746  11.848
69238SOL     OW 9610   6.203  13.528   5.573
69238SOL    HW1 9611   6.109  13.518   5.587
69238SOL    HW2 9612   6.236  13.558   5.658
69239SOL     OW 9613   9.836  13.635   6.909
69239SOL    HW1 9614   9.777  13.588   6.849
69239SOL    HW2 9615   9.916  13.582   6.909
69240SOL     OW 9616   4.222   7.528   4.108
69240SOL    HW1 9617   4.213   7.441   4.068
69240SOL    HW2 9618   4.303   7.563   4.071
69241SOL     OW 9619   9.428   0.473   7.768
69241SOL    HW1 9620   9.454   0.501   7.680
69241SOL    HW2 9621   9.425   0.378   7.763
69242SOL     OW 9622  14.257   6.124   6.739
69242SOL    HW1 9623  14.256   6.179   6.661
69242SOL    HW2 9624  14.183   6.155   6.791
69243SOL     OW 9625  10.851  12.340   2.414
69243SOL    HW1 9626  10.892  12.308   2.495
69243SOL    HW2 9627  10.759  12.353   2.438
69244SOL     OW 9628   4.601   0.127   4.095
69244SOL    HW1 9629   4.625   0.041   4.058
69244SOL    HW2 9630   4.675   0.149   4.152
69245SOL     OW 9631  10.708  11.671   6.084
69245SOL    HW1 9632  10.688  11.635   6.171
69245SOL    HW2 9633  10.761  11.748   6.102
69246SOL     OW 9634   6.073  12.045   8.841
69246SOL    HW1 9635   6.045  11.958   8.870
69246SOL    HW2 9636   6.002  12.103   8.868
69247SOL     OW 9637   6.276  14.809   1.463
69247SOL    HW1 9638   6.223   0.015   1.450
69247SOL    HW2 9639   6.212  14.738   1.471
69248SOL     OW 9640  13.444   3.594   7.352
69248SOL    HW1 9641  13.485   3.525   7.300
69248SOL    HW2 9642  13.450   3.672   7.296
69249SOL     OW 9643   5.729  13.756   2.173
69249SOL    HW1 9644   5.815  13.783   2.141
69249SOL    HW2 9645   5.743  13.671   2.213
69250SOL     OW 9646   3.647   1.548   4.848
69250SOL    HW1 9647   3.664   1.459   4.819
69250SOL    HW2 9648   3.565   1.544   4.897
69251SOL     OW 9649   5.156   3.169  11.474
69251SOL    HW1 9650   5.216   3.233  11.437
69251SOL    HW2 9651   5.102   3.140  11.400
69252SOL     OW 9652   0.894  13.287  13.663
69252SOL    HW1 9653   0.841  13.223  13.615
69252SOL    HW2 9654   0.847  13.301  13.745
69253SOL     OW 9655   0.454  10.460  11.719
69253SOL    HW1 9656   0.517  10.432  11.786
69253SOL    HW2 9657   0.492  10.541  11.684
69254SOL     OW 9658   8.173  12.405   9.789
69254SOL    HW1 9659   8.237  12.338   9.766
69254SOL    HW2 9660   8.206  12.443   9.871
69255SOL     OW 9661   8.050   7.938   3.366
69255SOL    HW1 9662   7.993   7.867   3.336
69255SOL    HW2 9663   8.014   7.964   3.451
69256SOL     OW 9664   6.146  12.168   8.363
69256SOL    HW1 9665   6.144  12.073   8.366
69256SOL    HW2 9666   6.061  12.193   8.326
69257SOL     OW 9667   0.897   7.153  10.913
69257SOL    HW1 9668   0.966   7.105  10.960
69257SOL    HW2 9669   0.819   7.099  10.923
69258SOL     OW 9670   1.713  12.650  13.480
69258SOL    HW1 9671   1.713  12.741  13.449
69258SOL    HW2 9672   1.736  12.657  13.573
69259SOL     OW 9673  14.356   7.791   3.291
69259SOL    HW1 9674  14.351   7.886   3.302
69259SOL    HW2 9675  14.425   7.764   3.351
69260SOL     OW 9676   3.113  11.049   0.922
69260SOL    HW1 9677   3.076  11.090   0.844
69260SOL    HW2 9678   3.139  11.123   0.977
69261SOL     OW 9679  11.792  13.286   0.154
69261SOL    HW1 9680  11.818  13.372   0.120
69261SOL    HW2 9681  11.704  13.272   0.120
69262SOL     OW 9682   9.562   2.755   2.480
69262SOL    HW1 9683   9.550   2.816   2.553
69262SOL    HW2 9684   9.551   2.808   2.402
69263SOL     OW 9685   9.043  12.851  10.687
69263SOL    HW1 9686   8.956  12.890  10.678
69263SOL    HW2 9687   9.049  12.790  10.613
69264SOL     OW 9688   6.370   1.381  12.394
69264SOL    HW1 9689   6.366   1.471  12.426
69264SOL    HW2 9690   6.460   1.371  12.363
69265SOL     OW 9691  12.904   8.138   6.085
69265SOL    HW1 9692  12.976   8.180   6.038
69265SOL    HW2 9693  12.922   8.154   6.177
69266SOL     OW 9694   5.377  10.679  12.738
69266SOL    HW1 9695   5.312  10.749  12.741
69266SOL    HW2 9696   5.449  10.715  12.686
69267SOL     OW 9697   6.437  13.712   1.278
69267SOL    HW1 9698   6.493  13.649   1.322
69267SOL    HW2 9699   6.471  13.716   1.189
69268SOL     OW 9700   2.945   2.565   4.704
69268SOL    HW1 9701   2.934   2.493   4.767
69268SOL    HW2 9702   2.974   2.639   4.757
69269SOL     OW 9703   0.276   3.455  14.228
69269SOL    HW1 9704   0.225   3.400  14.288
69269SOL    HW2 9705   0.214   3.521  14.198
69270SOL     OW 9706  10.234  13.042   8.341
69270SOL    HW1 9707  10.215  13.106   8.273
69270SOL    HW2 9708  10.168  12.973   8.328
69271SOL     OW 9709   9.556  11.749  13.542
69271SOL    HW1 9710   9.526  11.802  13.468
69271SOL    HW2 9711   9.651  11.752  13.537
69272SOL     OW 9712   2.533   0.201   0.863
69272SOL    HW1 9713   2.466   0.175   0.800
69272SOL    HW2 9714   2.539   0.296   0.853
69273SOL     OW 9715   9.837   2.072   5.788
69273SOL    HW1 9716   9.808   2.155   5.751
69273SOL    HW2 9717   9.892   2.097   5.863
69274SOL     OW 9718   1.548  11.706  11.548
69274SOL    HW1 9719   1.628  11.757  11.536
69274SOL    HW2 9720   1.576  11.615  11.536
69275SOL     OW 9721  11.905   2.769  11.909
69275SOL    HW1 9722  11.841   2.796  11.842
69275SOL    HW2 9723  11.853   2.721  11.974
69276SOL     OW 9724  11.580   0.590  14.151
69276SOL    HW1 9725  11.544   0.678  14.146
69276SOL    HW2 9726  11.671   0.599  14.123
69277SOL     OW 9727   0.095   9.378  13.037
69277SOL    HW1 9728   0.053   9.373  13.123
69277SOL    HW2 9729   0.030   9.418  12.980
69278SOL     OW 9730   3.606   2.833   9.905
69278SOL    HW1 9731   3.688   2.843   9.857
69278SOL    HW2 9732   3.594   2.917   9.949
69279SOL     OW 9733   1.117  11.033  14.668
69279SOL    HW1 9734   1.075  11.088  14.602
69279SOL    HW2 9735   1.182  10.983  14.619
69280SOL     OW 9736  12.942  13.820  13.607
69280SOL    HW1 9737  12.873  13.804  13.542
69280SOL    HW2 9738  13.020  13.780  13.569
69281SOL     OW 9739   3.807   0.592   6.749
69281SOL    HW1 9740   3.894   0.631   6.750
69281SOL    HW2 9741   3.820   0.502   6.779
69282SOL     OW 9742   2.702  10.019  12.353
69282SOL    HW1 9743   2.638  10.045  12.419
69282SOL    HW2 9744   2.734  10.102  12.317
69283SOL     OW 9745   6.827   5.537   8.447
69283SOL    HW1 9746   6.841   5.505   8.537
69283SOL    HW2 9747   6.810   5.630   8.458
69284SOL     OW 9748   9.245   4.230   2.186
69284SOL    HW1 9749   9.201   4.286   2.121
69284SOL    HW2 9750   9.173   4.182   2.229
69285SOL     OW 9751  10.939   1.406   2.834
69285SOL    HW1 9752  10.966   1.392   2.744
69285SOL    HW2 9753  10.930   1.501   2.843
69286SOL     OW 9754   0.928  13.033  10.219
69286SOL    HW1 9755   1.010  12.991  10.195
69286SOL    HW2 9756   0.871  13.020  10.143
69287SOL     OW 9757  13.007   8.093   1.308
69287SOL    HW1 9758  12.924   8.118   1.347
69287SOL    HW2 9759  13.052   8.042   1.376
69288SOL     OW 9760   9.370   6.660   3.361
69288SOL    HW1 9761   9.293   6.612   3.393
69288SOL    HW2 9762   9.437   6.646   3.427
69289SOL     OW 9763  13.968   8.123   5.145
69289SOL    HW1 9764  14.018   8.106   5.066
69289SOL    HW2 9765  13.977   8.217   5.160
69290SOL     OW 9766   7.061   3.613  14.470
69290SOL    HW1 9767   7.094   3.536  14.422
69290SOL    HW2 9768   7.091   3.600  14.560
69291SOL     OW 9769   3.846   5.691  14.795
69291SOL    HW1 9770   3.883   5.780  14.799
69291SOL    HW2 9771   3.845   5.661   0.013
69292SOL     OW 9772   6.569   6.732   1.549
69292SOL    HW1 9773   6.628   6.790   1.500
69292SOL    HW2 9774   6.541   6.784   1.624
69293SOL     OW 9775   7.339   4.882   3.635
69293SOL    HW1 9776   7.370   4.853   3.721
69293SOL    HW2 9777   7.322   4.975   3.646
69294SOL     OW 9778   9.259  12.684   2.290
69294SOL    HW1 9779   9.227  12.594   2.301
69294SOL    HW2 9780   9.255  12.700   2.196
69295SOL     OW 9781  14.294   2.769   5.195
69295SOL    HW1 9782  14.365   2.757   5.257
69295SOL    HW2 9783  14.214   2.764   5.247
69296SOL     OW 9784  14.576   2.828   1.723
69296SOL    HW1 9785  14.621   2.749   1.694
69296SOL    HW2 9786  14.498   2.833   1.667
69297SOL     OW 9787  10.067   9.717   3.795
69297SOL    HW1 9788  10.013   9.702   3.718
69297SOL    HW2 9789  10.010   9.764   3.856
69298SOL     OW 9790   5.829   5.775  11.230
69298SOL    HW1 9791   5.809   5.696  11.280
69298SOL    HW2 9792   5.923   5.769  11.212
69299SOL     OW 9793   3.004  10.413   7.022
69299SOL    HW1 9794   3.090  10.445   7.047
69299SOL    HW2 9795   2.946  10.488   7.033
69300SOL     OW 9796  13.656  12.935   9.908
69300SOL    HW1 9797  13.745  12.920   9.876
69300SOL    HW2 9798  13.661  13.018   9.956
69301SOL     OW 9799   4.458  12.961   6.062
69301SOL    HW1 9800   4.434  13.043   6.105
69301SOL    HW2 9801   4.544  12.977   6.025
69302SOL     OW 9802  13.047   1.854   3.668
69302SOL    HW1 9803  13.010   1.785   3.613
69302SOL    HW2 9804  13.100   1.807   3.732
69303SOL     OW 9805  11.412   0.915  12.661
69303SOL    HW1 9806  11.507   0.921  12.645
69303SOL    HW2 9807  11.388   1.002  12.692
69304SOL     OW 9808   3.792  12.960   3.698
69304SOL    HW1 9809   3.868  13.003   3.737
69304SOL    HW2 9810   3.794  12.870   3.733
69305SOL     OW 9811   3.828   2.631  12.797
69305SOL    HW1 9812   3.788   2.704  12.844
69305SOL    HW2 9813   3.793   2.637  12.708
69306SOL     OW 9814  14.797  12.378  12.139
69306SOL    HW1 9815  14.797  12.446  12.206
69306SOL    HW2 9816  14.707  12.346  12.137
69307SOL     OW 9817   4.240   4.762   0.825
69307SOL    HW1 9818   4.145   4.761   0.840
69307SOL    HW2 9819   4.255   4.691   0.763
69308SOL     OW 9820   3.682   5.864  13.927
69308SOL    HW1 9821   3.683   5.853  14.022
69308SOL    HW2 9822   3.752   5.926  13.909
69309SOL     OW 9823  11.246   1.126   1.474
69309SOL    HW1 9824  11.220   1.177   1.552
69309SOL    HW2 9825  11.231   1.186   1.401
69310SOL     OW 9826  10.323   3.589   3.018
69310SOL    HW1 9827  10.343   3.561   2.929
69310SOL    HW2 9828  10.386   3.542   3.073
69311SOL     OW 9829   9.002  14.294  12.131
69311SOL    HW1 9830   9.092  14.290  12.163
69311SOL    HW2 9831   9.010  14.295  12.036
69312SOL     OW 9832   8.748   9.554  11.469
69312SOL    HW1 9833   8.776   9.478  11.418
69312SOL    HW2 9834   8.676   9.522  11.523
69313SOL     OW 9835   1.506   6.620   0.899
69313SOL    HW1 9836   1.581   6.679   0.896
69313SOL    HW2 9837   1.462   6.642   0.982
69314SOL     OW 9838  11.497   9.288   8.905
69314SOL    HW1 9839  11.550   9.320   8.978
69314SOL    HW2 9840  11.558   9.279   8.832
69315SOL     OW 9841   2.112   0.609   9.408
69315SOL    HW1 9842   2.034   0.653   9.375
69315SOL    HW2 9843   2.118   0.529   9.356
69316SOL     OW 9844   9.168   1.954   9.183
69316SOL    HW1 9845   9.246   2.010   9.185
69316SOL    HW2 9846   9.161   1.919   9.272
69317SOL     OW 9847  14.075   1.819  11.153
69317SOL    HW1 9848  14.092   1.880  11.224
69317SOL    HW2 9849  13.990   1.779  11.175
69318SOL     OW 9850  11.683   0.290  14.182
69318SOL    HW1 9851  11.711   0.349  14.112
69318SOL    HW2 9852  11.590   0.310  14.194
69319SOL     OW 9853   2.364   8.409  13.168
69319SOL    HW1 9854   2.430   8.466  13.209
69319SOL    HW2 9855   2.405   8.322  13.168
69320SOL     OW 9856   3.351   7.579  13.108
69320SOL    HW1 9857   3.352   7.565  13.013
69320SOL    HW2 9858   3.317   7.668  13.118
69321SOL     OW 9859   4.226   7.742   0.603
69321SOL    HW1 9860   4.218   7.823   0.553
69321SOL    HW2 9861   4.293   7.692   0.557
69322SOL     OW 9862   6.389   0.326   7.472
69322SOL    HW1 9863   6.414   0.291   7.387
69322SOL    HW2 9864   6.453   0.394   7.490
69323SOL     OW 9865   7.990  11.688   6.813
69323SOL    HW1 9866   7.981  11.768   6.865
69323SOL    HW2 9867   8.082  11.664   6.821
69324SOL     OW 9868   2.407   3.117  10.238
69324SOL    HW1 9869   2.362   3.113  10.323
69324SOL    HW2 9870   2.499   3.104  10.259
69325SOL     OW 9871   2.600   0.095   9.054
69325SOL    HW1 9872   2.581   0.070   9.145
69325SOL    HW2 9873   2.659   0.026   9.022
69326SOL     OW 9874   4.007   2.287   1.584
69326SOL    HW1 9875   4.072   2.247   1.642
69326SOL    HW2 9876   3.924   2.246   1.609
69327SOL     OW 9877  10.665   7.183   1.120
69327SOL    HW1 9878  10.584   7.222   1.088
69327SOL    HW2 9879  10.644   7.089   1.128
69328SOL     OW 9880  11.827   7.652   5.255
69328SOL    HW1 9881  11.807   7.680   5.166
69328SOL    HW2 9882  11.920   7.670   5.266
69329SOL     OW 9883   2.867   6.199   7.873
69329SOL    HW1 9884   2.936   6.265   7.867
69329SOL    HW2 9885   2.829   6.211   7.961
69330SOL     OW 9886   2.231   0.757  10.690
69330SOL    HW1 9887   2.218   0.705  10.770
69330SOL    HW2 9888   2.176   0.713  10.625
69331SOL     OW 9889   7.129   5.168   0.539
69331SOL    HW1 9890   7.155   5.198   0.452
69331SOL    HW2 9891   7.063   5.232   0.567
69332SOL     OW 9892   7.256  11.781   6.963
69332SOL    HW1 9893   7.299  11.796   6.878
69332SOL    HW2 9894   7.325  11.799   7.027
69333SOL     OW 9895   4.544   8.193  13.738
69333SOL    HW1 9896   4.505   8.245  13.808
69333SOL    HW2 9897   4.555   8.254  13.666
69334SOL     OW 9898   2.410   3.749  11.829
69334SOL    HW1 9899   2.398   3.773  11.738
69334SOL    HW2 9900   2.418   3.653  11.828
69335SOL     OW 9901   2.909   8.226  11.792
69335SOL    HW1 9902   2.865   8.142  11.808
69335SOL    HW2 9903   2.994   8.217  11.836
69336SOL     OW 9904  12.612   7.287   3.778
69336SOL    HW1 9905  12.695   7.321   3.810
69336SOL    HW2 9906  12.546   7.333   3.830
69337SOL     OW 9907   0.776   8.196   8.578
69337SOL    HW1 9908   0.800   8.281   8.613
69337SOL    HW2 9909   0.807   8.133   8.643
69338SOL     OW 9910   4.834   3.261   0.933
69338SOL    HW1 9911   4.752   3.221   0.902
69338SOL    HW2 9912   4.835   3.347   0.893
69339SOL     OW 9913   0.573   6.770   8.799
69339SOL    HW1 9914   0.617   6.842   8.755
69339SOL    HW2 9915   0.553   6.803   8.886
69340SOL     OW 9916   9.792  10.236   5.067
69340SOL    HW1 9917   9.708  10.205   5.032
69340SOL    HW2 9918   9.772  10.267   5.155
69341SOL     OW 9919   7.558   4.286  11.265
69341SOL    HW1 9920   7.547   4.247  11.178
69341SOL    HW2 9921   7.651   4.306  11.271
69342SOL     OW 9922  14.174  11.018   2.003
69342SOL    HW1 9923  14.231  11.020   2.080
69342SOL    HW2 9924  14.211  11.083   1.944
69343SOL     OW 9925   3.489  11.597  13.828
69343SOL    HW1 9926   3.525  11.574  13.914
69343SOL    HW2 9927   3.548  11.665  13.796
69344SOL     OW 9928   9.996  14.532   7.287
69344SOL    HW1 9929  10.064  14.475   7.322
69344SOL    HW2 9930   9.917  14.510   7.336
69345SOL     OW 9931   7.308  11.966   0.333
69345SOL    HW1 9932   7.337  11.903   0.398
69345SOL    HW2 9933   7.351  11.938   0.252
69346SOL     OW 9934  14.354   4.861   6.060
69346SOL    HW1 9935  14.419   4.850   6.129
69346SOL    HW2 9936  14.283   4.909   6.102
69347SOL     OW 9937   0.006  13.413   0.276
69347SOL    HW1 9938   0.049  13.361   0.344
69347SOL    HW2 9939   0.052  13.497   0.278
69348SOL     OW 9940  12.855  14.243  12.707
69348SOL    HW1 9941  12.807  14.323  12.730
69348SOL    HW2 9942  12.832  14.181  12.775
69349SOL     OW 9943   9.399   9.842   5.991
69349SOL    HW1 9944   9.464   9.776   6.015
69349SOL    HW2 9945   9.317   9.793   5.984
69350SOL     OW 9946   8.135   6.341  10.885
69350SOL    HW1 9947   8.124   6.425  10.931
69350SOL    HW2 9948   8.131   6.364  10.792
69351SOL     OW 9949   9.352  14.022  14.679
69351SOL    HW1 9950   9.436  13.996  14.641
69351SOL    HW2 9951   9.299  13.942  14.674
69352SOL     OW 9952   0.429   2.495  12.925
69352SOL    HW1 9953   0.418   2.554  13.000
69352SOL    HW2 9954   0.495   2.537  12.871
69353SOL     OW 9955   6.921   1.170   2.958
69353SOL    HW1 9956   6.826   1.162   2.954
69353SOL    HW2 9957   6.948   1.105   3.023
69354SOL     OW 9958   5.052   1.602   4.172
69354SOL    HW1 9959   4.963   1.612   4.141
69354SOL    HW2 9960   5.045   1.542   4.247
69355SOL     OW 9961  10.881   0.890  10.003
69355SOL    HW1 9962  10.812   0.941   9.960
69355SOL    HW2 9963  10.962   0.916   9.959
69356SOL     OW 9964   7.625   5.233   7.412
69356SOL    HW1 9965   7.704   5.272   7.450
69356SOL    HW2 9966   7.658   5.174   7.345
69357SOL     OW 9967   3.555   0.223  13.685
69357SOL    HW1 9968   3.460   0.223  13.686
69357SOL    HW2 9969   3.580   0.140  13.726
69358SOL     OW 9970   5.251  14.081  13.905
69358SOL    HW1 9971   5.255  14.096  13.811
69358SOL    HW2 9972   5.342  14.071  13.932
69359SOL     OW 9973   8.626  11.691  13.483
69359SOL    HW1 9974   8.638  11.616  13.425
69359SOL    HW2 9975   8.652  11.767  13.429
69360SOL     OW 9976  12.650   4.393   3.343
69360SOL    HW1 9977  12.607   4.470   3.378
69360SOL    HW2 9978  12.744   4.415   3.344
69361SOL     OW 9979   4.643   2.148   7.785
69361SOL    HW1 9980   4.583   2.094   7.733
69361SOL    HW2 9981   4.707   2.086   7.820
69362SOL     OW 9982   8.491   2.918   5.262
69362SOL    HW1 9983   8.487   2.996   5.206
69362SOL    HW2 9984   8.478   2.952   5.350
69363SOL     OW 9985  11.279   9.937   3.433
69363SOL    HW1 9986  11.328   9.970   3.509
69363SOL    HW2 9987  11.334   9.868   3.397
69364SOL     OW 9988   1.271   9.985   1.817
69364SOL    HW1 9989   1.335  10.021   1.756
69364SOL    HW2 9990   1.314   9.908   1.854
69365SOL     OW 9991   0.505   1.035  14.143
69365SOL    HW1 9992   0.581   1.082  14.176
69365SOL    HW2 9993   0.445   1.103  14.112
69366SOL     OW 9994   6.545  12.712   9.932
69366SOL    HW1 9995   6.588  12.636   9.971
69366SOL    HW2 9996   6.490  12.676   9.862
69367SOL     OW 9997  11.248   4.835  14.477
69367SOL    HW1 9998  11.267   4.912  14.531
69367SOL    HW2 9999  11.153   4.835  14.466
69368SOL     OW10000   0.786  10.589   0.505
69368SOL    HW110001   0.705  10.553   0.539
69368SOL    HW210002   0.809  10.531   0.432
69369SOL     OW10003   1.438   1.957   1.245
69369SOL    HW110004   1.395   2.037   1.213
69369SOL    HW210005   1.501   1.935   1.177
69370SOL     OW10006  11.948   6.528  14.103
69370SOL    HW110007  11.939   6.436  14.080
69370SOL    HW210008  11.858   6.557  14.121
69371SOL     OW10009  10.237   0.937  12.791
69371SOL    HW110010  10.279   0.987  12.861
69371SOL    HW210011  10.175   0.880  12.837
69372SOL     OW10012  11.008   3.567   6.989
69372SOL    HW110013  10.991   3.651   7.031
69372SOL    HW210014  11.042   3.589   6.903
69373SOL     OW10015   7.117  14.702   9.935
69373SOL    HW110016   7.121  14.635  10.002
69373SOL    HW210017   7.139  14.656   9.854
69374SOL     OW10018  14.120   2.518   9.791
69374SOL    HW110019  14.030   2.525   9.823
69374SOL    HW210020  14.165   2.463   9.855
69375SOL     OW10021  12.087   1.178  10.343
69375SOL    HW110022  12.092   1.085  10.320
69375SOL    HW210023  12.045   1.179  10.430
69376SOL     OW10024  14.546   7.384   7.971
69376SOL    HW110025  14.547   7.306   8.027
69376SOL    HW210026  14.546   7.350   7.882
69377SOL     OW10027   3.005   2.880  11.998
69377SOL    HW110028   2.978   2.934  12.072
69377SOL    HW210029   3.100   2.873  12.005
69378SOL     OW10030   9.545   1.061   8.757
69378SOL    HW110031   9.457   1.027   8.775
69378SOL    HW210032   9.550   1.142   8.809
69379SOL     OW10033   4.662   7.919   0.697
69379SOL    HW110034   4.742   7.971   0.690
69379SOL    HW210035   4.641   7.895   0.607
69380SOL     OW10036  11.995  10.831   7.231
69380SOL    HW110037  11.938  10.825   7.154
69380SOL    HW210038  12.065  10.767   7.214
69381SOL     OW10039   3.744  14.579  12.364
69381SOL    HW110040   3.775  14.513  12.426
69381SOL    HW210041   3.780  14.662  12.396
69382SOL     OW10042   5.808   1.739  14.127
69382SOL    HW110043   5.732   1.777  14.171
69382SOL    HW210044   5.811   1.783  14.042
69383SOL     OW10045   2.003   8.958  14.211
69383SOL    HW110046   2.022   8.867  14.234
69383SOL    HW210047   2.013   9.007  14.293
69384SOL     OW10048   1.702  14.676  13.921
69384SOL    HW110049   1.797  14.664  13.915
69384SOL    HW210050   1.689  14.719  14.006
69385SOL     OW10051   7.080  12.421   3.039
69385SOL    HW110052   7.042  12.487   2.981
69385SOL    HW210053   7.033  12.431   3.121
69386SOL     OW10054  12.144   7.507   4.282
69386SOL    HW110055  12.239   7.505   4.279
69386SOL    HW210056  12.122   7.475   4.370
69387SOL     OW10057  11.533   9.755   0.684
69387SOL    HW110058  11.610   9.720   0.640
69387SOL    HW210059  11.562   9.839   0.720
69388SOL     OW10060   1.572   5.302  11.462
69388SOL    HW110061   1.594   5.395  11.472
69388SOL    HW210062   1.631   5.256  11.520
69389SOL     OW10063   3.923  14.608   8.405
69389SOL    HW110064   3.909  14.685   8.459
69389SOL    HW210065   3.937  14.643   8.317
69390SOL     OW10066   5.084   4.072  13.913
69390SOL    HW110067   5.012   4.087  13.852
69390SOL    HW210068   5.043   4.078  14.000
69391SOL     OW10069  12.990   0.804  11.553
69391SOL    HW110070  13.046   0.863  11.503
69391SOL    HW210071  12.937   0.760  11.487
69392SOL     OW10072   9.587  12.787   4.154
69392SOL    HW110073   9.646  12.736   4.097
69392SOL    HW210074   9.611  12.878   4.138
69393SOL     OW10075  11.835   4.849   3.062
69393SOL    HW110076  11.901   4.892   3.008
69393SOL    HW210077  11.850   4.883   3.151
69394SOL     OW10078   6.282   8.524   3.070
69394SOL    HW110079   6.344   8.536   3.143
69394SOL    HW210080   6.330   8.554   2.993
69395SOL     OW10081   5.652   8.766   5.992
69395SOL    HW110082   5.579   8.733   6.045
69395SOL    HW210083   5.700   8.688   5.965
69396SOL     OW10084  14.059  10.839   0.532
69396SOL    HW110085  13.966  10.834   0.553
69396SOL    HW210086  14.103  10.845   0.617
69397SOL     OW10087  11.700   0.231   8.453
69397SOL    HW110088  11.606   0.243   8.463
69397SOL    HW210089  11.715   0.238   8.358
69398SOL     OW10090   9.307  12.330  13.661
69398SOL    HW110091   9.218  12.298  13.676
69398SOL    HW210092   9.361  12.251  13.663
69399SOL     OW10093   5.098  14.223  10.134
69399SOL    HW110094   5.039  14.297  10.119
69399SOL    HW210095   5.089  14.169  10.055
69400SOL     OW10096   9.619   6.911   4.502
69400SOL    HW110097   9.548   6.901   4.565
69400SOL    HW210098   9.587   6.976   4.439
69401SOL     OW10099   1.566  14.162  11.171
69401SOL    HW110100   1.522  14.094  11.121
69401SOL    HW210101   1.573  14.236  11.111
69402SOL     OW10102  10.815   9.784   2.967
69402SOL    HW110103  10.905   9.813   2.949
69402SOL    HW210104  10.825   9.706   3.021
69403SOL     OW10105   4.016  11.549  11.161
69403SOL    HW110106   4.021  11.493  11.083
69403SOL    HW210107   4.094  11.526  11.212
69404SOL     OW10108   0.436  12.401   5.747
69404SOL    HW110109   0.375  12.475   5.742
69404SOL    HW210110   0.379  12.325   5.758
69405SOL     OW10111   5.804   2.694   1.549
69405SOL    HW110112   5.852   2.673   1.629
69405SOL    HW210113   5.872   2.698   1.481
69406SOL     OW10114   9.715  10.073  12.303
69406SOL    HW110115   9.725   9.989  12.260
69406SOL    HW210116   9.751  10.136  12.240
69407SOL     OW10117   1.296  13.062   6.845
69407SOL    HW110118   1.356  13.131   6.817
69407SOL    HW210119   1.232  13.106   6.901
69408SOL     OW10120   1.490   4.994  12.175
69408SOL    HW110121   1.474   4.911  12.219
69408SOL    HW210122   1.584   4.992  12.154
69409SOL     OW10123  11.912   7.138   9.295
69409SOL    HW110124  11.851   7.205   9.263
69409SOL    HW210125  11.863   7.092   9.362
69410SOL     OW10126   0.354   1.894  13.692
69410SOL    HW110127   0.369   1.854  13.777
69410SOL    HW210128   0.278   1.951  13.705
69411SOL     OW10129   0.204   9.336   5.433
69411SOL    HW110130   0.277   9.283   5.467
69411SOL    HW210131   0.168   9.283   5.362
69412SOL     OW10132   3.041   8.508   4.842
69412SOL    HW110133   3.007   8.579   4.787
69412SOL    HW210134   3.054   8.435   4.782
69413SOL     OW10135   3.997   5.935   5.530
69413SOL    HW110136   4.049   5.967   5.456
69413SOL    HW210137   4.056   5.938   5.605
69414SOL     OW10138   3.543   3.597  11.542
69414SOL    HW110139   3.467   3.649  11.567
69414SOL    HW210140   3.551   3.610  11.447
69415SOL     OW10141   2.931   6.336  11.400
69415SOL    HW110142   2.931   6.426  11.433
69415SOL    HW210143   2.971   6.285  11.471
69416SOL     OW10144   7.217   6.050  13.895
69416SOL    HW110145   7.183   6.092  13.974
69416SOL    HW210146   7.307   6.026  13.917
69417SOL     OW10147   0.241   0.163   0.684
69417SOL    HW110148   0.287   0.081   0.667
69417SOL    HW210149   0.295   0.230   0.643
69418SOL     OW10150   3.659   4.373  11.018
69418SOL    HW110151   3.688   4.291  11.058
69418SOL    HW210152   3.608   4.416  11.087
69419SOL     OW10153   3.470   9.628   1.914
69419SOL    HW110154   3.494   9.714   1.880
69419SOL    HW210155   3.517   9.621   1.997
69420SOL     OW10156   2.702   7.933   9.895
69420SOL    HW110157   2.760   7.857   9.895
69420SOL    HW210158   2.755   8.003   9.933
69421SOL     OW10159  11.556   7.087  14.643
69421SOL    HW110160  11.501   7.116  14.716
69421SOL    HW210161  11.496   7.078  14.569
69422SOL     OW10162   1.442  10.237   5.779
69422SOL    HW110163   1.406  10.287   5.852
69422SOL    HW210164   1.514  10.187   5.817
69423SOL     OW10165   4.218  13.632   6.234
69423SOL    HW110166   4.265  13.609   6.314
69423SOL    HW210167   4.255  13.574   6.167
69424SOL     OW10168   1.295   9.630   9.509
69424SOL    HW110169   1.318   9.616   9.417
69424SOL    HW210170   1.368   9.680   9.545
69425SOL     OW10171   4.170   6.189   2.593
69425SOL    HW110172   4.251   6.237   2.609
69425SOL    HW210173   4.191   6.098   2.614
69426SOL     OW10174   2.692  10.740  12.479
69426SOL    HW110175   2.628  10.757  12.547
69426SOL    HW210176   2.773  10.778  12.512
69427SOL     OW10177   6.366  11.003   4.963
69427SOL    HW110178   6.350  10.978   4.872
69427SOL    HW210179   6.439  10.948   4.991
69428SOL     OW10180   9.925  10.035   1.300
69428SOL    HW110181   9.923  10.085   1.381
69428SOL    HW210182   9.999  10.072   1.251
69429SOL     OW10183   2.545   0.486   8.368
69429SOL    HW110184   2.604   0.544   8.320
69429SOL    HW210185   2.467   0.539   8.386
69430SOL     OW10186  13.611   0.716   9.812
69430SOL    HW110187  13.534   0.721   9.868
69430SOL    HW210188  13.681   0.760   9.861
69431SOL     OW10189   7.113   1.723   4.240
69431SOL    HW110190   7.184   1.768   4.285
69431SOL    HW210191   7.066   1.676   4.309
69432SOL     OW10192  12.045   2.625   5.037
69432SOL    HW110193  12.046   2.543   4.989
69432SOL    HW210194  11.956   2.632   5.072
69433SOL     OW10195  14.760   2.661   1.991
69433SOL    HW110196  14.820   2.695   1.925
69433SOL    HW210197  14.734   2.738   2.042
69434SOL     OW10198   3.376   7.132   1.358
69434SOL    HW110199   3.368   7.107   1.450
69434SOL    HW210200   3.389   7.227   1.360
69435SOL     OW10201   2.515  10.597  14.324
69435SOL    HW110202   2.426  10.603  14.357
69435SOL    HW210203   2.515  10.650  14.245
69436SOL     OW10204  14.074  11.347  10.830
69436SOL    HW110205  14.006  11.313  10.887
69436SOL    HW210206  14.155  11.335  10.880
69437SOL     OW10207   8.097  11.949   4.063
69437SOL    HW110208   8.178  11.936   4.112
69437SOL    HW210209   8.068  11.860   4.043
69438SOL     OW10210   0.682   6.259   5.859
69438SOL    HW110211   0.642   6.193   5.803
69438SOL    HW210212   0.625   6.335   5.851
69439SOL     OW10213  11.312  12.005   3.634
69439SOL    HW110214  11.389  12.046   3.594
69439SOL    HW210215  11.245  12.074   3.630
69440SOL     OW10216   4.300  12.275   5.907
69440SOL    HW110217   4.372  12.336   5.925
69440SOL    HW210218   4.223  12.331   5.899
69441SOL     OW10219   3.211   2.290   1.598
69441SOL    HW110220   3.264   2.225   1.553
69441SOL    HW210221   3.203   2.362   1.535
69442SOL     OW10222  13.740   3.886  10.980
69442SOL    HW110223  13.697   3.826  10.920
69442SOL    HW210224  13.833   3.865  10.973
69443SOL     OW10225   2.714  11.285   3.897
69443SOL    HW110226   2.647  11.219   3.879
69443SOL    HW210227   2.692  11.357   3.838
69444SOL     OW10228   7.460  13.313   0.034
69444SOL    HW110229   7.398  13.334  14.836
69444SOL    HW210230   7.505  13.395   0.052
69445SOL     OW10231   2.139  12.889   1.105
69445SOL    HW110232   2.185  12.842   1.035
69445SOL    HW210233   2.053  12.847   1.110
69446SOL     OW10234   3.138   7.094   9.484
69446SOL    HW110235   3.076   7.157   9.519
69446SOL    HW210236   3.196   7.146   9.428
69447SOL     OW10237   1.694   3.106   8.549
69447SOL    HW110238   1.740   3.100   8.466
69447SOL    HW210239   1.734   3.039   8.604
69448SOL     OW10240  12.521   9.329   7.319
69448SOL    HW110241  12.429   9.317   7.297
69448SOL    HW210242  12.530   9.422   7.337
69449SOL     OW10243   2.320   7.690   6.833
69449SOL    HW110244   2.349   7.612   6.786
69449SOL    HW210245   2.341   7.671   6.925
69450SOL     OW10246   6.198   7.356  13.335
69450SOL    HW110247   6.252   7.378  13.259
69450SOL    HW210248   6.153   7.438  13.356
69451SOL     OW10249  12.771   8.777  13.759
69451SOL    HW110250  12.849   8.831  13.757
69451SOL    HW210251  12.700   8.837  13.783
69452SOL     OW10252  13.629  11.699  12.130
69452SOL    HW110253  13.687  11.749  12.187
69452SOL    HW210254  13.572  11.652  12.191
69453SOL     OW10255  14.822  13.770   9.806
69453SOL    HW110256  14.823  13.702   9.874
69453SOL    HW210257  14.776  13.730   9.733
69454SOL     OW10258   2.074   4.321   1.916
69454SOL    HW110259   2.070   4.339   2.010
69454SOL    HW210260   2.011   4.381   1.877
69455SOL     OW10261   1.801  12.265  12.722
69455SOL    HW110262   1.809  12.205  12.647
69455SOL    HW210263   1.733  12.226  12.777
69456SOL     OW10264   1.776  13.715   1.617
69456SOL    HW110265   1.711  13.781   1.595
69456SOL    HW210266   1.753  13.639   1.564
69457SOL     OW10267   1.295   3.724  12.733
69457SOL    HW110268   1.311   3.811  12.770
69457SOL    HW210269   1.317   3.664  12.804
69458SOL     OW10270   6.125   2.696   7.555
69458SOL    HW110271   6.081   2.613   7.536
69458SOL    HW210272   6.110   2.710   7.649
69459SOL     OW10273   4.939  10.598  14.468
69459SOL    HW110274   4.863  10.579  14.413
69459SOL    HW210275   4.979  10.512  14.485
69460SOL     OW10276   0.475   2.239   3.683
69460SOL    HW110277   0.554   2.229   3.735
69460SOL    HW210278   0.503   2.224   3.593
69461SOL     OW10279  12.403   7.690   2.327
69461SOL    HW110280  12.310   7.672   2.314
69461SOL    HW210281  12.440   7.606   2.353
69462SOL     OW10282   1.771  13.085   3.153
69462SOL    HW110283   1.683  13.048   3.155
69462SOL    HW210284   1.773  13.139   3.074
69463SOL     OW10285   4.195  11.234   5.922
69463SOL    HW110286   4.114  11.282   5.941
69463SOL    HW210287   4.265  11.293   5.948
69464SOL     OW10288   1.576   9.418   9.915
69464SOL    HW110289   1.583   9.427  10.010
69464SOL    HW210290   1.497   9.466   9.891
69465SOL     OW10291  14.552  10.138   7.318
69465SOL    HW110292  14.461  10.151   7.292
69465SOL    HW210293  14.599  10.121   7.236
69466SOL     OW10294  14.169   7.159   4.600
69466SOL    HW110295  14.196   7.091   4.662
69466SOL    HW210296  14.251   7.196   4.567
69467SOL     OW10297  13.944   2.028   8.127
69467SOL    HW110298  14.004   2.087   8.081
69467SOL    HW210299  13.865   2.028   8.073
69468SOL     OW10300   7.612  14.846   5.204
69468SOL    HW110301   7.674   0.020   5.147
69468SOL    HW210302   7.569  14.782   5.147
69469SOL     OW10303  13.656   3.881   6.991
69469SOL    HW110304  13.666   3.930   6.910
69469SOL    HW210305  13.697   3.796   6.973
69470SOL     OW10306   1.903  13.574   5.118
69470SOL    HW110307   1.948  13.523   5.050
69470SOL    HW210308   1.866  13.507   5.176
69471SOL     OW10309   3.640   9.600   9.646
69471SOL    HW110310   3.599   9.587   9.560
69471SOL    HW210311   3.621   9.519   9.694
69472SOL     OW10312   2.731  10.813   1.978
69472SOL    HW110313   2.725  10.881   1.910
69472SOL    HW210314   2.799  10.844   2.037
69473SOL     OW10315  10.051  10.701   6.207
69473SOL    HW110316  10.109  10.654   6.148
69473SOL    HW210317   9.970  10.650   6.206
69474SOL     OW10318  11.309   3.447  13.958
69474SOL    HW110319  11.257   3.515  14.001
69474SOL    HW210320  11.399   3.480  13.963
69475SOL     OW10321   9.873  12.122   0.014
69475SOL    HW110322   9.962  12.141  14.856
69475SOL    HW210323   9.830  12.207   0.017
69476SOL     OW10324  12.080   5.621  12.836
69476SOL    HW110325  12.155   5.566  12.814
69476SOL    HW210326  12.075   5.617  12.932
69477SOL     OW10327   4.870  10.306   8.755
69477SOL    HW110328   4.887  10.222   8.712
69477SOL    HW210329   4.827  10.359   8.687
69478SOL     OW10330   0.974  13.113   7.896
69478SOL    HW110331   1.000  13.187   7.842
69478SOL    HW210332   0.979  13.038   7.837
69479SOL     OW10333  11.995  10.092   1.552
69479SOL    HW110334  11.967  10.118   1.640
69479SOL    HW210335  11.936  10.020   1.529
69480SOL     OW10336   5.309   4.248   2.462
69480SOL    HW110337   5.403   4.229   2.460
69480SOL    HW210338   5.304   4.343   2.452
69481SOL     OW10339   0.352   8.939   1.486
69481SOL    HW110340   0.285   8.873   1.506
69481SOL    HW210341   0.304   9.008   1.440
69482SOL     OW10342   8.457   5.343  12.713
69482SOL    HW110343   8.461   5.254  12.748
69482SOL    HW210344   8.364   5.364  12.709
69483SOL     OW10345   3.329   1.947   3.230
69483SOL    HW110346   3.397   2.013   3.246
69483SOL    HW210347   3.256   1.974   3.285
69484SOL     OW10348   6.541   0.347   6.808
69484SOL    HW110349   6.574   0.270   6.855
69484SOL    HW210350   6.613   0.373   6.751
69485SOL     OW10351   2.297   7.848   1.299
69485SOL    HW110352   2.227   7.865   1.361
69485SOL    HW210353   2.306   7.929   1.250
69486SOL     OW10354   5.323  12.305  10.690
69486SOL    HW110355   5.408  12.350  10.700
69486SOL    HW210356   5.259  12.376  10.696
69487SOL     OW10357   4.349   8.515   6.753
69487SOL    HW110358   4.404   8.592   6.772
69487SOL    HW210359   4.359   8.501   6.659
69488SOL     OW10360   6.795  11.263  12.761
69488SOL    HW110361   6.761  11.324  12.826
69488SOL    HW210362   6.890  11.274  12.764
69489SOL     OW10363  11.033   1.773   6.786
69489SOL    HW110364  11.116   1.807   6.753
69489SOL    HW210365  11.018   1.693   6.735
69490SOL     OW10366  12.108  12.174  10.347
69490SOL    HW110367  12.074  12.127  10.423
69490SOL    HW210368  12.150  12.106  10.295
69491SOL     OW10369   4.063  13.373  11.320
69491SOL    HW110370   4.138  13.382  11.260
69491SOL    HW210371   4.044  13.463  11.348
69492SOL     OW10372  14.405   3.441   4.885
69492SOL    HW110373  14.419   3.356   4.843
69492SOL    HW210374  14.330   3.427   4.943
69493SOL     OW10375  12.821   2.228   1.538
69493SOL    HW110376  12.864   2.310   1.512
69493SOL    HW210377  12.728   2.243   1.521
69494SOL     OW10378   2.946   4.382   6.746
69494SOL    HW110379   3.013   4.401   6.812
69494SOL    HW210380   2.892   4.313   6.785
69495SOL     OW10381   0.348  13.838  14.424
69495SOL    HW110382   0.259  13.865  14.402
69495SOL    HW210383   0.396  13.843  14.342
69496SOL     OW10384   2.901   4.050  10.354
69496SOL    HW110385   2.838   4.066  10.424
69496SOL    HW210386   2.922   3.957  10.361
69497SOL     OW10387  11.823   4.260  12.237
69497SOL    HW110388  11.821   4.204  12.160
69497SOL    HW210389  11.817   4.349  12.203
69498SOL     OW10390   6.534   9.692   0.210
69498SOL    HW110391   6.568   9.669   0.123
69498SOL    HW210392   6.582   9.634   0.269
69499SOL     OW10393   3.545   6.257   2.340
69499SOL    HW110394   3.616   6.250   2.277
69499SOL    HW210395   3.527   6.167   2.367
69500SOL     OW10396   3.812   5.784  11.653
69500SOL    HW110397   3.752   5.772  11.580
69500SOL    HW210398   3.898   5.758  11.619
69501SOL     OW10399  11.906  11.573  14.433
69501SOL    HW110400  11.965  11.645  14.455
69501SOL    HW210401  11.834  11.581  14.495
69502SOL     OW10402   0.031   2.759  10.542
69502SOL    HW110403   0.126   2.751  10.532
69502SOL    HW210404  14.870   2.671  10.526
69503SOL     OW10405  13.254   0.382  13.536
69503SOL    HW110406  13.267   0.468  13.494
69503SOL    HW210407  13.307   0.322  13.484
69504SOL     OW10408  13.222   0.778  12.535
69504SOL    HW110409  13.237   0.781  12.629
69504SOL    HW210410  13.138   0.821  12.521
69505SOL     OW10411   6.712  11.794   6.753
69505SOL    HW110412   6.798  11.756   6.738
69505SOL    HW210413   6.659  11.722   6.787
69506SOL     OW10414   7.780  14.800  14.552
69506SOL    HW110415   7.717  14.810  14.480
69506SOL    HW210416   7.725  14.799  14.631
69507SOL     OW10417   8.613  13.800  10.093
69507SOL    HW110418   8.545  13.750  10.049
69507SOL    HW210419   8.672  13.734  10.130
69508SOL     OW10420   0.127  13.168   4.077
69508SOL    HW110421   0.065  13.183   4.005
69508SOL    HW210422   0.124  13.073   4.091
69509SOL     OW10423   6.820  10.556  14.658
69509SOL    HW110424   6.876  10.558  14.735
69509SOL    HW210425   6.741  10.603  14.684
69510SOL     OW10426  11.974  13.874  12.229
69510SOL    HW110427  11.947  13.785  12.249
69510SOL    HW210428  11.919  13.899  12.154
69511SOL     OW10429  13.501   2.470   2.857
69511SOL    HW110430  13.545   2.506   2.780
69511SOL    HW210431  13.567   2.416   2.900
69512SOL     OW10432   9.787  12.331  10.636
69512SOL    HW110433   9.717  12.293  10.689
69512SOL    HW210434   9.864  12.327  10.692
69513SOL     OW10435   5.135  12.199   9.007
69513SOL    HW110436   5.104  12.181   9.096
69513SOL    HW210437   5.160  12.112   8.973
69514SOL     OW10438   4.677   6.093   3.346
69514SOL    HW110439   4.687   6.108   3.252
69514SOL    HW210440   4.667   5.998   3.355
69515SOL     OW10441   7.425   7.463  13.819
69515SOL    HW110442   7.471   7.532  13.866
69515SOL    HW210443   7.340   7.502  13.797
69516SOL     OW10444   1.803   0.796   5.773
69516SOL    HW110445   1.770   0.858   5.837
69516SOL    HW210446   1.755   0.816   5.692
69517SOL     OW10447   9.906   7.616   6.840
69517SOL    HW110448   9.923   7.683   6.775
69517SOL    HW210449   9.870   7.664   6.915
69518SOL     OW10450  13.716  12.255  14.480
69518SOL    HW110451  13.770  12.252  14.559
69518SOL    HW210452  13.693  12.164  14.463
69519SOL     OW10453   3.963   7.258   7.644
69519SOL    HW110454   3.911   7.182   7.620
69519SOL    HW210455   3.899   7.329   7.652
69520SOL     OW10456   7.932  13.689   3.618
69520SOL    HW110457   7.886  13.676   3.535
69520SOL    HW210458   7.929  13.784   3.633
69521SOL     OW10459  10.958   4.010  12.678
69521SOL    HW110460  10.980   4.004  12.771
69521SOL    HW210461  10.888   3.946  12.666
69522SOL     OW10462   4.761   3.580  12.726
69522SOL    HW110463   4.774   3.500  12.675
69522SOL    HW210464   4.825   3.641  12.691
69523SOL     OW10465   4.484   8.673  12.234
69523SOL    HW110466   4.499   8.767  12.228
69523SOL    HW210467   4.542   8.644  12.304
69524SOL     OW10468   0.823   0.881  14.504
69524SOL    HW110469   0.884   0.837  14.445
69524SOL    HW210470   0.787   0.953  14.451
69525SOL     OW10471  10.663  13.869   1.190
69525SOL    HW110472  10.634  13.806   1.125
69525SOL    HW210473  10.750  13.897   1.160
69526SOL     OW10474   4.461   5.526   7.817
69526SOL    HW110475   4.388   5.587   7.826
69526SOL    HW210476   4.420   5.439   7.819
69527SOL     OW10477  14.605   6.190   7.219
69527SOL    HW110478  14.510   6.175   7.215
69527SOL    HW210479  14.643   6.125   7.160
69528SOL     OW10480   0.653  11.693   2.220
69528SOL    HW110481   0.683  11.727   2.304
69528SOL    HW210482   0.693  11.607   2.212
69529SOL     OW10483  12.205   4.968   2.575
69529SOL    HW110484  12.160   5.044   2.537
69529SOL    HW210485  12.164   4.892   2.534
69530SOL     OW10486   6.190   9.193   7.484
69530SOL    HW110487   6.176   9.249   7.561
69530SOL    HW210488   6.285   9.197   7.470
69531SOL     OW10489  10.203   5.301   3.697
69531SOL    HW110490  10.190   5.300   3.602
69531SOL    HW210491  10.155   5.379   3.726
69532SOL     OW10492   3.424  12.955   3.679
69532SOL    HW110493   3.445  13.030   3.734
69532SOL    HW210494   3.493  12.954   3.612
69533SOL     OW10495  10.177   0.509   6.700
69533SOL    HW110496  10.111   0.521   6.631
69533SOL    HW210497  10.127   0.477   6.775
69534SOL     OW10498  12.835   1.570   4.267
69534SOL    HW110499  12.910   1.629   4.274
69534SOL    HW210500  12.785   1.585   4.347
69535SOL     OW10501   7.631  14.696  13.892
69535SOL    HW110502   7.536  14.683  13.900
69535SOL    HW210503   7.642  14.729  13.803
69536SOL     OW10504   8.315   5.251  13.096
69536SOL    HW110505   8.237   5.205  13.128
69536SOL    HW210506   8.281   5.332  13.058
69537SOL     OW10507  12.889   5.264  13.628
69537SOL    HW110508  12.812   5.303  13.668
69537SOL    HW210509  12.930   5.213  13.698
69538SOL     OW10510  13.696   4.924   3.222
69538SOL    HW110511  13.645   4.934   3.302
69538SOL    HW210512  13.756   4.999   3.222
69539SOL     OW10513  14.310   2.202   7.745
69539SOL    HW110514  14.359   2.271   7.790
69539SOL    HW210515  14.245   2.174   7.809
69540SOL     OW10516  11.810   8.594   4.143
69540SOL    HW110517  11.840   8.527   4.204
69540SOL    HW210518  11.874   8.592   4.072
69541SOL     OW10519  10.998   8.074   5.976
69541SOL    HW110520  10.935   8.009   5.946
69541SOL    HW210521  10.967   8.101   6.062
69542SOL     OW10522   7.150   6.226   4.978
69542SOL    HW110523   7.165   6.301   4.920
69542SOL    HW210524   7.057   6.229   4.998
69543SOL     OW10525   5.282  10.086  12.840
69543SOL    HW110526   5.371  10.077  12.804
69543SOL    HW210527   5.238  10.005  12.814
69544SOL     OW10528   4.058   0.841   5.801
69544SOL    HW110529   4.087   0.872   5.886
69544SOL    HW210530   4.020   0.918   5.759
69545SOL     OW10531  10.044   9.905   3.439
69545SOL    HW110532  10.078   9.827   3.396
69545SOL    HW210533  10.118   9.940   3.488
69546SOL     OW10534   8.385   3.374   9.832
69546SOL    HW110535   8.313   3.330   9.877
69546SOL    HW210536   8.446   3.397   9.902
69547SOL     OW10537  11.746   0.576   4.897
69547SOL    HW110538  11.671   0.531   4.933
69547SOL    HW210539  11.737   0.667   4.927
69548SOL     OW10540   2.935   7.685   4.059
69548SOL    HW110541   2.943   7.596   4.094
69548SOL    HW210542   2.963   7.741   4.131
69549SOL     OW10543  12.325   9.530  13.115
69549SOL    HW110544  12.385   9.528  13.189
69549SOL    HW210545  12.323   9.622  13.088
69550SOL     OW10546  14.315   0.435   7.091
69550SOL    HW110547  14.290   0.364   7.150
69550SOL    HW210548  14.396   0.470   7.129
69551SOL     OW10549   3.955   3.503   1.958
69551SOL    HW110550   3.902   3.443   1.905
69551SOL    HW210551   3.896   3.576   1.977
69552SOL     OW10552   9.204   9.459   5.556
69552SOL    HW110553   9.168   9.468   5.468
69552SOL    HW210554   9.234   9.368   5.560
69553SOL     OW10555  13.492  13.926   5.424
69553SOL    HW110556  13.434  13.879   5.364
69553SOL    HW210557  13.476  14.018   5.404
69554SOL     OW10558   0.132   4.099  11.541
69554SOL    HW110559   0.216   4.135  11.514
69554SOL    HW210560   0.117   4.024  11.482
69555SOL     OW10561   0.660   0.742   8.492
69555SOL    HW110562   0.742   0.702   8.521
69555SOL    HW210563   0.655   0.823   8.544
69556SOL     OW10564   1.409  13.487  13.417
69556SOL    HW110565   1.401  13.460  13.326
69556SOL    HW210566   1.385  13.579  13.417
69557SOL     OW10567   1.923  12.897   7.505
69557SOL    HW110568   1.830  12.895   7.480
69557SOL    HW210569   1.970  12.906   7.422
69558SOL     OW10570  10.583  13.875   4.007
69558SOL    HW110571  10.625  13.947   4.054
69558SOL    HW210572  10.597  13.895   3.915
69559SOL     OW10573   2.730   7.850   1.157
69559SOL    HW110574   2.791   7.777   1.151
69559SOL    HW210575   2.656   7.823   1.103
69560SOL     OW10576   3.336  12.936   1.561
69560SOL    HW110577   3.399  12.949   1.632
69560SOL    HW210578   3.252  12.965   1.598
69561SOL     OW10579   6.128   2.063   8.206
69561SOL    HW110580   6.043   2.096   8.175
69561SOL    HW210581   6.147   2.115   8.284
69562SOL     OW10582   9.772   0.584   0.545
69562SOL    HW110583   9.725   0.503   0.566
69562SOL    HW210584   9.861   0.555   0.523
69563SOL     OW10585  12.313   2.225   2.893
69563SOL    HW110586  12.372   2.219   2.817
69563SOL    HW210587  12.312   2.318   2.915
69564SOL     OW10588   1.293   6.739   6.858
69564SOL    HW110589   1.281   6.831   6.834
69564SOL    HW210590   1.265   6.691   6.780
69565SOL     OW10591   6.466  14.175   7.686
69565SOL    HW110592   6.480  14.220   7.769
69565SOL    HW210593   6.421  14.239   7.631
69566SOL     OW10594   4.973   0.767   1.049
69566SOL    HW110595   5.032   0.802   1.116
69566SOL    HW210596   4.919   0.703   1.096
69567SOL     OW10597   8.049   7.189  13.580
69567SOL    HW110598   8.137   7.190  13.541
69567SOL    HW210599   8.018   7.099  13.566
69568SOL     OW10600  13.024   0.586   2.614
69568SOL    HW110601  12.967   0.548   2.681
69568SOL    HW210602  13.104   0.609   2.661
69569SOL     OW10603   2.677   7.153  13.562
69569SOL    HW110604   2.700   7.129  13.472
69569SOL    HW210605   2.582   7.157  13.563
69570SOL     OW10606   5.868   8.609  11.309
69570SOL    HW110607   5.815   8.561  11.246
69570SOL    HW210608   5.956   8.610  11.271
69571SOL     OW10609  13.496   9.192  11.472
69571SOL    HW110610  13.558   9.173  11.402
69571SOL    HW210611  13.430   9.247  11.432
69572SOL     OW10612   9.715   5.659  13.171
69572SOL    HW110613   9.809   5.658  13.153
69572SOL    HW210614   9.694   5.752  13.185
69573SOL     OW10615  14.849   9.746  13.000
69573SOL    HW110616  14.824   9.656  12.977
69573SOL    HW210617  14.822   9.755  13.092
69574SOL     OW10618   4.930   9.244  12.785
69574SOL    HW110619   4.842   9.209  12.775
69574SOL    HW210620   4.946   9.292  12.704
69575SOL     OW10621   4.239  11.040   3.008
69575SOL    HW110622   4.237  11.054   3.102
69575SOL    HW210623   4.232  11.129   2.971
69576SOL     OW10624   6.198   3.934   3.615
69576SOL    HW110625   6.252   3.979   3.550
69576SOL    HW210626   6.183   3.999   3.683
69577SOL     OW10627  11.434   1.911   4.286
69577SOL    HW110628  11.442   1.821   4.253
69577SOL    HW210629  11.341   1.922   4.306
69578SOL     OW10630   1.162   8.909   2.561
69578SOL    HW110631   1.153   8.945   2.649
69578SOL    HW210632   1.079   8.931   2.518
69579SOL     OW10633   2.127   8.247   0.980
69579SOL    HW110634   2.063   8.291   0.924
69579SOL    HW210635   2.109   8.154   0.969
69580SOL     OW10636  11.262   0.094   8.417
69580SOL    HW110637  11.252   0.124   8.327
69580SOL    HW210638  11.302   0.008   8.409
69581SOL     OW10639   4.634  14.518   2.924
69581SOL    HW110640   4.682  14.442   2.955
69581SOL    HW210641   4.666  14.591   2.978
69582SOL     OW10642   7.343   7.381   1.174
69582SOL    HW110643   7.291   7.443   1.225
69582SOL    HW210644   7.364   7.428   1.094
69583SOL     OW10645  11.264   6.228  14.539
69583SOL    HW110646  11.350   6.213  14.578
69583SOL    HW210647  11.204   6.231  14.614
69584SOL     OW10648   4.367   3.962   5.942
69584SOL    HW110649   4.358   3.867   5.936
69584SOL    HW210650   4.297   3.996   5.886
69585SOL     OW10651  14.548   5.980  12.417
69585SOL    HW110652  14.482   5.976  12.486
69585SOL    HW210653  14.610   5.910  12.439
69586SOL     OW10654   9.047  14.844   3.354
69586SOL    HW110655   9.025  14.805   3.439
69586SOL    HW210656   9.139  14.819   3.340
69587SOL     OW10657  11.354  14.746   0.386
69587SOL    HW110658  11.423  14.773   0.447
69587SOL    HW210659  11.297  14.689   0.438
69588SOL     OW10660   6.468  11.765   2.302
69588SOL    HW110661   6.484  11.730   2.390
69588SOL    HW210662   6.550  11.806   2.277
69589SOL     OW10663  10.389  11.430   4.542
69589SOL    HW110664  10.314  11.489   4.550
69589SOL    HW210665  10.423  11.422   4.631
69590SOL     OW10666   4.219   9.825   0.639
69590SOL    HW110667   4.155   9.765   0.601
69590SOL    HW210668   4.190   9.835   0.730
69591SOL     OW10669  10.212  13.814  12.214
69591SOL    HW110670  10.249  13.897  12.186
69591SOL    HW210671  10.245  13.801  12.303
69592SOL     OW10672   7.792  12.749   8.668
69592SOL    HW110673   7.832  12.691   8.603
69592SOL    HW210674   7.753  12.819   8.616
69593SOL     OW10675  12.551   4.891   7.063
69593SOL    HW110676  12.576   4.855   7.148
69593SOL    HW210677  12.480   4.951   7.082
69594SOL     OW10678   3.912   2.571   5.013
69594SOL    HW110679   3.824   2.580   4.977
69594SOL    HW210680   3.949   2.494   4.970
69595SOL     OW10681  11.790  12.928   0.663
69595SOL    HW110682  11.881  12.916   0.636
69595SOL    HW210683  11.739  12.918   0.582
69596SOL     OW10684   8.447  12.325   4.209
69596SOL    HW110685   8.390  12.338   4.285
69596SOL    HW210686   8.406  12.376   4.139
69597SOL     OW10687   1.895   9.470   1.160
69597SOL    HW110688   1.850   9.395   1.123
69597SOL    HW210689   1.888   9.458   1.255
69598SOL     OW10690  12.899   6.341  12.547
69598SOL    HW110691  12.982   6.313  12.585
69598SOL    HW210692  12.872   6.416  12.601
69599SOL     OW10693   9.755   3.610  12.446
69599SOL    HW110694   9.795   3.584  12.363
69599SOL    HW210695   9.723   3.528  12.483
69600SOL     OW10696   1.978   6.659  10.073
69600SOL    HW110697   1.962   6.582  10.128
69600SOL    HW210698   1.926   6.728  10.113
69601SOL     OW10699  14.510   6.257   2.325
69601SOL    HW110700  14.580   6.226   2.382
69601SOL    HW210701  14.550   6.325   2.270
69602SOL     OW10702   1.869   0.546   4.401
69602SOL    HW110703   1.785   0.528   4.441
69602SOL    HW210704   1.857   0.525   4.309
69603SOL     OW10705   4.717  10.942  10.817
69603SOL    HW110706   4.642  10.906  10.865
69603SOL    HW210707   4.773  10.980  10.884
69604SOL     OW10708   2.074   0.467   6.309
69604SOL    HW110709   2.168   0.485   6.313
69604SOL    HW210710   2.033   0.549   6.336
69605SOL     OW10711   9.871  13.921  10.494
69605SOL    HW110712   9.902  13.838  10.530
69605SOL    HW210713   9.902  13.920  10.403
69606SOL     OW10714  10.257   4.648   3.247
69606SOL    HW110715  10.276   4.668   3.155
69606SOL    HW210716  10.270   4.554   3.254
69607SOL     OW10717   5.026   8.256   0.302
69607SOL    HW110718   5.076   8.202   0.241
69607SOL    HW210719   5.084   8.330   0.321
69608SOL     OW10720   3.657  10.905   0.703
69608SOL    HW110721   3.563  10.919   0.701
69608SOL    HW210722   3.674  10.862   0.787
69609SOL     OW10723   1.622   4.153   9.071
69609SOL    HW110724   1.579   4.221   9.019
69609SOL    HW210725   1.558   4.129   9.138
69610SOL     OW10726  10.878   8.835  12.063
69610SOL    HW110727  10.825   8.911  12.038
69610SOL    HW210728  10.955   8.840  12.007
69611SOL     OW10729   9.623  14.739  13.384
69611SOL    HW110730   9.688  14.668  13.394
69611SOL    HW210731   9.580  14.744  13.470
69612SOL     OW10732  14.342   1.512   4.394
69612SOL    HW110733  14.373   1.603   4.389
69612SOL    HW210734  14.347   1.481   4.304
69613SOL     OW10735   8.492  13.138  10.038
69613SOL    HW110736   8.500  13.130   9.943
69613SOL    HW210737   8.465  13.051  10.068
69614SOL     OW10738  12.184  14.008   3.484
69614SOL    HW110739  12.123  13.937   3.464
69614SOL    HW210740  12.189  14.060   3.404
69615SOL     OW10741   2.670  11.307   8.438
69615SOL    HW110742   2.640  11.302   8.347
69615SOL    HW210743   2.694  11.217   8.460
69616SOL     OW10744   7.446   8.316   6.165
69616SOL    HW110745   7.430   8.406   6.192
69616SOL    HW210746   7.372   8.295   6.107
69617SOL     OW10747   4.001   1.608   6.155
69617SOL    HW110748   4.013   1.541   6.223
69617SOL    HW210749   3.921   1.581   6.109
69618SOL     OW10750   5.593   4.018   4.240
69618SOL    HW110751   5.560   4.039   4.153
69618SOL    HW210752   5.528   3.960   4.278
69619SOL     OW10753   3.329   6.306  10.925
69619SOL    HW110754   3.419   6.320  10.897
69619SOL    HW210755   3.334   6.288  11.019
69620SOL     OW10756   3.687   1.575   3.140
69620SOL    HW110757   3.626   1.647   3.122
69620SOL    HW210758   3.645   1.524   3.208
69621SOL     OW10759   6.177  11.023   9.522
69621SOL    HW110760   6.182  11.011   9.617
69621SOL    HW210761   6.113  10.959   9.492
69622SOL     OW10762   7.119   5.255   1.084
69622SOL    HW110763   7.100   5.174   1.037
69622SOL    HW210764   7.061   5.254   1.159
69623SOL     OW10765  13.550  14.642  14.205
69623SOL    HW110766  13.458  14.623  14.187
69623SOL    HW210767  13.571  14.715  14.148
69624SOL     OW10768   4.760  10.310   9.443
69624SOL    HW110769   4.688  10.371   9.457
69624SOL    HW210770   4.826  10.361   9.396
69625SOL     OW10771   0.868  13.484   9.244
69625SOL    HW110772   0.847  13.513   9.155
69625SOL    HW210773   0.886  13.565   9.292
69626SOL     OW10774  10.714  10.202  12.535
69626SOL    HW110775  10.710  10.226  12.442
69626SOL    HW210776  10.745  10.281  12.579
69627SOL     OW10777   5.178  11.796  12.509
69627SOL    HW110778   5.201  11.835  12.593
69627SOL    HW210779   5.082  11.799  12.507
69628SOL     OW10780   2.371  10.032   8.079
69628SOL    HW110781   2.339  10.077   8.001
69628SOL    HW210782   2.308  10.055   8.147
69629SOL     OW10783   3.254   3.691   0.243
69629SOL    HW110784   3.297   3.717   0.162
69629SOL    HW210785   3.265   3.596   0.247
69630SOL     OW10786   4.940  14.470   3.962
69630SOL    HW110787   5.014  14.531   3.972
69630SOL    HW210788   4.946  14.413   4.039
69631SOL     OW10789   2.766   0.984   8.856
69631SOL    HW110790   2.849   1.013   8.819
69631SOL    HW210791   2.769   0.889   8.850
69632SOL     OW10792   1.472   3.284   0.524
69632SOL    HW110793   1.418   3.361   0.505
69632SOL    HW210794   1.528   3.274   0.447
69633SOL     OW10795   2.304   8.523   8.845
69633SOL    HW110796   2.348   8.511   8.929
69633SOL    HW210797   2.346   8.599   8.806
69634SOL     OW10798   1.794   8.412  13.590
69634SOL    HW110799   1.870   8.378  13.638
69634SOL    HW210800   1.788   8.356  13.513
69635SOL     OW10801  14.305   1.934   9.200
69635SOL    HW110802  14.398   1.959   9.206
69635SOL    HW210803  14.303   1.863   9.137
69636SOL     OW10804  13.651  13.261   2.167
69636SOL    HW110805  13.703  13.200   2.220
69636SOL    HW210806  13.716  13.313   2.121
69637SOL     OW10807  13.806  12.373   5.304
69637SOL    HW110808  13.784  12.466   5.296
69637SOL    HW210809  13.846  12.364   5.390
69638SOL     OW10810  12.320  11.506   1.746
69638SOL    HW110811  12.328  11.549   1.831
69638SOL    HW210812  12.257  11.436   1.761
69639SOL     OW10813  11.093   8.956   5.296
69639SOL    HW110814  11.150   8.952   5.220
69639SOL    HW210815  11.147   8.926   5.369
69640SOL     OW10816   8.852   7.219   6.380
69640SOL    HW110817   8.888   7.209   6.468
69640SOL    HW210818   8.908   7.286   6.339
69641SOL     OW10819   3.946   2.600  13.174
69641SOL    HW110820   3.987   2.591  13.260
69641SOL    HW210821   3.899   2.518  13.161
69642SOL     OW10822   2.551  11.333   4.144
69642SOL    HW110823   2.593  11.315   4.060
69642SOL    HW210824   2.517  11.422   4.136
69643SOL     OW10825   0.190   0.449   5.270
69643SOL    HW110826   0.244   0.370   5.270
69643SOL    HW210827   0.238   0.511   5.325
69644SOL     OW10828   6.243   6.081   5.014
69644SOL    HW110829   6.179   6.152   5.007
69644SOL    HW210830   6.317   6.120   5.060
69645SOL     OW10831   9.768   9.112   3.266
69645SOL    HW110832   9.761   9.183   3.202
69645SOL    HW210833   9.763   9.032   3.213
69646SOL     OW10834  14.227   0.258  13.728
69646SOL    HW110835  14.216   0.198  13.802
69646SOL    HW210836  14.145   0.251  13.679
69647SOL     OW10837   6.821   8.174  14.265
69647SOL    HW110838   6.728   8.169  14.240
69647SOL    HW210839   6.822   8.231  14.342
69648SOL     OW10840   5.182  12.481   4.689
69648SOL    HW110841   5.104  12.462   4.742
69648SOL    HW210842   5.251  12.495   4.753
69649SOL     OW10843   1.086   2.661   6.934
69649SOL    HW110844   1.019   2.656   6.866
69649SOL    HW210845   1.118   2.572   6.943
69650SOL     OW10846   1.394   4.852   1.120
69650SOL    HW110847   1.371   4.801   1.197
69650SOL    HW210848   1.483   4.824   1.098
69651SOL     OW10849   5.163  10.392   6.123
69651SOL    HW110850   5.246  10.366   6.165
69651SOL    HW210851   5.162  10.342   6.042
69652SOL     OW10852   1.936  11.644  13.465
69652SOL    HW110853   1.911  11.555  13.440
69652SOL    HW210854   1.894  11.658  13.550
69653SOL     OW10855  14.239   8.420   4.085
69653SOL    HW110856  14.240   8.372   4.002
69653SOL    HW210857  14.147   8.443   4.098
69654SOL     OW10858   2.918  13.386   8.190
69654SOL    HW110859   2.845  13.364   8.248
69654SOL    HW210860   2.882  13.378   8.102
69655SOL     OW10861  13.824  12.583  14.134
69655SOL    HW110862  13.843  12.608  14.044
69655SOL    HW210863  13.894  12.523  14.157
69656SOL     OW10864   7.244  13.438  12.558
69656SOL    HW110865   7.329  13.482  12.549
69656SOL    HW210866   7.183  13.508  12.579
69657SOL     OW10867   0.822   8.886  11.439
69657SOL    HW110868   0.748   8.935  11.402
69657SOL    HW210869   0.805   8.795  11.414
69658SOL     OW10870  14.784   5.231  12.230
69658SOL    HW110871  14.695   5.210  12.201
69658SOL    HW210872  14.823   5.146  12.251
69659SOL     OW10873   3.281   4.673  10.632
69659SOL    HW110874   3.233   4.595  10.605
69659SOL    HW210875   3.343   4.689  10.561
69660SOL     OW10876  10.982   9.405   5.959
69660SOL    HW110877  11.003   9.314   5.979
69660SOL    HW210878  10.906   9.400   5.900
69661SOL     OW10879   5.121   5.458   2.780
69661SOL    HW110880   5.053   5.522   2.759
69661SOL    HW210881   5.080   5.399   2.844
69662SOL     OW10882   8.191   5.846   4.461
69662SOL    HW110883   8.226   5.930   4.489
69662SOL    HW210884   8.254   5.782   4.492
69663SOL     OW10885  12.290   9.338  13.363
69663SOL    HW110886  12.354   9.266  13.360
69663SOL    HW210887  12.342   9.415  13.385
69664SOL     OW10888   1.748  14.539   5.905
69664SOL    HW110889   1.786  14.450   5.908
69664SOL    HW210890   1.810  14.592   5.955
69665SOL     OW10891   3.872  13.209  13.599
69665SOL    HW110892   3.924  13.253  13.532
69665SOL    HW210893   3.823  13.279  13.642
69666SOL     OW10894   3.122   0.063  14.308
69666SOL    HW110895   3.201   0.072  14.256
69666SOL    HW210896   3.108   0.149  14.348
69667SOL     OW10897   5.973   7.456   5.889
69667SOL    HW110898   6.038   7.519   5.921
69667SOL    HW210899   5.924   7.431   5.967
69668SOL     OW10900   5.621   1.324   2.250
69668SOL    HW110901   5.663   1.318   2.164
69668SOL    HW210902   5.690   1.352   2.309
69669SOL     OW10903   1.782   1.229   8.706
69669SOL    HW110904   1.778   1.324   8.702
69669SOL    HW210905   1.713   1.204   8.767
69670SOL     OW10906   0.607   4.144   7.250
69670SOL    HW110907   0.599   4.156   7.345
69670SOL    HW210908   0.629   4.051   7.240
69671SOL     OW10909  14.423  11.231   9.368
69671SOL    HW110910  14.393  11.149   9.406
69671SOL    HW210911  14.446  11.208   9.278
69672SOL     OW10912   5.762  14.593  11.959
69672SOL    HW110913   5.731  14.541  12.034
69672SOL    HW210914   5.810  14.530  11.905
69673SOL     OW10915   0.903   5.322   0.523
69673SOL    HW110916   0.988   5.287   0.549
69673SOL    HW210917   0.855   5.246   0.490
69674SOL     OW10918  13.127   6.826   8.077
69674SOL    HW110919  13.049   6.820   8.131
69674SOL    HW210920  13.132   6.742   8.030
69675SOL     OW10921   3.486   3.580   2.078
69675SOL    HW110922   3.443   3.512   2.129
69675SOL    HW210923   3.461   3.662   2.121
69676SOL     OW10924  12.483  11.653   4.282
69676SOL    HW110925  12.411  11.714   4.264
69676SOL    HW210926  12.542  11.703   4.338
69677SOL     OW10927  14.420   2.371   3.183
69677SOL    HW110928  14.445   2.279   3.174
69677SOL    HW210929  14.478   2.406   3.250
69678SOL     OW10930   8.137   7.700   3.683
69678SOL    HW110931   8.165   7.672   3.596
69678SOL    HW210932   8.182   7.783   3.697
69679SOL     OW10933  11.017  13.946   3.993
69679SOL    HW110934  10.967  13.958   3.912
69679SOL    HW210935  11.006  14.029   4.040
69680SOL     OW10936   3.486   8.642   7.334
69680SOL    HW110937   3.566   8.598   7.307
69680SOL    HW210938   3.424   8.626   7.262
69681SOL     OW10939   2.160   1.323  10.132
69681SOL    HW110940   2.166   1.380  10.055
69681SOL    HW210941   2.247   1.325  10.170
69682SOL     OW10942  10.779   4.073  10.996
69682SOL    HW110943  10.799   4.047  11.086
69682SOL    HW210944  10.727   4.152  11.005
69683SOL     OW10945   4.799   1.539   4.095
69683SOL    HW110946   4.737   1.582   4.155
69683SOL    HW210947   4.756   1.542   4.010
69684SOL     OW10948   2.068  11.105   6.220
69684SOL    HW110949   2.034  11.194   6.213
69684SOL    HW210950   2.155  11.108   6.179
69685SOL     OW10951  12.590  14.057  14.341
69685SOL    HW110952  12.532  13.991  14.304
69685SOL    HW210953  12.532  14.110  14.397
69686SOL     OW10954   7.942   6.775   9.148
69686SOL    HW110955   7.865   6.741   9.194
69686SOL    HW210956   7.912   6.856   9.106
69687SOL     OW10957   4.722   3.858   7.268
69687SOL    HW110958   4.807   3.896   7.248
69687SOL    HW210959   4.735   3.812   7.351
69688SOL     OW10960   1.183  14.398   2.669
69688SOL    HW110961   1.161  14.316   2.623
69688SOL    HW210962   1.119  14.404   2.739
69689SOL     OW10963   9.103   3.408  12.290
69689SOL    HW110964   9.146   3.422  12.374
69689SOL    HW210965   9.079   3.316  12.290
69690SOL     OW10966   1.429  11.254  10.178
69690SOL    HW110967   1.368  11.327  10.161
69690SOL    HW210968   1.378  11.193  10.231
69691SOL     OW10969  10.640   1.348   6.782
69691SOL    HW110970  10.654   1.442   6.793
69691SOL    HW210971  10.726   1.310   6.796
69692SOL     OW10972  13.552   7.596   7.620
69692SOL    HW110973  13.613   7.594   7.695
69692SOL    HW210974  13.505   7.679   7.630
69693SOL     OW10975  10.886   9.910   7.220
69693SOL    HW110976  10.825   9.867   7.160
69693SOL    HW210977  10.877   9.862   7.302
69694SOL     OW10978   7.162  11.499  14.034
69694SOL    HW110979   7.157  11.420  14.089
69694SOL    HW210980   7.255  11.517  14.026
69695SOL     OW10981   8.232   1.114   2.298
69695SOL    HW110982   8.230   1.193   2.353
69695SOL    HW210983   8.143   1.079   2.304
69696SOL     OW10984   3.302   1.204  12.485
69696SOL    HW110985   3.238   1.246  12.542
69696SOL    HW210986   3.356   1.152  12.543
69697SOL     OW10987  10.934   3.868   8.541
69697SOL    HW110988  11.009   3.894   8.595
69697SOL    HW210989  10.940   3.773   8.536
69698SOL     OW10990  13.321  13.985   7.005
69698SOL    HW110991  13.226  13.982   6.991
69698SOL    HW210992  13.338  14.077   7.028
69699SOL     OW10993   5.833   8.394   8.538
69699SOL    HW110994   5.924   8.387   8.566
69699SOL    HW210995   5.789   8.319   8.579
69700SOL     OW10996   8.543   4.636   5.838
69700SOL    HW110997   8.529   4.674   5.751
69700SOL    HW210998   8.612   4.690   5.877
69701SOL     OW10999  13.130   8.055   2.647
69701SOL    HW111000  13.041   8.078   2.674
69701SOL    HW211001  13.173   8.028   2.728
69702SOL     OW11002   0.546   8.925   8.610
69702SOL    HW111003   0.632   8.929   8.652
69702SOL    HW211004   0.488   8.971   8.670
69703SOL     OW11005  14.528  11.749  10.091
69703SOL    HW111006  14.493  11.826  10.045
69703SOL    HW211007  14.622  11.763  10.093
69704SOL     OW11008   9.418  11.176   2.495
69704SOL    HW111009   9.488  11.133   2.447
69704SOL    HW211010   9.375  11.232   2.430
69705SOL     OW11011  14.423   6.962   7.029
69705SOL    HW111012  14.419   6.882   7.080
69705SOL    HW211013  14.489   6.945   6.962
69706SOL     OW11014   5.386   6.272   1.841
69706SOL    HW111015   5.370   6.192   1.790
69706SOL    HW211016   5.394   6.243   1.931
69707SOL     OW11017   5.004   5.626   5.968
69707SOL    HW111018   5.096   5.614   5.990
69707SOL    HW211019   4.956   5.605   6.048
69708SOL     OW11020   2.957  12.383  13.080
69708SOL    HW111021   3.003  12.321  13.023
69708SOL    HW211022   2.951  12.338  13.164
69709SOL     OW11023   1.853   4.097  11.477
69709SOL    HW111024   1.933   4.071  11.524
69709SOL    HW211025   1.878   4.097  11.385
69710SOL     OW11026   9.070   8.274   3.309
69710SOL    HW111027   9.044   8.322   3.388
69710SOL    HW211028   9.094   8.342   3.246
69711SOL     OW11029  12.463   2.423   0.617
69711SOL    HW111030  12.420   2.426   0.703
69711SOL    HW211031  12.489   2.331   0.606
69712SOL     OW11032   6.634   4.409  12.989
69712SOL    HW111033   6.687   4.383  13.064
69712SOL    HW211034   6.547   4.423  13.025
69713SOL     OW11035   1.858  13.253   7.647
69713SOL    HW111036   1.875  13.290   7.561
69713SOL    HW211037   1.944  13.247   7.688
69714SOL     OW11038   3.799   3.732   1.695
69714SOL    HW111039   3.890   3.717   1.669
69714SOL    HW211040   3.789   3.681   1.776
69715SOL     OW11041   6.999  14.526   8.538
69715SOL    HW111042   6.991  14.615   8.573
69715SOL    HW211043   7.026  14.473   8.613
69716SOL     OW11044   0.669   5.867  10.331
69716SOL    HW111045   0.666   5.937  10.265
69716SOL    HW211046   0.758   5.873  10.367
69717SOL     OW11047  11.295  14.600   1.212
69717SOL    HW111048  11.223  14.662   1.227
69717SOL    HW211049  11.308  14.558   1.297
69718SOL     OW11050   7.358   9.490  12.318
69718SOL    HW111051   7.335   9.578  12.290
69718SOL    HW211052   7.279   9.458  12.362
69719SOL     OW11053   8.182   7.978  11.357
69719SOL    HW111054   8.189   7.918  11.431
69719SOL    HW211055   8.273   8.000  11.336
69720SOL     OW11056  11.399  10.120   5.372
69720SOL    HW111057  11.467  10.106   5.306
69720SOL    HW211058  11.446  10.149   5.450
69721SOL     OW11059  12.479   6.629   9.588
69721SOL    HW111060  12.428   6.690   9.534
69721SOL    HW211061  12.570   6.646   9.564
69722SOL     OW11062  11.932   4.805   3.737
69722SOL    HW111063  11.868   4.840   3.674
69722SOL    HW211064  11.960   4.722   3.699
69723SOL     OW11065   4.529   8.210   9.802
69723SOL    HW111066   4.571   8.277   9.855
69723SOL    HW211067   4.480   8.258   9.735
69724SOL     OW11068   9.397   3.659  11.709
69724SOL    HW111069   9.436   3.729  11.761
69724SOL    HW211070   9.307   3.650  11.742
69725SOL     OW11071   2.870   5.182   9.454
69725SOL    HW111072   2.814   5.129   9.511
69725SOL    HW211073   2.810   5.226   9.394
69726SOL     OW11074   6.368  12.682   7.298
69726SOL    HW111075   6.330  12.766   7.326
69726SOL    HW211076   6.293  12.631   7.267
69727SOL     OW11077  12.391   2.210   7.855
69727SOL    HW111078  12.301   2.242   7.862
69727SOL    HW211079  12.442   2.288   7.834
69728SOL     OW11080   3.725  14.273  13.327
69728SOL    HW111081   3.750  14.194  13.280
69728SOL    HW211082   3.634  14.257  13.354
69729SOL     OW11083  14.657   2.369  10.799
69729SOL    HW111084  14.681   2.276  10.803
69729SOL    HW211085  14.579   2.371  10.744
69730SOL     OW11086   9.687   4.166  13.462
69730SOL    HW111087   9.658   4.245  13.507
69730SOL    HW211088   9.782   4.177  13.453
69731SOL     OW11089  12.762   7.381   1.465
69731SOL    HW111090  12.814   7.455   1.497
69731SOL    HW211091  12.827   7.312   1.450
69732SOL     OW11092   5.916   8.754  13.720
69732SOL    HW111093   5.909   8.799  13.635
69732SOL    HW211094   5.920   8.661  13.697
69733SOL     OW11095   6.082  14.147  12.813
69733SOL    HW111096   6.097  14.208  12.740
69733SOL    HW211097   6.170  14.124  12.842
69734SOL     OW11098   1.316   9.424   6.957
69734SOL    HW111099   1.365   9.372   6.894
69734SOL    HW211100   1.296   9.363   7.028
69735SOL     OW11101  13.515   1.161   1.989
69735SOL    HW111102  13.420   1.173   1.995
69735SOL    HW211103  13.529   1.069   2.008
69736SOL     OW11104   4.834   4.026   9.758
69736SOL    HW111105   4.821   3.932   9.744
69736SOL    HW211106   4.887   4.031   9.838
69737SOL     OW11107   9.159   0.524   4.586
69737SOL    HW111108   9.230   0.534   4.522
69737SOL    HW211109   9.188   0.574   4.662
69738SOL     OW11110   0.426  11.434   4.820
69738SOL    HW111111   0.391  11.385   4.894
69738SOL    HW211112   0.521  11.426   4.829
69739SOL     OW11113   7.839  14.062  10.246
69739SOL    HW111114   7.763  14.116  10.264
69739SOL    HW211115   7.814  13.974  10.275
69740SOL     OW11116   6.384   4.727   5.144
69740SOL    HW111117   6.363   4.743   5.052
69740SOL    HW211118   6.409   4.635   5.147
69741SOL     OW11119   3.883   8.674   4.155
69741SOL    HW111120   3.946   8.710   4.218
69741SOL    HW211121   3.805   8.728   4.166
69742SOL     OW11122  11.460   4.962   2.566
69742SOL    HW111123  11.461   4.930   2.656
69742SOL    HW211124  11.422   4.890   2.515
69743SOL     OW11125  10.063   9.852   7.314
69743SOL    HW111126  10.039   9.821   7.402
69743SOL    HW211127  10.108   9.778   7.274
69744SOL     OW11128   9.415   0.157   4.855
69744SOL    HW111129   9.465   0.157   4.937
69744SOL    HW211130   9.475   0.118   4.791
69745SOL     OW11131   1.898   9.532   9.762
69745SOL    HW111132   1.831   9.592   9.731
69745SOL    HW211133   1.917   9.560   9.852
69746SOL     OW11134  11.116   8.794   7.050
69746SOL    HW111135  11.126   8.810   6.956
69746SOL    HW211136  11.060   8.717   7.056
69747SOL     OW11137   9.503   7.100   0.859
69747SOL    HW111138   9.571   7.082   0.794
69747SOL    HW211139   9.470   7.186   0.836
69748SOL     OW11140   5.704   6.051   9.520
69748SOL    HW111141   5.747   6.061   9.435
69748SOL    HW211142   5.611   6.061   9.502
69749SOL     OW11143   1.521   5.558  14.670
69749SOL    HW111144   1.611   5.524  14.674
69749SOL    HW211145   1.466   5.483  14.694
69750SOL     OW11146   9.074   7.313   7.201
69750SOL    HW111147   8.990   7.275   7.228
69750SOL    HW211148   9.068   7.405   7.228
69751SOL     OW11149  14.797  11.608  10.013
69751SOL    HW111150  14.772  11.546  10.081
69751SOL    HW211151  14.809  11.555   9.935
69752SOL     OW11152   2.296   9.548   8.761
69752SOL    HW111153   2.208   9.554   8.722
69752SOL    HW211154   2.281   9.508   8.847
69753SOL     OW11155   3.505   0.697   9.980
69753SOL    HW111156   3.496   0.664   9.891
69753SOL    HW211157   3.424   0.744   9.997
69754SOL     OW11158  14.664   6.993  10.182
69754SOL    HW111159  14.705   6.988  10.269
69754SOL    HW211160  14.638   7.084  10.172
69755SOL     OW11161   8.037   8.098   2.151
69755SOL    HW111162   7.957   8.126   2.106
69755SOL    HW211163   8.007   8.043   2.223
69756SOL     OW11164   4.670  11.514   8.594
69756SOL    HW111165   4.745  11.487   8.541
69756SOL    HW211166   4.709  11.562   8.668
69757SOL     OW11167  11.214   9.042   4.868
69757SOL    HW111168  11.152   8.980   4.907
69757SOL    HW211169  11.299   8.998   4.874
69758SOL     OW11170   4.153  10.566  13.071
69758SOL    HW111171   4.170  10.488  13.019
69758SOL    HW211172   4.059  10.562  13.092
69759SOL     OW11173  13.457   6.263   3.192
69759SOL    HW111174  13.464   6.281   3.099
69759SOL    HW211175  13.364   6.278   3.213
69760SOL     OW11176   3.506   3.260   0.359
69760SOL    HW111177   3.529   3.168   0.344
69760SOL    HW211178   3.423   3.256   0.407
69761SOL     OW11179  11.734   7.526  12.822
69761SOL    HW111180  11.694   7.459  12.879
69761SOL    HW211181  11.665   7.590  12.809
69762SOL     OW11182   4.075  10.524  12.268
69762SOL    HW111183   4.063  10.432  12.245
69762SOL    HW211184   4.142  10.555  12.207
69763SOL     OW11185   8.638   3.245   2.551
69763SOL    HW111186   8.603   3.252   2.640
69763SOL    HW211187   8.686   3.327   2.538
69764SOL     OW11188   5.044   1.095   9.553
69764SOL    HW111189   4.950   1.084   9.539
69764SOL    HW211190   5.079   1.116   9.467
69765SOL     OW11191   2.047   3.204   9.970
69765SOL    HW111192   2.049   3.173   9.879
69765SOL    HW211193   2.054   3.124  10.022
69766SOL     OW11194   6.776   5.120   1.907
69766SOL    HW111195   6.778   5.056   1.978
69766SOL    HW211196   6.708   5.087   1.847
69767SOL     OW11197   1.531  11.060  12.265
69767SOL    HW111198   1.494  11.127  12.324
69767SOL    HW211199   1.574  10.998  12.324
69768SOL     OW11200   8.173  14.752   9.398
69768SOL    HW111201   8.225  14.832   9.410
69768SOL    HW211202   8.103  14.778   9.337
69769SOL     OW11203   4.481   6.809  13.376
69769SOL    HW111204   4.463   6.754  13.299
69769SOL    HW211205   4.521   6.888  13.339
69770SOL     OW11206  11.694   5.219  13.120
69770SOL    HW111207  11.715   5.127  13.102
69770SOL    HW211208  11.771   5.267  13.090
69771SOL     OW11209  12.094  14.685   9.131
69771SOL    HW111210  12.001  14.701   9.119
69771SOL    HW211211  12.104  14.590   9.120
69772SOL     OW11212   5.167  12.670   8.500
69772SOL    HW111213   5.079  12.700   8.476
69772SOL    HW211214   5.225  12.742   8.474
69773SOL     OW11215  14.817   9.304   7.092
69773SOL    HW111216   0.019   9.254   7.057
69773SOL    HW211217  14.800   9.264   7.177
69774SOL     OW11218   6.644  12.040   1.991
69774SOL    HW111219   6.712  12.103   2.015
69774SOL    HW211220   6.689  11.956   1.992
69775SOL     OW11221   8.992   6.819   0.625
69775SOL    HW111222   9.009   6.845   0.534
69775SOL    HW211223   9.066   6.763   0.647
69776SOL     OW11224  14.579  13.119   4.565
69776SOL    HW111225  14.644  13.172   4.610
69776SOL    HW211226  14.495  13.143   4.604
69777SOL     OW11227  11.971   8.235  13.426
69777SOL    HW111228  11.957   8.228  13.521
69777SOL    HW211229  11.980   8.145  13.397
69778SOL     OW11230   5.081   5.051  12.691
69778SOL    HW111231   5.121   5.111  12.754
69778SOL    HW211232   5.045   4.980  12.744
69779SOL     OW11233  10.250  10.820  14.269
69779SOL    HW111234  10.224  10.762  14.341
69779SOL    HW211235  10.265  10.905  14.311
69780SOL     OW11236   2.543  13.481  11.767
69780SOL    HW111237   2.451  13.465  11.787
69780SOL    HW211238   2.542  13.564  11.718
69781SOL     OW11239   7.781  12.459  11.256
69781SOL    HW111240   7.725  12.476  11.332
69781SOL    HW211241   7.837  12.536  11.250
69782SOL     OW11242  12.378  10.093  12.128
69782SOL    HW111243  12.464  10.131  12.148
69782SOL    HW211244  12.355  10.042  12.205
69783SOL     OW11245  10.017   8.976  10.781
69783SOL    HW111246  10.052   8.978  10.692
69783SOL    HW211247   9.967   9.057  10.789
69784SOL     OW11248  12.735  14.071  12.100
69784SOL    HW111249  12.823  14.101  12.081
69784SOL    HW211250  12.728  13.986  12.056
69785SOL     OW11251   7.439   0.685   0.764
69785SOL    HW111252   7.439   0.650   0.676
69785SOL    HW211253   7.361   0.740   0.769
69786SOL     OW11254   4.712   2.445   7.557
69786SOL    HW111255   4.651   2.372   7.551
69786SOL    HW211256   4.756   2.447   7.472
69787SOL     OW11257  10.785   0.877   2.083
69787SOL    HW111258  10.850   0.930   2.129
69787SOL    HW211259  10.715   0.938   2.059
69788SOL     OW11260  10.318   9.877   0.301
69788SOL    HW111261  10.261   9.905   0.229
69788SOL    HW211262  10.258   9.842   0.367
69789SOL     OW11263   1.071   3.772  11.442
69789SOL    HW111264   1.150   3.785  11.495
69789SOL    HW211265   0.999   3.777  11.505
69790SOL     OW11266  13.334   4.146   1.777
69790SOL    HW111267  13.406   4.207   1.760
69790SOL    HW211268  13.369   4.061   1.749
69791SOL     OW11269  13.517  12.748   0.311
69791SOL    HW111270  13.465  12.823   0.338
69791SOL    HW211271  13.458  12.673   0.320
69792SOL     OW11272   9.241  10.572   1.707
69792SOL    HW111273   9.206  10.650   1.751
69792SOL    HW211274   9.196  10.571   1.623
69793SOL     OW11275  11.376   5.751  10.052
69793SOL    HW111276  11.469   5.736  10.040
69793SOL    HW211277  11.353   5.700  10.130
69794SOL     OW11278   4.445  13.215   3.630
69794SOL    HW111279   4.463  13.295   3.680
69794SOL    HW211280   4.370  13.237   3.576
69795SOL     OW11281  14.811   4.244   1.921
69795SOL    HW111282  14.871   4.299   1.870
69795SOL    HW211283  14.732   4.237   1.867
69796SOL     OW11284   0.958  10.892   2.150
69796SOL    HW111285   1.033  10.833   2.158
69796SOL    HW211286   0.973  10.940   2.069
69797SOL     OW11287  10.784   3.538   3.754
69797SOL    HW111288  10.689   3.528   3.763
69797SOL    HW211289  10.795   3.614   3.697
69798SOL     OW11290   3.428  14.131  10.178
69798SOL    HW111291   3.435  14.132  10.273
69798SOL    HW211292   3.517  14.117  10.147
69799SOL     OW11293   0.769   9.448   3.723
69799SOL    HW111294   0.806   9.470   3.809
69799SOL    HW211295   0.678   9.424   3.742
69800SOL     OW11296  12.214   0.533  12.182
69800SOL    HW111297  12.258   0.529  12.097
69800SOL    HW211298  12.123   0.514  12.163
69801SOL     OW11299   5.785   5.480   7.687
69801SOL    HW111300   5.849   5.486   7.616
69801SOL    HW211301   5.742   5.566   7.688
69802SOL     OW11302  10.042  13.730   1.240
69802SOL    HW111303  10.130  13.699   1.262
69802SOL    HW211304  10.049  13.762   1.150
69803SOL     OW11305   7.034   3.453   8.751
69803SOL    HW111306   6.968   3.398   8.708
69803SOL    HW211307   7.034   3.534   8.700
69804SOL     OW11308  12.921  10.648   3.705
69804SOL    HW111309  12.895  10.582   3.769
69804SOL    HW211310  12.989  10.700   3.748
69805SOL     OW11311  11.342   3.823   4.137
69805SOL    HW111312  11.403   3.764   4.182
69805SOL    HW211313  11.291   3.863   4.208
69806SOL     OW11314   7.975   7.354   5.843
69806SOL    HW111315   7.986   7.353   5.938
69806SOL    HW211316   7.946   7.265   5.822
69807SOL     OW11317   0.711   7.363  11.779
69807SOL    HW111318   0.749   7.293  11.833
69807SOL    HW211319   0.617   7.348  11.782
69808SOL     OW11320   7.259   5.613   7.028
69808SOL    HW111321   7.259   5.527   6.985
69808SOL    HW211322   7.212   5.670   6.968
69809SOL     OW11323   4.371   3.017  14.585
69809SOL    HW111324   4.277   2.996  14.581
69809SOL    HW211325   4.412   2.958  14.522
69810SOL     OW11326  13.340  10.531   1.489
69810SOL    HW111327  13.413  10.472   1.470
69810SOL    HW211328  13.286  10.483   1.553
69811SOL     OW11329   2.746   9.178  13.970
69811SOL    HW111330   2.810   9.161  13.901
69811SOL    HW211331   2.795   9.173  14.051
69812SOL     OW11332   1.561  11.558   9.834
69812SOL    HW111333   1.578  11.538   9.926
69812SOL    HW211334   1.599  11.645   9.821
69813SOL     OW11335   0.906  14.836   8.819
69813SOL    HW111336   0.907  14.788   8.902
69813SOL    HW211337   0.989   0.012   8.818
69814SOL     OW11338  11.636   1.410   4.887
69814SOL    HW111339  11.641   1.354   4.810
69814SOL    HW211340  11.651   1.499   4.853
69815SOL     OW11341   1.163  12.785  11.798
69815SOL    HW111342   1.192  12.834  11.721
69815SOL    HW211343   1.162  12.694  11.770
69816SOL     OW11344   0.479   6.943   5.045
69816SOL    HW111345   0.441   6.856   5.032
69816SOL    HW211346   0.403   7.000   5.056
69817SOL     OW11347  11.964  10.330   0.566
69817SOL    HW111348  11.888  10.385   0.588
69817SOL    HW211349  11.959  10.257   0.627
69818SOL     OW11350   8.194  14.501   6.352
69818SOL    HW111351   8.149  14.477   6.434
69818SOL    HW211352   8.287  14.489   6.371
69819SOL     OW11353   4.730   6.124   6.373
69819SOL    HW111354   4.771   6.108   6.458
69819SOL    HW211355   4.764   6.209   6.345
69820SOL     OW11356   8.360  13.894  10.974
69820SOL    HW111357   8.396  13.831  10.912
69820SOL    HW211358   8.368  13.979  10.930
69821SOL     OW11359   4.503   6.642   2.746
69821SOL    HW111360   4.560   6.600   2.681
69821SOL    HW211361   4.428   6.584   2.753
69822SOL     OW11362   4.668   5.048   5.276
69822SOL    HW111363   4.704   5.017   5.360
69822SOL    HW211364   4.712   5.131   5.260
69823SOL     OW11365   3.138  11.219   2.038
69823SOL    HW111366   3.224  11.219   1.996
69823SOL    HW211367   3.079  11.256   1.973
69824SOL     OW11368   0.924   2.576   9.980
69824SOL    HW111369   1.020   2.579   9.979
69824SOL    HW211370   0.900   2.618  10.062
69825SOL     OW11371  10.261   3.086  12.248
69825SOL    HW111372  10.235   3.178  12.239
69825SOL    HW211373  10.333   3.087  12.311
69826SOL     OW11374   1.433  11.431  11.643
69826SOL    HW111375   1.392  11.365  11.698
69826SOL    HW211376   1.431  11.512  11.695
69827SOL     OW11377  10.174  10.834  11.740
69827SOL    HW111378  10.167  10.825  11.835
69827SOL    HW211379  10.157  10.927  11.724
69828SOL     OW11380   8.345   8.085   2.057
69828SOL    HW111381   8.332   8.036   2.138
69828SOL    HW211382   8.407   8.033   2.007
69829SOL     OW11383   2.308  11.091   7.915
69829SOL    HW111384   2.336  11.155   7.850
69829SOL    HW211385   2.265  11.143   7.983
69830SOL     OW11386   6.435   9.470  10.674
69830SOL    HW111387   6.464   9.560  10.689
69830SOL    HW211388   6.462   9.422  10.752
69831SOL     OW11389  11.601   9.261   3.870
69831SOL    HW111390  11.562   9.196   3.812
69831SOL    HW211391  11.599   9.220   3.957
69832SOL     OW11392   2.773   4.932  11.740
69832SOL    HW111393   2.740   5.013  11.779
69832SOL    HW211394   2.841   4.902  11.801
69833SOL     OW11395   0.480  12.268  11.467
69833SOL    HW111396   0.522  12.254  11.552
69833SOL    HW211397   0.473  12.363  11.459
69834SOL     OW11398  11.227   7.345   6.049
69834SOL    HW111399  11.269   7.423   6.085
69834SOL    HW211400  11.144   7.375   6.014
69835SOL     OW11401   5.242   8.046   2.811
69835SOL    HW111402   5.291   7.996   2.876
69835SOL    HW211403   5.222   8.129   2.854
69836SOL     OW11404  12.705  14.426   9.081
69836SOL    HW111405  12.778  14.376   9.117
69836SOL    HW211406  12.723  14.434   8.988
69837SOL     OW11407   8.930   3.319   9.957
69837SOL    HW111408   9.004   3.304   9.899
69837SOL    HW211409   8.950   3.401  10.001
69838SOL     OW11410   1.800   1.140   7.362
69838SOL    HW111411   1.741   1.205   7.325
69838SOL    HW211412   1.743   1.068   7.388
69839SOL     OW11413   4.368   0.001  14.019
69839SOL    HW111414   4.387   0.028  13.929
69839SOL    HW211415   4.308  14.799  14.009
69840SOL     OW11416   5.289   8.294  13.905
69840SOL    HW111417   5.343   8.214  13.909
69840SOL    HW211418   5.313   8.342  13.984
69841SOL     OW11419   6.657  12.531  11.394
69841SOL    HW111420   6.704  12.459  11.436
69841SOL    HW211421   6.721  12.573  11.337
69842SOL     OW11422   9.612   1.215  10.336
69842SOL    HW111423   9.611   1.254  10.249
69842SOL    HW211424   9.521   1.188  10.351
69843SOL     OW11425  13.606   2.279   6.722
69843SOL    HW111426  13.528   2.332   6.737
69843SOL    HW211427  13.626   2.291   6.629
69844SOL     OW11428   7.413   4.184  14.475
69844SOL    HW111429   7.405   4.109  14.534
69844SOL    HW211430   7.463   4.249  14.525
69845SOL     OW11431   9.601   3.745   2.517
69845SOL    HW111432   9.538   3.720   2.584
69845SOL    HW211433   9.603   3.671   2.456
69846SOL     OW11434  10.980  13.627   9.785
69846SOL    HW111435  11.008  13.713   9.815
69846SOL    HW211436  11.016  13.620   9.696
69847SOL     OW11437   5.311   9.325   8.211
69847SOL    HW111438   5.239   9.384   8.234
69847SOL    HW211439   5.373   9.381   8.163
69848SOL     OW11440   8.158  10.228   2.314
69848SOL    HW111441   8.151  10.139   2.281
69848SOL    HW211442   8.194  10.218   2.402
69849SOL     OW11443   4.562   1.076   2.786
69849SOL    HW111444   4.474   1.075   2.747
69849SOL    HW211445   4.576   0.985   2.812
69850SOL     OW11446   9.282  10.157   2.389
69850SOL    HW111447   9.282  10.181   2.481
69850SOL    HW211448   9.289  10.061   2.388
69851SOL     OW11449   6.643  11.863  13.551
69851SOL    HW111450   6.558  11.905  13.538
69851SOL    HW211451   6.626  11.770  13.538
69852SOL     OW11452   1.841   1.116   9.643
69852SOL    HW111453   1.867   1.040   9.591
69852SOL    HW211454   1.907   1.120   9.713
69853SOL     OW11455   4.131  13.627   8.505
69853SOL    HW111456   4.135  13.536   8.474
69853SOL    HW211457   4.222  13.655   8.507
69854SOL     OW11458  12.323   0.551   9.262
69854SOL    HW111459  12.244   0.535   9.210
69854SOL    HW211460  12.385   0.485   9.231
69855SOL     OW11461  11.378   9.659  12.230
69855SOL    HW111462  11.342   9.570  12.226
69855SOL    HW211463  11.320   9.710  12.173
69856SOL     OW11464   5.881   5.270   5.792
69856SOL    HW111465   5.791   5.291   5.769
69856SOL    HW211466   5.934   5.335   5.746
69857SOL     OW11467   1.505   0.884   9.787
69857SOL    HW111468   1.554   0.958   9.822
69857SOL    HW211469   1.488   0.908   9.696
69858SOL     OW11470   4.189   5.441   9.106
69858SOL    HW111471   4.158   5.351   9.114
69858SOL    HW211472   4.253   5.451   9.177
69859SOL     OW11473   6.836   5.741   4.969
69859SOL    HW111474   6.848   5.817   5.027
69859SOL    HW211475   6.742   5.722   4.973
69860SOL     OW11476   3.273   3.166   1.425
69860SOL    HW111477   3.273   3.078   1.388
69860SOL    HW211478   3.258   3.153   1.519
69861SOL     OW11479   9.992  11.980  14.401
69861SOL    HW111480   9.984  11.943  14.313
69861SOL    HW211481   9.904  12.007  14.425
69862SOL     OW11482   7.261   3.466   0.223
69862SOL    HW111483   7.349   3.429   0.218
69862SOL    HW211484   7.270   3.540   0.284
69863SOL     OW11485   5.541   1.632  12.453
69863SOL    HW111486   5.457   1.596  12.483
69863SOL    HW211487   5.600   1.557  12.453
69864SOL     OW11488  11.793   7.651  13.074
69864SOL    HW111489  11.780   7.683  12.985
69864SOL    HW211490  11.835   7.565  13.062
69865SOL     OW11491  12.542   1.481   2.261
69865SOL    HW111492  12.459   1.478   2.309
69865SOL    HW211493  12.554   1.573   2.240
69866SOL     OW11494   0.139   0.798   5.630
69866SOL    HW111495   0.066   0.859   5.638
69866SOL    HW211496   0.213   0.853   5.603
69867SOL     OW11497   7.295   5.599  11.494
69867SOL    HW111498   7.348   5.664  11.448
69867SOL    HW211499   7.207   5.638  11.497
69868SOL     OW11500  12.530   0.510   3.151
69868SOL    HW111501  12.550   0.428   3.196
69868SOL    HW211502  12.449   0.492   3.103
69869SOL     OW11503   9.936   2.429   3.990
69869SOL    HW111504   9.980   2.434   3.905
69869SOL    HW211505   9.932   2.519   4.021
69870SOL     OW11506   4.870  14.734   8.213
69870SOL    HW111507   4.906  14.758   8.299
69870SOL    HW211508   4.886  14.811   8.158
69871SOL     OW11509   9.355   6.653   7.168
69871SOL    HW111510   9.421   6.586   7.185
69871SOL    HW211511   9.393   6.733   7.203
69872SOL     OW11512   2.016  11.965   6.878
69872SOL    HW111513   2.035  11.907   6.952
69872SOL    HW211514   2.055  11.921   6.802
69873SOL     OW11515  12.430   3.365   6.707
69873SOL    HW111516  12.516   3.343   6.671
69873SOL    HW211517  12.390   3.421   6.641
69874SOL     OW11518   2.343  13.780   0.251
69874SOL    HW111519   2.383  13.863   0.277
69874SOL    HW211520   2.394  13.713   0.297
69875SOL     OW11521  12.373  12.128   9.179
69875SOL    HW111522  12.294  12.162   9.221
69875SOL    HW211523  12.432  12.203   9.175
69876SOL     OW11524   7.458  11.292   3.473
69876SOL    HW111525   7.410  11.210   3.488
69876SOL    HW211526   7.529  11.268   3.414
69877SOL     OW11527   2.089  10.074   5.991
69877SOL    HW111528   2.167  10.021   5.975
69877SOL    HW211529   2.042  10.074   5.908
69878SOL     OW11530   1.566   7.299   4.096
69878SOL    HW111531   1.487   7.317   4.046
69878SOL    HW211532   1.552   7.342   4.180
69879SOL     OW11533   6.711  11.681   5.925
69879SOL    HW111534   6.690  11.741   5.996
69879SOL    HW211535   6.628  11.667   5.879
69880SOL     OW11536   6.251   2.120  13.604
69880SOL    HW111537   6.188   2.106  13.533
69880SOL    HW211538   6.279   2.031  13.628
69881SOL     OW11539  14.162   4.979   6.192
69881SOL    HW111540  14.101   4.994   6.120
69881SOL    HW211541  14.147   5.052   6.252
69882SOL     OW11542   1.084   1.943  10.460
69882SOL    HW111543   1.074   1.867  10.518
69882SOL    HW211544   1.001   1.948  10.412
69883SOL     OW11545   4.829   1.813   0.671
69883SOL    HW111546   4.836   1.895   0.719
69883SOL    HW211547   4.739   1.811   0.639
69884SOL     OW11548   1.666  10.649   1.860
69884SOL    HW111549   1.747  10.661   1.811
69884SOL    HW211550   1.648  10.735   1.898
69885SOL     OW11551  12.533   6.912  12.928
69885SOL    HW111552  12.493   6.843  12.981
69885SOL    HW211553  12.532   6.989  12.984
69886SOL     OW11554   2.639  14.073   9.836
69886SOL    HW111555   2.595  14.125   9.769
69886SOL    HW211556   2.732  14.096   9.828
69887SOL     OW11557   9.689  10.004   2.312
69887SOL    HW111558   9.763   9.980   2.256
69887SOL    HW211559   9.631   9.928   2.308
69888SOL     OW11560   4.465  13.776   1.943
69888SOL    HW111561   4.460  13.730   1.860
69888SOL    HW211562   4.558  13.784   1.961
69889SOL     OW11563   5.725   4.022   0.028
69889SOL    HW111564   5.758   4.084  14.835
69889SOL    HW211565   5.729   3.937  14.857
69890SOL     OW11566   8.876   1.705   7.814
69890SOL    HW111567   8.963   1.670   7.795
69890SOL    HW211568   8.854   1.668   7.899
69891SOL     OW11569   9.343   8.638   5.436
69891SOL    HW111570   9.268   8.694   5.458
69891SOL    HW211571   9.400   8.693   5.384
69892SOL     OW11572   7.296   0.686  11.344
69892SOL    HW111573   7.227   0.660  11.283
69892SOL    HW211574   7.373   0.699  11.289
69893SOL     OW11575  13.835   0.598   2.357
69893SOL    HW111576  13.919   0.567   2.323
69893SOL    HW211577  13.783   0.619   2.279
69894SOL     OW11578   1.136  13.046   4.995
69894SOL    HW111579   1.229  13.059   5.013
69894SOL    HW211580   1.103  13.133   4.972
69895SOL     OW11581   5.692  14.241   5.976
69895SOL    HW111582   5.769  14.269   5.928
69895SOL    HW211583   5.726  14.181   6.043
69896SOL     OW11584  10.724   2.390   5.309
69896SOL    HW111585  10.720   2.388   5.404
69896SOL    HW211586  10.811   2.355   5.288
69897SOL     OW11587   0.786   9.600  12.589
69897SOL    HW111588   0.789   9.545  12.511
69897SOL    HW211589   0.700   9.641  12.586
69898SOL     OW11590   7.852   2.895   7.892
69898SOL    HW111591   7.853   2.990   7.901
69898SOL    HW211592   7.767   2.876   7.853
69899SOL     OW11593   7.235   5.316  14.519
69899SOL    HW111594   7.272   5.338  14.433
69899SOL    HW211595   7.140   5.322  14.506
69900SOL     OW11596  13.572   4.819   4.378
69900SOL    HW111597  13.652   4.766   4.378
69900SOL    HW211598  13.602   4.909   4.376
69901SOL     OW11599  13.140   8.248   0.774
69901SOL    HW111600  13.051   8.243   0.739
69901SOL    HW211601  13.134   8.311   0.846
69902SOL     OW11602  14.380  12.924   6.140
69902SOL    HW111603  14.350  12.989   6.077
69902SOL    HW211604  14.419  12.975   6.211
69903SOL     OW11605   7.183   0.449   1.365
69903SOL    HW111606   7.184   0.359   1.398
69903SOL    HW211607   7.211   0.502   1.439
69904SOL     OW11608   9.885   9.767  11.481
69904SOL    HW111609   9.889   9.848  11.430
69904SOL    HW211610   9.897   9.794  11.572
69905SOL     OW11611   7.182   8.902  11.371
69905SOL    HW111612   7.101   8.886  11.323
69905SOL    HW211613   7.226   8.817  11.373
69906SOL     OW11614   6.004   2.957   4.689
69906SOL    HW111615   6.009   2.900   4.766
69906SOL    HW211616   5.950   2.908   4.627
69907SOL     OW11617  13.055  10.087   6.785
69907SOL    HW111618  13.137  10.119   6.747
69907SOL    HW211619  12.987  10.117   6.725
69908SOL     OW11620  12.127   4.181   6.709
69908SOL    HW111621  12.050   4.225   6.674
69908SOL    HW211622  12.183   4.252   6.741
69909SOL     OW11623   2.537  12.245   1.386
69909SOL    HW111624   2.462  12.229   1.329
69909SOL    HW211625   2.588  12.312   1.341
69910SOL     OW11626  12.620  12.967   1.852
69910SOL    HW111627  12.622  12.919   1.769
69910SOL    HW211628  12.646  13.056   1.829
69911SOL     OW11629  14.704   0.137   9.329
69911SOL    HW111630  14.636   0.113   9.265
69911SOL    HW211631  14.711   0.232   9.321
69912SOL     OW11632  11.168   8.190   7.347
69912SOL    HW111633  11.190   8.279   7.320
69912SOL    HW211634  11.190   8.187   7.440
69913SOL     OW11635   3.304  13.090  14.706
69913SOL    HW111636   3.220  13.117  14.742
69913SOL    HW211637   3.350  13.172  14.688
69914SOL     OW11638  13.592   7.095   6.160
69914SOL    HW111639  13.600   7.164   6.093
69914SOL    HW211640  13.666   7.037   6.143
69915SOL     OW11641  14.169  14.394   6.804
69915SOL    HW111642  14.152  14.315   6.751
69915SOL    HW211643  14.262  14.388   6.824
69916SOL     OW11644   0.415   5.500  14.791
69916SOL    HW111645   0.474   5.538  14.725
69916SOL    HW211646   0.331   5.542  14.775
69917SOL     OW11647   7.294   9.811   5.102
69917SOL    HW111648   7.344   9.878   5.150
69917SOL    HW211649   7.349   9.733   5.106
69918SOL     OW11650   5.573  14.760  10.787
69918SOL    HW111651   5.606  14.848  10.770
69918SOL    HW211652   5.494  14.774  10.839
69919SOL     OW11653  12.010  10.161   1.241
69919SOL    HW111654  11.924  10.125   1.223
69919SOL    HW211655  12.014  10.168   1.337
69920SOL     OW11656  10.558   6.828   8.047
69920SOL    HW111657  10.544   6.749   7.994
69920SOL    HW211658  10.478   6.880   8.033
69921SOL     OW11659   2.608  13.361  12.666
69921SOL    HW111660   2.560  13.278  12.657
69921SOL    HW211661   2.670  13.360  12.592
69922SOL     OW11662   7.944   0.882  13.689
69922SOL    HW111663   8.002   0.809  13.708
69922SOL    HW211664   7.960   0.945  13.759
69923SOL     OW11665   5.244   4.710   7.853
69923SOL    HW111666   5.245   4.771   7.927
69923SOL    HW211667   5.289   4.757   7.783
69924SOL     OW11668  13.092   8.786   1.054
69924SOL    HW111669  13.087   8.880   1.036
69924SOL    HW211670  13.155   8.753   0.990
69925SOL     OW11671   0.271  14.451   8.179
69925SOL    HW111672   0.278  14.521   8.114
69925SOL    HW211673   0.201  14.480   8.238
69926SOL     OW11674  10.610  13.502  10.026
69926SOL    HW111675  10.669  13.506  10.101
69926SOL    HW211676  10.574  13.413  10.029
69927SOL     OW11677  11.351  13.583  11.642
69927SOL    HW111678  11.368  13.661  11.589
69927SOL    HW211679  11.266  13.551  11.612
69928SOL     OW11680   2.382  13.023  14.675
69928SOL    HW111681   2.431  13.095  14.637
69928SOL    HW211682   2.437  12.946  14.660
69929SOL     OW11683   6.156   4.526  14.101
69929SOL    HW111684   6.118   4.460  14.159
69929SOL    HW211685   6.094   4.599  14.104
69930SOL     OW11686   0.034   7.461  13.410
69930SOL    HW111687   0.113   7.489  13.364
69930SOL    HW211688   0.053   7.477  13.503
69931SOL     OW11689   4.136   6.364   5.158
69931SOL    HW111690   4.212   6.403   5.114
69931SOL    HW211691   4.167   6.348   5.247
69932SOL     OW11692   7.596   0.978   8.212
69932SOL    HW111693   7.651   0.922   8.268
69932SOL    HW211694   7.529   0.918   8.178
69933SOL     OW11695   6.005   7.501   6.635
69933SOL    HW111696   6.038   7.591   6.631
69933SOL    HW211697   6.083   7.446   6.635
69934SOL     OW11698  10.109   2.673   3.515
69934SOL    HW111699  10.187   2.727   3.528
69934SOL    HW211700  10.141   2.592   3.476
69935SOL     OW11701  13.905   3.639   5.997
69935SOL    HW111702  13.980   3.685   5.959
69935SOL    HW211703  13.851   3.708   6.036
69936SOL     OW11704   4.542   8.459   3.296
69936SOL    HW111705   4.637   8.467   3.293
69936SOL    HW211706   4.515   8.461   3.204
69937SOL     OW11707   3.350   0.716  12.191
69937SOL    HW111708   3.437   0.743  12.219
69937SOL    HW211709   3.366   0.639  12.135
69938SOL     OW11710  14.310  13.182  10.890
69938SOL    HW111711  14.218  13.164  10.908
69938SOL    HW211712  14.322  13.275  10.910
69939SOL     OW11713   5.295   2.525   3.179
69939SOL    HW111714   5.342   2.520   3.262
69939SOL    HW211715   5.317   2.443   3.134
69940SOL     OW11716   2.454   7.847   8.791
69940SOL    HW111717   2.431   7.865   8.700
69940SOL    HW211718   2.512   7.771   8.787
69941SOL     OW11719   3.227  10.671  11.544
69941SOL    HW111720   3.257  10.587  11.509
69941SOL    HW211721   3.285  10.688  11.618
69942SOL     OW11722   3.646   9.986   2.781
69942SOL    HW111723   3.656   9.908   2.836
69942SOL    HW211724   3.589  10.044   2.830
69943SOL     OW11725   1.744  14.396   3.144
69943SOL    HW111726   1.737  14.350   3.227
69943SOL    HW211727   1.663  14.373   3.098
69944SOL     OW11728  13.268  14.288  12.880
69944SOL    HW111729  13.298  14.366  12.927
69944SOL    HW211730  13.224  14.323  12.802
69945SOL     OW11731   2.140   7.980   9.283
69945SOL    HW111732   2.169   7.979   9.374
69945SOL    HW211733   2.202   7.924   9.237
69946SOL     OW11734  11.279   2.907   7.605
69946SOL    HW111735  11.257   2.968   7.534
69946SOL    HW211736  11.219   2.834   7.592
69947SOL     OW11737  12.319   5.102  10.105
69947SOL    HW111738  12.304   5.179  10.161
69947SOL    HW211739  12.256   5.113  10.033
69948SOL     OW11740   5.991  13.481   8.763
69948SOL    HW111741   6.064  13.543   8.765
69948SOL    HW211742   5.967  13.476   8.671
69949SOL     OW11743   8.136   7.915  14.418
69949SOL    HW111744   8.170   7.829  14.393
69949SOL    HW211745   8.197   7.977  14.378
69950SOL     OW11746   6.634  12.906  11.422
69950SOL    HW111747   6.605  12.900  11.330
69950SOL    HW211748   6.580  12.843  11.468
69951SOL     OW11749   0.331   9.767   1.923
69951SOL    HW111750   0.250   9.747   1.877
69951SOL    HW211751   0.398   9.720   1.874
69952SOL     OW11752   4.821   5.483   7.326
69952SOL    HW111753   4.851   5.415   7.266
69952SOL    HW211754   4.751   5.441   7.376
69953SOL     OW11755   9.429   7.410   7.859
69953SOL    HW111756   9.453   7.351   7.930
69953SOL    HW211757   9.512   7.435   7.818
69954SOL     OW11758  14.442   9.590   0.459
69954SOL    HW111759  14.534   9.614   0.459
69954SOL    HW211760  14.434   9.522   0.525
69955SOL     OW11761  10.613   8.650   0.726
69955SOL    HW111762  10.527   8.662   0.685
69955SOL    HW211763  10.633   8.557   0.713
69956SOL     OW11764   3.260   0.373   2.597
69956SOL    HW111765   3.333   0.362   2.657
69956SOL    HW211766   3.238   0.284   2.569
69957SOL     OW11767   8.320   6.783   5.893
69957SOL    HW111768   8.243   6.754   5.940
69957SOL    HW211769   8.387   6.718   5.914
69958SOL     OW11770  11.244   0.487   0.554
69958SOL    HW111771  11.177   0.551   0.529
69958SOL    HW211772  11.210   0.403   0.525
69959SOL     OW11773   0.951  12.782   7.861
69959SOL    HW111774   0.936  12.690   7.840
69959SOL    HW211775   0.894  12.799   7.936
69960SOL     OW11776   2.214   0.649   1.273
69960SOL    HW111777   2.137   0.610   1.232
69960SOL    HW211778   2.261   0.692   1.201
69961SOL     OW11779   2.051  13.313  10.083
69961SOL    HW111780   2.098  13.317   9.999
69961SOL    HW211781   2.083  13.233  10.124
69962SOL     OW11782   2.185   8.143   2.571
69962SOL    HW111783   2.214   8.052   2.576
69962SOL    HW211784   2.183   8.173   2.662
69963SOL     OW11785   8.977   5.023   1.662
69963SOL    HW111786   8.950   5.101   1.614
69963SOL    HW211787   9.020   5.057   1.741
69964SOL     OW11788   6.743   0.004   0.346
69964SOL    HW111789   6.653  14.845   0.349
69964SOL    HW211790   6.751   0.047   0.261
69965SOL     OW11791   5.251   1.032   2.745
69965SOL    HW111792   5.323   1.016   2.684
69965SOL    HW211793   5.225   1.123   2.729
69966SOL     OW11794   1.328  14.837   4.588
69966SOL    HW111795   1.245   0.004   4.613
69966SOL    HW211796   1.377  14.829   4.670
69967SOL     OW11797  14.639  14.503  10.908
69967SOL    HW111798  14.590  14.428  10.873
69967SOL    HW211799  14.580  14.543  10.972
69968SOL     OW11800   5.516  13.820   0.109
69968SOL    HW111801   5.503  13.904   0.067
69968SOL    HW211802   5.576  13.838   0.182
69969SOL     OW11803  14.557   8.981  13.833
69969SOL    HW111804  14.625   8.916  13.814
69969SOL    HW211805  14.474   8.935  13.818
69970SOL     OW11806   9.421   1.439   0.979
69970SOL    HW111807   9.515   1.444   0.962
69970SOL    HW211808   9.395   1.355   0.942
69971SOL     OW11809   2.933   1.388   3.955
69971SOL    HW111810   3.006   1.449   3.956
69971SOL    HW211811   2.970   1.306   3.923
69972SOL     OW11812  10.838   4.406   6.290
69972SOL    HW111813  10.819   4.313   6.303
69972SOL    HW211814  10.786   4.430   6.213
69973SOL     OW11815   4.081  10.678   8.801
69973SOL    HW111816   4.073  10.583   8.794
69973SOL    HW211817   4.061  10.710   8.713
69974SOL     OW11818   0.941  12.441  11.885
69974SOL    HW111819   0.890  12.509  11.841
69974SOL    HW211820   0.905  12.359  11.853
69975SOL     OW11821   3.414   3.411  12.910
69975SOL    HW111822   3.441   3.432  12.999
69975SOL    HW211823   3.491   3.427  12.857
69976SOL     OW11824  13.251  10.096   8.805
69976SOL    HW111825  13.300  10.148   8.742
69976SOL    HW211826  13.161  10.095   8.770
69977SOL     OW11827   1.433   0.154   9.187
69977SOL    HW111828   1.347   0.161   9.145
69977SOL    HW211829   1.446   0.060   9.201
69978SOL     OW11830   0.046  12.513   0.053
69978SOL    HW111831  14.861  12.484  14.855
69978SOL    HW211832  14.862  12.568   0.109
69979SOL     OW11833   2.388   2.751  12.052
69979SOL    HW111834   2.474   2.793  12.058
69979SOL    HW211835   2.326   2.824  12.058
69980SOL     OW11836  13.305   9.648   4.380
69980SOL    HW111837  13.374   9.687   4.326
69980SOL    HW211838  13.351   9.617   4.458
69981SOL     OW11839   5.060   7.245   8.987
69981SOL    HW111840   5.034   7.303   9.058
69981SOL    HW211841   5.144   7.208   9.015
69982SOL     OW11842   0.385   9.550   8.650
69982SOL    HW111843   0.304   9.509   8.620
69982SOL    HW211844   0.442   9.477   8.672
69983SOL     OW11845   1.911   9.837   5.786
69983SOL    HW111846   1.997   9.800   5.771
69983SOL    HW211847   1.890   9.812   5.876
69984SOL     OW11848   8.072   8.788   9.603
69984SOL    HW111849   7.988   8.809   9.642
69984SOL    HW211850   8.073   8.692   9.596
69985SOL     OW11851   2.259  12.539   6.056
69985SOL    HW111852   2.242  12.584   5.973
69985SOL    HW211853   2.355  12.538   6.064
69986SOL     OW11854  14.567   8.072   9.160
69986SOL    HW111855  14.524   8.070   9.074
69986SOL    HW211856  14.649   8.024   9.147
69987SOL     OW11857   1.312  14.003   1.189
69987SOL    HW111858   1.357  14.071   1.139
69987SOL    HW211859   1.382  13.952   1.229
69988SOL     OW11860  13.804   9.636   2.061
69988SOL    HW111861  13.821   9.625   2.154
69988SOL    HW211862  13.860   9.708   2.034
69989SOL     OW11863  11.506  10.120   7.731
69989SOL    HW111864  11.499  10.092   7.640
69989SOL    HW211865  11.438  10.071   7.777
69990SOL     OW11866   6.234   0.648   9.899
69990SOL    HW111867   6.302   0.580   9.901
69990SOL    HW211868   6.281   0.727   9.872
69991SOL     OW11869   2.914   5.303   5.653
69991SOL    HW111870   2.909   5.208   5.635
69991SOL    HW211871   2.891   5.311   5.745
69992SOL     OW11872   3.048  10.363  11.074
69992SOL    HW111873   2.964  10.354  11.029
69992SOL    HW211874   3.079  10.274  11.087
69993SOL     OW11875   7.807   8.184   7.994
69993SOL    HW111876   7.869   8.154   8.062
69993SOL    HW211877   7.728   8.133   8.010
69994SOL     OW11878   9.084  13.417   6.969
69994SOL    HW111879   9.052  13.382   7.052
69994SOL    HW211880   9.138  13.492   6.993
69995SOL     OW11881  12.861   4.933   3.153
69995SOL    HW111882  12.796   4.863   3.156
69995SOL    HW211883  12.815   5.008   3.115
69996SOL     OW11884   4.089   8.744  14.325
69996SOL    HW111885   4.061   8.670  14.271
69996SOL    HW211886   4.166   8.779  14.280
69997SOL     OW11887   6.344  14.060   6.002
69997SOL    HW111888   6.334  14.040   6.095
69997SOL    HW211889   6.307  14.148   5.992
69998SOL     OW11890  10.853   0.295   6.940
69998SOL    HW111891  10.876   0.211   6.900
69998SOL    HW211892  10.855   0.278   7.034
69999SOL     OW11893  14.451   5.101  10.537
69999SOL    HW111894  14.356   5.096  10.547
69999SOL    HW211895  14.485   5.085  10.626
70000SOL     OW11896   8.536  14.590   6.746
70000SOL    HW111897   8.592  14.516   6.771
70000SOL    HW211898   8.573  14.664   6.795
70001SOL     OW11899  10.304   0.819   6.319
70001SOL    HW111900  10.378   0.763   6.338
70001SOL    HW211901  10.284   0.803   6.227
70002SOL     OW11902   9.981  13.161   6.061
70002SOL    HW111903  10.002  13.090   6.122
70002SOL    HW211904  10.020  13.134   5.978
70003SOL     OW11905   1.682   1.328   0.803
70003SOL    HW111906   1.759   1.312   0.748
70003SOL    HW211907   1.718   1.344   0.890
70004SOL     OW11908   9.527  14.229   2.749
70004SOL    HW111909   9.497  14.155   2.696
70004SOL    HW211910   9.617  14.207   2.772
70005SOL     OW11911   5.275   6.058  11.924
70005SOL    HW111912   5.262   6.100  12.009
70005SOL    HW211913   5.214   6.103  11.866
70006SOL     OW11914   6.797   3.631   4.252
70006SOL    HW111915   6.833   3.619   4.340
70006SOL    HW211916   6.737   3.705   4.261
70007SOL     OW11917   9.893   3.935  12.141
70007SOL    HW111918   9.848   3.852  12.130
70007SOL    HW211919   9.975   3.925  12.093
70008SOL     OW11920   4.993   5.731   4.316
70008SOL    HW111921   4.953   5.807   4.274
70008SOL    HW211922   5.074   5.765   4.354
70009SOL     OW11923   6.579   1.782  12.785
70009SOL    HW111924   6.637   1.794  12.861
70009SOL    HW211925   6.507   1.843  12.800
70010SOL     OW11926  13.225   1.703   7.601
70010SOL    HW111927  13.255   1.620   7.638
70010SOL    HW211928  13.279   1.769   7.645
70011SOL     OW11929  13.028  10.028  12.465
70011SOL    HW111930  12.990   9.950  12.503
70011SOL    HW211931  12.986  10.101  12.511
70012SOL     OW11932  10.223   2.127  13.385
70012SOL    HW111933  10.204   2.218  13.365
70012SOL    HW211934  10.210   2.081  13.302
70013SOL     OW11935   7.196   7.574  13.713
70013SOL    HW111936   7.246   7.553  13.634
70013SOL    HW211937   7.118   7.518  13.707
70014SOL     OW11938   6.186   9.337  10.284
70014SOL    HW111939   6.123   9.389  10.335
70014SOL    HW211940   6.134   9.265  10.248
70015SOL     OW11941   5.077   4.941  13.788
70015SOL    HW111942   5.095   4.999  13.714
70015SOL    HW211943   5.151   4.879  13.789
70016SOL     OW11944   4.924   0.093   4.522
70016SOL    HW111945   4.986   0.128   4.458
70016SOL    HW211946   4.954   0.004   4.538
70017SOL     OW11947   2.401  14.788  14.152
70017SOL    HW111948   2.316  14.750  14.132
70017SOL    HW211949   2.383   0.008  14.168
70018SOL     OW11950   3.068   3.071   4.723
70018SOL    HW111951   3.117   2.993   4.700
70018SOL    HW211952   3.134   3.137   4.742
70019SOL     OW11953  14.411  14.715   8.732
70019SOL    HW111954  14.385  14.635   8.687
70019SOL    HW211955  14.484  14.688   8.788
70020SOL     OW11956  10.630  11.199   4.744
70020SOL    HW111957  10.696  11.208   4.813
70020SOL    HW211958  10.668  11.244   4.669
70021SOL     OW11959  10.130   2.351   1.520
70021SOL    HW111960  10.080   2.424   1.486
70021SOL    HW211961  10.075   2.274   1.505
70022SOL     OW11962  10.883   3.683  10.305
70022SOL    HW111963  10.830   3.760  10.281
70022SOL    HW211964  10.898   3.638  10.222
70023SOL     OW11965  14.608  12.915   7.248
70023SOL    HW111966  14.643  12.968   7.320
70023SOL    HW211967  14.626  12.825   7.272
70024SOL     OW11968   6.699   4.384   9.574
70024SOL    HW111969   6.646   4.334   9.512
70024SOL    HW211970   6.770   4.421   9.521
70025SOL     OW11971   7.504  10.373   4.014
70025SOL    HW111972   7.491  10.349   4.105
70025SOL    HW211973   7.416  10.388   3.980
70026SOL     OW11974  10.909  11.578  13.086
70026SOL    HW111975  10.997  11.544  13.070
70026SOL    HW211976  10.878  11.606  13.000
70027SOL     OW11977   0.833   0.593   4.696
70027SOL    HW111978   0.762   0.532   4.674
70027SOL    HW211979   0.843   0.585   4.791
70028SOL     OW11980   8.830   2.356  12.735
70028SOL    HW111981   8.768   2.416  12.693
70028SOL    HW211982   8.894   2.336  12.667
70029SOL     OW11983  11.121  13.974   3.136
70029SOL    HW111984  11.192  14.025   3.173
70029SOL    HW211985  11.160  13.889   3.117
70030SOL     OW11986  13.887  13.151   8.894
70030SOL    HW111987  13.939  13.231   8.889
70030SOL    HW211988  13.820  13.170   8.961
70031SOL     OW11989   6.006  13.965  14.520
70031SOL    HW111990   6.054  13.884  14.535
70031SOL    HW211991   5.935  13.940  14.461
70032SOL     OW11992  13.569   1.392   4.204
70032SOL    HW111993  13.488   1.415   4.249
70032SOL    HW211994  13.628   1.365   4.274
70033SOL     OW11995  11.570   1.470   3.904
70033SOL    HW111996  11.629   1.438   3.835
70033SOL    HW211997  11.482   1.458   3.868
70034SOL     OW11998  12.316   4.286   9.879
70034SOL    HW111999  12.408   4.269   9.863
70034SOL    HW212000  12.275   4.199   9.876
70035SOL     OW12001   0.214   2.792   3.563
70035SOL    HW112002   0.290   2.763   3.514
70035SOL    HW212003   0.139   2.755   3.516
70036SOL     OW12004  11.596   9.088  12.720
70036SOL    HW112005  11.617   9.069  12.628
70036SOL    HW212006  11.590   9.003  12.762
70037SOL     OW12007   1.020   4.435   2.383
70037SOL    HW112008   1.096   4.415   2.437
70037SOL    HW212009   1.055   4.483   2.308
70038SOL     OW12010  10.406   4.136   4.348
70038SOL    HW112011  10.366   4.144   4.262
70038SOL    HW212012  10.334   4.150   4.410
70039SOL     OW12013  14.666  10.039  11.410
70039SOL    HW112014  14.633  10.043  11.500
70039SOL    HW212015  14.724   9.962  11.409
70040SOL     OW12016   4.665   6.212  12.523
70040SOL    HW112017   4.616   6.242  12.599
70040SOL    HW212018   4.611   6.142  12.486
70041SOL     OW12019   1.537   1.394   2.835
70041SOL    HW112020   1.512   1.465   2.776
70041SOL    HW212021   1.489   1.411   2.916
70042SOL     OW12022   1.400   5.963   4.523
70042SOL    HW112023   1.434   5.968   4.434
70042SOL    HW212024   1.422   6.048   4.561
70043SOL     OW12025  12.327   5.375   1.551
70043SOL    HW112026  12.310   5.298   1.605
70043SOL    HW212027  12.423   5.384   1.552
70044SOL     OW12028   1.432   9.094  14.099
70044SOL    HW112029   1.424   9.183  14.067
70044SOL    HW212030   1.470   9.104  14.187
70045SOL     OW12031   9.446   1.332   1.442
70045SOL    HW112032   9.410   1.287   1.519
70045SOL    HW212033   9.413   1.422   1.449
70046SOL     OW12034   4.302   7.641   8.215
70046SOL    HW112035   4.396   7.628   8.230
70046SOL    HW212036   4.297   7.709   8.148
70047SOL     OW12037  12.958  10.216   0.282
70047SOL    HW112038  12.864  10.202   0.269
70047SOL    HW212039  12.984  10.146   0.342
70048SOL     OW12040   1.649   0.751   8.006
70048SOL    HW112041   1.586   0.802   8.056
70048SOL    HW212042   1.609   0.741   7.920
70049SOL     OW12043   2.781   5.145   8.122
70049SOL    HW112044   2.737   5.062   8.102
70049SOL    HW212045   2.767   5.157   8.216
70050SOL     OW12046   4.021   5.224   5.762
70050SOL    HW112047   4.026   5.184   5.849
70050SOL    HW212048   3.956   5.294   5.771
70051SOL     OW12049  14.776   9.623   1.472
70051SOL    HW112050  14.809   9.707   1.505
70051SOL    HW212051  14.685   9.641   1.447
70052SOL     OW12052   2.377   7.933   7.046
70052SOL    HW112053   2.459   7.905   7.005
70052SOL    HW212054   2.374   7.886   7.129
70053SOL     OW12055  10.949   3.152   8.916
70053SOL    HW112056  10.953   3.239   8.957
70053SOL    HW212057  10.869   3.113   8.952
70054SOL     OW12058  10.895   9.726   1.128
70054SOL    HW112059  10.968   9.672   1.097
70054SOL    HW212060  10.823   9.664   1.142
70055SOL     OW12061  13.555   2.386   0.501
70055SOL    HW112062  13.512   2.301   0.497
70055SOL    HW212063  13.485   2.449   0.485
70056SOL     OW12064   0.319  12.815   8.295
70056SOL    HW112065   0.307  12.756   8.370
70056SOL    HW212066   0.306  12.759   8.218
70057SOL     OW12067   8.432   8.202   4.511
70057SOL    HW112068   8.437   8.120   4.560
70057SOL    HW212069   8.445   8.177   4.420
70058SOL     OW12070  10.555  13.448   0.616
70058SOL    HW112071  10.563  13.539   0.642
70058SOL    HW212072  10.562  13.398   0.697
70059SOL     OW12073   7.751  11.382   0.135
70059SOL    HW112074   7.691  11.428   0.193
70059SOL    HW212075   7.785  11.310   0.188
70060SOL     OW12076   1.254   2.624  13.794
70060SOL    HW112077   1.175   2.671  13.768
70060SOL    HW212078   1.326   2.684  13.771
70061SOL     OW12079  10.858   3.592   9.542
70061SOL    HW112080  10.875   3.502   9.570
70061SOL    HW212081  10.763   3.599   9.540
70062SOL     OW12082  13.226   0.087  11.636
70062SOL    HW112083  13.278   0.039  11.571
70062SOL    HW212084  13.139   0.048  11.630
70063SOL     OW12085  13.297  13.424   0.231
70063SOL    HW112086  13.355  13.355   0.264
70063SOL    HW212087  13.352  13.476   0.173
70064SOL     OW12088  10.714  12.778  12.244
70064SOL    HW112089  10.650  12.710  12.224
70064SOL    HW212090  10.723  12.775  12.340
70065SOL     OW12091   5.739   6.375  14.412
70065SOL    HW112092   5.798   6.322  14.358
70065SOL    HW212093   5.720   6.320  14.488
70066SOL     OW12094   2.858   1.327   8.695
70066SOL    HW112095   2.770   1.364   8.684
70066SOL    HW212096   2.910   1.368   8.626
70067SOL     OW12097   5.405   5.213   3.341
70067SOL    HW112098   5.416   5.128   3.299
70067SOL    HW212099   5.483   5.223   3.395
70068SOL     OW12100  14.421  10.600  11.935
70068SOL    HW112101  14.345  10.585  11.878
70068SOL    HW212102  14.383  10.622  12.020
70069SOL     OW12103   0.428   5.774   2.155
70069SOL    HW112104   0.366   5.758   2.227
70069SOL    HW212105   0.372   5.791   2.080
70070SOL     OW12106   5.482  13.879  14.252
70070SOL    HW112107   5.411  13.941  14.266
70070SOL    HW212108   5.479  13.820  14.328
70071SOL     OW12109  14.319   4.223  14.685
70071SOL    HW112110  14.297   4.152  14.625
70071SOL    HW212111  14.329   4.181  14.770
70072SOL     OW12112   6.240  14.168   1.298
70072SOL    HW112113   6.243  14.136   1.388
70072SOL    HW212114   6.307  14.118   1.252
70073SOL     OW12115  12.233   2.802   5.195
70073SOL    HW112116  12.169   2.732   5.185
70073SOL    HW212117  12.182   2.880   5.217
70074SOL     OW12118  13.329  11.175   0.034
70074SOL    HW112119  13.262  11.154  14.842
70074SOL    HW212120  13.411  11.144  14.867
70075SOL     OW12121   9.035  11.339   7.981
70075SOL    HW112122   9.125  11.321   7.956
70075SOL    HW212123   8.984  11.268   7.942
70076SOL     OW12124  11.666   3.771  14.720
70076SOL    HW112125  11.651   3.679  14.696
70076SOL    HW212126  11.582   3.814  14.704
70077SOL     OW12127  11.101   2.826   5.296
70077SOL    HW112128  11.025   2.778   5.263
70077SOL    HW212129  11.175   2.767   5.280
70078SOL     OW12130   4.851  13.453  12.600
70078SOL    HW112131   4.928  13.445  12.543
70078SOL    HW212132   4.783  13.404  12.556
70079SOL     OW12133   6.440   3.740   3.639
70079SOL    HW112134   6.501   3.759   3.568
70079SOL    HW212135   6.368   3.803   3.627
70080SOL     OW12136  14.789   5.559  13.761
70080SOL    HW112137  14.749   5.623  13.820
70080SOL    HW212138  14.797   5.480  13.813
70081SOL     OW12139   2.570   5.513   9.361
70081SOL    HW112140   2.618   5.529   9.443
70081SOL    HW212141   2.573   5.418   9.351
70082SOL     OW12142   9.061   4.601   7.850
70082SOL    HW112143   9.060   4.558   7.936
70082SOL    HW212144   9.108   4.683   7.866
70083SOL     OW12145  12.056  12.928   7.988
70083SOL    HW112146  11.993  12.863   7.956
70083SOL    HW212147  12.124  12.877   8.031
70084SOL     OW12148   8.509  10.777   5.517
70084SOL    HW112149   8.458  10.809   5.442
70084SOL    HW212150   8.454  10.794   5.593
70085SOL     OW12151   0.085   6.803   2.886
70085SOL    HW112152   0.139   6.866   2.837
70085SOL    HW212153  14.870   6.810   2.847
70086SOL     OW12154  13.616  14.286   3.662
70086SOL    HW112155  13.548  14.229   3.696
70086SOL    HW212156  13.696  14.259   3.707
70087SOL     OW12157   4.605   0.907   1.088
70087SOL    HW112158   4.512   0.887   1.079
70087SOL    HW212159   4.646   0.868   1.012
70088SOL     OW12160   7.138   3.690   4.285
70088SOL    HW112161   7.191   3.766   4.260
70088SOL    HW212162   7.118   3.704   4.377
70089SOL     OW12163  13.963  12.838   5.197
70089SOL    HW112164  13.964  12.908   5.132
70089SOL    HW212165  13.979  12.882   5.280
70090SOL     OW12166   5.703  10.479   3.771
70090SOL    HW112167   5.737  10.402   3.815
70090SOL    HW212168   5.628  10.448   3.720
70091SOL     OW12169   8.013  10.420   2.161
70091SOL    HW112170   7.921  10.418   2.136
70091SOL    HW212171   8.032  10.329   2.186
70092SOL     OW12172   5.201   0.933   4.616
70092SOL    HW112173   5.116   0.968   4.592
70092SOL    HW212174   5.182   0.858   4.673
70093SOL     OW12175   8.994   6.434   6.694
70093SOL    HW112176   8.919   6.462   6.746
70093SOL    HW212177   9.030   6.515   6.659
70094SOL     OW12178   5.134   2.542  14.561
70094SOL    HW112179   5.229   2.532  14.560
70094SOL    HW212180   5.119   2.636  14.572
70095SOL     OW12181   0.834   4.491  13.930
70095SOL    HW112182   0.750   4.499  13.977
70095SOL    HW212183   0.828   4.556  13.860
70096SOL     OW12184   7.430  11.888   0.060
70096SOL    HW112185   7.504  11.835   0.089
70096SOL    HW212186   7.468  11.950  14.870
70097SOL     OW12187   6.584  12.358   2.937
70097SOL    HW112188   6.587  12.448   2.903
70097SOL    HW212189   6.581  12.303   2.859
70098SOL     OW12190  14.735  10.699   2.577
70098SOL    HW112191  14.697  10.786   2.589
70098SOL    HW212192  14.792  10.687   2.653
70099SOL     OW12193   3.571   7.854   1.536
70099SOL    HW112194   3.622   7.873   1.457
70099SOL    HW212195   3.579   7.759   1.546
70100SOL     OW12196   6.433   9.145  12.994
70100SOL    HW112197   6.515   9.160  13.041
70100SOL    HW212198   6.373   9.111  13.061
70101SOL     OW12199   3.467   9.313   2.068
70101SOL    HW112200   3.530   9.252   2.106
70101SOL    HW212201   3.416   9.345   2.143
70102SOL     OW12202   9.965  13.472  14.404
70102SOL    HW112203   9.903  13.417  14.452
70102SOL    HW212204  10.051  13.437  14.428
70103SOL     OW12205   7.067   7.819   1.665
70103SOL    HW112206   7.151   7.776   1.686
70103SOL    HW212207   7.011   7.747   1.635
70104SOL     OW12208  13.468  10.671   6.268
70104SOL    HW112209  13.400  10.636   6.326
70104SOL    HW212210  13.420  10.717   6.200
70105SOL     OW12211   9.317   0.366   4.283
70105SOL    HW112212   9.412   0.374   4.274
70105SOL    HW212213   9.287   0.455   4.302
70106SOL     OW12214  13.564   0.348  13.142
70106SOL    HW112215  13.608   0.428  13.111
70106SOL    HW212216  13.473   0.375  13.155
70107SOL     OW12217   2.943   5.143  12.834
70107SOL    HW112218   2.963   5.199  12.759
70107SOL    HW212219   2.997   5.177  12.905
70108SOL     OW12220   2.613  11.928   2.051
70108SOL    HW112221   2.557  11.924   2.128
70108SOL    HW212222   2.579  11.860   1.993
70109SOL     OW12223   4.514   5.597  13.009
70109SOL    HW112224   4.433   5.647  13.001
70109SOL    HW212225   4.536   5.572  12.920
70110SOL     OW12226  12.555   1.684  13.656
70110SOL    HW112227  12.501   1.613  13.622
70110SOL    HW212228  12.519   1.763  13.618
70111SOL     OW12229  12.126   7.435  11.871
70111SOL    HW112230  12.185   7.505  11.844
70111SOL    HW212231  12.124   7.375  11.797
70112SOL     OW12232   4.855  11.387   1.033
70112SOL    HW112233   4.798  11.425   1.101
70112SOL    HW212234   4.799  11.380   0.956
70113SOL     OW12235   9.729  12.630  11.901
70113SOL    HW112236   9.722  12.535  11.888
70113SOL    HW212237   9.705  12.643  11.992
70114SOL     OW12238  13.538  11.263  11.823
70114SOL    HW112239  13.538  11.185  11.769
70114SOL    HW212240  13.475  11.244  11.893
70115SOL     OW12241   5.840   8.956   5.736
70115SOL    HW112242   5.829   8.886   5.671
70115SOL    HW212243   5.845   9.036   5.684
70116SOL     OW12244   6.902   0.501  11.910
70116SOL    HW112245   6.980   0.517  11.962
70116SOL    HW212246   6.830   0.538  11.962
70117SOL     OW12247  10.553   4.826  13.372
70117SOL    HW112248  10.480   4.827  13.310
70117SOL    HW212249  10.626   4.865  13.324
70118SOL     OW12250   6.035   5.100   3.208
70118SOL    HW112251   6.002   5.139   3.127
70118SOL    HW212252   5.985   5.143   3.277
70119SOL     OW12253   1.917   7.233  14.859
70119SOL    HW112254   1.908   7.290   0.063
70119SOL    HW212255   1.833   7.188  14.852
70120SOL     OW12256   4.113   5.335   1.345
70120SOL    HW112257   4.152   5.306   1.263
70120SOL    HW212258   4.186   5.377   1.392
70121SOL     OW12259  10.930   8.316   4.096
70121SOL    HW112260  10.879   8.366   4.159
70121SOL    HW212261  10.985   8.259   4.149
70122SOL     OW12262   3.386   3.878   9.355
70122SOL    HW112263   3.453   3.943   9.377
70122SOL    HW212264   3.436   3.804   9.320
70123SOL     OW12265   1.294   6.228   0.018
70123SOL    HW112266   1.335   6.302   0.063
70123SOL    HW212267   1.219   6.266  14.845
70124SOL     OW12268  10.614  14.433  14.261
70124SOL    HW112269  10.601  14.404  14.170
70124SOL    HW212270  10.536  14.401  14.307
70125SOL     OW12271   7.071   5.549   8.305
70125SOL    HW112272   7.003   5.524   8.368
70125SOL    HW212273   7.032   5.622   8.256
70126SOL     OW12274   2.212   1.077   2.829
70126SOL    HW112275   2.237   1.015   2.897
70126SOL    HW212276   2.176   1.152   2.876
70127SOL     OW12277   3.025  12.920   7.260
70127SOL    HW112278   3.079  12.997   7.240
70127SOL    HW212279   2.941  12.956   7.288
70128SOL     OW12280   9.248  14.546   1.040
70128SOL    HW112281   9.177  14.533   0.977
70128SOL    HW212282   9.219  14.619   1.095
70129SOL     OW12283  13.151   1.028   6.714
70129SOL    HW112284  13.134   1.110   6.759
70129SOL    HW212285  13.242   1.035   6.685
70130SOL     OW12286  12.872   8.350   3.360
70130SOL    HW112287  12.870   8.432   3.311
70130SOL    HW212288  12.830   8.371   3.443
70131SOL     OW12289   3.278   3.084   1.678
70131SOL    HW112290   3.203   3.025   1.689
70131SOL    HW212291   3.267   3.150   1.746
70132SOL     OW12292  11.496   1.155  14.703
70132SOL    HW112293  11.491   1.212  14.780
70132SOL    HW212294  11.406   1.151  14.671
70133SOL     OW12295  14.501  13.103   0.491
70133SOL    HW112296  14.427  13.158   0.463
70133SOL    HW212297  14.553  13.091   0.412
70134SOL     OW12298   5.577  10.988   5.881
70134SOL    HW112299   5.616  10.988   5.793
70134SOL    HW212300   5.528  10.906   5.886
70135SOL     OW12301  10.229   5.856   8.927
70135SOL    HW112302  10.173   5.932   8.913
70135SOL    HW212303  10.209   5.797   8.854
70136SOL     OW12304   8.114   8.032   9.317
70136SOL    HW112305   8.122   8.044   9.222
70136SOL    HW212306   8.044   7.968   9.327
70137SOL     OW12307  10.226   4.740   3.951
70137SOL    HW112308  10.139   4.764   3.919
70137SOL    HW212309  10.273   4.713   3.873
70138SOL     OW12310   9.739   3.054  11.959
70138SOL    HW112311   9.675   3.001  11.912
70138SOL    HW212312   9.775   3.112  11.892
70139SOL     OW12313  11.835  12.985   9.071
70139SOL    HW112314  11.787  12.993   9.153
70139SOL    HW212315  11.767  12.967   9.005
70140SOL     OW12316  10.182   3.240  10.701
70140SOL    HW112317  10.164   3.171  10.765
70140SOL    HW212318  10.273   3.226  10.676
70141SOL     OW12319   4.734   0.654   4.304
70141SOL    HW112320   4.731   0.750   4.307
70141SOL    HW212321   4.720   0.626   4.394
70142SOL     OW12322  14.222   7.579  14.226
70142SOL    HW112323  14.267   7.606  14.145
70142SOL    HW212324  14.156   7.516  14.196
70143SOL     OW12325   8.923   3.419  14.674
70143SOL    HW112326   8.869   3.340  14.677
70143SOL    HW212327   9.010   3.387  14.651
70144SOL     OW12328  13.710  13.793   2.519
70144SOL    HW112329  13.748  13.754   2.440
70144SOL    HW212330  13.684  13.718   2.573
70145SOL     OW12331   1.056   4.650   5.480
70145SOL    HW112332   1.033   4.704   5.405
70145SOL    HW212333   1.099   4.710   5.541
70146SOL     OW12334   8.243   4.249  11.056
70146SOL    HW112335   8.177   4.246  10.987
70146SOL    HW212336   8.206   4.197  11.127
70147SOL     OW12337  12.929   0.323   0.145
70147SOL    HW112338  12.929   0.378   0.066
70147SOL    HW212339  12.862   0.362   0.201
70148SOL     OW12340   4.467   4.619   8.146
70148SOL    HW112341   4.401   4.651   8.208
70148SOL    HW212342   4.447   4.665   8.065
70149SOL     OW12343   8.715   8.203  13.842
70149SOL    HW112344   8.624   8.231  13.837
70149SOL    HW212345   8.733   8.194  13.935
70150SOL     OW12346   8.647   3.724  12.024
70150SOL    HW112347   8.607   3.726  11.937
70150SOL    HW212348   8.576   3.694  12.082
70151SOL     OW12349   0.726   5.816  12.494
70151SOL    HW112350   0.796   5.759  12.526
70151SOL    HW212351   0.770   5.898  12.474
70152SOL     OW12352  14.500   0.894   2.384
70152SOL    HW112353  14.528   0.831   2.450
70152SOL    HW212354  14.536   0.861   2.302
70153SOL     OW12355   7.591  13.765   8.416
70153SOL    HW112356   7.631  13.736   8.498
70153SOL    HW212357   7.630  13.850   8.399
70154SOL     OW12358   5.580   2.533  11.666
70154SOL    HW112359   5.497   2.579  11.657
70154SOL    HW212360   5.605   2.545  11.757
70155SOL     OW12361  11.078  10.279  12.198
70155SOL    HW112362  11.043  10.191  12.212
70155SOL    HW212363  11.103  10.280  12.105
70156SOL     OW12364  12.462   1.237  12.913
70156SOL    HW112365  12.492   1.214  13.001
70156SOL    HW212366  12.496   1.325  12.899
70157SOL     OW12367   4.300  10.873   9.794
70157SOL    HW112368   4.374  10.830   9.751
70157SOL    HW212369   4.284  10.820   9.872
70158SOL     OW12370   9.939   5.753   6.579
70158SOL    HW112371   9.970   5.778   6.666
70158SOL    HW212372   9.874   5.819   6.556
70159SOL     OW12373   5.877   4.052   1.017
70159SOL    HW112374   5.894   4.015   0.931
70159SOL    HW212375   5.817   4.125   1.001
70160SOL     OW12376   4.657  12.430  11.297
70160SOL    HW112377   4.691  12.392  11.216
70160SOL    HW212378   4.632  12.519  11.273
70161SOL     OW12379  11.793  14.061   9.164
70161SOL    HW112380  11.758  13.989   9.216
70161SOL    HW212381  11.764  14.043   9.075
70162SOL     OW12382   4.468   0.606   5.769
70162SOL    HW112383   4.519   0.650   5.837
70162SOL    HW212384   4.471   0.514   5.793
70163SOL     OW12385   9.065  10.328  11.677
70163SOL    HW112386   9.042  10.311  11.585
70163SOL    HW212387   9.068  10.241  11.717
70164SOL     OW12388   4.129   7.778  12.762
70164SOL    HW112389   4.042   7.762  12.724
70164SOL    HW212390   4.187   7.781  12.686
70165SOL     OW12391  14.458   4.022  12.637
70165SOL    HW112392  14.449   4.115  12.654
70165SOL    HW212393  14.380   3.999  12.586
70166SOL     OW12394   2.022   9.157   0.278
70166SOL    HW112395   2.024   9.110   0.361
70166SOL    HW212396   2.008   9.088   0.213
70167SOL     OW12397   1.356  13.826   4.943
70167SOL    HW112398   1.348  13.885   4.868
70167SOL    HW212399   1.445  13.841   4.976
70168SOL     OW12400   0.538  11.648  12.221
70168SOL    HW112401   0.554  11.698  12.301
70168SOL    HW212402   0.578  11.562  12.238
70169SOL     OW12403   0.818  11.173   8.294
70169SOL    HW112404   0.793  11.110   8.227
70169SOL    HW212405   0.742  11.230   8.303
70170SOL     OW12406   1.671  10.289   0.036
70170SOL    HW112407   1.679  10.194   0.032
70170SOL    HW212408   1.731  10.316   0.106
70171SOL     OW12409   6.257   9.057   6.245
70171SOL    HW112410   6.174   9.104   6.239
70171SOL    HW212411   6.235   8.966   6.228
70172SOL     OW12412   4.756   3.367   8.341
70172SOL    HW112413   4.669   3.337   8.367
70172SOL    HW212414   4.810   3.289   8.343
70173SOL     OW12415   7.267  10.975   1.184
70173SOL    HW112416   7.346  10.929   1.214
70173SOL    HW212417   7.195  10.918   1.210
70174SOL     OW12418   5.632  11.184  10.254
70174SOL    HW112419   5.566  11.222  10.196
70174SOL    HW212420   5.686  11.130  10.197
70175SOL     OW12421   9.542   0.902   7.733
70175SOL    HW112422   9.627   0.910   7.689
70175SOL    HW212423   9.509   0.992   7.737
70176SOL     OW12424   4.507   1.958   4.099
70176SOL    HW112425   4.559   1.999   4.169
70176SOL    HW212426   4.433   1.918   4.144
70177SOL     OW12427  14.341   3.962   7.589
70177SOL    HW112428  14.365   3.870   7.573
70177SOL    HW212429  14.412   3.997   7.642
70178SOL     OW12430   0.985   4.100  14.444
70178SOL    HW112431   0.989   4.162  14.371
70178SOL    HW212432   0.973   4.154  14.522
70179SOL     OW12433  13.848   4.733   4.381
70179SOL    HW112434  13.868   4.682   4.302
70179SOL    HW212435  13.930   4.735   4.429
70180SOL     OW12436   8.662   6.327  11.231
70180SOL    HW112437   8.583   6.348  11.181
70180SOL    HW212438   8.634   6.330  11.323
70181SOL     OW12439  12.452   2.525   2.900
70181SOL    HW112440  12.499   2.556   2.822
70181SOL    HW212441  12.515   2.533   2.971
70182SOL     OW12442  13.913   3.602   3.185
70182SOL    HW112443  13.970   3.666   3.228
70182SOL    HW212444  13.861   3.565   3.257
70183SOL     OW12445   2.934   4.496   7.163
70183SOL    HW112446   2.865   4.429   7.159
70183SOL    HW212447   2.887   4.579   7.155
70184SOL     OW12448  14.857  11.913  12.952
70184SOL    HW112449  14.766  11.903  12.980
70184SOL    HW212450   0.036  11.865  13.018
70185SOL     OW12451   1.243   2.923   1.724
70185SOL    HW112452   1.239   2.980   1.647
70185SOL    HW212453   1.279   2.841   1.691
70186SOL     OW12454  10.670  14.547  12.140
70186SOL    HW112455  10.636  14.569  12.227
70186SOL    HW212456  10.614  14.476  12.110
70187SOL     OW12457   1.161   5.342   2.263
70187SOL    HW112458   1.069   5.358   2.243
70187SOL    HW212459   1.177   5.251   2.237
70188SOL     OW12460   0.470   3.790   7.332
70188SOL    HW112461   0.431   3.773   7.247
70188SOL    HW212462   0.492   3.703   7.366
70189SOL     OW12463  11.280   2.782   3.502
70189SOL    HW112464  11.375   2.766   3.501
70189SOL    HW212465  11.250   2.747   3.585
70190SOL     OW12466   8.199   1.161   3.622
70190SOL    HW112467   8.241   1.078   3.597
70190SOL    HW212468   8.114   1.134   3.657
70191SOL     OW12469  10.924  13.154   8.605
70191SOL    HW112470  10.952  13.090   8.670
70191SOL    HW212471  10.846  13.115   8.565
70192SOL     OW12472   8.512   4.442   4.720
70192SOL    HW112473   8.426   4.482   4.706
70192SOL    HW212474   8.575   4.513   4.706
70193SOL     OW12475  10.851   6.141  13.965
70193SOL    HW112476  10.816   6.221  14.005
70193SOL    HW212477  10.844   6.075  14.033
70194SOL     OW12478  14.570  14.575   6.649
70194SOL    HW112479  14.612  14.635   6.711
70194SOL    HW212480  14.526  14.510   6.704
70195SOL     OW12481  11.772  11.113   3.524
70195SOL    HW112482  11.715  11.177   3.568
70195SOL    HW212483  11.768  11.036   3.580
70196SOL     OW12484   6.471   6.989  12.756
70196SOL    HW112485   6.429   7.036  12.684
70196SOL    HW212486   6.424   7.018  12.835
70197SOL     OW12487   1.287   6.110  12.085
70197SOL    HW112488   1.246   6.133  12.001
70197SOL    HW212489   1.358   6.051  12.061
70198SOL     OW12490   1.610   6.301   5.725
70198SOL    HW112491   1.579   6.219   5.688
70198SOL    HW212492   1.637   6.279   5.814
70199SOL     OW12493  13.696   4.431   3.454
70199SOL    HW112494  13.711   4.352   3.403
70199SOL    HW212495  13.602   4.429   3.473
70200SOL     OW12496   7.383   5.883   9.736
70200SOL    HW112497   7.405   5.975   9.743
70200SOL    HW212498   7.299   5.874   9.781
70201SOL     OW12499   9.090   5.654   2.937
70201SOL    HW112500   9.126   5.594   2.873
70201SOL    HW212501   9.049   5.724   2.885
70202SOL     OW12502  13.570   7.313   6.887
70202SOL    HW112503  13.593   7.272   6.803
70202SOL    HW212504  13.493   7.365   6.868
70203SOL     OW12505   0.825   5.033   7.016
70203SOL    HW112506   0.885   4.966   7.049
70203SOL    HW212507   0.747   4.985   6.990
70204SOL     OW12508   9.782   3.829   6.165
70204SOL    HW112509   9.746   3.903   6.115
70204SOL    HW212510   9.713   3.763   6.162
70205SOL     OW12511   3.959   5.059   6.448
70205SOL    HW112512   3.963   5.103   6.533
70205SOL    HW212513   4.034   5.000   6.448
70206SOL     OW12514  10.688   2.182  12.473
70206SOL    HW112515  10.721   2.177  12.562
70206SOL    HW212516  10.763   2.161  12.418
70207SOL     OW12517  11.822   6.646  10.121
70207SOL    HW112518  11.883   6.719  10.114
70207SOL    HW212519  11.755   6.663  10.055
70208SOL     OW12520   7.306   3.061   2.346
70208SOL    HW112521   7.316   2.981   2.398
70208SOL    HW212522   7.325   3.033   2.256
70209SOL     OW12523  12.335  11.065   6.106
70209SOL    HW112524  12.363  10.974   6.122
70209SOL    HW212525  12.365  11.084   6.017
70210SOL     OW12526   4.148   4.130  10.214
70210SOL    HW112527   4.164   4.173  10.298
70210SOL    HW212528   4.075   4.178  10.175
70211SOL     OW12529   0.723  10.139   5.928
70211SOL    HW112530   0.686  10.115   6.013
70211SOL    HW212531   0.701  10.232   5.917
70212SOL     OW12532   4.635  13.873   5.850
70212SOL    HW112533   4.648  13.967   5.832
70212SOL    HW212534   4.685  13.829   5.782
70213SOL     OW12535  10.023  10.979  11.234
70213SOL    HW112536   9.982  10.938  11.158
70213SOL    HW212537  10.078  10.910  11.271
70214SOL     OW12538  11.410   7.254  11.490
70214SOL    HW112539  11.328   7.270  11.538
70214SOL    HW212540  11.395   7.292  11.404
70215SOL     OW12541   5.952  14.646   4.385
70215SOL    HW112542   5.933  14.676   4.474
70215SOL    HW212543   5.907  14.708   4.328
70216SOL     OW12544   6.238  12.592   7.901
70216SOL    HW112545   6.238  12.572   7.808
70216SOL    HW212546   6.171  12.534   7.938
70217SOL     OW12547  13.623   2.462   7.999
70217SOL    HW112548  13.597   2.384   7.950
70217SOL    HW212549  13.626   2.531   7.933
70218SOL     OW12550   1.829   4.724  11.311
70218SOL    HW112551   1.790   4.748  11.396
70218SOL    HW212552   1.881   4.646  11.330
70219SOL     OW12553   0.492  12.131   1.385
70219SOL    HW112554   0.466  12.223   1.390
70219SOL    HW212555   0.410  12.082   1.391
70220SOL     OW12556  10.400  10.123  10.843
70220SOL    HW112557  10.410  10.154  10.933
70220SOL    HW212558  10.307  10.135  10.823
70221SOL     OW12559  12.889   7.966   4.870
70221SOL    HW112560  12.894   7.880   4.828
70221SOL    HW212561  12.795   7.979   4.885
70222SOL     OW12562   1.548  14.580   6.407
70222SOL    HW112563   1.560  14.502   6.353
70222SOL    HW212564   1.634  14.622   6.408
70223SOL     OW12565  10.507  13.887   0.244
70223SOL    HW112566  10.468  13.807   0.280
70223SOL    HW212567  10.434  13.933   0.203
70224SOL     OW12568  10.130  13.408   1.018
70224SOL    HW112569  10.105  13.399   1.110
70224SOL    HW212570  10.225  13.400   1.018
70225SOL     OW12571  10.765   9.993   4.330
70225SOL    HW112572  10.772  10.028   4.419
70225SOL    HW212573  10.717   9.910   4.341
70226SOL     OW12574  13.261  12.879   8.861
70226SOL    HW112575  13.210  12.885   8.781
70226SOL    HW212576  13.198  12.895   8.931
70227SOL     OW12577   5.706   2.777  11.082
70227SOL    HW112578   5.794   2.783  11.046
70227SOL    HW212579   5.708   2.699  11.138
70228SOL     OW12580   6.142   7.727  12.292
70228SOL    HW112581   6.071   7.663  12.292
70228SOL    HW212582   6.102   7.807  12.259
70229SOL     OW12583  11.391  10.456   8.316
70229SOL    HW112584  11.427  10.417   8.396
70229SOL    HW212585  11.434  10.541   8.309
70230SOL     OW12586  13.975   8.673   3.541
70230SOL    HW112587  13.991   8.632   3.456
70230SOL    HW212588  14.061   8.673   3.583
70231SOL     OW12589   9.427   3.720   2.971
70231SOL    HW112590   9.428   3.746   2.879
70231SOL    HW212591   9.471   3.793   3.016
70232SOL     OW12592  14.867  14.244  11.967
70232SOL    HW112593  14.807  14.203  11.905
70232SOL    HW212594  14.833  14.220  12.053
70233SOL     OW12595   8.707  14.523   9.111
70233SOL    HW112596   8.753  14.460   9.167
70233SOL    HW212597   8.622  14.536   9.153
70234SOL     OW12598   6.190  14.025  11.719
70234SOL    HW112599   6.111  14.074  11.696
70234SOL    HW212600   6.157  13.944  11.759
70235SOL     OW12601   5.393  14.587  12.813
70235SOL    HW112602   5.466  14.614  12.757
70235SOL    HW212603   5.323  14.648  12.792
70236SOL     OW12604   8.053   9.709  14.835
70236SOL    HW112605   8.032   9.616  14.846
70236SOL    HW212606   8.135   9.721   0.011
70237SOL     OW12607  11.609   6.557   6.215
70237SOL    HW112608  11.571   6.469   6.210
70237SOL    HW212609  11.666   6.563   6.138
70238SOL     OW12610   8.433   8.243  13.880
70238SOL    HW112611   8.445   8.336  13.901
70238SOL    HW212612   8.353   8.240  13.828
70239SOL     OW12613   6.137   2.183   2.675
70239SOL    HW112614   6.134   2.088   2.668
70239SOL    HW212615   6.211   2.209   2.620
70240SOL     OW12616  11.571   3.491   7.368
70240SOL    HW112617  11.578   3.395   7.374
70240SOL    HW212618  11.493   3.512   7.420
70241SOL     OW12619  14.653  11.809  12.344
70241SOL    HW112620  14.666  11.717  12.364
70241SOL    HW212621  14.737  11.850  12.362
70242SOL     OW12622  11.079  13.914   9.875
70242SOL    HW112623  11.087  14.006   9.902
70242SOL    HW212624  11.127  13.910   9.792
70243SOL     OW12625   9.998   3.509   6.281
70243SOL    HW112626   9.980   3.474   6.368
70243SOL    HW212627   9.949   3.453   6.221
70244SOL     OW12628  10.929  12.640   7.693
70244SOL    HW112629  10.848  12.611   7.653
70244SOL    HW212630  10.948  12.574   7.760
70245SOL     OW12631   5.369   4.533   8.471
70245SOL    HW112632   5.450   4.582   8.482
70245SOL    HW212633   5.337   4.558   8.385
70246SOL     OW12634   0.117  12.153  12.958
70246SOL    HW112635   0.077  12.066  12.952
70246SOL    HW212636   0.067  12.207  12.897
70247SOL     OW12637  12.680   2.329  13.943
70247SOL    HW112638  12.668   2.372  13.858
70247SOL    HW212639  12.675   2.236  13.922
70248SOL     OW12640   0.008   5.292   8.556
70248SOL    HW112641  14.799   5.333   8.584
70248SOL    HW212642   0.076   5.334   8.610
70249SOL     OW12643   6.281   2.402  10.721
70249SOL    HW112644   6.196   2.430  10.687
70249SOL    HW212645   6.345   2.438  10.658
70250SOL     OW12646   3.405  13.440  11.911
70250SOL    HW112647   3.406  13.518  11.966
70250SOL    HW212648   3.332  13.456  11.850
70251SOL     OW12649   6.252   4.336  10.603
70251SOL    HW112650   6.277   4.416  10.650
70251SOL    HW212651   6.320   4.325  10.537
70252SOL     OW12652   3.870   2.960   6.246
70252SOL    HW112653   3.940   2.985   6.185
70252SOL    HW212654   3.824   2.889   6.201
70253SOL     OW12655  14.423   5.514  11.001
70253SOL    HW112656  14.509   5.552  10.986
70253SOL    HW212657  14.368   5.550  10.932
70254SOL     OW12658   4.986   1.302   6.175
70254SOL    HW112659   4.944   1.238   6.233
70254SOL    HW212660   4.926   1.308   6.100
70255SOL     OW12661   1.566   9.649  11.678
70255SOL    HW112662   1.646   9.628  11.727
70255SOL    HW212663   1.513   9.569  11.684
70256SOL     OW12664   8.448   5.999   6.350
70256SOL    HW112665   8.530   5.987   6.398
70256SOL    HW212666   8.380   5.966   6.409
70257SOL     OW12667   1.691   8.582  13.042
70257SOL    HW112668   1.629   8.650  13.071
70257SOL    HW212669   1.733   8.619  12.965
70258SOL     OW12670   2.229   4.432   7.804
70258SOL    HW112671   2.159   4.447   7.741
70258SOL    HW212672   2.226   4.507   7.862
70259SOL     OW12673   4.922   1.920  14.579
70259SOL    HW112674   4.999   1.867  14.558
70259SOL    HW212675   4.956   1.988  14.637
70260SOL     OW12676   0.675  13.812  10.700
70260SOL    HW112677   0.589  13.853  10.707
70260SOL    HW212678   0.699  13.792  10.791
70261SOL     OW12679  12.719  10.294   6.007
70261SOL    HW112680  12.757  10.229   6.067
70261SOL    HW212681  12.633  10.312   6.043
70262SOL     OW12682  10.472  10.352   1.297
70262SOL    HW112683  10.410  10.297   1.249
70262SOL    HW212684  10.498  10.419   1.234
70263SOL     OW12685   9.239   5.996   2.689
70263SOL    HW112686   9.218   6.074   2.741
70263SOL    HW212687   9.161   5.980   2.637
70264SOL     OW12688   0.681   4.084  13.895
70264SOL    HW112689   0.617   4.018  13.920
70264SOL    HW212690   0.657   4.109  13.806
70265SOL     OW12691   0.453  10.180   0.938
70265SOL    HW112692   0.502  10.251   0.897
70265SOL    HW212693   0.424  10.216   1.021
70266SOL     OW12694   1.513   0.935   6.819
70266SOL    HW112695   1.558   0.851   6.833
70266SOL    HW212696   1.496   0.937   6.725
70267SOL     OW12697  13.218  11.622   5.213
70267SOL    HW112698  13.186  11.549   5.266
70267SOL    HW212699  13.258  11.581   5.137
70268SOL     OW12700   0.003  11.602  14.072
70268SOL    HW112701   0.024  11.684  14.027
70268SOL    HW212702  14.822  11.554  14.009
70269SOL     OW12703   3.808  13.899   8.637
70269SOL    HW112704   3.867  13.961   8.682
70269SOL    HW212705   3.742  13.877   8.703
70270SOL     OW12706   1.452   2.350   3.128
70270SOL    HW112707   1.490   2.321   3.045
70270SOL    HW212708   1.368   2.388   3.104
70271SOL     OW12709   3.394   2.268  13.571
70271SOL    HW112710   3.430   2.291  13.657
70271SOL    HW212711   3.471   2.262  13.514
70272SOL     OW12712  13.007   2.605   7.817
70272SOL    HW112713  13.069   2.670   7.851
70272SOL    HW212714  13.018   2.610   7.722
70273SOL     OW12715   1.564   0.829   9.514
70273SOL    HW112716   1.528   0.808   9.428
70273SOL    HW212717   1.652   0.863   9.495
70274SOL     OW12718  10.297  10.760   2.210
70274SOL    HW112719  10.244  10.822   2.259
70274SOL    HW212720  10.372  10.743   2.266
70275SOL     OW12721   9.423   9.607   0.663
70275SOL    HW112722   9.387   9.681   0.713
70275SOL    HW212723   9.484   9.647   0.601
70276SOL     OW12724  10.892   7.628   1.566
70276SOL    HW112725  10.979   7.647   1.602
70276SOL    HW212726  10.849   7.577   1.634
70277SOL     OW12727   6.811   7.769  14.469
70277SOL    HW112728   6.854   7.836  14.415
70277SOL    HW212729   6.723   7.762  14.432
70278SOL     OW12730  10.344  13.633  10.203
70278SOL    HW112731  10.298  13.683  10.271
70278SOL    HW212732  10.412  13.586  10.251
70279SOL     OW12733   5.288   6.196  13.023
70279SOL    HW112734   5.229   6.228  13.091
70279SOL    HW212735   5.246   6.224  12.941
70280SOL     OW12736  10.528   9.166   0.736
70280SOL    HW112737  10.449   9.113   0.736
70280SOL    HW212738  10.521   9.221   0.658
70281SOL     OW12739   2.227   8.580   7.740
70281SOL    HW112740   2.147   8.540   7.773
70281SOL    HW212741   2.240   8.540   7.654
70282SOL     OW12742   8.513   7.850   1.383
70282SOL    HW112743   8.422   7.879   1.388
70282SOL    HW212744   8.562   7.920   1.425
70283SOL     OW12745   3.377   7.830   1.038
70283SOL    HW112746   3.436   7.839   0.964
70283SOL    HW212747   3.398   7.744   1.075
70284SOL     OW12748   0.573   7.749  13.556
70284SOL    HW112749   0.583   7.682  13.489
70284SOL    HW212750   0.657   7.794  13.559
70285SOL     OW12751  11.733   4.849   9.543
70285SOL    HW112752  11.727   4.815   9.454
70285SOL    HW212753  11.821   4.886   9.548
70286SOL     OW12754   1.960  10.410   7.273
70286SOL    HW112755   1.986  10.333   7.322
70286SOL    HW212756   1.954  10.380   7.182
70287SOL     OW12757   0.077  11.666   0.612
70287SOL    HW112758   0.051  11.669   0.520
70287SOL    HW212759   0.172  11.678   0.611
70288SOL     OW12760  13.389   6.321   5.453
70288SOL    HW112761  13.461   6.384   5.448
70288SOL    HW212762  13.431   6.237   5.471
70289SOL     OW12763  13.762   0.615  14.204
70289SOL    HW112764  13.784   0.645  14.292
70289SOL    HW212765  13.708   0.686  14.168
70290SOL     OW12766   7.329   3.037  12.659
70290SOL    HW112767   7.366   2.949  12.661
70290SOL    HW212768   7.340   3.066  12.569
70291SOL     OW12769   7.969   9.440  14.796
70291SOL    HW112770   7.899   9.442  14.861
70291SOL    HW212771   8.012   9.355  14.809
70292SOL     OW12772   6.871  10.669   9.851
70292SOL    HW112773   6.847  10.759   9.870
70292SOL    HW212774   6.830  10.651   9.766
70293SOL     OW12775  11.709  11.315  13.885
70293SOL    HW112776  11.761  11.300  13.807
70293SOL    HW212777  11.666  11.231  13.902
70294SOL     OW12778  11.004  14.621   5.381
70294SOL    HW112779  11.016  14.715   5.371
70294SOL    HW212780  10.920  14.603   5.340
70295SOL     OW12781   4.957   5.665   0.840
70295SOL    HW112782   4.881   5.710   0.804
70295SOL    HW212783   5.032   5.705   0.795
70296SOL     OW12784  11.808   9.699   5.312
70296SOL    HW112785  11.823   9.605   5.322
70296SOL    HW212786  11.806   9.733   5.401
70297SOL     OW12787   7.279   3.294   8.776
70297SOL    HW112788   7.248   3.247   8.698
70297SOL    HW212789   7.225   3.373   8.779
70298SOL     OW12790   5.442   3.013   9.603
70298SOL    HW112791   5.448   3.021   9.699
70298SOL    HW212792   5.367   2.955   9.589
70299SOL     OW12793   8.673  13.842   8.962
70299SOL    HW112794   8.703  13.916   9.015
70299SOL    HW212795   8.734  13.771   8.983
70300SOL     OW12796   4.619   0.561  10.379
70300SOL    HW112797   4.583   0.473  10.383
70300SOL    HW212798   4.646   0.572  10.287
70301SOL     OW12799   0.938  11.086   4.866
70301SOL    HW112800   0.963  10.995   4.853
70301SOL    HW212801   0.894  11.087   4.951
70302SOL     OW12802   6.177  10.292   9.671
70302SOL    HW112803   6.255  10.281   9.725
70302SOL    HW212804   6.204  10.351   9.600
70303SOL     OW12805  12.186  10.046  11.172
70303SOL    HW112806  12.145  10.027  11.256
70303SOL    HW212807  12.119  10.093  11.122
70304SOL     OW12808   2.226   3.137   1.836
70304SOL    HW112809   2.208   3.229   1.815
70304SOL    HW212810   2.213   3.091   1.754
70305SOL     OW12811  10.945   8.692   9.516
70305SOL    HW112812  10.870   8.749   9.500
70305SOL    HW212813  10.907   8.606   9.533
70306SOL     OW12814   1.213   6.935   1.549
70306SOL    HW112815   1.268   6.982   1.487
70306SOL    HW212816   1.254   6.950   1.634
70307SOL     OW12817   8.348  10.395   4.400
70307SOL    HW112818   8.432  10.374   4.440
70307SOL    HW212819   8.360  10.377   4.307
70308SOL     OW12820   1.612   2.890   9.242
70308SOL    HW112821   1.597   2.955   9.173
70308SOL    HW212822   1.656   2.817   9.198
70309SOL     OW12823   5.482  10.355   2.988
70309SOL    HW112824   5.545  10.377   3.056
70309SOL    HW212825   5.498  10.263   2.969
70310SOL     OW12826  13.554   6.950   7.124
70310SOL    HW112827  13.517   6.967   7.037
70310SOL    HW212828  13.551   6.855   7.133
70311SOL     OW12829   9.124   3.841   2.991
70311SOL    HW112830   9.163   3.806   3.072
70311SOL    HW212831   9.083   3.765   2.950
70312SOL     OW12832   2.081  12.543  11.387
70312SOL    HW112833   1.995  12.530  11.347
70312SOL    HW212834   2.072  12.626  11.435
70313SOL     OW12835  10.595   0.544  12.965
70313SOL    HW112836  10.508   0.580  12.950
70313SOL    HW212837  10.647   0.574  12.891
70314SOL     OW12838   1.076   0.667  14.711
70314SOL    HW112839   1.162   0.636  14.740
70314SOL    HW212840   1.059   0.746  14.763
70315SOL     OW12841   0.587  12.783   4.275
70315SOL    HW112842   0.564  12.847   4.208
70315SOL    HW212843   0.630  12.835   4.344
70316SOL     OW12844   0.308  10.239   8.246
70316SOL    HW112845   0.353  10.233   8.330
70316SOL    HW212846   0.360  10.301   8.195
70317SOL     OW12847  11.757  14.641   3.930
70317SOL    HW112848  11.782  14.709   3.992
70317SOL    HW212849  11.836  14.589   3.917
70318SOL     OW12850   9.800  12.553  14.411
70318SOL    HW112851   9.830  12.608  14.338
70318SOL    HW212852   9.705  12.559  14.408
70319SOL     OW12853   5.461  12.080   8.210
70319SOL    HW112854   5.556  12.065   8.206
70319SOL    HW212855   5.435  12.040   8.293
70320SOL     OW12856   9.867  14.397   0.408
70320SOL    HW112857   9.929  14.347   0.355
70320SOL    HW212858   9.904  14.485   0.412
70321SOL     OW12859   2.926   2.011   5.933
70321SOL    HW112860   2.895   1.945   5.994
70321SOL    HW212861   2.946   1.962   5.853
70322SOL     OW12862   1.042   8.701  13.518
70322SOL    HW112863   0.967   8.738  13.473
70322SOL    HW212864   1.062   8.763  13.588
70323SOL     OW12865   1.402  13.300  13.800
70323SOL    HW112866   1.317  13.287  13.758
70323SOL    HW212867   1.421  13.217  13.844
70324SOL     OW12868   8.497   4.629   3.848
70324SOL    HW112869   8.506   4.644   3.942
70324SOL    HW212870   8.579   4.587   3.822
70325SOL     OW12871   7.084   5.977   4.566
70325SOL    HW112872   7.042   6.060   4.588
70325SOL    HW212873   7.176   5.999   4.556
70326SOL     OW12874  11.069   3.187  12.793
70326SOL    HW112875  11.123   3.148  12.862
70326SOL    HW212876  11.024   3.260  12.836
70327SOL     OW12877  13.458   9.792  14.366
70327SOL    HW112878  13.493   9.880  14.354
70327SOL    HW212879  13.363   9.805  14.375
70328SOL     OW12880  10.935  12.003   9.509
70328SOL    HW112881  10.871  12.061   9.549
70328SOL    HW212882  10.960  11.942   9.579
70329SOL     OW12883   0.151   2.719  13.892
70329SOL    HW112884   0.133   2.713  13.798
70329SOL    HW212885   0.110   2.640  13.929
70330SOL     OW12886  14.372   5.198  11.567
70330SOL    HW112887  14.396   5.254  11.641
70330SOL    HW212888  14.455   5.182  11.521
70331SOL     OW12889  13.491  11.285   9.926
70331SOL    HW112890  13.420  11.312   9.983
70331SOL    HW212891  13.501  11.358   9.864
70332SOL     OW12892  13.829   7.885  13.013
70332SOL    HW112893  13.898   7.840  13.061
70332SOL    HW212894  13.748   7.852  13.051
70333SOL     OW12895   5.494   6.727   2.277
70333SOL    HW112896   5.567   6.760   2.224
70333SOL    HW212897   5.506   6.632   2.278
70334SOL     OW12898  13.776  14.462  13.881
70334SOL    HW112899  13.744  14.497  13.798
70334SOL    HW212900  13.768  14.535  13.942
70335SOL     OW12901  13.807   8.206   9.115
70335SOL    HW112902  13.793   8.296   9.144
70335SOL    HW212903  13.855   8.165   9.188
70336SOL     OW12904   5.580  14.211   7.190
70336SOL    HW112905   5.588  14.269   7.265
70336SOL    HW212906   5.643  14.246   7.126
70337SOL     OW12907  14.543  14.120   2.550
70337SOL    HW112908  14.627  14.084   2.576
70337SOL    HW212909  14.565  14.196   2.495
70338SOL     OW12910  11.897  10.358   5.211
70338SOL    HW112911  11.881  10.452   5.208
70338SOL    HW212912  11.950  10.346   5.290
70339SOL     OW12913   2.677   8.853   1.975
70339SOL    HW112914   2.637   8.802   1.904
70339SOL    HW212915   2.771   8.845   1.960
70340SOL     OW12916   3.230   0.219   5.473
70340SOL    HW112917   3.283   0.180   5.404
70340SOL    HW212918   3.286   0.285   5.512
70341SOL     OW12919   4.050  11.028   9.822
70341SOL    HW112920   4.129  10.977   9.803
70341SOL    HW212921   3.980  10.982   9.775
70342SOL     OW12922   5.492   2.394  14.028
70342SOL    HW112923   5.443   2.434  14.100
70342SOL    HW212924   5.425   2.368  13.965
70343SOL     OW12925   2.097   5.420   8.731
70343SOL    HW112926   2.063   5.356   8.795
70343SOL    HW212927   2.132   5.491   8.785
70344SOL     OW12928   0.459   6.498   6.105
70344SOL    HW112929   0.420   6.583   6.081
70344SOL    HW212930   0.386   6.449   6.143
70345SOL     OW12931   5.564   9.440   9.682
70345SOL    HW112932   5.498   9.508   9.673
70345SOL    HW212933   5.643   9.478   9.645
70346SOL     OW12934  11.990  10.530  13.440
70346SOL    HW112935  11.920  10.582  13.400
70346SOL    HW212936  11.974  10.441  13.410
70347SOL     OW12937   8.657   3.728  11.380
70347SOL    HW112938   8.574   3.706  11.423
70347SOL    HW212939   8.635   3.732  11.287
70348SOL     OW12940  10.380   2.920   9.031
70348SOL    HW112941  10.305   2.978   9.018
70348SOL    HW212942  10.376   2.896   9.124
70349SOL     OW12943   1.977  13.249  11.075
70349SOL    HW112944   2.065  13.231  11.041
70349SOL    HW212945   1.976  13.343  11.092
70350SOL     OW12946   8.631   4.948  14.060
70350SOL    HW112947   8.597   5.033  14.031
70350SOL    HW212948   8.654   4.962  14.152
70351SOL     OW12949   1.587   5.724   9.175
70351SOL    HW112950   1.524   5.796   9.169
70351SOL    HW212951   1.668   5.761   9.139
70352SOL     OW12952   5.366  12.153  13.308
70352SOL    HW112953   5.389  12.177  13.398
70352SOL    HW212954   5.364  12.057  13.309
70353SOL     OW12955   3.557   1.682  14.553
70353SOL    HW112956   3.514   1.719  14.476
70353SOL    HW212957   3.500   1.610  14.580
70354SOL     OW12958   4.925   3.645  10.432
70354SOL    HW112959   4.929   3.552  10.411
70354SOL    HW212960   4.919   3.648  10.527
70355SOL     OW12961   3.106   0.144  12.771
70355SOL    HW112962   3.083   0.230  12.808
70355SOL    HW212963   3.037   0.086  12.802
70356SOL     OW12964  13.086   8.013  14.197
70356SOL    HW112965  13.030   8.012  14.275
70356SOL    HW212966  13.155   8.076  14.218
70357SOL     OW12967   7.766  13.879   4.484
70357SOL    HW112968   7.738  13.836   4.403
70357SOL    HW212969   7.860  13.863   4.490
70358SOL     OW12970  12.852   8.724  10.896
70358SOL    HW112971  12.914   8.772  10.842
70358SOL    HW212972  12.905   8.689  10.968
70359SOL     OW12973  13.326   2.883  10.535
70359SOL    HW112974  13.363   2.802  10.568
70359SOL    HW212975  13.251   2.901  10.592
70360SOL     OW12976  14.860  14.188   2.259
70360SOL    HW112977   0.004  14.189   2.165
70360SOL    HW212978   0.072  14.213   2.298
70361SOL     OW12979   1.207   7.914   6.497
70361SOL    HW112980   1.187   7.845   6.559
70361SOL    HW212981   1.124   7.958   6.481
70362SOL     OW12982  14.306   1.519  14.833
70362SOL    HW112983  14.329   1.595  14.779
70362SOL    HW212984  14.279   1.557   0.045
70363SOL     OW12985   0.527   8.301   3.422
70363SOL    HW112986   0.454   8.318   3.362
70363SOL    HW212987   0.584   8.240   3.375
70364SOL     OW12988   0.458  14.084   7.547
70364SOL    HW112989   0.492  14.000   7.577
70364SOL    HW212990   0.496  14.148   7.607
70365SOL     OW12991   3.163  12.222   3.062
70365SOL    HW112992   3.188  12.140   3.021
70365SOL    HW212993   3.121  12.272   2.992
70366SOL     OW12994  14.278  13.003   0.673
70366SOL    HW112995  14.311  13.024   0.585
70366SOL    HW212996  14.190  13.041   0.674
70367SOL     OW12997   7.815   7.535   1.198
70367SOL    HW112998   7.904   7.536   1.162
70367SOL    HW212999   7.760   7.510   1.124
70368SOL     OW13000   0.058  14.616   5.948
70368SOL    HW113001   0.075  14.572   5.865
70368SOL    HW213002  14.841  14.589   5.971
70369SOL     OW13003   7.945  13.376   6.546
70369SOL    HW113004   7.864  13.425   6.561
70369SOL    HW213005   7.960  13.328   6.628
70370SOL     OW13006   1.520  11.709   0.983
70370SOL    HW113007   1.584  11.648   1.019
70370SOL    HW213008   1.498  11.673   0.897
70371SOL     OW13009  13.542   9.487   1.398
70371SOL    HW113010  13.478   9.440   1.452
70371SOL    HW213011  13.570   9.560   1.453
70372SOL     OW13012   0.471   4.042   8.515
70372SOL    HW113013   0.489   4.131   8.486
70372SOL    HW213014   0.538   4.024   8.582
70373SOL     OW13015  10.393   5.259  11.533
70373SOL    HW113016  10.485   5.236  11.538
70373SOL    HW213017  10.347   5.176  11.548
70374SOL     OW13018   9.929   7.556   5.813
70374SOL    HW113019   9.923   7.647   5.784
70374SOL    HW213020   9.898   7.504   5.739
70375SOL     OW13021   3.149   1.682  11.704
70375SOL    HW113022   3.148   1.719  11.616
70375SOL    HW213023   3.072   1.719  11.747
70376SOL     OW13024   4.955   0.042   7.348
70376SOL    HW113025   4.961   0.104   7.274
70376SOL    HW213026   4.887  14.853   7.322
70377SOL     OW13027  11.997   6.090  12.793
70377SOL    HW113028  11.962   6.052  12.873
70377SOL    HW213029  12.086   6.056  12.787
70378SOL     OW13030  12.051   8.316   1.815
70378SOL    HW113031  12.041   8.243   1.753
70378SOL    HW213032  12.131   8.360   1.787
70379SOL     OW13033   6.333   5.533  12.246
70379SOL    HW113034   6.389   5.456  12.246
70379SOL    HW213035   6.339   5.567  12.157
70380SOL     OW13036  12.231  11.993   1.174
70380SOL    HW113037  12.189  11.964   1.093
70380SOL    HW213038  12.204  11.927   1.239
70381SOL     OW13039  10.151   4.443   8.817
70381SOL    HW113040  10.129   4.537   8.812
70381SOL    HW213041  10.246   4.442   8.828
70382SOL     OW13042  11.800   6.324  12.447
70382SOL    HW113043  11.819   6.324  12.541
70382SOL    HW213044  11.705   6.336  12.442
70383SOL     OW13045  12.239  13.701  12.604
70383SOL    HW113046  12.220  13.608  12.596
70383SOL    HW213047  12.194  13.729  12.683
70384SOL     OW13048   1.625  14.586  10.424
70384SOL    HW113049   1.561  14.654  10.402
70384SOL    HW213050   1.684  14.584  10.349
70385SOL     OW13051  14.403   0.292   2.106
70385SOL    HW113052  14.366   0.279   2.193
70385SOL    HW213053  14.406   0.205   2.067
70386SOL     OW13054   5.862  11.388  12.869
70386SOL    HW113055   5.792  11.330  12.839
70386SOL    HW213056   5.925  11.388  12.797
70387SOL     OW13057   7.553   9.616   9.814
70387SOL    HW113058   7.578   9.525   9.802
70387SOL    HW213059   7.530   9.647   9.727
70388SOL     OW13060  12.098  11.008  13.674
70388SOL    HW113061  12.037  10.938  13.649
70388SOL    HW213062  12.121  10.988  13.764
70389SOL     OW13063  12.759  14.047  11.208
70389SOL    HW113064  12.721  13.989  11.142
70389SOL    HW213065  12.746  14.135  11.172
70390SOL     OW13066  12.454   1.272   7.362
70390SOL    HW113067  12.459   1.177   7.373
70390SOL    HW213068  12.440   1.285   7.269
70391SOL     OW13069   3.209   4.855   1.659
70391SOL    HW113070   3.138   4.847   1.596
70391SOL    HW213071   3.183   4.928   1.715
70392SOL     OW13072   2.673  10.430  12.703
70392SOL    HW113073   2.694  10.442  12.611
70392SOL    HW213074   2.694  10.338  12.721
70393SOL     OW13075   0.232   1.290   9.536
70393SOL    HW113076   0.195   1.378   9.523
70393SOL    HW213077   0.306   1.287   9.476
70394SOL     OW13078   2.528  10.677  14.037
70394SOL    HW113079   2.506  10.606  13.976
70394SOL    HW213080   2.452  10.736  14.033
70395SOL     OW13081  11.037  14.703   4.583
70395SOL    HW113082  10.960  14.759   4.570
70395SOL    HW213083  11.109  14.764   4.594
70396SOL     OW13084  12.246  11.034  13.449
70396SOL    HW113085  12.335  11.002  13.457
70396SOL    HW213086  12.209  11.026  13.538
70397SOL     OW13087  12.735   1.059   0.730
70397SOL    HW113088  12.753   1.123   0.662
70397SOL    HW213089  12.742   0.974   0.686
70398SOL     OW13090   4.195   9.825   3.251
70398SOL    HW113091   4.284   9.817   3.288
70398SOL    HW213092   4.157   9.739   3.263
70399SOL     OW13093   8.262  13.261  10.897
70399SOL    HW113094   8.331  13.196  10.884
70399SOL    HW213095   8.187  13.210  10.928
70400SOL     OW13096  14.415  13.175   8.206
70400SOL    HW113097  14.359  13.192   8.282
70400SOL    HW213098  14.498  13.216   8.229
70401SOL     OW13099   1.974   7.452   1.032
70401SOL    HW113100   1.904   7.513   1.007
70401SOL    HW213101   1.991   7.472   1.124
70402SOL     OW13102   3.809  10.217  12.891
70402SOL    HW113103   3.900  10.191  12.910
70402SOL    HW213104   3.761  10.134  12.891
70403SOL     OW13105  11.460  14.654  10.825
70403SOL    HW113106  11.417  14.602  10.757
70403SOL    HW213107  11.518  14.592  10.869
70404SOL     OW13108   3.232   1.562   8.886
70404SOL    HW113109   3.197   1.612   8.960
70404SOL    HW213110   3.261   1.480   8.924
70405SOL     OW13111   1.978   5.310   6.266
70405SOL    HW113112   1.971   5.219   6.296
70405SOL    HW213113   2.068   5.318   6.235
70406SOL     OW13114   4.193  10.288  11.147
70406SOL    HW113115   4.155  10.250  11.227
70406SOL    HW213116   4.282  10.312  11.173
70407SOL     OW13117   2.744   0.603   2.977
70407SOL    HW113118   2.740   0.515   2.939
70407SOL    HW213119   2.664   0.610   3.029
70408SOL     OW13120  12.586   6.783  10.250
70408SOL    HW113121  12.492   6.772  10.238
70408SOL    HW213122  12.597   6.873  10.281
70409SOL     OW13123   6.373  11.929  12.194
70409SOL    HW113124   6.381  11.857  12.131
70409SOL    HW213125   6.357  12.006  12.139
70410SOL     OW13126  14.238   9.670   6.496
70410SOL    HW113127  14.153   9.645   6.463
70410SOL    HW213128  14.230   9.764   6.514
70411SOL     OW13129  11.869  14.009   8.087
70411SOL    HW113130  11.963  14.008   8.067
70411SOL    HW213131  11.830  13.950   8.024
70412SOL     OW13132   9.036  12.058   5.468
70412SOL    HW113133   9.077  12.023   5.388
70412SOL    HW213134   9.030  11.982   5.527
70413SOL     OW13135   2.757   2.861   1.224
70413SOL    HW113136   2.790   2.771   1.228
70413SOL    HW213137   2.683   2.857   1.163
70414SOL     OW13138   8.438   7.231   9.747
70414SOL    HW113139   8.349   7.258   9.769
70414SOL    HW213140   8.432   7.198   9.657
70415SOL     OW13141   4.149  14.356  13.866
70415SOL    HW113142   4.115  14.341  13.954
70415SOL    HW213143   4.127  14.277  13.817
70416SOL     OW13144  12.003  10.727   8.771
70416SOL    HW113145  11.935  10.691   8.714
70416SOL    HW213146  12.072  10.661   8.770
70417SOL     OW13147  11.681   1.127   0.873
70417SOL    HW113148  11.618   1.198   0.864
70417SOL    HW213149  11.654   1.062   0.808
70418SOL     OW13150  13.958   3.402   5.408
70418SOL    HW113151  14.029   3.377   5.349
70418SOL    HW213152  13.913   3.319   5.427
70419SOL     OW13153   0.550   9.408   8.081
70419SOL    HW113154   0.610   9.476   8.112
70419SOL    HW213155   0.501   9.382   8.159
70420SOL     OW13156  14.373  14.492   0.995
70420SOL    HW113157  14.385  14.520   1.086
70420SOL    HW213158  14.455  14.517   0.952
70421SOL     OW13159  10.757   5.239  10.097
70421SOL    HW113160  10.745   5.217  10.190
70421SOL    HW213161  10.689   5.304  10.079
70422SOL     OW13162   4.430   0.252   3.514
70422SOL    HW113163   4.413   0.244   3.420
70422SOL    HW213164   4.372   0.322   3.543
70423SOL     OW13165  13.061  10.322   3.548
70423SOL    HW113166  13.020  10.242   3.515
70423SOL    HW213167  13.009  10.346   3.625
70424SOL     OW13168  12.966   8.631   0.241
70424SOL    HW113169  12.881   8.626   0.197
70424SOL    HW213170  12.991   8.723   0.237
70425SOL     OW13171   0.579  10.925   3.683
70425SOL    HW113172   0.536  10.999   3.727
70425SOL    HW213173   0.516  10.896   3.617
70426SOL     OW13174   2.546  14.688  14.702
70426SOL    HW113175   2.569  14.759  14.762
70426SOL    HW213176   2.475  14.723  14.649
70427SOL     OW13177   0.445  10.888   6.560
70427SOL    HW113178   0.430  10.947   6.486
70427SOL    HW213179   0.359  10.850   6.578
70428SOL     OW13180   3.047   5.950  12.993
70428SOL    HW113181   3.002   6.032  13.012
70428SOL    HW213182   2.976   5.886  12.981
70429SOL     OW13183   1.131  12.306   5.965
70429SOL    HW113184   1.040  12.282   5.948
70429SOL    HW213185   1.149  12.270   6.052
70430SOL     OW13186   7.514  10.839   7.852
70430SOL    HW113187   7.473  10.922   7.874
70430SOL    HW213188   7.491  10.781   7.925
70431SOL     OW13189   2.319   6.842  11.446
70431SOL    HW113190   2.238   6.878  11.409
70431SOL    HW213191   2.349   6.779  11.380
70432SOL     OW13192   5.692   5.831   3.650
70432SOL    HW113193   5.784   5.806   3.652
70432SOL    HW213194   5.676   5.872   3.735
70433SOL     OW13195  14.835   6.644  12.896
70433SOL    HW113196   0.044   6.615  12.938
70433SOL    HW213197  14.800   6.567  12.853
70434SOL     OW13198  13.253  10.213   1.434
70434SOL    HW113199  13.201  10.154   1.379
70434SOL    HW213200  13.206  10.216   1.517
70435SOL     OW13201   1.851   5.258  14.331
70435SOL    HW113202   1.926   5.217  14.286
70435SOL    HW213203   1.861   5.351  14.313
70436SOL     OW13204   4.243   6.082   8.277
70436SOL    HW113205   4.201   5.996   8.276
70436SOL    HW213206   4.304   6.080   8.204
70437SOL     OW13207  10.080   8.855   2.120
70437SOL    HW113208  10.173   8.866   2.102
70437SOL    HW213209  10.042   8.941   2.103
70438SOL     OW13210  12.384  12.974  13.643
70438SOL    HW113211  12.292  12.987  13.619
70438SOL    HW213212  12.422  13.061  13.642
70439SOL     OW13213   6.249  12.777   1.355
70439SOL    HW113214   6.187  12.752   1.286
70439SOL    HW213215   6.261  12.698   1.407
70440SOL     OW13216   5.474   5.638   6.446
70440SOL    HW113217   5.447   5.584   6.371
70440SOL    HW213218   5.569   5.622   6.454
70441SOL     OW13219   4.499   0.296   1.340
70441SOL    HW113220   4.433   0.344   1.391
70441SOL    HW213221   4.448   0.234   1.288
70442SOL     OW13222   3.963   2.752  13.753
70442SOL    HW113223   3.901   2.693  13.796
70442SOL    HW213224   3.927   2.840  13.767
70443SOL     OW13225   9.533   3.823   4.813
70443SOL    HW113226   9.538   3.814   4.717
70443SOL    HW213227   9.446   3.860   4.828
70444SOL     OW13228  10.667  14.730  11.633
70444SOL    HW113229  10.602  14.729  11.704
70444SOL    HW213230  10.678  14.637  11.611
70445SOL     OW13231   0.614   2.384   8.913
70445SOL    HW113232   0.625   2.292   8.889
70445SOL    HW213233   0.629   2.431   8.831
70446SOL     OW13234   8.143   3.727   0.201
70446SOL    HW113235   8.102   3.813   0.190
70446SOL    HW213236   8.212   3.724   0.136
70447SOL     OW13237   7.276   2.519   7.387
70447SOL    HW113238   7.329   2.553   7.315
70447SOL    HW213239   7.185   2.537   7.361
70448SOL     OW13240  10.014   7.266   3.973
70448SOL    HW113241   9.950   7.289   3.905
70448SOL    HW213242  10.098   7.264   3.927
70449SOL     OW13243   6.687   0.998   4.387
70449SOL    HW113244   6.716   0.926   4.330
70449SOL    HW213245   6.768   1.044   4.410
70450SOL     OW13246  10.275   9.479   1.097
70450SOL    HW113247  10.317   9.402   1.059
70450SOL    HW213248  10.337   9.550   1.084
70451SOL     OW13249   5.882   2.559   5.521
70451SOL    HW113250   5.969   2.586   5.549
70451SOL    HW213251   5.832   2.641   5.516
70452SOL     OW13252   4.129   6.600   7.085
70452SOL    HW113253   4.034   6.584   7.077
70452SOL    HW213254   4.168   6.534   7.028
70453SOL     OW13255   4.829   3.083   8.367
70453SOL    HW113256   4.743   3.085   8.325
70453SOL    HW213257   4.890   3.069   8.295
70454SOL     OW13258  10.992  13.252   4.747
70454SOL    HW113259  11.081  13.230   4.720
70454SOL    HW213260  10.980  13.343   4.720
70455SOL     OW13261   1.824  11.256   7.722
70455SOL    HW113262   1.748  11.243   7.666
70455SOL    HW213263   1.825  11.351   7.739
70456SOL     OW13264   6.298  14.138  12.972
70456SOL    HW113265   6.373  14.124  12.914
70456SOL    HW213266   6.322  14.091  13.052
70457SOL     OW13267   7.925   6.511   0.508
70457SOL    HW113268   7.955   6.422   0.487
70457SOL    HW213269   7.831   6.500   0.524
70458SOL     OW13270   1.462   9.377   2.290
70458SOL    HW113271   1.459   9.472   2.284
70458SOL    HW213272   1.512   9.360   2.370
70459SOL     OW13273   6.929  14.164   1.924
70459SOL    HW113274   6.968  14.164   1.837
70459SOL    HW213275   6.857  14.101   1.919
70460SOL     OW13276  14.298  11.216  11.170
70460SOL    HW113277  14.308  11.280  11.100
70460SOL    HW213278  14.213  11.176  11.155
70461SOL     OW13279   1.114   5.990  11.569
70461SOL    HW113280   1.085   6.081  11.561
70461SOL    HW213281   1.062   5.942  11.503
70462SOL     OW13282  11.656   3.692   8.876
70462SOL    HW113283  11.561   3.687   8.883
70462SOL    HW213284  11.671   3.762   8.813
70463SOL     OW13285   1.657   2.467   8.524
70463SOL    HW113286   1.564   2.466   8.503
70463SOL    HW213287   1.700   2.479   8.439
70464SOL     OW13288  10.500  10.206   7.480
70464SOL    HW113289  10.576  10.264   7.474
70464SOL    HW213290  10.425  10.261   7.456
70465SOL     OW13291  12.727  10.081   4.154
70465SOL    HW113292  12.714  10.058   4.246
70465SOL    HW213293  12.794  10.150   4.156
70466SOL     OW13294  14.618   1.984  11.695
70466SOL    HW113295  14.529   1.995  11.729
70466SOL    HW213296  14.649   2.073  11.679
70467SOL     OW13297   8.167  14.290   4.789
70467SOL    HW113298   8.212  14.359   4.838
70467SOL    HW213299   8.234  14.223   4.774
70468SOL     OW13300  13.657   2.130   5.254
70468SOL    HW113301  13.725   2.067   5.277
70468SOL    HW213302  13.643   2.180   5.334
70469SOL     OW13303   0.312   5.744  12.130
70469SOL    HW113304   0.254   5.680  12.088
70469SOL    HW213305   0.400   5.710  12.115
70470SOL     OW13306   3.103   7.538   0.424
70470SOL    HW113307   3.168   7.554   0.356
70470SOL    HW213308   3.151   7.549   0.506
70471SOL     OW13309   2.675   5.102   4.424
70471SOL    HW113310   2.581   5.118   4.433
70471SOL    HW213311   2.701   5.062   4.507
70472SOL     OW13312   6.886   8.649   4.711
70472SOL    HW113313   6.845   8.570   4.747
70472SOL    HW213314   6.979   8.639   4.732
70473SOL     OW13315   8.567   5.111   2.423
70473SOL    HW113316   8.526   5.182   2.374
70473SOL    HW213317   8.546   5.032   2.374
70474SOL     OW13318  10.809   3.883   7.903
70474SOL    HW113319  10.823   3.925   7.988
70474SOL    HW213320  10.772   3.953   7.849
70475SOL     OW13321   7.439   4.495   9.080
70475SOL    HW113322   7.388   4.418   9.107
70475SOL    HW213323   7.393   4.569   9.120
70476SOL     OW13324  14.114  12.962  11.472
70476SOL    HW113325  14.147  12.885  11.517
70476SOL    HW213326  14.164  13.035  11.507
70477SOL     OW13327   8.137   4.697  11.030
70477SOL    HW113328   8.207   4.632  11.038
70477SOL    HW213329   8.180   4.780  11.049
70478SOL     OW13330  13.743   1.269  11.641
70478SOL    HW113331  13.730   1.174  11.640
70478SOL    HW213332  13.663   1.304  11.602
70479SOL     OW13333   3.870   7.638  12.319
70479SOL    HW113334   3.777   7.655  12.333
70479SOL    HW213335   3.908   7.724  12.304
70480SOL     OW13336  12.200   0.746   6.353
70480SOL    HW113337  12.172   0.655   6.355
70480SOL    HW213338  12.170   0.779   6.268
70481SOL     OW13339   0.038  14.336   7.945
70481SOL    HW113340   0.064  14.427   7.945
70481SOL    HW213341  14.868  14.323   7.860
70482SOL     OW13342   0.977  11.329   8.970
70482SOL    HW113343   0.948  11.257   8.913
70482SOL    HW213344   0.974  11.407   8.914
70483SOL     OW13345  10.559   2.656  14.411
70483SOL    HW113346  10.504   2.699  14.477
70483SOL    HW213347  10.584   2.573  14.451
70484SOL     OW13348   2.139   0.631   6.753
70484SOL    HW113349   2.145   0.636   6.849
70484SOL    HW213350   2.054   0.591   6.737
70485SOL     OW13351  13.916   9.233   0.007
70485SOL    HW113352  13.835   9.276  14.852
70485SOL    HW213353  13.983   9.301   0.002
70486SOL     OW13354  11.104   1.245  11.162
70486SOL    HW113355  11.180   1.298  11.186
70486SOL    HW213356  11.130   1.156  11.181
70487SOL     OW13357   6.253   4.986   2.064
70487SOL    HW113358   6.166   4.951   2.083
70487SOL    HW213359   6.306   4.909   2.043
70488SOL     OW13360   3.764   1.762   6.497
70488SOL    HW113361   3.672   1.747   6.520
70488SOL    HW213362   3.766   1.759   6.402
70489SOL     OW13363   1.919   1.836   5.451
70489SOL    HW113364   1.825   1.852   5.450
70489SOL    HW213365   1.932   1.772   5.521
70490SOL     OW13366   2.884   6.462   3.187
70490SOL    HW113367   2.923   6.376   3.205
70490SOL    HW213368   2.834   6.450   3.107
70491SOL     OW13369  10.321  10.722   5.416
70491SOL    HW113370  10.283  10.770   5.343
70491SOL    HW213371  10.247  10.709   5.476
70492SOL     OW13372   1.131  13.397  10.232
70492SOL    HW113373   1.162  13.413  10.143
70492SOL    HW213374   1.119  13.484  10.270
70493SOL     OW13375   2.372   3.336  11.620
70493SOL    HW113376   2.440   3.269  11.623
70493SOL    HW213377   2.347   3.349  11.712
70494SOL     OW13378  13.114   3.787   4.617
70494SOL    HW113379  13.111   3.851   4.545
70494SOL    HW213380  13.144   3.837   4.692
70495SOL     OW13381   2.840   6.644  13.557
70495SOL    HW113382   2.810   6.728  13.590
70495SOL    HW213383   2.825   6.649  13.462
70496SOL     OW13384   3.145  10.424  11.748
70496SOL    HW113385   3.055  10.404  11.723
70496SOL    HW213386   3.189  10.339  11.749
70497SOL     OW13387   9.943  14.749  13.135
70497SOL    HW113388   9.918  14.757  13.227
70497SOL    HW213389   9.889  14.677  13.102
70498SOL     OW13390   5.537   8.967   0.826
70498SOL    HW113391   5.610   8.989   0.885
70498SOL    HW213392   5.561   9.009   0.743
70499SOL     OW13393  13.106  11.323  14.666
70499SOL    HW113394  13.051  11.288  14.596
70499SOL    HW213395  13.047  11.329  14.742
70500SOL     OW13396  10.360  13.813   1.304
70500SOL    HW113397  10.324  13.740   1.354
70500SOL    HW213398  10.385  13.775   1.220
70501SOL     OW13399   9.624   7.015  11.066
70501SOL    HW113400   9.626   7.103  11.104
70501SOL    HW213401   9.586   7.027  10.978
70502SOL     OW13402   6.413  10.040   1.176
70502SOL    HW113403   6.318  10.029   1.184
70502SOL    HW213404   6.430  10.041   1.082
70503SOL     OW13405  14.658   9.767   5.420
70503SOL    HW113406  14.614   9.841   5.377
70503SOL    HW213407  14.721   9.808   5.480
70504SOL     OW13408  13.980   9.681   6.701
70504SOL    HW113409  14.043   9.614   6.726
70504SOL    HW213410  13.906   9.631   6.664
70505SOL     OW13411  13.724  12.050  14.789
70505SOL    HW113412  13.678  11.987  14.845
70505SOL    HW213413  13.701  12.135  14.826
70506SOL     OW13414  13.054   5.409  11.024
70506SOL    HW113415  13.026   5.318  11.034
70506SOL    HW213416  13.147   5.404  11.003
70507SOL     OW13417   9.348   1.601   1.190
70507SOL    HW113418   9.378   1.559   1.109
70507SOL    HW213419   9.260   1.632   1.168
70508SOL     OW13420   1.678   4.801   8.287
70508SOL    HW113421   1.713   4.715   8.263
70508SOL    HW213422   1.620   4.824   8.214
70509SOL     OW13423  12.104  12.893   5.479
70509SOL    HW113424  12.138  12.819   5.529
70509SOL    HW213425  12.052  12.853   5.409
70510SOL     OW13426  10.099   2.060   0.016
70510SOL    HW113427  10.159   2.121  14.845
70510SOL    HW213428  10.127   2.059   0.107
70511SOL     OW13429  11.401  13.874   6.170
70511SOL    HW113430  11.454  13.795   6.159
70511SOL    HW213431  11.433  13.934   6.104
70512SOL     OW13432   7.841   3.489  14.160
70512SOL    HW113433   7.923   3.490  14.111
70512SOL    HW213434   7.835   3.576  14.200
70513SOL     OW13435   3.257   6.919  13.664
70513SOL    HW113436   3.219   6.879  13.586
70513SOL    HW213437   3.301   6.997  13.632
70514SOL     OW13438  14.603   6.808  12.252
70514SOL    HW113439  14.665   6.841  12.187
70514SOL    HW213440  14.518   6.843  12.226
70515SOL     OW13441   4.047  10.895  10.165
70515SOL    HW113442   4.014  10.936  10.245
70515SOL    HW213443   4.140  10.915  10.163
70516SOL     OW13444   2.845   3.558   7.994
70516SOL    HW113445   2.830   3.510   8.075
70516SOL    HW213446   2.759   3.564   7.953
70517SOL     OW13447  11.257  10.768   5.790
70517SOL    HW113448  11.211  10.771   5.706
70517SOL    HW213449  11.268  10.675   5.808
70518SOL     OW13450  14.273   4.994   0.680
70518SOL    HW113451  14.308   5.083   0.684
70518SOL    HW213452  14.338   4.945   0.629
70519SOL     OW13453  12.260  13.320   3.966
70519SOL    HW113454  12.223  13.260   3.901
70519SOL    HW213455  12.306  13.264   4.028
70520SOL     OW13456   8.559   4.756   4.106
70520SOL    HW113457   8.583   4.837   4.061
70520SOL    HW213458   8.641   4.724   4.144
70521SOL     OW13459   1.198   8.956  11.453
70521SOL    HW113460   1.184   8.942  11.359
70521SOL    HW213461   1.119   9.001  11.482
70522SOL     OW13462  13.229   1.575  13.182
70522SOL    HW113463  13.147   1.622  13.200
70522SOL    HW213464  13.278   1.580  13.264
70523SOL     OW13465  13.293  13.946   2.053
70523SOL    HW113466  13.345  13.900   2.119
70523SOL    HW213467  13.307  14.039   2.071
70524SOL     OW13468   6.147  10.627  11.744
70524SOL    HW113469   6.146  10.715  11.706
70524SOL    HW213470   6.115  10.639  11.833
70525SOL     OW13471  12.282   4.674   7.380
70525SOL    HW113472  12.309   4.629   7.300
70525SOL    HW213473  12.238   4.607   7.432
70526SOL     OW13474   2.652   5.912   8.161
70526SOL    HW113475   2.633   5.864   8.242
70526SOL    HW213476   2.650   5.845   8.092
70527SOL     OW13477   2.871  13.489   4.065
70527SOL    HW113478   2.941  13.468   4.127
70527SOL    HW213479   2.813  13.548   4.113
70528SOL     OW13480   8.713  13.913   3.253
70528SOL    HW113481   8.722  13.857   3.176
70528SOL    HW213482   8.776  13.880   3.316
70529SOL     OW13483   3.671  11.121   0.347
70529SOL    HW113484   3.727  11.143   0.420
70529SOL    HW213485   3.614  11.197   0.336
70530SOL     OW13486   1.937   1.595  11.537
70530SOL    HW113487   1.923   1.688  11.521
70530SOL    HW213488   1.880   1.574  11.611
70531SOL     OW13489   5.479   1.124   1.931
70531SOL    HW113490   5.529   1.206   1.934
70531SOL    HW213491   5.388   1.151   1.941
70532SOL     OW13492   2.665   1.898   4.581
70532SOL    HW113493   2.613   1.962   4.532
70532SOL    HW213494   2.672   1.936   4.669
70533SOL     OW13495  14.554   9.501  13.158
70533SOL    HW113496  14.622   9.443  13.126
70533SOL    HW213497  14.552   9.486  13.253
70534SOL     OW13498  14.402   3.365  10.585
70534SOL    HW113499  14.449   3.313  10.520
70534SOL    HW213500  14.472   3.410  10.634
70535SOL     OW13501  10.515   3.270   1.741
70535SOL    HW113502  10.433   3.301   1.704
70535SOL    HW213503  10.582   3.305   1.682
70536SOL     OW13504  13.921  12.361   5.794
70536SOL    HW113505  13.883  12.286   5.839
70536SOL    HW213506  13.998  12.384   5.846
70537SOL     OW13507   6.744  10.201   5.738
70537SOL    HW113508   6.737  10.239   5.825
70537SOL    HW213509   6.677  10.133   5.736
70538SOL     OW13510  12.110  10.047  11.444
70538SOL    HW113511  12.194  10.084  11.472
70538SOL    HW213512  12.120   9.953  11.457
70539SOL     OW13513   3.903   7.224   9.336
70539SOL    HW113514   3.956   7.295   9.299
70539SOL    HW213515   3.908   7.154   9.271
70540SOL     OW13516   6.339   9.565  13.926
70540SOL    HW113517   6.269   9.566  13.861
70540SOL    HW213518   6.399   9.633  13.897
70541SOL     OW13519   2.984   7.388   0.113
70541SOL    HW113520   3.014   7.348   0.031
70541SOL    HW213521   2.937   7.467   0.085
70542SOL     OW13522  14.589   2.177   7.676
70542SOL    HW113523  14.500   2.194   7.707
70542SOL    HW213524  14.577   2.130   7.594
70543SOL     OW13525   4.593   6.441  11.266
70543SOL    HW113526   4.650   6.506  11.308
70543SOL    HW213527   4.635   6.357  11.283
70544SOL     OW13528  10.242   4.858   0.832
70544SOL    HW113529  10.286   4.941   0.813
70544SOL    HW213530  10.185   4.878   0.906
70545SOL     OW13531  10.352   2.546   3.339
70545SOL    HW113532  10.353   2.641   3.325
70545SOL    HW213533  10.407   2.533   3.416
70546SOL     OW13534   1.406  11.386  13.125
70546SOL    HW113535   1.316  11.406  13.154
70546SOL    HW213536   1.398  11.374  13.030
70547SOL     OW13537   7.747   5.648  13.486
70547SOL    HW113538   7.729   5.556  13.508
70547SOL    HW213539   7.839   5.648  13.459
70548SOL     OW13540   6.457   1.404   5.661
70548SOL    HW113541   6.402   1.436   5.589
70548SOL    HW213542   6.536   1.370   5.618
70549SOL     OW13543   9.940   3.274   8.971
70549SOL    HW113544   9.880   3.200   8.986
70549SOL    HW213545   9.975   3.294   9.058
70550SOL     OW13546   3.031   5.479   6.120
70550SOL    HW113547   2.964   5.415   6.141
70550SOL    HW213548   3.027   5.488   6.025
70551SOL     OW13549   5.373  13.770   9.231
70551SOL    HW113550   5.445  13.833   9.235
70551SOL    HW213551   5.415  13.685   9.233
70552SOL     OW13552  11.563  13.871   5.137
70552SOL    HW113553  11.544  13.915   5.054
70552SOL    HW213554  11.592  13.784   5.112
70553SOL     OW13555   5.045   7.701   2.590
70553SOL    HW113556   4.989   7.689   2.513
70553SOL    HW213557   5.065   7.794   2.591
70554SOL     OW13558  12.819   2.986   0.042
70554SOL    HW113559  12.725   2.976   0.029
70554SOL    HW213560  12.837   3.076   0.016
70555SOL     OW13561  13.216   0.171  12.665
70555SOL    HW113562  13.223   0.266  12.672
70555SOL    HW213563  13.289   0.145  12.609
70556SOL     OW13564   2.033   2.166   3.715
70556SOL    HW113565   2.045   2.250   3.670
70556SOL    HW213566   1.990   2.190   3.797
70557SOL     OW13567   6.196   7.451   6.350
70557SOL    HW113568   6.211   7.408   6.434
70557SOL    HW213569   6.267   7.419   6.294
70558SOL     OW13570  12.077   8.026  11.812
70558SOL    HW113571  12.078   8.056  11.903
70558SOL    HW213572  11.989   8.046  11.781
70559SOL     OW13573   4.044  10.178  14.644
70559SOL    HW113574   4.074  10.101  14.692
70559SOL    HW213575   4.024  10.243  14.711
70560SOL     OW13576   4.342  14.012   2.991
70560SOL    HW113577   4.332  13.936   2.932
70560SOL    HW213578   4.292  13.988   3.069
70561SOL     OW13579  14.423   6.346  11.650
70561SOL    HW113580  14.372   6.338  11.570
70561SOL    HW213581  14.471   6.429  11.641
70562SOL     OW13582  11.621   0.073  12.877
70562SOL    HW113583  11.635   0.116  12.793
70562SOL    HW213584  11.553   0.008  12.860
70563SOL     OW13585  12.141   0.875   7.758
70563SOL    HW113586  12.133   0.918   7.673
70563SOL    HW213587  12.175   0.788   7.738
70564SOL     OW13588   3.048   7.878  14.030
70564SOL    HW113589   2.991   7.870  13.953
70564SOL    HW213590   3.113   7.943  14.005
70565SOL     OW13591   2.802   5.747   8.798
70565SOL    HW113592   2.879   5.750   8.854
70565SOL    HW213593   2.770   5.657   8.807
70566SOL     OW13594  14.443   1.103   3.575
70566SOL    HW113595  14.534   1.078   3.592
70566SOL    HW213596  14.395   1.020   3.572
70567SOL     OW13597  11.842  10.921   2.269
70567SOL    HW113598  11.907  10.992   2.263
70567SOL    HW213599  11.861  10.865   2.194
70568SOL     OW13600  13.431   5.079   9.768
70568SOL    HW113601  13.503   5.022   9.740
70568SOL    HW213602  13.434   5.076   9.863
70569SOL     OW13603   2.113  11.371   5.960
70569SOL    HW113604   2.126  11.344   6.051
70569SOL    HW213605   2.167  11.449   5.950
70570SOL     OW13606   5.326   5.413  12.266
70570SOL    HW113607   5.330   5.491  12.321
70570SOL    HW213608   5.233   5.391  12.263
70571SOL     OW13609   4.656   2.353   4.007
70571SOL    HW113610   4.732   2.374   3.954
70571SOL    HW213611   4.649   2.257   4.003
70572SOL     OW13612   3.986   0.113   1.367
70572SOL    HW113613   3.946   0.122   1.280
70572SOL    HW213614   4.080   0.102   1.349
70573SOL     OW13615   7.342  12.885   0.082
70573SOL    HW113616   7.309  12.836   0.158
70573SOL    HW213617   7.265  12.898   0.027
70574SOL     OW13618  12.305   7.764   9.296
70574SOL    HW113619  12.348   7.762   9.381
70574SOL    HW213620  12.221   7.722   9.311
70575SOL     OW13621  13.983  11.287   9.087
70575SOL    HW113622  13.907  11.262   9.034
70575SOL    HW213623  14.058  11.259   9.034
70576SOL     OW13624  12.130   6.272  13.191
70576SOL    HW113625  12.141   6.357  13.234
70576SOL    HW213626  12.130   6.293  13.097
70577SOL     OW13627  10.426   1.682   3.845
70577SOL    HW113628  10.483   1.679   3.768
70577SOL    HW213629  10.338   1.693   3.808
70578SOL     OW13630   7.451   3.826   2.268
70578SOL    HW113631   7.425   3.746   2.313
70578SOL    HW213632   7.386   3.891   2.294
70579SOL     OW13633   2.206   4.761   0.375
70579SOL    HW113634   2.135   4.763   0.311
70579SOL    HW213635   2.273   4.705   0.336
70580SOL     OW13636   1.698  13.509   9.240
70580SOL    HW113637   1.677  13.420   9.210
70580SOL    HW213638   1.723  13.498   9.332
70581SOL     OW13639  11.576   0.193   1.788
70581SOL    HW113640  11.491   0.181   1.829
70581SOL    HW213641  11.612   0.104   1.780
70582SOL     OW13642  10.269   2.844  11.986
70582SOL    HW113643  10.361   2.823  11.999
70582SOL    HW213644  10.256   2.927  12.031
70583SOL     OW13645   2.031   0.114   3.598
70583SOL    HW113646   1.976   0.182   3.636
70583SOL    HW213647   1.970   0.044   3.575
70584SOL     OW13648   2.857  14.647   5.796
70584SOL    HW113649   2.904  14.636   5.878
70584SOL    HW213650   2.875  14.736   5.768
70585SOL     OW13651   3.879   0.326   5.678
70585SOL    HW113652   3.905   0.283   5.596
70585SOL    HW213653   3.863   0.417   5.653
70586SOL     OW13654   7.821   2.811  13.445
70586SOL    HW113655   7.750   2.814  13.382
70586SOL    HW213656   7.780   2.779  13.526
70587SOL     OW13657  10.709   6.813   0.430
70587SOL    HW113658  10.708   6.906   0.407
70587SOL    HW213659  10.657   6.772   0.361
70588SOL     OW13660   6.355  13.677  12.455
70588SOL    HW113661   6.299  13.727  12.513
70588SOL    HW213662   6.422  13.640  12.513
70589SOL     OW13663   5.117   2.338   4.891
70589SOL    HW113664   5.122   2.301   4.803
70589SOL    HW213665   5.147   2.429   4.880
70590SOL     OW13666   5.325  10.288   1.779
70590SOL    HW113667   5.364  10.372   1.804
70590SOL    HW213668   5.326  10.236   1.859
70591SOL     OW13669  14.407  11.890  12.460
70591SOL    HW113670  14.433  11.888  12.552
70591SOL    HW213671  14.487  11.866  12.413
70592SOL     OW13672   0.569   6.821   3.597
70592SOL    HW113673   0.482   6.783   3.611
70592SOL    HW213674   0.562   6.911   3.630
70593SOL     OW13675  12.331  10.716   5.853
70593SOL    HW113676  12.330  10.721   5.757
70593SOL    HW213677  12.359  10.627   5.872
70594SOL     OW13678   5.573  13.295  12.460
70594SOL    HW113679   5.569  13.390  12.465
70594SOL    HW213680   5.666  13.274  12.456
70595SOL     OW13681   6.113   2.620   2.485
70595SOL    HW113682   6.099   2.533   2.447
70595SOL    HW213683   6.030   2.642   2.526
70596SOL     OW13684   5.357   9.596   1.765
70596SOL    HW113685   5.413   9.668   1.797
70596SOL    HW213686   5.269   9.633   1.762
70597SOL     OW13687  13.479   3.927   0.098
70597SOL    HW113688  13.466   4.015   0.134
70597SOL    HW213689  13.456   3.935   0.006
70598SOL     OW13690   1.860   4.099   9.585
70598SOL    HW113691   1.883   4.013   9.620
70598SOL    HW213692   1.804   4.080   9.509
70599SOL     OW13693   1.127   8.604   5.908
70599SOL    HW113694   1.114   8.694   5.880
70599SOL    HW213695   1.090   8.551   5.837
70600SOL     OW13696   4.185  11.687   9.150
70600SOL    HW113697   4.154  11.598   9.163
70600SOL    HW213698   4.148  11.737   9.223
70601SOL     OW13699   1.783   9.538   3.494
70601SOL    HW113700   1.783   9.594   3.416
70601SOL    HW213701   1.835   9.587   3.558
70602SOL     OW13702   8.068  12.821   8.292
70602SOL    HW113703   8.093  12.858   8.377
70602SOL    HW213704   8.151  12.813   8.244
70603SOL     OW13705  13.586   8.318  10.238
70603SOL    HW113706  13.500   8.340  10.275
70603SOL    HW213707  13.649   8.344  10.305
70604SOL     OW13708   5.642  14.793   9.728
70604SOL    HW113709   5.643   0.004   9.775
70604SOL    HW213710   5.581  14.738   9.776
70605SOL     OW13711  14.411   5.137   3.012
70605SOL    HW113712  14.503   5.112   3.025
70605SOL    HW213713  14.375   5.144   3.101
70606SOL     OW13714   6.182   3.264  11.644
70606SOL    HW113715   6.242   3.302  11.580
70606SOL    HW213716   6.231   3.263  11.726
70607SOL     OW13717   5.406   6.455   6.094
70607SOL    HW113718   5.341   6.519   6.123
70607SOL    HW213719   5.475   6.508   6.053
70608SOL     OW13720   0.186  10.243   3.412
70608SOL    HW113721   0.141  10.252   3.496
70608SOL    HW213722   0.273  10.209   3.434
70609SOL     OW13723   8.556   9.269   2.146
70609SOL    HW113724   8.608   9.323   2.206
70609SOL    HW213725   8.496   9.331   2.104
70610SOL     OW13726   2.709   4.456   7.804
70610SOL    HW113727   2.659   4.424   7.879
70610SOL    HW213728   2.644   4.466   7.734
70611SOL     OW13729   6.756  12.932  11.770
70611SOL    HW113730   6.672  12.975  11.785
70611SOL    HW213731   6.820  13.004  11.772
70612SOL     OW13732   8.111   7.691   5.277
70612SOL    HW113733   8.141   7.629   5.343
70612SOL    HW213734   8.129   7.777   5.314
70613SOL     OW13735   2.189   5.602   7.295
70613SOL    HW113736   2.259   5.632   7.237
70613SOL    HW213737   2.110   5.642   7.259
70614SOL     OW13738   5.608  11.184   2.036
70614SOL    HW113739   5.574  11.271   2.014
70614SOL    HW213740   5.656  11.197   2.118
70615SOL     OW13741   2.493  14.184   7.360
70615SOL    HW113742   2.511  14.183   7.454
70615SOL    HW213743   2.403  14.155   7.352
70616SOL     OW13744   2.027   2.589  14.715
70616SOL    HW113745   1.982   2.638  14.784
70616SOL    HW213746   1.978   2.508  14.707
70617SOL     OW13747   8.187   3.167   9.908
70617SOL    HW113748   8.111   3.117   9.935
70617SOL    HW213749   8.262   3.111   9.928
70618SOL     OW13750   8.879   2.121   6.324
70618SOL    HW113751   8.895   2.036   6.366
70618SOL    HW213752   8.965   2.151   6.297
70619SOL     OW13753   5.768   8.539   2.401
70619SOL    HW113754   5.721   8.458   2.379
70619SOL    HW213755   5.806   8.521   2.487
70620SOL     OW13756   7.008  12.722   0.336
70620SOL    HW113757   7.103  12.712   0.347
70620SOL    HW213758   6.995  12.729   0.242
70621SOL     OW13759  11.443   7.213   8.496
70621SOL    HW113760  11.452   7.239   8.404
70621SOL    HW213761  11.350   7.190   8.505
70622SOL     OW13762   7.483   1.777  12.453
70622SOL    HW113763   7.438   1.800  12.534
70622SOL    HW213764   7.523   1.858  12.423
70623SOL     OW13765   0.506  13.487   6.361
70623SOL    HW113766   0.440  13.545   6.399
70623SOL    HW213767   0.535  13.433   6.434
70624SOL     OW13768  11.213   3.345   1.735
70624SOL    HW113769  11.269   3.364   1.659
70624SOL    HW213770  11.197   3.251   1.730
70625SOL     OW13771   3.152   0.191  13.455
70625SOL    HW113772   3.130   0.266  13.400
70625SOL    HW213773   3.144   0.116  13.397
70626SOL     OW13774  13.350   0.754   9.210
70626SOL    HW113775  13.416   0.774   9.276
70626SOL    HW213776  13.393   0.692   9.150
70627SOL     OW13777   8.860   5.109  12.512
70627SOL    HW113778   8.806   5.185  12.535
70627SOL    HW213779   8.917   5.096  12.588
70628SOL     OW13780   1.558   4.887   9.856
70628SOL    HW113781   1.519   4.803   9.879
70628SOL    HW213782   1.589   4.923   9.939
70629SOL     OW13783  10.882   1.072   3.234
70629SOL    HW113784  10.831   1.117   3.301
70629SOL    HW213785  10.911   1.141   3.175
70630SOL     OW13786   2.950  11.393  11.859
70630SOL    HW113787   2.891  11.349  11.920
70630SOL    HW213788   2.997  11.322  11.815
70631SOL     OW13789  13.544   2.158  14.699
70631SOL    HW113790  13.553   2.207  14.781
70631SOL    HW213791  13.468   2.198  14.656
70632SOL     OW13792   0.676  11.172   5.383
70632SOL    HW113793   0.725  11.150   5.304
70632SOL    HW213794   0.705  11.107   5.448
70633SOL     OW13795  14.100  14.787   9.112
70633SOL    HW113796  14.074  14.843   9.185
70633SOL    HW213797  14.087  14.698   9.145
70634SOL     OW13798  13.242   6.074  13.475
70634SOL    HW113799  13.261   6.091  13.383
70634SOL    HW213800  13.216   5.981  13.477
70635SOL     OW13801   2.504   5.363   5.275
70635SOL    HW113802   2.576   5.308   5.307
70635SOL    HW213803   2.544   5.415   5.205
70636SOL     OW13804   9.550   6.476   7.221
70636SOL    HW113805   9.612   6.406   7.199
70636SOL    HW213806   9.516   6.451   7.307
70637SOL     OW13807   8.812   5.531   4.374
70637SOL    HW113808   8.778   5.620   4.387
70637SOL    HW213809   8.735   5.479   4.351
70638SOL     OW13810   4.905   5.988  10.061
70638SOL    HW113811   4.993   6.013  10.031
70638SOL    HW213812   4.846   6.042  10.008
70639SOL     OW13813   8.777  13.323   1.024
70639SOL    HW113814   8.812  13.268   1.094
70639SOL    HW213815   8.702  13.275   0.990
70640SOL     OW13816   3.177   0.588   2.210
70640SOL    HW113817   3.234   0.567   2.284
70640SOL    HW213818   3.189   0.682   2.195
70641SOL     OW13819  12.316   8.554   4.010
70641SOL    HW113820  12.374   8.583   3.939
70641SOL    HW213821  12.352   8.471   4.038
70642SOL     OW13822  14.678  12.794   9.012
70642SOL    HW113823  14.627  12.741   9.074
70642SOL    HW213824  14.768  12.790   9.045
70643SOL     OW13825   0.437  10.068  14.715
70643SOL    HW113826   0.481   9.983  14.716
70643SOL    HW213827   0.354  10.054  14.760
70644SOL     OW13828   0.840   3.357   0.760
70644SOL    HW113829   0.812   3.384   0.848
70644SOL    HW213830   0.849   3.438   0.711
70645SOL     OW13831  12.815  11.343   4.903
70645SOL    HW113832  12.811  11.296   4.820
70645SOL    HW213833  12.891  11.307   4.948
70646SOL     OW13834  13.904  10.174  12.370
70646SOL    HW113835  13.979  10.211  12.416
70646SOL    HW213836  13.874  10.245  12.312
70647SOL     OW13837   4.938   7.662   8.127
70647SOL    HW113838   4.988   7.617   8.195
70647SOL    HW213839   4.880   7.595   8.092
70648SOL     OW13840   1.537   6.292  11.885
70648SOL    HW113841   1.548   6.198  11.871
70648SOL    HW213842   1.612   6.318  11.938
70649SOL     OW13843   8.947   9.671   8.954
70649SOL    HW113844   8.992   9.729   9.016
70649SOL    HW213845   8.948   9.719   8.871
70650SOL     OW13846   3.819   8.128   7.087
70650SOL    HW113847   3.824   8.144   7.181
70650SOL    HW213848   3.831   8.215   7.047
70651SOL     OW13849   5.249   9.549  12.106
70651SOL    HW113850   5.230   9.640  12.082
70651SOL    HW213851   5.275   9.507  12.025
70652SOL     OW13852   4.222   0.387   7.427
70652SOL    HW113853   4.280   0.314   7.406
70652SOL    HW213854   4.255   0.460   7.375
70653SOL     OW13855   0.961  11.848  12.180
70653SOL    HW113856   0.869  11.857  12.157
70653SOL    HW213857   0.967  11.761  12.220
70654SOL     OW13858  14.499  13.013   9.350
70654SOL    HW113859  14.554  13.024   9.272
70654SOL    HW213860  14.422  13.068   9.333
70655SOL     OW13861  12.208   3.228  11.877
70655SOL    HW113862  12.302   3.211  11.878
70655SOL    HW213863  12.180   3.212  11.967
70656SOL     OW13864   7.774   5.534  11.341
70656SOL    HW113865   7.697   5.584  11.313
70656SOL    HW213866   7.796   5.480  11.266
70657SOL     OW13867   0.880  12.004   9.601
70657SOL    HW113868   0.908  12.047   9.520
70657SOL    HW213869   0.851  11.917   9.574
70658SOL     OW13870   6.665   1.058   6.764
70658SOL    HW113871   6.737   1.116   6.786
70658SOL    HW213872   6.624   1.037   6.848
70659SOL     OW13873  10.443  10.474   8.887
70659SOL    HW113874  10.535  10.502   8.887
70659SOL    HW213875  10.420  10.468   8.979
70660SOL     OW13876   2.657  14.605  11.930
70660SOL    HW113877   2.719  14.601  12.003
70660SOL    HW213878   2.657  14.517  11.894
70661SOL     OW13879   5.549   3.693  12.484
70661SOL    HW113880   5.495   3.650  12.418
70661SOL    HW213881   5.586   3.621  12.536
70662SOL     OW13882   7.828   0.235   3.719
70662SOL    HW113883   7.850   0.321   3.755
70662SOL    HW213884   7.825   0.177   3.795
70663SOL     OW13885  11.581   5.027   6.548
70663SOL    HW113886  11.555   4.998   6.460
70663SOL    HW213887  11.665   4.983   6.563
70664SOL     OW13888   1.246  12.939   3.459
70664SOL    HW113889   1.313  12.940   3.527
70664SOL    HW213890   1.163  12.936   3.507
70665SOL     OW13891   2.320   3.118   1.505
70665SOL    HW113892   2.361   3.069   1.577
70665SOL    HW213893   2.314   3.054   1.434
70666SOL     OW13894   6.384   4.392   4.847
70666SOL    HW113895   6.407   4.456   4.779
70666SOL    HW213896   6.299   4.421   4.879
70667SOL     OW13897  14.742  13.535   4.116
70667SOL    HW113898  14.790  13.606   4.074
70667SOL    HW213899  14.741  13.465   4.051
70668SOL     OW13900   3.646  13.765   0.134
70668SOL    HW113901   3.568  13.791   0.085
70668SOL    HW213902   3.635  13.671   0.148
70669SOL     OW13903   5.296   1.773   6.142
70669SOL    HW113904   5.308   1.856   6.096
70669SOL    HW213905   5.384   1.736   6.150
70670SOL     OW13906   4.935   8.811  10.420
70670SOL    HW113907   4.960   8.784  10.508
70670SOL    HW213908   5.008   8.866  10.390
70671SOL     OW13909   7.643   7.623   6.545
70671SOL    HW113910   7.730   7.645   6.580
70671SOL    HW213911   7.657   7.542   6.495
70672SOL     OW13912   5.997  12.094  14.039
70672SOL    HW113913   6.021  12.058  13.953
70672SOL    HW213914   5.908  12.126  14.027
70673SOL     OW13915   5.752  10.641  10.399
70673SOL    HW113916   5.685  10.606  10.458
70673SOL    HW213917   5.728  10.607  10.313
70674SOL     OW13918   9.757  14.857   7.409
70674SOL    HW113919   9.683  14.798   7.427
70674SOL    HW213920   9.775   0.027   7.493
70675SOL     OW13921   4.821   1.153   6.809
70675SOL    HW113922   4.811   1.084   6.744
70675SOL    HW213923   4.743   1.145   6.865
70676SOL     OW13924   6.263   3.821   4.493
70676SOL    HW113925   6.235   3.730   4.494
70676SOL    HW213926   6.189   3.869   4.530
70677SOL     OW13927   3.321   6.511  10.318
70677SOL    HW113928   3.341   6.440  10.257
70677SOL    HW213929   3.311   6.468  10.402
70678SOL     OW13930  11.166  11.282  14.547
70678SOL    HW113931  11.205  11.336  14.478
70678SOL    HW213932  11.224  11.292  14.622
70679SOL     OW13933  13.332   9.283  12.239
70679SOL    HW113934  13.237   9.287  12.231
70679SOL    HW213935  13.355   9.196  12.207
70680SOL     OW13936   7.442   4.732  12.664
70680SOL    HW113937   7.501   4.804  12.642
70680SOL    HW213938   7.384   4.769  12.731
70681SOL     OW13939   0.354   0.764   5.051
70681SOL    HW113940   0.349   0.776   5.146
70681SOL    HW213941   0.271   0.721   5.028
70682SOL     OW13942   9.599  14.562   4.199
70682SOL    HW113943   9.521  14.614   4.178
70682SOL    HW213944   9.578  14.521   4.283
70683SOL     OW13945   2.119  10.326  13.413
70683SOL    HW113946   2.165  10.292  13.336
70683SOL    HW213947   2.180  10.310  13.485
70684SOL     OW13948   8.247   8.784   3.674
70684SOL    HW113949   8.201   8.774   3.591
70684SOL    HW213950   8.219   8.707   3.725
70685SOL     OW13951   8.513   2.864   6.162
70685SOL    HW113952   8.539   2.869   6.254
70685SOL    HW213953   8.593   2.886   6.113
70686SOL     OW13954   1.830  13.630   4.132
70686SOL    HW113955   1.746  13.674   4.120
70686SOL    HW213956   1.849  13.591   4.047
70687SOL     OW13957  14.090   8.092  10.957
70687SOL    HW113958  14.028   8.027  10.992
70687SOL    HW213959  14.115   8.057  10.872
70688SOL     OW13960  14.649   6.646   6.945
70688SOL    HW113961  14.575   6.594   6.912
70688SOL    HW213962  14.645   6.727   6.893
70689SOL     OW13963   7.026  10.272   5.337
70689SOL    HW113964   7.025  10.203   5.403
70689SOL    HW213965   7.112  10.264   5.295
70690SOL     OW13966   1.386  11.248  14.166
70690SOL    HW113967   1.316  11.307  14.138
70690SOL    HW213968   1.351  11.160  14.152
70691SOL     OW13969   1.763   7.923   8.883
70691SOL    HW113970   1.830   7.863   8.918
70691SOL    HW213971   1.758   7.993   8.948
70692SOL     OW13972  14.821   2.057   2.955
70692SOL    HW113973  14.821   2.111   2.876
70692SOL    HW213974  14.732   2.022   2.960
70693SOL     OW13975   6.921   5.579   2.943
70693SOL    HW113976   6.857   5.509   2.931
70693SOL    HW213977   6.997   5.537   2.983
70694SOL     OW13978   7.695  11.719  12.058
70694SOL    HW113979   7.693  11.638  12.007
70694SOL    HW213980   7.788  11.741  12.065
70695SOL     OW13981   5.313  11.419   7.292
70695SOL    HW113982   5.294  11.380   7.377
70695SOL    HW213983   5.277  11.508   7.298
70696SOL     OW13984   7.390   3.787   0.845
70696SOL    HW113985   7.410   3.877   0.822
70696SOL    HW213986   7.468   3.737   0.817
70697SOL     OW13987   7.311   3.298   4.074
70697SOL    HW113988   7.396   3.323   4.110
70697SOL    HW213989   7.277   3.378   4.035
70698SOL     OW13990   1.171  12.097   0.223
70698SOL    HW113991   1.208  12.154   0.291
70698SOL    HW213992   1.241  12.034   0.204
70699SOL     OW13993  12.959   8.757   8.916
70699SOL    HW113994  12.979   8.696   8.845
70699SOL    HW213995  13.038   8.811   8.925
70700SOL     OW13996   6.172   2.921   1.144
70700SOL    HW113997   6.201   2.915   1.053
70700SOL    HW213998   6.165   3.015   1.160
70701SOL     OW13999   4.610   6.190  10.269
70701SOL    HW114000   4.531   6.236  10.242
70701SOL    HW214001   4.669   6.198  10.194
70702SOL     OW14002   9.301  11.362   9.943
70702SOL    HW114003   9.279  11.399  10.028
70702SOL    HW214004   9.352  11.284   9.963
70703SOL     OW14005   3.424  12.563   6.222
70703SOL    HW114006   3.461  12.646   6.253
70703SOL    HW214007   3.441  12.564   6.127
70704SOL     OW14008  14.466   2.868  14.841
70704SOL    HW114009  14.389   2.813  14.840
70704SOL    HW214010  14.530   2.821  14.788
70705SOL     OW14011   9.702  10.523   4.561
70705SOL    HW114012   9.648  10.522   4.640
70705SOL    HW214013   9.765  10.594   4.576
70706SOL     OW14014   4.472   0.428  11.828
70706SOL    HW114015   4.456   0.403  11.737
70706SOL    HW214016   4.475   0.344  11.876
70707SOL     OW14017  11.927   6.734   9.194
70707SOL    HW114018  11.854   6.756   9.252
70707SOL    HW214019  11.979   6.672   9.244
70708SOL     OW14020   9.928  11.193   9.172
70708SOL    HW114021   9.864  11.130   9.204
70708SOL    HW214022   9.935  11.175   9.078
70709SOL     OW14023   5.549   3.965   0.911
70709SOL    HW114024   5.459   3.987   0.932
70709SOL    HW214025   5.583   3.924   0.991
70710SOL     OW14026   6.298  13.651   5.825
70710SOL    HW114027   6.286  13.641   5.919
70710SOL    HW214028   6.392  13.642   5.811
70711SOL     OW14029   7.827   8.032   5.638
70711SOL    HW114030   7.738   8.066   5.650
70711SOL    HW214031   7.815   7.939   5.619
70712SOL     OW14032   0.476   2.922  11.408
70712SOL    HW114033   0.550   2.909  11.350
70712SOL    HW214034   0.473   2.842  11.461
70713SOL     OW14035   2.116  11.057  13.857
70713SOL    HW114036   2.062  11.109  13.798
70713SOL    HW214037   2.198  11.045  13.809
70714SOL     OW14038  10.540  13.501   8.029
70714SOL    HW114039  10.509  13.491   8.119
70714SOL    HW214040  10.547  13.411   7.996
70715SOL     OW14041   5.430   3.416   6.108
70715SOL    HW114042   5.450   3.347   6.171
70715SOL    HW214043   5.462   3.496   6.149
70716SOL     OW14044   8.078   3.822   1.700
70716SOL    HW114045   8.047   3.735   1.727
70716SOL    HW214046   8.005   3.860   1.652
70717SOL     OW14047   8.040  12.129   8.858
70717SOL    HW114048   8.016  12.221   8.845
70717SOL    HW214049   8.050  12.094   8.769
70718SOL     OW14050   4.936  10.463   7.452
70718SOL    HW114051   5.026  10.465   7.482
70718SOL    HW214052   4.929  10.381   7.402
70719SOL     OW14053  12.599   3.674  13.861
70719SOL    HW114054  12.633   3.585  13.855
70719SOL    HW214055  12.611   3.710  13.774
70720SOL     OW14056   1.693  13.128  14.847
70720SOL    HW114057   1.750  13.177   0.034
70720SOL    HW214058   1.613  13.113   0.025
70721SOL     OW14059   0.736   5.881   0.540
70721SOL    HW114060   0.698   5.796   0.518
70721SOL    HW214061   0.816   5.885   0.488
70722SOL     OW14062   2.062   5.699  12.266
70722SOL    HW114063   2.027   5.731  12.183
70722SOL    HW214064   2.153   5.730  12.267
70723SOL     OW14065  11.626   2.249   5.592
70723SOL    HW114066  11.566   2.258   5.666
70723SOL    HW214067  11.676   2.170   5.611
70724SOL     OW14068   9.323   8.826   4.790
70724SOL    HW114069   9.300   8.855   4.702
70724SOL    HW214070   9.345   8.734   4.781
70725SOL     OW14071   9.012   0.132   6.930
70725SOL    HW114072   8.927   0.089   6.941
70725SOL    HW214073   9.061   0.072   6.872
70726SOL     OW14074   0.814   4.550  14.453
70726SOL    HW114075   0.780   4.464  14.476
70726SOL    HW214076   0.757   4.581  14.383
70727SOL     OW14077  10.551  11.527   4.724
70727SOL    HW114078  10.628  11.532   4.781
70727SOL    HW214079  10.549  11.611   4.679
70728SOL     OW14080   8.614   7.795   3.414
70728SOL    HW114081   8.529   7.764   3.381
70728SOL    HW214082   8.603   7.798   3.509
70729SOL     OW14083  14.187  14.580  10.769
70729SOL    HW114084  14.254  14.523  10.731
70729SOL    HW214085  14.135  14.522  10.825
70730SOL     OW14086   9.914   6.186  11.441
70730SOL    HW114087   9.879   6.220  11.358
70730SOL    HW214088   9.906   6.260  11.502
70731SOL     OW14089   3.174   5.885   6.349
70731SOL    HW114090   3.230   5.870   6.273
70731SOL    HW214091   3.126   5.803   6.359
70732SOL     OW14092  11.850  10.333   9.676
70732SOL    HW114093  11.780  10.368   9.731
70732SOL    HW214094  11.884  10.410   9.630
70733SOL     OW14095  13.214  14.200   2.490
70733SOL    HW114096  13.307  14.209   2.510
70733SOL    HW214097  13.199  14.106   2.488
70734SOL     OW14098  13.879   1.789   4.646
70734SOL    HW114099  13.883   1.876   4.685
70734SOL    HW214100  13.790   1.759   4.665
70735SOL     OW14101  11.569  13.620  11.372
70735SOL    HW114102  11.505  13.555  11.404
70735SOL    HW214103  11.521  13.702  11.371
70736SOL     OW14104  12.937   3.471  13.086
70736SOL    HW114105  12.943   3.425  13.170
70736SOL    HW214106  12.972   3.559  13.105
70737SOL     OW14107  10.984   6.103  11.982
70737SOL    HW114108  10.962   6.087  11.890
70737SOL    HW214109  11.004   6.017  12.017
70738SOL     OW14110   5.306   9.087  10.374
70738SOL    HW114111   5.236   9.061  10.314
70738SOL    HW214112   5.260   9.112  10.454
70739SOL     OW14113  10.433   7.251   8.794
70739SOL    HW114114  10.414   7.234   8.886
70739SOL    HW214115  10.528   7.237   8.787
70740SOL     OW14116  13.793   8.227   4.855
70740SOL    HW114117  13.878   8.261   4.824
70740SOL    HW214118  13.776   8.151   4.799
70741SOL     OW14119  12.181  10.481  12.590
70741SOL    HW114120  12.234  10.510  12.516
70741SOL    HW214121  12.136  10.402  12.558
70742SOL     OW14122   5.382  14.557  14.027
70742SOL    HW114123   5.471  14.545  14.058
70742SOL    HW214124   5.379  14.512  13.942
70743SOL     OW14125   2.640   3.443  11.292
70743SOL    HW114126   2.706   3.451  11.361
70743SOL    HW214127   2.613   3.351  11.296
70744SOL     OW14128   4.006  12.189  13.017
70744SOL    HW114129   4.013  12.282  13.040
70744SOL    HW214130   4.034  12.143  13.096
70745SOL     OW14131   7.425   5.604  14.089
70745SOL    HW114132   7.375   5.661  14.031
70745SOL    HW214133   7.508   5.591  14.043
70746SOL     OW14134  11.695  13.457   1.905
70746SOL    HW114135  11.759  13.500   1.848
70746SOL    HW214136  11.698  13.507   1.987
70747SOL     OW14137   3.661  12.678   3.547
70747SOL    HW114138   3.681  12.706   3.637
70747SOL    HW214139   3.585  12.621   3.556
70748SOL     OW14140  13.239   5.892  11.602
70748SOL    HW114141  13.180   5.845  11.660
70748SOL    HW214142  13.326   5.868  11.631
70749SOL     OW14143  12.550   9.594   3.711
70749SOL    HW114144  12.600   9.644   3.776
70749SOL    HW214145  12.611   9.582   3.638
70750SOL     OW14146   7.722   3.757   2.269
70750SOL    HW114147   7.630   3.776   2.251
70750SOL    HW214148   7.769   3.795   2.195
70751SOL     OW14149   8.791   4.802   5.909
70751SOL    HW114150   8.874   4.823   5.951
70751SOL    HW214151   8.815   4.763   5.825
70752SOL     OW14152   0.156   5.752  13.919
70752SOL    HW114153   0.245   5.783  13.902
70752SOL    HW214154   0.138   5.690  13.848
70753SOL     OW14155  14.779   0.628  12.971
70753SOL    HW114156  14.817   0.555  12.923
70753SOL    HW214157  14.764   0.696  12.905
70754SOL     OW14158  10.054   6.925  11.506
70754SOL    HW114159  10.026   6.998  11.561
70754SOL    HW214160  10.011   6.941  11.422
70755SOL     OW14161  10.221  13.854   5.395
70755SOL    HW114162  10.174  13.817   5.469
70755SOL    HW214163  10.280  13.784   5.366
70756SOL     OW14164   2.225  12.185   5.007
70756SOL    HW114165   2.251  12.112   5.063
70756SOL    HW214166   2.302  12.203   4.953
70757SOL     OW14167  11.868   4.215  13.775
70757SOL    HW114168  11.892   4.123  13.780
70757SOL    HW214169  11.791   4.217  13.718
70758SOL     OW14170   8.156   1.810  10.035
70758SOL    HW114171   8.242   1.768  10.037
70758SOL    HW214172   8.171   1.898  10.069
70759SOL     OW14173  13.166   3.757  11.341
70759SOL    HW114174  13.084   3.803  11.324
70759SOL    HW214175  13.217   3.818  11.396
70760SOL     OW14176   6.050   3.637  12.866
70760SOL    HW114177   5.991   3.585  12.812
70760SOL    HW214178   6.133   3.590  12.864
70761SOL     OW14179   9.518   8.418  13.731
70761SOL    HW114180   9.437   8.376  13.758
70761SOL    HW214181   9.492   8.478  13.661
70762SOL     OW14182   7.567   7.998   7.372
70762SOL    HW114183   7.581   8.000   7.467
70762SOL    HW214184   7.618   7.923   7.342
70763SOL     OW14185   7.185   7.813   6.389
70763SOL    HW114186   7.176   7.878   6.458
70763SOL    HW214187   7.279   7.801   6.379
70764SOL     OW14188   7.823  14.555   9.272
70764SOL    HW114189   7.808  14.463   9.250
70764SOL    HW214190   7.873  14.552   9.354
70765SOL     OW14191   2.167  11.866   2.017
70765SOL    HW114192   2.214  11.930   2.071
70765SOL    HW214193   2.090  11.913   1.986
70766SOL     OW14194   4.420  14.578   7.739
70766SOL    HW114195   4.326  14.562   7.749
70766SOL    HW214196   4.458  14.492   7.721
70767SOL     OW14197   9.232  12.217  13.003
70767SOL    HW114198   9.231  12.235  13.097
70767SOL    HW214199   9.225  12.303  12.962
70768SOL     OW14200  14.697  12.399   3.935
70768SOL    HW114201  14.769  12.373   3.878
70768SOL    HW214202  14.631  12.331   3.923
70769SOL     OW14203   0.731  12.211   2.983
70769SOL    HW114204   0.737  12.132   3.037
70769SOL    HW214205   0.665  12.189   2.917
70770SOL     OW14206   4.858  11.382  10.843
70770SOL    HW114207   4.942  11.398  10.801
70770SOL    HW214208   4.809  11.330  10.779
70771SOL     OW14209  10.766  10.447   1.715
70771SOL    HW114210  10.725  10.380   1.770
70771SOL    HW214211  10.852  10.411   1.693
70772SOL     OW14212  10.357  11.222   4.328
70772SOL    HW114213  10.369  11.294   4.389
70772SOL    HW214214  10.363  11.262   4.241
70773SOL     OW14215   8.682   3.693   0.787
70773SOL    HW114216   8.595   3.701   0.747
70773SOL    HW214217   8.665   3.658   0.874
70774SOL     OW14218   3.583   8.682   4.119
70774SOL    HW114219   3.488   8.696   4.120
70774SOL    HW214220   3.616   8.743   4.053
70775SOL     OW14221   9.981   1.560  14.365
70775SOL    HW114222  10.036   1.605  14.301
70775SOL    HW214223   9.948   1.629  14.422
70776SOL     OW14224  13.844   7.617  13.610
70776SOL    HW114225  13.755   7.635  13.580
70776SOL    HW214226  13.833   7.556  13.683
70777SOL     OW14227   6.638   6.559   4.629
70777SOL    HW114228   6.609   6.650   4.618
70777SOL    HW214229   6.627   6.542   4.723
70778SOL     OW14230   1.885  12.996  12.506
70778SOL    HW114231   1.805  13.037  12.475
70778SOL    HW214232   1.898  13.031  12.594
70779SOL     OW14233   2.983   7.454   4.190
70779SOL    HW114234   2.940   7.485   4.270
70779SOL    HW214235   2.992   7.359   4.202
70780SOL     OW14236   5.979   6.872  12.022
70780SOL    HW114237   5.976   6.870  11.927
70780SOL    HW214238   6.032   6.796  12.046
70781SOL     OW14239  11.137  14.394   3.220
70781SOL    HW114240  11.103  14.423   3.305
70781SOL    HW214241  11.060  14.391   3.163
70782SOL     OW14242  10.948   0.028   5.437
70782SOL    HW114243  10.901   0.074   5.506
70782SOL    HW214244  10.972   0.096   5.374
70783SOL     OW14245  14.498  11.525   7.751
70783SOL    HW114246  14.549  11.445   7.743
70783SOL    HW214247  14.407  11.496   7.743
70784SOL     OW14248   6.742  13.158   6.129
70784SOL    HW114249   6.757  13.140   6.222
70784SOL    HW214250   6.678  13.229   6.129
70785SOL     OW14251   5.168   3.859   9.952
70785SOL    HW114252   5.208   3.827   9.871
70785SOL    HW214253   5.075   3.868   9.930
70786SOL     OW14254   0.528   0.995   3.551
70786SOL    HW114255   0.474   1.005   3.629
70786SOL    HW214256   0.560   0.905   3.555
70787SOL     OW14257   5.655  11.767   2.964
70787SOL    HW114258   5.742  11.773   3.005
70787SOL    HW214259   5.635  11.857   2.938
70788SOL     OW14260   1.552  13.402   0.706
70788SOL    HW114261   1.569  13.319   0.663
70788SOL    HW214262   1.466  13.430   0.673
70789SOL     OW14263   4.705  13.134   0.240
70789SOL    HW114264   4.705  13.183   0.157
70789SOL    HW214265   4.768  13.181   0.295
70790SOL     OW14266  14.481  10.757   5.829
70790SOL    HW114267  14.504  10.743   5.921
70790SOL    HW214268  14.491  10.670   5.789
70791SOL     OW14269   9.223   2.426  11.821
70791SOL    HW114270   9.167   2.474  11.760
70791SOL    HW214271   9.265   2.494  11.873
70792SOL     OW14272  11.397   4.217   6.012
70792SOL    HW114273  11.345   4.174   6.080
70792SOL    HW214274  11.471   4.256   6.059
70793SOL     OW14275   4.590   1.345   4.816
70793SOL    HW114276   4.602   1.375   4.906
70793SOL    HW214277   4.677   1.349   4.778
70794SOL     OW14278   4.921   1.440   9.427
70794SOL    HW114279   4.836   1.447   9.470
70794SOL    HW214280   4.921   1.353   9.388
70795SOL     OW14281   3.683   0.188   6.086
70795SOL    HW114282   3.644   0.228   6.164
70795SOL    HW214283   3.667   0.094   6.096
70796SOL     OW14284   2.932   8.703   5.543
70796SOL    HW114285   2.882   8.777   5.578
70796SOL    HW214286   3.008   8.743   5.502
70797SOL     OW14287   2.337  11.638  10.854
70797SOL    HW114288   2.256  11.648  10.805
70797SOL    HW214289   2.400  11.605  10.789
70798SOL     OW14290  12.077   9.807   5.313
70798SOL    HW114291  11.986   9.805   5.344
70798SOL    HW214292  12.092   9.721   5.276
70799SOL     OW14293  10.133  11.417  10.532
70799SOL    HW114294  10.066  11.485  10.540
70799SOL    HW214295  10.135  11.397  10.439
70800SOL     OW14296   0.530   0.416  12.241
70800SOL    HW114297   0.558   0.433  12.331
70800SOL    HW214298   0.444   0.375  12.249
70801SOL     OW14299  14.682   3.993   9.982
70801SOL    HW114300  14.668   3.994  10.077
70801SOL    HW214301  14.650   4.078   9.952
70802SOL     OW14302  12.468  14.815   6.411
70802SOL    HW114303  12.549  14.828   6.360
70802SOL    HW214304  12.450  14.721   6.403
70803SOL     OW14305   3.140  12.637   7.995
70803SOL    HW114306   3.146  12.611   7.902
70803SOL    HW214307   3.212  12.699   8.007
70804SOL     OW14308  13.163   2.530  14.422
70804SOL    HW114309  13.206   2.602  14.376
70804SOL    HW214310  13.069   2.543  14.404
70805SOL     OW14311   5.012   6.489   6.918
70805SOL    HW114312   5.103   6.497   6.944
70805SOL    HW214313   5.012   6.509   6.824
70806SOL     OW14314   6.789  11.604  12.069
70806SOL    HW114315   6.775  11.594  11.975
70806SOL    HW214316   6.830  11.522  12.096
70807SOL     OW14317   7.532   4.377   0.913
70807SOL    HW114318   7.583   4.296   0.916
70807SOL    HW214319   7.510   4.395   1.005
70808SOL     OW14320   3.813   1.584   9.050
70808SOL    HW114321   3.846   1.505   9.093
70808SOL    HW214322   3.733   1.555   9.006
70809SOL     OW14323   2.432   1.452   7.899
70809SOL    HW114324   2.431   1.369   7.945
70809SOL    HW214325   2.340   1.467   7.875
70810SOL     OW14326  11.444   2.416   9.071
70810SOL    HW114327  11.364   2.365   9.077
70810SOL    HW214328  11.479   2.396   8.984
70811SOL     OW14329   4.418  12.761   8.094
70811SOL    HW114330   4.353  12.692   8.081
70811SOL    HW214331   4.406  12.820   8.020
70812SOL     OW14332   7.746   9.592   8.048
70812SOL    HW114333   7.829   9.629   8.078
70812SOL    HW214334   7.771   9.524   7.985
70813SOL     OW14335  14.029   5.793  11.290
70813SOL    HW114336  13.981   5.760  11.214
70813SOL    HW214337  14.014   5.887  11.289
70814SOL     OW14338   0.786   5.837   6.176
70814SOL    HW114339   0.798   5.860   6.268
70814SOL    HW214340   0.860   5.781   6.155
70815SOL     OW14341   6.220   2.864   2.251
70815SOL    HW114342   6.154   2.806   2.289
70815SOL    HW214343   6.262   2.905   2.326
70816SOL     OW14344   5.579   6.969   7.344
70816SOL    HW114345   5.599   7.063   7.344
70816SOL    HW214346   5.509   6.959   7.409
70817SOL     OW14347  13.495  10.090   3.587
70817SOL    HW114348  13.541  10.042   3.518
70817SOL    HW214349  13.452  10.163   3.541
70818SOL     OW14350   9.070   5.490  11.633
70818SOL    HW114351   9.061   5.451  11.546
70818SOL    HW214352   9.002   5.448  11.685
70819SOL     OW14353  10.051   4.592   1.323
70819SOL    HW114354  10.014   4.674   1.355
70819SOL    HW214355  10.019   4.526   1.384
70820SOL     OW14356   4.345  13.294   5.480
70820SOL    HW114357   4.274  13.354   5.503
70820SOL    HW214358   4.413  13.313   5.545
70821SOL     OW14359   1.108   3.386  13.174
70821SOL    HW114360   1.113   3.373  13.269
70821SOL    HW214361   1.015   3.400  13.156
70822SOL     OW14362  14.848   6.671   5.189
70822SOL    HW114363  14.862   6.606   5.120
70822SOL    HW214364  14.832   6.753   5.142
70823SOL     OW14365   7.437   1.459   3.223
70823SOL    HW114366   7.429   1.535   3.281
70823SOL    HW214367   7.444   1.384   3.283
70824SOL     OW14368   0.054  12.111   5.023
70824SOL    HW114369   0.050  12.066   4.939
70824SOL    HW214370  14.836  12.132   5.044
70825SOL     OW14371   0.991  12.115   3.920
70825SOL    HW114372   0.993  12.178   3.848
70825SOL    HW214373   0.905  12.074   3.914
70826SOL     OW14374   0.366   0.505   3.829
70826SOL    HW114375   0.424   0.563   3.779
70826SOL    HW214376   0.378   0.419   3.788
70827SOL     OW14377  14.417  12.480  12.390
70827SOL    HW114378  14.334  12.527  12.399
70827SOL    HW214379  14.415  12.415  12.461
70828SOL     OW14380  12.283   2.761   9.606
70828SOL    HW114381  12.231   2.720   9.537
70828SOL    HW214382  12.223   2.768   9.680
70829SOL     OW14383   7.144   2.956   8.214
70829SOL    HW114384   7.176   3.046   8.219
70829SOL    HW214385   7.061   2.958   8.261
70830SOL     OW14386  13.412  10.532  10.928
70830SOL    HW114387  13.385  10.615  10.889
70830SOL    HW214388  13.347  10.515  10.996
70831SOL     OW14389   4.574  13.041  14.150
70831SOL    HW114390   4.544  13.131  14.159
70831SOL    HW214391   4.503  12.988  14.184
70832SOL     OW14392   8.258   6.542   4.497
70832SOL    HW114393   8.267   6.447   4.496
70832SOL    HW214394   8.294   6.569   4.582
70833SOL     OW14395   4.060   0.507   4.222
70833SOL    HW114396   4.035   0.572   4.156
70833SOL    HW214397   3.977   0.479   4.260
70834SOL     OW14398  13.648   2.228   4.860
70834SOL    HW114399  13.682   2.253   4.946
70834SOL    HW214400  13.561   2.269   4.856
70835SOL     OW14401  11.779   3.750  14.124
70835SOL    HW114402  11.748   3.806  14.053
70835SOL    HW214403  11.807   3.670  14.081
70836SOL     OW14404  12.066   4.882   1.338
70836SOL    HW114405  12.109   4.805   1.373
70836SOL    HW214406  12.098   4.954   1.392
70837SOL     OW14407  12.998  12.238   2.337
70837SOL    HW114408  13.058  12.284   2.396
70837SOL    HW214409  12.914  12.239   2.383
70838SOL     OW14410   7.619   3.390   7.110
70838SOL    HW114411   7.636   3.484   7.107
70838SOL    HW214412   7.525   3.383   7.127
70839SOL     OW14413  11.830   1.667  12.772
70839SOL    HW114414  11.844   1.632  12.860
70839SOL    HW214415  11.781   1.748  12.786
70840SOL     OW14416   3.492  12.391  10.284
70840SOL    HW114417   3.528  12.452  10.349
70840SOL    HW214418   3.416  12.437  10.248
70841SOL     OW14419   3.836   5.239   0.803
70841SOL    HW114420   3.839   5.156   0.851
70841SOL    HW214421   3.911   5.236   0.744
70842SOL     OW14422   7.015   2.460  12.054
70842SOL    HW114423   6.959   2.519  12.005
70842SOL    HW214424   6.956   2.415  12.115
70843SOL     OW14425  12.664  13.726  14.410
70843SOL    HW114426  12.721  13.786  14.458
70843SOL    HW214427  12.637  13.775  14.333
70844SOL     OW14428   3.003   8.618  10.880
70844SOL    HW114429   2.994   8.525  10.904
70844SOL    HW214430   3.098   8.630  10.868
70845SOL     OW14431   2.911  14.521   9.899
70845SOL    HW114432   2.979  14.558   9.842
70845SOL    HW214433   2.947  14.531   9.987
70846SOL     OW14434  13.921   0.671   8.055
70846SOL    HW114435  14.014   0.681   8.036
70846SOL    HW214436  13.909   0.713   8.140
70847SOL     OW14437   5.439   0.404   6.341
70847SOL    HW114438   5.496   0.356   6.281
70847SOL    HW214439   5.453   0.496   6.320
70848SOL     OW14440   5.109   9.928   0.906
70848SOL    HW114441   5.129   9.856   0.966
70848SOL    HW214442   5.038   9.976   0.949
70849SOL     OW14443   1.400  10.262  11.867
70849SOL    HW114444   1.330  10.279  11.804
70849SOL    HW214445   1.355  10.228  11.944
70850SOL     OW14446  12.615   1.812  12.910
70850SOL    HW114447  12.569   1.728  12.915
70850SOL    HW214448  12.561   1.866  12.852
70851SOL     OW14449  13.577   6.291   2.021
70851SOL    HW114450  13.545   6.362   1.966
70851SOL    HW214451  13.524   6.215   1.996
70852SOL     OW14452   0.220  10.320   0.791
70852SOL    HW114453   0.184  10.233   0.775
70852SOL    HW214454   0.176  10.351   0.870
70853SOL     OW14455  14.793   9.137   0.480
70853SOL    HW114456  14.808   9.059   0.533
70853SOL    HW214457  14.860   9.134   0.413
70854SOL     OW14458   3.052  11.688  10.745
70854SOL    HW114459   2.967  11.662  10.780
70854SOL    HW214460   3.097  11.606  10.726
70855SOL     OW14461   5.019   1.179   9.014
70855SOL    HW114462   5.093   1.186   8.953
70855SOL    HW214463   4.942   1.197   8.961
70856SOL     OW14464   9.314  12.261  10.673
70856SOL    HW114465   9.356  12.311  10.602
70856SOL    HW214466   9.249  12.321  10.709
70857SOL     OW14467   5.538  12.047  14.822
70857SOL    HW114468   5.560  11.962  14.860
70857SOL    HW214469   5.613  12.102  14.843
70858SOL     OW14470   3.447   7.288   0.463
70858SOL    HW114471   3.358   7.255   0.470
70858SOL    HW214472   3.445   7.347   0.387
70859SOL     OW14473   1.462   2.817  13.740
70859SOL    HW114474   1.511   2.820  13.659
70859SOL    HW214475   1.527   2.829  13.809
70860SOL     OW14476   9.797  10.256  11.696
70860SOL    HW114477   9.825  10.317  11.628
70860SOL    HW214478   9.869  10.256  11.759
70861SOL     OW14479  12.643  14.703   9.065
70861SOL    HW114480  12.633  14.614   9.099
70861SOL    HW214481  12.737  14.716   9.058
70862SOL     OW14482   3.443   5.856   0.250
70862SOL    HW114483   3.503   5.872   0.177
70862SOL    HW214484   3.470   5.918   0.318
70863SOL     OW14485   6.620   4.716  12.856
70863SOL    HW114486   6.606   4.799  12.900
70863SOL    HW214487   6.554   4.657  12.894
70864SOL     OW14488   7.078   2.532   4.382
70864SOL    HW114489   7.146   2.516   4.447
70864SOL    HW214490   7.124   2.532   4.298
70865SOL     OW14491   8.646   6.563  13.488
70865SOL    HW114492   8.642   6.561  13.584
70865SOL    HW214493   8.623   6.653  13.465
70866SOL     OW14494   3.000   3.071  14.563
70866SOL    HW114495   3.071   3.111  14.614
70866SOL    HW214496   2.935   3.045  14.629
70867SOL     OW14497  12.195   7.985   2.939
70867SOL    HW114498  12.242   7.921   2.885
70867SOL    HW214499  12.168   7.936   3.016
70868SOL     OW14500  12.045   0.087  10.607
70868SOL    HW114501  12.129   0.121  10.578
70868SOL    HW214502  12.062  14.867  10.625
70869SOL     OW14503   6.770   5.871   4.661
70869SOL    HW114504   6.862   5.856   4.680
70869SOL    HW214505   6.737   5.786   4.633
70870SOL     OW14506  13.956   4.562   4.960
70870SOL    HW114507  13.981   4.652   4.982
70870SOL    HW214508  13.927   4.567   4.869
70871SOL     OW14509   5.974   1.780  11.624
70871SOL    HW114510   6.007   1.826  11.702
70871SOL    HW214511   5.931   1.849  11.573
70872SOL     OW14512   4.756   2.944   5.016
70872SOL    HW114513   4.812   3.015   4.983
70872SOL    HW214514   4.777   2.869   4.960
70873SOL     OW14515  10.995  14.206  11.387
70873SOL    HW114516  10.973  14.288  11.431
70873SOL    HW214517  11.090  14.198  11.397
70874SOL     OW14518  14.708  13.174   3.401
70874SOL    HW114519  14.665  13.239   3.345
70874SOL    HW214520  14.801  13.180   3.377
70875SOL     OW14521   4.023   1.868  10.174
70875SOL    HW114522   4.010   1.916  10.092
70875SOL    HW214523   4.043   1.937  10.238
70876SOL     OW14524   9.537  13.594   4.936
70876SOL    HW114525   9.521  13.587   4.842
70876SOL    HW214526   9.467  13.651   4.968
70877SOL     OW14527   9.518  10.592   4.763
70877SOL    HW114528   9.452  10.602   4.695
70877SOL    HW214529   9.478  10.532   4.826
70878SOL     OW14530  10.719   9.117   7.013
70878SOL    HW114531  10.775   9.044   6.984
70878SOL    HW214532  10.688   9.090   7.099
70879SOL     OW14533  10.863  13.564   1.993
70879SOL    HW114534  10.793  13.575   1.928
70879SOL    HW214535  10.942  13.549   1.941
70880SOL     OW14536   6.244  11.544  11.884
70880SOL    HW114537   6.234  11.585  11.797
70880SOL    HW214538   6.181  11.473  11.884
70881SOL     OW14539  14.469   5.011  10.183
70881SOL    HW114540  14.508   5.090  10.221
70881SOL    HW214541  14.523   4.939  10.216
70882SOL     OW14542   2.005  11.119   6.498
70882SOL    HW114543   2.031  11.178   6.427
70882SOL    HW214544   2.076  11.126   6.562
70883SOL     OW14545  12.589  10.262  12.200
70883SOL    HW114546  12.591  10.294  12.291
70883SOL    HW214547  12.670  10.211  12.191
70884SOL     OW14548   8.825   0.571   3.318
70884SOL    HW114549   8.758   0.625   3.359
70884SOL    HW214550   8.799   0.481   3.337
70885SOL     OW14551   5.475   3.335   9.723
70885SOL    HW114552   5.508   3.424   9.717
70885SOL    HW214553   5.469   3.305   9.633
70886SOL     OW14554  11.908  13.884  13.890
70886SOL    HW114555  11.918  13.889  13.985
70886SOL    HW214556  11.886  13.973  13.863
70887SOL     OW14557   3.926  13.755   1.452
70887SOL    HW114558   3.925  13.774   1.358
70887SOL    HW214559   3.953  13.663   1.458
70888SOL     OW14560   2.368  11.508   8.998
70888SOL    HW114561   2.367  11.482   8.906
70888SOL    HW214562   2.341  11.429   9.046
70889SOL     OW14563  14.449   6.590   4.920
70889SOL    HW114564  14.473   6.683   4.913
70889SOL    HW214565  14.354   6.590   4.926
70890SOL     OW14566  11.294   9.126  12.841
70890SOL    HW114567  11.309   9.069  12.766
70890SOL    HW214568  11.329   9.211  12.814
70891SOL     OW14569   7.570  14.124   1.175
70891SOL    HW114570   7.629  14.176   1.229
70891SOL    HW214571   7.529  14.063   1.237
70892SOL     OW14572  10.044   1.804   8.673
70892SOL    HW114573   9.977   1.777   8.736
70892SOL    HW214574  10.024   1.896   8.655
70893SOL     OW14575   3.379  12.738   7.881
70893SOL    HW114576   3.464  12.734   7.925
70893SOL    HW214577   3.385  12.815   7.825
70894SOL     OW14578   9.566  10.736  12.539
70894SOL    HW114579   9.504  10.805  12.562
70894SOL    HW214580   9.652  10.777  12.553
70895SOL     OW14581   3.654  11.591   8.364
70895SOL    HW114582   3.585  11.557   8.419
70895SOL    HW214583   3.665  11.682   8.391
70896SOL     OW14584  12.923  12.042   1.901
70896SOL    HW114585  12.979  12.019   1.826
70896SOL    HW214586  12.901  12.134   1.888
70897SOL     OW14587   6.709   8.531  12.947
70897SOL    HW114588   6.719   8.564  12.858
70897SOL    HW214589   6.771   8.582  12.999
70898SOL     OW14590   1.772   7.394   8.125
70898SOL    HW114591   1.744   7.415   8.214
70898SOL    HW214592   1.860   7.358   8.135
70899SOL     OW14593   7.180  10.617   4.834
70899SOL    HW114594   7.134  10.665   4.765
70899SOL    HW214595   7.119  10.616   4.907
70900SOL     OW14596   4.664  13.744  12.114
70900SOL    HW114597   4.622  13.674  12.065
70900SOL    HW214598   4.655  13.717  12.206
70901SOL     OW14599  10.995   3.386   6.266
70901SOL    HW114600  11.070   3.408   6.210
70901SOL    HW214601  10.922   3.436   6.229
70902SOL     OW14602   2.714   4.196   8.172
70902SOL    HW114603   2.800   4.168   8.142
70902SOL    HW214604   2.664   4.114   8.179
70903SOL     OW14605  13.985  11.264   1.555
70903SOL    HW114606  14.014  11.179   1.586
70903SOL    HW214607  13.984  11.319   1.633
70904SOL     OW14608   1.728  13.390   7.376
70904SOL    HW114609   1.672  13.315   7.359
70904SOL    HW214610   1.703  13.455   7.310
70905SOL     OW14611   3.100  14.562  10.118
70905SOL    HW114612   3.051  14.553  10.200
70905SOL    HW214613   3.190  14.577  10.146
70906SOL     OW14614   5.710  14.735   5.658
70906SOL    HW114615   5.763  14.720   5.580
70906SOL    HW214616   5.673  14.822   5.646
70907SOL     OW14617   5.213   3.963   3.306
70907SOL    HW114618   5.229   3.906   3.230
70907SOL    HW214619   5.119   3.955   3.321
70908SOL     OW14620  10.618   1.501   7.486
70908SOL    HW114621  10.591   1.495   7.395
70908SOL    HW214622  10.678   1.427   7.498
70909SOL     OW14623   7.711   9.628   7.098
70909SOL    HW114624   7.692   9.720   7.080
70909SOL    HW214625   7.631   9.594   7.137
70910SOL     OW14626  13.114   4.241   0.188
70910SOL    HW114627  13.093   4.334   0.187
70910SOL    HW214628  13.136   4.220   0.098
70911SOL     OW14629   3.630   9.293  12.084
70911SOL    HW114630   3.573   9.317  12.157
70911SOL    HW214631   3.646   9.199  12.096
70912SOL     OW14632  10.429   2.632   5.610
70912SOL    HW114633  10.405   2.670   5.695
70912SOL    HW214634  10.508   2.680   5.584
70913SOL     OW14635   0.894   5.796  10.047
70913SOL    HW114636   0.944   5.814   9.967
70913SOL    HW214637   0.803   5.795  10.019
70914SOL     OW14638   7.629   4.364   2.053
70914SOL    HW114639   7.647   4.271   2.066
70914SOL    HW214640   7.607   4.371   1.960
70915SOL     OW14641  11.459  10.986   1.776
70915SOL    HW114642  11.408  11.067   1.784
70915SOL    HW214643  11.401  10.918   1.808
70916SOL     OW14644   8.370  10.752  12.848
70916SOL    HW114645   8.311  10.753  12.773
70916SOL    HW214646   8.338  10.822  12.905
70917SOL     OW14647   1.071   5.720   3.718
70917SOL    HW114648   1.152   5.717   3.768
70917SOL    HW214649   1.096   5.691   3.630
70918SOL     OW14650   5.291  13.404   1.911
70918SOL    HW114651   5.257  13.475   1.965
70918SOL    HW214652   5.386  13.410   1.921
70919SOL     OW14653   5.964   2.935   4.068
70919SOL    HW114654   5.971   2.972   4.156
70919SOL    HW214655   5.911   2.856   4.080
70920SOL     OW14656  11.351   9.560   2.918
70920SOL    HW114657  11.327   9.509   2.840
70920SOL    HW214658  11.440   9.531   2.938
70921SOL     OW14659   8.199   3.332   7.362
70921SOL    HW114660   8.118   3.380   7.345
70921SOL    HW214661   8.267   3.398   7.358
70922SOL     OW14662  12.590   5.951   7.538
70922SOL    HW114663  12.642   5.937   7.458
70922SOL    HW214664  12.643   5.913   7.608
70923SOL     OW14665   4.822   2.553   4.382
70923SOL    HW114666   4.842   2.644   4.403
70923SOL    HW214667   4.776   2.520   4.460
70924SOL     OW14668   6.956  12.588   2.877
70924SOL    HW114669   6.922  12.671   2.910
70924SOL    HW214670   6.907  12.573   2.796
70925SOL     OW14671  11.792  14.814   7.433
70925SOL    HW114672  11.858  14.824   7.501
70925SOL    HW214673  11.802   0.020   7.379
70926SOL     OW14674   6.084   8.970   8.348
70926SOL    HW114675   6.176   8.944   8.339
70926SOL    HW214676   6.088   9.062   8.371
70927SOL     OW14677   8.349   8.894  11.304
70927SOL    HW114678   8.392   8.961  11.251
70927SOL    HW214679   8.414   8.824  11.311
70928SOL     OW14680  12.096  11.065  12.394
70928SOL    HW114681  12.155  10.994  12.369
70928SOL    HW214682  12.030  11.024  12.450
70929SOL     OW14683   8.065   4.959   8.439
70929SOL    HW114684   8.033   4.927   8.354
70929SOL    HW214685   8.149   5.001   8.418
70930SOL     OW14686  14.530   1.147  12.970
70930SOL    HW114687  14.544   1.057  12.939
70930SOL    HW214688  14.514   1.197  12.889
70931SOL     OW14689   6.219  13.975   6.481
70931SOL    HW114690   6.278  14.020   6.542
70931SOL    HW214691   6.131  13.996   6.514
70932SOL     OW14692  13.573  11.751   6.673
70932SOL    HW114693  13.513  11.707   6.733
70932SOL    HW214694  13.538  11.840   6.666
70933SOL     OW14695   3.450   7.444   3.544
70933SOL    HW114696   3.428   7.378   3.610
70933SOL    HW214697   3.367   7.464   3.501
70934SOL     OW14698  13.422   3.472  10.003
70934SOL    HW114699  13.345   3.414  10.002
70934SOL    HW214700  13.462   3.455  10.088
70935SOL     OW14701   7.251   7.656  11.877
70935SOL    HW114702   7.287   7.607  11.804
70935SOL    HW214703   7.326   7.672  11.934
70936SOL     OW14704   4.937   4.362  14.720
70936SOL    HW114705   4.933   4.346  14.815
70936SOL    HW214706   4.997   4.295  14.687
70937SOL     OW14707   8.633   1.805   7.741
70937SOL    HW114708   8.716   1.762   7.760
70937SOL    HW214709   8.656   1.886   7.696
70938SOL     OW14710   2.571   6.803   2.343
70938SOL    HW114711   2.555   6.791   2.250
70938SOL    HW214712   2.637   6.873   2.348
70939SOL     OW14713   7.596  12.661   8.041
70939SOL    HW114714   7.548  12.727   8.091
70939SOL    HW214715   7.685  12.695   8.036
70940SOL     OW14716  10.512   4.925   8.689
70940SOL    HW114717  10.527   4.986   8.616
70940SOL    HW214718  10.600   4.906   8.722
70941SOL     OW14719   8.365   0.208  12.964
70941SOL    HW114720   8.398   0.229  12.877
70941SOL    HW214721   8.435   0.156  13.004
70942SOL     OW14722  13.700   3.701   2.345
70942SOL    HW114723  13.662   3.621   2.380
70942SOL    HW214724  13.736   3.676   2.260
70943SOL     OW14725  11.984   1.263  13.464
70943SOL    HW114726  12.075   1.278  13.491
70943SOL    HW214727  11.932   1.307  13.531
70944SOL     OW14728  13.396   8.499   7.494
70944SOL    HW114729  13.370   8.432   7.557
70944SOL    HW214730  13.345   8.577   7.517
70945SOL     OW14731   3.039   1.426   0.077
70945SOL    HW114732   3.127   1.401   0.103
70945SOL    HW214733   3.026   1.512   0.116
70946SOL     OW14734   4.149   0.588  10.408
70946SOL    HW114735   4.129   0.534  10.484
70946SOL    HW214736   4.191   0.529  10.346
70947SOL     OW14737  12.360   4.248   4.414
70947SOL    HW114738  12.421   4.217   4.480
70947SOL    HW214739  12.410   4.312   4.363
70948SOL     OW14740   3.795   7.081   2.620
70948SOL    HW114741   3.805   7.177   2.619
70948SOL    HW214742   3.839   7.053   2.701
70949SOL     OW14743   9.692   0.700  13.658
70949SOL    HW114744   9.692   0.646  13.579
70949SOL    HW214745   9.644   0.647  13.723
70950SOL     OW14746  13.715   4.051   6.795
70950SOL    HW114747  13.738   4.000   6.717
70950SOL    HW214748  13.691   4.137   6.761
70951SOL     OW14749  13.256   6.554   6.772
70951SOL    HW114750  13.254   6.479   6.712
70951SOL    HW214751  13.209   6.623   6.725
70952SOL     OW14752   8.444  11.331   3.449
70952SOL    HW114753   8.457  11.259   3.511
70952SOL    HW214754   8.530  11.345   3.410
70953SOL     OW14755   7.610   3.839  12.582
70953SOL    HW114756   7.655   3.774  12.528
70953SOL    HW214757   7.680   3.885  12.628
70954SOL     OW14758  10.244   5.140  14.378
70954SOL    HW114759  10.306   5.167  14.447
70954SOL    HW214760  10.233   5.046  14.392
70955SOL     OW14761   9.111   2.809  11.095
70955SOL    HW114762   9.034   2.864  11.079
70955SOL    HW214763   9.185   2.867  11.080
70956SOL     OW14764  10.574   1.405  13.906
70956SOL    HW114765  10.601   1.496  13.897
70956SOL    HW214766  10.568   1.391  14.001
70957SOL     OW14767   0.494   8.320   5.052
70957SOL    HW114768   0.422   8.282   5.101
70957SOL    HW214769   0.460   8.404   5.021
70958SOL     OW14770   5.000   1.612   0.625
70958SOL    HW114771   4.956   1.692   0.653
70958SOL    HW214772   5.082   1.642   0.585
70959SOL     OW14773  11.777   3.712   2.122
70959SOL    HW114774  11.830   3.633   2.133
70959SOL    HW214775  11.687   3.680   2.121
70960SOL     OW14776  11.824  12.045   8.822
70960SOL    HW114777  11.769  12.111   8.779
70960SOL    HW214778  11.897  12.031   8.762
70961SOL     OW14779   7.550  13.582   3.695
70961SOL    HW114780   7.508  13.659   3.734
70961SOL    HW214781   7.572  13.526   3.770
70962SOL     OW14782   8.081  11.259   2.437
70962SOL    HW114783   8.107  11.339   2.483
70962SOL    HW214784   8.141  11.192   2.471
70963SOL     OW14785   2.080  12.665  12.148
70963SOL    HW114786   2.097  12.598  12.082
70963SOL    HW214787   2.123  12.633  12.227
70964SOL     OW14788   1.305   7.187   0.349
70964SOL    HW114789   1.303   7.119   0.416
70964SOL    HW214790   1.286   7.268   0.397
70965SOL     OW14791  11.886   1.221   2.065
70965SOL    HW114792  11.945   1.258   1.999
70965SOL    HW214793  11.924   1.245   2.149
70966SOL     OW14794   2.437   3.581  12.123
70966SOL    HW114795   2.362   3.531  12.156
70966SOL    HW214796   2.439   3.561  12.029
70967SOL     OW14797   7.922   6.646  14.186
70967SOL    HW114798   7.921   6.554  14.213
70967SOL    HW214799   7.862   6.650  14.112
70968SOL     OW14800   5.447   0.835   1.601
70968SOL    HW114801   5.366   0.792   1.626
70968SOL    HW214802   5.485   0.866   1.684
70969SOL     OW14803   2.473   3.322   3.289
70969SOL    HW114804   2.464   3.229   3.272
70969SOL    HW214805   2.567   3.336   3.301
70970SOL     OW14806   3.842   2.850  10.122
70970SOL    HW114807   3.782   2.907  10.170
70970SOL    HW214808   3.788   2.776  10.096
70971SOL     OW14809  12.365  12.267   9.549
70971SOL    HW114810  12.317  12.319   9.485
70971SOL    HW214811  12.439  12.230   9.500
70972SOL     OW14812   5.141   3.885   7.000
70972SOL    HW114813   5.175   3.915   6.916
70972SOL    HW214814   5.156   3.790   7.000
70973SOL     OW14815   8.148  13.483   0.571
70973SOL    HW114816   8.099  13.506   0.492
70973SOL    HW214817   8.117  13.545   0.637
70974SOL     OW14818  13.952   7.980   7.247
70974SOL    HW114819  13.931   7.896   7.289
70974SOL    HW214820  13.877   7.999   7.191
70975SOL     OW14821   4.258   6.111   6.078
70975SOL    HW114822   4.263   6.172   6.152
70975SOL    HW214823   4.165   6.094   6.066
70976SOL     OW14824   4.694  11.627   1.105
70976SOL    HW114825   4.605  11.634   1.139
70976SOL    HW214826   4.712  11.713   1.068
70977SOL     OW14827   9.276   2.622  14.084
70977SOL    HW114828   9.310   2.633  14.173
70977SOL    HW214829   9.340   2.666  14.028
70978SOL     OW14830   5.900  12.152   6.837
70978SOL    HW114831   5.934  12.128   6.751
70978SOL    HW214832   5.898  12.070   6.887
70979SOL     OW14833   3.757   7.986   7.649
70979SOL    HW114834   3.795   8.049   7.710
70979SOL    HW214835   3.666   8.015   7.639
70980SOL     OW14836  14.453   8.820  12.512
70980SOL    HW114837  14.452   8.910  12.546
70980SOL    HW214838  14.489   8.768  12.584
70981SOL     OW14839  14.745  11.683   4.610
70981SOL    HW114840  14.810  11.703   4.543
70981SOL    HW214841  14.797  11.669   4.690
70982SOL     OW14842   3.272   8.068   9.635
70982SOL    HW114843   3.259   7.984   9.678
70982SOL    HW214844   3.226   8.061   9.552
70983SOL     OW14845  12.946   1.197   3.120
70983SOL    HW114846  12.983   1.121   3.075
70983SOL    HW214847  12.852   1.184   3.116
70984SOL     OW14848   9.611   4.638   1.739
70984SOL    HW114849   9.676   4.682   1.794
70984SOL    HW214850   9.565   4.580   1.800
70985SOL     OW14851  10.394  13.423   9.408
70985SOL    HW114852  10.442  13.377   9.340
70985SOL    HW214853  10.423  13.514   9.401
70986SOL     OW14854   4.255   8.961  10.326
70986SOL    HW114855   4.252   8.964  10.230
70986SOL    HW214856   4.214   9.042  10.354
70987SOL     OW14857   8.539   4.414   0.162
70987SOL    HW114858   8.591   4.420   0.242
70987SOL    HW214859   8.504   4.325   0.163
70988SOL     OW14860   1.877  13.499   6.464
70988SOL    HW114861   1.860  13.464   6.551
70988SOL    HW214862   1.907  13.423   6.413
70989SOL     OW14863  11.267  12.054   5.459
70989SOL    HW114864  11.269  12.148   5.444
70989SOL    HW214865  11.190  12.024   5.410
70990SOL     OW14866   7.392   1.754   5.259
70990SOL    HW114867   7.343   1.709   5.327
70990SOL    HW214868   7.483   1.725   5.270
70991SOL     OW14869   0.186  10.459  12.522
70991SOL    HW114870   0.110  10.514  12.538
70991SOL    HW214871   0.242  10.471  12.599
70992SOL     OW14872   8.780  12.550  12.577
70992SOL    HW114873   8.841  12.624  12.579
70992SOL    HW214874   8.696  12.589  12.552
70993SOL     OW14875   8.762   5.492  13.021
70993SOL    HW114876   8.816   5.570  13.036
70993SOL    HW214877   8.730   5.501  12.932
70994SOL     OW14878   7.704   1.081  10.166
70994SOL    HW114879   7.773   1.124  10.216
70994SOL    HW214880   7.740   1.072  10.078
70995SOL     OW14881   6.272   2.500  13.076
70995SOL    HW114882   6.265   2.460  13.163
70995SOL    HW214883   6.266   2.594  13.094
70996SOL     OW14884   6.985   7.378  14.208
70996SOL    HW114885   6.912   7.424  14.166
70996SOL    HW214886   7.053   7.375  14.141
70997SOL     OW14887   0.206   6.564   4.293
70997SOL    HW114888   0.157   6.568   4.210
70997SOL    HW214889   0.247   6.477   4.292
70998SOL     OW14890  10.819  11.787   7.738
70998SOL    HW114891  10.731  11.805   7.769
70998SOL    HW214892  10.853  11.872   7.710
70999SOL     OW14893  10.725  14.504   3.022
70999SOL    HW114894  10.781  14.429   3.004
70999SOL    HW214895  10.641  14.466   3.050
71000SOL     OW14896   6.272  10.841  11.465
71000SOL    HW114897   6.367  10.848  11.453
71000SOL    HW214898   6.251  10.750  11.444
71001SOL     OW14899  10.849  10.834   7.713
71001SOL    HW114900  10.937  10.797   7.721
71001SOL    HW214901  10.825  10.820   7.621
71002SOL     OW14902   6.664  11.564  12.752
71002SOL    HW114903   6.753  11.542  12.724
71002SOL    HW214904   6.670  11.577  12.846
71003SOL     OW14905   2.354   8.269   4.857
71003SOL    HW114906   2.342   8.342   4.796
71003SOL    HW214907   2.268   8.229   4.864
71004SOL     OW14908  10.255   5.838   0.331
71004SOL    HW114909  10.333   5.788   0.355
71004SOL    HW214910  10.268   5.925   0.369
71005SOL     OW14911  13.110   2.107  11.146
71005SOL    HW114912  13.063   2.190  11.148
71005SOL    HW214913  13.132   2.094  11.054
71006SOL     OW14914   8.601   1.013   1.644
71006SOL    HW114915   8.634   1.014   1.733
71006SOL    HW214916   8.664   0.961   1.595
71007SOL     OW14917   6.182   0.919   5.017
71007SOL    HW114918   6.147   0.853   4.957
71007SOL    HW214919   6.258   0.877   5.057
71008SOL     OW14920   6.347  11.470  14.818
71008SOL    HW114921   6.269  11.479  14.764
71008SOL    HW214922   6.316  11.431   0.027
71009SOL     OW14923  12.259   7.828   4.511
71009SOL    HW114924  12.245   7.741   4.548
71009SOL    HW214925  12.262   7.814   4.417
71010SOL     OW14926   3.470   6.048   8.588
71010SOL    HW114927   3.504   5.961   8.567
71010SOL    HW214928   3.385   6.052   8.544
71011SOL     OW14929   3.826   8.568  10.792
71011SOL    HW114930   3.809   8.497  10.853
71011SOL    HW214931   3.835   8.646  10.847
71012SOL     OW14932   6.753   1.823  13.329
71012SOL    HW114933   6.792   1.740  13.303
71012SOL    HW214934   6.709   1.805  13.412
71013SOL     OW14935   1.582  12.376   4.415
71013SOL    HW114936   1.523  12.384   4.341
71013SOL    HW214937   1.570  12.458   4.464
71014SOL     OW14938  13.929   7.461   9.622
71014SOL    HW114939  13.959   7.525   9.558
71014SOL    HW214940  13.847   7.497   9.655
71015SOL     OW14941   9.464   4.612  10.210
71015SOL    HW114942   9.371   4.627  10.226
71015SOL    HW214943   9.470   4.519  10.188
71016SOL     OW14944  12.122   2.011  10.201
71016SOL    HW114945  12.029   2.026  10.219
71016SOL    HW214946  12.168   2.069  10.262
71017SOL     OW14947   2.244   5.354   6.198
71017SOL    HW114948   2.230   5.373   6.105
71017SOL    HW214949   2.334   5.323   6.203
71018SOL     OW14950   3.750   1.112  13.610
71018SOL    HW114951   3.677   1.050  13.604
71018SOL    HW214952   3.773   1.130  13.520
71019SOL     OW14953  11.967   8.010   2.762
71019SOL    HW114954  11.970   7.930   2.710
71019SOL    HW214955  12.027   7.993   2.835
71020SOL     OW14956   4.687   5.778   0.751
71020SOL    HW114957   4.617   5.777   0.816
71020SOL    HW214958   4.674   5.698   0.700
71021SOL     OW14959   6.280  12.211   0.799
71021SOL    HW114960   6.355  12.216   0.739
71021SOL    HW214961   6.205  12.235   0.746
71022SOL     OW14962   6.567   5.432   8.980
71022SOL    HW114963   6.533   5.515   8.946
71022SOL    HW214964   6.521   5.365   8.929
71023SOL     OW14965  10.781   1.217   5.239
71023SOL    HW114966  10.854   1.159   5.262
71023SOL    HW214967  10.745   1.180   5.159
71024SOL     OW14968  12.314   9.456   0.887
71024SOL    HW114969  12.292   9.374   0.842
71024SOL    HW214970  12.281   9.525   0.830
71025SOL     OW14971  10.148   5.300   3.423
71025SOL    HW114972  10.053   5.311   3.418
71025SOL    HW214973  10.175   5.287   3.332
71026SOL     OW14974  14.328   2.963  13.413
71026SOL    HW114975  14.289   3.048  13.434
71026SOL    HW214976  14.422   2.979  13.415
71027SOL     OW14977   5.368  12.937   9.678
71027SOL    HW114978   5.463  12.943   9.670
71027SOL    HW214979   5.342  13.015   9.726
71028SOL     OW14980   8.550   1.757   5.429
71028SOL    HW114981   8.573   1.843   5.395
71028SOL    HW214982   8.624   1.701   5.402
71029SOL     OW14983  11.772   0.885  10.491
71029SOL    HW114984  11.684   0.858  10.516
71029SOL    HW214985  11.830   0.821  10.531
71030SOL     OW14986  11.532   2.046  12.189
71030SOL    HW114987  11.508   1.956  12.211
71030SOL    HW214988  11.460   2.076  12.133
71031SOL     OW14989  12.443  11.650  13.341
71031SOL    HW114990  12.423  11.704  13.264
71031SOL    HW214991  12.385  11.685  13.409
71032SOL     OW14992  14.829  10.176   9.684
71032SOL    HW114993   0.041  10.131   9.677
71032SOL    HW214994  14.847  10.252   9.740
71033SOL     OW14995   9.634   7.888   6.903
71033SOL    HW114996   9.685   7.847   6.973
71033SOL    HW214997   9.640   7.982   6.921
71034SOL     OW14998  14.048  10.927   6.199
71034SOL    HW114999  14.114  10.975   6.149
71034SOL    HW215000  14.094  10.851   6.233
71035SOL     OW15001   3.003   6.109   8.742
71035SOL    HW115002   2.975   6.190   8.785
71035SOL    HW215003   2.924   6.078   8.697
71036SOL     OW15004   8.660  14.405   3.143
71036SOL    HW115005   8.750  14.412   3.175
71036SOL    HW215006   8.641  14.312   3.144
71037SOL     OW15007   8.508  11.622  12.987
71037SOL    HW115008   8.518  11.694  12.924
71037SOL    HW215009   8.467  11.662  13.063
71038SOL     OW15010   4.322   6.696   1.185
71038SOL    HW115011   4.285   6.757   1.121
71038SOL    HW215012   4.416   6.708   1.177
71039SOL     OW15013  10.525   4.105   0.294
71039SOL    HW115014  10.503   4.019   0.328
71039SOL    HW215015  10.510   4.165   0.368
71040SOL     OW15016   0.269   5.998  13.384
71040SOL    HW115017   0.261   5.947  13.304
71040SOL    HW215018   0.267   6.090  13.355
71041SOL     OW15019   8.363   5.355   5.632
71041SOL    HW115020   8.412   5.414   5.574
71041SOL    HW215021   8.367   5.270   5.588
71042SOL     OW15022   7.892   8.249   7.069
71042SOL    HW115023   7.833   8.182   7.035
71042SOL    HW215024   7.863   8.262   7.160
71043SOL     OW15025   7.599   7.058   8.230
71043SOL    HW115026   7.549   7.124   8.182
71043SOL    HW215027   7.633   6.999   8.162
71044SOL     OW15028   0.582   0.691   6.942
71044SOL    HW115029   0.597   0.624   6.876
71044SOL    HW215030   0.617   0.652   7.023
71045SOL     OW15031  13.601   9.119   1.144
71045SOL    HW115032  13.645   9.190   1.097
71045SOL    HW215033  13.585   9.052   1.077
71046SOL     OW15034  10.035  11.761   9.439
71046SOL    HW115035  10.033  11.754   9.344
71046SOL    HW215036  10.014  11.853   9.457
71047SOL     OW15037   9.683   4.616  13.827
71047SOL    HW115038   9.778   4.619  13.839
71047SOL    HW215039   9.657   4.706  13.811
71048SOL     OW15040   8.423  12.981   7.534
71048SOL    HW115041   8.375  13.039   7.594
71048SOL    HW215042   8.480  12.930   7.591
71049SOL     OW15043   9.607   3.731   7.205
71049SOL    HW115044   9.680   3.766   7.154
71049SOL    HW215045   9.541   3.706   7.140
71050SOL     OW15046   6.793   0.855   9.331
71050SOL    HW115047   6.832   0.820   9.411
71050SOL    HW215048   6.842   0.935   9.314
71051SOL     OW15049   0.352   9.027   5.355
71051SOL    HW115050   0.400   8.948   5.332
71051SOL    HW215051   0.263   9.012   5.321
71052SOL     OW15052   9.253   3.940   3.495
71052SOL    HW115053   9.212   3.889   3.565
71052SOL    HW215054   9.339   3.963   3.531
71053SOL     OW15055   3.855   1.027  12.841
71053SOL    HW115056   3.941   0.999  12.873
71053SOL    HW215057   3.844   0.981  12.758
71054SOL     OW15058   1.234   0.687  11.187
71054SOL    HW115059   1.293   0.676  11.262
71054SOL    HW215060   1.217   0.598  11.157
71055SOL     OW15061  13.977   9.314   5.446
71055SOL    HW115062  13.970   9.394   5.499
71055SOL    HW215063  13.984   9.346   5.356
71056SOL     OW15064   4.046   7.940  10.824
71056SOL    HW115065   4.112   7.949  10.893
71056SOL    HW215066   4.027   7.846  10.821
71057SOL     OW15067   8.414  13.110   3.070
71057SOL    HW115068   8.421  13.066   3.155
71057SOL    HW215069   8.334  13.075   3.031
71058SOL     OW15070   8.718   2.234  14.671
71058SOL    HW115071   8.726   2.297  14.742
71058SOL    HW215072   8.807   2.225  14.637
71059SOL     OW15073  14.431  10.213   3.176
71059SOL    HW115074  14.357  10.273   3.169
71059SOL    HW215075  14.504  10.268   3.205
71060SOL     OW15076   0.684   7.155  11.991
71060SOL    HW115077   0.681   7.209  12.070
71060SOL    HW215078   0.596   7.118  11.984
71061SOL     OW15079  13.922   4.653  10.219
71061SOL    HW115080  13.829   4.639  10.201
71061SOL    HW215081  13.924   4.677  10.312
71062SOL     OW15082   7.293  12.446   7.151
71062SOL    HW115083   7.234  12.519   7.168
71062SOL    HW215084   7.256  12.400   7.076
71063SOL     OW15085   9.266   9.543  14.503
71063SOL    HW115086   9.242   9.474  14.565
71063SOL    HW215087   9.187   9.595  14.493
71064SOL     OW15088   5.747  11.471   2.011
71064SOL    HW115089   5.752  11.436   2.100
71064SOL    HW215090   5.693  11.549   2.019
71065SOL     OW15091   6.980   2.308   0.726
71065SOL    HW115092   6.922   2.384   0.726
71065SOL    HW215093   7.066   2.344   0.749
71066SOL     OW15094   5.230  13.238   4.707
71066SOL    HW115095   5.300  13.240   4.772
71066SOL    HW215096   5.226  13.147   4.678
71067SOL     OW15097  11.696   8.262   4.823
71067SOL    HW115098  11.711   8.272   4.729
71067SOL    HW215099  11.635   8.332   4.845
71068SOL     OW15100   2.546   7.972  13.408
71068SOL    HW115101   2.586   7.896  13.366
71068SOL    HW215102   2.464   7.939  13.445
71069SOL     OW15103   3.040   6.390  14.337
71069SOL    HW115104   3.065   6.334  14.264
71069SOL    HW215105   3.121   6.403  14.386
71070SOL     OW15106   1.991   4.944   4.020
71070SOL    HW115107   1.899   4.968   4.028
71070SOL    HW215108   2.021   4.990   3.942
71071SOL     OW15109  13.106   3.529   8.949
71071SOL    HW115110  13.046   3.456   8.962
71071SOL    HW215111  13.173   3.495   8.890
71072SOL     OW15112  14.399   7.689   4.927
71072SOL    HW115113  14.358   7.766   4.888
71072SOL    HW215114  14.378   7.697   5.021
71073SOL     OW15115   2.813   2.532  10.579
71073SOL    HW115116   2.779   2.483  10.504
71073SOL    HW215117   2.904   2.550  10.557
71074SOL     OW15118   4.517   8.941   6.304
71074SOL    HW115119   4.525   8.849   6.277
71074SOL    HW215120   4.444   8.942   6.365
71075SOL     OW15121   8.602  10.020   0.439
71075SOL    HW115122   8.629  10.047   0.527
71075SOL    HW215123   8.628  10.093   0.383
71076SOL     OW15124   2.635  10.658  10.653
71076SOL    HW115125   2.651  10.751  10.636
71076SOL    HW215126   2.621  10.621  10.566
71077SOL     OW15127   5.688   2.427  13.829
71077SOL    HW115128   5.630   2.433  13.905
71077SOL    HW215129   5.684   2.514  13.789
71078SOL     OW15130   0.888   0.233   8.479
71078SOL    HW115131   0.962   0.269   8.430
71078SOL    HW215132   0.926   0.202   8.561
71079SOL     OW15133   8.773  13.647   6.852
71079SOL    HW115134   8.805  13.566   6.813
71079SOL    HW215135   8.744  13.700   6.778
71080SOL     OW15136   9.781   1.557  12.042
71080SOL    HW115137   9.865   1.513  12.027
71080SOL    HW215138   9.785   1.635  11.988
71081SOL     OW15139   5.675  11.860   3.878
71081SOL    HW115140   5.757  11.816   3.856
71081SOL    HW215141   5.607  11.806   3.836
71082SOL     OW15142   0.972   8.042   6.047
71082SOL    HW115143   0.885   8.032   6.008
71082SOL    HW215144   0.967   8.123   6.098
71083SOL     OW15145   3.261   8.583  11.365
71083SOL    HW115146   3.252   8.586  11.461
71083SOL    HW215147   3.298   8.496  11.347
71084SOL     OW15148   5.014  11.037  14.799
71084SOL    HW115149   4.995  10.963  14.742
71084SOL    HW215150   4.946  11.034  14.867
71085SOL     OW15151  12.027   3.625   6.177
71085SOL    HW115152  12.090   3.554   6.188
71085SOL    HW215153  11.948   3.583   6.144
71086SOL     OW15154   1.519   2.429   9.843
71086SOL    HW115155   1.465   2.506   9.862
71086SOL    HW215156   1.512   2.376   9.923
71087SOL     OW15157   8.015   7.712   1.342
71087SOL    HW115158   7.971   7.711   1.426
71087SOL    HW215159   8.043   7.622   1.328
71088SOL     OW15160   1.002   1.027  14.089
71088SOL    HW115161   1.093   1.055  14.094
71088SOL    HW215162   0.982   1.025  13.996
71089SOL     OW15163  10.921   0.838   4.469
71089SOL    HW115164  10.930   0.912   4.409
71089SOL    HW215165  11.008   0.796   4.468
71090SOL     OW15166  14.538   7.600  11.011
71090SOL    HW115167  14.584   7.683  10.993
71090SOL    HW215168  14.590   7.559  11.079
71091SOL     OW15169   9.836   9.984   4.136
71091SOL    HW115170   9.929  10.008   4.138
71091SOL    HW215171   9.791  10.059   4.175
71092SOL     OW15172  14.348   0.101   4.651
71092SOL    HW115173  14.392   0.065   4.728
71092SOL    HW215174  14.318   0.024   4.602
71093SOL     OW15175  13.457   8.768  12.803
71093SOL    HW115176  13.408   8.768  12.885
71093SOL    HW215177  13.504   8.685  12.803
71094SOL     OW15178  10.260   5.269   5.210
71094SOL    HW115179  10.275   5.176   5.223
71094SOL    HW215180  10.180   5.288   5.259
71095SOL     OW15181   1.013   9.968   4.345
71095SOL    HW115182   1.049   9.879   4.339
71095SOL    HW215183   0.919   9.956   4.352
71096SOL     OW15184   9.489  12.604   7.122
71096SOL    HW115185   9.451  12.683   7.159
71096SOL    HW215186   9.557  12.635   7.063
71097SOL     OW15187   0.823  13.774   0.367
71097SOL    HW115188   0.832  13.864   0.336
71097SOL    HW215189   0.773  13.781   0.448
71098SOL     OW15190  14.438   0.527   0.038
71098SOL    HW115191  14.366   0.526   0.100
71098SOL    HW215192  14.397   0.551  14.827
71099SOL     OW15193  13.272   2.075   6.169
71099SOL    HW115194  13.290   2.006   6.233
71099SOL    HW215195  13.237   2.028   6.093
71100SOL     OW15196   1.830  12.369   4.043
71100SOL    HW115197   1.856  12.412   4.124
71100SOL    HW215198   1.752  12.318   4.067
71101SOL     OW15199   9.935   0.773   0.007
71101SOL    HW115200   9.884   0.698  14.849
71101SOL    HW215201   9.905   0.845  14.824
71102SOL     OW15202   1.774   0.392  12.840
71102SOL    HW115203   1.844   0.420  12.898
71102SOL    HW215204   1.787   0.297  12.830
71103SOL     OW15205   8.495  13.552  14.100
71103SOL    HW115206   8.582  13.553  14.061
71103SOL    HW215207   8.435  13.571  14.028
71104SOL     OW15208   0.822   7.260   2.474
71104SOL    HW115209   0.826   7.168   2.448
71104SOL    HW215210   0.769   7.261   2.554
71105SOL     OW15211  11.883  10.310   6.588
71105SOL    HW115212  11.879  10.333   6.680
71105SOL    HW215213  11.820  10.368   6.546
71106SOL     OW15214   8.881  14.026  11.001
71106SOL    HW115215   8.796  14.022  11.045
71106SOL    HW215216   8.860  14.028  10.908
71107SOL     OW15217   1.481  13.193  14.196
71107SOL    HW115218   1.403  13.171  14.145
71107SOL    HW215219   1.520  13.267  14.149
71108SOL     OW15220   3.965   3.526   0.695
71108SOL    HW115221   3.959   3.537   0.790
71108SOL    HW215222   3.881   3.557   0.662
71109SOL     OW15223   0.457   3.220  14.366
71109SOL    HW115224   0.495   3.308  14.367
71109SOL    HW215225   0.496   3.178  14.290
71110SOL     OW15226   6.788  12.725   6.981
71110SOL    HW115227   6.697  12.745   7.002
71110SOL    HW215228   6.795  12.740   6.887
71111SOL     OW15229  10.025   2.593   5.022
71111SOL    HW115230   9.993   2.512   5.061
71111SOL    HW215231   9.995   2.662   5.081
71112SOL     OW15232   9.646  10.635   9.566
71112SOL    HW115233   9.604  10.632   9.651
71112SOL    HW215234   9.584  10.681   9.510
71113SOL     OW15235   2.402   6.017  11.326
71113SOL    HW115236   2.476   6.029  11.266
71113SOL    HW215237   2.327   6.003  11.268
71114SOL     OW15238  12.635  11.447   2.016
71114SOL    HW115239  12.560  11.428   2.073
71114SOL    HW215240  12.638  11.373   1.956
71115SOL     OW15241  11.616   5.899  11.711
71115SOL    HW115242  11.555   5.831  11.685
71115SOL    HW215243  11.571   5.981  11.691
71116SOL     OW15244   7.509  14.212   4.732
71116SOL    HW115245   7.510  14.140   4.795
71116SOL    HW215246   7.556  14.178   4.656
71117SOL     OW15247   4.756   9.716  14.772
71117SOL    HW115248   4.749   9.677  14.859
71117SOL    HW215249   4.832   9.673  14.732
71118SOL     OW15250   8.208   1.712   8.769
71118SOL    HW115251   8.152   1.638   8.792
71118SOL    HW215252   8.297   1.675   8.770
71119SOL     OW15253  10.201   7.778   0.583
71119SOL    HW115254  10.188   7.826   0.665
71119SOL    HW215255  10.221   7.845   0.518
71120SOL     OW15256   7.172  14.650   7.564
71120SOL    HW115257   7.200  14.693   7.644
71120SOL    HW215258   7.158  14.722   7.501
71121SOL     OW15259   1.999  10.747   1.933
71121SOL    HW115260   2.003  10.697   1.851
71121SOL    HW215261   2.064  10.706   1.990
71122SOL     OW15262   6.105   4.411   7.481
71122SOL    HW115263   6.069   4.442   7.564
71122SOL    HW215264   6.031   4.413   7.420
71123SOL     OW15265  10.856   4.629   3.445
71123SOL    HW115266  10.879   4.722   3.450
71123SOL    HW215267  10.877   4.604   3.355
71124SOL     OW15268   0.194  11.187   9.949
71124SOL    HW115269   0.258  11.170  10.019
71124SOL    HW215270   0.241  11.242   9.887
71125SOL     OW15271   6.000   2.222  10.282
71125SOL    HW115272   6.049   2.182  10.210
71125SOL    HW215273   5.957   2.298  10.243
71126SOL     OW15274   9.557  14.664   2.063
71126SOL    HW115275   9.611  14.602   2.015
71126SOL    HW215276   9.469  14.625   2.061
71127SOL     OW15277  10.120   5.592   7.766
71127SOL    HW115278  10.154   5.579   7.854
71127SOL    HW215279  10.072   5.675   7.771
71128SOL     OW15280   6.656   4.702   2.387
71128SOL    HW115281   6.653   4.678   2.479
71128SOL    HW215282   6.746   4.683   2.360
71129SOL     OW15283   5.573   5.284  11.279
71129SOL    HW115284   5.592   5.274  11.372
71129SOL    HW215285   5.479   5.298  11.274
71130SOL     OW15286  10.894   0.055   2.997
71130SOL    HW115287  10.959   0.116   2.962
71130SOL    HW215288  10.825   0.053   2.931
71131SOL     OW15289   4.558  11.959   2.485
71131SOL    HW115290   4.513  11.875   2.494
71131SOL    HW215291   4.648  11.936   2.462
71132SOL     OW15292   2.101   5.240  10.003
71132SOL    HW115293   2.083   5.166  10.061
71132SOL    HW215294   2.014   5.270   9.975
71133SOL     OW15295   5.489   7.530   8.785
71133SOL    HW115296   5.458   7.451   8.830
71133SOL    HW215297   5.523   7.498   8.702
71134SOL     OW15298   9.237   4.413  10.497
71134SOL    HW115299   9.148   4.426  10.462
71134SOL    HW215300   9.267   4.332  10.456
71135SOL     OW15301  14.502   9.810   8.520
71135SOL    HW115302  14.467   9.898   8.535
71135SOL    HW215303  14.468   9.758   8.593
71136SOL     OW15304  10.931   1.512  12.374
71136SOL    HW115305  10.974   1.542  12.294
71136SOL    HW215306  10.934   1.417  12.370
71137SOL     OW15307   0.431   2.814  12.128
71137SOL    HW115308   0.476   2.809  12.212
71137SOL    HW215309   0.338   2.813  12.150
71138SOL     OW15310   4.916   9.614   7.970
71138SOL    HW115311   4.922   9.615   7.874
71138SOL    HW215312   4.822   9.607   7.988
71139SOL     OW15313   1.285   9.730   2.773
71139SOL    HW115314   1.311   9.646   2.736
71139SOL    HW215315   1.190   9.734   2.760
71140SOL     OW15316   8.799   0.867  10.325
71140SOL    HW115317   8.826   0.901  10.240
71140SOL    HW215318   8.725   0.810  10.306
71141SOL     OW15319   6.958   2.686  12.354
71141SOL    HW115320   6.941   2.592  12.352
71141SOL    HW215321   7.047   2.695  12.318
71142SOL     OW15322   2.832   2.216  13.561
71142SOL    HW115323   2.836   2.305  13.525
71142SOL    HW215324   2.738   2.196  13.563
71143SOL     OW15325   8.202   9.601   2.643
71143SOL    HW115326   8.121   9.587   2.693
71143SOL    HW215327   8.186   9.681   2.593
71144SOL     OW15328   1.709  10.995  12.903
71144SOL    HW115329   1.675  10.996  12.993
71144SOL    HW215330   1.691  11.082  12.869
71145SOL     OW15331   8.988  11.872   4.285
71145SOL    HW115332   8.913  11.921   4.318
71145SOL    HW215333   9.048  11.939   4.252
71146SOL     OW15334   6.386   4.586   4.664
71146SOL    HW115335   6.468   4.613   4.622
71146SOL    HW215336   6.318   4.610   4.601
71147SOL     OW15337  10.219   9.018   2.827
71147SOL    HW115338  10.235   8.924   2.832
71147SOL    HW215339  10.268   9.055   2.900
71148SOL     OW15340  10.603  14.373   8.697
71148SOL    HW115341  10.566  14.290   8.729
71148SOL    HW215342  10.538  14.439   8.722
71149SOL     OW15343  12.486   0.175   4.874
71149SOL    HW115344  12.407   0.230   4.884
71149SOL    HW215345  12.462   0.091   4.913
71150SOL     OW15346  11.656   4.668  14.551
71150SOL    HW115347  11.733   4.623  14.517
71150SOL    HW215348  11.649   4.746  14.495
71151SOL     OW15349  11.736  10.425  11.843
71151SOL    HW115350  11.778  10.438  11.758
71151SOL    HW215351  11.756  10.504  11.893
71152SOL     OW15352  11.797  14.590  10.751
71152SOL    HW115353  11.721  14.531  10.747
71152SOL    HW215354  11.838  14.571  10.835
71153SOL     OW15355   1.314   2.728   6.802
71153SOL    HW115356   1.242   2.664   6.809
71153SOL    HW215357   1.368   2.712   6.878
71154SOL     OW15358  12.436  13.752  10.310
71154SOL    HW115359  12.476  13.813  10.372
71154SOL    HW215360  12.366  13.802  10.268
71155SOL     OW15361  10.485   7.578   8.867
71155SOL    HW115362  10.459   7.499   8.819
71155SOL    HW215363  10.559   7.549   8.921
71156SOL     OW15364   4.555   4.328   5.635
71156SOL    HW115365   4.512   4.341   5.551
71156SOL    HW215366   4.486   4.344   5.700
71157SOL     OW15367  13.564   5.485  11.322
71157SOL    HW115368  13.611   5.558  11.362
71157SOL    HW215369  13.544   5.516  11.233
71158SOL     OW15370  10.286   4.296  14.741
71158SOL    HW115371  10.191   4.289  14.738
71158SOL    HW215372  10.314   4.218  14.789
71159SOL     OW15373  11.627   7.076   8.980
71159SOL    HW115374  11.612   6.983   8.994
71159SOL    HW215375  11.557   7.119   9.030
71160SOL     OW15376   8.776   7.154  10.118
71160SOL    HW115377   8.841   7.223  10.110
71160SOL    HW215378   8.710   7.175  10.052
71161SOL     OW15379  10.832   2.792  14.356
71161SOL    HW115380  10.863   2.742  14.432
71161SOL    HW215381  10.739   2.805  14.373
71162SOL     OW15382   1.125   8.169   7.481
71162SOL    HW115383   1.108   8.261   7.499
71162SOL    HW215384   1.215   8.155   7.512
71163SOL     OW15385   1.733   5.631   0.278
71163SOL    HW115386   1.666   5.682   0.233
71163SOL    HW215387   1.787   5.697   0.323
71164SOL     OW15388  13.262  12.709   7.962
71164SOL    HW115389  13.296  12.671   7.881
71164SOL    HW215390  13.229  12.633   8.011
71165SOL     OW15391  10.684   1.131   4.401
71165SOL    HW115392  10.651   1.046   4.431
71165SOL    HW215393  10.764   1.110   4.353
71166SOL     OW15394   1.489   3.535   4.208
71166SOL    HW115395   1.485   3.471   4.279
71166SOL    HW215396   1.575   3.576   4.217
71167SOL     OW15397   7.429   0.649   4.606
71167SOL    HW115398   7.395   0.682   4.523
71167SOL    HW215399   7.352   0.613   4.650
71168SOL     OW15400  11.945   3.555   5.584
71168SOL    HW115401  11.888   3.593   5.518
71168SOL    HW215402  11.904   3.578   5.668
71169SOL     OW15403  13.315  12.378   5.348
71169SOL    HW115404  13.381  12.370   5.416
71169SOL    HW215405  13.352  12.333   5.272
71170SOL     OW15406  13.640   6.023  11.368
71170SOL    HW115407  13.687   6.002  11.288
71170SOL    HW215408  13.559   6.065  11.339
71171SOL     OW15409   1.332   2.734   9.104
71171SOL    HW115410   1.392   2.723   9.178
71171SOL    HW215411   1.369   2.680   9.035
71172SOL     OW15412   1.336   8.671   3.823
71172SOL    HW115413   1.408   8.668   3.760
71172SOL    HW215414   1.291   8.753   3.804
71173SOL     OW15415   5.275   2.252  13.073
71173SOL    HW115416   5.278   2.222  13.164
71173SOL    HW215417   5.350   2.310  13.064
71174SOL     OW15418   5.941  13.042   5.018
71174SOL    HW115419   5.975  12.982   4.951
71174SOL    HW215420   6.014  13.101   5.037
71175SOL     OW15421   3.430   2.854   4.018
71175SOL    HW115422   3.348   2.894   4.049
71175SOL    HW215423   3.404   2.801   3.944
71176SOL     OW15424   8.104  10.988   1.799
71176SOL    HW115425   8.136  10.913   1.849
71176SOL    HW215426   8.123  11.064   1.855
71177SOL     OW15427   5.327   5.627   1.839
71177SOL    HW115428   5.328   5.594   1.748
71177SOL    HW215429   5.374   5.710   1.835
71178SOL     OW15430  14.096   5.341   3.274
71178SOL    HW115431  14.153   5.413   3.248
71178SOL    HW215432  14.155   5.268   3.290
71179SOL     OW15433   0.602   7.601  10.183
71179SOL    HW115434   0.544   7.622  10.256
71179SOL    HW215435   0.614   7.506  10.189
71180SOL     OW15436   3.455  10.935  13.187
71180SOL    HW115437   3.543  10.902  13.207
71180SOL    HW215438   3.443  10.916  13.094
71181SOL     OW15439   9.477  11.170  13.518
71181SOL    HW115440   9.570  11.169  13.496
71181SOL    HW215441   9.445  11.083  13.492
71182SOL     OW15442   5.643   2.231   4.323
71182SOL    HW115443   5.706   2.195   4.386
71182SOL    HW215444   5.593   2.295   4.373
71183SOL     OW15445   2.029   7.298  10.800
71183SOL    HW115446   2.078   7.216  10.802
71183SOL    HW215447   2.025   7.321  10.707
71184SOL     OW15448   4.983   9.092  14.041
71184SOL    HW115449   5.002   9.087  13.947
71184SOL    HW215450   4.908   9.150  14.047
71185SOL     OW15451  13.017   2.306   8.109
71185SOL    HW115452  13.077   2.232   8.098
71185SOL    HW215453  12.935   2.266   8.140
71186SOL     OW15454   1.069   2.810   3.959
71186SOL    HW115455   1.115   2.886   3.923
71186SOL    HW215456   1.061   2.829   4.053
71187SOL     OW15457   8.007   1.459   3.313
71187SOL    HW115458   8.054   1.541   3.297
71187SOL    HW215459   7.998   1.420   3.227
71188SOL     OW15460   2.654   3.309   4.412
71188SOL    HW115461   2.726   3.257   4.448
71188SOL    HW215462   2.636   3.269   4.327
71189SOL     OW15463   9.934   2.699  13.797
71189SOL    HW115464   9.971   2.786  13.780
71189SOL    HW215465   9.927   2.659  13.710
71190SOL     OW15466  11.273  13.726   1.160
71190SOL    HW115467  11.233  13.747   1.076
71190SOL    HW215468  11.322  13.645   1.144
71191SOL     OW15469  13.092   1.234  13.381
71191SOL    HW115470  13.157   1.269  13.321
71191SOL    HW215471  13.090   1.140  13.363
71192SOL     OW15472  12.494   1.590   3.017
71192SOL    HW115473  12.501   1.635   3.101
71192SOL    HW215474  12.404   1.607   2.989
71193SOL     OW15475  11.500   4.120   2.609
71193SOL    HW115476  11.411   4.141   2.582
71193SOL    HW215477  11.490   4.070   2.690
71194SOL     OW15478   0.280   9.415   2.284
71194SOL    HW115479   0.195   9.451   2.263
71194SOL    HW215480   0.266   9.365   2.365
71195SOL     OW15481   5.760  10.963   0.569
71195SOL    HW115482   5.702  10.888   0.574
71195SOL    HW215483   5.707  11.033   0.532
71196SOL     OW15484   6.611  11.345   8.455
71196SOL    HW115485   6.661  11.264   8.468
71196SOL    HW215486   6.546  11.322   8.389
71197SOL     OW15487   6.632  13.794  12.340
71197SOL    HW115488   6.567  13.745  12.390
71197SOL    HW215489   6.600  13.792  12.250
71198SOL     OW15490  14.690  10.738   4.045
71198SOL    HW115491  14.602  10.767   4.021
71198SOL    HW215492  14.712  10.788   4.124
71199SOL     OW15493  14.755  10.682   0.395
71199SOL    HW115494  14.804  10.622   0.451
71199SOL    HW215495  14.807  10.687   0.314
71200SOL     OW15496  14.464  14.458  12.604
71200SOL    HW115497  14.489  14.453  12.696
71200SOL    HW215498  14.368  14.455  12.605
71201SOL     OW15499  12.999   5.300   9.316
71201SOL    HW115500  12.958   5.271   9.398
71201SOL    HW215501  12.980   5.230   9.254
71202SOL     OW15502   4.014  13.437  12.503
71202SOL    HW115503   3.993  13.488  12.425
71202SOL    HW215504   3.930  13.403  12.533
71203SOL     OW15505   2.471   2.430  13.713
71203SOL    HW115506   2.559   2.393  13.711
71203SOL    HW215507   2.415   2.357  13.743
71204SOL     OW15508   2.323  11.253   8.351
71204SOL    HW115509   2.268  11.313   8.401
71204SOL    HW215510   2.399  11.238   8.406
71205SOL     OW15511  11.755   3.457   3.965
71205SOL    HW115512  11.684   3.487   4.021
71205SOL    HW215513  11.732   3.487   3.877
71206SOL     OW15514   3.360   3.499   0.914
71206SOL    HW115515   3.420   3.430   0.886
71206SOL    HW215516   3.278   3.478   0.870
71207SOL     OW15517   2.660   0.703  10.279
71207SOL    HW115518   2.570   0.674  10.293
71207SOL    HW215519   2.714   0.635  10.320
71208SOL     OW15520   4.255  14.318   0.468
71208SOL    HW115521   4.192  14.260   0.425
71208SOL    HW215522   4.323  14.333   0.403
71209SOL     OW15523   5.670  13.851   3.558
71209SOL    HW115524   5.732  13.878   3.491
71209SOL    HW215525   5.621  13.930   3.579
71210SOL     OW15526   4.643   2.958  13.317
71210SOL    HW115527   4.672   2.869  13.335
71210SOL    HW215528   4.714   2.996  13.264
71211SOL     OW15529   3.393   8.051   0.732
71211SOL    HW115530   3.434   7.989   0.792
71211SOL    HW215531   3.461   8.116   0.714
71212SOL     OW15532   1.908  10.166   2.843
71212SOL    HW115533   1.861  10.128   2.768
71212SOL    HW215534   1.954  10.241   2.806
71213SOL     OW15535   2.894   2.834  10.548
71213SOL    HW115536   2.812   2.798  10.582
71213SOL    HW215537   2.887   2.928  10.563
71214SOL     OW15538   3.451   0.040   0.274
71214SOL    HW115539   3.389   0.107   0.244
71214SOL    HW215540   3.397  14.847   0.318
71215SOL     OW15541   6.262   5.468   3.178
71215SOL    HW115542   6.215   5.495   3.098
71215SOL    HW215543   6.279   5.550   3.225
71216SOL     OW15544   8.096   7.162   1.558
71216SOL    HW115545   8.028   7.212   1.514
71216SOL    HW215546   8.056   7.134   1.640
71217SOL     OW15547   5.229  10.483   8.696
71217SOL    HW115548   5.213  10.411   8.635
71217SOL    HW215549   5.198  10.561   8.650
71218SOL     OW15550  11.613   1.023  14.006
71218SOL    HW115551  11.673   0.951  13.986
71218SOL    HW215552  11.646   1.097  13.954
71219SOL     OW15553   3.848  10.293  10.635
71219SOL    HW115554   3.854  10.318  10.727
71219SOL    HW215555   3.934  10.315  10.598
71220SOL     OW15556   2.137   4.162   2.240
71220SOL    HW115557   2.226   4.196   2.226
71220SOL    HW215558   2.140   4.123   2.328
71221SOL     OW15559   7.361   5.743   0.947
71221SOL    HW115560   7.318   5.706   1.024
71221SOL    HW215561   7.379   5.668   0.890
71222SOL     OW15562   3.424   0.472  12.052
71222SOL    HW115563   3.459   0.447  11.966
71222SOL    HW215564   3.489   0.440  12.114
71223SOL     OW15565   7.790   3.433   9.506
71223SOL    HW115566   7.846   3.436   9.428
71223SOL    HW215567   7.819   3.507   9.559
71224SOL     OW15568   3.103  11.054  10.842
71224SOL    HW115569   3.118  10.974  10.891
71224SOL    HW215570   3.184  11.066  10.791
71225SOL     OW15571  14.364  13.223   0.794
71225SOL    HW115572  14.420  13.191   0.865
71225SOL    HW215573  14.374  13.159   0.724
71226SOL     OW15574  11.391   3.843   7.082
71226SOL    HW115575  11.357   3.755   7.096
71226SOL    HW215576  11.420   3.872   7.168
71227SOL     OW15577  13.547   9.018   2.223
71227SOL    HW115578  13.452   9.007   2.226
71227SOL    HW215579  13.564   9.051   2.135
71228SOL     OW15580   0.611   0.736   9.238
71228SOL    HW115581   0.547   0.739   9.309
71228SOL    HW215582   0.610   0.645   9.208
71229SOL     OW15583   6.226   5.879   9.284
71229SOL    HW115584   6.178   5.879   9.367
71229SOL    HW215585   6.255   5.970   9.273
71230SOL     OW15586   1.728  12.725   2.545
71230SOL    HW115587   1.807  12.693   2.589
71230SOL    HW215588   1.738  12.696   2.454
71231SOL     OW15589  12.435   6.188   2.913
71231SOL    HW115590  12.387   6.115   2.873
71231SOL    HW215591  12.462   6.243   2.840
71232SOL     OW15592   2.724  13.903   8.530
71232SOL    HW115593   2.634  13.878   8.507
71232SOL    HW215594   2.759  13.826   8.575
71233SOL     OW15595   3.300   8.873   3.840
71233SOL    HW115596   3.208   8.866   3.818
71233SOL    HW215597   3.331   8.950   3.793
71234SOL     OW15598   1.502   3.447   9.561
71234SOL    HW115599   1.584   3.495   9.546
71234SOL    HW215600   1.507   3.371   9.503
71235SOL     OW15601  12.475  13.375   1.307
71235SOL    HW115602  12.467  13.288   1.345
71235SOL    HW215603  12.425  13.370   1.226
71236SOL     OW15604   8.848   0.594  13.707
71236SOL    HW115605   8.865   0.501  13.719
71236SOL    HW215606   8.925   0.638  13.745
71237SOL     OW15607   1.800   0.263   7.267
71237SOL    HW115608   1.801   0.272   7.172
71237SOL    HW215609   1.764   0.346   7.299
71238SOL     OW15610   1.018  11.614   2.781
71238SOL    HW115611   1.108  11.583   2.788
71238SOL    HW215612   0.968  11.554   2.836
71239SOL     OW15613   8.396   8.535  12.234
71239SOL    HW115614   8.354   8.495  12.310
71239SOL    HW215615   8.487   8.508  12.240
71240SOL     OW15616   0.854  12.775  11.093
71240SOL    HW115617   0.881  12.816  11.175
71240SOL    HW215618   0.885  12.835  11.025
71241SOL     OW15619   1.670  13.617  12.151
71241SOL    HW115620   1.671  13.711  12.131
71241SOL    HW215621   1.645  13.575  12.069
71242SOL     OW15622  13.833   0.624   1.306
71242SOL    HW115623  13.782   0.551   1.341
71242SOL    HW215624  13.768   0.679   1.261
71243SOL     OW15625   6.265  14.384  14.470
71243SOL    HW115626   6.317  14.378  14.550
71243SOL    HW215627   6.302  14.459  14.423
71244SOL     OW15628   3.876  10.856  13.124
71244SOL    HW115629   3.805  10.792  13.124
71244SOL    HW215630   3.933  10.828  13.195
71245SOL     OW15631  10.970   2.179   3.115
71245SOL    HW115632  10.919   2.259   3.102
71245SOL    HW215633  10.973   2.168   3.210
71246SOL     OW15634   2.288   5.281   2.907
71246SOL    HW115635   2.286   5.375   2.928
71246SOL    HW215636   2.246   5.239   2.983
71247SOL     OW15637   2.374   3.760   0.793
71247SOL    HW115638   2.456   3.711   0.797
71247SOL    HW215639   2.399   3.849   0.819
71248SOL     OW15640  11.506   7.729  12.320
71248SOL    HW115641  11.471   7.790  12.385
71248SOL    HW215642  11.429   7.700  12.271
71249SOL     OW15643   8.262  11.961   0.607
71249SOL    HW115644   8.329  12.017   0.646
71249SOL    HW215645   8.311  11.888   0.569
71250SOL     OW15646   4.631   8.856   6.893
71250SOL    HW115647   4.559   8.797   6.870
71250SOL    HW215648   4.588   8.940   6.911
71251SOL     OW15649   2.603  10.514   3.800
71251SOL    HW115650   2.606  10.555   3.887
71251SOL    HW215651   2.511  10.517   3.775
71252SOL     OW15652   0.592   7.711  12.230
71252SOL    HW115653   0.627   7.643  12.287
71252SOL    HW215654   0.580   7.667  12.145
71253SOL     OW15655   0.394  11.281   9.301
71253SOL    HW115656   0.394  11.376   9.316
71253SOL    HW215657   0.305  11.254   9.323
71254SOL     OW15658   8.687   4.688  10.550
71254SOL    HW115659   8.612   4.694  10.609
71254SOL    HW215660   8.660   4.623  10.484
71255SOL     OW15661   7.382   5.313  10.263
71255SOL    HW115662   7.455   5.279  10.211
71255SOL    HW215663   7.423   5.370  10.328
71256SOL     OW15664   6.552   9.871   6.979
71256SOL    HW115665   6.568   9.895   6.888
71256SOL    HW215666   6.549   9.954   7.026
71257SOL     OW15667   5.982  13.648   9.990
71257SOL    HW115668   6.039  13.690  10.055
71257SOL    HW215669   6.041  13.595   9.936
71258SOL     OW15670   2.023  11.399   0.935
71258SOL    HW115671   2.112  11.369   0.954
71258SOL    HW215672   2.027  11.494   0.946
71259SOL     OW15673  14.565   1.716  14.866
71259SOL    HW115674  14.569   1.629   0.034
71259SOL    HW215675  14.547   1.775   0.066
71260SOL     OW15676   3.747   9.265  14.393
71260SOL    HW115677   3.803   9.240  14.466
71260SOL    HW215678   3.704   9.346  14.423
71261SOL     OW15679   5.159   0.145   4.327
71261SOL    HW115680   5.153   0.109   4.238
71261SOL    HW215681   5.253   0.141   4.347
71262SOL     OW15682   8.822   0.357  10.132
71262SOL    HW115683   8.811   0.359  10.037
71262SOL    HW215684   8.907   0.316  10.145
71263SOL     OW15685   7.945   5.806   9.850
71263SOL    HW115686   8.006   5.734   9.862
71263SOL    HW215687   7.993   5.870   9.797
71264SOL     OW15688  12.021   7.539   5.852
71264SOL    HW115689  12.036   7.610   5.915
71264SOL    HW215690  11.986   7.467   5.904
71265SOL     OW15691  10.778   3.006  12.386
71265SOL    HW115692  10.766   3.101  12.380
71265SOL    HW215693  10.827   2.994  12.468
71266SOL     OW15694  14.848  11.115   1.091
71266SOL    HW115695  14.819  11.191   1.040
71266SOL    HW215696  14.862  11.149   1.179
71267SOL     OW15697  11.465   3.045  10.845
71267SOL    HW115698  11.402   2.974  10.846
71267SOL    HW215699  11.550   3.002  10.861
71268SOL     OW15700   9.148   9.148   8.312
71268SOL    HW115701   9.129   9.101   8.393
71268SOL    HW215702   9.062   9.177   8.281
71269SOL     OW15703   8.787  11.568   7.048
71269SOL    HW115704   8.864  11.520   7.019
71269SOL    HW215705   8.725  11.560   6.976
71270SOL     OW15706   0.035   3.939   3.213
71270SOL    HW115707   0.117   3.891   3.226
71270SOL    HW215708  14.844   3.871   3.190
71271SOL     OW15709   8.651   6.591  13.764
71271SOL    HW115710   8.616   6.676  13.740
71271SOL    HW215711   8.575   6.540  13.793
71272SOL     OW15712   3.461   4.258  14.768
71272SOL    HW115713   3.498   4.242  14.681
71272SOL    HW215714   3.376   4.215  14.766
71273SOL     OW15715  13.867   2.219   0.929
71273SOL    HW115716  13.931   2.226   0.858
71273SOL    HW215717  13.921   2.211   1.008
71274SOL     OW15718  11.187   4.316  13.146
71274SOL    HW115719  11.258   4.265  13.186
71274SOL    HW215720  11.166   4.382  13.212
71275SOL     OW15721   8.029  14.709   7.750
71275SOL    HW115722   7.971  14.777   7.784
71275SOL    HW215723   8.018  14.713   7.655
71276SOL     OW15724   4.708  11.996   7.425
71276SOL    HW115725   4.715  12.017   7.519
71276SOL    HW215726   4.714  11.900   7.422
71277SOL     OW15727   9.402   9.720   3.151
71277SOL    HW115728   9.370   9.631   3.137
71277SOL    HW215729   9.430   9.721   3.242
71278SOL     OW15730   5.154  14.755   9.557
71278SOL    HW115731   5.242  14.723   9.540
71278SOL    HW215732   5.148  14.837   9.507
71279SOL     OW15733  10.751   2.816   9.768
71279SOL    HW115734  10.693   2.889   9.791
71279SOL    HW215735  10.805   2.803   9.846
71280SOL     OW15736   5.286   7.714  14.567
71280SOL    HW115737   5.222   7.643  14.564
71280SOL    HW215738   5.345   7.690  14.639
71281SOL     OW15739   8.290   8.725  10.238
71281SOL    HW115740   8.384   8.742  10.231
71281SOL    HW215741   8.249   8.802  10.198
71282SOL     OW15742  14.866   4.440  10.954
71282SOL    HW115743   0.024   4.386  11.026
71282SOL    HW215744  14.802   4.499  10.993
71283SOL     OW15745   2.098  14.170  12.089
71283SOL    HW115746   2.044  14.174  12.168
71283SOL    HW215747   2.045  14.122  12.026
71284SOL     OW15748   3.007  11.282  12.471
71284SOL    HW115749   2.935  11.331  12.431
71284SOL    HW215750   2.979  11.270  12.562
71285SOL     OW15751  12.933   0.638   1.416
71285SOL    HW115752  12.982   0.708   1.372
71285SOL    HW215753  12.842   0.651   1.388
71286SOL     OW15754   8.810   5.891   8.622
71286SOL    HW115755   8.760   5.837   8.684
71286SOL    HW215756   8.872   5.830   8.582
71287SOL     OW15757   8.194   6.334   8.212
71287SOL    HW115758   8.179   6.382   8.293
71287SOL    HW215759   8.159   6.390   8.144
71288SOL     OW15760   0.538   2.148   6.266
71288SOL    HW115761   0.579   2.116   6.186
71288SOL    HW215762   0.607   2.195   6.312
71289SOL     OW15763   6.499  13.423  13.660
71289SOL    HW115764   6.414  13.415  13.618
71289SOL    HW215765   6.483  13.478  13.736
71290SOL     OW15766  10.825  13.655   5.076
71290SOL    HW115767  10.842  13.646   4.982
71290SOL    HW215768  10.876  13.585   5.117
71291SOL     OW15769   2.642   9.880   5.891
71291SOL    HW115770   2.635   9.786   5.874
71291SOL    HW215771   2.631   9.887   5.986
71292SOL     OW15772   7.227  14.293   5.063
71292SOL    HW115773   7.178  14.372   5.086
71292SOL    HW215774   7.166  14.222   5.078
71293SOL     OW15775  11.793   8.841   3.779
71293SOL    HW115776  11.755   8.766   3.735
71293SOL    HW215777  11.720   8.903   3.787
71294SOL     OW15778   1.872  11.181   0.955
71294SOL    HW115779   1.926  11.253   0.922
71294SOL    HW215780   1.928  11.135   1.018
71295SOL     OW15781   1.634   9.074  13.128
71295SOL    HW115782   1.589   9.070  13.043
71295SOL    HW215783   1.568   9.108  13.189
71296SOL     OW15784  13.833   1.898   5.099
71296SOL    HW115785  13.858   1.811   5.067
71296SOL    HW215786  13.822   1.886   5.194
71297SOL     OW15787   7.568   8.255   5.121
71297SOL    HW115788   7.576   8.164   5.147
71297SOL    HW215789   7.654   8.277   5.084
71298SOL     OW15790   4.427   1.902   2.018
71298SOL    HW115791   4.457   1.816   2.047
71298SOL    HW215792   4.333   1.891   2.005
71299SOL     OW15793  12.703   9.814  11.811
71299SOL    HW115794  12.767   9.805  11.740
71299SOL    HW215795  12.619   9.821  11.765
71300SOL     OW15796  11.707   8.763   6.956
71300SOL    HW115797  11.666   8.703   6.894
71300SOL    HW215798  11.800   8.761   6.933
71301SOL     OW15799   9.287  14.833   5.762
71301SOL    HW115800   9.276   0.017   5.838
71301SOL    HW215801   9.210  14.776   5.762
71302SOL     OW15802   2.963  12.709  13.313
71302SOL    HW115803   2.957  12.759  13.395
71302SOL    HW215804   3.041  12.655  13.324
71303SOL     OW15805   1.390   8.225  11.136
71303SOL    HW115806   1.390   8.268  11.222
71303SOL    HW215807   1.457   8.157  11.144
71304SOL     OW15808   5.511   0.488   3.591
71304SOL    HW115809   5.553   0.403   3.601
71304SOL    HW215810   5.529   0.534   3.672
71305SOL     OW15811   5.648  11.118   5.571
71305SOL    HW115812   5.676  11.192   5.625
71305SOL    HW215813   5.715  11.051   5.587
71306SOL     OW15814   0.711   0.784  11.415
71306SOL    HW115815   0.711   0.693  11.445
71306SOL    HW215816   0.738   0.835  11.492
71307SOL     OW15817  12.257   2.162   8.225
71307SOL    HW115818  12.202   2.213   8.284
71307SOL    HW215819  12.196   2.110   8.173
71308SOL     OW15820   8.270   6.378   6.334
71308SOL    HW115821   8.179   6.348   6.329
71308SOL    HW215822   8.280   6.408   6.425
71309SOL     OW15823   4.562   3.424   2.009
71309SOL    HW115824   4.545   3.379   2.091
71309SOL    HW215825   4.595   3.511   2.034
71310SOL     OW15826   3.382   1.732  12.447
71310SOL    HW115827   3.477   1.738  12.436
71310SOL    HW215828   3.366   1.639  12.464
71311SOL     OW15829   8.125  13.354   2.501
71311SOL    HW115830   8.095  13.434   2.457
71311SOL    HW215831   8.083  13.283   2.453
71312SOL     OW15832   5.245   2.920   7.581
71312SOL    HW115833   5.239   2.928   7.676
71312SOL    HW215834   5.184   2.986   7.547
71313SOL     OW15835   0.646   5.875   9.515
71313SOL    HW115836   0.578   5.832   9.568
71313SOL    HW215837   0.700   5.921   9.578
71314SOL     OW15838  13.724   2.169  10.235
71314SOL    HW115839  13.657   2.119  10.188
71314SOL    HW215840  13.747   2.114  10.310
71315SOL     OW15841   4.710   6.471  12.093
71315SOL    HW115842   4.621   6.434  12.091
71315SOL    HW215843   4.756   6.420  12.160
71316SOL     OW15844  10.527   8.775   3.755
71316SOL    HW115845  10.509   8.706   3.691
71316SOL    HW215846  10.622   8.786   3.751
71317SOL     OW15847   6.486  12.281  10.014
71317SOL    HW115848   6.456  12.190  10.013
71317SOL    HW215849   6.533  12.290  10.097
71318SOL     OW15850   7.468   1.086  12.617
71318SOL    HW115851   7.462   1.106  12.711
71318SOL    HW215852   7.542   1.138  12.587
71319SOL     OW15853   3.274   5.169   8.761
71319SOL    HW115854   3.202   5.180   8.698
71319SOL    HW215855   3.256   5.234   8.829
71320SOL     OW15856  10.994   1.870   6.080
71320SOL    HW115857  10.962   1.780   6.077
71320SOL    HW215858  10.956   1.905   6.161
71321SOL     OW15859   8.262   0.291   5.401
71321SOL    HW115860   8.169   0.279   5.383
71321SOL    HW215861   8.285   0.373   5.357
71322SOL     OW15862  10.960   2.337   2.276
71322SOL    HW115863  10.902   2.323   2.201
71322SOL    HW215864  10.912   2.397   2.333
71323SOL     OW15865   9.492  12.749  13.519
71323SOL    HW115866   9.477  12.689  13.593
71323SOL    HW215867   9.452  12.704  13.445
71324SOL     OW15868   5.927  13.169   6.326
71324SOL    HW115869   5.926  13.108   6.399
71324SOL    HW215870   5.887  13.121   6.254
71325SOL     OW15871  14.300   2.207   2.825
71325SOL    HW115872  14.301   2.297   2.856
71325SOL    HW215873  14.212   2.176   2.844
71326SOL     OW15874   9.054   0.456   7.221
71326SOL    HW115875   9.058   0.551   7.213
71326SOL    HW215876   8.962   0.434   7.203
71327SOL     OW15877   8.941   6.591   8.490
71327SOL    HW115878   9.032   6.612   8.510
71327SOL    HW215879   8.910   6.664   8.436
71328SOL     OW15880   5.900   5.571   9.727
71328SOL    HW115881   5.892   5.666   9.727
71328SOL    HW215882   5.860   5.544   9.809
71329SOL     OW15883  11.533   1.883   6.888
71329SOL    HW115884  11.620   1.845   6.899
71329SOL    HW215885  11.528   1.906   6.795
71330SOL     OW15886  10.389   7.231  10.960
71330SOL    HW115887  10.327   7.300  10.983
71330SOL    HW215888  10.355   7.153  11.004
71331SOL     OW15889   0.904  13.528  13.533
71331SOL    HW115890   0.944  13.451  13.574
71331SOL    HW215891   0.884  13.586  13.606
71332SOL     OW15892   3.146  11.738   5.530
71332SOL    HW115893   3.151  11.756   5.624
71332SOL    HW215894   3.112  11.819   5.492
71333SOL     OW15895   9.147   4.508  12.155
71333SOL    HW115896   9.078   4.442  12.151
71333SOL    HW215897   9.127   4.559  12.233
71334SOL     OW15898   0.737   0.007   9.462
71334SOL    HW115899   0.770  14.829   9.536
71334SOL    HW215900   0.682   0.075   9.500
71335SOL     OW15901  11.763  13.554  13.059
71335SOL    HW115902  11.855  13.549  13.087
71335SOL    HW215903  11.716  13.500  13.122
71336SOL     OW15904   0.578  12.791  11.564
71336SOL    HW115905   0.554  12.793  11.656
71336SOL    HW215906   0.669  12.761  11.563
71337SOL     OW15907   8.934  10.452  12.333
71337SOL    HW115908   9.015  10.429  12.379
71337SOL    HW215909   8.963  10.505  12.259
71338SOL     OW15910  13.231  10.402  11.134
71338SOL    HW115911  13.138  10.415  11.153
71338SOL    HW215912  13.276  10.456  11.199
71339SOL     OW15913   7.509   8.389   7.500
71339SOL    HW115914   7.467   8.475   7.502
71339SOL    HW215915   7.437   8.327   7.509
71340SOL     OW15916  13.910   6.481  12.988
71340SOL    HW115917  13.820   6.493  12.958
71340SOL    HW215918  13.956   6.559  12.957
71341SOL     OW15919  14.191   6.194   0.016
71341SOL    HW115920  14.246   6.127   0.057
71341SOL    HW215921  14.168   6.157  14.803
71342SOL     OW15922   9.905   6.132   6.224
71342SOL    HW115923   9.843   6.204   6.220
71342SOL    HW215924   9.985   6.166   6.183
71343SOL     OW15925  13.899   6.871  13.459
71343SOL    HW115926  13.990   6.894  13.438
71343SOL    HW215927  13.857   6.860  13.373
71344SOL     OW15928   0.558  14.411  12.620
71344SOL    HW115929   0.517  14.488  12.660
71344SOL    HW215930   0.497  14.384  12.552
71345SOL     OW15931  12.803   2.419   2.236
71345SOL    HW115932  12.872   2.442   2.298
71345SOL    HW215933  12.768   2.503   2.206
71346SOL     OW15934   6.137  13.398   0.226
71346SOL    HW115935   6.075  13.344   0.275
71346SOL    HW215936   6.123  13.487   0.258
71347SOL     OW15937  11.696  14.055   6.614
71347SOL    HW115938  11.619  14.058   6.671
71347SOL    HW215939  11.667  14.094   6.531
71348SOL     OW15940   2.167   9.065  12.592
71348SOL    HW115941   2.130   9.074  12.504
71348SOL    HW215942   2.163   8.971  12.610
71349SOL     OW15943   2.791  13.011   0.762
71349SOL    HW115944   2.714  13.066   0.746
71349SOL    HW215945   2.836  13.008   0.678
71350SOL     OW15946   2.009   0.086   4.576
71350SOL    HW115947   1.917   0.068   4.555
71350SOL    HW215948   2.055   0.006   4.551
71351SOL     OW15949   7.546   4.396   4.952
71351SOL    HW115950   7.464   4.447   4.956
71351SOL    HW215951   7.575   4.392   5.044
71352SOL     OW15952   5.354  11.286   9.977
71352SOL    HW115953   5.286  11.341   9.936
71352SOL    HW215954   5.336  11.291  10.071
71353SOL     OW15955  10.460   6.700   6.531
71353SOL    HW115956  10.483   6.678   6.441
71353SOL    HW215957  10.426   6.619   6.568
71354SOL     OW15958   3.590   9.659   3.833
71354SOL    HW115959   3.565   9.751   3.822
71354SOL    HW215960   3.508   9.616   3.860
71355SOL     OW15961   4.082  12.705  10.985
71355SOL    HW115962   4.011  12.764  11.012
71355SOL    HW215963   4.139  12.700  11.061
71356SOL     OW15964   2.279  12.095  13.973
71356SOL    HW115965   2.336  12.127  13.903
71356SOL    HW215966   2.249  12.173  14.018
71357SOL     OW15967   9.438   7.702   9.249
71357SOL    HW115968   9.372   7.770   9.263
71357SOL    HW215969   9.464   7.712   9.158
71358SOL     OW15970   1.504   1.304  12.865
71358SOL    HW115971   1.557   1.333  12.791
71358SOL    HW215972   1.414   1.309  12.833
71359SOL     OW15973   6.108   8.674   5.510
71359SOL    HW115974   6.100   8.585   5.475
71359SOL    HW215975   6.179   8.668   5.574
71360SOL     OW15976   2.961   4.061  10.017
71360SOL    HW115977   2.904   4.056  10.093
71360SOL    HW215978   3.015   3.982  10.022
71361SOL     OW15979   6.365   3.835   0.920
71361SOL    HW115980   6.320   3.910   0.880
71361SOL    HW215981   6.294   3.778   0.950
71362SOL     OW15982   2.896   7.015   8.567
71362SOL    HW115983   2.914   7.094   8.617
71362SOL    HW215984   2.822   7.039   8.511
71363SOL     OW15985   1.010   6.065   7.254
71363SOL    HW115986   1.053   6.147   7.275
71363SOL    HW215987   0.950   6.087   7.182
71364SOL     OW15988   6.512   9.410  11.502
71364SOL    HW115989   6.596   9.408  11.456
71364SOL    HW215990   6.478   9.321  11.495
71365SOL     OW15991   8.523   7.034  12.839
71365SOL    HW115992   8.436   7.070  12.824
71365SOL    HW215993   8.576   7.070  12.769
71366SOL     OW15994   8.298  10.471  10.746
71366SOL    HW115995   8.227  10.533  10.763
71366SOL    HW215996   8.258  10.385  10.755
71367SOL     OW15997   2.816  13.156   2.989
71367SOL    HW115998   2.830  13.173   3.082
71367SOL    HW215999   2.721  13.155   2.979
71368SOL     OW16000   5.343   1.454  12.105
71368SOL    HW116001   5.419   1.510  12.092
71368SOL    HW216002   5.291   1.464  12.025
71369SOL     OW16003  10.611   6.592   2.713
71369SOL    HW116004  10.567   6.532   2.774
71369SOL    HW216005  10.704   6.574   2.725
71370SOL     OW16006   4.273   0.391  10.258
71370SOL    HW116007   4.196   0.335  10.247
71370SOL    HW216008   4.302   0.410  10.169
71371SOL     OW16009   1.768  14.192   0.400
71371SOL    HW116010   1.837  14.131   0.426
71371SOL    HW216011   1.705  14.190   0.471
71372SOL     OW16012  14.201   7.080   6.641
71372SOL    HW116013  14.131   7.108   6.700
71372SOL    HW216014  14.227   7.159   6.595
71373SOL     OW16015  13.701   1.000  10.855
71373SOL    HW116016  13.790   0.979  10.827
71373SOL    HW216017  13.669   1.061  10.789
71374SOL     OW16018   2.230   9.546  14.322
71374SOL    HW116019   2.316   9.573  14.290
71374SOL    HW216020   2.230   9.570  14.415
71375SOL     OW16021   6.958   5.260  11.575
71375SOL    HW116022   6.880   5.266  11.519
71375SOL    HW216023   7.025   5.222  11.519
71376SOL     OW16024  11.972  10.299   4.795
71376SOL    HW116025  11.953  10.269   4.884
71376SOL    HW216026  12.057  10.343   4.802
71377SOL     OW16027   4.383   8.298   3.834
71377SOL    HW116028   4.423   8.225   3.881
71377SOL    HW216029   4.441   8.313   3.759
71378SOL     OW16030   1.707   4.023  13.021
71378SOL    HW116031   1.640   3.969  13.063
71378SOL    HW216032   1.788   4.000  13.067
71379SOL     OW16033   3.181   4.072   8.341
71379SOL    HW116034   3.123   4.112   8.277
71379SOL    HW216035   3.227   4.004   8.292
71380SOL     OW16036  13.924   2.493   6.518
71380SOL    HW116037  13.987   2.431   6.555
71380SOL    HW216038  13.846   2.441   6.501
71381SOL     OW16039   4.432  11.381   8.661
71381SOL    HW116040   4.515  11.424   8.641
71381SOL    HW216041   4.365  11.442   8.633
71382SOL     OW16042  10.697  13.549  10.911
71382SOL    HW116043  10.790  13.567  10.897
71382SOL    HW216044  10.695  13.463  10.953
71383SOL     OW16045   6.286   3.578  13.734
71383SOL    HW116046   6.218   3.644  13.726
71383SOL    HW216047   6.284   3.554  13.827
71384SOL     OW16048  14.345  14.340   7.266
71384SOL    HW116049  14.260  14.297   7.275
71384SOL    HW216050  14.335  14.421   7.316
71385SOL     OW16051  12.132   7.170  10.640
71385SOL    HW116052  12.207   7.194  10.585
71385SOL    HW216053  12.060   7.158  10.578
71386SOL     OW16054   9.867   3.298  10.394
71386SOL    HW116055   9.812   3.356  10.342
71386SOL    HW216056   9.897   3.351  10.467
71387SOL     OW16057  12.538   2.143  12.516
71387SOL    HW116058  12.499   2.230  12.521
71387SOL    HW216059  12.614   2.148  12.573
71388SOL     OW16060   8.984   7.206  12.719
71388SOL    HW116061   9.007   7.280  12.663
71388SOL    HW216062   8.991   7.130  12.662
71389SOL     OW16063   2.162   1.000   5.988
71389SOL    HW116064   2.207   1.037   6.065
71389SOL    HW216065   2.140   1.075   5.934
71390SOL     OW16066  13.439  13.546   5.645
71390SOL    HW116067  13.374  13.604   5.685
71390SOL    HW216068  13.395  13.513   5.566
71391SOL     OW16069   8.200   5.972   0.576
71391SOL    HW116070   8.191   5.891   0.626
71391SOL    HW216071   8.257   5.949   0.502
71392SOL     OW16072   7.789  13.023   1.660
71392SOL    HW116073   7.865  12.974   1.630
71392SOL    HW216074   7.751  13.060   1.581
71393SOL     OW16075   9.336   5.617   4.603
71393SOL    HW116076   9.321   5.524   4.619
71393SOL    HW216077   9.416   5.637   4.651
71394SOL     OW16078   1.755   8.029  10.476
71394SOL    HW116079   1.834   8.081  10.464
71394SOL    HW216080   1.712   8.068  10.551
71395SOL     OW16081   8.878  13.799  12.892
71395SOL    HW116082   8.794  13.842  12.881
71395SOL    HW216083   8.938  13.869  12.916
71396SOL     OW16084  11.102   9.186   3.302
71396SOL    HW116085  11.021   9.196   3.353
71396SOL    HW216086  11.172   9.209   3.364
71397SOL     OW16087   8.370  11.434  10.205
71397SOL    HW116088   8.333  11.371  10.266
71397SOL    HW216089   8.429  11.488  10.258
71398SOL     OW16090   3.754   0.072  14.041
71398SOL    HW116091   3.747  14.859  14.083
71398SOL    HW216092   3.780   0.132  14.112
71399SOL     OW16093   1.910   3.455   8.000
71399SOL    HW116094   1.910   3.403   7.920
71399SOL    HW216095   1.986   3.513   7.991
71400SOL     OW16096   3.196   8.016   0.963
71400SOL    HW116097   3.241   8.098   0.987
71400SOL    HW216098   3.255   7.947   0.993
71401SOL     OW16099   0.122  13.969  12.161
71401SOL    HW116100   0.031  13.972  12.193
71401SOL    HW216101   0.124  14.032  12.090
71402SOL     OW16102   2.244   4.508   9.394
71402SOL    HW116103   2.240   4.586   9.450
71402SOL    HW216104   2.196   4.441   9.443
71403SOL     OW16105  10.032   6.964   7.259
71403SOL    HW116106   9.943   6.991   7.282
71403SOL    HW216107  10.058   7.024   7.188
71404SOL     OW16108   8.786  13.429   8.546
71404SOL    HW116109   8.775  13.364   8.477
71404SOL    HW216110   8.711  13.488   8.535
71405SOL     OW16111  11.645  14.381  11.394
71405SOL    HW116112  11.610  14.323  11.327
71405SOL    HW216113  11.588  14.369  11.470
71406SOL     OW16114   0.189   1.640   7.339
71406SOL    HW116115   0.156   1.644   7.249
71406SOL    HW216116   0.268   1.693   7.338
71407SOL     OW16117   3.619   9.320   6.618
71407SOL    HW116118   3.631   9.376   6.541
71407SOL    HW216119   3.701   9.328   6.667
71408SOL     OW16120  14.829   8.271   9.141
71408SOL    HW116121   0.016   8.264   9.066
71408SOL    HW216122  14.832   8.185   9.182
71409SOL     OW16123   7.431   1.268   5.619
71409SOL    HW116124   7.519   1.237   5.598
71409SOL    HW216125   7.443   1.322   5.697
71410SOL     OW16126   4.625   7.237  14.255
71410SOL    HW116127   4.607   7.241  14.161
71410SOL    HW216128   4.666   7.321  14.274
71411SOL     OW16129   2.969   1.991  14.299
71411SOL    HW116130   2.949   1.979  14.207
71411SOL    HW216131   3.044   2.050  14.300
71412SOL     OW16132   6.226   9.131   4.529
71412SOL    HW116133   6.140   9.129   4.487
71412SOL    HW216134   6.288   9.136   4.456
71413SOL     OW16135   8.589   9.925   6.259
71413SOL    HW116136   8.668   9.874   6.241
71413SOL    HW216137   8.586   9.930   6.354
71414SOL     OW16138   9.622   6.733  11.495
71414SOL    HW116139   9.714   6.716  11.476
71414SOL    HW216140   9.621   6.817  11.539
71415SOL     OW16141   9.817   5.639   0.091
71415SOL    HW116142   9.818   5.695   0.013
71415SOL    HW216143   9.891   5.670   0.143
71416SOL     OW16144   1.107  13.278   6.280
71416SOL    HW116145   1.168  13.216   6.240
71416SOL    HW216146   1.028  13.227   6.296
71417SOL     OW16147   6.254  13.304   1.072
71417SOL    HW116148   6.301  13.302   1.156
71417SOL    HW216149   6.178  13.360   1.090
71418SOL     OW16150   5.815   2.195  14.836
71418SOL    HW116151   5.751   2.199  14.764
71418SOL    HW216152   5.788   2.264   0.024
71419SOL     OW16153   5.680   9.252   8.737
71419SOL    HW116154   5.737   9.236   8.662
71419SOL    HW216155   5.654   9.164   8.766
71420SOL     OW16156   6.452   2.507   1.825
71420SOL    HW116157   6.419   2.419   1.842
71420SOL    HW216158   6.547   2.497   1.823
71421SOL     OW16159   9.244   4.402   6.174
71421SOL    HW116160   9.215   4.481   6.218
71421SOL    HW216161   9.206   4.330   6.224
71422SOL     OW16162   1.632  12.786  11.841
71422SOL    HW116163   1.654  12.716  11.780
71422SOL    HW216164   1.591  12.853  11.786
71423SOL     OW16165   2.601  14.036   7.153
71423SOL    HW116166   2.569  14.094   7.221
71423SOL    HW216167   2.677  13.992   7.191
71424SOL     OW16168  13.763   6.645   0.146
71424SOL    HW116169  13.740   6.738   0.149
71424SOL    HW216170  13.857   6.645   0.130
71425SOL     OW16171   8.402   8.841   6.154
71425SOL    HW116172   8.466   8.772   6.171
71425SOL    HW216173   8.320   8.808   6.191
71426SOL     OW16174   9.565  10.721   9.804
71426SOL    HW116175   9.583  10.725   9.898
71426SOL    HW216176   9.512  10.799   9.787
71427SOL     OW16177   0.353   8.409  13.116
71427SOL    HW116178   0.426   8.439  13.062
71427SOL    HW216179   0.320   8.331  13.072
71428SOL     OW16180   0.753   3.097   5.955
71428SOL    HW116181   0.828   3.131   6.005
71428SOL    HW216182   0.789   3.076   5.869
71429SOL     OW16183   5.558  13.045   9.272
71429SOL    HW116184   5.474  13.029   9.314
71429SOL    HW216185   5.562  12.982   9.200
71430SOL     OW16186   0.967  14.626  10.641
71430SOL    HW116187   0.892  14.679  10.616
71430SOL    HW216188   1.031  14.640  10.572
71431SOL     OW16189   3.223  10.250  13.131
71431SOL    HW116190   3.139  10.206  13.118
71431SOL    HW216191   3.279  10.184  13.171
71432SOL     OW16192  10.026   3.991  11.684
71432SOL    HW116193  10.069   4.076  11.677
71432SOL    HW216194   9.961   4.003  11.754
71433SOL     OW16195   1.682   4.655   5.491
71433SOL    HW116196   1.720   4.575   5.454
71433SOL    HW216197   1.661   4.632   5.582
71434SOL     OW16198   3.400  12.868   7.297
71434SOL    HW116199   3.451  12.789   7.314
71434SOL    HW216200   3.370  12.859   7.207
71435SOL     OW16201  13.740   8.562   8.029
71435SOL    HW116202  13.653   8.532   8.003
71435SOL    HW216203  13.773   8.609   7.953
71436SOL     OW16204   7.081  13.613  12.847
71436SOL    HW116205   7.163  13.620  12.798
71436SOL    HW216206   7.013  13.606  12.780
71437SOL     OW16207   3.802   2.323   4.819
71437SOL    HW116208   3.876   2.384   4.816
71437SOL    HW216209   3.792   2.302   4.912
71438SOL     OW16210   0.490  10.382   1.315
71438SOL    HW116211   0.463  10.422   1.398
71438SOL    HW216212   0.407  10.363   1.271
71439SOL     OW16213  14.433   8.399  12.502
71439SOL    HW116214  14.444   8.434  12.414
71439SOL    HW216215  14.349   8.436  12.532
71440SOL     OW16216   9.710   7.639   3.338
71440SOL    HW116217   9.680   7.718   3.383
71440SOL    HW216218   9.630   7.603   3.299
71441SOL     OW16219   0.877   8.801   4.308
71441SOL    HW116220   0.960   8.762   4.337
71441SOL    HW216221   0.888   8.895   4.324
71442SOL     OW16222  11.940   7.227   1.409
71442SOL    HW116223  12.011   7.246   1.471
71442SOL    HW216224  11.984   7.215   1.325
71443SOL     OW16225   0.025   4.931   2.765
71443SOL    HW116226   0.022   4.893   2.852
71443SOL    HW216227   0.017   5.026   2.779
71444SOL     OW16228  12.834  13.976  14.849
71444SOL    HW116229  12.838  13.902  14.789
71444SOL    HW216230  12.905  14.034  14.820
71445SOL     OW16231  12.062  10.252   5.661
71445SOL    HW116232  11.997  10.185   5.682
71445SOL    HW216233  12.112  10.215   5.588
71446SOL     OW16234   9.520   0.007   8.171
71446SOL    HW116235   9.525  14.807   8.234
71446SOL    HW216236   9.587   0.069   8.200
71447SOL     OW16237   1.939   3.448   6.153
71447SOL    HW116238   1.906   3.382   6.214
71447SOL    HW216239   2.030   3.460   6.177
71448SOL     OW16240   6.618   6.964  10.889
71448SOL    HW116241   6.558   6.965  10.815
71448SOL    HW216242   6.563   6.982  10.965
71449SOL     OW16243   2.779  14.661   4.067
71449SOL    HW116244   2.841  14.674   4.139
71449SOL    HW216245   2.759  14.749   4.037
71450SOL     OW16246  13.683  13.642   5.593
71450SOL    HW116247  13.667  13.725   5.638
71450SOL    HW216248  13.611  13.586   5.619
71451SOL     OW16249   6.297  14.373   7.099
71451SOL    HW116250   6.327  14.330   7.179
71451SOL    HW216251   6.202  14.379   7.110
71452SOL     OW16252  13.400  14.786  11.537
71452SOL    HW116253  13.353  14.719  11.487
71452SOL    HW216254  13.438  14.738  11.611
71453SOL     OW16255   4.336   7.759   2.427
71453SOL    HW116256   4.275   7.827   2.454
71453SOL    HW216257   4.282   7.697   2.377
71454SOL     OW16258  14.225  13.589   6.785
71454SOL    HW116259  14.185  13.633   6.860
71454SOL    HW216260  14.189  13.636   6.709
71455SOL     OW16261   2.627   2.530  14.713
71455SOL    HW116262   2.676   2.550  14.633
71455SOL    HW216263   2.682   2.467  14.759
71456SOL     OW16264   9.189   8.476  11.097
71456SOL    HW116265   9.157   8.401  11.047
71456SOL    HW216266   9.280   8.488  11.067
71457SOL     OW16267  13.983   5.771   8.758
71457SOL    HW116268  14.013   5.862   8.764
71457SOL    HW216269  13.892   5.777   8.730
71458SOL     OW16270   4.342   2.015   5.164
71458SOL    HW116271   4.337   2.044   5.255
71458SOL    HW216272   4.284   2.074   5.116
71459SOL     OW16273   1.678   0.266   2.332
71459SOL    HW116274   1.735   0.228   2.398
71459SOL    HW216275   1.657   0.193   2.273
71460SOL     OW16276   6.216  13.543   2.150
71460SOL    HW116277   6.202  13.572   2.240
71460SOL    HW216278   6.308  13.562   2.133
71461SOL     OW16279   8.676   9.332   5.049
71461SOL    HW116280   8.662   9.265   4.982
71461SOL    HW216281   8.605   9.394   5.036
71462SOL     OW16282   6.407  12.559   3.080
71462SOL    HW116283   6.314  12.537   3.086
71462SOL    HW216284   6.450  12.475   3.060
71463SOL     OW16285   4.558  12.344   5.355
71463SOL    HW116286   4.491  12.356   5.423
71463SOL    HW216287   4.640  12.365   5.400
71464SOL     OW16288   6.288   3.170  14.665
71464SOL    HW116289   6.247   3.173  14.579
71464SOL    HW216290   6.299   3.076  14.683
71465SOL     OW16291   9.827   5.784   8.054
71465SOL    HW116292   9.735   5.796   8.033
71465SOL    HW216293   9.832   5.696   8.092
71466SOL     OW16294   6.626  12.057   3.803
71466SOL    HW116295   6.628  11.981   3.746
71466SOL    HW216296   6.589  12.024   3.885
71467SOL     OW16297  14.234   2.652   7.082
71467SOL    HW116298  14.199   2.675   7.168
71467SOL    HW216299  14.164   2.674   7.020
71468SOL     OW16300   2.123   0.757   0.242
71468SOL    HW116301   2.029   0.772   0.255
71468SOL    HW216302   2.128   0.682   0.183
71469SOL     OW16303   3.845   8.842  14.036
71469SOL    HW116304   3.887   8.757  14.023
71469SOL    HW216305   3.916   8.905  14.025
71470SOL     OW16306   1.862  10.930  14.602
71470SOL    HW116307   1.842  10.961  14.514
71470SOL    HW216308   1.821  10.843  14.607
71471SOL     OW16309  11.244   4.568   1.170
71471SOL    HW116310  11.189   4.509   1.118
71471SOL    HW216311  11.191   4.586   1.248
71472SOL     OW16312  13.329   9.374   4.698
71472SOL    HW116313  13.375   9.296   4.667
71472SOL    HW216314  13.387   9.447   4.675
71473SOL     OW16315  10.743   9.613   8.846
71473SOL    HW116316  10.740   9.699   8.888
71473SOL    HW216317  10.690   9.624   8.767
71474SOL     OW16318  13.161  12.476   4.075
71474SOL    HW116319  13.225  12.500   4.007
71474SOL    HW216320  13.137  12.386   4.053
71475SOL     OW16321  10.746  10.575   4.185
71475SOL    HW116322  10.816  10.602   4.245
71475SOL    HW216323  10.778  10.494   4.146
71476SOL     OW16324   2.513  11.388   3.230
71476SOL    HW116325   2.418  11.387   3.237
71476SOL    HW216326   2.531  11.462   3.171
71477SOL     OW16327   2.349   7.387  14.466
71477SOL    HW116328   2.316   7.476  14.454
71477SOL    HW216329   2.270   7.332  14.465
71478SOL     OW16330  13.887   5.730  14.197
71478SOL    HW116331  13.958   5.789  14.221
71478SOL    HW216332  13.834   5.723  14.277
71479SOL     OW16333  14.537  14.401  12.353
71479SOL    HW116334  14.549  14.451  12.434
71479SOL    HW216335  14.566  14.461  12.284
71480SOL     OW16336   8.923   4.055   8.028
71480SOL    HW116337   8.924   3.989   8.097
71480SOL    HW216338   8.833   4.088   8.028
71481SOL     OW16339   9.673  12.528  13.604
71481SOL    HW116340   9.687  12.608  13.553
71481SOL    HW216341   9.584  12.537  13.640
71482SOL     OW16342  11.761  14.243   5.545
71482SOL    HW116343  11.694  14.301   5.581
71482SOL    HW216344  11.841  14.297   5.543
71483SOL     OW16345  11.256   0.438  10.233
71483SOL    HW116346  11.270   0.525  10.196
71483SOL    HW216347  11.186   0.451  10.297
71484SOL     OW16348   2.113  12.950  14.423
71484SOL    HW116349   2.101  12.865  14.380
71484SOL    HW216350   2.180  12.994  14.370
71485SOL     OW16351   7.698  14.147   6.490
71485SOL    HW116352   7.784  14.107   6.498
71485SOL    HW216353   7.636  14.074   6.497
71486SOL     OW16354   4.418  12.982   8.340
71486SOL    HW116355   4.386  12.963   8.252
71486SOL    HW216356   4.509  13.010   8.328
71487SOL     OW16357   0.161   3.008   9.655
71487SOL    HW116358   0.153   3.065   9.732
71487SOL    HW216359   0.251   3.021   9.625
71488SOL     OW16360   4.455  12.434   9.528
71488SOL    HW116361   4.386  12.460   9.589
71488SOL    HW216362   4.446  12.495   9.454
71489SOL     OW16363   1.889   7.153   9.576
71489SOL    HW116364   1.932   7.119   9.654
71489SOL    HW216365   1.960   7.162   9.511
71490SOL     OW16366  10.787  13.096  10.236
71490SOL    HW116367  10.712  13.082  10.178
71490SOL    HW216368  10.803  13.191  10.233
71491SOL     OW16369  12.936   9.457  11.001
71491SOL    HW116370  12.891   9.374  10.986
71491SOL    HW216371  13.007   9.435  11.062
71492SOL     OW16372   5.917   8.528   3.531
71492SOL    HW116373   5.979   8.585   3.486
71492SOL    HW216374   5.948   8.439   3.512
71493SOL     OW16375   6.833  13.043  14.811
71493SOL    HW116376   6.759  13.101  14.827
71493SOL    HW216377   6.818  13.008  14.723
71494SOL     OW16378   5.748   3.767  13.156
71494SOL    HW116379   5.826   3.803  13.114
71494SOL    HW216380   5.675   3.795  13.101
71495SOL     OW16381   6.886   8.568   3.532
71495SOL    HW116382   6.875   8.527   3.447
71495SOL    HW216383   6.939   8.506   3.582
71496SOL     OW16384   1.222  13.888   1.531
71496SOL    HW116385   1.128  13.867   1.527
71496SOL    HW216386   1.230  13.970   1.482
71497SOL     OW16387   4.329   5.747   7.335
71497SOL    HW116388   4.423   5.755   7.353
71497SOL    HW216389   4.313   5.652   7.334
71498SOL     OW16390   3.214   8.310   2.441
71498SOL    HW116391   3.129   8.324   2.398
71498SOL    HW216392   3.206   8.355   2.526
71499SOL     OW16393   6.858  13.609   4.820
71499SOL    HW116394   6.952  13.592   4.820
71499SOL    HW216395   6.839  13.637   4.909
71500SOL     OW16396  14.160   4.025  12.650
71500SOL    HW116397  14.120   3.965  12.587
71500SOL    HW216398  14.185   4.101  12.598
71501SOL     OW16399   3.166  13.598   1.515
71501SOL    HW116400   3.260  13.611   1.507
71501SOL    HW216401   3.127  13.664   1.459
71502SOL     OW16402   1.523  12.636   3.367
71502SOL    HW116403   1.598  12.589   3.329
71502SOL    HW216404   1.508  12.592   3.451
71503SOL     OW16405   1.426  14.362  13.477
71503SOL    HW116406   1.361  14.402  13.535
71503SOL    HW216407   1.390  14.374  13.389
71504SOL     OW16408   8.722   4.413   5.523
71504SOL    HW116409   8.678   4.484   5.475
71504SOL    HW216410   8.663   4.338   5.516
71505SOL     OW16411   4.083   8.748  10.185
71505SOL    HW116412   4.070   8.668  10.133
71505SOL    HW216413   4.160   8.789  10.147
71506SOL     OW16414   0.407  14.805   2.057
71506SOL    HW116415   0.343  14.818   1.987
71506SOL    HW216416   0.462   0.011   2.054
71507SOL     OW16417   8.846  11.164   6.111
71507SOL    HW116418   8.800  11.090   6.072
71507SOL    HW216419   8.797  11.241   6.081
71508SOL     OW16420   6.648   2.182  11.778
71508SOL    HW116421   6.712   2.177  11.849
71508SOL    HW216422   6.563   2.176  11.821
71509SOL     OW16423  10.986   9.165   5.431
71509SOL    HW116424  11.043   9.162   5.507
71509SOL    HW216425  11.019   9.097   5.373
71510SOL     OW16426  10.825   6.382   3.310
71510SOL    HW116427  10.857   6.359   3.223
71510SOL    HW216428  10.737   6.417   3.295
71511SOL     OW16429   4.216  13.512  12.667
71511SOL    HW116430   4.236  13.427  12.706
71511SOL    HW216431   4.143  13.494  12.607
71512SOL     OW16432   2.397   4.429  13.030
71512SOL    HW116433   2.339   4.366  13.073
71512SOL    HW216434   2.366   4.514  13.060
71513SOL     OW16435   0.043   7.796   5.217
71513SOL    HW116436   0.133   7.764   5.216
71513SOL    HW216437   0.040   7.861   5.147
71514SOL     OW16438   5.529   4.157   5.159
71514SOL    HW116439   5.458   4.191   5.214
71514SOL    HW216440   5.538   4.221   5.089
71515SOL     OW16441   1.339   2.031   4.573
71515SOL    HW116442   1.301   2.049   4.487
71515SOL    HW216443   1.352   2.117   4.613
71516SOL     OW16444   2.491  12.289  12.782
71516SOL    HW116445   2.420  12.338  12.824
71516SOL    HW216446   2.451  12.250  12.705
71517SOL     OW16447   5.152  12.771   2.344
71517SOL    HW116448   5.108  12.794   2.262
71517SOL    HW216449   5.226  12.717   2.317
71518SOL     OW16450   2.876   1.810   3.077
71518SOL    HW116451   2.902   1.741   3.138
71518SOL    HW216452   2.791   1.840   3.109
71519SOL     OW16453  13.464   4.743  10.736
71519SOL    HW116454  13.458   4.770  10.828
71519SOL    HW216455  13.414   4.809  10.689
71520SOL     OW16456   6.215   5.154   7.685
71520SOL    HW116457   6.236   5.216   7.755
71520SOL    HW216458   6.182   5.208   7.613
71521SOL     OW16459  11.610  11.424   2.826
71521SOL    HW116460  11.647  11.345   2.867
71521SOL    HW216461  11.628  11.494   2.888
71522SOL     OW16462   8.491   0.851   9.645
71522SOL    HW116463   8.484   0.900   9.727
71522SOL    HW216464   8.406   0.808   9.635
71523SOL     OW16465   4.649   0.851   0.596
71523SOL    HW116466   4.625   0.852   0.503
71523SOL    HW216467   4.581   0.797   0.637
71524SOL     OW16468  12.961   0.607   8.948
71524SOL    HW116469  12.879   0.590   8.995
71524SOL    HW216470  13.010   0.666   9.005
71525SOL     OW16471  12.221   9.689   5.980
71525SOL    HW116472  12.218   9.674   6.075
71525SOL    HW216473  12.314   9.699   5.961
71526SOL     OW16474   6.967  11.646   4.421
71526SOL    HW116475   6.899  11.580   4.409
71526SOL    HW216476   7.000  11.662   4.332
71527SOL     OW16477   9.822  12.895  13.203
71527SOL    HW116478   9.741  12.939  13.177
71527SOL    HW216479   9.890  12.962  13.195
71528SOL     OW16480   3.815   8.210   7.812
71528SOL    HW116481   3.904   8.243   7.818
71528SOL    HW216482   3.772   8.245   7.891
71529SOL     OW16483  10.004  12.766   9.042
71529SOL    HW116484  10.080  12.820   9.020
71529SOL    HW216485   9.984  12.789   9.133
71530SOL     OW16486   8.915   5.475  13.776
71530SOL    HW116487   8.887   5.555  13.733
71530SOL    HW216488   8.954   5.422  13.706
71531SOL     OW16489   0.408   7.349   6.730
71531SOL    HW116490   0.466   7.288   6.775
71531SOL    HW216491   0.374   7.405   6.800
71532SOL     OW16492   9.847   3.028   4.175
71532SOL    HW116493   9.791   3.106   4.180
71532SOL    HW216494   9.928   3.058   4.134
71533SOL     OW16495  14.207  12.674   9.194
71533SOL    HW116496  14.262  12.633   9.260
71533SOL    HW216497  14.120  12.636   9.206
71534SOL     OW16498   1.745   7.045   8.401
71534SOL    HW116499   1.678   6.980   8.383
71534SOL    HW216500   1.696   7.126   8.418
71535SOL     OW16501  11.730   8.870   7.479
71535SOL    HW116502  11.749   8.778   7.460
71535SOL    HW216503  11.782   8.919   7.414
71536SOL     OW16504  14.025   8.159   8.594
71536SOL    HW116505  14.093   8.221   8.570
71536SOL    HW216506  13.950   8.213   8.617
71537SOL     OW16507   0.261   8.061   3.538
71537SOL    HW116508   0.341   8.061   3.590
71537SOL    HW216509   0.212   8.137   3.569
71538SOL     OW16510   3.337  12.543   8.184
71538SOL    HW116511   3.387  12.478   8.135
71538SOL    HW216512   3.264  12.565   8.126
71539SOL     OW16513  13.186  10.030   4.316
71539SOL    HW116514  13.176  10.111   4.267
71539SOL    HW216515  13.149   9.962   4.260
71540SOL     OW16516  14.143  12.799  12.637
71540SOL    HW116517  14.120  12.885  12.602
71540SOL    HW216518  14.141  12.811  12.732
71541SOL     OW16519   6.701   9.551   0.440
71541SOL    HW116520   6.736   9.488   0.504
71541SOL    HW216521   6.751   9.631   0.456
71542SOL     OW16522  14.693   0.114   8.632
71542SOL    HW116523  14.766   0.155   8.586
71542SOL    HW216524  14.706   0.138   8.724
71543SOL     OW16525  10.614   1.898   0.647
71543SOL    HW116526  10.545   1.964   0.661
71543SOL    HW216527  10.693   1.939   0.681
71544SOL     OW16528  10.366   9.109   9.641
71544SOL    HW116529  10.402   9.130   9.728
71544SOL    HW216530  10.303   9.179   9.625
71545SOL     OW16531   2.821   0.620  11.211
71545SOL    HW116532   2.776   0.643  11.293
71545SOL    HW216533   2.914   0.631  11.232
71546SOL     OW16534   9.870   0.663   1.252
71546SOL    HW116535   9.851   0.575   1.219
71546SOL    HW216536   9.846   0.661   1.344
71547SOL     OW16537  11.159  10.025  11.137
71547SOL    HW116538  11.120  10.000  11.221
71547SOL    HW216539  11.133   9.955  11.077
71548SOL     OW16540  10.846  13.460   0.850
71548SOL    HW116541  10.938  13.435   0.861
71548SOL    HW216542  10.844  13.505   0.765
71549SOL     OW16543  10.858   2.533   1.181
71549SOL    HW116544  10.906   2.457   1.212
71549SOL    HW216545  10.781   2.497   1.138
71550SOL     OW16546   4.773   5.207   0.150
71550SOL    HW116547   4.752   5.206   0.057
71550SOL    HW216548   4.758   5.117   0.179
71551SOL     OW16549   6.409   1.802   1.727
71551SOL    HW116550   6.408   1.895   1.749
71551SOL    HW216551   6.379   1.758   1.807
71552SOL     OW16552   8.735   9.009   2.702
71552SOL    HW116553   8.673   9.019   2.630
71552SOL    HW216554   8.756   8.916   2.702
71553SOL     OW16555   9.816   9.788   6.195
71553SOL    HW116556   9.760   9.724   6.153
71553SOL    HW216557   9.812   9.865   6.139
71554SOL     OW16558   1.865  10.258   1.929
71554SOL    HW116559   1.949  10.303   1.920
71554SOL    HW216560   1.856  10.242   2.023
71555SOL     OW16561  10.594   7.264   9.133
71555SOL    HW116562  10.660   7.324   9.098
71555SOL    HW216563  10.643   7.203   9.187
71556SOL     OW16564   6.168   1.840  12.267
71556SOL    HW116565   6.083   1.852  12.308
71556SOL    HW216566   6.191   1.926  12.231
71557SOL     OW16567  13.224   1.615  11.280
71557SOL    HW116568  13.138   1.641  11.311
71557SOL    HW216569  13.261   1.694  11.241
71558SOL     OW16570   2.484  11.632   4.144
71558SOL    HW116571   2.550  11.641   4.213
71558SOL    HW216572   2.470  11.722   4.113
71559SOL     OW16573   4.643   0.473   5.012
71559SOL    HW116574   4.688   0.530   5.074
71559SOL    HW216575   4.673   0.502   4.926
71560SOL     OW16576   9.212  13.955  11.144
71560SOL    HW116577   9.150  13.896  11.100
71560SOL    HW216578   9.231  14.022  11.079
71561SOL     OW16579   8.522   2.711   4.865
71561SOL    HW116580   8.550   2.763   4.790
71561SOL    HW216581   8.460   2.647   4.828
71562SOL     OW16582   3.853   4.813   8.682
71562SOL    HW116583   3.866   4.907   8.679
71562SOL    HW216584   3.918   4.781   8.744
71563SOL     OW16585   5.668   0.895   9.368
71563SOL    HW116586   5.576   0.915   9.387
71563SOL    HW216587   5.716   0.940   9.437
71564SOL     OW16588   7.606  10.979  11.935
71564SOL    HW116589   7.695  11.013  11.946
71564SOL    HW216590   7.618  10.895  11.892
71565SOL     OW16591   2.887   9.081  13.724
71565SOL    HW116592   2.798   9.064  13.694
71565SOL    HW216593   2.915   9.157  13.674
71566SOL     OW16594   4.591   5.790   8.148
71566SOL    HW116595   4.678   5.825   8.168
71566SOL    HW216596   4.573   5.728   8.219
71567SOL     OW16597   2.519   9.331   9.650
71567SOL    HW116598   2.570   9.411   9.632
71567SOL    HW216599   2.442   9.338   9.594
71568SOL     OW16600   3.614   1.098   2.832
71568SOL    HW116601   3.673   1.140   2.895
71568SOL    HW216602   3.632   1.004   2.843
71569SOL     OW16603  10.642   7.834  12.627
71569SOL    HW116604  10.689   7.915  12.647
71569SOL    HW216605  10.558   7.843  12.673
71570SOL     OW16606   6.178  13.785   7.477
71570SOL    HW116607   6.147  13.874   7.493
71570SOL    HW216608   6.099  13.736   7.455
71571SOL     OW16609  11.008  13.271   9.512
71571SOL    HW116610  10.979  13.239   9.427
71571SOL    HW216611  11.100  13.292   9.499
71572SOL     OW16612   7.097   0.770   2.278
71572SOL    HW116613   7.160   0.840   2.259
71572SOL    HW216614   7.144   0.709   2.334
71573SOL     OW16615  12.043   9.715   9.496
71573SOL    HW116616  12.051   9.741   9.404
71573SOL    HW216617  11.967   9.763   9.528
71574SOL     OW16618   8.961   4.120   1.442
71574SOL    HW116619   8.888   4.077   1.397
71574SOL    HW216620   8.930   4.209   1.459
71575SOL     OW16621   8.772   3.823   1.953
71575SOL    HW116622   8.714   3.857   1.885
71575SOL    HW216623   8.850   3.793   1.906
71576SOL     OW16624   2.015  11.198  10.915
71576SOL    HW116625   1.996  11.135  10.845
71576SOL    HW216626   2.029  11.281  10.869
71577SOL     OW16627   9.135   1.820   4.048
71577SOL    HW116628   9.069   1.885   4.022
71577SOL    HW216629   9.090   1.763   4.110
71578SOL     OW16630  11.611   4.685   3.690
71578SOL    HW116631  11.573   4.773   3.686
71578SOL    HW216632  11.571   4.645   3.768
71579SOL     OW16633   3.962  10.307   3.658
71579SOL    HW116634   4.053  10.309   3.688
71579SOL    HW216635   3.954  10.381   3.598
71580SOL     OW16636  13.458  14.025   1.414
71580SOL    HW116637  13.399  14.100   1.413
71580SOL    HW216638  13.489  14.016   1.324
71581SOL     OW16639   3.181  11.862   4.962
71581SOL    HW116640   3.153  11.924   5.029
71581SOL    HW216641   3.148  11.777   4.992
71582SOL     OW16642   7.695   6.004  13.407
71582SOL    HW116643   7.724   5.956  13.329
71582SOL    HW216644   7.600   6.013  13.395
71583SOL     OW16645  10.489   6.720   7.591
71583SOL    HW116646  10.405   6.761   7.614
71583SOL    HW216647  10.528   6.698   7.675
71584SOL     OW16648   6.142   0.009   5.082
71584SOL    HW116649   6.076  14.820   5.114
71584SOL    HW216650   6.195  14.830   5.021
71585SOL     OW16651   6.275  14.074   5.389
71585SOL    HW116652   6.309  14.100   5.303
71585SOL    HW216653   6.351  14.038   5.435
71586SOL     OW16654   0.020   9.403   7.644
71586SOL    HW116655   0.068   9.479   7.612
71586SOL    HW216656   0.059   9.329   7.598
71587SOL     OW16657   1.749  10.379   6.670
71587SOL    HW116658   1.767  10.389   6.763
71587SOL    HW216659   1.673  10.321   6.666
71588SOL     OW16660  11.844  14.637   0.765
71588SOL    HW116661  11.909  14.627   0.835
71588SOL    HW216662  11.892  14.682   0.695
71589SOL     OW16663   7.997   4.453   9.854
71589SOL    HW116664   7.990   4.370   9.806
71589SOL    HW216665   7.930   4.448   9.922
71590SOL     OW16666   3.194   3.553   2.264
71590SOL    HW116667   3.244   3.486   2.219
71590SOL    HW216668   3.103   3.525   2.256
71591SOL     OW16669  11.020   5.796  12.846
71591SOL    HW116670  11.072   5.784  12.926
71591SOL    HW216671  10.977   5.881  12.858
71592SOL     OW16672   4.564   5.096   3.946
71592SOL    HW116673   4.562   5.084   4.041
71592SOL    HW216674   4.538   5.187   3.932
71593SOL     OW16675   8.221  12.190   1.399
71593SOL    HW116676   8.137  12.209   1.358
71593SOL    HW216677   8.203  12.197   1.493
71594SOL     OW16678  10.904   8.781   7.915
71594SOL    HW116679  10.843   8.718   7.953
71594SOL    HW216680  10.887   8.862   7.962
71595SOL     OW16681   0.400   7.932   4.970
71595SOL    HW116682   0.471   7.952   4.910
71595SOL    HW216683   0.320   7.952   4.920
71596SOL     OW16684   2.179   7.718  10.894
71596SOL    HW116685   2.260   7.769  10.902
71596SOL    HW216686   2.109   7.782  10.903
71597SOL     OW16687  10.542   5.976   5.946
71597SOL    HW116688  10.473   5.963   6.011
71597SOL    HW216689  10.610   5.912   5.970
71598SOL     OW16690  14.456   7.569   9.419
71598SOL    HW116691  14.378   7.513   9.427
71598SOL    HW216692  14.513   7.521   9.359
71599SOL     OW16693   7.692   3.853   1.830
71599SOL    HW116694   7.700   3.820   1.741
71599SOL    HW216695   7.686   3.948   1.821
71600SOL     OW16696   4.928  10.337  14.405
71600SOL    HW116697   4.839  10.304  14.413
71600SOL    HW216698   4.951  10.323  14.313
71601SOL     OW16699   2.228  14.835   3.446
71601SOL    HW116700   2.187   0.049   3.441
71601SOL    HW216701   2.163  14.780   3.491
71602SOL     OW16702   1.679   5.030   0.225
71602SOL    HW116703   1.731   4.954   0.250
71602SOL    HW216704   1.687   5.090   0.299
71603SOL     OW16705   3.765  14.382   6.814
71603SOL    HW116706   3.843  14.341   6.851
71603SOL    HW216707   3.783  14.476   6.818
71604SOL     OW16708   7.730  12.991   0.661
71604SOL    HW116709   7.662  13.048   0.627
71604SOL    HW216710   7.810  13.043   0.656
71605SOL     OW16711   6.276   4.940   3.847
71605SOL    HW116712   6.244   4.939   3.756
71605SOL    HW216713   6.237   4.861   3.886
71606SOL     OW16714   5.208  14.403   2.531
71606SOL    HW116715   5.169  14.486   2.560
71606SOL    HW216716   5.134  14.354   2.494
71607SOL     OW16717   6.159  14.634   8.736
71607SOL    HW116718   6.166  14.655   8.643
71607SOL    HW216719   6.231  14.681   8.777
71608SOL     OW16720   2.855   4.977   3.668
71608SOL    HW116721   2.940   4.932   3.669
71608SOL    HW216722   2.848   5.015   3.756
71609SOL     OW16723   2.626   1.683   9.302
71609SOL    HW116724   2.677   1.752   9.259
71609SOL    HW216725   2.546   1.677   9.250
71610SOL     OW16726  10.191   1.803   9.595
71610SOL    HW116727  10.151   1.802   9.508
71610SOL    HW216728  10.259   1.869   9.589
71611SOL     OW16729   3.003  12.932   7.789
71611SOL    HW116730   2.978  12.841   7.774
71611SOL    HW216731   3.005  12.972   7.702
71612SOL     OW16732  14.234  10.266  10.618
71612SOL    HW116733  14.294  10.338  10.598
71612SOL    HW216734  14.162  10.307  10.664
71613SOL     OW16735   3.365  11.429   8.829
71613SOL    HW116736   3.279  11.465   8.850
71613SOL    HW216737   3.366  11.343   8.871
71614SOL     OW16738   2.355   7.327  12.793
71614SOL    HW116739   2.293   7.295  12.859
71614SOL    HW216740   2.372   7.417  12.818
71615SOL     OW16741   3.948   9.604   2.887
71615SOL    HW116742   4.004   9.644   2.820
71615SOL    HW216743   3.989   9.519   2.905
71616SOL     OW16744   9.699   8.792   9.190
71616SOL    HW116745   9.678   8.750   9.107
71616SOL    HW216746   9.616   8.825   9.223
71617SOL     OW16747   4.224   2.263   5.264
71617SOL    HW116748   4.173   2.342   5.280
71617SOL    HW216749   4.242   2.265   5.170
71618SOL     OW16750  11.279  13.350   7.647
71618SOL    HW116751  11.229  13.277   7.611
71618SOL    HW216752  11.335  13.379   7.575
71619SOL     OW16753   8.025   3.818   3.509
71619SOL    HW116754   7.994   3.730   3.527
71619SOL    HW216755   8.061   3.814   3.420
71620SOL     OW16756   2.527   4.893   6.648
71620SOL    HW116757   2.463   4.954   6.612
71620SOL    HW216758   2.488   4.863   6.730
71621SOL     OW16759   7.006   1.506   6.372
71621SOL    HW116760   7.042   1.515   6.283
71621SOL    HW216761   7.040   1.422   6.402
71622SOL     OW16762  11.635   5.413   3.255
71622SOL    HW116763  11.667   5.419   3.165
71622SOL    HW216764  11.557   5.358   3.249
71623SOL     OW16765   9.019  13.946   6.990
71623SOL    HW116766   9.092  13.993   6.949
71623SOL    HW216767   8.950  13.946   6.924
71624SOL     OW16768  12.080   5.973   6.566
71624SOL    HW116769  12.016   5.949   6.499
71624SOL    HW216770  12.032   6.031   6.625
71625SOL     OW16771   2.343   1.153   7.025
71625SOL    HW116772   2.403   1.102   6.970
71625SOL    HW216773   2.259   1.147   6.979
71626SOL     OW16774  14.660  11.268  12.921
71626SOL    HW116775  14.685  11.294  12.832
71626SOL    HW216776  14.565  11.276  12.922
71627SOL     OW16777  12.558   5.085  14.757
71627SOL    HW116778  12.618   5.063  14.686
71627SOL    HW216779  12.521   5.001  14.784
71628SOL     OW16780  10.268   1.939  11.170
71628SOL    HW116781  10.198   1.898  11.220
71628SOL    HW216782  10.224   2.004  11.116
71629SOL     OW16783  11.197   5.370   3.226
71629SOL    HW116784  11.169   5.447   3.275
71629SOL    HW216785  11.117   5.323   3.205
71630SOL     OW16786   3.101  13.039  11.449
71630SOL    HW116787   3.007  13.054  11.440
71630SOL    HW216788   3.118  12.959  11.399
71631SOL     OW16789  10.262   1.151   0.625
71631SOL    HW116790  10.179   1.163   0.670
71631SOL    HW216791  10.286   1.239   0.594
71632SOL     OW16792   2.213  11.795  13.699
71632SOL    HW116793   2.146  11.808  13.633
71632SOL    HW216794   2.290  11.840  13.665
71633SOL     OW16795   1.858   0.007   3.916
71633SOL    HW116796   1.934   0.017   3.973
71633SOL    HW216797   1.880  14.805   3.859
71634SOL     OW16798   2.031   6.956   6.325
71634SOL    HW116799   2.008   6.865   6.306
71634SOL    HW216800   2.090   6.951   6.400
71635SOL     OW16801   1.211   2.654  14.048
71635SOL    HW116802   1.264   2.625  14.122
71635SOL    HW216803   1.263   2.633  13.971
71636SOL     OW16804  10.490   5.248   0.320
71636SOL    HW116805  10.514   5.319   0.380
71636SOL    HW216806  10.397   5.264   0.302
71637SOL     OW16807  11.149   6.698   2.902
71637SOL    HW116808  11.135   6.762   2.832
71637SOL    HW216809  11.061   6.675   2.931
71638SOL     OW16810  12.962   4.156   8.266
71638SOL    HW116811  12.867   4.167   8.274
71638SOL    HW216812  12.977   4.064   8.288
71639SOL     OW16813  11.922   2.669   3.049
71639SOL    HW116814  11.867   2.594   3.070
71639SOL    HW216815  11.910   2.730   3.121
71640SOL     OW16816   8.222  14.295   2.073
71640SOL    HW116817   8.257  14.244   2.146
71640SOL    HW216818   8.255  14.384   2.089
71641SOL     OW16819   2.825  10.218   8.359
71641SOL    HW116820   2.797  10.142   8.410
71641SOL    HW216821   2.772  10.215   8.280
71642SOL     OW16822  11.953   6.420  10.106
71642SOL    HW116823  11.911   6.505  10.101
71642SOL    HW216824  11.881   6.357  10.111
71643SOL     OW16825  12.686   5.717   0.038
71643SOL    HW116826  12.749   5.766   0.091
71643SOL    HW216827  12.618   5.781   0.018
71644SOL     OW16828  14.431   3.065   2.764
71644SOL    HW116829  14.340   3.047   2.742
71644SOL    HW216830  14.432   3.071   2.860
71645SOL     OW16831   8.243  14.609  13.850
71645SOL    HW116832   8.283  14.654  13.924
71645SOL    HW216833   8.314  14.599  13.787
71646SOL     OW16834   5.951   2.796  13.269
71646SOL    HW116835   5.972   2.814  13.361
71646SOL    HW216836   5.869   2.747  13.273
71647SOL     OW16837   7.425   6.917  10.346
71647SOL    HW116838   7.509   6.948  10.312
71647SOL    HW216839   7.397   6.850  10.283
71648SOL     OW16840   5.419  10.954   2.101
71648SOL    HW116841   5.364  11.022   2.139
71648SOL    HW216842   5.494  11.001   2.063
71649SOL     OW16843  12.740   3.807  12.487
71649SOL    HW116844  12.823   3.780  12.526
71649SOL    HW216845  12.675   3.790  12.555
71650SOL     OW16846   2.926   2.649  10.314
71650SOL    HW116847   2.958   2.655  10.224
71650SOL    HW216848   2.894   2.737  10.334
71651SOL     OW16849   9.574   5.504   4.386
71651SOL    HW116850   9.607   5.422   4.423
71651SOL    HW216851   9.480   5.491   4.377
71652SOL     OW16852   5.962   3.438   6.582
71652SOL    HW116853   5.953   3.349   6.615
71652SOL    HW216854   5.926   3.434   6.493
71653SOL     OW16855  11.118   5.132   1.915
71653SOL    HW116856  11.092   5.045   1.945
71653SOL    HW216857  11.185   5.116   1.849
71654SOL     OW16858   9.955   8.833   1.812
71654SOL    HW116859   9.932   8.755   1.761
71654SOL    HW216860  10.034   8.807   1.860
71655SOL     OW16861   9.063   1.634   1.394
71655SOL    HW116862   9.130   1.702   1.407
71655SOL    HW216863   9.010   1.638   1.474
71656SOL     OW16864  10.165   6.849  12.688
71656SOL    HW116865  10.251   6.891  12.683
71656SOL    HW216866  10.182   6.766  12.733
71657SOL     OW16867  12.957   5.323  12.893
71657SOL    HW116868  13.037   5.366  12.922
71657SOL    HW216869  12.961   5.235  12.931
71658SOL     OW16870  12.388  13.111   9.960
71658SOL    HW116871  12.452  13.040   9.955
71658SOL    HW216872  12.431  13.178  10.013
71659SOL     OW16873  14.228   0.698   2.519
71659SOL    HW116874  14.266   0.659   2.440
71659SOL    HW216875  14.184   0.777   2.487
71660SOL     OW16876   4.799  12.162   6.562
71660SOL    HW116877   4.887  12.126   6.565
71660SOL    HW216878   4.748  12.098   6.511
71661SOL     OW16879   0.947   4.800  10.884
71661SOL    HW116880   1.012   4.831  10.947
71661SOL    HW216881   0.891   4.876  10.868
71662SOL     OW16882   5.402   3.726  14.290
71662SOL    HW116883   5.402   3.666  14.216
71662SOL    HW216884   5.326   3.700  14.342
71663SOL     OW16885   0.022  12.523  11.105
71663SOL    HW116886   0.090  12.505  11.169
71663SOL    HW216887   0.039  12.462  11.034
71664SOL     OW16888   6.453  10.414   4.273
71664SOL    HW116889   6.417  10.386   4.357
71664SOL    HW216890   6.536  10.368   4.266
71665SOL     OW16891   9.327   0.441   9.580
71665SOL    HW116892   9.339   0.367   9.521
71665SOL    HW216893   9.369   0.515   9.536
71666SOL     OW16894   3.956   7.547  11.449
71666SOL    HW116895   4.033   7.539  11.506
71666SOL    HW216896   3.978   7.493  11.373
71667SOL     OW16897   8.087   3.563   1.515
71667SOL    HW116898   8.110   3.595   1.428
71667SOL    HW216899   8.172   3.549   1.558
71668SOL     OW16900   7.155  10.674   9.743
71668SOL    HW116901   7.159  10.731   9.820
71668SOL    HW216902   7.142  10.586   9.779
71669SOL     OW16903   1.444   3.821   3.420
71669SOL    HW116904   1.399   3.744   3.456
71669SOL    HW216905   1.373   3.875   3.384
71670SOL     OW16906   8.298   5.680   7.924
71670SOL    HW116907   8.236   5.738   7.969
71670SOL    HW216908   8.303   5.714   7.835
71671SOL     OW16909  11.719  13.835  14.460
71671SOL    HW116910  11.663  13.764  14.491
71671SOL    HW216911  11.752  13.877  14.540
71672SOL     OW16912   9.374   2.664   1.662
71672SOL    HW116913   9.302   2.715   1.624
71672SOL    HW216914   9.358   2.574   1.633
71673SOL     OW16915   8.585   4.006  11.439
71673SOL    HW116916   8.499   4.028  11.402
71673SOL    HW216917   8.598   3.914  11.415
71674SOL     OW16918   6.491   7.678  11.543
71674SOL    HW116919   6.454   7.615  11.482
71674SOL    HW216920   6.416   7.714  11.590
71675SOL     OW16921   2.030  11.030  12.296
71675SOL    HW116922   1.940  11.036  12.265
71675SOL    HW216923   2.023  11.015  12.390
71676SOL     OW16924   6.099   5.247   0.442
71676SOL    HW116925   6.146   5.228   0.524
71676SOL    HW216926   6.055   5.330   0.458
71677SOL     OW16927   9.856   2.039   0.325
71677SOL    HW116928   9.845   2.006   0.236
71677SOL    HW216929   9.827   1.967   0.381
71678SOL     OW16930   7.757   6.095   2.479
71678SOL    HW116931   7.803   6.157   2.422
71678SOL    HW216932   7.800   6.104   2.564
71679SOL     OW16933   6.742   5.409   1.362
71679SOL    HW116934   6.689   5.489   1.361
71679SOL    HW216935   6.766   5.398   1.454
71680SOL     OW16936   3.395  10.773   2.241
71680SOL    HW116937   3.454  10.702   2.219
71680SOL    HW216938   3.320  10.762   2.182
71681SOL     OW16939   5.200  11.463   9.847
71681SOL    HW116940   5.112  11.426   9.838
71681SOL    HW216941   5.184  11.558   9.856
71682SOL     OW16942   5.611   2.011  10.953
71682SOL    HW116943   5.633   2.089  11.004
71682SOL    HW216944   5.674   2.010  10.881
71683SOL     OW16945   6.573   7.598   5.485
71683SOL    HW116946   6.641   7.547   5.440
71683SOL    HW216947   6.621   7.649   5.550
71684SOL     OW16948   5.984  14.356   8.544
71684SOL    HW116949   5.982  14.411   8.622
71684SOL    HW216950   5.925  14.283   8.565
71685SOL     OW16951   5.460   8.052   6.454
71685SOL    HW116952   5.534   8.095   6.496
71685SOL    HW216953   5.395   8.121   6.442
71686SOL     OW16954   1.827   3.286  13.896
71686SOL    HW116955   1.801   3.195  13.882
71686SOL    HW216956   1.761   3.321  13.957
71687SOL     OW16957  14.516   6.259  12.364
71687SOL    HW116958  14.521   6.166  12.386
71687SOL    HW216959  14.423   6.275  12.346
71688SOL     OW16960  11.174   4.347  11.247
71688SOL    HW116961  11.219   4.263  11.240
71688SOL    HW216962  11.244   4.409  11.266
71689SOL     OW16963  12.418   6.660   8.684
71689SOL    HW116964  12.472   6.614   8.747
71689SOL    HW216965  12.416   6.751   8.715
71690SOL     OW16966   3.026  10.466   3.528
71690SOL    HW116967   3.016  10.450   3.622
71690SOL    HW216968   2.943  10.437   3.490
71691SOL     OW16969  14.029   3.751   3.633
71691SOL    HW116970  14.003   3.799   3.555
71691SOL    HW216971  13.948   3.737   3.681
71692SOL     OW16972   3.272  11.632   6.971
71692SOL    HW116973   3.183  11.597   6.956
71692SOL    HW216974   3.326  11.554   6.981
71693SOL     OW16975   1.076   0.675   4.083
71693SOL    HW116976   1.003   0.622   4.116
71693SOL    HW216977   1.100   0.633   4.000
71694SOL     OW16978   1.413  12.374  11.326
71694SOL    HW116979   1.455  12.307  11.380
71694SOL    HW216980   1.479  12.396  11.260
71695SOL     OW16981   6.753   0.694  10.262
71695SOL    HW116982   6.677   0.751  10.277
71695SOL    HW216983   6.829   0.750  10.278
71696SOL     OW16984   0.684   0.991   9.477
71696SOL    HW116985   0.707   1.019   9.565
71696SOL    HW216986   0.755   1.022   9.422
71697SOL     OW16987  10.254   5.221  10.557
71697SOL    HW116988  10.189   5.262  10.614
71697SOL    HW216989  10.274   5.287  10.491
71698SOL     OW16990   7.891   1.710  12.623
71698SOL    HW116991   7.803   1.681  12.644
71698SOL    HW216992   7.904   1.686  12.531
71699SOL     OW16993   2.263  10.487   9.937
71699SOL    HW116994   2.272  10.529   9.851
71699SOL    HW216995   2.339  10.429   9.943
71700SOL     OW16996  11.532   8.437  13.599
71700SOL    HW116997  11.484   8.468  13.676
71700SOL    HW216998  11.580   8.514  13.569
71701SOL     OW16999   2.953  11.031   6.100
71701SOL    HW117000   2.930  10.991   6.017
71701SOL    HW217001   3.025  11.090   6.080
71702SOL     OW17002  13.105   4.750   3.930
71702SOL    HW117003  13.038   4.788   3.873
71702SOL    HW217004  13.126   4.819   3.993
71703SOL     OW17005  12.802   5.180  11.573
71703SOL    HW117006  12.799   5.168  11.668
71703SOL    HW217007  12.738   5.117  11.539
71704SOL     OW17008   2.811   3.920   5.293
71704SOL    HW117009   2.789   3.971   5.371
71704SOL    HW217010   2.907   3.919   5.291
71705SOL     OW17011  11.092   5.169   1.090
71705SOL    HW117012  11.023   5.149   1.026
71705SOL    HW217013  11.159   5.215   1.039
71706SOL     OW17014  10.721   2.028   1.726
71706SOL    HW117015  10.705   1.959   1.662
71706SOL    HW217016  10.786   2.085   1.685
71707SOL     OW17017   0.361   2.921  13.395
71707SOL    HW117018   0.425   2.891  13.330
71707SOL    HW217019   0.309   2.843  13.415
71708SOL     OW17020   1.997   7.598   1.598
71708SOL    HW117021   1.998   7.633   1.687
71708SOL    HW217022   1.990   7.503   1.610
71709SOL     OW17023   6.446   2.518   2.298
71709SOL    HW117024   6.476   2.604   2.267
71709SOL    HW217025   6.493   2.455   2.243
71710SOL     OW17026   1.732  11.136  11.467
71710SOL    HW117027   1.738  11.185  11.385
71710SOL    HW217028   1.755  11.199  11.535
71711SOL     OW17029   5.961   0.996   2.205
71711SOL    HW117030   6.055   0.981   2.202
71711SOL    HW217031   5.943   1.022   2.296
71712SOL     OW17032   0.093  14.623   2.219
71712SOL    HW117033   0.124  14.566   2.148
71712SOL    HW217034   0.032  14.683   2.175
71713SOL     OW17035  12.620  11.199   5.317
71713SOL    HW117036  12.663  11.141   5.253
71713SOL    HW217037  12.575  11.264   5.263
71714SOL     OW17038  12.267   1.563   0.139
71714SOL    HW117039  12.258   1.609   0.223
71714SOL    HW217040  12.228   1.477   0.155
71715SOL     OW17041   0.670  10.373   7.009
71715SOL    HW117042   0.692  10.285   7.040
71715SOL    HW217043   0.577  10.383   7.029
71716SOL     OW17044   9.238  12.861  10.206
71716SOL    HW117045   9.272  12.789  10.153
71716SOL    HW217046   9.256  12.940  10.154
71717SOL     OW17047   6.261   3.558  14.697
71717SOL    HW117048   6.291   3.648  14.698
71717SOL    HW217049   6.334   3.508  14.732
71718SOL     OW17050  13.392   8.647  14.778
71718SOL    HW117051  13.353   8.683  14.698
71718SOL    HW217052  13.318   8.615  14.828
71719SOL     OW17053   4.790   5.332  12.004
71719SOL    HW117054   4.712   5.353  11.953
71719SOL    HW217055   4.773   5.245  12.040
71720SOL     OW17056  12.341   6.832  12.741
71720SOL    HW117057  12.331   6.883  12.661
71720SOL    HW217058  12.393   6.888  12.799
71721SOL     OW17059   1.345  14.276   0.898
71721SOL    HW117060   1.327  14.370   0.896
71721SOL    HW217061   1.336  14.248   0.807
71722SOL     OW17062  11.745  12.649  10.092
71722SOL    HW117063  11.662  12.696  10.101
71722SOL    HW217064  11.811  12.713  10.118
71723SOL     OW17065   3.187   9.772  13.483
71723SOL    HW117066   3.231   9.782  13.567
71723SOL    HW217067   3.230   9.834  13.425
71724SOL     OW17068   2.957   6.144   8.168
71724SOL    HW117069   2.984   6.236   8.165
71724SOL    HW217070   2.865   6.147   8.191
71725SOL     OW17071   4.570   1.912  10.686
71725SOL    HW117072   4.500   1.855  10.719
71725SOL    HW217073   4.640   1.852  10.662
71726SOL     OW17074   2.115   6.093   8.241
71726SOL    HW117075   2.059   6.139   8.179
71726SOL    HW217076   2.056   6.060   8.308
71727SOL     OW17077  13.082   6.748  11.147
71727SOL    HW117078  13.017   6.679  11.129
71727SOL    HW217079  13.056   6.784  11.231
71728SOL     OW17080  11.161   4.864  13.731
71728SOL    HW117081  11.155   4.779  13.772
71728SOL    HW217082  11.246   4.899  13.758
71729SOL     OW17083  11.360   5.000  10.287
71729SOL    HW117084  11.419   4.925  10.279
71729SOL    HW217085  11.282   4.965  10.332
71730SOL     OW17086  10.485  13.321   5.850
71730SOL    HW117087  10.506  13.413   5.836
71730SOL    HW217088  10.545  13.274   5.791
71731SOL     OW17089   0.272  12.895  14.357
71731SOL    HW117090   0.267  12.971  14.298
71731SOL    HW217091   0.204  12.835  14.325
71732SOL     OW17092   8.075   3.819  14.182
71732SOL    HW117093   8.045   3.897  14.228
71732SOL    HW217094   8.010   3.804  14.114
71733SOL     OW17095   4.339   5.865  11.676
71733SOL    HW117096   4.398   5.859  11.601
71733SOL    HW217097   4.396   5.856  11.752
71734SOL     OW17098   6.955  14.050   2.324
71734SOL    HW117099   7.029  14.064   2.382
71734SOL    HW217100   6.889  14.009   2.381
71735SOL     OW17101  10.466  11.838   3.040
71735SOL    HW117102  10.409  11.796   3.104
71735SOL    HW217103  10.408  11.857   2.966
71736SOL     OW17104   2.776  13.204  10.267
71736SOL    HW117105   2.780  13.172  10.357
71736SOL    HW217106   2.687  13.185  10.239
71737SOL     OW17107  11.623   0.653   4.624
71737SOL    HW117108  11.651   0.569   4.589
71737SOL    HW217109  11.703   0.691   4.661
71738SOL     OW17110   5.283   4.936  13.300
71738SOL    HW117111   5.233   4.866  13.343
71738SOL    HW217112   5.375   4.912  13.314
71739SOL     OW17113   8.991   9.361   4.374
71739SOL    HW117114   8.999   9.440   4.322
71739SOL    HW217115   8.925   9.309   4.328
71740SOL     OW17116   3.218   7.624   5.168
71740SOL    HW117117   3.280   7.694   5.146
71740SOL    HW217118   3.268   7.543   5.159
71741SOL     OW17119  11.305   9.615   0.612
71741SOL    HW117120  11.382   9.656   0.652
71741SOL    HW217121  11.342   9.552   0.550
71742SOL     OW17122  12.241  10.267   8.565
71742SOL    HW117123  12.240  10.191   8.624
71742SOL    HW217124  12.254  10.228   8.478
71743SOL     OW17125  13.486   0.137  12.969
71743SOL    HW117126  13.516   0.205  13.028
71743SOL    HW217127  13.506   0.171  12.881
71744SOL     OW17128   5.379   6.511  14.541
71744SOL    HW117129   5.339   6.428  14.517
71744SOL    HW217130   5.416   6.496  14.629
71745SOL     OW17131   9.931   4.087  10.167
71745SOL    HW117132   9.879   4.083  10.247
71745SOL    HW217133  10.001   4.149  10.186
71746SOL     OW17134  13.498   4.850   6.978
71746SOL    HW117135  13.566   4.785   6.997
71746SOL    HW217136  13.546   4.925   6.942
71747SOL     OW17137   4.771   1.798  12.835
71747SOL    HW117138   4.685   1.765  12.862
71747SOL    HW217139   4.764   1.893  12.845
71748SOL     OW17140   5.635   6.280   3.483
71748SOL    HW117141   5.551   6.257   3.522
71748SOL    HW217142   5.699   6.261   3.552
71749SOL     OW17143   1.970  13.134   1.372
71749SOL    HW117144   1.903  13.151   1.305
71749SOL    HW217145   1.956  13.202   1.438
71750SOL     OW17146   2.342  12.270   8.876
71750SOL    HW117147   2.340  12.280   8.780
71750SOL    HW217148   2.297  12.187   8.891
71751SOL     OW17149  13.215   5.279   6.801
71751SOL    HW117150  13.248   5.280   6.891
71751SOL    HW217151  13.280   5.229   6.752
71752SOL     OW17152  10.208   4.842  14.697
71752SOL    HW117153  10.187   4.928  14.732
71752SOL    HW217154  10.236   4.791  14.774
71753SOL     OW17155   2.761   5.207  11.513
71753SOL    HW117156   2.676   5.182  11.477
71753SOL    HW217157   2.739   5.262  11.589
71754SOL     OW17158   2.318   0.710   1.707
71754SOL    HW117159   2.289   0.681   1.793
71754SOL    HW217160   2.303   0.636   1.649
71755SOL     OW17161  12.872   8.458   6.025
71755SOL    HW117162  12.922   8.449   5.943
71755SOL    HW217163  12.822   8.377   6.031
71756SOL     OW17164   5.823   6.931   4.366
71756SOL    HW117165   5.775   6.857   4.405
71756SOL    HW217166   5.897   6.890   4.320
71757SOL     OW17167  12.745  10.796   3.279
71757SOL    HW117168  12.795  10.747   3.214
71757SOL    HW217169  12.808  10.821   3.346
71758SOL     OW17170  14.193   7.508   8.515
71758SOL    HW117171  14.143   7.500   8.596
71758SOL    HW217172  14.132   7.483   8.446
71759SOL     OW17173  12.360  11.661   9.183
71759SOL    HW117174  12.279  11.686   9.139
71759SOL    HW217175  12.343  11.573   9.216
71760SOL     OW17176  11.024   9.672   8.767
71760SOL    HW117177  10.940   9.626   8.761
71760SOL    HW217178  11.008   9.756   8.725
71761SOL     OW17179   6.554   0.045   9.804
71761SOL    HW117180   6.546   0.082   9.716
71761SOL    HW217181   6.536  14.824   9.793
71762SOL     OW17182   1.336   4.917   3.458
71762SOL    HW117183   1.367   4.902   3.369
71762SOL    HW217184   1.260   4.974   3.447
71763SOL     OW17185  14.827   1.740  11.404
71763SOL    HW117186  14.823   1.654  11.361
71763SOL    HW217187   0.048   1.755  11.417
71764SOL     OW17188  13.554  13.610  11.748
71764SOL    HW117189  13.570  13.704  11.754
71764SOL    HW217190  13.590  13.574  11.830
71765SOL     OW17191   8.410   1.847   6.664
71765SOL    HW117192   8.481   1.865   6.726
71765SOL    HW217193   8.446   1.783   6.603
71766SOL     OW17194  14.821  12.282   7.140
71766SOL    HW117195  14.820  12.244   7.053
71766SOL    HW217196   0.005  12.359   7.132
71767SOL     OW17197   2.213  10.659   6.118
71767SOL    HW117198   2.160  10.724   6.072
71767SOL    HW217199   2.161  10.579   6.115
71768SOL     OW17200   3.009  10.126   0.300
71768SOL    HW117201   3.094  10.170   0.290
71768SOL    HW217202   3.026  10.035   0.274
71769SOL     OW17203   1.915  11.157   8.229
71769SOL    HW117204   1.858  11.080   8.224
71769SOL    HW217205   1.874  11.222   8.171
71770SOL     OW17206  14.058   8.406   3.075
71770SOL    HW117207  14.058   8.315   3.102
71770SOL    HW217208  14.133   8.413   3.015
71771SOL     OW17209   1.166   2.950   6.751
71771SOL    HW117210   1.202   2.864   6.773
71771SOL    HW217211   1.157   2.950   6.656
71772SOL     OW17212   0.873  14.080  13.927
71772SOL    HW117213   0.874  14.101  13.834
71772SOL    HW217214   0.856  14.164  13.970
71773SOL     OW17215  14.001   6.227  12.831
71773SOL    HW117216  13.907   6.241  12.844
71773SOL    HW217217  14.043   6.302  12.874
71774SOL     OW17218   8.141   4.334  14.783
71774SOL    HW117219   8.108   4.245  14.796
71774SOL    HW217220   8.236   4.323  14.772
71775SOL     OW17221   1.203   2.950  13.078
71775SOL    HW117222   1.251   2.891  13.137
71775SOL    HW217223   1.121   2.968  13.124
71776SOL     OW17224   0.804   5.639   7.224
71776SOL    HW117225   0.882   5.694   7.222
71776SOL    HW217226   0.757   5.665   7.304
71777SOL     OW17227   3.740   7.640  13.623
71777SOL    HW117228   3.723   7.707  13.556
71777SOL    HW217229   3.802   7.681  13.684
71778SOL     OW17230  10.241   6.848  10.084
71778SOL    HW117231  10.191   6.843  10.002
71778SOL    HW217232  10.188   6.905  10.141
71779SOL     OW17233   5.681   2.091  12.457
71779SOL    HW117234   5.643   2.173  12.424
71779SOL    HW217235   5.680   2.032  12.382
71780SOL     OW17236  12.268   1.424   2.438
71780SOL    HW117237  12.217   1.417   2.357
71780SOL    HW217238  12.283   1.518   2.449
71781SOL     OW17239   4.286   9.143   3.527
71781SOL    HW117240   4.349   9.178   3.590
71781SOL    HW217241   4.340   9.102   3.460
71782SOL     OW17242  12.820   0.055  11.064
71782SOL    HW117243  12.771  14.866  11.118
71782SOL    HW217244  12.755   0.091  11.003
71783SOL     OW17245  11.367  11.058   3.652
71783SOL    HW117246  11.322  11.143   3.655
71783SOL    HW217247  11.443  11.074   3.595
71784SOL     OW17248   1.466   2.583   8.870
71784SOL    HW117249   1.555   2.611   8.848
71784SOL    HW217250   1.413   2.608   8.794
71785SOL     OW17251   2.754   8.537   4.696
71785SOL    HW117252   2.684   8.486   4.735
71785SOL    HW217253   2.821   8.473   4.673
71786SOL     OW17254   1.289  13.322   3.024
71786SOL    HW117255   1.302  13.232   3.052
71786SOL    HW217256   1.208  13.349   3.068
71787SOL     OW17257   9.106  13.990  14.416
71787SOL    HW117258   9.016  13.958  14.405
71787SOL    HW217259   9.155  13.913  14.443
71788SOL     OW17260   1.327   3.060   7.616
71788SOL    HW117261   1.280   3.030   7.538
71788SOL    HW217262   1.406   3.006   7.619
71789SOL     OW17263   1.899  11.118  14.809
71789SOL    HW117264   1.986  11.156  14.797
71789SOL    HW217265   1.891  11.054  14.738
71790SOL     OW17266   7.324   0.894   6.956
71790SOL    HW117267   7.269   0.834   7.006
71790SOL    HW217268   7.413   0.871   6.980
71791SOL     OW17269  11.684   8.855   4.120
71791SOL    HW117270  11.594   8.823   4.110
71791SOL    HW217271  11.736   8.776   4.137
71792SOL     OW17272  12.528  10.595   3.269
71792SOL    HW117273  12.604  10.638   3.309
71792SOL    HW217274  12.532  10.505   3.301
71793SOL     OW17275   5.382   7.687   8.370
71793SOL    HW117276   5.341   7.736   8.441
71793SOL    HW217277   5.405   7.753   8.305
71794SOL     OW17278  11.593  11.194  13.379
71794SOL    HW117279  11.637  11.141  13.313
71794SOL    HW217280  11.511  11.149  13.396
71795SOL     OW17281  14.500  13.651   0.583
71795SOL    HW117282  14.545  13.684   0.504
71795SOL    HW217283  14.514  13.720   0.648
71796SOL     OW17284  10.530   0.542   0.367
71796SOL    HW117285  10.457   0.559   0.308
71796SOL    HW217286  10.551   0.628   0.404
71797SOL     OW17287  14.341   6.861  10.524
71797SOL    HW117288  14.389   6.876  10.442
71797SOL    HW217289  14.406   6.822  10.583
71798SOL     OW17290   8.493   3.102   5.490
71798SOL    HW117291   8.503   3.156   5.568
71798SOL    HW217292   8.573   3.117   5.440
71799SOL     OW17293   6.580  10.744   2.696
71799SOL    HW117294   6.673  10.735   2.674
71799SOL    HW217295   6.577  10.820   2.753
71800SOL     OW17296   3.007   1.236   1.530
71800SOL    HW117297   2.992   1.234   1.625
71800SOL    HW217298   3.083   1.293   1.519
71801SOL     OW17299   8.547   7.804  10.138
71801SOL    HW117300   8.533   7.824  10.045
71801SOL    HW217301   8.470   7.839  10.182
71802SOL     OW17302   0.986   8.934   0.540
71802SOL    HW117303   1.006   8.998   0.471
71802SOL    HW217304   0.910   8.971   0.585
71803SOL     OW17305   3.491  12.259   9.630
71803SOL    HW117306   3.509  12.332   9.689
71803SOL    HW217307   3.575  12.238   9.589
71804SOL     OW17308   0.693  14.208   8.327
71804SOL    HW117309   0.760  14.239   8.265
71804SOL    HW217310   0.700  14.113   8.324
71805SOL     OW17311   3.477   3.095  12.121
71805SOL    HW117312   3.516   3.121  12.204
71805SOL    HW217313   3.480   2.999  12.123
71806SOL     OW17314   9.497   5.259   6.172
71806SOL    HW117315   9.449   5.284   6.093
71806SOL    HW217316   9.441   5.289   6.244
71807SOL     OW17317   5.486   2.171   4.113
71807SOL    HW117318   5.563   2.198   4.163
71807SOL    HW217319   5.505   2.081   4.087
71808SOL     OW17320   2.552   1.890   4.135
71808SOL    HW117321   2.642   1.861   4.151
71808SOL    HW217322   2.499   1.812   4.146
71809SOL     OW17323   2.650  13.328   7.296
71809SOL    HW117324   2.608  13.403   7.340
71809SOL    HW217325   2.738  13.325   7.333
71810SOL     OW17326  11.608   3.285   4.259
71810SOL    HW117327  11.593   3.379   4.269
71810SOL    HW217328  11.573   3.246   4.340
71811SOL     OW17329   2.422   5.732   2.113
71811SOL    HW117330   2.433   5.644   2.077
71811SOL    HW217331   2.421   5.719   2.208
71812SOL     OW17332  11.802  13.942   5.860
71812SOL    HW117333  11.803  13.939   5.955
71812SOL    HW217334  11.871  14.005   5.837
71813SOL     OW17335   4.347   2.719   4.418
71813SOL    HW117336   4.433   2.740   4.453
71813SOL    HW217337   4.353   2.627   4.393
71814SOL     OW17338   3.793  10.599   6.746
71814SOL    HW117339   3.877  10.600   6.700
71814SOL    HW217340   3.728  10.610   6.678
71815SOL     OW17341   9.549  14.861  12.817
71815SOL    HW117342   9.631  14.835  12.858
71815SOL    HW217343   9.546  14.810  12.736
71816SOL     OW17344   9.471   6.593   2.076
71816SOL    HW117345   9.483   6.629   1.988
71816SOL    HW217346   9.468   6.498   2.064
71817SOL     OW17347   5.064  14.231   0.017
71817SOL    HW117348   5.024  14.205  14.806
71817SOL    HW217349   5.007  14.299   0.051
71818SOL     OW17350  13.495   5.986  13.819
71818SOL    HW117351  13.537   5.936  13.888
71818SOL    HW217352  13.450   6.057  13.864
71819SOL     OW17353   0.488   2.915   0.469
71819SOL    HW117354   0.435   2.922   0.390
71819SOL    HW217355   0.558   2.854   0.446
71820SOL     OW17356   1.937   5.293   8.887
71820SOL    HW117357   1.851   5.291   8.846
71820SOL    HW217358   1.922   5.265   8.977
71821SOL     OW17359  12.245   7.286  12.434
71821SOL    HW117360  12.278   7.314  12.348
71821SOL    HW217361  12.164   7.336  12.446
71822SOL     OW17362  10.534   9.057   6.749
71822SOL    HW117363  10.542   9.132   6.691
71822SOL    HW217364  10.621   9.047   6.787
71823SOL     OW17365   9.739   6.608   4.346
71823SOL    HW117366   9.649   6.630   4.372
71823SOL    HW217367   9.770   6.548   4.414
71824SOL     OW17368   3.991   1.748  14.202
71824SOL    HW117369   4.025   1.751  14.112
71824SOL    HW217370   4.029   1.669  14.240
71825SOL     OW17371   6.214   4.749   2.905
71825SOL    HW117372   6.246   4.817   2.965
71825SOL    HW217373   6.127   4.779   2.879
71826SOL     OW17374   5.737   3.833   1.843
71826SOL    HW117375   5.744   3.741   1.816
71826SOL    HW217376   5.825   3.868   1.832
71827SOL     OW17377   9.382   6.374   1.858
71827SOL    HW117378   9.297   6.383   1.902
71827SOL    HW217379   9.369   6.412   1.772
71828SOL     OW17380  10.884   1.077  12.126
71828SOL    HW117381  10.791   1.057  12.117
71828SOL    HW217382  10.909   1.110  12.040
71829SOL     OW17383   4.789   7.452  14.301
71829SOL    HW117384   4.815   7.426  14.389
71829SOL    HW217385   4.735   7.530  14.315
71830SOL     OW17386   0.441   7.182   9.607
71830SOL    HW117387   0.360   7.181   9.556
71830SOL    HW217388   0.429   7.113   9.672
71831SOL     OW17389  12.071  11.473   3.730
71831SOL    HW117390  11.988  11.511   3.759
71831SOL    HW217391  12.062  11.466   3.635
71832SOL     OW17392   6.554   5.058   2.140
71832SOL    HW117393   6.609   4.992   2.097
71832SOL    HW217394   6.607   5.138   2.137
71833SOL     OW17395  13.399   3.064  14.554
71833SOL    HW117396  13.376   2.982  14.509
71833SOL    HW217397  13.416   3.037  14.644
71834SOL     OW17398   1.327   8.747  14.166
71834SOL    HW117399   1.401   8.693  14.137
71834SOL    HW217400   1.275   8.688  14.219
71835SOL     OW17401   2.804   6.480   7.267
71835SOL    HW117402   2.821   6.553   7.327
71835SOL    HW217403   2.874   6.486   7.201
71836SOL     OW17404  12.667   3.076   6.330
71836SOL    HW117405  12.648   3.002   6.272
71836SOL    HW217406  12.581   3.106   6.359
71837SOL     OW17407   7.155   1.770  14.720
71837SOL    HW117408   7.173   1.847  14.665
71837SOL    HW217409   7.161   1.803  14.810
71838SOL     OW17410   2.739   3.078  10.026
71838SOL    HW117411   2.835   3.083  10.027
71838SOL    HW217412   2.711   3.152   9.973
71839SOL     OW17413   9.052   6.772  12.960
71839SOL    HW117414   9.009   6.837  12.905
71839SOL    HW217415   8.985   6.706  12.978
71840SOL     OW17416   0.341   8.442   1.648
71840SOL    HW117417   0.319   8.534   1.629
71840SOL    HW217418   0.386   8.446   1.733
71841SOL     OW17419   2.228  13.077   1.275
71841SOL    HW117420   2.144  13.091   1.319
71841SOL    HW217421   2.206  13.032   1.194
71842SOL     OW17422  11.458   5.606   2.787
71842SOL    HW117423  11.378   5.642   2.826
71842SOL    HW217424  11.528   5.634   2.846
71843SOL     OW17425   9.559   5.048  10.529
71843SOL    HW117426   9.510   4.966  10.526
71843SOL    HW217427   9.534   5.088  10.612
71844SOL     OW17428   6.567  10.393  12.118
71844SOL    HW117429   6.471  10.389  12.109
71844SOL    HW217430   6.599  10.383  12.029
71845SOL     OW17431   5.001   8.165   9.368
71845SOL    HW117432   5.064   8.096   9.390
71845SOL    HW217433   5.007   8.227   9.441
71846SOL     OW17434   3.571   4.103  12.933
71846SOL    HW117435   3.512   4.054  12.990
71846SOL    HW217436   3.641   4.133  12.991
71847SOL     OW17437   3.027   9.564  12.364
71847SOL    HW117438   2.966   9.495  12.392
71847SOL    HW217439   3.010   9.637  12.424
71848SOL     OW17440   7.695  10.916  10.892
71848SOL    HW117441   7.790  10.919  10.897
71848SOL    HW217442   7.666  10.927  10.982
71849SOL     OW17443   0.600  12.842   2.086
71849SOL    HW117444   0.606  12.834   2.181
71849SOL    HW217445   0.651  12.768   2.052
71850SOL     OW17446  13.889   2.385  10.233
71850SOL    HW117447  13.805   2.428  10.220
71850SOL    HW217448  13.867   2.297  10.263
71851SOL     OW17449   6.544   4.128  14.789
71851SOL    HW117450   6.552   4.034  14.804
71851SOL    HW217451   6.592   4.168  14.862
71852SOL     OW17452   5.314   1.094   3.831
71852SOL    HW117453   5.228   1.093   3.872
71852SOL    HW217454   5.318   1.178   3.785
71853SOL     OW17455   4.374   6.385   8.169
71853SOL    HW117456   4.463   6.415   8.155
71853SOL    HW217457   4.370   6.363   8.262
71854SOL     OW17458  12.199   7.456   7.441
71854SOL    HW117459  12.144   7.445   7.518
71854SOL    HW217460  12.289   7.447   7.473
71855SOL     OW17461  11.068  14.393  14.099
71855SOL    HW117462  11.002  14.367  14.163
71855SOL    HW217463  11.149  14.402  14.150
71856SOL     OW17464   7.354   5.387  13.741
71856SOL    HW117465   7.427   5.326  13.730
71856SOL    HW217466   7.276   5.334  13.726
71857SOL     OW17467   8.923   1.709   2.426
71857SOL    HW117468   8.888   1.645   2.488
71857SOL    HW217469   8.967   1.656   2.360
71858SOL     OW17470   5.687   2.528  14.748
71858SOL    HW117471   5.695   2.623  14.755
71858SOL    HW217472   5.772   2.499  14.717
71859SOL     OW17473  12.571   1.453   9.462
71859SOL    HW117474  12.513   1.411   9.398
71859SOL    HW217475  12.627   1.510   9.409
71860SOL     OW17476  13.406   3.577   5.900
71860SOL    HW117477  13.500   3.576   5.886
71860SOL    HW217478  13.382   3.669   5.899
71861SOL     OW17479   7.949   8.891  13.294
71861SOL    HW117480   8.039   8.893  13.261
71861SOL    HW217481   7.959   8.871  13.387
71862SOL     OW17482   0.024   8.451  10.864
71862SOL    HW117483   0.003   8.454  10.957
71862SOL    HW217484   0.020   8.543  10.836
71863SOL     OW17485   7.657  13.419  11.503
71863SOL    HW117486   7.599  13.490  11.476
71863SOL    HW217487   7.601  13.360  11.554
71864SOL     OW17488   5.472   3.311   2.533
71864SOL    HW117489   5.526   3.371   2.482
71864SOL    HW217490   5.529   3.284   2.605
71865SOL     OW17491   6.673   9.930   6.288
71865SOL    HW117492   6.660   9.892   6.374
71865SOL    HW217493   6.586   9.932   6.248
71866SOL     OW17494  14.709   4.725  10.061
71866SOL    HW117495  14.677   4.757   9.976
71866SOL    HW217496  14.720   4.804  10.113
71867SOL     OW17497   2.654   3.386   6.025
71867SOL    HW117498   2.732   3.330   6.019
71867SOL    HW217499   2.591   3.333   6.073
71868SOL     OW17500   2.137   2.043  12.956
71868SOL    HW117501   2.066   2.028  12.893
71868SOL    HW217502   2.094   2.081  13.032
71869SOL     OW17503  10.353  13.243   8.124
71869SOL    HW117504  10.262  13.274   8.119
71869SOL    HW217505  10.394  13.303   8.187
71870SOL     OW17506  13.938   2.355   9.090
71870SOL    HW117507  14.009   2.298   9.059
71870SOL    HW217508  13.974   2.398   9.168
71871SOL     OW17509   5.977   2.369   1.964
71871SOL    HW117510   6.067   2.401   1.969
71871SOL    HW217511   5.985   2.275   1.983
71872SOL     OW17512   3.933   9.528   2.546
71872SOL    HW117513   3.847   9.570   2.544
71872SOL    HW217514   3.994   9.594   2.514
71873SOL     OW17515  13.666   4.131  10.924
71873SOL    HW117516  13.712   4.196  10.976
71873SOL    HW217517  13.702   4.047  10.953
71874SOL     OW17518  12.816   5.622   6.881
71874SOL    HW117519  12.877   5.566   6.834
71874SOL    HW217520  12.750   5.563   6.916
71875SOL     OW17521   6.400   9.607   9.043
71875SOL    HW117522   6.475   9.583   9.098
71875SOL    HW217523   6.348   9.527   9.036
71876SOL     OW17524   1.544   6.005   2.942
71876SOL    HW117525   1.634   5.992   2.914
71876SOL    HW217526   1.519   5.922   2.983
71877SOL     OW17527   3.616   0.106  11.263
71877SOL    HW117528   3.585   0.045  11.331
71877SOL    HW217529   3.704   0.132  11.292
71878SOL     OW17530   3.866  13.803   1.941
71878SOL    HW117531   3.897  13.888   1.974
71878SOL    HW217532   3.944  13.764   1.901
71879SOL     OW17533  11.890   0.582  12.960
71879SOL    HW117534  11.938   0.500  12.947
71879SOL    HW217535  11.949   0.650  12.926
71880SOL     OW17536   5.157   3.717  14.457
71880SOL    HW117537   5.152   3.656  14.532
71880SOL    HW217538   5.070   3.715  14.419
71881SOL     OW17539   6.864   9.208   5.134
71881SOL    HW117540   6.824   9.295   5.136
71881SOL    HW217541   6.959   9.226   5.133
71882SOL     OW17542   4.307   8.076   9.532
71882SOL    HW117543   4.276   8.130   9.460
71882SOL    HW217544   4.289   8.127   9.611
71883SOL     OW17545   6.739   3.080   1.775
71883SOL    HW117546   6.757   3.148   1.710
71883SOL    HW217547   6.684   3.123   1.840
71884SOL     OW17548   8.468   8.553  13.625
71884SOL    HW117549   8.545   8.549  13.680
71884SOL    HW217550   8.456   8.463  13.594
71885SOL     OW17551  12.331  14.583   3.170
71885SOL    HW117552  12.414  14.631   3.167
71885SOL    HW217553  12.357  14.490   3.172
71886SOL     OW17554  10.825  11.344  10.667
71886SOL    HW117555  10.785  11.259  10.652
71886SOL    HW217556  10.829  11.385  10.581
71887SOL     OW17557   5.995  13.112  12.104
71887SOL    HW117558   6.021  13.150  12.188
71887SOL    HW217559   6.061  13.045  12.086
71888SOL     OW17560   0.088  13.481   3.836
71888SOL    HW117561  14.869  13.454   3.847
71888SOL    HW217562   0.094  13.566   3.879
71889SOL     OW17563   6.731   3.052  12.557
71889SOL    HW117564   6.688   3.018  12.636
71889SOL    HW217565   6.815   3.006  12.553
71890SOL     OW17566   6.556   8.374  10.845
71890SOL    HW117567   6.479   8.317  10.846
71890SOL    HW217568   6.522   8.458  10.815
71891SOL     OW17569   9.614  10.983   7.599
71891SOL    HW117570   9.572  11.054   7.551
71891SOL    HW217571   9.582  10.993   7.689
71892SOL     OW17572  11.681   4.829   9.283
71892SOL    HW117573  11.717   4.800   9.199
71892SOL    HW217574  11.593   4.791   9.286
71893SOL     OW17575   3.661   2.518   8.674
71893SOL    HW117576   3.614   2.558   8.747
71893SOL    HW217577   3.594   2.466   8.629
71894SOL     OW17578   3.493   5.507  12.011
71894SOL    HW117579   3.514   5.572  12.078
71894SOL    HW217580   3.447   5.438  12.059
71895SOL     OW17581   0.455  12.109   5.459
71895SOL    HW117582   0.391  12.050   5.499
71895SOL    HW217583   0.403  12.181   5.423
71896SOL     OW17584   6.711  11.748   1.222
71896SOL    HW117585   6.629  11.795   1.208
71896SOL    HW217586   6.747  11.736   1.134
71897SOL     OW17587   4.730  14.117  12.346
71897SOL    HW117588   4.655  14.146  12.399
71897SOL    HW217589   4.805  14.161  12.385
71898SOL     OW17590   8.981   8.980  10.600
71898SOL    HW117591   9.058   8.939  10.639
71898SOL    HW217592   8.977   8.945  10.511
71899SOL     OW17593  11.355   1.329   3.813
71899SOL    HW117594  11.316   1.280   3.886
71899SOL    HW217595  11.363   1.265   3.743
71900SOL     OW17596  10.508  11.832  13.077
71900SOL    HW117597  10.566  11.874  13.140
71900SOL    HW217598  10.498  11.743  13.108
71901SOL     OW17599   3.348   8.511   2.241
71901SOL    HW117600   3.320   8.425   2.210
71901SOL    HW217601   3.267   8.552   2.273
71902SOL     OW17602   7.699   9.635   3.396
71902SOL    HW117603   7.711   9.608   3.305
71902SOL    HW217604   7.784   9.674   3.421
71903SOL     OW17605   3.321   0.565   4.065
71903SOL    HW117606   3.398   0.523   4.103
71903SOL    HW217607   3.291   0.504   3.998
71904SOL     OW17608   6.929  12.483   1.391
71904SOL    HW117609   6.923  12.542   1.466
71904SOL    HW217610   6.976  12.533   1.324
71905SOL     OW17611  11.456  12.163  14.153
71905SOL    HW117612  11.410  12.144  14.071
71905SOL    HW217613  11.477  12.077  14.190
71906SOL     OW17614  11.669   4.693   9.745
71906SOL    HW117615  11.729   4.619   9.736
71906SOL    HW217616  11.696   4.754   9.677
71907SOL     OW17617   5.754   5.858  14.703
71907SOL    HW117618   5.743   5.802  14.780
71907SOL    HW217619   5.731   5.802  14.629
71908SOL     OW17620  14.138  10.839  13.998
71908SOL    HW117621  14.210  10.823  13.937
71908SOL    HW217622  14.098  10.919  13.966
71909SOL     OW17623  10.475   9.727   4.927
71909SOL    HW117624  10.505   9.764   4.843
71909SOL    HW217625  10.395   9.776   4.947
71910SOL     OW17626   3.405  14.444   2.384
71910SOL    HW117627   3.359  14.396   2.315
71910SOL    HW217628   3.356  14.424   2.464
71911SOL     OW17629  10.351   0.396   1.295
71911SOL    HW117630  10.276   0.343   1.322
71911SOL    HW217631  10.324   0.435   1.212
71912SOL     OW17632   6.660   5.274   6.411
71912SOL    HW117633   6.620   5.261   6.496
71912SOL    HW217634   6.589   5.258   6.348
71913SOL     OW17635  14.259  11.733  13.774
71913SOL    HW117636  14.191  11.800  13.777
71913SOL    HW217637  14.307  11.745  13.856
71914SOL     OW17638  12.080   0.529   5.816
71914SOL    HW117639  12.109   0.599   5.757
71914SOL    HW217640  12.159   0.503   5.863
71915SOL     OW17641  12.329   7.626  11.812
71915SOL    HW117642  12.273   7.696  11.846
71915SOL    HW217643  12.377   7.667  11.739
71916SOL     OW17644   1.923  11.191  13.702
71916SOL    HW117645   1.840  11.195  13.750
71916SOL    HW217646   1.906  11.133  13.629
71917SOL     OW17647  14.041   8.356   0.338
71917SOL    HW117648  14.064   8.389   0.424
71917SOL    HW217649  14.049   8.261   0.346
71918SOL     OW17650   3.658   4.148  14.526
71918SOL    HW117651   3.712   4.197  14.463
71918SOL    HW217652   3.637   4.066  14.481
71919SOL     OW17653  12.231  13.157   0.630
71919SOL    HW117654  12.253  13.079   0.580
71919SOL    HW217655  12.281  13.228   0.588
71920SOL     OW17656  12.002   9.787   9.240
71920SOL    HW117657  11.931   9.837   9.279
71920SOL    HW217658  12.067   9.853   9.215
71921SOL     OW17659  12.218   7.879  13.500
71921SOL    HW117660  12.307   7.844  13.501
71921SOL    HW217661  12.172   7.830  13.568
71922SOL     OW17662   8.734  11.890  13.297
71922SOL    HW117663   8.709  11.919  13.209
71922SOL    HW217664   8.803  11.950  13.324
71923SOL     OW17665   1.577   5.451   5.120
71923SOL    HW117666   1.573   5.377   5.060
71923SOL    HW217667   1.535   5.420   5.200
71924SOL     OW17668  12.995   8.931  13.561
71924SOL    HW117669  13.086   8.954  13.578
71924SOL    HW217670  12.999   8.846  13.518
71925SOL     OW17671  11.948   1.727   8.745
71925SOL    HW117672  11.918   1.699   8.832
71925SOL    HW217673  11.956   1.822   8.752
71926SOL     OW17674   7.244   4.390   4.311
71926SOL    HW117675   7.215   4.305   4.344
71926SOL    HW217676   7.325   4.371   4.264
71927SOL     OW17677   6.484   8.090   9.606
71927SOL    HW117678   6.513   8.120   9.692
71927SOL    HW217679   6.525   8.003   9.596
71928SOL     OW17680   4.799   2.862   9.431
71928SOL    HW117681   4.705   2.860   9.410
71928SOL    HW217682   4.803   2.833   9.522
71929SOL     OW17683   5.101  13.578   7.583
71929SOL    HW117684   5.188  13.538   7.584
71929SOL    HW217685   5.116  13.666   7.549
71930SOL     OW17686   7.495   3.466   0.545
71930SOL    HW117687   7.461   3.429   0.626
71930SOL    HW217688   7.589   3.478   0.561
71931SOL     OW17689  11.342   1.075  12.418
71931SOL    HW117690  11.410   1.013  12.393
71931SOL    HW217691  11.385   1.136  12.477
71932SOL     OW17692   8.634   9.703   3.645
71932SOL    HW117693   8.664   9.732   3.559
71932SOL    HW217694   8.577   9.773   3.676
71933SOL     OW17695   2.037  10.085  13.587
71933SOL    HW117696   2.109  10.044  13.540
71933SOL    HW217697   2.055  10.067  13.679
71934SOL     OW17698   4.837   4.364  12.950
71934SOL    HW117699   4.876   4.373  13.037
71934SOL    HW217700   4.912   4.368  12.890
71935SOL     OW17701   1.800   2.953   2.196
71935SOL    HW117702   1.726   2.892   2.193
71935SOL    HW217703   1.760   3.039   2.180
71936SOL     OW17704   4.332   2.051  11.634
71936SOL    HW117705   4.414   2.094  11.656
71936SOL    HW217706   4.265   2.118  11.646
71937SOL     OW17707  12.079   6.779   0.075
71937SOL    HW117708  12.164   6.780   0.029
71937SOL    HW217709  12.043   6.693   0.056
71938SOL     OW17710   4.205  14.100  12.234
71938SOL    HW117711   4.266  14.027  12.237
71938SOL    HW217712   4.169  14.106  12.323
71939SOL     OW17713  14.500   8.940   6.653
71939SOL    HW117714  14.551   9.012   6.689
71939SOL    HW217715  14.422   8.981   6.616
71940SOL     OW17716   5.014   5.783  13.787
71940SOL    HW117717   4.932   5.791  13.836
71940SOL    HW217718   5.007   5.849  13.717
71941SOL     OW17719  11.078   8.144   5.699
71941SOL    HW117720  11.128   8.073   5.658
71941SOL    HW217721  11.069   8.117   5.790
71942SOL     OW17722   7.118   1.781   1.049
71942SOL    HW117723   7.024   1.774   1.062
71942SOL    HW217724   7.156   1.771   1.137
71943SOL     OW17725   4.240   2.871   2.962
71943SOL    HW117726   4.250   2.915   2.877
71943SOL    HW217727   4.313   2.903   3.015
71944SOL     OW17728  10.327  11.742   8.185
71944SOL    HW117729  10.335  11.837   8.174
71944SOL    HW217730  10.417  11.710   8.183
71945SOL     OW17731   9.204  13.757   4.453
71945SOL    HW117732   9.217  13.829   4.392
71945SOL    HW217733   9.154  13.795   4.526
71946SOL     OW17734   3.301   5.405   0.325
71946SOL    HW117735   3.395   5.418   0.336
71946SOL    HW217736   3.272   5.479   0.272
71947SOL     OW17737   0.630   4.013  12.573
71947SOL    HW117738   0.704   3.960  12.545
71947SOL    HW217739   0.599   3.971  12.653
71948SOL     OW17740   1.437   5.341   6.960
71948SOL    HW117741   1.343   5.344   6.974
71948SOL    HW217742   1.474   5.393   7.031
71949SOL     OW17743   4.892   9.725   3.245
71949SOL    HW117744   4.922   9.689   3.162
71949SOL    HW217745   4.822   9.786   3.221
71950SOL     OW17746   6.151   9.363   5.848
71950SOL    HW117747   6.207   9.328   5.917
71950SOL    HW217748   6.141   9.291   5.785
71951SOL     OW17749  10.886   1.500  10.710
71951SOL    HW117750  10.958   1.563  10.718
71951SOL    HW217751  10.919   1.422  10.756
71952SOL     OW17752  12.863   8.728   1.284
71952SOL    HW117753  12.916   8.753   1.208
71952SOL    HW217754  12.916   8.664   1.331
71953SOL     OW17755  14.866   1.802   8.143
71953SOL    HW117756  14.771   1.790   8.135
71953SOL    HW217757   0.031   1.758   8.067
71954SOL     OW17758   8.689   6.647   4.548
71954SOL    HW117759   8.620   6.597   4.591
71954SOL    HW217760   8.647   6.728   4.520
71955SOL     OW17761  11.079   9.845   2.818
71955SOL    HW117762  11.102   9.758   2.850
71955SOL    HW217763  11.161   9.893   2.819
71956SOL     OW17764   4.612  10.397   7.859
71956SOL    HW117765   4.552  10.356   7.922
71956SOL    HW217766   4.564  10.473   7.827
71957SOL     OW17767  10.910   6.291  11.328
71957SOL    HW117768  10.819   6.312  11.348
71957SOL    HW217769  10.906   6.213  11.274
71958SOL     OW17770  14.138  13.898   1.713
71958SOL    HW117771  14.160  13.837   1.643
71958SOL    HW217772  14.170  13.983   1.683
71959SOL     OW17773  12.351  12.065   2.505
71959SOL    HW117774  12.373  11.984   2.550
71959SOL    HW217775  12.296  12.113   2.566
71960SOL     OW17776  14.703   9.758   9.762
71960SOL    HW117777  14.792   9.772   9.730
71960SOL    HW217778  14.703   9.667   9.793
71961SOL     OW17779  14.209   3.340   3.357
71961SOL    HW117780  14.185   3.405   3.423
71961SOL    HW217781  14.126   3.296   3.336
71962SOL     OW17782  13.415  13.897   2.346
71962SOL    HW117783  13.395  13.880   2.438
71962SOL    HW217784  13.408  13.812   2.303
71963SOL     OW17785   9.084  13.543   5.133
71963SOL    HW117786   9.108  13.606   5.065
71963SOL    HW217787   9.068  13.596   5.211
71964SOL     OW17788   0.936   6.113   0.359
71964SOL    HW117789   0.984   6.148   0.434
71964SOL    HW217790   1.004   6.073   0.304
71965SOL     OW17791  11.030   2.653   7.911
71965SOL    HW117792  11.018   2.572   7.961
71965SOL    HW217793  11.115   2.642   7.869
71966SOL     OW17794   4.041  10.043   2.590
71966SOL    HW117795   4.077   9.977   2.650
71966SOL    HW217796   4.107  10.112   2.588
71967SOL     OW17797   2.090   3.725   0.235
71967SOL    HW117798   2.166   3.696   0.286
71967SOL    HW217799   2.056   3.644   0.196
71968SOL     OW17800   2.150  12.983   0.744
71968SOL    HW117801   2.108  12.906   0.705
71968SOL    HW217802   2.222  12.948   0.796
71969SOL     OW17803   9.430   0.139   1.387
71969SOL    HW117804   9.431   0.143   1.291
71969SOL    HW217805   9.341   0.162   1.411
71970SOL     OW17806   5.368   4.036   5.825
71970SOL    HW117807   5.416   4.027   5.743
71970SOL    HW217808   5.374   3.950   5.866
71971SOL     OW17809  13.496   4.411   5.896
71971SOL    HW117810  13.549   4.365   5.961
71971SOL    HW217811  13.463   4.488   5.943
71972SOL     OW17812  12.805   9.329   7.281
71972SOL    HW117813  12.712   9.350   7.278
71972SOL    HW217814  12.813   9.265   7.351
71973SOL     OW17815   6.665   2.686   2.101
71973SOL    HW117816   6.714   2.681   2.183
71973SOL    HW217817   6.662   2.779   2.081
71974SOL     OW17818   7.280   7.573  14.835
71974SOL    HW117819   7.276   7.666  14.858
71974SOL    HW217820   7.289   7.572  14.740
71975SOL     OW17821   9.683   4.528   6.233
71975SOL    HW117822   9.702   4.613   6.272
71975SOL    HW217823   9.638   4.548   6.151
71976SOL     OW17824   5.906  12.835  10.265
71976SOL    HW117825   5.854  12.846  10.344
71976SOL    HW217826   5.991  12.872  10.286
71977SOL     OW17827  14.132   9.438  12.679
71977SOL    HW117828  14.152   9.530  12.696
71977SOL    HW217829  14.161   9.424  12.589
71978SOL     OW17830  11.558  12.752   2.158
71978SOL    HW117831  11.521  12.689   2.220
71978SOL    HW217832  11.632  12.791   2.205
71979SOL     OW17833  14.170  11.181   8.919
71979SOL    HW117834  14.222  11.206   8.843
71979SOL    HW217835  14.099  11.128   8.883
71980SOL     OW17836   4.488   9.507   4.491
71980SOL    HW117837   4.552   9.576   4.473
71980SOL    HW217838   4.418   9.552   4.538
71981SOL     OW17839  13.588   6.590   9.612
71981SOL    HW117840  13.544   6.510   9.581
71981SOL    HW217841  13.597   6.576   9.707
71982SOL     OW17842  13.288   9.183   5.941
71982SOL    HW117843  13.198   9.211   5.929
71982SOL    HW217844  13.283   9.110   6.003
71983SOL     OW17845  11.637   0.758  12.037
71983SOL    HW117846  11.709   0.790  12.091
71983SOL    HW217847  11.611   0.675  12.077
71984SOL     OW17848   2.987   8.661   4.595
71984SOL    HW117849   2.951   8.575   4.573
71984SOL    HW217850   2.959   8.718   4.524
71985SOL     OW17851   5.963  10.844  10.595
71985SOL    HW117852   5.869  10.856  10.580
71985SOL    HW217853   5.983  10.760  10.553
71986SOL     OW17854   4.373  12.363   6.248
71986SOL    HW117855   4.391  12.425   6.177
71986SOL    HW217856   4.457  12.319   6.263
71987SOL     OW17857   7.481   9.300   2.831
71987SOL    HW117858   7.562   9.276   2.876
71987SOL    HW217859   7.506   9.374   2.776
71988SOL     OW17860   9.388   4.763   0.567
71988SOL    HW117861   9.470   4.775   0.616
71988SOL    HW217862   9.405   4.805   0.482
71989SOL     OW17863  13.374   3.355   1.489
71989SOL    HW117864  13.468   3.345   1.505
71989SOL    HW217865  13.368   3.432   1.432
71990SOL     OW17866   7.567  12.905   9.357
71990SOL    HW117867   7.607  12.885   9.441
71990SOL    HW217868   7.641  12.933   9.302
71991SOL     OW17869   6.652  11.105   2.164
71991SOL    HW117870   6.685  11.143   2.245
71991SOL    HW217871   6.714  11.035   2.143
71992SOL     OW17872   1.379   6.716   0.316
71992SOL    HW117873   1.429   6.798   0.318
71992SOL    HW217874   1.303   6.734   0.371
71993SOL     OW17875   6.509   6.858   9.159
71993SOL    HW117876   6.418   6.881   9.180
71993SOL    HW217877   6.557   6.941   9.167
71994SOL     OW17878   6.443   6.630  12.874
71994SOL    HW117879   6.495   6.557  12.906
71994SOL    HW217880   6.408   6.671  12.953
71995SOL     OW17881   5.487   0.463   0.218
71995SOL    HW117882   5.498   0.504   0.304
71995SOL    HW217883   5.455   0.534   0.162
71996SOL     OW17884  14.399   8.555   5.520
71996SOL    HW117885  14.433   8.643   5.530
71996SOL    HW217886  14.336   8.561   5.448
71997SOL     OW17887   9.251   0.481  11.369
71997SOL    HW117888   9.169   0.494  11.415
71997SOL    HW217889   9.255   0.386  11.354
71998SOL     OW17890   6.363  11.656   2.875
71998SOL    HW117891   6.316  11.674   2.794
71998SOL    HW217892   6.294  11.635   2.938
71999SOL     OW17893  11.672  10.471   9.846
71999SOL    HW117894  11.598  10.511   9.800
71999SOL    HW217895  11.636  10.438   9.928
72000SOL     OW17896  11.870  11.081   9.157
72000SOL    HW117897  11.889  11.023   9.083
72000SOL    HW217898  11.824  11.156   9.118
72001SOL     OW17899   5.117   5.076   9.640
72001SOL    HW117900   5.106   5.168   9.616
72001SOL    HW217901   5.196   5.048   9.594
72002SOL     OW17902  13.357  11.953   1.760
72002SOL    HW117903  13.427  11.981   1.701
72002SOL    HW217904  13.372  12.005   1.840
72003SOL     OW17905   7.999  11.912   0.594
72003SOL    HW117906   8.083  11.941   0.628
72003SOL    HW217907   7.988  11.959   0.511
72004SOL     OW17908  13.969  14.596   9.782
72004SOL    HW117909  13.894  14.589   9.841
72004SOL    HW217910  14.036  14.542   9.821
72005SOL     OW17911   0.234  13.823   2.044
72005SOL    HW117912   0.283  13.765   1.986
72005SOL    HW217913   0.144  13.793   2.038
72006SOL     OW17914   7.560   1.804   4.297
72006SOL    HW117915   7.635   1.809   4.356
72006SOL    HW217916   7.585   1.738   4.232
72007SOL     OW17917  10.811   8.446   8.634
72007SOL    HW117918  10.874   8.411   8.571
72007SOL    HW217919  10.802   8.539   8.610
72008SOL     OW17920   5.127  12.492   7.648
72008SOL    HW117921   5.182  12.568   7.630
72008SOL    HW217922   5.103  12.459   7.561
72009SOL     OW17923   6.563  13.727   0.275
72009SOL    HW117924   6.550  13.749   0.183
72009SOL    HW217925   6.584  13.811   0.316
72010SOL     OW17926   8.467  11.021   1.668
72010SOL    HW117927   8.519  11.097   1.696
72010SOL    HW217928   8.403  11.009   1.738
72011SOL     OW17929   6.268   4.020  11.136
72011SOL    HW117930   6.229   4.102  11.107
72011SOL    HW217931   6.346   4.010  11.082
72012SOL     OW17932   8.098  11.123  11.637
72012SOL    HW117933   8.180  11.111  11.589
72012SOL    HW217934   8.067  11.033  11.653
72013SOL     OW17935  10.991  11.850   5.051
72013SOL    HW117936  10.972  11.758   5.070
72013SOL    HW217937  11.024  11.850   4.961
72014SOL     OW17938   9.794   8.412   3.676
72014SOL    HW117939   9.729   8.359   3.631
72014SOL    HW217940   9.775   8.502   3.648
72015SOL     OW17941   5.765  13.796   6.165
72015SOL    HW117942   5.789  13.738   6.238
72015SOL    HW217943   5.833  13.782   6.100
72016SOL     OW17944   9.699  11.300   2.785
72016SOL    HW117945   9.768  11.338   2.840
72016SOL    HW217946   9.717  11.206   2.785
72017SOL     OW17947  10.061   4.231   5.932
72017SOL    HW117948  10.002   4.303   5.909
72017SOL    HW217949  10.056   4.226   6.027
72018SOL     OW17950   6.091   7.909   5.118
72018SOL    HW117951   6.060   7.822   5.095
72018SOL    HW217952   6.130   7.944   5.038
72019SOL     OW17953  12.029   6.737   8.240
72019SOL    HW117954  11.995   6.648   8.233
72019SOL    HW217955  12.056   6.744   8.332
72020SOL     OW17956   4.065   3.179   5.427
72020SOL    HW117957   4.073   3.272   5.404
72020SOL    HW217958   4.006   3.144   5.360
72021SOL     OW17959  11.093   6.529  10.486
72021SOL    HW117960  11.020   6.585  10.458
72021SOL    HW217961  11.055   6.475  10.556
72022SOL     OW17962  11.804   1.745   6.938
72022SOL    HW117963  11.878   1.763   6.881
72022SOL    HW217964  11.818   1.655   6.968
72023SOL     OW17965   9.242   0.828   8.351
72023SOL    HW117966   9.192   0.766   8.405
72023SOL    HW217967   9.326   0.784   8.336
72024SOL     OW17968   7.582  13.046   6.294
72024SOL    HW117969   7.490  13.022   6.293
72024SOL    HW217970   7.602  13.063   6.386
72025SOL     OW17971   7.344   5.922   3.443
72025SOL    HW117972   7.423   5.973   3.458
72025SOL    HW217973   7.283   5.952   3.510
72026SOL     OW17974  14.351   8.087   3.303
72026SOL    HW117975  14.427   8.137   3.274
72026SOL    HW217976  14.345   8.103   3.397
72027SOL     OW17977  11.742  11.819   1.644
72027SOL    HW117978  11.666  11.871   1.669
72027SOL    HW217979  11.733  11.737   1.693
72028SOL     OW17980   6.983   9.469   7.935
72028SOL    HW117981   6.984   9.489   7.841
72028SOL    HW217982   7.062   9.512   7.969
72029SOL     OW17983   1.363   3.797   4.497
72029SOL    HW117984   1.446   3.793   4.546
72029SOL    HW217985   1.296   3.811   4.564
72030SOL     OW17986   8.874   4.703   9.547
72030SOL    HW117987   8.829   4.788   9.549
72030SOL    HW217988   8.911   4.698   9.459
72031SOL     OW17989  11.962  12.834  10.154
72031SOL    HW117990  12.004  12.919  10.160
72031SOL    HW217991  11.946  12.809  10.245
72032SOL     OW17992   6.258  14.163   6.874
72032SOL    HW117993   6.319  14.227   6.911
72032SOL    HW217994   6.223  14.117   6.949
72033SOL     OW17995  13.472   7.131   1.735
72033SOL    HW117996  13.393   7.148   1.787
72033SOL    HW217997  13.535   7.097   1.798
72034SOL     OW17998   4.248   0.058   2.640
72034SOL    HW117999   4.324   0.010   2.675
72034SOL    HW218000   4.222   0.116   2.712
72035SOL     OW18001   1.289   9.150   7.089
72035SOL    HW118002   1.233   9.081   7.125
72035SOL    HW218003   1.248   9.172   7.005
72036SOL     OW18004  14.447  13.999   7.167
72036SOL    HW118005  14.370  13.968   7.215
72036SOL    HW218006  14.412  14.033   7.085
72037SOL     OW18007  13.395   2.867   3.456
72037SOL    HW118008  13.407   2.772   3.458
72037SOL    HW218009  13.303   2.879   3.432
72038SOL     OW18010   5.400  11.288   8.540
72038SOL    HW118011   5.418  11.330   8.624
72038SOL    HW218012   5.380  11.361   8.481
72039SOL     OW18013   1.657  14.872   2.215
72039SOL    HW118014   1.576   0.023   2.169
72039SOL    HW218015   1.628  14.814   2.286
72040SOL     OW18016  13.109   4.228  14.039
72040SOL    HW118017  13.121   4.251  14.131
72040SOL    HW218018  13.046   4.156  14.041
72041SOL     OW18019  14.064  12.995  12.221
72041SOL    HW118020  14.077  12.900  12.216
72041SOL    HW218021  14.137  13.031  12.171
72042SOL     OW18022   0.456   5.156   5.035
72042SOL    HW118023   0.370   5.182   5.004
72042SOL    HW218024   0.474   5.074   4.989
72043SOL     OW18025   4.110  13.672   1.888
72043SOL    HW118026   4.149  13.642   1.806
72043SOL    HW218027   4.171  13.643   1.956
72044SOL     OW18028  11.673   2.154  13.398
72044SOL    HW118029  11.591   2.199  13.414
72044SOL    HW218030  11.684   2.095  13.472
72045SOL     OW18031   3.912  11.582  10.645
72045SOL    HW118032   3.876  11.634  10.716
72045SOL    HW218033   3.860  11.605  10.568
72046SOL     OW18034   9.976   7.177  10.902
72046SOL    HW118035   9.919   7.105  10.928
72046SOL    HW218036  10.030   7.141  10.832
72047SOL     OW18037  13.454  10.116  12.938
72047SOL    HW118038  13.545  10.087  12.946
72047SOL    HW218039  13.459  10.196  12.886
72048SOL     OW18040   7.088   2.666   9.888
72048SOL    HW118041   7.125   2.685   9.802
72048SOL    HW218042   7.158   2.622   9.935
72049SOL     OW18043   0.603   6.146  12.433
72049SOL    HW118044   0.544   6.199  12.381
72049SOL    HW218045   0.569   6.153  12.523
72050SOL     OW18046  14.076  10.221  14.814
72050SOL    HW118047  14.005  10.157  14.819
72050SOL    HW218048  14.053  10.278  14.740
72051SOL     OW18049  10.157  12.216   3.088
72051SOL    HW118050  10.145  12.280   3.158
72051SOL    HW218051  10.121  12.259   3.010
72052SOL     OW18052   4.990   7.130  13.715
72052SOL    HW118053   5.060   7.142  13.652
72052SOL    HW218054   4.999   7.203  13.776
72053SOL     OW18055  13.886  13.998   2.520
72053SOL    HW118056  13.864  14.066   2.583
72053SOL    HW218057  13.802  13.960   2.494
72054SOL     OW18058   5.137   0.170   5.020
72054SOL    HW118059   5.070   0.123   5.070
72054SOL    HW218060   5.134   0.259   5.055
72055SOL     OW18061   7.472  11.117   4.101
72055SOL    HW118062   7.446  11.030   4.132
72055SOL    HW218063   7.527  11.152   4.172
72056SOL     OW18064   0.826   5.851   2.664
72056SOL    HW118065   0.753   5.911   2.681
72056SOL    HW218066   0.903   5.907   2.659
72057SOL     OW18067   5.424   1.765   7.596
72057SOL    HW118068   5.465   1.700   7.539
72057SOL    HW218069   5.497   1.817   7.629
72058SOL     OW18070  13.403   5.816   6.252
72058SOL    HW118071  13.444   5.898   6.278
72058SOL    HW218072  13.310   5.828   6.273
72059SOL     OW18073   2.674  11.715   6.742
72059SOL    HW118074   2.645  11.792   6.694
72059SOL    HW218075   2.669  11.643   6.679
72060SOL     OW18076  14.170   0.972   1.090
72060SOL    HW118077  14.146   1.017   1.171
72060SOL    HW218078  14.098   0.991   1.030
72061SOL     OW18079   6.570   4.060   5.815
72061SOL    HW118080   6.549   4.153   5.825
72061SOL    HW218081   6.579   4.028   5.905
72062SOL     OW18082  14.628  11.192   6.418
72062SOL    HW118083  14.561  11.260   6.406
72062SOL    HW218084  14.710  11.240   6.426
72063SOL     OW18085   9.565   3.275  13.995
72063SOL    HW118086   9.529   3.187  13.985
72063SOL    HW218087   9.559   3.293  14.089
72064SOL     OW18088  10.826   5.153  14.827
72064SOL    HW118089  10.835   5.079  14.767
72064SOL    HW218090  10.902   5.147   0.012
72065SOL     OW18091  14.203   4.641   1.714
72065SOL    HW118092  14.196   4.728   1.674
72065SOL    HW218093  14.183   4.657   1.807
72066SOL     OW18094   3.063   0.442   9.248
72066SOL    HW118095   3.082   0.382   9.321
72066SOL    HW218096   2.969   0.431   9.233
72067SOL     OW18097   9.732   6.065   6.967
72067SOL    HW118098   9.680   5.998   7.012
72067SOL    HW218099   9.667   6.121   6.926
72068SOL     OW18100   2.629   5.366  11.740
72068SOL    HW118101   2.598   5.443  11.787
72068SOL    HW218102   2.564   5.353  11.671
72069SOL     OW18103   9.291  13.540   8.704
72069SOL    HW118104   9.207  13.530   8.658
72069SOL    HW218105   9.270  13.595   8.779
72070SOL     OW18106  13.239   3.588   7.080
72070SOL    HW118107  13.315   3.580   7.023
72070SOL    HW218108  13.276   3.601   7.167
72071SOL     OW18109   5.123   3.560  14.686
72071SOL    HW118110   5.056   3.492  14.676
72071SOL    HW218111   5.201   3.511  14.713
72072SOL     OW18112  12.017   3.408   2.536
72072SOL    HW118113  12.092   3.363   2.577
72072SOL    HW218114  11.972   3.339   2.487
72073SOL     OW18115   6.725  11.968   1.416
72073SOL    HW118116   6.769  12.053   1.413
72073SOL    HW218117   6.751  11.924   1.335
72074SOL     OW18118   5.299   2.937  13.025
72074SOL    HW118119   5.307   3.026  13.062
72074SOL    HW218120   5.385   2.919  12.987
72075SOL     OW18121   5.819   0.478   1.311
72075SOL    HW118122   5.891   0.433   1.355
72075SOL    HW218123   5.740   0.435   1.346
72076SOL     OW18124   1.171   2.307   4.171
72076SOL    HW118125   1.140   2.258   4.094
72076SOL    HW218126   1.102   2.372   4.187
72077SOL     OW18127   5.887   9.436   8.405
72077SOL    HW118128   5.827   9.411   8.335
72077SOL    HW218129   5.830   9.459   8.479
72078SOL     OW18130  14.756   4.467  13.043
72078SOL    HW118131  14.690   4.503  13.103
72078SOL    HW218132  14.715   4.387  13.009
72079SOL     OW18133   1.608   7.289  10.557
72079SOL    HW118134   1.609   7.327  10.645
72079SOL    HW218135   1.654   7.353  10.503
72080SOL     OW18136  11.682   3.158   7.347
72080SOL    HW118137  11.630   3.184   7.270
72080SOL    HW218138  11.638   3.080   7.381
72081SOL     OW18139  12.142  11.953  10.813
72081SOL    HW118140  12.097  11.938  10.897
72081SOL    HW218141  12.209  11.885  10.810
72082SOL     OW18142   4.184  13.974  10.819
72082SOL    HW118143   4.219  14.037  10.756
72082SOL    HW218144   4.169  14.025  10.899
72083SOL     OW18145   2.917  13.585   5.992
72083SOL    HW118146   2.955  13.662   5.951
72083SOL    HW218147   2.971  13.570   6.069
72084SOL     OW18148  10.910   1.916  10.302
72084SOL    HW118149  10.913   2.002  10.262
72084SOL    HW218150  10.982   1.916  10.365
72085SOL     OW18151  13.425  13.035   5.894
72085SOL    HW118152  13.466  12.999   5.816
72085SOL    HW218153  13.368  12.965   5.926
72086SOL     OW18154  13.129   9.697  14.604
72086SOL    HW118155  13.174   9.613  14.607
72086SOL    HW218156  13.136   9.732  14.693
72087SOL     OW18157  13.275  10.149   2.838
72087SOL    HW118158  13.187  10.187   2.841
72087SOL    HW218159  13.313  10.182   2.757
72088SOL     OW18160   7.516  14.037   2.492
72088SOL    HW118161   7.609  14.039   2.516
72088SOL    HW218162   7.470  14.061   2.572
72089SOL     OW18163   2.412   2.694   7.336
72089SOL    HW118164   2.497   2.736   7.347
72089SOL    HW218165   2.413   2.660   7.246
72090SOL     OW18166   6.862  13.853   2.597
72090SOL    HW118167   6.926  13.784   2.586
72090SOL    HW218168   6.914  13.934   2.599
72091SOL     OW18169  13.709   7.793   9.472
72091SOL    HW118170  13.692   7.713   9.521
72091SOL    HW218171  13.623   7.829   9.454
72092SOL     OW18172  14.828  10.876   2.840
72092SOL    HW118173   0.015  10.806   2.813
72092SOL    HW218174  14.760  10.831   2.891
72093SOL     OW18175   8.144   3.523   3.575
72093SOL    HW118176   8.144   3.430   3.554
72093SOL    HW218177   8.054   3.542   3.598
72094SOL     OW18178  11.928   8.427  14.779
72094SOL    HW118179  12.005   8.386  14.819
72094SOL    HW218180  11.964   8.499  14.726
72095SOL     OW18181   8.840   9.202   1.022
72095SOL    HW118182   8.785   9.277   1.001
72095SOL    HW218183   8.925   9.224   0.983
72096SOL     OW18184   8.448   3.370  12.141
72096SOL    HW118185   8.468   3.462  12.161
72096SOL    HW218186   8.509   3.320  12.194
72097SOL     OW18187  14.284  14.588  13.708
72097SOL    HW118188  14.364  14.572  13.658
72097SOL    HW218189  14.308  14.568  13.798
72098SOL     OW18190   9.915   7.143   8.393
72098SOL    HW118191   9.964   7.221   8.420
72098SOL    HW218192   9.960   7.114   8.313
72099SOL     OW18193   8.148  12.548   1.411
72099SOL    HW118194   8.206  12.565   1.485
72099SOL    HW218195   8.064  12.524   1.450
72100SOL     OW18196  14.406  11.502   9.151
72100SOL    HW118197  14.362  11.492   9.235
72100SOL    HW218198  14.351  11.563   9.102
72101SOL     OW18199  12.029   6.522   7.335
72101SOL    HW118200  12.119   6.494   7.352
72101SOL    HW218201  11.977   6.473   7.398
72102SOL     OW18202   5.287   1.002  14.734
72102SOL    HW118203   5.342   0.927  14.710
72102SOL    HW218204   5.291   1.061  14.659
72103SOL     OW18205  11.683   6.055   3.547
72103SOL    HW118206  11.640   6.019   3.469
72103SOL    HW218207  11.644   6.142   3.557
72104SOL     OW18208   3.908   7.658  12.662
72104SOL    HW118209   3.874   7.746  12.647
72104SOL    HW218210   3.911   7.618  12.575
72105SOL     OW18211   9.127   0.107  12.645
72105SOL    HW118212   9.188   0.153  12.587
72105SOL    HW218213   9.068   0.061  12.585
72106SOL     OW18214  10.586   5.564   1.201
72106SOL    HW118215  10.605   5.648   1.244
72106SOL    HW218216  10.618   5.498   1.262
72107SOL     OW18217  10.359   6.312   4.080
72107SOL    HW118218  10.422   6.347   4.016
72107SOL    HW218219  10.277   6.303   4.030
72108SOL     OW18220   8.820  14.082  13.593
72108SOL    HW118221   8.825  14.178  13.599
72108SOL    HW218222   8.726  14.063  13.594
72109SOL     OW18223   2.100   1.571  14.790
72109SOL    HW118224   2.129   1.495  14.840
72109SOL    HW218225   2.144   1.563  14.706
72110SOL     OW18226   5.489  11.031  11.569
72110SOL    HW118227   5.479  11.080  11.650
72110SOL    HW218228   5.490  11.098  11.501
72111SOL     OW18229   4.945   9.537   0.980
72111SOL    HW118230   4.902   9.519   0.896
72111SOL    HW218231   5.028   9.491   0.975
72112SOL     OW18232   0.452   5.968  13.639
72112SOL    HW118233   0.467   6.061  13.621
72112SOL    HW218234   0.413   5.934  13.559
72113SOL     OW18235   0.267   4.593   1.252
72113SOL    HW118236   0.233   4.677   1.282
72113SOL    HW218237   0.309   4.555   1.329
72114SOL     OW18238   7.836   2.910   3.402
72114SOL    HW118239   7.815   2.872   3.317
72114SOL    HW218240   7.809   3.002   3.395
72115SOL     OW18241   0.514   0.716   3.272
72115SOL    HW118242   0.493   0.664   3.194
72115SOL    HW218243   0.583   0.776   3.243
72116SOL     OW18244   8.786   4.389   0.330
72116SOL    HW118245   8.721   4.438   0.379
72116SOL    HW218246   8.838   4.456   0.286
72117SOL     OW18247   4.161  14.617   7.329
72117SOL    HW118248   4.147  14.659   7.413
72117SOL    HW218249   4.209  14.537   7.349
72118SOL     OW18250   5.981   5.772  11.844
72118SOL    HW118251   6.023   5.754  11.928
72118SOL    HW218252   5.930   5.852  11.859
72119SOL     OW18253   9.522   2.757   9.573
72119SOL    HW118254   9.449   2.773   9.632
72119SOL    HW218255   9.525   2.834   9.516
72120SOL     OW18256   1.677  11.092   7.891
72120SOL    HW118257   1.730  11.148   7.834
72120SOL    HW218258   1.619  11.152   7.937
72121SOL     OW18259   9.192   3.380   0.149
72121SOL    HW118260   9.191   3.467   0.190
72121SOL    HW218261   9.099   3.362   0.131
72122SOL     OW18262   4.904  11.935  11.562
72122SOL    HW118263   4.951  11.856  11.538
72122SOL    HW218264   4.837  11.944  11.494
72123SOL     OW18265   4.817   4.625   2.022
72123SOL    HW118266   4.809   4.719   2.004
72123SOL    HW218267   4.883   4.594   1.960
72124SOL     OW18268   7.049   3.763   5.146
72124SOL    HW118269   7.076   3.679   5.107
72124SOL    HW218270   6.984   3.797   5.085
72125SOL     OW18271   6.117  14.436   0.358
72125SOL    HW118272   6.209  14.420   0.380
72125SOL    HW218273   6.071  14.428   0.442
72126SOL     OW18274  10.642  10.341  12.226
72126SOL    HW118275  10.706  10.411  12.239
72126SOL    HW218276  10.557  10.385  12.229
72127SOL     OW18277  12.607  12.362  11.405
72127SOL    HW118278  12.661  12.436  11.431
72127SOL    HW218279  12.607  12.364  11.309
72128SOL     OW18280  11.090   4.606   7.466
72128SOL    HW118281  11.109   4.605   7.372
72128SOL    HW218282  11.064   4.516   7.486
72129SOL     OW18283  12.997   0.692   9.748
72129SOL    HW118284  13.043   0.766   9.707
72129SOL    HW218285  13.049   0.671   9.825
72130SOL     OW18286   4.094   1.407   2.462
72130SOL    HW118287   4.163   1.474   2.457
72130SOL    HW218288   4.072   1.402   2.555
72131SOL     OW18289  11.675  12.542  11.607
72131SOL    HW118290  11.642  12.467  11.656
72131SOL    HW218291  11.678  12.613  11.671
72132SOL     OW18292  11.637  14.073   1.781
72132SOL    HW118293  11.654  13.985   1.745
72132SOL    HW218294  11.699  14.080   1.854
72133SOL     OW18295  14.182   3.695   2.085
72133SOL    HW118296  14.240   3.620   2.097
72133SOL    HW218297  14.148   3.712   2.173
72134SOL     OW18298  12.024   0.545   9.199
72134SOL    HW118299  11.962   0.505   9.260
72134SOL    HW218300  12.020   0.489   9.121
72135SOL     OW18301   5.872   4.913   0.377
72135SOL    HW118302   5.943   4.949   0.325
72135SOL    HW218303   5.836   4.842   0.324
72136SOL     OW18304   4.170   9.116   1.381
72136SOL    HW118305   4.080   9.085   1.395
72136SOL    HW218306   4.209   9.113   1.468
72137SOL     OW18307  13.558   5.103  10.619
72137SOL    HW118308  13.508   5.128  10.541
72137SOL    HW218309  13.513   5.148  10.691
72138SOL     OW18310   4.758   2.726   9.693
72138SOL    HW118311   4.718   2.726   9.780
72138SOL    HW218312   4.831   2.665   9.700
72139SOL     OW18313   3.404  13.861   0.931
72139SOL    HW118314   3.396  13.933   0.993
72139SOL    HW218315   3.454  13.897   0.857
72140SOL     OW18316  14.437  12.737   5.000
72140SOL    HW118317  14.344  12.722   4.987
72140SOL    HW218318  14.449  12.740   5.094
72141SOL     OW18319   4.314   2.682   1.644
72141SOL    HW118320   4.226   2.676   1.680
72141SOL    HW218321   4.353   2.596   1.660
72142SOL     OW18322   9.414   9.146   1.377
72142SOL    HW118323   9.500   9.182   1.357
72142SOL    HW218324   9.429   9.086   1.450
72143SOL     OW18325  13.121   0.015   7.274
72143SOL    HW118326  13.193   0.070   7.304
72143SOL    HW218327  13.159  14.800   7.264
72144SOL     OW18328   3.090  14.869   5.557
72144SOL    HW118329   3.133   0.082   5.546
72144SOL    HW218330   3.018  14.870   5.494
72145SOL     OW18331   5.844  14.126   2.299
72145SOL    HW118332   5.931  14.165   2.289
72145SOL    HW218333   5.797  14.154   2.220
72146SOL     OW18334  14.869  11.448   3.503
72146SOL    HW118335  14.789  11.455   3.556
72146SOL    HW218336   0.016  11.354   3.501
72147SOL     OW18337  11.292   9.350   6.735
72147SOL    HW118338  11.238   9.319   6.807
72147SOL    HW218339  11.363   9.399   6.777
72148SOL     OW18340   4.697   7.415   1.925
72148SOL    HW118341   4.677   7.468   1.848
72148SOL    HW218342   4.615   7.412   1.974
72149SOL     OW18343  14.354   5.721  13.617
72149SOL    HW118344  14.390   5.707  13.529
72149SOL    HW218345  14.343   5.633  13.653
72150SOL     OW18346   5.454  13.905  11.074
72150SOL    HW118347   5.474  13.923  11.166
72150SOL    HW218348   5.444  13.810  11.070
72151SOL     OW18349   7.124  10.032  12.812
72151SOL    HW118350   7.035  10.050  12.842
72151SOL    HW218351   7.165  10.118  12.804
72152SOL     OW18352   2.831   1.725  14.407
72152SOL    HW118353   2.800   1.767  14.487
72152SOL    HW218354   2.849   1.798  14.348
72153SOL     OW18355  14.096   5.906  14.273
72153SOL    HW118356  14.124   5.966  14.342
72153SOL    HW218357  14.177   5.887  14.224
72154SOL     OW18358   2.696   6.062   0.544
72154SOL    HW118359   2.784   6.098   0.533
72154SOL    HW218360   2.699   5.977   0.500
72155SOL     OW18361   8.442   9.708   7.026
72155SOL    HW118362   8.357   9.692   7.068
72155SOL    HW218363   8.492   9.755   7.092
72156SOL     OW18364   8.384  11.309   7.587
72156SOL    HW118365   8.305  11.312   7.641
72156SOL    HW218366   8.351  11.297   7.498
72157SOL     OW18367   5.090  14.326  13.427
72157SOL    HW118368   5.135  14.369  13.354
72157SOL    HW218369   5.094  14.233  13.406
72158SOL     OW18370  14.444   8.400   8.104
72158SOL    HW118371  14.531   8.363   8.085
72158SOL    HW218372  14.459   8.495   8.106
72159SOL     OW18373   0.061   8.619   6.383
72159SOL    HW118374   0.040   8.702   6.425
72159SOL    HW218375   0.047   8.553   6.452
72160SOL     OW18376  13.206   3.542   2.401
72160SOL    HW118377  13.116   3.519   2.378
72160SOL    HW218378  13.198   3.594   2.481
72161SOL     OW18379   0.889   6.503   2.222
72161SOL    HW118380   0.897   6.435   2.155
72161SOL    HW218381   0.912   6.459   2.304
72162SOL     OW18382   4.321   0.539  12.055
72162SOL    HW118383   4.402   0.566  12.097
72162SOL    HW218384   4.341   0.538  11.962
72163SOL     OW18385   7.120   9.687   3.191
72163SOL    HW118386   7.173   9.641   3.256
72163SOL    HW218387   7.102   9.622   3.123
72164SOL     OW18388   2.499  14.196   6.484
72164SOL    HW118389   2.560  14.134   6.444
72164SOL    HW218390   2.521  14.194   6.577
72165SOL     OW18391   2.959   8.058   6.083
72165SOL    HW118392   2.870   8.037   6.113
72165SOL    HW218393   2.949   8.139   6.035
72166SOL     OW18394   2.386  14.050  11.932
72166SOL    HW118395   2.386  14.088  12.020
72166SOL    HW218396   2.464  13.994  11.930
72167SOL     OW18397  14.505   4.484  13.918
72167SOL    HW118398  14.454   4.429  13.979
72167SOL    HW218399  14.592   4.444  13.917
72168SOL     OW18400  12.078   9.041   8.678
72168SOL    HW118401  12.028   8.968   8.715
72168SOL    HW218402  12.072   9.110   8.744
72169SOL     OW18403  11.006   5.274   0.595
72169SOL    HW118404  11.045   5.192   0.566
72169SOL    HW218405  11.066   5.341   0.565
72170SOL     OW18406   2.391   0.344   1.795
72170SOL    HW118407   2.339   0.418   1.825
72170SOL    HW218408   2.372   0.338   1.701
72171SOL     OW18409   1.436   1.554   5.682
72171SOL    HW118410   1.479   1.576   5.765
72171SOL    HW218411   1.349   1.522   5.708
72172SOL     OW18412  13.214   0.963   3.495
72172SOL    HW118413  13.304   0.991   3.477
72172SOL    HW218414  13.192   1.005   3.578
72173SOL     OW18415   7.395   2.607   3.001
72173SOL    HW118416   7.303   2.589   3.021
72173SOL    HW218417   7.410   2.695   3.034
72174SOL     OW18418   7.424   8.794   8.602
72174SOL    HW118419   7.399   8.868   8.657
72174SOL    HW218420   7.461   8.834   8.523
72175SOL     OW18421   3.407   1.434   4.620
72175SOL    HW118422   3.383   1.507   4.676
72175SOL    HW218423   3.496   1.411   4.646
72176SOL     OW18424  11.902  11.876   9.482
72176SOL    HW118425  11.824  11.928   9.460
72176SOL    HW218426  11.973  11.918   9.435
72177SOL     OW18427  14.790   7.323   2.544
72177SOL    HW118428  14.722   7.290   2.485
72177SOL    HW218429  14.872   7.311   2.496
72178SOL     OW18430   0.763   2.271   3.935
72178SOL    HW118431   0.725   2.198   3.985
72178SOL    HW218432   0.845   2.291   3.980
72179SOL     OW18433   8.063   2.941  13.419
72179SOL    HW118434   7.979   2.903  13.394
72179SOL    HW218435   8.042   3.032  13.440
72180SOL     OW18436  12.705   7.237   9.995
72180SOL    HW118437  12.643   7.182   9.948
72180SOL    HW218438  12.790   7.215   9.957
72181SOL     OW18439   2.710   5.538  10.513
72181SOL    HW118440   2.676   5.514  10.428
72181SOL    HW218441   2.794   5.492  10.519
72182SOL     OW18442  12.116  12.464   1.721
72182SOL    HW118443  12.146  12.409   1.793
72182SOL    HW218444  12.023  12.445   1.713
72183SOL     OW18445  11.565  10.796   5.766
72183SOL    HW118446  11.599  10.839   5.688
72183SOL    HW218447  11.492  10.743   5.735
72184SOL     OW18448   9.004  14.500   8.485
72184SOL    HW118449   9.021  14.572   8.545
72184SOL    HW218450   9.053  14.522   8.406
72185SOL     OW18451  10.293  13.714   8.253
72185SOL    HW118452  10.232  13.698   8.325
72185SOL    HW218453  10.376  13.733   8.296
72186SOL     OW18454  13.567   5.998   1.523
72186SOL    HW118455  13.507   6.072   1.524
72186SOL    HW218456  13.546   5.949   1.602
72187SOL     OW18457   0.109  14.866  10.061
72187SOL    HW118458   0.142  14.837   9.976
72187SOL    HW218459   0.034   0.050  10.041
72188SOL     OW18460   8.619   9.088   4.840
72188SOL    HW118461   8.527   9.095   4.866
72188SOL    HW218462   8.620   9.023   4.770
72189SOL     OW18463  14.358   9.334   4.814
72189SOL    HW118464  14.284   9.291   4.773
72189SOL    HW218465  14.435   9.286   4.783
72190SOL     OW18466  13.141   7.563   1.517
72190SOL    HW118467  13.142   7.473   1.484
72190SOL    HW218468  13.068   7.564   1.579
72191SOL     OW18469   1.859  14.293   6.372
72191SOL    HW118470   1.850  14.365   6.309
72191SOL    HW218471   1.954  14.285   6.384
72192SOL     OW18472   7.504  14.426   3.916
72192SOL    HW118473   7.529  14.396   4.003
72192SOL    HW218474   7.408  14.426   3.917
72193SOL     OW18475   8.970   0.955  14.381
72193SOL    HW118476   8.959   1.045  14.413
72193SOL    HW218477   8.960   0.901  14.459
72194SOL     OW18478  13.087  13.432   8.466
72194SOL    HW118479  13.101  13.422   8.372
72194SOL    HW218480  12.993  13.445   8.475
72195SOL     OW18481  13.954  10.748   5.576
72195SOL    HW118482  13.912  10.833   5.591
72195SOL    HW218483  14.048  10.767   5.575
72196SOL     OW18484   4.574  10.860   1.335
72196SOL    HW118485   4.520  10.797   1.383
72196SOL    HW218486   4.590  10.931   1.398
72197SOL     OW18487   4.548   0.893   9.356
72197SOL    HW118488   4.566   0.811   9.402
72197SOL    HW218489   4.454   0.891   9.340
72198SOL     OW18490   1.425  14.157  11.984
72198SOL    HW118491   1.445  14.231  11.927
72198SOL    HW218492   1.435  14.192  12.073
72199SOL     OW18493   1.273   9.118  12.093
72199SOL    HW118494   1.354   9.076  12.121
72199SOL    HW218495   1.300   9.203  12.057
72200SOL     OW18496  10.165   7.668   6.570
72200SOL    HW118497  10.135   7.738   6.628
72200SOL    HW218498  10.181   7.712   6.486
72201SOL     OW18499  10.625   5.533   2.803
72201SOL    HW118500  10.690   5.467   2.826
72201SOL    HW218501  10.666   5.617   2.825
72202SOL     OW18502   0.266   9.215   9.291
72202SOL    HW118503   0.213   9.277   9.242
72202SOL    HW218504   0.321   9.269   9.348
72203SOL     OW18505   0.365  11.865  12.675
72203SOL    HW118506   0.277  11.833  12.655
72203SOL    HW218507   0.371  11.859  12.771
72204SOL     OW18508  13.766   6.487  10.888
72204SOL    HW118509  13.816   6.418  10.932
72204SOL    HW218510  13.794   6.482  10.797
72205SOL     OW18511   3.501  12.329   7.753
72205SOL    HW118512   3.499  12.355   7.846
72205SOL    HW218513   3.471  12.238   7.753
72206SOL     OW18514  13.917   6.601  14.403
72206SOL    HW118515  13.822   6.589  14.400
72206SOL    HW218516  13.948   6.572  14.318
72207SOL     OW18517  10.075   5.955   2.914
72207SOL    HW118518  10.123   5.891   2.861
72207SOL    HW218519  10.111   5.946   3.002
72208SOL     OW18520  12.565   1.513  13.899
72208SOL    HW118521  12.595   1.423  13.887
72208SOL    HW218522  12.489   1.520  13.840
72209SOL     OW18523  11.294  12.630  13.648
72209SOL    HW118524  11.309  12.610  13.555
72209SOL    HW218525  11.316  12.722  13.657
72210SOL     OW18526   9.637  14.699  12.562
72210SOL    HW118527   9.712  14.644  12.580
72210SOL    HW218528   9.673  14.787  12.553
72211SOL     OW18529  12.272   2.743   2.909
72211SOL    HW118530  12.264   2.787   2.824
72211SOL    HW218531  12.310   2.658   2.889
72212SOL     OW18532   2.871   5.102   2.107
72212SOL    HW118533   2.868   5.029   2.169
72212SOL    HW218534   2.913   5.067   2.029
72213SOL     OW18535   5.300  10.650   0.296
72213SOL    HW118536   5.271  10.676   0.384
72213SOL    HW218537   5.312  10.555   0.303
72214SOL     OW18538   5.138   3.636  13.821
72214SOL    HW118539   5.196   3.579  13.771
72214SOL    HW218540   5.182   3.722  13.820
72215SOL     OW18541   2.805   2.509   1.090
72215SOL    HW118542   2.717   2.513   1.050
72215SOL    HW218543   2.854   2.579   1.047
72216SOL     OW18544   7.672   9.014   1.738
72216SOL    HW118545   7.619   9.017   1.658
72216SOL    HW218546   7.746   8.957   1.715
72217SOL     OW18547   2.897   0.823   4.594
72217SOL    HW118548   2.956   0.819   4.669
72217SOL    HW218549   2.884   0.916   4.579
72218SOL     OW18550  11.822  11.973   7.187
72218SOL    HW118551  11.891  11.933   7.239
72218SOL    HW218552  11.864  12.047   7.143
72219SOL     OW18553  12.272   5.507  12.097
72219SOL    HW118554  12.348   5.521  12.153
72219SOL    HW218555  12.307   5.504  12.008
72220SOL     OW18556   7.749   6.149  12.445
72220SOL    HW118557   7.741   6.151  12.349
72220SOL    HW218558   7.842   6.159  12.462
72221SOL     OW18559   6.047  14.174   2.768
72221SOL    HW118560   6.016  14.130   2.688
72221SOL    HW218561   5.978  14.237   2.789
72222SOL     OW18562   3.825   9.621  14.584
72222SOL    HW118563   3.765   9.668  14.527
72222SOL    HW218564   3.826   9.671  14.666
72223SOL     OW18565   0.459   9.621   1.731
72223SOL    HW118566   0.424   9.534   1.753
72223SOL    HW218567   0.440   9.632   1.638
72224SOL     OW18568   8.897   7.391  10.402
72224SOL    HW118569   8.804   7.373  10.389
72224SOL    HW218570   8.911   7.477  10.364
72225SOL     OW18571   6.687  13.156   3.839
72225SOL    HW118572   6.638  13.087   3.793
72225SOL    HW218573   6.619  13.216   3.871
72226SOL     OW18574   2.906  11.811   4.401
72226SOL    HW118575   2.964  11.808   4.325
72226SOL    HW218576   2.924  11.729   4.447
72227SOL     OW18577   9.312   7.821   9.958
72227SOL    HW118578   9.292   7.801  10.049
72227SOL    HW218579   9.330   7.915   9.957
72228SOL     OW18580   0.441   4.290   4.177
72228SOL    HW118581   0.430   4.346   4.254
72228SOL    HW218582   0.533   4.266   4.177
72229SOL     OW18583  11.720   6.117   4.379
72229SOL    HW118584  11.749   6.172   4.306
72229SOL    HW218585  11.651   6.168   4.422
72230SOL     OW18586  11.240   1.873   4.035
72230SOL    HW118587  11.240   1.943   3.969
72230SOL    HW218588  11.226   1.918   4.118
72231SOL     OW18589  11.181  14.062   7.538
72231SOL    HW118590  11.207  14.141   7.492
72231SOL    HW218591  11.116  14.091   7.602
72232SOL     OW18592   2.088   8.655   2.512
72232SOL    HW118593   2.075   8.561   2.499
72232SOL    HW218594   2.045   8.674   2.596
72233SOL     OW18595  13.387  13.362   9.990
72233SOL    HW118596  13.326  13.435   9.998
72233SOL    HW218597  13.407  13.359   9.896
72234SOL     OW18598   9.766  13.010   9.888
72234SOL    HW118599   9.680  13.045   9.912
72234SOL    HW218600   9.791  13.060   9.811
72235SOL     OW18601   6.855  10.487   1.170
72235SOL    HW118602   6.920  10.418   1.178
72235SOL    HW218603   6.778  10.443   1.134
72236SOL     OW18604   0.444  13.985   8.716
72236SOL    HW118605   0.509  13.958   8.651
72236SOL    HW218606   0.403  14.063   8.679
72237SOL     OW18607   8.519   2.853  13.784
72237SOL    HW118608   8.566   2.870  13.865
72237SOL    HW218609   8.576   2.888  13.715
72238SOL     OW18610   9.734   5.646   3.446
72238SOL    HW118611   9.646   5.672   3.473
72238SOL    HW218612   9.731   5.649   3.350
72239SOL     OW18613   2.843   2.996   6.620
72239SOL    HW118614   2.817   3.073   6.569
72239SOL    HW218615   2.920   2.962   6.574
72240SOL     OW18616   9.700  13.888   1.565
72240SOL    HW118617   9.633  13.822   1.544
72240SOL    HW218618   9.783  13.839   1.561
72241SOL     OW18619   2.270  12.752   0.921
72241SOL    HW118620   2.343  12.790   0.872
72241SOL    HW218621   2.285  12.658   0.918
72242SOL     OW18622   0.368   1.645   8.853
72242SOL    HW118623   0.305   1.592   8.804
72242SOL    HW218624   0.448   1.593   8.853
72243SOL     OW18625   6.164   9.265  10.662
72243SOL    HW118626   6.177   9.360  10.666
72243SOL    HW218627   6.165   9.236  10.753
72244SOL     OW18628   2.368   7.321   1.227
72244SOL    HW118629   2.310   7.364   1.289
72244SOL    HW218630   2.398   7.242   1.273
72245SOL     OW18631  12.080  10.191  11.782
72245SOL    HW118632  12.117  10.163  11.866
72245SOL    HW218633  12.154  10.230  11.735
72246SOL     OW18634   5.235  11.338   7.574
72246SOL    HW118635   5.283  11.260   7.603
72246SOL    HW218636   5.209  11.381   7.655
72247SOL     OW18637  14.476   0.918   3.953
72247SOL    HW118638  14.530   0.994   3.929
72247SOL    HW218639  14.489   0.856   3.881
72248SOL     OW18640   8.939   1.178   0.956
72248SOL    HW118641   8.870   1.212   0.898
72248SOL    HW218642   9.021   1.196   0.909
72249SOL     OW18643   1.963   1.969   5.958
72249SOL    HW118644   2.024   1.950   6.029
72249SOL    HW218645   1.948   2.063   5.964
72250SOL     OW18646   8.821  14.363   4.744
72250SOL    HW118647   8.768  14.349   4.823
72250SOL    HW218648   8.884  14.431   4.769
72251SOL     OW18649  14.567   5.770  11.177
72251SOL    HW118650  14.504   5.778  11.105
72251SOL    HW218651  14.594   5.860  11.195
72252SOL     OW18652   2.591   7.401   3.166
72252SOL    HW118653   2.652   7.326   3.171
72252SOL    HW218654   2.644   7.476   3.193
72253SOL     OW18655   4.267  12.266   1.279
72253SOL    HW118656   4.223  12.298   1.358
72253SOL    HW218657   4.272  12.171   1.290
72254SOL     OW18658   7.511  10.441  12.111
72254SOL    HW118659   7.475  10.490  12.037
72254SOL    HW218660   7.489  10.495  12.187
72255SOL     OW18661   0.479  14.437   0.071
72255SOL    HW118662   0.415  14.504   0.047
72255SOL    HW218663   0.482  14.379  14.867
72256SOL     OW18664   2.998   2.394   5.981
72256SOL    HW118665   3.044   2.362   6.059
72256SOL    HW218666   2.950   2.471   6.012
72257SOL     OW18667   5.591   4.142  10.507
72257SOL    HW118668   5.639   4.080  10.562
72257SOL    HW218669   5.518   4.090  10.472
72258SOL     OW18670   6.961  12.493  10.814
72258SOL    HW118671   6.922  12.545  10.743
72258SOL    HW218672   6.954  12.549  10.891
72259SOL     OW18673   9.460   8.459  13.464
72259SOL    HW118674   9.527   8.392  13.476
72259SOL    HW218675   9.383   8.411  13.433
72260SOL     OW18676   0.289   6.343   0.421
72260SOL    HW118677   0.278   6.299   0.336
72260SOL    HW218678   0.241   6.287   0.483
72261SOL     OW18679   6.378   2.694  10.847
72261SOL    HW118680   6.450   2.757  10.852
72261SOL    HW218681   6.326   2.722  10.772
72262SOL     OW18682   9.660   4.678  11.631
72262SOL    HW118683   9.648   4.669  11.536
72262SOL    HW218684   9.666   4.588  11.663
72263SOL     OW18685  11.775   3.577   0.619
72263SOL    HW118686  11.796   3.655   0.670
72263SOL    HW218687  11.723   3.522   0.678
72264SOL     OW18688  12.568   9.546   7.966
72264SOL    HW118689  12.584   9.561   7.873
72264SOL    HW218690  12.580   9.632   8.006
72265SOL     OW18691   2.272   0.228   2.699
72265SOL    HW118692   2.263   0.323   2.692
72265SOL    HW218693   2.353   0.208   2.652
72266SOL     OW18694  11.924  14.029   0.372
72266SOL    HW118695  11.971  14.090   0.429
72266SOL    HW218696  11.844  14.008   0.419
72267SOL     OW18697  10.091   7.894   9.171
72267SOL    HW118698  10.095   7.888   9.076
72267SOL    HW218699  10.063   7.807   9.199
72268SOL     OW18700   6.575  13.615   7.221
72268SOL    HW118701   6.495  13.662   7.244
72268SOL    HW218702   6.562  13.588   7.130
72269SOL     OW18703   7.925   1.029   7.090
72269SOL    HW118704   7.995   0.972   7.121
72269SOL    HW218705   7.852   1.013   7.151
72270SOL     OW18706   9.456   5.093   4.638
72270SOL    HW118707   9.389   5.090   4.706
72270SOL    HW218708   9.428   5.027   4.574
72271SOL     OW18709  10.011   6.565  14.294
72271SOL    HW118710  10.019   6.650  14.337
72271SOL    HW218711   9.997   6.503  14.365
72272SOL     OW18712   6.420   2.525   0.525
72272SOL    HW118713   6.495   2.581   0.506
72272SOL    HW218714   6.417   2.518   0.620
72273SOL     OW18715  11.432   5.819   5.651
72273SOL    HW118716  11.519   5.844   5.679
72273SOL    HW218717  11.376   5.892   5.680
72274SOL     OW18718  10.352  11.494   2.125
72274SOL    HW118719  10.369  11.467   2.215
72274SOL    HW218720  10.397  11.428   2.072
72275SOL     OW18721   5.150   5.582  13.636
72275SOL    HW118722   5.087   5.574  13.565
72275SOL    HW218723   5.111   5.647  13.695
72276SOL     OW18724  13.729   8.085   1.670
72276SOL    HW118725  13.777   8.098   1.587
72276SOL    HW218726  13.685   8.168   1.685
72277SOL     OW18727  13.418   5.429   7.739
72277SOL    HW118728  13.493   5.369   7.738
72277SOL    HW218729  13.343   5.374   7.721
72278SOL     OW18730   9.910   0.301   7.271
72278SOL    HW118731   9.884   0.217   7.232
72278SOL    HW218732   9.855   0.308   7.349
72279SOL     OW18733   7.571  13.930  10.378
72279SOL    HW118734   7.538  13.926  10.288
72279SOL    HW218735   7.496  13.904  10.432
72280SOL     OW18736   1.078   8.841   5.605
72280SOL    HW118737   1.155   8.821   5.551
72280SOL    HW218738   1.047   8.925   5.572
72281SOL     OW18739   0.606   4.605   2.018
72281SOL    HW118740   0.606   4.628   1.926
72281SOL    HW218741   0.610   4.690   2.064
72282SOL     OW18742   0.267   9.459   0.919
72282SOL    HW118743   0.280   9.370   0.887
72282SOL    HW218744   0.179   9.483   0.890
72283SOL     OW18745  13.528   3.193   7.361
72283SOL    HW118746  13.552   3.192   7.454
72283SOL    HW218747  13.518   3.100   7.338
72284SOL     OW18748   7.055   8.175   8.694
72284SOL    HW118749   6.978   8.194   8.639
72284SOL    HW218750   7.109   8.118   8.640
72285SOL     OW18751   4.500   6.475  14.755
72285SOL    HW118752   4.569   6.508  14.813
72285SOL    HW218753   4.534   6.392  14.722
72286SOL     OW18754  10.363  13.131   4.954
72286SOL    HW118755  10.429  13.192   4.922
72286SOL    HW218756  10.411  13.073   5.013
72287SOL     OW18757   2.944  12.570  10.220
72287SOL    HW118758   2.896  12.653  10.225
72287SOL    HW218759   2.888  12.514  10.165
72288SOL     OW18760   9.935   0.133  14.717
72288SOL    HW118761  10.006   0.110  14.658
72288SOL    HW218762   9.975   0.132  14.804
72289SOL     OW18763  12.700   9.163   6.181
72289SOL    HW118764  12.615   9.206   6.169
72289SOL    HW218765  12.761   9.217   6.131
72290SOL     OW18766   6.761   6.682  10.847
72290SOL    HW118767   6.805   6.602  10.878
72290SOL    HW218768   6.671   6.654  10.829
72291SOL     OW18769   7.326  13.788  11.925
72291SOL    HW118770   7.267  13.833  11.985
72291SOL    HW218771   7.278  13.786  11.842
72292SOL     OW18772   7.255   6.584   1.665
72292SOL    HW118773   7.202   6.573   1.587
72292SOL    HW218774   7.346   6.582   1.633
72293SOL     OW18775   3.144  12.002  13.220
72293SOL    HW118776   3.201  11.931  13.188
72293SOL    HW218777   3.071  12.003  13.158
72294SOL     OW18778   6.220  13.945  12.267
72294SOL    HW118779   6.203  13.992  12.185
72294SOL    HW218780   6.143  13.890  12.279
72295SOL     OW18781  14.641   0.476   8.331
72295SOL    HW118782  14.577   0.529   8.378
72295SOL    HW218783  14.633   0.505   8.240
72296SOL     OW18784  12.220   2.119   9.946
72296SOL    HW118785  12.173   2.098  10.027
72296SOL    HW218786  12.245   2.034   9.910
72297SOL     OW18787   0.691  14.108  14.304
72297SOL    HW118788   0.752  14.045  14.342
72297SOL    HW218789   0.642  14.058  14.239
72298SOL     OW18790   4.520   5.689   1.434
72298SOL    HW118791   4.534   5.782   1.417
72298SOL    HW218792   4.569   5.671   1.514
72299SOL     OW18793   9.015   7.380   4.507
72299SOL    HW118794   9.054   7.299   4.542
72299SOL    HW218795   8.927   7.383   4.547
72300SOL     OW18796   9.630   5.766   7.587
72300SOL    HW118797   9.675   5.815   7.518
72300SOL    HW218798   9.661   5.676   7.577
72301SOL     OW18799  14.008  13.937   9.250
72301SOL    HW118800  14.070  13.968   9.184
72301SOL    HW218801  14.016  13.842   9.247
72302SOL     OW18802   7.595  12.834  13.228
72302SOL    HW118803   7.520  12.843  13.169
72302SOL    HW218804   7.626  12.744  13.213
72303SOL     OW18805   1.154  13.002   2.446
72303SOL    HW118806   1.071  12.953   2.443
72303SOL    HW218807   1.152  13.045   2.531
72304SOL     OW18808   7.218   0.196  12.092
72304SOL    HW118809   7.189   0.190  12.001
72304SOL    HW218810   7.270   0.117  12.106
72305SOL     OW18811   0.760  10.636   7.700
72305SOL    HW118812   0.683  10.676   7.741
72305SOL    HW218813   0.811  10.710   7.667
72306SOL     OW18814   3.805  10.846   6.940
72306SOL    HW118815   3.773  10.864   6.851
72306SOL    HW218816   3.737  10.789   6.978
72307SOL     OW18817   3.665  13.044  13.678
72307SOL    HW118818   3.729  13.109  13.648
72307SOL    HW218819   3.708  12.960  13.665
72308SOL     OW18820   2.829   6.225  14.438
72308SOL    HW118821   2.877   6.306  14.422
72308SOL    HW218822   2.892   6.156  14.418
72309SOL     OW18823   6.771  14.691  14.072
72309SOL    HW118824   6.820  14.708  13.992
72309SOL    HW218825   6.803  14.606  14.103
72310SOL     OW18826   3.628   5.622  10.456
72310SOL    HW118827   3.687   5.599  10.383
72310SOL    HW218828   3.651   5.560  10.525
72311SOL     OW18829   4.456   5.204   2.154
72311SOL    HW118830   4.491   5.292   2.136
72311SOL    HW218831   4.529   5.158   2.195
72312SOL     OW18832  12.112   2.913   3.043
72312SOL    HW118833  12.050   2.861   3.095
72312SOL    HW218834  12.167   2.849   2.999
72313SOL     OW18835   7.573  10.295  14.201
72313SOL    HW118836   7.509  10.242  14.154
72313SOL    HW218837   7.598  10.242  14.277
72314SOL     OW18838  13.175   2.023   0.311
72314SOL    HW118839  13.237   2.097   0.315
72314SOL    HW218840  13.204   1.972   0.236
72315SOL     OW18841  14.866  12.753  14.657
72315SOL    HW118842  14.777  12.721  14.639
72315SOL    HW218843  14.860  12.796  14.742
72316SOL     OW18844   8.280  14.459   4.949
72316SOL    HW118845   8.273  14.554   4.940
72316SOL    HW218846   8.363  14.436   4.907
72317SOL     OW18847  13.650   8.872   7.299
72317SOL    HW118848  13.718   8.805   7.300
72317SOL    HW218849  13.648   8.903   7.209
72318SOL     OW18850   1.830   5.093   0.009
72318SOL    HW118851   1.792   5.086   0.097
72318SOL    HW218852   1.923   5.111   0.024
72319SOL     OW18853   7.662   1.548  13.753
72319SOL    HW118854   7.667   1.623  13.812
72319SOL    HW218855   7.665   1.586  13.665
72320SOL     OW18856   1.814   2.341   2.653
72320SOL    HW118857   1.723   2.360   2.632
72320SOL    HW218858   1.843   2.417   2.705
72321SOL     OW18859   6.666  13.224  13.865
72321SOL    HW118860   6.752  13.266  13.869
72321SOL    HW218861   6.681  13.143  13.816
72322SOL     OW18862   5.793   5.437   1.392
72322SOL    HW118863   5.728   5.507   1.396
72322SOL    HW218864   5.829   5.444   1.303
72323SOL     OW18865   3.206   0.845  11.703
72323SOL    HW118866   3.203   0.842  11.799
72323SOL    HW218867   3.163   0.765  11.674
72324SOL     OW18868  10.611   3.680   0.351
72324SOL    HW118869  10.634   3.595   0.313
72324SOL    HW218870  10.544   3.660   0.416
72325SOL     OW18871  10.742   1.430   5.677
72325SOL    HW118872  10.703   1.406   5.761
72325SOL    HW218873  10.777   1.518   5.691
72326SOL     OW18874   9.683   3.327  12.510
72326SOL    HW118875   9.749   3.260  12.523
72326SOL    HW218876   9.614   3.306  12.573
72327SOL     OW18877  11.807   4.754   5.678
72327SOL    HW118878  11.727   4.762   5.625
72327SOL    HW218879  11.859   4.687   5.633
72328SOL     OW18880  10.439   5.150   9.953
72328SOL    HW118881  10.399   5.215  10.010
72328SOL    HW218882  10.381   5.146   9.876
72329SOL     OW18883   2.470  14.728  12.569
72329SOL    HW118884   2.464  14.823  12.570
72329SOL    HW218885   2.386  14.699  12.532
72330SOL     OW18886   0.978   4.617   4.435
72330SOL    HW118887   1.013   4.542   4.483
72330SOL    HW218888   0.979   4.589   4.343
72331SOL     OW18889   0.171  11.146   4.261
72331SOL    HW118890   0.225  11.075   4.297
72331SOL    HW218891   0.231  11.220   4.253
72332SOL     OW18892   1.552   5.708   4.690
72332SOL    HW118893   1.615   5.693   4.760
72332SOL    HW218894   1.524   5.799   4.701
72333SOL     OW18895  11.810   8.849   9.851
72333SOL    HW118896  11.751   8.827   9.779
72333SOL    HW218897  11.847   8.934   9.826
72334SOL     OW18898  13.792   3.397  10.388
72334SOL    HW118899  13.823   3.476  10.344
72334SOL    HW218900  13.872   3.346  10.405
72335SOL     OW18901   3.566   4.770   1.138
72335SOL    HW118902   3.578   4.842   1.200
72335SOL    HW218903   3.583   4.808   1.052
72336SOL     OW18904   2.106   4.157   8.725
72336SOL    HW118905   2.031   4.214   8.741
72336SOL    HW218906   2.173   4.190   8.785
72337SOL     OW18907   2.271   7.941  13.013
72337SOL    HW118908   2.327   8.011  13.045
72337SOL    HW218909   2.272   7.875  13.083
72338SOL     OW18910   3.576  10.528   9.734
72338SOL    HW118911   3.648  10.575   9.776
72338SOL    HW218912   3.619  10.464   9.677
72339SOL     OW18913  13.637   7.695   4.733
72339SOL    HW118914  13.729   7.680   4.755
72339SOL    HW218915  13.601   7.738   4.811
72340SOL     OW18916  11.000   3.940   5.375
72340SOL    HW118917  10.940   3.968   5.305
72340SOL    HW218918  10.995   4.011   5.440
72341SOL     OW18919   9.189   2.143  14.423
72341SOL    HW118920   9.221   2.094  14.499
72341SOL    HW218921   9.178   2.077  14.355
72342SOL     OW18922   3.490  13.383   2.046
72342SOL    HW118923   3.436  13.309   2.019
72342SOL    HW218924   3.577  13.362   2.011
72343SOL     OW18925   9.580   7.229  10.345
72343SOL    HW118926   9.503   7.269  10.386
72343SOL    HW218927   9.630   7.193  10.417
72344SOL     OW18928   2.916   2.647  12.564
72344SOL    HW118929   2.969   2.685  12.634
72344SOL    HW218930   2.865   2.720  12.529
72345SOL     OW18931  11.950   0.264   9.773
72345SOL    HW118932  11.872   0.306   9.809
72345SOL    HW218933  11.988   0.330   9.715
72346SOL     OW18934   8.643   7.046  14.112
72346SOL    HW118935   8.661   7.113  14.177
72346SOL    HW218936   8.727   7.028  14.070
72347SOL     OW18937  13.392   0.327   4.436
72347SOL    HW118938  13.327   0.288   4.495
72347SOL    HW218939  13.358   0.309   4.349
72348SOL     OW18940   2.134   7.800  14.140
72348SOL    HW118941   2.089   7.878  14.174
72348SOL    HW218942   2.176   7.830  14.060
72349SOL     OW18943   8.717   6.893   1.893
72349SOL    HW118944   8.668   6.817   1.864
72349SOL    HW218945   8.678   6.917   1.977
72350SOL     OW18946   8.514  12.026   8.179
72350SOL    HW118947   8.419  12.036   8.174
72350SOL    HW218948   8.541  12.009   8.088
72351SOL     OW18949  13.819   8.993   8.578
72351SOL    HW118950  13.841   8.959   8.492
72351SOL    HW218951  13.890   9.053   8.600
72352SOL     OW18952  10.577   4.725   1.709
72352SOL    HW118953  10.604   4.814   1.684
72352SOL    HW218954  10.561   4.731   1.803
72353SOL     OW18955  10.904   9.547   8.468
72353SOL    HW118956  10.863   9.633   8.485
72353SOL    HW218957  10.988   9.568   8.427
72354SOL     OW18958   2.181   9.084   7.317
72354SOL    HW118959   2.124   9.061   7.390
72354SOL    HW218960   2.122   9.092   7.242
72355SOL     OW18961  11.574  13.651  14.605
72355SOL    HW118962  11.543  13.705  14.678
72355SOL    HW218963  11.588  13.564  14.644
72356SOL     OW18964   2.459   2.308  11.566
72356SOL    HW118965   2.443   2.312  11.660
72356SOL    HW218966   2.434   2.219  11.541
72357SOL     OW18967  10.100   2.771  10.910
72357SOL    HW118968  10.064   2.741  10.826
72357SOL    HW218969  10.133   2.692  10.951
72358SOL     OW18970   1.433  13.876   8.738
72358SOL    HW118971   1.507  13.931   8.762
72358SOL    HW218972   1.463  13.787   8.753
72359SOL     OW18973   4.922   1.811   3.485
72359SOL    HW118974   4.828   1.826   3.480
72359SOL    HW218975   4.945   1.834   3.575
72360SOL     OW18976   4.067   1.942   7.735
72360SOL    HW118977   4.149   1.899   7.760
72360SOL    HW218978   4.002   1.873   7.737
72361SOL     OW18979  13.008  10.635  11.760
72361SOL    HW118980  12.996  10.660  11.668
72361SOL    HW218981  13.030  10.717  11.805
72362SOL     OW18982   4.967   3.284   4.140
72362SOL    HW118983   4.922   3.258   4.060
72362SOL    HW218984   5.023   3.357   4.112
72363SOL     OW18985  14.029  12.082   4.008
72363SOL    HW118986  13.969  12.008   4.011
72363SOL    HW218987  14.094  12.064   4.076
72364SOL     OW18988  12.688  14.492   6.954
72364SOL    HW118989  12.722  14.550   7.022
72364SOL    HW218990  12.756  14.425   6.944
72365SOL     OW18991   9.174   1.875  13.659
72365SOL    HW118992   9.123   1.800  13.690
72365SOL    HW218993   9.252   1.836  13.620
72366SOL     OW18994   8.834   6.879  10.594
72366SOL    HW118995   8.927   6.853  10.593
72366SOL    HW218996   8.787   6.800  10.567
72367SOL     OW18997   1.564   6.412   4.567
72367SOL    HW118998   1.640   6.385   4.514
72367SOL    HW218999   1.571   6.507   4.571
72368SOL     OW19000  14.545   3.696  10.409
72368SOL    HW119001  14.591   3.621  10.447
72368SOL    HW219002  14.516   3.666  10.323
72369SOL     OW19003  14.176   4.154   0.694
72369SOL    HW119004  14.081   4.146   0.689
72369SOL    HW219005  14.191   4.248   0.709
72370SOL     OW19006   5.822  11.517   9.729
72370SOL    HW119007   5.872  11.586   9.771
72370SOL    HW219008   5.869  11.436   9.750
72371SOL     OW19009  14.192   1.238   3.110
72371SOL    HW119010  14.215   1.193   3.028
72371SOL    HW219011  14.243   1.319   3.108
72372SOL     OW19012   5.307   8.235   3.803
72372SOL    HW119013   5.257   8.154   3.788
72372SOL    HW219014   5.316   8.240   3.898
72373SOL     OW19015   8.797  13.888   7.300
72373SOL    HW119016   8.712  13.929   7.311
72373SOL    HW219017   8.778  13.802   7.262
72374SOL     OW19018   0.604  13.623   9.550
72374SOL    HW119019   0.644  13.540   9.576
72374SOL    HW219020   0.510  13.606   9.552
72375SOL     OW19021   5.775   5.304   6.420
72375SOL    HW119022   5.688   5.278   6.392
72375SOL    HW219023   5.834   5.257   6.362
72376SOL     OW19024   3.467   5.878  13.781
72376SOL    HW119025   3.558   5.898  13.803
72376SOL    HW219026   3.464   5.782  13.778
72377SOL     OW19027   0.916   2.955  10.524
72377SOL    HW119028   0.836   2.930  10.570
72377SOL    HW219029   0.888   2.968  10.433
72378SOL     OW19030   3.040   8.405   7.706
72378SOL    HW119031   3.089   8.393   7.625
72378SOL    HW219032   2.966   8.460   7.681
72379SOL     OW19033   5.564   8.453  14.260
72379SOL    HW119034   5.601   8.398  14.190
72379SOL    HW219035   5.630   8.452  14.329
72380SOL     OW19036  13.539  11.215   7.194
72380SOL    HW119037  13.565  11.261   7.114
72380SOL    HW219038  13.501  11.283   7.250
72381SOL     OW19039   8.562   2.878   3.389
72381SOL    HW119040   8.651   2.908   3.405
72381SOL    HW219041   8.549   2.889   3.295
72382SOL     OW19042   9.847   4.147  10.662
72382SOL    HW119043   9.909   4.193  10.719
72382SOL    HW219044   9.766   4.198  10.668
72383SOL     OW19045   9.567   5.820  11.031
72383SOL    HW119046   9.610   5.792  10.950
72383SOL    HW219047   9.493   5.760  11.041
72384SOL     OW19048   2.401   8.697   5.825
72384SOL    HW119049   2.341   8.727   5.893
72384SOL    HW219050   2.386   8.756   5.751
72385SOL     OW19051   4.211   1.339   3.242
72385SOL    HW119052   4.257   1.255   3.254
72385SOL    HW219053   4.259   1.400   3.297
72386SOL     OW19054  10.460   2.373   7.966
72386SOL    HW119055  10.502   2.460   7.967
72386SOL    HW219056  10.376   2.386   8.010
72387SOL     OW19057  13.646   7.655  12.858
72387SOL    HW119058  13.643   7.660  12.762
72387SOL    HW219059  13.739   7.651  12.879
72388SOL     OW19060   8.964   9.228  10.064
72388SOL    HW119061   9.046   9.214  10.112
72388SOL    HW219062   8.983   9.197   9.975
72389SOL     OW19063   2.489  11.538  12.795
72389SOL    HW119064   2.419  11.512  12.735
72389SOL    HW219065   2.501  11.632  12.779
72390SOL     OW19066   7.642   1.205   5.978
72390SOL    HW119067   7.729   1.205   5.938
72390SOL    HW219068   7.607   1.292   5.958
72391SOL     OW19069  13.091   5.743   0.095
72391SOL    HW119070  13.137   5.807   0.149
72391SOL    HW219071  13.160   5.683   0.065
72392SOL     OW19072   8.236  10.270   7.049
72392SOL    HW119073   8.185  10.194   7.022
72392SOL    HW219074   8.327  10.241   7.045
72393SOL     OW19075  14.118   6.766  11.602
72393SOL    HW119076  14.206   6.774  11.638
72393SOL    HW219077  14.087   6.856  11.592
72394SOL     OW19078  13.343   1.279   9.762
72394SOL    HW119079  13.411   1.301   9.697
72394SOL    HW219080  13.282   1.352   9.757
72395SOL     OW19081  12.144   0.618   2.757
72395SOL    HW119082  12.193   0.591   2.679
72395SOL    HW219083  12.077   0.677   2.724
72396SOL     OW19084   5.822   7.377  12.346
72396SOL    HW119085   5.903   7.331  12.369
72396SOL    HW219086   5.802   7.348  12.257
72397SOL     OW19087   0.847  10.706   2.988
72397SOL    HW119088   0.839  10.611   2.997
72397SOL    HW219089   0.799  10.727   2.909
72398SOL     OW19090   9.107   0.372   6.000
72398SOL    HW119091   9.067   0.365   6.087
72398SOL    HW219092   9.033   0.382   5.940
72399SOL     OW19093   2.368   3.062   3.092
72399SOL    HW119094   2.303   3.027   3.030
72399SOL    HW219095   2.438   3.095   3.036
72400SOL     OW19096   3.757   7.478  14.374
72400SOL    HW119097   3.714   7.400  14.410
72400SOL    HW219098   3.715   7.491  14.289
72401SOL     OW19099   6.472   6.064   2.212
72401SOL    HW119100   6.540   6.071   2.279
72401SOL    HW219101   6.395   6.105   2.252
72402SOL     OW19102  13.298  10.480  13.436
72402SOL    HW119103  13.370  10.431  13.396
72402SOL    HW219104  13.300  10.454  13.528
72403SOL     OW19105  10.487   6.460   5.169
72403SOL    HW119106  10.521   6.542   5.133
72403SOL    HW219107  10.563   6.417   5.207
72404SOL     OW19108   1.677   3.926  14.026
72404SOL    HW119109   1.704   4.016  14.044
72404SOL    HW219110   1.639   3.929  13.939
72405SOL     OW19111   4.254  14.127   6.130
72405SOL    HW119112   4.244  14.032   6.139
72405SOL    HW219113   4.165  14.161   6.140
72406SOL     OW19114   7.825   2.403   0.857
72406SOL    HW119115   7.845   2.458   0.932
72406SOL    HW219116   7.775   2.330   0.892
72407SOL     OW19117  12.474   9.434   6.419
72407SOL    HW119118  12.439   9.380   6.347
72407SOL    HW219119  12.567   9.441   6.399
72408SOL     OW19120   5.599  10.769   4.406
72408SOL    HW119121   5.536  10.825   4.360
72408SOL    HW219122   5.642  10.827   4.469
72409SOL     OW19123  10.301  11.776   7.432
72409SOL    HW119124  10.253  11.800   7.353
72409SOL    HW219125  10.327  11.685   7.417
72410SOL     OW19126   4.698   2.798  11.215
72410SOL    HW119127   4.776   2.825  11.167
72410SOL    HW219128   4.694   2.857  11.290
72411SOL     OW19129   4.417   4.496   2.796
72411SOL    HW119130   4.432   4.579   2.843
72411SOL    HW219131   4.338   4.460   2.837
72412SOL     OW19132   0.902  12.373   0.778
72412SOL    HW119133   0.901  12.414   0.692
72412SOL    HW219134   0.925  12.281   0.761
72413SOL     OW19135   0.369   5.024   3.335
72413SOL    HW119136   0.334   4.987   3.416
72413SOL    HW219137   0.332   5.113   3.331
72414SOL     OW19138   3.935   8.243   9.418
72414SOL    HW119139   4.015   8.288   9.445
72414SOL    HW219140   3.965   8.161   9.378
72415SOL     OW19141   2.848  14.308   2.364
72415SOL    HW119142   2.915  14.371   2.336
72415SOL    HW219143   2.768  14.361   2.373
72416SOL     OW19144  12.351  12.686   4.063
72416SOL    HW119145  12.305  12.646   4.137
72416SOL    HW219146  12.444  12.685   4.089
72417SOL     OW19147  12.739   2.542   1.806
72417SOL    HW119148  12.733   2.633   1.779
72417SOL    HW219149  12.830   2.518   1.789
72418SOL     OW19150   6.519   7.468   6.518
72418SOL    HW119151   6.561   7.383   6.505
72418SOL    HW219152   6.520   7.509   6.432
72419SOL     OW19153   0.781  10.164   7.197
72419SOL    HW119154   0.766  10.070   7.204
72419SOL    HW219155   0.873  10.176   7.220
72420SOL     OW19156  13.393  12.929   8.085
72420SOL    HW119157  13.351  12.846   8.062
72420SOL    HW219158  13.324  12.979   8.131
72421SOL     OW19159   3.226  11.648   7.334
72421SOL    HW119160   3.203  11.740   7.345
72421SOL    HW219161   3.230  11.613   7.424
72422SOL     OW19162  13.947   3.722  11.106
72422SOL    HW119163  13.859   3.697  11.136
72422SOL    HW219164  13.994   3.746  11.186
72423SOL     OW19165   2.867   5.808   3.369
72423SOL    HW119166   2.816   5.746   3.421
72423SOL    HW219167   2.931   5.754   3.323
72424SOL     OW19168  14.504  14.496   1.248
72424SOL    HW119169  14.493  14.493   1.343
72424SOL    HW219170  14.583  14.444   1.232
72425SOL     OW19171   5.614   0.592   4.428
72425SOL    HW119172   5.593   0.574   4.336
72425SOL    HW219173   5.548   0.544   4.478
72426SOL     OW19174  14.093   5.283   4.688
72426SOL    HW119175  14.061   5.226   4.757
72426SOL    HW219176  14.182   5.306   4.714
72427SOL     OW19177   4.974   5.357  10.274
72427SOL    HW119178   5.028   5.355  10.353
72427SOL    HW219179   4.976   5.449  10.246
72428SOL     OW19180   3.540   7.807  11.743
72428SOL    HW119181   3.627   7.768  11.749
72428SOL    HW219182   3.550   7.879  11.682
72429SOL     OW19183  11.754   3.499  13.559
72429SOL    HW119184  11.780   3.421  13.607
72429SOL    HW219185  11.746   3.470  13.468
72430SOL     OW19186  10.737   9.192  11.674
72430SOL    HW119187  10.826   9.226  11.669
72430SOL    HW219188  10.707   9.190  11.583
72431SOL     OW19189  10.234  10.644   5.874
72431SOL    HW119190  10.219  10.590   5.951
72431SOL    HW219191  10.303  10.705   5.900
72432SOL     OW19192  10.371   8.005   9.790
72432SOL    HW119193  10.334   8.029   9.705
72432SOL    HW219194  10.461   8.039   9.787
72433SOL     OW19195   1.532  14.307   6.930
72433SOL    HW119196   1.615  14.335   6.892
72433SOL    HW219197   1.546  14.216   6.954
72434SOL     OW19198   2.132   8.583  13.302
72434SOL    HW119199   2.159   8.493  13.323
72434SOL    HW219200   2.094   8.616  13.384
72435SOL     OW19201   0.563   9.459  14.684
72435SOL    HW119202   0.470   9.472  14.701
72435SOL    HW219203   0.602   9.445  14.770
72436SOL     OW19204   1.599  12.009  12.424
72436SOL    HW119205   1.601  11.978  12.333
72436SOL    HW219206   1.585  11.930  12.476
72437SOL     OW19207   0.012  12.715   3.478
72437SOL    HW119208  14.831  12.672   3.545
72437SOL    HW219209   0.023  12.647   3.411
72438SOL     OW19210   8.949  13.287  10.618
72438SOL    HW119211   8.856  13.309  10.610
72438SOL    HW219212   8.991  13.369  10.642
72439SOL     OW19213   1.134  14.148   4.736
72439SOL    HW119214   1.155  14.094   4.659
72439SOL    HW219215   1.107  14.085   4.803
72440SOL     OW19216   6.184   8.341  13.732
72440SOL    HW119217   6.143   8.259  13.760
72440SOL    HW219218   6.206   8.386  13.814
72441SOL     OW19219   4.248   4.302   6.534
72441SOL    HW119220   4.246   4.344   6.620
72441SOL    HW219221   4.253   4.208   6.554
72442SOL     OW19222  12.725  11.663  12.454
72442SOL    HW119223  12.791  11.686  12.519
72442SOL    HW219224  12.758  11.698  12.372
72443SOL     OW19225  12.922  13.925   0.993
72443SOL    HW119226  12.984  13.854   1.008
72443SOL    HW219227  12.841  13.895   1.034
72444SOL     OW19228   0.966  12.497   9.452
72444SOL    HW119229   1.033  12.555   9.416
72444SOL    HW219230   0.884  12.528   9.413
72445SOL     OW19231   7.968  10.604  11.022
72445SOL    HW119232   7.882  10.577  10.991
72445SOL    HW219233   8.020  10.617  10.942
72446SOL     OW19234   5.984   4.159  13.326
72446SOL    HW119235   5.914   4.194  13.271
72446SOL    HW219236   5.976   4.064  13.318
72447SOL     OW19237   3.959  14.679   5.538
72447SOL    HW119238   3.934  14.592   5.508
72447SOL    HW219239   4.020  14.663   5.611
72448SOL     OW19240   4.633   8.321   6.493
72448SOL    HW119241   4.690   8.338   6.417
72448SOL    HW219242   4.555   8.374   6.477
72449SOL     OW19243   0.395   0.428  11.098
72449SOL    HW119244   0.482   0.442  11.136
72449SOL    HW219245   0.413   0.391  11.011
72450SOL     OW19246   3.439   2.450   5.600
72450SOL    HW119247   3.525   2.486   5.580
72450SOL    HW219248   3.424   2.383   5.533
72451SOL     OW19249   6.166  14.062   5.060
72451SOL    HW119250   6.151  14.032   4.971
72451SOL    HW219251   6.080  14.089   5.092
72452SOL     OW19252   3.440   0.848  11.546
72452SOL    HW119253   3.359   0.830  11.594
72452SOL    HW219254   3.499   0.779  11.574
72453SOL     OW19255   5.019   2.080  14.264
72453SOL    HW119256   4.996   1.987  14.253
72453SOL    HW219257   5.102   2.090  14.219
72454SOL     OW19258  11.111   0.438   6.148
72454SOL    HW119259  11.173   0.436   6.221
72454SOL    HW219260  11.122   0.525   6.110
72455SOL     OW19261   1.821  12.933   0.228
72455SOL    HW119262   1.770  12.910   0.150
72455SOL    HW219263   1.912  12.915   0.204
72456SOL     OW19264   8.522  10.585  14.130
72456SOL    HW119265   8.548  10.550  14.045
72456SOL    HW219266   8.432  10.615  14.118
72457SOL     OW19267  11.248  11.339  11.737
72457SOL    HW119268  11.180  11.274  11.719
72457SOL    HW219269  11.327  11.301  11.697
72458SOL     OW19270  11.594   5.939   8.904
72458SOL    HW119271  11.594   5.970   8.813
72458SOL    HW219272  11.685   5.949   8.932
72459SOL     OW19273   1.076   1.762   3.418
72459SOL    HW119274   1.054   1.801   3.333
72459SOL    HW219275   1.123   1.682   3.396
72460SOL     OW19276  13.558   5.510   5.291
72460SOL    HW119277  13.553   5.504   5.196
72460SOL    HW219278  13.549   5.420   5.321
72461SOL     OW19279   5.021   8.444   5.666
72461SOL    HW119280   4.985   8.521   5.709
72461SOL    HW219281   5.023   8.377   5.734
72462SOL     OW19282   8.736  11.165   8.636
72462SOL    HW119283   8.734  11.194   8.727
72462SOL    HW219284   8.784  11.234   8.590
72463SOL     OW19285   5.879   1.191   0.988
72463SOL    HW119286   5.928   1.121   1.032
72463SOL    HW219287   5.795   1.151   0.966
72464SOL     OW19288  13.622   4.836   3.667
72464SOL    HW119289  13.535   4.849   3.704
72464SOL    HW219290  13.606   4.824   3.573
72465SOL     OW19291   9.473   9.368  10.462
72465SOL    HW119292   9.420   9.319  10.399
72465SOL    HW219293   9.511   9.439  10.410
72466SOL     OW19294  13.292   6.420  12.399
72466SOL    HW119295  13.310   6.442  12.490
72466SOL    HW219296  13.200   6.396  12.398
72467SOL     OW19297   0.330  12.348   8.350
72467SOL    HW119298   0.391  12.307   8.412
72467SOL    HW219299   0.323  12.286   8.278
72468SOL     OW19300   1.730   3.638  10.995
72468SOL    HW119301   1.772   3.586  10.927
72468SOL    HW219302   1.761   3.727  10.979
72469SOL     OW19303   4.276   7.530   5.676
72469SOL    HW119304   4.360   7.547   5.718
72469SOL    HW219305   4.235   7.616   5.669
72470SOL     OW19306   0.011   9.705   8.270
72470SOL    HW119307   0.068   9.724   8.344
72470SOL    HW219308  14.867   9.610   8.277
72471SOL     OW19309   4.258   7.988  10.067
72471SOL    HW119310   4.274   7.927  10.139
72471SOL    HW219311   4.236   7.932   9.993
72472SOL     OW19312   6.535   1.142   1.381
72472SOL    HW119313   6.564   1.089   1.307
72472SOL    HW219314   6.616   1.164   1.428
72473SOL     OW19315   4.289  11.424  11.312
72473SOL    HW119316   4.298  11.375  11.231
72473SOL    HW219317   4.280  11.357  11.380
72474SOL     OW19318   9.612   1.362  11.031
72474SOL    HW119319   9.693   1.361  11.082
72474SOL    HW219320   9.579   1.272  11.038
72475SOL     OW19321  14.232   6.776   1.095
72475SOL    HW119322  14.177   6.854   1.100
72475SOL    HW219323  14.174   6.704   1.120
72476SOL     OW19324   7.493   3.132   5.450
72476SOL    HW119325   7.465   3.041   5.459
72476SOL    HW219326   7.588   3.128   5.461
72477SOL     OW19327   9.817   5.490   3.658
72477SOL    HW119328   9.763   5.513   3.734
72477SOL    HW219329   9.796   5.557   3.593
72478SOL     OW19330  10.516  10.730   1.936
72478SOL    HW119331  10.526  10.635   1.939
72478SOL    HW219332  10.533  10.752   1.844
72479SOL     OW19333  12.708  13.263  10.514
72479SOL    HW119334  12.706  13.177  10.472
72479SOL    HW219335  12.715  13.325  10.441
72480SOL     OW19336  10.798   2.516   0.447
72480SOL    HW119337  10.791   2.590   0.387
72480SOL    HW219338  10.714   2.514   0.493
72481SOL     OW19339  13.205   4.730   1.819
72481SOL    HW119340  13.143   4.658   1.804
72481SOL    HW219341  13.270   4.722   1.750
72482SOL     OW19342   6.739  14.741   2.998
72482SOL    HW119343   6.647  14.730   3.019
72482SOL    HW219344   6.742  14.822   2.946
72483SOL     OW19345  10.901   0.342   4.143
72483SOL    HW119346  10.861   0.403   4.080
72483SOL    HW219347  10.873   0.255   4.113
72484SOL     OW19348  10.239   7.458  11.004
72484SOL    HW119349  10.170   7.419  11.059
72484SOL    HW219350  10.192   7.493  10.928
72485SOL     OW19351  13.451   9.271  14.706
72485SOL    HW119352  13.519   9.287  14.772
72485SOL    HW219353  13.397   9.351  14.708
72486SOL     OW19354   4.136   2.150  10.792
72486SOL    HW119355   4.099   2.116  10.874
72486SOL    HW219356   4.071   2.126  10.725
72487SOL     OW19357  13.183   8.817   9.512
72487SOL    HW119358  13.272   8.783   9.507
72487SOL    HW219359  13.175   8.847   9.603
72488SOL     OW19360  12.716   5.197   4.987
72488SOL    HW119361  12.637   5.202   4.933
72488SOL    HW219362  12.786   5.229   4.930
72489SOL     OW19363   7.407  10.633   0.683
72489SOL    HW119364   7.463  10.623   0.760
72489SOL    HW219365   7.362  10.716   0.696
72490SOL     OW19366  11.889   3.122   3.085
72490SOL    HW119367  11.965   3.108   3.028
72490SOL    HW219368  11.916   3.090   3.170
72491SOL     OW19369  13.485   0.784   3.285
72491SOL    HW119370  13.497   0.708   3.229
72491SOL    HW219371  13.540   0.766   3.362
72492SOL     OW19372   5.789   5.803   7.597
72492SOL    HW119373   5.813   5.895   7.588
72492SOL    HW219374   5.766   5.776   7.508
72493SOL     OW19375   8.446   9.850   5.848
72493SOL    HW119376   8.450   9.778   5.785
72493SOL    HW219377   8.452   9.807   5.933
72494SOL     OW19378   8.384  10.739   0.438
72494SOL    HW119379   8.465  10.789   0.450
72494SOL    HW219380   8.340  10.783   0.365
72495SOL     OW19381   1.265   5.170   3.583
72495SOL    HW119382   1.319   5.120   3.645
72495SOL    HW219383   1.205   5.220   3.638
72496SOL     OW19384   8.216   5.619   6.632
72496SOL    HW119385   8.180   5.615   6.544
72496SOL    HW219386   8.141   5.637   6.688
72497SOL     OW19387   3.191   3.631   8.244
72497SOL    HW119388   3.157   3.645   8.156
72497SOL    HW219389   3.167   3.541   8.266
72498SOL     OW19390  11.065   8.904   1.894
72498SOL    HW119391  11.079   8.830   1.834
72498SOL    HW219392  11.149   8.949   1.897
72499SOL     OW19393   8.336  12.864  14.526
72499SOL    HW119394   8.252  12.882  14.568
72499SOL    HW219395   8.400  12.914  14.576
72500SOL     OW19396   0.794  12.823   8.090
72500SOL    HW119397   0.817  12.752   8.150
72500SOL    HW219398   0.706  12.850   8.118
72501SOL     OW19399   4.555  13.006  13.328
72501SOL    HW119400   4.568  12.980  13.419
72501SOL    HW219401   4.635  13.054  13.306
72502SOL     OW19402   9.680   9.066   6.955
72502SOL    HW119403   9.589   9.086   6.978
72502SOL    HW219404   9.727   9.148   6.968
72503SOL     OW19405   2.704   6.519  12.460
72503SOL    HW119406   2.754   6.470  12.395
72503SOL    HW219407   2.742   6.607  12.458
72504SOL     OW19408   6.522   9.809   3.039
72504SOL    HW119409   6.486   9.839   2.955
72504SOL    HW219410   6.522   9.886   3.095
72505SOL     OW19411   1.053   0.870   5.935
72505SOL    HW119412   1.109   0.928   5.884
72505SOL    HW219413   0.969   0.870   5.889
72506SOL     OW19414   3.384   2.359   6.893
72506SOL    HW119415   3.338   2.426   6.842
72506SOL    HW219416   3.462   2.339   6.842
72507SOL     OW19417   6.149   9.892   7.902
72507SOL    HW119418   6.115   9.830   7.966
72507SOL    HW219419   6.228   9.928   7.942
72508SOL     OW19420   4.402  10.649   7.849
72508SOL    HW119421   4.336  10.626   7.783
72508SOL    HW219422   4.442  10.729   7.815
72509SOL     OW19423  12.874  10.672  10.674
72509SOL    HW119424  12.858  10.700  10.584
72509SOL    HW219425  12.891  10.578  10.668
72510SOL     OW19426  11.486  13.371  14.495
72510SOL    HW119427  11.478  13.292  14.442
72510SOL    HW219428  11.541  13.429  14.443
72511SOL     OW19429   7.030   1.396   1.361
72511SOL    HW119430   7.102   1.395   1.298
72511SOL    HW219431   7.059   1.454   1.431
72512SOL     OW19432  10.954   0.494   4.365
72512SOL    HW119433  10.943   0.433   4.292
72512SOL    HW219434  10.954   0.581   4.324
72513SOL     OW19435   5.205   7.295  14.595
72513SOL    HW119436   5.290   7.273  14.557
72513SOL    HW219437   5.144   7.232  14.556
72514SOL     OW19438  10.341   5.530  13.830
72514SOL    HW119439  10.424   5.570  13.856
72514SOL    HW219440  10.314   5.479  13.906
72515SOL     OW19441  10.705  13.208   3.904
72515SOL    HW119442  10.611  13.190   3.913
72515SOL    HW219443  10.710  13.302   3.889
72516SOL     OW19444   9.136  11.916   6.209
72516SOL    HW119445   9.083  11.854   6.260
72516SOL    HW219446   9.144  11.993   6.265
72517SOL     OW19447   3.609  13.920   0.766
72517SOL    HW119448   3.674  13.852   0.751
72517SOL    HW219449   3.647  13.975   0.834
72518SOL     OW19450   4.961  10.634  10.773
72518SOL    HW119451   4.887  10.625  10.833
72518SOL    HW219452   5.029  10.577  10.809
72519SOL     OW19453   6.884   7.188   0.524
72519SOL    HW119454   6.793   7.216   0.520
72519SOL    HW219455   6.931   7.250   0.468
72520SOL     OW19456  14.857   2.285   8.403
72520SOL    HW119457  14.775   2.239   8.381
72520SOL    HW219458   0.051   2.241   8.350
72521SOL     OW19459   5.650   7.090   0.519
72521SOL    HW119460   5.727   7.035   0.531
72521SOL    HW219461   5.625   7.115   0.608
72522SOL     OW19462  11.012   6.741   1.910
72522SOL    HW119463  11.106   6.760   1.903
72522SOL    HW219464  10.971   6.827   1.921
72523SOL     OW19465  13.691  11.124   6.747
72523SOL    HW119466  13.662  11.161   6.664
72523SOL    HW219467  13.618  11.070   6.777
72524SOL     OW19468  13.916  12.602   0.266
72524SOL    HW119469  13.931  12.603   0.171
72524SOL    HW219470  13.847  12.538   0.278
72525SOL     OW19471   2.490   9.985   6.159
72525SOL    HW119472   2.476  10.075   6.189
72525SOL    HW219473   2.434   9.932   6.216
72526SOL     OW19474  13.618   0.490  12.114
72526SOL    HW119475  13.563   0.557  12.155
72526SOL    HW219476  13.611   0.508  12.020
72527SOL     OW19477   5.284   2.452   1.249
72527SOL    HW119478   5.302   2.422   1.160
72527SOL    HW219479   5.339   2.398   1.305
72528SOL     OW19480   8.472   2.033  11.917
72528SOL    HW119481   8.542   2.043  11.853
72528SOL    HW219482   8.514   1.991  11.992
72529SOL     OW19483  14.249  12.422   2.466
72529SOL    HW119484  14.278  12.511   2.447
72529SOL    HW219485  14.270  12.409   2.558
72530SOL     OW19486  13.753   8.237  11.478
72530SOL    HW119487  13.773   8.163  11.421
72530SOL    HW219488  13.788   8.313  11.432
72531SOL     OW19489  11.069   2.438  13.937
72531SOL    HW119490  11.015   2.458  13.861
72531SOL    HW219491  11.019   2.372  13.985
72532SOL     OW19492   2.825   3.260   4.884
72532SOL    HW119493   2.770   3.240   4.808
72532SOL    HW219494   2.870   3.341   4.861
72533SOL     OW19495   0.598   5.631   2.008
72533SOL    HW119496   0.551   5.672   2.080
72533SOL    HW219497   0.684   5.609   2.045
72534SOL     OW19498   7.967   9.248   2.376
72534SOL    HW119499   7.951   9.336   2.342
72534SOL    HW219500   8.017   9.204   2.307
72535SOL     OW19501   2.882   3.325   4.186
72535SOL    HW119502   2.849   3.405   4.145
72535SOL    HW219503   2.809   3.264   4.180
72536SOL     OW19504   2.293   1.399   5.658
72536SOL    HW119505   2.343   1.386   5.738
72536SOL    HW219506   2.304   1.492   5.637
72537SOL     OW19507   6.646   3.455   0.168
72537SOL    HW119508   6.557   3.471   0.198
72537SOL    HW219509   6.687   3.406   0.238
72538SOL     OW19510  13.543  11.392   4.253
72538SOL    HW119511  13.584  11.395   4.340
72538SOL    HW219512  13.598  11.447   4.198
72539SOL     OW19513  13.103  11.923  11.779
72539SOL    HW119514  13.111  11.924  11.874
72539SOL    HW219515  13.014  11.891  11.763
72540SOL     OW19516   5.339   2.641  13.031
72540SOL    HW119517   5.315   2.732  13.010
72540SOL    HW219518   5.412   2.650  13.093
72541SOL     OW19519   9.031   4.096   6.095
72541SOL    HW119520   8.975   4.019   6.107
72541SOL    HW219521   9.015   4.149   6.172
72542SOL     OW19522  13.877  10.965  13.213
72542SOL    HW119523  13.890  10.985  13.306
72542SOL    HW219524  13.889  11.049  13.169
72543SOL     OW19525   8.578   8.296   3.671
72543SOL    HW119526   8.585   8.254   3.586
72543SOL    HW219527   8.507   8.359   3.660
72544SOL     OW19528   6.961   1.650   0.377
72544SOL    HW119529   6.918   1.614   0.454
72544SOL    HW219530   7.003   1.574   0.335
72545SOL     OW19531   9.634  13.663  10.756
72545SOL    HW119532   9.555  13.613  10.776
72545SOL    HW219533   9.706  13.604  10.778
72546SOL     OW19534   4.320   8.292   1.146
72546SOL    HW119535   4.345   8.338   1.065
72546SOL    HW219536   4.397   8.240   1.169
72547SOL     OW19537  13.404   5.615  14.843
72547SOL    HW119538  13.471   5.547  14.833
72547SOL    HW219539  13.331   5.585  14.790
72548SOL     OW19540   9.676   3.310   4.541
72548SOL    HW119541   9.724   3.303   4.459
72548SOL    HW219542   9.717   3.383   4.587
72549SOL     OW19543  14.032   1.469   1.615
72549SOL    HW119544  13.938   1.455   1.611
72549SOL    HW219545  14.066   1.423   1.538
72550SOL     OW19546   4.316   4.101  10.020
72550SOL    HW119547   4.269   4.109  10.103
72550SOL    HW219548   4.293   4.181   9.972
72551SOL     OW19549  14.542  13.304  13.335
72551SOL    HW119550  14.455  13.302  13.376
72551SOL    HW219551  14.600  13.339  13.403
72552SOL     OW19552   8.952   5.206  14.158
72552SOL    HW119553   8.947   5.127  14.211
72552SOL    HW219554   8.862   5.238  14.154
72553SOL     OW19555  13.665   9.805   3.772
72553SOL    HW119556  13.689   9.825   3.863
72553SOL    HW219557  13.749   9.801   3.726
72554SOL     OW19558   3.790  10.282   2.094
72554SOL    HW119559   3.733  10.214   2.130
72554SOL    HW219560   3.820  10.246   2.010
72555SOL     OW19561   6.571   3.172   4.851
72555SOL    HW119562   6.517   3.130   4.919
72555SOL    HW219563   6.522   3.161   4.770
72556SOL     OW19564   3.204  14.162   9.835
72556SOL    HW119565   3.230  14.243   9.878
72556SOL    HW219566   3.286  14.126   9.800
72557SOL     OW19567  14.145   3.899   9.265
72557SOL    HW119568  14.232   3.918   9.231
72557SOL    HW219569  14.106   3.842   9.200
72558SOL     OW19570  14.391  13.887  11.177
72558SOL    HW119571  14.387  13.874  11.272
72558SOL    HW219572  14.485  13.890  11.157
72559SOL     OW19573   7.713   4.750  11.593
72559SOL    HW119574   7.775   4.683  11.622
72559SOL    HW219575   7.719   4.818  11.660
72560SOL     OW19576  11.726  12.983   8.624
72560SOL    HW119577  11.724  13.078   8.610
72560SOL    HW219578  11.683  12.970   8.708
72561SOL     OW19579  10.323   8.989   9.309
72561SOL    HW119580  10.394   8.927   9.324
72561SOL    HW219581  10.250   8.956   9.361
72562SOL     OW19582  12.038   0.525   2.197
72562SOL    HW119583  11.992   0.543   2.279
72562SOL    HW219584  12.078   0.608   2.173
72563SOL     OW19585  12.955   1.710   8.416
72563SOL    HW119586  13.000   1.626   8.416
72563SOL    HW219587  13.016   1.770   8.460
72564SOL     OW19588  10.540   4.867   2.427
72564SOL    HW119589  10.581   4.877   2.341
72564SOL    HW219590  10.479   4.941   2.433
72565SOL     OW19591   6.456   2.270  13.719
72565SOL    HW119592   6.375   2.221  13.704
72565SOL    HW219593   6.519   2.232  13.658
72566SOL     OW19594   2.932   8.686   6.991
72566SOL    HW119595   2.903   8.647   6.908
72566SOL    HW219596   3.026   8.671   6.993
72567SOL     OW19597  12.600   3.457  13.629
72567SOL    HW119598  12.624   3.381  13.575
72567SOL    HW219599  12.667   3.459  13.697
72568SOL     OW19600   9.618  11.512   7.800
72568SOL    HW119601   9.539  11.457   7.806
72568SOL    HW219602   9.620  11.541   7.709
72569SOL     OW19603   4.002   4.598   5.768
72569SOL    HW119604   3.963   4.545   5.699
72569SOL    HW219605   3.927   4.632   5.818
72570SOL     OW19606   2.395   6.050   1.677
72570SOL    HW119607   2.306   6.015   1.681
72570SOL    HW219608   2.410   6.065   1.583
72571SOL     OW19609   7.058   3.284  10.101
72571SOL    HW119610   6.972   3.310  10.134
72571SOL    HW219611   7.059   3.189  10.106
72572SOL     OW19612   9.178   5.027   8.613
72572SOL    HW119613   9.199   4.974   8.536
72572SOL    HW219614   9.263   5.061   8.642
72573SOL     OW19615  13.061   9.165  11.348
72573SOL    HW119616  12.983   9.150  11.295
72573SOL    HW219617  13.054   9.101  11.419
72574SOL     OW19618  11.879   7.982   6.651
72574SOL    HW119619  11.857   7.906   6.596
72574SOL    HW219620  11.972   7.971   6.671
72575SOL     OW19621  14.227  14.436  14.066
72575SOL    HW119622  14.147  14.445  14.119
72575SOL    HW219623  14.197  14.394  13.986
72576SOL     OW19624   6.315   9.667   6.002
72576SOL    HW119625   6.227   9.635   6.017
72576SOL    HW219626   6.333   9.647   5.910
72577SOL     OW19627   9.108   4.457  10.836
72577SOL    HW119628   9.036   4.444  10.897
72577SOL    HW219629   9.066   4.456  10.749
72578SOL     OW19630   6.031   4.012  12.274
72578SOL    HW119631   6.116   4.032  12.313
72578SOL    HW219632   6.004   4.094  12.233
72579SOL     OW19633   4.235   1.749  13.948
72579SOL    HW119634   4.294   1.674  13.938
72579SOL    HW219635   4.286   1.824  13.917
72580SOL     OW19636  11.424   2.480  10.326
72580SOL    HW119637  11.427   2.419  10.252
72580SOL    HW219638  11.332   2.506  10.331
72581SOL     OW19639   4.794   1.115   0.478
72581SOL    HW119640   4.817   1.207   0.468
72581SOL    HW219641   4.781   1.104   0.572
72582SOL     OW19642   6.217   0.318   6.211
72582SOL    HW119643   6.220   0.339   6.117
72582SOL    HW219644   6.308   0.301   6.234
72583SOL     OW19645  14.468   7.151   7.255
72583SOL    HW119646  14.469   7.094   7.178
72583SOL    HW219647  14.477   7.090   7.329
72584SOL     OW19648   1.316  13.726  11.477
72584SOL    HW119649   1.232  13.684  11.459
72584SOL    HW219650   1.330  13.784  11.401
72585SOL     OW19651  11.978  11.606   2.977
72585SOL    HW119652  11.960  11.540   3.043
72585SOL    HW219653  11.939  11.572   2.897
72586SOL     OW19654   6.691   9.200  13.129
72586SOL    HW119655   6.666   9.286  13.094
72586SOL    HW219656   6.712   9.217  13.221
72587SOL     OW19657  14.212   3.112   3.560
72587SOL    HW119658  14.257   3.034   3.527
72587SOL    HW219659  14.219   3.175   3.488
72588SOL     OW19660   8.211   3.190   5.092
72588SOL    HW119661   8.267   3.236   5.029
72588SOL    HW219662   8.145   3.148   5.038
72589SOL     OW19663   4.918   1.352   5.820
72589SOL    HW119664   4.857   1.358   5.746
72589SOL    HW219665   4.968   1.434   5.816
72590SOL     OW19666   7.701   0.590   8.430
72590SOL    HW119667   7.665   0.502   8.442
72590SOL    HW219668   7.657   0.624   8.352
72591SOL     OW19669  10.977  10.702  13.768
72591SOL    HW119670  10.998  10.792  13.792
72591SOL    HW219671  11.032  10.684  13.692
72592SOL     OW19672  12.106  13.870   9.616
72592SOL    HW119673  12.048  13.936   9.578
72592SOL    HW219674  12.103  13.797   9.554
72593SOL     OW19675  11.647   4.781  14.079
72593SOL    HW119676  11.703   4.730  14.138
72593SOL    HW219677  11.644   4.729  13.999
72594SOL     OW19678   5.300  14.699   2.294
72594SOL    HW119679   5.348  14.618   2.278
72594SOL    HW219680   5.208  14.671   2.299
72595SOL     OW19681   9.123   3.947  14.201
72595SOL    HW119682   9.144   3.920  14.112
72595SOL    HW219683   9.070   4.026  14.191
72596SOL     OW19684  10.361   2.661   0.967
72596SOL    HW119685  10.411   2.590   0.927
72596SOL    HW219686  10.345   2.722   0.895
72597SOL     OW19687   4.631   9.187  10.739
72597SOL    HW119688   4.662   9.238  10.664
72597SOL    HW219689   4.655   9.097  10.718
72598SOL     OW19690   6.133   5.155   2.677
72598SOL    HW119691   6.062   5.095   2.653
72598SOL    HW219692   6.212   5.101   2.676
72599SOL     OW19693   3.801   5.687  11.923
72599SOL    HW119694   3.802   5.719  11.833
72599SOL    HW219695   3.882   5.637  11.932
72600SOL     OW19696   6.741   2.454   5.154
72600SOL    HW119697   6.744   2.454   5.059
72600SOL    HW219698   6.649   2.441   5.176
72601SOL     OW19699  11.460   0.282   3.007
72601SOL    HW119700  11.468   0.186   3.003
72601SOL    HW219701  11.366   0.298   3.015
72602SOL     OW19702   7.892   9.176   3.216
72602SOL    HW119703   7.832   9.161   3.289
72602SOL    HW219704   7.922   9.266   3.227
72603SOL     OW19705  14.004   7.198   5.277
72603SOL    HW119706  13.994   7.250   5.197
72603SOL    HW219707  13.958   7.117   5.258
72604SOL     OW19708   5.133   2.496   7.908
72604SOL    HW119709   5.102   2.584   7.890
72604SOL    HW219710   5.097   2.443   7.836
72605SOL     OW19711  13.362   1.749  14.360
72605SOL    HW119712  13.350   1.843  14.349
72605SOL    HW219713  13.457   1.738  14.369
72606SOL     OW19714   5.293   2.646   1.449
72606SOL    HW119715   5.201   2.658   1.470
72606SOL    HW219716   5.293   2.585   1.375
72607SOL     OW19717   2.100   9.742   7.583
72607SOL    HW119718   2.066   9.756   7.672
72607SOL    HW219719   2.139   9.655   7.585
72608SOL     OW19720   2.336  14.353   0.505
72608SOL    HW119721   2.276  14.288   0.470
72608SOL    HW219722   2.393  14.303   0.564
72609SOL     OW19723  14.482   6.601  13.182
72609SOL    HW119724  14.495   6.513  13.146
72609SOL    HW219725  14.558   6.651  13.152
72610SOL     OW19726  12.156  13.903   8.116
72610SOL    HW119727  12.132  13.923   8.025
72610SOL    HW219728  12.244  13.939   8.126
72611SOL     OW19729   0.253   5.434  14.022
72611SOL    HW119730   0.289   5.519  14.048
72611SOL    HW219731   0.273   5.377  14.096
72612SOL     OW19732  10.260   9.217   4.019
72612SOL    HW119733  10.247   9.268   3.940
72612SOL    HW219734  10.316   9.144   3.992
72613SOL     OW19735  11.331   7.010  10.571
72613SOL    HW119736  11.282   6.929  10.587
72613SOL    HW219737  11.317   7.062  10.650
72614SOL     OW19738   4.078  13.391  10.061
72614SOL    HW119739   4.008  13.424  10.117
72614SOL    HW219740   4.158  13.425  10.100
72615SOL     OW19741   2.189   7.960  10.507
72615SOL    HW119742   2.108   7.917  10.479
72615SOL    HW219743   2.195   8.037  10.451
72616SOL     OW19744   8.650   0.878   6.975
72616SOL    HW119745   8.707   0.855   7.048
72616SOL    HW219746   8.597   0.951   7.007
72617SOL     OW19747  14.068   5.422   9.153
72617SOL    HW119748  14.122   5.348   9.125
72617SOL    HW219749  14.064   5.479   9.077
72618SOL     OW19750  12.233   0.009   0.492
72618SOL    HW119751  12.152  14.831   0.494
72618SOL    HW219752  12.299  14.820   0.461
72619SOL     OW19753  10.168  13.803  13.187
72619SOL    HW119754  10.101  13.865  13.158
72619SOL    HW219755  10.241  13.857  13.216
72620SOL     OW19756  11.309   4.952   0.201
72620SOL    HW119757  11.379   4.909   0.250
72620SOL    HW219758  11.345   4.965   0.114
72621SOL     OW19759   4.166  14.366  10.634
72621SOL    HW119760   4.240  14.305  10.633
72621SOL    HW219761   4.108  14.335  10.564
72622SOL     OW19762   4.259   9.528   6.428
72622SOL    HW119763   4.347   9.530   6.391
72622SOL    HW219764   4.235   9.435   6.429
72623SOL     OW19765  11.157  12.922   3.081
72623SOL    HW119766  11.134  13.014   3.072
72623SOL    HW219767  11.118  12.879   3.005
72624SOL     OW19768   2.790   4.717  13.874
72624SOL    HW119769   2.740   4.782  13.825
72624SOL    HW219770   2.869   4.702  13.822
72625SOL     OW19771  12.227  12.438  10.615
72625SOL    HW119772  12.270  12.356  10.638
72625SOL    HW219773  12.220  12.486  10.698
72626SOL     OW19774   4.859   0.697  11.325
72626SOL    HW119775   4.767   0.722  11.337
72626SOL    HW219776   4.884   0.736  11.242
72627SOL     OW19777   5.427   3.261   9.470
72627SOL    HW119778   5.428   3.258   9.374
72627SOL    HW219779   5.462   3.177   9.497
72628SOL     OW19780  10.828   9.444   7.093
72628SOL    HW119781  10.734   9.457   7.105
72628SOL    HW219782  10.836   9.363   7.043
72629SOL     OW19783   7.251  12.197   8.734
72629SOL    HW119784   7.273  12.137   8.663
72629SOL    HW219785   7.250  12.142   8.813
72630SOL     OW19786   2.713   7.380  13.331
72630SOL    HW119787   2.625   7.377  13.367
72630SOL    HW219788   2.760   7.443  13.386
72631SOL     OW19789   7.455   8.035   2.110
72631SOL    HW119790   7.528   8.095   2.094
72631SOL    HW219791   7.380   8.075   2.066
72632SOL     OW19792   8.473   6.252   1.249
72632SOL    HW119793   8.494   6.289   1.163
72632SOL    HW219794   8.437   6.166   1.230
72633SOL     OW19795   0.045   7.986   5.003
72633SOL    HW119796   0.084   7.948   4.925
72633SOL    HW219797   0.084   8.073   5.011
72634SOL     OW19798   4.634   2.812   3.605
72634SOL    HW119799   4.613   2.809   3.698
72634SOL    HW219800   4.548   2.813   3.561
72635SOL     OW19801  12.079   9.488   1.314
72635SOL    HW119802  12.029   9.479   1.395
72635SOL    HW219803  12.171   9.480   1.342
72636SOL     OW19804  13.312  13.956   3.965
72636SOL    HW119805  13.360  14.016   4.022
72636SOL    HW219806  13.235  13.931   4.016
72637SOL     OW19807  10.409  14.453   5.903
72637SOL    HW119808  10.313  14.450   5.901
72637SOL    HW219809  10.434  14.476   5.814
72638SOL     OW19810  14.113  11.409   7.027
72638SOL    HW119811  14.133  11.320   7.055
72638SOL    HW219812  14.027  11.402   6.986
72639SOL     OW19813  11.981   1.711   3.151
72639SOL    HW119814  12.000   1.631   3.101
72639SOL    HW219815  11.924   1.762   3.093
72640SOL     OW19816  14.359   5.026  12.559
72640SOL    HW119817  14.307   4.950  12.585
72640SOL    HW219818  14.337   5.040  12.467
72641SOL     OW19819  10.642   7.638  13.533
72641SOL    HW119820  10.731   7.668  13.511
72641SOL    HW219821  10.605   7.709  13.585
72642SOL     OW19822   7.429  11.680  12.122
72642SOL    HW119823   7.385  11.735  12.058
72642SOL    HW219824   7.522  11.694  12.105
72643SOL     OW19825   9.788   5.674   5.378
72643SOL    HW119826   9.830   5.599   5.420
72643SOL    HW219827   9.733   5.711   5.446
72644SOL     OW19828  10.757   8.762  12.447
72644SOL    HW119829  10.711   8.689  12.487
72644SOL    HW219830  10.823   8.722  12.391
72645SOL     OW19831   5.724   7.307   7.752
72645SOL    HW119832   5.699   7.368   7.821
72645SOL    HW219833   5.740   7.224   7.797
72646SOL     OW19834   9.821  14.304   0.644
72646SOL    HW119835   9.812  14.392   0.681
72646SOL    HW219836   9.822  14.318   0.550
72647SOL     OW19837   5.893   3.899   1.261
72647SOL    HW119838   5.870   3.945   1.181
72647SOL    HW219839   5.842   3.817   1.257
72648SOL     OW19840   0.710  11.792  10.330
72648SOL    HW119841   0.788  11.738  10.331
72648SOL    HW219842   0.732  11.866  10.273
72649SOL     OW19843   1.366   0.159  11.010
72649SOL    HW119844   1.301   0.197  10.951
72649SOL    HW219845   1.429   0.229  11.024
72650SOL     OW19846   1.323   6.016  14.463
72650SOL    HW119847   1.278   6.087  14.418
72650SOL    HW219848   1.406   6.055  14.493
72651SOL     OW19849   0.364   9.159  13.211
72651SOL    HW119850   0.416   9.127  13.137
72651SOL    HW219851   0.296   9.092  13.224
72652SOL     OW19852   5.558   9.596  14.661
72652SOL    HW119853   5.570   9.568  14.570
72652SOL    HW219854   5.643   9.581  14.702
72653SOL     OW19855   4.864   7.232   8.779
72653SOL    HW119856   4.780   7.223   8.824
72653SOL    HW219857   4.928   7.247   8.849
72654SOL     OW19858   1.573   4.388   7.785
72654SOL    HW119859   1.543   4.333   7.713
72654SOL    HW219860   1.665   4.364   7.798
72655SOL     OW19861  14.093   5.245   8.519
72655SOL    HW119862  14.068   5.301   8.593
72655SOL    HW219863  14.179   5.210   8.544
72656SOL     OW19864  10.884   2.957   1.094
72656SOL    HW119865  10.840   3.006   1.024
72656SOL    HW219866  10.967   2.930   1.055
72657SOL     OW19867   0.343  13.091  10.486
72657SOL    HW119868   0.282  13.024  10.456
72657SOL    HW219869   0.372  13.061  10.572
72658SOL     OW19870  10.061   7.944   2.597
72658SOL    HW119871  10.119   7.960   2.671
72658SOL    HW219872  10.008   8.023   2.591
72659SOL     OW19873   7.419   7.090   9.107
72659SOL    HW119874   7.389   7.114   9.195
72659SOL    HW219875   7.469   7.166   9.078
72660SOL     OW19876  11.396   0.349  11.906
72660SOL    HW119877  11.421   0.256  11.903
72660SOL    HW219878  11.329   0.353  11.975
72661SOL     OW19879   8.275   6.004  12.710
72661SOL    HW119880   8.289   5.930  12.651
72661SOL    HW219881   8.193   5.985  12.754
72662SOL     OW19882   5.249   2.631   9.686
72662SOL    HW119883   5.253   2.547   9.639
72662SOL    HW219884   5.227   2.695   9.618
72663SOL     OW19885   0.570   6.649   4.577
72663SOL    HW119886   0.626   6.573   4.564
72663SOL    HW219887   0.481   6.616   4.563
72664SOL     OW19888   8.747  11.017   3.125
72664SOL    HW119889   8.818  10.979   3.176
72664SOL    HW219890   8.706  11.080   3.184
72665SOL     OW19891  11.108   6.439   8.418
72665SOL    HW119892  11.155   6.416   8.338
72665SOL    HW219893  11.137   6.528   8.439
72666SOL     OW19894  14.219   4.479   7.489
72666SOL    HW119895  14.308   4.497   7.520
72666SOL    HW219896  14.168   4.468   7.569
72667SOL     OW19897   4.547   4.332   8.477
72667SOL    HW119898   4.458   4.346   8.507
72667SOL    HW219899   4.598   4.403   8.516
72668SOL     OW19900   1.552   6.121   8.006
72668SOL    HW119901   1.569   6.184   7.936
72668SOL    HW219902   1.611   6.148   8.077
72669SOL     OW19903  11.272   8.581  12.810
72669SOL    HW119904  11.327   8.634  12.753
72669SOL    HW219905  11.208   8.643  12.846
72670SOL     OW19906   4.510   6.801   6.737
72670SOL    HW119907   4.603   6.810   6.758
72670SOL    HW219908   4.464   6.838   6.813
72671SOL     OW19909   9.967  14.046   3.860
72671SOL    HW119910   9.951  14.058   3.766
72671SOL    HW219911   9.911  14.111   3.902
72672SOL     OW19912  10.749  12.284  12.228
72672SOL    HW119913  10.722  12.195  12.209
72672SOL    HW219914  10.798  12.277  12.311
72673SOL     OW19915  11.357   8.183  14.363
72673SOL    HW119916  11.279   8.189  14.418
72673SOL    HW219917  11.416   8.250  14.398
72674SOL     OW19918   2.183   5.787   0.150
72674SOL    HW119919   2.132   5.708   0.133
72674SOL    HW219920   2.118   5.854   0.169
72675SOL     OW19921   0.484   8.052   7.614
72675SOL    HW119922   0.441   8.102   7.684
72675SOL    HW219923   0.481   8.109   7.538
72676SOL     OW19924   9.136   7.267  10.669
72676SOL    HW119925   9.092   7.199  10.619
72676SOL    HW219926   9.073   7.292  10.737
72677SOL     OW19927   9.718   3.498   1.397
72677SOL    HW119928   9.674   3.583   1.400
72677SOL    HW219929   9.761   3.490   1.483
72678SOL     OW19930   0.008   5.280  11.955
72678SOL    HW119931  14.834   5.242  12.029
72678SOL    HW219932   0.093   5.305  11.990
72679SOL     OW19933   6.726  12.955  12.266
72679SOL    HW119934   6.813  12.914  12.263
72679SOL    HW219935   6.742  13.046  12.242
72680SOL     OW19936  11.428   8.921   4.407
72680SOL    HW119937  11.452   8.964   4.489
72680SOL    HW219938  11.510   8.881   4.377
72681SOL     OW19939   5.983   8.958   7.961
72681SOL    HW119940   6.078   8.967   7.953
72681SOL    HW219941   5.960   8.885   7.903
72682SOL     OW19942  10.746   1.230   4.025
72682SOL    HW119943  10.670   1.186   3.986
72682SOL    HW219944  10.811   1.232   3.955
72683SOL     OW19945  11.430  13.115   8.570
72683SOL    HW119946  11.516  13.145   8.601
72683SOL    HW219947  11.415  13.034   8.620
72684SOL     OW19948  13.998   1.126   0.844
72684SOL    HW119949  14.057   1.183   0.893
72684SOL    HW219950  13.921   1.181   0.826
72685SOL     OW19951   5.946   9.008   4.613
72685SOL    HW119952   5.999   8.966   4.545
72685SOL    HW219953   5.882   9.060   4.564
72686SOL     OW19954  10.535  10.672  10.269
72686SOL    HW119955  10.605  10.607  10.274
72686SOL    HW219956  10.496  10.672  10.357
72687SOL     OW19957  10.962   9.283  13.898
72687SOL    HW119958  10.887   9.245  13.853
72687SOL    HW219959  10.928   9.308  13.984
72688SOL     OW19960  11.799   6.057   2.251
72688SOL    HW119961  11.790   5.971   2.292
72688SOL    HW219962  11.854   6.041   2.174
72689SOL     OW19963  13.696   6.702   9.235
72689SOL    HW119964  13.634   6.678   9.166
72689SOL    HW219965  13.725   6.618   9.271
72690SOL     OW19966   9.081   7.530  14.020
72690SOL    HW119967   9.133   7.590  14.072
72690SOL    HW219968   9.056   7.460  14.080
72691SOL     OW19969   3.080   2.446  12.119
72691SOL    HW119970   3.057   2.507  12.049
72691SOL    HW219971   3.014   2.377  12.114
72692SOL     OW19972  10.860   0.271  10.206
72692SOL    HW119973  10.886   0.231  10.289
72692SOL    HW219974  10.898   0.215  10.139
72693SOL     OW19975   2.698  10.657   3.572
72693SOL    HW119976   2.775  10.692   3.617
72693SOL    HW219977   2.642  10.624   3.642
72694SOL     OW19978  14.282  10.984  10.381
72694SOL    HW119979  14.274  10.890  10.364
72694SOL    HW219980  14.193  11.011  10.403
72695SOL     OW19981  12.257   7.647   9.795
72695SOL    HW119982  12.171   7.690   9.800
72695SOL    HW219983  12.314   7.703   9.847
72696SOL     OW19984  14.560   3.206  10.174
72696SOL    HW119985  14.590   3.287  10.131
72696SOL    HW219986  14.600   3.136  10.122
72697SOL     OW19987   6.982   6.866  12.595
72697SOL    HW119988   6.939   6.930  12.538
72697SOL    HW219989   7.004   6.916  12.673
72698SOL     OW19990   1.590  14.023  14.251
72698SOL    HW119991   1.599  14.083  14.325
72698SOL    HW219992   1.512  14.053  14.204
72699SOL     OW19993   6.831  13.812   6.907
72699SOL    HW119994   6.844  13.891   6.854
72699SOL    HW219995   6.785  13.844   6.985
72700SOL     OW19996   6.437  13.451  11.913
72700SOL    HW119997   6.370  13.385  11.895
72700SOL    HW219998   6.443  13.454  12.008
72701SOL     OW19999  12.066   3.792   6.423
72701SOL    HW120000  12.066   3.756   6.334
72701SOL    HW220001  12.111   3.876   6.414
72702SOL     OW20002   7.601   6.866  11.724
72702SOL    HW120003   7.528   6.921  11.693
72702SOL    HW220004   7.654   6.850  11.646
72703SOL     OW20005  14.581   3.243  10.439
72703SOL    HW120006  14.667   3.223  10.475
72703SOL    HW220007  14.584   3.208  10.349
72704SOL     OW20008   9.589  14.667   6.809
72704SOL    HW120009   9.648  14.683   6.883
72704SOL    HW220010   9.648  14.649   6.735
72705SOL     OW20011   0.975   4.248  11.255
72705SOL    HW120012   0.900   4.279  11.203
72705SOL    HW220013   0.980   4.154  11.236
72706SOL     OW20014   1.808   0.007   7.610
72706SOL    HW120015   1.858   0.086   7.632
72706SOL    HW220016   1.815  14.871   7.515
72707SOL     OW20017   1.206  10.590   1.231
72707SOL    HW120018   1.180  10.585   1.139
72707SOL    HW220019   1.153  10.661   1.266
72708SOL     OW20020  12.833   6.016  14.848
72708SOL    HW120021  12.828   6.103   0.013
72708SOL    HW220022  12.797   5.958   0.044
72709SOL     OW20023   9.419   3.421   5.428
72709SOL    HW120024   9.483   3.468   5.481
72709SOL    HW220025   9.451   3.430   5.338
72710SOL     OW20026  10.063  12.321   5.869
72710SOL    HW120027  10.147  12.290   5.903
72710SOL    HW220028  10.087  12.393   5.810
72711SOL     OW20029  10.521   5.779   2.156
72711SOL    HW120030  10.536   5.871   2.176
72711SOL    HW220031  10.478   5.744   2.234
72712SOL     OW20032  12.556   6.258   3.664
72712SOL    HW120033  12.578   6.271   3.756
72712SOL    HW220034  12.582   6.340   3.621
72713SOL     OW20035   2.711  10.506  12.972
72713SOL    HW120036   2.805  10.498  12.990
72713SOL    HW220037   2.705  10.502  12.876
72714SOL     OW20038   8.830   4.128   2.258
72714SOL    HW120039   8.785   4.115   2.342
72714SOL    HW220040   8.821   4.221   2.240
72715SOL     OW20041   0.971   2.924   1.749
72715SOL    HW120042   0.934   2.995   1.697
72715SOL    HW220043   1.066   2.934   1.740
72716SOL     OW20044   8.593   4.441  14.627
72716SOL    HW120045   8.596   4.535  14.613
72716SOL    HW220046   8.657   4.425  14.697
72717SOL     OW20047   4.285   9.330   2.033
72717SOL    HW120048   4.343   9.348   1.958
72717SOL    HW220049   4.202   9.303   1.993
72718SOL     OW20050  13.570  12.240  12.792
72718SOL    HW120051  13.525  12.267  12.872
72718SOL    HW220052  13.528  12.290  12.722
72719SOL     OW20053   5.849   7.990   7.015
72719SOL    HW120054   5.842   7.900   6.985
72719SOL    HW220055   5.899   8.035   6.947
72720SOL     OW20056   3.208  10.258   7.269
72720SOL    HW120057   3.259  10.298   7.340
72720SOL    HW220058   3.137  10.212   7.314
72721SOL     OW20059   7.872   8.642   8.301
72721SOL    HW120060   7.783   8.677   8.293
72721SOL    HW220061   7.926   8.704   8.252
72722SOL     OW20062  10.519   2.093   8.945
72722SOL    HW120063  10.577   2.169   8.941
72722SOL    HW220064  10.444   2.119   8.891
72723SOL     OW20065   9.528   1.859   8.062
72723SOL    HW120066   9.560   1.772   8.037
72723SOL    HW220067   9.608   1.911   8.073
72724SOL     OW20068  11.756   1.147   6.968
72724SOL    HW120069  11.704   1.113   7.041
72724SOL    HW220070  11.827   1.085   6.958
72725SOL     OW20071   9.793  10.212  10.916
72725SOL    HW120072   9.716  10.187  10.966
72725SOL    HW220073   9.806  10.139  10.855
72726SOL     OW20074  12.829  14.552   1.909
72726SOL    HW120075  12.828  14.635   1.957
72726SOL    HW220076  12.844  14.485   1.976
72727SOL     OW20077   0.179  12.078   3.283
72727SOL    HW120078   0.246  12.104   3.346
72727SOL    HW220079   0.098  12.113   3.320
72728SOL     OW20080  12.399   1.949   8.771
72728SOL    HW120081  12.491   1.976   8.773
72728SOL    HW220082  12.354   2.011   8.829
72729SOL     OW20083  13.330   0.228   4.193
72729SOL    HW120084  13.259   0.288   4.170
72729SOL    HW220085  13.401   0.252   4.134
72730SOL     OW20086  11.702   6.306   8.188
72730SOL    HW120087  11.620   6.340   8.153
72730SOL    HW220088  11.676   6.235   8.246
72731SOL     OW20089   7.255  10.356   3.477
72731SOL    HW120090   7.273  10.275   3.525
72731SOL    HW220091   7.171  10.386   3.512
72732SOL     OW20092   8.224   2.272  14.461
72732SOL    HW120093   8.182   2.188  14.479
72732SOL    HW220094   8.224   2.318  14.545
72733SOL     OW20095   4.158   4.694  11.382
72733SOL    HW120096   4.162   4.686  11.477
72733SOL    HW220097   4.065   4.700  11.362
72734SOL     OW20098   2.401   6.240   9.148
72734SOL    HW120099   2.402   6.151   9.114
72734SOL    HW220100   2.487   6.251   9.189
72735SOL     OW20101   2.562  11.165  11.330
72735SOL    HW120102   2.549  11.092  11.390
72735SOL    HW220103   2.632  11.135  11.271
72736SOL     OW20104  13.352  12.060   0.072
72736SOL    HW120105  13.375  12.005  14.869
72736SOL    HW220106  13.400  12.022   0.145
72737SOL     OW20107   8.759  14.747   0.742
72737SOL    HW120108   8.741  14.772   0.652
72737SOL    HW220109   8.794  14.827   0.782
72738SOL     OW20110   9.257   4.662  13.662
72738SOL    HW120111   9.312   4.632  13.734
72738SOL    HW220112   9.227   4.582  13.620
72739SOL     OW20113   4.433  10.854   2.023
72739SOL    HW120114   4.476  10.924   2.073
72739SOL    HW220115   4.464  10.773   2.063
72740SOL     OW20116   2.012   7.461  10.225
72740SOL    HW120117   1.993   7.397  10.157
72740SOL    HW220118   2.107   7.455  10.238
72741SOL     OW20119   5.745   3.670   1.217
72741SOL    HW120120   5.811   3.618   1.172
72741SOL    HW220121   5.689   3.605   1.261
72742SOL     OW20122  10.368   7.485   0.093
72742SOL    HW120123  10.356   7.537   0.014
72742SOL    HW220124  10.340   7.543   0.164
72743SOL     OW20125  12.661   3.361   9.822
72743SOL    HW120126  12.585   3.405   9.861
72743SOL    HW220127  12.709   3.325   9.897
72744SOL     OW20128  14.329  10.273   4.928
72744SOL    HW120129  14.267  10.211   4.966
72744SOL    HW220130  14.415  10.240   4.953
72745SOL     OW20131   3.881  12.087   2.674
72745SOL    HW120132   3.814  12.077   2.741
72745SOL    HW220133   3.878  12.005   2.625
72746SOL     OW20134  13.364   2.715   0.871
72746SOL    HW120135  13.360   2.801   0.828
72746SOL    HW220136  13.277   2.678   0.857
72747SOL     OW20137   4.378   2.625   5.967
72747SOL    HW120138   4.340   2.707   6.000
72747SOL    HW220139   4.419   2.649   5.885
72748SOL     OW20140  12.099  14.352   4.518
72748SOL    HW120141  12.067  14.281   4.574
72748SOL    HW220142  12.044  14.427   4.543
72749SOL     OW20143   0.328   0.409   0.251
72749SOL    HW120144   0.257   0.347   0.236
72749SOL    HW220145   0.284   0.495   0.253
72750SOL     OW20146  13.442   1.887   9.801
72750SOL    HW120147  13.450   1.957   9.736
72750SOL    HW220148  13.530   1.879   9.839
72751SOL     OW20149   2.116   5.907   9.262
72751SOL    HW120150   2.194   5.897   9.207
72751SOL    HW220151   2.150   5.912   9.351
72752SOL     OW20152  13.555   5.904   0.766
72752SOL    HW120153  13.482   5.873   0.820
72752SOL    HW220154  13.593   5.976   0.817
72753SOL     OW20155   8.585   5.384   4.337
72753SOL    HW120156   8.592   5.411   4.246
72753SOL    HW220157   8.526   5.309   4.336
72754SOL     OW20158   1.165   6.713   0.488
72754SOL    HW120159   1.096   6.647   0.485
72754SOL    HW220160   1.183   6.725   0.581
72755SOL     OW20161  12.459   5.615  14.029
72755SOL    HW120162  12.428   5.705  14.030
72755SOL    HW220163  12.480   5.595  14.120
72756SOL     OW20164   1.905   6.957   7.722
72756SOL    HW120165   1.889   7.050   7.705
72756SOL    HW220166   1.945   6.954   7.809
72757SOL     OW20167   9.469   1.671   6.961
72757SOL    HW120168   9.483   1.690   7.054
72757SOL    HW220169   9.375   1.683   6.948
72758SOL     OW20170  11.297   8.399  12.559
72758SOL    HW120171  11.281   8.365  12.647
72758SOL    HW220172  11.216   8.444  12.535
72759SOL     OW20173   3.123   6.073   0.124
72759SOL    HW120174   3.068   6.100   0.198
72759SOL    HW220175   3.099   6.133   0.053
72760SOL     OW20176  11.156   7.405   7.201
72760SOL    HW120177  11.214   7.479   7.184
72760SOL    HW220178  11.112   7.427   7.283
72761SOL     OW20179  14.357   5.850  13.226
72761SOL    HW120180  14.339   5.761  13.256
72761SOL    HW220181  14.353   5.904  13.305
72762SOL     OW20182   9.521  13.193   0.654
72762SOL    HW120183   9.479  13.270   0.693
72762SOL    HW220184   9.567  13.152   0.727
72763SOL     OW20185   8.360  11.864  12.332
72763SOL    HW120186   8.312  11.871  12.415
72763SOL    HW220187   8.292  11.844  12.267
72764SOL     OW20188   4.529   3.244   2.239
72764SOL    HW120189   4.545   3.266   2.331
72764SOL    HW220190   4.567   3.157   2.228
72765SOL     OW20191   1.638   6.856   6.380
72765SOL    HW120192   1.670   6.945   6.371
72765SOL    HW220193   1.710   6.801   6.350
72766SOL     OW20194   9.499   0.715   2.357
72766SOL    HW120195   9.569   0.753   2.304
72766SOL    HW220196   9.542   0.688   2.439
72767SOL     OW20197   6.543   5.951  10.429
72767SOL    HW120198   6.586   6.026  10.387
72767SOL    HW220199   6.459   5.944  10.383
72768SOL     OW20200   4.349   1.098   0.423
72768SOL    HW120201   4.392   1.156   0.485
72768SOL    HW220202   4.396   1.111   0.341
72769SOL     OW20203   4.004  13.544  11.722
72769SOL    HW120204   4.090  13.510  11.699
72769SOL    HW220205   3.949  13.466  11.731
72770SOL     OW20206   5.772   4.404  11.841
72770SOL    HW120207   5.708   4.428  11.775
72770SOL    HW220208   5.784   4.483  11.893
72771SOL     OW20209  11.807  13.239   0.723
72771SOL    HW120210  11.804  13.242   0.627
72771SOL    HW220211  11.795  13.147   0.745
72772SOL     OW20212   2.874   6.157   2.215
72772SOL    HW120213   2.828   6.088   2.167
72772SOL    HW220214   2.893   6.224   2.149
72773SOL     OW20215   1.885  12.306   9.451
72773SOL    HW120216   1.874  12.213   9.428
72773SOL    HW220217   1.972  12.328   9.418
72774SOL     OW20218   4.540   4.534  13.037
72774SOL    HW120219   4.592   4.614  13.023
72774SOL    HW220220   4.494   4.522  12.954
72775SOL     OW20221   0.069   9.642   7.828
72775SOL    HW120222   0.007   9.711   7.805
72775SOL    HW220223   0.125   9.633   7.751
72776SOL     OW20224  14.780  11.153   4.170
72776SOL    HW120225  14.871  11.174   4.195
72776SOL    HW220226  14.727  11.203   4.232
72777SOL     OW20227   0.235  14.370   3.461
72777SOL    HW120228   0.286  14.373   3.380
72777SOL    HW220229   0.166  14.435   3.447
72778SOL     OW20230   3.671   9.137   7.490
72778SOL    HW120231   3.685   9.231   7.501
72778SOL    HW220232   3.750   9.097   7.527
72779SOL     OW20233   6.100   1.171   8.496
72779SOL    HW120234   6.073   1.263   8.498
72779SOL    HW220235   6.022   1.123   8.526
72780SOL     OW20236   9.355   1.915   6.539
72780SOL    HW120237   9.371   1.821   6.530
72780SOL    HW220238   9.442   1.954   6.530
72781SOL     OW20239  12.630  11.931   1.562
72781SOL    HW120240  12.668  11.912   1.647
72781SOL    HW220241  12.622  11.845   1.520
72782SOL     OW20242   8.203   9.721  11.518
72782SOL    HW120243   8.181   9.767  11.599
72782SOL    HW220244   8.119   9.707  11.475
72783SOL     OW20245  14.275   9.419  13.848
72783SOL    HW120246  14.362   9.399  13.814
72783SOL    HW220247  14.217   9.413  13.771
72784SOL     OW20248   9.132   3.367   6.919
72784SOL    HW120249   9.047   3.358   6.963
72784SOL    HW220250   9.110   3.368   6.826
72785SOL     OW20251   0.753  12.015   3.822
72785SOL    HW120252   0.791  12.046   3.740
72785SOL    HW220253   0.731  11.923   3.804
72786SOL     OW20254  10.732   0.330   2.540
72786SOL    HW120255  10.678   0.367   2.469
72786SOL    HW220256  10.822   0.348   2.513
72787SOL     OW20257   6.625   3.269   3.777
72787SOL    HW120258   6.655   3.336   3.715
72787SOL    HW220259   6.529   3.271   3.770
72788SOL     OW20260   4.681   5.832   7.591
72788SOL    HW120261   4.685   5.802   7.682
72788SOL    HW220262   4.592   5.866   7.581
72789SOL     OW20263   6.330  13.138   2.672
72789SOL    HW120264   6.285  13.054   2.673
72789SOL    HW220265   6.355  13.153   2.763
72790SOL     OW20266   0.607  14.834  11.467
72790SOL    HW120267   0.623  14.766  11.402
72790SOL    HW220268   0.689   0.010  11.472
72791SOL     OW20269  12.599   1.242   5.005
72791SOL    HW120270  12.584   1.318   5.061
72791SOL    HW220271  12.693   1.227   5.009
72792SOL     OW20272   4.354   0.995  10.281
72792SOL    HW120273   4.344   1.057  10.209
72792SOL    HW220274   4.446   0.969  10.279
72793SOL     OW20275  10.388  10.004  12.641
72793SOL    HW120276  10.342   9.953  12.709
72793SOL    HW220277  10.363   9.962  12.559
72794SOL     OW20278   2.457  10.661   7.182
72794SOL    HW120279   2.473  10.568   7.192
72794SOL    HW220280   2.519  10.703   7.243
72795SOL     OW20281   9.088  14.850  12.893
72795SOL    HW120282   9.094   0.006  12.801
72795SOL    HW220283   8.996  14.860  12.915
72796SOL     OW20284   7.371  10.018   5.243
72796SOL    HW120285   7.337  10.101   5.207
72796SOL    HW220286   7.319  10.003   5.321
72797SOL     OW20287  14.136  12.380   2.889
72797SOL    HW120288  14.100  12.431   2.961
72797SOL    HW220289  14.125  12.289   2.915
72798SOL     OW20290  13.603   2.076   8.388
72798SOL    HW120291  13.640   2.151   8.343
72798SOL    HW220292  13.628   2.001   8.334
72799SOL     OW20293   2.566   3.843   7.176
72799SOL    HW120294   2.540   3.900   7.104
72799SOL    HW220295   2.515   3.873   7.251
72800SOL     OW20296   8.628  13.101   4.161
72800SOL    HW120297   8.552  13.047   4.180
72800SOL    HW220298   8.698  13.038   4.141
72801SOL     OW20299   9.813   2.681  14.131
72801SOL    HW120300   9.779   2.619  14.195
72801SOL    HW220301   9.777   2.650  14.047
72802SOL     OW20302  13.447   7.960  14.667
72802SOL    HW120303  13.534   7.995  14.648
72802SOL    HW220304  13.435   7.889  14.603
72803SOL     OW20305  12.339  13.097   9.560
72803SOL    HW120306  12.327  13.192   9.567
72803SOL    HW220307  12.342  13.080   9.465
72804SOL     OW20308   8.516   2.735  13.510
72804SOL    HW120309   8.457   2.808  13.531
72804SOL    HW220310   8.537   2.696  13.595
72805SOL     OW20311   6.855   5.307   3.737
72805SOL    HW120312   6.783   5.318   3.799
72805SOL    HW220313   6.932   5.337   3.784
72806SOL     OW20314  12.104   4.375   3.026
72806SOL    HW120315  12.021   4.416   3.051
72806SOL    HW220316  12.088   4.340   2.939
72807SOL     OW20317  11.223   5.728  13.591
72807SOL    HW120318  11.296   5.728  13.529
72807SOL    HW220319  11.150   5.689  13.542
72808SOL     OW20320   2.045  12.736   5.114
72808SOL    HW120321   2.090  12.788   5.046
72808SOL    HW220322   1.982  12.797   5.153
72809SOL     OW20323   8.330  13.050   7.974
72809SOL    HW120324   8.357  13.089   7.891
72809SOL    HW220325   8.390  13.086   8.038
72810SOL     OW20326   6.818   1.970  11.214
72810SOL    HW120327   6.874   1.948  11.289
72810SOL    HW220328   6.795   1.885  11.176
72811SOL     OW20329  13.810   8.376   5.363
72811SOL    HW120330  13.786   8.400   5.273
72811SOL    HW220331  13.727   8.366   5.408
72812SOL     OW20332   3.157   9.135   6.717
72812SOL    HW120333   3.095   9.200   6.685
72812SOL    HW220334   3.241   9.180   6.719
72813SOL     OW20335   8.166   1.860   0.042
72813SOL    HW120336   8.198   1.939   0.085
72813SOL    HW220337   8.071   1.871   0.039
72814SOL     OW20338  11.773  12.706   2.617
72814SOL    HW120339  11.744  12.656   2.541
72814SOL    HW220340  11.789  12.794   2.583
72815SOL     OW20341  14.200   3.911  10.002
72815SOL    HW120342  14.188   4.003  10.027
72815SOL    HW220343  14.291   3.906   9.973
72816SOL     OW20344   8.112  13.517  12.002
72816SOL    HW120345   8.023  13.504  11.969
72816SOL    HW220346   8.102  13.579  12.074
72817SOL     OW20347   8.629  11.644  10.312
72817SOL    HW120348   8.592  11.675  10.394
72817SOL    HW220349   8.724  11.647  10.326
72818SOL     OW20350   6.524  13.786   0.027
72818SOL    HW120351   6.432  13.813   0.029
72818SOL    HW220352   6.538  13.759  14.808
72819SOL     OW20353  10.017  13.702  10.552
72819SOL    HW120354  10.057  13.704  10.465
72819SOL    HW220355   9.963  13.623  10.552
72820SOL     OW20356   0.908   1.660  14.700
72820SOL    HW120357   0.817   1.673  14.728
72820SOL    HW220358   0.931   1.573  14.732
72821SOL     OW20359  13.552   2.009   4.996
72821SOL    HW120360  13.574   2.018   5.089
72821SOL    HW220361  13.573   2.095   4.959
72822SOL     OW20362   8.510  11.814  10.164
72822SOL    HW120363   8.473  11.768  10.089
72822SOL    HW220364   8.570  11.750  10.203
72823SOL     OW20365   5.927   5.913   5.290
72823SOL    HW120366   5.930   5.922   5.195
72823SOL    HW220367   5.913   5.820   5.305
72824SOL     OW20368   8.852   3.982   5.758
72824SOL    HW120369   8.854   4.078   5.762
72824SOL    HW220370   8.943   3.958   5.740
72825SOL     OW20371  10.903   9.729  13.929
72825SOL    HW120372  10.892   9.822  13.949
72825SOL    HW220373  10.883   9.685  14.012
72826SOL     OW20374  14.801   9.003   9.707
72826SOL    HW120375  14.858   8.931   9.732
72826SOL    HW220376  14.757   8.973   9.628
72827SOL     OW20377  14.171   2.976   2.698
72827SOL    HW120378  14.096   3.031   2.722
72827SOL    HW220379  14.155   2.953   2.607
72828SOL     OW20380   4.219   3.125  12.181
72828SOL    HW120381   4.133   3.093  12.208
72828SOL    HW220382   4.249   3.178  12.255
72829SOL     OW20383   8.957  11.587   7.858
72829SOL    HW120384   8.929  11.639   7.933
72829SOL    HW220385   8.980  11.501   7.895
72830SOL     OW20386   6.384  10.386   7.546
72830SOL    HW120387   6.334  10.447   7.600
72830SOL    HW220388   6.445  10.346   7.608
72831SOL     OW20389   2.117  13.794   6.072
72831SOL    HW120390   2.076  13.775   6.156
72831SOL    HW220391   2.196  13.844   6.095
72832SOL     OW20392  10.290   5.673   5.868
72832SOL    HW120393  10.300   5.609   5.938
72832SOL    HW220394  10.220   5.638   5.813
72833SOL     OW20395   5.698  11.065   6.118
72833SOL    HW120396   5.680  10.989   6.174
72833SOL    HW220397   5.643  11.051   6.041
72834SOL     OW20398   3.708   1.331   9.344
72834SOL    HW120399   3.649   1.387   9.395
72834SOL    HW220400   3.664   1.320   9.259
72835SOL     OW20401   4.942  10.646   6.479
72835SOL    HW120402   4.966  10.575   6.419
72835SOL    HW220403   4.947  10.605   6.566
72836SOL     OW20404   0.638   4.756   1.777
72836SOL    HW120405   0.545   4.735   1.767
72836SOL    HW220406   0.672   4.757   1.688
72837SOL     OW20407   1.292   4.016   7.911
72837SOL    HW120408   1.238   3.965   7.972
72837SOL    HW220409   1.249   4.006   7.827
72838SOL     OW20410  14.150   1.858  10.668
72838SOL    HW120411  14.233   1.903  10.685
72838SOL    HW220412  14.086   1.908  10.719
72839SOL     OW20413   7.834   7.493   9.818
72839SOL    HW120414   7.853   7.552   9.891
72839SOL    HW220415   7.852   7.406   9.853
72840SOL     OW20416   2.884   1.920  11.893
72840SOL    HW120417   2.909   2.007  11.860
72840SOL    HW220418   2.956   1.895  11.950
72841SOL     OW20419   0.947  13.434   9.702
72841SOL    HW120420   0.901  13.351   9.691
72841SOL    HW220421   0.886  13.490   9.749
72842SOL     OW20422   7.951   0.973  10.847
72842SOL    HW120423   7.857   0.987  10.856
72842SOL    HW220424   7.990   1.038  10.906
72843SOL     OW20425  10.020   9.245   5.517
72843SOL    HW120426  10.056   9.334   5.519
72843SOL    HW220427   9.960   9.245   5.443
72844SOL     OW20428   1.675  14.284  10.745
72844SOL    HW120429   1.676  14.189  10.736
72844SOL    HW220430   1.584  14.307  10.759
72845SOL     OW20431   3.718  13.288   1.891
72845SOL    HW120432   3.761  13.289   1.806
72845SOL    HW220433   3.688  13.198   1.902
72846SOL     OW20434   1.699  10.994   1.623
72846SOL    HW120435   1.624  10.948   1.585
72846SOL    HW220436   1.775  10.955   1.581
72847SOL     OW20437  12.306   5.748  13.615
72847SOL    HW120438  12.218   5.719  13.640
72847SOL    HW220439  12.318   5.712  13.527
72848SOL     OW20440  10.735   0.695   7.538
72848SOL    HW120441  10.808   0.633   7.541
72848SOL    HW220442  10.679   0.664   7.468
72849SOL     OW20443   0.042   8.877   3.774
72849SOL    HW120444   0.112   8.921   3.821
72849SOL    HW220445  14.834   8.906   3.818
72850SOL     OW20446   5.793   3.785   9.634
72850SOL    HW120447   5.869   3.780   9.692
72850SOL    HW220448   5.820   3.844   9.563
72851SOL     OW20449   3.707   8.424   9.005
72851SOL    HW120450   3.703   8.371   9.085
72851SOL    HW220451   3.728   8.512   9.036
72852SOL     OW20452  11.988  11.667   1.107
72852SOL    HW120453  12.003  11.573   1.098
72852SOL    HW220454  12.040  11.693   1.183
72853SOL     OW20455   0.876   9.259   1.272
72853SOL    HW120456   0.906   9.317   1.202
72853SOL    HW220457   0.800   9.214   1.235
72854SOL     OW20458   8.616  14.857  12.716
72854SOL    HW120459   8.564   0.062  12.737
72854SOL    HW220460   8.590  14.834  12.627
72855SOL     OW20461   5.821   1.431   5.929
72855SOL    HW120462   5.878   1.486   5.982
72855SOL    HW220463   5.734   1.442   5.967
72856SOL     OW20464   2.180  12.131  11.982
72856SOL    HW120465   2.199  12.190  12.055
72856SOL    HW220466   2.084  12.126  11.980
72857SOL     OW20467   9.149   1.297   0.814
72857SOL    HW120468   9.162   1.392   0.816
72857SOL    HW220469   9.238   1.261   0.813
72858SOL     OW20470  11.867  12.692  11.245
72858SOL    HW120471  11.894  12.761  11.184
72858SOL    HW220472  11.930  12.622  11.230
72859SOL     OW20473   9.240   2.037  13.867
72859SOL    HW120474   9.236   1.969  13.935
72859SOL    HW220475   9.215   1.992  13.787
72860SOL     OW20476  10.784  10.566   7.983
72860SOL    HW120477  10.763  10.649   7.940
72860SOL    HW220478  10.739  10.500   7.930
72861SOL     OW20479   7.086   4.182   2.513
72861SOL    HW120480   7.027   4.182   2.588
72861SOL    HW220481   7.165   4.138   2.546
72862SOL     OW20482   4.396   0.875  12.544
72862SOL    HW120483   4.316   0.921  12.568
72862SOL    HW220484   4.398   0.880  12.448
72863SOL     OW20485  14.784   0.298  13.077
72863SOL    HW120486  14.742   0.267  12.997
72863SOL    HW220487   0.002   0.318  13.052
72864SOL     OW20488   6.364  13.271   5.084
72864SOL    HW120489   6.375  13.364   5.105
72864SOL    HW220490   6.429  13.227   5.138
72865SOL     OW20491   1.971   5.152  13.920
72865SOL    HW120492   1.916   5.076  13.901
72865SOL    HW220493   2.006   5.135  14.007
72866SOL     OW20494   5.331  14.409   4.480
72866SOL    HW120495   5.335  14.488   4.426
72866SOL    HW220496   5.366  14.340   4.425
72867SOL     OW20497   7.979   1.826  13.317
72867SOL    HW120498   7.953   1.813  13.409
72867SOL    HW220499   8.059   1.774  13.308
72868SOL     OW20500   1.344  14.700   8.607
72868SOL    HW120501   1.287  14.747   8.545
72868SOL    HW220502   1.288  14.633   8.645
72869SOL     OW20503  10.778   2.975  13.688
72869SOL    HW120504  10.829   3.018  13.757
72869SOL    HW220505  10.811   2.885  13.686
72870SOL     OW20506   7.106   7.569  11.115
72870SOL    HW120507   7.061   7.557  11.032
72870SOL    HW220508   7.035   7.576  11.180
72871SOL     OW20509   1.231   1.189  14.130
72871SOL    HW120510   1.280   1.264  14.097
72871SOL    HW220511   1.296   1.139  14.180
72872SOL     OW20512   1.259   9.824   4.923
72872SOL    HW120513   1.234   9.803   5.013
72872SOL    HW220514   1.181   9.805   4.871
72873SOL     OW20515  11.578   0.095   1.021
72873SOL    HW120516  11.618   0.180   1.002
72873SOL    HW220517  11.589   0.045   0.940
72874SOL     OW20518  12.841   6.354   5.525
72874SOL    HW120519  12.898   6.420   5.564
72874SOL    HW220520  12.858   6.275   5.576
72875SOL     OW20521   4.753   4.146   9.047
72875SOL    HW120522   4.698   4.208   8.999
72875SOL    HW220523   4.824   4.125   8.985
72876SOL     OW20524   2.294  12.353   3.386
72876SOL    HW120525   2.265  12.416   3.320
72876SOL    HW220526   2.316  12.407   3.463
72877SOL     OW20527   8.365  12.030   5.332
72877SOL    HW120528   8.394  12.047   5.422
72877SOL    HW220529   8.296  12.094   5.317
72878SOL     OW20530   8.266   9.610  12.922
72878SOL    HW120531   8.215   9.632  12.845
72878SOL    HW220532   8.265   9.689  12.976
72879SOL     OW20533  14.695   8.874  10.316
72879SOL    HW120534  14.685   8.811  10.387
72879SOL    HW220535  14.734   8.951  10.357
72880SOL     OW20536   6.799  13.861   3.853
72880SOL    HW120537   6.718  13.835   3.897
72880SOL    HW220538   6.847  13.779   3.840
72881SOL     OW20539  14.867  13.936   8.250
72881SOL    HW120540   0.073  13.984   8.225
72881SOL    HW220541   0.014  13.845   8.227
72882SOL     OW20542  10.730   6.037  10.016
72882SOL    HW120543  10.793   6.059  10.084
72882SOL    HW220544  10.783   6.000   9.945
72883SOL     OW20545   8.752   3.125  12.601
72883SOL    HW120546   8.730   3.089  12.515
72883SOL    HW220547   8.764   3.219  12.585
72884SOL     OW20548   5.857  13.614   6.337
72884SOL    HW120549   5.801  13.536   6.341
72884SOL    HW220550   5.903  13.614   6.420
72885SOL     OW20551  12.512  13.389  13.307
72885SOL    HW120552  12.526  13.325  13.377
72885SOL    HW220553  12.483  13.336  13.232
72886SOL     OW20554   5.395   8.307  12.799
72886SOL    HW120555   5.491   8.311  12.810
72886SOL    HW220556   5.379   8.220  12.763
72887SOL     OW20557   2.343   9.569   5.891
72887SOL    HW120558   2.359   9.550   5.983
72887SOL    HW220559   2.425   9.607   5.860
72888SOL     OW20560   3.064   2.900   6.411
72888SOL    HW120561   3.144   2.911   6.463
72888SOL    HW220562   3.058   2.806   6.396
72889SOL     OW20563  12.670  14.816  14.778
72889SOL    HW120564  12.692   0.029  14.815
72889SOL    HW220565  12.665  14.832  14.683
72890SOL     OW20566   6.571  10.137   6.521
72890SOL    HW120567   6.494  10.175   6.479
72890SOL    HW220568   6.641  10.201   6.505
72891SOL     OW20569   6.539  10.883   9.587
72891SOL    HW120570   6.581  10.961   9.622
72891SOL    HW220571   6.484  10.850   9.659
72892SOL     OW20572   2.345   1.171   3.133
72892SOL    HW120573   2.432   1.154   3.096
72892SOL    HW220574   2.358   1.163   3.228
72893SOL     OW20575   6.410  10.430  14.684
72893SOL    HW120576   6.422  10.335  14.687
72893SOL    HW220577   6.438  10.455  14.596
72894SOL     OW20578   1.006   7.076  11.605
72894SOL    HW120579   0.954   7.005  11.642
72894SOL    HW220580   0.958   7.102  11.526
72895SOL     OW20581   5.680  13.588  10.797
72895SOL    HW120582   5.639  13.674  10.800
72895SOL    HW220583   5.711  13.573  10.886
72896SOL     OW20584  13.385   4.208   8.526
72896SOL    HW120585  13.427   4.145   8.584
72896SOL    HW220586  13.298   4.223   8.564
72897SOL     OW20587  14.118   8.109   1.887
72897SOL    HW120588  14.183   8.071   1.828
72897SOL    HW220589  14.144   8.078   1.974
72898SOL     OW20590  12.787   1.937   5.518
72898SOL    HW120591  12.746   2.017   5.551
72898SOL    HW220592  12.841   1.966   5.444
72899SOL     OW20593  10.445   8.202  11.963
72899SOL    HW120594  10.539   8.192  11.949
72899SOL    HW220595  10.434   8.195  12.058
72900SOL     OW20596   5.011   1.055  14.585
72900SOL    HW120597   4.971   0.970  14.608
72900SOL    HW220598   5.050   1.041  14.499
72901SOL     OW20599  10.870  10.653   4.691
72901SOL    HW120600  10.818  10.712   4.746
72901SOL    HW220601  10.816  10.638   4.613
72902SOL     OW20602   1.813  12.548  11.301
72902SOL    HW120603   1.845  12.615  11.240
72902SOL    HW220604   1.721  12.537  11.279
72903SOL     OW20605   6.001   9.916  10.430
72903SOL    HW120606   6.023  10.002  10.395
72903SOL    HW220607   5.971   9.866  10.354
72904SOL     OW20608   2.059  13.649   8.876
72904SOL    HW120609   2.075  13.569   8.825
72904SOL    HW220610   1.975  13.632   8.921
72905SOL     OW20611   8.278   4.344  12.717
72905SOL    HW120612   8.302   4.422  12.766
72905SOL    HW220613   8.334   4.345  12.640
72906SOL     OW20614   9.033   2.517   3.393
72906SOL    HW120615   9.109   2.563   3.358
72906SOL    HW220616   9.001   2.464   3.320
72907SOL     OW20617  13.117   2.893   3.400
72907SOL    HW120618  13.069   2.853   3.327
72907SOL    HW220619  13.117   2.825   3.468
72908SOL     OW20620   4.839   7.619   9.092
72908SOL    HW120621   4.896   7.553   9.133
72908SOL    HW220622   4.897   7.693   9.076
72909SOL     OW20623   2.082   9.479   2.499
72909SOL    HW120624   2.021   9.405   2.498
72909SOL    HW220625   2.071   9.518   2.586
72910SOL     OW20626   6.811  14.682   7.755
72910SOL    HW120627   6.867  14.759   7.741
72910SOL    HW220628   6.729  14.704   7.712
72911SOL     OW20629   6.884   0.471  10.175
72911SOL    HW120630   6.853   0.550  10.218
72911SOL    HW220631   6.848   0.476  10.086
72912SOL     OW20632  12.085   7.519   4.925
72912SOL    HW120633  12.173   7.556   4.926
72912SOL    HW220634  12.072   7.490   4.835
72913SOL     OW20635   4.393   7.464   5.026
72913SOL    HW120636   4.346   7.547   5.017
72913SOL    HW220637   4.443   7.474   5.106
72914SOL     OW20638  13.304  11.178   1.623
72914SOL    HW120639  13.284  11.195   1.530
72914SOL    HW220640  13.387  11.222   1.637
72915SOL     OW20641   9.496  13.698   9.981
72915SOL    HW120642   9.416  13.750   9.975
72915SOL    HW220643   9.535  13.704   9.893
72916SOL     OW20644   7.145  13.659   4.126
72916SOL    HW120645   7.125  13.580   4.176
72916SOL    HW220646   7.155  13.728   4.192
72917SOL     OW20647   6.290  13.773   9.185
72917SOL    HW120648   6.210  13.732   9.153
72917SOL    HW220649   6.260  13.833   9.254
72918SOL     OW20650  11.325   8.721   0.094
72918SOL    HW120651  11.349   8.762   0.177
72918SOL    HW220652  11.283   8.790   0.043
72919SOL     OW20653   5.699   9.641   6.570
72919SOL    HW120654   5.766   9.666   6.634
72919SOL    HW220655   5.654   9.723   6.550
72920SOL     OW20656  13.300  12.103   1.992
72920SOL    HW120657  13.240  12.170   1.959
72920SOL    HW220658  13.337  12.141   2.072
72921SOL     OW20659  12.964   7.554   5.767
72921SOL    HW120660  12.892   7.502   5.731
72921SOL    HW220661  13.039   7.531   5.713
72922SOL     OW20662   3.682   4.291   2.045
72922SOL    HW120663   3.661   4.385   2.042
72922SOL    HW220664   3.619   4.251   1.986
72923SOL     OW20665   5.839   8.563   0.688
72923SOL    HW120666   5.879   8.482   0.717
72923SOL    HW220667   5.772   8.536   0.625
72924SOL     OW20668   6.157   4.006  10.763
72924SOL    HW120669   6.093   3.935  10.758
72924SOL    HW220670   6.179   4.026  10.672
72925SOL     OW20671   0.529  13.582   8.625
72925SOL    HW120672   0.554  13.599   8.534
72925SOL    HW220673   0.522  13.486   8.630
72926SOL     OW20674  10.533   0.584  14.209
72926SOL    HW120675  10.576   0.541  14.283
72926SOL    HW220676  10.562   0.675  14.214
72927SOL     OW20677   0.711  11.071   3.063
72927SOL    HW120678   0.688  10.998   3.120
72927SOL    HW220679   0.806  11.077   3.068
72928SOL     OW20680   5.541   8.518   9.832
72928SOL    HW120681   5.625   8.504   9.876
72928SOL    HW220682   5.533   8.445   9.771
72929SOL     OW20683   6.169   0.060   6.344
72929SOL    HW120684   6.091   0.114   6.331
72929SOL    HW220685   6.189   0.026   6.256
72930SOL     OW20686  14.235  13.050  11.968
72930SOL    HW120687  14.257  12.958  11.983
72930SOL    HW220688  14.224  13.056  11.873
72931SOL     OW20689   3.343  11.552  12.996
72931SOL    HW120690   3.363  11.498  13.073
72931SOL    HW220691   3.251  11.574  13.005
72932SOL     OW20692   2.554   8.949  13.157
72932SOL    HW120693   2.524   8.865  13.193
72932SOL    HW220694   2.485   9.011  13.180
72933SOL     OW20695   3.618   9.696   5.076
72933SOL    HW120696   3.567   9.632   5.125
72933SOL    HW220697   3.582   9.693   4.987
72934SOL     OW20698  11.943   6.470  10.906
72934SOL    HW120699  11.866   6.421  10.935
72934SOL    HW220700  11.983   6.502  10.987
72935SOL     OW20701   2.875  13.872  10.008
72935SOL    HW120702   2.822  13.925  10.068
72935SOL    HW220703   2.829  13.788  10.002
72936SOL     OW20704   7.738   4.831  11.991
72936SOL    HW120705   7.830   4.836  12.020
72936SOL    HW220706   7.706   4.750  12.031
72937SOL     OW20707   4.694  13.780  12.398
72937SOL    HW120708   4.672  13.867  12.433
72937SOL    HW220709   4.631  13.721  12.438
72938SOL     OW20710  14.299   8.164  13.261
72938SOL    HW120711  14.299   8.081  13.310
72938SOL    HW220712  14.233   8.217  13.304
72939SOL     OW20713   8.386  14.018  12.965
72939SOL    HW120714   8.410  14.056  12.880
72939SOL    HW220715   8.301  14.055  12.985
72940SOL     OW20716  11.592   1.358   6.115
72940SOL    HW120717  11.535   1.288   6.084
72940SOL    HW220718  11.661   1.313   6.165
72941SOL     OW20719   4.262  14.268   8.198
72941SOL    HW120720   4.343  14.276   8.249
72941SOL    HW220721   4.204  14.335   8.235
72942SOL     OW20722   7.878   5.696   5.373
72942SOL    HW120723   7.910   5.781   5.343
72942SOL    HW220724   7.930   5.632   5.324
72943SOL     OW20725   2.269   1.855   3.978
72943SOL    HW120726   2.279   1.789   3.909
72943SOL    HW220727   2.315   1.818   4.053
72944SOL     OW20728  13.209   1.628   8.468
72944SOL    HW120729  13.173   1.548   8.430
72944SOL    HW220730  13.189   1.621   8.561
72945SOL     OW20731   7.278   6.370   1.460
72945SOL    HW120732   7.238   6.388   1.375
72945SOL    HW220733   7.368   6.400   1.450
72946SOL     OW20734   0.206  13.480   7.056
72946SOL    HW120735   0.294  13.500   7.088
72946SOL    HW220736   0.204  13.518   6.968
72947SOL     OW20737  11.480  14.138   3.913
72947SOL    HW120738  11.423  14.175   3.980
72947SOL    HW220739  11.441  14.053   3.892
72948SOL     OW20740  14.613   9.638  11.132
72948SOL    HW120741  14.597   9.546  11.153
72948SOL    HW220742  14.537   9.684  11.167
72949SOL     OW20743   6.298   3.356   2.067
72949SOL    HW120744   6.270   3.446   2.052
72949SOL    HW220745   6.325   3.325   1.980
72950SOL     OW20746  13.910   9.595   4.279
72950SOL    HW120747  13.908   9.500   4.293
72950SOL    HW220748  13.966   9.606   4.202
72951SOL     OW20749   1.764   1.491   8.394
72951SOL    HW120750   1.790   1.576   8.359
72951SOL    HW220751   1.847   1.450   8.421
72952SOL     OW20752   5.755  10.298  12.214
72952SOL    HW120753   5.765  10.355  12.290
72952SOL    HW220754   5.671  10.254  12.229
72953SOL     OW20755   1.465   0.717   4.076
72953SOL    HW120756   1.520   0.795   4.084
72953SOL    HW220757   1.518   0.655   4.027
72954SOL     OW20758   5.202  12.472   3.024
72954SOL    HW120759   5.280  12.516   2.989
72954SOL    HW220760   5.128  12.524   2.991
72955SOL     OW20761   3.073   9.254   7.513
72955SOL    HW120762   3.055   9.180   7.570
72955SOL    HW220763   3.043   9.330   7.562
72956SOL     OW20764   7.972   2.253   2.011
72956SOL    HW120765   8.018   2.272   2.092
72956SOL    HW220766   7.900   2.195   2.038
72957SOL     OW20767  13.757  14.020   5.119
72957SOL    HW120768  13.677  14.061   5.152
72957SOL    HW220769  13.825  14.086   5.129
72958SOL     OW20770   3.149   0.353   1.754
72958SOL    HW120771   3.162   0.402   1.836
72958SOL    HW220772   3.171   0.263   1.777
72959SOL     OW20773   2.599  13.995   3.331
72959SOL    HW120774   2.689  13.969   3.348
72959SOL    HW220775   2.575  13.949   3.251
72960SOL     OW20776   6.711   1.819  14.324
72960SOL    HW120777   6.763   1.859  14.254
72960SOL    HW220778   6.682   1.893  14.378
72961SOL     OW20779   6.930   9.202  14.556
72961SOL    HW120780   7.005   9.261  14.544
72961SOL    HW220781   6.855   9.253  14.526
72962SOL     OW20782   6.189   5.131   0.676
72962SOL    HW120783   6.184   5.058   0.614
72962SOL    HW220784   6.248   5.100   0.745
72963SOL     OW20785   8.462   1.981  10.511
72963SOL    HW120786   8.491   2.010  10.598
72963SOL    HW220787   8.375   2.019  10.501
72964SOL     OW20788  13.549   0.967   2.539
72964SOL    HW120789  13.489   1.029   2.581
72964SOL    HW220790  13.604   0.935   2.610
72965SOL     OW20791  11.549   6.088   5.051
72965SOL    HW120792  11.589   6.001   5.048
72965SOL    HW220793  11.609   6.143   5.000
72966SOL     OW20794   1.369  12.777   7.931
72966SOL    HW120795   1.425  12.749   7.859
72966SOL    HW220796   1.429  12.786   8.005
72967SOL     OW20797   0.649  12.978  12.772
72967SOL    HW120798   0.710  12.914  12.810
72967SOL    HW220799   0.675  13.061  12.811
72968SOL     OW20800   1.397  10.255   1.246
72968SOL    HW120801   1.304  10.273   1.232
72968SOL    HW220802   1.435  10.341   1.265
72969SOL     OW20803   8.394   8.591  14.752
72969SOL    HW120804   8.312   8.575  14.798
72969SOL    HW220805   8.404   8.515  14.694
72970SOL     OW20806   0.343   4.518   8.537
72970SOL    HW120807   0.411   4.457   8.509
72970SOL    HW220808   0.367   4.601   8.495
72971SOL     OW20809   0.248  12.044   0.659
72971SOL    HW120810   0.255  12.041   0.755
72971SOL    HW220811   0.299  11.969   0.629
72972SOL     OW20812   3.619   4.555  11.605
72972SOL    HW120813   3.652   4.539  11.693
72972SOL    HW220814   3.637   4.648  11.589
72973SOL     OW20815   5.366  13.002   5.067
72973SOL    HW120816   5.413  13.076   5.028
72973SOL    HW220817   5.312  12.969   4.995
72974SOL     OW20818   1.408   1.878   3.355
72974SOL    HW120819   1.504   1.882   3.359
72974SOL    HW220820   1.379   1.911   3.440
72975SOL     OW20821   2.737   8.234   8.577
72975SOL    HW120822   2.666   8.187   8.534
72975SOL    HW220823   2.790   8.166   8.619
72976SOL     OW20824   5.082   9.608   9.281
72976SOL    HW120825   5.130   9.599   9.199
72976SOL    HW220826   4.994   9.637   9.255
72977SOL     OW20827  10.968  14.077  11.725
72977SOL    HW120828  11.038  14.104  11.784
72977SOL    HW220829  10.896  14.137  11.745
72978SOL     OW20830  13.084   5.586  14.662
72978SOL    HW120831  13.025   5.518  14.694
72978SOL    HW220832  13.042   5.668  14.686
72979SOL     OW20833   4.437  10.048   1.055
72979SOL    HW120834   4.397  10.036   0.970
72979SOL    HW220835   4.510   9.986   1.056
72980SOL     OW20836   0.873   7.539   2.036
72980SOL    HW120837   0.816   7.466   2.012
72980SOL    HW220838   0.916   7.510   2.116
72981SOL     OW20839   4.813  12.009   9.119
72981SOL    HW120840   4.851  12.042   9.200
72981SOL    HW220841   4.833  11.915   9.119
72982SOL     OW20842   6.100   6.395   2.341
72982SOL    HW120843   6.041   6.381   2.415
72982SOL    HW220844   6.138   6.482   2.358
72983SOL     OW20845  14.230   0.214   3.036
72983SOL    HW120846  14.191   0.225   2.949
72983SOL    HW220847  14.283   0.135   3.028
72984SOL     OW20848   7.849   1.291  12.790
72984SOL    HW120849   7.785   1.270  12.722
72984SOL    HW220850   7.814   1.369  12.833
72985SOL     OW20851  11.397   9.599   1.522
72985SOL    HW120852  11.363   9.521   1.566
72985SOL    HW220853  11.481   9.615   1.564
72986SOL     OW20854  10.703   5.709  12.923
72986SOL    HW120855  10.669   5.702  12.834
72986SOL    HW220856  10.649   5.777  12.964
72987SOL     OW20857   7.377  13.581   3.980
72987SOL    HW120858   7.302  13.602   4.034
72987SOL    HW220859   7.388  13.657   3.923
72988SOL     OW20860   0.453   3.601  11.249
72988SOL    HW120861   0.518   3.653  11.296
72988SOL    HW220862   0.428   3.532  11.310
72989SOL     OW20863   8.567   8.648   8.924
72989SOL    HW120864   8.591   8.622   9.013
72989SOL    HW220865   8.488   8.701   8.935
72990SOL     OW20866  12.862  14.703  12.348
72990SOL    HW120867  12.871  14.788  12.391
72990SOL    HW220868  12.941  14.655  12.373
72991SOL     OW20869   2.309  14.488   4.503
72991SOL    HW120870   2.282  14.459   4.590
72991SOL    HW220871   2.341  14.408   4.460
72992SOL     OW20872   5.304   3.262   1.365
72992SOL    HW120873   5.369   3.223   1.306
72992SOL    HW220874   5.220   3.250   1.319
72993SOL     OW20875   5.895   4.037  14.087
72993SOL    HW120876   5.898   4.006  14.177
72993SOL    HW220877   5.838   4.113  14.089
72994SOL     OW20878  12.864  12.569  12.830
72994SOL    HW120879  12.849  12.653  12.875
72994SOL    HW220880  12.800  12.510  12.870
72995SOL     OW20881   4.474   6.340   1.084
72995SOL    HW120882   4.480   6.379   0.997
72995SOL    HW220883   4.503   6.409   1.144
72996SOL     OW20884   3.272   3.008   9.663
72996SOL    HW120885   3.354   2.959   9.658
72996SOL    HW220886   3.279   3.056   9.745
72997SOL     OW20887   6.076  12.600  10.340
72997SOL    HW120888   6.010  12.650  10.291
72997SOL    HW220889   6.143  12.665  10.361
72998SOL     OW20890   4.388  11.618   1.054
72998SOL    HW120891   4.371  11.709   1.031
72998SOL    HW220892   4.310  11.590   1.101
72999SOL     OW20893   3.068   8.548   9.452
72999SOL    HW120894   2.983   8.591   9.465
72999SOL    HW220895   3.099   8.529   9.541
73000SOL     OW20896   7.196   9.619  14.797
73000SOL    HW120897   7.262   9.569  14.846
73000SOL    HW220898   7.241   9.700  14.772
73001SOL     OW20899   4.281   5.140   4.392
73001SOL    HW120900   4.212   5.168   4.453
73001SOL    HW220901   4.326   5.069   4.438
73002SOL     OW20902  10.606  14.421  13.502
73002SOL    HW120903  10.698  14.399  13.518
73002SOL    HW220904  10.609  14.505  13.455
73003SOL     OW20905  12.450   1.141   4.081
73003SOL    HW120906  12.422   1.068   4.137
73003SOL    HW220907  12.533   1.169   4.119
73004SOL     OW20908  11.398   3.864   6.481
73004SOL    HW120909  11.438   3.777   6.479
73004SOL    HW220910  11.305   3.847   6.498
73005SOL     OW20911   5.794  11.120   2.259
73005SOL    HW120912   5.811  11.211   2.282
73005SOL    HW220913   5.880  11.078   2.260
73006SOL     OW20914  11.759   7.004   1.560
73006SOL    HW120915  11.805   6.925   1.589
73006SOL    HW220916  11.826   7.055   1.514
73007SOL     OW20917  14.840   1.071  12.605
73007SOL    HW120918  14.858   1.033  12.690
73007SOL    HW220919  14.771   1.136  12.621
73008SOL     OW20920   8.427   4.251   4.532
73008SOL    HW120921   8.387   4.321   4.480
73008SOL    HW220922   8.489   4.296   4.589
73009SOL     OW20923   3.390  12.710  11.874
73009SOL    HW120924   3.386  12.798  11.912
73009SOL    HW220925   3.311  12.667  11.906
73010SOL     OW20926   4.606  14.476   4.117
73010SOL    HW120927   4.622  14.539   4.187
73010SOL    HW220928   4.549  14.522   4.055
73011SOL     OW20929   2.484  14.818  13.211
73011SOL    HW120930   2.458  14.869  13.288
73011SOL    HW220931   2.578  14.835  13.201
73012SOL     OW20932  12.980   5.600   2.349
73012SOL    HW120933  13.038   5.653   2.403
73012SOL    HW220934  13.033   5.526   2.321
73013SOL     OW20935   1.476   6.797   9.393
73013SOL    HW120936   1.491   6.891   9.380
73013SOL    HW220937   1.404   6.776   9.333
73014SOL     OW20938  13.006  13.341  11.738
73014SOL    HW120939  13.044  13.344  11.650
73014SOL    HW220940  13.021  13.429  11.773
73015SOL     OW20941  14.401  11.558   8.742
73015SOL    HW120942  14.327  11.608   8.775
73015SOL    HW220943  14.372  11.466   8.744
73016SOL     OW20944   0.527   8.804   0.092
73016SOL    HW120945   0.591   8.733   0.101
73016SOL    HW220946   0.565   8.862   0.025
73017SOL     OW20947  11.970  14.722  11.195
73017SOL    HW120948  11.930  14.674  11.268
73017SOL    HW220949  11.938  14.811  11.205
73018SOL     OW20950  10.082  12.981   1.196
73018SOL    HW120951   9.992  12.994   1.167
73018SOL    HW220952  10.088  12.888   1.218
73019SOL     OW20953   1.893   3.137   3.020
73019SOL    HW120954   1.800   3.115   3.024
73019SOL    HW220955   1.894   3.232   3.006
73020SOL     OW20956  12.513  14.781   0.819
73020SOL    HW120957  12.532  14.688   0.831
73020SOL    HW220958  12.566  14.807   0.743
73021SOL     OW20959   2.002   5.725   7.157
73021SOL    HW120960   1.944   5.680   7.096
73021SOL    HW220961   2.054   5.784   7.102
73022SOL     OW20962  13.878   1.510  10.955
73022SOL    HW120963  13.788   1.541  10.964
73022SOL    HW220964  13.929   1.567  11.013
73023SOL     OW20965   3.409   3.030   9.015
73023SOL    HW120966   3.478   3.050   9.079
73023SOL    HW220967   3.358   3.110   9.009
73024SOL     OW20968  10.377   9.816   1.314
73024SOL    HW120969  10.289   9.848   1.335
73024SOL    HW220970  10.435   9.873   1.364
73025SOL     OW20971   3.458   5.868  10.745
73025SOL    HW120972   3.536   5.879  10.691
73025SOL    HW220973   3.387   5.909  10.695
73026SOL     OW20974   1.365  12.855  13.080
73026SOL    HW120975   1.392  12.765  13.061
73026SOL    HW220976   1.419  12.882  13.154
73027SOL     OW20977  12.597   5.703   7.783
73027SOL    HW120978  12.636   5.790   7.782
73027SOL    HW220979  12.517   5.712   7.732
73028SOL     OW20980   8.700   0.690   9.622
73028SOL    HW120981   8.740   0.698   9.709
73028SOL    HW220982   8.637   0.762   9.617
73029SOL     OW20983   9.244   0.210  10.436
73029SOL    HW120984   9.189   0.276  10.393
73029SOL    HW220985   9.330   0.220  10.395
73030SOL     OW20986   0.180  11.713  10.362
73030SOL    HW120987   0.187  11.792  10.415
73030SOL    HW220988   0.101  11.670  10.394
73031SOL     OW20989   7.382   2.436  13.267
73031SOL    HW120990   7.386   2.522  13.225
73031SOL    HW220991   7.355   2.455  13.357
73032SOL     OW20992   6.637   0.792   8.242
73032SOL    HW120993   6.707   0.751   8.191
73032SOL    HW220994   6.587   0.718   8.276
73033SOL     OW20995  10.311   1.709  12.028
73033SOL    HW120996  10.323   1.678  11.938
73033SOL    HW220997  10.399   1.738  12.055
73034SOL     OW20998  13.554   8.166   9.483
73034SOL    HW120999  13.520   8.105   9.548
73034SOL    HW221000  13.649   8.160   9.492
73035SOL     OW21001   0.668  11.842   1.952
73035SOL    HW121002   0.730  11.791   1.900
73035SOL    HW221003   0.656  11.792   2.032
73036SOL     OW21004   5.913  13.976  14.838
73036SOL    HW121005   5.982  14.003  14.779
73036SOL    HW221006   5.874  14.058  14.868
73037SOL     OW21007   0.210   2.558  12.180
73037SOL    HW121008   0.157   2.481  12.162
73037SOL    HW221009   0.300   2.526  12.186
73038SOL     OW21010  13.535   1.014   5.741
73038SOL    HW121011  13.507   0.940   5.687
73038SOL    HW221012  13.631   1.011   5.738
73039SOL     OW21013   6.458   0.831   4.972
73039SOL    HW121014   6.464   0.773   4.896
73039SOL    HW221015   6.520   0.793   5.035
73040SOL     OW21016   0.138   9.654  12.724
73040SOL    HW121017   0.089   9.572  12.719
73040SOL    HW221018   0.071   9.722  12.733
73041SOL     OW21019  14.550  13.269  11.224
73041SOL    HW121020  14.642  13.242  11.219
73041SOL    HW221021  14.501  13.194  11.190
73042SOL     OW21022  10.978   6.694   3.478
73042SOL    HW121023  10.984   6.754   3.405
73042SOL    HW221024  11.062   6.648   3.480
73043SOL     OW21025   8.131   3.409   8.664
73043SOL    HW121026   8.115   3.358   8.585
73043SOL    HW221027   8.226   3.411   8.672
73044SOL     OW21028   1.668   0.810  10.759
73044SOL    HW121029   1.679   0.845  10.671
73044SOL    HW221030   1.600   0.865  10.799
73045SOL     OW21031   9.102  14.787   6.794
73045SOL    HW121032   9.146  14.714   6.838
73045SOL    HW221033   9.018  14.750   6.765
73046SOL     OW21034   3.757   3.302   1.530
73046SOL    HW121035   3.670   3.276   1.561
73046SOL    HW221036   3.739   3.365   1.459
73047SOL     OW21037   0.541  13.526   4.633
73047SOL    HW121038   0.522  13.439   4.596
73047SOL    HW221039   0.459  13.551   4.677
73048SOL     OW21040   8.600   7.243   3.781
73048SOL    HW121041   8.531   7.177   3.767
73048SOL    HW221042   8.569   7.320   3.734
73049SOL     OW21043  12.668  13.569  12.511
73049SOL    HW121044  12.737  13.635  12.521
73049SOL    HW221045  12.613  13.603  12.440
73050SOL     OW21046   2.078   2.830  10.568
73050SOL    HW121047   2.079   2.855  10.661
73050SOL    HW221048   2.119   2.744  10.565
73051SOL     OW21049   2.255   6.561   1.737
73051SOL    HW121050   2.249   6.612   1.656
73051SOL    HW221051   2.169   6.570   1.778
73052SOL     OW21052   2.066   5.556   7.530
73052SOL    HW121053   2.119   5.583   7.455
73052SOL    HW221054   2.129   5.527   7.595
73053SOL     OW21055   6.828   2.159  10.052
73053SOL    HW121056   6.888   2.171  10.125
73053SOL    HW221057   6.771   2.236  10.054
73054SOL     OW21058   0.620   5.693   2.502
73054SOL    HW121059   0.669   5.718   2.580
73054SOL    HW221060   0.539   5.655   2.536
73055SOL     OW21061   8.886   0.863  13.902
73055SOL    HW121062   8.925   0.869  13.989
73055SOL    HW221063   8.807   0.811  13.914
73056SOL     OW21064  14.261   0.065  14.712
73056SOL    HW121065  14.207  14.859  14.720
73056SOL    HW221066  14.235   0.104  14.628
73057SOL     OW21067   8.351   0.744   6.795
73057SOL    HW121068   8.388   0.656   6.806
73057SOL    HW221069   8.419   0.792   6.747
73058SOL     OW21070   4.260   9.355   0.260
73058SOL    HW121071   4.248   9.260   0.257
73058SOL    HW221072   4.244   9.384   0.171
73059SOL     OW21073   9.814   1.441  10.275
73059SOL    HW121074   9.837   1.416  10.185
73059SOL    HW221075   9.896   1.434  10.324
73060SOL     OW21076   2.981  12.942   8.622
73060SOL    HW121077   2.917  12.946   8.692
73060SOL    HW221078   2.946  12.999   8.553
73061SOL     OW21079  13.696   4.879  10.692
73061SOL    HW121080  13.640   4.953  10.670
73061SOL    HW221081  13.634   4.806  10.705
73062SOL     OW21082   4.701   2.073   5.342
73062SOL    HW121083   4.727   2.009   5.408
73062SOL    HW221084   4.783   2.092   5.295
73063SOL     OW21085  11.906   4.141   7.307
73063SOL    HW121086  11.944   4.079   7.244
73063SOL    HW221087  11.870   4.086   7.376
73064SOL     OW21088   4.101  14.363  11.423
73064SOL    HW121089   4.027  14.324  11.377
73064SOL    HW221090   4.132  14.433  11.364
73065SOL     OW21091   1.432  14.090  13.560
73065SOL    HW121092   1.386  14.037  13.496
73065SOL    HW221093   1.426  14.180  13.527
73066SOL     OW21094  12.120   5.467  13.591
73066SOL    HW121095  12.182   5.411  13.543
73066SOL    HW221096  12.065   5.506  13.523
73067SOL     OW21097   3.095  11.177   8.800
73067SOL    HW121098   3.065  11.190   8.710
73067SOL    HW221099   3.019  11.198   8.855
73068SOL     OW21100   1.726   2.220   0.684
73068SOL    HW121101   1.695   2.133   0.661
73068SOL    HW221102   1.648   2.275   0.681
73069SOL     OW21103   0.656  13.190   4.599
73069SOL    HW121104   0.707  13.226   4.672
73069SOL    HW221105   0.571  13.169   4.638
73070SOL     OW21106   1.061   5.616   5.098
73070SOL    HW121107   1.075   5.525   5.127
73070SOL    HW221108   1.142   5.640   5.053
73071SOL     OW21109   3.349   2.340   3.397
73071SOL    HW121110   3.254   2.331   3.387
73071SOL    HW221111   3.381   2.346   3.307
73072SOL     OW21112   6.410   9.870   6.257
73072SOL    HW121113   6.344   9.885   6.325
73072SOL    HW221114   6.378   9.792   6.210
73073SOL     OW21115   6.560   5.595   9.716
73073SOL    HW121116   6.551   5.672   9.660
73073SOL    HW221117   6.626   5.541   9.673
73074SOL     OW21118   0.914  13.315   2.633
73074SOL    HW121119   0.821  13.295   2.631
73074SOL    HW221120   0.928  13.370   2.556
73075SOL     OW21121   1.560   7.211   8.093
73075SOL    HW121122   1.522   7.215   8.006
73075SOL    HW221123   1.626   7.281   8.094
73076SOL     OW21124   8.384   0.139  11.724
73076SOL    HW121125   8.325   0.183  11.663
73076SOL    HW221126   8.379   0.191  11.804
73077SOL     OW21127   1.584  14.863   1.209
73077SOL    HW121128   1.614  14.800   1.143
73077SOL    HW221129   1.489  14.856   1.208
73078SOL     OW21130   4.578   7.595   8.294
73078SOL    HW121131   4.611   7.678   8.327
73078SOL    HW221132   4.645   7.565   8.232
73079SOL     OW21133   6.137   8.011   0.160
73079SOL    HW121134   6.178   7.947   0.102
73079SOL    HW221135   6.205   8.035   0.222
73080SOL     OW21136   5.082   8.749   5.887
73080SOL    HW121137   5.121   8.815   5.829
73080SOL    HW221138   4.995   8.734   5.850
73081SOL     OW21139   0.938   3.893   0.585
73081SOL    HW121140   0.936   3.979   0.545
73081SOL    HW221141   1.029   3.865   0.578
73082SOL     OW21142   3.482   8.214   7.416
73082SOL    HW121143   3.553   8.260   7.462
73082SOL    HW221144   3.470   8.134   7.467
73083SOL     OW21145   6.647   7.915  10.070
73083SOL    HW121146   6.595   7.900  10.149
73083SOL    HW221147   6.647   7.831  10.025
73084SOL     OW21148   6.648   6.237   3.420
73084SOL    HW121149   6.668   6.143   3.418
73084SOL    HW221150   6.718   6.277   3.369
73085SOL     OW21151   9.963  11.663   5.870
73085SOL    HW121152  10.042  11.641   5.920
73085SOL    HW221153   9.994  11.675   5.780
73086SOL     OW21154   1.573   4.436   1.470
73086SOL    HW121155   1.542   4.371   1.534
73086SOL    HW221156   1.497   4.492   1.455
73087SOL     OW21157   3.641   9.742   0.904
73087SOL    HW121158   3.705   9.810   0.920
73087SOL    HW221159   3.570   9.786   0.857
73088SOL     OW21160  14.851   3.683  13.857
73088SOL    HW121161  14.803   3.604  13.832
73088SOL    HW221162  14.782   3.746  13.879
73089SOL     OW21163   3.757   3.030   7.582
73089SOL    HW121164   3.805   3.050   7.502
73089SOL    HW221165   3.765   2.935   7.591
73090SOL     OW21166  11.150  13.154  14.323
73090SOL    HW121167  11.224  13.179  14.268
73090SOL    HW221168  11.136  13.229  14.380
73091SOL     OW21169   4.719   8.575   1.557
73091SOL    HW121170   4.682   8.543   1.639
73091SOL    HW221171   4.691   8.512   1.491
73092SOL     OW21172   0.193  10.884   6.178
73092SOL    HW121173   0.196  10.945   6.251
73092SOL    HW221174   0.107  10.841   6.186
73093SOL     OW21175   3.187   2.956   1.942
73093SOL    HW121176   3.256   2.947   2.008
73093SOL    HW221177   3.198   2.880   1.885
73094SOL     OW21178   5.153  12.313  14.474
73094SOL    HW121179   5.146  12.340  14.566
73094SOL    HW221180   5.062  12.315  14.442
73095SOL     OW21181   6.861  13.450   0.666
73095SOL    HW121182   6.900  13.385   0.608
73095SOL    HW221183   6.813  13.509   0.607
73096SOL     OW21184   6.601   8.269  12.071
73096SOL    HW121185   6.613   8.338  12.007
73096SOL    HW221186   6.508   8.272  12.093
73097SOL     OW21187   1.162  13.441   1.326
73097SOL    HW121188   1.211  13.437   1.244
73097SOL    HW221189   1.222  13.403   1.391
73098SOL     OW21190  12.480   5.063   0.737
73098SOL    HW121191  12.419   5.104   0.797
73098SOL    HW221192  12.482   5.121   0.661
73099SOL     OW21193   1.354  13.218   7.304
73099SOL    HW121194   1.417  13.187   7.369
73099SOL    HW221195   1.397  13.205   7.220
73100SOL     OW21196   5.850   4.833  10.266
73100SOL    HW121197   5.853   4.929  10.270
73100SOL    HW221198   5.758   4.812  10.282
73101SOL     OW21199  11.785   2.088   4.975
73101SOL    HW121200  11.726   2.020   5.008
73101SOL    HW221201  11.850   2.041   4.924
73102SOL     OW21202   3.504   2.993  13.159
73102SOL    HW121203   3.583   3.046  13.165
73102SOL    HW221204   3.534   2.903  13.169
73103SOL     OW21205   1.168   0.572   7.318
73103SOL    HW121206   1.260   0.566   7.345
73103SOL    HW221207   1.148   0.665   7.319
73104SOL     OW21208   8.669  10.404  14.796
73104SOL    HW121209   8.603  10.445  14.851
73104SOL    HW221210   8.746  10.460  14.805
73105SOL     OW21211  13.351   5.437   3.401
73105SOL    HW121212  13.276   5.495   3.412
73105SOL    HW221213  13.427   5.495   3.406
73106SOL     OW21214   0.748   8.882   5.399
73106SOL    HW121215   0.724   8.969   5.367
73106SOL    HW221216   0.756   8.828   5.321
73107SOL     OW21217   7.609  11.936   5.324
73107SOL    HW121218   7.558  11.857   5.307
73107SOL    HW221219   7.691  11.922   5.277
73108SOL     OW21220  11.719   8.361  10.347
73108SOL    HW121221  11.658   8.303  10.393
73108SOL    HW221222  11.802   8.350  10.393
73109SOL     OW21223   9.027   8.639   3.332
73109SOL    HW121224   9.055   8.725   3.303
73109SOL    HW221225   9.064   8.578   3.268
73110SOL     OW21226   3.950   0.617  13.339
73110SOL    HW121227   3.901   0.673  13.399
73110SOL    HW221228   4.016   0.575  13.394
73111SOL     OW21229   0.247   8.849   0.938
73111SOL    HW121230   0.245   8.773   0.997
73111SOL    HW221231   0.237   8.924   0.996
73112SOL     OW21232   5.903  10.165  14.324
73112SOL    HW121233   5.904  10.238  14.263
73112SOL    HW221234   5.867  10.092  14.274
73113SOL     OW21235  12.336  11.223   0.022
73113SOL    HW121236  12.352  11.305   0.069
73113SOL    HW221237  12.372  11.236  14.807
73114SOL     OW21238   4.769   5.481   1.576
73114SOL    HW121239   4.755   5.387   1.570
73114SOL    HW221240   4.789   5.509   1.487
73115SOL     OW21241   5.611  11.017  14.109
73115SOL    HW121242   5.550  11.084  14.080
73115SOL    HW221243   5.697  11.059  14.106
73116SOL     OW21244   7.655  14.325  13.144
73116SOL    HW121245   7.594  14.253  13.128
73116SOL    HW221246   7.681  14.314  13.235
73117SOL     OW21247   6.714   1.767  11.597
73117SOL    HW121248   6.654   1.826  11.643
73117SOL    HW221249   6.660   1.724  11.531
73118SOL     OW21250  11.463   9.461   8.662
73118SOL    HW121251  11.435   9.513   8.738
73118SOL    HW221252  11.425   9.375   8.677
73119SOL     OW21253   7.763   5.496   4.815
73119SOL    HW121254   7.679   5.539   4.831
73119SOL    HW221255   7.813   5.511   4.895
73120SOL     OW21256  10.847   8.416  12.696
73120SOL    HW121257  10.869   8.431  12.604
73120SOL    HW221258  10.912   8.353  12.726
73121SOL     OW21259   6.289  11.309  11.217
73121SOL    HW121260   6.248  11.333  11.301
73121SOL    HW221261   6.231  11.242  11.181
73122SOL     OW21262   8.746   1.802  14.635
73122SOL    HW121263   8.752   1.707  14.640
73122SOL    HW221264   8.691   1.827  14.708
73123SOL     OW21265   9.341   6.164   0.690
73123SOL    HW121266   9.291   6.109   0.629
73123SOL    HW221267   9.417   6.111   0.713
73124SOL     OW21268   5.069   7.366   7.958
73124SOL    HW121269   5.064   7.273   7.939
73124SOL    HW221270   5.003   7.406   7.902
73125SOL     OW21271   8.196   0.093  13.443
73125SOL    HW121272   8.103   0.096  13.465
73125SOL    HW221273   8.206   0.156  13.372
73126SOL     OW21274  11.247   1.157   9.644
73126SOL    HW121275  11.339   1.174   9.662
73126SOL    HW221276  11.247   1.108   9.562
73127SOL     OW21277   8.881  14.385   2.584
73127SOL    HW121278   8.888  14.295   2.553
73127SOL    HW221279   8.939  14.389   2.660
73128SOL     OW21280  11.106   4.136   2.261
73128SOL    HW121281  11.163   4.155   2.186
73128SOL    HW221282  11.052   4.063   2.232
73129SOL     OW21283  14.823   6.541   3.464
73129SOL    HW121284   0.010   6.525   3.537
73129SOL    HW221285  14.768   6.463   3.460
73130SOL     OW21286   9.172  10.731   5.352
73130SOL    HW121287   9.140  10.753   5.264
73130SOL    HW221288   9.133  10.798   5.409
73131SOL     OW21289   1.489  12.160   8.636
73131SOL    HW121290   1.476  12.225   8.567
73131SOL    HW221291   1.580  12.134   8.628
73132SOL     OW21292   6.371   5.258   4.659
73132SOL    HW121293   6.376   5.325   4.591
73132SOL    HW221294   6.462   5.241   4.683
73133SOL     OW21295   8.683   6.105  12.657
73133SOL    HW121296   8.716   6.020  12.629
73133SOL    HW221297   8.682   6.158  12.577
73134SOL     OW21298   1.044   9.342  11.413
73134SOL    HW121299   1.135   9.315  11.397
73134SOL    HW221300   1.024   9.401  11.340
73135SOL     OW21301   8.597   5.471   4.086
73135SOL    HW121302   8.543   5.550   4.081
73135SOL    HW221303   8.619   5.452   3.995
73136SOL     OW21304  11.626   5.486   0.448
73136SOL    HW121305  11.613   5.496   0.354
73136SOL    HW221306  11.686   5.557   0.471
73137SOL     OW21307   5.638   8.543   7.909
73137SOL    HW121308   5.588   8.625   7.910
73137SOL    HW221309   5.692   8.546   7.988
73138SOL     OW21310  11.162   3.258   2.952
73138SOL    HW121311  11.130   3.186   2.898
73138SOL    HW221312  11.087   3.281   3.008
73139SOL     OW21313  11.844   3.952  12.052
73139SOL    HW121314  11.841   3.877  11.993
73139SOL    HW221315  11.936   3.959  12.078
73140SOL     OW21316   9.387   9.113   8.518
73140SOL    HW121317   9.335   9.093   8.441
73140SOL    HW221318   9.327   9.102   8.592
73141SOL     OW21319   6.793  11.938   0.173
73141SOL    HW121320   6.869  11.908   0.222
73141SOL    HW221321   6.821  11.937   0.081
73142SOL     OW21322   8.328   8.450   9.531
73142SOL    HW121323   8.279   8.368   9.541
73142SOL    HW221324   8.262   8.514   9.502
73143SOL     OW21325  14.037  10.357   9.725
73143SOL    HW121326  13.977  10.426   9.697
73143SOL    HW221327  14.104  10.354   9.657
73144SOL     OW21328  12.565   0.758   2.796
73144SOL    HW121329  12.606   0.844   2.789
73144SOL    HW221330  12.619   0.712   2.862
73145SOL     OW21331   3.244   2.783  12.143
73145SOL    HW121332   3.231   2.753  12.233
73145SOL    HW221333   3.325   2.834  12.145
73146SOL     OW21334   7.762   2.809   3.153
73146SOL    HW121335   7.775   2.854   3.070
73146SOL    HW221336   7.752   2.717   3.130
73147SOL     OW21337  12.029   3.899   5.624
73147SOL    HW121338  12.045   3.988   5.593
73147SOL    HW221339  11.965   3.863   5.563
73148SOL     OW21340  14.010   2.948  10.418
73148SOL    HW121341  14.086   2.905  10.378
73148SOL    HW221342  14.042   3.035  10.442
73149SOL     OW21343   8.549  14.371  12.804
73149SOL    HW121344   8.580  14.408  12.721
73149SOL    HW221345   8.485  14.304  12.778
73150SOL     OW21346  12.000  13.373   9.820
73150SOL    HW121347  12.033  13.388   9.731
73150SOL    HW221348  12.078  13.379   9.875
73151SOL     OW21349   4.643  12.671   6.353
73151SOL    HW121350   4.550  12.663   6.374
73151SOL    HW221351   4.670  12.583   6.329
73152SOL     OW21352   8.203  12.646   6.997
73152SOL    HW121353   8.298  12.644   7.005
73152SOL    HW221354   8.185  12.711   6.929
73153SOL     OW21355   3.430  10.832   9.788
73153SOL    HW121356   3.456  10.873   9.706
73153SOL    HW221357   3.357  10.775   9.765
73154SOL     OW21358   0.603   7.235   6.867
73154SOL    HW121359   0.664   7.294   6.911
73154SOL    HW221360   0.659   7.172   6.821
73155SOL     OW21361  11.048   7.599   0.702
73155SOL    HW121362  11.140   7.621   0.717
73155SOL    HW221363  11.019   7.556   0.783
73156SOL     OW21364   0.888   6.665  10.941
73156SOL    HW121365   0.932   6.591  10.898
73156SOL    HW221366   0.959   6.727  10.959
73157SOL     OW21367   3.093  11.018   4.565
73157SOL    HW121368   3.167  10.999   4.508
73157SOL    HW221369   3.132  11.062   4.641
73158SOL     OW21370   3.171   2.909   6.066
73158SOL    HW121371   3.219   2.928   5.986
73158SOL    HW221372   3.237   2.878   6.127
73159SOL     OW21373   6.840  10.374   6.777
73159SOL    HW121374   6.828  10.416   6.692
73159SOL    HW221375   6.881  10.441   6.832
73160SOL     OW21376  11.947   4.615   8.861
73160SOL    HW121377  11.922   4.540   8.914
73160SOL    HW221378  11.866   4.642   8.817
73161SOL     OW21379  10.066  11.856  11.078
73161SOL    HW121380   9.993  11.794  11.080
73161SOL    HW221381  10.025  11.941  11.096
73162SOL     OW21382   2.703  10.610   5.807
73162SOL    HW121383   2.769  10.661   5.760
73162SOL    HW221384   2.732  10.612   5.898
73163SOL     OW21385  13.346   4.836   0.148
73163SOL    HW121386  13.441   4.847   0.152
73163SOL    HW221387  13.334   4.757   0.095
73164SOL     OW21388   9.101   1.465   7.501
73164SOL    HW121389   9.181   1.449   7.451
73164SOL    HW221390   9.081   1.558   7.485
73165SOL     OW21391  11.149   6.550   3.906
73165SOL    HW121392  11.222   6.596   3.864
73165SOL    HW221393  11.071   6.588   3.865
73166SOL     OW21394   7.215   5.881   8.780
73166SOL    HW121395   7.158   5.831   8.839
73166SOL    HW221396   7.175   5.873   8.694
73167SOL     OW21397  13.568   0.455  10.904
73167SOL    HW121398  13.496   0.504  10.944
73167SOL    HW221399  13.542   0.445  10.812
73168SOL     OW21400  12.719   4.984   1.133
73168SOL    HW121401  12.635   4.945   1.106
73168SOL    HW221402  12.698   5.075   1.151
73169SOL     OW21403   5.227   7.174  13.255
73169SOL    HW121404   5.221   7.223  13.173
73169SOL    HW221405   5.302   7.117  13.243
73170SOL     OW21406   2.310   3.244   5.783
73170SOL    HW121407   2.347   3.175   5.728
73170SOL    HW221408   2.220   3.215   5.799
73171SOL     OW21409  14.826  12.301  12.807
73171SOL    HW121410  14.747  12.246  12.814
73171SOL    HW221411  14.806  12.363  12.738
73172SOL     OW21412   4.871   3.546  14.491
73172SOL    HW121413   4.778   3.568  14.487
73172SOL    HW221414   4.913   3.609  14.432
73173SOL     OW21415  12.587   4.050   1.690
73173SOL    HW121416  12.609   4.102   1.613
73173SOL    HW221417  12.656   4.069   1.753
73174SOL     OW21418   3.336   5.470   1.910
73174SOL    HW121419   3.361   5.558   1.938
73174SOL    HW221420   3.249   5.457   1.945
73175SOL     OW21421   6.561   9.035   8.198
73175SOL    HW121422   6.600   8.950   8.179
73175SOL    HW221423   6.468   9.017   8.211
73176SOL     OW21424   6.792  10.728   6.608
73176SOL    HW121425   6.735  10.701   6.680
73176SOL    HW221426   6.880  10.705   6.636
73177SOL     OW21427  13.132   3.038   4.331
73177SOL    HW121428  13.036   3.042   4.335
73177SOL    HW221429  13.159   3.128   4.315
73178SOL     OW21430   4.743  14.433   7.772
73178SOL    HW121431   4.756  14.486   7.851
73178SOL    HW221432   4.655  14.397   7.782
73179SOL     OW21433   5.336  12.593   2.295
73179SOL    HW121434   5.397  12.571   2.366
73179SOL    HW221435   5.356  12.530   2.227
73180SOL     OW21436   4.714   8.025  10.768
73180SOL    HW121437   4.640   8.033  10.708
73180SOL    HW221438   4.679   7.979  10.844
73181SOL     OW21439   5.732  11.580   6.868
73181SOL    HW121440   5.675  11.596   6.943
73181SOL    HW221441   5.777  11.499   6.888
73182SOL     OW21442   9.125   9.122  10.263
73182SOL    HW121443   9.053   9.064  10.287
73182SOL    HW221444   9.162   9.151  10.346
73183SOL     OW21445  12.283  12.986   9.317
73183SOL    HW121446  12.267  13.015   9.227
73183SOL    HW221447  12.313  12.896   9.308
73184SOL     OW21448   7.073  12.471   8.338
73184SOL    HW121449   7.082  12.392   8.391
73184SOL    HW221450   7.101  12.445   8.251
73185SOL     OW21451  11.196   1.733   6.163
73185SOL    HW121452  11.142   1.663   6.200
73185SOL    HW221453  11.136   1.807   6.152
73186SOL     OW21454   9.799   4.054   0.881
73186SOL    HW121455   9.788   4.011   0.796
73186SOL    HW221456   9.813   3.982   0.942
73187SOL     OW21457   5.835   5.806   7.321
73187SOL    HW121458   5.792   5.819   7.236
73187SOL    HW221459   5.920   5.848   7.311
73188SOL     OW21460  12.418  10.162  11.330
73188SOL    HW121461  12.362  10.168  11.253
73188SOL    HW221462  12.467  10.081  11.318
73189SOL     OW21463   0.092   0.965   4.981
73189SOL    HW121464   0.046   0.894   5.026
73189SOL    HW221465   0.133   1.016   5.051
73190SOL     OW21466   1.075   8.867  12.585
73190SOL    HW121467   1.144   8.873  12.519
73190SOL    HW221468   1.032   8.783  12.568
73191SOL     OW21469   2.098  14.593  11.016
73191SOL    HW121470   2.143  14.638  11.088
73191SOL    HW221471   2.092  14.659  10.947
73192SOL     OW21472  11.792   8.494  14.329
73192SOL    HW121473  11.847   8.424  14.293
73192SOL    HW221474  11.846   8.536  14.395
73193SOL     OW21475  13.877   5.925  14.605
73193SOL    HW121476  13.806   5.989  14.600
73193SOL    HW221477  13.838   5.843  14.577
73194SOL     OW21478  10.658   2.848   0.129
73194SOL    HW121479  10.721   2.821   0.063
73194SOL    HW221480  10.673   2.788   0.202
73195SOL     OW21481   0.490   4.639   6.668
73195SOL    HW121482   0.442   4.556   6.663
73195SOL    HW221483   0.503   4.665   6.577
73196SOL     OW21484   4.794   3.333  13.533
73196SOL    HW121485   4.793   3.358  13.440
73196SOL    HW221486   4.817   3.414  13.579
73197SOL     OW21487   1.269   8.739  13.902
73197SOL    HW121488   1.261   8.762  13.994
73197SOL    HW221489   1.363   8.739  13.885
73198SOL     OW21490   7.164  11.783  13.746
73198SOL    HW121491   7.257  11.768  13.728
73198SOL    HW221492   7.152  11.752  13.836
73199SOL     OW21493   9.667   9.839  13.823
73199SOL    HW121494   9.664   9.789  13.905
73199SOL    HW221495   9.691   9.928  13.850
73200SOL     OW21496   6.399  12.670   4.260
73200SOL    HW121497   6.321  12.618   4.277
73200SOL    HW221498   6.456  12.612   4.209
73201SOL     OW21499   6.557   9.377   6.426
73201SOL    HW121500   6.613   9.416   6.494
73201SOL    HW221501   6.531   9.452   6.372
73202SOL     OW21502  10.446  13.994  10.602
73202SOL    HW121503  10.472  14.084  10.620
73202SOL    HW221504  10.462  13.948  10.685
73203SOL     OW21505  12.272   5.542   7.506
73203SOL    HW121506  12.331   5.601   7.554
73203SOL    HW221507  12.320   5.521   7.426
73204SOL     OW21508   3.070   2.265  13.382
73204SOL    HW121509   3.084   2.359  13.383
73204SOL    HW221510   3.055   2.244  13.290
73205SOL     OW21511  11.817   9.855   9.633
73205SOL    HW121512  11.798   9.764   9.654
73205SOL    HW221513  11.750   9.905   9.680
73206SOL     OW21514  14.306  13.364  13.486
73206SOL    HW121515  14.252  13.414  13.547
73206SOL    HW221516  14.244  13.323  13.427
73207SOL     OW21517  14.628  12.450   0.653
73207SOL    HW121518  14.702  12.436   0.712
73207SOL    HW221519  14.581  12.524   0.690
73208SOL     OW21520   1.774   3.241   7.880
73208SOL    HW121521   1.799   3.149   7.868
73208SOL    HW221522   1.710   3.239   7.951
73209SOL     OW21523  10.705   8.911   1.248
73209SOL    HW121524  10.754   8.871   1.176
73209SOL    HW221525  10.683   8.837   1.305
73210SOL     OW21526   7.034   3.879   5.877
73210SOL    HW121527   7.080   3.961   5.896
73210SOL    HW221528   6.994   3.894   5.791
73211SOL     OW21529   1.999  14.367  13.234
73211SOL    HW121530   1.938  14.406  13.171
73211SOL    HW221531   1.986  14.418  13.314
73212SOL     OW21532  10.181   7.234   7.790
73212SOL    HW121533  10.251   7.254   7.729
73212SOL    HW221534  10.143   7.152   7.759
73213SOL     OW21535  13.401   4.311   6.926
73213SOL    HW121536  13.492   4.338   6.933
73213SOL    HW221537  13.381   4.270   7.010
73214SOL     OW21538   3.108   1.456   7.050
73214SOL    HW121539   3.099   1.376   6.997
73214SOL    HW221540   3.201   1.480   7.041
73215SOL     OW21541  12.761   1.390  14.526
73215SOL    HW121542  12.700   1.378  14.453
73215SOL    HW221543  12.799   1.303  14.540
73216SOL     OW21544  10.763   0.139   4.862
73216SOL    HW121545  10.858   0.141   4.847
73216SOL    HW221546  10.747   0.216   4.917
73217SOL     OW21547   8.237  11.193  11.352
73217SOL    HW121548   8.324  11.155  11.341
73217SOL    HW221549   8.176  11.120  11.339
73218SOL     OW21550   7.616   0.029   2.539
73218SOL    HW121551   7.657  14.835   2.483
73218SOL    HW221552   7.539  14.857   2.574
73219SOL     OW21553   4.879   1.895   1.938
73219SOL    HW121554   4.794   1.872   1.902
73219SOL    HW221555   4.884   1.990   1.930
73220SOL     OW21556   2.816  11.539   1.478
73220SOL    HW121557   2.760  11.613   1.454
73220SOL    HW221558   2.816  11.539   1.574
73221SOL     OW21559  11.777   9.334   6.730
73221SOL    HW121560  11.846   9.400   6.724
73221SOL    HW221561  11.715   9.370   6.793
73222SOL     OW21562  11.978  12.883   9.845
73222SOL    HW121563  12.015  12.936   9.915
73222SOL    HW221564  12.018  12.797   9.856
73223SOL     OW21565   2.530  12.145   8.436
73223SOL    HW121566   2.592  12.078   8.465
73223SOL    HW221567   2.525  12.134   8.341
73224SOL     OW21568   6.183   3.772  13.131
73224SOL    HW121569   6.190   3.716  13.209
73224SOL    HW221570   6.133   3.720  13.068
73225SOL     OW21571   1.629   7.618   6.326
73225SOL    HW121572   1.564   7.620   6.255
73225SOL    HW221573   1.704   7.573   6.289
73226SOL     OW21574   0.896   7.347   4.969
73226SOL    HW121575   0.962   7.280   4.950
73226SOL    HW221576   0.839   7.347   4.892
73227SOL     OW21577  11.344   1.328  13.672
73227SOL    HW121578  11.438   1.325  13.658
73227SOL    HW221579  11.334   1.334  13.767
73228SOL     OW21580   6.763  12.345   0.106
73228SOL    HW121581   6.686  12.291   0.123
73228SOL    HW221582   6.824  12.321   0.176
73229SOL     OW21583  12.513  13.386   3.653
73229SOL    HW121584  12.504  13.474   3.618
73229SOL    HW221585  12.607  13.376   3.668
73230SOL     OW21586   3.454   4.554  11.975
73230SOL    HW121587   3.436   4.643  11.946
73230SOL    HW221588   3.532   4.528  11.927
73231SOL     OW21589   3.747  11.510   8.821
73231SOL    HW121590   3.732  11.424   8.781
73231SOL    HW221591   3.830  11.500   8.869
73232SOL     OW21592  14.524  13.447   1.027
73232SOL    HW121593  14.431  13.465   1.011
73232SOL    HW221594  14.566  13.463   0.942
73233SOL     OW21595  10.315   2.579   8.366
73233SOL    HW121596  10.323   2.674   8.358
73233SOL    HW221597  10.256   2.566   8.440
73234SOL     OW21598  11.308   0.245   7.398
73234SOL    HW121599  11.392   0.263   7.441
73234SOL    HW221600  11.304   0.150   7.391
73235SOL     OW21601  11.093   5.425  11.318
73235SOL    HW121602  11.050   5.416  11.403
73235SOL    HW221603  11.071   5.344  11.271
73236SOL     OW21604   5.622   1.726   2.983
73236SOL    HW121605   5.663   1.804   3.022
73236SOL    HW221606   5.619   1.663   3.055
73237SOL     OW21607  12.629   4.367   2.980
73237SOL    HW121608  12.578   4.408   3.050
73237SOL    HW221609  12.580   4.388   2.900
73238SOL     OW21610   8.214  13.046   7.108
73238SOL    HW121611   8.234  13.019   7.019
73238SOL    HW221612   8.269  12.991   7.164
73239SOL     OW21613   2.251  11.611   5.951
73239SOL    HW121614   2.252  11.688   6.008
73239SOL    HW221615   2.300  11.638   5.873
73240SOL     OW21616   9.355   1.585   9.256
73240SOL    HW121617   9.321   1.566   9.344
73240SOL    HW221618   9.396   1.503   9.228
73241SOL     OW21619   1.170   6.821  10.177
73241SOL    HW121620   1.082   6.815  10.137
73241SOL    HW221621   1.171   6.907  10.219
73242SOL     OW21622  10.640  13.835  10.459
73242SOL    HW121623  10.580  13.902  10.491
73242SOL    HW221624  10.650  13.854  10.366
73243SOL     OW21625   2.018   9.189  11.554
73243SOL    HW121626   2.104   9.169  11.590
73243SOL    HW221627   2.011   9.136  11.475
73244SOL     OW21628   7.966  13.902   7.171
73244SOL    HW121629   8.004  13.966   7.111
73244SOL    HW221630   8.021  13.906   7.249
73245SOL     OW21631   6.241  10.252   8.986
73245SOL    HW121632   6.309  10.225   9.048
73245SOL    HW221633   6.191  10.319   9.032
73246SOL     OW21634  14.044   6.240   9.648
73246SOL    HW121635  14.076   6.242   9.557
73246SOL    HW221636  13.952   6.267   9.641
73247SOL     OW21637  11.935   0.685  11.801
73247SOL    HW121638  11.845   0.672  11.771
73247SOL    HW221639  11.983   0.706  11.722
73248SOL     OW21640  10.273   3.560   5.827
73248SOL    HW121641  10.309   3.480   5.789
73248SOL    HW221642  10.322   3.573   5.908
73249SOL     OW21643   4.397  10.587   8.430
73249SOL    HW121644   4.349  10.652   8.482
73249SOL    HW221645   4.476  10.633   8.401
73250SOL     OW21646   3.090   2.933  13.439
73250SOL    HW121647   3.179   2.945  13.405
73250SOL    HW221648   3.075   3.011  13.493
73251SOL     OW21649  14.356  13.461   5.949
73251SOL    HW121650  14.341  13.525   6.018
73251SOL    HW221651  14.271  13.421   5.934
73252SOL     OW21652  12.136   7.562   0.677
73252SOL    HW121653  12.199   7.513   0.730
73252SOL    HW221654  12.189   7.619   0.622
73253SOL     OW21655   3.817  10.212   3.856
73253SOL    HW121656   3.852  10.123   3.861
73253SOL    HW221657   3.840  10.243   3.769
73254SOL     OW21658   4.307  11.519   3.489
73254SOL    HW121659   4.215  11.543   3.504
73254SOL    HW221660   4.357  11.596   3.515
73255SOL     OW21661  12.522   4.971   2.933
73255SOL    HW121662  12.500   4.879   2.947
73255SOL    HW221663  12.541   4.978   2.840
73256SOL     OW21664   9.945   1.289   5.906
73256SOL    HW121665   9.995   1.364   5.936
73256SOL    HW221666   9.988   1.213   5.946
73257SOL     OW21667   3.834   3.316   8.801
73257SOL    HW121668   3.878   3.284   8.722
73257SOL    HW221669   3.903   3.318   8.867
73258SOL     OW21670  14.173  10.768   7.897
73258SOL    HW121671  14.250  10.731   7.941
73258SOL    HW221672  14.098  10.726   7.940
73259SOL     OW21673  12.023   3.547   8.442
73259SOL    HW121674  11.984   3.573   8.525
73259SOL    HW221675  11.949   3.520   8.387
73260SOL     OW21676   6.098  12.361   7.953
73260SOL    HW121677   6.055  12.324   7.877
73260SOL    HW221678   6.053  12.323   8.029
73261SOL     OW21679   8.367   1.120   9.203
73261SOL    HW121680   8.423   1.194   9.178
73261SOL    HW221681   8.427   1.057   9.242
73262SOL     OW21682  11.849  12.685   5.061
73262SOL    HW121683  11.895  12.616   5.013
73262SOL    HW221684  11.882  12.767   5.023
73263SOL     OW21685   1.665  11.445   4.719
73263SOL    HW121686   1.656  11.502   4.642
73263SOL    HW221687   1.585  11.394   4.721
73264SOL     OW21688   7.379  11.167   1.720
73264SOL    HW121689   7.388  11.223   1.643
73264SOL    HW221690   7.468  11.142   1.742
73265SOL     OW21691   3.016  11.068  12.684
73265SOL    HW121692   3.055  11.117  12.756
73265SOL    HW221693   3.090  11.043  12.629
73266SOL     OW21694  13.649   9.464   7.988
73266SOL    HW121695  13.669   9.476   8.081
73266SOL    HW221696  13.584   9.394   7.986
73267SOL     OW21697   9.531  12.197   4.377
73267SOL    HW121698   9.482  12.277   4.394
73267SOL    HW221699   9.525  12.147   4.458
73268SOL     OW21700   5.851   5.020  13.830
73268SOL    HW121701   5.938   5.050  13.854
73268SOL    HW221702   5.819   4.974  13.908
73269SOL     OW21703   7.163   0.028  13.462
73269SOL    HW121704   7.213   0.101  13.427
73269SOL    HW221705   7.108   0.067  13.530
73270SOL     OW21706   2.945   9.257   1.130
73270SOL    HW121707   3.022   9.282   1.079
73270SOL    HW221708   2.913   9.339   1.167
73271SOL     OW21709   2.162   6.243   6.611
73271SOL    HW121710   2.089   6.189   6.580
73271SOL    HW221711   2.237   6.184   6.612
73272SOL     OW21712  11.104  11.995   6.259
73272SOL    HW121713  11.152  11.950   6.328
73272SOL    HW221714  11.170  12.047   6.213
73273SOL     OW21715  13.372   3.612   6.273
73273SOL    HW121716  13.332   3.544   6.218
73273SOL    HW221717  13.440   3.651   6.217
73274SOL     OW21718   4.855   4.587   4.845
73274SOL    HW121719   4.854   4.657   4.910
73274SOL    HW221720   4.909   4.622   4.774
73275SOL     OW21721   9.604   0.490   4.327
73275SOL    HW121722   9.648   0.566   4.364
73275SOL    HW221723   9.672   0.445   4.276
73276SOL     OW21724   5.671  14.644  14.396
73276SOL    HW121725   5.615  14.701  14.342
73276SOL    HW221726   5.724  14.705  14.448
73277SOL     OW21727   8.998   9.471  11.619
73277SOL    HW121728   8.934   9.409  11.655
73277SOL    HW221729   8.945   9.536  11.573
73278SOL     OW21730   5.407   2.011   0.766
73278SOL    HW121731   5.462   1.973   0.834
73278SOL    HW221732   5.451   1.989   0.684
73279SOL     OW21733   9.465  12.215   7.892
73279SOL    HW121734   9.520  12.151   7.938
73279SOL    HW221735   9.505  12.223   7.805
73280SOL     OW21736   3.681   1.432   1.061
73280SOL    HW121737   3.590   1.461   1.074
73280SOL    HW221738   3.706   1.396   1.146
73281SOL     OW21739  10.136  14.098   9.280
73281SOL    HW121740  10.128  14.086   9.186
73281SOL    HW221741  10.207  14.162   9.290
73282SOL     OW21742  11.521   1.556   9.974
73282SOL    HW121743  11.600   1.522   9.932
73282SOL    HW221744  11.547   1.641  10.010
73283SOL     OW21745  13.053   6.780   4.827
73283SOL    HW121746  13.148   6.769   4.830
73283SOL    HW221747  13.036   6.810   4.738
73284SOL     OW21748  13.448   7.400  14.390
73284SOL    HW121749  13.475   7.476  14.338
73284SOL    HW221750  13.483   7.419  14.478
73285SOL     OW21751   0.917   9.931   2.357
73285SOL    HW121752   0.893   9.961   2.270
73285SOL    HW221753   0.960   9.846   2.343
73286SOL     OW21754  11.909  11.662   4.276
73286SOL    HW121755  11.912  11.610   4.357
73286SOL    HW221756  11.889  11.599   4.207
73287SOL     OW21757   6.535   6.335  14.212
73287SOL    HW121758   6.559   6.378  14.294
73287SOL    HW221759   6.619   6.320  14.167
73288SOL     OW21760   1.905  10.129   7.302
73288SOL    HW121761   1.932  10.061   7.240
73288SOL    HW221762   1.830  10.171   7.260
73289SOL     OW21763   5.721  10.408  10.209
73289SOL    HW121764   5.633  10.376  10.231
73289SOL    HW221765   5.713  10.439  10.118
73290SOL     OW21766  14.066  14.578  14.768
73290SOL    HW121767  14.031  14.635  14.836
73290SOL    HW221768  14.017  14.497  14.777
73291SOL     OW21769   8.161   5.111   2.943
73291SOL    HW121770   8.211   5.192   2.944
73291SOL    HW221771   8.069   5.139   2.947
73292SOL     OW21772   7.592   2.545   9.212
73292SOL    HW121773   7.613   2.528   9.120
73292SOL    HW221774   7.644   2.482   9.261
73293SOL     OW21775   0.329   9.810  10.612
73293SOL    HW121776   0.396   9.766  10.664
73293SOL    HW221777   0.248   9.764  10.634
73294SOL     OW21778  10.970  10.707   2.376
73294SOL    HW121779  10.906  10.772   2.348
73294SOL    HW221780  11.055  10.745   2.350
73295SOL     OW21781  13.868  13.204  11.255
73295SOL    HW121782  13.810  13.254  11.198
73295SOL    HW221783  13.812  13.137  11.294
73296SOL     OW21784   4.341  11.822   7.166
73296SOL    HW121785   4.264  11.776   7.198
73296SOL    HW221786   4.319  11.847   7.076
73297SOL     OW21787   6.675  11.077  11.443
73297SOL    HW121788   6.651  11.151  11.386
73297SOL    HW221789   6.591  11.037  11.466
73298SOL     OW21790   1.110   8.576  12.623
73298SOL    HW121791   1.186   8.570  12.565
73298SOL    HW221792   1.129   8.650  12.680
73299SOL     OW21793   2.843   6.672   8.360
73299SOL    HW121794   2.897   6.695   8.436
73299SOL    HW221795   2.827   6.756   8.316
73300SOL     OW21796   4.381   8.211   2.812
73300SOL    HW121797   4.464   8.215   2.861
73300SOL    HW221798   4.398   8.150   2.741
73301SOL     OW21799   6.423   5.564  12.924
73301SOL    HW121800   6.463   5.650  12.919
73301SOL    HW221801   6.369   5.567  13.003
73302SOL     OW21802   2.546   0.956  13.534
73302SOL    HW121803   2.559   1.050  13.525
73302SOL    HW221804   2.623   0.917  13.493
73303SOL     OW21805  10.341   9.533   6.803
73303SOL    HW121806  10.289   9.463   6.765
73303SOL    HW221807  10.376   9.496   6.885
73304SOL     OW21808   5.315   7.039   0.570
73304SOL    HW121809   5.367   7.118   0.560
73304SOL    HW221810   5.225   7.070   0.581
73305SOL     OW21811  14.169   7.696   0.301
73305SOL    HW121812  14.179   7.603   0.321
73305SOL    HW221813  14.207   7.741   0.376
73306SOL     OW21814   6.969   9.562   7.688
73306SOL    HW121815   7.016   9.564   7.604
73306SOL    HW221816   6.878   9.548   7.664
73307SOL     OW21817   1.766   0.437   6.516
73307SOL    HW121818   1.685   0.385   6.510
73307SOL    HW221819   1.785   0.462   6.425
73308SOL     OW21820   2.054   2.765   1.439
73308SOL    HW121821   2.145   2.760   1.468
73308SOL    HW221822   2.011   2.819   1.506
73309SOL     OW21823  14.141   4.775   9.437
73309SOL    HW121824  14.233   4.797   9.424
73309SOL    HW221825  14.115   4.827   9.513
73310SOL     OW21826   5.292  12.213   6.843
73310SOL    HW121827   5.284  12.305   6.814
73310SOL    HW221828   5.208  12.194   6.884
73311SOL     OW21829   7.330  10.870  12.004
73311SOL    HW121830   7.239  10.879  11.976
73311SOL    HW221831   7.381  10.899  11.928
73312SOL     OW21832   4.776  13.111  13.699
73312SOL    HW121833   4.847  13.116  13.635
73312SOL    HW221834   4.758  13.202  13.722
73313SOL     OW21835  13.193   3.610   1.473
73313SOL    HW121836  13.288   3.622   1.469
73313SOL    HW221837  13.170   3.632   1.564
73314SOL     OW21838   7.642  11.116   7.515
73314SOL    HW121839   7.638  11.186   7.451
73314SOL    HW221840   7.652  11.160   7.599
73315SOL     OW21841   2.738   5.204   8.399
73315SOL    HW121842   2.734   5.250   8.482
73315SOL    HW221843   2.765   5.115   8.422
73316SOL     OW21844   4.951   2.188   2.839
73316SOL    HW121845   4.900   2.135   2.900
73316SOL    HW221846   4.956   2.136   2.759
73317SOL     OW21847   9.631  14.429   1.171
73317SOL    HW121848   9.556  14.408   1.227
73317SOL    HW221849   9.601  14.503   1.119
73318SOL     OW21850   4.227  10.462  11.797
73318SOL    HW121851   4.308  10.423  11.764
73318SOL    HW221852   4.208  10.533  11.736
73319SOL     OW21853   5.225   6.586   6.518
73319SOL    HW121854   5.187   6.498   6.510
73319SOL    HW221855   5.172   6.640   6.459
73320SOL     OW21856  13.977   8.594  14.602
73320SOL    HW121857  13.929   8.594  14.519
73320SOL    HW221858  13.962   8.681  14.638
73321SOL     OW21859   5.416  14.409   8.520
73321SOL    HW121860   5.489  14.454   8.563
73321SOL    HW221861   5.393  14.338   8.580
73322SOL     OW21862   5.888   4.228  12.203
73322SOL    HW121863   5.945   4.296  12.237
73322SOL    HW221864   5.802   4.270  12.194
73323SOL     OW21865   0.947   4.804   6.756
73323SOL    HW121866   0.938   4.768   6.844
73323SOL    HW221867   0.883   4.755   6.704
73324SOL     OW21868   3.686  10.013   3.483
73324SOL    HW121869   3.768  10.041   3.526
73324SOL    HW221870   3.624  10.083   3.504
73325SOL     OW21871  12.146   9.630  12.248
73325SOL    HW121872  12.239   9.609  12.256
73325SOL    HW221873  12.116   9.643  12.338
73326SOL     OW21874  11.408   1.935  11.366
73326SOL    HW121875  11.400   1.873  11.439
73326SOL    HW221876  11.483   1.903  11.316
73327SOL     OW21877   1.334   8.673   2.531
73327SOL    HW121878   1.272   8.641   2.597
73327SOL    HW221879   1.311   8.764   2.518
73328SOL     OW21880   6.503   4.047   2.965
73328SOL    HW121881   6.488   4.136   2.935
73328SOL    HW221882   6.590   4.049   3.006
73329SOL     OW21883   6.442   2.028  10.391
73329SOL    HW121884   6.412   2.114  10.364
73329SOL    HW221885   6.513   2.045  10.454
73330SOL     OW21886   4.792  14.650   8.592
73330SOL    HW121887   4.738  14.699   8.654
73330SOL    HW221888   4.869  14.705   8.579
73331SOL     OW21889   7.676   0.117   1.949
73331SOL    HW121890   7.694   0.098   2.042
73331SOL    HW221891   7.613   0.189   1.952
73332SOL     OW21892   5.323   5.174  10.221
73332SOL    HW121893   5.268   5.128  10.284
73332SOL    HW221894   5.279   5.162  10.137
73333SOL     OW21895   4.881  13.894   0.757
73333SOL    HW121896   4.868  13.949   0.679
73333SOL    HW221897   4.973  13.867   0.753
73334SOL     OW21898   4.450   5.909  14.619
73334SOL    HW121899   4.493   5.979  14.570
73334SOL    HW221900   4.391   5.955  14.679
73335SOL     OW21901   7.052  13.780   9.656
73335SOL    HW121902   7.035  13.812   9.745
73335SOL    HW221903   7.051  13.684   9.665
73336SOL     OW21904   4.194  11.268  14.553
73336SOL    HW121905   4.256  11.198  14.575
73336SOL    HW221906   4.134  11.271  14.627
73337SOL     OW21907  14.383   7.711  14.025
73337SOL    HW121908  14.477   7.714  14.038
73337SOL    HW221909  14.350   7.786  14.075
73338SOL     OW21910   1.478  13.124   9.621
73338SOL    HW121911   1.507  13.215   9.633
73338SOL    HW221912   1.394  13.131   9.577
73339SOL     OW21913   7.124  12.918   6.671
73339SOL    HW121914   7.072  12.975   6.615
73339SOL    HW221915   7.206  12.905   6.622
73340SOL     OW21916   3.854   7.769   7.557
73340SOL    HW121917   3.928   7.803   7.507
73340SOL    HW221918   3.815   7.847   7.597
73341SOL     OW21919  10.181   2.268   5.364
73341SOL    HW121920  10.107   2.228   5.409
73341SOL    HW221921  10.216   2.332   5.427
73342SOL     OW21922   8.817   3.997   5.091
73342SOL    HW121923   8.784   4.071   5.142
73342SOL    HW221924   8.882   3.956   5.148
73343SOL     OW21925   4.098   3.817   8.241
73343SOL    HW121926   4.112   3.873   8.165
73343SOL    HW221927   4.150   3.739   8.224
73344SOL     OW21928   6.055   1.452   8.504
73344SOL    HW121929   5.971   1.496   8.513
73344SOL    HW221930   6.108   1.486   8.575
73345SOL     OW21931   8.103  10.558   5.432
73345SOL    HW121932   8.127  10.536   5.342
73345SOL    HW221933   8.092  10.473   5.475
73346SOL     OW21934   3.154  13.393  10.909
73346SOL    HW121935   3.192  13.319  10.862
73346SOL    HW221936   3.088  13.429  10.849
73347SOL     OW21937   5.114   3.616   7.392
73347SOL    HW121938   5.149   3.647   7.475
73347SOL    HW221939   5.120   3.520   7.397
73348SOL     OW21940  11.634   5.969   6.149
73348SOL    HW121941  11.709   5.918   6.118
73348SOL    HW221942  11.633   5.954   6.244
73349SOL     OW21943   2.814   6.361  13.230
73349SOL    HW121944   2.747   6.314  13.280
73349SOL    HW221945   2.790   6.453  13.238
73350SOL     OW21946   9.190   8.842   2.053
73350SOL    HW121947   9.266   8.873   2.102
73350SOL    HW221948   9.153   8.773   2.107
73351SOL     OW21949   9.387   8.306   0.928
73351SOL    HW121950   9.444   8.374   0.964
73351SOL    HW221951   9.387   8.323   0.834
73352SOL     OW21952   4.349  11.979  14.379
73352SOL    HW121953   4.410  11.996  14.307
73352SOL    HW221954   4.380  12.034  14.451
73353SOL     OW21955  13.577  14.046   9.768
73353SOL    HW121956  13.483  14.029   9.780
73353SOL    HW221957  13.583  14.093   9.685
73354SOL     OW21958   4.789   2.397   4.599
73354SOL    HW121959   4.780   2.332   4.529
73354SOL    HW221960   4.798   2.346   4.679
73355SOL     OW21961   9.855   7.426   7.206
73355SOL    HW121962   9.825   7.405   7.294
73355SOL    HW221963   9.928   7.487   7.218
73356SOL     OW21964   6.263  13.487   4.638
73356SOL    HW121965   6.244  13.393   4.645
73356SOL    HW221966   6.339  13.493   4.582
73357SOL     OW21967   6.384   9.972   8.554
73357SOL    HW121968   6.328   9.949   8.480
73357SOL    HW221969   6.324   9.980   8.628
73358SOL     OW21970  12.669  14.092   6.461
73358SOL    HW121971  12.694  14.113   6.550
73358SOL    HW221972  12.709  14.160   6.407
73359SOL     OW21973   4.399   5.100   5.290
73359SOL    HW121974   4.356   5.056   5.217
73359SOL    HW221975   4.492   5.087   5.276
73360SOL     OW21976  14.654   1.994   0.396
73360SOL    HW121977  14.602   2.072   0.414
73360SOL    HW221978  14.723   1.996   0.462
73361SOL     OW21979  14.131  11.519  11.964
73361SOL    HW121980  14.140  11.578  11.890
73361SOL    HW221981  14.109  11.434  11.925
73362SOL     OW21982  10.772   3.357   1.632
73362SOL    HW121983  10.832   3.412   1.682
73362SOL    HW221984  10.817   3.273   1.624
73363SOL     OW21985   8.794   3.227   4.451
73363SOL    HW121986   8.769   3.317   4.471
73363SOL    HW221987   8.718   3.190   4.406
73364SOL     OW21988   0.019  14.313   0.783
73364SOL    HW121989   0.112  14.332   0.793
73364SOL    HW221990  14.869  14.344   0.696
73365SOL     OW21991  12.323   5.627   6.645
73365SOL    HW121992  12.407   5.634   6.689
73365SOL    HW221993  12.315   5.535   6.621
73366SOL     OW21994  12.480   0.638   8.881
73366SOL    HW121995  12.542   0.685   8.827
73366SOL    HW221996  12.511   0.547   8.880
73367SOL     OW21997   9.441   3.797   0.593
73367SOL    HW121998   9.397   3.877   0.620
73367SOL    HW221999   9.502   3.826   0.524
73368SOL     OW22000  13.051   8.274   7.419
73368SOL    HW122001  13.012   8.300   7.503
73368SOL    HW222002  13.095   8.353   7.387
73369SOL     OW22003   8.458   6.278   2.327
73369SOL    HW122004   8.463   6.351   2.389
73369SOL    HW222005   8.431   6.318   2.244
73370SOL     OW22006  10.009   6.308  13.032
73370SOL    HW122007  10.059   6.310  12.950
73370SOL    HW222008   9.990   6.215  13.046
73371SOL     OW22009  12.630   9.133   2.777
73371SOL    HW122010  12.694   9.203   2.767
73371SOL    HW222011  12.621   9.095   2.690
73372SOL     OW22012   1.443   1.995   7.528
73372SOL    HW122013   1.538   1.986   7.524
73372SOL    HW222014   1.416   2.015   7.438
73373SOL     OW22015  10.098   0.785   5.348
73373SOL    HW122016  10.027   0.840   5.314
73373SOL    HW222017  10.093   0.705   5.297
73374SOL     OW22018  14.155  11.138   3.274
73374SOL    HW122019  14.077  11.104   3.318
73374SOL    HW222020  14.125  11.216   3.228
73375SOL     OW22021   1.868   3.986  14.317
73375SOL    HW122022   1.810   4.025  14.383
73375SOL    HW222023   1.856   4.040  14.240
73376SOL     OW22024   0.762  14.120   0.815
73376SOL    HW122025   0.813  14.090   0.740
73376SOL    HW222026   0.825  14.168   0.869
73377SOL     OW22027  13.876   4.433   9.638
73377SOL    HW122028  13.911   4.385   9.563
73377SOL    HW222029  13.867   4.368   9.707
73378SOL     OW22030   2.643   4.493  13.639
73378SOL    HW122031   2.684   4.471  13.555
73378SOL    HW222032   2.689   4.440  13.703
73379SOL     OW22033   1.233   5.181  10.038
73379SOL    HW122034   1.220   5.176   9.943
73379SOL    HW222035   1.185   5.260  10.064
73380SOL     OW22036   2.349   8.165   9.884
73380SOL    HW122037   2.398   8.135   9.960
73380SOL    HW222038   2.257   8.154   9.908
73381SOL     OW22039  11.074   3.553   3.327
73381SOL    HW122040  11.035   3.468   3.311
73381SOL    HW222041  11.145   3.536   3.389
73382SOL     OW22042  12.041  13.879   1.378
73382SOL    HW122043  12.066  13.812   1.315
73382SOL    HW222044  11.955  13.909   1.349
73383SOL     OW22045   4.643   8.620   1.952
73383SOL    HW122046   4.626   8.563   1.876
73383SOL    HW222047   4.653   8.708   1.914
73384SOL     OW22048   6.385  13.993   9.547
73384SOL    HW122049   6.454  14.029   9.491
73384SOL    HW222050   6.304  14.012   9.502
73385SOL     OW22051   3.362  12.870   3.272
73385SOL    HW122052   3.419  12.883   3.196
73385SOL    HW222053   3.313  12.791   3.252
73386SOL     OW22054   5.680   4.327   5.800
73386SOL    HW122055   5.636   4.272   5.865
73386SOL    HW222056   5.772   4.328   5.829
73387SOL     OW22057   7.468   0.101   8.635
73387SOL    HW122058   7.449   0.051   8.715
73387SOL    HW222059   7.484   0.190   8.666
73388SOL     OW22060   6.188   7.951   3.916
73388SOL    HW122061   6.114   7.930   3.972
73388SOL    HW222062   6.170   8.039   3.883
73389SOL     OW22063  10.492   9.956   7.958
73389SOL    HW122064  10.580   9.945   7.992
73389SOL    HW222065  10.504   9.988   7.868
73390SOL     OW22066   5.098   4.279   9.059
73390SOL    HW122067   5.188   4.248   9.074
73390SOL    HW222068   5.088   4.277   8.963
73391SOL     OW22069  12.584  12.076   0.518
73391SOL    HW122070  12.655  12.110   0.573
73391SOL    HW222071  12.585  12.133   0.440
73392SOL     OW22072   5.703   6.104   4.266
73392SOL    HW122073   5.751   6.185   4.251
73392SOL    HW222074   5.675   6.109   4.357
73393SOL     OW22075   4.368   3.296   6.720
73393SOL    HW122076   4.327   3.358   6.780
73393SOL    HW222077   4.300   3.277   6.655
73394SOL     OW22078   2.403   3.937   4.758
73394SOL    HW122079   2.466   3.870   4.732
73394SOL    HW222080   2.319   3.906   4.724
73395SOL     OW22081   9.054   4.887  13.293
73395SOL    HW122082   8.970   4.932  13.305
73395SOL    HW222083   9.120   4.954  13.309
73396SOL     OW22084   6.195  11.508   3.042
73396SOL    HW122085   6.263  11.450   3.078
73396SOL    HW222086   6.131  11.448   3.004
73397SOL     OW22087   8.963   0.684   2.100
73397SOL    HW122088   9.030   0.738   2.059
73397SOL    HW222089   9.009   0.604   2.127
73398SOL     OW22090  14.084   2.922   2.437
73398SOL    HW122091  13.997   2.897   2.467
73398SOL    HW222092  14.075   2.931   2.342
73399SOL     OW22093   8.417   2.770   4.411
73399SOL    HW122094   8.386   2.683   4.386
73399SOL    HW222095   8.359   2.798   4.481
73400SOL     OW22096   2.734  14.461   5.596
73400SOL    HW122097   2.644  14.488   5.617
73400SOL    HW222098   2.789  14.522   5.646
73401SOL     OW22099   0.434  13.221  13.728
73401SOL    HW122100   0.409  13.137  13.691
73401SOL    HW222101   0.367  13.239  13.794
73402SOL     OW22102  12.058   8.726  13.679
73402SOL    HW122103  12.151   8.705  13.675
73402SOL    HW222104  12.048   8.802  13.621
73403SOL     OW22105   8.779   5.401   9.231
73403SOL    HW122106   8.868   5.375   9.256
73403SOL    HW222107   8.785   5.496   9.216
73404SOL     OW22108   8.056   4.828  11.588
73404SOL    HW122109   8.137   4.805  11.542
73404SOL    HW222110   8.012   4.744  11.601
73405SOL     OW22111   2.845   5.846   6.185
73405SOL    HW122112   2.796   5.879   6.260
73405SOL    HW222113   2.933   5.883   6.196
73406SOL     OW22114   2.641  11.497   7.901
73406SOL    HW122115   2.698  11.456   7.836
73406SOL    HW222116   2.645  11.590   7.880
73407SOL     OW22117  12.916   7.558   2.574
73407SOL    HW122118  12.916   7.477   2.624
73407SOL    HW222119  12.985   7.544   2.508
73408SOL     OW22120   9.036  10.859   5.952
73408SOL    HW122121   9.070  10.776   5.984
73408SOL    HW222122   8.945  10.861   5.980
73409SOL     OW22123  12.888  11.896   8.378
73409SOL    HW122124  12.893  11.845   8.298
73409SOL    HW222125  12.849  11.979   8.352
73410SOL     OW22126   6.485   2.429   5.225
73410SOL    HW122127   6.472   2.496   5.291
73410SOL    HW222128   6.396   2.404   5.198
73411SOL     OW22129   7.385   0.835   7.240
73411SOL    HW122130   7.472   0.836   7.200
73411SOL    HW222131   7.362   0.742   7.244
73412SOL     OW22132  14.357  14.641   3.643
73412SOL    HW122133  14.336  14.580   3.572
73412SOL    HW222134  14.390  14.719   3.599
73413SOL     OW22135   1.107   4.748   3.307
73413SOL    HW122136   1.046   4.741   3.233
73413SOL    HW222137   1.064   4.808   3.368
73414SOL     OW22138  12.120   0.343   0.695
73414SOL    HW122139  12.107   0.339   0.790
73414SOL    HW222140  12.136   0.252   0.670
73415SOL     OW22141   6.464   8.914   5.977
73415SOL    HW122142   6.474   8.838   6.034
73415SOL    HW222143   6.393   8.891   5.918
73416SOL     OW22144  10.760  12.193  14.465
73416SOL    HW122145  10.671  12.221  14.442
73416SOL    HW222146  10.755  12.174  14.559
73417SOL     OW22147   1.651  13.508   3.914
73417SOL    HW122148   1.575  13.464   3.952
73417SOL    HW222149   1.692  13.442   3.859
73418SOL     OW22150   4.874  12.213   2.794
73418SOL    HW122151   4.899  12.234   2.704
73418SOL    HW222152   4.952  12.174   2.832
73419SOL     OW22153   2.686  11.303   4.389
73419SOL    HW122154   2.595  11.291   4.363
73419SOL    HW222155   2.736  11.288   4.308
73420SOL     OW22156  11.252  10.491   4.444
73420SOL    HW122157  11.163  10.486   4.481
73420SOL    HW222158  11.282  10.400   4.443
73421SOL     OW22159   8.374  12.742   2.490
73421SOL    HW122160   8.354  12.835   2.482
73421SOL    HW222161   8.294  12.698   2.462
73422SOL     OW22162   1.055  10.106   1.625
73422SOL    HW122163   1.116  10.148   1.564
73422SOL    HW222164   1.056  10.014   1.599
73423SOL     OW22165   1.975  11.743   9.503
73423SOL    HW122166   2.054  11.760   9.554
73423SOL    HW222167   2.005  11.687   9.431
73424SOL     OW22168  10.998   6.233  12.998
73424SOL    HW122169  10.946   6.236  13.078
73424SOL    HW222170  10.943   6.188  12.934
73425SOL     OW22171  12.101  12.818   9.053
73425SOL    HW122172  12.011  12.851   9.048
73425SOL    HW222173  12.108  12.758   8.978
73426SOL     OW22174  14.542  11.706   5.947
73426SOL    HW122175  14.606  11.765   5.907
73426SOL    HW222176  14.594  11.639   5.991
73427SOL     OW22177   3.541   3.049  11.028
73427SOL    HW122178   3.563   3.079  11.116
73427SOL    HW222179   3.459   3.093  11.008
73428SOL     OW22180  10.340   0.127   6.689
73428SOL    HW122181  10.339   0.212   6.645
73428SOL    HW222182  10.323   0.148   6.781
73429SOL     OW22183  10.359   8.523  14.434
73429SOL    HW122184  10.404   8.491  14.512
73429SOL    HW222185  10.375   8.457  14.367
73430SOL     OW22186   3.457   9.880  11.649
73430SOL    HW122187   3.413   9.811  11.698
73430SOL    HW222188   3.507   9.929  11.715
73431SOL     OW22189   7.889   3.058  12.596
73431SOL    HW122190   7.944   2.998  12.646
73431SOL    HW222191   7.945   3.133  12.577
73432SOL     OW22192   5.667  13.353   4.293
73432SOL    HW122193   5.640  13.444   4.307
73432SOL    HW222194   5.737  13.359   4.228
73433SOL     OW22195  14.770   0.257   6.170
73433SOL    HW122196  14.678   0.278   6.187
73433SOL    HW222197  14.792   0.310   6.093
73434SOL     OW22198   9.143   1.730   7.738
73434SOL    HW122199   9.222   1.687   7.707
73434SOL    HW222200   9.172   1.779   7.815
73435SOL     OW22201   2.338  10.765   0.541
73435SOL    HW122202   2.391  10.798   0.468
73435SOL    HW222203   2.338  10.670   0.530
73436SOL     OW22204   5.177   0.286   4.723
73436SOL    HW122205   5.240   0.215   4.733
73436SOL    HW222206   5.093   0.246   4.747
73437SOL     OW22207   1.087   6.633  13.548
73437SOL    HW122208   1.121   6.695  13.612
73437SOL    HW222209   1.083   6.550  13.595
73438SOL     OW22210  12.570   0.516   4.532
73438SOL    HW122211  12.625   0.522   4.454
73438SOL    HW222212  12.604   0.441   4.580
73439SOL     OW22213  12.347   7.958  10.759
73439SOL    HW122214  12.292   8.002  10.824
73439SOL    HW222215  12.290   7.947  10.683
73440SOL     OW22216  13.901   8.697  11.507
73440SOL    HW122217  13.915   8.791  11.513
73440SOL    HW222218  13.843   8.676  11.580
73441SOL     OW22219  13.739   7.010   9.749
73441SOL    HW122220  13.802   7.076   9.720
73441SOL    HW222221  13.748   6.938   9.687
73442SOL     OW22222  13.383  11.046  12.547
73442SOL    HW122223  13.387  11.101  12.469
73442SOL    HW222224  13.424  10.964  12.521
73443SOL     OW22225   5.697   0.124   7.699
73443SOL    HW122226   5.747   0.046   7.723
73443SOL    HW222227   5.762   0.186   7.667
73444SOL     OW22228  12.080   8.066   5.248
73444SOL    HW122229  11.988   8.050   5.228
73444SOL    HW222230  12.079   8.103   5.337
73445SOL     OW22231  12.156  11.518   8.910
73445SOL    HW122232  12.120  11.548   8.994
73445SOL    HW222233  12.121  11.430   8.899
73446SOL     OW22234   6.075  10.633   4.935
73446SOL    HW122235   6.169  10.634   4.914
73446SOL    HW222236   6.053  10.540   4.942
73447SOL     OW22237  10.550   8.521  14.840
73447SOL    HW122238  10.575   8.434  14.870
73447SOL    HW222239  10.541   8.513  14.746
73448SOL     OW22240  12.774  12.815   7.301
73448SOL    HW122241  12.743  12.731   7.265
73448SOL    HW222242  12.779  12.800   7.395
73449SOL     OW22243   5.130   9.771   1.694
73449SOL    HW122244   5.215   9.810   1.713
73449SOL    HW222245   5.071   9.845   1.685
73450SOL     OW22246  12.489   5.215   7.370
73450SOL    HW122247  12.456   5.131   7.337
73450SOL    HW222248  12.561   5.190   7.428
73451SOL     OW22249  13.572   8.235  11.208
73451SOL    HW122250  13.537   8.249  11.296
73451SOL    HW222251  13.529   8.302  11.155
73452SOL     OW22252   3.027   6.740  12.653
73452SOL    HW122253   3.078   6.767  12.730
73452SOL    HW222254   3.041   6.810  12.589
73453SOL     OW22255   9.153   6.978   0.074
73453SOL    HW122256   9.082   7.028   0.116
73453SOL    HW222257   9.136   6.987  14.853
73454SOL     OW22258  14.369   9.940   3.960
73454SOL    HW122259  14.361   9.975   4.049
73454SOL    HW222260  14.347  10.014   3.903
73455SOL     OW22261   0.559   4.613  13.984
73455SOL    HW122262   0.557   4.674  13.911
73455SOL    HW222263   0.470   4.577  13.989
73456SOL     OW22264  10.200   8.756  10.345
73456SOL    HW122265  10.191   8.668  10.310
73456SOL    HW222266  10.290   8.761  10.377
73457SOL     OW22267   5.414  14.399  12.995
73457SOL    HW122268   5.459  14.345  12.930
73457SOL    HW222269   5.392  14.479  12.947
73458SOL     OW22270   3.463  10.900   5.719
73458SOL    HW122271   3.528  10.889   5.788
73458SOL    HW222272   3.453  10.812   5.681
73459SOL     OW22273   8.361  10.678   6.862
73459SOL    HW122274   8.284  10.644   6.817
73459SOL    HW222275   8.430  10.677   6.797
73460SOL     OW22276   4.788  12.826   5.201
73460SOL    HW122277   4.867  12.829   5.147
73460SOL    HW222278   4.817  12.787   5.283
73461SOL     OW22279   7.542   4.028   4.579
73461SOL    HW122280   7.611   3.975   4.539
73461SOL    HW222281   7.546   4.006   4.672
73462SOL     OW22282   1.665  14.841   9.914
73462SOL    HW122283   1.705  14.856   9.829
73462SOL    HW222284   1.725   0.009   9.976
73463SOL     OW22285   9.649   1.768  11.705
73463SOL    HW122286   9.682   1.855  11.685
73463SOL    HW222287   9.554   1.777  11.704
73464SOL     OW22288   7.528   6.808  14.266
73464SOL    HW122289   7.557   6.848  14.185
73464SOL    HW222290   7.443   6.769  14.244
73465SOL     OW22291   3.317  14.672  13.408
73465SOL    HW122292   3.366  14.714  13.478
73465SOL    HW222293   3.289  14.744  13.351
73466SOL     OW22294  13.633   4.773   7.962
73466SOL    HW122295  13.600   4.693   8.004
73466SOL    HW222296  13.622   4.840   8.029
73467SOL     OW22297   8.060  11.659   3.016
73467SOL    HW122298   8.007  11.584   3.043
73467SOL    HW222299   8.125  11.669   3.085
73468SOL     OW22300  10.487   7.822   8.767
73468SOL    HW122301  10.491   7.729   8.789
73468SOL    HW222302  10.554   7.862   8.824
73469SOL     OW22303   8.251  12.296  14.400
73469SOL    HW122304   8.222  12.378  14.361
73469SOL    HW222305   8.258  12.235  14.327
73470SOL     OW22306  10.385  12.349  10.346
73470SOL    HW122307  10.420  12.412  10.409
73470SOL    HW222308  10.380  12.266  10.395
73471SOL     OW22309   7.453   1.718   8.282
73471SOL    HW122310   7.383   1.762   8.235
73471SOL    HW222311   7.485   1.783   8.345
73472SOL     OW22312  10.118   5.700   1.134
73472SOL    HW122313  10.044   5.655   1.176
73472SOL    HW222314  10.194   5.674   1.186
73473SOL     OW22315   0.873   6.488   7.010
73473SOL    HW122316   0.913   6.539   6.939
73473SOL    HW222317   0.947   6.455   7.060
73474SOL     OW22318   7.758   6.286   5.843
73474SOL    HW122319   7.747   6.247   5.930
73474SOL    HW222320   7.848   6.317   5.843
73475SOL     OW22321   6.480  10.261   0.393
73475SOL    HW122322   6.493  10.297   0.305
73475SOL    HW222323   6.464  10.167   0.379
73476SOL     OW22324   4.829   7.436  14.586
73476SOL    HW122325   4.793   7.367  14.642
73476SOL    HW222326   4.753   7.488  14.560
73477SOL     OW22327  12.184   1.872  11.344
73477SOL    HW122328  12.268   1.829  11.362
73477SOL    HW222329  12.162   1.844  11.255
73478SOL     OW22330   4.041  11.270   3.254
73478SOL    HW122331   4.130  11.236   3.268
73478SOL    HW222332   4.052  11.343   3.194
73479SOL     OW22333   7.568   8.612  11.569
73479SOL    HW122334   7.567   8.600  11.474
73479SOL    HW222335   7.660   8.599  11.593
73480SOL     OW22336  10.772   7.383  11.862
73480SOL    HW122337  10.724   7.461  11.889
73480SOL    HW222338  10.735   7.312  11.916
73481SOL     OW22339   4.586   7.983  13.549
73481SOL    HW122340   4.681   7.974  13.546
73481SOL    HW222341   4.571   8.064  13.596
73482SOL     OW22342  12.466  14.605   1.128
73482SOL    HW122343  12.466  14.700   1.135
73482SOL    HW222344  12.383  14.579   1.168
73483SOL     OW22345  10.016   5.298  13.329
73483SOL    HW122346   9.982   5.383  13.355
73483SOL    HW222347  10.110   5.303  13.346
73484SOL     OW22348   7.576   3.887  14.488
73484SOL    HW122349   7.517   3.914  14.558
73484SOL    HW222350   7.532   3.815  14.445
73485SOL     OW22351   5.443  10.310  10.287
73485SOL    HW122352   5.372  10.324  10.349
73485SOL    HW222353   5.471  10.220  10.302
73486SOL     OW22354   9.558  12.614   1.201
73486SOL    HW122355   9.482  12.615   1.141
73486SOL    HW222356   9.553  12.529   1.244
73487SOL     OW22357  11.762   0.122   4.011
73487SOL    HW122358  11.727   0.205   4.042
73487SOL    HW222359  11.688   0.078   3.969
73488SOL     OW22360   3.162   0.482   4.907
73488SOL    HW122361   3.119   0.567   4.899
73488SOL    HW222362   3.173   0.452   4.817
73489SOL     OW22363   5.310  13.429   7.661
73489SOL    HW122364   5.328  13.367   7.591
73489SOL    HW222365   5.284  13.375   7.735
73490SOL     OW22366   9.620   1.720  12.216
73490SOL    HW122367   9.591   1.667  12.290
73490SOL    HW222368   9.665   1.658  12.159
73491SOL     OW22369   8.606   3.607   0.172
73491SOL    HW122370   8.636   3.685   0.219
73491SOL    HW222371   8.511   3.614   0.173
73492SOL     OW22372  10.921   6.396   8.196
73492SOL    HW122373  10.963   6.443   8.267
73492SOL    HW222374  10.842   6.358   8.235
73493SOL     OW22375  11.445   8.692   9.394
73493SOL    HW122376  11.372   8.708   9.454
73493SOL    HW222377  11.456   8.597   9.396
73494SOL     OW22378   2.226   6.214   5.991
73494SOL    HW122379   2.187   6.207   5.904
73494SOL    HW222380   2.293   6.146   5.992
73495SOL     OW22381  12.983   4.159   2.394
73495SOL    HW122382  12.979   4.106   2.315
73495SOL    HW222383  12.917   4.121   2.452
73496SOL     OW22384  12.108  10.842  11.631
73496SOL    HW122385  12.016  10.815  11.634
73496SOL    HW222386  12.146  10.804  11.711
73497SOL     OW22387   8.924   8.248   9.342
73497SOL    HW122388   8.903   8.339   9.363
73497SOL    HW222389   8.884   8.197   9.413
73498SOL     OW22390   7.910   6.287  14.251
73498SOL    HW122391   7.917   6.348  14.324
73498SOL    HW222392   7.825   6.246  14.262
73499SOL     OW22393   5.929  14.469   6.805
73499SOL    HW122394   5.834  14.475   6.818
73499SOL    HW222395   5.966  14.494   6.889
73500SOL     OW22396   0.578   0.468   4.655
73500SOL    HW122397   0.547   0.398   4.597
73500SOL    HW222398   0.508   0.533   4.652
73501SOL     OW22399  14.080  14.137   8.427
73501SOL    HW122400  14.033  14.061   8.392
73501SOL    HW222401  14.145  14.157   8.360
73502SOL     OW22402   4.327  10.104   8.448
73502SOL    HW122403   4.327  10.104   8.352
73502SOL    HW222404   4.417  10.078   8.471
73503SOL     OW22405   3.263   7.988   1.489
73503SOL    HW122406   3.176   7.953   1.466
73503SOL    HW222407   3.318   7.910   1.494
73504SOL     OW22408   7.143   1.634   6.656
73504SOL    HW122409   7.072   1.698   6.666
73504SOL    HW222410   7.117   1.582   6.580
73505SOL     OW22411  13.590   6.567   8.377
73505SOL    HW122412  13.559   6.573   8.287
73505SOL    HW222413  13.515   6.596   8.430
73506SOL     OW22414   2.089   8.301   5.577
73506SOL    HW122415   2.042   8.354   5.642
73506SOL    HW222416   2.084   8.352   5.497
73507SOL     OW22417  12.971   2.993   6.210
73507SOL    HW122418  12.883   3.019   6.184
73507SOL    HW222419  12.982   2.905   6.172
73508SOL     OW22420  13.821  11.965  13.876
73508SOL    HW122421  13.734  11.991  13.846
73508SOL    HW222422  13.881  12.026  13.833
73509SOL     OW22423  13.237   6.803   7.035
73509SOL    HW122424  13.234   6.893   7.066
73509SOL    HW222425  13.330   6.782   7.031
73510SOL     OW22426  14.001  12.713  10.161
73510SOL    HW122427  14.029  12.622  10.159
73510SOL    HW222428  13.910  12.711  10.131
73511SOL     OW22429  10.570  10.799  14.036
73511SOL    HW122430  10.551  10.854  14.112
73511SOL    HW222431  10.586  10.712  14.072
73512SOL     OW22432   7.222  10.077   3.633
73512SOL    HW122433   7.315  10.074   3.614
73512SOL    HW222434   7.214  10.044   3.722
73513SOL     OW22435   2.526  11.745   8.100
73513SOL    HW122436   2.609  11.768   8.142
73513SOL    HW222437   2.551  11.709   8.015
73514SOL     OW22438   2.596   3.809  12.085
73514SOL    HW122439   2.567   3.826  11.996
73514SOL    HW222440   2.567   3.719  12.103
73515SOL     OW22441   8.660  10.319   6.506
73515SOL    HW122442   8.667  10.407   6.542
73515SOL    HW222443   8.649  10.331   6.412
73516SOL     OW22444   8.377   0.014   0.461
73516SOL    HW122445   8.393   0.063   0.381
73516SOL    HW222446   8.291   0.043   0.491
73517SOL     OW22447   1.603   2.684  13.526
73517SOL    HW122448   1.552   2.681  13.445
73517SOL    HW222449   1.569   2.611  13.578
73518SOL     OW22450   3.281  11.893   6.994
73518SOL    HW122451   3.194  11.924   6.969
73518SOL    HW222452   3.281  11.800   6.972
73519SOL     OW22453   4.074  11.765   5.056
73519SOL    HW122454   4.096  11.847   5.099
73519SOL    HW222455   4.155  11.714   5.057
73520SOL     OW22456   6.234   6.070   7.728
73520SOL    HW122457   6.201   5.988   7.691
73520SOL    HW222458   6.193   6.139   7.676
73521SOL     OW22459  13.621  12.925   2.923
73521SOL    HW122460  13.703  12.954   2.884
73521SOL    HW222461  13.561  12.999   2.912
73522SOL     OW22462  14.318   7.186   1.780
73522SOL    HW122463  14.274   7.210   1.698
73522SOL    HW222464  14.381   7.119   1.754
73523SOL     OW22465   9.668   4.041  14.681
73523SOL    HW122466   9.717   4.029  14.599
73523SOL    HW222467   9.580   4.010  14.661
73524SOL     OW22468   7.898  11.785   7.867
73524SOL    HW122469   7.970  11.825   7.915
73524SOL    HW222470   7.823  11.793   7.926
73525SOL     OW22471   7.743   9.164  13.589
73525SOL    HW122472   7.813   9.130  13.644
73525SOL    HW222473   7.784   9.178  13.504
73526SOL     OW22474  11.843  11.512   9.689
73526SOL    HW122475  11.874  11.552   9.770
73526SOL    HW222476  11.767  11.565   9.664
73527SOL     OW22477  13.662   3.034   9.177
73527SOL    HW122478  13.618   3.116   9.199
73527SOL    HW222479  13.722   3.058   9.106
73528SOL     OW22480   6.723  11.632   2.734
73528SOL    HW122481   6.698  11.589   2.816
73528SOL    HW222482   6.791  11.575   2.697
73529SOL     OW22483   0.695  10.202  11.610
73529SOL    HW122484   0.743  10.154  11.543
73529SOL    HW222485   0.702  10.294  11.584
73530SOL     OW22486  12.678   6.601   0.571
73530SOL    HW122487  12.603   6.561   0.616
73530SOL    HW222488  12.753   6.549   0.598
73531SOL     OW22489   8.950   9.963   0.199
73531SOL    HW122490   8.872   9.956   0.255
73531SOL    HW222491   9.016  10.005   0.255
73532SOL     OW22492   2.653   4.325   8.927
73532SOL    HW122493   2.700   4.409   8.931
73532SOL    HW222494   2.564   4.346   8.955
73533SOL     OW22495  10.293   1.279   8.447
73533SOL    HW122496  10.272   1.186   8.438
73533SOL    HW222497  10.358   1.296   8.379
73534SOL     OW22498   4.732   8.485   2.445
73534SOL    HW122499   4.706   8.555   2.385
73534SOL    HW222500   4.754   8.531   2.527
73535SOL     OW22501   2.293  13.733   9.498
73535SOL    HW122502   2.372  13.762   9.453
73535SOL    HW222503   2.222  13.749   9.436
73536SOL     OW22504   4.855  13.088   1.792
73536SOL    HW122505   4.782  13.061   1.737
73536SOL    HW222506   4.815  13.143   1.860
73537SOL     OW22507   0.330   2.946   6.480
73537SOL    HW122508   0.390   2.882   6.443
73537SOL    HW222509   0.361   3.030   6.446
73538SOL     OW22510   8.509   9.189  13.952
73538SOL    HW122511   8.512   9.256  14.020
73538SOL    HW222512   8.552   9.113  13.992
73539SOL     OW22513  11.069   2.673   0.263
73539SOL    HW122514  11.036   2.611   0.198
73539SOL    HW222515  11.145   2.629   0.302
73540SOL     OW22516   4.007   7.614   2.522
73540SOL    HW122517   3.918   7.650   2.517
73540SOL    HW222518   4.041   7.646   2.605
73541SOL     OW22519   3.053   2.316   0.438
73541SOL    HW122520   3.100   2.252   0.384
73541SOL    HW222521   3.053   2.277   0.525
73542SOL     OW22522  13.701  10.778   7.043
73542SOL    HW122523  13.756  10.818   7.110
73542SOL    HW222524  13.749  10.700   7.016
73543SOL     OW22525   7.527   2.971  11.275
73543SOL    HW122526   7.576   3.049  11.246
73543SOL    HW222527   7.591   2.919  11.322
73544SOL     OW22528   1.769   3.650   4.021
73544SOL    HW122529   1.853   3.677   4.058
73544SOL    HW222530   1.790   3.573   3.969
73545SOL     OW22531   0.084   3.178  12.407
73545SOL    HW122532   0.143   3.216  12.472
73545SOL    HW222533   0.135   3.180  12.326
73546SOL     OW22534   1.307   1.750   6.767
73546SOL    HW122535   1.325   1.694   6.843
73546SOL    HW222536   1.323   1.693   6.692
73547SOL     OW22537   9.731   5.755   3.160
73547SOL    HW122538   9.744   5.847   3.183
73547SOL    HW222539   9.737   5.753   3.064
73548SOL     OW22540   8.640   0.339  13.130
73548SOL    HW122541   8.643   0.388  13.212
73548SOL    HW222542   8.605   0.253  13.155
73549SOL     OW22543   7.208  10.953  13.858
73549SOL    HW122544   7.155  10.891  13.908
73549SOL    HW222545   7.286  10.904  13.832
73550SOL     OW22546  14.598   1.087   6.796
73550SOL    HW122547  14.604   1.181   6.817
73550SOL    HW222548  14.612   1.044   6.880
73551SOL     OW22549   6.261   4.838  10.670
73551SOL    HW122550   6.235   4.930  10.665
73551SOL    HW222551   6.335   4.831  10.608
73552SOL     OW22552  12.392   9.850  14.246
73552SOL    HW122553  12.319   9.789  14.242
73552SOL    HW222554  12.414   9.868  14.154
73553SOL     OW22555  11.252   6.018  10.701
73553SOL    HW122556  11.340   5.985  10.719
73553SOL    HW222557  11.215   5.954  10.640
73554SOL     OW22558   3.628   2.954   6.014
73554SOL    HW122559   3.607   3.048   6.017
73554SOL    HW222560   3.703   2.949   5.955
73555SOL     OW22561  10.394   2.262   6.695
73555SOL    HW122562  10.378   2.352   6.666
73555SOL    HW222563  10.324   2.246   6.759
73556SOL     OW22564   0.930  10.684   6.067
73556SOL    HW122565   0.982  10.610   6.099
73556SOL    HW222566   0.996  10.748   6.039
73557SOL     OW22567   4.773   6.518  12.800
73557SOL    HW122568   4.768   6.494  12.708
73557SOL    HW222569   4.847   6.578  12.805
73558SOL     OW22570   8.963  13.959   7.909
73558SOL    HW122571   9.006  13.874   7.908
73558SOL    HW222572   8.870  13.939   7.923
73559SOL     OW22573   1.041  13.966   8.278
73559SOL    HW122574   1.071  13.879   8.251
73559SOL    HW222575   1.103  14.027   8.238
73560SOL     OW22576  14.692   1.475  12.279
73560SOL    HW122577  14.657   1.427  12.205
73560SOL    HW222578  14.618   1.482  12.340
73561SOL     OW22579   0.163   9.589  10.700
73561SOL    HW122580   0.093   9.634  10.749
73561SOL    HW222581   0.152   9.497  10.723
73562SOL     OW22582   2.670  14.227  10.096
73562SOL    HW122583   2.603  14.294  10.106
73562SOL    HW222584   2.630  14.161  10.040
73563SOL     OW22585   7.262  10.569   6.705
73563SOL    HW122586   7.316  10.569   6.625
73563SOL    HW222587   7.325  10.584   6.776
73564SOL     OW22588   5.909   6.070  10.962
73564SOL    HW122589   5.960   6.015  11.021
73564SOL    HW222590   5.923   6.159  10.994
73565SOL     OW22591  13.209   5.862  13.742
73565SOL    HW122592  13.174   5.778  13.712
73565SOL    HW222593  13.304   5.848  13.746
73566SOL     OW22594  13.773   5.469   4.990
73566SOL    HW122595  13.843   5.493   5.052
73566SOL    HW222596  13.713   5.416   5.043
73567SOL     OW22597   0.189   0.156  10.629
73567SOL    HW122598   0.121   0.221  10.612
73567SOL    HW222599   0.143   0.073  10.634
73568SOL     OW22600  13.845  13.378  13.987
73568SOL    HW122601  13.936  13.349  13.982
73568SOL    HW222602  13.794  13.303  13.958
73569SOL     OW22603   0.495   1.440   5.239
73569SOL    HW122604   0.432   1.439   5.311
73569SOL    HW222605   0.442   1.450   5.160
73570SOL     OW22606  13.954   3.437   2.077
73570SOL    HW122607  13.948   3.347   2.046
73570SOL    HW222608  14.019   3.435   2.147
73571SOL     OW22609   6.761   3.426   7.018
73571SOL    HW122610   6.852   3.408   7.045
73571SOL    HW222611   6.767   3.505   6.965
73572SOL     OW22612   7.013   0.863   5.716
73572SOL    HW122613   6.989   0.938   5.662
73572SOL    HW222614   6.932   0.813   5.726
73573SOL     OW22615  14.698   0.954  14.574
73573SOL    HW122616  14.673   0.862  14.565
73573SOL    HW222617  14.680   0.992  14.488
73574SOL     OW22618   1.418   0.043  14.031
73574SOL    HW122619   1.428   0.051  13.936
73574SOL    HW222620   1.378   0.126  14.058
73575SOL     OW22621   7.230   1.117   5.531
73575SOL    HW122622   7.296   1.177   5.565
73575SOL    HW222623   7.261   1.092   5.444
73576SOL     OW22624   8.193  11.441   6.024
73576SOL    HW122625   8.141  11.363   6.045
73576SOL    HW222626   8.187  11.495   6.103
73577SOL     OW22627   2.243   6.914   8.763
73577SOL    HW122628   2.201   6.831   8.786
73577SOL    HW222629   2.279   6.947   8.845
73578SOL     OW22630  10.944  12.705  10.061
73578SOL    HW122631  10.887  12.630  10.075
73578SOL    HW222632  11.010  12.699  10.130
73579SOL     OW22633   0.197   6.417   2.960
73579SOL    HW122634   0.142   6.445   2.886
73579SOL    HW222635   0.150   6.344   2.999
73580SOL     OW22636   2.572   8.811   1.007
73580SOL    HW122637   2.667   8.800   1.008
73580SOL    HW222638   2.549   8.835   1.096
73581SOL     OW22639  11.428   1.875  14.125
73581SOL    HW122640  11.470   1.839  14.202
73581SOL    HW222641  11.426   1.970  14.140
73582SOL     OW22642   9.909   6.303  13.958
73582SOL    HW122643   9.986   6.269  13.913
73582SOL    HW222644   9.885   6.234  14.019
73583SOL     OW22645   2.582  11.900   3.143
73583SOL    HW122646   2.526  11.969   3.178
73583SOL    HW222647   2.529  11.820   3.149
73584SOL     OW22648   6.486  14.339  13.311
73584SOL    HW122649   6.458  14.249  13.291
73584SOL    HW222650   6.544  14.363  13.239
73585SOL     OW22651   9.282   6.024  13.041
73585SOL    HW122652   9.201   5.979  13.017
73585SOL    HW222653   9.274   6.110  13.001
73586SOL     OW22654   2.105   6.500  12.352
73586SOL    HW122655   2.030   6.466  12.303
73586SOL    HW222656   2.140   6.570  12.297
73587SOL     OW22657   6.474   7.968  12.482
73587SOL    HW122658   6.420   8.001  12.554
73587SOL    HW222659   6.554   8.021  12.485
73588SOL     OW22660  13.623   9.133   8.723
73588SOL    HW122661  13.575   9.168   8.648
73588SOL    HW222662  13.700   9.091   8.685
73589SOL     OW22663   3.066   5.690  11.884
73589SOL    HW122664   3.104   5.659  11.802
73589SOL    HW222665   3.029   5.612  11.925
73590SOL     OW22666   1.504   7.491   3.552
73590SOL    HW122667   1.441   7.421   3.534
73590SOL    HW222668   1.557   7.459   3.624
73591SOL     OW22669   5.601   0.554   2.456
73591SOL    HW122670   5.528   0.514   2.408
73591SOL    HW222671   5.579   0.540   2.548
73592SOL     OW22672   2.692   3.578   7.196
73592SOL    HW122673   2.666   3.495   7.155
73592SOL    HW222674   2.646   3.645   7.147
73593SOL     OW22675  10.064   6.533  14.027
73593SOL    HW122676   9.996   6.469  14.007
73593SOL    HW222677  10.049   6.556  14.118
73594SOL     OW22678   7.564   1.465   5.868
73594SOL    HW122679   7.515   1.464   5.950
73594SOL    HW222680   7.542   1.549   5.828
73595SOL     OW22681  14.612   2.222   0.798
73595SOL    HW122682  14.546   2.155   0.782
73595SOL    HW222683  14.612   2.275   0.718
73596SOL     OW22684   6.515   3.781   9.401
73596SOL    HW122685   6.568   3.855   9.431
73596SOL    HW222686   6.534   3.774   9.308
73597SOL     OW22687  13.465  13.608   8.282
73597SOL    HW122688  13.477  13.596   8.376
73597SOL    HW222689  13.475  13.703   8.268
73598SOL     OW22690  13.303   6.782   5.896
73598SOL    HW122691  13.237   6.836   5.852
73598SOL    HW222692  13.381   6.792   5.842
73599SOL     OW22693  13.942   9.018   6.873
73599SOL    HW122694  13.902   9.047   6.955
73599SOL    HW222695  13.868   8.987   6.820
73600SOL     OW22696   4.314  10.157   6.015
73600SOL    HW122697   4.296  10.237   5.967
73600SOL    HW222698   4.393  10.177   6.066
73601SOL     OW22699  14.091   8.305  14.310
73601SOL    HW122700  14.146   8.229  14.329
73601SOL    HW222701  14.142   8.357  14.248
73602SOL     OW22702   4.802  10.747   6.055
73602SOL    HW122703   4.832  10.835   6.077
73602SOL    HW222704   4.706  10.753   6.055
73603SOL     OW22705   6.965   9.070   1.762
73603SOL    HW122706   6.872   9.052   1.751
73603SOL    HW222707   7.005   8.984   1.773
73604SOL     OW22708   6.466   4.970   6.503
73604SOL    HW122709   6.397   5.033   6.525
73604SOL    HW222710   6.523   4.969   6.580
73605SOL     OW22711  14.532   0.770   3.129
73605SOL    HW122712  14.464   0.718   3.084
73605SOL    HW222713  14.526   0.857   3.090
73606SOL     OW22714   8.191   9.937   4.635
73606SOL    HW122715   8.238   9.917   4.554
73606SOL    HW222716   8.243   9.896   4.704
73607SOL     OW22717  11.063   5.435   5.534
73607SOL    HW122718  11.014   5.472   5.461
73607SOL    HW222719  11.018   5.353   5.554
73608SOL     OW22720   8.671  12.437   7.908
73608SOL    HW122721   8.682  12.484   7.825
73608SOL    HW222722   8.576  12.427   7.917
73609SOL     OW22723   9.252   4.448   3.579
73609SOL    HW122724   9.283   4.530   3.541
73609SOL    HW222725   9.328   4.414   3.627
73610SOL     OW22726   7.939   7.254   0.612
73610SOL    HW122727   7.944   7.345   0.641
73610SOL    HW222728   7.891   7.256   0.530
73611SOL     OW22729  11.147   4.982   6.754
73611SOL    HW122730  11.224   4.995   6.809
73611SOL    HW222731  11.171   5.020   6.670
73612SOL     OW22732   6.071   1.348  14.315
73612SOL    HW122733   6.042   1.431  14.353
73612SOL    HW222734   6.151   1.326  14.364
73613SOL     OW22735   2.232   8.498   9.752
73613SOL    HW122736   2.288   8.488   9.675
73613SOL    HW222737   2.188   8.582   9.739
73614SOL     OW22738   3.182   9.452   0.436
73614SOL    HW122739   3.128   9.396   0.380
73614SOL    HW222740   3.213   9.522   0.378
73615SOL     OW22741   3.601  12.219   7.488
73615SOL    HW122742   3.672  12.174   7.533
73615SOL    HW222743   3.541  12.244   7.559
73616SOL     OW22744   2.462   6.892   7.380
73616SOL    HW122745   2.385   6.889   7.323
73616SOL    HW222746   2.530   6.846   7.331
73617SOL     OW22747   7.568   4.563  14.184
73617SOL    HW122748   7.492   4.507  14.202
73617SOL    HW222749   7.592   4.598  14.270
73618SOL     OW22750  12.962  10.817   8.628
73618SOL    HW122751  12.928  10.737   8.587
73618SOL    HW222752  12.973  10.793   8.721
73619SOL     OW22753   5.957  11.800  13.589
73619SOL    HW122754   5.878  11.841  13.553
73619SOL    HW222755   5.982  11.735  13.523
73620SOL     OW22756   2.929  14.084   9.808
73620SOL    HW122757   2.977  14.010   9.769
73620SOL    HW222758   2.981  14.161   9.784
73621SOL     OW22759   5.096  13.735   0.732
73621SOL    HW122760   5.151  13.666   0.769
73621SOL    HW222761   5.050  13.693   0.660
73622SOL     OW22762   3.651   0.090  12.964
73622SOL    HW122763   3.746   0.081  12.958
73622SOL    HW222764   3.620   0.086  12.873
73623SOL     OW22765  11.988  12.760   3.109
73623SOL    HW122766  12.032  12.838   3.143
73623SOL    HW222767  12.019  12.751   3.019
73624SOL     OW22768  11.591   6.809   2.423
73624SOL    HW122769  11.532   6.884   2.421
73624SOL    HW222770  11.600   6.788   2.516
73625SOL     OW22771   4.807   8.477   3.356
73625SOL    HW122772   4.843   8.544   3.414
73625SOL    HW222773   4.840   8.395   3.392
73626SOL     OW22774  12.774   7.289  13.766
73626SOL    HW122775  12.857   7.335  13.757
73626SOL    HW222776  12.790   7.224  13.835
73627SOL     OW22777  11.040   1.273   6.578
73627SOL    HW122778  11.065   1.238   6.493
73627SOL    HW222779  10.952   1.238   6.593
73628SOL     OW22780  14.218   1.897   7.984
73628SOL    HW122781  14.213   1.992   7.997
73628SOL    HW222782  14.234   1.861   8.071
73629SOL     OW22783   3.659  11.164   7.175
73629SOL    HW122784   3.597  11.096   7.200
73629SOL    HW222785   3.610  11.246   7.184
73630SOL     OW22786   2.834   0.426  11.672
73630SOL    HW122787   2.906   0.368  11.693
73630SOL    HW222788   2.783   0.378  11.606
73631SOL     OW22789  11.235   9.887  11.635
73631SOL    HW122790  11.174   9.884  11.709
73631SOL    HW222791  11.243   9.797  11.606
73632SOL     OW22792  13.252   4.688   9.817
73632SOL    HW122793  13.178   4.745   9.796
73632SOL    HW222794  13.256   4.691   9.913
73633SOL     OW22795  11.349  13.407   3.075
73633SOL    HW122796  11.383  13.486   3.032
73633SOL    HW222797  11.271  13.384   3.024
73634SOL     OW22798   4.026  14.399   5.621
73634SOL    HW122799   3.963  14.334   5.589
73634SOL    HW222800   3.997  14.419   5.710
73635SOL     OW22801  10.626  14.385   1.645
73635SOL    HW122802  10.650  14.365   1.554
73635SOL    HW222803  10.547  14.438   1.638
73636SOL     OW22804  13.719   5.350   1.979
73636SOL    HW122805  13.674   5.266   1.984
73636SOL    HW222806  13.689   5.389   1.897
73637SOL     OW22807   7.344   7.163   2.580
73637SOL    HW122808   7.335   7.186   2.673
73637SOL    HW222809   7.436   7.178   2.560
73638SOL     OW22810   2.881  10.052  11.800
73638SOL    HW122811   2.923  10.107  11.734
73638SOL    HW222812   2.824  10.112  11.849
73639SOL     OW22813  11.723   5.906   5.165
73639SOL    HW122814  11.680   5.951   5.238
73639SOL    HW222815  11.664   5.833   5.144
73640SOL     OW22816   5.035   5.123   7.570
73640SOL    HW122817   5.014   5.098   7.480
73640SOL    HW222818   4.959   5.174   7.598
73641SOL     OW22819   1.135   6.183   2.750
73641SOL    HW122820   1.214   6.129   2.759
73641SOL    HW222821   1.169   6.273   2.744
73642SOL     OW22822   1.082   8.397   7.630
73642SOL    HW122823   1.097   8.421   7.722
73642SOL    HW222824   0.996   8.432   7.610
73643SOL     OW22825  14.703  13.813   0.079
73643SOL    HW122826  14.704  13.849  14.862
73643SOL    HW222827  14.794  13.788   0.095
73644SOL     OW22828  11.276   8.915   8.863
73644SOL    HW122829  11.206   8.916   8.929
73644SOL    HW222830  11.355   8.895   8.912
73645SOL     OW22831   1.316   5.319  10.338
73645SOL    HW122832   1.264   5.271  10.402
73645SOL    HW222833   1.356   5.390  10.387
73646SOL     OW22834   6.567   7.326   9.677
73646SOL    HW122835   6.637   7.298   9.736
73646SOL    HW222836   6.497   7.262   9.691
73647SOL     OW22837   2.615   0.010   1.986
73647SOL    HW122838   2.608  14.792   1.955
73647SOL    HW222839   2.525   0.036   2.005
73648SOL     OW22840  11.884   9.865   5.519
73648SOL    HW122841  11.870   9.859   5.613
73648SOL    HW222842  11.861   9.955   5.496
73649SOL     OW22843   5.256   0.961  10.702
73649SOL    HW122844   5.313   0.884  10.704
73649SOL    HW222845   5.247   0.983  10.610
73650SOL     OW22846   3.963  12.031  13.427
73650SOL    HW122847   3.872  12.055  13.445
73650SOL    HW222848   3.969  11.940  13.456
73651SOL     OW22849  11.628   2.246   7.635
73651SOL    HW122850  11.576   2.188   7.578
73651SOL    HW222851  11.606   2.218   7.724
73652SOL     OW22852   6.223   5.325   6.997
73652SOL    HW122853   6.313   5.358   6.996
73652SOL    HW222854   6.232   5.230   7.005
73653SOL     OW22855  10.482  11.890  10.045
73653SOL    HW122856  10.472  11.982  10.071
73653SOL    HW222857  10.396  11.852  10.062
73654SOL     OW22858  14.477   4.315   0.162
73654SOL    HW122859  14.465   4.287   0.253
73654SOL    HW222860  14.418   4.260   0.112
73655SOL     OW22861  14.470  11.943   4.308
73655SOL    HW122862  14.465  11.895   4.391
73655SOL    HW222863  14.457  11.876   4.241
73656SOL     OW22864   3.545   5.203   3.001
73656SOL    HW122865   3.508   5.193   3.089
73656SOL    HW222866   3.621   5.260   3.013
73657SOL     OW22867   1.973   4.775  11.683
73657SOL    HW122868   1.956   4.748  11.773
73657SOL    HW222869   1.886   4.785  11.644
73658SOL     OW22870   2.165  14.362  12.441
73658SOL    HW122871   2.073  14.342  12.423
73658SOL    HW222872   2.205  14.277  12.460
73659SOL     OW22873  13.378  12.156   5.189
73659SOL    HW122874  13.419  12.074   5.161
73659SOL    HW222875  13.302  12.129   5.241
73660SOL     OW22876   8.630   3.472   0.977
73660SOL    HW122877   8.710   3.428   0.950
73660SOL    HW222878   8.562   3.437   0.919
73661SOL     OW22879   9.549  14.244   0.772
73661SOL    HW122880   9.517  14.157   0.795
73661SOL    HW222881   9.636  14.249   0.813
73662SOL     OW22882   4.470   5.530   3.147
73662SOL    HW122883   4.451   5.624   3.147
73662SOL    HW222884   4.555   5.523   3.191
73663SOL     OW22885   8.634   2.036   2.049
73663SOL    HW122886   8.567   2.103   2.059
73663SOL    HW222887   8.631   1.987   2.131
73664SOL     OW22888  13.101  11.432  10.985
73664SOL    HW122889  13.171  11.428  11.050
73664SOL    HW222890  13.142  11.475  10.910
73665SOL     OW22891  11.693   1.842  12.399
73665SOL    HW122892  11.598   1.842  12.389
73665SOL    HW222893  11.714   1.751  12.422
73666SOL     OW22894   1.204   6.655   4.021
73666SOL    HW122895   1.181   6.607   4.101
73666SOL    HW222896   1.293   6.627   4.001
73667SOL     OW22897  12.443  12.447   7.057
73667SOL    HW122898  12.457  12.462   7.151
73667SOL    HW222899  12.501  12.373   7.036
73668SOL     OW22900   7.357  11.392   8.738
73668SOL    HW122901   7.405  11.371   8.659
73668SOL    HW222902   7.297  11.463   8.712
73669SOL     OW22903   5.747   6.755   4.951
73669SOL    HW122904   5.809   6.683   4.936
73669SOL    HW222905   5.803   6.831   4.967
73670SOL     OW22906   8.421   6.405  11.608
73670SOL    HW122907   8.441   6.498  11.607
73670SOL    HW222908   8.349   6.397  11.670
73671SOL     OW22909   9.668  13.297   3.112
73671SOL    HW122910   9.606  13.369   3.111
73671SOL    HW222911   9.727  13.315   3.039
73672SOL     OW22912   0.468   6.253  13.575
73672SOL    HW122913   0.442   6.213  13.492
73672SOL    HW222914   0.449   6.346  13.563
73673SOL     OW22915   6.000   1.540   4.434
73673SOL    HW122916   6.038   1.614   4.386
73673SOL    HW222917   6.050   1.536   4.515
73674SOL     OW22918   6.434   4.514  12.172
73674SOL    HW122919   6.466   4.436  12.216
73674SOL    HW222920   6.485   4.586  12.210
73675SOL     OW22921  14.081   9.540  11.666
73675SOL    HW122922  14.106   9.456  11.626
73675SOL    HW222923  14.108   9.606  11.602
73676SOL     OW22924   0.037  10.904  13.636
73676SOL    HW122925   0.123  10.941  13.615
73676SOL    HW222926   0.050  10.810  13.633
73677SOL     OW22927   5.143   7.872   1.055
73677SOL    HW122928   5.166   7.938   1.121
73677SOL    HW222929   5.173   7.789   1.093
73678SOL     OW22930   8.766   3.714   6.356
73678SOL    HW122931   8.754   3.748   6.267
73678SOL    HW222932   8.859   3.726   6.374
73679SOL     OW22933  10.317   4.164   6.794
73679SOL    HW122934  10.348   4.078   6.767
73679SOL    HW222935  10.247   4.185   6.733
73680SOL     OW22936   3.641  13.877   6.785
73680SOL    HW122937   3.735  13.867   6.800
73680SOL    HW222938   3.635  13.938   6.711
73681SOL     OW22939   7.786   5.075   3.125
73681SOL    HW122940   7.796   4.985   3.096
73681SOL    HW222941   7.739   5.069   3.208
73682SOL     OW22942   3.089   1.735   8.262
73682SOL    HW122943   3.101   1.780   8.178
73682SOL    HW222944   3.161   1.672   8.265
73683SOL     OW22945   4.371  12.693   7.360
73683SOL    HW122946   4.292  12.674   7.309
73683SOL    HW222947   4.437  12.634   7.325
73684SOL     OW22948   3.715  14.338  11.778
73684SOL    HW122949   3.690  14.301  11.693
73684SOL    HW222950   3.807  14.313  11.788
73685SOL     OW22951  10.141   7.877  13.653
73685SOL    HW122952  10.154   7.910  13.742
73685SOL    HW222953  10.165   7.950  13.596
73686SOL     OW22954   3.912   5.204  10.351
73686SOL    HW122955   3.940   5.288  10.385
73686SOL    HW222956   3.958   5.196  10.267
73687SOL     OW22957   8.886   1.991  14.793
73687SOL    HW122958   8.977   2.005  14.769
73687SOL    HW222959   8.853   1.929  14.727
73688SOL     OW22960  12.534   2.000   6.694
73688SOL    HW122961  12.539   1.934   6.764
73688SOL    HW222962  12.449   2.042   6.706
73689SOL     OW22963  11.790  10.564  10.665
73689SOL    HW122964  11.880  10.533  10.682
73689SOL    HW222965  11.796  10.659  10.671
73690SOL     OW22966   1.937   1.177   3.268
73690SOL    HW122967   1.976   1.097   3.234
73690SOL    HW222968   1.868   1.199   3.206
73691SOL     OW22969  11.966  11.264  13.051
73691SOL    HW122970  11.969  11.321  13.128
73691SOL    HW222971  11.965  11.175  13.087
73692SOL     OW22972   4.820  12.862  14.558
73692SOL    HW122973   4.865  12.938  14.595
73692SOL    HW222974   4.830  12.793  14.624
73693SOL     OW22975  11.996   6.708   8.606
73693SOL    HW122976  11.930   6.699   8.675
73693SOL    HW222977  12.023   6.800   8.611
73694SOL     OW22978   3.225   6.006   3.933
73694SOL    HW122979   3.269   5.923   3.920
73694SOL    HW222980   3.232   6.051   3.849
73695SOL     OW22981   7.071   3.322  10.729
73695SOL    HW122982   7.077   3.418  10.733
73695SOL    HW222983   7.024   3.304  10.648
73696SOL     OW22984   9.969  12.272  10.301
73696SOL    HW122985   9.930  12.211  10.363
73696SOL    HW222986   9.999  12.346  10.354
73697SOL     OW22987   5.989   7.998   9.375
73697SOL    HW122988   5.913   7.958   9.334
73697SOL    HW222989   5.992   8.088   9.341
73698SOL     OW22990   8.573   1.097   2.983
73698SOL    HW122991   8.647   1.111   3.042
73698SOL    HW222992   8.611   1.059   2.905
73699SOL     OW22993   9.966   6.171  10.720
73699SOL    HW122994   9.899   6.158  10.653
73699SOL    HW222995  10.007   6.255  10.696
73700SOL     OW22996   6.125   4.991  10.077
73700SOL    HW122997   6.097   5.055  10.012
73700SOL    HW222998   6.112   5.035  10.161
73701SOL     OW22999   0.021   1.493  10.327
73701SOL    HW123000   0.035   1.472  10.235
73701SOL    HW223001  14.798   1.499  10.336
73702SOL     OW23002   0.521   7.777  11.331
73702SOL    HW123003   0.479   7.714  11.389
73702SOL    HW223004   0.503   7.862  11.370
73703SOL     OW23005  13.868  11.016  11.776
73703SOL    HW123006  13.925  10.963  11.832
73703SOL    HW223007  13.919  11.031  11.697
73704SOL     OW23008  13.674   5.856   3.452
73704SOL    HW123009  13.639   5.786   3.397
73704SOL    HW223010  13.676   5.933   3.395
73705SOL     OW23011   2.962  13.133   3.749
73705SOL    HW123012   2.932  13.084   3.672
73705SOL    HW223013   2.909  13.213   3.749
73706SOL     OW23014  13.617   8.746  10.592
73706SOL    HW123015  13.697   8.783  10.630
73706SOL    HW223016  13.627   8.762  10.498
73707SOL     OW23017   5.031   1.718   7.062
73707SOL    HW123018   5.112   1.667   7.067
73707SOL    HW223019   5.059   1.808   7.048
73708SOL     OW23020  11.432  10.579   3.467
73708SOL    HW123021  11.482  10.526   3.529
73708SOL    HW223022  11.347  10.591   3.510
73709SOL     OW23023   6.700   9.630  12.509
73709SOL    HW123024   6.687   9.556  12.451
73709SOL    HW223025   6.749   9.595  12.583
73710SOL     OW23026   4.347  11.445   6.061
73710SOL    HW123027   4.268  11.499   6.072
73710SOL    HW223028   4.419  11.504   6.079
73711SOL     OW23029   6.088  11.762   2.431
73711SOL    HW123030   6.152  11.818   2.388
73711SOL    HW223031   6.004  11.789   2.394
73712SOL     OW23032   0.299   4.286  11.723
73712SOL    HW123033   0.292   4.363  11.666
73712SOL    HW223034   0.362   4.229  11.679
73713SOL     OW23035   3.391   2.352  12.866
73713SOL    HW123036   3.331   2.409  12.915
73713SOL    HW223037   3.478   2.382  12.891
73714SOL     OW23038   3.985   3.500   8.403
73714SOL    HW123039   4.054   3.562   8.426
73714SOL    HW223040   4.000   3.480   8.311
73715SOL     OW23041  10.331   8.631   3.959
73715SOL    HW123042  10.291   8.700   4.012
73715SOL    HW223043  10.395   8.676   3.905
73716SOL     OW23044   6.734  12.267  11.434
73716SOL    HW123045   6.825  12.291  11.450
73716SOL    HW223046   6.726  12.177  11.466
73717SOL     OW23047   0.322   4.028   6.076
73717SOL    HW123048   0.305   4.112   6.033
73717SOL    HW223049   0.239   3.980   6.068
73718SOL     OW23050  12.805   1.896  13.309
73718SOL    HW123051  12.887   1.882  13.357
73718SOL    HW223052  12.750   1.947  13.369
73719SOL     OW23053   9.530   7.796   9.648
73719SOL    HW123054   9.435   7.791   9.657
73719SOL    HW223055   9.548   7.890   9.638
73720SOL     OW23056  12.736   6.818  12.404
73720SOL    HW123057  12.726   6.815  12.499
73720SOL    HW223058  12.798   6.748  12.383
73721SOL     OW23059   1.305   7.534   5.173
73721SOL    HW123060   1.298   7.475   5.248
73721SOL    HW223061   1.214   7.557   5.152
73722SOL     OW23062   2.657   6.045   6.753
73722SOL    HW123063   2.730   6.064   6.695
73722SOL    HW223064   2.691   5.980   6.814
73723SOL     OW23065   9.827   1.273   3.365
73723SOL    HW123066   9.754   1.328   3.337
73723SOL    HW223067   9.843   1.297   3.456
73724SOL     OW23068   3.645  10.513  10.101
73724SOL    HW123069   3.574  10.565  10.140
73724SOL    HW223070   3.651  10.435  10.155
73725SOL     OW23071   9.239   1.360   2.201
73725SOL    HW123072   9.245   1.349   2.296
73725SOL    HW223073   9.310   1.421   2.179
73726SOL     OW23074   1.342  11.460  11.386
73726SOL    HW123075   1.411  11.463  11.320
73726SOL    HW223076   1.389  11.462  11.469
73727SOL     OW23077  10.025   1.496  12.985
73727SOL    HW123078  10.077   1.421  12.957
73727SOL    HW223079  10.050   1.510  13.077
73728SOL     OW23080   2.087   1.426   9.603
73728SOL    HW123081   2.119   1.360   9.665
73728SOL    HW223082   2.001   1.450   9.637
73729SOL     OW23083  11.538   4.087   1.919
73729SOL    HW123084  11.540   4.057   2.010
73729SOL    HW223085  11.618   4.051   1.881
73730SOL     OW23086   7.389  11.149  10.693
73730SOL    HW123087   7.477  11.114  10.677
73730SOL    HW223088   7.337  11.074  10.720
73731SOL     OW23089   8.144   2.239   6.115
73731SOL    HW123090   8.236   2.257   6.135
73731SOL    HW223091   8.108   2.323   6.086
73732SOL     OW23092   2.341  13.471   8.519
73732SOL    HW123093   2.388  13.482   8.601
73732SOL    HW223094   2.409  13.446   8.456
73733SOL     OW23095   8.848  14.487   0.248
73733SOL    HW123096   8.911  14.420   0.222
73733SOL    HW223097   8.882  14.521   0.330
73734SOL     OW23098  12.580   0.741   3.569
73734SOL    HW123099  12.586   0.715   3.477
73734SOL    HW223100  12.517   0.681   3.607
73735SOL     OW23101   0.854  12.127   0.273
73735SOL    HW123102   0.927  12.071   0.248
73735SOL    HW223103   0.868  12.144   0.366
73736SOL     OW23104   9.575   8.716   3.141
73736SOL    HW123105   9.592   8.810   3.131
73736SOL    HW223106   9.634   8.675   3.077
73737SOL     OW23107   5.095   7.089   3.846
73737SOL    HW123108   5.043   7.060   3.921
73737SOL    HW223109   5.049   7.053   3.770
73738SOL     OW23110  11.160   8.339  10.557
73738SOL    HW123111  11.163   8.429  10.589
73738SOL    HW223112  11.075   8.332  10.513
73739SOL     OW23113   2.061   0.647   4.737
73739SOL    HW123114   2.154   0.669   4.739
73739SOL    HW223115   2.038   0.649   4.644
73740SOL     OW23116  11.783   7.993   8.276
73740SOL    HW123117  11.743   8.078   8.295
73740SOL    HW223118  11.731   7.958   8.204
73741SOL     OW23119  11.650  11.581   5.290
73741SOL    HW123120  11.675  11.662   5.245
73741SOL    HW223121  11.711  11.575   5.364
73742SOL     OW23122  10.396   5.652   3.171
73742SOL    HW123123  10.414   5.572   3.220
73742SOL    HW223124  10.423   5.723   3.230
73743SOL     OW23125  10.331   2.374   7.728
73743SOL    HW123126  10.370   2.451   7.687
73743SOL    HW223127  10.389   2.353   7.801
73744SOL     OW23128  12.554  12.500  13.742
73744SOL    HW123129  12.647  12.487  13.724
73744SOL    HW223130  12.542  12.595  13.738
73745SOL     OW23131  10.160  14.336  14.058
73745SOL    HW123132  10.213  14.270  14.104
73745SOL    HW223133  10.187  14.419  14.097
73746SOL     OW23134   3.276   8.556  10.814
73746SOL    HW123135   3.269   8.561  10.910
73746SOL    HW223136   3.369   8.571  10.797
73747SOL     OW23137   0.350   7.325   8.167
73747SOL    HW123138   0.306   7.282   8.094
73747SOL    HW223139   0.324   7.417   8.160
73748SOL     OW23140   0.796   6.965   1.126
73748SOL    HW123141   0.767   6.878   1.099
73748SOL    HW223142   0.717   7.006   1.163
73749SOL     OW23143   5.031   6.580   8.371
73749SOL    HW123144   5.099   6.600   8.436
73749SOL    HW223145   4.960   6.641   8.391
73750SOL     OW23146   3.970  13.416  13.854
73750SOL    HW123147   4.013  13.468  13.787
73750SOL    HW223148   3.877  13.416  13.829
73751SOL     OW23149  13.034  13.773   1.798
73751SOL    HW123150  13.021  13.713   1.724
73751SOL    HW223151  12.977  13.848   1.778
73752SOL     OW23152   9.625   3.508   3.480
73752SOL    HW123153   9.543   3.542   3.445
73752SOL    HW223154   9.663   3.457   3.408
73753SOL     OW23155   7.913   6.934  11.313
73753SOL    HW123156   7.942   7.024  11.299
73753SOL    HW223157   7.897   6.901  11.224
73754SOL     OW23158   6.771   4.441   5.038
73754SOL    HW123159   6.837   4.371   5.035
73754SOL    HW223160   6.764   4.472   4.948
73755SOL     OW23161   8.295  10.689   9.565
73755SOL    HW123162   8.307  10.642   9.647
73755SOL    HW223163   8.330  10.777   9.582
73756SOL     OW23164  12.318  14.077  12.400
73756SOL    HW123165  12.391  14.040  12.450
73756SOL    HW223166  12.355  14.098  12.314
73757SOL     OW23167  11.937  10.666   3.893
73757SOL    HW123168  11.969  10.746   3.934
73757SOL    HW223169  11.859  10.642   3.943
73758SOL     OW23170   7.779   8.067   6.307
73758SOL    HW123171   7.762   8.152   6.267
73758SOL    HW223172   7.770   8.005   6.235
73759SOL     OW23173   5.024   2.238   8.664
73759SOL    HW123174   4.936   2.273   8.646
73759SOL    HW223175   5.009   2.146   8.686
73760SOL     OW23176   0.720   5.931  14.057
73760SOL    HW123177   0.687   5.976  13.980
73760SOL    HW223178   0.786   5.870  14.023
73761SOL     OW23179   0.676   5.140  11.606
73761SOL    HW123180   0.743   5.083  11.645
73761SOL    HW223181   0.593   5.094  11.621
73762SOL     OW23182  10.664   9.914  12.428
73762SOL    HW123183  10.598   9.950  12.486
73762SOL    HW223184  10.668   9.974  12.354
73763SOL     OW23185  13.232   4.886  12.674
73763SOL    HW123186  13.170   4.958  12.682
73763SOL    HW223187  13.312   4.926  12.639
73764SOL     OW23188   8.974   8.246  12.124
73764SOL    HW123189   8.961   8.310  12.055
73764SOL    HW223190   8.973   8.161  12.079
73765SOL     OW23191   3.131   9.678   5.311
73765SOL    HW123192   3.171   9.763   5.292
73765SOL    HW223193   3.080   9.657   5.233
73766SOL     OW23194   0.470   1.655   6.801
73766SOL    HW123195   0.508   1.728   6.754
73766SOL    HW223196   0.545   1.609   6.839
73767SOL     OW23197   8.331   4.555  12.892
73767SOL    HW123198   8.330   4.575  12.986
73767SOL    HW223199   8.409   4.601  12.859
73768SOL     OW23200  14.835   5.782   2.146
73768SOL    HW123201  14.781   5.774   2.067
73768SOL    HW223202  14.825   5.698   2.190
73769SOL     OW23203   1.893   4.702  10.742
73769SOL    HW123204   1.894   4.673  10.834
73769SOL    HW223205   1.975   4.750  10.732
73770SOL     OW23206   5.321   3.806   1.254
73770SOL    HW123207   5.239   3.855   1.251
73770SOL    HW223208   5.330   3.780   1.346
73771SOL     OW23209   5.559  10.894   4.969
73771SOL    HW123210   5.572  10.849   5.052
73771SOL    HW223211   5.469  10.925   4.972
73772SOL     OW23212   5.618   0.926   1.382
73772SOL    HW123213   5.660   0.928   1.468
73772SOL    HW223214   5.547   0.862   1.391
73773SOL     OW23215   9.428   5.295   5.867
73773SOL    HW123216   9.509   5.298   5.816
73773SOL    HW223217   9.411   5.387   5.888
73774SOL     OW23218   4.063   7.822   7.401
73774SOL    HW123219   4.135   7.777   7.359
73774SOL    HW223220   4.021   7.872   7.331
73775SOL     OW23221   1.988   5.486   3.346
73775SOL    HW123222   1.968   5.397   3.374
73775SOL    HW223223   1.980   5.539   3.425
73776SOL     OW23224   6.856  11.410   5.133
73776SOL    HW123225   6.786  11.346   5.149
73776SOL    HW223226   6.836  11.446   5.047
73777SOL     OW23227   7.664   8.232   9.890
73777SOL    HW123228   7.650   8.148   9.933
73777SOL    HW223229   7.605   8.293   9.935
73778SOL     OW23230   3.895  12.300  12.182
73778SOL    HW123231   3.888  12.236  12.112
73778SOL    HW223232   3.880  12.250  12.262
73779SOL     OW23233  14.587   4.238   4.403
73779SOL    HW123234  14.541   4.154   4.408
73779SOL    HW223235  14.653   4.226   4.335
73780SOL     OW23236   9.958   4.113   1.848
73780SOL    HW123237  10.021   4.132   1.917
73780SOL    HW223238   9.949   4.018   1.849
73781SOL     OW23239   9.648   0.999   3.449
73781SOL    HW123240   9.706   1.014   3.523
73781SOL    HW223241   9.705   1.009   3.372
73782SOL     OW23242  12.616   5.570  11.448
73782SOL    HW123243  12.663   5.542  11.526
73782SOL    HW223244  12.553   5.501  11.431
73783SOL     OW23245   6.668   2.567   9.870
73783SOL    HW123246   6.695   2.544   9.781
73783SOL    HW223247   6.732   2.632   9.898
73784SOL     OW23248   4.942  13.258   7.801
73784SOL    HW123249   4.876  13.298   7.744
73784SOL    HW223250   4.928  13.164   7.791
73785SOL     OW23251   7.018  10.871   1.213
73785SOL    HW123252   6.940  10.871   1.269
73785SOL    HW223253   6.999  10.807   1.145
73786SOL     OW23254  11.260  10.241   5.626
73786SOL    HW123255  11.246  10.334   5.608
73786SOL    HW223256  11.186  10.197   5.583
73787SOL     OW23257   6.425  13.574  11.673
73787SOL    HW123258   6.427  13.669  11.688
73787SOL    HW223259   6.454  13.536  11.756
73788SOL     OW23260  11.966  10.538   5.599
73788SOL    HW123261  12.057  10.507   5.596
73788SOL    HW223262  11.940  10.547   5.507
73789SOL     OW23263   4.023   8.335  13.908
73789SOL    HW123264   4.094   8.287  13.867
73789SOL    HW223265   3.952   8.272  13.915
73790SOL     OW23266   3.575   3.617   4.474
73790SOL    HW123267   3.608   3.662   4.551
73790SOL    HW223268   3.526   3.684   4.426
73791SOL     OW23269  11.349   2.480   0.129
73791SOL    HW123270  11.292   2.487   0.053
73791SOL    HW223271  11.363   2.571   0.157
73792SOL     OW23272   6.846   0.325   1.820
73792SOL    HW123273   6.845   0.371   1.736
73792SOL    HW223274   6.932   0.283   1.824
73793SOL     OW23275   4.244   1.601   3.629
73793SOL    HW123276   4.225   1.694   3.637
73793SOL    HW223277   4.201   1.561   3.705
73794SOL     OW23278   6.002   7.683   5.018
73794SOL    HW123279   5.979   7.682   4.925
73794SOL    HW223280   6.072   7.618   5.026
73795SOL     OW23281  14.012   5.141   6.584
73795SOL    HW123282  13.922   5.151   6.612
73795SOL    HW223283  14.007   5.129   6.489
73796SOL     OW23284   3.630   9.658  14.180
73796SOL    HW123285   3.592   9.655  14.092
73796SOL    HW223286   3.613   9.572  14.217
73797SOL     OW23287   8.915  13.758   4.322
73797SOL    HW123288   8.933  13.664   4.324
73797SOL    HW223289   9.000  13.798   4.304
73798SOL     OW23290   3.381   1.567   5.437
73798SOL    HW123291   3.318   1.523   5.379
73798SOL    HW223292   3.391   1.654   5.399
73799SOL     OW23293   8.983   9.190   3.056
73799SOL    HW123294   9.044   9.142   3.001
73799SOL    HW223295   8.914   9.219   2.996
73800SOL     OW23296   5.709   3.942  10.650
73800SOL    HW123297   5.676   3.869  10.703
73800SOL    HW223298   5.781   3.905  10.599
73801SOL     OW23299   2.152   7.830   4.127
73801SOL    HW123300   2.186   7.761   4.070
73801SOL    HW223301   2.203   7.822   4.207
73802SOL     OW23302   3.320   0.618  14.241
73802SOL    HW123303   3.295   0.525  14.240
73802SOL    HW223304   3.409   0.619  14.205
73803SOL     OW23305   0.507  14.328   7.146
73803SOL    HW123306   0.545  14.407   7.186
73803SOL    HW223307   0.548  14.255   7.192
73804SOL     OW23308   2.040   6.345   1.534
73804SOL    HW123309   2.014   6.418   1.590
73804SOL    HW223310   1.965   6.332   1.476
73805SOL     OW23311  14.083   0.207  13.100
73805SOL    HW123312  14.056   0.207  13.009
73805SOL    HW223313  14.169   0.251  13.100
73806SOL     OW23314  14.253   8.902   8.863
73806SOL    HW123315  14.258   8.955   8.783
73806SOL    HW223316  14.194   8.952   8.920
73807SOL     OW23317  13.396   9.320   3.994
73807SOL    HW123318  13.329   9.257   3.965
73807SOL    HW223319  13.374   9.337   4.086
73808SOL     OW23320   3.151   2.815  11.602
73808SOL    HW123321   3.156   2.900  11.645
73808SOL    HW223322   3.238   2.777  11.613
73809SOL     OW23323  11.176   7.021   9.593
73809SOL    HW123324  11.165   7.009   9.687
73809SOL    HW223325  11.243   7.090   9.585
73810SOL     OW23326   2.689   8.781   2.526
73810SOL    HW123327   2.645   8.697   2.539
73810SOL    HW223328   2.722   8.804   2.613
73811SOL     OW23329   4.373  12.731   5.478
73811SOL    HW123330   4.386  12.822   5.505
73811SOL    HW223331   4.448  12.684   5.514
73812SOL     OW23332   5.111  12.461   8.911
73812SOL    HW123333   5.161  12.463   8.829
73812SOL    HW223334   5.108  12.368   8.935
73813SOL     OW23335   6.799  14.133   5.353
73813SOL    HW123336   6.840  14.079   5.286
73813SOL    HW223337   6.748  14.198   5.304
73814SOL     OW23338   7.702  10.668   7.754
73814SOL    HW123339   7.633  10.732   7.767
73814SOL    HW223340   7.673  10.590   7.801
73815SOL     OW23341   5.670  10.148  11.137
73815SOL    HW123342   5.612  10.209  11.090
73815SOL    HW223343   5.751  10.147  11.085
73816SOL     OW23344   3.409  11.514   3.612
73816SOL    HW123345   3.387  11.604   3.588
73816SOL    HW223346   3.427  11.470   3.529
73817SOL     OW23347   1.810   3.439   4.870
73817SOL    HW123348   1.835   3.380   4.799
73817SOL    HW223349   1.878   3.428   4.936
73818SOL     OW23350   1.870   8.546   5.941
73818SOL    HW123351   1.879   8.466   5.993
73818SOL    HW223352   1.901   8.616   5.998
73819SOL     OW23353  10.107  10.165  14.409
73819SOL    HW123354  10.179  10.206  14.457
73819SOL    HW223355  10.131  10.175  14.317
73820SOL     OW23356   7.017  11.603   6.326
73820SOL    HW123357   7.019  11.557   6.243
73820SOL    HW223358   7.095  11.659   6.324
73821SOL     OW23359   9.433   7.860  10.812
73821SOL    HW123360   9.437   7.884  10.720
73821SOL    HW223361   9.439   7.764  10.812
73822SOL     OW23362   7.041   1.254  13.280
73822SOL    HW123363   7.082   1.330  13.237
73822SOL    HW223364   7.051   1.183  13.217
73823SOL     OW23365   2.986   6.471  12.627
73823SOL    HW123366   2.973   6.566  12.630
73823SOL    HW223367   3.067   6.459  12.577
73824SOL     OW23368  11.430  13.291   5.233
73824SOL    HW123369  11.372  13.226   5.273
73824SOL    HW223370  11.502  13.240   5.196
73825SOL     OW23371   3.333  14.264  11.332
73825SOL    HW123372   3.244  14.230  11.318
73825SOL    HW223373   3.336  14.286  11.425
73826SOL     OW23374  13.472  10.734   9.893
73826SOL    HW123375  13.400  10.788   9.926
73826SOL    HW223376  13.550  10.774   9.930
73827SOL     OW23377  14.096   4.894  10.410
73827SOL    HW123378  14.088   4.933  10.323
73827SOL    HW223379  14.139   4.810  10.395
73828SOL     OW23380   3.939  13.933  12.767
73828SOL    HW123381   4.004  13.875  12.807
73828SOL    HW223382   3.860  13.880  12.763
73829SOL     OW23383   7.448   3.103  10.981
73829SOL    HW123384   7.393   3.089  10.904
73829SOL    HW223385   7.434   3.026  11.036
73830SOL     OW23386   4.639   6.639  13.504
73830SOL    HW123387   4.578   6.710  13.487
73830SOL    HW223388   4.667   6.609  13.418
73831SOL     OW23389   6.077  10.826   9.982
73831SOL    HW123390   6.091  10.840  10.075
73831SOL    HW223391   6.102  10.735   9.967
73832SOL     OW23392   8.277   8.930   9.473
73832SOL    HW123393   8.206   8.879   9.514
73832SOL    HW223394   8.286   9.007   9.530
73833SOL     OW23395   2.652   0.345  12.002
73833SOL    HW123396   2.595   0.296  11.942
73833SOL    HW223397   2.741   0.328  11.969
73834SOL     OW23398  14.811   7.378   3.388
73834SOL    HW123399  14.849   7.416   3.309
73834SOL    HW223400  14.824   7.284   3.379
73835SOL     OW23401   1.154  10.657   6.966
73835SOL    HW123402   1.060  10.674   6.978
73835SOL    HW223403   1.195  10.742   6.980
73836SOL     OW23404   2.449  11.677   2.068
73836SOL    HW123405   2.402  11.686   1.985
73836SOL    HW223406   2.383  11.696   2.135
73837SOL     OW23407   3.625   1.051  10.223
73837SOL    HW123408   3.613   0.990  10.295
73837SOL    HW223409   3.708   1.024  10.182
73838SOL     OW23410   4.573   6.065  11.322
73838SOL    HW123411   4.525   6.135  11.365
73838SOL    HW223412   4.659   6.067  11.364
73839SOL     OW23413   5.936  13.113   7.619
73839SOL    HW123414   5.950  13.057   7.695
73839SOL    HW223415   5.852  13.083   7.582
73840SOL     OW23416   1.327   0.800   5.949
73840SOL    HW123417   1.312   0.783   5.856
73840SOL    HW223418   1.239   0.811   5.985
73841SOL     OW23419   5.641   1.323  11.661
73841SOL    HW123420   5.734   1.302  11.669
73841SOL    HW223421   5.639   1.413  11.627
73842SOL     OW23422   1.710  12.768  13.155
73842SOL    HW123423   1.661  12.780  13.074
73842SOL    HW223424   1.725  12.857  13.188
73843SOL     OW23425   3.319  14.536   4.704
73843SOL    HW123426   3.326  14.489   4.787
73843SOL    HW223427   3.367  14.618   4.718
73844SOL     OW23428  13.802  10.190   8.716
73844SOL    HW123429  13.795  10.164   8.808
73844SOL    HW223430  13.839  10.113   8.672
73845SOL     OW23431  11.377   5.078   8.521
73845SOL    HW123432  11.325   5.127   8.585
73845SOL    HW223433  11.432   5.145   8.480
73846SOL     OW23434  10.221   2.184   0.941
73846SOL    HW123435  10.188   2.109   0.990
73846SOL    HW223436  10.288   2.222   0.998
73847SOL     OW23437  14.696  11.600  14.324
73847SOL    HW123438  14.728  11.688  14.303
73847SOL    HW223439  14.714  11.548  14.245
73848SOL     OW23440   2.619   7.462   1.012
73848SOL    HW123441   2.538   7.513   1.016
73848SOL    HW223442   2.637   7.454   0.918
73849SOL     OW23443   1.332   5.617   9.103
73849SOL    HW123444   1.307   5.709   9.109
73849SOL    HW223445   1.428   5.619   9.100
73850SOL     OW23446   0.192   3.766   5.182
73850SOL    HW123447   0.199   3.745   5.276
73850SOL    HW223448   0.101   3.792   5.170
73851SOL     OW23449   3.750   6.121  11.280
73851SOL    HW123450   3.691   6.110  11.206
73851SOL    HW223451   3.815   6.051  11.270
73852SOL     OW23452   1.326  11.842  11.466
73852SOL    HW123453   1.296  11.806  11.383
73852SOL    HW223454   1.389  11.778  11.498
73853SOL     OW23455  14.131  13.061   1.147
73853SOL    HW123456  14.094  12.986   1.195
73853SOL    HW223457  14.061  13.086   1.086
73854SOL     OW23458   5.949   4.678  10.958
73854SOL    HW123459   5.905   4.715  11.034
73854SOL    HW223460   6.028   4.730  10.947
73855SOL     OW23461   7.199   1.213   9.183
73855SOL    HW123462   7.167   1.248   9.099
73855SOL    HW223463   7.219   1.291   9.235
73856SOL     OW23464   0.542  13.660   6.755
73856SOL    HW123465   0.612  13.632   6.696
73856SOL    HW223466   0.561  13.752   6.772
73857SOL     OW23467   4.955   2.078  12.722
73857SOL    HW123468   4.916   2.022  12.656
73857SOL    HW223469   4.890   2.081  12.792
73858SOL     OW23470   1.185   5.124   1.610
73858SOL    HW123471   1.200   5.218   1.601
73858SOL    HW223472   1.108   5.107   1.555
73859SOL     OW23473   2.088   7.390  13.131
73859SOL    HW123474   1.998   7.373  13.105
73859SOL    HW223475   2.138   7.318  13.093
73860SOL     OW23476   5.401  13.823   0.416
73860SOL    HW123477   5.367  13.734   0.425
73860SOL    HW223478   5.418  13.833   0.322
73861SOL     OW23479   9.335   5.868   8.674
73861SOL    HW123480   9.362   5.818   8.597
73861SOL    HW223481   9.417   5.903   8.709
73862SOL     OW23482  12.173   7.514   9.580
73862SOL    HW123483  12.206   7.558   9.658
73862SOL    HW223484  12.248   7.509   9.521
73863SOL     OW23485   3.158   3.722  11.892
73863SOL    HW123486   3.247   3.744  11.865
73863SOL    HW223487   3.106   3.798  11.867
73864SOL     OW23488   2.416   3.540   7.437
73864SOL    HW123489   2.480   3.507   7.500
73864SOL    HW223490   2.450   3.512   7.352
73865SOL     OW23491  13.531   6.088  13.570
73865SOL    HW123492  13.523   6.050  13.657
73865SOL    HW223493  13.454   6.058  13.522
73866SOL     OW23494   2.740   8.526  10.211
73866SOL    HW123495   2.815   8.584  10.197
73866SOL    HW223496   2.693   8.528  10.128
73867SOL     OW23497   3.674  10.396   7.627
73867SOL    HW123498   3.747  10.403   7.565
73867SOL    HW223499   3.637  10.310   7.611
73868SOL     OW23500   7.710  12.945   4.895
73868SOL    HW123501   7.686  13.016   4.954
73868SOL    HW223502   7.805  12.948   4.892
73869SOL     OW23503  10.794   9.656  12.462
73869SOL    HW123504  10.748   9.740  12.468
73869SOL    HW223505  10.774   9.624  12.374
73870SOL     OW23506   6.725   4.408   4.724
73870SOL    HW123507   6.795   4.344   4.717
73870SOL    HW223508   6.647   4.363   4.694
73871SOL     OW23509   8.822   3.215   7.278
73871SOL    HW123510   8.861   3.251   7.358
73871SOL    HW223511   8.753   3.156   7.309
73872SOL     OW23512   7.190   2.137   5.072
73872SOL    HW123513   7.137   2.120   5.150
73872SOL    HW223514   7.184   2.231   5.058
73873SOL     OW23515  14.304  12.163   7.734
73873SOL    HW123516  14.246  12.234   7.706
73873SOL    HW223517  14.245  12.101   7.777
73874SOL     OW23518   2.549  12.297   1.662
73874SOL    HW123519   2.642  12.318   1.669
73874SOL    HW223520   2.537  12.268   1.572
73875SOL     OW23521  14.062   7.186  11.923
73875SOL    HW123522  14.105   7.138  11.994
73875SOL    HW223523  14.124   7.255  11.899
73876SOL     OW23524  11.434  14.469   6.685
73876SOL    HW123525  11.384  14.387   6.685
73876SOL    HW223526  11.515  14.447   6.731
73877SOL     OW23527   4.957   8.961   9.973
73877SOL    HW123528   4.930   8.869   9.971
73877SOL    HW223529   4.900   9.004   9.909
73878SOL     OW23530   2.831  12.333   8.560
73878SOL    HW123531   2.768  12.261   8.565
73878SOL    HW223532   2.780  12.411   8.580
73879SOL     OW23533   0.980   8.577  11.953
73879SOL    HW123534   0.956   8.620  11.871
73879SOL    HW223535   1.055   8.522  11.930
73880SOL     OW23536  14.279   6.422   8.105
73880SOL    HW123537  14.356   6.454   8.058
73880SOL    HW223538  14.274   6.329   8.082
73881SOL     OW23539   8.763   9.252   5.864
73881SOL    HW123540   8.765   9.260   5.959
73881SOL    HW223541   8.853   9.233   5.839
73882SOL     OW23542   3.321   1.910  12.997
73882SOL    HW123543   3.381   1.973  12.957
73882SOL    HW223544   3.241   1.917  12.945
73883SOL     OW23545   4.952   7.128   5.191
73883SOL    HW123546   4.998   7.089   5.117
73883SOL    HW223547   4.860   7.105   5.177
73884SOL     OW23548   2.964   9.893   8.898
73884SOL    HW123549   3.012   9.968   8.934
73884SOL    HW223550   2.879   9.895   8.943
73885SOL     OW23551   0.591   2.067   8.349
73885SOL    HW123552   0.635   2.117   8.419
73885SOL    HW223553   0.609   2.118   8.270
73886SOL     OW23554   6.788   6.913   0.234
73886SOL    HW123555   6.695   6.928   0.247
73886SOL    HW223556   6.796   6.886   0.142
73887SOL     OW23557   8.532  10.603  11.562
73887SOL    HW123558   8.585  10.524  11.572
73887SOL    HW223559   8.494  10.619  11.649
73888SOL     OW23560   8.342   5.967  11.395
73888SOL    HW123561   8.400   5.981  11.321
73888SOL    HW223562   8.287   6.046  11.399
73889SOL     OW23563   2.080  11.733  14.647
73889SOL    HW123564   2.095  11.801  14.713
73889SOL    HW223565   2.046  11.780  14.571
73890SOL     OW23566   7.533  12.539   8.728
73890SOL    HW123567   7.594  12.592   8.677
73890SOL    HW223568   7.575  12.453   8.733
73891SOL     OW23569  12.685  12.219   6.015
73891SOL    HW123570  12.723  12.307   6.018
73891SOL    HW223571  12.690  12.194   5.923
73892SOL     OW23572   2.940  12.004  11.317
73892SOL    HW123573   2.906  12.008  11.407
73892SOL    HW223574   3.026  12.046  11.323
73893SOL     OW23575   7.720   1.581   0.081
73893SOL    HW123576   7.631   1.595   0.047
73893SOL    HW223577   7.715   1.497   0.127
73894SOL     OW23578   0.612  14.304   2.283
73894SOL    HW123579   0.540  14.361   2.312
73894SOL    HW223580   0.677  14.364   2.247
73895SOL     OW23581   1.764   1.524   5.324
73895SOL    HW123582   1.734   1.448   5.274
73895SOL    HW223583   1.685   1.577   5.337
73896SOL     OW23584   6.725  13.105   5.205
73896SOL    HW123585   6.701  13.119   5.297
73896SOL    HW223586   6.645  13.072   5.164
73897SOL     OW23587  12.278   8.954  11.990
73897SOL    HW123588  12.280   8.892  12.063
73897SOL    HW223589  12.369   8.962  11.963
73898SOL     OW23590   8.998   0.606  12.658
73898SOL    HW123591   9.001   0.652  12.741
73898SOL    HW223592   8.988   0.514  12.682
73899SOL     OW23593   4.130   7.994   1.041
73899SOL    HW123594   4.200   8.047   1.079
73899SOL    HW223595   4.146   7.996   0.946
73900SOL     OW23596   9.044   3.981   1.904
73900SOL    HW123597   8.972   4.042   1.919
73900SOL    HW223598   9.092   4.019   1.830
73901SOL     OW23599   4.816   1.819  11.717
73901SOL    HW123600   4.911   1.814  11.726
73901SOL    HW223601   4.783   1.752  11.777
73902SOL     OW23602  10.310  12.164  13.342
73902SOL    HW123603  10.363  12.111  13.402
73902SOL    HW223604  10.220  12.150  13.372
73903SOL     OW23605   0.160  10.354  13.782
73903SOL    HW123606   0.202  10.302  13.851
73903SOL    HW223607   0.191  10.314  13.700
73904SOL     OW23608  10.419  13.154   5.607
73904SOL    HW123609  10.330  13.174   5.581
73904SOL    HW223610  10.412  13.071   5.655
73905SOL     OW23611  13.885   5.486   4.720
73905SOL    HW123612  13.972   5.447   4.732
73905SOL    HW223613  13.832   5.448   4.790
73906SOL     OW23614   0.044  13.720   9.120
73906SOL    HW123615   0.043  13.776   9.042
73906SOL    HW223616   0.048  13.782   9.193
73907SOL     OW23617   5.246  11.086  12.927
73907SOL    HW123618   5.217  11.110  13.015
73907SOL    HW223619   5.322  11.031  12.942
73908SOL     OW23620   3.738   3.318   6.530
73908SOL    HW123621   3.777   3.383   6.472
73908SOL    HW223622   3.742   3.358   6.617
73909SOL     OW23623   5.695   2.655   8.233
73909SOL    HW123624   5.737   2.715   8.295
73909SOL    HW223625   5.694   2.703   8.150
73910SOL     OW23626  13.693   3.925  14.741
73910SOL    HW123627  13.674   3.835  14.766
73910SOL    HW223628  13.758   3.955  14.805
73911SOL     OW23629   1.198  10.516   0.717
73911SOL    HW123630   1.179  10.493   0.626
73911SOL    HW223631   1.244  10.600   0.712
73912SOL     OW23632   7.660   7.563  13.443
73912SOL    HW123633   7.633   7.503  13.373
73912SOL    HW223634   7.699   7.506  13.509
73913SOL     OW23635  12.926  11.640   9.592
73913SOL    HW123636  12.927  11.592   9.509
73913SOL    HW223637  12.920  11.572   9.659
73914SOL     OW23638   6.411  12.441   7.030
73914SOL    HW123639   6.423  12.346   7.030
73914SOL    HW223640   6.478  12.473   6.969
73915SOL     OW23641   7.802  12.111  14.171
73915SOL    HW123642   7.786  12.028  14.216
73915SOL    HW223643   7.850  12.087  14.093
73916SOL     OW23644   7.183   0.766   0.782
73916SOL    HW123645   7.113   0.807   0.831
73916SOL    HW223646   7.143   0.741   0.698
73917SOL     OW23647   6.985   2.785   3.978
73917SOL    HW123648   6.896   2.808   4.004
73917SOL    HW223649   6.973   2.716   3.912
73918SOL     OW23650   5.125  11.674  13.438
73918SOL    HW123651   5.183  11.699  13.510
73918SOL    HW223652   5.130  11.579  13.434
73919SOL     OW23653   4.211   5.186  11.799
73919SOL    HW123654   4.140   5.126  11.822
73919SOL    HW223655   4.171   5.251  11.741
73920SOL     OW23656   6.194  14.280   5.978
73920SOL    HW123657   6.223  14.316   5.895
73920SOL    HW223658   6.159  14.355   6.026
73921SOL     OW23659  12.070  11.678   4.780
73921SOL    HW123660  12.072  11.689   4.685
73921SOL    HW223661  12.137  11.738   4.813
73922SOL     OW23662   9.267  10.516   6.206
73922SOL    HW123663   9.240  10.425   6.222
73922SOL    HW223664   9.347  10.526   6.258
73923SOL     OW23665   7.967   7.236  11.720
73923SOL    HW123666   7.883   7.249  11.763
73923SOL    HW223667   8.024   7.202  11.788
73924SOL     OW23668  13.694   4.319  10.457
73924SOL    HW123669  13.620   4.376  10.474
73924SOL    HW223670  13.701   4.265  10.536
73925SOL     OW23671   9.057   6.371   5.932
73925SOL    HW123672   9.146   6.338   5.926
73925SOL    HW223673   9.004   6.305   5.888
73926SOL     OW23674   7.262   0.621   1.602
73926SOL    HW123675   7.326   0.692   1.592
73926SOL    HW223676   7.182   0.665   1.630
73927SOL     OW23677  10.939   6.641   0.393
73927SOL    HW123678  10.978   6.706   0.335
73927SOL    HW223679  10.852   6.675   0.414
73928SOL     OW23680   8.869   1.702   5.744
73928SOL    HW123681   8.797   1.755   5.778
73928SOL    HW223682   8.891   1.743   5.660
73929SOL     OW23683   7.402   9.470   4.885
73929SOL    HW123684   7.421   9.531   4.957
73929SOL    HW223685   7.321   9.427   4.911
73930SOL     OW23686  10.835   3.986   6.828
73930SOL    HW123687  10.798   4.002   6.741
73930SOL    HW223688  10.777   3.920   6.867
73931SOL     OW23689   3.911  12.700   4.295
73931SOL    HW123690   3.938  12.639   4.365
73931SOL    HW223691   3.826  12.667   4.267
73932SOL     OW23692  13.959   4.085  13.008
73932SOL    HW123693  13.914   4.117  12.930
73932SOL    HW223694  13.891   4.078  13.075
73933SOL     OW23695   6.179   1.028  12.767
73933SOL    HW123696   6.222   0.947  12.794
73933SOL    HW223697   6.214   1.047  12.680
73934SOL     OW23698  11.558  12.156   3.557
73934SOL    HW123699  11.579  12.245   3.582
73934SOL    HW223700  11.566  12.155   3.461
73935SOL     OW23701  14.461  13.023   6.407
73935SOL    HW123702  14.512  13.100   6.380
73935SOL    HW223703  14.425  13.047   6.492
73936SOL     OW23704  10.417   4.161   5.169
73936SOL    HW123705  10.339   4.108   5.149
73936SOL    HW223706  10.489   4.098   5.166
73937SOL     OW23707   5.929   8.583   2.647
73937SOL    HW123708   5.880   8.660   2.674
73937SOL    HW223709   6.000   8.576   2.712
73938SOL     OW23710  10.911  10.468   6.362
73938SOL    HW123711  10.974  10.533   6.331
73938SOL    HW223712  10.953  10.383   6.344
73939SOL     OW23713   4.969   5.930   9.523
73939SOL    HW123714   4.971   5.888   9.609
73939SOL    HW223715   5.009   6.016   9.536
73940SOL     OW23716   2.167   2.839   2.464
73940SOL    HW123717   2.183   2.780   2.391
73940SOL    HW223718   2.111   2.908   2.428
73941SOL     OW23719  11.513  11.604  10.156
73941SOL    HW123720  11.470  11.522  10.129
73941SOL    HW223721  11.441  11.664  10.173
73942SOL     OW23722  13.405   5.017   5.902
73942SOL    HW123723  13.354   5.043   5.825
73942SOL    HW223724  13.409   5.097   5.955
73943SOL     OW23725   4.860  14.776  11.227
73943SOL    HW123726   4.837  14.808  11.314
73943SOL    HW223727   4.892  14.854  11.181
73944SOL     OW23728   3.231   4.564   5.266
73944SOL    HW123729   3.148   4.523   5.240
73944SOL    HW223730   3.278   4.577   5.184
73945SOL     OW23731   5.029   2.539   0.740
73945SOL    HW123732   5.055   2.631   0.746
73945SOL    HW223733   5.027   2.520   0.646
73946SOL     OW23734   0.051   1.909  14.406
73946SOL    HW123735   0.141   1.877  14.413
73946SOL    HW223736   0.024   1.924  14.496
73947SOL     OW23737   9.797   8.815   6.419
73947SOL    HW123738   9.790   8.876   6.345
73947SOL    HW223739   9.882   8.834   6.458
73948SOL     OW23740  14.312   2.498   5.105
73948SOL    HW123741  14.238   2.558   5.099
73948SOL    HW223742  14.292   2.442   5.180
73949SOL     OW23743   9.608   2.637   6.275
73949SOL    HW123744   9.513   2.634   6.277
73949SOL    HW223745   9.632   2.614   6.185
73950SOL     OW23746   2.400  12.263   2.980
73950SOL    HW123747   2.314  12.306   2.986
73950SOL    HW223748   2.404  12.208   3.059
73951SOL     OW23749  13.288   7.434  12.733
73951SOL    HW123750  13.305   7.511  12.679
73951SOL    HW223751  13.360   7.374  12.713
73952SOL     OW23752  13.117   4.427   8.506
73952SOL    HW123753  13.038   4.417   8.455
73952SOL    HW223754  13.126   4.344   8.554
73953SOL     OW23755  12.915  13.153   6.814
73953SOL    HW123756  12.861  13.108   6.879
73953SOL    HW223757  12.954  13.227   6.861
73954SOL     OW23758   1.417  12.092   4.800
73954SOL    HW123759   1.332  12.133   4.814
73954SOL    HW223760   1.467  12.156   4.750
73955SOL     OW23761   3.935   5.123   6.714
73955SOL    HW123762   3.929   5.034   6.750
73955SOL    HW223763   3.954   5.178   6.790
73956SOL     OW23764  14.609   3.182  10.910
73956SOL    HW123765  14.591   3.148  10.997
73956SOL    HW223766  14.702   3.205  10.912
73957SOL     OW23767  14.037  11.576  10.287
73957SOL    HW123768  13.992  11.527  10.355
73957SOL    HW223769  14.103  11.516  10.252
73958SOL     OW23770   9.663   9.141   8.893
73958SOL    HW123771   9.732   9.099   8.944
73958SOL    HW223772   9.660   9.231   8.924
73959SOL     OW23773   8.239   0.356   8.235
73959SOL    HW123774   8.184   0.278   8.249
73959SOL    HW223775   8.178   0.430   8.241
73960SOL     OW23776   2.680  13.053  13.505
73960SOL    HW123777   2.618  13.021  13.570
73960SOL    HW223778   2.751  13.092  13.557
73961SOL     OW23779   8.327   3.175  13.169
73961SOL    HW123780   8.314   3.246  13.106
73961SOL    HW223781   8.418   3.185  13.198
73962SOL     OW23782   7.353  13.130  13.249
73962SOL    HW123783   7.364  13.135  13.344
73962SOL    HW223784   7.433  13.087  13.218
73963SOL     OW23785   9.493   7.920   4.783
73963SOL    HW123786   9.586   7.941   4.788
73963SOL    HW223787   9.473   7.925   4.689
73964SOL     OW23788   4.250  12.800  14.160
73964SOL    HW123789   4.237  12.870  14.097
73964SOL    HW223790   4.337  12.766  14.140
73965SOL     OW23791  11.823   5.675   6.548
73965SOL    HW123792  11.796   5.586   6.526
73965SOL    HW223793  11.907   5.665   6.592
73966SOL     OW23794   8.169   2.090   3.344
73966SOL    HW123795   8.137   2.030   3.410
73966SOL    HW223796   8.208   2.162   3.394
73967SOL     OW23797   6.613  13.549  12.936
73967SOL    HW123798   6.572  13.635  12.934
73967SOL    HW223799   6.679  13.555  13.006
73968SOL     OW23800   7.451   8.899   0.269
73968SOL    HW123801   7.508   8.968   0.302
73968SOL    HW223802   7.474   8.822   0.321
73969SOL     OW23803  10.838   1.207   7.703
73969SOL    HW123804  10.748   1.228   7.676
73969SOL    HW223805  10.866   1.141   7.639
73970SOL     OW23806   3.541   6.306   9.234
73970SOL    HW123807   3.532   6.240   9.303
73970SOL    HW223808   3.454   6.308   9.193
73971SOL     OW23809   1.927   3.906   8.335
73971SOL    HW123810   1.968   3.954   8.263
73971SOL    HW223811   1.920   3.970   8.405
73972SOL     OW23812   5.715  14.391  12.643
73972SOL    HW123813   5.691  14.483  12.639
73972SOL    HW223814   5.770  14.377  12.566
73973SOL     OW23815   8.137   0.370   8.940
73973SOL    HW123816   8.168   0.441   8.884
73973SOL    HW223817   8.216   0.332   8.978
73974SOL     OW23818   0.979   9.707   1.350
73974SOL    HW123819   1.055   9.761   1.370
73974SOL    HW223820   1.013   9.639   1.291
73975SOL     OW23821   8.276  14.521   1.312
73975SOL    HW123822   8.193  14.497   1.270
73975SOL    HW223823   8.317  14.583   1.253
73976SOL     OW23824  13.940   1.867  14.543
73976SOL    HW123825  13.900   1.804  14.482
73976SOL    HW223826  13.973   1.813  14.615
73977SOL     OW23827  10.836   8.274   1.680
73977SOL    HW123828  10.870   8.312   1.761
73977SOL    HW223829  10.749   8.243   1.702
73978SOL     OW23830  14.376  13.627   8.669
73978SOL    HW123831  14.307  13.673   8.621
73978SOL    HW223832  14.450  13.687   8.669
73979SOL     OW23833  14.224   0.500  13.190
73979SOL    HW123834  14.283   0.573  13.209
73979SOL    HW223835  14.202   0.464  13.275
73980SOL     OW23836   4.010  12.087  12.031
73980SOL    HW123837   4.020  12.004  11.985
73980SOL    HW223838   4.071  12.146  11.987
73981SOL     OW23839  11.153   1.622  13.969
73981SOL    HW123840  11.066   1.582  13.977
73981SOL    HW223841  11.190   1.616  14.057
73982SOL     OW23842   2.681   9.112   5.356
73982SOL    HW123843   2.719   9.089   5.440
73982SOL    HW223844   2.615   9.179   5.377
73983SOL     OW23845   4.069  13.567  14.409
73983SOL    HW123846   4.051  13.620  14.331
73983SOL    HW223847   4.125  13.496  14.378
73984SOL     OW23848  11.782  11.861  13.796
73984SOL    HW123849  11.836  11.813  13.733
73984SOL    HW223850  11.693  11.855  13.761
73985SOL     OW23851   1.187   5.998  10.574
73985SOL    HW123852   1.181   5.903  10.582
73985SOL    HW223853   1.280   6.017  10.585
73986SOL     OW23854  10.696   7.236   2.299
73986SOL    HW123855  10.637   7.278   2.237
73986SOL    HW223856  10.655   7.249   2.384
73987SOL     OW23857  13.876   5.337  11.008
73987SOL    HW123858  13.822   5.277  11.058
73987SOL    HW223859  13.814   5.400  10.970
73988SOL     OW23860   1.043   9.998   9.340
73988SOL    HW123861   1.022  10.091   9.349
73988SOL    HW223862   1.071   9.988   9.249
73989SOL     OW23863   0.335   9.310   7.367
73989SOL    HW123864   0.345   9.377   7.299
73989SOL    HW223865   0.423   9.273   7.377
73990SOL     OW23866   5.789   5.625  10.974
73990SOL    HW123867   5.762   5.704  10.927
73990SOL    HW223868   5.761   5.640  11.065
73991SOL     OW23869  14.190   5.011   7.067
73991SOL    HW123870  14.261   5.073   7.083
73991SOL    HW223871  14.198   4.946   7.136
73992SOL     OW23872  10.064  12.904   8.621
73992SOL    HW123873  10.022  12.930   8.539
73992SOL    HW223874  10.111  12.983   8.650
73993SOL     OW23875  14.574  10.515   2.370
73993SOL    HW123876  14.518  10.520   2.447
73993SOL    HW223877  14.648  10.572   2.390
73994SOL     OW23878   9.346  12.030   3.534
73994SOL    HW123879   9.418  12.010   3.594
73994SOL    HW223880   9.297  12.099   3.578
73995SOL     OW23881   9.872   0.316  12.427
73995SOL    HW123882   9.933   0.276  12.365
73995SOL    HW223883   9.866   0.407  12.400
73996SOL     OW23884   0.829  10.977  14.554
73996SOL    HW123885   0.757  10.916  14.567
73996SOL    HW223886   0.903  10.937  14.600
73997SOL     OW23887   0.476  12.035  11.278
73997SOL    HW123888   0.399  12.055  11.331
73997SOL    HW223889   0.547  12.082  11.321
73998SOL     OW23890  10.693   2.452  10.960
73998SOL    HW123891  10.694   2.535  10.911
73998SOL    HW223892  10.761   2.400  10.918
73999SOL     OW23893   8.572   1.291   9.132
73999SOL    HW123894   8.582   1.368   9.188
73999SOL    HW223895   8.660   1.255   9.125
74000SOL     OW23896   9.565   1.098  11.031
74000SOL    HW123897   9.658   1.077  11.017
74000SOL    HW223898   9.532   1.024  11.083
74001SOL     OW23899   6.370  14.209   4.790
74001SOL    HW123900   6.454  14.163   4.799
74001SOL    HW223901   6.349  14.237   4.879
74002SOL     OW23902   1.907   5.384   7.178
74002SOL    HW123903   1.840   5.350   7.238
74002SOL    HW223904   1.859   5.444   7.121
74003SOL     OW23905   2.058  10.419   6.034
74003SOL    HW123906   2.051  10.416   5.939
74003SOL    HW223907   1.968  10.426   6.065
74004SOL     OW23908   3.095   7.696   7.936
74004SOL    HW123909   3.179   7.741   7.937
74004SOL    HW223910   3.039   7.750   7.880
74005SOL     OW23911   7.870  14.702   8.274
74005SOL    HW123912   7.876  14.610   8.247
74005SOL    HW223913   7.811  14.742   8.210
74006SOL     OW23914   0.658   9.772   9.466
74006SOL    HW123915   0.612   9.710   9.522
74006SOL    HW223916   0.751   9.759   9.486
74007SOL     OW23917  14.800   1.965   6.823
74007SOL    HW123918  14.788   1.870   6.832
74007SOL    HW223919  14.734   2.003   6.881
74008SOL     OW23920  10.616  11.544  13.121
74008SOL    HW123921  10.651  11.488  13.191
74008SOL    HW223922  10.694  11.573  13.073
74009SOL     OW23923   0.676   6.621   3.099
74009SOL    HW123924   0.740   6.579   3.041
74009SOL    HW223925   0.727   6.652   3.173
74010SOL     OW23926   9.627  14.789   5.905
74010SOL    HW123927   9.547  14.795   5.957
74010SOL    HW223928   9.698  14.806   5.968
74011SOL     OW23929   0.438  13.486   0.384
74011SOL    HW123930   0.412  13.475   0.292
74011SOL    HW223931   0.393  13.415   0.430
74012SOL     OW23932   2.146   6.616   3.801
74012SOL    HW123933   2.097   6.681   3.750
74012SOL    HW223934   2.217   6.666   3.841
74013SOL     OW23935   6.531  11.545  12.113
74013SOL    HW123936   6.614  11.581  12.082
74013SOL    HW223937   6.547  11.452  12.124
74014SOL     OW23938   3.396  10.482  10.461
74014SOL    HW123939   3.389  10.396  10.503
74014SOL    HW223940   3.351  10.472  10.377
74015SOL     OW23941  11.577   6.775  12.385
74015SOL    HW123942  11.580   6.866  12.416
74015SOL    HW223943  11.626   6.726  12.451
74016SOL     OW23944  12.276   9.189   4.687
74016SOL    HW123945  12.265   9.129   4.613
74016SOL    HW223946  12.348   9.247   4.662
74017SOL     OW23947  13.888   6.867   1.772
74017SOL    HW123948  13.925   6.787   1.810
74017SOL    HW223949  13.963   6.910   1.730
74018SOL     OW23950  13.150   0.124  14.000
74018SOL    HW123951  13.205   0.183  13.949
74018SOL    HW223952  13.203   0.046  14.013
74019SOL     OW23953   8.054  10.849  13.541
74019SOL    HW123954   7.984  10.789  13.567
74019SOL    HW223955   8.008  10.928  13.512
74020SOL     OW23956   1.755  13.121  10.169
74020SOL    HW123957   1.723  13.064  10.239
74020SOL    HW223958   1.783  13.201  10.215
74021SOL     OW23959   0.459  10.865   9.970
74021SOL    HW123960   0.418  10.859  10.056
74021SOL    HW223961   0.533  10.924   9.983
74022SOL     OW23962   6.059   7.944  14.133
74022SOL    HW123963   6.087   7.906  14.216
74022SOL    HW223964   6.093   8.034  14.135
74023SOL     OW23965   6.647   8.901   9.603
74023SOL    HW123966   6.634   8.855   9.520
74023SOL    HW223967   6.653   8.994   9.579
74024SOL     OW23968   7.821  14.325   7.373
74024SOL    HW123969   7.764  14.316   7.449
74024SOL    HW223970   7.797  14.252   7.316
74025SOL     OW23971   5.225   9.465   9.435
74025SOL    HW123972   5.310   9.469   9.390
74025SOL    HW223973   5.166   9.517   9.381
74026SOL     OW23974   2.115   9.566   6.630
74026SOL    HW123975   2.169   9.583   6.707
74026SOL    HW223976   2.084   9.476   6.641
74027SOL     OW23977  14.606   6.953   8.585
74027SOL    HW123978  14.538   6.887   8.599
74027SOL    HW223979  14.584   6.992   8.500
74028SOL     OW23980   9.096  13.354   4.801
74028SOL    HW123981   9.110  13.408   4.723
74028SOL    HW223982   9.183  13.340   4.837
74029SOL     OW23983   8.605  10.899   0.436
74029SOL    HW123984   8.691  10.869   0.464
74029SOL    HW223985   8.615  10.994   0.424
74030SOL     OW23986   9.994   4.017   2.360
74030SOL    HW123987   9.905   4.030   2.393
74030SOL    HW223988  10.016   3.927   2.385
74031SOL     OW23989   9.546   0.553   4.032
74031SOL    HW123990   9.609   0.490   3.996
74031SOL    HW223991   9.552   0.629   3.974
74032SOL     OW23992   2.756   4.486   3.211
74032SOL    HW123993   2.793   4.405   3.176
74032SOL    HW223994   2.828   4.549   3.204
74033SOL     OW23995   6.992  11.187  14.337
74033SOL    HW123996   7.062  11.138  14.294
74033SOL    HW223997   7.036  11.239  14.404
74034SOL     OW23998   7.833  14.296   9.096
74034SOL    HW123999   7.817  14.264   9.007
74034SOL    HW224000   7.926  14.276   9.111
74035SOL     OW24001   2.757  14.163   8.649
74035SOL    HW124002   2.754  14.087   8.591
74035SOL    HW224003   2.756  14.126   8.738
74036SOL     OW24004   0.503   8.572   1.076
74036SOL    HW124005   0.563   8.507   1.040
74036SOL    HW224006   0.543   8.656   1.053
74037SOL     OW24007   4.694   6.662  11.386
74037SOL    HW124008   4.738   6.747  11.383
74037SOL    HW224009   4.601   6.683  11.376
74038SOL     OW24010   2.737  10.196   1.686
74038SOL    HW124011   2.684  10.264   1.643
74038SOL    HW224012   2.689  10.115   1.670
74039SOL     OW24013   2.703  14.715   6.102
74039SOL    HW124014   2.744  14.637   6.139
74039SOL    HW224015   2.764  14.786   6.121
74040SOL     OW24016   6.140   2.169   8.458
74040SOL    HW124017   6.070   2.189   8.520
74040SOL    HW224018   6.200   2.243   8.465
74041SOL     OW24019   6.171   5.092   4.449
74041SOL    HW124020   6.237   5.150   4.486
74041SOL    HW224021   6.221   5.019   4.413
74042SOL     OW24022   6.050   1.988   7.054
74042SOL    HW124023   5.972   2.014   7.005
74042SOL    HW224024   6.118   2.049   7.024
74043SOL     OW24025   1.660  13.269  12.011
74043SOL    HW124026   1.647  13.174  12.016
74043SOL    HW224027   1.745  13.278  11.968
74044SOL     OW24028   3.734   0.049   9.450
74044SOL    HW124029   3.775   0.117   9.503
74044SOL    HW224030   3.723  14.848   9.511
74045SOL     OW24031  10.220   2.222   9.741
74045SOL    HW124032  10.217   2.259   9.829
74045SOL    HW224033  10.226   2.297   9.682
74046SOL     OW24034   4.157  13.344  14.865
74046SOL    HW124035   4.115  13.301   0.067
74046SOL    HW224036   4.249  13.318  14.871
74047SOL     OW24037   3.393   2.530  13.306
74047SOL    HW124038   3.422   2.442  13.284
74047SOL    HW224039   3.345   2.559  13.228
74048SOL     OW24040  10.693   5.057  12.978
74048SOL    HW124041  10.620   5.116  12.960
74048SOL    HW224042  10.696   4.999  12.901
74049SOL     OW24043  10.725   7.812  13.317
74049SOL    HW124044  10.635   7.781  13.317
74049SOL    HW224045  10.748   7.818  13.224
74050SOL     OW24046   9.357   7.947  13.957
74050SOL    HW124047   9.355   8.000  13.878
74050SOL    HW224048   9.438   7.897  13.951
74051SOL     OW24049   5.677  12.755   9.468
74051SOL    HW124050   5.749  12.768   9.408
74051SOL    HW224051   5.713  12.702   9.539
74052SOL     OW24052   1.892   8.146   9.414
74052SOL    HW124053   1.982   8.140   9.384
74052SOL    HW224054   1.856   8.058   9.399
74053SOL     OW24055   4.931  13.454   3.808
74053SOL    HW124056   4.998  13.389   3.827
74053SOL    HW224057   4.980  13.532   3.782
74054SOL     OW24058  13.325  11.480   4.982
74054SOL    HW124059  13.414  11.515   4.971
74054SOL    HW224060  13.286  11.487   4.894
74055SOL     OW24061  12.790   9.342  14.867
74055SOL    HW124062  12.735   9.355   0.072
74055SOL    HW224063  12.786   9.248  14.850
74056SOL     OW24064   9.321   2.450   3.547
74056SOL    HW124065   9.386   2.451   3.618
74056SOL    HW224066   9.236   2.452   3.593
74057SOL     OW24067  14.593   6.506  10.594
74057SOL    HW124068  14.508   6.463  10.587
74057SOL    HW224069  14.656   6.434  10.600
74058SOL     OW24070   7.776   4.179   2.313
74058SOL    HW124071   7.858   4.131   2.323
74058SOL    HW224072   7.799   4.270   2.333
74059SOL     OW24073   0.667   9.128   6.233
74059SOL    HW124074   0.701   9.053   6.185
74059SOL    HW224075   0.740   9.191   6.234
74060SOL     OW24076  11.940   1.695  14.342
74060SOL    HW124077  12.017   1.722  14.291
74060SOL    HW224078  11.952   1.738  14.427
74061SOL     OW24079   4.990  10.081   8.209
74061SOL    HW124080   4.938  10.021   8.156
74061SOL    HW224081   5.023  10.027   8.280
74062SOL     OW24082   1.145   9.440  10.462
74062SOL    HW124083   1.199   9.362  10.475
74062SOL    HW224084   1.055   9.408  10.459
74063SOL     OW24085  14.863   4.929  13.897
74063SOL    HW124086  14.871   4.834  13.902
74063SOL    HW224087  14.811   4.953  13.974
74064SOL     OW24088   0.982   2.453  11.241
74064SOL    HW124089   0.952   2.389  11.306
74064SOL    HW224090   0.985   2.536  11.290
74065SOL     OW24091   1.804   7.483   6.180
74065SOL    HW124092   1.823   7.392   6.156
74065SOL    HW224093   1.889   7.526   6.184
74066SOL     OW24094   7.819  10.237   8.538
74066SOL    HW124095   7.884  10.303   8.563
74066SOL    HW224096   7.836  10.220   8.445
74067SOL     OW24097   8.183   2.955  11.316
74067SOL    HW124098   8.245   2.887  11.342
74067SOL    HW224099   8.199   2.967  11.222
74068SOL     OW24100   2.964   7.280   7.856
74068SOL    HW124101   2.982   7.352   7.916
74068SOL    HW224102   3.008   7.205   7.895
74069SOL     OW24103   8.457   3.395  14.499
74069SOL    HW124104   8.438   3.486  14.520
74069SOL    HW224105   8.513   3.399  14.421
74070SOL     OW24106  14.330   7.941   4.856
74070SOL    HW124107  14.361   8.031   4.846
74070SOL    HW224108  14.234   7.949   4.859
74071SOL     OW24109   3.211   0.437  11.392
74071SOL    HW124110   3.135   0.379  11.392
74071SOL    HW224111   3.281   0.384  11.353
74072SOL     OW24112   4.997   0.879   3.391
74072SOL    HW124113   4.958   0.857   3.476
74072SOL    HW224114   5.087   0.903   3.412
74073SOL     OW24115   7.018   3.555  13.690
74073SOL    HW124116   6.975   3.641  13.685
74073SOL    HW224117   7.087   3.567  13.756
74074SOL     OW24118   2.147  11.068  10.205
74074SOL    HW124119   2.076  11.118  10.245
74074SOL    HW224120   2.111  11.038  10.121
74075SOL     OW24121  13.394  11.885   2.254
74075SOL    HW124122  13.320  11.826   2.266
74075SOL    HW224123  13.386  11.915   2.163
74076SOL     OW24124   4.562   8.244  13.298
74076SOL    HW124125   4.606   8.192  13.230
74076SOL    HW224126   4.485   8.191  13.322
74077SOL     OW24127   1.843  11.623   1.914
74077SOL    HW124128   1.816  11.537   1.882
74077SOL    HW224129   1.935  11.630   1.888
74078SOL     OW24130  10.254  14.126  11.345
74078SOL    HW124131  10.326  14.139  11.283
74078SOL    HW224132  10.271  14.189  11.416
74079SOL     OW24133   7.479   9.876   3.883
74079SOL    HW124134   7.517   9.963   3.892
74079SOL    HW224135   7.509   9.827   3.960
74080SOL     OW24136   0.836   5.523   5.809
74080SOL    HW124137   0.767   5.586   5.833
74080SOL    HW224138   0.895   5.573   5.753
74081SOL     OW24139   1.218  10.045  12.664
74081SOL    HW124140   1.180   9.986  12.729
74081SOL    HW224141   1.145  10.064  12.604
74082SOL     OW24142  10.227   7.390   2.212
74082SOL    HW124143  10.198   7.406   2.301
74082SOL    HW224144  10.166   7.439   2.157
74083SOL     OW24145   3.105   0.227   7.994
74083SOL    HW124146   3.157   0.261   7.921
74083SOL    HW224147   3.043   0.298   8.013
74084SOL     OW24148   1.255  10.960   5.761
74084SOL    HW124149   1.301  11.006   5.691
74084SOL    HW224150   1.165  10.953   5.731
74085SOL     OW24151  11.384   2.719   1.598
74085SOL    HW124152  11.418   2.718   1.508
74085SOL    HW224153  11.439   2.657   1.645
74086SOL     OW24154   5.397  10.527   7.053
74086SOL    HW124155   5.345  10.463   7.102
74086SOL    HW224156   5.478  10.534   7.102
74087SOL     OW24157   4.233   7.660   7.768
74087SOL    HW124158   4.238   7.637   7.676
74087SOL    HW224159   4.143   7.639   7.794
74088SOL     OW24160   6.950   6.126  11.415
74088SOL    HW124161   7.039   6.109  11.448
74088SOL    HW224162   6.907   6.041  11.417
74089SOL     OW24163  13.918   5.279  13.669
74089SOL    HW124164  13.928   5.218  13.595
74089SOL    HW224165  13.970   5.239  13.739
74090SOL     OW24166   3.086  13.598  10.545
74090SOL    HW124167   3.072  13.507  10.517
74090SOL    HW224168   3.156  13.592  10.611
74091SOL     OW24169  11.604   4.943   8.467
74091SOL    HW124170  11.524   4.971   8.512
74091SOL    HW224171  11.587   4.960   8.374
74092SOL     OW24172   2.307   8.437   3.890
74092SOL    HW124173   2.398   8.410   3.903
74092SOL    HW224174   2.260   8.400   3.965
74093SOL     OW24175   5.417   8.860   6.494
74093SOL    HW124176   5.354   8.932   6.499
74093SOL    HW224177   5.501   8.902   6.481
74094SOL     OW24178   3.482   5.470  11.743
74094SOL    HW124179   3.492   5.485  11.837
74094SOL    HW224180   3.451   5.554  11.709
74095SOL     OW24181  14.030  12.189   9.354
74095SOL    HW124182  13.996  12.145   9.277
74095SOL    HW224183  14.087  12.124   9.396
74096SOL     OW24184   2.961   2.870   2.092
74096SOL    HW124185   2.991   2.792   2.138
74096SOL    HW224186   3.039   2.905   2.049
74097SOL     OW24187   4.610   7.593   6.773
74097SOL    HW124188   4.596   7.525   6.707
74097SOL    HW224189   4.647   7.667   6.725
74098SOL     OW24190  12.416   1.785   3.229
74098SOL    HW124191  12.430   1.872   3.193
74098SOL    HW224192  12.349   1.797   3.296
74099SOL     OW24193   4.324  11.327   7.442
74099SOL    HW124194   4.230  11.336   7.428
74099SOL    HW224195   4.354  11.415   7.463
74100SOL     OW24196   0.158   6.165   0.561
74100SOL    HW124197   0.141   6.098   0.495
74100SOL    HW224198   0.120   6.129   0.642
74101SOL     OW24199   8.324   5.702  12.901
74101SOL    HW124200   8.283   5.775  12.946
74101SOL    HW224201   8.418   5.719  12.908
74102SOL     OW24202   1.647  12.303   8.398
74102SOL    HW124203   1.564  12.312   8.350
74102SOL    HW224204   1.708  12.268   8.333
74103SOL     OW24205  10.185   8.347   1.529
74103SOL    HW124206  10.209   8.437   1.552
74103SOL    HW224207  10.169   8.351   1.434
74104SOL     OW24208  10.840   1.203   1.691
74104SOL    HW124209  10.815   1.199   1.599
74104SOL    HW224210  10.811   1.120   1.728
74105SOL     OW24211   4.516  14.665   8.120
74105SOL    HW124212   4.531  14.681   8.213
74105SOL    HW224213   4.567  14.732   8.075
74106SOL     OW24214   4.161   6.699   3.487
74106SOL    HW124215   4.199   6.616   3.514
74106SOL    HW224216   4.154   6.750   3.568
74107SOL     OW24217   3.646  14.130   9.054
74107SOL    HW124218   3.676  14.141   8.964
74107SOL    HW224219   3.702  14.189   9.105
74108SOL     OW24220  13.520   0.240  12.740
74108SOL    HW124221  13.551   0.218  12.652
74108SOL    HW224222  13.523   0.335  12.743
74109SOL     OW24223   7.219   4.103   5.116
74109SOL    HW124224   7.259   4.023   5.152
74109SOL    HW224225   7.251   4.107   5.026
74110SOL     OW24226   9.244   4.194   3.396
74110SOL    HW124227   9.222   4.105   3.421
74110SOL    HW224228   9.224   4.246   3.474
74111SOL     OW24229   7.283   0.929  13.317
74111SOL    HW124230   7.288   1.021  13.340
74111SOL    HW224231   7.245   0.927  13.230
74112SOL     OW24232   3.258  10.864  12.963
74112SOL    HW124233   3.297  10.781  12.936
74112SOL    HW224234   3.274  10.923  12.889
74113SOL     OW24235   0.289   3.975   4.384
74113SOL    HW124236   0.206   4.021   4.377
74113SOL    HW224237   0.326   4.003   4.468
74114SOL     OW24238  10.972  13.653   7.150
74114SOL    HW124239  10.922  13.635   7.229
74114SOL    HW224240  10.919  13.615   7.079
74115SOL     OW24241   1.158   4.800  13.543
74115SOL    HW124242   1.237   4.800  13.489
74115SOL    HW224243   1.095   4.852  13.493
74116SOL     OW24244  14.298  12.413   0.218
74116SOL    HW124245  14.274  12.456   0.136
74116SOL    HW224246  14.390  12.434   0.230
74117SOL     OW24247   6.619   1.098   2.970
74117SOL    HW124248   6.610   1.108   2.875
74117SOL    HW224249   6.553   1.158   3.007
74118SOL     OW24250   5.229   8.552   4.195
74118SOL    HW124251   5.269   8.636   4.171
74118SOL    HW224252   5.189   8.568   4.280
74119SOL     OW24253  12.579   6.108   7.956
74119SOL    HW124254  12.513   6.173   7.930
74119SOL    HW224255  12.621   6.145   8.033
74120SOL     OW24256   3.756  12.287  12.645
74120SOL    HW124257   3.830  12.320  12.696
74120SOL    HW224258   3.793  12.268  12.559
74121SOL     OW24259   6.089  13.774   2.846
74121SOL    HW124260   6.071  13.836   2.916
74121SOL    HW224261   6.183  13.782   2.830
74122SOL     OW24262   9.380  14.537  11.860
74122SOL    HW124263   9.302  14.527  11.806
74122SOL    HW224264   9.353  14.595  11.932
74123SOL     OW24265  10.417   1.886   2.178
74123SOL    HW124266  10.388   1.856   2.265
74123SOL    HW224267  10.355   1.955   2.156
74124SOL     OW24268  13.427  14.359   3.921
74124SOL    HW124269  13.483  14.434   3.900
74124SOL    HW224270  13.394  14.378   4.009
74125SOL     OW24271  10.222  11.027  14.464
74125SOL    HW124272  10.177  11.101  14.422
74125SOL    HW224273  10.313  11.057  14.473
74126SOL     OW24274  13.754  13.659   1.054
74126SOL    HW124275  13.843  13.691   1.039
74126SOL    HW224276  13.750  13.576   1.005
74127SOL     OW24277  12.812   9.748   0.356
74127SOL    HW124278  12.817   9.735   0.261
74127SOL    HW224279  12.860   9.675   0.393
74128SOL     OW24280  13.821   3.246  14.060
74128SOL    HW124281  13.742   3.213  14.104
74128SOL    HW224282  13.893   3.220  14.117
74129SOL     OW24283  10.665  13.934  10.215
74129SOL    HW124284  10.585  13.986  10.208
74129SOL    HW224285  10.711  13.951  10.132
74130SOL     OW24286   4.267  11.321   7.957
74130SOL    HW124287   4.182  11.332   7.915
74130SOL    HW224288   4.315  11.261   7.899
74131SOL     OW24289   6.145   8.079   7.204
74131SOL    HW124290   6.118   8.112   7.290
74131SOL    HW224291   6.063   8.053   7.162
74132SOL     OW24292   9.044   7.920   2.617
74132SOL    HW124293   9.044   7.987   2.547
74132SOL    HW224294   8.952   7.912   2.642
74133SOL     OW24295  10.054   9.338   6.804
74133SOL    HW124296  10.097   9.336   6.890
74133SOL    HW224297  10.117   9.296   6.746
74134SOL     OW24298   9.307   1.508   2.699
74134SOL    HW124299   9.267   1.563   2.631
74134SOL    HW224300   9.248   1.515   2.774
74135SOL     OW24301   1.031  10.981   7.912
74135SOL    HW124302   1.065  10.996   8.000
74135SOL    HW224303   1.079  11.042   7.856
74136SOL     OW24304   2.913   9.908  13.309
74136SOL    HW124305   2.920   9.970  13.381
74136SOL    HW224306   2.940   9.957  13.231
74137SOL     OW24307   2.602  14.110  14.114
74137SOL    HW124308   2.629  14.106  14.206
74137SOL    HW224309   2.603  14.204  14.093
74138SOL     OW24310   9.826   2.188  10.371
74138SOL    HW124311   9.743   2.232  10.385
74138SOL    HW224312   9.806   2.116  10.312
74139SOL     OW24313   1.925   0.273   2.531
74139SOL    HW124314   2.002   0.302   2.483
74139SOL    HW224315   1.949   0.187   2.566
74140SOL     OW24316   4.040  11.776   5.822
74140SOL    HW124317   4.124  11.787   5.778
74140SOL    HW224318   4.005  11.864   5.830
74141SOL     OW24319  10.933   3.528   0.714
74141SOL    HW124320  10.901   3.570   0.634
74141SOL    HW224321  11.006   3.583   0.743
74142SOL     OW24322  10.145   9.505  14.789
74142SOL    HW124323  10.115   9.461  14.709
74142SOL    HW224324  10.236   9.528  14.770
74143SOL     OW24325  10.766   5.280   9.395
74143SOL    HW124326  10.816   5.311   9.319
74143SOL    HW224327  10.833   5.260   9.461
74144SOL     OW24328  11.031   2.946   0.198
74144SOL    HW124329  11.077   2.996   0.266
74144SOL    HW224330  11.020   2.859   0.237
74145SOL     OW24331  13.546  11.495   3.227
74145SOL    HW124332  13.614  11.428   3.219
74145SOL    HW224333  13.580  11.570   3.178
74146SOL     OW24334   4.332  13.405   0.293
74146SOL    HW124335   4.319  13.474   0.359
74146SOL    HW224336   4.320  13.449   0.209
74147SOL     OW24337   3.586  14.666   0.534
74147SOL    HW124338   3.598  14.759   0.519
74147SOL    HW224339   3.491  14.652   0.525
74148SOL     OW24340   9.698   7.601   2.955
74148SOL    HW124341   9.782   7.645   2.967
74148SOL    HW224342   9.633   7.667   2.979
74149SOL     OW24343   8.922  13.029   6.924
74149SOL    HW124344   8.884  13.039   7.011
74149SOL    HW224345   9.004  13.078   6.927
74150SOL     OW24346   9.688  10.411   9.364
74150SOL    HW124347   9.702  10.470   9.438
74150SOL    HW224348   9.620  10.455   9.312
74151SOL     OW24349   9.350  14.419  10.135
74151SOL    HW124350   9.411  14.356  10.095
74151SOL    HW224351   9.380  14.504  10.105
74152SOL     OW24352   5.460   2.755   3.158
74152SOL    HW124353   5.418   2.685   3.108
74152SOL    HW224354   5.464   2.723   3.247
74153SOL     OW24355  12.235  11.187   8.162
74153SOL    HW124356  12.161  11.247   8.173
74153SOL    HW224357  12.291  11.205   8.238
74154SOL     OW24358   0.341   6.516  14.364
74154SOL    HW124359   0.336   6.597  14.414
74154SOL    HW224360   0.276   6.526  14.295
74155SOL     OW24361  12.800   9.122   7.459
74155SOL    HW124362  12.713   9.085   7.445
74155SOL    HW224363  12.842   9.062   7.520
74156SOL     OW24364   2.616  12.086   4.203
74156SOL    HW124365   2.693  12.087   4.260
74156SOL    HW224366   2.543  12.106   4.261
74157SOL     OW24367  10.069  11.502  11.669
74157SOL    HW124368  10.117  11.577  11.633
74157SOL    HW224369   9.993  11.492  11.611
74158SOL     OW24370   2.881   7.666  10.822
74158SOL    HW124371   2.851   7.755  10.843
74158SOL    HW224372   2.958   7.679  10.767
74159SOL     OW24373  13.672  12.496   1.833
74159SOL    HW124374  13.605  12.535   1.889
74159SOL    HW224375  13.752  12.496   1.886
74160SOL     OW24376  13.404  12.968  12.860
74160SOL    HW124377  13.436  13.015  12.937
74160SOL    HW224378  13.350  13.033  12.814
74161SOL     OW24379   9.570   2.886  10.610
74161SOL    HW124380   9.479   2.862  10.592
74161SOL    HW224381   9.582   2.865  10.703
74162SOL     OW24382   4.757  13.453   7.171
74162SOL    HW124383   4.808  13.481   7.095
74162SOL    HW224384   4.816  13.464   7.246
74163SOL     OW24385   9.366   5.351   6.683
74163SOL    HW124386   9.337   5.435   6.718
74163SOL    HW224387   9.287   5.297   6.679
74164SOL     OW24388  10.372   0.222   2.051
74164SOL    HW124389  10.379   0.224   1.955
74164SOL    HW224390  10.455   0.258   2.081
74165SOL     OW24391   3.309   3.888  11.219
74165SOL    HW124392   3.359   3.811  11.244
74165SOL    HW224393   3.316   3.892  11.124
74166SOL     OW24394  13.803   2.806   5.696
74166SOL    HW124395  13.820   2.785   5.604
74166SOL    HW224396  13.723   2.858   5.694
74167SOL     OW24397   8.289   4.905   6.832
74167SOL    HW124398   8.251   4.934   6.915
74167SOL    HW224399   8.374   4.950   6.828
74168SOL     OW24400   3.902   5.874  11.257
74168SOL    HW124401   3.826   5.827  11.293
74168SOL    HW224402   3.962   5.805  11.230
74169SOL     OW24403   4.624  14.054  13.311
74169SOL    HW124404   4.613  13.988  13.380
74169SOL    HW224405   4.713  14.039  13.278
74170SOL     OW24406   8.535   1.447   5.893
74170SOL    HW124407   8.508   1.471   5.804
74170SOL    HW224408   8.571   1.527   5.930
74171SOL     OW24409   9.033   3.833   6.948
74171SOL    HW124410   9.027   3.915   6.900
74171SOL    HW224411   9.002   3.767   6.886
74172SOL     OW24412   1.174   5.037  11.395
74172SOL    HW124413   1.261   5.015  11.427
74172SOL    HW224414   1.115   4.985  11.450
74173SOL     OW24415   7.044  13.654   3.627
74173SOL    HW124416   7.030  13.606   3.708
74173SOL    HW224417   6.965  13.639   3.576
74174SOL     OW24418  12.063   5.370   1.412
74174SOL    HW124419  12.004   5.315   1.361
74174SOL    HW224420  12.134   5.311   1.438
74175SOL     OW24421   7.857  14.764  12.742
74175SOL    HW124422   7.830  14.774  12.833
74175SOL    HW224423   7.952  14.757  12.746
74176SOL     OW24424   3.767   6.922  12.055
74176SOL    HW124425   3.787   6.992  11.992
74176SOL    HW224426   3.802   6.954  12.138
74177SOL     OW24427   5.046   9.677   4.413
74177SOL    HW124428   5.073   9.678   4.321
74177SOL    HW224429   5.012   9.766   4.429
74178SOL     OW24430   2.168   6.315  14.836
74178SOL    HW124431   2.247   6.361  14.865
74178SOL    HW224432   2.144   6.358  14.754
74179SOL     OW24433   2.114   5.506  10.118
74179SOL    HW124434   2.099   5.431  10.060
74179SOL    HW224435   2.150   5.467  10.198
74180SOL     OW24436   7.074  13.483  13.743
74180SOL    HW124437   7.084  13.438  13.659
74180SOL    HW224438   6.988  13.457  13.775
74181SOL     OW24439   4.327  11.106  11.850
74181SOL    HW124440   4.339  11.142  11.938
74181SOL    HW224441   4.232  11.101  11.839
74182SOL     OW24442   4.470   7.527   5.900
74182SOL    HW124443   4.510   7.590   5.961
74182SOL    HW224444   4.490   7.441   5.938
74183SOL     OW24445   8.593  12.952  13.894
74183SOL    HW124446   8.606  13.011  13.819
74183SOL    HW224447   8.671  12.895  13.892
74184SOL     OW24448   9.371  11.258   5.979
74184SOL    HW124449   9.330  11.197   6.041
74184SOL    HW224450   9.311  11.333   5.976
74185SOL     OW24451   5.511  11.676   6.237
74185SOL    HW124452   5.496  11.769   6.252
74185SOL    HW224453   5.589  11.655   6.289
74186SOL     OW24454   5.879  10.805   0.103
74186SOL    HW124455   5.966  10.787   0.068
74186SOL    HW224456   5.875  10.900   0.108
74187SOL     OW24457   7.967  12.243   1.260
74187SOL    HW124458   7.980  12.329   1.220
74187SOL    HW224459   7.954  12.184   1.185
74188SOL     OW24460   2.928   7.367   9.241
74188SOL    HW124461   2.886   7.414   9.313
74188SOL    HW224462   2.896   7.277   9.250
74189SOL     OW24463   5.713   9.141   4.149
74189SOL    HW124464   5.711   9.046   4.143
74189SOL    HW224465   5.752   9.159   4.235
74190SOL     OW24466   6.943  12.627   0.958
74190SOL    HW124467   6.871  12.637   0.896
74190SOL    HW224468   6.938  12.535   0.986
74191SOL     OW24469  13.011   8.317  13.239
74191SOL    HW124470  13.050   8.276  13.162
74191SOL    HW224471  12.961   8.391  13.204
74192SOL     OW24472  10.255   8.353  10.473
74192SOL    HW124473  10.280   8.427  10.417
74192SOL    HW224474  10.198   8.392  10.539
74193SOL     OW24475   0.936   4.920   0.109
74193SOL    HW124476   1.001   4.852   0.091
74193SOL    HW224477   0.988   4.999   0.123
74194SOL     OW24478  11.983  10.119  10.077
74194SOL    HW124479  11.978  10.106   9.982
74194SOL    HW224480  11.907  10.174  10.097
74195SOL     OW24481   3.529   1.547   9.478
74195SOL    HW124482   3.467   1.569   9.408
74195SOL    HW224483   3.501   1.461   9.509
74196SOL     OW24484   7.726   5.717   2.667
74196SOL    HW124485   7.767   5.785   2.721
74196SOL    HW224486   7.639   5.706   2.704
74197SOL     OW24487  13.508  14.600   6.438
74197SOL    HW124488  13.462  14.521   6.466
74197SOL    HW224489  13.473  14.617   6.350
74198SOL     OW24490   1.473   6.449   1.318
74198SOL    HW124491   1.522   6.376   1.280
74198SOL    HW224492   1.417   6.409   1.384
74199SOL     OW24493  14.221   7.090   2.674
74199SOL    HW124494  14.136   7.050   2.692
74199SOL    HW224495  14.207   7.184   2.686
74200SOL     OW24496   3.246  11.225   6.032
74200SOL    HW124497   3.155  11.248   6.012
74200SOL    HW224498   3.250  11.130   6.018
74201SOL     OW24499   7.475   9.555  10.327
74201SOL    HW124500   7.487   9.599  10.243
74201SOL    HW224501   7.467   9.626  10.390
74202SOL     OW24502   7.611  10.656   2.472
74202SOL    HW124503   7.608  10.713   2.396
74202SOL    HW224504   7.693  10.607   2.462
74203SOL     OW24505  14.151   5.529   4.361
74203SOL    HW124506  14.185   5.498   4.277
74203SOL    HW224507  14.228   5.564   4.406
74204SOL     OW24508   3.953   7.539   6.631
74204SOL    HW124509   4.006   7.511   6.705
74204SOL    HW224510   3.937   7.459   6.581
74205SOL     OW24511  10.804   8.981   5.914
74205SOL    HW124512  10.730   9.026   5.875
74205SOL    HW224513  10.844   8.933   5.841
74206SOL     OW24514  12.877   9.318   9.423
74206SOL    HW124515  12.856   9.227   9.405
74206SOL    HW224516  12.934   9.344   9.350
74207SOL     OW24517   8.130   8.736   7.633
74207SOL    HW124518   8.095   8.714   7.547
74207SOL    HW224519   8.059   8.785   7.676
74208SOL     OW24520   2.622   6.967   7.869
74208SOL    HW124521   2.540   6.990   7.913
74208SOL    HW224522   2.649   6.885   7.911
74209SOL     OW24523   8.632   0.683  10.575
74209SOL    HW124524   8.621   0.774  10.547
74209SOL    HW224525   8.542   0.651  10.584
74210SOL     OW24526   5.899   2.003   8.859
74210SOL    HW124527   5.984   2.009   8.815
74210SOL    HW224528   5.850   2.079   8.828
74211SOL     OW24529   3.962  14.845   4.554
74211SOL    HW124530   3.913   0.019   4.485
74211SOL    HW224531   4.054  14.864   4.534
74212SOL     OW24532  13.379  14.703  12.447
74212SOL    HW124533  13.293  14.662  12.453
74212SOL    HW224534  13.412  14.701  12.537
74213SOL     OW24535   5.101  14.567  13.567
74213SOL    HW124536   5.061  14.563  13.654
74213SOL    HW224537   5.094  14.478  13.533
74214SOL     OW24538   4.290   8.987   5.885
74214SOL    HW124539   4.216   9.048   5.882
74214SOL    HW224540   4.290   8.945   5.798
74215SOL     OW24541   3.639   5.686   4.094
74215SOL    HW124542   3.612   5.598   4.121
74215SOL    HW224543   3.562   5.740   4.110
74216SOL     OW24544   8.466   4.318   5.147
74216SOL    HW124545   8.443   4.407   5.120
74216SOL    HW224546   8.397   4.292   5.207
74217SOL     OW24547   8.792  14.292   8.218
74217SOL    HW124548   8.760  14.202   8.220
74217SOL    HW224549   8.862  14.293   8.283
74218SOL     OW24550   4.206  11.325   8.891
74218SOL    HW124551   4.226  11.231   8.886
74218SOL    HW224552   4.199  11.353   8.799
74219SOL     OW24553   5.728  11.462   3.110
74219SOL    HW124554   5.633  11.470   3.119
74219SOL    HW224555   5.740  11.381   3.060
74220SOL     OW24556   3.137   5.727  11.415
74220SOL    HW124557   3.132   5.701  11.323
74220SOL    HW224558   3.081   5.805  11.421
74221SOL     OW24559  14.713   1.828   7.742
74221SOL    HW124560  14.627   1.857   7.713
74221SOL    HW224561  14.749   1.903   7.788
74222SOL     OW24562   4.887  10.536   8.428
74222SOL    HW124563   4.870  10.516   8.336
74222SOL    HW224564   4.814  10.498   8.475
74223SOL     OW24565   5.796   6.331   9.988
74223SOL    HW124566   5.758   6.414  10.017
74223SOL    HW224567   5.881   6.355   9.951
74224SOL     OW24568   2.040  14.008  13.801
74224SOL    HW124569   2.100  13.959  13.745
74224SOL    HW224570   2.085  14.092  13.816
74225SOL     OW24571   8.139  10.639   8.757
74225SOL    HW124572   8.179  10.721   8.732
74225SOL    HW224573   8.210  10.574   8.751
74226SOL     OW24574   8.983  12.316   5.819
74226SOL    HW124575   8.907  12.264   5.843
74226SOL    HW224576   9.050  12.252   5.796
74227SOL     OW24577   8.363   2.030   7.881
74227SOL    HW124578   8.383   2.123   7.876
74227SOL    HW224579   8.436   1.992   7.930
74228SOL     OW24580   8.290   3.874   7.177
74228SOL    HW124581   8.366   3.835   7.219
74228SOL    HW224582   8.231   3.800   7.160
74229SOL     OW24583   9.217   6.238   4.622
74229SOL    HW124584   9.275   6.167   4.595
74229SOL    HW224585   9.169   6.202   4.698
74230SOL     OW24586  12.908   3.992   8.641
74230SOL    HW124587  12.853   3.929   8.688
74230SOL    HW224588  12.991   3.945   8.627
74231SOL     OW24589  11.981   1.350   4.533
74231SOL    HW124590  11.988   1.367   4.627
74231SOL    HW224591  11.887   1.343   4.516
74232SOL     OW24592  12.222   4.840  11.218
74232SOL    HW124593  12.303   4.793  11.235
74232SOL    HW224594  12.160   4.804  11.281
74233SOL     OW24595   6.546   0.160  10.503
74233SOL    HW124596   6.503   0.121  10.580
74233SOL    HW224597   6.634   0.124  10.504
74234SOL     OW24598   6.440   4.951   4.418
74234SOL    HW124599   6.423   4.947   4.324
74234SOL    HW224600   6.520   5.003   4.425
74235SOL     OW24601   5.283   3.083  11.706
74235SOL    HW124602   5.228   3.080  11.628
74235SOL    HW224603   5.297   3.176  11.723
74236SOL     OW24604   5.388  11.039   3.887
74236SOL    HW124605   5.392  11.093   3.808
74236SOL    HW224606   5.295  11.037   3.911
74237SOL     OW24607   7.997   4.060   8.542
74237SOL    HW124608   8.020   4.153   8.548
74237SOL    HW224609   7.976   4.046   8.450
74238SOL     OW24610  14.528   7.278   8.453
74238SOL    HW124611  14.526   7.194   8.407
74238SOL    HW224612  14.481   7.262   8.535
74239SOL     OW24613   7.423   3.723   4.667
74239SOL    HW124614   7.414   3.628   4.666
74239SOL    HW224615   7.439   3.745   4.758
74240SOL     OW24616   4.459  13.615  12.414
74240SOL    HW124617   4.401  13.562  12.468
74240SOL    HW224618   4.458  13.572  12.329
74241SOL     OW24619   8.535  12.894   9.086
74241SOL    HW124620   8.580  12.975   9.111
74241SOL    HW224621   8.443  12.911   9.104
74242SOL     OW24622   7.584  13.721   7.548
74242SOL    HW124623   7.648  13.685   7.486
74242SOL    HW224624   7.558  13.646   7.602
74243SOL     OW24625   9.448   2.937   5.648
74243SOL    HW124626   9.489   2.912   5.566
74243SOL    HW224627   9.407   3.021   5.630
74244SOL     OW24628  12.116   3.370  11.433
74244SOL    HW124629  12.210   3.369  11.449
74244SOL    HW224630  12.100   3.456  11.395
74245SOL     OW24631   9.008  11.723   5.195
74245SOL    HW124632   9.007  11.627   5.204
74245SOL    HW224633   8.916  11.748   5.196
74246SOL     OW24634  10.419  13.508  13.330
74246SOL    HW124635  10.323  13.502  13.328
74246SOL    HW224636  10.437  13.576  13.394
74247SOL     OW24637  13.951   7.527  10.342
74247SOL    HW124638  14.022   7.503  10.401
74247SOL    HW224639  13.877   7.474  10.370
74248SOL     OW24640  12.896  14.426   8.625
74248SOL    HW124641  12.989  14.428   8.651
74248SOL    HW224642  12.897  14.443   8.531
74249SOL     OW24643   9.171   9.807   6.834
74249SOL    HW124644   9.248   9.753   6.855
74249SOL    HW224645   9.204   9.872   6.773
74250SOL     OW24646   5.308  13.577  11.606
74250SOL    HW124647   5.251  13.548  11.678
74250SOL    HW224648   5.353  13.654  11.641
74251SOL     OW24649   4.137  12.114  13.225
74251SOL    HW124650   4.195  12.175  13.271
74251SOL    HW224651   4.078  12.082  13.294
74252SOL     OW24652   1.243   9.085   4.886
74252SOL    HW124653   1.333   9.064   4.910
74252SOL    HW224654   1.210   9.138   4.959
74253SOL     OW24655   0.871   5.952   8.594
74253SOL    HW124656   0.884   5.907   8.511
74253SOL    HW224657   0.790   5.915   8.630
74254SOL     OW24658   6.580   7.789  14.331
74254SOL    HW124659   6.507   7.752  14.381
74254SOL    HW224660   6.538   7.835  14.258
74255SOL     OW24661  13.049  11.587   5.837
74255SOL    HW124662  13.030  11.679   5.823
74255SOL    HW224663  12.968  11.542   5.812
74256SOL     OW24664   0.246  12.602   8.416
74256SOL    HW124665   0.212  12.602   8.506
74256SOL    HW224666   0.261  12.509   8.397
74257SOL     OW24667   4.600   9.278   7.104
74257SOL    HW124668   4.671   9.234   7.056
74257SOL    HW224669   4.567   9.211   7.164
74258SOL     OW24670  12.468   5.645   3.981
74258SOL    HW124671  12.491   5.653   3.888
74258SOL    HW224672  12.398   5.580   3.982
74259SOL     OW24673   2.019   0.765   8.599
74259SOL    HW124674   1.967   0.836   8.636
74259SOL    HW224675   2.033   0.704   8.671
74260SOL     OW24676   9.361   9.995   6.214
74260SOL    HW124677   9.376   9.948   6.132
74260SOL    HW224678   9.267   9.983   6.232
74261SOL     OW24679   7.275   9.088   8.401
74261SOL    HW124680   7.330   9.131   8.466
74261SOL    HW224681   7.201   9.054   8.450
74262SOL     OW24682  12.217   1.142   7.205
74262SOL    HW124683  12.122   1.138   7.191
74262SOL    HW224684  12.235   1.235   7.220
74263SOL     OW24685   7.055   0.880   9.015
74263SOL    HW124686   7.087   0.933   8.943
74263SOL    HW224687   6.965   0.857   8.990
74264SOL     OW24688   7.993  10.913  10.953
74264SOL    HW124689   7.985  10.865  11.035
74264SOL    HW224690   8.048  10.988  10.975
74265SOL     OW24691  10.017   6.060   9.022
74265SOL    HW124692   9.938   6.063   9.075
74265SOL    HW224693  10.019   6.144   8.975
74266SOL     OW24694   8.214  14.153   0.352
74266SOL    HW124695   8.191  14.076   0.405
74266SOL    HW224696   8.297  14.183   0.389
74267SOL     OW24697   5.901   3.443  12.444
74267SOL    HW124698   5.831   3.418  12.383
74267SOL    HW224699   5.941   3.360  12.470
74268SOL     OW24700  11.340   2.489  11.902
74268SOL    HW124701  11.423   2.449  11.927
74268SOL    HW224702  11.342   2.575  11.944
74269SOL     OW24703   0.288   3.145   9.243
74269SOL    HW124704   0.231   3.206   9.196
74269SOL    HW224705   0.377   3.172   9.220
74270SOL     OW24706  12.451   5.408   1.814
74270SOL    HW124707  12.433   5.496   1.783
74270SOL    HW224708  12.538   5.413   1.852
74271SOL     OW24709   5.564   7.544   8.518
74271SOL    HW124710   5.502   7.573   8.452
74271SOL    HW224711   5.615   7.622   8.540
74272SOL     OW24712  13.113   9.831   6.619
74272SOL    HW124713  13.050   9.851   6.549
74272SOL    HW224714  13.098   9.898   6.685
74273SOL     OW24715   7.179   8.847   0.566
74273SOL    HW124716   7.191   8.771   0.509
74273SOL    HW224717   7.086   8.845   0.590
74274SOL     OW24718   4.229  13.706  13.777
74274SOL    HW124719   4.186  13.624  13.754
74274SOL    HW224720   4.198  13.768  13.710
74275SOL     OW24721   8.772   6.442   1.141
74275SOL    HW124722   8.799   6.490   1.062
74275SOL    HW224723   8.723   6.367   1.107
74276SOL     OW24724  10.351   5.557  13.042
74276SOL    HW124725  10.298   5.628  13.004
74276SOL    HW224726  10.362   5.582  13.134
74277SOL     OW24727   3.577  12.716   5.957
74277SOL    HW124728   3.572  12.623   5.937
74277SOL    HW224729   3.669  12.732   5.978
74278SOL     OW24730  14.031  13.982   5.339
74278SOL    HW124731  14.088  14.059   5.335
74278SOL    HW224732  14.093  13.908   5.342
74279SOL     OW24733  12.199   8.490   3.347
74279SOL    HW124734  12.266   8.482   3.414
74279SOL    HW224735  12.157   8.574   3.364
74280SOL     OW24736  14.199   1.604   6.709
74280SOL    HW124737  14.212   1.522   6.757
74280SOL    HW224738  14.151   1.579   6.630
74281SOL     OW24739   2.179  11.161   1.040
74281SOL    HW124740   2.158  11.082   1.090
74281SOL    HW224741   2.271  11.178   1.061
74282SOL     OW24742   6.582   2.601   4.330
74282SOL    HW124743   6.582   2.512   4.366
74282SOL    HW224744   6.660   2.642   4.367
74283SOL     OW24745   5.886  13.891  12.026
74283SOL    HW124746   5.894  13.980  12.061
74283SOL    HW224747   5.935  13.836  12.088
74284SOL     OW24748   8.510   5.135  13.927
74284SOL    HW124749   8.448   5.167  13.993
74284SOL    HW224750   8.548   5.214  13.890
74285SOL     OW24751   3.839   1.843  14.421
74285SOL    HW124752   3.872   1.825  14.509
74285SOL    HW224753   3.904   1.804  14.362
74286SOL     OW24754   2.455   4.059   9.652
74286SOL    HW124755   2.384   3.995   9.655
74286SOL    HW224756   2.534   4.007   9.645
74287SOL     OW24757  12.004   1.944  13.743
74287SOL    HW124758  11.910   1.931  13.755
74287SOL    HW224759  12.019   1.926  13.651
74288SOL     OW24760   4.826   0.371  11.499
74288SOL    HW124761   4.837   0.282  11.530
74288SOL    HW224762   4.801   0.361  11.407
74289SOL     OW24763  14.045  10.564   8.964
74289SOL    HW124764  14.090  10.615   9.031
74289SOL    HW224765  13.984  10.626   8.924
74290SOL     OW24766   4.441   6.240   6.980
74290SOL    HW124767   4.513   6.296   6.952
74290SOL    HW224768   4.481   6.154   6.992
74291SOL     OW24769   0.990   1.513   6.419
74291SOL    HW124770   1.019   1.598   6.450
74291SOL    HW224771   1.041   1.450   6.471
74292SOL     OW24772   0.988   5.111   5.768
74292SOL    HW124773   1.074   5.154   5.763
74292SOL    HW224774   0.973   5.079   5.679
74293SOL     OW24775  11.132   4.490   2.504
74293SOL    HW124776  11.190   4.441   2.563
74293SOL    HW224777  11.090   4.555   2.560
74294SOL     OW24778   0.586   7.100   3.161
74294SOL    HW124779   0.573   7.136   3.249
74294SOL    HW224780   0.667   7.050   3.167
74295SOL     OW24781   1.105   4.049  12.151
74295SOL    HW124782   1.198   4.036  12.171
74295SOL    HW224783   1.093   4.011  12.065
74296SOL     OW24784   0.273   0.999   9.126
74296SOL    HW124785   0.190   1.035   9.158
74296SOL    HW224786   0.332   1.006   9.201
74297SOL     OW24787   6.707   7.177   4.546
74297SOL    HW124788   6.703   7.232   4.624
74297SOL    HW224789   6.685   7.237   4.474
74298SOL     OW24790   8.594   9.866   4.326
74298SOL    HW124791   8.670   9.924   4.322
74298SOL    HW224792   8.551   9.889   4.408
74299SOL     OW24793   0.191  13.279   9.669
74299SOL    HW124794   0.122  13.267   9.604
74299SOL    HW224795   0.145  13.302   9.750
74300SOL     OW24796   7.476  13.292   7.932
74300SOL    HW124797   7.543  13.344   7.976
74300SOL    HW224798   7.395  13.313   7.979
74301SOL     OW24799  12.416   2.164   2.654
74301SOL    HW124800  12.496   2.122   2.687
74301SOL    HW224801  12.350   2.095   2.654
74302SOL     OW24802   7.981   3.703  14.741
74302SOL    HW124803   7.934   3.725  14.661
74302SOL    HW224804   7.928   3.635  14.782
74303SOL     OW24805  12.054   3.960  13.324
74303SOL    HW124806  12.076   4.015  13.399
74303SOL    HW224807  11.980   4.005  13.283
74304SOL     OW24808  11.338  10.171  11.382
74304SOL    HW124809  11.428  10.205  11.378
74304SOL    HW224810  11.316  10.149  11.292
74305SOL     OW24811   6.198   4.358  10.904
74305SOL    HW124812   6.226   4.436  10.857
74305SOL    HW224813   6.210   4.286  10.841
74306SOL     OW24814   1.280   6.796   2.035
74306SOL    HW124815   1.287   6.752   1.950
74306SOL    HW224816   1.295   6.889   2.016
74307SOL     OW24817  10.793   2.760  11.959
74307SOL    HW124818  10.796   2.812  11.879
74307SOL    HW224819  10.866   2.698  11.949
74308SOL     OW24820   7.287   2.462   5.440
74308SOL    HW124821   7.374   2.423   5.442
74308SOL    HW224822   7.293   2.534   5.378
74309SOL     OW24823   6.937   3.897  11.406
74309SOL    HW124824   6.959   3.857  11.489
74309SOL    HW224825   6.905   3.984  11.428
74310SOL     OW24826   9.187   5.671  11.314
74310SOL    HW124827   9.216   5.716  11.394
74310SOL    HW224828   9.206   5.578  11.331
74311SOL     OW24829  13.633  13.813  12.916
74311SOL    HW124830  13.659  13.905  12.924
74311SOL    HW224831  13.713  13.764  12.936
74312SOL     OW24832   0.443   0.655   8.113
74312SOL    HW124833   0.422   0.732   8.167
74312SOL    HW224834   0.516   0.684   8.059
74313SOL     OW24835  12.578   9.357   2.393
74313SOL    HW124836  12.642   9.383   2.459
74313SOL    HW224837  12.497   9.345   2.442
74314SOL     OW24838  13.971   6.614   6.563
74314SOL    HW124839  13.940   6.663   6.639
74314SOL    HW224840  13.925   6.530   6.570
74315SOL     OW24841   7.012   9.210   4.728
74315SOL    HW124842   6.959   9.262   4.668
74315SOL    HW224843   6.960   9.130   4.742
74316SOL     OW24844   9.323   7.119  13.647
74316SOL    HW124845   9.287   7.196  13.690
74316SOL    HW224846   9.410   7.146  13.616
74317SOL     OW24847   5.711   6.838   2.168
74317SOL    HW124848   5.786   6.800   2.122
74317SOL    HW224849   5.741   6.850   2.258
74318SOL     OW24850   9.475   4.235   6.196
74318SOL    HW124851   9.403   4.298   6.202
74318SOL    HW224852   9.503   4.222   6.287
74319SOL     OW24853   0.962   9.502   6.797
74319SOL    HW124854   0.910   9.549   6.733
74319SOL    HW224855   1.031   9.460   6.747
74320SOL     OW24856  10.959   5.767   0.160
74320SOL    HW124857  10.945   5.720   0.078
74320SOL    HW224858  10.921   5.710   0.227
74321SOL     OW24859  13.466   8.882   4.708
74321SOL    HW124860  13.501   8.946   4.770
74321SOL    HW224861  13.538   8.821   4.694
74322SOL     OW24862   9.774  14.593  11.620
74322SOL    HW124863   9.684  14.623  11.612
74322SOL    HW224864   9.801  14.618  11.708
74323SOL     OW24865   9.894  11.774   8.579
74323SOL    HW124866   9.838  11.803   8.507
74323SOL    HW224867   9.913  11.853   8.629
74324SOL     OW24868  14.161  10.597   3.943
74324SOL    HW124869  14.256  10.609   3.948
74324SOL    HW224870  14.144  10.584   3.850
74325SOL     OW24871   7.021   2.648   1.316
74325SOL    HW124872   6.975   2.565   1.321
74325SOL    HW224873   6.956   2.709   1.281
74326SOL     OW24874  10.327  13.350   3.834
74326SOL    HW124875  10.332  13.289   3.908
74326SOL    HW224876  10.372  13.305   3.763
74327SOL     OW24877   3.347   1.179   2.873
74327SOL    HW124878   3.355   1.135   2.958
74327SOL    HW224879   3.436   1.205   2.851
74328SOL     OW24880   5.913   0.278   7.634
74328SOL    HW124881   5.919   0.315   7.546
74328SOL    HW224882   5.949   0.345   7.691
74329SOL     OW24883  12.992  13.795   7.695
74329SOL    HW124884  13.041  13.867   7.655
74329SOL    HW224885  12.962  13.742   7.622
74330SOL     OW24886  10.885   5.751  10.592
74330SOL    HW124887  10.963   5.703  10.563
74330SOL    HW224888  10.880   5.733  10.686
74331SOL     OW24889  12.419  10.130  13.676
74331SOL    HW124890  12.346  10.179  13.637
74331SOL    HW224891  12.479  10.198  13.706
74332SOL     OW24892   7.425  10.066   4.484
74332SOL    HW124893   7.422   9.973   4.506
74332SOL    HW224894   7.379  10.109   4.556
74333SOL     OW24895  12.251   6.078  11.711
74333SOL    HW124896  12.185   6.147  11.710
74333SOL    HW224897  12.334   6.123  11.698
74334SOL     OW24898   2.291   3.593   0.382
74334SOL    HW124899   2.326   3.504   0.392
74334SOL    HW224900   2.253   3.614   0.468
74335SOL     OW24901   3.442   4.903   3.000
74335SOL    HW124902   3.355   4.909   3.038
74335SOL    HW224903   3.474   4.993   2.997
74336SOL     OW24904   3.261   5.307   0.798
74336SOL    HW124905   3.174   5.339   0.773
74336SOL    HW224906   3.263   5.217   0.766
74337SOL     OW24907   6.612   8.202   3.251
74337SOL    HW124908   6.647   8.113   3.240
74337SOL    HW224909   6.518   8.193   3.239
74338SOL     OW24910  12.779   7.470  11.410
74338SOL    HW124911  12.844   7.462  11.479
74338SOL    HW224912  12.778   7.383  11.368
74339SOL     OW24913  13.902   3.812  11.702
74339SOL    HW124914  13.807   3.821  11.693
74339SOL    HW224915  13.938   3.861  11.628
74340SOL     OW24916  11.543  13.081  13.324
74340SOL    HW124917  11.559  13.126  13.407
74340SOL    HW224918  11.571  12.991  13.339
74341SOL     OW24919   5.865   4.959   1.163
74341SOL    HW124920   5.883   4.879   1.114
74341SOL    HW224921   5.924   4.955   1.238
74342SOL     OW24922  12.153  14.074   5.442
74342SOL    HW124923  12.144  14.158   5.398
74342SOL    HW224924  12.222  14.088   5.507
74343SOL     OW24925   4.552   4.611  10.356
74343SOL    HW124926   4.570   4.608  10.450
74343SOL    HW224927   4.457   4.608  10.350
74344SOL     OW24928  10.066   7.894   3.386
74344SOL    HW124929  10.021   7.950   3.449
74344SOL    HW224930   9.999   7.873   3.321
74345SOL     OW24931   4.979  11.888  12.951
74345SOL    HW124932   5.039  11.958  12.925
74345SOL    HW224933   5.014  11.855  13.034
74346SOL     OW24934   2.644   6.412  14.006
74346SOL    HW124935   2.700   6.458  13.944
74346SOL    HW224936   2.555   6.442  13.984
74347SOL     OW24937   0.163   8.853   9.875
74347SOL    HW124938   0.207   8.927   9.917
74347SOL    HW224939   0.156   8.787   9.944
74348SOL     OW24940   8.009   4.043   5.407
74348SOL    HW124941   7.914   4.051   5.398
74348SOL    HW224942   8.037   3.994   5.330
74349SOL     OW24943   6.257   1.062   2.533
74349SOL    HW124944   6.222   0.975   2.514
74349SOL    HW224945   6.204   1.094   2.606
74350SOL     OW24946  11.457  12.574   5.893
74350SOL    HW124947  11.488  12.633   5.961
74350SOL    HW224948  11.457  12.488   5.934
74351SOL     OW24949   8.518   4.411  10.109
74351SOL    HW124950   8.476   4.380  10.189
74351SOL    HW224951   8.456   4.475  10.073
74352SOL     OW24952  11.286   7.305   7.904
74352SOL    HW124953  11.335   7.357   7.841
74352SOL    HW224954  11.201   7.349   7.911
74353SOL     OW24955   1.739   4.560   8.212
74353SOL    HW124956   1.697   4.474   8.208
74353SOL    HW224957   1.818   4.544   8.265
74354SOL     OW24958   1.502   0.124   1.980
74354SOL    HW124959   1.451   0.205   1.977
74354SOL    HW224960   1.440   0.058   2.010
74355SOL     OW24961   2.593   2.790  11.477
74355SOL    HW124962   2.502   2.777  11.505
74355SOL    HW224963   2.624   2.702  11.453
74356SOL     OW24964   1.810   9.507   7.631
74356SOL    HW124965   1.892   9.502   7.582
74356SOL    HW224966   1.804   9.599   7.658
74357SOL     OW24967   8.417  11.472  11.091
74357SOL    HW124968   8.486  11.534  11.065
74357SOL    HW224969   8.367  11.457  11.011
74358SOL     OW24970   1.359  12.504   1.173
74358SOL    HW124971   1.301  12.578   1.192
74358SOL    HW224972   1.446  12.543   1.164
74359SOL     OW24973   4.299   1.873   4.260
74359SOL    HW124974   4.204   1.875   4.264
74359SOL    HW224975   4.323   1.785   4.290
74360SOL     OW24976  14.188  14.034  10.747
74360SOL    HW124977  14.197  14.083  10.829
74360SOL    HW224978  14.268  13.981  10.742
74361SOL     OW24979   3.715   9.977  10.033
74361SOL    HW124980   3.644   9.933  10.081
74361SOL    HW224981   3.745   9.911   9.970
74362SOL     OW24982   5.769   3.588   2.901
74362SOL    HW124983   5.684   3.605   2.941
74362SOL    HW224984   5.814   3.672   2.904
74363SOL     OW24985  14.220  11.638  13.425
74363SOL    HW124986  14.179  11.641  13.512
74363SOL    HW224987  14.259  11.725  13.415
74364SOL     OW24988  10.852   2.623  14.561
74364SOL    HW124989  10.759   2.618  14.583
74364SOL    HW224990  10.895   2.641  14.645
74365SOL     OW24991   6.111  11.559  14.618
74365SOL    HW124992   6.040  11.623  14.612
74365SOL    HW224993   6.183  11.599  14.570
74366SOL     OW24994   5.512   3.887   6.916
74366SOL    HW124995   5.505   3.898   7.011
74366SOL    HW224996   5.597   3.846   6.902
74367SOL     OW24997   3.677   8.793   1.562
74367SOL    HW124998   3.687   8.881   1.598
74367SOL    HW224999   3.689   8.804   1.467
74368SOL     OW25000  10.894   1.659  13.710
74368SOL    HW125001  10.863   1.713  13.782
74368SOL    HW225002  10.989   1.656  13.722
74369SOL     OW25003   7.914   4.829   9.566
74369SOL    HW125004   7.885   4.738   9.573
74369SOL    HW225005   8.002   4.824   9.528
74370SOL     OW25006   1.518  12.052   1.492
74370SOL    HW125007   1.445  12.052   1.554
74370SOL    HW225008   1.487  12.103   1.417
74371SOL     OW25009  11.558   5.238   6.114
74371SOL    HW125010  11.564   5.241   6.018
74371SOL    HW225011  11.475   5.282   6.134
74372SOL     OW25012   0.502  11.036  14.848
74372SOL    HW125013   0.439  11.006  14.783
74372SOL    HW225014   0.453  11.100   0.029
74373SOL     OW25015  12.319   7.149   3.544
74373SOL    HW125016  12.282   7.225   3.589
74373SOL    HW225017  12.317   7.174   3.452
74374SOL     OW25018   1.412  14.778  10.414
74374SOL    HW125019   1.361  14.825  10.348
74374SOL    HW225020   1.359  14.702  10.435
74375SOL     OW25021   2.397   1.919   3.662
74375SOL    HW125022   2.366   2.007   3.640
74375SOL    HW225023   2.476   1.933   3.714
74376SOL     OW25024   5.744   4.812   0.633
74376SOL    HW125025   5.653   4.841   0.639
74376SOL    HW225026   5.775   4.846   0.549
74377SOL     OW25027   3.903  14.131   1.745
74377SOL    HW125028   3.988  14.131   1.701
74377SOL    HW225029   3.921  14.095   1.832
74378SOL     OW25030   3.248   8.669   0.174
74378SOL    HW125031   3.203   8.641   0.254
74378SOL    HW225032   3.179   8.674   0.108
74379SOL     OW25033  14.105  11.767   0.533
74379SOL    HW125034  14.192  11.803   0.552
74379SOL    HW225035  14.068  11.746   0.619
74380SOL     OW25036  11.901   5.630   2.356
74380SOL    HW125037  11.997   5.622   2.356
74380SOL    HW225038  11.871   5.553   2.307
74381SOL     OW25039   7.889   7.466   8.907
74381SOL    HW125040   7.834   7.400   8.865
74381SOL    HW225041   7.920   7.521   8.836
74382SOL     OW25042   9.876   4.606  12.348
74382SOL    HW125043   9.813   4.670  12.315
74382SOL    HW225044   9.823   4.541  12.393
74383SOL     OW25045  12.302   8.887  10.333
74383SOL    HW125046  12.390   8.891  10.294
74383SOL    HW225047  12.313   8.924  10.420
74384SOL     OW25048   4.845  12.547   8.554
74384SOL    HW125049   4.826  12.460   8.520
74384SOL    HW225050   4.861  12.534   8.647
74385SOL     OW25051  13.117  14.325  12.272
74385SOL    HW125052  13.111  14.343  12.178
74385SOL    HW225053  13.037  14.276  12.292
74386SOL     OW25054   0.804  11.155  12.610
74386SOL    HW125055   0.727  11.136  12.557
74386SOL    HW225056   0.775  11.223  12.671
74387SOL     OW25057   4.003   5.950   4.193
74387SOL    HW125058   3.948   5.996   4.130
74387SOL    HW225059   4.054   6.019   4.236
74388SOL     OW25060   5.870   2.817  12.780
74388SOL    HW125061   5.807   2.764  12.731
74388SOL    HW225062   5.954   2.773  12.764
74389SOL     OW25063  12.785  14.025   1.982
74389SOL    HW125064  12.709  13.980   2.018
74389SOL    HW225065  12.841  14.043   2.057
74390SOL     OW25066   2.437   2.043  11.461
74390SOL    HW125067   2.368   1.976  11.459
74390SOL    HW225068   2.484   2.026  11.542
74391SOL     OW25069   3.821   1.889   8.855
74391SOL    HW125070   3.837   1.795   8.849
74391SOL    HW225071   3.767   1.909   8.779
74392SOL     OW25072  11.275   6.816   2.577
74392SOL    HW125073  11.331   6.893   2.562
74392SOL    HW225074  11.333   6.741   2.563
74393SOL     OW25075  13.626   2.594  10.476
74393SOL    HW125076  13.695   2.541  10.514
74393SOL    HW225077  13.670   2.674  10.446
74394SOL     OW25078  13.311  12.530   2.188
74394SOL    HW125079  13.228  12.508   2.231
74394SOL    HW225080  13.377  12.519   2.257
74395SOL     OW25081   2.414   0.605   7.173
74395SOL    HW125082   2.393   0.697   7.184
74395SOL    HW225083   2.509   0.604   7.157
74396SOL     OW25084   0.116   4.582   3.605
74396SOL    HW125085   0.159   4.663   3.633
74396SOL    HW225086   0.189   4.524   3.581
74397SOL     OW25087   3.568   4.290   7.079
74397SOL    HW125088   3.475   4.293   7.104
74397SOL    HW225089   3.583   4.373   7.033
74398SOL     OW25090  13.895  14.125   7.723
74398SOL    HW125091  13.948  14.053   7.757
74398SOL    HW225092  13.875  14.179   7.799
74399SOL     OW25093   4.159   1.808  10.532
74399SOL    HW125094   4.198   1.888  10.497
74399SOL    HW225095   4.117   1.767  10.456
74400SOL     OW25096   8.162   6.449   9.333
74400SOL    HW125097   8.074   6.472   9.362
74400SOL    HW225098   8.163   6.353   9.335
74401SOL     OW25099   5.995  11.089   4.095
74401SOL    HW125100   6.065  11.088   4.160
74401SOL    HW225101   6.016  11.017   4.036
74402SOL     OW25102   1.858   4.228   3.952
74402SOL    HW125103   1.826   4.255   4.038
74402SOL    HW225104   1.894   4.141   3.965
74403SOL     OW25105   4.442   1.335   4.602
74403SOL    HW125106   4.393   1.408   4.564
74403SOL    HW225107   4.480   1.371   4.682
74404SOL     OW25108   8.848   3.397   0.803
74404SOL    HW125109   8.928   3.402   0.854
74404SOL    HW225110   8.852   3.471   0.743
74405SOL     OW25111   8.153   4.071  10.804
74405SOL    HW125112   8.184   4.073  10.713
74405SOL    HW225113   8.087   4.002  10.805
74406SOL     OW25114  12.878  11.567   4.048
74406SOL    HW125115  12.869  11.528   4.135
74406SOL    HW225116  12.828  11.509   3.990
74407SOL     OW25117   7.570   5.198  11.523
74407SOL    HW125118   7.659   5.231  11.540
74407SOL    HW225119   7.547   5.233  11.437
74408SOL     OW25120  11.363   5.613   6.183
74408SOL    HW125121  11.440   5.638   6.131
74408SOL    HW225122  11.398   5.592   6.269
74409SOL     OW25123  14.177   6.334   4.953
74409SOL    HW125124  14.178   6.366   5.044
74409SOL    HW225125  14.168   6.240   4.961
74410SOL     OW25126   4.385  14.479   2.818
74410SOL    HW125127   4.463  14.528   2.846
74410SOL    HW225128   4.399  14.391   2.852
74411SOL     OW25129   0.326   4.098   0.793
74411SOL    HW125130   0.364   4.023   0.839
74411SOL    HW225131   0.279   4.147   0.860
74412SOL     OW25132   0.790   3.443  13.686
74412SOL    HW125133   0.817   3.412  13.599
74412SOL    HW225134   0.751   3.529  13.669
74413SOL     OW25135   6.964   9.739  14.402
74413SOL    HW125136   6.933   9.828  14.417
74413SOL    HW225137   7.028   9.747  14.332
74414SOL     OW25138   5.517   2.447   4.452
74414SOL    HW125139   5.509   2.426   4.545
74414SOL    HW225140   5.495   2.540   4.447
74415SOL     OW25141   1.170  13.874   7.626
74415SOL    HW125142   1.240  13.823   7.585
74415SOL    HW225143   1.098  13.870   7.563
74416SOL     OW25144  10.955  11.776   8.424
74416SOL    HW125145  10.899  11.848   8.453
74416SOL    HW225146  10.996  11.809   8.344
74417SOL     OW25147   6.263   8.729   3.591
74417SOL    HW125148   6.174   8.755   3.611
74417SOL    HW225149   6.283   8.771   3.508
74418SOL     OW25150   5.134   3.894   1.004
74418SOL    HW125151   5.187   3.972   0.989
74418SOL    HW225152   5.118   3.893   1.098
74419SOL     OW25153   3.900   5.316   2.040
74419SOL    HW125154   3.976   5.367   2.011
74419SOL    HW225155   3.894   5.244   1.976
74420SOL     OW25156   2.295   8.413   0.425
74420SOL    HW125157   2.259   8.491   0.468
74420SOL    HW225158   2.378   8.443   0.387
74421SOL     OW25159   8.097  10.646  10.789
74421SOL    HW125160   8.022  10.622  10.733
74421SOL    HW225161   8.101  10.741  10.784
74422SOL     OW25162   1.718   7.548   5.726
74422SOL    HW125163   1.696   7.468   5.773
74422SOL    HW225164   1.761   7.517   5.646
74423SOL     OW25165  12.359   9.696   8.424
74423SOL    HW125166  12.317   9.618   8.388
74423SOL    HW225167  12.438   9.707   8.371
74424SOL     OW25168   8.836   5.529   0.746
74424SOL    HW125169   8.849   5.619   0.777
74424SOL    HW225170   8.822   5.478   0.826
74425SOL     OW25171   3.792   6.333  14.658
74425SOL    HW125172   3.796   6.368  14.747
74425SOL    HW225173   3.703   6.298  14.649
74426SOL     OW25174  10.625   5.297  13.609
74426SOL    HW125175  10.644   5.263  13.521
74426SOL    HW225176  10.629   5.392  13.599
74427SOL     OW25177  11.159   6.038   4.045
74427SOL    HW125178  11.180   6.098   4.116
74427SOL    HW225179  11.128   6.094   3.974
74428SOL     OW25180   8.985   1.956   7.616
74428SOL    HW125181   9.020   1.885   7.670
74428SOL    HW225182   8.957   2.022   7.679
74429SOL     OW25183   5.472   8.106  12.183
74429SOL    HW125184   5.557   8.069  12.206
74429SOL    HW225185   5.464   8.090  12.089
74430SOL     OW25186   6.105   2.721  12.640
74430SOL    HW125187   6.136   2.688  12.556
74430SOL    HW225188   6.140   2.659  12.704
74431SOL     OW25189   9.570   0.839   4.557
74431SOL    HW125190   9.558   0.896   4.481
74431SOL    HW225191   9.619   0.764   4.522
74432SOL     OW25192  12.116  11.890  11.125
74432SOL    HW125193  12.210  11.872  11.121
74432SOL    HW225194  12.102  11.918  11.216
74433SOL     OW25195   0.344   1.276  14.470
74433SOL    HW125196   0.279   1.217  14.509
74433SOL    HW225197   0.395   1.308  14.545
74434SOL     OW25198   3.105   6.295   1.980
74434SOL    HW125199   3.151   6.379   1.983
74434SOL    HW225200   3.017   6.317   1.948
74435SOL     OW25201   2.490   7.217  13.075
74435SOL    HW125202   2.543   7.297  13.075
74435SOL    HW225203   2.501   7.182  12.986
74436SOL     OW25204   3.573   8.406  10.251
74436SOL    HW125205   3.623   8.328  10.226
74436SOL    HW225206   3.562   8.454  10.169
74437SOL     OW25207   0.072  12.802   5.761
74437SOL    HW125208  14.853  12.827   5.777
74437SOL    HW225209   0.081  12.800   5.666
74438SOL     OW25210  12.493   8.844   3.333
74438SOL    HW125211  12.406   8.851   3.373
74438SOL    HW225212  12.476   8.834   3.240
74439SOL     OW25213  14.621   7.253   2.102
74439SOL    HW125214  14.655   7.322   2.046
74439SOL    HW225215  14.541   7.223   2.058
74440SOL     OW25216  14.557  12.493  11.015
74440SOL    HW125217  14.533  12.559  11.080
74440SOL    HW225218  14.491  12.502  10.946
74441SOL     OW25219   7.007  13.107  11.302
74441SOL    HW125220   6.919  13.091  11.337
74441SOL    HW225221   7.018  13.041  11.234
74442SOL     OW25222  14.847   4.772  14.250
74442SOL    HW125223  14.797   4.846  14.214
74442SOL    HW225224   0.065   4.803  14.252
74443SOL     OW25225  12.474   6.479   7.309
74443SOL    HW125226  12.402   6.488   7.372
74443SOL    HW225227  12.510   6.567   7.302
74444SOL     OW25228  12.804  11.540  14.217
74444SOL    HW125229  12.819  11.493  14.135
74444SOL    HW225230  12.798  11.471  14.283
74445SOL     OW25231  12.684   4.852   3.895
74445SOL    HW125232  12.638   4.772   3.921
74445SOL    HW225233  12.752   4.821   3.834
74446SOL     OW25234   2.185  13.746   2.839
74446SOL    HW125235   2.187  13.664   2.790
74446SOL    HW225236   2.274  13.755   2.873
74447SOL     OW25237   0.243  10.886   2.223
74447SOL    HW125238   0.214  10.819   2.285
74447SOL    HW225239   0.338  10.881   2.225
74448SOL     OW25240  12.801   8.482  10.647
74448SOL    HW125241  12.729   8.501  10.588
74448SOL    HW225242  12.768   8.506  10.734
74449SOL     OW25243   1.906  11.651   0.983
74449SOL    HW125244   1.827  11.613   1.022
74449SOL    HW225245   1.911  11.739   1.021
74450SOL     OW25246  12.260  10.249   3.754
74450SOL    HW125247  12.344  10.210   3.729
74450SOL    HW225248  12.196  10.211   3.693
74451SOL     OW25249  12.836   3.744   8.905
74451SOL    HW125250  12.860   3.690   8.980
74451SOL    HW225251  12.906   3.809   8.900
74452SOL     OW25252   3.770  14.701   4.723
74452SOL    HW125253   3.846  14.679   4.777
74452SOL    HW225254   3.803  14.769   4.663
74453SOL     OW25255   4.699  10.572   2.914
74453SOL    HW125256   4.733  10.630   2.982
74453SOL    HW225257   4.740  10.488   2.931
74454SOL     OW25258   9.414  14.842  10.635
74454SOL    HW125259   9.497  14.793  10.628
74454SOL    HW225260   9.433   0.055  10.596
74455SOL     OW25261   5.949  10.806   2.076
74455SOL    HW125262   5.979  10.799   1.986
74455SOL    HW225263   5.898  10.727   2.091
74456SOL     OW25264   1.582   2.724   3.632
74456SOL    HW125265   1.624   2.775   3.701
74456SOL    HW225266   1.492   2.714   3.661
74457SOL     OW25267   5.600   3.552  13.524
74457SOL    HW125268   5.601   3.648  13.520
74457SOL    HW225269   5.660   3.524  13.454
74458SOL     OW25270   9.901   0.375   1.863
74458SOL    HW125271   9.986   0.415   1.846
74458SOL    HW225272   9.857   0.437   1.921
74459SOL     OW25273   0.247   8.129   6.942
74459SOL    HW125274   0.158   8.118   6.907
74459SOL    HW225275   0.295   8.054   6.907
74460SOL     OW25276   7.156   3.539   5.653
74460SOL    HW125277   7.082   3.498   5.696
74460SOL    HW225278   7.229   3.480   5.670
74461SOL     OW25279   2.254   6.867   2.004
74461SOL    HW125280   2.309   6.861   1.926
74461SOL    HW225281   2.284   6.946   2.049
74462SOL     OW25282   2.699  13.995   4.941
74462SOL    HW125283   2.727  14.018   5.030
74462SOL    HW225284   2.780  13.988   4.891
74463SOL     OW25285  12.762   4.016   4.545
74463SOL    HW125286  12.794   3.957   4.612
74463SOL    HW225287  12.691   4.065   4.588
74464SOL     OW25288  13.321   8.265   2.959
74464SOL    HW125289  13.378   8.308   3.023
74464SOL    HW225290  13.297   8.335   2.898
74465SOL     OW25291  13.655  12.444  12.381
74465SOL    HW125292  13.630  12.365  12.334
74465SOL    HW225293  13.577  12.499  12.380
74466SOL     OW25294   7.018  12.528   6.846
74466SOL    HW125295   7.021  12.448   6.793
74466SOL    HW225296   6.949  12.580   6.807
74467SOL     OW25297  12.384   4.021  13.982
74467SOL    HW125298  12.477   4.009  14.002
74467SOL    HW225299  12.380   4.107  13.941
74468SOL     OW25300  14.366  11.385   5.610
74468SOL    HW125301  14.354  11.454   5.675
74468SOL    HW225302  14.439  11.414   5.556
74469SOL     OW25303   8.577   2.601   7.610
74469SOL    HW125304   8.511   2.656   7.653
74469SOL    HW225305   8.635   2.663   7.566
74470SOL     OW25306  13.410   9.036   7.392
74470SOL    HW125307  13.422   9.124   7.357
74470SOL    HW225308  13.475   8.982   7.347
74471SOL     OW25309   6.117   5.510   2.947
74471SOL    HW125310   6.048   5.444   2.935
74471SOL    HW225311   6.096   5.578   2.884
74472SOL     OW25312  13.040  10.838   6.780
74472SOL    HW125313  13.109  10.814   6.718
74472SOL    HW225314  12.968  10.868   6.725
74473SOL     OW25315   2.840   8.493   6.803
74473SOL    HW125316   2.889   8.481   6.721
74473SOL    HW225317   2.828   8.405   6.837
74474SOL     OW25318   9.386   2.869  11.176
74474SOL    HW125319   9.365   2.935  11.110
74474SOL    HW225320   9.447   2.914  11.235
74475SOL     OW25321   1.766   0.532  14.465
74475SOL    HW125322   1.712   0.560  14.538
74475SOL    HW225323   1.829   0.603  14.452
74476SOL     OW25324  13.126   5.444   0.491
74476SOL    HW125325  13.129   5.356   0.455
74476SOL    HW225326  13.032   5.463   0.499
74477SOL     OW25327   7.097   4.213  14.345
74477SOL    HW125328   7.133   4.249  14.264
74477SOL    HW225329   7.117   4.120  14.341
74478SOL     OW25330  11.293  14.566  13.605
74478SOL    HW125331  11.333  14.636  13.657
74478SOL    HW225332  11.298  14.598  13.514
74479SOL     OW25333  14.266   3.810  12.807
74479SOL    HW125334  14.352   3.845  12.829
74479SOL    HW225335  14.219   3.883  12.767
74480SOL     OW25336   8.290   1.539   5.786
74480SOL    HW125337   8.366   1.579   5.742
74480SOL    HW225338   8.328   1.477   5.848
74481SOL     OW25339  11.879   4.323   8.071
74481SOL    HW125340  11.888   4.403   8.123
74481SOL    HW225341  11.786   4.304   8.072
74482SOL     OW25342  11.545   6.658   1.890
74482SOL    HW125343  11.572   6.737   1.938
74482SOL    HW225344  11.609   6.591   1.917
74483SOL     OW25345  10.631  12.184  11.412
74483SOL    HW125346  10.551  12.172  11.463
74483SOL    HW225347  10.702  12.178  11.476
74484SOL     OW25348  12.380  14.765  13.847
74484SOL    HW125349  12.324  14.720  13.783
74484SOL    HW225350  12.407  14.845  13.802
74485SOL     OW25351   3.951   2.205   7.784
74485SOL    HW125352   3.964   2.110   7.786
74485SOL    HW225353   3.976   2.230   7.695
74486SOL     OW25354   7.027   4.880   2.774
74486SOL    HW125355   6.990   4.853   2.690
74486SOL    HW225356   7.075   4.960   2.755
74487SOL     OW25357   5.732   6.449  13.501
74487SOL    HW125358   5.671   6.424  13.431
74487SOL    HW225359   5.700   6.403  13.578
74488SOL     OW25360   9.794   9.582   2.538
74488SOL    HW125361   9.869   9.545   2.584
74488SOL    HW225362   9.833   9.634   2.467
74489SOL     OW25363   9.926   3.447  14.778
74489SOL    HW125364   9.901   3.513  14.713
74489SOL    HW225365   9.884   3.476  14.859
74490SOL     OW25366   1.157   5.497   7.762
74490SOL    HW125367   1.122   5.526   7.678
74490SOL    HW225368   1.233   5.443   7.738
74491SOL     OW25369   3.026   5.940  13.788
74491SOL    HW125370   2.988   6.021  13.755
74491SOL    HW225371   2.988   5.930  13.875
74492SOL     OW25372  14.356   5.833  14.493
74492SOL    HW125373  14.274   5.787  14.512
74492SOL    HW225374  14.332   5.925  14.493
74493SOL     OW25375   1.621   1.201   9.150
74493SOL    HW125376   1.584   1.246   9.225
74493SOL    HW225377   1.612   1.108   9.171
74494SOL     OW25378   3.687  14.438  12.807
74494SOL    HW125379   3.720  14.480  12.887
74494SOL    HW225380   3.622  14.500  12.773
74495SOL     OW25381   7.593   4.616   4.201
74495SOL    HW125382   7.519   4.624   4.261
74495SOL    HW225383   7.569   4.544   4.142
74496SOL     OW25384  14.787   0.532  11.722
74496SOL    HW125385  14.729   0.546  11.648
74496SOL    HW225386  14.837   0.614  11.728
74497SOL     OW25387   7.002  10.199   0.856
74497SOL    HW125388   7.056  10.212   0.778
74497SOL    HW225389   7.031  10.267   0.917
74498SOL     OW25390  12.005   3.668  11.012
74498SOL    HW125391  11.951   3.698  10.938
74498SOL    HW225392  11.949   3.679  11.089
74499SOL     OW25393   5.637   1.190  11.051
74499SOL    HW125394   5.603   1.158  10.968
74499SOL    HW225395   5.693   1.264  11.026
74500SOL     OW25396   0.891  11.750   6.109
74500SOL    HW125397   0.875  11.805   6.032
74500SOL    HW225398   0.919  11.666   6.072
74501SOL     OW25399  13.042  13.045   9.783
74501SOL    HW125400  13.112  13.107   9.764
74501SOL    HW225401  13.068  12.965   9.738
74502SOL     OW25402  11.635   9.333   4.653
74502SOL    HW125403  11.558   9.372   4.613
74502SOL    HW225404  11.679   9.406   4.697
74503SOL     OW25405  12.930   1.714   5.145
74503SOL    HW125406  12.985   1.750   5.215
74503SOL    HW225407  12.982   1.727   5.065
74504SOL     OW25408   9.709  14.206  12.344
74504SOL    HW125409   9.675  14.163  12.266
74504SOL    HW225410   9.639  14.198  12.408
74505SOL     OW25411   4.068   3.270   0.040
74505SOL    HW125412   4.071   3.312  14.826
74505SOL    HW225413   4.140   3.311   0.089
74506SOL     OW25414   3.877  13.022   4.004
74506SOL    HW125415   3.933  12.979   4.069
74506SOL    HW225416   3.936  13.044   3.932
74507SOL     OW25417   0.471  14.061   4.140
74507SOL    HW125418   0.447  14.154   4.137
74507SOL    HW225419   0.388  14.015   4.124
74508SOL     OW25420  14.844   4.122  12.134
74508SOL    HW125421  14.855   4.122  12.039
74508SOL    HW225422   0.059   4.104  12.168
74509SOL     OW25423   1.594   1.970  14.123
74509SOL    HW125424   1.637   1.886  14.141
74509SOL    HW225425   1.632   1.999  14.040
74510SOL     OW25426  13.531   5.038   0.068
74510SOL    HW125427  13.587   5.113   0.051
74510SOL    HW225428  13.443   5.074   0.070
74511SOL     OW25429   6.848   1.124  10.468
74511SOL    HW125430   6.912   1.192  10.449
74511SOL    HW225431   6.781   1.135  10.401
74512SOL     OW25432   5.517   8.361   0.675
74512SOL    HW125433   5.447   8.319   0.724
74512SOL    HW225434   5.557   8.422   0.737
74513SOL     OW25435  11.760   6.218   7.691
74513SOL    HW125436  11.739   6.274   7.766
74513SOL    HW225437  11.732   6.268   7.615
74514SOL     OW25438   1.512  12.786   4.728
74514SOL    HW125439   1.448  12.856   4.714
74514SOL    HW225440   1.573  12.794   4.655
74515SOL     OW25441   2.545  13.776  14.363
74515SOL    HW125442   2.630  13.754  14.325
74515SOL    HW225443   2.482  13.747  14.296
74516SOL     OW25444  13.437  12.058   7.108
74516SOL    HW125445  13.355  12.033   7.065
74516SOL    HW225446  13.409  12.099   7.190
74517SOL     OW25447  12.354   3.109   4.648
74517SOL    HW125448  12.302   3.060   4.712
74517SOL    HW225449  12.292   3.169   4.607
74518SOL     OW25450   1.544  14.302  12.237
74518SOL    HW125451   1.467  14.344  12.275
74518SOL    HW225452   1.602  14.374  12.216
74519SOL     OW25453   4.087   6.604   3.852
74519SOL    HW125454   4.009   6.624   3.801
74519SOL    HW225455   4.137   6.686   3.854
74520SOL     OW25456  12.147   0.558  13.514
74520SOL    HW125457  12.179   0.615  13.444
74520SOL    HW225458  12.082   0.502  13.472
74521SOL     OW25459   2.094   7.749   1.122
74521SOL    HW125460   2.060   7.681   1.180
74521SOL    HW225461   2.179   7.772   1.159
74522SOL     OW25462   2.205   1.544   3.530
74522SOL    HW125463   2.213   1.449   3.518
74522SOL    HW225464   2.188   1.578   3.442
74523SOL     OW25465   9.679   6.470   3.096
74523SOL    HW125466   9.699   6.560   3.069
74523SOL    HW225467   9.702   6.468   3.189
74524SOL     OW25468   3.918   3.714   5.316
74524SOL    HW125469   3.954   3.742   5.231
74524SOL    HW225470   3.845   3.774   5.331
74525SOL     OW25471   9.205   2.607   0.733
74525SOL    HW125472   9.142   2.679   0.728
74525SOL    HW225473   9.241   2.611   0.821
74526SOL     OW25474   3.154   8.450   5.903
74526SOL    HW125475   3.231   8.472   5.850
74526SOL    HW225476   3.092   8.414   5.840
74527SOL     OW25477  14.118   3.362   9.845
74527SOL    HW125478  14.099   3.268   9.843
74527SOL    HW225479  14.193   3.370   9.905
74528SOL     OW25480   4.712  14.649   1.803
74528SOL    HW125481   4.624  14.612   1.790
74528SOL    HW225482   4.768  14.573   1.820
74529SOL     OW25483   3.416   8.118   2.440
74529SOL    HW125484   3.351   8.181   2.407
74529SOL    HW225485   3.403   8.041   2.385
74530SOL     OW25486  11.498   5.008  12.479
74530SOL    HW125487  11.516   4.924  12.435
74530SOL    HW225488  11.533   4.997  12.567
74531SOL     OW25489  14.616   9.834   3.922
74531SOL    HW125490  14.641   9.838   3.830
74531SOL    HW225491  14.530   9.876   3.926
74532SOL     OW25492   3.345   7.864  13.672
74532SOL    HW125493   3.416   7.833  13.616
74532SOL    HW225494   3.274   7.883  13.612
74533SOL     OW25495   1.226   6.608  14.699
74533SOL    HW125496   1.244   6.579  14.788
74533SOL    HW225497   1.152   6.554  14.671
74534SOL     OW25498   3.600   8.934   6.868
74534SOL    HW125499   3.566   8.874   6.802
74534SOL    HW225500   3.528   8.945   6.930
74535SOL     OW25501  14.012   2.786   2.923
74535SOL    HW125502  13.974   2.700   2.938
74535SOL    HW225503  14.104   2.769   2.902
74536SOL     OW25504   6.323   1.274   1.533
74536SOL    HW125505   6.236   1.238   1.512
74536SOL    HW225506   6.379   1.243   1.462
74537SOL     OW25507   1.918   6.433   5.953
74537SOL    HW125508   1.918   6.528   5.964
74537SOL    HW225509   2.009   6.407   5.968
74538SOL     OW25510  14.044   0.680   3.661
74538SOL    HW125511  14.074   0.643   3.744
74538SOL    HW225512  14.026   0.604   3.606
74539SOL     OW25513  13.616   2.172   4.382
74539SOL    HW125514  13.669   2.232   4.436
74539SOL    HW225515  13.663   2.089   4.387
74540SOL     OW25516  11.926  14.415   1.138
74540SOL    HW125517  11.833  14.433   1.126
74540SOL    HW225518  11.934  14.396   1.232
74541SOL     OW25519  12.310  13.251   7.343
74541SOL    HW125520  12.395  13.239   7.385
74541SOL    HW225521  12.270  13.325   7.390
74542SOL     OW25522   8.214   2.781  12.424
74542SOL    HW125523   8.232   2.765  12.517
74542SOL    HW225524   8.229   2.697  12.381
74543SOL     OW25525   0.999  13.223  11.797
74543SOL    HW125526   1.010  13.304  11.846
74543SOL    HW225527   1.017  13.154  11.862
74544SOL     OW25528   6.178   1.412  14.018
74544SOL    HW125529   6.089   1.420  14.051
74544SOL    HW225530   6.168   1.394  13.924
74545SOL     OW25531   4.343   5.128  14.575
74545SOL    HW125532   4.339   5.207  14.629
74545SOL    HW225533   4.407   5.072  14.620
74546SOL     OW25534   5.876  13.094  14.376
74546SOL    HW125535   5.879  13.018  14.433
74546SOL    HW225536   5.853  13.167  14.434
74547SOL     OW25537  12.548   4.596   7.217
74547SOL    HW125538  12.602   4.567   7.144
74547SOL    HW225539  12.608   4.642   7.275
74548SOL     OW25540   8.743  12.450   7.293
74548SOL    HW125541   8.831  12.413   7.304
74548SOL    HW225542   8.751  12.509   7.218
74549SOL     OW25543   0.219   6.179   5.883
74549SOL    HW125544   0.287   6.196   5.948
74549SOL    HW225545   0.195   6.265   5.849
74550SOL     OW25546   6.756   9.880  14.865
74550SOL    HW125547   6.818   9.949  14.842
74550SOL    HW225548   6.810   9.808   0.024
74551SOL     OW25549  10.134   8.627  13.494
74551SOL    HW125550  10.040   8.635  13.479
74551SOL    HW225551  10.165   8.717  13.506
74552SOL     OW25552  11.371  14.732   4.467
74552SOL    HW125553  11.376  14.647   4.424
74552SOL    HW225554  11.456  14.742   4.510
74553SOL     OW25555  12.736  12.797  13.330
74553SOL    HW125556  12.646  12.806  13.359
74553SOL    HW225557  12.772  12.726  13.383
74554SOL     OW25558   6.872   4.804   8.118
74554SOL    HW125559   6.825   4.776   8.039
74554SOL    HW225560   6.892   4.896   8.103
74555SOL     OW25561   1.302   7.555   4.779
74555SOL    HW125562   1.378   7.598   4.740
74555SOL    HW225563   1.260   7.625   4.831
74556SOL     OW25564   4.403  14.492   2.039
74556SOL    HW125565   4.457  14.473   1.963
74556SOL    HW225566   4.440  14.439   2.109
74557SOL     OW25567   9.185  14.173   5.049
74557SOL    HW125568   9.224  14.260   5.042
74557SOL    HW225569   9.258  14.113   5.030
74558SOL     OW25570   5.175  11.269  10.936
74558SOL    HW125571   5.127  11.334  10.884
74558SOL    HW225572   5.114  11.242  11.004
74559SOL     OW25573   7.161   4.578   9.849
74559SOL    HW125574   7.157   4.494   9.803
74559SOL    HW225575   7.131   4.642   9.785
74560SOL     OW25576  14.675   7.247  14.602
74560SOL    HW125577  14.605   7.298  14.561
74560SOL    HW225578  14.643   7.157  14.600
74561SOL     OW25579  10.893  10.347   4.130
74561SOL    HW125580  10.932  10.289   4.196
74561SOL    HW225581  10.965  10.369   4.072
74562SOL     OW25582   9.911   8.985   4.270
74562SOL    HW125583   9.970   8.999   4.196
74562SOL    HW225584   9.956   8.921   4.325
74563SOL     OW25585   3.713   8.153   5.644
74563SOL    HW125586   3.726   8.085   5.578
74563SOL    HW225587   3.656   8.217   5.601
74564SOL     OW25588  10.184   1.043  13.857
74564SOL    HW125589  10.257   1.105  13.861
74564SOL    HW225590  10.140   1.064  13.774
74565SOL     OW25591   7.020   1.723  13.761
74565SOL    HW125592   7.081   1.767  13.820
74565SOL    HW225593   7.050   1.748  13.673
74566SOL     OW25594  14.115   6.525   1.127
74566SOL    HW125595  14.041   6.473   1.094
74566SOL    HW225596  14.092   6.542   1.219
74567SOL     OW25597   7.361   8.597  11.049
74567SOL    HW125598   7.428   8.545  11.005
74567SOL    HW225599   7.280   8.548  11.038
74568SOL     OW25600  11.100   2.605   1.265
74568SOL    HW125601  11.007   2.604   1.243
74568SOL    HW225602  11.141   2.552   1.196
74569SOL     OW25603   2.136   0.788  14.563
74569SOL    HW125604   2.100   0.788  14.651
74569SOL    HW225605   2.064   0.757  14.508
74570SOL     OW25606   8.671   5.359  11.913
74570SOL    HW125607   8.626   5.438  11.885
74570SOL    HW225608   8.669   5.362  12.008
74571SOL     OW25609  10.605   5.931   0.097
74571SOL    HW125610  10.585   5.849   0.141
74571SOL    HW225611  10.667   5.906   0.027
74572SOL     OW25612   5.746  13.871   1.743
74572SOL    HW125613   5.674  13.878   1.806
74572SOL    HW225614   5.703  13.845   1.661
74573SOL     OW25615   0.521  11.321   0.659
74573SOL    HW125616   0.506  11.383   0.588
74573SOL    HW225617   0.469  11.355   0.732
74574SOL     OW25618  11.823  12.630   7.143
74574SOL    HW125619  11.868  12.678   7.074
74574SOL    HW225620  11.839  12.538   7.124
74575SOL     OW25621   8.500   3.609   1.450
74575SOL    HW125622   8.428   3.589   1.510
74575SOL    HW225623   8.456   3.634   1.369
74576SOL     OW25624  11.660   6.036   8.639
74576SOL    HW125625  11.619   5.973   8.580
74576SOL    HW225626  11.737   6.066   8.592
74577SOL     OW25627   8.256   4.427  10.511
74577SOL    HW125628   8.248   4.512  10.469
74577SOL    HW225629   8.193   4.430  10.584
74578SOL     OW25630  12.174   9.954  10.611
74578SOL    HW125631  12.144  10.042  10.631
74578SOL    HW225632  12.230   9.930  10.686
74579SOL     OW25633  14.752   3.584  10.942
74579SOL    HW125634  14.763   3.534  11.023
74579SOL    HW225635  14.840   3.588  10.905
74580SOL     OW25636   6.076   8.986  12.233
74580SOL    HW125637   6.056   8.916  12.171
74580SOL    HW225638   6.004   8.982  12.297
74581SOL     OW25639  14.703   5.220   9.920
74581SOL    HW125640  14.790   5.250   9.892
74581SOL    HW225641  14.646   5.238   9.845
74582SOL     OW25642  13.242   7.066   7.106
74582SOL    HW125643  13.271   7.095   7.193
74582SOL    HW225644  13.273   7.134   7.046
74583SOL     OW25645   7.770   8.440  12.712
74583SOL    HW125646   7.832   8.375  12.744
74583SOL    HW225647   7.740   8.485  12.791
74584SOL     OW25648   4.710  10.191  11.947
74584SOL    HW125649   4.772  10.256  11.912
74584SOL    HW225650   4.760  10.110  11.950
74585SOL     OW25651   7.157   0.310   7.731
74585SOL    HW125652   7.164   0.269   7.818
74585SOL    HW225653   7.063   0.324   7.719
74586SOL     OW25654  12.395  12.798   4.935
74586SOL    HW125655  12.317  12.851   4.950
74586SOL    HW225656  12.467  12.861   4.928
74587SOL     OW25657  10.580   9.839  10.197
74587SOL    HW125658  10.655   9.845  10.255
74587SOL    HW225659  10.608   9.781  10.126
74588SOL     OW25660  12.797   6.419  14.775
74588SOL    HW125661  12.742   6.351  14.814
74588SOL    HW225662  12.806   6.393  14.683
74589SOL     OW25663  12.070   1.651   7.747
74589SOL    HW125664  12.151   1.602   7.735
74589SOL    HW225665  12.003   1.599   7.703
74590SOL     OW25666   7.104   1.869   7.030
74590SOL    HW125667   7.039   1.799   7.042
74590SOL    HW225668   7.180   1.840   7.081
74591SOL     OW25669   1.011   4.386   5.002
74591SOL    HW125670   1.032   4.320   5.069
74591SOL    HW225671   1.090   4.392   4.949
74592SOL     OW25672   0.614   7.492   8.042
74592SOL    HW125673   0.551   7.559   8.014
74592SOL    HW225674   0.699   7.529   8.020
74593SOL     OW25675   7.587  12.926  11.693
74593SOL    HW125676   7.568  12.942  11.785
74593SOL    HW225677   7.603  12.831  11.688
74594SOL     OW25678   6.788   8.799  13.585
74594SOL    HW125679   6.707   8.841  13.557
74594SOL    HW225680   6.815   8.849  13.662
74595SOL     OW25681   5.975  13.738  11.326
74595SOL    HW125682   6.069  13.751  11.322
74595SOL    HW225683   5.944  13.760  11.237
74596SOL     OW25684   4.608   1.639   5.961
74596SOL    HW125685   4.678   1.651   5.896
74596SOL    HW225686   4.543   1.706   5.938
74597SOL     OW25687   6.219   2.973   9.156
74597SOL    HW125688   6.284   2.914   9.194
74597SOL    HW225689   6.212   2.946   9.064
74598SOL     OW25690  12.162   3.729  11.594
74598SOL    HW125691  12.180   3.792  11.663
74598SOL    HW225692  12.202   3.648  11.625
74599SOL     OW25693   1.887   3.791   0.416
74599SOL    HW125694   1.918   3.806   0.505
74599SOL    HW225695   1.965   3.767   0.367
74600SOL     OW25696  14.460  12.663  12.786
74600SOL    HW125697  14.432  12.712  12.863
74600SOL    HW225698  14.385  12.607  12.765
74601SOL     OW25699   0.023  10.392  11.437
74601SOL    HW125700   0.104  10.420  11.480
74601SOL    HW225701   0.050  10.318  11.382
74602SOL     OW25702  11.869   1.930   0.256
74602SOL    HW125703  11.943   1.934   0.317
74602SOL    HW225704  11.897   1.869   0.188
74603SOL     OW25705   8.671   0.681  12.738
74603SOL    HW125706   8.664   0.727  12.822
74603SOL    HW225707   8.688   0.590  12.762
74604SOL     OW25708   5.309  11.925   6.947
74604SOL    HW125709   5.270  11.998   6.900
74604SOL    HW225710   5.331  11.861   6.880
74605SOL     OW25711  10.847   4.038   4.947
74605SOL    HW125712  10.881   3.985   4.874
74605SOL    HW225713  10.865   4.128   4.920
74606SOL     OW25714   3.541   6.648  14.179
74606SOL    HW125715   3.633   6.673  14.191
74606SOL    HW225716   3.499   6.729  14.150
74607SOL     OW25717  14.730  13.932   5.602
74607SOL    HW125718  14.759  13.848   5.637
74607SOL    HW225719  14.758  13.996   5.667
74608SOL     OW25720   3.347   1.028   4.185
74608SOL    HW125721   3.309   0.945   4.214
74608SOL    HW225722   3.281   1.094   4.208
74609SOL     OW25723   7.645  10.987   2.765
74609SOL    HW125724   7.635  11.081   2.778
74609SOL    HW225725   7.727  10.966   2.811
74610SOL     OW25726   8.932   7.996   8.979
74610SOL    HW125727   8.876   8.041   8.916
74610SOL    HW225728   8.969   8.067   9.032
74611SOL     OW25729   0.176   7.555   4.874
74611SOL    HW125730   0.107   7.555   4.808
74611SOL    HW225731   0.131   7.532   4.956
74612SOL     OW25732  14.827   5.720  11.077
74612SOL    HW125733  14.752   5.763  11.119
74612SOL    HW225734   0.025   5.785  11.082
74613SOL     OW25735   4.011   9.009   2.017
74613SOL    HW125736   4.097   8.987   2.054
74613SOL    HW225737   3.968   8.924   2.005
74614SOL     OW25738   0.971  13.402   6.669
74614SOL    HW125739   0.990  13.376   6.759
74614SOL    HW225740   1.006  13.332   6.615
74615SOL     OW25741   1.361   2.533  14.258
74615SOL    HW125742   1.448   2.549  14.295
74615SOL    HW225743   1.331   2.453  14.300
74616SOL     OW25744  13.123  11.327   8.189
74616SOL    HW125745  13.180  11.340   8.266
74616SOL    HW225746  13.126  11.410   8.142
74617SOL     OW25747  13.016   2.240   0.369
74617SOL    HW125748  13.111   2.234   0.377
74617SOL    HW225749  12.990   2.158   0.327
74618SOL     OW25750   8.820  13.865   9.342
74618SOL    HW125751   8.770  13.791   9.306
74618SOL    HW225752   8.809  13.934   9.277
74619SOL     OW25753  10.288  10.177   3.286
74619SOL    HW125754  10.337  10.096   3.271
74619SOL    HW225755  10.196  10.153   3.272
74620SOL     OW25756  12.644   0.033   5.614
74620SOL    HW125757  12.663   0.117   5.573
74620SOL    HW225758  12.700  14.843   5.567
74621SOL     OW25759   1.602   6.338   9.177
74621SOL    HW125760   1.696   6.326   9.185
74621SOL    HW225761   1.576   6.381   9.259
74622SOL     OW25762   6.993   6.250   4.594
74622SOL    HW125763   7.035   6.283   4.515
74622SOL    HW225764   7.036   6.298   4.666
74623SOL     OW25765   3.386  13.377   9.832
74623SOL    HW125766   3.325  13.448   9.814
74623SOL    HW225767   3.430  13.403   9.914
74624SOL     OW25768   2.375  13.692  12.434
74624SOL    HW125769   2.468  13.710  12.418
74624SOL    HW225770   2.373  13.654  12.522
74625SOL     OW25771   6.243   8.882  10.690
74625SOL    HW125772   6.318   8.905  10.744
74625SOL    HW225773   6.274   8.894  10.600
74626SOL     OW25774  13.449   3.300   5.473
74626SOL    HW125775  13.537   3.337   5.486
74626SOL    HW225776  13.456   3.250   5.391
74627SOL     OW25777   5.301   5.445   4.217
74627SOL    HW125778   5.336   5.533   4.230
74627SOL    HW225779   5.225   5.441   4.275
74628SOL     OW25780   9.784   1.124  11.477
74628SOL    HW125781   9.863   1.175  11.461
74628SOL    HW225782   9.791   1.049  11.419
74629SOL     OW25783  11.388   7.330   0.624
74629SOL    HW125784  11.480   7.352   0.636
74629SOL    HW225785  11.364   7.370   0.541
74630SOL     OW25786   8.936   1.513   6.810
74630SOL    HW125787   8.847   1.528   6.839
74630SOL    HW225788   8.985   1.493   6.890
74631SOL     OW25789   8.695   0.723   6.744
74631SOL    HW125790   8.666   0.762   6.826
74631SOL    HW225791   8.790   0.722   6.750
74632SOL     OW25792  13.768   3.598   7.693
74632SOL    HW125793  13.751   3.618   7.601
74632SOL    HW225794  13.774   3.503   7.697
74633SOL     OW25795   0.864  13.781  13.673
74633SOL    HW125796   0.812  13.850  13.714
74633SOL    HW225797   0.942  13.774  13.728
74634SOL     OW25798   9.390   1.438   3.571
74634SOL    HW125799   9.346   1.430   3.656
74634SOL    HW225800   9.478   1.404   3.587
74635SOL     OW25801   6.779  13.530  11.591
74635SOL    HW125802   6.766  13.507  11.499
74635SOL    HW225803   6.750  13.452  11.639
74636SOL     OW25804   9.343   1.300   1.688
74636SOL    HW125805   9.259   1.291   1.732
74636SOL    HW225806   9.400   1.238   1.733
74637SOL     OW25807   1.397   5.123   1.072
74637SOL    HW125808   1.386   5.030   1.052
74637SOL    HW225809   1.376   5.130   1.165
74638SOL     OW25810   1.089  11.207   5.567
74638SOL    HW125811   1.179  11.181   5.584
74638SOL    HW225812   1.061  11.253   5.646
74639SOL     OW25813   0.767  14.766  14.581
74639SOL    HW125814   0.846  14.818  14.596
74639SOL    HW225815   0.747  14.779  14.488
74640SOL     OW25816   9.868   8.029   7.934
74640SOL    HW125817   9.919   7.966   7.985
74640SOL    HW225818   9.894   8.115   7.968
74641SOL     OW25819   2.474   9.771   0.243
74641SOL    HW125820   2.407   9.774   0.175
74641SOL    HW225821   2.529   9.696   0.219
74642SOL     OW25822   2.877  12.920   4.700
74642SOL    HW125823   2.895  12.877   4.616
74642SOL    HW225824   2.801  12.975   4.682
74643SOL     OW25825   2.837   5.154   7.003
74643SOL    HW125826   2.904   5.174   7.069
74643SOL    HW225827   2.883   5.160   6.920
74644SOL     OW25828  13.645   1.864   0.608
74644SOL    HW125829  13.587   1.926   0.563
74644SOL    HW225830  13.659   1.794   0.544
74645SOL     OW25831  10.404   2.330   8.437
74645SOL    HW125832  10.435   2.359   8.523
74645SOL    HW225833  10.415   2.407   8.381
74646SOL     OW25834  13.484  11.999   9.538
74646SOL    HW125835  13.474  11.988   9.632
74646SOL    HW225836  13.555  11.940   9.514
74647SOL     OW25837   7.299  14.091  11.568
74647SOL    HW125838   7.357  14.022  11.536
74647SOL    HW225839   7.296  14.078  11.663
74648SOL     OW25840  13.892   6.105   2.194
74648SOL    HW125841  13.939   6.089   2.112
74648SOL    HW225842  13.817   6.045   2.190
74649SOL     OW25843  14.120  13.572   7.049
74649SOL    HW125844  14.155  13.641   7.105
74649SOL    HW225845  14.113  13.496   7.107
74650SOL     OW25846   8.685  10.141   1.052
74650SOL    HW125847   8.774  10.153   1.085
74650SOL    HW225848   8.629  10.154   1.128
74651SOL     OW25849   6.151   8.557   2.817
74651SOL    HW125850   6.189   8.530   2.901
74651SOL    HW225851   6.226   8.559   2.757
74652SOL     OW25852   4.616  10.890  10.016
74652SOL    HW125853   4.552  10.835   9.972
74652SOL    HW225854   4.687  10.899   9.952
74653SOL     OW25855  13.232   8.746   7.791
74653SOL    HW125856  13.224   8.841   7.789
74653SOL    HW225857  13.200   8.717   7.706
74654SOL     OW25858   5.885   1.544  12.175
74654SOL    HW125859   5.892   1.527  12.269
74654SOL    HW225860   5.856   1.635  12.169
74655SOL     OW25861   9.702   5.412   0.881
74655SOL    HW125862   9.678   5.505   0.882
74655SOL    HW225863   9.652   5.375   0.809
74656SOL     OW25864   4.077   9.979   4.303
74656SOL    HW125865   4.094   9.957   4.394
74656SOL    HW225866   4.123   9.911   4.253
74657SOL     OW25867  12.160   6.255   0.077
74657SOL    HW125868  12.177   6.163   0.096
74657SOL    HW225869  12.150   6.296   0.163
74658SOL     OW25870  14.504  13.958   1.570
74658SOL    HW125871  14.563  13.945   1.644
74658SOL    HW225872  14.499  13.872   1.528
74659SOL     OW25873   5.854   5.560  14.051
74659SOL    HW125874   5.934   5.514  14.079
74659SOL    HW225875   5.785   5.524  14.107
74660SOL     OW25876  14.352   7.383   3.172
74660SOL    HW125877  14.311   7.328   3.106
74660SOL    HW225878  14.353   7.470   3.132
74661SOL     OW25879  10.686  14.624  13.294
74661SOL    HW125880  10.617  14.637  13.230
74661SOL    HW225881  10.762  14.597  13.243
74662SOL     OW25882   5.616  10.982   0.290
74662SOL    HW125883   5.571  10.965   0.373
74662SOL    HW225884   5.554  11.036   0.240
74663SOL     OW25885   0.700  10.990   1.422
74663SOL    HW125886   0.681  10.903   1.387
74663SOL    HW225887   0.759  11.029   1.357
74664SOL     OW25888  14.622   0.278  10.992
74664SOL    HW125889  14.659   0.207  10.939
74664SOL    HW225890  14.670   0.356  10.964
74665SOL     OW25891   7.635   3.701   1.563
74665SOL    HW125892   7.560   3.760   1.567
74665SOL    HW225893   7.596   3.614   1.547
74666SOL     OW25894  13.254   2.202   1.902
74666SOL    HW125895  13.169   2.215   1.861
74666SOL    HW225896  13.289   2.123   1.861
74667SOL     OW25897   4.312   9.000   4.250
74667SOL    HW125898   4.327   8.913   4.285
74667SOL    HW225899   4.235   9.033   4.298
74668SOL     OW25900  12.898  11.707   3.074
74668SOL    HW125901  12.833  11.733   3.009
74668SOL    HW225902  12.898  11.778   3.137
74669SOL     OW25903   5.560   7.141   0.780
74669SOL    HW125904   5.618   7.089   0.836
74669SOL    HW225905   5.531   7.213   0.837
74670SOL     OW25906   9.018   3.650   9.449
74670SOL    HW125907   9.008   3.583   9.516
74670SOL    HW225908   8.930   3.687   9.438
74671SOL     OW25909  12.956   1.180   8.493
74671SOL    HW125910  12.943   1.109   8.556
74671SOL    HW225911  12.952   1.137   8.408
74672SOL     OW25912  14.459  11.106   5.419
74672SOL    HW125913  14.414  11.136   5.498
74672SOL    HW225914  14.484  11.186   5.373
74673SOL     OW25915   4.819   0.940   8.214
74673SOL    HW125916   4.774   0.982   8.141
74673SOL    HW225917   4.848   0.855   8.179
74674SOL     OW25918   2.536  12.808   2.961
74674SOL    HW125919   2.487  12.729   2.984
74674SOL    HW225920   2.516  12.871   3.030
74675SOL     OW25921   4.938   8.857  13.800
74675SOL    HW125922   4.959   8.889  13.713
74675SOL    HW225923   4.857   8.901  13.823
74676SOL     OW25924   9.870  11.582  10.642
74676SOL    HW125925   9.817  11.626  10.576
74676SOL    HW225926   9.813  11.512  10.676
74677SOL     OW25927   1.223   0.173  13.201
74677SOL    HW125928   1.130   0.188  13.185
74677SOL    HW225929   1.258   0.260  13.222
74678SOL     OW25930   2.587   3.556   7.873
74678SOL    HW125931   2.543   3.641   7.878
74678SOL    HW225932   2.562   3.520   7.788
74679SOL     OW25933  10.899   1.875   0.238
74679SOL    HW125934  10.857   1.960   0.225
74679SOL    HW225935  10.983   1.897   0.278
74680SOL     OW25936  11.001   6.287   9.219
74680SOL    HW125937  10.921   6.283   9.273
74680SOL    HW225938  10.969   6.285   9.129
74681SOL     OW25939   0.913   8.865   0.821
74681SOL    HW125940   0.959   8.801   0.767
74681SOL    HW225941   0.895   8.939   0.762
74682SOL     OW25942   1.523  12.315   2.635
74682SOL    HW125943   1.544  12.408   2.635
74682SOL    HW225944   1.452  12.305   2.698
74683SOL     OW25945   0.899   2.747   7.618
74683SOL    HW125946   0.977   2.692   7.605
74683SOL    HW225947   0.851   2.740   7.536
74684SOL     OW25948  14.818  14.713   9.052
74684SOL    HW125949   0.020  14.677   9.100
74684SOL    HW225950  14.818  14.806   9.075
74685SOL     OW25951  12.376   6.327  11.946
74685SOL    HW125952  12.421   6.407  11.919
74685SOL    HW225953  12.289   6.335  11.907
74686SOL     OW25954   7.703   9.155  12.543
74686SOL    HW125955   7.649   9.077  12.534
74686SOL    HW225956   7.755   9.138  12.623
74687SOL     OW25957   5.246  12.249   8.155
74687SOL    HW125958   5.281  12.338   8.162
74687SOL    HW225959   5.311  12.194   8.199
74688SOL     OW25960   7.356   1.782   6.603
74688SOL    HW125961   7.270   1.746   6.626
74688SOL    HW225962   7.348   1.876   6.622
74689SOL     OW25963  12.023  11.416  11.184
74689SOL    HW125964  12.075  11.486  11.224
74689SOL    HW225965  12.019  11.440  11.091
74690SOL     OW25966   6.410  11.036  13.117
74690SOL    HW125967   6.372  10.970  13.060
74690SOL    HW225968   6.414  10.994  13.203
74691SOL     OW25969  14.095  11.547   5.870
74691SOL    HW125970  14.045  11.629   5.863
74691SOL    HW225971  14.180  11.568   5.830
74692SOL     OW25972  11.999   4.329   1.428
74692SOL    HW125973  11.994   4.233   1.421
74692SOL    HW225974  12.056   4.345   1.503
74693SOL     OW25975   6.527   1.151   4.584
74693SOL    HW125976   6.556   1.063   4.557
74693SOL    HW225977   6.607   1.194   4.614
74694SOL     OW25978   9.996   0.515  14.725
74694SOL    HW125979  10.038   0.601  14.717
74694SOL    HW225980  10.012   0.473  14.641
74695SOL     OW25981  11.699   4.182   8.343
74695SOL    HW125982  11.667   4.267   8.313
74695SOL    HW225983  11.630   4.150   8.401
74696SOL     OW25984  14.185   0.709   1.497
74696SOL    HW125985  14.193   0.644   1.567
74696SOL    HW225986  14.164   0.657   1.419
74697SOL     OW25987   6.303  10.877   2.042
74697SOL    HW125988   6.229  10.857   1.985
74697SOL    HW225989   6.372  10.907   1.981
74698SOL     OW25990  10.930  14.478   9.984
74698SOL    HW125991  10.909  14.503  10.074
74698SOL    HW225992  10.869  14.406   9.964
74699SOL     OW25993   4.570   8.148  12.791
74699SOL    HW125994   4.556   8.054  12.801
74699SOL    HW225995   4.654   8.156  12.746
74700SOL     OW25996   1.102  13.582  11.423
74700SOL    HW125997   1.028  13.624  11.468
74700SOL    HW225998   1.066  13.499  11.391
74701SOL     OW25999   8.890   1.426   4.340
74701SOL    HW126000   8.860   1.364   4.274
74701SOL    HW226001   8.886   1.377   4.422
74702SOL     OW26002  14.083  10.318   8.627
74702SOL    HW126003  14.041  10.236   8.602
74702SOL    HW226004  14.062  10.327   8.720
74703SOL     OW26005   2.195  12.639   9.257
74703SOL    HW126006   2.117  12.682   9.222
74703SOL    HW226007   2.161  12.563   9.305
74704SOL     OW26008   4.029   8.654  11.914
74704SOL    HW126009   4.044   8.666  11.821
74704SOL    HW226010   4.111   8.618  11.948
74705SOL     OW26011   1.492   1.223  14.547
74705SOL    HW126012   1.570   1.168  14.554
74705SOL    HW226013   1.420   1.160  14.540
74706SOL     OW26014   0.236  13.956   5.886
74706SOL    HW126015   0.219  13.888   5.820
74706SOL    HW226016   0.327  13.981   5.872
74707SOL     OW26017   3.429   0.358  12.751
74707SOL    HW126018   3.413   0.279  12.803
74707SOL    HW226019   3.515   0.389  12.780
74708SOL     OW26020   0.539   1.747  10.425
74708SOL    HW126021   0.567   1.778  10.338
74708SOL    HW226022   0.444   1.734  10.415
74709SOL     OW26023   2.190  10.085   9.432
74709SOL    HW126024   2.254  10.084   9.360
74709SOL    HW226025   2.110  10.120   9.392
74710SOL     OW26026   9.720  14.300   4.872
74710SOL    HW126027   9.751  14.265   4.956
74710SOL    HW226028   9.798  14.299   4.816
74711SOL     OW26029  13.952   2.377  12.702
74711SOL    HW126030  13.864   2.395  12.669
74711SOL    HW226031  13.951   2.408  12.793
74712SOL     OW26032   7.256   4.070   8.016
74712SOL    HW126033   7.201   3.992   8.022
74712SOL    HW226034   7.345   4.037   8.025
74713SOL     OW26035   4.628   3.064  10.109
74713SOL    HW126036   4.639   2.981  10.154
74713SOL    HW226037   4.716   3.087  10.080
74714SOL     OW26038   3.928   1.318   9.026
74714SOL    HW126039   3.965   1.247   9.078
74714SOL    HW226040   3.993   1.335   8.958
74715SOL     OW26041   3.502   4.889   6.210
74715SOL    HW126042   3.557   4.913   6.285
74715SOL    HW226043   3.458   4.970   6.186
74716SOL     OW26044  11.239   6.371   1.213
74716SOL    HW126045  11.217   6.348   1.122
74716SOL    HW226046  11.329   6.404   1.209
74717SOL     OW26047   5.224  10.959  10.270
74717SOL    HW126048   5.315  10.977  10.293
74717SOL    HW226049   5.226  10.873  10.228
74718SOL     OW26050  12.773   1.087  11.611
74718SOL    HW126051  12.777   1.020  11.679
74718SOL    HW226052  12.737   1.041  11.534
74719SOL     OW26053  13.134  11.550   3.121
74719SOL    HW126054  13.180  11.565   3.038
74719SOL    HW226055  13.050  11.595   3.110
74720SOL     OW26056   9.326   1.194   4.346
74720SOL    HW126057   9.288   1.179   4.432
74720SOL    HW226058   9.274   1.266   4.309
74721SOL     OW26059   5.011   5.252   2.927
74721SOL    HW126060   5.024   5.194   2.852
74721SOL    HW226061   5.037   5.199   3.003
74722SOL     OW26062   1.273   4.350   2.546
74722SOL    HW126063   1.368   4.350   2.554
74722SOL    HW226064   1.242   4.323   2.632
74723SOL     OW26065   2.310   9.781  12.724
74723SOL    HW126066   2.281   9.805  12.636
74723SOL    HW226067   2.282   9.690  12.734
74724SOL     OW26068   6.680  10.087   3.116
74724SOL    HW126069   6.724  10.108   3.034
74724SOL    HW226070   6.750  10.084   3.181
74725SOL     OW26071   0.054  14.006   7.284
74725SOL    HW126072   0.120  14.027   7.218
74725SOL    HW226073  14.847  13.988   7.234
74726SOL     OW26074   9.064  13.353   1.122
74726SOL    HW126075   9.113  13.272   1.108
74726SOL    HW226076   9.056  13.361   1.217
74727SOL     OW26077  12.496  13.389   8.459
74727SOL    HW126078  12.407  13.420   8.440
74727SOL    HW226079  12.492  13.359   8.550
74728SOL     OW26080   1.643   4.480   5.730
74728SOL    HW126081   1.720   4.451   5.780
74728SOL    HW226082   1.583   4.405   5.734
74729SOL     OW26083   6.485   2.176   4.379
74729SOL    HW126084   6.392   2.159   4.390
74729SOL    HW226085   6.500   2.259   4.425
74730SOL     OW26086   6.606   1.411   7.082
74730SOL    HW126087   6.656   1.365   7.150
74730SOL    HW226088   6.609   1.503   7.108
74731SOL     OW26089  11.527   3.384   6.667
74731SOL    HW126090  11.486   3.402   6.751
74731SOL    HW226091  11.499   3.295   6.645
74732SOL     OW26092   4.484  11.161   7.284
74732SOL    HW126093   4.576  11.179   7.301
74732SOL    HW226094   4.436  11.224   7.338
74733SOL     OW26095  10.734   8.669   0.094
74733SOL    HW126096  10.675   8.611   0.045
74733SOL    HW226097  10.676   8.736   0.130
74734SOL     OW26098   1.018  12.744   6.653
74734SOL    HW126099   1.051  12.689   6.724
74734SOL    HW226100   1.080  12.731   6.581
74735SOL     OW26101  14.551   0.529   3.592
74735SOL    HW126102  14.632   0.509   3.640
74735SOL    HW226103  14.566   0.493   3.504
74736SOL     OW26104  10.423   6.329   0.901
74736SOL    HW126105  10.405   6.370   0.986
74736SOL    HW226106  10.519   6.330   0.894
74737SOL     OW26107   1.945  12.477   4.298
74737SOL    HW126108   1.872  12.537   4.312
74737SOL    HW226109   1.914  12.393   4.332
74738SOL     OW26110  10.974  12.258   6.668
74738SOL    HW126111  10.969  12.292   6.578
74738SOL    HW226112  10.911  12.186   6.670
74739SOL     OW26113   0.524  11.299   2.641
74739SOL    HW126114   0.481  11.341   2.715
74739SOL    HW226115   0.560  11.371   2.590
74740SOL     OW26116  13.691   5.162   2.892
74740SOL    HW126117  13.781   5.169   2.922
74740SOL    HW226118  13.683   5.230   2.825
74741SOL     OW26119   4.582  10.575  13.772
74741SOL    HW126120   4.644  10.634  13.730
74741SOL    HW226121   4.591  10.493  13.723
74742SOL     OW26122   2.540  12.818  13.005
74742SOL    HW126123   2.449  12.837  12.983
74742SOL    HW226124   2.589  12.894  12.976
74743SOL     OW26125   4.904   2.307   9.666
74743SOL    HW126126   4.961   2.233   9.685
74743SOL    HW226127   4.816   2.276   9.690
74744SOL     OW26128  11.198   2.467   1.048
74744SOL    HW126129  11.170   2.379   1.025
74744SOL    HW226130  11.175   2.520   0.972
74745SOL     OW26131  10.465   3.299  13.942
74745SOL    HW126132  10.394   3.238  13.956
74745SOL    HW226133  10.541   3.259  13.985
74746SOL     OW26134   4.853   3.696   7.439
74746SOL    HW126135   4.860   3.696   7.534
74746SOL    HW226136   4.941   3.675   7.408
74747SOL     OW26137   3.500   1.744   0.739
74747SOL    HW126138   3.527   1.655   0.719
74747SOL    HW226139   3.448   1.771   0.663
74748SOL     OW26140   6.214  14.681   2.549
74748SOL    HW126141   6.169  14.597   2.553
74748SOL    HW226142   6.307  14.659   2.550
74749SOL     OW26143  13.228   3.052   6.769
74749SOL    HW126144  13.213   3.146   6.765
74749SOL    HW226145  13.308   3.042   6.820
74750SOL     OW26146   8.084   2.170  11.413
74750SOL    HW126147   8.121   2.092  11.453
74750SOL    HW226148   8.006   2.139  11.366
74751SOL     OW26149  12.642   7.662   4.139
74751SOL    HW126150  12.729   7.633   4.166
74751SOL    HW226151  12.655   7.696   4.050
74752SOL     OW26152   9.584  13.898   3.587
74752SOL    HW126153   9.557  13.844   3.513
74752SOL    HW226154   9.637  13.839   3.641
74753SOL     OW26155   0.451   9.341  13.390
74753SOL    HW126156   0.490   9.418  13.349
74753SOL    HW226157   0.418   9.289  13.317
74754SOL     OW26158   4.345   4.771   6.450
74754SOL    HW126159   4.357   4.861   6.420
74754SOL    HW226160   4.392   4.766   6.533
74755SOL     OW26161   9.165  10.438   8.990
74755SOL    HW126162   9.112  10.365   8.958
74755SOL    HW226163   9.233  10.449   8.924
74756SOL     OW26164  10.386   4.298   2.132
74756SOL    HW126165  10.296   4.295   2.100
74756SOL    HW226166  10.405   4.207   2.157
74757SOL     OW26167   4.558  12.461   8.070
74757SOL    HW126168   4.518  12.431   8.152
74757SOL    HW226169   4.611  12.536   8.096
74758SOL     OW26170  14.005  14.726   0.108
74758SOL    HW126171  14.049  14.776   0.178
74758SOL    HW226172  13.940  14.673   0.154
74759SOL     OW26173  12.333   7.676  10.473
74759SOL    HW126174  12.310   7.663  10.381
74759SOL    HW226175  12.416   7.630  10.484
74760SOL     OW26176  10.792   6.652   1.622
74760SOL    HW126177  10.828   6.690   1.702
74760SOL    HW226178  10.704   6.624   1.647
74761SOL     OW26179  10.122  11.354   1.176
74761SOL    HW126180  10.045  11.298   1.164
74761SOL    HW226181  10.089  11.442   1.158
74762SOL     OW26182   0.290  11.690   5.616
74762SOL    HW126183   0.210  11.669   5.568
74762SOL    HW226184   0.357  11.696   5.548
74763SOL     OW26185   2.787   8.287   2.884
74763SOL    HW126186   2.873   8.292   2.927
74763SOL    HW226187   2.807   8.291   2.791
74764SOL     OW26188   3.159  13.777   7.528
74764SOL    HW126189   3.207  13.856   7.548
74764SOL    HW226190   3.191  13.712   7.590
74765SOL     OW26191   4.790  14.241   7.121
74765SOL    HW126192   4.765  14.153   7.150
74765SOL    HW226193   4.861  14.226   7.059
74766SOL     OW26194   3.747   9.052   6.012
74766SOL    HW126195   3.794   9.005   6.082
74766SOL    HW226196   3.773   9.143   6.023
74767SOL     OW26197   7.444   7.145  11.018
74767SOL    HW126198   7.411   7.234  11.025
74767SOL    HW226199   7.530   7.149  11.060
74768SOL     OW26200   0.503   7.015  11.700
74768SOL    HW126201   0.445   7.037  11.627
74768SOL    HW226202   0.467   6.935  11.737
74769SOL     OW26203  14.519   4.096   4.927
74769SOL    HW126204  14.571   4.125   4.852
74769SOL    HW226205  14.430   4.125   4.907
74770SOL     OW26206  12.473   3.819   6.738
74770SOL    HW126207  12.417   3.883   6.694
74770SOL    HW226208  12.553   3.818   6.686
74771SOL     OW26209   3.864  13.116   6.943
74771SOL    HW126210   3.870  13.100   7.037
74771SOL    HW226211   3.946  13.082   6.907
74772SOL     OW26212  11.744  13.832   9.530
74772SOL    HW126213  11.802  13.843   9.455
74772SOL    HW226214  11.775  13.897   9.594
74773SOL     OW26215  12.669   2.133   1.828
74773SOL    HW126216  12.750   2.172   1.795
74773SOL    HW226217  12.607   2.205   1.828
74774SOL     OW26218  13.371   9.211  12.755
74774SOL    HW126219  13.298   9.152  12.735
74774SOL    HW226220  13.410   9.231  12.670
74775SOL     OW26221  13.672  11.348   5.495
74775SOL    HW126222  13.629  11.284   5.438
74775SOL    HW226223  13.620  11.349   5.575
74776SOL     OW26224   4.648   9.073   4.267
74776SOL    HW126225   4.622   8.989   4.228
74776SOL    HW226226   4.596   9.138   4.220
74777SOL     OW26227   7.714   5.281   3.844
74777SOL    HW126228   7.630   5.315   3.811
74777SOL    HW226229   7.711   5.297   3.938
74778SOL     OW26230  13.932   0.213   6.154
74778SOL    HW126231  14.000   0.173   6.208
74778SOL    HW226232  13.964   0.204   6.064
74779SOL     OW26233   7.393   8.812   1.247
74779SOL    HW126234   7.468   8.763   1.281
74779SOL    HW226235   7.353   8.753   1.183
74780SOL     OW26236   3.051   3.507   9.902
74780SOL    HW126237   3.116   3.578   9.909
74780SOL    HW226238   2.983   3.543   9.845
74781SOL     OW26239  11.638  13.269  11.913
74781SOL    HW126240  11.575  13.320  11.862
74781SOL    HW226241  11.589  13.193  11.942
74782SOL     OW26242   3.293  12.593   8.654
74782SOL    HW126243   3.246  12.651   8.713
74782SOL    HW226244   3.308  12.646   8.575
74783SOL     OW26245   0.020  11.866   3.233
74783SOL    HW126246   0.084  11.937   3.234
74783SOL    HW226247   0.070  11.789   3.261
74784SOL     OW26248  11.330   0.866  13.567
74784SOL    HW126249  11.296   0.777  13.578
74784SOL    HW226250  11.319   0.906  13.653
74785SOL     OW26251   1.721   3.828   2.634
74785SOL    HW126252   1.662   3.887   2.587
74785SOL    HW226253   1.753   3.768   2.567
74786SOL     OW26254   5.463   4.601   1.961
74786SOL    HW126255   5.450   4.665   2.031
74786SOL    HW226256   5.525   4.643   1.902
74787SOL     OW26257  13.661   2.920  14.470
74787SOL    HW126258  13.704   3.003  14.452
74787SOL    HW226259  13.675   2.905  14.563
74788SOL     OW26260   7.223   3.747  11.476
74788SOL    HW126261   7.183   3.818  11.526
74788SOL    HW226262   7.290   3.790  11.422
74789SOL     OW26263   5.722   9.486   7.885
74789SOL    HW126264   5.700   9.424   7.815
74789SOL    HW226265   5.791   9.541   7.847
74790SOL     OW26266  11.039   9.285   2.860
74790SOL    HW126267  11.076   9.222   2.922
74790SOL    HW226268  11.100   9.283   2.786
74791SOL     OW26269   4.239   4.400  13.201
74791SOL    HW126270   4.291   4.464  13.250
74791SOL    HW226271   4.221   4.444  13.117
74792SOL     OW26272   0.247   8.960   3.913
74792SOL    HW126273   0.219   9.024   3.978
74792SOL    HW226274   0.282   9.013   3.841
74793SOL     OW26275   6.138   8.146   5.867
74793SOL    HW126276   6.129   8.058   5.830
74793SOL    HW226277   6.232   8.155   5.882
74794SOL     OW26278  11.915   2.937  13.096
74794SOL    HW126279  11.940   3.021  13.059
74794SOL    HW226280  11.879   2.959  13.182
74795SOL     OW26281  10.041  11.537   1.380
74795SOL    HW126282  10.115  11.570   1.431
74795SOL    HW226283  10.044  11.442   1.393
74796SOL     OW26284   8.179  11.706   7.397
74796SOL    HW126285   8.159  11.795   7.368
74796SOL    HW226286   8.166  11.709   7.492
74797SOL     OW26287   8.822   0.441   1.918
74797SOL    HW126288   8.824   0.393   2.001
74797SOL    HW226289   8.771   0.519   1.936
74798SOL     OW26290   7.917   0.367  13.530
74798SOL    HW126291   7.919   0.279  13.493
74798SOL    HW226292   7.981   0.365  13.601
74799SOL     OW26293   5.758   8.563   9.346
74799SOL    HW126294   5.771   8.566   9.441
74799SOL    HW226295   5.761   8.655   9.318
74800SOL     OW26296  11.547   3.621   6.441
74800SOL    HW126297  11.624   3.657   6.485
74800SOL    HW226298  11.547   3.528   6.464
74801SOL     OW26299   4.700   1.885  10.010
74801SOL    HW126300   4.713   1.825  10.083
74801SOL    HW226301   4.626   1.940  10.037
74802SOL     OW26302   3.650  10.845   0.321
74802SOL    HW126303   3.574  10.797   0.355
74802SOL    HW226304   3.628  10.937   0.337
74803SOL     OW26305   5.396   9.995   8.166
74803SOL    HW126306   5.423  10.076   8.122
74803SOL    HW226307   5.478   9.952   8.191
74804SOL     OW26308  14.433   4.600   4.112
74804SOL    HW126309  14.467   4.572   4.027
74804SOL    HW226310  14.341   4.575   4.112
74805SOL     OW26311   2.714   9.428   5.924
74805SOL    HW126312   2.799   9.426   5.881
74805SOL    HW226313   2.680   9.339   5.913
74806SOL     OW26314  14.499   5.594   8.196
74806SOL    HW126315  14.576   5.585   8.252
74806SOL    HW226316  14.531   5.643   8.120
74807SOL     OW26317   4.954   3.822   0.377
74807SOL    HW126318   4.870   3.793   0.341
74807SOL    HW226319   5.004   3.850   0.300
74808SOL     OW26320   3.641   3.469   9.761
74808SOL    HW126321   3.735   3.456   9.750
74808SOL    HW226322   3.634   3.535   9.831
74809SOL     OW26323  14.754  10.703  10.842
74809SOL    HW126324  14.795  10.706  10.755
74809SOL    HW226325  14.822  10.669  10.899
74810SOL     OW26326   5.233   5.105   5.633
74810SOL    HW126327   5.240   5.023   5.584
74810SOL    HW226328   5.311   5.155   5.608
74811SOL     OW26329   0.575  14.027   2.209
74811SOL    HW126330   0.547  14.053   2.121
74811SOL    HW226331   0.600  14.109   2.252
74812SOL     OW26332  10.843   1.542   6.434
74812SOL    HW126333  10.786   1.619   6.436
74812SOL    HW226334  10.793   1.477   6.384
74813SOL     OW26335   7.996  14.568  13.744
74813SOL    HW126336   8.080  14.586  13.787
74813SOL    HW226337   7.999  14.475  13.724
74814SOL     OW26338   7.441  11.915   4.490
74814SOL    HW126339   7.499  11.991   4.493
74814SOL    HW226340   7.427  11.893   4.582
74815SOL     OW26341  12.104   9.491   5.557
74815SOL    HW126342  12.062   9.550   5.620
74815SOL    HW226343  12.190   9.474   5.595
74816SOL     OW26344   7.387   1.552  13.442
74816SOL    HW126345   7.469   1.541  13.394
74816SOL    HW226346   7.393   1.488  13.514
74817SOL     OW26347   6.354   5.375   9.578
74817SOL    HW126348   6.304   5.453   9.602
74817SOL    HW226349   6.311   5.343   9.498
74818SOL     OW26350  12.438   0.830  10.438
74818SOL    HW126351  12.518   0.881  10.422
74818SOL    HW226352  12.463   0.740  10.420
74819SOL     OW26353  11.869  12.484   6.381
74819SOL    HW126354  11.941  12.499   6.442
74819SOL    HW226355  11.904  12.512   6.296
74820SOL     OW26356  12.334  12.336   7.716
74820SOL    HW126357  12.307  12.368   7.631
74820SOL    HW226358  12.270  12.371   7.778
74821SOL     OW26359   1.730   3.023   8.261
74821SOL    HW126360   1.650   3.021   8.209
74821SOL    HW226361   1.768   3.109   8.244
74822SOL     OW26362   7.133   1.904   9.904
74822SOL    HW126363   7.166   1.867   9.822
74822SOL    HW226364   7.047   1.864   9.916
74823SOL     OW26365  14.125  10.762   2.374
74823SOL    HW126366  14.103  10.847   2.412
74823SOL    HW226367  14.203  10.734   2.421
74824SOL     OW26368  10.719   5.559  13.140
74824SOL    HW126369  10.673   5.622  13.195
74824SOL    HW226370  10.750   5.610  13.065
74825SOL     OW26371  10.526  12.279   6.711
74825SOL    HW126372  10.478  12.345   6.761
74825SOL    HW226373  10.492  12.195   6.743
74826SOL     OW26374   1.783   3.284   9.307
74826SOL    HW126375   1.697   3.285   9.347
74826SOL    HW226376   1.772   3.234   9.227
74827SOL     OW26377   3.174  14.440   5.764
74827SOL    HW126378   3.102  14.478   5.815
74827SOL    HW226379   3.205  14.367   5.817
74828SOL     OW26380   0.230   9.338   3.246
74828SOL    HW126381   0.202   9.252   3.276
74828SOL    HW226382   0.174   9.357   3.171
74829SOL     OW26383   4.187   5.863   0.596
74829SOL    HW126384   4.249   5.871   0.523
74829SOL    HW226385   4.240   5.831   0.669
74830SOL     OW26386   5.257  14.792   6.325
74830SOL    HW126387   5.186  14.853   6.342
74830SOL    HW226388   5.295  14.774   6.411
74831SOL     OW26389  12.043   6.195  14.483
74831SOL    HW126390  12.051   6.273  14.428
74831SOL    HW226391  11.988   6.135  14.431
74832SOL     OW26392  13.713  11.240  14.602
74832SOL    HW126393  13.644  11.200  14.654
74832SOL    HW226394  13.722  11.183  14.526
74833SOL     OW26395   8.679   3.089   4.043
74833SOL    HW126396   8.651   3.025   4.108
74833SOL    HW226397   8.749   3.045   3.995
74834SOL     OW26398   0.336   7.406   2.442
74834SOL    HW126399   0.409   7.404   2.380
74834SOL    HW226400   0.260   7.426   2.388
74835SOL     OW26401  11.949   5.056   5.748
74835SOL    HW126402  12.041   5.080   5.764
74835SOL    HW226403  11.952   4.961   5.736
74836SOL     OW26404   1.867   6.081  12.602
74836SOL    HW126405   1.828   6.105  12.686
74836SOL    HW226406   1.901   6.163  12.567
74837SOL     OW26407   5.726   1.467  13.303
74837SOL    HW126408   5.689   1.380  13.318
74837SOL    HW226409   5.662   1.512  13.248
74838SOL     OW26410   0.306   9.351  10.266
74838SOL    HW126411   0.274   9.393  10.346
74838SOL    HW226412   0.226   9.325  10.220
74839SOL     OW26413   4.847   1.269   5.034
74839SOL    HW126414   4.802   1.185   5.025
74839SOL    HW226415   4.940   1.246   5.033
74840SOL     OW26416   3.331  14.726   2.630
74840SOL    HW126417   3.370  14.811   2.609
74840SOL    HW226418   3.245  14.728   2.588
74841SOL     OW26419  13.155   8.810  11.802
74841SOL    HW126420  13.133   8.721  11.773
74841SOL    HW226421  13.141   8.864  11.724
74842SOL     OW26422  13.468   8.665   3.145
74842SOL    HW126423  13.557   8.661   3.180
74842SOL    HW226424  13.454   8.757   3.125
74843SOL     OW26425   4.380   8.211  11.439
74843SOL    HW126426   4.308   8.251  11.488
74843SOL    HW226427   4.436   8.173  11.506
74844SOL     OW26428  10.436  12.746  13.273
74844SOL    HW126429  10.378  12.669  13.270
74844SOL    HW226430  10.473  12.751  13.184
74845SOL     OW26431   2.558   1.343  13.075
74845SOL    HW126432   2.581   1.397  13.000
74845SOL    HW226433   2.544   1.406  13.146
74846SOL     OW26434  10.400   2.316   2.027
74846SOL    HW126435  10.424   2.273   1.945
74846SOL    HW226436  10.340   2.256   2.070
74847SOL     OW26437   3.034  10.618   2.969
74847SOL    HW126438   3.129  10.622   2.969
74847SOL    HW226439   3.008  10.651   3.056
74848SOL     OW26440   1.686   8.715  11.362
74848SOL    HW126441   1.595   8.724  11.331
74848SOL    HW226442   1.735   8.780  11.312
74849SOL     OW26443  12.062  12.288   5.410
74849SOL    HW126444  12.082  12.237   5.488
74849SOL    HW226445  12.133  12.268   5.349
74850SOL     OW26446   8.657  13.489   5.346
74850SOL    HW126447   8.683  13.458   5.259
74850SOL    HW226448   8.563  13.472   5.350
74851SOL     OW26449  14.490   0.587   6.086
74851SOL    HW126450  14.582   0.578   6.062
74851SOL    HW226451  14.477   0.518   6.151
74852SOL     OW26452   9.129   8.520   5.013
74852SOL    HW126453   9.074   8.515   4.934
74852SOL    HW226454   9.114   8.607   5.048
74853SOL     OW26455   5.676  12.131   4.748
74853SOL    HW126456   5.595  12.114   4.699
74853SOL    HW226457   5.699  12.047   4.787
74854SOL     OW26458   2.523   1.461   0.172
74854SOL    HW126459   2.596   1.464   0.233
74854SOL    HW226460   2.475   1.382   0.195
74855SOL     OW26461   6.207   3.206   8.841
74855SOL    HW126462   6.172   3.282   8.794
74855SOL    HW226463   6.270   3.242   8.903
74856SOL     OW26464  10.189  12.761   1.277
74856SOL    HW126465  10.250  12.817   1.230
74856SOL    HW226466  10.238  12.732   1.354
74857SOL     OW26467   7.773  10.283   1.890
74857SOL    HW126468   7.807  10.303   1.977
74857SOL    HW226469   7.844  10.237   1.846
74858SOL     OW26470   2.320  14.804  12.999
74858SOL    HW126471   2.377  14.801  13.076
74858SOL    HW226472   2.271  14.722  13.002
74859SOL     OW26473   1.710   5.329   6.507
74859SOL    HW126474   1.665   5.342   6.590
74859SOL    HW226475   1.759   5.247   6.519
74860SOL     OW26476  10.659   6.476  14.374
74860SOL    HW126477  10.601   6.550  14.393
74860SOL    HW226478  10.651   6.419  14.450
74861SOL     OW26479   1.770   1.870  10.439
74861SOL    HW126480   1.807   1.783  10.452
74861SOL    HW226481   1.807   1.923  10.510
74862SOL     OW26482  12.717  12.554   9.856
74862SOL    HW126483  12.751  12.563   9.767
74862SOL    HW226484  12.648  12.488   9.848
74863SOL     OW26485  12.241   5.371   5.666
74863SOL    HW126486  12.310   5.365   5.600
74863SOL    HW226487  12.164   5.333   5.624
74864SOL     OW26488   0.178   8.677   0.311
74864SOL    HW126489   0.147   8.611   0.250
74864SOL    HW226490   0.103   8.694   0.369
74865SOL     OW26491   5.411   5.958  11.195
74865SOL    HW126492   5.487   6.014  11.212
74865SOL    HW226493   5.411   5.946  11.100
74866SOL     OW26494   5.391   3.364   4.157
74866SOL    HW126495   5.316   3.395   4.107
74866SOL    HW226496   5.460   3.352   4.092
74867SOL     OW26497   8.892   7.200   3.833
74867SOL    HW126498   8.888   7.141   3.758
74867SOL    HW226499   8.809   7.246   3.832
74868SOL     OW26500   6.445  13.571   7.993
74868SOL    HW126501   6.476  13.572   7.902
74868SOL    HW226502   6.524  13.581   8.045
74869SOL     OW26503   5.659   8.577   0.005
74869SOL    HW126504   5.610   8.629   0.068
74869SOL    HW226505   5.693   8.641  14.815
74870SOL     OW26506  11.945   4.382   3.493
74870SOL    HW126507  11.915   4.426   3.573
74870SOL    HW226508  11.983   4.452   3.440
74871SOL     OW26509   3.061  14.199   7.697
74871SOL    HW126510   3.103  14.282   7.673
74871SOL    HW226511   3.060  14.199   7.793
74872SOL     OW26512  13.693  10.285   9.443
74872SOL    HW126513  13.646  10.267   9.362
74872SOL    HW226514  13.785  10.286   9.419
74873SOL     OW26515  12.220   1.602  10.233
74873SOL    HW126516  12.174   1.555  10.164
74873SOL    HW226517  12.154   1.620  10.299
74874SOL     OW26518   4.380   2.319  14.462
74874SOL    HW126519   4.369   2.341  14.555
74874SOL    HW226520   4.467   2.354  14.440
74875SOL     OW26521  13.050   8.354   6.953
74875SOL    HW126522  12.959   8.362   6.981
74875SOL    HW226523  13.089   8.438   6.976
74876SOL     OW26524  11.587   6.632   3.425
74876SOL    HW126525  11.577   6.648   3.331
74876SOL    HW226526  11.532   6.698   3.467
74877SOL     OW26527   2.790   5.791  13.642
74877SOL    HW126528   2.846   5.855  13.685
74877SOL    HW226529   2.748   5.743  13.714
74878SOL     OW26530  11.294   7.116  10.836
74878SOL    HW126531  11.315   7.130  10.928
74878SOL    HW226532  11.200   7.099  10.835
74879SOL     OW26533  13.654   3.113   1.010
74879SOL    HW126534  13.719   3.117   1.080
74879SOL    HW226535  13.578   3.069   1.050
74880SOL     OW26536  10.881   0.701   8.517
74880SOL    HW126537  10.787   0.720   8.515
74880SOL    HW226538  10.922   0.784   8.543
74881SOL     OW26539   2.318  11.477   3.919
74881SOL    HW126540   2.294  11.549   3.861
74881SOL    HW226541   2.378  11.515   3.982
74882SOL     OW26542   2.702  10.267   3.818
74882SOL    HW126543   2.667  10.191   3.772
74882SOL    HW226544   2.644  10.339   3.793
74883SOL     OW26545   8.171   5.061   3.272
74883SOL    HW126546   8.235   5.119   3.231
74883SOL    HW226547   8.173   4.981   3.220
74884SOL     OW26548  13.220   2.916   2.205
74884SOL    HW126549  13.189   2.855   2.138
74884SOL    HW226550  13.313   2.927   2.185
74885SOL     OW26551   1.693  11.148   9.733
74885SOL    HW126552   1.702  11.116   9.643
74885SOL    HW226553   1.738  11.233   9.733
74886SOL     OW26554  14.739  12.765   7.845
74886SOL    HW126555  14.664  12.709   7.823
74886SOL    HW226556  14.810  12.731   7.790
74887SOL     OW26557  10.345  11.595   5.495
74887SOL    HW126558  10.372  11.680   5.462
74887SOL    HW226559  10.275  11.566   5.436
74888SOL     OW26560  10.890  10.918   7.960
74888SOL    HW126561  10.873  11.012   7.966
74888SOL    HW226562  10.868  10.895   7.870
74889SOL     OW26563   1.034   2.616   1.624
74889SOL    HW126564   1.106   2.576   1.673
74889SOL    HW226565   1.073   2.642   1.541
74890SOL     OW26566   3.068   2.073  11.638
74890SOL    HW126567   3.123   2.061  11.561
74890SOL    HW226568   3.129   2.065  11.712
74891SOL     OW26569   2.823   4.038  13.628
74891SOL    HW126570   2.739   4.028  13.672
74891SOL    HW226571   2.852   3.949  13.609
74892SOL     OW26572   7.087   7.848   9.951
74892SOL    HW126573   7.097   7.935   9.914
74892SOL    HW226574   7.048   7.796   9.880
74893SOL     OW26575   5.966   4.918  10.575
74893SOL    HW126576   5.968   4.828  10.608
74893SOL    HW226577   5.873   4.938  10.563
74894SOL     OW26578  13.397   9.803   7.196
74894SOL    HW126579  13.361   9.735   7.252
74894SOL    HW226580  13.408   9.879   7.254
74895SOL     OW26581   8.843   9.345   2.577
74895SOL    HW126582   8.753   9.371   2.596
74895SOL    HW226583   8.895   9.421   2.603
74896SOL     OW26584   0.240   4.693   9.546
74896SOL    HW126585   0.178   4.756   9.510
74896SOL    HW226586   0.240   4.711   9.640
74897SOL     OW26587   0.308  12.568   2.964
74897SOL    HW126588   0.250  12.570   2.888
74897SOL    HW226589   0.383  12.622   2.939
74898SOL     OW26590  13.477   8.226   5.209
74898SOL    HW126591  13.520   8.243   5.293
74898SOL    HW226592  13.525   8.152   5.172
74899SOL     OW26593   2.935  12.215   8.306
74899SOL    HW126594   2.893  12.260   8.380
74899SOL    HW226595   2.959  12.286   8.246
74900SOL     OW26596   5.316   8.244   7.801
74900SOL    HW126597   5.358   8.163   7.831
74900SOL    HW226598   5.222   8.225   7.804
74901SOL     OW26599   9.381  14.730  13.863
74901SOL    HW126600   9.344  14.803  13.911
74901SOL    HW226601   9.323  14.656  13.883
74902SOL     OW26602   7.331  10.067   8.595
74902SOL    HW126603   7.316  10.162   8.587
74902SOL    HW226604   7.426  10.059   8.606
74903SOL     OW26605   5.919   0.368   4.581
74903SOL    HW126606   5.838   0.396   4.622
74903SOL    HW226607   5.938   0.435   4.515
74904SOL     OW26608  11.834  10.956   8.603
74904SOL    HW126609  11.769  11.000   8.547
74904SOL    HW226610  11.781  10.904   8.664
74905SOL     OW26611   6.269  12.510  10.938
74905SOL    HW126612   6.192  12.473  10.983
74905SOL    HW226613   6.243  12.514  10.846
74906SOL     OW26614   6.311  12.966  12.378
74906SOL    HW126615   6.309  12.912  12.457
74906SOL    HW226616   6.374  13.035  12.398
74907SOL     OW26617  12.127  13.040  13.664
74907SOL    HW126618  12.150  12.997  13.746
74907SOL    HW226619  12.059  13.102  13.688
74908SOL     OW26620   1.029  11.198  12.901
74908SOL    HW126621   1.052  11.279  12.856
74908SOL    HW226622   1.051  11.215  12.993
74909SOL     OW26623  11.251   5.120  12.479
74909SOL    HW126624  11.334   5.073  12.481
74909SOL    HW226625  11.268   5.195  12.422
74910SOL     OW26626  11.443   9.841   6.244
74910SOL    HW126627  11.411   9.764   6.290
74910SOL    HW226628  11.365   9.894   6.226
74911SOL     OW26629  13.155   2.195  13.829
74911SOL    HW126630  13.182   2.210  13.920
74911SOL    HW226631  13.074   2.145  13.836
74912SOL     OW26632   7.068   1.552   6.111
74912SOL    HW126633   7.122   1.618   6.068
74912SOL    HW226634   6.993   1.541   6.053
74913SOL     OW26635   0.238   0.181  13.798
74913SOL    HW126636   0.224   0.256  13.857
74913SOL    HW226637   0.322   0.144  13.825
74914SOL     OW26638   9.343   5.107  10.152
74914SOL    HW126639   9.252   5.121  10.178
74914SOL    HW226640   9.338   5.065  10.066
74915SOL     OW26641   3.043   5.459   6.744
74915SOL    HW126642   3.076   5.523   6.807
74915SOL    HW226643   3.117   5.442   6.686
74916SOL     OW26644   3.637   2.264   9.861
74916SOL    HW126645   3.652   2.331   9.928
74916SOL    HW226646   3.566   2.211   9.897
74917SOL     OW26647   3.399   3.690  12.553
74917SOL    HW126648   3.367   3.685  12.463
74917SOL    HW226649   3.372   3.777  12.583
74918SOL     OW26650   8.442   0.305   4.404
74918SOL    HW126651   8.425   0.329   4.495
74918SOL    HW226652   8.522   0.252   4.408
74919SOL     OW26653   8.682  14.848   3.584
74919SOL    HW126654   8.731   0.058   3.592
74919SOL    HW226655   8.625  14.847   3.661
74920SOL     OW26656  14.719   3.827   3.940
74920SOL    HW126657  14.798   3.789   3.979
74920SOL    HW226658  14.647   3.783   3.985
74921SOL     OW26659   8.958   1.715  11.728
74921SOL    HW126660   8.989   1.759  11.808
74921SOL    HW226661   8.998   1.629  11.731
74922SOL     OW26662   6.890   0.218  12.077
74922SOL    HW126663   6.862   0.159  12.006
74922SOL    HW226664   6.965   0.265  12.041
74923SOL     OW26665   0.710   2.379   2.031
74923SOL    HW126666   0.692   2.349   1.942
74923SOL    HW226667   0.776   2.447   2.020
74924SOL     OW26668   9.082   0.987   6.416
74924SOL    HW126669   9.007   1.035   6.451
74924SOL    HW226670   9.065   0.980   6.322
74925SOL     OW26671   3.376  14.263  11.611
74925SOL    HW126672   3.399  14.350  11.644
74925SOL    HW226673   3.458  14.214  11.612
74926SOL     OW26674  11.762  10.928  10.216
74926SOL    HW126675  11.717  10.850  10.250
74926SOL    HW226676  11.843  10.934  10.266
74927SOL     OW26677   0.395  14.617  12.210
74927SOL    HW126678   0.366  14.584  12.125
74927SOL    HW226679   0.372  14.548  12.272
74928SOL     OW26680   9.527   5.115   9.286
74928SOL    HW126681   9.446   5.133   9.239
74928SOL    HW226682   9.508   5.035   9.335
74929SOL     OW26683  13.107  12.920   4.597
74929SOL    HW126684  13.106  12.840   4.545
74929SOL    HW226685  13.147  12.986   4.540
74930SOL     OW26686   9.496   8.934  10.529
74930SOL    HW126687   9.559   8.999  10.499
74930SOL    HW226688   9.488   8.948  10.623
74931SOL     OW26689  11.312   6.426   1.989
74931SOL    HW126690  11.251   6.352   1.994
74931SOL    HW226691  11.365   6.419   2.068
74932SOL     OW26692   0.109   8.222  10.423
74932SOL    HW126693   0.177   8.155  10.429
74932SOL    HW226694   0.101   8.256  10.512
74933SOL     OW26695  14.616  12.414   8.428
74933SOL    HW126696  14.611  12.510   8.434
74933SOL    HW226697  14.552  12.392   8.360
74934SOL     OW26698   2.796  11.269   2.174
74934SOL    HW126699   2.711  11.311   2.172
74934SOL    HW226700   2.791  11.207   2.247
74935SOL     OW26701   9.710   2.126  14.818
74935SOL    HW126702   9.774   2.129   0.017
74935SOL    HW226703   9.628   2.156  14.858
74936SOL     OW26704  11.165   8.384   4.398
74936SOL    HW126705  11.144   8.312   4.339
74936SOL    HW226706  11.094   8.448   4.383
74937SOL     OW26707   7.758   8.425   7.890
74937SOL    HW126708   7.788   8.503   7.936
74937SOL    HW226709   7.809   8.354   7.928
74938SOL     OW26710  11.172   6.007   6.620
74938SOL    HW126711  11.210   5.985   6.536
74938SOL    HW226712  11.078   6.014   6.603
74939SOL     OW26713  11.927   8.646  12.682
74939SOL    HW126714  12.005   8.686  12.644
74939SOL    HW226715  11.960   8.574  12.735
74940SOL     OW26716   9.868   7.780  10.857
74940SOL    HW126717   9.835   7.870  10.848
74940SOL    HW226718   9.790   7.726  10.846
74941SOL     OW26719   4.376   1.722   8.015
74941SOL    HW126720   4.454   1.699   7.964
74941SOL    HW226721   4.410   1.765   8.093
74942SOL     OW26722   3.332  13.180   2.844
74942SOL    HW126723   3.273  13.244   2.883
74942SOL    HW226724   3.313  13.182   2.751
74943SOL     OW26725   4.493   4.074   4.750
74943SOL    HW126726   4.423   4.048   4.810
74943SOL    HW226727   4.490   4.170   4.751
74944SOL     OW26728   0.324   7.141  10.961
74944SOL    HW126729   0.245   7.154  11.013
74944SOL    HW226730   0.293   7.105  10.878
74945SOL     OW26731   9.284   3.352  14.326
74945SOL    HW126732   9.277   3.432  14.274
74945SOL    HW226733   9.241   3.285  14.273
74946SOL     OW26734   5.286   6.544   4.482
74946SOL    HW126735   5.353   6.596   4.528
74946SOL    HW226736   5.323   6.456   4.479
74947SOL     OW26737  14.522   4.768   4.454
74947SOL    HW126738  14.432   4.761   4.487
74947SOL    HW226739  14.513   4.813   4.370
74948SOL     OW26740   7.100   6.564  11.354
74948SOL    HW126741   7.025   6.624  11.353
74948SOL    HW226742   7.172   6.617  11.389
74949SOL     OW26743  12.031   4.588   3.350
74949SOL    HW126744  12.074   4.646   3.287
74949SOL    HW226745  11.969   4.645   3.395
74950SOL     OW26746   1.028   5.623   1.482
74950SOL    HW126747   0.974   5.557   1.439
74950SOL    HW226748   1.027   5.697   1.421
74951SOL     OW26749   1.767   6.800   4.035
74951SOL    HW126750   1.857   6.787   4.063
74951SOL    HW226751   1.765   6.890   4.001
74952SOL     OW26752  14.854   9.725   5.171
74952SOL    HW126753  14.785   9.686   5.118
74952SOL    HW226754  14.852   9.676   5.253
74953SOL     OW26755   8.752   9.055  10.736
74953SOL    HW126756   8.825   9.036  10.677
74953SOL    HW226757   8.717   8.969  10.758
74954SOL     OW26758   6.189   0.932   3.363
74954SOL    HW126759   6.132   0.999   3.325
74954SOL    HW226760   6.248   0.907   3.291
74955SOL     OW26761  13.831   8.703  12.935
74955SOL    HW126762  13.787   8.756  13.002
74955SOL    HW226763  13.775   8.711  12.858
74956SOL     OW26764   9.154  12.400   4.381
74956SOL    HW126765   9.132  12.483   4.338
74956SOL    HW226766   9.211  12.424   4.454
74957SOL     OW26767   7.829   6.003  10.779
74957SOL    HW126768   7.907   5.952  10.757
74957SOL    HW226769   7.836   6.082  10.726
74958SOL     OW26770  10.725  10.068   5.515
74958SOL    HW126771  10.745  10.049   5.606
74958SOL    HW226772  10.691   9.985   5.480
74959SOL     OW26773   5.511   9.636   9.884
74959SOL    HW126774   5.436   9.632   9.944
74959SOL    HW226775   5.526   9.545   9.858
74960SOL     OW26776   0.276   9.501  14.025
74960SOL    HW126777   0.213   9.452  14.078
74960SOL    HW226778   0.337   9.434  13.993
74961SOL     OW26779  12.068   0.395   8.921
74961SOL    HW126780  12.109   0.476   8.893
74961SOL    HW226781  12.141   0.335   8.937
74962SOL     OW26782   1.063   8.355   9.078
74962SOL    HW126783   1.158   8.351   9.078
74962SOL    HW226784   1.038   8.351   9.171
74963SOL     OW26785  14.382   9.233  13.133
74963SOL    HW126786  14.430   9.211  13.213
74963SOL    HW226787  14.436   9.196  13.063
74964SOL     OW26788   1.763  11.782   4.390
74964SOL    HW126789   1.766  11.763   4.296
74964SOL    HW226790   1.844  11.742   4.424
74965SOL     OW26791   0.381   4.862  14.833
74965SOL    HW126792   0.376   4.768  14.815
74965SOL    HW226793   0.472   4.886  14.817
74966SOL     OW26794   2.067   1.139   4.426
74966SOL    HW126795   1.987   1.120   4.476
74966SOL    HW226796   2.037   1.189   4.350
74967SOL     OW26797   7.755   8.460  13.426
74967SOL    HW126798   7.820   8.480  13.359
74967SOL    HW226799   7.682   8.420  13.378
74968SOL     OW26800   6.846  11.110  13.730
74968SOL    HW126801   6.786  11.066  13.790
74968SOL    HW226802   6.881  11.183  13.780
74969SOL     OW26803   3.781   7.108  10.649
74969SOL    HW126804   3.875   7.124  10.660
74969SOL    HW226805   3.757   7.159  10.571
74970SOL     OW26806   9.914   8.224   4.173
74970SOL    HW126807   9.861   8.303   4.180
74970SOL    HW226808   9.954   8.214   4.260
74971SOL     OW26809  10.519   0.720   5.605
74971SOL    HW126810  10.437   0.718   5.557
74971SOL    HW226811  10.584   0.688   5.542
74972SOL     OW26812  11.023   2.772  14.178
74972SOL    HW126813  10.975   2.782  14.260
74972SOL    HW226814  11.115   2.782  14.203
74973SOL     OW26815   1.959  10.197   8.636
74973SOL    HW126816   1.927  10.276   8.592
74973SOL    HW226817   2.048  10.185   8.603
74974SOL     OW26818   4.973   1.991   9.891
74974SOL    HW126819   5.042   2.048   9.925
74974SOL    HW226820   4.924   1.964   9.969
74975SOL     OW26821   8.584  11.568   8.478
74975SOL    HW126822   8.606  11.579   8.386
74975SOL    HW226823   8.576  11.474   8.491
74976SOL     OW26824  10.509   4.949   5.463
74976SOL    HW126825  10.603   4.963   5.455
74976SOL    HW226826  10.500   4.858   5.491
74977SOL     OW26827  12.706   6.237  10.255
74977SOL    HW126828  12.618   6.261  10.226
74977SOL    HW226829  12.698   6.226  10.350
74978SOL     OW26830  12.541   3.584  14.490
74978SOL    HW126831  12.532   3.668  14.446
74978SOL    HW226832  12.529   3.603  14.583
74979SOL     OW26833  11.064   3.032  10.216
74979SOL    HW126834  11.142   3.083  10.236
74979SOL    HW226835  11.042   2.988  10.299
74980SOL     OW26836   2.428   3.823   9.456
74980SOL    HW126837   2.390   3.774   9.383
74980SOL    HW226838   2.366   3.814   9.527
74981SOL     OW26839  14.736  13.354  10.270
74981SOL    HW126840  14.721  13.285  10.206
74981SOL    HW226841  14.826  13.383  10.255
74982SOL     OW26842  14.121   3.708   2.749
74982SOL    HW126843  14.047   3.721   2.690
74982SOL    HW226844  14.192   3.761   2.712
74983SOL     OW26845  10.356   1.440   6.034
74983SOL    HW126846  10.374   1.399   6.119
74983SOL    HW226847  10.357   1.368   5.972
74984SOL     OW26848  10.906   5.533   1.575
74984SOL    HW126849  10.982   5.489   1.613
74984SOL    HW226850  10.943   5.608   1.529
74985SOL     OW26851   2.358  12.196   9.795
74985SOL    HW126852   2.304  12.274   9.778
74985SOL    HW226853   2.407  12.182   9.714
74986SOL     OW26854  10.344  12.659   5.954
74986SOL    HW126855  10.381  12.725   6.013
74986SOL    HW226856  10.364  12.575   5.995
74987SOL     OW26857   1.287  12.758  12.056
74987SOL    HW126858   1.269  12.815  12.131
74987SOL    HW226859   1.253  12.806  11.980
74988SOL     OW26860  13.070   2.295   6.383
74988SOL    HW126861  13.089   2.340   6.301
74988SOL    HW226862  13.015   2.221   6.357
74989SOL     OW26863  11.773   7.338   0.647
74989SOL    HW126864  11.855   7.295   0.623
74989SOL    HW226865  11.705   7.288   0.601
74990SOL     OW26866   0.686  10.360  13.531
74990SOL    HW126867   0.679  10.368  13.436
74990SOL    HW226868   0.737  10.281  13.545
74991SOL     OW26869   1.803  11.558   2.247
74991SOL    HW126870   1.843  11.645   2.253
74991SOL    HW226871   1.729  11.570   2.187
74992SOL     OW26872   9.711  10.754  13.386
74992SOL    HW126873   9.748  10.831  13.429
74992SOL    HW226874   9.785  10.693  13.378
74993SOL     OW26875   1.815  10.234  13.515
74993SOL    HW126876   1.892  10.191  13.552
74993SOL    HW226877   1.828  10.229  13.421
74994SOL     OW26878   4.720   4.160   0.600
74994SOL    HW126879   4.667   4.130   0.673
74994SOL    HW226880   4.697   4.253   0.591
74995SOL     OW26881  11.745   1.862   1.499
74995SOL    HW126882  11.712   1.806   1.570
74995SOL    HW226883  11.776   1.941   1.543
74996SOL     OW26884   0.220   0.967   6.191
74996SOL    HW126885   0.187   0.901   6.130
74996SOL    HW226886   0.196   0.935   6.278
74997SOL     OW26887   1.828   1.338  11.417
74997SOL    HW126888   1.889   1.264  11.422
74997SOL    HW226889   1.880   1.413  11.446
74998SOL     OW26890   3.623  12.646   2.798
74998SOL    HW126891   3.712  12.681   2.789
74998SOL    HW226892   3.619  12.614   2.887
74999SOL     OW26893  10.806  13.385  14.351
74999SOL    HW126894  10.792  13.296  14.385
74999SOL    HW226895  10.855  13.372  14.271
75000SOL     OW26896  11.495   4.312  10.183
75000SOL    HW126897  11.519   4.248  10.249
75000SOL    HW226898  11.578   4.353  10.158
75001SOL     OW26899   9.021   6.104   0.938
75001SOL    HW126900   9.045   6.196   0.944
75001SOL    HW226901   8.996   6.092   0.847
75002SOL     OW26902   8.834   5.324  10.548
75002SOL    HW126903   8.842   5.304  10.642
75002SOL    HW226904   8.740   5.320  10.532
75003SOL     OW26905  13.464   8.838  11.063
75003SOL    HW126906  13.376   8.806  11.043
75003SOL    HW226907  13.468   8.925  11.024
75004SOL     OW26908  13.041   7.276   8.168
75004SOL    HW126909  12.981   7.341   8.129
75004SOL    HW226910  12.984   7.202   8.190
75005SOL     OW26911  13.364   5.695  10.253
75005SOL    HW126912  13.268   5.690  10.248
75005SOL    HW226913  13.389   5.618  10.305
75006SOL     OW26914   1.207   2.708  10.741
75006SOL    HW126915   1.200   2.613  10.734
75006SOL    HW226916   1.191   2.726  10.833
75007SOL     OW26917   7.291  11.802   9.659
75007SOL    HW126918   7.353  11.874   9.674
75007SOL    HW226919   7.306  11.743   9.733
75008SOL     OW26920   0.265  12.114   0.306
75008SOL    HW126921   0.294  12.166   0.381
75008SOL    HW226922   0.247  12.177   0.238
75009SOL     OW26923   2.152  12.161  13.602
75009SOL    HW126924   2.089  12.185  13.535
75009SOL    HW226925   2.112  12.192  13.684
75010SOL     OW26926   0.137   8.702  13.987
75010SOL    HW126927   0.201   8.766  14.017
75010SOL    HW226928   0.181   8.654  13.917
75011SOL     OW26929  11.808   2.409  13.478
75011SOL    HW126930  11.846   2.355  13.548
75011SOL    HW226931  11.763   2.347  13.421
75012SOL     OW26932   0.573   9.119   2.491
75012SOL    HW126933   0.592   9.212   2.498
75012SOL    HW226934   0.485   9.110   2.526
75013SOL     OW26935  13.233  12.158  11.836
75013SOL    HW126936  13.215  12.192  11.924
75013SOL    HW226937  13.147  12.132  11.803
75014SOL     OW26938   5.288   5.120   7.469
75014SOL    HW126939   5.210   5.103   7.521
75014SOL    HW226940   5.281   5.212   7.444
75015SOL     OW26941   5.249  13.549  13.275
75015SOL    HW126942   5.168  13.507  13.246
75015SOL    HW226943   5.256  13.628  13.220
75016SOL     OW26944  10.692  13.380   8.622
75016SOL    HW126945  10.621  13.316   8.629
75016SOL    HW226946  10.768  13.336   8.659
75017SOL     OW26947  13.556   6.999   1.296
75017SOL    HW126948  13.594   7.009   1.383
75017SOL    HW226949  13.587   6.913   1.267
75018SOL     OW26950   2.627   4.156   0.661
75018SOL    HW126951   2.672   4.240   0.652
75018SOL    HW226952   2.672   4.098   0.599
75019SOL     OW26953   1.768   5.215   7.682
75019SOL    HW126954   1.832   5.210   7.611
75019SOL    HW226955   1.821   5.223   7.761
75020SOL     OW26956   5.931   8.094  11.842
75020SOL    HW126957   5.968   8.166  11.791
75020SOL    HW226958   5.879   8.045  11.779
75021SOL     OW26959   2.015  14.486   7.065
75021SOL    HW126960   2.037  14.577   7.048
75021SOL    HW226961   2.073  14.460   7.137
75022SOL     OW26962   4.004   7.242   7.004
75022SOL    HW126963   4.000   7.321   6.951
75022SOL    HW226964   4.044   7.176   6.947
75023SOL     OW26965  12.994   9.062  13.951
75023SOL    HW126966  12.954   9.125  13.891
75023SOL    HW226967  13.076   9.103  13.978
75024SOL     OW26968   4.284   0.278   8.909
75024SOL    HW126969   4.276   0.265   8.815
75024SOL    HW226970   4.215   0.224   8.947
75025SOL     OW26971  12.803  11.065   2.140
75025SOL    HW126972  12.830  11.017   2.062
75025SOL    HW226973  12.885  11.096   2.179
75026SOL     OW26974  10.842   9.116   6.291
75026SOL    HW126975  10.901   9.062   6.239
75026SOL    HW226976  10.873   9.206   6.276
75027SOL     OW26977   2.804   9.697   9.306
75027SOL    HW126978   2.776   9.770   9.251
75027SOL    HW226979   2.840   9.632   9.245
75028SOL     OW26980   3.328   9.394   9.313
75028SOL    HW126981   3.352   9.387   9.221
75028SOL    HW226982   3.298   9.307   9.337
75029SOL     OW26983   6.952   5.353  11.098
75029SOL    HW126984   6.889   5.282  11.111
75029SOL    HW226985   6.949   5.371  11.004
75030SOL     OW26986  11.491   9.026   9.566
75030SOL    HW126987  11.458   9.102   9.518
75030SOL    HW226988  11.452   9.034   9.653
75031SOL     OW26989   3.459   7.224   8.970
75031SOL    HW126990   3.459   7.263   8.883
75031SOL    HW226991   3.471   7.298   9.029
75032SOL     OW26992   4.663   9.891   1.973
75032SOL    HW126993   4.626   9.903   2.061
75032SOL    HW226994   4.620   9.812   1.940
75033SOL     OW26995   4.358   2.524   9.106
75033SOL    HW126996   4.388   2.457   9.168
75033SOL    HW226997   4.372   2.485   9.020
75034SOL     OW26998   3.645   8.447  11.157
75034SOL    HW126999   3.738   8.446  11.179
75034SOL    HW227000   3.615   8.535  11.179
75035SOL     OW27001   1.903   2.715   8.041
75035SOL    HW127002   1.966   2.646   8.020
75035SOL    HW227003   1.928   2.744   8.129
75036SOL     OW27004   6.113   9.706  12.014
75036SOL    HW127005   6.059   9.771  12.060
75036SOL    HW227006   6.049   9.652  11.967
75037SOL     OW27007   7.985   8.752   6.523
75037SOL    HW127008   8.070   8.773   6.484
75037SOL    HW227009   8.005   8.735   6.615
75038SOL     OW27010  11.956   5.951  13.755
75038SOL    HW127011  11.965   5.935  13.662
75038SOL    HW227012  11.900   5.881  13.787
75039SOL     OW27013  12.457  11.064   0.188
75039SOL    HW127014  12.457  10.977   0.149
75039SOL    HW227015  12.419  11.121   0.121
75040SOL     OW27016   6.232  13.891   0.875
75040SOL    HW127017   6.144  13.915   0.845
75040SOL    HW227018   6.217  13.818   0.936
75041SOL     OW27019   3.567   7.041   3.465
75041SOL    HW127020   3.554   6.960   3.417
75041SOL    HW227021   3.662   7.052   3.470
75042SOL     OW27022   3.676   6.673   5.398
75042SOL    HW127023   3.762   6.631   5.405
75042SOL    HW227024   3.673   6.706   5.308
75043SOL     OW27025  10.820   0.051   8.573
75043SOL    HW127026  10.738   0.006   8.595
75043SOL    HW227027  10.792   0.139   8.549
75044SOL     OW27028   1.919   0.283   5.790
75044SOL    HW127029   1.857   0.210   5.795
75044SOL    HW227030   1.868   0.360   5.815
75045SOL     OW27031   1.146   5.971   0.221
75045SOL    HW127032   1.220   6.012   0.177
75045SOL    HW227033   1.127   5.893   0.168
75046SOL     OW27034   0.531  14.184   0.250
75046SOL    HW127035   0.521  14.199   0.344
75046SOL    HW227036   0.557  14.269   0.214
75047SOL     OW27037   0.998   2.857   2.842
75047SOL    HW127038   0.969   2.777   2.885
75047SOL    HW227039   1.086   2.872   2.876
75048SOL     OW27040   4.597   7.777   0.183
75048SOL    HW127041   4.663   7.789   0.116
75048SOL    HW227042   4.522   7.739   0.137
75049SOL     OW27043  14.806   9.442   8.303
75049SOL    HW127044  14.715   9.413   8.294
75049SOL    HW227045  14.851   9.408   8.226
75050SOL     OW27046   8.937   0.724   2.411
75050SOL    HW127047   8.858   0.671   2.403
75050SOL    HW227048   8.959   0.749   2.321
75051SOL     OW27049   5.183  13.155   0.719
75051SOL    HW127050   5.199  13.062   0.703
75051SOL    HW227051   5.119  13.157   0.791
75052SOL     OW27052  12.510  12.490   8.813
75052SOL    HW127053  12.451  12.553   8.855
75052SOL    HW227054  12.559  12.541   8.750
75053SOL     OW27055   3.778  11.731  12.595
75053SOL    HW127056   3.735  11.647  12.579
75053SOL    HW227057   3.719  11.777  12.655
75054SOL     OW27058   8.977   9.586  11.012
75054SOL    HW127059   8.892   9.615  11.043
75054SOL    HW227060   9.040   9.647  11.053
75055SOL     OW27061  11.284   6.904  14.850
75055SOL    HW127062  11.305   6.810  14.855
75055SOL    HW227063  11.189   6.907  14.861
75056SOL     OW27064   7.674  13.610  13.928
75056SOL    HW127065   7.654  13.634  14.018
75056SOL    HW227066   7.591  13.622  13.881
75057SOL     OW27067  10.202   4.554   5.693
75057SOL    HW127068  10.266   4.483   5.688
75057SOL    HW227069  10.169   4.549   5.783
75058SOL     OW27070   5.658   8.423   9.115
75058SOL    HW127071   5.708   8.463   9.186
75058SOL    HW227072   5.566   8.434   9.140
75059SOL     OW27073  10.224   8.351  13.004
75059SOL    HW127074  10.152   8.408  13.031
75059SOL    HW227075  10.303   8.397  13.034
75060SOL     OW27076   5.785  14.210   3.085
75060SOL    HW127077   5.874  14.244   3.077
75060SOL    HW227078   5.765  14.173   3.000
75061SOL     OW27079   6.886   7.698  11.814
75061SOL    HW127080   6.921   7.613  11.789
75061SOL    HW227081   6.865   7.689  11.907
75062SOL     OW27082   1.603   0.644   5.121
75062SOL    HW127083   1.579   0.562   5.077
75062SOL    HW227084   1.653   0.692   5.055
75063SOL     OW27085   9.581   3.570   2.288
75063SOL    HW127086   9.505   3.627   2.277
75063SOL    HW227087   9.553   3.486   2.252
75064SOL     OW27088  12.978   8.579   5.493
75064SOL    HW127089  12.990   8.605   5.401
75064SOL    HW227090  12.950   8.488   5.489
75065SOL     OW27091   6.876   9.989  14.389
75065SOL    HW127092   6.833  10.074  14.384
75065SOL    HW227093   6.966  10.009  14.414
75066SOL     OW27094   5.603   1.096   6.041
75066SOL    HW127095   5.694   1.096   6.012
75066SOL    HW227096   5.573   1.186   6.024
75067SOL     OW27097  13.872   2.758  10.273
75067SOL    HW127098  13.954   2.707  10.270
75067SOL    HW227099  13.899   2.844  10.305
75068SOL     OW27100  11.340  11.897   7.209
75068SOL    HW127101  11.324  11.938   7.293
75068SOL    HW227102  11.395  11.960   7.161
75069SOL     OW27103  11.059   4.300   8.119
75069SOL    HW127104  11.107   4.356   8.059
75069SOL    HW227105  10.973   4.340   8.126
75070SOL     OW27106  11.268   1.624   8.625
75070SOL    HW127107  11.334   1.693   8.634
75070SOL    HW227108  11.241   1.628   8.534
75071SOL     OW27109   3.995   7.452   9.972
75071SOL    HW127110   3.960   7.488   9.891
75071SOL    HW227111   4.081   7.418   9.948
75072SOL     OW27112  12.465   9.918   4.902
75072SOL    HW127113  12.455   9.840   4.848
75072SOL    HW227114  12.382   9.964   4.893
75073SOL     OW27115   2.095  10.657   8.184
75073SOL    HW127116   2.025  10.657   8.249
75073SOL    HW227117   2.085  10.740   8.137
75074SOL     OW27118  12.575   4.228   9.840
75074SOL    HW127119  12.585   4.139   9.805
75074SOL    HW227120  12.650   4.240   9.897
75075SOL     OW27121   9.908   7.169   9.393
75075SOL    HW127122   9.905   7.263   9.410
75075SOL    HW227123   9.955   7.133   9.468
75076SOL     OW27124  11.462   0.713   1.351
75076SOL    HW127125  11.534   0.683   1.407
75076SOL    HW227126  11.459   0.807   1.364
75077SOL     OW27127   4.928   0.492   2.211
75077SOL    HW127128   4.995   0.440   2.167
75077SOL    HW227129   4.881   0.536   2.141
75078SOL     OW27130   9.122  10.997   7.039
75078SOL    HW127131   9.098  11.081   7.077
75078SOL    HW227132   9.216  10.988   7.055
75079SOL     OW27133  14.531   8.852   8.981
75079SOL    HW127134  14.456   8.877   8.927
75079SOL    HW227135  14.555   8.932   9.027
75080SOL     OW27136  11.712   5.223   4.579
75080SOL    HW127137  11.684   5.201   4.490
75080SOL    HW227138  11.678   5.311   4.594
75081SOL     OW27139   8.091  13.362  12.599
75081SOL    HW127140   8.032  13.287  12.602
75081SOL    HW227141   8.035  13.438  12.616
75082SOL     OW27142   2.831   8.214   5.883
75082SOL    HW127143   2.789   8.273   5.945
75082SOL    HW227144   2.790   8.235   5.799
75083SOL     OW27145   3.947   3.074  12.296
75083SOL    HW127146   3.942   3.023  12.377
75083SOL    HW227147   3.864   3.056  12.251
75084SOL     OW27148  12.864  13.956   5.205
75084SOL    HW127149  12.793  13.952   5.268
75084SOL    HW227150  12.838  14.026   5.144
75085SOL     OW27151   0.767   0.627  10.791
75085SOL    HW127152   0.673   0.619  10.807
75085SOL    HW227153   0.806   0.557  10.844
75086SOL     OW27154   5.707  11.780   2.538
75086SOL    HW127155   5.761  11.804   2.613
75086SOL    HW227156   5.756  11.811   2.462
75087SOL     OW27157   9.916  12.958   0.637
75087SOL    HW127158   9.999  12.921   0.665
75087SOL    HW227159   9.939  13.041   0.595
75088SOL     OW27160   7.349  11.053   3.205
75088SOL    HW127161   7.326  11.068   3.297
75088SOL    HW227162   7.265  11.050   3.160
75089SOL     OW27163  11.934  13.112  13.238
75089SOL    HW127164  11.932  13.019  13.217
75089SOL    HW227165  11.964  13.154  13.157
75090SOL     OW27166   1.689   0.204   7.955
75090SOL    HW127167   1.697   0.200   8.050
75090SOL    HW227168   1.737   0.283   7.930
75091SOL     OW27169   4.771  10.228   6.214
75091SOL    HW127170   4.851  10.247   6.262
75091SOL    HW227171   4.702  10.234   6.280
75092SOL     OW27172   5.316   2.033   8.882
75092SOL    HW127173   5.328   2.061   8.973
75092SOL    HW227174   5.350   2.106   8.830
75093SOL     OW27175  13.803   3.998   1.447
75093SOL    HW127176  13.773   3.974   1.359
75093SOL    HW227177  13.726   3.984   1.502
75094SOL     OW27178   1.045   9.205   0.807
75094SOL    HW127179   1.136   9.182   0.825
75094SOL    HW227180   1.050   9.285   0.755
75095SOL     OW27181   8.857   6.612   5.904
75095SOL    HW127182   8.915   6.662   5.847
75095SOL    HW227183   8.784   6.586   5.848
75096SOL     OW27184  12.920   0.605   1.874
75096SOL    HW127185  12.978   0.609   1.950
75096SOL    HW227186  12.975   0.569   1.804
75097SOL     OW27187  11.477   0.118  14.660
75097SOL    HW127188  11.516   0.149  14.742
75097SOL    HW227189  11.509   0.180  14.594
75098SOL     OW27190  11.258  12.547   8.133
75098SOL    HW127191  11.266  12.454   8.154
75098SOL    HW227192  11.290  12.554   8.043
75099SOL     OW27193   0.185  10.364   9.281
75099SOL    HW127194   0.190  10.285   9.334
75099SOL    HW227195   0.112  10.414   9.317
75100SOL     OW27196   1.816   2.417   9.801
75100SOL    HW127197   1.774   2.464   9.729
75100SOL    HW227198   1.749   2.358   9.835
75101SOL     OW27199  13.208   3.232  10.100
75101SOL    HW127200  13.147   3.240  10.027
75101SOL    HW227201  13.248   3.145  10.089
75102SOL     OW27202   9.320   2.790   6.553
75102SOL    HW127203   9.249   2.735   6.520
75102SOL    HW227204   9.363   2.822   6.473
75103SOL     OW27205   1.172   8.244  10.906
75103SOL    HW127206   1.144   8.156  10.881
75103SOL    HW227207   1.251   8.231  10.958
75104SOL     OW27208   3.300   6.438   3.306
75104SOL    HW127209   3.244   6.377   3.353
75104SOL    HW227210   3.303   6.404   3.216
75105SOL     OW27211   3.105   3.977   0.563
75105SOL    HW127212   3.167   3.988   0.491
75105SOL    HW227213   3.097   3.882   0.573
75106SOL     OW27214   0.867   7.546   5.673
75106SOL    HW127215   0.826   7.532   5.587
75106SOL    HW227216   0.802   7.597   5.722
75107SOL     OW27217   6.182  14.547  11.017
75107SOL    HW127218   6.110  14.584  10.966
75107SOL    HW227219   6.181  14.596  11.099
75108SOL     OW27220   3.214   0.605  12.461
75108SOL    HW127221   3.234   0.659  12.537
75108SOL    HW227222   3.240   0.658  12.385
75109SOL     OW27223  11.855   5.169  10.920
75109SOL    HW127224  11.933   5.222  10.935
75109SOL    HW227225  11.782   5.231  10.924
75110SOL     OW27226   5.925   4.000  10.432
75110SOL    HW127227   5.885   4.080  10.396
75110SOL    HW227228   6.007   4.029  10.470
75111SOL     OW27229  10.923  10.320   2.223
75111SOL    HW127230  10.900  10.231   2.248
75111SOL    HW227231  10.962  10.311   2.135
75112SOL     OW27232   0.033   6.009   7.095
75112SOL    HW127233  14.813   5.984   7.093
75112SOL    HW227234   0.079   5.929   7.120
75113SOL     OW27235   4.179   9.867   8.427
75113SOL    HW127236   4.248   9.932   8.442
75113SOL    HW227237   4.214   9.786   8.464
75114SOL     OW27238   3.947   0.973   9.573
75114SOL    HW127239   3.971   1.050   9.522
75114SOL    HW227240   3.897   0.919   9.513
75115SOL     OW27241   4.215  13.862   6.098
75115SOL    HW127242   4.191  13.817   6.017
75115SOL    HW227243   4.235  13.791   6.160
75116SOL     OW27244   3.066   7.145  10.861
75116SOL    HW127245   3.110   7.212  10.810
75116SOL    HW227246   2.979   7.181  10.879
75117SOL     OW27247  11.135   5.271   2.205
75117SOL    HW127248  11.081   5.348   2.219
75117SOL    HW227249  11.224   5.301   2.222
75118SOL     OW27250  14.552   3.445  10.828
75118SOL    HW127251  14.630   3.485  10.866
75118SOL    HW227252  14.561   3.352  10.849
75119SOL     OW27253  13.972  13.603   3.651
75119SOL    HW127254  13.956  13.558   3.568
75119SOL    HW227255  14.062  13.636   3.644
75120SOL     OW27256   8.898   0.863  11.724
75120SOL    HW127257   8.971   0.919  11.698
75120SOL    HW227258   8.840   0.920  11.774
75121SOL     OW27259   2.759  14.291  13.168
75121SOL    HW127260   2.760  14.243  13.085
75121SOL    HW227261   2.787  14.379  13.145
75122SOL     OW27262   7.441   9.845   6.767
75122SOL    HW127263   7.352   9.878   6.766
75122SOL    HW227264   7.439   9.767   6.711
75123SOL     OW27265  11.004  14.154  11.107
75123SOL    HW127266  10.980  14.124  11.195
75123SOL    HW227267  10.979  14.247  11.106
75124SOL     OW27268   0.795  10.880  11.227
75124SOL    HW127269   0.772  10.927  11.147
75124SOL    HW227270   0.880  10.917  11.252
75125SOL     OW27271   0.619   0.475   2.928
75125SOL    HW127272   0.639   0.566   2.907
75125SOL    HW227273   0.700   0.427   2.908
75126SOL     OW27274  12.194   4.508  10.655
75126SOL    HW127275  12.216   4.515  10.562
75126SOL    HW227276  12.186   4.598  10.685
75127SOL     OW27277  14.267   3.224   9.007
75127SOL    HW127278  14.293   3.239   8.916
75127SOL    HW227279  14.222   3.139   9.005
75128SOL     OW27280   7.810   1.608  11.521
75128SOL    HW127281   7.871   1.682  11.512
75128SOL    HW227282   7.852   1.551  11.585
75129SOL     OW27283  11.485  12.695   5.086
75129SOL    HW127284  11.417  12.629   5.070
75129SOL    HW227285  11.557  12.647   5.125
75130SOL     OW27286   5.604   1.294  13.802
75130SOL    HW127287   5.586   1.336  13.886
75130SOL    HW227288   5.674   1.348  13.763
75131SOL     OW27289   7.851   0.809   4.357
75131SOL    HW127290   7.945   0.802   4.343
75131SOL    HW227291   7.831   0.901   4.338
75132SOL     OW27292   8.079  14.833   2.657
75132SOL    HW127293   8.089   0.024   2.586
75132SOL    HW227294   8.151  14.771   2.644
75133SOL     OW27295   9.673   1.404   5.044
75133SOL    HW127296   9.634   1.358   4.970
75133SOL    HW227297   9.635   1.492   5.041
75134SOL     OW27298   3.442  13.355  13.854
75134SOL    HW127299   3.380  13.310  13.797
75134SOL    HW227300   3.426  13.318  13.941
75135SOL     OW27301  11.832   3.063   8.962
75135SOL    HW127302  11.902   3.052   8.898
75135SOL    HW227303  11.876   3.060   9.047
75136SOL     OW27304   3.135  10.929   2.091
75136SOL    HW127305   3.096  10.842   2.103
75136SOL    HW227306   3.104  10.957   2.005
75137SOL     OW27307   8.648   2.251  11.637
75137SOL    HW127308   8.666   2.179  11.697
75137SOL    HW227309   8.557   2.238  11.610
75138SOL     OW27310  13.832   9.714  12.946
75138SOL    HW127311  13.757   9.659  12.922
75138SOL    HW227312  13.815   9.739  13.037
75139SOL     OW27313   7.225  14.417   8.824
75139SOL    HW127314   7.182  14.343   8.780
75139SOL    HW227315   7.288  14.377   8.883
75140SOL     OW27316   6.655   4.116  10.332
75140SOL    HW127317   6.697   4.030  10.324
75140SOL    HW227318   6.709   4.174  10.279
75141SOL     OW27319  12.774  10.558  11.908
75141SOL    HW127320  12.849  10.595  11.861
75141SOL    HW227321  12.698  10.597  11.865
75142SOL     OW27322  14.693   7.494  12.465
75142SOL    HW127323  14.632   7.519  12.534
75142SOL    HW227324  14.769   7.461  12.512
75143SOL     OW27325   8.821   8.574   8.856
75143SOL    HW127326   8.729   8.593   8.875
75143SOL    HW227327   8.870   8.620   8.923
75144SOL     OW27328   5.396   7.234   8.676
75144SOL    HW127329   5.302   7.229   8.690
75144SOL    HW227330   5.408   7.213   8.583
75145SOL     OW27331   3.430  12.195  12.278
75145SOL    HW127332   3.417  12.251  12.202
75145SOL    HW227333   3.448  12.108  12.241
75146SOL     OW27334  12.108  12.622   2.136
75146SOL    HW127335  12.039  12.646   2.197
75146SOL    HW227336  12.135  12.705   2.096
75147SOL     OW27337   1.038  11.371   5.349
75147SOL    HW127338   1.052  11.315   5.425
75147SOL    HW227339   1.105  11.440   5.357
75148SOL     OW27340  12.776   1.085  14.515
75148SOL    HW127341  12.763   1.064  14.608
75148SOL    HW227342  12.752   1.004  14.469
75149SOL     OW27343   3.413  12.912   5.920
75149SOL    HW127344   3.337  12.863   5.951
75149SOL    HW227345   3.486  12.852   5.930
75150SOL     OW27346  10.833   2.531  12.353
75150SOL    HW127347  10.849   2.618  12.317
75150SOL    HW227348  10.840   2.472  12.278
75151SOL     OW27349   8.097  14.638   5.784
75151SOL    HW127350   8.133  14.553   5.808
75151SOL    HW227351   8.082  14.682   5.868
75152SOL     OW27352  11.495   0.152   4.679
75152SOL    HW127353  11.526   0.062   4.670
75152SOL    HW227354  11.556   0.205   4.628
75153SOL     OW27355  11.211   2.829   1.361
75153SOL    HW127356  11.303   2.806   1.351
75153SOL    HW227357  11.164   2.746   1.357
75154SOL     OW27358   5.073   7.790   5.522
75154SOL    HW127359   5.113   7.877   5.522
75154SOL    HW227360   5.026   7.785   5.439
75155SOL     OW27361   1.685   6.177   9.875
75155SOL    HW127362   1.635   6.096   9.860
75155SOL    HW227363   1.620   6.247   9.870
75156SOL     OW27364   4.430  10.206   4.293
75156SOL    HW127365   4.363  10.267   4.325
75156SOL    HW227366   4.504  10.219   4.351
75157SOL     OW27367   7.210   7.623   1.368
75157SOL    HW127368   7.217   7.567   1.446
75157SOL    HW227369   7.279   7.689   1.380
75158SOL     OW27370   3.608   7.112  11.216
75158SOL    HW127371   3.544   7.059  11.264
75158SOL    HW227372   3.607   7.197  11.261
75159SOL     OW27373   3.566   9.542  11.015
75159SOL    HW127374   3.545   9.630  11.046
75159SOL    HW227375   3.660   9.533  11.030
75160SOL     OW27376   8.069   0.153   2.457
75160SOL    HW127377   8.110   0.239   2.460
75160SOL    HW227378   7.977   0.170   2.439
75161SOL     OW27379   1.230   2.661  12.409
75161SOL    HW127380   1.249   2.746  12.449
75161SOL    HW227381   1.309   2.638  12.362
75162SOL     OW27382   8.099   4.765   7.178
75162SOL    HW127383   8.079   4.842   7.125
75162SOL    HW227384   8.030   4.702   7.157
75163SOL     OW27385   1.048   9.337   2.547
75163SOL    HW127386   1.030   9.369   2.459
75163SOL    HW227387   1.141   9.315   2.547
75164SOL     OW27388   0.837   5.496   4.607
75164SOL    HW127389   0.878   5.411   4.622
75164SOL    HW227390   0.860   5.548   4.684
75165SOL     OW27391  12.277  11.518   5.058
75165SOL    HW127392  12.270  11.587   4.991
75165SOL    HW227393  12.205  11.536   5.118
75166SOL     OW27394  10.520   3.924  12.328
75166SOL    HW127395  10.576   3.875  12.268
75166SOL    HW227396  10.519   3.872  12.408
75167SOL     OW27397  14.240   1.272   5.603
75167SOL    HW127398  14.174   1.342   5.608
75167SOL    HW227399  14.305   1.306   5.541
75168SOL     OW27400  10.251   8.452  10.867
75168SOL    HW127401  10.266   8.358  10.865
75168SOL    HW227402  10.182   8.464  10.933
75169SOL     OW27403  13.865  10.727  14.574
75169SOL    HW127404  13.852  10.726  14.480
75169SOL    HW227405  13.944  10.675  14.588
75170SOL     OW27406   9.201   6.091   4.281
75170SOL    HW127407   9.171   6.103   4.191
75170SOL    HW227408   9.127   6.122   4.334
75171SOL     OW27409  12.758   2.482   0.292
75171SOL    HW127410  12.745   2.556   0.232
75171SOL    HW227411  12.711   2.410   0.251
75172SOL     OW27412  14.251   7.924  12.503
75172SOL    HW127413  14.188   7.923  12.574
75172SOL    HW227414  14.260   7.833  12.476
75173SOL     OW27415  12.074   1.141   2.958
75173SOL    HW127416  12.100   1.050   2.966
75173SOL    HW227417  12.153   1.187   2.931
75174SOL     OW27418   2.208   8.752   5.983
75174SOL    HW127419   2.129   8.805   5.993
75174SOL    HW227420   2.238   8.738   6.073
75175SOL     OW27421  12.192   6.411   3.677
75175SOL    HW127422  12.235   6.455   3.750
75175SOL    HW227423  12.130   6.476   3.643
75176SOL     OW27424  11.005   1.960   3.656
75176SOL    HW127425  10.922   2.002   3.632
75176SOL    HW227426  11.011   1.883   3.600
75177SOL     OW27427   8.653  11.793   9.314
75177SOL    HW127428   8.640  11.734   9.239
75177SOL    HW227429   8.568  11.794   9.358
75178SOL     OW27430   3.151   0.597   5.970
75178SOL    HW127431   3.197   0.655   5.910
75178SOL    HW227432   3.202   0.601   6.051
75179SOL     OW27433   3.671   5.676   2.846
75179SOL    HW127434   3.710   5.596   2.812
75179SOL    HW227435   3.720   5.694   2.927
75180SOL     OW27436   1.535   1.327  11.960
75180SOL    HW127437   1.604   1.293  11.902
75180SOL    HW227438   1.503   1.406  11.916
75181SOL     OW27439   5.154  13.101   8.072
75181SOL    HW127440   5.092  13.034   8.099
75181SOL    HW227441   5.240  13.063   8.089
75182SOL     OW27442   8.121   1.188  10.968
75182SOL    HW127443   8.204   1.158  10.933
75182SOL    HW227444   8.134   1.191  11.063
75183SOL     OW27445   1.325   7.765   2.281
75183SOL    HW127446   1.348   7.673   2.268
75183SOL    HW227447   1.341   7.781   2.374
75184SOL     OW27448   7.131   0.441  14.012
75184SOL    HW127449   7.049   0.491  14.010
75184SOL    HW227450   7.158   0.444  14.104
75185SOL     OW27451   4.195   9.892  12.198
75185SOL    HW127452   4.250   9.892  12.120
75185SOL    HW227453   4.235   9.957  12.256
75186SOL     OW27454  12.460   1.286  14.783
75186SOL    HW127455  12.407   1.220  14.827
75186SOL    HW227456  12.399   1.356  14.762
75187SOL     OW27457  10.653  12.672   5.125
75187SOL    HW127458  10.589  12.728   5.167
75187SOL    HW227459  10.606  12.632   5.052
75188SOL     OW27460  14.291   5.074   3.906
75188SOL    HW127461  14.349   5.149   3.916
75188SOL    HW227462  14.224   5.104   3.844
75189SOL     OW27463   0.186  10.802   8.896
75189SOL    HW127464   0.249  10.824   8.827
75189SOL    HW227465   0.145  10.886   8.918
75190SOL     OW27466  10.974   9.649   5.403
75190SOL    HW127467  11.019   9.565   5.403
75190SOL    HW227468  11.023   9.703   5.465
75191SOL     OW27469   9.423   8.498   3.126
75191SOL    HW127470   9.456   8.588   3.130
75191SOL    HW227471   9.500   8.445   3.106
75192SOL     OW27472   5.403   8.848  12.728
75192SOL    HW127473   5.372   8.799  12.652
75192SOL    HW227474   5.380   8.794  12.803
75193SOL     OW27475  11.549   2.628   4.674
75193SOL    HW127476  11.556   2.547   4.724
75193SOL    HW227477  11.509   2.602   4.591
75194SOL     OW27478   7.817   6.069   1.610
75194SOL    HW127479   7.749   6.136   1.605
75194SOL    HW227480   7.799   6.023   1.692
75195SOL     OW27481   7.452   3.543   3.675
75195SOL    HW127482   7.509   3.620   3.674
75195SOL    HW227483   7.475   3.495   3.596
75196SOL     OW27484   6.622   7.255  13.979
75196SOL    HW127485   6.621   7.245  13.883
75196SOL    HW227486   6.581   7.175  14.012
75197SOL     OW27487  14.622  14.828  11.681
75197SOL    HW127488  14.593  14.832  11.773
75197SOL    HW227489  14.540  14.826  11.631
75198SOL     OW27490  12.606   9.905  10.360
75198SOL    HW127491  12.609   9.994  10.395
75198SOL    HW227492  12.512   9.884  10.356
75199SOL     OW27493   8.873  12.415   6.383
75199SOL    HW127494   8.892  12.361   6.460
75199SOL    HW227495   8.864  12.353   6.311
75200SOL     OW27496  13.589   6.872   3.155
75200SOL    HW127497  13.572   6.945   3.095
75200SOL    HW227498  13.590   6.795   3.098
75201SOL     OW27499  11.067   4.278   5.877
75201SOL    HW127500  11.090   4.243   5.963
75201SOL    HW227501  10.972   4.267   5.872
75202SOL     OW27502   6.986  11.343  13.891
75202SOL    HW127503   7.007  11.431  13.925
75202SOL    HW227504   7.051  11.286  13.930
75203SOL     OW27505   1.545   7.273   7.785
75203SOL    HW127506   1.495   7.346   7.819
75203SOL    HW227507   1.486   7.229   7.724
75204SOL     OW27508   7.110   7.749   3.119
75204SOL    HW127509   7.056   7.701   3.056
75204SOL    HW227510   7.088   7.841   3.104
75205SOL     OW27511  10.780   5.276   8.934
75205SOL    HW127512  10.708   5.259   8.874
75205SOL    HW227513  10.859   5.253   8.885
75206SOL     OW27514   3.661   3.435  13.794
75206SOL    HW127515   3.603   3.383  13.737
75206SOL    HW227516   3.601   3.481  13.853
75207SOL     OW27517   5.953   5.498  11.793
75207SOL    HW127518   5.974   5.482  11.886
75207SOL    HW227519   5.938   5.592  11.788
75208SOL     OW27520   3.426  13.405   4.182
75208SOL    HW127521   3.407  13.464   4.109
75208SOL    HW227522   3.485  13.340   4.145
75209SOL     OW27523   1.240   7.658  10.591
75209SOL    HW127524   1.191   7.661  10.509
75209SOL    HW227525   1.332   7.670  10.565
75210SOL     OW27526  11.061   5.143   7.078
75210SOL    HW127527  10.989   5.195   7.044
75210SOL    HW227528  11.130   5.208   7.097
75211SOL     OW27529  14.043   0.283   1.733
75211SOL    HW127530  13.949   0.266   1.745
75211SOL    HW227531  14.076   0.205   1.688
75212SOL     OW27532  10.411  10.499   0.097
75212SOL    HW127533  10.428  10.406   0.112
75212SOL    HW227534  10.485  10.544   0.136
75213SOL     OW27535   8.051   4.284   0.649
75213SOL    HW127536   7.965   4.316   0.678
75213SOL    HW227537   8.073   4.339   0.574
75214SOL     OW27538   3.170   8.308   5.031
75214SOL    HW127539   3.211   8.254   4.963
75214SOL    HW227540   3.181   8.398   5.001
75215SOL     OW27541   4.465   1.432   6.371
75215SOL    HW127542   4.469   1.348   6.325
75215SOL    HW227543   4.448   1.408   6.462
75216SOL     OW27544   4.119   4.805   0.186
75216SOL    HW127545   4.085   4.891   0.160
75216SOL    HW227546   4.148   4.817   0.276
75217SOL     OW27547   8.003   5.384   4.370
75217SOL    HW127548   7.961   5.466   4.346
75217SOL    HW227549   8.033   5.397   4.460
75218SOL     OW27550   1.967   6.748  12.613
75218SOL    HW127551   1.949   6.659  12.643
75218SOL    HW227552   1.942   6.747  12.520
75219SOL     OW27553   1.934   3.116  14.784
75219SOL    HW127554   1.923   3.110  14.689
75219SOL    HW227555   1.977   3.034  14.808
75220SOL     OW27556  11.282  14.588   1.489
75220SOL    HW127557  11.371  14.572   1.521
75220SOL    HW227558  11.242  14.640   1.559
75221SOL     OW27559   0.778   8.929   8.742
75221SOL    HW127560   0.851   8.983   8.710
75221SOL    HW227561   0.820   8.851   8.777
75222SOL     OW27562   9.344  12.913   1.833
75222SOL    HW127563   9.323  12.966   1.756
75222SOL    HW227564   9.412  12.853   1.803
75223SOL     OW27565   6.579   7.132   1.749
75223SOL    HW127566   6.516   7.094   1.809
75223SOL    HW227567   6.665   7.109   1.786
75224SOL     OW27568   1.849  12.349   2.694
75224SOL    HW127569   1.907  12.423   2.674
75224SOL    HW227570   1.799  12.335   2.613
75225SOL     OW27571   4.433   7.248  10.693
75225SOL    HW127572   4.433   7.242  10.597
75225SOL    HW227573   4.487   7.175  10.722
75226SOL     OW27574   7.973  14.346  14.371
75226SOL    HW127575   7.926  14.390  14.441
75226SOL    HW227576   8.003  14.264  14.410
75227SOL     OW27577  11.924  10.539   9.455
75227SOL    HW127578  11.977  10.538   9.375
75227SOL    HW227579  11.857  10.606   9.438
75228SOL     OW27580  11.239   5.810   5.968
75228SOL    HW127581  11.277   5.809   6.056
75228SOL    HW227582  11.151   5.774   5.979
75229SOL     OW27583  10.784   2.793   3.207
75229SOL    HW127584  10.854   2.802   3.271
75229SOL    HW227585  10.826   2.755   3.130
75230SOL     OW27586   2.881  11.684   3.518
75230SOL    HW127587   2.885  11.722   3.430
75230SOL    HW227588   2.972  11.667   3.541
75231SOL     OW27589   7.725   9.483  13.308
75231SOL    HW127590   7.670   9.478  13.386
75231SOL    HW227591   7.663   9.480  13.235
75232SOL     OW27592   8.295   9.365   0.953
75232SOL    HW127593   8.203   9.366   0.927
75232SOL    HW227594   8.324   9.456   0.943
75233SOL     OW27595   1.259  13.375   4.789
75233SOL    HW127596   1.320  13.358   4.861
75233SOL    HW227597   1.291  13.456   4.749
75234SOL     OW27598  14.230  12.769   2.394
75234SOL    HW127599  14.294  12.713   2.350
75234SOL    HW227600  14.203  12.832   2.326
75235SOL     OW27601  11.199   3.257   3.262
75235SOL    HW127602  11.293   3.260   3.278
75235SOL    HW227603  11.190   3.280   3.170
75236SOL     OW27604   4.091   4.173   5.185
75236SOL    HW127605   4.089   4.107   5.255
75236SOL    HW227606   4.000   4.199   5.175
75237SOL     OW27607  10.268   4.902  10.060
75237SOL    HW127608  10.184   4.859  10.075
75237SOL    HW227609  10.248   4.973   9.999
75238SOL     OW27610   1.855  13.807   9.290
75238SOL    HW127611   1.787  13.781   9.352
75238SOL    HW227612   1.873  13.899   9.311
75239SOL     OW27613   3.266   3.261   8.890
75239SOL    HW127614   3.350   3.280   8.932
75239SOL    HW227615   3.240   3.344   8.851
75240SOL     OW27616   0.868  14.652   5.058
75240SOL    HW127617   0.796  14.590   5.043
75240SOL    HW227618   0.942  14.614   5.012
75241SOL     OW27619  11.522   0.971  12.954
75241SOL    HW127620  11.564   0.886  12.942
75241SOL    HW227621  11.492   0.995  12.867
75242SOL     OW27622   0.357   5.345   3.355
75242SOL    HW127623   0.376   5.351   3.448
75242SOL    HW227624   0.271   5.386   3.345
75243SOL     OW27625   0.246   4.836  12.216
75243SOL    HW127626   0.284   4.855  12.130
75243SOL    HW227627   0.240   4.922  12.258
75244SOL     OW27628   3.833   3.927   5.598
75244SOL    HW127629   3.777   3.977   5.538
75244SOL    HW227630   3.856   3.989   5.667
75245SOL     OW27631   7.399  13.688  12.280
75245SOL    HW127632   7.413  13.623  12.349
75245SOL    HW227633   7.395  13.772  12.327
75246SOL     OW27634   9.083  14.596   1.403
75246SOL    HW127635   9.024  14.665   1.371
75246SOL    HW227636   9.106  14.624   1.492
75247SOL     OW27637  11.490  13.742   2.000
75247SOL    HW127638  11.538  13.814   1.960
75247SOL    HW227639  11.433  13.709   1.930
75248SOL     OW27640  11.436  14.207  10.381
75248SOL    HW127641  11.524  14.243  10.391
75248SOL    HW227642  11.443  14.116  10.410
75249SOL     OW27643   3.172  10.216   9.491
75249SOL    HW127644   3.114  10.206   9.567
75249SOL    HW227645   3.239  10.149   9.504
75250SOL     OW27646   0.445   1.293   9.069
75250SOL    HW127647   0.514   1.296   9.135
75250SOL    HW227648   0.408   1.381   9.069
75251SOL     OW27649   4.160   0.632   8.224
75251SOL    HW127650   4.240   0.592   8.191
75251SOL    HW227651   4.163   0.723   8.193
75252SOL     OW27652   5.233   1.740   7.860
75252SOL    HW127653   5.164   1.776   7.915
75252SOL    HW227654   5.271   1.816   7.816
75253SOL     OW27655   4.645  14.272   8.734
75253SOL    HW127656   4.674  14.220   8.808
75253SOL    HW227657   4.660  14.363   8.761
75254SOL     OW27658   9.750  10.786  10.065
75254SOL    HW127659   9.695  10.835  10.127
75254SOL    HW227660   9.787  10.853  10.008
75255SOL     OW27661  11.824   5.396  14.393
75255SOL    HW127662  11.730   5.388  14.374
75255SOL    HW227663  11.827   5.417  14.487
75256SOL     OW27664   6.277  14.479   5.178
75256SOL    HW127665   6.283  14.486   5.274
75256SOL    HW227666   6.184  14.471   5.160
75257SOL     OW27667   0.092   1.542   1.594
75257SOL    HW127668   0.101   1.474   1.661
75257SOL    HW227669   0.011   1.587   1.616
75258SOL     OW27670  12.399   7.677   8.448
75258SOL    HW127671  12.317   7.666   8.400
75258SOL    HW227672  12.403   7.601   8.507
75259SOL     OW27673   8.855  11.615   6.706
75259SOL    HW127674   8.836  11.581   6.793
75259SOL    HW227675   8.791  11.685   6.692
75260SOL     OW27676   2.702   1.473   6.759
75260SOL    HW127677   2.765   1.519   6.813
75260SOL    HW227678   2.737   1.384   6.751
75261SOL     OW27679   1.963   9.303   9.359
75261SOL    HW127680   1.879   9.305   9.314
75261SOL    HW227681   1.940   9.300   9.452
75262SOL     OW27682   0.664   2.693   4.875
75262SOL    HW127683   0.639   2.750   4.948
75262SOL    HW227684   0.723   2.747   4.822
75263SOL     OW27685  11.714  14.854   9.368
75263SOL    HW127686  11.771   0.003   9.442
75263SOL    HW227687  11.665   0.062   9.352
75264SOL     OW27688   1.824   6.530  14.547
75264SOL    HW127689   1.840   6.463  14.614
75264SOL    HW227690   1.773   6.598  14.593
75265SOL     OW27691   4.392   8.209   6.545
75265SOL    HW127692   4.395   8.136   6.608
75265SOL    HW227693   4.474   8.256   6.560
75266SOL     OW27694   5.172   9.323   3.409
75266SOL    HW127695   5.264   9.321   3.437
75266SOL    HW227696   5.156   9.415   3.388
75267SOL     OW27697   9.452   7.365   8.846
75267SOL    HW127698   9.545   7.360   8.824
75267SOL    HW227699   9.443   7.309   8.923
75268SOL     OW27700   2.255   8.971  10.644
75268SOL    HW127701   2.175   8.938  10.685
75268SOL    HW227702   2.326   8.924  10.687
75269SOL     OW27703   4.116   3.076   2.161
75269SOL    HW127704   4.141   3.086   2.253
75269SOL    HW227705   4.199   3.064   2.115
75270SOL     OW27706  12.890  12.612   0.443
75270SOL    HW127707  12.954  12.542   0.427
75270SOL    HW227708  12.816  12.567   0.484
75271SOL     OW27709  11.040   5.856  12.079
75271SOL    HW127710  11.024   5.882  12.169
75271SOL    HW227711  11.057   5.762  12.084
75272SOL     OW27712  12.862   1.476   8.739
75272SOL    HW127713  12.775   1.485   8.700
75272SOL    HW227714  12.863   1.387   8.774
75273SOL     OW27715   4.402   0.388   2.955
75273SOL    HW127716   4.477   0.409   2.900
75273SOL    HW227717   4.346   0.466   2.950
75274SOL     OW27718   8.710   2.668   8.405
75274SOL    HW127719   8.651   2.613   8.457
75274SOL    HW227720   8.652   2.728   8.359
75275SOL     OW27721  14.240   1.047   6.132
75275SOL    HW127722  14.302   1.120   6.130
75275SOL    HW227723  14.294   0.969   6.136
75276SOL     OW27724   0.548   5.288   3.967
75276SOL    HW127725   0.616   5.345   4.002
75276SOL    HW227726   0.571   5.278   3.874
75277SOL     OW27727   1.134  12.844   3.748
75277SOL    HW127728   1.085  12.903   3.690
75277SOL    HW227729   1.133  12.759   3.703
75278SOL     OW27730   6.796   5.006  11.593
75278SOL    HW127731   6.793   4.990  11.499
75278SOL    HW227732   6.865   5.072  11.604
75279SOL     OW27733   1.242   3.415   3.441
75279SOL    HW127734   1.279   3.418   3.353
75279SOL    HW227735   1.228   3.322   3.458
75280SOL     OW27736   6.349  11.656   1.813
75280SOL    HW127737   6.381  11.587   1.755
75280SOL    HW227738   6.376  11.628   1.901
75281SOL     OW27739   5.303   0.241  11.511
75281SOL    HW127740   5.234   0.192  11.555
75281SOL    HW227741   5.334   0.303  11.577
75282SOL     OW27742   5.161  11.790   4.491
75282SOL    HW127743   5.171  11.880   4.459
75282SOL    HW227744   5.067  11.779   4.503
75283SOL     OW27745   2.827   2.537   0.078
75283SOL    HW127746   2.907   2.513   0.126
75283SOL    HW227747   2.845   2.512  14.860
75284SOL     OW27748  14.795   5.965   5.282
75284SOL    HW127749  14.848   6.043   5.264
75284SOL    HW227750  14.813   5.907   5.209
75285SOL     OW27751   0.082   3.702   2.411
75285SOL    HW127752   0.078   3.792   2.379
75285SOL    HW227753   0.166   3.697   2.458
75286SOL     OW27754  12.420   2.819   3.154
75286SOL    HW127755  12.459   2.752   3.210
75286SOL    HW227756  12.428   2.784   3.066
75287SOL     OW27757   0.341  11.301  13.852
75287SOL    HW127758   0.340  11.396  13.837
75287SOL    HW227759   0.433  11.276  13.845
75288SOL     OW27760   0.078  13.824   4.486
75288SOL    HW127761  14.858  13.808   4.463
75288SOL    HW227762   0.123  13.744   4.459
75289SOL     OW27763   7.009  12.263   5.432
75289SOL    HW127764   6.927  12.313   5.433
75289SOL    HW227765   6.981  12.171   5.431
75290SOL     OW27766  13.765   8.992   2.853
75290SOL    HW127767  13.712   9.002   2.932
75290SOL    HW227768  13.810   8.908   2.864
75291SOL     OW27769   7.637  11.585   3.830
75291SOL    HW127770   7.550  11.563   3.794
75291SOL    HW227771   7.663  11.664   3.782
75292SOL     OW27772  13.711  12.397   4.309
75292SOL    HW127773  13.742  12.372   4.222
75292SOL    HW227774  13.665  12.480   4.295
75293SOL     OW27775   7.211   2.377   4.588
75293SOL    HW127776   7.200   2.298   4.536
75293SOL    HW227777   7.299   2.369   4.626
75294SOL     OW27778  10.654  14.034   0.432
75294SOL    HW127779  10.586  14.048   0.498
75294SOL    HW227780  10.608  14.000   0.356
75295SOL     OW27781   2.530   6.829  11.622
75295SOL    HW127782   2.530   6.735  11.604
75295SOL    HW227783   2.448   6.861  11.584
75296SOL     OW27784   0.024   1.248   3.535
75296SOL    HW127785   0.061   1.244   3.447
75296SOL    HW227786   0.098   1.233   3.593
75297SOL     OW27787   4.296  11.666   4.270
75297SOL    HW127788   4.213  11.659   4.316
75297SOL    HW227789   4.346  11.590   4.300
75298SOL     OW27790   4.006   8.857   7.681
75298SOL    HW127791   3.930   8.850   7.622
75298SOL    HW227792   4.018   8.768   7.714
75299SOL     OW27793  14.494  11.397  14.408
75299SOL    HW127794  14.541  11.325  14.449
75299SOL    HW227795  14.561  11.445  14.359
75300SOL     OW27796   5.963  14.618   2.280
75300SOL    HW127797   6.025  14.575   2.221
75300SOL    HW227798   5.947  14.554   2.349
75301SOL     OW27799   1.486   4.720  10.818
75301SOL    HW127800   1.579   4.701  10.804
75301SOL    HW227801   1.440   4.649  10.772
75302SOL     OW27802   4.536   4.925   0.183
75302SOL    HW127803   4.623   4.929   0.223
75302SOL    HW227804   4.476   4.922   0.257
75303SOL     OW27805   1.301  12.966   4.722
75303SOL    HW127806   1.227  13.014   4.759
75303SOL    HW227807   1.286  12.967   4.628
75304SOL     OW27808  14.066   4.913  12.180
75304SOL    HW127809  14.004   4.958  12.124
75304SOL    HW227810  14.142   4.897  12.124
75305SOL     OW27811  10.125  10.401   7.174
75305SOL    HW127812  10.121  10.319   7.125
75305SOL    HW227813  10.180  10.458   7.120
75306SOL     OW27814   4.676   5.131   7.392
75306SOL    HW127815   4.687   5.081   7.311
75306SOL    HW227816   4.753   5.108   7.444
75307SOL     OW27817   2.234   1.447  12.103
75307SOL    HW127818   2.153   1.399  12.086
75307SOL    HW227819   2.211   1.508  12.173
75308SOL     OW27820   5.408  11.623  13.287
75308SOL    HW127821   5.397  11.716  13.268
75308SOL    HW227822   5.483  11.619  13.346
75309SOL     OW27823  13.333   1.956  11.292
75309SOL    HW127824  13.287   2.012  11.354
75309SOL    HW227825  13.301   1.984  11.206
75310SOL     OW27826   1.586   4.130  11.456
75310SOL    HW127827   1.682   4.124  11.458
75310SOL    HW227828   1.564   4.196  11.521
75311SOL     OW27829   2.658  12.098  13.681
75311SOL    HW127830   2.606  12.057  13.751
75311SOL    HW227831   2.661  12.032  13.611
75312SOL     OW27832   9.337   9.754   1.102
75312SOL    HW127833   9.319   9.674   1.152
75312SOL    HW227834   9.387   9.809   1.163
75313SOL     OW27835   6.737   5.532   0.902
75313SOL    HW127836   6.702   5.484   0.977
75313SOL    HW227837   6.831   5.514   0.904
75314SOL     OW27838   0.020  14.381  14.156
75314SOL    HW127839   0.060  14.339  14.232
75314SOL    HW227840  14.843  14.454  14.192
75315SOL     OW27841  14.818  10.193   0.588
75315SOL    HW127842  14.728  10.162   0.574
75315SOL    HW227843  14.827  10.195   0.683
75316SOL     OW27844   0.186  14.509  11.438
75316SOL    HW127845   0.104  14.459  11.444
75316SOL    HW227846   0.159  14.600  11.437
75317SOL     OW27847  11.461  14.469   1.860
75317SOL    HW127848  11.485  14.540   1.920
75317SOL    HW227849  11.488  14.501   1.773
75318SOL     OW27850  10.712   4.135  13.851
75318SOL    HW127851  10.797   4.168  13.881
75318SOL    HW227852  10.708   4.160  13.758
75319SOL     OW27853   1.117   4.434   0.537
75319SOL    HW127854   1.123   4.491   0.614
75319SOL    HW227855   1.203   4.438   0.497
75320SOL     OW27856   3.542  12.669   0.765
75320SOL    HW127857   3.620  12.649   0.816
75320SOL    HW227858   3.499  12.584   0.752
75321SOL     OW27859   8.539   5.114   2.061
75321SOL    HW127860   8.619   5.063   2.047
75321SOL    HW227861   8.563   5.203   2.033
75322SOL     OW27862  10.594   2.678  13.020
75322SOL    HW127863  10.501   2.699  13.009
75322SOL    HW227864  10.639   2.727  12.952
75323SOL     OW27865  10.443   7.238  13.191
75323SOL    HW127866  10.527   7.283  13.182
75323SOL    HW227867  10.463   7.159  13.241
75324SOL     OW27868   3.352  14.651   7.770
75324SOL    HW127869   3.267  14.683   7.799
75324SOL    HW227870   3.415  14.713   7.807
75325SOL     OW27871   1.957  14.657   9.718
75325SOL    HW127872   1.899  14.728   9.691
75325SOL    HW227873   1.990  14.684   9.804
75326SOL     OW27874   0.163   4.257   0.324
75326SOL    HW127875   0.084   4.293   0.364
75326SOL    HW227876   0.233   4.314   0.354
75327SOL     OW27877  10.879  13.020   5.807
75327SOL    HW127878  10.923  13.044   5.889
75327SOL    HW227879  10.948  12.983   5.753
75328SOL     OW27880   6.049  12.571   1.742
75328SOL    HW127881   6.024  12.501   1.803
75328SOL    HW227882   5.977  12.575   1.679
75329SOL     OW27883   2.670   1.791  13.284
75329SOL    HW127884   2.730   1.723  13.251
75329SOL    HW227885   2.675   1.861  13.219
75330SOL     OW27886   9.340  13.617  10.790
75330SOL    HW127887   9.350  13.596  10.697
75330SOL    HW227888   9.246  13.627  10.802
75331SOL     OW27889   1.014   1.598   7.279
75331SOL    HW127890   1.042   1.573   7.367
75331SOL    HW227891   1.088   1.647   7.243
75332SOL     OW27892   7.638   6.527  12.946
75332SOL    HW127893   7.555   6.481  12.952
75332SOL    HW227894   7.697   6.480  13.005
75333SOL     OW27895   4.977  10.715   3.941
75333SOL    HW127896   5.027  10.709   3.860
75333SOL    HW227897   4.886  10.706   3.914
75334SOL     OW27898   5.262   2.869   5.917
75334SOL    HW127899   5.239   2.901   6.004
75334SOL    HW227900   5.288   2.947   5.869
75335SOL     OW27901   5.766  10.231   7.049
75335SOL    HW127902   5.679  10.206   7.081
75335SOL    HW227903   5.762  10.326   7.039
75336SOL     OW27904   3.332   9.993   0.496
75336SOL    HW127905   3.286   9.934   0.436
75336SOL    HW227906   3.423   9.962   0.494
75337SOL     OW27907   1.167   9.610  10.676
75337SOL    HW127908   1.171   9.571  10.589
75337SOL    HW227909   1.238   9.675  10.677
75338SOL     OW27910   8.523   7.191   2.167
75338SOL    HW127911   8.433   7.182   2.135
75338SOL    HW227912   8.536   7.286   2.173
75339SOL     OW27913   0.465  11.950  11.894
75339SOL    HW127914   0.392  12.002  11.860
75339SOL    HW227915   0.535  11.962  11.830
75340SOL     OW27916   6.163  12.819   1.678
75340SOL    HW127917   6.145  12.727   1.693
75340SOL    HW227918   6.081  12.863   1.702
75341SOL     OW27919  14.438   3.363   9.211
75341SOL    HW127920  14.376   3.320   9.271
75341SOL    HW227921  14.411   3.334   9.124
75342SOL     OW27922   6.314  13.967  13.190
75342SOL    HW127923   6.248  13.899  13.183
75342SOL    HW227924   6.298  14.008  13.275
75343SOL     OW27925  13.790  10.078   2.053
75343SOL    HW127926  13.716  10.018   2.058
75343SOL    HW227927  13.762  10.145   1.990
75344SOL     OW27928   6.389  13.090  11.998
75344SOL    HW127929   6.332  13.152  11.953
75344SOL    HW227930   6.425  13.140  12.072
75345SOL     OW27931   9.280  12.911   0.351
75345SOL    HW127932   9.363  12.870   0.375
75345SOL    HW227933   9.255  12.961   0.429
75346SOL     OW27934  13.772  12.594  10.492
75346SOL    HW127935  13.854  12.616  10.536
75346SOL    HW227936  13.758  12.501  10.512
75347SOL     OW27937  10.505   0.803   7.739
75347SOL    HW127938  10.576   0.783   7.678
75347SOL    HW227939  10.426   0.798   7.685
75348SOL     OW27940  10.257   8.536   2.715
75348SOL    HW127941  10.260   8.610   2.654
75348SOL    HW227942  10.247   8.459   2.658
75349SOL     OW27943  12.413   7.271   8.410
75349SOL    HW127944  12.353   7.246   8.480
75349SOL    HW227945  12.500   7.248   8.444
75350SOL     OW27946   4.163   2.177   3.121
75350SOL    HW127947   4.191   2.138   3.038
75350SOL    HW227948   4.091   2.236   3.097
75351SOL     OW27949  11.298  12.611   8.806
75351SOL    HW127950  11.372  12.550   8.802
75351SOL    HW227951  11.317  12.675   8.738
75352SOL     OW27952   8.991   3.428   7.191
75352SOL    HW127953   8.962   3.444   7.281
75352SOL    HW227954   8.931   3.361   7.158
75353SOL     OW27955   8.015  13.269  10.608
75353SOL    HW127956   7.981  13.291  10.694
75353SOL    HW227957   7.949  13.301  10.547
75354SOL     OW27958  14.500  14.599   0.014
75354SOL    HW127959  14.550  14.518   0.007
75354SOL    HW227960  14.441  14.584   0.088
75355SOL     OW27961  11.920   0.058  12.879
75355SOL    HW127962  11.829   0.054  12.909
75355SOL    HW227963  11.962  14.855  12.921
75356SOL     OW27964   5.992   3.397   4.023
75356SOL    HW127965   5.944   3.366   3.946
75356SOL    HW227966   5.926   3.399   4.093
75357SOL     OW27967   5.672  14.123  10.391
75357SOL    HW127968   5.717  14.066  10.329
75357SOL    HW227969   5.725  14.120  10.471
75358SOL     OW27970  10.215   7.028   8.827
75358SOL    HW127971  10.216   6.942   8.869
75358SOL    HW227972  10.240   7.088   8.897
75359SOL     OW27973   4.847   0.956   4.555
75359SOL    HW127974   4.831   0.862   4.562
75359SOL    HW227975   4.796   0.984   4.480
75360SOL     OW27976   4.380  13.787   8.856
75360SOL    HW127977   4.470  13.817   8.848
75360SOL    HW227978   4.384  13.693   8.835
75361SOL     OW27979   2.772   5.520  12.534
75361SOL    HW127980   2.808   5.540  12.620
75361SOL    HW227981   2.791   5.597  12.481
75362SOL     OW27982   3.536   6.479   6.391
75362SOL    HW127983   3.508   6.387   6.399
75362SOL    HW227984   3.567   6.502   6.478
75363SOL     OW27985   1.717   3.591   9.387
75363SOL    HW127986   1.808   3.617   9.399
75363SOL    HW227987   1.723   3.504   9.346
75364SOL     OW27988   5.978  10.141  12.108
75364SOL    HW127989   6.055  10.194  12.126
75364SOL    HW227990   5.904  10.195  12.136
75365SOL     OW27991  13.043   9.097   9.102
75365SOL    HW127992  13.045   9.193   9.097
75365SOL    HW227993  13.066   9.077   9.192
75366SOL     OW27994   0.818   9.536   4.272
75366SOL    HW127995   0.818   9.616   4.324
75366SOL    HW227996   0.864   9.472   4.327
75367SOL     OW27997   7.913   7.821   0.273
75367SOL    HW127998   7.978   7.857   0.334
75367SOL    HW227999   7.829   7.834   0.317
75368SOL     OW28000  10.568   4.465   9.305
75368SOL    HW128001  10.500   4.403   9.280
75368SOL    HW228002  10.530   4.551   9.290
75369SOL     OW28003   3.394   6.284  13.283
75369SOL    HW128004   3.381   6.219  13.353
75369SOL    HW228005   3.366   6.239  13.204
75370SOL     OW28006  13.807   5.203   9.789
75370SOL    HW128007  13.798   5.276   9.851
75370SOL    HW228008  13.836   5.245   9.708
75371SOL     OW28009   0.983   8.927   4.722
75371SOL    HW128010   0.951   9.017   4.732
75371SOL    HW228011   1.071   8.937   4.684
75372SOL     OW28012   0.167   1.269   0.903
75372SOL    HW128013   0.099   1.335   0.890
75372SOL    HW228014   0.122   1.197   0.946
75373SOL     OW28015  10.505   9.342  11.717
75373SOL    HW128016  10.589   9.296  11.709
75373SOL    HW228017  10.443   9.273  11.741
75374SOL     OW28018   9.397   8.136  14.436
75374SOL    HW128019   9.486   8.115  14.410
75374SOL    HW228020   9.374   8.068  14.500
75375SOL     OW28021   4.173   4.836   0.537
75375SOL    HW128022   4.108   4.906   0.539
75375SOL    HW228023   4.184   4.811   0.629
75376SOL     OW28024   2.146   1.026  13.640
75376SOL    HW128025   2.059   1.002  13.607
75376SOL    HW228026   2.128   1.085  13.713
75377SOL     OW28027   4.366  10.344  12.071
75377SOL    HW128028   4.333  10.277  12.011
75377SOL    HW228029   4.306  10.418  12.060
75378SOL     OW28030   7.919   4.074   6.782
75378SOL    HW128031   7.932   4.117   6.697
75378SOL    HW228032   8.006   4.042   6.806
75379SOL     OW28033   1.934   7.619   5.281
75379SOL    HW128034   1.846   7.628   5.316
75379SOL    HW228035   1.976   7.704   5.300
75380SOL     OW28036   2.586   4.439   6.035
75380SOL    HW128037   2.533   4.519   6.032
75380SOL    HW228038   2.668   4.466   6.076
75381SOL     OW28039   6.062   0.650  10.316
75381SOL    HW128040   5.998   0.592  10.357
75381SOL    HW228041   6.067   0.620  10.225
75382SOL     OW28042   7.465   3.664   3.097
75382SOL    HW128043   7.450   3.751   3.058
75382SOL    HW228044   7.378   3.635   3.124
75383SOL     OW28045   8.570   1.106   7.112
75383SOL    HW128046   8.624   1.160   7.170
75383SOL    HW228047   8.585   1.141   7.025
75384SOL     OW28048   3.956   3.502   9.770
75384SOL    HW128049   3.959   3.597   9.761
75384SOL    HW228050   4.037   3.471   9.729
75385SOL     OW28051   3.402   0.963   8.353
75385SOL    HW128052   3.443   0.936   8.435
75385SOL    HW228053   3.465   1.022   8.312
75386SOL     OW28054   8.142  10.258  10.763
75386SOL    HW128055   8.189  10.194  10.817
75386SOL    HW228056   8.052  10.223  10.759
75387SOL     OW28057   3.522   8.390   7.178
75387SOL    HW128058   3.536   8.330   7.252
75387SOL    HW228059   3.597   8.449   7.181
75388SOL     OW28060   1.181   2.963   9.751
75388SOL    HW128061   1.251   2.981   9.689
75388SOL    HW228062   1.226   2.935   9.831
75389SOL     OW28063  10.099   6.201  12.029
75389SOL    HW128064  10.115   6.119  11.983
75389SOL    HW228065  10.184   6.226  12.065
75390SOL     OW28066   8.842   5.927   4.432
75390SOL    HW128067   8.884   6.011   4.448
75390SOL    HW228068   8.892   5.865   4.486
75391SOL     OW28069  12.003   5.443   7.481
75391SOL    HW128070  12.078   5.503   7.478
75391SOL    HW228071  12.042   5.356   7.471
75392SOL     OW28072  11.440   2.784   7.901
75392SOL    HW128073  11.453   2.878   7.916
75392SOL    HW228074  11.362   2.763   7.952
75393SOL     OW28075   8.876   5.681   9.395
75393SOL    HW128076   8.899   5.619   9.463
75393SOL    HW228077   8.824   5.748   9.439
75394SOL     OW28078   0.272  14.486   9.588
75394SOL    HW128079   0.191  14.514   9.631
75394SOL    HW228080   0.246  14.464   9.499
75395SOL     OW28081  13.600  13.627  11.283
75395SOL    HW128082  13.570  13.558  11.224
75395SOL    HW228083  13.519  13.664  11.319
75396SOL     OW28084   4.082   1.705  12.579
75396SOL    HW128085   4.004   1.650  12.589
75396SOL    HW228086   4.149   1.647  12.543
75397SOL     OW28087  12.666  10.572   4.138
75397SOL    HW128088  12.762  10.580   4.139
75397SOL    HW228089  12.642  10.580   4.046
75398SOL     OW28090   9.748  13.507  14.866
75398SOL    HW128091   9.659  13.477  14.847
75398SOL    HW228092   9.781  13.446   0.059
75399SOL     OW28093   0.033  12.943  13.690
75399SOL    HW128094  14.844  12.897  13.633
75399SOL    HW228095  14.855  13.017  13.726
75400SOL     OW28096  11.510   8.276  10.558
75400SOL    HW128097  11.505   8.370  10.573
75400SOL    HW228098  11.570   8.244  10.625
75401SOL     OW28099   3.968   3.180   3.350
75401SOL    HW128100   3.990   3.188   3.257
75401SOL    HW228101   4.014   3.253   3.391
75402SOL     OW28102  10.959  10.156   6.080
75402SOL    HW128103  10.996  10.151   5.992
75402SOL    HW228104  10.873  10.196   6.069
75403SOL     OW28105  11.144   3.118  14.457
75403SOL    HW128106  11.052   3.109  14.481
75403SOL    HW228107  11.146   3.192  14.396
75404SOL     OW28108  14.385  14.078   1.148
75404SOL    HW128109  14.320  14.058   1.215
75404SOL    HW228110  14.358  14.026   1.072
75405SOL     OW28111   2.751   2.709  12.053
75405SOL    HW128112   2.727   2.722  11.962
75405SOL    HW228113   2.847   2.709  12.053
75406SOL     OW28114  10.756  12.851   9.933
75406SOL    HW128115  10.821  12.786   9.960
75406SOL    HW228116  10.717  12.814   9.854
75407SOL     OW28117   2.339  10.904   9.119
75407SOL    HW128118   2.304  10.883   9.206
75407SOL    HW228119   2.413  10.962   9.136
75408SOL     OW28120   1.611   4.134  12.163
75408SOL    HW128121   1.631   4.211  12.216
75408SOL    HW228122   1.610   4.167  12.073
75409SOL     OW28123   0.720   9.564   0.308
75409SOL    HW128124   0.737   9.640   0.252
75409SOL    HW228125   0.665   9.506   0.254
75410SOL     OW28126   5.491  13.086  10.717
75410SOL    HW128127   5.412  13.140  10.715
75410SOL    HW228128   5.494  13.051  10.806
75411SOL     OW28129   2.433   3.319   2.691
75411SOL    HW128130   2.432   3.413   2.709
75411SOL    HW228131   2.366   3.307   2.625
75412SOL     OW28132  10.468   3.447   4.570
75412SOL    HW128133  10.392   3.504   4.563
75412SOL    HW228134  10.477   3.430   4.663
75413SOL     OW28135   5.863  11.266   3.383
75413SOL    HW128136   5.791  11.302   3.330
75413SOL    HW228137   5.894  11.191   3.333
75414SOL     OW28138   9.504  14.613  13.111
75414SOL    HW128139   9.425  14.638  13.159
75414SOL    HW228140   9.562  14.689  13.118
75415SOL     OW28141   8.438  10.078   5.488
75415SOL    HW128142   8.354  10.090   5.533
75415SOL    HW228143   8.503  10.100   5.554
75416SOL     OW28144   8.012   3.713   9.320
75416SOL    HW128145   8.015   3.658   9.399
75416SOL    HW228146   8.010   3.651   9.248
75417SOL     OW28147  11.511   1.543   7.797
75417SOL    HW128148  11.468   1.559   7.881
75417SOL    HW228149  11.514   1.629   7.755
75418SOL     OW28150  13.121  12.568   1.068
75418SOL    HW128151  13.151  12.478   1.080
75418SOL    HW228152  13.102  12.599   1.157
75419SOL     OW28153  10.609   4.792   8.052
75419SOL    HW128154  10.691   4.758   8.087
75419SOL    HW228155  10.635   4.867   7.998
75420SOL     OW28156   8.180   7.838   4.300
75420SOL    HW128157   8.094   7.798   4.312
75420SOL    HW228158   8.221   7.834   4.386
75421SOL     OW28159   9.822   0.142  10.189
75421SOL    HW128160   9.821   0.099  10.274
75421SOL    HW228161   9.755   0.211  10.196
75422SOL     OW28162   0.169  10.028   3.211
75422SOL    HW128163   0.096  10.083   3.240
75422SOL    HW228164   0.247  10.073   3.244
75423SOL     OW28165   0.125  10.151   4.204
75423SOL    HW128166   0.116  10.231   4.256
75423SOL    HW228167   0.044  10.147   4.152
75424SOL     OW28168   9.064   8.563   8.491
75424SOL    HW128169   9.109   8.482   8.468
75424SOL    HW228170   9.120   8.632   8.456
75425SOL     OW28171   4.385   6.772  14.410
75425SOL    HW128172   4.401   6.857  14.368
75425SOL    HW228173   4.337   6.722  14.344
75426SOL     OW28174  12.758   6.818   7.791
75426SOL    HW128175  12.730   6.770   7.869
75426SOL    HW228176  12.842   6.858   7.816
75427SOL     OW28177  11.882  11.594   2.703
75427SOL    HW128178  11.794  11.564   2.679
75427SOL    HW228179  11.938  11.563   2.632
75428SOL     OW28180   4.567  11.093   9.530
75428SOL    HW128181   4.632  11.147   9.575
75428SOL    HW228182   4.544  11.025   9.593
75429SOL     OW28183   1.346   1.199   4.309
75429SOL    HW128184   1.331   1.106   4.291
75429SOL    HW228185   1.360   1.202   4.404
75430SOL     OW28186   5.553  13.354   1.927
75430SOL    HW128187   5.621  13.401   1.880
75430SOL    HW228188   5.600  13.298   1.989
75431SOL     OW28189  12.173   9.760  11.526
75431SOL    HW128190  12.154   9.811  11.605
75431SOL    HW228191  12.267   9.744  11.530
75432SOL     OW28192   6.528   5.967   1.778
75432SOL    HW128193   6.555   5.920   1.700
75432SOL    HW228194   6.433   5.954   1.782
75433SOL     OW28195   4.066  11.855   1.430
75433SOL    HW128196   4.048  11.921   1.497
75433SOL    HW228197   4.088  11.776   1.479
75434SOL     OW28198   8.062   9.048  10.441
75434SOL    HW128199   8.025   9.005  10.518
75434SOL    HW228200   8.026   9.137  10.443
75435SOL     OW28201   4.059   3.761   1.631
75435SOL    HW128202   4.127   3.740   1.695
75435SOL    HW228203   4.103   3.812   1.564
75436SOL     OW28204   3.067   8.206  14.146
75436SOL    HW128205   2.992   8.157  14.180
75436SOL    HW228206   3.040   8.234  14.058
75437SOL     OW28207  12.633   0.827  12.183
75437SOL    HW128208  12.623   0.828  12.278
75437SOL    HW228209  12.559   0.879  12.150
75438SOL     OW28210   4.327  14.145   7.963
75438SOL    HW128211   4.321  14.206   8.037
75438SOL    HW228212   4.295  14.062   7.998
75439SOL     OW28213  11.296   9.476  13.651
75439SOL    HW128214  11.262   9.393  13.685
75439SOL    HW228215  11.375   9.492  13.703
75440SOL     OW28216   3.187   1.866   6.837
75440SOL    HW128217   3.120   1.823   6.890
75440SOL    HW228218   3.227   1.929   6.897
75441SOL     OW28219   6.836   4.649   3.466
75441SOL    HW128220   6.930   4.667   3.465
75441SOL    HW228221   6.798   4.727   3.508
75442SOL     OW28222   9.143  10.691   7.893
75442SOL    HW128223   9.101  10.773   7.921
75442SOL    HW228224   9.129  10.631   7.967
75443SOL     OW28225   8.070   1.400  12.621
75443SOL    HW128226   8.005   1.392  12.691
75443SOL    HW228227   8.023   1.444  12.550
75444SOL     OW28228   5.218   1.091   5.574
75444SOL    HW128229   5.177   1.117   5.656
75444SOL    HW228230   5.309   1.118   5.582
75445SOL     OW28231   7.026   4.806   9.698
75445SOL    HW128232   7.032   4.900   9.716
75445SOL    HW228233   6.939   4.781   9.729
75446SOL     OW28234  11.513   5.760   5.084
75446SOL    HW128235  11.425   5.764   5.121
75446SOL    HW228236  11.502   5.788   4.993
75447SOL     OW28237   7.970  12.946  12.719
75447SOL    HW128238   7.960  12.859  12.680
75447SOL    HW228239   8.002  13.001  12.647
75448SOL     OW28240   3.370   8.526  13.557
75448SOL    HW128241   3.404   8.615  13.565
75448SOL    HW228242   3.352   8.499  13.647
75449SOL     OW28243   8.962  14.028   4.847
75449SOL    HW128244   8.942  14.104   4.901
75449SOL    HW228245   8.886  14.019   4.789
75450SOL     OW28246  10.240   2.481   0.499
75450SOL    HW128247  10.324   2.444   0.470
75450SOL    HW228248  10.217   2.429   0.576
75451SOL     OW28249   4.883   1.995   8.132
75451SOL    HW128250   4.799   2.040   8.123
75451SOL    HW228251   4.889   1.975   8.225
75452SOL     OW28252   5.618  13.140   8.405
75452SOL    HW128253   5.630  13.076   8.335
75452SOL    HW228254   5.555  13.099   8.464
75453SOL     OW28255  11.839  10.602   7.338
75453SOL    HW128256  11.841  10.677   7.397
75453SOL    HW228257  11.862  10.527   7.393
75454SOL     OW28258   4.963   4.656   0.304
75454SOL    HW128259   4.891   4.702   0.348
75454SOL    HW228260   4.925   4.624   0.223
75455SOL     OW28261   8.468  10.242   3.592
75455SOL    HW128262   8.538  10.192   3.549
75455SOL    HW228263   8.472  10.328   3.551
75456SOL     OW28264   0.562   2.732   1.212
75456SOL    HW128265   0.611   2.652   1.192
75456SOL    HW228266   0.620   2.803   1.183
75457SOL     OW28267   1.227  14.120   9.818
75457SOL    HW128268   1.234  14.036   9.864
75457SOL    HW228269   1.149  14.161   9.856
75458SOL     OW28270   9.469   9.379   1.568
75458SOL    HW128271   9.547   9.334   1.537
75458SOL    HW228272   9.502   9.448   1.625
75459SOL     OW28273   4.047  12.133  14.277
75459SOL    HW128274   4.071  12.053  14.231
75459SOL    HW228275   3.970  12.110  14.329
75460SOL     OW28276   7.731  11.459   5.220
75460SOL    HW128277   7.721  11.463   5.125
75460SOL    HW228278   7.764  11.371   5.237
75461SOL     OW28279   5.796   0.608  14.871
75461SOL    HW128280   5.802   0.703  14.863
75461SOL    HW228281   5.881   0.581   0.032
75462SOL     OW28282   4.544   6.388  14.159
75462SOL    HW128283   4.522   6.413  14.248
75462SOL    HW228284   4.503   6.455  14.104
75463SOL     OW28285   4.857  13.501   0.212
75463SOL    HW128286   4.883  13.586   0.175
75463SOL    HW228287   4.929  13.442   0.191
75464SOL     OW28288  13.271   0.651   5.912
75464SOL    HW128289  13.243   0.588   5.978
75464SOL    HW228290  13.345   0.609   5.869
75465SOL     OW28291   1.431   8.082   3.490
75465SOL    HW128292   1.391   8.093   3.577
75465SOL    HW228293   1.475   7.997   3.494
75466SOL     OW28294   7.006  11.319  13.046
75466SOL    HW128295   7.062  11.375  12.993
75466SOL    HW228296   6.918  11.352  13.032
75467SOL     OW28297  12.048   7.454  14.643
75467SOL    HW128298  12.101   7.376  14.662
75467SOL    HW228299  11.958   7.423  14.645
75468SOL     OW28300  14.698   8.136   7.408
75468SOL    HW128301  14.668   8.139   7.317
75468SOL    HW228302  14.753   8.214   7.418
75469SOL     OW28303   1.566   0.925  11.252
75469SOL    HW128304   1.500   0.880  11.305
75469SOL    HW228305   1.642   0.867  11.253
75470SOL     OW28306   9.803   8.094   7.682
75470SOL    HW128307   9.819   8.087   7.776
75470SOL    HW228308   9.734   8.161   7.674
75471SOL     OW28309   7.395  11.840   8.061
75471SOL    HW128310   7.350  11.911   8.015
75471SOL    HW228311   7.439  11.791   7.991
75472SOL     OW28312   6.218   3.063   3.376
75472SOL    HW128313   6.268   3.141   3.351
75472SOL    HW228314   6.129   3.095   3.392
75473SOL     OW28315   6.204   7.592  12.614
75473SOL    HW128316   6.237   7.637  12.536
75473SOL    HW228317   6.268   7.522  12.629
75474SOL     OW28318  14.632   1.298  12.759
75474SOL    HW128319  14.705   1.326  12.704
75474SOL    HW228320  14.616   1.371  12.818
75475SOL     OW28321  12.690   7.726   2.040
75475SOL    HW128322  12.608   7.776   2.041
75475SOL    HW228323  12.691   7.680   2.124
75476SOL     OW28324   0.693   6.550  12.433
75476SOL    HW128325   0.671   6.485  12.366
75476SOL    HW228326   0.609   6.571  12.474
75477SOL     OW28327   7.313   9.245   5.928
75477SOL    HW128328   7.321   9.160   5.969
75477SOL    HW228329   7.375   9.301   5.975
75478SOL     OW28330   0.573  13.875  11.793
75478SOL    HW128331   0.511  13.847  11.726
75478SOL    HW228332   0.527  13.945  11.840
75479SOL     OW28333  13.655  12.427  11.162
75479SOL    HW128334  13.599  12.350  11.158
75479SOL    HW228335  13.740  12.392  11.190
75480SOL     OW28336   7.440   8.353   8.453
75480SOL    HW128337   7.458   8.430   8.398
75480SOL    HW228338   7.502   8.287   8.422
75481SOL     OW28339   2.714   9.312   3.617
75481SOL    HW128340   2.627   9.279   3.638
75481SOL    HW228341   2.704   9.353   3.530
75482SOL     OW28342   8.242  13.623   1.118
75482SOL    HW128343   8.307  13.635   1.048
75482SOL    HW228344   8.208  13.711   1.134
75483SOL     OW28345  12.766   9.625  14.061
75483SOL    HW128346  12.828   9.639  13.989
75483SOL    HW228347  12.766   9.708  14.108
75484SOL     OW28348  11.319  11.838  13.981
75484SOL    HW128349  11.284  11.899  14.047
75484SOL    HW228350  11.413  11.851  13.984
75485SOL     OW28351   3.563   7.940   6.387
75485SOL    HW128352   3.567   8.036   6.377
75485SOL    HW228353   3.653   7.911   6.371
75486SOL     OW28354  14.472   2.777   4.136
75486SOL    HW128355  14.468   2.799   4.043
75486SOL    HW228356  14.454   2.860   4.180
75487SOL     OW28357   6.848  13.797   0.808
75487SOL    HW128358   6.878  13.834   0.891
75487SOL    HW228359   6.777  13.738   0.832
75488SOL     OW28360   0.858  10.395   8.099
75488SOL    HW128361   0.944  10.374   8.137
75488SOL    HW228362   0.810  10.437   8.171
75489SOL     OW28363   1.501   9.986   2.427
75489SOL    HW128364   1.414  10.025   2.418
75489SOL    HW228365   1.490   9.920   2.495
75490SOL     OW28366   0.344   1.141   6.359
75490SOL    HW128367   0.296   1.090   6.293
75490SOL    HW228368   0.349   1.083   6.435
75491SOL     OW28369   3.042  10.397   0.019
75491SOL    HW128370   2.952  10.373  14.870
75491SOL    HW228371   3.087  10.401  14.807
75492SOL     OW28372   1.139   7.903  12.441
75492SOL    HW128373   1.064   7.855  12.406
75492SOL    HW228374   1.209   7.887  12.378
75493SOL     OW28375   7.923  12.810  11.476
75493SOL    HW128376   7.926  12.798  11.381
75493SOL    HW228377   7.993  12.754  11.509
75494SOL     OW28378   8.255   5.775  11.942
75494SOL    HW128379   8.311   5.852  11.949
75494SOL    HW228380   8.168   5.807  11.964
75495SOL     OW28381   6.314   1.279   8.315
75495SOL    HW128382   6.255   1.224   8.366
75495SOL    HW228383   6.323   1.235   8.231
75496SOL     OW28384   8.258   4.019   4.614
75496SOL    HW128385   8.288   4.110   4.611
75496SOL    HW228386   8.260   3.990   4.523
75497SOL     OW28387   5.934   0.317   0.144
75497SOL    HW128388   5.852   0.303   0.191
75497SOL    HW228389   5.943   0.412   0.138
75498SOL     OW28390  12.046   4.457   4.874
75498SOL    HW128391  12.058   4.551   4.863
75498SOL    HW228392  12.103   4.433   4.947
75499SOL     OW28393   4.948   4.470   9.144
75499SOL    HW128394   4.949   4.482   9.239
75499SOL    HW228395   5.011   4.399   9.129
75500SOL     OW28396   7.604   5.538  11.677
75500SOL    HW128397   7.674   5.481  11.646
75500SOL    HW228398   7.523   5.491  11.656
75501SOL     OW28399   5.949   0.844  13.101
75501SOL    HW128400   5.929   0.757  13.068
75501SOL    HW228401   6.015   0.830  13.170
75502SOL     OW28402  13.240   5.526   8.532
75502SOL    HW128403  13.311   5.470   8.563
75502SOL    HW228404  13.161   5.486   8.566
75503SOL     OW28405   5.722  13.904   7.503
75503SOL    HW128406   5.699  13.903   7.410
75503SOL    HW228407   5.748  13.994   7.520
75504SOL     OW28408  12.358   5.952  14.423
75504SOL    HW128409  12.394   6.039  14.407
75504SOL    HW228410  12.281   5.947  14.367
75505SOL     OW28411   6.734   9.422   3.690
75505SOL    HW128412   6.809   9.445   3.635
75505SOL    HW228413   6.707   9.504   3.731
75506SOL     OW28414  11.179   3.309   1.183
75506SOL    HW128415  11.188   3.214   1.174
75506SOL    HW228416  11.152   3.322   1.274
75507SOL     OW28417   5.479   1.071   8.127
75507SOL    HW128418   5.419   1.058   8.200
75507SOL    HW228419   5.501   1.164   8.129
75508SOL     OW28420   7.616   8.732   8.277
75508SOL    HW128421   7.589   8.803   8.335
75508SOL    HW228422   7.572   8.751   8.194
75509SOL     OW28423   7.873   1.668   4.403
75509SOL    HW128424   7.961   1.701   4.423
75509SOL    HW228425   7.823   1.682   4.483
75510SOL     OW28426   9.856   4.387  13.489
75510SOL    HW128427   9.856   4.483  13.486
75510SOL    HW228428   9.942   4.362  13.455
75511SOL     OW28429  14.375   1.009  14.191
75511SOL    HW128430  14.461   0.982  14.159
75511SOL    HW228431  14.385   1.102  14.210
75512SOL     OW28432   5.874  11.894   3.519
75512SOL    HW128433   5.882  11.977   3.566
75512SOL    HW228434   5.959  11.852   3.528
75513SOL     OW28435  14.775   2.502   5.594
75513SOL    HW128436  14.804   2.588   5.561
75513SOL    HW228437  14.843   2.478   5.657
75514SOL     OW28438   9.523  14.455   4.523
75514SOL    HW128439   9.429  14.473   4.524
75514SOL    HW228440   9.531  14.363   4.546
75515SOL     OW28441   3.109  11.427   7.245
75515SOL    HW128442   3.170  11.501   7.249
75515SOL    HW228443   3.024  11.466   7.265
75516SOL     OW28444   9.488   6.583   2.394
75516SOL    HW128445   9.485   6.582   2.489
75516SOL    HW228446   9.478   6.676   2.371
75517SOL     OW28447   9.136  13.068  12.706
75517SOL    HW128448   9.091  13.152  12.713
75517SOL    HW228449   9.077  13.006  12.749
75518SOL     OW28450  14.787   8.071  13.869
75518SOL    HW128451  14.822   7.998  13.919
75518SOL    HW228452  14.792   8.043  13.778
75519SOL     OW28453   0.047   2.314   6.280
75519SOL    HW128454   0.064   2.226   6.247
75519SOL    HW228455   0.129   2.341   6.320
75520SOL     OW28456  13.517  12.345   6.663
75520SOL    HW128457  13.445  12.302   6.709
75520SOL    HW228458  13.561  12.274   6.616
75521SOL     OW28459   8.912   0.968   4.888
75521SOL    HW128460   8.854   0.973   4.812
75521SOL    HW228461   8.995   1.002   4.857
75522SOL     OW28462   9.820   8.692   3.555
75522SOL    HW128463   9.734   8.695   3.514
75522SOL    HW228464   9.880   8.674   3.482
75523SOL     OW28465  14.776   7.281  11.255
75523SOL    HW128466  14.798   7.363  11.212
75523SOL    HW228467  14.682   7.286  11.271
75524SOL     OW28468   6.142   1.844   3.003
75524SOL    HW128469   6.200   1.800   3.065
75524SOL    HW228470   6.171   1.935   3.003
75525SOL     OW28471   1.826   5.164  10.113
75525SOL    HW128472   1.811   5.124  10.027
75525SOL    HW228473   1.739   5.174  10.150
75526SOL     OW28474   1.440   9.824  11.882
75526SOL    HW128475   1.372   9.864  11.827
75526SOL    HW228476   1.500   9.784  11.819
75527SOL     OW28477   2.298   4.843  10.526
75527SOL    HW128478   2.289   4.938  10.522
75527SOL    HW228479   2.384   4.824  10.489
75528SOL     OW28480  12.423   0.514  14.232
75528SOL    HW128481  12.404   0.421  14.241
75528SOL    HW228482  12.349   0.557  14.275
75529SOL     OW28483   7.450  12.122   6.999
75529SOL    HW128484   7.436  12.132   7.094
75529SOL    HW228485   7.362  12.103   6.964
75530SOL     OW28486   9.618   8.380  10.339
75530SOL    HW128487   9.703   8.359  10.377
75530SOL    HW228488   9.565   8.411  10.413
75531SOL     OW28489   7.424   7.175   6.170
75531SOL    HW128490   7.407   7.245   6.108
75531SOL    HW228491   7.341   7.130   6.179
75532SOL     OW28492   2.279   9.050   0.121
75532SOL    HW128493   2.304   9.031   0.211
75532SOL    HW228494   2.184   9.061   0.124
75533SOL     OW28495  14.760   4.258   5.525
75533SOL    HW128496  14.664   4.257   5.529
75533SOL    HW228497  14.781   4.321   5.457
75534SOL     OW28498  13.204   7.084   9.570
75534SOL    HW128499  13.203   6.988   9.573
75534SOL    HW228500  13.234   7.105   9.482
75535SOL     OW28501  13.387  14.255   6.278
75535SOL    HW128502  13.316  14.228   6.220
75535SOL    HW228503  13.348  14.321   6.335
75536SOL     OW28504   5.958  14.651   1.294
75536SOL    HW128505   5.976  14.574   1.240
75536SOL    HW228506   6.000  14.723   1.248
75537SOL     OW28507   5.026   2.772   8.242
75537SOL    HW128508   5.090   2.703   8.256
75537SOL    HW228509   4.983   2.782   8.327
75538SOL     OW28510   4.616  14.632   4.359
75538SOL    HW128511   4.611  14.546   4.401
75538SOL    HW228512   4.591  14.694   4.429
75539SOL     OW28513  14.221   9.363   9.569
75539SOL    HW128514  14.130   9.391   9.569
75539SOL    HW228515  14.216   9.267   9.565
75540SOL     OW28516  13.021   7.826  14.018
75540SOL    HW128517  13.079   7.862  14.085
75540SOL    HW228518  12.985   7.902  13.973
75541SOL     OW28519  12.198   2.914   4.247
75541SOL    HW128520  12.182   2.898   4.340
75541SOL    HW228521  12.165   3.003   4.232
75542SOL     OW28522   9.135   7.107   4.861
75542SOL    HW128523   9.144   7.156   4.942
75542SOL    HW228524   9.207   7.137   4.806
75543SOL     OW28525   5.813   4.230   1.920
75543SOL    HW128526   5.792   4.157   1.978
75543SOL    HW228527   5.728   4.271   1.901
75544SOL     OW28528  12.113   9.586   1.012
75544SOL    HW128529  12.071   9.543   1.086
75544SOL    HW228530  12.170   9.519   0.974
75545SOL     OW28531  14.606   5.476  12.064
75545SOL    HW128532  14.572   5.388  12.049
75545SOL    HW228533  14.531   5.534  12.048
75546SOL     OW28534   9.665  12.738   9.871
75546SOL    HW128535   9.666  12.712   9.963
75546SOL    HW228536   9.685  12.831   9.873
75547SOL     OW28537   8.087   1.980   7.388
75547SOL    HW128538   8.165   2.014   7.430
75547SOL    HW228539   8.095   1.885   7.394
75548SOL     OW28540   5.438  10.904  14.285
75548SOL    HW128541   5.512  10.855  14.323
75548SOL    HW228542   5.480  10.971  14.231
75549SOL     OW28543  13.561  12.137   9.067
75549SOL    HW128544  13.508  12.062   9.041
75549SOL    HW228545  13.499  12.209   9.075
75550SOL     OW28546   5.638   6.723  11.491
75550SOL    HW128547   5.607   6.691  11.407
75550SOL    HW228548   5.635   6.818  11.483
75551SOL     OW28549  11.267   6.697   1.902
75551SOL    HW128550  11.360   6.694   1.880
75551SOL    HW228551  11.251   6.615   1.948
75552SOL     OW28552   1.901   9.100  10.486
75552SOL    HW128553   1.990   9.083  10.456
75552SOL    HW228554   1.858   9.143  10.412
75553SOL     OW28555   9.486  13.109   9.547
75553SOL    HW128556   9.573  13.100   9.509
75553SOL    HW228557   9.483  13.200   9.578
75554SOL     OW28558  13.311   0.113   9.649
75554SOL    HW128559  13.398   0.076   9.635
75554SOL    HW228560  13.277   0.129   9.561
75555SOL     OW28561   6.891  13.846   4.281
75555SOL    HW128562   6.877  13.916   4.217
75555SOL    HW228563   6.983  13.855   4.307
75556SOL     OW28564   6.336   5.313   3.374
75556SOL    HW128565   6.300   5.343   3.291
75556SOL    HW228566   6.262   5.312   3.434
75557SOL     OW28567  14.265   5.650   7.321
75557SOL    HW128568  14.331   5.624   7.386
75557SOL    HW228569  14.272   5.745   7.318
75558SOL     OW28570   6.763   4.832   7.862
75558SOL    HW128571   6.696   4.896   7.836
75558SOL    HW228572   6.830   4.837   7.794
75559SOL     OW28573  11.192  10.459   5.303
75559SOL    HW128574  11.256  10.503   5.358
75559SOL    HW228575  11.244  10.405   5.243
75560SOL     OW28576  13.608   6.970  11.911
75560SOL    HW128577  13.521   7.009  11.904
75560SOL    HW228578  13.658   7.034  11.963
75561SOL     OW28579  12.132   5.806  11.139
75561SOL    HW128580  12.114   5.715  11.162
75561SOL    HW228581  12.046   5.846  11.129
75562SOL     OW28582   1.769   1.394   1.358
75562SOL    HW128583   1.772   1.299   1.358
75562SOL    HW228584   1.719   1.417   1.436
75563SOL     OW28585   4.539  10.473  10.922
75563SOL    HW128586   4.505  10.428  10.999
75563SOL    HW228587   4.544  10.405  10.854
75564SOL     OW28588   3.094   2.621   6.353
75564SOL    HW128589   3.125   2.560   6.285
75564SOL    HW228590   3.025   2.573   6.399
75565SOL     OW28591   4.236   0.227   5.437
75565SOL    HW128592   4.300   0.230   5.508
75565SOL    HW228593   4.223   0.319   5.413
75566SOL     OW28594   1.602  13.958  12.089
75566SOL    HW128595   1.577  14.043  12.054
75566SOL    HW228596   1.546  13.896  12.044
75567SOL     OW28597   8.661   0.642  10.220
75567SOL    HW128598   8.573   0.659  10.186
75567SOL    HW228599   8.649   0.570  10.281
75568SOL     OW28600   9.870   7.804  13.623
75568SOL    HW128601   9.888   7.761  13.540
75568SOL    HW228602   9.954   7.802  13.669
75569SOL     OW28603   9.235   6.217   0.076
75569SOL    HW128604   9.304   6.152   0.088
75569SOL    HW228605   9.264   6.268   0.000
75570SOL     OW28606   1.165   3.424   8.276
75570SOL    HW128607   1.252   3.382   8.279
75570SOL    HW228608   1.134   3.419   8.367
75571SOL     OW28609  13.372   1.026  13.085
75571SOL    HW128610  13.415   0.949  13.048
75571SOL    HW228611  13.288   1.030  13.041
75572SOL     OW28612   3.580   9.828   2.118
75572SOL    HW128613   3.653   9.767   2.123
75572SOL    HW228614   3.581   9.859   2.027
75573SOL     OW28615  11.233  13.574   1.403
75573SOL    HW128616  11.141  13.595   1.417
75573SOL    HW228617  11.258  13.623   1.325
75574SOL     OW28618  11.355  14.401  12.881
75574SOL    HW128619  11.399  14.359  12.807
75574SOL    HW228620  11.424  14.452  12.924
75575SOL     OW28621   6.002  13.727   6.007
75575SOL    HW128622   6.059  13.651   6.015
75575SOL    HW228623   6.045  13.782   5.941
75576SOL     OW28624   7.739   1.670   4.086
75576SOL    HW128625   7.820   1.720   4.102
75576SOL    HW228626   7.764   1.579   4.102
75577SOL     OW28627   5.569   2.864   2.032
75577SOL    HW128628   5.595   2.822   1.950
75577SOL    HW228629   5.639   2.844   2.093
75578SOL     OW28630   7.629  11.491   4.960
75578SOL    HW128631   7.543  11.480   4.919
75578SOL    HW228632   7.691  11.488   4.888
75579SOL     OW28633   4.713   7.383   7.362
75579SOL    HW128634   4.748   7.365   7.275
75579SOL    HW228635   4.788   7.410   7.414
75580SOL     OW28636   6.826   1.732  13.945
75580SOL    HW128637   6.888   1.727  13.872
75580SOL    HW228638   6.878   1.709  14.022
75581SOL     OW28639   2.355   8.602  12.217
75581SOL    HW128640   2.334   8.695  12.211
75581SOL    HW228641   2.450   8.599  12.227
75582SOL     OW28642  13.904   5.961   1.902
75582SOL    HW128643  13.888   5.934   1.812
75582SOL    HW228644  13.922   5.879   1.948
75583SOL     OW28645  14.117   1.260   8.718
75583SOL    HW128646  14.084   1.336   8.669
75583SOL    HW228647  14.143   1.197   8.650
75584SOL     OW28648   0.889   6.644  11.739
75584SOL    HW128649   0.878   6.726  11.787
75584SOL    HW228650   0.801   6.605  11.737
75585SOL     OW28651   3.271   3.267  14.111
75585SOL    HW128652   3.235   3.198  14.056
75585SOL    HW228653   3.214   3.270  14.188
75586SOL     OW28654   9.620  13.654   2.467
75586SOL    HW128655   9.686  13.719   2.493
75586SOL    HW228656   9.622  13.654   2.371
75587SOL     OW28657   2.013  13.543  12.067
75587SOL    HW128658   1.956  13.529  12.143
75587SOL    HW228659   2.096  13.571  12.104
75588SOL     OW28660  10.317  10.811  12.673
75588SOL    HW128661  10.380  10.800  12.602
75588SOL    HW228662  10.331  10.735  12.730
75589SOL     OW28663  12.293   4.139   5.878
75589SOL    HW128664  12.288   4.155   5.784
75589SOL    HW228665  12.302   4.044   5.885
75590SOL     OW28666  13.449   3.134   1.776
75590SOL    HW128667  13.442   3.039   1.785
75590SOL    HW228668  13.542   3.150   1.764
75591SOL     OW28669   1.790  11.928   1.261
75591SOL    HW128670   1.733  12.001   1.283
75591SOL    HW228671   1.775  11.913   1.168
75592SOL     OW28672   7.689  12.994  12.481
75592SOL    HW128673   7.692  12.928  12.551
75592SOL    HW228674   7.754  12.963  12.417
75593SOL     OW28675   2.917   9.627  10.821
75593SOL    HW128676   2.856   9.557  10.846
75593SOL    HW228677   2.911   9.632  10.726
75594SOL     OW28678   6.955   1.627  14.164
75594SOL    HW128679   7.047   1.653  14.163
75594SOL    HW228680   6.931   1.627  14.256
75595SOL     OW28681   2.262  11.597   2.826
75595SOL    HW128682   2.197  11.530   2.847
75595SOL    HW228683   2.255  11.661   2.897
75596SOL     OW28684   3.727   9.765   2.964
75596SOL    HW128685   3.810   9.730   2.932
75596SOL    HW228686   3.730   9.751   3.059
75597SOL     OW28687  12.353  12.695   3.419
75597SOL    HW128688  12.323  12.664   3.334
75597SOL    HW228689  12.273  12.705   3.471
75598SOL     OW28690   6.148   1.767  14.823
75598SOL    HW128691   6.117   1.767  14.732
75598SOL    HW228692   6.085   1.711  14.869
75599SOL     OW28693  13.659  14.796   5.315
75599SOL    HW128694  13.641  14.747   5.396
75599SOL    HW228695  13.754  14.806   5.315
75600SOL     OW28696  11.518  13.946   5.468
75600SOL    HW128697  11.524  14.031   5.512
75600SOL    HW228698  11.481  13.967   5.382
75601SOL     OW28699  14.504   6.103   1.812
75601SOL    HW128700  14.491   6.118   1.905
75601SOL    HW228701  14.418   6.073   1.781
75602SOL     OW28702  13.351  14.763   0.970
75602SOL    HW128703  13.279  14.707   0.941
75602SOL    HW228704  13.368  14.821   0.896
75603SOL     OW28705  11.036  14.663  11.415
75603SOL    HW128706  11.037  14.727  11.486
75603SOL    HW228707  10.994  14.709  11.342
75604SOL     OW28708   6.285   7.332  12.326
75604SOL    HW128709   6.379   7.351  12.332
75604SOL    HW228710   6.280   7.256  12.268
75605SOL     OW28711   6.938  13.736  13.870
75605SOL    HW128712   7.020  13.783  13.886
75605SOL    HW228713   6.958  13.679  13.795
75606SOL     OW28714  11.261   7.600  13.595
75606SOL    HW128715  11.356   7.606  13.581
75606SOL    HW228716  11.240   7.675  13.650
75607SOL     OW28717   0.301  12.664   5.744
75607SOL    HW128718   0.231  12.722   5.772
75607SOL    HW228719   0.327  12.695   5.658
75608SOL     OW28720   5.841   8.998   9.485
75608SOL    HW128721   5.823   9.066   9.550
75608SOL    HW228722   5.930   9.016   9.456
75609SOL     OW28723   4.729   4.781  13.803
75609SOL    HW128724   4.726   4.728  13.882
75609SOL    HW228725   4.705   4.869  13.832
75610SOL     OW28726   2.983   8.466  11.619
75610SOL    HW128727   2.956   8.398  11.681
75610SOL    HW228728   3.075   8.446  11.600
75611SOL     OW28729  11.608   6.445   5.526
75611SOL    HW128730  11.643   6.411   5.609
75611SOL    HW228731  11.513   6.446   5.538
75612SOL     OW28732   6.053   7.663  13.645
75612SOL    HW128733   6.019   7.752  13.634
75612SOL    HW228734   5.978   7.613  13.676
75613SOL     OW28735  11.280  13.172   2.432
75613SOL    HW128736  11.328  13.089   2.437
75613SOL    HW228737  11.198  13.155   2.478
75614SOL     OW28738   4.636   9.128   1.177
75614SOL    HW128739   4.592   9.196   1.126
75614SOL    HW228740   4.565   9.077   1.216
75615SOL     OW28741   6.694  14.353  13.155
75615SOL    HW128742   6.736  14.339  13.071
75615SOL    HW228743   6.766  14.353  13.218
75616SOL     OW28744   3.007  13.384   7.724
75616SOL    HW128745   2.960  13.334   7.657
75616SOL    HW228746   2.996  13.334   7.804
75617SOL     OW28747   5.070   5.458   8.425
75617SOL    HW128748   5.113   5.434   8.342
75617SOL    HW228749   5.064   5.375   8.473
75618SOL     OW28750   8.320   4.135   8.828
75618SOL    HW128751   8.405   4.172   8.852
75618SOL    HW228752   8.294   4.182   8.749
75619SOL     OW28753   5.519  13.484  10.551
75619SOL    HW128754   5.450  13.464  10.614
75619SOL    HW228755   5.600  13.473  10.601
75620SOL     OW28756  12.125  12.044   1.526
75620SOL    HW128757  12.198  12.014   1.580
75620SOL    HW228758  12.048  12.035   1.582
75621SOL     OW28759   2.413  11.553   0.628
75621SOL    HW128760   2.390  11.507   0.547
75621SOL    HW228761   2.357  11.512   0.695
75622SOL     OW28762   4.668   1.034   9.143
75622SOL    HW128763   4.620   0.980   9.206
75622SOL    HW228764   4.601   1.065   9.082
75623SOL     OW28765   1.891   7.163   2.806
75623SOL    HW128766   1.815   7.170   2.748
75623SOL    HW228767   1.961   7.130   2.750
75624SOL     OW28768   6.942   1.847  12.903
75624SOL    HW128769   7.002   1.918  12.925
75624SOL    HW228770   6.958   1.831  12.810
75625SOL     OW28771   0.190  11.135   6.955
75625SOL    HW128772   0.276  11.094   6.961
75625SOL    HW228773   0.196  11.211   7.014
75626SOL     OW28774  13.529   2.458  14.158
75626SOL    HW128775  13.576   2.409  14.091
75626SOL    HW228776  13.586   2.455  14.235
75627SOL     OW28777   3.464   8.284  14.474
75627SOL    HW128778   3.434   8.239  14.395
75627SOL    HW228779   3.385   8.321  14.513
75628SOL     OW28780   2.282  11.848   8.107
75628SOL    HW128781   2.293  11.943   8.113
75628SOL    HW228782   2.370  11.814   8.090
75629SOL     OW28783   6.983   8.417  12.582
75629SOL    HW128784   7.026   8.331  12.585
75629SOL    HW228785   7.027   8.463  12.511
75630SOL     OW28786   6.990   7.552   2.034
75630SOL    HW128787   7.022   7.495   1.964
75630SOL    HW228788   6.915   7.597   1.996
75631SOL     OW28789   5.615   8.933   0.480
75631SOL    HW128790   5.685   8.871   0.460
75631SOL    HW228791   5.540   8.879   0.502
75632SOL     OW28792  12.076  14.518  14.308
75632SOL    HW128793  12.045  14.538  14.396
75632SOL    HW228794  12.166  14.488  14.320
75633SOL     OW28795   0.096   6.660   3.895
75633SOL    HW128796   0.098   6.755   3.902
75633SOL    HW228797   0.184   6.633   3.921
75634SOL     OW28798  11.687   8.067   5.334
75634SOL    HW128799  11.691   8.083   5.240
75634SOL    HW228800  11.744   7.991   5.348
75635SOL     OW28801  12.237   8.288  13.758
75635SOL    HW128802  12.240   8.251  13.670
75635SOL    HW228803  12.305   8.241  13.806
75636SOL     OW28804   4.129   8.654   4.966
75636SOL    HW128805   4.040   8.685   4.985
75636SOL    HW228806   4.181   8.734   4.960
75637SOL     OW28807  12.701   2.977   3.100
75637SOL    HW128808  12.788   3.006   3.074
75637SOL    HW228809  12.655   2.960   3.018
75638SOL     OW28810  10.572   0.398   3.750
75638SOL    HW128811  10.556   0.430   3.661
75638SOL    HW228812  10.488   0.409   3.794
75639SOL     OW28813  10.561   8.837   5.418
75639SOL    HW128814  10.536   8.768   5.357
75639SOL    HW228815  10.505   8.911   5.395
75640SOL     OW28816   1.031   0.685   5.593
75640SOL    HW128817   1.043   0.593   5.613
75640SOL    HW228818   1.119   0.721   5.589
75641SOL     OW28819   3.251   4.476  10.226
75641SOL    HW128820   3.191   4.415  10.269
75641SOL    HW228821   3.195   4.534  10.175
75642SOL     OW28822   2.413   7.675   5.245
75642SOL    HW128823   2.444   7.704   5.331
75642SOL    HW228824   2.453   7.589   5.233
75643SOL     OW28825  14.829   5.307  14.175
75643SOL    HW128826  14.764   5.263  14.229
75643SOL    HW228827   0.041   5.281  14.212
75644SOL     OW28828   8.403  14.251  11.577
75644SOL    HW128829   8.338  14.321  11.581
75644SOL    HW228830   8.485  14.293  11.603
75645SOL     OW28831   0.393   1.940   9.998
75645SOL    HW128832   0.460   1.941   9.929
75645SOL    HW228833   0.329   2.005   9.969
75646SOL     OW28834   9.546   0.885  14.266
75646SOL    HW128835   9.601   0.817  14.306
75646SOL    HW228836   9.605   0.932  14.207
75647SOL     OW28837   6.473   0.394   1.784
75647SOL    HW128838   6.453   0.487   1.796
75647SOL    HW228839   6.408   0.363   1.720
75648SOL     OW28840   9.356  13.695   2.503
75648SOL    HW128841   9.452  13.691   2.506
75648SOL    HW228842   9.335  13.683   2.410
75649SOL     OW28843  14.692  13.028   5.620
75649SOL    HW128844  14.614  13.028   5.564
75649SOL    HW228845  14.661  13.058   5.705
75650SOL     OW28846   2.583   6.420  11.840
75650SOL    HW128847   2.530   6.497  11.818
75650SOL    HW228848   2.555   6.397  11.929
75651SOL     OW28849   5.076   8.453  14.307
75651SOL    HW128850   5.049   8.520  14.244
75651SOL    HW228851   5.005   8.449  14.371
75652SOL     OW28852   8.302   7.810   4.543
75652SOL    HW128853   8.358   7.850   4.610
75652SOL    HW228854   8.289   7.721   4.574
75653SOL     OW28855   4.445   7.793   3.034
75653SOL    HW128856   4.511   7.829   3.094
75653SOL    HW228857   4.365   7.789   3.086
75654SOL     OW28858  14.170   9.470  10.861
75654SOL    HW128859  14.193   9.390  10.814
75654SOL    HW228860  14.238   9.532  10.838
75655SOL     OW28861   2.276   6.800  10.770
75655SOL    HW128862   2.244   6.727  10.718
75655SOL    HW228863   2.367   6.777  10.790
75656SOL     OW28864   1.726  10.516   0.817
75656SOL    HW128865   1.732  10.482   0.728
75656SOL    HW228866   1.636  10.498   0.845
75657SOL     OW28867  13.080  11.531   0.995
75657SOL    HW128868  13.129  11.522   0.913
75657SOL    HW228869  13.003  11.476   0.983
75658SOL     OW28870   4.819  11.375   8.947
75658SOL    HW128871   4.910  11.403   8.934
75658SOL    HW228872   4.776  11.450   8.988
75659SOL     OW28873   3.544  13.425   6.863
75659SOL    HW128874   3.512  13.514   6.876
75659SOL    HW228875   3.558  13.391   6.951
75660SOL     OW28876   1.121   5.463   9.016
75660SOL    HW128877   1.206   5.504   9.034
75660SOL    HW228878   1.116   5.390   9.077
75661SOL     OW28879   4.745   9.311  10.165
75661SOL    HW128880   4.821   9.357  10.129
75661SOL    HW228881   4.672   9.371  10.153
75662SOL     OW28882   0.528   0.593  13.760
75662SOL    HW128883   0.461   0.644  13.714
75662SOL    HW228884   0.610   0.640  13.742
75663SOL     OW28885  12.620  10.742  10.346
75663SOL    HW128886  12.639  10.747  10.253
75663SOL    HW228887  12.665  10.818  10.384
75664SOL     OW28888   0.872   4.563   0.781
75664SOL    HW128889   0.853   4.580   0.688
75664SOL    HW228890   0.804   4.500   0.808
75665SOL     OW28891  13.366   0.629   4.778
75665SOL    HW128892  13.315   0.710   4.765
75665SOL    HW228893  13.316   0.581   4.844
75666SOL     OW28894   5.089  12.558   6.644
75666SOL    HW128895   5.160  12.554   6.708
75666SOL    HW228896   5.116  12.626   6.582
75667SOL     OW28897  11.920   7.380   9.536
75667SOL    HW128898  11.953   7.293   9.560
75667SOL    HW228899  11.965   7.440   9.597
75668SOL     OW28900   7.432   0.214   6.891
75668SOL    HW128901   7.422   0.260   6.808
75668SOL    HW228902   7.344   0.180   6.909
75669SOL     OW28903   0.792  11.660   1.794
75669SOL    HW128904   0.743  11.581   1.772
75669SOL    HW228905   0.879  11.646   1.757
75670SOL     OW28906  11.826   6.099   4.710
75670SOL    HW128907  11.832   6.185   4.669
75670SOL    HW228908  11.909   6.056   4.688
75671SOL     OW28909   3.419  10.786  11.976
75671SOL    HW128910   3.465  10.754  12.053
75671SOL    HW228911   3.406  10.708  11.922
75672SOL     OW28912   0.461   8.644   0.363
75672SOL    HW128913   0.503   8.716   0.316
75672SOL    HW228914   0.368   8.654   0.343
75673SOL     OW28915   8.885   0.977   8.640
75673SOL    HW128916   8.940   1.048   8.673
75673SOL    HW228917   8.806   0.982   8.694
75674SOL     OW28918  10.363  14.476   4.172
75674SOL    HW128919  10.402  14.457   4.087
75674SOL    HW228920  10.279  14.517   4.151
75675SOL     OW28921   0.716   6.384   9.686
75675SOL    HW128922   0.740   6.472   9.659
75675SOL    HW228923   0.786   6.357   9.745
75676SOL     OW28924   0.192   5.841  13.594
75676SOL    HW128925   0.208   5.905  13.525
75676SOL    HW228926   0.169   5.893  13.671
75677SOL     OW28927   9.592  12.782   5.467
75677SOL    HW128928   9.551  12.705   5.427
75677SOL    HW228929   9.520  12.843   5.480
75678SOL     OW28930  12.171   1.576  12.772
75678SOL    HW128931  12.200   1.503  12.717
75678SOL    HW228932  12.122   1.534  12.843
75679SOL     OW28933  14.726  13.368   3.894
75679SOL    HW128934  14.718  13.273   3.906
75679SOL    HW228935  14.691  13.384   3.806
75680SOL     OW28936   0.201  13.393  11.374
75680SOL    HW128937   0.271  13.328  11.381
75680SOL    HW228938   0.197  13.434  11.460
75681SOL     OW28939  11.550   9.852   0.319
75681SOL    HW128940  11.528   9.762   0.296
75681SOL    HW228941  11.635   9.845   0.362
75682SOL     OW28942   4.614   9.826   3.841
75682SOL    HW128943   4.691   9.799   3.791
75682SOL    HW228944   4.634   9.914   3.871
75683SOL     OW28945   8.180  11.454  13.107
75683SOL    HW128946   8.262  11.479  13.149
75683SOL    HW228947   8.117  11.446  13.179
75684SOL     OW28948   2.481   7.689  13.428
75684SOL    HW128949   2.562   7.694  13.377
75684SOL    HW228950   2.431   7.619  13.387
75685SOL     OW28951  11.376  12.665  11.688
75685SOL    HW128952  11.319  12.659  11.765
75685SOL    HW228953  11.445  12.726  11.714
75686SOL     OW28954   1.902   4.670  13.637
75686SOL    HW128955   1.811   4.642  13.636
75686SOL    HW228956   1.898   4.766  13.635
75687SOL     OW28957   9.879  14.509   6.262
75687SOL    HW128958   9.944  14.536   6.327
75687SOL    HW228959   9.822  14.449   6.309
75688SOL     OW28960  14.449   8.934   1.779
75688SOL    HW128961  14.401   8.859   1.814
75688SOL    HW228962  14.390   8.971   1.713
75689SOL     OW28963  13.699  14.166   8.438
75689SOL    HW128964  13.693  14.261   8.449
75689SOL    HW228965  13.647  14.148   8.360
75690SOL     OW28966   3.577   0.441  10.088
75690SOL    HW128967   3.571   0.527  10.047
75690SOL    HW228968   3.661   0.442  10.134
75691SOL     OW28969  11.469  14.244   2.742
75691SOL    HW128970  11.374  14.235   2.747
75691SOL    HW228971  11.487  14.255   2.649
75692SOL     OW28972  14.555  11.399   5.339
75692SOL    HW128973  14.619  11.350   5.288
75692SOL    HW228974  14.496  11.436   5.274
75693SOL     OW28975   9.236  10.164   1.256
75693SOL    HW128976   9.195  10.193   1.337
75693SOL    HW228977   9.305  10.229   1.239
75694SOL     OW28978   8.019   4.511   7.811
75694SOL    HW128979   7.950   4.483   7.871
75694SOL    HW228980   8.007   4.455   7.734
75695SOL     OW28981  13.197   2.532   8.888
75695SOL    HW128982  13.220   2.470   8.818
75695SOL    HW228983  13.276   2.585   8.899
75696SOL     OW28984   6.983  13.928  12.726
75696SOL    HW128985   7.072  13.963  12.723
75696SOL    HW228986   6.934  13.990  12.780
75697SOL     OW28987   4.126   9.014   5.548
75697SOL    HW128988   4.169   8.933   5.520
75697SOL    HW228989   4.172   9.083   5.501
75698SOL     OW28990   3.732   8.642  11.512
75698SOL    HW128991   3.718   8.701  11.586
75698SOL    HW228992   3.821   8.661  11.482
75699SOL     OW28993   4.158  11.230   8.233
75699SOL    HW128994   4.089  11.173   8.199
75699SOL    HW228995   4.187  11.280   8.157
75700SOL     OW28996  11.127  14.813  10.034
75700SOL    HW128997  11.167   0.015  10.078
75700SOL    HW228998  11.196  14.748  10.027
75701SOL     OW28999  13.830   1.135   5.471
75701SOL    HW129000  13.891   1.209   5.461
75701SOL    HW229001  13.817   1.129   5.566
75702SOL     OW29002  10.163   1.354   6.643
75702SOL    HW129003  10.248   1.386   6.613
75702SOL    HW229004  10.116   1.433   6.670
75703SOL     OW29005   9.874   5.919  10.554
75703SOL    HW129006   9.814   5.973  10.606
75703SOL    HW229007   9.842   5.927  10.464
75704SOL     OW29008   2.487   1.110   8.424
75704SOL    HW129009   2.487   1.104   8.520
75704SOL    HW229010   2.408   1.062   8.398
75705SOL     OW29011  11.017   1.954  13.097
75705SOL    HW129012  10.965   2.033  13.082
75705SOL    HW229013  10.972   1.909  13.169
75706SOL     OW29014   9.551   0.997   4.338
75706SOL    HW129015   9.471   1.049   4.343
75706SOL    HW229016   9.542   0.946   4.257
75707SOL     OW29017   8.715   4.410   0.793
75707SOL    HW129018   8.654   4.337   0.779
75707SOL    HW229019   8.727   4.412   0.888
75708SOL     OW29020   3.441  13.469   2.313
75708SOL    HW129021   3.477  13.449   2.226
75708SOL    HW229022   3.356  13.426   2.313
75709SOL     OW29023   5.527   3.462   5.774
75709SOL    HW129024   5.475   3.505   5.706
75709SOL    HW229025   5.471   3.465   5.852
75710SOL     OW29026  10.858   4.375   4.420
75710SOL    HW129027  10.765   4.377   4.399
75710SOL    HW229028  10.902   4.387   4.335
75711SOL     OW29029  10.786  10.598   7.107
75711SOL    HW129030  10.779  10.533   7.037
75711SOL    HW229031  10.793  10.682   7.061
75712SOL     OW29032   2.308  10.703   4.811
75712SOL    HW129033   2.334  10.723   4.721
75712SOL    HW229034   2.324  10.785   4.859
75713SOL     OW29035   6.387   8.403   9.099
75713SOL    HW129036   6.460   8.352   9.064
75713SOL    HW229037   6.309   8.357   9.066
75714SOL     OW29038  13.289   4.050   2.266
75714SOL    HW129039  13.333   4.019   2.187
75714SOL    HW229040  13.196   4.046   2.245
75715SOL     OW29041   5.723  13.165   3.036
75715SOL    HW129042   5.745  13.073   3.052
75715SOL    HW229043   5.627  13.166   3.036
75716SOL     OW29044   6.989   3.953   4.430
75716SOL    HW129045   6.918   3.912   4.479
75716SOL    HW229046   7.069   3.918   4.471
75717SOL     OW29047   8.815  13.375   0.033
75717SOL    HW129048   8.782  13.367   0.122
75717SOL    HW229049   8.737  13.380  14.850
75718SOL     OW29050   2.255  14.096   5.420
75718SOL    HW129051   2.261  14.001   5.410
75718SOL    HW229052   2.199  14.108   5.497
75719SOL     OW29053  11.694   7.205  14.209
75719SOL    HW129054  11.769   7.198  14.151
75719SOL    HW229055  11.640   7.129  14.188
75720SOL     OW29056   8.057   2.987   3.572
75720SOL    HW129057   7.974   2.968   3.529
75720SOL    HW229058   8.100   2.902   3.580
75721SOL     OW29059   8.220  10.746   7.377
75721SOL    HW129060   8.269  10.824   7.404
75721SOL    HW229061   8.288  10.681   7.356
75722SOL     OW29062  11.423   2.655   2.438
75722SOL    HW129063  11.430   2.655   2.534
75722SOL    HW229064  11.331   2.636   2.422
75723SOL     OW29065   4.734   4.357   1.490
75723SOL    HW129066   4.649   4.371   1.532
75723SOL    HW229067   4.741   4.262   1.479
75724SOL     OW29068   6.229   5.091  13.134
75724SOL    HW129069   6.251   5.167  13.080
75724SOL    HW229070   6.134   5.096  13.144
75725SOL     OW29071  12.403   5.634   4.235
75725SOL    HW129072  12.408   5.637   4.140
75725SOL    HW229073  12.418   5.542   4.257
75726SOL     OW29074   4.038   6.420   9.631
75726SOL    HW129075   3.965   6.460   9.679
75726SOL    HW229076   4.003   6.404   9.543
75727SOL     OW29077  14.448   0.415   9.320
75727SOL    HW129078  14.415   0.437   9.233
75727SOL    HW229079  14.542   0.403   9.309
75728SOL     OW29080  11.339   8.711   5.898
75728SOL    HW129081  11.430   8.742   5.900
75728SOL    HW229082  11.317   8.708   5.805
75729SOL     OW29083   0.060  11.159  12.090
75729SOL    HW129084   0.140  11.206  12.067
75729SOL    HW229085   0.057  11.085  12.029
75730SOL     OW29086   8.050  12.729   5.594
75730SOL    HW129087   7.956  12.735   5.610
75730SOL    HW229088   8.078  12.652   5.644
75731SOL     OW29089   5.881   9.325   9.610
75731SOL    HW129090   5.955   9.348   9.666
75731SOL    HW229091   5.848   9.408   9.577
75732SOL     OW29092   1.997   6.863  14.133
75732SOL    HW129093   1.977   6.907  14.050
75732SOL    HW229094   1.915   6.817  14.156
75733SOL     OW29095   0.337  13.475   0.075
75733SOL    HW129096   0.405  13.492   0.010
75733SOL    HW229097   0.340  13.381   0.090
75734SOL     OW29098  12.550  10.885   8.055
75734SOL    HW129099  12.522  10.821   7.990
75734SOL    HW229100  12.494  10.962   8.040
75735SOL     OW29101   9.268  13.510   1.795
75735SOL    HW129102   9.194  13.457   1.824
75735SOL    HW229103   9.335  13.497   1.862
75736SOL     OW29104  12.064  13.219   6.445
75736SOL    HW129105  12.065  13.277   6.369
75736SOL    HW229106  12.137  13.249   6.499
75737SOL     OW29107   2.463  10.241   9.823
75737SOL    HW129108   2.519  10.249   9.901
75737SOL    HW229109   2.525  10.228   9.751
75738SOL     OW29110  13.736   3.457  12.059
75738SOL    HW129111  13.685   3.520  12.110
75738SOL    HW229112  13.724   3.484  11.968
75739SOL     OW29113   6.929   0.341   3.655
75739SOL    HW129114   6.871   0.364   3.583
75739SOL    HW229115   6.899   0.255   3.684
75740SOL     OW29116   1.936   2.892   1.029
75740SOL    HW129117   1.986   2.854   0.958
75740SOL    HW229118   2.001   2.940   1.081
75741SOL     OW29119  13.478  13.901   7.272
75741SOL    HW129120  13.555  13.890   7.217
75741SOL    HW229121  13.421  13.959   7.221
75742SOL     OW29122  11.013   2.164   8.971
75742SOL    HW129123  11.043   2.102   8.904
75742SOL    HW229124  10.937   2.122   9.010
75743SOL     OW29125   6.787  10.779  12.554
75743SOL    HW129126   6.694  10.798  12.542
75743SOL    HW229127   6.798  10.690  12.522
75744SOL     OW29128   3.485   9.523   5.828
75744SOL    HW129129   3.536   9.495   5.752
75744SOL    HW229130   3.440   9.602   5.798
75745SOL     OW29131   0.870   0.511   4.188
75745SOL    HW129132   0.824   0.461   4.121
75745SOL    HW229133   0.900   0.445   4.251
75746SOL     OW29134  14.386   6.425  12.106
75746SOL    HW129135  14.313   6.481  12.082
75746SOL    HW229136  14.351   6.366  12.172
75747SOL     OW29137   3.036   8.853   5.859
75747SOL    HW129138   3.099   8.894   5.800
75747SOL    HW229139   3.073   8.866   5.946
75748SOL     OW29140   0.751   1.905   2.595
75748SOL    HW129141   0.700   1.945   2.666
75748SOL    HW229142   0.837   1.945   2.603
75749SOL     OW29143  11.079   4.563   1.372
75749SOL    HW129144  11.008   4.505   1.399
75749SOL    HW229145  11.122   4.589   1.453
75750SOL     OW29146  11.388   8.036  10.936
75750SOL    HW129147  11.345   8.120  10.951
75750SOL    HW229148  11.319   7.978  10.905
75751SOL     OW29149  11.859  14.094   4.940
75751SOL    HW129150  11.903  14.118   5.022
75751SOL    HW229151  11.766  14.090   4.963
75752SOL     OW29152   1.320   7.532   8.212
75752SOL    HW129153   1.286   7.490   8.292
75752SOL    HW229154   1.303   7.625   8.225
75753SOL     OW29155   6.171   4.137   1.605
75753SOL    HW129156   6.080   4.133   1.577
75753SOL    HW229157   6.168   4.124   1.700
75754SOL     OW29158   5.513  13.186   3.831
75754SOL    HW129159   5.559  13.262   3.794
75754SOL    HW229160   5.472  13.220   3.910
75755SOL     OW29161   8.097   1.033  13.438
75755SOL    HW129162   8.129   1.116  13.474
75755SOL    HW229163   8.156   1.014  13.365
75756SOL     OW29164  13.493   6.734  11.971
75756SOL    HW129165  13.542   6.815  11.958
75756SOL    HW229166  13.489   6.694  11.884
75757SOL     OW29167   2.663   9.125  11.638
75757SOL    HW129168   2.660   9.185  11.563
75757SOL    HW229169   2.622   9.045  11.606
75758SOL     OW29170  13.175  13.949  12.633
75758SOL    HW129171  13.226  14.013  12.683
75758SOL    HW229172  13.123  13.904  12.699
75759SOL     OW29173   8.779   4.701   0.796
75759SOL    HW129174   8.748   4.740   0.715
75759SOL    HW229175   8.753   4.609   0.790
75760SOL     OW29176  12.721   4.753   7.406
75760SOL    HW129177  12.687   4.752   7.496
75760SOL    HW229178  12.735   4.846   7.388
75761SOL     OW29179   9.373   1.784  11.144
75761SOL    HW129180   9.368   1.705  11.197
75761SOL    HW229181   9.404   1.755  11.058
75762SOL     OW29182   1.063   9.292   9.016
75762SOL    HW129183   1.083   9.246   9.098
75762SOL    HW229184   1.025   9.375   9.044
75763SOL     OW29185  10.176  11.860   4.088
75763SOL    HW129186  10.250  11.816   4.046
75763SOL    HW229187  10.109  11.793   4.096
75764SOL     OW29188   2.365   2.813   0.644
75764SOL    HW129189   2.292   2.775   0.595
75764SOL    HW229190   2.328   2.887   0.690
75765SOL     OW29191   1.217   6.558   0.109
75765SOL    HW129192   1.207   6.501   0.185
75765SOL    HW229193   1.245   6.642   0.146
75766SOL     OW29194   5.471   4.826  10.741
75766SOL    HW129195   5.509   4.913  10.754
75766SOL    HW229196   5.498   4.776  10.817
75767SOL     OW29197   1.948  13.147   6.984
75767SOL    HW129198   1.870  13.107   7.023
75767SOL    HW229199   2.017  13.081   6.994
75768SOL     OW29200   1.015   8.100  12.027
75768SOL    HW129201   0.925   8.081  12.055
75768SOL    HW229202   1.007   8.119  11.933
75769SOL     OW29203   9.143   3.613  11.826
75769SOL    HW129204   9.156   3.560  11.905
75769SOL    HW229205   9.119   3.700  11.860
75770SOL     OW29206  11.107   2.419  10.953
75770SOL    HW129207  11.160   2.391  11.028
75770SOL    HW229208  11.029   2.365  10.957
75771SOL     OW29209   3.694  13.530  10.486
75771SOL    HW129210   3.657  13.445  10.509
75771SOL    HW229211   3.743  13.557  10.564
75772SOL     OW29212  12.324   9.747   1.106
75772SOL    HW129213  12.287   9.781   1.188
75772SOL    HW229214  12.257   9.687   1.073
75773SOL     OW29215   8.462  13.454   8.997
75773SOL    HW129216   8.465  13.410   8.912
75773SOL    HW229217   8.431  13.387   9.058
75774SOL     OW29218   0.701   1.698   5.662
75774SOL    HW129219   0.630   1.685   5.599
75774SOL    HW229220   0.718   1.612   5.698
75775SOL     OW29221   8.225  10.254  13.013
75775SOL    HW129222   8.187  10.203  12.941
75775SOL    HW229223   8.319  10.244  13.002
75776SOL     OW29224  11.625   8.822   2.314
75776SOL    HW129225  11.580   8.737   2.309
75776SOL    HW229226  11.647   8.842   2.223
75777SOL     OW29227  14.163   3.915   3.164
75777SOL    HW129228  14.220   3.839   3.175
75777SOL    HW229229  14.104   3.911   3.239
75778SOL     OW29230   9.326  10.513  14.204
75778SOL    HW129231   9.349  10.549  14.119
75778SOL    HW229232   9.404  10.466  14.233
75779SOL     OW29233  10.913   0.594   6.410
75779SOL    HW129234  10.994   0.545   6.397
75779SOL    HW229235  10.847   0.545   6.362
75780SOL     OW29236   2.482   4.377  12.136
75780SOL    HW129237   2.505   4.291  12.102
75780SOL    HW229238   2.409   4.362  12.195
75781SOL     OW29239   2.465  12.027   3.831
75781SOL    HW129240   2.452  11.933   3.844
75781SOL    HW229241   2.390  12.068   3.874
75782SOL     OW29242   7.966  11.079   9.971
75782SOL    HW129243   7.948  11.108   9.881
75782SOL    HW229244   7.889  11.027   9.994
75783SOL     OW29245   2.652   4.376   7.481
75783SOL    HW129246   2.730   4.429   7.501
75783SOL    HW229247   2.681   4.286   7.493
75784SOL     OW29248   1.298   9.990   1.231
75784SOL    HW129249   1.329  10.081   1.237
75784SOL    HW229250   1.204   9.996   1.250
75785SOL     OW29251  12.957   9.133   8.390
75785SOL    HW129252  13.000   9.130   8.305
75785SOL    HW229253  12.924   9.044   8.404
75786SOL     OW29254   8.984  12.133   1.285
75786SOL    HW129255   8.908  12.155   1.339
75786SOL    HW229256   9.049  12.100   1.347
75787SOL     OW29257   2.812   8.530  14.539
75787SOL    HW129258   2.865   8.484  14.604
75787SOL    HW229259   2.860   8.519  14.457
75788SOL     OW29260  14.123   6.132  11.565
75788SOL    HW129261  14.033   6.129  11.532
75788SOL    HW229262  14.157   6.217  11.536
75789SOL     OW29263   6.780  12.546   6.318
75789SOL    HW129264   6.764  12.582   6.231
75789SOL    HW229265   6.861  12.588   6.347
75790SOL     OW29266   9.855  13.183   9.619
75790SOL    HW129267   9.913  13.112   9.593
75790SOL    HW229268   9.905  13.232   9.685
75791SOL     OW29269   0.036   0.147   3.266
75791SOL    HW129270   0.091   0.219   3.235
75791SOL    HW229271   0.060   0.137   3.358
75792SOL     OW29272   1.041   2.413  14.218
75792SOL    HW129273   1.109   2.381  14.276
75792SOL    HW229274   1.062   2.505  14.204
75793SOL     OW29275   8.524   8.710   0.929
75793SOL    HW129276   8.482   8.661   0.999
75793SOL    HW229277   8.556   8.790   0.971
75794SOL     OW29278   5.054   4.185   8.344
75794SOL    HW129279   4.962   4.177   8.319
75794SOL    HW229280   5.102   4.171   8.263
75795SOL     OW29281   3.675  13.764   9.347
75795SOL    HW129282   3.707  13.720   9.426
75795SOL    HW229283   3.703  13.707   9.275
75796SOL     OW29284   4.063   5.259   9.752
75796SOL    HW129285   4.082   5.269   9.845
75796SOL    HW229286   4.003   5.330   9.731
75797SOL     OW29287  12.556   8.464   7.519
75797SOL    HW129288  12.525   8.541   7.471
75797SOL    HW229289  12.496   8.456   7.593
75798SOL     OW29290   2.511   0.154   3.512
75798SOL    HW129291   2.522   0.114   3.598
75798SOL    HW229292   2.571   0.228   3.512
75799SOL     OW29293  12.996  13.663  10.289
75799SOL    HW129294  12.958  13.708  10.364
75799SOL    HW229295  13.078  13.626  10.321
75800SOL     OW29296  11.604  10.220   9.494
75800SOL    HW129297  11.522  10.255   9.528
75800SOL    HW229298  11.672  10.271   9.538
75801SOL     OW29299   7.924   8.991   4.841
75801SOL    HW129300   7.999   8.932   4.839
75801SOL    HW229301   7.879   8.976   4.758
75802SOL     OW29302   5.085   6.276   7.122
75802SOL    HW129303   5.174   6.303   7.145
75802SOL    HW229304   5.055   6.226   7.197
75803SOL     OW29305   9.990   2.095   1.505
75803SOL    HW129306   9.922   2.161   1.492
75803SOL    HW229307   9.981   2.069   1.597
75804SOL     OW29308   6.949  13.594  13.429
75804SOL    HW129309   6.894  13.598  13.507
75804SOL    HW229310   7.039  13.597  13.462
75805SOL     OW29311   1.881  10.321  13.990
75805SOL    HW129312   1.909  10.363  14.072
75805SOL    HW229313   1.957  10.326  13.933
75806SOL     OW29314   6.960  11.120  10.617
75806SOL    HW129315   6.978  11.030  10.590
75806SOL    HW229316   6.972  11.119  10.712
75807SOL     OW29317  10.545  10.753   5.252
75807SOL    HW129318  10.469  10.780   5.303
75807SOL    HW229319  10.561  10.663   5.279
75808SOL     OW29320   3.004  12.163   9.294
75808SOL    HW129321   2.926  12.126   9.252
75808SOL    HW229322   3.043  12.090   9.341
75809SOL     OW29323   6.705  11.956   5.556
75809SOL    HW129324   6.685  12.019   5.486
75809SOL    HW229325   6.800  11.955   5.561
75810SOL     OW29326  14.389   3.431   2.980
75810SOL    HW129327  14.484   3.435   2.973
75810SOL    HW229328  14.369   3.338   2.993
75811SOL     OW29329   5.609   9.096   3.810
75811SOL    HW129330   5.611   9.180   3.765
75811SOL    HW229331   5.606   9.118   3.903
75812SOL     OW29332   3.330   6.234   8.799
75812SOL    HW129333   3.295   6.173   8.864
75812SOL    HW229334   3.381   6.179   8.739
75813SOL     OW29335  12.185   1.551   3.587
75813SOL    HW129336  12.110   1.582   3.536
75813SOL    HW229337  12.156   1.560   3.678
75814SOL     OW29338  12.542  12.487  12.090
75814SOL    HW129339  12.533  12.392  12.096
75814SOL    HW229340  12.477  12.521  12.152
75815SOL     OW29341  10.441   5.178   9.282
75815SOL    HW129342  10.498   5.141   9.216
75815SOL    HW229343  10.460   5.128   9.361
75816SOL     OW29344   6.313  14.502   2.997
75816SOL    HW129345   6.297  14.409   2.979
75816SOL    HW229346   6.232  14.533   3.038
75817SOL     OW29347  13.429   3.949   3.320
75817SOL    HW129348  13.412   3.996   3.239
75817SOL    HW229349  13.477   4.012   3.374
75818SOL     OW29350   8.304   0.133   7.773
75818SOL    HW129351   8.294   0.178   7.857
75818SOL    HW229352   8.321   0.042   7.796
75819SOL     OW29353   3.645  14.104   5.296
75819SOL    HW129354   3.634  14.198   5.284
75819SOL    HW229355   3.582  14.065   5.235
75820SOL     OW29356  14.444   2.718   7.625
75820SOL    HW129357  14.393   2.751   7.699
75820SOL    HW229358  14.392   2.740   7.548
75821SOL     OW29359  13.375   1.859   0.744
75821SOL    HW129360  13.372   1.813   0.659
75821SOL    HW229361  13.462   1.898   0.746
75822SOL     OW29362  11.829  11.541   0.861
75822SOL    HW129363  11.781  11.591   0.927
75822SOL    HW229364  11.878  11.476   0.912
75823SOL     OW29365   9.104   9.744  12.282
75823SOL    HW129366   9.126   9.653  12.263
75823SOL    HW229367   9.052   9.772  12.207
75824SOL     OW29368   8.502   8.801  10.543
75824SOL    HW129369   8.424   8.857  10.541
75824SOL    HW229370   8.568   8.851  10.494
75825SOL     OW29371   6.779   3.470   9.667
75825SOL    HW129372   6.859   3.417   9.666
75825SOL    HW229373   6.771   3.499   9.758
75826SOL     OW29374  12.176  13.012  12.299
75826SOL    HW129375  12.137  12.956  12.232
75826SOL    HW229376  12.138  12.982  12.382
75827SOL     OW29377   3.646  12.368   5.503
75827SOL    HW129378   3.557  12.395   5.524
75827SOL    HW229379   3.666  12.301   5.569
75828SOL     OW29380   7.784  13.326   6.065
75828SOL    HW129381   7.704  13.277   6.085
75828SOL    HW229382   7.844  13.304   6.137
75829SOL     OW29383   3.027  14.017   2.862
75829SOL    HW129384   3.095  13.992   2.799
75829SOL    HW229385   3.026  14.113   2.858
75830SOL     OW29386   6.157   3.570   5.272
75830SOL    HW129387   6.147   3.625   5.195
75830SOL    HW229388   6.252   3.555   5.278
75831SOL     OW29389   5.425   4.741   6.476
75831SOL    HW129390   5.519   4.729   6.458
75831SOL    HW229391   5.387   4.655   6.463
75832SOL     OW29392  14.524   1.003   6.258
75832SOL    HW129393  14.510   1.063   6.184
75832SOL    HW229394  14.591   1.046   6.311
75833SOL     OW29395   3.627   3.677  14.457
75833SOL    HW129396   3.645   3.757  14.409
75833SOL    HW229397   3.706   3.624  14.445
75834SOL     OW29398  13.718  10.666   4.740
75834SOL    HW129399  13.704  10.730   4.810
75834SOL    HW229400  13.763  10.715   4.671
75835SOL     OW29401   0.435  12.249  13.555
75835SOL    HW129402   0.388  12.330  13.534
75835SOL    HW229403   0.401  12.184  13.494
75836SOL     OW29404  11.915  12.012   6.530
75836SOL    HW129405  11.865  11.995   6.451
75836SOL    HW229406  11.858  11.982   6.601
75837SOL     OW29407   0.697  13.462  13.813
75837SOL    HW129408   0.616  13.514  13.809
75837SOL    HW229409   0.740  13.491  13.893
75838SOL     OW29410   0.601   8.122  10.155
75838SOL    HW129411   0.531   8.178  10.122
75838SOL    HW229412   0.559   8.038  10.172
75839SOL     OW29413  13.577   3.804   2.690
75839SOL    HW129414  13.522   3.825   2.614
75839SOL    HW229415  13.589   3.709   2.684
75840SOL     OW29416  10.988   4.648  10.287
75840SOL    HW129417  10.977   4.572  10.344
75840SOL    HW229418  11.002   4.612  10.200
75841SOL     OW29419   5.249  12.465  13.526
75841SOL    HW129420   5.154  12.481  13.520
75841SOL    HW229421   5.284  12.545  13.567
75842SOL     OW29422   1.574   8.359   8.323
75842SOL    HW129423   1.649   8.341   8.267
75842SOL    HW229424   1.538   8.273   8.345
75843SOL     OW29425   6.225   8.998   7.153
75843SOL    HW129426   6.305   9.035   7.191
75843SOL    HW229427   6.252   8.911   7.123
75844SOL     OW29428   2.923   3.837   8.709
75844SOL    HW129429   2.984   3.805   8.642
75844SOL    HW229430   2.932   3.932   8.705
75845SOL     OW29431  12.763   5.013   7.286
75845SOL    HW129432  12.801   4.989   7.202
75845SOL    HW229433  12.751   5.108   7.281
75846SOL     OW29434   9.018   9.865  12.061
75846SOL    HW129435   8.959   9.820  12.000
75846SOL    HW229436   8.966   9.939  12.094
75847SOL     OW29437   0.191  12.589  10.147
75847SOL    HW129438   0.114  12.545  10.183
75847SOL    HW229439   0.251  12.595  10.221
75848SOL     OW29440  11.927   1.853  14.036
75848SOL    HW129441  11.905   1.945  14.048
75848SOL    HW229442  12.022   1.851  14.029
75849SOL     OW29443  12.232  10.304   6.190
75849SOL    HW129444  12.173  10.271   6.122
75849SOL    HW229445  12.188  10.381   6.226
75850SOL     OW29446  11.875   8.851   0.258
75850SOL    HW129447  11.832   8.783   0.206
75850SOL    HW229448  11.886   8.812   0.345
75851SOL     OW29449   9.845  13.936  12.537
75851SOL    HW129450   9.898  13.971  12.466
75851SOL    HW229451   9.797  13.863  12.497
75852SOL     OW29452  11.510   1.400   7.565
75852SOL    HW129453  11.507   1.466   7.634
75852SOL    HW229454  11.522   1.317   7.611
75853SOL     OW29455   7.525   7.388   9.578
75853SOL    HW129456   7.537   7.435   9.661
75853SOL    HW229457   7.437   7.412   9.549
75854SOL     OW29458  12.973   6.140   5.677
75854SOL    HW129459  12.974   6.063   5.734
75854SOL    HW229460  13.046   6.128   5.618
75855SOL     OW29461  11.924  13.223   5.611
75855SOL    HW129462  11.992  13.259   5.555
75855SOL    HW229463  11.945  13.254   5.699
75856SOL     OW29464  12.934   7.015   4.984
75856SOL    HW129465  13.019   7.018   4.940
75856SOL    HW229466  12.872   7.043   4.917
75857SOL     OW29467   0.707   4.638  12.481
75857SOL    HW129468   0.612   4.634  12.477
75857SOL    HW229469   0.732   4.693  12.406
75858SOL     OW29470  12.459  10.436   5.950
75858SOL    HW129471  12.414  10.418   6.033
75858SOL    HW229472  12.436  10.362   5.894
75859SOL     OW29473   1.325   5.984   2.284
75859SOL    HW129474   1.281   6.063   2.315
75859SOL    HW229475   1.261   5.914   2.296
75860SOL     OW29476   8.632   6.957   2.847
75860SOL    HW129477   8.645   7.034   2.902
75860SOL    HW229478   8.555   6.976   2.795
75861SOL     OW29479  13.276  14.700   2.860
75861SOL    HW129480  13.255  14.791   2.879
75861SOL    HW229481  13.263  14.692   2.765
75862SOL     OW29482  13.071   8.480  14.324
75862SOL    HW129483  13.067   8.574  14.343
75862SOL    HW229484  13.041   8.473  14.233
75863SOL     OW29485  12.400  10.615   5.293
75863SOL    HW129486  12.387  10.592   5.201
75863SOL    HW229487  12.458  10.548   5.327
75864SOL     OW29488   5.847   4.688   6.867
75864SOL    HW129489   5.897   4.612   6.837
75864SOL    HW229490   5.769   4.650   6.908
75865SOL     OW29491   8.170   6.822   1.508
75865SOL    HW129492   8.172   6.761   1.581
75865SOL    HW229493   8.143   6.769   1.433
75866SOL     OW29494   6.521   7.097  11.103
75866SOL    HW129495   6.520   7.165  11.170
75866SOL    HW229496   6.449   7.119  11.044
75867SOL     OW29497  11.363   0.819   7.165
75867SOL    HW129498  11.327   0.732   7.146
75867SOL    HW229499  11.335   0.837   7.255
75868SOL     OW29500   4.047   9.662   5.059
75868SOL    HW129501   4.007   9.640   5.143
75868SOL    HW229502   4.110   9.592   5.044
75869SOL     OW29503   7.110  13.316   0.483
75869SOL    HW129504   7.096  13.241   0.541
75869SOL    HW229505   7.029  13.322   0.432
75870SOL     OW29506   0.298   7.482  13.280
75870SOL    HW129507   0.279   7.502  13.188
75870SOL    HW229508   0.385   7.442  13.278
75871SOL     OW29509  11.544   2.533  13.904
75871SOL    HW129510  11.476   2.474  13.935
75871SOL    HW229511  11.620   2.513  13.959
75872SOL     OW29512   9.144   2.888   9.053
75872SOL    HW129513   9.129   2.842   8.970
75872SOL    HW229514   9.167   2.818   9.114
75873SOL     OW29515   9.956  13.237   0.660
75873SOL    HW129516   9.940  13.212   0.751
75873SOL    HW229517   9.884  13.296   0.637
75874SOL     OW29518  11.748   2.857  12.912
75874SOL    HW129519  11.795   2.813  12.842
75874SOL    HW229520  11.816   2.894  12.968
75875SOL     OW29521  14.816   8.259  10.190
75875SOL    HW129522   0.008   8.256  10.120
75875SOL    HW229523  14.863   8.226  10.267
75876SOL     OW29524   0.302  11.521   1.362
75876SOL    HW129525   0.338  11.506   1.449
75876SOL    HW229526   0.227  11.461   1.358
75877SOL     OW29527   9.796  12.739  14.136
75877SOL    HW129528   9.859  12.809  14.120
75877SOL    HW229529   9.800  12.684  14.058
75878SOL     OW29530   1.426   3.728  11.894
75878SOL    HW129531   1.518   3.739  11.870
75878SOL    HW229532   1.428   3.692  11.982
75879SOL     OW29533  12.801   0.927   9.256
75879SOL    HW129534  12.721   0.880   9.279
75879SOL    HW229535  12.809   0.916   9.161
75880SOL     OW29536  12.325   5.045   7.126
75880SOL    HW129537  12.311   4.990   7.203
75880SOL    HW229538  12.237   5.077   7.104
75881SOL     OW29539  11.367   6.690  12.827
75881SOL    HW129540  11.277   6.710  12.856
75881SOL    HW229541  11.406   6.776  12.809
75882SOL     OW29542   4.499  13.083   2.488
75882SOL    HW129543   4.555  13.026   2.436
75882SOL    HW229544   4.432  13.025   2.524
75883SOL     OW29545   2.166  14.349   9.557
75883SOL    HW129546   2.193  14.389   9.640
75883SOL    HW229547   2.070  14.342   9.564
75884SOL     OW29548   8.319   2.440  11.672
75884SOL    HW129549   8.303   2.506  11.604
75884SOL    HW229550   8.317   2.489  11.754
75885SOL     OW29551  11.429   3.771   0.180
75885SOL    HW129552  11.483   3.841   0.216
75885SOL    HW229553  11.340   3.791   0.208
75886SOL     OW29554  12.147  10.294   7.078
75886SOL    HW129555  12.074  10.350   7.051
75886SOL    HW229556  12.202  10.289   7.000
75887SOL     OW29557   4.621   9.916   3.539
75887SOL    HW129558   4.555   9.868   3.588
75887SOL    HW229559   4.584   9.926   3.451
75888SOL     OW29560   9.711   2.861   2.927
75888SOL    HW129561   9.678   2.790   2.872
75888SOL    HW229562   9.777   2.819   2.982
75889SOL     OW29563   6.611  14.591   2.042
75889SOL    HW129564   6.579  14.681   2.031
75889SOL    HW229565   6.570  14.541   1.971
75890SOL     OW29566   2.410  11.991   7.765
75890SOL    HW129567   2.439  11.901   7.751
75890SOL    HW229568   2.374  12.018   7.680
75891SOL     OW29569   3.174  11.356   5.710
75891SOL    HW129570   3.263  11.378   5.739
75891SOL    HW229571   3.185  11.329   5.619
75892SOL     OW29572  10.367  11.300  10.681
75892SOL    HW129573  10.306  11.285  10.608
75892SOL    HW229574  10.343  11.235  10.747
75893SOL     OW29575  11.640   8.326   0.167
75893SOL    HW129576  11.706   8.395   0.162
75893SOL    HW229577  11.662   8.276   0.245
75894SOL     OW29578   9.968   1.071  12.813
75894SOL    HW129579   9.912   1.002  12.848
75894SOL    HW229580   9.989   1.042  12.724
75895SOL     OW29581   2.522  13.194   9.544
75895SOL    HW129582   2.584  13.139   9.591
75895SOL    HW229583   2.436  13.165   9.574
75896SOL     OW29584   4.080  14.793   0.280
75896SOL    HW129585   4.148  14.755   0.335
75896SOL    HW229586   4.068   0.009   0.314
75897SOL     OW29587  13.313  11.890  13.922
75897SOL    HW129588  13.309  11.872  13.828
75897SOL    HW229589  13.332  11.805  13.962
75898SOL     OW29590   5.227  12.365   2.627
75898SOL    HW129591   5.162  12.434   2.612
75898SOL    HW229592   5.311  12.412   2.630
75899SOL     OW29593   7.672   8.293   4.814
75899SOL    HW129594   7.716   8.209   4.827
75899SOL    HW229595   7.600   8.274   4.753
75900SOL     OW29596  13.692  11.436   9.783
75900SOL    HW129597  13.759  11.502   9.767
75900SOL    HW229598  13.609  11.480   9.766
75901SOL     OW29599  14.794   8.254  13.172
75901SOL    HW129600  14.834   8.265  13.086
75901SOL    HW229601  14.715   8.308  13.169
75902SOL     OW29602   0.852  13.031  14.701
75902SOL    HW129603   0.807  12.966  14.755
75902SOL    HW229604   0.944  13.023  14.727
75903SOL     OW29605   0.480   7.637   8.374
75903SOL    HW129606   0.415   7.638   8.304
75903SOL    HW229607   0.533   7.560   8.356
75904SOL     OW29608  11.462  10.840   3.785
75904SOL    HW129609  11.406  10.900   3.735
75904SOL    HW229610  11.467  10.879   3.872
75905SOL     OW29611   5.550  12.802  12.877
75905SOL    HW129612   5.535  12.754  12.795
75905SOL    HW229613   5.479  12.773  12.935
75906SOL     OW29614   2.331  11.923   9.882
75906SOL    HW129615   2.324  12.018   9.878
75906SOL    HW229616   2.250  11.894   9.924
75907SOL     OW29617  12.534   9.288   5.505
75907SOL    HW129618  12.598   9.241   5.451
75907SOL    HW229619  12.498   9.221   5.563
75908SOL     OW29620  12.011  12.956  14.746
75908SOL    HW129621  11.986  12.882  14.691
75908SOL    HW229622  12.105  12.943  14.761
75909SOL     OW29623   6.123   2.163   0.768
75909SOL    HW129624   6.096   2.088   0.716
75909SOL    HW229625   6.219   2.161   0.764
75910SOL     OW29626  11.360  12.777  13.128
75910SOL    HW129627  11.365  12.867  13.159
75910SOL    HW229628  11.445  12.761  13.087
75911SOL     OW29629   6.016   5.617   0.039
75911SOL    HW129630   6.039   5.654   0.124
75911SOL    HW229631   5.920   5.613   0.040
75912SOL     OW29632  12.569  13.884  13.808
75912SOL    HW129633  12.581  13.790  13.820
75912SOL    HW229634  12.474  13.894  13.798
75913SOL     OW29635  10.780  11.372   4.565
75913SOL    HW129636  10.737  11.435   4.623
75913SOL    HW229637  10.841  11.425   4.513
75914SOL     OW29638   9.317   0.971   0.449
75914SOL    HW129639   9.370   0.892   0.457
75914SOL    HW229640   9.380   1.043   0.442
75915SOL     OW29641   9.625   5.822   5.555
75915SOL    HW129642   9.652   5.913   5.547
75915SOL    HW229643   9.626   5.805   5.649
75916SOL     OW29644   2.960   6.992  13.067
75916SOL    HW129645   2.866   6.986  13.086
75916SOL    HW229646   2.984   7.081  13.094
75917SOL     OW29647  11.898  11.864   2.806
75917SOL    HW129648  11.859  11.919   2.737
75917SOL    HW229649  11.891  11.775   2.771
75918SOL     OW29650   8.480   9.994  13.989
75918SOL    HW129651   8.400   9.942  13.984
75918SOL    HW229652   8.550   9.931  13.974
75919SOL     OW29653   8.619  10.244  13.918
75919SOL    HW129654   8.594  10.165  13.966
75919SOL    HW229655   8.633  10.213  13.828
75920SOL     OW29656   1.382  13.298   5.625
75920SOL    HW129657   1.352  13.257   5.706
75920SOL    HW229658   1.302  13.315   5.576
75921SOL     OW29659  13.853   3.827  13.372
75921SOL    HW129660  13.877   3.794  13.458
75921SOL    HW229661  13.770   3.783  13.352
75922SOL     OW29662   1.004   3.204   5.912
75922SOL    HW129663   1.037   3.116   5.891
75922SOL    HW229664   1.013   3.253   5.831
75923SOL     OW29665   8.537   3.479   3.886
75923SOL    HW129666   8.482   3.446   3.815
75923SOL    HW229667   8.569   3.564   3.855
75924SOL     OW29668  11.232   8.817  11.323
75924SOL    HW129669  11.226   8.896  11.376
75924SOL    HW229670  11.161   8.827  11.258
75925SOL     OW29671   0.927   6.173  12.762
75925SOL    HW129672   0.902   6.266  12.761
75925SOL    HW229673   1.012   6.171  12.804
75926SOL     OW29674   2.683   4.423  13.023
75926SOL    HW129675   2.589   4.404  13.032
75926SOL    HW229676   2.689   4.518  13.035
75927SOL     OW29677   8.262  11.176   8.517
75927SOL    HW129678   8.297  11.205   8.433
75927SOL    HW229679   8.224  11.091   8.500
75928SOL     OW29680   7.303  13.749   8.742
75928SOL    HW129681   7.262  13.675   8.787
75928SOL    HW229682   7.324  13.716   8.655
75929SOL     OW29683   3.721   9.825   5.555
75929SOL    HW129684   3.694   9.734   5.544
75929SOL    HW229685   3.817   9.822   5.554
75930SOL     OW29686   9.163  13.855   7.212
75930SOL    HW129687   9.088  13.826   7.263
75930SOL    HW229688   9.125  13.886   7.129
75931SOL     OW29689  14.584  12.903   4.150
75931SOL    HW129690  14.627  12.977   4.193
75931SOL    HW229691  14.594  12.919   4.056
75932SOL     OW29692   7.558  11.939   0.780
75932SOL    HW129693   7.563  11.889   0.699
75932SOL    HW229694   7.573  11.875   0.849
75933SOL     OW29695   1.007  12.179  10.848
75933SOL    HW129696   0.963  12.247  10.899
75933SOL    HW229697   0.955  12.172  10.768
75934SOL     OW29698  14.610   9.900  13.783
75934SOL    HW129699  14.621   9.981  13.833
75934SOL    HW229700  14.546   9.922  13.715
75935SOL     OW29701  14.645   6.413   4.433
75935SOL    HW129702  14.636   6.466   4.512
75935SOL    HW229703  14.725   6.362   4.448
75936SOL     OW29704   9.923  13.200   0.945
75936SOL    HW129705   9.840  13.207   0.992
75936SOL    HW229706   9.967  13.284   0.961
75937SOL     OW29707   0.146  13.034   8.301
75937SOL    HW129708   0.192  12.950   8.290
75937SOL    HW229709   0.117  13.056   8.213
75938SOL     OW29710   8.845  14.686  13.853
75938SOL    HW129711   8.798  14.626  13.911
75938SOL    HW229712   8.922  14.637  13.825
75939SOL     OW29713   1.963   2.888  14.331
75939SOL    HW129714   1.927   2.804  14.359
75939SOL    HW229715   2.050   2.891  14.372
75940SOL     OW29716   3.587   1.012   6.867
75940SOL    HW129717   3.663   1.037   6.815
75940SOL    HW229718   3.580   0.917   6.857
75941SOL     OW29719   1.168   4.593   3.014
75941SOL    HW129720   1.088   4.566   2.968
75941SOL    HW229721   1.165   4.548   3.098
75942SOL     OW29722  13.038   4.501  11.971
75942SOL    HW129723  13.035   4.520  12.064
75942SOL    HW229724  12.985   4.569  11.930
75943SOL     OW29725   8.175   3.342  13.344
75943SOL    HW129726   8.202   3.265  13.295
75943SOL    HW229727   8.250   3.362  13.401
75944SOL     OW29728   1.329   1.495   0.106
75944SOL    HW129729   1.308   1.451   0.189
75944SOL    HW229730   1.257   1.557   0.093
75945SOL     OW29731   8.937  10.595  11.442
75945SOL    HW129732   9.022  10.566  11.409
75945SOL    HW229733   8.877  10.524  11.422
75946SOL     OW29734   7.974   1.391   2.748
75946SOL    HW129735   7.962   1.309   2.699
75946SOL    HW229736   7.886   1.414   2.779
75947SOL     OW29737  12.067   5.721   8.144
75947SOL    HW129738  11.998   5.704   8.079
75947SOL    HW229739  12.083   5.815   8.137
75948SOL     OW29740   6.351   0.700   1.364
75948SOL    HW129741   6.431   0.744   1.391
75948SOL    HW229742   6.326   0.743   1.282
75949SOL     OW29743   8.159  14.433   0.246
75949SOL    HW129744   8.177  14.461   0.336
75949SOL    HW229745   8.083  14.376   0.253
75950SOL     OW29746   6.018   6.765   5.016
75950SOL    HW129747   5.989   6.731   5.101
75950SOL    HW229748   6.087   6.827   5.039
75951SOL     OW29749   2.212  11.783  11.423
75951SOL    HW129750   2.179  11.694  11.437
75951SOL    HW229751   2.205  11.796  11.328
75952SOL     OW29752  13.812   3.961   1.022
75952SOL    HW129753  13.896   4.000   1.048
75952SOL    HW229754  13.781   3.918   1.101
75953SOL     OW29755   6.365  10.965   9.355
75953SOL    HW129756   6.452  10.938   9.387
75953SOL    HW229757   6.307  10.950   9.430
75954SOL     OW29758  12.226   4.112  10.147
75954SOL    HW129759  12.313   4.132  10.180
75954SOL    HW229760  12.242   4.062  10.067
75955SOL     OW29761   0.313   3.939   4.898
75955SOL    HW129762   0.286   3.877   4.830
75955SOL    HW229763   0.322   3.885   4.977
75956SOL     OW29764   6.615   3.323  11.004
75956SOL    HW129765   6.700   3.282  10.990
75956SOL    HW229766   6.622   3.409  10.962
75957SOL     OW29767  12.330  13.611   1.382
75957SOL    HW129768  12.349  13.687   1.327
75957SOL    HW229769  12.386  13.541   1.347
75958SOL     OW29770   8.059   4.926   7.671
75958SOL    HW129771   7.974   4.914   7.714
75958SOL    HW229772   8.037   4.950   7.581
75959SOL     OW29773   1.053  12.583  13.117
75959SOL    HW129774   1.025  12.594  13.026
75959SOL    HW229775   1.086  12.494  13.122
75960SOL     OW29776   7.134   1.246   3.866
75960SOL    HW129777   7.040   1.258   3.882
75960SOL    HW229778   7.160   1.323   3.814
75961SOL     OW29779   1.701  14.108  12.463
75961SOL    HW129780   1.639  14.035  12.459
75961SOL    HW229781   1.739  14.111  12.375
75962SOL     OW29782  13.864  14.151   0.723
75962SOL    HW129783  13.825  14.202   0.652
75962SOL    HW229784  13.885  14.067   0.683
75963SOL     OW29785   2.175   8.035  11.319
75963SOL    HW129786   2.231   8.112  11.306
75963SOL    HW229787   2.206   7.997  11.401
75964SOL     OW29788   9.985  13.994  13.074
75964SOL    HW129789   9.950  13.980  12.986
75964SOL    HW229790   9.981  14.089  13.086
75965SOL     OW29791   0.457   1.983   7.637
75965SOL    HW129792   0.481   2.074   7.655
75965SOL    HW229793   0.522   1.954   7.572
75966SOL     OW29794  10.439   3.356   0.203
75966SOL    HW129795  10.407   3.399   0.124
75966SOL    HW229796  10.531   3.382   0.209
75967SOL     OW29797   1.564   6.250  13.358
75967SOL    HW129798   1.648   6.206  13.347
75967SOL    HW229799   1.499   6.184  13.334
75968SOL     OW29800   3.775  14.860   2.973
75968SOL    HW129801   3.783   0.032   3.058
75968SOL    HW229802   3.809  14.772   2.989
75969SOL     OW29803   7.472   6.540   9.139
75969SOL    HW129804   7.377   6.546   9.149
75969SOL    HW229805   7.484   6.487   9.060
75970SOL     OW29806  13.341   0.596  10.994
75970SOL    HW129807  13.312   0.680  10.957
75970SOL    HW229808  13.391   0.621  11.072
75971SOL     OW29809   2.524  14.030   4.069
75971SOL    HW129810   2.521  13.937   4.089
75971SOL    HW229811   2.435  14.061   4.084
75972SOL     OW29812   3.754  12.112   8.671
75972SOL    HW129813   3.808  12.184   8.704
75972SOL    HW229814   3.693  12.092   8.742
75973SOL     OW29815   0.573   5.774   5.084
75973SOL    HW129816   0.657   5.735   5.111
75973SOL    HW229817   0.524   5.783   5.166
75974SOL     OW29818   7.822  11.562   4.725
75974SOL    HW129819   7.743  11.577   4.673
75974SOL    HW229820   7.881  11.515   4.666
75975SOL     OW29821   7.569  13.860  14.481
75975SOL    HW129822   7.496  13.814  14.439
75975SOL    HW229823   7.548  13.856  14.574
75976SOL     OW29824  11.542   1.386   9.262
75976SOL    HW129825  11.622   1.341   9.291
75976SOL    HW229826  11.566   1.428   9.179
75977SOL     OW29827   1.405  12.580   8.637
75977SOL    HW129828   1.491  12.546   8.614
75977SOL    HW229829   1.358  12.585   8.554
75978SOL     OW29830  10.989  12.125  12.137
75978SOL    HW129831  11.079  12.119  12.105
75978SOL    HW229832  10.956  12.036  12.135
75979SOL     OW29833  12.427  13.998   9.989
75979SOL    HW129834  12.470  14.055  10.053
75979SOL    HW229835  12.363  13.949  10.040
75980SOL     OW29836   3.586   9.324   4.065
75980SOL    HW129837   3.505   9.371   4.046
75980SOL    HW229838   3.584   9.308   4.159
75981SOL     OW29839  11.240   6.446   2.842
75981SOL    HW129840  11.268   6.399   2.921
75981SOL    HW229841  11.194   6.523   2.875
75982SOL     OW29842   1.936   8.456   8.824
75982SOL    HW129843   1.980   8.391   8.770
75982SOL    HW229844   1.948   8.425   8.914
75983SOL     OW29845   1.630  12.875   3.772
75983SOL    HW129846   1.608  12.968   3.763
75983SOL    HW229847   1.587  12.834   3.697
75984SOL     OW29848   7.789  13.344  12.836
75984SOL    HW129849   7.766  13.343  12.743
75984SOL    HW229850   7.764  13.258  12.869
75985SOL     OW29851   6.809  12.086   2.390
75985SOL    HW129852   6.865  12.164   2.394
75985SOL    HW229853   6.842  12.030   2.460
75986SOL     OW29854   7.603   2.436   1.555
75986SOL    HW129855   7.530   2.452   1.614
75986SOL    HW229856   7.626   2.522   1.520
75987SOL     OW29857   6.026   9.774  14.209
75987SOL    HW129858   6.096   9.719  14.245
75987SOL    HW229859   6.036   9.857  14.254
75988SOL     OW29860  10.898  13.225  12.840
75988SOL    HW129861  10.973  13.216  12.898
75988SOL    HW229862  10.822  13.201  12.893
75989SOL     OW29863   3.686   0.349  13.481
75989SOL    HW129864   3.657   0.323  13.568
75989SOL    HW229865   3.756   0.288  13.459
75990SOL     OW29866   0.842  11.702   9.651
75990SOL    HW129867   0.747  11.717   9.646
75990SOL    HW229868   0.852  11.632   9.716
75991SOL     OW29869   9.816   1.395   9.999
75991SOL    HW129870   9.806   1.473   9.945
75991SOL    HW229871   9.901   1.359   9.973
75992SOL     OW29872   8.503   7.120   7.286
75992SOL    HW129873   8.469   7.041   7.244
75992SOL    HW229874   8.586   7.137   7.242
75993SOL     OW29875   3.373   3.316   6.879
75993SOL    HW129876   3.279   3.331   6.883
75993SOL    HW229877   3.412   3.404   6.882
75994SOL     OW29878  12.957  11.224  14.448
75994SOL    HW129879  13.000  11.303  14.417
75994SOL    HW229880  13.004  11.152  14.405
75995SOL     OW29881   2.548  13.551   8.739
75995SOL    HW129882   2.575  13.465   8.772
75995SOL    HW229883   2.573  13.612   8.808
75996SOL     OW29884   6.985  13.062   5.120
75996SOL    HW129885   6.906  13.105   5.152
75996SOL    HW229886   7.007  13.109   5.040
75997SOL     OW29887  12.739  12.152   8.833
75997SOL    HW129888  12.826  12.122   8.858
75997SOL    HW229889  12.728  12.124   8.743
75998SOL     OW29890   5.749  12.488   5.379
75998SOL    HW129891   5.821  12.472   5.439
75998SOL    HW229892   5.720  12.577   5.401
75999SOL     OW29893   4.485   4.677  11.212
75999SOL    HW129894   4.557   4.618  11.233
75999SOL    HW229895   4.406   4.624  11.225
76000SOL     OW29896   7.321   3.256   2.661
76000SOL    HW129897   7.323   3.232   2.754
76000SOL    HW229898   7.385   3.198   2.620
76001SOL     OW29899   8.001   4.654  13.691
76001SOL    HW129900   7.937   4.633  13.623
76001SOL    HW229901   7.948   4.676  13.767
76002SOL     OW29902   6.704   1.764   2.316
76002SOL    HW129903   6.668   1.680   2.287
76002SOL    HW229904   6.798   1.759   2.295
76003SOL     OW29905  14.647   2.130   0.017
76003SOL    HW129906  14.597   2.211   0.021
76003SOL    HW229907  14.686   2.129  14.802
76004SOL     OW29908  12.617   0.495   6.099
76004SOL    HW129909  12.529   0.526   6.122
76004SOL    HW229910  12.611   0.400   6.105
76005SOL     OW29911  14.337  14.827  14.373
76005SOL    HW129912  14.266  14.802  14.432
76005SOL    HW229913  14.416  14.820  14.427
76006SOL     OW29914  10.725   3.118   2.487
76006SOL    HW129915  10.690   3.169   2.561
76006SOL    HW229916  10.681   3.154   2.410
76007SOL     OW29917   3.933  14.298   1.375
76007SOL    HW129918   3.872  14.294   1.448
76007SOL    HW229919   4.008  14.347   1.410
76008SOL     OW29920   8.074  11.483  14.522
76008SOL    HW129921   8.106  11.395  14.541
76008SOL    HW229922   8.024  11.509  14.599
76009SOL     OW29923   4.930   4.786   1.156
76009SOL    HW129924   5.008   4.834   1.127
76009SOL    HW229925   4.962   4.725   1.222
76010SOL     OW29926   5.943  14.155  11.749
76010SOL    HW129927   5.872  14.106  11.791
76010SOL    HW229928   5.945  14.239  11.796
76011SOL     OW29929  10.160   5.894   1.780
76011SOL    HW129930  10.117   5.813   1.757
76011SOL    HW229931  10.224   5.869   1.847
76012SOL     OW29932  10.310  11.403   9.180
76012SOL    HW129933  10.355  11.485   9.198
76012SOL    HW229934  10.347  11.341   9.244
76013SOL     OW29935  13.530   7.058  13.805
76013SOL    HW129936  13.612   7.108  13.798
76013SOL    HW229937  13.464   7.123  13.830
76014SOL     OW29938   0.643   1.735   1.412
76014SOL    HW129939   0.609   1.734   1.502
76014SOL    HW229940   0.622   1.648   1.378
76015SOL     OW29941  11.334   5.046   1.714
76015SOL    HW129942  11.412   5.010   1.671
76015SOL    HW229943  11.335   5.006   1.801
76016SOL     OW29944   4.215   9.134   6.652
76016SOL    HW129945   4.243   9.079   6.579
76016SOL    HW229946   4.132   9.096   6.681
76017SOL     OW29947   0.687   7.939   3.017
76017SOL    HW129948   0.673   8.005   2.950
76017SOL    HW229949   0.769   7.896   2.993
76018SOL     OW29950   5.518  11.803   7.319
76018SOL    HW129951   5.517  11.781   7.412
76018SOL    HW229952   5.466  11.883   7.313
76019SOL     OW29953  13.810  10.300  13.411
76019SOL    HW129954  13.779  10.242  13.342
76019SOL    HW229955  13.763  10.382  13.396
76020SOL     OW29956   0.957  14.449  14.339
76020SOL    HW129957   0.915  14.383  14.285
76020SOL    HW229958   1.032  14.478  14.288
76021SOL     OW29959   7.930   2.699  10.543
76021SOL    HW129960   7.994   2.762  10.512
76021SOL    HW229961   7.904   2.732  10.630
76022SOL     OW29962   4.335   7.751   3.307
76022SOL    HW129963   4.408   7.689   3.312
76022SOL    HW229964   4.257   7.696   3.300
76023SOL     OW29965   7.268   1.025   3.765
76023SOL    HW129966   7.331   1.084   3.725
76023SOL    HW229967   7.208   1.082   3.813
76024SOL     OW29968  11.737   6.260  13.560
76024SOL    HW129969  11.701   6.202  13.628
76024SOL    HW229970  11.768   6.337  13.607
76025SOL     OW29971   4.044   0.990   0.068
76025SOL    HW129972   3.969   1.000   0.008
76025SOL    HW229973   4.022   0.913   0.121
76026SOL     OW29974   3.703   6.402   3.467
76026SOL    HW129975   3.623   6.445   3.497
76026SOL    HW229976   3.772   6.440   3.522
76027SOL     OW29977  14.239  12.333   1.944
76027SOL    HW129978  14.191  12.354   1.864
76027SOL    HW229979  14.322  12.295   1.914
76028SOL     OW29980   1.351  14.137   9.129
76028SOL    HW129981   1.405  14.202   9.085
76028SOL    HW229982   1.402  14.112   9.206
76029SOL     OW29983  10.476   4.663   6.533
76029SOL    HW129984  10.543   4.619   6.481
76029SOL    HW229985  10.455   4.602   6.603
76030SOL     OW29986  13.309   5.449   0.944
76030SOL    HW129987  13.372   5.431   1.014
76030SOL    HW229988  13.224   5.452   0.988
76031SOL     OW29989   5.827   0.902   5.771
76031SOL    HW129990   5.818   0.821   5.821
76031SOL    HW229991   5.843   0.970   5.837
76032SOL     OW29992   7.747   0.797   6.659
76032SOL    HW129993   7.690   0.726   6.630
76032SOL    HW229994   7.734   0.800   6.754
76033SOL     OW29995  10.547   9.674   2.337
76033SOL    HW129996  10.608   9.607   2.368
76033SOL    HW229997  10.528   9.727   2.414
76034SOL     OW29998   6.701  13.719   8.546
76034SOL    HW129999   6.731  13.720   8.637
76034SOL    HW230000   6.774  13.756   8.496
76035SOL     OW30001   8.614   4.266   7.279
76035SOL    HW130002   8.547   4.322   7.317
76035SOL    HW230003   8.661   4.322   7.217
76036SOL     OW30004   2.841   4.501   2.867
76036SOL    HW130005   2.745   4.496   2.864
76036SOL    HW230006   2.860   4.565   2.935
76037SOL     OW30007   3.265   1.162   6.919
76037SOL    HW130008   3.261   1.137   6.827
76037SOL    HW230009   3.192   1.114   6.959
76038SOL     OW30010   5.406  14.054  13.413
76038SOL    HW130011   5.437  14.124  13.470
76038SOL    HW230012   5.321  14.084  13.381
76039SOL     OW30013   8.424  10.077  10.371
76039SOL    HW130014   8.463  10.013  10.430
76039SOL    HW230015   8.356  10.119  10.422
76040SOL     OW30016   3.397   4.064   0.759
76040SOL    HW130017   3.336   3.991   0.771
76040SOL    HW230018   3.370   4.129   0.823
76041SOL     OW30019  14.533  11.212   1.994
76041SOL    HW130020  14.620  11.185   2.025
76041SOL    HW230021  14.489  11.130   1.974
76042SOL     OW30022  11.436   5.135   3.367
76042SOL    HW130023  11.443   5.177   3.281
76042SOL    HW230024  11.445   5.042   3.348
76043SOL     OW30025   8.764   4.133   2.513
76043SOL    HW130026   8.756   4.208   2.572
76043SOL    HW230027   8.794   4.061   2.570
76044SOL     OW30028  13.827  12.906   3.403
76044SOL    HW130029  13.841  12.812   3.395
76044SOL    HW230030  13.868  12.943   3.324
76045SOL     OW30031   8.541   0.156  10.389
76045SOL    HW130032   8.590   0.235  10.369
76045SOL    HW230033   8.474   0.152  10.320
76046SOL     OW30034  13.991  11.430  13.882
76046SOL    HW130035  14.071  11.377  13.879
76046SOL    HW230036  13.989  11.464  13.972
76047SOL     OW30037   3.824   0.312   6.721
76047SOL    HW130038   3.756   0.254   6.688
76047SOL    HW230039   3.876   0.334   6.643
76048SOL     OW30040   7.549  10.885   1.613
76048SOL    HW130041   7.609  10.876   1.539
76048SOL    HW230042   7.569  10.972   1.649
76049SOL     OW30043   1.171   0.134  12.105
76049SOL    HW130044   1.119   0.199  12.153
76049SOL    HW230045   1.190   0.066  12.170
76050SOL     OW30046  10.366  14.201   3.771
76050SOL    HW130047  10.324  14.171   3.852
76050SOL    HW230048  10.458  14.177   3.781
76051SOL     OW30049  12.013  10.027  13.309
76051SOL    HW130050  12.104  10.049  13.286
76051SOL    HW230051  12.005   9.934  13.286
76052SOL     OW30052   9.564   5.856   2.367
76052SOL    HW130053   9.535   5.928   2.423
76052SOL    HW230054   9.491   5.794   2.368
76053SOL     OW30055   7.218  14.439  13.901
76053SOL    HW130056   7.300  14.484  13.881
76053SOL    HW230057   7.152  14.485  13.849
76054SOL     OW30058   1.909   6.977   2.173
76054SOL    HW130059   1.895   7.029   2.252
76054SOL    HW230060   1.986   6.923   2.193
76055SOL     OW30061   8.090   2.933   3.245
76055SOL    HW130062   8.111   2.853   3.197
76055SOL    HW230063   8.009   2.912   3.291
76056SOL     OW30064   4.709   1.158   2.039
76056SOL    HW130065   4.625   1.114   2.047
76056SOL    HW230066   4.731   1.150   1.946
76057SOL     OW30067  10.937   1.597   8.041
76057SOL    HW130068  10.918   1.674   7.986
76057SOL    HW230069  10.939   1.524   7.980
76058SOL     OW30070   0.103   5.047  11.880
76058SOL    HW130071   0.091   5.022  11.789
76058SOL    HW230072   0.077   5.139  11.884
76059SOL     OW30073   2.657   1.968   4.826
76059SOL    HW130074   2.563   1.958   4.812
76059SOL    HW230075   2.675   1.919   4.906
76060SOL     OW30076   7.851   3.989   3.131
76060SOL    HW130077   7.909   3.921   3.168
76060SOL    HW230078   7.879   4.070   3.174
76061SOL     OW30079  14.259  10.071  13.973
76061SOL    HW130080  14.333  10.117  13.932
76061SOL    HW230081  14.285   9.979  13.971
76062SOL     OW30082  13.770   5.484  11.782
76062SOL    HW130083  13.695   5.520  11.828
76062SOL    HW230084  13.803   5.557  11.729
76063SOL     OW30085   4.069   7.211   8.432
76063SOL    HW130086   4.116   7.179   8.355
76063SOL    HW230087   4.019   7.135   8.463
76064SOL     OW30088   2.839  11.289   4.140
76064SOL    HW130089   2.853  11.374   4.098
76064SOL    HW230090   2.783  11.241   4.079
76065SOL     OW30091   6.166  12.311   1.181
76065SOL    HW130092   6.230  12.255   1.225
76065SOL    HW230093   6.215  12.352   1.110
76066SOL     OW30094   9.278  13.265  14.541
76066SOL    HW130095   9.310  13.187  14.497
76066SOL    HW230096   9.311  13.257  14.631
76067SOL     OW30097   9.461   8.071   0.191
76067SOL    HW130098   9.484   8.107   0.277
76067SOL    HW230099   9.487   8.140   0.129
76068SOL     OW30100   9.538   9.984  10.267
76068SOL    HW130101   9.586   9.949  10.342
76068SOL    HW230102   9.533   9.911  10.205
76069SOL     OW30103  12.367   5.329   5.902
76069SOL    HW130104  12.446   5.280   5.877
76069SOL    HW230105  12.317   5.336   5.821
76070SOL     OW30106   2.505   1.237   1.447
76070SOL    HW130107   2.502   1.142   1.439
76070SOL    HW230108   2.598   1.259   1.445
76071SOL     OW30109   2.828   6.685   2.126
76071SOL    HW130110   2.900   6.725   2.174
76071SOL    HW230111   2.762   6.755   2.120
76072SOL     OW30112   6.031  10.475   9.061
76072SOL    HW130113   6.003  10.558   9.024
76072SOL    HW230114   5.963  10.453   9.126
76073SOL     OW30115  13.297   3.970  14.092
76073SOL    HW130116  13.391   3.962  14.111
76073SOL    HW230117  13.293   4.034  14.021
76074SOL     OW30118  11.291  10.430  10.899
76074SOL    HW130119  11.204  10.468  10.905
76074SOL    HW230120  11.295  10.367  10.971
76075SOL     OW30121  12.527   7.826   8.231
76075SOL    HW130122  12.608   7.777   8.223
76075SOL    HW230123  12.480   7.784   8.303
76076SOL     OW30124   8.204  13.930   6.456
76076SOL    HW130125   8.187  13.988   6.381
76076SOL    HW230126   8.299  13.917   6.454
76077SOL     OW30127  13.819   1.732  12.070
76077SOL    HW130128  13.736   1.693  12.040
76077SOL    HW230129  13.864   1.758  11.989
76078SOL     OW30130   7.945   2.923   9.261
76078SOL    HW130131   7.917   2.832   9.260
76078SOL    HW230132   7.963   2.942   9.354
76079SOL     OW30133   5.182  13.538   2.143
76079SOL    HW130134   5.112  13.563   2.203
76079SOL    HW230135   5.262  13.549   2.194
76080SOL     OW30136   7.570  11.916  13.794
76080SOL    HW130137   7.509  11.846  13.817
76080SOL    HW230138   7.606  11.891  13.710
76081SOL     OW30139   5.042   3.790   8.517
76081SOL    HW130140   5.121   3.810   8.568
76081SOL    HW230141   5.047   3.696   8.502
76082SOL     OW30142  14.784  12.322  11.238
76082SOL    HW130143  14.808  12.412  11.214
76082SOL    HW230144  14.866  12.282  11.268
76083SOL     OW30145  13.185   4.917   4.736
76083SOL    HW130146  13.155   4.976   4.668
76083SOL    HW230147  13.280   4.911   4.724
76084SOL     OW30148  13.831   6.156   9.258
76084SOL    HW130149  13.921   6.180   9.281
76084SOL    HW230150  13.835   6.062   9.245
76085SOL     OW30151   3.845   2.352   6.381
76085SOL    HW130152   3.940   2.354   6.395
76085SOL    HW230153   3.814   2.437   6.410
76086SOL     OW30154   3.718   9.713  11.678
76086SOL    HW130155   3.649   9.727  11.744
76086SOL    HW230156   3.682   9.647  11.620
76087SOL     OW30157   4.247   0.784   4.080
76087SOL    HW130158   4.326   0.734   4.060
76087SOL    HW230159   4.192   0.773   4.002
76088SOL     OW30160   4.623   0.690   3.118
76088SOL    HW130161   4.646   0.614   3.064
76088SOL    HW230162   4.539   0.720   3.084
76089SOL     OW30163   3.363  10.051  13.919
76089SOL    HW130164   3.441  10.062  13.974
76089SOL    HW230165   3.308   9.989  13.966
76090SOL     OW30166   7.733   7.919  14.693
76090SOL    HW130167   7.711   7.839  14.741
76090SOL    HW230168   7.798   7.890  14.629
76091SOL     OW30169  12.293   3.130   8.925
76091SOL    HW130170  12.359   3.145   8.858
76091SOL    HW230171  12.215   3.103   8.877
76092SOL     OW30172   2.202  10.013  14.152
76092SOL    HW130173   2.107  10.012  14.135
76092SOL    HW230174   2.241  10.033  14.067
76093SOL     OW30175   3.579   2.732  13.221
76093SOL    HW130176   3.521   2.664  13.254
76093SOL    HW230177   3.633   2.757  13.296
76094SOL     OW30178  12.529  13.178  13.129
76094SOL    HW130179  12.611  13.148  13.088
76094SOL    HW230180  12.490  13.098  13.164
76095SOL     OW30181  14.220   0.914   0.675
76095SOL    HW130182  14.236   0.979   0.743
76095SOL    HW230183  14.248   0.831   0.714
76096SOL     OW30184  10.677   5.253  12.138
76096SOL    HW130185  10.736   5.281  12.208
76096SOL    HW230186  10.730   5.194  12.084
76097SOL     OW30187  13.078   8.928   2.769
76097SOL    HW130188  13.150   8.920   2.833
76097SOL    HW230189  13.016   8.860   2.796
76098SOL     OW30190  12.829   9.549  12.812
76098SOL    HW130191  12.814   9.617  12.878
76098SOL    HW230192  12.893   9.490  12.853
76099SOL     OW30193  13.281  14.553   7.231
76099SOL    HW130194  13.360  14.501   7.245
76099SOL    HW230195  13.210  14.501   7.269
76100SOL     OW30196   9.381   0.979   2.117
76100SOL    HW130197   9.305   1.030   2.087
76100SOL    HW230198   9.441   1.044   2.153
76101SOL     OW30199   1.538  10.445   3.721
76101SOL    HW130200   1.483  10.505   3.670
76101SOL    HW230201   1.576  10.499   3.790
76102SOL     OW30202   1.078   5.170  12.793
76102SOL    HW130203   1.096   5.171  12.887
76102SOL    HW230204   1.012   5.239  12.781
76103SOL     OW30205  10.628   9.716   4.447
76103SOL    HW130206  10.616   9.624   4.421
76103SOL    HW230207  10.556   9.763   4.405
76104SOL     OW30208   3.631   0.304  14.376
76104SOL    HW130209   3.636   0.396  14.350
76104SOL    HW230210   3.652   0.256  14.296
76105SOL     OW30211   8.249  13.458   9.885
76105SOL    HW130212   8.233  13.369   9.856
76105SOL    HW230213   8.162  13.492   9.909
76106SOL     OW30214   9.829  14.026   4.219
76106SOL    HW130215   9.897  14.081   4.179
76106SOL    HW230216   9.751  14.082   4.222
76107SOL     OW30217   8.177   8.925   1.674
76107SOL    HW130218   8.249   8.973   1.633
76107SOL    HW230219   8.197   8.926   1.767
76108SOL     OW30220   0.124   4.200   3.249
76108SOL    HW130221   0.167   4.207   3.164
76108SOL    HW230222   0.072   4.120   3.243
76109SOL     OW30223   7.156  13.055   4.157
76109SOL    HW130224   7.087  13.087   4.099
76109SOL    HW230225   7.186  12.974   4.116
76110SOL     OW30226   5.099   5.244  13.978
76110SOL    HW130227   5.165   5.225  13.912
76110SOL    HW230228   5.081   5.159  14.019
76111SOL     OW30229  11.548   0.632  10.066
76111SOL    HW130230  11.579   0.704  10.119
76111SOL    HW230231  11.596   0.639   9.984
76112SOL     OW30232   0.886   5.641  11.675
76112SOL    HW130233   0.834   5.563  11.695
76112SOL    HW230234   0.974   5.607  11.656
76113SOL     OW30235  11.607   0.036   2.924
76113SOL    HW130236  11.655  14.850   2.865
76113SOL    HW230237  11.515   0.009   2.914
76114SOL     OW30238  14.456  11.840  12.755
76114SOL    HW130239  14.417  11.855  12.841
76114SOL    HW230240  14.512  11.763  12.767
76115SOL     OW30241   5.943   0.846  14.758
76115SOL    HW130242   5.984   0.909  14.816
76115SOL    HW230243   5.872   0.895  14.716
76116SOL     OW30244   8.360   5.856   6.131
76116SOL    HW130245   8.306   5.883   6.205
76116SOL    HW230246   8.448   5.885   6.154
76117SOL     OW30247   1.467  11.760   7.507
76117SOL    HW130248   1.455  11.665   7.507
76117SOL    HW230249   1.540  11.775   7.567
76118SOL     OW30250   1.226   7.164  10.580
76118SOL    HW130251   1.235   7.258  10.598
76118SOL    HW230252   1.306   7.141  10.532
76119SOL     OW30253   0.067  10.328   1.051
76119SOL    HW130254   0.028  10.240   1.060
76119SOL    HW230255   0.009  10.385   1.101
76120SOL     OW30256   0.509  13.527   2.811
76120SOL    HW130257   0.518  13.483   2.726
76120SOL    HW230258   0.597  13.526   2.848
76121SOL     OW30259   1.927   2.090  10.250
76121SOL    HW130260   1.978   2.154  10.201
76121SOL    HW230261   1.989   2.053  10.313
76122SOL     OW30262   5.882   1.587   2.109
76122SOL    HW130263   5.832   1.594   2.190
76122SOL    HW230264   5.889   1.678   2.078
76123SOL     OW30265  13.895  14.242   0.348
76123SOL    HW130266  13.873  14.268   0.437
76123SOL    HW230267  13.957  14.170   0.358
76124SOL     OW30268   0.619  14.371   5.884
76124SOL    HW130269   0.686  14.420   5.933
76124SOL    HW230270   0.665  14.295   5.849
76125SOL     OW30271   6.531   1.696   7.569
76125SOL    HW130272   6.482   1.748   7.505
76125SOL    HW230273   6.498   1.607   7.559
76126SOL     OW30274   6.039   5.218  14.411
76126SOL    HW130275   5.977   5.164  14.460
76126SOL    HW230276   6.037   5.303  14.455
76127SOL     OW30277   0.704  13.036   9.859
76127SOL    HW130278   0.712  13.091   9.937
76127SOL    HW230279   0.731  12.949   9.888
76128SOL     OW30280  10.862   2.260   7.576
76128SOL    HW130281  10.781   2.261   7.525
76128SOL    HW230282  10.930   2.238   7.512
76129SOL     OW30283   7.619  11.986  12.667
76129SOL    HW130284   7.692  11.995  12.728
76129SOL    HW230285   7.600  12.076  12.639
76130SOL     OW30286   5.654   9.143   8.153
76130SOL    HW130287   5.745   9.173   8.144
76130SOL    HW230288   5.662   9.050   8.172
76131SOL     OW30289   0.658   7.876   3.572
76131SOL    HW130290   0.724   7.812   3.601
76131SOL    HW230291   0.696   7.915   3.494
76132SOL     OW30292   3.194   7.558   5.729
76132SOL    HW130293   3.186   7.578   5.636
76132SOL    HW230294   3.129   7.490   5.745
76133SOL     OW30295   5.436  11.715   9.013
76133SOL    HW130296   5.493  11.650   8.970
76133SOL    HW230297   5.496  11.783   9.043
76134SOL     OW30298   0.621   0.200   4.689
76134SOL    HW130299   0.629   0.108   4.712
76134SOL    HW230300   0.689   0.244   4.741
76135SOL     OW30301   3.500   9.127   8.972
76135SOL    HW130302   3.594   9.120   8.959
76135SOL    HW230303   3.463   9.053   8.923
76136SOL     OW30304   7.103  12.913   3.807
76136SOL    HW130305   7.161  12.906   3.883
76136SOL    HW230306   7.068  13.002   3.812
76137SOL     OW30307  11.448  13.886   6.963
76137SOL    HW130308  11.478  13.975   6.946
76137SOL    HW230309  11.361  13.897   7.003
76138SOL     OW30310   5.790   8.574   7.120
76138SOL    HW130311   5.786   8.483   7.151
76138SOL    HW230312   5.741   8.623   7.186
76139SOL     OW30313   9.187   1.090  13.177
76139SOL    HW130314   9.169   1.010  13.226
76139SOL    HW230315   9.114   1.148  13.198
76140SOL     OW30316   2.492  10.676   2.046
76140SOL    HW130317   2.567  10.723   2.010
76140SOL    HW230318   2.530  10.605   2.098
76141SOL     OW30319   8.817   8.719   0.836
76141SOL    HW130320   8.856   8.651   0.891
76141SOL    HW230321   8.724   8.719   0.861
76142SOL     OW30322   7.085  12.731  14.348
76142SOL    HW130323   7.045  12.742  14.434
76142SOL    HW230324   7.157  12.669  14.362
76143SOL     OW30325  10.370  13.260  13.698
76143SOL    HW130326  10.448  13.258  13.643
76143SOL    HW230327  10.298  13.271  13.636
76144SOL     OW30328   0.675   9.640  11.732
76144SOL    HW130329   0.604   9.631  11.796
76144SOL    HW230330   0.698   9.733  11.734
76145SOL     OW30331  10.396  11.898   5.369
76145SOL    HW130332  10.469  11.942   5.413
76145SOL    HW230333  10.333  11.967   5.350
76146SOL     OW30334  14.550   4.612   5.015
76146SOL    HW130335  14.558   4.605   4.919
76146SOL    HW230336  14.459   4.590   5.033
76147SOL     OW30337  14.312  13.358  12.269
76147SOL    HW130338  14.406  13.373  12.278
76147SOL    HW230339  14.297  13.275  12.315
76148SOL     OW30340   9.010   3.756   8.523
76148SOL    HW130341   9.074   3.800   8.467
76148SOL    HW230342   9.029   3.788   8.611
76149SOL     OW30343   5.696   7.156  13.035
76149SOL    HW130344   5.727   7.207  12.960
76149SOL    HW230345   5.624   7.207  13.071
76150SOL     OW30346   9.197   3.918  12.345
76150SOL    HW130347   9.142   3.923  12.423
76150SOL    HW230348   9.280   3.958  12.372
76151SOL     OW30349   8.720   8.681   6.372
76151SOL    HW130350   8.758   8.748   6.428
76151SOL    HW230351   8.759   8.599   6.402
76152SOL     OW30352  11.026  12.656   0.143
76152SOL    HW130353  11.114  12.640   0.108
76152SOL    HW230354  11.040  12.668   0.237
76153SOL     OW30355   9.892   0.907   4.118
76153SOL    HW130356   9.983   0.936   4.125
76153SOL    HW230357   9.852   0.937   4.200
76154SOL     OW30358   1.755   6.460   4.003
76154SOL    HW130359   1.823   6.462   4.070
76154SOL    HW230360   1.676   6.489   4.048
76155SOL     OW30361  12.909   4.476   2.659
76155SOL    HW130362  12.987   4.439   2.617
76155SOL    HW230363  12.932   4.566   2.678
76156SOL     OW30364   1.188   9.384  12.142
76156SOL    HW130365   1.121   9.370  12.076
76156SOL    HW230366   1.269   9.394  12.093
76157SOL     OW30367   7.593  12.834   3.141
76157SOL    HW130368   7.687  12.852   3.134
76157SOL    HW230369   7.564  12.890   3.214
76158SOL     OW30370   3.916  14.233   4.938
76158SOL    HW130371   3.820  14.232   4.932
76158SOL    HW230372   3.946  14.205   4.852
76159SOL     OW30373   0.466  14.230   6.727
76159SOL    HW130374   0.490  14.320   6.703
76159SOL    HW230375   0.517  14.212   6.806
76160SOL     OW30376  12.083   9.474   4.548
76160SOL    HW130377  12.124   9.485   4.633
76160SOL    HW230378  12.033   9.555   4.534
76161SOL     OW30379   2.844  11.843   0.849
76161SOL    HW130380   2.754  11.830   0.878
76161SOL    HW230381   2.837  11.904   0.775
76162SOL     OW30382  13.317  12.520  13.196
76162SOL    HW130383  13.339  12.521  13.103
76162SOL    HW230384  13.235  12.471  13.202
76163SOL     OW30385   5.821   0.225   6.015
76163SOL    HW130386   5.906   0.243   5.975
76163SOL    HW230387   5.772   0.178   5.948
76164SOL     OW30388   6.289  13.659  12.172
76164SOL    HW130389   6.348  13.717  12.124
76164SOL    HW230390   6.321  13.664  12.263
76165SOL     OW30391  11.239   2.324   3.737
76165SOL    HW130392  11.331   2.307   3.754
76165SOL    HW230393  11.235   2.416   3.712
76166SOL     OW30394  11.423   5.485   6.915
76166SOL    HW130395  11.466   5.570   6.918
76166SOL    HW230396  11.482   5.426   6.962
76167SOL     OW30397   5.124   5.173  12.069
76167SOL    HW130398   5.071   5.134  12.000
76167SOL    HW230399   5.119   5.267  12.054
76168SOL     OW30400   8.341   2.335   9.241
76168SOL    HW130401   8.359   2.406   9.179
76168SOL    HW230402   8.414   2.338   9.303
76169SOL     OW30403   1.226   1.852   7.592
76169SOL    HW130404   1.172   1.885   7.664
76169SOL    HW230405   1.296   1.917   7.584
76170SOL     OW30406   5.225   7.723   2.296
76170SOL    HW130407   5.215   7.813   2.262
76170SOL    HW230408   5.231   7.669   2.218
76171SOL     OW30409   8.558   5.692   0.568
76171SOL    HW130410   8.526   5.617   0.518
76171SOL    HW230411   8.651   5.698   0.545
76172SOL     OW30412   1.653   5.740   0.824
76172SOL    HW130413   1.684   5.658   0.786
76172SOL    HW230414   1.721   5.804   0.802
76173SOL     OW30415  11.819  10.987  14.304
76173SOL    HW130416  11.852  10.949  14.223
76173SOL    HW230417  11.818  11.081  14.288
76174SOL     OW30418  11.058   6.492  13.764
76174SOL    HW130419  11.037   6.512  13.855
76174SOL    HW230420  11.087   6.401  13.765
76175SOL     OW30421   7.842   5.212  12.238
76175SOL    HW130422   7.753   5.244  12.226
76175SOL    HW230423   7.836   5.117  12.228
76176SOL     OW30424   5.208   4.032  11.196
76176SOL    HW130425   5.247   4.094  11.257
76176SOL    HW230426   5.277   4.016  11.131
76177SOL     OW30427  12.873   3.688   0.705
76177SOL    HW130428  12.781   3.699   0.683
76177SOL    HW230429  12.901   3.613   0.652
76178SOL     OW30430  13.024   1.952  13.491
76178SOL    HW130431  13.113   1.916  13.486
76178SOL    HW230432  12.983   1.906  13.564
76179SOL     OW30433   4.433   5.445   9.266
76179SOL    HW130434   4.401   5.430   9.354
76179SOL    HW230435   4.515   5.395   9.261
76180SOL     OW30436  13.913   0.302   3.178
76180SOL    HW130437  14.003   0.306   3.145
76180SOL    HW230438  13.907   0.216   3.221
76181SOL     OW30439   6.562   0.800   4.554
76181SOL    HW130440   6.599   0.859   4.488
76181SOL    HW230441   6.626   0.798   4.625
76182SOL     OW30442   6.396   1.748  13.036
76182SOL    HW130443   6.432   1.691  13.104
76182SOL    HW230444   6.472   1.771  12.982
76183SOL     OW30445   7.153  10.656  12.891
76183SOL    HW130446   7.143  10.737  12.842
76183SOL    HW230447   7.120  10.588  12.832
76184SOL     OW30448   8.639  14.458  13.051
76184SOL    HW130449   8.604  14.439  12.964
76184SOL    HW230450   8.723  14.500  13.035
76185SOL     OW30451   1.098   4.133  10.491
76185SOL    HW130452   1.134   4.095  10.411
76185SOL    HW230453   1.175   4.158  10.542
76186SOL     OW30454  13.229   7.694   8.276
76186SOL    HW130455  13.226   7.619   8.336
76186SOL    HW230456  13.159   7.752   8.308
76187SOL     OW30457   2.680  13.583  13.505
76187SOL    HW130458   2.729  13.533  13.440
76187SOL    HW230459   2.588  13.568  13.484
76188SOL     OW30460   2.440   0.555  12.509
76188SOL    HW130461   2.420   0.597  12.425
76188SOL    HW230462   2.480   0.624  12.561
76189SOL     OW30463  12.205   7.985   7.697
76189SOL    HW130464  12.230   7.899   7.663
76189SOL    HW230465  12.279   8.010   7.753
76190SOL     OW30466   3.459  10.184   9.695
76190SOL    HW130467   3.405  10.235   9.755
76190SOL    HW230468   3.549  10.196   9.727
76191SOL     OW30469   3.384   4.967  13.994
76191SOL    HW130470   3.318   5.025  14.033
76191SOL    HW230471   3.338   4.925  13.921
76192SOL     OW30472   8.918   7.406   6.795
76192SOL    HW130473   8.919   7.421   6.700
76192SOL    HW230474   8.847   7.462   6.827
76193SOL     OW30475   6.543  12.808   0.938
76193SOL    HW130476   6.462  12.790   0.891
76193SOL    HW230477   6.558  12.901   0.927
76194SOL     OW30478  10.401   1.945   9.513
76194SOL    HW130479  10.374   2.019   9.460
76194SOL    HW230480  10.471   1.979   9.569
76195SOL     OW30481   2.363   5.762   6.535
76195SOL    HW130482   2.308   5.748   6.612
76195SOL    HW230483   2.344   5.687   6.478
76196SOL     OW30484  12.524   4.187  13.828
76196SOL    HW130485  12.490   4.233  13.751
76196SOL    HW230486  12.559   4.257  13.883
76197SOL     OW30487   9.969   3.586   9.149
76197SOL    HW130488   9.879   3.573   9.179
76197SOL    HW230489  10.023   3.542   9.215
76198SOL     OW30490  14.699  12.645   5.087
76198SOL    HW130491  14.746  12.708   5.033
76198SOL    HW230492  14.614  12.634   5.043
76199SOL     OW30493   0.142   9.670   5.425
76199SOL    HW130494   0.211   9.706   5.370
76199SOL    HW230495   0.188   9.613   5.487
76200SOL     OW30496   0.951  11.696  12.825
76200SOL    HW130497   0.923  11.702  12.916
76200SOL    HW230498   1.039  11.734  12.824
76201SOL     OW30499   2.436   1.630  11.988
76201SOL    HW130500   2.377   1.555  11.998
76201SOL    HW230501   2.503   1.601  11.927
76202SOL     OW30502  10.928   7.322   2.908
76202SOL    HW130503  10.894   7.331   2.819
76202SOL    HW230504  10.915   7.230   2.930
76203SOL     OW30505  11.233  11.009   5.193
76203SOL    HW130506  11.198  10.926   5.226
76203SOL    HW230507  11.186  11.025   5.111
76204SOL     OW30508  10.854   5.048   9.909
76204SOL    HW130509  10.902   5.007   9.981
76204SOL    HW230510  10.810   5.123   9.948
76205SOL     OW30511   2.176   8.553  10.403
76205SOL    HW130512   2.177   8.602  10.321
76205SOL    HW230513   2.187   8.620  10.471
76206SOL     OW30514   7.489  10.708   0.971
76206SOL    HW130515   7.464  10.617   0.985
76206SOL    HW230516   7.484  10.748   1.058
76207SOL     OW30517  13.037   5.388  13.447
76207SOL    HW130518  13.078   5.315  13.402
76207SOL    HW230519  12.970   5.348  13.502
76208SOL     OW30520   3.888   6.072  12.137
76208SOL    HW130521   3.874   6.028  12.053
76208SOL    HW230522   3.923   6.005  12.195
76209SOL     OW30523  13.980   1.933  10.259
76209SOL    HW130524  14.022   1.951  10.174
76209SOL    HW230525  13.985   2.017  10.305
76210SOL     OW30526  14.090  12.236  14.743
76210SOL    HW130527  14.158  12.186  14.788
76210SOL    HW230528  14.127  12.324  14.734
76211SOL     OW30529  14.024   2.889   0.326
76211SOL    HW130530  14.058   2.940   0.400
76211SOL    HW230531  14.076   2.918   0.251
76212SOL     OW30532  12.007   8.969   5.372
76212SOL    HW130533  12.061   8.943   5.297
76212SOL    HW230534  12.023   8.900   5.437
76213SOL     OW30535   2.562   5.467  14.516
76213SOL    HW130536   2.513   5.416  14.451
76213SOL    HW230537   2.519   5.552  14.518
76214SOL     OW30538  13.867   1.926   1.790
76214SOL    HW130539  13.869   1.960   1.701
76214SOL    HW230540  13.905   1.997   1.843
76215SOL     OW30541   7.656   7.994   7.623
76215SOL    HW130542   7.638   8.087   7.639
76215SOL    HW230543   7.633   7.952   7.706
76216SOL     OW30544  12.368   7.321   6.230
76216SOL    HW130545  12.307   7.257   6.193
76216SOL    HW230546  12.437   7.329   6.164
76217SOL     OW30547  14.273  13.868   7.598
76217SOL    HW130548  14.357  13.899   7.567
76217SOL    HW230549  14.218  13.946   7.601
76218SOL     OW30550   1.489   5.005  11.439
76218SOL    HW130551   1.549   5.078  11.425
76218SOL    HW230552   1.455   5.019  11.528
76219SOL     OW30553  12.095   8.480   2.452
76219SOL    HW130554  12.024   8.537   2.420
76219SOL    HW230555  12.157   8.477   2.379
76220SOL     OW30556   4.511   7.667  10.506
76220SOL    HW130557   4.476   7.609  10.437
76220SOL    HW230558   4.501   7.616  10.586
76221SOL     OW30559   0.818   9.226  11.736
76221SOL    HW130560   0.836   9.235  11.830
76221SOL    HW230561   0.725   9.246  11.728
76222SOL     OW30562   1.834   6.094   2.510
76222SOL    HW130563   1.812   6.034   2.582
76222SOL    HW230564   1.929   6.101   2.513
76223SOL     OW30565  10.886   1.319   6.917
76223SOL    HW130566  10.931   1.395   6.879
76223SOL    HW230567  10.956   1.266   6.954
76224SOL     OW30568   8.454   7.695   4.964
76224SOL    HW130569   8.373   7.722   5.007
76224SOL    HW230570   8.499   7.777   4.945
76225SOL     OW30571   9.588   7.070   0.085
76225SOL    HW130572   9.681   7.058   0.064
76225SOL    HW230573   9.559   6.983   0.113
76226SOL     OW30574   6.425   2.178  11.942
76226SOL    HW130575   6.392   2.267  11.945
76226SOL    HW230576   6.362   2.131  11.887
76227SOL     OW30577  11.330   1.267  10.479
76227SOL    HW130578  11.266   1.313  10.424
76227SOL    HW230579  11.307   1.175  10.469
76228SOL     OW30580  11.712   9.494   2.972
76228SOL    HW130581  11.697   9.562   3.038
76228SOL    HW230582  11.727   9.414   3.023
76229SOL     OW30583   6.241   0.842   8.679
76229SOL    HW130584   6.269   0.928   8.648
76229SOL    HW230585   6.209   0.857   8.767
76230SOL     OW30586  14.662   7.687  10.538
76230SOL    HW130587  14.710   7.684  10.621
76230SOL    HW230588  14.602   7.613  10.542
76231SOL     OW30589   8.715   8.834   1.474
76231SOL    HW130590   8.771   8.762   1.443
76231SOL    HW230591   8.775   8.892   1.521
76232SOL     OW30592   7.362   8.394  13.189
76232SOL    HW130593   7.434   8.421  13.133
76232SOL    HW230594   7.308   8.472  13.198
76233SOL     OW30595   6.072   2.227   5.464
76233SOL    HW130596   6.139   2.258   5.524
76233SOL    HW230597   6.115   2.159   5.412
76234SOL     OW30598  14.167   6.760   9.245
76234SOL    HW130599  14.231   6.828   9.225
76234SOL    HW230600  14.086   6.790   9.204
76235SOL     OW30601   0.685  11.179   5.031
76235SOL    HW130602   0.736  11.100   5.050
76235SOL    HW230603   0.730  11.249   5.078
76236SOL     OW30604   3.016   6.314  12.076
76236SOL    HW130605   3.035   6.294  12.168
76236SOL    HW230606   3.018   6.409  12.070
76237SOL     OW30607  13.212   8.062   9.031
76237SOL    HW130608  13.260   8.109   8.963
76237SOL    HW230609  13.120   8.073   9.008
76238SOL     OW30610   4.009   5.082   5.082
76238SOL    HW130611   3.976   5.152   5.139
76238SOL    HW230612   3.972   5.002   5.119
76239SOL     OW30613   8.067  11.351   3.430
76239SOL    HW130614   7.987  11.383   3.389
76239SOL    HW230615   8.114  11.430   3.458
76240SOL     OW30616   2.852   4.630   4.528
76240SOL    HW130617   2.935   4.617   4.574
76240SOL    HW230618   2.785   4.607   4.592
76241SOL     OW30619  13.941   0.000   2.515
76241SOL    HW130620  13.886   0.017   2.592
76241SOL    HW230621  13.986   0.083   2.500
76242SOL     OW30622   7.765   3.723   8.462
76242SOL    HW130623   7.822   3.647   8.475
76242SOL    HW230624   7.677   3.689   8.476
76243SOL     OW30625   4.034   6.182   0.043
76243SOL    HW130626   3.956   6.188   0.098
76243SOL    HW230627   4.100   6.234   0.089
76244SOL     OW30628   6.367  10.971  12.331
76244SOL    HW130629   6.387  10.964  12.237
76244SOL    HW230630   6.373  11.064  12.350
76245SOL     OW30631  12.091   0.438  10.978
76245SOL    HW130632  11.997   0.451  10.987
76245SOL    HW230633  12.113   0.372  11.044
76246SOL     OW30634   3.948   8.276  14.310
76246SOL    HW130635   4.042   8.266  14.326
76246SOL    HW230636   3.941   8.357  14.258
76247SOL     OW30637   4.491   9.040   8.233
76247SOL    HW130638   4.404   9.030   8.271
76247SOL    HW230639   4.508   9.135   8.236
76248SOL     OW30640   0.365  12.331  12.101
76248SOL    HW130641   0.321  12.289  12.175
76248SOL    HW230642   0.310  12.406  12.080
76249SOL     OW30643   2.974   5.197  10.064
76249SOL    HW130644   2.929   5.119  10.097
76249SOL    HW230645   3.065   5.186  10.093
76250SOL     OW30646  10.950   2.513   7.639
76250SOL    HW130647  10.924   2.549   7.723
76250SOL    HW230648  10.936   2.418   7.648
76251SOL     OW30649  12.201   2.398  10.923
76251SOL    HW130650  12.229   2.410  10.833
76251SOL    HW230651  12.157   2.312  10.923
76252SOL     OW30652   7.288  13.669   1.519
76252SOL    HW130653   7.323  13.605   1.457
76252SOL    HW230654   7.365  13.701   1.566
76253SOL     OW30655   3.503   3.497   1.811
76253SOL    HW130656   3.487   3.499   1.905
76253SOL    HW230657   3.520   3.588   1.787
76254SOL     OW30658  11.814   8.495  13.765
76254SOL    HW130659  11.772   8.502  13.679
76254SOL    HW230660  11.900   8.457  13.747
76255SOL     OW30661   7.264   5.790  13.561
76255SOL    HW130662   7.343   5.772  13.509
76255SOL    HW230663   7.236   5.877  13.533
76256SOL     OW30664   6.595   8.462  10.067
76256SOL    HW130665   6.641   8.417   9.996
76256SOL    HW230666   6.508   8.481  10.031
76257SOL     OW30667  14.370  14.012   6.894
76257SOL    HW130668  14.419  14.049   6.821
76257SOL    HW230669  14.306  13.953   6.852
76258SOL     OW30670   9.983  13.855   3.245
76258SOL    HW130671  10.027  13.928   3.289
76258SOL    HW230672  10.035  13.840   3.166
76259SOL     OW30673   6.053   3.313  11.395
76259SOL    HW130674   6.114   3.253  11.353
76259SOL    HW230675   6.060   3.294  11.488
76260SOL     OW30676  14.812   4.993   8.723
76260SOL    HW130677  14.797   5.039   8.640
76260SOL    HW230678  14.731   5.005   8.772
76261SOL     OW30679  14.556   3.093   6.092
76261SOL    HW130680  14.564   3.163   6.157
76261SOL    HW230681  14.622   3.114   6.027
76262SOL     OW30682  14.243  10.910   4.850
76262SOL    HW130683  14.319  10.867   4.890
76262SOL    HW230684  14.172  10.896   4.913
76263SOL     OW30685   8.832   9.916  10.161
76263SOL    HW130686   8.745   9.954  10.172
76263SOL    HW230687   8.824   9.827  10.197
76264SOL     OW30688   8.836   9.345   9.545
76264SOL    HW130689   8.824   9.311   9.633
76264SOL    HW230690   8.751   9.334   9.503
76265SOL     OW30691   8.452   7.052   5.897
76265SOL    HW130692   8.477   7.133   5.942
76265SOL    HW230693   8.497   6.983   5.945
76266SOL     OW30694   2.603   5.522   5.061
76266SOL    HW130695   2.659   5.509   4.985
76266SOL    HW230696   2.615   5.614   5.084
76267SOL     OW30697   0.740  13.403  12.728
76267SOL    HW130698   0.681  13.473  12.758
76267SOL    HW230699   0.716  13.390  12.636
76268SOL     OW30700  11.617  12.715  11.416
76268SOL    HW130701  11.695  12.737  11.364
76268SOL    HW230702  11.647  12.646  11.475
76269SOL     OW30703  11.837   1.084   5.296
76269SOL    HW130704  11.787   1.161   5.269
76269SOL    HW230705  11.927   1.117   5.306
76270SOL     OW30706  12.154   5.916  14.233
76270SOL    HW130707  12.079   5.907  14.174
76270SOL    HW230708  12.148   5.841  14.292
76271SOL     OW30709   1.899   1.150   5.316
76271SOL    HW130710   1.975   1.193   5.355
76271SOL    HW230711   1.838   1.221   5.296
76272SOL     OW30712  13.130  12.786   5.430
76272SOL    HW130713  13.111  12.741   5.348
76272SOL    HW230714  13.203  12.843   5.410
76273SOL     OW30715   9.189   7.409  11.659
76273SOL    HW130716   9.234   7.379  11.738
76273SOL    HW230717   9.116   7.348  11.648
76274SOL     OW30718  13.856  13.609  13.843
76274SOL    HW130719  13.819  13.678  13.898
76274SOL    HW230720  13.855  13.531  13.897
76275SOL     OW30721   2.555  14.709   8.484
76275SOL    HW130722   2.468  14.685   8.516
76275SOL    HW230723   2.540  14.741   8.395
76276SOL     OW30724   6.682  12.384  13.805
76276SOL    HW130725   6.727  12.408  13.724
76276SOL    HW230726   6.691  12.461  13.861
76277SOL     OW30727   3.162   7.377   3.496
76277SOL    HW130728   3.112   7.392   3.576
76277SOL    HW230729   3.193   7.286   3.504
76278SOL     OW30730  12.237  11.665   7.021
76278SOL    HW130731  12.173  11.671   7.092
76278SOL    HW230732  12.284  11.583   7.038
76279SOL     OW30733   7.034   9.436   6.708
76279SOL    HW130734   7.037   9.458   6.801
76279SOL    HW230735   7.105   9.372   6.696
76280SOL     OW30736  10.619  10.627   5.900
76280SOL    HW130737  10.617  10.640   5.806
76280SOL    HW230738  10.566  10.698   5.935
76281SOL     OW30739   3.185   9.895   7.502
76281SOL    HW130740   3.137   9.812   7.501
76281SOL    HW230741   3.166   9.935   7.418
76282SOL     OW30742  13.433   9.959   1.424
76282SOL    HW130743  13.350   9.967   1.471
76282SOL    HW230744  13.472   9.879   1.457
76283SOL     OW30745  10.855  10.411   8.179
76283SOL    HW130746  10.826  10.464   8.105
76283SOL    HW230747  10.950  10.407   8.170
76284SOL     OW30748   5.625   2.182   8.229
76284SOL    HW130749   5.551   2.176   8.169
76284SOL    HW230750   5.599   2.249   8.292
76285SOL     OW30751  13.978   0.111   8.365
76285SOL    HW130752  13.962   0.018   8.348
76285SOL    HW230753  14.009   0.114   8.455
76286SOL     OW30754  12.867   1.136   4.946
76286SOL    HW130755  12.868   1.057   5.000
76286SOL    HW230756  12.954   1.139   4.907
76287SOL     OW30757   5.977   6.845  11.739
76287SOL    HW130758   5.977   6.909  11.668
76287SOL    HW230759   6.023   6.769  11.703
76288SOL     OW30760  11.471  14.286   5.886
76288SOL    HW130761  11.423  14.313   5.808
76288SOL    HW230762  11.551  14.339   5.885
76289SOL     OW30763   1.142  14.412   5.146
76289SOL    HW130764   1.133  14.324   5.183
76289SOL    HW230765   1.134  14.399   5.051
76290SOL     OW30766  10.503   2.611  13.571
76290SOL    HW130767  10.491   2.692  13.621
76290SOL    HW230768  10.511   2.639  13.480
76291SOL     OW30769   2.242   6.863   6.832
76291SOL    HW130770   2.185   6.876   6.756
76291SOL    HW230771   2.329   6.850   6.795
76292SOL     OW30772  14.150  10.764  12.281
76292SOL    HW130773  14.079  10.753  12.345
76292SOL    HW230774  14.129  10.701  12.212
76293SOL     OW30775   2.811   1.550   6.300
76293SOL    HW130776   2.762   1.621   6.342
76293SOL    HW230777   2.816   1.482   6.367
76294SOL     OW30778   7.972  12.498   0.236
76294SOL    HW130779   7.877  12.492   0.245
76294SOL    HW230780   7.993  12.435   0.167
76295SOL     OW30781   2.191  10.922   9.366
76295SOL    HW130782   2.222  10.874   9.443
76295SOL    HW230783   2.226  11.010   9.378
76296SOL     OW30784   4.942  13.399   6.734
76296SOL    HW130785   5.012  13.399   6.669
76296SOL    HW230786   4.936  13.307   6.763
76297SOL     OW30787   4.151   2.468   1.440
76297SOL    HW130788   4.101   2.395   1.477
76297SOL    HW230789   4.218   2.487   1.505
76298SOL     OW30790  14.813   8.972   1.634
76298SOL    HW130791   0.032   8.974   1.662
76298SOL    HW230792  14.816   8.948   1.542
76299SOL     OW30793   4.539   6.630   8.743
76299SOL    HW130794   4.601   6.667   8.807
76299SOL    HW230795   4.581   6.643   8.658
76300SOL     OW30796   6.886   2.129  12.796
76300SOL    HW130797   6.818   2.138  12.863
76300SOL    HW230798   6.967   2.116  12.847
76301SOL     OW30799  12.319  14.631  12.983
76301SOL    HW130800  12.306  14.581  13.064
76301SOL    HW230801  12.375  14.575  12.929
76302SOL     OW30802  10.894  10.125  10.715
76302SOL    HW130803  10.908  10.082  10.800
76302SOL    HW230804  10.944  10.206  10.720
76303SOL     OW30805   9.983   1.987  14.618
76303SOL    HW130806   9.969   2.074  14.580
76303SOL    HW230807  10.029   2.004  14.700
76304SOL     OW30808   1.840   8.826  14.603
76304SOL    HW130809   1.794   8.864  14.678
76304SOL    HW230810   1.782   8.842  14.529
76305SOL     OW30811   1.039   8.470  10.871
76305SOL    HW130812   0.993   8.461  10.955
76305SOL    HW230813   1.075   8.383  10.854
76306SOL     OW30814  11.658  13.768   0.470
76306SOL    HW130815  11.711  13.835   0.514
76306SOL    HW230816  11.694  13.685   0.501
76307SOL     OW30817   5.774  10.829   8.646
76307SOL    HW130818   5.782  10.801   8.555
76307SOL    HW230819   5.799  10.922   8.645
76308SOL     OW30820   5.701   8.104   2.238
76308SOL    HW130821   5.697   8.011   2.261
76308SOL    HW230822   5.638   8.146   2.297
76309SOL     OW30823   3.024   8.914   0.177
76309SOL    HW130824   3.078   8.991   0.159
76309SOL    HW230825   3.019   8.868   0.094
76310SOL     OW30826   0.035  12.903  12.764
76310SOL    HW130827   0.083  12.923  12.844
76310SOL    HW230828  14.837  12.969  12.762
76311SOL     OW30829   4.521  12.456   5.914
76311SOL    HW130830   4.526  12.508   5.834
76311SOL    HW230831   4.595  12.485   5.967
76312SOL     OW30832  13.152   3.696   8.570
76312SOL    HW130833  13.094   3.628   8.604
76312SOL    HW230834  13.131   3.702   8.477
76313SOL     OW30835  11.288  13.964   4.148
76313SOL    HW130836  11.292  14.059   4.141
76313SOL    HW230837  11.210  13.948   4.202
76314SOL     OW30838   9.679  12.419   7.212
76314SOL    HW130839   9.604  12.478   7.205
76314SOL    HW230840   9.708  12.405   7.122
76315SOL     OW30841   1.267   5.068   8.970
76315SOL    HW130842   1.188   5.120   8.956
76315SOL    HW230843   1.260   4.996   8.907
76316SOL     OW30844  10.801   2.254   5.997
76316SOL    HW130845  10.782   2.348   6.005
76316SOL    HW230846  10.895   2.250   5.985
76317SOL     OW30847   9.390   3.363   1.483
76317SOL    HW130848   9.444   3.428   1.529
76317SOL    HW230849   9.330   3.414   1.430
76318SOL     OW30850  13.801   3.576   8.934
76318SOL    HW130851  13.866   3.511   8.906
76318SOL    HW230852  13.734   3.525   8.980
76319SOL     OW30853   5.264   9.182   9.418
76319SOL    HW130854   5.245   9.192   9.325
76319SOL    HW230855   5.259   9.271   9.453
76320SOL     OW30856   0.667   2.522  14.747
76320SOL    HW130857   0.651   2.616  14.756
76320SOL    HW230858   0.748   2.507  14.796
76321SOL     OW30859   0.605   6.811  11.172
76321SOL    HW130860   0.581   6.860  11.251
76321SOL    HW230861   0.669   6.746  11.202
76322SOL     OW30862  11.208  13.433  13.345
76322SOL    HW130863  11.155  13.362  13.309
76322SOL    HW230864  11.144  13.500  13.369
76323SOL     OW30865   2.856  14.667   7.555
76323SOL    HW130866   2.816  14.682   7.469
76323SOL    HW230867   2.944  14.703   7.547
76324SOL     OW30868   7.362   0.694  11.082
76324SOL    HW130869   7.279   0.730  11.053
76324SOL    HW230870   7.348   0.599  11.085
76325SOL     OW30871  10.424  12.730   4.690
76325SOL    HW130872  10.502  12.734   4.745
76325SOL    HW230873  10.383  12.816   4.700
76326SOL     OW30874   9.313   8.287   1.267
76326SOL    HW130875   9.222   8.315   1.271
76326SOL    HW230876   9.309   8.197   1.234
76327SOL     OW30877  14.438   0.447   1.761
76327SOL    HW130878  14.423   0.482   1.849
76327SOL    HW230879  14.409   0.356   1.767
76328SOL     OW30880   1.992   9.542   7.122
76328SOL    HW130881   1.922   9.480   7.106
76328SOL    HW230882   1.951   9.614   7.170
76329SOL     OW30883   3.055   8.878  12.878
76329SOL    HW130884   3.059   8.895  12.972
76329SOL    HW230885   3.075   8.785  12.870
76330SOL     OW30886  11.220  14.044  11.877
76330SOL    HW130887  11.226  14.110  11.945
76330SOL    HW230888  11.243  13.962  11.921
76331SOL     OW30889   0.953  14.164  13.693
76331SOL    HW130890   1.007  14.241  13.710
76331SOL    HW230891   1.017  14.094  13.675
76332SOL     OW30892   4.333   6.730   4.393
76332SOL    HW130893   4.375   6.684   4.466
76332SOL    HW230894   4.357   6.679   4.316
76333SOL     OW30895   5.326  10.765   0.882
76333SOL    HW130896   5.274  10.693   0.920
76333SOL    HW230897   5.395  10.720   0.832
76334SOL     OW30898   0.288   4.996   9.672
76334SOL    HW130899   0.233   4.964   9.601
76334SOL    HW230900   0.317   4.917   9.718
76335SOL     OW30901  13.883   1.424   8.637
76335SOL    HW130902  13.820   1.454   8.703
76335SOL    HW230903  13.839   1.352   8.593
76336SOL     OW30904   7.925   0.727   0.813
76336SOL    HW130905   7.972   0.648   0.840
76336SOL    HW230906   7.855   0.695   0.757
76337SOL     OW30907   6.499   9.665   7.930
76337SOL    HW130908   6.583   9.629   7.959
76337SOL    HW230909   6.433   9.611   7.974
76338SOL     OW30910   3.144   6.651   8.150
76338SOL    HW130911   3.133   6.720   8.215
76338SOL    HW230912   3.126   6.693   8.067
76339SOL     OW30913  13.600  13.823   8.167
76339SOL    HW130914  13.574  13.755   8.104
76339SOL    HW230915  13.670  13.870   8.123
76340SOL     OW30916   1.829   1.686   8.735
76340SOL    HW130917   1.856   1.754   8.674
76340SOL    HW230918   1.810   1.732   8.817
76341SOL     OW30919  13.494   1.743  13.974
76341SOL    HW130920  13.481   1.675  14.040
76341SOL    HW230921  13.481   1.825  14.021
76342SOL     OW30922   7.135  13.672  14.788
76342SOL    HW130923   7.040  13.678  14.797
76342SOL    HW230924   7.169  13.712  14.868
76343SOL     OW30925   8.643  10.394   5.513
76343SOL    HW130926   8.583  10.352   5.451
76343SOL    HW230927   8.675  10.471   5.467
76344SOL     OW30928  10.755  11.825  12.546
76344SOL    HW130929  10.661  11.843  12.545
76344SOL    HW230930  10.792  11.893  12.602
76345SOL     OW30931   7.662  13.169   8.788
76345SOL    HW130932   7.673  13.239   8.853
76345SOL    HW230933   7.572  13.139   8.801
76346SOL     OW30934  13.436   0.595   4.467
76346SOL    HW130935  13.394   0.615   4.550
76346SOL    HW230936  13.442   0.500   4.464
76347SOL     OW30937  14.080   9.989   7.657
76347SOL    HW130938  14.175   9.998   7.670
76347SOL    HW230939  14.069   9.988   7.562
76348SOL     OW30940  10.656   6.139   1.009
76348SOL    HW130941  10.648   6.107   1.098
76348SOL    HW230942  10.750   6.137   0.990
76349SOL     OW30943   7.432  10.986  12.231
76349SOL    HW130944   7.419  10.945  12.146
76349SOL    HW230945   7.358  11.046  12.241
76350SOL     OW30946  12.374   9.038  10.556
76350SOL    HW130947  12.393   9.107  10.620
76350SOL    HW230948  12.372   8.957  10.608
76351SOL     OW30949   1.818   7.015   0.627
76351SOL    HW130950   1.817   7.034   0.721
76351SOL    HW230951   1.838   7.099   0.585
76352SOL     OW30952   1.831   2.972   7.244
76352SOL    HW130953   1.810   3.041   7.180
76352SOL    HW230954   1.813   3.013   7.328
76353SOL     OW30955   9.060   2.040   8.142
76353SOL    HW130956   9.030   2.046   8.233
76353SOL    HW230957   8.983   2.062   8.090
76354SOL     OW30958   1.568   2.779   2.259
76354SOL    HW130959   1.489   2.797   2.310
76354SOL    HW230960   1.536   2.747   2.175
76355SOL     OW30961   9.248   2.760   2.839
76355SOL    HW130962   9.176   2.718   2.886
76355SOL    HW230963   9.259   2.845   2.883
76356SOL     OW30964   5.050  12.856   0.941
76356SOL    HW130965   5.019  12.803   0.867
76356SOL    HW230966   4.975  12.913   0.962
76357SOL     OW30967   5.162   5.520   6.993
76357SOL    HW130968   5.080   5.564   7.018
76357SOL    HW230969   5.135   5.431   6.969
76358SOL     OW30970   7.765   0.224   8.053
76358SOL    HW130971   7.790   0.259   7.967
76358SOL    HW230972   7.836   0.163   8.075
76359SOL     OW30973  14.271   7.168   7.728
76359SOL    HW130974  14.190   7.151   7.777
76359SOL    HW230975  14.243   7.179   7.638
76360SOL     OW30976   8.803   9.789  14.847
76360SOL    HW130977   8.896   9.767  14.852
76360SOL    HW230978   8.796   9.875   0.016
76361SOL     OW30979   5.494  11.855  10.717
76361SOL    HW130980   5.562  11.898  10.768
76361SOL    HW230981   5.482  11.911  10.640
76362SOL     OW30982  12.424  13.415   0.065
76362SOL    HW130983  12.504  13.397   0.115
76362SOL    HW230984  12.359  13.436   0.131
76363SOL     OW30985  11.240   0.354  10.648
76363SOL    HW130986  11.240   0.307  10.731
76363SOL    HW230987  11.266   0.287  10.583
76364SOL     OW30988   9.448   4.666   3.413
76364SOL    HW130989   9.517   4.731   3.419
76364SOL    HW230990   9.394   4.680   3.491
76365SOL     OW30991  11.153   6.206   8.179
76365SOL    HW130992  11.064   6.228   8.207
76365SOL    HW230993  11.192   6.290   8.153
76366SOL     OW30994   3.274   4.397   1.925
76366SOL    HW130995   3.273   4.478   1.876
76366SOL    HW230996   3.238   4.420   2.011
76367SOL     OW30997  11.057   6.128   3.149
76367SOL    HW130998  11.132   6.166   3.104
76367SOL    HW230999  11.064   6.160   3.238
76368SOL     OW31000   3.932   4.203   7.634
76368SOL    HW131001   3.897   4.291   7.644
76368SOL    HW231002   3.941   4.191   7.539
76369SOL     OW31003   8.322   8.520   7.563
76369SOL    HW131004   8.270   8.583   7.612
76369SOL    HW231005   8.334   8.446   7.624
76370SOL     OW31006   9.219   0.827   5.608
76370SOL    HW131007   9.293   0.767   5.607
76370SOL    HW231008   9.232   0.880   5.686
76371SOL     OW31009  10.116  10.789  10.184
76371SOL    HW131010  10.133  10.716  10.125
76371SOL    HW231011  10.054  10.844  10.137
76372SOL     OW31012   3.187  13.779   5.364
76372SOL    HW131013   3.275  13.813   5.382
76372SOL    HW231014   3.133  13.814   5.435
76373SOL     OW31015   8.281   1.475  12.764
76373SOL    HW131016   8.210   1.453  12.705
76373SOL    HW231017   8.337   1.397  12.766
76374SOL     OW31018   2.800   1.289  13.802
76374SOL    HW131019   2.844   1.205  13.811
76374SOL    HW231020   2.718   1.279  13.852
76375SOL     OW31021  10.493   7.739   1.855
76375SOL    HW131022  10.466   7.728   1.764
76375SOL    HW231023  10.511   7.833   1.864
76376SOL     OW31024  11.775   6.204  10.302
76376SOL    HW131025  11.814   6.262  10.367
76376SOL    HW231026  11.734   6.262  10.238
76377SOL     OW31027   1.544   2.251  14.604
76377SOL    HW131028   1.453   2.240  14.576
76377SOL    HW231029   1.596   2.222  14.529
76378SOL     OW31030   8.917   8.989   1.644
76378SOL    HW131031   9.012   8.998   1.650
76378SOL    HW231032   8.896   8.916   1.702
76379SOL     OW31033   6.405   6.172  13.200
76379SOL    HW131034   6.321   6.133  13.222
76379SOL    HW231035   6.429   6.130  13.117
76380SOL     OW31036  11.652   9.689  13.888
76380SOL    HW131037  11.688   9.690  13.799
76380SOL    HW231038  11.603   9.607  13.893
76381SOL     OW31039   4.641   9.305  11.316
76381SOL    HW131040   4.597   9.221  11.310
76381SOL    HW231041   4.644   9.338  11.226
76382SOL     OW31042   6.760  11.189   7.621
76382SOL    HW131043   6.750  11.168   7.714
76382SOL    HW231044   6.673  11.216   7.593
76383SOL     OW31045   0.413   3.766   2.221
76383SOL    HW131046   0.383   3.769   2.312
76383SOL    HW231047   0.418   3.858   2.194
76384SOL     OW31048   1.954   5.527  10.583
76384SOL    HW131049   1.873   5.564  10.619
76384SOL    HW231050   1.961   5.567  10.496
76385SOL     OW31051  12.761   0.035  13.561
76385SOL    HW131052  12.766   0.092  13.638
76385SOL    HW231053  12.745   0.094  13.488
76386SOL     OW31054  10.426   7.624   2.732
76386SOL    HW131055  10.369   7.693   2.697
76386SOL    HW231056  10.368   7.548   2.743
76387SOL     OW31057   8.271   8.306   4.858
76387SOL    HW131058   8.257   8.232   4.916
76387SOL    HW231059   8.209   8.292   4.786
76388SOL     OW31060   0.401   5.250   1.041
76388SOL    HW131061   0.311   5.219   1.035
76388SOL    HW231062   0.419   5.286   0.954
76389SOL     OW31063   2.148  12.399  10.578
76389SOL    HW131064   2.137  12.494  10.578
76389SOL    HW231065   2.122  12.371  10.666
76390SOL     OW31066   6.100   1.401   9.776
76390SOL    HW131067   6.036   1.472   9.786
76390SOL    HW231068   6.113   1.367   9.864
76391SOL     OW31069  13.174   1.327  12.331
76391SOL    HW131070  13.204   1.256  12.274
76391SOL    HW231071  13.205   1.303  12.418
76392SOL     OW31072   3.347  11.422   2.586
76392SOL    HW131073   3.399  11.364   2.641
76392SOL    HW231074   3.338  11.374   2.503
76393SOL     OW31075  13.190   3.747   7.637
76393SOL    HW131076  13.236   3.663   7.633
76393SOL    HW231077  13.203   3.776   7.728
76394SOL     OW31078   1.235  13.423   9.691
76394SOL    HW131079   1.146  13.406   9.724
76394SOL    HW231080   1.222  13.442   9.598
76395SOL     OW31081   4.610   1.667  14.195
76395SOL    HW131082   4.568   1.752  14.211
76395SOL    HW231083   4.685   1.667  14.253
76396SOL     OW31084   6.510  14.104   0.439
76396SOL    HW131085   6.543  14.173   0.495
76396SOL    HW231086   6.536  14.130   0.350
76397SOL     OW31087  11.852   8.853   6.103
76397SOL    HW131088  11.890   8.940   6.114
76397SOL    HW231089  11.760   8.863   6.130
76398SOL     OW31090   8.709   0.761   2.221
76398SOL    HW131091   8.782   0.761   2.158
76398SOL    HW231092   8.705   0.851   2.253
76399SOL     OW31093   9.659  11.957   0.466
76399SOL    HW131094   9.704  11.937   0.549
76399SOL    HW231095   9.711  12.029   0.429
76400SOL     OW31096   2.184   0.524   7.349
76400SOL    HW131097   2.248   0.542   7.280
76400SOL    HW231098   2.219   0.569   7.426
76401SOL     OW31099   0.445  12.350   4.812
76401SOL    HW131100   0.408  12.293   4.744
76401SOL    HW231101   0.419  12.438   4.786
76402SOL     OW31102   0.645  11.685   8.108
76402SOL    HW131103   0.667  11.629   8.034
76402SOL    HW231104   0.664  11.632   8.185
76403SOL     OW31105   2.566   1.340  14.783
76403SOL    HW131106   2.656   1.357  14.755
76403SOL    HW231107   2.564   1.368   0.002
76404SOL     OW31108   2.216  13.517  13.738
76404SOL    HW131109   2.308  13.529  13.716
76404SOL    HW231110   2.210  13.426  13.768
76405SOL     OW31111   3.678   3.472   5.613
76405SOL    HW131112   3.593   3.517   5.618
76405SOL    HW231113   3.672   3.418   5.534
76406SOL     OW31114   8.541  14.868  11.448
76406SOL    HW131115   8.510   0.086  11.437
76406SOL    HW231116   8.630  14.868  11.411
76407SOL     OW31117   4.979   4.748   5.667
76407SOL    HW131118   4.927   4.679   5.624
76407SOL    HW231119   4.975   4.822   5.607
76408SOL     OW31120   7.574  11.247   2.783
76408SOL    HW131121   7.487  11.263   2.821
76408SOL    HW231122   7.575  11.298   2.703
76409SOL     OW31123   2.217  14.711   7.398
76409SOL    HW131124   2.270  14.746   7.327
76409SOL    HW231125   2.211  14.782   7.462
76410SOL     OW31126   7.780  13.545   5.513
76410SOL    HW131127   7.769  13.516   5.603
76410SOL    HW231128   7.789  13.465   5.462
76411SOL     OW31129  10.369   4.443  14.527
76411SOL    HW131130  10.323   4.390  14.591
76411SOL    HW231131  10.343   4.408  14.442
76412SOL     OW31132  10.231   5.934  10.602
76412SOL    HW131133  10.281   5.975  10.531
76412SOL    HW231134  10.154   5.989  10.612
76413SOL     OW31135  13.679   0.844   2.740
76413SOL    HW131136  13.724   0.905   2.798
76413SOL    HW231137  13.744   0.819   2.675
76414SOL     OW31138  10.281  13.970  10.380
76414SOL    HW131139  10.348  13.984  10.447
76414SOL    HW231140  10.325  13.991  10.298
76415SOL     OW31141   0.009   5.163   7.306
76415SOL    HW131142   0.074   5.101   7.273
76415SOL    HW231143  14.799   5.115   7.300
76416SOL     OW31144   2.054   1.591   5.313
76416SOL    HW131145   2.079   1.676   5.277
76416SOL    HW231146   1.958   1.592   5.309
76417SOL     OW31147  11.732   1.131   7.921
76417SOL    HW131148  11.740   1.221   7.954
76417SOL    HW231149  11.683   1.085   7.990
76418SOL     OW31150   6.216   6.855  12.545
76418SOL    HW131151   6.234   6.841  12.452
76418SOL    HW231152   6.263   6.935  12.567
76419SOL     OW31153   0.169   0.201  12.893
76419SOL    HW131154   0.225   0.150  12.951
76419SOL    HW231155   0.165   0.150  12.812
76420SOL     OW31156   7.714   2.329  12.934
76420SOL    HW131157   7.730   2.253  12.878
76420SOL    HW231158   7.625   2.317  12.966
76421SOL     OW31159  10.048  10.354  12.777
76421SOL    HW131160  10.088  10.301  12.708
76421SOL    HW231161  10.028  10.437  12.736
76422SOL     OW31162   1.912   4.795   6.531
76422SOL    HW131163   2.005   4.805   6.551
76422SOL    HW231164   1.878   4.738   6.600
76423SOL     OW31165  12.881   8.960   2.386
76423SOL    HW131166  12.952   8.958   2.450
76423SOL    HW231167  12.919   8.920   2.308
76424SOL     OW31168   2.869  13.312   7.457
76424SOL    HW131169   2.906  13.399   7.469
76424SOL    HW231170   2.917  13.276   7.382
76425SOL     OW31171  11.459  13.975   6.430
76425SOL    HW131172  11.382  13.925   6.457
76425SOL    HW231173  11.478  13.946   6.341
76426SOL     OW31174   9.841  12.891   1.128
76426SOL    HW131175   9.819  12.983   1.122
76426SOL    HW231176   9.756  12.846   1.132
76427SOL     OW31177  10.223   4.970   0.297
76427SOL    HW131178  10.317   4.956   0.313
76427SOL    HW231179  10.202   5.047   0.350
76428SOL     OW31180   4.104   4.370   9.187
76428SOL    HW131181   4.143   4.289   9.152
76428SOL    HW231182   4.163   4.395   9.258
76429SOL     OW31183   3.365   9.870   4.834
76429SOL    HW131184   3.308   9.823   4.774
76429SOL    HW231185   3.452   9.834   4.818
76430SOL     OW31186   8.827   1.522   3.188
76430SOL    HW131187   8.871   1.442   3.157
76430SOL    HW231188   8.890   1.562   3.247
76431SOL     OW31189  11.416  14.682  12.255
76431SOL    HW131190  11.330  14.693  12.215
76431SOL    HW231191  11.451  14.602  12.215
76432SOL     OW31192   8.482  13.852   9.714
76432SOL    HW131193   8.548  13.833   9.781
76432SOL    HW231194   8.521  13.823   9.632
76433SOL     OW31195   7.513   2.044   1.169
76433SOL    HW131196   7.498   1.955   1.201
76433SOL    HW231197   7.431   2.090   1.186
76434SOL     OW31198   9.296   4.188  10.349
76434SOL    HW131199   9.243   4.114  10.319
76434SOL    HW231200   9.346   4.215  10.271
76435SOL     OW31201  10.016   2.683   7.157
76435SOL    HW131202  10.068   2.661   7.080
76435SOL    HW231203   9.956   2.752   7.127
76436SOL     OW31204  14.228   9.743  12.654
76436SOL    HW131205  14.219   9.728  12.748
76436SOL    HW231206  14.193   9.831  12.640
76437SOL     OW31207   6.760   8.276   1.055
76437SOL    HW131208   6.760   8.182   1.074
76437SOL    HW231209   6.741   8.281   0.962
76438SOL     OW31210   9.780   0.719   5.574
76438SOL    HW131211   9.790   0.638   5.524
76438SOL    HW231212   9.808   0.788   5.514
76439SOL     OW31213   2.286  10.494   8.781
76439SOL    HW131214   2.303  10.527   8.692
76439SOL    HW231215   2.229  10.560   8.820
76440SOL     OW31216   8.517  12.162   6.623
76440SOL    HW131217   8.538  12.240   6.571
76440SOL    HW231218   8.600  12.113   6.626
76441SOL     OW31219   5.226   9.355   2.982
76441SOL    HW131220   5.153   9.320   2.930
76441SOL    HW231221   5.299   9.359   2.921
76442SOL     OW31222   2.711   4.246   6.832
76442SOL    HW131223   2.653   4.275   6.903
76442SOL    HW231224   2.664   4.270   6.752
76443SOL     OW31225   4.714  12.515   9.662
76443SOL    HW131226   4.619  12.511   9.655
76443SOL    HW231227   4.746  12.450   9.600
76444SOL     OW31228   3.985   3.863  11.697
76444SOL    HW131229   4.014   3.812  11.773
76444SOL    HW231230   3.889   3.862  11.702
76445SOL     OW31231  12.834   2.422  14.708
76445SOL    HW131232  12.856   2.354  14.643
76445SOL    HW231233  12.916   2.439  14.754
76446SOL     OW31234  14.262   7.173   0.788
76446SOL    HW131235  14.189   7.113   0.774
76446SOL    HW231236  14.286   7.161   0.879
76447SOL     OW31237   1.497   0.767   5.472
76447SOL    HW131238   1.524   0.820   5.547
76447SOL    HW231239   1.578   0.755   5.421
76448SOL     OW31240   9.285   0.421   4.940
76448SOL    HW131241   9.344   0.351   4.912
76448SOL    HW231242   9.297   0.490   4.874
76449SOL     OW31243  11.793   6.732  12.772
76449SOL    HW131244  11.746   6.690  12.700
76449SOL    HW231245  11.762   6.688  12.851
76450SOL     OW31246   4.788   7.189  13.194
76450SOL    HW131247   4.771   7.282  13.208
76450SOL    HW231248   4.805   7.154  13.282
76451SOL     OW31249   7.043   4.287   1.794
76451SOL    HW131250   7.129   4.248   1.782
76451SOL    HW231251   7.052   4.377   1.761
76452SOL     OW31252  12.725   0.909  10.982
76452SOL    HW131253  12.743   0.999  11.009
76452SOL    HW231254  12.778   0.897  10.904
76453SOL     OW31255   6.015   6.169   3.548
76453SOL    HW131256   6.075   6.242   3.563
76453SOL    HW231257   6.069   6.091   3.561
76454SOL     OW31258  14.145  14.398   8.883
76454SOL    HW131259  14.072  14.459   8.890
76454SOL    HW231260  14.117  14.333   8.819
76455SOL     OW31261   0.068   9.412  13.525
76455SOL    HW131262   0.018   9.399  13.606
76455SOL    HW231263   0.158   9.424  13.555
76456SOL     OW31264   2.221  11.332   1.981
76456SOL    HW131265   2.144  11.331   2.039
76456SOL    HW231266   2.229  11.423   1.954
76457SOL     OW31267   4.952  11.367   8.653
76457SOL    HW131268   4.947  11.456   8.687
76457SOL    HW231269   4.938  11.376   8.559
76458SOL     OW31270   1.627  14.695   0.976
76458SOL    HW131271   1.605  14.783   0.948
76458SOL    HW231272   1.628  14.643   0.896
76459SOL     OW31273   4.601   4.318   9.242
76459SOL    HW131274   4.554   4.271   9.310
76459SOL    HW231275   4.655   4.252   9.200
76460SOL     OW31276   0.990   1.698   6.816
76460SOL    HW131277   0.915   1.649   6.783
76460SOL    HW231278   0.952   1.777   6.855
76461SOL     OW31279  11.324   7.193  13.422
76461SOL    HW131280  11.312   7.248  13.499
76461SOL    HW231281  11.316   7.104  13.454
76462SOL     OW31282   0.133  14.556  11.135
76462SOL    HW131283   0.062  14.606  11.175
76462SOL    HW231284   0.103  14.465  11.137
76463SOL     OW31285   0.014   1.806  13.056
76463SOL    HW131286   0.033   1.737  12.993
76463SOL    HW231287  14.851   1.878  13.004
76464SOL     OW31288  14.237  12.746  11.604
76464SOL    HW131289  14.250  12.778  11.693
76464SOL    HW231290  14.260  12.654  11.607
76465SOL     OW31291  14.584   4.420   7.435
76465SOL    HW131292  14.556   4.336   7.471
76465SOL    HW231293  14.530   4.485   7.480
76466SOL     OW31294   3.562   8.154  10.451
76466SOL    HW131295   3.485   8.203  10.481
76466SOL    HW231296   3.625   8.222  10.427
76467SOL     OW31297   3.013   8.083   4.744
76467SOL    HW131298   2.965   8.130   4.811
76467SOL    HW231299   3.079   8.033   4.792
76468SOL     OW31300  10.262   8.618  11.889
76468SOL    HW131301  10.344   8.587  11.850
76468SOL    HW231302  10.241   8.697  11.840
76469SOL     OW31303   1.630  11.273   9.209
76469SOL    HW131304   1.581  11.299   9.286
76469SOL    HW231305   1.720  11.265   9.238
76470SOL     OW31306   9.166   1.039   4.842
76470SOL    HW131307   9.192   0.951   4.868
76470SOL    HW231308   9.237   1.095   4.872
76471SOL     OW31309   6.472   1.254   3.108
76471SOL    HW131310   6.395   1.263   3.164
76471SOL    HW231311   6.546   1.272   3.166
76472SOL     OW31312  12.809   2.780   5.108
76472SOL    HW131313  12.733   2.837   5.118
76472SOL    HW231314  12.773   2.691   5.107
76473SOL     OW31315  10.454  10.395   2.429
76473SOL    HW131316  10.479  10.402   2.521
76473SOL    HW231317  10.503  10.320   2.396
76474SOL     OW31318   3.223   9.340   1.327
76474SOL    HW131319   3.223   9.247   1.305
76474SOL    HW231320   3.199   9.384   1.245
76475SOL     OW31321   5.590  13.522  12.118
76475SOL    HW131322   5.611  13.431  12.141
76475SOL    HW231323   5.670  13.556  12.079
76476SOL     OW31324  14.446  14.352   6.831
76476SOL    HW131325  14.485  14.290   6.770
76476SOL    HW231326  14.469  14.319   6.917
76477SOL     OW31327   3.648  10.112   4.070
76477SOL    HW131328   3.601  10.194   4.057
76477SOL    HW231329   3.708  10.107   3.995
76478SOL     OW31330   5.492   6.461   3.110
76478SOL    HW131331   5.464   6.466   3.201
76478SOL    HW231332   5.525   6.549   3.089
76479SOL     OW31333   0.863  12.488   6.884
76479SOL    HW131334   0.951  12.483   6.847
76479SOL    HW231335   0.868  12.434   6.963
76480SOL     OW31336   3.757  11.538   1.480
76480SOL    HW131337   3.708  11.550   1.562
76480SOL    HW231338   3.841  11.501   1.507
76481SOL     OW31339   6.264   3.914  11.394
76481SOL    HW131340   6.347   3.959  11.403
76481SOL    HW231341   6.227   3.947  11.312
76482SOL     OW31342   6.738   2.279   7.116
76482SOL    HW131343   6.652   2.265   7.078
76482SOL    HW231344   6.722   2.295   7.209
76483SOL     OW31345  14.187   0.144  11.658
76483SOL    HW131346  14.122   0.171  11.592
76483SOL    HW231347  14.239   0.223  11.674
76484SOL     OW31348   9.886   6.454  12.591
76484SOL    HW131349   9.840   6.534  12.618
76484SOL    HW231350   9.948   6.484  12.524
76485SOL     OW31351  13.950   1.629   3.904
76485SOL    HW131352  13.907   1.679   3.834
76485SOL    HW231353  13.885   1.564   3.930
76486SOL     OW31354   7.501  13.336   7.261
76486SOL    HW131355   7.554  13.413   7.241
76486SOL    HW231356   7.563  13.271   7.293
76487SOL     OW31357  13.150   7.319   7.368
76487SOL    HW131358  13.062   7.286   7.386
76487SOL    HW231359  13.159   7.396   7.424
76488SOL     OW31360   3.034   0.228   3.006
76488SOL    HW131361   3.026   0.166   3.078
76488SOL    HW231362   3.116   0.203   2.962
76489SOL     OW31363   8.500  11.216  11.954
76489SOL    HW131364   8.591  11.185  11.960
76489SOL    HW231365   8.453  11.144  11.913
76490SOL     OW31366   7.460   5.629  10.594
76490SOL    HW131367   7.508   5.628  10.677
76490SOL    HW231368   7.441   5.722  10.579
76491SOL     OW31369  10.366  10.806   3.166
76491SOL    HW131370  10.283  10.853   3.178
76491SOL    HW231371  10.369  10.786   3.072
76492SOL     OW31372   8.780   9.077   2.400
76492SOL    HW131373   8.835   9.155   2.408
76492SOL    HW231374   8.798   9.044   2.312
76493SOL     OW31375   5.649   6.630  12.069
76493SOL    HW131376   5.733   6.625  12.023
76493SOL    HW231377   5.591   6.571  12.021
76494SOL     OW31378   0.847  12.456  13.897
76494SOL    HW131379   0.807  12.369  13.897
76494SOL    HW231380   0.893  12.461  13.981
76495SOL     OW31381   0.479   6.664  10.087
76495SOL    HW131382   0.414   6.595  10.098
76495SOL    HW231383   0.501   6.661   9.994
76496SOL     OW31384  13.538   1.754   1.194
76496SOL    HW131385  13.550   1.660   1.190
76496SOL    HW231386  13.467   1.772   1.133
76497SOL     OW31387   6.542   2.514   0.224
76497SOL    HW131388   6.578   2.567   0.153
76497SOL    HW231389   6.595   2.535   0.300
76498SOL     OW31390   5.310   1.216  13.986
76498SOL    HW131391   5.327   1.309  13.973
76498SOL    HW231392   5.344   1.197  14.073
76499SOL     OW31393   0.130   9.359   3.577
76499SOL    HW131394   0.153   9.449   3.554
76499SOL    HW231395   0.169   9.305   3.508
76500SOL     OW31396   6.974  10.507   0.660
76500SOL    HW131397   6.975  10.594   0.620
76500SOL    HW231398   7.065  10.480   0.663
76501SOL     OW31399   7.018   4.568   6.351
76501SOL    HW131400   7.075   4.574   6.427
76501SOL    HW231401   7.066   4.614   6.281
76502SOL     OW31402   7.658   1.643   8.763
76502SOL    HW131403   7.668   1.723   8.711
76502SOL    HW231404   7.579   1.658   8.815
76503SOL     OW31405  12.217   5.151  12.674
76503SOL    HW131406  12.179   5.070  12.707
76503SOL    HW231407  12.301   5.159  12.720
76504SOL     OW31408  12.646   2.564   5.464
76504SOL    HW131409  12.669   2.630   5.529
76504SOL    HW231410  12.574   2.515   5.504
76505SOL     OW31411   0.154   4.003  10.836
76505SOL    HW131412   0.082   4.037  10.888
76505SOL    HW231413   0.135   4.030  10.746
76506SOL     OW31414  12.376  11.367  12.517
76506SOL    HW131415  12.430  11.293  12.489
76506SOL    HW231416  12.323  11.388  12.440
76507SOL     OW31417   4.082   0.155   2.441
76507SOL    HW131418   4.126   0.141   2.358
76507SOL    HW231419   4.147   0.132   2.507
76508SOL     OW31420   8.950  12.217  11.088
76508SOL    HW131421   9.041  12.238  11.068
76508SOL    HW231422   8.911  12.195  11.003
76509SOL     OW31423   1.500  13.657  14.726
76509SOL    HW131424   1.458  13.679  14.809
76509SOL    HW231425   1.469  13.569  14.706
76510SOL     OW31426   8.630   9.407   8.186
76510SOL    HW131427   8.581   9.440   8.262
76510SOL    HW231428   8.567   9.354   8.138
76511SOL     OW31429   1.546   5.843  11.779
76511SOL    HW131430   1.476   5.844  11.714
76511SOL    HW231431   1.597   5.764  11.759
76512SOL     OW31432   8.603   1.327   2.155
76512SOL    HW131433   8.512   1.324   2.125
76512SOL    HW231434   8.601   1.288   2.242
76513SOL     OW31435   7.690   9.353  11.472
76513SOL    HW131436   7.702   9.441  11.437
76513SOL    HW231437   7.770   9.306  11.448
76514SOL     OW31438   4.783  12.047  10.765
76514SOL    HW131439   4.780  12.105  10.841
76514SOL    HW231440   4.771  12.106  10.690
76515SOL     OW31441  10.037   6.878  13.942
76515SOL    HW131442  10.056   6.910  13.854
76515SOL    HW231443  10.005   6.789  13.929
76516SOL     OW31444   8.335   9.603   8.853
76516SOL    HW131445   8.376   9.688   8.838
76516SOL    HW231446   8.242   9.618   8.835
76517SOL     OW31447  13.044   4.013  11.724
76517SOL    HW131448  13.125   3.989  11.769
76517SOL    HW231449  13.072   4.051  11.641
76518SOL     OW31450   2.300   9.832   4.365
76518SOL    HW131451   2.389   9.856   4.389
76518SOL    HW231452   2.301   9.827   4.269
76519SOL     OW31453  10.689   6.025  10.738
76519SOL    HW131454  10.771   6.073  10.746
76519SOL    HW231455  10.705   5.960  10.670
76520SOL     OW31456   1.765  10.190   6.034
76520SOL    HW131457   1.765  10.282   6.060
76520SOL    HW231458   1.831  10.150   6.091
76521SOL     OW31459   5.133   2.238   7.637
76521SOL    HW131460   5.206   2.300   7.633
76521SOL    HW231461   5.054   2.293   7.639
76522SOL     OW31462   4.387   2.630   1.094
76522SOL    HW131463   4.432   2.707   1.059
76522SOL    HW231464   4.387   2.643   1.188
76523SOL     OW31465   5.667  11.624  10.020
76523SOL    HW131466   5.718  11.590   9.947
76523SOL    HW231467   5.713  11.703  10.046
76524SOL     OW31468  13.198  10.330  10.630
76524SOL    HW131469  13.243  10.248  10.608
76524SOL    HW231470  13.209  10.339  10.725
76525SOL     OW31471   5.413  13.121   3.143
76525SOL    HW131472   5.335  13.127   3.199
76525SOL    HW231473   5.416  13.205   3.097
76526SOL     OW31474   3.295   9.372   2.633
76526SOL    HW131475   3.371   9.369   2.691
76526SOL    HW231476   3.292   9.462   2.601
76527SOL     OW31477   4.421  13.634   8.480
76527SOL    HW131478   4.483  13.568   8.449
76527SOL    HW231479   4.460  13.717   8.455
76528SOL     OW31480   8.663  11.497  13.288
76528SOL    HW131481   8.611  11.433  13.238
76528SOL    HW231482   8.753  11.478  13.264
76529SOL     OW31483  10.018   6.860   8.283
76529SOL    HW131484   9.936   6.854   8.334
76529SOL    HW231485  10.073   6.790   8.320
76530SOL     OW31486  10.587   7.622   5.784
76530SOL    HW131487  10.598   7.656   5.695
76530SOL    HW231488  10.493   7.612   5.795
76531SOL     OW31489   6.606   8.730   1.754
76531SOL    HW131490   6.595   8.702   1.845
76531SOL    HW231491   6.595   8.650   1.703
76532SOL     OW31492   5.596   5.717   6.993
76532SOL    HW131493   5.593   5.752   6.904
76532SOL    HW231494   5.505   5.719   7.022
76533SOL     OW31495  13.021   0.232  10.632
76533SOL    HW131496  12.993   0.320  10.659
76533SOL    HW231497  12.987   0.174  10.701
76534SOL     OW31498   9.130  14.732  11.417
76534SOL    HW131499   9.166  14.657  11.370
76534SOL    HW231500   9.036  14.728  11.400
76535SOL     OW31501  14.749   5.809   4.167
76535SOL    HW131502  14.661   5.841   4.184
76535SOL    HW231503  14.753   5.724   4.211
76536SOL     OW31504   5.303   7.102   6.366
76536SOL    HW131505   5.215   7.112   6.330
76536SOL    HW231506   5.310   7.170   6.433
76537SOL     OW31507   7.583  12.847  11.214
76537SOL    HW131508   7.553  12.907  11.282
76537SOL    HW231509   7.674  12.871  11.199
76538SOL     OW31510  11.787   7.272   8.270
76538SOL    HW131511  11.824   7.218   8.340
76538SOL    HW231512  11.755   7.209   8.205
76539SOL     OW31513   1.835   9.381  10.041
76539SOL    HW131514   1.799   9.368   9.953
76539SOL    HW231515   1.770   9.435  10.086
76540SOL     OW31516   1.556   0.386   7.562
76540SOL    HW131517   1.551   0.361   7.654
76540SOL    HW231518   1.488   0.452   7.551
76541SOL     OW31519   7.384   6.635  10.228
76541SOL    HW131520   7.367   6.628  10.322
76541SOL    HW231521   7.331   6.566  10.189
76542SOL     OW31522   1.753   4.380  11.515
76542SOL    HW131523   1.810   4.436  11.463
76542SOL    HW231524   1.797   4.295  11.515
76543SOL     OW31525  10.525  10.002   9.635
76543SOL    HW131526  10.540  10.083   9.684
76543SOL    HW231527  10.574   9.936   9.684
76544SOL     OW31528   8.190  11.349  13.802
76544SOL    HW131529   8.242  11.427  13.817
76544SOL    HW231530   8.253  11.277  13.799
76545SOL     OW31531   8.671   1.639   8.097
76545SOL    HW131532   8.732   1.618   8.167
76545SOL    HW231533   8.630   1.556   8.076
76546SOL     OW31534   3.260   8.817  14.395
76546SOL    HW131535   3.258   8.773  14.480
76546SOL    HW231536   3.292   8.751  14.334
76547SOL     OW31537  14.783  14.380  10.151
76547SOL    HW131538  14.788  14.474  10.166
76547SOL    HW231539  14.720  14.348  10.216
76548SOL     OW31540  12.008   7.419   9.946
76548SOL    HW131541  11.924   7.424   9.902
76548SOL    HW231542  12.029   7.510   9.967
76549SOL     OW31543   2.056   8.984   5.936
76549SOL    HW131544   1.983   8.940   5.980
76549SOL    HW231545   2.016   9.059   5.892
76550SOL     OW31546   2.576   4.980   9.442
76550SOL    HW131547   2.638   4.912   9.413
76550SOL    HW231548   2.588   4.983   9.537
76551SOL     OW31549   0.870  10.371   0.338
76551SOL    HW131550   0.894  10.333   0.254
76551SOL    HW231551   0.838  10.297   0.390
76552SOL     OW31552   3.158   5.046   5.208
76552SOL    HW131553   3.140   5.053   5.302
76552SOL    HW231554   3.247   5.079   5.198
76553SOL     OW31555   4.178   7.863   8.957
76553SOL    HW131556   4.087   7.892   8.970
76553SOL    HW231557   4.229   7.916   9.018
76554SOL     OW31558  12.036   8.652  10.654
76554SOL    HW131559  11.984   8.729  10.631
76554SOL    HW231560  12.000   8.621  10.737
76555SOL     OW31561   7.774   0.278  12.597
76555SOL    HW131562   7.862   0.244  12.617
76555SOL    HW231563   7.716   0.204  12.611
76556SOL     OW31564  10.952   9.666   8.062
76556SOL    HW131565  10.956   9.748   8.013
76556SOL    HW231566  10.929   9.600   7.996
76557SOL     OW31567   7.575  14.551   9.732
76557SOL    HW131568   7.666  14.527   9.750
76557SOL    HW231569   7.551  14.499   9.655
76558SOL     OW31570   3.689   7.003   6.644
76558SOL    HW131571   3.631   7.053   6.587
76558SOL    HW231572   3.777   7.027   6.617
76559SOL     OW31573  13.374   3.832  12.619
76559SOL    HW131574  13.459   3.816  12.579
76559SOL    HW231575  13.321   3.867  12.547
76560SOL     OW31576  10.291  14.329  10.829
76560SOL    HW131577  10.269  14.359  10.741
76560SOL    HW231578  10.207  14.310  10.871
76561SOL     OW31579  12.262   1.099   2.066
76561SOL    HW131580  12.192   1.035   2.074
76561SOL    HW231581  12.226   1.168   2.011
76562SOL     OW31582   9.991   4.973   3.307
76562SOL    HW131583   9.998   4.968   3.211
76562SOL    HW231584   9.907   5.016   3.322
76563SOL     OW31585   5.167   5.012   5.225
76563SOL    HW131586   5.234   4.976   5.167
76563SOL    HW231587   5.132   5.087   5.177
76564SOL     OW31588   2.990   8.001   6.679
76564SOL    HW131589   2.910   8.053   6.668
76564SOL    HW231590   3.048   8.056   6.732
76565SOL     OW31591   3.893   3.188  12.539
76565SOL    HW131592   3.946   3.128  12.592
76565SOL    HW231593   3.803   3.162  12.557
76566SOL     OW31594  12.668   7.037   4.426
76566SOL    HW131595  12.704   7.112   4.474
76566SOL    HW231596  12.657   7.069   4.336
76567SOL     OW31597   3.653   8.595  12.542
76567SOL    HW131598   3.686   8.622  12.627
76567SOL    HW231599   3.615   8.675  12.504
76568SOL     OW31600   0.534   4.138   0.170
76568SOL    HW131601   0.475   4.195   0.221
76568SOL    HW231602   0.594   4.102   0.236
76569SOL     OW31603   7.145   1.225  11.849
76569SOL    HW131604   7.233   1.190  11.845
76569SOL    HW231605   7.105   1.183  11.925
76570SOL     OW31606  14.444   8.480  13.871
76570SOL    HW131607  14.520   8.451  13.921
76570SOL    HW231608  14.428   8.569  13.903
76571SOL     OW31609   5.215  10.695  10.131
76571SOL    HW131610   5.241  10.728  10.046
76571SOL    HW231611   5.129  10.734  10.147
76572SOL     OW31612   5.687  10.410   1.961
76572SOL    HW131613   5.640  10.450   1.888
76572SOL    HW231614   5.723  10.485   2.009
76573SOL     OW31615   1.955   1.298   3.848
76573SOL    HW131616   1.933   1.291   3.756
76573SOL    HW231617   1.882   1.257   3.894
76574SOL     OW31618   4.316   9.873  11.939
76574SOL    HW131619   4.391   9.862  11.880
76574SOL    HW231620   4.276   9.786  11.943
76575SOL     OW31621   4.335  12.783   5.216
76575SOL    HW131622   4.273  12.721   5.178
76575SOL    HW231623   4.341  12.759   5.308
76576SOL     OW31624   0.689  12.474  13.134
76576SOL    HW131625   0.683  12.380  13.148
76576SOL    HW231626   0.699  12.511  13.222
76577SOL     OW31627   9.134   3.374  13.723
76577SOL    HW131628   9.228   3.361  13.732
76577SOL    HW231629   9.099   3.358  13.810
76578SOL     OW31630   8.692   7.872  12.244
76578SOL    HW131631   8.645   7.789  12.254
76578SOL    HW231632   8.782   7.852  12.271
76579SOL     OW31633  12.761  10.345   1.309
76579SOL    HW131634  12.773  10.272   1.248
76579SOL    HW231635  12.680  10.324   1.355
76580SOL     OW31636  10.212   3.398   7.174
76580SOL    HW131637  10.118   3.380   7.179
76580SOL    HW231638  10.232   3.444   7.255
76581SOL     OW31639  13.891   4.607   3.852
76581SOL    HW131640  13.869   4.520   3.884
76581SOL    HW231641  13.967   4.593   3.796
76582SOL     OW31642  12.153   8.891   2.752
76582SOL    HW131643  12.178   8.818   2.808
76582SOL    HW231644  12.235   8.941   2.741
76583SOL     OW31645   2.654  10.874  14.728
76583SOL    HW131646   2.719  10.811  14.759
76583SOL    HW231647   2.689  10.906  14.645
76584SOL     OW31648  10.486   2.568  12.721
76584SOL    HW131649  10.528   2.569  12.635
76584SOL    HW231650  10.448   2.655  12.730
76585SOL     OW31651  11.065   8.308   8.192
76585SOL    HW131652  11.118   8.362   8.132
76585SOL    HW231653  10.975   8.332   8.172
76586SOL     OW31654   1.311   4.702   7.758
76586SOL    HW131655   1.232   4.666   7.799
76586SOL    HW231656   1.317   4.657   7.674
76587SOL     OW31657  12.120   1.334   0.386
76587SOL    HW131658  12.136   1.276   0.460
76587SOL    HW231659  12.207   1.361   0.356
76588SOL     OW31660  12.805   4.690  11.234
76588SOL    HW131661  12.831   4.675  11.325
76588SOL    HW231662  12.753   4.614  11.211
76589SOL     OW31663   7.101  14.449  11.778
76589SOL    HW131664   7.016  14.409  11.761
76589SOL    HW231665   7.137  14.467  11.691
76590SOL     OW31666  10.828   4.985   4.037
76590SOL    HW131667  10.909   4.949   4.074
76590SOL    HW231668  10.851   5.075   4.013
76591SOL     OW31669   7.281  13.585   9.923
76591SOL    HW131670   7.361  13.544   9.955
76591SOL    HW231671   7.217  13.569   9.992
76592SOL     OW31672   0.049   9.940   9.401
76592SOL    HW131673  14.856  10.002   9.368
76592SOL    HW231674   0.133   9.984   9.384
76593SOL     OW31675   9.326   5.130  14.314
76593SOL    HW131676   9.279   5.089  14.241
76593SOL    HW231677   9.323   5.064  14.384
76594SOL     OW31678   6.676   9.411   5.332
76594SOL    HW131679   6.722   9.341   5.379
76594SOL    HW231680   6.742   9.447   5.272
76595SOL     OW31681  14.328  11.196   1.403
76595SOL    HW131682  14.360  11.166   1.318
76595SOL    HW231683  14.259  11.259   1.381
76596SOL     OW31684   9.842  14.050  11.216
76596SOL    HW131685   9.765  14.003  11.248
76596SOL    HW231686   9.827  14.060  11.122
76597SOL     OW31687   0.933  10.746   8.387
76597SOL    HW131688   0.861  10.745   8.450
76597SOL    HW231689   0.996  10.682   8.422
76598SOL     OW31690   8.128  13.992   0.133
76598SOL    HW131691   8.063  13.936   0.174
76598SOL    HW231692   8.167  14.041   0.206
76599SOL     OW31693   1.333   2.709  12.134
76599SOL    HW131694   1.344   2.729  12.041
76599SOL    HW231695   1.239   2.701  12.146
76600SOL     OW31696   5.926  14.004   5.779
76600SOL    HW131697   5.873  13.930   5.808
76600SOL    HW231698   6.016  13.980   5.801
76601SOL     OW31699  10.289   2.780   8.646
76601SOL    HW131700  10.280   2.686   8.637
76601SOL    HW231701  10.329   2.809   8.565
76602SOL     OW31702   8.635   6.698  11.408
76602SOL    HW131703   8.694   6.624  11.396
76602SOL    HW231704   8.628   6.738  11.321
76603SOL     OW31705   3.502  10.934   7.307
76603SOL    HW131706   3.543  10.985   7.377
76603SOL    HW231707   3.415  10.912   7.340
76604SOL     OW31708   1.395  10.484  14.105
76604SOL    HW131709   1.415  10.420  14.174
76604SOL    HW231710   1.419  10.439  14.023
76605SOL     OW31711  14.603  12.692   5.745
76605SOL    HW131712  14.639  12.753   5.809
76605SOL    HW231713  14.581  12.614   5.796
76606SOL     OW31714   8.713   9.674   9.712
76606SOL    HW131715   8.691   9.600   9.769
76606SOL    HW231716   8.779   9.723   9.761
76607SOL     OW31717   3.327  10.057   3.205
76607SOL    HW131718   3.281   9.975   3.225
76607SOL    HW231719   3.262  10.126   3.219
76608SOL     OW31720   8.723  13.809   9.851
76608SOL    HW131721   8.679  13.818   9.935
76608SOL    HW231722   8.802  13.861   9.859
76609SOL     OW31723   5.459  11.745  14.020
76609SOL    HW131724   5.536  11.801  14.015
76609SOL    HW231725   5.392  11.791  13.970
76610SOL     OW31726   0.303   7.119  13.318
76610SOL    HW131727   0.250   7.187  13.277
76610SOL    HW231728   0.308   7.050  13.252
76611SOL     OW31729   4.189   5.037   8.589
76611SOL    HW131730   4.117   5.100   8.590
76611SOL    HW231731   4.267   5.090   8.606
76612SOL     OW31732  12.905  12.850   8.439
76612SOL    HW131733  12.969  12.824   8.373
76612SOL    HW231734  12.853  12.771   8.454
76613SOL     OW31735  10.682   7.187   6.201
76613SOL    HW131736  10.609   7.189   6.263
76613SOL    HW231737  10.644   7.219   6.119
76614SOL     OW31738   7.986  11.903   6.990
76614SOL    HW131739   7.899  11.937   7.014
76614SOL    HW231740   8.041  11.981   6.985
76615SOL     OW31741   9.015  12.329   5.421
76615SOL    HW131742   9.083  12.308   5.358
76615SOL    HW231743   9.000  12.247   5.468
76616SOL     OW31744  13.278  12.695  14.672
76616SOL    HW131745  13.257  12.717  14.581
76616SOL    HW231746  13.193  12.679  14.713
76617SOL     OW31747  13.681   4.005   5.437
76617SOL    HW131748  13.610   4.047   5.486
76617SOL    HW231749  13.690   4.057   5.357
76618SOL     OW31750  10.069   3.139  13.779
76618SOL    HW131751  10.134   3.082  13.739
76618SOL    HW231752  10.088   3.135  13.873
76619SOL     OW31753   1.588  10.050   5.896
76619SOL    HW131754   1.650  10.096   5.952
76619SOL    HW231755   1.635   9.972   5.866
76620SOL     OW31756   7.553   4.385   8.551
76620SOL    HW131757   7.627   4.379   8.490
76620SOL    HW231758   7.476   4.391   8.495
76621SOL     OW31759   1.804   6.506  12.521
76621SOL    HW131760   1.729   6.449  12.502
76621SOL    HW231761   1.875   6.447  12.545
76622SOL     OW31762  13.745  10.611   3.989
76622SOL    HW131763  13.824  10.593   4.040
76622SOL    HW231764  13.679  10.552   4.026
76623SOL     OW31765   8.956  11.446   1.545
76623SOL    HW131766   9.045  11.420   1.520
76623SOL    HW231767   8.965  11.481   1.634
76624SOL     OW31768   9.291  11.023   3.190
76624SOL    HW131769   9.214  11.042   3.244
76624SOL    HW231770   9.332  11.109   3.176
76625SOL     OW31771   9.230   6.451   4.453
76625SOL    HW131772   9.168   6.514   4.490
76625SOL    HW231773   9.221   6.373   4.507
76626SOL     OW31774  10.844   7.638  12.619
76626SOL    HW131775  10.789   7.717  12.618
76626SOL    HW231776  10.866   7.622  12.528
76627SOL     OW31777   4.679   7.188   0.164
76627SOL    HW131778   4.621   7.156   0.095
76627SOL    HW231779   4.759   7.212   0.118
76628SOL     OW31780  10.956   4.971  14.398
76628SOL    HW131781  10.988   4.972  14.488
76628SOL    HW231782  10.905   4.890  14.392
76629SOL     OW31783   0.554   6.118  11.145
76629SOL    HW131784   0.635   6.122  11.095
76629SOL    HW231785   0.581   6.094  11.233
76630SOL     OW31786   4.261  11.075   3.273
76630SOL    HW131787   4.288  11.127   3.348
76630SOL    HW231788   4.216  10.999   3.311
76631SOL     OW31789   0.197   4.475   2.498
76631SOL    HW131790   0.118   4.422   2.502
76631SOL    HW231791   0.167   4.565   2.509
76632SOL     OW31792  13.203   5.062   4.450
76632SOL    HW131793  13.298   5.047   4.455
76632SOL    HW231794  13.193   5.126   4.379
76633SOL     OW31795   0.676  10.271   9.605
76633SOL    HW131796   0.748  10.227   9.652
76633SOL    HW231797   0.633  10.324   9.672
76634SOL     OW31798   6.404  10.737   2.329
76634SOL    HW131799   6.353  10.753   2.248
76634SOL    HW231800   6.437  10.824   2.353
76635SOL     OW31801   3.453   0.793  12.987
76635SOL    HW131802   3.382   0.856  12.974
76635SOL    HW231803   3.410   0.713  13.016
76636SOL     OW31804   8.924   7.946  14.831
76636SOL    HW131805   8.906   8.037  14.857
76636SOL    HW231806   8.843   7.899  14.850
76637SOL     OW31807   5.139   0.683   4.123
76637SOL    HW131808   5.133   0.590   4.102
76637SOL    HW231809   5.134   0.688   4.218
76638SOL     OW31810   4.410   7.698   6.123
76638SOL    HW131811   4.344   7.651   6.174
76638SOL    HW231812   4.484   7.707   6.182
76639SOL     OW31813   3.953   8.557   6.692
76639SOL    HW131814   3.924   8.633   6.743
76639SOL    HW231815   3.903   8.563   6.610
76640SOL     OW31816  10.005  13.609  12.724
76640SOL    HW131817  10.043  13.557  12.794
76640SOL    HW231818  10.069  13.605  12.653
76641SOL     OW31819  13.236   3.942   4.230
76641SOL    HW131820  13.237   3.849   4.250
76641SOL    HW231821  13.206   3.984   4.311
76642SOL     OW31822   3.427   0.283  11.354
76642SOL    HW131823   3.484   0.230  11.298
76642SOL    HW231824   3.463   0.271  11.442
76643SOL     OW31825   6.253   9.172  12.134
76643SOL    HW131826   6.241   9.146  12.043
76643SOL    HW231827   6.200   9.110  12.184
76644SOL     OW31828   8.444  14.522  13.645
76644SOL    HW131829   8.386  14.585  13.602
76644SOL    HW231830   8.525  14.525  13.595
76645SOL     OW31831   4.157   8.663  10.921
76645SOL    HW131832   4.071   8.707  10.922
76645SOL    HW231833   4.140   8.579  10.879
76646SOL     OW31834  11.899   3.796  11.584
76646SOL    HW131835  11.983   3.792  11.538
76646SOL    HW231836  11.852   3.717  11.556
76647SOL     OW31837  14.693  11.833   6.188
76647SOL    HW131838  14.667  11.925   6.175
76647SOL    HW231839  14.611  11.788   6.210
76648SOL     OW31840   5.892   4.566  14.350
76648SOL    HW131841   5.856   4.581  14.262
76648SOL    HW231842   5.959   4.499  14.337
76649SOL     OW31843   8.964   7.850   5.137
76649SOL    HW131844   8.946   7.775   5.079
76649SOL    HW231845   8.931   7.926   5.089
76650SOL     OW31846  12.206   4.147   3.794
76650SOL    HW131847  12.226   4.094   3.871
76650SOL    HW231848  12.246   4.232   3.812
76651SOL     OW31849   9.621  14.161  13.395
76651SOL    HW131850   9.599  14.155  13.488
76651SOL    HW231851   9.543  14.199  13.354
76652SOL     OW31852  14.195   6.142   2.136
76652SOL    HW131853  14.288   6.124   2.122
76652SOL    HW231854  14.166   6.180   2.053
76653SOL     OW31855  12.990  14.481  10.351
76653SOL    HW131856  13.070  14.530  10.332
76653SOL    HW231857  13.017  14.412  10.411
76654SOL     OW31858   7.863  10.509   2.445
76654SOL    HW131859   7.825  10.518   2.358
76654SOL    HW231860   7.872  10.414   2.458
76655SOL     OW31861   1.524   2.404   0.628
76655SOL    HW131862   1.489   2.417   0.717
76655SOL    HW231863   1.456   2.439   0.570
76656SOL     OW31864  13.592   0.396   2.882
76656SOL    HW131865  13.615   0.372   2.971
76656SOL    HW231866  13.521   0.459   2.892
76657SOL     OW31867   2.993   8.696  12.200
76657SOL    HW131868   3.034   8.640  12.134
76657SOL    HW231869   2.906   8.715  12.165
76658SOL     OW31870   4.657  10.702   0.128
76658SOL    HW131871   4.738  10.663   0.158
76658SOL    HW231872   4.615  10.736   0.207
76659SOL     OW31873   4.963   5.040   2.095
76659SOL    HW131874   4.949   5.132   2.119
76659SOL    HW231875   5.044   5.041   2.043
76660SOL     OW31876   9.395   2.581  11.625
76660SOL    HW131877   9.361   2.502  11.584
76660SOL    HW231878   9.428   2.553  11.710
76661SOL     OW31879   6.913   0.783  14.107
76661SOL    HW131880   6.885   0.700  14.069
76661SOL    HW231881   6.979   0.816  14.046
76662SOL     OW31882   7.119   4.442   7.517
76662SOL    HW131883   7.170   4.520   7.542
76662SOL    HW231884   7.149   4.422   7.429
76663SOL     OW31885   2.671  14.591  11.463
76663SOL    HW131886   2.600  14.606  11.526
76663SOL    HW231887   2.726  14.524  11.503
76664SOL     OW31888   2.092  13.510   4.235
76664SOL    HW131889   2.009  13.554   4.216
76664SOL    HW231890   2.159  13.576   4.219
76665SOL     OW31891   1.084   7.678   5.608
76665SOL    HW131892   1.003   7.631   5.629
76665SOL    HW231893   1.102   7.730   5.686
76666SOL     OW31894   8.372   4.387   2.320
76666SOL    HW131895   8.457   4.423   2.346
76666SOL    HW231896   8.309   4.453   2.347
76667SOL     OW31897   1.108  14.598   9.557
76667SOL    HW131898   1.171  14.535   9.524
76667SOL    HW231899   1.125  14.602   9.652
76668SOL     OW31900   4.789   4.266   7.617
76668SOL    HW131901   4.854   4.207   7.654
76668SOL    HW231902   4.741   4.300   7.693
76669SOL     OW31903  10.054   6.906  13.360
76669SOL    HW131904  10.066   6.821  13.318
76669SOL    HW231905  10.034   6.886  13.451
76670SOL     OW31906   1.907   6.275   9.253
76670SOL    HW131907   1.999   6.259   9.272
76670SOL    HW231908   1.861   6.244   9.331
76671SOL     OW31909   1.905   8.356  10.193
76671SOL    HW131910   1.978   8.372  10.133
76671SOL    HW231911   1.946   8.347  10.279
76672SOL     OW31912   7.365  10.183   0.285
76672SOL    HW131913   7.373  10.138   0.201
76672SOL    HW231914   7.387  10.117   0.351
76673SOL     OW31915   7.299   5.224   8.374
76673SOL    HW131916   7.377   5.187   8.331
76673SOL    HW231917   7.335   5.290   8.434
76674SOL     OW31918  11.403   8.498  13.978
76674SOL    HW131919  11.357   8.456  14.050
76674SOL    HW231920  11.390   8.592  13.992
76675SOL     OW31921   5.002   2.039   5.526
76675SOL    HW131922   4.971   2.000   5.445
76675SOL    HW231923   5.095   2.019   5.529
76676SOL     OW31924   1.779   7.017  10.709
76676SOL    HW131925   1.840   7.040  10.639
76676SOL    HW231926   1.835   6.987  10.780
76677SOL     OW31927   5.560   1.077   9.145
76677SOL    HW131928   5.538   1.005   9.086
76677SOL    HW231929   5.617   1.038   9.211
76678SOL     OW31930   4.763  11.623  10.620
76678SOL    HW131931   4.832  11.558  10.611
76678SOL    HW231932   4.697  11.581  10.676
76679SOL     OW31933   1.172   1.055  12.997
76679SOL    HW131934   1.231   1.116  13.041
76679SOL    HW231935   1.211   1.041  12.911
76680SOL     OW31936   1.512   8.625   3.194
76680SOL    HW131937   1.417   8.618   3.198
76680SOL    HW231938   1.532   8.710   3.233
76681SOL     OW31939  10.595  13.802  13.283
76681SOL    HW131940  10.620  13.786  13.374
76681SOL    HW231941  10.508  13.840  13.288
76682SOL     OW31942   0.471   8.068   3.274
76682SOL    HW131943   0.432   7.995   3.322
76682SOL    HW231944   0.424   8.145   3.306
76683SOL     OW31945   9.191  11.144  10.495
76683SOL    HW131946   9.164  11.232  10.471
76683SOL    HW231947   9.112  11.091  10.485
76684SOL     OW31948   7.534   3.455   2.903
76684SOL    HW131949   7.460   3.489   2.953
76684SOL    HW231950   7.605   3.518   2.920
76685SOL     OW31951  13.336   5.170   1.764
76685SOL    HW131952  13.245   5.199   1.767
76685SOL    HW231953  13.380   5.234   1.707
76686SOL     OW31954  13.696   4.394   9.296
76686SOL    HW131955  13.782   4.377   9.336
76686SOL    HW231956  13.634   4.378   9.367
76687SOL     OW31957   1.004  11.251   3.661
76687SOL    HW131958   0.968  11.278   3.577
76687SOL    HW231959   0.932  11.206   3.705
76688SOL     OW31960   1.593  10.957   0.990
76688SOL    HW131961   1.563  10.873   1.025
76688SOL    HW231962   1.589  11.017   1.065
76689SOL     OW31963   3.888  13.134   0.486
76689SOL    HW131964   3.982  13.149   0.477
76689SOL    HW231965   3.872  13.053   0.436
76690SOL     OW31966   9.656   3.678  11.305
76690SOL    HW131967   9.593   3.614  11.336
76690SOL    HW231968   9.649   3.675  11.209
76691SOL     OW31969   5.124   0.110   9.391
76691SOL    HW131970   5.210   0.146   9.411
76691SOL    HW231971   5.125   0.098   9.296
76692SOL     OW31972  11.672   2.155  11.625
76692SOL    HW131973  11.667   2.059  11.625
76692SOL    HW231974  11.593   2.183  11.580
76693SOL     OW31975  12.783   8.265  10.921
76693SOL    HW131976  12.864   8.273  10.971
76693SOL    HW231977  12.739   8.349  10.932
76694SOL     OW31978   5.257   2.580  11.885
76694SOL    HW131979   5.347   2.560  11.907
76694SOL    HW231980   5.235   2.658  11.937
76695SOL     OW31981   7.911  11.174   0.794
76695SOL    HW131982   7.837  11.177   0.856
76695SOL    HW231983   7.892  11.098   0.739
76696SOL     OW31984  10.570  11.760   0.586
76696SOL    HW131985  10.650  11.797   0.550
76696SOL    HW231986  10.532  11.709   0.515
76697SOL     OW31987  12.391  12.454   5.022
76697SOL    HW131988  12.401  12.450   4.927
76697SOL    HW231989  12.481  12.453   5.056
76698SOL     OW31990  12.651  10.011   9.578
76698SOL    HW131991  12.609   9.983   9.659
76698SOL    HW231992  12.602  10.089   9.551
76699SOL     OW31993  12.029  10.770   6.003
76699SOL    HW131994  11.979  10.772   5.922
76699SOL    HW231995  12.094  10.840   5.992
76700SOL     OW31996   5.381   7.610  13.206
76700SOL    HW131997   5.291   7.584  13.188
76700SOL    HW231998   5.425   7.603  13.121
76701SOL     OW31999   2.830   2.384  11.295
76701SOL    HW132000   2.889   2.373  11.221
76701SOL    HW232001   2.760   2.322  11.280
76702SOL     OW32002   7.000   7.512  10.513
76702SOL    HW132003   6.933   7.504  10.581
76702SOL    HW232004   6.953   7.502  10.431
76703SOL     OW32005   1.053   2.047   0.323
76703SOL    HW132006   1.077   2.033   0.231
76703SOL    HW232007   1.002   1.970   0.346
76704SOL     OW32008   7.269   5.150  13.247
76704SOL    HW132009   7.198   5.122  13.305
76704SOL    HW232010   7.237   5.232  13.209
76705SOL     OW32011   2.552  10.330   7.850
76705SOL    HW132012   2.518  10.330   7.761
76705SOL    HW232013   2.487  10.282   7.901
76706SOL     OW32014  12.384  14.860   2.878
76706SOL    HW132015  12.361  14.870   2.786
76706SOL    HW232016  12.315   0.036   2.925
76707SOL     OW32017  13.777   4.046  13.219
76707SOL    HW132018  13.684   4.043  13.243
76707SOL    HW232019  13.819   3.987  13.282
76708SOL     OW32020  10.032   3.880  12.537
76708SOL    HW132021  10.110   3.870  12.484
76708SOL    HW232022  10.027   3.800  12.590
76709SOL     OW32023  12.834   9.239   5.664
76709SOL    HW132024  12.800   9.250   5.753
76709SOL    HW232025  12.782   9.169   5.626
76710SOL     OW32026   6.220   5.884   2.490
76710SOL    HW132027   6.312   5.861   2.472
76710SOL    HW232028   6.181   5.802   2.520
76711SOL     OW32029  13.962   7.128   5.536
76711SOL    HW132030  14.000   7.208   5.574
76711SOL    HW232031  13.950   7.149   5.444
76712SOL     OW32032   9.141   6.457  14.581
76712SOL    HW132033   9.180   6.462  14.494
76712SOL    HW232034   9.212   6.430  14.638
76713SOL     OW32035  10.240  11.417   2.533
76713SOL    HW132036  10.260  11.361   2.458
76713SOL    HW232037  10.326  11.449   2.562
76714SOL     OW32038   4.088  11.959  12.612
76714SOL    HW132039   4.136  11.933  12.690
76714SOL    HW232040   4.028  11.886  12.595
76715SOL     OW32041  13.459  13.056   7.200
76715SOL    HW132042  13.468  13.076   7.293
76715SOL    HW232043  13.547  13.068   7.165
76716SOL     OW32044   2.817   7.350   2.869
76716SOL    HW132045   2.728   7.384   2.861
76716SOL    HW232046   2.806   7.255   2.862
76717SOL     OW32047   2.318   9.701   0.794
76717SOL    HW132048   2.305   9.703   0.889
76717SOL    HW232049   2.293   9.789   0.765
76718SOL     OW32050  10.895  13.714  11.912
76718SOL    HW132051  10.835  13.667  11.969
76718SOL    HW232052  10.874  13.807  11.926
76719SOL     OW32053   3.100  10.884   9.807
76719SOL    HW132054   3.110  10.966   9.758
76719SOL    HW232055   3.154  10.821   9.759
76720SOL     OW32056   9.774   3.088   9.630
76720SOL    HW132057   9.683   3.106   9.607
76720SOL    HW232058   9.768   3.031   9.707
76721SOL     OW32059   0.292  12.588   7.176
76721SOL    HW132060   0.271  12.613   7.266
76721SOL    HW232061   0.357  12.519   7.185
76722SOL     OW32062   0.783   2.735  13.334
76722SOL    HW132063   0.741   2.675  13.395
76722SOL    HW232064   0.817   2.806  13.389
76723SOL     OW32065   6.214   4.703   3.212
76723SOL    HW132066   6.143   4.766   3.224
76723SOL    HW232067   6.171   4.624   3.179
76724SOL     OW32068  13.907   7.453  12.433
76724SOL    HW132069  13.869   7.456  12.345
76724SOL    HW232070  13.997   7.424  12.420
76725SOL     OW32071   9.576   7.428   1.138
76725SOL    HW132072   9.481   7.426   1.153
76725SOL    HW232073   9.587   7.486   1.063
76726SOL     OW32074   1.363   2.525   6.310
76726SOL    HW132075   1.404   2.483   6.385
76726SOL    HW232076   1.404   2.611   6.305
76727SOL     OW32077   1.519   0.653   4.426
76727SOL    HW132078   1.442   0.640   4.371
76727SOL    HW232079   1.569   0.721   4.381
76728SOL     OW32080  10.409  12.777   6.433
76728SOL    HW132081  10.481  12.714   6.436
76728SOL    HW232082  10.426  12.837   6.505
76729SOL     OW32083   8.250   9.273  12.667
76729SOL    HW132084   8.321   9.234  12.615
76729SOL    HW232085   8.283   9.273  12.756
76730SOL     OW32086   3.670   1.941   0.898
76730SOL    HW132087   3.758   1.904   0.895
76730SOL    HW232088   3.620   1.888   0.836
76731SOL     OW32089   1.335   5.581   0.317
76731SOL    HW132090   1.349   5.491   0.347
76731SOL    HW232091   1.387   5.588   0.237
76732SOL     OW32092   9.330   5.796   0.197
76732SOL    HW132093   9.340   5.773   0.289
76732SOL    HW232094   9.402   5.750   0.153
76733SOL     OW32095   8.122   6.910   6.340
76733SOL    HW132096   8.030   6.883   6.345
76733SOL    HW232097   8.163   6.845   6.283
76734SOL     OW32098   8.369   1.908  13.772
76734SOL    HW132099   8.411   1.829  13.805
76734SOL    HW232100   8.365   1.896  13.677
76735SOL     OW32101  13.136   0.974  10.719
76735SOL    HW132102  13.177   1.061  10.718
76735SOL    HW232103  13.045   0.990  10.693
76736SOL     OW32104  11.233  11.829   2.055
76736SOL    HW132105  11.213  11.742   2.088
76736SOL    HW232106  11.313  11.819   2.004
76737SOL     OW32107   0.365   1.265  12.176
76737SOL    HW132108   0.334   1.176  12.161
76737SOL    HW232109   0.340   1.313  12.096
76738SOL     OW32110   2.217  14.651  12.485
76738SOL    HW132111   2.132  14.694  12.495
76738SOL    HW232112   2.197  14.567  12.444
76739SOL     OW32113   3.887   5.164   8.460
76739SOL    HW132114   3.963   5.150   8.403
76739SOL    HW232115   3.844   5.241   8.425
76740SOL     OW32116  13.710   8.212   2.293
76740SOL    HW132117  13.705   8.117   2.303
76740SOL    HW232118  13.768   8.241   2.363
76741SOL     OW32119   1.487   1.307  10.639
76741SOL    HW132120   1.545   1.300  10.563
76741SOL    HW232121   1.399   1.299  10.603
76742SOL     OW32122   0.010   2.066   6.577
76742SOL    HW132123  14.868   2.028   6.663
76742SOL    HW232124  14.810   2.129   6.566
76743SOL     OW32125  13.138   2.081   7.318
76743SOL    HW132126  13.157   2.030   7.397
76743SOL    HW232127  13.099   2.017   7.258
76744SOL     OW32128   7.210  12.743   3.604
76744SOL    HW132129   7.194  12.800   3.680
76744SOL    HW232130   7.296  12.770   3.572
76745SOL     OW32131  12.686   2.552   5.192
76745SOL    HW132132  12.604   2.574   5.148
76745SOL    HW232133  12.664   2.550   5.285
76746SOL     OW32134   5.389  13.742   8.093
76746SOL    HW132135   5.424  13.657   8.064
76746SOL    HW232136   5.319  13.718   8.154
76747SOL     OW32137   2.360  11.963   5.752
76747SOL    HW132138   2.445  12.005   5.764
76747SOL    HW232139   2.380  11.874   5.726
76748SOL     OW32140   9.280  13.067  10.060
76748SOL    HW132141   9.272  13.090   9.967
76748SOL    HW232142   9.227  13.132  10.106
76749SOL     OW32143   7.371  11.580   0.461
76749SOL    HW132144   7.313  11.559   0.388
76749SOL    HW232145   7.312  11.605   0.532
76750SOL     OW32146  12.878   7.956   2.761
76750SOL    HW132147  12.846   8.025   2.702
76750SOL    HW232148  12.863   7.990   2.849
76751SOL     OW32149   8.781   7.769  10.448
76751SOL    HW132150   8.688   7.790  10.460
76751SOL    HW232151   8.782   7.693  10.390
76752SOL     OW32152   4.388  14.212   9.334
76752SOL    HW132153   4.399  14.221   9.428
76752SOL    HW232154   4.436  14.286   9.297
76753SOL     OW32155  10.029   2.724   2.432
76753SOL    HW132156   9.935   2.721   2.417
76753SOL    HW232157  10.067   2.737   2.345
76754SOL     OW32158   5.450   3.147  13.226
76754SOL    HW132159   5.544   3.160  13.211
76754SOL    HW232160   5.432   3.196  13.306
76755SOL     OW32161   8.951   3.718   7.724
76755SOL    HW132162   8.975   3.809   7.707
76755SOL    HW232163   9.012   3.667   7.671
76756SOL     OW32164   6.983   2.423   8.811
76756SOL    HW132165   6.901   2.376   8.794
76756SOL    HW232166   7.032   2.413   8.729
76757SOL     OW32167   6.145  10.862   6.220
76757SOL    HW132168   6.094  10.940   6.199
76757SOL    HW232169   6.221  10.866   6.163
76758SOL     OW32170   8.423   8.528  10.857
76758SOL    HW132171   8.340   8.479  10.854
76758SOL    HW232172   8.411   8.590  10.928
76759SOL     OW32173   9.060  13.017   8.388
76759SOL    HW132174   9.149  13.047   8.405
76759SOL    HW232175   9.072  12.943   8.328
76760SOL     OW32176   3.312   8.566  14.191
76760SOL    HW132177   3.338   8.497  14.131
76760SOL    HW232178   3.226   8.539  14.223
76761SOL     OW32179  12.702  10.386   0.578
76761SOL    HW132180  12.683  10.447   0.650
76761SOL    HW232181  12.786  10.416   0.543
76762SOL     OW32182   8.389  12.528  11.920
76762SOL    HW132183   8.404  12.549  11.828
76762SOL    HW232184   8.448  12.455  11.938
76763SOL     OW32185   5.172  10.067   4.938
76763SOL    HW132186   5.116  10.138   4.906
76763SOL    HW232187   5.246  10.066   4.878
76764SOL     OW32188   1.486  12.008   5.932
76764SOL    HW132189   1.461  11.935   5.988
76764SOL    HW232190   1.405  12.034   5.889
76765SOL     OW32191   1.860   2.798   4.143
76765SOL    HW132192   1.844   2.802   4.237
76765SOL    HW232193   1.821   2.715   4.115
76766SOL     OW32194  14.705   6.909   4.061
76766SOL    HW132195  14.688   6.827   4.015
76766SOL    HW232196  14.689   6.888   4.153
76767SOL     OW32197   1.616  10.987   4.883
76767SOL    HW132198   1.568  10.905   4.869
76767SOL    HW232199   1.548  11.051   4.902
76768SOL     OW32200   4.973   0.799  10.552
76768SOL    HW132201   4.945   0.778  10.463
76768SOL    HW232202   5.068   0.813  10.545
76769SOL     OW32203   4.701   4.523  11.286
76769SOL    HW132204   4.794   4.536  11.266
76769SOL    HW232205   4.695   4.432  11.316
76770SOL     OW32206   4.402  11.895  11.805
76770SOL    HW132207   4.432  11.958  11.739
76770SOL    HW232208   4.482  11.865  11.848
76771SOL     OW32209   9.223   3.741   9.787
76771SOL    HW132210   9.234   3.753   9.692
76771SOL    HW232211   9.311   3.754   9.823
76772SOL     OW32212  11.142  12.235   0.629
76772SOL    HW132213  11.234  12.210   0.636
76772SOL    HW232214  11.145  12.322   0.588
76773SOL     OW32215  13.234   3.738  10.347
76773SOL    HW132216  13.161   3.759  10.406
76773SOL    HW232217  13.266   3.653  10.377
76774SOL     OW32218  14.611   4.890   9.876
76774SOL    HW132219  14.571   4.866   9.792
76774SOL    HW232220  14.537   4.902   9.935
76775SOL     OW32221   2.357  10.694   5.234
76775SOL    HW132222   2.336  10.769   5.179
76775SOL    HW232223   2.273  10.654   5.254
76776SOL     OW32224   9.998   0.374   9.308
76776SOL    HW132225   9.919   0.362   9.255
76776SOL    HW232226  10.045   0.446   9.265
76777SOL     OW32227   0.428  14.722   7.999
76777SOL    HW132228   0.513  14.766   8.008
76777SOL    HW232229   0.366  14.792   7.981
76778SOL     OW32230  12.434   4.013   0.140
76778SOL    HW132231  12.523   4.036   0.115
76778SOL    HW232232  12.379   4.052   0.073
76779SOL     OW32233  10.976  12.917  10.603
76779SOL    HW132234  10.980  12.950  10.693
76779SOL    HW232235  11.063  12.882  10.587
76780SOL     OW32236   2.427   2.783  14.028
76780SOL    HW132237   2.396   2.709  13.976
76780SOL    HW232238   2.513   2.804  13.991
76781SOL     OW32239   6.797  10.832   1.841
76781SOL    HW132240   6.879  10.797   1.804
76781SOL    HW232241   6.805  10.927   1.831
76782SOL     OW32242  13.680  14.176   5.719
76782SOL    HW132243  13.737  14.175   5.796
76782SOL    HW232244  13.677  14.084   5.691
76783SOL     OW32245   2.052  13.568  13.304
76783SOL    HW132246   2.122  13.633  13.298
76783SOL    HW232247   1.972  13.617  13.288
76784SOL     OW32248   8.389  11.679  14.228
76784SOL    HW132249   8.437  11.708  14.306
76784SOL    HW232250   8.374  11.586  14.242
76785SOL     OW32251  13.488   0.112   6.975
76785SOL    HW132252  13.447   0.199   6.979
76785SOL    HW232253  13.414   0.052   6.981
76786SOL     OW32254   1.944   7.805   9.039
76786SOL    HW132255   2.004   7.833   9.109
76786SOL    HW232256   1.886   7.741   9.081
76787SOL     OW32257   8.519  14.763   3.365
76787SOL    HW132258   8.563  14.793   3.445
76787SOL    HW232259   8.446  14.824   3.354
76788SOL     OW32260   7.789  12.079  11.494
76788SOL    HW132261   7.803  12.094  11.401
76788SOL    HW232262   7.694  12.083  11.505
76789SOL     OW32263   5.043  10.312   4.883
76789SOL    HW132264   4.956  10.287   4.851
76789SOL    HW232265   5.073  10.378   4.820
76790SOL     OW32266  13.146  11.952   9.384
76790SOL    HW132267  13.167  11.878   9.327
76790SOL    HW232268  13.202  11.940   9.461
76791SOL     OW32269   1.030   3.522   5.394
76791SOL    HW132270   1.069   3.607   5.417
76791SOL    HW232271   0.936   3.534   5.408
76792SOL     OW32272   5.553  11.897   1.753
76792SOL    HW132273   5.571  11.957   1.826
76792SOL    HW232274   5.486  11.837   1.787
76793SOL     OW32275  12.859   9.502  10.516
76793SOL    HW132276  12.873   9.499  10.421
76793SOL    HW232277  12.914   9.432  10.550
76794SOL     OW32278   9.576   5.331   8.342
76794SOL    HW132279   9.601   5.387   8.269
76794SOL    HW232280   9.580   5.389   8.419
76795SOL     OW32281  10.960   3.785  13.490
76795SOL    HW132282  10.916   3.825  13.415
76795SOL    HW232283  11.029   3.847  13.514
76796SOL     OW32284  14.570  10.475  10.702
76796SOL    HW132285  14.501  10.440  10.759
76796SOL    HW232286  14.627  10.523  10.762
76797SOL     OW32287   7.352  12.405   2.958
76797SOL    HW132288   7.369  12.446   2.873
76797SOL    HW232289   7.262  12.430   2.978
76798SOL     OW32290   5.171   2.649  10.806
76798SOL    HW132291   5.265   2.669  10.812
76798SOL    HW232292   5.168   2.553  10.809
76799SOL     OW32293   1.735   4.575   0.524
76799SOL    HW132294   1.689   4.635   0.464
76799SOL    HW232295   1.705   4.601   0.611
76800SOL     OW32296   2.282   6.387   0.412
76800SOL    HW132297   2.348   6.401   0.481
76800SOL    HW232298   2.241   6.472   0.401
76801SOL     OW32299   2.734  13.457   4.566
76801SOL    HW132300   2.763  13.373   4.532
76801SOL    HW232301   2.803  13.484   4.627
76802SOL     OW32302   6.558   9.998  11.466
76802SOL    HW132303   6.609   9.934  11.416
76802SOL    HW232304   6.541   9.955  11.550
76803SOL     OW32305  14.088   0.807   5.672
76803SOL    HW132306  14.075   0.867   5.598
76803SOL    HW232307  14.140   0.857   5.734
76804SOL     OW32308  11.088   7.203  13.031
76804SOL    HW132309  11.010   7.259  13.033
76804SOL    HW232310  11.121   7.207  13.121
76805SOL     OW32311   4.062  11.775   2.310
76805SOL    HW132312   4.021  11.702   2.264
76805SOL    HW232313   4.045  11.851   2.255
76806SOL     OW32314   9.787  12.143   8.437
76806SOL    HW132315   9.795  12.218   8.378
76806SOL    HW232316   9.697  12.147   8.470
76807SOL     OW32317   8.138   2.155   5.331
76807SOL    HW132318   8.139   2.092   5.259
76807SOL    HW232319   8.205   2.123   5.392
76808SOL     OW32320   1.220   1.552  10.540
76808SOL    HW132321   1.156   1.620  10.562
76808SOL    HW232322   1.301   1.581  10.582
76809SOL     OW32323  13.380   2.413   0.042
76809SOL    HW132324  13.320   2.369  14.854
76809SOL    HW232325  13.364   2.506   0.028
76810SOL     OW32326   0.084   6.279   3.155
76810SOL    HW132327  14.869   6.252   3.184
76810SOL    HW232328   0.091   6.371   3.183
76811SOL     OW32329   7.325  12.325  10.554
76811SOL    HW132330   7.333  12.326  10.649
76811SOL    HW232331   7.404  12.370  10.523
76812SOL     OW32332   0.415   6.848   6.387
76812SOL    HW132333   0.327   6.882   6.405
76812SOL    HW232334   0.438   6.887   6.303
76813SOL     OW32335  11.221   1.866   1.634
76813SOL    HW132336  11.294   1.924   1.651
76813SOL    HW232337  11.248   1.781   1.670
76814SOL     OW32338   4.012   2.072   2.202
76814SOL    HW132339   4.008   2.039   2.291
76814SOL    HW232340   3.941   2.027   2.156
76815SOL     OW32341  14.428   2.551   3.428
76815SOL    HW132342  14.451   2.467   3.468
76815SOL    HW232343  14.334   2.560   3.441
76816SOL     OW32344   8.888   6.646   0.967
76816SOL    HW132345   8.814   6.699   0.938
76816SOL    HW232346   8.942   6.705   1.019
76817SOL     OW32347  10.495   8.126   1.213
76817SOL    HW132348  10.481   8.160   1.301
76817SOL    HW232349  10.452   8.041   1.212
76818SOL     OW32350  13.673   5.966  12.575
76818SOL    HW132351  13.588   5.931  12.601
76818SOL    HW232352  13.737   5.914  12.625
76819SOL     OW32353   3.775   9.852   9.582
76819SOL    HW132354   3.706   9.852   9.648
76819SOL    HW232355   3.791   9.760   9.564
76820SOL     OW32356   1.934   6.215  10.377
76820SOL    HW132357   1.885   6.147  10.423
76820SOL    HW232358   2.002   6.168  10.328
76821SOL     OW32359   2.002   1.491   4.495
76821SOL    HW132360   1.930   1.491   4.431
76821SOL    HW232361   2.042   1.577   4.485
76822SOL     OW32362   8.313   1.634  14.257
76822SOL    HW132363   8.236   1.622  14.312
76822SOL    HW232364   8.383   1.656  14.319
76823SOL     OW32365  12.593   7.882   5.844
76823SOL    HW132366  12.585   7.828   5.923
76823SOL    HW232367  12.686   7.902   5.838
76824SOL     OW32368   3.944   8.168   6.023
76824SOL    HW132369   3.900   8.234   5.969
76824SOL    HW232370   3.910   8.085   5.991
76825SOL     OW32371   9.236   3.260   9.972
76825SOL    HW132372   9.206   3.206   9.899
76825SOL    HW232373   9.328   3.279   9.953
76826SOL     OW32374   8.140  12.267  14.650
76826SOL    HW132375   8.169  12.254  14.560
76826SOL    HW232376   8.178  12.350  14.676
76827SOL     OW32377   5.136   5.740  10.503
76827SOL    HW132378   5.112   5.807  10.438
76827SOL    HW232379   5.217   5.774  10.542
76828SOL     OW32380  13.903   2.360   3.327
76828SOL    HW132381  13.916   2.313   3.245
76828SOL    HW232382  13.816   2.332   3.358
76829SOL     OW32383  10.296   6.314   9.265
76829SOL    HW132384  10.384   6.351   9.261
76829SOL    HW232385  10.306   6.225   9.232
76830SOL     OW32386  11.834   0.638   7.728
76830SOL    HW132387  11.869   0.633   7.816
76830SOL    HW232388  11.864   0.558   7.685
76831SOL     OW32389   7.688   4.814   3.907
76831SOL    HW132390   7.783   4.821   3.900
76831SOL    HW232391   7.671   4.720   3.911
76832SOL     OW32392   2.746   8.513   8.031
76832SOL    HW132393   2.801   8.447   7.991
76832SOL    HW232394   2.663   8.509   7.983
76833SOL     OW32395   9.675   8.243   2.327
76833SOL    HW132396   9.702   8.164   2.282
76833SOL    HW232397   9.644   8.214   2.412
76834SOL     OW32398   8.142   4.783   1.908
76834SOL    HW132399   8.215   4.843   1.926
76834SOL    HW232400   8.175   4.697   1.933
76835SOL     OW32401  10.012   9.851  13.606
76835SOL    HW132402  10.064   9.813  13.677
76835SOL    HW232403  10.033   9.798  13.530
76836SOL     OW32404   7.604   0.016   4.888
76836SOL    HW132405   7.622   0.001   4.795
76836SOL    HW232406   7.560  14.809   4.918
76837SOL     OW32407   5.349  10.639   2.427
76837SOL    HW132408   5.369  10.552   2.393
76837SOL    HW232409   5.298  10.682   2.358
76838SOL     OW32410   0.430  13.679   0.585
76838SOL    HW132411   0.449  13.621   0.512
76838SOL    HW232412   0.445  13.625   0.663
76839SOL     OW32413   5.167  10.192   2.340
76839SOL    HW132414   5.116  10.258   2.385
76839SOL    HW232415   5.118  10.173   2.260
76840SOL     OW32416  12.173   0.857   1.627
76840SOL    HW132417  12.096   0.877   1.681
76840SOL    HW232418  12.164   0.914   1.551
76841SOL     OW32419   6.490  14.682   8.056
76841SOL    HW132420   6.444  14.739   7.994
76841SOL    HW232421   6.443  14.599   8.053
76842SOL     OW32422   7.087   4.017  12.642
76842SOL    HW132423   7.154   3.961  12.603
76842SOL    HW232424   7.072   3.979  12.728
76843SOL     OW32425  12.211   4.527  13.590
76843SOL    HW132426  12.137   4.585  13.609
76843SOL    HW232427  12.194   4.448  13.640
76844SOL     OW32428   1.366   3.970   6.996
76844SOL    HW132429   1.397   3.904   7.058
76844SOL    HW232430   1.282   3.999   7.033
76845SOL     OW32431   6.466   4.507  11.892
76845SOL    HW132432   6.502   4.421  11.872
76845SOL    HW232433   6.454   4.508  11.987
76846SOL     OW32434  13.083   9.840  14.067
76846SOL    HW132435  13.155   9.779  14.083
76846SOL    HW232436  13.111   9.922  14.109
76847SOL     OW32437  11.879  11.327  12.647
76847SOL    HW132438  11.845  11.271  12.717
76847SOL    HW232439  11.965  11.291  12.626
76848SOL     OW32440   5.905  14.623  14.735
76848SOL    HW132441   5.950  14.577  14.664
76848SOL    HW232442   5.824  14.573  14.748
76849SOL     OW32443   2.446  13.509  14.005
76849SOL    HW132444   2.361  13.532  14.043
76849SOL    HW232445   2.497  13.590  14.010
76850SOL     OW32446   3.379  13.127   9.187
76850SOL    HW132447   3.311  13.147   9.252
76850SOL    HW232448   3.382  13.032   9.184
76851SOL     OW32449   7.413   3.890  13.948
76851SOL    HW132450   7.319   3.901  13.932
76851SOL    HW232451   7.450   3.874  13.862
76852SOL     OW32452   1.974   8.812   6.354
76852SOL    HW132453   2.046   8.750   6.366
76852SOL    HW232454   1.908   8.785   6.418
76853SOL     OW32455   0.805   2.533  10.639
76853SOL    HW132456   0.861   2.586  10.695
76853SOL    HW232457   0.790   2.453  10.690
76854SOL     OW32458  10.516   6.884  11.426
76854SOL    HW132459  10.515   6.810  11.487
76854SOL    HW232460  10.448   6.864  11.362
76855SOL     OW32461   9.561  12.608   0.865
76855SOL    HW132462   9.477  12.563   0.867
76855SOL    HW232463   9.621  12.546   0.823
76856SOL     OW32464  11.061  13.022  14.090
76856SOL    HW132465  11.106  13.090  14.040
76856SOL    HW232466  11.068  13.051  14.181
76857SOL     OW32467   8.192   3.575  11.592
76857SOL    HW132468   8.254   3.600  11.524
76857SOL    HW232469   8.170   3.657  11.636
76858SOL     OW32470   7.823  10.995   4.320
76858SOL    HW132471   7.914  10.991   4.351
76858SOL    HW232472   7.788  10.908   4.340
76859SOL     OW32473   9.833  13.455  10.821
76859SOL    HW132474   9.911  13.479  10.871
76859SOL    HW232475   9.807  13.369  10.856
76860SOL     OW32476   2.045   8.036   1.659
76860SOL    HW132477   2.060   8.130   1.648
76860SOL    HW232478   2.098   8.012   1.735
76861SOL     OW32479  10.198   4.883   7.599
76861SOL    HW132480  10.117   4.886   7.650
76861SOL    HW232481  10.256   4.824   7.648
76862SOL     OW32482   7.481   4.276   1.158
76862SOL    HW132483   7.409   4.230   1.201
76862SOL    HW232484   7.555   4.215   1.162
76863SOL     OW32485   6.989   7.006   0.996
76863SOL    HW132486   6.938   7.021   1.076
76863SOL    HW232487   7.015   7.093   0.968
76864SOL     OW32488   1.298  14.817   2.061
76864SOL    HW132489   1.234  14.795   2.129
76864SOL    HW232490   1.245  14.845   1.986
76865SOL     OW32491   8.512   6.545   0.542
76865SOL    HW132492   8.512   6.640   0.536
76865SOL    HW232493   8.604   6.522   0.557
76866SOL     OW32494  11.511  11.688   7.805
76866SOL    HW132495  11.417  11.670   7.810
76866SOL    HW232496  11.518  11.774   7.763
76867SOL     OW32497   3.339   2.794   8.289
76867SOL    HW132498   3.396   2.768   8.216
76867SOL    HW232499   3.260   2.827   8.247
76868SOL     OW32500  10.351   0.969  14.074
76868SOL    HW132501  10.283   0.973  14.007
76868SOL    HW232502  10.306   0.995  14.155
76869SOL     OW32503   7.452   3.244   9.268
76869SOL    HW132504   7.360   3.219   9.262
76869SOL    HW232505   7.500   3.161   9.265
76870SOL     OW32506   5.859   8.004   5.779
76870SOL    HW132507   5.922   7.966   5.718
76870SOL    HW232508   5.831   8.085   5.737
76871SOL     OW32509   9.667   5.414  13.288
76871SOL    HW132510   9.716   5.422  13.370
76871SOL    HW232511   9.670   5.502  13.250
76872SOL     OW32512   3.062   3.099   5.619
76872SOL    HW132513   3.064   3.005   5.637
76872SOL    HW232514   3.150   3.130   5.641
76873SOL     OW32515   1.643   5.037   6.922
76873SOL    HW132516   1.642   5.115   6.867
76873SOL    HW232517   1.576   4.980   6.884
76874SOL     OW32518   8.872  10.154  11.132
76874SOL    HW132519   8.777  10.141  11.131
76874SOL    HW232520   8.895  10.151  11.225
76875SOL     OW32521   0.951  10.896  13.485
76875SOL    HW132522   0.905  10.870  13.565
76875SOL    HW232523   0.961  10.991  13.493
76876SOL     OW32524   8.638   1.585   4.000
76876SOL    HW132525   8.680   1.661   3.961
76876SOL    HW232526   8.604   1.616   4.083
76877SOL     OW32527   9.374   9.257   9.637
76877SOL    HW132528   9.312   9.313   9.684
76877SOL    HW232529   9.355   9.272   9.544
76878SOL     OW32530   0.446   8.978   0.499
76878SOL    HW132531   0.408   8.950   0.416
76878SOL    HW232532   0.393   8.934   0.566
76879SOL     OW32533  13.091   9.381   6.541
76879SOL    HW132534  13.030   9.435   6.591
76879SOL    HW232535  13.092   9.297   6.586
76880SOL     OW32536  14.200   2.794   8.161
76880SOL    HW132537  14.110   2.776   8.187
76880SOL    HW232538  14.237   2.708   8.140
76881SOL     OW32539   4.840  10.939  13.900
76881SOL    HW132540   4.863  10.893  13.980
76881SOL    HW232541   4.755  10.979  13.918
76882SOL     OW32542   1.289   8.404   3.025
76882SOL    HW132543   1.297   8.375   3.116
76882SOL    HW232544   1.241   8.487   3.030
76883SOL     OW32545   4.407   0.821  13.916
76883SOL    HW132546   4.335   0.859  13.965
76883SOL    HW232547   4.373   0.809  13.827
76884SOL     OW32548   2.617  14.691   4.735
76884SOL    HW132549   2.637  14.605   4.700
76884SOL    HW232550   2.579  14.674   4.821
76885SOL     OW32551  13.140  12.433  11.736
76885SOL    HW132552  13.182  12.401  11.816
76885SOL    HW232553  13.160  12.367  11.670
76886SOL     OW32554   1.529   6.166   8.452
76886SOL    HW132555   1.553   6.198   8.540
76886SOL    HW232556   1.534   6.071   8.459
76887SOL     OW32557   1.102   1.570  10.842
76887SOL    HW132558   1.040   1.564  10.915
76887SOL    HW232559   1.089   1.489  10.792
76888SOL     OW32560   2.954  10.288   6.229
76888SOL    HW132561   2.861  10.309   6.239
76888SOL    HW232562   2.985  10.273   6.319
76889SOL     OW32563   0.976   1.072   9.866
76889SOL    HW132564   0.904   1.086   9.928
76889SOL    HW232565   1.055   1.078   9.919
76890SOL     OW32566   3.285   3.834   0.852
76890SOL    HW132567   3.229   3.874   0.918
76890SOL    HW232568   3.281   3.740   0.871
76891SOL     OW32569  11.777  14.519   1.771
76891SOL    HW132570  11.765  14.490   1.861
76891SOL    HW232571  11.829  14.599   1.778
76892SOL     OW32572  13.123   7.994   1.585
76892SOL    HW132573  13.053   8.029   1.640
76892SOL    HW232574  13.178   7.945   1.645
76893SOL     OW32575   1.126  13.163   7.054
76893SOL    HW132576   1.169  13.166   7.139
76893SOL    HW232577   1.047  13.109   7.069
76894SOL     OW32578   7.762   1.422   1.059
76894SOL    HW132579   7.747   1.497   1.116
76894SOL    HW232580   7.676   1.383   1.047
76895SOL     OW32581   6.542  13.304  10.648
76895SOL    HW132582   6.623  13.305  10.597
76895SOL    HW232583   6.546  13.383  10.701
76896SOL     OW32584   8.325  13.994  14.254
76896SOL    HW132585   8.384  13.970  14.325
76896SOL    HW232586   8.314  14.088  14.263
76897SOL     OW32587  13.911   1.167   8.893
76897SOL    HW132588  13.932   1.240   8.835
76897SOL    HW232589  13.825   1.187   8.928
76898SOL     OW32590   5.700   8.998   7.266
76898SOL    HW132591   5.672   9.024   7.354
76898SOL    HW232592   5.697   8.902   7.268
76899SOL     OW32593  14.188  13.118  14.269
76899SOL    HW132594  14.097  13.100  14.248
76899SOL    HW232595  14.186  13.197  14.322
76900SOL     OW32596  11.511   6.181  14.651
76900SOL    HW132597  11.592   6.179  14.599
76900SOL    HW232598  11.507   6.270  14.685
76901SOL     OW32599  11.843  11.610  11.300
76901SOL    HW132600  11.934  11.630  11.279
76901SOL    HW232601  11.846  11.560  11.381
76902SOL     OW32602   6.526   7.001   9.618
76902SOL    HW132603   6.491   7.043   9.697
76902SOL    HW232604   6.574   6.925   9.651
76903SOL     OW32605  14.285  14.835  10.552
76903SOL    HW132606  14.309  14.744  10.538
76903SOL    HW232607  14.342  14.866  10.622
76904SOL     OW32608   8.562  13.806   2.380
76904SOL    HW132609   8.641  13.760   2.408
76904SOL    HW232610   8.588  13.853   2.301
76905SOL     OW32611   4.302   7.469   9.614
76905SOL    HW132612   4.353   7.397   9.652
76905SOL    HW232613   4.349   7.493   9.534
76906SOL     OW32614   2.892  11.492   5.703
76906SOL    HW132615   2.904  11.477   5.610
76906SOL    HW232616   2.855  11.410   5.737
76907SOL     OW32617   7.732   2.705   4.119
76907SOL    HW132618   7.709   2.612   4.116
76907SOL    HW232619   7.688   2.743   4.043
76908SOL     OW32620   7.129   8.527   9.179
76908SOL    HW132621   7.063   8.522   9.110
76908SOL    HW232622   7.213   8.530   9.132
76909SOL     OW32623   5.927  13.278   1.641
76909SOL    HW132624   6.019  13.301   1.628
76909SOL    HW232625   5.910  13.210   1.576
76910SOL     OW32626  13.787  11.438   0.787
76910SOL    HW132627  13.860  11.386   0.751
76910SOL    HW232628  13.771  11.400   0.873
76911SOL     OW32629   1.807   3.607   6.908
76911SOL    HW132630   1.739   3.599   6.842
76911SOL    HW232631   1.806   3.699   6.933
76912SOL     OW32632  10.181   5.705  13.692
76912SOL    HW132633  10.244   5.640  13.723
76912SOL    HW232634  10.099   5.683  13.736
76913SOL     OW32635   6.352  12.291  12.880
76913SOL    HW132636   6.326  12.284  12.788
76913SOL    HW232637   6.340  12.384  12.901
76914SOL     OW32638   3.671   0.911  13.137
76914SOL    HW132639   3.600   0.865  13.092
76914SOL    HW232640   3.744   0.906  13.075
76915SOL     OW32641   1.147  11.456  14.488
76915SOL    HW132642   1.056  11.428  14.478
76915SOL    HW232643   1.199  11.378  14.466
76916SOL     OW32644   4.017  14.152   2.573
76916SOL    HW132645   3.982  14.101   2.647
76916SOL    HW232646   4.069  14.089   2.523
76917SOL     OW32647  11.034   0.691   7.226
76917SOL    HW132648  11.032   0.763   7.289
76917SOL    HW232649  11.123   0.658   7.230
76918SOL     OW32650   0.189  12.654   6.890
76918SOL    HW132651   0.241  12.679   6.966
76918SOL    HW232652   0.200  12.727   6.828
76919SOL     OW32653   9.867   2.232  13.316
76919SOL    HW132654   9.899   2.145  13.341
76919SOL    HW232655   9.772   2.222  13.311
76920SOL     OW32656   1.414   8.157   7.600
76920SOL    HW132657   1.407   8.220   7.671
76920SOL    HW232658   1.391   8.073   7.640
76921SOL     OW32659  10.342  12.308   4.954
76921SOL    HW132660  10.253  12.323   4.921
76921SOL    HW232661  10.349  12.213   4.960
76922SOL     OW32662  13.955  14.700  11.294
76922SOL    HW132663  13.961  14.764  11.223
76922SOL    HW232664  13.869  14.715  11.333
76923SOL     OW32665   5.776  14.647   5.413
76923SOL    HW132666   5.786  14.701   5.335
76923SOL    HW232667   5.681  14.637   5.423
76924SOL     OW32668   5.797   3.434   9.439
76924SOL    HW132669   5.862   3.505   9.442
76924SOL    HW232670   5.803   3.400   9.350
76925SOL     OW32671   1.563   0.525  10.569
76925SOL    HW132672   1.624   0.526  10.643
76925SOL    HW232673   1.476   0.526  10.609
76926SOL     OW32674   9.604   4.622   5.496
76926SOL    HW132675   9.692   4.653   5.518
76926SOL    HW232676   9.587   4.551   5.557
76927SOL     OW32677  14.284  11.618  11.722
76927SOL    HW132678  14.229  11.572  11.658
76927SOL    HW232679  14.359  11.560  11.736
76928SOL     OW32680   1.464   8.834   1.836
76928SOL    HW132681   1.526   8.906   1.824
76928SOL    HW232682   1.513   8.756   1.811
76929SOL     OW32683   9.227  12.854  11.157
76929SOL    HW132684   9.316  12.817  11.154
76929SOL    HW232685   9.174  12.795  11.104
76930SOL     OW32686   3.756   2.206   2.509
76930SOL    HW132687   3.668   2.221   2.544
76930SOL    HW232688   3.789   2.294   2.490
76931SOL     OW32689   0.967   3.058  14.142
76931SOL    HW132690   0.932   3.022  14.060
76931SOL    HW232691   0.987   3.149  14.121
76932SOL     OW32692  10.483   7.383  12.126
76932SOL    HW132693  10.525   7.299  12.107
76932SOL    HW232694  10.555   7.442  12.148
76933SOL     OW32695   3.124   1.172   3.923
76933SOL    HW132696   3.071   1.154   3.845
76933SOL    HW232697   3.067   1.150   3.997
76934SOL     OW32698   5.433   8.738   4.181
76934SOL    HW132699   5.468   8.715   4.267
76934SOL    HW232700   5.400   8.827   4.191
76935SOL     OW32701   2.889  13.037   8.970
76935SOL    HW132702   2.984  13.052   8.971
76935SOL    HW232703   2.861  13.063   8.882
76936SOL     OW32704   8.384   4.807  10.556
76936SOL    HW132705   8.300   4.769  10.532
76936SOL    HW232706   8.429   4.823  10.473
76937SOL     OW32707   7.592   2.981   9.263
76937SOL    HW132708   7.569   2.980   9.170
76937SOL    HW232709   7.661   2.915   9.272
76938SOL     OW32710   0.573  10.272   8.741
76938SOL    HW132711   0.519  10.331   8.688
76938SOL    HW232712   0.562  10.186   8.701
76939SOL     OW32713  14.624   7.964   5.934
76939SOL    HW132714  14.582   7.952   6.020
76939SOL    HW232715  14.554   7.998   5.878
76940SOL     OW32716  11.886  14.344   8.269
76940SOL    HW132717  11.942  14.418   8.247
76940SOL    HW232718  11.919  14.314   8.354
76941SOL     OW32719  11.561  10.176  14.084
76941SOL    HW132720  11.601  10.139  14.163
76941SOL    HW232721  11.488  10.229  14.117
76942SOL     OW32722   7.867   1.339   1.695
76942SOL    HW132723   7.927   1.264   1.697
76942SOL    HW232724   7.786   1.304   1.659
76943SOL     OW32725  14.117   1.871   4.952
76943SOL    HW132726  14.054   1.808   4.917
76943SOL    HW232727  14.196   1.820   4.968
76944SOL     OW32728   2.517   7.164   6.782
76944SOL    HW132729   2.467   7.192   6.705
76944SOL    HW232730   2.545   7.246   6.823
76945SOL     OW32731  10.157   5.628   7.118
76945SOL    HW132732  10.147   5.538   7.147
76945SOL    HW232733  10.217   5.667   7.181
76946SOL     OW32734   5.792   3.541   8.278
76946SOL    HW132735   5.765   3.462   8.230
76946SOL    HW232736   5.864   3.511   8.333
76947SOL     OW32737   4.507   3.607   4.722
76947SOL    HW132738   4.481   3.610   4.630
76947SOL    HW232739   4.593   3.649   4.724
76948SOL     OW32740  10.867  13.008   3.821
76948SOL    HW132741  10.866  12.982   3.912
76948SOL    HW232742  10.839  13.100   3.822
76949SOL     OW32743   7.721   3.695  11.487
76949SOL    HW132744   7.662   3.625  11.461
76949SOL    HW232745   7.783   3.654  11.547
76950SOL     OW32746   7.521   9.352   2.010
76950SOL    HW132747   7.449   9.380   2.067
76950SOL    HW232748   7.571   9.431   1.994
76951SOL     OW32749   8.304   2.447  12.652
76951SOL    HW132750   8.262   2.365  12.625
76951SOL    HW232751   8.306   2.442  12.747
76952SOL     OW32752  13.429  14.826   3.978
76952SOL    HW132753  13.480   0.027   3.943
76952SOL    HW232754  13.343  14.863   3.998
76953SOL     OW32755   6.586   4.103  14.439
76953SOL    HW132756   6.673   4.105  14.400
76953SOL    HW232757   6.601   4.124  14.532
76954SOL     OW32758  14.585   9.395   5.204
76954SOL    HW132759  14.640   9.450   5.261
76954SOL    HW232760  14.576   9.446   5.123
76955SOL     OW32761   8.234   1.421   8.881
76955SOL    HW132762   8.152   1.376   8.904
76955SOL    HW232763   8.299   1.351   8.878
76956SOL     OW32764  11.518  12.967   5.610
76956SOL    HW132765  11.553  13.032   5.549
76956SOL    HW232766  11.463  13.017   5.670
76957SOL     OW32767   7.157   1.021  14.869
76957SOL    HW132768   7.088   0.976  14.820
76957SOL    HW232769   7.110   1.073   0.062
76958SOL     OW32770  11.562   5.220   1.906
76958SOL    HW132771  11.478   5.226   1.952
76958SOL    HW232772  11.601   5.307   1.914
76959SOL     OW32773  11.616   9.862   8.550
76959SOL    HW132774  11.581   9.874   8.638
76959SOL    HW232775  11.711   9.856   8.563
76960SOL     OW32776   2.786   8.894   2.298
76960SOL    HW132777   2.722   8.886   2.227
76960SOL    HW232778   2.755   8.834   2.366
76961SOL     OW32779   6.898   0.720  12.494
76961SOL    HW132780   6.887   0.700  12.401
76961SOL    HW232781   6.965   0.659  12.524
76962SOL     OW32782  14.632  10.367   0.358
76962SOL    HW132783  14.690  10.413   0.417
76962SOL    HW232784  14.569  10.323   0.415
76963SOL     OW32785  12.323  10.035   9.482
76963SOL    HW132786  12.382  10.111   9.479
76963SOL    HW232787  12.378   9.961   9.454
76964SOL     OW32788   9.828   1.238   7.792
76964SOL    HW132789   9.913   1.228   7.750
76964SOL    HW232790   9.832   1.181   7.868
76965SOL     OW32791  12.920   1.652  10.432
76965SOL    HW132792  12.917   1.567  10.476
76965SOL    HW232793  12.907   1.631  10.339
76966SOL     OW32794   1.361  11.439   4.736
76966SOL    HW132795   1.276  11.472   4.707
76966SOL    HW232796   1.392  11.504   4.799
76967SOL     OW32797  10.451   9.675  13.617
76967SOL    HW132798  10.418   9.658  13.529
76967SOL    HW232799  10.503   9.598  13.639
76968SOL     OW32800   5.448   7.089  10.691
76968SOL    HW132801   5.357   7.062  10.690
76968SOL    HW232802   5.494   7.017  10.733
76969SOL     OW32803  13.105   5.582   9.952
76969SOL    HW132804  13.066   5.630  10.026
76969SOL    HW232805  13.142   5.651   9.897
76970SOL     OW32806   9.753   0.613  12.767
76970SOL    HW132807   9.733   0.520  12.753
76970SOL    HW232808   9.739   0.653  12.682
76971SOL     OW32809  12.092  13.791   5.396
76971SOL    HW132810  12.064  13.875   5.435
76971SOL    HW232811  12.068  13.725   5.461
76972SOL     OW32812  14.793  10.339   5.586
76972SOL    HW132813  14.811  10.260   5.534
76972SOL    HW232814  14.842  10.326   5.667
76973SOL     OW32815  10.742  11.006  14.659
76973SOL    HW132816  10.674  11.031  14.596
76973SOL    HW232817  10.824  11.030  14.616
76974SOL     OW32818  12.351   2.489  14.444
76974SOL    HW132819  12.365   2.519  14.533
76974SOL    HW232820  12.381   2.398  14.444
76975SOL     OW32821  12.844   0.183   3.212
76975SOL    HW132822  12.825   0.216   3.124
76975SOL    HW232823  12.938   0.161   3.210
76976SOL     OW32824   6.749   9.944   1.939
76976SOL    HW132825   6.716   9.921   1.852
76976SOL    HW232826   6.789  10.030   1.929
76977SOL     OW32827  11.256   4.713   4.891
76977SOL    HW132828  11.296   4.700   4.977
76977SOL    HW232829  11.229   4.625   4.864
76978SOL     OW32830  14.737   4.412   5.005
76978SOL    HW132831  14.780   4.370   4.930
76978SOL    HW232832  14.720   4.502   4.976
76979SOL     OW32833   1.662   7.657   6.711
76979SOL    HW132834   1.644   7.567   6.735
76979SOL    HW232835   1.751   7.673   6.741
76980SOL     OW32836   9.871   4.573   2.784
76980SOL    HW132837   9.863   4.656   2.735
76980SOL    HW232838   9.792   4.525   2.761
76981SOL     OW32839   3.593   0.287   6.340
76981SOL    HW132840   3.581   0.236   6.420
76981SOL    HW232841   3.671   0.340   6.358
76982SOL     OW32842   3.265   1.302   0.370
76982SOL    HW132843   3.227   1.261   0.448
76982SOL    HW232844   3.359   1.285   0.377
76983SOL     OW32845  12.879   4.152   9.714
76983SOL    HW132846  12.818   4.084   9.745
76983SOL    HW232847  12.912   4.192   9.794
76984SOL     OW32848   0.721  10.787   9.685
76984SOL    HW132849   0.739  10.694   9.678
76984SOL    HW232850   0.625  10.794   9.679
76985SOL     OW32851   2.068  13.911   5.762
76985SOL    HW132852   2.084  13.997   5.724
76985SOL    HW232853   2.080  13.850   5.690
76986SOL     OW32854   3.084  11.490   4.862
76986SOL    HW132855   3.130  11.412   4.891
76986SOL    HW232856   3.026  11.459   4.792
76987SOL     OW32857   7.751   0.632  13.829
76987SOL    HW132858   7.755   0.541  13.859
76987SOL    HW232859   7.840   0.665  13.839
76988SOL     OW32860   4.710   6.371   6.539
76988SOL    HW132861   4.707   6.366   6.444
76988SOL    HW232862   4.659   6.295   6.569
76989SOL     OW32863   2.117   5.630   2.190
76989SOL    HW132864   2.201   5.612   2.147
76989SOL    HW232865   2.092   5.545   2.228
76990SOL     OW32866   3.642   2.634   6.368
76990SOL    HW132867   3.580   2.697   6.331
76990SOL    HW232868   3.683   2.681   6.440
76991SOL     OW32869  14.030   0.946   2.819
76991SOL    HW132870  14.036   1.019   2.757
76991SOL    HW232871  13.948   0.962   2.866
76992SOL     OW32872   5.387  13.186   5.780
76992SOL    HW132873   5.436  13.141   5.712
76992SOL    HW232874   5.316  13.125   5.802
76993SOL     OW32875  12.673   9.615   7.693
76993SOL    HW132876  12.597   9.672   7.677
76993SOL    HW232877  12.657   9.538   7.639
76994SOL     OW32878   2.129   4.563   6.664
76994SOL    HW132879   2.167   4.648   6.682
76994SOL    HW232880   2.061   4.552   6.731
76995SOL     OW32881   4.836   5.021   9.089
76995SOL    HW132882   4.800   4.942   9.130
76995SOL    HW232883   4.920   4.993   9.054
76996SOL     OW32884   3.357   4.884   5.710
76996SOL    HW132885   3.428   4.826   5.682
76996SOL    HW232886   3.277   4.834   5.693
76997SOL     OW32887   2.068   4.368   4.947
76997SOL    HW132888   2.133   4.345   4.881
76997SOL    HW232889   2.077   4.300   5.014
76998SOL     OW32890   3.528   7.512   0.839
76998SOL    HW132891   3.545   7.471   0.755
76998SOL    HW232892   3.567   7.453   0.903
76999SOL     OW32893   3.827  14.781   7.682
76999SOL    HW132894   3.833  14.732   7.600
76999SOL    HW232895   3.863  14.867   7.661
77000SOL     OW32896   8.065   4.368   7.073
77000SOL    HW132897   8.042   4.279   7.099
77000SOL    HW232898   8.039   4.422   7.148
77001SOL     OW32899   9.061  10.278   0.128
77001SOL    HW132900   9.143  10.318   0.155
77001SOL    HW232901   9.076  10.184   0.139
77002SOL     OW32902   7.608  10.434   7.913
77002SOL    HW132903   7.671  10.362   7.920
77002SOL    HW232904   7.553  10.411   7.839
77003SOL     OW32905   0.623   3.435   5.104
77003SOL    HW132906   0.640   3.529   5.113
77003SOL    HW232907   0.607   3.422   5.011
77004SOL     OW32908   0.939   9.935   6.190
77004SOL    HW132909   0.898  10.002   6.244
77004SOL    HW232910   0.977   9.984   6.116
77005SOL     OW32911   0.850  13.729   8.568
77005SOL    HW132912   0.910  13.699   8.500
77005SOL    HW232913   0.897  13.718   8.650
77006SOL     OW32914  12.084   5.893   5.903
77006SOL    HW132915  12.145   5.949   5.854
77006SOL    HW232916  12.126   5.807   5.903
77007SOL     OW32917   0.604   2.888   7.079
77007SOL    HW132918   0.535   2.912   7.141
77007SOL    HW232919   0.627   2.971   7.036
77008SOL     OW32920   5.264   3.522  10.378
77008SOL    HW132921   5.247   3.585  10.309
77008SOL    HW232922   5.359   3.506  10.373
77009SOL     OW32923   8.158   9.778  13.124
77009SOL    HW132924   8.171   9.815  13.211
77009SOL    HW232925   8.092   9.710  13.136
77010SOL     OW32926   6.570  11.402  13.612
77010SOL    HW132927   6.622  11.338  13.564
77010SOL    HW232928   6.632  11.441  13.674
77011SOL     OW32929   4.602   0.668  11.942
77011SOL    HW132930   4.576   0.590  11.893
77011SOL    HW232931   4.592   0.644  12.034
77012SOL     OW32932   0.144   8.263  11.339
77012SOL    HW132933   0.200   8.185  11.338
77012SOL    HW232934   0.055   8.228  11.347
77013SOL     OW32935   4.722   5.621  10.121
77013SOL    HW132936   4.783   5.607  10.048
77013SOL    HW232937   4.742   5.709  10.152
77014SOL     OW32938   9.902   5.275  11.767
77014SOL    HW132939   9.871   5.334  11.836
77014SOL    HW232940   9.839   5.287  11.695
77015SOL     OW32941  11.645   5.390  10.691
77015SOL    HW132942  11.677   5.374  10.780
77015SOL    HW232943  11.685   5.320  10.639
77016SOL     OW32944  14.136   0.749   6.324
77016SOL    HW132945  14.221   0.759   6.282
77016SOL    HW232946  14.076   0.732   6.251
77017SOL     OW32947   7.180  14.163  10.449
77017SOL    HW132948   7.101  14.125  10.411
77017SOL    HW232949   7.153  14.196  10.535
77018SOL     OW32950   5.232   2.592   8.306
77018SOL    HW132951   5.320   2.590   8.342
77018SOL    HW232952   5.175   2.578   8.382
77019SOL     OW32953  11.035   5.094  13.947
77019SOL    HW132954  11.057   5.040  14.023
77019SOL    HW232955  10.969   5.043  13.900
77020SOL     OW32956   4.585   3.959   6.335
77020SOL    HW132957   4.623   3.913   6.261
77020SOL    HW232958   4.647   4.030   6.353
77021SOL     OW32959   8.811   4.972   3.228
77021SOL    HW132960   8.784   4.887   3.194
77021SOL    HW232961   8.899   4.958   3.262
77022SOL     OW32962   2.971  13.073   2.311
77022SOL    HW132963   3.021  12.998   2.341
77022SOL    HW232964   2.895  13.034   2.267
77023SOL     OW32965  11.987   4.724   4.352
77023SOL    HW132966  12.007   4.710   4.444
77023SOL    HW232967  12.067   4.697   4.306
77024SOL     OW32968   8.841  11.518   3.619
77024SOL    HW132969   8.799  11.484   3.697
77024SOL    HW232970   8.926  11.550   3.649
77025SOL     OW32971   2.844   1.356   4.402
77025SOL    HW132972   2.773   1.403   4.359
77025SOL    HW232973   2.922   1.409   4.386
77026SOL     OW32974   2.428  11.937   9.213
77026SOL    HW132975   2.442  12.029   9.238
77026SOL    HW232976   2.515  11.898   9.220
77027SOL     OW32977   2.283   7.023   4.594
77027SOL    HW132978   2.319   7.027   4.682
77027SOL    HW232979   2.280   7.114   4.564
77028SOL     OW32980   6.827  14.188  10.820
77028SOL    HW132981   6.834  14.283  10.810
77028SOL    HW232982   6.782  14.159  10.740
77029SOL     OW32983   4.414  10.503   7.050
77029SOL    HW132984   4.507  10.483   7.054
77029SOL    HW232985   4.396  10.551   7.130
77030SOL     OW32986  11.414   6.673  11.530
77030SOL    HW132987  11.377   6.701  11.447
77030SOL    HW232988  11.345   6.619  11.570
77031SOL     OW32989   9.015   6.713   1.891
77031SOL    HW132990   9.027   6.804   1.866
77031SOL    HW232991   8.944   6.715   1.955
77032SOL     OW32992   3.647  10.510   4.669
77032SOL    HW132993   3.722  10.468   4.626
77032SOL    HW232994   3.687  10.574   4.729
77033SOL     OW32995   0.864  11.308   1.735
77033SOL    HW132996   0.913  11.335   1.657
77033SOL    HW232997   0.812  11.233   1.705
77034SOL     OW32998  11.109   3.102   5.310
77034SOL    HW132999  11.115   3.011   5.282
77034SOL    HW233000  11.034   3.137   5.262
77035SOL     OW33001  11.233   6.218   9.895
77035SOL    HW133002  11.196   6.267   9.968
77035SOL    HW233003  11.177   6.140   9.887
77036SOL     OW33004  14.018  14.742  12.655
77036SOL    HW133005  13.974  14.766  12.574
77036SOL    HW233006  13.951  14.699  12.708
77037SOL     OW33007  10.696   9.724   9.441
77037SOL    HW133008  10.753   9.648   9.451
77037SOL    HW233009  10.684   9.757   9.530
77038SOL     OW33010  12.734   6.010   6.994
77038SOL    HW133011  12.765   5.959   6.918
77038SOL    HW233012  12.695   6.088   6.956
77039SOL     OW33013   7.931   9.493   2.262
77039SOL    HW133014   7.972   9.511   2.177
77039SOL    HW233015   7.987   9.538   2.326
77040SOL     OW33016   8.916   6.017  13.820
77040SOL    HW133017   8.911   6.107  13.851
77040SOL    HW233018   8.850   5.970  13.872
77041SOL     OW33019   9.672   1.281   8.394
77041SOL    HW133020   9.726   1.349   8.354
77041SOL    HW233021   9.699   1.280   8.486
77042SOL     OW33022   9.890  14.695  10.471
77042SOL    HW133023   9.917  14.603  10.472
77042SOL    HW233024   9.801  14.694  10.507
77043SOL     OW33025   4.173   6.255   2.299
77043SOL    HW133026   4.161   6.242   2.393
77043SOL    HW233027   4.214   6.174   2.269
77044SOL     OW33028   2.933   7.698  13.079
77044SOL    HW133029   2.962   7.691  13.169
77044SOL    HW233030   2.892   7.785  13.073
77045SOL     OW33031   5.605   5.658   5.575
77045SOL    HW133032   5.610   5.677   5.669
77045SOL    HW233033   5.513   5.639   5.559
77046SOL     OW33034   3.908   5.589   4.092
77046SOL    HW133035   3.950   5.614   4.174
77046SOL    HW233036   3.832   5.646   4.086
77047SOL     OW33037   3.691   5.325   4.017
77047SOL    HW133038   3.689   5.366   4.103
77047SOL    HW233039   3.644   5.385   3.960
77048SOL     OW33040   8.296   1.121  12.178
77048SOL    HW133041   8.240   1.187  12.137
77048SOL    HW233042   8.239   1.045  12.190
77049SOL     OW33043  11.304   4.062   3.526
77049SOL    HW133044  11.259   4.146   3.533
77049SOL    HW233045  11.234   3.998   3.514
77050SOL     OW33046   5.249  12.366   8.687
77050SOL    HW133047   5.322  12.399   8.635
77050SOL    HW233048   5.273  12.276   8.708
77051SOL     OW33049   5.163   4.805  11.309
77051SOL    HW133050   5.123   4.876  11.360
77051SOL    HW233051   5.230   4.769  11.367
77052SOL     OW33052   3.827  13.782  13.458
77052SOL    HW133053   3.763  13.813  13.394
77052SOL    HW233054   3.899  13.845  13.452
77053SOL     OW33055   5.520   9.478   8.094
77053SOL    HW133056   5.477   9.542   8.038
77053SOL    HW233057   5.596   9.448   8.044
77054SOL     OW33058   7.684   8.292  11.521
77054SOL    HW133059   7.702   8.385  11.532
77054SOL    HW233060   7.745   8.249  11.581
77055SOL     OW33061  14.063  11.599   6.457
77055SOL    HW133062  13.981  11.648   6.464
77055SOL    HW233063  14.132  11.666   6.458
77056SOL     OW33064  11.893  11.039  13.187
77056SOL    HW133065  11.806  11.011  13.215
77056SOL    HW233066  11.953  11.004  13.253
77057SOL     OW33067  10.477  14.521   5.440
77057SOL    HW133068  10.405  14.568   5.482
77057SOL    HW233069  10.538  14.502   5.511
77058SOL     OW33070   4.129  12.466   6.052
77058SOL    HW133071   4.078  12.546   6.046
77058SOL    HW233072   4.215  12.495   6.083
77059SOL     OW33073   6.019   2.596  11.949
77059SOL    HW133074   6.010   2.688  11.974
77059SOL    HW233075   5.986   2.548  12.024
77060SOL     OW33076   4.292  14.290   4.192
77060SOL    HW133077   4.239  14.267   4.115
77060SOL    HW233078   4.363  14.227   4.191
77061SOL     OW33079  14.084   2.100   5.969
77061SOL    HW133080  14.173   2.124   5.943
77061SOL    HW233081  14.031   2.175   5.943
77062SOL     OW33082   4.644   9.852  10.213
77062SOL    HW133083   4.568   9.895  10.174
77062SOL    HW233084   4.673   9.790  10.146
77063SOL     OW33085   5.472  12.576  11.311
77063SOL    HW133086   5.470  12.515  11.385
77063SOL    HW233087   5.425  12.531  11.241
77064SOL     OW33088   6.196   5.547  12.501
77064SOL    HW133089   6.123   5.608  12.507
77064SOL    HW233090   6.241   5.570  12.420
77065SOL     OW33091   8.696   0.430   5.688
77065SOL    HW133092   8.618   0.486   5.690
77065SOL    HW233093   8.750   0.469   5.619
77066SOL     OW33094   7.448   1.731  13.893
77066SOL    HW133095   7.447   1.638  13.917
77066SOL    HW233096   7.374   1.769  13.941
77067SOL     OW33097  11.907   1.448  13.654
77067SOL    HW133098  11.818   1.480  13.666
77067SOL    HW233099  11.945   1.450  13.742
77068SOL     OW33100   8.992   4.047   3.983
77068SOL    HW133101   9.077   4.076   4.015
77068SOL    HW233102   8.933   4.056   4.057
77069SOL     OW33103   2.753   7.922   7.608
77069SOL    HW133104   2.681   7.887   7.556
77069SOL    HW233105   2.801   7.844   7.637
77070SOL     OW33106   7.312  13.729   6.539
77070SOL    HW133107   7.252  13.802   6.524
77070SOL    HW233108   7.389  13.750   6.486
77071SOL     OW33109   0.719   4.206   9.634
77071SOL    HW133110   0.721   4.114   9.606
77071SOL    HW233111   0.671   4.205   9.717
77072SOL     OW33112   8.506  14.292   5.824
77072SOL    HW133113   8.499  14.328   5.913
77072SOL    HW233114   8.557  14.357   5.777
77073SOL     OW33115   0.841   9.118  14.242
77073SOL    HW133116   0.887   9.174  14.179
77073SOL    HW233117   0.869   9.029  14.220
77074SOL     OW33118   7.903   3.873  10.258
77074SOL    HW133119   7.812   3.860  10.284
77074SOL    HW233120   7.915   3.813  10.184
77075SOL     OW33121   9.276  13.457  13.410
77075SOL    HW133122   9.298  13.457  13.504
77075SOL    HW233123   9.181  13.465  13.407
77076SOL     OW33124  11.416  13.762   6.699
77076SOL    HW133125  11.426  13.840   6.753
77076SOL    HW233126  11.484  13.702   6.731
77077SOL     OW33127   2.306  14.260   3.127
77077SOL    HW133128   2.222  14.217   3.114
77077SOL    HW233129   2.285  14.339   3.177
77078SOL     OW33130   9.989   6.450  10.679
77078SOL    HW133131  10.048   6.475  10.607
77078SOL    HW233132  10.047   6.437  10.754
77079SOL     OW33133   6.027  12.134   2.295
77079SOL    HW133134   6.116  12.128   2.331
77079SOL    HW233135   5.980  12.190   2.357
77080SOL     OW33136   1.658   5.033   3.013
77080SOL    HW133137   1.583   4.997   2.965
77080SOL    HW233138   1.731   5.025   2.952
77081SOL     OW33139   3.469  12.312   4.418
77081SOL    HW133140   3.478  12.399   4.459
77081SOL    HW233141   3.555  12.271   4.432
77082SOL     OW33142  13.725  11.070   3.210
77082SOL    HW133143  13.701  11.024   3.129
77082SOL    HW233144  13.654  11.050   3.271
77083SOL     OW33145  11.155  13.055   1.194
77083SOL    HW133146  11.235  13.107   1.192
77083SOL    HW233147  11.140  13.030   1.103
77084SOL     OW33148  14.179   4.093   4.522
77084SOL    HW133149  14.116   4.110   4.451
77084SOL    HW233150  14.127   4.100   4.602
77085SOL     OW33151   2.436   6.894  12.693
77085SOL    HW133152   2.402   6.967  12.640
77085SOL    HW233153   2.397   6.816  12.654
77086SOL     OW33154   4.602   7.744   7.247
77086SOL    HW133155   4.688   7.710   7.271
77086SOL    HW233156   4.540   7.678   7.279
77087SOL     OW33157  13.969   2.232  11.175
77087SOL    HW133158  13.886   2.191  11.151
77087SOL    HW233159  14.000   2.182  11.250
77088SOL     OW33160   0.116  11.187   5.013
77088SOL    HW133161   0.202  11.226   5.028
77088SOL    HW233162   0.135  11.096   4.991
77089SOL     OW33163   5.737   5.150   8.397
77089SOL    HW133164   5.770   5.175   8.483
77089SOL    HW233165   5.694   5.228   8.364
77090SOL     OW33166   6.859  14.476   2.303
77090SOL    HW133167   6.949  14.494   2.327
77090SOL    HW233168   6.861  14.390   2.261
77091SOL     OW33169  12.194  13.308  13.224
77091SOL    HW133170  12.138  13.282  13.151
77091SOL    HW233171  12.282  13.282  13.197
77092SOL     OW33172   0.309  11.656   9.528
77092SOL    HW133173   0.255  11.733   9.508
77092SOL    HW233174   0.295  11.640   9.621
77093SOL     OW33175   2.413   2.051  14.015
77093SOL    HW133176   2.509   2.040  14.016
77093SOL    HW233177   2.397   2.127  14.071
77094SOL     OW33178   5.879   0.540   8.320
77094SOL    HW133179   5.973   0.535   8.305
77094SOL    HW233180   5.870   0.541   8.415
77095SOL     OW33181   6.703   3.708   3.919
77095SOL    HW133182   6.778   3.759   3.888
77095SOL    HW233183   6.665   3.761   3.989
77096SOL     OW33184   0.476   1.634  11.368
77096SOL    HW133185   0.534   1.710  11.373
77096SOL    HW233186   0.391   1.667  11.401
77097SOL     OW33187  13.359  12.454   1.332
77097SOL    HW133188  13.278  12.403   1.339
77097SOL    HW233189  13.391  12.437   1.244
77098SOL     OW33190   8.689   7.782   9.225
77098SOL    HW133191   8.664   7.703   9.274
77098SOL    HW233192   8.610   7.808   9.179
77099SOL     OW33193  14.251   5.636  10.133
77099SOL    HW133194  14.266   5.723  10.096
77099SOL    HW233195  14.326   5.621  10.191
77100SOL     OW33196  10.358   0.682  12.875
77100SOL    HW133197  10.276   0.678  12.827
77100SOL    HW233198  10.335   0.721  12.959
77101SOL     OW33199  14.416   5.921  14.238
77101SOL    HW133200  14.451   6.008  14.255
77101SOL    HW233201  14.403   5.883  14.325
77102SOL     OW33202   9.484   3.752   3.835
77102SOL    HW133203   9.449   3.729   3.921
77102SOL    HW233204   9.557   3.692   3.822
77103SOL     OW33205   9.667  14.681   7.733
77103SOL    HW133206   9.708  14.733   7.802
77103SOL    HW233207   9.581  14.721   7.720
77104SOL     OW33208   5.696   3.087  10.238
77104SOL    HW133209   5.755   3.092  10.163
77104SOL    HW233210   5.626   3.149  10.218
77105SOL     OW33211   8.115   9.032  11.325
77105SOL    HW133212   8.089   9.073  11.242
77105SOL    HW233213   8.182   8.969  11.301
77106SOL     OW33214   3.305   5.797  14.245
77106SOL    HW133215   3.393   5.762  14.239
77106SOL    HW233216   3.261   5.739  14.308
77107SOL     OW33217  14.749   5.965   4.530
77107SOL    HW133218  14.709   5.878   4.536
77107SOL    HW233219  14.770   5.988   4.620
77108SOL     OW33220  14.398   1.720   3.072
77108SOL    HW133221  14.356   1.763   3.147
77108SOL    HW233222  14.434   1.639   3.108
77109SOL     OW33223  12.558   0.396   6.394
77109SOL    HW133224  12.570   0.391   6.489
77109SOL    HW233225  12.600   0.479   6.370
77110SOL     OW33226   8.572  14.721   8.439
77110SOL    HW133227   8.497  14.662   8.450
77110SOL    HW233228   8.543  14.784   8.372
77111SOL     OW33229  10.236   5.370  12.524
77111SOL    HW133230  10.239   5.460  12.553
77111SOL    HW233231  10.168   5.329  12.577
77112SOL     OW33232   6.332  13.855   5.182
77112SOL    HW133233   6.330  13.853   5.277
77112SOL    HW233234   6.270  13.924   5.158
77113SOL     OW33235   0.346   9.835   8.670
77113SOL    HW133236   0.403   9.758   8.662
77113SOL    HW233237   0.286   9.812   8.741
77114SOL     OW33238  14.221   2.015  14.861
77114SOL    HW133239  14.128   2.032  14.852
77114SOL    HW233240  14.263   2.096  14.831
77115SOL     OW33241   1.849   5.637   8.221
77115SOL    HW133242   1.761   5.612   8.195
77115SOL    HW233243   1.837   5.720   8.268
77116SOL     OW33244  11.076   5.048   4.187
77116SOL    HW133245  11.049   5.101   4.261
77116SOL    HW233246  11.120   5.109   4.128
77117SOL     OW33247   9.577   9.789  10.040
77117SOL    HW133248   9.495   9.774   9.993
77117SOL    HW233249   9.644   9.788   9.971
77118SOL     OW33250   4.808   9.394  10.854
77118SOL    HW133251   4.846   9.371  10.938
77118SOL    HW233252   4.800   9.311  10.807
77119SOL     OW33253   9.343   5.406  14.354
77119SOL    HW133254   9.359   5.314  14.332
77119SOL    HW233255   9.339   5.407  14.450
77120SOL     OW33256   2.243  10.515  14.665
77120SOL    HW133257   2.299  10.592  14.669
77120SOL    HW233258   2.173  10.540  14.603
77121SOL     OW33259  11.807   6.418   0.598
77121SOL    HW133260  11.841   6.358   0.532
77121SOL    HW233261  11.839   6.382   0.681
77122SOL     OW33262   6.790  13.907   1.907
77122SOL    HW133263   6.798  13.901   1.811
77122SOL    HW233264   6.864  13.856   1.940
77123SOL     OW33265   3.816   0.257   3.786
77123SOL    HW133266   3.744   0.320   3.792
77123SOL    HW233267   3.833   0.250   3.692
77124SOL     OW33268   7.731   0.109   1.118
77124SOL    HW133269   7.735   0.154   1.033
77124SOL    HW233270   7.726   0.016   1.096
77125SOL     OW33271   4.373  12.018  10.483
77125SOL    HW133272   4.345  11.952  10.547
77125SOL    HW233273   4.395  11.966  10.405
77126SOL     OW33274  12.129   9.678   0.589
77126SOL    HW133275  12.214   9.634   0.579
77126SOL    HW233276  12.067   9.606   0.602
77127SOL     OW33277  11.013   6.861   9.447
77127SOL    HW133278  10.926   6.885   9.480
77127SOL    HW233279  11.072   6.925   9.486
77128SOL     OW33280  14.073   2.323   7.903
77128SOL    HW133281  14.104   2.412   7.886
77128SOL    HW233282  14.002   2.311   7.840
77129SOL     OW33283   8.990  14.394  11.831
77129SOL    HW133284   8.996  14.487  11.856
77129SOL    HW233285   8.945  14.395  11.747
77130SOL     OW33286  14.490   3.787   4.504
77130SOL    HW133287  14.578   3.816   4.527
77130SOL    HW233288  14.501   3.693   4.485
77131SOL     OW33289   2.518  10.367   4.273
77131SOL    HW133290   2.506  10.396   4.364
77131SOL    HW233291   2.612  10.361   4.262
77132SOL     OW33292   4.908   0.066   0.308
77132SOL    HW133293   4.971   0.123   0.352
77132SOL    HW233294   4.942  14.850   0.325
77133SOL     OW33295   3.994   7.478   5.068
77133SOL    HW133296   4.003   7.569   5.094
77133SOL    HW233297   3.908   7.472   5.027
77134SOL     OW33298  10.317  13.591  11.625
77134SOL    HW133299  10.286  13.510  11.664
77134SOL    HW233300  10.238  13.636  11.595
77135SOL     OW33301   4.930   3.420   9.763
77135SOL    HW133302   4.890   3.333   9.751
77135SOL    HW233303   5.001   3.422   9.699
77136SOL     OW33304  10.729   9.493   6.569
77136SOL    HW133305  10.709   9.586   6.552
77136SOL    HW233306  10.680   9.472   6.648
77137SOL     OW33307   8.754   5.764   2.999
77137SOL    HW133308   8.762   5.822   2.923
77137SOL    HW233309   8.760   5.822   3.074
77138SOL     OW33310   1.431   6.058  11.427
77138SOL    HW133311   1.417   5.994  11.496
77138SOL    HW233312   1.371   6.130  11.448
77139SOL     OW33313  13.213   0.060  13.641
77139SOL    HW133314  13.135   0.070  13.696
77139SOL    HW233315  13.181   0.070  13.552
77140SOL     OW33316   8.259   0.845  11.793
77140SOL    HW133317   8.266   0.754  11.762
77140SOL    HW233318   8.233   0.895  11.715
77141SOL     OW33319  12.118  14.391   7.009
77141SOL    HW133320  12.195  14.364   7.058
77141SOL    HW233321  12.055  14.320   7.022
77142SOL     OW33322   4.612   7.224  12.954
77142SOL    HW133323   4.684   7.197  13.011
77142SOL    HW233324   4.588   7.312  12.984
77143SOL     OW33325   5.683   3.057   0.622
77143SOL    HW133326   5.756   3.065   0.561
77143SOL    HW233327   5.718   3.006   0.695
77144SOL     OW33328   4.309  13.754   4.983
77144SOL    HW133329   4.355  13.684   4.937
77144SOL    HW233330   4.274  13.711   5.062
77145SOL     OW33331   6.200   0.581  13.042
77145SOL    HW133332   6.189   0.631  13.123
77145SOL    HW233333   6.194   0.490  13.070
77146SOL     OW33334   4.100   6.378  14.042
77146SOL    HW133335   4.136   6.467  14.036
77146SOL    HW233336   4.166   6.323  13.999
77147SOL     OW33337   1.341   6.845   5.825
77147SOL    HW133338   1.304   6.761   5.851
77147SOL    HW233339   1.270   6.891   5.781
77148SOL     OW33340  11.068  11.521  12.536
77148SOL    HW133341  11.102  11.503  12.448
77148SOL    HW233342  11.054  11.615  12.537
77149SOL     OW33343  13.936   4.820   8.229
77149SOL    HW133344  13.874   4.891   8.212
77149SOL    HW233345  13.988   4.852   8.303
77150SOL     OW33346  12.208   2.137   4.026
77150SOL    HW133347  12.142   2.193   3.986
77150SOL    HW233348  12.185   2.135   4.119
77151SOL     OW33349   9.782   9.401  14.316
77151SOL    HW133350   9.822   9.336  14.374
77151SOL    HW233351   9.839   9.403  14.239
77152SOL     OW33352  11.908  10.136   7.328
77152SOL    HW133353  11.984  10.083   7.350
77152SOL    HW233354  11.869  10.093   7.252
77153SOL     OW33355   9.122  10.479  11.287
77153SOL    HW133356   9.129  10.385  11.274
77153SOL    HW233357   9.149  10.517  11.203
77154SOL     OW33358   8.200   5.453  12.939
77154SOL    HW133359   8.246   5.537  12.947
77154SOL    HW233360   8.153   5.460  12.856
77155SOL     OW33361  12.681  12.360   1.711
77155SOL    HW133362  12.626  12.284   1.691
77155SOL    HW233363  12.618  12.430   1.730
77156SOL     OW33364   6.270   6.939   3.491
77156SOL    HW133365   6.225   6.973   3.414
77156SOL    HW233366   6.362   6.961   3.477
77157SOL     OW33367   3.479   2.987  13.714
77157SOL    HW133368   3.450   2.904  13.753
77157SOL    HW233369   3.473   2.972  13.619
77158SOL     OW33370   2.270   8.980  13.042
77158SOL    HW133371   2.209   8.960  13.113
77158SOL    HW233372   2.293   9.072  13.055
77159SOL     OW33373  13.923   9.871   4.764
77159SOL    HW133374  13.860   9.938   4.790
77159SOL    HW233375  13.921   9.807   4.835
77160SOL     OW33376   5.352   4.265   8.540
77160SOL    HW133377   5.353   4.231   8.451
77160SOL    HW233378   5.367   4.359   8.530
77161SOL     OW33379   0.937  13.852  10.193
77161SOL    HW133380   0.898  13.933  10.160
77161SOL    HW233381   0.909  13.847  10.284
77162SOL     OW33382   6.078   7.878  11.420
77162SOL    HW133383   6.137   7.824  11.368
77162SOL    HW233384   5.991   7.842  11.404
77163SOL     OW33385   0.766  13.947   5.064
77163SOL    HW133386   0.758  13.859   5.028
77163SOL    HW233387   0.858  13.970   5.050
77164SOL     OW33388   5.609  13.249  11.787
77164SOL    HW133389   5.642  13.331  11.748
77164SOL    HW233390   5.626  13.258  11.880
77165SOL     OW33391   9.404   0.534  14.376
77165SOL    HW133392   9.456   0.585  14.314
77165SOL    HW233393   9.317   0.576  14.374
77166SOL     OW33394   7.288   3.987   7.557
77166SOL    HW133395   7.193   3.981   7.545
77166SOL    HW233396   7.305   4.081   7.565
77167SOL     OW33397   9.792   0.390   7.543
77167SOL    HW133398   9.737   0.468   7.551
77167SOL    HW233399   9.860   0.403   7.610
77168SOL     OW33400   1.368   2.178   2.362
77168SOL    HW133401   1.331   2.148   2.444
77168SOL    HW233402   1.293   2.191   2.304
77169SOL     OW33403   1.697   0.968   5.326
77169SOL    HW133404   1.641   1.006   5.257
77169SOL    HW233405   1.766   1.033   5.339
77170SOL     OW33406  10.462  10.498   1.527
77170SOL    HW133407  10.464  10.432   1.458
77170SOL    HW233408  10.466  10.448   1.608
77171SOL     OW33409   4.558   1.357   2.509
77171SOL    HW133410   4.638   1.304   2.517
77171SOL    HW233411   4.561   1.417   2.584
77172SOL     OW33412  10.058   6.852   8.629
77172SOL    HW133413   9.974   6.894   8.646
77172SOL    HW233414  10.120   6.924   8.621
77173SOL     OW33415   5.953   1.039  10.894
77173SOL    HW133416   5.892   1.111  10.880
77173SOL    HW233417   6.003   1.064  10.972
77174SOL     OW33418  12.445  12.139   0.904
77174SOL    HW133419  12.493  12.213   0.865
77174SOL    HW233420  12.393  12.177   0.974
77175SOL     OW33421  12.471   4.859   1.075
77175SOL    HW133422  12.414   4.782   1.080
77175SOL    HW233423  12.451   4.898   0.990
77176SOL     OW33424   2.144   9.825   2.877
77176SOL    HW133425   2.206   9.898   2.887
77176SOL    HW233426   2.096   9.822   2.960
77177SOL     OW33427   0.414   0.473   2.649
77177SOL    HW133428   0.428   0.546   2.709
77177SOL    HW233429   0.498   0.426   2.650
77178SOL     OW33430   7.143   5.411   1.811
77178SOL    HW133431   7.098   5.435   1.892
77178SOL    HW233432   7.128   5.484   1.752
77179SOL     OW33433   0.459   2.473   4.937
77179SOL    HW133434   0.417   2.467   4.852
77179SOL    HW233435   0.525   2.541   4.927
77180SOL     OW33436  13.606  12.041   7.409
77180SOL    HW133437  13.524  11.993   7.400
77180SOL    HW233438  13.623  12.042   7.503
77181SOL     OW33439   2.756  11.553   1.903
77181SOL    HW133440   2.740  11.620   1.836
77181SOL    HW233441   2.814  11.490   1.859
77182SOL     OW33442   2.737   3.689  11.570
77182SOL    HW133443   2.678   3.764  11.571
77182SOL    HW233444   2.680   3.614  11.550
77183SOL     OW33445  13.817  10.921  14.771
77183SOL    HW133446  13.810  10.865  14.849
77183SOL    HW233447  13.846  10.861  14.702
77184SOL     OW33448  14.650   2.690   4.329
77184SOL    HW133449  14.602   2.732   4.258
77184SOL    HW233450  14.589   2.625   4.363
77185SOL     OW33451  10.708   3.424   0.253
77185SOL    HW133452  10.786   3.385   0.213
77185SOL    HW233453  10.705   3.388   0.341
77186SOL     OW33454  14.737  13.100  10.942
77186SOL    HW133455  14.795  13.097  11.019
77186SOL    HW233456  14.790  13.065  10.871
77187SOL     OW33457   8.915   5.508   8.207
77187SOL    HW133458   8.935   5.499   8.300
77187SOL    HW233459   8.825   5.475   8.199
77188SOL     OW33460   3.318  11.810   8.665
77188SOL    HW133461   3.335  11.836   8.755
77188SOL    HW233462   3.323  11.892   8.615
77189SOL     OW33463   7.150   7.921  14.717
77189SOL    HW133464   7.084   7.852  14.727
77189SOL    HW233465   7.213   7.904  14.786
77190SOL     OW33466   7.986  14.265   8.364
77190SOL    HW133467   7.953  14.238   8.279
77190SOL    HW233468   8.080  14.272   8.353
77191SOL     OW33469   9.209  11.126   6.497
77191SOL    HW133470   9.189  11.077   6.577
77191SOL    HW233471   9.294  11.092   6.468
77192SOL     OW33472   4.270   5.094   1.662
77192SOL    HW133473   4.270   5.110   1.756
77192SOL    HW233474   4.360   5.069   1.641
77193SOL     OW33475   2.452  10.052   0.279
77193SOL    HW133476   2.456   9.973   0.333
77193SOL    HW233477   2.434  10.020   0.191
77194SOL     OW33478   8.787   4.054  11.259
77194SOL    HW133479   8.713   4.045  11.319
77194SOL    HW233480   8.839   4.126  11.294
77195SOL     OW33481  13.183   7.735  14.495
77195SOL    HW133482  13.167   7.805  14.559
77195SOL    HW233483  13.099   7.689  14.488
77196SOL     OW33484   3.527   5.970   3.633
77196SOL    HW133485   3.483   5.930   3.558
77196SOL    HW233486   3.589   6.032   3.594
77197SOL     OW33487   1.468   0.379   7.806
77197SOL    HW133488   1.386   0.341   7.775
77197SOL    HW233489   1.463   0.374   7.901
77198SOL     OW33490   1.097  10.611   4.969
77198SOL    HW133491   1.084  10.676   4.900
77198SOL    HW233492   1.121  10.531   4.922
77199SOL     OW33493   5.049   4.600   8.737
77199SOL    HW133494   5.073   4.676   8.685
77199SOL    HW233495   5.128   4.546   8.738
77200SOL     OW33496   3.635   2.588   6.806
77200SOL    HW133497   3.683   2.616   6.728
77200SOL    HW233498   3.582   2.514   6.777
77201SOL     OW33499   3.143   2.846   5.754
77201SOL    HW133500   3.220   2.899   5.775
77201SOL    HW233501   3.173   2.786   5.686
77202SOL     OW33502   1.051   6.054   4.350
77202SOL    HW133503   1.046   5.958   4.357
77202SOL    HW233504   1.083   6.069   4.261
77203SOL     OW33505  10.206   0.993   8.481
77203SOL    HW133506  10.216   0.973   8.574
77203SOL    HW233507  10.203   0.907   8.438
77204SOL     OW33508   8.407   3.524  12.707
77204SOL    HW133509   8.439   3.438  12.733
77204SOL    HW233510   8.433   3.582  12.779
77205SOL     OW33511  13.128   4.869  13.065
77205SOL    HW133512  13.130   4.774  13.068
77205SOL    HW233513  13.201   4.897  13.120
77206SOL     OW33514   4.236   4.595   5.895
77206SOL    HW133515   4.157   4.590   5.842
77206SOL    HW233516   4.262   4.688   5.892
77207SOL     OW33517   3.109  10.570  12.152
77207SOL    HW133518   3.203  10.587  12.160
77207SOL    HW233519   3.070  10.624  12.222
77208SOL     OW33520  12.885   6.765   9.004
77208SOL    HW133521  12.964   6.727   8.965
77208SOL    HW233522  12.840   6.690   9.043
77209SOL     OW33523  10.740   2.445  13.064
77209SOL    HW133524  10.714   2.537  13.055
77209SOL    HW233525  10.724   2.425  13.157
77210SOL     OW33526   1.033  10.282   5.359
77210SOL    HW133527   1.105  10.331   5.398
77210SOL    HW233528   1.046  10.290   5.264
77211SOL     OW33529   2.479  14.176  13.409
77211SOL    HW133530   2.436  14.153  13.491
77211SOL    HW233531   2.562  14.216  13.435
77212SOL     OW33532  13.141   4.896   9.132
77212SOL    HW133533  13.161   4.806   9.159
77212SOL    HW233534  13.170   4.950   9.205
77213SOL     OW33535   2.540   3.702   1.252
77213SOL    HW133536   2.489   3.661   1.181
77213SOL    HW233537   2.486   3.775   1.281
77214SOL     OW33538   2.848   1.924   6.410
77214SOL    HW133539   2.919   1.981   6.438
77214SOL    HW233540   2.876   1.836   6.435
77215SOL     OW33541   7.706   7.128   6.128
77215SOL    HW133542   7.612   7.116   6.144
77215SOL    HW233543   7.713   7.140   6.033
77216SOL     OW33544   3.367   8.392   3.854
77216SOL    HW133545   3.349   8.298   3.849
77216SOL    HW233546   3.458   8.398   3.882
77217SOL     OW33547   3.969  11.732  14.020
77217SOL    HW133548   3.996  11.788  14.093
77217SOL    HW233549   3.962  11.790  13.945
77218SOL     OW33550   9.977  10.657  13.634
77218SOL    HW133551  10.041  10.703  13.689
77218SOL    HW233552   9.892  10.682  13.669
77219SOL     OW33553   4.356   2.912   0.261
77219SOL    HW133554   4.327   3.003   0.259
77219SOL    HW233555   4.438   2.913   0.311
77220SOL     OW33556   2.089   7.047   6.046
77220SOL    HW133557   2.183   7.064   6.043
77220SOL    HW233558   2.075   7.006   6.132
77221SOL     OW33559  13.471   7.046  10.413
77221SOL    HW133560  13.549   6.998  10.438
77221SOL    HW233561  13.421   7.055  10.494
77222SOL     OW33562   5.751  12.454  13.602
77222SOL    HW133563   5.744  12.371  13.648
77222SOL    HW233564   5.780  12.431  13.514
77223SOL     OW33565   7.969   5.015   4.820
77223SOL    HW133566   8.008   4.929   4.811
77223SOL    HW233567   8.001   5.065   4.745
77224SOL     OW33568   8.265   9.735   8.341
77224SOL    HW133569   8.206   9.667   8.374
77224SOL    HW233570   8.322   9.691   8.279
77225SOL     OW33571   0.675   0.060   3.571
77225SOL    HW133572   0.727   0.100   3.641
77225SOL    HW233573   0.709  14.843   3.563
77226SOL     OW33574   1.583  12.897   7.534
77226SOL    HW133575   1.610  12.857   7.617
77226SOL    HW233576   1.512  12.840   7.502
77227SOL     OW33577   0.740   2.998   8.010
77227SOL    HW133578   0.692   3.072   8.047
77227SOL    HW233579   0.805   2.975   8.076
77228SOL     OW33580  13.179   3.192  14.423
77228SOL    HW133581  13.124   3.114  14.428
77228SOL    HW233582  13.267   3.160  14.443
77229SOL     OW33583   1.385   0.861  11.953
77229SOL    HW133584   1.419   0.891  12.037
77229SOL    HW233585   1.400   0.766  11.954
77230SOL     OW33586   9.220   6.146  14.412
77230SOL    HW133587   9.190   6.151  14.503
77230SOL    HW233588   9.159   6.086  14.370
77231SOL     OW33589  10.474   1.538  14.161
77231SOL    HW133590  10.460   1.570  14.250
77231SOL    HW233591  10.419   1.594  14.106
77232SOL     OW33592  11.788   8.088   5.085
77232SOL    HW133593  11.809   8.152   5.017
77232SOL    HW233594  11.782   8.005   5.038
77233SOL     OW33595  12.105   3.020  14.539
77233SOL    HW133596  12.101   2.925  14.553
77233SOL    HW233597  12.127   3.030  14.446
77234SOL     OW33598   5.287  13.678   8.363
77234SOL    HW133599   5.240  13.597   8.381
77234SOL    HW233600   5.364  13.675   8.418
77235SOL     OW33601  12.863   9.468  14.434
77235SOL    HW133602  12.863   9.558  14.402
77235SOL    HW233603  12.781   9.459  14.482
77236SOL     OW33604  14.395   0.483   9.058
77236SOL    HW133605  14.423   0.563   9.014
77236SOL    HW233606  14.379   0.421   8.987
77237SOL     OW33607  13.133  13.508   1.278
77237SOL    HW133608  13.049  13.541   1.309
77237SOL    HW233609  13.150  13.432   1.334
77238SOL     OW33610  12.904   7.560   4.179
77238SOL    HW133611  12.995   7.580   4.205
77238SOL    HW233612  12.909   7.472   4.142
77239SOL     OW33613   1.370   8.804   8.075
77239SOL    HW133614   1.287   8.808   8.027
77239SOL    HW233615   1.364   8.724   8.127
77240SOL     OW33616  13.939   1.729   3.231
77240SOL    HW133617  13.867   1.710   3.171
77240SOL    HW233618  13.938   1.824   3.241
77241SOL     OW33619  14.250  12.898   7.337
77241SOL    HW133620  14.326  12.901   7.395
77241SOL    HW233621  14.223  12.806   7.338
77242SOL     OW33622  13.505   8.060  11.690
77242SOL    HW133623  13.554   8.139  11.710
77242SOL    HW233624  13.429   8.091  11.640
77243SOL     OW33625  13.422  10.904   6.527
77243SOL    HW133626  13.428  10.999   6.534
77243SOL    HW233627  13.337  10.888   6.486
77244SOL     OW33628  12.966  11.720   3.452
77244SOL    HW133629  13.036  11.664   3.485
77244SOL    HW233630  12.915  11.744   3.529
77245SOL     OW33631   2.006   0.668   1.794
77245SOL    HW133632   1.961   0.620   1.725
77245SOL    HW233633   1.962   0.753   1.798
77246SOL     OW33634   4.414   9.490  14.809
77246SOL    HW133635   4.469   9.527  14.741
77246SOL    HW233636   4.456   9.408  14.833
77247SOL     OW33637   9.468   1.255  13.527
77247SOL    HW133638   9.393   1.254  13.586
77247SOL    HW233639   9.447   1.321  13.461
77248SOL     OW33640   1.997   8.687   9.326
77248SOL    HW133641   2.061   8.677   9.256
77248SOL    HW233642   1.917   8.650   9.291
77249SOL     OW33643   2.564   2.080  13.635
77249SOL    HW133644   2.558   2.107  13.543
77249SOL    HW233645   2.497   2.131  13.679
77250SOL     OW33646   0.720   9.900   7.121
77250SOL    HW133647   0.709   9.942   7.036
77250SOL    HW233648   0.801   9.849   7.111
77251SOL     OW33649  12.936  12.418   9.970
77251SOL    HW133650  12.861  12.466   9.935
77251SOL    HW233651  12.899  12.334   9.999
77252SOL     OW33652   7.123  13.707   7.555
77252SOL    HW133653   7.153  13.636   7.612
77252SOL    HW233654   7.067  13.663   7.490
77253SOL     OW33655   1.134   2.333  12.554
77253SOL    HW133656   1.124   2.425  12.576
77253SOL    HW233657   1.044   2.301  12.544
77254SOL     OW33658  12.808   1.113   7.664
77254SOL    HW133659  12.815   1.201   7.700
77254SOL    HW233660  12.892   1.097   7.620
77255SOL     OW33661   9.152   2.101  11.029
77255SOL    HW133662   9.059   2.119  11.041
77255SOL    HW233663   9.177   2.052  11.108
77256SOL     OW33664  14.187   8.394   7.881
77256SOL    HW133665  14.256   8.445   7.841
77256SOL    HW233666  14.176   8.432   7.968
77257SOL     OW33667  12.558  10.360  14.280
77257SOL    HW133668  12.568  10.424  14.350
77257SOL    HW233669  12.621  10.291  14.302
77258SOL     OW33670   0.119  14.206   9.954
77258SOL    HW133671   0.108  14.116   9.985
77258SOL    HW233672   0.048  14.218   9.890
77259SOL     OW33673  10.435   1.570   2.031
77259SOL    HW133674  10.466   1.660   2.042
77259SOL    HW233675  10.343   1.573   2.056
77260SOL     OW33676   8.847   1.438   5.652
77260SOL    HW133677   8.843   1.525   5.692
77260SOL    HW233678   8.815   1.453   5.562
77261SOL     OW33679   2.645   0.407   0.115
77261SOL    HW133680   2.580   0.393   0.047
77261SOL    HW233681   2.635   0.499   0.139
77262SOL     OW33682   4.871   9.899   6.717
77262SOL    HW133683   4.783   9.934   6.729
77262SOL    HW233684   4.928   9.975   6.728
77263SOL     OW33685  14.162   2.679   6.215
77263SOL    HW133686  14.096   2.609   6.222
77263SOL    HW233687  14.204   2.664   6.131
77264SOL     OW33688   9.608   1.903   3.216
77264SOL    HW133689   9.552   1.873   3.288
77264SOL    HW233690   9.556   1.970   3.172
77265SOL     OW33691  12.646   0.176   9.647
77265SOL    HW133692  12.713   0.219   9.700
77265SOL    HW233693  12.564   0.199   9.689
77266SOL     OW33694   8.590   6.112   4.496
77266SOL    HW133695   8.538   6.183   4.456
77266SOL    HW233696   8.632   6.069   4.422
77267SOL     OW33697   3.728   0.672   2.540
77267SOL    HW133698   3.741   0.604   2.605
77267SOL    HW233699   3.798   0.659   2.476
77268SOL     OW33700   9.888   3.644   8.345
77268SOL    HW133701   9.794   3.626   8.340
77268SOL    HW233702   9.928   3.557   8.343
77269SOL     OW33703   8.370  12.899   7.280
77269SOL    HW133704   8.455  12.876   7.242
77269SOL    HW233705   8.390  12.929   7.368
77270SOL     OW33706  13.508  13.291   4.493
77270SOL    HW133707  13.554  13.207   4.491
77270SOL    HW233708  13.487  13.309   4.401
77271SOL     OW33709   0.002  10.878  13.106
77271SOL    HW133710  14.825  10.959  13.116
77271SOL    HW233711  14.808  10.812  13.086
77272SOL     OW33712   7.291  12.767  13.838
77272SOL    HW133713   7.275  12.722  13.754
77272SOL    HW233714   7.377  12.807  13.828
77273SOL     OW33715  14.020  11.949  14.802
77273SOL    HW133716  14.107  11.987  14.787
77273SOL    HW233717  13.963  12.025  14.818
77274SOL     OW33718  11.283   9.826   7.089
77274SOL    HW133719  11.265   9.750   7.034
77274SOL    HW233720  11.362   9.864   7.052
77275SOL     OW33721   4.653   6.429   8.149
77275SOL    HW133722   4.705   6.509   8.155
77275SOL    HW233723   4.660   6.388   8.235
77276SOL     OW33724   7.078   9.010  14.007
77276SOL    HW133725   7.113   8.970  14.086
77276SOL    HW233726   7.111   8.956  13.935
77277SOL     OW33727   4.437  14.338  14.443
77277SOL    HW133728   4.444  14.359  14.350
77277SOL    HW233729   4.404  14.419  14.483
77278SOL     OW33730  12.664   7.762   0.241
77278SOL    HW133731  12.639   7.852   0.219
77278SOL    HW233732  12.666   7.761   0.337
77279SOL     OW33733   6.897   1.952  12.183
77279SOL    HW133734   6.870   1.863  12.205
77279SOL    HW233735   6.857   1.969  12.098
77280SOL     OW33736   4.556   5.074   2.590
77280SOL    HW133737   4.496   5.010   2.628
77280SOL    HW233738   4.527   5.085   2.500
77281SOL     OW33739  12.448   9.877   3.437
77281SOL    HW133740  12.392   9.806   3.469
77281SOL    HW233741  12.534   9.858   3.474
77282SOL     OW33742  14.420   6.583   3.588
77282SOL    HW133743  14.434   6.506   3.644
77282SOL    HW233744  14.420   6.548   3.499
77283SOL     OW33745   1.002   4.531  14.760
77283SOL    HW133746   0.914   4.508  14.789
77283SOL    HW233747   0.990   4.570  14.673
77284SOL     OW33748  13.957   3.532   0.750
77284SOL    HW133749  13.892   3.483   0.800
77284SOL    HW233750  13.940   3.624   0.773
77285SOL     OW33751   3.046   5.255   1.716
77285SOL    HW133752   3.140   5.270   1.705
77285SOL    HW233753   3.008   5.343   1.717
77286SOL     OW33754   7.304   0.714   9.692
77286SOL    HW133755   7.222   0.762   9.696
77286SOL    HW233756   7.283   0.634   9.645
77287SOL     OW33757   3.141   6.541   6.290
77287SOL    HW133758   3.057   6.584   6.274
77287SOL    HW233759   3.205   6.596   6.246
77288SOL     OW33760   8.524  10.787   1.550
77288SOL    HW133761   8.575  10.782   1.469
77288SOL    HW233762   8.505  10.880   1.562
77289SOL     OW33763   4.782  14.650   0.147
77289SOL    HW133764   4.768  14.744   0.162
77289SOL    HW233765   4.800  14.643   0.053
77290SOL     OW33766   2.758   0.659   4.243
77290SOL    HW133767   2.722   0.643   4.156
77290SOL    HW233768   2.797   0.576   4.270
77291SOL     OW33769   2.844   3.200   6.460
77291SOL    HW133770   2.911   3.249   6.412
77291SOL    HW233771   2.764   3.213   6.409
77292SOL     OW33772   9.822  11.686  11.092
77292SOL    HW133773   9.745  11.734  11.123
77292SOL    HW233774   9.837  11.618  11.158
77293SOL     OW33775   9.266  11.729   4.972
77293SOL    HW133776   9.182  11.738   5.017
77293SOL    HW233777   9.327  11.698   5.039
77294SOL     OW33778  11.560   6.846   6.220
77294SOL    HW133779  11.580   6.752   6.228
77294SOL    HW233780  11.465   6.851   6.230
77295SOL     OW33781  10.613  14.517  11.417
77295SOL    HW133782  10.665  14.521  11.336
77295SOL    HW233783  10.557  14.594  11.413
77296SOL     OW33784   7.019   3.398   9.018
77296SOL    HW133785   7.022   3.441   8.933
77296SOL    HW233786   7.094   3.433   9.066
77297SOL     OW33787   4.409   5.661  13.375
77297SOL    HW133788   4.383   5.712  13.298
77297SOL    HW233789   4.502   5.644  13.361
77298SOL     OW33790  13.741  11.344  11.289
77298SOL    HW133791  13.796  11.389  11.225
77298SOL    HW233792  13.664  11.400  11.299
77299SOL     OW33793   3.851   4.699  10.837
77299SOL    HW133794   3.877   4.791  10.827
77299SOL    HW233795   3.757   4.701  10.852
77300SOL     OW33796   1.035   7.471   9.288
77300SOL    HW133797   1.085   7.443   9.212
77300SOL    HW233798   1.058   7.563   9.301
77301SOL     OW33799   4.263   3.436   0.678
77301SOL    HW133800   4.260   3.420   0.584
77301SOL    HW233801   4.338   3.495   0.690
77302SOL     OW33802   4.520   6.115   1.422
77302SOL    HW133803   4.523   6.097   1.328
77302SOL    HW233804   4.524   6.211   1.427
77303SOL     OW33805  11.492  14.183  12.115
77303SOL    HW133806  11.441  14.113  12.155
77303SOL    HW233807  11.564  14.197  12.176
77304SOL     OW33808   9.841  13.667  14.029
77304SOL    HW133809   9.794  13.700  13.952
77304SOL    HW233810   9.801  13.713  14.103
77305SOL     OW33811   1.794   5.017   0.809
77305SOL    HW133812   1.767   5.080   0.875
77305SOL    HW233813   1.819   4.939   0.859
77306SOL     OW33814   8.087  14.566  12.634
77306SOL    HW133815   8.057  14.482  12.667
77306SOL    HW233816   8.176  14.549  12.603
77307SOL     OW33817   5.919   6.315  14.179
77307SOL    HW133818   5.854   6.308  14.108
77307SOL    HW233819   5.939   6.408  14.184
77308SOL     OW33820  10.730  11.089   7.174
77308SOL    HW133821  10.814  11.086   7.129
77308SOL    HW233822  10.731  11.174   7.220
77309SOL     OW33823   3.509  14.519  14.842
77309SOL    HW133824   3.462  14.602  14.838
77309SOL    HW233825   3.488  14.484   0.057
77310SOL     OW33826   6.708   0.704   7.763
77310SOL    HW133827   6.685   0.630   7.821
77310SOL    HW233828   6.803   0.709   7.769
77311SOL     OW33829   1.572   1.736   8.309
77311SOL    HW133830   1.501   1.742   8.244
77311SOL    HW233831   1.538   1.678   8.377
77312SOL     OW33832   0.676   3.526  14.645
77312SOL    HW133833   0.640   3.548  14.731
77312SOL    HW233834   0.758   3.480  14.665
77313SOL     OW33835   6.667  14.872   3.541
77313SOL    HW133836   6.655  14.785   3.502
77313SOL    HW233837   6.752   0.029   3.508
77314SOL     OW33838   1.455   2.321   8.011
77314SOL    HW133839   1.444   2.293   8.102
77314SOL    HW233840   1.450   2.239   7.961
77315SOL     OW33841  13.551   0.014   8.166
77315SOL    HW133842  13.613   0.063   8.220
77315SOL    HW233843  13.557   0.054   8.079
77316SOL     OW33844  13.243   1.940  11.757
77316SOL    HW133845  13.235   1.887  11.836
77316SOL    HW233846  13.325   1.989  11.769
77317SOL     OW33847   5.594   2.995   0.970
77317SOL    HW133848   5.530   3.024   1.035
77317SOL    HW233849   5.638   3.076   0.942
77318SOL     OW33850   7.379  11.736  13.909
77318SOL    HW133851   7.410  11.674  13.975
77318SOL    HW233852   7.317  11.792  13.956
77319SOL     OW33853   1.057  12.960   9.980
77319SOL    HW133854   0.969  12.929   9.960
77319SOL    HW233855   1.082  13.013   9.904
77320SOL     OW33856  10.750   2.689  13.303
77320SOL    HW133857  10.802   2.704  13.224
77320SOL    HW233858  10.660   2.682  13.271
77321SOL     OW33859   8.593   3.942  13.570
77321SOL    HW133860   8.523   3.882  13.597
77321SOL    HW233861   8.635   3.899  13.497
77322SOL     OW33862  13.548   2.795  13.799
77322SOL    HW133863  13.513   2.875  13.837
77322SOL    HW233864  13.472   2.752  13.759
77323SOL     OW33865  13.527  13.297   8.398
77323SOL    HW133866  13.444  13.286   8.445
77323SOL    HW233867  13.588  13.330   8.465
77324SOL     OW33868  12.974  13.335   7.782
77324SOL    HW133869  13.008  13.247   7.764
77324SOL    HW233870  12.901  13.345   7.721
77325SOL     OW33871   5.932  12.219   1.071
77325SOL    HW133872   6.007  12.264   1.109
77325SOL    HW233873   5.864  12.224   1.139
77326SOL     OW33874   5.284  10.686  11.705
77326SOL    HW133875   5.280  10.731  11.621
77326SOL    HW233876   5.298  10.594  11.682
77327SOL     OW33877   2.911  14.479   4.563
77327SOL    HW133878   2.844  14.413   4.548
77327SOL    HW233879   2.903  14.539   4.488
77328SOL     OW33880   4.082  10.313   1.105
77328SOL    HW133881   4.069  10.230   1.058
77328SOL    HW233882   4.090  10.287   1.197
77329SOL     OW33883   1.252  12.235  12.807
77329SOL    HW133884   1.320  12.291  12.844
77329SOL    HW233885   1.204  12.203  12.883
77330SOL     OW33886   8.974   3.934  10.905
77330SOL    HW133887   8.919   3.984  10.845
77330SOL    HW233888   8.983   3.848  10.862
77331SOL     OW33889   7.570   9.889   8.440
77331SOL    HW133890   7.476   9.875   8.430
77331SOL    HW233891   7.592   9.950   8.369
77332SOL     OW33892   7.864  10.136   1.298
77332SOL    HW133893   7.809  10.214   1.302
77332SOL    HW233894   7.941  10.158   1.350
77333SOL     OW33895   8.599   8.644   0.539
77333SOL    HW133896   8.581   8.723   0.590
77333SOL    HW233897   8.513   8.617   0.506
77334SOL     OW33898  12.696  12.797   0.963
77334SOL    HW133899  12.764  12.803   1.029
77334SOL    HW233900  12.666  12.887   0.950
77335SOL     OW33901   1.024   7.552   9.625
77335SOL    HW133902   0.968   7.502   9.566
77335SOL    HW233903   0.997   7.643   9.612
77336SOL     OW33904  11.028  10.233   7.989
77336SOL    HW133905  11.105  10.279   7.956
77336SOL    HW233906  10.974  10.217   7.912
77337SOL     OW33907   7.582   9.278  14.242
77337SOL    HW133908   7.588   9.255  14.335
77337SOL    HW233909   7.506   9.230  14.210
77338SOL     OW33910   3.884   8.506   3.471
77338SOL    HW133911   3.925   8.553   3.544
77338SOL    HW233912   3.957   8.463   3.426
77339SOL     OW33913   4.933  13.551  11.602
77339SOL    HW133914   4.919  13.466  11.645
77339SOL    HW233915   4.979  13.528  11.520
77340SOL     OW33916   8.114   4.045   9.808
77340SOL    HW133917   8.158   4.116   9.853
77340SOL    HW233918   8.087   4.082   9.724
77341SOL     OW33919   4.042   5.597   2.650
77341SOL    HW133920   4.049   5.658   2.577
77341SOL    HW233921   4.116   5.617   2.707
77342SOL     OW33922   7.294   6.601   0.522
77342SOL    HW133923   7.295   6.660   0.597
77342SOL    HW233924   7.354   6.531   0.546
77343SOL     OW33925   6.772   9.965   4.023
77343SOL    HW133926   6.731   9.879   4.034
77343SOL    HW233927   6.794   9.970   3.931
77344SOL     OW33928  11.782  14.109   3.883
77344SOL    HW133929  11.689  14.131   3.877
77344SOL    HW233930  11.783  14.023   3.926
77345SOL     OW33931   3.300   4.596   9.327
77345SOL    HW133932   3.285   4.583   9.234
77345SOL    HW233933   3.252   4.526   9.370
77346SOL     OW33934   9.299   9.352   9.397
77346SOL    HW133935   9.326   9.443   9.390
77346SOL    HW233936   9.227   9.343   9.335
77347SOL     OW33937   6.997  12.996   2.511
77347SOL    HW133938   6.943  13.005   2.433
77347SOL    HW233939   7.006  13.085   2.545
77348SOL     OW33940   7.668   9.777  12.303
77348SOL    HW133941   7.584   9.751  12.340
77348SOL    HW233942   7.682   9.866  12.334
77349SOL     OW33943   4.441   8.873  12.842
77349SOL    HW133944   4.396   8.882  12.926
77349SOL    HW233945   4.396   8.800  12.798
77350SOL     OW33946  10.434  11.065   8.978
77350SOL    HW133947  10.489  10.988   8.994
77350SOL    HW233948  10.496  11.133   8.949
77351SOL     OW33949  13.294  13.032  13.403
77351SOL    HW133950  13.350  13.040  13.480
77351SOL    HW233951  13.339  12.968  13.347
77352SOL     OW33952   6.750  11.603   1.483
77352SOL    HW133953   6.762  11.613   1.389
77352SOL    HW233954   6.830  11.558   1.512
77353SOL     OW33955   4.494   0.035   6.968
77353SOL    HW133956   4.523  14.816   6.966
77353SOL    HW233957   4.449   0.043   7.052
77354SOL     OW33958   9.323   8.301   2.358
77354SOL    HW133959   9.308   8.206   2.359
77354SOL    HW233960   9.418   8.310   2.355
77355SOL     OW33961  11.281  12.602   0.040
77355SOL    HW133962  11.345  12.654  14.865
77355SOL    HW233963  11.276  12.519  14.864
77356SOL     OW33964   4.464   5.282   9.912
77356SOL    HW133965   4.483   5.202   9.863
77356SOL    HW233966   4.477   5.353   9.849
77357SOL     OW33967   3.111   7.739   8.200
77357SOL    HW133968   3.095   7.719   8.107
77357SOL    HW233969   3.073   7.826   8.212
77358SOL     OW33970  13.302   4.823  10.400
77358SOL    HW133971  13.262   4.906  10.426
77358SOL    HW233972  13.250   4.756  10.445
77359SOL     OW33973  13.862   8.879   0.409
77359SOL    HW133974  13.842   8.963   0.368
77359SOL    HW233975  13.927   8.838   0.352
77360SOL     OW33976   6.746  12.161   7.341
77360SOL    HW133977   6.737  12.242   7.390
77360SOL    HW233978   6.659  12.143   7.307
77361SOL     OW33979  12.056  11.831   2.491
77361SOL    HW133980  12.149  11.813   2.509
77361SOL    HW233981  12.026  11.880   2.567
77362SOL     OW33982   7.259   4.152   1.287
77362SOL    HW133983   7.218   4.233   1.318
77362SOL    HW233984   7.287   4.107   1.366
77363SOL     OW33985   4.105   1.908   9.092
77363SOL    HW133986   4.080   1.889   9.002
77363SOL    HW233987   4.152   1.829   9.120
77364SOL     OW33988  11.732   3.964  13.118
77364SOL    HW133989  11.796   4.022  13.160
77364SOL    HW233990  11.727   3.888  13.176
77365SOL     OW33991   3.582   7.957   0.454
77365SOL    HW133992   3.642   7.886   0.433
77365SOL    HW233993   3.570   7.951   0.549
77366SOL     OW33994  14.701   1.736   8.956
77366SOL    HW133995  14.696   1.660   8.898
77366SOL    HW233996  14.783   1.780   8.932
77367SOL     OW33997   8.460  13.684   8.508
77367SOL    HW133998   8.483  13.692   8.600
77367SOL    HW233999   8.370  13.650   8.509
77368SOL     OW34000  14.183   2.773  14.600
77368SOL    HW134001  14.113   2.829  14.566
77368SOL    HW234002  14.223   2.734  14.522
77369SOL     OW34003   1.551   8.993   6.871
77369SOL    HW134004   1.563   8.985   6.965
77369SOL    HW234005   1.475   8.937   6.851
77370SOL     OW34006   4.442  14.000   1.143
77370SOL    HW134007   4.418  13.915   1.108
77370SOL    HW234008   4.530  14.016   1.110
77371SOL     OW34009   8.292   2.572  12.233
77371SOL    HW134010   8.217   2.567  12.174
77371SOL    HW234011   8.337   2.488  12.222
77372SOL     OW34012   5.503   5.156  11.012
77372SOL    HW134013   5.565   5.228  11.025
77372SOL    HW234014   5.477   5.130  11.100
77373SOL     OW34015   8.685   9.598   8.625
77373SOL    HW134016   8.647   9.686   8.623
77373SOL    HW234017   8.777   9.610   8.602
77374SOL     OW34018   6.583  13.656  13.288
77374SOL    HW134019   6.549  13.568  13.303
77374SOL    HW234020   6.670  13.642  13.249
77375SOL     OW34021   0.815   8.315   9.755
77375SOL    HW134022   0.840   8.244   9.813
77375SOL    HW234023   0.898   8.349   9.721
77376SOL     OW34024   2.735   8.783  13.825
77376SOL    HW134025   2.753   8.807  13.734
77376SOL    HW234026   2.656   8.833  13.848
77377SOL     OW34027   3.992   1.881   5.378
77377SOL    HW134028   3.976   1.914   5.467
77377SOL    HW234029   3.955   1.793   5.378
77378SOL     OW34030   3.817  12.684   9.949
77378SOL    HW134031   3.774  12.673  10.033
77378SOL    HW234032   3.896  12.631   9.955
77379SOL     OW34033   9.258   1.338   5.646
77379SOL    HW134034   9.327   1.282   5.680
77379SOL    HW234035   9.176   1.293   5.669
77380SOL     OW34036  11.007   4.603   9.102
77380SOL    HW134037  10.926   4.576   9.061
77380SOL    HW234038  11.075   4.555   9.056
77381SOL     OW34039   4.115  13.674  10.772
77381SOL    HW134040   4.137  13.675  10.865
77381SOL    HW234041   4.086  13.763  10.753
77382SOL     OW34042  12.977   6.071   7.423
77382SOL    HW134043  12.923   6.150   7.426
77382SOL    HW234044  12.988   6.053   7.330
77383SOL     OW34045   3.149   3.531  14.451
77383SOL    HW134046   3.220   3.524  14.516
77383SOL    HW234047   3.110   3.617  14.469
77384SOL     OW34048   5.669   1.155  11.983
77384SOL    HW134049   5.576   1.133  11.982
77384SOL    HW234050   5.671   1.251  11.987
77385SOL     OW34051   6.199  12.827   8.060
77385SOL    HW134052   6.202  12.744   8.014
77385SOL    HW234053   6.249  12.812   8.141
77386SOL     OW34054   7.585   0.209  11.853
77386SOL    HW134055   7.670   0.165  11.854
77386SOL    HW234056   7.565   0.225  11.945
77387SOL     OW34057   9.664  11.133   4.875
77387SOL    HW134058   9.687  11.051   4.917
77387SOL    HW234059   9.678  11.118   4.781
77388SOL     OW34060   6.740   4.824   1.681
77388SOL    HW134061   6.650   4.841   1.708
77388SOL    HW234062   6.787   4.810   1.762
77389SOL     OW34063   8.168   7.763  12.568
77389SOL    HW134064   8.115   7.802  12.637
77389SOL    HW234065   8.135   7.802  12.487
77390SOL     OW34066   9.186   9.464   6.000
77390SOL    HW134067   9.193   9.411   5.920
77390SOL    HW234068   9.257   9.433   6.055
77391SOL     OW34069   3.493  11.832   4.643
77391SOL    HW134070   3.546  11.757   4.670
77391SOL    HW234071   3.543  11.872   4.571
77392SOL     OW34072   5.104   5.058  13.541
77392SOL    HW134073   5.105   5.005  13.461
77392SOL    HW234074   5.195   5.084  13.554
77393SOL     OW34075  12.341   0.548   5.017
77393SOL    HW134076  12.303   0.474   4.969
77393SOL    HW234077  12.398   0.507   5.082
77394SOL     OW34078   1.464   7.401  13.430
77394SOL    HW134079   1.383   7.353  13.416
77394SOL    HW234080   1.496   7.420  13.341
77395SOL     OW34081   4.543   7.823   3.598
77395SOL    HW134082   4.550   7.906   3.550
77395SOL    HW234083   4.530   7.758   3.529
77396SOL     OW34084  14.599   5.381   6.673
77396SOL    HW134085  14.614   5.476   6.666
77396SOL    HW234086  14.686   5.342   6.665
77397SOL     OW34087  10.696   5.061  10.606
77397SOL    HW134088  10.754   4.997  10.565
77397SOL    HW234089  10.610   5.042  10.571
77398SOL     OW34090   7.980   3.530   3.129
77398SOL    HW134091   7.958   3.475   3.054
77398SOL    HW234092   7.896   3.568   3.156
77399SOL     OW34093   6.443  14.856   2.625
77399SOL    HW134094   6.394   0.047   2.678
77399SOL    HW234095   6.406  14.865   2.537
77400SOL     OW34096   3.330   9.360  14.569
77400SOL    HW134097   3.371   9.280  14.536
77400SOL    HW234098   3.242   9.333  14.597
77401SOL     OW34099  14.352  13.865   9.058
77401SOL    HW134100  14.266  13.842   9.023
77401SOL    HW234101  14.384  13.785   9.099
77402SOL     OW34102   8.533   3.612   6.317
77402SOL    HW134103   8.609   3.662   6.345
77402SOL    HW234104   8.542   3.605   6.222
77403SOL     OW34105   7.720   1.683   7.373
77403SOL    HW134106   7.792   1.685   7.310
77403SOL    HW234107   7.664   1.611   7.342
77404SOL     OW34108   1.537  14.295   9.294
77404SOL    HW134109   1.529  14.207   9.331
77404SOL    HW234110   1.512  14.354   9.365
77405SOL     OW34111   2.200   2.586   7.056
77405SOL    HW134112   2.178   2.500   7.093
77405SOL    HW234113   2.140   2.647   7.099
77406SOL     OW34114  14.675   7.687   6.188
77406SOL    HW134115  14.619   7.736   6.248
77406SOL    HW234116  14.671   7.597   6.218
77407SOL     OW34117  13.197  11.882   3.291
77407SOL    HW134118  13.110  11.843   3.289
77407SOL    HW234119  13.182  11.976   3.277
77408SOL     OW34120  11.968   8.754   8.817
77408SOL    HW134121  11.922   8.671   8.809
77408SOL    HW234122  12.015   8.764   8.734
77409SOL     OW34123   1.849   7.278  13.095
77409SOL    HW134124   1.763   7.300  13.059
77409SOL    HW234125   1.852   7.183  13.094
77410SOL     OW34126   3.934  12.804   2.996
77410SOL    HW134127   3.865  12.838   2.938
77410SOL    HW234128   4.005  12.778   2.937
77411SOL     OW34129   9.135   6.756   8.026
77411SOL    HW134130   9.089   6.750   7.942
77411SOL    HW234131   9.180   6.841   8.022
77412SOL     OW34132   4.512  11.082   8.016
77412SOL    HW134133   4.545  10.997   7.988
77412SOL    HW234134   4.484  11.069   8.106
77413SOL     OW34135  13.139   6.654   7.568
77413SOL    HW134136  13.186   6.664   7.485
77413SOL    HW234137  13.207   6.629   7.631
77414SOL     OW34138  14.679   8.140   7.702
77414SOL    HW134139  14.633   8.061   7.731
77414SOL    HW234140  14.673   8.138   7.607
77415SOL     OW34141   2.301   0.794   4.921
77415SOL    HW134142   2.370   0.729   4.931
77415SOL    HW234143   2.238   0.774   4.990
77416SOL     OW34144  14.440   5.659  11.457
77416SOL    HW134145  14.353   5.636  11.490
77416SOL    HW234146  14.426   5.738  11.406
77417SOL     OW34147   5.160   3.748  13.335
77417SOL    HW134148   5.232   3.801  13.301
77417SOL    HW234149   5.197   3.702  13.410
77418SOL     OW34150   6.755   9.351  13.370
77418SOL    HW134151   6.703   9.310  13.439
77418SOL    HW234152   6.723   9.442  13.366
77419SOL     OW34153   0.222   8.685  11.873
77419SOL    HW134154   0.229   8.649  11.784
77419SOL    HW234155   0.129   8.702  11.884
77420SOL     OW34156   2.470   8.292   4.274
77420SOL    HW134157   2.511   8.234   4.211
77420SOL    HW234158   2.376   8.288   4.253
77421SOL     OW34159   2.511   5.357  13.914
77421SOL    HW134160   2.507   5.273  13.867
77421SOL    HW234161   2.421   5.371  13.944
77422SOL     OW34162  10.396   5.100  10.289
77422SOL    HW134163  10.371   5.064  10.204
77422SOL    HW234164  10.317   5.096  10.341
77423SOL     OW34165  10.622  12.599   6.498
77423SOL    HW134166  10.654  12.597   6.588
77423SOL    HW234167  10.605  12.507   6.476
77424SOL     OW34168   1.887   0.752   0.949
77424SOL    HW134169   1.977   0.743   0.919
77424SOL    HW234170   1.881   0.698   1.027
77425SOL     OW34171   2.147   1.220  12.960
77425SOL    HW134172   2.093   1.142  12.945
77425SOL    HW234173   2.161   1.222  13.055
77426SOL     OW34174   7.887   7.171  14.514
77426SOL    HW134175   7.916   7.096  14.565
77426SOL    HW234176   7.964   7.198  14.465
77427SOL     OW34177   6.439   8.569   3.296
77427SOL    HW134178   6.478   8.498   3.346
77427SOL    HW234179   6.513   8.618   3.261
77428SOL     OW34180  10.427   5.405  11.816
77428SOL    HW134181  10.335   5.421  11.834
77428SOL    HW234182  10.430   5.381  11.723
77429SOL     OW34183  10.850  11.988  13.700
77429SOL    HW134184  10.862  11.928  13.773
77429SOL    HW234185  10.760  12.019  13.709
77430SOL     OW34186   9.527   3.988   3.022
77430SOL    HW134187   9.496   4.001   2.932
77430SOL    HW234188   9.513   4.072   3.065
77431SOL     OW34189   4.786  10.652   2.679
77431SOL    HW134190   4.712  10.693   2.635
77431SOL    HW234191   4.748  10.602   2.751
77432SOL     OW34192   6.483  14.632   4.363
77432SOL    HW134193   6.392  14.605   4.356
77432SOL    HW234194   6.483  14.726   4.345
77433SOL     OW34195   7.478   0.212   4.708
77433SOL    HW134196   7.454   0.187   4.797
77433SOL    HW234197   7.411   0.275   4.682
77434SOL     OW34198  14.235   4.180  12.010
77434SOL    HW134199  14.221   4.104  12.067
77434SOL    HW234200  14.266   4.143  11.928
77435SOL     OW34201   3.526  13.539   0.273
77435SOL    HW134202   3.553  13.597   0.344
77435SOL    HW234203   3.442  13.503   0.301
77436SOL     OW34204   6.596  12.694   2.391
77436SOL    HW134205   6.608  12.599   2.389
77436SOL    HW234206   6.619  12.724   2.303
77437SOL     OW34207   5.024  13.651   4.189
77437SOL    HW134208   4.994  13.561   4.179
77437SOL    HW234209   4.953  13.696   4.233
77438SOL     OW34210   9.534  14.613   4.795
77438SOL    HW134211   9.566  14.533   4.752
77438SOL    HW234212   9.570  14.608   4.884
77439SOL     OW34213  12.003   0.207   8.685
77439SOL    HW134214  11.994   0.281   8.745
77439SOL    HW234215  12.045   0.139   8.737
77440SOL     OW34216   6.562   0.314  13.806
77440SOL    HW134217   6.480   0.363  13.811
77440SOL    HW234218   6.542   0.241  13.747
77441SOL     OW34219   2.556   1.735   8.025
77441SOL    HW134220   2.607   1.718   8.105
77441SOL    HW234221   2.613   1.708   7.954
77442SOL     OW34222   2.993   8.050   5.711
77442SOL    HW134223   2.974   8.124   5.769
77442SOL    HW234224   3.083   8.026   5.730
77443SOL     OW34225  10.801  14.610   2.795
77443SOL    HW134226  10.878  14.638   2.844
77443SOL    HW234227  10.736  14.590   2.862
77444SOL     OW34228  11.107  13.518  11.598
77444SOL    HW134229  11.040  13.585  11.587
77444SOL    HW234230  11.057  13.436  11.603
77445SOL     OW34231  13.431  14.490   7.979
77445SOL    HW134232  13.352  14.481   7.925
77445SOL    HW234233  13.492  14.425   7.944
77446SOL     OW34234   8.365   2.751   5.083
77446SOL    HW134235   8.424   2.728   5.011
77446SOL    HW234236   8.421   2.798   5.145
77447SOL     OW34237   4.017  11.133   0.500
77447SOL    HW134238   3.949  11.118   0.566
77447SOL    HW234239   4.099  11.126   0.548
77448SOL     OW34240   5.839   1.442   3.506
77448SOL    HW134241   5.873   1.487   3.429
77448SOL    HW234242   5.744   1.441   3.493
77449SOL     OW34243   7.506  11.396   9.422
77449SOL    HW134244   7.443  11.465   9.443
77449SOL    HW234245   7.540  11.420   9.336
77450SOL     OW34246   9.391   6.372   3.569
77450SOL    HW134247   9.466   6.391   3.625
77450SOL    HW234248   9.364   6.284   3.594
77451SOL     OW34249  13.277   8.568   6.004
77451SOL    HW134250  13.320   8.488   6.034
77451SOL    HW234251  13.202   8.579   6.062
77452SOL     OW34252  14.338   5.572   2.782
77452SOL    HW134253  14.311   5.644   2.838
77452SOL    HW234254  14.312   5.493   2.829
77453SOL     OW34255   5.631   3.867  14.596
77453SOL    HW134256   5.609   3.908  14.512
77453SOL    HW234257   5.726   3.855  14.594
77454SOL     OW34258   5.519   0.886   7.939
77454SOL    HW134259   5.531   0.800   7.980
77454SOL    HW234260   5.484   0.941   8.009
77455SOL     OW34261   2.016   4.111   2.956
77455SOL    HW134262   2.078   4.075   3.019
77455SOL    HW234263   1.987   4.035   2.905
77456SOL     OW34264   0.743  13.580   9.863
77456SOL    HW134265   0.771  13.580   9.954
77456SOL    HW234266   0.666  13.523   9.862
77457SOL     OW34267   3.084   0.003   1.294
77457SOL    HW134268   3.094   0.081   1.349
77457SOL    HW234269   3.021  14.821   1.340
77458SOL     OW34270   4.154   5.459   3.505
77458SOL    HW134271   4.124   5.376   3.467
77458SOL    HW234272   4.114   5.462   3.591
77459SOL     OW34273  12.920  12.099   2.822
77459SOL    HW134274  12.938  12.193   2.816
77459SOL    HW234275  12.873  12.079   2.741
77460SOL     OW34276   2.054  10.470   0.275
77460SOL    HW134277   2.117  10.399   0.261
77460SOL    HW234278   2.079  10.537   0.212
77461SOL     OW34279  13.057  14.500   4.366
77461SOL    HW134280  12.966  14.488   4.338
77461SOL    HW234281  13.094  14.411   4.364
77462SOL     OW34282  13.329   3.581   8.329
77462SOL    HW134283  13.392   3.557   8.261
77462SOL    HW234284  13.293   3.665   8.301
77463SOL     OW34285   5.573  12.332   7.297
77463SOL    HW134286   5.530  12.295   7.375
77463SOL    HW234287   5.526  12.292   7.223
77464SOL     OW34288  13.064  10.185   3.078
77464SOL    HW134289  13.154  10.155   3.071
77464SOL    HW234290  13.013  10.105   3.094
77465SOL     OW34291  12.088   0.597   4.397
77465SOL    HW134292  12.162   0.565   4.448
77465SOL    HW234293  12.115   0.684   4.367
77466SOL     OW34294  14.658   9.485   7.795
77466SOL    HW134295  14.753   9.480   7.792
77466SOL    HW234296  14.629   9.394   7.808
77467SOL     OW34297   5.080  12.307  12.537
77467SOL    HW134298   5.056  12.240  12.474
77467SOL    HW234299   4.999  12.354  12.556
77468SOL     OW34300   8.302   1.190  14.725
77468SOL    HW134301   8.251   1.192  14.806
77468SOL    HW234302   8.240   1.217  14.657
77469SOL     OW34303  14.508   2.185   8.947
77469SOL    HW134304  14.505   2.090   8.960
77469SOL    HW234305  14.596   2.202   8.914
77470SOL     OW34306  10.707  11.026   4.512
77470SOL    HW134307  10.660  11.071   4.582
77470SOL    HW234308  10.648  10.955   4.486
77471SOL     OW34309   3.385   8.797   5.045
77471SOL    HW134310   3.354   8.725   4.991
77471SOL    HW234311   3.312   8.818   5.103
77472SOL     OW34312   7.120   9.299   4.188
77472SOL    HW134313   7.143   9.292   4.095
77472SOL    HW234314   7.192   9.256   4.234
77473SOL     OW34315   6.127   1.563   0.374
77473SOL    HW134316   6.173   1.500   0.429
77473SOL    HW234317   6.034   1.542   0.385
77474SOL     OW34318   8.525  11.911   7.347
77474SOL    HW134319   8.441  11.936   7.309
77474SOL    HW234320   8.574  11.874   7.273
77475SOL     OW34321   2.379   8.850  12.156
77475SOL    HW134322   2.385   8.869  12.250
77475SOL    HW234323   2.430   8.920  12.115
77476SOL     OW34324  14.485   7.325   0.311
77476SOL    HW134325  14.487   7.410   0.267
77476SOL    HW234326  14.428   7.339   0.387
77477SOL     OW34327   5.336  11.267   1.473
77477SOL    HW134328   5.357  11.354   1.439
77477SOL    HW234329   5.349  11.209   1.398
77478SOL     OW34330   7.905  12.915   9.512
77478SOL    HW134331   7.991  12.881   9.538
77478SOL    HW234332   7.900  12.897   9.418
77479SOL     OW34333   4.008  13.338   6.854
77479SOL    HW134334   4.073  13.268   6.860
77479SOL    HW234335   3.989  13.362   6.944
77480SOL     OW34336   3.299  11.796   3.787
77480SOL    HW134337   3.253  11.876   3.813
77480SOL    HW234338   3.262  11.727   3.842
77481SOL     OW34339   6.146   8.748  10.968
77481SOL    HW134340   6.190   8.665  10.948
77481SOL    HW234341   6.138   8.791  10.883
77482SOL     OW34342   0.749   1.647   4.472
77482SOL    HW134343   0.725   1.557   4.492
77482SOL    HW234344   0.746   1.692   4.556
77483SOL     OW34345   0.590   1.687   8.356
77483SOL    HW134346   0.532   1.622   8.396
77483SOL    HW234347   0.630   1.733   8.430
77484SOL     OW34348   7.832  12.751   1.342
77484SOL    HW134349   7.745  12.757   1.382
77484SOL    HW234350   7.860  12.661   1.359
77485SOL     OW34351   2.719   5.162  11.870
77485SOL    HW134352   2.801   5.181  11.915
77485SOL    HW234353   2.697   5.244  11.825
77486SOL     OW34354  12.860  13.963  12.635
77486SOL    HW134355  12.912  13.928  12.708
77486SOL    HW234356  12.873  14.058  12.641
77487SOL     OW34357   7.147  13.851   1.783
77487SOL    HW134358   7.160  13.795   1.707
77487SOL    HW234359   7.234  13.882   1.806
77488SOL     OW34360  11.999   2.750  10.647
77488SOL    HW134361  12.034   2.805  10.716
77488SOL    HW234362  12.019   2.797  10.566
77489SOL     OW34363   5.573  14.324  11.970
77489SOL    HW134364   5.555  14.399  11.913
77489SOL    HW234365   5.487  14.294  11.999
77490SOL     OW34366   8.819   6.972   4.566
77490SOL    HW134367   8.737   6.960   4.613
77490SOL    HW234368   8.796   6.965   4.474
77491SOL     OW34369   7.790  11.242  13.824
77491SOL    HW134370   7.753  11.252  13.736
77491SOL    HW234371   7.880  11.214  13.809
77492SOL     OW34372  10.479  12.270  12.486
77492SOL    HW134373  10.480  12.247  12.579
77492SOL    HW234374  10.450  12.361  12.484
77493SOL     OW34375   4.851   4.689   5.277
77493SOL    HW134376   4.940   4.723   5.284
77493SOL    HW234377   4.832   4.653   5.364
77494SOL     OW34378   2.536  13.623   5.383
77494SOL    HW134379   2.549  13.548   5.440
77494SOL    HW234380   2.607  13.617   5.319
77495SOL     OW34381   8.030  14.060   4.347
77495SOL    HW134382   8.004  13.992   4.409
77495SOL    HW234383   8.050  14.013   4.267
77496SOL     OW34384   8.251  13.934  13.990
77496SOL    HW134385   8.319  13.992  13.954
77496SOL    HW234386   8.260  13.943  14.085
77497SOL     OW34387  11.658   2.986   8.662
77497SOL    HW134388  11.567   2.955   8.660
77497SOL    HW234389  11.700   2.940   8.589
77498SOL     OW34390   2.402  11.340   1.263
77498SOL    HW134391   2.410  11.247   1.287
77498SOL    HW234392   2.437  11.344   1.174
77499SOL     OW34393   9.355  11.920   7.738
77499SOL    HW134394   9.280  11.887   7.788
77499SOL    HW234395   9.319  11.990   7.684
77500SOL     OW34396  14.824   3.083   7.557
77500SOL    HW134397  14.760   3.108   7.624
77500SOL    HW234398   0.036   3.091   7.601
77501SOL     OW34399  12.679  13.591   3.859
77501SOL    HW134400  12.710  13.508   3.825
77501SOL    HW234401  12.584  13.588   3.847
77502SOL     OW34402   7.614   0.917  11.736
77502SOL    HW134403   7.703   0.914  11.772
77502SOL    HW234404   7.626   0.918  11.641
77503SOL     OW34405   0.219  10.441   1.828
77503SOL    HW134406   0.288  10.504   1.847
77503SOL    HW234407   0.233  10.370   1.891
77504SOL     OW34408   0.859   5.392   7.892
77504SOL    HW134409   0.948   5.358   7.907
77504SOL    HW234410   0.855   5.470   7.947
77505SOL     OW34411  11.415   0.472   3.446
77505SOL    HW134412  11.444   0.463   3.537
77505SOL    HW234413  11.420   0.383   3.410
77506SOL     OW34414   9.097   0.025   5.251
77506SOL    HW134415   9.110   0.032   5.156
77506SOL    HW234416   9.185   0.035   5.288
77507SOL     OW34417   7.335  12.270   5.897
77507SOL    HW134418   7.402  12.205   5.918
77507SOL    HW234419   7.265  12.252   5.960
77508SOL     OW34420  11.247  10.843   0.635
77508SOL    HW134421  11.178  10.834   0.700
77508SOL    HW234422  11.305  10.911   0.669
77509SOL     OW34423  13.927  13.349   0.093
77509SOL    HW134424  13.888  13.269   0.058
77509SOL    HW234425  13.853  13.409   0.105
77510SOL     OW34426   7.576  12.718   1.472
77510SOL    HW134427   7.539  12.639   1.432
77510SOL    HW234428   7.601  12.690   1.560
77511SOL     OW34429  13.888  11.055   8.505
77511SOL    HW134430  13.907  11.148   8.493
77511SOL    HW234431  13.839  11.030   8.427
77512SOL     OW34432   5.000  10.160   9.181
77512SOL    HW134433   5.008  10.255   9.181
77512SOL    HW234434   5.086  10.129   9.210
77513SOL     OW34435   4.541   8.629   1.217
77513SOL    HW134436   4.597   8.696   1.258
77513SOL    HW234437   4.518   8.570   1.289
77514SOL     OW34438  10.147  13.330  10.846
77514SOL    HW134439  10.142  13.283  10.763
77514SOL    HW234440  10.192  13.412  10.825
77515SOL     OW34441  11.664   7.080  10.491
77515SOL    HW134442  11.570   7.096  10.482
77515SOL    HW234443  11.670   7.001  10.545
77516SOL     OW34444   7.097  11.753   7.748
77516SOL    HW134445   7.038  11.825   7.770
77516SOL    HW234446   7.039  11.681   7.722
77517SOL     OW34447   4.451  11.589  12.212
77517SOL    HW134448   4.395  11.524  12.169
77517SOL    HW234449   4.512  11.537  12.264
77518SOL     OW34450   9.195   3.465   6.104
77518SOL    HW134451   9.251   3.413   6.161
77518SOL    HW234452   9.223   3.555   6.118
77519SOL     OW34453   4.899  14.577   3.358
77519SOL    HW134454   4.845  14.573   3.436
77519SOL    HW234455   4.924  14.485   3.342
77520SOL     OW34456   5.858   5.294   1.127
77520SOL    HW134457   5.762   5.288   1.126
77520SOL    HW234458   5.887   5.203   1.133
77521SOL     OW34459   8.742  10.313   2.366
77521SOL    HW134460   8.750  10.257   2.289
77521SOL    HW234461   8.777  10.260   2.438
77522SOL     OW34462   5.287  10.245   3.549
77522SOL    HW134463   5.260  10.154   3.559
77522SOL    HW234464   5.302  10.255   3.455
77523SOL     OW34465   3.523  10.396   3.093
77523SOL    HW134466   3.568  10.476   3.066
77523SOL    HW234467   3.592  10.330   3.100
77524SOL     OW34468   4.655  13.850   8.869
77524SOL    HW134469   4.697  13.893   8.794
77524SOL    HW234470   4.662  13.757   8.850
77525SOL     OW34471  13.914  13.577   4.804
77525SOL    HW134472  13.946  13.646   4.862
77525SOL    HW234473  13.935  13.609   4.716
77526SOL     OW34474  12.570   3.230  13.386
77526SOL    HW134475  12.660   3.232  13.353
77526SOL    HW234476  12.577   3.187  13.471
77527SOL     OW34477  12.542  12.341   9.136
77527SOL    HW134478  12.538  12.367   9.044
77527SOL    HW234479  12.635  12.329   9.153
77528SOL     OW34480   9.637   5.684   9.865
77528SOL    HW134481   9.732   5.676   9.868
77528SOL    HW234482   9.605   5.613   9.922
77529SOL     OW34483  12.349   8.529   1.987
77529SOL    HW134484  12.334   8.464   1.918
77529SOL    HW234485  12.366   8.610   1.940
77530SOL     OW34486   8.987   1.855  12.701
77530SOL    HW134487   8.981   1.807  12.618
77530SOL    HW234488   8.942   1.938  12.684
77531SOL     OW34489   2.105   1.108   6.887
77531SOL    HW134490   2.144   1.105   6.799
77531SOL    HW234491   2.038   1.040   6.885
77532SOL     OW34492   4.749   6.089  11.696
77532SOL    HW134493   4.781   6.070  11.784
77532SOL    HW234494   4.712   6.177  11.702
77533SOL     OW34495   7.434   5.347   8.612
77533SOL    HW134496   7.497   5.416   8.591
77533SOL    HW234497   7.364   5.391   8.659
77534SOL     OW34498  11.551  12.119   7.383
77534SOL    HW134499  11.598  12.038   7.367
77534SOL    HW234500  11.468  12.092   7.422
77535SOL     OW34501   6.029  10.101   4.024
77535SOL    HW134502   6.023  10.114   3.929
77535SOL    HW234503   6.008  10.187   4.060
77536SOL     OW34504   0.834   8.024   1.958
77536SOL    HW134505   0.756   8.030   1.902
77536SOL    HW234506   0.872   7.939   1.937
77537SOL     OW34507  10.384   4.013   7.128
77537SOL    HW134508  10.373   3.930   7.081
77537SOL    HW234509  10.324   4.073   7.084
77538SOL     OW34510   8.318   1.179   6.674
77538SOL    HW134511   8.263   1.245   6.633
77538SOL    HW234512   8.277   1.163   6.759
77539SOL     OW34513  13.452   5.890  14.678
77539SOL    HW134514  13.409   5.842  14.749
77539SOL    HW234515  13.512   5.826  14.639
77540SOL     OW34516   4.043   1.845   7.325
77540SOL    HW134517   4.069   1.932   7.297
77540SOL    HW234518   4.043   1.792   7.245
77541SOL     OW34519   7.576  10.503  14.813
77541SOL    HW134520   7.639  10.430  14.814
77541SOL    HW234521   7.502  10.471  14.864
77542SOL     OW34522   1.216   4.944  12.611
77542SOL    HW134523   1.295   4.995  12.594
77542SOL    HW234524   1.171   4.991  12.681
77543SOL     OW34525   6.536  14.753   7.671
77543SOL    HW134526   6.497  14.755   7.759
77543SOL    HW234527   6.479  14.810   7.619
77544SOL     OW34528   4.983   1.807  10.672
77544SOL    HW134529   5.059   1.769  10.628
77544SOL    HW234530   5.019   1.880  10.722
77545SOL     OW34531  12.833   8.825   0.575
77545SOL    HW134532  12.780   8.853   0.501
77545SOL    HW234533  12.825   8.730   0.576
77546SOL     OW34534  10.463   4.681   5.505
77546SOL    HW134535  10.430   4.643   5.423
77546SOL    HW234536  10.522   4.614   5.540
77547SOL     OW34537   1.860  14.451  12.191
77547SOL    HW134538   1.904  14.411  12.117
77547SOL    HW234539   1.819  14.530  12.155
77548SOL     OW34540   2.239   1.563   0.428
77548SOL    HW134541   2.322   1.515   0.426
77548SOL    HW234542   2.248   1.629   0.360
77549SOL     OW34543  11.462  11.302   0.788
77549SOL    HW134544  11.451  11.246   0.711
77549SOL    HW234545  11.547  11.277   0.824
77550SOL     OW34546   1.835   2.151   4.396
77550SOL    HW134547   1.797   2.234   4.368
77550SOL    HW234548   1.877   2.116   4.318
77551SOL     OW34549   1.820   8.848   0.280
77551SOL    HW134550   1.745   8.789   0.278
77551SOL    HW234551   1.802   8.905   0.355
77552SOL     OW34552   0.061  10.613   5.774
77552SOL    HW134553   0.138  10.591   5.722
77552SOL    HW234554   0.019  10.529   5.792
77553SOL     OW34555   6.055   0.274   5.879
77553SOL    HW134556   6.120   0.340   5.901
77553SOL    HW234557   6.105   0.206   5.833
77554SOL     OW34558   8.247   7.717   7.849
77554SOL    HW134559   8.179   7.678   7.904
77554SOL    HW234560   8.242   7.810   7.867
77555SOL     OW34561   4.274   3.525   8.824
77555SOL    HW134562   4.192   3.546   8.779
77555SOL    HW234563   4.276   3.429   8.826
77556SOL     OW34564  12.425   0.425  11.055
77556SOL    HW134565  12.395   0.488  11.120
77556SOL    HW234566  12.466   0.479  10.987
77557SOL     OW34567   3.953   3.342  10.530
77557SOL    HW134568   4.043   3.332  10.562
77557SOL    HW234569   3.955   3.424  10.481
77558SOL     OW34570   4.993  11.305   2.875
77558SOL    HW134571   4.929  11.290   2.945
77558SOL    HW234572   5.075  11.323   2.921
77559SOL     OW34573  11.268   8.429   7.213
77559SOL    HW134574  11.335   8.470   7.159
77559SOL    HW234575  11.188   8.435   7.161
77560SOL     OW34576   6.982   6.440   0.210
77560SOL    HW134577   7.071   6.454   0.177
77560SOL    HW234578   6.980   6.485   0.294
77561SOL     OW34579  14.480  13.274  13.074
77561SOL    HW134580  14.456  13.361  13.041
77561SOL    HW234581  14.524  13.290  13.157
77562SOL     OW34582   3.661  14.701   4.328
77562SOL    HW134583   3.601  14.772   4.349
77562SOL    HW234584   3.630  14.627   4.381
77563SOL     OW34585   9.428   7.646   5.678
77563SOL    HW134586   9.467   7.710   5.738
77563SOL    HW234587   9.337   7.673   5.669
77564SOL     OW34588   2.323   9.120   1.868
77564SOL    HW134589   2.234   9.086   1.873
77564SOL    HW234590   2.351   9.102   1.779
77565SOL     OW34591  10.610   3.363  10.736
77565SOL    HW134592  10.599   3.445  10.687
77565SOL    HW234593  10.684   3.380  10.795
77566SOL     OW34594   0.606   5.218   7.072
77566SOL    HW134595   0.691   5.190   7.039
77566SOL    HW234596   0.626   5.290   7.132
77567SOL     OW34597   2.226   7.493   2.393
77567SOL    HW134598   2.234   7.561   2.460
77567SOL    HW234599   2.206   7.413   2.443
77568SOL     OW34600   6.149   6.513  14.695
77568SOL    HW134601   6.158   6.424  14.729
77568SOL    HW234602   6.055   6.524  14.680
77569SOL     OW34603   6.473  11.444  10.105
77569SOL    HW134604   6.532  11.425  10.032
77569SOL    HW234605   6.389  11.465  10.064
77570SOL     OW34606  12.530   4.806   0.680
77570SOL    HW134607  12.503   4.894   0.705
77570SOL    HW234608  12.624   4.814   0.659
77571SOL     OW34609  10.483   6.016   3.025
77571SOL    HW134610  10.411   6.045   2.968
77571SOL    HW234611  10.464   5.924   3.043
77572SOL     OW34612   7.621   5.264  10.118
77572SOL    HW134613   7.644   5.346  10.074
77572SOL    HW234614   7.630   5.197  10.050
77573SOL     OW34615   1.834   5.088  13.239
77573SOL    HW134616   1.777   5.025  13.282
77573SOL    HW234617   1.826   5.068  13.145
77574SOL     OW34618  13.458   9.535   4.910
77574SOL    HW134619  13.410   9.608   4.872
77574SOL    HW234620  13.415   9.457   4.874
77575SOL     OW34621   6.741   9.679   4.046
77575SOL    HW134622   6.654   9.642   4.033
77575SOL    HW234623   6.799   9.623   3.995
77576SOL     OW34624   7.270  13.730  11.621
77576SOL    HW134625   7.225  13.782  11.555
77576SOL    HW234626   7.231  13.643  11.614
77577SOL     OW34627   3.383   6.485   2.366
77577SOL    HW134628   3.440   6.418   2.329
77577SOL    HW234629   3.376   6.551   2.298
77578SOL     OW34630  12.527  13.041   3.068
77578SOL    HW134631  12.568  12.957   3.046
77578SOL    HW234632  12.592  13.106   3.041
77579SOL     OW34633   9.663   2.348   0.954
77579SOL    HW134634   9.728   2.292   0.996
77579SOL    HW234635   9.706   2.432   0.944
77580SOL     OW34636  12.149   7.789  10.097
77580SOL    HW134637  12.215   7.730  10.134
77580SOL    HW234638  12.066   7.743  10.108
77581SOL     OW34639  13.818   1.341  13.575
77581SOL    HW134640  13.906   1.341  13.537
77581SOL    HW234641  13.795   1.249  13.583
77582SOL     OW34642  10.030   0.787   2.855
77582SOL    HW134643   9.998   0.784   2.764
77582SOL    HW234644   9.958   0.827   2.904
77583SOL     OW34645   6.963   2.953   7.751
77583SOL    HW134646   6.930   2.882   7.694
77583SOL    HW234647   7.023   3.002   7.695
77584SOL     OW34648  13.944   8.892   5.092
77584SOL    HW134649  13.893   8.969   5.116
77584SOL    HW234650  13.901   8.858   5.013
77585SOL     OW34651  14.770   4.689   7.648
77585SOL    HW134652  14.815   4.614   7.686
77585SOL    HW234653  14.830   4.723   7.582
77586SOL     OW34654  10.961   2.810   1.547
77586SOL    HW134655  10.959   2.847   1.635
77586SOL    HW234656  11.046   2.838   1.512
77587SOL     OW34657  14.721   3.956   4.558
77587SOL    HW134658  14.743   3.909   4.477
77587SOL    HW234659  14.806   3.981   4.595
77588SOL     OW34660   5.009   7.519   8.890
77588SOL    HW134661   5.036   7.446   8.946
77588SOL    HW234662   5.053   7.595   8.929
77589SOL     OW34663  12.842   0.179   1.309
77589SOL    HW134664  12.827   0.115   1.239
77589SOL    HW234665  12.764   0.173   1.364
77590SOL     OW34666   3.560   4.322   7.407
77590SOL    HW134667   3.518   4.268   7.474
77590SOL    HW234668   3.531   4.284   7.324
77591SOL     OW34669   5.028  11.638  11.776
77591SOL    HW134670   5.012  11.577  11.847
77591SOL    HW234671   4.988  11.597  11.699
77592SOL     OW34672   8.549  11.427  13.702
77592SOL    HW134673   8.506  11.408  13.619
77592SOL    HW234674   8.508  11.368  13.765
77593SOL     OW34675  12.765  10.162  13.609
77593SOL    HW134676  12.723  10.196  13.531
77593SOL    HW234677  12.708  10.091  13.639
77594SOL     OW34678  11.194  10.445   5.937
77594SOL    HW134679  11.205  10.353   5.962
77594SOL    HW234680  11.115  10.445   5.883
77595SOL     OW34681   5.208  12.867  11.933
77595SOL    HW134682   5.281  12.834  11.985
77595SOL    HW234683   5.239  12.950  11.898
77596SOL     OW34684   8.271  10.763   6.170
77596SOL    HW134685   8.210  10.834   6.153
77596SOL    HW234686   8.270  10.710   6.090
77597SOL     OW34687   5.834   0.422   0.475
77597SOL    HW134688   5.842   0.454   0.565
77597SOL    HW234689   5.924   0.418   0.442
77598SOL     OW34690   2.418  14.119   1.435
77598SOL    HW134691   2.339  14.065   1.446
77598SOL    HW234692   2.437  14.151   1.523
77599SOL     OW34693   3.192  14.395   0.731
77599SOL    HW134694   3.240  14.397   0.648
77599SOL    HW234695   3.106  14.361   0.708
77600SOL     OW34696   0.089   6.828  12.724
77600SOL    HW134697   0.048   6.780  12.796
77600SOL    HW234698   0.139   6.762  12.676
77601SOL     OW34699  14.398   6.177  11.058
77601SOL    HW134700  14.431   6.213  10.976
77601SOL    HW234701  14.337   6.108  11.032
77602SOL     OW34702  13.954   0.332  11.135
77602SOL    HW134703  13.866   0.313  11.102
77602SOL    HW234704  14.002   0.367  11.060
77603SOL     OW34705  12.758  13.853   3.822
77603SOL    HW134706  12.720  13.765   3.816
77603SOL    HW234707  12.851  13.840   3.800
77604SOL     OW34708  13.502   2.006   0.200
77604SOL    HW134709  13.554   2.062   0.143
77604SOL    HW234710  13.450   1.953   0.141
77605SOL     OW34711   9.339   5.723  12.601
77605SOL    HW134712   9.411   5.700  12.542
77605SOL    HW234713   9.307   5.639  12.634
77606SOL     OW34714   2.892   7.565   4.460
77606SOL    HW134715   2.841   7.531   4.534
77606SOL    HW234716   2.853   7.651   4.442
77607SOL     OW34717   2.168   2.444  10.295
77607SOL    HW134718   2.086   2.483  10.325
77607SOL    HW234719   2.187   2.489  10.213
77608SOL     OW34720   9.643   3.529   3.800
77608SOL    HW134721   9.725   3.513   3.846
77608SOL    HW234722   9.607   3.441   3.785
77609SOL     OW34723  11.026   9.055   7.061
77609SOL    HW134724  10.980   9.058   6.977
77609SOL    HW234725  11.051   8.963   7.072
77610SOL     OW34726   2.633  11.943  13.429
77610SOL    HW134727   2.607  11.881  13.361
77610SOL    HW234728   2.718  11.976  13.400
77611SOL     OW34729  14.836  10.470   0.542
77611SOL    HW134730  14.844  10.376   0.558
77611SOL    HW234731  14.846  10.510   0.628
77612SOL     OW34732   3.800   0.348  10.449
77612SOL    HW134733   3.737   0.297  10.500
77612SOL    HW234734   3.780   0.439  10.470
77613SOL     OW34735   5.994  10.503   8.293
77613SOL    HW134736   5.975  10.511   8.200
77613SOL    HW234737   6.076  10.550   8.305
77614SOL     OW34738  13.358  14.012   3.537
77614SOL    HW134739  13.360  14.049   3.625
77614SOL    HW234740  13.363  13.917   3.550
77615SOL     OW34741   4.209   8.976   6.437
77615SOL    HW134742   4.143   9.027   6.390
77615SOL    HW234743   4.159   8.912   6.487
77616SOL     OW34744  13.167   0.967   7.807
77616SOL    HW134745  13.212   0.895   7.764
77616SOL    HW234746  13.158   0.938   7.898
77617SOL     OW34747   3.427  14.210  13.099
77617SOL    HW134748   3.429  14.305  13.110
77617SOL    HW234749   3.334  14.187  13.096
77618SOL     OW34750   4.960   9.169   9.114
77618SOL    HW134751   4.943   9.169   9.020
77618SOL    HW234752   4.953   9.261   9.139
77619SOL     OW34753  14.623   1.355   3.602
77619SOL    HW134754  14.613   1.365   3.696
77619SOL    HW234755  14.710   1.318   3.590
77620SOL     OW34756   6.501   1.265   9.422
77620SOL    HW134757   6.411   1.269   9.453
77620SOL    HW234758   6.504   1.188   9.364
77621SOL     OW34759   6.157  14.491   0.702
77621SOL    HW134760   6.094  14.535   0.645
77621SOL    HW234761   6.239  14.538   0.688
77622SOL     OW34762   0.675   4.709  11.126
77622SOL    HW134763   0.609   4.665  11.179
77622SOL    HW234764   0.726   4.639  11.086
77623SOL     OW34765   6.867   8.803   7.622
77623SOL    HW134766   6.894   8.738   7.687
77623SOL    HW234767   6.774   8.784   7.607
77624SOL     OW34768  14.671  11.876   0.202
77624SOL    HW134769  14.722  11.952   0.233
77624SOL    HW234770  14.694  11.868   0.110
77625SOL     OW34771   7.134   4.118   6.095
77625SOL    HW134772   7.144   4.031   6.133
77625SOL    HW234773   7.223   4.153   6.088
77626SOL     OW34774   6.342   6.801  10.810
77626SOL    HW134775   6.323   6.895  10.810
77626SOL    HW234776   6.258   6.760  10.786
77627SOL     OW34777   5.643   6.122  11.132
77627SOL    HW134778   5.636   6.143  11.039
77627SOL    HW234779   5.683   6.200  11.171
77628SOL     OW34780   8.961   6.490   2.295
77628SOL    HW134781   8.887   6.496   2.236
77628SOL    HW234782   8.978   6.581   2.322
77629SOL     OW34783   3.008  13.768   8.461
77629SOL    HW134784   3.093  13.748   8.501
77629SOL    HW234785   2.995  13.861   8.478
77630SOL     OW34786   6.383   2.156   0.731
77630SOL    HW134787   6.386   2.133   0.824
77630SOL    HW234788   6.471   2.136   0.699
77631SOL     OW34789  10.232   7.678   1.847
77631SOL    HW134790  10.320   7.644   1.864
77631SOL    HW234791  10.248   7.760   1.800
77632SOL     OW34792  11.670   4.560   4.376
77632SOL    HW134793  11.583   4.521   4.368
77632SOL    HW234794  11.654   4.653   4.392
77633SOL     OW34795   1.813   5.514  10.866
77633SOL    HW134796   1.719   5.510  10.846
77633SOL    HW234797   1.830   5.435  10.917
77634SOL     OW34798   9.574   2.944   2.238
77634SOL    HW134799   9.567   3.037   2.258
77634SOL    HW234800   9.504   2.928   2.175
77635SOL     OW34801   9.436   4.861  11.631
77635SOL    HW134802   9.507   4.819  11.681
77635SOL    HW234803   9.380   4.899  11.699
77636SOL     OW34804   0.699   1.985   1.259
77636SOL    HW134805   0.708   1.898   1.297
77636SOL    HW234806   0.649   2.034   1.324
77637SOL     OW34807   9.958   0.078   9.157
77637SOL    HW134808   9.970  14.857   9.176
77637SOL    HW234809  10.047   0.113   9.150
77638SOL     OW34810   7.062  11.109   6.621
77638SOL    HW134811   7.036  11.129   6.711
77638SOL    HW234812   7.154  11.133   6.616
77639SOL     OW34813   9.195  11.293   3.441
77639SOL    HW134814   9.105  11.279   3.412
77639SOL    HW234815   9.215  11.383   3.419
77640SOL     OW34816  12.681   1.320   6.646
77640SOL    HW134817  12.716   1.279   6.725
77640SOL    HW234818  12.756   1.361   6.603
77641SOL     OW34819   3.314   5.381   6.147
77641SOL    HW134820   3.238   5.437   6.134
77641SOL    HW234821   3.388   5.442   6.149
77642SOL     OW34822   1.451   4.698   9.566
77642SOL    HW134823   1.524   4.756   9.543
77642SOL    HW234824   1.397   4.696   9.488
77643SOL     OW34825   1.098   8.216   2.650
77643SOL    HW134826   1.111   8.229   2.556
77643SOL    HW234827   1.075   8.123   2.658
77644SOL     OW34828  10.732   1.134   6.105
77644SOL    HW134829  10.654   1.090   6.137
77644SOL    HW234830  10.789   1.062   6.075
77645SOL     OW34831  11.752   5.445   5.904
77645SOL    HW134832  11.697   5.372   5.873
77645SOL    HW234833  11.794   5.411   5.983
77646SOL     OW34834   7.224  10.007   6.811
77646SOL    HW134835   7.164  10.076   6.782
77646SOL    HW234836   7.278  10.048   6.879
77647SOL     OW34837   2.675   7.411  13.035
77647SOL    HW134838   2.707   7.410  13.125
77647SOL    HW234839   2.708   7.493  12.999
77648SOL     OW34840   4.533  11.860   8.588
77648SOL    HW134841   4.590  11.884   8.515
77648SOL    HW234842   4.551  11.925   8.655
77649SOL     OW34843   1.046  11.032  13.777
77649SOL    HW134844   1.140  11.024  13.791
77649SOL    HW234845   1.015  10.942  13.764
77650SOL     OW34846   8.937   8.777   9.334
77650SOL    HW134847   8.860   8.819   9.372
77650SOL    HW234848   8.973   8.843   9.275
77651SOL     OW34849   1.559   3.877   9.674
77651SOL    HW134850   1.648   3.864   9.706
77651SOL    HW234851   1.561   3.849   9.582
77652SOL     OW34852   3.926  14.345   4.499
77652SOL    HW134853   3.934  14.433   4.462
77652SOL    HW234854   4.017  14.315   4.508
77653SOL     OW34855   5.389   5.824  10.945
77653SOL    HW134856   5.369   5.737  10.979
77653SOL    HW234857   5.306   5.857  10.911
77654SOL     OW34858  11.484   7.655  11.236
77654SOL    HW134859  11.542   7.667  11.160
77654SOL    HW234860  11.517   7.715  11.302
77655SOL     OW34861   4.122   3.947   4.080
77655SOL    HW134862   4.059   3.964   4.150
77655SOL    HW234863   4.142   3.854   4.088
77656SOL     OW34864  12.372   4.931   7.365
77656SOL    HW134865  12.353   4.838   7.369
77656SOL    HW234866  12.400   4.955   7.453
77657SOL     OW34867  14.615   8.223   0.056
77657SOL    HW134868  14.675   8.222   0.131
77657SOL    HW234869  14.545   8.163   0.081
77658SOL     OW34870   1.029  10.959   3.121
77658SOL    HW134871   1.032  10.942   3.027
77658SOL    HW234872   1.110  10.922   3.155
77659SOL     OW34873  10.085   6.777   1.586
77659SOL    HW134874  10.016   6.737   1.533
77659SOL    HW234875  10.157   6.714   1.583
77660SOL     OW34876  12.856   6.546   6.086
77660SOL    HW134877  12.783   6.606   6.101
77660SOL    HW234878  12.865   6.542   5.991
77661SOL     OW34879   4.388   1.158  10.845
77661SOL    HW134880   4.364   1.074  10.806
77661SOL    HW234881   4.391   1.218  10.771
77662SOL     OW34882  13.739  13.854  14.281
77662SOL    HW134883  13.830  13.866  14.254
77662SOL    HW234884  13.744  13.842  14.376
77663SOL     OW34885   6.513  10.657   5.253
77663SOL    HW134886   6.430  10.625   5.217
77663SOL    HW234887   6.517  10.618   5.341
77664SOL     OW34888   8.621   5.927   1.218
77664SOL    HW134889   8.646   5.900   1.307
77664SOL    HW234890   8.704   5.932   1.170
77665SOL     OW34891   3.643   6.219  10.542
77665SOL    HW134892   3.700   6.273  10.487
77665SOL    HW234893   3.554   6.241  10.514
77666SOL     OW34894  13.399   3.280  14.840
77666SOL    HW134895  13.469   3.291   0.032
77666SOL    HW234896  13.382   3.369  14.808
77667SOL     OW34897   6.647   8.412   8.398
77667SOL    HW134898   6.653   8.330   8.349
77667SOL    HW234899   6.734   8.452   8.387
77668SOL     OW34900  10.521  12.588   3.196
77668SOL    HW134901  10.442  12.541   3.168
77668SOL    HW234902  10.535  12.654   3.128
77669SOL     OW34903   9.670  13.977   8.297
77669SOL    HW134904   9.712  13.910   8.352
77669SOL    HW234905   9.577  13.969   8.317
77670SOL     OW34906  12.402  12.820   8.487
77670SOL    HW134907  12.422  12.910   8.515
77670SOL    HW234908  12.446  12.811   8.403
77671SOL     OW34909  14.125   9.580  12.429
77671SOL    HW134910  14.173   9.651  12.473
77671SOL    HW234911  14.123   9.606  12.337
77672SOL     OW34912   9.723  10.700   7.907
77672SOL    HW134913   9.650  10.744   7.951
77672SOL    HW234914   9.684  10.660   7.829
77673SOL     OW34915   7.107  10.617  10.466
77673SOL    HW134916   7.200  10.636  10.451
77673SOL    HW234917   7.106  10.530  10.504
77674SOL     OW34918   9.024   8.390   1.243
77674SOL    HW134919   9.049   8.427   1.158
77674SOL    HW234920   8.934   8.361   1.230
77675SOL     OW34921  11.512   3.886   6.852
77675SOL    HW134922  11.604   3.864   6.867
77675SOL    HW234923  11.469   3.871   6.936
77676SOL     OW34924  12.983   6.288   5.298
77676SOL    HW134925  12.912   6.327   5.347
77676SOL    HW234926  13.004   6.353   5.231
77677SOL     OW34927   3.124   5.626   6.957
77677SOL    HW134928   3.118   5.720   6.940
77677SOL    HW234929   3.145   5.620   7.051
77678SOL     OW34930   9.407  10.515   9.530
77678SOL    HW134931   9.314  10.491   9.534
77678SOL    HW234932   9.412  10.579   9.460
77679SOL     OW34933   4.380   2.860  10.442
77679SOL    HW134934   4.390   2.954  10.433
77679SOL    HW234935   4.470   2.827  10.451
77680SOL     OW34936   7.093  11.610   3.486
77680SOL    HW134937   7.028  11.680   3.497
77680SOL    HW234938   7.056  11.554   3.417
77681SOL     OW34939   6.902   8.332  14.022
77681SOL    HW134940   6.994   8.356  14.029
77681SOL    HW234941   6.891   8.260  14.084
77682SOL     OW34942  10.864   1.093   9.302
77682SOL    HW134943  10.860   1.144   9.382
77682SOL    HW234944  10.839   1.155   9.233
77683SOL     OW34945   2.026  14.642   4.988
77683SOL    HW134946   1.949  14.646   5.045
77683SOL    HW234947   2.026  14.726   4.941
77684SOL     OW34948  11.117   9.357   9.154
77684SOL    HW134949  11.191   9.301   9.177
77684SOL    HW234950  11.128   9.375   9.061
77685SOL     OW34951  13.696   8.659   6.089
77685SOL    HW134952  13.655   8.675   6.004
77685SOL    HW234953  13.784   8.695   6.081
77686SOL     OW34954   1.519   1.405   3.121
77686SOL    HW134955   1.534   1.461   3.197
77686SOL    HW234956   1.484   1.324   3.157
77687SOL     OW34957  13.996   7.215  13.733
77687SOL    HW134958  14.076   7.266  13.734
77687SOL    HW234959  14.025   7.124  13.725
77688SOL     OW34960   5.416   7.550   2.639
77688SOL    HW134961   5.489   7.517   2.691
77688SOL    HW234962   5.345   7.562   2.702
77689SOL     OW34963  12.722   5.339   4.538
77689SOL    HW134964  12.672   5.398   4.595
77689SOL    HW234965  12.688   5.252   4.558
77690SOL     OW34966  12.191  13.378   1.447
77690SOL    HW134967  12.097  13.368   1.436
77690SOL    HW234968  12.206  13.473   1.444
77691SOL     OW34969  12.999  14.323   9.506
77691SOL    HW134970  13.073  14.293   9.559
77691SOL    HW234971  12.932  14.256   9.518
77692SOL     OW34972   9.866   9.440  11.814
77692SOL    HW134973   9.852   9.419  11.906
77692SOL    HW234974   9.957   9.416  11.797
77693SOL     OW34975  12.768   8.534   4.483
77693SOL    HW134976  12.682   8.542   4.443
77693SOL    HW234977  12.815   8.614   4.456
77694SOL     OW34978  11.896   7.091   8.889
77694SOL    HW134979  11.810   7.091   8.932
77694SOL    HW234980  11.944   7.021   8.932
77695SOL     OW34981   1.495   6.208   6.336
77695SOL    HW134982   1.517   6.246   6.420
77695SOL    HW234983   1.546   6.258   6.272
77696SOL     OW34984   4.569  14.110  14.273
77696SOL    HW134985   4.574  14.088  14.367
77696SOL    HW234986   4.475  14.111  14.254
77697SOL     OW34987   4.438  12.739   3.625
77697SOL    HW134988   4.345  12.758   3.639
77697SOL    HW234989   4.438  12.658   3.575
77698SOL     OW34990   9.523  12.403   0.543
77698SOL    HW134991   9.444  12.366   0.581
77698SOL    HW234992   9.506  12.497   0.539
77699SOL     OW34993   9.547  12.774  12.638
77699SOL    HW134994   9.476  12.814  12.588
77699SOL    HW234995   9.527  12.795  12.730
77700SOL     OW34996   8.656   2.229   7.063
77700SOL    HW134997   8.670   2.277   6.981
77700SOL    HW234998   8.608   2.150   7.036
77701SOL     OW34999   1.667  13.013   8.905
77701SOL    HW135000   1.587  13.031   8.855
77701SOL    HW235001   1.716  12.951   8.849
77702SOL     OW35002   2.200   1.682  13.697
77702SOL    HW135003   2.181   1.592  13.722
77702SOL    HW235004   2.117   1.729  13.708
77703SOL     OW35005   4.333   1.833  10.840
77703SOL    HW135006   4.261   1.863  10.784
77703SOL    HW235007   4.344   1.902  10.905
77704SOL     OW35008   2.401   9.959   8.507
77704SOL    HW135009   2.481   9.939   8.557
77704SOL    HW235010   2.384   9.880   8.456
77705SOL     OW35011   6.809   5.697  13.790
77705SOL    HW135012   6.794   5.741  13.873
77705SOL    HW235013   6.904   5.681  13.789
77706SOL     OW35014  10.120   7.754   4.957
77706SOL    HW135015  10.044   7.699   4.940
77706SOL    HW235016  10.156   7.771   4.870
77707SOL     OW35017  10.149   3.245   9.966
77707SOL    HW135018  10.135   3.264  10.059
77707SOL    HW235019  10.093   3.308   9.920
77708SOL     OW35020   4.450   2.653  14.748
77708SOL    HW135021   4.420   2.731  14.794
77708SOL    HW235022   4.395   2.648  14.670
77709SOL     OW35023   5.085  14.307   7.615
77709SOL    HW135024   5.155  14.271   7.669
77709SOL    HW235025   5.005  14.270   7.651
77710SOL     OW35026   0.813   0.014   7.531
77710SOL    HW135027   0.789   0.046   7.618
77710SOL    HW235028   0.897  14.843   7.544
77711SOL     OW35029   8.886   6.773   3.784
77711SOL    HW135030   8.800   6.806   3.812
77711SOL    HW235031   8.905   6.820   3.704
77712SOL     OW35032   9.720   9.122  10.194
77712SOL    HW135033   9.709   9.046  10.136
77712SOL    HW235034   9.742   9.194  10.135
77713SOL     OW35035   0.906   7.324  10.397
77713SOL    HW135036   0.987   7.370  10.376
77713SOL    HW235037   0.912   7.304  10.490
77714SOL     OW35038   5.490   1.988  14.394
77714SOL    HW135039   5.491   1.892  14.402
77714SOL    HW235040   5.565   2.008  14.338
77715SOL     OW35041   4.344   7.676  12.879
77715SOL    HW135042   4.403   7.751  12.886
77715SOL    HW235043   4.262   7.714  12.847
77716SOL     OW35044   6.023   8.622   9.806
77716SOL    HW135045   6.077   8.555   9.765
77716SOL    HW235046   6.067   8.640   9.889
77717SOL     OW35047   2.311   1.450  11.770
77717SOL    HW135048   2.402   1.451  11.739
77717SOL    HW235049   2.306   1.375  11.829
77718SOL     OW35050   3.003   4.640   3.130
77718SOL    HW135051   3.083   4.665   3.084
77718SOL    HW235052   2.971   4.721   3.169
77719SOL     OW35053   4.244  12.750   9.189
77719SOL    HW135054   4.251  12.844   9.204
77719SOL    HW235055   4.229  12.741   9.095
77720SOL     OW35056   4.188   3.507  11.262
77720SOL    HW135057   4.270   3.549  11.291
77720SOL    HW235058   4.184   3.524  11.168
77721SOL     OW35059  14.323  10.601   6.927
77721SOL    HW135060  14.294  10.518   6.965
77721SOL    HW235061  14.248  10.659   6.936
77722SOL     OW35062   5.919  13.244  10.746
77722SOL    HW135063   5.910  13.220  10.653
77722SOL    HW235064   5.927  13.340  10.745
77723SOL     OW35065   3.050   6.011   1.115
77723SOL    HW135066   3.039   5.920   1.088
77723SOL    HW235067   3.049   6.061   1.033
77724SOL     OW35068   0.578   4.215   8.201
77724SOL    HW135069   0.615   4.139   8.246
77724SOL    HW235070   0.568   4.187   8.110
77725SOL     OW35071   0.218   7.741   2.441
77725SOL    HW135072   0.240   7.831   2.464
77725SOL    HW235073   0.294   7.709   2.393
77726SOL     OW35074   3.090  13.512   6.203
77726SOL    HW135075   3.089  13.491   6.296
77726SOL    HW235076   3.179  13.543   6.186
77727SOL     OW35077   1.352   1.216   9.731
77727SOL    HW135078   1.389   1.266   9.658
77727SOL    HW235079   1.422   1.211   9.796
77728SOL     OW35080  10.014   7.037   9.623
77728SOL    HW135081  10.086   6.995   9.576
77728SOL    HW235082  10.057   7.101   9.680
77729SOL     OW35083   5.653   5.766   3.259
77729SOL    HW135084   5.694   5.752   3.173
77729SOL    HW235085   5.623   5.679   3.285
77730SOL     OW35086   7.940   5.802   0.484
77730SOL    HW135087   7.962   5.779   0.575
77730SOL    HW235088   8.024   5.820   0.443
77731SOL     OW35089   3.365  10.289   6.200
77731SOL    HW135090   3.353  10.310   6.292
77731SOL    HW235091   3.331  10.200   6.190
77732SOL     OW35092   9.283   6.305   9.538
77732SOL    HW135093   9.355   6.270   9.486
77732SOL    HW235094   9.322   6.329   9.622
77733SOL     OW35095   5.751   7.081   6.962
77733SOL    HW135096   5.744   7.011   7.026
77733SOL    HW235097   5.821   7.137   6.996
77734SOL     OW35098   7.326   8.643   2.140
77734SOL    HW135099   7.320   8.555   2.103
77734SOL    HW235100   7.251   8.690   2.103
77735SOL     OW35101   7.278   1.201   4.536
77735SOL    HW135102   7.192   1.242   4.526
77735SOL    HW235103   7.294   1.159   4.452
77736SOL     OW35104  14.534  12.908   0.143
77736SOL    HW135105  14.502  12.823   0.174
77736SOL    HW235106  14.457  12.965   0.148
77737SOL     OW35107  12.244   3.035  12.403
77737SOL    HW135108  12.289   3.067  12.326
77737SOL    HW235109  12.156   3.071  12.396
77738SOL     OW35110  12.627  11.963  12.802
77738SOL    HW135111  12.610  11.924  12.716
77738SOL    HW235112  12.654  11.890  12.857
77739SOL     OW35113   0.142  13.378  13.547
77739SOL    HW135114   0.228  13.418  13.534
77739SOL    HW235115   0.148  13.337  13.634
77740SOL     OW35116  14.310   2.518   8.104
77740SOL    HW135117  14.235   2.482   8.150
77740SOL    HW235118  14.280   2.530   8.014
77741SOL     OW35119   4.369   8.057   7.269
77741SOL    HW135120   4.459   8.061   7.236
77741SOL    HW235121   4.326   7.992   7.214
77742SOL     OW35122  13.955  14.484  10.965
77742SOL    HW135123  13.991  14.397  10.982
77742SOL    HW235124  13.871  14.485  11.012
77743SOL     OW35125  12.378   4.114   8.411
77743SOL    HW135126  12.349   4.032   8.370
77743SOL    HW235127  12.321   4.124   8.487
77744SOL     OW35128   9.227   5.897   8.194
77744SOL    HW135129   9.264   5.970   8.145
77744SOL    HW235130   9.135   5.894   8.166
77745SOL     OW35131   4.995   8.098   1.967
77745SOL    HW135132   5.041   8.174   1.933
77745SOL    HW235133   4.963   8.052   1.890
77746SOL     OW35134   5.285  12.497   4.923
77746SOL    HW135135   5.220  12.435   4.956
77746SOL    HW235136   5.302  12.555   4.998
77747SOL     OW35137   8.907   9.947   3.466
77747SOL    HW135138   8.944   9.887   3.532
77747SOL    HW235139   8.876  10.022   3.517
77748SOL     OW35140   9.419   0.219   2.649
77748SOL    HW135141   9.341   0.165   2.648
77748SOL    HW235142   9.486   0.165   2.691
77749SOL     OW35143  13.327   3.299   2.577
77749SOL    HW135144  13.402   3.291   2.519
77749SOL    HW235145  13.349   3.372   2.635
77750SOL     OW35146   3.549  11.659   3.037
77750SOL    HW135147   3.619  11.706   2.991
77750SOL    HW235148   3.580  11.568   3.041
77751SOL     OW35149  14.315  13.667   6.144
77751SOL    HW135150  14.249  13.718   6.096
77751SOL    HW235151  14.398  13.712   6.126
77752SOL     OW35152   6.669   3.472   8.973
77752SOL    HW135153   6.713   3.397   8.933
77752SOL    HW235154   6.696   3.471   9.064
77753SOL     OW35155  14.823   6.244  12.962
77753SOL    HW135156  14.810   6.292  12.880
77753SOL    HW235157  14.744   6.192  12.972
77754SOL     OW35158  14.128   0.041   2.182
77754SOL    HW135159  14.178  14.862   2.245
77754SOL    HW235160  14.089  14.848   2.124
77755SOL     OW35161   2.465   5.247   6.042
77755SOL    HW135162   2.412   5.184   5.993
77755SOL    HW235163   2.501   5.305   5.974
77756SOL     OW35164   8.829   2.463   4.495
77756SOL    HW135165   8.875   2.401   4.552
77756SOL    HW235166   8.846   2.430   4.407
77757SOL     OW35167  10.676  13.607   6.679
77757SOL    HW135168  10.707  13.684   6.631
77757SOL    HW235169  10.730  13.535   6.648
77758SOL     OW35170  13.474  13.946  11.013
77758SOL    HW135171  13.546  13.915  11.067
77758SOL    HW235172  13.516  14.000  10.946
77759SOL     OW35173   1.436   7.587   6.536
77759SOL    HW135174   1.489   7.642   6.593
77759SOL    HW235175   1.490   7.573   6.458
77760SOL     OW35176  12.826  14.601   1.623
77760SOL    HW135177  12.904  14.555   1.594
77760SOL    HW235178  12.817  14.576   1.715
77761SOL     OW35179   6.057  11.927   7.493
77761SOL    HW135180   6.086  11.851   7.443
77761SOL    HW235181   6.043  11.894   7.581
77762SOL     OW35182   0.846  14.724   2.060
77762SOL    HW135183   0.836  14.634   2.091
77762SOL    HW235184   0.772  14.770   2.099
77763SOL     OW35185   9.542   9.035   9.465
77763SOL    HW135186   9.564   9.100   9.532
77763SOL    HW235187   9.617   8.976   9.463
77764SOL     OW35188   0.334  11.000  12.940
77764SOL    HW135189   0.383  10.954  13.008
77764SOL    HW235190   0.391  10.997  12.863
77765SOL     OW35191   6.269  10.526   7.023
77765SOL    HW135192   6.308  10.474   6.952
77765SOL    HW235193   6.306  10.489   7.103
77766SOL     OW35194  11.442   3.502   4.029
77766SOL    HW135195  11.422   3.408   4.029
77766SOL    HW235196  11.443   3.527   4.121
77767SOL     OW35197   3.984   5.191  14.719
77767SOL    HW135198   3.893   5.200  14.691
77767SOL    HW235199   4.031   5.258  14.670
77768SOL     OW35200   7.447  14.136  13.045
77768SOL    HW135201   7.522  14.077  13.033
77768SOL    HW235202   7.377  14.079  13.077
77769SOL     OW35203  11.035   2.326   3.965
77769SOL    HW135204  11.099   2.315   3.894
77769SOL    HW235205  10.958   2.364   3.922
77770SOL     OW35206   4.991   2.581   9.757
77770SOL    HW135207   5.074   2.579   9.710
77770SOL    HW235208   4.950   2.497   9.737
77771SOL     OW35209   6.525   0.542   7.439
77771SOL    HW135210   6.618   0.553   7.459
77771SOL    HW235211   6.519   0.550   7.344
77772SOL     OW35212   1.260   1.929   6.402
77772SOL    HW135213   1.207   1.855   6.430
77772SOL    HW235214   1.254   1.993   6.474
77773SOL     OW35215   7.153   5.287   0.283
77773SOL    HW135216   7.074   5.329   0.248
77773SOL    HW235217   7.224   5.346   0.260
77774SOL     OW35218  14.022   8.811   0.213
77774SOL    HW135219  14.033   8.864   0.134
77774SOL    HW235220  14.063   8.727   0.192
77775SOL     OW35221   0.939  11.557   3.079
77775SOL    HW135222   0.991  11.476   3.082
77775SOL    HW235223   0.848  11.527   3.091
77776SOL     OW35224   2.544  13.485   7.063
77776SOL    HW135225   2.607  13.534   7.010
77776SOL    HW235226   2.598  13.427   7.117
77777SOL     OW35227   7.870  11.279   7.404
77777SOL    HW135228   7.865  11.366   7.444
77777SOL    HW235229   7.911  11.224   7.471
77778SOL     OW35230   6.921  14.868  10.770
77778SOL    HW135231   6.851  14.851  10.708
77778SOL    HW235232   6.880   0.050  10.838
77779SOL     OW35233   8.518   2.107  11.350
77779SOL    HW135234   8.473   2.088  11.432
77779SOL    HW235235   8.538   2.022  11.313
77780SOL     OW35236  11.362  14.527  11.499
77780SOL    HW135237  11.354  14.600  11.560
77780SOL    HW235238  11.383  14.452  11.555
77781SOL     OW35239  14.077   3.420  14.443
77781SOL    HW135240  14.061   3.514  14.454
77781SOL    HW235241  14.000   3.378  14.483
77782SOL     OW35242   7.107   1.133   4.954
77782SOL    HW135243   7.075   1.198   4.891
77782SOL    HW235244   7.176   1.178   5.002
77783SOL     OW35245   9.533  13.226   9.921
77783SOL    HW135246   9.498  13.313   9.941
77783SOL    HW235247   9.514  13.213   9.828
77784SOL     OW35248   4.804  11.265  13.741
77784SOL    HW135249   4.855  11.345  13.749
77784SOL    HW235250   4.727  11.280  13.797
77785SOL     OW35251   2.148   2.737   4.083
77785SOL    HW135252   2.165   2.822   4.124
77785SOL    HW235253   2.093   2.691   4.147
77786SOL     OW35254  10.694   3.098   0.922
77786SOL    HW135255  10.634   3.046   0.975
77786SOL    HW235256  10.694   3.184   0.964
77787SOL     OW35257   8.623   5.376   2.005
77787SOL    HW135258   8.703   5.371   1.952
77787SOL    HW235259   8.632   5.457   2.054
77788SOL     OW35260  12.180   0.135   4.159
77788SOL    HW135261  12.192   0.228   4.138
77788SOL    HW235262  12.126   0.101   4.088
77789SOL     OW35263  12.278  14.076   8.921
77789SOL    HW135264  12.345  14.105   8.982
77789SOL    HW235265  12.305  14.114   8.837
77790SOL     OW35266  10.775   1.039   0.673
77790SOL    HW135267  10.816   1.012   0.756
77790SOL    HW235268  10.681   1.033   0.690
77791SOL     OW35269  11.863   8.551   2.962
77791SOL    HW135270  11.831   8.583   3.046
77791SOL    HW235271  11.831   8.615   2.898
77792SOL     OW35272   0.092   7.055   9.895
77792SOL    HW135273   0.008   7.012   9.885
77792SOL    HW235274   0.071   7.145   9.921
77793SOL     OW35275   2.088   3.954  10.932
77793SOL    HW135276   2.063   4.043  10.910
77793SOL    HW235277   2.134   3.922  10.854
77794SOL     OW35278   8.613  14.125   0.748
77794SOL    HW135279   8.671  14.085   0.684
77794SOL    HW235280   8.650  14.212   0.762
77795SOL     OW35281   2.468   1.485  13.342
77795SOL    HW135282   2.535   1.552  13.350
77795SOL    HW235283   2.474   1.435  13.423
77796SOL     OW35284   2.079   4.375   5.472
77796SOL    HW135285   2.120   4.386   5.558
77796SOL    HW235286   2.124   4.299   5.435
77797SOL     OW35287   3.109   2.661   3.955
77797SOL    HW135288   3.192   2.707   3.961
77797SOL    HW235289   3.071   2.692   3.872
77798SOL     OW35290  11.547   7.330  13.414
77798SOL    HW135291  11.524   7.403  13.472
77798SOL    HW235292  11.464   7.284  13.399
77799SOL     OW35293   9.048   7.817  13.696
77799SOL    HW135294   9.085   7.903  13.714
77799SOL    HW235295   9.119   7.755  13.712
77800SOL     OW35296  11.250   9.104  12.450
77800SOL    HW135297  11.316   9.171  12.468
77800SOL    HW235298  11.174   9.130  12.503
77801SOL     OW35299   6.658   1.131   7.508
77801SOL    HW135300   6.638   1.048   7.466
77801SOL    HW235301   6.697   1.108   7.592
77802SOL     OW35302  11.530   1.074   4.995
77802SOL    HW135303  11.438   1.055   5.015
77802SOL    HW235304  11.534   1.075   4.900
77803SOL     OW35305   5.096  13.287   1.764
77803SOL    HW135306   5.169  13.333   1.806
77803SOL    HW235307   5.063  13.228   1.831
77804SOL     OW35308   0.563   5.660   6.452
77804SOL    HW135309   0.629   5.591   6.452
77804SOL    HW235310   0.494   5.628   6.509
77805SOL     OW35311   8.369   1.637  11.232
77805SOL    HW135312   8.406   1.687  11.159
77805SOL    HW235313   8.324   1.703  11.286
77806SOL     OW35314   6.512   8.007   1.307
77806SOL    HW135315   6.523   8.083   1.364
77806SOL    HW235316   6.509   7.932   1.366
77807SOL     OW35317   2.538  12.347  11.832
77807SOL    HW135318   2.537  12.280  11.900
77807SOL    HW235319   2.583  12.422  11.873
77808SOL     OW35320  10.634   9.846  13.725
77808SOL    HW135321  10.576   9.782  13.683
77808SOL    HW235322  10.609   9.930  13.686
77809SOL     OW35323  11.718   9.275  11.379
77809SOL    HW135324  11.651   9.212  11.351
77809SOL    HW235325  11.779   9.280  11.305
77810SOL     OW35326   9.637   7.991  10.963
77810SOL    HW135327   9.584   7.968  10.887
77810SOL    HW235328   9.589   7.953  11.037
77811SOL     OW35329  11.691  12.316   7.226
77811SOL    HW135330  11.785  12.308   7.213
77811SOL    HW235331  11.666  12.234   7.270
77812SOL     OW35332   8.659   4.541   9.131
77812SOL    HW135333   8.728   4.605   9.147
77812SOL    HW235334   8.700   4.474   9.076
77813SOL     OW35335   9.146  11.423   5.494
77813SOL    HW135336   9.185  11.468   5.569
77813SOL    HW235337   9.070  11.377   5.531
77814SOL     OW35338   5.946   3.254  14.165
77814SOL    HW135339   5.906   3.217  14.087
77814SOL    HW235340   6.037   3.226  14.161
77815SOL     OW35341   4.178  12.196  11.087
77815SOL    HW135342   4.234  12.251  11.141
77815SOL    HW235343   4.222  12.111  11.086
77816SOL     OW35344   1.272   9.384   8.106
77816SOL    HW135345   1.343   9.353   8.050
77816SOL    HW235346   1.277   9.479   8.100
77817SOL     OW35347   7.774   8.068   3.339
77817SOL    HW135348   7.698   8.045   3.285
77817SOL    HW235349   7.849   8.042   3.287
77818SOL     OW35350   4.606   9.446  14.280
77818SOL    HW135351   4.547   9.421  14.352
77818SOL    HW235352   4.547   9.475  14.210
77819SOL     OW35353  13.711   1.180   2.416
77819SOL    HW135354  13.739   1.141   2.333
77819SOL    HW235355  13.658   1.112   2.458
77820SOL     OW35356   9.801  14.337  14.797
77820SOL    HW135357   9.783  14.415  14.849
77820SOL    HW235358   9.724  14.282  14.808
77821SOL     OW35359   0.118   8.544   9.795
77821SOL    HW135360   0.062   8.466   9.784
77821SOL    HW235361   0.161   8.530   9.880
77822SOL     OW35362   4.528  11.493   2.979
77822SOL    HW135363   4.557  11.443   2.903
77822SOL    HW235364   4.574  11.577   2.972
77823SOL     OW35365  12.850   4.473   8.380
77823SOL    HW135366  12.834   4.496   8.288
77823SOL    HW235367  12.805   4.390   8.392
77824SOL     OW35368   1.391   0.340   1.860
77824SOL    HW135369   1.432   0.389   1.789
77824SOL    HW235370   1.324   0.399   1.894
77825SOL     OW35371   1.681  14.029   8.569
77825SOL    HW135372   1.726  13.963   8.622
77825SOL    HW235373   1.746  14.098   8.556
77826SOL     OW35374  11.151   0.722   4.471
77826SOL    HW135375  11.216   0.691   4.534
77826SOL    HW235376  11.168   0.670   4.392
77827SOL     OW35377  13.886   1.430   1.225
77827SOL    HW135378  13.932   1.511   1.200
77827SOL    HW235379  13.794   1.455   1.231
77828SOL     OW35380   8.459   4.980   7.140
77828SOL    HW135381   8.544   4.998   7.181
77828SOL    HW235382   8.472   5.002   7.047
77829SOL     OW35383  12.586  12.581   0.594
77829SOL    HW135384  12.517  12.642   0.618
77829SOL    HW235385  12.556  12.541   0.513
77830SOL     OW35386   5.102   9.975   0.152
77830SOL    HW135387   5.143  10.060   0.136
77830SOL    HW235388   5.083   9.976   0.246
77831SOL     OW35389  10.852   0.764  13.005
77831SOL    HW135390  10.783   0.731  12.947
77831SOL    HW235391  10.808   0.779  13.088
77832SOL     OW35392  14.496   9.639  13.804
77832SOL    HW135393  14.553   9.711  13.830
77832SOL    HW235394  14.437   9.678  13.739
77833SOL     OW35395  10.066  12.752  12.050
77833SOL    HW135396  10.146  12.798  12.072
77833SOL    HW235397  10.071  12.738  11.955
77834SOL     OW35398   5.916   3.307   7.081
77834SOL    HW135399   5.977   3.235   7.092
77834SOL    HW235400   5.970   3.386   7.089
77835SOL     OW35401   6.006   7.800   6.718
77835SOL    HW135402   5.960   7.884   6.711
77835SOL    HW235403   6.072   7.814   6.785
77836SOL     OW35404   3.777   5.146   7.153
77836SOL    HW135405   3.758   5.240   7.147
77836SOL    HW235406   3.873   5.141   7.144
77837SOL     OW35407   4.849   1.228   9.225
77837SOL    HW135408   4.797   1.160   9.183
77837SOL    HW235409   4.939   1.210   9.198
77838SOL     OW35410  11.777  13.610   4.754
77838SOL    HW135411  11.729  13.539   4.798
77838SOL    HW235412  11.860  13.615   4.802
77839SOL     OW35413   8.493  12.025   9.986
77839SOL    HW135414   8.517  11.958  10.050
77839SOL    HW235415   8.472  11.975   9.906
77840SOL     OW35416   7.856  13.035  13.178
77840SOL    HW135417   7.944  13.030  13.216
77840SOL    HW235418   7.808  12.963  13.219
77841SOL     OW35419   5.527   5.948   2.115
77841SOL    HW135420   5.548   5.923   2.025
77841SOL    HW235421   5.612   5.968   2.155
77842SOL     OW35422   1.568  10.357  10.948
77842SOL    HW135423   1.579  10.452  10.949
77842SOL    HW235424   1.514  10.340  10.870
77843SOL     OW35425   7.904   5.362  12.801
77843SOL    HW135426   7.952   5.279  12.805
77843SOL    HW235427   7.873   5.367  12.710
77844SOL     OW35428   3.726   0.084  10.340
77844SOL    HW135429   3.784   0.145  10.385
77844SOL    HW235430   3.753   0.089  10.248
77845SOL     OW35431  13.929   3.176  11.848
77845SOL    HW135432  13.840   3.161  11.880
77845SOL    HW235433  13.918   3.239  11.777
77846SOL     OW35434   8.755   2.203  13.345
77846SOL    HW135435   8.840   2.243  13.329
77846SOL    HW235436   8.693   2.259  13.300
77847SOL     OW35437  14.852   6.550   5.548
77847SOL    HW135438  14.776   6.540   5.490
77847SOL    HW235439   0.054   6.520   5.497
77848SOL     OW35440   1.938   0.387   3.735
77848SOL    HW135441   1.932   0.422   3.646
77848SOL    HW235442   1.850   0.401   3.772
77849SOL     OW35443   5.179   3.762   7.623
77849SOL    HW135444   5.215   3.845   7.653
77849SOL    HW235445   5.099   3.751   7.673
77850SOL     OW35446   4.368   3.132  10.463
77850SOL    HW135447   4.392   3.110  10.553
77850SOL    HW235448   4.373   3.228  10.460
77851SOL     OW35449  11.653   5.080  11.765
77851SOL    HW135450  11.604   5.146  11.813
77851SOL    HW235451  11.617   5.083  11.676
77852SOL     OW35452  11.374   9.556  14.807
77852SOL    HW135453  11.394   9.619  14.738
77852SOL    HW235454  11.278   9.550  14.808
77853SOL     OW35455  12.963   8.094   8.110
77853SOL    HW135456  12.935   8.011   8.071
77853SOL    HW235457  12.982   8.073   8.201
77854SOL     OW35458   7.633   8.282   3.095
77854SOL    HW135459   7.715   8.233   3.082
77854SOL    HW235460   7.570   8.236   3.039
77855SOL     OW35461   2.546   3.204   2.928
77855SOL    HW135462   2.509   3.262   2.862
77855SOL    HW235463   2.609   3.258   2.975
77856SOL     OW35464  12.650   3.345  11.151
77856SOL    HW135465  12.621   3.258  11.180
77856SOL    HW235466  12.648   3.340  11.056
77857SOL     OW35467   0.888  10.959  12.971
77857SOL    HW135468   0.963  10.947  13.030
77857SOL    HW235469   0.914  11.032  12.915
77858SOL     OW35470   0.209   5.955   3.875
77858SOL    HW135471   0.251   6.038   3.853
77858SOL    HW235472   0.281   5.898   3.902
77859SOL     OW35473  10.723   6.083   4.762
77859SOL    HW135474  10.812   6.105   4.790
77859SOL    HW235475  10.735   6.020   4.691
77860SOL     OW35476   6.108   4.065   4.293
77860SOL    HW135477   6.127   4.119   4.216
77860SOL    HW235478   6.156   3.983   4.277
77861SOL     OW35479   1.369   7.519   2.651
77861SOL    HW135480   1.383   7.468   2.572
77861SOL    HW235481   1.383   7.610   2.624
77862SOL     OW35482   2.356   6.688   8.092
77862SOL    HW135483   2.398   6.603   8.080
77862SOL    HW235484   2.264   6.667   8.111
77863SOL     OW35485   2.741   3.294  14.605
77863SOL    HW135486   2.776   3.228  14.665
77863SOL    HW235487   2.817   3.324  14.555
77864SOL     OW35488   6.752  11.493  14.214
77864SOL    HW135489   6.724  11.401  14.220
77864SOL    HW235490   6.679  11.543  14.252
77865SOL     OW35491   6.967  11.715   7.302
77865SOL    HW135492   6.941  11.742   7.214
77865SOL    HW235493   6.884  11.699   7.348
77866SOL     OW35494  12.163  12.534  14.264
77866SOL    HW135495  12.106  12.539  14.187
77866SOL    HW235496  12.229  12.469  14.241
77867SOL     OW35497  14.292   0.664   8.418
77867SOL    HW135498  14.233   0.626   8.483
77867SOL    HW235499  14.302   0.596   8.351
77868SOL     OW35500   0.509  10.424   5.522
77868SOL    HW135501   0.557  10.485   5.578
77868SOL    HW235502   0.417  10.452   5.528
77869SOL     OW35503   2.399   7.163   5.731
77869SOL    HW135504   2.465   7.174   5.662
77869SOL    HW235505   2.425   7.083   5.776
77870SOL     OW35506   7.249   2.093  10.973
77870SOL    HW135507   7.169   2.090  11.025
77870SOL    HW235508   7.304   2.157  11.017
77871SOL     OW35509  10.041   0.685   8.698
77871SOL    HW135510  10.023   0.592   8.715
77871SOL    HW235511  10.084   0.687   8.613
77872SOL     OW35512   4.490   3.446   7.821
77872SOL    HW135513   4.396   3.424   7.819
77872SOL    HW235514   4.524   3.412   7.739
77873SOL     OW35515   4.021   5.125   1.530
77873SOL    HW135516   4.045   5.194   1.468
77873SOL    HW235517   4.100   5.112   1.583
77874SOL     OW35518  14.342  11.093   0.912
77874SOL    HW135519  14.345  11.161   0.845
77874SOL    HW235520  14.392  11.021   0.875
77875SOL     OW35521   9.334   1.161  10.390
77875SOL    HW135522   9.345   1.067  10.405
77875SOL    HW235523   9.301   1.195  10.473
77876SOL     OW35524   7.076   5.064   5.023
77876SOL    HW135525   7.144   5.044   5.086
77876SOL    HW235526   7.042   4.979   4.995
77877SOL     OW35527   3.827   2.242  13.391
77877SOL    HW135528   3.899   2.270  13.448
77877SOL    HW235529   3.759   2.212  13.451
77878SOL     OW35530   4.832   7.517  14.016
77878SOL    HW135531   4.828   7.526  14.111
77878SOL    HW235532   4.812   7.424  14.000
77879SOL     OW35533   7.470   5.361  12.719
77879SOL    HW135534   7.416   5.436  12.743
77879SOL    HW235535   7.428   5.286  12.763
77880SOL     OW35536   3.977   9.318   1.605
77880SOL    HW135537   3.917   9.387   1.577
77880SOL    HW235538   4.059   9.339   1.561
77881SOL     OW35539  13.910   3.735   2.595
77881SOL    HW135540  13.869   3.818   2.571
77881SOL    HW235541  13.840   3.670   2.588
77882SOL     OW35542   0.522   3.465   1.935
77882SOL    HW135543   0.571   3.397   1.982
77882SOL    HW235544   0.432   3.433   1.934
77883SOL     OW35545  11.025   2.578   6.013
77883SOL    HW135546  11.104   2.611   6.057
77883SOL    HW235547  11.056   2.551   5.927
77884SOL     OW35548   2.378  12.638   1.960
77884SOL    HW135549   2.286  12.665   1.962
77884SOL    HW235550   2.419  12.689   2.029
77885SOL     OW35551   8.153   7.836   7.202
77885SOL    HW135552   8.192   7.921   7.221
77885SOL    HW235553   8.071   7.836   7.251
77886SOL     OW35554   9.707  11.980  11.288
77886SOL    HW135555   9.613  11.995  11.281
77886SOL    HW235556   9.718  11.924  11.365
77887SOL     OW35557   1.397   1.484   6.832
77887SOL    HW135558   1.416   1.399   6.792
77887SOL    HW235559   1.307   1.477   6.863
77888SOL     OW35560  13.006   2.462   1.816
77888SOL    HW135561  13.087   2.424   1.783
77888SOL    HW235562  13.023   2.477   1.909
77889SOL     OW35563   0.360  11.776   4.235
77889SOL    HW135564   0.370  11.748   4.326
77889SOL    HW235565   0.430  11.840   4.222
77890SOL     OW35566  11.272   7.331  14.615
77890SOL    HW135567  11.276   7.269  14.688
77890SOL    HW235568  11.274   7.277  14.536
77891SOL     OW35569  11.205   0.748   8.114
77891SOL    HW135570  11.130   0.690   8.102
77891SOL    HW235571  11.268   0.697   8.164
77892SOL     OW35572   7.510   0.522  12.210
77892SOL    HW135573   7.582   0.506  12.272
77892SOL    HW235574   7.434   0.540  12.266
77893SOL     OW35575   1.718   1.950  13.078
77893SOL    HW135576   1.733   1.872  13.026
77893SOL    HW235577   1.630   1.939  13.113
77894SOL     OW35578   2.557   8.547   5.097
77894SOL    HW135579   2.605   8.545   5.180
77894SOL    HW235580   2.465   8.545   5.122
77895SOL     OW35581  12.600  14.492   1.469
77895SOL    HW135582  12.677  14.541   1.499
77895SOL    HW235583  12.560  14.459   1.549
77896SOL     OW35584   6.598  10.096   3.713
77896SOL    HW135585   6.669  10.047   3.755
77896SOL    HW235586   6.594  10.179   3.760
77897SOL     OW35587   7.817   7.534   7.096
77897SOL    HW135588   7.746   7.479   7.065
77897SOL    HW235589   7.811   7.529   7.192
77898SOL     OW35590   6.832  11.274  10.257
77898SOL    HW135591   6.798  11.319  10.334
77898SOL    HW235592   6.876  11.342  10.206
77899SOL     OW35593   6.428   6.792   2.470
77899SOL    HW135594   6.416   6.757   2.559
77899SOL    HW235595   6.521   6.782   2.452
77900SOL     OW35596  12.595  13.851   4.705
77900SOL    HW135597  12.582  13.756   4.703
77900SOL    HW235598  12.559  13.881   4.621
77901SOL     OW35599  11.275   8.404   4.671
77901SOL    HW135600  11.194   8.402   4.721
77901SOL    HW235601  11.247   8.406   4.580
77902SOL     OW35602   9.573   9.032   8.257
77902SOL    HW135603   9.591   8.944   8.291
77902SOL    HW235604   9.605   9.091   8.326
77903SOL     OW35605   5.876   1.072   1.931
77903SOL    HW135606   5.900   1.069   2.024
77903SOL    HW235607   5.863   0.981   1.907
77904SOL     OW35608  13.225  14.083  10.108
77904SOL    HW135609  13.260  14.123  10.188
77904SOL    HW235610  13.144  14.131  10.091
77905SOL     OW35611  14.156  14.430   9.869
77905SOL    HW135612  14.098  14.373   9.920
77905SOL    HW235613  14.210  14.475   9.934
77906SOL     OW35614  13.860   2.095  12.962
77906SOL    HW135615  13.902   2.175  12.995
77906SOL    HW235616  13.933   2.035  12.945
77907SOL     OW35617   9.004   5.430   5.412
77907SOL    HW135618   9.058   5.362   5.370
77907SOL    HW235619   9.034   5.432   5.503
77908SOL     OW35620   7.851   9.257  12.774
77908SOL    HW135621   7.921   9.222  12.831
77908SOL    HW235622   7.896   9.319  12.717
77909SOL     OW35623   5.056  12.131   1.127
77909SOL    HW135624   5.029  12.084   1.205
77909SOL    HW235625   5.096  12.065   1.071
77910SOL     OW35626  13.527   3.706   3.865
77910SOL    HW135627  13.488   3.620   3.846
77910SOL    HW235628  13.558   3.699   3.955
77911SOL     OW35629   0.769   3.952  11.737
77911SOL    HW135630   0.774   4.047  11.734
77911SOL    HW235631   0.698   3.934  11.798
77912SOL     OW35632  13.102   0.448   3.014
77912SOL    HW135633  13.182   0.442   2.962
77912SOL    HW235634  13.110   0.530   3.062
77913SOL     OW35635   0.784   7.548  10.963
77913SOL    HW135636   0.719   7.487  10.929
77913SOL    HW235637   0.758   7.562  11.054
77914SOL     OW35638   9.152   6.977   4.215
77914SOL    HW135639   9.115   7.008   4.133
77914SOL    HW235640   9.096   6.904   4.241
77915SOL     OW35641   9.275   2.318  13.584
77915SOL    HW135642   9.189   2.319  13.625
77915SOL    HW235643   9.330   2.370  13.643
77916SOL     OW35644  11.369   8.526   1.387
77916SOL    HW135645  11.357   8.621   1.395
77916SOL    HW235646  11.434   8.505   1.454
77917SOL     OW35647   7.921   1.479  11.712
77917SOL    HW135648   7.909   1.394  11.754
77917SOL    HW235649   7.976   1.528  11.774
77918SOL     OW35650  14.615  11.808  10.370
77918SOL    HW135651  14.619  11.754  10.291
77918SOL    HW235652  14.525  11.799  10.401
77919SOL     OW35653   8.786   6.532   6.869
77919SOL    HW135654   8.814   6.490   6.950
77919SOL    HW235655   8.715   6.591   6.895
77920SOL     OW35656   3.292   4.017  10.264
77920SOL    HW135657   3.371   3.978  10.225
77920SOL    HW235658   3.307   4.111  10.258
77921SOL     OW35659   5.124  14.712   1.503
77921SOL    HW135660   5.113  14.624   1.540
77921SOL    HW235661   5.038  14.754   1.516
77922SOL     OW35662   0.497   9.265   9.527
77922SOL    HW135663   0.579   9.264   9.477
77922SOL    HW235664   0.482   9.358   9.546
77923SOL     OW35665   0.671   6.483  13.297
77923SOL    HW135666   0.732   6.501  13.226
77923SOL    HW235667   0.727   6.464  13.372
77924SOL     OW35668   8.445  14.111  13.686
77924SOL    HW135669   8.350  14.104  13.692
77924SOL    HW235670   8.462  14.140  13.596
77925SOL     OW35671   1.912   0.836   5.089
77925SOL    HW135672   1.878   0.854   5.177
77925SOL    HW235673   1.836   0.847   5.031
77926SOL     OW35674   3.257  14.329   3.104
77926SOL    HW135675   3.329  14.358   3.049
77926SOL    HW235676   3.255  14.234   3.092
77927SOL     OW35677  12.969   4.325   6.993
77927SOL    HW135678  12.988   4.415   6.963
77927SOL    HW235679  12.878   4.310   6.967
77928SOL     OW35680   3.822   0.011   5.433
77928SOL    HW135681   3.865  14.822   5.492
77928SOL    HW235682   3.753   0.051   5.487
77929SOL     OW35683   0.844   5.030  13.794
77929SOL    HW135684   0.786   5.102  13.817
77929SOL    HW235685   0.820   5.008  13.704
77930SOL     OW35686   6.180  14.596   7.742
77930SOL    HW135687   6.095  14.578   7.783
77930SOL    HW235688   6.165  14.672   7.687
77931SOL     OW35689   2.920   2.360   4.903
77931SOL    HW135690   2.846   2.414   4.932
77931SOL    HW235691   2.879   2.280   4.869
77932SOL     OW35692   0.093  10.514   9.928
77932SOL    HW135693   0.129  10.602   9.923
77932SOL    HW235694   0.069  10.493   9.837
77933SOL     OW35695   3.715   9.805  12.430
77933SOL    HW135696   3.707   9.756  12.348
77933SOL    HW235697   3.641   9.866  12.429
77934SOL     OW35698  12.390   6.860   2.551
77934SOL    HW135699  12.458   6.846   2.617
77934SOL    HW235700  12.433   6.915   2.485
77935SOL     OW35701   3.751   0.418  11.372
77935SOL    HW135702   3.813   0.356  11.333
77935SOL    HW235703   3.692   0.364  11.425
77936SOL     OW35704   6.799  13.279  13.201
77936SOL    HW135705   6.742  13.344  13.159
77936SOL    HW235706   6.881  13.326  13.217
77937SOL     OW35707  12.492   5.564   2.564
77937SOL    HW135708  12.438   5.528   2.635
77937SOL    HW235709  12.574   5.515   2.569
77938SOL     OW35710   4.095   4.780  14.450
77938SOL    HW135711   4.096   4.840  14.376
77938SOL    HW235712   4.005   4.780  14.481
77939SOL     OW35713   4.761   5.997  14.649
77939SOL    HW135714   4.843   5.974  14.694
77939SOL    HW235715   4.790   6.036  14.566
77940SOL     OW35716  13.684   6.680  10.562
77940SOL    HW135717  13.741   6.613  10.599
77940SOL    HW235718  13.737   6.722  10.494
77941SOL     OW35719  11.574   6.203   9.646
77941SOL    HW135720  11.537   6.178   9.730
77941SOL    HW235721  11.544   6.293   9.632
77942SOL     OW35722   9.620  13.943  13.205
77942SOL    HW135723   9.537  13.925  13.250
77942SOL    HW235724   9.630  14.038  13.210
77943SOL     OW35725   7.401  14.665  14.726
77943SOL    HW135726   7.479  14.720  14.739
77943SOL    HW235727   7.334  14.706  14.781
77944SOL     OW35728   9.131  11.794   0.474
77944SOL    HW135729   9.175  11.878   0.459
77944SOL    HW235730   9.050  11.818   0.518
77945SOL     OW35731  14.343  13.292  10.156
77945SOL    HW135732  14.279  13.225  10.133
77945SOL    HW235733  14.292  13.373  10.160
77946SOL     OW35734   0.733  12.974   9.392
77946SOL    HW135735   0.732  13.069   9.377
77946SOL    HW235736   0.811  12.959   9.445
77947SOL     OW35737   1.664   9.023   8.855
77947SOL    HW135738   1.719   9.101   8.866
77947SOL    HW235739   1.679   8.972   8.935
77948SOL     OW35740   5.300   9.370  12.753
77948SOL    HW135741   5.216   9.390  12.710
77948SOL    HW235742   5.339   9.302  12.699
77949SOL     OW35743   2.918   2.647   6.649
77949SOL    HW135744   2.877   2.695   6.577
77949SOL    HW235745   2.956   2.715   6.705
77950SOL     OW35746  10.531   4.890   0.640
77950SOL    HW135747  10.456   4.948   0.653
77950SOL    HW235748  10.506   4.807   0.680
77951SOL     OW35749  11.191   0.619   0.870
77951SOL    HW135750  11.106   0.607   0.827
77951SOL    HW235751  11.194   0.549   0.936
77952SOL     OW35752   9.124  11.225   7.181
77952SOL    HW135753   9.029  11.231   7.194
77952SOL    HW235754   9.149  11.310   7.144
77953SOL     OW35755   1.066  11.982  13.425
77953SOL    HW135756   1.121  12.030  13.487
77953SOL    HW235757   1.048  12.045  13.355
77954SOL     OW35758   1.109   8.894   5.873
77954SOL    HW135759   1.168   8.969   5.881
77954SOL    HW235760   1.055   8.915   5.797
77955SOL     OW35761  12.555   4.330   3.667
77955SOL    HW135762  12.484   4.300   3.611
77955SOL    HW235763  12.619   4.258   3.664
77956SOL     OW35764   5.896   4.733   4.089
77956SOL    HW135765   5.881   4.824   4.117
77956SOL    HW235766   5.991   4.723   4.089
77957SOL     OW35767   1.033   7.183   3.895
77957SOL    HW135768   1.050   7.199   3.988
77957SOL    HW235769   0.941   7.205   3.883
77958SOL     OW35770   2.401   5.180   2.689
77958SOL    HW135771   2.491   5.205   2.708
77958SOL    HW235772   2.355   5.188   2.773
77959SOL     OW35773  14.556   7.314   6.755
77959SOL    HW135774  14.540   7.402   6.721
77959SOL    HW235775  14.502   7.309   6.834
77960SOL     OW35776   1.124  10.690   7.330
77960SOL    HW135777   1.033  10.716   7.344
77960SOL    HW235778   1.173  10.734   7.399
77961SOL     OW35779   0.473   9.762   6.188
77961SOL    HW135780   0.563   9.730   6.200
77961SOL    HW235781   0.484   9.852   6.157
77962SOL     OW35782   4.833   3.337  10.714
77962SOL    HW135783   4.861   3.429  10.715
77962SOL    HW235784   4.896   3.295  10.655
77963SOL     OW35785  11.579   6.997  11.291
77963SOL    HW135786  11.587   7.092  11.282
77963SOL    HW235787  11.524   6.970  11.218
77964SOL     OW35788   5.700  14.010  11.520
77964SOL    HW135789   5.668  14.098  11.537
77964SOL    HW235790   5.788  14.008  11.559
77965SOL     OW35791   1.102   9.611   3.063
77965SOL    HW135792   1.133   9.600   2.973
77965SOL    HW235793   1.120   9.528   3.105
77966SOL     OW35794   0.390   5.452   1.266
77966SOL    HW135795   0.373   5.382   1.202
77966SOL    HW235796   0.387   5.532   1.215
77967SOL     OW35797  13.666   3.078   4.451
77967SOL    HW135798  13.589   3.049   4.402
77967SOL    HW235799  13.640   3.162   4.489
77968SOL     OW35800  10.942   4.543   8.422
77968SOL    HW135801  10.902   4.531   8.336
77968SOL    HW235802  10.868   4.566   8.479
77969SOL     OW35803  10.825  12.288  10.781
77969SOL    HW135804  10.858  12.358  10.839
77969SOL    HW235805  10.885  12.215  10.796
77970SOL     OW35806   8.553   2.471   1.526
77970SOL    HW135807   8.601   2.464   1.444
77970SOL    HW235808   8.535   2.380   1.551
77971SOL     OW35809   2.060   2.631   4.352
77971SOL    HW135810   2.082   2.657   4.441
77971SOL    HW235811   1.970   2.662   4.339
77972SOL     OW35812   4.679  11.307   0.818
77972SOL    HW135813   4.671  11.212   0.811
77972SOL    HW235814   4.593  11.336   0.850
77973SOL     OW35815   8.236   7.771  13.081
77973SOL    HW135816   8.175   7.754  13.010
77973SOL    HW235817   8.238   7.690  13.132
77974SOL     OW35818   0.331   0.891  12.781
77974SOL    HW135819   0.388   0.829  12.826
77974SOL    HW235820   0.386   0.932  12.715
77975SOL     OW35821   2.052   5.037   3.768
77975SOL    HW135822   2.039   4.972   3.699
77975SOL    HW235823   2.137   5.076   3.748
77976SOL     OW35824  11.307  12.959   6.324
77976SOL    HW135825  11.387  12.968   6.376
77976SOL    HW235826  11.236  12.973   6.387
77977SOL     OW35827   3.563   3.354  14.472
77977SOL    HW135828   3.542   3.316  14.387
77977SOL    HW235829   3.482   3.396  14.501
77978SOL     OW35830   9.219   2.317   8.932
77978SOL    HW135831   9.267   2.393   8.901
77978SOL    HW235832   9.146   2.352   8.982
77979SOL     OW35833  10.303   2.545   1.688
77979SOL    HW135834  10.394   2.533   1.714
77979SOL    HW235835  10.297   2.505   1.601
77980SOL     OW35836  12.603   3.478   2.933
77980SOL    HW135837  12.636   3.404   2.984
77980SOL    HW235838  12.634   3.556   2.979
77981SOL     OW35839   0.231  12.240  12.352
77981SOL    HW135840   0.180  12.182  12.295
77981SOL    HW235841   0.237  12.194  12.436
77982SOL     OW35842   0.220  13.423   3.051
77982SOL    HW135843   0.160  13.498   3.044
77982SOL    HW235844   0.233  13.395   2.961
77983SOL     OW35845  13.201   6.819   9.527
77983SOL    HW135846  13.277   6.760   9.522
77983SOL    HW235847  13.126   6.761   9.517
77984SOL     OW35848   1.919   4.263   6.824
77984SOL    HW135849   1.948   4.172   6.828
77984SOL    HW235850   1.933   4.289   6.733
77985SOL     OW35851   9.632  10.749   6.748
77985SOL    HW135852   9.651  10.662   6.783
77985SOL    HW235853   9.679  10.809   6.807
77986SOL     OW35854   4.125   2.232  11.683
77986SOL    HW135855   4.131   2.269  11.595
77986SOL    HW235856   4.151   2.303  11.741
77987SOL     OW35857   2.784  11.976   9.813
77987SOL    HW135858   2.742  11.912   9.757
77987SOL    HW235859   2.872  11.986   9.778
77988SOL     OW35860   3.500   5.164  13.802
77988SOL    HW135861   3.556   5.242  13.811
77988SOL    HW235862   3.478   5.140  13.892
77989SOL     OW35863   1.697   8.913   1.532
77989SOL    HW135864   1.744   8.997   1.532
77989SOL    HW235865   1.608   8.935   1.505
77990SOL     OW35866   5.954  13.599   3.625
77990SOL    HW135867   5.872  13.606   3.577
77990SOL    HW235868   6.022  13.611   3.558
77991SOL     OW35869   7.639  13.831   5.931
77991SOL    HW135870   7.726  13.845   5.894
77991SOL    HW235871   7.579  13.849   5.859
77992SOL     OW35872  14.439   5.280   8.348
77992SOL    HW135873  14.418   5.296   8.440
77992SOL    HW235874  14.535   5.280   8.344
77993SOL     OW35875   5.490   1.506   4.629
77993SOL    HW135876   5.514   1.539   4.716
77993SOL    HW235877   5.493   1.411   4.639
77994SOL     OW35878   9.587  13.502  14.359
77994SOL    HW135879   9.508  13.532  14.404
77994SOL    HW235880   9.613  13.423  14.406
77995SOL     OW35881   7.948   3.214   0.409
77995SOL    HW135882   7.886   3.152   0.447
77995SOL    HW235883   7.962   3.183   0.320
77996SOL     OW35884   9.943   5.551  12.518
77996SOL    HW135885   9.977   5.489  12.582
77996SOL    HW235886   9.849   5.557  12.537
77997SOL     OW35887  12.169   5.872  13.255
77997SOL    HW135888  12.209   5.948  13.298
77997SOL    HW235889  12.079   5.871  13.289
77998SOL     OW35890   2.282   2.404   4.044
77998SOL    HW135891   2.210   2.405   4.107
77998SOL    HW235892   2.305   2.312   4.036
77999SOL     OW35893   1.143   0.461   2.907
77999SOL    HW135894   1.151   0.372   2.873
77999SOL    HW235895   1.149   0.451   3.002
78000SOL     OW35896  11.624  14.789  10.481
78000SOL    HW135897  11.666  14.827  10.558
78000SOL    HW235898  11.697  14.773  10.420
78001SOL     OW35899   8.039   4.020   8.153
78001SOL    HW135900   7.988   3.964   8.210
78001SOL    HW235901   8.111   3.965   8.122
78002SOL     OW35902   3.065   0.021   6.023
78002SOL    HW135903   3.032   0.017   5.934
78002SOL    HW235904   2.988   0.006   6.078
78003SOL     OW35905   9.650   4.185   0.568
78003SOL    HW135906   9.567   4.167   0.524
78003SOL    HW235907   9.708   4.114   0.539
78004SOL     OW35908  14.699  14.093   3.444
78004SOL    HW135909  14.734  14.057   3.526
78004SOL    HW235910  14.604  14.089   3.455
78005SOL     OW35911   6.288  11.864   4.614
78005SOL    HW135912   6.310  11.788   4.561
78005SOL    HW235913   6.239  11.921   4.555
78006SOL     OW35914  11.842   2.962   2.161
78006SOL    HW135915  11.805   2.931   2.244
78006SOL    HW235916  11.935   2.944   2.168
78007SOL     OW35917   5.840  11.788   4.476
78007SOL    HW135918   5.760  11.741   4.500
78007SOL    HW235919   5.893  11.786   4.556
78008SOL     OW35920   3.946  12.508   4.502
78008SOL    HW135921   3.957  12.467   4.588
78008SOL    HW235922   3.858  12.546   4.506
78009SOL     OW35923   9.875  13.038   4.921
78009SOL    HW135924   9.924  12.959   4.899
78009SOL    HW235925   9.939  13.096   4.962
78010SOL     OW35926   8.562   4.768   8.354
78010SOL    HW135927   8.617   4.775   8.276
78010SOL    HW235928   8.588   4.842   8.409
78011SOL     OW35929  12.621  11.730  12.941
78011SOL    HW135930  12.642  11.674  13.016
78011SOL    HW235931  12.526  11.726  12.935
78012SOL     OW35932   4.418   1.044   8.660
78012SOL    HW135933   4.367   1.112   8.618
78012SOL    HW235934   4.500   1.041   8.610
78013SOL     OW35935  13.519   0.341   2.634
78013SOL    HW135936  13.547   0.365   2.723
78013SOL    HW235937  13.430   0.306   2.645
78014SOL     OW35938  13.075   5.772   2.887
78014SOL    HW135939  13.146   5.825   2.923
78014SOL    HW235940  13.100   5.682   2.907
78015SOL     OW35941  10.241  11.163   7.786
78015SOL    HW135942  10.311  11.228   7.793
78015SOL    HW235943  10.164  11.207   7.824
78016SOL     OW35944  14.497  13.928   3.751
78016SOL    HW135945  14.457  13.927   3.838
78016SOL    HW235946  14.455  14.002   3.707
78017SOL     OW35947   3.245   1.501  12.931
78017SOL    HW135948   3.327   1.452  12.932
78017SOL    HW235949   3.258   1.572  12.994
78018SOL     OW35950   1.355   0.298  12.353
78018SOL    HW135951   1.402   0.234  12.299
78018SOL    HW235952   1.416   0.371  12.363
78019SOL     OW35953   6.396   5.440  14.246
78019SOL    HW135954   6.431   5.357  14.279
78019SOL    HW235955   6.378   5.491  14.325
78020SOL     OW35956  11.294  12.240   4.656
78020SOL    HW135957  11.284  12.252   4.562
78020SOL    HW235958  11.352  12.311   4.683
78021SOL     OW35959   6.049   4.287   7.995
78021SOL    HW135960   6.026   4.295   8.087
78021SOL    HW235961   6.062   4.193   7.981
78022SOL     OW35962   4.510   8.101  11.651
78022SOL    HW135963   4.513   8.159  11.727
78022SOL    HW235964   4.450   8.031  11.678
78023SOL     OW35965  14.829  12.985  11.493
78023SOL    HW135966  14.751  13.019  11.449
78023SOL    HW235967  14.862  13.059  11.544
78024SOL     OW35968   9.763  10.623   2.704
78024SOL    HW135969   9.817  10.553   2.740
78024SOL    HW235970   9.725  10.665   2.782
78025SOL     OW35971   3.179   8.680   3.418
78025SOL    HW135972   3.240   8.648   3.484
78025SOL    HW235973   3.181   8.775   3.427
78026SOL     OW35974   9.563  10.151   7.119
78026SOL    HW135975   9.649  10.134   7.082
78026SOL    HW235976   9.548  10.244   7.105
78027SOL     OW35977   3.138   5.962  14.147
78027SOL    HW135978   3.227   5.946  14.178
78027SOL    HW235979   3.097   5.876  14.146
78028SOL     OW35980  13.487   0.807   5.546
78028SOL    HW135981  13.528   0.721   5.558
78028SOL    HW235982  13.476   0.815   5.451
78029SOL     OW35983   9.891   1.584   8.104
78029SOL    HW135984   9.959   1.637   8.145
78029SOL    HW235985   9.810   1.611   8.147
78030SOL     OW35986  12.104   1.256   1.634
78030SOL    HW135987  12.117   1.311   1.557
78030SOL    HW235988  12.061   1.177   1.600
78031SOL     OW35989   9.139   0.629  13.766
78031SOL    HW135990   9.128   0.537  13.744
78031SOL    HW235991   9.187   0.628  13.849
78032SOL     OW35992   7.167  13.961   2.178
78032SOL    HW135993   7.084  14.005   2.199
78032SOL    HW235994   7.230  14.032   2.167
78033SOL     OW35995  13.216   5.028   6.970
78033SOL    HW135996  13.290   4.976   7.002
78033SOL    HW235997  13.229   5.034   6.876
78034SOL     OW35998   1.944   5.501   9.267
78034SOL    HW135999   1.870   5.488   9.207
78034SOL    HW236000   1.948   5.420   9.317
78035SOL     OW36001   8.820  13.296   2.841
78035SOL    HW136002   8.882  13.261   2.905
78035SOL    HW236003   8.738  13.250   2.860
78036SOL     OW36004   3.340  12.556   1.084
78036SOL    HW136005   3.410  12.501   1.048
78036SOL    HW236006   3.375  12.587   1.167
78037SOL     OW36007   3.029  11.784   0.296
78037SOL    HW136008   3.106  11.747   0.338
78037SOL    HW236009   2.959  11.775   0.361
78038SOL     OW36010   9.976   0.195   3.859
78038SOL    HW136011   9.902   0.149   3.899
78038SOL    HW236012  10.037   0.210   3.931
78039SOL     OW36013   9.246  13.960   1.635
78039SOL    HW136014   9.233  14.002   1.720
78039SOL    HW236015   9.168  13.982   1.585
78040SOL     OW36016   3.152  14.093  11.748
78040SOL    HW136017   3.232  14.125  11.706
78040SOL    HW236018   3.145  14.002  11.719
78041SOL     OW36019   2.393   6.472  13.831
78041SOL    HW136020   2.319   6.431  13.787
78041SOL    HW236021   2.362   6.490  13.920
78042SOL     OW36022   2.198  12.772  10.876
78042SOL    HW136023   2.115  12.818  10.874
78042SOL    HW236024   2.263  12.837  10.849
78043SOL     OW36025   5.197   6.340  10.008
78043SOL    HW136026   5.163   6.410  10.064
78043SOL    HW236027   5.291   6.359  10.000
78044SOL     OW36028  10.005   9.588   2.756
78044SOL    HW136029   9.940   9.520   2.776
78044SOL    HW236030   9.985   9.659   2.817
78045SOL     OW36031   3.444   8.326   2.811
78045SOL    HW136032   3.379   8.314   2.741
78045SOL    HW236033   3.401   8.294   2.890
78046SOL     OW36034   6.455   6.367   4.162
78046SOL    HW136035   6.422   6.449   4.126
78046SOL    HW236036   6.531   6.392   4.215
78047SOL     OW36037  13.093  12.197   1.268
78047SOL    HW136038  13.083  12.104   1.249
78047SOL    HW236039  13.009  12.223   1.304
78048SOL     OW36040  14.349  11.436  12.604
78048SOL    HW136041  14.258  11.438  12.633
78048SOL    HW236042  14.346  11.463  12.512
78049SOL     OW36043   6.919  12.077   8.617
78049SOL    HW136044   6.875  12.162   8.609
78049SOL    HW236045   6.995  12.095   8.673
78050SOL     OW36046  13.210   0.856  10.967
78050SOL    HW136047  13.147   0.839  11.037
78050SOL    HW236048  13.157   0.887  10.893
78051SOL     OW36049  12.725  14.797  12.843
78051SOL    HW136050  12.689  14.782  12.755
78051SOL    HW236051  12.786  14.870  12.832
78052SOL     OW36052  10.471  14.231  13.365
78052SOL    HW136053  10.523  14.284  13.426
78052SOL    HW236054  10.465  14.284  13.286
78053SOL     OW36055  13.555  11.302   1.631
78053SOL    HW136056  13.547  11.385   1.585
78053SOL    HW236057  13.555  11.325   1.724
78054SOL     OW36058   3.148  10.294   4.085
78054SOL    HW136059   3.138  10.301   4.180
78054SOL    HW236060   3.167  10.383   4.056
78055SOL     OW36061   8.092   2.011   0.691
78055SOL    HW136062   8.102   1.943   0.758
78055SOL    HW236063   8.105   2.093   0.739
78056SOL     OW36064   8.216   5.158   1.239
78056SOL    HW136065   8.159   5.225   1.277
78056SOL    HW236066   8.259   5.202   1.166
78057SOL     OW36067   5.503  12.137   5.119
78057SOL    HW136068   5.410  12.129   5.099
78057SOL    HW236069   5.538  12.193   5.049
78058SOL     OW36070  13.208   7.852   7.200
78058SOL    HW136071  13.183   7.937   7.164
78058SOL    HW236072  13.209   7.866   7.295
78059SOL     OW36073   4.827   5.603  14.500
78059SOL    HW136074   4.897   5.546  14.533
78059SOL    HW236075   4.835   5.598  14.405
78060SOL     OW36076   5.092   2.325   6.818
78060SOL    HW136077   5.082   2.234   6.792
78060SOL    HW236078   5.169   2.325   6.875
78061SOL     OW36079   3.055   6.629  10.132
78061SOL    HW136080   2.962   6.620  10.110
78061SOL    HW236081   3.067   6.722  10.148
78062SOL     OW36082   6.068  14.318   7.299
78062SOL    HW136083   6.135  14.264   7.340
78062SOL    HW236084   6.101  14.408   7.308
78063SOL     OW36085   5.332  14.075  10.569
78063SOL    HW136086   5.288  14.089  10.485
78063SOL    HW236087   5.334  13.980  10.579
78064SOL     OW36088   8.878  14.409  10.538
78064SOL    HW136089   8.795  14.375  10.503
78064SOL    HW236090   8.907  14.474  10.474
78065SOL     OW36091   5.915  12.253  14.403
78065SOL    HW136092   5.997  12.218  14.368
78065SOL    HW236093   5.847  12.215  14.346
78066SOL     OW36094   0.166   2.807  11.841
78066SOL    HW136095   0.171   2.839  11.931
78066SOL    HW236096   0.130   2.880  11.792
78067SOL     OW36097   5.331   7.813   1.420
78067SOL    HW136098   5.332   7.772   1.333
78067SOL    HW236099   5.291   7.748   1.477
78068SOL     OW36100   2.817   3.384   0.317
78068SOL    HW136101   2.788   3.402   0.227
78068SOL    HW236102   2.768   3.446   0.371
78069SOL     OW36103  13.061   2.408  12.852
78069SOL    HW136104  13.086   2.381  12.940
78069SOL    HW236105  13.016   2.332  12.815
78070SOL     OW36106  14.678  14.263  13.965
78070SOL    HW136107  14.740  14.284  14.035
78070SOL    HW236108  14.592  14.266  14.007
78071SOL     OW36109  12.270   3.904   4.937
78071SOL    HW136110  12.290   3.816   4.969
78071SOL    HW236111  12.326   3.916   4.860
78072SOL     OW36112   6.139   5.292   7.464
78072SOL    HW136113   6.072   5.245   7.413
78072SOL    HW236114   6.220   5.276   7.416
78073SOL     OW36115  10.895   8.913  10.849
78073SOL    HW136116  10.884   8.823  10.879
78073SOL    HW236117  10.971   8.909  10.790
78074SOL     OW36118  11.048   6.585   5.377
78074SOL    HW136119  11.096   6.504   5.360
78074SOL    HW236120  10.962   6.570   5.339
78075SOL     OW36121   8.347   3.466   9.405
78075SOL    HW136122   8.255   3.482   9.428
78075SOL    HW236123   8.396   3.535   9.450
78076SOL     OW36124   0.316  12.202   7.797
78076SOL    HW136125   0.238  12.151   7.818
78076SOL    HW236126   0.375  12.139   7.755
78077SOL     OW36127   8.814   5.429   4.644
78077SOL    HW136128   8.863   5.463   4.569
78077SOL    HW236129   8.864   5.458   4.720
78078SOL     OW36130   9.772   9.508  14.832
78078SOL    HW136131   9.812   9.472  14.753
78078SOL    HW236132   9.691   9.459  14.843
78079SOL     OW36133  13.832  12.627   3.389
78079SOL    HW136134  13.744  12.608   3.420
78079SOL    HW236135  13.851  12.558   3.326
78080SOL     OW36136  10.953  10.898   8.513
78080SOL    HW136137  10.971  10.973   8.457
78080SOL    HW236138  11.033  10.845   8.509
78081SOL     OW36139   6.983   2.084   8.972
78081SOL    HW136140   6.923   2.122   9.036
78081SOL    HW236141   6.997   2.154   8.908
78082SOL     OW36142   3.301   8.389  11.891
78082SOL    HW136143   3.384   8.368  11.932
78082SOL    HW236144   3.247   8.310  11.903
78083SOL     OW36145   1.623   3.461  11.741
78083SOL    HW136146   1.584   3.375  11.757
78083SOL    HW236147   1.669   3.482  11.822
78084SOL     OW36148   5.855   9.487  14.806
78084SOL    HW136149   5.845   9.401  14.766
78084SOL    HW236150   5.880   9.469   0.025
78085SOL     OW36151   1.135  11.657   0.876
78085SOL    HW136152   1.216  11.646   0.826
78085SOL    HW236153   1.114  11.568   0.907
78086SOL     OW36154   3.388  12.198   1.127
78086SOL    HW136155   3.461  12.206   1.189
78086SOL    HW236156   3.410  12.259   1.056
78087SOL     OW36157   6.951   2.777   9.423
78087SOL    HW136158   6.935   2.734   9.339
78087SOL    HW236159   7.043   2.804   9.419
78088SOL     OW36160  10.539   4.518  11.247
78088SOL    HW136161  10.498   4.435  11.272
78088SOL    HW236162  10.468   4.569  11.208
78089SOL     OW36163   0.298   7.807  10.754
78089SOL    HW136164   0.297   7.720  10.795
78089SOL    HW236165   0.229   7.856  10.798
78090SOL     OW36166   8.511   4.065  10.448
78090SOL    HW136167   8.536   4.033  10.361
78090SOL    HW236168   8.527   3.990  10.506
78091SOL     OW36169   3.637   8.651   5.080
78091SOL    HW136170   3.554   8.693   5.059
78091SOL    HW236171   3.655   8.593   5.006
78092SOL     OW36172   9.382  11.111  12.821
78092SOL    HW136173   9.454  11.049  12.832
78092SOL    HW236174   9.362  11.109  12.728
78093SOL     OW36175   6.456   2.449   3.890
78093SOL    HW136176   6.469   2.458   3.795
78093SOL    HW236177   6.533   2.491   3.929
78094SOL     OW36178  14.657  13.851  11.124
78094SOL    HW136179  14.676  13.758  11.139
78094SOL    HW236180  14.720  13.877  11.057
78095SOL     OW36181  11.872   9.808   2.170
78095SOL    HW136182  11.858   9.733   2.112
78095SOL    HW236183  11.816   9.792   2.246
78096SOL     OW36184   9.567   2.460   9.747
78096SOL    HW136185   9.496   2.406   9.782
78096SOL    HW236186   9.532   2.549   9.747
78097SOL     OW36187  11.162   8.968   2.686
78097SOL    HW136188  11.133   8.894   2.632
78097SOL    HW236189  11.123   8.952   2.771
78098SOL     OW36190   2.197  12.127   6.288
78098SOL    HW136191   2.254  12.203   6.297
78098SOL    HW236192   2.110  12.158   6.313
78099SOL     OW36193   4.974  11.348  13.971
78099SOL    HW136194   5.036  11.291  14.016
78099SOL    HW236195   4.890  11.303  13.979
78100SOL     OW36196   1.943   6.366   8.281
78100SOL    HW136197   1.978   6.454   8.292
78100SOL    HW236198   1.973   6.339   8.194
78101SOL     OW36199  10.303   2.756  12.980
78101SOL    HW136200  10.245   2.756  12.904
78101SOL    HW236201  10.244   2.748  13.055
78102SOL     OW36202  14.651   3.985   0.528
78102SOL    HW136203  14.686   4.057   0.581
78102SOL    HW236204  14.561   3.975   0.558
78103SOL     OW36205  12.500  14.423   7.477
78103SOL    HW136206  12.472  14.460   7.394
78103SOL    HW236207  12.545  14.494   7.522
78104SOL     OW36208   0.961   8.881  10.746
78104SOL    HW136209   0.936   8.802  10.698
78104SOL    HW236210   0.939   8.862  10.837
78105SOL     OW36211   1.339   5.558   1.163
78105SOL    HW136212   1.395   5.631   1.135
78105SOL    HW236213   1.391   5.510   1.227
78106SOL     OW36214  14.181   8.678   8.060
78106SOL    HW136215  14.140   8.739   7.999
78106SOL    HW236216  14.108   8.628   8.097
78107SOL     OW36217   3.115   7.434   9.520
78107SOL    HW136218   3.046   7.374   9.547
78107SOL    HW236219   3.070   7.517   9.504
78108SOL     OW36220   4.419   5.761   6.129
78108SOL    HW136221   4.366   5.783   6.206
78108SOL    HW236222   4.356   5.761   6.056
78109SOL     OW36223   2.038   7.612   6.207
78109SOL    HW136224   2.101   7.551   6.245
78109SOL    HW236225   2.092   7.673   6.157
78110SOL     OW36226  12.771   0.501   7.297
78110SOL    HW136227  12.795   0.537   7.211
78110SOL    HW236228  12.726   0.572   7.341
78111SOL     OW36229   7.992  13.801   2.592
78111SOL    HW136230   7.989  13.793   2.687
78111SOL    HW236231   8.085  13.796   2.571
78112SOL     OW36232  13.383  12.777   9.093
78112SOL    HW136233  13.349  12.794   9.005
78112SOL    HW236234  13.386  12.864   9.134
78113SOL     OW36235  10.510   9.074  11.013
78113SOL    HW136236  10.466   9.153  10.981
78113SOL    HW236237  10.602   9.088  10.990
78114SOL     OW36238  11.130  11.814   0.047
78114SOL    HW136239  11.174  11.730   0.035
78114SOL    HW236240  11.043  11.802   0.009
78115SOL     OW36241   6.474  10.768  13.643
78115SOL    HW136242   6.566  10.793  13.638
78115SOL    HW236243   6.472  10.700  13.711
78116SOL     OW36244   1.243   6.962   4.313
78116SOL    HW136245   1.212   7.033   4.369
78116SOL    HW236246   1.326   6.993   4.278
78117SOL     OW36247   1.832   0.195   5.262
78117SOL    HW136248   1.846   0.281   5.302
78117SOL    HW236249   1.744   0.201   5.223
78118SOL     OW36250  10.939  14.273  12.223
78118SOL    HW136251  10.848  14.251  12.242
78118SOL    HW236252  10.947  14.365  12.245
78119SOL     OW36253   3.263  14.269   3.747
78119SOL    HW136254   3.281  14.323   3.670
78119SOL    HW236255   3.169  14.251   3.741
78120SOL     OW36256  12.289   3.392   5.357
78120SOL    HW136257  12.225   3.351   5.415
78120SOL    HW236258  12.289   3.484   5.383
78121SOL     OW36259   4.982   6.741   5.575
78121SOL    HW136260   4.929   6.757   5.653
78121SOL    HW236261   5.070   6.770   5.599
78122SOL     OW36262   4.422   0.640  14.872
78122SOL    HW136263   4.517   0.629   0.001
78122SOL    HW236264   4.408   0.726  14.832
78123SOL     OW36265   1.548   4.261  13.060
78123SOL    HW136266   1.471   4.229  13.013
78123SOL    HW236267   1.611   4.189  13.056
78124SOL     OW36268  14.789   5.642   3.784
78124SOL    HW136269  14.837   5.686   3.854
78124SOL    HW236270  14.763   5.713   3.726
78125SOL     OW36271  12.874   8.954   6.266
78125SOL    HW136272  12.820   9.030   6.244
78125SOL    HW236273  12.820   8.901   6.324
78126SOL     OW36274   6.581  10.648  14.746
78126SOL    HW136275   6.531  10.712  14.696
78126SOL    HW236276   6.520  10.575  14.760
78127SOL     OW36277  11.213   9.330   8.886
78127SOL    HW136278  11.180   9.279   8.812
78127SOL    HW236279  11.292   9.284   8.914
78128SOL     OW36280   3.783  14.714  14.195
78128SOL    HW136281   3.876  14.713  14.216
78128SOL    HW236282   3.743  14.660  14.264
78129SOL     OW36283   5.230   6.878  13.860
78129SOL    HW136284   5.320   6.911  13.855
78129SOL    HW236285   5.179   6.952  13.893
78130SOL     OW36286   6.793   1.787   0.977
78130SOL    HW136287   6.763   1.748   1.060
78130SOL    HW236288   6.844   1.864   1.004
78131SOL     OW36289  14.700  13.543   3.478
78131SOL    HW136290  14.725  13.536   3.386
78131SOL    HW236291  14.742  13.469   3.521
78132SOL     OW36292  10.218   3.847   4.469
78132SOL    HW136293  10.248   3.936   4.488
78132SOL    HW236294  10.129   3.858   4.435
78133SOL     OW36295  14.282  12.447  14.689
78133SOL    HW136296  14.350  12.411  14.631
78133SOL    HW236297  14.330  12.500  14.752
78134SOL     OW36298  14.079  10.872  12.680
78134SOL    HW136299  13.998  10.869  12.731
78134SOL    HW236300  14.103  10.780  12.666
78135SOL     OW36301   4.410   4.619   3.259
78135SOL    HW136302   4.400   4.691   3.197
78135SOL    HW236303   4.324   4.611   3.301
78136SOL     OW36304   5.766   9.633   8.879
78136SOL    HW136305   5.721   9.713   8.852
78136SOL    HW236306   5.816   9.658   8.957
78137SOL     OW36307  14.502   5.111  14.401
78137SOL    HW136308  14.516   5.129  14.494
78137SOL    HW236309  14.531   5.020  14.389
78138SOL     OW36310  10.989   1.082   8.972
78138SOL    HW136311  10.914   1.136   8.998
78138SOL    HW236312  11.065   1.125   9.012
78139SOL     OW36313   5.690   4.969   8.675
78139SOL    HW136314   5.664   5.055   8.707
78139SOL    HW236315   5.610   4.916   8.680
78140SOL     OW36316  11.650   0.762   4.018
78140SOL    HW136317  11.638   0.689   3.957
78140SOL    HW236318  11.587   0.828   3.990
78141SOL     OW36319   7.436   4.814   0.338
78141SOL    HW136320   7.409   4.904   0.358
78141SOL    HW236321   7.419   4.804   0.245
78142SOL     OW36322   5.291   7.649   1.164
78142SOL    HW136323   5.266   7.560   1.188
78142SOL    HW236324   5.383   7.642   1.139
78143SOL     OW36325  14.380  12.595   8.510
78143SOL    HW136326  14.419  12.681   8.496
78143SOL    HW236327  14.445  12.548   8.564
78144SOL     OW36328   3.720   9.346   2.281
78144SOL    HW136329   3.661   9.407   2.325
78144SOL    HW236330   3.677   9.261   2.287
78145SOL     OW36331   4.708   5.449  11.674
78145SOL    HW136332   4.731   5.529  11.722
78145SOL    HW236333   4.613   5.443  11.682
78146SOL     OW36334  13.387   9.544   9.713
78146SOL    HW136335  13.482   9.539   9.706
78146SOL    HW236336  13.358   9.582   9.630
78147SOL     OW36337  14.252   9.511   0.267
78147SOL    HW136338  14.289   9.547   0.186
78147SOL    HW236339  14.303   9.553   0.337
78148SOL     OW36340   5.507   2.971   2.770
78148SOL    HW136341   5.459   3.004   2.694
78148SOL    HW236342   5.440   2.927   2.822
78149SOL     OW36343   3.342   6.761  12.389
78149SOL    HW136344   3.379   6.694  12.332
78149SOL    HW236345   3.416   6.819  12.408
78150SOL     OW36346   5.360  14.604   3.346
78150SOL    HW136347   5.318  14.537   3.401
78150SOL    HW236348   5.289  14.665   3.324
78151SOL     OW36349  13.236  14.689  11.174
78151SOL    HW136350  13.183  14.710  11.097
78151SOL    HW236351  13.326  14.703  11.146
78152SOL     OW36352   6.833   7.800  11.099
78152SOL    HW136353   6.838   7.738  11.172
78152SOL    HW236354   6.838   7.744  11.021
78153SOL     OW36355   8.778   3.947  12.163
78153SOL    HW136356   8.870   3.928  12.147
78153SOL    HW236357   8.731   3.886  12.107
78154SOL     OW36358  13.729  12.547   2.662
78154SOL    HW136359  13.704  12.634   2.633
78154SOL    HW236360  13.822  12.556   2.686
78155SOL     OW36361   3.183   7.742   9.126
78155SOL    HW136362   3.207   7.828   9.161
78155SOL    HW236363   3.091   7.752   9.100
78156SOL     OW36364  13.009  12.519  10.594
78156SOL    HW136365  13.005  12.552  10.684
78156SOL    HW236366  13.037  12.595  10.543
78157SOL     OW36367  13.210  10.172   1.030
78157SOL    HW136368  13.206  10.230   1.106
78157SOL    HW236369  13.144  10.208   0.970
78158SOL     OW36370  14.131   1.508  14.463
78158SOL    HW136371  14.207   1.564  14.448
78158SOL    HW236372  14.127   1.452  14.385
78159SOL     OW36373  12.227  14.191   8.371
78159SOL    HW136374  12.243  14.276   8.331
78159SOL    HW236375  12.279  14.130   8.318
78160SOL     OW36376   9.024   0.623   7.471
78160SOL    HW136377   9.107   0.613   7.424
78160SOL    HW236378   9.049   0.626   7.564
78161SOL     OW36379   0.879   4.805   2.120
78161SOL    HW136380   0.965   4.762   2.123
78161SOL    HW236381   0.847   4.800   2.210
78162SOL     OW36382  11.437  14.200  14.745
78162SOL    HW136383  11.476  14.170  14.827
78162SOL    HW236384  11.497  14.170  14.677
78163SOL     OW36385  11.591  10.234   0.575
78163SOL    HW136386  11.645  10.155   0.585
78163SOL    HW236387  11.510  10.203   0.534
78164SOL     OW36388   6.392   7.459   0.991
78164SOL    HW136389   6.464   7.409   0.952
78164SOL    HW236390   6.419   7.550   0.980
78165SOL     OW36391  14.243   9.211   6.027
78165SOL    HW136392  14.259   9.142   5.962
78165SOL    HW236393  14.220   9.288   5.975
78166SOL     OW36394  10.293  11.975  12.931
78166SOL    HW136395  10.254  12.048  12.979
78166SOL    HW236396  10.335  11.922  12.999
78167SOL     OW36397  13.505   2.602  14.577
78167SOL    HW136398  13.548   2.522  14.546
78167SOL    HW236399  13.574   2.651  14.623
78168SOL     OW36400   0.840  10.460   9.308
78168SOL    HW136401   0.752  10.428   9.330
78168SOL    HW236402   0.836  10.554   9.329
78169SOL     OW36403   4.273   7.446  10.625
78169SOL    HW136404   4.279   7.429  10.531
78169SOL    HW236405   4.291   7.361  10.666
78170SOL     OW36406   4.832   7.026  12.978
78170SOL    HW136407   4.832   7.084  13.054
78170SOL    HW236408   4.925   7.010  12.960
78171SOL     OW36409   2.257   2.255   7.770
78171SOL    HW136410   2.165   2.264   7.744
78171SOL    HW236411   2.306   2.289   7.694
78172SOL     OW36412   7.652  13.575   6.069
78172SOL    HW136413   7.715  13.646   6.063
78172SOL    HW236414   7.700  13.498   6.039
78173SOL     OW36415   2.926  12.663   2.092
78173SOL    HW136416   2.856  12.720   2.124
78173SOL    HW236417   2.962  12.709   2.016
78174SOL     OW36418  10.363   0.468   3.916
78174SOL    HW136419  10.379   0.428   4.001
78174SOL    HW236420  10.289   0.527   3.930
78175SOL     OW36421  10.849   3.470   4.862
78175SOL    HW136422  10.930   3.419   4.858
78175SOL    HW236423  10.847   3.505   4.951
78176SOL     OW36424   8.944   9.646   8.540
78176SOL    HW136425   8.964   9.556   8.516
78176SOL    HW236426   8.982   9.699   8.470
78177SOL     OW36427  13.157   8.143   1.988
78177SOL    HW136428  13.251   8.153   1.974
78177SOL    HW236429  13.137   8.056   1.953
78178SOL     OW36430  13.222   7.064   2.669
78178SOL    HW136431  13.253   7.114   2.744
78178SOL    HW236432  13.159   7.002   2.706
78179SOL     OW36433  10.892   3.524   9.835
78179SOL    HW136434  10.841   3.605   9.825
78179SOL    HW236435  10.884   3.503   9.928
78180SOL     OW36436  11.944  14.045  10.475
78180SOL    HW136437  11.932  13.992  10.397
78180SOL    HW236438  12.000  13.992  10.532
78181SOL     OW36439   3.173   6.011   0.642
78181SOL    HW136440   3.096   6.066   0.653
78181SOL    HW236441   3.245   6.073   0.631
78182SOL     OW36442   7.954   4.889   8.156
78182SOL    HW136443   7.886   4.930   8.103
78182SOL    HW236444   7.942   4.795   8.142
78183SOL     OW36445   0.656   4.368   7.561
78183SOL    HW136446   0.626   4.285   7.599
78183SOL    HW236447   0.675   4.424   7.636
78184SOL     OW36448  12.241   0.322   2.304
78184SOL    HW136449  12.237   0.353   2.214
78184SOL    HW236450  12.200   0.391   2.356
78185SOL     OW36451  13.234   2.560   1.640
78185SOL    HW136452  13.225   2.643   1.686
78185SOL    HW236453  13.321   2.564   1.600
78186SOL     OW36454  13.009  13.613   2.865
78186SOL    HW136455  12.998  13.518   2.870
78186SOL    HW236456  12.980  13.644   2.951
78187SOL     OW36457  11.223  13.251   4.243
78187SOL    HW136458  11.193  13.206   4.164
78187SOL    HW236459  11.318  13.241   4.241
78188SOL     OW36460   5.137   4.634   5.231
78188SOL    HW136461   5.136   4.707   5.169
78188SOL    HW236462   5.075   4.570   5.195
78189SOL     OW36463   7.424  12.650   4.271
78189SOL    HW136464   7.386  12.737   4.257
78189SOL    HW236465   7.515  12.660   4.243
78190SOL     OW36466   6.327   1.926   8.097
78190SOL    HW136467   6.298   1.845   8.056
78190SOL    HW236468   6.247   1.964   8.135
78191SOL     OW36469   5.113   0.106  10.777
78191SOL    HW136470   5.068   0.049  10.840
78191SOL    HW236471   5.085   0.073  10.691
78192SOL     OW36472   8.264   0.831   9.264
78192SOL    HW136473   8.350   0.871   9.278
78192SOL    HW236474   8.227   0.879   9.190
78193SOL     OW36475  13.877  11.635   9.734
78193SOL    HW136476  13.862  11.709   9.792
78193SOL    HW236477  13.969  11.611   9.750
78194SOL     OW36478   8.489  13.148   9.760
78194SOL    HW136479   8.415  13.151   9.699
78194SOL    HW236480   8.499  13.238   9.790
78195SOL     OW36481   9.891  13.333  11.630
78195SOL    HW136482   9.900  13.280  11.551
78195SOL    HW236483   9.840  13.409  11.602
78196SOL     OW36484   2.324   3.767   1.710
78196SOL    HW136485   2.401   3.713   1.689
78196SOL    HW236486   2.342   3.851   1.669
78197SOL     OW36487   9.921  10.305  10.290
78197SOL    HW136488   9.904  10.212  10.276
78197SOL    HW236489   9.878  10.349  10.217
78198SOL     OW36490  11.004  12.356   2.186
78198SOL    HW136491  10.946  12.380   2.114
78198SOL    HW236492  10.946  12.342   2.260
78199SOL     OW36493  10.440   2.836   0.387
78199SOL    HW136494  10.404   2.861   0.301
78199SOL    HW236495  10.532   2.860   0.381
78200SOL     OW36496  10.026   3.398   1.206
78200SOL    HW136497  10.012   3.368   1.296
78200SOL    HW236498  10.012   3.493   1.211
78201SOL     OW36499   5.833   2.068   6.920
78201SOL    HW136500   5.764   2.132   6.939
78201SOL    HW236501   5.788   1.997   6.874
78202SOL     OW36502   0.155   6.764  10.004
78202SOL    HW136503   0.156   6.687   9.947
78202SOL    HW236504   0.080   6.815   9.973
78203SOL     OW36505   6.575  14.512   4.591
78203SOL    HW136506   6.523  14.562   4.528
78203SOL    HW236507   6.664  14.514   4.556
78204SOL     OW36508  12.285  13.907   7.585
78204SOL    HW136509  12.233  13.903   7.504
78204SOL    HW236510  12.318  13.997   7.588
78205SOL     OW36511  10.172  10.018   6.455
78205SOL    HW136512  10.153  10.020   6.361
78205SOL    HW236513  10.096  10.062   6.495
78206SOL     OW36514   4.945   2.119   1.633
78206SOL    HW136515   4.948   2.140   1.726
78206SOL    HW236516   4.902   2.034   1.629
78207SOL     OW36517   9.824  14.082  13.687
78207SOL    HW136518   9.832  14.068  13.782
78207SOL    HW236519   9.868  14.166  13.672
78208SOL     OW36520   4.049   2.783   0.607
78208SOL    HW136521   4.126   2.744   0.565
78208SOL    HW236522   4.043   2.871   0.568
78209SOL     OW36523   6.903   5.597   5.821
78209SOL    HW136524   6.990   5.563   5.842
78209SOL    HW236525   6.872   5.634   5.903
78210SOL     OW36526   5.362   6.933   4.577
78210SOL    HW136527   5.379   6.955   4.486
78210SOL    HW236528   5.294   6.995   4.605
78211SOL     OW36529   7.342   9.710   9.638
78211SOL    HW136530   7.328   9.648   9.709
78211SOL    HW236531   7.271   9.692   9.576
78212SOL     OW36532   6.392  12.766   5.256
78212SOL    HW136533   6.372  12.674   5.238
78212SOL    HW236534   6.406  12.769   5.351
78213SOL     OW36535  13.167   5.138   2.586
78213SOL    HW136536  13.177   5.201   2.658
78213SOL    HW236537  13.253   5.137   2.543
78214SOL     OW36538   1.737   1.727   4.084
78214SOL    HW136539   1.808   1.742   4.022
78214SOL    HW236540   1.716   1.813   4.119
78215SOL     OW36541  10.690  14.818   5.419
78215SOL    HW136542  10.697  14.725   5.442
78215SOL    HW236543  10.775  14.839   5.379
78216SOL     OW36544  13.135  14.595   3.104
78216SOL    HW136545  13.211  14.651   3.121
78216SOL    HW236546  13.082  14.646   3.042
78217SOL     OW36547  12.378   6.189   1.193
78217SOL    HW136548  12.321   6.157   1.123
78217SOL    HW236549  12.383   6.116   1.255
78218SOL     OW36550  14.740  10.978  10.547
78218SOL    HW136551  14.761  11.033  10.472
78218SOL    HW236552  14.818  10.923  10.559
78219SOL     OW36553   7.516   9.624   1.317
78219SOL    HW136554   7.549   9.563   1.383
78219SOL    HW236555   7.570   9.702   1.327
78220SOL     OW36556   1.207   0.095   0.100
78220SOL    HW136557   1.241   0.170   0.052
78220SOL    HW236558   1.167   0.133   0.179
78221SOL     OW36559   0.924   7.548   8.320
78221SOL    HW136560   0.862   7.481   8.349
78221SOL    HW236561   0.914   7.619   8.384
78222SOL     OW36562  10.202   5.975   9.982
78222SOL    HW136563  10.294   5.993   9.998
78222SOL    HW236564  10.159   6.061   9.987
78223SOL     OW36565  11.716   1.550  12.439
78223SOL    HW136566  11.711   1.530  12.533
78223SOL    HW236567  11.798   1.509  12.411
78224SOL     OW36568   3.221  12.390   7.172
78224SOL    HW136569   3.301  12.353   7.135
78224SOL    HW236570   3.235  12.388   7.267
78225SOL     OW36571  13.950   1.399   4.983
78225SOL    HW136572  13.878   1.385   5.045
78225SOL    HW236573  13.993   1.314   4.977
78226SOL     OW36574  10.973   2.472  13.669
78226SOL    HW136575  10.974   2.455  13.575
78226SOL    HW236576  10.886   2.444  13.697
78227SOL     OW36577  11.031   1.959   8.815
78227SOL    HW136578  11.089   1.965   8.739
78227SOL    HW236579  11.062   1.881   8.862
78228SOL     OW36580   1.536  14.343   3.001
78228SOL    HW136581   1.445  14.367   3.017
78228SOL    HW236582   1.540  14.328   2.907
78229SOL     OW36583   9.505   2.300  10.618
78229SOL    HW136584   9.525   2.273  10.528
78229SOL    HW236585   9.413   2.324  10.617
78230SOL     OW36586  12.234   5.150   3.259
78230SOL    HW136587  12.239   5.231   3.311
78230SOL    HW236588  12.248   5.080   3.323
78231SOL     OW36589  10.652  10.106   9.415
78231SOL    HW136590  10.730  10.140   9.459
78231SOL    HW236591  10.596  10.074   9.485
78232SOL     OW36592   5.809  11.079   0.918
78232SOL    HW136593   5.760  11.145   0.868
78232SOL    HW236594   5.749  11.006   0.927
78233SOL     OW36595   2.153  10.359   8.988
78233SOL    HW136596   2.215  10.359   8.915
78233SOL    HW236597   2.098  10.282   8.973
78234SOL     OW36598   6.714   6.109   4.234
78234SOL    HW136599   6.800   6.141   4.261
78234SOL    HW236600   6.659   6.119   4.312
78235SOL     OW36601   2.841   4.666  10.441
78235SOL    HW136602   2.797   4.581  10.445
78235SOL    HW236603   2.823   4.706  10.526
78236SOL     OW36604  10.349   4.762  13.111
78236SOL    HW136605  10.358   4.767  13.016
78236SOL    HW236606  10.254   4.752  13.126
78237SOL     OW36607  14.003  14.254  12.467
78237SOL    HW136608  14.032  14.339  12.433
78237SOL    HW236609  13.911  14.249  12.443
78238SOL     OW36610   3.002   1.118   0.677
78238SOL    HW136611   2.970   1.028   0.676
78238SOL    HW236612   3.077   1.117   0.737
78239SOL     OW36613   0.937  12.093  12.038
78239SOL    HW136614   0.929  12.152  12.113
78239SOL    HW236615   0.952  12.007  12.076
78240SOL     OW36616   4.393   9.374   8.404
78240SOL    HW136617   4.419   9.328   8.484
78240SOL    HW236618   4.312   9.330   8.376
78241SOL     OW36619   6.888   6.988  11.442
78241SOL    HW136620   6.911   7.008  11.533
78241SOL    HW236621   6.942   7.048  11.390
78242SOL     OW36622   7.319  14.633  12.557
78242SOL    HW136623   7.226  14.648  12.577
78242SOL    HW236624   7.338  14.694  12.486
78243SOL     OW36625   9.659   9.526   5.115
78243SOL    HW136626   9.586   9.491   5.064
78243SOL    HW236627   9.617   9.573   5.187
78244SOL     OW36628  10.915   6.737   4.455
78244SOL    HW136629  10.993   6.743   4.400
78244SOL    HW236630  10.851   6.794   4.412
78245SOL     OW36631   3.474  11.544   9.306
78245SOL    HW136632   3.492  11.626   9.351
78245SOL    HW236633   3.488  11.563   9.214
78246SOL     OW36634   5.228   2.393   8.603
78246SOL    HW136635   5.191   2.480   8.592
78246SOL    HW236636   5.155   2.339   8.634
78247SOL     OW36637   3.475   1.784   6.744
78247SOL    HW136638   3.507   1.693   6.743
78247SOL    HW236639   3.452   1.801   6.653
78248SOL     OW36640  12.103   3.894   6.753
78248SOL    HW136641  12.028   3.843   6.722
78248SOL    HW236642  12.091   3.980   6.714
78249SOL     OW36643   9.139  14.334  10.282
78249SOL    HW136644   9.220  14.371  10.249
78249SOL    HW236645   9.158  14.308  10.372
78250SOL     OW36646   1.654   7.615   7.972
78250SOL    HW136647   1.563   7.593   7.954
78250SOL    HW236648   1.688   7.541   8.021
78251SOL     OW36649   3.748   0.390  12.614
78251SOL    HW136650   3.831   0.402  12.659
78251SOL    HW236651   3.682   0.397  12.683
78252SOL     OW36652   1.808   5.778   3.967
78252SOL    HW136653   1.885   5.750   4.016
78252SOL    HW236654   1.767   5.844   4.022
78253SOL     OW36655   2.514  10.133   0.706
78253SOL    HW136656   2.597  10.108   0.746
78253SOL    HW236657   2.448  10.093   0.763
78254SOL     OW36658   6.850  12.187   4.005
78254SOL    HW136659   6.801  12.168   3.925
78254SOL    HW236660   6.942  12.175   3.980
78255SOL     OW36661   2.982   0.719  11.944
78255SOL    HW136662   3.073   0.742  11.963
78255SOL    HW236663   2.968   0.637  11.991
78256SOL     OW36664  13.533   1.209   7.341
78256SOL    HW136665  13.593   1.245   7.406
78256SOL    HW236666  13.557   1.252   7.259
78257SOL     OW36667  11.192   8.280  10.240
78257SOL    HW136668  11.277   8.238  10.229
78257SOL    HW236669  11.139   8.215  10.286
78258SOL     OW36670   0.246  10.798  11.503
78258SOL    HW136671   0.329  10.798  11.551
78258SOL    HW236672   0.270  10.823  11.414
78259SOL     OW36673  14.048   1.980   4.196
78259SOL    HW136674  14.099   1.907   4.162
78259SOL    HW236675  13.980   1.939   4.250
78260SOL     OW36676   6.440   5.270   8.788
78260SOL    HW136677   6.470   5.330   8.720
78260SOL    HW236678   6.345   5.283   8.792
78261SOL     OW36679   6.546   5.707   8.627
78261SOL    HW136680   6.601   5.726   8.551
78261SOL    HW236681   6.575   5.620   8.656
78262SOL     OW36682   8.945   8.172   8.631
78262SOL    HW136683   8.874   8.155   8.693
78262SOL    HW236684   8.929   8.262   8.601
78263SOL     OW36685   9.356   1.098   6.413
78263SOL    HW136686   9.275   1.048   6.418
78263SOL    HW236687   9.375   1.102   6.319
78264SOL     OW36688   3.722   6.370   2.923
78264SOL    HW136689   3.648   6.418   2.885
78264SOL    HW236690   3.727   6.401   3.013
78265SOL     OW36691   0.801  11.205   6.611
78265SOL    HW136692   0.747  11.193   6.534
78265SOL    HW236693   0.759  11.152   6.679
78266SOL     OW36694   8.021  11.499   0.103
78266SOL    HW136695   8.084  11.546   0.158
78266SOL    HW236696   7.969  11.448   0.165
78267SOL     OW36697   6.316   4.772  10.348
78267SOL    HW136698   6.394   4.792  10.297
78267SOL    HW236699   6.288   4.857  10.383
78268SOL     OW36700  11.172  13.675  12.337
78268SOL    HW136701  11.137  13.723  12.262
78268SOL    HW236702  11.242  13.731  12.371
78269SOL     OW36703   4.155  10.303   4.346
78269SOL    HW136704   4.135  10.254   4.266
78269SOL    HW236705   4.115  10.388   4.333
78270SOL     OW36706   1.742   0.139  13.056
78270SOL    HW136707   1.806   0.155  12.986
78270SOL    HW236708   1.694   0.061  13.027
78271SOL     OW36709   3.333  13.831   4.804
78271SOL    HW136710   3.322  13.922   4.774
78271SOL    HW236711   3.245  13.795   4.806
78272SOL     OW36712   9.691   7.456   9.081
78272SOL    HW136713   9.771   7.448   9.030
78272SOL    HW236714   9.653   7.539   9.052
78273SOL     OW36715   1.802   9.282  13.503
78273SOL    HW136716   1.737   9.262  13.571
78273SOL    HW236717   1.772   9.365  13.466
78274SOL     OW36718  12.240   5.803  11.618
78274SOL    HW136719  12.325   5.797  11.573
78274SOL    HW236720  12.234   5.895  11.644
78275SOL     OW36721   0.388  12.689   4.023
78275SOL    HW136722   0.344  12.607   4.002
78275SOL    HW236723   0.412  12.679   4.116
78276SOL     OW36724   0.077   0.196   9.596
78276SOL    HW136725   0.099   0.240   9.678
78276SOL    HW236726  14.854   0.195   9.594
78277SOL     OW36727   1.055   3.677   3.108
78277SOL    HW136728   1.141   3.714   3.087
78277SOL    HW236729   1.045   3.605   3.046
78278SOL     OW36730   2.121   2.865   0.799
78278SOL    HW136731   2.078   2.933   0.746
78278SOL    HW236732   2.133   2.792   0.738
78279SOL     OW36733   5.023  10.404   2.442
78279SOL    HW136734   5.046  10.460   2.368
78279SOL    HW236735   5.045  10.456   2.519
78280SOL     OW36736   5.184  11.694   8.916
78280SOL    HW136737   5.170  11.601   8.930
78280SOL    HW236738   5.275  11.709   8.943
78281SOL     OW36739  14.606   7.281  14.307
78281SOL    HW136740  14.625   7.194  14.342
78281SOL    HW236741  14.511   7.281  14.295
78282SOL     OW36742  13.150   3.302   6.754
78282SOL    HW136743  13.102   3.375   6.792
78282SOL    HW236744  13.224   3.343   6.710
78283SOL     OW36745   6.719   6.978  12.221
78283SOL    HW136746   6.636   6.935  12.243
78283SOL    HW236747   6.705   7.011  12.132
78284SOL     OW36748  13.430  11.283   4.611
78284SOL    HW136749  13.525  11.281   4.624
78284SOL    HW236750  13.415  11.228   4.534
78285SOL     OW36751  11.780   1.481   3.441
78285SOL    HW136752  11.762   1.471   3.348
78285SOL    HW236753  11.853   1.544   3.444
78286SOL     OW36754  13.219   9.706   8.402
78286SOL    HW136755  13.126   9.693   8.384
78286SOL    HW236756  13.242   9.785   8.353
78287SOL     OW36757   0.731  10.183   2.806
78287SOL    HW136758   0.796  10.118   2.778
78287SOL    HW236759   0.653  10.163   2.755
78288SOL     OW36760   2.591   4.239   2.114
78288SOL    HW136761   2.654   4.172   2.141
78288SOL    HW236762   2.543   4.198   2.042
78289SOL     OW36763   1.010  12.804  14.177
78289SOL    HW136764   1.046  12.838  14.095
78289SOL    HW236765   0.995  12.882  14.231
78290SOL     OW36766   8.565   3.301  13.317
78290SOL    HW136767   8.539   3.288  13.408
78290SOL    HW236768   8.571   3.396  13.308
78291SOL     OW36769  12.420   4.220   0.968
78291SOL    HW136770  12.378   4.239   1.052
78291SOL    HW236771  12.510   4.250   0.978
78292SOL     OW36772   7.622  13.877   7.775
78292SOL    HW136773   7.593  13.837   7.693
78292SOL    HW236774   7.545  13.875   7.832
78293SOL     OW36775   0.496  13.456   1.206
78293SOL    HW136776   0.449  13.374   1.193
78293SOL    HW236777   0.520  13.485   1.118
78294SOL     OW36778  10.263  14.437   4.448
78294SOL    HW136779  10.313  14.369   4.491
78294SOL    HW236780  10.326  14.480   4.390
78295SOL     OW36781  13.968   8.287   5.563
78295SOL    HW136782  13.932   8.332   5.487
78295SOL    HW236783  13.920   8.204   5.567
78296SOL     OW36784  11.269   0.529   1.376
78296SOL    HW136785  11.205   0.566   1.437
78296SOL    HW236786  11.340   0.593   1.373
78297SOL     OW36787  14.625   2.170   6.401
78297SOL    HW136788  14.565   2.096   6.408
78297SOL    HW236789  14.644   2.176   6.307
78298SOL     OW36790  14.590   8.317   1.212
78298SOL    HW136791  14.570   8.309   1.306
78298SOL    HW236792  14.648   8.242   1.194
78299SOL     OW36793   7.915  12.871   1.887
78299SOL    HW136794   7.869  12.898   1.808
78299SOL    HW236795   7.984  12.812   1.856
78300SOL     OW36796  10.366  10.128   4.257
78300SOL    HW136797  10.392  10.093   4.172
78300SOL    HW236798  10.444  10.174   4.288
78301SOL     OW36799   5.422   7.593   1.638
78301SOL    HW136800   5.362   7.660   1.671
78301SOL    HW236801   5.494   7.591   1.701
78302SOL     OW36802   2.286  13.321   3.730
78302SOL    HW136803   2.372  13.331   3.689
78302SOL    HW236804   2.275  13.400   3.783
78303SOL     OW36805   9.896  12.587   0.537
78303SOL    HW136806   9.941  12.510   0.569
78303SOL    HW236807   9.862  12.630   0.616
78304SOL     OW36808   5.368   8.765   0.837
78304SOL    HW136809   5.445   8.820   0.828
78304SOL    HW236810   5.385   8.712   0.915
78305SOL     OW36811   8.290   5.188   5.879
78305SOL    HW136812   8.322   5.116   5.824
78305SOL    HW236813   8.321   5.267   5.837
78306SOL     OW36814   6.607   6.818   4.720
78306SOL    HW136815   6.541   6.827   4.789
78306SOL    HW236816   6.582   6.883   4.655
78307SOL     OW36817   7.782  10.196  11.449
78307SOL    HW136818   7.809  10.141  11.523
78307SOL    HW236819   7.691  10.218  11.468
78308SOL     OW36820   8.975   8.474   4.045
78308SOL    HW136821   8.946   8.418   4.117
78308SOL    HW236822   8.918   8.451   3.972
78309SOL     OW36823   0.443   4.385  14.331
78309SOL    HW136824   0.410   4.349  14.413
78309SOL    HW236825   0.532   4.349  14.322
78310SOL     OW36826   8.449   3.659  13.559
78310SOL    HW136827   8.540   3.631  13.557
78310SOL    HW236828   8.439   3.714  13.481
78311SOL     OW36829  13.520   8.449  12.309
78311SOL    HW136830  13.483   8.454  12.221
78311SOL    HW236831  13.512   8.537  12.344
78312SOL     OW36832   0.128   6.224   4.164
78312SOL    HW136833   0.068   6.278   4.112
78312SOL    HW236834   0.073   6.157   4.203
78313SOL     OW36835   5.409   6.864  13.408
78313SOL    HW136836   5.465   6.786  13.399
78313SOL    HW236837   5.407   6.902  13.320
78314SOL     OW36838   2.838   2.424  13.230
78314SOL    HW136839   2.894   2.364  13.180
78314SOL    HW236840   2.750   2.386  13.223
78315SOL     OW36841  13.618  10.450  13.061
78315SOL    HW136842  13.578  10.419  13.143
78315SOL    HW236843  13.710  10.425  13.070
78316SOL     OW36844   8.407  12.648  10.765
78316SOL    HW136845   8.349  12.711  10.807
78316SOL    HW236846   8.357  12.615  10.690
78317SOL     OW36847   4.023  10.712   9.702
78317SOL    HW136848   3.997  10.705   9.794
78317SOL    HW236849   3.971  10.785   9.668
78318SOL     OW36850   0.460  13.692  14.007
78318SOL    HW136851   0.474  13.673  13.914
78318SOL    HW236852   0.450  13.606  14.048
78319SOL     OW36853  12.882  14.369   2.145
78319SOL    HW136854  12.938  14.292   2.136
78319SOL    HW236855  12.793  14.335   2.143
78320SOL     OW36856   0.489   6.361   4.794
78320SOL    HW136857   0.512   6.433   4.853
78320SOL    HW236858   0.570   6.344   4.745
78321SOL     OW36859  13.362  12.458   7.011
78321SOL    HW136860  13.314  12.526   6.964
78321SOL    HW236861  13.441  12.502   7.043
78322SOL     OW36862   2.708  14.177   2.739
78322SOL    HW136863   2.727  14.087   2.765
78322SOL    HW236864   2.794  14.217   2.726
78323SOL     OW36865  12.318  10.228  11.561
78323SOL    HW136866  12.388  10.215  11.625
78323SOL    HW236867  12.352  10.194  11.479
78324SOL     OW36868   5.455   7.314   6.122
78324SOL    HW136869   5.524   7.342   6.182
78324SOL    HW236870   5.419   7.235   6.163
78325SOL     OW36871  11.347  12.621  13.355
78325SOL    HW136872  11.341  12.684  13.284
78325SOL    HW236873  11.339  12.536  13.312
78326SOL     OW36874   6.510   8.931   2.582
78326SOL    HW136875   6.433   8.981   2.609
78326SOL    HW236876   6.537   8.884   2.660
78327SOL     OW36877   8.524   4.256  11.038
78327SOL    HW136878   8.553   4.344  11.061
78327SOL    HW236879   8.430   4.256  11.056
78328SOL     OW36880   4.467  12.451   2.836
78328SOL    HW136881   4.505  12.455   2.748
78328SOL    HW236882   4.536  12.411   2.889
78329SOL     OW36883   4.892  12.134   9.338
78329SOL    HW136884   4.884  12.086   9.420
78329SOL    HW236885   4.844  12.216   9.353
78330SOL     OW36886  11.527   6.266   4.546
78330SOL    HW136887  11.537   6.302   4.635
78330SOL    HW236888  11.473   6.188   4.558
78331SOL     OW36889   4.438   5.451  11.584
78331SOL    HW136890   4.443   5.512  11.510
78331SOL    HW236891   4.417   5.366  11.544
78332SOL     OW36892   2.328   7.931   8.390
78332SOL    HW136893   2.372   7.954   8.309
78332SOL    HW236894   2.244   7.978   8.386
78333SOL     OW36895   3.862   9.331   4.806
78333SOL    HW136896   3.898   9.412   4.771
78333SOL    HW236897   3.937   9.287   4.846
78334SOL     OW36898  13.374   0.503   5.471
78334SOL    HW136899  13.459   0.544   5.458
78334SOL    HW236900  13.310   0.569   5.444
78335SOL     OW36901   3.752   1.746  10.501
78335SOL    HW136902   3.720   1.794  10.577
78335SOL    HW236903   3.676   1.695  10.472
78336SOL     OW36904  11.571   7.792   6.838
78336SOL    HW136905  11.593   7.791   6.931
78336SOL    HW236906  11.580   7.701   6.811
78337SOL     OW36907   7.955   5.645  12.893
78337SOL    HW136908   7.924   5.563  12.855
78337SOL    HW236909   8.005   5.619  12.970
78338SOL     OW36910   8.492   7.519   4.533
78338SOL    HW136911   8.399   7.525   4.555
78338SOL    HW236912   8.538   7.526   4.617
78339SOL     OW36913   4.035   9.038  12.343
78339SOL    HW136914   4.022   9.119  12.391
78339SOL    HW236915   4.071   8.977  12.407
78340SOL     OW36916  11.784  11.566  12.635
78340SOL    HW136917  11.820  11.598  12.718
78340SOL    HW236918  11.833  11.486  12.616
78341SOL     OW36919  11.858   1.262  14.199
78341SOL    HW136920  11.910   1.298  14.127
78341SOL    HW236921  11.771   1.249  14.161
78342SOL     OW36922   7.644   3.516  13.030
78342SOL    HW136923   7.730   3.516  12.988
78342SOL    HW236924   7.649   3.584  13.097
78343SOL     OW36925   8.653   3.137   7.873
78343SOL    HW136926   8.596   3.097   7.939
78343SOL    HW236927   8.646   3.080   7.797
78344SOL     OW36928   1.534   9.017   7.156
78344SOL    HW136929   1.507   8.946   7.213
78344SOL    HW236930   1.453   9.066   7.138
78345SOL     OW36931   7.654   8.524  10.658
78345SOL    HW136932   7.589   8.466  10.699
78345SOL    HW236933   7.738   8.480  10.672
78346SOL     OW36934  10.364  13.853   0.984
78346SOL    HW136935  10.271  13.832   0.987
78346SOL    HW236936  10.408  13.775   1.017
78347SOL     OW36937   7.160  12.449   7.569
78347SOL    HW136938   7.238  12.440   7.515
78347SOL    HW236939   7.098  12.386   7.534
78348SOL     OW36940   3.609  14.657  10.921
78348SOL    HW136941   3.544  14.636  10.989
78348SOL    HW236942   3.639  14.745  10.944
78349SOL     OW36943   2.345  10.378  11.327
78349SOL    HW136944   2.414  10.339  11.379
78349SOL    HW236945   2.386  10.453  11.283
78350SOL     OW36946   0.626  12.508  12.022
78350SOL    HW136947   0.565  12.438  11.999
78350SOL    HW236948   0.680  12.520  11.944
78351SOL     OW36949   6.637   2.709   5.704
78351SOL    HW136950   6.548   2.679   5.723
78351SOL    HW236951   6.636   2.729   5.610
78352SOL     OW36952   4.314   3.644  11.882
78352SOL    HW136953   4.406   3.622  11.867
78352SOL    HW236954   4.265   3.588  11.822
78353SOL     OW36955   0.346   8.512   7.583
78353SOL    HW136956   0.317   8.585   7.528
78353SOL    HW236957   0.434   8.491   7.551
78354SOL     OW36958  10.900  12.137   0.812
78354SOL    HW136959  10.963  12.065   0.802
78354SOL    HW236960  10.815  12.095   0.813
78355SOL     OW36961   1.317  14.150   9.564
78355SOL    HW136962   1.261  14.099   9.506
78355SOL    HW236963   1.283  14.132   9.652
78356SOL     OW36964   9.522   4.796   8.568
78356SOL    HW136965   9.565   4.882   8.565
78356SOL    HW236966   9.513   4.776   8.661
78357SOL     OW36967  12.877   1.064   2.807
78357SOL    HW136968  12.803   1.090   2.861
78357SOL    HW236969  12.931   1.009   2.863
78358SOL     OW36970  11.935  13.306   5.873
78358SOL    HW136971  11.945  13.382   5.930
78358SOL    HW236972  11.844  13.280   5.883
78359SOL     OW36973   7.060  11.702   2.742
78359SOL    HW136974   7.154  11.685   2.751
78359SOL    HW236975   7.028  11.627   2.691
78360SOL     OW36976   7.863   6.952  12.945
78360SOL    HW136977   7.776   6.912  12.954
78360SOL    HW236978   7.846   7.035  12.899
78361SOL     OW36979   1.742  10.114   6.885
78361SOL    HW136980   1.824  10.103   6.836
78361SOL    HW236981   1.732  10.032   6.933
78362SOL     OW36982   9.719   4.069   6.011
78362SOL    HW136983   9.779   4.124   5.961
78362SOL    HW236984   9.674   4.129   6.071
78363SOL     OW36985  14.401   8.888   4.342
78363SOL    HW136986  14.328   8.862   4.285
78363SOL    HW236987  14.361   8.900   4.428
78364SOL     OW36988   2.898  11.607   2.775
78364SOL    HW136989   2.955  11.531   2.766
78364SOL    HW236990   2.909  11.636   2.865
78365SOL     OW36991  10.754   2.110   1.062
78365SOL    HW136992  10.679   2.142   1.012
78365SOL    HW236993  10.733   2.130   1.153
78366SOL     OW36994  11.278   1.122   4.633
78366SOL    HW136995  11.353   1.063   4.642
78366SOL    HW236996  11.275   1.170   4.716
78367SOL     OW36997   0.639   0.816   2.299
78367SOL    HW136998   0.552   0.834   2.265
78367SOL    HW236999   0.625   0.797   2.392
78368SOL     OW37000   7.309   4.942  14.197
78368SOL    HW137001   7.386   4.897  14.162
78368SOL    HW237002   7.337   5.033  14.207
78369SOL     OW37003   4.945  13.533   7.346
78369SOL    HW137004   5.012  13.548   7.280
78369SOL    HW237005   4.992  13.542   7.430
78370SOL     OW37006   2.671  10.194   6.533
78370SOL    HW137007   2.614  10.221   6.462
78370SOL    HW237008   2.663  10.099   6.536
78371SOL     OW37009  14.335  14.699   5.980
78371SOL    HW137010  14.355  14.609   5.955
78371SOL    HW237011  14.263  14.726   5.922
78372SOL     OW37012   5.722   1.218  10.755
78372SOL    HW137013   5.665   1.259  10.691
78372SOL    HW237014   5.669   1.147  10.792
78373SOL     OW37015   5.358   9.902   3.693
78373SOL    HW137016   5.280   9.906   3.749
78373SOL    HW237017   5.323   9.885   3.605
78374SOL     OW37018  11.000   4.642  11.678
78374SOL    HW137019  10.916   4.661  11.720
78374SOL    HW237020  11.058   4.618  11.750
78375SOL     OW37021   9.879   5.762   4.102
78375SOL    HW137022   9.816   5.694   4.123
78375SOL    HW237023   9.935   5.768   4.180
78376SOL     OW37024  13.727   2.219   2.360
78376SOL    HW137025  13.695   2.224   2.450
78376SOL    HW237026  13.676   2.148   2.320
78377SOL     OW37027  11.730   7.900  12.391
78377SOL    HW137028  11.658   7.840  12.408
78377SOL    HW237029  11.800   7.872  12.450
78378SOL     OW37030   7.961   9.626  11.507
78378SOL    HW137031   7.901   9.698  11.485
78378SOL    HW237032   7.964   9.572  11.428
78379SOL     OW37033   5.472  13.074   0.267
78379SOL    HW137034   5.493  13.091   0.175
78379SOL    HW237035   5.423  12.992   0.266
78380SOL     OW37036  11.434   2.648   0.535
78380SOL    HW137037  11.479   2.600   0.605
78380SOL    HW237038  11.433   2.739   0.565
78381SOL     OW37039   5.577   4.208  11.079
78381SOL    HW137040   5.497   4.171  11.042
78381SOL    HW237041   5.644   4.194  11.012
78382SOL     OW37042  10.012  12.475   7.811
78382SOL    HW137043   9.991  12.393   7.854
78382SOL    HW237044  10.107  12.476   7.805
78383SOL     OW37045   5.166   5.869  11.462
78383SOL    HW137046   5.179   5.954  11.418
78383SOL    HW237047   5.071   5.863  11.473
78384SOL     OW37048   7.205  13.022   8.775
78384SOL    HW137049   7.236  12.942   8.733
78384SOL    HW237050   7.123  12.998   8.818
78385SOL     OW37051  11.776  13.482  11.230
78385SOL    HW137052  11.721  13.546  11.276
78385SOL    HW237053  11.822  13.534  11.164
78386SOL     OW37054   4.800  12.188   5.880
78386SOL    HW137055   4.721  12.180   5.827
78386SOL    HW237056   4.782  12.136   5.958
78387SOL     OW37057   3.900  13.473   1.394
78387SOL    HW137058   3.928  13.460   1.303
78387SOL    HW237059   3.808  13.498   1.386
78388SOL     OW37060   9.921   2.941   3.854
78388SOL    HW137061   9.916   2.874   3.785
78388SOL    HW237062   9.926   3.024   3.806
78389SOL     OW37063   2.354   6.433   2.976
78389SOL    HW137064   2.338   6.354   2.926
78389SOL    HW237065   2.389   6.496   2.912
78390SOL     OW37066   8.261  12.529  13.102
78390SOL    HW137067   8.291  12.569  13.183
78390SOL    HW237068   8.340  12.491  13.064
78391SOL     OW37069  10.497   7.053   0.009
78391SOL    HW137070  10.409   7.018   0.016
78391SOL    HW237071  10.488   7.145   0.035
78392SOL     OW37072   5.446   6.503  11.922
78392SOL    HW137073   5.431   6.584  11.873
78392SOL    HW237074   5.465   6.438  11.855
78393SOL     OW37075  11.085  14.758   9.109
78393SOL    HW137076  11.130  14.705   9.044
78393SOL    HW237077  11.053  14.833   9.061
78394SOL     OW37078   3.047   4.620   1.195
78394SOL    HW137079   2.968   4.640   1.246
78394SOL    HW237080   3.103   4.697   1.207
78395SOL     OW37081   7.952   7.768   4.601
78395SOL    HW137082   7.878   7.830   4.600
78395SOL    HW237083   7.965   7.746   4.509
78396SOL     OW37084   5.366  14.596   8.182
78396SOL    HW137085   5.366  14.533   8.110
78396SOL    HW237086   5.311  14.556   8.249
78397SOL     OW37087  12.986   8.555  12.693
78397SOL    HW137088  13.066   8.584  12.648
78397SOL    HW237089  12.928   8.631  12.690
78398SOL     OW37090  13.239   0.469   6.234
78398SOL    HW137091  13.324   0.497   6.269
78398SOL    HW237092  13.260   0.400   6.171
78399SOL     OW37093  10.765  12.901  12.744
78399SOL    HW137094  10.774  12.828  12.805
78399SOL    HW237095  10.847  12.950  12.752
78400SOL     OW37096   5.957   0.275  12.051
78400SOL    HW137097   5.948   0.193  12.100
78400SOL    HW237098   5.984   0.339  12.117
78401SOL     OW37099   2.933   5.694   9.548
78401SOL    HW137100   2.882   5.764   9.507
78401SOL    HW237101   2.869   5.629   9.575
78402SOL     OW37102   4.082  14.226   7.810
78402SOL    HW137103   4.027  14.274   7.872
78402SOL    HW237104   4.133  14.166   7.865
78403SOL     OW37105   0.721   4.074   6.783
78403SOL    HW137106   0.699   4.022   6.860
78403SOL    HW237107   0.684   4.026   6.709
78404SOL     OW37108   3.950   8.535  14.150
78404SOL    HW137109   3.866   8.555  14.109
78404SOL    HW237110   4.006   8.506  14.079
78405SOL     OW37111   7.760   7.778  10.143
78405SOL    HW137112   7.824   7.826  10.196
78405SOL    HW237113   7.811   7.740  10.071
78406SOL     OW37114  14.415   7.265  13.408
78406SOL    HW137115  14.403   7.191  13.349
78406SOL    HW237116  14.494   7.242  13.458
78407SOL     OW37117   2.929   9.142   5.680
78407SOL    HW137118   3.010   9.098   5.705
78407SOL    HW237119   2.950   9.187   5.598
78408SOL     OW37120   2.110   1.589   6.694
78408SOL    HW137121   2.174   1.579   6.624
78408SOL    HW237122   2.027   1.563   6.656
78409SOL     OW37123  10.531   0.143   5.878
78409SOL    HW137124  10.591   0.082   5.921
78409SOL    HW237125  10.475   0.087   5.825
78410SOL     OW37126   8.394  14.420  14.490
78410SOL    HW137127   8.405  14.407  14.584
78410SOL    HW237128   8.390  14.515  14.479
78411SOL     OW37129   6.606  10.364  13.499
78411SOL    HW137130   6.521  10.407  13.511
78411SOL    HW237131   6.604  10.290  13.560
78412SOL     OW37132   2.725   9.957   8.370
78412SOL    HW137133   2.783   9.986   8.300
78412SOL    HW237134   2.782   9.908   8.429
78413SOL     OW37135  13.398  10.390   7.845
78413SOL    HW137136  13.306  10.415   7.844
78413SOL    HW237137  13.443  10.465   7.881
78414SOL     OW37138   8.251  13.059  14.235
78414SOL    HW137139   8.218  13.062  14.325
78414SOL    HW237140   8.215  13.138  14.194
78415SOL     OW37141  14.284  10.159   4.130
78415SOL    HW137142  14.233  10.212   4.069
78415SOL    HW237143  14.374  10.189   4.119
78416SOL     OW37144  10.037  12.375  10.788
78416SOL    HW137145  10.087  12.294  10.798
78416SOL    HW237146  10.059  12.426  10.867
78417SOL     OW37147  14.150   6.175   3.406
78417SOL    HW137148  14.232   6.177   3.357
78417SOL    HW237149  14.175   6.143   3.493
78418SOL     OW37150   7.600  12.387   5.478
78418SOL    HW137151   7.559  12.425   5.556
78418SOL    HW237152   7.607  12.294   5.497
78419SOL     OW37153   2.515   4.213   2.870
78419SOL    HW137154   2.534   4.180   2.958
78419SOL    HW237155   2.560   4.153   2.811
78420SOL     OW37156  10.717  11.579   5.146
78420SOL    HW137157  10.665  11.658   5.131
78420SOL    HW237158  10.669  11.510   5.100
78421SOL     OW37159  11.436   4.496  13.038
78421SOL    HW137160  11.344   4.494  13.065
78421SOL    HW237161  11.436   4.459  12.950
78422SOL     OW37162   8.102   9.675  14.354
78422SOL    HW137163   8.093   9.612  14.283
78422SOL    HW237164   8.081   9.625  14.433
78423SOL     OW37165   4.331  12.378  11.292
78423SOL    HW137166   4.360  12.301  11.341
78423SOL    HW237167   4.412  12.423  11.267
78424SOL     OW37168  10.935   0.960   5.245
78424SOL    HW137169  10.880   0.954   5.167
78424SOL    HW237170  10.973   0.873   5.255
78425SOL     OW37171   2.734   7.636   2.241
78425SOL    HW137172   2.802   7.681   2.292
78425SOL    HW237173   2.661   7.698   2.240
78426SOL     OW37174  12.848   2.605  12.843
78426SOL    HW137175  12.818   2.668  12.778
78426SOL    HW237176  12.913   2.551  12.797
78427SOL     OW37177   5.052   6.281  11.449
78427SOL    HW137178   5.120   6.274  11.382
78427SOL    HW237179   5.011   6.367  11.432
78428SOL     OW37180  11.715   0.420  11.850
78428SOL    HW137181  11.700   0.514  11.841
78428SOL    HW237182  11.656   0.380  11.785
78429SOL     OW37183  14.626  14.610   9.547
78429SOL    HW137184  14.698  14.667   9.521
78429SOL    HW237185  14.604  14.561   9.468
78430SOL     OW37186   9.670   6.763   8.917
78430SOL    HW137187   9.624   6.783   8.998
78430SOL    HW237188   9.643   6.831   8.856
78431SOL     OW37189  13.043   9.626  11.728
78431SOL    HW137190  13.111   9.692  11.743
78431SOL    HW237191  13.090   9.555  11.683
78432SOL     OW37192   8.768   5.864   8.310
78432SOL    HW137193   8.833   5.806   8.349
78432SOL    HW237194   8.743   5.923   8.380
78433SOL     OW37195  12.877   1.226   0.558
78433SOL    HW137196  12.829   1.309   0.567
78433SOL    HW237197  12.966   1.252   0.534
78434SOL     OW37198   0.722   3.217   1.261
78434SOL    HW137199   0.758   3.180   1.181
78434SOL    HW237200   0.641   3.167   1.276
78435SOL     OW37201   2.461   8.887   1.252
78435SOL    HW137202   2.487   8.955   1.314
78435SOL    HW237203   2.406   8.827   1.302
78436SOL     OW37204  11.987   2.293   2.641
78436SOL    HW137205  11.996   2.270   2.549
78436SOL    HW237206  11.992   2.389   2.642
78437SOL     OW37207   2.498  12.664  14.049
78437SOL    HW137208   2.570  12.605  14.072
78437SOL    HW237209   2.473  12.705  14.132
78438SOL     OW37210   2.750   1.296   9.699
78438SOL    HW137211   2.713   1.239   9.767
78438SOL    HW237212   2.782   1.235   9.633
78439SOL     OW37213  14.337   7.739   5.232
78439SOL    HW137214  14.356   7.831   5.213
78439SOL    HW237215  14.374   7.725   5.319
78440SOL     OW37216   3.263   3.227   1.940
78440SOL    HW137217   3.236   3.281   2.014
78440SOL    HW237218   3.220   3.143   1.955
78441SOL     OW37219   5.070   8.357   1.929
78441SOL    HW137220   4.984   8.374   1.966
78441SOL    HW237221   5.055   8.354   1.834
78442SOL     OW37222  11.249  10.216   2.691
78442SOL    HW137223  11.155  10.218   2.670
78442SOL    HW237224  11.292  10.216   2.605
78443SOL     OW37225  10.577  11.575   0.331
78443SOL    HW137226  10.552  11.506   0.270
78443SOL    HW237227  10.666  11.552   0.359
78444SOL     OW37228   8.808   4.153  12.553
78444SOL    HW137229   8.747   4.110  12.493
78444SOL    HW237230   8.758   4.226  12.589
78445SOL     OW37231   9.606   5.250   7.077
78445SOL    HW137232   9.523   5.285   7.044
78445SOL    HW237233   9.656   5.230   6.998
78446SOL     OW37234   8.577   0.926   7.332
78446SOL    HW137235   8.572   0.995   7.266
78446SOL    HW237236   8.635   0.860   7.293
78447SOL     OW37237  12.455   4.865   4.108
78447SOL    HW137238  12.402   4.915   4.170
78447SOL    HW237239  12.535   4.846   4.156
78448SOL     OW37240  12.385  14.502  14.433
78448SOL    HW137241  12.371  14.575  14.493
78448SOL    HW237242  12.391  14.425  14.490
78449SOL     OW37243   4.840   4.071   3.794
78449SOL    HW137244   4.916   4.085   3.850
78449SOL    HW237245   4.795   4.155   3.792
78450SOL     OW37246   1.312  14.537  13.653
78450SOL    HW137247   1.298  14.507  13.743
78450SOL    HW237248   1.399  14.576  13.655
78451SOL     OW37249  12.073   4.128   0.186
78451SOL    HW137250  12.099   4.041   0.154
78451SOL    HW237251  12.052   4.114   0.278
78452SOL     OW37252   5.434   8.721   4.798
78452SOL    HW137253   5.388   8.640   4.774
78452SOL    HW237254   5.434   8.721   4.894
78453SOL     OW37255   2.438   9.269   3.611
78453SOL    HW137256   2.391   9.259   3.529
78453SOL    HW237257   2.374   9.247   3.679
78454SOL     OW37258  10.586  10.455   8.589
78454SOL    HW137259  10.663  10.512   8.585
78454SOL    HW237260  10.514  10.510   8.558
78455SOL     OW37261  11.202  13.900   1.839
78455SOL    HW137262  11.175  13.867   1.925
78455SOL    HW237263  11.126  13.947   1.806
78456SOL     OW37264  11.255  11.787   9.457
78456SOL    HW137265  11.285  11.765   9.545
78456SOL    HW237266  11.260  11.882   9.452
78457SOL     OW37267  11.276  11.651  11.646
78457SOL    HW137268  11.241  11.732  11.611
78457SOL    HW237269  11.203  11.589  11.642
78458SOL     OW37270  10.367   6.752   0.647
78458SOL    HW137271  10.282   6.709   0.638
78458SOL    HW237272  10.359   6.832   0.595
78459SOL     OW37273  13.171   8.422   1.566
78459SOL    HW137274  13.201   8.338   1.532
78459SOL    HW237275  13.252   8.470   1.587
78460SOL     OW37276  10.907   2.134  11.458
78460SOL    HW137277  10.963   2.063  11.427
78460SOL    HW237278  10.882   2.108  11.547
78461SOL     OW37279   5.512   4.073  12.332
78461SOL    HW137280   5.549   3.985  12.319
78461SOL    HW237281   5.417   4.060  12.325
78462SOL     OW37282  10.963  14.648  14.118
78462SOL    HW137283  10.981  14.557  14.096
78462SOL    HW237284  11.022  14.667  14.191
78463SOL     OW37285   7.772   7.702  11.239
78463SOL    HW137286   7.694   7.652  11.263
78463SOL    HW237287   7.744   7.758  11.167
78464SOL     OW37288  10.008  10.045  12.802
78464SOL    HW137289  10.015  10.012  12.892
78464SOL    HW237290  10.015  10.140  12.811
78465SOL     OW37291   0.987   2.276  13.995
78465SOL    HW137292   1.017   2.194  14.033
78465SOL    HW237293   0.998   2.341  14.065
78466SOL     OW37294  12.763  14.027   6.952
78466SOL    HW137295  12.745  13.969   7.027
78466SOL    HW237296  12.683  14.023   6.900
78467SOL     OW37297  14.020   4.793   2.226
78467SOL    HW137298  13.987   4.836   2.304
78467SOL    HW237299  14.100   4.748   2.255
78468SOL     OW37300  14.720   6.658   3.243
78468SOL    HW137301  14.760   6.619   3.321
78468SOL    HW237302  14.794   6.682   3.188
78469SOL     OW37303  14.334   9.968   6.801
78469SOL    HW137304  14.354   9.958   6.708
78469SOL    HW237305  14.383   9.898   6.844
78470SOL     OW37306  11.346   5.556   9.462
78470SOL    HW137307  11.315   5.466   9.460
78470SOL    HW237308  11.307   5.597   9.385
78471SOL     OW37309   2.574   0.525  10.510
78471SOL    HW137310   2.483   0.507  10.488
78471SOL    HW237311   2.614   0.438  10.522
78472SOL     OW37312   9.706  12.579   4.032
78472SOL    HW137313   9.764  12.543   3.966
78472SOL    HW237314   9.745  12.553   4.116
78473SOL     OW37315  10.756  11.212  11.842
78473SOL    HW137316  10.737  11.135  11.896
78473SOL    HW237317  10.683  11.217  11.781
78474SOL     OW37318  11.451   2.811  11.649
78474SOL    HW137319  11.540   2.806  11.614
78474SOL    HW237320  11.449   2.893  11.699
78475SOL     OW37321   8.623  12.290  10.921
78475SOL    HW137322   8.555  12.353  10.943
78475SOL    HW237323   8.691  12.342  10.878
78476SOL     OW37324   4.226   8.162  13.781
78476SOL    HW137325   4.295   8.228  13.783
78476SOL    HW237326   4.272   8.078  13.786
78477SOL     OW37327   8.612  13.512   1.239
78477SOL    HW137328   8.532  13.497   1.290
78477SOL    HW237329   8.609  13.446   1.170
78478SOL     OW37330  10.004   8.775  13.226
78478SOL    HW137331   9.996   8.826  13.307
78478SOL    HW237332  10.035   8.689  13.255
78479SOL     OW37333   5.904  14.354   1.850
78479SOL    HW137334   5.856  14.299   1.911
78479SOL    HW237335   5.836  14.406   1.806
78480SOL     OW37336   6.715  14.096  10.266
78480SOL    HW137337   6.682  14.165  10.323
78480SOL    HW237338   6.665  14.104  10.185
78481SOL     OW37339  14.859   5.638   4.791
78481SOL    HW137340   0.029   5.579   4.853
78481SOL    HW237341   0.058   5.689   4.754
78482SOL     OW37342   4.463   3.937   0.977
78482SOL    HW137343   4.457   3.934   1.073
78482SOL    HW237344   4.500   4.023   0.958
78483SOL     OW37345   9.447   4.767   8.867
78483SOL    HW137346   9.423   4.692   8.920
78483SOL    HW237347   9.393   4.839   8.900
78484SOL     OW37348   8.406   9.640  11.819
78484SOL    HW137349   8.419   9.732  11.842
78484SOL    HW237350   8.318   9.637  11.781
78485SOL     OW37351   0.232   4.136   2.064
78485SOL    HW137352   0.258   4.223   2.095
78485SOL    HW237353   0.141   4.146   2.039
78486SOL     OW37354   5.376   1.974  13.978
78486SOL    HW137355   5.412   1.887  13.957
78486SOL    HW237356   5.375   2.020  13.894
78487SOL     OW37357   7.619  10.161   5.248
78487SOL    HW137358   7.603  10.195   5.160
78487SOL    HW237359   7.552  10.094   5.261
78488SOL     OW37360   8.487   9.642   7.993
78488SOL    HW137361   8.440   9.573   8.040
78488SOL    HW237362   8.507   9.707   8.060
78489SOL     OW37363   2.690   6.213  13.404
78489SOL    HW137364   2.698   6.118  13.399
78489SOL    HW237365   2.737   6.237  13.484
78490SOL     OW37366  11.840   9.155   9.823
78490SOL    HW137367  11.917   9.108   9.791
78490SOL    HW237368  11.797   9.188   9.744
78491SOL     OW37369   7.482   9.330   0.781
78491SOL    HW137370   7.535   9.392   0.832
78491SOL    HW237371   7.537   9.253   0.773
78492SOL     OW37372   0.215  12.328  10.923
78492SOL    HW137373   0.291  12.381  10.946
78492SOL    HW237374   0.243  12.238  10.936
78493SOL     OW37375   1.350   7.137   1.687
78493SOL    HW137376   1.360   7.210   1.749
78493SOL    HW237377   1.259   7.142   1.659
78494SOL     OW37378   6.769  12.946   8.019
78494SOL    HW137379   6.678  12.930   7.994
78494SOL    HW237380   6.811  12.976   7.939
78495SOL     OW37381  11.148   6.143   7.421
78495SOL    HW137382  11.184   6.106   7.340
78495SOL    HW237383  11.053   6.129   7.413
78496SOL     OW37384   9.686   0.851   2.242
78496SOL    HW137385   9.663   0.866   2.150
78496SOL    HW237386   9.732   0.931   2.268
78497SOL     OW37387  13.599  10.516   1.669
78497SOL    HW137388  13.553  10.434   1.647
78497SOL    HW237389  13.680  10.513   1.618
78498SOL     OW37390   0.656   7.927  11.867
78498SOL    HW137391   0.576   7.887  11.901
78498SOL    HW237392   0.648   8.019  11.889
78499SOL     OW37393  12.411  13.429  14.056
78499SOL    HW137394  12.391  13.449  14.147
78499SOL    HW237395  12.362  13.494  14.005
78500SOL     OW37396   0.627   1.608   6.169
78500SOL    HW137397   0.642   1.591   6.076
78500SOL    HW237398   0.603   1.523   6.205
78501SOL     OW37399   5.750   4.165  10.830
78501SOL    HW137400   5.740   4.093  10.768
78501SOL    HW237401   5.836   4.203  10.810
78502SOL     OW37402   7.317   2.283  10.111
78502SOL    HW137403   7.284   2.193  10.110
78502SOL    HW237404   7.239   2.337  10.101
78503SOL     OW37405   7.327   2.080  14.044
78503SOL    HW137406   7.257   2.102  14.105
78503SOL    HW237407   7.397   2.142  14.064
78504SOL     OW37408  12.426   2.813   6.031
78504SOL    HW137409  12.397   2.722   6.045
78504SOL    HW237410  12.358   2.866   6.074
78505SOL     OW37411  12.074   0.534   7.580
78505SOL    HW137412  12.054   0.466   7.645
78505SOL    HW237413  12.139   0.590   7.623
78506SOL     OW37414   2.240   8.376  12.385
78506SOL    HW137415   2.250   8.463  12.346
78506SOL    HW237416   2.146   8.367  12.399
78507SOL     OW37417  14.386   1.338  13.944
78507SOL    HW137418  14.422   1.418  13.983
78507SOL    HW237419  14.441   1.268  13.978
78508SOL     OW37420  13.184   8.088   9.827
78508SOL    HW137421  13.129   8.085   9.749
78508SOL    HW237422  13.184   8.180   9.852
78509SOL     OW37423   8.345  11.949   1.750
78509SOL    HW137424   8.384  11.970   1.666
78509SOL    HW237425   8.348  12.031   1.799
78510SOL     OW37426   0.817   2.123   8.916
78510SOL    HW137427   0.842   2.092   9.003
78510SOL    HW237428   0.884   2.188   8.894
78511SOL     OW37429   7.835   0.106   3.975
78511SOL    HW137430   7.927   0.112   3.949
78511SOL    HW237431   7.824   0.015   4.002
78512SOL     OW37432   8.710  12.878   8.415
78512SOL    HW137433   8.738  12.953   8.362
78512SOL    HW237434   8.768  12.879   8.491
78513SOL     OW37435  11.409   2.134  14.127
78513SOL    HW137436  11.387   2.227  14.128
78513SOL    HW237437  11.430   2.116  14.035
78514SOL     OW37438   2.925  14.801   1.807
78514SOL    HW137439   2.973  14.796   1.890
78514SOL    HW237440   2.950   0.014   1.770
78515SOL     OW37441  12.116  10.860   5.134
78515SOL    HW137442  12.160  10.886   5.053
78515SOL    HW237443  12.126  10.765   5.139
78516SOL     OW37444   5.649   4.786  14.558
78516SOL    HW137445   5.740   4.756  14.559
78516SOL    HW237446   5.646   4.857  14.622
78517SOL     OW37447   3.058   6.585   1.595
78517SOL    HW137448   3.073   6.651   1.663
78517SOL    HW237449   3.100   6.622   1.517
78518SOL     OW37450   6.063   4.529   5.235
78518SOL    HW137451   6.007   4.474   5.289
78518SOL    HW237452   6.114   4.579   5.297
78519SOL     OW37453  13.833   9.734   9.102
78519SOL    HW137454  13.765   9.728   9.035
78519SOL    HW237455  13.830   9.825   9.131
78520SOL     OW37456   9.040   0.549   5.584
78520SOL    HW137457   9.134   0.560   5.599
78520SOL    HW237458   9.007   0.638   5.574
78521SOL     OW37459   4.012   8.934   8.544
78521SOL    HW137460   4.101   8.912   8.569
78521SOL    HW237461   3.994   8.882   8.466
78522SOL     OW37462   4.378   3.816   7.828
78522SOL    HW137463   4.412   3.900   7.798
78522SOL    HW237464   4.317   3.839   7.898
78523SOL     OW37465   2.889   0.451  10.914
78523SOL    HW137466   2.860   0.491  10.832
78523SOL    HW237467   2.819   0.470  10.976
78524SOL     OW37468   5.331   3.604  10.861
78524SOL    HW137469   5.287   3.585  10.779
78524SOL    HW237470   5.376   3.523  10.884
78525SOL     OW37471  12.496   1.637   4.851
78525SOL    HW137472  12.523   1.715   4.900
78525SOL    HW237473  12.577   1.590   4.835
78526SOL     OW37474   5.901   7.087   1.181
78526SOL    HW137475   5.850   7.019   1.224
78526SOL    HW237476   5.958   7.123   1.250
78527SOL     OW37477   1.874   1.272   1.810
78527SOL    HW137478   1.782   1.277   1.838
78527SOL    HW237479   1.919   1.228   1.882
78528SOL     OW37480   4.316  14.856  11.619
78528SOL    HW137481   4.388  14.792  11.622
78528SOL    HW237482   4.238  14.804  11.634
78529SOL     OW37483   7.400   8.625   7.224
78529SOL    HW137484   7.359   8.686   7.163
78529SOL    HW237485   7.330   8.564   7.248
78530SOL     OW37486   9.106   5.158   3.681
78530SOL    HW137487   9.022   5.188   3.646
78530SOL    HW237488   9.131   5.085   3.625
78531SOL     OW37489   2.922   9.849   4.870
78531SOL    HW137490   2.879   9.889   4.946
78531SOL    HW237491   2.855   9.850   4.801
78532SOL     OW37492   1.288   9.186   0.468
78532SOL    HW137493   1.374   9.211   0.501
78532SOL    HW237494   1.271   9.247   0.396
78533SOL     OW37495  10.204   0.039  11.165
78533SOL    HW137496  10.293   0.075  11.159
78533SOL    HW237497  10.195   0.012  11.256
78534SOL     OW37498  13.138   6.031  10.686
78534SOL    HW137499  13.050   6.002  10.660
78534SOL    HW237500  13.147   6.119  10.649
78535SOL     OW37501  10.215   2.058   6.524
78535SOL    HW137502  10.199   2.014   6.440
78535SOL    HW237503  10.310   2.067   6.529
78536SOL     OW37504  14.048   5.208   2.683
78536SOL    HW137505  14.082   5.269   2.618
78536SOL    HW237506  14.014   5.134   2.632
78537SOL     OW37507   6.567  14.598  12.138
78537SOL    HW137508   6.556  14.662  12.067
78537SOL    HW237509   6.643  14.628  12.187
78538SOL     OW37510   4.470   1.046   6.701
78538SOL    HW137511   4.540   0.990   6.665
78538SOL    HW237512   4.391   0.992   6.696
78539SOL     OW37513  14.865   2.863   0.486
78539SOL    HW137514   0.009   2.781   0.533
78539SOL    HW237515  14.866   2.839   0.394
78540SOL     OW37516   6.112  11.138   5.615
78540SOL    HW137517   6.170  11.089   5.674
78540SOL    HW237518   6.060  11.071   5.571
78541SOL     OW37519   6.461   4.819  11.714
78541SOL    HW137520   6.476   4.776  11.798
78541SOL    HW237521   6.462   4.912  11.734
78542SOL     OW37522   1.401  11.677  12.434
78542SOL    HW137523   1.325  11.736  12.430
78542SOL    HW237524   1.459  11.717  12.498
78543SOL     OW37525  13.332  13.768   6.291
78543SOL    HW137526  13.394  13.752   6.220
78543SOL    HW237527  13.250  13.728   6.261
78544SOL     OW37528   6.254   6.715   6.039
78544SOL    HW137529   6.326   6.738   5.980
78544SOL    HW237530   6.293   6.657   6.104
78545SOL     OW37531   2.144   6.246  12.994
78545SOL    HW137532   2.131   6.157  12.962
78545SOL    HW237533   2.202   6.286  12.929
78546SOL     OW37534  14.377   3.393   2.301
78546SOL    HW137535  14.411   3.326   2.242
78546SOL    HW237536  14.285   3.370   2.313
78547SOL     OW37537  13.570   9.780   3.495
78547SOL    HW137538  13.633   9.847   3.470
78547SOL    HW237539  13.594   9.758   3.586
78548SOL     OW37540   6.872   9.843  13.468
78548SOL    HW137541   6.922   9.890  13.535
78548SOL    HW237542   6.808   9.908  13.437
78549SOL     OW37543   4.778  14.590  10.801
78549SOL    HW137544   4.794  14.567  10.709
78549SOL    HW237545   4.692  14.552  10.821
78550SOL     OW37546   5.843   4.268   7.019
78550SOL    HW137547   5.863   4.279   7.112
78550SOL    HW237548   5.928   4.257   6.977
78551SOL     OW37549   3.589   3.161  12.383
78551SOL    HW137550   3.661   3.205  12.339
78551SOL    HW237551   3.629   3.083  12.422
78552SOL     OW37552   4.335   8.269   9.316
78552SOL    HW137553   4.292   8.354   9.318
78552SOL    HW237554   4.407   8.280   9.254
78553SOL     OW37555   2.021  13.678   3.404
78553SOL    HW137556   2.059  13.596   3.370
78553SOL    HW237557   1.927  13.661   3.406
78554SOL     OW37558  12.101  12.937   8.466
78554SOL    HW137559  12.146  12.887   8.534
78554SOL    HW237560  12.129  13.027   8.480
78555SOL     OW37561   2.519  12.128  14.829
78555SOL    HW137562   2.501  12.047   0.003
78555SOL    HW237563   2.436  12.175  14.828
78556SOL     OW37564   8.957   2.793   5.241
78556SOL    HW137565   8.982   2.727   5.175
78556SOL    HW237566   8.870   2.767   5.268
78557SOL     OW37567   7.687  12.791  12.924
78557SOL    HW137568   7.684  12.861  12.990
78557SOL    HW237569   7.691  12.710  12.975
78558SOL     OW37570  12.367  10.726   9.111
78558SOL    HW137571  12.324  10.786   9.171
78558SOL    HW237572  12.295  10.680   9.067
78559SOL     OW37573   2.043   2.575  13.403
78559SOL    HW137574   1.992   2.509  13.356
78559SOL    HW237575   1.980   2.616  13.462
78560SOL     OW37576  11.922   3.880   3.551
78560SOL    HW137577  11.866   3.835   3.615
78560SOL    HW237578  11.904   3.973   3.564
78561SOL     OW37579  14.458  12.877   8.559
78561SOL    HW137580  14.542  12.881   8.513
78561SOL    HW237581  14.480  12.890   8.651
78562SOL     OW37582  12.496   6.648   9.875
78562SOL    HW137583  12.551   6.575   9.904
78562SOL    HW237584  12.483   6.633   9.781
78563SOL     OW37585  12.842   9.535  10.255
78563SOL    HW137586  12.853   9.597  10.183
78563SOL    HW237587  12.747   9.530  10.268
78564SOL     OW37588   5.716   0.607   1.069
78564SOL    HW137589   5.770   0.584   1.145
78564SOL    HW237590   5.764   0.574   0.994
78565SOL     OW37591  13.945   5.174   7.135
78565SOL    HW137592  14.020   5.141   7.086
78565SOL    HW237593  13.973   5.259   7.168
78566SOL     OW37594   2.920   7.953  12.325
78566SOL    HW137595   2.994   7.950  12.385
78566SOL    HW237596   2.868   8.028  12.355
78567SOL     OW37597   8.744  11.092  11.942
78567SOL    HW137598   8.827  11.139  11.955
78567SOL    HW237599   8.759  11.006  11.982
78568SOL     OW37600   3.438   3.481   8.158
78568SOL    HW137601   3.433   3.530   8.075
78568SOL    HW237602   3.366   3.515   8.210
78569SOL     OW37603   5.830  10.723   3.842
78569SOL    HW137604   5.791  10.793   3.790
78569SOL    HW237605   5.796  10.642   3.802
78570SOL     OW37606   0.759   6.775  14.251
78570SOL    HW137607   0.775   6.731  14.335
78570SOL    HW237608   0.711   6.711  14.199
78571SOL     OW37609   4.715  14.093   8.940
78571SOL    HW137610   4.719  14.114   9.034
78571SOL    HW237611   4.681  14.003   8.937
78572SOL     OW37612   2.308   4.346   8.144
78572SOL    HW137613   2.328   4.284   8.214
78572SOL    HW237614   2.237   4.400   8.179
78573SOL     OW37615   6.220   5.796   2.811
78573SOL    HW137616   6.297   5.773   2.759
78573SOL    HW237617   6.253   5.852   2.881
78574SOL     OW37618  12.254   5.273   9.634
78574SOL    HW137619  12.238   5.354   9.586
78574SOL    HW237620  12.224   5.203   9.574
78575SOL     OW37621  11.186   3.721   2.813
78575SOL    HW137622  11.168   3.727   2.907
78575SOL    HW237623  11.197   3.627   2.797
78576SOL     OW37624   6.951   7.242  13.468
78576SOL    HW137625   6.918   7.264  13.381
78576SOL    HW237626   6.913   7.156  13.487
78577SOL     OW37627   4.963   1.383  14.211
78577SOL    HW137628   4.944   1.294  14.182
78577SOL    HW237629   5.012   1.372  14.293
78578SOL     OW37630  11.326   4.927   4.497
78578SOL    HW137631  11.302   5.018   4.480
78578SOL    HW237632  11.374   4.930   4.580
78579SOL     OW37633   6.794   5.689   1.170
78579SOL    HW137634   6.738   5.724   1.101
78579SOL    HW237635   6.734   5.676   1.244
78580SOL     OW37636   1.532  11.508   4.069
78580SOL    HW137637   1.506  11.600   4.073
78580SOL    HW237638   1.627  11.510   4.073
78581SOL     OW37639  12.167   9.580  10.833
78581SOL    HW137640  12.238   9.566  10.769
78581SOL    HW237641  12.212   9.612  10.911
78582SOL     OW37642   8.141   8.083  14.013
78582SOL    HW137643   8.183   8.105  14.096
78582SOL    HW237644   8.177   8.145  13.950
78583SOL     OW37645   7.464   9.382   9.534
78583SOL    HW137646   7.386   9.438   9.526
78583SOL    HW237647   7.429   9.295   9.554
78584SOL     OW37648   3.263   1.007  12.845
78584SOL    HW137649   3.172   1.006  12.876
78584SOL    HW237650   3.304   1.077  12.895
78585SOL     OW37651   0.213   7.910  11.708
78585SOL    HW137652   0.194   7.905  11.615
78585SOL    HW237653   0.235   8.002  11.723
78586SOL     OW37654   7.128   3.924   9.049
78586SOL    HW137655   7.127   3.854   8.984
78586SOL    HW237656   7.164   4.000   9.003
78587SOL     OW37657  10.577  10.618   7.760
78587SOL    HW137658  10.647  10.645   7.700
78587SOL    HW237659  10.507  10.588   7.702
78588SOL     OW37660   6.022   0.871  11.366
78588SOL    HW137661   6.039   0.791  11.416
78588SOL    HW237662   6.062   0.856  11.281
78589SOL     OW37663  11.297   0.905   0.052
78589SOL    HW137664  11.232   0.967   0.018
78589SOL    HW237665  11.348   0.956   0.115
78590SOL     OW37666   1.786  14.180   1.506
78590SOL    HW137667   1.821  14.250   1.561
78590SOL    HW237668   1.808  14.206   1.416
78591SOL     OW37669  11.379   7.667  10.874
78591SOL    HW137670  11.328   7.593  10.908
78591SOL    HW237671  11.314   7.725  10.836
78592SOL     OW37672   4.340  13.853   8.068
78592SOL    HW137673   4.360  13.899   8.150
78592SOL    HW237674   4.406  13.784   8.063
78593SOL     OW37675  12.116  14.784   1.992
78593SOL    HW137676  12.179  14.780   1.921
78593SOL    HW237677  12.155  14.732   2.062
78594SOL     OW37678   9.200  14.177   4.456
78594SOL    HW137679   9.173  14.146   4.370
78594SOL    HW237680   9.294  14.162   4.459
78595SOL     OW37681  14.631   6.278   7.626
78595SOL    HW137682  14.629   6.317   7.538
78595SOL    HW237683  14.605   6.187   7.612
78596SOL     OW37684   4.020   6.635  12.296
78596SOL    HW137685   4.065   6.572  12.239
78596SOL    HW237686   4.089   6.672  12.350
78597SOL     OW37687  11.341   4.503  11.638
78597SOL    HW137688  11.270   4.455  11.597
78597SOL    HW237689  11.419   4.478  11.588
78598SOL     OW37690  10.136   7.536   3.263
78598SOL    HW137691  10.053   7.501   3.295
78598SOL    HW237692  10.202   7.477   3.299
78599SOL     OW37693   2.942  13.141   5.275
78599SOL    HW137694   2.916  13.098   5.193
78599SOL    HW237695   2.951  13.070   5.338
78600SOL     OW37696  10.853   5.435   7.998
78600SOL    HW137697  10.947   5.416   7.992
78600SOL    HW237698  10.846   5.492   8.075
78601SOL     OW37699   2.883   0.550   0.195
78601SOL    HW137700   2.968   0.515   0.222
78601SOL    HW237701   2.843   0.478   0.145
78602SOL     OW37702   1.682   0.883   4.980
78602SOL    HW137703   1.660   0.822   4.909
78602SOL    HW237704   1.609   0.944   4.983
78603SOL     OW37705  14.824  10.138   6.175
78603SOL    HW137706  14.801  10.171   6.262
78603SOL    HW237707  14.836  10.217   6.123
78604SOL     OW37708   9.788   5.879  12.484
78604SOL    HW137709   9.840   5.845  12.411
78604SOL    HW237710   9.777   5.972  12.464
78605SOL     OW37711  14.532   2.810   0.881
78605SOL    HW137712  14.568   2.737   0.831
78605SOL    HW237713  14.476   2.856   0.819
78606SOL     OW37714   0.826   5.340   3.090
78606SOL    HW137715   0.836   5.250   3.122
78606SOL    HW237716   0.744   5.370   3.129
78607SOL     OW37717   5.159   0.085   1.363
78607SOL    HW137718   5.092   0.086   1.295
78607SOL    HW237719   5.136   0.010   1.417
78608SOL     OW37720   3.910   2.094  11.462
78608SOL    HW137721   3.947   2.182  11.457
78608SOL    HW237722   3.937   2.062  11.548
78609SOL     OW37723   5.921   3.728   7.765
78609SOL    HW137724   5.883   3.641   7.775
78609SOL    HW237725   5.851   3.780   7.725
78610SOL     OW37726   1.991   3.247   2.541
78610SOL    HW137727   1.944   3.168   2.565
78610SOL    HW237728   2.011   3.290   2.624
78611SOL     OW37729   3.213  10.275   0.972
78611SOL    HW137730   3.204  10.283   0.878
78611SOL    HW237731   3.129  10.239   1.002
78612SOL     OW37732  13.390   0.356   1.232
78612SOL    HW137733  13.430   0.443   1.233
78612SOL    HW237734  13.371   0.338   1.324
78613SOL     OW37735  11.874  12.563   9.576
78613SOL    HW137736  11.781  12.585   9.582
78613SOL    HW237737  11.903  12.606   9.495
78614SOL     OW37738   4.733  11.415  11.115
78614SOL    HW137739   4.788  11.449  11.043
78614SOL    HW237740   4.698  11.333  11.081
78615SOL     OW37741  13.555   1.873  11.445
78615SOL    HW137742  13.481   1.899  11.390
78615SOL    HW237743  13.538   1.781  11.466
78616SOL     OW37744   2.244   6.318  10.807
78616SOL    HW137745   2.165   6.333  10.755
78616SOL    HW237746   2.306   6.385  10.777
78617SOL     OW37747   4.207  14.062   1.264
78617SOL    HW137748   4.300  14.078   1.249
78617SOL    HW237749   4.201  14.035   1.356
78618SOL     OW37750   4.398   7.480  10.358
78618SOL    HW137751   4.365   7.449  10.274
78618SOL    HW237752   4.449   7.407  10.393
78619SOL     OW37753   1.446  14.138   3.763
78619SOL    HW137754   1.469  14.224   3.730
78619SOL    HW237755   1.448  14.081   3.687
78620SOL     OW37756   2.370   8.390   0.951
78620SOL    HW137757   2.300   8.325   0.946
78620SOL    HW237758   2.332   8.462   1.001
78621SOL     OW37759   5.744  13.772   8.402
78621SOL    HW137760   5.691  13.851   8.415
78621SOL    HW237761   5.781  13.781   8.315
78622SOL     OW37762   6.630   7.657   1.676
78622SOL    HW137763   6.578   7.706   1.740
78622SOL    HW237764   6.704   7.623   1.727
78623SOL     OW37765   2.842  13.101  10.513
78623SOL    HW137766   2.877  13.140  10.593
78623SOL    HW237767   2.917  13.058  10.473
78624SOL     OW37768  13.920   6.865   2.306
78624SOL    HW137769  13.980   6.828   2.241
78624SOL    HW237770  13.975   6.925   2.357
78625SOL     OW37771   2.551   6.712  13.962
78625SOL    HW137772   2.481   6.667  14.009
78625SOL    HW237773   2.505   6.778  13.909
78626SOL     OW37774  12.206   3.358  13.019
78626SOL    HW137775  12.279   3.365  12.957
78626SOL    HW237776  12.163   3.443  13.015
78627SOL     OW37777  12.802   0.045  12.502
78627SOL    HW137778  12.847   0.113  12.553
78627SOL    HW237779  12.715   0.081  12.487
78628SOL     OW37780   3.667   5.352  11.039
78628SOL    HW137781   3.688   5.319  11.126
78628SOL    HW237782   3.596   5.296  11.008
78629SOL     OW37783   3.157  10.297   1.620
78629SOL    HW137784   3.133  10.287   1.712
78629SOL    HW237785   3.113  10.377   1.593
78630SOL     OW37786   8.415  14.718   2.705
78630SOL    HW137787   8.500  14.694   2.669
78630SOL    HW237788   8.354  14.710   2.631
78631SOL     OW37789  11.960   7.147  14.685
78631SOL    HW137790  11.908   7.069  14.705
78631SOL    HW237791  11.897   7.219  14.686
78632SOL     OW37792  12.011   8.869   8.136
78632SOL    HW137793  11.947   8.885   8.206
78632SOL    HW237794  12.086   8.925   8.159
78633SOL     OW37795   2.854  10.437   5.337
78633SOL    HW137796   2.835  10.514   5.282
78633SOL    HW237797   2.778  10.428   5.394
78634SOL     OW37798   2.626   1.983   1.098
78634SOL    HW137799   2.666   1.980   1.185
78634SOL    HW237800   2.618   2.076   1.078
78635SOL     OW37801  10.017   8.329   4.700
78635SOL    HW137802  10.096   8.325   4.753
78635SOL    HW237803  10.008   8.421   4.677
78636SOL     OW37804   5.833   6.451  12.912
78636SOL    HW137805   5.823   6.522  12.975
78636SOL    HW237806   5.871   6.493  12.834
78637SOL     OW37807   3.823   8.153   3.725
78637SOL    HW137808   3.872   8.131   3.804
78637SOL    HW237809   3.836   8.079   3.666
78638SOL     OW37810   7.471  13.241   7.008
78638SOL    HW137811   7.401  13.176   7.001
78638SOL    HW237812   7.467  13.269   7.100
78639SOL     OW37813   3.581   8.532   6.113
78639SOL    HW137814   3.487   8.511   6.112
78639SOL    HW237815   3.584   8.627   6.121
78640SOL     OW37816   3.513   1.179  12.029
78640SOL    HW137817   3.567   1.128  12.090
78640SOL    HW237818   3.442   1.213  12.083
78641SOL     OW37819   1.436   6.660   6.170
78641SOL    HW137820   1.405   6.608   6.244
78641SOL    HW237821   1.405   6.613   6.093
78642SOL     OW37822   1.641   4.517   7.443
78642SOL    HW137823   1.669   4.557   7.525
78642SOL    HW237824   1.696   4.439   7.434
78643SOL     OW37825  13.880  10.487  14.768
78643SOL    HW137826  13.913  10.556  14.826
78643SOL    HW237827  13.926  10.501  14.685
78644SOL     OW37828   2.529  10.665   0.880
78644SOL    HW137829   2.493  10.591   0.832
78644SOL    HW237830   2.465  10.735   0.868
78645SOL     OW37831   3.505   3.780   1.777
78645SOL    HW137832   3.437   3.828   1.729
78645SOL    HW237833   3.543   3.845   1.836
78646SOL     OW37834  10.001   3.388   1.463
78646SOL    HW137835   9.957   3.337   1.531
78646SOL    HW237836   9.992   3.479   1.493
78647SOL     OW37837   1.531   6.576  12.676
78647SOL    HW137838   1.521   6.632  12.599
78647SOL    HW237839   1.466   6.507  12.664
78648SOL     OW37840   2.271  11.391   4.455
78648SOL    HW137841   2.363  11.417   4.466
78648SOL    HW237842   2.224  11.474   4.448
78649SOL     OW37843   2.018   3.315   9.494
78649SOL    HW137844   1.952   3.290   9.558
78649SOL    HW237845   1.975   3.304   9.409
78650SOL     OW37846   4.874   0.096  10.215
78650SOL    HW137847   4.921   0.015  10.236
78650SOL    HW237848   4.942   0.156  10.184
78651SOL     OW37849   6.198  14.322  13.494
78651SOL    HW137850   6.209  14.235  13.456
78651SOL    HW237851   6.158  14.374  13.424
78652SOL     OW37852   8.305   9.766   9.893
78652SOL    HW137853   8.259   9.716   9.826
78652SOL    HW237854   8.263   9.852   9.891
78653SOL     OW37855   8.688   6.789   3.410
78653SOL    HW137856   8.637   6.770   3.489
78653SOL    HW237857   8.735   6.870   3.430
78654SOL     OW37858  11.672  12.040   0.489
78654SOL    HW137859  11.757  11.995   0.490
78654SOL    HW237860  11.693  12.129   0.459
78655SOL     OW37861   9.172   6.482   7.736
78655SOL    HW137862   9.087   6.445   7.757
78655SOL    HW237863   9.161   6.576   7.752
78656SOL     OW37864   5.861  13.658   2.717
78656SOL    HW137865   5.921  13.709   2.772
78656SOL    HW237866   5.811  13.724   2.669
78657SOL     OW37867   1.305  14.445  11.914
78657SOL    HW137868   1.211  14.439  11.900
78657SOL    HW237869   1.343  14.430  11.827
78658SOL     OW37870   4.749   2.920   9.085
78658SOL    HW137871   4.793   2.988   9.034
78658SOL    HW237872   4.758   2.949   9.176
78659SOL     OW37873  10.181   7.049   3.113
78659SOL    HW137874  10.227   7.058   3.197
78659SOL    HW237875  10.249   7.019   3.052
78660SOL     OW37876   0.710  11.107   1.662
78660SOL    HW137877   0.731  11.053   1.738
78660SOL    HW237878   0.735  11.054   1.586
78661SOL     OW37879   0.117   7.251   1.671
78661SOL    HW137880   0.096   7.343   1.688
78661SOL    HW237881   0.167   7.253   1.590
78662SOL     OW37882   3.577   7.385  11.263
78662SOL    HW137883   3.497   7.340  11.236
78662SOL    HW237884   3.573   7.469  11.219
78663SOL     OW37885   8.570   9.863  12.182
78663SOL    HW137886   8.643   9.830  12.236
78663SOL    HW237887   8.510   9.903  12.245
78664SOL     OW37888   9.757  13.248   3.655
78664SOL    HW137889   9.756  13.303   3.577
78664SOL    HW237890   9.850  13.231   3.671
78665SOL     OW37891   6.755  12.238  14.073
78665SOL    HW137892   6.718  12.274  13.993
78665SOL    HW237893   6.801  12.312  14.113
78666SOL     OW37894   5.204   8.355  14.644
78666SOL    HW137895   5.170   8.280  14.595
78666SOL    HW237896   5.266   8.397  14.583
78667SOL     OW37897  11.922   9.153   9.469
78667SOL    HW137898  11.871   9.221   9.512
78667SOL    HW237899  11.951   9.096   9.540
78668SOL     OW37900   3.408  12.859   9.164
78668SOL    HW137901   3.383  12.790   9.102
78668SOL    HW237902   3.459  12.813   9.231
78669SOL     OW37903  14.038   6.415  13.239
78669SOL    HW137904  13.965   6.399  13.179
78669SOL    HW237905  14.012   6.374  13.321
78670SOL     OW37906   2.342   6.961   6.522
78670SOL    HW137907   2.437   6.945   6.521
78670SOL    HW237908   2.334   7.055   6.535
78671SOL     OW37909   7.038   2.131  13.665
78671SOL    HW137910   7.066   2.131  13.573
78671SOL    HW237911   7.111   2.093  13.713
78672SOL     OW37912  14.328   8.220   4.882
78672SOL    HW137913  14.341   8.214   4.976
78672SOL    HW237914  14.236   8.244   4.872
78673SOL     OW37915  11.409   2.615   5.784
78673SOL    HW137916  11.387   2.682   5.849
78673SOL    HW237917  11.437   2.664   5.707
78674SOL     OW37918  13.894   6.011   6.840
78674SOL    HW137919  13.815   5.982   6.796
78674SOL    HW237920  13.936   5.931   6.872
78675SOL     OW37921   5.585   2.484   2.880
78675SOL    HW137922   5.614   2.468   2.969
78675SOL    HW237923   5.594   2.399   2.836
78676SOL     OW37924   0.493   3.701  13.383
78676SOL    HW137925   0.458   3.691  13.471
78676SOL    HW237926   0.428   3.663  13.326
78677SOL     OW37927   0.394   1.922   8.196
78677SOL    HW137928   0.477   1.950   8.232
78677SOL    HW237929   0.400   1.826   8.193
78678SOL     OW37930  13.739   3.294   2.694
78678SOL    HW137931  13.709   3.279   2.605
78678SOL    HW237932  13.823   3.250   2.700
78679SOL     OW37933   8.345   3.119  13.748
78679SOL    HW137934   8.434   3.097  13.723
78679SOL    HW237935   8.354   3.176  13.825
78680SOL     OW37936   6.710   6.383  13.926
78680SOL    HW137937   6.792   6.335  13.919
78680SOL    HW237938   6.642   6.316  13.920
78681SOL     OW37939  12.180  14.844  12.705
78681SOL    HW137940  12.109   0.035  12.694
78681SOL    HW237941  12.144  14.778  12.764
78682SOL     OW37942  11.258   9.359   6.479
78682SOL    HW137943  11.292   9.445   6.452
78682SOL    HW237944  11.277   9.355   6.573
78683SOL     OW37945  14.136   1.156   7.114
78683SOL    HW137946  14.230   1.164   7.134
78683SOL    HW237947  14.134   1.110   7.030
78684SOL     OW37948   8.150   6.216   5.332
78684SOL    HW137949   8.128   6.308   5.344
78684SOL    HW237950   8.108   6.171   5.406
78685SOL     OW37951  11.556   6.002  13.339
78685SOL    HW137952  11.568   5.996  13.244
78685SOL    HW237953  11.470   5.963  13.355
78686SOL     OW37954   8.499   0.439   1.837
78686SOL    HW137955   8.526   0.454   1.746
78686SOL    HW237956   8.550   0.502   1.888
78687SOL     OW37957   3.332  10.003   9.526
78687SOL    HW137958   3.382  10.027   9.604
78687SOL    HW237959   3.317   9.909   9.535
78688SOL     OW37960   2.039   9.009   2.606
78688SOL    HW137961   2.109   8.985   2.667
78688SOL    HW237962   2.081   9.006   2.520
78689SOL     OW37963   8.373  10.309  11.161
78689SOL    HW137964   8.280  10.316  11.138
78689SOL    HW237965   8.377  10.333  11.254
78690SOL     OW37966   6.074  12.387  14.580
78690SOL    HW137967   6.083  12.473  14.540
78690SOL    HW237968   6.007  12.343  14.528
78691SOL     OW37969   2.209   6.630   0.275
78691SOL    HW137970   2.148   6.702   0.283
78691SOL    HW237971   2.213   6.613   0.181
78692SOL     OW37972   8.292   9.923  11.328
78692SOL    HW137973   8.256   9.840  11.358
78692SOL    HW237974   8.315   9.908  11.236
78693SOL     OW37975  12.801   4.380  11.675
78693SOL    HW137976  12.750   4.406  11.752
78693SOL    HW237977  12.890   4.368  11.708
78694SOL     OW37978   4.613   0.955  10.320
78694SOL    HW137979   4.587   0.908  10.399
78694SOL    HW237980   4.698   0.994  10.343
78695SOL     OW37981   4.265  13.033   5.223
78695SOL    HW137982   4.297  12.947   5.195
78695SOL    HW237983   4.213  13.014   5.301
78696SOL     OW37984   6.984   3.878   6.525
78696SOL    HW137985   7.070   3.916   6.546
78696SOL    HW237986   7.003   3.811   6.460
78697SOL     OW37987  14.144   2.281  13.586
78697SOL    HW137988  14.082   2.350  13.562
78697SOL    HW237989  14.103   2.237  13.661
78698SOL     OW37990  13.350   0.580   0.916
78698SOL    HW137991  13.258   0.600   0.933
78698SOL    HW237992  13.354   0.484   0.918
78699SOL     OW37993  14.106   4.483  12.572
78699SOL    HW137994  14.162   4.519  12.503
78699SOL    HW237995  14.024   4.462  12.527
78700SOL     OW37996  14.361   4.894   8.694
78700SOL    HW137997  14.438   4.879   8.640
78700SOL    HW237998  14.338   4.808   8.728
78701SOL     OW37999   3.601   5.416   9.297
78701SOL    HW138000   3.637   5.487   9.350
78701SOL    HW238001   3.603   5.340   9.355
78702SOL     OW38002  12.943  12.955   8.988
78702SOL    HW138003  12.886  12.887   8.952
78702SOL    HW238004  12.973  12.919   9.072
78703SOL     OW38005  11.488   1.041   1.108
78703SOL    HW138006  11.413   0.991   1.077
78703SOL    HW238007  11.552   1.035   1.037
78704SOL     OW38008   8.883   7.154   9.232
78704SOL    HW138009   8.881   7.106   9.149
78704SOL    HW238010   8.797   7.197   9.236
78705SOL     OW38011   6.167   4.215   9.824
78705SOL    HW138012   6.099   4.215   9.891
78705SOL    HW238013   6.163   4.128   9.785
78706SOL     OW38014  11.908  10.834   4.109
78706SOL    HW138015  11.994  10.816   4.147
78706SOL    HW238016  11.861  10.883   4.177
78707SOL     OW38017  14.435  11.289   2.990
78707SOL    HW138018  14.514  11.300   2.936
78707SOL    HW238019  14.443  11.357   3.058
78708SOL     OW38020   4.704  12.377   2.946
78708SOL    HW138021   4.782  12.392   2.999
78708SOL    HW238022   4.729  12.308   2.885
78709SOL     OW38023  12.017  14.013  12.506
78709SOL    HW138024  11.999  13.950  12.436
78709SOL    HW238025  12.113  14.015  12.512
78710SOL     OW38026   4.178   3.323   3.708
78710SOL    HW138027   4.261   3.338   3.663
78710SOL    HW238028   4.160   3.230   3.696
78711SOL     OW38029   0.402   8.393  11.911
78711SOL    HW138030   0.451   8.457  11.963
78711SOL    HW238031   0.317   8.389  11.954
78712SOL     OW38032   5.447  12.201   7.530
78712SOL    HW138033   5.419  12.264   7.596
78712SOL    HW238034   5.380  12.132   7.534
78713SOL     OW38035  11.875   4.481   3.143
78713SOL    HW138036  11.909   4.538   3.212
78713SOL    HW238037  11.799   4.438   3.184
78714SOL     OW38038   2.334   5.678   4.811
78714SOL    HW138039   2.383   5.641   4.738
78714SOL    HW238040   2.350   5.619   4.884
78715SOL     OW38041  10.546  14.390   7.608
78715SOL    HW138042  10.610  14.452   7.643
78715SOL    HW238043  10.486  14.444   7.557
78716SOL     OW38044   8.558   2.469   3.634
78716SOL    HW138045   8.600   2.540   3.682
78716SOL    HW238046   8.627   2.404   3.621
78717SOL     OW38047   9.422   2.654  11.909
78717SOL    HW138048   9.455   2.743  11.904
78717SOL    HW238049   9.395   2.644  12.000
78718SOL     OW38050  14.019  12.229   2.087
78718SOL    HW138051  14.029  12.241   2.181
78718SOL    HW238052  14.102  12.258   2.050
78719SOL     OW38053  12.112  13.404   5.540
78719SOL    HW138054  12.084  13.486   5.581
78719SOL    HW238055  12.177  13.368   5.600
78720SOL     OW38056   4.413   8.568   0.648
78720SOL    HW138057   4.465   8.489   0.638
78720SOL    HW238058   4.372   8.581   0.562
78721SOL     OW38059   4.918   3.139  14.250
78721SOL    HW138060   4.960   3.099  14.174
78721SOL    HW238061   4.836   3.176  14.216
78722SOL     OW38062  11.122  13.376  10.789
78722SOL    HW138063  11.164  13.461  10.782
78722SOL    HW238064  11.108  13.363  10.883
78723SOL     OW38065   6.475   3.697   1.838
78723SOL    HW138066   6.515   3.617   1.872
78723SOL    HW238067   6.445   3.674   1.750
78724SOL     OW38068   6.737   1.950  13.747
78724SOL    HW138069   6.741   1.864  13.704
78724SOL    HW238070   6.826   1.965  13.777
78725SOL     OW38071   7.663   9.875  12.841
78725SOL    HW138072   7.695   9.787  12.859
78725SOL    HW238073   7.576   9.862  12.802
78726SOL     OW38074   8.318  12.925   1.150
78726SOL    HW138075   8.308  12.833   1.177
78726SOL    HW238076   8.247  12.970   1.195
78727SOL     OW38077   7.040   8.528   6.166
78727SOL    HW138078   7.030   8.620   6.142
78727SOL    HW238079   6.965   8.510   6.222
78728SOL     OW38080   7.885   4.630   7.129
78728SOL    HW138081   7.840   4.710   7.157
78728SOL    HW238082   7.828   4.593   7.062
78729SOL     OW38083   5.864   1.248  12.406
78729SOL    HW138084   5.903   1.167  12.373
78729SOL    HW238085   5.938   1.296  12.444
78730SOL     OW38086   7.764  14.852   2.785
78730SOL    HW138087   7.818  14.813   2.716
78730SOL    HW238088   7.693  14.789   2.797
78731SOL     OW38089  11.204   0.690   6.033
78731SOL    HW138090  11.126   0.745   6.025
78731SOL    HW238091  11.278   0.751   6.025
78732SOL     OW38092  11.815   1.982   1.235
78732SOL    HW138093  11.740   1.979   1.177
78732SOL    HW238094  11.786   1.938   1.315
78733SOL     OW38095   8.755   8.151  10.406
78733SOL    HW138096   8.724   8.089  10.341
78733SOL    HW238097   8.676   8.200  10.432
78734SOL     OW38098  13.455  10.943  10.578
78734SOL    HW138099  13.403  10.863  10.574
78734SOL    HW238100  13.500  10.938  10.662
78735SOL     OW38101  11.608   3.848  11.558
78735SOL    HW138102  11.559   3.767  11.559
78735SOL    HW238103  11.700   3.821  11.568
78736SOL     OW38104  13.218  14.805  10.863
78736SOL    HW138105  13.251   0.023  10.855
78736SOL    HW238106  13.292  14.755  10.895
78737SOL     OW38107  14.674  13.627  13.388
78737SOL    HW138108  14.581  13.652  13.388
78737SOL    HW238109  14.715  13.688  13.450
78738SOL     OW38110  14.019  13.959  13.278
78738SOL    HW138111  14.093  14.016  13.255
78738SOL    HW238112  13.942  14.009  13.252
78739SOL     OW38113   6.794  10.870   5.406
78739SOL    HW138114   6.855  10.857   5.479
78739SOL    HW238115   6.711  10.835   5.438
78740SOL     OW38116   7.629   2.742   1.566
78740SOL    HW138117   7.647   2.836   1.560
78740SOL    HW238118   7.635   2.723   1.659
78741SOL     OW38119  12.920  13.616   6.413
78741SOL    HW138120  12.958  13.631   6.500
78741SOL    HW238121  12.857  13.545   6.426
78742SOL     OW38122   3.028  11.069  13.776
78742SOL    HW138123   3.016  10.979  13.807
78742SOL    HW238124   3.112  11.066  13.729
78743SOL     OW38125   8.279  14.343  10.853
78743SOL    HW138126   8.268  14.409  10.785
78743SOL    HW238127   8.330  14.273  10.812
78744SOL     OW38128   0.970   1.076  13.804
78744SOL    HW138129   0.878   1.048  13.802
78744SOL    HW238130   0.968   1.163  13.844
78745SOL     OW38131   9.508  10.063   5.877
78745SOL    HW138132   9.471   9.991   5.927
78745SOL    HW238133   9.434  10.121   5.859
78746SOL     OW38134   0.026   9.000   7.134
78746SOL    HW138135  14.852   8.922   7.103
78746SOL    HW238136  14.847   9.029   7.210
78747SOL     OW38137   4.938  10.925  11.009
78747SOL    HW138138   4.999  10.991  11.043
78747SOL    HW238139   4.965  10.844  11.053
78748SOL     OW38140   5.616  13.163   8.965
78748SOL    HW138141   5.654  13.097   8.907
78748SOL    HW238142   5.564  13.113   9.029
78749SOL     OW38143   7.552   9.459   4.431
78749SOL    HW138144   7.471   9.430   4.471
78749SOL    HW238145   7.617   9.451   4.501
78750SOL     OW38146   8.809  14.485   9.837
78750SOL    HW138147   8.880  14.537   9.874
78750SOL    HW238148   8.841  14.460   9.750
78751SOL     OW38149   5.005  12.445   9.962
78751SOL    HW138150   4.962  12.517   9.916
78751SOL    HW238151   5.059  12.488  10.028
78752SOL     OW38152   5.609   7.744   3.219
78752SOL    HW138153   5.682   7.710   3.272
78752SOL    HW238154   5.553   7.789   3.282
78753SOL     OW38155   9.507   5.862   4.776
78753SOL    HW138156   9.578   5.824   4.827
78753SOL    HW238157   9.446   5.897   4.841
78754SOL     OW38158   6.199   8.441   3.541
78754SOL    HW138159   6.275   8.392   3.572
78754SOL    HW238160   6.213   8.530   3.573
78755SOL     OW38161   9.502  12.532  11.590
78755SOL    HW138162   9.419  12.576  11.575
78755SOL    HW238163   9.502  12.512  11.684
78756SOL     OW38164   9.754   0.224   5.615
78756SOL    HW138165   9.693   0.249   5.684
78756SOL    HW238166   9.821   0.172   5.661
78757SOL     OW38167   5.955   0.771   9.801
78757SOL    HW138168   5.888   0.773   9.869
78757SOL    HW238169   6.033   0.739   9.845
78758SOL     OW38170   7.188   8.080   4.182
78758SOL    HW138171   7.194   8.072   4.277
78758SOL    HW238172   7.255   8.145   4.159
78759SOL     OW38173   0.880   8.440   0.915
78759SOL    HW138174   0.938   8.400   0.850
78759SOL    HW238175   0.866   8.372   0.981
78760SOL     OW38176  11.006  12.080   1.727
78760SOL    HW138177  11.017  11.986   1.744
78760SOL    HW238178  11.046  12.123   1.803
78761SOL     OW38179   1.143  13.316  11.352
78761SOL    HW138180   1.217  13.270  11.391
78761SOL    HW238181   1.183  13.388  11.303
78762SOL     OW38182  13.928   6.171  14.391
78762SOL    HW138183  13.843   6.171  14.435
78762SOL    HW238184  13.917   6.113  14.317
78763SOL     OW38185   2.371  13.050   2.222
78763SOL    HW138186   2.287  13.081   2.257
78763SOL    HW238187   2.392  13.111   2.152
78764SOL     OW38188   9.396  13.052   2.132
78764SOL    HW138189   9.389  13.013   2.219
78764SOL    HW238190   9.305  13.058   2.102
78765SOL     OW38191   6.556   2.322   9.534
78765SOL    HW138192   6.565   2.305   9.628
78765SOL    HW238193   6.469   2.288   9.512
78766SOL     OW38194   9.606  14.367   7.095
78766SOL    HW138195   9.613  14.333   7.184
78766SOL    HW238196   9.696  14.385   7.069
78767SOL     OW38197   4.476   9.720   5.472
78767SOL    HW138198   4.523   9.664   5.409
78767SOL    HW238199   4.539   9.788   5.495
78768SOL     OW38200   8.701   6.181   3.374
78768SOL    HW138201   8.626   6.207   3.321
78768SOL    HW238202   8.723   6.259   3.424
78769SOL     OW38203  11.267   0.505   7.276
78769SOL    HW138204  11.330   0.532   7.343
78769SOL    HW238205  11.248   0.413   7.297
78770SOL     OW38206   7.938   4.059  14.367
78770SOL    HW138207   8.005   4.115  14.405
78770SOL    HW238208   7.878   4.120  14.323
78771SOL     OW38209   3.398   5.200   4.098
78771SOL    HW138210   3.380   5.243   4.181
78771SOL    HW238211   3.493   5.197   4.092
78772SOL     OW38212   2.131   7.520  11.526
78772SOL    HW138213   2.173   7.569  11.455
78772SOL    HW238214   2.066   7.581  11.562
78773SOL     OW38215   6.308   2.045   0.080
78773SOL    HW138216   6.293   1.991   0.003
78773SOL    HW238217   6.244   2.116   0.073
78774SOL     OW38218  10.780   9.572  14.811
78774SOL    HW138219  10.769   9.615   0.024
78774SOL    HW238220  10.751   9.482  14.827
78775SOL     OW38221  11.650   2.690   0.327
78775SOL    HW138222  11.596   2.711   0.403
78775SOL    HW238223  11.684   2.602   0.345
78776SOL     OW38224   1.183  10.329   7.244
78776SOL    HW138225   1.163  10.361   7.156
78776SOL    HW238226   1.198  10.235   7.232
78777SOL     OW38227   9.553   0.500  13.822
78777SOL    HW138228   9.563   0.498  13.917
78777SOL    HW238229   9.464   0.468  13.806
78778SOL     OW38230  11.328  13.474  11.372
78778SOL    HW138231  11.249  13.528  11.365
78778SOL    HW238232  11.354  13.458  11.282
78779SOL     OW38233   5.684   7.923   0.792
78779SOL    HW138234   5.687   8.006   0.838
78779SOL    HW238235   5.617   7.935   0.725
78780SOL     OW38236   3.545  13.385   1.364
78780SOL    HW138237   3.567  13.383   1.271
78780SOL    HW238238   3.451  13.368   1.367
78781SOL     OW38239  11.050  12.236   9.183
78781SOL    HW138240  11.054  12.141   9.198
78781SOL    HW238241  10.963  12.250   9.146
78782SOL     OW38242  10.865   4.312   7.864
78782SOL    HW138243  10.907   4.260   7.933
78782SOL    HW238244  10.815   4.378   7.911
78783SOL     OW38245  10.340   3.083   0.859
78783SOL    HW138246  10.391   3.101   0.781
78783SOL    HW238247  10.405   3.054   0.924
78784SOL     OW38248   2.680   5.727  10.758
78784SOL    HW138249   2.622   5.784  10.706
78784SOL    HW238250   2.685   5.646  10.709
78785SOL     OW38251  10.304   0.310   0.686
78785SOL    HW138252  10.333   0.334   0.598
78785SOL    HW238253  10.223   0.358   0.698
78786SOL     OW38254   9.077   0.298   6.568
78786SOL    HW138255   9.137   0.260   6.632
78786SOL    HW238256   9.028   0.222   6.534
78787SOL     OW38257   4.504   3.986  12.801
78787SOL    HW138258   4.579   4.009  12.857
78787SOL    HW238259   4.441   4.056  12.816
78788SOL     OW38260   5.991  14.524   8.140
78788SOL    HW138261   6.002  14.446   8.195
78788SOL    HW238262   5.950  14.588   8.198
78789SOL     OW38263   7.306  13.793   0.165
78789SOL    HW138264   7.290  13.785   0.259
78789SOL    HW238265   7.382  13.737   0.148
78790SOL     OW38266   2.690   4.555   6.461
78790SOL    HW138267   2.756   4.487   6.456
78790SOL    HW238268   2.713   4.605   6.540
78791SOL     OW38269   2.947   6.441   8.468
78791SOL    HW138270   3.042   6.434   8.461
78791SOL    HW238271   2.927   6.531   8.439
78792SOL     OW38272   5.398   3.555   5.428
78792SOL    HW138273   5.327   3.580   5.369
78792SOL    HW238274   5.417   3.634   5.478
78793SOL     OW38275   4.921  10.191  13.454
78793SOL    HW138276   4.830  10.175  13.429
78793SOL    HW238277   4.932  10.286  13.446
78794SOL     OW38278   7.844   7.804   0.687
78794SOL    HW138279   7.791   7.725   0.696
78794SOL    HW238280   7.830   7.852   0.769
78795SOL     OW38281   4.913  11.815  10.794
78795SOL    HW138282   4.875  11.903  10.794
78795SOL    HW238283   4.865  11.769  10.725
78796SOL     OW38284   8.824   7.556  12.176
78796SOL    HW138285   8.818   7.540  12.270
78796SOL    HW238286   8.745   7.607  12.155
78797SOL     OW38287  13.467  10.937   7.139
78797SOL    HW138288  13.533  10.879   7.100
78797SOL    HW238289  13.512  11.021   7.147
78798SOL     OW38290   4.349   4.594   4.208
78798SOL    HW138291   4.312   4.664   4.263
78798SOL    HW238292   4.277   4.568   4.151
78799SOL     OW38293   9.961   7.399  12.241
78799SOL    HW138294   9.970   7.485  12.283
78799SOL    HW238295  10.051   7.367  12.234
78800SOL     OW38296  10.043  10.967   6.222
78800SOL    HW138297   9.956  11.000   6.242
78800SOL    HW238298  10.035  10.872   6.228
78801SOL     OW38299   3.547  14.714   8.292
78801SOL    HW138300   3.463  14.738   8.331
78801SOL    HW238301   3.571  14.788   8.237
78802SOL     OW38302   3.844   5.377  12.920
78802SOL    HW138303   3.862   5.313  12.851
78802SOL    HW238304   3.768   5.342  12.966
78803SOL     OW38305   6.296  13.424  10.940
78803SOL    HW138306   6.323  13.389  11.025
78803SOL    HW238307   6.369  13.480  10.913
78804SOL     OW38308   9.336   7.012   1.781
78804SOL    HW138309   9.320   6.929   1.737
78804SOL    HW238310   9.256   7.063   1.766
78805SOL     OW38311   2.549  11.601   3.093
78805SOL    HW138312   2.570  11.564   3.007
78805SOL    HW238313   2.473  11.657   3.077
78806SOL     OW38314   8.032   7.530   7.888
78806SOL    HW138315   7.940   7.526   7.862
78806SOL    HW238316   8.033   7.491   7.976
78807SOL     OW38317   3.061   9.129  14.008
78807SOL    HW138318   3.038   9.207  13.957
78807SOL    HW238319   3.065   9.159  14.098
78808SOL     OW38320   8.493  10.967   8.467
78808SOL    HW138321   8.454  10.908   8.402
78808SOL    HW238322   8.525  11.041   8.415
78809SOL     OW38323   5.829   2.685   9.907
78809SOL    HW138324   5.739   2.717   9.919
78809SOL    HW238325   5.864   2.677   9.996
78810SOL     OW38326   3.375   8.169  11.474
78810SOL    HW138327   3.310   8.109  11.510
78810SOL    HW238328   3.387   8.142  11.383
78811SOL     OW38329  11.595  14.712   0.826
78811SOL    HW138330  11.684  14.679   0.836
78811SOL    HW238331  11.540  14.646   0.869
78812SOL     OW38332   9.649  12.556   6.589
78812SOL    HW138333   9.652  12.544   6.494
78812SOL    HW238334   9.560  12.588   6.606
78813SOL     OW38335   2.437   3.615   2.686
78813SOL    HW138336   2.410   3.693   2.638
78813SOL    HW238337   2.524   3.635   2.719
78814SOL     OW38338  10.261   1.985   3.796
78814SOL    HW138339  10.175   2.014   3.826
78814SOL    HW238340  10.245   1.900   3.756
78815SOL     OW38341   0.032   1.856  12.532
78815SOL    HW138342   0.086   1.804  12.473
78815SOL    HW238343  14.815   1.828  12.514
78816SOL     OW38344   0.508   9.296   8.798
78816SOL    HW138345   0.590   9.247   8.794
78816SOL    HW238346   0.478   9.287   8.889
78817SOL     OW38347  11.341   5.634   1.319
78817SOL    HW138348  11.303   5.547   1.333
78817SOL    HW238349  11.272   5.683   1.276
78818SOL     OW38350  11.420   1.864   9.471
78818SOL    HW138351  11.487   1.850   9.405
78818SOL    HW238352  11.409   1.959   9.475
78819SOL     OW38353  11.606   7.917  13.866
78819SOL    HW138354  11.567   8.004  13.860
78819SOL    HW238355  11.542   7.865  13.915
78820SOL     OW38356  13.353   1.336   5.145
78820SOL    HW138357  13.347   1.355   5.239
78820SOL    HW238358  13.391   1.248   5.140
78821SOL     OW38359  11.978   6.427   8.590
78821SOL    HW138360  11.973   6.523   8.588
78821SOL    HW238361  12.022   6.408   8.673
78822SOL     OW38362   7.065  12.998   6.257
78822SOL    HW138363   7.075  13.075   6.201
78822SOL    HW238364   7.155  12.971   6.277
78823SOL     OW38365   1.083   1.052  14.354
78823SOL    HW138366   1.076   0.960  14.377
78823SOL    HW238367   1.040   1.058  14.268
78824SOL     OW38368  12.305  11.380   5.905
78824SOL    HW138369  12.328  11.473   5.908
78824SOL    HW238370  12.242  11.373   5.834
78825SOL     OW38371  11.222   8.205   6.904
78825SOL    HW138372  11.169   8.213   6.824
78825SOL    HW238373  11.160   8.221   6.975
78826SOL     OW38374   7.114   3.683  10.412
78826SOL    HW138375   7.188   3.661  10.469
78826SOL    HW238376   7.037   3.649  10.457
78827SOL     OW38377  10.087   7.020   4.960
78827SOL    HW138378  10.122   6.991   4.875
78827SOL    HW238379  10.014   6.961   4.976
78828SOL     OW38380   9.842  10.840  11.486
78828SOL    HW138381   9.911  10.848  11.420
78828SOL    HW238382   9.800  10.756  11.465
78829SOL     OW38383  10.319   9.595  12.993
78829SOL    HW138384  10.263   9.538  12.940
78829SOL    HW238385  10.339   9.543  13.071
78830SOL     OW38386   7.623   9.833  11.687
78830SOL    HW138387   7.669   9.753  11.711
78830SOL    HW238388   7.655   9.900  11.747
78831SOL     OW38389   4.970   4.000   6.225
78831SOL    HW138390   4.922   4.082   6.216
78831SOL    HW238391   4.943   3.947   6.150
78832SOL     OW38392   4.900  14.353   2.488
78832SOL    HW138393   4.814  14.315   2.507
78832SOL    HW238394   4.899  14.372   2.394
78833SOL     OW38395  10.933   2.985   8.127
78833SOL    HW138396  11.014   3.028   8.100
78833SOL    HW238397  10.962   2.911   8.181
78834SOL     OW38398   0.562   0.631  13.167
78834SOL    HW138399   0.467   0.631  13.173
78834SOL    HW238400   0.581   0.673  13.083
78835SOL     OW38401  11.920   9.334   5.774
78835SOL    HW138402  11.912   9.380   5.857
78835SOL    HW238403  11.964   9.397   5.716
78836SOL     OW38404   5.793  14.603   8.680
78836SOL    HW138405   5.698  14.596   8.693
78836SOL    HW238406   5.831  14.559   8.756
78837SOL     OW38407   1.933   3.166   0.254
78837SOL    HW138408   1.916   3.239   0.314
78837SOL    HW238409   1.877   3.184   0.179
78838SOL     OW38410   9.246   3.994   4.596
78838SOL    HW138411   9.246   3.907   4.635
78838SOL    HW238412   9.234   4.053   4.671
78839SOL     OW38413  10.683   7.931  14.479
78839SOL    HW138414  10.703   8.024  14.469
78839SOL    HW238415  10.595   7.922  14.442
78840SOL     OW38416   5.128   1.676   7.584
78840SOL    HW138417   5.213   1.717   7.595
78840SOL    HW238418   5.147   1.589   7.549
78841SOL     OW38419   2.497   3.850  12.891
78841SOL    HW138420   2.442   3.810  12.823
78841SOL    HW238421   2.453   3.933  12.910
78842SOL     OW38422  12.190   9.997  12.355
78842SOL    HW138423  12.107  10.020  12.315
78842SOL    HW238424  12.181  10.024  12.447
78843SOL     OW38425  11.219   2.723   1.874
78843SOL    HW138426  11.143   2.781   1.864
78843SOL    HW238427  11.258   2.720   1.787
78844SOL     OW38428   0.930   2.186   7.005
78844SOL    HW138429   0.842   2.220   7.018
78844SOL    HW238430   0.953   2.147   7.090
78845SOL     OW38431  14.059   6.530   6.318
78845SOL    HW138432  14.041   6.563   6.406
78845SOL    HW238433  13.984   6.559   6.265
78846SOL     OW38434  10.442  12.591   8.432
78846SOL    HW138435  10.409  12.601   8.521
78846SOL    HW238436  10.459  12.681   8.403
78847SOL     OW38437   8.513   3.495  10.828
78847SOL    HW138438   8.545   3.474  10.741
78847SOL    HW238439   8.450   3.566  10.814
78848SOL     OW38440  10.451   7.901  12.819
78848SOL    HW138441  10.432   7.985  12.862
78848SOL    HW238442  10.451   7.838  12.890
78849SOL     OW38443   7.138   8.742   7.520
78849SOL    HW138444   7.108   8.696   7.442
78849SOL    HW238445   7.057   8.770   7.563
78850SOL     OW38446  13.123   4.317  14.790
78850SOL    HW138447  13.186   4.381  14.756
78850SOL    HW238448  13.040   4.364  14.792
78851SOL     OW38449  11.695  12.233  13.516
78851SOL    HW138450  11.757  12.305  13.528
78851SOL    HW238451  11.717  12.172  13.586
78852SOL     OW38452   3.899   2.735  11.149
78852SOL    HW138453   3.953   2.745  11.071
78852SOL    HW238454   3.809   2.745  11.118
78853SOL     OW38455  12.703  13.241   8.368
78853SOL    HW138456  12.622  13.287   8.391
78853SOL    HW238457  12.675  13.158   8.331
78854SOL     OW38458   6.204   8.779   9.164
78854SOL    HW138459   6.211   8.683   9.161
78854SOL    HW238460   6.173   8.797   9.253
78855SOL     OW38461   3.113   8.552   3.015
78855SOL    HW138462   3.109   8.457   3.003
78855SOL    HW238463   3.205   8.571   3.033
78856SOL     OW38464  13.812   6.881   5.507
78856SOL    HW138465  13.861   6.820   5.562
78856SOL    HW238466  13.862   6.962   5.510
78857SOL     OW38467   0.199  11.999   6.920
78857SOL    HW138468   0.130  12.065   6.910
78857SOL    HW238469   0.280  12.047   6.905
78858SOL     OW38470   1.808   6.572  11.503
78858SOL    HW138471   1.762   6.493  11.531
78858SOL    HW238472   1.880   6.540  11.448
78859SOL     OW38473   2.694   3.792   3.647
78859SOL    HW138474   2.672   3.705   3.680
78859SOL    HW238475   2.646   3.852   3.704
78860SOL     OW38476  10.605   6.921  12.639
78860SOL    HW138477  10.633   6.997  12.688
78860SOL    HW238478  10.533   6.952  12.585
78861SOL     OW38479   6.121  14.121  10.050
78861SOL    HW138480   6.167  14.042  10.075
78861SOL    HW238481   6.124  14.177  10.127
78862SOL     OW38482   5.805   6.118   2.522
78862SOL    HW138483   5.779   6.198   2.566
78862SOL    HW238484   5.885   6.090   2.567
78863SOL     OW38485  11.274   6.265   3.801
78863SOL    HW138486  11.179   6.266   3.806
78863SOL    HW238487  11.303   6.294   3.887
78864SOL     OW38488   4.779   6.597   4.364
78864SOL    HW138489   4.813   6.644   4.288
78864SOL    HW238490   4.857   6.558   4.404
78865SOL     OW38491   5.167   2.774  10.341
78865SOL    HW138492   5.212   2.723  10.409
78865SOL    HW238493   5.133   2.709  10.281
78866SOL     OW38494   7.923  12.802  13.712
78866SOL    HW138495   7.931  12.780  13.805
78866SOL    HW238496   8.008  12.777  13.675
78867SOL     OW38497  12.571   8.301   4.464
78867SOL    HW138498  12.581   8.214   4.426
78867SOL    HW238499  12.575   8.360   4.389
78868SOL     OW38500  11.228   7.481   0.172
78868SOL    HW138501  11.139   7.516   0.181
78868SOL    HW238502  11.250   7.495   0.080
78869SOL     OW38503   1.924  10.601  11.261
78869SOL    HW138504   1.962  10.542  11.327
78869SOL    HW238505   1.837  10.564  11.243
78870SOL     OW38506   2.991   0.292   6.131
78870SOL    HW138507   3.051   0.349   6.180
78870SOL    HW238508   3.041   0.212   6.114
78871SOL     OW38509   6.932  11.741  12.371
78871SOL    HW138510   7.003  11.735  12.306
78871SOL    HW238511   6.887  11.657  12.364
78872SOL     OW38512   2.776   8.961  10.903
78872SOL    HW138513   2.817   8.930  10.984
78872SOL    HW238514   2.729   8.885  10.869
78873SOL     OW38515   2.044   7.883  11.110
78873SOL    HW138516   1.989   7.912  11.037
78873SOL    HW238517   2.063   7.964  11.159
78874SOL     OW38518   2.227  12.522   4.866
78874SOL    HW138519   2.250  12.467   4.791
78874SOL    HW238520   2.262  12.609   4.844
78875SOL     OW38521  13.846   9.755  12.474
78875SOL    HW138522  13.828   9.662  12.487
78875SOL    HW238523  13.924   9.772  12.527
78876SOL     OW38524   4.758  13.315   3.098
78876SOL    HW138525   4.775  13.296   3.005
78876SOL    HW238526   4.753  13.228   3.139
78877SOL     OW38527  13.072   9.524  13.581
78877SOL    HW138528  12.990   9.515  13.629
78877SOL    HW238529  13.084   9.440  13.538
78878SOL     OW38530   0.988   2.553   5.013
78878SOL    HW138531   0.916   2.580   5.069
78878SOL    HW238532   0.957   2.475   4.968
78879SOL     OW38533   7.406  11.592  12.393
78879SOL    HW138534   7.328  11.627  12.436
78879SOL    HW238535   7.420  11.649  12.317
78880SOL     OW38536   2.849   9.013   7.505
78880SOL    HW138537   2.893   9.043   7.585
78880SOL    HW238538   2.757   9.037   7.519
78881SOL     OW38539   4.144  14.392   5.184
78881SOL    HW138540   4.200  14.402   5.261
78881SOL    HW238541   4.078  14.461   5.193
78882SOL     OW38542   0.794   4.677   0.020
78882SOL    HW138543   0.796   4.757  14.839
78882SOL    HW238544   0.725   4.693   0.085
78883SOL     OW38545  11.776   8.979  11.864
78883SOL    HW138546  11.737   8.930  11.936
78883SOL    HW238547  11.736   9.066  11.870
78884SOL     OW38548   5.239   7.716  14.061
78884SOL    HW138549   5.199   7.753  14.140
78884SOL    HW238550   5.187   7.752  13.989
78885SOL     OW38551  12.098   1.748   0.920
78885SOL    HW138552  12.087   1.803   0.997
78885SOL    HW238553  12.109   1.809   0.848
78886SOL     OW38554   5.632   3.502   0.969
78886SOL    HW138555   5.695   3.530   1.035
78886SOL    HW238556   5.556   3.472   1.019
78887SOL     OW38557   3.604   6.138  11.047
78887SOL    HW138558   3.583   6.048  11.023
78887SOL    HW238559   3.641   6.177  10.968
78888SOL     OW38560  10.539   1.045   8.410
78888SOL    HW138561  10.446   1.053   8.390
78888SOL    HW238562  10.580   1.025   8.326
78889SOL     OW38563  11.684   7.238   3.810
78889SOL    HW138564  11.650   7.324   3.784
78889SOL    HW238565  11.774   7.236   3.776
78890SOL     OW38566   0.268   3.793   3.184
78890SOL    HW138567   0.358   3.816   3.162
78890SOL    HW238568   0.241   3.734   3.114
78891SOL     OW38569  12.658   1.471  14.812
78891SOL    HW138570  12.675   1.503  14.723
78891SOL    HW238571  12.580   1.417  14.803
78892SOL     OW38572  13.978   1.028   6.301
78892SOL    HW138573  14.063   1.029   6.256
78892SOL    HW238574  13.936   1.110   6.275
78893SOL     OW38575   6.333  14.562   6.670
78893SOL    HW138576   6.279  14.641   6.662
78893SOL    HW238577   6.419  14.589   6.639
78894SOL     OW38578  11.237   7.887  10.764
78894SOL    HW138579  11.242   7.967  10.712
78894SOL    HW238580  11.152   7.849  10.742
78895SOL     OW38581   1.925  14.091   5.028
78895SOL    HW138582   1.850  14.052   4.984
78895SOL    HW238583   1.950  14.027   5.094
78896SOL     OW38584  10.558  14.271   3.502
78896SOL    HW138585  10.581  14.180   3.483
78896SOL    HW238586  10.514  14.267   3.587
78897SOL     OW38587   7.936   4.480   4.058
78897SOL    HW138588   7.853   4.474   4.010
78897SOL    HW238589   7.936   4.403   4.115
78898SOL     OW38590   5.773   1.868   9.123
78898SOL    HW138591   5.806   1.908   9.203
78898SOL    HW238592   5.798   1.929   9.053
78899SOL     OW38593  14.488  14.701   6.399
78899SOL    HW138594  14.551  14.671   6.332
78899SOL    HW238595  14.515  14.655   6.478
78900SOL     OW38596   2.860  14.680  13.778
78900SOL    HW138597   2.909  14.698  13.698
78900SOL    HW238598   2.925  14.681  13.847
78901SOL     OW38599   3.674   8.726   8.146
78901SOL    HW138600   3.707   8.691   8.064
78901SOL    HW238601   3.581   8.703   8.146
78902SOL     OW38602   3.781  14.137   6.646
78902SOL    HW138603   3.855  14.114   6.702
78902SOL    HW238604   3.744  14.215   6.687
78903SOL     OW38605   4.143  11.641  13.164
78903SOL    HW138606   4.118  11.616  13.076
78903SOL    HW238607   4.062  11.670  13.205
78904SOL     OW38608  13.052   2.121  10.090
78904SOL    HW138609  13.097   2.192  10.042
78904SOL    HW238610  13.051   2.151  10.181
78905SOL     OW38611   9.759   9.468   1.771
78905SOL    HW138612   9.792   9.439   1.856
78905SOL    HW238613   9.835   9.463   1.713
78906SOL     OW38614  10.776   0.727   3.636
78906SOL    HW138615  10.859   0.732   3.684
78906SOL    HW238616  10.709   0.736   3.705
78907SOL     OW38617   3.017   2.717  14.527
78907SOL    HW138618   2.940   2.676  14.486
78907SOL    HW238619   3.075   2.736  14.453
78908SOL     OW38620   7.685   0.425   9.224
78908SOL    HW138621   7.674   0.520   9.212
78908SOL    HW238622   7.767   0.406   9.178
78909SOL     OW38623   6.258  13.937  10.428
78909SOL    HW138624   6.189  13.883  10.465
78909SOL    HW238625   6.211  14.003  10.376
78910SOL     OW38626   1.877   4.750   0.918
78910SOL    HW138627   1.948   4.765   0.856
78910SOL    HW238628   1.892   4.662   0.952
78911SOL     OW38629  11.949  12.326  12.952
78911SOL    HW138630  11.898  12.394  12.908
78911SOL    HW238631  11.885  12.280  13.007
78912SOL     OW38632   2.672   4.111   7.536
78912SOL    HW138633   2.762   4.104   7.567
78912SOL    HW238634   2.623   4.049   7.591
78913SOL     OW38635   8.671  11.166  10.945
78913SOL    HW138636   8.738  11.164  11.013
78913SOL    HW238637   8.588  11.159  10.993
78914SOL     OW38638   3.814   0.166   2.769
78914SOL    HW138639   3.818   0.103   2.697
78914SOL    HW238640   3.787   0.113   2.844
78915SOL     OW38641   7.588  12.546  11.432
78915SOL    HW138642   7.563  12.532  11.523
78915SOL    HW238643   7.620  12.636  11.430
78916SOL     OW38644  13.972   8.484   9.629
78916SOL    HW138645  13.926   8.556   9.585
78916SOL    HW238646  13.954   8.497   9.722
78917SOL     OW38647   1.089   1.126   3.155
78917SOL    HW138648   1.039   1.205   3.175
78917SOL    HW238649   1.147   1.152   3.083
78918SOL     OW38650   8.818   5.741  10.682
78918SOL    HW138651   8.863   5.737  10.767
78918SOL    HW238652   8.731   5.704  10.699
78919SOL     OW38653   3.008  11.424  13.528
78919SOL    HW138654   2.943  11.429  13.599
78919SOL    HW238655   2.995  11.337  13.491
78920SOL     OW38656   0.175  13.946   4.242
78920SOL    HW138657   0.160  13.907   4.328
78920SOL    HW238658   0.107  13.908   4.187
78921SOL     OW38659   1.753   6.930   6.821
78921SOL    HW138660   1.816   6.995   6.852
78921SOL    HW238661   1.805   6.868   6.769
78922SOL     OW38662  13.314  13.784   0.257
78922SOL    HW138663  13.327  13.730   0.335
78922SOL    HW238664  13.351  13.869   0.280
78923SOL     OW38665   1.189  11.481   5.815
78923SOL    HW138666   1.251  11.410   5.801
78923SOL    HW238667   1.228  11.534   5.885
78924SOL     OW38668   6.057  12.030  11.346
78924SOL    HW138669   6.065  11.945  11.389
78924SOL    HW238670   5.963  12.049  11.347
78925SOL     OW38671   5.523   7.491   7.292
78925SOL    HW138672   5.506   7.531   7.378
78925SOL    HW238673   5.615   7.511   7.275
78926SOL     OW38674   9.270   5.040   3.185
78926SOL    HW138675   9.205   5.064   3.120
78926SOL    HW238676   9.274   5.115   3.245
78927SOL     OW38677  14.869   2.430   5.260
78927SOL    HW138678  14.804   2.500   5.268
78927SOL    HW238679   0.070   2.471   5.213
78928SOL     OW38680   3.392   3.596  11.175
78928SOL    HW138681   3.387   3.611  11.081
78928SOL    HW238682   3.378   3.502  11.186
78929SOL     OW38683   9.798   2.703   1.363
78929SOL    HW138684   9.794   2.630   1.301
78929SOL    HW238685   9.864   2.676   1.427
78930SOL     OW38686   8.610   1.913  10.275
78930SOL    HW138687   8.558   1.922  10.355
78930SOL    HW238688   8.669   1.840  10.294
78931SOL     OW38689  12.395  10.852   9.510
78931SOL    HW138690  12.487  10.860   9.535
78931SOL    HW238691  12.364  10.775   9.558
78932SOL     OW38692   2.089  10.391   1.941
78932SOL    HW138693   2.111  10.463   2.000
78932SOL    HW238694   2.138  10.410   1.861
78933SOL     OW38695   1.090   7.479   1.379
78933SOL    HW138696   1.100   7.558   1.326
78933SOL    HW238697   0.996   7.473   1.395
78934SOL     OW38698  14.337   3.665   7.698
78934SOL    HW138699  14.401   3.660   7.627
78934SOL    HW238700  14.257   3.696   7.656
78935SOL     OW38701  12.532  11.750   7.457
78935SOL    HW138702  12.472  11.813   7.496
78935SOL    HW238703  12.483  11.668   7.454
78936SOL     OW38704   2.800   6.945   2.390
78936SOL    HW138705   2.870   6.929   2.326
78936SOL    HW238706   2.831   7.020   2.441
78937SOL     OW38707   6.352  10.555  13.231
78937SOL    HW138708   6.359  10.640  13.275
78937SOL    HW238709   6.431  10.550  13.177
78938SOL     OW38710   0.733   0.973   7.294
78938SOL    HW138711   0.639   0.967   7.308
78938SOL    HW238712   0.763   0.882   7.292
78939SOL     OW38713  11.356   6.092   6.117
78939SOL    HW138714  11.446   6.061   6.103
78939SOL    HW238715  11.341   6.154   6.045
78940SOL     OW38716   0.137   1.391   4.828
78940SOL    HW138717   0.143   1.459   4.761
78940SOL    HW238718   0.172   1.312   4.787
78941SOL     OW38719  11.330  10.610  10.026
78941SOL    HW138720  11.424  10.606  10.045
78941SOL    HW238721  11.291  10.653  10.102
78942SOL     OW38722   4.680   1.217   4.551
78942SOL    HW138723   4.663   1.155   4.622
78942SOL    HW238724   4.594   1.255   4.531
78943SOL     OW38725   5.799   0.225   5.118
78943SOL    HW138726   5.709   0.235   5.150
78943SOL    HW238727   5.842   0.307   5.142
78944SOL     OW38728  14.409   9.491   1.323
78944SOL    HW138729  14.358   9.437   1.263
78944SOL    HW238730  14.345   9.523   1.387
78945SOL     OW38731  13.821   3.140   8.957
78945SOL    HW138732  13.831   3.163   8.865
78945SOL    HW238733  13.905   3.101   8.981
78946SOL     OW38734  13.894  13.029   4.272
78946SOL    HW138735  13.943  12.989   4.201
78946SOL    HW238736  13.820  13.072   4.229
78947SOL     OW38737   2.251   7.959   3.867
78947SOL    HW138738   2.242   8.036   3.812
78947SOL    HW238739   2.341   7.963   3.900
78948SOL     OW38740  13.935  12.616   8.527
78948SOL    HW138741  13.912  12.651   8.613
78948SOL    HW238742  14.016  12.661   8.504
78949SOL     OW38743   3.026   9.665   5.737
78949SOL    HW138744   2.978   9.741   5.769
78949SOL    HW238745   3.035   9.608   5.813
78950SOL     OW38746   7.745   7.995   0.852
78950SOL    HW138747   7.721   8.087   0.845
78950SOL    HW238748   7.693   7.962   0.925
78951SOL     OW38749   3.800   4.668   4.013
78951SOL    HW138750   3.831   4.758   4.020
78951SOL    HW238751   3.803   4.635   4.103
78952SOL     OW38752   2.059   2.134   4.768
78952SOL    HW138753   2.137   2.152   4.819
78952SOL    HW238754   2.007   2.076   4.824
78953SOL     OW38755   8.574   8.444  13.019
78953SOL    HW138756   8.484   8.476  13.016
78953SOL    HW238757   8.573   8.365  12.964
78954SOL     OW38758   9.024   9.321  10.963
78954SOL    HW138759   9.039   9.323  10.868
78954SOL    HW238760   8.979   9.403  10.981
78955SOL     OW38761   9.347   4.908   2.196
78955SOL    HW138762   9.384   4.823   2.220
78955SOL    HW238763   9.274   4.920   2.257
78956SOL     OW38764   0.089   0.711  12.242
78956SOL    HW138765   0.113   0.662  12.321
78956SOL    HW238766   0.135   0.666  12.171
78957SOL     OW38767  14.632   4.486  13.454
78957SOL    HW138768  14.607   4.528  13.371
78957SOL    HW238769  14.588   4.539  13.521
78958SOL     OW38770   7.237   3.475  13.455
78958SOL    HW138771   7.150   3.505  13.431
78958SOL    HW238772   7.249   3.394  13.405
78959SOL     OW38773   0.021   9.306  14.403
78959SOL    HW138774   0.094   9.249  14.430
78959SOL    HW238775  14.816   9.265  14.441
78960SOL     OW38776  11.847  13.175  10.287
78960SOL    HW138777  11.885  13.153  10.372
78960SOL    HW238778  11.921  13.201  10.233
78961SOL     OW38779   5.991  11.309   0.036
78961SOL    HW138780   6.036  11.241   0.086
78961SOL    HW238781   5.955  11.367   0.103
78962SOL     OW38782   8.686   4.091   3.588
78962SOL    HW138783   8.755   4.154   3.610
78962SOL    HW238784   8.727   4.005   3.603
78963SOL     OW38785   2.677  13.075  11.191
78963SOL    HW138786   2.702  13.082  11.283
78963SOL    HW238787   2.675  13.166  11.160
78964SOL     OW38788  12.602  13.446   0.298
78964SOL    HW138789  12.611  13.472   0.390
78964SOL    HW238790  12.642  13.360   0.293
78965SOL     OW38791  14.446  12.646   7.040
78965SOL    HW138792  14.384  12.655   7.112
78965SOL    HW238793  14.520  12.598   7.078
78966SOL     OW38794   4.015   0.930   2.083
78966SOL    HW138795   3.972   0.969   2.159
78966SOL    HW238796   4.098   0.977   2.075
78967SOL     OW38797  10.936   5.460   2.257
78967SOL    HW138798  10.902   5.544   2.228
78967SOL    HW238799  10.869   5.397   2.233
78968SOL     OW38800   1.563   7.971   5.382
78968SOL    HW138801   1.526   7.894   5.425
78968SOL    HW238802   1.567   7.947   5.289
78969SOL     OW38803   9.265  11.746   9.508
78969SOL    HW138804   9.346  11.758   9.556
78969SOL    HW238805   9.245  11.833   9.473
78970SOL     OW38806   5.857   0.626  11.746
78970SOL    HW138807   5.891   0.539  11.768
78970SOL    HW238808   5.935   0.680  11.732
78971SOL     OW38809  10.315   7.131  14.302
78971SOL    HW138810  10.392   7.187  14.292
78971SOL    HW238811  10.258   7.154  14.229
78972SOL     OW38812   4.385   4.021   0.603
78972SOL    HW138813   4.419   3.979   0.681
78972SOL    HW238814   4.295   4.045   0.627
78973SOL     OW38815   0.730   9.121   4.738
78973SOL    HW138816   0.771   9.199   4.699
78973SOL    HW238817   0.704   9.067   4.662
78974SOL     OW38818  13.262   1.592   2.918
78974SOL    HW138819  13.238   1.502   2.940
78974SOL    HW238820  13.181   1.641   2.929
78975SOL     OW38821   9.780   6.738   5.561
78975SOL    HW138822   9.814   6.736   5.651
78975SOL    HW238823   9.840   6.796   5.514
78976SOL     OW38824  11.536   3.603  13.971
78976SOL    HW138825  11.545   3.547  14.049
78976SOL    HW238826  11.624   3.606  13.933
78977SOL     OW38827   6.253   0.334   0.682
78977SOL    HW138828   6.234   0.359   0.772
78977SOL    HW238829   6.342   0.367   0.666
78978SOL     OW38830  13.673   3.210   0.401
78978SOL    HW138831  13.746   3.164   0.442
78978SOL    HW238832  13.650   3.156   0.325
78979SOL     OW38833  10.159  14.129   6.155
78979SOL    HW138834  10.101  14.124   6.230
78979SOL    HW238835  10.243  14.094   6.187
78980SOL     OW38836  10.900   8.886  14.770
78980SOL    HW138837  10.860   8.844  14.846
78980SOL    HW238838  10.885   8.825  14.698
78981SOL     OW38839  12.952   9.790  13.005
78981SOL    HW138840  12.955   9.790  13.101
78981SOL    HW238841  13.042   9.774  12.978
78982SOL     OW38842   5.612   3.412  12.555
78982SOL    HW138843   5.621   3.356  12.478
78982SOL    HW238844   5.518   3.421  12.568
78983SOL     OW38845  11.633   1.073   3.501
78983SOL    HW138846  11.627   1.083   3.596
78983SOL    HW238847  11.716   1.028   3.487
78984SOL     OW38848  10.553   5.357   0.911
78984SOL    HW138849  10.549   5.271   0.870
78984SOL    HW238850  10.574   5.339   1.002
78985SOL     OW38851   2.514  14.603   9.506
78985SOL    HW138852   2.490  14.638   9.592
78985SOL    HW238853   2.604  14.573   9.517
78986SOL     OW38854   1.064   8.278   8.133
78986SOL    HW138855   1.062   8.352   8.193
78986SOL    HW238856   1.006   8.213   8.171
78987SOL     OW38857  14.108   6.381  12.438
78987SOL    HW138858  14.014   6.401  12.433
78987SOL    HW238859  14.148   6.460  12.475
78988SOL     OW38860  14.601   8.910   2.390
78988SOL    HW138861  14.669   8.930   2.325
78988SOL    HW238862  14.614   8.817   2.410
78989SOL     OW38863   4.291   0.123  10.862
78989SOL    HW138864   4.278   0.216  10.882
78989SOL    HW238865   4.359   0.095  10.923
78990SOL     OW38866   5.225   5.750   7.270
78990SOL    HW138867   5.161   5.698   7.317
78990SOL    HW238868   5.255   5.816   7.333
78991SOL     OW38869   0.100   1.138  13.868
78991SOL    HW138870   0.114   1.222  13.912
78991SOL    HW238871   0.176   1.086  13.892
78992SOL     OW38872   5.113   2.570   3.416
78992SOL    HW138873   5.085   2.531   3.333
78992SOL    HW238874   5.196   2.613   3.396
78993SOL     OW38875   8.647   2.350   5.628
78993SOL    HW138876   8.735   2.384   5.613
78993SOL    HW238877   8.627   2.299   5.549
78994SOL     OW38878   9.328   7.623   8.794
78994SOL    HW138879   9.352   7.541   8.750
78994SOL    HW238880   9.364   7.614   8.882
78995SOL     OW38881   9.971   3.614  13.482
78995SOL    HW138882   9.999   3.566  13.405
78995SOL    HW238883   9.963   3.705  13.453
78996SOL     OW38884   6.486   0.781   8.517
78996SOL    HW138885   6.500   0.722   8.592
78996SOL    HW238886   6.453   0.862   8.557
78997SOL     OW38887  10.353  13.608  11.024
78997SOL    HW138888  10.317  13.627  11.111
78997SOL    HW238889  10.424  13.547  11.040
78998SOL     OW38890   4.323   0.916  14.804
78998SOL    HW138891   4.232   0.887  14.817
78998SOL    HW238892   4.317   0.981  14.734
78999SOL     OW38893   7.327  13.133   1.148
78999SOL    HW138894   7.238  13.150   1.177
78999SOL    HW238895   7.382  13.188   1.204
79000SOL     OW38896   3.213  12.240  13.358
79000SOL    HW138897   3.293  12.195  13.331
79000SOL    HW238898   3.143  12.196  13.309
79001SOL     OW38899   9.647   2.879   8.564
79001SOL    HW138900   9.599   2.850   8.641
79001SOL    HW238901   9.638   2.974   8.565
79002SOL     OW38902   7.515   5.842   7.668
79002SOL    HW138903   7.464   5.841   7.749
79002SOL    HW238904   7.587   5.903   7.686
79003SOL     OW38905  12.528  10.557  11.099
79003SOL    HW138906  12.609  10.608  11.095
79003SOL    HW238907  12.552  10.471  11.064
79004SOL     OW38908  14.119  12.397   6.004
79004SOL    HW138909  14.101  12.422   6.095
79004SOL    HW238910  14.177  12.322   6.011
79005SOL     OW38911   7.266  12.223   0.111
79005SOL    HW138912   7.171  12.216   0.114
79005SOL    HW238913   7.286  12.235   0.018
79006SOL     OW38914  13.487   1.397   0.920
79006SOL    HW138915  13.525   1.337   0.855
79006SOL    HW238916  13.428   1.453   0.869
79007SOL     OW38917   4.508   8.623   4.923
79007SOL    HW138918   4.595   8.655   4.946
79007SOL    HW238919   4.466   8.696   4.877
79008SOL     OW38920  12.400   7.992   1.844
79008SOL    HW138921  12.489   8.017   1.868
79008SOL    HW238922  12.397   8.003   1.749
79009SOL     OW38923   4.120   5.437   4.372
79009SOL    HW138924   4.101   5.521   4.330
79009SOL    HW238925   4.182   5.458   4.442
79010SOL     OW38926   3.213   3.372  10.647
79010SOL    HW138927   3.250   3.318  10.578
79010SOL    HW238928   3.248   3.335  10.728
79011SOL     OW38929   4.007  11.412   5.973
79011SOL    HW138930   3.987  11.496   6.014
79011SOL    HW238931   3.928  11.389   5.925
79012SOL     OW38932   5.768   1.296   8.214
79012SOL    HW138933   5.679   1.296   8.179
79012SOL    HW238934   5.794   1.388   8.213
79013SOL     OW38935   2.384   2.281   8.015
79013SOL    HW138936   2.339   2.258   7.935
79013SOL    HW238937   2.317   2.273   8.084
79014SOL     OW38938   5.870   8.802   0.834
79014SOL    HW138939   5.855   8.865   0.763
79014SOL    HW238940   5.845   8.718   0.796
79015SOL     OW38941  13.253  10.419  14.146
79015SOL    HW138942  13.172  10.370  14.134
79015SOL    HW238943  13.252  10.486  14.077
79016SOL     OW38944   0.783  14.316   2.490
79016SOL    HW138945   0.781  14.409   2.514
79016SOL    HW238946   0.717  14.307   2.421
79017SOL     OW38947   0.308   7.775   9.886
79017SOL    HW138948   0.254   7.816   9.819
79017SOL    HW238949   0.379   7.838   9.900
79018SOL     OW38950   2.336   9.546   1.542
79018SOL    HW138951   2.368   9.460   1.514
79018SOL    HW238952   2.414   9.600   1.547
79019SOL     OW38953  13.416  11.620   6.860
79019SOL    HW138954  13.441  11.532   6.832
79019SOL    HW238955  13.324  11.629   6.834
79020SOL     OW38956  11.376   4.374  14.818
79020SOL    HW138957  11.347   4.453  14.864
79020SOL    HW238958  11.332   4.302  14.862
79021SOL     OW38959  10.958   8.924   2.148
79021SOL    HW138960  11.029   8.960   2.201
79021SOL    HW238961  10.991   8.926   2.058
79022SOL     OW38962   8.578   8.913   1.715
79022SOL    HW138963   8.530   8.834   1.737
79022SOL    HW238964   8.630   8.889   1.638
79023SOL     OW38965   9.683   7.948   3.757
79023SOL    HW138966   9.711   8.031   3.795
79023SOL    HW238967   9.745   7.884   3.791
79024SOL     OW38968  13.675  10.694  12.912
79024SOL    HW138969  13.644  10.722  12.825
79024SOL    HW238970  13.671  10.598  12.909
79025SOL     OW38971   3.427   7.132  13.598
79025SOL    HW138972   3.478   7.051  13.589
79025SOL    HW238973   3.458   7.188  13.527
79026SOL     OW38974   0.081   0.180  14.576
79026SOL    HW138975   0.144   0.213  14.641
79026SOL    HW238976   0.124   0.105  14.536
79027SOL     OW38977  10.462   6.219   4.727
79027SOL    HW138978  10.427   6.232   4.814
79027SOL    HW238979  10.547   6.177   4.741
79028SOL     OW38980   4.353   6.992   3.065
79028SOL    HW138981   4.375   6.942   2.988
79028SOL    HW238982   4.380   7.082   3.044
79029SOL     OW38983   7.816  13.414   5.811
79029SOL    HW138984   7.901  13.396   5.771
79029SOL    HW238985   7.824  13.381   5.900
79030SOL     OW38986   1.946  13.557   2.591
79030SOL    HW138987   1.951  13.575   2.685
79030SOL    HW238988   2.004  13.482   2.578
79031SOL     OW38989   1.966  10.739  12.178
79031SOL    HW138990   1.924  10.823  12.195
79031SOL    HW238991   1.989  10.742  12.085
79032SOL     OW38992   8.835   8.183   0.011
79032SOL    HW138993   8.796   8.165  14.798
79032SOL    HW238994   8.811   8.274   0.030
79033SOL     OW38995   2.317   2.301  14.099
79033SOL    HW138996   2.352   2.361  14.164
79033SOL    HW238997   2.257   2.354  14.047
79034SOL     OW38998   8.701  13.423   5.091
79034SOL    HW138999   8.768  13.466   5.037
79034SOL    HW239000   8.628  13.408   5.032
79035SOL     OW39001  11.107  12.679  14.657
79035SOL    HW139002  11.095  12.598  14.707
79035SOL    HW239003  11.190  12.715  14.688
79036SOL     OW39004   9.600   4.667   1.187
79036SOL    HW139005   9.556   4.732   1.241
79036SOL    HW239006   9.600   4.588   1.240
79037SOL     OW39007  11.697   5.318   6.985
79037SOL    HW139008  11.714   5.263   6.909
79037SOL    HW239009  11.692   5.258   7.059
79038SOL     OW39010  11.581   3.014  13.589
79038SOL    HW139011  11.593   2.944  13.525
79038SOL    HW239012  11.552   3.089  13.537
79039SOL     OW39013   0.454  13.262   7.469
79039SOL    HW139014   0.481  13.350   7.494
79039SOL    HW239015   0.523  13.205   7.505
79040SOL     OW39016   1.520  12.187   4.041
79040SOL    HW139017   1.568  12.123   3.988
79040SOL    HW239018   1.432  12.188   4.003
79041SOL     OW39019   4.102  13.173  12.432
79041SOL    HW139020   4.098  13.246  12.493
79041SOL    HW239021   4.036  13.193  12.365
79042SOL     OW39022   1.435   5.942   9.207
79042SOL    HW139023   1.416   5.972   9.296
79042SOL    HW239024   1.352   5.953   9.160
79043SOL     OW39025  14.781   8.926   4.948
79043SOL    HW139026  14.829   9.001   4.912
79043SOL    HW239027  14.847   8.858   4.958
79044SOL     OW39028   9.806   8.008  11.180
79044SOL    HW139029   9.736   7.962  11.228
79044SOL    HW239030   9.789   7.988  11.088
79045SOL     OW39031   1.121   5.355   8.328
79045SOL    HW139032   1.061   5.285   8.353
79045SOL    HW239033   1.208   5.315   8.330
79046SOL     OW39034  10.534   4.388  10.832
79046SOL    HW139035  10.533   4.321  10.899
79046SOL    HW239036  10.444   4.422  10.831
79047SOL     OW39037   9.090   6.352   0.490
79047SOL    HW139038   9.084   6.384   0.400
79047SOL    HW239039   9.008   6.381   0.531
79048SOL     OW39040   8.845  12.242   3.743
79048SOL    HW139041   8.918  12.300   3.719
79048SOL    HW239042   8.769  12.280   3.700
79049SOL     OW39043   1.309   7.395   1.520
79049SOL    HW139044   1.225   7.425   1.484
79049SOL    HW239045   1.310   7.430   1.609
79050SOL     OW39046   7.764   7.192   9.731
79050SOL    HW139047   7.700   7.150   9.788
79050SOL    HW239048   7.714   7.220   9.655
79051SOL     OW39049   3.195   9.981  11.802
79051SOL    HW139050   3.192   9.910  11.867
79051SOL    HW239051   3.104  10.011  11.796
79052SOL     OW39052   5.670   4.628   4.938
79052SOL    HW139053   5.697   4.708   4.894
79052SOL    HW239054   5.745   4.603   4.992
79053SOL     OW39055  11.943   6.806   6.429
79053SOL    HW139056  11.852   6.815   6.457
79053SOL    HW239057  11.962   6.713   6.439
79054SOL     OW39058  12.276   3.339   2.730
79054SOL    HW139059  12.262   3.299   2.817
79054SOL    HW239060  12.292   3.431   2.749
79055SOL     OW39061   8.878   7.488   1.299
79055SOL    HW139062   8.917   7.569   1.331
79055SOL    HW239063   8.799   7.516   1.252
79056SOL     OW39064  12.317   5.336   5.372
79056SOL    HW139065  12.376   5.305   5.303
79056SOL    HW239066  12.239   5.281   5.364
79057SOL     OW39067   1.425   4.374   6.433
79057SOL    HW139068   1.461   4.287   6.455
79057SOL    HW239069   1.482   4.407   6.364
79058SOL     OW39070   2.579   7.769   9.640
79058SOL    HW139071   2.554   7.853   9.679
79058SOL    HW239072   2.655   7.741   9.691
79059SOL     OW39073  13.224   0.425  14.697
79059SOL    HW139074  13.263   0.512  14.687
79059SOL    HW239075  13.288   0.377  14.749
79060SOL     OW39076   3.974   3.369   7.080
79060SOL    HW139077   4.047   3.313   7.110
79060SOL    HW239078   3.966   3.349   6.987
79061SOL     OW39079   6.065   0.132   1.735
79061SOL    HW139080   5.992   0.089   1.780
79061SOL    HW239081   6.026   0.208   1.691
79062SOL     OW39082  13.653   9.333   5.727
79062SOL    HW139083  13.719   9.315   5.660
79062SOL    HW239084  13.589   9.261   5.717
79063SOL     OW39085  12.833  10.472   5.194
79063SOL    HW139086  12.908  10.511   5.238
79063SOL    HW239087  12.788  10.546   5.153
79064SOL     OW39088   6.531   0.242   4.600
79064SOL    HW139089   6.468   0.285   4.543
79064SOL    HW239090   6.479   0.179   4.651
79065SOL     OW39091   2.159   8.296   5.114
79065SOL    HW139092   2.184   8.320   5.203
79065SOL    HW239093   2.150   8.201   5.116
79066SOL     OW39094   3.370   9.634   7.718
79066SOL    HW139095   3.335   9.557   7.674
79066SOL    HW239096   3.458   9.644   7.682
79067SOL     OW39097   6.777   9.895   1.307
79067SOL    HW139098   6.741   9.832   1.245
79067SOL    HW239099   6.857   9.854   1.340
79068SOL     OW39100  14.291   0.112   7.888
79068SOL    HW139101  14.304   0.096   7.794
79068SOL    HW239102  14.232   0.041   7.915
79069SOL     OW39103   0.273  11.045  11.362
79069SOL    HW139104   0.248  11.107  11.430
79069SOL    HW239105   0.202  11.049  11.298
79070SOL     OW39106   7.318  12.893   5.612
79070SOL    HW139107   7.349  12.878   5.701
79070SOL    HW239108   7.378  12.958   5.576
79071SOL     OW39109  12.820   2.808   9.105
79071SOL    HW139110  12.824   2.904   9.104
79071SOL    HW239111  12.893   2.781   9.049
79072SOL     OW39112   2.038  12.072   2.815
79072SOL    HW139113   1.947  12.077   2.843
79072SOL    HW239114   2.036  12.021   2.734
79073SOL     OW39115   3.871   4.697  13.565
79073SOL    HW139116   3.871   4.611  13.524
79073SOL    HW239117   3.869   4.758  13.491
79074SOL     OW39118   6.521  13.406  13.373
79074SOL    HW139119   6.575  13.395  13.451
79074SOL    HW239120   6.501  13.317  13.344
79075SOL     OW39121  12.468  13.294  12.356
79075SOL    HW139122  12.389  13.304  12.303
79075SOL    HW239123  12.535  13.344  12.309
79076SOL     OW39124   6.979  14.233  11.652
79076SOL    HW139125   6.981  14.166  11.720
79076SOL    HW239126   7.037  14.200  11.584
79077SOL     OW39127   8.440  12.908   8.320
79077SOL    HW139128   8.536  12.902   8.319
79077SOL    HW239129   8.415  12.880   8.408
79078SOL     OW39130  13.574   3.117   9.766
79078SOL    HW139131  13.537   3.190   9.717
79078SOL    HW239132  13.616   3.157   9.843
79079SOL     OW39133  13.784  11.044  14.423
79079SOL    HW139134  13.872  11.017  14.449
79079SOL    HW239135  13.739  10.963  14.401
79080SOL     OW39136   3.041   0.654   9.405
79080SOL    HW139137   3.021   0.578   9.349
79080SOL    HW239138   3.107   0.622   9.466
79081SOL     OW39139   9.224   5.725   9.554
79081SOL    HW139140   9.137   5.763   9.551
79081SOL    HW239141   9.257   5.746   9.642
79082SOL     OW39142  12.439   5.998   5.575
79082SOL    HW139143  12.436   6.001   5.479
79082SOL    HW239144  12.529   6.020   5.598
79083SOL     OW39145   4.760  13.221   0.895
79083SOL    HW139146   4.674  13.259   0.913
79083SOL    HW239147   4.776  13.241   0.803
79084SOL     OW39148   5.321  11.920  13.048
79084SOL    HW139149   5.272  11.847  13.086
79084SOL    HW239150   5.412  11.904  13.074
79085SOL     OW39151   7.255  13.410   3.779
79085SOL    HW139152   7.272  13.480   3.841
79085SOL    HW239153   7.324  13.420   3.713
79086SOL     OW39154   5.067   9.220  10.805
79086SOL    HW139155   5.129   9.265  10.863
79086SOL    HW239156   5.022   9.291  10.760
79087SOL     OW39157   0.497   9.126   7.157
79087SOL    HW139158   0.518   9.219   7.147
79087SOL    HW239159   0.478   9.096   7.068
79088SOL     OW39160   1.752   5.656   4.860
79088SOL    HW139161   1.830   5.658   4.805
79088SOL    HW239162   1.784   5.679   4.948
79089SOL     OW39163   0.089   0.778   8.801
79089SOL    HW139164   0.034   0.843   8.758
79089SOL    HW239165   0.158   0.758   8.738
79090SOL     OW39166   2.445   0.211  14.675
79090SOL    HW139167   2.485   0.134  14.633
79090SOL    HW239168   2.471   0.284  14.619
79091SOL     OW39169   9.184   6.017  11.001
79091SOL    HW139170   9.257   6.057  11.048
79091SOL    HW239171   9.108   6.070  11.026
79092SOL     OW39172   0.849   8.362  11.221
79092SOL    HW139173   0.804   8.331  11.299
79092SOL    HW239174   0.942   8.351  11.241
79093SOL     OW39175  14.221   8.838   2.930
79093SOL    HW139176  14.203   8.849   2.836
79093SOL    HW239177  14.315   8.819   2.933
79094SOL     OW39178  10.524  12.331  13.243
79094SOL    HW139179  10.503  12.312  13.152
79094SOL    HW239180  10.481  12.262  13.293
79095SOL     OW39181   2.487   0.190  13.767
79095SOL    HW139182   2.495   0.095  13.773
79095SOL    HW239183   2.446   0.205  13.682
79096SOL     OW39184   8.272   7.453   5.901
79096SOL    HW139185   8.215   7.389   5.944
79096SOL    HW239186   8.322   7.492   5.973
79097SOL     OW39187   0.188  11.648   8.958
79097SOL    HW139188   0.186  11.553   8.967
79097SOL    HW239189   0.214  11.680   9.044
79098SOL     OW39190  12.757   0.820   0.638
79098SOL    HW139191  12.784   0.846   0.549
79098SOL    HW239192  12.825   0.759   0.666
79099SOL     OW39193  12.535   5.298  10.351
79099SOL    HW139194  12.596   5.370  10.331
79099SOL    HW239195  12.592   5.227  10.382
79100SOL     OW39196   4.398   1.350  11.120
79100SOL    HW139197   4.410   1.433  11.165
79100SOL    HW239198   4.409   1.371  11.027
79101SOL     OW39199  13.227   2.025  14.345
79101SOL    HW139200  13.264   2.027  14.433
79101SOL    HW239201  13.168   2.100  14.342
79102SOL     OW39202   9.952   0.845  14.219
79102SOL    HW139203   9.984   0.929  14.254
79102SOL    HW239204   9.871   0.829  14.268
79103SOL     OW39205  13.281  13.863   0.906
79103SOL    HW139206  13.361  13.827   0.943
79103SOL    HW239207  13.215  13.795   0.921
79104SOL     OW39208  13.123  13.378  10.751
79104SOL    HW139209  13.088  13.301  10.795
79104SOL    HW239210  13.206  13.349  10.714
79105SOL     OW39211  13.560   5.656   7.785
79105SOL    HW139212  13.648   5.636   7.754
79105SOL    HW239213  13.510   5.575   7.772
79106SOL     OW39214   0.614   4.917   4.646
79106SOL    HW139215   0.614   4.961   4.561
79106SOL    HW239216   0.700   4.875   4.652
79107SOL     OW39217  11.580  11.663   0.558
79107SOL    HW139218  11.619  11.721   0.622
79107SOL    HW239219  11.542  11.721   0.492
79108SOL     OW39220   5.616  13.717   6.451
79108SOL    HW139221   5.703  13.680   6.461
79108SOL    HW239222   5.605  13.773   6.528
79109SOL     OW39223  12.215   8.227   3.244
79109SOL    HW139224  12.177   8.312   3.266
79109SOL    HW239225  12.290   8.248   3.187
79110SOL     OW39226  11.472   2.990  10.538
79110SOL    HW139227  11.503   3.000  10.628
79110SOL    HW239228  11.538   2.935  10.496
79111SOL     OW39229  12.056   6.949   7.808
79111SOL    HW139230  11.983   7.011   7.800
79111SOL    HW239231  12.048   6.894   7.730
79112SOL     OW39232   2.819  10.716   9.850
79112SOL    HW139233   2.896  10.734   9.796
79112SOL    HW239234   2.799  10.799   9.893
79113SOL     OW39235  11.597   8.878   8.471
79113SOL    HW139236  11.660   8.950   8.467
79113SOL    HW239237  11.514   8.920   8.493
79114SOL     OW39238   5.379  12.673  12.664
79114SOL    HW139239   5.403  12.607  12.599
79114SOL    HW239240   5.288  12.653  12.687
79115SOL     OW39241   5.767  10.712   7.086
79115SOL    HW139242   5.696  10.718   7.149
79115SOL    HW239243   5.839  10.672   7.134
79116SOL     OW39244   8.569   3.668   2.429
79116SOL    HW139245   8.498   3.646   2.490
79116SOL    HW239246   8.533   3.737   2.373
79117SOL     OW39247   6.966   8.572   4.992
79117SOL    HW139248   6.970   8.646   5.052
79117SOL    HW239249   6.882   8.583   4.946
79118SOL     OW39250   2.862  12.819   4.448
79118SOL    HW139251   2.836  12.899   4.402
79118SOL    HW239252   2.951  12.801   4.416
79119SOL     OW39253   8.131  11.297   9.495
79119SOL    HW139254   8.081  11.219   9.473
79119SOL    HW239255   8.108  11.361   9.428
79120SOL     OW39256   1.014   3.567  11.268
79120SOL    HW139257   0.928   3.592  11.233
79120SOL    HW239258   1.043   3.645  11.317
79121SOL     OW39259  14.796   3.090   3.579
79121SOL    HW139260  14.711   3.047   3.584
79121SOL    HW239261  14.774   3.184   3.574
79122SOL     OW39262   0.015  12.050  14.801
79122SOL    HW139263   0.100  12.063  14.760
79122SOL    HW239264   0.033  11.997   0.006
79123SOL     OW39265   4.766  13.503   3.593
79123SOL    HW139266   4.825  13.498   3.668
79123SOL    HW239267   4.711  13.425   3.600
79124SOL     OW39268  13.287  14.554  10.331
79124SOL    HW139269  13.278  14.531  10.239
79124SOL    HW239270  13.291  14.650  10.331
79125SOL     OW39271  10.021   9.738  12.572
79125SOL    HW139272   9.933   9.755  12.538
79125SOL    HW239273  10.074   9.811  12.540
79126SOL     OW39274   9.453   7.833   8.669
79126SOL    HW139275   9.493   7.782   8.599
79126SOL    HW239276   9.390   7.773   8.710
79127SOL     OW39277   2.667   2.495  14.007
79127SOL    HW139278   2.655   2.459  13.920
79127SOL    HW239279   2.650   2.589  13.997
79128SOL     OW39280  10.790   2.033   8.012
79128SOL    HW139281  10.813   2.049   8.104
79128SOL    HW239282  10.712   2.087   7.997
79129SOL     OW39283   8.522   1.639   5.661
79129SOL    HW139284   8.525   1.668   5.570
79129SOL    HW239285   8.556   1.713   5.711
79130SOL     OW39286   1.217   1.540   1.376
79130SOL    HW139287   1.255   1.608   1.431
79130SOL    HW239288   1.292   1.500   1.333
79131SOL     OW39289   1.963  13.940   2.282
79131SOL    HW139290   2.021  14.008   2.314
79131SOL    HW239291   2.002  13.912   2.199
79132SOL     OW39292   5.705   7.527   9.956
79132SOL    HW139293   5.708   7.582   9.877
79132SOL    HW239294   5.782   7.551  10.006
79133SOL     OW39295   9.175  10.204  13.797
79133SOL    HW139296   9.165  10.135  13.862
79133SOL    HW239297   9.107  10.268  13.818
79134SOL     OW39298   1.919   0.485   6.735
79134SOL    HW139299   1.868   0.460   6.658
79134SOL    HW239300   1.855   0.487   6.806
79135SOL     OW39301   7.944  10.345  12.334
79135SOL    HW139302   7.907  10.342  12.246
79135SOL    HW239303   8.030  10.303  12.326
79136SOL     OW39304   2.606   7.479   5.828
79136SOL    HW139305   2.685   7.516   5.790
79136SOL    HW239306   2.582   7.407   5.770
79137SOL     OW39307   9.927  10.928   7.551
79137SOL    HW139308   9.842  10.959   7.522
79137SOL    HW239309   9.920  10.922   7.646
79138SOL     OW39310  14.592  11.568   2.967
79138SOL    HW139311  14.668  11.623   2.950
79138SOL    HW239312  14.622  11.505   3.032
79139SOL     OW39313   0.364  14.860  12.864
79139SOL    HW139314   0.326   0.012  12.949
79139SOL    HW239315   0.398   0.070  12.829
79140SOL     OW39316   6.400   0.326  11.335
79140SOL    HW139317   6.491   0.303  11.354
79140SOL    HW239318   6.364   0.354  11.419
79141SOL     OW39319  10.553  12.355   7.819
79141SOL    HW139320  10.589  12.268   7.803
79141SOL    HW239321  10.561  12.400   7.735
79142SOL     OW39322  11.571   1.650   8.669
79142SOL    HW139323  11.631   1.705   8.619
79142SOL    HW239324  11.555   1.574   8.613
79143SOL     OW39325   1.892  11.342   4.307
79143SOL    HW139326   1.954  11.372   4.240
79143SOL    HW239327   1.891  11.413   4.372
79144SOL     OW39328   0.358   8.893   6.496
79144SOL    HW139329   0.384   8.976   6.537
79144SOL    HW239330   0.268   8.879   6.524
79145SOL     OW39331  10.710   6.000   5.020
79145SOL    HW139332  10.636   5.990   5.080
79145SOL    HW239333  10.671   6.010   4.934
79146SOL     OW39334   7.203  12.246  10.138
79146SOL    HW139335   7.137  12.183  10.168
79146SOL    HW239336   7.284  12.195  10.133
79147SOL     OW39337   4.125  13.426   2.776
79147SOL    HW139338   4.174  13.360   2.826
79147SOL    HW239339   4.097  13.490   2.842
79148SOL     OW39340   8.501  13.752   3.911
79148SOL    HW139341   8.417  13.706   3.915
79148SOL    HW239342   8.510  13.794   3.997
79149SOL     OW39343   4.157   6.557  14.867
79149SOL    HW139344   4.104   6.629  14.833
79149SOL    HW239345   4.147   6.487  14.803
79150SOL     OW39346  10.422   2.555   7.525
79150SOL    HW139347  10.512   2.564   7.496
79150SOL    HW239348  10.373   2.532   7.445
79151SOL     OW39349  14.285  11.773   6.503
79151SOL    HW139350  14.339  11.804   6.576
79151SOL    HW239351  14.249  11.852   6.464
79152SOL     OW39352   0.378   1.538  13.620
79152SOL    HW139353   0.290   1.569  13.642
79152SOL    HW239354   0.437   1.598  13.665
79153SOL     OW39355   5.957   7.988   8.363
79153SOL    HW139356   5.879   7.964   8.312
79153SOL    HW239357   6.024   7.926   8.334
79154SOL     OW39358  13.935   9.461   5.915
79154SOL    HW139359  13.870   9.530   5.897
79154SOL    HW239360  13.904   9.420   5.995
79155SOL     OW39361   7.296   6.137  11.755
79155SOL    HW139362   7.215   6.187  11.752
79155SOL    HW239363   7.271   6.048  11.728
79156SOL     OW39364   2.378   8.322  13.987
79156SOL    HW139365   2.340   8.382  14.052
79156SOL    HW239366   2.303   8.277  13.949
79157SOL     OW39367  11.654  13.668   1.165
79157SOL    HW139368  11.713  13.646   1.092
79157SOL    HW239369  11.580  13.609   1.153
79158SOL     OW39370  14.593  14.546   6.987
79158SOL    HW139371  14.592  14.452   6.969
79158SOL    HW239372  14.685  14.568   6.999
79159SOL     OW39373   4.116   6.711   3.223
79159SOL    HW139374   4.138   6.721   3.316
79159SOL    HW239375   4.192   6.668   3.185
79160SOL     OW39376   6.525   7.287   7.166
79160SOL    HW139377   6.573   7.289   7.083
79160SOL    HW239378   6.442   7.244   7.146
79161SOL     OW39379   9.109  12.795   8.266
79161SOL    HW139380   9.204  12.802   8.260
79161SOL    HW239381   9.087  12.723   8.206
79162SOL     OW39382  10.120   9.893   8.174
79162SOL    HW139383  10.136   9.987   8.187
79162SOL    HW239384  10.205   9.852   8.188
79163SOL     OW39385  11.346   5.930  14.445
79163SOL    HW139386  11.292   6.007  14.463
79163SOL    HW239387  11.362   5.891  14.530
79164SOL     OW39388   6.535   5.212  14.267
79164SOL    HW139389   6.574   5.163  14.340
79164SOL    HW239390   6.491   5.145  14.214
79165SOL     OW39391  12.701  13.562   7.768
79165SOL    HW139392  12.772  13.602   7.818
79165SOL    HW239393  12.645  13.635   7.742
79166SOL     OW39394   2.416   3.488  13.144
79166SOL    HW139395   2.418   3.583  13.152
79166SOL    HW239396   2.451   3.471  13.056
79167SOL     OW39397   6.620   0.660   6.545
79167SOL    HW139398   6.529   0.641   6.522
79167SOL    HW239399   6.670   0.633   6.468
79168SOL     OW39400  11.601   3.141  13.102
79168SOL    HW139401  11.654   3.194  13.161
79168SOL    HW239402  11.609   3.051  13.136
79169SOL     OW39403   1.091   0.450   7.994
79169SOL    HW139404   1.067   0.428   8.084
79169SOL    HW239405   1.176   0.493   8.002
79170SOL     OW39406   8.540  11.341   4.005
79170SOL    HW139407   8.495  11.424   4.022
79170SOL    HW239408   8.500  11.280   4.066
79171SOL     OW39409   5.142   5.717   5.354
79171SOL    HW139410   5.047   5.716   5.365
79171SOL    HW239411   5.155   5.716   5.259
79172SOL     OW39412  13.140   7.413   1.920
79172SOL    HW139413  13.049   7.401   1.946
79172SOL    HW239414  13.181   7.457   1.994
79173SOL     OW39415   8.229   3.871   8.369
79173SOL    HW139416   8.286   3.833   8.302
79173SOL    HW239417   8.196   3.796   8.419
79174SOL     OW39418   9.399   0.932   3.537
79174SOL    HW139419   9.487   0.957   3.508
79174SOL    HW239420   9.370   0.868   3.471
79175SOL     OW39421   8.523   3.553  11.746
79175SOL    HW139422   8.585   3.497  11.700
79175SOL    HW239423   8.447   3.496  11.761
79176SOL     OW39424   7.972   2.317   8.198
79176SOL    HW139425   7.999   2.409   8.205
79176SOL    HW239426   7.942   2.308   8.107
79177SOL     OW39427   5.665   1.062  13.945
79177SOL    HW139428   5.660   1.129  13.877
79177SOL    HW239429   5.670   1.111  14.027
79178SOL     OW39430   2.846   1.187   8.291
79178SOL    HW139431   2.905   1.160   8.221
79178SOL    HW239432   2.796   1.108   8.311
79179SOL     OW39433   3.074   8.277  11.421
79179SOL    HW139434   3.038   8.362  11.396
79179SOL    HW239435   3.095   8.235  11.337
79180SOL     OW39436   6.791  11.060   8.360
79180SOL    HW139437   6.787  10.984   8.301
79180SOL    HW239438   6.804  11.021   8.447
79181SOL     OW39439   2.338  11.651   7.357
79181SOL    HW139440   2.252  11.671   7.394
79181SOL    HW239441   2.381  11.735   7.349
79182SOL     OW39442  14.279   1.332  13.702
79182SOL    HW139443  14.214   1.263  13.691
79182SOL    HW239444  14.324   1.311  13.785
79183SOL     OW39445  10.002   1.552   0.263
79183SOL    HW139446  10.015   1.625   0.203
79183SOL    HW239447  10.035   1.475   0.216
79184SOL     OW39448   0.914   7.684   6.964
79184SOL    HW139449   0.937   7.775   6.986
79184SOL    HW239450   0.839   7.691   6.905
79185SOL     OW39451   8.367   4.899   2.985
79185SOL    HW139452   8.368   4.932   2.896
79185SOL    HW239453   8.371   4.977   3.040
79186SOL     OW39454   7.811   2.666   9.776
79186SOL    HW139455   7.887   2.665   9.835
79186SOL    HW239456   7.736   2.653   9.833
79187SOL     OW39457  13.514   7.626  11.515
79187SOL    HW139458  13.476   7.637  11.428
79187SOL    HW239459  13.559   7.709  11.532
79188SOL     OW39460   5.255   8.975   3.685
79188SOL    HW139461   5.162   8.958   3.672
79188SOL    HW239462   5.287   8.898   3.732
79189SOL     OW39463   7.044   7.470   6.973
79189SOL    HW139464   7.069   7.516   7.053
79189SOL    HW239465   6.950   7.454   6.984
79190SOL     OW39466   2.192   9.269   5.536
79190SOL    HW139467   2.248   9.201   5.574
79190SOL    HW239468   2.103   9.233   5.544
79191SOL     OW39469   9.920   6.952   0.523
79191SOL    HW139470   9.859   7.002   0.469
79191SOL    HW239471   9.983   6.916   0.461
79192SOL     OW39472   4.828   2.640   6.734
79192SOL    HW139473   4.816   2.732   6.712
79192SOL    HW239474   4.923   2.627   6.733
79193SOL     OW39475  13.834   6.279  14.845
79193SOL    HW139476  13.746   6.308  14.870
79193SOL    HW239477  13.845   6.309  14.755
79194SOL     OW39478   9.334   1.260   0.255
79194SOL    HW139479   9.306   1.332   0.310
79194SOL    HW239480   9.422   1.238   0.288
79195SOL     OW39481   3.953  10.872   9.215
79195SOL    HW139482   3.975  10.795   9.162
79195SOL    HW239483   3.946  10.943   9.152
79196SOL     OW39484   1.290   4.479   1.123
79196SOL    HW139485   1.285   4.395   1.076
79196SOL    HW239486   1.381   4.506   1.111
79197SOL     OW39487   2.843  10.498  10.162
79197SOL    HW139488   2.825  10.592  10.153
79197SOL    HW239489   2.937  10.490  10.146
79198SOL     OW39490  10.604   3.043   1.858
79198SOL    HW139491  10.529   2.984   1.868
79198SOL    HW239492  10.569   3.121   1.816
79199SOL     OW39493   4.325  10.682  14.453
79199SOL    HW139494   4.329  10.698  14.358
79199SOL    HW239495   4.415  10.692  14.483
79200SOL     OW39496   4.456  11.949  13.322
79200SOL    HW139497   4.389  11.923  13.385
79200SOL    HW239498   4.517  11.875  13.319
79201SOL     OW39499  11.650  12.509   8.053
79201SOL    HW139500  11.675  12.490   8.143
79201SOL    HW239501  11.635  12.604   8.052
79202SOL     OW39502   8.966   3.878  11.828
79202SOL    HW139503   8.950   3.970  11.848
79202SOL    HW239504   8.973   3.835  11.913
79203SOL     OW39505   2.986  11.432  14.709
79203SOL    HW139506   2.929  11.470  14.642
79203SOL    HW239507   2.975  11.489  14.785
79204SOL     OW39508   6.836   9.692   3.661
79204SOL    HW139509   6.819   9.715   3.570
79204SOL    HW239510   6.897   9.619   3.657
79205SOL     OW39511   0.546   7.864   0.068
79205SOL    HW139512   0.577   7.789   0.120
79205SOL    HW239513   0.528   7.932   0.133
79206SOL     OW39514   3.335   2.989   2.280
79206SOL    HW139515   3.402   3.006   2.346
79206SOL    HW239516   3.270   3.058   2.293
79207SOL     OW39517  11.898   4.547   2.058
79207SOL    HW139518  11.938   4.612   2.000
79207SOL    HW239519  11.941   4.562   2.143
79208SOL     OW39520   1.985   1.536   7.095
79208SOL    HW139521   1.901   1.519   7.138
79208SOL    HW239522   2.022   1.450   7.080
79209SOL     OW39523   8.626   9.657  12.998
79209SOL    HW139524   8.580   9.709  13.064
79209SOL    HW239525   8.604   9.699  12.915
79210SOL     OW39526   1.098  13.899   1.930
79210SOL    HW139527   1.074  13.983   1.891
79210SOL    HW239528   1.052  13.834   1.877
79211SOL     OW39529   3.727   3.990   7.417
79211SOL    HW139530   3.751   3.909   7.373
79211SOL    HW239531   3.781   4.057   7.375
79212SOL     OW39532   1.164   3.404  12.547
79212SOL    HW139533   1.155   3.394  12.642
79212SOL    HW239534   1.120   3.487  12.528
79213SOL     OW39535  12.820   2.504   6.036
79213SOL    HW139536  12.797   2.597   6.030
79213SOL    HW239537  12.746   2.464   6.081
79214SOL     OW39538   6.461   3.122  14.094
79214SOL    HW139539   6.412   3.121  14.012
79214SOL    HW239540   6.536   3.179  14.077
79215SOL     OW39541  12.037  12.020  14.814
79215SOL    HW139542  12.087  12.032   0.022
79215SOL    HW239543  11.972  12.089  14.815
79216SOL     OW39544   3.769   0.973   9.142
79216SOL    HW139545   3.696   1.033   9.160
79216SOL    HW239546   3.737   0.918   9.070
79217SOL     OW39547   8.625  11.173   0.383
79217SOL    HW139548   8.552  11.235   0.382
79217SOL    HW239549   8.699  11.223   0.348
79218SOL     OW39550  11.511   0.394   4.372
79218SOL    HW139551  11.578   0.378   4.438
79218SOL    HW239552  11.468   0.310   4.359
79219SOL     OW39553  12.785   0.673   7.032
79219SOL    HW139554  12.798   0.707   6.943
79219SOL    HW239555  12.697   0.634   7.030
79220SOL     OW39556  14.286   1.875   3.560
79220SOL    HW139557  14.258   1.965   3.578
79220SOL    HW239558  14.266   1.828   3.641
79221SOL     OW39559   9.609   0.296   0.762
79221SOL    HW139560   9.662   0.368   0.795
79221SOL    HW239561   9.525   0.335   0.741
79222SOL     OW39562  10.462   9.522  10.088
79222SOL    HW139563  10.469   9.475  10.005
79222SOL    HW239564  10.526   9.480  10.145
79223SOL     OW39565  11.864   8.552   6.212
79223SOL    HW139566  11.807   8.578   6.284
79223SOL    HW239567  11.863   8.627   6.152
79224SOL     OW39568   3.740  11.622  14.843
79224SOL    HW139569   3.739  11.653  14.752
79224SOL    HW239570   3.728  11.702   0.022
79225SOL     OW39571  12.237   1.175  13.739
79225SOL    HW139572  12.263   1.238  13.671
79225SOL    HW239573  12.161   1.131  13.703
79226SOL     OW39574   7.991   8.759   1.961
79226SOL    HW139575   7.974   8.758   2.055
79226SOL    HW239576   8.073   8.711   1.951
79227SOL     OW39577  12.407   1.110   5.913
79227SOL    HW139578  12.327   1.157   5.889
79227SOL    HW239579  12.388   1.018   5.893
79228SOL     OW39580  10.358   8.332  10.102
79228SOL    HW139581  10.391   8.347  10.013
79228SOL    HW239582  10.381   8.241  10.121
79229SOL     OW39583   2.515   7.677   1.389
79229SOL    HW139584   2.486   7.754   1.340
79229SOL    HW239585   2.442   7.616   1.384
79230SOL     OW39586   9.815   2.391   4.840
79230SOL    HW139587   9.804   2.477   4.881
79230SOL    HW239588   9.759   2.333   4.891
79231SOL     OW39589   6.381   9.189  11.494
79231SOL    HW139590   6.318   9.193  11.422
79231SOL    HW239591   6.449   9.129  11.462
79232SOL     OW39592   1.870  12.254  11.030
79232SOL    HW139593   1.824  12.269  10.948
79232SOL    HW239594   1.957  12.291  11.016
79233SOL     OW39595   4.070  10.353   7.623
79233SOL    HW139596   4.086  10.310   7.539
79233SOL    HW239597   4.107  10.441   7.613
79234SOL     OW39598   4.377  11.155   7.778
79234SOL    HW139599   4.422  11.135   7.860
79234SOL    HW239600   4.448  11.168   7.715
79235SOL     OW39601  14.012   2.595  11.563
79235SOL    HW139602  13.971   2.528  11.619
79235SOL    HW239603  14.047   2.659  11.625
79236SOL     OW39604   5.695   3.902  12.585
79236SOL    HW139605   5.647   3.833  12.538
79236SOL    HW239606   5.777   3.910  12.537
79237SOL     OW39607  11.325  14.230   4.128
79237SOL    HW139608  11.293  14.291   4.061
79237SOL    HW239609  11.295  14.267   4.211
79238SOL     OW39610  13.774  13.606   8.404
79238SOL    HW139611  13.737  13.679   8.454
79238SOL    HW239612  13.765  13.530   8.461
79239SOL     OW39613   5.567   3.738   5.592
79239SOL    HW139614   5.640   3.702   5.542
79239SOL    HW239615   5.589   3.721   5.683
79240SOL     OW39616  10.697   9.375   9.010
79240SOL    HW139617  10.758   9.375   9.085
79240SOL    HW239618  10.705   9.463   8.973
79241SOL     OW39619   4.409   2.155   3.245
79241SOL    HW139620   4.316   2.150   3.222
79241SOL    HW239621   4.454   2.118   3.169
79242SOL     OW39622  12.982   9.421   8.552
79242SOL    HW139623  13.049   9.356   8.571
79242SOL    HW239624  12.979   9.425   8.457
79243SOL     OW39625  12.455   7.510  13.338
79243SOL    HW139626  12.486   7.468  13.258
79243SOL    HW239627  12.372   7.551  13.313
79244SOL     OW39628   3.226   8.100  14.729
79244SOL    HW139629   3.230   8.195  14.738
79244SOL    HW239630   3.314   8.074  14.701
79245SOL     OW39631   9.874   9.681  14.109
79245SOL    HW139632   9.911   9.593  14.118
79245SOL    HW239633   9.945   9.740  14.134
79246SOL     OW39634   6.955   0.900   5.024
79246SOL    HW139635   7.028   0.957   5.003
79246SOL    HW239636   6.940   0.849   4.944
79247SOL     OW39637  11.769   2.966  10.789
79247SOL    HW139638  11.859   2.934  10.802
79247SOL    HW239639  11.718   2.887  10.770
79248SOL     OW39640   8.664   8.146   5.787
79248SOL    HW139641   8.615   8.084   5.842
79248SOL    HW239642   8.703   8.207   5.849
79249SOL     OW39643   6.269   7.335  13.877
79249SOL    HW139644   6.304   7.381  13.953
79249SOL    HW239645   6.174   7.336  13.889
79250SOL     OW39646  11.024   9.844   5.200
79250SOL    HW139647  11.094   9.872   5.258
79250SOL    HW239648  10.981   9.772   5.247
79251SOL     OW39649   0.022   8.826  14.404
79251SOL    HW139650   0.110   8.854  14.382
79251SOL    HW239651  14.837   8.891  14.363
79252SOL     OW39652  13.257   0.217  14.495
79252SOL    HW139653  13.234   0.275  14.568
79252SOL    HW239654  13.198   0.142  14.506
79253SOL     OW39655   8.237   0.560   1.834
79253SOL    HW139656   8.183   0.516   1.769
79253SOL    HW239657   8.327   0.533   1.814
79254SOL     OW39658  11.283   1.593  12.564
79254SOL    HW139659  11.188   1.588  12.572
79254SOL    HW239660  11.314   1.604  12.653
79255SOL     OW39661   5.248   0.845   3.560
79255SOL    HW139662   5.186   0.873   3.628
79255SOL    HW239663   5.206   0.769   3.519
79256SOL     OW39664  10.062  14.650   8.408
79256SOL    HW139665  10.154  14.678   8.404
79256SOL    HW239666  10.067  14.554   8.413
79257SOL     OW39667   6.169  14.644  13.807
79257SOL    HW139668   6.081  14.609  13.793
79257SOL    HW239669   6.171  14.665  13.900
79258SOL     OW39670   4.096  10.505  11.493
79258SOL    HW139671   4.118  10.595  11.516
79258SOL    HW239672   4.072  10.509  11.401
79259SOL     OW39673   2.934  14.489  10.704
79259SOL    HW139674   2.897  14.512  10.789
79259SOL    HW239675   2.860  14.449  10.656
79260SOL     OW39676   7.136   4.281   2.989
79260SOL    HW139677   7.187   4.213   3.033
79260SOL    HW239678   7.082   4.319   3.058
79261SOL     OW39679   6.760   3.571   8.437
79261SOL    HW139680   6.730   3.626   8.365
79261SOL    HW239681   6.681   3.554   8.488
79262SOL     OW39682   3.459   9.888   7.487
79262SOL    HW139683   3.499   9.806   7.517
79262SOL    HW239684   3.367   9.881   7.514
79263SOL     OW39685   8.312   0.296   2.257
79263SOL    HW139686   8.356   0.277   2.175
79263SOL    HW239687   8.320   0.215   2.308
79264SOL     OW39688   1.314  11.807  12.112
79264SOL    HW139689   1.367  11.871  12.066
79264SOL    HW239690   1.256  11.858  12.167
79265SOL     OW39691   6.423   0.685   5.687
79265SOL    HW139692   6.343   0.644   5.656
79265SOL    HW239693   6.445   0.749   5.619
79266SOL     OW39694   1.894  14.279  12.899
79266SOL    HW139695   1.881  14.336  12.975
79266SOL    HW239696   1.901  14.340  12.825
79267SOL     OW39697  13.621   7.100   7.342
79267SOL    HW139698  13.599   7.039   7.272
79267SOL    HW239699  13.634   7.184   7.298
79268SOL     OW39700   7.005   2.113  11.090
79268SOL    HW139701   6.931   2.055  11.105
79268SOL    HW239702   6.966   2.200  11.080
79269SOL     OW39703  10.077   8.335   3.705
79269SOL    HW139704   9.983   8.353   3.700
79269SOL    HW239705  10.118   8.410   3.661
79270SOL     OW39706  14.747  14.073   5.281
79270SOL    HW139707  14.780  14.033   5.361
79270SOL    HW239708  14.825  14.087   5.228
79271SOL     OW39709   0.286   3.739   8.364
79271SOL    HW139710   0.246   3.696   8.439
79271SOL    HW239711   0.268   3.832   8.378
79272SOL     OW39712  12.373   8.685   7.473
79272SOL    HW139713  12.328   8.618   7.421
79272SOL    HW239714  12.304   8.744   7.501
79273SOL     OW39715  12.765  13.599   5.922
79273SOL    HW139716  12.749  13.613   6.015
79273SOL    HW239717  12.680  13.615   5.880
79274SOL     OW39718  11.447   4.432  11.920
79274SOL    HW139719  11.511   4.398  11.858
79274SOL    HW239720  11.494   4.439  12.003
79275SOL     OW39721   7.294   0.818   8.816
79275SOL    HW139722   7.386   0.835   8.796
79275SOL    HW239723   7.289   0.722   8.824
79276SOL     OW39724   9.098   7.888  13.985
79276SOL    HW139725   9.079   7.802  14.021
79276SOL    HW239726   9.193   7.897  13.991
79277SOL     OW39727   0.028  12.966   2.237
79277SOL    HW139728   0.071  12.892   2.278
79277SOL    HW239729  14.868  13.018   2.311
79278SOL     OW39730   8.887   7.872   9.367
79278SOL    HW139731   8.889   7.962   9.335
79278SOL    HW239732   8.824   7.827   9.309
79279SOL     OW39733   5.126   7.727   9.022
79279SOL    HW139734   5.145   7.782   9.098
79279SOL    HW239735   5.201   7.741   8.963
79280SOL     OW39736   7.442   2.799   0.196
79280SOL    HW139737   7.483   2.760   0.273
79280SOL    HW239738   7.492   2.764   0.122
79281SOL     OW39739  10.386   0.051  14.067
79281SOL    HW139740  10.335   0.129  14.090
79281SOL    HW239741  10.454   0.082  14.008
79282SOL     OW39742   9.524   6.816   0.123
79282SOL    HW139743   9.503   6.727   0.097
79282SOL    HW239744   9.482   6.827   0.208
79283SOL     OW39745   4.196   6.363   0.201
79283SOL    HW139746   4.216   6.424   0.130
79283SOL    HW239747   4.267   6.377   0.264
79284SOL     OW39748  12.694  14.376  13.875
79284SOL    HW139749  12.678  14.309  13.941
79284SOL    HW239750  12.709  14.456  13.926
79285SOL     OW39751  11.657   1.703  10.377
79285SOL    HW139752  11.678   1.764  10.448
79285SOL    HW239753  11.728   1.713  10.314
79286SOL     OW39754   4.415  12.032   3.305
79286SOL    HW139755   4.446  11.947   3.274
79286SOL    HW239756   4.439  12.034   3.398
79287SOL     OW39757   3.111   5.251  14.306
79287SOL    HW139758   3.188   5.305  14.327
79287SOL    HW239759   3.080   5.286  14.222
79288SOL     OW39760   5.802   1.545   8.547
79288SOL    HW139761   5.721   1.595   8.546
79288SOL    HW239762   5.842   1.566   8.631
79289SOL     OW39763   3.023   1.577   4.371
79289SOL    HW139764   2.984   1.658   4.338
79289SOL    HW239765   3.085   1.551   4.303
79290SOL     OW39766  13.713  12.233   0.930
79290SOL    HW139767  13.693  12.319   0.966
79290SOL    HW239768  13.650  12.223   0.858
79291SOL     OW39769  14.773   2.378   1.355
79291SOL    HW139770  14.758   2.377   1.260
79291SOL    HW239771  14.862   2.342   1.365
79292SOL     OW39772  10.221   4.220   2.472
79292SOL    HW139773  10.143   4.200   2.421
79292SOL    HW239774  10.263   4.292   2.424
79293SOL     OW39775  10.925   7.878   4.906
79293SOL    HW139776  10.845   7.827   4.891
79293SOL    HW239777  10.931   7.885   5.001
79294SOL     OW39778   1.527   5.013  14.861
79294SOL    HW139779   1.513   4.944   0.055
79294SOL    HW239780   1.617   5.042   0.003
79295SOL     OW39781   3.527   2.673   8.848
79295SOL    HW139782   3.577   2.706   8.922
79295SOL    HW239783   3.439   2.709   8.860
79296SOL     OW39784   8.957   0.841   5.971
79296SOL    HW139785   8.904   0.762   5.983
79296SOL    HW239786   9.034   0.811   5.922
79297SOL     OW39787  12.109   4.869   6.204
79297SOL    HW139788  12.060   4.935   6.254
79297SOL    HW239789  12.199   4.876   6.236
79298SOL     OW39790   5.420   4.574  12.675
79298SOL    HW139791   5.405   4.552  12.767
79298SOL    HW239792   5.372   4.507  12.626
79299SOL     OW39793   0.145   3.595   3.495
79299SOL    HW139794   0.136   3.585   3.590
79299SOL    HW239795   0.061   3.632   3.468
79300SOL     OW39796   3.141  11.935   5.999
79300SOL    HW139797   3.056  11.974   6.021
79300SOL    HW239798   3.135  11.845   6.030
79301SOL     OW39799   1.488   5.895  12.042
79301SOL    HW139800   1.515   5.904  11.950
79301SOL    HW239801   1.437   5.813  12.044
79302SOL     OW39802   1.547   4.582  14.136
79302SOL    HW139803   1.604   4.611  14.207
79302SOL    HW239804   1.459   4.587  14.173
79303SOL     OW39805  12.342   4.477   4.732
79303SOL    HW139806  12.296   4.472   4.648
79303SOL    HW239807  12.314   4.399   4.779
79304SOL     OW39808   9.934  10.539  13.405
79304SOL    HW139809  10.026  10.544  13.380
79304SOL    HW239810   9.934  10.556  13.500
79305SOL     OW39811   1.383   1.966  13.524
79305SOL    HW139812   1.299   1.949  13.482
79305SOL    HW239813   1.376   2.055  13.557
79306SOL     OW39814   2.739   7.651   6.596
79306SOL    HW139815   2.808   7.701   6.551
79306SOL    HW239816   2.779   7.622   6.677
79307SOL     OW39817  10.327   6.271  14.452
79307SOL    HW139818  10.252   6.312  14.410
79307SOL    HW239819  10.289   6.216  14.521
79308SOL     OW39820  11.668   2.341   2.662
79308SOL    HW139821  11.606   2.330   2.734
79308SOL    HW239822  11.702   2.253   2.646
79309SOL     OW39823   2.243  12.032   8.805
79309SOL    HW139824   2.338  12.023   8.792
79309SOL    HW239825   2.212  11.942   8.814
79310SOL     OW39826   3.964  10.381   8.087
79310SOL    HW139827   4.029  10.442   8.051
79310SOL    HW239828   3.899  10.437   8.128
79311SOL     OW39829  14.202  11.034  13.413
79311SOL    HW139830  14.270  11.029  13.480
79311SOL    HW239831  14.188  10.943  13.386
79312SOL     OW39832  12.768  12.911  13.663
79312SOL    HW139833  12.850  12.959  13.660
79312SOL    HW239834  12.786  12.829  13.617
79313SOL     OW39835  11.335  12.389   3.244
79313SOL    HW139836  11.322  12.298   3.272
79313SOL    HW239837  11.430  12.402   3.251
79314SOL     OW39838   6.101   2.474   9.435
79314SOL    HW139839   6.056   2.485   9.351
79314SOL    HW239840   6.144   2.558   9.451
79315SOL     OW39841   4.260   3.879   8.736
79315SOL    HW139842   4.275   3.787   8.759
79315SOL    HW239843   4.259   3.881   8.641
79316SOL     OW39844  11.383   4.761  10.539
79316SOL    HW139845  11.345   4.763  10.626
79316SOL    HW239846  11.366   4.672  10.507
79317SOL     OW39847  10.411   3.954   2.449
79317SOL    HW139848  10.346   3.894   2.485
79317SOL    HW239849  10.495   3.923   2.484
79318SOL     OW39850   1.726   3.680  13.491
79318SOL    HW139851   1.766   3.766  13.506
79318SOL    HW239852   1.661   3.696  13.422
79319SOL     OW39853   5.135   2.077   6.725
79319SOL    HW139854   5.114   2.062   6.633
79319SOL    HW239855   5.216   2.029   6.739
79320SOL     OW39856  10.540   7.915   7.426
79320SOL    HW139857  10.600   7.844   7.445
79320SOL    HW239858  10.521   7.954   7.512
79321SOL     OW39859  13.355  13.278  11.870
79321SOL    HW139860  13.278  13.278  11.927
79321SOL    HW239861  13.338  13.349  11.807
79322SOL     OW39862  14.280  10.970  12.850
79322SOL    HW139863  14.203  10.941  12.802
79322SOL    HW239864  14.267  10.936  12.939
79323SOL     OW39865   3.032   3.392   3.076
79323SOL    HW139866   3.110   3.367   3.125
79323SOL    HW239867   3.057   3.472   3.030
79324SOL     OW39868   0.213   8.595   2.110
79324SOL    HW139869   0.301   8.574   2.079
79324SOL    HW239870   0.227   8.659   2.180
79325SOL     OW39871   4.734  13.257   8.066
79325SOL    HW139872   4.657  13.213   8.030
79325SOL    HW239873   4.809  13.213   8.025
79326SOL     OW39874  10.773  12.744  13.236
79326SOL    HW139875  10.867  12.731  13.244
79326SOL    HW239876  10.760  12.838  13.247
79327SOL     OW39877   0.879  13.006   1.306
79327SOL    HW139878   0.924  13.085   1.276
79327SOL    HW239879   0.947  12.953   1.347
79328SOL     OW39880   8.814   4.603  12.577
79328SOL    HW139881   8.888   4.594  12.638
79328SOL    HW239882   8.819   4.694  12.547
79329SOL     OW39883  13.313  12.026   1.087
79329SOL    HW139884  13.352  11.958   1.140
79329SOL    HW239885  13.315  12.104   1.142
79330SOL     OW39886   3.981   3.844  11.380
79330SOL    HW139887   3.997   3.839  11.474
79330SOL    HW239888   3.906   3.787  11.366
79331SOL     OW39889  14.771   0.611   2.279
79331SOL    HW139890  14.778   0.551   2.205
79331SOL    HW239891  14.717   0.683   2.246
79332SOL     OW39892   9.197   3.197   3.462
79332SOL    HW139893   9.155   3.253   3.527
79332SOL    HW239894   9.198   3.249   3.382
79333SOL     OW39895   5.307   4.568   1.705
79333SOL    HW139896   5.374   4.607   1.650
79333SOL    HW239897   5.308   4.621   1.785
79334SOL     OW39898   3.125   1.411  12.299
79334SOL    HW139899   3.115   1.407  12.395
79334SOL    HW239900   3.045   1.369  12.266
79335SOL     OW39901  14.782   9.152   4.480
79335SOL    HW139902  14.693   9.172   4.508
79335SOL    HW239903  14.788   9.185   4.390
79336SOL     OW39904   3.076   6.217  14.129
79336SOL    HW139905   3.040   6.234  14.042
79336SOL    HW239906   3.113   6.129  14.123
79337SOL     OW39907  10.532   6.318   9.532
79337SOL    HW139908  10.448   6.282   9.504
79337SOL    HW239909  10.533   6.306   9.627
79338SOL     OW39910   7.078   6.699   9.825
79338SOL    HW139911   6.988   6.679   9.851
79338SOL    HW239912   7.130   6.629   9.865
79339SOL     OW39913  12.212   4.961   0.350
79339SOL    HW139914  12.225   4.906   0.428
79339SOL    HW239915  12.296   5.006   0.339
79340SOL     OW39916   3.895   4.870  11.744
79340SOL    HW139917   3.804   4.859  11.773
79340SOL    HW239918   3.936   4.786  11.760
79341SOL     OW39919   0.386   3.763  11.945
79341SOL    HW139920   0.345   3.677  11.950
79341SOL    HW239921   0.327   3.816  11.891
79342SOL     OW39922   2.982   6.849   7.657
79342SOL    HW139923   3.052   6.912   7.637
79342SOL    HW239924   2.919   6.898   7.709
79343SOL     OW39925   3.100   5.447   7.877
79343SOL    HW139926   3.029   5.384   7.868
79343SOL    HW239927   3.162   5.406   7.937
79344SOL     OW39928   4.476   1.696   9.240
79344SOL    HW139929   4.489   1.788   9.215
79344SOL    HW239930   4.517   1.689   9.326
79345SOL     OW39931   4.441   9.538   3.217
79345SOL    HW139932   4.465   9.456   3.261
79345SOL    HW239933   4.469   9.526   3.127
79346SOL     OW39934   0.789   3.879   3.855
79346SOL    HW139935   0.734   3.864   3.778
79346SOL    HW239936   0.825   3.967   3.842
79347SOL     OW39937  11.578   9.925   4.648
79347SOL    HW139938  11.537  10.005   4.681
79347SOL    HW239939  11.639   9.899   4.718
79348SOL     OW39940   1.729  12.143   2.847
79348SOL    HW139941   1.634  12.152   2.847
79348SOL    HW239942   1.761  12.223   2.807
79349SOL     OW39943   7.127  11.129   8.141
79349SOL    HW139944   7.211  11.087   8.163
79349SOL    HW239945   7.096  11.166   8.224
79350SOL     OW39946   4.525  13.633   6.889
79350SOL    HW139947   4.620  13.640   6.894
79350SOL    HW239948   4.505  13.636   6.795
79351SOL     OW39949   9.772   6.953   9.342
79351SOL    HW139950   9.790   6.915   9.428
79351SOL    HW239951   9.816   7.039   9.345
79352SOL     OW39952  12.446   2.261  14.242
79352SOL    HW139953  12.401   2.316  14.178
79352SOL    HW239954  12.387   2.186  14.255
79353SOL     OW39955   0.929   6.810   2.628
79353SOL    HW139956   0.904   6.886   2.577
79353SOL    HW239957   0.987   6.845   2.696
79354SOL     OW39958  11.644   6.216  11.416
79354SOL    HW139959  11.638   6.302  11.458
79354SOL    HW239960  11.589   6.223  11.338
79355SOL     OW39961   3.328  13.709   9.486
79355SOL    HW139962   3.235  13.732   9.485
79355SOL    HW239963   3.342  13.661   9.404
79356SOL     OW39964   8.318  10.333  10.201
79356SOL    HW139965   8.266  10.378  10.267
79356SOL    HW239966   8.394  10.299  10.250
79357SOL     OW39967   6.127   6.921   3.181
79357SOL    HW139968   6.121   7.015   3.197
79357SOL    HW239969   6.054   6.883   3.229
79358SOL     OW39970   9.622   3.441  14.510
79358SOL    HW139971   9.583   3.455  14.596
79358SOL    HW239972   9.664   3.524  14.489
79359SOL     OW39973   4.978   1.806   0.940
79359SOL    HW139974   5.029   1.829   1.018
79359SOL    HW239975   5.007   1.717   0.918
79360SOL     OW39976  14.424   2.060   0.714
79360SOL    HW139977  14.421   2.000   0.788
79360SOL    HW239978  14.373   2.017   0.645
79361SOL     OW39979   1.452   4.905   3.912
79361SOL    HW139980   1.486   4.966   3.847
79361SOL    HW239981   1.413   4.834   3.860
79362SOL     OW39982   0.400   3.052  12.305
79362SOL    HW139983   0.329   3.099  12.259
79362SOL    HW239984   0.358   3.017  12.383
79363SOL     OW39985  12.741   4.075   7.765
79363SOL    HW139986  12.836   4.072   7.774
79363SOL    HW239987  12.724   4.157   7.719
79364SOL     OW39988   6.496  12.670  11.529
79364SOL    HW139989   6.529  12.667  11.618
79364SOL    HW239990   6.552  12.609  11.480
79365SOL     OW39991   7.155   1.573   9.572
79365SOL    HW139992   7.175   1.664   9.547
79365SOL    HW239993   7.066   1.577   9.606
79366SOL     OW39994   5.477  10.026   2.596
79366SOL    HW139995   5.404  10.053   2.651
79366SOL    HW239996   5.528   9.966   2.650
79367SOL     OW39997   3.346  13.349   0.322
79367SOL    HW139998   3.258  13.349   0.283
79367SOL    HW239999   3.400  13.302   0.258
79368SOL     OW40000   5.472   8.672   5.069
79368SOL    HW140001   5.427   8.699   5.149
79368SOL    HW240002   5.451   8.579   5.060
79369SOL     OW40003  10.912   4.665   0.803
79369SOL    HW140004  10.964   4.636   0.729
79369SOL    HW240005  10.961   4.739   0.839
79370SOL     OW40006  11.445   2.979  10.029
79370SOL    HW140007  11.467   2.942   9.944
79370SOL    HW240008  11.450   2.905  10.089
79371SOL     OW40009  12.753  14.687   2.519
79371SOL    HW140010  12.807  14.637   2.458
79371SOL    HW240011  12.813  14.711   2.590
79372SOL     OW40012  14.372  14.846   2.942
79372SOL    HW140013  14.390  14.763   2.986
79372SOL    HW240014  14.334  14.820   2.857
79373SOL     OW40015   9.313   3.461   3.795
79373SOL    HW140016   9.371   3.391   3.826
79373SOL    HW240017   9.285   3.506   3.874
79374SOL     OW40018   5.857   9.458   4.271
79374SOL    HW140019   5.923   9.519   4.303
79374SOL    HW240020   5.801   9.441   4.347
79375SOL     OW40021   4.495   7.614   4.041
79375SOL    HW140022   4.534   7.631   3.955
79375SOL    HW240023   4.566   7.573   4.091
79376SOL     OW40024   4.131   0.780   3.731
79376SOL    HW140025   4.104   0.689   3.743
79376SOL    HW240026   4.051   0.831   3.744
79377SOL     OW40027   6.239   8.512  10.871
79377SOL    HW140028   6.266   8.425  10.901
79377SOL    HW240029   6.206   8.497  10.782
79378SOL     OW40030   1.595   0.906  12.988
79378SOL    HW140031   1.501   0.897  13.000
79378SOL    HW240032   1.611   1.000  12.988
79379SOL     OW40033   8.940  13.715   6.527
79379SOL    HW140034   8.969  13.783   6.588
79379SOL    HW240035   8.950  13.634   6.575
79380SOL     OW40036  11.230   1.596   3.252
79380SOL    HW140037  11.222   1.554   3.338
79380SOL    HW240038  11.260   1.526   3.194
79381SOL     OW40039   6.893   1.245   0.065
79381SOL    HW140040   6.828   1.300   0.109
79381SOL    HW240041   6.932   1.301  14.871
79382SOL     OW40042   5.971   5.031   9.209
79382SOL    HW140043   5.880   5.009   9.189
79382SOL    HW240044   6.019   4.950   9.191
79383SOL     OW40045  12.350   2.693   0.229
79383SOL    HW140046  12.320   2.654   0.311
79383SOL    HW240047  12.360   2.619   0.169
79384SOL     OW40048   7.007  12.696   8.491
79384SOL    HW140049   6.988  12.768   8.431
79384SOL    HW240050   6.991  12.616   8.439
79385SOL     OW40051   4.697   5.494  12.228
79385SOL    HW140052   4.662   5.428  12.288
79385SOL    HW240053   4.723   5.444  12.150
79386SOL     OW40054   1.722   0.170  11.486
79386SOL    HW140055   1.700   0.118  11.409
79386SOL    HW240056   1.799   0.128  11.523
79387SOL     OW40057  14.831   3.782   1.062
79387SOL    HW140058  14.756   3.785   1.003
79387SOL    HW240059   0.033   3.811   1.008
79388SOL     OW40060   1.251   9.287   1.502
79388SOL    HW140061   1.310   9.333   1.442
79388SOL    HW240062   1.198   9.356   1.542
79389SOL     OW40063   0.001   1.627  12.140
79389SOL    HW140064  14.828   1.592  12.063
79389SOL    HW240065  14.823   1.593  12.214
79390SOL     OW40066   2.698   7.890  14.267
79390SOL    HW140067   2.760   7.818  14.257
79390SOL    HW240068   2.742   7.966  14.227
79391SOL     OW40069   7.648   9.856   0.604
79391SOL    HW140070   7.616   9.887   0.689
79391SOL    HW240071   7.735   9.896   0.596
79392SOL     OW40072  10.681   0.710  10.147
79392SOL    HW140073  10.615   0.728  10.080
79392SOL    HW240074  10.741   0.784  10.141
79393SOL     OW40075   8.820  12.098   7.606
79393SOL    HW140076   8.890  12.032   7.604
79393SOL    HW240077   8.852  12.165   7.667
79394SOL     OW40078   3.060   5.210   6.808
79394SOL    HW140079   3.033   5.302   6.804
79394SOL    HW240080   3.145   5.212   6.852
79395SOL     OW40081  11.597   1.007  10.857
79395SOL    HW140082  11.556   1.061  10.789
79395SOL    HW240083  11.684   1.046  10.870
79396SOL     OW40084   4.654  14.657  11.107
79396SOL    HW140085   4.691  14.589  11.050
79396SOL    HW240086   4.729  14.689  11.158
79397SOL     OW40087   5.090  12.476  10.716
79397SOL    HW140088   4.995  12.484  10.711
79397SOL    HW240089   5.123  12.520  10.638
79398SOL     OW40090   4.712   0.843   2.885
79398SOL    HW140091   4.734   0.752   2.905
79398SOL    HW240092   4.780   0.871   2.824
79399SOL     OW40093   4.390   4.162   7.384
79399SOL    HW140094   4.339   4.241   7.402
79399SOL    HW240095   4.362   4.135   7.296
79400SOL     OW40096  14.301   6.213   9.152
79400SOL    HW140097  14.379   6.193   9.099
79400SOL    HW240098  14.336   6.240   9.237
79401SOL     OW40099   2.689   1.835  13.558
79401SOL    HW140100   2.692   1.837  13.462
79401SOL    HW240101   2.639   1.913  13.582
79402SOL     OW40102   5.370   4.585   9.610
79402SOL    HW140103   5.409   4.672   9.614
79402SOL    HW240104   5.425   4.532   9.668
79403SOL     OW40105   9.221  12.301   5.257
79403SOL    HW140106   9.266  12.228   5.216
79403SOL    HW240107   9.214  12.367   5.188
79404SOL     OW40108  13.427   7.724  12.998
79404SOL    HW140109  13.438   7.689  13.087
79404SOL    HW240110  13.509   7.705  12.954
79405SOL     OW40111   1.980   7.197   6.741
79405SOL    HW140112   2.057   7.223   6.691
79405SOL    HW240113   2.012   7.133   6.805
79406SOL     OW40114  10.810  14.846   4.546
79406SOL    HW140115  10.786   0.001   4.457
79406SOL    HW240116  10.771   0.040   4.603
79407SOL     OW40117   7.171  13.696   8.048
79407SOL    HW140118   7.174  13.765   8.115
79407SOL    HW240119   7.088  13.710   8.003
79408SOL     OW40120   6.379   0.279  12.174
79408SOL    HW140121   6.471   0.293  12.152
79408SOL    HW240122   6.364   0.186  12.156
79409SOL     OW40123   9.545   3.632  14.097
79409SOL    HW140124   9.562   3.546  14.060
79409SOL    HW240125   9.632   3.670  14.110
79410SOL     OW40126  11.774   2.601  14.523
79410SOL    HW140127  11.810   2.606  14.435
79410SOL    HW240128  11.723   2.682  14.533
79411SOL     OW40129  10.303  10.791   2.897
79411SOL    HW140130  10.208  10.785   2.886
79411SOL    HW240131  10.335  10.815   2.810
79412SOL     OW40132   4.891   1.470   9.009
79412SOL    HW140133   4.879   1.377   9.029
79412SOL    HW240134   4.855   1.516   9.085
79413SOL     OW40135   8.305  13.574   7.221
79413SOL    HW140136   8.351  13.583   7.138
79413SOL    HW240137   8.250  13.496   7.210
79414SOL     OW40138   9.449   0.376   2.400
79414SOL    HW140139   9.405   0.331   2.473
79414SOL    HW240140   9.507   0.439   2.443
79415SOL     OW40141  10.142   0.987   3.250
79415SOL    HW140142  10.161   0.950   3.163
79415SOL    HW240143  10.188   1.071   3.251
79416SOL     OW40144   2.075  11.457   9.742
79416SOL    HW140145   2.092  11.551   9.752
79416SOL    HW240146   1.981  11.448   9.756
79417SOL     OW40147   4.567   0.154  13.031
79417SOL    HW140148   4.604   0.231  12.988
79417SOL    HW240149   4.629   0.134  13.101
79418SOL     OW40150  11.234   2.092  14.416
79418SOL    HW140151  11.267   2.039  14.489
79418SOL    HW240152  11.276   2.177  14.428
79419SOL     OW40153   8.125   3.134   2.037
79419SOL    HW140154   8.156   3.217   2.075
79419SOL    HW240155   8.104   3.155   1.946
79420SOL     OW40156  13.355   0.951   9.475
79420SOL    HW140157  13.372   1.045   9.472
79420SOL    HW240158  13.441   0.911   9.459
79421SOL     OW40159   9.009   2.676  10.348
79421SOL    HW140160   8.933   2.708  10.395
79421SOL    HW240161   8.988   2.584  10.328
79422SOL     OW40162   7.527   4.825  14.068
79422SOL    HW140163   7.533   4.730  14.074
79422SOL    HW240164   7.497   4.842  13.978
79423SOL     OW40165   9.791   2.324   6.348
79423SOL    HW140166   9.822   2.405   6.387
79423SOL    HW240167   9.805   2.336   6.254
79424SOL     OW40168   3.967  11.317   5.220
79424SOL    HW140169   4.056  11.340   5.192
79424SOL    HW240170   3.979  11.242   5.278
79425SOL     OW40171   1.367  11.836   0.084
79425SOL    HW140172   1.416  11.804   0.160
79425SOL    HW240173   1.276  11.819   0.106
79426SOL     OW40174   7.743  12.796   8.288
79426SOL    HW140175   7.837  12.803   8.305
79426SOL    HW240176   7.725  12.866   8.225
79427SOL     OW40177   9.524  13.234   5.428
79427SOL    HW140178   9.532  13.329   5.417
79427SOL    HW240179   9.537  13.219   5.521
79428SOL     OW40180   3.845   3.913   6.673
79428SOL    HW140181   3.859   3.838   6.731
79428SOL    HW240182   3.921   3.912   6.614
79429SOL     OW40183   1.146   6.142   5.540
79429SOL    HW140184   1.185   6.200   5.475
79429SOL    HW240185   1.176   6.177   5.624
79430SOL     OW40186  11.161   5.946  10.003
79430SOL    HW140187  11.179   5.956  10.096
79430SOL    HW240188  11.220   5.877   9.974
79431SOL     OW40189   2.028   7.454   6.966
79431SOL    HW140190   2.032   7.396   6.890
79431SOL    HW240191   2.006   7.540   6.929
79432SOL     OW40192   8.811  11.861   6.869
79432SOL    HW140193   8.820  11.880   6.775
79432SOL    HW240194   8.901  11.859   6.901
79433SOL     OW40195   8.795   5.745   4.106
79433SOL    HW140196   8.873   5.758   4.052
79433SOL    HW240197   8.787   5.650   4.113
79434SOL     OW40198   6.223   8.663  12.366
79434SOL    HW140199   6.313   8.683  12.339
79434SOL    HW240200   6.185   8.618  12.291
79435SOL     OW40201   7.200  10.743   3.276
79435SOL    HW140202   7.178  10.710   3.189
79435SOL    HW240203   7.291  10.771   3.269
79436SOL     OW40204   4.874   3.080  13.245
79436SOL    HW140205   4.910   3.043  13.164
79436SOL    HW240206   4.862   3.173  13.227
79437SOL     OW40207   7.126   2.925   8.755
79437SOL    HW140208   7.140   2.834   8.782
79437SOL    HW240209   7.118   2.974   8.837
79438SOL     OW40210  13.135   4.166   1.953
79438SOL    HW140211  13.204   4.180   1.887
79438SOL    HW240212  13.130   4.250   1.999
79439SOL     OW40213   2.654   0.374   9.112
79439SOL    HW140214   2.622   0.429   9.040
79439SOL    HW240215   2.615   0.289   9.097
79440SOL     OW40216   0.115   3.670  14.094
79440SOL    HW140217   0.056   3.644  14.022
79440SOL    HW240218   0.150   3.755  14.066
79441SOL     OW40219   4.638   0.213  13.708
79441SOL    HW140220   4.728   0.215  13.739
79441SOL    HW240221   4.631   0.288  13.648
79442SOL     OW40222   1.176   2.024  12.265
79442SOL    HW140223   1.247   1.994  12.322
79442SOL    HW240224   1.217   2.088  12.207
79443SOL     OW40225   2.594   5.692   5.347
79443SOL    HW140226   2.621   5.761   5.287
79443SOL    HW240227   2.673   5.640   5.361
79444SOL     OW40228   9.425   9.244   7.376
79444SOL    HW140229   9.373   9.319   7.344
79444SOL    HW240230   9.372   9.207   7.446
79445SOL     OW40231  10.816   5.491   6.011
79445SOL    HW140232  10.770   5.502   6.094
79445SOL    HW240233  10.909   5.491   6.034
79446SOL     OW40234  13.408   2.543   2.402
79446SOL    HW140235  13.404   2.638   2.404
79446SOL    HW240236  13.484   2.523   2.347
79447SOL     OW40237  10.635   8.827   4.185
79447SOL    HW140238  10.656   8.849   4.094
79447SOL    HW240239  10.715   8.789   4.220
79448SOL     OW40240   3.420  10.641   7.012
79448SOL    HW140241   3.347  10.603   7.061
79448SOL    HW240242   3.401  10.620   6.921
79449SOL     OW40243  11.796   3.289   0.571
79449SOL    HW140244  11.802   3.259   0.481
79449SOL    HW240245  11.778   3.383   0.565
79450SOL     OW40246  13.367   8.679   2.472
79450SOL    HW140247  13.352   8.625   2.395
79450SOL    HW240248  13.305   8.752   2.462
79451SOL     OW40249   6.483   1.899   6.791
79451SOL    HW140250   6.486   1.804   6.787
79451SOL    HW240251   6.487   1.927   6.700
79452SOL     OW40252   8.911   2.859  13.886
79452SOL    HW140253   8.900   2.875  13.792
79452SOL    HW240254   8.964   2.933  13.916
79453SOL     OW40255  11.749   1.421   0.727
79453SOL    HW140256  11.686   1.358   0.692
79453SOL    HW240257  11.731   1.423   0.821
79454SOL     OW40258   1.856   0.793   7.793
79454SOL    HW140259   1.828   0.884   7.790
79454SOL    HW240260   1.823   0.760   7.877
79455SOL     OW40261   6.734  11.207  13.499
79455SOL    HW140262   6.764  11.198  13.590
79455SOL    HW240263   6.809  11.243  13.452
79456SOL     OW40264   0.807   0.320   0.456
79456SOL    HW140265   0.878   0.380   0.432
79456SOL    HW240266   0.737   0.341   0.394
79457SOL     OW40267   0.815   0.719   7.322
79457SOL    HW140268   0.797   0.677   7.238
79457SOL    HW240269   0.811   0.649   7.386
79458SOL     OW40270   1.884   4.214  13.259
79458SOL    HW140271   1.882   4.225  13.355
79458SOL    HW240272   1.843   4.130  13.243
79459SOL     OW40273   8.744   2.908   1.787
79459SOL    HW140274   8.748   2.841   1.719
79459SOL    HW240275   8.722   2.860   1.867
79460SOL     OW40276  11.536   3.267   5.139
79460SOL    HW140277  11.605   3.271   5.073
79460SOL    HW240278  11.535   3.175   5.166
79461SOL     OW40279  11.570  12.456   4.219
79461SOL    HW140280  11.618  12.427   4.141
79461SOL    HW240281  11.601  12.545   4.234
79462SOL     OW40282   4.363   5.143   9.429
79462SOL    HW140283   4.340   5.114   9.517
79462SOL    HW240284   4.323   5.078   9.371
79463SOL     OW40285   1.947   0.531   3.498
79463SOL    HW140286   1.872   0.583   3.469
79463SOL    HW240287   1.972   0.479   3.422
79464SOL     OW40288  14.027   4.122   9.131
79464SOL    HW140289  14.057   4.067   9.204
79464SOL    HW240290  14.088   4.103   9.060
79465SOL     OW40291   8.199   8.815   4.506
79465SOL    HW140292   8.115   8.861   4.511
79465SOL    HW240293   8.188   8.739   4.563
79466SOL     OW40294   8.815   8.077  13.623
79466SOL    HW140295   8.821   8.145  13.556
79466SOL    HW240296   8.757   8.114  13.690
79467SOL     OW40297   6.789   1.134   7.752
79467SOL    HW140298   6.775   1.186   7.831
79467SOL    HW240299   6.870   1.086   7.769
79468SOL     OW40300   2.803   0.973   2.042
79468SOL    HW140301   2.711   0.961   2.018
79468SOL    HW240302   2.852   0.946   1.964
79469SOL     OW40303   1.810  14.434   6.903
79469SOL    HW140304   1.808  14.478   6.818
79469SOL    HW240305   1.883  14.475   6.949
79470SOL     OW40306   8.703   4.995   5.546
79470SOL    HW140307   8.702   5.075   5.493
79470SOL    HW240308   8.746   5.021   5.628
79471SOL     OW40309   0.035  14.819   3.548
79471SOL    HW140310   0.046  14.806   3.642
79471SOL    HW240311   0.077   0.031   3.530
79472SOL     OW40312   4.655  10.075   3.993
79472SOL    HW140313   4.646  10.166   3.964
79472SOL    HW240314   4.571  10.055   4.034
79473SOL     OW40315   8.556   4.900   7.511
79473SOL    HW140316   8.479   4.949   7.482
79473SOL    HW240317   8.559   4.914   7.605
79474SOL     OW40318  10.911   1.540   1.305
79474SOL    HW140319  10.884   1.630   1.322
79474SOL    HW240320  10.918   1.501   1.392
79475SOL     OW40321   4.091   0.742   6.591
79475SOL    HW140322   4.087   0.652   6.558
79475SOL    HW240323   4.006   0.780   6.570
79476SOL     OW40324  12.331   9.277  12.965
79476SOL    HW140325  12.329   9.355  13.019
79476SOL    HW240326  12.239   9.252  12.954
79477SOL     OW40327  10.968  13.405   4.240
79477SOL    HW140328  10.999  13.494   4.225
79477SOL    HW240329  11.042  13.359   4.279
79478SOL     OW40330   3.629   5.601  12.767
79478SOL    HW140331   3.600   5.517  12.801
79478SOL    HW240332   3.568   5.665  12.806
79479SOL     OW40333   4.026   4.387   8.665
79479SOL    HW140334   4.045   4.463   8.720
79479SOL    HW240335   3.948   4.412   8.616
79480SOL     OW40336   6.217  13.072   6.521
79480SOL    HW140337   6.303  13.063   6.563
79480SOL    HW240338   6.194  13.164   6.533
79481SOL     OW40339   2.993   4.844   5.145
79481SOL    HW140340   3.033   4.930   5.149
79481SOL    HW240341   3.058   4.786   5.186
79482SOL     OW40342   9.907   4.338  14.651
79482SOL    HW140343   9.962   4.259  14.649
79482SOL    HW240344   9.892   4.360  14.559
79483SOL     OW40345  13.130   9.035   0.075
79483SOL    HW140346  13.129   9.058  14.854
79483SOL    HW240347  13.195   8.965   0.081
79484SOL     OW40348   9.396   8.879   9.771
79484SOL    HW140349   9.340   8.917   9.704
79484SOL    HW240350   9.399   8.785   9.749
79485SOL     OW40351   9.195   2.473   5.902
79485SOL    HW140352   9.227   2.564   5.907
79485SOL    HW240353   9.273   2.420   5.918
79486SOL     OW40354   0.274  12.893  11.839
79486SOL    HW140355   0.366  12.879  11.859
79486SOL    HW240356   0.233  12.915  11.923
79487SOL     OW40357   1.675  14.380  11.569
79487SOL    HW140358   1.624  14.369  11.650
79487SOL    HW240359   1.739  14.448  11.590
79488SOL     OW40360  14.523   9.877   3.414
79488SOL    HW140361  14.565   9.961   3.398
79488SOL    HW240362  14.474   9.858   3.334
79489SOL     OW40363   4.475   0.347   0.824
79489SOL    HW140364   4.475   0.369   0.731
79489SOL    HW240365   4.428   0.418   0.866
79490SOL     OW40366   9.886  14.025   6.474
79490SOL    HW140367   9.837  14.041   6.393
79490SOL    HW240368   9.870  13.933   6.493
79491SOL     OW40369  10.625   8.113   0.863
79491SOL    HW140370  10.698   8.102   0.925
79491SOL    HW240371  10.663   8.091   0.778
79492SOL     OW40372   4.627   4.221   3.862
79492SOL    HW140373   4.568   4.176   3.923
79492SOL    HW240374   4.620   4.313   3.886
79493SOL     OW40375   7.372   4.316   8.072
79493SOL    HW140376   7.319   4.237   8.069
79493SOL    HW240377   7.428   4.311   7.995
79494SOL     OW40378  12.673   5.479   6.392
79494SOL    HW140379  12.649   5.572   6.385
79494SOL    HW240380  12.637   5.439   6.313
79495SOL     OW40381   0.886   1.470   4.080
79495SOL    HW140382   0.887   1.399   4.016
79495SOL    HW240383   0.965   1.457   4.133
79496SOL     OW40384   3.562   4.438   5.392
79496SOL    HW140385   3.506   4.489   5.451
79496SOL    HW240386   3.502   4.401   5.327
79497SOL     OW40387   0.306   7.264   7.615
79497SOL    HW140388   0.243   7.291   7.681
79497SOL    HW240389   0.361   7.199   7.660
79498SOL     OW40390   8.011  13.132   5.667
79498SOL    HW140391   8.032  13.095   5.753
79498SOL    HW240392   8.085  13.189   5.646
79499SOL     OW40393   9.623   0.830   2.804
79499SOL    HW140394   9.578   0.746   2.793
79499SOL    HW240395   9.684   0.815   2.876
79500SOL     OW40396   3.094  14.614   1.659
79500SOL    HW140397   3.031  14.655   1.719
79500SOL    HW240398   3.173  14.602   1.713
79501SOL     OW40399  11.565  14.872  12.062
79501SOL    HW140400  11.528  14.808  12.123
79501SOL    HW240401  11.660  14.865  12.075
79502SOL     OW40402   7.542   4.282   6.457
79502SOL    HW140403   7.464   4.282   6.401
79502SOL    HW240404   7.572   4.191   6.455
79503SOL     OW40405   4.881   8.593  14.713
79503SOL    HW140406   4.924   8.677  14.697
79503SOL    HW240407   4.788   8.612  14.705
79504SOL     OW40408  14.854   1.418   8.577
79504SOL    HW140409  14.820   1.329   8.570
79504SOL    HW240410  14.784   1.473   8.544
79505SOL     OW40411   9.924   9.835  11.735
79505SOL    HW140412   9.915   9.884  11.817
79505SOL    HW240413   9.900   9.745  11.758
79506SOL     OW40414   3.241  12.810   6.542
79506SOL    HW140415   3.326  12.794   6.584
79506SOL    HW240416   3.255  12.784   6.451
79507SOL     OW40417   7.842  12.894   9.232
79507SOL    HW140418   7.790  12.944   9.168
79507SOL    HW240419   7.894  12.833   9.180
79508SOL     OW40420   1.768   9.611  11.971
79508SOL    HW140421   1.716   9.608  12.051
79508SOL    HW240422   1.784   9.520  11.949
79509SOL     OW40423  13.847   8.601   5.537
79509SOL    HW140424  13.850   8.538   5.465
79509SOL    HW240425  13.918   8.662   5.518
79510SOL     OW40426   3.105  13.689  11.400
79510SOL    HW140427   3.089  13.667  11.308
79510SOL    HW240428   3.102  13.785  11.403
79511SOL     OW40429  14.398   0.165   1.720
79511SOL    HW140430  14.398   0.182   1.626
79511SOL    HW240431  14.318   0.115   1.735
79512SOL     OW40432  12.898  10.487   2.403
79512SOL    HW140433  12.969  10.422   2.402
79512SOL    HW240434  12.891  10.517   2.313
79513SOL     OW40435  13.368   6.474  11.890
79513SOL    HW140436  13.420   6.394  11.889
79513SOL    HW240437  13.372   6.504  11.981
79514SOL     OW40438  13.169   6.424   2.399
79514SOL    HW140439  13.236   6.358   2.415
79514SOL    HW240440  13.137   6.448   2.486
79515SOL     OW40441   5.418   1.419  13.045
79515SOL    HW140442   5.397   1.402  12.953
79515SOL    HW240443   5.487   1.356  13.066
79516SOL     OW40444   5.933  12.583   4.179
79516SOL    HW140445   5.880  12.572   4.258
79516SOL    HW240446   5.893  12.526   4.114
79517SOL     OW40447   6.274   0.277   9.849
79517SOL    HW140448   6.365   0.307   9.856
79517SOL    HW240449   6.247   0.303   9.761
79518SOL     OW40450   7.747   7.082   6.410
79518SOL    HW140451   7.729   7.116   6.322
79518SOL    HW240452   7.823   7.132   6.440
79519SOL     OW40453  11.561   5.594   4.421
79519SOL    HW140454  11.592   5.515   4.377
79519SOL    HW240455  11.560   5.571   4.514
79520SOL     OW40456   4.262   1.774   1.755
79520SOL    HW140457   4.212   1.788   1.836
79520SOL    HW240458   4.198   1.740   1.693
79521SOL     OW40459  13.072  11.234  14.122
79521SOL    HW140460  12.980  11.220  14.100
79521SOL    HW240461  13.120  11.207  14.044
79522SOL     OW40462   5.668   1.037   4.887
79522SOL    HW140463   5.727   1.085   4.829
79522SOL    HW240464   5.687   1.072   4.974
79523SOL     OW40465   3.357   0.544   6.819
79523SOL    HW140466   3.417   0.505   6.754
79523SOL    HW240467   3.404   0.535   6.902
79524SOL     OW40468  13.774   3.547   1.552
79524SOL    HW140469  13.827   3.520   1.626
79524SOL    HW240470  13.766   3.642   1.562
79525SOL     OW40471   4.661   0.166   7.728
79525SOL    HW140472   4.714   0.121   7.662
79525SOL    HW240473   4.722   0.185   7.799
79526SOL     OW40474  14.550   8.227   4.643
79526SOL    HW140475  14.471   8.228   4.697
79526SOL    HW240476  14.518   8.241   4.554
79527SOL     OW40477   4.463   3.808   1.483
79527SOL    HW140478   4.419   3.724   1.496
79527SOL    HW240479   4.555   3.786   1.470
79528SOL     OW40480   2.979   1.054   8.712
79528SOL    HW140481   2.958   1.145   8.692
79528SOL    HW240482   3.018   1.020   8.631
79529SOL     OW40483  11.717   5.382   1.029
79529SOL    HW140484  11.633   5.420   1.055
79529SOL    HW240485  11.699   5.289   1.017
79530SOL     OW40486   0.254   5.111   5.610
79530SOL    HW140487   0.237   5.200   5.580
79530SOL    HW240488   0.255   5.058   5.530
79531SOL     OW40489  13.792  10.746   0.126
79531SOL    HW140490  13.731  10.675   0.105
79531SOL    HW240491  13.855  10.707   0.187
79532SOL     OW40492   9.489   8.621  14.588
79532SOL    HW140493   9.512   8.681  14.659
79532SOL    HW240494   9.574   8.595  14.551
79533SOL     OW40495   5.374   7.472  10.983
79533SOL    HW140496   5.350   7.379  10.990
79533SOL    HW240497   5.306   7.518  11.031
79534SOL     OW40498  11.905   5.816   9.431
79534SOL    HW140499  11.985   5.861   9.404
79534SOL    HW240500  11.933   5.727   9.453
79535SOL     OW40501   8.412   1.386  13.708
79535SOL    HW140502   8.413   1.387  13.804
79535SOL    HW240503   8.491   1.435  13.683
79536SOL     OW40504   8.002   8.356  12.989
79536SOL    HW140505   7.919   8.388  12.954
79536SOL    HW240506   7.982   8.272  13.028
79537SOL     OW40507  13.642   0.967   3.617
79537SOL    HW140508  13.628   0.888   3.565
79537SOL    HW240509  13.595   0.951   3.699
79538SOL     OW40510   5.699  11.001   5.222
79538SOL    HW140511   5.711  11.089   5.256
79538SOL    HW240512   5.787  10.965   5.216
79539SOL     OW40513   9.039   1.423  14.665
79539SOL    HW140514   9.056   1.363  14.738
79539SOL    HW240515   9.112   1.408  14.605
79540SOL     OW40516  12.235  12.733   5.940
79540SOL    HW140517  12.188  12.709   5.860
79540SOL    HW240518  12.308  12.787   5.909
79541SOL     OW40519  13.638   5.255   7.701
79541SOL    HW140520  13.730   5.244   7.725
79541SOL    HW240521  13.640   5.283   7.610
79542SOL     OW40522   4.389  14.070   4.035
79542SOL    HW140523   4.478  14.094   4.009
79542SOL    HW240524   4.401  14.015   4.113
79543SOL     OW40525   0.600   6.666   1.146
79543SOL    HW140526   0.541   6.593   1.163
79543SOL    HW240527   0.543   6.739   1.122
79544SOL     OW40528   5.371   8.121   9.290
79544SOL    HW140529   5.329   8.070   9.359
79544SOL    HW240530   5.330   8.091   9.209
79545SOL     OW40531   0.431   8.952   3.362
79545SOL    HW140532   0.409   8.862   3.385
79545SOL    HW240533   0.418   8.956   3.267
79546SOL     OW40534   8.798  12.036   9.393
79546SOL    HW140535   8.816  12.026   9.487
79546SOL    HW240536   8.739  11.965   9.371
79547SOL     OW40537  13.570   2.754   4.755
79547SOL    HW140538  13.476   2.767   4.739
79547SOL    HW240539  13.613   2.788   4.676
79548SOL     OW40540  11.979   4.766   2.518
79548SOL    HW140541  11.926   4.820   2.459
79548SOL    HW240542  11.922   4.693   2.541
79549SOL     OW40543   7.384   6.037   7.489
79549SOL    HW140544   7.454   5.976   7.510
79549SOL    HW240545   7.420   6.090   7.418
79550SOL     OW40546  12.386   9.582  10.688
79550SOL    HW140547  12.478   9.574  10.713
79550SOL    HW240548  12.387   9.582  10.592
79551SOL     OW40549   1.757   5.531  12.946
79551SOL    HW140550   1.685   5.523  12.884
79551SOL    HW240551   1.798   5.445  12.946
79552SOL     OW40552   2.942   1.991   9.434
79552SOL    HW140553   3.018   1.979   9.376
79552SOL    HW240554   2.867   1.990   9.375
79553SOL     OW40555  10.345  12.793   2.763
79553SOL    HW140556  10.278  12.847   2.720
79553SOL    HW240557  10.297  12.717   2.795
79554SOL     OW40558  13.720   1.080  14.191
79554SOL    HW140559  13.811   1.109  14.184
79554SOL    HW240560  13.711   1.013  14.123
79555SOL     OW40561  12.912   4.313   6.626
79555SOL    HW140562  12.836   4.270   6.587
79555SOL    HW240563  12.950   4.247   6.683
79556SOL     OW40564   0.075   8.296   5.665
79556SOL    HW140565   0.004   8.235   5.685
79556SOL    HW240566   0.155   8.244   5.675
79557SOL     OW40567  14.181   6.501   3.102
79557SOL    HW140568  14.206   6.530   3.015
79557SOL    HW240569  14.205   6.574   3.159
79558SOL     OW40570  12.948   2.127   7.080
79558SOL    HW140571  12.972   2.169   7.163
79558SOL    HW240572  13.000   2.046   7.079
79559SOL     OW40573   6.626   3.581   4.963
79559SOL    HW140574   6.567   3.619   4.899
79559SOL    HW240575   6.571   3.558   5.038
79560SOL     OW40576   0.359   1.536   2.040
79560SOL    HW140577   0.435   1.588   2.066
79560SOL    HW240578   0.290   1.561   2.102
79561SOL     OW40579  11.962   9.454   5.304
79561SOL    HW140580  12.009   9.451   5.388
79561SOL    HW240581  12.029   9.479   5.240
79562SOL     OW40582   9.944   9.994  10.385
79562SOL    HW140583   9.931   9.906  10.419
79562SOL    HW240584  10.005   9.982  10.312
79563SOL     OW40585   7.939  13.515   9.271
79563SOL    HW140586   7.963  13.608   9.276
79563SOL    HW240587   8.003  13.470   9.325
79564SOL     OW40588  10.795   9.228   9.661
79564SOL    HW140589  10.730   9.214   9.592
79564SOL    HW240590  10.743   9.255   9.737
79565SOL     OW40591   7.424   9.490   1.656
79565SOL    HW140592   7.477   9.569   1.642
79565SOL    HW240593   7.483   9.418   1.633
79566SOL     OW40594   3.511   1.747   8.822
79566SOL    HW140595   3.589   1.701   8.790
79566SOL    HW240596   3.464   1.682   8.873
79567SOL     OW40597   1.830  13.209   4.306
79567SOL    HW140598   1.831  13.161   4.223
79567SOL    HW240599   1.743  13.249   4.309
79568SOL     OW40600   2.064  10.959   2.236
79568SOL    HW140601   2.149  10.991   2.206
79568SOL    HW240602   2.049  11.006   2.318
79569SOL     OW40603   8.509   3.813   7.307
79569SOL    HW140604   8.588   3.759   7.313
79569SOL    HW240605   8.517   3.874   7.381
79570SOL     OW40606   6.644   5.055   7.770
79570SOL    HW140607   6.691   5.125   7.816
79570SOL    HW240608   6.670   5.064   7.678
79571SOL     OW40609   6.851   4.098  13.275
79571SOL    HW140610   6.940   4.134  13.276
79571SOL    HW240611   6.829   4.090  13.182
79572SOL     OW40612   6.736   0.784   6.756
79572SOL    HW140613   6.685   0.863   6.770
79572SOL    HW240614   6.703   0.748   6.673
79573SOL     OW40615   0.623   4.794   5.417
79573SOL    HW140616   0.638   4.850   5.341
79573SOL    HW240617   0.536   4.757   5.402
79574SOL     OW40618  13.641   3.339  12.874
79574SOL    HW140619  13.658   3.433  12.862
79574SOL    HW240620  13.631   3.305  12.785
79575SOL     OW40621  12.414   7.764   2.029
79575SOL    HW140622  12.374   7.840   1.986
79575SOL    HW240623  12.405   7.783   2.123
79576SOL     OW40624   6.179   1.550  12.622
79576SOL    HW140625   6.170   1.642  12.648
79576SOL    HW240626   6.234   1.511  12.690
79577SOL     OW40627  12.631   7.831   0.499
79577SOL    HW140628  12.589   7.894   0.558
79577SOL    HW240629  12.648   7.754   0.554
79578SOL     OW40630  13.361  12.209   2.605
79578SOL    HW140631  13.454  12.231   2.595
79578SOL    HW240632  13.362  12.133   2.664
79579SOL     OW40633   9.491  13.047  10.658
79579SOL    HW140634   9.552  13.105  10.614
79579SOL    HW240635   9.446  13.002  10.587
79580SOL     OW40636   4.398   1.655   6.645
79580SOL    HW140637   4.419   1.565   6.618
79580SOL    HW240638   4.342   1.644   6.722
79581SOL     OW40639   3.940  13.260  11.705
79581SOL    HW140640   3.846  13.253  11.722
79581SOL    HW240641   3.950  13.238  11.613
79582SOL     OW40642   4.828   1.983   4.883
79582SOL    HW140643   4.794   1.900   4.916
79582SOL    HW240644   4.921   1.981   4.907
79583SOL     OW40645  13.967   2.140   0.341
79583SOL    HW140646  13.907   2.165   0.411
79583SOL    HW240647  13.965   2.215   0.281
79584SOL     OW40648   9.655  13.622   2.181
79584SOL    HW140649   9.562  13.623   2.162
79584SOL    HW240650   9.692  13.690   2.124
79585SOL     OW40651  10.514   2.890   5.156
79585SOL    HW140652  10.595   2.876   5.204
79585SOL    HW240653  10.472   2.804   5.155
79586SOL     OW40654  10.247   4.477   2.364
79586SOL    HW140655  10.316   4.518   2.416
79586SOL    HW240656  10.242   4.530   2.284
79587SOL     OW40657   1.076   0.382   8.910
79587SOL    HW140658   0.981   0.396   8.918
79587SOL    HW240659   1.109   0.463   8.871
79588SOL     OW40660   4.963   5.539   3.139
79588SOL    HW140661   4.982   5.448   3.117
79588SOL    HW240662   5.040   5.569   3.188
79589SOL     OW40663   7.131  13.569   9.294
79589SOL    HW140664   7.116  13.541   9.385
79589SOL    HW240665   7.053  13.539   9.247
79590SOL     OW40666   6.353   4.627   1.441
79590SOL    HW140667   6.395   4.545   1.416
79590SOL    HW240668   6.267   4.623   1.399
79591SOL     OW40669   7.764   6.389   3.729
79591SOL    HW140670   7.687   6.356   3.682
79591SOL    HW240671   7.760   6.348   3.815
79592SOL     OW40672   6.703   9.871  10.638
79592SOL    HW140673   6.630   9.933  10.642
79592SOL    HW240674   6.767   9.912  10.579
79593SOL     OW40675  13.181   6.552   4.383
79593SOL    HW140676  13.087   6.542   4.367
79593SOL    HW240677  13.204   6.634   4.340
79594SOL     OW40678   3.697  13.294   8.117
79594SOL    HW140679   3.685  13.362   8.050
79594SOL    HW240680   3.672  13.213   8.074
79595SOL     OW40681  10.421   8.198   5.643
79595SOL    HW140682  10.388   8.259   5.577
79595SOL    HW240683  10.418   8.248   5.725
79596SOL     OW40684  12.367  14.081   8.182
79596SOL    HW140685  12.449  14.066   8.230
79596SOL    HW240686  12.396  14.114   8.097
79597SOL     OW40687   0.328   6.975   9.780
79597SOL    HW140688   0.245   7.009   9.812
79597SOL    HW240689   0.374   6.944   9.858
79598SOL     OW40690  13.175   0.277   8.280
79598SOL    HW140691  13.172   0.184   8.303
79598SOL    HW240692  13.197   0.278   8.187
79599SOL     OW40693   9.955   7.283  11.408
79599SOL    HW140694   9.880   7.341  11.424
79599SOL    HW240695  10.030   7.332  11.439
79600SOL     OW40696  11.526  10.184   2.191
79600SOL    HW140697  11.453  10.191   2.130
79600SOL    HW240698  11.599  10.150   2.139
79601SOL     OW40699   6.074   5.451  14.689
79601SOL    HW140700   5.982   5.454  14.718
79601SOL    HW240701   6.121   5.502  14.755
79602SOL     OW40702   1.414   3.216  13.431
79602SOL    HW140703   1.472   3.180  13.364
79602SOL    HW240704   1.326   3.206  13.393
79603SOL     OW40705  10.218   2.541  10.998
79603SOL    HW140706  10.248   2.534  10.907
79603SOL    HW240707  10.295   2.570  11.046
79604SOL     OW40708   3.301   5.376  13.494
79604SOL    HW140709   3.325   5.357  13.585
79604SOL    HW240710   3.339   5.462  13.477
79605SOL     OW40711   9.375   1.833  12.203
79605SOL    HW140712   9.467   1.808  12.211
79605SOL    HW240713   9.370   1.879  12.119
79606SOL     OW40714   7.339   9.817   7.379
79606SOL    HW140715   7.326   9.906   7.346
79606SOL    HW240716   7.310   9.761   7.307
79607SOL     OW40717   4.878   4.757   6.389
79607SOL    HW140718   4.853   4.673   6.428
79607SOL    HW240719   4.871   4.742   6.295
79608SOL     OW40720   4.791  13.237   6.125
79608SOL    HW140721   4.732  13.303   6.089
79608SOL    HW240722   4.876  13.281   6.132
79609SOL     OW40723   2.631   4.972  14.027
79609SOL    HW140724   2.615   5.019  13.945
79609SOL    HW240725   2.564   4.904  14.030
79610SOL     OW40726   3.683   8.730   4.658
79610SOL    HW140727   3.729   8.795   4.711
79610SOL    HW240728   3.653   8.664   4.721
79611SOL     OW40729   6.118   8.591  11.200
79611SOL    HW140730   6.114   8.652  11.126
79611SOL    HW240731   6.157   8.512  11.163
79612SOL     OW40732   5.906   7.233  13.631
79612SOL    HW140733   5.901   7.165  13.697
79612SOL    HW240734   5.835   7.213  13.570
79613SOL     OW40735   8.876  10.760   1.772
79613SOL    HW140736   8.971  10.763   1.779
79613SOL    HW240737   8.852  10.842   1.730
79614SOL     OW40738  12.128  13.728  14.743
79614SOL    HW140739  12.133  13.820  14.767
79614SOL    HW240740  12.163  13.724  14.654
79615SOL     OW40741   9.001   2.626  12.745
79615SOL    HW140742   8.973   2.718  12.749
79615SOL    HW240743   8.949   2.588  12.675
79616SOL     OW40744   4.119  11.074  10.655
79616SOL    HW140745   4.210  11.095  10.632
79616SOL    HW240746   4.075  11.066  10.570
79617SOL     OW40747   7.018   0.009   0.381
79617SOL    HW140748   7.034   0.067   0.456
79617SOL    HW240749   6.935  14.839   0.401
79618SOL     OW40750   2.296   9.504   1.148
79618SOL    HW140751   2.321   9.455   1.226
79618SOL    HW240752   2.310   9.442   1.076
79619SOL     OW40753  12.110  11.560  12.843
79619SOL    HW140754  12.196  11.519  12.848
79619SOL    HW240755  12.106  11.598  12.755
79620SOL     OW40756   7.770   0.992   9.279
79620SOL    HW140757   7.682   0.989   9.317
79620SOL    HW240758   7.824   1.031   9.348
79621SOL     OW40759   8.518   6.003  11.132
79621SOL    HW140760   8.560   5.969  11.053
79621SOL    HW240761   8.448   6.060  11.099
79622SOL     OW40762   7.209   5.770   9.047
79622SOL    HW140763   7.215   5.855   9.090
79622SOL    HW240764   7.127   5.732   9.078
79623SOL     OW40765  11.182   5.493   2.927
79623SOL    HW140766  11.260   5.462   2.881
79623SOL    HW240767  11.153   5.419   2.979
79624SOL     OW40768   8.441  14.758  11.802
79624SOL    HW140769   8.405  14.845  11.788
79624SOL    HW240770   8.489  14.739  11.721
79625SOL     OW40771   9.927  12.603   0.056
79625SOL    HW140772  10.009  12.644   0.084
79625SOL    HW240773   9.938  12.590  14.834
79626SOL     OW40774   7.553   2.800   2.831
79626SOL    HW140775   7.634   2.851   2.837
79626SOL    HW240776   7.503   2.824   2.909
79627SOL     OW40777   2.794   1.309   9.335
79627SOL    HW140778   2.873   1.310   9.282
79627SOL    HW240779   2.814   1.248   9.407
79628SOL     OW40780  14.767   2.068   7.848
79628SOL    HW140781  14.768   2.102   7.937
79628SOL    HW240782  14.716   2.133   7.799
79629SOL     OW40783   8.636   6.797   3.118
79629SOL    HW140784   8.581   6.720   3.108
79629SOL    HW240785   8.665   6.818   3.029
79630SOL     OW40786  14.560  14.152  10.562
79630SOL    HW140787  14.596  14.115  10.482
79630SOL    HW240788  14.607  14.107  10.632
79631SOL     OW40789   5.992   5.500  12.893
79631SOL    HW140790   6.052   5.563  12.853
79631SOL    HW240791   6.020   5.493  12.984
79632SOL     OW40792   3.879   8.037   5.178
79632SOL    HW140793   3.857   8.047   5.086
79632SOL    HW240794   3.968   8.070   5.186
79633SOL     OW40795   0.016   6.381   4.543
79633SOL    HW140796   0.052   6.349   4.625
79633SOL    HW240797   0.059   6.328   4.476
79634SOL     OW40798   8.492   2.280   7.683
79634SOL    HW140799   8.542   2.345   7.731
79634SOL    HW240800   8.436   2.331   7.624
79635SOL     OW40801   6.200  12.540   9.005
79635SOL    HW140802   6.234  12.452   8.990
79635SOL    HW240803   6.272  12.586   9.048
79636SOL     OW40804   1.787   8.392  14.632
79636SOL    HW140805   1.765   8.420  14.544
79636SOL    HW240806   1.704   8.361  14.669
79637SOL     OW40807   1.639   1.982   4.117
79637SOL    HW140808   1.680   2.055   4.071
79637SOL    HW240809   1.550   1.980   4.084
79638SOL     OW40810   1.008   9.290  11.966
79638SOL    HW140811   1.070   9.218  11.953
79638SOL    HW240812   0.930   9.247  12.003
79639SOL     OW40813   1.799   9.657   4.982
79639SOL    HW140814   1.796   9.744   5.023
79639SOL    HW240815   1.713   9.647   4.942
79640SOL     OW40816   7.345  12.700   9.975
79640SOL    HW140817   7.433  12.675  10.004
79640SOL    HW240818   7.326  12.641   9.903
79641SOL     OW40819   8.577   2.558   7.142
79641SOL    HW140820   8.604   2.490   7.204
79641SOL    HW240821   8.556   2.510   7.062
79642SOL     OW40822  13.915   6.984  14.018
79642SOL    HW140823  14.002   6.997  13.979
79642SOL    HW240824  13.854   6.994  13.944
79643SOL     OW40825   7.299  11.746   3.371
79643SOL    HW140826   7.334  11.769   3.457
79643SOL    HW240827   7.229  11.684   3.390
79644SOL     OW40828   5.394   3.794  12.077
79644SOL    HW140829   5.453   3.869  12.084
79644SOL    HW240830   5.447   3.725  12.036
79645SOL     OW40831  11.588  12.502   1.172
79645SOL    HW140832  11.593  12.431   1.109
79645SOL    HW240833  11.589  12.459   1.257
79646SOL     OW40834   8.655  11.326   0.953
79646SOL    HW140835   8.655  11.405   1.008
79646SOL    HW240836   8.572  11.283   0.973
79647SOL     OW40837   4.340   2.356   5.980
79647SOL    HW140838   4.324   2.450   5.986
79647SOL    HW240839   4.435   2.347   5.987
79648SOL     OW40840   4.267   1.313   8.014
79648SOL    HW140841   4.245   1.406   8.019
79648SOL    HW240842   4.347   1.310   7.962
79649SOL     OW40843   5.230   1.501   7.135
79649SOL    HW140844   5.173   1.434   7.097
79649SOL    HW240845   5.287   1.452   7.195
79650SOL     OW40846  14.830  11.889  10.108
79650SOL    HW140847  14.843  11.796  10.090
79650SOL    HW240848   0.026  11.911  10.171
79651SOL     OW40849  12.923  12.937   7.771
79651SOL    HW140850  13.002  12.950   7.824
79651SOL    HW240851  12.891  12.850   7.796
79652SOL     OW40852  12.281   2.123  10.392
79652SOL    HW140853  12.370   2.131  10.426
79652SOL    HW240854  12.259   2.211  10.362
79653SOL     OW40855  13.361  14.295  13.289
79653SOL    HW140856  13.276  14.281  13.331
79653SOL    HW240857  13.390  14.208  13.264
79654SOL     OW40858  11.354  14.617  12.627
79654SOL    HW140859  11.417  14.575  12.686
79654SOL    HW240860  11.348  14.708  12.659
79655SOL     OW40861  12.493   2.955   8.557
79655SOL    HW140862  12.443   2.895   8.502
79655SOL    HW240863  12.567   2.982   8.502
79656SOL     OW40864   3.046   2.168   9.628
79656SOL    HW140865   3.003   2.095   9.583
79656SOL    HW240866   3.113   2.128   9.682
79657SOL     OW40867   9.368   9.350   1.002
79657SOL    HW140868   9.298   9.414   0.987
79657SOL    HW240869   9.329   9.266   0.977
79658SOL     OW40870   3.697   3.942  14.341
79658SOL    HW140871   3.634   3.988  14.285
79658SOL    HW240872   3.780   3.986  14.325
79659SOL     OW40873  11.646   9.189  14.047
79659SOL    HW140874  11.703   9.255  14.085
79659SOL    HW240875  11.562   9.201  14.091
79660SOL     OW40876   5.706   8.765  14.687
79660SOL    HW140877   5.632   8.792  14.632
79660SOL    HW240878   5.768   8.839  14.681
79661SOL     OW40879  11.623   0.260   8.945
79661SOL    HW140880  11.544   0.315   8.951
79661SOL    HW240881  11.620   0.223   8.857
79662SOL     OW40882   1.263   6.176   9.772
79662SOL    HW140883   1.290   6.099   9.822
79662SOL    HW240884   1.312   6.249   9.811
79663SOL     OW40885   6.136   7.840   4.260
79663SOL    HW140886   6.231   7.840   4.257
79663SOL    HW240887   6.113   7.757   4.302
79664SOL     OW40888   5.285   0.691   5.150
79664SOL    HW140889   5.269   0.767   5.206
79664SOL    HW240890   5.310   0.621   5.210
79665SOL     OW40891   9.549  10.578   5.597
79665SOL    HW140892   9.587  10.561   5.684
79665SOL    HW240893   9.624  10.592   5.540
79666SOL     OW40894   3.749  13.254   7.698
79666SOL    HW140895   3.737  13.159   7.706
79666SOL    HW240896   3.758  13.269   7.604
79667SOL     OW40897  11.813   2.025   2.242
79667SOL    HW140898  11.792   2.118   2.235
79667SOL    HW240899  11.843   2.000   2.155
79668SOL     OW40900   9.366  13.673   2.241
79668SOL    HW140901   9.357  13.754   2.191
79668SOL    HW240902   9.282  13.629   2.232
79669SOL     OW40903   8.819   3.454   5.948
79669SOL    HW140904   8.870   3.387   5.993
79669SOL    HW240905   8.841   3.535   5.994
79670SOL     OW40906   0.175   6.671  11.564
79670SOL    HW140907   0.179   6.575  11.556
79670SOL    HW240908   0.218   6.704  11.485
79671SOL     OW40909   7.099   4.375   3.313
79671SOL    HW140910   7.078   4.421   3.394
79671SOL    HW240911   7.195   4.368   3.314
79672SOL     OW40912   8.126  14.188  14.622
79672SOL    HW140913   8.069  14.207  14.696
79672SOL    HW240914   8.215  14.197  14.657
79673SOL     OW40915   7.135  10.469   3.897
79673SOL    HW140916   7.185  10.474   3.978
79673SOL    HW240917   7.060  10.527   3.911
79674SOL     OW40918   2.282   2.800   3.220
79674SOL    HW140919   2.191   2.798   3.190
79674SOL    HW240920   2.292   2.885   3.262
79675SOL     OW40921   7.279  12.100  13.239
79675SOL    HW140922   7.349  12.049  13.199
79675SOL    HW240923   7.201  12.079  13.189
79676SOL     OW40924   1.884  10.671   9.251
79676SOL    HW140925   1.902  10.643   9.161
79676SOL    HW240926   1.848  10.593   9.293
79677SOL     OW40927  10.838  10.396  10.307
79677SOL    HW140928  10.779  10.392  10.231
79677SOL    HW240929  10.823  10.313  10.353
79678SOL     OW40930   4.176  13.084   6.019
79678SOL    HW140931   4.256  13.126   5.989
79678SOL    HW240932   4.110  13.108   5.953
79679SOL     OW40933   6.405  14.000   1.197
79679SOL    HW140934   6.414  14.016   1.103
79679SOL    HW240935   6.434  13.909   1.208
79680SOL     OW40936   7.981   0.276   3.309
79680SOL    HW140937   8.043   0.229   3.254
79680SOL    HW240938   7.968   0.219   3.385
79681SOL     OW40939   4.585  12.686   5.077
79681SOL    HW140940   4.504  12.698   5.126
79681SOL    HW240941   4.650  12.739   5.123
79682SOL     OW40942   9.566   6.092   5.603
79682SOL    HW140943   9.559   6.095   5.699
79682SOL    HW240944   9.617   6.170   5.580
79683SOL     OW40945  14.121  10.495  10.977
79683SOL    HW140946  14.042  10.447  10.952
79683SOL    HW240947  14.141  10.549  10.901
79684SOL     OW40948   9.762   5.348  10.417
79684SOL    HW140949   9.673   5.324  10.390
79684SOL    HW240950   9.804   5.380  10.337
79685SOL     OW40951   3.712  13.238   3.899
79685SOL    HW140952   3.710  13.142   3.901
79685SOL    HW240953   3.620  13.264   3.906
79686SOL     OW40954  11.716   9.663   4.004
79686SOL    HW140955  11.746   9.754   4.004
79686SOL    HW240956  11.638   9.663   4.059
79687SOL     OW40957  11.663  12.432   8.348
79687SOL    HW140958  11.570  12.427   8.366
79687SOL    HW240959  11.693  12.341   8.351
79688SOL     OW40960   4.571   4.810   0.605
79688SOL    HW140961   4.588   4.877   0.671
79688SOL    HW240962   4.508   4.850   0.545
79689SOL     OW40963   1.909   3.001   2.699
79689SOL    HW140964   1.997   3.029   2.723
79689SOL    HW240965   1.920   2.913   2.664
79690SOL     OW40966  10.545   0.123  13.227
79690SOL    HW140967  10.567   0.156  13.139
79690SOL    HW240968  10.450   0.121  13.228
79691SOL     OW40969   3.543  11.349  11.144
79691SOL    HW140970   3.611  11.397  11.192
79691SOL    HW240971   3.583  11.264  11.124
79692SOL     OW40972   0.626   3.948   3.483
79692SOL    HW140973   0.680   3.871   3.504
79692SOL    HW240974   0.536   3.916   3.490
79693SOL     OW40975   7.232   8.530   5.023
79693SOL    HW140976   7.137   8.528   5.035
79693SOL    HW240977   7.259   8.616   5.056
79694SOL     OW40978  14.091   8.057   1.435
79694SOL    HW140979  14.133   8.139   1.461
79694SOL    HW240980  13.999   8.068   1.461
79695SOL     OW40981   0.693   7.658   7.581
79695SOL    HW140982   0.652   7.604   7.513
79695SOL    HW240983   0.764   7.604   7.615
79696SOL     OW40984   2.335   1.819   6.052
79696SOL    HW140985   2.333   1.902   6.005
79696SOL    HW240986   2.320   1.753   5.985
79697SOL     OW40987  13.648   9.862  12.683
79697SOL    HW140988  13.677   9.785  12.634
79697SOL    HW240989  13.672   9.936  12.627
79698SOL     OW40990  10.066  13.626  11.485
79698SOL    HW140991  10.080  13.719  11.463
79698SOL    HW240992   9.985  13.625  11.536
79699SOL     OW40993  13.801   1.804   1.011
79699SOL    HW140994  13.739   1.757   1.066
79699SOL    HW240995  13.748   1.870   0.966
79700SOL     OW40996   3.281   9.033  13.241
79700SOL    HW140997   3.370   9.057  13.268
79700SOL    HW240998   3.225   9.084  13.300
79701SOL     OW40999   2.074   3.217   6.887
79701SOL    HW141000   2.099   3.310   6.895
79701SOL    HW241001   2.136   3.182   6.823
79702SOL     OW41002   7.612   2.123  10.999
79702SOL    HW141003   7.593   2.045  11.052
79702SOL    HW241004   7.706   2.135  11.006
79703SOL     OW41005   8.466  10.231   1.713
79703SOL    HW141006   8.498  10.273   1.792
79703SOL    HW241007   8.540  10.180   1.680
79704SOL     OW41008   6.417  14.394   6.867
79704SOL    HW141009   6.381  14.460   6.808
79704SOL    HW241010   6.365  14.403   6.947
79705SOL     OW41011   7.583   7.150   9.929
79705SOL    HW141012   7.511   7.175   9.986
79705SOL    HW241013   7.578   7.055   9.924
79706SOL     OW41014   4.917  14.284   4.537
79706SOL    HW141015   4.822  14.298   4.530
79706SOL    HW241016   4.927  14.224   4.612
79707SOL     OW41017   7.358  14.339   6.894
79707SOL    HW141018   7.289  14.272   6.891
79707SOL    HW241019   7.354  14.373   6.984
79708SOL     OW41020   2.914   9.803  13.563
79708SOL    HW141021   2.893   9.806  13.470
79708SOL    HW241022   3.007   9.780  13.566
79709SOL     OW41023   9.590  12.821  10.365
79709SOL    HW141024   9.513  12.830  10.422
79709SOL    HW241025   9.554  12.827  10.276
79710SOL     OW41026   2.690  12.511   9.686
79710SOL    HW141027   2.760  12.541   9.629
79710SOL    HW241028   2.652  12.591   9.723
79711SOL     OW41029  13.859  11.459   5.324
79711SOL    HW141030  13.922  11.388   5.312
79711SOL    HW241031  13.797  11.426   5.388
79712SOL     OW41032  10.035   1.769   8.211
79712SOL    HW141033  10.044   1.864   8.223
79712SOL    HW241034  10.049   1.733   8.299
79713SOL     OW41035   6.850   0.498   2.079
79713SOL    HW141036   6.920   0.455   2.029
79713SOL    HW241037   6.770   0.456   2.049
79714SOL     OW41038   3.999  14.676   1.196
79714SOL    HW141039   3.986  14.760   1.153
79714SOL    HW241040   3.984  14.694   1.289
79715SOL     OW41041  12.974   7.429   7.573
79715SOL    HW141042  12.972   7.415   7.668
79715SOL    HW241043  12.905   7.493   7.557
79716SOL     OW41044   4.300   8.047   0.579
79716SOL    HW141045   4.267   8.130   0.546
79716SOL    HW241046   4.345   8.007   0.504
79717SOL     OW41047  10.135  14.669   2.954
79717SOL    HW141048  10.124  14.679   2.859
79717SOL    HW241049  10.210  14.725   2.975
79718SOL     OW41050   9.514  14.053   4.417
79718SOL    HW141051   9.605  14.060   4.443
79718SOL    HW241052   9.466  14.047   4.499
79719SOL     OW41053   7.524   2.186   0.051
79719SOL    HW141054   7.601   2.240   0.037
79719SOL    HW241055   7.454   2.248   0.069
79720SOL     OW41056   9.163   7.598   7.463
79720SOL    HW141057   9.170   7.567   7.553
79720SOL    HW241058   9.078   7.642   7.459
79721SOL     OW41059  13.940   2.361   7.354
79721SOL    HW141060  14.034   2.346   7.342
79721SOL    HW241061  13.898   2.313   7.283
79722SOL     OW41062   0.949   4.838  12.036
79722SOL    HW141063   0.983   4.927  12.039
79722SOL    HW241064   0.904   4.832  11.951
79723SOL     OW41065   9.924   9.716  10.146
79723SOL    HW141066   9.910   9.689  10.237
79723SOL    HW241067   9.981   9.792  10.152
79724SOL     OW41068   4.228   4.271   3.412
79724SOL    HW141069   4.150   4.264   3.468
79724SOL    HW241070   4.267   4.184   3.414
79725SOL     OW41071   7.368   3.047   3.273
79725SOL    HW141072   7.275   3.049   3.251
79725SOL    HW241073   7.371   3.060   3.368
79726SOL     OW41074  14.523   8.843  14.132
79726SOL    HW141075  14.461   8.821  14.063
79726SOL    HW241076  14.608   8.818  14.095
79727SOL     OW41077  12.372   0.330   6.776
79727SOL    HW141078  12.370   0.240   6.807
79727SOL    HW241079  12.299   0.373   6.821
79728SOL     OW41080   3.327   0.093   6.458
79728SOL    HW141081   3.328   0.056   6.369
79728SOL    HW241082   3.346   0.018   6.515
79729SOL     OW41083  10.731  13.229   4.194
79729SOL    HW141084  10.808  13.285   4.187
79729SOL    HW241085  10.725  13.186   4.108
79730SOL     OW41086   6.754   9.191   1.972
79730SOL    HW141087   6.835   9.222   2.011
79730SOL    HW241088   6.754   9.227   1.884
79731SOL     OW41089   9.035  12.556   8.180
79731SOL    HW141090   9.040  12.464   8.154
79731SOL    HW241091   9.000  12.554   8.269
79732SOL     OW41092   4.143   6.553   7.843
79732SOL    HW141093   4.115   6.497   7.916
79732SOL    HW241094   4.141   6.496   7.767
79733SOL     OW41095  14.074  12.608   6.509
79733SOL    HW141096  14.143  12.668   6.480
79733SOL    HW241097  14.087  12.602   6.604
79734SOL     OW41098  11.596   7.600   3.408
79734SOL    HW141099  11.530   7.660   3.444
79734SOL    HW241100  11.659   7.657   3.364
79735SOL     OW41101  11.165  14.619  12.956
79735SOL    HW141102  11.177  14.529  12.925
79735SOL    HW241103  11.093  14.653  12.902
79736SOL     OW41104  11.535   9.826   3.370
79736SOL    HW141105  11.531   9.730   3.377
79736SOL    HW241106  11.580   9.842   3.287
79737SOL     OW41107   3.243   9.564  14.082
79737SOL    HW141108   3.303   9.547  14.009
79737SOL    HW241109   3.289   9.627  14.138
79738SOL     OW41110  10.132  11.614  11.179
79738SOL    HW141111  10.079  11.607  11.259
79738SOL    HW241112  10.119  11.704  11.150
79739SOL     OW41113   6.850   6.310   1.622
79739SOL    HW141114   6.829   6.403   1.610
79739SOL    HW241115   6.897   6.286   1.542
79740SOL     OW41116   5.219   5.739   3.437
79740SOL    HW141117   5.295   5.736   3.495
79740SOL    HW241118   5.197   5.832   3.431
79741SOL     OW41119   4.178   4.054   1.098
79741SOL    HW141120   4.096   4.063   1.050
79741SOL    HW241121   4.176   3.965   1.134
79742SOL     OW41122   7.239   1.689   5.547
79742SOL    HW141123   7.164   1.729   5.502
79742SOL    HW241124   7.200   1.638   5.618
79743SOL     OW41125   5.474  10.426  12.996
79743SOL    HW141126   5.407  10.372  13.038
79743SOL    HW241127   5.512  10.477  13.068
79744SOL     OW41128   9.591   5.006  10.182
79744SOL    HW141129   9.632   5.092  10.172
79744SOL    HW241130   9.497   5.024  10.183
79745SOL     OW41131   1.417  14.200   0.595
79745SOL    HW141132   1.496  14.246   0.624
79745SOL    HW241133   1.403  14.230   0.505
79746SOL     OW41134   6.301  12.858  11.510
79746SOL    HW141135   6.248  12.841  11.588
79746SOL    HW241136   6.370  12.791  11.512
79747SOL     OW41137  12.273   5.844   2.457
79747SOL    HW141138  12.314   5.759   2.440
79747SOL    HW241139  12.269   5.885   2.371
79748SOL     OW41140   8.044   5.840  14.273
79748SOL    HW141141   8.060   5.749  14.299
79748SOL    HW241142   8.117   5.889  14.311
79749SOL     OW41143   7.586   5.954   4.561
79749SOL    HW141144   7.580   5.957   4.466
79749SOL    HW241145   7.520   5.890   4.587
79750SOL     OW41146   5.860   1.277   7.878
79750SOL    HW141147   5.774   1.309   7.908
79750SOL    HW241148   5.923   1.337   7.919
79751SOL     OW41149   1.427   6.643   7.865
79751SOL    HW141150   1.521   6.660   7.859
79751SOL    HW241151   1.395   6.707   7.929
79752SOL     OW41152   7.314  12.775   1.281
79752SOL    HW141153   7.350  12.861   1.298
79752SOL    HW241154   7.379  12.714   1.316
79753SOL     OW41155   1.792  10.437   4.512
79753SOL    HW141156   1.877  10.394   4.500
79753SOL    HW241157   1.739  10.409   4.437
79754SOL     OW41158   3.541  12.469   9.785
79754SOL    HW141159   3.627  12.506   9.766
79754SOL    HW241160   3.506  12.522   9.856
79755SOL     OW41161   7.303   4.575   2.179
79755SOL    HW141162   7.344   4.605   2.098
79755SOL    HW241163   7.293   4.481   2.166
79756SOL     OW41164   5.390   6.967   1.019
79756SOL    HW141165   5.465   7.006   1.063
79756SOL    HW241166   5.344   6.918   1.088
79757SOL     OW41167  11.136   0.838  12.943
79757SOL    HW141168  11.063   0.792  12.985
79757SOL    HW241169  11.110   0.844  12.851
79758SOL     OW41170   2.249   1.537  14.554
79758SOL    HW141171   2.340   1.563  14.569
79758SOL    HW241172   2.255   1.447  14.522
79759SOL     OW41173   4.417   1.325   9.495
79759SOL    HW141174   4.444   1.404   9.541
79759SOL    HW241175   4.489   1.306   9.434
79760SOL     OW41176   4.301   7.645   1.504
79760SOL    HW141177   4.232   7.691   1.551
79760SOL    HW241178   4.311   7.695   1.422
79761SOL     OW41179   4.907   3.317   3.627
79761SOL    HW141180   4.828   3.357   3.663
79761SOL    HW241181   4.884   3.296   3.536
79762SOL     OW41182  10.767   4.416  12.168
79762SOL    HW141183  10.840   4.435  12.226
79762SOL    HW241184  10.721   4.343  12.210
79763SOL     OW41185   1.332  10.676  12.475
79763SOL    HW141186   1.273  10.685  12.400
79763SOL    HW241187   1.295  10.734  12.542
79764SOL     OW41188  11.756  10.852   1.028
79764SOL    HW141189  11.737  10.872   0.936
79764SOL    HW241190  11.737  10.934   1.075
79765SOL     OW41191  14.065   5.255  10.333
79765SOL    HW141192  14.085   5.319  10.264
79765SOL    HW241193  14.128   5.185  10.320
79766SOL     OW41194   5.449   3.622  14.019
79766SOL    HW141195   5.503   3.617  13.940
79766SOL    HW241196   5.408   3.708  14.014
79767SOL     OW41197  14.715  11.804   6.854
79767SOL    HW141198  14.770  11.818   6.932
79767SOL    HW241199  14.776  11.773   6.787
79768SOL     OW41200   6.896   0.928  13.836
79768SOL    HW141201   6.909   1.002  13.894
79768SOL    HW241202   6.939   0.952  13.755
79769SOL     OW41203   6.214   1.291   2.065
79769SOL    HW141204   6.234   1.319   2.154
79769SOL    HW241205   6.191   1.199   2.073
79770SOL     OW41206   2.888  12.713  12.881
79770SOL    HW141207   2.866  12.716  12.974
79770SOL    HW241208   2.982  12.731  12.878
79771SOL     OW41209   3.495   0.347   2.762
79771SOL    HW141210   3.494   0.296   2.843
79771SOL    HW241211   3.491   0.438   2.790
79772SOL     OW41212  12.075   3.799  10.590
79772SOL    HW141213  12.133   3.871  10.614
79772SOL    HW241214  12.088   3.788  10.496
79773SOL     OW41215   1.756  14.014   3.886
79773SOL    HW141216   1.774  13.985   3.976
79773SOL    HW241217   1.770  13.936   3.833
79774SOL     OW41218   2.640   4.199   4.843
79774SOL    HW141219   2.646   4.158   4.929
79774SOL    HW241220   2.641   4.293   4.861
79775SOL     OW41221   7.525  11.867  10.697
79775SOL    HW141222   7.514  11.791  10.640
79775SOL    HW241223   7.449  11.922  10.678
79776SOL     OW41224   3.096  13.136   5.760
79776SOL    HW141225   3.092  13.195   5.836
79776SOL    HW241226   3.167  13.171   5.706
79777SOL     OW41227   7.125  13.481   4.689
79777SOL    HW141228   7.193  13.415   4.701
79777SOL    HW241229   7.148  13.551   4.750
79778SOL     OW41230   5.623   4.738   4.550
79778SOL    HW141231   5.567   4.788   4.609
79778SOL    HW241232   5.583   4.651   4.545
79779SOL     OW41233   5.289   8.277   6.720
79779SOL    HW141234   5.342   8.202   6.744
79779SOL    HW241235   5.198   8.247   6.732
79780SOL     OW41236   1.814  13.766  13.315
79780SOL    HW141237   1.828  13.859  13.333
79780SOL    HW241238   1.800  13.727  13.401
79781SOL     OW41239   4.983   5.922   2.258
79781SOL    HW141240   4.912   5.857   2.257
79781SOL    HW241241   4.939   6.006   2.246
79782SOL     OW41242   2.490  13.539   7.446
79782SOL    HW141243   2.411  13.593   7.443
79782SOL    HW241244   2.495  13.509   7.537
79783SOL     OW41245   5.132  12.067   7.819
79783SOL    HW141246   5.101  12.049   7.908
79783SOL    HW241247   5.082  12.007   7.764
79784SOL     OW41248   6.801   9.542  14.285
79784SOL    HW141249   6.854   9.603  14.335
79784SOL    HW241250   6.711   9.572  14.296
79785SOL     OW41251   4.772   5.071   1.080
79785SOL    HW141252   4.861   5.100   1.100
79785SOL    HW241253   4.743   5.026   1.159
79786SOL     OW41254   9.118  10.694   8.848
79786SOL    HW141255   9.121  10.659   8.937
79786SOL    HW241256   9.077  10.625   8.796
79787SOL     OW41257   7.832  10.019   2.680
79787SOL    HW141258   7.848  10.015   2.775
79787SOL    HW241259   7.870   9.937   2.647
79788SOL     OW41260   2.353   9.574   8.319
79788SOL    HW141261   2.435   9.524   8.327
79788SOL    HW241262   2.372   9.642   8.255
79789SOL     OW41263   9.221  12.481   9.024
79789SOL    HW141264   9.289  12.504   8.960
79789SOL    HW241265   9.195  12.565   9.062
79790SOL     OW41266   5.143  12.201   2.403
79790SOL    HW141267   5.175  12.276   2.453
79790SOL    HW241268   5.050  12.220   2.389
79791SOL     OW41269   7.503  14.744   4.018
79791SOL    HW141270   7.598  14.749   4.008
79791SOL    HW241271   7.491  14.704   4.105
79792SOL     OW41272   5.551  10.298   5.115
79792SOL    HW141273   5.634  10.252   5.125
79792SOL    HW241274   5.576  10.389   5.095
79793SOL     OW41275   5.153   9.487   7.893
79793SOL    HW141276   5.078   9.530   7.934
79793SOL    HW241277   5.138   9.393   7.909
79794SOL     OW41278   2.750   2.581  10.846
79794SOL    HW141279   2.773   2.581  10.753
79794SOL    HW241280   2.666   2.537  10.849
79795SOL     OW41281   6.254   7.104   2.076
79795SOL    HW141282   6.266   7.038   2.144
79795SOL    HW241283   6.311   7.176   2.101
79796SOL     OW41284   9.751   2.496  14.378
79796SOL    HW141285   9.735   2.450  14.460
79796SOL    HW241286   9.698   2.449  14.314
79797SOL     OW41287   5.728  13.599   5.045
79797SOL    HW141288   5.781  13.535   5.092
79797SOL    HW241289   5.743  13.580   4.952
79798SOL     OW41290   1.450   1.797   2.418
79798SOL    HW141291   1.480   1.830   2.503
79798SOL    HW241292   1.355   1.801   2.424
79799SOL     OW41293   9.891   1.362  10.687
79799SOL    HW141294   9.818   1.411  10.649
79799SOL    HW241295   9.891   1.279  10.641
79800SOL     OW41296   8.665   9.422   2.363
79800SOL    HW141297   8.640   9.391   2.450
79800SOL    HW241298   8.758   9.401   2.355
79801SOL     OW41299  14.656  13.559  12.379
79801SOL    HW141300  14.738  13.600  12.408
79801SOL    HW241301  14.600  13.559  12.457
79802SOL     OW41302   4.042   8.533   1.449
79802SOL    HW141303   4.005   8.621   1.454
79802SOL    HW241304   3.976   8.482   1.401
79803SOL     OW41305   3.575   5.966   0.018
79803SOL    HW141306   3.498   6.022   0.016
79803SOL    HW241307   3.603   5.960  14.799
79804SOL     OW41308  11.886   6.430   4.810
79804SOL    HW141309  11.938   6.483   4.748
79804SOL    HW241310  11.823   6.491   4.847
79805SOL     OW41311   5.787   6.915   0.063
79805SOL    HW141312   5.718   6.864   0.106
79805SOL    HW241313   5.787   6.998   0.111
79806SOL     OW41314  14.350  10.427   1.979
79806SOL    HW141315  14.419  10.416   1.913
79806SOL    HW241316  14.396  10.464   2.055
79807SOL     OW41317  13.783  11.753   7.473
79807SOL    HW141318  13.706  11.803   7.502
79807SOL    HW241319  13.831  11.735   7.553
79808SOL     OW41320   6.881   4.259   6.025
79808SOL    HW141321   6.798   4.238   6.068
79808SOL    HW241322   6.947   4.213   6.077
79809SOL     OW41323   3.144   9.996   1.051
79809SOL    HW141324   3.224  10.048   1.043
79809SOL    HW241325   3.120   9.974   0.961
79810SOL     OW41326   7.421   3.736   7.351
79810SOL    HW141327   7.463   3.787   7.419
79810SOL    HW241328   7.349   3.791   7.320
79811SOL     OW41329   4.028   5.714   4.317
79811SOL    HW141330   4.031   5.802   4.281
79811SOL    HW241331   3.993   5.725   4.406
79812SOL     OW41332   2.212   5.478  12.179
79812SOL    HW141333   2.148   5.541  12.212
79812SOL    HW241334   2.223   5.415  12.250
79813SOL     OW41335  10.063   4.045   0.671
79813SOL    HW141336  10.050   4.139   0.661
79813SOL    HW241337   9.975   4.008   0.672
79814SOL     OW41338   5.812  10.464   9.220
79814SOL    HW141339   5.802  10.559   9.228
79814SOL    HW241340   5.758  10.428   9.290
79815SOL     OW41341   2.887  11.448   6.170
79815SOL    HW141342   2.930  11.404   6.243
79815SOL    HW241343   2.901  11.389   6.095
79816SOL     OW41344   5.309   6.450   1.630
79816SOL    HW141345   5.284   6.389   1.561
79816SOL    HW241346   5.323   6.395   1.707
79817SOL     OW41347   9.634  12.737  12.146
79817SOL    HW141348   9.715  12.748  12.195
79817SOL    HW241349   9.566  12.776  12.201
79818SOL     OW41350  11.707   6.432  13.922
79818SOL    HW141351  11.671   6.462  14.005
79818SOL    HW241352  11.735   6.511  13.877
79819SOL     OW41353  12.684   4.142   8.320
79819SOL    HW141354  12.625   4.146   8.396
79819SOL    HW241355  12.636   4.186   8.250
79820SOL     OW41356  13.878   3.420   4.867
79820SOL    HW141357  13.923   3.339   4.889
79820SOL    HW241358  13.939   3.468   4.812
79821SOL     OW41359   2.580   7.432   9.644
79821SOL    HW141360   2.619   7.415   9.729
79821SOL    HW241361   2.516   7.362   9.632
79822SOL     OW41362   6.990   9.015   8.166
79822SOL    HW141363   7.016   8.937   8.215
79822SOL    HW241364   6.995   8.988   8.074
79823SOL     OW41365  14.468   1.765  11.322
79823SOL    HW141366  14.519   1.686  11.336
79823SOL    HW241367  14.533   1.832  11.301
79824SOL     OW41368   6.552   2.751  10.612
79824SOL    HW141369   6.592   2.825  10.656
79824SOL    HW241370   6.487   2.790  10.553
79825SOL     OW41371  13.228   6.650  11.726
79825SOL    HW141372  13.289   6.601  11.781
79825SOL    HW241373  13.282   6.717  11.685
79826SOL     OW41374  14.660   2.461   6.833
79826SOL    HW141375  14.637   2.418   6.915
79826SOL    HW241376  14.656   2.392   6.767
79827SOL     OW41377   6.234   8.478   9.716
79827SOL    HW141378   6.220   8.485   9.621
79827SOL    HW241379   6.188   8.398   9.741
79828SOL     OW41380  14.693   7.908   8.767
79828SOL    HW141381  14.696   7.895   8.672
79828SOL    HW241382  14.705   7.820   8.802
79829SOL     OW41383  14.036  11.803  10.415
79829SOL    HW141384  14.015  11.742  10.345
79829SOL    HW241385  14.094  11.754  10.474
79830SOL     OW41386   0.462  10.229   3.499
79830SOL    HW141387   0.486  10.264   3.413
79830SOL    HW241388   0.475  10.302   3.559
79831SOL     OW41389   5.904   5.123   4.392
79831SOL    HW141390   5.999   5.124   4.406
79831SOL    HW241391   5.878   5.033   4.407
79832SOL     OW41392   4.585  14.275  11.687
79832SOL    HW141393   4.511  14.258  11.629
79832SOL    HW241394   4.648  14.322  11.632
79833SOL     OW41395  14.666   4.673   0.349
79833SOL    HW141396  14.595   4.637   0.296
79833SOL    HW241397  14.704   4.742   0.296
79834SOL     OW41398   0.904   9.267   3.937
79834SOL    HW141399   0.863   9.191   3.978
79834SOL    HW241400   0.843   9.339   3.952
79835SOL     OW41401   2.118   6.787  13.763
79835SOL    HW141402   2.033   6.828  13.781
79835SOL    HW241403   2.096   6.696  13.740
79836SOL     OW41404   0.667   5.539   7.635
79836SOL    HW141405   0.726   5.533   7.710
79836SOL    HW241406   0.695   5.469   7.577
79837SOL     OW41407  14.471  12.508   2.966
79837SOL    HW141408  14.415  12.445   3.011
79837SOL    HW241409  14.558  12.470   2.968
79838SOL     OW41410   1.155   7.861  12.106
79838SOL    HW141411   1.131   7.954  12.106
79838SOL    HW241412   1.214   7.851  12.180
79839SOL     OW41413   9.715  11.025   5.694
79839SOL    HW141414   9.656  11.006   5.767
79839SOL    HW241415   9.657  11.035   5.618
79840SOL     OW41416  12.108   9.163   6.141
79840SOL    HW141417  12.022   9.173   6.183
79840SOL    HW241418  12.089   9.129   6.054
79841SOL     OW41419  12.203  14.829  11.829
79841SOL    HW141420  12.259  14.790  11.762
79841SOL    HW241421  12.217   0.051  11.819
79842SOL     OW41422   9.277   4.864   2.722
79842SOL    HW141423   9.280   4.773   2.694
79842SOL    HW241424   9.186   4.879   2.747
79843SOL     OW41425   4.496   1.283   1.367
79843SOL    HW141426   4.449   1.217   1.418
79843SOL    HW241427   4.560   1.233   1.317
79844SOL     OW41428   9.412  13.408   6.353
79844SOL    HW141429   9.429  13.318   6.324
79844SOL    HW241430   9.493  13.435   6.397
79845SOL     OW41431  10.899   8.700   7.323
79845SOL    HW141432  10.894   8.714   7.418
79845SOL    HW241433  10.835   8.761   7.287
79846SOL     OW41434   1.094   1.460   9.593
79846SOL    HW141435   1.045   1.387   9.554
79846SOL    HW241436   1.052   1.475   9.677
79847SOL     OW41437  10.768   6.214   9.382
79847SOL    HW141438  10.703   6.271   9.424
79847SOL    HW241439  10.751   6.128   9.420
79848SOL     OW41440   6.070  13.712  10.282
79848SOL    HW141441   6.038  13.736  10.369
79848SOL    HW241442   6.081  13.617  10.286
79849SOL     OW41443   3.694   3.326   4.918
79849SOL    HW141444   3.700   3.404   4.972
79849SOL    HW241445   3.603   3.324   4.888
79850SOL     OW41446   7.396  14.840  12.748
79850SOL    HW141447   7.481  14.860  12.709
79850SOL    HW241448   7.369  14.757  12.709
79851SOL     OW41449  10.295  11.792   7.887
79851SOL    HW141450  10.256  11.735   7.820
79851SOL    HW241451  10.252  11.766   7.968
79852SOL     OW41452   6.087  11.651  11.665
79852SOL    HW141453   6.076  11.630  11.572
79852SOL    HW241454   6.053  11.741  11.674
79853SOL     OW41455   2.422  13.345  10.085
79853SOL    HW141456   2.352  13.398  10.049
79853SOL    HW241457   2.425  13.268  10.029
79854SOL     OW41458  13.978   8.490   8.137
79854SOL    HW141459  13.978   8.395   8.153
79854SOL    HW241460  13.891   8.509   8.103
79855SOL     OW41461   0.454   7.715   2.320
79855SOL    HW141462   0.497   7.695   2.236
79855SOL    HW241463   0.498   7.794   2.351
79856SOL     OW41464   9.107   5.176   2.978
79856SOL    HW141465   9.039   5.243   2.988
79856SOL    HW241466   9.137   5.186   2.888
79857SOL     OW41467  10.356   3.073  14.166
79857SOL    HW141468  10.372   3.126  14.243
79857SOL    HW241469  10.404   2.991  14.183
79858SOL     OW41470   2.723   0.803   2.295
79858SOL    HW141471   2.786   0.748   2.342
79858SOL    HW241472   2.777   0.869   2.251
79859SOL     OW41473   3.455   7.499   0.235
79859SOL    HW141474   3.387   7.457   0.183
79859SOL    HW241475   3.443   7.593   0.220
79860SOL     OW41476  11.192  12.934   8.408
79860SOL    HW141477  11.224  13.022   8.429
79860SOL    HW241478  11.173  12.937   8.315
79861SOL     OW41479   3.910   4.135   2.752
79861SOL    HW141480   3.898   4.126   2.657
79861SOL    HW241481   3.828   4.172   2.783
79862SOL     OW41482   1.751   4.289   7.104
79862SOL    HW141483   1.703   4.295   7.022
79862SOL    HW241484   1.843   4.282   7.078
79863SOL     OW41485  11.397  14.851   6.556
79863SOL    HW141486  11.357   0.020   6.480
79863SOL    HW241487  11.411   0.050   6.618
79864SOL     OW41488  13.321   1.403   5.388
79864SOL    HW141489  13.375   1.342   5.439
79864SOL    HW241490  13.233   1.366   5.391
79865SOL     OW41491   9.149   4.150  10.916
79865SOL    HW141492   9.065   4.105  10.914
79865SOL    HW241493   9.189   4.123  10.998
79866SOL     OW41494   3.898   3.881   1.269
79866SOL    HW141495   3.842   3.818   1.315
79866SOL    HW241496   3.837   3.941   1.227
79867SOL     OW41497   1.607   3.439  14.318
79867SOL    HW141498   1.650   3.498  14.380
79867SOL    HW241499   1.550   3.384  14.371
79868SOL     OW41500  13.849   0.987  13.146
79868SOL    HW141501  13.915   0.946  13.201
79868SOL    HW241502  13.854   0.939  13.063
79869SOL     OW41503  10.753   6.687  10.154
79869SOL    HW141504  10.787   6.756  10.097
79869SOL    HW241505  10.767   6.606  10.105
79870SOL     OW41506  11.247  12.629   5.715
79870SOL    HW141507  11.245  12.540   5.679
79870SOL    HW241508  11.321  12.629   5.776
79871SOL     OW41509   7.721   1.426   0.513
79871SOL    HW141510   7.628   1.448   0.516
79871SOL    HW241511   7.764   1.495   0.563
79872SOL     OW41512   8.716  11.451   1.423
79872SOL    HW141513   8.805  11.431   1.451
79872SOL    HW241514   8.660  11.418   1.493
79873SOL     OW41515  10.305   6.975   0.505
79873SOL    HW141516  10.303   7.042   0.574
79873SOL    HW241517  10.369   7.009   0.442
79874SOL     OW41518   4.283   2.023   2.783
79874SOL    HW141519   4.336   2.002   2.859
79874SOL    HW241520   4.276   2.118   2.783
79875SOL     OW41521   1.256   6.163   3.612
79875SOL    HW141522   1.296   6.219   3.545
79875SOL    HW241523   1.297   6.077   3.599
79876SOL     OW41524  12.617  14.058   5.549
79876SOL    HW141525  12.641  14.142   5.510
79876SOL    HW241526  12.630  13.995   5.478
79877SOL     OW41527   0.295   1.263  10.995
79877SOL    HW141528   0.310   1.333  11.059
79877SOL    HW241529   0.345   1.189  11.027
79878SOL     OW41530   0.096   9.994  13.415
79878SOL    HW141531   0.011   9.991  13.458
79878SOL    HW241532   0.109   9.905  13.380
79879SOL     OW41533  12.942   2.648  14.278
79879SOL    HW141534  12.930   2.622  14.187
79879SOL    HW241535  12.883   2.723  14.289
79880SOL     OW41536  11.226   9.369   8.345
79880SOL    HW141537  11.143   9.325   8.326
79880SOL    HW241538  11.275   9.306   8.398
79881SOL     OW41539  11.633   2.549   9.478
79881SOL    HW141540  11.576   2.599   9.420
79881SOL    HW241541  11.587   2.467   9.493
79882SOL     OW41542  14.790   2.311   1.773
79882SOL    HW141543  14.860   2.311   1.839
79882SOL    HW241544  14.821   2.250   1.706
79883SOL     OW41545   0.080  13.191   3.290
79883SOL    HW141546   0.084  13.155   3.201
79883SOL    HW241547   0.166  13.171   3.328
79884SOL     OW41548   2.536   6.322  11.123
79884SOL    HW141549   2.561   6.280  11.040
79884SOL    HW241550   2.560   6.414  11.112
79885SOL     OW41551  11.023   7.375   5.050
79885SOL    HW141552  10.940   7.412   5.019
79885SOL    HW241553  11.063   7.445   5.101
79886SOL     OW41554   5.929  12.585   2.020
79886SOL    HW141555   5.846  12.546   1.992
79886SOL    HW241556   5.962  12.629   1.942
79887SOL     OW41557   9.576   5.096  12.817
79887SOL    HW141558   9.499   5.152  12.805
79887SOL    HW241559   9.588   5.091  12.912
79888SOL     OW41560   6.328   0.648  14.612
79888SOL    HW141561   6.241   0.625  14.644
79888SOL    HW241562   6.382   0.572  14.633
79889SOL     OW41563   5.514   1.243   8.752
79889SOL    HW141564   5.604   1.231   8.781
79889SOL    HW241565   5.518   1.236   8.657
79890SOL     OW41566  12.550   0.109  12.337
79890SOL    HW141567  12.553   0.061  12.255
79890SOL    HW241568  12.468   0.159  12.333
79891SOL     OW41569   9.754  10.714   4.827
79891SOL    HW141570   9.790  10.626   4.840
79891SOL    HW241571   9.661  10.700   4.814
79892SOL     OW41572   9.349   2.001   4.286
79892SOL    HW141573   9.351   1.906   4.292
79892SOL    HW241574   9.346   2.019   4.192
79893SOL     OW41575   1.290   7.910   6.845
79893SOL    HW141576   1.341   7.851   6.901
79893SOL    HW241577   1.355   7.967   6.804
79894SOL     OW41578  12.816   5.166   5.640
79894SOL    HW141579  12.752   5.117   5.588
79894SOL    HW241580  12.865   5.217   5.576
79895SOL     OW41581   8.513   8.797  11.587
79895SOL    HW141582   8.457   8.874  11.581
79895SOL    HW241583   8.452   8.723  11.578
79896SOL     OW41584  11.601   2.123   6.077
79896SOL    HW141585  11.659   2.048   6.086
79896SOL    HW241586  11.637   2.174   6.004
79897SOL     OW41587   1.847  11.377  12.168
79897SOL    HW141588   1.871  11.313  12.101
79897SOL    HW241589   1.924  11.433  12.177
79898SOL     OW41590   8.141   6.285   7.751
79898SOL    HW141591   8.171   6.195   7.737
79898SOL    HW241592   8.201   6.339   7.699
79899SOL     OW41593  12.430   3.801   8.047
79899SOL    HW141594  12.417   3.775   7.956
79899SOL    HW241595  12.438   3.718   8.095
79900SOL     OW41596   5.140   4.849   2.717
79900SOL    HW141597   5.176   4.779   2.771
79900SOL    HW241598   5.211   4.873   2.658
79901SOL     OW41599  14.478  13.066   5.451
79901SOL    HW141600  14.418  13.136   5.423
79901SOL    HW241601  14.425  12.986   5.446
79902SOL     OW41602   4.780   0.029  14.673
79902SOL    HW141603   4.847   0.008  14.608
79902SOL    HW241604   4.740  14.817  14.694
79903SOL     OW41605  10.824   0.197   5.616
79903SOL    HW141606  10.827   0.184   5.711
79903SOL    HW241607  10.742   0.243   5.601
79904SOL     OW41608   1.887   6.351   5.394
79904SOL    HW141609   1.956   6.412   5.370
79904SOL    HW241610   1.814   6.373   5.336
79905SOL     OW41611   4.717   9.424  12.283
79905SOL    HW141612   4.701   9.493  12.348
79905SOL    HW241613   4.729   9.345  12.336
79906SOL     OW41614   2.336  12.633   3.791
79906SOL    HW141615   2.386  12.553   3.804
79906SOL    HW241616   2.246  12.610   3.813
79907SOL     OW41617  14.412   3.318   7.582
79907SOL    HW141618  14.418   3.227   7.553
79907SOL    HW241619  14.376   3.314   7.670
79908SOL     OW41620  14.787  12.308   1.272
79908SOL    HW141621   0.004  12.287   1.243
79908SOL    HW241622  14.778  12.402   1.254
79909SOL     OW41623  13.109  12.857   8.624
79909SOL    HW141624  13.063  12.873   8.542
79909SOL    HW241625  13.048  12.805   8.677
79910SOL     OW41626   4.882   7.221   8.104
79910SOL    HW141627   4.837   7.155   8.157
79910SOL    HW241628   4.975   7.201   8.115
79911SOL     OW41629   6.869   4.189   2.347
79911SOL    HW141630   6.958   4.192   2.380
79911SOL    HW241631   6.825   4.124   2.401
79912SOL     OW41632   4.239  13.215   4.636
79912SOL    HW141633   4.209  13.197   4.725
79912SOL    HW241634   4.236  13.310   4.628
79913SOL     OW41635  11.087  10.103   3.838
79913SOL    HW141636  11.053  10.092   3.926
79913SOL    HW241637  11.129  10.189   3.839
79914SOL     OW41638  10.857   3.026  13.291
79914SOL    HW141639  10.913   3.093  13.253
79914SOL    HW241640  10.829   3.063  13.375
79915SOL     OW41641   8.618   9.514  10.428
79915SOL    HW141642   8.595   9.424  10.449
79915SOL    HW241643   8.684   9.539  10.493
79916SOL     OW41644  11.067   7.151   9.277
79916SOL    HW141645  11.086   7.058   9.264
79916SOL    HW241646  10.971   7.155   9.280
79917SOL     OW41647   5.885   4.089  11.228
79917SOL    HW141648   5.963   4.143  11.239
79917SOL    HW241649   5.869   4.090  11.133
79918SOL     OW41650  11.578   1.987   8.151
79918SOL    HW141651  11.596   1.893   8.158
79918SOL    HW241652  11.484   1.995   8.168
79919SOL     OW41653   9.741   3.878   2.783
79919SOL    HW141654   9.718   3.923   2.865
79919SOL    HW241655   9.666   3.895   2.726
79920SOL     OW41656  11.922   6.075   6.850
79920SOL    HW141657  11.862   6.001   6.838
79920SOL    HW241658  11.908   6.130   6.772
79921SOL     OW41659  12.869   9.341   6.084
79921SOL    HW141660  12.944   9.367   6.137
79921SOL    HW241661  12.906   9.292   6.011
79922SOL     OW41662   6.225   7.719  14.659
79922SOL    HW141663   6.138   7.687  14.681
79922SOL    HW241664   6.263   7.747  14.742
79923SOL     OW41665  14.029  10.886  10.099
79923SOL    HW141666  14.017  10.794  10.122
79923SOL    HW241667  13.971  10.934  10.159
79924SOL     OW41668  11.396   4.613   0.137
79924SOL    HW141669  11.453   4.629   0.062
79924SOL    HW241670  11.321   4.672   0.123
79925SOL     OW41671  12.553   8.070   3.367
79925SOL    HW141672  12.561   8.162   3.392
79925SOL    HW241673  12.532   8.071   3.274
79926SOL     OW41674  10.561   9.100   8.548
79926SOL    HW141675  10.625   9.088   8.479
79926SOL    HW241676  10.479   9.119   8.502
79927SOL     OW41677   7.380   3.908   7.030
79927SOL    HW141678   7.308   3.845   7.039
79927SOL    HW241679   7.338   3.994   7.043
79928SOL     OW41680   6.285   3.620  12.650
79928SOL    HW141681   6.225   3.599  12.578
79928SOL    HW241682   6.316   3.709  12.630
79929SOL     OW41683   0.799   3.236   4.434
79929SOL    HW141684   0.718   3.281   4.411
79929SOL    HW241685   0.868   3.294   4.405
79930SOL     OW41686   3.843   4.824   9.902
79930SOL    HW141687   3.851   4.749   9.961
79930SOL    HW241688   3.874   4.792   9.818
79931SOL     OW41689   9.611  11.410   2.225
79931SOL    HW141690   9.602  11.482   2.289
79931SOL    HW241691   9.627  11.333   2.279
79932SOL     OW41692   4.709   1.699   9.450
79932SOL    HW141693   4.710   1.775   9.507
79932SOL    HW241694   4.664   1.631   9.502
79933SOL     OW41695   5.911   3.281   4.477
79933SOL    HW141696   5.912   3.357   4.536
79933SOL    HW241697   5.828   3.237   4.496
79934SOL     OW41698   1.695   3.528   0.816
79934SOL    HW141699   1.715   3.437   0.795
79934SOL    HW241700   1.625   3.523   0.881
79935SOL     OW41701   4.598   9.797   9.713
79935SOL    HW141702   4.657   9.801   9.638
79935SOL    HW241703   4.573   9.888   9.728
79936SOL     OW41704   2.886  14.803   1.515
79936SOL    HW141705   2.870  14.766   1.602
79936SOL    HW241706   2.897   0.025   1.531
79937SOL     OW41707   0.351  13.206  11.766
79937SOL    HW141708   0.259  13.181  11.761
79937SOL    HW241709   0.367  13.223  11.859
79938SOL     OW41710  11.116   3.976  12.191
79938SOL    HW141711  11.167   3.915  12.138
79938SOL    HW241712  11.132   3.949  12.282
79939SOL     OW41713  13.040   6.001   9.283
79939SOL    HW141714  13.017   5.989   9.375
79939SOL    HW241715  13.110   5.938   9.267
79940SOL     OW41716  12.795   2.773  14.561
79940SOL    HW141717  12.768   2.797  14.472
79940SOL    HW241718  12.719   2.729  14.598
79941SOL     OW41719   5.552   7.823  12.764
79941SOL    HW141720   5.560   7.868  12.679
79941SOL    HW241721   5.554   7.894  12.828
79942SOL     OW41722   8.235   6.168  10.629
79942SOL    HW141723   8.248   6.096  10.691
79942SOL    HW241724   8.180   6.131  10.560
79943SOL     OW41725  13.605  13.025   8.227
79943SOL    HW141726  13.565  12.965   8.289
79943SOL    HW241727  13.597  12.982   8.142
79944SOL     OW41728  11.940  14.256   0.516
79944SOL    HW141729  12.011  14.257   0.581
79944SOL    HW241730  11.874  14.315   0.551
79945SOL     OW41731   3.733   1.449  10.384
79945SOL    HW141732   3.772   1.524  10.431
79945SOL    HW241733   3.661   1.421  10.440
79946SOL     OW41734   7.131   9.586  12.638
79946SOL    HW141735   7.225   9.568  12.643
79946SOL    HW241736   7.108   9.622  12.723
79947SOL     OW41737   9.019   3.854  12.121
79947SOL    HW141738   8.972   3.771  12.114
79947SOL    HW241739   9.069   3.846  12.203
79948SOL     OW41740  12.086   4.867  10.154
79948SOL    HW141741  12.168   4.915  10.138
79948SOL    HW241742  12.092   4.790  10.098
79949SOL     OW41743   9.395   2.339  14.393
79949SOL    HW141744   9.319   2.280  14.393
79949SOL    HW241745   9.409   2.359  14.486
79950SOL     OW41746   3.712   5.190   9.439
79950SOL    HW141747   3.798   5.226   9.415
79950SOL    HW241748   3.729   5.140   9.519
79951SOL     OW41749   0.385   4.081   9.492
79951SOL    HW141750   0.403   4.116   9.579
79951SOL    HW241751   0.392   4.157   9.434
79952SOL     OW41752   7.379  12.925   6.556
79952SOL    HW141753   7.449  12.866   6.528
79952SOL    HW241754   7.368  12.986   6.483
79953SOL     OW41755   9.545   9.782   4.574
79953SOL    HW141756   9.468   9.727   4.564
79953SOL    HW241757   9.594   9.771   4.493
79954SOL     OW41758   6.786   7.535   7.053
79954SOL    HW141759   6.768   7.596   6.981
79954SOL    HW241760   6.762   7.583   7.132
79955SOL     OW41761   7.893  10.566   1.511
79955SOL    HW141762   7.915  10.642   1.456
79955SOL    HW241763   7.975  10.519   1.522
79956SOL     OW41764   3.352   8.083   4.358
79956SOL    HW141765   3.358   8.175   4.383
79956SOL    HW241766   3.265   8.056   4.388
79957SOL     OW41767  13.168   3.560  13.387
79957SOL    HW141768  13.158   3.581  13.480
79957SOL    HW241769  13.132   3.637  13.341
79958SOL     OW41770   4.118  10.193   8.195
79958SOL    HW141771   4.054  10.260   8.170
79958SOL    HW241772   4.201  10.240   8.203
79959SOL     OW41773   5.746  12.661   0.109
79959SOL    HW141774   5.835  12.658   0.074
79959SOL    HW241775   5.691  12.681   0.034
79960SOL     OW41776   9.720   5.217   4.196
79960SOL    HW141777   9.640   5.220   4.248
79960SOL    HW241778   9.768   5.141   4.229
79961SOL     OW41779   9.970   0.858   6.653
79961SOL    HW141780  10.061   0.858   6.681
79961SOL    HW241781   9.945   0.950   6.651
79962SOL     OW41782   7.448   9.882   6.339
79962SOL    HW141783   7.387   9.834   6.283
79962SOL    HW241784   7.392   9.919   6.407
79963SOL     OW41785   8.439   4.991  13.711
79963SOL    HW141786   8.464   5.029  13.795
79963SOL    HW241787   8.343   4.989  13.713
79964SOL     OW41788   1.469  14.516   1.743
79964SOL    HW141789   1.559  14.511   1.710
79964SOL    HW241790   1.431  14.592   1.699
79965SOL     OW41791   5.293  13.912  14.520
79965SOL    HW141792   5.249  13.923  14.435
79965SOL    HW241793   5.261  13.827  14.552
79966SOL     OW41794   0.238   7.667   3.811
79966SOL    HW141795   0.329   7.693   3.799
79966SOL    HW241796   0.223   7.602   3.743
79967SOL     OW41797   3.102   7.972   8.446
79967SOL    HW141798   3.163   8.044   8.463
79967SOL    HW241799   3.042   8.006   8.380
79968SOL     OW41800   5.881   2.490  12.168
79968SOL    HW141801   5.885   2.402  12.205
79968SOL    HW241802   5.789   2.503  12.145
79969SOL     OW41803   4.660   8.082  14.208
79969SOL    HW141804   4.742   8.098  14.162
79969SOL    HW241805   4.682   8.017  14.275
79970SOL     OW41806   4.592  12.637   4.752
79970SOL    HW141807   4.554  12.556   4.717
79970SOL    HW241808   4.586  12.626   4.847
79971SOL     OW41809  12.339   7.301  13.584
79971SOL    HW141810  12.306   7.386  13.613
79971SOL    HW241811  12.314   7.296  13.492
79972SOL     OW41812   8.164   3.920   2.540
79972SOL    HW141813   8.240   3.870   2.570
79972SOL    HW241814   8.147   3.982   2.610
79973SOL     OW41815  13.556   9.070  13.694
79973SOL    HW141816  13.523   9.018  13.767
79973SOL    HW241817  13.651   9.058  13.698
79974SOL     OW41818   9.226   8.927  14.521
79974SOL    HW141819   9.242   9.020  14.508
79974SOL    HW241820   9.188   8.921  14.609
79975SOL     OW41821   4.147   1.390   5.025
79975SOL    HW141822   4.065   1.405   4.979
79975SOL    HW241823   4.208   1.453   4.987
79976SOL     OW41824  10.568   9.258   7.884
79976SOL    HW141825  10.507   9.290   7.951
79976SOL    HW241826  10.654   9.261   7.927
79977SOL     OW41827  11.098   9.536  14.250
79977SOL    HW141828  11.186   9.505  14.271
79977SOL    HW241829  11.078   9.496  14.165
79978SOL     OW41830   5.041  13.995   3.098
79978SOL    HW141831   4.972  14.051   3.064
79978SOL    HW241832   5.063  13.936   3.026
79979SOL     OW41833  11.918  10.669   7.603
79979SOL    HW141834  11.961  10.717   7.673
79979SOL    HW241835  11.953  10.580   7.609
79980SOL     OW41836   1.774   9.582   2.244
79980SOL    HW141837   1.799   9.490   2.252
79980SOL    HW241838   1.829   9.616   2.174
79981SOL     OW41839   7.253  12.722   1.881
79981SOL    HW141840   7.276  12.813   1.860
79981SOL    HW241841   7.295  12.706   1.965
79982SOL     OW41842  12.440  13.669   3.341
79982SOL    HW141843  12.492  13.664   3.260
79982SOL    HW241844  12.350  13.683   3.310
79983SOL     OW41845   4.017   0.875  12.392
79983SOL    HW141846   4.039   0.784  12.374
79983SOL    HW241847   3.998   0.912  12.306
79984SOL     OW41848   5.736   6.863   1.272
79984SOL    HW141849   5.717   6.779   1.314
79984SOL    HW241850   5.726   6.846   1.178
79985SOL     OW41851   3.055  11.848   9.201
79985SOL    HW141852   3.078  11.892   9.283
79985SOL    HW241853   3.001  11.774   9.228
79986SOL     OW41854   4.996   3.394   0.439
79986SOL    HW141855   5.063   3.409   0.506
79986SOL    HW241856   5.047   3.378   0.359
79987SOL     OW41857   5.282  12.636   0.110
79987SOL    HW141858   5.199  12.592   0.127
79987SOL    HW241859   5.345  12.565   0.098
79988SOL     OW41860  12.308   8.000   7.109
79988SOL    HW141861  12.395   7.969   7.083
79988SOL    HW241862  12.249   7.927   7.088
79989SOL     OW41863  14.533   5.403   0.525
79989SOL    HW141864  14.562   5.370   0.440
79989SOL    HW241865  14.604   5.460   0.554
79990SOL     OW41866   0.536   4.323   9.052
79990SOL    HW141867   0.483   4.350   9.127
79990SOL    HW241868   0.487   4.353   8.976
79991SOL     OW41869   1.063   0.416   5.209
79991SOL    HW141870   1.021   0.431   5.293
79991SOL    HW241871   1.023   0.335   5.176
79992SOL     OW41872   7.907   9.445   1.927
79992SOL    HW141873   7.908   9.365   1.875
79992SOL    HW241874   7.815   9.458   1.950
79993SOL     OW41875   2.828   7.078  14.181
79993SOL    HW141876   2.744   7.033  14.166
79993SOL    HW241877   2.827   7.151  14.119
79994SOL     OW41878  10.229   5.318   1.346
79994SOL    HW141879  10.274   5.298   1.428
79994SOL    HW241880  10.284   5.385   1.305
79995SOL     OW41881   6.138   6.365   3.096
79995SOL    HW141882   6.189   6.387   3.018
79995SOL    HW241883   6.166   6.429   3.161
79996SOL     OW41884  14.189   1.038   7.459
79996SOL    HW141885  14.130   0.985   7.405
79996SOL    HW241886  14.275   1.029   7.418
79997SOL     OW41887  12.256   7.125   4.300
79997SOL    HW141888  12.188   7.192   4.296
79997SOL    HW241889  12.247   7.075   4.219
79998SOL     OW41890   4.584  13.374   3.438
79998SOL    HW141891   4.559  13.300   3.492
79998SOL    HW241892   4.511  13.386   3.377
79999SOL     OW41893  12.777  13.079  13.346
79999SOL    HW141894  12.776  12.984  13.332
79999SOL    HW241895  12.850  13.110  13.293
80000SOL     OW41896   9.601   2.097   2.834
80000SOL    HW141897   9.590   2.002   2.837
80000SOL    HW241898   9.512   2.132   2.838
80001SOL     OW41899   7.009   1.119   1.276
80001SOL    HW141900   7.041   1.209   1.278
80001SOL    HW241901   7.083   1.068   1.242
80002SOL     OW41902   8.599  14.233   4.029
80002SOL    HW141903   8.508  14.212   4.009
80002SOL    HW241904   8.623  14.173   4.099
80003SOL     OW41905   9.260  10.844   6.278
80003SOL    HW141906   9.334  10.785   6.296
80003SOL    HW241907   9.201  10.832   6.352
80004SOL     OW41908   9.346   4.942   1.023
80004SOL    HW141909   9.291   4.971   1.095
80004SOL    HW241910   9.295   4.963   0.944
80005SOL     OW41911   7.944   6.948   6.034
80005SOL    HW141912   7.854   6.958   6.066
80005SOL    HW241913   7.985   7.032   6.052
80006SOL     OW41914  13.865   0.434  14.816
80006SOL    HW141915  13.903   0.428  14.728
80006SOL    HW241916  13.805   0.508  14.810
80007SOL     OW41917   0.818   8.751   4.864
80007SOL    HW141918   0.876   8.690   4.910
80007SOL    HW241919   0.876   8.817   4.828
80008SOL     OW41920  12.222  12.217  12.759
80008SOL    HW141921  12.151  12.279  12.769
80008SOL    HW241922  12.208  12.152  12.828
80009SOL     OW41923  14.797   5.611   3.468
80009SOL    HW141924  14.801   5.519   3.494
80009SOL    HW241925  14.841   5.658   3.538
80010SOL     OW41926   2.812   6.871   9.492
80010SOL    HW141927   2.825   6.831   9.578
80010SOL    HW241928   2.738   6.823   9.455
80011SOL     OW41929  14.654   2.052   8.556
80011SOL    HW141930  14.585   2.105   8.514
80011SOL    HW241931  14.709   2.023   8.483
80012SOL     OW41932   6.301   5.554   1.272
80012SOL    HW141933   6.285   5.580   1.181
80012SOL    HW241934   6.214   5.556   1.313
80013SOL     OW41935  13.365  12.256  14.528
80013SOL    HW141936  13.419  12.178  14.539
80013SOL    HW241937  13.404  12.321  14.586
80014SOL     OW41938   5.476   5.855   7.470
80014SOL    HW141939   5.513   5.890   7.551
80014SOL    HW241940   5.517   5.907   7.400
80015SOL     OW41941   4.515  13.078   6.548
80015SOL    HW141942   4.557  13.063   6.463
80015SOL    HW241943   4.538  13.168   6.570
80016SOL     OW41944   0.221  10.133  12.103
80016SOL    HW141945   0.165  10.137  12.025
80016SOL    HW241946   0.234  10.224  12.128
80017SOL     OW41947   0.558   8.397   2.604
80017SOL    HW141948   0.616   8.348   2.546
80017SOL    HW241949   0.604   8.400   2.687
80018SOL     OW41950   3.162  14.852   0.607
80018SOL    HW141951   3.199  14.803   0.681
80018SOL    HW241952   3.144   0.067   0.642
80019SOL     OW41953  14.688  14.808   9.814
80019SOL    HW141954  14.653  14.724   9.785
80019SOL    HW241955  14.783  14.800   9.799
80020SOL     OW41956   5.699   1.430  12.013
80020SOL    HW141957   5.739   1.460  11.932
80020SOL    HW241958   5.769   1.436  12.078
80021SOL     OW41959   5.737   9.118  14.491
80021SOL    HW141960   5.671   9.169  14.444
80021SOL    HW241961   5.725   9.029  14.459
80022SOL     OW41962   3.526   7.871   9.169
80022SOL    HW141963   3.588   7.921   9.116
80022SOL    HW241964   3.475   7.821   9.106
80023SOL     OW41965   7.183   6.398  11.634
80023SOL    HW141966   7.156   6.389  11.543
80023SOL    HW241967   7.104   6.429  11.679
80024SOL     OW41968   6.040   8.898   1.023
80024SOL    HW141969   5.974   8.874   0.958
80024SOL    HW241970   6.100   8.823   1.026
80025SOL     OW41971   7.159   3.228  11.867
80025SOL    HW141972   7.087   3.170  11.844
80025SOL    HW241973   7.123   3.284  11.936
80026SOL     OW41974   7.773   1.166  11.452
80026SOL    HW141975   7.819   1.157  11.369
80026SOL    HW241976   7.822   1.109  11.512
80027SOL     OW41977   2.104   5.466   4.870
80027SOL    HW141978   2.167   5.510   4.928
80027SOL    HW241979   2.159   5.414   4.811
80028SOL     OW41980  13.472  11.748   7.646
80028SOL    HW141981  13.457  11.803   7.569
80028SOL    HW241982  13.472  11.809   7.720
80029SOL     OW41983   0.134   1.939  11.011
80029SOL    HW141984   0.226   1.933  10.984
80029SOL    HW241985   0.130   1.891  11.094
80030SOL     OW41986   1.177  14.380   1.761
80030SOL    HW141987   1.163  14.455   1.820
80030SOL    HW241988   1.272  14.376   1.750
80031SOL     OW41989   0.261   4.490  11.512
80031SOL    HW141990   0.352   4.488  11.484
80031SOL    HW241991   0.215   4.534  11.441
80032SOL     OW41992   1.472  10.643   6.970
80032SOL    HW141993   1.389  10.680   6.941
80032SOL    HW241994   1.487  10.681   7.056
80033SOL     OW41995   2.038   0.295   2.060
80033SOL    HW141996   2.106   0.310   2.127
80033SOL    HW241997   2.018   0.202   2.068
80034SOL     OW41998  13.062   8.202   6.576
80034SOL    HW141999  13.043   8.122   6.526
80034SOL    HW242000  13.149   8.186   6.614
80035SOL     OW42001  10.930   9.573   3.697
80035SOL    HW142002  10.850   9.540   3.739
80035SOL    HW242003  10.988   9.593   3.770
80036SOL     OW42004   6.404   5.387   0.540
80036SOL    HW142005   6.338   5.355   0.602
80036SOL    HW242006   6.376   5.475   0.518
80037SOL     OW42007  10.923   4.812   1.355
80037SOL    HW142008  10.986   4.743   1.377
80037SOL    HW242009  10.969   4.869   1.295
80038SOL     OW42010   9.768   6.040   5.960
80038SOL    HW142011   9.675   6.055   5.977
80038SOL    HW242012   9.811   6.066   6.041
80039SOL     OW42013  13.720   6.953   3.398
80039SOL    HW142014  13.809   6.983   3.379
80039SOL    HW242015  13.691   6.912   3.317
80040SOL     OW42016   8.977   6.217   8.799
80040SOL    HW142017   8.927   6.263   8.732
80040SOL    HW242018   8.931   6.235   8.880
80041SOL     OW42019   9.116   0.414   9.400
80041SOL    HW142020   9.166   0.453   9.472
80041SOL    HW242021   9.063   0.347   9.441
80042SOL     OW42022  10.641  10.051  12.745
80042SOL    HW142023  10.672  10.099  12.669
80042SOL    HW242024  10.546  10.049  12.733
80043SOL     OW42025   6.874   5.767  13.266
80043SOL    HW142026   6.891   5.772  13.360
80043SOL    HW242027   6.779   5.754  13.259
80044SOL     OW42028   3.012   7.194   4.640
80044SOL    HW142029   2.991   7.279   4.602
80044SOL    HW242030   3.017   7.135   4.565
80045SOL     OW42031   5.305   7.245   2.602
80045SOL    HW142032   5.282   7.256   2.694
80045SOL    HW242033   5.230   7.199   2.564
80046SOL     OW42034   1.071   3.845  12.992
80046SOL    HW142035   1.075   3.933  13.031
80046SOL    HW242036   1.038   3.860  12.903
80047SOL     OW42037   6.907  10.385   4.824
80047SOL    HW142038   6.884  10.296   4.850
80047SOL    HW242039   6.839  10.411   4.762
80048SOL     OW42040   8.331   9.294  11.943
80048SOL    HW142041   8.262   9.288  12.009
80048SOL    HW242042   8.285   9.315  11.862
80049SOL     OW42043  12.525   7.239  11.087
80049SOL    HW142044  12.533   7.153  11.129
80049SOL    HW242045  12.491   7.220  11.000
80050SOL     OW42046  13.533   3.788   1.931
80050SOL    HW142047  13.439   3.786   1.911
80050SOL    HW242048  13.563   3.698   1.917
80051SOL     OW42049  12.297   2.858   0.011
80051SOL    HW142050  12.301   2.839   0.104
80051SOL    HW242051  12.292   2.773  14.841
80052SOL     OW42052   7.481   4.883   6.081
80052SOL    HW142053   7.499   4.973   6.053
80052SOL    HW242054   7.542   4.868   6.153
80053SOL     OW42055  11.511   0.602   7.418
80053SOL    HW142056  11.564   0.639   7.347
80053SOL    HW242057  11.544   0.645   7.497
80054SOL     OW42058   9.554   6.697   3.560
80054SOL    HW142059   9.593   6.653   3.635
80054SOL    HW242060   9.500   6.766   3.597
80055SOL     OW42061   6.596   9.087   3.015
80055SOL    HW142062   6.608   9.010   2.959
80055SOL    HW242063   6.674   9.087   3.071
80056SOL     OW42064   6.638   0.149   1.721
80056SOL    HW142065   6.560   0.204   1.720
80056SOL    HW242066   6.710   0.210   1.735
80057SOL     OW42067   9.359  12.267  11.824
80057SOL    HW142068   9.296  12.331  11.856
80057SOL    HW242069   9.357  12.197  11.889
80058SOL     OW42070   0.262   9.397   6.075
80058SOL    HW142071   0.328   9.332   6.098
80058SOL    HW242072   0.283   9.422   5.985
80059SOL     OW42073  13.337   2.121   6.854
80059SOL    HW142074  13.413   2.115   6.796
80059SOL    HW242075  13.266   2.148   6.797
80060SOL     OW42076   4.928   6.347   2.263
80060SOL    HW142077   4.862   6.294   2.308
80060SOL    HW242078   4.900   6.348   2.172
80061SOL     OW42079  10.330   1.000  12.547
80061SOL    HW142080  10.307   0.933  12.611
80061SOL    HW242081  10.247   1.024  12.506
80062SOL     OW42082   8.247  11.735   8.903
80062SOL    HW142083   8.192  11.669   8.943
80062SOL    HW242084   8.337  11.710   8.925
80063SOL     OW42085  13.552   6.401  14.236
80063SOL    HW142086  13.564   6.391  14.141
80063SOL    HW242087  13.539   6.311  14.267
80064SOL     OW42088   1.985   1.861  12.572
80064SOL    HW142089   2.024   1.774  12.560
80064SOL    HW242090   1.892   1.848  12.555
80065SOL     OW42091   4.019   8.266  12.918
80065SOL    HW142092   3.923   8.259  12.920
80065SOL    HW242093   4.037   8.337  12.858
80066SOL     OW42094   1.249   6.842   3.809
80066SOL    HW142095   1.207   6.783   3.871
80066SOL    HW242096   1.331   6.798   3.785
80067SOL     OW42097   6.811   5.598   5.231
80067SOL    HW142098   6.894   5.635   5.261
80067SOL    HW242099   6.813   5.610   5.136
80068SOL     OW42100   6.373  11.062   7.194
80068SOL    HW142101   6.330  11.120   7.131
80068SOL    HW242102   6.301  11.032   7.250
80069SOL     OW42103   7.655   1.619  10.680
80069SOL    HW142104   7.698   1.701  10.656
80069SOL    HW242105   7.606   1.640  10.760
80070SOL     OW42106   9.150   7.949   9.751
80070SOL    HW142107   9.223   7.962   9.812
80070SOL    HW242108   9.192   7.921   9.669
80071SOL     OW42109   0.023  11.454   4.191
80071SOL    HW142110   0.068  11.434   4.108
80071SOL    HW242111   0.090  11.438   4.258
80072SOL     OW42112   6.205  14.321   4.170
80072SOL    HW142113   6.276  14.383   4.156
80072SOL    HW242114   6.125  14.369   4.150
80073SOL     OW42115   5.428   5.192  13.518
80073SOL    HW142116   5.517   5.214  13.545
80073SOL    HW242117   5.436   5.166  13.426
80074SOL     OW42118   1.073  14.851   9.069
80074SOL    HW142119   0.982  14.833   9.092
80074SOL    HW242120   1.122  14.777   9.107
80075SOL     OW42121   5.019   5.936   8.981
80075SOL    HW142122   5.069   5.914   9.060
80075SOL    HW242123   5.000   6.029   8.992
80076SOL     OW42124   1.627  11.454  11.913
80076SOL    HW142125   1.562  11.521  11.890
80076SOL    HW242126   1.579  11.393  11.969
80077SOL     OW42127  12.637   2.981   7.316
80077SOL    HW142128  12.542   2.985   7.317
80077SOL    HW242129  12.662   3.027   7.236
80078SOL     OW42130   0.071   3.923   2.268
80078SOL    HW142131   0.149   3.944   2.216
80078SOL    HW242132  14.870   3.951   2.214
80079SOL     OW42133   3.529   6.976  12.306
80079SOL    HW142134   3.586   6.923  12.361
80079SOL    HW242135   3.514   7.056  12.356
80080SOL     OW42136   9.038   0.918   3.071
80080SOL    HW142137   9.026   0.823   3.071
80080SOL    HW242138   9.014   0.945   3.160
80081SOL     OW42139   3.930  14.143  12.620
80081SOL    HW142140   3.944  14.066  12.674
80081SOL    HW242141   3.986  14.131  12.544
80082SOL     OW42142  14.857   4.505   7.842
80082SOL    HW142143  14.866   4.411   7.856
80082SOL    HW242144   0.072   4.533   7.814
80083SOL     OW42145   0.301   9.271  12.889
80083SOL    HW142146   0.244   9.306  12.957
80083SOL    HW242147   0.275   9.179  12.881
80084SOL     OW42148  11.849   6.485   1.726
80084SOL    HW142149  11.923   6.427   1.745
80084SOL    HW242150  11.789   6.472   1.800
80085SOL     OW42151   1.616   5.836   1.334
80085SOL    HW142152   1.599   5.793   1.418
80085SOL    HW242153   1.676   5.907   1.354
80086SOL     OW42154  13.842  12.293   0.036
80086SOL    HW142155  13.911  12.285  14.842
80086SOL    HW242156  13.873  12.242   0.110
80087SOL     OW42157  12.709   6.781   4.772
80087SOL    HW142158  12.727   6.743   4.858
80087SOL    HW242159  12.702   6.705   4.714
80088SOL     OW42160   2.877  11.989  10.206
80088SOL    HW142161   2.791  12.010  10.170
80088SOL    HW242162   2.932  12.062  10.180
80089SOL     OW42163   5.611   8.554   6.271
80089SOL    HW142164   5.571   8.549   6.358
80089SOL    HW242165   5.657   8.471   6.261
80090SOL     OW42166   0.200  13.960  12.883
80090SOL    HW142167   0.263  13.890  12.902
80090SOL    HW242168   0.251  14.027  12.838
80091SOL     OW42169  13.487  12.860   8.403
80091SOL    HW142170  13.454  12.781   8.361
80091SOL    HW242171  13.410  12.915   8.415
80092SOL     OW42172  10.423  10.146   8.281
80092SOL    HW142173  10.338  10.123   8.319
80092SOL    HW242174  10.402  10.185   8.197
80093SOL     OW42175   1.919   3.883   4.590
80093SOL    HW142176   1.887   3.839   4.669
80093SOL    HW242177   1.883   3.971   4.595
80094SOL     OW42178   9.253   3.618   5.569
80094SOL    HW142179   9.263   3.534   5.523
80094SOL    HW242180   9.159   3.627   5.583
80095SOL     OW42181   3.614   9.848   4.476
80095SOL    HW142182   3.678   9.825   4.543
80095SOL    HW242183   3.665   9.895   4.410
80096SOL     OW42184  12.328   3.330   7.180
80096SOL    HW142185  12.330   3.388   7.103
80096SOL    HW242186  12.400   3.362   7.235
80097SOL     OW42187  11.810  12.686   7.686
80097SOL    HW142188  11.718  12.661   7.680
80097SOL    HW242189  11.822  12.749   7.615
80098SOL     OW42190   8.419  13.213   3.544
80098SOL    HW142191   8.445  13.288   3.491
80098SOL    HW242192   8.333  13.237   3.578
80099SOL     OW42193   5.687  14.737   7.080
80099SOL    HW142194   5.672  14.668   7.015
80099SOL    HW242195   5.730  14.807   7.031
80100SOL     OW42196   1.153   5.647   6.517
80100SOL    HW142197   1.196   5.732   6.509
80100SOL    HW242198   1.091   5.658   6.589
80101SOL     OW42199   9.512   7.396   3.541
80101SOL    HW142200   9.588   7.453   3.551
80101SOL    HW242201   9.469   7.427   3.461
80102SOL     OW42202  13.572  13.471  13.989
80102SOL    HW142203  13.490  13.517  13.972
80102SOL    HW242204  13.599  13.438  13.903
80103SOL     OW42205   9.918  10.080   6.950
80103SOL    HW142206   9.905  10.117   6.863
80103SOL    HW242207  10.012  10.066   6.956
80104SOL     OW42208   4.814   9.116  10.412
80104SOL    HW142209   4.784   9.196  10.455
80104SOL    HW242210   4.827   9.140  10.321
80105SOL     OW42211   4.103  10.538   6.594
80105SOL    HW142212   4.184  10.498   6.559
80105SOL    HW242213   4.132  10.622   6.630
80106SOL     OW42214  10.908  14.456  10.625
80106SOL    HW142215  10.822  14.496  10.638
80106SOL    HW242216  10.889  14.373  10.581
80107SOL     OW42217   9.985  10.566   9.834
80107SOL    HW142218  10.054  10.504   9.810
80107SOL    HW242219  10.025  10.652   9.821
80108SOL     OW42220   5.866   9.870  13.249
80108SOL    HW142221   5.945   9.906  13.207
80108SOL    HW242222   5.819   9.947  13.281
80109SOL     OW42223  14.641   7.408   9.240
80109SOL    HW142224  14.697   7.348   9.190
80109SOL    HW242225  14.553   7.393   9.204
80110SOL     OW42226  10.252   4.349   4.489
80110SOL    HW142227  10.192   4.399   4.544
80110SOL    HW242228  10.307   4.416   4.447
80111SOL     OW42229   1.873   2.999   5.344
80111SOL    HW142230   1.799   3.038   5.390
80111SOL    HW242231   1.843   2.911   5.321
80112SOL     OW42232   3.471  11.755   4.961
80112SOL    HW142233   3.396  11.727   4.909
80112SOL    HW242234   3.433  11.778   5.046
80113SOL     OW42235   7.235  13.233  11.880
80113SOL    HW142236   7.285  13.248  11.801
80113SOL    HW242237   7.287  13.171  11.931
80114SOL     OW42238   0.728   1.640   2.560
80114SOL    HW142239   0.723   1.733   2.580
80114SOL    HW242240   0.779   1.602   2.631
80115SOL     OW42241  10.355  10.271  12.361
80115SOL    HW142242  10.340  10.264  12.456
80115SOL    HW242243  10.295  10.206  12.323
80116SOL     OW42244   5.182  10.825   4.109
80116SOL    HW142245   5.173  10.768   4.185
80116SOL    HW242246   5.121  10.789   4.045
80117SOL     OW42247   8.283   5.353   2.903
80117SOL    HW142248   8.375   5.370   2.925
80117SOL    HW242249   8.233   5.399   2.970
80118SOL     OW42250  11.581   9.260   1.027
80118SOL    HW142251  11.541   9.232   1.109
80118SOL    HW242252  11.510   9.303   0.979
80119SOL     OW42253  10.412  12.158  10.113
80119SOL    HW142254  10.393  12.251  10.123
80119SOL    HW242255  10.464  12.136  10.190
80120SOL     OW42256   3.995   3.258   4.676
80120SOL    HW142257   3.935   3.325   4.642
80120SOL    HW242258   3.941   3.205   4.734
80121SOL     OW42259   1.812   4.981  12.444
80121SOL    HW142260   1.843   4.905  12.493
80121SOL    HW242261   1.815   4.953  12.352
80122SOL     OW42262  11.354   5.936   6.807
80122SOL    HW142263  11.291   5.995   6.766
80122SOL    HW242264  11.416   5.994   6.850
80123SOL     OW42265   5.415   8.348   8.748
80123SOL    HW142266   5.370   8.296   8.814
80123SOL    HW242267   5.484   8.291   8.714
80124SOL     OW42268  11.362   3.881   3.016
80124SOL    HW142269  11.301   3.822   3.061
80124SOL    HW242270  11.443   3.874   3.067
80125SOL     OW42271   8.951  11.764   0.138
80125SOL    HW142272   9.026  11.823   0.137
80125SOL    HW242273   8.958  11.716   0.221
80126SOL     OW42274   2.524   1.560   0.495
80126SOL    HW142275   2.507   1.540   0.587
80126SOL    HW242276   2.536   1.655   0.494
80127SOL     OW42277   4.321   1.038  11.140
80127SOL    HW142278   4.357   1.107  11.085
80127SOL    HW242279   4.256   0.994  11.085
80128SOL     OW42280  13.146   4.724   6.036
80128SOL    HW142281  13.118   4.643   6.079
80128SOL    HW242282  13.233   4.741   6.073
80129SOL     OW42283   7.238   8.699   8.756
80129SOL    HW142284   7.252   8.607   8.777
80129SOL    HW242285   7.319   8.725   8.710
80130SOL     OW42286  12.503   1.717   4.363
80130SOL    HW142287  12.585   1.714   4.412
80130SOL    HW242288  12.441   1.759   4.423
80131SOL     OW42289  14.193   4.006  10.489
80131SOL    HW142290  14.111   3.960  10.474
80131SOL    HW242291  14.168   4.086  10.536
80132SOL     OW42292  10.447   6.167   0.129
80132SOL    HW142293  10.491   6.242   0.088
80132SOL    HW242294  10.516   6.102   0.140
80133SOL     OW42295   9.492  14.705   5.626
80133SOL    HW142296   9.433  14.737   5.695
80133SOL    HW242297   9.549  14.779   5.608
80134SOL     OW42298   7.948  14.450   2.634
80134SOL    HW142299   7.999  14.376   2.667
80134SOL    HW242300   7.911  14.491   2.712
80135SOL     OW42301   2.823   6.154   6.074
80135SOL    HW142302   2.757   6.221   6.055
80135SOL    HW242303   2.860   6.180   6.158
80136SOL     OW42304  10.952  12.592  12.561
80136SOL    HW142305  10.909  12.509  12.580
80136SOL    HW242306  10.997  12.615  12.642
80137SOL     OW42307   4.841  10.156  12.468
80137SOL    HW142308   4.905  10.221  12.498
80137SOL    HW242309   4.788  10.138  12.546
80138SOL     OW42310   8.219   5.485  10.716
80138SOL    HW142311   8.296   5.517  10.764
80138SOL    HW242312   8.256   5.439  10.640
80139SOL     OW42313  12.339  11.388   9.251
80139SOL    HW142314  12.253  11.390   9.291
80139SOL    HW242315  12.386  11.319   9.297
80140SOL     OW42316   3.123   2.026   0.663
80140SOL    HW142317   3.131   1.933   0.683
80140SOL    HW242318   3.121   2.029   0.567
80141SOL     OW42319   3.267  14.025   7.575
80141SOL    HW142320   3.183  14.048   7.616
80141SOL    HW242321   3.320  14.104   7.583
80142SOL     OW42322   2.844   5.952  10.827
80142SOL    HW142323   2.818   6.000  10.905
80142SOL    HW242324   2.770   5.894  10.808
80143SOL     OW42325   9.276  13.575   5.930
80143SOL    HW142326   9.289  13.581   6.025
80143SOL    HW242327   9.211  13.506   5.919
80144SOL     OW42328  10.339   0.254   0.063
80144SOL    HW142329  10.289   0.330   0.092
80144SOL    HW242330  10.419   0.257   0.116
80145SOL     OW42331  13.659   4.361  14.630
80145SOL    HW142332  13.633   4.341  14.539
80145SOL    HW242333  13.624   4.449  14.645
80146SOL     OW42334  14.048   8.669   4.813
80146SOL    HW142335  14.094   8.730   4.871
80146SOL    HW242336  13.962   8.658   4.854
80147SOL     OW42337   0.379   6.196  14.702
80147SOL    HW142338   0.301   6.208  14.647
80147SOL    HW242339   0.420   6.116  14.670
80148SOL     OW42340  13.573   5.884  14.073
80148SOL    HW142341  13.505   5.902  14.137
80148SOL    HW242342  13.647   5.937  14.101
80149SOL     OW42343   6.018  13.793   3.815
80149SOL    HW142344   6.095  13.754   3.775
80149SOL    HW242345   5.947  13.777   3.753
80150SOL     OW42346   0.194   8.969   8.337
80150SOL    HW142347   0.147   9.053   8.334
80150SOL    HW242348   0.180   8.931   8.250
80151SOL     OW42349   3.993   6.588   5.839
80151SOL    HW142350   4.058   6.651   5.808
80151SOL    HW242351   4.042   6.507   5.853
80152SOL     OW42352   8.462   0.145   2.535
80152SOL    HW142353   8.397   0.099   2.482
80152SOL    HW242354   8.542   0.141   2.483
80153SOL     OW42355  12.370   0.707  13.286
80153SOL    HW142356  12.329   0.757  13.357
80153SOL    HW242357  12.435   0.767  13.250
80154SOL     OW42358   9.166   0.837   1.991
80154SOL    HW142359   9.188   0.760   1.938
80154SOL    HW242360   9.250   0.879   2.007
80155SOL     OW42361  10.516   3.438   3.128
80155SOL    HW142362  10.569   3.474   3.200
80155SOL    HW242363  10.565   3.460   3.049
80156SOL     OW42364   1.488   2.759  14.527
80156SOL    HW142365   1.518   2.714  14.449
80156SOL    HW242366   1.527   2.710  14.600
80157SOL     OW42367   2.186   8.263   8.203
80157SOL    HW142368   2.151   8.292   8.287
80157SOL    HW242369   2.119   8.205   8.167
80158SOL     OW42370   2.922   8.420   3.177
80158SOL    HW142371   2.927   8.503   3.224
80158SOL    HW242372   3.009   8.381   3.187
80159SOL     OW42373   9.601  13.290   0.383
80159SOL    HW142374   9.635  13.210   0.342
80159SOL    HW242375   9.587  13.265   0.475
80160SOL     OW42376  10.014   8.714   8.457
80160SOL    HW142377  10.108   8.698   8.461
80160SOL    HW242378   9.992   8.747   8.544
80161SOL     OW42379   7.721   6.311   6.224
80161SOL    HW142380   7.737   6.326   6.317
80161SOL    HW242381   7.632   6.344   6.209
80162SOL     OW42382   9.411   3.405   5.061
80162SOL    HW142383   9.407   3.496   5.090
80162SOL    HW242384   9.333   3.394   5.007
80163SOL     OW42385   2.921   6.496   4.729
80163SOL    HW142386   2.987   6.554   4.766
80163SOL    HW242387   2.972   6.425   4.689
80164SOL     OW42388  11.843   5.469   9.655
80164SOL    HW142389  11.748   5.479   9.645
80164SOL    HW242390  11.879   5.498   9.572
80165SOL     OW42391   2.828   4.104  13.358
80165SOL    HW142392   2.895   4.055  13.309
80165SOL    HW242393   2.850   4.088  13.450
80166SOL     OW42394   0.329  14.621  11.903
80166SOL    HW142395   0.311  14.560  11.832
80166SOL    HW242396   0.388  14.686  11.864
80167SOL     OW42397  11.810   6.558   8.138
80167SOL    HW142398  11.801   6.472   8.180
80167SOL    HW242399  11.764   6.618   8.196
80168SOL     OW42400   1.972  13.997  14.371
80168SOL    HW142401   2.001  13.973  14.283
80168SOL    HW242402   1.900  13.938  14.391
80169SOL     OW42403   7.938   3.755   7.309
80169SOL    HW142404   8.001   3.815   7.349
80169SOL    HW242405   7.916   3.795   7.225
80170SOL     OW42406   5.608   1.192   4.548
80170SOL    HW142407   5.689   1.240   4.530
80170SOL    HW242408   5.627   1.102   4.518
80171SOL     OW42409   4.646   4.242   9.976
80171SOL    HW142410   4.573   4.267  10.032
80171SOL    HW242411   4.683   4.164  10.017
80172SOL     OW42412   6.012   9.811  13.492
80172SOL    HW142413   5.997   9.723  13.459
80172SOL    HW242414   5.964   9.868  13.431
80173SOL     OW42415   2.083   6.383  14.468
80173SOL    HW142416   2.062   6.476  14.470
80173SOL    HW242417   2.155   6.376  14.405
80174SOL     OW42418   8.423   1.238  12.650
80174SOL    HW142419   8.428   1.143  12.644
80174SOL    HW242420   8.496   1.263  12.706
80175SOL     OW42421   2.901   9.608   6.201
80175SOL    HW142422   2.933   9.635   6.287
80175SOL    HW242423   2.973   9.630   6.141
80176SOL     OW42424   8.858   5.467  14.618
80176SOL    HW142425   8.797   5.401  14.649
80176SOL    HW242426   8.876   5.521  14.695
80177SOL     OW42427   9.664   7.384   4.911
80177SOL    HW142428   9.651   7.479   4.906
80177SOL    HW242429   9.755   7.374   4.939
80178SOL     OW42430   9.946   2.144   6.031
80178SOL    HW142431   9.909   2.094   6.104
80178SOL    HW242432  10.040   2.143   6.047
80179SOL     OW42433   2.551   0.532   3.421
80179SOL    HW142434   2.485   0.475   3.379
80179SOL    HW242435   2.506   0.569   3.497
80180SOL     OW42436  12.091   0.276  14.156
80180SOL    HW142437  12.125   0.191  14.129
80180SOL    HW242438  12.023   0.256  14.220
80181SOL     OW42439   9.057  14.379   2.807
80181SOL    HW142440   9.104  14.439   2.866
80181SOL    HW242441   9.126  14.323   2.770
80182SOL     OW42442  13.570  10.756  14.080
80182SOL    HW142443  13.505  10.719  14.139
80182SOL    HW242444  13.620  10.681  14.048
80183SOL     OW42445   0.988   1.253   5.283
80183SOL    HW142446   0.895   1.271   5.268
80183SOL    HW242447   1.018   1.326   5.338
80184SOL     OW42448   4.935   2.356   1.295
80184SOL    HW142449   4.875   2.291   1.333
80184SOL    HW242450   5.022   2.321   1.313
80185SOL     OW42451   7.974  12.777  13.341
80185SOL    HW142452   7.960  12.738  13.255
80185SOL    HW242453   7.919  12.725  13.400
80186SOL     OW42454   1.216   6.577   3.638
80186SOL    HW142455   1.274   6.571   3.561
80186SOL    HW242456   1.274   6.564   3.713
80187SOL     OW42457   4.254   4.934  12.826
80187SOL    HW142458   4.202   4.978  12.894
80187SOL    HW242459   4.240   4.841  12.841
80188SOL     OW42460   6.527   3.280   8.170
80188SOL    HW142461   6.549   3.210   8.108
80188SOL    HW242462   6.509   3.356   8.115
80189SOL     OW42463   5.355   4.202   9.069
80189SOL    HW142464   5.416   4.272   9.092
80189SOL    HW242465   5.401   4.152   9.001
80190SOL     OW42466  11.148   6.320   0.964
80190SOL    HW142467  11.070   6.265   0.975
80190SOL    HW242468  11.203   6.272   0.902
80191SOL     OW42469   9.160   2.768   1.172
80191SOL    HW142470   9.190   2.855   1.147
80191SOL    HW242471   9.073   2.760   1.133
80192SOL     OW42472  12.720   4.460   8.128
80192SOL    HW142473  12.731   4.469   8.034
80192SOL    HW242474  12.648   4.398   8.139
80193SOL     OW42475   2.224  11.220  11.286
80193SOL    HW142476   2.129  11.227  11.279
80193SOL    HW242477   2.239  11.177  11.370
80194SOL     OW42478   4.364  13.146   0.587
80194SOL    HW142479   4.408  13.061   0.595
80194SOL    HW242480   4.435  13.207   0.568
80195SOL     OW42481  13.072  10.021   8.622
80195SOL    HW142482  13.044   9.939   8.583
80195SOL    HW242483  12.992  10.059   8.657
80196SOL     OW42484   8.466   4.468   7.079
80196SOL    HW142485   8.430   4.556   7.090
80196SOL    HW242486   8.396   4.420   7.035
80197SOL     OW42487   3.830   0.383   7.066
80197SOL    HW142488   3.886   0.359   6.992
80197SOL    HW242489   3.892   0.404   7.137
80198SOL     OW42490   7.188   3.880   7.271
80198SOL    HW142491   7.103   3.871   7.314
80198SOL    HW242492   7.169   3.927   7.190
80199SOL     OW42493  12.221   4.402   1.610
80199SOL    HW142494  12.307   4.402   1.567
80199SOL    HW242495  12.240   4.415   1.703
80200SOL     OW42496  14.694   6.638   3.972
80200SOL    HW142497  14.665   6.639   3.881
80200SOL    HW242498  14.789   6.629   3.967
80201SOL     OW42499   6.932   4.104   3.603
80201SOL    HW142500   6.924   4.082   3.696
80201SOL    HW242501   6.848   4.144   3.581
80202SOL     OW42502  11.889   2.912   0.756
80202SOL    HW142503  11.963   2.958   0.717
80202SOL    HW242504  11.920   2.884   0.842
80203SOL     OW42505   4.939   8.022  14.147
80203SOL    HW142506   5.012   8.073  14.182
80203SOL    HW242507   4.951   7.934  14.183
80204SOL     OW42508   6.762   1.038   0.803
80204SOL    HW142509   6.795   0.961   0.757
80204SOL    HW242510   6.681   1.061   0.759
80205SOL     OW42511   9.133   2.254  13.958
80205SOL    HW142512   9.154   2.172  13.913
80205SOL    HW242513   9.217   2.282  13.995
80206SOL     OW42514   7.397  11.905  12.441
80206SOL    HW142515   7.325  11.842  12.450
80206SOL    HW242516   7.369  11.964  12.371
80207SOL     OW42517  12.266  10.623   6.893
80207SOL    HW142518  12.312  10.556   6.843
80207SOL    HW242519  12.322  10.639   6.969
80208SOL     OW42520   2.770  12.239  11.278
80208SOL    HW142521   2.694  12.189  11.248
80208SOL    HW242522   2.837  12.172  11.296
80209SOL     OW42523   6.126   3.184   1.218
80209SOL    HW142524   6.098   3.190   1.309
80209SOL    HW242525   6.164   3.269   1.199
80210SOL     OW42526  11.494   1.718   9.686
80210SOL    HW142527  11.411   1.710   9.732
80210SOL    HW242528  11.476   1.780   9.615
80211SOL     OW42529   3.959   1.720   0.140
80211SOL    HW142530   3.897   1.651   0.161
80211SOL    HW242531   3.955   1.779   0.216
80212SOL     OW42532  12.323   3.732   7.178
80212SOL    HW142533  12.338   3.776   7.094
80212SOL    HW242534  12.246   3.678   7.162
80213SOL     OW42535  13.820   7.350   1.583
80213SOL    HW142536  13.725   7.339   1.593
80213SOL    HW242537  13.849   7.270   1.539
80214SOL     OW42538  10.497   8.092   3.113
80214SOL    HW142539  10.484   8.008   3.158
80214SOL    HW242540  10.590   8.093   3.091
80215SOL     OW42541   2.259  12.878  12.918
80215SOL    HW142542   2.235  12.954  12.971
80215SOL    HW242543   2.179  12.826  12.914
80216SOL     OW42544   3.663   4.529  10.369
80216SOL    HW142545   3.715   4.572  10.301
80216SOL    HW242546   3.572   4.545  10.344
80217SOL     OW42547  14.152   5.057   5.886
80217SOL    HW142548  14.143   5.037   5.793
80217SOL    HW242549  14.228   5.114   5.892
80218SOL     OW42550   3.271   5.772  14.712
80218SOL    HW142551   3.237   5.811  14.793
80218SOL    HW242552   3.360   5.745  14.735
80219SOL     OW42553   0.340   5.278  10.173
80219SOL    HW142554   0.313   5.270  10.082
80219SOL    HW242555   0.421   5.227  10.179
80220SOL     OW42556   1.670  11.903   3.239
80220SOL    HW142557   1.714  11.987   3.230
80220SOL    HW242558   1.738  11.843   3.268
80221SOL     OW42559   7.850   3.765   5.417
80221SOL    HW142560   7.852   3.779   5.511
80221SOL    HW242561   7.902   3.687   5.402
80222SOL     OW42562   2.612   0.685   8.971
80222SOL    HW142563   2.687   0.640   8.931
80222SOL    HW242564   2.650   0.736   9.043
80223SOL     OW42565   3.953  13.759  11.182
80223SOL    HW142566   3.972  13.694  11.249
80223SOL    HW242567   3.867  13.794  11.205
80224SOL     OW42568  14.315  14.751   5.441
80224SOL    HW142569  14.392  14.774   5.494
80224SOL    HW242570  14.348  14.749   5.351
80225SOL     OW42571   3.077  10.554   5.045
80225SOL    HW142572   3.097  10.528   4.955
80225SOL    HW242573   3.133  10.500   5.099
80226SOL     OW42574  13.929   8.997   6.238
80226SOL    HW142575  13.904   8.977   6.328
80226SOL    HW242576  13.999   9.063   6.248
80227SOL     OW42577  12.680   8.368   9.351
80227SOL    HW142578  12.634   8.305   9.296
80227SOL    HW242579  12.657   8.453   9.313
80228SOL     OW42580   1.600   3.399   6.131
80228SOL    HW142581   1.595   3.446   6.214
80228SOL    HW242582   1.625   3.466   6.066
80229SOL     OW42583  11.713   1.791   5.786
80229SOL    HW142584  11.627   1.817   5.819
80229SOL    HW242585  11.774   1.815   5.855
80230SOL     OW42586   3.676   1.484  10.702
80230SOL    HW142587   3.717   1.420  10.762
80230SOL    HW242588   3.623   1.431  10.643
80231SOL     OW42589   7.085   9.969  10.787
80231SOL    HW142590   7.151   9.900  10.797
80231SOL    HW242591   7.099  10.028  10.861
80232SOL     OW42592   0.808   1.257  11.927
80232SOL    HW142593   0.730   1.273  11.874
80232SOL    HW242594   0.815   1.335  11.982
80233SOL     OW42595   7.432   1.817   8.802
80233SOL    HW142596   7.442   1.771   8.718
80233SOL    HW242597   7.350   1.865   8.794
80234SOL     OW42598   9.416   0.847  14.532
80234SOL    HW142599   9.362   0.779  14.491
80234SOL    HW242600   9.453   0.895  14.458
80235SOL     OW42601   3.213   8.927  11.020
80235SOL    HW142602   3.298   8.901  10.987
80235SOL    HW242603   3.172   8.846  11.049
80236SOL     OW42604   2.705   3.018   8.689
80236SOL    HW142605   2.729   2.988   8.776
80236SOL    HW242606   2.738   3.108   8.684
80237SOL     OW42607   0.730  12.638   2.006
80237SOL    HW142608   0.784  12.609   1.933
80237SOL    HW242609   0.707  12.558   2.053
80238SOL     OW42610   1.877   7.673   3.868
80238SOL    HW142611   1.901   7.766   3.867
80238SOL    HW242612   1.833   7.660   3.952
80239SOL     OW42613   0.677   4.695   6.185
80239SOL    HW142614   0.770   4.717   6.184
80239SOL    HW242615   0.671   4.612   6.137
80240SOL     OW42616  11.627   5.896   9.996
80240SOL    HW142617  11.627   5.831   9.926
80240SOL    HW242618  11.660   5.849  10.073
80241SOL     OW42619   6.638  12.626   4.498
80241SOL    HW142620   6.549  12.641   4.530
80241SOL    HW242621   6.628  12.559   4.430
80242SOL     OW42622  14.079  11.106  11.055
80242SOL    HW142623  13.990  11.090  11.024
80242SOL    HW242624  14.127  11.025  11.034
80243SOL     OW42625  12.066   9.162  13.097
80243SOL    HW142626  12.032   9.163  13.187
80243SOL    HW242627  12.011   9.099  13.051
80244SOL     OW42628   7.373   7.263   0.934
80244SOL    HW142629   7.453   7.212   0.945
80244SOL    HW242630   7.342   7.276   1.024
80245SOL     OW42631   0.355   1.674   4.976
80245SOL    HW142632   0.436   1.722   4.994
80245SOL    HW242633   0.373   1.585   5.006
80246SOL     OW42634  11.279   8.126   7.617
80246SOL    HW142635  11.216   8.186   7.657
80246SOL    HW242636  11.358   8.178   7.607
80247SOL     OW42637   9.146   4.641   4.883
80247SOL    HW142638   9.052   4.623   4.877
80247SOL    HW242639   9.176   4.640   4.792
80248SOL     OW42640   9.528  10.308  12.946
80248SOL    HW142641   9.522  10.259  13.028
80248SOL    HW242642   9.496  10.247  12.879
80249SOL     OW42643  10.258  11.140  10.901
80249SOL    HW142644  10.198  11.090  10.846
80249SOL    HW242645  10.209  11.155  10.982
80250SOL     OW42646  11.532   9.481   6.850
80250SOL    HW142647  11.540   9.550   6.915
80250SOL    HW242648  11.520   9.401   6.901
80251SOL     OW42649  10.823   8.490   6.151
80251SOL    HW142650  10.786   8.567   6.109
80251SOL    HW242651  10.755   8.460   6.211
80252SOL     OW42652   0.573   0.920   1.522
80252SOL    HW142653   0.568   1.014   1.506
80252SOL    HW242654   0.497   0.901   1.576
80253SOL     OW42655   9.068  14.119   8.148
80253SOL    HW142656   9.034  14.205   8.123
80253SOL    HW242657   9.038  14.060   8.078
80254SOL     OW42658   4.145   4.291  14.076
80254SOL    HW142659   4.154   4.363  14.014
80254SOL    HW242660   4.098   4.328  14.150
80255SOL     OW42661   9.009   6.706  13.269
80255SOL    HW142662   9.094   6.749  13.262
80255SOL    HW242663   9.029   6.613  13.261
80256SOL     OW42664   6.444   5.805   1.170
80256SOL    HW142665   6.483   5.817   1.083
80256SOL    HW242666   6.445   5.893   1.208
80257SOL     OW42667   1.183   4.790   0.037
80257SOL    HW142668   1.198   4.758  14.820
80257SOL    HW242669   1.266   4.777   0.082
80258SOL     OW42670   4.163   1.661   5.700
80258SOL    HW142671   4.136   1.650   5.609
80258SOL    HW242672   4.235   1.724   5.697
80259SOL     OW42673   8.325   9.738   0.382
80259SOL    HW142674   8.420   9.745   0.367
80259SOL    HW242675   8.312   9.770   0.471
80260SOL     OW42676   6.703  13.851   7.151
80260SOL    HW142677   6.625  13.900   7.176
80260SOL    HW242678   6.682  13.760   7.172
80261SOL     OW42679   3.411  13.214   8.640
80261SOL    HW142680   3.471  13.142   8.657
80261SOL    HW242681   3.403  13.258   8.725
80262SOL     OW42682   2.224   3.875   9.632
80262SOL    HW142683   2.141   3.900   9.591
80262SOL    HW242684   2.201   3.801   9.688
80263SOL     OW42685  14.449   0.344  13.849
80263SOL    HW142686  14.397   0.355  13.929
80263SOL    HW242687  14.386   0.315  13.783
80264SOL     OW42688   3.556   7.229   8.526
80264SOL    HW142689   3.571   7.137   8.506
80264SOL    HW242690   3.512   7.263   8.447
80265SOL     OW42691   3.733  12.783  11.899
80265SOL    HW142692   3.808  12.843  11.899
80265SOL    HW242693   3.698  12.789  11.988
80266SOL     OW42694   0.528   8.376   0.357
80266SOL    HW142695   0.501   8.468   0.350
80266SOL    HW242696   0.476   8.330   0.291
80267SOL     OW42697  14.045   0.922  10.020
80267SOL    HW142698  14.081   0.972  10.093
80267SOL    HW242699  14.051   0.831  10.048
80268SOL     OW42700  13.904   6.227  10.946
80268SOL    HW142701  13.970   6.238  11.015
80268SOL    HW242702  13.948   6.173  10.880
80269SOL     OW42703  14.579  10.221   5.066
80269SOL    HW142704  14.615  10.269   4.992
80269SOL    HW242705  14.646  10.157   5.088
80270SOL     OW42706  12.470   3.441   2.131
80270SOL    HW142707  12.539   3.422   2.194
80270SOL    HW242708  12.505   3.410   2.047
80271SOL     OW42709   9.923   2.604   8.784
80271SOL    HW142710   9.898   2.524   8.737
80271SOL    HW242711   9.927   2.672   8.716
80272SOL     OW42712   0.026  13.734   3.959
80272SOL    HW142713  14.857  13.811   3.998
80272SOL    HW242714   0.004  13.739   3.866
80273SOL     OW42715   0.506  10.087  12.080
80273SOL    HW142716   0.525  10.014  12.138
80273SOL    HW242717   0.410  10.092  12.078
80274SOL     OW42718  11.446  12.834   0.691
80274SOL    HW142719  11.358  12.798   0.702
80274SOL    HW242720  11.484  12.784   0.618
80275SOL     OW42721  13.649   0.688   6.606
80275SOL    HW142722  13.645   0.612   6.548
80275SOL    HW242723  13.738   0.722   6.595
80276SOL     OW42724   0.827   1.752  10.085
80276SOL    HW142725   0.851   1.748   9.993
80276SOL    HW242726   0.754   1.691  10.094
80277SOL     OW42727   9.508   9.278  12.463
80277SOL    HW142728   9.590   9.305  12.505
80277SOL    HW242729   9.440   9.304  12.525
80278SOL     OW42730   5.598   3.810  13.477
80278SOL    HW142731   5.605   3.861  13.396
80278SOL    HW242732   5.639   3.866  13.543
80279SOL     OW42733   5.122  11.213   1.952
80279SOL    HW142734   5.158  11.206   1.864
80279SOL    HW242735   5.066  11.136   1.961
80280SOL     OW42736  11.255   7.910   0.063
80280SOL    HW142737  11.184   7.847   0.066
80280SOL    HW242738  11.335   7.856   0.058
80281SOL     OW42739   7.666   6.630  10.368
80281SOL    HW142740   7.578   6.661  10.348
80281SOL    HW242741   7.710   6.706  10.407
80282SOL     OW42742   1.626  13.024   0.832
80282SOL    HW142743   1.611  12.930   0.830
80282SOL    HW242744   1.539  13.062   0.817
80283SOL     OW42745   1.686  13.523   9.572
80283SOL    HW142746   1.761  13.472   9.604
80283SOL    HW242747   1.611  13.467   9.587
80284SOL     OW42748   6.123   3.134  10.200
80284SOL    HW142749   6.062   3.069  10.165
80284SOL    HW242750   6.210   3.096  10.185
80285SOL     OW42751   5.960   7.072   0.744
80285SOL    HW142752   5.985   7.164   0.741
80285SOL    HW242753   6.022   7.032   0.804
80286SOL     OW42754   3.733   4.652   8.387
80286SOL    HW142755   3.638   4.654   8.378
80286SOL    HW242756   3.757   4.741   8.412
80287SOL     OW42757  14.128   3.390   0.276
80287SOL    HW142758  14.101   3.382   0.367
80287SOL    HW242759  14.053   3.430   0.232
80288SOL     OW42760   6.140   5.478  13.154
80288SOL    HW142761   6.176   5.442  13.234
80288SOL    HW242762   6.069   5.535  13.183
80289SOL     OW42763   3.785   5.953   4.585
80289SOL    HW142764   3.733   5.995   4.515
80289SOL    HW242765   3.842   6.022   4.617
80290SOL     OW42766   7.153   9.722  13.727
80290SOL    HW142767   7.243   9.697  13.745
80290SOL    HW242768   7.105   9.639  13.722
80291SOL     OW42769   6.999  11.452   9.968
80291SOL    HW142770   6.995  11.490  10.055
80291SOL    HW242771   7.049  11.515   9.916
80292SOL     OW42772   5.409   3.461   8.254
80292SOL    HW142773   5.409   3.497   8.165
80292SOL    HW242774   5.423   3.537   8.310
80293SOL     OW42775  11.215   4.862   7.363
80293SOL    HW142776  11.203   4.781   7.413
80293SOL    HW242777  11.308   4.881   7.370
80294SOL     OW42778  13.509   5.078   7.930
80294SOL    HW142779  13.423   5.065   7.890
80294SOL    HW242780  13.568   5.093   7.856
80295SOL     OW42781   7.086   9.712   9.983
80295SOL    HW142782   6.999   9.704  10.023
80295SOL    HW242783   7.110   9.623   9.961
80296SOL     OW42784   4.215   3.543  14.414
80296SOL    HW142785   4.125   3.525  14.387
80296SOL    HW242786   4.268   3.489  14.356
80297SOL     OW42787   3.135   5.696   5.479
80297SOL    HW142788   3.217   5.730   5.516
80297SOL    HW242789   3.125   5.610   5.519
80298SOL     OW42790   0.372   3.998   3.838
80298SOL    HW142791   0.295   4.055   3.830
80298SOL    HW242792   0.384   3.988   3.932
80299SOL     OW42793   1.864  10.141   9.641
80299SOL    HW142794   1.914  10.060   9.635
80299SOL    HW242795   1.775  10.114   9.661
80300SOL     OW42796  12.373   6.868   1.156
80300SOL    HW142797  12.392   6.902   1.243
80300SOL    HW242798  12.384   6.943   1.098
80301SOL     OW42799   3.660   2.656  12.592
80301SOL    HW142800   3.602   2.691  12.660
80301SOL    HW242801   3.601   2.615  12.529
80302SOL     OW42802  12.710   0.859   5.921
80302SOL    HW142803  12.667   0.943   5.901
80302SOL    HW242804  12.767   0.843   5.846
80303SOL     OW42805   1.753   1.399  14.703
80303SOL    HW142806   1.719   1.360  14.623
80303SOL    HW242807   1.820   1.460  14.674
80304SOL     OW42808   8.353  13.556   2.765
80304SOL    HW142809   8.325  13.645   2.741
80304SOL    HW242810   8.443  13.550   2.732
80305SOL     OW42811   8.668  12.397   3.559
80305SOL    HW142812   8.724  12.373   3.485
80305SOL    HW242813   8.600  12.330   3.560
80306SOL     OW42814  12.499   0.618  13.025
80306SOL    HW142815  12.498   0.571  12.942
80306SOL    HW242816  12.410   0.610  13.059
80307SOL     OW42817  12.080   1.804  11.038
80307SOL    HW142818  12.114   1.715  11.035
80307SOL    HW242819  12.114   1.846  10.959
80308SOL     OW42820   1.363   3.446  14.718
80308SOL    HW142821   1.279   3.486  14.698
80308SOL    HW242822   1.341   3.372  14.775
80309SOL     OW42823  11.152   0.873   0.973
80309SOL    HW142824  11.212   0.913   0.909
80309SOL    HW242825  11.163   0.779   0.961
80310SOL     OW42826  14.560   2.691   2.852
80310SOL    HW142827  14.498   2.738   2.907
80310SOL    HW242828  14.639   2.746   2.853
80311SOL     OW42829   6.170  12.965  13.730
80311SOL    HW142830   6.258  13.000  13.747
80311SOL    HW242831   6.121  12.985  13.811
80312SOL     OW42832   8.426   5.086   8.007
80312SOL    HW142833   8.392   5.166   7.966
80312SOL    HW242834   8.356   5.022   7.995
80313SOL     OW42835   3.772  10.000   8.694
80313SOL    HW142836   3.683   9.971   8.714
80313SOL    HW242837   3.761  10.075   8.636
80314SOL     OW42838   3.105   1.774   0.736
80314SOL    HW142839   3.072   1.691   0.701
80314SOL    HW242840   3.163   1.749   0.808
80315SOL     OW42841   8.835   4.305  13.510
80315SOL    HW142842   8.896   4.377  13.499
80315SOL    HW242843   8.889   4.226  13.501
80316SOL     OW42844   9.757  11.271  12.218
80316SOL    HW142845   9.820  11.295  12.285
80316SOL    HW242846   9.744  11.177  12.229
80317SOL     OW42847  10.647   2.303   7.398
80317SOL    HW142848  10.643   2.398   7.408
80317SOL    HW242849  10.610   2.287   7.312
80318SOL     OW42850   1.909  12.173   0.127
80318SOL    HW142851   1.910  12.269   0.132
80318SOL    HW242852   1.831  12.152   0.075
80319SOL     OW42853  12.104   8.972  11.155
80319SOL    HW142854  12.028   8.972  11.213
80319SOL    HW242855  12.079   8.914  11.083
80320SOL     OW42856   4.758   7.849   1.169
80320SOL    HW142857   4.759   7.768   1.120
80320SOL    HW242858   4.797   7.914   1.110
80321SOL     OW42859  13.849   4.612  11.270
80321SOL    HW142860  13.933   4.606  11.223
80321SOL    HW242861  13.873   4.644  11.357
80322SOL     OW42862  13.840   3.166   5.485
80322SOL    HW142863  13.776   3.126   5.427
80322SOL    HW242864  13.823   3.128   5.571
80323SOL     OW42865   2.712  10.473  10.434
80323SOL    HW142866   2.747  10.517  10.356
80323SOL    HW242867   2.755  10.517  10.507
80324SOL     OW42868  14.620   7.013  14.436
80324SOL    HW142869  14.560   6.952  14.479
80324SOL    HW242870  14.703   6.967  14.432
80325SOL     OW42871   8.490  11.766   3.071
80325SOL    HW142872   8.475  11.679   3.034
80325SOL    HW242873   8.410  11.786   3.119
80326SOL     OW42874  11.632   2.014   4.477
80326SOL    HW142875  11.560   1.974   4.428
80326SOL    HW242876  11.615   1.990   4.568
80327SOL     OW42877   9.862  10.843  11.966
80327SOL    HW142878   9.870  10.757  11.925
80327SOL    HW242879   9.857  10.824  12.060
80328SOL     OW42880   5.043   2.640  12.479
80328SOL    HW142881   4.978   2.643  12.549
80328SOL    HW242882   5.000   2.593  12.408
80329SOL     OW42883   8.401   0.315  10.023
80329SOL    HW142884   8.352   0.373  10.082
80329SOL    HW242885   8.385   0.227  10.058
80330SOL     OW42886   0.640   7.193   9.004
80330SOL    HW142887   0.643   7.123   8.939
80330SOL    HW242888   0.728   7.230   9.003
80331SOL     OW42889   7.978   6.552   3.805
80331SOL    HW142890   7.900   6.497   3.804
80331SOL    HW242891   7.945   6.642   3.807
80332SOL     OW42892   6.136   9.564   7.488
80332SOL    HW142893   6.058   9.607   7.453
80332SOL    HW242894   6.185   9.635   7.530
80333SOL     OW42895   1.688  11.859  10.630
80333SOL    HW142896   1.737  11.912  10.568
80333SOL    HW242897   1.708  11.897  10.716
80334SOL     OW42898  12.426   8.959   9.918
80334SOL    HW142899  12.414   8.871   9.881
80334SOL    HW242900  12.412   9.018   9.844
80335SOL     OW42901   3.714   4.940   8.404
80335SOL    HW142902   3.625   4.975   8.400
80335SOL    HW242903   3.769   5.017   8.420
80336SOL     OW42904   3.439   8.872   0.048
80336SOL    HW142905   3.522   8.920   0.038
80336SOL    HW242906   3.388   8.925   0.109
80337SOL     OW42907  14.279   0.169   0.317
80337SOL    HW142908  14.224   0.205   0.247
80337SOL    HW242909  14.243   0.082   0.333
80338SOL     OW42910   2.088   2.546  13.694
80338SOL    HW142911   2.061   2.460  13.663
80338SOL    HW242912   2.018   2.605  13.665
80339SOL     OW42913  14.016  11.388   1.788
80339SOL    HW142914  13.967  11.361   1.866
80339SOL    HW242915  14.004  11.483   1.784
80340SOL     OW42916   9.487   1.827   0.234
80340SOL    HW142917   9.501   1.884   0.309
80340SOL    HW242918   9.574   1.811   0.199
80341SOL     OW42919   3.697   2.168   7.875
80341SOL    HW142920   3.785   2.184   7.842
80341SOL    HW242921   3.643   2.237   7.837
80342SOL     OW42922  12.377  12.803  12.538
80342SOL    HW142923  12.413  12.839  12.619
80342SOL    HW242924  12.291  12.845  12.530
80343SOL     OW42925  10.162  11.600   4.553
80343SOL    HW142926  10.180  11.694   4.552
80343SOL    HW242927  10.098  11.588   4.623
80344SOL     OW42928  14.137   6.754   3.325
80344SOL    HW142929  14.128   6.847   3.345
80344SOL    HW242930  14.125   6.710   3.409
80345SOL     OW42931  14.047  14.427   7.590
80345SOL    HW142932  14.069  14.374   7.514
80345SOL    HW242933  14.130  14.440   7.636
80346SOL     OW42934   5.585   9.072  13.366
80346SOL    HW142935   5.581   8.994  13.422
80346SOL    HW242936   5.561   9.039  13.279
80347SOL     OW42937  12.613   0.115   2.508
80347SOL    HW142938  12.593   0.053   2.578
80347SOL    HW242939  12.662   0.185   2.551
80348SOL     OW42940  11.938   1.835  12.256
80348SOL    HW142941  11.912   1.916  12.211
80348SOL    HW242942  11.880   1.831  12.332
80349SOL     OW42943   0.008   4.691   4.168
80349SOL    HW142944   0.034   4.721   4.081
80349SOL    HW242945   0.077   4.722   4.227
80350SOL     OW42946  14.333   5.367   9.337
80350SOL    HW142947  14.378   5.452   9.333
80350SOL    HW242948  14.297   5.355   9.249
80351SOL     OW42949  10.183   6.985  14.775
80351SOL    HW142950  10.178   7.078  14.798
80351SOL    HW242951  10.182   6.984  14.679
80352SOL     OW42952   8.351   9.228  10.193
80352SOL    HW142953   8.423   9.168  10.211
80352SOL    HW242954   8.327   9.263  10.279
80353SOL     OW42955  10.386   8.696   0.589
80353SOL    HW142956  10.294   8.722   0.583
80353SOL    HW242957  10.432   8.757   0.532
80354SOL     OW42958   6.487  13.786  13.005
80354SOL    HW142959   6.460  13.840  13.079
80354SOL    HW242960   6.410  13.734  12.984
80355SOL     OW42961  14.548  13.158   6.626
80355SOL    HW142962  14.528  13.234   6.682
80355SOL    HW242963  14.643  13.160   6.617
80356SOL     OW42964  13.958   4.076   2.980
80356SOL    HW142965  14.025   4.012   3.008
80356SOL    HW242966  13.938   4.052   2.890
80357SOL     OW42967   0.677   1.445   1.546
80357SOL    HW142968   0.671   1.452   1.451
80357SOL    HW242969   0.769   1.465   1.566
80358SOL     OW42970  10.868  12.225  12.620
80358SOL    HW142971  10.854  12.156  12.685
80358SOL    HW242972  10.959  12.213  12.592
80359SOL     OW42973   8.858   4.811   1.783
80359SOL    HW142974   8.908   4.882   1.743
80359SOL    HW242975   8.797   4.784   1.714
80360SOL     OW42976   0.660   9.136   2.181
80360SOL    HW142977   0.695   9.049   2.160
80360SOL    HW242978   0.570   9.118   2.210
80361SOL     OW42979   6.761  13.193   2.828
80361SOL    HW142980   6.689  13.249   2.857
80361SOL    HW242981   6.719  13.109   2.806
80362SOL     OW42982   7.373   8.826  10.087
80362SOL    HW142983   7.393   8.747  10.137
80362SOL    HW242984   7.277   8.827  10.081
80363SOL     OW42985  12.736   8.087   9.795
80363SOL    HW142986  12.745   8.111   9.703
80363SOL    HW242987  12.726   7.992   9.795
80364SOL     OW42988   8.053  11.843   5.161
80364SOL    HW142989   8.148  11.837   5.171
80364SOL    HW242990   8.021  11.856   5.250
80365SOL     OW42991   3.985   2.645   3.195
80365SOL    HW142992   3.907   2.676   3.148
80365SOL    HW242993   3.999   2.709   3.264
80366SOL     OW42994   0.398   3.165  11.497
80366SOL    HW142995   0.409   3.075  11.467
80366SOL    HW242996   0.335   3.159  11.568
80367SOL     OW42997   2.223  14.605   5.210
80367SOL    HW142998   2.144  14.635   5.165
80367SOL    HW242999   2.246  14.523   5.166
80368SOL     OW43000   2.053   5.562   0.145
80368SOL    HW143001   2.014   5.510   0.215
80368SOL    HW243002   2.116   5.502   0.104
80369SOL     OW43003   7.292   4.989  13.919
80369SOL    HW143004   7.299   4.997  14.014
80369SOL    HW243005   7.249   4.905  13.904
80370SOL     OW43006  11.068   7.397  14.378
80370SOL    HW143007  11.155   7.430  14.356
80370SOL    HW243008  11.030   7.464  14.435
80371SOL     OW43009  14.254   4.279  10.214
80371SOL    HW143010  14.218   4.353  10.165
80371SOL    HW243011  14.198   4.205  10.190
80372SOL     OW43012  13.045   1.680   6.892
80372SOL    HW143013  13.011   1.666   6.804
80372SOL    HW243014  13.096   1.761   6.885
80373SOL     OW43015   8.189  14.792   6.463
80373SOL    HW143016   8.153   0.008   6.457
80373SOL    HW243017   8.155  14.747   6.386
80374SOL     OW43018   9.065   3.861  13.635
80374SOL    HW143019   9.151   3.898  13.613
80374SOL    HW243020   9.085   3.784  13.688
80375SOL     OW43021   1.005   9.521  11.206
80375SOL    HW143022   0.963   9.539  11.122
80375SOL    HW243023   1.074   9.587  11.212
80376SOL     OW43024   0.215   1.099  14.823
80376SOL    HW143025   0.156   1.051   0.009
80376SOL    HW243026   0.228   1.041  14.748
80377SOL     OW43027  10.937  13.167   9.266
80377SOL    HW143028  10.853  13.128   9.290
80377SOL    HW243029  10.933  13.175   9.170
80378SOL     OW43030   5.558   3.798   3.986
80378SOL    HW143031   5.515   3.748   4.055
80378SOL    HW243032   5.529   3.888   4.000
80379SOL     OW43033   0.697  11.521  10.569
80379SOL    HW143034   0.632  11.548  10.504
80379SOL    HW243035   0.771  11.581  10.555
80380SOL     OW43036   5.787   2.489  12.465
80380SOL    HW143037   5.789   2.584  12.457
80380SOL    HW243038   5.877   2.461  12.446
80381SOL     OW43039   9.654  14.334   7.390
80381SOL    HW143040   9.703  14.261   7.429
80381SOL    HW243041   9.699  14.412   7.422
80382SOL     OW43042   8.804   4.781   3.757
80382SOL    HW143043   8.878   4.841   3.750
80382SOL    HW243044   8.727   4.836   3.747
80383SOL     OW43045   2.620  13.332   0.004
80383SOL    HW143046   2.598  13.251   0.049
80383SOL    HW243047   2.628  13.306  14.784
80384SOL     OW43048   6.095   5.903   9.500
80384SOL    HW143049   6.008   5.881   9.533
80384SOL    HW243050   6.140   5.941   9.575
80385SOL     OW43051   9.246   9.177  10.498
80385SOL    HW143052   9.200   9.199  10.580
80385SOL    HW243053   9.329   9.138  10.527
80386SOL     OW43054   5.675  12.292  11.965
80386SOL    HW143055   5.721  12.369  11.931
80386SOL    HW243056   5.740  12.249  12.020
80387SOL     OW43057  14.054  10.249   3.018
80387SOL    HW143058  14.025  10.196   2.944
80387SOL    HW243059  13.999  10.221   3.090
80388SOL     OW43060   7.657   7.417  14.445
80388SOL    HW143061   7.625   7.352  14.382
80388SOL    HW243062   7.633   7.501  14.407
80389SOL     OW43063   7.175  12.492   0.074
80389SOL    HW143064   7.214  12.410   0.107
80389SOL    HW243065   7.225  12.561   0.117
80390SOL     OW43066   7.619  12.969   8.480
80390SOL    HW143067   7.625  12.887   8.431
80390SOL    HW243068   7.530  12.970   8.515
80391SOL     OW43069  11.612   5.084   5.370
80391SOL    HW143070  11.663   5.091   5.450
80391SOL    HW243071  11.582   5.174   5.353
80392SOL     OW43072   3.996  13.025   2.746
80392SOL    HW143073   4.083  13.018   2.786
80392SOL    HW243074   4.007  12.985   2.659
80393SOL     OW43075   7.850   3.085  11.094
80393SOL    HW143076   7.887   3.120  11.013
80393SOL    HW243077   7.804   3.006  11.068
80394SOL     OW43078  13.650   4.136  10.667
80394SOL    HW143079  13.639   4.121  10.761
80394SOL    HW243080  13.692   4.057  10.635
80395SOL     OW43081  12.626   1.011   9.023
80395SOL    HW143082  12.586   1.034   9.107
80395SOL    HW243083  12.671   1.091   8.995
80396SOL     OW43084   1.796   6.318  11.012
80396SOL    HW143085   1.724   6.292  10.955
80396SOL    HW243086   1.873   6.273  10.976
80397SOL     OW43087   9.902   0.044   2.133
80397SOL    HW143088   9.889  14.839   2.187
80397SOL    HW243089   9.984   0.083   2.166
80398SOL     OW43090  14.351   6.982  10.807
80398SOL    HW143091  14.293   7.058  10.820
80398SOL    HW243092  14.330   6.951  10.719
80399SOL     OW43093   6.306  10.692   7.629
80399SOL    HW143094   6.373  10.760   7.620
80399SOL    HW243095   6.347  10.625   7.684
80400SOL     OW43096   9.612  13.983   9.928
80400SOL    HW143097   9.672  13.975   9.854
80400SOL    HW243098   9.529  14.011   9.890
80401SOL     OW43099   1.420   4.070  10.904
80401SOL    HW143100   1.366   4.147  10.920
80401SOL    HW243101   1.404   4.013  10.979
80402SOL     OW43102   0.955  11.734  13.449
80402SOL    HW143103   0.934  11.711  13.359
80402SOL    HW243104   1.001  11.818  13.443
80403SOL     OW43105   3.644   4.524  13.551
80403SOL    HW143106   3.626   4.467  13.626
80403SOL    HW243107   3.661   4.609  13.589
80404SOL     OW43108   7.252   1.896   0.078
80404SOL    HW143109   7.211   1.966   0.027
80404SOL    HW243110   7.191   1.879   0.149
80405SOL     OW43111   7.085   6.018  12.931
80405SOL    HW143112   7.081   6.112  12.914
80405SOL    HW243113   7.123   5.981  12.852
80406SOL     OW43114  10.820  12.905  14.065
80406SOL    HW143115  10.793  12.937  13.979
80406SOL    HW243116  10.909  12.938  14.075
80407SOL     OW43117   1.640   7.852   8.278
80407SOL    HW143118   1.647   7.776   8.221
80407SOL    HW243119   1.611   7.817   8.362
80408SOL     OW43120   0.247  10.152   4.814
80408SOL    HW143121   0.320  10.184   4.867
80408SOL    HW243122   0.273  10.171   4.724
80409SOL     OW43123   9.934   4.292   3.420
80409SOL    HW143124   9.975   4.265   3.502
80409SOL    HW243125   9.857   4.236   3.412
80410SOL     OW43126   9.606   5.186  13.844
80410SOL    HW143127   9.550   5.162  13.770
80410SOL    HW243128   9.566   5.266  13.879
80411SOL     OW43129  13.474  12.246  12.158
80411SOL    HW143130  13.471  12.337  12.126
80411SOL    HW243131  13.568  12.229  12.171
80412SOL     OW43132  11.622   1.692   8.131
80412SOL    HW143133  11.546   1.648   8.093
80412SOL    HW243134  11.649   1.634   8.203
80413SOL     OW43135  12.298   5.496  14.729
80413SOL    HW143136  12.261   5.491  14.817
80413SOL    HW243137  12.270   5.581  14.695
80414SOL     OW43138  11.300   5.802   3.239
80414SOL    HW143139  11.220   5.797   3.186
80414SOL    HW243140  11.323   5.711   3.256
80415SOL     OW43141   7.678  14.604  10.181
80415SOL    HW143142   7.772  14.606  10.198
80415SOL    HW243143   7.663  14.679  10.123
80416SOL     OW43144   6.611  14.301   7.461
80416SOL    HW143145   6.619  14.265   7.550
80416SOL    HW243146   6.651  14.388   7.467
80417SOL     OW43147   6.841  12.251   2.002
80417SOL    HW143148   6.897  12.286   1.932
80417SOL    HW243149   6.779  12.321   2.021
80418SOL     OW43150   7.893   6.871  12.525
80418SOL    HW143151   7.846   6.882  12.608
80418SOL    HW243152   7.920   6.960  12.501
80419SOL     OW43153   0.387   6.205   0.911
80419SOL    HW143154   0.297   6.185   0.935
80419SOL    HW243155   0.440   6.162   0.978
80420SOL     OW43156  12.840  12.064   0.937
80420SOL    HW143157  12.890  12.011   1.000
80420SOL    HW243158  12.751  12.030   0.943
80421SOL     OW43159   4.734   3.811  12.978
80421SOL    HW143160   4.640   3.804  12.962
80421SOL    HW243161   4.757   3.727  13.018
80422SOL     OW43162   5.682   0.130  10.735
80422SOL    HW143163   5.661   0.217  10.768
80422SOL    HW243164   5.772   0.139  10.702
80423SOL     OW43165  14.324   2.270   1.003
80423SOL    HW143166  14.351   2.190   1.049
80423SOL    HW243167  14.263   2.313   1.062
80424SOL     OW43168  14.171   6.610  12.604
80424SOL    HW143169  14.127   6.695  12.602
80424SOL    HW243170  14.257   6.625  12.565
80425SOL     OW43171  13.958  13.237   5.000
80425SOL    HW143172  14.001  13.316   5.033
80425SOL    HW243173  13.877  13.269   4.960
80426SOL     OW43174  10.454  13.372   3.101
80426SOL    HW143175  10.468  13.440   3.166
80426SOL    HW243176  10.523  13.308   3.117
80427SOL     OW43177   4.117   4.544   8.110
80427SOL    HW143178   4.163   4.574   8.188
80427SOL    HW243179   4.092   4.454   8.129
80428SOL     OW43180   2.394   7.480   3.948
80428SOL    HW143181   2.331   7.550   3.931
80428SOL    HW243182   2.451   7.479   3.871
80429SOL     OW43183   0.379   8.853   7.994
80429SOL    HW143184   0.382   8.830   7.901
80429SOL    HW243185   0.373   8.769   8.039
80430SOL     OW43186   7.473   1.844   5.595
80430SOL    HW143187   7.393   1.794   5.575
80430SOL    HW243188   7.538   1.810   5.534
80431SOL     OW43189   7.091  14.537   6.271
80431SOL    HW143190   7.046  14.529   6.187
80431SOL    HW243191   7.176  14.495   6.257
80432SOL     OW43192   5.721   9.052  14.060
80432SOL    HW143193   5.792   9.080  14.118
80432SOL    HW243194   5.761   9.050  13.973
80433SOL     OW43195   3.444  14.092   3.870
80433SOL    HW143196   3.530  14.127   3.851
80433SOL    HW243197   3.384  14.144   3.817
80434SOL     OW43198   0.315   8.561  13.808
80434SOL    HW143199   0.349   8.496  13.747
80434SOL    HW243200   0.379   8.632  13.806
80435SOL     OW43201   6.402   0.434  12.882
80435SOL    HW143202   6.328   0.444  12.942
80435SOL    HW243203   6.454   0.514  12.894
80436SOL     OW43204   7.300   7.277  14.580
80436SOL    HW143205   7.324   7.367  14.558
80436SOL    HW243206   7.222   7.285  14.635
80437SOL     OW43207   4.475   3.572   0.425
80437SOL    HW143208   4.551   3.520   0.399
80437SOL    HW243209   4.495   3.600   0.514
80438SOL     OW43210   2.367   3.260   7.086
80438SOL    HW143211   2.310   3.200   7.134
80438SOL    HW243212   2.307   3.320   7.042
80439SOL     OW43213   3.745   4.523  12.169
80439SOL    HW143214   3.778   4.452  12.224
80439SOL    HW243215   3.671   4.559  12.217
80440SOL     OW43216   9.207  12.053  11.372
80440SOL    HW143217   9.115  12.028  11.361
80440SOL    HW243218   9.206  12.148  11.382
80441SOL     OW43219   8.470   1.079  11.434
80441SOL    HW143220   8.390   1.126  11.458
80441SOL    HW243221   8.440   0.994  11.401
80442SOL     OW43222   8.686   5.478  11.054
80442SOL    HW143223   8.669   5.532  11.131
80442SOL    HW243224   8.781   5.481  11.044
80443SOL     OW43225   5.356  14.405   7.969
80443SOL    HW143226   5.304  14.343   8.019
80443SOL    HW243227   5.293  14.450   7.913
80444SOL     OW43228  11.358   9.508   4.374
80444SOL    HW143229  11.331   9.419   4.354
80444SOL    HW243230  11.288   9.563   4.338
80445SOL     OW43231  11.580   1.611  14.516
80445SOL    HW143232  11.651   1.557  14.481
80445SOL    HW243233  11.623   1.666  14.582
80446SOL     OW43234   8.388  13.501  11.417
80446SOL    HW143235   8.366  13.417  11.377
80446SOL    HW243236   8.410  13.480  11.507
80447SOL     OW43237   8.439  12.835   0.477
80447SOL    HW143238   8.496  12.858   0.550
80447SOL    HW243239   8.491  12.773   0.425
80448SOL     OW43240   3.569   9.526  11.915
80448SOL    HW143241   3.564   9.620  11.930
80448SOL    HW243242   3.618   9.492  11.991
80449SOL     OW43243  12.886  11.677   2.195
80449SOL    HW143244  12.796  11.646   2.206
80449SOL    HW243245  12.877  11.773   2.191
80450SOL     OW43246  13.427   1.933   2.749
80450SOL    HW143247  13.422   1.874   2.674
80450SOL    HW243248  13.417   2.021   2.712
80451SOL     OW43249   7.726   8.032  10.506
80451SOL    HW143250   7.647   7.978  10.509
80451SOL    HW243251   7.706   8.100  10.443
80452SOL     OW43252   5.962   6.479   2.120
80452SOL    HW143253   5.997   6.456   2.206
80452SOL    HW243254   5.880   6.430   2.114
80453SOL     OW43255   5.830  14.717   3.503
80453SOL    HW143256   5.737  14.720   3.481
80453SOL    HW243257   5.847  14.801   3.547
80454SOL     OW43258   2.778   6.636  10.097
80454SOL    HW143259   2.691   6.622  10.136
80454SOL    HW243260   2.768   6.715  10.045
80455SOL     OW43261   8.355   2.810  11.057
80455SOL    HW143262   8.418   2.811  10.985
80455SOL    HW243263   8.275   2.846  11.018
80456SOL     OW43264   5.059  12.474  13.930
80456SOL    HW143265   5.003  12.541  13.889
80456SOL    HW243266   5.071  12.505  14.019
80457SOL     OW43267   8.219   0.071   8.505
80457SOL    HW143268   8.173   0.108   8.430
80457SOL    HW243269   8.311   0.069   8.477
80458SOL     OW43270  10.996   9.331  14.579
80458SOL    HW143271  11.058   9.359  14.647
80458SOL    HW243272  10.968   9.412  14.537
80459SOL     OW43273  11.400   1.371  12.885
80459SOL    HW143274  11.367   1.306  12.824
80459SOL    HW243275  11.480   1.332  12.920
80460SOL     OW43276   4.219   2.729   0.081
80460SOL    HW143277   4.297   2.783   0.091
80460SOL    HW243278   4.146   2.789   0.096
80461SOL     OW43279  14.144   7.048   4.972
80461SOL    HW143280  14.193   7.128   4.992
80461SOL    HW243281  14.121   7.011   5.057
80462SOL     OW43282  11.684  10.528  14.166
80462SOL    HW143283  11.717  10.445  14.200
80462SOL    HW243284  11.590  10.515  14.158
80463SOL     OW43285   9.020   6.004   2.531
80463SOL    HW143286   9.063   6.061   2.466
80463SOL    HW243287   8.928   6.027   2.526
80464SOL     OW43288   8.962   2.801   8.091
80464SOL    HW143289   8.963   2.885   8.046
80464SOL    HW243290   9.018   2.745   8.037
80465SOL     OW43291   8.598  11.055   1.101
80465SOL    HW143292   8.534  11.118   1.068
80465SOL    HW243293   8.606  10.990   1.030
80466SOL     OW43294  12.023  11.047  14.702
80466SOL    HW143295  12.015  11.021  14.794
80466SOL    HW243296  12.043  11.141  14.705
80467SOL     OW43297   1.043   8.758   1.364
80467SOL    HW143298   1.061   8.697   1.292
80467SOL    HW243299   1.124   8.809   1.373
80468SOL     OW43300   1.662  12.290   6.554
80468SOL    HW143301   1.746  12.248   6.573
80468SOL    HW243302   1.618  12.293   6.639
80469SOL     OW43303  10.902   0.044  12.644
80469SOL    HW143304  10.927   0.063  12.554
80469SOL    HW243305  10.807   0.032  12.641
80470SOL     OW43306   9.271  11.191  12.549
80470SOL    HW143307   9.282  11.286  12.557
80470SOL    HW243308   9.341  11.164  12.488
80471SOL     OW43309   7.294   2.266   0.673
80471SOL    HW143310   7.384   2.256   0.705
80471SOL    HW243311   7.258   2.177   0.672
80472SOL     OW43312   4.277  13.432   6.046
80472SOL    HW143313   4.339  13.365   6.017
80472SOL    HW243314   4.215  13.439   5.973
80473SOL     OW43315   4.046   7.558  12.099
80473SOL    HW143316   4.016   7.576  12.188
80473SOL    HW243317   3.966   7.558  12.047
80474SOL     OW43318   6.504   4.936   1.750
80474SOL    HW143319   6.472   4.903   1.835
80474SOL    HW243320   6.424   4.945   1.697
80475SOL     OW43321   6.294  11.726  14.497
80475SOL    HW143322   6.360  11.694  14.435
80475SOL    HW243323   6.340  11.735  14.580
80476SOL     OW43324  10.292  12.138  11.462
80476SOL    HW143325  10.366  12.127  11.521
80476SOL    HW243326  10.235  12.200  11.507
80477SOL     OW43327  14.086   9.475   4.549
80477SOL    HW143328  14.138   9.538   4.500
80477SOL    HW243329  14.113   9.390   4.515
80478SOL     OW43330  10.458   7.478  12.807
80478SOL    HW143331  10.509   7.401  12.832
80478SOL    HW243332  10.479   7.544  12.874
80479SOL     OW43333   7.713   0.532  13.292
80479SOL    HW143334   7.678   0.549  13.379
80479SOL    HW243335   7.802   0.500  13.307
80480SOL     OW43336   0.668   2.631   6.957
80480SOL    HW143337   0.644   2.722   6.974
80480SOL    HW243338   0.737   2.637   6.891
80481SOL     OW43339   1.922   6.572   0.079
80481SOL    HW143340   2.017   6.563   0.071
80481SOL    HW243341   1.902   6.540   0.167
80482SOL     OW43342   0.608   1.708  10.961
80482SOL    HW143343   0.568   1.621  10.953
80482SOL    HW243344   0.699   1.690  10.986
80483SOL     OW43345   5.879   9.371  13.613
80483SOL    HW143346   5.848   9.425  13.540
80483SOL    HW243347   5.817   9.299  13.618
80484SOL     OW43348   1.679   0.569  11.012
80484SOL    HW143349   1.606   0.629  10.999
80484SOL    HW243350   1.739   0.588  10.940
80485SOL     OW43351   0.195   6.894   9.558
80485SOL    HW143352   0.231   6.906   9.646
80485SOL    HW243353   0.142   6.972   9.543
80486SOL     OW43354  11.349  12.686  14.205
80486SOL    HW143355  11.296  12.685  14.285
80486SOL    HW243356  11.415  12.754  14.220
80487SOL     OW43357   8.010  10.893   1.151
80487SOL    HW143358   8.083  10.916   1.093
80487SOL    HW243359   7.962  10.974   1.162
80488SOL     OW43360  12.073   2.872  10.879
80488SOL    HW143361  12.093   2.961  10.851
80488SOL    HW243362  12.157   2.836  10.907
80489SOL     OW43363  11.372  12.098   2.048
80489SOL    HW143364  11.362  12.161   2.119
80489SOL    HW243365  11.283  12.088   2.014
80490SOL     OW43366   2.934   1.958   8.345
80490SOL    HW143367   2.989   1.997   8.413
80490SOL    HW243368   2.978   1.876   8.322
80491SOL     OW43369   9.826  13.890   7.022
80491SOL    HW143370   9.833  13.821   6.956
80491SOL    HW243371   9.785  13.963   6.977
80492SOL     OW43372   0.998  10.350   3.017
80492SOL    HW143373   1.022  10.355   3.110
80492SOL    HW243374   0.906  10.379   3.014
80493SOL     OW43375   3.833   2.617   7.305
80493SOL    HW143376   3.786   2.570   7.236
80493SOL    HW243377   3.841   2.706   7.272
80494SOL     OW43378  10.589   7.292   6.858
80494SOL    HW143379  10.538   7.314   6.780
80494SOL    HW243380  10.549   7.212   6.892
80495SOL     OW43381   2.254   5.253  12.339
80495SOL    HW143382   2.169   5.208  12.337
80495SOL    HW243383   2.315   5.188  12.372
80496SOL     OW43384   8.827  11.073   6.450
80496SOL    HW143385   8.752  11.131   6.460
80496SOL    HW243386   8.852  11.081   6.358
80497SOL     OW43387   1.756   7.996   6.152
80497SOL    HW143388   1.695   7.969   6.083
80497SOL    HW243389   1.814   8.059   6.109
80498SOL     OW43390   9.808   5.868   1.599
80498SOL    HW143391   9.818   5.773   1.590
80498SOL    HW243392   9.789   5.899   1.510
80499SOL     OW43393   2.954   2.279   8.489
80499SOL    HW143394   3.039   2.285   8.444
80499SOL    HW243395   2.977   2.273   8.582
80500SOL     OW43396  12.600   6.591   2.145
80500SOL    HW143397  12.650   6.536   2.085
80500SOL    HW243398  12.660   6.610   2.217
80501SOL     OW43399   4.628  12.779   5.791
80501SOL    HW143400   4.579  12.860   5.779
80501SOL    HW243401   4.617  12.758   5.884
80502SOL     OW43402   3.754  10.022   7.771
80502SOL    HW143403   3.808  10.100   7.787
80502SOL    HW243404   3.774   9.998   7.681
80503SOL     OW43405   3.876   3.585   0.940
80503SOL    HW143406   3.871   3.510   1.000
80503SOL    HW243407   3.787   3.620   0.938
80504SOL     OW43408  13.698  11.940  13.270
80504SOL    HW143409  13.734  12.021  13.234
80504SOL    HW243410  13.605  11.958  13.283
80505SOL     OW43411  13.604   1.187   6.349
80505SOL    HW143412  13.653   1.119   6.394
80505SOL    HW243413  13.540   1.140   6.295
80506SOL     OW43414   8.900   1.264   3.120
80506SOL    HW143415   8.917   1.246   3.028
80506SOL    HW243416   8.864   1.183   3.155
80507SOL     OW43417  10.152   6.185   7.596
80507SOL    HW143418  10.156   6.095   7.628
80507SOL    HW243419  10.204   6.185   7.516
80508SOL     OW43420   7.754   4.732   4.931
80508SOL    HW143421   7.689   4.715   5.000
80508SOL    HW243422   7.820   4.787   4.973
80509SOL     OW43423   8.494   2.818   3.959
80509SOL    HW143424   8.533   2.848   3.877
80509SOL    HW243425   8.449   2.895   3.994
80510SOL     OW43426   4.145  13.941  13.936
80510SOL    HW143427   4.214  13.888  13.896
80510SOL    HW243428   4.164  14.031  13.908
80511SOL     OW43429   1.313   1.980   2.729
80511SOL    HW143430   1.403   1.989   2.699
80511SOL    HW243431   1.319   1.975   2.824
80512SOL     OW43432  14.501   9.591   4.693
80512SOL    HW143433  14.515   9.512   4.640
80512SOL    HW243434  14.411   9.584   4.723
80513SOL     OW43435  13.543  12.692   4.727
80513SOL    HW143436  13.521  12.762   4.666
80513SOL    HW243437  13.540  12.733   4.813
80514SOL     OW43438   8.356  11.723   9.929
80514SOL    HW143439   8.350  11.645   9.874
80514SOL    HW243440   8.276  11.721   9.983
80515SOL     OW43441  14.032  10.376  14.314
80515SOL    HW143442  14.046  10.294  14.268
80515SOL    HW243443  14.077  10.442  14.262
80516SOL     OW43444   7.224  10.489  10.234
80516SOL    HW143445   7.150  10.486  10.173
80516SOL    HW243446   7.272  10.408  10.216
80517SOL     OW43447   1.421   6.128   6.015
80517SOL    HW143448   1.513   6.100   6.015
80517SOL    HW243449   1.380   6.076   6.084
80518SOL     OW43450   7.898  14.220   4.888
80518SOL    HW143451   7.989  14.228   4.859
80518SOL    HW243452   7.847  14.249   4.812
80519SOL     OW43453   2.494  13.142   4.223
80519SOL    HW143454   2.406  13.166   4.196
80519SOL    HW243455   2.551  13.173   4.152
80520SOL     OW43456  11.541  10.427  10.653
80520SOL    HW143457  11.511  10.465  10.736
80520SOL    HW243458  11.636  10.435  10.656
80521SOL     OW43459   6.446   4.169   1.577
80521SOL    HW143460   6.354   4.152   1.599
80521SOL    HW243461   6.495   4.112   1.636
80522SOL     OW43462   1.942  11.984   1.870
80522SOL    HW143463   1.944  12.078   1.890
80522SOL    HW243464   1.863  11.952   1.913
80523SOL     OW43465   4.567  12.718  14.410
80523SOL    HW143466   4.495  12.762  14.455
80523SOL    HW243467   4.628  12.696  14.480
80524SOL     OW43468   9.496  11.269   3.466
80524SOL    HW143469   9.529  11.355   3.492
80524SOL    HW243470   9.425  11.289   3.404
80525SOL     OW43471   2.274   6.081   0.267
80525SOL    HW143472   2.304   6.078   0.176
80525SOL    HW243473   2.322   6.154   0.305
80526SOL     OW43474   6.114  10.121   6.221
80526SOL    HW143475   6.149  10.040   6.184
80526SOL    HW243476   6.117  10.107   6.315
80527SOL     OW43477   3.403   6.847   3.718
80527SOL    HW143478   3.310   6.860   3.736
80527SOL    HW243479   3.445   6.852   3.804
80528SOL     OW43480  13.095   0.034  12.422
80528SOL    HW143481  13.174  14.854  12.410
80528SOL    HW243482  13.121   0.104  12.481
80529SOL     OW43483   7.976   0.729   1.675
80529SOL    HW143484   7.916   0.785   1.626
80529SOL    HW243485   7.920   0.671   1.726
80530SOL     OW43486   9.010   1.278   4.803
80530SOL    HW143487   9.031   1.313   4.890
80530SOL    HW243488   9.057   1.195   4.799
80531SOL     OW43489  13.107  10.997  12.261
80531SOL    HW143490  13.147  11.064  12.315
80531SOL    HW243491  13.146  11.009  12.174
80532SOL     OW43492   9.306   8.669   2.611
80532SOL    HW143493   9.267   8.581   2.611
80532SOL    HW243494   9.261   8.715   2.681
80533SOL     OW43495   9.268   7.151   3.792
80533SOL    HW143496   9.208   7.218   3.760
80533SOL    HW243497   9.223   7.113   3.867
80534SOL     OW43498   4.955   7.998  12.214
80534SOL    HW143499   5.018   8.011  12.143
80534SOL    HW243500   5.005   8.015  12.294
80535SOL     OW43501   8.935  12.183  13.082
80535SOL    HW143502   8.934  12.236  13.003
80535SOL    HW243503   9.002  12.116  13.065
80536SOL     OW43504   2.829  12.405   6.263
80536SOL    HW143505   2.821  12.379   6.171
80536SOL    HW243506   2.791  12.493   6.266
80537SOL     OW43507  12.978   6.341  14.533
80537SOL    HW143508  13.007   6.431  14.544
80537SOL    HW243509  12.901   6.347  14.478
80538SOL     OW43510   2.746   3.478  12.938
80538SOL    HW143511   2.815   3.496  12.875
80538SOL    HW243512   2.743   3.555  12.995
80539SOL     OW43513   3.404  14.805  13.622
80539SOL    HW143514   3.359  14.768  13.698
80539SOL    HW243515   3.489  14.834  13.656
80540SOL     OW43516   9.451   0.761   1.607
80540SOL    HW143517   9.359   0.738   1.616
80540SOL    HW243518   9.498   0.686   1.642
80541SOL     OW43519   1.079   1.501  12.479
80541SOL    HW143520   1.172   1.498  12.459
80541SOL    HW243521   1.073   1.556  12.557
80542SOL     OW43522  13.750   3.380   0.000
80542SOL    HW143523  13.684   3.391   0.068
80542SOL    HW243524  13.833   3.398   0.044
80543SOL     OW43525   6.146   1.604   8.753
80543SOL    HW143526   6.096   1.618   8.833
80543SOL    HW243527   6.164   1.510   8.753
80544SOL     OW43528   4.030   6.090   6.257
80544SOL    HW143529   3.987   6.161   6.210
80544SOL    HW243530   4.075   6.134   6.330
80545SOL     OW43531  11.346   0.644   6.758
80545SOL    HW143532  11.378   0.732   6.739
80545SOL    HW243533  11.382   0.623   6.844
80546SOL     OW43534   4.479   4.517  13.875
80546SOL    HW143535   4.384   4.525  13.891
80546SOL    HW243536   4.519   4.577  13.938
80547SOL     OW43537   8.859   2.855  13.606
80547SOL    HW143538   8.936   2.844  13.550
80547SOL    HW243539   8.787   2.817  13.556
80548SOL     OW43540   6.301   6.001   0.065
80548SOL    HW143541   6.244   5.965  14.869
80548SOL    HW243542   6.354   6.067   0.020
80549SOL     OW43543   0.651   5.056  13.354
80549SOL    HW143544   0.741   5.068  13.326
80549SOL    HW243545   0.627   4.969  13.322
80550SOL     OW43546   9.997   1.250  11.941
80550SOL    HW143547  10.021   1.341  11.956
80550SOL    HW243548   9.935   1.252  11.868
80551SOL     OW43549  12.224  11.562   3.456
80551SOL    HW143550  12.226  11.647   3.414
80551SOL    HW243551  12.315  11.545   3.481
80552SOL     OW43552  10.952   4.978   7.719
80552SOL    HW143553  10.916   4.896   7.684
80552SOL    HW243554  10.965   5.033   7.642
80553SOL     OW43555   5.538   9.721   4.225
80553SOL    HW143556   5.479   9.673   4.166
80553SOL    HW243557   5.576   9.789   4.170
80554SOL     OW43558   2.387  10.689   3.801
80554SOL    HW143559   2.431  10.716   3.881
80554SOL    HW243560   2.347  10.605   3.823
80555SOL     OW43561  11.113  10.809   9.429
80555SOL    HW143562  11.173  10.820   9.355
80555SOL    HW243563  11.170  10.809   9.506
80556SOL     OW43564  14.642  11.566  10.960
80556SOL    HW143565  14.706  11.637  10.962
80556SOL    HW243566  14.657  11.518  11.042
80557SOL     OW43567  12.493   5.180   4.822
80557SOL    HW143568  12.466   5.151   4.735
80557SOL    HW243569  12.446   5.262   4.836
80558SOL     OW43570   6.423   3.020  13.297
80558SOL    HW143571   6.463   3.015  13.384
80558SOL    HW243572   6.341   3.066  13.311
80559SOL     OW43573  12.181   6.847   0.732
80559SOL    HW143574  12.256   6.883   0.687
80559SOL    HW243575  12.111   6.847   0.667
80560SOL     OW43576  11.930   9.654  11.474
80560SOL    HW143577  11.989   9.717  11.516
80560SOL    HW243578  11.845   9.698  11.473
80561SOL     OW43579   6.895   6.193   2.859
80561SOL    HW143580   6.920   6.238   2.779
80561SOL    HW243581   6.850   6.260   2.911
80562SOL     OW43582  10.542  10.595  10.775
80562SOL    HW143583  10.607  10.655  10.811
80562SOL    HW243584  10.476  10.587  10.844
80563SOL     OW43585   8.256  12.475   0.360
80563SOL    HW143586   8.166  12.447   0.344
80563SOL    HW243587   8.303  12.448   0.281
80564SOL     OW43588   4.249   2.202  13.304
80564SOL    HW143589   4.309   2.141  13.348
80564SOL    HW243590   4.208   2.149  13.236
80565SOL     OW43591   8.381   3.028  14.648
80565SOL    HW143592   8.333   2.945  14.644
80565SOL    HW243593   8.356   3.073  14.567
80566SOL     OW43594  14.019   2.731  13.087
80566SOL    HW143595  14.037   2.735  12.994
80566SOL    HW243596  14.001   2.638  13.104
80567SOL     OW43597  10.041   5.773   3.855
80567SOL    HW143598   9.992   5.791   3.936
80567SOL    HW243599  10.007   5.836   3.792
80568SOL     OW43600   3.494   9.202  11.568
80568SOL    HW143601   3.421   9.205  11.505
80568SOL    HW243602   3.466   9.257  11.641
80569SOL     OW43603   5.506  13.729   5.120
80569SOL    HW143604   5.582  13.676   5.098
80569SOL    HW243605   5.434  13.667   5.124
80570SOL     OW43606   9.930   3.704  11.362
80570SOL    HW143607   9.846   3.681  11.321
80570SOL    HW243608   9.987   3.630  11.343
80571SOL     OW43609   3.264  13.207  10.402
80571SOL    HW143610   3.289  13.116  10.416
80571SOL    HW243611   3.296  13.228  10.315
80572SOL     OW43612   5.583   9.890   6.786
80572SOL    HW143613   5.607   9.893   6.693
80572SOL    HW243614   5.667   9.884   6.832
80573SOL     OW43615  12.893   8.848   6.713
80573SOL    HW143616  12.848   8.872   6.794
80573SOL    HW243617  12.920   8.757   6.726
80574SOL     OW43618  10.010   8.879  12.564
80574SOL    HW143619  10.029   8.951  12.624
80574SOL    HW243620   9.980   8.921  12.484
80575SOL     OW43621   2.343   0.509   6.609
80575SOL    HW143622   2.378   0.449   6.675
80575SOL    HW243623   2.251   0.521   6.633
80576SOL     OW43624   3.952   3.480  13.888
80576SOL    HW143625   3.979   3.431  13.966
80576SOL    HW243626   3.857   3.489  13.897
80577SOL     OW43627   7.398   8.605   9.118
80577SOL    HW143628   7.397   8.513   9.145
80577SOL    HW243629   7.490   8.626   9.108
80578SOL     OW43630   5.702  13.996  11.818
80578SOL    HW143631   5.722  13.909  11.852
80578SOL    HW243632   5.619  14.019  11.859
80579SOL     OW43633  13.736  13.684  10.379
80579SOL    HW143634  13.813  13.720  10.424
80579SOL    HW243635  13.761  13.682  10.287
80580SOL     OW43636   0.992   4.264   8.037
80580SOL    HW143637   1.036   4.209   8.102
80580SOL    HW243638   0.917   4.212   8.007
80581SOL     OW43639   1.010  13.517   4.259
80581SOL    HW143640   0.963  13.443   4.222
80581SOL    HW243641   1.091  13.524   4.208
80582SOL     OW43642   4.030   0.886  11.709
80582SOL    HW143643   3.964   0.916  11.772
80582SOL    HW243644   4.017   0.941  11.632
80583SOL     OW43645  11.724   0.769  14.469
80583SOL    HW143646  11.693   0.705  14.405
80583SOL    HW243647  11.650   0.830  14.479
80584SOL     OW43648   8.448   8.494   1.075
80584SOL    HW143649   8.380   8.439   1.112
80584SOL    HW243650   8.506   8.433   1.029
80585SOL     OW43651  10.121  11.999   7.349
80585SOL    HW143652  10.198  12.006   7.292
80585SOL    HW243653  10.053  11.964   7.293
80586SOL     OW43654   8.875   2.995   0.353
80586SOL    HW143655   8.828   2.924   0.310
80586SOL    HW243656   8.924   2.952   0.423
80587SOL     OW43657   9.004   6.886   4.762
80587SOL    HW143658   8.949   6.926   4.694
80587SOL    HW243659   9.044   6.960   4.807
80588SOL     OW43660   0.498  12.788   1.156
80588SOL    HW143661   0.492  12.836   1.239
80588SOL    HW243662   0.580  12.817   1.117
80589SOL     OW43663   0.026   5.574   7.682
80589SOL    HW143664  14.868   5.575   7.591
80589SOL    HW243665   0.113   5.615   7.679
80590SOL     OW43666   7.015  10.195   6.403
80590SOL    HW143667   7.105  10.227   6.394
80590SOL    HW243668   7.007  10.128   6.336
80591SOL     OW43669  12.320   5.924   2.760
80591SOL    HW143670  12.344   5.922   2.667
80591SOL    HW243671  12.224   5.922   2.759
80592SOL     OW43672   2.720   4.812   6.144
80592SOL    HW143673   2.741   4.901   6.113
80592SOL    HW243674   2.684   4.825   6.232
80593SOL     OW43675  12.988   6.119  14.361
80593SOL    HW143676  12.911   6.112  14.305
80593SOL    HW243677  12.965   6.185  14.426
80594SOL     OW43678   3.508   4.372   0.169
80594SOL    HW143679   3.597   4.406   0.179
80594SOL    HW243680   3.511   4.323   0.087
80595SOL     OW43681   9.821   5.878   5.184
80595SOL    HW143682   9.801   5.963   5.224
80595SOL    HW243683   9.809   5.815   5.254
80596SOL     OW43684   4.200   5.450  13.892
80596SOL    HW143685   4.138   5.378  13.881
80596SOL    HW243686   4.255   5.423  13.965
80597SOL     OW43687   1.192  12.842   2.016
80597SOL    HW143688   1.152  12.758   2.040
80597SOL    HW243689   1.204  12.887   2.100
80598SOL     OW43690   4.566  10.709  14.557
80598SOL    HW143691   4.626  10.653  14.607
80598SOL    HW243692   4.593  10.798  14.579
80599SOL     OW43693   4.636  11.862   4.165
80599SOL    HW143694   4.620  11.956   4.162
80599SOL    HW243695   4.719  11.853   4.212
80600SOL     OW43696   6.628   5.849   1.546
80600SOL    HW143697   6.634   5.754   1.551
80600SOL    HW243698   6.705   5.875   1.496
80601SOL     OW43699   6.769   4.021  13.012
80601SOL    HW143700   6.702   4.056  12.953
80601SOL    HW243701   6.727   3.946  13.054
80602SOL     OW43702   8.931   2.254   5.231
80602SOL    HW143703   9.003   2.303   5.191
80602SOL    HW243704   8.860   2.260   5.166
80603SOL     OW43705   6.754   4.424   1.965
80603SOL    HW143706   6.694   4.350   1.968
80603SOL    HW243707   6.707   4.493   1.918
80604SOL     OW43708  13.127   8.226   5.353
80604SOL    HW143709  13.072   8.159   5.314
80604SOL    HW243710  13.194   8.243   5.287
80605SOL     OW43711  11.950  14.520  10.151
80605SOL    HW143712  11.923  14.561  10.234
80605SOL    HW243713  11.892  14.558  10.085
80606SOL     OW43714  13.636   0.092   4.156
80606SOL    HW143715  13.599   0.175   4.125
80606SOL    HW243716  13.680   0.056   4.079
80607SOL     OW43717   2.289  11.604   0.195
80607SOL    HW143718   2.218  11.669   0.195
80607SOL    HW243719   2.279  11.558   0.112
80608SOL     OW43720   5.196  10.529   5.776
80608SOL    HW143721   5.197  10.449   5.828
80608SOL    HW243722   5.112  10.570   5.796
80609SOL     OW43723  13.445   7.976   6.531
80609SOL    HW143724  13.373   8.024   6.571
80609SOL    HW243725  13.460   7.902   6.589
80610SOL     OW43726   1.532   9.332   9.047
80610SOL    HW143727   1.469   9.354   9.116
80610SOL    HW243728   1.488   9.265   8.995
80611SOL     OW43729  12.248   7.688   6.131
80611SOL    HW143730  12.279   7.707   6.219
80611SOL    HW243731  12.284   7.758   6.077
80612SOL     OW43732   0.382  14.167   0.497
80612SOL    HW143733   0.337  14.186   0.580
80612SOL    HW243734   0.345  14.083   0.468
80613SOL     OW43735  11.604   9.954   3.730
80613SOL    HW143736  11.631   9.864   3.714
80613SOL    HW243737  11.522   9.964   3.681
80614SOL     OW43738   5.941  12.486   3.265
80614SOL    HW143739   5.927  12.558   3.203
80614SOL    HW243740   5.900  12.516   3.346
80615SOL     OW43741  10.495   4.620   0.741
80615SOL    HW143742  10.441   4.571   0.802
80615SOL    HW243743  10.565   4.560   0.717
80616SOL     OW43744  14.461  12.176   2.826
80616SOL    HW143745  14.380  12.127   2.817
80616SOL    HW243746  14.445  12.258   2.780
80617SOL     OW43747   7.759  14.211   8.841
80617SOL    HW143748   7.744  14.116   8.841
80617SOL    HW243749   7.813  14.227   8.764
80618SOL     OW43750   8.968  11.248  13.112
80618SOL    HW143751   8.913  11.204  13.177
80618SOL    HW243752   8.951  11.341  13.126
80619SOL     OW43753   0.123   0.950  13.222
80619SOL    HW143754   0.062   1.019  13.245
80619SOL    HW243755   0.070   0.871  13.218
80620SOL     OW43756   0.075  11.361   5.989
80620SOL    HW143757   0.090  11.332   5.899
80620SOL    HW243758  14.860  11.329   6.011
80621SOL     OW43759   8.744   3.527   4.456
80621SOL    HW143760   8.696   3.529   4.373
80621SOL    HW243761   8.691   3.581   4.515
80622SOL     OW43762  12.577   1.943   4.883
80622SOL    HW143763  12.513   1.976   4.946
80622SOL    HW243764  12.635   1.887   4.935
80623SOL     OW43765   9.238   7.846  11.021
80623SOL    HW143766   9.306   7.876  10.961
80623SOL    HW243767   9.159   7.842  10.968
80624SOL     OW43768  11.955  10.758   4.487
80624SOL    HW143769  12.000  10.836   4.456
80624SOL    HW243770  11.890  10.790   4.549
80625SOL     OW43771   0.139   2.042  13.739
80625SOL    HW143772   0.085   2.121  13.736
80625SOL    HW243773   0.158   2.030  13.832
80626SOL     OW43774   3.408  10.620  12.925
80626SOL    HW143775   3.490  10.655  12.888
80626SOL    HW243776   3.421  10.625  13.020
80627SOL     OW43777   6.062   8.859   4.440
80627SOL    HW143778   6.073   8.764   4.443
80627SOL    HW243779   6.121   8.888   4.371
80628SOL     OW43780  12.356   3.641   5.097
80628SOL    HW143781  12.347   3.557   5.051
80628SOL    HW243782  12.283   3.641   5.159
80629SOL     OW43783   3.815   8.888   9.499
80629SOL    HW143784   3.771   8.803   9.500
80629SOL    HW243785   3.894   8.875   9.551
80630SOL     OW43786   7.644  14.479  11.766
80630SOL    HW143787   7.650  14.443  11.854
80630SOL    HW243788   7.716  14.438  11.718
80631SOL     OW43789  13.796  12.127   6.769
80631SOL    HW143790  13.752  12.142   6.852
80631SOL    HW243791  13.876  12.179   6.775
80632SOL     OW43792  14.060   2.674   4.221
80632SOL    HW143793  14.027   2.594   4.178
80632SOL    HW243794  14.155   2.664   4.221
80633SOL     OW43795   7.403   9.594   8.564
80633SOL    HW143796   7.377   9.506   8.591
80633SOL    HW243797   7.494   9.602   8.593
80634SOL     OW43798   3.600   0.811  11.324
80634SOL    HW143799   3.567   0.722  11.308
80634SOL    HW243800   3.527   0.856  11.368
80635SOL     OW43801  12.052   4.937   2.141
80635SOL    HW143802  12.018   4.936   2.230
80635SOL    HW243803  11.978   4.912   2.086
80636SOL     OW43804  11.168   3.450   6.069
80636SOL    HW143805  11.229   3.423   6.000
80636SOL    HW243806  11.183   3.544   6.078
80637SOL     OW43807   8.175  13.126  13.474
80637SOL    HW143808   8.100  13.126  13.534
80637SOL    HW243809   8.182  13.217  13.446
80638SOL     OW43810  10.970   4.712  14.475
80638SOL    HW143811  10.971   4.646  14.406
80638SOL    HW243812  10.884   4.702  14.517
80639SOL     OW43813   3.820   7.361  11.692
80639SOL    HW143814   3.884   7.354  11.621
80639SOL    HW243815   3.735   7.367  11.648
80640SOL     OW43816  12.551   2.264   5.859
80640SOL    HW143817  12.608   2.231   5.929
80640SOL    HW243818  12.603   2.333   5.817
80641SOL     OW43819  11.407  11.110  12.332
80641SOL    HW143820  11.462  11.149  12.264
80641SOL    HW243821  11.434  11.153  12.413
80642SOL     OW43822  10.412  10.771  11.483
80642SOL    HW143823  10.503  10.762  11.452
80642SOL    HW243824  10.390  10.863  11.467
80643SOL     OW43825  13.534  14.229  13.629
80643SOL    HW143826  13.623  14.264  13.623
80643SOL    HW243827  13.492  14.257  13.547
80644SOL     OW43828   7.298   9.126   2.755
80644SOL    HW143829   7.366   9.186   2.786
80644SOL    HW243830   7.276   9.157   2.667
80645SOL     OW43831   5.450  11.577  13.005
80645SOL    HW143832   5.409  11.578  13.092
80645SOL    HW243833   5.542  11.557  13.023
80646SOL     OW43834  13.628  13.300   9.730
80646SOL    HW143835  13.542  13.274   9.698
80646SOL    HW243836  13.689  13.240   9.686
80647SOL     OW43837   2.585  11.098  10.282
80647SOL    HW143838   2.513  11.044  10.248
80647SOL    HW243839   2.591  11.073  10.374
80648SOL     OW43840  13.751  11.752   3.599
80648SOL    HW143841  13.749  11.814   3.526
80648SOL    HW243842  13.762  11.666   3.557
80649SOL     OW43843  13.358   3.956   8.417
80649SOL    HW143844  13.293   3.928   8.353
80649SOL    HW243845  13.355   4.051   8.414
80650SOL     OW43846   0.946  11.823   5.508
80650SOL    HW143847   0.875  11.780   5.459
80650SOL    HW243848   0.970  11.898   5.454
80651SOL     OW43849   5.077  10.843  11.625
80651SOL    HW143850   5.132  10.837  11.547
80651SOL    HW243851   5.139  10.853  11.698
80652SOL     OW43852   2.328  12.353   6.302
80652SOL    HW143853   2.376  12.356   6.219
80652SOL    HW243854   2.241  12.385   6.281
80653SOL     OW43855  14.645   1.071   1.912
80653SOL    HW143856  14.563   1.093   1.867
80653SOL    HW243857  14.701   1.035   1.844
80654SOL     OW43858   1.053   0.553  10.158
80654SOL    HW143859   1.023   0.469  10.124
80654SOL    HW243860   1.132   0.573  10.106
80655SOL     OW43861  10.258  10.680   9.946
80655SOL    HW143862  10.284  10.616  10.012
80655SOL    HW243863  10.283  10.641   9.862
80656SOL     OW43864  12.284   5.510  11.329
80656SOL    HW143865  12.237   5.508  11.413
80656SOL    HW243866  12.362   5.457  11.344
80657SOL     OW43867   8.837  12.889   4.087
80657SOL    HW143868   8.818  12.938   4.007
80657SOL    HW243869   8.911  12.833   4.064
80658SOL     OW43870   0.016   6.613   8.345
80658SOL    HW143871   0.077   6.583   8.279
80658SOL    HW243872  14.862   6.534   8.392
80659SOL     OW43873   6.509   8.613  14.737
80659SOL    HW143874   6.466   8.552  14.796
80659SOL    HW243875   6.481   8.587  14.649
80660SOL     OW43876   9.725  12.963   9.427
80660SOL    HW143877   9.757  12.930   9.343
80660SOL    HW243878   9.801  13.006   9.466
80661SOL     OW43879  14.486   9.061   5.556
80661SOL    HW143880  14.576   9.029   5.565
80661SOL    HW243881  14.495   9.151   5.525
80662SOL     OW43882  10.001   2.843   0.799
80662SOL    HW143883   9.962   2.818   0.715
80662SOL    HW243884   9.945   2.913   0.832
80663SOL     OW43885  14.687  14.623  10.605
80663SOL    HW143886  14.671  14.621  10.699
80663SOL    HW243887  14.775  14.588  10.595
80664SOL     OW43888  10.258   4.507   7.616
80664SOL    HW143889  10.255   4.415   7.589
80664SOL    HW243890  10.338   4.541   7.578
80665SOL     OW43891  13.142   1.398  12.794
80665SOL    HW143892  13.218   1.449  12.822
80665SOL    HW243893  13.099   1.373  12.875
80666SOL     OW43894   6.928   6.470   4.282
80666SOL    HW143895   6.970   6.385   4.295
80666SOL    HW243896   6.992   6.533   4.315
80667SOL     OW43897  11.617  11.745  10.558
80667SOL    HW143898  11.635  11.801  10.482
80667SOL    HW243899  11.704  11.729  10.596
80668SOL     OW43900   2.830  12.846  11.131
80668SOL    HW143901   2.768  12.919  11.137
80668SOL    HW243902   2.916  12.888  11.133
80669SOL     OW43903  11.521   4.244  12.315
80669SOL    HW143904  11.459   4.223  12.386
80669SOL    HW243905  11.534   4.161  12.269
80670SOL     OW43906   2.983   6.546  11.004
80670SOL    HW143907   3.019   6.634  11.012
80670SOL    HW243908   3.011   6.501  11.084
80671SOL     OW43909  10.248  11.751  10.411
80671SOL    HW143910  10.227  11.753  10.504
80671SOL    HW243911  10.164  11.737  10.367
80672SOL     OW43912   1.714  10.972   8.261
80672SOL    HW143913   1.689  11.038   8.326
80672SOL    HW243914   1.641  10.971   8.199
80673SOL     OW43915   4.438   9.250   3.018
80673SOL    HW143916   4.410   9.230   2.929
80673SOL    HW243917   4.533   9.236   3.018
80674SOL     OW43918  12.263  11.904   9.066
80674SOL    HW143919  12.297  11.987   9.097
80674SOL    HW243920  12.266  11.910   8.970
80675SOL     OW43921   3.323   2.470   8.708
80675SOL    HW143922   3.397   2.415   8.683
80675SOL    HW243923   3.318   2.536   8.639
80676SOL     OW43924   4.394  12.236   8.532
80676SOL    HW143925   4.319  12.190   8.570
80676SOL    HW243926   4.431  12.287   8.604
80677SOL     OW43927   7.542   6.826  13.255
80677SOL    HW143928   7.609   6.858  13.195
80677SOL    HW243929   7.461   6.828  13.204
80678SOL     OW43930   4.885  14.017   5.068
80678SOL    HW143931   4.944  13.942   5.062
80678SOL    HW243932   4.797  13.979   5.064
80679SOL     OW43933  11.676   6.849  13.046
80679SOL    HW143934  11.727   6.852  12.965
80679SOL    HW243935  11.657   6.756  13.059
80680SOL     OW43936   7.843  13.874   3.900
80680SOL    HW143937   7.768  13.896   3.956
80680SOL    HW243938   7.875  13.791   3.936
80681SOL     OW43939   0.516   8.300  10.564
80681SOL    HW143940   0.594   8.260  10.524
80681SOL    HW243941   0.486   8.235  10.627
80682SOL     OW43942  14.693   4.318   6.679
80682SOL    HW143943  14.738   4.377   6.618
80682SOL    HW243944  14.669   4.375   6.753
80683SOL     OW43945   7.914  14.468   4.393
80683SOL    HW143946   7.974  14.471   4.467
80683SOL    HW243947   7.938  14.543   4.339
80684SOL     OW43948  14.755  12.516  10.767
80684SOL    HW143949  14.708  12.482  10.843
80684SOL    HW243950  14.688  12.562  10.716
80685SOL     OW43951   9.894   8.374  12.351
80685SOL    HW143952   9.926   8.302  12.405
80685SOL    HW243953   9.800   8.379  12.371
80686SOL     OW43954   8.109   7.295  14.665
80686SOL    HW143955   8.125   7.214  14.617
80686SOL    HW243956   8.158   7.362  14.616
80687SOL     OW43957   9.515   4.378   1.797
80687SOL    HW143958   9.566   4.325   1.858
80687SOL    HW243959   9.547   4.352   1.711
80688SOL     OW43960   9.037  13.970   9.484
80688SOL    HW143961   8.978  13.914   9.434
80688SOL    HW243962   9.070  14.034   9.419
80689SOL     OW43963  13.495   6.075   8.935
80689SOL    HW143964  13.570   6.030   8.975
80689SOL    HW243965  13.514   6.073   8.841
80690SOL     OW43966   9.907   4.802   0.672
80690SOL    HW143967   9.982   4.801   0.612
80690SOL    HW243968   9.930   4.869   0.737
80691SOL     OW43969   4.900   2.035   0.790
80691SOL    HW143970   4.911   1.969   0.859
80691SOL    HW243971   4.984   2.080   0.786
80692SOL     OW43972  11.244   7.436   8.328
80692SOL    HW143973  11.280   7.386   8.401
80692SOL    HW243974  11.316   7.494   8.301
80693SOL     OW43975   4.947  12.322   8.061
80693SOL    HW143976   4.944  12.339   7.966
80693SOL    HW243977   5.038  12.301   8.078
80694SOL     OW43978  13.119  12.645  12.712
80694SOL    HW143979  13.188  12.674  12.770
80694SOL    HW243980  13.049  12.617  12.771
80695SOL     OW43981  10.745   6.923   9.523
80695SOL    HW143982  10.718   6.888   9.608
80695SOL    HW243983  10.662   6.942   9.478
80696SOL     OW43984   6.376   8.248   1.007
80696SOL    HW143985   6.411   8.256   1.096
80696SOL    HW243986   6.402   8.329   0.963
80697SOL     OW43987  10.241   2.278   0.685
80697SOL    HW143988  10.246   2.247   0.776
80697SOL    HW243989  10.151   2.256   0.658
80698SOL     OW43990  12.670   2.422  12.639
80698SOL    HW143991  12.587   2.413  12.594
80698SOL    HW243992  12.703   2.508  12.611
80699SOL     OW43993  14.148  13.559  12.376
80699SOL    HW143994  14.205  13.482  12.369
80699SOL    HW243995  14.101  13.562  12.293
80700SOL     OW43996   3.466   8.532   0.855
80700SOL    HW143997   3.420   8.615   0.862
80700SOL    HW243998   3.422   8.486   0.784
80701SOL     OW43999   7.551   0.642  13.113
80701SOL    HW144000   7.626   0.608  13.162
80701SOL    HW244001   7.475   0.611  13.161
80702SOL     OW44002   6.799  13.053   8.419
80702SOL    HW144003   6.894  13.064   8.424
80702SOL    HW244004   6.786  12.983   8.354
80703SOL     OW44005   9.298   5.461   4.381
80703SOL    HW144006   9.234   5.391   4.399
80703SOL    HW244007   9.281   5.526   4.449
80704SOL     OW44008  10.303   5.372  10.062
80704SOL    HW144009  10.243   5.305  10.095
80704SOL    HW244010  10.250   5.424  10.001
80705SOL     OW44011  12.911  11.956   9.002
80705SOL    HW144012  12.828  11.954   9.048
80705SOL    HW244013  12.977  11.939   9.069
80706SOL     OW44014   6.102   4.102  14.499
80706SOL    HW144015   6.128   4.010  14.493
80706SOL    HW244016   6.156   4.137  14.570
80707SOL     OW44017   4.997   5.182   8.576
80707SOL    HW144018   5.033   5.226   8.652
80707SOL    HW244019   4.903   5.175   8.594
80708SOL     OW44020   9.836  13.217  13.716
80708SOL    HW144021   9.771  13.149  13.729
80708SOL    HW244022   9.914  13.171  13.684
80709SOL     OW44023  11.727  14.857   2.552
80709SOL    HW144024  11.814  14.824   2.528
80709SOL    HW244025  11.719  14.838   2.645
80710SOL     OW44026  10.519   1.461  13.156
80710SOL    HW144027  10.492   1.412  13.233
80710SOL    HW244028  10.496   1.405  13.082
80711SOL     OW44029   1.835   9.470   1.963
80711SOL    HW144030   1.865   9.379   1.965
80711SOL    HW244031   1.740   9.463   1.969
80712SOL     OW44032  14.396   7.668   7.164
80712SOL    HW144033  14.482   7.708   7.175
80712SOL    HW244034  14.403   7.582   7.206
80713SOL     OW44035   4.864  14.416  11.028
80713SOL    HW144036   4.874  14.321  11.019
80713SOL    HW244037   4.879  14.450  10.940
80714SOL     OW44038   7.510  13.629   5.520
80714SOL    HW144039   7.602  13.630   5.494
80714SOL    HW244040   7.511  13.618   5.615
80715SOL     OW44041  11.654   7.875   1.532
80715SOL    HW144042  11.690   7.897   1.446
80715SOL    HW244043  11.636   7.781   1.527
80716SOL     OW44044   2.277  12.052   2.187
80716SOL    HW144045   2.358  12.006   2.206
80716SOL    HW244046   2.291  12.140   2.223
80717SOL     OW44047  14.001   7.080   7.562
80717SOL    HW144048  14.047   6.996   7.556
80717SOL    HW244049  13.911   7.056   7.585
80718SOL     OW44050   6.484  10.405   0.152
80718SOL    HW144051   6.535  10.346   0.096
80718SOL    HW244052   6.393  10.385   0.131
80719SOL     OW44053  13.124  13.226   1.340
80719SOL    HW144054  13.031  13.236   1.317
80719SOL    HW244055  13.167  13.205   1.258
80720SOL     OW44056  14.357   7.100   3.608
80720SOL    HW144057  14.294   7.159   3.648
80720SOL    HW244058  14.426   7.157   3.574
80721SOL     OW44059   4.194  11.675   8.039
80721SOL    HW144060   4.252  11.737   8.083
80721SOL    HW244061   4.130  11.651   8.106
80722SOL     OW44062   2.194   2.426   1.866
80722SOL    HW144063   2.158   2.396   1.783
80722SOL    HW244064   2.208   2.520   1.854
80723SOL     OW44065   4.544   4.933   9.000
80723SOL    HW144066   4.571   4.933   9.091
80723SOL    HW244067   4.460   4.886   9.000
80724SOL     OW44068   5.503   0.871  10.131
80724SOL    HW144069   5.461   0.789  10.105
80724SOL    HW244070   5.440   0.939  10.110
80725SOL     OW44071   2.077  12.296   0.737
80725SOL    HW144072   2.052  12.204   0.731
80725SOL    HW244073   2.169  12.298   0.710
80726SOL     OW44074   8.528   7.101  13.865
80726SOL    HW144075   8.570   7.105  13.951
80726SOL    HW244076   8.601   7.094  13.803
80727SOL     OW44077  12.761  13.969   2.784
80727SOL    HW144078  12.725  14.048   2.745
80727SOL    HW244079  12.856  13.978   2.772
80728SOL     OW44080   0.401  14.693  10.374
80728SOL    HW144081   0.348  14.763  10.336
80728SOL    HW244082   0.355  14.669  10.455
80729SOL     OW44083   5.401   6.860   3.193
80729SOL    HW144084   5.462   6.933   3.198
80729SOL    HW244085   5.365   6.853   3.282
80730SOL     OW44086   1.622   1.602   6.484
80730SOL    HW144087   1.670   1.659   6.424
80730SOL    HW244088   1.610   1.520   6.436
80731SOL     OW44089  14.588   8.662   9.200
80731SOL    HW144090  14.671   8.709   9.208
80731SOL    HW244091  14.538   8.713   9.137
80732SOL     OW44092   0.103   6.611   6.379
80732SOL    HW144093   0.096   6.705   6.392
80732SOL    HW244094   0.188   6.587   6.417
80733SOL     OW44095   9.639   3.964  13.127
80733SOL    HW144096   9.724   3.969  13.084
80733SOL    HW244097   9.596   3.889  13.086
80734SOL     OW44098  13.911   5.721   5.084
80734SOL    HW144099  13.820   5.740   5.108
80734SOL    HW244100  13.916   5.742   4.991
80735SOL     OW44101   2.967   5.409   9.072
80735SOL    HW144102   2.973   5.461   9.152
80735SOL    HW244103   3.057   5.395   9.045
80736SOL     OW44104  14.072   8.320   0.804
80736SOL    HW144105  14.145   8.279   0.850
80736SOL    HW244106  14.113   8.381   0.743
80737SOL     OW44107   1.075   7.910  11.654
80737SOL    HW144108   1.096   7.849  11.725
80737SOL    HW244109   0.981   7.899  11.641
80738SOL     OW44110   9.772  13.414  10.283
80738SOL    HW144111   9.698  13.372  10.239
80738SOL    HW244112   9.849  13.388  10.231
80739SOL     OW44113   8.886   7.999  12.904
80739SOL    HW144114   8.979   8.016  12.889
80739SOL    HW244115   8.841   8.052  12.838
80740SOL     OW44116  14.393  10.923   0.270
80740SOL    HW144117  14.408  10.933   0.176
80740SOL    HW244118  14.307  10.961   0.286
80741SOL     OW44119   8.443   6.782  13.036
80741SOL    HW144120   8.443   6.714  13.103
80741SOL    HW244121   8.468   6.862  13.084
80742SOL     OW44122   2.740   2.446  12.924
80742SOL    HW144123   2.736   2.536  12.956
80742SOL    HW244124   2.772   2.453  12.834
80743SOL     OW44125   8.676  11.638  14.038
80743SOL    HW144126   8.723  11.686  14.106
80743SOL    HW244127   8.619  11.578  14.086
80744SOL     OW44128   4.049  12.103   0.176
80744SOL    HW144129   4.094  12.032   0.221
80744SOL    HW244130   4.076  12.182   0.224
80745SOL     OW44131  11.464  11.789   4.922
80745SOL    HW144132  11.472  11.882   4.944
80745SOL    HW244133  11.377  11.764   4.955
80746SOL     OW44134   4.658   1.762  14.832
80746SOL    HW144135   4.574   1.718  14.820
80746SOL    HW244136   4.637   1.855  14.831
80747SOL     OW44137   1.086   8.167   5.552
80747SOL    HW144138   1.067   8.211   5.469
80747SOL    HW244139   1.066   8.075   5.535
80748SOL     OW44140  14.839   6.601  13.273
80748SOL    HW144141  14.788   6.642  13.203
80748SOL    HW244142  14.781   6.534  13.309
80749SOL     OW44143   3.761   9.398  11.753
80749SOL    HW144144   3.695   9.441  11.807
80749SOL    HW244145   3.825   9.466  11.735
80750SOL     OW44146  12.072  11.987  13.555
80750SOL    HW144147  12.102  11.899  13.535
80750SOL    HW244148  12.068  12.031  13.470
80751SOL     OW44149   1.279   7.573  13.171
80751SOL    HW144150   1.367   7.535  13.169
80751SOL    HW244151   1.286   7.652  13.117
80752SOL     OW44152   9.491   2.936  12.146
80752SOL    HW144153   9.470   2.980  12.064
80752SOL    HW244154   9.583   2.956  12.162
80753SOL     OW44155   4.486   8.379   8.094
80753SOL    HW144156   4.502   8.473   8.103
80753SOL    HW244157   4.568   8.343   8.060
80754SOL     OW44158   5.139   0.200   8.638
80754SOL    HW144159   5.129   0.113   8.676
80754SOL    HW244160   5.207   0.189   8.571
80755SOL     OW44161  10.224  13.562   7.841
80755SOL    HW144162  10.199  13.619   7.768
80755SOL    HW244163  10.291  13.504   7.805
80756SOL     OW44164  13.703   6.605  14.716
80756SOL    HW144165  13.699   6.700  14.715
80756SOL    HW244166  13.740   6.583  14.801
80757SOL     OW44167  12.878   6.572   0.229
80757SOL    HW144168  12.915   6.486   0.209
80757SOL    HW244169  12.926   6.601   0.307
80758SOL     OW44170  14.220   9.621   4.766
80758SOL    HW144171  14.189   9.538   4.728
80758SOL    HW244172  14.221   9.682   4.692
80759SOL     OW44173  12.754   1.604   7.259
80759SOL    HW144174  12.766   1.697   7.238
80759SOL    HW244175  12.791   1.557   7.185
80760SOL     OW44176  11.048  12.924  11.216
80760SOL    HW144177  11.063  12.915  11.122
80760SOL    HW244178  11.085  12.844  11.254
80761SOL     OW44179  13.636  14.509   7.507
80761SOL    HW144180  13.575  14.499   7.581
80761SOL    HW244181  13.719  14.473   7.540
80762SOL     OW44182   1.544   7.659  11.420
80762SOL    HW144183   1.449   7.670  11.423
80762SOL    HW244184   1.568   7.631  11.508
80763SOL     OW44185   2.273   1.662  10.938
80763SOL    HW144186   2.345   1.707  10.894
80763SOL    HW244187   2.274   1.697  11.027
80764SOL     OW44188  13.621   8.948  14.324
80764SOL    HW144189  13.631   9.002  14.403
80764SOL    HW244190  13.527   8.945  14.309
80765SOL     OW44191   2.110   1.072   8.809
80765SOL    HW144192   2.034   1.042   8.759
80765SOL    HW244193   2.161   1.125   8.747
80766SOL     OW44194   9.856   2.465   0.358
80766SOL    HW144195   9.788   2.405   0.327
80766SOL    HW244196   9.812   2.550   0.363
80767SOL     OW44197   2.369   9.915  10.729
80767SOL    HW144198   2.411   9.839  10.769
80767SOL    HW244199   2.356   9.976  10.803
80768SOL     OW44200   8.027   8.632   6.063
80768SOL    HW144201   7.999   8.589   5.982
80768SOL    HW244202   8.095   8.576   6.099
80769SOL     OW44203   8.255   1.072  14.182
80769SOL    HW144204   8.264   1.150  14.235
80769SOL    HW244205   8.203   1.100  14.106
80770SOL     OW44206  10.836   2.848   6.325
80770SOL    HW144207  10.822   2.844   6.420
80770SOL    HW244208  10.836   2.942   6.305
80771SOL     OW44209   3.758   2.613  13.874
80771SOL    HW144210   3.715   2.620  13.959
80771SOL    HW244211   3.818   2.539  13.883
80772SOL     OW44212   5.746  11.869   6.851
80772SOL    HW144213   5.758  11.916   6.768
80772SOL    HW244214   5.733  11.778   6.825
80773SOL     OW44215   9.952  12.065   5.496
80773SOL    HW144216   9.976  12.149   5.456
80773SOL    HW244217   9.959  12.002   5.425
80774SOL     OW44218   2.065   4.593   5.311
80774SOL    HW144219   2.016   4.560   5.236
80774SOL    HW244220   2.069   4.518   5.371
80775SOL     OW44221  11.002   8.686   8.970
80775SOL    HW144222  11.033   8.607   9.014
80775SOL    HW244223  11.064   8.754   8.998
80776SOL     OW44224  12.621   9.379  13.069
80776SOL    HW144225  12.694   9.353  13.013
80776SOL    HW244226  12.544   9.341  13.028
80777SOL     OW44227   2.170  14.135   2.372
80777SOL    HW144228   2.242  14.100   2.320
80777SOL    HW244229   2.143  14.214   2.325
80778SOL     OW44230   3.568   2.355   7.747
80778SOL    HW144231   3.606   2.341   7.661
80778SOL    HW244232   3.474   2.356   7.732
80779SOL     OW44233   7.776   1.789   0.355
80779SOL    HW144234   7.745   1.865   0.404
80779SOL    HW244235   7.696   1.746   0.324
80780SOL     OW44236   7.805  10.481   3.559
80780SOL    HW144237   7.780  10.402   3.510
80780SOL    HW244238   7.751  10.478   3.637
80781SOL     OW44239  10.215  10.100   8.712
80781SOL    HW144240  10.206  10.041   8.638
80781SOL    HW244241  10.281  10.164   8.685
80782SOL     OW44242  12.827  14.706   7.074
80782SOL    HW144243  12.909  14.709   7.026
80782SOL    HW244244  12.817  14.793   7.112
80783SOL     OW44245   2.750   5.124   7.430
80783SOL    HW144246   2.677   5.183   7.412
80783SOL    HW244247   2.823   5.182   7.452
80784SOL     OW44248   6.266   6.681   0.864
80784SOL    HW144249   6.190   6.735   0.887
80784SOL    HW244250   6.272   6.616   0.933
80785SOL     OW44251   4.430   9.704   6.780
80785SOL    HW144252   4.491   9.651   6.729
80785SOL    HW244253   4.485   9.758   6.835
80786SOL     OW44254   3.051  14.844   2.052
80786SOL    HW144255   3.115   0.042   2.068
80786SOL    HW244256   2.979  14.863   2.112
80787SOL     OW44257  10.697   1.308   3.264
80787SOL    HW144258  10.614   1.297   3.311
80787SOL    HW244259  10.672   1.314   3.172
80788SOL     OW44260  11.545   1.493   6.808
80788SOL    HW144261  11.535   1.451   6.723
80788SOL    HW244262  11.489   1.570   6.803
80789SOL     OW44263   0.687  13.806   7.282
80789SOL    HW144264   0.630  13.880   7.260
80789SOL    HW244265   0.705  13.764   7.199
80790SOL     OW44266   1.339   6.672   1.188
80790SOL    HW144267   1.288   6.591   1.187
80790SOL    HW244268   1.414   6.652   1.243
80791SOL     OW44269   5.168   2.609   8.844
80791SOL    HW144270   5.140   2.525   8.807
80791SOL    HW244271   5.090   2.664   8.839
80792SOL     OW44272   3.044  10.970   1.831
80792SOL    HW144273   2.984  10.956   1.757
80792SOL    HW244274   2.995  11.027   1.890
80793SOL     OW44275   1.011   4.984  12.399
80793SOL    HW144276   1.078   4.981  12.467
80793SOL    HW244277   0.928   4.994  12.445
80794SOL     OW44278   7.082   9.607   2.152
80794SOL    HW144279   6.997   9.637   2.119
80794SOL    HW244280   7.122   9.560   2.079
80795SOL     OW44281   4.602   8.708   5.219
80795SOL    HW144282   4.623   8.632   5.274
80795SOL    HW244283   4.680   8.764   5.226
80796SOL     OW44284   8.138   3.941   2.999
80796SOL    HW144285   8.066   4.000   3.025
80796SOL    HW244286   8.212   3.999   2.984
80797SOL     OW44287  12.406  13.409  11.135
80797SOL    HW144288  12.437  13.324  11.102
80797SOL    HW244289  12.448  13.419  11.220
80798SOL     OW44290   3.431  11.033   3.858
80798SOL    HW144291   3.396  10.960   3.807
80798SOL    HW244292   3.449  11.101   3.794
80799SOL     OW44293   9.121   3.867   8.751
80799SOL    HW144294   9.076   3.950   8.769
80799SOL    HW244295   9.057   3.799   8.773
80800SOL     OW44296  11.069   6.128   6.286
80800SOL    HW144297  10.987   6.084   6.262
80800SOL    HW244298  11.136   6.060   6.276
80801SOL     OW44299  14.199  11.984  11.387
80801SOL    HW144300  14.139  11.925  11.342
80801SOL    HW244301  14.273  11.928  11.412
80802SOL     OW44302  14.703   6.391   9.708
80802SOL    HW144303  14.723   6.334   9.633
80802SOL    HW244304  14.607   6.395   9.709
80803SOL     OW44305  11.221   2.114   6.309
80803SOL    HW144306  11.315   2.099   6.318
80803SOL    HW244307  11.214   2.171   6.232
80804SOL     OW44308  10.451   9.583   5.617
80804SOL    HW144309  10.524   9.644   5.626
80804SOL    HW244310  10.373   9.638   5.622
80805SOL     OW44311  13.245   0.748  11.675
80805SOL    HW144312  13.298   0.770  11.598
80805SOL    HW244313  13.155   0.768  11.648
80806SOL     OW44314   8.678   2.207   3.380
80806SOL    HW144315   8.719   2.206   3.293
80806SOL    HW244316   8.735   2.264   3.432
80807SOL     OW44317   9.132  13.094   5.498
80807SOL    HW144318   9.084  13.068   5.419
80807SOL    HW244319   9.170  13.179   5.476
80808SOL     OW44320   3.023   6.571  10.742
80808SOL    HW144321   2.944   6.618  10.716
80808SOL    HW244322   3.016   6.563  10.837
80809SOL     OW44323  13.651  10.786   7.890
80809SOL    HW144324  13.567  10.741   7.900
80809SOL    HW244325  13.643  10.833   7.807
80810SOL     OW44326   4.103   3.768   4.827
80810SOL    HW144327   4.107   3.674   4.848
80810SOL    HW244328   4.130   3.772   4.735
80811SOL     OW44329   7.117   5.119  11.407
80811SOL    HW144330   7.036   5.092  11.364
80811SOL    HW244331   7.184   5.110  11.340
80812SOL     OW44332  12.862   3.301   5.531
80812SOL    HW144333  12.955   3.320   5.537
80812SOL    HW244334  12.826   3.373   5.480
80813SOL     OW44335   2.315  11.110   7.265
80813SOL    HW144336   2.350  11.193   7.297
80813SOL    HW244337   2.382  11.078   7.204
80814SOL     OW44338   5.907  11.161   9.688
80814SOL    HW144339   5.821  11.188   9.657
80814SOL    HW244340   5.959  11.151   9.609
80815SOL     OW44341   9.133   4.018   2.347
80815SOL    HW144342   9.163   4.042   2.434
80815SOL    HW244343   9.045   4.056   2.341
80816SOL     OW44344   2.560   1.734   1.198
80816SOL    HW144345   2.572   1.809   1.141
80816SOL    HW244346   2.467   1.735   1.221
80817SOL     OW44347   7.625  13.243  12.131
80817SOL    HW144348   7.619  13.265  12.038
80817SOL    HW244349   7.534  13.240  12.161
80818SOL     OW44350   9.035  14.026  12.931
80818SOL    HW144351   9.090  14.035  12.853
80818SOL    HW244352   8.971  14.098  12.923
80819SOL     OW44353   0.017   4.004   0.369
80819SOL    HW144354  14.820   3.978   0.431
80819SOL    HW244355   0.069   4.068   0.416
80820SOL     OW44356   7.276   7.793   0.306
80820SOL    HW144357   7.227   7.822   0.383
80820SOL    HW244358   7.303   7.703   0.328
80821SOL     OW44359   4.397   4.471   1.374
80821SOL    HW144360   4.440   4.407   1.430
80821SOL    HW244361   4.385   4.548   1.429
80822SOL     OW44362   4.978   5.418   5.727
80822SOL    HW144363   4.998   5.332   5.765
80822SOL    HW244364   4.970   5.475   5.803
80823SOL     OW44365   2.675   8.275   3.131
80823SOL    HW144366   2.739   8.339   3.162
80823SOL    HW244367   2.707   8.249   3.045
80824SOL     OW44368   5.619  12.284   3.815
80824SOL    HW144369   5.671  12.240   3.748
80824SOL    HW244370   5.555  12.219   3.843
80825SOL     OW44371  14.160   1.688  13.767
80825SOL    HW144372  14.191   1.777  13.757
80825SOL    HW244373  14.163   1.651  13.679
80826SOL     OW44374  11.190  11.135   1.360
80826SOL    HW144375  11.126  11.151   1.429
80826SOL    HW244376  11.244  11.214   1.357
80827SOL     OW44377   0.726   4.152   1.595
80827SOL    HW144378   0.681   4.191   1.520
80827SOL    HW244379   0.816   4.138   1.565
80828SOL     OW44380   3.755  10.216   2.690
80828SOL    HW144381   3.736  10.126   2.716
80828SOL    HW244382   3.850  10.224   2.698
80829SOL     OW44383  11.058   4.398   1.056
80829SOL    HW144384  11.030   4.389   0.964
80829SOL    HW244385  11.079   4.309   1.083
80830SOL     OW44386   5.702   3.879   5.861
80830SOL    HW144387   5.734   3.809   5.918
80830SOL    HW244388   5.611   3.857   5.843
80831SOL     OW44389   2.868  14.675   9.224
80831SOL    HW144390   2.949  14.715   9.257
80831SOL    HW244391   2.886  14.659   9.131
80832SOL     OW44392   0.930   6.521   4.456
80832SOL    HW144393   0.852   6.496   4.506
80832SOL    HW244394   0.968   6.438   4.426
80833SOL     OW44395   3.599  13.092  10.683
80833SOL    HW144396   3.622  13.112  10.593
80833SOL    HW244397   3.676  13.047  10.719
80834SOL     OW44398   2.442   6.230  12.542
80834SOL    HW144399   2.491   6.221  12.461
80834SOL    HW244400   2.479   6.308  12.584
80835SOL     OW44401  12.940   6.621   8.215
80835SOL    HW144402  12.941   6.553   8.148
80835SOL    HW244403  12.997   6.588   8.284
80836SOL     OW44404  13.768  11.504   3.464
80836SOL    HW144405  13.831  11.484   3.394
80836SOL    HW244406  13.707  11.430   3.463
80837SOL     OW44407   5.147   2.886   6.728
80837SOL    HW144408   5.227   2.833   6.731
80837SOL    HW244409   5.124   2.891   6.635
80838SOL     OW44410   0.273   6.193   7.261
80838SOL    HW144411   0.247   6.113   7.216
80838SOL    HW244412   0.360   6.213   7.227
80839SOL     OW44413   2.641   8.600  14.162
80839SOL    HW144414   2.697   8.643  14.227
80839SOL    HW244415   2.649   8.653  14.083
80840SOL     OW44416  13.631   8.840   8.153
80840SOL    HW144417  13.687   8.767   8.131
80840SOL    HW244418  13.629   8.894   8.074
80841SOL     OW44419   4.377   2.546   9.460
80841SOL    HW144420   4.381   2.462   9.414
80841SOL    HW244421   4.300   2.539   9.516
80842SOL     OW44422  14.294   7.351  13.121
80842SOL    HW144423  14.318   7.269  13.163
80842SOL    HW244424  14.199   7.350  13.117
80843SOL     OW44425   9.800  11.121   6.088
80843SOL    HW144426   9.767  11.209   6.105
80843SOL    HW244427   9.794  11.111   5.993
80844SOL     OW44428  11.352  13.663   1.784
80844SOL    HW144429  11.307  13.737   1.743
80844SOL    HW244430  11.379  13.609   1.710
80845SOL     OW44431   3.538  10.448  14.857
80845SOL    HW144432   3.560  10.488   0.069
80845SOL    HW244433   3.456  10.489  14.831
80846SOL     OW44434   3.426   3.296   4.826
80846SOL    HW144435   3.332   3.310   4.820
80846SOL    HW244436   3.441   3.213   4.781
80847SOL     OW44437  13.526   8.397   3.189
80847SOL    HW144438  13.618   8.414   3.173
80847SOL    HW244439  13.485   8.484   3.192
80848SOL     OW44440   6.585  10.554   4.077
80848SOL    HW144441   6.545  10.613   4.014
80848SOL    HW244442   6.514  10.532   4.138
80849SOL     OW44443  14.427  12.126   1.659
80849SOL    HW144444  14.454  12.209   1.698
80849SOL    HW244445  14.394  12.075   1.733
80850SOL     OW44446   9.677   6.406  10.675
80850SOL    HW144447   9.654   6.479  10.618
80850SOL    HW244448   9.773   6.404  10.673
80851SOL     OW44449   6.514   2.478   8.846
80851SOL    HW144450   6.579   2.409   8.861
80851SOL    HW244451   6.430   2.434   8.850
80852SOL     OW44452   9.389   2.160   2.365
80852SOL    HW144453   9.393   2.226   2.434
80852SOL    HW244454   9.361   2.080   2.410
80853SOL     OW44455   2.146   1.378   2.142
80853SOL    HW144456   2.233   1.341   2.126
80853SOL    HW244457   2.086   1.307   2.118
80854SOL     OW44458  10.031  14.713  13.561
80854SOL    HW144459  10.004  14.744  13.648
80854SOL    HW244460  10.124  14.692  13.571
80855SOL     OW44461   1.222   9.908  10.909
80855SOL    HW144462   1.219  10.003  10.898
80855SOL    HW244463   1.270   9.876  10.833
80856SOL     OW44464   0.787   8.270   9.247
80856SOL    HW144465   0.703   8.281   9.202
80856SOL    HW244466   0.767   8.215   9.323
80857SOL     OW44467   2.990   8.235   3.428
80857SOL    HW144468   3.038   8.271   3.354
80857SOL    HW244469   2.972   8.310   3.485
80858SOL     OW44470   8.119   1.727   3.262
80858SOL    HW144471   8.211   1.732   3.286
80858SOL    HW244472   8.076   1.794   3.315
80859SOL     OW44473  13.652  10.823   3.085
80859SOL    HW144474  13.592  10.853   3.016
80859SOL    HW244475  13.739  10.830   3.047
80860SOL     OW44476   4.386  14.513   1.488
80860SOL    HW144477   4.381  14.605   1.461
80860SOL    HW244478   4.479  14.492   1.482
80861SOL     OW44479  14.185   3.048  10.955
80861SOL    HW144480  14.257   2.988  10.936
80861SOL    HW244481  14.207   3.128  10.906
80862SOL     OW44482   8.145  14.178   0.704
80862SOL    HW144483   8.240  14.182   0.698
80862SOL    HW244484   8.119  14.133   0.623
80863SOL     OW44485   8.846   3.075   2.630
80863SOL    HW144486   8.760   3.100   2.667
80863SOL    HW244487   8.862   2.988   2.664
80864SOL     OW44488   5.432  11.596  14.527
80864SOL    HW144489   5.417  11.673  14.472
80864SOL    HW244490   5.384  11.615  14.608
80865SOL     OW44491   1.447   2.093   7.864
80865SOL    HW144492   1.516   2.029   7.850
80865SOL    HW244493   1.399   2.095   7.781
80866SOL     OW44494   4.014  14.137   8.793
80866SOL    HW144495   4.034  14.206   8.730
80866SOL    HW244496   3.980  14.183   8.869
80867SOL     OW44497   2.953  12.587   3.386
80867SOL    HW144498   2.861  12.574   3.409
80867SOL    HW244499   2.954  12.586   3.290
80868SOL     OW44500   7.334  12.737   7.375
80868SOL    HW144501   7.377  12.681   7.440
80868SOL    HW244502   7.266  12.681   7.338
80869SOL     OW44503  11.108   0.911   9.850
80869SOL    HW144504  11.190   0.961   9.843
80869SOL    HW244505  11.124   0.831   9.800
80870SOL     OW44506   8.638   9.736   9.253
80870SOL    HW144507   8.657   9.655   9.300
80870SOL    HW244508   8.720   9.760   9.212
80871SOL     OW44509  14.248   6.694   5.187
80871SOL    HW144510  14.337   6.726   5.173
80871SOL    HW244511  14.207   6.698   5.100
80872SOL     OW44512   3.901   6.613   0.487
80872SOL    HW144513   3.968   6.546   0.502
80872SOL    HW244514   3.918   6.645   0.399
80873SOL     OW44515   4.311   5.785   9.920
80873SOL    HW144516   4.232   5.788   9.974
80873SOL    HW244517   4.368   5.722   9.964
80874SOL     OW44518   3.219   5.769  12.885
80874SOL    HW144519   3.175   5.845  12.924
80874SOL    HW244520   3.292   5.807  12.835
80875SOL     OW44521  12.837   8.300  11.630
80875SOL    HW144522  12.891   8.293  11.551
80875SOL    HW244523  12.878   8.239  11.692
80876SOL     OW44524  14.531   7.261   7.722
80876SOL    HW144525  14.573   7.176   7.704
80876SOL    HW244526  14.439   7.240   7.737
80877SOL     OW44527   9.558   8.464   5.472
80877SOL    HW144528   9.570   8.460   5.567
80877SOL    HW244529   9.472   8.503   5.459
80878SOL     OW44530   9.430   9.463   5.290
80878SOL    HW144531   9.340   9.479   5.263
80878SOL    HW244532   9.460   9.547   5.323
80879SOL     OW44533   4.624   4.603   3.787
80879SOL    HW144534   4.641   4.633   3.697
80879SOL    HW244535   4.633   4.682   3.840
80880SOL     OW44536  13.313   2.733  11.313
80880SOL    HW144537  13.378   2.779  11.366
80880SOL    HW244538  13.264   2.679  11.375
80881SOL     OW44539   0.983   5.788   3.439
80881SOL    HW144540   1.054   5.725   3.444
80881SOL    HW244541   0.989   5.824   3.350
80882SOL     OW44542   4.975   5.176   4.526
80882SOL    HW144543   4.969   5.222   4.610
80882SOL    HW244544   5.032   5.230   4.473
80883SOL     OW44545  13.760   8.878   3.211
80883SOL    HW144546  13.747   8.785   3.191
80883SOL    HW244547  13.855   8.889   3.213
80884SOL     OW44548   2.739  10.748   4.828
80884SOL    HW144549   2.733  10.745   4.732
80884SOL    HW244550   2.748  10.656   4.854
80885SOL     OW44551   6.466  12.210   1.556
80885SOL    HW144552   6.428  12.169   1.633
80885SOL    HW244553   6.560  12.211   1.573
80886SOL     OW44554  12.033   0.949   0.433
80886SOL    HW144555  12.032   0.860   0.399
80886SOL    HW244556  12.074   0.941   0.520
80887SOL     OW44557  13.862  11.463   7.525
80887SOL    HW144558  13.850  11.496   7.436
80887SOL    HW244559  13.774  11.437   7.552
80888SOL     OW44560  10.501  13.565   2.893
80888SOL    HW144561  10.490  13.484   2.943
80888SOL    HW244562  10.544  13.537   2.812
80889SOL     OW44563   9.046   7.386   9.634
80889SOL    HW144564   9.031   7.443   9.709
80889SOL    HW244565   9.010   7.301   9.660
80890SOL     OW44566  14.816   0.941   8.079
80890SOL    HW144567  14.730   0.952   8.120
80890SOL    HW244568  14.806   0.864   8.024
80891SOL     OW44569   0.789   7.956  13.514
80891SOL    HW144570   0.874   7.998  13.524
80891SOL    HW244571   0.733   8.001  13.577
80892SOL     OW44572   3.896   8.047  13.796
80892SOL    HW144573   3.805   8.042  13.824
80892SOL    HW244574   3.896   8.113  13.727
80893SOL     OW44575   6.383   6.875   0.707
80893SOL    HW144576   6.352   6.952   0.756
80893SOL    HW244577   6.347   6.801   0.755
80894SOL     OW44578   6.387   0.558   6.923
80894SOL    HW144579   6.305   0.551   6.875
80894SOL    HW244580   6.445   0.495   6.881
80895SOL     OW44581  12.551  14.069  14.041
80895SOL    HW144582  12.632  14.116  14.062
80895SOL    HW244583  12.566  14.032  13.954
80896SOL     OW44584  14.144   9.119   5.545
80896SOL    HW144585  14.164   9.057   5.475
80896SOL    HW244586  14.094   9.188   5.502
80897SOL     OW44587   5.437   1.362   9.424
80897SOL    HW144588   5.456   1.385   9.333
80897SOL    HW244589   5.355   1.408   9.444
80898SOL     OW44590  11.465   3.553   6.180
80898SOL    HW144591  11.386   3.606   6.195
80898SOL    HW244592  11.495   3.529   6.267
80899SOL     OW44593   2.794  10.731  11.149
80899SOL    HW144594   2.800  10.821  11.181
80899SOL    HW244595   2.790  10.739  11.054
80900SOL     OW44596   9.337   6.467   2.714
80900SOL    HW144597   9.264   6.527   2.731
80900SOL    HW244598   9.303   6.407   2.648
80901SOL     OW44599  14.161  13.457  13.722
80901SOL    HW144600  14.164  13.548  13.748
80901SOL    HW244601  14.142  13.409  13.802
80902SOL     OW44602   8.583   0.559  14.368
80902SOL    HW144603   8.495   0.590  14.388
80902SOL    HW244604   8.609   0.611  14.291
80903SOL     OW44605   2.637   3.673   4.890
80903SOL    HW144606   2.644   3.693   4.796
80903SOL    HW244607   2.712   3.717   4.929
80904SOL     OW44608  13.367   4.811   2.523
80904SOL    HW144609  13.413   4.882   2.568
80904SOL    HW244610  13.368   4.738   2.585
80905SOL     OW44611   1.325   8.050  11.554
80905SOL    HW144612   1.277   8.083  11.478
80905SOL    HW244613   1.257   8.021  11.615
80906SOL     OW44614   1.815   0.427   7.675
80906SOL    HW144615   1.726   0.417   7.641
80906SOL    HW244616   1.872   0.403   7.602
80907SOL     OW44617   5.875  11.233  10.795
80907SOL    HW144618   5.826  11.305  10.755
80907SOL    HW244619   5.811  11.164  10.809
80908SOL     OW44620   7.663   6.069   6.482
80908SOL    HW144621   7.715   6.139   6.522
80908SOL    HW244622   7.670   5.996   6.543
80909SOL     OW44623  13.479   7.394   0.231
80909SOL    HW144624  13.514   7.368   0.316
80909SOL    HW244625  13.498   7.487   0.224
80910SOL     OW44626   9.687  13.191  11.904
80910SOL    HW144627   9.677  13.103  11.868
80910SOL    HW244628   9.658  13.249  11.833
80911SOL     OW44629   1.474  10.421   2.376
80911SOL    HW144630   1.380  10.414   2.366
80911SOL    HW244631   1.494  10.511   2.347
80912SOL     OW44632   7.662  11.463   3.536
80912SOL    HW144633   7.658  11.554   3.509
80912SOL    HW244634   7.588  11.421   3.492
80913SOL     OW44635   4.191  12.666   9.811
80913SOL    HW144636   4.266  12.724   9.804
80913SOL    HW244637   4.161  12.676   9.901
80914SOL     OW44638   7.430   4.350   3.341
80914SOL    HW144639   7.460   4.398   3.264
80914SOL    HW244640   7.423   4.259   3.310
80915SOL     OW44641   3.451   4.573   4.190
80915SOL    HW144642   3.356   4.584   4.192
80915SOL    HW244643   3.485   4.663   4.186
80916SOL     OW44644   1.498   6.446  13.179
80916SOL    HW144645   1.534   6.372  13.228
80916SOL    HW244646   1.515   6.522  13.234
80917SOL     OW44647  12.525   6.356   0.288
80917SOL    HW144648  12.490   6.298   0.356
80917SOL    HW244649  12.461   6.426   0.281
80918SOL     OW44650   2.638   9.638   6.093
80918SOL    HW144651   2.722   9.649   6.137
80918SOL    HW244652   2.658   9.588   6.014
80919SOL     OW44653   0.817  13.148   0.309
80919SOL    HW144654   0.787  13.239   0.311
80919SOL    HW244655   0.899  13.150   0.358
80920SOL     OW44656   9.670  13.877   1.937
80920SOL    HW144657   9.671  13.945   2.005
80920SOL    HW244658   9.610  13.910   1.871
80921SOL     OW44659   7.222   0.007   4.582
80921SOL    HW144660   7.163  14.843   4.516
80921SOL    HW244661   7.166   0.064   4.636
80922SOL     OW44662  13.776   3.743   6.665
80922SOL    HW144663  13.843   3.716   6.727
80922SOL    HW244664  13.696   3.703   6.697
80923SOL     OW44665   4.743   8.605   0.160
80923SOL    HW144666   4.755   8.513   0.135
80923SOL    HW244667   4.667   8.634   0.109
80924SOL     OW44668   4.057  12.868   2.517
80924SOL    HW144669   4.067  12.775   2.496
80924SOL    HW244670   3.966  12.888   2.496
80925SOL     OW44671   0.003  14.334   5.238
80925SOL    HW144672   0.019  14.400   5.171
80925SOL    HW244673  14.787  14.302   5.220
80926SOL     OW44674   3.618  11.598   6.797
80926SOL    HW144675   3.590  11.601   6.705
80926SOL    HW244676   3.594  11.684   6.831
80927SOL     OW44677   5.381   3.833   9.502
80927SOL    HW144678   5.326   3.791   9.435
80927SOL    HW244679   5.360   3.926   9.494
80928SOL     OW44680   7.128   3.845   8.003
80928SOL    HW144681   7.066   3.847   8.076
80928SOL    HW244682   7.162   3.756   8.002
80929SOL     OW44683  14.872   9.251   1.606
80929SOL    HW144684  14.849   9.301   1.528
80929SOL    HW244685  14.788   9.224   1.643
80930SOL     OW44686   6.959  11.547   0.181
80930SOL    HW144687   6.874  11.522   0.217
80930SOL    HW244688   6.938  11.610   0.112
80931SOL     OW44689   9.758  11.717   4.496
80931SOL    HW144690   9.808  11.635   4.506
80931SOL    HW244691   9.723  11.733   4.584
80932SOL     OW44692   5.673   5.942   3.893
80932SOL    HW144693   5.736   5.931   3.964
80932SOL    HW244694   5.587   5.933   3.935
80933SOL     OW44695   1.178   3.094  10.490
80933SOL    HW144696   1.190   3.174  10.438
80933SOL    HW244697   1.084   3.076  10.484
80934SOL     OW44698   1.922   5.735  11.569
80934SOL    HW144699   1.909   5.784  11.650
80934SOL    HW244700   1.939   5.801  11.503
80935SOL     OW44701  10.682   9.773   7.108
80935SOL    HW144702  10.702   9.694   7.058
80935SOL    HW244703  10.621   9.743   7.175
80936SOL     OW44704   3.865   5.952  13.131
80936SOL    HW144705   3.936   6.000  13.175
80936SOL    HW244706   3.885   5.860  13.148
80937SOL     OW44707  12.164   5.333   6.983
80937SOL    HW144708  12.101   5.403   7.002
80937SOL    HW244709  12.221   5.331   7.060
80938SOL     OW44710   8.440   3.545   4.826
80938SOL    HW144711   8.391   3.627   4.816
80938SOL    HW244712   8.526   3.564   4.788
80939SOL     OW44713  12.125  11.124   4.629
80939SOL    HW144714  12.196  11.187   4.616
80939SOL    HW244715  12.057  11.173   4.674
80940SOL     OW44716   2.884   4.540   2.231
80940SOL    HW144717   2.971   4.547   2.270
80940SOL    HW244718   2.893   4.583   2.146
80941SOL     OW44719  10.269   7.962  11.601
80941SOL    HW144720  10.283   7.868  11.602
80941SOL    HW244721  10.222   7.978  11.519
80942SOL     OW44722   7.836   4.804   3.047
80942SOL    HW144723   7.844   4.749   3.125
80942SOL    HW244724   7.922   4.800   3.006
80943SOL     OW44725  14.432   1.256   8.126
80943SOL    HW144726  14.361   1.280   8.067
80943SOL    HW244727  14.466   1.340   8.157
80944SOL     OW44728  14.717  12.666   7.400
80944SOL    HW144729  14.758  12.719   7.468
80944SOL    HW244730  14.748  12.577   7.417
80945SOL     OW44731   1.266  14.252  14.422
80945SOL    HW144732   1.299  14.210  14.501
80945SOL    HW244733   1.181  14.209  14.406
80946SOL     OW44734  12.828  13.053  10.912
80946SOL    HW144735  12.861  13.011  10.991
80946SOL    HW244736  12.743  13.012  10.896
80947SOL     OW44737   9.623   2.034   2.286
80947SOL    HW144738   9.554   2.093   2.316
80947SOL    HW244739   9.586   1.989   2.211
80948SOL     OW44740   8.790   6.609  10.578
80948SOL    HW144741   8.740   6.623  10.498
80948SOL    HW244742   8.765   6.521  10.607
80949SOL     OW44743  12.600   0.044   9.249
80949SOL    HW144744  12.532   0.014   9.310
80949SOL    HW244745  12.634  14.836   9.210
80950SOL     OW44746   9.902  14.563  11.209
80950SOL    HW144747   9.945  14.586  11.291
80950SOL    HW244748   9.972  14.526  11.155
80951SOL     OW44749   0.358  11.583   2.771
80951SOL    HW144750   0.423  11.651   2.754
80951SOL    HW244751   0.275  11.623   2.743
80952SOL     OW44752   0.821   2.189  12.806
80952SOL    HW144753   0.841   2.283  12.804
80952SOL    HW244754   0.739   2.181  12.757
80953SOL     OW44755   0.721   2.263  10.978
80953SOL    HW144756   0.627   2.252  10.992
80953SOL    HW244757   0.738   2.355  10.999
80954SOL     OW44758   6.772  10.595   9.598
80954SOL    HW144759   6.813  10.601   9.512
80954SOL    HW244760   6.735  10.506   9.602
80955SOL     OW44761   2.475   5.751   0.174
80955SOL    HW144762   2.393   5.781   0.211
80955SOL    HW244763   2.467   5.656   0.170
80956SOL     OW44764   0.052   1.601   1.337
80956SOL    HW144765   0.067   1.544   1.412
80956SOL    HW244766   0.106   1.564   1.267
80957SOL     OW44767  10.125   9.537   1.314
80957SOL    HW144768  10.162   9.511   1.229
80957SOL    HW244769  10.164   9.623   1.331
80958SOL     OW44770   7.654  14.029   6.972
80958SOL    HW144771   7.624  14.002   6.886
80958SOL    HW244772   7.746  14.055   6.959
80959SOL     OW44773   9.207   7.082   7.390
80959SOL    HW144774   9.117   7.101   7.417
80959SOL    HW244775   9.260   7.145   7.437
80960SOL     OW44776   8.612   1.720   8.961
80960SOL    HW144777   8.582   1.759   9.043
80960SOL    HW244778   8.678   1.782   8.929
80961SOL     OW44779   4.283   5.554   0.515
80961SOL    HW144780   4.234   5.501   0.453
80961SOL    HW244781   4.217   5.592   0.572
80962SOL     OW44782   0.011   2.638   3.443
80962SOL    HW144783  14.838   2.575   3.499
80962SOL    HW244784   0.061   2.584   3.381
80963SOL     OW44785   9.460  12.389   3.836
80963SOL    HW144786   9.498  12.308   3.870
80963SOL    HW244787   9.445  12.443   3.913
80964SOL     OW44788   7.258  10.322   6.385
80964SOL    HW144789   7.247  10.402   6.333
80964SOL    HW244790   7.334  10.339   6.440
80965SOL     OW44791  12.511   6.233  14.803
80965SOL    HW144792  12.416   6.229  14.791
80965SOL    HW244793  12.546   6.188  14.726
80966SOL     OW44794   7.139   9.022   2.952
80966SOL    HW144795   7.187   9.031   2.870
80966SOL    HW244796   7.207   9.014   3.020
80967SOL     OW44797  10.163   3.650  10.309
80967SOL    HW144798  10.176   3.640  10.403
80967SOL    HW244799  10.216   3.581  10.269
80968SOL     OW44800   2.236  13.581  14.424
80968SOL    HW144801   2.158  13.531  14.449
80968SOL    HW244802   2.303  13.514  14.409
80969SOL     OW44803   7.416  11.355   3.200
80969SOL    HW144804   7.345  11.302   3.237
80969SOL    HW244805   7.490  11.295   3.193
80970SOL     OW44806   1.606   3.680   8.940
80970SOL    HW144807   1.688   3.677   8.889
80970SOL    HW244808   1.556   3.604   8.910
80971SOL     OW44809  10.588   1.152   9.466
80971SOL    HW144810  10.564   1.234   9.422
80971SOL    HW244811  10.683   1.156   9.475
80972SOL     OW44812  13.434   9.781   0.984
80972SOL    HW144813  13.461   9.847   1.047
80972SOL    HW244814  13.465   9.815   0.900
80973SOL     OW44815   5.514   8.110  14.497
80973SOL    HW144816   5.606   8.118  14.471
80973SOL    HW244817   5.467   8.099  14.414
80974SOL     OW44818   4.352   1.192  12.445
80974SOL    HW144819   4.342   1.188  12.350
80974SOL    HW244820   4.443   1.166  12.461
80975SOL     OW44821  12.655   9.710  11.231
80975SOL    HW144822  12.740   9.677  11.261
80975SOL    HW244823  12.636   9.658  11.153
80976SOL     OW44824   0.029   9.111  10.985
80976SOL    HW144825   0.032   9.204  11.007
80976SOL    HW244826   0.075   9.068  11.057
80977SOL     OW44827  14.187   5.251   0.068
80977SOL    HW144828  14.142   5.305   0.003
80977SOL    HW244829  14.143   5.166   0.062
80978SOL     OW44830  11.053   6.370   4.069
80978SOL    HW144831  10.966   6.409   4.071
80978SOL    HW244832  11.102   6.423   4.007
80979SOL     OW44833   2.229   3.410   9.932
80979SOL    HW144834   2.320   3.384   9.923
80979SOL    HW244835   2.184   3.330   9.960
80980SOL     OW44836   0.037   5.702   5.120
80980SOL    HW144837  14.864   5.701   5.036
80980SOL    HW244838  14.866   5.633   5.171
80981SOL     OW44839   6.461   7.887  14.116
80981SOL    HW144840   6.373   7.857  14.097
80981SOL    HW244841   6.512   7.864  14.038
80982SOL     OW44842  11.780   3.311   6.128
80982SOL    HW144843  11.835   3.234   6.135
80982SOL    HW244844  11.729   3.311   6.209
80983SOL     OW44845  13.812  13.243  14.383
80983SOL    HW144846  13.769  13.201  14.457
80983SOL    HW244847  13.741  13.268  14.324
80984SOL     OW44848   4.387   6.462  10.664
80984SOL    HW144849   4.415   6.449  10.574
80984SOL    HW244850   4.466   6.493  10.709
80985SOL     OW44851   4.202   7.114   6.238
80985SOL    HW144852   4.277   7.173   6.250
80985SOL    HW244853   4.130   7.172   6.215
80986SOL     OW44854   7.052  13.928   7.418
80986SOL    HW144855   7.097  13.926   7.333
80986SOL    HW244856   7.089  13.853   7.466
80987SOL     OW44857   3.942   6.419  11.610
80987SOL    HW144858   3.974   6.450  11.525
80987SOL    HW244859   3.893   6.340  11.589
80988SOL     OW44860   8.162  11.947   7.306
80988SOL    HW144861   8.237  11.909   7.260
80988SOL    HW244862   8.152  12.035   7.268
80989SOL     OW44863   6.153   2.831  11.684
80989SOL    HW144864   6.075   2.810  11.735
80989SOL    HW244865   6.224   2.833  11.748
80990SOL     OW44866  14.029   6.938  13.709
80990SOL    HW144867  13.991   6.919  13.624
80990SOL    HW244868  14.073   6.857  13.735
80991SOL     OW44869   8.631   8.529   4.197
80991SOL    HW144870   8.627   8.545   4.103
80991SOL    HW244871   8.568   8.591   4.235
80992SOL     OW44872  10.664   9.932   8.306
80992SOL    HW144873  10.731   9.921   8.238
80992SOL    HW244874  10.616  10.011   8.281
80993SOL     OW44875  10.864   6.058   8.654
80993SOL    HW144876  10.787   6.002   8.644
80993SOL    HW244877  10.830   6.140   8.690
80994SOL     OW44878   9.498   2.815   9.235
80994SOL    HW144879   9.472   2.725   9.255
80994SOL    HW244880   9.592   2.811   9.220
80995SOL     OW44881   5.994   2.268   5.738
80995SOL    HW144882   6.036   2.237   5.818
80995SOL    HW244883   6.067   2.290   5.680
80996SOL     OW44884   8.798  14.087  10.738
80996SOL    HW144885   8.807  14.039  10.656
80996SOL    HW244886   8.726  14.148  10.723
80997SOL     OW44887   2.271  11.310  10.430
80997SOL    HW144888   2.254  11.264  10.513
80997SOL    HW244889   2.192  11.295  10.378
80998SOL     OW44890  13.076   9.584   0.348
80998SOL    HW144891  13.047   9.643   0.279
80998SOL    HW244892  13.007   9.518   0.354
80999SOL     OW44893   4.230  14.746  10.414
80999SOL    HW144894   4.311  14.723  10.459
80999SOL    HW244895   4.258  14.783  10.330
81000SOL     OW44896  13.465   1.861   3.783
81000SOL    HW144897  13.514   1.819   3.712
81000SOL    HW244898  13.415   1.790   3.823
81001SOL     OW44899   6.626  12.610   1.160
81001SOL    HW144900   6.638  12.631   1.253
81001SOL    HW244901   6.572  12.682   1.126
81002SOL     OW44902   6.904   3.143  11.249
81002SOL    HW144903   6.957   3.122  11.326
81002SOL    HW244904   6.887   3.237  11.257
81003SOL     OW44905   2.059   3.963  13.389
81003SOL    HW144906   2.058   4.020  13.466
81003SOL    HW244907   2.149   3.930  13.385
81004SOL     OW44908  14.215   9.341   7.725
81004SOL    HW144909  14.143   9.390   7.687
81004SOL    HW244910  14.284   9.343   7.658
81005SOL     OW44911   8.729   1.784  11.575
81005SOL    HW144912   8.734   1.734  11.494
81005SOL    HW244913   8.815   1.774  11.615
81006SOL     OW44914   3.983   0.318   1.838
81006SOL    HW144915   3.898   0.327   1.880
81006SOL    HW244916   3.963   0.283   1.751
81007SOL     OW44917   8.971   0.051   2.540
81007SOL    HW144918   8.940  14.859   2.476
81007SOL    HW244919   8.955   0.136   2.498
81008SOL     OW44920   7.143   8.384  12.911
81008SOL    HW144921   7.071   8.335  12.871
81008SOL    HW244922   7.134   8.368  13.005
81009SOL     OW44923   7.098  12.811  14.086
81009SOL    HW144924   7.095  12.785  14.178
81009SOL    HW244925   7.190  12.801  14.061
81010SOL     OW44926  12.473   6.394   4.654
81010SOL    HW144927  12.406   6.369   4.591
81010SOL    HW244928  12.439   6.364   4.739
81011SOL     OW44929   4.004  12.564   5.692
81011SOL    HW144930   3.968  12.653   5.688
81011SOL    HW244931   4.034  12.546   5.603
81012SOL     OW44932  12.319   6.239   3.902
81012SOL    HW144933  12.324   6.262   3.809
81012SOL    HW244934  12.409   6.243   3.933
81013SOL     OW44935   0.400  14.089   4.796
81013SOL    HW144936   0.491  14.083   4.765
81013SOL    HW244937   0.347  14.064   4.721
81014SOL     OW44938   6.485   8.902  11.990
81014SOL    HW144939   6.427   8.827  11.978
81014SOL    HW244940   6.432   8.965  12.040
81015SOL     OW44941   0.398  12.806  14.611
81015SOL    HW144942   0.490  12.818  14.587
81015SOL    HW244943   0.349  12.850  14.542
81016SOL     OW44944   1.405  12.063  12.034
81016SOL    HW144945   1.492  12.082  12.068
81016SOL    HW244946   1.350  12.134  12.068
81017SOL     OW44947  12.709   0.409   0.306
81017SOL    HW144948  12.655   0.341   0.345
81017SOL    HW244949  12.663   0.434   0.226
81018SOL     OW44950   6.902   5.696   5.568
81018SOL    HW144951   6.827   5.754   5.580
81018SOL    HW244952   6.921   5.663   5.655
81019SOL     OW44953  12.245   0.518   5.312
81019SOL    HW144954  12.201   0.535   5.229
81019SOL    HW244955  12.263   0.605   5.347
81020SOL     OW44956  11.603   0.787   6.685
81020SOL    HW144957  11.650   0.720   6.735
81020SOL    HW244958  11.589   0.858   6.747
81021SOL     OW44959   9.572  12.845   2.058
81021SOL    HW144960   9.505  12.911   2.039
81021SOL    HW244961   9.577  12.793   1.978
81022SOL     OW44962   6.777   5.182   6.977
81022SOL    HW144963   6.756   5.271   6.948
81022SOL    HW244964   6.841   5.151   6.913
81023SOL     OW44965   2.017   8.572  13.865
81023SOL    HW144966   2.034   8.516  13.789
81023SOL    HW244967   2.073   8.537  13.934
81024SOL     OW44968  14.431   9.575   0.056
81024SOL    HW144969  14.479   9.655   0.033
81024SOL    HW244970  14.478   9.505   0.010
81025SOL     OW44971  12.847  12.822  12.978
81025SOL    HW144972  12.846  12.909  12.936
81025SOL    HW244973  12.897  12.836  13.059
81026SOL     OW44974   6.438   2.128   5.736
81026SOL    HW144975   6.507   2.189   5.762
81026SOL    HW244976   6.465   2.044   5.773
81027SOL     OW44977  14.736   8.314   2.806
81027SOL    HW144978  14.714   8.243   2.745
81027SOL    HW244979  14.830   8.327   2.795
81028SOL     OW44980  13.575   7.487  14.608
81028SOL    HW144981  13.520   7.522  14.679
81028SOL    HW244982  13.643   7.553  14.597
81029SOL     OW44983   9.347  12.963  12.513
81029SOL    HW144984   9.298  12.953  12.594
81029SOL    HW244985   9.349  13.057  12.496
81030SOL     OW44986   1.701   9.839  11.041
81030SOL    HW144987   1.692   9.934  11.046
81030SOL    HW244988   1.700   9.820  10.947
81031SOL     OW44989  11.747  13.394  10.470
81031SOL    HW144990  11.816  13.433  10.525
81031SOL    HW244991  11.793  13.330  10.416
81032SOL     OW44992  12.003   0.766   8.996
81032SOL    HW144993  12.070   0.702   8.971
81032SOL    HW244994  11.999   0.759   9.091
81033SOL     OW44995   6.074  10.185   8.029
81033SOL    HW144996   6.021  10.111   8.057
81033SOL    HW244997   6.155  10.178   8.079
81034SOL     OW44998   5.909   1.068   8.157
81034SOL    HW144999   5.854   1.003   8.200
81034SOL    HW245000   5.881   1.152   8.194
81035SOL     OW45001   4.788  10.099   3.416
81035SOL    HW145002   4.744  10.042   3.479
81035SOL    HW245003   4.727  10.171   3.402
81036SOL     OW45004   0.840  13.869   7.996
81036SOL    HW145005   0.806  13.869   8.085
81036SOL    HW245006   0.763  13.863   7.940
81037SOL     OW45007   1.495   0.663   7.808
81037SOL    HW145008   1.524   0.574   7.793
81037SOL    HW245009   1.399   0.657   7.811
81038SOL     OW45010  11.197   7.671   9.473
81038SOL    HW145011  11.124   7.674   9.411
81038SOL    HW245012  11.227   7.762   9.479
81039SOL     OW45013   3.909  11.956   3.058
81039SOL    HW145014   3.933  11.878   3.107
81039SOL    HW245015   3.974  12.021   3.083
81040SOL     OW45016   4.658  13.906  14.104
81040SOL    HW145017   4.624  13.957  14.178
81040SOL    HW245018   4.632  13.816  14.123
81041SOL     OW45019  10.365  10.116   5.625
81041SOL    HW145020  10.360  10.164   5.543
81041SOL    HW245021  10.377  10.025   5.598
81042SOL     OW45022  14.541  11.417   6.007
81042SOL    HW145023  14.556  11.323   6.011
81042SOL    HW245024  14.447  11.427   6.019
81043SOL     OW45025   0.452   9.791   0.709
81043SOL    HW145026   0.446   9.873   0.660
81043SOL    HW245027   0.452   9.723   0.641
81044SOL     OW45028   5.851  11.338   5.049
81044SOL    HW145029   5.907  11.286   5.107
81044SOL    HW245030   5.824  11.412   5.103
81045SOL     OW45031  12.042   4.835  14.730
81045SOL    HW145032  11.947   4.844  14.724
81045SOL    HW245033  12.065   4.882  14.810
81046SOL     OW45034   9.551   1.905  14.333
81046SOL    HW145035   9.576   1.997  14.335
81046SOL    HW245036   9.631   1.859  14.306
81047SOL     OW45037  14.819   6.993   3.378
81047SOL    HW145038   0.031   7.012   3.337
81047SOL    HW245039  14.756   6.996   3.306
81048SOL     OW45040   7.830   5.334   6.073
81048SOL    HW145041   7.770   5.380   6.014
81048SOL    HW245042   7.848   5.397   6.143
81049SOL     OW45043  10.145  10.336   4.905
81049SOL    HW145044  10.057  10.369   4.885
81049SOL    HW245045  10.142  10.314   4.998
81050SOL     OW45046  12.691   2.604   9.997
81050SOL    HW145047  12.630   2.560   9.937
81050SOL    HW245048  12.778   2.578   9.966
81051SOL     OW45049   6.895  13.137  10.308
81051SOL    HW145050   6.873  13.148  10.400
81051SOL    HW245051   6.958  13.207  10.290
81052SOL     OW45052   9.359   9.204   5.615
81052SOL    HW145053   9.387   9.113   5.611
81052SOL    HW245054   9.433   9.250   5.656
81053SOL     OW45055   0.105   9.355  11.059
81053SOL    HW145056   0.073   9.444  11.046
81053SOL    HW245057   0.171   9.363  11.127
81054SOL     OW45058   6.448   2.799  12.381
81054SOL    HW145059   6.508   2.837  12.316
81054SOL    HW245060   6.506   2.756  12.444
81055SOL     OW45061   2.595  11.155  12.269
81055SOL    HW145062   2.633  11.184  12.352
81055SOL    HW245063   2.549  11.073  12.291
81056SOL     OW45064   0.572   2.040   5.006
81056SOL    HW145065   0.499   2.101   5.015
81056SOL    HW245066   0.649   2.093   5.024
81057SOL     OW45067   9.682   6.302  13.224
81057SOL    HW145068   9.660   6.321  13.132
81057SOL    HW245069   9.737   6.376  13.251
81058SOL     OW45070  13.838   8.794   4.241
81058SOL    HW145071  13.797   8.753   4.165
81058SOL    HW245072  13.883   8.722   4.286
81059SOL     OW45073  14.198   9.217   8.011
81059SOL    HW145074  14.181   9.260   7.927
81059SOL    HW245075  14.255   9.143   7.989
81060SOL     OW45076  14.155   4.513   0.993
81060SOL    HW145077  14.086   4.567   0.955
81060SOL    HW245078  14.214   4.494   0.921
81061SOL     OW45079  14.273   5.367   2.971
81061SOL    HW145080  14.331   5.294   2.949
81061SOL    HW245081  14.306   5.399   3.056
81062SOL     OW45082   6.941   5.582   3.300
81062SOL    HW145083   6.999   5.574   3.224
81062SOL    HW245084   6.974   5.659   3.347
81063SOL     OW45085  14.674   5.775  10.703
81063SOL    HW145086  14.709   5.764  10.614
81063SOL    HW245087  14.585   5.742  10.698
81064SOL     OW45088   9.018   8.163   5.271
81064SOL    HW145089   9.007   8.236   5.331
81064SOL    HW245090   9.050   8.091   5.325
81065SOL     OW45091   1.373  10.563   4.593
81065SOL    HW145092   1.395  10.531   4.505
81065SOL    HW245093   1.427  10.511   4.652
81066SOL     OW45094   6.307   3.262   9.113
81066SOL    HW145095   6.274   3.173   9.129
81066SOL    HW245096   6.254   3.318   9.171
81067SOL     OW45097   9.020   2.825   3.758
81067SOL    HW145098   9.104   2.809   3.801
81067SOL    HW245099   8.965   2.862   3.827
81068SOL     OW45100  13.940   4.514   6.170
81068SOL    HW145101  13.978   4.580   6.229
81068SOL    HW245102  13.870   4.561   6.124
81069SOL     OW45103   8.298   6.867  12.817
81069SOL    HW145104   8.350   6.827  12.886
81069SOL    HW245105   8.271   6.952  12.852
81070SOL     OW45106   8.479  14.778   8.991
81070SOL    HW145107   8.481  14.865   9.031
81070SOL    HW245108   8.417  14.786   8.919
81071SOL     OW45109  14.781   1.993   0.706
81071SOL    HW145110  14.757   1.913   0.753
81071SOL    HW245111  14.738   2.063   0.754
81072SOL     OW45112   4.908  11.249   3.255
81072SOL    HW145113   4.869  11.302   3.186
81072SOL    HW245114   4.965  11.309   3.303
81073SOL     OW45115  12.831   4.497   7.448
81073SOL    HW145116  12.924   4.509   7.430
81073SOL    HW245117  12.794   4.585   7.444
81074SOL     OW45118   7.292  13.675   5.347
81074SOL    HW145119   7.377  13.656   5.387
81074SOL    HW245120   7.244  13.722   5.415
81075SOL     OW45121   0.007   1.718  10.853
81075SOL    HW145122   0.069   1.760  10.913
81075SOL    HW245123   0.025   1.759  10.768
81076SOL     OW45124   3.708   4.232  13.713
81076SOL    HW145125   3.665   4.153  13.683
81076SOL    HW245126   3.783   4.201  13.764
81077SOL     OW45127   3.902  13.911   5.915
81077SOL    HW145128   3.873  13.999   5.939
81077SOL    HW245129   3.854  13.853   5.974
81078SOL     OW45130   4.297  12.749  12.702
81078SOL    HW145131   4.274  12.669  12.655
81078SOL    HW245132   4.300  12.817  12.635
81079SOL     OW45133   2.382   1.263   2.057
81079SOL    HW145134   2.377   1.168   2.047
81079SOL    HW245135   2.475   1.284   2.042
81080SOL     OW45136  10.848   6.263  13.309
81080SOL    HW145137  10.894   6.179  13.314
81080SOL    HW245138  10.785   6.259  13.381
81081SOL     OW45139  12.472   5.155   8.049
81081SOL    HW145140  12.537   5.097   8.011
81081SOL    HW245141  12.522   5.229   8.082
81082SOL     OW45142  13.454   5.977  10.281
81082SOL    HW145143  13.440   5.885  10.260
81082SOL    HW245144  13.366   6.015  10.281
81083SOL     OW45145   5.024  12.997  11.638
81083SOL    HW145146   4.939  12.985  11.682
81083SOL    HW245147   5.001  13.034  11.553
81084SOL     OW45148   7.402   1.210  11.302
81084SOL    HW145149   7.439   1.269  11.237
81084SOL    HW245150   7.419   1.122  11.267
81085SOL     OW45151   8.921   9.038   4.547
81085SOL    HW145152   8.867   9.083   4.482
81085SOL    HW245153   8.965   9.109   4.594
81086SOL     OW45154  10.702  11.764   4.801
81086SOL    HW145155  10.644  11.784   4.727
81086SOL    HW245156  10.740  11.849   4.825
81087SOL     OW45157   1.981   1.282   8.224
81087SOL    HW145158   2.037   1.207   8.244
81087SOL    HW245159   2.001   1.346   8.293
81088SOL     OW45160   9.001   9.576  13.673
81088SOL    HW145161   8.954   9.599  13.592
81088SOL    HW245162   9.093   9.583  13.650
81089SOL     OW45163   4.691   2.179   0.668
81089SOL    HW145164   4.685   2.203   0.576
81089SOL    HW245165   4.773   2.132   0.676
81090SOL     OW45166   9.557   3.004  11.353
81090SOL    HW145167   9.648   3.032  11.357
81090SOL    HW245168   9.537   2.972  11.441
81091SOL     OW45169   7.844   5.905   8.816
81091SOL    HW145170   7.795   5.939   8.891
81091SOL    HW245171   7.895   5.832   8.851
81092SOL     OW45172   9.308   7.673  11.204
81092SOL    HW145173   9.277   7.728  11.132
81092SOL    HW245174   9.403   7.670  11.192
81093SOL     OW45175   7.014   0.472  12.681
81093SOL    HW145176   7.086   0.522  12.719
81093SOL    HW245177   7.047   0.444  12.595
81094SOL     OW45178   9.172   3.526  10.943
81094SOL    HW145179   9.216   3.516  11.027
81094SOL    HW245180   9.079   3.516  10.963
81095SOL     OW45181  13.019  12.419  12.339
81095SOL    HW145182  12.949  12.410  12.274
81095SOL    HW245183  12.979  12.392  12.422
81096SOL     OW45184  10.053  10.374   0.141
81096SOL    HW145185  10.081  10.413   0.058
81096SOL    HW245186   9.996  10.302   0.116
81097SOL     OW45187   6.112   8.915  14.130
81097SOL    HW145188   6.152   8.873  14.054
81097SOL    HW245189   6.123   9.009  14.114
81098SOL     OW45190   8.009   9.339  13.529
81098SOL    HW145191   8.086   9.348  13.473
81098SOL    HW245192   7.952   9.278  13.482
81099SOL     OW45193   9.940  12.976   7.541
81099SOL    HW145194   9.883  12.951   7.613
81099SOL    HW245195   9.982  12.895   7.513
81100SOL     OW45196   0.178   7.096  11.582
81100SOL    HW145197   0.175   7.039  11.659
81100SOL    HW245198   0.088   7.126  11.571
81101SOL     OW45199   0.337  10.018   5.417
81101SOL    HW145200   0.245  10.042   5.401
81101SOL    HW245201   0.387  10.085   5.370
81102SOL     OW45202   9.470  12.766   6.601
81102SOL    HW145203   9.416  12.798   6.674
81102SOL    HW245204   9.531  12.838   6.584
81103SOL     OW45205  13.630   3.800  12.505
81103SOL    HW145206  13.715   3.797  12.549
81103SOL    HW245207  13.651   3.817  12.413
81104SOL     OW45208   8.005  10.720   8.017
81104SOL    HW145209   8.017  10.678   7.932
81104SOL    HW245210   8.090  10.713   8.059
81105SOL     OW45211  13.597  10.311   0.065
81105SOL    HW145212  13.606  10.310  14.841
81105SOL    HW245213  13.681  10.346   0.096
81106SOL     OW45214  14.178   1.014  11.155
81106SOL    HW145215  14.270   1.036  11.137
81106SOL    HW245216  14.149   0.965  11.079
81107SOL     OW45217   8.032   9.330   9.892
81107SOL    HW145218   7.996   9.259   9.945
81107SOL    HW245219   8.101   9.368   9.946
81108SOL     OW45220  10.797   8.470  13.626
81108SOL    HW145221  10.861   8.431  13.566
81108SOL    HW245222  10.851   8.519  13.689
81109SOL     OW45223   6.868  13.637   5.911
81109SOL    HW145224   6.862  13.685   5.994
81109SOL    HW245225   6.898  13.549   5.936
81110SOL     OW45226  10.360  11.557  10.260
81110SOL    HW145227  10.453  11.580  10.260
81110SOL    HW245228  10.318  11.626  10.310
81111SOL     OW45229  12.010   0.862  14.105
81111SOL    HW145230  11.951   0.790  14.081
81111SOL    HW245231  11.982   0.887  14.193
81112SOL     OW45232   6.372  12.662  14.768
81112SOL    HW145233   6.465  12.652  14.788
81112SOL    HW245234   6.328  12.651  14.852
81113SOL     OW45235   2.642   2.138  11.209
81113SOL    HW145236   2.568   2.171  11.259
81113SOL    HW245237   2.635   2.183  11.124
81114SOL     OW45238   4.016   2.325  14.576
81114SOL    HW145239   3.928   2.358  14.595
81114SOL    HW245240   4.073   2.373  14.635
81115SOL     OW45241   3.238   5.412  11.015
81115SOL    HW145242   3.199   5.439  10.932
81115SOL    HW245243   3.254   5.493  11.062
81116SOL     OW45244  11.552   0.899  11.467
81116SOL    HW145245  11.573   0.983  11.508
81116SOL    HW245246  11.461   0.908  11.440
81117SOL     OW45247   5.060  10.868   6.889
81117SOL    HW145248   4.965  10.856   6.885
81117SOL    HW245249   5.080  10.869   6.983
81118SOL     OW45250   2.530   2.721   1.798
81118SOL    HW145251   2.504   2.663   1.870
81118SOL    HW245252   2.615   2.756   1.826
81119SOL     OW45253   6.814   2.741   8.121
81119SOL    HW145254   6.895   2.723   8.074
81119SOL    HW245255   6.826   2.830   8.157
81120SOL     OW45256   0.631   6.393  12.212
81120SOL    HW145257   0.671   6.310  12.187
81120SOL    HW245258   0.537   6.373  12.222
81121SOL     OW45259  11.990  12.729  13.273
81121SOL    HW145260  11.946  12.646  13.295
81121SOL    HW245261  11.965  12.788  13.344
81122SOL     OW45262  10.211   6.253   4.580
81122SOL    HW145263  10.134   6.268   4.635
81122SOL    HW245264  10.284   6.252   4.642
81123SOL     OW45265   4.985   7.270   1.148
81123SOL    HW145266   4.915   7.211   1.122
81123SOL    HW245267   4.956   7.309   1.230
81124SOL     OW45268  13.078  11.309   0.627
81124SOL    HW145269  13.120  11.245   0.685
81124SOL    HW245270  13.099  11.394   0.667
81125SOL     OW45271  10.747  11.605   1.593
81125SOL    HW145272  10.671  11.577   1.542
81125SOL    HW245273  10.721  11.688   1.633
81126SOL     OW45274   2.015   5.059   7.945
81126SOL    HW145275   2.016   5.154   7.953
81126SOL    HW245276   2.104   5.032   7.967
81127SOL     OW45277   3.079  14.787  11.618
81127SOL    HW145278   3.151  14.847  11.599
81127SOL    HW245279   3.066  14.738  11.537
81128SOL     OW45280   4.226   5.469   6.969
81128SOL    HW145281   4.169   5.531   6.925
81128SOL    HW245282   4.303   5.463   6.913
81129SOL     OW45283  11.813  10.259   2.904
81129SOL    HW145284  11.737  10.287   2.955
81129SOL    HW245285  11.781  10.185   2.852
81130SOL     OW45286   8.864   6.454   7.146
81130SOL    HW145287   8.832   6.372   7.184
81130SOL    HW245288   8.959   6.449   7.154
81131SOL     OW45289   8.900   4.012   4.674
81131SOL    HW145290   8.969   4.042   4.614
81131SOL    HW245291   8.859   3.939   4.627
81132SOL     OW45292  11.512  11.797  12.972
81132SOL    HW145293  11.462  11.728  12.928
81132SOL    HW245294  11.597  11.796  12.927
81133SOL     OW45295   6.490   8.102   0.026
81133SOL    HW145296   6.577   8.081   0.059
81133SOL    HW245297   6.439   8.123   0.104
81134SOL     OW45298  13.303   6.160  13.924
81134SOL    HW145299  13.256   6.178  13.843
81134SOL    HW245300  13.237   6.120  13.981
81135SOL     OW45301   2.219  11.605   1.908
81135SOL    HW145302   2.192  11.697   1.914
81135SOL    HW245303   2.259  11.598   1.822
81136SOL     OW45304   7.429  14.029   4.322
81136SOL    HW145305   7.483  13.964   4.276
81136SOL    HW245306   7.363  14.056   4.257
81137SOL     OW45307   9.204   5.418   8.128
81137SOL    HW145308   9.154   5.347   8.087
81137SOL    HW245309   9.165   5.498   8.092
81138SOL     OW45310  11.985   6.062   0.860
81138SOL    HW145311  12.051   6.059   0.791
81138SOL    HW245312  11.961   6.154   0.866
81139SOL     OW45313   9.555   4.979   7.198
81139SOL    HW145314   9.606   5.039   7.252
81139SOL    HW245315   9.492   5.034   7.153
81140SOL     OW45316  14.486   0.614  13.008
81140SOL    HW145317  14.536   0.607  12.927
81140SOL    HW245318  14.517   0.541  13.062
81141SOL     OW45319   3.635  13.192   2.644
81141SOL    HW145320   3.726  13.220   2.647
81141SOL    HW245321   3.590  13.250   2.704
81142SOL     OW45322   6.507   6.981   2.884
81142SOL    HW145323   6.431   6.926   2.865
81142SOL    HW245324   6.575   6.919   2.910
81143SOL     OW45325   3.577   7.349   5.870
81143SOL    HW145326   3.567   7.255   5.857
81143SOL    HW245327   3.638   7.358   5.943
81144SOL     OW45328   1.389   1.951   8.782
81144SOL    HW145329   1.425   2.040   8.788
81144SOL    HW245330   1.432   1.914   8.704
81145SOL     OW45331   9.926   1.761   7.642
81145SOL    HW145332   9.911   1.677   7.686
81145SOL    HW245333   9.963   1.817   7.710
81146SOL     OW45334   0.803   5.502   0.073
81146SOL    HW145335   0.868   5.560   0.113
81146SOL    HW245336   0.823   5.503  14.852
81147SOL     OW45337  11.174   5.397   2.493
81147SOL    HW145338  11.197   5.328   2.556
81147SOL    HW245339  11.079   5.403   2.498
81148SOL     OW45340  10.618   5.072   9.087
81148SOL    HW145341  10.687   5.016   9.125
81148SOL    HW245342  10.665   5.150   9.058
81149SOL     OW45343  14.554   3.150  12.254
81149SOL    HW145344  14.581   3.190  12.337
81149SOL    HW245345  14.631   3.102  12.224
81150SOL     OW45346   2.660  12.786   7.307
81150SOL    HW145347   2.733  12.839   7.339
81150SOL    HW245348   2.652  12.809   7.214
81151SOL     OW45349   7.486  12.060  11.016
81151SOL    HW145350   7.517  12.134  11.069
81151SOL    HW245351   7.516  12.081  10.927
81152SOL     OW45352   0.485   5.365   1.935
81152SOL    HW145353   0.500   5.458   1.923
81152SOL    HW245354   0.392   5.358   1.956
81153SOL     OW45355   1.760   3.608   1.202
81153SOL    HW145356   1.823   3.627   1.133
81153SOL    HW245357   1.802   3.539   1.254
81154SOL     OW45358   4.333  12.334   5.593
81154SOL    HW145359   4.286  12.408   5.554
81154SOL    HW245360   4.324  12.348   5.688
81155SOL     OW45361   1.828  13.676   9.767
81155SOL    HW145362   1.922  13.687   9.756
81155SOL    HW245363   1.819  13.605   9.831
81156SOL     OW45364  14.516  14.647  13.880
81156SOL    HW145365  14.529  14.738  13.852
81156SOL    HW245366  14.571  14.596  13.820
81157SOL     OW45367   5.884   1.805  10.350
81157SOL    HW145368   5.970   1.765  10.336
81157SOL    HW245369   5.880   1.823  10.444
81158SOL     OW45370   0.563  14.075   1.940
81158SOL    HW145371   0.499  14.029   1.886
81158SOL    HW245372   0.648  14.053   1.902
81159SOL     OW45373   5.945   9.889  12.167
81159SOL    HW145374   5.874   9.860  12.109
81159SOL    HW245375   5.955   9.982  12.147
81160SOL     OW45376   8.174   8.065  12.843
81160SOL    HW145377   8.094   8.012  12.845
81160SOL    HW245378   8.144   8.155  12.830
81161SOL     OW45379   4.652  13.748  13.207
81161SOL    HW145380   4.699  13.698  13.139
81161SOL    HW245381   4.687  13.715  13.289
81162SOL     OW45382  10.510  13.553  10.424
81162SOL    HW145383  10.489  13.523  10.512
81162SOL    HW245384  10.556  13.636  10.436
81163SOL     OW45385  11.379   2.277   6.969
81163SOL    HW145386  11.346   2.363   6.944
81163SOL    HW245387  11.469   2.294   6.999
81164SOL     OW45388  10.936   8.553   7.719
81164SOL    HW145389  10.861   8.499   7.746
81164SOL    HW245390  10.897   8.638   7.700
81165SOL     OW45391   1.880   1.847   6.528
81165SOL    HW145392   1.838   1.930   6.552
81165SOL    HW245393   1.965   1.850   6.571
81166SOL     OW45394   1.533   5.562   4.241
81166SOL    HW145395   1.501   5.614   4.167
81166SOL    HW245396   1.523   5.471   4.214
81167SOL     OW45397   7.211  11.320   9.080
81167SOL    HW145398   7.119  11.307   9.057
81167SOL    HW245399   7.259  11.301   8.999
81168SOL     OW45400   5.321   4.479  13.197
81168SOL    HW145401   5.359   4.490  13.284
81168SOL    HW245402   5.235   4.440  13.213
81169SOL     OW45403  14.337   7.212  14.274
81169SOL    HW145404  14.258   7.265  14.286
81169SOL    HW245405  14.332   7.147  14.344
81170SOL     OW45406   4.526  10.818   4.215
81170SOL    HW145407   4.459  10.786   4.155
81170SOL    HW245408   4.477  10.859   4.286
81171SOL     OW45409  14.072  11.218   5.557
81171SOL    HW145410  14.139  11.149   5.556
81171SOL    HW245411  14.053  11.234   5.465
81172SOL     OW45412   3.021  10.787  13.760
81172SOL    HW145413   2.950  10.795  13.824
81172SOL    HW245414   3.013  10.697  13.726
81173SOL     OW45415  10.248   8.614   4.323
81173SOL    HW145416  10.244   8.675   4.396
81173SOL    HW245417  10.224   8.667   4.247
81174SOL     OW45418   8.036   8.977  14.137
81174SOL    HW145419   7.969   8.970  14.070
81174SOL    HW245420   7.995   9.029  14.207
81175SOL     OW45421  12.771   4.871   7.712
81175SOL    HW145422  12.833   4.805   7.742
81175SOL    HW245423  12.809   4.954   7.741
81176SOL     OW45424  11.330  14.765  14.204
81176SOL    HW145425  11.269  14.705  14.245
81176SOL    HW245426  11.277  14.814  14.140
81177SOL     OW45427   3.739   1.100   1.967
81177SOL    HW145428   3.755   1.048   2.045
81177SOL    HW245429   3.646   1.087   1.948
81178SOL     OW45430   6.567   5.275  13.589
81178SOL    HW145431   6.546   5.317  13.506
81178SOL    HW245432   6.631   5.333  13.630
81179SOL     OW45433  10.921   8.064   1.491
81179SOL    HW145434  10.889   8.130   1.553
81179SOL    HW245435  11.014   8.083   1.482
81180SOL     OW45436  13.190   4.859   8.651
81180SOL    HW145437  13.262   4.877   8.590
81180SOL    HW245438  13.232   4.862   8.738
81181SOL     OW45439   0.150   5.331   3.926
81181SOL    HW145440   0.232   5.381   3.926
81181SOL    HW245441   0.149   5.288   4.011
81182SOL     OW45442   0.664   5.746   7.440
81182SOL    HW145443   0.694   5.825   7.484
81182SOL    HW245444   0.658   5.680   7.510
81183SOL     OW45445   5.478   9.950  13.497
81183SOL    HW145446   5.448   9.950  13.406
81183SOL    HW245447   5.519  10.035  13.509
81184SOL     OW45448  14.842   6.632  11.023
81184SOL    HW145449   0.035   6.637  10.954
81184SOL    HW245450  14.868   6.700  11.085
81185SOL     OW45451   8.578   8.094  11.581
81185SOL    HW145452   8.655   8.106  11.637
81185SOL    HW245453   8.505   8.123  11.635
81186SOL     OW45454   9.216   6.003   9.755
81186SOL    HW145455   9.173   6.055   9.823
81186SOL    HW245456   9.230   6.065   9.683
81187SOL     OW45457   8.968   1.826  11.182
81187SOL    HW145458   9.002   1.776  11.108
81187SOL    HW245459   9.046   1.852  11.232
81188SOL     OW45460   5.640   0.687   8.105
81188SOL    HW145461   5.674   0.599   8.086
81188SOL    HW245462   5.716   0.735   8.139
81189SOL     OW45463   0.682  10.138   8.155
81189SOL    HW145464   0.611  10.131   8.090
81189SOL    HW245465   0.734  10.212   8.124
81190SOL     OW45466   6.193   2.035   1.684
81190SOL    HW145467   6.160   2.005   1.768
81190SOL    HW245468   6.124   2.015   1.621
81191SOL     OW45469  10.042   4.857   1.017
81191SOL    HW145470  10.057   4.806   1.096
81191SOL    HW245471   9.958   4.825   0.983
81192SOL     OW45472   1.876  12.965  13.679
81192SOL    HW145473   1.810  13.019  13.722
81192SOL    HW245474   1.911  12.910  13.749
81193SOL     OW45475  10.022   7.749   3.856
81193SOL    HW145476  10.075   7.828   3.849
81193SOL    HW245477  10.086   7.678   3.869
81194SOL     OW45478  12.715  11.889   1.819
81194SOL    HW145479  12.638  11.928   1.861
81194SOL    HW245480  12.789  11.919   1.872
81195SOL     OW45481   4.615  12.591   3.080
81195SOL    HW145482   4.645  12.517   3.028
81195SOL    HW245483   4.575  12.551   3.157
81196SOL     OW45484   6.209  13.160   8.072
81196SOL    HW145485   6.275  13.103   8.112
81196SOL    HW245486   6.198  13.232   8.134
81197SOL     OW45487  11.224   9.682   9.637
81197SOL    HW145488  11.251   9.634   9.716
81197SOL    HW245489  11.156   9.628   9.598
81198SOL     OW45490  10.897  10.753  13.113
81198SOL    HW145491  10.885  10.669  13.069
81198SOL    HW245492  10.879  10.818  13.046
81199SOL     OW45493   6.831  14.038   4.845
81199SOL    HW145494   6.751  14.071   4.885
81199SOL    HW245495   6.821  14.059   4.752
81200SOL     OW45496   1.479   9.984  10.150
81200SOL    HW145497   1.572   9.992  10.171
81200SOL    HW245498   1.452   9.903  10.192
81201SOL     OW45499   7.302  13.075   9.038
81201SOL    HW145500   7.259  13.153   9.074
81201SOL    HW245501   7.297  13.087   8.943
81202SOL     OW45502   8.728  10.995  12.895
81202SOL    HW145503   8.822  10.983  12.905
81202SOL    HW245504   8.719  11.078  12.849
81203SOL     OW45505  12.508   7.474  10.409
81203SOL    HW145506  12.592   7.485  10.365
81203SOL    HW245507  12.444   7.464  10.338
81204SOL     OW45508  13.132   0.505  10.304
81204SOL    HW145509  13.164   0.564  10.235
81204SOL    HW245510  13.139   0.418  10.266
81205SOL     OW45511  12.444  13.308  14.550
81205SOL    HW145512  12.515  13.357  14.508
81205SOL    HW245513  12.482  13.222  14.568
81206SOL     OW45514   7.812  12.614   9.362
81206SOL    HW145515   7.790  12.683   9.299
81206SOL    HW245516   7.838  12.539   9.307
81207SOL     OW45517   0.360  10.393   4.348
81207SOL    HW145518   0.285  10.346   4.311
81207SOL    HW245519   0.347  10.484   4.321
81208SOL     OW45520   2.132  13.612   7.255
81208SOL    HW145521   2.192  13.651   7.191
81208SOL    HW245522   2.078  13.551   7.203
81209SOL     OW45523   2.524   6.023   2.166
81209SOL    HW145524   2.471   5.943   2.176
81209SOL    HW245525   2.587   6.019   2.237
81210SOL     OW45526   1.707   3.695   2.162
81210SOL    HW145527   1.774   3.698   2.094
81210SOL    HW245528   1.750   3.728   2.240
81211SOL     OW45529  13.964   3.711  14.763
81211SOL    HW145530  14.039   3.714  14.822
81211SOL    HW245531  14.001   3.729  14.676
81212SOL     OW45532   8.336   7.726  14.358
81212SOL    HW145533   8.308   7.644  14.318
81212SOL    HW245534   8.432   7.725  14.350
81213SOL     OW45535   6.912   5.819   1.722
81213SOL    HW145536   6.932   5.888   1.785
81213SOL    HW245537   6.853   5.861   1.658
81214SOL     OW45538   4.649   8.099   7.053
81214SOL    HW145539   4.738   8.087   7.019
81214SOL    HW245540   4.636   8.194   7.054
81215SOL     OW45541   1.898   1.399   2.809
81215SOL    HW145542   1.955   1.385   2.733
81215SOL    HW245543   1.810   1.389   2.774
81216SOL     OW45544  13.980   3.668   4.732
81216SOL    HW145545  13.952   3.724   4.660
81216SOL    HW245546  13.940   3.706   4.810
81217SOL     OW45547   4.735  11.073   7.416
81217SOL    HW145548   4.826  11.103   7.418
81217SOL    HW245549   4.733  11.009   7.345
81218SOL     OW45550   5.540   6.563   3.496
81218SOL    HW145551   5.554   6.581   3.589
81218SOL    HW245552   5.598   6.490   3.476
81219SOL     OW45553  12.051  14.544   7.220
81219SOL    HW145554  12.042  14.638   7.200
81219SOL    HW245555  12.074  14.504   7.136
81220SOL     OW45556   8.015   9.231   3.958
81220SOL    HW145557   8.061   9.262   4.036
81220SOL    HW245558   8.082   9.233   3.889
81221SOL     OW45559   1.120   1.201   1.089
81221SOL    HW145560   1.158   1.245   1.013
81221SOL    HW245561   1.167   1.118   1.095
81222SOL     OW45562   5.413   6.833   4.113
81222SOL    HW145563   5.331   6.786   4.092
81222SOL    HW245564   5.390   6.888   4.188
81223SOL     OW45565   0.249  12.445   7.905
81223SOL    HW145566   0.302  12.517   7.867
81223SOL    HW245567   0.283  12.366   7.862
81224SOL     OW45568  12.387  11.038   8.559
81224SOL    HW145569  12.413  11.005   8.473
81224SOL    HW245570  12.328  10.971   8.594
81225SOL     OW45571   4.680   4.623   3.188
81225SOL    HW145572   4.589   4.647   3.206
81225SOL    HW245573   4.680   4.599   3.095
81226SOL     OW45574  14.588   9.974   4.380
81226SOL    HW145575  14.548   9.941   4.460
81226SOL    HW245576  14.670  10.016   4.409
81227SOL     OW45577  14.861   2.506   4.292
81227SOL    HW145578   0.019   2.530   4.205
81227SOL    HW245579  14.801   2.576   4.317
81228SOL     OW45580   9.676   0.040   6.539
81228SOL    HW145581   9.606  14.849   6.524
81228SOL    HW245582   9.649   0.088   6.617
81229SOL     OW45583   0.222   4.015   8.390
81229SOL    HW145584   0.288   3.999   8.457
81229SOL    HW245585   0.248   4.097   8.349
81230SOL     OW45586   8.445   8.534   7.927
81230SOL    HW145587   8.498   8.596   7.877
81230SOL    HW245588   8.420   8.467   7.863
81231SOL     OW45589   6.348  14.222   3.954
81231SOL    HW145590   6.292  14.151   3.923
81231SOL    HW245591   6.298  14.264   4.024
81232SOL     OW45592   7.422   1.489   0.485
81232SOL    HW145593   7.362   1.437   0.431
81232SOL    HW245594   7.413   1.578   0.450
81233SOL     OW45595   7.903  10.466  14.178
81233SOL    HW145596   7.898  10.461  14.274
81233SOL    HW245597   7.997  10.470  14.159
81234SOL     OW45598  14.289   8.798  12.075
81234SOL    HW145599  14.239   8.717  12.068
81234SOL    HW245600  14.356   8.780  12.141
81235SOL     OW45601  11.875   8.099  13.682
81235SOL    HW145602  11.853   8.024  13.628
81235SOL    HW245603  11.793   8.148  13.690
81236SOL     OW45604   4.455   6.883   6.479
81236SOL    HW145605   4.537   6.919   6.445
81236SOL    HW245606   4.478   6.843   6.563
81237SOL     OW45607  13.804  10.519   3.267
81237SOL    HW145608  13.835  10.430   3.251
81237SOL    HW245609  13.740  10.511   3.338
81238SOL     OW45610   6.031   9.003  13.504
81238SOL    HW145611   6.077   8.982  13.585
81238SOL    HW245612   6.050   8.929  13.446
81239SOL     OW45613   1.227  11.591   3.669
81239SOL    HW145614   1.299  11.544   3.712
81239SOL    HW245615   1.162  11.603   3.738
81240SOL     OW45616  11.094   4.624   0.534
81240SOL    HW145617  11.188   4.615   0.522
81240SOL    HW245618  11.074   4.714   0.509
81241SOL     OW45619   2.173   1.196  13.858
81241SOL    HW145620   2.116   1.268  13.885
81241SOL    HW245621   2.177   1.138  13.934
81242SOL     OW45622   8.474   1.814  11.516
81242SOL    HW145623   8.490   1.807  11.422
81242SOL    HW245624   8.562   1.817  11.555
81243SOL     OW45625   3.039  12.292   5.396
81243SOL    HW145626   3.033  12.282   5.491
81243SOL    HW245627   2.952  12.321   5.370
81244SOL     OW45628  14.769   7.641   9.346
81244SOL    HW145629  14.708   7.703   9.385
81244SOL    HW245630  14.713   7.572   9.309
81245SOL     OW45631   5.234   2.656   9.191
81245SOL    HW145632   5.176   2.711   9.244
81245SOL    HW245633   5.241   2.703   9.108
81246SOL     OW45634   8.855   6.933  12.237
81246SOL    HW145635   8.837   6.955  12.329
81246SOL    HW245636   8.927   6.870  12.242
81247SOL     OW45637  11.414  10.381   4.902
81247SOL    HW145638  11.434  10.447   4.968
81247SOL    HW245639  11.398  10.430   4.821
81248SOL     OW45640   7.416  10.655   3.096
81248SOL    HW145641   7.383  10.610   3.174
81248SOL    HW245642   7.511  10.645   3.102
81249SOL     OW45643   6.694   0.048   5.243
81249SOL    HW145644   6.625  14.870   5.200
81249SOL    HW245645   6.746  14.855   5.289
81250SOL     OW45646   8.481   5.092   4.297
81250SOL    HW145647   8.392   5.066   4.274
81250SOL    HW245648   8.535   5.056   4.227
81251SOL     OW45649   0.524   2.500   6.446
81251SOL    HW145650   0.502   2.548   6.526
81251SOL    HW245651   0.586   2.433   6.475
81252SOL     OW45652   6.988   9.853   9.702
81252SOL    HW145653   7.007   9.814   9.787
81252SOL    HW245654   6.906   9.901   9.715
81253SOL     OW45655   2.085   9.813   9.360
81253SOL    HW145656   2.166   9.782   9.319
81253SOL    HW245657   2.091   9.908   9.358
81254SOL     OW45658   0.983   9.761  12.294
81254SOL    HW145659   0.979   9.732  12.203
81254SOL    HW245660   1.056   9.712  12.332
81255SOL     OW45661   9.894  10.132  14.108
81255SOL    HW145662   9.870  10.143  14.015
81255SOL    HW245663   9.814  10.099  14.149
81256SOL     OW45664  13.434   3.934  10.963
81256SOL    HW145665  13.391   4.009  10.922
81256SOL    HW245666  13.525   3.962  10.975
81257SOL     OW45667  11.452   0.945   5.848
81257SOL    HW145668  11.498   0.875   5.802
81257SOL    HW245669  11.453   0.919   5.940
81258SOL     OW45670   9.246   1.959   6.803
81258SOL    HW145671   9.304   1.965   6.727
81258SOL    HW245672   9.169   2.011   6.778
81259SOL     OW45673  11.717   3.979   8.133
81259SOL    HW145674  11.625   3.953   8.129
81259SOL    HW245675  11.721   4.042   8.205
81260SOL     OW45676   0.794  14.760  12.820
81260SOL    HW145677   0.766  14.713  12.899
81260SOL    HW245678   0.795  14.694  12.751
81261SOL     OW45679  12.009   2.856  14.114
81261SOL    HW145680  12.087   2.903  14.085
81261SOL    HW245681  12.000   2.880  14.207
81262SOL     OW45682   4.618   9.737   4.417
81262SOL    HW145683   4.687   9.755   4.353
81262SOL    HW245684   4.547   9.797   4.394
81263SOL     OW45685   1.168  11.758  13.095
81263SOL    HW145686   1.229  11.768  13.168
81263SOL    HW245687   1.205  11.814  13.026
81264SOL     OW45688  14.794   2.045  14.158
81264SOL    HW145689  14.830   2.046  14.247
81264SOL    HW245690  14.706   2.081  14.168
81265SOL     OW45691   4.007   0.411   2.467
81265SOL    HW145692   4.017   0.320   2.439
81265SOL    HW245693   3.932   0.409   2.527
81266SOL     OW45694   4.444   5.931   2.900
81266SOL    HW145695   4.459   6.020   2.933
81266SOL    HW245696   4.385   5.942   2.826
81267SOL     OW45697  10.402   3.899   0.419
81267SOL    HW145698  10.440   3.824   0.374
81267SOL    HW245699  10.319   3.867   0.453
81268SOL     OW45700   1.031   0.516   0.449
81268SOL    HW145701   0.975   0.586   0.415
81268SOL    HW245702   1.075   0.555   0.524
81269SOL     OW45703   0.658   2.252   7.154
81269SOL    HW145704   0.672   2.164   7.189
81269SOL    HW245705   0.566   2.252   7.126
81270SOL     OW45706  13.477   4.749  11.914
81270SOL    HW145707  13.558   4.736  11.865
81270SOL    HW245708  13.484   4.839  11.948
81271SOL     OW45709   4.196  10.367   1.964
81271SOL    HW145710   4.253  10.294   1.988
81271SOL    HW245711   4.152  10.391   2.045
81272SOL     OW45712  14.446  11.511   0.682
81272SOL    HW145713  14.493  11.567   0.744
81272SOL    HW245714  14.499  11.513   0.603
81273SOL     OW45715  14.694   9.636   6.580
81273SOL    HW145716  14.754   9.636   6.505
81273SOL    HW245717  14.619   9.585   6.551
81274SOL     OW45718   0.530  13.467   3.611
81274SOL    HW145719   0.455  13.415   3.639
81274SOL    HW245720   0.492  13.550   3.581
81275SOL     OW45721   0.511  10.320  14.779
81275SOL    HW145722   0.424  10.352  14.803
81275SOL    HW245723   0.500  10.226  14.769
81276SOL     OW45724   5.181  13.206   6.114
81276SOL    HW145725   5.130  13.272   6.162
81276SOL    HW245726   5.192  13.244   6.026
81277SOL     OW45727   3.378  13.614  13.783
81277SOL    HW145728   3.407  13.536  13.830
81277SOL    HW245729   3.451  13.635  13.724
81278SOL     OW45730   9.830  12.428   3.050
81278SOL    HW145731   9.799  12.514   3.019
81278SOL    HW245732   9.750  12.380   3.070
81279SOL     OW45733   5.926   3.862  13.848
81279SOL    HW145734   5.951   3.782  13.894
81279SOL    HW245735   5.932   3.931  13.915
81280SOL     OW45736   5.984  14.532   5.617
81280SOL    HW145737   5.933  14.526   5.536
81280SOL    HW245738   6.034  14.612   5.608
81281SOL     OW45739   8.453   4.885   9.910
81281SOL    HW145740   8.436   4.974   9.939
81281SOL    HW245741   8.543   4.868   9.937
81282SOL     OW45742  14.737   3.440   4.533
81282SOL    HW145743  14.647   3.472   4.526
81282SOL    HW245744  14.730   3.360   4.584
81283SOL     OW45745   5.758   6.067   0.042
81283SOL    HW145746   5.802   6.045   0.124
81283SOL    HW245747   5.789   6.001  14.852
81284SOL     OW45748   8.271   6.600   7.059
81284SOL    HW145749   8.231   6.612   7.145
81284SOL    HW245750   8.216   6.651   7.000
81285SOL     OW45751  12.439  10.522  14.068
81285SOL    HW145752  12.366  10.575  14.100
81285SOL    HW245753  12.465  10.469  14.143
81286SOL     OW45754   2.749  10.755  10.293
81286SOL    HW145755   2.810  10.828  10.306
81286SOL    HW245756   2.675  10.776  10.349
81287SOL     OW45757   6.541  14.324  13.895
81287SOL    HW145758   6.455  14.366  13.904
81287SOL    HW245759   6.584  14.373  13.825
81288SOL     OW45760   3.516   5.685   8.113
81288SOL    HW145761   3.464   5.759   8.145
81288SOL    HW245762   3.520   5.698   8.018
81289SOL     OW45763   8.020   8.744   9.970
81289SOL    HW145764   8.107   8.728   9.934
81289SOL    HW245765   8.031   8.823  10.023
81290SOL     OW45766  11.695   3.876   1.510
81290SOL    HW145767  11.650   3.955   1.539
81290SOL    HW245768  11.676   3.810   1.577
81291SOL     OW45769  10.951   6.071  11.520
81291SOL    HW145770  10.986   6.101  11.604
81291SOL    HW245771  10.934   6.152  11.471
81292SOL     OW45772   0.093   8.709   5.018
81292SOL    HW145773   0.121   8.623   5.051
81292SOL    HW245774   0.119   8.708   4.926
81293SOL     OW45775  12.012   6.579   5.338
81293SOL    HW145776  11.976   6.663   5.364
81293SOL    HW245777  11.997   6.522   5.414
81294SOL     OW45778   7.800  13.602   0.347
81294SOL    HW145779   7.782  13.582   0.255
81294SOL    HW245780   7.729  13.561   0.395
81295SOL     OW45781   1.022   9.706   0.952
81295SOL    HW145782   1.038   9.800   0.959
81295SOL    HW245783   0.935   9.698   0.914
81296SOL     OW45784   6.472   2.243  12.413
81296SOL    HW145785   6.548   2.285  12.454
81296SOL    HW245786   6.508   2.197  12.337
81297SOL     OW45787   9.741   7.986   4.790
81297SOL    HW145788   9.799   7.971   4.864
81297SOL    HW245789   9.799   8.000   4.715
81298SOL     OW45790  14.743   9.580  12.531
81298SOL    HW145791  14.701   9.503  12.569
81298SOL    HW245792  14.829   9.549  12.503
81299SOL     OW45793  10.218  13.077  11.544
81299SOL    HW145794  10.126  13.087  11.519
81299SOL    HW245795  10.230  12.983  11.555
81300SOL     OW45796   8.284   2.448   0.050
81300SOL    HW145797   8.340   2.418  14.851
81300SOL    HW245798   8.204   2.478   0.008
81301SOL     OW45799   9.051   3.887  13.139
81301SOL    HW145800   9.062   3.973  13.180
81301SOL    HW245801   9.045   3.907  13.045
81302SOL     OW45802   8.636  10.142  13.089
81302SOL    HW145803   8.628  10.198  13.012
81302SOL    HW245804   8.587  10.188  13.158
81303SOL     OW45805   8.904  10.264   5.287
81303SOL    HW145806   8.934  10.182   5.324
81303SOL    HW245807   8.969  10.329   5.315
81304SOL     OW45808   5.355   0.194  10.821
81304SOL    HW145809   5.262   0.171  10.812
81304SOL    HW245810   5.383   0.213  10.732
81305SOL     OW45811   1.463  11.314   7.196
81305SOL    HW145812   1.459  11.230   7.241
81305SOL    HW245813   1.452  11.292   7.103
81306SOL     OW45814  14.606   2.032   5.826
81306SOL    HW145815  14.641   2.102   5.881
81306SOL    HW245816  14.680   2.002   5.774
81307SOL     OW45817   2.438   6.895   5.786
81307SOL    HW145818   2.438   6.840   5.864
81307SOL    HW245819   2.381   6.849   5.724
81308SOL     OW45820  10.588   3.944   4.876
81308SOL    HW145821  10.568   3.877   4.811
81308SOL    HW245822  10.656   3.997   4.835
81309SOL     OW45823   5.652  13.920   5.495
81309SOL    HW145824   5.594  13.845   5.507
81309SOL    HW245825   5.628  13.980   5.565
81310SOL     OW45826   5.583   3.063  12.746
81310SOL    HW145827   5.592   3.120  12.822
81310SOL    HW245828   5.653   2.998  12.756
81311SOL     OW45829   1.441   7.991  14.318
81311SOL    HW145830   1.419   7.927  14.386
81311SOL    HW245831   1.519   8.035  14.352
81312SOL     OW45832   5.408  13.380   1.618
81312SOL    HW145833   5.330  13.422   1.581
81312SOL    HW245834   5.378  13.295   1.649
81313SOL     OW45835  11.334   8.999  13.359
81313SOL    HW145836  11.239   8.989  13.349
81313SOL    HW245837  11.364   9.028  13.273
81314SOL     OW45838   6.040   3.853   2.368
81314SOL    HW145839   6.032   3.760   2.391
81314SOL    HW245840   5.957   3.892   2.397
81315SOL     OW45841   1.735   5.439   7.918
81315SOL    HW145842   1.687   5.454   7.999
81315SOL    HW245843   1.667   5.428   7.852
81316SOL     OW45844   1.464  13.099   3.794
81316SOL    HW145845   1.433  13.011   3.817
81316SOL    HW245846   1.392  13.157   3.815
81317SOL     OW45847   9.977  13.251   3.918
81317SOL    HW145848   9.929  13.256   4.001
81317SOL    HW245849  10.016  13.337   3.908
81318SOL     OW45850   6.166   1.356  10.042
81318SOL    HW145851   6.129   1.359  10.130
81318SOL    HW245852   6.175   1.263  10.022
81319SOL     OW45853   2.242   9.517  14.615
81319SOL    HW145854   2.247   9.431  14.657
81319SOL    HW245855   2.166   9.558  14.654
81320SOL     OW45856  12.903   5.199   4.755
81320SOL    HW145857  12.918   5.278   4.702
81320SOL    HW245858  12.865   5.136   4.694
81321SOL     OW45859   6.903   1.686   0.733
81321SOL    HW145860   6.872   1.706   0.821
81321SOL    HW245861   6.955   1.606   0.743
81322SOL     OW45862  10.715   6.873  13.893
81322SOL    HW145863  10.666   6.862  13.812
81322SOL    HW245864  10.792   6.926  13.868
81323SOL     OW45865   8.636  11.252   6.543
81323SOL    HW145866   8.541  11.255   6.534
81323SOL    HW245867   8.667  11.335   6.507
81324SOL     OW45868   6.436   7.568  13.542
81324SOL    HW145869   6.497   7.523  13.601
81324SOL    HW245870   6.359   7.512  13.541
81325SOL     OW45871  11.308   8.091  10.611
81325SOL    HW145872  11.389   8.137  10.588
81325SOL    HW245873  11.240   8.158  10.606
81326SOL     OW45874  10.825   6.571   3.887
81326SOL    HW145875  10.786   6.652   3.855
81326SOL    HW245876  10.849   6.591   3.977
81327SOL     OW45877   0.688   3.081  14.564
81327SOL    HW145878   0.608   3.029  14.559
81327SOL    HW245879   0.706   3.105  14.473
81328SOL     OW45880   4.730   4.191   3.083
81328SOL    HW145881   4.761   4.163   3.169
81328SOL    HW245882   4.650   4.239   3.100
81329SOL     OW45883   2.506   0.192   5.490
81329SOL    HW145884   2.439   0.247   5.532
81329SOL    HW245885   2.460   0.150   5.418
81330SOL     OW45886   2.144  10.372  11.711
81330SOL    HW145887   2.149  10.462  11.745
81330SOL    HW245888   2.233  10.337  11.723
81331SOL     OW45889   6.347  13.413  10.253
81331SOL    HW145890   6.381  13.500  10.233
81331SOL    HW245891   6.422  13.366  10.290
81332SOL     OW45892   0.879   0.183   0.907
81332SOL    HW145893   0.967   0.155   0.884
81332SOL    HW245894   0.823   0.109   0.884
81333SOL     OW45895  10.347   7.855  10.176
81333SOL    HW145896  10.342   7.811  10.261
81333SOL    HW245897  10.423   7.816  10.133
81334SOL     OW45898   9.520   5.767   6.179
81334SOL    HW145899   9.441   5.758   6.231
81334SOL    HW245900   9.569   5.687   6.197
81335SOL     OW45901  10.443   5.476  12.800
81335SOL    HW145902  10.437   5.519  12.885
81335SOL    HW245903  10.423   5.545  12.737
81336SOL     OW45904   7.149   6.781  13.972
81336SOL    HW145905   7.175   6.863  14.015
81336SOL    HW245906   7.129   6.807  13.882
81337SOL     OW45907  11.344   8.432   2.299
81337SOL    HW145908  11.400   8.356   2.317
81337SOL    HW245909  11.403   8.495   2.257
81338SOL     OW45910  11.040   3.713   5.633
81338SOL    HW145911  10.993   3.630   5.642
81338SOL    HW245912  11.089   3.704   5.552
81339SOL     OW45913  10.185  10.964   2.351
81339SOL    HW145914  10.102  11.011   2.360
81339SOL    HW245915  10.179  10.891   2.413
81340SOL     OW45916   4.374   3.736  14.239
81340SOL    HW145917   4.298   3.690  14.275
81340SOL    HW245918   4.367   3.724  14.144
81341SOL     OW45919   3.508   9.891   1.812
81341SOL    HW145920   3.506   9.908   1.717
81341SOL    HW245921   3.434   9.941   1.846
81342SOL     OW45922   6.326  13.345  11.197
81342SOL    HW145923   6.306  13.253  11.178
81342SOL    HW245924   6.346  13.347  11.290
81343SOL     OW45925   1.491   1.606   4.116
81343SOL    HW145926   1.519   1.537   4.177
81343SOL    HW245927   1.572   1.653   4.095
81344SOL     OW45928  14.714   2.195   2.386
81344SOL    HW145929  14.779   2.264   2.398
81344SOL    HW245930  14.723   2.168   2.295
81345SOL     OW45931   0.710   9.328  13.515
81345SOL    HW145932   0.632   9.342  13.462
81345SOL    HW245933   0.720   9.408  13.566
81346SOL     OW45934   0.085   9.540  14.302
81346SOL    HW145935   0.026   9.468  14.325
81346SOL    HW245936   0.170   9.512  14.335
81347SOL     OW45937   2.823   3.101   0.306
81347SOL    HW145938   2.912   3.069   0.316
81347SOL    HW245939   2.827   3.193   0.330
81348SOL     OW45940  14.365  11.151   3.908
81348SOL    HW145941  14.334  11.203   3.982
81348SOL    HW245942  14.320  11.188   3.832
81349SOL     OW45943   7.007   9.832   1.905
81349SOL    HW145944   7.048   9.876   1.979
81349SOL    HW245945   6.913   9.830   1.927
81350SOL     OW45946   7.951   2.065   4.565
81350SOL    HW145947   7.899   2.050   4.644
81350SOL    HW245948   7.947   2.160   4.551
81351SOL     OW45949  11.976  14.106   5.199
81351SOL    HW145950  11.912  14.168   5.233
81351SOL    HW245951  11.983  14.039   5.268
81352SOL     OW45952   7.873   8.936  12.852
81352SOL    HW145953   7.956   8.982  12.861
81352SOL    HW245954   7.874   8.901  12.763
81353SOL     OW45955  11.072   1.966  13.755
81353SOL    HW145956  11.085   2.017  13.675
81353SOL    HW245957  11.129   1.890  13.744
81354SOL     OW45958  11.193   9.618   6.956
81354SOL    HW145959  11.162   9.638   6.868
81354SOL    HW245960  11.160   9.531   6.976
81355SOL     OW45961   7.631  11.030  10.659
81355SOL    HW145962   7.726  11.045  10.653
81355SOL    HW245963   7.620  10.987  10.744
81356SOL     OW45964   1.302  14.465  12.325
81356SOL    HW145965   1.249  14.481  12.403
81356SOL    HW245966   1.277  14.534  12.264
81357SOL     OW45967   2.889  13.573  11.555
81357SOL    HW145968   2.949  13.611  11.489
81357SOL    HW245969   2.824  13.527  11.503
81358SOL     OW45970   4.049  11.885  11.403
81358SOL    HW145971   4.029  11.797  11.372
81358SOL    HW245972   4.015  11.942  11.333
81359SOL     OW45973   7.877  11.401   7.869
81359SOL    HW145974   7.818  11.467   7.904
81359SOL    HW245975   7.820  11.328   7.844
81360SOL     OW45976  13.244  10.765   8.942
81360SOL    HW145977  13.257  10.743   9.034
81360SOL    HW245978  13.242  10.680   8.897
81361SOL     OW45979   8.417  13.780   0.929
81361SOL    HW145980   8.406  13.858   0.874
81361SOL    HW245981   8.475  13.809   1.000
81362SOL     OW45982  13.049  14.426  14.088
81362SOL    HW145983  13.058  14.427  13.992
81362SOL    HW245984  12.966  14.472  14.104
81363SOL     OW45985   0.244   5.830   7.170
81363SOL    HW145986   0.243   5.735   7.157
81363SOL    HW245987   0.294   5.843   7.250
81364SOL     OW45988  11.536   9.865   6.929
81364SOL    HW145989  11.572   9.870   6.840
81364SOL    HW245990  11.575   9.786   6.966
81365SOL     OW45991   8.376  13.895   4.119
81365SOL    HW145992   8.319  13.827   4.155
81365SOL    HW245993   8.413  13.938   4.196
81366SOL     OW45994   1.095   8.347   1.377
81366SOL    HW145995   1.025   8.378   1.320
81366SOL    HW245996   1.065   8.370   1.465
81367SOL     OW45997  10.842   1.514   5.246
81367SOL    HW145998  10.835   1.562   5.163
81367SOL    HW245999  10.771   1.450   5.243
81368SOL     OW46000   2.116   1.893   6.699
81368SOL    HW146001   2.195   1.899   6.645
81368SOL    HW246002   2.121   1.807   6.740
81369SOL     OW46003   3.798  11.061   3.734
81369SOL    HW146004   3.783  11.130   3.798
81369SOL    HW246005   3.786  11.104   3.649
81370SOL     OW46006  11.139   3.991  13.248
81370SOL    HW146007  11.091   4.055  13.195
81370SOL    HW246008  11.171   4.042  13.323
81371SOL     OW46009  12.717   4.487   7.842
81371SOL    HW146010  12.641   4.515   7.791
81371SOL    HW246011  12.758   4.419   7.789
81372SOL     OW46012   2.569   4.666   3.318
81372SOL    HW146013   2.538   4.703   3.401
81372SOL    HW246014   2.639   4.605   3.344
81373SOL     OW46015   9.188   8.621   0.941
81373SOL    HW146016   9.282   8.600   0.940
81373SOL    HW246017   9.146   8.535   0.938
81374SOL     OW46018   6.001  10.573   7.098
81374SOL    HW146019   5.986  10.479   7.094
81374SOL    HW246020   6.097  10.582   7.105
81375SOL     OW46021   4.139  14.181   1.643
81375SOL    HW146022   4.144  14.270   1.608
81375SOL    HW246023   4.186  14.185   1.726
81376SOL     OW46024  10.969   3.605   3.960
81376SOL    HW146025  10.926   3.602   3.874
81376SOL    HW246026  11.010   3.519   3.970
81377SOL     OW46027   6.285   6.012  10.085
81377SOL    HW146028   6.328   5.932  10.053
81377SOL    HW246029   6.258   6.058  10.006
81378SOL     OW46030   8.714  13.947   6.051
81378SOL    HW146031   8.738  13.921   5.962
81378SOL    HW246032   8.619  13.961   6.047
81379SOL     OW46033   0.941   4.823   7.137
81379SOL    HW146034   0.901   4.775   7.210
81379SOL    HW246035   1.006   4.763   7.101
81380SOL     OW46036   4.445   7.687   0.448
81380SOL    HW146037   4.530   7.727   0.464
81380SOL    HW246038   4.456   7.637   0.368
81381SOL     OW46039   4.715   3.062  14.838
81381SOL    HW146040   4.714   2.978   0.012
81381SOL    HW246041   4.801   3.065  14.795
81382SOL     OW46042   2.468  10.457   8.570
81382SOL    HW146043   2.499  10.535   8.525
81382SOL    HW246044   2.504  10.383   8.520
81383SOL     OW46045   4.489  13.851   2.499
81383SOL    HW146046   4.420  13.821   2.558
81383SOL    HW246047   4.548  13.902   2.555
81384SOL     OW46048  13.454   3.775   7.157
81384SOL    HW146049  13.389   3.787   7.088
81384SOL    HW246050  13.537   3.801   7.116
81385SOL     OW46051  10.730   4.078   4.658
81385SOL    HW146052  10.733   4.081   4.562
81385SOL    HW246053  10.788   4.006   4.682
81386SOL     OW46054   9.039  10.647   6.818
81386SOL    HW146055   9.122  10.692   6.798
81386SOL    HW246056   9.054  10.608   6.904
81387SOL     OW46057   7.290   0.805   7.677
81387SOL    HW146058   7.333   0.845   7.752
81387SOL    HW246059   7.314   0.712   7.683
81388SOL     OW46060   2.221   4.587  10.470
81388SOL    HW146061   2.167   4.583  10.391
81388SOL    HW246062   2.250   4.678  10.474
81389SOL     OW46063   5.188   2.843  12.432
81389SOL    HW146064   5.262   2.837  12.493
81389SOL    HW246065   5.125   2.778  12.464
81390SOL     OW46066   2.427   3.615   8.780
81390SOL    HW146067   2.359   3.674   8.812
81390SOL    HW246068   2.483   3.670   8.725
81391SOL     OW46069  11.558   6.966   4.489
81391SOL    HW146070  11.624   6.926   4.431
81391SOL    HW246071  11.480   6.911   4.478
81392SOL     OW46072  11.886  12.912  11.442
81392SOL    HW146073  11.906  12.835  11.389
81392SOL    HW246074  11.860  12.877  11.527
81393SOL     OW46075   1.062  14.801  12.876
81393SOL    HW146076   1.071  14.786  12.970
81393SOL    HW246077   0.970  14.783  12.858
81394SOL     OW46078   1.490   5.003  13.120
81394SOL    HW146079   1.423   5.071  13.131
81394SOL    HW246080   1.471   4.964  13.035
81395SOL     OW46081   0.151   8.728   1.777
81395SOL    HW146082   0.063   8.698   1.799
81395SOL    HW246083   0.161   8.706   1.684
81396SOL     OW46084   0.314   8.418  14.792
81396SOL    HW146085   0.296   8.330  14.759
81396SOL    HW246086   0.408   8.431  14.776
81397SOL     OW46087  13.590  11.965   5.072
81397SOL    HW146088  13.659  11.953   5.137
81397SOL    HW246089  13.615  12.045   5.026
81398SOL     OW46090   9.125   8.566  10.646
81398SOL    HW146091   9.111   8.520  10.563
81398SOL    HW246092   9.191   8.513  10.692
81399SOL     OW46093   0.497   4.270   6.836
81399SOL    HW146094   0.448   4.246   6.915
81399SOL    HW246095   0.574   4.213   6.838
81400SOL     OW46096   0.046  13.168   7.630
81400SOL    HW146097  14.858  13.097   7.607
81400SOL    HW246098   0.062  13.213   7.547
81401SOL     OW46099  11.669  14.166  14.122
81401SOL    HW146100  11.629  14.253  14.125
81401SOL    HW246101  11.746  14.178  14.067
81402SOL     OW46102   7.925  10.701  11.468
81402SOL    HW146103   7.929  10.608  11.492
81402SOL    HW246104   8.000  10.741  11.511
81403SOL     OW46105  12.019   2.136  13.178
81403SOL    HW146106  12.052   2.199  13.114
81403SOL    HW246107  11.983   2.065  13.125
81404SOL     OW46108   3.577  10.933   6.765
81404SOL    HW146109   3.600  11.026   6.755
81404SOL    HW246110   3.533  10.910   6.683
81405SOL     OW46111   9.803   3.444   9.425
81405SOL    HW146112   9.856   3.414   9.500
81405SOL    HW246113   9.712   3.433   9.455
81406SOL     OW46114  13.933   6.522  12.221
81406SOL    HW146115  13.891   6.600  12.258
81406SOL    HW246116  13.877   6.449  12.247
81407SOL     OW46117  13.512   1.574   1.423
81407SOL    HW146118  13.553   1.487   1.426
81407SOL    HW246119  13.575   1.628   1.376
81408SOL     OW46120   0.307  13.419  12.562
81408SOL    HW146121   0.345  13.351  12.506
81408SOL    HW246122   0.298  13.377  12.648
81409SOL     OW46123   4.703   6.404   8.439
81409SOL    HW146124   4.794   6.417   8.467
81409SOL    HW246125   4.677   6.321   8.479
81410SOL     OW46126   6.097   4.814   9.128
81410SOL    HW146127   6.098   4.748   9.059
81410SOL    HW246128   6.182   4.858   9.121
81411SOL     OW46129   2.309  13.755   3.213
81411SOL    HW146130   2.223  13.798   3.215
81411SOL    HW246131   2.314  13.707   3.295
81412SOL     OW46132   9.871  10.867   6.459
81412SOL    HW146133   9.887  10.782   6.500
81412SOL    HW246134   9.789  10.856   6.412
81413SOL     OW46135   2.017  13.309   5.441
81413SOL    HW146136   2.047  13.394   5.411
81413SOL    HW246137   2.052  13.302   5.530
81414SOL     OW46138  13.709   3.364   4.202
81414SOL    HW146139  13.636   3.306   4.180
81414SOL    HW246140  13.787   3.309   4.195
81415SOL     OW46141  14.640   0.334   7.892
81415SOL    HW146142  14.628   0.254   7.943
81415SOL    HW246143  14.588   0.321   7.813
81416SOL     OW46144   1.648   4.423   2.003
81416SOL    HW146145   1.680   4.447   2.090
81416SOL    HW246146   1.663   4.329   1.997
81417SOL     OW46147  14.193   6.019  13.993
81417SOL    HW146148  14.202   5.943  13.936
81417SOL    HW246149  14.265   6.076  13.968
81418SOL     OW46150   4.773   5.586   9.366
81418SOL    HW146151   4.682   5.581   9.395
81418SOL    HW246152   4.790   5.680   9.355
81419SOL     OW46153   4.862   2.599  13.802
81419SOL    HW146154   4.914   2.673  13.772
81419SOL    HW246155   4.839   2.551  13.722
81420SOL     OW46156   2.216   9.034  11.404
81420SOL    HW146157   2.293   9.064  11.356
81420SOL    HW246158   2.203   8.944  11.376
81421SOL     OW46159  13.205  14.237   7.246
81421SOL    HW146160  13.122  14.196   7.222
81421SOL    HW246161  13.184  14.289   7.324
81422SOL     OW46162   7.353   6.785   1.265
81422SOL    HW146163   7.441   6.757   1.290
81422SOL    HW246164   7.330   6.851   1.331
81423SOL     OW46165   1.746  13.453   3.272
81423SOL    HW146166   1.659  13.415   3.265
81423SOL    HW246167   1.781  13.418   3.354
81424SOL     OW46168   3.532   6.417   8.807
81424SOL    HW146169   3.463   6.351   8.816
81424SOL    HW246170   3.536   6.460   8.892
81425SOL     OW46171  12.065  12.507  11.199
81425SOL    HW146172  12.051  12.414  11.180
81425SOL    HW246173  12.141  12.530  11.147
81426SOL     OW46174   3.068   1.265  12.592
81426SOL    HW146175   2.988   1.217  12.572
81426SOL    HW246176   3.045   1.322  12.666
81427SOL     OW46177   1.807   1.284  11.840
81427SOL    HW146178   1.831   1.255  11.752
81427SOL    HW246179   1.884   1.330  11.872
81428SOL     OW46180   6.785  12.086  11.203
81428SOL    HW146181   6.865  12.137  11.189
81428SOL    HW246182   6.809  11.997  11.177
81429SOL     OW46183   4.928   2.036   6.898
81429SOL    HW146184   5.011   2.057   6.856
81429SOL    HW246185   4.949   2.022   6.990
81430SOL     OW46186   4.517  12.590   6.932
81430SOL    HW146187   4.525  12.601   6.838
81430SOL    HW246188   4.438  12.537   6.944
81431SOL     OW46189   8.390  14.111   4.813
81431SOL    HW146190   8.452  14.157   4.756
81431SOL    HW246191   8.441  14.087   4.890
81432SOL     OW46192   6.560   5.992   6.548
81432SOL    HW146193   6.559   6.038   6.464
81432SOL    HW246194   6.609   6.050   6.606
81433SOL     OW46195   2.782   9.529   8.108
81433SOL    HW146196   2.755   9.608   8.060
81433SOL    HW246197   2.875   9.543   8.126
81434SOL     OW46198   9.845   3.419   4.304
81434SOL    HW146199   9.910   3.396   4.370
81434SOL    HW246200   9.819   3.509   4.326
81435SOL     OW46201   1.386  11.704   1.291
81435SOL    HW146202   1.398  11.795   1.266
81435SOL    HW246203   1.464  11.682   1.342
81436SOL     OW46204   5.312  11.285  10.248
81436SOL    HW146205   5.257  11.234  10.306
81436SOL    HW246206   5.380  11.322  10.304
81437SOL     OW46207   6.417   6.075   9.472
81437SOL    HW146208   6.356   6.137   9.433
81437SOL    HW246209   6.397   6.077   9.566
81438SOL     OW46210   6.438   3.547   5.236
81438SOL    HW146211   6.464   3.514   5.322
81438SOL    HW246212   6.434   3.642   5.247
81439SOL     OW46213  13.010   4.339   8.022
81439SOL    HW146214  12.944   4.304   8.082
81439SOL    HW246215  12.963   4.350   7.940
81440SOL     OW46216   2.291   3.739   3.763
81440SOL    HW146217   2.306   3.741   3.668
81440SOL    HW246218   2.210   3.790   3.775
81441SOL     OW46219  13.714   7.042   2.609
81441SOL    HW146220  13.710   6.953   2.575
81441SOL    HW246221  13.628   7.057   2.648
81442SOL     OW46222   2.228   0.431  12.917
81442SOL    HW146223   2.256   0.516  12.949
81442SOL    HW246224   2.309   0.381  12.907
81443SOL     OW46225   3.372  14.582  11.429
81443SOL    HW146226   3.282  14.608  11.407
81443SOL    HW246227   3.368  14.557  11.521
81444SOL     OW46228   2.720   3.565   4.461
81444SOL    HW146229   2.720   3.584   4.367
81444SOL    HW246230   2.679   3.478   4.468
81445SOL     OW46231   2.008   7.865   0.390
81445SOL    HW146232   2.004   7.772   0.369
81445SOL    HW246233   2.080   7.873   0.453
81446SOL     OW46234  14.368  12.624   2.201
81446SOL    HW146235  14.367  12.528   2.200
81446SOL    HW246236  14.455  12.647   2.166
81447SOL     OW46237  10.259   7.310  14.580
81447SOL    HW146238  10.262   7.231  14.525
81447SOL    HW246239  10.217   7.281  14.660
81448SOL     OW46240  13.283  14.480  10.865
81448SOL    HW146241  13.269  14.388  10.888
81448SOL    HW246242  13.341  14.477  10.789
81449SOL     OW46243  14.202   4.853  11.205
81449SOL    HW146244  14.206   4.879  11.298
81449SOL    HW246245  14.151   4.922  11.163
81450SOL     OW46246   1.417  13.984  11.020
81450SOL    HW146247   1.329  13.948  11.005
81450SOL    HW246248   1.451  13.999  10.931
81451SOL     OW46249   9.109   5.220   8.332
81451SOL    HW146250   9.083   5.257   8.247
81451SOL    HW246251   9.051   5.263   8.395
81452SOL     OW46252   9.627  13.600   3.669
81452SOL    HW146253   9.695  13.533   3.673
81452SOL    HW246254   9.636  13.649   3.751
81453SOL     OW46255   8.035  13.929   3.101
81453SOL    HW146256   8.024  13.893   3.013
81453SOL    HW246257   8.118  13.894   3.132
81454SOL     OW46258  13.479   1.533  11.439
81454SOL    HW146259  13.401   1.554  11.490
81454SOL    HW246260  13.458   1.451  11.394
81455SOL     OW46261   0.234  12.597  14.639
81455SOL    HW146262   0.306  12.657  14.621
81455SOL    HW246263   0.160  12.654  14.662
81456SOL     OW46264   1.583   3.408   2.875
81456SOL    HW146265   1.578   3.367   2.789
81456SOL    HW246266   1.598   3.501   2.856
81457SOL     OW46267  10.110   1.741   0.058
81457SOL    HW146268  10.111   1.754  14.835
81457SOL    HW246269  10.196   1.773   0.087
81458SOL     OW46270   9.321   9.963   3.376
81458SOL    HW146271   9.401   9.980   3.326
81458SOL    HW246272   9.251  10.004   3.325
81459SOL     OW46273  13.432  13.692   8.997
81459SOL    HW146274  13.404  13.708   9.087
81459SOL    HW246275  13.506  13.751   8.984
81460SOL     OW46276  10.976  12.912  14.701
81460SOL    HW146277  11.026  12.982  14.659
81460SOL    HW246278  11.020  12.832  14.674
81461SOL     OW46279  11.589  11.435   5.571
81461SOL    HW146280  11.560  11.400   5.487
81461SOL    HW246281  11.676  11.398   5.585
81462SOL     OW46282   0.772  14.070   5.318
81462SOL    HW146283   0.763  14.001   5.384
81462SOL    HW246284   0.739  14.031   5.238
81463SOL     OW46285   3.744   7.892   1.302
81463SOL    HW146286   3.758   7.837   1.226
81463SOL    HW246287   3.832   7.905   1.339
81464SOL     OW46288  12.319   1.823  10.107
81464SOL    HW146289  12.306   1.746  10.163
81464SOL    HW246290  12.278   1.895  10.155
81465SOL     OW46291  13.016  12.619   2.869
81465SOL    HW146292  13.085  12.679   2.898
81465SOL    HW246293  12.942  12.638   2.927
81466SOL     OW46294   7.997   0.588   7.991
81466SOL    HW146295   7.971   0.678   7.971
81466SOL    HW246296   7.956   0.569   8.075
81467SOL     OW46297   5.791  13.435   1.815
81467SOL    HW146298   5.819  13.526   1.823
81467SOL    HW246299   5.871  13.387   1.793
81468SOL     OW46300   5.198  11.504   6.134
81468SOL    HW146301   5.202  11.409   6.132
81468SOL    HW246302   5.199  11.526   6.228
81469SOL     OW46303   5.932  14.090   1.751
81469SOL    HW146304   5.864  14.023   1.744
81469SOL    HW246305   5.890  14.170   1.718
81470SOL     OW46306   0.865  11.481   4.204
81470SOL    HW146307   0.860  11.570   4.240
81470SOL    HW246308   0.949  11.478   4.159
81471SOL     OW46309   4.535   1.928  13.103
81471SOL    HW146310   4.442   1.950  13.112
81471SOL    HW246311   4.581   2.006  13.134
81472SOL     OW46312   0.829   1.433   1.162
81472SOL    HW146313   0.894   1.464   1.225
81472SOL    HW246314   0.863   1.463   1.077
81473SOL     OW46315   6.245  10.360   2.738
81473SOL    HW146316   6.305  10.422   2.697
81473SOL    HW246317   6.291  10.330   2.816
81474SOL     OW46318  11.108  13.113   3.529
81474SOL    HW146319  11.101  13.020   3.551
81474SOL    HW246320  11.060  13.122   3.447
81475SOL     OW46321   4.028   7.369   9.673
81475SOL    HW146322   4.054   7.447   9.623
81475SOL    HW246323   4.102   7.352   9.731
81476SOL     OW46324   5.892  11.138   1.205
81476SOL    HW146325   5.952  11.151   1.132
81476SOL    HW246326   5.817  11.194   1.185
81477SOL     OW46327   6.205   2.363   9.112
81477SOL    HW146328   6.183   2.379   9.020
81477SOL    HW246329   6.143   2.295   9.140
81478SOL     OW46330  12.700   6.098   0.381
81478SOL    HW146331  12.674   6.062   0.466
81478SOL    HW246332  12.659   6.184   0.378
81479SOL     OW46333  13.631   1.775  14.634
81479SOL    HW146334  13.536   1.774  14.649
81479SOL    HW246335  13.658   1.684  14.641
81480SOL     OW46336   2.923   6.627   5.162
81480SOL    HW146337   2.999   6.683   5.180
81480SOL    HW246338   2.961   6.543   5.134
81481SOL     OW46339   3.551  12.484  11.905
81481SOL    HW146340   3.500  12.564  11.900
81481SOL    HW246341   3.584  12.470  11.816
81482SOL     OW46342  12.121   3.624   6.844
81482SOL    HW146343  12.129   3.705   6.795
81482SOL    HW246344  12.209   3.608   6.878
81483SOL     OW46345  13.885   9.394  12.823
81483SOL    HW146346  13.888   9.301  12.845
81483SOL    HW246347  13.962   9.408  12.768
81484SOL     OW46348   1.566   9.431   3.620
81484SOL    HW146349   1.638   9.452   3.561
81484SOL    HW246350   1.593   9.466   3.705
81485SOL     OW46351  13.508  10.523  10.590
81485SOL    HW146352  13.570  10.595  10.595
81485SOL    HW246353  13.426  10.564  10.564
81486SOL     OW46354   2.366   6.010  11.910
81486SOL    HW146355   2.316   6.091  11.900
81486SOL    HW246356   2.425   6.027  11.984
81487SOL     OW46357   4.642  12.628  12.038
81487SOL    HW146358   4.671  12.611  11.949
81487SOL    HW246359   4.722  12.651  12.086
81488SOL     OW46360  10.594  13.239  10.524
81488SOL    HW146361  10.583  13.333  10.533
81488SOL    HW246362  10.535  13.202  10.590
81489SOL     OW46363  13.007  13.404  13.393
81489SOL    HW146364  13.025  13.326  13.341
81489SOL    HW246365  12.991  13.370  13.482
81490SOL     OW46366   1.512   6.371  13.602
81490SOL    HW146367   1.440   6.432  13.618
81490SOL    HW246368   1.492   6.333  13.516
81491SOL     OW46369   2.104   3.922  10.376
81491SOL    HW146370   2.180   3.979  10.360
81491SOL    HW246371   2.090   3.877  10.293
81492SOL     OW46372  12.002   5.002  11.109
81492SOL    HW146373  12.045   4.931  11.158
81492SOL    HW246374  12.061   5.018  11.036
81493SOL     OW46375   4.507   9.534   9.732
81493SOL    HW146376   4.448   9.515   9.805
81493SOL    HW246377   4.522   9.629   9.737
81494SOL     OW46378   9.207  12.176   4.608
81494SOL    HW146379   9.119  12.191   4.572
81494SOL    HW246380   9.194  12.172   4.703
81495SOL     OW46381   9.881   7.098  10.480
81495SOL    HW146382   9.878   7.171  10.419
81495SOL    HW246383   9.814   7.117  10.544
81496SOL     OW46384  11.488  13.414  10.005
81496SOL    HW146385  11.506  13.335  10.057
81496SOL    HW246386  11.414  13.456  10.050
81497SOL     OW46387   0.695  10.847   0.355
81497SOL    HW146388   0.716  10.840   0.449
81497SOL    HW246389   0.741  10.774   0.315
81498SOL     OW46390   0.600  12.498  12.478
81498SOL    HW146391   0.539  12.564  12.511
81498SOL    HW246392   0.583  12.420  12.531
81499SOL     OW46393  12.599  13.058   7.647
81499SOL    HW146394  12.511  13.026   7.668
81499SOL    HW246395  12.651  13.036   7.724
81500SOL     OW46396   4.842   6.610  10.454
81500SOL    HW146397   4.874   6.675  10.390
81500SOL    HW246398   4.914   6.602  10.517
81501SOL     OW46399   9.495  12.203   7.257
81501SOL    HW146400   9.570  12.256   7.230
81501SOL    HW246401   9.530  12.115   7.268
81502SOL     OW46402  14.452   5.862  10.079
81502SOL    HW146403  14.509   5.797  10.118
81502SOL    HW246404  14.460   5.848   9.984
81503SOL     OW46405   3.089   7.396   8.435
81503SOL    HW146406   3.036   7.431   8.507
81503SOL    HW246407   3.030   7.398   8.359
81504SOL     OW46408  10.051   1.979  10.960
81504SOL    HW146409  10.107   1.940  10.893
81504SOL    HW246410   9.972   2.005  10.912
81505SOL     OW46411   1.068   2.762   4.378
81505SOL    HW146412   1.043   2.725   4.463
81505SOL    HW246413   1.031   2.850   4.378
81506SOL     OW46414  11.705   7.525   0.857
81506SOL    HW146415  11.754   7.481   0.788
81506SOL    HW246416  11.771   7.543   0.925
81507SOL     OW46417   0.212   6.245   1.578
81507SOL    HW146418   0.146   6.270   1.642
81507SOL    HW246419   0.162   6.230   1.497
81508SOL     OW46420   9.486   3.084   1.230
81508SOL    HW146421   9.546   3.156   1.248
81508SOL    HW246422   9.511   3.015   1.292
81509SOL     OW46423   0.716  14.522   8.301
81509SOL    HW146424   0.794  14.494   8.349
81509SOL    HW246425   0.744  14.526   8.210
81510SOL     OW46426   7.593   4.066  14.285
81510SOL    HW146427   7.529   4.090  14.352
81510SOL    HW246428   7.623   3.978  14.311
81511SOL     OW46429  11.611   7.855   8.032
81511SOL    HW146430  11.591   7.859   7.938
81511SOL    HW246431  11.687   7.797   8.037
81512SOL     OW46432  10.021   1.448  12.616
81512SOL    HW146433  10.048   1.368  12.572
81512SOL    HW246434   9.983   1.502  12.547
81513SOL     OW46435  13.618   6.026   7.083
81513SOL    HW146436  13.657   6.101   7.127
81513SOL    HW246437  13.689   5.962   7.076
81514SOL     OW46438   4.092   0.917  14.326
81514SOL    HW146439   4.059   0.889  14.412
81514SOL    HW246440   4.014   0.921  14.271
81515SOL     OW46441   0.712   4.127   1.093
81515SOL    HW146442   0.697   4.033   1.086
81515SOL    HW246443   0.632   4.167   1.060
81516SOL     OW46444   4.505  11.613   8.328
81516SOL    HW146445   4.544  11.551   8.266
81516SOL    HW246446   4.450  11.560   8.385
81517SOL     OW46447  11.357  12.233   1.353
81517SOL    HW146448  11.442  12.277   1.364
81517SOL    HW246449  11.294  12.304   1.348
81518SOL     OW46450   3.595  14.509   9.985
81518SOL    HW146451   3.510  14.532  10.022
81518SOL    HW246452   3.645  14.475  10.059
81519SOL     OW46453   6.083   1.898   0.609
81519SOL    HW146454   5.991   1.895   0.636
81519SOL    HW246455   6.082   1.887   0.514
81520SOL     OW46456  13.440  10.365   5.992
81520SOL    HW146457  13.455  10.456   6.016
81520SOL    HW246458  13.526  10.333   5.965
81521SOL     OW46459   9.831  12.103   6.620
81521SOL    HW146460   9.890  12.064   6.555
81521SOL    HW246461   9.772  12.032   6.645
81522SOL     OW46462   5.847   8.317   6.644
81522SOL    HW146463   5.781   8.385   6.655
81522SOL    HW246464   5.930   8.364   6.636
81523SOL     OW46465   4.416  14.031   2.322
81523SOL    HW146466   4.428  13.972   2.397
81523SOL    HW246467   4.500  14.076   2.314
81524SOL     OW46468   8.159  14.280   9.403
81524SOL    HW146469   8.141  14.280   9.309
81524SOL    HW246470   8.145  14.189   9.429
81525SOL     OW46471   2.359   3.634   5.971
81525SOL    HW146472   2.391   3.546   5.990
81525SOL    HW246473   2.330   3.668   6.055
81526SOL     OW46474   5.972   8.934   0.304
81526SOL    HW146475   5.898   8.879   0.329
81526SOL    HW246476   5.937   9.023   0.306
81527SOL     OW46477  13.280   4.652  10.083
81527SOL    HW146478  13.188   4.630  10.096
81527SOL    HW246479  13.327   4.599  10.147
81528SOL     OW46480   4.773  10.287   2.899
81528SOL    HW146481   4.769  10.265   2.992
81528SOL    HW246482   4.708  10.231   2.857
81529SOL     OW46483   5.469   1.262  14.609
81529SOL    HW146484   5.518   1.255  14.690
81529SOL    HW246485   5.448   1.355  14.601
81530SOL     OW46486  14.438  14.798  11.958
81530SOL    HW146487  14.369  14.778  11.895
81530SOL    HW246488  14.396  14.790  12.044
81531SOL     OW46489   1.655   6.679   4.518
81531SOL    HW146490   1.705   6.757   4.543
81531SOL    HW246491   1.639   6.689   4.425
81532SOL     OW46492   3.777   9.552   8.997
81532SOL    HW146493   3.848   9.491   9.019
81532SOL    HW246494   3.706   9.527   9.056
81533SOL     OW46495   0.548   4.895   5.732
81533SOL    HW146496   0.456   4.914   5.713
81533SOL    HW246497   0.565   4.939   5.815
81534SOL     OW46498  12.987   0.001  13.818
81534SOL    HW146499  12.923   0.072  13.807
81534SOL    HW246500  13.052   0.036  13.878
81535SOL     OW46501   7.422   6.885  10.673
81535SOL    HW146502   7.342   6.836  10.691
81535SOL    HW246503   7.426   6.891  10.578
81536SOL     OW46504   5.239   1.060   8.874
81536SOL    HW146505   5.267   0.974   8.906
81536SOL    HW246506   5.310   1.119   8.898
81537SOL     OW46507   9.628   7.178   2.363
81537SOL    HW146508   9.694   7.241   2.334
81537SOL    HW246509   9.644   7.167   2.456
81538SOL     OW46510   4.525   5.925  10.779
81538SOL    HW146511   4.537   5.998  10.719
81538SOL    HW246512   4.529   5.965  10.866
81539SOL     OW46513   0.599  10.494   1.827
81539SOL    HW146514   0.575  10.521   1.738
81539SOL    HW246515   0.599  10.398   1.824
81540SOL     OW46516   6.379   8.011   7.079
81540SOL    HW146517   6.306   8.046   7.131
81540SOL    HW246518   6.424   7.951   7.138
81541SOL     OW46519   6.105  12.235   1.596
81541SOL    HW146520   6.164  12.310   1.592
81541SOL    HW246521   6.125  12.185   1.517
81542SOL     OW46522  13.205   7.170   6.767
81542SOL    HW146523  13.245   7.256   6.753
81542SOL    HW246524  13.146   7.159   6.692
81543SOL     OW46525  11.275   5.775   9.635
81543SOL    HW146526  11.260   5.706   9.700
81543SOL    HW246527  11.308   5.729   9.558
81544SOL     OW46528  11.580   1.992  11.024
81544SOL    HW146529  11.608   2.013  11.113
81544SOL    HW246530  11.567   1.897  11.026
81545SOL     OW46531  12.317   9.344   2.251
81545SOL    HW146532  12.392   9.401   2.234
81545SOL    HW246533  12.247   9.404   2.275
81546SOL     OW46534  13.611   1.566  14.405
81546SOL    HW146535  13.641   1.499  14.344
81546SOL    HW246536  13.691   1.608  14.437
81547SOL     OW46537   8.087   8.611   2.764
81547SOL    HW146538   8.007   8.622   2.816
81547SOL    HW246539   8.089   8.517   2.744
81548SOL     OW46540   4.764  13.543  13.406
81548SOL    HW146541   4.814  13.501  13.336
81548SOL    HW246542   4.820  13.537  13.483
81549SOL     OW46543   3.770  12.794  14.824
81549SOL    HW146544   3.703  12.728  14.835
81549SOL    HW246545   3.793  12.789  14.731
81550SOL     OW46546  14.415  12.299   6.861
81550SOL    HW146547  14.444  12.375   6.811
81550SOL    HW246548  14.473  12.228   6.834
81551SOL     OW46549   6.127   7.714   1.004
81551SOL    HW146550   6.053   7.689   1.060
81551SOL    HW246551   6.114   7.807   0.989
81552SOL     OW46552   0.993   7.802   3.937
81552SOL    HW146553   0.937   7.725   3.948
81552SOL    HW246554   1.082   7.767   3.931
81553SOL     OW46555   1.853   4.256   3.671
81553SOL    HW146556   1.839   4.267   3.765
81553SOL    HW246557   1.917   4.324   3.649
81554SOL     OW46558  11.534   9.962   1.514
81554SOL    HW146559  11.578  10.047   1.512
81554SOL    HW246560  11.445   9.980   1.482
81555SOL     OW46561   4.604   4.485  14.844
81555SOL    HW146562   4.577   4.531  14.764
81555SOL    HW246563   4.556   4.528   0.042
81556SOL     OW46564   5.100   6.751  11.790
81556SOL    HW146565   5.081   6.718  11.702
81556SOL    HW246566   5.099   6.674  11.846
81557SOL     OW46567   7.971   3.485   7.385
81557SOL    HW146568   7.875   3.480   7.390
81557SOL    HW246569   7.988   3.576   7.359
81558SOL     OW46570   3.480  11.695   9.573
81558SOL    HW146571   3.543  11.766   9.588
81558SOL    HW246572   3.412  11.710   9.639
81559SOL     OW46573  10.722   2.939  11.311
81559SOL    HW146574  10.685   2.934  11.223
81559SOL    HW246575  10.774   3.020  11.310
81560SOL     OW46576   6.110   1.115   7.965
81560SOL    HW146577   6.032   1.081   8.009
81560SOL    HW246578   6.089   1.205   7.943
81561SOL     OW46579  11.776   6.889   5.041
81561SOL    HW146580  11.845   6.826   5.022
81561SOL    HW246581  11.807   6.935   5.119
81562SOL     OW46582   7.618   0.356   0.227
81562SOL    HW146583   7.602   0.367   0.133
81562SOL    HW246584   7.558   0.417   0.269
81563SOL     OW46585   4.059  13.368   3.670
81563SOL    HW146586   4.106  13.355   3.588
81563SOL    HW246587   4.069  13.461   3.689
81564SOL     OW46588   4.267  12.784   5.953
81564SOL    HW146589   4.337  12.837   5.991
81564SOL    HW246590   4.246  12.826   5.870
81565SOL     OW46591   6.202   0.473  11.204
81565SOL    HW146592   6.256   0.530  11.149
81565SOL    HW246593   6.265   0.425  11.257
81566SOL     OW46594  10.742  13.818   4.434
81566SOL    HW146595  10.697  13.739   4.404
81566SOL    HW246596  10.773  13.796   4.522
81567SOL     OW46597   4.417  11.719   2.575
81567SOL    HW146598   4.340  11.699   2.629
81567SOL    HW246599   4.405  11.667   2.496
81568SOL     OW46600   9.762   3.926  13.946
81568SOL    HW146601   9.684   3.962  13.904
81568SOL    HW246602   9.744   3.832  13.954
81569SOL     OW46603  13.437  11.536   9.796
81569SOL    HW146604  13.376  11.568   9.729
81569SOL    HW246605  13.445  11.610   9.857
81570SOL     OW46606   3.176  12.583  11.971
81570SOL    HW146607   3.086  12.607  11.990
81570SOL    HW246608   3.174  12.487  11.963
81571SOL     OW46609  13.802   7.763  11.845
81571SOL    HW146610  13.895   7.775  11.828
81571SOL    HW246611  13.770   7.712  11.771
81572SOL     OW46612   5.775   5.375   6.845
81572SOL    HW146613   5.701   5.316   6.834
81572SOL    HW246614   5.780   5.390   6.940
81573SOL     OW46615  11.191  14.114  12.190
81573SOL    HW146616  11.129  14.175  12.149
81573SOL    HW246617  11.151  14.093  12.274
81574SOL     OW46618  14.697   1.193   5.824
81574SOL    HW146619  14.606   1.221   5.825
81574SOL    HW246620  14.712   1.156   5.911
81575SOL     OW46621   5.165   2.058  11.280
81575SOL    HW146622   5.147   1.964  11.272
81575SOL    HW246623   5.235   2.063  11.345
81576SOL     OW46624  14.557   9.307   6.270
81576SOL    HW146625  14.523   9.223   6.300
81576SOL    HW246626  14.531   9.369   6.339
81577SOL     OW46627   2.078  12.110  11.371
81577SOL    HW146628   2.000  12.160  11.348
81577SOL    HW246629   2.093  12.053  11.295
81578SOL     OW46630   0.849   7.799  14.320
81578SOL    HW146631   0.786   7.871  14.317
81578SOL    HW246632   0.867   7.779  14.229
81579SOL     OW46633   0.195   7.807   6.516
81579SOL    HW146634   0.214   7.857   6.437
81579SOL    HW246635   0.130   7.859   6.563
81580SOL     OW46636  10.934  14.491   8.482
81580SOL    HW146637  10.959  14.583   8.483
81580SOL    HW246638  10.884  14.478   8.563
81581SOL     OW46639  12.075   5.715   3.567
81581SOL    HW146640  12.150   5.754   3.612
81581SOL    HW246641  12.034   5.659   3.632
81582SOL     OW46642  10.148   1.801  10.767
81582SOL    HW146643  10.211   1.827  10.700
81582SOL    HW246644  10.094   1.735  10.725
81583SOL     OW46645  14.093   8.925   4.624
81583SOL    HW146646  14.061   8.856   4.566
81583SOL    HW246647  14.186   8.932   4.604
81584SOL     OW46648   5.114   0.482   7.561
81584SOL    HW146649   5.138   0.486   7.469
81584SOL    HW246650   5.161   0.406   7.595
81585SOL     OW46651   5.962  10.008  11.161
81585SOL    HW146652   5.894  10.018  11.228
81585SOL    HW246653   5.969   9.913  11.149
81586SOL     OW46654   1.801   2.138   8.255
81586SOL    HW146655   1.724   2.164   8.305
81586SOL    HW246656   1.777   2.053   8.218
81587SOL     OW46657   0.155   5.933   0.387
81587SOL    HW146658   0.225   5.878   0.421
81587SOL    HW246659   0.150   5.910   0.294
81588SOL     OW46660  14.359  14.480  11.444
81588SOL    HW146661  14.276  14.529  11.444
81588SOL    HW246662  14.411  14.522  11.377
81589SOL     OW46663   0.021  14.121  12.450
81589SOL    HW146664   0.065  14.170  12.520
81589SOL    HW246665  14.833  14.063  12.496
81590SOL     OW46666   9.612   9.678   0.940
81590SOL    HW146667   9.552   9.708   0.872
81590SOL    HW246668   9.655   9.758   0.971
81591SOL     OW46669  10.660   1.055   6.891
81591SOL    HW146670  10.662   0.963   6.914
81591SOL    HW246671  10.568   1.079   6.896
81592SOL     OW46672   4.617   8.366   1.393
81592SOL    HW146673   4.540   8.330   1.436
81592SOL    HW246674   4.615   8.329   1.305
81593SOL     OW46675  10.172   1.276   0.936
81593SOL    HW146676  10.123   1.220   0.875
81593SOL    HW246677  10.157   1.237   1.022
81594SOL     OW46678  11.167  14.287   0.001
81594SOL    HW146679  11.242  14.316  14.821
81594SOL    HW246680  11.183  14.194   0.017
81595SOL     OW46681   8.738   0.453   2.194
81595SOL    HW146682   8.649   0.489   2.193
81595SOL    HW246683   8.794   0.529   2.179
81596SOL     OW46684   1.878   6.907  13.069
81596SOL    HW146685   1.784   6.911  13.050
81596SOL    HW246686   1.919   6.917  12.983
81597SOL     OW46687   8.888   2.151  14.053
81597SOL    HW146688   8.981   2.163  14.033
81597SOL    HW246689   8.849   2.237  14.038
81598SOL     OW46690   5.575   1.151   1.179
81598SOL    HW146691   5.614   1.069   1.210
81598SOL    HW246692   5.589   1.213   1.251
81599SOL     OW46693  10.106   1.537   2.350
81599SOL    HW146694  10.191   1.579   2.336
81599SOL    HW246695  10.049   1.609   2.379
81600SOL     OW46696   3.099   9.946   7.238
81600SOL    HW146697   3.191   9.946   7.213
81600SOL    HW246698   3.059  10.013   7.182
81601SOL     OW46699   2.285  12.787  12.422
81601SOL    HW146700   2.320  12.846  12.489
81601SOL    HW246701   2.209  12.834  12.386
81602SOL     OW46702   1.694   3.404   8.995
81602SOL    HW146703   1.692   3.309   9.005
81602SOL    HW246704   1.761   3.420   8.929
81603SOL     OW46705  14.631   8.531   0.771
81603SOL    HW146706  14.592   8.463   0.716
81603SOL    HW246707  14.631   8.494   0.859
81604SOL     OW46708   2.841   2.233   5.820
81604SOL    HW146709   2.851   2.148   5.864
81604SOL    HW246710   2.898   2.292   5.871
81605SOL     OW46711   6.104   4.259  11.168
81605SOL    HW146712   6.141   4.293  11.087
81605SOL    HW246713   6.137   4.317  11.236
81606SOL     OW46714  12.191  12.048   6.573
81606SOL    HW146715  12.194  11.952   6.576
81606SOL    HW246716  12.100  12.069   6.555
81607SOL     OW46717   7.998   3.680   2.604
81607SOL    HW146718   7.961   3.768   2.619
81607SOL    HW246719   8.038   3.685   2.517
81608SOL     OW46720   5.487  11.910  12.451
81608SOL    HW146721   5.473  11.849  12.524
81608SOL    HW246722   5.406  11.906  12.401
81609SOL     OW46723   1.714   6.483  11.998
81609SOL    HW146724   1.727   6.532  11.917
81609SOL    HW246725   1.713   6.549  12.067
81610SOL     OW46726   6.041   0.405  12.316
81610SOL    HW146727   6.109   0.361  12.367
81610SOL    HW246728   5.960   0.387  12.363
81611SOL     OW46729   5.211   6.832   1.217
81611SOL    HW146730   5.147   6.853   1.285
81611SOL    HW246731   5.272   6.771   1.259
81612SOL     OW46732   1.431   2.437  11.664
81612SOL    HW146733   1.338   2.421  11.649
81612SOL    HW246734   1.449   2.517  11.614
81613SOL     OW46735  10.343   5.864   1.970
81613SOL    HW146736  10.384   5.819   2.043
81613SOL    HW246737  10.414   5.912   1.927
81614SOL     OW46738   7.764   4.438  10.914
81614SOL    HW146739   7.801   4.356  10.883
81614SOL    HW246740   7.737   4.484  10.835
81615SOL     OW46741   3.602   4.551   3.840
81615SOL    HW146742   3.668   4.597   3.891
81615SOL    HW246743   3.611   4.459   3.865
81616SOL     OW46744  11.984   4.652  13.696
81616SOL    HW146745  11.974   4.747  13.700
81616SOL    HW246746  11.964   4.622  13.785
81617SOL     OW46747  12.318   4.457   2.341
81617SOL    HW146748  12.335   4.386   2.403
81617SOL    HW246749  12.261   4.417   2.275
81618SOL     OW46750   6.307  13.624   7.263
81618SOL    HW146751   6.267  13.687   7.323
81618SOL    HW246752   6.282  13.538   7.298
81619SOL     OW46753   9.465   6.237   2.094
81619SOL    HW146754   9.467   6.141   2.092
81619SOL    HW246755   9.484   6.263   2.004
81620SOL     OW46756  10.786  12.113   0.195
81620SOL    HW146757  10.726  12.187   0.183
81620SOL    HW246758  10.864  12.150   0.235
81621SOL     OW46759   0.982   0.080  10.729
81621SOL    HW146760   1.069   0.040  10.721
81621SOL    HW246761   0.921   0.007  10.720
81622SOL     OW46762  13.605  13.693  13.216
81622SOL    HW146763  13.656  13.621  13.179
81622SOL    HW246764  13.596  13.672  13.309
81623SOL     OW46765   4.836   2.822   4.775
81623SOL    HW146766   4.859   2.794   4.687
81623SOL    HW246767   4.775   2.895   4.761
81624SOL     OW46768   3.738   8.983   0.293
81624SOL    HW146769   3.664   8.932   0.326
81624SOL    HW246770   3.801   8.985   0.366
81625SOL     OW46771   9.910   4.816  11.653
81625SOL    HW146772   9.885   4.889  11.709
81625SOL    HW246773   9.832   4.761  11.646
81626SOL     OW46774  14.350  13.382   9.702
81626SOL    HW146775  14.281  13.421   9.756
81626SOL    HW246776  14.367  13.297   9.743
81627SOL     OW46777   9.854   2.193  13.037
81627SOL    HW146778   9.839   2.231  13.123
81627SOL    HW246779   9.769   2.156  13.013
81628SOL     OW46780  11.190   7.678   4.458
81628SOL    HW146781  11.195   7.624   4.379
81628SOL    HW246782  11.129   7.748   4.435
81629SOL     OW46783  11.360   9.912  14.378
81629SOL    HW146784  11.369   9.913  14.283
81629SOL    HW246785  11.396   9.997  14.406
81630SOL     OW46786   9.965   2.068   4.267
81630SOL    HW146787   9.904   2.075   4.340
81630SOL    HW246788   9.965   1.974   4.245
81631SOL     OW46789   2.533   7.932  10.106
81631SOL    HW146790   2.537   7.855  10.162
81631SOL    HW246791   2.595   7.913  10.035
81632SOL     OW46792   8.260   7.922   6.780
81632SOL    HW146793   8.235   8.006   6.741
81632SOL    HW246794   8.176   7.882   6.806
81633SOL     OW46795  12.960   8.052   5.591
81633SOL    HW146796  12.957   8.133   5.540
81633SOL    HW246797  12.922   7.986   5.532
81634SOL     OW46798  10.846   1.630   4.961
81634SOL    HW146799  10.861   1.668   4.875
81634SOL    HW246800  10.756   1.598   4.958
81635SOL     OW46801   6.351   5.425  10.065
81635SOL    HW146802   6.267   5.459  10.037
81635SOL    HW246803   6.403   5.503  10.086
81636SOL     OW46804  12.048  12.929   3.641
81636SOL    HW146805  11.977  12.967   3.693
81636SOL    HW246806  12.114  12.998   3.636
81637SOL     OW46807   6.674   0.364   8.184
81637SOL    HW146808   6.759   0.365   8.229
81637SOL    HW246809   6.614   0.408   8.245
81638SOL     OW46810   9.229  10.390   8.254
81638SOL    HW146811   9.318  10.370   8.225
81638SOL    HW246812   9.187  10.304   8.263
81639SOL     OW46813  14.863   4.812  14.820
81639SOL    HW146814   0.082   4.839  14.827
81639SOL    HW246815  14.861   4.723  14.856
81640SOL     OW46816  13.544   7.246  13.243
81640SOL    HW146817  13.522   7.333  13.278
81640SOL    HW246818  13.463   7.217  13.200
81641SOL     OW46819   7.691   6.631   8.190
81641SOL    HW146820   7.691   6.718   8.150
81641SOL    HW246821   7.769   6.589   8.155
81642SOL     OW46822   7.355  12.580  11.309
81642SOL    HW146823   7.445  12.562  11.335
81642SOL    HW246824   7.361  12.608  11.218
81643SOL     OW46825  11.391   3.684   4.952
81643SOL    HW146826  11.372   3.668   5.044
81643SOL    HW246827  11.412   3.777   4.947
81644SOL     OW46828   2.050   4.452   1.563
81644SOL    HW146829   2.023   4.544   1.555
81644SOL    HW246830   1.971   4.402   1.543
81645SOL     OW46831   7.671   6.570   0.384
81645SOL    HW146832   7.675   6.660   0.352
81645SOL    HW246833   7.742   6.525   0.338
81646SOL     OW46834   7.698   9.956  11.901
81646SOL    HW146835   7.714   9.867  11.932
81646SOL    HW246836   7.728  10.012  11.973
81647SOL     OW46837  13.465  10.854   4.404
81647SOL    HW146838  13.450  10.883   4.494
81647SOL    HW246839  13.514  10.772   4.413
81648SOL     OW46840   4.936   6.836   0.603
81648SOL    HW146841   4.909   6.793   0.522
81648SOL    HW246842   4.865   6.818   0.665
81649SOL     OW46843  10.501   1.711   3.248
81649SOL    HW146844  10.425   1.673   3.290
81649SOL    HW246845  10.465   1.773   3.185
81650SOL     OW46846  14.342   3.627  13.174
81650SOL    HW146847  14.288   3.668  13.241
81650SOL    HW246848  14.284   3.563  13.133
81651SOL     OW46849   8.554  13.111   6.382
81651SOL    HW146850   8.588  13.115   6.293
81651SOL    HW246851   8.480  13.051   6.377
81652SOL     OW46852   7.973   0.003   8.043
81652SOL    HW146853   7.913  14.801   8.049
81652SOL    HW246854   7.972   0.027   7.950
81653SOL     OW46855   3.558  13.155  12.514
81653SOL    HW146856   3.469  13.131  12.488
81653SOL    HW246857   3.613  13.122  12.443
81654SOL     OW46858  13.489   4.934  12.576
81654SOL    HW146859  13.510   5.016  12.621
81654SOL    HW246860  13.559   4.924  12.511
81655SOL     OW46861   0.762   8.964   5.680
81655SOL    HW146862   0.769   8.884   5.629
81655SOL    HW246863   0.847   9.007   5.669
81656SOL     OW46864   7.448   4.925   3.975
81656SOL    HW146865   7.400   4.842   3.969
81656SOL    HW246866   7.540   4.899   3.982
81657SOL     OW46867  11.593   4.800  11.183
81657SOL    HW146868  11.636   4.876  11.143
81657SOL    HW246869  11.550   4.834  11.261
81658SOL     OW46870   5.078   5.712   1.891
81658SOL    HW146871   5.160   5.670   1.865
81658SOL    HW246872   5.029   5.720   1.809
81659SOL     OW46873   4.180   7.884   4.335
81659SOL    HW146874   4.230   7.955   4.294
81659SOL    HW246875   4.130   7.845   4.263
81660SOL     OW46876   1.408  10.321   6.053
81660SOL    HW146877   1.317  10.348   6.058
81660SOL    HW246878   1.457  10.401   6.074
81661SOL     OW46879   2.953   9.827   7.901
81661SOL    HW146880   2.866   9.826   7.940
81661SOL    HW246881   3.008   9.781   7.964
81662SOL     OW46882  11.842  14.731   6.600
81662SOL    HW146883  11.877  14.757   6.515
81662SOL    HW246884  11.750  14.708   6.583
81663SOL     OW46885  10.750   5.350   3.329
81663SOL    HW146886  10.681   5.407   3.294
81663SOL    HW246887  10.772   5.388   3.414
81664SOL     OW46888  12.134   8.701  10.016
81664SOL    HW146889  12.138   8.790   9.981
81664SOL    HW246890  12.181   8.647   9.953
81665SOL     OW46891   5.181   8.095   7.413
81665SOL    HW146892   5.173   8.189   7.404
81665SOL    HW246893   5.258   8.082   7.468
81666SOL     OW46894  13.929   3.617   5.577
81666SOL    HW146895  13.891   3.544   5.529
81666SOL    HW246896  13.857   3.678   5.590
81667SOL     OW46897   6.912   6.703   9.088
81667SOL    HW146898   7.002   6.703   9.057
81667SOL    HW246899   6.895   6.613   9.113
81668SOL     OW46900   2.528   7.515   0.083
81668SOL    HW146901   2.580   7.482   0.157
81668SOL    HW246902   2.593   7.536   0.016
81669SOL     OW46903   8.431  12.411   0.170
81669SOL    HW146904   8.386  12.370   0.096
81669SOL    HW246905   8.511  12.448   0.133
81670SOL     OW46906  14.444   6.925   3.229
81670SOL    HW146907  14.438   6.829   3.225
81670SOL    HW246908  14.372   6.951   3.287
81671SOL     OW46909   3.573   3.269   2.042
81671SOL    HW146910   3.489   3.257   2.085
81671SOL    HW246911   3.563   3.350   1.991
81672SOL     OW46912   9.333   3.754   2.352
81672SOL    HW146913   9.363   3.843   2.331
81672SOL    HW246914   9.300   3.760   2.441
81673SOL     OW46915   0.060  10.693   1.750
81673SOL    HW146916   0.095  10.608   1.776
81673SOL    HW246917  14.838  10.677   1.737
81674SOL     OW46918   2.064   1.979   0.415
81674SOL    HW146919   2.104   2.057   0.377
81674SOL    HW246920   2.008   1.944   0.345
81675SOL     OW46921   8.933   6.268   1.308
81675SOL    HW146922   8.921   6.289   1.401
81675SOL    HW246923   8.873   6.326   1.262
81676SOL     OW46924   4.254   5.686   7.798
81676SOL    HW146925   4.243   5.781   7.795
81676SOL    HW246926   4.190   5.657   7.863
81677SOL     OW46927   4.204   5.781   6.338
81677SOL    HW146928   4.184   5.770   6.431
81677SOL    HW246929   4.120   5.774   6.294
81678SOL     OW46930  11.686  11.781   7.051
81678SOL    HW146931  11.729  11.762   6.968
81678SOL    HW246932  11.748  11.835   7.099
81679SOL     OW46933   7.848   6.629  12.075
81679SOL    HW146934   7.757   6.601  12.087
81679SOL    HW246935   7.876   6.657  12.161
81680SOL     OW46936  14.689   6.953   6.340
81680SOL    HW146937  14.648   6.896   6.405
81680SOL    HW246938  14.630   6.950   6.265
81681SOL     OW46939  10.423   3.831   2.916
81681SOL    HW146940  10.380   3.757   2.958
81681SOL    HW246941  10.496   3.793   2.868
81682SOL     OW46942   8.051  12.015   0.322
81682SOL    HW146943   8.140  12.050   0.327
81682SOL    HW246944   8.033  12.007   0.228
81683SOL     OW46945   9.810   8.129   1.844
81683SOL    HW146946   9.835   8.047   1.801
81683SOL    HW246947   9.754   8.174   1.781
81684SOL     OW46948   7.528  13.184   3.044
81684SOL    HW146949   7.619  13.164   3.065
81684SOL    HW246950   7.491  13.100   3.017
81685SOL     OW46951  13.082   5.084  14.265
81685SOL    HW146952  13.050   5.012  14.210
81685SOL    HW246953  13.126   5.039  14.338
81686SOL     OW46954   2.055   7.757  13.521
81686SOL    HW146955   2.005   7.785  13.597
81686SOL    HW246956   2.113   7.688  13.553
81687SOL     OW46957   1.322   2.659  11.355
81687SOL    HW146958   1.379   2.586  11.332
81687SOL    HW246959   1.377   2.737  11.342
81688SOL     OW46960   3.366  11.872  10.369
81688SOL    HW146961   3.450  11.866  10.324
81688SOL    HW246962   3.341  11.964  10.360
81689SOL     OW46963   8.306   6.587  11.949
81689SOL    HW146964   8.245   6.544  11.889
81689SOL    HW246965   8.282   6.680  11.944
81690SOL     OW46966  13.330   4.069   5.062
81690SOL    HW146967  13.421   4.095   5.049
81690SOL    HW246968  13.334   3.993   5.120
81691SOL     OW46969   9.622  12.952   8.591
81691SOL    HW146970   9.622  13.045   8.567
81691SOL    HW246971   9.700  12.941   8.645
81692SOL     OW46972   2.713   9.800   2.210
81692SOL    HW146973   2.629   9.842   2.192
81692SOL    HW246974   2.778   9.853   2.163
81693SOL     OW46975  13.008  13.859  12.835
81693SOL    HW146976  13.050  13.909  12.905
81693SOL    HW246977  12.971  13.783  12.878
81694SOL     OW46978   8.890   8.575   1.070
81694SOL    HW146979   8.845   8.511   1.126
81694SOL    HW246980   8.929   8.637   1.132
81695SOL     OW46981   4.678   9.089   3.286
81695SOL    HW146982   4.688   9.098   3.191
81695SOL    HW246983   4.763   9.113   3.322
81696SOL     OW46984   8.641  12.708   9.853
81696SOL    HW146985   8.648  12.785   9.796
81696SOL    HW246986   8.611  12.638   9.794
81697SOL     OW46987  12.007  14.138   9.847
81697SOL    HW146988  11.953  14.164   9.922
81697SOL    HW246989  12.054  14.217   9.823
81698SOL     OW46990  11.782   3.061   0.003
81698SOL    HW146991  11.869   3.034  14.846
81698SOL    HW246992  11.773   3.023   0.091
81699SOL     OW46993  12.459   7.042  13.680
81699SOL    HW146994  12.403   7.119  13.667
81699SOL    HW246995  12.517   7.068  13.751
81700SOL     OW46996  10.470   8.983   7.992
81700SOL    HW146997  10.383   8.979   8.033
81700SOL    HW246998  10.513   9.056   8.036
81701SOL     OW46999  14.240  10.314   0.811
81701SOL    HW147000  14.154  10.313   0.853
81701SOL    HW247001  14.258  10.407   0.797
81702SOL     OW47002   6.392   1.189  12.977
81702SOL    HW147003   6.297   1.197  12.983
81702SOL    HW247004   6.423   1.278  12.957
81703SOL     OW47005   0.364   5.035  12.037
81703SOL    HW147006   0.413   5.020  11.956
81703SOL    HW247007   0.284   5.079  12.009
81704SOL     OW47008   9.322  13.598   6.186
81704SOL    HW147009   9.343  13.525   6.243
81704SOL    HW247010   9.386  13.666   6.208
81705SOL     OW47011   0.443   9.777   7.958
81705SOL    HW147012   0.434   9.751   8.049
81705SOL    HW247013   0.476   9.867   7.962
81706SOL     OW47014  12.072   3.620   0.278
81706SOL    HW147015  12.135   3.628   0.206
81706SOL    HW247016  12.126   3.609   0.356
81707SOL     OW47017  11.259   5.710   6.652
81707SOL    HW147018  11.288   5.772   6.719
81707SOL    HW247019  11.173   5.742   6.625
81708SOL     OW47020   2.362   4.480   5.019
81708SOL    HW147021   2.454   4.489   4.992
81708SOL    HW247022   2.364   4.408   5.083
81709SOL     OW47023   7.096   8.811   6.816
81709SOL    HW147024   7.068   8.891   6.860
81709SOL    HW247025   7.187   8.799   6.844
81710SOL     OW47026  13.609  12.921   1.101
81710SOL    HW147027  13.549  12.994   1.089
81710SOL    HW247028  13.590  12.887   1.188
81711SOL     OW47029   3.634   6.235  14.349
81711SOL    HW147030   3.711   6.289  14.331
81711SOL    HW247031   3.563   6.298  14.359
81712SOL     OW47032   4.635   1.903  13.390
81712SOL    HW147033   4.556   1.954  13.407
81712SOL    HW247034   4.632   1.832  13.454
81713SOL     OW47035   6.347   6.021  11.781
81713SOL    HW147036   6.417   6.048  11.722
81713SOL    HW247037   6.304   5.948  11.736
81714SOL     OW47038   6.157  13.736   7.810
81714SOL    HW147039   6.067  13.769   7.813
81714SOL    HW247040   6.211  13.814   7.822
81715SOL     OW47041   1.288  14.248   8.751
81715SOL    HW147042   1.338  14.223   8.829
81715SOL    HW247043   1.219  14.181   8.745
81716SOL     OW47044  10.696  11.479  13.720
81716SOL    HW147045  10.631  11.519  13.662
81716SOL    HW247046  10.773  11.535  13.712
81717SOL     OW47047  14.025   8.943  13.029
81717SOL    HW147048  14.019   8.848  13.017
81717SOL    HW247049  13.954   8.979  12.976
81718SOL     OW47050   5.486   7.045   6.723
81718SOL    HW147051   5.459   6.953   6.713
81718SOL    HW247052   5.415   7.095   6.682
81719SOL     OW47053   5.794   1.053   7.005
81719SOL    HW147054   5.711   1.094   6.981
81719SOL    HW247055   5.862   1.109   6.968
81720SOL     OW47056  14.033   1.391   0.957
81720SOL    HW147057  13.978   1.441   0.896
81720SOL    HW247058  13.979   1.383   1.036
81721SOL     OW47059  10.278   8.456   6.361
81721SOL    HW147060  10.335   8.428   6.289
81721SOL    HW247061  10.190   8.430   6.335
81722SOL     OW47062  14.086   1.562   0.493
81722SOL    HW147063  14.046   1.532   0.411
81722SOL    HW247064  14.180   1.564   0.474
81723SOL     OW47065   5.292   8.582   5.813
81723SOL    HW147066   5.211   8.629   5.832
81723SOL    HW247067   5.357   8.621   5.872
81724SOL     OW47068   3.245   1.366   1.456
81724SOL    HW147069   3.211   1.453   1.438
81724SOL    HW247070   3.246   1.323   1.370
81725SOL     OW47071  12.076   4.042  12.537
81725SOL    HW147072  12.149   3.990  12.505
81725SOL    HW247073  12.068   4.114  12.474
81726SOL     OW47074   4.412   5.019  14.324
81726SOL    HW147075   4.373   5.065  14.398
81726SOL    HW247076   4.457   5.087  14.274
81727SOL     OW47077   4.653   2.725  10.464
81727SOL    HW147078   4.615   2.662  10.403
81727SOL    HW247079   4.692   2.672  10.533
81728SOL     OW47080  12.479   2.491   4.138
81728SOL    HW147081  12.443   2.417   4.187
81728SOL    HW247082  12.538   2.451   4.074
81729SOL     OW47083   9.622   2.098  13.721
81729SOL    HW147084   9.578   2.114  13.638
81729SOL    HW247085   9.594   2.010  13.747
81730SOL     OW47086   7.539   3.335   8.731
81730SOL    HW147087   7.546   3.277   8.655
81730SOL    HW247088   7.452   3.319   8.766
81731SOL     OW47089  10.572  10.525   6.788
81731SOL    HW147090  10.519  10.536   6.866
81731SOL    HW247091  10.630  10.451   6.808
81732SOL     OW47092   6.538   9.275   9.274
81732SOL    HW147093   6.507   9.189   9.243
81732SOL    HW247094   6.568   9.259   9.363
81733SOL     OW47095  11.106   4.051   7.520
81733SOL    HW147096  11.016   4.045   7.552
81733SOL    HW247097  11.113   3.982   7.454
81734SOL     OW47098   3.829   3.062   9.805
81734SOL    HW147099   3.761   3.092   9.744
81734SOL    HW247100   3.839   3.135   9.866
81735SOL     OW47101   7.313  11.060   3.494
81735SOL    HW147102   7.224  11.033   3.515
81735SOL    HW247103   7.369  10.998   3.541
81736SOL     OW47104   2.280   6.352   1.387
81736SOL    HW147105   2.258   6.389   1.301
81736SOL    HW247106   2.196   6.345   1.432
81737SOL     OW47107   2.697   2.076  14.419
81737SOL    HW147108   2.689   2.083  14.324
81737SOL    HW247109   2.641   2.002  14.442
81738SOL     OW47110   9.370  10.085   5.473
81738SOL    HW147111   9.343  10.048   5.557
81738SOL    HW247112   9.304  10.151   5.453
81739SOL     OW47113   4.961   7.854   9.589
81739SOL    HW147114   4.904   7.825   9.518
81739SOL    HW247115   5.036   7.794   9.585
81740SOL     OW47116   6.124   5.745   4.492
81740SOL    HW147117   6.204   5.695   4.475
81740SOL    HW247118   6.139   5.828   4.447
81741SOL     OW47119  10.460   4.379   3.805
81741SOL    HW147120  10.379   4.370   3.755
81741SOL    HW247121  10.494   4.465   3.779
81742SOL     OW47122   7.093  13.247  13.250
81742SOL    HW147123   7.092  13.307  13.175
81742SOL    HW247124   7.164  13.186  13.230
81743SOL     OW47125  12.380   8.122  12.441
81743SOL    HW147126  12.431   8.099  12.518
81743SOL    HW247127  12.444   8.134  12.371
81744SOL     OW47128   5.959   5.843   2.785
81744SOL    HW147129   5.969   5.905   2.713
81744SOL    HW247130   6.048   5.823   2.813
81745SOL     OW47131  10.088   7.506   7.653
81745SOL    HW147132  10.024   7.500   7.724
81745SOL    HW247133  10.169   7.473   7.691
81746SOL     OW47134   3.222   5.437  12.521
81746SOL    HW147135   3.173   5.516  12.499
81746SOL    HW247136   3.309   5.469  12.545
81747SOL     OW47137   1.782   0.753  11.237
81747SOL    HW147138   1.726   0.687  11.196
81747SOL    HW247139   1.836   0.786  11.165
81748SOL     OW47140  11.640   5.436  11.503
81748SOL    HW147141  11.548   5.436  11.475
81748SOL    HW247142  11.635   5.443  11.598
81749SOL     OW47143  14.572  10.909   1.185
81749SOL    HW147144  14.619  10.928   1.265
81749SOL    HW247145  14.543  10.994   1.152
81750SOL     OW47146   1.656  13.935   1.495
81750SOL    HW147147   1.636  13.935   1.401
81750SOL    HW247148   1.721  14.005   1.506
81751SOL     OW47149   0.732   6.585  14.857
81751SOL    HW147150   0.697   6.504  14.822
81751SOL    HW247151   0.693   6.593   0.072
81752SOL     OW47152   5.534   6.307   5.560
81752SOL    HW147153   5.522   6.265   5.645
81752SOL    HW247154   5.628   6.316   5.551
81753SOL     OW47155   5.823   0.986   2.670
81753SOL    HW147156   5.760   0.943   2.612
81753SOL    HW247157   5.776   1.062   2.704
81754SOL     OW47158   0.976   0.770   7.880
81754SOL    HW147159   1.061   0.810   7.901
81754SOL    HW247160   0.947   0.732   7.963
81755SOL     OW47161   6.486   9.961   7.782
81755SOL    HW147162   6.454   9.878   7.816
81755SOL    HW247163   6.576   9.967   7.814
81756SOL     OW47164  12.222   0.948   0.707
81756SOL    HW147165  12.304   0.967   0.753
81756SOL    HW247166  12.237   0.863   0.665
81757SOL     OW47167  13.247   7.976   1.161
81757SOL    HW147168  13.252   7.993   1.067
81757SOL    HW247169  13.217   8.058   1.199
81758SOL     OW47170   5.436   3.774   5.883
81758SOL    HW147171   5.423   3.765   5.977
81758SOL    HW247172   5.374   3.712   5.845
81759SOL     OW47173   9.114  10.199  10.037
81759SOL    HW147174   9.037  10.217   9.983
81759SOL    HW247175   9.173  10.272  10.019
81760SOL     OW47176  10.203   5.495   0.901
81760SOL    HW147177  10.293   5.476   0.928
81760SOL    HW247178  10.201   5.590   0.890
81761SOL     OW47179  14.487   4.871   3.878
81761SOL    HW147180  14.413   4.930   3.891
81761SOL    HW247181  14.466   4.794   3.932
81762SOL     OW47182   9.485   3.959   4.444
81762SOL    HW147183   9.405   3.967   4.497
81762SOL    HW247184   9.495   4.046   4.404
81763SOL     OW47185   6.732  12.675   0.783
81763SOL    HW147186   6.663  12.707   0.842
81763SOL    HW247187   6.755  12.751   0.730
81764SOL     OW47188  12.467  10.333   0.254
81764SOL    HW147189  12.477  10.259   0.195
81764SOL    HW247190  12.441  10.295   0.338
81765SOL     OW47191   0.967   1.429   1.776
81765SOL    HW147192   0.985   1.393   1.690
81765SOL    HW247193   0.989   1.358   1.837
81766SOL     OW47194  14.729   7.871   9.063
81766SOL    HW147195  14.814   7.857   9.104
81766SOL    HW247196  14.721   7.798   9.000
81767SOL     OW47197  10.042   1.110   2.433
81767SOL    HW147198  10.061   1.042   2.497
81767SOL    HW247199  10.087   1.188   2.467
81768SOL     OW47200   1.964   9.050   7.490
81768SOL    HW147201   1.926   9.076   7.574
81768SOL    HW247202   1.898   9.072   7.425
81769SOL     OW47203   9.759  13.408   8.710
81769SOL    HW147204   9.759  13.503   8.724
81769SOL    HW247205   9.851  13.384   8.703
81770SOL     OW47206   7.617   4.014   7.064
81770SOL    HW147207   7.528   3.979   7.072
81770SOL    HW247208   7.636   4.009   6.970
81771SOL     OW47209   8.899   5.333   8.507
81771SOL    HW147210   8.813   5.332   8.464
81771SOL    HW247211   8.890   5.399   8.575
81772SOL     OW47212  14.538   1.324   3.017
81772SOL    HW147213  14.472   1.370   3.069
81772SOL    HW247214  14.506   1.234   3.012
81773SOL     OW47215   3.649   5.005   1.273
81773SOL    HW147216   3.663   4.992   1.367
81773SOL    HW247217   3.735   4.992   1.234
81774SOL     OW47218   9.367   8.107   2.908
81774SOL    HW147219   9.282   8.152   2.902
81774SOL    HW247220   9.429   8.167   2.867
81775SOL     OW47221   5.849   8.317  12.217
81775SOL    HW147222   5.850   8.401  12.172
81775SOL    HW247223   5.852   8.339  12.310
81776SOL     OW47224   9.407   9.294   6.441
81776SOL    HW147225   9.349   9.226   6.476
81776SOL    HW247226   9.495   9.256   6.447
81777SOL     OW47227   8.858  13.257   5.631
81777SOL    HW147228   8.927  13.191   5.640
81777SOL    HW247229   8.819  13.263   5.718
81778SOL     OW47230  12.724   6.049  13.867
81778SOL    HW147231  12.778   5.982  13.908
81778SOL    HW247232  12.784   6.099  13.811
81779SOL     OW47233   8.703   1.287   7.265
81779SOL    HW147234   8.749   1.226   7.323
81779SOL    HW247235   8.762   1.362   7.257
81780SOL     OW47236   1.723   9.844   2.958
81780SOL    HW147237   1.694   9.923   3.003
81780SOL    HW247238   1.704   9.860   2.865
81781SOL     OW47239   8.180  13.469  13.787
81781SOL    HW147240   8.256  13.511  13.827
81781SOL    HW247241   8.113  13.472  13.855
81782SOL     OW47242  12.066   3.045   0.609
81782SOL    HW147243  12.144   2.997   0.634
81782SOL    HW247244  12.098   3.130   0.578
81783SOL     OW47245  11.506   0.756  10.526
81783SOL    HW147246  11.440   0.754  10.456
81783SOL    HW247247  11.463   0.715  10.601
81784SOL     OW47248   8.431   0.232   2.029
81784SOL    HW147249   8.456   0.314   1.987
81784SOL    HW247250   8.357   0.200   1.977
81785SOL     OW47251  12.838  11.965   7.871
81785SOL    HW147252  12.799  11.985   7.786
81785SOL    HW247253  12.876  12.048   7.901
81786SOL     OW47254  14.663   4.089   2.436
81786SOL    HW147255  14.751   4.087   2.474
81786SOL    HW247256  14.604   4.088   2.512
81787SOL     OW47257  11.612  10.687   6.952
81787SOL    HW147258  11.564  10.765   6.981
81787SOL    HW247259  11.622  10.698   6.857
81788SOL     OW47260   8.399   1.781  13.528
81788SOL    HW147261   8.343   1.714  13.569
81788SOL    HW247262   8.449   1.733  13.463
81789SOL     OW47263   4.299   8.799  10.046
81789SOL    HW147264   4.356   8.828   9.974
81789SOL    HW247265   4.339   8.717  10.076
81790SOL     OW47266   6.712  10.641  12.839
81790SOL    HW147267   6.751  10.702  12.777
81790SOL    HW247268   6.628  10.617  12.801
81791SOL     OW47269   2.812   8.113  13.390
81791SOL    HW147270   2.731   8.064  13.379
81791SOL    HW247271   2.785   8.198  13.425
81792SOL     OW47272   2.008   0.580  13.178
81792SOL    HW147273   2.016   0.519  13.105
81792SOL    HW247274   1.915   0.600  13.183
81793SOL     OW47275   0.035   3.605   5.400
81793SOL    HW147276   0.070   3.669   5.461
81793SOL    HW247277   0.031   3.523   5.450
81794SOL     OW47278  13.849   0.169   9.214
81794SOL    HW147279  13.779   0.194   9.274
81794SOL    HW247280  13.909   0.243   9.213
81795SOL     OW47281   7.823  12.805   5.233
81795SOL    HW147282   7.811  12.776   5.142
81795SOL    HW247283   7.761  12.752   5.283
81796SOL     OW47284  13.780  12.875   1.538
81796SOL    HW147285  13.814  12.822   1.610
81796SOL    HW247286  13.724  12.940   1.580
81797SOL     OW47287  10.884   1.810   1.299
81797SOL    HW147288  10.912   1.859   1.222
81797SOL    HW247289  10.912   1.863   1.373
81798SOL     OW47290   1.970   0.004   4.844
81798SOL    HW147291   2.005   0.061   4.775
81798SOL    HW247292   1.876   0.003   4.829
81799SOL     OW47293  11.931   1.541   9.245
81799SOL    HW147294  11.958   1.481   9.175
81799SOL    HW247295  12.013   1.574   9.281
81800SOL     OW47296  13.577   9.752   2.258
81800SOL    HW147297  13.495   9.794   2.285
81800SOL    HW247298  13.644   9.819   2.271
81801SOL     OW47299   7.324   8.549   6.240
81801SOL    HW147300   7.235   8.551   6.206
81801SOL    HW247301   7.314   8.554   6.335
81802SOL     OW47302   6.850   3.847   9.837
81802SOL    HW147303   6.870   3.821   9.747
81802SOL    HW247304   6.873   3.771   9.890
81803SOL     OW47305  11.397  11.808   8.328
81803SOL    HW147306  11.336  11.847   8.266
81803SOL    HW247307  11.404  11.717   8.301
81804SOL     OW47308  14.418   3.194  13.658
81804SOL    HW147309  14.327   3.163  13.659
81804SOL    HW247310  14.468   3.123  13.698
81805SOL     OW47311   9.033  12.911  14.114
81805SOL    HW147312   9.094  12.983  14.125
81805SOL    HW247313   9.021  12.875  14.202
81806SOL     OW47314   9.837  12.185   4.903
81806SOL    HW147315   9.869  12.142   4.824
81806SOL    HW247316   9.881  12.140   4.975
81807SOL     OW47317   1.448   2.067   0.460
81807SOL    HW147318   1.426   2.023   0.378
81807SOL    HW247319   1.439   1.999   0.527
81808SOL     OW47320  11.310  12.560   2.687
81808SOL    HW147321  11.353  12.484   2.726
81808SOL    HW247322  11.303  12.623   2.759
81809SOL     OW47323   0.329   7.535  12.981
81809SOL    HW147324   0.326   7.476  12.906
81809SOL    HW247325   0.421   7.560  12.988
81810SOL     OW47326  10.555   7.719   7.768
81810SOL    HW147327  10.538   7.634   7.807
81810SOL    HW247328  10.500   7.780   7.817
81811SOL     OW47329  10.548   9.420   7.097
81811SOL    HW147330  10.503   9.339   7.122
81811SOL    HW247331  10.539   9.476   7.174
81812SOL     OW47332   0.511   8.915   0.812
81812SOL    HW147333   0.436   8.909   0.871
81812SOL    HW247334   0.572   8.849   0.844
81813SOL     OW47335   7.054   0.154   1.820
81813SOL    HW147336   7.043   0.069   1.861
81813SOL    HW247337   7.118   0.140   1.750
81814SOL     OW47338   7.418  12.937  14.557
81814SOL    HW147339   7.401  13.030  14.543
81814SOL    HW247340   7.504  12.922  14.518
81815SOL     OW47341  11.910   9.786   0.290
81815SOL    HW147342  11.894   9.798   0.197
81815SOL    HW247343  11.915   9.691   0.302
81816SOL     OW47344   1.850  12.601   2.316
81816SOL    HW147345   1.918  12.643   2.264
81816SOL    HW247346   1.818  12.530   2.260
81817SOL     OW47347   3.992  12.465  13.072
81817SOL    HW147348   3.968  12.491  12.984
81817SOL    HW247349   4.033  12.543  13.110
81818SOL     OW47350   7.779   4.080   5.048
81818SOL    HW147351   7.759   4.058   5.139
81818SOL    HW247352   7.758   4.001   4.999
81819SOL     OW47353   3.925  10.743   6.487
81819SOL    HW147354   3.984  10.668   6.489
81819SOL    HW247355   3.962  10.804   6.551
81820SOL     OW47356   1.855   4.742   6.805
81820SOL    HW147357   1.902   4.664   6.835
81820SOL    HW247358   1.810   4.774   6.882
81821SOL     OW47359  14.463  10.159   1.028
81821SOL    HW147360  14.398  10.090   1.018
81821SOL    HW247361  14.419  10.227   1.079
81822SOL     OW47362   7.271  10.202   7.663
81822SOL    HW147363   7.273  10.118   7.617
81822SOL    HW247364   7.293  10.180   7.754
81823SOL     OW47365   6.651   9.653   5.862
81823SOL    HW147366   6.694   9.704   5.931
81823SOL    HW247367   6.626   9.571   5.904
81824SOL     OW47368   2.155  11.773  12.589
81824SOL    HW147369   2.213  11.839  12.628
81824SOL    HW247370   2.214  11.706  12.556
81825SOL     OW47371   3.040   1.653   4.678
81825SOL    HW147372   3.022   1.648   4.585
81825SOL    HW247373   2.955   1.644   4.720
81826SOL     OW47374  12.567   4.556   2.342
81826SOL    HW147375  12.485   4.507   2.334
81826SOL    HW247376  12.598   4.536   2.430
81827SOL     OW47377   5.679  13.265   0.083
81827SOL    HW147378   5.679  13.170   0.069
81827SOL    HW247379   5.761  13.295   0.043
81828SOL     OW47380   3.087   4.629   4.677
81828SOL    HW147381   3.100   4.558   4.740
81828SOL    HW247382   3.157   4.618   4.613
81829SOL     OW47383   0.378   5.634   1.079
81829SOL    HW147384   0.366   5.607   0.988
81829SOL    HW247385   0.354   5.727   1.080
81830SOL     OW47386   9.531   1.816  10.121
81830SOL    HW147387   9.514   1.884  10.185
81830SOL    HW247388   9.571   1.745  10.171
81831SOL     OW47389  12.434  10.306   7.612
81831SOL    HW147390  12.477  10.386   7.641
81831SOL    HW247391  12.408  10.262   7.693
81832SOL     OW47392   4.556   5.512   0.604
81832SOL    HW147393   4.580   5.495   0.513
81832SOL    HW247394   4.463   5.534   0.601
81833SOL     OW47395   9.207  13.652   4.873
81833SOL    HW147396   9.195  13.740   4.836
81833SOL    HW247397   9.220  13.595   4.798
81834SOL     OW47398   7.567   7.095   8.665
81834SOL    HW147399   7.548   7.029   8.598
81834SOL    HW247400   7.485   7.103   8.714
81835SOL     OW47401   1.356   9.270   9.618
81835SOL    HW147402   1.440   9.308   9.591
81835SOL    HW247403   1.371   9.237   9.706
81836SOL     OW47404   1.834   7.445  11.587
81836SOL    HW147405   1.854   7.539  11.587
81836SOL    HW247406   1.913   7.404  11.552
81837SOL     OW47407  13.531   3.597   1.279
81837SOL    HW147408  13.551   3.511   1.242
81837SOL    HW247409  13.478   3.641   1.212
81838SOL     OW47410  13.608  14.317   5.046
81838SOL    HW147411  13.670  14.361   4.988
81838SOL    HW247412  13.615  14.365   5.129
81839SOL     OW47413  10.049  10.192  10.531
81839SOL    HW147414  10.029  10.262  10.469
81839SOL    HW247415  10.027  10.111  10.484
81840SOL     OW47416  10.500   0.481   0.826
81840SOL    HW147417  10.545   0.407   0.868
81840SOL    HW247418  10.426   0.441   0.780
81841SOL     OW47419   2.905  12.709   0.788
81841SOL    HW147420   2.935  12.689   0.876
81841SOL    HW247421   2.902  12.805   0.784
81842SOL     OW47422   9.134  13.731  13.690
81842SOL    HW147423   9.079  13.804  13.718
81842SOL    HW247424   9.111  13.718  13.598
81843SOL     OW47425   2.371   2.674  10.685
81843SOL    HW147426   2.345   2.602  10.628
81843SOL    HW247427   2.378   2.634  10.772
81844SOL     OW47428  12.505  14.399   1.736
81844SOL    HW147429  12.482  14.428   1.825
81844SOL    HW247430  12.449  14.323   1.720
81845SOL     OW47431   2.164  13.228   5.059
81845SOL    HW147432   2.193  13.320   5.057
81845SOL    HW247433   2.075  13.232   5.092
81846SOL     OW47434  13.871   8.285  10.629
81846SOL    HW147435  13.949   8.312  10.678
81846SOL    HW247436  13.828   8.367  10.606
81847SOL     OW47437  13.819   7.784   4.496
81847SOL    HW147438  13.891   7.721   4.486
81847SOL    HW247439  13.746   7.744   4.449
81848SOL     OW47440   2.256  10.186  12.171
81848SOL    HW147441   2.309  10.222  12.241
81848SOL    HW247442   2.171  10.170  12.211
81849SOL     OW47443   7.788  10.276   5.973
81849SOL    HW147444   7.759  10.367   5.966
81849SOL    HW247445   7.784  10.257   6.066
81850SOL     OW47446  12.362  11.693   6.686
81850SOL    HW147447  12.279  11.733   6.660
81850SOL    HW247448  12.393  11.649   6.607
81851SOL     OW47449   9.631   0.515   8.148
81851SOL    HW147450   9.681   0.568   8.211
81851SOL    HW247451   9.552   0.490   8.196
81852SOL     OW47452   6.592  14.640  13.620
81852SOL    HW147453   6.502  14.609  13.615
81852SOL    HW247454   6.642  14.564  13.650
81853SOL     OW47455   8.913  11.176   2.458
81853SOL    HW147456   8.864  11.244   2.411
81853SOL    HW247457   8.928  11.214   2.545
81854SOL     OW47458   5.801  10.180   5.789
81854SOL    HW147459   5.746  10.103   5.801
81854SOL    HW247460   5.843  10.193   5.874
81855SOL     OW47461   6.492   3.821   6.757
81855SOL    HW147462   6.488   3.909   6.720
81855SOL    HW247463   6.425   3.772   6.710
81856SOL     OW47464   9.181   6.725   8.719
81856SOL    HW147465   9.226   6.654   8.766
81856SOL    HW247466   9.185   6.699   8.627
81857SOL     OW47467   4.181   9.748   5.849
81857SOL    HW147468   4.190   9.841   5.826
81857SOL    HW247469   4.103   9.745   5.905
81858SOL     OW47470   0.250  14.163   5.015
81858SOL    HW147471   0.320  14.214   5.056
81858SOL    HW247472   0.290  14.130   4.934
81859SOL     OW47473  12.844   3.955   6.342
81859SOL    HW147474  12.779   3.932   6.275
81859SOL    HW247475  12.876   3.870   6.373
81860SOL     OW47476  10.760   7.564   8.088
81860SOL    HW147477  10.766   7.490   8.027
81860SOL    HW247478  10.849   7.571   8.124
81861SOL     OW47479   6.932  14.382   7.342
81861SOL    HW147480   6.904  14.337   7.262
81861SOL    HW247481   7.018  14.345   7.360
81862SOL     OW47482  12.469   7.227   4.762
81862SOL    HW147483  12.442   7.314   4.791
81862SOL    HW247484  12.413   7.208   4.687
81863SOL     OW47485  10.491  12.963  10.670
81863SOL    HW147486  10.582  12.965  10.643
81863SOL    HW247487  10.441  12.960  10.588
81864SOL     OW47488   8.949   5.540   0.219
81864SOL    HW147489   8.915   5.461   0.177
81864SOL    HW247490   9.028   5.561   0.169
81865SOL     OW47491   3.332   5.310   5.445
81865SOL    HW147492   3.360   5.355   5.365
81865SOL    HW247493   3.373   5.224   5.440
81866SOL     OW47494  11.897  13.017   3.324
81866SOL    HW147495  11.909  13.057   3.410
81866SOL    HW247496  11.980  12.974   3.305
81867SOL     OW47497   5.294   7.880  12.233
81867SOL    HW147498   5.325   7.971  12.238
81867SOL    HW247499   5.339   7.836  12.306
81868SOL     OW47500  10.947   6.885  10.608
81868SOL    HW147501  11.034   6.848  10.594
81868SOL    HW247502  10.927   6.930  10.526
81869SOL     OW47503   0.608  14.775   8.981
81869SOL    HW147504   0.571  14.729   8.906
81869SOL    HW247505   0.659  14.846   8.943
81870SOL     OW47506  11.797   7.372   9.280
81870SOL    HW147507  11.828   7.392   9.368
81870SOL    HW247508  11.701   7.375   9.287
81871SOL     OW47509   1.522   1.961  11.368
81871SOL    HW147510   1.527   2.024  11.440
81871SOL    HW247511   1.538   1.876  11.409
81872SOL     OW47512   1.838  10.644  13.734
81872SOL    HW147513   1.846  10.643  13.830
81872SOL    HW247514   1.783  10.720  13.716
81873SOL     OW47515   9.535  11.475  12.989
81873SOL    HW147516   9.465  11.413  13.011
81873SOL    HW247517   9.517  11.499  12.898
81874SOL     OW47518   0.710   3.167  11.466
81874SOL    HW147519   0.735   3.199  11.379
81874SOL    HW247520   0.614   3.162  11.463
81875SOL     OW47521   9.931   7.694   2.837
81875SOL    HW147522   9.999   7.650   2.889
81875SOL    HW247523   9.920   7.638   2.760
81876SOL     OW47524  12.119  14.335  14.807
81876SOL    HW147525  12.184  14.265  14.807
81876SOL    HW247526  12.092  14.343   0.026
81877SOL     OW47527   1.399   0.792  12.537
81877SOL    HW147528   1.462   0.719  12.537
81877SOL    HW247529   1.316   0.752  12.561
81878SOL     OW47530   1.551   0.146   6.690
81878SOL    HW147531   1.642   0.115   6.686
81878SOL    HW247532   1.503   0.087   6.631
81879SOL     OW47533   4.411   9.372   6.908
81879SOL    HW147534   4.490   9.426   6.905
81879SOL    HW247535   4.438   9.293   6.955
81880SOL     OW47536  12.973  14.559   2.733
81880SOL    HW147537  13.060  14.553   2.695
81880SOL    HW247538  12.923  14.489   2.691
81881SOL     OW47539   7.525   2.660   8.509
81881SOL    HW147540   7.514   2.566   8.519
81881SOL    HW247541   7.440   2.691   8.477
81882SOL     OW47542  14.515   7.756  12.977
81882SOL    HW147543  14.602   7.744  12.939
81882SOL    HW247544  14.518   7.843  13.017
81883SOL     OW47545   0.079  10.841  11.975
81883SOL    HW147546   0.001  10.786  11.981
81883SOL    HW247547   0.089  10.860  11.882
81884SOL     OW47548   8.079  11.337   4.992
81884SOL    HW147549   8.106  11.279   5.063
81884SOL    HW247550   8.002  11.294   4.954
81885SOL     OW47551   4.468  14.777   5.577
81885SOL    HW147552   4.427  14.705   5.623
81885SOL    HW247553   4.395  14.822   5.534
81886SOL     OW47554  11.166   5.344   7.392
81886SOL    HW147555  11.192   5.373   7.480
81886SOL    HW247556  11.129   5.257   7.406
81887SOL     OW47557   6.654   0.304  11.432
81887SOL    HW147558   6.694   0.342  11.510
81887SOL    HW247559   6.714   0.235  11.405
81888SOL     OW47560   8.682   3.543   6.814
81888SOL    HW147561   8.691   3.606   6.743
81888SOL    HW247562   8.701   3.593   6.894
81889SOL     OW47563   1.412   0.794   8.568
81889SOL    HW147564   1.498   0.770   8.605
81889SOL    HW247565   1.378   0.712   8.533
81890SOL     OW47566  11.530   8.242  14.790
81890SOL    HW147567  11.579   8.269  14.868
81890SOL    HW247568  11.443   8.280  14.801
81891SOL     OW47569   1.272   2.291  14.579
81891SOL    HW147570   1.231   2.370  14.614
81891SOL    HW247571   1.282   2.233  14.654
81892SOL     OW47572   6.745   6.084   5.390
81892SOL    HW147573   6.681   6.049   5.328
81892SOL    HW247574   6.739   6.027   5.466
81893SOL     OW47575   2.102  10.448  11.452
81893SOL    HW147576   2.188  10.416  11.424
81893SOL    HW247577   2.097  10.427  11.545
81894SOL     OW47578   0.238  13.196  13.176
81894SOL    HW147579   0.144  13.205  13.191
81894SOL    HW247580   0.270  13.143  13.250
81895SOL     OW47581   4.461   7.645   2.191
81895SOL    HW147582   4.546   7.656   2.149
81895SOL    HW247583   4.481   7.614   2.279
81896SOL     OW47584   5.116   4.183   8.604
81896SOL    HW147585   5.096   4.180   8.511
81896SOL    HW247586   5.207   4.213   8.609
81897SOL     OW47587   3.955  11.656  12.045
81897SOL    HW147588   3.941  11.572  12.000
81897SOL    HW247589   4.015  11.704  11.988
81898SOL     OW47590  11.495   9.672  13.529
81898SOL    HW147591  11.539   9.589  13.507
81898SOL    HW247592  11.433   9.685  13.457
81899SOL     OW47593   3.806  11.948   3.801
81899SOL    HW147594   3.751  12.016   3.761
81899SOL    HW247595   3.842  11.900   3.726
81900SOL     OW47596   2.869  14.369   8.891
81900SOL    HW147597   2.833  14.366   8.803
81900SOL    HW247598   2.928  14.294   8.896
81901SOL     OW47599  11.049   3.166   4.253
81901SOL    HW147600  11.073   3.146   4.343
81901SOL    HW247601  11.116   3.121   4.201
81902SOL     OW47602   4.786   4.482   0.731
81902SOL    HW147603   4.751   4.442   0.652
81902SOL    HW247604   4.716   4.539   0.763
81903SOL     OW47605  11.072   9.613   2.937
81903SOL    HW147606  11.166   9.595   2.937
81903SOL    HW247607  11.031   9.529   2.961
81904SOL     OW47608   3.373   1.926   1.220
81904SOL    HW147609   3.460   1.947   1.187
81904SOL    HW247610   3.369   1.830   1.218
81905SOL     OW47611   9.765   1.212   4.111
81905SOL    HW147612   9.823   1.283   4.083
81905SOL    HW247613   9.803   1.133   4.072
81906SOL     OW47614   6.335  10.729  14.216
81906SOL    HW147615   6.343  10.634  14.219
81906SOL    HW247616   6.267  10.745  14.151
81907SOL     OW47617   4.651  10.475   8.185
81907SOL    HW147618   4.734  10.491   8.141
81907SOL    HW247619   4.599  10.554   8.170
81908SOL     OW47620   0.730   7.497   0.863
81908SOL    HW147621   0.742   7.432   0.794
81908SOL    HW247622   0.636   7.495   0.883
81909SOL     OW47623   1.230   9.055   2.801
81909SOL    HW147624   1.238   9.146   2.829
81909SOL    HW247625   1.291   9.006   2.857
81910SOL     OW47626   9.400  14.575   9.887
81910SOL    HW147627   9.348  14.587   9.808
81910SOL    HW247628   9.451  14.496   9.872
81911SOL     OW47629   0.140   7.504  12.588
81911SOL    HW147630   0.209   7.537  12.531
81911SOL    HW247631   0.101   7.583  12.626
81912SOL     OW47632   3.840   5.036   3.085
81912SOL    HW147633   3.900   5.051   3.158
81912SOL    HW247634   3.804   5.122   3.065
81913SOL     OW47635   7.817   2.555   2.717
81913SOL    HW147636   7.821   2.510   2.632
81913SOL    HW247637   7.729   2.593   2.719
81914SOL     OW47638   3.043   6.470   3.434
81914SOL    HW147639   3.000   6.554   3.449
81914SOL    HW247640   2.979   6.418   3.384
81915SOL     OW47641   1.382  11.569   0.287
81915SOL    HW147642   1.393  11.526   0.203
81915SOL    HW247643   1.462  11.549   0.336
81916SOL     OW47644  12.837   7.183   5.983
81916SOL    HW147645  12.881   7.247   6.039
81916SOL    HW247646  12.799   7.120   6.044
81917SOL     OW47647  11.549  10.172   5.622
81917SOL    HW147648  11.596  10.255   5.618
81917SOL    HW247649  11.469  10.192   5.671
81918SOL     OW47650   1.857   2.682   0.058
81918SOL    HW147651   1.874   2.767   0.099
81918SOL    HW247652   1.916   2.621   0.103
81919SOL     OW47653  13.073   1.783  14.820
81919SOL    HW147654  13.031   1.719  14.762
81919SOL    HW247655  13.048   1.756   0.036
81920SOL     OW47656   4.096   1.919   8.044
81920SOL    HW147657   4.014   1.888   8.081
81920SOL    HW247658   4.157   1.921   8.118
81921SOL     OW47659   2.396  11.891  10.326
81921SOL    HW147660   2.301  11.885  10.330
81921SOL    HW247661   2.424  11.891  10.418
81922SOL     OW47662   7.947   6.444   8.036
81922SOL    HW147663   7.899   6.382   8.091
81922SOL    HW247664   7.921   6.422   7.947
81923SOL     OW47665  12.811   2.600  13.750
81923SOL    HW147666  12.879   2.649  13.704
81923SOL    HW247667  12.751   2.572  13.681
81924SOL     OW47668   4.165   6.999   9.821
81924SOL    HW147669   4.127   6.932   9.877
81924SOL    HW247670   4.092   7.030   9.767
81925SOL     OW47671  14.606  13.698  10.811
81925SOL    HW147672  14.626  13.605  10.799
81925SOL    HW247673  14.675  13.730  10.869
81926SOL     OW47674   0.595  13.102  12.027
81926SOL    HW147675   0.658  13.089  12.098
81926SOL    HW247676   0.647  13.090  11.947
81927SOL     OW47677  10.143   5.628   8.311
81927SOL    HW147678  10.075   5.604   8.374
81927SOL    HW247679  10.095   5.647   8.230
81928SOL     OW47680   5.212  14.644   5.122
81928SOL    HW147681   5.123  14.648   5.087
81928SOL    HW247682   5.244  14.557   5.098
81929SOL     OW47683   7.011   5.075   9.794
81929SOL    HW147684   6.935   5.053   9.848
81929SOL    HW247685   7.016   5.170   9.797
81930SOL     OW47686   7.783   4.006   4.407
81930SOL    HW147687   7.834   4.010   4.327
81930SOL    HW247688   7.793   4.093   4.447
81931SOL     OW47689   6.352   1.155  14.860
81931SOL    HW147690   6.426   1.170  14.801
81931SOL    HW247691   6.324   1.243   0.012
81932SOL     OW47692   2.114   5.961   3.793
81932SOL    HW147693   2.069   6.023   3.735
81932SOL    HW247694   2.143   6.014   3.867
81933SOL     OW47695   6.432   5.586   4.813
81933SOL    HW147696   6.422   5.494   4.838
81933SOL    HW247697   6.423   5.587   4.718
81934SOL     OW47698   3.875   4.221  12.163
81934SOL    HW147699   3.803   4.198  12.222
81934SOL    HW247700   3.882   4.147  12.104
81935SOL     OW47701   0.410  11.605  10.475
81935SOL    HW147702   0.355  11.665  10.425
81935SOL    HW247703   0.350  11.563  10.537
81936SOL     OW47704   8.723  14.424  14.727
81936SOL    HW147705   8.721  14.333  14.758
81936SOL    HW247706   8.631  14.451  14.723
81937SOL     OW47707  11.819   2.258   5.927
81937SOL    HW147708  11.880   2.330   5.912
81937SOL    HW247709  11.871   2.191   5.971
81938SOL     OW47710   2.612   6.766   9.156
81938SOL    HW147711   2.612   6.720   9.240
81938SOL    HW247712   2.610   6.697   9.090
81939SOL     OW47713  12.232   3.758  12.172
81939SOL    HW147714  12.274   3.798  12.248
81939SOL    HW247715  12.300   3.702  12.135
81940SOL     OW47716  14.618   1.431   2.234
81940SOL    HW147717  14.621   1.477   2.149
81940SOL    HW247718  14.526   1.435   2.260
81941SOL     OW47719   3.151  10.420   2.154
81941SOL    HW147720   3.126  10.352   2.091
81941SOL    HW247721   3.236  10.450   2.124
81942SOL     OW47722  10.737   0.929   9.752
81942SOL    HW147723  10.654   0.945   9.708
81942SOL    HW247724  10.752   0.835   9.742
81943SOL     OW47725   0.486   9.902   3.337
81943SOL    HW147726   0.566   9.881   3.386
81943SOL    HW247727   0.453   9.817   3.308
81944SOL     OW47728  11.846   1.717   5.553
81944SOL    HW147729  11.811   1.723   5.642
81944SOL    HW247730  11.933   1.758   5.559
81945SOL     OW47731   5.582   7.956  14.744
81945SOL    HW147732   5.527   7.880  14.765
81945SOL    HW247733   5.536   8.001  14.674
81946SOL     OW47734   6.415  11.097  11.498
81946SOL    HW147735   6.362  11.084  11.419
81946SOL    HW247736   6.356  11.140  11.559
81947SOL     OW47737  13.837  11.048   2.465
81947SOL    HW147738  13.808  11.015   2.380
81947SOL    HW247739  13.884  11.129   2.445
81948SOL     OW47740   6.317   7.838  12.928
81948SOL    HW147741   6.309   7.873  13.017
81948SOL    HW247742   6.340   7.914  12.874
81949SOL     OW47743  10.671   3.839  12.103
81949SOL    HW147744  10.701   3.860  12.015
81949SOL    HW247745  10.745   3.795  12.144
81950SOL     OW47746   1.618  11.301  13.277
81950SOL    HW147747   1.566  11.244  13.333
81950SOL    HW247748   1.554  11.355  13.230
81951SOL     OW47749  13.615   7.285  11.830
81951SOL    HW147750  13.664   7.248  11.904
81951SOL    HW247751  13.605   7.211  11.769
81952SOL     OW47752   5.463   4.760  14.728
81952SOL    HW147753   5.382   4.780  14.681
81952SOL    HW247754   5.526   4.741  14.659
81953SOL     OW47755   5.817   6.877   4.040
81953SOL    HW147756   5.855   6.832   3.964
81953SOL    HW247757   5.891   6.888   4.100
81954SOL     OW47758  13.682   2.690   9.758
81954SOL    HW147759  13.631   2.764   9.789
81954SOL    HW247760  13.646   2.669   9.673
81955SOL     OW47761  10.116  10.274  14.089
81955SOL    HW147762  10.034  10.226  14.102
81955SOL    HW247763  10.092  10.347  14.032
81956SOL     OW47764   9.743  13.983  14.388
81956SOL    HW147765   9.720  13.979  14.295
81956SOL    HW247766   9.804  13.910  14.401
81957SOL     OW47767   0.340  11.092   8.646
81957SOL    HW147768   0.352  11.159   8.578
81957SOL    HW247769   0.318  11.142   8.725
81958SOL     OW47770   6.260   9.407   9.504
81958SOL    HW147771   6.329   9.408   9.437
81958SOL    HW247772   6.275   9.326   9.552
81959SOL     OW47773  12.997   8.307   2.800
81959SOL    HW147774  12.915   8.355   2.815
81959SOL    HW247775  13.054   8.333   2.872
81960SOL     OW47776   3.006  13.891  12.063
81960SOL    HW147777   3.042  13.978  12.046
81960SOL    HW247778   2.914  13.898  12.041
81961SOL     OW47779  13.312   4.453   8.333
81961SOL    HW147780  13.327   4.367   8.293
81961SOL    HW247781  13.239   4.439   8.393
81962SOL     OW47782   2.883   6.514  14.618
81962SOL    HW147783   2.978   6.515  14.618
81962SOL    HW247784   2.857   6.576  14.550
81963SOL     OW47785  11.703  11.579  14.608
81963SOL    HW147786  11.759  11.512  14.648
81963SOL    HW247787  11.650  11.612  14.680
81964SOL     OW47788   4.331   0.744   3.105
81964SOL    HW147789   4.273   0.668   3.100
81964SOL    HW247790   4.367   0.741   3.193
81965SOL     OW47791  13.508   4.976   3.017
81965SOL    HW147792  13.575   4.951   3.081
81965SOL    HW247793  13.549   5.044   2.964
81966SOL     OW47794  11.475   4.355   2.454
81966SOL    HW147795  11.468   4.268   2.492
81966SOL    HW247796  11.464   4.414   2.529
81967SOL     OW47797   6.326   5.808  11.590
81967SOL    HW147798   6.235   5.778  11.594
81967SOL    HW247799   6.326   5.874  11.521
81968SOL     OW47800  11.947  13.677   7.356
81968SOL    HW147801  11.941  13.618   7.280
81968SOL    HW247802  11.913  13.625   7.429
81969SOL     OW47803   7.816   2.385   4.812
81969SOL    HW147804   7.806   2.372   4.718
81969SOL    HW247805   7.776   2.308   4.852
81970SOL     OW47806   2.419   3.491   4.921
81970SOL    HW147807   2.475   3.565   4.943
81970SOL    HW247808   2.427   3.481   4.826
81971SOL     OW47809  12.261   7.780  11.483
81971SOL    HW147810  12.236   7.690  11.503
81971SOL    HW247811  12.294   7.777  11.393
81972SOL     OW47812   2.139   2.059  11.309
81972SOL    HW147813   2.162   1.973  11.346
81972SOL    HW247814   2.126   2.115  11.386
81973SOL     OW47815   9.975  11.465  12.987
81973SOL    HW147816   9.922  11.449  13.065
81973SOL    HW247817   9.944  11.549  12.954
81974SOL     OW47818   7.998   4.010   9.514
81974SOL    HW147819   7.948   3.950   9.568
81974SOL    HW247820   7.946   4.021   9.434
81975SOL     OW47821  13.938   9.201  11.047
81975SOL    HW147822  13.929   9.204  11.142
81975SOL    HW247823  13.995   9.126  11.030
81976SOL     OW47824  11.727   0.591   2.605
81976SOL    HW147825  11.734   0.668   2.661
81976SOL    HW247826  11.691   0.523   2.661
81977SOL     OW47827  10.760   9.643   1.934
81977SOL    HW147828  10.669   9.617   1.948
81977SOL    HW247829  10.812   9.567   1.958
81978SOL     OW47830   3.614  14.588  12.090
81978SOL    HW147831   3.667  14.588  12.170
81978SOL    HW247832   3.528  14.621  12.118
81979SOL     OW47833   9.581  13.273   6.791
81979SOL    HW147834   9.532  13.230   6.721
81979SOL    HW247835   9.526  13.263   6.869
81980SOL     OW47836   9.881   3.758   6.712
81980SOL    HW147837   9.917   3.825   6.654
81980SOL    HW247838   9.786   3.763   6.697
81981SOL     OW47839  13.105  10.448  13.252
81981SOL    HW147840  13.172  10.445  13.320
81981SOL    HW247841  13.121  10.371  13.198
81982SOL     OW47842   5.635  13.005   0.032
81982SOL    HW147843   5.718  12.979  14.863
81982SOL    HW247844   5.570  12.948  14.865
81983SOL     OW47845   1.281   3.522   7.144
81983SOL    HW147846   1.262   3.527   7.051
81983SOL    HW247847   1.317   3.434   7.157
81984SOL     OW47848   9.605   1.214   3.078
81984SOL    HW147849   9.642   1.260   3.154
81984SOL    HW247850   9.561   1.138   3.116
81985SOL     OW47851   7.275  10.147   7.049
81985SOL    HW147852   7.227  10.149   7.132
81985SOL    HW247853   7.341  10.215   7.059
81986SOL     OW47854   2.224  12.584   2.481
81986SOL    HW147855   2.249  12.676   2.474
81986SOL    HW247856   2.283  12.548   2.548
81987SOL     OW47857   7.379  13.072   3.645
81987SOL    HW147858   7.406  13.004   3.583
81987SOL    HW247859   7.310  13.120   3.599
81988SOL     OW47860   3.060   4.434  12.279
81988SOL    HW147861   3.131   4.493  12.254
81988SOL    HW247862   2.984   4.491  12.289
81989SOL     OW47863  14.205   4.168  12.397
81989SOL    HW147864  14.240   4.229  12.332
81989SOL    HW247865  14.113   4.157  12.372
81990SOL     OW47866   4.332   3.003   3.767
81990SOL    HW147867   4.238   3.000   3.750
81990SOL    HW247868   4.353   2.918   3.805
81991SOL     OW47869   7.015   5.477   0.931
81991SOL    HW147870   7.095   5.528   0.945
81991SOL    HW247871   7.032   5.393   0.972
81992SOL     OW47872   4.414   0.215  10.652
81992SOL    HW147873   4.346   0.165  10.698
81992SOL    HW247874   4.475   0.242  10.721
81993SOL     OW47875   6.701  14.846   2.654
81993SOL    HW147876   6.732  14.770   2.703
81993SOL    HW247877   6.609  14.826   2.634
81994SOL     OW47878   3.033   9.812  14.284
81994SOL    HW147879   3.093   9.748  14.322
81994SOL    HW247880   3.040   9.889  14.341
81995SOL     OW47881   1.986   5.784   2.550
81995SOL    HW147882   2.008   5.695   2.577
81995SOL    HW247883   1.891   5.784   2.542
81996SOL     OW47884   8.346  12.734   3.311
81996SOL    HW147885   8.278  12.667   3.310
81996SOL    HW247886   8.316  12.797   3.377
81997SOL     OW47887   3.265  10.055   1.816
81997SOL    HW147888   3.194  10.029   1.874
81997SOL    HW247889   3.232  10.040   1.728
81998SOL     OW47890   8.314  13.589  12.313
81998SOL    HW147891   8.337  13.594  12.406
81998SOL    HW247892   8.284  13.499  12.301
81999SOL     OW47893   1.508   9.667   5.060
81999SOL    HW147894   1.475   9.585   5.096
81999SOL    HW247895   1.551   9.710   5.134
82000SOL     OW47896   2.778   7.806   9.090
82000SOL    HW147897   2.732   7.725   9.113
82000SOL    HW247898   2.842   7.779   9.024
82001SOL     OW47899  13.862   0.014   7.962
82001SOL    HW147900  13.811  14.847   7.891
82001SOL    HW247901  13.952  14.859   7.945
82002SOL     OW47902   0.809  12.622   8.277
82002SOL    HW147903   0.820  12.578   8.362
82002SOL    HW247904   0.715  12.629   8.265
82003SOL     OW47905   7.081  14.445   7.901
82003SOL    HW147906   7.000  14.433   7.950
82003SOL    HW247907   7.065  14.404   7.816
82004SOL     OW47908  14.778  12.244  14.347
82004SOL    HW147909  14.813  12.333  14.344
82004SOL    HW247910  14.683  12.256  14.347
82005SOL     OW47911   2.322   2.847  10.104
82005SOL    HW147912   2.352   2.908  10.172
82005SOL    HW247913   2.398   2.834  10.048
82006SOL     OW47914  11.835  11.043  12.005
82006SOL    HW147915  11.851  11.137  12.011
82006SOL    HW247916  11.899  11.012  11.940
82007SOL     OW47917   0.571  11.791   9.627
82007SOL    HW147918   0.494  11.755   9.584
82007SOL    HW247919   0.539  11.870   9.671
82008SOL     OW47920   6.710  10.430   5.525
82008SOL    HW147921   6.617  10.442   5.506
82008SOL    HW247922   6.712  10.357   5.587
82009SOL     OW47923   8.411  14.499   3.107
82009SOL    HW147924   8.419  14.589   3.075
82009SOL    HW247925   8.502  14.469   3.117
82010SOL     OW47926  14.768   5.683   6.371
82010SOL    HW147927  14.794   5.625   6.300
82010SOL    HW247928  14.680   5.712   6.347
82011SOL     OW47929  10.052  13.705   7.425
82011SOL    HW147930   9.985  13.637   7.421
82011SOL    HW247931  10.096  13.700   7.341
82012SOL     OW47932  10.746   5.041   0.775
82012SOL    HW147933  10.672   4.985   0.756
82012SOL    HW247934  10.743   5.109   0.707
82013SOL     OW47935   9.480   5.911   0.967
82013SOL    HW147936   9.413   5.970   0.999
82013SOL    HW247937   9.505   5.947   0.881
82014SOL     OW47938   4.897  11.838   4.221
82014SOL    HW147939   4.911  11.849   4.127
82014SOL    HW247940   4.926  11.921   4.259
82015SOL     OW47941   1.463   4.473  13.232
82015SOL    HW147942   1.368   4.466  13.224
82015SOL    HW247943   1.497   4.410  13.168
82016SOL     OW47944  13.077   1.311   5.448
82016SOL    HW147945  13.082   1.221   5.481
82016SOL    HW247946  12.996   1.346   5.485
82017SOL     OW47947   0.588   0.319  13.782
82017SOL    HW147948   0.563   0.410  13.765
82017SOL    HW247949   0.677   0.311  13.748
82018SOL     OW47950   0.881   7.741  14.049
82018SOL    HW147951   0.862   7.795  13.972
82018SOL    HW247952   0.856   7.652  14.022
82019SOL     OW47953   2.618  10.760   6.677
82019SOL    HW147954   2.712  10.746   6.688
82019SOL    HW247955   2.585  10.774   6.766
82020SOL     OW47956  10.139   5.140   9.950
82020SOL    HW147957  10.165   5.177   9.866
82020SOL    HW247958  10.065   5.193   9.978
82021SOL     OW47959   8.796   7.472   9.994
82021SOL    HW147960   8.875   7.418   9.999
82021SOL    HW247961   8.741   7.428   9.930
82022SOL     OW47962   9.303  14.207   7.232
82022SOL    HW147963   9.309  14.300   7.255
82022SOL    HW247964   9.260  14.206   7.146
82023SOL     OW47965   0.021   6.225   1.343
82023SOL    HW147966  14.836   6.282   1.291
82023SOL    HW247967  14.847   6.142   1.348
82024SOL     OW47968  14.701  14.135   8.393
82024SOL    HW147969  14.757  14.147   8.470
82024SOL    HW247970  14.751  14.078   8.335
82025SOL     OW47971  12.972  13.805  10.056
82025SOL    HW147972  13.000  13.778   9.969
82025SOL    HW247973  12.993  13.730  10.112
82026SOL     OW47974   7.607   2.620  10.988
82026SOL    HW147975   7.560   2.699  11.017
82026SOL    HW247976   7.573   2.551  11.044
82027SOL     OW47977   2.140  10.279   2.217
82027SOL    HW147978   2.079  10.343   2.254
82027SOL    HW247979   2.115  10.272   2.125
82028SOL     OW47980   2.449   5.161  10.914
82028SOL    HW147981   2.354   5.166  10.916
82028SOL    HW247982   2.479   5.236  10.965
82029SOL     OW47983   6.655   9.900  11.898
82029SOL    HW147984   6.563   9.924  11.903
82029SOL    HW247985   6.697   9.948  11.969
82030SOL     OW47986   1.418   4.369   0.415
82030SOL    HW147987   1.501   4.399   0.380
82030SOL    HW247988   1.434   4.359   0.509
82031SOL     OW47989  14.818   6.844  14.351
82031SOL    HW147990  14.820   6.802  14.265
82031SOL    HW247991  14.817   6.772  14.414
82032SOL     OW47992  11.795   8.713  11.721
82032SOL    HW147993  11.756   8.702  11.634
82032SOL    HW247994  11.769   8.801  11.748
82033SOL     OW47995   4.284  10.304   9.534
82033SOL    HW147996   4.323  10.321   9.448
82033SOL    HW247997   4.268  10.210   9.535
82034SOL     OW47998   9.503   5.641   0.097
82034SOL    HW147999   9.485   5.551   0.070
82034SOL    HW248000   9.598   5.646   0.105
82035SOL     OW48001  13.553   9.698   2.819
82035SOL    HW148002  13.569   9.667   2.730
82035SOL    HW248003  13.458   9.702   2.827
82036SOL     OW48004   1.472  11.077  11.565
82036SOL    HW148005   1.566  11.082  11.580
82036SOL    HW248006   1.460  11.112  11.477
82037SOL     OW48007  13.893   5.123   6.329
82037SOL    HW148008  13.838   5.202   6.328
82037SOL    HW248009  13.899   5.098   6.238
82038SOL     OW48010  11.139   2.677  12.805
82038SOL    HW148011  11.079   2.648  12.737
82038SOL    HW248012  11.169   2.763  12.775
82039SOL     OW48013   3.636   2.046  12.516
82039SOL    HW148014   3.720   2.076  12.481
82039SOL    HW248015   3.655   1.960  12.553
82040SOL     OW48016  13.951  12.995   5.413
82040SOL    HW148017  13.920  13.073   5.367
82040SOL    HW248018  13.993  13.028   5.492
82041SOL     OW48019   2.342  14.814   8.997
82041SOL    HW148020   2.409   0.010   9.006
82041SOL    HW248021   2.305  14.805   9.085
82042SOL     OW48022   2.521   0.584   3.117
82042SOL    HW148023   2.455   0.517   3.134
82042SOL    HW248024   2.504   0.652   3.183
82043SOL     OW48025   1.195   7.783  12.689
82043SOL    HW148026   1.177   7.826  12.605
82043SOL    HW248027   1.177   7.690  12.673
82044SOL     OW48028   6.193   1.921  11.937
82044SOL    HW148029   6.202   1.999  11.991
82044SOL    HW248030   6.102   1.893  11.950
82045SOL     OW48031  13.630   8.059  10.997
82045SOL    HW148032  13.600   8.101  11.078
82045SOL    HW248033  13.609   8.123  10.928
82046SOL     OW48034  14.120   9.223  10.241
82046SOL    HW148035  14.045   9.283  10.249
82046SOL    HW248036  14.138   9.219  10.147
82047SOL     OW48037  13.756   3.944   3.161
82047SOL    HW148038  13.826   3.972   3.102
82047SOL    HW248039  13.677   3.986   3.127
82048SOL     OW48040  12.585   8.472   0.397
82048SOL    HW148041  12.581   8.515   0.311
82048SOL    HW248042  12.503   8.424   0.403
82049SOL     OW48043   6.265   1.668   1.275
82049SOL    HW148044   6.262   1.698   1.366
82049SOL    HW248045   6.183   1.619   1.263
82050SOL     OW48046  14.244   6.333   8.662
82050SOL    HW148047  14.213   6.323   8.572
82050SOL    HW248048  14.310   6.264   8.671
82051SOL     OW48049   3.000   2.600  13.096
82051SOL    HW148050   2.951   2.548  13.160
82051SOL    HW248051   2.934   2.632  13.035
82052SOL     OW48052   4.244   6.793  14.622
82052SOL    HW148053   4.262   6.706  14.658
82052SOL    HW248054   4.303   6.801  14.547
82053SOL     OW48055   4.120   7.275   5.307
82053SOL    HW148056   4.160   7.252   5.223
82053SOL    HW248057   4.032   7.236   5.303
82054SOL     OW48058   2.843  13.166   3.284
82054SOL    HW148059   2.907  13.237   3.293
82054SOL    HW248060   2.763  13.202   3.322
82055SOL     OW48061   0.691  10.026  14.363
82055SOL    HW148062   0.677  10.038  14.270
82055SOL    HW248063   0.624  10.080  14.405
82056SOL     OW48064   5.612   9.021   6.406
82056SOL    HW148065   5.632   8.960   6.334
82056SOL    HW248066   5.697   9.059   6.428
82057SOL     OW48067  10.984   5.879   3.191
82057SOL    HW148068  11.015   5.968   3.171
82057SOL    HW248069  11.030   5.824   3.128
82058SOL     OW48070   4.356  11.481   1.620
82058SOL    HW148071   4.361  11.393   1.659
82058SOL    HW248072   4.374  11.540   1.694
82059SOL     OW48073   8.306   0.293   7.985
82059SOL    HW148074   8.290   0.303   8.079
82059SOL    HW248075   8.266   0.372   7.946
82060SOL     OW48076  12.201   8.579   9.779
82060SOL    HW148077  12.265   8.644   9.751
82060SOL    HW248078  12.144   8.567   9.703
82061SOL     OW48079   6.783   4.893   1.406
82061SOL    HW148080   6.748   4.881   1.495
82061SOL    HW248081   6.706   4.885   1.349
82062SOL     OW48082   3.119   6.145  11.900
82062SOL    HW148083   3.079   6.188  11.975
82062SOL    HW248084   3.197   6.103  11.935
82063SOL     OW48085   0.224   1.990  14.077
82063SOL    HW148086   0.298   1.934  14.053
82063SOL    HW248087   0.150   1.930  14.087
82064SOL     OW48088   1.456  11.817  10.416
82064SOL    HW148089   1.526  11.875  10.386
82064SOL    HW248090   1.376  11.868  10.403
82065SOL     OW48091  14.563   8.637   0.326
82065SOL    HW148092  14.598   8.569   0.383
82065SOL    HW248093  14.594   8.613   0.239
82066SOL     OW48094   6.528   0.671  12.590
82066SOL    HW148095   6.443   0.627  12.587
82066SOL    HW248096   6.586   0.608  12.632
82067SOL     OW48097   2.777   5.695   1.281
82067SOL    HW148098   2.843   5.630   1.259
82067SOL    HW248099   2.702   5.643   1.310
82068SOL     OW48100  14.392   2.005   6.316
82068SOL    HW148101  14.349   2.043   6.393
82068SOL    HW248102  14.320   1.969   6.264
82069SOL     OW48103   5.861   6.339   8.554
82069SOL    HW148104   5.900   6.418   8.516
82069SOL    HW248105   5.773   6.365   8.580
82070SOL     OW48106  13.544   0.325   4.984
82070SOL    HW148107  13.582   0.352   4.901
82070SOL    HW248108  13.505   0.239   4.966
82071SOL     OW48109   3.135  12.083   1.856
82071SOL    HW148110   3.114  11.994   1.887
82071SOL    HW248111   3.215  12.072   1.805
82072SOL     OW48112   2.764   3.501  12.366
82072SOL    HW148113   2.819   3.541  12.299
82072SOL    HW248114   2.825   3.473  12.434
82073SOL     OW48115  10.373  14.862   5.698
82073SOL    HW148116  10.290   0.017   5.738
82073SOL    HW248117  10.374  14.767   5.708
82074SOL     OW48118  10.157   9.447  10.326
82074SOL    HW148119  10.242   9.443  10.369
82074SOL    HW248120  10.144   9.359  10.290
82075SOL     OW48121   7.143   3.528  11.645
82075SOL    HW148122   7.233   3.508  11.668
82075SOL    HW248123   7.149   3.598  11.581
82076SOL     OW48124   7.476   4.557   8.732
82076SOL    HW148125   7.406   4.505   8.772
82076SOL    HW248126   7.518   4.497   8.671
82077SOL     OW48127   0.039  10.890   9.702
82077SOL    HW148128   0.093  10.852   9.633
82077SOL    HW248129  14.859  10.956   9.658
82078SOL     OW48130   6.404  12.603   4.647
82078SOL    HW148131   6.327  12.545   4.646
82078SOL    HW248132   6.455  12.574   4.722
82079SOL     OW48133  12.675   8.478   3.519
82079SOL    HW148134  12.709   8.527   3.594
82079SOL    HW248135  12.627   8.405   3.557
82080SOL     OW48136  13.983  13.891  10.634
82080SOL    HW148137  14.049  13.958  10.654
82080SOL    HW248138  14.033  13.809  10.635
82081SOL     OW48139   5.289  10.641  13.100
82081SOL    HW148140   5.255  10.555  13.124
82081SOL    HW248141   5.304  10.635  13.005
82082SOL     OW48142  13.951  14.330  12.971
82082SOL    HW148143  13.861  14.322  12.942
82082SOL    HW248144  13.993  14.250  12.939
82083SOL     OW48145   7.033   6.182   0.831
82083SOL    HW148146   6.953   6.140   0.800
82083SOL    HW248147   7.064   6.126   0.902
82084SOL     OW48148   0.981   2.959  13.250
82084SOL    HW148149   0.916   2.894  13.225
82084SOL    HW248150   0.945   3.042  13.219
82085SOL     OW48151  11.969  10.386  12.139
82085SOL    HW148152  11.911  10.398  12.064
82085SOL    HW248153  12.057  10.400  12.104
82086SOL     OW48154  11.862   5.065  13.997
82086SOL    HW148155  11.893   5.081  14.086
82086SOL    HW248156  11.802   4.990  14.005
82087SOL     OW48157   4.344   1.483   2.413
82087SOL    HW148158   4.370   1.572   2.436
82087SOL    HW248159   4.420   1.429   2.436
82088SOL     OW48160  10.198   4.764   5.127
82088SOL    HW148161  10.114   4.811   5.121
82088SOL    HW248162  10.206   4.720   5.042
82089SOL     OW48163   8.366   9.486   8.200
82089SOL    HW148164   8.366   9.411   8.141
82089SOL    HW248165   8.311   9.459   8.273
82090SOL     OW48166   5.899   1.886  13.468
82090SOL    HW148167   5.970   1.822  13.469
82090SOL    HW248168   5.820   1.833  13.465
82091SOL     OW48169   6.558   8.232   7.235
82091SOL    HW148170   6.520   8.253   7.150
82091SOL    HW248171   6.639   8.283   7.239
82092SOL     OW48172  14.082   5.101  11.136
82092SOL    HW148173  14.141   5.173  11.116
82092SOL    HW248174  14.017   5.103  11.066
82093SOL     OW48175   0.649  13.678   8.831
82093SOL    HW148176   0.744  13.689   8.824
82093SOL    HW248177   0.622  13.643   8.746
82094SOL     OW48178   0.960  14.052  13.110
82094SOL    HW148179   0.952  14.063  13.205
82094SOL    HW248180   1.017  13.975  13.100
82095SOL     OW48181   5.527  11.222  12.347
82095SOL    HW148182   5.573  11.300  12.317
82095SOL    HW248183   5.434  11.243  12.335
82096SOL     OW48184  11.821   9.314   5.059
82096SOL    HW148185  11.853   9.381   5.120
82096SOL    HW248186  11.803   9.238   5.114
82097SOL     OW48187  14.177   0.829  14.067
82097SOL    HW148188  14.271   0.827  14.049
82097SOL    HW248189  14.169   0.873  14.151
82098SOL     OW48190  13.503   5.039  14.525
82098SOL    HW148191  13.460   5.079  14.600
82098SOL    HW248192  13.595   5.062  14.534
82099SOL     OW48193  11.719   7.664  13.757
82099SOL    HW148194  11.693   7.740  13.809
82099SOL    HW248195  11.766   7.700  13.683
82100SOL     OW48196   3.551   4.073   9.452
82100SOL    HW148197   3.553   4.133   9.526
82100SOL    HW248198   3.639   4.076   9.415
82101SOL     OW48199   8.645   7.383   4.096
82101SOL    HW148200   8.723   7.327   4.102
82101SOL    HW248201   8.571   7.322   4.098
82102SOL     OW48202   0.014   5.353   5.856
82102SOL    HW148203   0.101   5.321   5.879
82102SOL    HW248204   0.011   5.441   5.893
82103SOL     OW48205   0.351  13.763   5.315
82103SOL    HW148206   0.302  13.690   5.353
82103SOL    HW248207   0.295  13.796   5.244
82104SOL     OW48208   3.170  12.810   4.484
82104SOL    HW148209   3.183  12.825   4.391
82104SOL    HW248210   3.222  12.732   4.503
82105SOL     OW48211   6.691   8.277   7.649
82105SOL    HW148212   6.751   8.218   7.604
82105SOL    HW248213   6.605   8.236   7.639
82106SOL     OW48214  12.913   1.898   9.925
82106SOL    HW148215  12.844   1.930   9.983
82106SOL    HW248216  12.993   1.940   9.957
82107SOL     OW48217  12.240   4.457  11.387
82107SOL    HW148218  12.213   4.549  11.388
82107SOL    HW248219  12.306   4.452  11.318
82108SOL     OW48220   0.109  10.810  10.563
82108SOL    HW148221   0.113  10.794  10.469
82108SOL    HW248222   0.193  10.849  10.585
82109SOL     OW48223   5.655   4.053   4.745
82109SOL    HW148224   5.658   3.975   4.801
82109SOL    HW248225   5.703   4.028   4.666
82110SOL     OW48226  12.460   0.471   2.085
82110SOL    HW148227  12.470   0.424   2.002
82110SOL    HW248228  12.543   0.518   2.096
82111SOL     OW48229   3.824   1.010   8.500
82111SOL    HW148230   3.838   0.997   8.406
82111SOL    HW248231   3.823   0.922   8.537
82112SOL     OW48232   3.911   9.139  14.596
82112SOL    HW148233   3.913   9.075  14.667
82112SOL    HW248234   3.918   9.224  14.639
82113SOL     OW48235   0.707   2.242   1.767
82113SOL    HW148236   0.697   2.151   1.794
82113SOL    HW248237   0.798   2.248   1.738
82114SOL     OW48238   7.872   3.852   1.488
82114SOL    HW148239   7.932   3.791   1.445
82114SOL    HW248240   7.794   3.800   1.505
82115SOL     OW48241  10.231   0.243  14.131
82115SOL    HW148242  10.172   0.264  14.059
82115SOL    HW248243  10.222   0.317  14.191
82116SOL     OW48244   2.569   9.579   4.651
82116SOL    HW148245   2.545   9.672   4.646
82116SOL    HW248246   2.497   9.539   4.700
82117SOL     OW48247  14.543  14.275   5.289
82117SOL    HW148248  14.543  14.288   5.194
82117SOL    HW248249  14.581  14.188   5.301
82118SOL     OW48250  14.470   7.360   6.301
82118SOL    HW148251  14.512   7.280   6.268
82118SOL    HW248252  14.422   7.394   6.226
82119SOL     OW48253   8.856  11.693   4.826
82119SOL    HW148254   8.925  11.754   4.801
82119SOL    HW248255   8.778  11.724   4.780
82120SOL     OW48256   2.253   8.454  11.447
82120SOL    HW148257   2.186   8.395  11.482
82120SOL    HW248258   2.264   8.520  11.516
82121SOL     OW48259  11.923  14.163  13.258
82121SOL    HW148260  11.885  14.247  13.287
82121SOL    HW248261  12.011  14.187  13.227
82122SOL     OW48262  14.786   6.710   0.030
82122SOL    HW148263  14.799   6.699   0.124
82122SOL    HW248264  14.704   6.663   0.011
82123SOL     OW48265   2.357   9.053   1.608
82123SOL    HW148266   2.292   9.022   1.545
82123SOL    HW248267   2.422   8.983   1.612
82124SOL     OW48268  12.515   4.842  14.846
82124SOL    HW148269  12.580   4.825   0.042
82124SOL    HW248270  12.433   4.806   0.010
82125SOL     OW48271   9.831   2.665  10.233
82125SOL    HW148272   9.909   2.690  10.183
82125SOL    HW248273   9.809   2.743  10.284
82126SOL     OW48274   6.036   0.035  12.190
82126SOL    HW148275   6.131   0.041  12.187
82126SOL    HW248276   6.013  14.849  12.118
82127SOL     OW48277  11.661   1.957   4.034
82127SOL    HW148278  11.683   1.914   4.116
82127SOL    HW248279  11.687   2.048   4.047
82128SOL     OW48280   0.731  11.289   5.951
82128SOL    HW148281   0.722  11.295   5.856
82128SOL    HW248282   0.650  11.328   5.985
82129SOL     OW48283   7.189   7.329  13.041
82129SOL    HW148284   7.129   7.377  12.984
82129SOL    HW248285   7.171   7.237  13.021
82130SOL     OW48286   5.764   8.702   4.481
82130SOL    HW148287   5.751   8.742   4.567
82130SOL    HW248288   5.678   8.665   4.459
82131SOL     OW48289  13.228   4.044   4.740
82131SOL    HW148290  13.217   4.139   4.749
82131SOL    HW248291  13.243   4.013   4.829
82132SOL     OW48292   5.531   9.713   3.806
82132SOL    HW148293   5.455   9.772   3.808
82132SOL    HW248294   5.521   9.659   3.885
82133SOL     OW48295   0.726   4.470  13.172
82133SOL    HW148296   0.689   4.392  13.129
82133SOL    HW248297   0.800   4.437  13.222
82134SOL     OW48298  10.360  14.122   4.859
82134SOL    HW148299  10.440  14.104   4.908
82134SOL    HW248300  10.297  14.057   4.889
82135SOL     OW48301   6.304  11.991   8.648
82135SOL    HW148302   6.272  11.930   8.581
82135SOL    HW248303   6.229  12.004   8.706
82136SOL     OW48304   5.012  14.566   2.914
82136SOL    HW148305   5.058  14.501   2.968
82136SOL    HW248306   5.076  14.593   2.849
82137SOL     OW48307  13.677  13.976   3.015
82137SOL    HW148308  13.771  13.961   3.024
82137SOL    HW248309  13.661  14.059   3.059
82138SOL     OW48310   3.340  13.153   6.045
82138SOL    HW148311   3.405  13.154   6.115
82138SOL    HW248312   3.363  13.076   5.992
82139SOL     OW48313  11.093   5.503  11.855
82139SOL    HW148314  11.101   5.582  11.801
82139SOL    HW248315  11.092   5.535  11.945
82140SOL     OW48316   4.227   1.756  11.167
82140SOL    HW148317   4.142   1.731  11.203
82140SOL    HW248318   4.216   1.848  11.141
82141SOL     OW48319   9.890  10.506   7.687
82141SOL    HW148320   9.831  10.514   7.762
82141SOL    HW248321   9.925  10.417   7.694
82142SOL     OW48322   9.357   0.547   5.569
82142SOL    HW148323   9.369   0.515   5.658
82142SOL    HW248324   9.408   0.488   5.514
82143SOL     OW48325   3.476   2.193   2.277
82143SOL    HW148326   3.547   2.128   2.282
82143SOL    HW248327   3.475   2.219   2.185
82144SOL     OW48328  13.477  14.087   5.156
82144SOL    HW148329  13.485  14.152   5.086
82144SOL    HW248330  13.418  14.021   5.120
82145SOL     OW48331   8.979   7.128   7.705
82145SOL    HW148332   8.940   7.040   7.712
82145SOL    HW248333   8.910   7.187   7.734
82146SOL     OW48334   2.902   5.723  12.416
82146SOL    HW148335   2.997   5.708  12.415
82146SOL    HW248336   2.893   5.818  12.424
82147SOL     OW48337   8.507   8.576   7.358
82147SOL    HW148338   8.465   8.541   7.436
82147SOL    HW248339   8.445   8.640   7.323
82148SOL     OW48340   6.364   0.018   8.719
82148SOL    HW148341   6.398   0.080   8.655
82148SOL    HW248342   6.429  14.821   8.722
82149SOL     OW48343   2.889  13.709   0.591
82149SOL    HW148344   2.930  13.623   0.577
82149SOL    HW248345   2.947  13.771   0.547
82150SOL     OW48346  12.690   1.677   8.882
82150SOL    HW148347  12.721   1.589   8.859
82150SOL    HW248348  12.726   1.734   8.814
82151SOL     OW48349  12.626   8.048   4.361
82151SOL    HW148350  12.680   8.043   4.282
82151SOL    HW248351  12.595   7.959   4.375
82152SOL     OW48352  12.227   1.124   0.075
82152SOL    HW148353  12.157   1.190   0.080
82152SOL    HW248354  12.181   1.043   0.056
82153SOL     OW48355   8.081   3.814   1.269
82153SOL    HW148356   8.063   3.884   1.206
82153SOL    HW248357   8.168   3.836   1.305
82154SOL     OW48358   1.088   9.415   7.766
82154SOL    HW148359   1.109   9.434   7.675
82154SOL    HW248360   1.035   9.488   7.795
82155SOL     OW48361   2.370   2.778   5.316
82155SOL    HW148362   2.365   2.777   5.411
82155SOL    HW248363   2.328   2.861   5.291
82156SOL     OW48364  11.114  10.533   1.697
82156SOL    HW148365  11.085  10.616   1.734
82156SOL    HW248366  11.186  10.505   1.755
82157SOL     OW48367  11.604  14.489  10.997
82157SOL    HW148368  11.582  14.415  10.940
82157SOL    HW248369  11.700  14.490  10.998
82158SOL     OW48370   2.041  14.194   7.919
82158SOL    HW148371   2.095  14.209   7.841
82158SOL    HW248372   2.095  14.138   7.975
82159SOL     OW48373   4.206   6.042  10.104
82159SOL    HW148374   4.255   5.966  10.136
82159SOL    HW248375   4.274   6.102  10.072
82160SOL     OW48376  12.313   1.556   7.678
82160SOL    HW148377  12.339   1.473   7.637
82160SOL    HW248378  12.383   1.575   7.740
82161SOL     OW48379  14.054   8.028   9.710
82161SOL    HW148380  14.143   8.025   9.675
82161SOL    HW248381  14.058   7.978   9.792
82162SOL     OW48382   1.219   8.741   2.907
82162SOL    HW148383   1.199   8.723   2.999
82162SOL    HW248384   1.313   8.728   2.899
82163SOL     OW48385   1.323  10.441  12.251
82163SOL    HW148386   1.324  10.465  12.344
82163SOL    HW248387   1.237  10.470  12.220
82164SOL     OW48388  12.498   4.034   5.455
82164SOL    HW148389  12.463   4.123   5.469
82164SOL    HW248390  12.460   4.007   5.371
82165SOL     OW48391   8.004   2.157   9.743
82165SOL    HW148392   8.063   2.089   9.774
82165SOL    HW248393   8.005   2.224   9.812
82166SOL     OW48394   2.382   5.664  14.538
82166SOL    HW148395   2.377   5.672  14.633
82166SOL    HW248396   2.358   5.751  14.505
82167SOL     OW48397  14.669   1.082   3.848
82167SOL    HW148398  14.747   1.118   3.889
82167SOL    HW248399  14.621   1.158   3.815
82168SOL     OW48400   6.275   3.561  11.874
82168SOL    HW148401   6.237   3.514  11.948
82168SOL    HW248402   6.238   3.649  11.880
82169SOL     OW48403  13.165   3.456  10.799
82169SOL    HW148404  13.179   3.547  10.826
82169SOL    HW248405  13.244   3.434  10.749
82170SOL     OW48406   2.010   0.301   9.393
82170SOL    HW148407   1.916   0.320   9.396
82170SOL    HW248408   2.031   0.271   9.481
82171SOL     OW48409   8.457   3.415   6.734
82171SOL    HW148410   8.541   3.446   6.765
82171SOL    HW248411   8.428   3.351   6.800
82172SOL     OW48412   7.828   0.480   3.179
82172SOL    HW148413   7.895   0.446   3.238
82172SOL    HW248414   7.828   0.419   3.105
82173SOL     OW48415   6.784   1.068   9.634
82173SOL    HW148416   6.803   1.069   9.728
82173SOL    HW248417   6.689   1.063   9.629
82174SOL     OW48418   6.756   7.734  11.554
82174SOL    HW148419   6.661   7.722  11.551
82174SOL    HW248420   6.788   7.658  11.603
82175SOL     OW48421   3.619  12.831  12.886
82175SOL    HW148422   3.634  12.870  12.799
82175SOL    HW248423   3.701  12.787  12.907
82176SOL     OW48424   7.245   1.448  14.184
82176SOL    HW148425   7.197   1.376  14.143
82176SOL    HW248426   7.191   1.473  14.259
82177SOL     OW48427   3.133   0.258   0.701
82177SOL    HW148428   3.185   0.306   0.636
82177SOL    HW248429   3.042   0.280   0.680
82178SOL     OW48430   9.134  14.764   0.269
82178SOL    HW148431   9.043  14.785   0.248
82178SOL    HW248432   9.147  14.676   0.233
82179SOL     OW48433  10.260   3.817   1.994
82179SOL    HW148434  10.220   3.740   1.952
82179SOL    HW248435  10.258   3.884   1.925
82180SOL     OW48436   8.329  11.598  12.553
82180SOL    HW148437   8.247  11.555  12.576
82180SOL    HW248438   8.308  11.692  12.556
82181SOL     OW48439   9.080   2.029   2.721
82181SOL    HW148440   9.149   2.003   2.661
82181SOL    HW248441   9.000   1.991   2.684
82182SOL     OW48442   4.366  11.079  10.590
82182SOL    HW148443   4.425  11.007  10.611
82182SOL    HW248444   4.424  11.148  10.556
82183SOL     OW48445   0.641   2.126  10.686
82183SOL    HW148446   0.693   2.154  10.610
82183SOL    HW248447   0.618   2.207  10.731
82184SOL     OW48448   5.824  10.718   4.993
82184SOL    HW148449   5.908  10.706   4.949
82184SOL    HW248450   5.792  10.803   4.963
82185SOL     OW48451   0.940   4.049  13.566
82185SOL    HW148452   0.984   4.134  13.563
82185SOL    HW248453   0.849   4.071  13.588
82186SOL     OW48454  11.724   4.745  10.056
82186SOL    HW148455  11.812   4.712  10.038
82186SOL    HW248456  11.681   4.746   9.970
82187SOL     OW48457   9.549  12.272   7.637
82187SOL    HW148458   9.590  12.333   7.576
82187SOL    HW248459   9.598  12.190   7.626
82188SOL     OW48460   3.691  11.330   2.481
82188SOL    HW148461   3.644  11.357   2.560
82188SOL    HW248462   3.730  11.246   2.504
82189SOL     OW48463   4.803  12.838   9.990
82189SOL    HW148464   4.882  12.882  10.021
82189SOL    HW248465   4.738  12.908   9.985
82190SOL     OW48466   3.123   1.792   5.543
82190SOL    HW148467   3.072   1.843   5.606
82190SOL    HW248468   3.133   1.851   5.468
82191SOL     OW48469   6.007   5.928   5.660
82191SOL    HW148470   6.008   5.992   5.588
82191SOL    HW248471   5.961   5.853   5.625
82192SOL     OW48472  14.477  11.203   8.787
82192SOL    HW148473  14.416  11.250   8.730
82192SOL    HW248474  14.452  11.111   8.780
82193SOL     OW48475   7.109  10.226  14.203
82193SOL    HW148476   7.153  10.310  14.192
82193SOL    HW248477   7.031  10.232  14.148
82194SOL     OW48478   7.912   6.344  12.210
82194SOL    HW148479   7.957   6.427  12.197
82194SOL    HW248480   7.821   6.368  12.229
82195SOL     OW48481   8.363   5.835   5.103
82195SOL    HW148482   8.416   5.905   5.065
82195SOL    HW248483   8.343   5.777   5.030
82196SOL     OW48484   7.891   8.670   0.442
82196SOL    HW148485   7.844   8.723   0.507
82196SOL    HW248486   7.948   8.732   0.397
82197SOL     OW48487   2.501   0.023   0.023
82197SOL    HW148488   2.470   0.090  14.834
82197SOL    HW248489   2.424  14.869   0.072
82198SOL     OW48490   8.193  12.217   7.201
82198SOL    HW148491   8.118  12.258   7.158
82198SOL    HW248492   8.221  12.281   7.267
82199SOL     OW48493   0.907   5.038   4.539
82199SOL    HW148494   0.831   5.093   4.517
82199SOL    HW248495   0.896   5.018   4.632
82200SOL     OW48496  11.972  14.421   5.572
82200SOL    HW148497  12.055  14.425   5.620
82200SOL    HW248498  11.951  14.512   5.552
82201SOL     OW48499   7.943  11.859   8.260
82201SOL    HW148500   7.947  11.765   8.244
82201SOL    HW248501   8.025  11.880   8.304
82202SOL     OW48502   6.096   9.081   6.908
82202SOL    HW148503   6.160   9.089   6.837
82202SOL    HW248504   6.145   9.046   6.982
82203SOL     OW48505   0.517   1.753   2.104
82203SOL    HW148506   0.487   1.826   2.050
82203SOL    HW248507   0.603   1.779   2.136
82204SOL     OW48508   1.406  13.553   6.086
82204SOL    HW148509   1.481  13.536   6.143
82204SOL    HW248510   1.442  13.603   6.013
82205SOL     OW48511   5.535   5.090   4.915
82205SOL    HW148512   5.565   5.115   4.827
82205SOL    HW248513   5.613   5.095   4.970
82206SOL     OW48514   8.500   0.928   9.343
82206SOL    HW148515   8.456   0.922   9.428
82206SOL    HW248516   8.588   0.893   9.359
82207SOL     OW48517   6.814  12.440   7.749
82207SOL    HW148518   6.860  12.410   7.828
82207SOL    HW248519   6.802  12.534   7.762
82208SOL     OW48520  11.377  11.287   3.046
82208SOL    HW148521  11.344  11.367   3.004
82208SOL    HW248522  11.370  11.220   2.979
82209SOL     OW48523   4.124  11.400   5.621
82209SOL    HW148524   4.200  11.388   5.679
82209SOL    HW248525   4.139  11.484   5.578
82210SOL     OW48526   8.765  12.084  14.445
82210SOL    HW148527   8.694  12.149  14.447
82210SOL    HW248528   8.764  12.044  14.532
82211SOL     OW48529  13.296   9.671   5.850
82211SOL    HW148530  13.378   9.719   5.859
82211SOL    HW248531  13.252   9.682   5.935
82212SOL     OW48532  10.311  14.400   8.718
82212SOL    HW148533  10.225  14.433   8.691
82212SOL    HW248534  10.372  14.442   8.657
82213SOL     OW48535   4.404   0.555   7.904
82213SOL    HW148536   4.451   0.636   7.921
82213SOL    HW248537   4.429   0.530   7.815
82214SOL     OW48538   0.760   8.168  12.179
82214SOL    HW148539   0.788   8.099  12.240
82214SOL    HW248540   0.770   8.249  12.228
82215SOL     OW48541   2.844   8.260   8.186
82215SOL    HW148542   2.807   8.339   8.226
82215SOL    HW248543   2.847   8.281   8.092
82216SOL     OW48544   1.630   1.999   9.819
82216SOL    HW148545   1.563   1.939   9.852
82216SOL    HW248546   1.675   1.949   9.751
82217SOL     OW48547   6.825   0.222  10.910
82217SOL    HW148548   6.759   0.220  10.979
82217SOL    HW248549   6.781   0.262  10.835
82218SOL     OW48550   6.160  12.639   3.561
82218SOL    HW148551   6.125  12.728   3.566
82218SOL    HW248552   6.219  12.632   3.636
82219SOL     OW48553  11.281  10.196   2.071
82219SOL    HW148554  11.210  10.255   2.042
82219SOL    HW248555  11.236  10.115   2.095
82220SOL     OW48556  14.063   4.354   1.207
82220SOL    HW148557  13.989   4.409   1.235
82220SOL    HW248558  14.110   4.409   1.144
82221SOL     OW48559   7.916  13.189  10.090
82221SOL    HW148560   7.994  13.237  10.119
82221SOL    HW248561   7.847  13.255  10.086
82222SOL     OW48562   6.114   3.026   5.686
82222SOL    HW148563   6.095   3.105   5.635
82222SOL    HW248564   6.181   3.053   5.749
82223SOL     OW48565   2.444  12.019  13.067
82223SOL    HW148566   2.361  12.057  13.096
82223SOL    HW248567   2.455  12.050  12.978
82224SOL     OW48568   1.978   8.343   1.374
82224SOL    HW148569   2.013   8.336   1.462
82224SOL    HW248570   1.912   8.412   1.379
82225SOL     OW48571  14.684  10.177   0.165
82225SOL    HW148572  14.664  10.259   0.211
82225SOL    HW248573  14.604  10.125   0.172
82226SOL     OW48574   3.840   5.106   8.006
82226SOL    HW148575   3.830   5.140   7.917
82226SOL    HW248576   3.761   5.055   8.021
82227SOL     OW48577  11.748   9.676   2.612
82227SOL    HW148578  11.676   9.733   2.640
82227SOL    HW248579  11.818   9.694   2.674
82228SOL     OW48580  11.616  12.742  13.743
82228SOL    HW148581  11.544  12.797  13.714
82228SOL    HW248582  11.672  12.800  13.794
82229SOL     OW48583  11.155   7.279   0.813
82229SOL    HW148584  11.170   7.220   0.740
82229SOL    HW248585  11.223   7.346   0.805
82230SOL     OW48586  12.373   9.837   6.825
82230SOL    HW148587  12.429   9.767   6.790
82230SOL    HW248588  12.400   9.915   6.776
82231SOL     OW48589   4.609   5.864  11.588
82231SOL    HW148590   4.665   5.936  11.617
82231SOL    HW248591   4.639   5.788  11.638
82232SOL     OW48592   8.855   2.227   1.459
82232SOL    HW148593   8.939   2.270   1.447
82232SOL    HW248594   8.831   2.246   1.550
82233SOL     OW48595  12.263   0.216   8.952
82233SOL    HW148596  12.341   0.191   9.001
82233SOL    HW248597  12.222   0.133   8.929
82234SOL     OW48598   5.864   3.840   4.283
82234SOL    HW148599   5.826   3.926   4.303
82234SOL    HW248600   5.802   3.777   4.320
82235SOL     OW48601   0.208   5.701   5.678
82235SOL    HW148602   0.238   5.791   5.689
82235SOL    HW248603   0.183   5.695   5.586
82236SOL     OW48604   5.110  14.620   0.034
82236SOL    HW148605   5.111  14.715   0.043
82236SOL    HW248606   5.202  14.595   0.027
82237SOL     OW48607   7.460  14.038   8.189
82237SOL    HW148608   7.543  13.992   8.204
82237SOL    HW248609   7.457  14.053   8.095
82238SOL     OW48610   9.878  11.032   1.744
82238SOL    HW148611   9.913  10.974   1.812
82238SOL    HW248612   9.836  11.102   1.793
82239SOL     OW48613   4.963  13.243   1.499
82239SOL    HW148614   4.898  13.292   1.549
82239SOL    HW248615   5.039  13.238   1.557
82240SOL     OW48616   4.090   1.432   0.044
82240SOL    HW148617   4.007   1.397   0.078
82240SOL    HW248618   4.099   1.391  14.830
82241SOL     OW48619  10.607  14.124   8.848
82241SOL    HW148620  10.617  14.172   8.930
82241SOL    HW248621  10.619  14.033   8.872
82242SOL     OW48622   8.575  12.922   1.052
82242SOL    HW148623   8.490  12.938   1.093
82242SOL    HW248624   8.567  12.835   1.012
82243SOL     OW48625   0.963   5.939   9.080
82243SOL    HW148626   0.934   5.923   9.170
82243SOL    HW248627   1.055   5.914   9.079
82244SOL     OW48628  14.680   4.239   3.517
82244SOL    HW148629  14.610   4.244   3.583
82244SOL    HW248630  14.694   4.145   3.504
82245SOL     OW48631   8.003  13.667   7.848
82245SOL    HW148632   8.038  13.709   7.927
82245SOL    HW248633   8.002  13.736   7.782
82246SOL     OW48634  10.397   1.871  13.624
82246SOL    HW148635  10.426   1.962  13.618
82246SOL    HW248636  10.334   1.861  13.553
82247SOL     OW48637   5.436  14.680   9.417
82247SOL    HW148638   5.438  14.588   9.391
82247SOL    HW248639   5.515  14.691   9.470
82248SOL     OW48640   5.208   8.003   1.672
82248SOL    HW148641   5.214   8.078   1.614
82248SOL    HW248642   5.142   7.946   1.632
82249SOL     OW48643   9.614   6.525   1.491
82249SOL    HW148644   9.551   6.453   1.493
82249SOL    HW248645   9.578   6.587   1.427
82250SOL     OW48646   5.371   9.625   7.174
82250SOL    HW148647   5.384   9.689   7.104
82250SOL    HW248648   5.398   9.542   7.135
82251SOL     OW48649   6.253   1.390  13.164
82251SOL    HW148650   6.239   1.454  13.094
82251SOL    HW248651   6.341   1.409  13.197
82252SOL     OW48652   9.083   7.642  13.331
82252SOL    HW148653   8.988   7.639  13.320
82252SOL    HW248654   9.114   7.691  13.255
82253SOL     OW48655  12.075   7.039   3.919
82253SOL    HW148656  12.089   7.024   3.825
82253SOL    HW248657  11.994   6.992   3.939
82254SOL     OW48658  12.808   6.430   3.978
82254SOL    HW148659  12.873   6.369   3.942
82254SOL    HW248660  12.858   6.510   3.996
82255SOL     OW48661  13.045   8.968  11.110
82255SOL    HW148662  13.085   8.907  11.048
82255SOL    HW248663  13.096   8.957  11.191
82256SOL     OW48664  12.443   7.551   5.169
82256SOL    HW148665  12.383   7.498   5.116
82256SOL    HW248666  12.415   7.535   5.259
82257SOL     OW48667  10.792   1.933  10.960
82257SOL    HW148668  10.748   1.876  10.897
82257SOL    HW248669  10.872   1.886  10.984
82258SOL     OW48670  13.723  14.212  12.449
82258SOL    HW148671  13.671  14.166  12.384
82258SOL    HW248672  13.664  14.278  12.485
82259SOL     OW48673  13.833  10.329   5.371
82259SOL    HW148674  13.817  10.396   5.437
82259SOL    HW248675  13.766  10.263   5.388
82260SOL     OW48676   2.351   0.983   7.746
82260SOL    HW148677   2.438   0.947   7.726
82260SOL    HW248678   2.300   0.907   7.773
82261SOL     OW48679   8.777   8.714  11.595
82261SOL    HW148680   8.684   8.722  11.574
82261SOL    HW248681   8.779   8.676  11.682
82262SOL     OW48682   0.845   2.085   5.251
82262SOL    HW148683   0.914   2.149   5.265
82262SOL    HW248684   0.769   2.120   5.297
82263SOL     OW48685   5.119  13.815  12.456
82263SOL    HW148686   5.055  13.795  12.387
82263SOL    HW248687   5.133  13.731  12.500
82264SOL     OW48688   7.554   0.485   1.617
82264SOL    HW148689   7.459   0.493   1.612
82264SOL    HW248690   7.573   0.398   1.582
82265SOL     OW48691   9.169   0.740  12.447
82265SOL    HW148692   9.089   0.792  12.453
82265SOL    HW248693   9.168   0.686  12.526
82266SOL     OW48694  14.136   3.586  12.650
82266SOL    HW148695  14.186   3.646  12.706
82266SOL    HW248696  14.125   3.508  12.703
82267SOL     OW48697   5.752   7.671  13.841
82267SOL    HW148698   5.727   7.621  13.763
82267SOL    HW248699   5.780   7.604  13.904
82268SOL     OW48700  10.732   8.934   2.838
82268SOL    HW148701  10.732   8.898   2.927
82268SOL    HW248702  10.663   8.885   2.792
82269SOL     OW48703   2.279   4.064   6.729
82269SOL    HW148704   2.308   4.016   6.651
82269SOL    HW248705   2.279   4.156   6.702
82270SOL     OW48706  10.908   9.778   7.447
82270SOL    HW148707  10.897   9.692   7.487
82270SOL    HW248708  10.984   9.769   7.390
82271SOL     OW48709   3.211  12.430   5.890
82271SOL    HW148710   3.304  12.434   5.869
82271SOL    HW248711   3.203  12.359   5.953
82272SOL     OW48712   8.126  13.412   6.132
82272SOL    HW148713   8.090  13.450   6.052
82272SOL    HW248714   8.099  13.472   6.201
82273SOL     OW48715  14.787  10.410   1.690
82273SOL    HW148716  14.797  10.330   1.639
82273SOL    HW248717  14.848  10.400   1.763
82274SOL     OW48718   8.787   5.050   6.553
82274SOL    HW148719   8.808   4.975   6.609
82274SOL    HW248720   8.702   5.080   6.584
82275SOL     OW48721  10.938   6.973   1.658
82275SOL    HW148722  11.007   6.911   1.636
82275SOL    HW248723  10.982   7.058   1.661
82276SOL     OW48724  10.034   0.087   1.624
82276SOL    HW148725   9.947   0.084   1.584
82276SOL    HW248726  10.023   0.048   1.710
82277SOL     OW48727   9.367   9.799   9.056
82277SOL    HW148728   9.368   9.704   9.073
82277SOL    HW248729   9.440   9.834   9.106
82278SOL     OW48730   7.248   9.242   6.826
82278SOL    HW148731   7.279   9.161   6.786
82278SOL    HW248732   7.305   9.310   6.791
82279SOL     OW48733  11.029  11.280   0.472
82279SOL    HW148734  10.968  11.241   0.535
82279SOL    HW248735  11.106  11.223   0.476
82280SOL     OW48736   2.674  12.407   2.243
82280SOL    HW148737   2.760  12.415   2.203
82280SOL    HW248738   2.690  12.357   2.324
82281SOL     OW48739   1.922   3.820   3.186
82281SOL    HW148740   1.861   3.764   3.138
82281SOL    HW248741   1.882   3.829   3.272
82282SOL     OW48742  11.662   4.986  12.176
82282SOL    HW148743  11.675   5.035  12.257
82282SOL    HW248744  11.715   5.033  12.111
82283SOL     OW48745  10.419   5.465   8.543
82283SOL    HW148746  10.428   5.556   8.513
82283SOL    HW248747  10.359   5.425   8.480
82284SOL     OW48748  13.431   2.065   9.616
82284SOL    HW148749  13.467   2.150   9.640
82284SOL    HW248750  13.359   2.085   9.556
82285SOL     OW48751   5.748   7.080   5.975
82285SOL    HW148752   5.808   7.011   6.003
82285SOL    HW248753   5.732   7.132   6.053
82286SOL     OW48754   1.260   7.846   1.905
82286SOL    HW148755   1.208   7.891   1.839
82286SOL    HW248756   1.230   7.755   1.901
82287SOL     OW48757   3.070  10.200  12.836
82287SOL    HW148758   3.130  10.254  12.888
82287SOL    HW248759   3.030  10.262  12.774
82288SOL     OW48760  10.730  14.185   8.191
82288SOL    HW148761  10.736  14.107   8.135
82288SOL    HW248762  10.664  14.162   8.257
82289SOL     OW48763   9.494  10.382   3.606
82289SOL    HW148764   9.494  10.353   3.515
82289SOL    HW248765   9.579  10.424   3.618
82290SOL     OW48766   0.626   8.055  10.847
82290SOL    HW148767   0.642   7.963  10.869
82290SOL    HW248768   0.707   8.083  10.803
82291SOL     OW48769   1.765  12.656  13.738
82291SOL    HW148770   1.678  12.686  13.764
82291SOL    HW248771   1.764  12.562  13.754
82292SOL     OW48772   0.239   3.191   5.421
82292SOL    HW148773   0.154   3.194   5.465
82292SOL    HW248774   0.239   3.108   5.374
82293SOL     OW48775   6.584   1.378   6.126
82293SOL    HW148776   6.496   1.343   6.136
82293SOL    HW248777   6.620   1.378   6.215
82294SOL     OW48778   7.644   3.008  14.310
82294SOL    HW148779   7.666   2.990  14.219
82294SOL    HW248780   7.707   3.074  14.338
82295SOL     OW48781   7.036   8.526  12.009
82295SOL    HW148782   7.120   8.543  12.052
82295SOL    HW248783   7.053   8.540  11.916
82296SOL     OW48784   6.024  10.580   8.012
82296SOL    HW148785   6.024  10.514   7.943
82296SOL    HW248786   6.111  10.573   8.052
82297SOL     OW48787   7.951  14.605   5.263
82297SOL    HW148788   7.890  14.597   5.190
82297SOL    HW248789   8.014  14.534   5.248
82298SOL     OW48790   5.561   0.929  11.502
82298SOL    HW148791   5.651   0.952  11.477
82298SOL    HW248792   5.566   0.837  11.527
82299SOL     OW48793   7.947  11.565   8.198
82299SOL    HW148794   7.851  11.568   8.205
82299SOL    HW248795   7.974  11.513   8.274
82300SOL     OW48796   4.701  14.374   7.481
82300SOL    HW148797   4.630  14.436   7.496
82300SOL    HW248798   4.744  14.366   7.566
82301SOL     OW48799   0.863   2.139   3.590
82301SOL    HW148800   0.824   2.114   3.505
82301SOL    HW248801   0.802   2.103   3.655
82302SOL     OW48802   5.139   6.473  11.978
82302SOL    HW148803   5.203   6.545  11.984
82302SOL    HW248804   5.104   6.464  12.066
82303SOL     OW48805  14.118  12.502   8.859
82303SOL    HW148806  14.164  12.487   8.941
82303SOL    HW248807  14.171  12.458   8.793
82304SOL     OW48808   1.441   0.033  13.498
82304SOL    HW148809   1.521   0.069  13.460
82304SOL    HW248810   1.413  14.837  13.437
82305SOL     OW48811  11.912   2.314   9.093
82305SOL    HW148812  11.986   2.270   9.135
82305SOL    HW248813  11.877   2.373   9.160
82306SOL     OW48814   6.581  10.065   7.309
82306SOL    HW148815   6.613  10.137   7.363
82306SOL    HW248816   6.646  10.057   7.239
82307SOL     OW48817  10.495   5.767   7.821
82307SOL    HW148818  10.436   5.731   7.887
82307SOL    HW248819  10.455   5.851   7.796
82308SOL     OW48820   3.279   8.808   4.119
82308SOL    HW148821   3.323   8.873   4.174
82308SOL    HW248822   3.293   8.840   4.029
82309SOL     OW48823   6.596   6.131  13.387
82309SOL    HW148824   6.529   6.131  13.320
82309SOL    HW248825   6.657   6.199  13.361
82310SOL     OW48826   0.194   0.652   0.215
82310SOL    HW148827   0.208   0.718   0.283
82310SOL    HW248828   0.205   0.699   0.132
82311SOL     OW48829  10.055   0.537   2.950
82311SOL    HW148830  10.056   0.529   3.046
82311SOL    HW248831  10.040   0.631   2.935
82312SOL     OW48832  10.737   9.287   7.592
82312SOL    HW148833  10.763   9.267   7.682
82312SOL    HW248834  10.641   9.296   7.596
82313SOL     OW48835  13.711  10.862  11.351
82313SOL    HW148836  13.666  10.799  11.294
82313SOL    HW248837  13.657  10.941  11.347
82314SOL     OW48838  12.433  14.370  12.810
82314SOL    HW148839  12.348  14.378  12.768
82314SOL    HW248840  12.454  14.276  12.805
82315SOL     OW48841   1.171   7.499  12.679
82315SOL    HW148842   1.144   7.417  12.637
82315SOL    HW248843   1.112   7.507  12.754
82316SOL     OW48844   3.650   8.871   1.299
82316SOL    HW148845   3.577   8.818   1.266
82316SOL    HW248846   3.710   8.878   1.224
82317SOL     OW48847   3.493   1.560   0.026
82317SOL    HW148848   3.425   1.558  14.830
82317SOL    HW248849   3.575   1.553  14.850
82318SOL     OW48850   0.616   2.021   0.451
82318SOL    HW148851   0.588   2.014   0.542
82318SOL    HW248852   0.638   2.114   0.440
82319SOL     OW48853   1.340  12.423   6.690
82319SOL    HW148854   1.308  12.387   6.607
82319SOL    HW248855   1.388  12.350   6.731
82320SOL     OW48856   7.466   7.240  11.420
82320SOL    HW148857   7.442   7.178  11.351
82320SOL    HW248858   7.404   7.312  11.410
82321SOL     OW48859   8.091   3.735   0.466
82321SOL    HW148860   8.063   3.825   0.486
82321SOL    HW248861   8.116   3.738   0.374
82322SOL     OW48862  10.093   3.017   1.355
82322SOL    HW148863  10.085   2.969   1.273
82322SOL    HW248864  10.155   3.088   1.336
82323SOL     OW48865   6.628   1.104  10.934
82323SOL    HW148866   6.688   1.149  10.994
82323SOL    HW248867   6.658   1.129  10.847
82324SOL     OW48868  10.191   8.522  10.238
82324SOL    HW148869  10.254   8.479  10.180
82324SOL    HW248870  10.106   8.505  10.198
82325SOL     OW48871  13.647   9.337   6.969
82325SOL    HW148872  13.588   9.262   6.970
82325SOL    HW248873  13.619   9.391   7.043
82326SOL     OW48874  13.003   3.773   4.077
82326SOL    HW148875  13.069   3.827   4.121
82326SOL    HW248876  12.999   3.692   4.129
82327SOL     OW48877  10.518   7.827   8.453
82327SOL    HW148878  10.568   7.863   8.526
82327SOL    HW248879  10.554   7.870   8.376
82328SOL     OW48880   6.377   5.635  11.974
82328SOL    HW148881   6.382   5.628  11.879
82328SOL    HW248882   6.394   5.727  11.993
82329SOL     OW48883   6.981  13.569   7.380
82329SOL    HW148884   6.897  13.589   7.421
82329SOL    HW248885   6.968  13.592   7.287
82330SOL     OW48886  13.619   4.812   1.051
82330SOL    HW148887  13.604   4.724   1.015
82330SOL    HW248888  13.545   4.827   1.109
82331SOL     OW48889   1.397   3.193   3.862
82331SOL    HW148890   1.466   3.127   3.854
82331SOL    HW248891   1.417   3.257   3.794
82332SOL     OW48892   1.397   0.346   0.392
82332SOL    HW148893   1.426   0.254   0.391
82332SOL    HW248894   1.449   0.387   0.461
82333SOL     OW48895  12.019   1.300  11.613
82333SOL    HW148896  11.976   1.369  11.665
82333SOL    HW248897  11.950   1.265  11.557
82334SOL     OW48898  14.377   1.534   5.155
82334SOL    HW148899  14.345   1.615   5.115
82334SOL    HW248900  14.356   1.466   5.090
82335SOL     OW48901   4.338   6.007  14.287
82335SOL    HW148902   4.245   6.002  14.307
82335SOL    HW248903   4.342   6.004  14.191
82336SOL     OW48904  11.085  10.866  14.512
82336SOL    HW148905  11.044  10.790  14.472
82336SOL    HW248906  11.153  10.829  14.569
82337SOL     OW48907  11.029   5.382  12.586
82337SOL    HW148908  11.014   5.452  12.522
82337SOL    HW248909  11.124   5.369  12.586
82338SOL     OW48910   7.220   7.758   2.185
82338SOL    HW148911   7.207   7.673   2.228
82338SOL    HW248912   7.133   7.787   2.160
82339SOL     OW48913   3.313   3.676   5.880
82339SOL    HW148914   3.370   3.678   5.803
82339SOL    HW248915   3.349   3.605   5.934
82340SOL     OW48916  11.129  14.499   8.288
82340SOL    HW148917  11.064  14.487   8.357
82340SOL    HW248918  11.109  14.584   8.250
82341SOL     OW48919   2.721   9.677   7.157
82341SOL    HW148920   2.695   9.587   7.141
82341SOL    HW248921   2.812   9.682   7.129
82342SOL     OW48922   2.317   8.437   3.316
82342SOL    HW148923   2.326   8.342   3.312
82342SOL    HW248924   2.338   8.459   3.407
82343SOL     OW48925  10.385  12.494  13.830
82343SOL    HW148926  10.471  12.531  13.850
82343SOL    HW248927  10.364  12.441  13.907
82344SOL     OW48928  13.428   8.210  12.437
82344SOL    HW148929  13.356   8.227  12.498
82344SOL    HW248930  13.462   8.296  12.414
82345SOL     OW48931   1.344   8.486  12.021
82345SOL    HW148932   1.271   8.465  11.962
82345SOL    HW248933   1.416   8.431  11.990
82346SOL     OW48934   3.032  12.946  10.392
82346SOL    HW148935   3.070  12.961  10.305
82346SOL    HW248936   3.108  12.935  10.449
82347SOL     OW48937   2.358  11.417   2.264
82347SOL    HW148938   2.311  11.344   2.223
82347SOL    HW248939   2.450  11.402   2.241
82348SOL     OW48940   4.032   8.458   0.668
82348SOL    HW148941   3.978   8.534   0.645
82348SOL    HW248942   4.084   8.487   0.742
82349SOL     OW48943   1.714  14.024   4.889
82349SOL    HW148944   1.703  14.119   4.890
82349SOL    HW248945   1.702  13.999   4.797
82350SOL     OW48946  14.541   9.507   6.883
82350SOL    HW148947  14.553   9.602   6.880
82350SOL    HW248948  14.610   9.473   6.826
82351SOL     OW48949   1.855   4.057   7.738
82351SOL    HW148950   1.778   4.006   7.760
82351SOL    HW248951   1.926   4.019   7.790
82352SOL     OW48952   8.837   0.392   9.669
82352SOL    HW148953   8.785   0.424   9.595
82352SOL    HW248954   8.780   0.403   9.745
82353SOL     OW48955   1.476   7.330   6.935
82353SOL    HW148956   1.439   7.322   7.023
82353SOL    HW248957   1.569   7.312   6.947
82354SOL     OW48958   8.021  11.327   8.631
82354SOL    HW148959   8.092  11.263   8.631
82354SOL    HW248960   8.065  11.412   8.625
82355SOL     OW48961   6.234   8.732   7.965
82355SOL    HW148962   6.303   8.669   7.983
82355SOL    HW248963   6.175   8.726   8.040
82356SOL     OW48964  10.747  13.654  12.641
82356SOL    HW148965  10.699  13.579  12.605
82356SOL    HW248966  10.785  13.696  12.564
82357SOL     OW48967   3.662   8.368   0.505
82357SOL    HW148968   3.714   8.292   0.529
82357SOL    HW248969   3.665   8.425   0.581
82358SOL     OW48970  10.478  13.419   8.290
82358SOL    HW148971  10.426  13.418   8.370
82358SOL    HW248972  10.564  13.450   8.318
82359SOL     OW48973  12.658   0.243   8.020
82359SOL    HW148974  12.583   0.185   8.002
82359SOL    HW248975  12.650   0.313   7.955
82360SOL     OW48976  11.323   6.402   9.726
82360SOL    HW148977  11.293   6.324   9.771
82360SOL    HW248978  11.264   6.411   9.651
82361SOL     OW48979   9.066   1.883   5.882
82361SOL    HW148980   9.000   1.860   5.947
82361SOL    HW248981   9.026   1.862   5.798
82362SOL     OW48982   9.508   3.915   6.373
82362SOL    HW148983   9.481   3.843   6.315
82362SOL    HW248984   9.435   3.977   6.370
82363SOL     OW48985   9.242   8.523  12.791
82363SOL    HW148986   9.217   8.510  12.883
82363SOL    HW248987   9.266   8.436  12.761
82364SOL     OW48988   6.887  14.731   1.082
82364SOL    HW148989   6.826  14.659   1.095
82364SOL    HW248990   6.907  14.729   0.988
82365SOL     OW48991   8.710  11.431   3.839
82365SOL    HW148992   8.638  11.397   3.891
82365SOL    HW248993   8.746  11.502   3.891
82366SOL     OW48994  14.100   4.320   1.945
82366SOL    HW148995  14.053   4.338   2.027
82366SOL    HW248996  14.072   4.231   1.921
82367SOL     OW48997   7.707   4.097   1.145
82367SOL    HW148998   7.655   4.019   1.163
82367SOL    HW248999   7.749   4.118   1.228
82368SOL     OW49000   4.735  13.050   1.533
82368SOL    HW149001   4.645  13.081   1.523
82368SOL    HW249002   4.788  13.130   1.534
82369SOL     OW49003   8.973   7.066   2.206
82369SOL    HW149004   8.964   7.049   2.112
82369SOL    HW249005   9.068   7.066   2.221
82370SOL     OW49006   6.412   9.134  10.249
82370SOL    HW149007   6.347   9.167  10.311
82370SOL    HW249008   6.472   9.082  10.302
82371SOL     OW49009   0.111   6.388  13.131
82371SOL    HW149010   0.063   6.311  13.102
82371SOL    HW249011   0.042   6.447  13.163
82372SOL     OW49012   8.198   4.236   3.833
82372SOL    HW149013   8.146   4.201   3.760
82372SOL    HW249014   8.272   4.176   3.840
82373SOL     OW49015  14.473  10.521   2.614
82373SOL    HW149016  14.420  10.452   2.653
82373SOL    HW249017  14.564  10.496   2.633
82374SOL     OW49018   0.137   3.020   8.584
82374SOL    HW149019   0.094   2.935   8.571
82374SOL    HW249020   0.170   3.043   8.497
82375SOL     OW49021   2.293  13.020  14.231
82375SOL    HW149022   2.374  13.071  14.240
82375SOL    HW249023   2.245  13.065  14.161
82376SOL     OW49024   2.332   9.598   9.431
82376SOL    HW149025   2.406   9.654   9.454
82376SOL    HW249026   2.288   9.580   9.514
82377SOL     OW49027   1.331   9.956  13.375
82377SOL    HW149028   1.419   9.983  13.401
82377SOL    HW249029   1.343   9.865  13.345
82378SOL     OW49030  10.342   4.109   2.926
82378SOL    HW149031  10.307   4.093   2.838
82378SOL    HW249032  10.411   4.043   2.937
82379SOL     OW49033   4.878   6.016  14.392
82379SOL    HW149034   4.835   6.096  14.363
82379SOL    HW249035   4.897   5.968  14.310
82380SOL     OW49036   8.102   5.548   3.851
82380SOL    HW149037   8.037   5.596   3.800
82380SOL    HW249038   8.069   5.553   3.941
82381SOL     OW49039   1.006   6.629   5.713
82381SOL    HW149040   1.099   6.621   5.696
82381SOL    HW249041   0.968   6.658   5.630
82382SOL     OW49042  11.165   3.856   4.333
82382SOL    HW149043  11.155   3.944   4.368
82382SOL    HW249044  11.093   3.847   4.270
82383SOL     OW49045   3.742   1.501   7.645
82383SOL    HW149046   3.798   1.443   7.593
82383SOL    HW249047   3.803   1.566   7.681
82384SOL     OW49048  13.875   2.393   3.590
82384SOL    HW149049  13.894   2.365   3.501
82384SOL    HW249050  13.868   2.488   3.584
82385SOL     OW49051   9.636   9.053   7.329
82385SOL    HW149052   9.567   9.108   7.365
82385SOL    HW249053   9.599   8.964   7.331
82386SOL     OW49054   9.935   8.768   0.696
82386SOL    HW149055   9.981   8.837   0.745
82386SOL    HW249056   9.929   8.695   0.758
82387SOL     OW49057   2.764   7.596   3.233
82387SOL    HW149058   2.826   7.624   3.300
82387SOL    HW249059   2.817   7.582   3.155
82388SOL     OW49060   0.903   1.026   5.595
82388SOL    HW149061   0.996   1.039   5.579
82388SOL    HW249062   0.882   1.083   5.669
82389SOL     OW49063   0.917  11.956   4.444
82389SOL    HW149064   0.872  11.876   4.471
82389SOL    HW249065   1.010  11.936   4.454
82390SOL     OW49066   9.491  11.860  11.776
82390SOL    HW149067   9.481  11.772  11.813
82390SOL    HW249068   9.540  11.846  11.695
82391SOL     OW49069   5.577   8.638  11.853
82391SOL    HW149070   5.581   8.575  11.782
82391SOL    HW249071   5.667   8.666  11.866
82392SOL     OW49072   0.219  12.606  11.611
82392SOL    HW149073   0.198  12.605  11.704
82392SOL    HW249074   0.220  12.699  11.587
82393SOL     OW49075  10.920   6.420   8.987
82393SOL    HW149076  10.962   6.450   8.906
82393SOL    HW249077  10.893   6.501   9.031
82394SOL     OW49078  13.225   3.538   0.744
82394SOL    HW149079  13.309   3.540   0.697
82394SOL    HW249080  13.160   3.560   0.677
82395SOL     OW49081  12.435   5.179  11.942
82395SOL    HW149082  12.494   5.241  11.986
82395SOL    HW249083  12.369   5.159  12.008
82396SOL     OW49084  14.700   1.624  11.920
82396SOL    HW149085  14.705   1.666  11.834
82396SOL    HW249086  14.616   1.579  11.921
82397SOL     OW49087   1.095   7.155  11.268
82397SOL    HW149088   1.116   7.110  11.186
82397SOL    HW249089   1.050   7.235  11.240
82398SOL     OW49090   7.282  10.965   1.881
82398SOL    HW149091   7.284  11.017   1.961
82398SOL    HW249092   7.327  11.019   1.816
82399SOL     OW49093   8.121  13.005   2.116
82399SOL    HW149094   8.191  12.985   2.054
82399SOL    HW249095   8.040  12.995   2.065
82400SOL     OW49096  10.581   2.576   2.916
82400SOL    HW149097  10.574   2.650   2.856
82400SOL    HW249098  10.582   2.499   2.860
82401SOL     OW49099   5.381   1.932   8.215
82401SOL    HW149100   5.340   1.970   8.136
82401SOL    HW249101   5.332   1.970   8.288
82402SOL     OW49102   1.280   7.673  11.473
82402SOL    HW149103   1.275   7.693  11.567
82402SOL    HW249104   1.188   7.666  11.446
82403SOL     OW49105   5.243  14.085  13.625
82403SOL    HW149106   5.185  14.150  13.585
82403SOL    HW249107   5.254  14.018  13.558
82404SOL     OW49108   1.451   7.264   0.119
82404SOL    HW149109   1.392   7.239   0.190
82404SOL    HW249110   1.507   7.187   0.107
82405SOL     OW49111   2.649  12.526   8.582
82405SOL    HW149112   2.573  12.517   8.524
82405SOL    HW249113   2.622  12.591   8.647
82406SOL     OW49114   7.252   4.162   6.388
82406SOL    HW149115   7.249   4.199   6.300
82406SOL    HW249116   7.166   4.183   6.426
82407SOL     OW49117   7.365   6.658  11.117
82407SOL    HW149118   7.428   6.710  11.168
82407SOL    HW249119   7.380   6.568  11.144
82408SOL     OW49120   5.604  10.101   1.163
82408SOL    HW149121   5.572  10.172   1.219
82408SOL    HW249122   5.566  10.021   1.201
82409SOL     OW49123  10.166   6.527   4.903
82409SOL    HW149124  10.109   6.528   4.826
82409SOL    HW249125  10.254   6.520   4.867
82410SOL     OW49126  11.863  10.107   3.668
82410SOL    HW149127  11.863  10.071   3.579
82410SOL    HW249128  11.796  10.057   3.714
82411SOL     OW49129  11.747  11.148   8.144
82411SOL    HW149130  11.799  11.074   8.112
82411SOL    HW249131  11.666  11.143   8.094
82412SOL     OW49132   4.004   1.896  13.421
82412SOL    HW149133   3.980   1.807  13.446
82412SOL    HW249134   4.038   1.935  13.502
82413SOL     OW49135  11.154   3.635  14.061
82413SOL    HW149136  11.152   3.599  14.150
82413SOL    HW249137  11.062   3.645  14.038
82414SOL     OW49138   9.769   9.183  11.914
82414SOL    HW149139   9.714   9.124  11.965
82414SOL    HW249140   9.720   9.196  11.833
82415SOL     OW49141   4.601   5.371   4.722
82415SOL    HW149142   4.658   5.311   4.673
82415SOL    HW249143   4.624   5.357   4.814
82416SOL     OW49144   3.281   5.472   3.672
82416SOL    HW149145   3.317   5.498   3.587
82416SOL    HW249146   3.301   5.379   3.680
82417SOL     OW49147   8.728  10.168  12.695
82417SOL    HW149148   8.765  10.173  12.608
82417SOL    HW249149   8.802  10.150  12.753
82418SOL     OW49150  10.030  13.042  13.638
82418SOL    HW149151  10.024  12.993  13.556
82418SOL    HW249152  10.082  12.985  13.696
82419SOL     OW49153   0.142  10.126   7.170
82419SOL    HW149154   0.051  10.131   7.200
82419SOL    HW249155   0.136  10.095   7.080
82420SOL     OW49156   0.005   7.079   9.554
82420SOL    HW149157  14.840   7.000   9.594
82420SOL    HW249158  14.814   7.148   9.576
82421SOL     OW49159  13.816   0.964   8.077
82421SOL    HW149160  13.906   0.947   8.049
82421SOL    HW249161  13.764   0.959   7.996
82422SOL     OW49162   0.264   8.358  13.628
82422SOL    HW149163   0.175   8.356  13.661
82422SOL    HW249164   0.254   8.371  13.533
82423SOL     OW49165  10.575   2.160   5.250
82423SOL    HW149166  10.619   2.245   5.255
82423SOL    HW249167  10.523   2.165   5.170
82424SOL     OW49168  14.436   0.630  11.722
82424SOL    HW149169  14.508   0.687  11.748
82424SOL    HW249170  14.450   0.616  11.628
82425SOL     OW49171   7.629  11.410  10.706
82425SOL    HW149172   7.566  11.369  10.647
82425SOL    HW249173   7.711  11.409  10.657
82426SOL     OW49174   6.743  12.436  12.200
82426SOL    HW149175   6.676  12.443  12.268
82426SOL    HW249176   6.751  12.525  12.166
82427SOL     OW49177   4.298   4.865  10.868
82427SOL    HW149178   4.256   4.819  10.941
82427SOL    HW249179   4.386   4.884  10.900
82428SOL     OW49180   4.205   3.803   4.552
82428SOL    HW149181   4.291   3.769   4.579
82428SOL    HW249182   4.175   3.743   4.484
82429SOL     OW49183  10.478  12.577   3.464
82429SOL    HW149184  10.508  12.575   3.373
82429SOL    HW249185  10.445  12.489   3.481
82430SOL     OW49186  13.481   0.226  11.582
82430SOL    HW149187  13.417   0.165  11.546
82430SOL    HW249188  13.429   0.301  11.610
82431SOL     OW49189   6.289   5.388   8.218
82431SOL    HW149190   6.358   5.366   8.155
82431SOL    HW249191   6.297   5.320   8.285
82432SOL     OW49192  12.804   1.730  11.961
82432SOL    HW149193  12.828   1.694  11.875
82432SOL    HW249194  12.711   1.750  11.953
82433SOL     OW49195   3.095   0.956   8.468
82433SOL    HW149196   3.134   0.870   8.452
82433SOL    HW249197   3.168   1.018   8.463
82434SOL     OW49198  10.640   6.878  11.992
82434SOL    HW149199  10.712   6.815  11.995
82434SOL    HW249200  10.566   6.833  12.033
82435SOL     OW49201   3.089   4.513   6.261
82435SOL    HW149202   3.054   4.575   6.324
82435SOL    HW249203   3.180   4.541   6.247
82436SOL     OW49204  14.600  12.603   9.243
82436SOL    HW149205  14.523  12.600   9.299
82436SOL    HW249206  14.588  12.532   9.181
82437SOL     OW49207   5.331   7.919   0.325
82437SOL    HW149208   5.426   7.921   0.340
82437SOL    HW249209   5.309   7.826   0.330
82438SOL     OW49210  14.178  12.351   7.583
82438SOL    HW149211  14.088  12.331   7.561
82438SOL    HW249212  14.175  12.440   7.618
82439SOL     OW49213   0.057   5.898  11.958
82439SOL    HW149214   0.029   5.807  11.947
82439SOL    HW249215  14.847   5.947  11.970
82440SOL     OW49216  10.482  14.791   1.833
82440SOL    HW149217  10.391  14.766   1.848
82440SOL    HW249218  10.522  14.792   1.920
82441SOL     OW49219   4.702   5.059  12.828
82441SOL    HW149220   4.765   5.086  12.895
82441SOL    HW249221   4.643   4.999  12.874
82442SOL     OW49222  12.161   6.624   1.853
82442SOL    HW149223  12.245   6.651   1.889
82442SOL    HW249224  12.096   6.673   1.905
82443SOL     OW49225   3.002   9.034  12.639
82443SOL    HW149226   2.934   8.976  12.602
82443SOL    HW249227   3.025   8.993  12.722
82444SOL     OW49228   1.938  14.367   3.701
82444SOL    HW149229   1.849  14.336   3.716
82444SOL    HW249230   1.988  14.287   3.680
82445SOL     OW49231   5.174   0.432   3.966
82445SOL    HW149232   5.203   0.481   3.890
82445SOL    HW249233   5.226   0.351   3.964
82446SOL     OW49234   4.615   2.797   5.210
82446SOL    HW149235   4.650   2.875   5.169
82446SOL    HW249236   4.584   2.743   5.137
82447SOL     OW49237   1.998   1.865   2.836
82447SOL    HW149238   2.088   1.854   2.807
82447SOL    HW249239   1.945   1.855   2.757
82448SOL     OW49240   9.894   5.493   1.995
82448SOL    HW149241   9.969   5.543   2.028
82448SOL    HW249242   9.890   5.515   1.902
82449SOL     OW49243   1.607   0.967  10.148
82449SOL    HW149244   1.667   1.013  10.089
82449SOL    HW249245   1.563   1.037  10.196
82450SOL     OW49246   1.519   7.027   6.714
82450SOL    HW149247   1.532   7.115   6.679
82450SOL    HW249248   1.601   7.006   6.758
82451SOL     OW49249  13.793   3.639   6.964
82451SOL    HW149250  13.811   3.552   7.002
82451SOL    HW249251  13.879   3.670   6.935
82452SOL     OW49252   9.893  11.510   7.751
82452SOL    HW149253   9.901  11.437   7.688
82452SOL    HW249254   9.800  11.510   7.775
82453SOL     OW49255  12.173  13.541  10.339
82453SOL    HW149256  12.085  13.571  10.362
82453SOL    HW249257  12.211  13.614  10.290
82454SOL     OW49258   4.417   6.251   6.279
82454SOL    HW149259   4.486   6.276   6.217
82454SOL    HW249260   4.423   6.315   6.350
82455SOL     OW49261   6.440   1.527   9.795
82455SOL    HW149262   6.461   1.590   9.864
82455SOL    HW249263   6.522   1.516   9.747
82456SOL     OW49264   3.995  10.634   2.840
82456SOL    HW149265   4.067  10.643   2.903
82456SOL    HW249266   4.037  10.610   2.758
82457SOL     OW49267   6.918   2.931   2.973
82457SOL    HW149268   6.867   3.012   2.962
82457SOL    HW249269   6.906   2.885   2.890
82458SOL     OW49270   7.098   2.209   9.266
82458SOL    HW149271   7.042   2.281   9.236
82458SOL    HW249272   7.119   2.232   9.357
82459SOL     OW49273   6.100   2.800   6.519
82459SOL    HW149274   6.049   2.745   6.459
82459SOL    HW249275   6.150   2.737   6.572
82460SOL     OW49276  11.665   4.325   0.787
82460SOL    HW149277  11.593   4.263   0.800
82460SOL    HW249278  11.743   4.269   0.782
82461SOL     OW49279   8.672   9.786   0.788
82461SOL    HW149280   8.767   9.793   0.800
82461SOL    HW249281   8.659   9.698   0.753
82462SOL     OW49282  12.755   7.091  14.520
82462SOL    HW149283  12.660   7.090  14.506
82462SOL    HW249284  12.789   7.142  14.447
82463SOL     OW49285  10.912   8.848   5.672
82463SOL    HW149286  10.976   8.918   5.674
82463SOL    HW249287  10.955   8.776   5.626
82464SOL     OW49288   0.308   7.448   7.401
82464SOL    HW149289   0.221   7.486   7.396
82464SOL    HW249290   0.301   7.379   7.468
82465SOL     OW49291   7.134  11.558   8.531
82465SOL    HW149292   7.112  11.608   8.453
82465SOL    HW249293   7.121  11.619   8.604
82466SOL     OW49294  13.348  13.600   0.457
82466SOL    HW149295  13.313  13.513   0.436
82466SOL    HW249296  13.275  13.644   0.501
82467SOL     OW49297   2.365   8.222  11.258
82467SOL    HW149298   2.393   8.294  11.314
82467SOL    HW249299   2.354   8.262  11.172
82468SOL     OW49300   2.928   1.837  14.866
82468SOL    HW149301   2.904   1.902   0.060
82468SOL    HW249302   2.885   1.867  14.786
82469SOL     OW49303  14.742  13.420  14.094
82469SOL    HW149304  14.785  13.505  14.082
82469SOL    HW249305  14.803  13.357  14.054
82470SOL     OW49306   9.484   8.690  13.062
82470SOL    HW149307   9.414   8.625  13.060
82470SOL    HW249308   9.514   8.696  12.972
82471SOL     OW49309   4.415   2.315   5.548
82471SOL    HW149310   4.501   2.339   5.514
82471SOL    HW249311   4.358   2.387   5.523
82472SOL     OW49312  12.794  14.023   8.986
82472SOL    HW149313  12.788  13.964   8.912
82472SOL    HW249314  12.867  14.082   8.964
82473SOL     OW49315   4.009   7.929   4.680
82473SOL    HW149316   3.965   7.949   4.597
82473SOL    HW249317   4.055   7.847   4.663
82474SOL     OW49318   3.479   9.264   4.943
82474SOL    HW149319   3.559   9.224   4.907
82474SOL    HW249320   3.448   9.201   5.008
82475SOL     OW49321   6.674   0.986  11.985
82475SOL    HW149322   6.699   1.071  11.949
82475SOL    HW249323   6.738   0.925  11.948
82476SOL     OW49324   0.470  14.707   2.699
82476SOL    HW149325   0.404  14.773   2.678
82476SOL    HW249326   0.422  14.636   2.740
82477SOL     OW49327   4.198  13.858   5.251
82477SOL    HW149328   4.261  13.904   5.308
82477SOL    HW249329   4.132  13.924   5.231
82478SOL     OW49330   8.467   0.860   2.006
82478SOL    HW149331   8.421   0.870   1.922
82478SOL    HW249332   8.412   0.906   2.069
82479SOL     OW49333   5.953   2.648  14.333
82479SOL    HW149334   6.011   2.608  14.399
82479SOL    HW249335   5.994   2.626  14.249
82480SOL     OW49336   4.601   0.982   8.045
82480SOL    HW149337   4.510   0.976   8.075
82480SOL    HW249338   4.603   1.062   7.993
82481SOL     OW49339  12.608   8.642   5.399
82481SOL    HW149340  12.680   8.642   5.335
82481SOL    HW249341  12.585   8.734   5.409
82482SOL     OW49342   7.985  13.572  14.280
82482SOL    HW149343   7.939  13.656  14.278
82482SOL    HW249344   8.052  13.583  14.348
82483SOL     OW49345   2.371   0.607   0.241
82483SOL    HW149346   2.422   0.526   0.238
82483SOL    HW249347   2.298   0.592   0.180
82484SOL     OW49348   7.499   3.715   6.834
82484SOL    HW149349   7.443   3.776   6.883
82484SOL    HW249350   7.491   3.743   6.743
82485SOL     OW49351   9.048   3.571  13.329
82485SOL    HW149352   8.973   3.512  13.323
82485SOL    HW249353   9.118   3.518  13.367
82486SOL     OW49354   0.178   1.561   9.832
82486SOL    HW149355   0.252   1.549   9.771
82486SOL    HW249356   0.102   1.571   9.775
82487SOL     OW49357  12.008   2.976   8.512
82487SOL    HW149358  11.988   3.049   8.453
82487SOL    HW249359  11.942   2.910   8.493
82488SOL     OW49360  12.074   2.832   1.395
82488SOL    HW149361  12.166   2.838   1.371
82488SOL    HW249362  12.071   2.858   1.487
82489SOL     OW49363   7.944   5.403   1.892
82489SOL    HW149364   7.920   5.464   1.961
82489SOL    HW249365   8.033   5.376   1.913
82490SOL     OW49366   1.823  12.791   3.418
82490SOL    HW149367   1.807  12.717   3.360
82490SOL    HW249368   1.904  12.831   3.385
82491SOL     OW49369   9.811  14.259  10.843
82491SOL    HW149370   9.785  14.317  10.772
82491SOL    HW249371   9.740  14.195  10.849
82492SOL     OW49372   5.476   6.090   0.647
82492SOL    HW149373   5.488   6.139   0.565
82492SOL    HW249374   5.561   6.094   0.690
82493SOL     OW49375   6.335   4.095   2.186
82493SOL    HW149376   6.404   4.029   2.195
82493SOL    HW249377   6.278   4.081   2.261
82494SOL     OW49378   8.039   2.872   0.629
82494SOL    HW149379   7.977   2.799   0.633
82494SOL    HW249380   8.119   2.833   0.594
82495SOL     OW49381   8.571  11.732  10.577
82495SOL    HW149382   8.609  11.820  10.567
82495SOL    HW249383   8.602  11.701  10.662
82496SOL     OW49384   4.318   1.980  13.482
82496SOL    HW149385   4.247   1.979  13.547
82496SOL    HW249386   4.299   1.904  13.427
82497SOL     OW49387   9.725   6.841  11.803
82497SOL    HW149388   9.729   6.931  11.771
82497SOL    HW249389   9.750   6.846  11.895
82498SOL     OW49390   2.525  13.918   8.089
82498SOL    HW149391   2.456  13.915   8.156
82498SOL    HW249392   2.588  13.852   8.117
82499SOL     OW49393   4.398   6.640   0.162
82499SOL    HW149394   4.408   6.735   0.152
82499SOL    HW249395   4.333   6.616   0.097
82500SOL     OW49396   0.222   5.552  11.642
82500SOL    HW149397   0.164   5.587  11.574
82500SOL    HW249398   0.226   5.458  11.625
82501SOL     OW49399  14.007   7.392   5.654
82501SOL    HW149400  13.948   7.395   5.729
82501SOL    HW249401  14.079   7.451   5.677
82502SOL     OW49402  10.832  11.972   6.676
82502SOL    HW149403  10.848  11.882   6.648
82502SOL    HW249404  10.861  11.975   6.767
82503SOL     OW49405   3.404   4.497   2.798
82503SOL    HW149406   3.485   4.447   2.803
82503SOL    HW249407   3.426   4.574   2.746
82504SOL     OW49408  12.453   8.097   5.099
82504SOL    HW149409  12.414   8.174   5.141
82504SOL    HW249410  12.461   8.032   5.168
82505SOL     OW49411   6.147   7.690   1.373
82505SOL    HW149412   6.082   7.619   1.368
82505SOL    HW249413   6.095   7.767   1.394
82506SOL     OW49414   0.223   8.429   8.551
82506SOL    HW149415   0.213   8.469   8.637
82506SOL    HW249416   0.301   8.373   8.559
82507SOL     OW49417   2.572   7.508  12.469
82507SOL    HW149418   2.608   7.597  12.458
82507SOL    HW249419   2.603   7.480  12.555
82508SOL     OW49420   4.555   6.086  12.075
82508SOL    HW149421   4.494   6.029  12.121
82508SOL    HW249422   4.625   6.102  12.138
82509SOL     OW49423  12.408   5.367   0.249
82509SOL    HW149424  12.405   5.324   0.164
82509SOL    HW249425  12.493   5.412   0.250
82510SOL     OW49426   5.233  11.608   6.385
82510SOL    HW149427   5.309  11.656   6.353
82510SOL    HW249428   5.265  11.560   6.462
82511SOL     OW49429  11.759  13.166   6.860
82511SOL    HW149430  11.836  13.220   6.845
82511SOL    HW249431  11.692  13.202   6.801
82512SOL     OW49432   3.796   9.975   4.329
82512SOL    HW149433   3.889   9.966   4.308
82512SOL    HW249434   3.762  10.033   4.260
82513SOL     OW49435   6.075   6.934   7.535
82513SOL    HW149436   6.146   6.873   7.555
82513SOL    HW249437   6.107   7.019   7.566
82514SOL     OW49438   1.059  11.404  10.274
82514SOL    HW149439   1.083  11.335  10.336
82514SOL    HW249440   1.072  11.363  10.188
82515SOL     OW49441  13.445   8.699   6.262
82515SOL    HW149442  13.531   8.668   6.234
82515SOL    HW249443  13.397   8.712   6.180
82516SOL     OW49444   0.844   4.293   6.021
82516SOL    HW149445   0.913   4.341   5.975
82516SOL    HW249446   0.779   4.359   6.043
82517SOL     OW49447   2.935  14.213  12.714
82517SOL    HW149448   3.019  14.258  12.718
82517SOL    HW249449   2.953  14.123  12.739
82518SOL     OW49450  12.589  14.306   5.389
82518SOL    HW149451  12.683  14.289   5.383
82518SOL    HW249452  12.581  14.399   5.369
82519SOL     OW49453  14.375   0.676  12.398
82519SOL    HW149454  14.388   0.770  12.413
82519SOL    HW249455  14.280   0.665  12.396
82520SOL     OW49456   1.068  11.010   2.513
82520SOL    HW149457   1.068  11.033   2.606
82520SOL    HW249458   1.154  11.037   2.482
82521SOL     OW49459   5.152   4.442   1.522
82521SOL    HW149460   5.204   4.432   1.442
82521SOL    HW249461   5.209   4.491   1.581
82522SOL     OW49462   5.142   5.445   0.917
82522SOL    HW149463   5.070   5.507   0.910
82522SOL    HW249464   5.159   5.417   0.827
82523SOL     OW49465   3.045  14.099  11.388
82523SOL    HW149466   3.113  14.043  11.426
82523SOL    HW249467   3.032  14.064  11.300
82524SOL     OW49468   9.501  10.804  14.246
82524SOL    HW149469   9.455  10.794  14.163
82524SOL    HW249470   9.580  10.750  14.236
82525SOL     OW49471  11.122  13.890   5.299
82525SOL    HW149472  11.151  13.847   5.218
82525SOL    HW249473  11.036  13.852   5.316
82526SOL     OW49474   0.228   6.399   1.199
82526SOL    HW149475   0.142   6.427   1.231
82526SOL    HW249476   0.214   6.308   1.172
82527SOL     OW49477   5.348  11.850   5.704
82527SOL    HW149478   5.366  11.818   5.792
82527SOL    HW249479   5.273  11.797   5.675
82528SOL     OW49480  12.166   7.026   5.272
82528SOL    HW149481  12.160   7.080   5.194
82528SOL    HW249482  12.222   6.952   5.246
82529SOL     OW49483  12.819   3.087   4.323
82529SOL    HW149484  12.727   3.098   4.349
82529SOL    HW249485  12.814   3.063   4.230
82530SOL     OW49486  14.470   3.403   3.395
82530SOL    HW149487  14.390   3.370   3.355
82530SOL    HW249488  14.463   3.498   3.386
82531SOL     OW49489   1.934   8.227  14.470
82531SOL    HW149490   1.887   8.279  14.535
82531SOL    HW249491   1.993   8.172  14.522
82532SOL     OW49492   3.411   7.796   5.620
82532SOL    HW149493   3.478   7.749   5.572
82532SOL    HW249494   3.333   7.742   5.613
82533SOL     OW49495   8.803   6.783  14.270
82533SOL    HW149496   8.788   6.709  14.211
82533SOL    HW249497   8.842   6.850  14.214
82534SOL     OW49498   8.731  10.628   6.149
82534SOL    HW149499   8.704  10.711   6.188
82534SOL    HW249500   8.826  10.631   6.149
82535SOL     OW49501   0.380   1.265  13.826
82535SOL    HW149502   0.460   1.315  13.842
82535SOL    HW249503   0.311   1.315  13.869
82536SOL     OW49504   6.782   2.002  14.090
82536SOL    HW149505   6.753   1.943  14.021
82536SOL    HW249506   6.846   2.060  14.048
82537SOL     OW49507   2.831   2.658  11.235
82537SOL    HW149508   2.843   2.565  11.255
82537SOL    HW249509   2.907   2.701  11.274
82538SOL     OW49510  12.343   7.547  13.695
82538SOL    HW149511  12.399   7.606  13.642
82538SOL    HW249512  12.401   7.516  13.764
82539SOL     OW49513   1.522   6.679   1.459
82539SOL    HW149514   1.604   6.702   1.503
82539SOL    HW249515   1.539   6.594   1.419
82540SOL     OW49516  13.657   3.887  11.906
82540SOL    HW149517  13.744   3.903  11.943
82540SOL    HW249518  13.614   3.973  11.908
82541SOL     OW49519   1.651   5.727   3.429
82541SOL    HW149520   1.724   5.785   3.405
82541SOL    HW249521   1.580   5.752   3.371
82542SOL     OW49522   4.440   2.874  11.316
82542SOL    HW149523   4.446   2.813  11.243
82542SOL    HW249524   4.492   2.949  11.289
82543SOL     OW49525   7.184   2.210   3.554
82543SOL    HW149526   7.268   2.229   3.595
82543SOL    HW249527   7.177   2.274   3.483
82544SOL     OW49528   2.345   3.907  13.352
82544SOL    HW149529   2.362   3.903  13.446
82544SOL    HW249530   2.391   3.986  13.323
82545SOL     OW49531   2.557  12.993   8.091
82545SOL    HW149532   2.626  12.932   8.063
82545SOL    HW249533   2.601  13.053   8.151
82546SOL     OW49534   0.533   7.002  12.937
82546SOL    HW149535   0.508   7.080  12.986
82546SOL    HW249536   0.628   6.998  12.946
82547SOL     OW49537  10.080   5.607   4.577
82547SOL    HW149538  10.148   5.547   4.548
82547SOL    HW249539  10.110   5.693   4.548
82548SOL     OW49540   6.961  13.933   9.894
82548SOL    HW149541   6.866  13.927   9.904
82548SOL    HW249542   6.975  14.020   9.857
82549SOL     OW49543   8.668  10.673   3.409
82549SOL    HW149544   8.734  10.638   3.468
82549SOL    HW249545   8.647  10.760   3.444
82550SOL     OW49546   0.616   3.398   2.788
82550SOL    HW149547   0.545   3.437   2.839
82550SOL    HW249548   0.589   3.307   2.775
82551SOL     OW49549  13.240   1.518   8.928
82551SOL    HW149550  13.295   1.562   8.863
82551SOL    HW249551  13.168   1.578   8.943
82552SOL     OW49552   1.622   0.195   8.987
82552SOL    HW149553   1.665   0.276   9.014
82552SOL    HW249554   1.585   0.160   9.068
82553SOL     OW49555   5.221   4.876   6.611
82553SOL    HW149556   5.298   4.833   6.573
82553SOL    HW249557   5.173   4.910   6.535
82554SOL     OW49558  11.112   7.410  10.273
82554SOL    HW149559  11.092   7.426  10.181
82554SOL    HW249560  11.167   7.485  10.299
82555SOL     OW49561   3.195  12.722   5.925
82555SOL    HW149562   3.116  12.763   5.958
82555SOL    HW249563   3.176  12.628   5.926
82556SOL     OW49564   5.749   8.847   9.228
82556SOL    HW149565   5.751   8.895   9.311
82556SOL    HW249566   5.786   8.908   9.165
82557SOL     OW49567   2.404  13.449  12.313
82557SOL    HW149568   2.371  13.375  12.365
82557SOL    HW249569   2.378  13.527  12.363
82558SOL     OW49570   3.385   0.549   1.617
82558SOL    HW149571   3.402   0.538   1.524
82558SOL    HW249572   3.294   0.580   1.621
82559SOL     OW49573  10.927   3.130  11.266
82559SOL    HW149574  11.011   3.100  11.303
82559SOL    HW249575  10.912   3.215  11.307
82560SOL     OW49576   3.967  14.002  13.373
82560SOL    HW149577   3.979  13.994  13.279
82560SOL    HW249578   4.002  14.088  13.395
82561SOL     OW49579   2.815   8.453   1.391
82561SOL    HW149580   2.779   8.371   1.423
82561SOL    HW249581   2.814   8.512   1.466
82562SOL     OW49582  11.406  10.629  10.518
82562SOL    HW149583  11.462  10.556  10.546
82562SOL    HW249584  11.405  10.689  10.592
82563SOL     OW49585   8.493  14.719  12.056
82563SOL    HW149586   8.557  14.787  12.077
82563SOL    HW249587   8.472  14.732  11.964
82564SOL     OW49588   5.693  14.278   6.923
82564SOL    HW149589   5.666  14.370   6.918
82564SOL    HW249590   5.783  14.282   6.956
82565SOL     OW49591   4.672  12.926   6.849
82565SOL    HW149592   4.708  12.936   6.760
82565SOL    HW249593   4.684  13.012   6.889
82566SOL     OW49594   3.895   7.842   1.004
82566SOL    HW149595   3.883   7.873   0.915
82566SOL    HW249596   3.973   7.888   1.036
82567SOL     OW49597   8.879  11.826   2.350
82567SOL    HW149598   8.871  11.908   2.398
82567SOL    HW249599   8.945  11.776   2.398
82568SOL     OW49600   4.161  13.216  13.910
82568SOL    HW149601   4.099  13.276  13.870
82568SOL    HW249602   4.205  13.267  13.978
82569SOL     OW49603   6.938  10.328   8.050
82569SOL    HW149604   6.960  10.364   8.136
82569SOL    HW249605   6.951  10.234   8.058
82570SOL     OW49606  14.283   0.925   3.027
82570SOL    HW149607  14.203   0.954   3.070
82570SOL    HW249608  14.252   0.871   2.954
82571SOL     OW49609   6.854   3.316  12.293
82571SOL    HW149610   6.946   3.336  12.310
82571SOL    HW249611   6.811   3.327  12.378
82572SOL     OW49612   4.680  13.927   2.687
82572SOL    HW149613   4.748  13.864   2.708
82572SOL    HW249614   4.663  13.974   2.769
82573SOL     OW49615   5.047  12.342  11.351
82573SOL    HW149616   4.975  12.351  11.289
82573SOL    HW249617   5.075  12.250  11.343
82574SOL     OW49618   6.336   4.308  12.998
82574SOL    HW149619   6.321   4.397  13.030
82574SOL    HW249620   6.249   4.270  12.991
82575SOL     OW49621   6.590   3.442   4.119
82575SOL    HW149622   6.669   3.494   4.110
82575SOL    HW249623   6.519   3.503   4.098
82576SOL     OW49624   3.861   9.363   0.682
82576SOL    HW149625   3.817   9.279   0.666
82576SOL    HW249626   3.905   9.382   0.599
82577SOL     OW49627   4.506  13.368   9.805
82577SOL    HW149628   4.589  13.364   9.853
82577SOL    HW249629   4.514  13.447   9.752
82578SOL     OW49630  10.108  10.121   5.476
82578SOL    HW149631  10.154  10.037   5.478
82578SOL    HW249632  10.122  10.154   5.388
82579SOL     OW49633   3.560  10.669   8.505
82579SOL    HW149634   3.536  10.647   8.415
82579SOL    HW249635   3.633  10.730   8.496
82580SOL     OW49636   7.270   2.898   4.003
82580SOL    HW149637   7.177   2.897   4.023
82580SOL    HW249638   7.303   2.815   4.037
82581SOL     OW49639   3.737   5.139   5.600
82581SOL    HW149640   3.812   5.171   5.550
82581SOL    HW249641   3.704   5.064   5.551
82582SOL     OW49642   4.340   6.509  10.385
82582SOL    HW149643   4.379   6.454  10.317
82582SOL    HW249644   4.246   6.502  10.371
82583SOL     OW49645   8.985   4.097   3.007
82583SOL    HW149646   9.000   4.004   3.022
82583SOL    HW249647   9.070   4.139   3.024
82584SOL     OW49648   0.456  12.571  11.458
82584SOL    HW149649   0.383  12.574  11.519
82584SOL    HW249650   0.509  12.648  11.480
82585SOL     OW49651   9.134  12.761  14.564
82585SOL    HW149652   9.051  12.742  14.520
82585SOL    HW249653   9.128  12.853  14.588
82586SOL     OW49654  13.032   8.635   2.556
82586SOL    HW149655  13.038   8.564   2.492
82586SOL    HW249656  12.945   8.673   2.541
82587SOL     OW49657   1.065  11.751   3.260
82587SOL    HW149658   1.122  11.691   3.308
82587SOL    HW249659   1.018  11.695   3.198
82588SOL     OW49660   7.969   7.009  11.579
82588SOL    HW149661   7.971   7.097  11.618
82588SOL    HW249662   7.878   6.996  11.554
82589SOL     OW49663   8.273  10.640  12.544
82589SOL    HW149664   8.326  10.712  12.510
82589SOL    HW249665   8.217  10.681  12.610
82590SOL     OW49666  11.955   5.520   9.386
82590SOL    HW149667  12.049   5.507   9.392
82590SOL    HW249668  11.922   5.442   9.341
82591SOL     OW49669   0.079  11.162   8.235
82591SOL    HW149670  14.858  11.150   8.216
82591SOL    HW249671   0.087  11.138   8.328
82592SOL     OW49672   0.694  13.667  13.386
82592SOL    HW149673   0.637  13.658  13.462
82592SOL    HW249674   0.782  13.650  13.420
82593SOL     OW49675   6.676   0.481   1.398
82593SOL    HW149676   6.663   0.546   1.467
82593SOL    HW249677   6.706   0.532   1.322
82594SOL     OW49678   1.324  11.846  13.549
82594SOL    HW149679   1.274  11.873  13.472
82594SOL    HW249680   1.261  11.803  13.606
82595SOL     OW49681   2.216   8.888   8.562
82595SOL    HW149682   2.282   8.873   8.495
82595SOL    HW249683   2.189   8.979   8.550
82596SOL     OW49684   2.364   0.772   1.042
82596SOL    HW149685   2.344   0.865   1.049
82596SOL    HW249686   2.352   0.752   0.949
82597SOL     OW49687  13.306   3.839   2.547
82597SOL    HW149688  13.275   3.793   2.625
82597SOL    HW249689  13.229   3.883   2.512
82598SOL     OW49690   7.483   1.844   7.254
82598SOL    HW149691   7.433   1.764   7.239
82598SOL    HW249692   7.506   1.841   7.347
82599SOL     OW49693   1.784   2.334  11.699
82599SOL    HW149694   1.774   2.290  11.614
82599SOL    HW249695   1.824   2.268  11.755
82600SOL     OW49696   1.982  11.128   5.888
82600SOL    HW149697   1.887  11.135   5.875
82600SOL    HW249698   2.007  11.216   5.918
82601SOL     OW49699   1.364  11.761   5.278
82601SOL    HW149700   1.315  11.835   5.242
82601SOL    HW249701   1.443  11.801   5.314
82602SOL     OW49702   0.411  14.250   8.312
82602SOL    HW149703   0.373  14.317   8.255
82602SOL    HW249704   0.506  14.259   8.299
82603SOL     OW49705   7.392   7.617   8.634
82603SOL    HW149706   7.416   7.611   8.541
82603SOL    HW249707   7.381   7.526   8.662
82604SOL     OW49708   5.307   0.909  11.605
82604SOL    HW149709   5.395   0.918  11.568
82604SOL    HW249710   5.250   0.908  11.529
82605SOL     OW49711   0.417   4.039   2.231
82605SOL    HW149712   0.362   4.080   2.165
82605SOL    HW249713   0.411   4.098   2.306
82606SOL     OW49714  14.850  13.150   1.230
82606SOL    HW149715   0.067  13.166   1.260
82606SOL    HW249716  14.839  13.208   1.156
82607SOL     OW49717  12.146   6.643   9.798
82607SOL    HW149718  12.177   6.727   9.832
82607SOL    HW249719  12.051   6.647   9.807
82608SOL     OW49720  14.306   1.348  12.599
82608SOL    HW149721  14.335   1.269  12.553
82608SOL    HW249722  14.285   1.317  12.687
82609SOL     OW49723   5.508   9.221   1.277
82609SOL    HW149724   5.476   9.296   1.226
82609SOL    HW249725   5.582   9.256   1.327
82610SOL     OW49726  14.234  11.909   3.037
82610SOL    HW149727  14.186  11.826   3.040
82610SOL    HW249728  14.323  11.886   3.063
82611SOL     OW49729  13.225   6.520   5.855
82611SOL    HW149730  13.231   6.615   5.860
82611SOL    HW249731  13.300   6.493   5.802
82612SOL     OW49732  13.541   2.686   7.604
82612SOL    HW149733  13.480   2.738   7.551
82612SOL    HW249734  13.516   2.595   7.587
82613SOL     OW49735   3.529   7.625   6.211
82613SOL    HW149736   3.437   7.640   6.191
82613SOL    HW249737   3.573   7.707   6.188
82614SOL     OW49738  13.819  11.812  12.295
82614SOL    HW149739  13.834  11.840  12.386
82614SOL    HW249740  13.903  11.776  12.267
82615SOL     OW49741   2.420   5.927   7.292
82615SOL    HW149742   2.458   6.002   7.337
82615SOL    HW249743   2.333   5.918   7.332
82616SOL     OW49744   9.716   6.050   3.167
82616SOL    HW149745   9.641   6.065   3.225
82616SOL    HW249746   9.694   6.097   3.086
82617SOL     OW49747   9.209  11.087   9.367
82617SOL    HW149748   9.145  11.138   9.416
82617SOL    HW249749   9.169  11.000   9.358
82618SOL     OW49750   4.530  10.021  10.724
82618SOL    HW149751   4.575   9.960  10.782
82618SOL    HW249752   4.543   9.985  10.636
82619SOL     OW49753  10.685  12.864   5.792
82619SOL    HW149754  10.757  12.926   5.785
82619SOL    HW249755  10.713  12.788   5.741
82620SOL     OW49756  11.149   2.878   0.634
82620SOL    HW149757  11.242   2.885   0.654
82620SOL    HW249758  11.139   2.789   0.600
82621SOL     OW49759   5.760   9.430   4.533
82621SOL    HW149760   5.836   9.454   4.586
82621SOL    HW249761   5.687   9.473   4.577
82622SOL     OW49762   9.336  13.020  13.542
82622SOL    HW149763   9.382  12.954  13.594
82622SOL    HW249764   9.404  13.081  13.515
82623SOL     OW49765   4.750   2.152   2.132
82623SOL    HW149766   4.792   2.208   2.197
82623SOL    HW249767   4.747   2.066   2.173
82624SOL     OW49768   5.397   8.570   3.057
82624SOL    HW149769   5.449   8.499   3.095
82624SOL    HW249770   5.378   8.628   3.130
82625SOL     OW49771   5.754  13.894   2.659
82625SOL    HW149772   5.734  13.892   2.565
82625SOL    HW249773   5.850  13.897   2.663
82626SOL     OW49774   3.886   7.480  10.623
82626SOL    HW149775   3.809   7.454  10.674
82626SOL    HW249776   3.913   7.400  10.579
82627SOL     OW49777   6.418   6.538   1.450
82627SOL    HW149778   6.414   6.487   1.530
82627SOL    HW249779   6.470   6.615   1.473
82628SOL     OW49780   5.898  12.937   1.755
82628SOL    HW149781   5.947  12.961   1.834
82628SOL    HW249782   5.822  12.995   1.756
82629SOL     OW49783   5.149   4.028   7.702
82629SOL    HW149784   5.094   4.049   7.777
82629SOL    HW249785   5.195   4.110   7.682
82630SOL     OW49786  10.005  14.798   0.899
82630SOL    HW149787   9.912  14.780   0.914
82630SOL    HW249788  10.045  14.795   0.986
82631SOL     OW49789   0.346   3.347   8.452
82631SOL    HW149790   0.251   3.354   8.446
82631SOL    HW249791   0.374   3.325   8.363
82632SOL     OW49792  10.460   7.107  10.724
82632SOL    HW149793  10.372   7.097  10.687
82632SOL    HW249794  10.446   7.159  10.803
82633SOL     OW49795   8.251   6.675   8.361
82633SOL    HW149796   8.330   6.660   8.310
82633SOL    HW249797   8.228   6.766   8.343
82634SOL     OW49798   7.200   2.138  11.617
82634SOL    HW149799   7.174   2.046  11.613
82634SOL    HW249800   7.155   2.172  11.695
82635SOL     OW49801   5.237  10.442   9.300
82635SOL    HW149802   5.279  10.506   9.357
82635SOL    HW249803   5.299  10.368   9.297
82636SOL     OW49804   8.310   4.803  12.110
82636SOL    HW149805   8.246   4.874  12.104
82636SOL    HW249806   8.316   4.769  12.021
82637SOL     OW49807   5.068   4.997   1.404
82637SOL    HW149808   4.997   5.060   1.417
82637SOL    HW249809   5.135   5.045   1.355
82638SOL     OW49810  12.949   6.783   1.794
82638SOL    HW149811  12.890   6.758   1.722
82638SOL    HW249812  12.987   6.866   1.766
82639SOL     OW49813   5.392   0.205   0.186
82639SOL    HW149814   5.300   0.230   0.189
82639SOL    HW249815   5.438   0.287   0.168
82640SOL     OW49816   5.721  12.226   6.300
82640SOL    HW149817   5.703  12.165   6.371
82640SOL    HW249818   5.726  12.170   6.222
82641SOL     OW49819  10.480   8.410  12.243
82641SOL    HW149820  10.439   8.335  12.287
82641SOL    HW249821  10.407   8.454  12.198
82642SOL     OW49822   2.310   1.262   2.364
82642SOL    HW149823   2.218   1.240   2.379
82642SOL    HW249824   2.358   1.208   2.426
82643SOL     OW49825   9.676   7.622  11.723
82643SOL    HW149826   9.603   7.589  11.776
82643SOL    HW249827   9.722   7.683  11.781
82644SOL     OW49828   5.326  10.588  12.451
82644SOL    HW149829   5.363  10.618  12.534
82644SOL    HW249830   5.358  10.498  12.442
82645SOL     OW49831   8.927  10.707   4.216
82645SOL    HW149832   9.021  10.725   4.223
82645SOL    HW249833   8.885  10.788   4.245
82646SOL     OW49834   5.594   0.740   8.934
82646SOL    HW149835   5.599   0.662   8.880
82646SOL    HW249836   5.501   0.761   8.938
82647SOL     OW49837  11.152  13.655   3.821
82647SOL    HW149838  11.096  13.724   3.858
82647SOL    HW249839  11.230  13.657   3.876
82648SOL     OW49840  10.604  14.050   6.669
82648SOL    HW149841  10.536  13.984   6.683
82648SOL    HW249842  10.599  14.106   6.747
82649SOL     OW49843   2.627   0.895  10.052
82649SOL    HW149844   2.549   0.940  10.084
82649SOL    HW249845   2.654   0.837  10.124
82650SOL     OW49846   3.486  14.259   6.803
82650SOL    HW149847   3.479  14.280   6.710
82650SOL    HW249848   3.568  14.300   6.831
82651SOL     OW49849   0.205   4.128  13.694
82651SOL    HW149850   0.139   4.083  13.747
82651SOL    HW249851   0.249   4.187  13.756
82652SOL     OW49852  10.837   8.020  12.691
82652SOL    HW149853  10.905   7.967  12.733
82652SOL    HW249854  10.807   8.080  12.760
82653SOL     OW49855  10.528  13.264   7.375
82653SOL    HW149856  10.505  13.355   7.395
82653SOL    HW249857  10.445  13.222   7.356
82654SOL     OW49858   9.443  10.311   1.217
82654SOL    HW149859   9.451  10.358   1.134
82654SOL    HW249860   9.500  10.360   1.277
82655SOL     OW49861   8.509  14.083  12.092
82655SOL    HW149862   8.566  14.089  12.014
82655SOL    HW249863   8.420  14.089  12.057
82656SOL     OW49864   1.904   7.111   2.425
82656SOL    HW149865   1.886   7.018   2.437
82656SOL    HW249866   1.999   7.117   2.425
82657SOL     OW49867   1.163   7.752   3.249
82657SOL    HW149868   1.255   7.779   3.251
82657SOL    HW249869   1.113   7.833   3.260
82658SOL     OW49870   1.630   9.770   5.812
82658SOL    HW149871   1.622   9.725   5.896
82658SOL    HW249872   1.712   9.739   5.775
82659SOL     OW49873  14.228   8.671   6.035
82659SOL    HW149874  14.253   8.648   5.945
82659SOL    HW249875  14.271   8.755   6.052
82660SOL     OW49876  10.779   7.676   6.674
82660SOL    HW149877  10.687   7.651   6.664
82660SOL    HW249878  10.782   7.723   6.757
82661SOL     OW49879   3.382   8.604  14.652
82661SOL    HW149880   3.449   8.647  14.598
82661SOL    HW249881   3.429   8.577  14.731
82662SOL     OW49882   2.353   5.862   3.692
82662SOL    HW149883   2.344   5.870   3.597
82662SOL    HW249884   2.268   5.888   3.726
82663SOL     OW49885  12.588  12.189   4.375
82663SOL    HW149886  12.581  12.115   4.436
82663SOL    HW249887  12.499  12.224   4.370
82664SOL     OW49888   0.913   2.244   9.351
82664SOL    HW149889   0.857   2.184   9.401
82664SOL    HW249890   0.859   2.322   9.338
82665SOL     OW49891  12.525   3.276   5.184
82665SOL    HW149892  12.461   3.341   5.212
82665SOL    HW249893  12.546   3.299   5.094
82666SOL     OW49894   5.918  11.783  13.949
82666SOL    HW149895   6.001  11.824  13.971
82666SOL    HW249896   5.926  11.758  13.857
82667SOL     OW49897   0.718  13.424   0.269
82667SOL    HW149898   0.709  13.511   0.231
82667SOL    HW249899   0.657  13.423   0.343
82668SOL     OW49900   4.755   0.536   9.350
82668SOL    HW149901   4.815   0.465   9.325
82668SOL    HW249902   4.683   0.529   9.287
82669SOL     OW49903   4.845   5.805  11.424
82669SOL    HW149904   4.817   5.885  11.380
82669SOL    HW249905   4.764   5.758  11.443
82670SOL     OW49906   8.865   6.091   3.779
82670SOL    HW149907   8.793   6.140   3.740
82670SOL    HW249908   8.944   6.138   3.752
82671SOL     OW49909  11.018  10.130   5.517
82671SOL    HW149910  10.923  10.127   5.509
82671SOL    HW249911  11.051  10.097   5.433
82672SOL     OW49912   2.265   8.667   3.192
82672SOL    HW149913   2.281   8.583   3.235
82672SOL    HW249914   2.334   8.675   3.127
82673SOL     OW49915  11.057  14.021   0.818
82673SOL    HW149916  11.150  14.042   0.823
82673SOL    HW249917  11.043  13.955   0.887
82674SOL     OW49918   5.753   2.922  14.138
82674SOL    HW149919   5.841   2.922  14.102
82674SOL    HW249920   5.764   2.949  14.229
82675SOL     OW49921  14.731   2.109  11.982
82675SOL    HW149922  14.806   2.078  12.034
82675SOL    HW249923  14.747   2.074  11.895
82676SOL     OW49924   5.527   8.151   8.091
82676SOL    HW149925   5.590   8.099   8.141
82676SOL    HW249926   5.579   8.193   8.023
82677SOL     OW49927  11.558   5.940  14.252
82677SOL    HW149928  11.496   5.911  14.319
82677SOL    HW249929  11.593   5.858  14.215
82678SOL     OW49930   6.014  13.424   6.174
82678SOL    HW149931   5.983  13.492   6.234
82678SOL    HW249932   5.975  13.343   6.208
82679SOL     OW49933   2.163   9.534   0.493
82679SOL    HW149934   2.089   9.514   0.436
82679SOL    HW249935   2.136   9.502   0.579
82680SOL     OW49936   3.549  12.569  12.817
82680SOL    HW149937   3.469  12.559  12.867
82680SOL    HW249938   3.580  12.657  12.837
82681SOL     OW49939   2.909   8.845   1.770
82681SOL    HW149940   2.886   8.933   1.740
82681SOL    HW249941   3.005   8.848   1.780
82682SOL     OW49942   0.393   2.331  10.111
82682SOL    HW149943   0.459   2.396  10.085
82682SOL    HW249944   0.337   2.322  10.034
82683SOL     OW49945  14.809   3.560   7.116
82683SOL    HW149946  14.851   3.490   7.065
82683SOL    HW249947  14.858   3.562   7.198
82684SOL     OW49948  12.407  12.138   7.967
82684SOL    HW149949  12.317  12.168   7.973
82684SOL    HW249950  12.422  12.125   7.873
82685SOL     OW49951   7.512  13.385  13.740
82685SOL    HW149952   7.562  13.306  13.762
82685SOL    HW249953   7.507  13.385  13.645
82686SOL     OW49954   1.751   7.414  12.182
82686SOL    HW149955   1.774   7.329  12.221
82686SOL    HW249956   1.833   7.446  12.144
82687SOL     OW49957  11.391   9.743   0.957
82687SOL    HW149958  11.418   9.829   0.926
82687SOL    HW249959  11.424   9.682   0.891
82688SOL     OW49960   3.409   8.647  12.304
82688SOL    HW149961   3.432   8.554  12.298
82688SOL    HW249962   3.492   8.694  12.301
82689SOL     OW49963  14.617  10.712   2.942
82689SOL    HW149964  14.534  10.740   2.904
82689SOL    HW249965  14.595  10.688   3.032
82690SOL     OW49966   8.158   7.048   1.041
82690SOL    HW149967   8.088   7.112   1.053
82690SOL    HW249968   8.182   7.056   0.949
82691SOL     OW49969   6.202   1.420   9.174
82691SOL    HW149970   6.221   1.359   9.245
82691SOL    HW249971   6.284   1.426   9.125
82692SOL     OW49972  12.993   2.973   6.909
82692SOL    HW149973  12.968   2.940   6.995
82692SOL    HW249974  13.088   2.984   6.915
82693SOL     OW49975   6.451   3.472   7.995
82693SOL    HW149976   6.393   3.548   7.984
82693SOL    HW249977   6.456   3.433   7.907
82694SOL     OW49978  14.739   7.910   7.006
82694SOL    HW149979  14.772   7.970   6.939
82694SOL    HW249980  14.675   7.856   6.960
82695SOL     OW49981   4.796   1.447  11.147
82695SOL    HW149982   4.772   1.401  11.068
82695SOL    HW249983   4.746   1.404  11.217
82696SOL     OW49984  12.624  12.821   6.866
82696SOL    HW149985  12.574  12.778   6.935
82696SOL    HW249986  12.557  12.859   6.808
82697SOL     OW49987  12.216   0.929  12.219
82697SOL    HW149988  12.251   0.881  12.294
82697SOL    HW249989  12.291   0.980  12.188
82698SOL     OW49990   9.222   7.784   4.878
82698SOL    HW149991   9.148   7.826   4.835
82698SOL    HW249992   9.296   7.844   4.863
82699SOL     OW49993   4.406   9.564   8.189
82699SOL    HW149994   4.375   9.514   8.265
82699SOL    HW249995   4.392   9.656   8.213
82700SOL     OW49996  13.365   7.333  13.804
82700SOL    HW149997  13.305   7.263  13.778
82700SOL    HW249998  13.400   7.304  13.889
82701SOL     OW49999  12.383   3.547   8.166
82701SOL    HW150000  12.374   3.490   8.243
82701SOL    HW250001  12.298   3.590   8.159
82702SOL     OW50002   6.131  11.743   3.148
82702SOL    HW150003   6.164  11.728   3.237
82702SOL    HW250004   6.148  11.661   3.102
82703SOL     OW50005   3.337  12.774   3.910
82703SOL    HW150006   3.391  12.697   3.929
82703SOL    HW250007   3.400  12.840   3.878
82704SOL     OW50008   0.409   1.040   2.449
82704SOL    HW150009   0.429   1.106   2.382
82704SOL    HW250010   0.371   0.968   2.401
82705SOL     OW50011   6.307   2.899   1.612
82705SOL    HW150012   6.310   2.803   1.619
82705SOL    HW250013   6.219   2.918   1.580
82706SOL     OW50014   5.944  13.930   4.046
82706SOL    HW150015   5.968  13.888   3.963
82706SOL    HW250016   5.954  14.024   4.029
82707SOL     OW50017  14.828  14.770   9.459
82707SOL    HW150018  14.818  14.811   9.373
82707SOL    HW250019   0.041  14.801   9.491
82708SOL     OW50020   2.199   7.967   8.066
82708SOL    HW150021   2.127   8.030   8.074
82708SOL    HW250022   2.271   8.006   8.115
82709SOL     OW50023   1.059   0.136   5.164
82709SOL    HW150024   1.033   0.087   5.242
82709SOL    HW250025   0.997   0.108   5.097
82710SOL     OW50026   8.399  14.687   1.133
82710SOL    HW150027   8.465  14.662   1.068
82710SOL    HW250028   8.376  14.777   1.110
82711SOL     OW50029   6.175   4.170   3.772
82711SOL    HW150030   6.118   4.155   3.848
82711SOL    HW250031   6.181   4.265   3.766
82712SOL     OW50032   3.255  11.202  11.730
82712SOL    HW150033   3.333  11.150  11.709
82712SOL    HW250034   3.244  11.259  11.654
82713SOL     OW50035   9.264  11.511   2.962
82713SOL    HW150036   9.308  11.595   2.956
82713SOL    HW250037   9.318  11.451   2.912
82714SOL     OW50038   2.477   2.066   3.415
82714SOL    HW150039   2.437   2.119   3.483
82714SOL    HW250040   2.570   2.062   3.438
82715SOL     OW50041   9.075  11.843   9.778
82715SOL    HW150042   9.146  11.900   9.749
82715SOL    HW250043   9.053  11.875   9.866
82716SOL     OW50044   2.317   6.312  11.901
82716SOL    HW150045   2.290   6.401  11.877
82716SOL    HW250046   2.369   6.323  11.981
82717SOL     OW50047   1.121   0.129   8.792
82717SOL    HW150048   1.198   0.126   8.849
82717SOL    HW250049   1.080   0.213   8.811
82718SOL     OW50050   2.055  14.800   1.946
82718SOL    HW150051   2.064   0.002   1.886
82718SOL    HW250052   2.000  14.833   2.017
82719SOL     OW50053  13.162  13.292  13.673
82719SOL    HW150054  13.223  13.365  13.684
82719SOL    HW250055  13.111  13.291  13.754
82720SOL     OW50056   9.671   8.395   3.006
82720SOL    HW150057   9.737   8.326   3.001
82720SOL    HW250058   9.715   8.472   2.969
82721SOL     OW50059   1.992   6.800   0.827
82721SOL    HW150060   2.006   6.834   0.738
82721SOL    HW250061   2.068   6.744   0.843
82722SOL     OW50062   7.220   2.223  14.239
82722SOL    HW150063   7.207   2.194  14.329
82722SOL    HW250064   7.307   2.264  14.239
82723SOL     OW50065   6.712   8.800   0.371
82723SOL    HW150066   6.774   8.753   0.315
82723SOL    HW250067   6.685   8.876   0.318
82724SOL     OW50068   1.250  10.129   9.533
82724SOL    HW150069   1.198  10.117   9.454
82724SOL    HW250070   1.238  10.047   9.582
82725SOL     OW50071  10.946   2.847   7.384
82725SOL    HW150072  11.017   2.798   7.424
82725SOL    HW250073  10.970   2.852   7.291
82726SOL     OW50074   1.491   8.670   2.917
82726SOL    HW150075   1.512   8.635   3.004
82726SOL    HW250076   1.552   8.743   2.905
82727SOL     OW50077  12.099   6.115   2.082
82727SOL    HW150078  12.114   6.189   2.141
82727SOL    HW250079  12.185   6.074   2.073
82728SOL     OW50080   1.167   8.802   1.940
82728SOL    HW150081   1.102   8.856   1.897
82728SOL    HW250082   1.248   8.819   1.892
82729SOL     OW50083   6.178  12.460  11.841
82729SOL    HW150084   6.124  12.381  11.850
82729SOL    HW250085   6.261  12.427  11.807
82730SOL     OW50086  13.588   8.572   1.874
82730SOL    HW150087  13.606   8.481   1.853
82730SOL    HW250088  13.581   8.574   1.970
82731SOL     OW50089   9.214   0.304   7.018
82731SOL    HW150090   9.202   0.300   7.113
82731SOL    HW250091   9.142   0.252   6.982
82732SOL     OW50092   1.274   2.267   2.778
82732SOL    HW150093   1.186   2.291   2.809
82732SOL    HW250094   1.262   2.181   2.738
82733SOL     OW50095   5.755   3.837   9.040
82733SOL    HW150096   5.827   3.890   9.074
82733SOL    HW250097   5.751   3.762   9.099
82734SOL     OW50098   8.243  12.901   8.735
82734SOL    HW150099   8.305  12.967   8.703
82734SOL    HW250100   8.258  12.897   8.829
82735SOL     OW50101  12.119  10.654   9.028
82735SOL    HW150102  12.082  10.585   9.083
82735SOL    HW250103  12.053  10.723   9.029
82736SOL     OW50104  11.414   2.694  11.117
82736SOL    HW150105  11.358   2.627  11.157
82736SOL    HW250106  11.442   2.748  11.191
82737SOL     OW50107   0.396   9.805  11.248
82737SOL    HW150108   0.445   9.858  11.311
82737SOL    HW250109   0.463   9.773  11.187
82738SOL     OW50110  14.334   5.256  12.714
82738SOL    HW150111  14.397   5.252  12.785
82738SOL    HW250112  14.356   5.183  12.657
82739SOL     OW50113   1.836  12.157   3.151
82739SOL    HW150114   1.836  12.253   3.148
82739SOL    HW250115   1.776  12.131   3.081
82740SOL     OW50116   4.618  10.640  13.374
82740SOL    HW150117   4.578  10.718  13.411
82740SOL    HW250118   4.608  10.649  13.280
82741SOL     OW50119   6.449   6.014  11.250
82741SOL    HW150120   6.364   5.999  11.293
82741SOL    HW250121   6.455   5.945  11.184
82742SOL     OW50122   0.584   3.402  12.519
82742SOL    HW150123   0.554   3.493  12.516
82742SOL    HW250124   0.673   3.404  12.483
82743SOL     OW50125   0.108  13.013   5.198
82743SOL    HW150126   0.131  13.098   5.163
82743SOL    HW250127   0.128  12.951   5.127
82744SOL     OW50128   9.890   0.174   9.855
82744SOL    HW150129   9.857   0.264   9.860
82744SOL    HW250130   9.975   0.177   9.900
82745SOL     OW50131  12.629   6.059  14.613
82745SOL    HW150132  12.698   5.995  14.629
82745SOL    HW250133  12.557   6.008  14.575
82746SOL     OW50134  12.870   0.719   6.747
82746SOL    HW150135  12.794   0.777   6.744
82746SOL    HW250136  12.834   0.631   6.738
82747SOL     OW50137   0.102   2.419   5.770
82747SOL    HW150138   0.084   2.333   5.809
82747SOL    HW250139   0.168   2.458   5.828
82748SOL     OW50140   1.996   5.995  13.810
82748SOL    HW150141   2.032   5.931  13.749
82748SOL    HW250142   2.017   5.960  13.897
82749SOL     OW50143   8.033   4.335   8.473
82749SOL    HW150144   8.073   4.405   8.526
82749SOL    HW250145   8.078   4.342   8.388
82750SOL     OW50146   7.174   8.247   6.408
82750SOL    HW150147   7.164   8.201   6.324
82750SOL    HW250148   7.084   8.269   6.435
82751SOL     OW50149   3.731   7.744   3.800
82751SOL    HW150150   3.814   7.766   3.841
82751SOL    HW250151   3.666   7.752   3.870
82752SOL     OW50152   5.992  10.741   1.804
82752SOL    HW150153   6.020  10.831   1.785
82752SOL    HW250154   5.938  10.717   1.729
82753SOL     OW50155  13.795   6.264   4.056
82753SOL    HW150156  13.744   6.253   4.136
82753SOL    HW250157  13.732   6.296   3.992
82754SOL     OW50158  11.221   3.936   0.230
82754SOL    HW150159  11.130   3.962   0.215
82754SOL    HW250160  11.228   3.927   0.325
82755SOL     OW50161  10.219  11.617   7.675
82755SOL    HW150162  10.247  11.665   7.597
82755SOL    HW250163  10.175  11.539   7.641
82756SOL     OW50164   7.481   8.968   9.677
82756SOL    HW150165   7.407   9.017   9.641
82756SOL    HW250166   7.452   8.876   9.675
82757SOL     OW50167   9.201   9.471  12.334
82757SOL    HW150168   9.281   9.521  12.321
82757SOL    HW250169   9.156   9.515  12.405
82758SOL     OW50170  13.262  11.481   7.749
82758SOL    HW150171  13.249  11.387   7.764
82758SOL    HW250172  13.200  11.503   7.679
82759SOL     OW50173   0.416   8.249   8.567
82759SOL    HW150174   0.495   8.256   8.621
82759SOL    HW250175   0.394   8.156   8.568
82760SOL     OW50176   8.810   3.900  14.843
82760SOL    HW150177   8.841   3.979  14.798
82760SOL    HW250178   8.765   3.850  14.776
82761SOL     OW50179   9.709   4.118   4.749
82761SOL    HW150180   9.677   4.028   4.760
82761SOL    HW250181   9.630   4.172   4.745
82762SOL     OW50182  10.993   6.077   5.918
82762SOL    HW150183  10.999   5.992   5.874
82762SOL    HW250184  11.072   6.082   5.972
82763SOL     OW50185  10.539   1.101   3.900
82763SOL    HW150186  10.516   1.106   3.807
82763SOL    HW250187  10.458   1.075   3.943
82764SOL     OW50188  14.017   7.345  13.121
82764SOL    HW150189  13.934   7.386  13.098
82764SOL    HW250190  13.996   7.291  13.197
82765SOL     OW50191   7.240   0.382  13.768
82765SOL    HW150192   7.167   0.410  13.712
82765SOL    HW250193   7.202   0.378  13.856
82766SOL     OW50194  12.488   5.027   0.356
82766SOL    HW150195  12.566   5.043   0.303
82766SOL    HW250196  12.468   5.113   0.394
82767SOL     OW50197   8.758   2.330   4.021
82767SOL    HW150198   8.765   2.274   4.098
82767SOL    HW250199   8.673   2.373   4.030
82768SOL     OW50200   7.260   6.506  13.995
82768SOL    HW150201   7.191   6.463  13.945
82768SOL    HW250202   7.241   6.600  13.986
82769SOL     OW50203  12.550   3.462  13.033
82769SOL    HW150204  12.625   3.406  13.013
82769SOL    HW250205  12.586   3.532  13.088
82770SOL     OW50206  10.724  13.286  11.057
82770SOL    HW150207  10.741  13.199  11.092
82770SOL    HW250208  10.642  13.313  11.098
82771SOL     OW50209  12.185  10.528   3.620
82771SOL    HW150210  12.113  10.590   3.604
82771SOL    HW250211  12.167  10.454   3.563
82772SOL     OW50212  14.784   7.493   4.962
82772SOL    HW150213  14.768   7.584   4.938
82772SOL    HW250214  14.698   7.451   4.955
82773SOL     OW50215  11.195   5.000   5.535
82773SOL    HW150216  11.181   5.056   5.610
82773SOL    HW250217  11.132   4.928   5.546
82774SOL     OW50218  12.766  14.630  13.049
82774SOL    HW150219  12.734  14.699  12.992
82774SOL    HW250220  12.724  14.550  13.017
82775SOL     OW50221  14.250  13.733   7.253
82775SOL    HW150222  14.300  13.705   7.329
82775SOL    HW250223  14.305  13.710   7.178
82776SOL     OW50224   4.418  14.711   4.900
82776SOL    HW150225   4.356  14.645   4.868
82776SOL    HW250226   4.473  14.731   4.825
82777SOL     OW50227   9.475   8.726  13.523
82777SOL    HW150228   9.447   8.635  13.511
82777SOL    HW250229   9.517   8.749  13.440
82778SOL     OW50230   1.293  13.062  11.374
82778SOL    HW150231   1.198  13.064  11.388
82778SOL    HW250232   1.303  13.056  11.279
82779SOL     OW50233   7.925  10.069  14.313
82779SOL    HW150234   8.003  10.093  14.262
82779SOL    HW250235   7.879  10.007  14.256
82780SOL     OW50236  12.583   2.955  11.954
82780SOL    HW150237  12.540   2.888  12.007
82780SOL    HW250238  12.640   3.001  12.015
82781SOL     OW50239   1.037   0.947  10.555
82781SOL    HW150240   1.016   1.018  10.615
82781SOL    HW250241   0.982   0.874  10.584
82782SOL     OW50242  12.188   3.800  12.895
82782SOL    HW150243  12.260   3.770  12.950
82782SOL    HW250244  12.154   3.877  12.941
82783SOL     OW50245   8.432   6.220  12.749
82783SOL    HW150246   8.521   6.200  12.720
82783SOL    HW250247   8.379   6.147  12.716
82784SOL     OW50248   4.974   9.341   6.673
82784SOL    HW150249   5.037   9.299   6.615
82784SOL    HW250250   4.890   9.329   6.629
82785SOL     OW50251   4.404   4.922   4.811
82785SOL    HW150252   4.487   4.969   4.812
82785SOL    HW250253   4.428   4.830   4.826
82786SOL     OW50254   4.938  13.924   1.855
82786SOL    HW150255   4.975  14.002   1.895
82786SOL    HW250256   4.944  13.940   1.760
82787SOL     OW50257   8.835   7.912  12.618
82787SOL    HW150258   8.783   7.832  12.612
82787SOL    HW250259   8.920   7.888  12.582
82788SOL     OW50260   5.979   4.930   2.562
82788SOL    HW150261   5.895   4.929   2.516
82788SOL    HW250262   6.044   4.918   2.493
82789SOL     OW50263   9.240   0.691   5.977
82789SOL    HW150264   9.193   0.622   6.022
82789SOL    HW250265   9.289   0.646   5.908
82790SOL     OW50266   5.115  14.255  12.304
82790SOL    HW150267   5.059  14.265  12.381
82790SOL    HW250268   5.109  14.162  12.281
82791SOL     OW50269  14.282   7.460   1.352
82791SOL    HW150270  14.196   7.487   1.383
82791SOL    HW250271  14.274   7.458   1.257
82792SOL     OW50272   3.729  13.281   9.817
82792SOL    HW150273   3.652  13.268   9.762
82792SOL    HW250274   3.803  13.260   9.760
82793SOL     OW50275   0.379   9.249   7.827
82793SOL    HW150276   0.398   9.224   7.917
82793SOL    HW250277   0.376   9.344   7.829
82794SOL     OW50278  14.773  13.741   1.563
82794SOL    HW150279  14.692  13.717   1.519
82794SOL    HW250280  14.842  13.709   1.504
82795SOL     OW50281   8.415  14.021   4.398
82795SOL    HW150282   8.384  13.956   4.462
82795SOL    HW250283   8.337  14.071   4.376
82796SOL     OW50284   0.070   9.947   2.975
82796SOL    HW150285  14.861   9.897   2.983
82796SOL    HW250286   0.086   9.981   3.064
82797SOL     OW50287   0.158   6.457   7.191
82797SOL    HW150288   0.091   6.503   7.141
82797SOL    HW250289   0.111   6.384   7.232
82798SOL     OW50290   0.043   2.048  11.377
82798SOL    HW150291   0.001   2.125  11.338
82798SOL    HW250292   0.088   2.081  11.454
82799SOL     OW50293   9.695   9.401  13.301
82799SOL    HW150294   9.627   9.467  13.291
82799SOL    HW250295   9.752   9.413  13.225
82800SOL     OW50296  12.004   5.487   2.714
82800SOL    HW150297  11.967   5.444   2.637
82800SOL    HW250298  11.946   5.560   2.731
82801SOL     OW50299   7.742   5.891   3.512
82801SOL    HW150300   7.764   5.974   3.470
82801SOL    HW250301   7.672   5.855   3.459
82802SOL     OW50302   9.505   9.323   7.780
82802SOL    HW150303   9.524   9.340   7.687
82802SOL    HW250304   9.451   9.397   7.807
82803SOL     OW50305   0.174  13.971  14.625
82803SOL    HW150306   0.219  14.036  14.679
82803SOL    HW250307   0.101  14.020  14.587
82804SOL     OW50308   2.677   0.117   8.433
82804SOL    HW150309   2.688   0.021   8.431
82804SOL    HW250310   2.702   0.142   8.521
82805SOL     OW50311  13.884   9.150   5.876
82805SOL    HW150312  13.895   9.229   5.824
82805SOL    HW250313  13.969   9.106   5.872
82806SOL     OW50314   0.976   1.050   6.427
82806SOL    HW150315   0.965   0.961   6.462
82806SOL    HW250316   1.071   1.064   6.428
82807SOL     OW50317  14.021   0.928   5.435
82807SOL    HW150318  13.953   0.993   5.454
82807SOL    HW250319  14.094   0.979   5.402
82808SOL     OW50320   1.255   7.402   5.802
82808SOL    HW150321   1.290   7.490   5.790
82808SOL    HW250322   1.306   7.365   5.874
82809SOL     OW50323   7.148  14.475   0.574
82809SOL    HW150324   7.118  14.431   0.495
82809SOL    HW250325   7.237  14.444   0.587
82810SOL     OW50326   6.713   2.251   3.623
82810SOL    HW150327   6.795   2.270   3.668
82810SOL    HW250328   6.662   2.332   3.631
82811SOL     OW50329   4.921   9.172   3.364
82811SOL    HW150330   4.920   9.201   3.456
82811SOL    HW250331   5.001   9.211   3.328
82812SOL     OW50332   5.809   6.676   7.476
82812SOL    HW150333   5.876   6.671   7.408
82812SOL    HW250334   5.795   6.585   7.504
82813SOL     OW50335   4.717   4.903   1.284
82813SOL    HW150336   4.698   4.827   1.339
82813SOL    HW250337   4.783   4.871   1.222
82814SOL     OW50338   9.956   0.387   1.065
82814SOL    HW150339  10.010   0.308   1.068
82814SOL    HW250340   9.888   0.373   1.131
82815SOL     OW50341   5.806   5.456  14.801
82815SOL    HW150342   5.768   5.517  14.864
82815SOL    HW250343   5.738   5.445  14.735
82816SOL     OW50344   0.294   1.789  14.467
82816SOL    HW150345   0.288   1.696  14.447
82816SOL    HW250346   0.388   1.807  14.474
82817SOL     OW50347   1.499  12.580   2.616
82817SOL    HW150348   1.433  12.594   2.548
82817SOL    HW250349   1.570  12.640   2.594
82818SOL     OW50350   6.067  13.001   8.980
82818SOL    HW150351   5.981  12.962   8.994
82818SOL    HW250352   6.072  13.012   8.885
82819SOL     OW50353   3.014   5.453   2.657
82819SOL    HW150354   3.095   5.485   2.698
82819SOL    HW250355   3.025   5.473   2.564
82820SOL     OW50356   8.065  14.139   7.416
82820SOL    HW150357   8.042  14.228   7.440
82820SOL    HW250358   7.984  14.090   7.423
82821SOL     OW50359   5.757   8.807   2.639
82821SOL    HW150360   5.755   8.901   2.621
82821SOL    HW250361   5.716   8.767   2.563
82822SOL     OW50362   3.707  10.772   1.963
82822SOL    HW150363   3.684  10.751   1.872
82822SOL    HW250364   3.650  10.846   1.985
82823SOL     OW50365   8.165   4.579   2.368
82823SOL    HW150366   8.177   4.632   2.447
82823SOL    HW250367   8.081   4.534   2.382
82824SOL     OW50368   9.651   9.778   4.300
82824SOL    HW150369   9.626   9.709   4.238
82824SOL    HW250370   9.624   9.859   4.258
82825SOL     OW50371   5.837   3.292   3.818
82825SOL    HW150372   5.871   3.372   3.778
82825SOL    HW250373   5.747   3.286   3.786
82826SOL     OW50374   1.338   1.472  14.621
82826SOL    HW150375   1.274   1.419  14.669
82826SOL    HW250376   1.402   1.409  14.590
82827SOL     OW50377   3.372   9.753  14.220
82827SOL    HW150378   3.342   9.844  14.209
82827SOL    HW250379   3.464   9.761  14.243
82828SOL     OW50380   6.468  14.380   1.327
82828SOL    HW150381   6.478  14.335   1.243
82828SOL    HW250382   6.411  14.323   1.379
82829SOL     OW50383  14.557  10.550  12.908
82829SOL    HW150384  14.652  10.542  12.902
82829SOL    HW250385  14.541  10.644  12.909
82830SOL     OW50386   6.538  11.343   5.868
82830SOL    HW150387   6.544  11.436   5.847
82830SOL    HW250388   6.445  11.326   5.876
82831SOL     OW50389   3.979   6.216  10.643
82831SOL    HW150390   3.986   6.193  10.735
82831SOL    HW250391   4.038   6.291  10.632
82832SOL     OW50392   7.684  11.222   6.920
82832SOL    HW150393   7.733  11.220   7.002
82832SOL    HW250394   7.710  11.303   6.878
82833SOL     OW50395  11.911  11.775   9.761
82833SOL    HW150396  11.948  11.823   9.687
82833SOL    HW250397  11.987  11.739   9.807
82834SOL     OW50398   2.768   8.316  10.371
82834SOL    HW150399   2.777   8.371  10.449
82834SOL    HW250400   2.764   8.377  10.298
82835SOL     OW50401   2.728  13.231  14.641
82835SOL    HW150402   2.737  13.139  14.668
82835SOL    HW250403   2.701  13.226  14.549
82836SOL     OW50404  12.638   9.646   8.949
82836SOL    HW150405  12.636   9.598   8.867
82836SOL    HW250406  12.639   9.738   8.923
82837SOL     OW50407  12.011   3.085  11.748
82837SOL    HW150408  12.088   3.131  11.782
82837SOL    HW250409  11.994   3.016  11.813
82838SOL     OW50410  12.584   3.619   2.679
82838SOL    HW150411  12.546   3.594   2.763
82838SOL    HW250412  12.559   3.549   2.619
82839SOL     OW50413  12.944   2.437   3.557
82839SOL    HW150414  13.022   2.430   3.612
82839SOL    HW250415  12.902   2.352   3.563
82840SOL     OW50416   7.469  10.363  13.334
82840SOL    HW150417   7.473  10.271  13.360
82840SOL    HW250418   7.376  10.384  13.338
82841SOL     OW50419   6.764   0.444   9.055
82841SOL    HW150420   6.737   0.528   9.091
82841SOL    HW250421   6.692   0.418   8.998
82842SOL     OW50422   2.074  14.371   3.393
82842SOL    HW150423   2.141  14.432   3.362
82842SOL    HW250424   2.052  14.403   3.481
82843SOL     OW50425   3.644   3.888   5.904
82843SOL    HW150426   3.631   3.954   5.972
82843SOL    HW250427   3.588   3.916   5.832
82844SOL     OW50428   3.248   7.912  10.198
82844SOL    HW150429   3.225   7.875  10.113
82844SOL    HW250430   3.341   7.932  10.191
82845SOL     OW50431   8.136   0.953  14.779
82845SOL    HW150432   8.116   1.020  14.845
82845SOL    HW250433   8.231   0.942  14.785
82846SOL     OW50434   0.798   6.144  10.606
82846SOL    HW150435   0.757   6.113  10.687
82846SOL    HW250436   0.731   6.198  10.565
82847SOL     OW50437   9.875   5.323   3.448
82847SOL    HW150438   9.831   5.398   3.489
82847SOL    HW250439   9.804   5.267   3.418
82848SOL     OW50440   8.042  11.035   4.482
82848SOL    HW150441   8.092  10.996   4.553
82848SOL    HW250442   8.012  11.119   4.517
82849SOL     OW50443   8.803   8.886   0.205
82849SOL    HW150444   8.757   8.817   0.158
82849SOL    HW250445   8.830   8.948   0.138
82850SOL     OW50446   8.566  11.147   9.353
82850SOL    HW150447   8.536  11.066   9.395
82850SOL    HW250448   8.502  11.163   9.283
82851SOL     OW50449   9.795   4.540   9.945
82851SOL    HW150450   9.753   4.625   9.957
82851SOL    HW250451   9.740   4.495   9.881
82852SOL     OW50452   8.262  10.248   5.663
82852SOL    HW150453   8.280  10.209   5.748
82852SOL    HW250454   8.317  10.327   5.660
82853SOL     OW50455   6.191   8.562   1.661
82853SOL    HW150456   6.190   8.495   1.592
82853SOL    HW250457   6.115   8.617   1.641
82854SOL     OW50458   2.143   4.923  13.605
82854SOL    HW150459   2.073   4.977  13.568
82854SOL    HW250460   2.118   4.912  13.697
82855SOL     OW50461   8.679   3.950   7.008
82855SOL    HW150462   8.697   4.010   6.936
82855SOL    HW250463   8.586   3.964   7.027
82856SOL     OW50464  13.205   7.259   5.096
82856SOL    HW150465  13.253   7.341   5.106
82856SOL    HW250466  13.143   7.258   5.168
82857SOL     OW50467   1.597  14.405   5.373
82857SOL    HW150468   1.509  14.415   5.411
82857SOL    HW250469   1.649  14.366   5.443
82858SOL     OW50470   0.980  12.712   4.791
82858SOL    HW150471   0.969  12.630   4.743
82858SOL    HW250472   1.037  12.690   4.865
82859SOL     OW50473   8.488   1.832   9.406
82859SOL    HW150474   8.411   1.889   9.415
82859SOL    HW250475   8.532   1.864   9.327
82860SOL     OW50476  10.408  10.786   7.930
82860SOL    HW150477  10.320  10.782   7.892
82860SOL    HW250478  10.459  10.722   7.879
82861SOL     OW50479   4.722   1.153  11.789
82861SOL    HW150480   4.699   1.068  11.827
82861SOL    HW250481   4.767   1.132  11.707
82862SOL     OW50482   8.119  11.317  12.038
82862SOL    HW150483   8.203  11.340  12.077
82862SOL    HW250484   8.102  11.387  11.975
82863SOL     OW50485  13.519   2.214   1.447
82863SOL    HW150486  13.531   2.290   1.390
82863SOL    HW250487  13.430   2.184   1.429
82864SOL     OW50488  12.347   7.001  13.429
82864SOL    HW150489  12.408   7.021  13.499
82864SOL    HW250490  12.347   6.905  13.423
82865SOL     OW50491  10.088  11.486   7.476
82865SOL    HW150492  10.126  11.511   7.391
82865SOL    HW250493  10.032  11.560   7.499
82866SOL     OW50494   3.670  10.994   2.287
82866SOL    HW150495   3.714  10.909   2.281
82866SOL    HW250496   3.634  10.996   2.376
82867SOL     OW50497   2.042  12.290  13.832
82867SOL    HW150498   1.961  12.240  13.845
82867SOL    HW250499   2.086  12.287  13.917
82868SOL     OW50500   4.570   9.875   1.513
82868SOL    HW150501   4.545   9.966   1.499
82868SOL    HW250502   4.521   9.848   1.591
82869SOL     OW50503   6.854   1.168   9.891
82869SOL    HW150504   6.912   1.242   9.874
82869SOL    HW250505   6.844   1.166   9.986
82870SOL     OW50506   2.067   1.245   5.843
82870SOL    HW150507   2.071   1.318   5.905
82870SOL    HW250508   2.115   1.276   5.767
82871SOL     OW50509   8.539  14.138   8.012
82871SOL    HW150510   8.487  14.206   8.053
82871SOL    HW250511   8.486  14.106   7.939
82872SOL     OW50512   3.666   7.423   7.939
82872SOL    HW150513   3.657   7.478   8.017
82872SOL    HW250514   3.730   7.356   7.964
82873SOL     OW50515  10.254  14.336   5.119
82873SOL    HW150516  10.242  14.324   5.025
82873SOL    HW250517  10.236  14.250   5.157
82874SOL     OW50518   3.831   8.590   0.372
82874SOL    HW150519   3.773   8.528   0.417
82874SOL    HW250520   3.902   8.536   0.337
82875SOL     OW50521   2.062  11.503   7.611
82875SOL    HW150522   2.098  11.418   7.587
82875SOL    HW250523   2.122  11.537   7.677
82876SOL     OW50524  12.184   2.488  12.064
82876SOL    HW150525  12.183   2.567  12.009
82876SOL    HW250526  12.161   2.417  12.004
82877SOL     OW50527   3.757  13.625   0.980
82877SOL    HW150528   3.793  13.670   0.903
82877SOL    HW250529   3.833  13.582   1.019
82878SOL     OW50530   1.957  12.955  10.064
82878SOL    HW150531   1.909  13.027  10.106
82878SOL    HW250532   2.026  12.933  10.126
82879SOL     OW50533  11.405   6.650  14.863
82879SOL    HW150534  11.474   6.595  14.825
82879SOL    HW250535  11.415   6.639   0.085
82880SOL     OW50536   0.909   4.414   5.377
82880SOL    HW150537   0.849   4.463   5.321
82880SOL    HW250538   0.944   4.479   5.438
82881SOL     OW50539   4.438   1.986   0.449
82881SOL    HW150540   4.514   1.930   0.432
82881SOL    HW250541   4.461   2.071   0.410
82882SOL     OW50542  14.010   7.073   1.597
82882SOL    HW150543  13.970   7.067   1.510
82882SOL    HW250544  14.073   7.002   1.599
82883SOL     OW50545   0.789   1.123   2.708
82883SOL    HW150546   0.880   1.153   2.704
82883SOL    HW250547   0.767   1.099   2.618
82884SOL     OW50548   1.015  11.795   4.751
82884SOL    HW150549   0.942  11.777   4.691
82884SOL    HW250550   1.073  11.853   4.702
82885SOL     OW50551   9.567  11.014   1.118
82885SOL    HW150552   9.484  11.053   1.091
82885SOL    HW250553   9.588  11.058   1.200
82886SOL     OW50554   6.644  13.744   4.390
82886SOL    HW150555   6.592  13.820   4.364
82886SOL    HW250556   6.719  13.745   4.330
82887SOL     OW50557   5.890  13.664  12.411
82887SOL    HW150558   5.880  13.658  12.506
82887SOL    HW250559   5.937  13.747  12.398
82888SOL     OW50560  10.834   5.728   4.000
82888SOL    HW150561  10.913   5.744   3.947
82888SOL    HW250562  10.777   5.677   3.942
82889SOL     OW50563   4.287  14.008  14.174
82889SOL    HW150564   4.341  14.048  14.106
82889SOL    HW250565   4.236  13.942  14.127
82890SOL     OW50566   5.468  12.271  11.010
82890SOL    HW150567   5.409  12.207  10.969
82890SOL    HW250568   5.413  12.314  11.076
82891SOL     OW50569   3.204  11.917   7.565
82891SOL    HW150570   3.291  11.957   7.572
82891SOL    HW250571   3.179  11.932   7.474
82892SOL     OW50572   5.130   2.735  11.190
82892SOL    HW150573   5.133   2.675  11.115
82892SOL    HW250574   5.148   2.680  11.266
82893SOL     OW50575  10.080   0.767   8.978
82893SOL    HW150576  10.121   0.852   8.965
82893SOL    HW250577  10.077   0.728   8.891
82894SOL     OW50578   8.938   6.120   6.649
82894SOL    HW150579   8.878   6.160   6.712
82894SOL    HW250580   8.881   6.091   6.577
82895SOL     OW50581   2.963   8.820   7.820
82895SOL    HW150582   2.922   8.759   7.758
82895SOL    HW250583   2.956   8.777   7.905
82896SOL     OW50584  13.073   6.989   0.381
82896SOL    HW150585  13.063   6.912   0.326
82896SOL    HW250586  13.126   7.049   0.329
82897SOL     OW50587   4.591   8.700  10.398
82897SOL    HW150588   4.506   8.675  10.435
82897SOL    HW250589   4.644   8.621  10.405
82898SOL     OW50590   4.333   5.915  14.041
82898SOL    HW150591   4.299   5.838  14.086
82898SOL    HW250592   4.407   5.883  13.990
82899SOL     OW50593   4.777  12.669  11.505
82899SOL    HW150594   4.814  12.694  11.590
82899SOL    HW250595   4.682  12.670  11.520
82900SOL     OW50596   4.736   3.410  10.308
82900SOL    HW150597   4.817   3.363  10.329
82900SOL    HW250598   4.764   3.482  10.251
82901SOL     OW50599   2.913  12.164  13.618
82901SOL    HW150600   2.818  12.151  13.624
82901SOL    HW250601   2.949  12.098  13.678
82902SOL     OW50602   9.804  14.169   3.220
82902SOL    HW150603   9.760  14.241   3.174
82902SOL    HW250604   9.761  14.167   3.306
82903SOL     OW50605  12.729   6.647   5.358
82903SOL    HW150606  12.759   6.661   5.448
82903SOL    HW250607  12.686   6.562   5.361
82904SOL     OW50608   4.593   1.671  11.095
82904SOL    HW150609   4.670   1.614  11.100
82904SOL    HW250610   4.541   1.646  11.171
82905SOL     OW50611   7.709   0.161   9.825
82905SOL    HW150612   7.795   0.154   9.784
82905SOL    HW250613   7.649   0.174   9.752
82906SOL     OW50614   8.323   2.139  11.106
82906SOL    HW150615   8.290   2.090  11.032
82906SOL    HW250616   8.292   2.091  11.183
82907SOL     OW50617   8.136  10.300  12.668
82907SOL    HW150618   8.230  10.315  12.662
82907SOL    HW250619   8.125  10.241  12.743
82908SOL     OW50620   6.512   1.565   4.120
82908SOL    HW150621   6.477   1.655   4.128
82908SOL    HW250622   6.451   1.512   4.171
82909SOL     OW50623   9.693  11.811   4.789
82909SOL    HW150624   9.770  11.794   4.844
82909SOL    HW250625   9.659  11.895   4.821
82910SOL     OW50626   2.207   1.221   9.836
82910SOL    HW150627   2.227   1.310   9.865
82910SOL    HW250628   2.252   1.212   9.752
82911SOL     OW50629  11.620   0.914   0.710
82911SOL    HW150630  11.599   0.836   0.761
82911SOL    HW250631  11.610   0.886   0.619
82912SOL     OW50632   5.557   1.549   0.108
82912SOL    HW150633   5.531   1.459   0.128
82912SOL    HW250634   5.548   1.595   0.191
82913SOL     OW50635   4.594   2.988   2.234
82913SOL    HW150636   4.656   2.974   2.163
82913SOL    HW250637   4.625   2.932   2.305
82914SOL     OW50638  10.706   7.831  11.499
82914SOL    HW150639  10.625   7.791  11.469
82914SOL    HW250640  10.687   7.863  11.587
82915SOL     OW50641   6.066   7.384   5.626
82915SOL    HW150642   6.154   7.420   5.620
82915SOL    HW250643   6.035   7.409   5.713
82916SOL     OW50644   7.943   9.446   3.264
82916SOL    HW150645   7.998   9.517   3.297
82916SOL    HW250646   7.874   9.489   3.215
82917SOL     OW50647   5.873   7.260   3.968
82917SOL    HW150648   5.954   7.278   4.016
82917SOL    HW250649   5.822   7.205   4.027
82918SOL     OW50650  13.093   9.037   7.115
82918SOL    HW150651  13.174   8.995   7.144
82918SOL    HW250652  13.092   9.026   7.020
82919SOL     OW50653  11.648  14.385   2.536
82919SOL    HW150654  11.631  14.444   2.610
82919SOL    HW250655  11.660  14.443   2.461
82920SOL     OW50656   1.598   2.827   1.647
82920SOL    HW150657   1.624   2.909   1.690
82920SOL    HW250658   1.637   2.832   1.560
82921SOL     OW50659   5.500   7.953  12.486
82921SOL    HW150660   5.519   7.878  12.429
82921SOL    HW250661   5.550   8.025  12.448
82922SOL     OW50662   9.113  11.834  10.316
82922SOL    HW150663   9.178  11.822  10.386
82922SOL    HW250664   9.165  11.861  10.240
82923SOL     OW50665   5.567   2.604   1.309
82923SOL    HW150666   5.573   2.699   1.317
82923SOL    HW250667   5.570   2.572   1.400
82924SOL     OW50668   1.103   0.396   9.345
82924SOL    HW150669   1.176   0.393   9.407
82924SOL    HW250670   1.137   0.354   9.266
82925SOL     OW50671   2.689   4.085  10.506
82925SOL    HW150672   2.615   4.053  10.556
82925SOL    HW250673   2.722   4.159  10.557
82926SOL     OW50674  14.647   0.763  14.799
82926SOL    HW150675  14.716   0.699  14.819
82926SOL    HW250676  14.566   0.712  14.802
82927SOL     OW50677  10.981   5.748   4.550
82927SOL    HW150678  10.993   5.810   4.478
82927SOL    HW250679  10.949   5.801   4.623
82928SOL     OW50680   3.395  10.574   6.740
82928SOL    HW150681   3.479  10.595   6.699
82928SOL    HW250682   3.377  10.484   6.712
82929SOL     OW50683   1.048   9.131   2.250
82929SOL    HW150684   1.078   9.043   2.274
82929SOL    HW250685   1.077   9.142   2.160
82930SOL     OW50686  11.214   4.173  10.730
82930SOL    HW150687  11.222   4.115  10.806
82930SOL    HW250688  11.137   4.141  10.683
82931SOL     OW50689   8.974   1.610  12.157
82931SOL    HW150690   9.068   1.595  12.171
82931SOL    HW250691   8.932   1.559  12.226
82932SOL     OW50692   7.516   0.992  13.556
82932SOL    HW150693   7.548   1.054  13.622
82932SOL    HW250694   7.584   0.925  13.552
82933SOL     OW50695   9.591  12.488   1.556
82933SOL    HW150696   9.545  12.561   1.515
82933SOL    HW250697   9.593  12.420   1.488
82934SOL     OW50698   1.078   6.752   1.054
82934SOL    HW150699   1.142   6.697   1.100
82934SOL    HW250700   1.028   6.793   1.125
82935SOL     OW50701   6.870   8.131   4.919
82935SOL    HW150702   6.786   8.149   4.961
82935SOL    HW250703   6.876   8.035   4.917
82936SOL     OW50704   2.669   7.053   8.438
82936SOL    HW150705   2.636   7.076   8.524
82936SOL    HW250706   2.591   7.030   8.387
82937SOL     OW50707   6.178  14.383  11.551
82937SOL    HW150708   6.161  14.478  11.555
82937SOL    HW250709   6.093  14.344  11.535
82938SOL     OW50710  10.544   0.698   8.163
82938SOL    HW150711  10.575   0.659   8.081
82938SOL    HW250712  10.575   0.789   8.160
82939SOL     OW50713  12.259  11.924   7.210
82939SOL    HW150714  12.295  12.002   7.253
82939SOL    HW250715  12.335  11.880   7.172
82940SOL     OW50716   4.777  11.906   3.508
82940SOL    HW150717   4.772  11.861   3.424
82940SOL    HW250718   4.785  11.836   3.572
82941SOL     OW50719   5.035  14.844   6.903
82941SOL    HW150720   5.086  14.829   6.983
82941SOL    HW250721   5.076  14.788   6.838
82942SOL     OW50722  10.781   8.191   7.678
82942SOL    HW150723  10.809   8.186   7.587
82942SOL    HW250724  10.761   8.101   7.702
82943SOL     OW50725   8.092  13.162  12.928
82943SOL    HW150726   8.070  13.159  12.835
82943SOL    HW250727   8.073  13.073  12.960
82944SOL     OW50728  10.680  10.122  11.156
82944SOL    HW150729  10.675  10.131  11.061
82944SOL    HW250730  10.620  10.188  11.190
82945SOL     OW50731   2.867   6.683   3.556
82945SOL    HW150732   2.818   6.636   3.489
82945SOL    HW250733   2.822   6.767   3.565
82946SOL     OW50734  14.401  13.139   9.826
82946SOL    HW150735  14.479  13.106   9.870
82946SOL    HW250736  14.340  13.065   9.826
82947SOL     OW50737   3.033   2.218   8.759
82947SOL    HW150738   3.036   2.279   8.833
82947SOL    HW250739   2.980   2.145   8.790
82948SOL     OW50740  10.244  13.083   3.437
82948SOL    HW150741  10.330  13.125   3.442
82948SOL    HW250742  10.263  12.989   3.435
82949SOL     OW50743  12.712   0.547   1.000
82949SOL    HW150744  12.626   0.555   1.040
82949SOL    HW250745  12.772   0.536   1.074
82950SOL     OW50746   6.835   7.108   3.545
82950SOL    HW150747   6.830   7.016   3.517
82950SOL    HW250748   6.810   7.158   3.468
82951SOL     OW50749   6.257   4.898   5.566
82951SOL    HW150750   6.262   4.878   5.473
82951SOL    HW250751   6.221   4.819   5.607
82952SOL     OW50752   9.305   5.446   9.753
82952SOL    HW150753   9.321   5.524   9.807
82952SOL    HW250754   9.264   5.384   9.812
82953SOL     OW50755   6.766   3.703   2.200
82953SOL    HW150756   6.843   3.749   2.165
82953SOL    HW250757   6.800   3.652   2.273
82954SOL     OW50758  14.720  14.243  13.320
82954SOL    HW150759  14.763  14.165  13.285
82954SOL    HW250760  14.789  14.309  13.325
82955SOL     OW50761   5.055  13.451  10.877
82955SOL    HW150762   4.998  13.379  10.850
82955SOL    HW250763   5.017  13.528  10.835
82956SOL     OW50764  14.534   2.512  13.899
82956SOL    HW150765  14.587   2.475  13.971
82956SOL    HW250766  14.462   2.450  13.889
82957SOL     OW50767  13.973   7.932   1.683
82957SOL    HW150768  14.061   7.961   1.658
82957SOL    HW250769  13.942   7.998   1.745
82958SOL     OW50770   5.606   4.997   0.975
82958SOL    HW150771   5.552   4.984   0.897
82958SOL    HW250772   5.619   4.908   1.009
82959SOL     OW50773   2.745   5.788   5.030
82959SOL    HW150774   2.704   5.875   5.032
82959SOL    HW250775   2.837   5.806   5.013
82960SOL     OW50776  11.348   2.013   1.360
82960SOL    HW150777  11.384   2.100   1.345
82960SOL    HW250778  11.253   2.025   1.359
82961SOL     OW50779   1.276   0.736  13.496
82961SOL    HW150780   1.310   0.808  13.549
82961SOL    HW250781   1.331   0.661  13.518
82962SOL     OW50782  14.509   5.672   2.329
82962SOL    HW150783  14.485   5.696   2.419
82962SOL    HW250784  14.457   5.595   2.310
82963SOL     OW50785  11.833  11.857  10.339
82963SOL    HW150786  11.859  11.771  10.372
82963SOL    HW250787  11.855  11.918  10.409
82964SOL     OW50788   3.032   9.376  10.091
82964SOL    HW150789   3.023   9.330  10.007
82964SOL    HW250790   2.946   9.367  10.133
82965SOL     OW50791  10.442   8.728   1.022
82965SOL    HW150792  10.472   8.637   1.014
82965SOL    HW250793  10.351   8.721   1.049
82966SOL     OW50794   4.448   2.293  14.156
82966SOL    HW150795   4.467   2.311  14.248
82966SOL    HW250796   4.391   2.217  14.158
82967SOL     OW50797   5.448   9.892   5.497
82967SOL    HW150798   5.357   9.921   5.501
82967SOL    HW250799   5.469   9.891   5.404
82968SOL     OW50800  11.396   3.034   3.498
82968SOL    HW150801  11.318   2.980   3.502
82968SOL    HW250802  11.373   3.106   3.439
82969SOL     OW50803   3.705   6.142   6.610
82969SOL    HW150804   3.682   6.109   6.522
82969SOL    HW250805   3.766   6.213   6.593
82970SOL     OW50806   3.878   8.351   5.080
82970SOL    HW150807   3.887   8.336   5.174
82970SOL    HW250808   3.968   8.365   5.049
82971SOL     OW50809  13.904   6.708   1.313
82971SOL    HW150810  13.822   6.741   1.350
82971SOL    HW250811  13.876   6.655   1.238
82972SOL     OW50812  13.181   3.698   4.289
82972SOL    HW150813  13.263   3.665   4.327
82972SOL    HW250814  13.117   3.629   4.307
82973SOL     OW50815   3.246  12.953  14.485
82973SOL    HW150816   3.282  13.038  14.513
82973SOL    HW250817   3.321  12.895  14.482
82974SOL     OW50818   2.472   2.693   5.668
82974SOL    HW150819   2.556   2.692   5.713
82974SOL    HW250820   2.447   2.786   5.666
82975SOL     OW50821   0.592  14.434   0.693
82975SOL    HW150822   0.653  14.396   0.629
82975SOL    HW250823   0.535  14.362   0.717
82976SOL     OW50824   7.690   7.861   8.075
82976SOL    HW150825   7.782   7.882   8.057
82976SOL    HW250826   7.693   7.811   8.157
82977SOL     OW50827  13.604   9.118   3.931
82977SOL    HW150828  13.630   9.210   3.939
82977SOL    HW250829  13.573   9.109   3.841
82978SOL     OW50830   9.181   7.861  11.409
82978SOL    HW150831   9.097   7.855  11.364
82978SOL    HW250832   9.237   7.798  11.365
82979SOL     OW50833  12.692   3.294  10.887
82979SOL    HW150834  12.782   3.278  10.858
82979SOL    HW250835  12.656   3.354  10.821
82980SOL     OW50836   0.693   2.092  13.538
82980SOL    HW150837   0.761   2.118  13.476
82980SOL    HW250838   0.740   2.055  13.612
82981SOL     OW50839   2.705  13.710   8.117
82981SOL    HW150840   2.679  13.664   8.196
82981SOL    HW250841   2.738  13.642   8.059
82982SOL     OW50842   9.008   0.461  11.533
82982SOL    HW150843   8.919   0.495  11.529
82982SOL    HW250844   8.998   0.368  11.551
82983SOL     OW50845   1.259   1.762  10.891
82983SOL    HW150846   1.196   1.690  10.888
82983SOL    HW250847   1.206   1.841  10.883
82984SOL     OW50848  14.486   4.731   5.522
82984SOL    HW150849  14.398   4.695   5.521
82984SOL    HW250850  14.477   4.816   5.565
82985SOL     OW50851   0.073   0.812  12.772
82985SOL    HW150852   0.059   0.761  12.692
82985SOL    HW250853   0.161   0.850  12.761
82986SOL     OW50854   4.793   8.796  11.156
82986SOL    HW150855   4.735   8.746  11.214
82986SOL    HW250856   4.845   8.729  11.111
82987SOL     OW50857  13.881   2.611  11.966
82987SOL    HW150858  13.891   2.525  11.926
82987SOL    HW250859  13.815   2.655  11.911
82988SOL     OW50860  11.896   2.544   3.589
82988SOL    HW150861  11.942   2.624   3.615
82988SOL    HW250862  11.964   2.486   3.558
82989SOL     OW50863  11.805  11.474   1.470
82989SOL    HW150864  11.845  11.425   1.542
82989SOL    HW250865  11.770  11.406   1.411
82990SOL     OW50866   7.303  13.596   2.554
82990SOL    HW150867   7.271  13.517   2.597
82990SOL    HW250868   7.327  13.567   2.466
82991SOL     OW50869   5.533   0.588   9.173
82991SOL    HW150870   5.566   0.613   9.259
82991SOL    HW250871   5.574   0.650   9.113
82992SOL     OW50872   6.240   9.948   1.548
82992SOL    HW150873   6.225   9.909   1.461
82992SOL    HW250874   6.184   9.897   1.607
82993SOL     OW50875   5.737   0.204  14.655
82993SOL    HW150876   5.651   0.166  14.635
82993SOL    HW250877   5.777   0.142  14.717
82994SOL     OW50878  13.943   4.297   9.387
82994SOL    HW150879  14.032   4.306   9.423
82994SOL    HW250880  13.955   4.265   9.298
82995SOL     OW50881  13.306   4.172  10.864
82995SOL    HW150882  13.363   4.246  10.885
82995SOL    HW250883  13.293   4.178  10.769
82996SOL     OW50884   9.129   7.223   5.386
82996SOL    HW150885   9.109   7.309   5.350
82996SOL    HW250886   9.151   7.239   5.478
82997SOL     OW50887   4.236   0.417  12.469
82997SOL    HW150888   4.296   0.347  12.496
82997SOL    HW250889   4.282   0.498  12.492
82998SOL     OW50890   1.972   8.101   8.109
82998SOL    HW150891   1.923   8.088   8.028
82998SOL    HW250892   1.919   8.057   8.176
82999SOL     OW50893   6.615  10.088   4.300
82999SOL    HW150894   6.672  10.164   4.289
82999SOL    HW250895   6.593  10.061   4.211
83000SOL     OW50896  11.138   4.847  10.399
83000SOL    HW150897  11.101   4.777  10.345
83000SOL    HW250898  11.169   4.802  10.478
83001SOL     OW50899   8.537  13.513  10.278
83001SOL    HW150900   8.572  13.425  10.269
83001SOL    HW250901   8.494  13.530  10.193
83002SOL     OW50902   6.545  10.926  14.218
83002SOL    HW150903   6.466  10.872  14.219
83002SOL    HW250904   6.554  10.957  14.309
83003SOL     OW50905   4.227   9.444   3.900
83003SOL    HW150906   4.176   9.371   3.865
83003SOL    HW250907   4.166   9.489   3.959
83004SOL     OW50908  14.706   1.613  13.184
83004SOL    HW150909  14.635   1.641  13.125
83004SOL    HW250910  14.780   1.669  13.160
83005SOL     OW50911   7.056   6.128  13.675
83005SOL    HW150912   7.119   6.094  13.738
83005SOL    HW250913   7.098   6.206  13.638
83006SOL     OW50914   8.901   3.122  13.448
83006SOL    HW150915   8.984   3.101  13.406
83006SOL    HW250916   8.881   3.046  13.502
83007SOL     OW50917  11.646   6.620   2.888
83007SOL    HW150918  11.661   6.527   2.902
83007SOL    HW250919  11.600   6.649   2.967
83008SOL     OW50920   8.603  13.081   4.488
83008SOL    HW150921   8.657  13.008   4.518
83008SOL    HW250922   8.665  13.151   4.470
83009SOL     OW50923   1.113   5.148   0.107
83009SOL    HW150924   1.165   5.185   0.036
83009SOL    HW250925   1.155   5.180   0.187
83010SOL     OW50926  11.509  11.436  11.424
83010SOL    HW150927  11.471  11.512  11.380
83010SOL    HW250928  11.513  11.368  11.357
83011SOL     OW50929   1.888   9.120  12.919
83011SOL    HW150930   1.828   9.102  12.991
83011SOL    HW250931   1.876   9.214  12.901
83012SOL     OW50932  13.812  12.504  10.964
83012SOL    HW150933  13.748  12.484  11.031
83012SOL    HW250934  13.770  12.478  10.882
83013SOL     OW50935   6.178   2.090   3.983
83013SOL    HW150936   6.117   2.144   3.932
83013SOL    HW250937   6.234   2.153   4.028
83014SOL     OW50938   5.422  10.334   2.386
83014SOL    HW150939   5.337  10.290   2.390
83014SOL    HW250940   5.453  10.319   2.297
83015SOL     OW50941   3.381   1.449   1.024
83015SOL    HW150942   3.395   1.370   0.971
83015SOL    HW250943   3.327   1.419   1.097
83016SOL     OW50944   6.975   9.395  10.424
83016SOL    HW150945   7.015   9.351  10.498
83016SOL    HW250946   7.048   9.423  10.369
83017SOL     OW50947   8.951  14.462  11.555
83017SOL    HW150948   8.940  14.520  11.480
83017SOL    HW250949   8.960  14.375  11.517
83018SOL     OW50950  11.939  12.792   8.788
83018SOL    HW150951  11.929  12.717   8.846
83018SOL    HW250952  11.875  12.778   8.718
83019SOL     OW50953   1.496   1.674   7.072
83019SOL    HW150954   1.489   1.586   7.036
83019SOL    HW250955   1.588   1.682   7.098
83020SOL     OW50956  11.578   0.752   5.657
83020SOL    HW150957  11.500   0.718   5.612
83020SOL    HW250958  11.629   0.793   5.588
83021SOL     OW50959   4.440  10.647  11.562
83021SOL    HW150960   4.432  10.552  11.571
83021SOL    HW250961   4.530  10.661  11.534
83022SOL     OW50962  14.570   8.932   8.509
83022SOL    HW150963  14.610   8.910   8.424
83022SOL    HW250964  14.602   9.020   8.528
83023SOL     OW50965   2.082  10.186   4.069
83023SOL    HW150966   2.152  10.237   4.111
83023SOL    HW250967   2.040  10.140   4.142
83024SOL     OW50968   6.245   9.200  11.235
83024SOL    HW150969   6.165   9.247  11.212
83024SOL    HW250970   6.251   9.129  11.170
83025SOL     OW50971   4.235   2.776  11.010
83025SOL    HW150972   4.160   2.833  10.992
83025SOL    HW250973   4.209   2.727  11.088
83026SOL     OW50974   7.479  12.222   7.998
83026SOL    HW150975   7.513  12.305   7.965
83026SOL    HW250976   7.498  12.225   8.092
83027SOL     OW50977   8.984   5.113   7.144
83027SOL    HW150978   8.898   5.154   7.149
83027SOL    HW250979   8.992   5.086   7.053
83028SOL     OW50980   4.547   6.940   4.856
83028SOL    HW150981   4.478   6.875   4.870
83028SOL    HW250982   4.512   6.999   4.790
83029SOL     OW50983  13.359  11.648  12.791
83029SOL    HW150984  13.371  11.737  12.758
83029SOL    HW250985  13.417  11.642  12.867
83030SOL     OW50986  14.657   9.994   2.392
83030SOL    HW150987  14.689   9.993   2.482
83030SOL    HW250988  14.693   9.915   2.352
83031SOL     OW50989   8.422   5.787   3.050
83031SOL    HW150990   8.470   5.724   3.103
83031SOL    HW250991   8.378   5.843   3.114
83032SOL     OW50992  12.625  11.695   2.130
83032SOL    HW150993  12.638  11.618   2.075
83032SOL    HW250994  12.562  11.749   2.082
83033SOL     OW50995  10.137  13.659   4.423
83033SOL    HW150996  10.181  13.735   4.385
83033SOL    HW250997  10.100  13.692   4.505
83034SOL     OW50998  13.232   0.163   9.367
83034SOL    HW150999  13.234   0.069   9.353
83034SOL    HW251000  13.143   0.181   9.397
83035SOL     OW51001   8.602   1.621   4.754
83035SOL    HW151002   8.512   1.643   4.776
83035SOL    HW251003   8.603   1.525   4.749
83036SOL     OW51004  13.787  12.656   5.279
83036SOL    HW151005  13.865  12.687   5.234
83036SOL    HW251006  13.780  12.710   5.358
83037SOL     OW51007   1.114  10.707  10.333
83037SOL    HW151008   1.020  10.712  10.351
83037SOL    HW251009   1.145  10.797  10.345
83038SOL     OW51010   8.901  12.211   0.629
83038SOL    HW151011   8.861  12.138   0.582
83038SOL    HW251012   8.827  12.271   0.646
83039SOL     OW51013   3.654   6.077   9.347
83039SOL    HW151014   3.643   6.040   9.260
83039SOL    HW251015   3.742   6.116   9.346
83040SOL     OW51016   5.716   1.780   5.669
83040SOL    HW151017   5.629   1.810   5.642
83040SOL    HW251018   5.707   1.685   5.674
83041SOL     OW51019   1.663   4.578   6.193
83041SOL    HW151020   1.660   4.501   6.136
83041SOL    HW251021   1.735   4.630   6.159
83042SOL     OW51022  11.464   9.251   7.000
83042SOL    HW151023  11.404   9.232   7.072
83042SOL    HW251024  11.494   9.165   6.970
83043SOL     OW51025   6.171  12.408  13.277
83043SOL    HW151026   6.088  12.452  13.292
83043SOL    HW251027   6.184  12.413  13.182
83044SOL     OW51028   8.526   1.121   3.636
83044SOL    HW151029   8.577   1.040   3.643
83044SOL    HW251030   8.471   1.108   3.559
83045SOL     OW51031   7.551   9.093   5.777
83045SOL    HW151032   7.571   9.004   5.748
83045SOL    HW251033   7.559   9.147   5.698
83046SOL     OW51034   4.293  12.089   5.460
83046SOL    HW151035   4.242  12.046   5.528
83046SOL    HW251036   4.311  12.177   5.495
83047SOL     OW51037   8.272   9.955   9.057
83047SOL    HW151038   8.250   9.884   9.117
83047SOL    HW251039   8.363   9.977   9.079
83048SOL     OW51040   1.081   7.892   4.561
83048SOL    HW151041   1.037   7.881   4.645
83048SOL    HW251042   1.009   7.898   4.497
83049SOL     OW51043  10.479  14.041   5.419
83049SOL    HW151044  10.469  14.128   5.381
83049SOL    HW251045  10.521  13.990   5.350
83050SOL     OW51046   6.622   9.140   7.191
83050SOL    HW151047   6.717   9.142   7.187
83050SOL    HW251048   6.601   9.051   7.219
83051SOL     OW51049   2.730  14.667  10.203
83051SOL    HW151050   2.665  14.678  10.272
83051SOL    HW251051   2.787  14.597  10.234
83052SOL     OW51052   7.287   0.219   3.826
83052SOL    HW151053   7.278   0.126   3.844
83052SOL    HW251054   7.211   0.241   3.772
83053SOL     OW51055   5.888   4.444   7.344
83053SOL    HW151056   5.860   4.529   7.312
83053SOL    HW251057   5.809   4.404   7.381
83054SOL     OW51058   2.726   2.858   1.884
83054SOL    HW151059   2.758   2.949   1.881
83054SOL    HW251060   2.763   2.823   1.965
83055SOL     OW51061   4.098  12.938   0.836
83055SOL    HW151062   4.009  12.905   0.824
83055SOL    HW251063   4.152  12.886   0.777
83056SOL     OW51064  12.868   9.771  11.567
83056SOL    HW151065  12.868   9.742  11.476
83056SOL    HW251066  12.942   9.726  11.607
83057SOL     OW51067   8.827   8.893   6.484
83057SOL    HW151068   8.744   8.936   6.506
83057SOL    HW251069   8.893   8.941   6.535
83058SOL     OW51070   8.275  14.011   5.537
83058SOL    HW151071   8.237  14.059   5.610
83058SOL    HW251072   8.366  13.995   5.563
83059SOL     OW51073  13.374   2.601   4.970
83059SOL    HW151074  13.365   2.638   4.882
83059SOL    HW251075  13.285   2.583   4.998
83060SOL     OW51076   6.453   9.783   5.703
83060SOL    HW151077   6.529   9.749   5.749
83060SOL    HW251078   6.400   9.706   5.683
83061SOL     OW51079  12.884   2.659   6.302
83061SOL    HW151080  12.858   2.582   6.252
83061SOL    HW251081  12.801   2.700   6.327
83062SOL     OW51082   4.398  11.760  11.170
83062SOL    HW151083   4.368  11.709  11.246
83062SOL    HW251084   4.428  11.694  11.108
83063SOL     OW51085  12.748  11.622  11.987
83063SOL    HW151086  12.803  11.697  11.964
83063SOL    HW251087  12.659  11.652  11.969
83064SOL     OW51088   2.311  11.288   4.890
83064SOL    HW151089   2.247  11.357   4.905
83064SOL    HW251090   2.267  11.208   4.922
83065SOL     OW51091  13.587   4.032   4.749
83065SOL    HW151092  13.606   3.999   4.837
83065SOL    HW251093  13.576   4.126   4.762
83066SOL     OW51094   8.730   5.617   1.812
83066SOL    HW151095   8.811   5.606   1.862
83066SOL    HW251096   8.700   5.705   1.832
83067SOL     OW51097  13.606   4.332   6.667
83067SOL    HW151098  13.526   4.380   6.644
83067SOL    HW251099  13.663   4.399   6.707
83068SOL     OW51100   5.198   4.858  14.694
83068SOL    HW151101   5.209   4.792  14.626
83068SOL    HW251102   5.138   4.819  14.757
83069SOL     OW51103  14.800  12.934  13.341
83069SOL    HW151104   0.013  12.947  13.381
83069SOL    HW251105  14.820  12.922  13.248
83070SOL     OW51106  12.206   5.295   7.636
83070SOL    HW151107  12.259   5.374   7.631
83070SOL    HW251108  12.196   5.278   7.730
83071SOL     OW51109   0.523  11.446   6.001
83071SOL    HW151110   0.463  11.473   5.931
83071SOL    HW251111   0.466  11.407   6.067
83072SOL     OW51112   0.805  13.191   9.651
83072SOL    HW151113   0.845  13.131   9.588
83072SOL    HW251114   0.767  13.135   9.718
83073SOL     OW51115   7.390   3.480  11.784
83073SOL    HW151116   7.481   3.511  11.780
83073SOL    HW251117   7.394   3.400  11.836
83074SOL     OW51118   0.774  10.633  14.047
83074SOL    HW151119   0.789  10.561  13.987
83074SOL    HW251120   0.730  10.700  13.994
83075SOL     OW51121  11.495   7.670  14.692
83075SOL    HW151122  11.531   7.703  14.610
83075SOL    HW251123  11.518   7.577  14.693
83076SOL     OW51124  11.246  12.539   5.097
83076SOL    HW151125  11.185  12.484   5.048
83076SOL    HW251126  11.194  12.573   5.170
83077SOL     OW51127  13.082   3.617   2.104
83077SOL    HW151128  13.163   3.662   2.130
83077SOL    HW251129  13.035   3.682   2.051
83078SOL     OW51130   5.414  12.751  12.051
83078SOL    HW151131   5.366  12.723  12.129
83078SOL    HW251132   5.484  12.808  12.085
83079SOL     OW51133   0.573   1.212   0.540
83079SOL    HW151134   0.489   1.199   0.585
83079SOL    HW251135   0.547   1.233   0.450
83080SOL     OW51136   2.939  14.352  14.756
83080SOL    HW151137   2.987  14.336  14.675
83080SOL    HW251138   2.889  14.272  14.771
83081SOL     OW51139  12.539   1.548  12.855
83081SOL    HW151140  12.631   1.533  12.878
83081SOL    HW251141  12.539   1.560  12.760
83082SOL     OW51142   5.686   8.161   8.629
83082SOL    HW151143   5.643   8.101   8.690
83082SOL    HW251144   5.672   8.121   8.543
83083SOL     OW51145   2.153   9.730   1.996
83083SOL    HW151146   2.180   9.691   1.912
83083SOL    HW251147   2.057   9.729   1.993
83084SOL     OW51148   6.982  10.235   6.052
83084SOL    HW151149   6.939  10.214   6.135
83084SOL    HW251150   6.969  10.157   5.998
83085SOL     OW51151   2.316   1.829   4.490
83085SOL    HW151152   2.404   1.844   4.523
83085SOL    HW251153   2.292   1.910   4.446
83086SOL     OW51154  14.539   1.887  10.554
83086SOL    HW151155  14.625   1.848  10.566
83086SOL    HW251156  14.503   1.892  10.643
83087SOL     OW51157   8.191  14.599  11.836
83087SOL    HW151158   8.194  14.594  11.932
83087SOL    HW251159   8.275  14.638  11.812
83088SOL     OW51160   7.756  13.565   4.753
83088SOL    HW151161   7.734  13.657   4.747
83088SOL    HW251162   7.785  13.553   4.843
83089SOL     OW51163  12.447   4.593   5.510
83089SOL    HW151164  12.464   4.601   5.604
83089SOL    HW251165  12.526   4.551   5.475
83090SOL     OW51166  12.789  14.236   1.409
83090SOL    HW151167  12.850  14.254   1.337
83090SOL    HW251168  12.703  14.233   1.368
83091SOL     OW51169   6.362   0.158   8.090
83091SOL    HW151170   6.306   0.236   8.085
83091SOL    HW251171   6.382   0.149   8.183
83092SOL     OW51172   5.899   2.764  11.716
83092SOL    HW151173   5.807   2.785  11.699
83092SOL    HW251174   5.896   2.674  11.749
83093SOL     OW51175   4.636   7.627   2.680
83093SOL    HW151176   4.729   7.649   2.675
83093SOL    HW251177   4.594   7.706   2.714
83094SOL     OW51178  13.315   9.147  11.214
83094SOL    HW151179  13.237   9.152  11.269
83094SOL    HW251180  13.300   9.210  11.144
83095SOL     OW51181  14.468  10.681   0.397
83095SOL    HW151182  14.563  10.692   0.396
83095SOL    HW251183  14.433  10.767   0.373
83096SOL     OW51184   7.502  10.112  13.467
83096SOL    HW151185   7.556  10.043  13.429
83096SOL    HW251186   7.420  10.068  13.490
83097SOL     OW51187   9.343   6.341  13.870
83097SOL    HW151188   9.414   6.385  13.823
83097SOL    HW251189   9.361   6.358  13.962
83098SOL     OW51190   4.559   8.278   9.128
83098SOL    HW151191   4.626   8.218   9.162
83098SOL    HW251192   4.540   8.246   9.040
83099SOL     OW51193  12.991  12.828   5.996
83099SOL    HW151194  13.080  12.818   5.961
83099SOL    HW251195  12.941  12.863   5.922
83100SOL     OW51196   3.887   8.906   7.944
83100SOL    HW151197   3.944   8.936   7.874
83100SOL    HW251198   3.904   8.965   8.017
83101SOL     OW51199  13.776   1.193   8.548
83101SOL    HW151200  13.783   1.169   8.456
83101SOL    HW251201  13.711   1.132   8.583
83102SOL     OW51202   4.609   1.848   3.140
83102SOL    HW151203   4.555   1.819   3.214
83102SOL    HW251204   4.685   1.890   3.180
83103SOL     OW51205   2.775   8.483  11.050
83103SOL    HW151206   2.808   8.531  11.125
83103SOL    HW251207   2.779   8.391  11.076
83104SOL     OW51208   0.951  13.448  13.061
83104SOL    HW151209   0.927  13.355  13.070
83104SOL    HW251210   0.869  13.495  13.075
83105SOL     OW51211  13.225   5.747   4.825
83105SOL    HW151212  13.166   5.671   4.828
83105SOL    HW251213  13.290   5.724   4.757
83106SOL     OW51214  10.166   8.783   3.421
83106SOL    HW151215  10.104   8.712   3.405
83106SOL    HW251216  10.130   8.857   3.373
83107SOL     OW51217   2.593  13.367  13.137
83107SOL    HW151218   2.578  13.296  13.199
83107SOL    HW251219   2.640  13.325  13.065
83108SOL     OW51220  14.032  13.999  12.547
83108SOL    HW151221  14.030  14.090  12.514
83108SOL    HW251222  13.980  14.002  12.627
83109SOL     OW51223   1.299   7.182   6.153
83109SOL    HW151224   1.322   7.200   6.244
83109SOL    HW251225   1.333   7.257   6.105
83110SOL     OW51226  14.062  13.476   5.097
83110SOL    HW151227  14.097  13.497   5.183
83110SOL    HW251228  13.976  13.518   5.094
83111SOL     OW51229  12.376   3.117   2.105
83111SOL    HW151230  12.457   3.084   2.144
83111SOL    HW251231  12.405   3.169   2.030
83112SOL     OW51232  12.637   5.828   8.413
83112SOL    HW151233  12.591   5.745   8.405
83112SOL    HW251234  12.729   5.806   8.400
83113SOL     OW51235   1.393  12.175   7.183
83113SOL    HW151236   1.400  12.081   7.198
83113SOL    HW251237   1.344  12.183   7.101
83114SOL     OW51238   7.778  14.217   5.821
83114SOL    HW151239   7.804  14.154   5.753
83114SOL    HW251240   7.721  14.279   5.776
83115SOL     OW51241  10.241   5.130   4.142
83115SOL    HW151242  10.147   5.146   4.133
83115SOL    HW251243  10.269   5.107   4.053
83116SOL     OW51244  11.640   5.162  14.434
83116SOL    HW151245  11.734   5.157  14.416
83116SOL    HW251246  11.602   5.194  14.353
83117SOL     OW51247   6.065   1.214   1.447
83117SOL    HW151248   6.007   1.139   1.431
83117SOL    HW251249   6.007   1.282   1.480
83118SOL     OW51250   0.888  10.510  13.739
83118SOL    HW151251   0.842  10.459  13.672
83118SOL    HW251252   0.960  10.454  13.767
83119SOL     OW51253   7.830  11.429   2.520
83119SOL    HW151254   7.824  11.464   2.609
83119SOL    HW251255   7.811  11.336   2.530
83120SOL     OW51256   0.318  12.710   6.441
83120SOL    HW151257   0.403  12.713   6.397
83120SOL    HW251258   0.267  12.646   6.391
83121SOL     OW51259  14.745   2.633   6.315
83121SOL    HW151260  14.753   2.553   6.368
83121SOL    HW251261  14.817   2.689   6.344
83122SOL     OW51262  11.723  10.118   8.304
83122SOL    HW151263  11.733  10.107   8.399
83122SOL    HW251264  11.736  10.030   8.269
83123SOL     OW51265   8.415   3.417   0.836
83123SOL    HW151266   8.329   3.460   0.840
83123SOL    HW251267   8.397   3.325   0.856
83124SOL     OW51268  10.605  14.750  10.429
83124SOL    HW151269  10.621  14.669  10.477
83124SOL    HW251270  10.565  14.722  10.347
83125SOL     OW51271   7.743   8.769  13.532
83125SOL    HW151272   7.828   8.801  13.561
83125SOL    HW251273   7.734   8.683  13.573
83126SOL     OW51274   1.812   5.700   7.861
83126SOL    HW151275   1.743   5.743   7.910
83126SOL    HW251276   1.807   5.608   7.888
83127SOL     OW51277  14.220   3.920   6.881
83127SOL    HW151278  14.299   3.894   6.834
83127SOL    HW251279  14.198   4.006   6.847
83128SOL     OW51280  11.000   7.994  11.255
83128SOL    HW151281  10.964   7.992  11.166
83128SOL    HW251282  11.094   7.978  11.243
83129SOL     OW51283   4.847   7.831   8.860
83129SOL    HW151284   4.926   7.885   8.868
83129SOL    HW251285   4.802   7.843   8.944
83130SOL     OW51286   6.665  10.909  10.638
83130SOL    HW151287   6.673  11.001  10.662
83130SOL    HW251288   6.755  10.877  10.636
83131SOL     OW51289   9.717   3.593   3.159
83131SOL    HW151290   9.711   3.631   3.071
83131SOL    HW251291   9.807   3.612   3.187
83132SOL     OW51292   9.432  13.124  10.951
83132SOL    HW151293   9.354  13.104  10.899
83132SOL    HW251294   9.399  13.164  11.031
83133SOL     OW51295  10.052   6.254  12.390
83133SOL    HW151296   9.990   6.239  12.319
83133SOL    HW251297  10.082   6.344  12.378
83134SOL     OW51298   4.783   7.680   3.309
83134SOL    HW151299   4.777   7.640   3.396
83134SOL    HW251300   4.777   7.607   3.248
83135SOL     OW51301   0.948  14.449   3.340
83135SOL    HW151302   0.942  14.545   3.335
83135SOL    HW251303   0.861  14.418   3.315
83136SOL     OW51304   6.986  10.683   8.344
83136SOL    HW151305   6.987  10.683   8.439
83136SOL    HW251306   7.078  10.685   8.318
83137SOL     OW51307  13.560   3.409   0.188
83137SOL    HW151308  13.527   3.497   0.204
83137SOL    HW251309  13.605   3.385   0.270
83138SOL     OW51310  13.221  12.009   6.859
83138SOL    HW151311  13.221  12.102   6.836
83138SOL    HW251312  13.137  11.995   6.903
83139SOL     OW51313   8.917   0.308   2.453
83139SOL    HW151314   8.944   0.355   2.374
83139SOL    HW251315   8.897   0.377   2.517
83140SOL     OW51316   2.122   6.910   3.762
83140SOL    HW151317   2.084   6.990   3.726
83140SOL    HW251318   2.123   6.925   3.857
83141SOL     OW51319   0.703   9.115  10.865
83141SOL    HW151320   0.751   9.079  10.790
83141SOL    HW251321   0.641   9.046  10.889
83142SOL     OW51322   1.341   3.937   3.962
83142SOL    HW151323   1.408   3.893   4.014
83142SOL    HW251324   1.371   3.927   3.872
83143SOL     OW51325  13.249   5.459   0.189
83143SOL    HW151326  13.174   5.416   0.149
83143SOL    HW251327  13.218   5.485   0.276
83144SOL     OW51328   3.607   6.494  11.166
83144SOL    HW151329   3.527   6.447  11.189
83144SOL    HW251330   3.648   6.440  11.098
83145SOL     OW51331   4.326   2.279   0.401
83145SOL    HW151332   4.331   2.372   0.381
83145SOL    HW251333   4.319   2.276   0.497
83146SOL     OW51334  11.489  12.395   0.720
83146SOL    HW151335  11.572  12.443   0.719
83146SOL    HW251336  11.423  12.462   0.708
83147SOL     OW51337  14.080  14.649   9.529
83147SOL    HW151338  14.036  14.634   9.613
83147SOL    HW251339  14.036  14.726   9.492
83148SOL     OW51340  11.157   6.843   1.547
83148SOL    HW151341  11.240   6.857   1.595
83148SOL    HW251342  11.140   6.749   1.557
83149SOL     OW51343   2.095  14.380   1.416
83149SOL    HW151344   2.162  14.365   1.349
83149SOL    HW251345   2.107  14.308   1.478
83150SOL     OW51346  14.202   8.268   5.394
83150SOL    HW151347  14.138   8.276   5.465
83150SOL    HW251348  14.160   8.310   5.319
83151SOL     OW51349   1.149   9.064   9.616
83151SOL    HW151350   1.202   9.140   9.642
83151SOL    HW251351   1.200   9.023   9.546
83152SOL     OW51352  10.146   9.866   4.310
83152SOL    HW151353  10.067   9.832   4.351
83152SOL    HW251354  10.116   9.943   4.262
83153SOL     OW51355   5.764   2.165   6.477
83153SOL    HW151356   5.695   2.102   6.456
83153SOL    HW251357   5.838   2.111   6.503
83154SOL     OW51358   9.029   6.768   5.769
83154SOL    HW151359   9.013   6.727   5.684
83154SOL    HW251360   9.112   6.814   5.759
83155SOL     OW51361   5.236   0.689   1.661
83155SOL    HW151362   5.182   0.712   1.737
83155SOL    HW251363   5.267   0.600   1.679
83156SOL     OW51364  11.000   4.643   2.705
83156SOL    HW151365  11.034   4.716   2.654
83156SOL    HW251366  11.019   4.666   2.796
83157SOL     OW51367  14.364  10.378   9.930
83157SOL    HW151368  14.414  10.318   9.985
83157SOL    HW251369  14.352  10.332   9.848
83158SOL     OW51370   0.821  14.464   5.534
83158SOL    HW151371   0.778  14.519   5.599
83158SOL    HW251372   0.900  14.432   5.577
83159SOL     OW51373   6.915  13.046  10.034
83159SOL    HW151374   6.992  12.990  10.034
83159SOL    HW251375   6.919  13.091  10.119
83160SOL     OW51376   7.909   8.834  11.437
83160SOL    HW151377   7.948   8.749  11.456
83160SOL    HW251378   7.981   8.886  11.401
83161SOL     OW51379   7.178  14.448   2.245
83161SOL    HW151380   7.170  14.363   2.287
83161SOL    HW251381   7.182  14.429   2.152
83162SOL     OW51382  14.278   3.719  12.258
83162SOL    HW151383  14.257   3.627  12.241
83162SOL    HW251384  14.335   3.718  12.334
83163SOL     OW51385   8.953   3.923   3.450
83163SOL    HW151386   8.930   3.844   3.499
83163SOL    HW251387   8.976   3.987   3.516
83164SOL     OW51388   9.975   0.241   6.659
83164SOL    HW151389   9.926   0.238   6.741
83164SOL    HW251390   9.977   0.334   6.636
83165SOL     OW51391   4.807   8.217  13.786
83165SOL    HW151392   4.819   8.135  13.835
83165SOL    HW251393   4.713   8.223  13.773
83166SOL     OW51394   1.039   1.892   7.844
83166SOL    HW151395   1.015   1.809   7.885
83166SOL    HW251396   1.094   1.935   7.909
83167SOL     OW51397   0.692   1.434  12.719
83167SOL    HW151398   0.710   1.460  12.629
83167SOL    HW251399   0.775   1.398  12.751
83168SOL     OW51400   3.574   4.865   0.883
83168SOL    HW151401   3.511   4.937   0.877
83168SOL    HW251402   3.537   4.797   0.827
83169SOL     OW51403  11.885   4.183   2.257
83169SOL    HW151404  11.878   4.190   2.162
83169SOL    HW251405  11.865   4.271   2.290
83170SOL     OW51406  12.662   8.825   7.344
83170SOL    HW151407  12.617   8.906   7.367
83170SOL    HW251408  12.639   8.764   7.414
83171SOL     OW51409   5.264   6.245   8.889
83171SOL    HW151410   5.232   6.238   8.799
83171SOL    HW251411   5.271   6.339   8.906
83172SOL     OW51412   3.156   6.933   0.998
83172SOL    HW151413   3.150   6.952   1.091
83172SOL    HW251414   3.089   6.988   0.957
83173SOL     OW51415  14.810  10.872   7.485
83173SOL    HW151416  14.749  10.827   7.543
83173SOL    HW251417  14.788  10.841   7.397
83174SOL     OW51418   1.702   0.534   1.436
83174SOL    HW151419   1.652   0.456   1.410
83174SOL    HW251420   1.756   0.504   1.509
83175SOL     OW51421   2.289   2.201  10.356
83175SOL    HW151422   2.267   2.294  10.360
83175SOL    HW251423   2.305   2.176  10.447
83176SOL     OW51424  10.176   7.503  13.459
83176SOL    HW151425  10.184   7.476  13.368
83176SOL    HW251426  10.255   7.553  13.477
83177SOL     OW51427   8.248  12.125  14.190
83177SOL    HW151428   8.174  12.133  14.131
83177SOL    HW251429   8.236  12.039  14.232
83178SOL     OW51430  13.483   7.995  14.242
83178SOL    HW151431  13.408   8.053  14.231
83178SOL    HW251432  13.452   7.926  14.300
83179SOL     OW51433   2.841  10.614   7.183
83179SOL    HW151434   2.770  10.550   7.180
83179SOL    HW251435   2.877  10.606   7.272
83180SOL     OW51436   1.095   9.287  10.998
83180SOL    HW151437   1.039   9.338  10.940
83180SOL    HW251438   1.174   9.340  11.008
83181SOL     OW51439   7.363   7.017  11.643
83181SOL    HW151440   7.343   7.102  11.682
83181SOL    HW251441   7.371   7.034  11.549
83182SOL     OW51442  13.131   4.948   3.280
83182SOL    HW151443  13.195   4.931   3.211
83182SOL    HW251444  13.046   4.933   3.238
83183SOL     OW51445   5.614   2.296   7.797
83183SOL    HW151446   5.633   2.350   7.873
83183SOL    HW251447   5.544   2.238   7.826
83184SOL     OW51448   7.046  11.537  10.242
83184SOL    HW151449   7.135  11.503  10.238
83184SOL    HW251450   7.014  11.511  10.328
83185SOL     OW51451  12.744   7.784   2.566
83185SOL    HW151452  12.811   7.819   2.625
83185SOL    HW251453  12.760   7.690   2.566
83186SOL     OW51454   7.377   5.403   1.577
83186SOL    HW151455   7.394   5.312   1.551
83186SOL    HW251456   7.389   5.453   1.496
83187SOL     OW51457   6.687   5.474   7.125
83187SOL    HW151458   6.650   5.514   7.204
83187SOL    HW251459   6.774   5.513   7.117
83188SOL     OW51460   8.322  14.287   5.597
83188SOL    HW151461   8.255  14.325   5.653
83188SOL    HW251462   8.386  14.249   5.659
83189SOL     OW51463   2.903   2.252  10.904
83189SOL    HW151464   2.860   2.169  10.885
83189SOL    HW251465   2.981   2.252  10.848
83190SOL     OW51466   6.616   5.485  11.998
83190SOL    HW151467   6.544   5.547  11.980
83190SOL    HW251468   6.656   5.470  11.912
83191SOL     OW51469  12.952  14.249   9.246
83191SOL    HW151470  12.945  14.291   9.332
83191SOL    HW251471  12.980  14.319   9.187
83192SOL     OW51472  11.865  10.523  11.622
83192SOL    HW151473  11.863  10.615  11.594
83192SOL    HW251474  11.851  10.473  11.541
83193SOL     OW51475  11.588   4.543  13.453
83193SOL    HW151476  11.682   4.551  13.466
83193SOL    HW251477  11.551   4.622  13.491
83194SOL     OW51478  13.189  13.678   8.494
83194SOL    HW151479  13.213  13.673   8.586
83194SOL    HW251480  13.160  13.589   8.473
83195SOL     OW51481  12.602  14.588   8.022
83195SOL    HW151482  12.526  14.624   7.976
83195SOL    HW251483  12.653  14.665   8.047
83196SOL     OW51484  12.294  11.815  14.465
83196SOL    HW151485  12.384  11.848  14.460
83196SOL    HW251486  12.301  11.734  14.516
83197SOL     OW51487  12.617  14.171   2.633
83197SOL    HW151488  12.572  14.097   2.591
83197SOL    HW251489  12.616  14.240   2.566
83198SOL     OW51490   2.517   5.232  12.207
83198SOL    HW151491   2.514   5.288  12.284
83198SOL    HW251492   2.464   5.279  12.142
83199SOL     OW51493   8.943  14.193  11.562
83199SOL    HW151494   8.906  14.155  11.482
83199SOL    HW251495   8.906  14.141  11.632
83200SOL     OW51496  10.042   9.876   5.875
83200SOL    HW151497  10.067   9.827   5.797
83200SOL    HW251498  10.039   9.967   5.846
83201SOL     OW51499  10.867   1.216  13.457
83201SOL    HW151500  10.948   1.211  13.508
83201SOL    HW251501  10.821   1.292  13.492
83202SOL     OW51502  13.463   6.966   6.866
83202SOL    HW151503  13.496   6.930   6.784
83202SOL    HW251504  13.419   7.047   6.841
83203SOL     OW51505  11.074   9.655   6.348
83203SOL    HW151506  11.034   9.732   6.307
83203SOL    HW251507  11.007   9.587   6.342
83204SOL     OW51508   1.855  12.252  11.298
83204SOL    HW151509   1.851  12.347  11.314
83204SOL    HW251510   1.844  12.243  11.203
83205SOL     OW51511   9.189   6.325  12.290
83205SOL    HW151512   9.133   6.387  12.243
83205SOL    HW251513   9.129   6.265  12.333
83206SOL     OW51514   5.645   5.111   0.078
83206SOL    HW151515   5.722   5.153   0.117
83206SOL    HW251516   5.571   5.153   0.122
83207SOL     OW51517  14.170  10.582   5.699
83207SOL    HW151518  14.198  10.673   5.700
83207SOL    HW251519  14.124  10.570   5.782
83208SOL     OW51520   9.667  12.584  10.215
83208SOL    HW151521   9.692  12.551  10.301
83208SOL    HW251522   9.572  12.587  10.217
83209SOL     OW51523   2.052   0.738  11.101
83209SOL    HW151524   2.100   0.696  11.030
83209SOL    HW251525   1.999   0.805  11.059
83210SOL     OW51526   1.751  11.739  12.860
83210SOL    HW151527   1.708  11.654  12.868
83210SOL    HW251528   1.844  11.718  12.856
83211SOL     OW51529   1.110  13.131   7.406
83211SOL    HW151530   1.184  13.183   7.377
83211SOL    HW251531   1.094  13.160   7.496
83212SOL     OW51532  13.558  10.458  12.588
83212SOL    HW151533  13.567  10.393  12.520
83212SOL    HW251534  13.540  10.408  12.668
83213SOL     OW51535   0.201   5.176  11.051
83213SOL    HW151536   0.194   5.263  11.090
83213SOL    HW251537   0.128   5.172  10.989
83214SOL     OW51538   1.074  11.240   2.705
83214SOL    HW151539   1.124  11.308   2.751
83214SOL    HW251540   0.986  11.276   2.697
83215SOL     OW51541   8.279   7.563   5.465
83215SOL    HW151542   8.259   7.470   5.461
83215SOL    HW251543   8.233   7.594   5.543
83216SOL     OW51544   1.749  11.459   0.794
83216SOL    HW151545   1.719  11.465   0.703
83216SOL    HW251546   1.844  11.453   0.788
83217SOL     OW51547   3.047  11.667  12.725
83217SOL    HW151548   2.968  11.666  12.671
83217SOL    HW251549   3.115  11.632  12.667
83218SOL     OW51550  11.333   8.493  10.759
83218SOL    HW151551  11.274   8.421  10.739
83218SOL    HW251552  11.311   8.519  10.848
83219SOL     OW51553   2.507   3.594  12.391
83219SOL    HW151554   2.481   3.591  12.298
83219SOL    HW251555   2.601   3.577  12.389
83220SOL     OW51556   1.446  13.705  10.642
83220SOL    HW151557   1.486  13.684  10.558
83220SOL    HW251558   1.509  13.675  10.707
83221SOL     OW51559  12.047  14.150   1.780
83221SOL    HW151560  11.997  14.150   1.862
83221SOL    HW251561  12.105  14.074   1.787
83222SOL     OW51562   5.252   7.705   7.069
83222SOL    HW151563   5.228   7.756   7.147
83222SOL    HW251564   5.256   7.615   7.100
83223SOL     OW51565   2.544   6.296   3.447
83223SOL    HW151566   2.530   6.360   3.517
83223SOL    HW251567   2.617   6.243   3.478
83224SOL     OW51568  14.825   0.960   2.569
83224SOL    HW151569  14.759   0.949   2.637
83224SOL    HW251570   0.017   0.891   2.587
83225SOL     OW51571  13.305  12.554   0.311
83225SOL    HW151572  13.304  12.484   0.246
83225SOL    HW251573  13.239  12.616   0.281
83226SOL     OW51574   6.530  11.073   6.880
83226SOL    HW151575   6.498  10.983   6.888
83226SOL    HW251576   6.610  11.065   6.828
83227SOL     OW51577   3.429   7.452   9.117
83227SOL    HW151578   3.355   7.448   9.176
83227SOL    HW251579   3.506   7.445   9.174
83228SOL     OW51580  13.242   5.312   1.202
83228SOL    HW151581  13.151   5.297   1.176
83228SOL    HW251582  13.266   5.233   1.250
83229SOL     OW51583   5.002   9.951   5.457
83229SOL    HW151584   5.039   9.866   5.432
83229SOL    HW251585   5.017  10.007   5.382
83230SOL     OW51586   6.532  14.672   5.246
83230SOL    HW151587   6.550  14.629   5.330
83230SOL    HW251588   6.549  14.604   5.181
83231SOL     OW51589   7.709  13.232   7.668
83231SOL    HW151590   7.667  13.251   7.752
83231SOL    HW251591   7.777  13.168   7.688
83232SOL     OW51592   3.506   1.207   7.545
83232SOL    HW151593   3.509   1.302   7.556
83232SOL    HW251594   3.493   1.193   7.451
83233SOL     OW51595  11.756   7.272  13.634
83233SOL    HW151596  11.781   7.192  13.589
83233SOL    HW251597  11.667   7.289  13.606
83234SOL     OW51598   3.088   7.765   6.809
83234SOL    HW151599   3.148   7.819   6.861
83234SOL    HW251600   3.030   7.828   6.767
83235SOL     OW51601  13.818   5.801   1.677
83235SOL    HW151602  13.837   5.710   1.658
83235SOL    HW251603  13.844   5.848   1.597
83236SOL     OW51604   4.729  13.045   3.705
83236SOL    HW151605   4.690  13.071   3.621
83236SOL    HW251606   4.691  13.104   3.769
83237SOL     OW51607  12.276   3.101   6.204
83237SOL    HW151608  12.189   3.087   6.241
83237SOL    HW251609  12.336   3.069   6.271
83238SOL     OW51610  13.482   2.496   7.426
83238SOL    HW151611  13.405   2.473   7.373
83238SOL    HW251612  13.504   2.414   7.471
83239SOL     OW51613   5.208   9.742   0.035
83239SOL    HW151614   5.191   9.832   0.063
83239SOL    HW251615   5.236   9.750  14.816
83240SOL     OW51616  13.572  12.315   7.313
83240SOL    HW151617  13.589  12.236   7.365
83240SOL    HW251618  13.481  12.306   7.285
83241SOL     OW51619   1.119  13.128   2.699
83241SOL    HW151620   1.111  13.073   2.778
83241SOL    HW251621   1.035  13.172   2.692
83242SOL     OW51622   7.112  14.600  11.217
83242SOL    HW151623   7.190  14.603  11.273
83242SOL    HW251624   7.073  14.515  11.236
83243SOL     OW51625   8.698  11.131   9.973
83243SOL    HW151626   8.776  11.127  10.029
83243SOL    HW251627   8.671  11.222   9.977
83244SOL     OW51628  10.439  10.607   4.751
83244SOL    HW151629  10.516  10.663   4.742
83244SOL    HW251630  10.462  10.544   4.819
83245SOL     OW51631   1.101  10.825   1.328
83245SOL    HW151632   1.116  10.807   1.421
83245SOL    HW251633   1.146  10.908   1.312
83246SOL     OW51634   9.699   4.137  14.409
83246SOL    HW151635   9.719   4.201  14.478
83246SOL    HW251636   9.656   4.188  14.341
83247SOL     OW51637   2.669  13.431   9.757
83247SOL    HW151638   2.762  13.453   9.751
83247SOL    HW251639   2.627  13.482   9.687
83248SOL     OW51640   2.109   2.489  11.067
83248SOL    HW151641   2.052   2.459  11.138
83248SOL    HW251642   2.158   2.411  11.041
83249SOL     OW51643   9.384   2.584   0.537
83249SOL    HW151644   9.417   2.673   0.552
83249SOL    HW251645   9.308   2.577   0.594
83250SOL     OW51646   9.281   9.594   4.758
83250SOL    HW151647   9.197   9.640   4.757
83250SOL    HW251648   9.295   9.567   4.667
83251SOL     OW51649   4.120   1.605   5.433
83251SOL    HW151650   4.147   1.642   5.349
83251SOL    HW251651   4.058   1.536   5.410
83252SOL     OW51652  14.045   8.289   4.751
83252SOL    HW151653  14.097   8.290   4.670
83252SOL    HW251654  14.099   8.336   4.814
83253SOL     OW51655   6.226   7.012   3.988
83253SOL    HW151656   6.279   6.954   3.933
83253SOL    HW251657   6.227   7.096   3.941
83254SOL     OW51658  11.676   7.411   8.477
83254SOL    HW151659  11.658   7.332   8.529
83254SOL    HW251660  11.721   7.379   8.399
83255SOL     OW51661   6.468   6.213   8.308
83255SOL    HW151662   6.403   6.281   8.329
83255SOL    HW251663   6.434   6.170   8.230
83256SOL     OW51664   5.432  10.185  11.397
83256SOL    HW151665   5.452  10.275  11.370
83256SOL    HW251666   5.382  10.149  11.324
83257SOL     OW51667   3.308  13.352   3.575
83257SOL    HW151668   3.354  13.281   3.619
83257SOL    HW251669   3.315  13.331   3.482
83258SOL     OW51670   8.665  12.869   0.636
83258SOL    HW151671   8.719  12.843   0.561
83258SOL    HW251672   8.722  12.928   0.686
83259SOL     OW51673  11.275   6.243   5.912
83259SOL    HW151674  11.337   6.315   5.900
83259SOL    HW251675  11.194   6.274   5.872
83260SOL     OW51676  13.160   2.487   2.583
83260SOL    HW151677  13.224   2.435   2.534
83260SOL    HW251678  13.207   2.514   2.662
83261SOL     OW51679   6.897   6.702   2.091
83261SOL    HW151680   6.815   6.728   2.133
83261SOL    HW251681   6.951   6.782   2.093
83262SOL     OW51682   7.850  12.369   2.465
83262SOL    HW151683   7.849  12.303   2.396
83262SOL    HW251684   7.770  12.353   2.515
83263SOL     OW51685   2.417   9.847   9.187
83263SOL    HW151686   2.340   9.790   9.190
83263SOL    HW251687   2.403   9.902   9.110
83264SOL     OW51688   5.036   7.134   0.134
83264SOL    HW151689   5.126   7.146   0.164
83264SOL    HW251690   4.998   7.221   0.137
83265SOL     OW51691   8.199  13.331   2.772
83265SOL    HW151692   8.238  13.419   2.771
83265SOL    HW251693   8.143  13.329   2.694
83266SOL     OW51694   0.299   1.670  10.049
83266SOL    HW151695   0.275   1.616   9.973
83266SOL    HW251696   0.335   1.750  10.011
83267SOL     OW51697   8.135   9.502   0.721
83267SOL    HW151698   8.108   9.583   0.763
83267SOL    HW251699   8.115   9.515   0.628
83268SOL     OW51700   4.507  14.222   3.078
83268SOL    HW151701   4.417  14.189   3.089
83268SOL    HW251702   4.501  14.315   3.102
83269SOL     OW51703   5.087   3.909   1.826
83269SOL    HW151704   5.182   3.905   1.841
83269SOL    HW251705   5.068   3.829   1.776
83270SOL     OW51706   4.017   6.761   7.728
83270SOL    HW151707   4.080   6.833   7.731
83270SOL    HW251708   4.065   6.686   7.763
83271SOL     OW51709   3.364  10.308  13.471
83271SOL    HW151710   3.459  10.317  13.479
83271SOL    HW251711   3.329  10.394  13.498
83272SOL     OW51712   0.703   4.011  14.410
83272SOL    HW151713   0.708   3.916  14.417
83272SOL    HW251714   0.789   4.042  14.437
83273SOL     OW51715   9.685  11.800   9.116
83273SOL    HW151716   9.722  11.713   9.131
83273SOL    HW251717   9.608  11.804   9.174
83274SOL     OW51718   8.943   7.385  11.140
83274SOL    HW151719   8.916   7.473  11.168
83274SOL    HW251720   9.023   7.368  11.190
83275SOL     OW51721  14.313  12.735   7.535
83275SOL    HW151722  14.355  12.656   7.500
83275SOL    HW251723  14.242  12.702   7.590
83276SOL     OW51724  13.127  11.673  13.003
83276SOL    HW151725  13.187  11.620  13.057
83276SOL    HW251726  13.128  11.631  12.917
83277SOL     OW51727  14.235   2.035  11.996
83277SOL    HW151728  14.324   2.069  12.009
83277SOL    HW251729  14.178   2.098  12.040
83278SOL     OW51730   5.431   0.625   8.528
83278SOL    HW151731   5.454   0.686   8.458
83278SOL    HW251732   5.430   0.539   8.486
83279SOL     OW51733  14.728  13.859   2.490
83279SOL    HW151734  14.810  13.856   2.441
83279SOL    HW251735  14.753  13.840   2.581
83280SOL     OW51736  11.879  14.628  11.660
83280SOL    HW151737  11.927  14.620  11.743
83280SOL    HW251738  11.792  14.657  11.685
83281SOL     OW51739   8.032   1.646   0.330
83281SOL    HW151740   8.016   1.604   0.246
83281SOL    HW251741   7.950   1.690   0.351
83282SOL     OW51742  10.524   5.789  11.245
83282SOL    HW151743  10.616   5.780  11.220
83282SOL    HW251744  10.493   5.699  11.253
83283SOL     OW51745  14.181   0.731   5.323
83283SOL    HW151746  14.121   0.805   5.323
83283SOL    HW251747  14.126   0.656   5.298
83284SOL     OW51748   1.949   3.975   8.952
83284SOL    HW151749   1.929   4.037   9.022
83284SOL    HW251750   2.044   3.971   8.949
83285SOL     OW51751   8.178  11.395   1.481
83285SOL    HW151752   8.114  11.451   1.526
83285SOL    HW251753   8.204  11.331   1.547
83286SOL     OW51754  13.968   7.694  11.452
83286SOL    HW151755  13.944   7.750  11.526
83286SOL    HW251756  14.045   7.737  11.413
83287SOL     OW51757   4.170  12.533   5.466
83287SOL    HW151758   4.203  12.623   5.464
83287SOL    HW251759   4.087  12.537   5.418
83288SOL     OW51760   8.531  10.982  14.176
83288SOL    HW151761   8.588  11.046  14.220
83288SOL    HW251762   8.540  10.902  14.228
83289SOL     OW51763   0.022  10.847   1.085
83289SOL    HW151764  14.849  10.848   1.170
83289SOL    HW251765   0.019  10.939   1.057
83290SOL     OW51766  10.769   7.402   0.116
83290SOL    HW151767  10.782   7.485   0.070
83290SOL    HW251768  10.821   7.410   0.195
83291SOL     OW51769   3.392   0.175  12.972
83291SOL    HW151770   3.483   0.161  13.000
83291SOL    HW251771   3.359   0.087  12.954
83292SOL     OW51772   9.241  11.167   1.819
83292SOL    HW151773   9.230  11.112   1.741
83292SOL    HW251774   9.335  11.185   1.823
83293SOL     OW51775  13.516  11.789   3.303
83293SOL    HW151776  13.582  11.810   3.237
83293SOL    HW251777  13.441  11.845   3.281
83294SOL     OW51778   2.674  14.759   7.793
83294SOL    HW151779   2.720  14.774   7.711
83294SOL    HW251780   2.668  14.846   7.833
83295SOL     OW51781   7.557   3.026   4.709
83295SOL    HW151782   7.464   3.044   4.722
83295SOL    HW251783   7.596   3.113   4.699
83296SOL     OW51784   7.656  12.210   6.169
83296SOL    HW151785   7.612  12.129   6.195
83296SOL    HW251786   7.749  12.187   6.171
83297SOL     OW51787   6.111   1.945   5.776
83297SOL    HW151788   6.206   1.957   5.770
83297SOL    HW251789   6.084   2.005   5.846
83298SOL     OW51790   1.749  10.989   4.359
83298SOL    HW151791   1.841  10.997   4.386
83298SOL    HW251792   1.702  10.972   4.441
83299SOL     OW51793   3.528   2.250  13.799
83299SOL    HW151794   3.605   2.262  13.743
83299SOL    HW251795   3.559   2.192  13.868
83300SOL     OW51796   7.377   1.844  13.284
83300SOL    HW151797   7.285   1.819  13.294
83300SOL    HW251798   7.405   1.868  13.372
83301SOL     OW51799   5.962   5.172   7.271
83301SOL    HW151800   5.908   5.150   7.195
83301SOL    HW251801   5.904   5.165   7.346
83302SOL     OW51802  14.855   3.706  12.717
83302SOL    HW151803  14.838   3.741  12.629
83302SOL    HW251804   0.012   3.781  12.768
83303SOL     OW51805  14.545   6.036  11.774
83303SOL    HW151806  14.557   6.081  11.690
83303SOL    HW251807  14.498   6.098  11.829
83304SOL     OW51808   5.855   4.532   9.077
83304SOL    HW151809   5.775   4.585   9.074
83304SOL    HW251810   5.857   4.497   9.166
83305SOL     OW51811   3.491   5.936   6.165
83305SOL    HW151812   3.415   5.897   6.122
83305SOL    HW251813   3.493   6.026   6.132
83306SOL     OW51814   3.443   4.770   3.832
83306SOL    HW151815   3.356   4.756   3.870
83306SOL    HW251816   3.485   4.685   3.835
83307SOL     OW51817   5.431   5.885   6.538
83307SOL    HW151818   5.421   5.801   6.492
83307SOL    HW251819   5.346   5.899   6.579
83308SOL     OW51820   1.673   7.179   6.084
83308SOL    HW151821   1.607   7.115   6.057
83308SOL    HW251822   1.629   7.234   6.149
83309SOL     OW51823  12.987   5.953  10.369
83309SOL    HW151824  13.006   5.888  10.437
83309SOL    HW251825  12.900   5.929  10.337
83310SOL     OW51826   6.835  12.208   0.518
83310SOL    HW151827   6.822  12.253   0.601
83310SOL    HW251828   6.746  12.182   0.492
83311SOL     OW51829   0.887   2.164  12.061
83311SOL    HW151830   0.973   2.170  12.021
83311SOL    HW251831   0.853   2.078  12.033
83312SOL     OW51832   2.212   0.979   5.270
83312SOL    HW151833   2.201   0.901   5.214
83312SOL    HW251834   2.208   1.052   5.209
83313SOL     OW51835   1.444   4.675   5.732
83313SOL    HW151836   1.518   4.616   5.747
83313SOL    HW251837   1.398   4.638   5.657
83314SOL     OW51838  14.399  12.430   9.824
83314SOL    HW151839  14.315  12.442   9.781
83314SOL    HW251840  14.442  12.360   9.773
83315SOL     OW51841  13.876   8.233  12.428
83315SOL    HW151842  13.970   8.250  12.433
83315SOL    HW251843  13.869   8.138  12.441
83316SOL     OW51844   2.967  11.725  10.401
83316SOL    HW151845   2.896  11.732  10.464
83316SOL    HW251846   2.924  11.713  10.317
83317SOL     OW51847  13.550   9.696   4.199
83317SOL    HW151848  13.547   9.637   4.123
83317SOL    HW251849  13.638   9.685   4.235
83318SOL     OW51850  13.487  10.921   6.812
83318SOL    HW151851  13.425  10.891   6.878
83318SOL    HW251852  13.448  10.893   6.729
83319SOL     OW51853  10.873   7.871   0.743
83319SOL    HW151854  10.789   7.832   0.765
83319SOL    HW251855  10.932   7.797   0.732
83320SOL     OW51856   7.410   4.625   6.747
83320SOL    HW151857   7.467   4.626   6.670
83320SOL    HW251858   7.446   4.694   6.804
83321SOL     OW51859   7.572  13.793  12.673
83321SOL    HW151860   7.625  13.872  12.682
83321SOL    HW251861   7.609  13.731  12.736
83322SOL     OW51862   3.116   9.218   3.839
83322SOL    HW151863   3.043   9.190   3.784
83322SOL    HW251864   3.148   9.137   3.879
83323SOL     OW51865   6.267   8.769   1.359
83323SOL    HW151866   6.294   8.852   1.398
83323SOL    HW251867   6.337   8.708   1.381
83324SOL     OW51868   9.087  13.703   2.338
83324SOL    HW151869   9.116  13.614   2.322
83324SOL    HW251870   8.993  13.696   2.354
83325SOL     OW51871  10.300  13.131   7.404
83325SOL    HW151872  10.280  13.043   7.375
83325SOL    HW251873  10.221  13.182   7.383
83326SOL     OW51874   3.064   7.092  12.244
83326SOL    HW151875   3.149   7.134  12.235
83326SOL    HW251876   3.003   7.164  12.260
83327SOL     OW51877   3.595   8.210  13.105
83327SOL    HW151878   3.540   8.145  13.147
83327SOL    HW251879   3.684   8.185  13.128
83328SOL     OW51880   3.482  10.993   2.684
83328SOL    HW151881   3.480  10.971   2.591
83328SOL    HW251882   3.569  10.966   2.714
83329SOL     OW51883  14.445  13.686   5.204
83329SOL    HW151884  14.392  13.765   5.203
83329SOL    HW251885  14.532  13.715   5.230
83330SOL     OW51886   2.740   5.162  11.172
83330SOL    HW151887   2.674   5.225  11.142
83330SOL    HW251888   2.817   5.215  11.192
83331SOL     OW51889   9.356   4.748   8.142
83331SOL    HW151890   9.365   4.774   8.050
83331SOL    HW251891   9.446   4.731   8.171
83332SOL     OW51892  14.379   8.477   8.377
83332SOL    HW151893  14.434   8.554   8.393
83332SOL    HW251894  14.412   8.441   8.295
83333SOL     OW51895   1.698  12.825   4.022
83333SOL    HW151896   1.608  12.839   4.051
83333SOL    HW251897   1.690  12.809   3.928
83334SOL     OW51898  12.202   0.118  12.079
83334SOL    HW151899  12.113   0.150  12.063
83334SOL    HW251900  12.257   0.196  12.072
83335SOL     OW51901   0.879   8.501   1.250
83335SOL    HW151902   0.807   8.538   1.199
83335SOL    HW251903   0.956   8.549   1.221
83336SOL     OW51904   0.780   2.611  13.098
83336SOL    HW151905   0.782   2.678  13.167
83336SOL    HW251906   0.693   2.571  13.107
83337SOL     OW51907   7.463   6.096  13.284
83337SOL    HW151908   7.470   6.024  13.221
83337SOL    HW251909   7.388   6.073  13.339
83338SOL     OW51910   8.071   2.300   0.769
83338SOL    HW151911   8.163   2.316   0.790
83338SOL    HW251912   8.024   2.371   0.810
83339SOL     OW51913   8.497  12.859  10.114
83339SOL    HW151914   8.543  12.833  10.033
83339SOL    HW251915   8.562  12.850  10.183
83340SOL     OW51916   2.233   9.733   4.928
83340SOL    HW151917   2.202   9.823   4.943
83340SOL    HW251918   2.242   9.695   5.015
83341SOL     OW51919   0.010  14.123   5.747
83341SOL    HW151920   0.101  14.099   5.732
83341SOL    HW251921   0.008  14.154   5.837
83342SOL     OW51922   9.081   8.010   7.052
83342SOL    HW151923   9.006   8.070   7.058
83342SOL    HW251924   9.048   7.928   7.089
83343SOL     OW51925   7.363   9.152  11.869
83343SOL    HW151926   7.396   9.208  11.940
83343SOL    HW251927   7.393   9.194  11.789
83344SOL     OW51928   8.689   3.768   6.626
83344SOL    HW151929   8.710   3.742   6.537
83344SOL    HW251930   8.701   3.863   6.628
83345SOL     OW51931  12.388  14.489  11.813
83345SOL    HW151932  12.418  14.462  11.900
83345SOL    HW251933  12.299  14.521  11.827
83346SOL     OW51934   3.622   7.302   1.760
83346SOL    HW151935   3.610   7.352   1.680
83346SOL    HW251936   3.663   7.363   1.821
83347SOL     OW51937   1.345   2.681   8.171
83347SOL    HW151938   1.271   2.632   8.134
83347SOL    HW251939   1.308   2.729   8.245
83348SOL     OW51940   0.515  12.010   1.791
83348SOL    HW151941   0.589  11.974   1.839
83348SOL    HW251942   0.548  12.025   1.703
83349SOL     OW51943   3.641  11.513  12.479
83349SOL    HW151944   3.576  11.443  12.488
83349SOL    HW251945   3.711  11.473  12.427
83350SOL     OW51946   3.192   0.324  13.079
83350SOL    HW151947   3.149   0.340  12.995
83350SOL    HW251948   3.278   0.289  13.057
83351SOL     OW51949   2.644  12.468  12.435
83351SOL    HW151950   2.599  12.548  12.407
83351SOL    HW251951   2.719  12.499  12.486
83352SOL     OW51952   0.399   7.343   8.913
83352SOL    HW151953   0.385   7.438   8.909
83352SOL    HW251954   0.494   7.334   8.921
83353SOL     OW51955   1.107  10.489   0.986
83353SOL    HW151956   1.139  10.408   0.947
83353SOL    HW251957   1.069  10.538   0.912
83354SOL     OW51958  12.165   5.579   5.388
83354SOL    HW151959  12.096   5.573   5.323
83354SOL    HW251960  12.215   5.498   5.378
83355SOL     OW51961   7.212   3.178   9.340
83355SOL    HW151962   7.206   3.083   9.343
83355SOL    HW251963   7.193   3.207   9.429
83356SOL     OW51964  12.194  14.401   6.129
83356SOL    HW151965  12.274  14.452   6.143
83356SOL    HW251966  12.136  14.426   6.201
83357SOL     OW51967  10.075   4.844   0.120
83357SOL    HW151968  10.128   4.901   0.176
83357SOL    HW251969  10.084   4.757   0.159
83358SOL     OW51970   4.947   1.726   3.889
83358SOL    HW151971   4.996   1.778   3.826
83358SOL    HW251972   4.950   1.777   3.970
83359SOL     OW51973   0.031  14.847  11.723
83359SOL    HW151974   0.055  14.850  11.630
83359SOL    HW251975  14.819   0.020  11.727
83360SOL     OW51976   9.406   7.326   2.688
83360SOL    HW151977   9.335   7.303   2.628
83360SOL    HW251978   9.385   7.415   2.717
83361SOL     OW51979   6.207   6.146   2.306
83361SOL    HW151980   6.216   6.093   2.385
83361SOL    HW251981   6.165   6.226   2.335
83362SOL     OW51982   5.909   2.628   8.693
83362SOL    HW151983   5.861   2.575   8.629
83362SOL    HW251984   5.946   2.700   8.641
83363SOL     OW51985   2.292  10.825  13.938
83363SOL    HW151986   2.330  10.908  13.967
83363SOL    HW251987   2.292  10.831  13.842
83364SOL     OW51988   1.205   2.169   9.650
83364SOL    HW151989   1.301   2.165   9.652
83364SOL    HW251990   1.182   2.144   9.561
83365SOL     OW51991   4.758   1.170   2.637
83365SOL    HW151992   4.834   1.130   2.680
83365SOL    HW251993   4.682   1.132   2.681
83366SOL     OW51994   3.247   8.783  10.126
83366SOL    HW151995   3.219   8.813  10.213
83366SOL    HW251996   3.273   8.692  10.139
83367SOL     OW51997   8.635   2.185   6.471
83367SOL    HW151998   8.724   2.200   6.439
83367SOL    HW251999   8.584   2.257   6.436
83368SOL     OW52000   9.095  13.054   1.290
83368SOL    HW152001   9.012  13.052   1.242
83368SOL    HW252002   9.071  13.082   1.379
83369SOL     OW52003  11.183  10.389   5.035
83369SOL    HW152004  11.263  10.389   4.982
83369SOL    HW252005  11.117  10.426   4.977
83370SOL     OW52006   5.679  11.283   7.421
83370SOL    HW152007   5.691  11.319   7.509
83370SOL    HW252008   5.732  11.203   7.421
83371SOL     OW52009   4.895   3.661   1.287
83371SOL    HW152010   4.970   3.667   1.227
83371SOL    HW252011   4.909   3.580   1.335
83372SOL     OW52012   0.683  11.237   9.031
83372SOL    HW152013   0.692  11.240   9.126
83372SOL    HW252014   0.700  11.145   9.008
83373SOL     OW52015  12.245   5.011   5.827
83373SOL    HW152016  12.306   5.051   5.765
83373SOL    HW252017  12.218   4.929   5.785
83374SOL     OW52018   2.743   7.518  10.986
83374SOL    HW152019   2.793   7.563  10.918
83374SOL    HW252020   2.654   7.553  10.977
83375SOL     OW52021  12.875  13.522   2.615
83375SOL    HW152022  12.886  13.599   2.671
83375SOL    HW252023  12.797  13.479   2.649
83376SOL     OW52024   1.147  14.655   6.467
83376SOL    HW152025   1.144  14.743   6.503
83376SOL    HW252026   1.206  14.607   6.525
83377SOL     OW52027   2.073  11.041   7.212
83377SOL    HW152028   2.163  11.059   7.241
83377SOL    HW252029   2.070  10.946   7.199
83378SOL     OW52030  11.992   6.533  10.667
83378SOL    HW152031  11.957   6.622  10.661
83378SOL    HW252032  11.975   6.507  10.758
83379SOL     OW52033  13.930   0.642  11.894
83379SOL    HW152034  13.993   0.570  11.888
83379SOL    HW252035  13.880   0.639  11.813
83380SOL     OW52036   2.123   3.714  14.694
83380SOL    HW152037   2.170   3.653  14.638
83380SOL    HW252038   2.189   3.777  14.722
83381SOL     OW52039  12.813   8.839   2.730
83381SOL    HW152040  12.786   8.916   2.681
83381SOL    HW252041  12.760   8.768   2.694
83382SOL     OW52042   1.739   3.132   9.083
83382SOL    HW152043   1.677   3.076   9.037
83382SOL    HW252044   1.825   3.102   9.054
83383SOL     OW52045   1.028   8.314   0.088
83383SOL    HW152046   1.044   8.402   0.054
83383SOL    HW252047   0.937   8.295   0.065
83384SOL     OW52048   0.360   0.174   4.641
83384SOL    HW152049   0.332   0.259   4.609
83384SOL    HW252050   0.455   0.182   4.651
83385SOL     OW52051   0.022   4.798   4.840
83385SOL    HW152052   0.109   4.773   4.811
83385SOL    HW252053   0.024   4.787   4.935
83386SOL     OW52054  12.906  10.621   7.788
83386SOL    HW152055  12.813  10.623   7.765
83386SOL    HW252056  12.933  10.713   7.789
83387SOL     OW52057  11.725  13.778   9.115
83387SOL    HW152058  11.631  13.795   9.114
83387SOL    HW252059  11.734  13.688   9.086
83388SOL     OW52060   3.287   6.071  13.835
83388SOL    HW152061   3.358   6.008  13.821
83388SOL    HW252062   3.207   6.019  13.825
83389SOL     OW52063   6.001  11.879  13.072
83389SOL    HW152064   6.012  11.955  13.015
83389SOL    HW252065   5.994  11.805  13.012
83390SOL     OW52066   6.945   1.339   7.623
83390SOL    HW152067   6.869   1.295   7.662
83390SOL    HW252068   7.012   1.336   7.692
83391SOL     OW52069  11.587   4.742  10.767
83391SOL    HW152070  11.535   4.810  10.810
83391SOL    HW252071  11.573   4.757  10.673
83392SOL     OW52072  13.262   9.612  10.153
83392SOL    HW152073  13.282   9.697  10.113
83392SOL    HW252074  13.209   9.567  10.087
83393SOL     OW52075   6.076   6.376  11.758
83393SOL    HW152076   5.988   6.343  11.779
83393SOL    HW252077   6.109   6.315  11.692
83394SOL     OW52078  12.533  13.874   9.779
83394SOL    HW152079  12.482  13.913   9.708
83394SOL    HW252080  12.496  13.912   9.859
83395SOL     OW52081  13.589  10.988   2.182
83395SOL    HW152082  13.563  10.897   2.171
83395SOL    HW252083  13.569  11.008   2.273
83396SOL     OW52084   3.720  13.347   0.529
83396SOL    HW152085   3.690  13.330   0.619
83396SOL    HW252086   3.795  13.290   0.517
83397SOL     OW52087   0.146   6.444   2.493
83397SOL    HW152088   0.205   6.370   2.485
83397SOL    HW252089   0.070   6.409   2.539
83398SOL     OW52090   3.863  11.270  13.406
83398SOL    HW152091   3.833  11.236  13.322
83398SOL    HW252092   3.784  11.281  13.458
83399SOL     OW52093  10.992  14.559   4.831
83399SOL    HW152094  10.967  14.615   4.905
83399SOL    HW252095  10.990  14.617   4.755
83400SOL     OW52096  13.292  11.631   6.200
83400SOL    HW152097  13.386  11.647   6.207
83400SOL    HW252098  13.254  11.717   6.183
83401SOL     OW52099  10.335   3.300   5.315
83401SOL    HW152100  10.277   3.226   5.301
83401SOL    HW252101  10.299   3.345   5.392
83402SOL     OW52102   0.542   1.643  14.636
83402SOL    HW152103   0.504   1.565  14.677
83402SOL    HW252104   0.483   1.714  14.661
83403SOL     OW52105  11.997   7.506   8.145
83403SOL    HW152106  12.044   7.482   8.225
83403SOL    HW252107  11.904   7.500   8.170
83404SOL     OW52108   8.242   6.453   4.203
83404SOL    HW152109   8.232   6.360   4.184
83404SOL    HW252110   8.225   6.461   4.296
83405SOL     OW52111  14.782   1.982   5.137
83405SOL    HW152112  14.738   2.065   5.153
83405SOL    HW252113  14.797   1.981   5.042
83406SOL     OW52114   3.408  11.832  10.644
83406SOL    HW152115   3.329  11.860  10.691
83406SOL    HW252116   3.392  11.857  10.553
83407SOL     OW52117   2.896   7.925   7.972
83407SOL    HW152118   2.934   7.988   7.911
83407SOL    HW252119   2.804   7.919   7.947
83408SOL     OW52120   3.793   5.320   0.178
83408SOL    HW152121   3.738   5.385   0.133
83408SOL    HW252122   3.881   5.358   0.175
83409SOL     OW52123   0.298   8.038  10.341
83409SOL    HW152124   0.291   7.958  10.394
83409SOL    HW252125   0.357   8.014  10.269
83410SOL     OW52126   0.205   9.197  11.399
83410SOL    HW152127   0.210   9.205  11.494
83410SOL    HW252128   0.296   9.193  11.370
83411SOL     OW52129   1.145   8.939   8.941
83411SOL    HW152130   1.204   9.008   8.972
83411SOL    HW252131   1.059   8.966   8.972
83412SOL     OW52132  10.993  12.074  10.909
83412SOL    HW152133  10.950  11.991  10.891
83412SOL    HW252134  11.002  12.077  11.004
83413SOL     OW52135  12.017  12.902  10.413
83413SOL    HW152136  11.992  12.993  10.422
83413SOL    HW252137  12.046  12.876  10.500
83414SOL     OW52138  12.675   5.193   2.144
83414SOL    HW152139  12.625   5.156   2.070
83414SOL    HW252140  12.760   5.150   2.139
83415SOL     OW52141   1.947   9.139   9.867
83415SOL    HW152142   1.916   9.065   9.920
83415SOL    HW252143   2.006   9.187   9.926
83416SOL     OW52144  10.524   6.722  14.469
83416SOL    HW152145  10.545   6.814  14.455
83416SOL    HW252146  10.439   6.710  14.427
83417SOL     OW52147   0.684  10.095  10.339
83417SOL    HW152148   0.724  10.143  10.267
83417SOL    HW252149   0.628  10.159  10.383
83418SOL     OW52150   3.308   0.784   3.525
83418SOL    HW152151   3.270   0.719   3.585
83418SOL    HW252152   3.314   0.864   3.578
83419SOL     OW52153  10.442   7.364   9.332
83419SOL    HW152154  10.468   7.450   9.364
83419SOL    HW252155  10.499   7.348   9.257
83420SOL     OW52156   4.015   4.848   8.391
83420SOL    HW152157   4.026   4.844   8.486
83420SOL    HW252158   3.922   4.831   8.376
83421SOL     OW52159   9.261  14.155   5.600
83421SOL    HW152160   9.180  14.206   5.591
83421SOL    HW252161   9.239  14.086   5.663
83422SOL     OW52162  10.275   9.790   0.003
83422SOL    HW152163  10.332   9.832  14.812
83422SOL    HW252164  10.301   9.698   0.003
83423SOL     OW52165   5.152   5.674   2.588
83423SOL    HW152166   5.181   5.717   2.508
83423SOL    HW252167   5.069   5.716   2.609
83424SOL     OW52168   6.830   5.468   2.512
83424SOL    HW152169   6.782   5.386   2.524
83424SOL    HW252170   6.775   5.518   2.451
83425SOL     OW52171   6.672   3.858  11.264
83425SOL    HW152172   6.632   3.919  11.326
83425SOL    HW252173   6.764   3.854  11.290
83426SOL     OW52174   1.979   8.118   6.032
83426SOL    HW152175   2.065   8.078   6.044
83426SOL    HW252176   1.964   8.115   5.938
83427SOL     OW52177   9.587  10.811   8.482
83427SOL    HW152178   9.593  10.903   8.505
83427SOL    HW252179   9.678  10.782   8.473
83428SOL     OW52180   9.622   1.208  10.067
83428SOL    HW152181   9.686   1.277  10.051
83428SOL    HW252182   9.638   1.144   9.997
83429SOL     OW52183  13.577  11.689  13.159
83429SOL    HW152184  13.602  11.748  13.230
83429SOL    HW252185  13.658  11.675  13.110
83430SOL     OW52186   5.179   9.388   2.204
83430SOL    HW152187   5.099   9.341   2.230
83430SOL    HW252188   5.225   9.327   2.147
83431SOL     OW52189   9.050   9.403   0.943
83431SOL    HW152190   9.008   9.481   0.908
83431SOL    HW252191   9.088   9.360   0.866
83432SOL     OW52192   5.498  12.156   7.921
83432SOL    HW152193   5.414  12.182   7.884
83432SOL    HW252194   5.476  12.117   8.006
83433SOL     OW52195   9.691   7.715  14.864
83433SOL    HW152196   9.629   7.786  14.848
83433SOL    HW252197   9.672   7.687   0.082
83434SOL     OW52198   6.417  13.917  13.972
83434SOL    HW152199   6.342  13.932  14.029
83434SOL    HW252200   6.461  13.841  14.009
83435SOL     OW52201  11.815   9.027   9.023
83435SOL    HW152202  11.838   9.119   9.035
83435SOL    HW252203  11.791   9.020   8.931
83436SOL     OW52204   5.232  12.146   5.026
83436SOL    HW152205   5.182  12.065   5.018
83436SOL    HW252206   5.247  12.175   4.936
83437SOL     OW52207  14.083  10.626   1.415
83437SOL    HW152208  14.097  10.594   1.326
83437SOL    HW252209  13.997  10.592   1.439
83438SOL     OW52210  13.422   2.069  11.880
83438SOL    HW152211  13.508   2.091  11.917
83438SOL    HW252212  13.359   2.101  11.945
83439SOL     OW52213   4.515   9.076  11.335
83439SOL    HW152214   4.578   9.007  11.355
83439SOL    HW252215   4.445   9.065  11.399
83440SOL     OW52216   9.621   8.670  10.435
83440SOL    HW152217   9.557   8.619  10.484
83440SOL    HW252218   9.593   8.761  10.445
83441SOL     OW52219   5.734   7.724   9.464
83441SOL    HW152220   5.764   7.776   9.390
83441SOL    HW252221   5.812   7.676   9.493
83442SOL     OW52222   1.825   7.472  11.207
83442SOL    HW152223   1.840   7.559  11.244
83442SOL    HW252224   1.853   7.479  11.115
83443SOL     OW52225   5.989  11.021  12.994
83443SOL    HW152226   5.983  11.113  13.018
83443SOL    HW252227   5.986  10.974  13.078
83444SOL     OW52228  11.246  11.142   8.516
83444SOL    HW152229  11.205  11.208   8.572
83444SOL    HW252230  11.172  11.098   8.474
83445SOL     OW52231   9.535   3.838   8.434
83445SOL    HW152232   9.566   3.928   8.430
83445SOL    HW252233   9.518   3.814   8.343
83446SOL     OW52234   0.711   0.307   5.216
83446SOL    HW152235   0.717   0.399   5.241
83446SOL    HW252236   0.618   0.291   5.203
83447SOL     OW52237   2.091  12.762   8.355
83447SOL    HW152238   2.067  12.831   8.417
83447SOL    HW252239   2.108  12.808   8.273
83448SOL     OW52240   6.167  13.466  11.654
83448SOL    HW152241   6.160  13.457  11.559
83448SOL    HW252242   6.254  13.506  11.668
83449SOL     OW52243   6.678   9.918   9.489
83449SOL    HW152244   6.676   9.924   9.584
83449SOL    HW252245   6.600   9.868   9.466
83450SOL     OW52246   7.630   5.972   8.291
83450SOL    HW152247   7.718   5.967   8.254
83450SOL    HW252248   7.600   6.060   8.269
83451SOL     OW52249   9.232   9.247   4.862
83451SOL    HW152250   9.320   9.217   4.838
83451SOL    HW252251   9.189   9.266   4.778
83452SOL     OW52252   0.509   4.267  10.536
83452SOL    HW152253   0.595   4.226  10.544
83452SOL    HW252254   0.506   4.330  10.607
83453SOL     OW52255   7.410   2.345   6.762
83453SOL    HW152256   7.341   2.391   6.809
83453SOL    HW252257   7.402   2.376   6.672
83454SOL     OW52258  12.937  12.244   5.425
83454SOL    HW152259  12.885  12.278   5.498
83454SOL    HW252260  12.987  12.319   5.394
83455SOL     OW52261   0.481   3.160   6.788
83455SOL    HW152262   0.465   3.178   6.881
83455SOL    HW252263   0.561   3.108   6.787
83456SOL     OW52264  13.709   2.149  12.729
83456SOL    HW152265  13.760   2.133  12.808
83456SOL    HW252266  13.703   2.244  12.723
83457SOL     OW52267   5.746  11.541   5.253
83457SOL    HW152268   5.690  11.619   5.246
83457SOL    HW252269   5.708  11.492   5.325
83458SOL     OW52270   2.991   5.973  11.456
83458SOL    HW152271   2.963   6.041  11.517
83458SOL    HW252272   3.055   6.017  11.400
83459SOL     OW52273   9.089  10.767   7.451
83459SOL    HW152274   9.175  10.811   7.448
83459SOL    HW252275   9.060  10.768   7.360
83460SOL     OW52276   1.141   2.257   1.845
83460SOL    HW152277   1.099   2.282   1.762
83460SOL    HW252278   1.209   2.323   1.858
83461SOL     OW52279  11.676   8.243   2.845
83461SOL    HW152280  11.753   8.275   2.798
83461SOL    HW252281  11.685   8.278   2.934
83462SOL     OW52282  11.324   7.835  14.465
83462SOL    HW152283  11.280   7.861  14.545
83462SOL    HW252284  11.417   7.839  14.486
83463SOL     OW52285   7.617   4.199   1.587
83463SOL    HW152286   7.620   4.180   1.681
83463SOL    HW252287   7.680   4.139   1.548
83464SOL     OW52288   8.917   8.039  10.872
83464SOL    HW152289   8.982   7.982  10.832
83464SOL    HW252290   8.846   8.045  10.807
83465SOL     OW52291  10.141   9.946   6.187
83465SOL    HW152292  10.152  10.010   6.117
83465SOL    HW252293  10.142   9.861   6.143
83466SOL     OW52294   3.850  10.401   2.457
83466SOL    HW152295   3.838  10.306   2.454
83466SOL    HW252296   3.761  10.436   2.448
83467SOL     OW52297  14.809   1.946  12.812
83467SOL    HW152298  14.862   1.926  12.734
83467SOL    HW252299  14.748   1.873  12.819
83468SOL     OW52300  12.166   6.519  11.901
83468SOL    HW152301  12.108   6.591  11.929
83468SOL    HW252302  12.238   6.563  11.855
83469SOL     OW52303   2.554  13.859   2.112
83469SOL    HW152304   2.562  13.793   2.180
83469SOL    HW252305   2.631  13.915   2.124
83470SOL     OW52306  12.233   8.260  10.718
83470SOL    HW152307  12.320   8.262  10.757
83470SOL    HW252308  12.250   8.254  10.624
83471SOL     OW52309  13.015   7.048   1.780
83471SOL    HW152310  12.947   7.115   1.781
83471SOL    HW252311  13.091   7.090   1.821
83472SOL     OW52312   0.029  12.844   7.172
83472SOL    HW152313   0.044  12.938   7.183
83472SOL    HW252314  14.830  12.839   7.108
83473SOL     OW52315   0.140  12.015  10.269
83473SOL    HW152316   0.224  12.027  10.312
83473SOL    HW252317   0.082  11.984  10.339
83474SOL     OW52318   8.606  11.565   6.835
83474SOL    HW152319   8.528  11.517   6.865
83474SOL    HW252320   8.574  11.621   6.765
83475SOL     OW52321   7.870   3.654  10.527
83475SOL    HW152322   7.857   3.559  10.517
83475SOL    HW252323   7.890   3.684  10.438
83476SOL     OW52324  13.798   4.583  13.496
83476SOL    HW152325  13.816   4.495  13.463
83476SOL    HW252326  13.732   4.569  13.565
83477SOL     OW52327   5.097   8.001   6.027
83477SOL    HW152328   5.062   7.927   6.076
83477SOL    HW252329   5.126   7.964   5.943
83478SOL     OW52330   9.948  12.182   3.886
83478SOL    HW152331  10.034  12.141   3.877
83478SOL    HW252332   9.962  12.273   3.860
83479SOL     OW52333   7.589   0.892   4.734
83479SOL    HW152334   7.613   0.863   4.822
83479SOL    HW252335   7.602   0.815   4.679
83480SOL     OW52336   4.820   7.663  10.453
83480SOL    HW152337   4.733   7.703  10.457
83480SOL    HW252338   4.880   7.733  10.476
83481SOL     OW52339  13.303   7.213  13.055
83481SOL    HW152340  13.270   7.124  13.061
83481SOL    HW252341  13.225   7.268  13.054
83482SOL     OW52342   9.792   5.525   7.657
83482SOL    HW152343   9.814   5.600   7.712
83482SOL    HW252344   9.874   5.475   7.652
83483SOL     OW52345   3.508   5.285   5.686
83483SOL    HW152346   3.446   5.308   5.617
83483SOL    HW252347   3.574   5.231   5.643
83484SOL     OW52348   1.737  13.042  14.467
83484SOL    HW152349   1.743  12.977  14.537
83484SOL    HW252350   1.645  13.044  14.443
83485SOL     OW52351  10.818   0.959  11.398
83485SOL    HW152352  10.813   0.946  11.493
83485SOL    HW252353  10.727   0.962  11.369
83486SOL     OW52354   2.352  10.656   6.905
83486SOL    HW152355   2.430  10.678   6.956
83486SOL    HW252356   2.385  10.633   6.819
83487SOL     OW52357   2.966   2.244  10.509
83487SOL    HW152358   2.956   2.186  10.433
83487SOL    HW252359   2.886   2.232  10.559
83488SOL     OW52360  14.489   2.723   8.816
83488SOL    HW152361  14.558   2.663   8.787
83488SOL    HW252362  14.424   2.666   8.858
83489SOL     OW52363   8.579   7.614  11.662
83489SOL    HW152364   8.658   7.605  11.609
83489SOL    HW252365   8.507   7.609  11.600
83490SOL     OW52366   9.427  10.052   5.003
83490SOL    HW152367   9.467  10.002   4.932
83490SOL    HW252368   9.340  10.076   4.971
83491SOL     OW52369   3.815   9.679   1.692
83491SOL    HW152370   3.794   9.715   1.606
83491SOL    HW252371   3.794   9.586   1.685
83492SOL     OW52372   9.588   4.395   5.309
83492SOL    HW152373   9.566   4.480   5.349
83492SOL    HW252374   9.609   4.417   5.218
83493SOL     OW52375   2.415   8.835   4.460
83493SOL    HW152376   2.472   8.838   4.537
83493SOL    HW252377   2.438   8.753   4.417
83494SOL     OW52378   3.138   1.436   9.135
83494SOL    HW152379   3.063   1.436   9.076
83494SOL    HW252380   3.147   1.345   9.164
83495SOL     OW52381   8.430   5.161  14.183
83495SOL    HW152382   8.478   5.100  14.238
83495SOL    HW252383   8.381   5.216  14.244
83496SOL     OW52384   5.168   6.363   6.304
83496SOL    HW152385   5.148   6.432   6.240
83496SOL    HW252386   5.161   6.282   6.254
83497SOL     OW52387  11.978   6.254  14.724
83497SOL    HW152388  12.027   6.223  14.648
83497SOL    HW252389  12.044   6.262  14.794
83498SOL     OW52390   0.400   7.354   2.046
83498SOL    HW152391   0.377   7.447   2.049
83498SOL    HW252392   0.496   7.353   2.045
83499SOL     OW52393   9.278   7.588   5.084
83499SOL    HW152394   9.268   7.640   5.003
83499SOL    HW252395   9.330   7.644   5.141
83500SOL     OW52396  11.335  14.489  10.658
83500SOL    HW152397  11.269  14.422  10.640
83500SOL    HW252398  11.350  14.531  10.573
83501SOL     OW52399  14.413   6.670  12.469
83501SOL    HW152400  14.485   6.623  12.511
83501SOL    HW252401  14.450   6.706  12.389
83502SOL     OW52402   8.805   5.334   7.461
83502SOL    HW152403   8.850   5.418   7.455
83502SOL    HW252404   8.713   5.356   7.475
83503SOL     OW52405   7.562   8.813  13.776
83503SOL    HW152406   7.508   8.736  13.755
83503SOL    HW252407   7.636   8.807  13.716
83504SOL     OW52408   9.965   4.368   8.436
83504SOL    HW152409   9.960   4.278   8.403
83504SOL    HW252410  10.057   4.381   8.458
83505SOL     OW52411   4.129   7.629  11.127
83505SOL    HW152412   4.194   7.612  11.059
83505SOL    HW252413   4.127   7.549  11.179
83506SOL     OW52414   7.265   9.369   8.697
83506SOL    HW152415   7.244   9.351   8.789
83506SOL    HW252416   7.180   9.368   8.652
83507SOL     OW52417  14.339   6.499  10.965
83507SOL    HW152418  14.279   6.544  10.905
83507SOL    HW252419  14.414   6.558  10.972
83508SOL     OW52420  13.101  10.518   9.383
83508SOL    HW152421  13.013  10.530   9.347
83508SOL    HW252422  13.093  10.538   9.476
83509SOL     OW52423  13.955   7.479   7.683
83509SOL    HW152424  13.982   7.549   7.623
83509SOL    HW252425  14.035   7.429   7.700
83510SOL     OW52426   0.029   9.873   5.579
83510SOL    HW152427   0.090   9.799   5.570
83510SOL    HW252428   0.002   9.871   5.671
83511SOL     OW52429   8.943   3.331  13.952
83511SOL    HW152430   8.933   3.363  14.042
83511SOL    HW252431   8.868   3.369  13.905
83512SOL     OW52432   1.635   1.230   1.961
83512SOL    HW152433   1.649   1.261   2.051
83512SOL    HW252434   1.650   1.135   1.967
83513SOL     OW52435  12.514  13.119   5.277
83513SOL    HW152436  12.440  13.146   5.332
83513SOL    HW252437  12.584  13.180   5.300
83514SOL     OW52438  13.002   4.733  13.576
83514SOL    HW152439  12.914   4.708  13.549
83514SOL    HW252440  13.060   4.693  13.510
83515SOL     OW52441   9.308   1.338  12.532
83515SOL    HW152442   9.359   1.260  12.555
83515SOL    HW252443   9.272   1.369  12.615
83516SOL     OW52444  10.098   4.570  14.614
83516SOL    HW152445  10.037   4.522  14.670
83516SOL    HW252446  10.128   4.643  14.669
83517SOL     OW52447   2.855  11.759  14.702
83517SOL    HW152448   2.924  11.725  14.645
83517SOL    HW252449   2.784  11.783  14.642
83518SOL     OW52450  13.088   4.793   5.249
83518SOL    HW152451  13.030   4.846   5.193
83518SOL    HW252452  13.053   4.804   5.337
83519SOL     OW52453   8.708   6.092  14.825
83519SOL    HW152454   8.697   6.177  14.783
83519SOL    HW252455   8.802   6.086  14.841
83520SOL     OW52456   2.930   5.495   8.570
83520SOL    HW152457   2.855   5.441   8.597
83520SOL    HW252458   2.991   5.489   8.643
83521SOL     OW52459   7.931   0.924  14.377
83521SOL    HW152460   7.898   0.969  14.299
83521SOL    HW252461   7.950   0.835  14.348
83522SOL     OW52462   6.466   9.366  11.184
83522SOL    HW152463   6.423   9.415  11.114
83522SOL    HW252464   6.410   9.289  11.197
83523SOL     OW52465  14.677   0.517   7.585
83523SOL    HW152466  14.732   0.462   7.528
83523SOL    HW252467  14.725   0.520   7.668
83524SOL     OW52468  14.062   3.490  11.008
83524SOL    HW152469  14.028   3.579  11.019
83524SOL    HW252470  14.134   3.484  11.071
83525SOL     OW52471  10.015  14.620   9.735
83525SOL    HW152472   9.927  14.607   9.699
83525SOL    HW252473  10.001  14.626   9.830
83526SOL     OW52474   7.883   2.787   0.337
83526SOL    HW152475   7.846   2.714   0.289
83526SOL    HW252476   7.966   2.755   0.371
83527SOL     OW52477   9.790  12.099  13.899
83527SOL    HW152478   9.742  12.182  13.908
83527SOL    HW252479   9.747  12.054  13.826
83528SOL     OW52480  14.771   3.751  11.775
83528SOL    HW152481  14.759   3.659  11.749
83528SOL    HW252482  14.785   3.746  11.870
83529SOL     OW52483  10.210   9.452   2.333
83529SOL    HW152484  10.177   9.518   2.394
83529SOL    HW252485  10.297   9.430   2.366
83530SOL     OW52486  10.503   8.547   5.311
83530SOL    HW152487  10.540   8.480   5.369
83530SOL    HW252488  10.415   8.563   5.347
83531SOL     OW52489   0.687   9.755   1.266
83531SOL    HW152490   0.682   9.817   1.193
83531SOL    HW252491   0.762   9.700   1.246
83532SOL     OW52492   2.239   4.231   3.702
83532SOL    HW152493   2.193   4.289   3.764
83532SOL    HW252494   2.318   4.279   3.678
83533SOL     OW52495   0.127   4.709   0.268
83533SOL    HW152496   0.088   4.795   0.281
83533SOL    HW252497   0.116   4.664   0.352
83534SOL     OW52498   4.186   2.797  13.607
83534SOL    HW152499   4.108   2.774  13.658
83534SOL    HW252500   4.251   2.731  13.632
83535SOL     OW52501   1.491  13.636   6.974
83535SOL    HW152502   1.428  13.708   6.979
83535SOL    HW252503   1.545  13.656   6.898
83536SOL     OW52504  14.651  12.060   8.194
83536SOL    HW152505  14.576  12.001   8.203
83536SOL    HW252506  14.717  12.006   8.151
83537SOL     OW52507   9.900   3.369   0.190
83537SOL    HW152508   9.819   3.332   0.154
83537SOL    HW252509   9.904   3.333   0.279
83538SOL     OW52510   7.373   3.824   1.961
83538SOL    HW152511   7.334   3.738   1.976
83538SOL    HW252512   7.420   3.844   2.042
83539SOL     OW52513   7.846   9.057   4.271
83539SOL    HW152514   7.910   9.127   4.285
83539SOL    HW252515   7.769   9.101   4.235
83540SOL     OW52516  12.034  13.389   8.723
83540SOL    HW152517  12.011  13.429   8.807
83540SOL    HW252518  11.992  13.444   8.657
83541SOL     OW52519   7.155   2.638  14.444
83541SOL    HW152520   7.131   2.605  14.358
83541SOL    HW252521   7.225   2.580  14.474
83542SOL     OW52522  11.965  13.667   3.972
83542SOL    HW152523  11.993  13.730   4.039
83542SOL    HW252524  11.992  13.582   4.006
83543SOL     OW52525  11.044   8.400   8.478
83543SOL    HW152526  11.056   8.485   8.436
83543SOL    HW252527  11.122   8.351   8.455
83544SOL     OW52528   4.864  14.184   7.746
83544SOL    HW152529   4.817  14.268   7.749
83544SOL    HW252530   4.883  14.164   7.837
83545SOL     OW52531  12.177   2.546   1.963
83545SOL    HW152532  12.164   2.453   1.983
83545SOL    HW252533  12.092   2.586   1.976
83546SOL     OW52534  13.019   3.517   6.882
83546SOL    HW152535  13.085   3.556   6.939
83546SOL    HW252536  12.947   3.580   6.883
83547SOL     OW52537  12.814   3.776  11.737
83547SOL    HW152538  12.834   3.857  11.690
83547SOL    HW252539  12.723   3.757  11.715
83548SOL     OW52540   3.577  13.379   7.842
83548SOL    HW152541   3.652  13.326   7.815
83548SOL    HW252542   3.514  13.369   7.772
83549SOL     OW52543   5.822   5.921   4.133
83549SOL    HW152544   5.856   5.870   4.207
83549SOL    HW252545   5.776   5.994   4.174
83550SOL     OW52546   1.681  12.412   3.320
83550SOL    HW152547   1.767  12.426   3.359
83550SOL    HW252548   1.660  12.321   3.340
83551SOL     OW52549   4.080   4.804   6.516
83551SOL    HW152550   4.163   4.786   6.473
83551SOL    HW252551   4.102   4.809   6.609
83552SOL     OW52552   4.225   4.568   0.633
83552SOL    HW152553   4.147   4.547   0.583
83552SOL    HW252554   4.259   4.483   0.662
83553SOL     OW52555   5.215  11.538  12.469
83553SOL    HW152556   5.286  11.540  12.405
83553SOL    HW252557   5.208  11.628  12.500
83554SOL     OW52558   4.043   0.431  12.000
83554SOL    HW152559   4.056   0.379  11.921
83554SOL    HW252560   4.109   0.500  11.995
83555SOL     OW52561   6.589   2.618   7.588
83555SOL    HW152562   6.524   2.554   7.617
83555SOL    HW252563   6.540   2.678   7.532
83556SOL     OW52564   6.680   1.280   1.075
83556SOL    HW152565   6.662   1.330   1.154
83556SOL    HW252566   6.599   1.286   1.024
83557SOL     OW52567   6.538   4.346   8.798
83557SOL    HW152568   6.621   4.301   8.781
83557SOL    HW252569   6.499   4.297   8.870
83558SOL     OW52570  14.476  14.348  13.028
83558SOL    HW152571  14.537  14.311  12.964
83558SOL    HW252572  14.421  14.408  12.978
83559SOL     OW52573   1.390   7.607   6.097
83559SOL    HW152574   1.367   7.621   6.005
83559SOL    HW252575   1.358   7.686   6.141
83560SOL     OW52576  14.188   7.325  10.175
83560SOL    HW152577  14.154   7.299  10.261
83560SOL    HW252578  14.115   7.371  10.133
83561SOL     OW52579   6.004  11.674  12.897
83561SOL    HW152580   5.950  11.598  12.878
83561SOL    HW252581   6.093  11.640  12.903
83562SOL     OW52582   9.241   1.271   2.486
83562SOL    HW152583   9.231   1.299   2.577
83562SOL    HW252584   9.327   1.231   2.482
83563SOL     OW52585  14.279  12.868   8.952
83563SOL    HW152586  14.205  12.843   8.897
83563SOL    HW252587  14.262  12.825   9.036
83564SOL     OW52588   5.321  10.764   6.822
83564SOL    HW152589   5.231  10.795   6.810
83564SOL    HW252590   5.349  10.801   6.905
83565SOL     OW52591   7.797   7.805  12.556
83565SOL    HW152592   7.706   7.783  12.532
83565SOL    HW252593   7.848   7.781  12.479
83566SOL     OW52594   3.670   5.042   4.051
83566SOL    HW152595   3.734   4.993   3.999
83566SOL    HW252596   3.679   5.133   4.021
83567SOL     OW52597   1.236   7.260  13.405
83567SOL    HW152598   1.226   7.211  13.324
83567SOL    HW252599   1.174   7.220  13.466
83568SOL     OW52600   3.599   6.313  10.818
83568SOL    HW152601   3.625   6.262  10.742
83568SOL    HW252602   3.682   6.344  10.856
83569SOL     OW52603  13.344   8.432  10.270
83569SOL    HW152604  13.376   8.520  10.250
83569SOL    HW252605  13.318   8.396  10.185
83570SOL     OW52606   0.557  10.793   7.738
83570SOL    HW152607   0.526  10.813   7.650
83570SOL    HW252608   0.498  10.840   7.796
83571SOL     OW52609   5.449  13.337  13.267
83571SOL    HW152610   5.463  13.414  13.322
83571SOL    HW252611   5.529  13.330  13.215
83572SOL     OW52612   4.864   9.290   3.598
83572SOL    HW152613   4.877   9.274   3.691
83572SOL    HW252614   4.879   9.384   3.587
83573SOL     OW52615   3.572  11.996   9.330
83573SOL    HW152616   3.510  11.948   9.274
83573SOL    HW252617   3.652  12.001   9.278
83574SOL     OW52618  13.523  14.793   7.638
83574SOL    HW152619  13.614  14.793   7.609
83574SOL    HW252620  13.528  14.775   7.732
83575SOL     OW52621   5.061   6.023  12.759
83575SOL    HW152622   5.098   5.992  12.842
83575SOL    HW252623   5.113   5.980  12.692
83576SOL     OW52624   7.250  12.412   4.564
83576SOL    HW152625   7.219  12.446   4.648
83576SOL    HW252626   7.183  12.437   4.501
83577SOL     OW52627   8.478   6.398  13.878
83577SOL    HW152628   8.455   6.346  13.955
83577SOL    HW252629   8.397   6.403  13.827
83578SOL     OW52630   2.472   2.755  14.451
83578SOL    HW152631   2.392   2.718  14.488
83578SOL    HW252632   2.538   2.687  14.465
83579SOL     OW52633  11.489   8.603   2.148
83579SOL    HW152634  11.471   8.655   2.070
83579SOL    HW252635  11.572   8.558   2.128
83580SOL     OW52636   3.257   4.828  13.808
83580SOL    HW152637   3.274   4.768  13.736
83580SOL    HW252638   3.228   4.909  13.764
83581SOL     OW52639   7.983   3.368  13.681
83581SOL    HW152640   7.908   3.416  13.715
83581SOL    HW252641   7.944   3.293  13.635
83582SOL     OW52642  11.515   0.141   3.605
83582SOL    HW152643  11.541   0.077   3.671
83582SOL    HW252644  11.426   0.116   3.580
83583SOL     OW52645   6.922   7.203   1.753
83583SOL    HW152646   6.904   7.159   1.836
83583SOL    HW252647   6.989   7.268   1.774
83584SOL     OW52648   1.577   8.693   0.269
83584SOL    HW152649   1.625   8.644   0.335
83584SOL    HW252650   1.511   8.741   0.319
83585SOL     OW52651   6.045  11.832   0.795
83585SOL    HW152652   6.138  11.853   0.808
83585SOL    HW252653   6.045  11.738   0.776
83586SOL     OW52654   6.994   6.484   0.967
83586SOL    HW152655   7.014   6.575   0.987
83586SOL    HW252656   7.054   6.460   0.897
83587SOL     OW52657   9.133   6.461   1.890
83587SOL    HW152658   9.090   6.546   1.895
83587SOL    HW252659   9.078   6.410   1.830
83588SOL     OW52660   8.985   0.305   5.681
83588SOL    HW152661   9.007   0.391   5.644
83588SOL    HW252662   8.923   0.268   5.618
83589SOL     OW52663  14.439   8.773  10.459
83589SOL    HW152664  14.494   8.810  10.390
83589SOL    HW252665  14.375   8.842  10.478
83590SOL     OW52666  13.585  10.996   5.397
83590SOL    HW152667  13.638  11.049   5.337
83590SOL    HW252668  13.498  11.034   5.393
83591SOL     OW52669   1.898   4.538   1.861
83591SOL    HW152670   1.820   4.552   1.914
83591SOL    HW252671   1.874   4.568   1.773
83592SOL     OW52672  13.867   2.925  12.697
83592SOL    HW152673  13.798   2.967  12.750
83592SOL    HW252674  13.822   2.893  12.619
83593SOL     OW52675   7.986  12.201  11.877
83593SOL    HW152676   7.904  12.223  11.923
83593SOL    HW252677   8.052  12.199  11.946
83594SOL     OW52678  13.167  10.787   0.329
83594SOL    HW152679  13.166  10.862   0.269
83594SOL    HW252680  13.257  10.755   0.326
83595SOL     OW52681  10.008  13.488   3.620
83595SOL    HW152682   9.995  13.493   3.525
83595SOL    HW252683  10.040  13.399   3.635
83596SOL     OW52684  13.160  13.603   5.910
83596SOL    HW152685  13.114  13.617   5.993
83596SOL    HW252686  13.170  13.509   5.904
83597SOL     OW52687   1.721   5.740   2.524
83597SOL    HW152688   1.711   5.669   2.588
83597SOL    HW252689   1.675   5.709   2.446
83598SOL     OW52690   3.081  13.135   6.310
83598SOL    HW152691   3.068  13.040   6.316
83598SOL    HW252692   2.994  13.172   6.322
83599SOL     OW52693   5.248  14.398   5.075
83599SOL    HW152694   5.336  14.366   5.090
83599SOL    HW252695   5.233  14.387   4.981
83600SOL     OW52696  14.342  10.490   0.255
83600SOL    HW152697  14.369  10.539   0.333
83600SOL    HW252698  14.343  10.555   0.185
83601SOL     OW52699   0.981   8.081   2.192
83601SOL    HW152700   1.044   8.009   2.191
83601SOL    HW252701   0.939   8.077   2.106
83602SOL     OW52702   2.968   6.917  10.503
83602SOL    HW152703   2.949   7.010  10.490
83602SOL    HW252704   2.962   6.879  10.415
83603SOL     OW52705   7.562   0.276   7.864
83603SOL    HW152706   7.555   0.282   7.959
83603SOL    HW252707   7.502   0.206   7.839
83604SOL     OW52708   8.050  13.865  10.914
83604SOL    HW152709   8.043  13.959  10.897
83604SOL    HW252710   8.134  13.854  10.958
83605SOL     OW52711   4.464  13.374  10.667
83605SOL    HW152712   4.381  13.384  10.622
83605SOL    HW252713   4.456  13.291  10.714
83606SOL     OW52714  12.823  12.782   5.510
83606SOL    HW152715  12.836  12.779   5.415
83606SOL    HW252716  12.908  12.811   5.545
83607SOL     OW52717  10.423   6.914  13.812
83607SOL    HW152718  10.499   6.882  13.764
83607SOL    HW252719  10.397   6.840  13.867
83608SOL     OW52720   7.304   5.067   5.611
83608SOL    HW152721   7.287   5.112   5.528
83608SOL    HW252722   7.382   5.110   5.646
83609SOL     OW52723   8.982   6.822  11.796
83609SOL    HW152724   8.900   6.828  11.746
83609SOL    HW252725   8.997   6.911  11.828
83610SOL     OW52726   6.073  12.249   9.332
83610SOL    HW152727   6.045  12.314   9.397
83610SOL    HW252728   6.016  12.264   9.256
83611SOL     OW52729   0.510   8.693   8.232
83611SOL    HW152730   0.484   8.612   8.277
83611SOL    HW252731   0.485   8.763   8.292
83612SOL     OW52732   2.178   1.265   1.419
83612SOL    HW152733   2.150   1.229   1.503
83612SOL    HW252734   2.126   1.344   1.408
83613SOL     OW52735   9.497   3.291   3.900
83613SOL    HW152736   9.476   3.313   3.990
83613SOL    HW252737   9.516   3.197   3.902
83614SOL     OW52738   6.407   3.633   1.588
83614SOL    HW152739   6.417   3.669   1.500
83614SOL    HW252740   6.313   3.619   1.598
83615SOL     OW52741   9.517   6.541  11.193
83615SOL    HW152742   9.537   6.513  11.103
83615SOL    HW252743   9.525   6.461  11.245
83616SOL     OW52744   6.851   5.411   1.624
83616SOL    HW152745   6.917   5.477   1.604
83616SOL    HW252746   6.901   5.337   1.659
83617SOL     OW52747   8.127  12.526   3.349
83617SOL    HW152748   8.045  12.536   3.397
83617SOL    HW252749   8.185  12.481   3.411
83618SOL     OW52750   0.123   4.475   6.756
83618SOL    HW152751   0.143   4.453   6.847
83618SOL    HW252752   0.194   4.436   6.705
83619SOL     OW52753  12.187  13.106   9.066
83619SOL    HW152754  12.206  13.175   9.002
83619SOL    HW252755  12.171  13.028   9.012
83620SOL     OW52756  13.491  13.862  10.198
83620SOL    HW152757  13.512  13.949  10.165
83620SOL    HW252758  13.523  13.802  10.130
83621SOL     OW52759  10.614  12.896  11.046
83621SOL    HW152760  10.554  12.962  11.010
83621SOL    HW252761  10.676  12.947  11.099
83622SOL     OW52762   8.072  11.070   7.060
83622SOL    HW152763   7.987  11.108   7.081
83622SOL    HW252764   8.123  11.077   7.141
83623SOL     OW52765   1.357   6.122   1.277
83623SOL    HW152766   1.410   6.173   1.215
83623SOL    HW252767   1.354   6.035   1.239
83624SOL     OW52768  13.181  10.105  14.420
83624SOL    HW152769  13.179  10.027  14.474
83624SOL    HW252770  13.228  10.170  14.473
83625SOL     OW52771   1.426   1.228  13.462
83625SOL    HW152772   1.448   1.320  13.475
83625SOL    HW252773   1.367   1.207  13.534
83626SOL     OW52774  12.527   1.911  10.586
83626SOL    HW152775  12.606   1.938  10.538
83626SOL    HW252776  12.497   1.832  10.541
83627SOL     OW52777   7.254   9.632   9.280
83627SOL    HW152778   7.233   9.595   9.366
83627SOL    HW252779   7.234   9.562   9.219
83628SOL     OW52780   6.165  13.483   7.709
83628SOL    HW152781   6.168  13.576   7.728
83628SOL    HW252782   6.093  13.474   7.645
83629SOL     OW52783   6.453   0.853  11.720
83629SOL    HW152784   6.412   0.939  11.717
83629SOL    HW252785   6.475   0.840  11.813
83630SOL     OW52786   8.650  14.314  11.952
83630SOL    HW152787   8.721  14.257  11.921
83630SOL    HW252788   8.598  14.331  11.874
83631SOL     OW52789   4.874   4.700   9.324
83631SOL    HW152790   4.961   4.726   9.293
83631SOL    HW252791   4.869   4.738   9.412
83632SOL     OW52792   7.750  10.322   0.051
83632SOL    HW152793   7.825  10.272   0.018
83632SOL    HW252794   7.785  10.374   0.123
83633SOL     OW52795   4.821   7.434   9.541
83633SOL    HW152796   4.916   7.426   9.544
83633SOL    HW252797   4.799   7.423   9.449
83634SOL     OW52798   8.050  14.237   3.924
83634SOL    HW152799   7.961  14.219   3.892
83634SOL    HW252800   8.075  14.157   3.970
83635SOL     OW52801   4.184   8.358   2.477
83635SOL    HW152802   4.275   8.338   2.500
83635SOL    HW252803   4.132   8.316   2.546
83636SOL     OW52804   4.365   3.031  10.003
83636SOL    HW152805   4.443   2.982   9.976
83636SOL    HW252806   4.395   3.089  10.072
83637SOL     OW52807   2.942   3.695   2.134
83637SOL    HW152808   2.910   3.743   2.058
83637SOL    HW252809   2.978   3.614   2.099
83638SOL     OW52810   0.501   2.091  14.155
83638SOL    HW152811   0.539   2.040  14.227
83638SOL    HW252812   0.536   2.179  14.167
83639SOL     OW52813  14.167  14.098  10.177
83639SOL    HW152814  14.174  14.046  10.257
83639SOL    HW252815  14.213  14.046  10.111
83640SOL     OW52816  10.928  11.573   2.344
83640SOL    HW152817  10.976  11.543   2.421
83640SOL    HW252818  10.903  11.663   2.365
83641SOL     OW52819   8.071   5.260   8.189
83641SOL    HW152820   8.122   5.298   8.117
83641SOL    HW252821   8.103   5.304   8.267
83642SOL     OW52822   8.920   7.903  11.349
83642SOL    HW152823   8.903   7.908  11.443
83642SOL    HW252824   8.869   7.975  11.311
83643SOL     OW52825  11.937   5.679  12.613
83643SOL    HW152826  11.854   5.633  12.627
83643SOL    HW252827  11.988   5.663  12.692
83644SOL     OW52828   3.057   2.512   0.231
83644SOL    HW152829   3.150   2.497   0.210
83644SOL    HW252830   3.040   2.456   0.306
83645SOL     OW52831   3.891   5.549   5.786
83645SOL    HW152832   3.877   5.472   5.841
83645SOL    HW252833   3.841   5.530   5.706
83646SOL     OW52834  10.185   8.133   4.507
83646SOL    HW152835  10.156   8.178   4.586
83646SOL    HW252836  10.188   8.202   4.440
83647SOL     OW52837   7.587   9.730   1.616
83647SOL    HW152838   7.513   9.773   1.573
83647SOL    HW252839   7.602   9.781   1.696
83648SOL     OW52840   7.294  10.752   0.161
83648SOL    HW152841   7.367  10.697   0.187
83648SOL    HW252842   7.334  10.822   0.108
83649SOL     OW52843   9.869   8.916   9.822
83649SOL    HW152844   9.815   8.915   9.901
83649SOL    HW252845   9.950   8.959   9.849
83650SOL     OW52846   4.103   0.793   9.131
83650SOL    HW152847   4.147   0.863   9.082
83650SOL    HW252848   4.157   0.781   9.209
83651SOL     OW52849   8.046   6.181  12.537
83651SOL    HW152850   8.041   6.250  12.603
83651SOL    HW252851   8.068   6.102  12.586
83652SOL     OW52852   2.721  11.590   6.004
83652SOL    HW152853   2.778  11.565   6.077
83652SOL    HW252854   2.654  11.522   6.002
83653SOL     OW52855  10.584  10.523   2.905
83653SOL    HW152856  10.610  10.615   2.899
83653SOL    HW252857  10.642  10.486   2.972
83654SOL     OW52858   5.223  12.858  12.251
83654SOL    HW152859   5.249  12.914  12.178
83654SOL    HW252860   5.283  12.882  12.322
83655SOL     OW52861   5.382  13.377   6.985
83655SOL    HW152862   5.456  13.343   6.935
83655SOL    HW252863   5.331  13.299   7.007
83656SOL     OW52864   7.788  11.481  11.961
83656SOL    HW152865   7.846  11.462  11.888
83656SOL    HW252866   7.734  11.403  11.971
83657SOL     OW52867   2.339  13.637   4.180
83657SOL    HW152868   2.349  13.725   4.216
83657SOL    HW252869   2.411  13.587   4.218
83658SOL     OW52870   5.143   6.074   9.971
83658SOL    HW152871   5.234   6.048   9.984
83658SOL    HW252872   5.139   6.164  10.003
83659SOL     OW52873   3.657   7.566   5.226
83659SOL    HW152874   3.738   7.570   5.276
83659SOL    HW252875   3.650   7.651   5.183
83660SOL     OW52876  11.106  12.685   0.649
83660SOL    HW152877  11.020  12.642   0.657
83660SOL    HW252878  11.158  12.647   0.720
83661SOL     OW52879   0.095  14.650   0.826
83661SOL    HW152880   0.055  14.636   0.739
83661SOL    HW252881   0.185  14.618   0.816
83662SOL     OW52882   8.874   7.667  11.200
83662SOL    HW152883   8.842   7.697  11.115
83662SOL    HW252884   8.884   7.746  11.252
83663SOL     OW52885   2.736  11.978   1.161
83663SOL    HW152886   2.810  12.023   1.202
83663SOL    HW252887   2.770  11.891   1.139
83664SOL     OW52888   6.812   2.443   2.495
83664SOL    HW152889   6.905   2.440   2.471
83664SOL    HW252890   6.778   2.520   2.450
83665SOL     OW52891  10.293   9.327  14.156
83665SOL    HW152892  10.302   9.252  14.214
83665SOL    HW252893  10.376   9.329  14.107
83666SOL     OW52894   5.110   8.821   1.399
83666SOL    HW152895   5.026   8.866   1.408
83666SOL    HW252896   5.161   8.847   1.476
83667SOL     OW52897   7.811  10.614   0.657
83667SOL    HW152898   7.906  10.619   0.672
83667SOL    HW252899   7.773  10.675   0.720
83668SOL     OW52900   2.805  12.227   2.847
83668SOL    HW152901   2.784  12.150   2.901
83668SOL    HW252902   2.803  12.193   2.757
83669SOL     OW52903   4.720   0.697   0.353
83669SOL    HW152904   4.762   0.621   0.312
83669SOL    HW252905   4.628   0.672   0.362
83670SOL     OW52906  13.113   9.908   7.017
83670SOL    HW152907  13.029   9.949   7.039
83670SOL    HW252908  13.179   9.962   7.060
83671SOL     OW52909  13.387   2.752  14.343
83671SOL    HW152910  13.422   2.711  14.264
83671SOL    HW252911  13.410   2.690  14.413
83672SOL     OW52912  11.998  10.131   8.161
83672SOL    HW152913  11.934  10.111   8.228
83672SOL    HW252914  12.027  10.046   8.128
83673SOL     OW52915   5.204   3.754   9.700
83673SOL    HW152916   5.275   3.754   9.636
83673SOL    HW252917   5.124   3.748   9.648
83674SOL     OW52918  12.900   1.389   3.298
83674SOL    HW152919  12.937   1.321   3.241
83674SOL    HW252920  12.812   1.357   3.319
83675SOL     OW52921  10.577   1.098  13.958
83675SOL    HW152922  10.518   1.022  13.960
83675SOL    HW252923  10.613   1.098  13.870
83676SOL     OW52924   3.127   3.794  13.277
83676SOL    HW152925   3.175   3.849  13.340
83676SOL    HW252926   3.076   3.855  13.225
83677SOL     OW52927   7.890   3.569   3.642
83677SOL    HW152928   7.848   3.489   3.610
83677SOL    HW252929   7.875   3.568   3.737
83678SOL     OW52930   0.870  12.578   5.445
83678SOL    HW152931   0.920  12.508   5.402
83678SOL    HW252932   0.828  12.535   5.519
83679SOL     OW52933   3.236   9.489   5.015
83679SOL    HW152934   3.251   9.480   4.921
83679SOL    HW252935   3.145   9.518   5.022
83680SOL     OW52936   8.123   7.730  13.432
83680SOL    HW152937   8.217   7.730  13.450
83680SOL    HW252938   8.095   7.640  13.449
83681SOL     OW52939   7.233   4.700  13.542
83681SOL    HW152940   7.287   4.751  13.482
83681SOL    HW252941   7.179   4.765  13.587
83682SOL     OW52942   0.472  14.760   7.161
83682SOL    HW152943   0.553  14.760   7.111
83682SOL    HW252944   0.488  14.700   7.234
83683SOL     OW52945  11.351   7.983   3.699
83683SOL    HW152946  11.257   7.991   3.716
83683SOL    HW252947  11.393   8.015   3.778
83684SOL     OW52948   5.901   5.955   3.006
83684SOL    HW152949   5.921   5.923   2.918
83684SOL    HW252950   5.931   6.046   3.006
83685SOL     OW52951   9.575   9.659   6.095
83685SOL    HW152952   9.612   9.622   6.015
83685SOL    HW252953   9.519   9.591   6.130
83686SOL     OW52954   8.617   2.243   9.805
83686SOL    HW152955   8.675   2.314   9.830
83686SOL    HW252956   8.605   2.252   9.710
83687SOL     OW52957  11.761   0.025   3.594
83687SOL    HW152958  11.738   0.112   3.562
83687SOL    HW252959  11.856   0.020   3.583
83688SOL     OW52960   3.853   6.728   7.502
83688SOL    HW152961   3.866   6.641   7.463
83688SOL    HW252962   3.918   6.733   7.572
83689SOL     OW52963   3.745   8.422   8.450
83689SOL    HW152964   3.757   8.407   8.544
83689SOL    HW252965   3.650   8.434   8.440
83690SOL     OW52966  11.396   6.997   4.782
83690SOL    HW152967  11.354   7.070   4.735
83690SOL    HW252968  11.482   6.988   4.740
83691SOL     OW52969   6.626   3.884   4.177
83691SOL    HW152970   6.563   3.819   4.146
83691SOL    HW252971   6.576   3.939   4.237
83692SOL     OW52972   1.236   0.729   9.331
83692SOL    HW152973   1.148   0.721   9.294
83692SOL    HW252974   1.222   0.743   9.424
83693SOL     OW52975  13.968  12.301  12.805
83693SOL    HW152976  13.942  12.305  12.712
83693SOL    HW252977  13.887  12.279  12.851
83694SOL     OW52978   6.679   2.947  13.166
83694SOL    HW152979   6.610   2.983  13.221
83694SOL    HW252980   6.634   2.884  13.110
83695SOL     OW52981   5.083   8.233   8.204
83695SOL    HW152982   5.169   8.261   8.173
83695SOL    HW252983   5.070   8.147   8.163
83696SOL     OW52984   0.826   9.860  13.543
83696SOL    HW152985   0.858   9.771  13.534
83696SOL    HW252986   0.804   9.887  13.454
83697SOL     OW52987  10.595   5.822   0.926
83697SOL    HW152988  10.588   5.777   1.010
83697SOL    HW252989  10.687   5.849   0.921
83698SOL     OW52990  14.148   4.384  11.722
83698SOL    HW152991  14.110   4.371  11.635
83698SOL    HW252992  14.230   4.336  11.720
83699SOL     OW52993  13.488  14.176   2.308
83699SOL    HW152994  13.470  14.084   2.325
83699SOL    HW252995  13.529  14.208   2.388
83700SOL     OW52996   3.210   9.333  12.014
83700SOL    HW152997   3.133   9.387  11.997
83700SOL    HW252998   3.220   9.336  12.109
83701SOL     OW52999  11.589  14.265  11.866
83701SOL    HW153000  11.599  14.248  11.959
83701SOL    HW253001  11.608  14.182  11.824
83702SOL     OW53002  11.735   8.241   5.560
83702SOL    HW153003  11.689   8.197   5.488
83702SOL    HW253004  11.680   8.225   5.637
83703SOL     OW53005   5.139   1.269   9.829
83703SOL    HW153006   5.115   1.360   9.809
83703SOL    HW253007   5.172   1.234   9.747
83704SOL     OW53008   7.706   5.549   8.123
83704SOL    HW153009   7.673   5.491   8.191
83704SOL    HW253010   7.684   5.506   8.041
83705SOL     OW53011   3.511  12.473   7.120
83705SOL    HW153012   3.529  12.382   7.146
83705SOL    HW253013   3.532  12.525   7.198
83706SOL     OW53014  10.220  14.642   8.056
83706SOL    HW153015  10.151  14.576   8.049
83706SOL    HW253016  10.241  14.663   7.965
83707SOL     OW53017   0.598   0.724  14.464
83707SOL    HW153018   0.641   0.644  14.497
83707SOL    HW253019   0.652   0.795  14.497
83708SOL     OW53020   3.332   0.838   7.578
83708SOL    HW153021   3.250   0.874   7.612
83708SOL    HW253022   3.323   0.845   7.483
83709SOL     OW53023  14.235   8.296   1.483
83709SOL    HW153024  14.309   8.338   1.527
83709SOL    HW253025  14.188   8.368   1.441
83710SOL     OW53026  11.209   6.249   0.551
83710SOL    HW153027  11.178   6.195   0.623
83710SOL    HW253028  11.134   6.253   0.491
83711SOL     OW53029  11.824  13.135   4.810
83711SOL    HW153030  11.884  13.191   4.762
83711SOL    HW253031  11.737  13.171   4.792
83712SOL     OW53032  13.550   5.838  13.195
83712SOL    HW153033  13.497   5.813  13.120
83712SOL    HW253034  13.606   5.908  13.163
83713SOL     OW53035   3.613  10.753   9.437
83713SOL    HW153036   3.708  10.741   9.441
83713SOL    HW253037   3.577  10.667   9.459
83714SOL     OW53038   1.711   6.682  11.805
83714SOL    HW153039   1.759   6.752  11.849
83714SOL    HW253040   1.716   6.704  11.712
83715SOL     OW53041   8.142  14.677  13.016
83715SOL    HW153042   8.105  14.592  13.038
83715SOL    HW253043   8.098  14.738  13.075
83716SOL     OW53044   0.949  10.354  12.190
83716SOL    HW153045   0.968  10.269  12.230
83716SOL    HW253046   0.964  10.417  12.260
83717SOL     OW53047   8.250  10.267   3.207
83717SOL    HW153048   8.268  10.275   3.113
83717SOL    HW253049   8.317  10.208   3.239
83718SOL     OW53050  13.927   2.687   3.684
83718SOL    HW153051  13.982   2.664   3.759
83718SOL    HW253052  13.855   2.737   3.721
83719SOL     OW53053  11.695  10.067   9.023
83719SOL    HW153054  11.692  10.159   8.995
83719SOL    HW253055  11.652  10.067   9.109
83720SOL     OW53056   5.916   7.249   3.694
83720SOL    HW153057   5.975   7.177   3.673
83720SOL    HW253058   5.911   7.248   3.790
83721SOL     OW53059  10.066   4.845   4.718
83721SOL    HW153060  10.122   4.920   4.697
83721SOL    HW253061  10.112   4.770   4.679
83722SOL     OW53062   5.583   9.787   8.215
83722SOL    HW153063   5.654   9.830   8.166
83722SOL    HW253064   5.559   9.712   8.160
83723SOL     OW53065  12.549   8.631   2.813
83723SOL    HW153066  12.616   8.619   2.881
83723SOL    HW253067  12.466   8.613   2.857
83724SOL     OW53068   7.380  10.736   4.482
83724SOL    HW153069   7.295  10.705   4.513
83724SOL    HW253070   7.404  10.806   4.543
83725SOL     OW53071   5.041  11.002  11.289
83725SOL    HW153072   5.092  11.036  11.362
83725SOL    HW253073   5.005  11.080  11.246
83726SOL     OW53074  14.813   9.783   0.845
83726SOL    HW153075   0.009   9.762   0.781
83726SOL    HW253076  14.798   9.700   0.891
83727SOL     OW53077  13.458   2.381   4.355
83727SOL    HW153078  13.520   2.445   4.319
83727SOL    HW253079  13.506   2.298   4.354
83728SOL     OW53080   0.491   6.286   1.468
83728SOL    HW153081   0.422   6.258   1.528
83728SOL    HW253082   0.564   6.226   1.487
83729SOL     OW53083   0.631   5.734   5.933
83729SOL    HW153084   0.597   5.671   5.997
83729SOL    HW253085   0.687   5.792   5.984
83730SOL     OW53086   4.224   8.692   1.866
83730SOL    HW153087   4.169   8.722   1.938
83730SOL    HW253088   4.201   8.600   1.856
83731SOL     OW53089  11.593   1.928   4.743
83731SOL    HW153090  11.529   1.863   4.714
83731SOL    HW253091  11.641   1.885   4.813
83732SOL     OW53092   2.098   2.899  11.482
83732SOL    HW153093   2.194   2.906  11.480
83732SOL    HW253094   2.071   2.925  11.394
83733SOL     OW53095   7.478  13.876  14.746
83733SOL    HW153096   7.520  13.826  14.816
83733SOL    HW253097   7.437  13.950  14.791
83734SOL     OW53098   2.194   8.123  10.309
83734SOL    HW153099   2.202   8.061  10.236
83734SOL    HW253100   2.243   8.200  10.281
83735SOL     OW53101   0.536  13.918   0.131
83735SOL    HW153102   0.545  14.002   0.176
83735SOL    HW253103   0.562  13.936   0.041
83736SOL     OW53104   7.158   5.481  10.359
83736SOL    HW153105   7.201   5.411  10.310
83736SOL    HW253106   7.189   5.561  10.319
83737SOL     OW53107   7.540  13.904   6.749
83737SOL    HW153108   7.502  13.828   6.793
83737SOL    HW253109   7.465  13.953   6.716
83738SOL     OW53110   4.774  11.680  14.560
83738SOL    HW153111   4.819  11.660  14.478
83738SOL    HW253112   4.738  11.596  14.589
83739SOL     OW53113   9.132  13.315   8.353
83739SOL    HW153114   9.195  13.247   8.329
83739SOL    HW253115   9.071  13.318   8.279
83740SOL     OW53116   6.913   7.862  13.644
83740SOL    HW153117   6.879   7.948  13.618
83740SOL    HW253118   7.005   7.862  13.618
83741SOL     OW53119   5.551   0.761  11.968
83741SOL    HW153120   5.484   0.700  11.939
83741SOL    HW253121   5.547   0.833  11.905
83742SOL     OW53122  10.679   7.314   9.634
83742SOL    HW153123  10.615   7.246   9.610
83742SOL    HW253124  10.710   7.288   9.720
83743SOL     OW53125  10.307   2.104   1.547
83743SOL    HW153126  10.287   2.035   1.609
83743SOL    HW253127  10.255   2.179   1.577
83744SOL     OW53128  10.083   9.325   7.605
83744SOL    HW153129  10.160   9.334   7.661
83744SOL    HW253130  10.119   9.314   7.517
83745SOL     OW53131  11.624   5.853   9.336
83745SOL    HW153132  11.715   5.847   9.365
83745SOL    HW253133  11.611   5.777   9.279
83746SOL     OW53134   3.771   3.698   4.670
83746SOL    HW153135   3.806   3.773   4.621
83746SOL    HW253136   3.775   3.725   4.761
83747SOL     OW53137   7.989  10.612   5.939
83747SOL    HW153138   7.982  10.581   6.030
83747SOL    HW253139   8.083  10.616   5.923
83748SOL     OW53140   4.564   5.350  10.995
83748SOL    HW153141   4.470   5.364  11.009
83748SOL    HW253142   4.592   5.428  10.947
83749SOL     OW53143  12.820   4.385  14.256
83749SOL    HW153144  12.860   4.305  14.291
83749SOL    HW253145  12.726   4.366  14.255
83750SOL     OW53146   2.266   9.335  12.367
83750SOL    HW153147   2.286   9.318  12.275
83750SOL    HW253148   2.350   9.324  12.412
83751SOL     OW53149   7.021   7.169  10.780
83751SOL    HW153150   7.086   7.205  10.720
83751SOL    HW253151   6.947   7.145  10.723
83752SOL     OW53152   2.004   1.662  13.021
83752SOL    HW153153   2.031   1.614  12.943
83752SOL    HW253154   2.076   1.722  13.039
83753SOL     OW53155   1.989   0.400  11.080
83753SOL    HW153156   2.010   0.311  11.109
83753SOL    HW253157   1.924   0.388  11.011
83754SOL     OW53158   0.409   5.033  14.122
83754SOL    HW153159   0.340   4.974  14.152
83754SOL    HW253160   0.481   5.019  14.184
83755SOL     OW53161   6.990   6.803  14.334
83755SOL    HW153162   7.029   6.850  14.261
83755SOL    HW253163   7.039   6.832  14.411
83756SOL     OW53164   7.382  12.493   8.036
83756SOL    HW153165   7.326  12.494   7.959
83756SOL    HW253166   7.443  12.567   8.023
83757SOL     OW53167   2.338   2.438   6.289
83757SOL    HW153168   2.368   2.464   6.377
83757SOL    HW253169   2.415   2.398   6.249
83758SOL     OW53170   4.129   1.437   6.772
83758SOL    HW153171   4.093   1.518   6.736
83758SOL    HW253172   4.201   1.466   6.829
83759SOL     OW53173   8.859   9.366   7.345
83759SOL    HW153174   8.881   9.388   7.255
83759SOL    HW253175   8.770   9.331   7.340
83760SOL     OW53176  14.107   5.580   8.517
83760SOL    HW153177  14.178   5.638   8.545
83760SOL    HW253178  14.056   5.563   8.596
83761SOL     OW53179   7.678   6.574   9.756
83761SOL    HW153180   7.771   6.574   9.733
83761SOL    HW253181   7.677   6.565   9.851
83762SOL     OW53182  10.340   9.731  14.049
83762SOL    HW153183  10.433   9.715  14.034
83762SOL    HW253184  10.338   9.809  14.104
83763SOL     OW53185  11.408  12.683   3.359
83763SOL    HW153186  11.503  12.678   3.357
83763SOL    HW253187  11.386  12.760   3.306
83764SOL     OW53188  10.187  13.558   2.314
83764SOL    HW153189  10.158  13.581   2.226
83764SOL    HW253190  10.140  13.478   2.335
83765SOL     OW53191   8.963   7.693   8.637
83765SOL    HW153192   9.030   7.625   8.638
83765SOL    HW253193   8.967   7.729   8.549
83766SOL     OW53194  10.380   6.105  11.269
83766SOL    HW153195  10.441   6.031  11.267
83766SOL    HW253196  10.419   6.169  11.208
83767SOL     OW53197   7.996   1.057   3.012
83767SOL    HW153198   8.055   1.068   2.938
83767SOL    HW253199   7.940   1.135   3.009
83768SOL     OW53200   4.776   1.098   8.505
83768SOL    HW153201   4.797   1.192   8.502
83768SOL    HW253202   4.801   1.070   8.593
83769SOL     OW53203   1.491   0.372   9.874
83769SOL    HW153204   1.547   0.315   9.821
83769SOL    HW253205   1.536   0.456   9.874
83770SOL     OW53206  14.698  14.117   0.792
83770SOL    HW153207  14.770  14.177   0.773
83770SOL    HW253208  14.670  14.140   0.881
83771SOL     OW53209   6.509  13.548  12.663
83771SOL    HW153210   6.531  13.455  12.672
83771SOL    HW253211   6.584  13.594  12.701
83772SOL     OW53212   2.705   7.360   6.911
83772SOL    HW153213   2.787   7.409   6.918
83772SOL    HW253214   2.648   7.397   6.978
83773SOL     OW53215   9.963  12.700  11.502
83773SOL    HW153216   9.974  12.746  11.419
83773SOL    HW253217   9.889  12.640  11.486
83774SOL     OW53218   9.452   4.493   0.541
83774SOL    HW153219   9.420   4.583   0.535
83774SOL    HW253220   9.512   4.493   0.616
83775SOL     OW53221  14.191   3.747  13.523
83775SOL    HW153222  14.110   3.711  13.558
83775SOL    HW253223  14.164   3.823  13.472
83776SOL     OW53224   8.931   6.829   7.521
83776SOL    HW153225   8.848   6.845   7.475
83776SOL    HW253226   8.987   6.788   7.455
83777SOL     OW53227   6.102   1.363   2.827
83777SOL    HW153228   6.114   1.273   2.798
83777SOL    HW253229   6.189   1.402   2.821
83778SOL     OW53230  11.168   8.742   3.998
83778SOL    HW153231  11.249   8.774   4.037
83778SOL    HW253232  11.124   8.821   3.965
83779SOL     OW53233   7.936  11.858  12.623
83779SOL    HW153234   7.880  11.818  12.557
83779SOL    HW253235   7.908  11.817  12.706
83780SOL     OW53236   7.429   2.165   5.254
83780SOL    HW153237   7.345   2.144   5.295
83780SOL    HW253238   7.409   2.236   5.193
83781SOL     OW53239  13.706   4.641   9.654
83781SOL    HW153240  13.767   4.570   9.670
83781SOL    HW253241  13.743   4.688   9.579
83782SOL     OW53242   1.091   3.093   0.746
83782SOL    HW153243   1.072   2.999   0.743
83782SOL    HW253244   1.088   3.115   0.839
83783SOL     OW53245   4.941  12.668   4.966
83783SOL    HW153246   4.991  12.671   5.048
83783SOL    HW253247   4.934  12.575   4.945
83784SOL     OW53248  14.203   0.198   7.254
83784SOL    HW153249  14.116   0.230   7.232
83784SOL    HW253250  14.208   0.111   7.214
83785SOL     OW53251  12.684   0.105  10.285
83785SOL    HW153252  12.639   0.113  10.369
83785SOL    HW253253  12.746   0.177  10.284
83786SOL     OW53254  11.837   7.066  13.483
83786SOL    HW153255  11.771   7.006  13.449
83786SOL    HW253256  11.910   7.057  13.423
83787SOL     OW53257   2.338  10.599   7.581
83787SOL    HW153258   2.320  10.682   7.626
83787SOL    HW253259   2.295  10.607   7.497
83788SOL     OW53260   5.006   8.689   6.457
83788SOL    HW153261   4.989   8.596   6.468
83788SOL    HW253262   4.947   8.716   6.387
83789SOL     OW53263   6.506   6.786  13.635
83789SOL    HW153264   6.445   6.857  13.657
83789SOL    HW253265   6.590   6.815  13.670
83790SOL     OW53266   2.491   2.834   9.194
83790SOL    HW153267   2.427   2.824   9.124
83790SOL    HW253268   2.475   2.759   9.251
83791SOL     OW53269  11.505  10.048   8.054
83791SOL    HW153270  11.509  10.118   7.989
83791SOL    HW253271  11.442  10.079   8.119
83792SOL     OW53272   5.319   0.122   1.774
83792SOL    HW153273   5.313   0.209   1.734
83792SOL    HW253274   5.307   0.138   1.868
83793SOL     OW53275   8.923   7.083  11.903
83793SOL    HW153276   8.835   7.048  11.891
83793SOL    HW253277   8.914   7.147  11.974
83794SOL     OW53278   5.021   1.435   1.542
83794SOL    HW153279   4.946   1.453   1.485
83794SOL    HW253280   5.092   1.412   1.482
83795SOL     OW53281  11.172   8.091  11.990
83795SOL    HW153282  11.187   8.029  11.919
83795SOL    HW253283  11.254   8.091  12.040
83796SOL     OW53284  12.235   4.986   7.766
83796SOL    HW153285  12.146   4.951   7.761
83796SOL    HW253286  12.286   4.916   7.806
83797SOL     OW53287  11.374   1.570   1.474
83797SOL    HW153288  11.403   1.509   1.406
83797SOL    HW253289  11.423   1.650   1.457
83798SOL     OW53290   1.925   7.023  13.941
83798SOL    HW153291   1.899   7.013  13.849
83798SOL    HW253292   1.906   7.115  13.961
83799SOL     OW53293   1.280   0.176   5.366
83799SOL    HW153294   1.235   0.175   5.281
83799SOL    HW253295   1.348   0.109   5.358
83800SOL     OW53296  12.058  11.495   0.531
83800SOL    HW153297  12.082  11.530   0.445
83800SOL    HW253298  11.963  11.491   0.529
83801SOL     OW53299   6.995   4.459   2.455
83801SOL    HW153300   7.050   4.425   2.526
83801SOL    HW253301   6.964   4.380   2.410
83802SOL     OW53302   5.526  11.538   7.817
83802SOL    HW153303   5.545  11.592   7.894
83802SOL    HW253304   5.509  11.451   7.853
83803SOL     OW53305  13.959   2.021   6.630
83803SOL    HW153306  14.019   1.974   6.687
83803SOL    HW253307  13.887   2.047   6.687
83804SOL     OW53308   7.997  11.706  13.761
83804SOL    HW153309   8.005  11.753  13.844
83804SOL    HW253310   8.063  11.746  13.704
83805SOL     OW53311   8.585   5.906   4.651
83805SOL    HW153312   8.590   5.980   4.592
83805SOL    HW253313   8.610   5.830   4.597
83806SOL     OW53314  13.268   3.798   3.529
83806SOL    HW153315  13.329   3.858   3.487
83806SOL    HW253316  13.279   3.812   3.623
83807SOL     OW53317   7.107  14.133   0.836
83807SOL    HW153318   7.163  14.211   0.835
83807SOL    HW253319   7.061  14.138   0.919
83808SOL     OW53320   7.576   8.918   3.272
83808SOL    HW153321   7.649   8.893   3.215
83808SOL    HW253322   7.585   8.862   3.349
83809SOL     OW53323  11.977  14.450   6.285
83809SOL    HW153324  11.914  14.511   6.247
83809SOL    HW253325  12.008  14.493   6.365
83810SOL     OW53326   0.358   8.154   7.857
83810SOL    HW153327   0.419   8.199   7.916
83810SOL    HW253328   0.315   8.089   7.913
83811SOL     OW53329   6.149   7.674   2.069
83811SOL    HW153330   6.223   7.734   2.079
83811SOL    HW253331   6.145   7.656   1.975
83812SOL     OW53332  12.459   5.911   4.254
83812SOL    HW153333  12.472   5.929   4.347
83812SOL    HW253334  12.478   5.818   4.244
83813SOL     OW53335  11.432   4.577   9.870
83813SOL    HW153336  11.513   4.609   9.830
83813SOL    HW253337  11.397   4.652   9.917
83814SOL     OW53338   0.606   5.801  10.029
83814SOL    HW153339   0.624   5.709  10.051
83814SOL    HW253340   0.514   5.814  10.051
83815SOL     OW53341   3.499  13.023   1.756
83815SOL    HW153342   3.558  13.090   1.721
83815SOL    HW253343   3.541  12.994   1.837
83816SOL     OW53344  10.412   9.094   1.747
83816SOL    HW153345  10.497   9.087   1.789
83816SOL    HW253346  10.430   9.091   1.653
83817SOL     OW53347   2.560  11.016   0.086
83817SOL    HW153348   2.564  10.972   0.002
83817SOL    HW253349   2.619  11.091   0.076
83818SOL     OW53350   7.520   4.309   4.246
83818SOL    HW153351   7.582   4.335   4.314
83818SOL    HW253352   7.491   4.222   4.273
83819SOL     OW53353   8.531   1.567  10.590
83819SOL    HW153354   8.471   1.496  10.570
83819SOL    HW253355   8.478   1.633  10.635
83820SOL     OW53356   3.676   6.558  12.901
83820SOL    HW153357   3.696   6.602  12.984
83820SOL    HW253358   3.761   6.549  12.858
83821SOL     OW53359  10.087   2.319   4.810
83821SOL    HW153360  10.134   2.402   4.815
83821SOL    HW253361   9.995   2.343   4.817
83822SOL     OW53362  10.443  13.059  12.924
83822SOL    HW153363  10.348  13.053  12.936
83822SOL    HW253364  10.454  13.080  12.831
83823SOL     OW53365  11.295  11.321   0.252
83823SOL    HW153366  11.309  11.234   0.216
83823SOL    HW253367  11.380  11.365   0.243
83824SOL     OW53368  13.873   4.726  10.906
83824SOL    HW153369  13.962   4.704  10.877
83824SOL    HW253370  13.822   4.732  10.825
83825SOL     OW53371  12.746   0.791   1.818
83825SOL    HW153372  12.689   0.770   1.745
83825SOL    HW253373  12.800   0.713   1.831
83826SOL     OW53374   4.637   0.111   2.403
83826SOL    HW153375   4.562   0.170   2.412
83826SOL    HW253376   4.600   0.029   2.371
83827SOL     OW53377   9.546   6.342   0.592
83827SOL    HW153378   9.534   6.358   0.498
83827SOL    HW253379   9.490   6.267   0.611
83828SOL     OW53380   2.168  11.482   4.974
83828SOL    HW153381   2.139  11.548   4.911
83828SOL    HW253382   2.091  11.428   4.989
83829SOL     OW53383   3.654  10.202   1.750
83829SOL    HW153384   3.691  10.187   1.663
83829SOL    HW253385   3.701  10.140   1.806
83830SOL     OW53386   6.267  14.584   1.212
83830SOL    HW153387   6.344  14.596   1.268
83830SOL    HW253388   6.213  14.521   1.259
83831SOL     OW53389   3.158   5.280  12.294
83831SOL    HW153390   3.212   5.300  12.371
83831SOL    HW253391   3.070   5.306  12.319
83832SOL     OW53392   8.999   2.737   3.003
83832SOL    HW153393   8.997   2.763   3.096
83832SOL    HW253394   8.997   2.820   2.955
83833SOL     OW53395   8.163   4.960   2.710
83833SOL    HW153396   8.082   5.004   2.683
83833SOL    HW253397   8.165   4.972   2.805
83834SOL     OW53398   4.626  13.525  10.807
83834SOL    HW153399   4.711  13.492  10.779
83834SOL    HW253400   4.563  13.483  10.749
83835SOL     OW53401  10.022   8.593  12.283
83835SOL    HW153402   9.987   8.513  12.323
83835SOL    HW253403  10.087   8.561  12.220
83836SOL     OW53404   2.380  11.199   5.285
83836SOL    HW153405   2.394  11.171   5.376
83836SOL    HW253406   2.292  11.237   5.285
83837SOL     OW53407   5.793   6.031  11.890
83837SOL    HW153408   5.735   5.986  11.951
83837SOL    HW253409   5.828   6.104  11.940
83838SOL     OW53410   3.229   2.886  10.388
83838SOL    HW153411   3.196   2.845  10.468
83838SOL    HW253412   3.248   2.812  10.330
83839SOL     OW53413   0.341   3.994   5.276
83839SOL    HW153414   0.247   4.003   5.293
83839SOL    HW253415   0.353   3.900   5.261
83840SOL     OW53416   0.880  13.302  11.380
83840SOL    HW153417   0.976  13.299  11.383
83840SOL    HW253418   0.855  13.344  11.462
83841SOL     OW53419   3.776   7.544  10.931
83841SOL    HW153420   3.728   7.470  10.895
83841SOL    HW253421   3.811   7.590  10.854
83842SOL     OW53422  13.033   6.871   7.698
83842SOL    HW153423  13.063   6.787   7.663
83842SOL    HW253424  13.062   6.935   7.634
83843SOL     OW53425   9.470  10.426  10.110
83843SOL    HW153426   9.435  10.432  10.021
83843SOL    HW253427   9.549  10.480  10.108
83844SOL     OW53428   6.827  13.564  13.198
83844SOL    HW153429   6.845  13.651  13.162
83844SOL    HW253430   6.888  13.555  13.271
83845SOL     OW53431   2.318   2.755   7.797
83845SOL    HW153432   2.398   2.787   7.756
83845SOL    HW253433   2.272   2.708   7.727
83846SOL     OW53434   1.930  14.815   2.453
83846SOL    HW153435   1.993  14.825   2.524
83846SOL    HW253436   1.859  14.764   2.490
83847SOL     OW53437   5.307  11.507   1.750
83847SOL    HW153438   5.359  11.428   1.763
83847SOL    HW253439   5.334  11.539   1.664
83848SOL     OW53440   9.362  11.340   0.822
83848SOL    HW153441   9.395  11.252   0.803
83848SOL    HW253442   9.330  11.372   0.737
83849SOL     OW53443   0.028   3.792   7.669
83849SOL    HW153444   0.103   3.849   7.685
83849SOL    HW253445  14.863   3.824   7.587
83850SOL     OW53446   1.966  10.621  14.418
83850SOL    HW153447   1.885  10.616  14.469
83850SOL    HW253448   1.948  10.688  14.352
83851SOL     OW53449   2.846   0.693   6.627
83851SOL    HW153450   2.905   0.636   6.576
83851SOL    HW253451   2.766   0.642   6.635
83852SOL     OW53452  13.441   3.613   5.626
83852SOL    HW153453  13.517   3.556   5.635
83852SOL    HW253454  13.382   3.585   5.696
83853SOL     OW53455   2.810   6.794   6.390
83853SOL    HW153456   2.861   6.753   6.321
83853SOL    HW253457   2.836   6.748   6.470
83854SOL     OW53458   1.862  12.818   2.933
83854SOL    HW153459   1.874  12.882   2.863
83854SOL    HW253460   1.776  12.838   2.969
83855SOL     OW53461   0.710   4.640   1.182
83855SOL    HW153462   0.799   4.611   1.161
83855SOL    HW253463   0.713   4.667   1.273
83856SOL     OW53464   5.278   6.295  14.389
83856SOL    HW153465   5.246   6.316  14.301
83856SOL    HW253466   5.214   6.232  14.422
83857SOL     OW53467   3.702  11.205   1.338
83857SOL    HW153468   3.714  11.259   1.259
83857SOL    HW253469   3.707  11.267   1.410
83858SOL     OW53470   2.981   0.305   1.317
83858SOL    HW153471   2.907   0.365   1.311
83858SOL    HW253472   2.983   0.278   1.408
83859SOL     OW53473  13.449   5.289   5.496
83859SOL    HW153474  13.483   5.293   5.586
83859SOL    HW253475  13.382   5.357   5.493
83860SOL     OW53476  12.740   9.051  14.104
83860SOL    HW153477  12.721   9.138  14.140
83860SOL    HW253478  12.833   9.055  14.079
83861SOL     OW53479   3.786   3.858   0.054
83861SOL    HW153480   3.721   3.789   0.068
83861SOL    HW253481   3.807   3.854  14.833
83862SOL     OW53482   0.178   4.395   9.643
83862SOL    HW153483   0.257   4.357   9.682
83862SOL    HW253484   0.206   4.421   9.555
83863SOL     OW53485   8.715   1.483  14.395
83863SOL    HW153486   8.741   1.470  14.487
83863SOL    HW253487   8.673   1.401  14.370
83864SOL     OW53488   9.752   1.197  14.804
83864SOL    HW153489   9.738   1.128  14.869
83864SOL    HW253490   9.799   1.266  14.851
83865SOL     OW53491  12.407  13.649   7.521
83865SOL    HW153492  12.380  13.667   7.431
83865SOL    HW253493  12.371  13.721   7.572
83866SOL     OW53494  12.850   9.827   6.134
83866SOL    HW153495  12.827   9.751   6.080
83866SOL    HW253496  12.813   9.902   6.086
83867SOL     OW53497   6.493   3.358   7.753
83867SOL    HW153498   6.465   3.299   7.683
83867SOL    HW253499   6.535   3.431   7.709
83868SOL     OW53500   8.320   3.510  12.443
83868SOL    HW153501   8.357   3.512  12.531
83868SOL    HW253502   8.312   3.417  12.422
83869SOL     OW53503   4.279   6.362   4.032
83869SOL    HW153504   4.353   6.383   3.974
83869SOL    HW253505   4.280   6.266   4.038
83870SOL     OW53506   5.859   7.226   2.736
83870SOL    HW153507   5.787   7.166   2.758
83870SOL    HW253508   5.893   7.193   2.653
83871SOL     OW53509  13.730   4.702   7.115
83871SOL    HW153510  13.795   4.760   7.076
83871SOL    HW253511  13.725   4.729   7.207
83872SOL     OW53512   4.752  10.945  13.487
83872SOL    HW153513   4.803  11.000  13.429
83872SOL    HW253514   4.667  10.988  13.492
83873SOL     OW53515   6.782   7.216  12.644
83873SOL    HW153516   6.817   7.165  12.571
83873SOL    HW253517   6.767   7.303  12.608
83874SOL     OW53518   1.508   6.713  13.316
83874SOL    HW153519   1.564   6.790  13.306
83874SOL    HW253520   1.420   6.748  13.326
83875SOL     OW53521   8.339   5.379   9.777
83875SOL    HW153522   8.263   5.403   9.725
83875SOL    HW253523   8.413   5.384   9.716
83876SOL     OW53524   5.014  11.571   2.768
83876SOL    HW153525   5.004  11.490   2.817
83876SOL    HW253526   5.014  11.544   2.676
83877SOL     OW53527  12.893   6.556  11.194
83877SOL    HW153528  12.863   6.630  11.247
83877SOL    HW253529  12.813   6.522  11.153
83878SOL     OW53530  10.266   6.565  11.831
83878SOL    HW153531  10.179   6.531  11.849
83878SOL    HW253532  10.251   6.648  11.787
83879SOL     OW53533  12.027   3.755   0.765
83879SOL    HW153534  12.104   3.780   0.714
83879SOL    HW253535  12.047   3.667   0.796
83880SOL     OW53536   3.514   2.988   5.159
83880SOL    HW153537   3.486   2.925   5.225
83880SOL    HW253538   3.443   2.989   5.095
83881SOL     OW53539  10.509  12.580   0.904
83881SOL    HW153540  10.498  12.485   0.904
83881SOL    HW253541  10.451  12.610   0.974
83882SOL     OW53542  13.104   6.579  14.553
83882SOL    HW153543  13.177   6.576  14.491
83882SOL    HW253544  13.049   6.652  14.523
83883SOL     OW53545   3.233   1.732   9.483
83883SOL    HW153546   3.178   1.702   9.555
83883SOL    HW253547   3.317   1.754   9.523
83884SOL     OW53548   1.704   6.881   2.845
83884SOL    HW153549   1.617   6.888   2.886
83884SOL    HW253550   1.735   6.794   2.868
83885SOL     OW53551  13.965   4.560   8.119
83885SOL    HW153552  13.985   4.504   8.194
83885SOL    HW253553  13.920   4.636   8.156
83886SOL     OW53554  11.061  12.355   4.313
83886SOL    HW153555  11.157  12.354   4.314
83886SOL    HW253556  11.037  12.426   4.373
83887SOL     OW53557   5.237  11.840  13.840
83887SOL    HW153558   5.189  11.910  13.796
83887SOL    HW253559   5.189  11.760  13.821
83888SOL     OW53560  14.578  14.805   5.549
83888SOL    HW153561  14.623  14.803   5.633
83888SOL    HW253562  14.569  14.713   5.525
83889SOL     OW53563   4.210   0.230   9.540
83889SOL    HW153564   4.242   0.141   9.552
83889SOL    HW253565   4.221   0.272   9.625
83890SOL     OW53566   3.627   9.390   7.571
83890SOL    HW153567   3.532   9.378   7.572
83890SOL    HW253568   3.651   9.396   7.663
83891SOL     OW53569   0.969   5.025   1.018
83891SOL    HW153570   0.965   4.930   1.010
83891SOL    HW253571   0.890   5.048   1.067
83892SOL     OW53572   0.432   6.986   2.979
83892SOL    HW153573   0.480   7.035   3.045
83892SOL    HW253574   0.364   7.046   2.948
83893SOL     OW53575   9.194  12.594   7.007
83893SOL    HW153576   9.144  12.676   7.009
83893SOL    HW253577   9.285  12.622   7.017
83894SOL     OW53578   7.788   5.365  11.575
83894SOL    HW153579   7.871   5.323  11.597
83894SOL    HW253580   7.812   5.439  11.518
83895SOL     OW53581   2.142   5.731  13.727
83895SOL    HW153582   2.219   5.783  13.703
83895SOL    HW253583   2.173   5.673  13.796
83896SOL     OW53584  10.772  14.077  12.728
83896SOL    HW153585  10.786  13.986  12.702
83896SOL    HW253586  10.816  14.128  12.661
83897SOL     OW53587  10.194  10.083   1.230
83897SOL    HW153588  10.259  10.065   1.298
83897SOL    HW253589  10.246  10.110   1.154
83898SOL     OW53590   5.386   9.278   5.865
83898SOL    HW153591   5.292   9.267   5.847
83898SOL    HW253592   5.408   9.205   5.922
83899SOL     OW53593  14.061   3.500   3.568
83899SOL    HW153594  13.984   3.468   3.522
83899SOL    HW253595  14.048   3.595   3.575
83900SOL     OW53596  11.484  12.386   1.894
83900SOL    HW153597  11.448  12.469   1.927
83900SOL    HW253598  11.510  12.406   1.804
83901SOL     OW53599  10.884   8.628  12.223
83901SOL    HW153600  10.886   8.705  12.166
83901SOL    HW253601  10.821   8.569  12.182
83902SOL     OW53602  14.505   4.050   1.738
83902SOL    HW153603  14.541   4.139   1.735
83902SOL    HW253604  14.569   3.997   1.693
83903SOL     OW53605   5.217  14.001   5.312
83903SOL    HW153606   5.192  14.093   5.305
83903SOL    HW253607   5.299  13.994   5.264
83904SOL     OW53608  13.890  12.644  13.874
83904SOL    HW153609  13.842  12.713  13.828
83904SOL    HW253610  13.979  12.678  13.882
83905SOL     OW53611   6.255   3.085   7.798
83905SOL    HW153612   6.272   3.066   7.705
83905SOL    HW253613   6.165   3.118   7.799
83906SOL     OW53614   0.137   0.013   5.249
83906SOL    HW153615   0.150   0.105   5.271
83906SOL    HW253616   0.182   0.002   5.165
83907SOL     OW53617   4.346  10.019  14.383
83907SOL    HW153618   4.324  10.089  14.444
83907SOL    HW253619   4.388  10.063  14.310
83908SOL     OW53620  11.953   8.401   8.158
83908SOL    HW153621  11.899   8.355   8.093
83908SOL    HW253622  11.916   8.375   8.242
83909SOL     OW53623   8.620  14.043   8.740
83909SOL    HW153624   8.598  13.979   8.807
83909SOL    HW253625   8.639  14.123   8.788
83910SOL     OW53626  14.546  13.028  13.397
83910SOL    HW153627  14.560  13.119  13.372
83910SOL    HW253628  14.634  12.990  13.397
83911SOL     OW53629  11.898   5.609  14.211
83911SOL    HW153630  11.970   5.595  14.150
83911SOL    HW253631  11.901   5.534  14.270
83912SOL     OW53632   3.521   3.444   7.168
83912SOL    HW153633   3.515   3.362   7.217
83912SOL    HW253634   3.611   3.473   7.181
83913SOL     OW53635  13.605   4.583   3.831
83913SOL    HW153636  13.672   4.649   3.812
83913SOL    HW253637  13.646   4.500   3.807
83914SOL     OW53638  11.390  12.919   4.196
83914SOL    HW153639  11.368  12.967   4.276
83914SOL    HW253640  11.340  12.838   4.202
83915SOL     OW53641  10.730   4.580   1.308
83915SOL    HW153642  10.768   4.581   1.220
83915SOL    HW253643  10.772   4.653   1.354
83916SOL     OW53644  10.334   5.139   1.815
83916SOL    HW153645  10.246   5.174   1.831
83916SOL    HW253646  10.384   5.162   1.894
83917SOL     OW53647  12.419   9.819  13.113
83917SOL    HW153648  12.467   9.889  13.157
83917SOL    HW253649  12.485   9.753  13.093
83918SOL     OW53650   3.447  12.882   2.756
83918SOL    HW153651   3.542  12.879   2.747
83918SOL    HW253652   3.432  12.894   2.850
83919SOL     OW53653   8.283  14.744  14.133
83919SOL    HW153654   8.228  14.675  14.170
83919SOL    HW253655   8.260  14.822  14.184
83920SOL     OW53656   2.441  10.339   2.540
83920SOL    HW153657   2.414  10.302   2.456
83920SOL    HW253658   2.396  10.286   2.605
83921SOL     OW53659   1.259   3.588   9.267
83921SOL    HW153660   1.173   3.572   9.229
83921SOL    HW253661   1.321   3.565   9.197
83922SOL     OW53662   0.791  13.160  10.561
83922SOL    HW153663   0.774  13.245  10.603
83922SOL    HW253664   0.838  13.183  10.481
83923SOL     OW53665   3.698  14.371  10.194
83923SOL    HW153666   3.739  14.393  10.277
83923SOL    HW253667   3.698  14.276  10.191
83924SOL     OW53668   0.523   2.000  12.105
83924SOL    HW153669   0.484   2.087  12.114
83924SOL    HW253670   0.455   1.939  12.133
83925SOL     OW53671  10.555   6.085  13.754
83925SOL    HW153672  10.561   6.180  13.746
83925SOL    HW253673  10.560   6.053  13.664
83926SOL     OW53674   7.239   3.498   3.298
83926SOL    HW153675   7.190   3.580   3.307
83926SOL    HW253676   7.235   3.478   3.205
83927SOL     OW53677   8.723   1.070  13.842
83927SOL    HW153678   8.760   0.983  13.857
83927SOL    HW253679   8.680   1.064  13.757
83928SOL     OW53680   7.513   4.316   6.732
83928SOL    HW153681   7.574   4.246   6.755
83928SOL    HW253682   7.515   4.320   6.636
83929SOL     OW53683   9.791   9.754   1.808
83929SOL    HW153684   9.768   9.784   1.896
83929SOL    HW253685   9.753   9.666   1.803
83930SOL     OW53686  12.321  10.835  11.884
83930SOL    HW153687  12.414  10.841  11.860
83930SOL    HW253688  12.318  10.860  11.976
83931SOL     OW53689   6.701   5.185   5.868
83931SOL    HW153690   6.651   5.130   5.808
83931SOL    HW253691   6.766   5.125   5.906
83932SOL     OW53692   7.022  10.535  10.043
83932SOL    HW153693   6.969  10.459  10.064
83932SOL    HW253694   6.968  10.587   9.985
83933SOL     OW53695   9.310  14.245   2.142
83933SOL    HW153696   9.223  14.282   2.129
83933SOL    HW253697   9.327  14.256   2.236
83934SOL     OW53698  14.000  14.465  14.474
83934SOL    HW153699  14.073  14.475  14.535
83934SOL    HW253700  13.940  14.405  14.518
83935SOL     OW53701   4.095   9.515   4.347
83935SOL    HW153702   4.115   9.597   4.393
83935SOL    HW253703   4.176   9.464   4.355
83936SOL     OW53704  14.243  12.386   4.167
83936SOL    HW153705  14.203  12.451   4.224
83936SOL    HW253706  14.175  12.319   4.157
83937SOL     OW53707   1.386   3.044  14.152
83937SOL    HW153708   1.380   3.136  14.175
83937SOL    HW253709   1.326   3.000  14.212
83938SOL     OW53710   2.775   6.774  11.288
83938SOL    HW153711   2.866   6.745  11.288
83938SOL    HW253712   2.765   6.821  11.371
83939SOL     OW53713   7.611   1.584   2.161
83939SOL    HW153714   7.660   1.505   2.184
83939SOL    HW253715   7.526   1.551   2.131
83940SOL     OW53716   9.185   9.987   1.071
83940SOL    HW153717   9.209  10.050   1.139
83940SOL    HW253718   9.250   9.918   1.079
83941SOL     OW53719   6.729   2.748  12.205
83941SOL    HW153720   6.738   2.799  12.125
83941SOL    HW253721   6.817   2.744  12.241
83942SOL     OW53722   7.507   0.322   6.444
83942SOL    HW153723   7.434   0.353   6.391
83942SOL    HW253724   7.470   0.253   6.498
83943SOL     OW53725   3.050   3.262  11.036
83943SOL    HW153726   3.094   3.211  11.104
83943SOL    HW253727   3.046   3.203  10.961
83944SOL     OW53728  11.456   3.290   0.175
83944SOL    HW153729  11.488   3.349   0.243
83944SOL    HW253730  11.528   3.228   0.161
83945SOL     OW53731   2.787  10.459   4.868
83945SOL    HW153732   2.725  10.417   4.928
83945SOL    HW253733   2.867  10.406   4.875
83946SOL     OW53734   1.626   9.163   9.430
83946SOL    HW153735   1.688   9.185   9.360
83946SOL    HW253736   1.657   9.212   9.506
83947SOL     OW53737  10.824   2.109   4.672
83947SOL    HW153738  10.764   2.180   4.648
83947SOL    HW253739  10.789   2.032   4.627
83948SOL     OW53740   2.996   7.363  14.429
83948SOL    HW153741   3.024   7.420  14.357
83948SOL    HW253742   3.011   7.274  14.397
83949SOL     OW53743  12.846   8.813  12.645
83949SOL    HW153744  12.872   8.905  12.642
83949SOL    HW253745  12.751   8.815  12.658
83950SOL     OW53746   9.903   5.522   8.718
83950SOL    HW153747   9.969   5.591   8.715
83950SOL    HW253748   9.950   5.443   8.688
83951SOL     OW53749   7.956   9.165   6.206
83951SOL    HW153750   8.009   9.238   6.173
83951SOL    HW253751   7.900   9.141   6.133
83952SOL     OW53752   5.788   5.364   1.912
83952SOL    HW153753   5.850   5.433   1.939
83952SOL    HW253754   5.843   5.299   1.869
83953SOL     OW53755  10.913   8.011   2.779
83953SOL    HW153756  10.895   7.994   2.687
83953SOL    HW253757  10.911   8.106   2.787
83954SOL     OW53758  11.610   1.943   0.249
83954SOL    HW153759  11.591   2.016   0.190
83954SOL    HW253760  11.704   1.930   0.241
83955SOL     OW53761   2.467   2.709   6.582
83955SOL    HW153762   2.409   2.695   6.507
83955SOL    HW253763   2.411   2.747   6.649
83956SOL     OW53764  13.060  11.084  10.976
83956SOL    HW153765  13.133  11.086  10.914
83956SOL    HW253766  13.032  11.175  10.983
83957SOL     OW53767  12.502   4.392   1.528
83957SOL    HW153768  12.571   4.454   1.502
83957SOL    HW253769  12.540   4.306   1.511
83958SOL     OW53770  11.163  14.842   1.009
83958SOL    HW153771  11.106   0.013   1.072
83958SOL    HW253772  11.225   0.037   0.981
83959SOL     OW53773  12.558  13.418   3.366
83959SOL    HW153774  12.500  13.494   3.367
83959SOL    HW253775  12.631  13.443   3.422
83960SOL     OW53776   7.727   4.980  11.761
83960SOL    HW153777   7.653   5.041  11.753
83960SOL    HW253778   7.707   4.927  11.838
83961SOL     OW53779   8.084   4.910  13.189
83961SOL    HW153780   8.060   4.818  13.181
83961SOL    HW253781   8.129   4.931  13.107
83962SOL     OW53782   7.955   9.242   1.173
83962SOL    HW153783   7.956   9.243   1.269
83962SOL    HW253784   7.938   9.150   1.151
83963SOL     OW53785   3.969   3.145   0.280
83963SOL    HW153786   4.011   3.194   0.351
83963SOL    HW253787   3.972   3.205   0.205
83964SOL     OW53788   9.601  12.335   5.232
83964SOL    HW153789   9.540  12.347   5.160
83964SOL    HW253790   9.596  12.241   5.253
83965SOL     OW53791   1.439   4.654   2.643
83965SOL    HW153792   1.480   4.589   2.585
83965SOL    HW253793   1.380   4.602   2.698
83966SOL     OW53794   9.666  10.161   9.236
83966SOL    HW153795   9.609  10.209   9.176
83966SOL    HW253796   9.682  10.221   9.309
83967SOL     OW53797  13.813  10.547   1.519
83967SOL    HW153798  13.836  10.624   1.572
83967SOL    HW253799  13.753  10.581   1.452
83968SOL     OW53800   9.144   2.872   2.574
83968SOL    HW153801   9.220   2.929   2.562
83968SOL    HW253802   9.175   2.803   2.633
83969SOL     OW53803   2.907   4.931  10.996
83969SOL    HW153804   2.970   4.909  10.928
83969SOL    HW253805   2.929   5.021  11.021
83970SOL     OW53806   7.461  14.635   5.644
83970SOL    HW153807   7.532  14.690   5.679
83970SOL    HW253808   7.416  14.691   5.581
83971SOL     OW53809   9.167   6.923   5.129
83971SOL    HW153810   9.180   7.007   5.086
83971SOL    HW253811   9.165   6.945   5.223
83972SOL     OW53812   6.621  11.417   4.933
83972SOL    HW153813   6.530  11.445   4.934
83972SOL    HW253814   6.619  11.330   4.974
83973SOL     OW53815  11.891  13.583   8.552
83973SOL    HW153816  11.914  13.659   8.497
83973SOL    HW253817  11.860  13.517   8.490
83974SOL     OW53818   2.832   3.702   0.034
83974SOL    HW153819   2.784   3.619   0.024
83974SOL    HW253820   2.913   3.689  14.857
83975SOL     OW53821   7.283   3.130   5.814
83975SOL    HW153822   7.334   3.187   5.872
83975SOL    HW253823   7.283   3.176   5.730
83976SOL     OW53824   1.716   7.033  11.031
83976SOL    HW153825   1.679   7.107  11.079
83976SOL    HW253826   1.806   7.058  11.014
83977SOL     OW53827  13.346   6.255   9.081
83977SOL    HW153828  13.391   6.269   9.165
83977SOL    HW253829  13.390   6.179   9.043
83978SOL     OW53830  11.431   3.154   6.530
83978SOL    HW153831  11.413   3.060   6.525
83978SOL    HW253832  11.379   3.192   6.459
83979SOL     OW53833   1.296   0.876   0.102
83979SOL    HW153834   1.278   0.922   0.184
83979SOL    HW253835   1.212   0.878   0.056
83980SOL     OW53836   5.394   5.276   6.611
83980SOL    HW153837   5.409   5.368   6.636
83980SOL    HW253838   5.335   5.242   6.677
83981SOL     OW53839   0.815   2.447   2.682
83981SOL    HW153840   0.771   2.373   2.640
83981SOL    HW253841   0.790   2.522   2.630
83982SOL     OW53842   0.273  10.097   9.347
83982SOL    HW153843   0.361  10.093   9.383
83982SOL    HW253844   0.285  10.085   9.253
83983SOL     OW53845   6.616   5.268   6.680
83983SOL    HW153846   6.563   5.205   6.728
83983SOL    HW253847   6.584   5.354   6.710
83984SOL     OW53848   0.257   5.658   2.330
83984SOL    HW153849   0.299   5.641   2.415
83984SOL    HW253850   0.185   5.595   2.326
83985SOL     OW53851   2.317   3.302   4.338
83985SOL    HW153852   2.353   3.251   4.411
83985SOL    HW253853   2.254   3.362   4.378
83986SOL     OW53854   2.658   3.198   2.534
83986SOL    HW153855   2.586   3.229   2.588
83986SOL    HW253856   2.702   3.278   2.505
83987SOL     OW53857   9.911   6.335   6.545
83987SOL    HW153858   9.884   6.328   6.454
83987SOL    HW253859   9.835   6.373   6.590
83988SOL     OW53860   6.110   2.181   5.978
83988SOL    HW153861   6.205   2.170   5.982
83988SOL    HW253862   6.089   2.236   6.053
83989SOL     OW53863   2.642  14.802   9.343
83989SOL    HW153864   2.729  14.784   9.307
83989SOL    HW253865   2.611  14.717   9.374
83990SOL     OW53866   4.671   9.468   3.040
83990SOL    HW153867   4.707   9.406   2.977
83990SOL    HW253868   4.746   9.520   3.069
83991SOL     OW53869   0.207   2.309   6.678
83991SOL    HW153870   0.184   2.385   6.625
83991SOL    HW253871   0.245   2.247   6.617
83992SOL     OW53872   7.806  10.682   6.465
83992SOL    HW153873   7.852  10.712   6.543
83992SOL    HW253874   7.727  10.737   6.461
83993SOL     OW53875   6.089  10.438  14.299
83993SOL    HW153876   6.092  10.371  14.230
83993SOL    HW253877   6.170  10.487  14.288
83994SOL     OW53878   1.432   2.566   9.577
83994SOL    HW153879   1.406   2.580   9.668
83994SOL    HW253880   1.358   2.520   9.537
83995SOL     OW53881   8.555   6.030  10.319
83995SOL    HW153882   8.610   6.026  10.397
83995SOL    HW253883   8.576   5.951  10.270
83996SOL     OW53884   9.230  12.586  12.623
83996SOL    HW153885   9.315  12.627  12.609
83996SOL    HW253886   9.237  12.500  12.581
83997SOL     OW53887   5.782   1.890  10.119
83997SOL    HW153888   5.687   1.887  10.135
83997SOL    HW253889   5.822   1.872  10.204
83998SOL     OW53890   7.050   7.849   8.625
83998SOL    HW153891   6.962   7.839   8.591
83998SOL    HW253892   7.041   7.839   8.720
83999SOL     OW53893   0.807   7.638   4.467
83999SOL    HW153894   0.856   7.642   4.385
83999SOL    HW253895   0.813   7.726   4.504
84000SOL     OW53896   5.640  14.674  12.361
84000SOL    HW153897   5.578  14.613  12.321
84000SOL    HW253898   5.726  14.644  12.332
84001SOL     OW53899  11.937  11.861   5.864
84001SOL    HW153900  11.964  11.783   5.913
84001SOL    HW253901  11.851  11.840   5.829
84002SOL     OW53902  11.361   8.906   5.185
84002SOL    HW153903  11.431   8.872   5.129
84002SOL    HW253904  11.402   8.917   5.271
84003SOL     OW53905   2.540   5.052  12.942
84003SOL    HW153906   2.478   5.037  12.870
84003SOL    HW253907   2.487   5.041  13.021
84004SOL     OW53908  10.337   1.336   5.543
84004SOL    HW153909  10.304   1.355   5.455
84004SOL    HW253910  10.433   1.335   5.532
84005SOL     OW53911   2.217   7.726  11.364
84005SOL    HW153912   2.229   7.784  11.289
84005SOL    HW253913   2.239   7.780  11.440
84006SOL     OW53914  14.343   2.834   7.836
84006SOL    HW153915  14.424   2.874   7.869
84006SOL    HW253916  14.281   2.907   7.832
84007SOL     OW53917   4.273   8.840   4.012
84007SOL    HW153918   4.314   8.902   4.072
84007SOL    HW253919   4.316   8.756   4.032
84008SOL     OW53920   5.243  12.772   7.452
84008SOL    HW153921   5.263  12.781   7.545
84008SOL    HW253922   5.152  12.801   7.444
84009SOL     OW53923   3.755   5.773   6.108
84009SOL    HW153924   3.701   5.850   6.088
84009SOL    HW253925   3.843   5.809   6.121
84010SOL     OW53926  13.182   6.555   7.922
84010SOL    HW153927  13.191   6.463   7.944
84010SOL    HW253928  13.271   6.589   7.923
84011SOL     OW53929   9.985   4.289   0.517
84011SOL    HW153930  10.021   4.374   0.541
84011SOL    HW253931   9.903   4.283   0.565
84012SOL     OW53932  10.990   8.304  13.487
84012SOL    HW153933  11.038   8.244  13.430
84012SOL    HW253934  11.008   8.274  13.575
84013SOL     OW53935   4.995  10.980   4.379
84013SOL    HW153936   4.927  10.998   4.313
84013SOL    HW253937   4.949  10.984   4.463
84014SOL     OW53938   4.314   7.746  10.728
84014SOL    HW153939   4.379   7.681  10.702
84014SOL    HW253940   4.230   7.702  10.715
84015SOL     OW53941  14.842  14.181   4.996
84015SOL    HW153942  14.826  14.086   4.991
84015SOL    HW253943   0.064  14.188   5.010
84016SOL     OW53944   3.353   3.442   9.992
84016SOL    HW153945   3.375   3.355   9.959
84016SOL    HW253946   3.269   3.430  10.036
84017SOL     OW53947  13.831   0.135  12.615
84017SOL    HW153948  13.841   0.055  12.564
84017SOL    HW253949  13.810   0.202  12.550
84018SOL     OW53950  13.820   6.206   5.583
84018SOL    HW153951  13.887   6.216   5.515
84018SOL    HW253952  13.746   6.167   5.538
84019SOL     OW53953   9.809   3.919   0.658
84019SOL    HW153954   9.750   3.905   0.585
84019SOL    HW253955   9.828   3.831   0.691
84020SOL     OW53956   3.705   8.206   5.286
84020SOL    HW153957   3.752   8.137   5.240
84020SOL    HW253958   3.613   8.178   5.282
84021SOL     OW53959   5.262   0.628   1.033
84021SOL    HW153960   5.236   0.702   1.087
84021SOL    HW253961   5.204   0.632   0.957
84022SOL     OW53962   0.195  12.878   4.110
84022SOL    HW153963   0.214  12.848   4.021
84022SOL    HW253964   0.100  12.876   4.116
84023SOL     OW53965  12.187  12.133  10.012
84023SOL    HW153966  12.127  12.135   9.937
84023SOL    HW253967  12.142  12.183  10.080
84024SOL     OW53968  13.749   5.242   0.503
84024SOL    HW153969  13.689   5.168   0.497
84024SOL    HW253970  13.764   5.253   0.597
84025SOL     OW53971   3.732   1.604   5.394
84025SOL    HW153972   3.659   1.661   5.372
84025SOL    HW253973   3.757   1.563   5.311
84026SOL     OW53974   6.182   6.183   8.459
84026SOL    HW153975   6.128   6.204   8.534
84026SOL    HW253976   6.253   6.248   8.461
84027SOL     OW53977   6.266   7.107   0.798
84027SOL    HW153978   6.239   7.193   0.767
84027SOL    HW253979   6.275   7.118   0.893
84028SOL     OW53980   4.447  12.335   3.985
84028SOL    HW153981   4.354  12.315   3.975
84028SOL    HW253982   4.485  12.317   3.899
84029SOL     OW53983  13.721  12.118   0.259
84029SOL    HW153984  13.800  12.121   0.314
84029SOL    HW253985  13.725  12.033   0.215
84030SOL     OW53986   7.983  10.223   7.682
84030SOL    HW153987   7.958  10.291   7.620
84030SOL    HW253988   7.984  10.143   7.631
84031SOL     OW53989   3.830  10.478   6.073
84031SOL    HW153990   3.814  10.454   5.981
84031SOL    HW253991   3.754  10.444   6.120
84032SOL     OW53992   5.910  10.750   7.504
84032SOL    HW153993   5.902  10.688   7.432
84032SOL    HW253994   5.950  10.700   7.575
84033SOL     OW53995   1.575  11.951  11.113
84033SOL    HW153996   1.538  11.867  11.140
84033SOL    HW253997   1.542  12.014  11.176
84034SOL     OW53998  14.749   2.081   9.259
84034SOL    HW153999  14.732   2.175   9.257
84034SOL    HW254000  14.757   2.060   9.352
84035SOL     OW54001  11.101  13.712  11.010
84035SOL    HW154002  11.105  13.659  10.931
84035SOL    HW254003  11.082  13.801  10.979
84036SOL     OW54004   8.167   5.101  13.984
84036SOL    HW154005   8.101   5.078  14.050
84036SOL    HW254006   8.241   5.135  14.034
84037SOL     OW54007  11.976  10.776  11.249
84037SOL    HW154008  12.035  10.725  11.304
84037SOL    HW254009  12.033  10.834  11.199
84038SOL     OW54010   1.346   7.248   3.233
84038SOL    HW154011   1.325   7.339   3.214
84038SOL    HW254012   1.313   7.233   3.321
84039SOL     OW54013   4.427  11.121   1.527
84039SOL    HW154014   4.395  11.045   1.479
84039SOL    HW254015   4.503  11.151   1.478
84040SOL     OW54016  10.789   5.672   2.144
84040SOL    HW154017  10.831   5.753   2.174
84040SOL    HW254018  10.695   5.692   2.146
84041SOL     OW54019  14.636  11.060   2.349
84041SOL    HW154020  14.604  11.150   2.359
84041SOL    HW254021  14.732  11.070   2.347
84042SOL     OW54022   7.682   6.056   7.682
84042SOL    HW154023   7.752   6.051   7.748
84042SOL    HW254024   7.715   6.116   7.616
84043SOL     OW54025   6.047  12.293   3.947
84043SOL    HW154026   5.978  12.327   4.005
84043SOL    HW254027   6.098  12.370   3.923
84044SOL     OW54028   2.881  14.428  10.259
84044SOL    HW154029   2.903  14.386  10.342
84044SOL    HW254030   2.900  14.362  10.193
84045SOL     OW54031   0.851  14.057  12.152
84045SOL    HW154032   0.859  13.964  12.133
84045SOL    HW254033   0.927  14.077  12.207
84046SOL     OW54034  13.947  12.144   0.411
84046SOL    HW154035  13.979  12.074   0.468
84046SOL    HW254036  14.011  12.214   0.421
84047SOL     OW54037   5.261  13.858   4.980
84047SOL    HW154038   5.220  13.774   5.003
84047SOL    HW254039   5.343  13.859   5.028
84048SOL     OW54040   0.675   1.959   9.864
84048SOL    HW154041   0.685   1.902   9.788
84048SOL    HW254042   0.681   2.048   9.827
84049SOL     OW54043   9.132  11.377   8.565
84049SOL    HW154044   9.159  11.354   8.654
84049SOL    HW254045   9.209  11.420   8.528
84050SOL     OW54046   4.367  10.427   6.146
84050SOL    HW154047   4.321  10.358   6.194
84050SOL    HW254048   4.306  10.501   6.148
84051SOL     OW54049   0.932   9.464  14.494
84051SOL    HW154050   0.881   9.383  14.496
84051SOL    HW254051   0.884   9.524  14.551
84052SOL     OW54052   8.739   4.865   8.706
84052SOL    HW154053   8.677   4.937   8.715
84052SOL    HW254054   8.806   4.898   8.646
84053SOL     OW54055   8.331  11.764   2.275
84053SOL    HW154056   8.366  11.836   2.328
84053SOL    HW254057   8.333  11.688   2.332
84054SOL     OW54058   7.616   7.656  13.021
84054SOL    HW154059   7.552   7.607  13.073
84054SOL    HW254060   7.682   7.683  13.083
84055SOL     OW54061   1.620   4.155   2.250
84055SOL    HW154062   1.575   4.106   2.180
84055SOL    HW254063   1.712   4.155   2.224
84056SOL     OW54064   7.823   9.510  14.222
84056SOL    HW154065   7.917   9.496  14.216
84056SOL    HW254066   7.786   9.423  14.234
84057SOL     OW54067  11.748   4.211   2.946
84057SOL    HW154068  11.770   4.158   3.023
84057SOL    HW254069  11.831   4.224   2.901
84058SOL     OW54070  14.345   2.859   3.460
84058SOL    HW154071  14.282   2.786   3.460
84058SOL    HW254072  14.349   2.887   3.369
84059SOL     OW54073  12.638   7.605   1.754
84059SOL    HW154074  12.553   7.561   1.760
84059SOL    HW254075  12.653   7.640   1.842
84060SOL     OW54076   5.425   5.773   3.625
84060SOL    HW154077   5.516   5.799   3.632
84060SOL    HW254078   5.411   5.711   3.696
84061SOL     OW54079  11.762   2.808   4.565
84061SOL    HW154080  11.776   2.768   4.651
84061SOL    HW254081  11.734   2.736   4.509
84062SOL     OW54082   4.658   5.462   1.827
84062SOL    HW154083   4.637   5.371   1.806
84062SOL    HW254084   4.691   5.499   1.746
84063SOL     OW54085   6.981   5.419   9.766
84063SOL    HW154086   7.058   5.472   9.747
84063SOL    HW254087   6.947   5.454   9.849
84064SOL     OW54088   1.469  10.217   8.415
84064SOL    HW154089   1.447  10.296   8.366
84064SOL    HW254090   1.398  10.155   8.396
84065SOL     OW54091   2.405   1.009   9.917
84065SOL    HW154092   2.406   0.955   9.838
84065SOL    HW254093   2.330   1.067   9.905
84066SOL     OW54094  13.408   8.565   1.665
84066SOL    HW154095  13.425   8.588   1.757
84066SOL    HW254096  13.449   8.635   1.615
84067SOL     OW54097  11.373   9.342  14.479
84067SOL    HW154098  11.363   9.298  14.564
84067SOL    HW254099  11.383   9.271  14.416
84068SOL     OW54100   0.500   6.233   7.152
84068SOL    HW154101   0.589   6.237   7.187
84068SOL    HW254102   0.505   6.277   7.067
84069SOL     OW54103   8.552   5.597   5.950
84069SOL    HW154104   8.541   5.619   6.043
84069SOL    HW254105   8.472   5.628   5.908
84070SOL     OW54106  11.705   5.225   0.252
84070SOL    HW154107  11.732   5.288   0.319
84070SOL    HW254108  11.751   5.144   0.276
84071SOL     OW54109   7.055  13.452  11.808
84071SOL    HW154110   7.118  13.399  11.857
84071SOL    HW254111   7.094  13.462  11.721
84072SOL     OW54112  14.784  14.317   6.271
84072SOL    HW154113  14.845  14.323   6.345
84072SOL    HW254114  14.779  14.223   6.253
84073SOL     OW54115   6.829   9.409   6.138
84073SOL    HW154116   6.862   9.362   6.061
84073SOL    HW254117   6.760   9.352   6.172
84074SOL     OW54118  11.374   1.125   7.463
84074SOL    HW154119  11.438   1.161   7.401
84074SOL    HW254120  11.424   1.109   7.543
84075SOL     OW54121   8.735  14.480  14.011
84075SOL    HW154122   8.658  14.429  13.985
84075SOL    HW254123   8.784  14.423  14.070
84076SOL     OW54124   3.487  10.937  12.365
84076SOL    HW154125   3.513  11.027  12.386
84076SOL    HW254126   3.393  10.943  12.346
84077SOL     OW54127   1.919  14.592  13.403
84077SOL    HW154128   1.938  14.556  13.490
84077SOL    HW254129   1.855  14.661  13.420
84078SOL     OW54130   7.711  13.831  12.090
84078SOL    HW154131   7.657  13.754  12.068
84078SOL    HW254132   7.680  13.857  12.176
84079SOL     OW54133   8.616   9.112  13.482
84079SOL    HW154134   8.565   9.083  13.558
84079SOL    HW254135   8.550   9.141  13.418
84080SOL     OW54136  12.614   8.375  14.471
84080SOL    HW154137  12.655   8.460  14.483
84080SOL    HW254138  12.527   8.385  14.510
84081SOL     OW54139   6.199   1.624   6.633
84081SOL    HW154140   6.237   1.540   6.609
84081SOL    HW254141   6.229   1.640   6.722
84082SOL     OW54142   9.365   4.749  12.182
84082SOL    HW154143   9.364   4.747  12.086
84082SOL    HW254144   9.429   4.817  12.204
84083SOL     OW54145   2.970   7.239   9.639
84083SOL    HW154146   2.881   7.205   9.630
84083SOL    HW254147   2.990   7.230   9.732
84084SOL     OW54148  12.394   9.028  14.480
84084SOL    HW154149  12.426   8.953  14.430
84084SOL    HW254150  12.432   9.104  14.436
84085SOL     OW54151   5.332  11.886  13.354
84085SOL    HW154152   5.239  11.879  13.334
84085SOL    HW254153   5.342  11.839  13.437
84086SOL     OW54154   1.052   2.192   3.943
84086SOL    HW154155   1.098   2.255   3.887
84086SOL    HW254156   1.049   2.112   3.892
84087SOL     OW54157   8.316   4.093  11.597
84087SOL    HW154158   8.221   4.086  11.600
84087SOL    HW254159   8.341   4.044  11.519
84088SOL     OW54160  12.176   6.318   7.481
84088SOL    HW154161  12.165   6.243   7.423
84088SOL    HW254162  12.258   6.302   7.527
84089SOL     OW54163   3.061   9.886  10.790
84089SOL    HW154164   3.004   9.957  10.821
84089SOL    HW254165   3.023   9.807  10.827
84090SOL     OW54166   9.417   5.504   2.658
84090SOL    HW154167   9.442   5.596   2.654
84090SOL    HW254168   9.469   5.463   2.588
84091SOL     OW54169   0.982   8.429   4.263
84091SOL    HW154170   0.979   8.433   4.167
84091SOL    HW254171   0.907   8.375   4.287
84092SOL     OW54172   0.919   0.360   2.460
84092SOL    HW154173   0.850   0.425   2.471
84092SOL    HW254174   0.977   0.396   2.393
84093SOL     OW54175   9.490   5.424   5.483
84093SOL    HW154176   9.482   5.506   5.531
84093SOL    HW254177   9.535   5.365   5.544
84094SOL     OW54178  10.831   6.089  11.160
84094SOL    HW154179  10.778   6.068  11.237
84094SOL    HW254180  10.828   6.010  11.106
84095SOL     OW54181   7.250   9.440   7.192
84095SOL    HW154182   7.182   9.386   7.232
84095SOL    HW254183   7.204   9.491   7.125
84096SOL     OW54184   3.992   1.270   0.706
84096SOL    HW154185   3.983   1.206   0.635
84096SOL    HW254186   3.954   1.351   0.670
84097SOL     OW54187   0.373   5.524   6.042
84097SOL    HW154188   0.416   5.466   5.979
84097SOL    HW254189   0.348   5.466   6.114
84098SOL     OW54190   5.526   8.751   5.417
84098SOL    HW154191   5.554   8.792   5.499
84098SOL    HW254192   5.575   8.797   5.349
84099SOL     OW54193  12.212   5.872   0.434
84099SOL    HW154194  12.116   5.863   0.433
84099SOL    HW254195  12.243   5.785   0.459
84100SOL     OW54196  14.227   2.315  10.782
84100SOL    HW154197  14.144   2.351  10.751
84100SOL    HW254198  14.292   2.382  10.761
84101SOL     OW54199  11.154   5.288  14.071
84101SOL    HW154200  11.114   5.270  14.156
84101SOL    HW254201  11.121   5.219  14.014
84102SOL     OW54202   1.463   0.498  11.664
84102SOL    HW154203   1.513   0.561  11.612
84102SOL    HW254204   1.530   0.443  11.705
84103SOL     OW54205   3.444   1.814   0.443
84103SOL    HW154206   3.417   1.902   0.415
84103SOL    HW254207   3.367   1.759   0.430
84104SOL     OW54208  10.116   0.361  10.277
84104SOL    HW154209  10.104   0.329  10.367
84104SOL    HW254210  10.082   0.450  10.279
84105SOL     OW54211  13.540  14.164   9.496
84105SOL    HW154212  13.479  14.234   9.520
84105SOL    HW254213  13.605  14.207   9.440
84106SOL     OW54214   1.710   2.671   1.393
84106SOL    HW154215   1.618   2.650   1.383
84106SOL    HW254216   1.746   2.666   1.305
84107SOL     OW54217   9.289  13.600  10.264
84107SOL    HW154218   9.378  13.597  10.228
84107SOL    HW254219   9.256  13.511  10.254
84108SOL     OW54220   4.072   8.325   7.861
84108SOL    HW154221   4.134   8.306   7.932
84108SOL    HW254222   4.123   8.312   7.781
84109SOL     OW54223  11.499   5.907  12.850
84109SOL    HW154224  11.577   5.930  12.800
84109SOL    HW254225  11.429   5.957  12.810
84110SOL     OW54226  12.585  11.667  14.268
84110SOL    HW154227  12.666  11.617  14.264
84110SOL    HW254228  12.613  11.759  14.268
84111SOL     OW54229   1.999  11.675  10.360
84111SOL    HW154230   1.926  11.632  10.403
84111SOL    HW254231   2.022  11.616  10.288
84112SOL     OW54232   6.542   2.751   1.389
84112SOL    HW154233   6.492   2.821   1.348
84112SOL    HW254234   6.622   2.793   1.421
84113SOL     OW54235   8.860   1.371  12.695
84113SOL    HW154236   8.887   1.396  12.607
84113SOL    HW254237   8.920   1.418  12.753
84114SOL     OW54238   2.997  10.379   3.820
84114SOL    HW154239   2.982  10.288   3.793
84114SOL    HW254240   2.964  10.383   3.910
84115SOL     OW54241  10.482   8.727  10.383
84115SOL    HW154242  10.495   8.634  10.399
84115SOL    HW254243  10.545   8.770  10.441
84116SOL     OW54244   7.714  14.102  11.078
84116SOL    HW154245   7.662  14.059  11.147
84116SOL    HW254246   7.701  14.195  11.093
84117SOL     OW54247   7.554   5.636  10.210
84117SOL    HW154248   7.570   5.593  10.126
84117SOL    HW254249   7.572   5.569  10.276
84118SOL     OW54250  14.475   8.665   5.177
84118SOL    HW154251  14.470   8.573   5.152
84118SOL    HW254252  14.390   8.701   5.151
84119SOL     OW54253   0.702  14.541  11.826
84119SOL    HW154254   0.759  14.487  11.882
84119SOL    HW254255   0.707  14.628  11.864
84120SOL     OW54256   7.265   9.678  11.816
84120SOL    HW154257   7.174   9.679  11.786
84120SOL    HW254258   7.304   9.602  11.772
84121SOL     OW54259  13.762   5.999   9.822
84121SOL    HW154260  13.818   6.073   9.844
84121SOL    HW254261  13.743   6.010   9.728
84122SOL     OW54262   7.066   5.487  13.933
84122SOL    HW154263   7.029   5.441  13.859
84122SOL    HW254264   7.106   5.419  13.987
84123SOL     OW54265   9.804  11.843  13.710
84123SOL    HW154266   9.784  11.776  13.775
84123SOL    HW254267   9.860  11.798  13.646
84124SOL     OW54268  13.822  14.378   6.518
84124SOL    HW154269  13.910  14.352   6.492
84124SOL    HW254270  13.833  14.421   6.602
84125SOL     OW54271  11.702   4.375  11.255
84125SOL    HW154272  11.632   4.358  11.193
84125SOL    HW254273  11.781   4.384  11.201
84126SOL     OW54274   9.943  11.735   7.005
84126SOL    HW154275   9.868  11.736   6.946
84126SOL    HW254276   9.937  11.652   7.051
84127SOL     OW54277   8.989   2.329  10.712
84127SOL    HW154278   9.028   2.254  10.758
84127SOL    HW254279   8.951   2.382  10.781
84128SOL     OW54280   3.880  13.098   9.548
84128SOL    HW154281   3.947  13.063   9.607
84128SOL    HW254282   3.912  13.076   9.460
84129SOL     OW54283  10.688   1.920   5.210
84129SOL    HW154284  10.727   1.888   5.291
84129SOL    HW254285  10.671   2.013   5.225
84130SOL     OW54286   2.265  13.408  11.676
84130SOL    HW154287   2.281  13.460  11.597
84130SOL    HW254288   2.227  13.470  11.738
84131SOL     OW54289   5.567  11.001   7.520
84131SOL    HW154290   5.662  10.994   7.513
84131SOL    HW254291   5.542  11.061   7.449
84132SOL     OW54292   8.151   0.093   7.442
84132SOL    HW154293   8.168   0.187   7.437
84132SOL    HW254294   8.194   0.065   7.523
84133SOL     OW54295   2.407  12.106   1.846
84133SOL    HW154296   2.452  12.173   1.795
84133SOL    HW254297   2.447  12.112   1.933
84134SOL     OW54298   8.450   0.530  10.433
84134SOL    HW154299   8.535   0.488  10.417
84134SOL    HW254300   8.388   0.480  10.380
84135SOL     OW54301  11.376   6.484   5.292
84135SOL    HW154302  11.408   6.406   5.246
84135SOL    HW254303  11.370   6.457   5.384
84136SOL     OW54304  10.138   4.257  10.212
84136SOL    HW154305  10.130   4.292  10.123
84136SOL    HW254306  10.178   4.171  10.201
84137SOL     OW54307   3.813  11.387   0.122
84137SOL    HW154308   3.906  11.369   0.111
84137SOL    HW254309   3.790  11.439   0.045
84138SOL     OW54310   6.618  11.537   2.052
84138SOL    HW154311   6.532  11.578   2.055
84138SOL    HW254312   6.680  11.606   2.075
84139SOL     OW54313   9.086  10.127   5.446
84139SOL    HW154314   9.056  10.183   5.518
84139SOL    HW254315   9.071  10.038   5.477
84140SOL     OW54316  14.305  12.536   3.375
84140SOL    HW154317  14.231  12.499   3.423
84140SOL    HW254318  14.344  12.461   3.330
84141SOL     OW54319   2.509   6.565  11.497
84141SOL    HW154320   2.577   6.504  11.468
84141SOL    HW254321   2.453   6.576  11.420
84142SOL     OW54322   4.442   2.073   5.432
84142SOL    HW154323   4.429   2.162   5.466
84142SOL    HW254324   4.531   2.073   5.397
84143SOL     OW54325  11.869   0.815   3.158
84143SOL    HW154326  11.859   0.896   3.209
84143SOL    HW254327  11.964   0.801   3.154
84144SOL     OW54328   7.046   8.935   3.960
84144SOL    HW154329   6.992   8.999   4.006
84144SOL    HW254330   7.051   8.967   3.870
84145SOL     OW54331  14.602   0.113  14.191
84145SOL    HW154332  14.533   0.050  14.168
84145SOL    HW254333  14.629   0.086  14.279
84146SOL     OW54334  10.031   1.929   5.581
84146SOL    HW154335   9.983   1.865   5.528
84146SOL    HW254336   9.968   1.955   5.649
84147SOL     OW54337   5.211   9.323  14.498
84147SOL    HW154338   5.216   9.408  14.456
84147SOL    HW254339   5.205   9.261  14.426
84148SOL     OW54340   2.920   3.610  12.178
84148SOL    HW154341   2.888   3.636  12.091
84148SOL    HW254342   3.012   3.635  12.178
84149SOL     OW54343   6.133   1.815   7.380
84149SOL    HW154344   6.104   1.888   7.326
84149SOL    HW254345   6.064   1.805   7.446
84150SOL     OW54346  11.964   4.343   7.116
84150SOL    HW154347  11.930   4.286   7.185
84150SOL    HW254348  12.011   4.284   7.057
84151SOL     OW54349   9.355   4.473   3.942
84151SOL    HW154350   9.382   4.436   3.858
84151SOL    HW254351   9.290   4.540   3.919
84152SOL     OW54352  14.072   4.316  13.424
84152SOL    HW154353  14.165   4.334  13.436
84152SOL    HW254354  14.032   4.333  13.509
84153SOL     OW54355  10.449   7.824  11.377
84153SOL    HW154356  10.422   7.776  11.299
84153SOL    HW254357  10.388   7.795  11.446
84154SOL     OW54358   0.624   1.964  13.068
84154SOL    HW154359   0.529   1.966  13.060
84154SOL    HW254360   0.641   1.913  13.147
84155SOL     OW54361   2.246  12.973  13.864
84155SOL    HW154362   2.164  12.926  13.877
84155SOL    HW254363   2.235  13.054  13.915
84156SOL     OW54364   9.411   5.884   3.224
84156SOL    HW154365   9.418   5.947   3.295
84156SOL    HW254366   9.399   5.937   3.145
84157SOL     OW54367   0.452  14.747   0.368
84157SOL    HW154368   0.466  14.819   0.307
84157SOL    HW254369   0.371  14.769   0.414
84158SOL     OW54370   1.911   6.938  12.255
84158SOL    HW154371   1.887   6.912  12.166
84158SOL    HW254372   1.847   6.894  12.311
84159SOL     OW54373   4.484   3.662   8.909
84159SOL    HW154374   4.401   3.623   8.879
84159SOL    HW254375   4.513   3.605   8.980
84160SOL     OW54376  13.496   1.679  13.206
84160SOL    HW154377  13.532   1.765  13.227
84160SOL    HW254378  13.514   1.667  13.113
84161SOL     OW54379   6.029   2.960  14.137
84161SOL    HW154380   6.032   2.956  14.041
84161SOL    HW254381   6.119   2.942  14.165
84162SOL     OW54382   1.260   2.224   1.361
84162SOL    HW154383   1.290   2.239   1.451
84162SOL    HW254384   1.189   2.161   1.370
84163SOL     OW54385  10.632   4.596   3.647
84163SOL    HW154386  10.612   4.679   3.603
84163SOL    HW254387  10.715   4.567   3.608
84164SOL     OW54388   5.624   9.302  13.182
84164SOL    HW154389   5.606   9.389  13.219
84164SOL    HW254390   5.646   9.248  13.258
84165SOL     OW54391  10.585  13.760   0.652
84165SOL    HW154392  10.505  13.813   0.650
84165SOL    HW254393  10.642  13.804   0.714
84166SOL     OW54394  11.116  11.245   2.696
84166SOL    HW154395  11.039  11.224   2.749
84166SOL    HW254396  11.189  11.241   2.758
84167SOL     OW54397   3.312   2.151   8.705
84167SOL    HW154398   3.303   2.080   8.769
84167SOL    HW254399   3.230   2.200   8.712
84168SOL     OW54400   0.235   4.944   5.363
84168SOL    HW154401   0.261   4.863   5.319
84168SOL    HW254402   0.308   5.004   5.347
84169SOL     OW54403   3.889   2.181  12.421
84169SOL    HW154404   3.889   2.271  12.453
84169SOL    HW254405   3.958   2.137  12.471
84170SOL     OW54406   9.839  11.489  11.256
84170SOL    HW154407   9.750  11.478  11.290
84170SOL    HW254408   9.880  11.403  11.268
84171SOL     OW54409   0.222  14.773  13.690
84171SOL    HW154410   0.289  14.808  13.630
84171SOL    HW254411   0.182  14.851  13.728
84172SOL     OW54412  12.504  12.823  13.441
84172SOL    HW154413  12.465  12.876  13.372
84172SOL    HW254414  12.482  12.870  13.522
84173SOL     OW54415   9.375   9.515   0.233
84173SOL    HW154416   9.311   9.494   0.301
84173SOL    HW254417   9.322   9.538   0.156
84174SOL     OW54418   4.431   1.704   6.304
84174SOL    HW154419   4.433   1.611   6.323
84174SOL    HW254420   4.365   1.713   6.235
84175SOL     OW54421   8.339  14.435   7.672
84175SOL    HW154422   8.253  14.441   7.714
84175SOL    HW254423   8.321  14.443   7.578
84176SOL     OW54424   3.824   1.533  12.351
84176SOL    HW154425   3.767   1.465  12.386
84176SOL    HW254426   3.890   1.546  12.419
84177SOL     OW54427  12.445   9.688  13.688
84177SOL    HW154428  12.445   9.669  13.782
84177SOL    HW254429  12.515   9.752  13.676
84178SOL     OW54430   8.754  12.411   6.892
84178SOL    HW154431   8.721  12.322   6.883
84178SOL    HW254432   8.840  12.401   6.933
84179SOL     OW54433   1.339   4.130  11.336
84179SOL    HW154434   1.416   4.086  11.373
84179SOL    HW254435   1.368   4.219  11.319
84180SOL     OW54436   4.058   7.774   5.078
84180SOL    HW154437   4.103   7.780   5.163
84180SOL    HW254438   3.977   7.823   5.091
84181SOL     OW54439  11.375   9.383   7.291
84181SOL    HW154440  11.328   9.314   7.244
84181SOL    HW254441  11.309   9.451   7.305
84182SOL     OW54442   1.252  10.315  14.332
84182SOL    HW154443   1.214  10.399  14.304
84182SOL    HW254444   1.341  10.338  14.359
84183SOL     OW54445  10.854  13.518   1.627
84183SOL    HW154446  10.811  13.450   1.575
84183SOL    HW254447  10.926  13.473   1.670
84184SOL     OW54448  10.959   6.080   2.280
84184SOL    HW154449  10.921   6.034   2.206
84184SOL    HW254450  10.896   6.149   2.301
84185SOL     OW54451   0.403   6.664   8.612
84185SOL    HW154452   0.439   6.683   8.699
84185SOL    HW254453   0.322   6.714   8.608
84186SOL     OW54454   3.484   8.141   6.136
84186SOL    HW154455   3.490   8.169   6.045
84186SOL    HW254456   3.390   8.141   6.155
84187SOL     OW54457   2.834  12.597  10.999
84187SOL    HW154458   2.753  12.580  10.951
84187SOL    HW254459   2.817  12.678  11.047
84188SOL     OW54460   9.797   9.028   5.243
84188SOL    HW154461   9.726   9.045   5.180
84188SOL    HW254462   9.875   9.066   5.202
84189SOL     OW54463   3.124  10.508   4.780
84189SOL    HW154464   3.205  10.462   4.802
84189SOL    HW254465   3.100  10.475   4.693
84190SOL     OW54466   4.145   0.754   5.019
84190SOL    HW154467   4.182   0.769   4.931
84190SOL    HW254468   4.124   0.842   5.051
84191SOL     OW54469  13.170   1.020  14.225
84191SOL    HW154470  13.200   0.966  14.152
84191SOL    HW254471  13.118   1.090  14.184
84192SOL     OW54472   3.911  11.263  10.745
84192SOL    HW154473   3.848  11.195  10.766
84192SOL    HW254474   3.988  11.216  10.713
84193SOL     OW54475  11.380  11.037   7.464
84193SOL    HW154476  11.401  10.946   7.443
84193SOL    HW254477  11.322  11.065   7.394
84194SOL     OW54478  12.758  11.035  14.753
84194SOL    HW154479  12.730  11.005  14.666
84194SOL    HW254480  12.766  11.130  14.744
84195SOL     OW54481  12.030   1.550  14.663
84195SOL    HW154482  12.026   1.646  14.665
84195SOL    HW254483  11.941   1.521  14.681
84196SOL     OW54484  13.805   5.981  11.134
84196SOL    HW154485  13.786   6.017  11.047
84196SOL    HW254486  13.889   6.018  11.158
84197SOL     OW54487   5.712   4.909  11.243
84197SOL    HW154488   5.775   4.974  11.274
84197SOL    HW254489   5.765   4.833  11.219
84198SOL     OW54490   3.412   3.462   4.236
84198SOL    HW154491   3.437   3.479   4.327
84198SOL    HW254492   3.451   3.534   4.186
84199SOL     OW54493   8.496   4.937  13.004
84199SOL    HW154494   8.564   4.900  13.059
84199SOL    HW254495   8.483   5.026  13.038
84200SOL     OW54496  11.965  12.454   7.583
84200SOL    HW154497  11.922  12.527   7.629
84200SOL    HW254498  11.989  12.490   7.498
84201SOL     OW54499   0.075   1.709   6.247
84201SOL    HW154500   0.072   1.727   6.153
84201SOL    HW254501   0.088   1.614   6.253
84202SOL     OW54502   5.628   9.287   7.718
84202SOL    HW154503   5.641   9.241   7.635
84202SOL    HW254504   5.534   9.281   7.735
84203SOL     OW54505  11.095   9.892   2.299
84203SOL    HW154506  11.013   9.936   2.319
84203SOL    HW254507  11.097   9.817   2.360
84204SOL     OW54508   0.247   8.598   1.115
84204SOL    HW154509   0.343   8.592   1.110
84204SOL    HW254510   0.220   8.514   1.152
84205SOL     OW54511   7.125   8.766   6.403
84205SOL    HW154512   7.087   8.732   6.484
84205SOL    HW254513   7.049   8.795   6.352
84206SOL     OW54514  10.761  13.689   4.049
84206SOL    HW154515  10.726  13.610   4.009
84206SOL    HW254516  10.691  13.754   4.041
84207SOL     OW54517   3.897   5.875   7.269
84207SOL    HW154518   3.888   5.946   7.333
84207SOL    HW254519   3.973   5.901   7.216
84208SOL     OW54520   0.019   4.652  13.840
84208SOL    HW154521   0.013   4.624  13.931
84208SOL    HW254522   0.053   4.576  13.793
84209SOL     OW54523  13.136  13.583  12.110
84209SOL    HW154524  13.229  13.581  12.087
84209SOL    HW254525  13.135  13.592  12.206
84210SOL     OW54526  13.312  11.208   3.394
84210SOL    HW154527  13.257  11.227   3.318
84210SOL    HW254528  13.376  11.145   3.361
84211SOL     OW54529  14.793   9.737   3.152
84211SOL    HW154530  14.808   9.678   3.078
84211SOL    HW254531   0.008   9.750   3.190
84212SOL     OW54532   1.065  13.757  13.430
84212SOL    HW154533   1.017  13.717  13.503
84212SOL    HW254534   1.089  13.683  13.374
84213SOL     OW54535   6.368   8.897   7.815
84213SOL    HW154536   6.331   8.976   7.853
84213SOL    HW254537   6.327   8.825   7.863
84214SOL     OW54538   2.217   2.814  13.657
84214SOL    HW154539   2.147   2.753  13.631
84214SOL    HW254540   2.285   2.801  13.591
84215SOL     OW54541  13.667   6.047   5.448
84215SOL    HW154542  13.672   6.042   5.353
84215SOL    HW254543  13.587   5.999   5.470
84216SOL     OW54544   8.919   9.900   0.871
84216SOL    HW154545   8.961   9.933   0.951
84216SOL    HW254546   8.977   9.928   0.800
84217SOL     OW54547   4.054   5.969   8.854
84217SOL    HW154548   4.112   5.903   8.893
84217SOL    HW254549   4.062   5.954   8.759
84218SOL     OW54550   2.563  11.422  13.694
84218SOL    HW154551   2.541  11.371  13.616
84218SOL    HW254552   2.479  11.439  13.736
84219SOL     OW54553   3.114  11.336   4.203
84219SOL    HW154554   3.019  11.340   4.193
84219SOL    HW254555   3.133  11.391   4.279
84220SOL     OW54556   4.626   9.818  10.913
84220SOL    HW154557   4.709   9.783  10.881
84220SOL    HW254558   4.606   9.764  10.990
84221SOL     OW54559   8.940   1.756  10.520
84221SOL    HW154560   8.975   1.845  10.510
84221SOL    HW254561   8.960   1.733  10.611
84222SOL     OW54562   9.676   2.555   7.179
84222SOL    HW154563   9.677   2.460   7.194
84222SOL    HW254564   9.584   2.575   7.161
84223SOL     OW54565   2.417   1.898  11.143
84223SOL    HW154566   2.485   1.932  11.202
84223SOL    HW254567   2.382   1.822  11.189
84224SOL     OW54568   3.301  10.352   4.927
84224SOL    HW154569   3.309  10.365   5.022
84224SOL    HW254570   3.391  10.348   4.896
84225SOL     OW54571  12.831   9.908  14.029
84225SOL    HW154572  12.838   9.979  14.094
84225SOL    HW254573  12.912   9.858  14.040
84226SOL     OW54574   3.225   4.131   7.146
84226SOL    HW154575   3.182   4.156   7.228
84226SOL    HW254576   3.318   4.128   7.167
84227SOL     OW54577   7.018  12.581   6.499
84227SOL    HW154578   7.003  12.499   6.547
84227SOL    HW254579   7.101  12.614   6.532
84228SOL     OW54580   6.088   8.532   7.828
84228SOL    HW154581   6.152   8.461   7.827
84228SOL    HW254582   6.140   8.611   7.838
84229SOL     OW54583   8.405   3.554   5.715
84229SOL    HW154584   8.488   3.523   5.751
84229SOL    HW254585   8.430   3.615   5.645
84230SOL     OW54586   2.778   4.270  10.223
84230SOL    HW154587   2.821   4.207  10.282
84230SOL    HW254588   2.708   4.219  10.181
84231SOL     OW54589  14.525   1.747   5.382
84231SOL    HW154590  14.523   1.828   5.330
84231SOL    HW254591  14.563   1.682   5.324
84232SOL     OW54592   2.308   3.960  11.335
84232SOL    HW154593   2.403   3.955  11.328
84232SOL    HW254594   2.289   4.053  11.348
84233SOL     OW54595   3.661  12.992   1.977
84233SOL    HW154596   3.621  13.021   2.060
84233SOL    HW254597   3.740  12.946   2.003
84234SOL     OW54598   8.624   8.339   1.684
84234SOL    HW154599   8.556   8.275   1.664
84234SOL    HW254600   8.589   8.390   1.758
84235SOL     OW54601  11.389  13.552   4.342
84235SOL    HW154602  11.322  13.549   4.274
84235SOL    HW254603  11.389  13.642   4.373
84236SOL     OW54604   1.056   2.185   8.045
84236SOL    HW154605   1.050   2.263   7.990
84236SOL    HW254606   1.001   2.120   8.001
84237SOL     OW54607  12.924  14.622   0.757
84237SOL    HW154608  13.013  14.592   0.772
84237SOL    HW254609  12.872  14.578   0.824
84238SOL     OW54610   1.009  10.148  12.547
84238SOL    HW154611   0.945  10.078  12.562
84238SOL    HW254612   1.039  10.133  12.457
84239SOL     OW54613  14.608   1.513  10.376
84239SOL    HW154614  14.615   1.480  10.465
84239SOL    HW254615  14.558   1.594  10.384
84240SOL     OW54616   1.605  10.359  14.255
84240SOL    HW154617   1.625  10.453  14.262
84240SOL    HW254618   1.611  10.327  14.345
84241SOL     OW54619   6.274   7.270   7.025
84241SOL    HW154620   6.255   7.363   7.029
84241SOL    HW254621   6.219   7.230   7.092
84242SOL     OW54622   7.927   3.466   7.053
84242SOL    HW154623   7.865   3.454   7.125
84242SOL    HW254624   7.878   3.516   6.988
84243SOL     OW54625   5.244  14.488  12.358
84243SOL    HW154626   5.338  14.471  12.351
84243SOL    HW254627   5.205  14.437  12.287
84244SOL     OW54628  12.696  10.377   7.911
84244SOL    HW154629  12.608  10.414   7.905
84244SOL    HW254630  12.749  10.446   7.949
84245SOL     OW54631  14.626  13.388  10.813
84245SOL    HW154632  14.625  13.335  10.734
84245SOL    HW254633  14.678  13.337  10.875
84246SOL     OW54634   3.465   4.447   8.131
84246SOL    HW154635   3.559   4.437   8.148
84246SOL    HW254636   3.424   4.420   8.213
84247SOL     OW54637   0.658  14.097   0.506
84247SOL    HW154638   0.717  14.165   0.540
84247SOL    HW254639   0.570  14.132   0.519
84248SOL     OW54640  11.592   4.743   4.069
84248SOL    HW154641  11.522   4.786   4.119
84248SOL    HW254642  11.619   4.807   4.004
84249SOL     OW54643  12.944   8.598  12.955
84249SOL    HW154644  13.029   8.595  12.910
84249SOL    HW254645  12.882   8.563  12.891
84250SOL     OW54646  10.227   9.990   3.801
84250SOL    HW154647  10.182   9.909   3.826
84250SOL    HW254648  10.248   9.980   3.708
84251SOL     OW54649   9.580   3.049   0.255
84251SOL    HW154650   9.571   2.992   0.178
84251SOL    HW254651   9.633   3.123   0.224
84252SOL     OW54652   7.369   5.634   3.091
84252SOL    HW154653   7.455   5.643   3.051
84252SOL    HW254654   7.327   5.718   3.075
84253SOL     OW54655  12.936   9.520   9.575
84253SOL    HW154656  12.996   9.485   9.642
84253SOL    HW254657  12.910   9.444   9.524
84254SOL     OW54658  11.015   5.777   1.470
84254SOL    HW154659  11.086   5.771   1.534
84254SOL    HW254660  11.060   5.781   1.386
84255SOL     OW54661   7.634   1.878  11.424
84255SOL    HW154662   7.565   1.928  11.467
84255SOL    HW254663   7.696   1.857  11.494
84256SOL     OW54664   5.623   1.584   9.347
84256SOL    HW154665   5.643   1.567   9.255
84256SOL    HW254666   5.708   1.589   9.389
84257SOL     OW54667   6.910  11.186   0.914
84257SOL    HW154668   6.966  11.196   0.992
84257SOL    HW254669   6.909  11.092   0.896
84258SOL     OW54670  14.708   6.884  12.494
84258SOL    HW154671  14.685   6.859  12.405
84258SOL    HW254672  14.801   6.905  12.490
84259SOL     OW54673  11.034  10.262   1.961
84259SOL    HW154674  11.041  10.166   1.961
84259SOL    HW254675  10.955  10.280   1.911
84260SOL     OW54676   9.487  10.826  10.939
84260SOL    HW154677   9.538  10.746  10.954
84260SOL    HW254678   9.467  10.825  10.846
84261SOL     OW54679   6.358  12.229   7.920
84261SOL    HW154680   6.396  12.294   7.978
84261SOL    HW254681   6.270  12.262   7.900
84262SOL     OW54682   9.061   0.165   4.053
84262SOL    HW154683   9.126   0.102   4.021
84262SOL    HW254684   8.978   0.117   4.049
84263SOL     OW54685  13.323   5.492  10.885
84263SOL    HW154686  13.349   5.424  10.823
84263SOL    HW254687  13.273   5.554  10.832
84264SOL     OW54688  12.262   5.047  12.162
84264SOL    HW154689  12.208   5.046  12.241
84264SOL    HW254690  12.203   5.022  12.091
84265SOL     OW54691  13.556   7.637  14.272
84265SOL    HW154692  13.535   7.636  14.178
84265SOL    HW254693  13.650   7.621  14.275
84266SOL     OW54694   3.801   9.974   1.289
84266SOL    HW154695   3.783  10.000   1.199
84266SOL    HW254696   3.776   9.882   1.293
84267SOL     OW54697  13.172   5.258   7.771
84267SOL    HW154698  13.176   5.169   7.736
84267SOL    HW254699  13.168   5.246   7.866
84268SOL     OW54700   0.444   5.600   9.536
84268SOL    HW154701   0.442   5.646   9.620
84268SOL    HW254702   0.534   5.572   9.525
84269SOL     OW54703   7.384   2.479   0.274
84269SOL    HW154704   7.306   2.521   0.309
84269SOL    HW254705   7.418   2.541   0.209
84270SOL     OW54706   9.142  10.479   9.540
84270SOL    HW154707   9.135  10.436   9.455
84270SOL    HW254708   9.054  10.510   9.559
84271SOL     OW54709  14.774  13.453   6.189
84271SOL    HW154710  14.711  13.524   6.178
84271SOL    HW254711  14.845  13.492   6.240
84272SOL     OW54712  11.217   3.163  13.018
84272SOL    HW154713  11.230   3.100  13.089
84272SOL    HW254714  11.297   3.215  13.016
84273SOL     OW54715   8.313  11.174   9.216
84273SOL    HW154716   8.309  11.270   9.210
84273SOL    HW254717   8.239  11.144   9.164
84274SOL     OW54718  10.561   3.374   6.692
84274SOL    HW154719  10.531   3.323   6.617
84274SOL    HW254720  10.607   3.449   6.653
84275SOL     OW54721   6.850   3.756   4.560
84275SOL    HW154722   6.861   3.668   4.524
84275SOL    HW254723   6.756   3.775   4.549
84276SOL     OW54724  10.216  13.830   8.980
84276SOL    HW154725  10.187  13.749   9.022
84276SOL    HW254726  10.295  13.806   8.932
84277SOL     OW54727   4.105   6.713   0.666
84277SOL    HW154728   4.149   6.628   0.667
84277SOL    HW254729   4.015   6.693   0.639
84278SOL     OW54730   3.632  11.054  10.206
84278SOL    HW154731   3.557  11.053  10.146
84278SOL    HW254732   3.705  11.086  10.154
84279SOL     OW54733   1.685   2.117   2.012
84279SOL    HW154734   1.708   2.191   2.068
84279SOL    HW254735   1.624   2.153   1.949
84280SOL     OW54736  11.013   3.440   2.392
84280SOL    HW154737  11.045   3.386   2.319
84280SOL    HW254738  11.070   3.517   2.391
84281SOL     OW54739   6.906  13.314  12.595
84281SOL    HW154740   7.002  13.318  12.597
84281SOL    HW254741   6.878  13.377  12.661
84282SOL     OW54742  13.687   4.967   2.247
84282SOL    HW154743  13.683   5.045   2.302
84282SOL    HW254744  13.760   4.983   2.187
84283SOL     OW54745   4.938   0.426   3.387
84283SOL    HW154746   4.952   0.518   3.363
84283SOL    HW254747   4.843   0.417   3.393
84284SOL     OW54748   5.759   9.575   9.587
84284SOL    HW154749   5.741   9.658   9.631
84284SOL    HW254750   5.776   9.600   9.496
84285SOL     OW54751   0.318   9.200   0.883
84285SOL    HW154752   0.408   9.219   0.856
84285SOL    HW254753   0.326   9.170   0.973
84286SOL     OW54754   1.968  13.847   5.207
84286SOL    HW154755   1.924  13.782   5.153
84286SOL    HW254756   1.969  13.809   5.295
84287SOL     OW54757   1.776   0.730  14.191
84287SOL    HW154758   1.770   0.753  14.098
84287SOL    HW254759   1.825   0.648  14.192
84288SOL     OW54760   6.894   9.497   3.925
84288SOL    HW154761   6.954   9.440   3.972
84288SOL    HW254762   6.850   9.439   3.862
84289SOL     OW54763   9.803   2.806   9.221
84289SOL    HW154764   9.821   2.877   9.283
84289SOL    HW254765   9.809   2.726   9.274
84290SOL     OW54766   1.253   4.781  10.556
84290SOL    HW154767   1.313   4.720  10.512
84290SOL    HW254768   1.166   4.755  10.526
84291SOL     OW54769   8.021   9.525   2.815
84291SOL    HW154770   8.038   9.468   2.890
84291SOL    HW254771   7.944   9.486   2.773
84292SOL     OW54772   2.529   0.183  11.304
84292SOL    HW154773   2.463   0.146  11.245
84292SOL    HW254774   2.575   0.248  11.251
84293SOL     OW54775  10.741  13.481   9.766
84293SOL    HW154776  10.717  13.487   9.858
84293SOL    HW254777  10.805  13.550   9.752
84294SOL     OW54778   5.732   1.418   5.674
84294SOL    HW154779   5.754   1.329   5.646
84294SOL    HW254780   5.740   1.416   5.769
84295SOL     OW54781  10.425   7.244   3.724
84295SOL    HW154782  10.508   7.209   3.692
84295SOL    HW254783  10.451   7.313   3.785
84296SOL     OW54784   0.998   0.820   0.945
84296SOL    HW154785   0.962   0.738   0.910
84296SOL    HW254786   0.998   0.880   0.870
84297SOL     OW54787   0.318   8.881  11.517
84297SOL    HW154788   0.391   8.889  11.455
84297SOL    HW254789   0.333   8.950  11.580
84298SOL     OW54790   0.684   0.054   5.039
84298SOL    HW154791   0.661   0.104   5.117
84298SOL    HW254792   0.741  14.857   5.070
84299SOL     OW54793   2.246   9.966   4.609
84299SOL    HW154794   2.251   9.939   4.517
84299SOL    HW254795   2.156   9.945   4.635
84300SOL     OW54796   8.268  10.683   1.578
84300SOL    HW154797   8.356  10.712   1.553
84300SOL    HW254798   8.262  10.701   1.672
84301SOL     OW54799  13.448   6.357   8.531
84301SOL    HW154800  13.535   6.378   8.496
84301SOL    HW254801  13.456   6.373   8.626
84302SOL     OW54802   1.417   4.626  11.068
84302SOL    HW154803   1.502   4.603  11.104
84302SOL    HW254804   1.436   4.667  10.984
84303SOL     OW54805   2.152   7.627  10.614
84303SOL    HW154806   2.056   7.626  10.610
84303SOL    HW254807   2.172   7.693  10.680
84304SOL     OW54808   6.786   5.933   0.329
84304SOL    HW154809   6.832   6.016   0.316
84304SOL    HW254810   6.724   5.951   0.399
84305SOL     OW54811   2.714   3.170   2.086
84305SOL    HW154812   2.766   3.230   2.034
84305SOL    HW254813   2.777   3.129   2.146
84306SOL     OW54814   5.929   6.923  13.759
84306SOL    HW154815   5.863   6.860  13.729
84306SOL    HW254816   6.012   6.880  13.740
84307SOL     OW54817   7.711   8.724  11.237
84307SOL    HW154818   7.766   8.769  11.301
84307SOL    HW254819   7.686   8.642  11.279
84308SOL     OW54820   5.356   1.368   4.117
84308SOL    HW154821   5.381   1.278   4.097
84308SOL    HW254822   5.286   1.389   4.055
84309SOL     OW54823  14.248   7.357   9.500
84309SOL    HW154824  14.212   7.291   9.560
84309SOL    HW254825  14.184   7.429   9.502
84310SOL     OW54826  14.124   9.039   5.809
84310SOL    HW154827  14.176   8.961   5.829
84310SOL    HW254828  14.152   9.065   5.721
84311SOL     OW54829   7.453   4.798   4.650
84311SOL    HW154830   7.452   4.836   4.738
84311SOL    HW254831   7.546   4.785   4.631
84312SOL     OW54832   5.877  10.524   0.152
84312SOL    HW154833   5.866  10.617   0.133
84312SOL    HW254834   5.937  10.521   0.227
84313SOL     OW54835   3.179   7.257   0.305
84313SOL    HW154836   3.127   7.285   0.229
84313SOL    HW254837   3.128   7.284   0.381
84314SOL     OW54838   6.169  13.243   5.900
84314SOL    HW154839   6.164  13.188   5.979
84314SOL    HW254840   6.261  13.240   5.875
84315SOL     OW54841   2.255   3.533  14.542
84315SOL    HW154842   2.225   3.447  14.515
84315SOL    HW254843   2.316   3.560  14.474
84316SOL     OW54844   0.222  12.793   4.994
84316SOL    HW154845   0.297  12.784   5.052
84316SOL    HW254846   0.234  12.726   4.927
84317SOL     OW54847  14.533   8.772  12.241
84317SOL    HW154848  14.544   8.790  12.334
84317SOL    HW254849  14.549   8.856  12.198
84318SOL     OW54850   2.190  10.558  11.892
84318SOL    HW154851   2.116  10.612  11.921
84318SOL    HW254852   2.262  10.582  11.950
84319SOL     OW54853   8.601   7.387   0.051
84319SOL    HW154854   8.620   7.453   0.118
84319SOL    HW254855   8.507   7.394   0.035
84320SOL     OW54856  13.852  11.349   6.859
84320SOL    HW154857  13.840  11.419   6.794
84320SOL    HW254858  13.828  11.269   6.812
84321SOL     OW54859  12.801   6.681   2.296
84321SOL    HW154860  12.811   6.730   2.378
84321SOL    HW254861  12.851   6.732   2.233
84322SOL     OW54862   1.627   4.935   4.317
84322SOL    HW154863   1.555   4.872   4.314
84322SOL    HW254864   1.597   5.001   4.380
84323SOL     OW54865   9.525   9.838   1.752
84323SOL    HW154866   9.431   9.836   1.736
84323SOL    HW254867   9.546   9.749   1.782
84324SOL     OW54868  12.956   6.863   2.141
84324SOL    HW154869  13.016   6.831   2.074
84324SOL    HW254870  13.013   6.886   2.215
84325SOL     OW54871  12.666  11.948  14.189
84325SOL    HW154872  12.753  11.911  14.173
84325SOL    HW254873  12.628  11.957  14.101
84326SOL     OW54874   9.670  10.861   5.985
84326SOL    HW154875   9.620  10.781   6.001
84326SOL    HW254876   9.603  10.929   5.970
84327SOL     OW54877  11.992   6.108   3.156
84327SOL    HW154878  12.032   6.078   3.238
84327SOL    HW254879  12.001   6.033   3.096
84328SOL     OW54880   0.590   6.268  11.476
84328SOL    HW154881   0.642   6.224  11.542
84328SOL    HW254882   0.500   6.263  11.509
84329SOL     OW54883  14.148   8.591   0.164
84329SOL    HW154884  14.162   8.571   0.071
84329SOL    HW254885  14.135   8.506   0.205
84330SOL     OW54886  10.250  11.260   8.957
84330SOL    HW154887  10.321  11.196   8.953
84330SOL    HW254888  10.272  11.316   9.031
84331SOL     OW54889  12.294   7.618   6.851
84331SOL    HW154890  12.272   7.526   6.838
84331SOL    HW254891  12.301   7.627   6.947
84332SOL     OW54892   9.251   5.101  13.171
84332SOL    HW154893   9.255   5.096  13.075
84332SOL    HW254894   9.329   5.149  13.196
84333SOL     OW54895   5.184  11.104   6.773
84333SOL    HW154896   5.146  11.029   6.818
84333SOL    HW254897   5.111  11.164   6.760
84334SOL     OW54898   3.211   1.161   7.702
84334SOL    HW154899   3.158   1.084   7.682
84334SOL    HW254900   3.185   1.186   7.791
84335SOL     OW54901   5.516   7.891   3.617
84335SOL    HW154902   5.576   7.954   3.657
84335SOL    HW254903   5.467   7.855   3.691
84336SOL     OW54904   0.201   8.872   8.639
84336SOL    HW154905   0.273   8.921   8.677
84336SOL    HW254906   0.203   8.895   8.546
84337SOL     OW54907   7.788   9.074   5.349
84337SOL    HW154908   7.744   9.065   5.264
84337SOL    HW254909   7.874   9.111   5.328
84338SOL     OW54910   6.746  11.985   4.198
84338SOL    HW154911   6.799  11.988   4.278
84338SOL    HW254912   6.740  12.077   4.170
84339SOL     OW54913   4.547  11.584   0.620
84339SOL    HW154914   4.546  11.669   0.664
84339SOL    HW254915   4.504  11.524   0.682
84340SOL     OW54916  14.660   5.708   4.516
84340SOL    HW154917  14.602   5.647   4.560
84340SOL    HW254918  14.690   5.661   4.438
84341SOL     OW54919   0.817   7.764   8.653
84341SOL    HW154920   0.722   7.753   8.643
84341SOL    HW254921   0.827   7.836   8.715
84342SOL     OW54922  12.148  13.692   2.483
84342SOL    HW154923  12.090  13.752   2.531
84342SOL    HW254924  12.149  13.612   2.536
84343SOL     OW54925   0.769   7.216  14.775
84343SOL    HW154926   0.812   7.151  14.720
84343SOL    HW254927   0.839   7.274  14.805
84344SOL     OW54928  10.118   4.055   0.012
84344SOL    HW154929  10.126   4.117   0.084
84344SOL    HW254930  10.208   4.032  14.861
84345SOL     OW54931   2.277   2.429   9.439
84345SOL    HW154932   2.365   2.467   9.444
84345SOL    HW254933   2.219   2.504   9.453
84346SOL     OW54934   7.307   1.494  11.027
84346SOL    HW154935   7.215   1.470  11.016
84346SOL    HW254936   7.348   1.472  10.944
84347SOL     OW54937  10.569   5.433  10.017
84347SOL    HW154938  10.562   5.527  10.035
84347SOL    HW254939  10.479   5.402  10.017
84348SOL     OW54940   8.936  14.408   3.259
84348SOL    HW154941   8.951  14.493   3.301
84348SOL    HW254942   9.013  14.393   3.205
84349SOL     OW54943   7.164  13.112   1.589
84349SOL    HW154944   7.178  13.106   1.684
84349SOL    HW254945   7.224  13.047   1.552
84350SOL     OW54946  10.413   0.434  11.993
84350SOL    HW154947  10.509   0.432  11.990
84350SOL    HW254948  10.386   0.421  11.903
84351SOL     OW54949   0.942   8.104   9.047
84351SOL    HW154950   0.959   8.063   9.131
84351SOL    HW254951   0.992   8.185   9.049
84352SOL     OW54952   9.578   8.793   4.174
84352SOL    HW154953   9.642   8.840   4.121
84352SOL    HW254954   9.590   8.827   4.262
84353SOL     OW54955   2.207   9.462   3.736
84353SOL    HW154956   2.159   9.464   3.654
84353SOL    HW254957   2.271   9.534   3.728
84354SOL     OW54958  11.796   6.127   1.633
84354SOL    HW154959  11.840   6.118   1.717
84354SOL    HW254960  11.705   6.107   1.651
84355SOL     OW54961  12.628   9.314   0.247
84355SOL    HW154962  12.587   9.228   0.252
84355SOL    HW254963  12.555   9.376   0.240
84356SOL     OW54964  12.744   9.710   9.475
84356SOL    HW154965  12.818   9.650   9.486
84356SOL    HW254966  12.708   9.719   9.563
84357SOL     OW54967   7.948  14.200  10.007
84357SOL    HW154968   7.932  14.127  10.067
84357SOL    HW254969   7.862  14.217   9.968
84358SOL     OW54970  14.763   9.706  13.318
84358SOL    HW154971  14.788   9.761  13.393
84358SOL    HW254972  14.699   9.645  13.354
84359SOL     OW54973  10.161   8.381   8.518
84359SOL    HW154974  10.221   8.307   8.514
84359SOL    HW254975  10.141   8.392   8.611
84360SOL     OW54976  13.108  10.614   6.039
84360SOL    HW154977  13.036  10.675   6.057
84360SOL    HW254978  13.113  10.559   6.117
84361SOL     OW54979   9.048   6.400   2.653
84361SOL    HW154980   8.985   6.330   2.669
84361SOL    HW254981   9.019   6.440   2.571
84362SOL     OW54982  12.390   4.600   8.101
84362SOL    HW154983  12.445   4.584   8.024
84362SOL    HW254984  12.324   4.531   8.098
84363SOL     OW54985   1.902   2.716  12.277
84363SOL    HW154986   1.859   2.757  12.352
84363SOL    HW254987   1.862   2.757  12.200
84364SOL     OW54988  11.193   4.298   7.591
84364SOL    HW154989  11.108   4.341   7.604
84364SOL    HW254990  11.171   4.205   7.583
84365SOL     OW54991   3.400   0.333   2.285
84365SOL    HW154992   3.491   0.335   2.314
84365SOL    HW254993   3.358   0.406   2.332
84366SOL     OW54994   6.571   8.720   2.398
84366SOL    HW154995   6.645   8.747   2.344
84366SOL    HW254996   6.549   8.798   2.449
84367SOL     OW54997   0.093   7.393   9.713
84367SOL    HW154998   0.166   7.443   9.678
84367SOL    HW254999   0.028   7.392   9.643
84368SOL     OW55000   5.119   5.565   8.061
84368SOL    HW155001   5.134   5.631   8.128
84368SOL    HW255002   5.057   5.605   8.000
84369SOL     OW55003   5.037   9.833   6.071
84369SOL    HW155004   4.952   9.859   6.034
84369SOL    HW255005   5.046   9.886   6.150
84370SOL     OW55006   6.912   4.177  13.566
84370SOL    HW155007   6.856   4.103  13.542
84370SOL    HW255008   6.895   4.190  13.659
84371SOL     OW55009  12.632  10.923   0.750
84371SOL    HW155010  12.619  10.974   0.830
84371SOL    HW255011  12.583  10.971   0.683
84372SOL     OW55012  12.348   9.204  12.537
84372SOL    HW155013  12.377   9.186  12.448
84372SOL    HW255014  12.278   9.269  12.528
84373SOL     OW55015   3.540   0.169   1.110
84373SOL    HW155016   3.506   0.141   1.195
84373SOL    HW255017   3.464   0.164   1.052
84374SOL     OW55018   5.173   0.424   5.180
84374SOL    HW155019   5.152   0.494   5.118
84374SOL    HW255020   5.091   0.408   5.226
84375SOL     OW55021   2.436   0.598   9.163
84375SOL    HW155022   2.348   0.626   9.138
84375SOL    HW255023   2.491   0.620   9.089
84376SOL     OW55024   0.028  10.955   1.774
84376SOL    HW155025   0.046  10.970   1.867
84376SOL    HW255026   0.045  10.862   1.760
84377SOL     OW55027  10.289   9.715  10.463
84377SOL    HW155028  10.236   9.664  10.402
84377SOL    HW255029  10.317   9.791  10.412
84378SOL     OW55030  11.980   0.497  12.662
84378SOL    HW155031  12.069   0.490  12.629
84378SOL    HW255032  11.989   0.490  12.758
84379SOL     OW55033   0.512   0.205  12.775
84379SOL    HW155034   0.507   0.187  12.681
84379SOL    HW255035   0.445   0.271  12.790
84380SOL     OW55036   6.790  11.329   4.723
84380SOL    HW155037   6.729  11.333   4.649
84380SOL    HW255038   6.742  11.368   4.796
84381SOL     OW55039   3.430   2.773   9.263
84381SOL    HW155040   3.495   2.743   9.200
84381SOL    HW255041   3.472   2.765   9.348
84382SOL     OW55042   4.964   3.502  11.349
84382SOL    HW155043   5.057   3.525  11.341
84382SOL    HW255044   4.919   3.587  11.345
84383SOL     OW55045   5.267   8.012  14.717
84383SOL    HW155046   5.320   8.082  14.681
84383SOL    HW255047   5.252   7.953  14.643
84384SOL     OW55048  14.212   1.419  10.811
84384SOL    HW155049  14.189   1.350  10.874
84384SOL    HW255050  14.160   1.494  10.838
84385SOL     OW55051   0.681   4.022   4.955
84385SOL    HW155052   0.688   4.055   5.044
84385SOL    HW255053   0.622   4.083   4.911
84386SOL     OW55054  11.712   4.173   7.566
84386SOL    HW155055  11.789   4.121   7.590
84386SOL    HW255056  11.680   4.208   7.649
84387SOL     OW55057   4.168   1.900   8.325
84387SOL    HW155058   4.169   1.996   8.323
84387SOL    HW255059   4.120   1.878   8.405
84388SOL     OW55060   9.348  11.443  12.550
84388SOL    HW155061   9.412  11.432  12.480
84388SOL    HW255062   9.267  11.467  12.506
84389SOL     OW55063  10.133   7.444   9.740
84389SOL    HW155064  10.155   7.354   9.765
84389SOL    HW255065  10.110   7.438   9.647
84390SOL     OW55066   4.829   5.964   1.847
84390SOL    HW155067   4.745   6.007   1.867
84390SOL    HW255068   4.889   5.997   1.914
84391SOL     OW55069   8.861   9.467   4.680
84391SOL    HW155070   8.825   9.430   4.599
84391SOL    HW255071   8.896   9.392   4.727
84392SOL     OW55072   3.702  13.890  11.245
84392SOL    HW155073   3.613  13.864  11.222
84392SOL    HW255074   3.734  13.937  11.169
84393SOL     OW55075   9.695  13.380  12.874
84393SOL    HW155076   9.601  13.381  12.890
84393SOL    HW255077   9.719  13.471  12.862
84394SOL     OW55078   1.707   9.614  12.249
84394SOL    HW155079   1.749   9.558  12.315
84394SOL    HW255080   1.722   9.704  12.281
84395SOL     OW55081  11.410   3.243  11.266
84395SOL    HW155082  11.497   3.226  11.230
84395SOL    HW255083  11.351   3.227  11.193
84396SOL     OW55084   2.444   3.739   0.158
84396SOL    HW155085   2.393   3.728   0.238
84396SOL    HW255086   2.409   3.674   0.098
84397SOL     OW55087   2.553  12.626   7.973
84397SOL    HW155088   2.511  12.710   7.954
84397SOL    HW255089   2.611  12.644   8.047
84398SOL     OW55090   1.852  13.637   5.479
84398SOL    HW155091   1.792  13.690   5.427
84398SOL    HW255092   1.813  13.549   5.477
84399SOL     OW55093   4.250  13.049  12.082
84399SOL    HW155094   4.193  12.979  12.114
84399SOL    HW255095   4.191  13.122  12.065
84400SOL     OW55096   4.920   6.691  12.083
84400SOL    HW155097   4.881   6.611  12.119
84400SOL    HW255098   5.011   6.669  12.067
84401SOL     OW55099   0.075  14.275  10.596
84401SOL    HW155100   0.040  14.339  10.657
84401SOL    HW255101   0.130  14.218  10.650
84402SOL     OW55102   3.902   5.063   1.170
84402SOL    HW155103   3.935   5.146   1.204
84402SOL    HW255104   3.980   5.010   1.157
84403SOL     OW55105   5.284  14.425   0.375
84403SOL    HW155106   5.293  14.395   0.284
84403SOL    HW255107   5.338  14.503   0.379
84404SOL     OW55108   3.851   3.603  10.321
84404SOL    HW155109   3.893   3.651  10.250
84404SOL    HW255110   3.910   3.614  10.395
84405SOL     OW55111  12.312  13.815  11.652
84405SOL    HW155112  12.304  13.910  11.639
84405SOL    HW255113  12.308  13.779  11.564
84406SOL     OW55114  13.925   6.449   9.811
84406SOL    HW155115  13.924   6.492   9.896
84406SOL    HW255116  14.011   6.472   9.774
84407SOL     OW55117  12.735  13.206   1.730
84407SOL    HW155118  12.796  13.170   1.665
84407SOL    HW255119  12.652  13.213   1.684
84408SOL     OW55120   0.508   7.182  10.605
84408SOL    HW155121   0.432   7.204  10.551
84408SOL    HW255122   0.566   7.134  10.547
84409SOL     OW55123   0.731  11.631   9.351
84409SOL    HW155124   0.796  11.591   9.293
84409SOL    HW255125   0.775  11.637   9.436
84410SOL     OW55126   4.462   5.985   3.713
84410SOL    HW155127   4.503   5.919   3.659
84410SOL    HW255128   4.454   5.944   3.799
84411SOL     OW55129   4.763   9.425   5.548
84411SOL    HW155130   4.677   9.410   5.508
84411SOL    HW255131   4.746   9.426   5.642
84412SOL     OW55132   1.240  14.525  11.245
84412SOL    HW155133   1.301  14.597  11.228
84412SOL    HW255134   1.296  14.454  11.278
84413SOL     OW55135   7.569  11.152   8.612
84413SOL    HW155136   7.649  11.195   8.582
84413SOL    HW255137   7.599  11.092   8.681
84414SOL     OW55138   6.281   6.004   3.968
84414SOL    HW155139   6.311   6.062   3.898
84414SOL    HW255140   6.360   5.957   3.995
84415SOL     OW55141  14.087  10.311   3.699
84415SOL    HW155142  14.081  10.380   3.634
84415SOL    HW255143  14.087  10.230   3.648
84416SOL     OW55144  12.051   1.986   7.000
84416SOL    HW155145  12.040   1.919   6.933
84416SOL    HW255146  11.967   1.986   7.047
84417SOL     OW55147  11.418  12.175   0.590
84417SOL    HW155148  11.496  12.128   0.560
84417SOL    HW255149  11.453  12.244   0.646
84418SOL     OW55150   0.285   5.864   1.243
84418SOL    HW155151   0.198   5.825   1.243
84418SOL    HW255152   0.310   5.867   1.335
84419SOL     OW55153   2.138   7.390   6.313
84419SOL    HW155154   2.087   7.317   6.276
84419SOL    HW255155   2.229   7.369   6.290
84420SOL     OW55156   0.308  12.529   9.882
84420SOL    HW155157   0.255  12.522   9.961
84420SOL    HW255158   0.346  12.617   9.888
84421SOL     OW55159  10.866   1.058   7.056
84421SOL    HW155160  10.880   0.963   7.060
84421SOL    HW255161  10.777   1.068   7.023
84422SOL     OW55162  10.539  10.507   4.996
84422SOL    HW155163  10.469  10.451   5.031
84422SOL    HW255164  10.615  10.488   5.051
84423SOL     OW55165   3.920  11.377   4.751
84423SOL    HW155166   3.867  11.304   4.782
84423SOL    HW255167   3.911  11.444   4.818
84424SOL     OW55168  10.645   0.432   5.485
84424SOL    HW155169  10.711   0.414   5.419
84424SOL    HW255170  10.594   0.351   5.492
84425SOL     OW55171  10.991   3.471  10.642
84425SOL    HW155172  10.926   3.416  10.597
84425SOL    HW255173  11.049   3.501  10.573
84426SOL     OW55174  12.259  10.765  10.181
84426SOL    HW155175  12.247  10.677  10.216
84426SOL    HW255176  12.265  10.752  10.086
84427SOL     OW55177   8.551  11.091  12.301
84427SOL    HW155178   8.495  11.124  12.232
84427SOL    HW255179   8.509  11.009  12.328
84428SOL     OW55180  12.376  12.549  12.623
84428SOL    HW155181  12.417  12.525  12.706
84428SOL    HW255182  12.412  12.635  12.601
84429SOL     OW55183   3.652   3.112   6.336
84429SOL    HW155184   3.716   3.052   6.298
84429SOL    HW255185   3.702   3.160   6.402
84430SOL     OW55186   0.891   5.805   9.319
84430SOL    HW155187   0.838   5.743   9.269
84430SOL    HW255188   0.850   5.808   9.406
84431SOL     OW55189  14.365   1.575   0.721
84431SOL    HW155190  14.339   1.494   0.765
84431SOL    HW255191  14.283   1.621   0.704
84432SOL     OW55192   2.435   1.585   7.138
84432SOL    HW155193   2.477   1.668   7.116
84432SOL    HW255194   2.352   1.587   7.090
84433SOL     OW55195  14.116  11.314   6.372
84433SOL    HW155196  14.103  11.401   6.408
84433SOL    HW255197  14.061  11.257   6.426
84434SOL     OW55198  12.830   6.551   9.167
84434SOL    HW155199  12.792   6.491   9.230
84434SOL    HW255200  12.823   6.506   9.083
84435SOL     OW55201   8.883   5.690  14.814
84435SOL    HW155202   8.811   5.673   0.003
84435SOL    HW255203   8.940   5.751  14.861
84436SOL     OW55204   4.717  14.031  13.868
84436SOL    HW155205   4.627  14.030  13.834
84436SOL    HW255206   4.712  13.982  13.950
84437SOL     OW55207   3.897  11.645   6.707
84437SOL    HW155208   3.818  11.593   6.723
84437SOL    HW255209   3.875  11.702   6.634
84438SOL     OW55210   2.152   0.254  14.789
84438SOL    HW155211   2.106   0.329  14.752
84438SOL    HW255212   2.242   0.262  14.755
84439SOL     OW55213  11.485   4.596   2.603
84439SOL    HW155214  11.545   4.548   2.659
84439SOL    HW255215  11.540   4.633   2.534
84440SOL     OW55216  13.039   2.598   9.308
84440SOL    HW155217  13.113   2.549   9.271
84440SOL    HW255218  12.978   2.531   9.339
84441SOL     OW55219  14.767   6.746   2.585
84441SOL    HW155220  14.743   6.827   2.539
84441SOL    HW255221  14.843   6.714   2.538
84442SOL     OW55222   9.780  13.383   2.029
84442SOL    HW155223   9.738  13.440   2.093
84442SOL    HW255224   9.750  13.416   1.944
84443SOL     OW55225  10.841   4.842  12.823
84443SOL    HW155226  10.764   4.808  12.778
84443SOL    HW255227  10.871   4.914  12.769
84444SOL     OW55228   2.145  10.912  10.489
84444SOL    HW155229   2.211  10.946  10.550
84444SOL    HW255230   2.070  10.970  10.502
84445SOL     OW55231  11.375   5.975   8.290
84445SOL    HW155232  11.469   5.991   8.283
84445SOL    HW255233  11.347   6.028   8.365
84446SOL     OW55234   9.472   6.350  13.484
84446SOL    HW155235   9.386   6.307  13.482
84446SOL    HW255236   9.470   6.412  13.412
84447SOL     OW55237  13.082  13.032   0.894
84447SOL    HW155238  13.140  13.059   0.966
84447SOL    HW255239  13.141  13.012   0.822
84448SOL     OW55240   6.077   1.374  10.289
84448SOL    HW155241   6.130   1.330  10.356
84448SOL    HW255242   5.996   1.323  10.286
84449SOL     OW55243  12.660   5.886   8.762
84449SOL    HW155244  12.735   5.874   8.705
84449SOL    HW255245  12.584   5.883   8.704
84450SOL     OW55246  14.194  10.460   7.135
84450SOL    HW155247  14.111  10.432   7.096
84450SOL    HW255248  14.170  10.490   7.223
84451SOL     OW55249   0.004   6.627   8.781
84451SOL    HW155250  14.806   6.564   8.793
84451SOL    HW255251   0.084   6.580   8.807
84452SOL     OW55252   7.165   9.330   0.359
84452SOL    HW155253   7.147   9.324   0.266
84452SOL    HW255254   7.126   9.250   0.396
84453SOL     OW55255   1.495   1.809  11.030
84453SOL    HW155256   1.546   1.775  10.956
84453SOL    HW255257   1.404   1.796  11.003
84454SOL     OW55258  14.413   7.473  11.411
84454SOL    HW155259  14.410   7.412  11.337
84454SOL    HW255260  14.506   7.486  11.427
84455SOL     OW55261  12.347   4.360   3.119
84455SOL    HW155262  12.337   4.265   3.128
84455SOL    HW255263  12.263   4.390   3.083
84456SOL     OW55264   8.026   9.947  14.738
84456SOL    HW155265   7.933   9.923  14.743
84456SOL    HW255266   8.072   9.868  14.768
84457SOL     OW55267   0.104  13.644  12.444
84457SOL    HW155268   0.064  13.698  12.511
84457SOL    HW255269   0.147  13.574  12.492
84458SOL     OW55270   2.996   7.671   3.681
84458SOL    HW155271   3.033   7.584   3.696
84458SOL    HW255272   3.065   7.731   3.711
84459SOL     OW55273   7.472   9.978   8.197
84459SOL    HW155274   7.516   9.955   8.115
84459SOL    HW255275   7.390   9.928   8.195
84460SOL     OW55276  13.337   5.219   3.574
84460SOL    HW155277  13.272   5.155   3.546
84460SOL    HW255278  13.331   5.289   3.509
84461SOL     OW55279   6.437  13.530   2.699
84461SOL    HW155280   6.528  13.558   2.699
84461SOL    HW255281   6.428  13.477   2.778
84462SOL     OW55282   3.951   5.642   3.360
84462SOL    HW155283   3.991   5.568   3.315
84462SOL    HW255284   3.947   5.615   3.452
84463SOL     OW55285   3.039  14.067   8.556
84463SOL    HW155286   3.029  14.031   8.644
84463SOL    HW255287   3.131  14.094   8.551
84464SOL     OW55288  14.619   4.554   5.665
84464SOL    HW155289  14.561   4.556   5.741
84464SOL    HW255290  14.569   4.597   5.596
84465SOL     OW55291  12.975  14.261   6.732
84465SOL    HW155292  12.935  14.315   6.800
84465SOL    HW255293  13.013  14.187   6.778
84466SOL     OW55294   4.641   0.636   3.382
84466SOL    HW155295   4.647   0.663   3.290
84466SOL    HW255296   4.648   0.541   3.380
84467SOL     OW55297   3.631   3.613  10.696
84467SOL    HW155298   3.706   3.659  10.735
84467SOL    HW255299   3.616   3.658  10.613
84468SOL     OW55300   9.035   1.851   4.910
84468SOL    HW155301   8.950   1.869   4.870
84468SOL    HW255302   9.099   1.881   4.845
84469SOL     OW55303   4.875   9.212   4.418
84469SOL    HW155304   4.956   9.229   4.370
84469SOL    HW255305   4.807   9.208   4.350
84470SOL     OW55306   8.576   8.607   9.490
84470SOL    HW155307   8.648   8.544   9.490
84470SOL    HW255308   8.497   8.553   9.502
84471SOL     OW55309   4.934  10.357   8.206
84471SOL    HW155310   4.937  10.262   8.223
84471SOL    HW255311   4.942  10.364   8.111
84472SOL     OW55312   3.137   9.675  11.072
84472SOL    HW155313   3.195   9.750  11.076
84472SOL    HW255314   3.099   9.679  10.985
84473SOL     OW55315  11.597   7.767  12.882
84473SOL    HW155316  11.630   7.829  12.816
84473SOL    HW255317  11.512   7.803  12.908
84474SOL     OW55318  14.715   6.391  10.989
84474SOL    HW155319  14.754   6.479  10.991
84474SOL    HW255320  14.758   6.345  11.062
84475SOL     OW55321  11.878   3.771   6.646
84475SOL    HW155322  11.846   3.681   6.656
84475SOL    HW255323  11.924   3.771   6.562
84476SOL     OW55324   7.352   7.873   9.879
84476SOL    HW155325   7.313   7.792   9.911
84476SOL    HW255326   7.278   7.921   9.841
84477SOL     OW55327  13.625   7.650  12.566
84477SOL    HW155328  13.550   7.597  12.538
84477SOL    HW255329  13.626   7.724  12.505
84478SOL     OW55330   0.777   9.800   5.705
84478SOL    HW155331   0.866   9.785   5.675
84478SOL    HW255332   0.776   9.892   5.732
84479SOL     OW55333   4.276   0.368   7.030
84479SOL    HW155334   4.191   0.367   6.986
84479SOL    HW255335   4.329   0.306   6.980
84480SOL     OW55336   7.765  14.292  12.638
84480SOL    HW155337   7.691  14.332  12.591
84480SOL    HW255338   7.745  14.306  12.730
84481SOL     OW55339  11.798  13.756  10.610
84481SOL    HW155340  11.828  13.668  10.591
84481SOL    HW255341  11.873  13.800  10.650
84482SOL     OW55342  13.800   6.491   3.471
84482SOL    HW155343  13.890   6.504   3.441
84482SOL    HW255344  13.801   6.522   3.562
84483SOL     OW55345  11.791   3.554  11.529
84483SOL    HW155346  11.810   3.490  11.597
84483SOL    HW255347  11.785   3.503  11.448
84484SOL     OW55348   9.763   0.703   4.374
84484SOL    HW155349   9.815   0.783   4.373
84484SOL    HW255350   9.828   0.633   4.377
84485SOL     OW55351   5.761  12.058   7.858
84485SOL    HW155352   5.681  12.088   7.901
84485SOL    HW255353   5.755  12.094   7.770
84486SOL     OW55354  11.512   2.950   4.100
84486SOL    HW155355  11.536   2.967   4.009
84486SOL    HW255356  11.595   2.945   4.147
84487SOL     OW55357  12.940   3.624  13.639
84487SOL    HW155358  12.987   3.706  13.652
84487SOL    HW255359  12.878   3.620  13.712
84488SOL     OW55360   1.937   4.542   3.615
84488SOL    HW155361   1.888   4.578   3.689
84488SOL    HW255362   1.874   4.543   3.542
84489SOL     OW55363   4.206   4.116  11.409
84489SOL    HW155364   4.232   4.132  11.319
84489SOL    HW255365   4.178   4.201  11.442
84490SOL     OW55366   7.934  13.301  14.289
84490SOL    HW155367   7.978  13.285  14.373
84490SOL    HW255368   7.964  13.388  14.262
84491SOL     OW55369  12.230  13.220  11.484
84491SOL    HW155370  12.206  13.149  11.544
84491SOL    HW255371  12.153  13.231  11.429
84492SOL     OW55372   1.964   2.186  14.252
84492SOL    HW155373   1.950   2.132  14.330
84492SOL    HW255374   1.927   2.134  14.180
84493SOL     OW55375   3.662   5.532   9.628
84493SOL    HW155376   3.636   5.441   9.641
84493SOL    HW255377   3.585   5.573   9.588
84494SOL     OW55378   7.611   0.722  10.948
84494SOL    HW155379   7.549   0.720  11.021
84494SOL    HW255380   7.558   0.701  10.871
84495SOL     OW55381  14.724   8.015   0.532
84495SOL    HW155382  14.700   8.077   0.601
84495SOL    HW255383  14.673   7.936   0.552
84496SOL     OW55384  10.322   6.250  10.134
84496SOL    HW155385  10.385   6.181  10.113
84496SOL    HW255386  10.374   6.320  10.172
84497SOL     OW55387   6.007  11.952   4.143
84497SOL    HW155388   6.017  11.966   4.048
84497SOL    HW255389   5.943  12.019   4.169
84498SOL     OW55390   0.351  12.171   3.483
84498SOL    HW155391   0.406  12.181   3.560
84498SOL    HW255392   0.288  12.243   3.489
84499SOL     OW55393  12.503   4.283   8.034
84499SOL    HW155394  12.414   4.306   8.060
84499SOL    HW255395  12.493   4.242   7.949
84500SOL     OW55396   6.336  14.532  13.605
84500SOL    HW155397   6.280  14.458  13.579
84500SOL    HW255398   6.292  14.571  13.680
84501SOL     OW55399   2.027   1.239   7.451
84501SOL    HW155400   2.083   1.173   7.494
84501SOL    HW255401   1.950   1.190   7.424
84502SOL     OW55402  10.360  11.251  14.678
84502SOL    HW155403  10.310  11.321  14.720
84502SOL    HW255404  10.347  11.175  14.735
84503SOL     OW55405  14.251   0.593   2.005
84503SOL    HW155406  14.299   0.602   2.087
84503SOL    HW255407  14.225   0.500   2.003
84504SOL     OW55408   3.942   0.059   6.658
84504SOL    HW155409   3.891   0.053   6.739
84504SOL    HW255410   4.006  14.860   6.664
84505SOL     OW55411   5.105  12.176   6.039
84505SOL    HW155412   5.112  12.082   6.021
84505SOL    HW255413   5.076  12.180   6.130
84506SOL     OW55414  14.031   9.715   0.919
84506SOL    HW155415  14.113   9.685   0.958
84506SOL    HW255416  13.964   9.689   0.982
84507SOL     OW55417  14.146  14.556   6.444
84507SOL    HW155418  14.223  14.609   6.468
84507SOL    HW255419  14.074  14.598   6.491
84508SOL     OW55420  14.719  14.055  11.452
84508SOL    HW155421  14.682  14.012  11.529
84508SOL    HW255422  14.724  14.148  11.476
84509SOL     OW55423   0.895   2.104  12.327
84509SOL    HW155424   0.879   2.120  12.234
84509SOL    HW255425   0.989   2.090  12.333
84510SOL     OW55426  10.600   0.307   1.355
84510SOL    HW155427  10.626   0.350   1.274
84510SOL    HW255428  10.507   0.328   1.366
84511SOL     OW55429   9.557   2.736   3.142
84511SOL    HW155430   9.527   2.774   3.224
84511SOL    HW255431   9.647   2.764   3.134
84512SOL     OW55432  12.474   8.746   4.496
84512SOL    HW155433  12.505   8.715   4.581
84512SOL    HW255434  12.481   8.842   4.502
84513SOL     OW55435   0.984  12.747   7.200
84513SOL    HW155436   1.035  12.666   7.194
84513SOL    HW255437   0.894  12.718   7.212
84514SOL     OW55438  12.732   1.514   4.790
84514SOL    HW155439  12.748   1.424   4.763
84514SOL    HW255440  12.764   1.518   4.880
84515SOL     OW55441  13.389   7.713   1.483
84515SOL    HW155442  13.384   7.791   1.538
84515SOL    HW255443  13.298   7.693   1.462
84516SOL     OW55444   8.510   0.271   6.202
84516SOL    HW155445   8.484   0.363   6.190
84516SOL    HW255446   8.430   0.221   6.183
84517SOL     OW55447   1.803   3.959  13.536
84517SOL    HW155448   1.897   3.962  13.521
84517SOL    HW255449   1.794   3.938  13.629
84518SOL     OW55450   0.543   6.862  14.392
84518SOL    HW155451   0.622   6.809  14.402
84518SOL    HW255452   0.574   6.945  14.355
84519SOL     OW55453   9.872   9.786   3.972
84519SOL    HW155454   9.861   9.850   4.042
84519SOL    HW255455   9.877   9.702   4.016
84520SOL     OW55456   6.196   1.118  10.813
84520SOL    HW155457   6.182   1.203  10.773
84520SOL    HW255458   6.108   1.079  10.819
84521SOL     OW55459   0.611   9.243  11.083
84521SOL    HW155460   0.689   9.266  11.134
84521SOL    HW255461   0.646   9.199  11.005
84522SOL     OW55462   1.300   0.422   8.705
84522SOL    HW155463   1.318   0.453   8.794
84522SOL    HW255464   1.337   0.334   8.702
84523SOL     OW55465   6.640   7.122   9.141
84523SOL    HW155466   6.633   7.205   9.095
84523SOL    HW255467   6.645   7.145   9.233
84524SOL     OW55468   4.949  12.543   9.387
84524SOL    HW155469   4.879  12.479   9.378
84524SOL    HW255470   5.000  12.512   9.461
84525SOL     OW55471   1.758   7.579   7.296
84525SOL    HW155472   1.754   7.639   7.371
84525SOL    HW255473   1.681   7.523   7.307
84526SOL     OW55474   8.269   1.476  13.038
84526SOL    HW155475   8.267   1.477  12.942
84526SOL    HW255476   8.187   1.434  13.063
84527SOL     OW55477   7.026  13.650  12.548
84527SOL    HW155478   7.032  13.734  12.593
84527SOL    HW255479   6.973  13.668  12.470
84528SOL     OW55480   0.509  10.034   3.916
84528SOL    HW155481   0.594  10.005   3.883
84528SOL    HW255482   0.513  10.020   4.010
84529SOL     OW55483   2.824   4.511  12.400
84529SOL    HW155484   2.742   4.462  12.411
84529SOL    HW255485   2.808   4.595  12.442
84530SOL     OW55486   5.160   2.664   5.122
84530SOL    HW155487   5.144   2.585   5.174
84530SOL    HW255488   5.088   2.665   5.058
84531SOL     OW55489  11.583  12.933  11.174
84531SOL    HW155490  11.545  12.959  11.258
84531SOL    HW255491  11.636  12.856  11.194
84532SOL     OW55492   7.093   3.426  12.909
84532SOL    HW155493   7.149   3.350  12.894
84532SOL    HW255494   7.150   3.489  12.953
84533SOL     OW55495   1.484  12.619   3.925
84533SOL    HW155496   1.564  12.591   3.970
84533SOL    HW255497   1.452  12.693   3.976
84534SOL     OW55498   3.241   8.311   4.453
84534SOL    HW155499   3.162   8.317   4.398
84534SOL    HW255500   3.273   8.401   4.460
84535SOL     OW55501   5.520  12.575   4.421
84535SOL    HW155502   5.428  12.568   4.395
84535SOL    HW255503   5.568  12.576   4.338
84536SOL     OW55504   8.948  12.932  12.834
84536SOL    HW155505   8.964  12.958  12.925
84536SOL    HW255506   8.858  12.900  12.833
84537SOL     OW55507  13.879   5.843   9.542
84537SOL    HW155508  13.826   5.923   9.545
84537SOL    HW255509  13.965   5.869   9.576
84538SOL     OW55510   9.093   1.920   8.516
84538SOL    HW155511   9.040   1.916   8.596
84538SOL    HW255512   9.071   2.004   8.477
84539SOL     OW55513  11.352   5.383  10.716
84539SOL    HW155514  11.345   5.313  10.781
84539SOL    HW255515  11.446   5.398  10.708
84540SOL     OW55516  10.653  10.656   0.072
84540SOL    HW155517  10.722  10.664   0.138
84540SOL    HW255518  10.690  10.597   0.006
84541SOL     OW55519   8.444  12.842   5.931
84541SOL    HW155520   8.480  12.784   5.998
84541SOL    HW255521   8.350  12.846   5.950
84542SOL     OW55522   7.834   0.485   3.857
84542SOL    HW155523   7.902   0.482   3.925
84542SOL    HW255524   7.758   0.444   3.897
84543SOL     OW55525   5.660   5.527   9.176
84543SOL    HW155526   5.578   5.574   9.161
84543SOL    HW255527   5.728   5.594   9.171
84544SOL     OW55528  10.074   3.102   1.637
84544SOL    HW155529  10.159   3.066   1.662
84544SOL    HW255530  10.056   3.063   1.552
84545SOL     OW55531  12.265   1.370   3.942
84545SOL    HW155532  12.355   1.386   3.970
84545SOL    HW255533  12.217   1.446   3.973
84546SOL     OW55534  12.677   7.657   2.946
84546SOL    HW155535  12.646   7.681   3.034
84546SOL    HW255536  12.763   7.698   2.939
84547SOL     OW55537   2.078  12.463  11.964
84547SOL    HW155538   2.030  12.492  11.887
84547SOL    HW255539   2.061  12.369  11.970
84548SOL     OW55540   6.171   8.187  14.097
84548SOL    HW155541   6.261   8.217  14.087
84548SOL    HW255542   6.149   8.207  14.188
84549SOL     OW55543  13.223   3.966   6.493
84549SOL    HW155544  13.291   4.024   6.529
84549SOL    HW255545  13.159   4.026   6.454
84550SOL     OW55546   3.016  14.825   0.284
84550SOL    HW155547   2.967  14.842   0.204
84550SOL    HW255548   2.982  14.742   0.317
84551SOL     OW55549   1.051   0.870   3.043
84551SOL    HW155550   1.141   0.860   3.012
84551SOL    HW255551   1.049   0.957   3.082
84552SOL     OW55552  13.484  13.108  13.066
84552SOL    HW155553  13.423  13.156  13.123
84552SOL    HW255554  13.568  13.151  13.079
84553SOL     OW55555   8.593   7.941   0.161
84553SOL    HW155556   8.582   7.957   0.255
84553SOL    HW255557   8.595   8.029   0.122
84554SOL     OW55558   6.514   3.566   6.914
84554SOL    HW155559   6.565   3.578   6.835
84554SOL    HW255560   6.530   3.644   6.967
84555SOL     OW55561   0.895  12.823   1.665
84555SOL    HW155562   0.811  12.824   1.618
84555SOL    HW255563   0.960  12.806   1.597
84556SOL     OW55564   1.421  14.860   3.521
84556SOL    HW155565   1.377   0.072   3.513
84556SOL    HW255566   1.512   0.010   3.541
84557SOL     OW55567  14.506   7.510  12.282
84557SOL    HW155568  14.559   7.533  12.206
84557SOL    HW255569  14.569   7.477  12.346
84558SOL     OW55570   9.713  10.709   9.208
84558SOL    HW155571   9.797  10.680   9.245
84558SOL    HW255572   9.664  10.628   9.192
84559SOL     OW55573   0.928  14.845  12.053
84559SOL    HW155574   0.996   0.031  12.086
84559SOL    HW255575   0.907   0.007  11.966
84560SOL     OW55576   8.080  11.053  14.800
84560SOL    HW155577   8.105  11.145  14.810
84560SOL    HW255578   8.040  11.030   0.012
84561SOL     OW55579   8.848  14.563   7.779
84561SOL    HW155580   8.886  14.550   7.866
84561SOL    HW255581   8.788  14.490   7.767
84562SOL     OW55582   3.872   8.127  11.387
84562SOL    HW155583   3.843   8.069  11.457
84562SOL    HW255584   3.916   8.199  11.433
84563SOL     OW55585  10.611   1.633  11.642
84563SOL    HW155586  10.642   1.692  11.711
84563SOL    HW255587  10.690   1.599  11.601
84564SOL     OW55588   9.892  11.976   8.764
84564SOL    HW155589   9.835  11.910   8.804
84564SOL    HW255590   9.833  12.033   8.715
84565SOL     OW55591   2.249   4.215   6.355
84565SOL    HW155592   2.270   4.138   6.301
84565SOL    HW255593   2.247   4.288   6.292
84566SOL     OW55594   9.409   8.118  12.647
84566SOL    HW155595   9.478   8.111  12.581
84566SOL    HW255596   9.347   8.181  12.610
84567SOL     OW55597  11.585  13.209   1.833
84567SOL    HW155598  11.546  13.177   1.914
84567SOL    HW255599  11.608  13.300   1.852
84568SOL     OW55600   8.278   9.168   9.105
84568SOL    HW155601   8.363   9.156   9.061
84568SOL    HW255602   8.259   9.261   9.095
84569SOL     OW55603  12.743   8.609   4.968
84569SOL    HW155604  12.773   8.530   5.014
84569SOL    HW255605  12.725   8.672   5.038
84570SOL     OW55606   9.853   2.772   0.583
84570SOL    HW155607   9.842   2.704   0.517
84570SOL    HW255608   9.798   2.844   0.553
84571SOL     OW55609   1.648   6.564   5.608
84571SOL    HW155610   1.574   6.563   5.546
84571SOL    HW255611   1.667   6.472   5.624
84572SOL     OW55612   3.483  13.928   8.124
84572SOL    HW155613   3.422  13.859   8.097
84572SOL    HW255614   3.485  13.988   8.049
84573SOL     OW55615   4.581   8.381  12.525
84573SOL    HW155616   4.644   8.353  12.458
84573SOL    HW255617   4.497   8.344  12.496
84574SOL     OW55618   9.176   0.408   4.011
84574SOL    HW155619   9.170   0.477   4.077
84574SOL    HW255620   9.116   0.340   4.042
84575SOL     OW55621   5.243   6.320   5.790
84575SOL    HW155622   5.163   6.269   5.782
84575SOL    HW255623   5.292   6.277   5.859
84576SOL     OW55624   6.941  12.492  14.513
84576SOL    HW155625   6.945  12.402  14.481
84576SOL    HW255626   6.925  12.483  14.607
84577SOL     OW55627   3.386   2.462  13.916
84577SOL    HW155628   3.432   2.388  13.877
84577SOL    HW255629   3.424   2.471  14.004
84578SOL     OW55630   9.577   4.390   5.946
84578SOL    HW155631   9.554   4.352   6.030
84578SOL    HW255632   9.522   4.468   5.939
84579SOL     OW55633  13.765  11.609  11.896
84579SOL    HW155634  13.694  11.624  11.959
84579SOL    HW255635  13.788  11.517  11.908
84580SOL     OW55636  12.839   0.014   4.369
84580SOL    HW155637  12.841   0.053   4.457
84580SOL    HW255638  12.910   0.059   4.322
84581SOL     OW55639   4.538   1.518   1.215
84581SOL    HW155640   4.518   1.440   1.267
84581SOL    HW255641   4.455   1.542   1.175
84582SOL     OW55642   4.326   1.021   8.069
84582SOL    HW155643   4.257   0.973   8.115
84582SOL    HW255644   4.294   1.111   8.066
84583SOL     OW55645   3.343  13.738  11.798
84583SOL    HW155646   3.299  13.803  11.853
84583SOL    HW255647   3.275  13.674  11.778
84584SOL     OW55648   2.535   2.796   8.626
84584SOL    HW155649   2.589   2.869   8.656
84584SOL    HW255650   2.520   2.743   8.704
84585SOL     OW55651   8.009  11.688   3.990
84585SOL    HW155652   7.960  11.619   4.035
84585SOL    HW255653   8.061  11.642   3.925
84586SOL     OW55654   7.714   5.303   9.024
84586SOL    HW155655   7.793   5.337   9.066
84586SOL    HW255656   7.726   5.208   9.026
84587SOL     OW55657  12.555  10.463  14.633
84587SOL    HW155658  12.618  10.525  14.596
84587SOL    HW255659  12.472  10.511  14.633
84588SOL     OW55660   5.543  10.746   2.220
84588SOL    HW155661   5.495  10.778   2.144
84588SOL    HW255662   5.540  10.818   2.283
84589SOL     OW55663  12.002   2.501   7.464
84589SOL    HW155664  12.049   2.565   7.517
84589SOL    HW255665  12.004   2.421   7.515
84590SOL     OW55666  11.968   3.669   4.626
84590SOL    HW155667  11.885   3.705   4.595
84590SOL    HW255668  11.981   3.591   4.571
84591SOL     OW55669   0.619  14.660  13.975
84591SOL    HW155670   0.711  14.636  13.966
84591SOL    HW255671   0.574  14.608  13.909
84592SOL     OW55672  10.098   0.753   0.593
84592SOL    HW155673  10.168   0.795   0.544
84592SOL    HW255674  10.088   0.808   0.671
84593SOL     OW55675   9.302   9.113   6.191
84593SOL    HW155676   9.308   9.062   6.272
84593SOL    HW255677   9.233   9.177   6.209
84594SOL     OW55678  10.921   6.501  11.583
84594SOL    HW155679  10.883   6.518  11.496
84594SOL    HW255680  10.849   6.463  11.633
84595SOL     OW55681   5.432   1.684   6.558
84595SOL    HW155682   5.489   1.608   6.541
84595SOL    HW255683   5.360   1.673   6.495
84596SOL     OW55684  10.242   6.141   5.903
84596SOL    HW155685  10.326   6.175   5.870
84596SOL    HW255686  10.238   6.172   5.994
84597SOL     OW55687  11.031   8.767  14.052
84597SOL    HW155688  10.975   8.835  14.015
84597SOL    HW255689  11.095   8.815  14.105
84598SOL     OW55690   6.987  14.638   4.806
84598SOL    HW155691   7.066  14.690   4.820
84598SOL    HW255692   6.985  14.621   4.712
84599SOL     OW55693  13.351   5.788   8.574
84599SOL    HW155694  13.310   5.703   8.558
84599SOL    HW255695  13.383   5.781   8.665
84600SOL     OW55696   2.331   5.457  10.900
84600SOL    HW155697   2.332   5.495  10.988
84600SOL    HW255698   2.299   5.529  10.844
84601SOL     OW55699   0.064   6.446   1.848
84601SOL    HW155700  14.849   6.412   1.866
84601SOL    HW255701   0.089   6.491   1.929
84602SOL     OW55702   6.367  12.699   6.044
84602SOL    HW155703   6.290  12.730   5.997
84602SOL    HW255704   6.413  12.779   6.070
84603SOL     OW55705   0.321  11.359   6.155
84603SOL    HW155706   0.251  11.297   6.132
84603SOL    HW255707   0.277  11.426   6.207
84604SOL     OW55708   5.126   2.811   2.643
84604SOL    HW155709   5.221   2.799   2.653
84604SOL    HW255710   5.098   2.738   2.588
84605SOL     OW55711   7.643  14.332   4.358
84605SOL    HW155712   7.708  14.392   4.393
84605SOL    HW255713   7.648  14.255   4.414
84606SOL     OW55714   0.653   9.258   0.502
84606SOL    HW155715   0.572   9.286   0.544
84606SOL    HW255716   0.631   9.249   0.410
84607SOL     OW55717  11.162  13.170   8.066
84607SOL    HW155718  11.128  13.150   8.153
84607SOL    HW255719  11.256  13.156   8.073
84608SOL     OW55720   8.954   4.387  14.570
84608SOL    HW155721   9.046   4.381  14.595
84608SOL    HW255722   8.909   4.413  14.650
84609SOL     OW55723   4.736   8.145   9.287
84609SOL    HW155724   4.682   8.096   9.349
84609SOL    HW255725   4.813   8.171   9.337
84610SOL     OW55726   0.601  10.322   7.934
84610SOL    HW155727   0.558  10.333   7.849
84610SOL    HW255728   0.694  10.311   7.913
84611SOL     OW55729   7.416  11.786   5.214
84611SOL    HW155730   7.347  11.829   5.265
84611SOL    HW255731   7.397  11.808   5.123
84612SOL     OW55732   3.250   3.801  14.649
84612SOL    HW155733   3.337   3.837  14.663
84612SOL    HW255734   3.216   3.849  14.573
84613SOL     OW55735  10.906  14.571  13.106
84613SOL    HW155736  10.983  14.619  13.137
84613SOL    HW255737  10.910  14.578  13.011
84614SOL     OW55738  12.072   6.234   5.596
84614SOL    HW155739  12.029   6.186   5.666
84614SOL    HW255740  12.142   6.175   5.566
84615SOL     OW55741  13.216  14.205   1.403
84615SOL    HW155742  13.125  14.222   1.376
84615SOL    HW255743  13.268  14.265   1.350
84616SOL     OW55744   9.731   7.136   9.920
84616SOL    HW155745   9.685   7.137   9.836
84616SOL    HW255746   9.807   7.080   9.904
84617SOL     OW55747   9.381   9.649  11.631
84617SOL    HW155748   9.377   9.566  11.679
84617SOL    HW255749   9.371   9.624  11.539
84618SOL     OW55750   0.855  12.818  11.673
84618SOL    HW155751   0.946  12.813  11.701
84618SOL    HW255752   0.852  12.893  11.614
84619SOL     OW55753   6.862   3.293   5.385
84619SOL    HW155754   6.767   3.298   5.386
84619SOL    HW255755   6.890   3.369   5.334
84620SOL     OW55756   2.199  11.232  12.748
84620SOL    HW155757   2.155  11.164  12.799
84620SOL    HW255758   2.137  11.306  12.748
84621SOL     OW55759  11.521  14.810   1.217
84621SOL    HW155760  11.432  14.777   1.211
84621SOL    HW255761  11.532  14.864   1.139
84622SOL     OW55762  14.769  13.448   6.687
84622SOL    HW155763  14.756  13.354   6.699
84622SOL    HW255764  14.713  13.471   6.613
84623SOL     OW55765  10.622   2.047   3.586
84623SOL    HW155766  10.557   2.073   3.521
84623SOL    HW255767  10.687   2.117   3.585
84624SOL     OW55768  10.484   2.466   1.264
84624SOL    HW155769  10.487   2.550   1.310
84624SOL    HW255770  10.395   2.462   1.229
84625SOL     OW55771   8.717   1.156  10.685
84625SOL    HW155772   8.720   1.222  10.754
84625SOL    HW255773   8.683   1.203  10.609
84626SOL     OW55774  13.201  14.792  10.510
84626SOL    HW155775  13.135  14.817  10.446
84626SOL    HW255776  13.160  14.808  10.595
84627SOL     OW55777   7.027   9.079   9.840
84627SOL    HW155778   7.058   9.106   9.926
84627SOL    HW255779   7.008   9.160   9.794
84628SOL     OW55780   8.978  11.113   5.786
84628SOL    HW155781   9.035  11.043   5.817
84628SOL    HW255782   8.897  11.101   5.836
84629SOL     OW55783   7.076   9.479   3.050
84629SOL    HW155784   7.145   9.416   3.072
84629SOL    HW255785   7.024   9.434   2.982
84630SOL     OW55786   1.706  12.538   9.376
84630SOL    HW155787   1.758  12.457   9.379
84630SOL    HW255788   1.671  12.547   9.465
84631SOL     OW55789   5.507   0.474  10.599
84631SOL    HW155790   5.494   0.380  10.588
84631SOL    HW255791   5.588   0.481  10.650
84632SOL     OW55792  13.032   9.445   2.785
84632SOL    HW155793  13.030   9.358   2.747
84632SOL    HW255794  13.031   9.504   2.709
84633SOL     OW55795   3.906  13.732  10.413
84633SOL    HW155796   3.981  13.791  10.416
84633SOL    HW255797   3.893  13.715  10.320
84634SOL     OW55798  12.246   8.978   6.330
84634SOL    HW155799  12.234   8.893   6.287
84634SOL    HW255800  12.192   9.038   6.280
84635SOL     OW55801   7.633  14.260   3.273
84635SOL    HW155802   7.640  14.174   3.315
84635SOL    HW255803   7.538  14.276   3.269
84636SOL     OW55804   3.668   5.311  11.305
84636SOL    HW155805   3.738   5.253  11.337
84636SOL    HW255806   3.601   5.305  11.373
84637SOL     OW55807   8.834   3.893   6.148
84637SOL    HW155808   8.783   3.958   6.197
84637SOL    HW255809   8.782   3.877   6.069
84638SOL     OW55810   7.244  12.045   8.956
84638SOL    HW155811   7.250  12.098   9.036
84638SOL    HW255812   7.320  11.988   8.959
84639SOL     OW55813   4.766   5.176  11.068
84639SOL    HW155814   4.699   5.237  11.036
84639SOL    HW255815   4.847   5.226  11.064
84640SOL     OW55816   0.422   2.121   2.587
84640SOL    HW155817   0.452   2.129   2.496
84640SOL    HW255818   0.462   2.040   2.618
84641SOL     OW55819  12.421  12.510   7.337
84641SOL    HW155820  12.343  12.455   7.335
84641SOL    HW255821  12.395  12.587   7.389
84642SOL     OW55822   5.929   1.303  13.201
84642SOL    HW155823   5.951   1.389  13.167
84642SOL    HW255824   5.864   1.319  13.269
84643SOL     OW55825   3.203   5.108   2.818
84643SOL    HW155826   3.170   5.172   2.881
84643SOL    HW255827   3.279   5.150   2.778
84644SOL     OW55828   2.588  11.301  12.857
84644SOL    HW155829   2.544  11.384  12.839
84644SOL    HW255830   2.679  11.316  12.832
84645SOL     OW55831  11.999   8.241   0.855
84645SOL    HW155832  11.973   8.242   0.947
84645SOL    HW255833  12.094   8.252   0.857
84646SOL     OW55834   7.515   6.899   9.333
84646SOL    HW155835   7.527   6.948   9.251
84646SOL    HW255836   7.422   6.876   9.334
84647SOL     OW55837   8.061   2.578   0.436
84647SOL    HW155838   8.106   2.494   0.426
84647SOL    HW255839   8.054   2.590   0.531
84648SOL     OW55840  10.108  10.547   2.146
84648SOL    HW155841  10.114  10.518   2.237
84648SOL    HW255842  10.177  10.612   2.137
84649SOL     OW55843   3.691   4.693  12.795
84649SOL    HW155844   3.720   4.735  12.714
84649SOL    HW255845   3.700   4.599  12.779
84650SOL     OW55846  11.859  13.317  14.293
84650SOL    HW155847  11.901  13.304  14.209
84650SOL    HW255848  11.917  13.274  14.356
84651SOL     OW55849   8.733   1.959   6.070
84651SOL    HW155850   8.827   1.954   6.088
84651SOL    HW255851   8.708   2.048   6.097
84652SOL     OW55852   7.380  10.562   2.546
84652SOL    HW155853   7.458  10.595   2.502
84652SOL    HW255854   7.387  10.594   2.636
84653SOL     OW55855  13.032   5.398   6.451
84653SOL    HW155856  13.002   5.308   6.460
84653SOL    HW255857  13.010   5.422   6.361
84654SOL     OW55858   1.237   1.838  14.820
84654SOL    HW155859   1.330   1.815  14.832
84654SOL    HW255860   1.190   1.755  14.833
84655SOL     OW55861   2.167   4.994   6.125
84655SOL    HW155862   2.137   4.906   6.105
84655SOL    HW255863   2.122   5.017   6.206
84656SOL     OW55864  14.622   6.066  13.124
84656SOL    HW155865  14.559   6.120  13.173
84656SOL    HW255866  14.568   6.003  13.077
84657SOL     OW55867  10.985  14.312   0.235
84657SOL    HW155868  10.891  14.321   0.220
84657SOL    HW255869  11.025  14.325   0.149
84658SOL     OW55870   8.499   0.666   8.912
84658SOL    HW155871   8.519   0.573   8.899
84658SOL    HW255872   8.584   0.707   8.928
84659SOL     OW55873   5.513  14.490  12.214
84659SOL    HW155874   5.471  14.405  12.203
84659SOL    HW255875   5.480  14.543  12.141
84660SOL     OW55876  14.750   7.430  12.004
84660SOL    HW155877  14.812   7.445  12.075
84660SOL    HW255878  14.707   7.348  12.027
84661SOL     OW55879   0.057   1.235  11.672
84661SOL    HW155880  14.834   1.246  11.674
84661SOL    HW255881   0.086   1.290  11.600
84662SOL     OW55882  14.502  10.666   3.539
84662SOL    HW155883  14.486  10.698   3.450
84662SOL    HW255884  14.596  10.649   3.541
84663SOL     OW55885   1.126  14.062   6.138
84663SOL    HW155886   1.203  14.012   6.165
84663SOL    HW255887   1.156  14.153   6.136
84664SOL     OW55888  12.152  14.339  13.449
84664SOL    HW155889  12.244  14.319  13.465
84664SOL    HW255890  12.118  14.363  13.536
84665SOL     OW55891   0.874  12.976   5.055
84665SOL    HW155892   0.859  12.961   4.961
84665SOL    HW255893   0.966  13.001   5.060
84666SOL     OW55894   6.875   4.564  10.510
84666SOL    HW155895   6.909   4.651  10.533
84666SOL    HW255896   6.947   4.522  10.463
84667SOL     OW55897   3.801   8.160   2.423
84667SOL    HW155898   3.781   8.251   2.443
84667SOL    HW255899   3.785   8.113   2.505
84668SOL     OW55900   9.752   9.355  11.516
84668SOL    HW155901   9.697   9.295  11.566
84668SOL    HW255902   9.826   9.373  11.574
84669SOL     OW55903   9.474   4.320   2.905
84669SOL    HW155904   9.463   4.296   2.996
84669SOL    HW255905   9.385   4.331   2.872
84670SOL     OW55906   6.930   5.135  13.926
84670SOL    HW155907   6.944   5.049  13.967
84670SOL    HW255908   6.841   5.159  13.950
84671SOL     OW55909   8.576   6.632   1.815
84671SOL    HW155910   8.487   6.601   1.828
84671SOL    HW255911   8.622   6.611   1.896
84672SOL     OW55912  14.137   7.612   3.948
84672SOL    HW155913  14.082   7.552   3.898
84672SOL    HW255914  14.075   7.668   3.995
84673SOL     OW55915  11.265   9.297   4.899
84673SOL    HW155916  11.226   9.211   4.917
84673SOL    HW255917  11.359   9.280   4.894
84674SOL     OW55918   0.031   3.536   4.942
84674SOL    HW155919  14.859   3.526   4.858
84674SOL    HW255920   0.042   3.630   4.953
84675SOL     OW55921   2.246   3.123   8.217
84675SOL    HW155922   2.312   3.189   8.195
84675SOL    HW255923   2.278   3.083   8.299
84676SOL     OW55924   7.709  12.493   8.994
84676SOL    HW155925   7.640  12.427   9.005
84676SOL    HW255926   7.662  12.577   9.000
84677SOL     OW55927   5.047   1.668   2.432
84677SOL    HW155928   5.118   1.696   2.489
84677SOL    HW255929   5.006   1.595   2.479
84678SOL     OW55930   8.981   2.880  10.147
84678SOL    HW155931   8.954   2.806  10.202
84678SOL    HW255932   9.071   2.859  10.120
84679SOL     OW55933   5.753   4.559   6.104
84679SOL    HW155934   5.760   4.615   6.027
84679SOL    HW255935   5.667   4.517   6.095
84680SOL     OW55936  11.951   4.177   8.471
84680SOL    HW155937  11.873   4.167   8.416
84680SOL    HW255938  12.008   4.105   8.445
84681SOL     OW55939  10.265   8.177   6.813
84681SOL    HW155940  10.216   8.196   6.734
84681SOL    HW255941  10.204   8.192   6.885
84682SOL     OW55942   2.638   6.945  14.823
84682SOL    HW155943   2.696   7.020  14.808
84682SOL    HW255944   2.691   6.883   0.000
84683SOL     OW55945   5.641   3.402   3.573
84683SOL    HW155946   5.557   3.443   3.553
84683SOL    HW255947   5.697   3.475   3.599
84684SOL     OW55948   4.166   3.995   8.963
84684SOL    HW155949   4.104   4.050   8.915
84684SOL    HW255950   4.215   3.948   8.896
84685SOL     OW55951   1.629   8.268  10.700
84685SOL    HW155952   1.581   8.314  10.769
84685SOL    HW255953   1.664   8.337  10.645
84686SOL     OW55954   0.403  11.789   8.058
84686SOL    HW155955   0.488  11.761   8.093
84686SOL    HW255956   0.395  11.744   7.974
84687SOL     OW55957  10.900   5.294  10.644
84687SOL    HW155958  10.985   5.256  10.620
84687SOL    HW255959  10.836   5.228  10.618
84688SOL     OW55960   3.017   5.206  10.979
84688SOL    HW155961   3.066   5.287  10.994
84688SOL    HW255962   2.952   5.229  10.913
84689SOL     OW55963   5.201  14.845   7.552
84689SOL    HW155964   5.191   0.015   7.638
84689SOL    HW255965   5.130   0.010   7.499
84690SOL     OW55966   2.483  14.799   2.612
84690SOL    HW155967   2.479   0.011   2.658
84690SOL    HW255968   2.512  14.737   2.679
84691SOL     OW55969   6.374   3.074  10.144
84691SOL    HW155970   6.371   3.146  10.081
84691SOL    HW255971   6.373   2.995  10.090
84692SOL     OW55972  10.157   2.915  12.791
84692SOL    HW155973  10.083   2.965  12.827
84692SOL    HW255974  10.116   2.846  12.739
84693SOL     OW55975  13.064   5.973   1.117
84693SOL    HW155976  13.140   5.923   1.088
84693SOL    HW255977  13.020   5.999   1.036
84694SOL     OW55978   8.608  10.626   8.350
84694SOL    HW155979   8.517  10.634   8.321
84694SOL    HW255980   8.634  10.715   8.373
84695SOL     OW55981   8.429  14.097  10.773
84695SOL    HW155982   8.497  14.154  10.739
84695SOL    HW255983   8.436  14.017  10.721
84696SOL     OW55984   6.774  14.776  14.327
84696SOL    HW155985   6.811  14.763  14.240
84696SOL    HW255986   6.683  14.747  14.320
84697SOL     OW55987  13.142  13.658  11.187
84697SOL    HW155988  13.107  13.627  11.104
84697SOL    HW255989  13.124  13.752  11.187
84698SOL     OW55990   5.898   6.731  14.759
84698SOL    HW155991   5.853   6.803  14.802
84698SOL    HW255992   5.987   6.763  14.746
84699SOL     OW55993  11.360   9.761  12.711
84699SOL    HW155994  11.305   9.766  12.633
84699SOL    HW255995  11.416   9.684  12.697
84700SOL     OW55996   0.471  10.993   4.181
84700SOL    HW155997   0.502  10.949   4.261
84700SOL    HW255998   0.485  11.086   4.198
84701SOL     OW55999  11.576   9.824   7.350
84701SOL    HW156000  11.587   9.766   7.425
84701SOL    HW256001  11.604   9.772   7.275
84702SOL     OW56002  13.762  14.089   3.875
84702SOL    HW156003  13.713  14.081   3.957
84702SOL    HW256004  13.846  14.129   3.901
84703SOL     OW56005   9.123  12.280   6.211
84703SOL    HW156006   9.070  12.360   6.207
84703SOL    HW256007   9.103  12.242   6.296
84704SOL     OW56008   6.144   0.366   8.540
84704SOL    HW156009   6.213   0.386   8.476
84704SOL    HW256010   6.067   0.413   8.508
84705SOL     OW56011  12.687   2.362  10.266
84705SOL    HW156012  12.593   2.378  10.280
84705SOL    HW256013  12.692   2.324  10.179
84706SOL     OW56014  10.174  14.318   3.633
84706SOL    HW156015  10.214  14.325   3.546
84706SOL    HW256016  10.237  14.268   3.684
84707SOL     OW56017   5.333  12.871   2.083
84707SOL    HW156018   5.341  12.965   2.072
84707SOL    HW256019   5.250  12.858   2.129
84708SOL     OW56020  13.661   0.115  14.394
84708SOL    HW156021  13.633   0.207  14.396
84708SOL    HW256022  13.665   0.094  14.301
84709SOL     OW56023   9.891   4.838   4.907
84709SOL    HW156024   9.890   4.742   4.905
84709SOL    HW256025   9.959   4.862   4.844
84710SOL     OW56026  13.774   0.101   0.908
84710SOL    HW156027  13.850   0.094   0.966
84710SOL    HW256028  13.718   0.166   0.949
84711SOL     OW56029  12.499  11.491   3.478
84711SOL    HW156030  12.589  11.511   3.454
84711SOL    HW256031  12.477  11.413   3.428
84712SOL     OW56032   7.891  10.959   5.351
84712SOL    HW156033   7.804  10.934   5.317
84712SOL    HW256034   7.920  10.882   5.400
84713SOL     OW56035   7.847   3.675   0.177
84713SOL    HW156036   7.829   3.653   0.086
84713SOL    HW256037   7.942   3.669   0.186
84714SOL     OW56038   4.487   7.238  10.417
84714SOL    HW156039   4.577   7.253  10.387
84714SOL    HW256040   4.475   7.144  10.410
84715SOL     OW56041   1.846  11.137   7.344
84715SOL    HW156042   1.929  11.134   7.297
84715SOL    HW256043   1.839  11.227   7.377
84716SOL     OW56044  11.091   5.559   3.419
84716SOL    HW156045  11.145   5.625   3.464
84716SOL    HW256046  11.005   5.566   3.461
84717SOL     OW56047   0.278   2.483   2.946
84717SOL    HW156048   0.232   2.434   3.015
84717SOL    HW256049   0.370   2.475   2.969
84718SOL     OW56050  10.997  13.439   2.684
84718SOL    HW156051  10.904  13.436   2.709
84718SOL    HW256052  11.008  13.526   2.646
84719SOL     OW56053  12.339   5.726   5.569
84719SOL    HW156054  12.301   5.680   5.494
84719SOL    HW256055  12.366   5.811   5.533
84720SOL     OW56056   0.905   6.602   5.963
84720SOL    HW156057   0.906   6.509   5.985
84720SOL    HW256058   0.950   6.608   5.879
84721SOL     OW56059   0.636  11.598  13.130
84721SOL    HW156060   0.715  11.633  13.170
84721SOL    HW256061   0.619  11.655  13.055
84722SOL     OW56062   5.086  14.863   1.815
84722SOL    HW156063   5.044   0.034   1.889
84722SOL    HW256064   5.168   0.039   1.801
84723SOL     OW56065  11.542   3.905  13.738
84723SOL    HW156066  11.567   3.836  13.677
84723SOL    HW256067  11.448   3.895  13.749
84724SOL     OW56068  12.526   6.358   8.376
84724SOL    HW156069  12.497   6.302   8.448
84724SOL    HW256070  12.518   6.303   8.298
84725SOL     OW56071   9.496  13.763   0.685
84725SOL    HW156072   9.487  13.685   0.630
84725SOL    HW256073   9.590  13.780   0.687
84726SOL     OW56074  11.007  11.139  12.521
84726SOL    HW156075  11.074  11.108  12.460
84726SOL    HW256076  10.924  11.108  12.483
84727SOL     OW56077   8.098   2.702   3.625
84727SOL    HW156078   8.105   2.703   3.720
84727SOL    HW256079   8.186   2.683   3.594
84728SOL     OW56080   5.795  10.137   9.561
84728SOL    HW156081   5.886  10.122   9.535
84728SOL    HW256082   5.780  10.076   9.633
84729SOL     OW56083   2.791  12.637   1.370
84729SOL    HW156084   2.743  12.710   1.331
84729SOL    HW256085   2.738  12.611   1.446
84730SOL     OW56086   0.546   0.279   3.473
84730SOL    HW156087   0.616   0.338   3.445
84730SOL    HW256088   0.591   0.203   3.509
84731SOL     OW56089  10.681  12.794   4.812
84731SOL    HW156090  10.752  12.839   4.766
84731SOL    HW256091  10.724  12.747   4.883
84732SOL     OW56092   5.277  12.085  10.544
84732SOL    HW156093   5.292  12.163  10.599
84732SOL    HW256094   5.198  12.045  10.581
84733SOL     OW56095  10.308   9.866  12.857
84733SOL    HW156096  10.357   9.932  12.907
84733SOL    HW256097  10.295   9.794  12.919
84734SOL     OW56098   2.468  14.837   6.094
84734SOL    HW156099   2.549  14.791   6.077
84734SOL    HW256100   2.475   0.047   6.045
84735SOL     OW56101   3.668   0.836  14.576
84735SOL    HW156102   3.659   0.881  14.492
84735SOL    HW256103   3.712   0.754  14.555
84736SOL     OW56104   6.512   0.164  14.545
84736SOL    HW156105   6.542   0.178  14.455
84736SOL    HW256106   6.423   0.199  14.546
84737SOL     OW56107   5.368  12.948   7.188
84737SOL    HW156108   5.443  12.889   7.192
84737SOL    HW256109   5.299  12.897   7.146
84738SOL     OW56110   1.145   7.334  11.601
84738SOL    HW156111   1.197   7.317  11.522
84738SOL    HW256112   1.087   7.258  11.608
84739SOL     OW56113   9.503   3.087   4.666
84739SOL    HW156114   9.557   3.164   4.649
84739SOL    HW256115   9.537   3.020   4.607
84740SOL     OW56116  14.805  10.831  12.782
84740SOL    HW156117  14.722  10.824  12.828
84740SOL    HW256118  14.804  10.917  12.742
84741SOL     OW56119  10.786   0.310   5.106
84741SOL    HW156120  10.808   0.398   5.135
84741SOL    HW256121  10.837   0.252   5.163
84742SOL     OW56122  10.833   1.507   3.902
84742SOL    HW156123  10.752   1.478   3.860
84742SOL    HW256124  10.811   1.592   3.941
84743SOL     OW56125   7.862   4.648  14.342
84743SOL    HW156126   7.855   4.563  14.300
84743SOL    HW256127   7.943   4.642  14.394
84744SOL     OW56128   7.449  11.616  14.682
84744SOL    HW156129   7.487  11.702  14.663
84744SOL    HW256130   7.523  11.564  14.715
84745SOL     OW56131   6.349   5.456   2.817
84745SOL    HW156132   6.262   5.480   2.849
84745SOL    HW256133   6.373   5.379   2.867
84746SOL     OW56134   4.097   2.673   7.362
84746SOL    HW156135   4.163   2.605   7.363
84746SOL    HW256136   4.017   2.631   7.395
84747SOL     OW56137   1.447  12.530  10.579
84747SOL    HW156138   1.423  12.567  10.495
84747SOL    HW256139   1.386  12.570  10.641
84748SOL     OW56140   2.028  10.539  12.358
84748SOL    HW156141   2.106  10.558  12.409
84748SOL    HW256142   2.021  10.612  12.297
84749SOL     OW56143   9.964  13.407   1.596
84749SOL    HW156144   9.922  13.357   1.526
84749SOL    HW256145   9.949  13.354   1.675
84750SOL     OW56146   2.242  14.779   3.155
84750SOL    HW156147   2.283  14.787   3.069
84750SOL    HW256148   2.305  14.819   3.215
84751SOL     OW56149  13.638   1.353  12.353
84751SOL    HW156150  13.582   1.392  12.419
84751SOL    HW256151  13.579   1.305  12.295
84752SOL     OW56152  10.314  13.292   8.480
84752SOL    HW156153  10.257  13.217   8.466
84752SOL    HW256154  10.370  13.267   8.553
84753SOL     OW56155   5.797   6.932   2.399
84753SOL    HW156156   5.760   7.017   2.378
84753SOL    HW256157   5.892   6.945   2.395
84754SOL     OW56158   9.084  10.939  14.643
84754SOL    HW156159   8.996  10.965  14.616
84754SOL    HW256160   9.131  10.925  14.560
84755SOL     OW56161   2.191   0.178   7.328
84755SOL    HW156162   2.201   0.175   7.233
84755SOL    HW256163   2.265   0.230   7.358
84756SOL     OW56164   5.166   3.395  12.995
84756SOL    HW156165   5.212   3.387  13.078
84756SOL    HW256166   5.179   3.487  12.969
84757SOL     OW56167   1.871   3.385  14.838
84757SOL    HW156168   1.872   3.290  14.827
84757SOL    HW256169   1.784   3.412  14.808
84758SOL     OW56170   0.145   9.566   3.415
84758SOL    HW156171   0.150   9.624   3.491
84758SOL    HW256172   0.188   9.614   3.345
84759SOL     OW56173   3.266   8.526   4.091
84759SOL    HW156174   3.260   8.614   4.054
84759SOL    HW256175   3.250   8.468   4.016
84760SOL     OW56176   0.705   7.901  11.203
84760SOL    HW156177   0.641   7.857  11.260
84760SOL    HW256178   0.683   7.869  11.115
84761SOL     OW56179  10.854   7.346  13.580
84761SOL    HW156180  10.862   7.257  13.617
84761SOL    HW256181  10.826   7.399  13.655
84762SOL     OW56182  13.510   1.134  14.355
84762SOL    HW156183  13.489   1.041  14.366
84762SOL    HW256184  13.589   1.135  14.301
84763SOL     OW56185   4.370   4.003   5.390
84763SOL    HW156186   4.420   3.980   5.312
84763SOL    HW256187   4.292   3.947   5.386
84764SOL     OW56188   7.610  12.921   4.297
84764SOL    HW156189   7.586  12.928   4.205
84764SOL    HW256190   7.560  12.990   4.340
84765SOL     OW56191   3.313  10.983   1.773
84765SOL    HW156192   3.328  11.064   1.822
84765SOL    HW256193   3.221  10.962   1.790
84766SOL     OW56194  10.969   9.844  11.335
84766SOL    HW156195  11.014   9.900  11.398
84766SOL    HW256196  10.879   9.876  11.334
84767SOL     OW56197  14.858   1.092   2.054
84767SOL    HW156198  14.779   1.086   2.001
84767SOL    HW256199  14.849   1.022   2.119
84768SOL     OW56200   5.317  11.736   1.169
84768SOL    HW156201   5.380  11.768   1.103
84768SOL    HW256202   5.321  11.800   1.239
84769SOL     OW56203  14.750   5.204   2.911
84769SOL    HW156204  14.794   5.285   2.937
84769SOL    HW256205  14.694   5.182   2.985
84770SOL     OW56206   3.229   5.415   6.529
84770SOL    HW156207   3.323   5.409   6.515
84770SOL    HW256208   3.202   5.491   6.477
84771SOL     OW56209   8.917   5.043   5.734
84771SOL    HW156210   8.955   4.972   5.785
84771SOL    HW256211   8.990   5.077   5.682
84772SOL     OW56212   5.000   9.265  13.060
84772SOL    HW156213   5.089   9.240  13.086
84772SOL    HW256214   5.005   9.279  12.965
84773SOL     OW56215   6.520  11.681   6.452
84773SOL    HW156216   6.569  11.762   6.468
84773SOL    HW256217   6.588  11.615   6.436
84774SOL     OW56218   2.634  14.827   0.336
84774SOL    HW156219   2.658  14.739   0.363
84774SOL    HW256220   2.649  14.828   0.241
84775SOL     OW56221  11.787   8.554   0.131
84775SOL    HW156222  11.714   8.607   0.098
84775SOL    HW256223  11.833   8.525   0.052
84776SOL     OW56224   3.395  10.735  14.146
84776SOL    HW156225   3.314  10.779  14.121
84776SOL    HW256226   3.390  10.730  14.242
84777SOL     OW56227   7.433   4.029   0.777
84777SOL    HW156228   7.392   4.081   0.846
84777SOL    HW256229   7.509   4.081   0.749
84778SOL     OW56230  12.033   0.540   1.135
84778SOL    HW156231  11.967   0.517   1.201
84778SOL    HW256232  12.057   0.457   1.095
84779SOL     OW56233  14.479   7.014   6.679
84779SOL    HW156234  14.385   7.029   6.667
84779SOL    HW256235  14.520   7.098   6.660
84780SOL     OW56236   8.270  10.627  14.152
84780SOL    HW156237   8.211  10.694  14.188
84780SOL    HW256238   8.229  10.602  14.069
84781SOL     OW56239   4.595   6.174  12.826
84781SOL    HW156240   4.603   6.253  12.881
84781SOL    HW256241   4.629   6.103  12.881
84782SOL     OW56242   4.744   0.047   5.854
84782SOL    HW156243   4.803   0.107   5.808
84782SOL    HW256244   4.754  14.836   5.807
84783SOL     OW56245  10.229   2.277   6.936
84783SOL    HW156246  10.244   2.366   6.904
84783SOL    HW256247  10.171   2.237   6.871
84784SOL     OW56248  13.422  12.581  12.396
84784SOL    HW156249  13.354  12.552  12.335
84784SOL    HW256250  13.416  12.676  12.394
84785SOL     OW56251   4.542  11.001  11.746
84785SOL    HW156252   4.562  10.911  11.773
84785SOL    HW256253   4.470  11.027  11.803
84786SOL     OW56254   4.036   5.811   3.927
84786SOL    HW156255   4.004   5.805   4.017
84786SOL    HW256256   4.029   5.904   3.905
84787SOL     OW56257   6.322  12.910  13.227
84787SOL    HW156258   6.405  12.940  13.263
84787SOL    HW256259   6.270  12.885  13.303
84788SOL     OW56260   1.102  13.168   4.722
84788SOL    HW156261   1.023  13.209   4.688
84788SOL    HW256262   1.165  13.240   4.732
84789SOL     OW56263   2.880   3.537   1.422
84789SOL    HW156264   2.892   3.554   1.516
84789SOL    HW256265   2.958   3.488   1.396
84790SOL     OW56266  13.837   7.285   0.787
84790SOL    HW156267  13.765   7.323   0.837
84790SOL    HW256268  13.828   7.191   0.798
84791SOL     OW56269   3.066   5.697   8.143
84791SOL    HW156270   2.977   5.661   8.144
84791SOL    HW256271   3.101   5.677   8.230
84792SOL     OW56272   0.594   8.763  14.032
84792SOL    HW156273   0.652   8.760  13.956
84792SOL    HW256274   0.648   8.799  14.102
84793SOL     OW56275   2.815   6.245   1.008
84793SOL    HW156276   2.755   6.193   0.955
84793SOL    HW256277   2.775   6.245   1.095
84794SOL     OW56278  12.267   9.938  12.916
84794SOL    HW156279  12.305   9.909  12.998
84794SOL    HW256280  12.257   9.857  12.865
84795SOL     OW56281   8.018  11.260   6.834
84795SOL    HW156282   7.956  11.191   6.810
84795SOL    HW256283   8.101  11.215   6.846
84796SOL     OW56284   5.026  12.906   8.206
84796SOL    HW156285   4.968  12.831   8.219
84796SOL    HW256286   5.075  12.913   8.288
84797SOL     OW56287  13.598   5.619   4.054
84797SOL    HW156288  13.634   5.648   4.138
84797SOL    HW256289  13.559   5.698   4.016
84798SOL     OW56290   8.174   6.956   7.574
84798SOL    HW156291   8.102   6.969   7.511
84798SOL    HW256292   8.176   7.038   7.624
84799SOL     OW56293   8.369  13.525   3.408
84799SOL    HW156294   8.329  13.471   3.340
84799SOL    HW256295   8.294  13.568   3.451
84800SOL     OW56296   3.200   1.432   2.882
84800SOL    HW156297   3.219   1.489   2.807
84800SOL    HW256298   3.254   1.354   2.867
84801SOL     OW56299   1.399   6.785   3.285
84801SOL    HW156300   1.399   6.720   3.356
84801SOL    HW256301   1.307   6.810   3.277
84802SOL     OW56302  12.323   2.048   4.769
84802SOL    HW156303  12.392   2.091   4.719
84802SOL    HW256304  12.315   1.961   4.730
84803SOL     OW56305   0.234   4.600  14.383
84803SOL    HW156306   0.317   4.553  14.379
84803SOL    HW256307   0.227   4.631  14.473
84804SOL     OW56308  12.810  12.549   3.603
84804SOL    HW156309  12.732  12.555   3.658
84804SOL    HW256310  12.853  12.468   3.630
84805SOL     OW56311   4.022   2.648  14.591
84805SOL    HW156312   4.003   2.616  14.680
84805SOL    HW256313   3.989   2.738  14.590
84806SOL     OW56314   7.929  10.463   7.571
84806SOL    HW156315   7.836  10.484   7.573
84806SOL    HW256316   7.966  10.525   7.508
84807SOL     OW56317   5.967  11.546   5.786
84807SOL    HW156318   5.933  11.599   5.715
84807SOL    HW256319   6.031  11.488   5.745
84808SOL     OW56320   3.817   5.546  10.284
84808SOL    HW156321   3.850   5.510  10.202
84808SOL    HW256322   3.882   5.520  10.350
84809SOL     OW56323   4.441   7.796   8.531
84809SOL    HW156324   4.436   7.852   8.454
84809SOL    HW256325   4.533   7.799   8.557
84810SOL     OW56326   8.653  12.075  11.070
84810SOL    HW156327   8.710  12.009  11.030
84810SOL    HW256328   8.643  12.142  11.003
84811SOL     OW56329   5.859  12.547   4.952
84811SOL    HW156330   5.791  12.542   5.019
84811SOL    HW256331   5.826  12.611   4.889
84812SOL     OW56332   9.053   1.066   4.085
84812SOL    HW156333   9.065   1.056   4.180
84812SOL    HW256334   9.132   1.111   4.056
84813SOL     OW56335   6.342   7.401   1.296
84813SOL    HW156336   6.380   7.369   1.214
84813SOL    HW256337   6.367   7.335   1.361
84814SOL     OW56338  11.839   3.041   3.665
84814SOL    HW156339  11.804   2.992   3.739
84814SOL    HW256340  11.771   3.034   3.597
84815SOL     OW56341   8.792   2.840  13.311
84815SOL    HW156342   8.704   2.803  13.321
84815SOL    HW256343   8.784   2.902  13.238
84816SOL     OW56344   3.015  14.335  13.752
84816SOL    HW156345   3.002  14.376  13.667
84816SOL    HW256346   3.002  14.242  13.737
84817SOL     OW56347  10.454   5.398   3.231
84817SOL    HW156348  10.470   5.409   3.325
84817SOL    HW256349  10.369   5.355   3.227
84818SOL     OW56350  10.645  14.061   4.396
84818SOL    HW156351  10.694  13.979   4.398
84818SOL    HW256352  10.694  14.120   4.453
84819SOL     OW56353   8.067   3.550   7.895
84819SOL    HW156354   8.098   3.539   7.806
84819SOL    HW256355   7.974   3.527   7.891
84820SOL     OW56356  12.798   8.012  11.616
84820SOL    HW156357  12.747   8.051  11.544
84820SOL    HW256358  12.818   7.924  11.586
84821SOL     OW56359   4.274   6.448  11.665
84821SOL    HW156360   4.196   6.481  11.621
84821SOL    HW256361   4.328   6.526  11.682
84822SOL     OW56362   7.306   1.489   4.079
84822SOL    HW156363   7.317   1.567   4.025
84822SOL    HW256364   7.212   1.485   4.097
84823SOL     OW56365   4.029  12.342   6.665
84823SOL    HW156366   4.022  12.286   6.743
84823SOL    HW256367   3.977  12.419   6.686
84824SOL     OW56368   7.124  13.219   7.645
84824SOL    HW156369   7.171  13.143   7.614
84824SOL    HW256370   7.131  13.283   7.574
84825SOL     OW56371   0.856   6.859   5.807
84825SOL    HW156372   0.885   6.915   5.734
84825SOL    HW256373   0.904   6.777   5.794
84826SOL     OW56374   8.902  12.579  14.134
84826SOL    HW156375   8.904  12.519  14.208
84826SOL    HW256376   8.827  12.637  14.152
84827SOL     OW56377   2.741   8.193  12.089
84827SOL    HW156378   2.824   8.239  12.073
84827SOL    HW256379   2.757   8.103  12.061
84828SOL     OW56380  13.905   9.794   3.611
84828SOL    HW156381  13.962   9.834   3.676
84828SOL    HW256382  13.963   9.770   3.539
84829SOL     OW56383   5.480  10.824   9.523
84829SOL    HW156384   5.531  10.743   9.520
84829SOL    HW256385   5.428  10.823   9.443
84830SOL     OW56386   8.330  12.888  12.676
84830SOL    HW156387   8.420  12.911  12.701
84830SOL    HW256388   8.307  12.951  12.608
84831SOL     OW56389   4.768   5.154   3.192
84831SOL    HW156390   4.791   5.115   3.276
84831SOL    HW256391   4.684   5.197   3.207
84832SOL     OW56392  13.110  14.797   5.348
84832SOL    HW156393  13.164  14.719   5.353
84832SOL    HW256394  13.128  14.844   5.430
84833SOL     OW56395   7.434   3.329  10.698
84833SOL    HW156396   7.392   3.327  10.612
84833SOL    HW256397   7.387   3.263  10.749
84834SOL     OW56398  14.165  12.117   9.889
84834SOL    HW156399  14.128  12.121   9.800
84834SOL    HW256400  14.090  12.098   9.945
84835SOL     OW56401  10.880   5.959   7.671
84835SOL    HW156402  10.831   5.907   7.735
84835SOL    HW256403  10.971   5.933   7.683
84836SOL     OW56404   9.068   7.431   5.199
84836SOL    HW156405   9.150   7.448   5.154
84836SOL    HW256406   9.033   7.517   5.220
84837SOL     OW56407   0.784   0.250  10.703
84837SOL    HW156408   0.760   0.240  10.611
84837SOL    HW256409   0.861   0.195  10.714
84838SOL     OW56410   2.715   4.002   1.748
84838SOL    HW156411   2.657   4.065   1.790
84838SOL    HW256412   2.709   4.021   1.654
84839SOL     OW56413   6.481  13.946   7.233
84839SOL    HW156414   6.449  13.894   7.307
84839SOL    HW256415   6.409  14.005   7.212
84840SOL     OW56416   0.655   1.653  10.644
84840SOL    HW156417   0.602   1.685  10.571
84840SOL    HW256418   0.596   1.653  10.719
84841SOL     OW56419  10.054   3.726  13.918
84841SOL    HW156420   9.971   3.716  13.871
84841SOL    HW256421  10.119   3.687  13.859
84842SOL     OW56422  12.127   3.870  11.145
84842SOL    HW156423  12.065   3.809  11.106
84842SOL    HW256424  12.146   3.933  11.074
84843SOL     OW56425   7.323  10.983  12.943
84843SOL    HW156426   7.263  10.948  12.877
84843SOL    HW256427   7.270  10.986  13.023
84844SOL     OW56428   5.487   8.882   5.794
84844SOL    HW156429   5.536   8.821   5.849
84844SOL    HW256430   5.550   8.914   5.731
84845SOL     OW56431   2.158   2.522   3.355
84845SOL    HW156432   2.159   2.506   3.260
84845SOL    HW256433   2.082   2.579   3.368
84846SOL     OW56434   8.883   7.863   7.195
84846SOL    HW156435   8.794   7.842   7.167
84846SOL    HW256436   8.876   7.877   7.289
84847SOL     OW56437   4.247  14.269   6.998
84847SOL    HW156438   4.256  14.362   7.017
84847SOL    HW256439   4.304  14.254   6.922
84848SOL     OW56440   0.263  13.077  10.882
84848SOL    HW156441   0.236  13.134  10.810
84848SOL    HW256442   0.323  13.014  10.842
84849SOL     OW56443   6.077   1.978   7.918
84849SOL    HW156444   6.126   2.035   7.979
84849SOL    HW256445   6.144   1.944   7.859
84850SOL     OW56446   3.912   3.867  13.025
84850SOL    HW156447   3.876   3.857  12.937
84850SOL    HW256448   3.887   3.955  13.052
84851SOL     OW56449  12.054   8.084   7.087
84851SOL    HW156450  12.149   8.084   7.098
84851SOL    HW256451  12.025   8.001   7.124
84852SOL     OW56452   9.164   4.186  12.871
84852SOL    HW156453   9.213   4.105  12.887
84852SOL    HW256454   9.183   4.209  12.781
84853SOL     OW56455  14.029  14.544   9.206
84853SOL    HW156456  13.989  14.518   9.123
84853SOL    HW256457  13.960  14.530   9.271
84854SOL     OW56458  14.862   5.916  14.111
84854SOL    HW156459   0.041   5.838  14.131
84854SOL    HW256460  14.812   5.933  14.191
84855SOL     OW56461  14.468  12.356  14.520
84855SOL    HW156462  14.493  12.416  14.449
84855SOL    HW256463  14.448  12.274  14.477
84856SOL     OW56464   8.831   5.718  11.914
84856SOL    HW156465   8.754   5.729  11.970
84856SOL    HW256466   8.798   5.675  11.836
84857SOL     OW56467  12.987   0.096   9.935
84857SOL    HW156468  12.960   0.185   9.960
84857SOL    HW256469  13.082   0.101   9.928
84858SOL     OW56470   0.373   5.023  12.629
84858SOL    HW156471   0.432   5.095  12.650
84858SOL    HW256472   0.426   4.944  12.639
84859SOL     OW56473   7.992  13.776   2.881
84859SOL    HW156474   7.904  13.745   2.902
84859SOL    HW256475   8.051  13.713   2.923
84860SOL     OW56476   8.973   1.664   9.413
84860SOL    HW156477   8.920   1.640   9.489
84860SOL    HW256478   9.047   1.712   9.451
84861SOL     OW56479  14.647   4.293   2.739
84861SOL    HW156480  14.725   4.265   2.690
84861SOL    HW256481  14.633   4.224   2.803
84862SOL     OW56482   4.614   5.327   7.000
84862SOL    HW156483   4.617   5.419   7.024
84862SOL    HW256484   4.686   5.286   7.048
84863SOL     OW56485   7.794   4.818   2.648
84863SOL    HW156486   7.786   4.748   2.582
84863SOL    HW256487   7.813   4.897   2.597
84864SOL     OW56488   3.071   8.097   0.705
84864SOL    HW156489   3.137   8.070   0.768
84864SOL    HW256490   2.988   8.068   0.743
84865SOL     OW56491   3.458  11.629   1.088
84865SOL    HW156492   3.543  11.619   1.130
84865SOL    HW256493   3.409  11.688   1.146
84866SOL     OW56494   2.370   3.470  10.221
84866SOL    HW156495   2.383   3.459  10.315
84866SOL    HW256496   2.366   3.565  10.208
84867SOL     OW56497  13.335   7.378   3.558
84867SOL    HW156498  13.387   7.433   3.616
84867SOL    HW256499  13.357   7.288   3.585
84868SOL     OW56500   6.126   3.585   1.559
84868SOL    HW156501   6.081   3.555   1.480
84868SOL    HW256502   6.091   3.530   1.629
84869SOL     OW56503  12.820   7.605   7.420
84869SOL    HW156504  12.760   7.548   7.370
84869SOL    HW256505  12.831   7.682   7.364
84870SOL     OW56506   0.569   8.408   8.780
84870SOL    HW156507   0.556   8.500   8.761
84870SOL    HW256508   0.517   8.391   8.858
84871SOL     OW56509  12.472   4.557   0.530
84871SOL    HW156510  12.490   4.651   0.537
84871SOL    HW256511  12.486   4.523   0.618
84872SOL     OW56512   7.838  11.652   4.311
84872SOL    HW156513   7.861  11.608   4.230
84872SOL    HW256514   7.762  11.705   4.290
84873SOL     OW56515   8.156   9.907   1.375
84873SOL    HW156516   8.217   9.953   1.432
84873SOL    HW256517   8.212   9.865   1.310
84874SOL     OW56518   1.302   4.185   7.519
84874SOL    HW156519   1.267   4.150   7.438
84874SOL    HW256520   1.233   4.169   7.584
84875SOL     OW56521  12.910  12.136  11.999
84875SOL    HW156522  12.907  12.213  11.941
84875SOL    HW256523  12.871  12.167  12.081
84876SOL     OW56524   3.521   4.763   9.265
84876SOL    HW156525   3.439   4.718   9.288
84876SOL    HW256526   3.573   4.695   9.221
84877SOL     OW56527   6.688   2.552  11.273
84877SOL    HW156528   6.608   2.506  11.298
84877SOL    HW256529   6.660   2.616  11.209
84878SOL     OW56530   7.659   3.389   2.551
84878SOL    HW156531   7.631   3.299   2.537
84878SOL    HW256532   7.581   3.441   2.531
84879SOL     OW56533   3.185   7.228   2.511
84879SOL    HW156534   3.203   7.312   2.468
84879SOL    HW256535   3.174   7.166   2.439
84880SOL     OW56536   0.313  14.838   5.057
84880SOL    HW156537   0.332   0.046   5.007
84880SOL    HW256538   0.319  14.768   4.992
84881SOL     OW56539   0.623   1.593   9.056
84881SOL    HW156540   0.714   1.621   9.049
84881SOL    HW256541   0.603   1.554   8.971
84882SOL     OW56542   1.726  13.411  12.938
84882SOL    HW156543   1.682  13.432  13.020
84882SOL    HW256544   1.718  13.316  12.929
84883SOL     OW56545   5.807   4.719   0.189
84883SOL    HW156546   5.896   4.693   0.213
84883SOL    HW256547   5.753   4.645   0.215
84884SOL     OW56548   6.788   4.046   6.351
84884SOL    HW156549   6.854   4.031   6.418
84884SOL    HW256550   6.800   3.974   6.289
84885SOL     OW56551   7.000   4.072   1.209
84885SOL    HW156552   7.031   3.989   1.173
84885SOL    HW256553   7.050   4.139   1.161
84886SOL     OW56554   4.135   3.190   1.316
84886SOL    HW156555   4.093   3.269   1.281
84886SOL    HW256556   4.063   3.138   1.352
84887SOL     OW56557   8.675   6.585   5.702
84887SOL    HW156558   8.684   6.494   5.674
84887SOL    HW256559   8.582   6.595   5.725
84888SOL     OW56560   4.856   9.583   7.192
84888SOL    HW156561   4.852   9.532   7.273
84888SOL    HW256562   4.947   9.613   7.188
84889SOL     OW56563   6.522   8.177  14.514
84889SOL    HW156564   6.532   8.172  14.419
84889SOL    HW256565   6.602   8.140  14.550
84890SOL     OW56566  10.491  12.527   4.152
84890SOL    HW156567  10.484  12.474   4.073
84890SOL    HW256568  10.497  12.617   4.120
84891SOL     OW56569   1.490   7.324  14.327
84891SOL    HW156570   1.479   7.346  14.420
84891SOL    HW256571   1.516   7.232  14.328
84892SOL     OW56572  11.086  10.848  14.108
84892SOL    HW156573  11.145  10.785  14.068
84892SOL    HW256574  11.081  10.920  14.045
84893SOL     OW56575   5.463  10.520   9.029
84893SOL    HW156576   5.464  10.448   9.092
84893SOL    HW256577   5.482  10.598   9.081
84894SOL     OW56578   8.836  13.998  14.360
84894SOL    HW156579   8.815  13.945  14.283
84894SOL    HW256580   8.773  14.069  14.359
84895SOL     OW56581  14.235   4.659  14.635
84895SOL    HW156582  14.286   4.733  14.602
84895SOL    HW256583  14.159   4.654  14.577
84896SOL     OW56584   9.229  14.289  12.985
84896SOL    HW156585   9.285  14.366  12.978
84896SOL    HW256586   9.154  14.308  12.928
84897SOL     OW56587   8.062   3.376  12.018
84897SOL    HW156588   8.013   3.390  11.936
84897SOL    HW256589   8.011   3.421  12.084
84898SOL     OW56590   0.680   9.877   4.931
84898SOL    HW156591   0.688   9.958   4.982
84898SOL    HW256592   0.586   9.867   4.917
84899SOL     OW56593   8.153   7.551   0.608
84899SOL    HW156594   8.091   7.554   0.681
84899SOL    HW256595   8.239   7.561   0.649
84900SOL     OW56596   0.252   3.247   0.252
84900SOL    HW156597   0.258   3.329   0.300
84900SOL    HW256598   0.233   3.273   0.162
84901SOL     OW56599   4.643  13.941   6.121
84901SOL    HW156600   4.734  13.959   6.095
84901SOL    HW256601   4.602  13.905   6.042
84902SOL     OW56602   3.759   8.341  10.913
84902SOL    HW156603   3.692   8.370  10.974
84902SOL    HW256604   3.720   8.266  10.868
84903SOL     OW56605  12.976   0.781   7.560
84903SOL    HW156606  13.030   0.707   7.531
84903SOL    HW256607  13.038   0.843   7.598
84904SOL     OW56608   2.758  11.240   0.499
84904SOL    HW156609   2.704  11.178   0.549
84904SOL    HW256610   2.710  11.253   0.417
84905SOL     OW56611   1.729  13.035  10.770
84905SOL    HW156612   1.656  13.060  10.827
84905SOL    HW256613   1.759  13.118  10.732
84906SOL     OW56614   7.402   2.595   8.811
84906SOL    HW156615   7.318   2.580   8.854
84906SOL    HW256616   7.386   2.578   8.718
84907SOL     OW56617  13.783   9.901   4.020
84907SOL    HW156618  13.795   9.877   4.112
84907SOL    HW256619  13.863   9.947   3.996
84908SOL     OW56620   7.322   6.682  12.391
84908SOL    HW156621   7.305   6.763  12.343
84908SOL    HW256622   7.236   6.649  12.415
84909SOL     OW56623   9.547   9.954  11.400
84909SOL    HW156624   9.568   9.949  11.494
84909SOL    HW256625   9.616   9.904  11.357
84910SOL     OW56626  13.602   5.378   0.811
84910SOL    HW156627  13.680   5.323   0.805
84910SOL    HW256628  13.635   5.461   0.846
84911SOL     OW56629   1.401   9.152  11.220
84911SOL    HW156630   1.485   9.132  11.262
84911SOL    HW256631   1.403   9.247  11.209
84912SOL     OW56632  11.957   7.630  12.262
84912SOL    HW156633  11.872   7.673  12.257
84912SOL    HW256634  12.020   7.702  12.265
84913SOL     OW56635   9.495  14.241  14.103
84913SOL    HW156636   9.465  14.165  14.054
84913SOL    HW256637   9.456  14.316  14.057
84914SOL     OW56638  13.335  14.387   4.830
84914SOL    HW156639  13.272  14.354   4.894
84914SOL    HW256640  13.290  14.459   4.787
84915SOL     OW56641   4.895  12.473   7.280
84915SOL    HW156642   4.948  12.434   7.350
84915SOL    HW256643   4.932  12.437   7.199
84916SOL     OW56644  12.171   4.870   1.621
84916SOL    HW156645  12.266   4.884   1.619
84916SOL    HW256646  12.158   4.802   1.688
84917SOL     OW56647   6.066  11.240   2.663
84917SOL    HW156648   5.994  11.181   2.641
84917SOL    HW256649   6.144  11.198   2.626
84918SOL     OW56650   0.475   9.001   9.317
84918SOL    HW156651   0.488   8.949   9.397
84918SOL    HW256652   0.388   9.040   9.328
84919SOL     OW56653  13.540  13.932  10.469
84919SOL    HW156654  13.545  13.911  10.375
84919SOL    HW256655  13.488  13.860  10.507
84920SOL     OW56656   0.439  13.935   7.207
84920SOL    HW156657   0.370  13.956   7.144
84920SOL    HW256658   0.464  14.020   7.244
84921SOL     OW56659  14.273   4.210   9.772
84921SOL    HW156660  14.367   4.215   9.789
84921SOL    HW256661  14.261   4.126   9.730
84922SOL     OW56662   8.290  13.097   9.554
84922SOL    HW156663   8.253  13.009   9.543
84922SOL    HW256664   8.345  13.110   9.477
84923SOL     OW56665   7.819   1.048  13.224
84923SOL    HW156666   7.743   0.990  13.222
84923SOL    HW256667   7.892   0.990  13.247
84924SOL     OW56668   2.226  12.474   0.073
84924SOL    HW156669   2.197  12.395   0.028
84924SOL    HW256670   2.173  12.476   0.153
84925SOL     OW56671  12.281   2.155   8.931
84925SOL    HW156672  12.344   2.123   8.996
84925SOL    HW256673  12.286   2.250   8.939
84926SOL     OW56674   5.610   9.922   4.069
84926SOL    HW156675   5.688   9.946   4.118
84926SOL    HW256676   5.639   9.921   3.978
84927SOL     OW56677  13.249   6.257  12.884
84927SOL    HW156678  13.279   6.338  12.843
84927SOL    HW256679  13.166   6.280  12.925
84928SOL     OW56680   9.697   4.783   4.682
84928SOL    HW156681   9.651   4.716   4.733
84928SOL    HW256682   9.763   4.818   4.742
84929SOL     OW56683   2.284   2.565  10.086
84929SOL    HW156684   2.367   2.528  10.054
84929SOL    HW256685   2.302   2.659  10.096
84930SOL     OW56686   1.465   7.168  11.650
84930SOL    HW156687   1.479   7.204  11.563
84930SOL    HW256688   1.484   7.074  11.641
84931SOL     OW56689   1.799  13.336   3.537
84931SOL    HW156690   1.820  13.245   3.518
84931SOL    HW256691   1.705  13.336   3.556
84932SOL     OW56692  10.815  10.623   3.717
84932SOL    HW156693  10.748  10.692   3.713
84932SOL    HW256694  10.789  10.569   3.791
84933SOL     OW56695   1.850  13.368   9.709
84933SOL    HW156696   1.853  13.390   9.802
84933SOL    HW256697   1.802  13.285   9.705
84934SOL     OW56698   4.337   0.499  11.239
84934SOL    HW156699   4.348   0.584  11.282
84934SOL    HW256700   4.408   0.493  11.176
84935SOL     OW56701   8.633  10.644   2.574
84935SOL    HW156702   8.633  10.607   2.486
84935SOL    HW256703   8.555  10.609   2.615
84936SOL     OW56704   6.255   6.007   6.424
84936SOL    HW156705   6.276   6.095   6.456
84936SOL    HW256706   6.160   6.003   6.424
84937SOL     OW56707  12.877   8.445   7.219
84937SOL    HW156708  12.805   8.396   7.259
84937SOL    HW256709  12.853   8.453   7.127
84938SOL     OW56710   8.095   8.548  14.757
84938SOL    HW156711   8.116   8.607  14.685
84938SOL    HW256712   8.053   8.604  14.823
84939SOL     OW56713  12.123   2.881   4.507
84939SOL    HW156714  12.092   2.919   4.588
84939SOL    HW256715  12.060   2.811   4.487
84940SOL     OW56716  11.807   9.889   8.230
84940SOL    HW156717  11.875   9.833   8.268
84940SOL    HW256718  11.744   9.827   8.192
84941SOL     OW56719  12.192   9.582   7.674
84941SOL    HW156720  12.105   9.582   7.713
84941SOL    HW256721  12.177   9.556   7.583
84942SOL     OW56722  12.823  10.603  13.859
84942SOL    HW156723  12.858  10.648  13.936
84942SOL    HW256724  12.733  10.636  13.851
84943SOL     OW56725   0.578  11.384   6.458
84943SOL    HW156726   0.650  11.383   6.394
84943SOL    HW256727   0.507  11.427   6.411
84944SOL     OW56728   4.988   7.877   3.353
84944SOL    HW156729   4.988   7.913   3.441
84944SOL    HW256730   4.954   7.788   3.363
84945SOL     OW56731  10.339  13.486   7.379
84945SOL    HW156732  10.247  13.464   7.363
84945SOL    HW256733  10.336  13.570   7.425
84946SOL     OW56734   4.576  12.409  14.071
84946SOL    HW156735   4.616  12.322  14.073
84946SOL    HW256736   4.544  12.418  13.981
84947SOL     OW56737   1.580  11.810  13.803
84947SOL    HW156738   1.581  11.894  13.850
84947SOL    HW256739   1.556  11.833  13.713
84948SOL     OW56740   2.664   7.731   5.594
84948SOL    HW156741   2.753   7.697   5.598
84948SOL    HW256742   2.609   7.659   5.626
84949SOL     OW56743   3.633   4.935  14.050
84949SOL    HW156744   3.538   4.941  14.045
84949SOL    HW256745   3.657   4.874  13.981
84950SOL     OW56746  12.771  13.873   8.272
84950SOL    HW156747  12.783  13.939   8.340
84950SOL    HW256748  12.831  13.900   8.202
84951SOL     OW56749   1.376   8.427   0.297
84951SOL    HW156750   1.292   8.385   0.316
84951SOL    HW256751   1.436   8.354   0.282
84952SOL     OW56752   9.102   7.059   6.416
84952SOL    HW156753   9.107   7.116   6.492
84952SOL    HW256754   9.048   6.985   6.444
84953SOL     OW56755   6.534   8.788  14.376
84953SOL    HW156756   6.546   8.853  14.306
84953SOL    HW256757   6.459   8.736  14.347
84954SOL     OW56758  10.270   7.042   1.863
84954SOL    HW156759  10.236   6.969   1.914
84954SOL    HW256760  10.240   7.025   1.774
84955SOL     OW56761   4.851  13.935  13.435
84955SOL    HW156762   4.858  13.986  13.516
84955SOL    HW256763   4.916  13.866  13.445
84956SOL     OW56764  12.577   7.372  13.145
84956SOL    HW156765  12.612   7.287  13.174
84956SOL    HW256766  12.654   7.422  13.120
84957SOL     OW56767  11.291   2.826  10.880
84957SOL    HW156768  11.330   2.772  10.949
84957SOL    HW256769  11.267   2.764  10.811
84958SOL     OW56770   4.804   1.291  10.543
84958SOL    HW156771   4.851   1.290  10.627
84958SOL    HW256772   4.818   1.204  10.506
84959SOL     OW56773  12.275   3.625   7.790
84959SOL    HW156774  12.187   3.621   7.829
84959SOL    HW256775  12.290   3.537   7.756
84960SOL     OW56776  13.164   5.217   9.943
84960SOL    HW156777  13.256   5.196   9.959
84960SOL    HW256778  13.115   5.154   9.997
84961SOL     OW56779   1.356   9.926   8.316
84961SOL    HW156780   1.399   9.844   8.339
84961SOL    HW256781   1.402   9.956   8.237
84962SOL     OW56782  12.523   6.833  14.707
84962SOL    HW156783  12.617   6.816  14.697
84962SOL    HW256784  12.499   6.883  14.629
84963SOL     OW56785  12.768  11.488   4.539
84963SOL    HW156786  12.803  11.408   4.578
84963SOL    HW256787  12.795  11.558   4.598
84964SOL     OW56788  11.773  12.249   8.663
84964SOL    HW156789  11.855  12.298   8.652
84964SOL    HW256790  11.750  12.221   8.574
84965SOL     OW56791  12.554   2.879   5.344
84965SOL    HW156792  12.542   2.838   5.258
84965SOL    HW256793  12.582   2.968   5.324
84966SOL     OW56794   0.624  11.586   1.495
84966SOL    HW156795   0.666  11.505   1.524
84966SOL    HW256796   0.590  11.626   1.575
84967SOL     OW56797   6.580   6.101  12.679
84967SOL    HW156798   6.667   6.100  12.719
84967SOL    HW256799   6.589   6.045  12.602
84968SOL     OW56800  12.892   0.875   7.211
84968SOL    HW156801  12.975   0.916   7.183
84968SOL    HW256802  12.876   0.807   7.145
84969SOL     OW56803  10.766   2.355   9.158
84969SOL    HW156804  10.787   2.263   9.175
84969SOL    HW256805  10.747   2.359   9.064
84970SOL     OW56806  13.335  12.129   1.432
84970SOL    HW156807  13.373  12.200   1.485
84970SOL    HW256808  13.240  12.142   1.440
84971SOL     OW56809   0.068   8.639   7.403
84971SOL    HW156810   0.136   8.704   7.424
84971SOL    HW256811   0.109   8.582   7.338
84972SOL     OW56812   9.043   1.060   4.354
84972SOL    HW156813   9.042   1.119   4.430
84972SOL    HW256814   8.955   1.023   4.352
84973SOL     OW56815   3.948   4.731   7.052
84973SOL    HW156816   3.854   4.719   7.063
84973SOL    HW256817   3.974   4.663   6.990
84974SOL     OW56818   8.605   9.372   4.477
84974SOL    HW156819   8.621   9.448   4.420
84974SOL    HW256820   8.560   9.408   4.553
84975SOL     OW56821  12.062   9.632  11.989
84975SOL    HW156822  12.144   9.625  11.941
84975SOL    HW256823  12.088   9.660  12.077
84976SOL     OW56824   3.882   7.730  11.138
84976SOL    HW156825   3.969   7.696  11.161
84976SOL    HW256826   3.845   7.663  11.081
84977SOL     OW56827   7.756   1.065   0.132
84977SOL    HW156828   7.758   1.049   0.227
84977SOL    HW256829   7.778   0.981   0.093
84978SOL     OW56830  14.649   8.004   2.153
84978SOL    HW156831  14.687   8.029   2.069
84978SOL    HW256832  14.704   8.048   2.219
84979SOL     OW56833   6.691   1.475   2.272
84979SOL    HW156834   6.732   1.470   2.359
84979SOL    HW256835   6.644   1.393   2.263
84980SOL     OW56836  14.501   9.482  10.884
84980SOL    HW156837  14.538   9.396  10.865
84980SOL    HW256838  14.476   9.479  10.976
84981SOL     OW56839  12.379   7.705   3.713
84981SOL    HW156840  12.365   7.717   3.807
84981SOL    HW256841  12.369   7.793   3.677
84982SOL     OW56842   2.537   6.602   7.859
84982SOL    HW156843   2.597   6.634   7.926
84982SOL    HW256844   2.582   6.617   7.776
84983SOL     OW56845  12.067   0.665  10.449
84983SOL    HW156846  11.989   0.659  10.394
84983SOL    HW256847  12.123   0.729  10.405
84984SOL     OW56848  12.405  12.038   6.015
84984SOL    HW156849  12.447  12.122   6.029
84984SOL    HW256850  12.313  12.059   6.000
84985SOL     OW56851   6.945  12.335   6.646
84985SOL    HW156852   6.936  12.288   6.563
84985SOL    HW256853   6.882  12.292   6.705
84986SOL     OW56854   7.078  12.404   9.725
84986SOL    HW156855   6.989  12.381   9.699
84986SOL    HW256856   7.070  12.436   9.814
84987SOL     OW56857   1.580   0.794   1.111
84987SOL    HW156858   1.616   0.877   1.082
84987SOL    HW256859   1.561   0.808   1.204
84988SOL     OW56860   2.271  11.029   3.988
84988SOL    HW156861   2.214  11.053   3.915
84988SOL    HW256862   2.212  11.016   4.062
84989SOL     OW56863  12.439   9.485  11.437
84989SOL    HW156864  12.434   9.394  11.408
84989SOL    HW256865  12.430   9.537  11.357
84990SOL     OW56866  11.921   8.443   5.526
84990SOL    HW156867  11.837   8.399   5.519
84990SOL    HW256868  11.940   8.445   5.620
84991SOL     OW56869  12.957   7.134   6.432
84991SOL    HW156870  13.039   7.105   6.393
84991SOL    HW256871  12.926   7.057   6.481
84992SOL     OW56872  10.219  14.068   7.257
84992SOL    HW156873  10.301  14.082   7.210
84992SOL    HW256874  10.245  14.053   7.348
84993SOL     OW56875   0.270  11.554  12.900
84993SOL    HW156876   0.304  11.642  12.912
84993SOL    HW256877   0.309  11.503  12.971
84994SOL     OW56878  11.049   5.608   4.208
84994SOL    HW156879  11.012   5.635   4.124
84994SOL    HW256880  11.103   5.682   4.236
84995SOL     OW56881  14.484   7.871  11.118
84995SOL    HW156882  14.510   7.877  11.210
84995SOL    HW256883  14.407   7.814  11.119
84996SOL     OW56884  12.102  13.719   5.108
84996SOL    HW156885  12.162  13.645   5.103
84996SOL    HW256886  12.077  13.724   5.200
84997SOL     OW56887   3.225  12.166  10.746
84997SOL    HW156888   3.163  12.223  10.793
84997SOL    HW256889   3.218  12.082  10.791
84998SOL     OW56890   1.721  10.621   4.053
84998SOL    HW156891   1.785  10.551   4.047
84998SOL    HW256892   1.717  10.642   4.147
84999SOL     OW56893   6.024   8.939  14.859
84999SOL    HW156894   6.020   8.896   0.072
84999SOL    HW256895   5.938   8.980  14.848
85000SOL     OW56896   1.640   4.860   2.075
85000SOL    HW156897   1.612   4.860   1.984
85000SOL    HW256898   1.717   4.917   2.077
85001SOL     OW56899   3.695   7.623   1.383
85001SOL    HW156900   3.757   7.628   1.310
85001SOL    HW256901   3.750   7.623   1.461
85002SOL     OW56902  13.352   5.355   6.532
85002SOL    HW156903  13.350   5.393   6.619
85002SOL    HW256904  13.260   5.333   6.514
85003SOL     OW56905  13.663  14.324   4.743
85003SOL    HW156906  13.743  14.356   4.701
85003SOL    HW256907  13.592  14.353   4.686
85004SOL     OW56908   1.554   2.638  11.530
85004SOL    HW156909   1.553   2.733  11.524
85004SOL    HW256910   1.639   2.618  11.570
85005SOL     OW56911   2.410   2.662   3.988
85005SOL    HW156912   2.396   2.570   4.012
85005SOL    HW256913   2.337   2.709   4.029
85006SOL     OW56914  14.616   7.269  10.167
85006SOL    HW156915  14.621   7.343  10.227
85006SOL    HW256916  14.685   7.285  10.102
85007SOL     OW56917  13.130  11.366   1.441
85007SOL    HW156918  13.041  11.334   1.426
85007SOL    HW256919  13.173  11.357   1.356
85008SOL     OW56920   5.412   8.787   0.545
85008SOL    HW156921   5.373   8.708   0.508
85008SOL    HW256922   5.407   8.774   0.640
85009SOL     OW56923   7.284  14.809   3.870
85009SOL    HW156924   7.266  14.748   3.798
85009SOL    HW256925   7.366  14.779   3.908
85010SOL     OW56926  14.450   1.000   8.584
85010SOL    HW156927  14.361   1.023   8.558
85010SOL    HW256928  14.506   1.038   8.517
85011SOL     OW56929   1.936  12.433  13.445
85011SOL    HW156930   1.906  12.523  13.428
85011SOL    HW256931   2.000  12.442  13.515
85012SOL     OW56932  13.438  14.360   4.547
85012SOL    HW156933  13.401  14.320   4.625
85012SOL    HW256934  13.419  14.454   4.557
85013SOL     OW56935   0.835   8.143   7.753
85013SOL    HW156936   0.838   8.220   7.696
85013SOL    HW256937   0.839   8.068   7.693
85014SOL     OW56938   2.784   5.799   0.936
85014SOL    HW156939   2.764   5.714   0.896
85014SOL    HW256940   2.878   5.796   0.954
85015SOL     OW56941   9.947   2.341   2.810
85015SOL    HW156942   9.954   2.319   2.903
85015SOL    HW256943   9.968   2.434   2.806
85016SOL     OW56944   9.834  14.857   0.166
85016SOL    HW156945   9.872  14.792   0.225
85016SOL    HW256946   9.907   0.043   0.145
85017SOL     OW56947   1.716   1.923   1.777
85017SOL    HW156948   1.805   1.889   1.786
85017SOL    HW256949   1.712   1.997   1.838
85018SOL     OW56950  12.981   3.703   7.421
85018SOL    HW156951  13.051   3.753   7.462
85018SOL    HW256952  12.985   3.617   7.464
85019SOL     OW56953   0.536  10.680   6.325
85019SOL    HW156954   0.498  10.649   6.407
85019SOL    HW256955   0.626  10.703   6.347
85020SOL     OW56956   3.709   8.199  12.848
85020SOL    HW156957   3.766   8.123  12.836
85020SOL    HW256958   3.652   8.175  12.920
85021SOL     OW56959   4.924   8.343  12.659
85021SOL    HW156960   4.868   8.418  12.676
85021SOL    HW256961   5.002   8.359  12.713
85022SOL     OW56962  12.006  12.019  12.040
85022SOL    HW156963  12.101  12.013  12.033
85022SOL    HW256964  11.989  12.018  12.134
85023SOL     OW56965   0.232   2.406   6.020
85023SOL    HW156966   0.285   2.328   6.037
85023SOL    HW256967   0.283   2.479   6.055
85024SOL     OW56968  12.946  12.878   1.089
85024SOL    HW156969  12.980  12.905   1.004
85024SOL    HW256970  12.903  12.956   1.124
85025SOL     OW56971   3.325   6.332   3.053
85025SOL    HW156972   3.383   6.403   3.027
85025SOL    HW256973   3.272   6.315   2.975
85026SOL     OW56974   4.758  14.126   9.219
85026SOL    HW156975   4.749  14.221   9.218
85026SOL    HW256976   4.838  14.110   9.269
85027SOL     OW56977   7.873   2.022  12.586
85027SOL    HW156978   7.871   2.059  12.498
85027SOL    HW256979   7.874   1.928  12.573
85028SOL     OW56980   4.196   4.153   0.813
85028SOL    HW156981   4.190   4.142   0.908
85028SOL    HW256982   4.109   4.129   0.780
85029SOL     OW56983   0.889   1.372  14.743
85029SOL    HW156984   0.864   1.332  14.826
85029SOL    HW256985   0.936   1.304  14.695
85030SOL     OW56986  14.183   6.984   8.117
85030SOL    HW156987  14.184   7.034   8.035
85030SOL    HW256988  14.091   6.988   8.146
85031SOL     OW56989   0.234   5.439   5.249
85031SOL    HW156990   0.150   5.416   5.289
85031SOL    HW256991   0.293   5.451   5.323
85032SOL     OW56992   8.446   7.250   9.039
85032SOL    HW156993   8.370   7.289   9.082
85032SOL    HW256994   8.464   7.171   9.090
85033SOL     OW56995  12.060   1.480  14.149
85033SOL    HW156996  12.072   1.470  14.243
85033SOL    HW256997  11.996   1.550  14.140
85034SOL     OW56998   5.038   8.959   8.020
85034SOL    HW156999   5.059   8.961   8.114
85034SOL    HW257000   4.951   8.998   8.014
85035SOL     OW57001  13.497   2.250  10.805
85035SOL    HW157002  13.423   2.311  10.808
85035SOL    HW257003  13.466   2.173  10.851
85036SOL     OW57004   8.445   8.672   4.632
85036SOL    HW157005   8.400   8.683   4.716
85036SOL    HW257006   8.410   8.590   4.597
85037SOL     OW57007   1.594   6.916  13.769
85037SOL    HW157008   1.592   7.001  13.813
85037SOL    HW257009   1.518   6.917  13.711
85038SOL     OW57010   6.582  13.303  12.739
85038SOL    HW157011   6.500  13.267  12.773
85038SOL    HW257012   6.650  13.246  12.775
85039SOL     OW57013  10.816   8.297   3.124
85039SOL    HW157014  10.902   8.333   3.104
85039SOL    HW257015  10.820   8.207   3.090
85040SOL     OW57016  13.514   9.999   8.289
85040SOL    HW157017  13.573   9.968   8.220
85040SOL    HW257018  13.426   9.986   8.254
85041SOL     OW57019   7.530   3.396   4.206
85041SOL    HW157020   7.515   3.483   4.168
85041SOL    HW257021   7.623   3.380   4.194
85042SOL     OW57022   3.369   4.825   3.370
85042SOL    HW157023   3.375   4.758   3.302
85042SOL    HW257024   3.312   4.892   3.333
85043SOL     OW57025  12.134   4.789   5.691
85043SOL    HW157026  12.111   4.771   5.782
85043SOL    HW257027  12.105   4.712   5.643
85044SOL     OW57028   2.212   2.965   4.238
85044SOL    HW157029   2.251   3.028   4.178
85044SOL    HW257030   2.251   2.985   4.323
85045SOL     OW57031   4.475   9.258  11.071
85045SOL    HW157032   4.474   9.166  11.098
85045SOL    HW257033   4.470   9.255  10.975
85046SOL     OW57034   6.791   8.665  11.612
85046SOL    HW157035   6.847   8.742  11.611
85046SOL    HW257036   6.850   8.593  11.635
85047SOL     OW57037   2.565   7.126  12.766
85047SOL    HW157038   2.533   7.040  12.740
85047SOL    HW257039   2.487   7.182  12.763
85048SOL     OW57040   6.185   9.743   8.630
85048SOL    HW157041   6.151   9.781   8.711
85048SOL    HW257042   6.126   9.774   8.561
85049SOL     OW57043   1.660  13.854  14.654
85049SOL    HW157044   1.650  13.913  14.729
85049SOL    HW257045   1.601  13.781  14.672
85050SOL     OW57046  11.420   7.498   1.262
85050SOL    HW157047  11.397   7.507   1.170
85050SOL    HW257048  11.335   7.496   1.307
85051SOL     OW57049  11.270   8.868   8.021
85051SOL    HW157050  11.346   8.816   7.993
85051SOL    HW257051  11.209   8.863   7.947
85052SOL     OW57052   9.265   3.561   1.783
85052SOL    HW157053   9.218   3.481   1.808
85052SOL    HW257054   9.195   3.624   1.763
85053SOL     OW57055   3.796   9.095   0.781
85053SOL    HW157056   3.853   9.045   0.840
85053SOL    HW257057   3.773   9.174   0.830
85054SOL     OW57058  12.512   9.213   7.918
85054SOL    HW157059  12.432   9.249   7.880
85054SOL    HW257060  12.483   9.179   8.003
85055SOL     OW57061   7.530   7.463   8.904
85055SOL    HW157062   7.480   7.436   8.827
85055SOL    HW257063   7.591   7.391   8.920
85056SOL     OW57064   2.022   0.860   9.016
85056SOL    HW157065   2.049   0.945   8.982
85056SOL    HW257066   1.936   0.844   8.977
85057SOL     OW57067   6.978  10.583  11.380
85057SOL    HW157068   7.021  10.511  11.426
85057SOL    HW257069   6.973  10.554  11.289
85058SOL     OW57070   0.482  13.658  12.464
85058SOL    HW157071   0.428  13.718  12.412
85058SOL    HW257072   0.570  13.696  12.462
85059SOL     OW57073   7.908  11.183   1.188
85059SOL    HW157074   7.853  11.193   1.266
85059SOL    HW257075   7.980  11.244   1.200
85060SOL     OW57076  11.404   3.417   6.918
85060SOL    HW157077  11.329   3.418   6.977
85060SOL    HW257078  11.480   3.427   6.976
85061SOL     OW57079   3.560   7.080   6.957
85061SOL    HW157080   3.625   7.093   6.887
85061SOL    HW257081   3.540   7.168   6.988
85062SOL     OW57082   5.702   0.196  11.914
85062SOL    HW157083   5.788   0.195  11.956
85062SOL    HW257084   5.655   0.122  11.953
85063SOL     OW57085   7.383  13.166   5.139
85063SOL    HW157086   7.316  13.111   5.179
85063SOL    HW257087   7.335  13.232   5.090
85064SOL     OW57088   1.536  11.634  13.142
85064SOL    HW157089   1.548  11.644  13.237
85064SOL    HW257090   1.484  11.554  13.133
85065SOL     OW57091  12.940   7.730  11.661
85065SOL    HW157092  12.876   7.738  11.590
85065SOL    HW257093  12.944   7.637  11.680
85066SOL     OW57094   9.547   3.306  14.278
85066SOL    HW157095   9.574   3.339  14.363
85066SOL    HW257096   9.452   3.315  14.277
85067SOL     OW57097  11.123   0.637  11.241
85067SOL    HW157098  11.112   0.679  11.326
85067SOL    HW257099  11.197   0.576  11.253
85068SOL     OW57100   0.595   9.401   7.130
85068SOL    HW157101   0.548   9.483   7.113
85068SOL    HW257102   0.686   9.419   7.105
85069SOL     OW57103  11.004  10.387   4.519
85069SOL    HW157104  10.983  10.314   4.459
85069SOL    HW257105  10.952  10.460   4.486
85070SOL     OW57106  14.340  10.637  13.900
85070SOL    HW157107  14.299  10.553  13.881
85070SOL    HW257108  14.404  10.649  13.831
85071SOL     OW57109   9.520   8.711   6.248
85071SOL    HW157110   9.549   8.786   6.300
85071SOL    HW257111   9.549   8.634   6.297
85072SOL     OW57112   8.667   1.732   1.239
85072SOL    HW157113   8.698   1.803   1.296
85072SOL    HW257114   8.708   1.750   1.154
85073SOL     OW57115   7.058  10.229  10.188
85073SOL    HW157116   7.125  10.247  10.122
85073SOL    HW257117   7.105  10.186  10.259
85074SOL     OW57118   9.335   3.627   8.822
85074SOL    HW157119   9.360   3.576   8.746
85074SOL    HW257120   9.254   3.672   8.795
85075SOL     OW57121  10.451  12.100  14.837
85075SOL    HW157122  10.365  12.061  14.851
85075SOL    HW257123  10.439  12.157  14.761
85076SOL     OW57124  13.027   8.278  10.571
85076SOL    HW157125  12.965   8.351  10.575
85076SOL    HW257126  12.997   8.224  10.498
85077SOL     OW57127  14.102   0.775   4.150
85077SOL    HW157128  14.074   0.687   4.177
85077SOL    HW257129  14.194   0.779   4.176
85078SOL     OW57130   2.471   7.936   4.759
85078SOL    HW157131   2.527   8.001   4.801
85078SOL    HW257132   2.389   7.941   4.808
85079SOL     OW57133   4.078  14.167  13.711
85079SOL    HW157134   4.090  14.204  13.623
85079SOL    HW257135   4.006  14.104  13.701
85080SOL     OW57136   7.201  12.565   4.799
85080SOL    HW157137   7.206  12.657   4.826
85080SOL    HW257138   7.114  12.537   4.829
85081SOL     OW57139   1.560  13.239   3.303
85081SOL    HW157140   1.477  13.197   3.279
85081SOL    HW257141   1.625  13.197   3.247
85082SOL     OW57142  13.410   5.193  10.030
85082SOL    HW157143  13.410   5.097  10.033
85082SOL    HW257144  13.491   5.218  10.075
85083SOL     OW57145   3.009   0.222  11.379
85083SOL    HW157146   3.076   0.183  11.323
85083SOL    HW257147   2.927   0.209  11.330
85084SOL     OW57148   3.198   1.871   8.029
85084SOL    HW157149   3.126   1.909   7.980
85084SOL    HW257150   3.233   1.802   7.971
85085SOL     OW57151  13.707  10.230   6.267
85085SOL    HW157152  13.709  10.167   6.339
85085SOL    HW257153  13.666  10.308   6.305
85086SOL     OW57154  11.287  13.589   8.047
85086SOL    HW157155  11.310  13.571   8.138
85086SOL    HW257156  11.312  13.680   8.034
85087SOL     OW57157  12.799  12.156   9.989
85087SOL    HW157158  12.762  12.106   9.916
85087SOL    HW257159  12.842  12.091  10.044
85088SOL     OW57160  12.259  13.484   5.091
85088SOL    HW157161  12.203  13.452   5.161
85088SOL    HW257162  12.260  13.413   5.027
85089SOL     OW57163   2.084   3.202   3.635
85089SOL    HW157164   2.167   3.245   3.619
85089SOL    HW257165   2.029   3.224   3.560
85090SOL     OW57166   5.874   8.824  14.312
85090SOL    HW157167   5.843   8.804  14.224
85090SOL    HW257168   5.967   8.845  14.301
85091SOL     OW57169  10.912  10.439   7.689
85091SOL    HW157170  10.960  10.504   7.741
85091SOL    HW257171  10.849  10.490   7.639
85092SOL     OW57172  11.220  12.239  14.380
85092SOL    HW157173  11.167  12.246  14.300
85092SOL    HW257174  11.156  12.245  14.451
85093SOL     OW57175  12.657   1.662   9.257
85093SOL    HW157176  12.657   1.753   9.227
85093SOL    HW257177  12.734   1.655   9.312
85094SOL     OW57178  12.262  11.540   1.172
85094SOL    HW157179  12.302  11.454   1.184
85094SOL    HW257180  12.257  11.577   1.260
85095SOL     OW57181  14.552  10.823  12.896
85095SOL    HW157182  14.572  10.872  12.975
85095SOL    HW257183  14.477  10.869  12.858
85096SOL     OW57184  14.574  10.035   3.004
85096SOL    HW157185  14.533   9.954   3.035
85096SOL    HW257186  14.517  10.105   3.037
85097SOL     OW57187   7.243   7.934   3.648
85097SOL    HW157188   7.316   7.914   3.707
85097SOL    HW257189   7.165   7.915   3.699
85098SOL     OW57190   6.386   1.802   6.143
85098SOL    HW157191   6.446   1.740   6.102
85098SOL    HW257192   6.443   1.859   6.195
85099SOL     OW57193  13.164   0.499   4.954
85099SOL    HW157194  13.179   0.410   4.921
85099SOL    HW257195  13.201   0.498   5.042
85100SOL     OW57196   4.965   7.661   2.062
85100SOL    HW157197   4.993   7.572   2.041
85100SOL    HW257198   4.992   7.713   1.987
85101SOL     OW57199   3.988  14.295  11.802
85101SOL    HW157200   3.992  14.348  11.882
85101SOL    HW257201   4.078  14.292  11.770
85102SOL     OW57202  11.533   1.001   8.433
85102SOL    HW157203  11.600   1.054   8.478
85102SOL    HW257204  11.558   0.910   8.453
85103SOL     OW57205  11.748  14.417   0.612
85103SOL    HW157206  11.783  14.495   0.655
85103SOL    HW257207  11.688  14.451   0.545
85104SOL     OW57208   4.265  10.781  12.954
85104SOL    HW157209   4.314  10.759  12.874
85104SOL    HW257210   4.240  10.696  12.991
85105SOL     OW57211   6.478   1.622   5.098
85105SOL    HW157212   6.474   1.700   5.042
85105SOL    HW257213   6.474   1.549   5.037
85106SOL     OW57214   6.659  11.236   6.423
85106SOL    HW157215   6.742  11.275   6.395
85106SOL    HW257216   6.676  11.142   6.425
85107SOL     OW57217  10.249   7.423   2.806
85107SOL    HW157218  10.185   7.445   2.874
85107SOL    HW257219  10.208   7.352   2.757
85108SOL     OW57220   8.696   1.338   3.641
85108SOL    HW157221   8.696   1.378   3.555
85108SOL    HW257222   8.634   1.265   3.634
85109SOL     OW57223  12.284   8.980   3.498
85109SOL    HW157224  12.195   9.001   3.471
85109SOL    HW257225  12.321   9.064   3.526
85110SOL     OW57226   7.342   8.733  12.717
85110SOL    HW157227   7.255   8.691  12.712
85110SOL    HW257228   7.323   8.827  12.719
85111SOL     OW57229   2.498  13.906  13.974
85111SOL    HW157230   2.536  13.968  14.036
85111SOL    HW257231   2.564  13.838  13.964
85112SOL     OW57232   5.115   2.902   5.254
85112SOL    HW157233   5.025   2.923   5.276
85112SOL    HW257234   5.110   2.819   5.205
85113SOL     OW57235   5.506   9.707   0.396
85113SOL    HW157236   5.570   9.765   0.355
85113SOL    HW257237   5.507   9.731   0.489
85114SOL     OW57238  13.158   4.263  10.161
85114SOL    HW157239  13.221   4.300  10.223
85114SOL    HW257240  13.170   4.315  10.082
85115SOL     OW57241   4.530   0.559   7.278
85115SOL    HW157242   4.438   0.555   7.250
85115SOL    HW257243   4.539   0.644   7.321
85116SOL     OW57244   6.792  10.339   9.906
85116SOL    HW157245   6.879  10.355   9.870
85116SOL    HW257246   6.734  10.337   9.829
85117SOL     OW57247   2.219   6.621   4.303
85117SOL    HW157248   2.272   6.675   4.361
85117SOL    HW257249   2.259   6.534   4.307
85118SOL     OW57250  10.342   7.874   2.664
85118SOL    HW157251  10.311   7.933   2.732
85118SOL    HW257252  10.438   7.878   2.671
85119SOL     OW57253   9.233   2.859  12.511
85119SOL    HW157254   9.267   2.783  12.557
85119SOL    HW257255   9.278   2.858  12.426
85120SOL     OW57256   0.097   6.214   6.551
85120SOL    HW157257   0.120   6.197   6.459
85120SOL    HW257258   0.097   6.127   6.591
85121SOL     OW57259  12.761   5.505   9.573
85121SOL    HW157260  12.732   5.417   9.549
85121SOL    HW257261  12.832   5.491   9.635
85122SOL     OW57262   2.922  13.596   3.315
85122SOL    HW157263   2.879  13.537   3.254
85122SOL    HW257264   2.997  13.631   3.266
85123SOL     OW57265   2.114  11.436  12.403
85123SOL    HW157266   2.116  11.485  12.320
85123SOL    HW257267   2.023  11.443  12.432
85124SOL     OW57268   7.787  10.907  14.566
85124SOL    HW157269   7.764  10.961  14.491
85124SOL    HW257270   7.780  10.966  14.641
85125SOL     OW57271  14.509   8.470   8.833
85125SOL    HW157272  14.534   8.466   8.925
85125SOL    HW257273  14.591   8.487   8.787
85126SOL     OW57274   7.706   0.618  12.868
85126SOL    HW157275   7.683   0.631  12.960
85126SOL    HW257276   7.677   0.529  12.848
85127SOL     OW57277   8.445  14.740   1.635
85127SOL    HW157278   8.388  14.811   1.606
85127SOL    HW257279   8.400  14.660   1.609
85128SOL     OW57280   2.709  14.600  13.382
85128SOL    HW157281   2.728  14.514  13.420
85128SOL    HW257282   2.726  14.589  13.288
85129SOL     OW57283   7.673   8.788  10.578
85129SOL    HW157284   7.586   8.827  10.567
85129SOL    HW257285   7.656   8.702  10.615
85130SOL     OW57286   6.222   8.448  12.714
85130SOL    HW157287   6.277   8.396  12.772
85130SOL    HW257288   6.284   8.497  12.659
85131SOL     OW57289  11.033   3.688   9.365
85131SOL    HW157290  10.981   3.650   9.435
85131SOL    HW257291  11.112   3.721   9.408
85132SOL     OW57292   9.326  13.096   8.757
85132SOL    HW157293   9.337  13.101   8.662
85132SOL    HW257294   9.343  13.185   8.787
85133SOL     OW57295   4.103  14.331   0.720
85133SOL    HW157296   4.150  14.373   0.648
85133SOL    HW257297   4.146  14.363   0.799
85134SOL     OW57298  11.957   5.890  10.829
85134SOL    HW157299  11.926   5.924  10.913
85134SOL    HW257300  11.914   5.805  10.821
85135SOL     OW57301   8.759   4.534  10.324
85135SOL    HW157302   8.689   4.534  10.258
85135SOL    HW257303   8.830   4.484  10.283
85136SOL     OW57304   0.560   5.644  13.080
85136SOL    HW157305   0.544   5.670  12.990
85136SOL    HW257306   0.554   5.549  13.079
85137SOL     OW57307   6.290   3.540  14.019
85137SOL    HW157308   6.342   3.620  14.019
85137SOL    HW257309   6.299   3.506  14.108
85138SOL     OW57310  11.685   6.333   7.110
85138SOL    HW157311  11.592   6.352   7.102
85138SOL    HW257312  11.690   6.267   7.179
85139SOL     OW57313   5.870   0.245   3.557
85139SOL    HW157314   5.876   0.319   3.498
85139SOL    HW257315   5.957   0.205   3.554
85140SOL     OW57316   4.826  12.569  11.752
85140SOL    HW157317   4.865  12.498  11.701
85140SOL    HW257318   4.887  12.582  11.825
85141SOL     OW57319   9.859  11.245   3.369
85141SOL    HW157320   9.948  11.224   3.398
85141SOL    HW257321   9.860  11.233   3.274
85142SOL     OW57322  12.613   0.238  14.355
85142SOL    HW157323  12.639   0.241  14.263
85142SOL    HW257324  12.519   0.257  14.355
85143SOL     OW57325   3.263  14.389   9.944
85143SOL    HW157326   3.300  14.426  10.024
85143SOL    HW257327   3.228  14.465   9.897
85144SOL     OW57328  13.328  10.422   3.764
85144SOL    HW157329  13.325  10.479   3.687
85144SOL    HW257330  13.331  10.482   3.839
85145SOL     OW57331  14.282  11.183   4.946
85145SOL    HW157332  14.272  11.137   4.863
85145SOL    HW257333  14.335  11.124   4.999
85146SOL     OW57334  13.725  12.773   6.022
85146SOL    HW157335  13.722  12.687   6.065
85146SOL    HW257336  13.695  12.756   5.933
85147SOL     OW57337   5.602   8.239   0.446
85147SOL    HW157338   5.563   8.291   0.375
85147SOL    HW257339   5.584   8.290   0.525
85148SOL     OW57340  14.364   1.072   5.012
85148SOL    HW157341  14.396   1.047   4.925
85148SOL    HW257342  14.295   1.008   5.031
85149SOL     OW57343   7.796  12.118   0.700
85149SOL    HW157344   7.759  12.030   0.697
85149SOL    HW257345   7.791  12.149   0.609
85150SOL     OW57346   6.041   0.614  10.972
85150SOL    HW157347   6.092   0.677  11.022
85150SOL    HW257348   5.974   0.667  10.927
85151SOL     OW57349   5.770  14.868   3.929
85151SOL    HW157350   5.712   0.008   4.004
85151SOL    HW257351   5.805   0.083   3.911
85152SOL     OW57352   6.261   9.842   6.991
85152SOL    HW157353   6.276   9.925   7.036
85152SOL    HW257354   6.345   9.821   6.951
85153SOL     OW57355  13.916   8.176   1.063
85153SOL    HW157356  13.998   8.128   1.061
85153SOL    HW257357  13.850   8.114   1.031
85154SOL     OW57358  14.422   9.138   7.402
85154SOL    HW157359  14.366   9.134   7.324
85154SOL    HW257360  14.420   9.231   7.428
85155SOL     OW57361  12.475  12.693   5.215
85155SOL    HW157362  12.426  12.709   5.134
85155SOL    HW257363  12.409  12.669   5.279
85156SOL     OW57364   6.229  12.021   5.530
85156SOL    HW157365   6.221  11.926   5.527
85156SOL    HW257366   6.320  12.037   5.556
85157SOL     OW57367  13.789   7.282   3.734
85157SOL    HW157368  13.801   7.192   3.764
85157SOL    HW257369  13.751   7.273   3.647
85158SOL     OW57370   4.520   0.262   5.676
85158SOL    HW157371   4.529   0.175   5.716
85158SOL    HW257372   4.462   0.310   5.735
85159SOL     OW57373   0.239  12.715   8.055
85159SOL    HW157374   0.174  12.645   8.055
85159SOL    HW257375   0.192  12.792   8.024
85160SOL     OW57376   3.214  13.612   3.276
85160SOL    HW157377   3.277  13.622   3.205
85160SOL    HW257378   3.267  13.607   3.355
85161SOL     OW57379  10.496   7.964   4.790
85161SOL    HW157380  10.504   8.023   4.715
85161SOL    HW257381  10.402   7.954   4.803
85162SOL     OW57382  12.784   3.458   7.251
85162SOL    HW157383  12.811   3.369   7.276
85162SOL    HW257384  12.853   3.515   7.284
85163SOL     OW57385   5.212  13.103   3.318
85163SOL    HW157386   5.234  13.080   3.409
85163SOL    HW257387   5.137  13.047   3.296
85164SOL     OW57388  11.651  12.340   7.823
85164SOL    HW157389  11.668  12.368   7.913
85164SOL    HW257390  11.616  12.252   7.832
85165SOL     OW57391   3.979   3.939   3.847
85165SOL    HW157392   4.040   3.869   3.826
85165SOL    HW257393   4.029   4.001   3.900
85166SOL     OW57394   5.499   3.148  11.392
85166SOL    HW157395   5.541   3.180  11.472
85166SOL    HW257396   5.570   3.139  11.329
85167SOL     OW57397   5.712   8.656   8.842
85167SOL    HW157398   5.622   8.634   8.868
85167SOL    HW257399   5.765   8.583   8.872
85168SOL     OW57400   2.208   2.819   0.178
85168SOL    HW157401   2.165   2.764   0.244
85168SOL    HW257402   2.215   2.905   0.219
85169SOL     OW57403   9.716  14.793  10.806
85169SOL    HW157404   9.664  14.714  10.818
85169SOL    HW257405   9.663  14.863  10.845
85170SOL     OW57406   6.762  13.443   1.166
85170SOL    HW157407   6.820  13.433   1.091
85170SOL    HW257408   6.792  13.522   1.209
85171SOL     OW57409   1.029   7.591  11.631
85171SOL    HW157410   0.970   7.596  11.706
85171SOL    HW257411   1.065   7.502  11.634
85172SOL     OW57412   3.112   9.544   0.688
85172SOL    HW157413   3.028   9.499   0.684
85172SOL    HW257414   3.176   9.474   0.705
85173SOL     OW57415   2.201   4.584   0.058
85173SOL    HW157416   2.233   4.538  14.852
85173SOL    HW257417   2.279   4.600   0.111
85174SOL     OW57418   9.306   2.290  12.186
85174SOL    HW157419   9.380   2.348  12.168
85174SOL    HW257420   9.344   2.216  12.233
85175SOL     OW57421   8.951  11.623   7.556
85175SOL    HW157422   8.917  11.617   7.645
85175SOL    HW257423   8.873  11.629   7.501
85176SOL     OW57424   8.191   5.258   4.186
85176SOL    HW157425   8.203   5.168   4.217
85176SOL    HW257426   8.131   5.298   4.249
85177SOL     OW57427   9.633   5.250   5.644
85177SOL    HW157428   9.587   5.167   5.630
85177SOL    HW257429   9.726   5.227   5.641
85178SOL     OW57430   2.608  12.096   6.203
85178SOL    HW157431   2.657  12.160   6.254
85178SOL    HW257432   2.564  12.147   6.135
85179SOL     OW57433   1.041  11.899  10.854
85179SOL    HW157434   1.009  11.987  10.871
85179SOL    HW257435   1.113  11.911  10.792
85180SOL     OW57436   7.444  14.413   9.491
85180SOL    HW157437   7.383  14.364   9.547
85180SOL    HW257438   7.465  14.352   9.420
85181SOL     OW57439   7.791  13.102  12.933
85181SOL    HW157440   7.838  13.045  12.871
85181SOL    HW257441   7.815  13.069  13.019
85182SOL     OW57442  11.892  13.340   4.075
85182SOL    HW157443  11.807  13.381   4.094
85182SOL    HW257444  11.956  13.404   4.107
85183SOL     OW57445   9.859  12.061  11.708
85183SOL    HW157446   9.943  12.020  11.728
85183SOL    HW257447   9.875  12.155  11.721
85184SOL     OW57448   9.998   2.147   7.399
85184SOL    HW157449  10.002   2.176   7.308
85184SOL    HW257450  10.069   2.083   7.407
85185SOL     OW57451   3.353   1.471   7.987
85185SOL    HW157452   3.383   1.451   7.898
85185SOL    HW257453   3.258   1.461   7.982
85186SOL     OW57454  11.445  13.147  10.602
85186SOL    HW157455  11.438  13.236  10.635
85186SOL    HW257456  11.485  13.157  10.515
85187SOL     OW57457   8.422  11.616   7.590
85187SOL    HW157458   8.354  11.551   7.606
85187SOL    HW257459   8.385  11.699   7.619
85188SOL     OW57460  10.806   0.313  13.692
85188SOL    HW157461  10.812   0.371  13.768
85188SOL    HW257462  10.781   0.228  13.729
85189SOL     OW57463  11.066  12.772   4.906
85189SOL    HW157464  11.006  12.743   4.974
85189SOL    HW257465  11.126  12.832   4.950
85190SOL     OW57466   1.117  10.355   9.124
85190SOL    HW157467   1.182  10.425   9.120
85190SOL    HW257468   1.088  10.345   9.033
85191SOL     OW57469   8.697   9.721   4.612
85191SOL    HW157470   8.731   9.748   4.698
85191SOL    HW257471   8.668   9.631   4.625
85192SOL     OW57472   3.442   5.231   2.771
85192SOL    HW157473   3.476   5.194   2.852
85192SOL    HW257474   3.514   5.224   2.708
85193SOL     OW57475   5.207  10.254   5.918
85193SOL    HW157476   5.180  10.212   5.837
85193SOL    HW257477   5.302  10.243   5.921
85194SOL     OW57478   7.527   3.500  12.412
85194SOL    HW157479   7.602   3.542  12.456
85194SOL    HW257480   7.451   3.542  12.451
85195SOL     OW57481   3.541   4.921  13.637
85195SOL    HW157482   3.586   4.987  13.583
85195SOL    HW257483   3.517   4.968  13.717
85196SOL     OW57484   1.104   3.707   1.351
85196SOL    HW157485   1.159   3.785   1.346
85196SOL    HW257486   1.161   3.638   1.386
85197SOL     OW57487   7.500  12.168   0.580
85197SOL    HW157488   7.496  12.144   0.673
85197SOL    HW257489   7.521  12.086   0.536
85198SOL     OW57490   8.864   7.734   3.902
85198SOL    HW157491   8.900   7.795   3.838
85198SOL    HW257492   8.918   7.748   3.981
85199SOL     OW57493   9.420   5.042   6.773
85199SOL    HW157494   9.477   5.105   6.816
85199SOL    HW257495   9.466   4.958   6.781
85200SOL     OW57496   6.329   0.667  14.335
85200SOL    HW157497   6.242   0.645  14.304
85200SOL    HW257498   6.320   0.674  14.430
85201SOL     OW57499  11.178   1.999   4.276
85201SOL    HW157500  11.102   1.948   4.301
85201SOL    HW257501  11.142   2.080   4.239
85202SOL     OW57502  10.017  10.120   3.279
85202SOL    HW157503  10.008  10.059   3.352
85202SOL    HW257504   9.971  10.078   3.206
85203SOL     OW57505   1.055  13.222   1.891
85203SOL    HW157506   0.997  13.230   1.816
85203SOL    HW257507   1.024  13.144   1.938
85204SOL     OW57508   1.933  14.508   8.427
85204SOL    HW157509   1.899  14.436   8.480
85204SOL    HW257510   1.955  14.467   8.343
85205SOL     OW57511  14.389  14.712   1.862
85205SOL    HW157512  14.351  14.799   1.851
85205SOL    HW257513  14.319  14.659   1.900
85206SOL     OW57514  10.668   9.483   2.490
85206SOL    HW157515  10.718   9.427   2.550
85206SOL    HW257516  10.576   9.461   2.507
85207SOL     OW57517   3.476   9.564  10.732
85207SOL    HW157518   3.484   9.591  10.823
85207SOL    HW257519   3.441   9.475  10.736
85208SOL     OW57520   7.291   7.370  11.046
85208SOL    HW157521   7.278   7.370  11.141
85208SOL    HW257522   7.203   7.379  11.010
85209SOL     OW57523  14.447   1.552   5.846
85209SOL    HW157524  14.464   1.617   5.777
85209SOL    HW257525  14.412   1.603   5.919
85210SOL     OW57526   5.634  14.871   1.531
85210SOL    HW157527   5.674  14.810   1.468
85210SOL    HW257528   5.540  14.855   1.522
85211SOL     OW57529   1.722  10.962   6.329
85211SOL    HW157530   1.815  10.952   6.348
85211SOL    HW257531   1.688  10.873   6.329
85212SOL     OW57532   5.462  11.952   0.310
85212SOL    HW157533   5.458  12.036   0.354
85212SOL    HW257534   5.430  11.969   0.221
85213SOL     OW57535   5.120   4.666   9.707
85213SOL    HW157536   5.196   4.625   9.666
85213SOL    HW257537   5.143   4.670   9.800
85214SOL     OW57538  10.099   7.642   2.497
85214SOL    HW157539  10.052   7.674   2.420
85214SOL    HW257540  10.088   7.710   2.563
85215SOL     OW57541   4.151   9.732   4.548
85215SOL    HW157542   4.219   9.798   4.566
85215SOL    HW257543   4.180   9.655   4.597
85216SOL     OW57544  10.888   7.680   4.024
85216SOL    HW157545  10.901   7.587   4.005
85216SOL    HW257546  10.972   7.721   4.000
85217SOL     OW57547   7.079   4.861   4.230
85217SOL    HW157548   7.004   4.892   4.179
85217SOL    HW257549   7.102   4.777   4.190
85218SOL     OW57550   3.930   4.301  13.887
85218SOL    HW157551   4.004   4.267  13.937
85218SOL    HW257552   3.963   4.380  13.844
85219SOL     OW57553  11.133   3.332   7.122
85219SOL    HW157554  11.080   3.398   7.078
85219SOL    HW257555  11.120   3.349   7.215
85220SOL     OW57556   2.008   0.305  10.371
85220SOL    HW157557   2.036   0.277  10.284
85220SOL    HW257558   1.950   0.379  10.355
85221SOL     OW57559  11.564  11.808   8.047
85221SOL    HW157560  11.569  11.768   7.960
85221SOL    HW257561  11.470  11.823   8.061
85222SOL     OW57562   9.834   3.641   2.229
85222SOL    HW157563   9.845   3.568   2.167
85222SOL    HW257564   9.753   3.620   2.275
85223SOL     OW57565  11.591   4.043   5.443
85223SOL    HW157566  11.517   3.990   5.472
85223SOL    HW257567  11.566   4.133   5.464
85224SOL     OW57568   6.562   1.746  13.935
85224SOL    HW157569   6.657   1.757  13.933
85224SOL    HW257570   6.546   1.665  13.888
85225SOL     OW57571   5.300   8.555   8.253
85225SOL    HW157572   5.322   8.487   8.190
85225SOL    HW257573   5.363   8.544   8.324
85226SOL     OW57574  10.661   7.461   0.784
85226SOL    HW157575  10.746   7.417   0.784
85226SOL    HW257576  10.616   7.425   0.708
85227SOL     OW57577   4.097   9.510  10.297
85227SOL    HW157578   4.064   9.452  10.228
85227SOL    HW257579   4.137   9.583  10.250
85228SOL     OW57580  12.982   4.991   6.682
85228SOL    HW157581  13.035   4.913   6.702
85228SOL    HW257582  12.946   5.018   6.767
85229SOL     OW57583   0.705  13.574  13.107
85229SOL    HW157584   0.729  13.585  13.199
85229SOL    HW257585   0.621  13.528  13.109
85230SOL     OW57586   3.799   7.253   9.570
85230SOL    HW157587   3.869   7.303   9.611
85230SOL    HW257588   3.829   7.238   9.480
85231SOL     OW57589   1.114   9.999   7.765
85231SOL    HW157590   1.055  10.067   7.797
85231SOL    HW257591   1.156  10.039   7.688
85232SOL     OW57592   4.318   0.645  10.918
85232SOL    HW157593   4.257   0.703  10.872
85232SOL    HW257594   4.377   0.704  10.964
85233SOL     OW57595  14.831   8.345  12.901
85233SOL    HW157596   0.008   8.304  12.830
85233SOL    HW257597  14.743   8.356  12.866
85234SOL     OW57598   4.882   8.570  10.999
85234SOL    HW157599   4.804   8.516  11.012
85234SOL    HW257600   4.948   8.510  10.966
85235SOL     OW57601   7.769   0.111   7.399
85235SOL    HW157602   7.694   0.057   7.424
85235SOL    HW257603   7.748   0.143   7.312
85236SOL     OW57604  11.045  12.478  13.017
85236SOL    HW157605  11.124  12.514  12.977
85236SOL    HW257606  11.013  12.548  13.074
85237SOL     OW57607   7.502   8.466   6.912
85237SOL    HW157608   7.493   8.504   6.999
85237SOL    HW257609   7.417   8.427   6.893
85238SOL     OW57610   0.239   8.174   7.209
85238SOL    HW157611   0.230   8.169   7.114
85238SOL    HW257612   0.168   8.119   7.243
85239SOL     OW57613   0.966   8.031  13.234
85239SOL    HW157614   0.972   8.029  13.138
85239SOL    HW257615   1.017   8.107  13.260
85240SOL     OW57616  10.530   2.937   6.012
85240SOL    HW157617  10.556   2.899   6.096
85240SOL    HW257618  10.596   2.907   5.950
85241SOL     OW57619  11.906  12.300   8.086
85241SOL    HW157620  11.970  12.303   8.157
85241SOL    HW257621  11.849  12.226   8.109
85242SOL     OW57622   6.532   7.095   1.100
85242SOL    HW157623   6.439   7.115   1.112
85242SOL    HW257624   6.536   6.999   1.099
85243SOL     OW57625   5.310   1.456   8.250
85243SOL    HW157626   5.240   1.401   8.215
85243SOL    HW257627   5.292   1.460   8.344
85244SOL     OW57628   8.030   2.413   2.311
85244SOL    HW157629   8.039   2.476   2.239
85244SOL    HW257630   8.082   2.338   2.283
85245SOL     OW57631   2.510   4.453   9.796
85245SOL    HW157632   2.495   4.530   9.741
85245SOL    HW257633   2.435   4.396   9.778
85246SOL     OW57634   4.719   2.163  13.727
85246SOL    HW157635   4.778   2.198  13.793
85246SOL    HW257636   4.775   2.109  13.671
85247SOL     OW57637  11.454   3.784  12.989
85247SOL    HW157638  11.523   3.723  12.964
85247SOL    HW257639  11.431   3.759  13.078
85248SOL     OW57640   0.596  10.924  13.396
85248SOL    HW157641   0.506  10.906  13.421
85248SOL    HW257642   0.600  11.019  13.385
85249SOL     OW57643  13.470  13.386  14.424
85249SOL    HW157644  13.447  13.407  14.515
85249SOL    HW257645  13.529  13.457  14.397
85250SOL     OW57646   7.844   2.019   3.684
85250SOL    HW157647   7.909   2.038   3.751
85250SOL    HW257648   7.765   2.066   3.711
85251SOL     OW57649   2.652   3.096  10.696
85251SOL    HW157650   2.620   3.023  10.748
85251SOL    HW257651   2.585   3.109  10.629
85252SOL     OW57652   5.204   1.963  12.586
85252SOL    HW157653   5.297   1.939  12.577
85252SOL    HW257654   5.204   2.034  12.650
85253SOL     OW57655   1.959  12.505   4.907
85253SOL    HW157656   1.977  12.588   4.950
85253SOL    HW257657   2.045  12.473   4.879
85254SOL     OW57658   7.395   1.647   3.877
85254SOL    HW157659   7.461   1.698   3.925
85254SOL    HW257660   7.328   1.710   3.853
85255SOL     OW57661   7.670  11.163  13.576
85255SOL    HW157662   7.631  11.140  13.491
85255SOL    HW257663   7.687  11.078  13.618
85256SOL     OW57664   3.742   6.666   9.249
85256SOL    HW157665   3.668   6.632   9.300
85256SOL    HW257666   3.701   6.722   9.183
85257SOL     OW57667   2.975  13.057   8.194
85257SOL    HW157668   3.036  12.995   8.155
85257SOL    HW257669   2.964  13.125   8.128
85258SOL     OW57670   6.963   1.068   9.237
85258SOL    HW157671   6.993   1.019   9.161
85258SOL    HW257672   7.040   1.116   9.267
85259SOL     OW57673  13.314   1.597   4.627
85259SOL    HW157674  13.288   1.583   4.536
85259SOL    HW257675  13.233   1.586   4.677
85260SOL     OW57676   6.962   9.146  13.341
85260SOL    HW157677   6.925   9.234  13.338
85260SOL    HW257678   6.986   9.127  13.250
85261SOL     OW57679   5.788  11.874  10.059
85261SOL    HW157680   5.854  11.941  10.041
85261SOL    HW257681   5.730  11.914  10.123
85262SOL     OW57682   8.473  14.660   4.375
85262SOL    HW157683   8.523  14.662   4.456
85262SOL    HW257684   8.508  14.732   4.323
85263SOL     OW57685   6.307   2.609   1.602
85263SOL    HW157686   6.344   2.581   1.685
85263SOL    HW257687   6.244   2.541   1.580
85264SOL     OW57688   8.832  12.964  12.180
85264SOL    HW157689   8.874  12.961  12.266
85264SOL    HW257690   8.821  13.057  12.162
85265SOL     OW57691   0.683   0.529  14.189
85265SOL    HW157692   0.749   0.581  14.144
85265SOL    HW257693   0.609   0.589  14.199
85266SOL     OW57694   2.278  14.455   9.802
85266SOL    HW157695   2.284  14.549   9.820
85266SOL    HW257696   2.267  14.415   9.888
85267SOL     OW57697  10.760  11.086  12.373
85267SOL    HW157698  10.749  11.013  12.312
85267SOL    HW257699  10.673  11.097  12.413
85268SOL     OW57700  11.316   0.968  11.316
85268SOL    HW157701  11.285   0.895  11.262
85268SOL    HW257702  11.238   0.997  11.363
85269SOL     OW57703  11.321  10.317  12.306
85269SOL    HW157704  11.257  10.303  12.237
85269SOL    HW257705  11.270  10.346  12.382
85270SOL     OW57706   3.809   5.633   0.538
85270SOL    HW157707   3.752   5.584   0.479
85270SOL    HW257708   3.753   5.658   0.612
85271SOL     OW57709   4.207  13.966   1.520
85271SOL    HW157710   4.182  14.050   1.558
85271SOL    HW257711   4.126  13.915   1.521
85272SOL     OW57712  14.543   6.936   5.201
85272SOL    HW157713  14.515   6.871   5.266
85272SOL    HW257714  14.527   7.020   5.243
85273SOL     OW57715   5.815   2.460   8.514
85273SOL    HW157716   5.725   2.471   8.486
85273SOL    HW257717   5.826   2.365   8.522
85274SOL     OW57718   8.913   0.828  10.591
85274SOL    HW157719   8.858   0.848  10.515
85274SOL    HW257720   9.001   0.856  10.564
85275SOL     OW57721   2.031   8.458   3.657
85275SOL    HW157722   2.061   8.388   3.599
85275SOL    HW257723   2.071   8.439   3.741
85276SOL     OW57724  10.115   5.207  14.714
85276SOL    HW157725  10.189   5.185  14.771
85276SOL    HW257726  10.044   5.150  14.744
85277SOL     OW57727   8.570  13.340   6.917
85277SOL    HW157728   8.488  13.342   6.868
85277SOL    HW257729   8.636  13.318   6.851
85278SOL     OW57730   4.982  11.885  14.184
85278SOL    HW157731   4.953  11.973  14.158
85278SOL    HW257732   5.001  11.894  14.278
85279SOL     OW57733   1.388  13.017   6.597
85279SOL    HW157734   1.343  13.015   6.682
85279SOL    HW257735   1.478  12.993   6.618
85280SOL     OW57736   3.723   7.039  10.185
85280SOL    HW157737   3.709   7.079  10.099
85280SOL    HW257738   3.813   7.062  10.208
85281SOL     OW57739  14.421   1.871  14.709
85281SOL    HW157740  14.338   1.894  14.751
85281SOL    HW257741  14.475   1.835  14.779
85282SOL     OW57742   3.643   4.504   0.590
85282SOL    HW157743   3.643   4.462   0.676
85282SOL    HW257744   3.585   4.579   0.600
85283SOL     OW57745  14.173   9.678  12.922
85283SOL    HW157746  14.091   9.705  12.963
85283SOL    HW257747  14.192   9.592  12.961
85284SOL     OW57748   2.031  12.358   9.013
85284SOL    HW157749   2.046  12.445   8.974
85284SOL    HW257750   2.108  12.343   9.068
85285SOL     OW57751  12.745   7.038   2.931
85285SOL    HW157752  12.808   7.013   2.864
85285SOL    HW257753  12.793   7.098   2.988
85286SOL     OW57754   5.018  12.848   4.126
85286SOL    HW157755   4.928  12.823   4.150
85286SOL    HW257756   5.010  12.882   4.037
85287SOL     OW57757   5.453   4.942   6.940
85287SOL    HW157758   5.475   4.853   6.915
85287SOL    HW257759   5.433   4.937   7.034
85288SOL     OW57760   6.524   1.941   9.325
85288SOL    HW157761   6.578   2.011   9.289
85288SOL    HW257762   6.504   1.970   9.414
85289SOL     OW57763   6.287   6.829   2.730
85289SOL    HW157764   6.207   6.819   2.679
85289SOL    HW257765   6.271   6.776   2.809
85290SOL     OW57766  13.737   8.305   2.569
85290SOL    HW157767  13.802   8.338   2.631
85290SOL    HW257768  13.653   8.328   2.609
85291SOL     OW57769   9.755   6.672  12.683
85291SOL    HW157770   9.661   6.679  12.666
85291SOL    HW257771   9.782   6.761  12.708
85292SOL     OW57772  10.085  11.389   1.832
85292SOL    HW157773  10.157  11.431   1.785
85292SOL    HW257774  10.124  11.358   1.913
85293SOL     OW57775   7.543  13.914   4.050
85293SOL    HW157776   7.490  13.934   3.972
85293SOL    HW257777   7.568  14.000   4.084
85294SOL     OW57778  11.103   8.077   4.532
85294SOL    HW157779  11.124   8.110   4.445
85294SOL    HW257780  11.084   7.984   4.519
85295SOL     OW57781   3.920   1.938   6.709
85295SOL    HW157782   3.860   1.890   6.652
85295SOL    HW257783   3.961   2.002   6.651
85296SOL     OW57784  11.807  14.775   9.133
85296SOL    HW157785  11.806  14.786   9.228
85296SOL    HW257786  11.723  14.733   9.112
85297SOL     OW57787   3.925   0.707   2.817
85297SOL    HW157788   3.831   0.710   2.835
85297SOL    HW257789   3.960   0.787   2.857
85298SOL     OW57790  14.076   5.665  14.850
85298SOL    HW157791  14.009   5.725   0.009
85298SOL    HW257792  14.132   5.649   0.053
85299SOL     OW57793  11.353   8.413  12.056
85299SOL    HW157794  11.433   8.435  12.009
85299SOL    HW257795  11.339   8.486  12.116
85300SOL     OW57796   8.186  13.598   3.589
85300SOL    HW157797   8.093  13.614   3.604
85300SOL    HW257798   8.225  13.685   3.588
85301SOL     OW57799  11.354   1.726   7.034
85301SOL    HW157800  11.420   1.778   6.989
85301SOL    HW257801  11.332   1.655   6.973
85302SOL     OW57802   4.576   9.890   0.597
85302SOL    HW157803   4.595   9.813   0.651
85302SOL    HW257804   4.613   9.869   0.511
85303SOL     OW57805  13.197   3.838  10.661
85303SOL    HW157806  13.210   3.798  10.747
85303SOL    HW257807  13.263   3.908  10.658
85304SOL     OW57808   2.249  12.531  14.183
85304SOL    HW157809   2.300  12.610  14.161
85304SOL    HW257810   2.315  12.466  14.208
85305SOL     OW57811   2.073   7.643   9.415
85305SOL    HW157812   2.160   7.652   9.453
85305SOL    HW257813   2.016   7.692   9.475
85306SOL     OW57814  14.106   5.435   7.215
85306SOL    HW157815  14.158   5.514   7.231
85306SOL    HW257816  14.140   5.399   7.133
85307SOL     OW57817  12.156   4.396   0.548
85307SOL    HW157818  12.227   4.352   0.501
85307SOL    HW257819  12.189   4.405   0.638
85308SOL     OW57820   5.639  10.641  11.708
85308SOL    HW157821   5.583  10.656  11.632
85308SOL    HW257822   5.594  10.684  11.780
85309SOL     OW57823  13.816  13.522  12.816
85309SOL    HW157824  13.721  13.509  12.824
85309SOL    HW257825  13.834  13.598  12.871
85310SOL     OW57826   1.506   6.472   0.681
85310SOL    HW157827   1.425   6.422   0.676
85310SOL    HW257828   1.491   6.535   0.752
85311SOL     OW57829   6.275  12.329  13.911
85311SOL    HW157830   6.230  12.294  13.988
85311SOL    HW257831   6.235  12.283  13.837
85312SOL     OW57832  10.779  12.808   8.595
85312SOL    HW157833  10.745  12.897   8.580
85312SOL    HW257834  10.715  12.768   8.653
85313SOL     OW57835  14.334   1.731   7.536
85313SOL    HW157836  14.345   1.786   7.458
85313SOL    HW257837  14.354   1.788   7.610
85314SOL     OW57838   8.983   7.128  10.397
85314SOL    HW157839   8.916   7.066  10.366
85314SOL    HW257840   8.934   7.205  10.425
85315SOL     OW57841   0.593  14.201   4.514
85315SOL    HW157842   0.589  14.126   4.454
85315SOL    HW257843   0.637  14.166   4.592
85316SOL     OW57844   7.912   7.096   5.738
85316SOL    HW157845   7.987   7.095   5.679
85316SOL    HW257846   7.873   7.009   5.730
85317SOL     OW57847   2.167  12.739   2.875
85317SOL    HW157848   2.210  12.807   2.928
85317SOL    HW257849   2.078  12.771   2.863
85318SOL     OW57850   9.201   3.181  13.484
85318SOL    HW157851   9.207   3.238  13.560
85318SOL    HW257852   9.195   3.242  13.410
85319SOL     OW57853   2.600   0.249   8.206
85319SOL    HW157854   2.560   0.331   8.235
85319SOL    HW257855   2.615   0.200   8.286
85320SOL     OW57856   0.581   5.340   7.914
85320SOL    HW157857   0.672   5.366   7.903
85320SOL    HW257858   0.533   5.423   7.917
85321SOL     OW57859   8.407   7.208   5.319
85321SOL    HW157860   8.453   7.228   5.400
85321SOL    HW257861   8.315   7.197   5.346
85322SOL     OW57862  10.709  11.715  11.479
85322SOL    HW157863  10.683  11.754  11.395
85322SOL    HW257864  10.739  11.789  11.531
85323SOL     OW57865   4.900  14.232   8.241
85323SOL    HW157866   4.812  14.265   8.224
85323SOL    HW257867   4.903  14.147   8.197
85324SOL     OW57868   1.833  10.911   7.983
85324SOL    HW157869   1.773  10.982   7.957
85324SOL    HW257870   1.779  10.854   8.038
85325SOL     OW57871   7.602   3.291   7.963
85325SOL    HW157872   7.671   3.225   7.977
85325SOL    HW257873   7.645   3.361   7.914
85326SOL     OW57874   8.991   0.345  12.702
85326SOL    HW157875   9.046   0.279  12.660
85326SOL    HW257876   8.990   0.319  12.795
85327SOL     OW57877  11.723   4.062   4.973
85327SOL    HW157878  11.779   4.008   4.917
85327SOL    HW257879  11.704   4.140   4.921
85328SOL     OW57880   6.789   9.517   7.422
85328SOL    HW157881   6.829   9.435   7.453
85328SOL    HW257882   6.750   9.555   7.501
85329SOL     OW57883   5.274   4.509   2.403
85329SOL    HW157884   5.222   4.555   2.468
85329SOL    HW257885   5.253   4.553   2.320
85330SOL     OW57886  10.190  10.903   7.816
85330SOL    HW157887  10.225  10.986   7.847
85330SOL    HW257888  10.096  10.918   7.808
85331SOL     OW57889  14.345   3.389   6.113
85331SOL    HW157890  14.420   3.370   6.170
85331SOL    HW257891  14.271   3.397   6.173
85332SOL     OW57892  13.670   0.831   8.798
85332SOL    HW157893  13.639   0.826   8.889
85332SOL    HW257894  13.634   0.753   8.756
85333SOL     OW57895   8.910   6.832  14.532
85333SOL    HW157896   9.001   6.848  14.508
85333SOL    HW257897   8.871   6.794  14.454
85334SOL     OW57898   7.255  13.951   4.845
85334SOL    HW157899   7.345  13.984   4.855
85334SOL    HW257900   7.200  14.025   4.868
85335SOL     OW57901   4.906  10.656  12.250
85335SOL    HW157902   4.826  10.692  12.290
85335SOL    HW257903   4.877  10.574  12.210
85336SOL     OW57904  13.674   0.550  10.542
85336SOL    HW157905  13.606   0.613  10.520
85336SOL    HW257906  13.631   0.488  10.600
85337SOL     OW57907   9.166   7.664   4.231
85337SOL    HW157908   9.113   7.586   4.250
85337SOL    HW257909   9.221   7.674   4.309
85338SOL     OW57910   5.529  10.408   4.757
85338SOL    HW157911   5.610  10.445   4.723
85338SOL    HW257912   5.487  10.480   4.804
85339SOL     OW57913   5.269   8.885   7.881
85339SOL    HW157914   5.342   8.939   7.909
85339SOL    HW257915   5.193   8.923   7.925
85340SOL     OW57916   1.508   2.243  10.832
85340SOL    HW157917   1.512   2.330  10.873
85340SOL    HW257918   1.437   2.198  10.876
85341SOL     OW57919  11.086  13.491   8.508
85341SOL    HW157920  11.166  13.499   8.456
85341SOL    HW257921  11.105  13.421   8.570
85342SOL     OW57922   2.400   5.470   0.093
85342SOL    HW157923   2.420   5.431   0.008
85342SOL    HW257924   2.394   5.396   0.153
85343SOL     OW57925   3.429   7.270   2.630
85343SOL    HW157926   3.427   7.255   2.725
85343SOL    HW257927   3.343   7.243   2.599
85344SOL     OW57928  13.876   5.851   5.432
85344SOL    HW157929  13.801   5.910   5.420
85344SOL    HW257930  13.945   5.908   5.469
85345SOL     OW57931  12.870   7.281  12.358
85345SOL    HW157932  12.850   7.226  12.434
85345SOL    HW257933  12.815   7.246  12.288
85346SOL     OW57934   0.479  14.468  11.004
85346SOL    HW157935   0.510  14.476  11.094
85346SOL    HW257936   0.405  14.527  10.998
85347SOL     OW57937   2.860   3.897   8.288
85347SOL    HW157938   2.861   3.978   8.340
85347SOL    HW257939   2.885   3.828   8.349
85348SOL     OW57940  11.450  12.759  12.756
85348SOL    HW157941  11.451  12.730  12.665
85348SOL    HW257942  11.489  12.847  12.754
85349SOL     OW57943  13.462  11.986   9.830
85349SOL    HW157944  13.480  11.893   9.837
85349SOL    HW257945  13.508  12.026   9.904
85350SOL     OW57946   2.789   2.954   3.333
85350SOL    HW157947   2.720   2.985   3.392
85350SOL    HW257948   2.845   2.899   3.388
85351SOL     OW57949  10.992   6.951   7.986
85351SOL    HW157950  10.901   6.956   7.958
85351SOL    HW257951  11.041   7.000   7.920
85352SOL     OW57952   2.899   9.409  11.533
85352SOL    HW157953   2.977   9.367  11.568
85352SOL    HW257954   2.915   9.503  11.544
85353SOL     OW57955  14.206   0.357   5.229
85353SOL    HW157956  14.276   0.420   5.218
85353SOL    HW257957  14.139   0.404   5.279
85354SOL     OW57958  10.690   1.961   2.891
85354SOL    HW157959  10.634   1.972   2.815
85354SOL    HW257960  10.775   1.996   2.864
85355SOL     OW57961   8.931   6.866   9.485
85355SOL    HW157962   9.019   6.896   9.507
85355SOL    HW257963   8.917   6.894   9.394
85356SOL     OW57964   5.728   8.343  14.466
85356SOL    HW157965   5.807   8.364  14.516
85356SOL    HW257966   5.745   8.256  14.430
85357SOL     OW57967   9.889   1.387   4.388
85357SOL    HW157968   9.973   1.411   4.349
85357SOL    HW257969   9.826   1.399   4.318
85358SOL     OW57970  12.375   4.684  12.593
85358SOL    HW157971  12.390   4.769  12.552
85358SOL    HW257972  12.403   4.620  12.528
85359SOL     OW57973   5.287   2.704   0.956
85359SOL    HW157974   5.351   2.665   0.896
85359SOL    HW257975   5.227   2.632   0.976
85360SOL     OW57976  14.134   5.895   5.141
85360SOL    HW157977  14.049   5.851   5.150
85360SOL    HW257978  14.197   5.833   5.177
85361SOL     OW57979   2.872  11.640  12.536
85361SOL    HW157980   2.796  11.680  12.493
85361SOL    HW257981   2.940  11.642  12.469
85362SOL     OW57982   2.569  11.472   6.332
85362SOL    HW157983   2.655  11.515   6.334
85362SOL    HW257984   2.576  11.401   6.396
85363SOL     OW57985   8.780   4.950   2.166
85363SOL    HW157986   8.698   4.924   2.209
85363SOL    HW257987   8.837   4.874   2.176
85364SOL     OW57988  10.015   8.286  14.765
85364SOL    HW157989  10.097   8.312  14.723
85364SOL    HW257990  10.025   8.314  14.856
85365SOL     OW57991   1.589   9.276  11.513
85365SOL    HW157992   1.528   9.345  11.488
85365SOL    HW257993   1.672   9.301  11.473
85366SOL     OW57994   4.970   7.679   0.222
85366SOL    HW157995   4.945   7.658   0.132
85366SOL    HW257996   5.008   7.767   0.216
85367SOL     OW57997   6.775  10.329   6.434
85367SOL    HW157998   6.797  10.422   6.437
85367SOL    HW257999   6.851  10.287   6.394
85368SOL     OW58000  13.544  10.667  11.222
85368SOL    HW158001  13.599  10.590  11.218
85368SOL    HW258002  13.458  10.634  11.247
85369SOL     OW58003  12.283  12.208   6.330
85369SOL    HW158004  12.358  12.151   6.313
85369SOL    HW258005  12.229  12.159   6.392
85370SOL     OW58006  14.307   6.818  13.200
85370SOL    HW158007  14.368   6.744  13.202
85370SOL    HW258008  14.220   6.778  13.202
85371SOL     OW58009  11.467   0.212   3.359
85371SOL    HW158010  11.533   0.203   3.291
85371SOL    HW258011  11.509   0.177   3.438
85372SOL     OW58012  13.106   3.460   5.697
85372SOL    HW158013  13.062   3.510   5.628
85372SOL    HW258014  13.164   3.400   5.650
85373SOL     OW58015   8.453   4.739   2.574
85373SOL    HW158016   8.473   4.758   2.482
85373SOL    HW258017   8.448   4.825   2.616
85374SOL     OW58018  12.481   8.036   2.559
85374SOL    HW158019  12.554   8.097   2.559
85374SOL    HW258020  12.475   8.005   2.469
85375SOL     OW58021  10.409   1.037   2.579
85375SOL    HW158022  10.467   1.112   2.591
85375SOL    HW258023  10.418   0.987   2.661
85376SOL     OW58024  13.693   3.410   8.686
85376SOL    HW158025  13.637   3.463   8.629
85376SOL    HW258026  13.737   3.474   8.742
85377SOL     OW58027  11.712   7.502   3.680
85377SOL    HW158028  11.803   7.487   3.655
85377SOL    HW258029  11.677   7.561   3.613
85378SOL     OW58030  14.857   9.981  14.327
85378SOL    HW158031   0.062  10.036  14.345
85378SOL    HW258032   0.009   9.895  14.360
85379SOL     OW58033   8.952  13.254   2.623
85379SOL    HW158034   8.937  13.164   2.595
85379SOL    HW258035   8.893  13.265   2.698
85380SOL     OW58036  11.980   8.689   2.071
85380SOL    HW158037  11.920   8.755   2.037
85380SOL    HW258038  12.050   8.683   2.005
85381SOL     OW58039   1.835   7.067   4.373
85381SOL    HW158040   1.924   7.068   4.338
85381SOL    HW258041   1.779   7.088   4.298
85382SOL     OW58042  11.247   1.078  12.998
85382SOL    HW158043  11.227   0.986  13.018
85382SOL    HW258044  11.185   1.101  12.929
85383SOL     OW58045  10.554   9.753   1.603
85383SOL    HW158046  10.590   9.664   1.603
85383SOL    HW258047  10.461   9.742   1.624
85384SOL     OW58048   2.250  10.328   7.346
85384SOL    HW158049   2.259  10.260   7.280
85384SOL    HW258050   2.222  10.406   7.297
85385SOL     OW58051   7.070   0.589   4.013
85385SOL    HW158052   7.094   0.640   3.936
85385SOL    HW258053   7.134   0.518   4.017
85386SOL     OW58054   0.086  10.092   0.840
85386SOL    HW158055   0.046  10.020   0.792
85386SOL    HW258056   0.164  10.054   0.880
85387SOL     OW58057   9.465  10.464   8.136
85387SOL    HW158058   9.540  10.415   8.170
85387SOL    HW258059   9.468  10.547   8.183
85388SOL     OW58060   2.930  12.030  14.584
85388SOL    HW158061   2.996  11.980  14.632
85388SOL    HW258062   2.847  12.005  14.625
85389SOL     OW58063  12.182   0.842   9.543
85389SOL    HW158064  12.206   0.933   9.528
85389SOL    HW258065  12.112   0.826   9.480
85390SOL     OW58066   7.797   3.095   0.852
85390SOL    HW158067   7.885   3.112   0.818
85390SOL    HW258068   7.776   3.007   0.822
85391SOL     OW58069  12.568  13.621  12.006
85391SOL    HW158070  12.483  13.592  11.973
85391SOL    HW258071  12.572  13.714  11.983
85392SOL     OW58072   2.494   4.699  13.252
85392SOL    HW158073   2.438   4.769  13.218
85392SOL    HW258074   2.549   4.675  13.177
85393SOL     OW58075   2.426   6.271  14.667
85393SOL    HW158076   2.426   6.187  14.714
85393SOL    HW258077   2.445   6.248  14.576
85394SOL     OW58078  13.988  11.748   5.558
85394SOL    HW158079  13.996  11.741   5.463
85394SOL    HW258080  13.929  11.677   5.583
85395SOL     OW58081   1.193   5.831   9.607
85395SOL    HW158082   1.207   5.925   9.596
85395SOL    HW258083   1.182   5.798   9.518
85396SOL     OW58084   3.454   9.716   2.685
85396SOL    HW158085   3.450   9.760   2.770
85396SOL    HW258086   3.365   9.686   2.669
85397SOL     OW58087   8.979   5.030  13.658
85397SOL    HW158088   8.911   5.079  13.611
85397SOL    HW258089   8.964   5.051  13.750
85398SOL     OW58090   3.149   0.410  10.680
85398SOL    HW158091   3.082   0.473  10.651
85398SOL    HW258092   3.125   0.329  10.636
85399SOL     OW58093   4.985   1.293  10.780
85399SOL    HW158094   5.077   1.312  10.796
85399SOL    HW258095   4.944   1.380  10.773
85400SOL     OW58096  12.435   1.465  10.924
85400SOL    HW158097  12.421   1.516  10.845
85400SOL    HW258098  12.530   1.454  10.929
85401SOL     OW58099   6.811   2.211   7.725
85401SOL    HW158100   6.802   2.226   7.818
85401SOL    HW258101   6.722   2.209   7.691
85402SOL     OW58102   9.629   5.856   4.066
85402SOL    HW158103   9.722   5.846   4.087
85402SOL    HW258104   9.583   5.831   4.146
85403SOL     OW58105  14.235  10.830   4.429
85403SOL    HW158106  14.285  10.903   4.465
85403SOL    HW258107  14.219  10.772   4.504
85404SOL     OW58108   7.366   1.354  13.685
85404SOL    HW158109   7.298   1.318  13.741
85404SOL    HW258110   7.448   1.320  13.722
85405SOL     OW58111   3.695   6.241  12.366
85405SOL    HW158112   3.757   6.176  12.398
85405SOL    HW258113   3.748   6.318  12.347
85406SOL     OW58114   4.663   3.497   5.676
85406SOL    HW158115   4.663   3.481   5.582
85406SOL    HW258116   4.673   3.411   5.716
85407SOL     OW58117  13.005   4.599   0.505
85407SOL    HW158118  13.003   4.533   0.575
85407SOL    HW258119  12.951   4.561   0.435
85408SOL     OW58120   1.200   7.467   7.141
85408SOL    HW158121   1.284   7.506   7.166
85408SOL    HW258122   1.196   7.477   7.046
85409SOL     OW58123   3.970  14.643   1.458
85409SOL    HW158124   3.884  14.608   1.437
85409SOL    HW258125   3.955  14.702   1.531
85410SOL     OW58126   6.012   2.346  11.159
85410SOL    HW158127   5.993   2.257  11.190
85410SOL    HW258128   6.091   2.371  11.207
85411SOL     OW58129   4.071   4.341   6.311
85411SOL    HW158130   4.130   4.309   6.379
85411SOL    HW258131   4.104   4.428   6.289
85412SOL     OW58132  14.335  11.573   9.998
85412SOL    HW158133  14.359  11.610   9.913
85412SOL    HW258134  14.375  11.631  10.063
85413SOL     OW58135   3.347  13.207   6.736
85413SOL    HW158136   3.403  13.284   6.725
85413SOL    HW258137   3.387  13.141   6.680
85414SOL     OW58138  10.388   0.412  11.164
85414SOL    HW158139  10.482   0.391  11.160
85414SOL    HW258140  10.366   0.440  11.075
85415SOL     OW58141  11.708   3.413   3.008
85415SOL    HW158142  11.751   3.438   2.927
85415SOL    HW258143  11.704   3.317   3.006
85416SOL     OW58144   0.813   0.129   6.947
85416SOL    HW158145   0.904   0.106   6.930
85416SOL    HW258146   0.815   0.223   6.966
85417SOL     OW58147   4.097   2.457  11.016
85417SOL    HW158148   4.002   2.459  11.013
85417SOL    HW258149   4.124   2.469  10.924
85418SOL     OW58150  10.322   8.457   0.377
85418SOL    HW158151  10.235   8.492   0.392
85418SOL    HW258152  10.358   8.443   0.464
85419SOL     OW58153   1.334   2.846   0.975
85419SOL    HW158154   1.395   2.850   0.902
85419SOL    HW258155   1.247   2.842   0.934
85420SOL     OW58156  13.253   0.908   3.225
85420SOL    HW158157  13.240   0.927   3.318
85420SOL    HW258158  13.333   0.856   3.222
85421SOL     OW58159   8.542   2.824   8.236
85421SOL    HW158160   8.545   2.919   8.229
85421SOL    HW258161   8.455   2.804   8.269
85422SOL     OW58162   0.205  11.263   2.341
85422SOL    HW158163   0.291  11.238   2.309
85422SOL    HW258164   0.177  11.334   2.282
85423SOL     OW58165   7.494   9.181  12.301
85423SOL    HW158166   7.483   9.172  12.396
85423SOL    HW258167   7.422   9.130  12.264
85424SOL     OW58168   4.900   8.321   2.985
85424SOL    HW158169   4.966   8.293   2.922
85424SOL    HW258170   4.885   8.414   2.965
85425SOL     OW58171  10.025  10.102  13.715
85425SOL    HW158172  10.025  10.008  13.698
85425SOL    HW258173   9.948  10.135  13.669
85426SOL     OW58174   4.992   2.270   0.575
85426SOL    HW158175   5.052   2.268   0.650
85426SOL    HW258176   4.970   2.362   0.564
85427SOL     OW58177  14.372  11.799   5.412
85427SOL    HW158178  14.310  11.805   5.484
85427SOL    HW258179  14.458  11.815   5.452
85428SOL     OW58180   1.511   8.178   0.453
85428SOL    HW158181   1.537   8.162   0.544
85428SOL    HW258182   1.415   8.184   0.456
85429SOL     OW58183   1.120   9.735   6.269
85429SOL    HW158184   1.180   9.755   6.198
85429SOL    HW258185   1.041   9.786   6.249
85430SOL     OW58186  12.678   4.048   5.144
85430SOL    HW158187  12.598   4.038   5.195
85430SOL    HW258188  12.661   3.999   5.063
85431SOL     OW58189   4.485   3.630   0.701
85431SOL    HW158190   4.544   3.692   0.658
85431SOL    HW258191   4.423   3.685   0.749
85432SOL     OW58192  13.490   8.984   8.356
85432SOL    HW158193  13.473   9.056   8.295
85432SOL    HW258194  13.567   8.940   8.321
85433SOL     OW58195   2.279  11.256   3.775
85433SOL    HW158196   2.202  11.208   3.806
85433SOL    HW258197   2.301  11.315   3.847
85434SOL     OW58198  10.674   4.353   3.142
85434SOL    HW158199  10.639   4.335   3.055
85434SOL    HW258200  10.662   4.272   3.191
85435SOL     OW58201   1.605   2.561  12.470
85435SOL    HW158202   1.625   2.588  12.560
85435SOL    HW258203   1.583   2.642  12.424
85436SOL     OW58204   4.541   4.706  14.045
85436SOL    HW158205   4.542   4.800  14.027
85436SOL    HW258206   4.517   4.700  14.138
85437SOL     OW58207  12.375   4.097  12.865
85437SOL    HW158208  12.432   4.035  12.910
85437SOL    HW258209  12.340   4.047  12.791
85438SOL     OW58210   0.993  13.337  12.789
85438SOL    HW158211   0.998  13.304  12.878
85438SOL    HW258212   0.899  13.348  12.772
85439SOL     OW58213  14.307  14.392   5.642
85439SOL    HW158214  14.225  14.424   5.680
85439SOL    HW258215  14.290  14.300   5.624
85440SOL     OW58216   0.233  10.229   6.009
85440SOL    HW158217   0.291  10.228   5.933
85440SOL    HW258218   0.237  10.139   6.042
85441SOL     OW58219  10.272   3.206   4.536
85441SOL    HW158220  10.318   3.138   4.585
85441SOL    HW258221  10.337   3.274   4.523
85442SOL     OW58222   4.443  11.408   9.040
85442SOL    HW158223   4.383  11.420   8.967
85442SOL    HW258224   4.397  11.445   9.115
85443SOL     OW58225  11.283   5.446  14.464
85443SOL    HW158226  11.220   5.380  14.437
85443SOL    HW258227  11.264   5.522  14.409
85444SOL     OW58228   1.453  11.342   3.015
85444SOL    HW158229   1.438  11.391   3.095
85444SOL    HW258230   1.548  11.340   3.004
85445SOL     OW58231   1.778  12.097  14.542
85445SOL    HW158232   1.749  12.087  14.451
85445SOL    HW258233   1.726  12.032  14.590
85446SOL     OW58234   9.228   7.727   2.593
85446SOL    HW158235   9.225   7.673   2.513
85446SOL    HW258236   9.164   7.796   2.577
85447SOL     OW58237   9.117   9.281   4.597
85447SOL    HW158238   9.092   9.327   4.517
85447SOL    HW258239   9.187   9.222   4.570
85448SOL     OW58240   5.412  14.380  12.591
85448SOL    HW158241   5.335  14.391  12.648
85448SOL    HW258242   5.480  14.433  12.633
85449SOL     OW58243   0.932  12.556   1.803
85449SOL    HW158244   0.918  12.527   1.713
85449SOL    HW258245   0.952  12.649   1.796
85450SOL     OW58246  11.201   6.502   8.162
85450SOL    HW158247  11.255   6.580   8.176
85450SOL    HW258248  11.154   6.519   8.081
85451SOL     OW58249   1.564   6.929   5.646
85451SOL    HW158250   1.496   6.912   5.712
85451SOL    HW258251   1.550   7.020   5.620
85452SOL     OW58252  11.788  14.620   8.180
85452SOL    HW158253  11.796  14.623   8.084
85452SOL    HW258254  11.878  14.606   8.210
85453SOL     OW58255   4.808   4.021   6.846
85453SOL    HW158256   4.816   4.062   6.760
85453SOL    HW258257   4.793   4.094   6.906
85454SOL     OW58258   1.654   5.604   8.455
85454SOL    HW158259   1.674   5.694   8.480
85454SOL    HW258260   1.680   5.551   8.530
85455SOL     OW58261  12.585   1.042   7.804
85455SOL    HW158262  12.515   1.087   7.756
85455SOL    HW258263  12.664   1.064   7.755
85456SOL     OW58264   9.084   3.486   4.695
85456SOL    HW158265   9.075   3.481   4.600
85456SOL    HW258266   9.003   3.528   4.724
85457SOL     OW58267  13.475   3.974   1.316
85457SOL    HW158268  13.381   3.992   1.310
85457SOL    HW258269  13.481   3.879   1.318
85458SOL     OW58270   4.076   3.278   6.602
85458SOL    HW158271   4.040   3.228   6.528
85458SOL    HW258272   4.019   3.355   6.608
85459SOL     OW58273   9.240   0.720   2.752
85459SOL    HW158274   9.176   0.669   2.703
85459SOL    HW258275   9.276   0.781   2.688
85460SOL     OW58276   1.694   3.088   6.459
85460SOL    HW158277   1.693   3.000   6.498
85460SOL    HW258278   1.711   3.147   6.534
85461SOL     OW58279   4.459   0.736   0.786
85461SOL    HW158280   4.440   0.667   0.722
85461SOL    HW258281   4.523   0.696   0.845
85462SOL     OW58282   0.200   6.962  14.521
85462SOL    HW158283   0.170   7.053  14.527
85462SOL    HW258284   0.128   6.916  14.478
85463SOL     OW58285   0.198   7.180   6.655
85463SOL    HW158286   0.128   7.245   6.655
85463SOL    HW258287   0.277   7.230   6.675
85464SOL     OW58288   1.102  10.587   6.696
85464SOL    HW158289   1.018  10.542   6.703
85464SOL    HW258290   1.118  10.621   6.784
85465SOL     OW58291   7.351  10.385   9.426
85465SOL    HW158292   7.278  10.439   9.458
85465SOL    HW258293   7.324  10.360   9.338
85466SOL     OW58294   2.882   0.765  14.746
85466SOL    HW158295   2.953   0.707  14.774
85466SOL    HW258296   2.904   0.849  14.786
85467SOL     OW58297   1.290   6.136  10.258
85467SOL    HW158298   1.227   6.065  10.272
85467SOL    HW258299   1.238   6.216  10.258
85468SOL     OW58300   4.752   5.798  13.216
85468SOL    HW158301   4.672   5.849  13.201
85468SOL    HW258302   4.720   5.710  13.238
85469SOL     OW58303  11.531  13.899   3.546
85469SOL    HW158304  11.590  13.894   3.471
85469SOL    HW258305  11.566  13.970   3.600
85470SOL     OW58306  11.886   0.836  13.577
85470SOL    HW158307  11.910   0.753  13.618
85470SOL    HW258308  11.888   0.818  13.483
85471SOL     OW58309  12.484  13.440   6.852
85471SOL    HW158310  12.509  13.350   6.832
85471SOL    HW258311  12.469  13.480   6.766
85472SOL     OW58312   5.492   4.805  13.033
85472SOL    HW158313   5.443   4.864  12.976
85472SOL    HW258314   5.455   4.718  13.016
85473SOL     OW58315   3.709   7.932   3.315
85473SOL    HW158316   3.626   7.910   3.356
85473SOL    HW258317   3.773   7.927   3.387
85474SOL     OW58318   7.747   8.173   4.015
85474SOL    HW158319   7.688   8.141   3.947
85474SOL    HW258320   7.817   8.108   4.018
85475SOL     OW58321   6.880   1.463   8.194
85475SOL    HW158322   6.921   1.403   8.257
85475SOL    HW258323   6.793   1.425   8.177
85476SOL     OW58324   4.283   2.350  10.285
85476SOL    HW158325   4.350   2.332  10.351
85476SOL    HW258326   4.200   2.346  10.333
85477SOL     OW58327   2.148  12.298  14.086
85477SOL    HW158328   2.132  12.261  14.172
85477SOL    HW258329   2.166  12.390  14.102
85478SOL     OW58330   1.259   1.158   1.757
85478SOL    HW158331   1.181   1.182   1.809
85478SOL    HW258332   1.227   1.094   1.695
85479SOL     OW58333   7.331   7.915  11.624
85479SOL    HW158334   7.400   7.966  11.666
85479SOL    HW258335   7.261   7.910  11.690
85480SOL     OW58336   6.760   8.310   1.599
85480SOL    HW158337   6.843   8.350   1.626
85480SOL    HW258338   6.723   8.276   1.680
85481SOL     OW58339  14.535   8.376  11.626
85481SOL    HW158340  14.531   8.464  11.589
85481SOL    HW258341  14.450   8.337  11.605
85482SOL     OW58342   5.515   7.694  12.345
85482SOL    HW158343   5.482   7.660  12.262
85482SOL    HW258344   5.599   7.649  12.358
85483SOL     OW58345   5.940   4.397   5.839
85483SOL    HW158346   5.992   4.432   5.911
85483SOL    HW258347   5.924   4.473   5.782
85484SOL     OW58348  11.224   4.231   6.660
85484SOL    HW158349  11.318   4.240   6.680
85484SOL    HW258350  11.194   4.164   6.721
85485SOL     OW58351  14.658  11.553   5.681
85485SOL    HW158352  14.586  11.503   5.720
85485SOL    HW258353  14.717  11.571   5.753
85486SOL     OW58354  12.652   9.549  10.764
85486SOL    HW158355  12.722   9.614  10.758
85486SOL    HW258356  12.693   9.467  10.738
85487SOL     OW58357  10.989   0.948  14.253
85487SOL    HW158358  10.969   0.866  14.296
85487SOL    HW258359  11.054   0.990  14.310
85488SOL     OW58360   4.547  10.173   4.562
85488SOL    HW158361   4.545  10.263   4.528
85488SOL    HW258362   4.485  10.174   4.635
85489SOL     OW58363  11.346   0.661   4.699
85489SOL    HW158364  11.423   0.675   4.643
85489SOL    HW258365  11.376   0.685   4.787
85490SOL     OW58366   6.063   7.034   2.386
85490SOL    HW158367   6.048   7.128   2.375
85490SOL    HW258368   6.148   7.028   2.429
85491SOL     OW58369   0.269  14.794   1.777
85491SOL    HW158370   0.255  14.859   1.709
85491SOL    HW258371   0.200  14.729   1.763
85492SOL     OW58372   0.946  12.170   4.644
85492SOL    HW158373   0.907  12.144   4.560
85492SOL    HW258374   0.882  12.142   4.710
85493SOL     OW58375   4.432   2.221   4.896
85493SOL    HW158376   4.496   2.238   4.965
85493SOL    HW258377   4.347   2.231   4.940
85494SOL     OW58378   2.929   2.568   1.324
85494SOL    HW158379   2.862   2.549   1.389
85494SOL    HW258380   2.896   2.530   1.243
85495SOL     OW58381  11.227  10.674   1.034
85495SOL    HW158382  11.143  10.698   0.996
85495SOL    HW258383  11.230  10.721   1.117
85496SOL     OW58384   0.428   7.683   5.681
85496SOL    HW158385   0.504   7.629   5.660
85496SOL    HW258386   0.377   7.629   5.742
85497SOL     OW58387   4.378  13.467   5.159
85497SOL    HW158388   4.294  13.436   5.192
85497SOL    HW258389   4.443  13.413   5.203
85498SOL     OW58390   9.680   0.395   6.194
85498SOL    HW158391   9.742   0.408   6.122
85498SOL    HW258392   9.721   0.328   6.249
85499SOL     OW58393  10.029   9.108   2.033
85499SOL    HW158394  10.070   9.163   1.966
85499SOL    HW258395   9.935   9.117   2.017
85500SOL     OW58396  12.541   5.752   2.162
85500SOL    HW158397  12.609   5.816   2.182
85500SOL    HW258398  12.589   5.670   2.145
85501SOL     OW58399   0.351  13.112   9.813
85501SOL    HW158400   0.284  13.158   9.763
85501SOL    HW258401   0.430  13.118   9.758
85502SOL     OW58402   3.031   3.480   2.011
85502SOL    HW158403   2.960   3.422   1.983
85502SOL    HW258404   3.086   3.490   1.934
85503SOL     OW58405   2.059   0.192   7.780
85503SOL    HW158406   1.980   0.244   7.794
85503SOL    HW258407   2.068   0.140   7.859
85504SOL     OW58408   4.294  10.898   4.347
85504SOL    HW158409   4.198  10.889   4.348
85504SOL    HW258410   4.309  10.992   4.348
85505SOL     OW58411   7.081   5.121  14.768
85505SOL    HW158412   7.144   5.056  14.735
85505SOL    HW258413   7.018   5.131  14.696
85506SOL     OW58414   0.357   4.279  14.556
85506SOL    HW158415   0.371   4.186  14.573
85506SOL    HW258416   0.320   4.312  14.638
85507SOL     OW58417   0.107   1.389   0.247
85507SOL    HW158418   0.086   1.337   0.325
85507SOL    HW258419   0.075   1.477   0.268
85508SOL     OW58420   2.564  10.947   5.253
85508SOL    HW158421   2.481  10.996   5.256
85508SOL    HW258422   2.575  10.926   5.160
85509SOL     OW58423  14.025   5.457   3.572
85509SOL    HW158424  14.054   5.548   3.568
85509SOL    HW258425  14.055   5.419   3.489
85510SOL     OW58426   9.980   2.348   5.148
85510SOL    HW158427   9.913   2.283   5.170
85510SOL    HW258428  10.045   2.340   5.217
85511SOL     OW58429   3.176  13.173   1.269
85511SOL    HW158430   3.170  13.078   1.276
85511SOL    HW258431   3.131  13.194   1.187
85512SOL     OW58432   1.403   7.742  13.852
85512SOL    HW158433   1.323   7.764  13.901
85512SOL    HW258434   1.380   7.664  13.802
85513SOL     OW58435  14.035   4.113   1.058
85513SOL    HW158436  14.108   4.054   1.076
85513SOL    HW258437  14.052   4.189   1.114
85514SOL     OW58438  13.137  13.375   8.184
85514SOL    HW158439  13.224  13.351   8.153
85514SOL    HW258440  13.100  13.428   8.114
85515SOL     OW58441   0.453   7.206   6.010
85515SOL    HW158442   0.546   7.221   6.027
85515SOL    HW258443   0.441   7.229   5.918
85516SOL     OW58444  11.161   8.585  10.291
85516SOL    HW158445  11.223   8.584  10.363
85516SOL    HW258446  11.155   8.494  10.262
85517SOL     OW58447   5.070   1.491  11.240
85517SOL    HW158448   5.140   1.480  11.175
85517SOL    HW258449   4.989   1.478  11.190
85518SOL     OW58450   9.712   1.459   9.208
85518SOL    HW158451   9.700   1.552   9.187
85518SOL    HW258452   9.734   1.459   9.302
85519SOL     OW58453   1.825  13.253  11.370
85519SOL    HW158454   1.867  13.207  11.298
85519SOL    HW258455   1.876  13.333  11.380
85520SOL     OW58456   8.134   4.232   8.041
85520SOL    HW158457   8.092   4.159   8.085
85520SOL    HW258458   8.064   4.295   8.027
85521SOL     OW58459   2.491  14.498   6.734
85521SOL    HW158460   2.573  14.494   6.784
85521SOL    HW258461   2.501  14.577   6.679
85522SOL     OW58462   4.280   5.026   5.070
85522SOL    HW158463   4.297   5.009   4.978
85522SOL    HW258464   4.188   5.052   5.074
85523SOL     OW58465   2.170  10.898   2.805
85523SOL    HW158466   2.099  10.841   2.835
85523SOL    HW258467   2.244  10.840   2.794
85524SOL     OW58468   3.084  11.580   6.350
85524SOL    HW158469   3.097  11.651   6.413
85524SOL    HW258470   3.105  11.500   6.399
85525SOL     OW58471   1.287   2.972   0.055
85525SOL    HW158472   1.292   2.969  14.831
85525SOL    HW258473   1.365   2.925   0.084
85526SOL     OW58474  10.479  10.747  12.895
85526SOL    HW158475  10.488  10.766  12.988
85526SOL    HW258476  10.412  10.679  12.890
85527SOL     OW58477  14.824   6.731  11.740
85527SOL    HW158478  14.746   6.785  11.725
85527SOL    HW258479  14.855   6.708  11.652
85528SOL     OW58480  14.842   4.957   9.732
85528SOL    HW158481  14.776   4.945   9.801
85528SOL    HW258482   0.052   4.969   9.779
85529SOL     OW58483   6.233   5.055  11.616
85529SOL    HW158484   6.227   5.044  11.521
85529SOL    HW258485   6.327   5.058  11.634
85530SOL     OW58486   1.808   5.048   9.856
85530SOL    HW158487   1.903   5.036   9.856
85530SOL    HW258488   1.775   4.976   9.803
85531SOL     OW58489   1.779  10.447  11.544
85531SOL    HW158490   1.741  10.413  11.625
85531SOL    HW258491   1.845  10.382  11.519
85532SOL     OW58492  12.181  10.239  10.539
85532SOL    HW158493  12.192  10.233  10.444
85532SOL    HW258494  12.269  10.227  10.574
85533SOL     OW58495   1.803  11.630   9.095
85533SOL    HW158496   1.739  11.574   9.051
85533SOL    HW258497   1.885  11.581   9.091
85534SOL     OW58498   6.250   8.615   4.910
85534SOL    HW158499   6.285   8.553   4.845
85534SOL    HW258500   6.223   8.690   4.858
85535SOL     OW58501  13.045  11.685   7.233
85535SOL    HW158502  13.125  11.711   7.187
85535SOL    HW258503  13.073  11.614   7.290
85536SOL     OW58504   0.078  14.420   0.275
85536SOL    HW158505   0.160  14.465   0.298
85536SOL    HW258506   0.034  14.480   0.215
85537SOL     OW58507   9.294   0.890   9.260
85537SOL    HW158508   9.369   0.888   9.319
85537SOL    HW258509   9.328   0.927   9.179
85538SOL     OW58510   3.330   5.084  14.453
85538SOL    HW158511   3.297   5.083  14.543
85538SOL    HW258512   3.261   5.128  14.403
85539SOL     OW58513  11.939   1.856   3.555
85539SOL    HW158514  11.858   1.833   3.510
85539SOL    HW258515  11.911   1.901   3.634
85540SOL     OW58516   3.564  14.378   0.521
85540SOL    HW158517   3.636  14.442   0.523
85540SOL    HW258518   3.607  14.294   0.505
85541SOL     OW58519   5.039  12.456   6.188
85541SOL    HW158520   5.007  12.388   6.129
85541SOL    HW258521   5.044  12.415   6.274
85542SOL     OW58522   5.028   4.568  11.980
85542SOL    HW158523   5.101   4.596  12.035
85542SOL    HW258524   4.964   4.638  11.987
85543SOL     OW58525  12.204   4.457   4.491
85543SOL    HW158526  12.211   4.491   4.402
85543SOL    HW258527  12.158   4.374   4.482
85544SOL     OW58528   4.967   6.497   1.599
85544SOL    HW158529   5.024   6.420   1.596
85544SOL    HW258530   4.952   6.520   1.507
85545SOL     OW58531   1.327  14.434   0.426
85545SOL    HW158532   1.412  14.478   0.424
85545SOL    HW258533   1.283  14.465   0.347
85546SOL     OW58534   6.032   8.894  12.799
85546SOL    HW158535   6.036   8.803  12.830
85546SOL    HW258536   6.081   8.893  12.717
85547SOL     OW58537   8.547  14.002   5.022
85547SOL    HW158538   8.622  13.945   5.004
85547SOL    HW258539   8.585  14.078   5.066
85548SOL     OW58540  11.117   9.495   7.287
85548SOL    HW158541  11.083   9.516   7.200
85548SOL    HW258542  11.084   9.406   7.305
85549SOL     OW58543   9.884   0.783   3.856
85549SOL    HW158544   9.838   0.700   3.845
85549SOL    HW258545   9.889   0.795   3.951
85550SOL     OW58546   9.085   9.830  13.210
85550SOL    HW158547   9.158   9.769  13.222
85550SOL    HW258548   9.082   9.846  13.116
85551SOL     OW58549   0.639   8.040   6.560
85551SOL    HW158550   0.644   7.956   6.514
85551SOL    HW258551   0.559   8.080   6.527
85552SOL     OW58552  14.854   4.826   6.259
85552SOL    HW158553   0.069   4.787   6.264
85552SOL    HW258554  14.861   4.907   6.310
85553SOL     OW58555  11.513   0.106  10.074
85553SOL    HW158556  11.601   0.112  10.110
85553SOL    HW258557  11.516   0.158   9.993
85554SOL     OW58558   7.711  12.714   2.092
85554SOL    HW158559   7.728  12.781   2.026
85554SOL    HW258560   7.785  12.721   2.153
85555SOL     OW58561   0.785  12.465  13.438
85555SOL    HW158562   0.858  12.499  13.490
85555SOL    HW258563   0.750  12.393  13.491
85556SOL     OW58564  10.234   9.878   6.901
85556SOL    HW158565  10.207   9.815   6.969
85556SOL    HW258566  10.188   9.849   6.822
85557SOL     OW58567   3.219   8.212   8.107
85557SOL    HW158568   3.156   8.141   8.117
85557SOL    HW258569   3.224   8.226   8.012
85558SOL     OW58570  12.772   9.856   1.107
85558SOL    HW158571  12.853   9.836   1.155
85558SOL    HW258572  12.778   9.804   1.027
85559SOL     OW58573  14.624   6.528   1.656
85559SOL    HW158574  14.716   6.533   1.628
85559SOL    HW258575  14.596   6.441   1.631
85560SOL     OW58576   6.766  14.084  14.317
85560SOL    HW158577   6.796  14.003  14.274
85560SOL    HW258578   6.703  14.121  14.255
85561SOL     OW58579   3.576   5.577  14.059
85561SOL    HW158580   3.581   5.671  14.076
85561SOL    HW258581   3.482   5.559  14.055
85562SOL     OW58582   1.257   5.105   7.416
85562SOL    HW158583   1.321   5.102   7.344
85562SOL    HW258584   1.182   5.057   7.383
85563SOL     OW58585  11.676   9.767   2.346
85563SOL    HW158586  11.698   9.767   2.439
85563SOL    HW258587  11.611   9.697   2.337
85564SOL     OW58588   0.089  11.028   8.476
85564SOL    HW158589   0.008  10.990   8.509
85564SOL    HW258590   0.140  11.047   8.554
85565SOL     OW58591  10.410   8.986  13.142
85565SOL    HW158592  10.365   8.903  13.124
85565SOL    HW258593  10.467   8.999  13.067
85566SOL     OW58594   9.120  13.111  13.214
85566SOL    HW158595   9.082  13.199  13.209
85566SOL    HW258596   9.193  13.113  13.152
85567SOL     OW58597   2.633   5.003   5.834
85567SOL    HW158598   2.672   5.038   5.914
85567SOL    HW258599   2.541   5.027   5.840
85568SOL     OW58600   6.847   4.656   5.210
85568SOL    HW158601   6.808   4.743   5.196
85568SOL    HW258602   6.806   4.600   5.144
85569SOL     OW58603   4.122   5.229   1.079
85569SOL    HW158604   4.207   5.191   1.102
85569SOL    HW258605   4.125   5.237   0.983
85570SOL     OW58606   7.057  12.054   9.204
85570SOL    HW158607   6.990  12.031   9.139
85570SOL    HW258608   7.054  11.984   9.268
85571SOL     OW58609   7.570  14.725   7.481
85571SOL    HW158610   7.648  14.689   7.439
85571SOL    HW258611   7.550  14.664   7.552
85572SOL     OW58612   7.709  11.320  10.947
85572SOL    HW158613   7.705  11.408  10.984
85572SOL    HW258614   7.665  11.327  10.863
85573SOL     OW58615  11.375  13.966   7.695
85573SOL    HW158616  11.287  13.968   7.658
85573SOL    HW258617  11.386  13.876   7.725
85574SOL     OW58618  12.406   5.943   3.892
85574SOL    HW158619  12.476   5.967   3.830
85574SOL    HW258620  12.438   5.974   3.976
85575SOL     OW58621   5.465   0.886   3.702
85575SOL    HW158622   5.447   0.961   3.759
85575SOL    HW258623   5.383   0.873   3.653
85576SOL     OW58624   5.447   1.198   5.704
85576SOL    HW158625   5.498   1.269   5.665
85576SOL    HW258626   5.405   1.238   5.780
85577SOL     OW58627   2.369  12.990   2.846
85577SOL    HW158628   2.404  13.079   2.844
85577SOL    HW258629   2.447  12.934   2.844
85578SOL     OW58630  12.875   3.024  13.667
85578SOL    HW158631  12.962   3.027  13.628
85578SOL    HW258632  12.891   3.018  13.762
85579SOL     OW58633   5.702  11.279   2.914
85579SOL    HW158634   5.713  11.188   2.888
85579SOL    HW258635   5.704  11.328   2.832
85580SOL     OW58636   0.968  12.148  12.696
85580SOL    HW158637   0.957  12.145  12.601
85580SOL    HW258638   0.925  12.229  12.722
85581SOL     OW58639   5.495   6.398  14.770
85581SOL    HW158640   5.537   6.317  14.741
85581SOL    HW258641   5.568   6.456  14.794
85582SOL     OW58642   6.272   7.362  11.166
85582SOL    HW158643   6.237   7.273  11.172
85582SOL    HW258644   6.268   7.383  11.073
85583SOL     OW58645   2.037  12.845   9.024
85583SOL    HW158646   2.118  12.874   9.065
85583SOL    HW258647   1.968  12.876   9.083
85584SOL     OW58648  13.688  11.498  14.679
85584SOL    HW158649  13.670  11.461  14.765
85584SOL    HW258650  13.710  11.422  14.625
85585SOL     OW58651   1.339   3.483   0.220
85585SOL    HW158652   1.265   3.429   0.247
85585SOL    HW258653   1.413   3.422   0.218
85586SOL     OW58654  13.919   7.046   8.243
85586SOL    HW158655  13.865   7.066   8.166
85586SOL    HW258656  13.862   7.064   8.317
85587SOL     OW58657   2.383  13.931  10.523
85587SOL    HW158658   2.457  13.951  10.581
85587SOL    HW258659   2.393  13.838  10.502
85588SOL     OW58660   3.984  13.542   7.714
85588SOL    HW158661   4.029  13.539   7.799
85588SOL    HW258662   3.895  13.571   7.736
85589SOL     OW58663   9.831  12.995   8.754
85589SOL    HW158664   9.904  12.961   8.702
85589SOL    HW258665   9.872  13.033   8.831
85590SOL     OW58666  12.687   6.779   4.052
85590SOL    HW158667  12.728   6.861   4.027
85590SOL    HW258668  12.720   6.760   4.140
85591SOL     OW58669  14.146  12.020   7.277
85591SOL    HW158670  14.062  11.989   7.242
85591SOL    HW258671  14.187  12.064   7.202
85592SOL     OW58672   8.235   5.480   0.641
85592SOL    HW158673   8.279   5.404   0.681
85592SOL    HW258674   8.143   5.454   0.638
85593SOL     OW58675  10.771   6.967   1.403
85593SOL    HW158676  10.798   6.950   1.493
85593SOL    HW258677  10.842   7.020   1.367
85594SOL     OW58678  13.923   7.617   2.495
85594SOL    HW158679  13.841   7.631   2.447
85594SOL    HW258680  13.991   7.627   2.428
85595SOL     OW58681   4.128   7.122  12.128
85595SOL    HW158682   4.121   7.028  12.114
85595SOL    HW258683   4.162   7.156  12.045
85596SOL     OW58684   4.348  11.353   4.764
85596SOL    HW158685   4.413  11.366   4.833
85596SOL    HW258686   4.375  11.273   4.719
85597SOL     OW58687  10.189  11.726   7.192
85597SOL    HW158688  10.268  11.717   7.139
85597SOL    HW258689  10.136  11.650   7.168
85598SOL     OW58690   8.075   7.322   6.758
85598SOL    HW158691   8.112   7.260   6.694
85598SOL    HW258692   8.012   7.271   6.807
85599SOL     OW58693   4.087   0.364  10.542
85599SOL    HW158694   3.999   0.381  10.509
85599SOL    HW258695   4.075   0.296  10.608
85600SOL     OW58696   1.793  10.533  11.894
85600SOL    HW158697   1.789  10.530  11.990
85600SOL    HW258698   1.807  10.442  11.867
85601SOL     OW58699   0.185  12.991   5.958
85601SOL    HW158700   0.097  12.995   5.920
85601SOL    HW258701   0.234  13.058   5.911
85602SOL     OW58702   9.200   3.183   7.791
85602SOL    HW158703   9.276   3.125   7.784
85602SOL    HW258704   9.184   3.212   7.701
85603SOL     OW58705   0.120  10.481  11.868
85603SOL    HW158706   0.036  10.448  11.835
85603SOL    HW258707   0.159  10.527  11.794
85604SOL     OW58708  12.014   2.545   2.780
85604SOL    HW158709  12.056   2.629   2.763
85604SOL    HW258710  11.977   2.554   2.868
85605SOL     OW58711   5.456  10.585  10.289
85605SOL    HW158712   5.369  10.597  10.250
85605SOL    HW258713   5.470  10.491  10.288
85606SOL     OW58714   2.822   9.719   3.410
85606SOL    HW158715   2.790   9.793   3.358
85606SOL    HW258716   2.782   9.731   3.496
85607SOL     OW58717  12.067  13.650   2.978
85607SOL    HW158718  12.072  13.726   2.920
85607SOL    HW258719  11.976  13.649   3.007
85608SOL     OW58720   6.995   2.550  14.632
85608SOL    HW158721   7.050   2.601  14.573
85608SOL    HW258722   6.924   2.517  14.576
85609SOL     OW58723   5.277  14.587   9.157
85609SOL    HW158724   5.267  14.652   9.088
85609SOL    HW258725   5.196  14.593   9.208
85610SOL     OW58726  11.722   8.391   1.057
85610SOL    HW158727  11.685   8.370   0.971
85610SOL    HW258728  11.795   8.331   1.067
85611SOL     OW58729   2.974  12.330  11.567
85611SOL    HW158730   2.986  12.257  11.507
85611SOL    HW258731   2.893  12.372  11.537
85612SOL     OW58732   4.599  11.204  12.250
85612SOL    HW158733   4.602  11.234  12.159
85612SOL    HW258734   4.674  11.145  12.258
85613SOL     OW58735   7.674   2.364   5.194
85613SOL    HW158736   7.687   2.335   5.284
85613SOL    HW258737   7.670   2.459   5.199
85614SOL     OW58738  14.407  11.568  10.374
85614SOL    HW158739  14.430  11.537  10.461
85614SOL    HW258740  14.344  11.505  10.341
85615SOL     OW58741   7.400   9.782  13.177
85615SOL    HW158742   7.489   9.817  13.188
85615SOL    HW258743   7.358   9.795  13.262
85616SOL     OW58744  11.041  10.135   6.853
85616SOL    HW158745  10.999  10.221   6.865
85616SOL    HW258746  11.041  10.096   6.940
85617SOL     OW58747   0.761   3.614  10.791
85617SOL    HW158748   0.717   3.593  10.709
85617SOL    HW258749   0.716   3.692  10.824
85618SOL     OW58750   8.051   9.876  10.165
85618SOL    HW158751   8.019   9.958  10.201
85618SOL    HW258752   8.048   9.889  10.070
85619SOL     OW58753   2.016  13.416   7.091
85619SOL    HW158754   1.969  13.338   7.062
85619SOL    HW258755   2.101  13.410   7.048
85620SOL     OW58756   3.555  11.477   1.991
85620SOL    HW158757   3.560  11.495   2.085
85620SOL    HW258758   3.638  11.435   1.970
85621SOL     OW58759  11.436   1.811  14.412
85621SOL    HW158760  11.480   1.737  14.455
85621SOL    HW258761  11.507   1.874  14.395
85622SOL     OW58762   3.221  13.341   6.434
85622SOL    HW158763   3.199  13.272   6.371
85622SOL    HW258764   3.145  13.346   6.492
85623SOL     OW58765   2.620  13.209   9.921
85623SOL    HW158766   2.553  13.151   9.885
85623SOL    HW258767   2.648  13.262   9.846
85624SOL     OW58768   7.918   1.704   2.150
85624SOL    HW158769   7.940   1.709   2.243
85624SOL    HW258770   7.831   1.742   2.144
85625SOL     OW58771   4.076   0.290   3.429
85625SOL    HW158772   4.103   0.207   3.388
85625SOL    HW258773   4.090   0.275   3.523
85626SOL     OW58774   1.315   3.161  12.567
85626SOL    HW158775   1.250   3.231  12.559
85626SOL    HW258776   1.321   3.146  12.661
85627SOL     OW58777   9.806   3.428  11.947
85627SOL    HW158778   9.741   3.363  11.918
85627SOL    HW258779   9.763   3.512  11.932
85628SOL     OW58780  13.318  14.356   1.044
85628SOL    HW158781  13.257  14.287   1.016
85628SOL    HW258782  13.365  14.317   1.118
85629SOL     OW58783   4.614   1.687   4.224
85629SOL    HW158784   4.534   1.651   4.264
85629SOL    HW258785   4.639   1.760   4.280
85630SOL     OW58786   6.259   2.744   2.652
85630SOL    HW158787   6.211   2.705   2.579
85630SOL    HW258788   6.196   2.806   2.691
85631SOL     OW58789   5.086  10.105  10.101
85631SOL    HW158790   5.032  10.184  10.094
85631SOL    HW258791   5.112  10.102  10.193
85632SOL     OW58792  12.420   0.902  10.688
85632SOL    HW158793  12.482   0.974  10.699
85632SOL    HW258794  12.415   0.890  10.593
85633SOL     OW58795   6.601   3.458   1.878
85633SOL    HW158796   6.588   3.375   1.924
85633SOL    HW258797   6.615   3.433   1.786
85634SOL     OW58798   7.281  12.611   6.577
85634SOL    HW158799   7.289  12.519   6.552
85634SOL    HW258800   7.307  12.613   6.669
85635SOL     OW58801  11.691   3.066   4.516
85635SOL    HW158802  11.705   2.973   4.534
85635SOL    HW258803  11.600   3.071   4.486
85636SOL     OW58804  10.710   2.126  10.162
85636SOL    HW158805  10.776   2.142  10.095
85636SOL    HW258806  10.629   2.158  10.123
85637SOL     OW58807   5.601   0.325   7.909
85637SOL    HW158808   5.686   0.349   7.945
85637SOL    HW258809   5.617   0.245   7.859
85638SOL     OW58810   9.784   3.437   7.795
85638SOL    HW158811   9.821   3.348   7.796
85638SOL    HW258812   9.841   3.486   7.735
85639SOL     OW58813   5.859   7.640   5.449
85639SOL    HW158814   5.882   7.549   5.431
85639SOL    HW258815   5.923   7.668   5.514
85640SOL     OW58816   4.625   1.339   9.327
85640SOL    HW158817   4.580   1.364   9.246
85640SOL    HW258818   4.701   1.289   9.296
85641SOL     OW58819   6.408   7.747   3.010
85641SOL    HW158820   6.359   7.826   3.034
85641SOL    HW258821   6.468   7.776   2.941
85642SOL     OW58822  12.757  14.387  12.005
85642SOL    HW158823  12.670  14.347  12.009
85642SOL    HW258824  12.777  14.410  12.096
85643SOL     OW58825   4.704   3.910  10.432
85643SOL    HW158826   4.739   3.852  10.365
85643SOL    HW258827   4.639   3.857  10.478
85644SOL     OW58828  13.607   6.418   3.881
85644SOL    HW158829  13.542   6.375   3.825
85644SOL    HW258830  13.560   6.490   3.922
85645SOL     OW58831  10.973   8.716   5.061
85645SOL    HW158832  10.950   8.809   5.052
85645SOL    HW258833  10.888   8.671   5.060
85646SOL     OW58834   4.547   8.988   0.603
85646SOL    HW158835   4.470   8.991   0.660
85646SOL    HW258836   4.516   9.021   0.519
85647SOL     OW58837   6.922   0.583  10.796
85647SOL    HW158838   6.933   0.673  10.765
85647SOL    HW258839   6.904   0.532  10.717
85648SOL     OW58840   9.954   8.999  11.739
85648SOL    HW158841   9.923   9.017  11.650
85648SOL    HW258842  10.022   8.933  11.727
85649SOL     OW58843   0.156  14.595   7.952
85649SOL    HW158844   0.137  14.674   8.003
85649SOL    HW258845   0.158  14.625   7.861
85650SOL     OW58846  10.962   5.636   4.828
85650SOL    HW158847  10.881   5.629   4.778
85650SOL    HW258848  10.934   5.642   4.920
85651SOL     OW58849  13.383   3.038   4.620
85651SOL    HW158850  13.401   3.021   4.528
85651SOL    HW258851  13.302   2.990   4.638
85652SOL     OW58852   8.078   9.154  11.567
85652SOL    HW158853   8.011   9.103  11.611
85652SOL    HW258854   8.089   9.111  11.482
85653SOL     OW58855   3.160  13.867   4.278
85653SOL    HW158856   3.145  13.802   4.210
85653SOL    HW258857   3.137  13.950   4.237
85654SOL     OW58858   4.077  10.462   1.716
85654SOL    HW158859   4.137  10.418   1.776
85654SOL    HW258860   4.056  10.544   1.760
85655SOL     OW58861   4.047   4.145   1.636
85655SOL    HW158862   4.094   4.073   1.677
85655SOL    HW258863   4.095   4.162   1.555
85656SOL     OW58864  12.316   6.588   7.518
85656SOL    HW158865  12.251   6.588   7.588
85656SOL    HW258866  12.397   6.617   7.561
85657SOL     OW58867  14.062   0.386   9.055
85657SOL    HW158868  14.037   0.453   9.120
85657SOL    HW258869  14.141   0.421   9.015
85658SOL     OW58870   3.053  13.170   0.958
85658SOL    HW158871   3.035  13.116   0.881
85658SOL    HW258872   3.143  13.201   0.945
85659SOL     OW58873   6.659   7.686  13.895
85659SOL    HW158874   6.655   7.759  13.834
85659SOL    HW258875   6.569   7.675  13.925
85660SOL     OW58876  13.492   4.403  12.173
85660SOL    HW158877  13.534   4.486  12.196
85660SOL    HW258878  13.404   4.410  12.211
85661SOL     OW58879   8.916  10.124   1.197
85661SOL    HW158880   8.983  10.067   1.235
85661SOL    HW258881   8.888  10.180   1.270
85662SOL     OW58882   9.340  10.899   1.398
85662SOL    HW158883   9.427  10.933   1.375
85662SOL    HW258884   9.350  10.804   1.396
85663SOL     OW58885   3.290  11.226   8.459
85663SOL    HW158886   3.197  11.203   8.451
85663SOL    HW258887   3.335  11.142   8.468
85664SOL     OW58888   8.098  11.163  10.574
85664SOL    HW158889   8.174  11.106  10.571
85664SOL    HW258890   8.037  11.119  10.634
85665SOL     OW58891  11.075   1.649  11.533
85665SOL    HW158892  11.050   1.718  11.595
85665SOL    HW258893  11.126   1.587  11.585
85666SOL     OW58894   8.604  11.185  10.294
85666SOL    HW158895   8.631  11.262  10.345
85666SOL    HW258896   8.684  11.133  10.285
85667SOL     OW58897  12.289  14.434   0.839
85667SOL    HW158898  12.362  14.494   0.851
85667SOL    HW258899  12.257  14.452   0.751
85668SOL     OW58900   6.513   6.732  12.602
85668SOL    HW158901   6.567   6.809  12.586
85668SOL    HW258902   6.488   6.738  12.694
85669SOL     OW58903   2.269   1.691   6.456
85669SOL    HW158904   2.215   1.718   6.382
85669SOL    HW258905   2.306   1.772   6.490
85670SOL     OW58906   5.979   7.795   0.199
85670SOL    HW158907   6.004   7.884   0.175
85670SOL    HW258908   5.988   7.793   0.295
85671SOL     OW58909   2.407   1.858   1.466
85671SOL    HW158910   2.336   1.830   1.525
85671SOL    HW258911   2.487   1.828   1.510
85672SOL     OW58912   9.651   9.222   0.626
85672SOL    HW158913   9.617   9.141   0.588
85672SOL    HW258914   9.575   9.265   0.665
85673SOL     OW58915   9.152  10.112   4.895
85673SOL    HW158916   9.186  10.071   4.816
85673SOL    HW258917   9.097  10.045   4.935
85674SOL     OW58918   8.742   6.948   7.767
85674SOL    HW158919   8.723   6.863   7.806
85674SOL    HW258920   8.697   6.946   7.682
85675SOL     OW58921  13.512   6.766  11.672
85675SOL    HW158922  13.547   6.678  11.684
85675SOL    HW258923  13.580   6.824  11.706
85676SOL     OW58924   1.005  13.731   9.130
85676SOL    HW158925   1.009  13.733   9.225
85676SOL    HW258926   1.071  13.794   9.101
85677SOL     OW58927  12.050   8.459   0.460
85677SOL    HW158928  12.014   8.446   0.548
85677SOL    HW258929  11.985   8.514   0.416
85678SOL     OW58930   8.971   5.881   8.143
85678SOL    HW158931   8.951   5.801   8.093
85678SOL    HW258932   8.897   5.891   8.203
85679SOL     OW58933  13.209   7.007  13.296
85679SOL    HW158934  13.244   7.027  13.382
85679SOL    HW258935  13.221   6.913  13.286
85680SOL     OW58936   8.988   9.402   3.540
85680SOL    HW158937   9.053   9.471   3.552
85680SOL    HW258938   8.932   9.434   3.469
85681SOL     OW58939  11.372   6.993   6.561
85681SOL    HW158940  11.374   6.974   6.654
85681SOL    HW258941  11.300   7.055   6.550
85682SOL     OW58942   5.539   3.104   1.255
85682SOL    HW158943   5.623   3.068   1.284
85682SOL    HW258944   5.476   3.034   1.273
85683SOL     OW58945   4.348   7.165   5.692
85683SOL    HW158946   4.284   7.170   5.763
85683SOL    HW258947   4.412   7.101   5.722
85684SOL     OW58948  12.073   7.159   3.063
85684SOL    HW158949  12.013   7.134   2.992
85684SOL    HW258950  12.050   7.101   3.135
85685SOL     OW58951   1.905   5.803  12.587
85685SOL    HW158952   1.885   5.894  12.610
85685SOL    HW258953   1.983   5.781  12.638
85686SOL     OW58954   3.980  12.572   1.730
85686SOL    HW158955   4.038  12.505   1.768
85686SOL    HW258956   3.957  12.628   1.804
85687SOL     OW58957   6.749   3.603  14.054
85687SOL    HW158958   6.747   3.657  13.975
85687SOL    HW258959   6.830   3.628  14.099
85688SOL     OW58960  14.375   8.939   4.623
85688SOL    HW158961  14.430   9.017   4.625
85688SOL    HW258962  14.435   8.867   4.645
85689SOL     OW58963   1.078  14.314   0.485
85689SOL    HW158964   1.044  14.298   0.397
85689SOL    HW258965   1.165  14.353   0.470
85690SOL     OW58966  11.100   0.266  13.618
85690SOL    HW158967  11.059   0.333  13.564
85690SOL    HW258968  11.028   0.211  13.648
85691SOL     OW58969   3.784   2.628  14.201
85691SOL    HW158970   3.788   2.710  14.250
85691SOL    HW258971   3.874   2.598  14.197
85692SOL     OW58972  11.376   4.044  10.341
85692SOL    HW158973  11.325   4.089  10.274
85692SOL    HW258974  11.445   4.106  10.364
85693SOL     OW58975  12.341   1.384   3.228
85693SOL    HW158976  12.248   1.385   3.207
85693SOL    HW258977  12.345   1.358   3.320
85694SOL     OW58978  13.096   3.837  12.122
85694SOL    HW158979  13.005   3.814  12.104
85694SOL    HW258980  13.147   3.777  12.068
85695SOL     OW58981   1.023  14.273   4.488
85695SOL    HW158982   1.066  14.210   4.546
85695SOL    HW258983   1.095  14.321   4.447
85696SOL     OW58984   6.742   1.503   0.515
85696SOL    HW158985   6.699   1.509   0.600
85696SOL    HW258986   6.684   1.549   0.455
85697SOL     OW58987   5.052   7.835   7.953
85697SOL    HW158988   5.015   7.809   7.868
85697SOL    HW258989   5.019   7.769   8.014
85698SOL     OW58990   9.529   9.055   2.807
85698SOL    HW158991   9.548   9.128   2.749
85698SOL    HW258992   9.496   8.986   2.750
85699SOL     OW58993   6.516  12.160   8.614
85699SOL    HW158994   6.436  12.108   8.622
85699SOL    HW258995   6.548  12.142   8.526
85700SOL     OW58996   2.718  14.834   3.297
85700SOL    HW158997   2.792   0.022   3.287
85700SOL    HW258998   2.747  14.754   3.255
85701SOL     OW58999  14.587   3.979   9.556
85701SOL    HW159000  14.604   3.909   9.492
85701SOL    HW259001  14.498   3.961   9.587
85702SOL     OW59002   3.157   4.548   1.481
85702SOL    HW159003   3.224   4.583   1.423
85702SOL    HW259004   3.079   4.601   1.464
85703SOL     OW59005   8.191   4.719   2.623
85703SOL    HW159006   8.170   4.808   2.652
85703SOL    HW259007   8.285   4.722   2.604
85704SOL     OW59008  11.611   5.021   7.957
85704SOL    HW159009  11.636   5.035   7.866
85704SOL    HW259010  11.549   4.948   7.955
85705SOL     OW59011   3.632   4.589  10.641
85705SOL    HW159012   3.557   4.547  10.682
85705SOL    HW259013   3.643   4.545  10.557
85706SOL     OW59014   5.823  14.307  11.031
85706SOL    HW159015   5.786  14.269  10.950
85706SOL    HW259016   5.810  14.401  11.022
85707SOL     OW59017   9.199  13.387  11.177
85707SOL    HW159018   9.214  13.454  11.243
85707SOL    HW259019   9.231  13.306  11.218
85708SOL     OW59020   8.649   4.274   4.918
85708SOL    HW159021   8.606   4.324   4.849
85708SOL    HW259022   8.587   4.278   4.992
85709SOL     OW59023  11.903   4.307   1.011
85709SOL    HW159024  11.840   4.244   1.045
85709SOL    HW259025  11.857   4.349   0.938
85710SOL     OW59026   7.868   8.111  12.425
85710SOL    HW159027   7.780   8.106  12.387
85710SOL    HW259028   7.899   8.020  12.426
85711SOL     OW59029  12.684  12.855  12.651
85711SOL    HW159030  12.659  12.896  12.734
85711SOL    HW259031  12.672  12.923  12.586
85712SOL     OW59032  14.563   0.164   1.105
85712SOL    HW159033  14.597   0.140   1.191
85712SOL    HW259034  14.525   0.251   1.117
85713SOL     OW59035   5.655  11.735   3.526
85713SOL    HW159036   5.724  11.800   3.528
85713SOL    HW259037   5.591  11.769   3.463
85714SOL     OW59038   9.167   1.934  12.895
85714SOL    HW159039   9.112   1.897  12.826
85714SOL    HW259040   9.223   1.997  12.850
85715SOL     OW59041   2.228   5.218   8.567
85715SOL    HW159042   2.174   5.275   8.621
85715SOL    HW259043   2.239   5.139   8.619
85716SOL     OW59044   4.886  10.171  13.109
85716SOL    HW159045   4.834  10.219  13.174
85716SOL    HW259046   4.933  10.105  13.160
85717SOL     OW59047  14.128   4.935   1.196
85717SOL    HW159048  14.137   4.974   1.110
85717SOL    HW259049  14.033   4.937   1.213
85718SOL     OW59050   3.651   3.107  11.894
85718SOL    HW159051   3.664   3.093  11.800
85718SOL    HW259052   3.661   3.201  11.907
85719SOL     OW59053   5.130   7.026  11.910
85719SOL    HW159054   5.115   7.080  11.832
85719SOL    HW259055   5.128   6.936  11.877
85720SOL     OW59056   1.021   0.098   9.397
85720SOL    HW159057   1.040   0.180   9.352
85720SOL    HW259058   0.926   0.092   9.398
85721SOL     OW59059  12.544   0.722  11.651
85721SOL    HW159060  12.478   0.675  11.702
85721SOL    HW259061  12.586   0.655  11.598
85722SOL     OW59062   7.893  12.495   5.930
85722SOL    HW159063   7.949  12.546   5.872
85722SOL    HW259064   7.937  12.411   5.938
85723SOL     OW59065  14.772   6.765   4.750
85723SOL    HW159066  14.718   6.806   4.817
85723SOL    HW259067  14.806   6.839   4.698
85724SOL     OW59068   8.550   8.509  13.959
85724SOL    HW159069   8.541   8.598  13.994
85724SOL    HW259070   8.636   8.509  13.918
85725SOL     OW59071   0.683   1.746   0.025
85725SOL    HW159072   0.650   1.656   0.029
85725SOL    HW259073   0.638   1.791   0.096
85726SOL     OW59074  12.399  12.640  14.014
85726SOL    HW159075  12.432  12.670  13.929
85726SOL    HW259076  12.432  12.704  14.077
85727SOL     OW59077   0.167   9.714   0.688
85727SOL    HW159078   0.249   9.762   0.699
85727SOL    HW259079   0.193   9.628   0.654
85728SOL     OW59080   2.045   2.017   9.893
85728SOL    HW159081   2.022   2.081   9.826
85728SOL    HW259082   2.068   2.069   9.970
85729SOL     OW59083  13.551  13.905   6.530
85729SOL    HW159084  13.471  13.869   6.490
85729SOL    HW259085  13.605  13.828   6.548
85730SOL     OW59086  14.381   9.611   7.279
85730SOL    HW159087  14.457   9.562   7.247
85730SOL    HW259088  14.340   9.647   7.200
85731SOL     OW59089   3.896   7.873   9.029
85731SOL    HW159090   3.854   7.854   8.945
85731SOL    HW259091   3.825   7.907   9.084
85732SOL     OW59092   6.534   6.490  12.248
85732SOL    HW159093   6.466   6.446  12.197
85732SOL    HW259094   6.536   6.444  12.332
85733SOL     OW59095   1.625  12.063  13.934
85733SOL    HW159096   1.640  12.070  14.028
85733SOL    HW259097   1.537  12.099  13.921
85734SOL     OW59098  14.400  12.832  14.780
85734SOL    HW159099  14.331  12.856  14.718
85734SOL    HW259100  14.461  12.906  14.779
85735SOL     OW59101   4.459   2.609   2.531
85735SOL    HW159102   4.374   2.611   2.487
85735SOL    HW259103   4.506   2.685   2.496
85736SOL     OW59104   4.431   8.117   7.776
85736SOL    HW159105   4.401   8.029   7.755
85736SOL    HW259106   4.369   8.150   7.840
85737SOL     OW59107   6.030   9.785   3.571
85737SOL    HW159108   6.105   9.751   3.620
85737SOL    HW259109   5.957   9.783   3.632
85738SOL     OW59110   5.288  10.288   6.396
85738SOL    HW159111   5.294  10.219   6.330
85738SOL    HW259112   5.373  10.332   6.393
85739SOL     OW59113   8.721   3.491   0.538
85739SOL    HW159114   8.632   3.458   0.532
85739SOL    HW259115   8.715   3.568   0.595
85740SOL     OW59116  10.849   1.624   8.549
85740SOL    HW159117  10.833   1.676   8.470
85740SOL    HW259118  10.802   1.670   8.618
85741SOL     OW59119   3.602  10.571   0.210
85741SOL    HW159120   3.650  10.653   0.223
85741SOL    HW259121   3.578  10.544   0.299
85742SOL     OW59122   2.226  12.069  10.627
85742SOL    HW159123   2.184  12.049  10.711
85742SOL    HW259124   2.276  11.991  10.605
85743SOL     OW59125   9.479  11.325   0.485
85743SOL    HW159126   9.565  11.298   0.519
85743SOL    HW259127   9.449  11.249   0.435
85744SOL     OW59128  13.962  13.273   8.055
85744SOL    HW159129  13.873  13.252   8.082
85744SOL    HW259130  13.982  13.356   8.099
85745SOL     OW59131  12.240   9.195   0.737
85745SOL    HW159132  12.285   9.112   0.752
85745SOL    HW259133  12.150   9.179   0.765
85746SOL     OW59134   2.016   3.535  14.186
85746SOL    HW159135   2.031   3.495  14.101
85746SOL    HW259136   1.967   3.615  14.167
85747SOL     OW59137  12.761   8.582   0.894
85747SOL    HW159138  12.729   8.622   0.814
85747SOL    HW259139  12.691   8.597   0.958
85748SOL     OW59140   4.157   3.040  14.776
85748SOL    HW159141   4.233   3.004  14.822
85748SOL    HW259142   4.161   3.134  14.793
85749SOL     OW59143   4.804   9.721  13.016
85749SOL    HW159144   4.854   9.648  13.051
85749SOL    HW259145   4.729   9.680  12.971
85750SOL     OW59146  14.838   7.590  14.148
85750SOL    HW159147  14.818   7.573  14.240
85750SOL    HW259148   0.055   7.556  14.136
85751SOL     OW59149   1.701  12.910   4.363
85751SOL    HW159150   1.712  12.864   4.447
85751SOL    HW259151   1.774  12.970   4.359
85752SOL     OW59152   3.840  10.537  10.396
85752SOL    HW159153   3.864  10.558  10.306
85752SOL    HW259154   3.785  10.459  10.388
85753SOL     OW59155   0.073   8.779  11.126
85753SOL    HW159156   0.142   8.842  11.145
85753SOL    HW259157   0.058   8.733  11.209
85754SOL     OW59158  13.992  10.272  11.266
85754SOL    HW159159  14.078  10.314  11.270
85754SOL    HW259160  14.011  10.178  11.266
85755SOL     OW59161   1.826   1.458   9.638
85755SOL    HW159162   1.778   1.376   9.631
85755SOL    HW259163   1.790   1.501   9.716
85756SOL     OW59164   5.930   2.372   6.441
85756SOL    HW159165   5.893   2.443   6.493
85756SOL    HW259166   5.871   2.298   6.456
85757SOL     OW59167   0.503  12.605  10.577
85757SOL    HW159168   0.597  12.616  10.587
85757SOL    HW259169   0.480  12.656  10.500
85758SOL     OW59170   0.769   5.305   7.514
85758SOL    HW159171   0.836   5.249   7.553
85758SOL    HW259172   0.703   5.244   7.480
85759SOL     OW59173  12.224  12.630   9.520
85759SOL    HW159174  12.136  12.648   9.487
85759SOL    HW259175  12.210  12.567   9.591
85760SOL     OW59176  10.738  10.366   5.633
85760SOL    HW159177  10.714  10.275   5.652
85760SOL    HW259178  10.657  10.415   5.644
85761SOL     OW59179  13.712   4.024  12.823
85761SOL    HW159180  13.632   4.037  12.874
85761SOL    HW259181  13.705   4.087  12.751
85762SOL     OW59182  12.343   8.786   8.310
85762SOL    HW159183  12.378   8.741   8.233
85762SOL    HW259184  12.268   8.732   8.337
85763SOL     OW59185   3.640  12.232  10.088
85763SOL    HW159186   3.574  12.204  10.024
85763SOL    HW259187   3.588  12.265  10.162
85764SOL     OW59188   1.778  11.585   4.011
85764SOL    HW159189   1.870  11.610   4.004
85764SOL    HW259190   1.754  11.555   3.923
85765SOL     OW59191  11.421  14.466   9.993
85765SOL    HW159192  11.398  14.557   9.972
85765SOL    HW259193  11.460  14.432   9.913
85766SOL     OW59194   4.274  12.179   6.886
85766SOL    HW159195   4.337  12.233   6.838
85766SOL    HW259196   4.297  12.194   6.978
85767SOL     OW59197   8.021   2.084  12.048
85767SOL    HW159198   8.082   2.157  12.051
85767SOL    HW259199   7.953   2.107  12.111
85768SOL     OW59200   8.555  11.831  10.893
85768SOL    HW159201   8.475  11.796  10.930
85768SOL    HW259202   8.619  11.826  10.964
85769SOL     OW59203   1.746   8.411   1.854
85769SOL    HW159204   1.655   8.410   1.885
85769SOL    HW259205   1.745   8.356   1.776
85770SOL     OW59206  11.646  11.954  11.449
85770SOL    HW159207  11.698  11.934  11.371
85770SOL    HW259208  11.649  12.050  11.456
85771SOL     OW59209  14.771  14.385  14.550
85771SOL    HW159210  14.844  14.444  14.567
85771SOL    HW259211  14.710  14.438  14.499
85772SOL     OW59212   2.854   4.911   2.766
85772SOL    HW159213   2.821   4.988   2.718
85772SOL    HW259214   2.789   4.895   2.833
85773SOL     OW59215   9.357   9.805   0.830
85773SOL    HW159216   9.285   9.866   0.815
85773SOL    HW259217   9.346   9.777   0.920
85774SOL     OW59218  14.270   6.072   1.151
85774SOL    HW159219  14.180   6.089   1.178
85774SOL    HW259220  14.263   6.051   1.058
85775SOL     OW59221   2.566  13.588   1.302
85775SOL    HW159222   2.551  13.614   1.211
85775SOL    HW259223   2.494  13.629   1.351
85776SOL     OW59224   3.873   9.165   6.517
85776SOL    HW159225   3.913   9.198   6.598
85776SOL    HW259226   3.830   9.241   6.479
85777SOL     OW59227   0.778  14.528  10.149
85777SOL    HW159228   0.804  14.475  10.073
85777SOL    HW259229   0.683  14.519  10.152
85778SOL     OW59230  12.817  13.266   3.118
85778SOL    HW159231  12.748  13.316   3.074
85778SOL    HW259232  12.790  13.262   3.209
85779SOL     OW59233   4.788   2.008  12.527
85779SOL    HW159234   4.750   2.086  12.488
85779SOL    HW259235   4.712   1.954  12.552
85780SOL     OW59236  10.121   3.031   4.021
85780SOL    HW159237  10.178   3.079   3.960
85780SOL    HW259238  10.050   2.998   3.966
85781SOL     OW59239   0.766   7.210  12.481
85781SOL    HW159240   0.775   7.299  12.447
85781SOL    HW259241   0.705   7.167  12.420
85782SOL     OW59242   4.710   9.193   8.542
85782SOL    HW159243   4.620   9.194   8.573
85782SOL    HW259244   4.737   9.101   8.549
85783SOL     OW59245  11.873   1.548   8.048
85783SOL    HW159246  11.953   1.589   8.016
85783SOL    HW259247  11.818   1.620   8.078
85784SOL     OW59248  12.835   5.441  14.286
85784SOL    HW159249  12.820   5.458  14.193
85784SOL    HW259250  12.800   5.518  14.331
85785SOL     OW59251   2.186  11.790   8.915
85785SOL    HW159252   2.120  11.746   8.860
85785SOL    HW259253   2.198  11.730   8.989
85786SOL     OW59254   6.500   4.950   2.368
85786SOL    HW159255   6.507   4.987   2.281
85786SOL    HW259256   6.576   4.893   2.377
85787SOL     OW59257   1.936  11.584  13.890
85787SOL    HW159258   1.970  11.673  13.879
85787SOL    HW259259   1.999  11.529  13.844
85788SOL     OW59260  13.911   4.908   1.740
85788SOL    HW159261  13.884   4.832   1.688
85788SOL    HW259262  13.880   4.889   1.828
85789SOL     OW59263   6.469   0.066  10.765
85789SOL    HW159264   6.393   0.010  10.749
85789SOL    HW259265   6.434   0.141  10.815
85790SOL     OW59266   1.122  11.258  13.153
85790SOL    HW159267   1.062  11.332  13.165
85790SOL    HW259268   1.161  11.244  13.239
85791SOL     OW59269   4.634  13.331   2.484
85791SOL    HW159270   4.675  13.372   2.560
85791SOL    HW259271   4.595  13.250   2.518
85792SOL     OW59272   0.316   4.764   9.818
85792SOL    HW159273   0.343   4.820   9.891
85792SOL    HW259274   0.304   4.677   9.858
85793SOL     OW59275  10.451  12.466  12.800
85793SOL    HW159276  10.510  12.469  12.724
85793SOL    HW259277  10.485  12.395  12.854
85794SOL     OW59278   3.137  11.487  10.278
85794SOL    HW159279   3.142  11.551  10.349
85794SOL    HW259280   3.222  11.442  10.280
85795SOL     OW59281   6.389  14.368   2.346
85795SOL    HW159282   6.453  14.439   2.340
85795SOL    HW259283   6.420  14.302   2.284
85796SOL     OW59284   7.278   3.565  13.064
85796SOL    HW159285   7.366   3.589  13.092
85796SOL    HW259286   7.223   3.637  13.094
85797SOL     OW59287  10.966  14.354   7.153
85797SOL    HW159288  11.036  14.326   7.094
85797SOL    HW259289  10.928  14.272   7.186
85798SOL     OW59290  12.682   9.688   4.613
85798SOL    HW159291  12.757   9.729   4.656
85798SOL    HW259292  12.715   9.661   4.527
85799SOL     OW59293  11.402  10.987  14.176
85799SOL    HW159294  11.375  11.035  14.254
85799SOL    HW259295  11.353  10.905  14.181
85800SOL     OW59296   5.124   2.819  11.508
85800SOL    HW159297   5.093   2.868  11.584
85800SOL    HW259298   5.195   2.872  11.473
85801SOL     OW59299   7.260   4.135   7.035
85801SOL    HW159300   7.245   4.147   6.941
85801SOL    HW259301   7.202   4.199   7.077
85802SOL     OW59302  10.290   7.892   1.435
85802SOL    HW159303  10.200   7.911   1.464
85802SOL    HW259304  10.332   7.851   1.510
85803SOL     OW59305   4.252   6.724  11.922
85803SOL    HW159306   4.190   6.730  11.849
85803SOL    HW259307   4.327   6.677  11.886
85804SOL     OW59308   7.590   9.201   5.545
85804SOL    HW159309   7.655   9.161   5.487
85804SOL    HW259310   7.539   9.258   5.487
85805SOL     OW59311   4.756  12.256   8.490
85805SOL    HW159312   4.707  12.174   8.486
85805SOL    HW259313   4.822  12.241   8.557
85806SOL     OW59314  10.590  12.198  14.196
85806SOL    HW159315  10.600  12.285  14.158
85806SOL    HW259316  10.678  12.160  14.190
85807SOL     OW59317  13.035   7.355   0.440
85807SOL    HW159318  12.952   7.310   0.455
85807SOL    HW259319  13.022   7.401   0.357
85808SOL     OW59320  13.288   7.419   2.448
85808SOL    HW159321  13.250   7.410   2.536
85808SOL    HW259322  13.381   7.402   2.461
85809SOL     OW59323   6.532  12.118  11.140
85809SOL    HW159324   6.551  12.171  11.063
85809SOL    HW259325   6.617  12.107  11.183
85810SOL     OW59326   4.568   8.364  13.539
85810SOL    HW159327   4.542   8.346  13.449
85810SOL    HW259328   4.588   8.458  13.540
85811SOL     OW59329   1.560   8.808   8.731
85811SOL    HW159330   1.590   8.808   8.640
85811SOL    HW259331   1.597   8.888   8.769
85812SOL     OW59332   9.773   1.767   8.483
85812SOL    HW159333   9.785   1.858   8.508
85812SOL    HW259334   9.762   1.720   8.567
85813SOL     OW59335   8.324   0.275  13.766
85813SOL    HW159336   8.348   0.190  13.729
85813SOL    HW259337   8.383   0.286  13.841
85814SOL     OW59338  13.772   2.682  11.396
85814SOL    HW159339  13.753   2.640  11.313
85814SOL    HW259340  13.852   2.640  11.427
85815SOL     OW59341   4.475   5.735   2.193
85815SOL    HW159342   4.395   5.759   2.146
85815SOL    HW259343   4.446   5.711   2.281
85816SOL     OW59344   6.531  14.798   6.789
85816SOL    HW159345   6.446  14.769   6.822
85816SOL    HW259346   6.545  14.745   6.710
85817SOL     OW59347   3.797  12.964   2.455
85817SOL    HW159348   3.781  13.054   2.485
85817SOL    HW259349   3.710  12.923   2.455
85818SOL     OW59350   4.430   1.270   0.677
85818SOL    HW159351   4.425   1.186   0.722
85818SOL    HW259352   4.383   1.331   0.735
85819SOL     OW59353   3.438   2.873  12.402
85819SOL    HW159354   3.533   2.883  12.395
85819SOL    HW259355   3.426   2.791  12.449
85820SOL     OW59356  12.505  10.920  13.436
85820SOL    HW159357  12.571  10.876  13.382
85820SOL    HW259358  12.540  10.915  13.525
85821SOL     OW59359  12.503   6.717   1.486
85821SOL    HW159360  12.426   6.687   1.535
85821SOL    HW259361  12.493   6.812   1.482
85822SOL     OW59362  11.753  13.545   3.793
85822SOL    HW159363  11.712  13.629   3.816
85822SOL    HW259364  11.757  13.497   3.876
85823SOL     OW59365  14.623   2.658   1.185
85823SOL    HW159366  14.554   2.713   1.149
85823SOL    HW259367  14.577   2.593   1.238
85824SOL     OW59368   0.355   9.057   8.747
85824SOL    HW159369   0.336   9.044   8.840
85824SOL    HW259370   0.387   9.147   8.741
85825SOL     OW59371  13.025  14.311   5.586
85825SOL    HW159372  13.118  14.318   5.567
85825SOL    HW259373  12.983  14.369   5.522
85826SOL     OW59374   1.640  12.368  10.578
85826SOL    HW159375   1.596  12.294  10.621
85826SOL    HW259376   1.572  12.435  10.570
85827SOL     OW59377   2.346  11.646   9.408
85827SOL    HW159378   2.415  11.585   9.432
85827SOL    HW259379   2.386  11.705   9.345
85828SOL     OW59380   1.947  13.695   8.550
85828SOL    HW159381   2.040  13.708   8.531
85828SOL    HW259382   1.943  13.608   8.590
85829SOL     OW59383   2.065  14.088  10.704
85829SOL    HW159384   2.080  13.995  10.685
85829SOL    HW259385   2.092  14.133  10.624
85830SOL     OW59386   2.768   3.315   9.719
85830SOL    HW159387   2.681   3.311   9.680
85830SOL    HW259388   2.828   3.292   9.647
85831SOL     OW59389   2.803  11.447  12.284
85831SOL    HW159390   2.881  11.422  12.236
85831SOL    HW259391   2.775  11.529  12.244
85832SOL     OW59392   0.860   9.075   9.273
85832SOL    HW159393   0.816   9.148   9.317
85832SOL    HW259394   0.950   9.106   9.260
85833SOL     OW59395  14.662  12.831   3.186
85833SOL    HW159396  14.719  12.854   3.113
85833SOL    HW259397  14.698  12.878   3.261
85834SOL     OW59398   0.123   6.082  13.892
85834SOL    HW159399   0.079   6.163  13.919
85834SOL    HW259400   0.085   6.014  13.948
85835SOL     OW59401   2.245  11.872   0.891
85835SOL    HW159402   2.261  11.792   0.942
85835SOL    HW259403   2.211  11.934   0.955
85836SOL     OW59404  12.402   1.709  14.602
85836SOL    HW159405  12.377   1.632  14.654
85836SOL    HW259406  12.497   1.711  14.608
85837SOL     OW59407   3.906   5.977  10.999
85837SOL    HW159408   3.971   6.047  11.001
85837SOL    HW259409   3.923   5.926  11.078
85838SOL     OW59410   0.020   1.293  12.357
85838SOL    HW159411   0.069   1.255  12.285
85838SOL    HW259412  14.826   1.349  12.314
85839SOL     OW59413   2.487   3.286  10.008
85839SOL    HW159414   2.477   3.269  10.102
85839SOL    HW259415   2.575   3.324  10.000
85840SOL     OW59416   1.803   6.534   4.928
85840SOL    HW159417   1.841   6.558   4.844
85840SOL    HW259418   1.713   6.510   4.908
85841SOL     OW59419  12.297   0.832   9.875
85841SOL    HW159420  12.216   0.791   9.844
85841SOL    HW259421  12.327   0.884   9.801
85842SOL     OW59422   0.390   3.667  13.618
85842SOL    HW159423   0.319   3.725  13.646
85842SOL    HW259424   0.411   3.615  13.696
85843SOL     OW59425  10.574  14.153   4.138
85843SOL    HW159426  10.575  14.239   4.180
85843SOL    HW259427  10.574  14.091   4.211
85844SOL     OW59428  12.999   0.123   0.304
85844SOL    HW159429  12.988   0.184   0.231
85844SOL    HW259430  13.030   0.177   0.376
85845SOL     OW59431   7.542  13.744  10.633
85845SOL    HW159432   7.622  13.728  10.582
85845SOL    HW259433   7.527  13.838  10.625
85846SOL     OW59434   8.247   0.799   2.810
85846SOL    HW159435   8.239   0.890   2.785
85846SOL    HW259436   8.158   0.774   2.837
85847SOL     OW59437   3.788  11.376  10.463
85847SOL    HW159438   3.861  11.343  10.411
85847SOL    HW259439   3.820  11.376  10.553
85848SOL     OW59440  12.694   3.565   9.338
85848SOL    HW159441  12.606   3.537   9.360
85848SOL    HW259442  12.751   3.512   9.394
85849SOL     OW59443   1.170  10.610   5.226
85849SOL    HW159444   1.125  10.619   5.142
85849SOL    HW259445   1.217  10.527   5.219
85850SOL     OW59446   8.310   6.686   9.309
85850SOL    HW159447   8.250   6.757   9.286
85850SOL    HW259448   8.255   6.608   9.313
85851SOL     OW59449  11.511   2.257  13.124
85851SOL    HW159450  11.467   2.337  13.095
85851SOL    HW259451  11.496   2.193  13.055
85852SOL     OW59452   5.451   4.968   3.244
85852SOL    HW159453   5.364   4.956   3.281
85852SOL    HW259454   5.501   4.891   3.274
85853SOL     OW59455   4.675   4.203   7.340
85853SOL    HW159456   4.715   4.239   7.419
85853SOL    HW259457   4.590   4.169   7.370
85854SOL     OW59458   6.305  14.512   3.383
85854SOL    HW159459   6.237  14.476   3.441
85854SOL    HW259460   6.327  14.441   3.324
85855SOL     OW59461   9.275  14.630   2.676
85855SOL    HW159462   9.233  14.596   2.754
85855SOL    HW259463   9.260  14.725   2.680
85856SOL     OW59464   4.493  11.637   4.074
85856SOL    HW159465   4.539  11.718   4.096
85856SOL    HW259466   4.416  11.637   4.132
85857SOL     OW59467  10.570  13.462   2.092
85857SOL    HW159468  10.524  13.389   2.133
85857SOL    HW259469  10.595  13.429   2.006
85858SOL     OW59470  11.945   9.704   4.575
85858SOL    HW159471  11.940   9.794   4.606
85858SOL    HW259472  11.865   9.663   4.607
85859SOL     OW59473   1.173   8.550  13.316
85859SOL    HW159474   1.248   8.503  13.354
85859SOL    HW259475   1.127   8.587  13.392
85860SOL     OW59476   8.062   1.281   4.646
85860SOL    HW159477   8.012   1.205   4.614
85860SOL    HW259478   7.996   1.337   4.687
85861SOL     OW59479   5.647   7.026   2.706
85861SOL    HW159480   5.668   6.943   2.750
85861SOL    HW259481   5.551   7.027   2.700
85862SOL     OW59482   2.015  13.289   6.337
85862SOL    HW159483   2.024  13.270   6.244
85862SOL    HW259484   2.102  13.274   6.374
85863SOL     OW59485   2.714   8.585   2.936
85863SOL    HW159486   2.789   8.643   2.923
85863SOL    HW259487   2.752   8.500   2.957
85864SOL     OW59488  13.447   6.986   9.727
85864SOL    HW159489  13.402   7.050   9.672
85864SOL    HW259490  13.540   6.999   9.707
85865SOL     OW59491  12.662   8.987   7.879
85865SOL    HW159492  12.627   9.072   7.853
85865SOL    HW259493  12.658   8.934   7.799
85866SOL     OW59494   8.969   5.118   9.997
85866SOL    HW159495   9.046   5.068  10.022
85866SOL    HW259496   8.930   5.145  10.081
85867SOL     OW59497   2.915   9.156  10.761
85867SOL    HW159498   2.881   9.107  10.837
85867SOL    HW259499   2.842   9.158  10.699
85868SOL     OW59500   1.839  14.756   8.303
85868SOL    HW159501   1.767  14.811   8.335
85868SOL    HW259502   1.842  14.683   8.365
85869SOL     OW59503   4.045   2.551   8.666
85869SOL    HW159504   3.984   2.478   8.654
85869SOL    HW259505   4.033   2.576   8.758
85870SOL     OW59506  14.125  12.423  12.196
85870SOL    HW159507  14.155  12.493  12.254
85870SOL    HW259508  14.030  12.430  12.197
85871SOL     OW59509  13.245   0.240   8.019
85871SOL    HW159510  13.341   0.235   8.019
85871SOL    HW259511  13.217   0.163   7.970
85872SOL     OW59512   3.015   3.970   1.604
85872SOL    HW159513   2.929   3.998   1.574
85872SOL    HW259514   3.052   3.922   1.530
85873SOL     OW59515   3.094   9.785   0.866
85873SOL    HW159516   3.183   9.777   0.900
85873SOL    HW259517   3.083   9.711   0.807
85874SOL     OW59518   2.646   9.010  13.602
85874SOL    HW159519   2.604   8.940  13.552
85874SOL    HW259520   2.599   9.011  13.686
85875SOL     OW59521   0.285   9.309   6.420
85875SOL    HW159522   0.333   9.384   6.456
85875SOL    HW259523   0.260   9.337   6.332
85876SOL     OW59524   2.161   5.043   2.648
85876SOL    HW159525   2.254   5.067   2.652
85876SOL    HW259526   2.162   4.947   2.654
85877SOL     OW59527   6.133   1.846  12.966
85877SOL    HW159528   6.073   1.807  13.030
85877SOL    HW259529   6.218   1.807  12.986
85878SOL     OW59530   9.741   3.686   9.973
85878SOL    HW159531   9.714   3.685  10.065
85878SOL    HW259532   9.835   3.703   9.975
85879SOL     OW59533   9.691  10.756   7.500
85879SOL    HW159534   9.663  10.840   7.536
85879SOL    HW259535   9.766  10.730   7.554
85880SOL     OW59536   1.541   8.709  13.900
85880SOL    HW159537   1.531   8.642  13.833
85880SOL    HW259538   1.635   8.710  13.920
85881SOL     OW59539   5.681   9.071   2.904
85881SOL    HW159540   5.613   9.010   2.933
85881SOL    HW259541   5.668   9.079   2.810
85882SOL     OW59542   7.671   2.903   8.750
85882SOL    HW159543   7.607   2.834   8.734
85882SOL    HW259544   7.626   2.984   8.728
85883SOL     OW59545   2.767  11.203  12.016
85883SOL    HW159546   2.731  11.172  12.099
85883SOL    HW259547   2.754  11.298  12.019
85884SOL     OW59548   8.018  10.709   3.888
85884SOL    HW159549   7.984  10.794   3.859
85884SOL    HW259550   8.037  10.662   3.807
85885SOL     OW59551  14.599  12.684   0.794
85885SOL    HW159552  14.601  12.750   0.726
85885SOL    HW259553  14.579  12.732   0.874
85886SOL     OW59554   4.075   8.146  12.212
85886SOL    HW159555   4.095   8.238  12.194
85886SOL    HW259556   3.980   8.144  12.222
85887SOL     OW59557   3.891  13.267  12.239
85887SOL    HW159558   3.810  13.228  12.271
85887SOL    HW259559   3.863  13.347  12.195
85888SOL     OW59560   7.524  12.388   3.431
85888SOL    HW159561   7.560  12.345   3.354
85888SOL    HW259562   7.508  12.478   3.404
85889SOL     OW59563   3.610   4.181  11.217
85889SOL    HW159564   3.685   4.158  11.272
85889SOL    HW259565   3.534   4.163  11.271
85890SOL     OW59566  10.001   4.530  11.917
85890SOL    HW159567  10.050   4.455  11.951
85890SOL    HW259568  10.065   4.581  11.868
85891SOL     OW59569   1.523  12.173  10.706
85891SOL    HW159570   1.578  12.108  10.750
85891SOL    HW259571   1.440  12.171  10.753
85892SOL     OW59572  10.883   4.211  14.272
85892SOL    HW159573  10.918   4.138  14.323
85892SOL    HW259574  10.937   4.212  14.193
85893SOL     OW59575  10.747  14.652   0.188
85893SOL    HW159576  10.726  14.585   0.253
85893SOL    HW259577  10.727  14.611   0.104
85894SOL     OW59578  11.559   2.139  12.682
85894SOL    HW159579  11.510   2.213  12.717
85894SOL    HW259580  11.537   2.138  12.589
85895SOL     OW59581  11.492  11.088   6.494
85895SOL    HW159582  11.553  11.078   6.567
85895SOL    HW259583  11.533  11.041   6.422
85896SOL     OW59584  12.715   5.927   7.807
85896SOL    HW159585  12.701   6.018   7.833
85896SOL    HW259586  12.794   5.901   7.855
85897SOL     OW59587   1.862   4.904   1.151
85897SOL    HW159588   1.870   4.868   1.063
85897SOL    HW259589   1.837   4.995   1.138
85898SOL     OW59590  13.507   4.742   2.296
85898SOL    HW159591  13.553   4.825   2.282
85898SOL    HW259592  13.472   4.748   2.385
85899SOL     OW59593   8.953   5.349   5.764
85899SOL    HW159594   8.942   5.268   5.715
85899SOL    HW259595   8.865   5.387   5.768
85900SOL     OW59596  12.523   5.250  12.458
85900SOL    HW159597  12.543   5.266  12.550
85900SOL    HW259598  12.427   5.258  12.453
85901SOL     OW59599  12.718   1.462  11.304
85901SOL    HW159600  12.800   1.413  11.302
85901SOL    HW259601  12.652   1.398  11.330
85902SOL     OW59602  10.854   3.612  14.330
85902SOL    HW159603  10.949   3.620  14.332
85902SOL    HW259604  10.824   3.691  14.284
85903SOL     OW59605   5.492   0.547   7.159
85903SOL    HW159606   5.453   0.561   7.072
85903SOL    HW259607   5.499   0.635   7.196
85904SOL     OW59608   2.308   8.922  14.177
85904SOL    HW159609   2.253   9.000  14.184
85904SOL    HW259610   2.394   8.956  14.153
85905SOL     OW59611  13.641  14.578   4.099
85905SOL    HW159612  13.708  14.626   4.148
85905SOL    HW259613  13.621  14.633   4.024
85906SOL     OW59614  13.896  14.275   5.174
85906SOL    HW159615  13.980  14.261   5.132
85906SOL    HW259616  13.852  14.341   5.120
85907SOL     OW59617   4.410   3.116   4.234
85907SOL    HW159618   4.425   3.096   4.327
85907SOL    HW259619   4.332   3.172   4.234
85908SOL     OW59620   7.317   5.025  12.577
85908SOL    HW159621   7.397   5.047  12.530
85908SOL    HW259622   7.336   5.049  12.668
85909SOL     OW59623   9.926   1.964  11.884
85909SOL    HW159624   9.963   1.897  11.940
85909SOL    HW259625   9.945   1.934  11.795
85910SOL     OW59626  14.497   8.997   7.616
85910SOL    HW159627  14.564   8.929   7.612
85910SOL    HW259628  14.507   9.047   7.535
85911SOL     OW59629   5.752  13.566   2.980
85911SOL    HW159630   5.708  13.483   2.999
85911SOL    HW259631   5.761  13.567   2.884
85912SOL     OW59632   0.776  11.249   4.313
85912SOL    HW159633   0.848  11.222   4.370
85912SOL    HW259634   0.810  11.326   4.267
85913SOL     OW59635  12.947   9.464   4.622
85913SOL    HW159636  12.978   9.547   4.586
85913SOL    HW259637  12.860   9.452   4.584
85914SOL     OW59638   1.412  10.903   5.488
85914SOL    HW159639   1.453  10.853   5.558
85914SOL    HW259640   1.325  10.863   5.477
85915SOL     OW59641   8.736   0.973   4.697
85915SOL    HW159642   8.657   0.942   4.741
85915SOL    HW259643   8.710   1.053   4.653
85916SOL     OW59644   7.972   4.754  12.126
85916SOL    HW159645   7.938   4.802  12.201
85916SOL    HW259646   7.956   4.662  12.147
85917SOL     OW59647   3.353   8.103   3.905
85917SOL    HW159648   3.268   8.064   3.884
85917SOL    HW259649   3.399   8.105   3.821
85918SOL     OW59650   0.471   2.754   2.256
85918SOL    HW159651   0.405   2.738   2.323
85918SOL    HW259652   0.511   2.669   2.240
85919SOL     OW59653  11.363  14.385   0.579
85919SOL    HW159654  11.273  14.418   0.585
85919SOL    HW259655  11.354  14.291   0.564
85920SOL     OW59656   4.601   0.614  13.983
85920SOL    HW159657   4.532   0.574  14.036
85920SOL    HW259658   4.570   0.702  13.965
85921SOL     OW59659  14.480   2.901  14.380
85921SOL    HW159660  14.421   2.959  14.428
85921SOL    HW259661  14.548   2.959  14.345
85922SOL     OW59662   7.537  12.122   5.511
85922SOL    HW159663   7.443  12.127   5.529
85922SOL    HW259664   7.545  12.049   5.449
85923SOL     OW59665  10.937   2.130  14.772
85923SOL    HW159666  10.923   2.051  14.719
85923SOL    HW259667  11.030   2.130  14.792
85924SOL     OW59668   5.855  12.793   5.357
85924SOL    HW159669   5.911  12.870   5.350
85924SOL    HW259670   5.915  12.719   5.350
85925SOL     OW59671  13.453  14.854   0.556
85925SOL    HW159672  13.526  14.820   0.504
85925SOL    HW259673  13.377  14.845   0.500
85926SOL     OW59674  12.677   3.127   5.353
85926SOL    HW159675  12.726   3.191   5.405
85926SOL    HW259676  12.603   3.175   5.318
85927SOL     OW59677   7.419   0.899   0.329
85927SOL    HW159678   7.397   0.809   0.305
85927SOL    HW259679   7.421   0.947   0.246
85928SOL     OW59680  10.828   2.972   3.665
85928SOL    HW159681  10.741   2.983   3.627
85928SOL    HW259682  10.812   2.933   3.751
85929SOL     OW59683   6.597   0.999   6.491
85929SOL    HW159684   6.683   0.986   6.452
85929SOL    HW259685   6.615   1.014   6.584
85930SOL     OW59686  12.451  13.791   8.860
85930SOL    HW159687  12.544  13.814   8.864
85930SOL    HW259688  12.406  13.866   8.897
85931SOL     OW59689   9.199  10.266   6.312
85931SOL    HW159690   9.182  10.175   6.336
85931SOL    HW259691   9.118  10.295   6.269
85932SOL     OW59692   6.707   4.577  11.715
85932SOL    HW159693   6.662   4.608  11.794
85932SOL    HW259694   6.765   4.649  11.691
85933SOL     OW59695  13.677  13.537  14.303
85933SOL    HW159696  13.700  13.511  14.214
85933SOL    HW259697  13.760  13.539  14.350
85934SOL     OW59698   3.587   0.878   0.099
85934SOL    HW159699   3.528   0.803   0.094
85934SOL    HW259700   3.575   0.911   0.188
85935SOL     OW59701   1.099  12.835   0.221
85935SOL    HW159702   1.098  12.744   0.190
85935SOL    HW259703   1.164  12.835   0.292
85936SOL     OW59704  10.638  11.041   9.718
85936SOL    HW159705  10.641  11.103   9.646
85936SOL    HW259706  10.730  11.027   9.741
85937SOL     OW59707   6.837   7.968   6.441
85937SOL    HW159708   6.864   7.942   6.530
85937SOL    HW259709   6.794   7.889   6.406
85938SOL     OW59710  14.032  11.339  12.300
85938SOL    HW159711  14.035  11.265  12.360
85938SOL    HW259712  14.115  11.385  12.314
85939SOL     OW59713  12.889   7.081  13.962
85939SOL    HW159714  12.918   6.994  13.933
85939SOL    HW259715  12.968   7.120  14.001
85940SOL     OW59716  12.506   5.937   5.892
85940SOL    HW159717  12.520   5.943   5.986
85940SOL    HW259718  12.471   5.849   5.878
85941SOL     OW59719   8.580  11.568  11.532
85941SOL    HW159720   8.554  11.508  11.602
85941SOL    HW259721   8.610  11.646  11.578
85942SOL     OW59722   9.468   7.418   9.252
85942SOL    HW159723   9.551   7.422   9.204
85942SOL    HW259724   9.439   7.509   9.259
85943SOL     OW59725   6.659   6.615   0.282
85943SOL    HW159726   6.728   6.577   0.228
85943SOL    HW259727   6.660   6.708   0.262
85944SOL     OW59728   3.376  11.687  12.305
85944SOL    HW159729   3.406  11.773  12.274
85944SOL    HW259730   3.385  11.691  12.400
85945SOL     OW59731   1.924   2.323  14.760
85945SOL    HW159732   1.905   2.231  14.781
85945SOL    HW259733   1.883   2.336  14.674
85946SOL     OW59734   6.090   5.879   1.611
85946SOL    HW159735   6.146   5.856   1.538
85946SOL    HW259736   6.144   5.935   1.667
85947SOL     OW59737   4.851   2.181   1.890
85947SOL    HW159738   4.812   2.259   1.850
85947SOL    HW259739   4.809   2.174   1.976
85948SOL     OW59740   3.131   5.662   3.471
85948SOL    HW159741   3.170   5.733   3.522
85948SOL    HW259742   3.108   5.596   3.536
85949SOL     OW59743  14.646   6.104   9.893
85949SOL    HW159744  14.599   6.155   9.827
85949SOL    HW259745  14.700   6.043   9.841
85950SOL     OW59746  14.751  13.810  10.519
85950SOL    HW159747  14.768  13.727  10.562
85950SOL    HW259748  14.808  13.810  10.442
85951SOL     OW59749   7.903   4.496  12.200
85951SOL    HW159750   7.950   4.422  12.160
85951SOL    HW259751   7.854   4.456  12.272
85952SOL     OW59752   3.001  12.656  10.467
85952SOL    HW159753   2.997  12.608  10.384
85952SOL    HW259754   3.093  12.653  10.492
85953SOL     OW59755  10.763   8.369   4.323
85953SOL    HW159756  10.816   8.433   4.371
85953SOL    HW259757  10.675   8.406   4.325
85954SOL     OW59758   4.682  10.527   0.776
85954SOL    HW159759   4.643  10.440   0.771
85954SOL    HW259760   4.652  10.573   0.698
85955SOL     OW59761   9.246  10.670   2.094
85955SOL    HW159762   9.257  10.590   2.042
85955SOL    HW259763   9.335  10.704   2.105
85956SOL     OW59764  11.755   2.803   9.140
85956SOL    HW159765  11.702   2.814   9.061
85956SOL    HW259766  11.844   2.787   9.107
85957SOL     OW59767   4.773   0.916   6.675
85957SOL    HW159768   4.838   0.860   6.634
85957SOL    HW259769   4.733   0.862   6.743
85958SOL     OW59770   2.648   4.164   3.490
85958SOL    HW159771   2.580   4.120   3.439
85958SOL    HW259772   2.639   4.127   3.578
85959SOL     OW59773  14.247   3.181   3.022
85959SOL    HW159774  14.201   3.173   3.106
85959SOL    HW259775  14.177   3.188   2.957
85960SOL     OW59776   6.526   6.656   1.868
85960SOL    HW159777   6.595   6.713   1.834
85960SOL    HW259778   6.572   6.579   1.899
85961SOL     OW59779   8.098  14.451   7.796
85961SOL    HW159780   8.022  14.393   7.787
85961SOL    HW259781   8.062  14.539   7.786
85962SOL     OW59782  11.235   3.089   7.406
85962SOL    HW159783  11.291   3.063   7.333
85962SOL    HW259784  11.190   3.167   7.375
85963SOL     OW59785   5.497   5.740  14.791
85963SOL    HW159786   5.445   5.772  14.717
85963SOL    HW259787   5.492   5.811  14.855
85964SOL     OW59788  13.254   6.662   0.737
85964SOL    HW159789  13.270   6.655   0.642
85964SOL    HW259790  13.336   6.631   0.776
85965SOL     OW59791  13.739  10.835   3.360
85965SOL    HW159792  13.752  10.889   3.282
85965SOL    HW259793  13.775  10.750   3.337
85966SOL     OW59794   0.971   1.578   0.423
85966SOL    HW159795   0.903   1.604   0.485
85966SOL    HW259796   1.000   1.660   0.383
85967SOL     OW59797   9.488  14.610  11.497
85967SOL    HW159798   9.395  14.631  11.501
85967SOL    HW259799   9.498  14.565  11.413
85968SOL     OW59800   6.009   8.583  11.545
85968SOL    HW159801   6.059   8.515  11.500
85968SOL    HW259802   5.949   8.617  11.478
85969SOL     OW59803   6.800   6.047  12.842
85969SOL    HW159804   6.859   6.119  12.819
85969SOL    HW259805   6.810   5.985  12.770
85970SOL     OW59806   5.793   0.606  12.005
85970SOL    HW159807   5.852   0.642  11.939
85970SOL    HW259808   5.708   0.645  11.986
85971SOL     OW59809   5.292  14.604   1.202
85971SOL    HW159810   5.338  14.671   1.150
85971SOL    HW259811   5.329  14.612   1.290
85972SOL     OW59812  10.148   9.712  12.232
85972SOL    HW159813  10.224   9.688  12.179
85972SOL    HW259814  10.093   9.764  12.173
85973SOL     OW59815   2.668   2.434   8.732
85973SOL    HW159816   2.760   2.456   8.740
85973SOL    HW259817   2.622   2.507   8.774
85974SOL     OW59818   3.821  14.663  11.893
85974SOL    HW159819   3.771  14.686  11.971
85974SOL    HW259820   3.837  14.569  11.901
85975SOL     OW59821   7.634   9.054   9.886
85975SOL    HW159822   7.622   8.965   9.919
85975SOL    HW259823   7.615   9.048   9.793
85976SOL     OW59824   3.070   8.343   0.277
85976SOL    HW159825   3.153   8.368   0.238
85976SOL    HW259826   3.091   8.267   0.331
85977SOL     OW59827  14.524   9.619  10.079
85977SOL    HW159828  14.452   9.590  10.135
85977SOL    HW259829  14.486   9.620   9.991
85978SOL     OW59830   5.709  10.812  10.949
85978SOL    HW159831   5.725  10.718  10.952
85978SOL    HW259832   5.661  10.825  10.868
85979SOL     OW59833   4.475   7.277  14.819
85979SOL    HW159834   4.442   7.341  14.755
85979SOL    HW259835   4.396   7.240  14.859
85980SOL     OW59836   2.926   7.806   6.477
85980SOL    HW159837   2.976   7.795   6.397
85980SOL    HW259838   2.975   7.871   6.527
85981SOL     OW59839   9.287   2.406  11.123
85981SOL    HW159840   9.353   2.473  11.143
85981SOL    HW259841   9.335   2.340  11.074
85982SOL     OW59842   5.326   6.071  10.254
85982SOL    HW159843   5.393   6.043  10.191
85982SOL    HW259844   5.373   6.130  10.313
85983SOL     OW59845   7.611   6.370  12.238
85983SOL    HW159846   7.537   6.311  12.250
85983SOL    HW259847   7.575   6.444  12.188
85984SOL     OW59848  11.236  11.702  14.382
85984SOL    HW159849  11.326  11.710  14.352
85984SOL    HW259850  11.224  11.773  14.444
85985SOL     OW59851   2.544   2.063  10.779
85985SOL    HW159852   2.590   2.129  10.831
85985SOL    HW259853   2.608   2.035  10.713
85986SOL     OW59854  11.635   8.071  10.324
85986SOL    HW159855  11.698   8.075  10.396
85986SOL    HW259856  11.685   8.097  10.247
85987SOL     OW59857   1.689   0.303   3.939
85987SOL    HW159858   1.618   0.263   3.989
85987SOL    HW259859   1.750   0.231   3.921
85988SOL     OW59860  12.468   1.031  12.133
85988SOL    HW159861  12.520   1.059  12.208
85988SOL    HW259862  12.465   1.107  12.075
85989SOL     OW59863  12.688   9.125  14.552
85989SOL    HW159864  12.677   9.071  14.630
85989SOL    HW259865  12.694   9.062  14.480
85990SOL     OW59866   2.237   6.844   7.223
85990SOL    HW159867   2.214   6.774   7.162
85990SOL    HW259868   2.159   6.855   7.278
85991SOL     OW59869   9.768  11.462   5.924
85991SOL    HW159870   9.824  11.538   5.911
85991SOL    HW259871   9.749  11.461   6.018
85992SOL     OW59872   5.147   2.203   6.158
85992SOL    HW159873   5.122   2.233   6.071
85992SOL    HW259874   5.083   2.135   6.180
85993SOL     OW59875   9.845   0.762   1.754
85993SOL    HW159876   9.800   0.820   1.816
85993SOL    HW259877   9.936   0.792   1.754
85994SOL     OW59878   6.119   3.324  13.887
85994SOL    HW159879   6.060   3.381  13.839
85994SOL    HW259880   6.123   3.362  13.975
85995SOL     OW59881  12.640   1.705   1.106
85995SOL    HW159882  12.587   1.626   1.113
85995SOL    HW259883  12.730   1.673   1.101
85996SOL     OW59884   8.110   8.998   5.600
85996SOL    HW159885   8.124   8.956   5.515
85996SOL    HW259886   8.015   8.999   5.611
85997SOL     OW59887   9.581   6.096   6.564
85997SOL    HW159888   9.500   6.134   6.530
85997SOL    HW259889   9.596   6.142   6.647
85998SOL     OW59890   6.718  13.330   7.502
85998SOL    HW159891   6.759  13.414   7.482
85998SOL    HW259892   6.645  13.323   7.441
85999SOL     OW59893   4.697  10.270   3.817
85999SOL    HW159894   4.791  10.283   3.814
85999SOL    HW259895   4.672  10.255   3.725
86000SOL     OW59896   9.423   5.960  10.361
86000SOL    HW159897   9.389   5.931  10.276
86000SOL    HW259898   9.404   6.054  10.362
86001SOL     OW59899   0.763  12.804  14.838
86001SOL    HW159900   0.790  12.839   0.050
86001SOL    HW259901   0.720  12.722  14.858
86002SOL     OW59902  12.174  11.145   9.639
86002SOL    HW159903  12.115  11.122   9.567
86002SOL    HW259904  12.128  11.214   9.686
86003SOL     OW59905   4.542   3.347  10.117
86003SOL    HW159906   4.543   3.252  10.118
86003SOL    HW259907   4.608   3.373  10.181
86004SOL     OW59908   7.323  13.918  12.440
86004SOL    HW159909   7.316  14.013  12.428
86004SOL    HW259910   7.239  13.883  12.413
86005SOL     OW59911  13.502  12.520  13.711
86005SOL    HW159912  13.527  12.609  13.686
86005SOL    HW259913  13.559  12.499  13.785
86006SOL     OW59914   9.429   7.764   3.080
86006SOL    HW159915   9.507   7.785   3.131
86006SOL    HW259916   9.409   7.673   3.104
86007SOL     OW59917   8.096   1.426  10.429
86007SOL    HW159918   8.069   1.409  10.519
86007SOL    HW259919   8.192   1.417  10.431
86008SOL     OW59920  11.202  11.772   4.116
86008SOL    HW159921  11.223  11.773   4.210
86008SOL    HW259922  11.284  11.799   4.074
86009SOL     OW59923   1.198   2.914  14.302
86009SOL    HW159924   1.146   2.958  14.235
86009SOL    HW259925   1.138   2.852  14.343
86010SOL     OW59926   3.133   4.274   3.889
86010SOL    HW159927   3.217   4.313   3.913
86010SOL    HW259928   3.110   4.316   3.806
86011SOL     OW59929   8.139  13.554   2.945
86011SOL    HW159930   8.226  13.561   2.905
86011SOL    HW259931   8.096  13.484   2.896
86012SOL     OW59932  13.909  11.110   4.599
86012SOL    HW159933  13.976  11.177   4.613
86012SOL    HW259934  13.939  11.035   4.650
86013SOL     OW59935   0.848   8.428   8.672
86013SOL    HW159936   0.873   8.486   8.744
86013SOL    HW259937   0.767   8.467   8.637
86014SOL     OW59938  10.026   4.149  12.325
86014SOL    HW159939  10.042   4.069  12.276
86014SOL    HW259940  10.052   4.127  12.415
86015SOL     OW59941   1.421   9.748   4.111
86015SOL    HW159942   1.386   9.661   4.093
86015SOL    HW259943   1.394   9.800   4.035
86016SOL     OW59944  10.215   5.855   3.499
86016SOL    HW159945  10.157   5.780   3.488
86016SOL    HW259946  10.163   5.919   3.547
86017SOL     OW59947   4.509   7.251   9.430
86017SOL    HW159948   4.603   7.252   9.409
86017SOL    HW259949   4.487   7.343   9.444
86018SOL     OW59950  10.188   2.265   2.711
86018SOL    HW159951  10.235   2.224   2.783
86018SOL    HW259952  10.105   2.293   2.749
86019SOL     OW59953   2.965   3.165   6.976
86019SOL    HW159954   2.994   3.241   7.027
86019SOL    HW259955   2.918   3.202   6.901
86020SOL     OW59956  12.486   8.114  12.842
86020SOL    HW159957  12.526   8.140  12.925
86020SOL    HW259958  12.433   8.037  12.864
86021SOL     OW59959   7.992  14.151   0.927
86021SOL    HW159960   8.030  14.096   0.995
86021SOL    HW259961   8.050  14.139   0.851
86022SOL     OW59962  11.634   7.704  13.374
86022SOL    HW159963  11.650   7.786  13.423
86022SOL    HW259964  11.645   7.729  13.282
86023SOL     OW59965  12.552  13.944  11.422
86023SOL    HW159966  12.540  14.000  11.499
86023SOL    HW259967  12.503  13.988  11.353
86024SOL     OW59968   7.136  12.646  12.197
86024SOL    HW159969   7.215  12.594  12.212
86024SOL    HW259970   7.099  12.611  12.116
86025SOL     OW59971   1.563  12.394  12.253
86025SOL    HW159972   1.488  12.454  12.247
86025SOL    HW259973   1.640  12.450  12.244
86026SOL     OW59974  13.506  12.518   3.668
86026SOL    HW159975  13.492  12.565   3.586
86026SOL    HW259976  13.536  12.585   3.730
86027SOL     OW59977   4.958   8.774   3.367
86027SOL    HW159978   4.866   8.793   3.350
86027SOL    HW259979   5.005   8.816   3.295
86028SOL     OW59980   3.759  14.133   4.415
86028SOL    HW159981   3.798  14.219   4.431
86028SOL    HW259982   3.833  14.072   4.416
86029SOL     OW59983   5.796   1.613  11.799
86029SOL    HW159984   5.766   1.624  11.709
86029SOL    HW259985   5.890   1.597  11.791
86030SOL     OW59986   4.226   4.167   2.230
86030SOL    HW159987   4.152   4.185   2.171
86030SOL    HW259988   4.302   4.206   2.186
86031SOL     OW59989   4.274   3.177   0.333
86031SOL    HW159990   4.270   3.266   0.299
86031SOL    HW259991   4.360   3.171   0.374
86032SOL     OW59992   3.447   4.486   9.753
86032SOL    HW159993   3.425   4.404   9.709
86032SOL    HW259994   3.524   4.519   9.706
86033SOL     OW59995  11.700  11.041   9.980
86033SOL    HW159996  11.724  11.025  10.071
86033SOL    HW259997  11.690  10.954   9.941
86034SOL     OW59998  13.282  13.005   8.484
86034SOL    HW159999  13.223  12.956   8.541
86034SOL    HW260000  13.283  13.093   8.521
86035SOL     OW60001   2.163   1.991  14.414
86035SOL    HW160002   2.201   2.029  14.493
86035SOL    HW260003   2.194   2.046  14.342
86036SOL     OW60004   9.785   8.076  12.201
86036SOL    HW160005   9.749   8.138  12.138
86036SOL    HW260006   9.879   8.093  12.200
86037SOL     OW60007  13.262  11.322   1.200
86037SOL    HW160008  13.323  11.266   1.152
86037SOL    HW260009  13.206  11.360   1.133
86038SOL     OW60010   8.954  11.110  14.293
86038SOL    HW160011   8.939  11.203  14.277
86038SOL    HW260012   9.025  11.086  14.233
86039SOL     OW60013   3.110   5.002   8.308
86039SOL    HW160014   3.097   4.909   8.286
86039SOL    HW260015   3.201   5.020   8.285
86040SOL     OW60016   4.283  13.170   7.634
86040SOL    HW160017   4.226  13.126   7.571
86040SOL    HW260018   4.370  13.134   7.617
86041SOL     OW60019   3.240   3.371   9.544
86041SOL    HW160020   3.255   3.450   9.598
86041SOL    HW260021   3.322   3.322   9.551
86042SOL     OW60022   9.273  11.320  13.366
86042SOL    HW160023   9.323  11.397  13.393
86042SOL    HW260024   9.339  11.251  13.355
86043SOL     OW60025   5.929   1.228   0.683
86043SOL    HW160026   5.846   1.220   0.636
86043SOL    HW260027   5.913   1.295   0.749
86044SOL     OW60028   1.973  11.040   5.307
86044SOL    HW160029   2.035  10.975   5.275
86044SOL    HW260030   1.997  11.053   5.399
86045SOL     OW60031  12.499  11.919   0.741
86045SOL    HW160032  12.551  11.956   0.670
86045SOL    HW260033  12.504  11.985   0.811
86046SOL     OW60034  10.145  14.867   5.841
86046SOL    HW160035  10.083   0.047   5.892
86046SOL    HW260036  10.092  14.830   5.770
86047SOL     OW60037   6.285  14.497   0.058
86047SOL    HW160038   6.257  14.586   0.036
86047SOL    HW260039   6.336  14.506   0.138
86048SOL     OW60040   0.663  13.106  13.562
86048SOL    HW160041   0.641  13.141  13.475
86048SOL    HW260042   0.641  13.177  13.622
86049SOL     OW60043  11.260  12.366   7.583
86049SOL    HW160044  11.219  12.348   7.499
86049SOL    HW260045  11.349  12.395   7.562
86050SOL     OW60046   9.910   1.724   3.931
86050SOL    HW160047   9.905   1.702   3.838
86050SOL    HW260048   9.821   1.751   3.954
86051SOL     OW60049   3.568  13.090  10.171
86051SOL    HW160050   3.623  13.051  10.103
86051SOL    HW260051   3.629  13.110  10.242
86052SOL     OW60052   8.688   2.161  10.212
86052SOL    HW160053   8.681   2.069  10.234
86052SOL    HW260054   8.613   2.203  10.256
86053SOL     OW60055   9.322   8.479  12.347
86053SOL    HW160056   9.333   8.546  12.414
86053SOL    HW260057   9.357   8.519  12.267
86054SOL     OW60058   2.270   1.632   4.904
86054SOL    HW160059   2.358   1.603   4.926
86054SOL    HW260060   2.241   1.682   4.981
86055SOL     OW60061   0.337  11.399   1.625
86055SOL    HW160062   0.379  11.316   1.605
86055SOL    HW260063   0.364  11.418   1.715
86056SOL     OW60064   0.939   2.485  13.629
86056SOL    HW160065   0.872   2.534  13.582
86056SOL    HW260066   0.980   2.549  13.687
86057SOL     OW60067   0.902  14.694   3.577
86057SOL    HW160068   0.929  14.749   3.650
86057SOL    HW260069   0.918  14.604   3.607
86058SOL     OW60070   9.719   8.249   6.374
86058SOL    HW160071   9.679   8.293   6.299
86058SOL    HW260072   9.653   8.185   6.402
86059SOL     OW60073   1.056   6.974   8.926
86059SOL    HW160074   1.112   7.006   8.854
86059SOL    HW260075   1.056   6.879   8.915
86060SOL     OW60076   0.186   8.930   4.331
86060SOL    HW160077   0.200   8.850   4.382
86060SOL    HW260078   0.251   8.925   4.261
86061SOL     OW60079   8.059   3.617   8.218
86061SOL    HW160080   8.144   3.597   8.179
86061SOL    HW260081   8.011   3.661   8.148
86062SOL     OW60082  14.401  10.493   5.993
86062SOL    HW160083  14.355  10.410   5.989
86062SOL    HW260084  14.332  10.559   5.987
86063SOL     OW60085   0.261   6.897  13.795
86063SOL    HW160086   0.201   6.933  13.861
86063SOL    HW260087   0.217   6.913  13.712
86064SOL     OW60088   4.536  10.104   2.860
86064SOL    HW160089   4.467  10.077   2.920
86064SOL    HW260090   4.563  10.022   2.817
86065SOL     OW60091   2.519   2.174   7.247
86065SOL    HW160092   2.428   2.156   7.268
86065SOL    HW260093   2.515   2.228   7.168
86066SOL     OW60094   9.841  12.569   9.744
86066SOL    HW160095   9.827  12.477   9.768
86066SOL    HW260096   9.769  12.616   9.787
86067SOL     OW60097  14.868   7.730  13.307
86067SOL    HW160098   0.002   7.751  13.214
86067SOL    HW260099  14.784   7.684  13.315
86068SOL     OW60100   3.783   4.692   5.903
86068SOL    HW160101   3.695   4.729   5.899
86068SOL    HW260102   3.804   4.689   5.996
86069SOL     OW60103  12.476  13.520   1.626
86069SOL    HW160104  12.464  13.429   1.598
86069SOL    HW260105  12.433  13.572   1.558
86070SOL     OW60106   6.660   8.042  13.383
86070SOL    HW160107   6.724   8.072  13.449
86070SOL    HW260108   6.579   8.030  13.433
86071SOL     OW60109   3.223   2.043  11.418
86071SOL    HW160110   3.200   2.116  11.361
86071SOL    HW260111   3.311   2.018  11.391
86072SOL     OW60112  10.048   7.483   3.602
86072SOL    HW160113  10.021   7.459   3.690
86072SOL    HW260114   9.969   7.475   3.549
86073SOL     OW60115   9.283   4.810  13.015
86073SOL    HW160116   9.335   4.825  13.094
86073SOL    HW260117   9.231   4.890  13.006
86074SOL     OW60118   1.432  13.002   8.705
86074SOL    HW160119   1.484  12.953   8.641
86074SOL    HW260120   1.406  12.937   8.770
86075SOL     OW60121   4.048   9.919  13.089
86075SOL    HW160122   4.046   9.934  13.183
86075SOL    HW260123   4.097   9.994  13.054
86076SOL     OW60124  13.688   0.479   0.320
86076SOL    HW160125  13.733   0.454   0.401
86076SOL    HW260126  13.627   0.407   0.304
86077SOL     OW60127   7.723  12.527   3.854
86077SOL    HW160128   7.744  12.588   3.925
86077SOL    HW260129   7.696  12.447   3.898
86078SOL     OW60130   7.324   8.118  11.438
86078SOL    HW160131   7.392   8.150  11.498
86078SOL    HW260132   7.300   8.032  11.475
86079SOL     OW60133   5.148  14.163   3.491
86079SOL    HW160134   5.126  14.074   3.465
86079SOL    HW260135   5.155  14.159   3.586
86080SOL     OW60136  10.499   8.170   9.271
86080SOL    HW160137  10.488   8.133   9.184
86080SOL    HW260138  10.448   8.251   9.270
86081SOL     OW60139  10.840   7.312   2.646
86081SOL    HW160140  10.864   7.379   2.583
86081SOL    HW260141  10.746   7.323   2.659
86082SOL     OW60142   4.629   2.926  12.075
86082SOL    HW160143   4.712   2.956  12.111
86082SOL    HW260144   4.562   2.973  12.125
86083SOL     OW60145  14.189  12.678   5.275
86083SOL    HW160146  14.212  12.743   5.341
86083SOL    HW260147  14.128  12.724   5.217
86084SOL     OW60148   7.728  14.024   3.393
86084SOL    HW160149   7.647  14.001   3.347
86084SOL    HW260150   7.715  13.995   3.483
86085SOL     OW60151   0.925   3.597   9.796
86085SOL    HW160152   0.962   3.604   9.708
86085SOL    HW260153   0.932   3.685   9.832
86086SOL     OW60154  10.091   7.506   9.482
86086SOL    HW160155  10.131   7.522   9.396
86086SOL    HW260156  10.106   7.587   9.531
86087SOL     OW60157   1.518   6.056  12.477
86087SOL    HW160158   1.546   6.034  12.388
86087SOL    HW260159   1.585   6.116  12.510
86088SOL     OW60160  10.917   3.857   4.753
86088SOL    HW160161  10.918   3.827   4.661
86088SOL    HW260162  10.944   3.780   4.803
86089SOL     OW60163   1.362  10.013   9.159
86089SOL    HW160164   1.293   9.980   9.102
86089SOL    HW260165   1.442   9.975   9.125
86090SOL     OW60166  12.316   5.687   1.826
86090SOL    HW160167  12.266   5.761   1.790
86090SOL    HW260168  12.397   5.726   1.858
86091SOL     OW60169   7.573   8.401   8.935
86091SOL    HW160170   7.597   8.463   8.867
86091SOL    HW260171   7.525   8.332   8.890
86092SOL     OW60172   8.604   4.442  11.488
86092SOL    HW160173   8.682   4.451  11.435
86092SOL    HW260174   8.544   4.508  11.454
86093SOL     OW60175  12.706   5.651  10.704
86093SOL    HW160176  12.754   5.604  10.637
86093SOL    HW260177  12.619   5.665  10.666
86094SOL     OW60178   3.603   6.533   4.070
86094SOL    HW160179   3.518   6.493   4.056
86094SOL    HW260180   3.664   6.481   4.018
86095SOL     OW60181  13.930   1.995   3.259
86095SOL    HW160182  13.860   2.008   3.195
86095SOL    HW260183  13.998   2.057   3.233
86096SOL     OW60184   1.298  14.237   7.062
86096SOL    HW160185   1.272  14.163   7.008
86096SOL    HW260186   1.351  14.292   7.003
86097SOL     OW60187   4.543   5.989   2.259
86097SOL    HW160188   4.570   5.989   2.351
86097SOL    HW260189   4.548   5.897   2.233
86098SOL     OW60190   6.232   5.783  13.465
86098SOL    HW160191   6.295   5.727  13.510
86098SOL    HW260192   6.189   5.832  13.534
86099SOL     OW60193   5.113   2.869   0.006
86099SOL    HW160194   5.200   2.899   0.032
86099SOL    HW260195   5.112   2.776   0.028
86100SOL     OW60196   3.923   5.592   5.031
86100SOL    HW160197   3.911   5.609   5.124
86100SOL    HW260198   3.834   5.590   4.995
86101SOL     OW60199   7.936   6.285   7.078
86101SOL    HW160200   7.870   6.216   7.079
86101SOL    HW260201   7.886   6.367   7.085
86102SOL     OW60202  10.863   0.417   9.487
86102SOL    HW160203  10.846   0.451   9.575
86102SOL    HW260204  10.781   0.376   9.460
86103SOL     OW60205  10.787   4.131   0.937
86103SOL    HW160206  10.827   4.122   1.024
86103SOL    HW260207  10.703   4.174   0.954
86104SOL     OW60208   3.282  14.393  13.831
86104SOL    HW160209   3.192  14.363  13.819
86104SOL    HW260210   3.315  14.408  13.743
86105SOL     OW60211  13.626   2.491  13.666
86105SOL    HW160212  13.608   2.429  13.595
86105SOL    HW260213  13.565   2.563  13.652
86106SOL     OW60214   7.162   5.647   4.236
86106SOL    HW160215   7.115   5.646   4.152
86106SOL    HW260216   7.251   5.621   4.214
86107SOL     OW60217   2.406   7.372  12.096
86107SOL    HW160218   2.366   7.454  12.125
86107SOL    HW260219   2.342   7.305  12.119
86108SOL     OW60220  14.100   7.784  10.360
86108SOL    HW160221  14.046   7.716  10.319
86108SOL    HW260222  14.190   7.758  10.340
86109SOL     OW60223  11.389   3.737   1.685
86109SOL    HW160224  11.481   3.717   1.667
86109SOL    HW260225  11.386   3.752   1.780
86110SOL     OW60226  10.731   2.556   2.463
86110SOL    HW160227  10.659   2.573   2.403
86110SOL    HW260228  10.767   2.643   2.482
86111SOL     OW60229   1.486   6.706  14.509
86111SOL    HW160230   1.482   6.708  14.413
86111SOL    HW260231   1.399   6.676  14.536
86112SOL     OW60232   3.316   1.171   8.541
86112SOL    HW160233   3.411   1.176   8.528
86112SOL    HW260234   3.295   1.251   8.590
86113SOL     OW60235   8.716   5.004  12.812
86113SOL    HW160236   8.758   5.038  12.891
86113SOL    HW260237   8.784   4.951  12.770
86114SOL     OW60238   6.662   5.803   1.984
86114SOL    HW160239   6.622   5.831   1.901
86114SOL    HW260240   6.596   5.825   2.050
86115SOL     OW60241  11.075   4.294   3.081
86115SOL    HW160242  11.065   4.219   3.139
86115SOL    HW260243  11.014   4.359   3.116
86116SOL     OW60244   3.454  10.192   5.777
86116SOL    HW160245   3.361  10.198   5.755
86116SOL    HW260246   3.496  10.164   5.696
86117SOL     OW60247  12.704   6.952   2.195
86117SOL    HW160248  12.792   6.925   2.170
86117SOL    HW260249  12.647   6.913   2.128
86118SOL     OW60250  12.037   9.319  10.452
86118SOL    HW160251  11.980   9.259  10.500
86118SOL    HW260252  12.047   9.395  10.510
86119SOL     OW60253   4.921   1.741  13.242
86119SOL    HW160254   4.865   1.704  13.174
86119SOL    HW260255   4.863   1.797  13.294
86120SOL     OW60256   6.026   6.212   0.830
86120SOL    HW160257   5.968   6.139   0.852
86120SOL    HW260258   6.053   6.247   0.916
86121SOL     OW60259   8.856  14.363  13.666
86121SOL    HW160260   8.885  14.418  13.593
86121SOL    HW260261   8.774  14.403  13.696
86122SOL     OW60262   6.268   5.883   6.168
86122SOL    HW160263   6.302   5.909   6.254
86122SOL    HW260264   6.339   5.832   6.129
86123SOL     OW60265   6.204   3.628   9.753
86123SOL    HW160266   6.257   3.627   9.674
86123SOL    HW260267   6.167   3.540   9.759
86124SOL     OW60268   8.662   1.779  13.728
86124SOL    HW160269   8.608   1.847  13.688
86124SOL    HW260270   8.703   1.822  13.802
86125SOL     OW60271   7.421  11.873   1.396
86125SOL    HW160272   7.403  11.966   1.383
86125SOL    HW260273   7.484  11.851   1.327
86126SOL     OW60274   8.531   0.609  12.161
86126SOL    HW160275   8.569   0.691  12.130
86126SOL    HW260276   8.592   0.578  12.228
86127SOL     OW60277   6.273  11.981   3.995
86127SOL    HW160278   6.178  11.990   3.986
86127SOL    HW260279   6.308  12.018   3.914
86128SOL     OW60280   9.947   7.648   8.158
86128SOL    HW160281   9.921   7.676   8.071
86128SOL    HW260282  10.043   7.651   8.157
86129SOL     OW60283  14.656   5.352   4.443
86129SOL    HW160284  14.708   5.360   4.523
86129SOL    HW260285  14.613   5.267   4.450
86130SOL     OW60286   9.557  11.008   3.361
86130SOL    HW160287   9.563  11.101   3.381
86130SOL    HW260288   9.473  10.980   3.398
86131SOL     OW60289  13.000  12.180   3.405
86131SOL    HW160290  13.058  12.249   3.436
86131SOL    HW260291  12.915  12.223   3.396
86132SOL     OW60292  12.699  13.928   0.340
86132SOL    HW160293  12.696  13.851   0.283
86132SOL    HW260294  12.615  13.929   0.384
86133SOL     OW60295   9.435  12.779   8.495
86133SOL    HW160296   9.507  12.817   8.544
86133SOL    HW260297   9.394  12.717   8.556
86134SOL     OW60298   6.883  12.938   1.751
86134SOL    HW160299   6.819  12.902   1.814
86134SOL    HW260300   6.900  13.026   1.783
86135SOL     OW60301  13.645   3.308   1.447
86135SOL    HW160302  13.595   3.301   1.365
86135SOL    HW260303  13.698   3.386   1.436
86136SOL     OW60304   2.530   3.371   8.574
86136SOL    HW160305   2.504   3.381   8.665
86136SOL    HW260306   2.625   3.368   8.575
86137SOL     OW60307   9.778   7.639   8.788
86137SOL    HW160308   9.789   7.636   8.693
86137SOL    HW260309   9.818   7.722   8.814
86138SOL     OW60310   3.368   2.432   3.110
86138SOL    HW160311   3.411   2.371   3.050
86138SOL    HW260312   3.417   2.514   3.101
86139SOL     OW60313   5.130   7.735   3.023
86139SOL    HW160314   5.064   7.804   3.028
86139SOL    HW260315   5.214   7.781   3.031
86140SOL     OW60316   2.441  14.703   9.763
86140SOL    HW160317   2.508  14.642   9.795
86140SOL    HW260318   2.485  14.788   9.760
86141SOL     OW60319   3.640   8.065   2.219
86141SOL    HW160320   3.707   8.089   2.283
86141SOL    HW260321   3.557   8.085   2.262
86142SOL     OW60322  12.612  12.696  11.218
86142SOL    HW160323  12.657  12.666  11.296
86142SOL    HW260324  12.520  12.674  11.233
86143SOL     OW60325   1.810   3.567   0.151
86143SOL    HW160326   1.746   3.601   0.090
86143SOL    HW260327   1.851   3.493   0.104
86144SOL     OW60328   2.637   7.630   6.336
86144SOL    HW160329   2.687   7.686   6.276
86144SOL    HW260330   2.682   7.639   6.420
86145SOL     OW60331   2.642   8.021   5.574
86145SOL    HW160332   2.695   7.941   5.584
86145SOL    HW260333   2.629   8.029   5.480
86146SOL     OW60334   5.904  14.351  12.441
86146SOL    HW160335   5.972  14.340  12.508
86146SOL    HW260336   5.924  14.284  12.376
86147SOL     OW60337   4.793   2.816   0.051
86147SOL    HW160338   4.887   2.800   0.051
86147SOL    HW260339   4.758   2.752  14.861
86148SOL     OW60340  12.387   5.014   5.245
86148SOL    HW160341  12.354   4.968   5.168
86148SOL    HW260342  12.450   5.077   5.210
86149SOL     OW60343   6.166   5.834  14.067
86149SOL    HW160344   6.149   5.884  14.146
86149SOL    HW260345   6.248   5.788  14.084
86150SOL     OW60346   8.882   2.367  13.846
86150SOL    HW160347   8.899   2.455  13.879
86150SOL    HW260348   8.963   2.319  13.864
86151SOL     OW60349   5.101  11.918  14.727
86151SOL    HW160350   5.124  11.827  14.708
86151SOL    HW260351   5.012  11.928  14.692
86152SOL     OW60352  12.439  13.944   5.897
86152SOL    HW160353  12.423  13.854   5.871
86152SOL    HW260354  12.508  13.938   5.963
86153SOL     OW60355  12.644  13.458  14.445
86153SOL    HW160356  12.640  13.553  14.436
86153SOL    HW260357  12.710  13.443  14.513
86154SOL     OW60358  11.327   3.492   9.620
86154SOL    HW160359  11.278   3.570   9.646
86154SOL    HW260360  11.391   3.480   9.690
86155SOL     OW60361   8.390   9.755   4.080
86155SOL    HW160362   8.369   9.719   3.994
86155SOL    HW260363   8.321   9.820   4.096
86156SOL     OW60364  13.111   7.374   3.823
86156SOL    HW160365  13.114   7.311   3.895
86156SOL    HW260366  13.159   7.332   3.752
86157SOL     OW60367   2.147  13.031  10.269
86157SOL    HW160368   2.229  12.995  10.303
86157SOL    HW260369   2.084  13.016  10.339
86158SOL     OW60370   8.588   0.616   7.562
86158SOL    HW160371   8.583   0.710   7.579
86158SOL    HW260372   8.636   0.580   7.637
86159SOL     OW60373   6.469   9.791   9.390
86159SOL    HW160374   6.444   9.713   9.339
86159SOL    HW260375   6.386   9.835   9.406
86160SOL     OW60376   0.094   9.982   7.724
86160SOL    HW160377   0.158   9.984   7.795
86160SOL    HW260378   0.020   9.932   7.760
86161SOL     OW60379   4.808  10.676   3.137
86161SOL    HW160380   4.769  10.720   3.213
86161SOL    HW260381   4.866  10.609   3.174
86162SOL     OW60382   0.954   1.500   1.455
86162SOL    HW160383   1.038   1.536   1.430
86162SOL    HW260384   0.962   1.406   1.439
86163SOL     OW60385   8.855   0.026  13.695
86163SOL    HW160386   8.844  14.805  13.711
86163SOL    HW260387   8.870   0.064  13.782
86164SOL     OW60388  10.221   0.202  11.893
86164SOL    HW160389  10.311   0.170  11.885
86164SOL    HW260390  10.230   0.293  11.922
86165SOL     OW60391  10.670   4.664  12.664
86165SOL    HW160392  10.660   4.571  12.686
86165SOL    HW260393  10.731   4.665  12.591
86166SOL     OW60394   8.868   4.196   3.308
86166SOL    HW160395   8.911   4.117   3.342
86166SOL    HW260396   8.785   4.164   3.273
86167SOL     OW60397   7.755   8.415   2.306
86167SOL    HW160398   7.828   8.464   2.345
86167SOL    HW260399   7.679   8.472   2.317
86168SOL     OW60400  10.319   9.323   7.748
86168SOL    HW160401  10.255   9.315   7.819
86168SOL    HW260402  10.353   9.235   7.736
86169SOL     OW60403   8.845   4.619   2.772
86169SOL    HW160404   8.812   4.709   2.766
86169SOL    HW260405   8.819   4.590   2.859
86170SOL     OW60406   9.079   8.418  13.589
86170SOL    HW160407   9.061   8.512  13.596
86170SOL    HW260408   8.998   8.380  13.554
86171SOL     OW60409   3.807  12.027   9.234
86171SOL    HW160410   3.857  12.054   9.311
86171SOL    HW260411   3.863  11.964   9.189
86172SOL     OW60412   0.619   2.035   2.377
86172SOL    HW160413   0.690   1.991   2.424
86172SOL    HW260414   0.660   2.070   2.298
86173SOL     OW60415  13.048   7.285  10.829
86173SOL    HW160416  12.970   7.336  10.808
86173SOL    HW260417  13.099   7.286  10.748
86174SOL     OW60418  14.214   2.238  10.470
86174SOL    HW160419  14.279   2.279  10.412
86174SOL    HW260420  14.236   2.270  10.557
86175SOL     OW60421  11.673   5.569  10.467
86175SOL    HW160422  11.663   5.510  10.542
86175SOL    HW260423  11.642   5.517  10.393
86176SOL     OW60424   9.760  14.635   3.522
86176SOL    HW160425   9.842  14.586   3.523
86176SOL    HW260426   9.711  14.599   3.448
86177SOL     OW60427   1.014  14.102  10.791
86177SOL    HW160428   1.105  14.116  10.765
86177SOL    HW260429   0.965  14.170  10.744
86178SOL     OW60430   3.841  11.515   9.943
86178SOL    HW160431   3.845  11.452   9.871
86178SOL    HW260432   3.897  11.587   9.914
86179SOL     OW60433  12.738   8.889   0.338
86179SOL    HW160434  12.803   8.924   0.276
86179SOL    HW260435  12.670   8.956   0.340
86180SOL     OW60436  12.531   3.642  13.477
86180SOL    HW160437  12.549   3.609  13.389
86180SOL    HW260438  12.518   3.564  13.530
86181SOL     OW60439   1.436   4.879   5.297
86181SOL    HW160440   1.519   4.900   5.339
86181SOL    HW260441   1.451   4.794   5.256
86182SOL     OW60442  11.947   0.611   2.436
86182SOL    HW160443  11.957   0.700   2.402
86182SOL    HW260444  11.861   0.611   2.478
86183SOL     OW60445   6.606   4.480   1.708
86183SOL    HW160446   6.510   4.476   1.708
86183SOL    HW260447   6.633   4.394   1.739
86184SOL     OW60448  14.014  10.113   5.932
86184SOL    HW160449  13.978  10.175   5.995
86184SOL    HW260450  13.979  10.141   5.848
86185SOL     OW60451   6.673   5.961   2.773
86185SOL    HW160452   6.691   5.868   2.763
86185SOL    HW260453   6.758   6.004   2.761
86186SOL     OW60454   9.967   1.501   4.841
86186SOL    HW160455   9.942   1.584   4.882
86186SOL    HW260456   9.893   1.478   4.786
86187SOL     OW60457  11.734  10.239  10.834
86187SOL    HW160458  11.829  10.235  10.830
86187SOL    HW260459  11.716  10.317  10.888
86188SOL     OW60460   8.922   4.689   8.850
86188SOL    HW160461   8.861   4.638   8.797
86188SOL    HW260462   8.900   4.780   8.832
86189SOL     OW60463   7.203   6.630   7.661
86189SOL    HW160464   7.232   6.617   7.571
86189SOL    HW260465   7.114   6.595   7.664
86190SOL     OW60466   8.714   7.867   9.613
86190SOL    HW160467   8.771   7.924   9.562
86190SOL    HW260468   8.763   7.785   9.619
86191SOL     OW60469  12.147   7.237   5.740
86191SOL    HW160470  12.171   7.315   5.790
86191SOL    HW260471  12.199   7.166   5.778
86192SOL     OW60472   0.474   1.261   3.891
86192SOL    HW160473   0.512   1.338   3.849
86192SOL    HW260474   0.452   1.290   3.980
86193SOL     OW60475  13.842   5.117   8.621
86193SOL    HW160476  13.918   5.069   8.653
86193SOL    HW260477  13.872   5.207   8.613
86194SOL     OW60478  14.204   8.606   9.761
86194SOL    HW160479  14.161   8.544   9.702
86194SOL    HW260480  14.246   8.670   9.703
86195SOL     OW60481   1.548   7.583   9.153
86195SOL    HW160482   1.509   7.661   9.192
86195SOL    HW260483   1.545   7.599   9.058
86196SOL     OW60484   9.384   1.052   4.612
86196SOL    HW160485   9.421   1.134   4.644
86196SOL    HW260486   9.456   0.989   4.618
86197SOL     OW60487  11.917   2.927  12.504
86197SOL    HW160488  11.955   2.948  12.419
86197SOL    HW260489  11.878   3.010  12.533
86198SOL     OW60490  13.170   5.286  12.490
86198SOL    HW160491  13.237   5.337  12.443
86198SOL    HW260492  13.191   5.195  12.470
86199SOL     OW60493   4.673  13.596   8.815
86199SOL    HW160494   4.755  13.548   8.813
86199SOL    HW260495   4.643  13.596   8.724
86200SOL     OW60496  14.627   8.437   3.014
86200SOL    HW160497  14.659   8.373   2.951
86200SOL    HW260498  14.705   8.478   3.050
86201SOL     OW60499   8.424  11.993   0.137
86201SOL    HW160500   8.516  12.009   0.115
86201SOL    HW260501   8.399  12.066   0.194
86202SOL     OW60502  12.429   6.529  10.406
86202SOL    HW160503  12.444   6.624  10.405
86202SOL    HW260504  12.334   6.520  10.412
86203SOL     OW60505   3.865   3.859  14.008
86203SOL    HW160506   3.907   3.942  14.030
86203SOL    HW260507   3.919   3.823  13.938
86204SOL     OW60508   2.596   8.454   2.052
86204SOL    HW160509   2.590   8.478   2.145
86204SOL    HW260510   2.505   8.437   2.027
86205SOL     OW60511   1.364   0.018  12.322
86205SOL    HW160512   1.279  14.861  12.290
86205SOL    HW260513   1.389  14.827  12.389
86206SOL     OW60514  11.758  10.423  11.396
86206SOL    HW160515  11.821  10.382  11.336
86206SOL    HW260516  11.704  10.351  11.428
86207SOL     OW60517   0.452   7.595   4.923
86207SOL    HW160518   0.471   7.513   4.968
86207SOL    HW260519   0.356   7.599   4.919
86208SOL     OW60520   3.292  12.127   8.895
86208SOL    HW160521   3.225  12.077   8.942
86208SOL    HW260522   3.256  12.138   8.807
86209SOL     OW60523  13.030   7.712  13.664
86209SOL    HW160524  13.045   7.645  13.597
86209SOL    HW260525  12.940   7.697  13.693
86210SOL     OW60526  12.589   1.518  12.164
86210SOL    HW160527  12.588   1.574  12.087
86210SOL    HW260528  12.566   1.431  12.131
86211SOL     OW60529   0.478   8.811  11.888
86211SOL    HW160530   0.385   8.788  11.897
86211SOL    HW260531   0.522   8.726  11.880
86212SOL     OW60532  11.181   7.949   9.060
86212SOL    HW160533  11.207   7.947   8.968
86212SOL    HW260534  11.110   8.012   9.063
86213SOL     OW60535   8.762   1.099   8.422
86213SOL    HW160536   8.805   1.135   8.500
86213SOL    HW260537   8.802   1.012   8.411
86214SOL     OW60538   7.744   6.666   5.885
86214SOL    HW160539   7.671   6.604   5.881
86214SOL    HW260540   7.732   6.712   5.968
86215SOL     OW60541   3.269  12.575   3.263
86215SOL    HW160542   3.214  12.560   3.186
86215SOL    HW260543   3.352  12.531   3.242
86216SOL     OW60544   6.805   7.089   1.973
86216SOL    HW160545   6.867   7.037   2.025
86216SOL    HW260546   6.719   7.055   1.997
86217SOL     OW60547  10.369   4.431  13.960
86217SOL    HW160548  10.411   4.345  13.958
86217SOL    HW260549  10.283   4.415  13.999
86218SOL     OW60550   7.588  12.506   7.073
86218SOL    HW160551   7.592  12.579   7.011
86218SOL    HW260552   7.500  12.511   7.110
86219SOL     OW60553  13.787   5.439   9.643
86219SOL    HW160554  13.736   5.520   9.641
86219SOL    HW260555  13.868   5.460   9.596
86220SOL     OW60556  13.799  11.420   1.074
86220SOL    HW160557  13.726  11.482   1.069
86220SOL    HW260558  13.759  11.338   1.104
86221SOL     OW60559   5.088   1.935   3.773
86221SOL    HW160560   5.054   2.024   3.759
86221SOL    HW260561   5.155   1.925   3.705
86222SOL     OW60562  10.671  11.222   9.497
86222SOL    HW160563  10.751  11.202   9.448
86222SOL    HW260564  10.643  11.307   9.463
86223SOL     OW60565   3.448   2.337   3.819
86223SOL    HW160566   3.424   2.419   3.861
86223SOL    HW260567   3.469   2.278   3.892
86224SOL     OW60568   4.150  10.209   0.600
86224SOL    HW160569   4.151  10.299   0.634
86224SOL    HW260570   4.057  10.187   0.595
86225SOL     OW60571   7.123   2.671  10.185
86225SOL    HW160572   7.106   2.684  10.278
86225SOL    HW260573   7.186   2.739  10.163
86226SOL     OW60574   6.283  12.858  10.688
86226SOL    HW160575   6.352  12.924  10.688
86226SOL    HW260576   6.271  12.834  10.780
86227SOL     OW60577  12.180   8.762   9.281
86227SOL    HW160578  12.113   8.803   9.225
86227SOL    HW260579  12.202   8.680   9.237
86228SOL     OW60580   0.645   6.570   8.511
86228SOL    HW160581   0.627   6.522   8.430
86228SOL    HW260582   0.569   6.627   8.523
86229SOL     OW60583   6.776   6.645   3.511
86229SOL    HW160584   6.747   6.616   3.425
86229SOL    HW260585   6.707   6.703   3.541
86230SOL     OW60586   6.925   3.121   0.678
86230SOL    HW160587   6.974   3.114   0.596
86230SOL    HW260588   6.876   3.203   0.668
86231SOL     OW60589   9.421   3.703  13.699
86231SOL    HW160590   9.400   3.794  13.722
86231SOL    HW260591   9.481   3.711  13.624
86232SOL     OW60592   2.639   4.157  12.353
86232SOL    HW160593   2.733   4.154  12.339
86232SOL    HW260594   2.623   4.096  12.425
86233SOL     OW60595   6.613  12.717  13.181
86233SOL    HW160596   6.581  12.798  13.221
86233SOL    HW260597   6.708  12.727  13.177
86234SOL     OW60598   7.336   9.065   7.108
86234SOL    HW160599   7.351   9.089   7.016
86234SOL    HW260600   7.423   9.059   7.146
86235SOL     OW60601  13.676  14.287   6.320
86235SOL    HW160602  13.589  14.327   6.323
86235SOL    HW260603  13.718  14.317   6.401
86236SOL     OW60604   1.287   8.627   0.875
86236SOL    HW160605   1.257   8.567   0.807
86236SOL    HW260606   1.209   8.675   0.902
86237SOL     OW60607  14.080  12.281  13.397
86237SOL    HW160608  14.146  12.232  13.348
86237SOL    HW260609  14.085  12.370  13.361
86238SOL     OW60610   7.894   9.719   4.985
86238SOL    HW160611   7.904   9.672   4.902
86238SOL    HW260612   7.912   9.654   5.052
86239SOL     OW60613  13.530   2.874   9.865
86239SOL    HW160614  13.532   2.963   9.830
86239SOL    HW260615  13.565   2.883   9.954
86240SOL     OW60616   7.770  14.598   0.098
86240SOL    HW160617   7.712  14.527   0.124
86240SOL    HW260618   7.830  14.558   0.035
86241SOL     OW60619   6.700   0.993   1.196
86241SOL    HW160620   6.735   1.079   1.171
86241SOL    HW260621   6.691   0.945   1.114
86242SOL     OW60622   9.154   2.403   2.197
86242SOL    HW160623   9.070   2.424   2.155
86242SOL    HW260624   9.209   2.479   2.180
86243SOL     OW60625   8.872  14.308   9.267
86243SOL    HW160626   8.816  14.302   9.344
86243SOL    HW260627   8.944  14.365   9.294
86244SOL     OW60628  11.572  14.125   1.165
86244SOL    HW160629  11.562  14.185   1.239
86244SOL    HW260630  11.534  14.172   1.090
86245SOL     OW60631   4.371   9.883   2.982
86245SOL    HW160632   4.418   9.803   2.958
86245SOL    HW260633   4.349   9.872   3.074
86246SOL     OW60634  10.728   9.384   3.119
86246SOL    HW160635  10.809   9.419   3.155
86246SOL    HW260636  10.755   9.304   3.073
86247SOL     OW60637  13.550  12.449   0.990
86247SOL    HW160638  13.586  12.530   0.954
86247SOL    HW260639  13.458  12.469   1.006
86248SOL     OW60640  11.092  14.769   6.827
86248SOL    HW160641  11.073  14.855   6.791
86248SOL    HW260642  11.098  14.712   6.750
86249SOL     OW60643  14.803  10.584  13.141
86249SOL    HW160644  14.830  10.549  13.056
86249SOL    HW260645  14.751  10.513  13.180
86250SOL     OW60646   1.818   1.737   2.660
86250SOL    HW160647   1.858   1.650   2.659
86250SOL    HW260648   1.728   1.722   2.687
86251SOL     OW60649   5.509  12.661   0.422
86251SOL    HW160650   5.532  12.715   0.498
86251SOL    HW260651   5.443  12.711   0.376
86252SOL     OW60652  11.034   7.081  11.828
86252SOL    HW160653  11.037   7.176  11.837
86252SOL    HW260654  10.965   7.054  11.887
86253SOL     OW60655  13.168   7.424   2.683
86253SOL    HW160656  13.088   7.374   2.700
86253SOL    HW260657  13.224   7.406   2.758
86254SOL     OW60658  12.988   2.469  12.377
86254SOL    HW160659  12.945   2.553  12.390
86254SOL    HW260660  12.924   2.416  12.330
86255SOL     OW60661   0.605  14.469   6.749
86255SOL    HW160662   0.603  14.516   6.833
86255SOL    HW260663   0.678  14.408   6.758
86256SOL     OW60664   2.910   3.822   5.855
86256SOL    HW160665   2.876   3.746   5.902
86256SOL    HW260666   2.883   3.808   5.764
86257SOL     OW60667   1.904   3.001   0.698
86257SOL    HW160668   1.833   2.942   0.673
86257SOL    HW260669   1.875   3.040   0.781
86258SOL     OW60670  11.549  10.009   0.083
86258SOL    HW160671  11.548   9.970   0.170
86258SOL    HW260672  11.457  10.022   0.061
86259SOL     OW60673   9.859  10.363   0.950
86259SOL    HW160674   9.811  10.291   0.991
86259SOL    HW260675   9.896  10.325   0.870
86260SOL     OW60676   4.139   8.585   2.315
86260SOL    HW160677   4.071   8.553   2.256
86260SOL    HW260678   4.162   8.509   2.369
86261SOL     OW60679   2.123  10.625   4.116
86261SOL    HW160680   2.215  10.640   4.095
86261SOL    HW260681   2.099  10.698   4.174
86262SOL     OW60682   9.868  12.315  11.747
86262SOL    HW160683   9.782  12.351  11.768
86262SOL    HW260684   9.925  12.349  11.815
86263SOL     OW60685  11.929  12.565   0.513
86263SOL    HW160686  11.947  12.474   0.492
86263SOL    HW260687  11.906  12.606   0.430
86264SOL     OW60688  14.034   2.975   4.239
86264SOL    HW160689  14.081   2.897   4.210
86264SOL    HW260690  14.078   3.001   4.320
86265SOL     OW60691   9.054   8.083  11.925
86265SOL    HW160692   9.001   8.030  11.866
86265SOL    HW260693   9.137   8.096  11.878
86266SOL     OW60694  14.101   1.059   6.865
86266SOL    HW160695  14.076   1.083   6.776
86266SOL    HW260696  14.111   0.964   6.862
86267SOL     OW60697   9.857   0.906   7.063
86267SOL    HW160698   9.857   0.976   6.997
86267SOL    HW260699   9.807   0.835   7.023
86268SOL     OW60700   6.477   7.042  14.014
86268SOL    HW160701   6.517   6.966  14.056
86268SOL    HW260702   6.418   7.006  13.948
86269SOL     OW60703  11.266   5.883   2.830
86269SOL    HW160704  11.277   5.848   2.741
86269SOL    HW260705  11.203   5.955   2.819
86270SOL     OW60706   2.926  14.606   8.984
86270SOL    HW160707   3.015  14.631   8.962
86270SOL    HW260708   2.908  14.530   8.928
86271SOL     OW60709   6.722   1.345   2.703
86271SOL    HW160710   6.634   1.370   2.675
86271SOL    HW260711   6.750   1.416   2.760
86272SOL     OW60712   8.662   0.865   2.838
86272SOL    HW160713   8.623   0.779   2.852
86272SOL    HW260714   8.672   0.872   2.743
86273SOL     OW60715   5.426  13.957  12.831
86273SOL    HW160716   5.351  14.009  12.800
86273SOL    HW260717   5.495  14.021  12.848
86274SOL     OW60718   0.445  10.417  13.635
86274SOL    HW160719   0.401  10.356  13.575
86274SOL    HW260720   0.536  10.416  13.606
86275SOL     OW60721   8.151   6.919  14.666
86275SOL    HW160722   8.076   6.917  14.606
86275SOL    HW260723   8.222   6.956  14.615
86276SOL     OW60724   0.912   3.512   0.270
86276SOL    HW160725   0.919   3.546   0.182
86276SOL    HW260726   0.825   3.473   0.275
86277SOL     OW60727   1.417  10.353   6.527
86277SOL    HW160728   1.465  10.357   6.445
86277SOL    HW260729   1.464  10.289   6.580
86278SOL     OW60730  12.754   6.226   8.621
86278SOL    HW160731  12.674   6.188   8.586
86278SOL    HW260732  12.763   6.309   8.574
86279SOL     OW60733   9.938   3.120   8.682
86279SOL    HW160734  10.002   3.049   8.685
86279SOL    HW260735   9.901   3.123   8.771
86280SOL     OW60736   1.346   6.060  13.470
86280SOL    HW160737   1.417   5.998  13.452
86280SOL    HW260738   1.306   6.076  13.385
86281SOL     OW60739   4.821   0.158  11.686
86281SOL    HW160740   4.757   0.149  11.758
86281SOL    HW260741   4.893   0.208  11.724
86282SOL     OW60742   2.129   5.934  14.248
86282SOL    HW160743   2.148   5.973  14.333
86282SOL    HW260744   2.154   6.001  14.185
86283SOL     OW60745   6.319   1.395   6.559
86283SOL    HW160746   6.291   1.305   6.543
86283SOL    HW260747   6.408   1.386   6.593
86284SOL     OW60748   5.678  13.315   8.577
86284SOL    HW160749   5.601  13.298   8.631
86284SOL    HW260750   5.664  13.262   8.498
86285SOL     OW60751   8.184   7.284  12.171
86285SOL    HW160752   8.210   7.296  12.262
86285SOL    HW260753   8.200   7.369  12.130
86286SOL     OW60754   0.191  11.619  11.485
86286SOL    HW160755   0.254  11.587  11.550
86286SOL    HW260756   0.192  11.714  11.495
86287SOL     OW60757  12.411   3.684  13.016
86287SOL    HW160758  12.428   3.665  13.108
86287SOL    HW260759  12.409   3.598  12.974
86288SOL     OW60760   7.458  13.116  10.638
86288SOL    HW160761   7.447  13.183  10.705
86288SOL    HW260762   7.385  13.130  10.578
86289SOL     OW60763  10.101   2.652   2.163
86289SOL    HW160764  10.020   2.665   2.114
86289SOL    HW260765  10.110   2.557   2.172
86290SOL     OW60766  10.586   9.789   9.192
86290SOL    HW160767  10.639   9.768   9.268
86290SOL    HW260768  10.647   9.833   9.131
86291SOL     OW60769   4.581   4.704  14.668
86291SOL    HW160770   4.675   4.691  14.651
86291SOL    HW260771   4.570   4.800  14.669
86292SOL     OW60772   5.716   7.360   8.622
86292SOL    HW160773   5.653   7.419   8.581
86292SOL    HW260774   5.770   7.329   8.549
86293SOL     OW60775   7.645  13.117   9.177
86293SOL    HW160776   7.634  13.211   9.193
86293SOL    HW260777   7.556  13.082   9.174
86294SOL     OW60778   6.542  11.537   1.141
86294SOL    HW160779   6.600  11.613   1.151
86294SOL    HW260780   6.460  11.573   1.109
86295SOL     OW60781   6.097   6.521   4.916
86295SOL    HW160782   6.067   6.606   4.950
86295SOL    HW260783   6.034   6.499   4.848
86296SOL     OW60784   3.929   6.854   0.879
86296SOL    HW160785   3.947   6.876   0.971
86296SOL    HW260786   3.942   6.936   0.832
86297SOL     OW60787   5.835   7.053  12.212
86297SOL    HW160788   5.872   6.995  12.145
86297SOL    HW260789   5.834   7.140  12.171
86298SOL     OW60790   4.567   4.655   7.389
86298SOL    HW160791   4.547   4.730   7.445
86298SOL    HW260792   4.638   4.684   7.333
86299SOL     OW60793   6.908   9.629   9.243
86299SOL    HW160794   6.816   9.614   9.224
86299SOL    HW260795   6.909   9.655   9.336
86300SOL     OW60796   8.712   8.309  13.198
86300SOL    HW160797   8.690   8.217  13.182
86300SOL    HW260798   8.646   8.358  13.149
86301SOL     OW60799   8.644   2.615   3.127
86301SOL    HW160800   8.558   2.649   3.103
86301SOL    HW260801   8.669   2.664   3.206
86302SOL     OW60802   2.227   3.110   6.676
86302SOL    HW160803   2.307   3.154   6.647
86302SOL    HW260804   2.175   3.100   6.596
86303SOL     OW60805   4.857   4.207   1.130
86303SOL    HW160806   4.853   4.135   1.066
86303SOL    HW260807   4.951   4.223   1.141
86304SOL     OW60808   6.067   0.029   7.620
86304SOL    HW160809   6.149   0.073   7.640
86304SOL    HW260810   5.999   0.091   7.647
86305SOL     OW60811   5.788   7.090   0.942
86305SOL    HW160812   5.850   7.117   1.009
86305SOL    HW260813   5.832   7.108   0.859
86306SOL     OW60814  13.391  11.825  14.719
86306SOL    HW160815  13.400  11.730  14.724
86306SOL    HW260816  13.311  11.839  14.668
86307SOL     OW60817   2.467   4.809   4.462
86307SOL    HW160818   2.388   4.823   4.515
86307SOL    HW260819   2.443   4.838   4.374
86308SOL     OW60820  14.713   2.084  10.396
86308SOL    HW160821  14.745   2.104  10.484
86308SOL    HW260822  14.634   2.031  10.410
86309SOL     OW60823  10.262   4.807   6.605
86309SOL    HW160824  10.337   4.762   6.567
86309SOL    HW260825  10.220   4.740   6.660
86310SOL     OW60826  14.509  14.553  11.167
86310SOL    HW160827  14.535  14.644  11.178
86310SOL    HW260828  14.413  14.556  11.167
86311SOL     OW60829   1.013   0.315  12.228
86311SOL    HW160830   1.065   0.392  12.205
86311SOL    HW260831   0.922   0.346  12.224
86312SOL     OW60832   7.445   2.462   4.237
86312SOL    HW160833   7.400   2.524   4.180
86312SOL    HW260834   7.426   2.493   4.326
86313SOL     OW60835   4.354   7.461   0.214
86313SOL    HW160836   4.294   7.420   0.277
86313SOL    HW260837   4.442   7.439   0.247
86314SOL     OW60838   0.300  14.337   0.783
86314SOL    HW160839   0.341  14.412   0.825
86314SOL    HW260840   0.354  14.262   0.809
86315SOL     OW60841   9.676   8.742   8.690
86315SOL    HW160842   9.596   8.699   8.721
86315SOL    HW260843   9.653   8.774   8.603
86316SOL     OW60844   6.476   1.614   5.834
86316SOL    HW160845   6.536   1.593   5.905
86316SOL    HW260846   6.459   1.530   5.791
86317SOL     OW60847   7.682  11.270   3.316
86317SOL    HW160848   7.696  11.176   3.327
86317SOL    HW260849   7.756  11.311   3.361
86318SOL     OW60850   8.240  11.664  13.422
86318SOL    HW160851   8.232  11.717  13.501
86318SOL    HW260852   8.284  11.720  13.358
86319SOL     OW60853   8.475   9.228   8.924
86319SOL    HW160854   8.488   9.306   8.871
86319SOL    HW260855   8.509   9.157   8.870
86320SOL     OW60856   9.968   6.183   4.014
86320SOL    HW160857  10.014   6.178   4.098
86320SOL    HW260858  10.039   6.192   3.950
86321SOL     OW60859  12.958   1.494   1.441
86321SOL    HW160860  13.000   1.451   1.515
86321SOL    HW260861  12.865   1.473   1.451
86322SOL     OW60862   7.939   7.207   1.299
86322SOL    HW160863   7.859   7.239   1.340
86322SOL    HW260864   7.935   7.238   1.209
86323SOL     OW60865   8.007   9.799  11.769
86323SOL    HW160866   8.074   9.735  11.792
86323SOL    HW260867   7.924   9.751  11.776
86324SOL     OW60868   0.998   2.121   2.491
86324SOL    HW160869   1.029   2.067   2.418
86324SOL    HW260870   0.971   2.203   2.450
86325SOL     OW60871   0.380  10.717   6.109
86325SOL    HW160872   0.427  10.703   6.191
86325SOL    HW260873   0.316  10.785   6.130
86326SOL     OW60874   3.420  10.719  14.426
86326SOL    HW160875   3.458  10.785  14.484
86326SOL    HW260876   3.459  10.637  14.455
86327SOL     OW60877  13.053  11.466   6.256
86327SOL    HW160878  12.979  11.520   6.230
86327SOL    HW260879  13.130  11.516   6.227
86328SOL     OW60880   2.954   3.453   4.712
86328SOL    HW160881   2.927   3.545   4.716
86328SOL    HW260882   2.970   3.437   4.619
86329SOL     OW60883   5.222   3.780   4.489
86329SOL    HW160884   5.199   3.733   4.409
86329SOL    HW260885   5.141   3.782   4.540
86330SOL     OW60886   9.048   7.597  11.526
86330SOL    HW160887   9.113   7.543  11.571
86330SOL    HW260888   9.065   7.686  11.557
86331SOL     OW60889   0.520   0.380   8.077
86331SOL    HW160890   0.578   0.317   8.120
86331SOL    HW260891   0.512   0.451   8.141
86332SOL     OW60892   0.866   1.065   7.547
86332SOL    HW160893   0.857   0.986   7.600
86332SOL    HW260894   0.791   1.062   7.488
86333SOL     OW60895  14.744   1.733   5.204
86333SOL    HW160896  14.759   1.828   5.199
86333SOL    HW260897  14.794   1.697   5.132
86334SOL     OW60898   5.232   9.767   8.787
86334SOL    HW160899   5.247   9.708   8.713
86334SOL    HW260900   5.192   9.844   8.749
86335SOL     OW60901  14.836  13.707   3.678
86335SOL    HW160902   0.059  13.713   3.677
86335SOL    HW260903  14.815  13.648   3.605
86336SOL     OW60904  13.371   1.982   9.313
86336SOL    HW160905  13.296   1.993   9.372
86336SOL    HW260906  13.384   2.069   9.275
86337SOL     OW60907   6.525   0.566   3.275
86337SOL    HW160908   6.438   0.539   3.244
86337SOL    HW260909   6.577   0.576   3.195
86338SOL     OW60910   5.348   7.789   8.854
86338SOL    HW160911   5.394   7.709   8.831
86338SOL    HW260912   5.344   7.839   8.773
86339SOL     OW60913   0.907   8.241  14.196
86339SOL    HW160914   0.920   8.252  14.290
86339SOL    HW260915   0.991   8.265  14.157
86340SOL     OW60916  11.219   1.797   5.898
86340SOL    HW160917  11.181   1.710   5.895
86340SOL    HW260918  11.169   1.842   5.966
86341SOL     OW60919   8.463   3.837   0.984
86341SOL    HW160920   8.551   3.861   0.955
86341SOL    HW260921   8.404   3.873   0.918
86342SOL     OW60922   1.707   9.995   7.504
86342SOL    HW160923   1.749  10.046   7.434
86342SOL    HW260924   1.632   9.954   7.462
86343SOL     OW60925   8.121   8.732   9.111
86343SOL    HW160926   8.068   8.749   9.033
86343SOL    HW260927   8.078   8.780   9.181
86344SOL     OW60928   7.329   5.529   4.663
86344SOL    HW160929   7.248   5.493   4.699
86344SOL    HW260930   7.327   5.505   4.570
86345SOL     OW60931   9.561   2.824   0.922
86345SOL    HW160932   9.533   2.914   0.906
86345SOL    HW260933   9.634   2.832   0.984
86346SOL     OW60934   2.503  13.116  13.296
86346SOL    HW160935   2.421  13.155  13.327
86346SOL    HW260936   2.546  13.084  13.375
86347SOL     OW60937  12.387  12.318   2.324
86347SOL    HW160938  12.334  12.343   2.400
86347SOL    HW260939  12.331  12.259   2.274
86348SOL     OW60940   3.192   9.859   9.292
86348SOL    HW160941   3.250   9.799   9.246
86348SOL    HW260942   3.242   9.887   9.369
86349SOL     OW60943   6.669   0.013   5.560
86349SOL    HW160944   6.728  14.813   5.536
86349SOL    HW260945   6.607   0.018   5.488
86350SOL     OW60946  11.081   9.882  12.834
86350SOL    HW160947  11.028   9.892  12.755
86350SOL    HW260948  11.171   9.897  12.804
86351SOL     OW60949  10.973   7.667  13.207
86351SOL    HW160950  10.921   7.667  13.288
86351SOL    HW260951  10.968   7.756  13.174
86352SOL     OW60952   4.786   3.918   2.972
86352SOL    HW160953   4.875   3.887   2.989
86352SOL    HW260954   4.788   4.010   2.998
86353SOL     OW60955  14.652   9.962  13.475
86353SOL    HW160956  14.580   9.927  13.424
86353SOL    HW260957  14.642  10.057  13.469
86354SOL     OW60958   0.498   6.182   8.365
86354SOL    HW160959   0.575   6.131   8.341
86354SOL    HW260960   0.424   6.127   8.342
86355SOL     OW60961   6.251   4.706  11.937
86355SOL    HW160962   6.295   4.775  11.987
86355SOL    HW260963   6.321   4.645  11.914
86356SOL     OW60964  14.284  10.783   9.645
86356SOL    HW160965  14.230  10.862   9.643
86356SOL    HW260966  14.251  10.733   9.720
86357SOL     OW60967   0.783  13.346   5.147
86357SOL    HW160968   0.814  13.360   5.236
86357SOL    HW260969   0.723  13.271   5.154
86358SOL     OW60970   0.980   0.102   0.547
86358SOL    HW160971   0.926   0.161   0.495
86358SOL    HW260972   0.996   0.027   0.490
86359SOL     OW60973   0.822   7.305   6.634
86359SOL    HW160974   0.862   7.322   6.549
86359SOL    HW260975   0.761   7.233   6.618
86360SOL     OW60976  11.116  13.369   0.834
86360SOL    HW160977  11.186  13.327   0.884
86360SOL    HW260978  11.138  13.352   0.743
86361SOL     OW60979   2.923  13.682   2.843
86361SOL    HW160980   2.838  13.640   2.834
86361SOL    HW260981   2.937  13.727   2.760
86362SOL     OW60982  11.227   4.922   2.798
86362SOL    HW160983  11.192   4.867   2.868
86362SOL    HW260984  11.312   4.951   2.831
86363SOL     OW60985   3.943   8.372   6.944
86363SOL    HW160986   3.907   8.388   6.857
86363SOL    HW260987   3.932   8.455   6.991
86364SOL     OW60988  14.379  14.437   4.472
86364SOL    HW160989  14.411  14.408   4.386
86364SOL    HW260990  14.407  14.369   4.533
86365SOL     OW60991   7.352  13.206   4.062
86365SOL    HW160992   7.273  13.165   4.097
86365SOL    HW260993   7.320  13.275   4.004
86366SOL     OW60994  14.183  12.789  13.144
86366SOL    HW160995  14.221  12.716  13.194
86366SOL    HW260996  14.197  12.866  13.199
86367SOL     OW60997  13.425   5.806  12.563
86367SOL    HW160998  13.341   5.777  12.598
86367SOL    HW260999  13.405   5.884  12.512
86368SOL     OW61000  12.410   7.404   9.843
86368SOL    HW161001  12.356   7.475   9.808
86368SOL    HW261002  12.483   7.448   9.885
86369SOL     OW61003  12.876   4.107  10.871
86369SOL    HW161004  12.914   4.060  10.797
86369SOL    HW261005  12.923   4.190  10.873
86370SOL     OW61006  14.150   5.293   9.912
86370SOL    HW161007  14.094   5.254   9.845
86370SOL    HW261008  14.238   5.289   9.874
86371SOL     OW61009   9.696   7.188   2.630
86371SOL    HW161010   9.729   7.150   2.712
86371SOL    HW261011   9.740   7.273   2.623
86372SOL     OW61012  14.650   5.168  11.558
86372SOL    HW161013  14.693   5.168  11.644
86372SOL    HW261014  14.679   5.248  11.516
86373SOL     OW61015   7.602   9.325  10.220
86373SOL    HW161016   7.542   9.395  10.247
86373SOL    HW261017   7.674   9.329  10.283
86374SOL     OW61018  12.033   5.888   9.991
86374SOL    HW161019  12.045   5.871   9.898
86374SOL    HW261020  12.071   5.975  10.004
86375SOL     OW61021   7.545  12.213   2.840
86375SOL    HW161022   7.575  12.166   2.918
86375SOL    HW261023   7.474  12.269   2.872
86376SOL     OW61024   8.423   7.729   2.882
86376SOL    HW161025   8.332   7.723   2.911
86376SOL    HW261026   8.455   7.810   2.921
86377SOL     OW61027   0.445   6.510   7.317
86377SOL    HW161028   0.399   6.429   7.293
86377SOL    HW261029   0.536   6.493   7.294
86378SOL     OW61030   3.156  11.613   5.082
86378SOL    HW161031   3.128  11.575   4.999
86378SOL    HW261032   3.107  11.565   5.149
86379SOL     OW61033   0.163  13.513  13.811
86379SOL    HW161034   0.087  13.501  13.754
86379SOL    HW261035   0.129  13.559  13.888
86380SOL     OW61036  11.980   1.511  12.960
86380SOL    HW161037  12.003   1.561  13.038
86380SOL    HW261038  11.889   1.485  12.974
86381SOL     OW61039   3.536  10.266   4.775
86381SOL    HW161040   3.561  10.353   4.745
86381SOL    HW261041   3.567  10.207   4.707
86382SOL     OW61042   0.841   6.109  13.562
86382SOL    HW161043   0.923   6.093  13.516
86382SOL    HW261044   0.774   6.113  13.493
86383SOL     OW61045  13.914  11.355   9.972
86383SOL    HW161046  13.916  11.405  10.053
86383SOL    HW261047  13.872  11.413   9.908
86384SOL     OW61048  10.513   3.227   9.342
86384SOL    HW161049  10.538   3.186   9.425
86384SOL    HW261050  10.418   3.217   9.338
86385SOL     OW61051  11.635   4.362   7.352
86385SOL    HW161052  11.559   4.374   7.408
86385SOL    HW261053  11.698   4.316   7.408
86386SOL     OW61054   8.336   6.870  14.220
86386SOL    HW161055   8.304   6.960  14.221
86386SOL    HW261056   8.262   6.818  14.255
86387SOL     OW61057   2.246   3.683   6.546
86387SOL    HW161058   2.156   3.664   6.519
86387SOL    HW261059   2.252   3.779   6.543
86388SOL     OW61060  13.839   1.515  12.632
86388SOL    HW161061  13.867   1.425  12.612
86388SOL    HW261062  13.783   1.506  12.709
86389SOL     OW61063  11.360   2.751   5.114
86389SOL    HW161064  11.421   2.739   5.188
86389SOL    HW261065  11.417   2.769   5.039
86390SOL     OW61066   8.015   3.280   5.527
86390SOL    HW161067   8.101   3.273   5.485
86390SOL    HW261068   8.035   3.307   5.617
86391SOL     OW61069   9.199   4.108   2.602
86391SOL    HW161070   9.156   4.179   2.650
86391SOL    HW261071   9.188   4.031   2.659
86392SOL     OW61072   5.156   2.544  11.425
86392SOL    HW161073   5.105   2.619  11.456
86392SOL    HW261074   5.164   2.487  11.502
86393SOL     OW61075   9.382   1.310  13.237
86393SOL    HW161076   9.379   1.215  13.232
86393SOL    HW261077   9.399   1.338  13.147
86394SOL     OW61078   9.070   4.795   7.401
86394SOL    HW161079   8.986   4.762   7.434
86394SOL    HW261080   9.082   4.752   7.316
86395SOL     OW61081   7.163   7.363  13.975
86395SOL    HW161082   7.119   7.438  13.935
86395SOL    HW261083   7.181   7.305  13.901
86396SOL     OW61084  13.553   7.882  13.952
86396SOL    HW161085  13.529   7.944  14.021
86396SOL    HW261086  13.533   7.796  13.990
86397SOL     OW61087   6.747   8.434   4.828
86397SOL    HW161088   6.723   8.378   4.902
86397SOL    HW261089   6.671   8.492   4.817
86398SOL     OW61090   6.317   5.842  12.294
86398SOL    HW161091   6.304   5.871  12.384
86398SOL    HW261092   6.355   5.919  12.250
86399SOL     OW61093   7.544  12.377   6.807
86399SOL    HW161094   7.508  12.465   6.794
86399SOL    HW261095   7.569  12.374   6.899
86400SOL     OW61096   9.022   8.021   6.254
86400SOL    HW161097   9.014   8.114   6.273
86400SOL    HW261098   9.017   7.978   6.339
86401SOL     OW61099   9.104   3.676   7.150
86401SOL    HW161100   9.070   3.712   7.068
86401SOL    HW261101   9.055   3.594   7.162
86402SOL     OW61102   5.310   0.619  11.428
86402SOL    HW161103   5.273   0.554  11.368
86402SOL    HW261104   5.254   0.613  11.506
86403SOL     OW61105   1.779   2.780   1.905
86403SOL    HW161106   1.689   2.771   1.934
86403SOL    HW261107   1.817   2.692   1.915
86404SOL     OW61108   3.779  10.734   4.756
86404SOL    HW161109   3.762  10.827   4.773
86404SOL    HW261110   3.858  10.715   4.807
86405SOL     OW61111   2.298   0.374   5.508
86405SOL    HW161112   2.206   0.346   5.509
86405SOL    HW261113   2.302   0.441   5.440
86406SOL     OW61114  12.524   9.251  12.772
86406SOL    HW161115  12.456   9.254  12.839
86406SOL    HW261116  12.476   9.249  12.689
86407SOL     OW61117   1.816  10.109   0.680
86407SOL    HW161118   1.804  10.018   0.653
86407SOL    HW261119   1.856  10.152   0.604
86408SOL     OW61120  10.132   1.812   9.002
86408SOL    HW161121  10.208   1.770   9.042
86408SOL    HW261122  10.059   1.789   9.060
86409SOL     OW61123   2.482   8.429   7.842
86409SOL    HW161124   2.428   8.431   7.763
86409SOL    HW261125   2.553   8.369   7.822
86410SOL     OW61126  10.682  14.416   6.426
86410SOL    HW161127  10.631  14.497   6.425
86410SOL    HW261128  10.735  14.422   6.505
86411SOL     OW61129  11.669  10.953   9.285
86411SOL    HW161130  11.616  11.026   9.316
86411SOL    HW261131  11.752  10.993   9.260
86412SOL     OW61132  12.569   7.655   6.111
86412SOL    HW161133  12.642   7.702   6.152
86412SOL    HW261134  12.494   7.674   6.168
86413SOL     OW61135   4.682  12.142   4.744
86413SOL    HW161136   4.753  12.080   4.729
86413SOL    HW261137   4.704  12.217   4.690
86414SOL     OW61138   1.326   4.392   4.631
86414SOL    HW161139   1.418   4.417   4.627
86414SOL    HW261140   1.304   4.392   4.724
86415SOL     OW61141   6.120  14.099   4.337
86415SOL    HW161142   6.149  14.185   4.307
86415SOL    HW261143   6.150  14.094   4.427
86416SOL     OW61144  10.295  13.902   3.171
86416SOL    HW161145  10.241  13.884   3.247
86416SOL    HW261146  10.352  13.975   3.199
86417SOL     OW61147   7.777   3.591   4.400
86417SOL    HW161148   7.829   3.624   4.327
86417SOL    HW261149   7.814   3.505   4.419
86418SOL     OW61150   1.153   7.820  14.822
86418SOL    HW161151   1.086   7.761  14.855
86418SOL    HW261152   1.155   7.893   0.012
86419SOL     OW61153   2.922   1.872   9.072
86419SOL    HW161154   2.878   1.827   9.000
86419SOL    HW261155   2.919   1.965   9.048
86420SOL     OW61156  14.798   2.467   9.724
86420SOL    HW161157  14.766   2.453   9.635
86420SOL    HW261158  14.842   2.552   9.721
86421SOL     OW61159   7.529  14.564   1.250
86421SOL    HW161160   7.565  14.597   1.332
86421SOL    HW261161   7.435  14.575   1.259
86422SOL     OW61162   1.316   3.599   5.658
86422SOL    HW161163   1.284   3.597   5.568
86422SOL    HW261164   1.317   3.507   5.684
86423SOL     OW61165  10.233   4.815   3.668
86423SOL    HW161166  10.263   4.897   3.706
86423SOL    HW261167  10.254   4.822   3.575
86424SOL     OW61168  12.697   2.760   1.059
86424SOL    HW161169  12.732   2.849   1.048
86424SOL    HW261170  12.639   2.767   1.135
86425SOL     OW61171  11.697   4.515   5.236
86425SOL    HW161172  11.789   4.492   5.225
86425SOL    HW261173  11.649   4.442   5.196
86426SOL     OW61174  11.190   0.497   6.435
86426SOL    HW161175  11.234   0.582   6.435
86426SOL    HW261176  11.224   0.452   6.513
86427SOL     OW61177  11.328  10.364   1.275
86427SOL    HW161178  11.374  10.445   1.300
86427SOL    HW261179  11.236  10.389   1.273
86428SOL     OW61180   0.998   8.234   5.303
86428SOL    HW161181   0.946   8.311   5.284
86428SOL    HW261182   0.937   8.160   5.293
86429SOL     OW61183   9.548  11.605   6.310
86429SOL    HW161184   9.489  11.675   6.281
86429SOL    HW261185   9.618  11.604   6.245
86430SOL     OW61186   3.257  12.396  11.020
86430SOL    HW161187   3.248  12.472  11.077
86430SOL    HW261188   3.304  12.429  10.943
86431SOL     OW61189  10.968  10.725   1.827
86431SOL    HW161190  10.961  10.661   1.897
86431SOL    HW261191  10.896  10.705   1.768
86432SOL     OW61192  12.530   6.905   2.791
86432SOL    HW161193  12.465   6.893   2.860
86432SOL    HW261194  12.577   6.985   2.815
86433SOL     OW61195   5.371   9.301   7.755
86433SOL    HW161196   5.292   9.284   7.806
86433SOL    HW261197   5.341   9.307   7.664
86434SOL     OW61198  13.447   9.982  10.197
86434SOL    HW161199  13.527  10.000  10.147
86434SOL    HW261200  13.377  10.019  10.144
86435SOL     OW61201   7.049  11.258   2.433
86435SOL    HW161202   7.039  11.212   2.350
86435SOL    HW261203   7.083  11.193   2.493
86436SOL     OW61204  12.067   5.050   0.609
86436SOL    HW161205  12.090   5.052   0.702
86436SOL    HW261206  12.127   4.986   0.571
86437SOL     OW61207  12.067   9.070   9.704
86437SOL    HW161208  12.068   8.976   9.691
86437SOL    HW261209  12.156   9.091   9.734
86438SOL     OW61210   7.290   1.857   8.098
86438SOL    HW161211   7.309   1.835   8.007
86438SOL    HW261212   7.268   1.949   8.097
86439SOL     OW61213  11.593  14.838  13.224
86439SOL    HW161214  11.503  14.842  13.255
86439SOL    HW261215  11.645   0.004  13.295
86440SOL     OW61216  14.069   9.107   7.433
86440SOL    HW161217  14.013   9.076   7.504
86440SOL    HW261218  14.138   9.040   7.426
86441SOL     OW61219   5.429  14.858   0.353
86441SOL    HW161220   5.459  14.801   0.281
86441SOL    HW261221   5.424   0.073   0.314
86442SOL     OW61222   1.500   3.385  12.631
86442SOL    HW161223   1.506   3.339  12.715
86442SOL    HW261224   1.429   3.342  12.585
86443SOL     OW61225   2.965  14.410   1.497
86443SOL    HW161226   2.972  14.426   1.403
86443SOL    HW261227   3.026  14.472   1.537
86444SOL     OW61228  12.472  14.108  12.169
86444SOL    HW161229  12.564  14.110  12.143
86444SOL    HW261230  12.431  14.049  12.105
86445SOL     OW61231  12.160  12.926   8.750
86445SOL    HW161232  12.083  12.870   8.747
86445SOL    HW261233  12.126  13.015   8.743
86446SOL     OW61234  11.432  12.646   8.325
86446SOL    HW161235  11.371  12.613   8.258
86446SOL    HW261236  11.478  12.718   8.282
86447SOL     OW61237   3.446   6.097   0.356
86447SOL    HW161238   3.430   6.148   0.435
86447SOL    HW261239   3.373   6.119   0.298
86448SOL     OW61240   5.038  10.073   5.194
86448SOL    HW161241   5.102  10.064   5.124
86448SOL    HW261242   5.049  10.163   5.225
86449SOL     OW61243   7.617   9.704   5.377
86449SOL    HW161244   7.694   9.737   5.330
86449SOL    HW261245   7.627   9.740   5.466
86450SOL     OW61246   9.149  12.230   7.156
86450SOL    HW161247   9.205  12.301   7.186
86450SOL    HW261248   9.121  12.187   7.237
86451SOL     OW61249   8.871   8.798  10.111
86451SOL    HW161250   8.915   8.822  10.030
86451SOL    HW261251   8.891   8.705  10.123
86452SOL     OW61252  12.646   8.124   1.914
86452SOL    HW161253  12.572   8.159   1.963
86452SOL    HW261254  12.699   8.077   1.979
86453SOL     OW61255  12.124   2.005  12.574
86453SOL    HW161256  12.210   2.005  12.617
86453SOL    HW261257  12.104   1.912  12.560
86454SOL     OW61258  12.763   8.181   2.621
86454SOL    HW161259  12.772   8.223   2.535
86454SOL    HW261260  12.772   8.251   2.684
86455SOL     OW61261   9.012   8.476  12.440
86455SOL    HW161262   8.979   8.485  12.351
86455SOL    HW261263   9.063   8.555  12.455
86456SOL     OW61264   1.255   3.722  12.237
86456SOL    HW161265   1.316   3.701  12.166
86456SOL    HW261266   1.249   3.817  12.235
86457SOL     OW61267   0.002   2.309  14.423
86457SOL    HW161268   0.076   2.321  14.483
86457SOL    HW261269   0.008   2.383  14.363
86458SOL     OW61270  13.291  10.020  12.397
86458SOL    HW161271  13.348  10.013  12.473
86458SOL    HW261272  13.203  10.015  12.433
86459SOL     OW61273  14.218  11.841   2.621
86459SOL    HW161274  14.281  11.790   2.570
86459SOL    HW261275  14.147  11.860   2.559
86460SOL     OW61276  14.402   9.859   0.456
86460SOL    HW161277  14.485   9.877   0.501
86460SOL    HW261278  14.372   9.776   0.495
86461SOL     OW61279   8.092   4.324   8.854
86461SOL    HW161280   8.068   4.252   8.912
86461SOL    HW261281   8.008   4.358   8.823
86462SOL     OW61282   1.640   7.055   9.692
86462SOL    HW161283   1.639   6.961   9.707
86462SOL    HW261284   1.714   7.069   9.633
86463SOL     OW61285  10.276  11.154   1.775
86463SOL    HW161286  10.207  11.094   1.749
86463SOL    HW261287  10.275  11.223   1.709
86464SOL     OW61288   2.519   6.596  13.625
86464SOL    HW161289   2.597   6.542  13.610
86464SOL    HW261290   2.489   6.572  13.713
86465SOL     OW61291   1.905  11.695  11.545
86465SOL    HW161292   1.894  11.774  11.492
86465SOL    HW261293   1.961  11.723  11.618
86466SOL     OW61294   3.482  13.944   9.432
86466SOL    HW161295   3.566  13.900   9.416
86466SOL    HW261296   3.417  13.874   9.422
86467SOL     OW61297   8.340   5.108   5.501
86467SOL    HW161298   8.426   5.092   5.463
86467SOL    HW261299   8.283   5.123   5.426
86468SOL     OW61300  10.173  14.186   0.404
86468SOL    HW161301  10.203  14.218   0.319
86468SOL    HW261302  10.117  14.111   0.383
86469SOL     OW61303   9.367   5.370  13.345
86469SOL    HW161304   9.449   5.321  13.342
86469SOL    HW261305   9.391   5.455  13.382
86470SOL     OW61306  14.527   6.592   5.785
86470SOL    HW161307  14.601   6.642   5.752
86470SOL    HW261308  14.507   6.530   5.716
86471SOL     OW61309   1.408   6.138   7.025
86471SOL    HW161310   1.466   6.171   6.957
86471SOL    HW261311   1.321   6.141   6.987
86472SOL     OW61312   3.578   1.030   9.431
86472SOL    HW161313   3.619   1.025   9.517
86472SOL    HW261314   3.553   1.121   9.421
86473SOL     OW61315  14.714   5.687   1.395
86473SOL    HW161316  14.660   5.691   1.316
86473SOL    HW261317  14.660   5.641   1.459
86474SOL     OW61318   9.032   1.425  13.060
86474SOL    HW161319   8.981   1.486  13.007
86474SOL    HW261320   9.123   1.445  13.037
86475SOL     OW61321   8.037   5.200   5.067
86475SOL    HW161322   8.050   5.126   5.008
86475SOL    HW261323   7.942   5.213   5.068
86476SOL     OW61324  11.625  14.232  13.437
86476SOL    HW161325  11.549  14.226  13.380
86476SOL    HW261326  11.620  14.154  13.493
86477SOL     OW61327  10.743  11.361   8.679
86477SOL    HW161328  10.681  11.421   8.637
86477SOL    HW261329  10.776  11.307   8.607
86478SOL     OW61330  13.983   5.916  12.494
86478SOL    HW161331  14.032   5.997  12.509
86478SOL    HW261332  14.031   5.850  12.542
86479SOL     OW61333  11.163  13.974   9.620
86479SOL    HW161334  11.099  14.037   9.588
86479SOL    HW261335  11.247  14.018   9.609
86480SOL     OW61336   1.150  11.575  12.216
86480SOL    HW161337   1.205  11.648  12.188
86480SOL    HW261338   1.212  11.506  12.241
86481SOL     OW61339   1.621   8.717   0.678
86481SOL    HW161340   1.562   8.765   0.736
86481SOL    HW261341   1.565   8.652   0.635
86482SOL     OW61342   2.070   6.292   0.908
86482SOL    HW161343   2.130   6.267   0.838
86482SOL    HW261344   1.998   6.229   0.902
86483SOL     OW61345   3.595  10.930  10.646
86483SOL    HW161346   3.616  10.840  10.623
86483SOL    HW261347   3.625  10.982  10.572
86484SOL     OW61348   9.028   8.991  13.796
86484SOL    HW161349   9.036   9.067  13.739
86484SOL    HW261350   8.994   8.921  13.740
86485SOL     OW61351   4.919  12.102   1.420
86485SOL    HW161352   4.969  12.029   1.457
86485SOL    HW261353   4.850  12.118   1.484
86486SOL     OW61354   2.515   4.633  12.358
86486SOL    HW161355   2.532   4.543  12.386
86486SOL    HW261356   2.514   4.629  12.263
86487SOL     OW61357   1.480  10.552   0.582
86487SOL    HW161358   1.539  10.487   0.620
86487SOL    HW261359   1.483  10.536   0.488
86488SOL     OW61360  11.716   5.948   7.729
86488SOL    HW161361  11.759   5.905   7.656
86488SOL    HW261362  11.723   6.041   7.711
86489SOL     OW61363   2.483   8.792   9.175
86489SOL    HW161364   2.418   8.796   9.245
86489SOL    HW261365   2.487   8.881   9.140
86490SOL     OW61366  13.822   2.391   8.629
86490SOL    HW161367  13.730   2.366   8.626
86490SOL    HW261368  13.869   2.309   8.642
86491SOL     OW61369  10.312  14.834   3.088
86491SOL    HW161370  10.363  14.852   3.166
86491SOL    HW261371  10.278   0.047   3.060
86492SOL     OW61372   5.113   6.473   0.135
86492SOL    HW161373   5.091   6.385   0.105
86492SOL    HW261374   5.143   6.518   0.057
86493SOL     OW61375   1.026   9.420  10.139
86493SOL    HW161376   0.947   9.440  10.190
86493SOL    HW261377   1.055   9.335  10.173
86494SOL     OW61378   3.493   0.901  10.424
86494SOL    HW161379   3.569   0.895  10.483
86494SOL    HW261380   3.418   0.909  10.483
86495SOL     OW61381   9.470   1.491  11.613
86495SOL    HW161382   9.546   1.537  11.648
86495SOL    HW261383   9.482   1.400  11.640
86496SOL     OW61384   2.895  13.814   2.565
86496SOL    HW161385   2.876  13.850   2.478
86496SOL    HW261386   2.987  13.836   2.580
86497SOL     OW61387   2.627   1.993   6.642
86497SOL    HW161388   2.708   1.945   6.632
86497SOL    HW261389   2.647   2.060   6.709
86498SOL     OW61390   0.010   9.161   7.869
86498SOL    HW161391   0.033   9.183   7.779
86498SOL    HW261392   0.022   9.242   7.918
86499SOL     OW61393   0.369   0.749   6.743
86499SOL    HW161394   0.408   0.661   6.746
86499SOL    HW261395   0.275   0.734   6.748
86500SOL     OW61396   5.280   2.084   5.485
86500SOL    HW161397   5.251   2.124   5.402
86500SOL    HW261398   5.368   2.052   5.467
86501SOL     OW61399   0.793   7.897   7.529
86501SOL    HW161400   0.876   7.873   7.489
86501SOL    HW261401   0.738   7.819   7.521
86502SOL     OW61402   3.196   9.002   1.722
86502SOL    HW161403   3.234   9.047   1.797
86502SOL    HW261404   3.256   8.929   1.705
86503SOL     OW61405   6.077   3.753   7.268
86503SOL    HW161406   6.057   3.771   7.359
86503SOL    HW261407   6.155   3.806   7.249
86504SOL     OW61408  11.360  10.192  11.058
86504SOL    HW161409  11.441  10.141  11.048
86504SOL    HW261410  11.296  10.128  11.089
86505SOL     OW61411   9.129   2.020   5.196
86505SOL    HW161412   9.071   1.945   5.214
86505SOL    HW261413   9.114   2.080   5.269
86506SOL     OW61414   0.370  10.166   6.326
86506SOL    HW161415   0.303  10.204   6.382
86506SOL    HW261416   0.422  10.241   6.296
86507SOL     OW61417   8.231  12.695  10.971
86507SOL    HW161418   8.189  12.747  10.903
86507SOL    HW261419   8.246  12.758  11.042
86508SOL     OW61420  13.524   5.809   2.846
86508SOL    HW161421  13.505   5.807   2.752
86508SOL    HW261422  13.603   5.756   2.856
86509SOL     OW61423  13.308   9.386   2.815
86509SOL    HW161424  13.356   9.458   2.856
86509SOL    HW261425  13.220   9.420   2.801
86510SOL     OW61426  12.878   7.123   1.469
86510SOL    HW161427  12.878   7.046   1.412
86510SOL    HW261428  12.924   7.095   1.548
86511SOL     OW61429  13.342   8.873   2.868
86511SOL    HW161430  13.368   8.922   2.790
86511SOL    HW261431  13.344   8.937   2.939
86512SOL     OW61432   4.055  13.793  14.231
86512SOL    HW161433   4.048  13.853  14.305
86512SOL    HW261434   3.975  13.807  14.180
86513SOL     OW61435   3.710  12.576   8.566
86513SOL    HW161436   3.645  12.507   8.580
86513SOL    HW261437   3.792  12.529   8.555
86514SOL     OW61438   9.445  13.141   0.960
86514SOL    HW161439   9.446  13.232   0.988
86514SOL    HW261440   9.352  13.121   0.945
86515SOL     OW61441  11.402   3.682  14.358
86515SOL    HW161442  11.410   3.772  14.327
86515SOL    HW261443  11.470   3.634  14.311
86516SOL     OW61444   1.505  13.731   8.128
86516SOL    HW161445   1.488  13.825   8.123
86516SOL    HW261446   1.461  13.694   8.052
86517SOL     OW61447  12.476   9.346   8.870
86517SOL    HW161448  12.503   9.395   8.792
86517SOL    HW261449  12.557   9.313   8.908
86518SOL     OW61450   0.909   8.414   7.945
86518SOL    HW161451   0.974   8.482   7.964
86518SOL    HW261452   0.908   8.360   8.025
86519SOL     OW61453   2.092   7.852   1.480
86519SOL    HW161454   2.066   7.774   1.530
86519SOL    HW261455   2.056   7.925   1.531
86520SOL     OW61456   2.246  10.939   8.611
86520SOL    HW161457   2.268  10.876   8.542
86520SOL    HW261458   2.153  10.923   8.629
86521SOL     OW61459   3.637   5.286   5.143
86521SOL    HW161460   3.614   5.306   5.053
86521SOL    HW261461   3.590   5.205   5.162
86522SOL     OW61462  12.912   8.751  10.226
86522SOL    HW161463  12.902   8.770  10.319
86522SOL    HW261464  12.862   8.820  10.182
86523SOL     OW61465   5.321   9.384   8.867
86523SOL    HW161466   5.405   9.420   8.895
86523SOL    HW261467   5.342   9.332   8.789
86524SOL     OW61468   0.805   7.561  13.085
86524SOL    HW161469   0.812   7.629  13.153
86524SOL    HW261470   0.895   7.532  13.070
86525SOL     OW61471  10.481   3.823   8.166
86525SOL    HW161472  10.386   3.820   8.152
86525SOL    HW261473  10.493   3.777   8.250
86526SOL     OW61474   3.712   6.661  13.194
86526SOL    HW161475   3.782   6.601  13.220
86526SOL    HW261476   3.632   6.617  13.220
86527SOL     OW61477   8.644   6.221   4.764
86527SOL    HW161478   8.566   6.188   4.809
86527SOL    HW261479   8.665   6.154   4.700
86528SOL     OW61480  11.098   2.698   7.551
86528SOL    HW161481  11.047   2.644   7.611
86528SOL    HW261482  11.131   2.637   7.485
86529SOL     OW61483   7.733   4.874   7.197
86529SOL    HW161484   7.729   4.970   7.199
86529SOL    HW261485   7.731   4.848   7.289
86530SOL     OW61486   9.341   7.576   2.813
86530SOL    HW161487   9.297   7.635   2.753
86530SOL    HW261488   9.280   7.566   2.887
86531SOL     OW61489   7.734   0.608   7.140
86531SOL    HW161490   7.695   0.560   7.213
86531SOL    HW261491   7.777   0.540   7.088
86532SOL     OW61492  10.755   2.838   2.615
86532SOL    HW161493  10.664   2.816   2.632
86532SOL    HW261494  10.753   2.926   2.577
86533SOL     OW61495   4.169   2.453   7.993
86533SOL    HW161496   4.098   2.407   8.036
86533SOL    HW261497   4.198   2.394   7.924
86534SOL     OW61498  11.475  10.183   4.720
86534SOL    HW161499  11.458  10.230   4.802
86534SOL    HW261500  11.569  10.192   4.705
86535SOL     OW61501  11.278   7.151   1.537
86535SOL    HW161502  11.326   7.079   1.577
86535SOL    HW261503  11.286   7.137   1.443
86536SOL     OW61504  14.193   2.599  11.382
86536SOL    HW161505  14.135   2.579  11.456
86536SOL    HW261506  14.269   2.542  11.395
86537SOL     OW61507   1.460  14.322  14.262
86537SOL    HW161508   1.440  14.282  14.178
86537SOL    HW261509   1.382  14.304  14.316
86538SOL     OW61510   8.131   9.147  12.441
86538SOL    HW161511   8.200   9.107  12.387
86538SOL    HW261512   8.175   9.166  12.524
86539SOL     OW61513   4.487   2.332   9.252
86539SOL    HW161514   4.537   2.323   9.171
86539SOL    HW261515   4.543   2.382   9.311
86540SOL     OW61516   7.371   3.177   0.066
86540SOL    HW161517   7.374   3.224  14.855
86540SOL    HW261518   7.441   3.217   0.118
86541SOL     OW61519   1.022  13.829   0.714
86541SOL    HW161520   1.060  13.820   0.801
86541SOL    HW261521   1.019  13.923   0.698
86542SOL     OW61522   9.224   6.565   8.195
86542SOL    HW161523   9.215   6.500   8.125
86542SOL    HW261524   9.203   6.648   8.153
86543SOL     OW61525   0.542  12.560   8.333
86543SOL    HW161526   0.496  12.613   8.268
86543SOL    HW261527   0.501  12.473   8.327
86544SOL     OW61528   5.632   2.176   5.168
86544SOL    HW161529   5.691   2.113   5.128
86544SOL    HW261530   5.678   2.206   5.247
86545SOL     OW61531   8.523   7.918   4.245
86545SOL    HW161532   8.446   7.862   4.258
86545SOL    HW261533   8.565   7.884   4.166
86546SOL     OW61534   1.160   0.840   7.346
86546SOL    HW161535   1.239   0.831   7.294
86546SOL    HW261536   1.186   0.891   7.423
86547SOL     OW61537   3.854   1.784   2.243
86547SOL    HW161538   3.800   1.730   2.301
86547SOL    HW261539   3.889   1.722   2.179
86548SOL     OW61540   9.600  10.383  14.196
86548SOL    HW161541   9.608  10.291  14.219
86548SOL    HW261542   9.600  10.385  14.100
86549SOL     OW61543   3.332   2.443   1.795
86549SOL    HW161544   3.305   2.404   1.878
86549SOL    HW261545   3.312   2.375   1.730
86550SOL     OW61546   3.243   8.077   9.158
86550SOL    HW161547   3.306   8.080   9.086
86550SOL    HW261548   3.257   8.160   9.205
86551SOL     OW61549   0.790   9.769   8.589
86551SOL    HW161550   0.815   9.768   8.497
86551SOL    HW261551   0.758   9.681   8.607
86552SOL     OW61552   3.356  13.289   4.417
86552SOL    HW161553   3.405  13.342   4.480
86552SOL    HW261554   3.371  13.332   4.333
86553SOL     OW61555   9.163   3.941   0.283
86553SOL    HW161556   9.162   4.032   0.254
86553SOL    HW261557   9.073   3.912   0.273
86554SOL     OW61558  12.232  10.819   2.041
86554SOL    HW161559  12.151  10.783   2.077
86554SOL    HW261560  12.300  10.795   2.105
86555SOL     OW61561   2.361   1.351  13.706
86555SOL    HW161562   2.314   1.297  13.769
86555SOL    HW261563   2.378   1.433  13.752
86556SOL     OW61564  14.587  12.139  11.223
86556SOL    HW161565  14.550  12.137  11.310
86556SOL    HW261566  14.652  12.210  11.227
86557SOL     OW61567  14.849   5.885  12.544
86557SOL    HW161568  14.792   5.814  12.515
86557SOL    HW261569   0.004   5.928  12.463
86558SOL     OW61570  12.443   7.225  14.287
86558SOL    HW161571  12.350   7.205  14.292
86558SOL    HW261572  12.466   7.256  14.375
86559SOL     OW61573   9.562   7.356   1.506
86559SOL    HW161574   9.553   7.372   1.600
86559SOL    HW261575   9.578   7.261   1.500
86560SOL     OW61576   1.694  12.226   8.130
86560SOL    HW161577   1.622  12.183   8.086
86560SOL    HW261578   1.723  12.294   8.069
86561SOL     OW61579   9.612   4.488   0.771
86561SOL    HW161580   9.542   4.429   0.799
86561SOL    HW261581   9.670   4.493   0.847
86562SOL     OW61582   9.539  11.798   9.606
86562SOL    HW161583   9.571  11.710   9.626
86562SOL    HW261584   9.618  11.852   9.599
86563SOL     OW61585  10.502   9.349   6.069
86563SOL    HW161586  10.443   9.380   6.138
86563SOL    HW261587  10.453   9.361   5.988
86564SOL     OW61588   9.309   3.145  10.700
86564SOL    HW161589   9.219   3.130  10.670
86564SOL    HW261590   9.351   3.191  10.628
86565SOL     OW61591   7.239  13.202  11.472
86565SOL    HW161592   7.159  13.166  11.434
86565SOL    HW261593   7.270  13.266  11.408
86566SOL     OW61594   1.468   5.694   5.070
86566SOL    HW161595   1.396   5.675   5.010
86566SOL    HW261596   1.502   5.609   5.095
86567SOL     OW61597  10.400   5.688   8.372
86567SOL    HW161598  10.393   5.763   8.430
86567SOL    HW261599  10.311   5.672   8.341
86568SOL     OW61600   7.289  13.927   7.659
86568SOL    HW161601   7.264  14.000   7.602
86568SOL    HW261602   7.242  13.852   7.624
86569SOL     OW61603  11.263   0.126  10.164
86569SOL    HW161604  11.349   0.094  10.137
86569SOL    HW261605  11.272   0.221  10.167
86570SOL     OW61606   5.506  14.367   4.878
86570SOL    HW161607   5.423  14.324   4.858
86570SOL    HW261608   5.562  14.297   4.912
86571SOL     OW61609   1.766   7.312  11.813
86571SOL    HW161610   1.673   7.321  11.834
86571SOL    HW261611   1.780   7.374  11.741
86572SOL     OW61612   7.447   5.628   2.269
86572SOL    HW161613   7.528   5.623   2.320
86572SOL    HW261614   7.440   5.721   2.246
86573SOL     OW61615   8.431   4.366  14.025
86573SOL    HW161616   8.475   4.282  14.015
86573SOL    HW261617   8.498   4.424  14.061
86574SOL     OW61618   8.692  13.836  14.192
86574SOL    HW161619   8.725  13.763  14.141
86574SOL    HW261620   8.673  13.799  14.278
86575SOL     OW61621   9.777   6.906   9.627
86575SOL    HW161622   9.869   6.931   9.634
86575SOL    HW261623   9.771   6.825   9.677
86576SOL     OW61624   2.481   3.723   5.148
86576SOL    HW161625   2.518   3.752   5.232
86576SOL    HW261626   2.546   3.750   5.083
86577SOL     OW61627   1.195   6.466   7.793
86577SOL    HW161628   1.216   6.542   7.848
86577SOL    HW261629   1.209   6.390   7.850
86578SOL     OW61630  13.253   1.155   9.283
86578SOL    HW161631  13.315   1.202   9.340
86578SOL    HW261632  13.248   1.067   9.320
86579SOL     OW61633   8.400   2.747   0.331
86579SOL    HW161634   8.355   2.663   0.327
86579SOL    HW261635   8.357   2.800   0.264
86580SOL     OW61636   7.871   2.363  14.573
86580SOL    HW161637   7.828   2.429  14.518
86580SOL    HW261638   7.862   2.282  14.524
86581SOL     OW61639   1.269   4.383   4.912
86581SOL    HW161640   1.352   4.343   4.935
86581SOL    HW261641   1.288   4.477   4.906
86582SOL     OW61642  14.130   4.588  13.938
86582SOL    HW161643  14.111   4.506  13.984
86582SOL    HW261644  14.048   4.612  13.896
86583SOL     OW61645   7.621  12.107   2.306
86583SOL    HW161646   7.573  12.033   2.270
86583SOL    HW261647   7.615  12.096   2.401
86584SOL     OW61648   2.822  12.714   3.982
86584SOL    HW161649   2.799  12.806   3.972
86584SOL    HW261650   2.918  12.713   3.981
86585SOL     OW61651  11.760  10.109   4.325
86585SOL    HW161652  11.855  10.111   4.331
86585SOL    HW261653  11.730  10.074   4.409
86586SOL     OW61654   8.668  11.249   5.569
86586SOL    HW161655   8.639  11.184   5.505
86586SOL    HW261656   8.605  11.321   5.561
86587SOL     OW61657   1.097   7.204   0.176
86587SOL    HW161658   1.112   7.134   0.112
86587SOL    HW261659   1.178   7.208   0.227
86588SOL     OW61660   0.475  14.742  11.680
86588SOL    HW161661   0.508  14.808  11.620
86588SOL    HW261662   0.482  14.660  11.631
86589SOL     OW61663   4.151   9.477  10.592
86589SOL    HW161664   4.128   9.569  10.608
86589SOL    HW261665   4.134   9.464  10.499
86590SOL     OW61666  11.764  11.178   2.963
86590SOL    HW161667  11.825  11.248   2.988
86590SOL    HW261668  11.752  11.127   3.043
86591SOL     OW61669   2.466   5.479   5.531
86591SOL    HW161670   2.450   5.422   5.455
86591SOL    HW261671   2.512   5.554   5.495
86592SOL     OW61672  11.908  14.348  12.656
86592SOL    HW161673  11.883  14.291  12.729
86592SOL    HW261674  11.825  14.380  12.621
86593SOL     OW61675   2.930   5.402   4.060
86593SOL    HW161676   3.012   5.357   4.044
86593SOL    HW261677   2.924   5.409   4.156
86594SOL     OW61678   6.964  12.547   7.996
86594SOL    HW161679   7.027  12.487   8.036
86594SOL    HW261680   7.015  12.625   7.975
86595SOL     OW61681   2.988   1.272   3.181
86595SOL    HW161682   2.968   1.273   3.275
86595SOL    HW261683   3.075   1.310   3.174
86596SOL     OW61684   8.812   1.568  14.687
86596SOL    HW161685   8.895   1.528  14.659
86596SOL    HW261686   8.805   1.545  14.780
86597SOL     OW61687   1.998   9.850   7.876
86597SOL    HW161688   2.041   9.789   7.936
86597SOL    HW261689   2.013   9.936   7.916
86598SOL     OW61690   7.707  11.582   0.843
86598SOL    HW161691   7.699  11.616   0.754
86598SOL    HW261692   7.799  11.557   0.851
86599SOL     OW61693  13.163   8.646   7.524
86599SOL    HW161694  13.145   8.601   7.441
86599SOL    HW261695  13.101   8.608   7.586
86600SOL     OW61696   2.730   0.176  13.580
86600SOL    HW161697   2.700   0.159  13.670
86600SOL    HW261698   2.747   0.270  13.578
86601SOL     OW61699   8.661   9.514  14.412
86601SOL    HW161700   8.681   9.573  14.486
86601SOL    HW261701   8.575   9.478  14.434
86602SOL     OW61702  12.470   2.883  11.316
86602SOL    HW161703  12.470   2.788  11.300
86602SOL    HW261704  12.444   2.892  11.407
86603SOL     OW61705   3.760  12.341  13.171
86603SOL    HW161706   3.844  12.378  13.144
86603SOL    HW261707   3.721  12.310  13.089
86604SOL     OW61708  13.791  10.404   8.551
86604SOL    HW161709  13.796  10.335   8.616
86604SOL    HW261710  13.837  10.369   8.475
86605SOL     OW61711   4.768   8.342   6.727
86605SOL    HW161712   4.717   8.333   6.647
86605SOL    HW261713   4.739   8.424   6.766
86606SOL     OW61714   8.944  10.631   2.740
86606SOL    HW161715   8.875  10.636   2.674
86606SOL    HW261716   8.909  10.679   2.815
86607SOL     OW61717   5.904  12.322  11.711
86607SOL    HW161718   5.959  12.285  11.642
86607SOL    HW261719   5.818  12.282  11.697
86608SOL     OW61720   2.995   5.466   0.772
86608SOL    HW161721   2.929   5.479   0.840
86608SOL    HW261722   2.955   5.500   0.692
86609SOL     OW61723   7.079  14.405   0.327
86609SOL    HW161724   7.101  14.363   0.244
86609SOL    HW261725   7.078  14.499   0.307
86610SOL     OW61726   0.729  10.462   3.964
86610SOL    HW161727   0.686  10.526   4.022
86610SOL    HW261728   0.670  10.456   3.888
86611SOL     OW61729   2.818  14.277   7.552
86611SOL    HW161730   2.757  14.341   7.589
86611SOL    HW261731   2.876  14.253   7.624
86612SOL     OW61732  13.142  13.155   0.245
86612SOL    HW161733  13.167  13.079   0.297
86612SOL    HW261734  13.214  13.216   0.254
86613SOL     OW61735  11.030   7.091  12.262
86613SOL    HW161736  11.017   7.017  12.203
86613SOL    HW261737  11.124   7.105  12.264
86614SOL     OW61738   0.435  13.996  10.047
86614SOL    HW161739   0.387  14.004   9.964
86614SOL    HW261740   0.488  13.917  10.037
86615SOL     OW61741  13.004  12.521  13.943
86615SOL    HW161742  13.090  12.487  13.967
86615SOL    HW261743  13.000  12.607  13.985
86616SOL     OW61744  13.468   9.066   5.395
86616SOL    HW161745  13.419   9.111   5.463
86616SOL    HW261746  13.516   8.997   5.442
86617SOL     OW61747   6.778   4.299   4.133
86617SOL    HW161748   6.736   4.284   4.048
86617SOL    HW261749   6.832   4.221   4.147
86618SOL     OW61750   7.146   9.277   3.418
86618SOL    HW161751   7.241   9.275   3.408
86618SOL    HW261752   7.115   9.199   3.372
86619SOL     OW61753   5.110   5.955   1.992
86619SOL    HW161754   5.111   5.862   1.972
86619SOL    HW261755   5.045   5.964   2.062
86620SOL     OW61756  13.425   0.043   5.231
86620SOL    HW161757  13.377  14.833   5.228
86620SOL    HW261758  13.510   0.021   5.269
86621SOL     OW61759   6.682   8.206   6.424
86621SOL    HW161760   6.679   8.219   6.519
86621SOL    HW261761   6.718   8.118   6.413
86622SOL     OW61762   0.054   4.619   2.973
86622SOL    HW161763   0.142   4.583   2.983
86622SOL    HW261764   0.065   4.713   2.986
86623SOL     OW61765   0.569  11.811   6.709
86623SOL    HW161766   0.504  11.823   6.640
86623SOL    HW261767   0.537  11.736   6.759
86624SOL     OW61768  12.403   8.272   8.220
86624SOL    HW161769  12.335   8.242   8.280
86624SOL    HW261770  12.464   8.199   8.213
86625SOL     OW61771   3.808   3.090  10.913
86625SOL    HW161772   3.724   3.061  10.948
86625SOL    HW261773   3.788   3.173  10.869
86626SOL     OW61774   8.277  13.789   5.976
86626SOL    HW161775   8.330  13.772   5.898
86626SOL    HW261776   8.296  13.881   5.998
86627SOL     OW61777   2.014   0.289   8.487
86627SOL    HW161778   1.924   0.308   8.512
86627SOL    HW261779   2.018   0.193   8.483
86628SOL     OW61780   8.068   6.087   7.448
86628SOL    HW161781   8.148   6.066   7.496
86628SOL    HW261782   8.091   6.160   7.391
86629SOL     OW61783   0.830   5.580   5.416
86629SOL    HW161784   0.919   5.585   5.449
86629SOL    HW261785   0.775   5.572   5.495
86630SOL     OW61786   4.291   2.692  14.537
86630SOL    HW161787   4.289   2.697  14.442
86630SOL    HW261788   4.203   2.664  14.562
86631SOL     OW61789   0.224  11.962   6.269
86631SOL    HW161790   0.267  11.916   6.197
86631SOL    HW261791   0.156  11.903   6.299
86632SOL     OW61792  10.133   4.089   8.917
86632SOL    HW161793  10.094   4.016   8.869
86632SOL    HW261794  10.094   4.084   9.004
86633SOL     OW61795   1.836   8.008  12.036
86633SOL    HW161796   1.765   8.060  12.072
86633SOL    HW261797   1.916   8.054  12.063
86634SOL     OW61798   3.160   8.786   6.446
86634SOL    HW161799   3.135   8.833   6.525
86634SOL    HW261800   3.107   8.706   6.447
86635SOL     OW61801   5.486   2.692   0.085
86635SOL    HW161802   5.563   2.672   0.032
86635SOL    HW261803   5.493   2.634   0.161
86636SOL     OW61804  11.270  14.207  11.377
86636SOL    HW161805  11.344  14.237  11.431
86636SOL    HW261806  11.309  14.151  11.311
86637SOL     OW61807   0.174   0.128   7.397
86637SOL    HW161808   0.168   0.058   7.462
86637SOL    HW261809   0.189   0.084   7.314
86638SOL     OW61810   8.558   0.389   0.124
86638SOL    HW161811   8.489   0.438   0.078
86638SOL    HW261812   8.513   0.312   0.159
86639SOL     OW61813  14.827   6.271   5.025
86639SOL    HW161814  14.851   6.281   5.117
86639SOL    HW261815  14.752   6.329   5.013
86640SOL     OW61816   9.163   7.444  10.360
86640SOL    HW161817   9.211   7.392  10.296
86640SOL    HW261818   9.082   7.395  10.375
86641SOL     OW61819  13.012  14.587   3.870
86641SOL    HW161820  12.987  14.628   3.787
86641SOL    HW261821  12.939  14.604   3.928
86642SOL     OW61822   8.884   8.017   2.923
86642SOL    HW161823   8.805   7.991   2.970
86642SOL    HW261824   8.867   7.996   2.831
86643SOL     OW61825   4.563   1.439  12.353
86643SOL    HW161826   4.583   1.356  12.396
86643SOL    HW261827   4.469   1.449  12.362
86644SOL     OW61828   3.338   5.687   4.569
86644SOL    HW161829   3.255   5.734   4.559
86644SOL    HW261830   3.405   5.755   4.570
86645SOL     OW61831  10.304  10.512   4.175
86645SOL    HW161832  10.300  10.588   4.233
86645SOL    HW261833  10.213  10.484   4.166
86646SOL     OW61834   5.250  12.600   6.254
86646SOL    HW161835   5.310  12.592   6.180
86646SOL    HW261836   5.182  12.535   6.237
86647SOL     OW61837   7.379   0.659   0.186
86647SOL    HW161838   7.319   0.587   0.168
86647SOL    HW261839   7.412   0.685   0.099
86648SOL     OW61840   2.611   9.337   0.582
86648SOL    HW161841   2.545   9.404   0.598
86648SOL    HW261842   2.565   9.254   0.599
86649SOL     OW61843   3.445   4.424  10.782
86649SOL    HW161844   3.457   4.366  10.707
86649SOL    HW261845   3.516   4.399  10.843
86650SOL     OW61846   7.762  13.976   1.559
86650SOL    HW161847   7.815  13.908   1.601
86650SOL    HW261848   7.748  14.041   1.628
86651SOL     OW61849   1.438   5.927  14.224
86651SOL    HW161850   1.410   5.856  14.168
86651SOL    HW261851   1.378   5.925  14.299
86652SOL     OW61852  14.711   5.228   2.083
86652SOL    HW161853  14.743   5.139   2.097
86652SOL    HW261854  14.750   5.256   2.000
86653SOL     OW61855   1.323   4.735   7.283
86653SOL    HW161856   1.389   4.767   7.344
86653SOL    HW261857   1.282   4.815   7.248
86654SOL     OW61858   0.376   1.151   1.105
86654SOL    HW161859   0.447   1.093   1.080
86654SOL    HW261860   0.402   1.237   1.072
86655SOL     OW61861   1.989   1.618   2.157
86655SOL    HW161862   2.065   1.669   2.186
86655SOL    HW261863   2.024   1.531   2.140
86656SOL     OW61864   5.810   1.537   3.953
86656SOL    HW161865   5.856   1.568   3.875
86656SOL    HW261866   5.793   1.615   4.005
86657SOL     OW61867   8.381   9.123   7.509
86657SOL    HW161868   8.309   9.087   7.561
86657SOL    HW261869   8.372   9.218   7.518
86658SOL     OW61870   7.896   1.560   9.650
86658SOL    HW161871   7.811   1.567   9.693
86658SOL    HW261872   7.950   1.628   9.691
86659SOL     OW61873   3.669   0.041   0.428
86659SOL    HW161874   3.590   0.062   0.378
86659SOL    HW261875   3.671   0.105   0.499
86660SOL     OW61876   9.711   8.462  14.848
86660SOL    HW161877   9.790   8.483   0.026
86660SOL    HW261878   9.727   8.501  14.762
86661SOL     OW61879   8.385  13.042   2.639
86661SOL    HW161880   8.393  12.954   2.678
86661SOL    HW261881   8.308  13.037   2.583
86662SOL     OW61882   7.229   0.207   7.141
86662SOL    HW161883   7.294   0.264   7.183
86662SOL    HW261884   7.252   0.119   7.169
86663SOL     OW61885   0.502   3.810   3.041
86663SOL    HW161886   0.508   3.717   3.018
86663SOL    HW261887   0.458   3.850   2.966
86664SOL     OW61888   4.933   2.372   9.353
86664SOL    HW161889   4.904   2.283   9.332
86664SOL    HW261890   4.961   2.366   9.444
86665SOL     OW61891   4.894   9.364  12.090
86665SOL    HW161892   4.829   9.380  12.158
86665SOL    HW261893   4.876   9.431  12.023
86666SOL     OW61894  14.446  14.586  10.478
86666SOL    HW161895  14.462  14.627  10.393
86666SOL    HW261896  14.532  14.585  10.521
86667SOL     OW61897   2.548   4.908   5.579
86667SOL    HW161898   2.507   4.981   5.532
86667SOL    HW261899   2.591   4.950   5.653
86668SOL     OW61900   0.833   3.761  11.578
86668SOL    HW161901   0.801   3.829  11.637
86668SOL    HW261902   0.872   3.696  11.637
86669SOL     OW61903   9.373   7.105   4.680
86669SOL    HW161904   9.297   7.124   4.625
86669SOL    HW261905   9.388   7.011   4.668
86670SOL     OW61906  10.232   9.801  13.787
86670SOL    HW161907  10.305   9.807  13.726
86670SOL    HW261908  10.272   9.809  13.873
86671SOL     OW61909   1.760  10.615   4.879
86671SOL    HW161910   1.695  10.676   4.914
86671SOL    HW261911   1.842  10.664   4.880
86672SOL     OW61912  10.216   1.683   2.614
86672SOL    HW161913  10.239   1.640   2.531
86672SOL    HW261914  10.185   1.770   2.588
86673SOL     OW61915   3.048   0.451  12.071
86673SOL    HW161916   2.994   0.395  12.014
86673SOL    HW261917   3.138   0.430  12.045
86674SOL     OW61918  13.787  11.155   5.903
86674SOL    HW161919  13.803  11.183   5.993
86674SOL    HW261920  13.799  11.235   5.851
86675SOL     OW61921  11.773  10.723   0.186
86675SOL    HW161922  11.840  10.669   0.145
86675SOL    HW261923  11.782  10.706   0.279
86676SOL     OW61924  10.038  11.323   6.796
86676SOL    HW161925   9.962  11.268   6.776
86676SOL    HW261926  10.109  11.261   6.812
86677SOL     OW61927   5.904   3.818  12.398
86677SOL    HW161928   5.952   3.736  12.395
86677SOL    HW261929   5.957   3.878  12.345
86678SOL     OW61930   3.714  12.128  13.507
86678SOL    HW161931   3.662  12.119  13.428
86678SOL    HW261932   3.680  12.206  13.550
86679SOL     OW61933   5.599   5.772  12.810
86679SOL    HW161934   5.578   5.864  12.825
86679SOL    HW261935   5.513   5.730  12.800
86680SOL     OW61936   1.308   3.461  12.314
86680SOL    HW161937   1.287   3.437  12.405
86680SOL    HW261938   1.257   3.540  12.298
86681SOL     OW61939   3.359   1.923   5.764
86681SOL    HW161940   3.292   1.910   5.832
86681SOL    HW261941   3.372   1.835   5.727
86682SOL     OW61942   9.764  12.408   4.771
86682SOL    HW161943   9.730  12.420   4.860
86682SOL    HW261944   9.787  12.315   4.767
86683SOL     OW61945   6.965   3.929  12.874
86683SOL    HW161946   6.907   3.863  12.837
86683SOL    HW261947   6.910   3.977  12.937
86684SOL     OW61948   8.159  12.012   3.099
86684SOL    HW161949   8.172  11.934   3.046
86684SOL    HW261950   8.083  11.991   3.154
86685SOL     OW61951   3.300  11.467   6.184
86685SOL    HW161952   3.285  11.376   6.159
86685SOL    HW261953   3.218  11.495   6.226
86686SOL     OW61954   7.078   1.233  12.711
86686SOL    HW161955   7.041   1.220  12.798
86686SOL    HW261956   7.021   1.298  12.671
86687SOL     OW61957   8.013   0.652  12.789
86687SOL    HW161958   7.941   0.622  12.844
86687SOL    HW261959   8.031   0.741  12.820
86688SOL     OW61960   0.485   0.933   8.293
86688SOL    HW161961   0.540   0.974   8.227
86688SOL    HW261962   0.544   0.913   8.365
86689SOL     OW61963  13.452   0.116   8.468
86689SOL    HW161964  13.457   0.135   8.374
86689SOL    HW261965  13.543   0.112   8.497
86690SOL     OW61966  11.939  14.812   6.100
86690SOL    HW161967  11.909  14.726   6.069
86690SOL    HW261968  11.860  14.855   6.131
86691SOL     OW61969  12.372  12.965  11.999
86691SOL    HW161970  12.349  13.055  11.975
86691SOL    HW261971  12.417  12.973  12.083
86692SOL     OW61972   7.739   3.561   6.870
86692SOL    HW161973   7.665   3.600   6.915
86692SOL    HW261974   7.721   3.575   6.777
86693SOL     OW61975   0.093   3.292   3.245
86693SOL    HW161976   0.156   3.360   3.272
86693SOL    HW261977   0.111   3.218   3.303
86694SOL     OW61978   9.408   6.206   7.102
86694SOL    HW161979   9.394   6.283   7.048
86694SOL    HW261980   9.324   6.160   7.102
86695SOL     OW61981   6.393   5.081   0.906
86695SOL    HW161982   6.477   5.056   0.944
86695SOL    HW261983   6.339   5.106   0.982
86696SOL     OW61984   3.474  12.379   8.609
86696SOL    HW161985   3.431  12.459   8.641
86696SOL    HW261986   3.422  12.353   8.533
86697SOL     OW61987   8.932  10.831  11.843
86697SOL    HW161988   8.962  10.754  11.794
86697SOL    HW261989   8.966  10.905  11.794
86698SOL     OW61990  14.238   7.424   0.206
86698SOL    HW161991  14.318   7.476   0.197
86698SOL    HW261992  14.184   7.449   0.132
86699SOL     OW61993   7.605   1.268   5.042
86699SOL    HW161994   7.696   1.281   5.014
86699SOL    HW261995   7.560   1.239   4.962
86700SOL     OW61996   5.942   6.753   8.172
86700SOL    HW161997   5.850   6.733   8.188
86700SOL    HW261998   5.956   6.836   8.217
86701SOL     OW61999  11.659  11.609   9.261
86701SOL    HW162000  11.587  11.670   9.244
86701SOL    HW262001  11.734  11.647   9.215
86702SOL     OW62002  13.325  11.570  13.195
86702SOL    HW162003  13.310  11.567  13.289
86702SOL    HW262004  13.397  11.633  13.183
86703SOL     OW62005   4.513  10.361   8.809
86703SOL    HW162006   4.447  10.305   8.849
86703SOL    HW262007   4.585  10.362   8.873
86704SOL     OW62008   5.592   9.383   3.656
86704SOL    HW162009   5.639   9.384   3.739
86704SOL    HW262010   5.632   9.454   3.605
86705SOL     OW62011   9.173   9.329  14.659
86705SOL    HW162012   9.153   9.348  14.751
86705SOL    HW262013   9.087   9.311  14.620
86706SOL     OW62014  11.879  11.395   3.123
86706SOL    HW162015  11.786  11.409   3.142
86706SOL    HW262016  11.915  11.356   3.203
86707SOL     OW62017   6.476  12.273   0.640
86707SOL    HW162018   6.547  12.323   0.681
86707SOL    HW262019   6.465  12.313   0.553
86708SOL     OW62020  11.901  10.232  11.214
86708SOL    HW162021  11.836  10.164  11.197
86708SOL    HW262022  11.939  10.251  11.128
86709SOL     OW62023   1.124  14.291  12.201
86709SOL    HW162024   1.164  14.263  12.119
86709SOL    HW262025   1.198  14.322  12.254
86710SOL     OW62026  12.514   5.619  13.734
86710SOL    HW162027  12.500   5.621  13.829
86710SOL    HW262028  12.436   5.660  13.697
86711SOL     OW62029  13.528  14.228   8.845
86711SOL    HW162030  13.468  14.259   8.777
86711SOL    HW262031  13.480  14.156   8.887
86712SOL     OW62032  11.473   6.934   6.953
86712SOL    HW162033  11.396   6.980   6.919
86712SOL    HW262034  11.480   6.855   6.899
86713SOL     OW62035   9.178   7.564  10.653
86713SOL    HW162036   9.169   7.558  10.557
86713SOL    HW262037   9.126   7.491  10.686
86714SOL     OW62038   0.618   0.099   2.371
86714SOL    HW162039   0.610   0.165   2.439
86714SOL    HW262040   0.582   0.140   2.292
86715SOL     OW62041   3.957   3.484   0.334
86715SOL    HW162042   3.865   3.471   0.356
86715SOL    HW262043   3.964   3.577   0.311
86716SOL     OW62044   7.096  10.145   4.449
86716SOL    HW162045   7.087  10.084   4.377
86716SOL    HW262046   7.038  10.111   4.517
86717SOL     OW62047   5.658   0.220   8.712
86717SOL    HW162048   5.672   0.311   8.737
86717SOL    HW262049   5.746   0.185   8.699
86718SOL     OW62050   6.841   3.442  11.251
86718SOL    HW162051   6.856   3.483  11.165
86718SOL    HW262052   6.910   3.479  11.307
86719SOL     OW62053  11.112  13.261   5.977
86719SOL    HW162054  11.101  13.169   5.956
86719SOL    HW262055  11.186  13.290   5.924
86720SOL     OW62056  13.983  11.139   6.517
86720SOL    HW162057  13.991  11.140   6.613
86720SOL    HW262058  13.926  11.064   6.499
86721SOL     OW62059   9.824  10.440  12.375
86721SOL    HW162060   9.816  10.387  12.295
86721SOL    HW262061   9.735  10.445  12.410
86722SOL     OW62062   1.806  10.979   3.432
86722SOL    HW162063   1.837  10.962   3.343
86722SOL    HW262064   1.760  11.063   3.427
86723SOL     OW62065   7.425   1.525   0.766
86723SOL    HW162066   7.491   1.595   0.763
86723SOL    HW262067   7.398   1.515   0.675
86724SOL     OW62068   0.546  11.305   3.027
86724SOL    HW162069   0.568  11.214   3.042
86724SOL    HW262070   0.468  11.302   2.971
86725SOL     OW62071  13.117  13.593  13.800
86725SOL    HW162072  13.036  13.642  13.785
86725SOL    HW262073  13.091  13.520  13.856
86726SOL     OW62074  14.290   4.197   7.225
86726SOL    HW162075  14.247   4.223   7.144
86726SOL    HW262076  14.220   4.191   7.290
86727SOL     OW62077  10.397   8.688   7.576
86727SOL    HW162078  10.308   8.659   7.552
86727SOL    HW262079  10.386   8.730   7.661
86728SOL     OW62080   2.753  11.043   6.779
86728SOL    HW162081   2.738  11.136   6.799
86728SOL    HW262082   2.750  11.000   6.864
86729SOL     OW62083  14.783   0.241   8.277
86729SOL    HW162084  14.759   0.329   8.303
86729SOL    HW262085  14.704   0.188   8.293
86730SOL     OW62086   4.681  14.467  11.878
86730SOL    HW162087   4.632  14.416  11.814
86730SOL    HW262088   4.654  14.431  11.963
86731SOL     OW62089   2.184  13.193  14.014
86731SOL    HW162090   2.176  13.254  14.087
86731SOL    HW262091   2.142  13.237  13.941
86732SOL     OW62092   8.581   5.010   4.033
86732SOL    HW162093   8.506   5.017   3.974
86732SOL    HW262094   8.646   5.070   3.997
86733SOL     OW62095  12.154  10.905  13.220
86733SOL    HW162096  12.185  10.953  13.297
86733SOL    HW262097  12.221  10.920  13.154
86734SOL     OW62098   8.171   3.084   5.802
86734SOL    HW162099   8.229   3.059   5.874
86734SOL    HW262100   8.176   3.180   5.801
86735SOL     OW62101   0.536   0.028  13.750
86735SOL    HW162102   0.611  14.842  13.765
86735SOL    HW262103   0.574   0.116  13.749
86736SOL     OW62104   6.203   8.238   2.689
86736SOL    HW162105   6.194   8.209   2.779
86736SOL    HW262106   6.132   8.194   2.642
86737SOL     OW62107   2.012   7.726   1.820
86737SOL    HW162108   2.063   7.806   1.830
86737SOL    HW262109   2.000   7.694   1.910
86738SOL     OW62110  12.983   3.321   3.164
86738SOL    HW162111  13.073   3.306   3.135
86738SOL    HW262112  12.972   3.416   3.162
86739SOL     OW62113  10.680  10.967   5.750
86739SOL    HW162114  10.699  11.051   5.708
86739SOL    HW262115  10.609  10.930   5.698
86740SOL     OW62116   6.699   8.582   5.281
86740SOL    HW162117   6.670   8.491   5.286
86740SOL    HW262118   6.670   8.611   5.195
86741SOL     OW62119   3.159   9.907   0.265
86741SOL    HW162120   3.155   9.866   0.178
86741SOL    HW262121   3.136   9.836   0.325
86742SOL     OW62122  14.614   7.399   3.788
86742SOL    HW162123  14.530   7.426   3.826
86742SOL    HW262124  14.628   7.310   3.820
86743SOL     OW62125   1.035   2.775  13.744
86743SOL    HW162126   0.996   2.783  13.657
86743SOL    HW262127   1.069   2.862  13.764
86744SOL     OW62128   1.917   4.105   8.509
86744SOL    HW162129   1.987   4.110   8.574
86744SOL    HW262130   1.957   4.137   8.428
86745SOL     OW62131  13.738   3.903   5.970
86745SOL    HW162132  13.699   3.962   5.906
86745SOL    HW262133  13.689   3.918   6.051
86746SOL     OW62134   1.972   8.867   1.680
86746SOL    HW162135   1.940   8.781   1.708
86746SOL    HW262136   1.893   8.921   1.674
86747SOL     OW62137  11.416  14.574   8.251
86747SOL    HW162138  11.321  14.565   8.251
86747SOL    HW262139  11.439  14.586   8.158
86748SOL     OW62140   1.205  14.094   3.610
86748SOL    HW162141   1.185  14.101   3.703
86748SOL    HW262142   1.138  14.147   3.567
86749SOL     OW62143   4.511  10.970   6.502
86749SOL    HW162144   4.453  11.023   6.557
86749SOL    HW262145   4.456  10.897   6.473
86750SOL     OW62146   9.051  14.256   6.264
86750SOL    HW162147   8.987  14.194   6.227
86750SOL    HW262148   9.078  14.215   6.346
86751SOL     OW62149   8.532   2.243  14.030
86751SOL    HW162150   8.575   2.328  14.020
86751SOL    HW262151   8.467   2.256  14.099
86752SOL     OW62152  11.599   9.525   6.162
86752SOL    HW162153  11.598   9.459   6.093
86752SOL    HW262154  11.585   9.475   6.243
86753SOL     OW62155   2.120  12.311   2.342
86753SOL    HW162156   2.132  12.327   2.436
86753SOL    HW262157   2.208  12.293   2.309
86754SOL     OW62158   2.064   4.912  11.976
86754SOL    HW162159   2.155   4.901  12.004
86754SOL    HW262160   2.031   4.823  11.965
86755SOL     OW62161  10.691   0.213  11.976
86755SOL    HW162162  10.658   0.163  11.901
86755SOL    HW262163  10.665   0.303  11.957
86756SOL     OW62164   1.142  12.371  10.025
86756SOL    HW162165   1.077  12.317   9.981
86756SOL    HW262166   1.171  12.434   9.958
86757SOL     OW62167  14.757  14.867   2.411
86757SOL    HW162168  14.679   0.007   2.464
86757SOL    HW262169  14.732   0.024   2.324
86758SOL     OW62170  10.502  13.297   4.674
86758SOL    HW162171  10.452  13.379   4.681
86758SOL    HW262172  10.563  13.313   4.602
86759SOL     OW62173   5.638   0.213  10.256
86759SOL    HW162174   5.683   0.297  10.245
86759SOL    HW262175   5.707   0.152  10.284
86760SOL     OW62176   2.744  11.855  10.929
86760SOL    HW162177   2.732  11.909  10.850
86760SOL    HW262178   2.715  11.768  10.903
86761SOL     OW62179   5.059   4.224   1.655
86761SOL    HW162180   5.077   4.283   1.582
86761SOL    HW262181   5.050   4.138   1.614
86762SOL     OW62182  10.788   9.563  12.913
86762SOL    HW162183  10.808   9.641  12.965
86762SOL    HW262184  10.698   9.576  12.883
86763SOL     OW62185   9.530   3.326  13.207
86763SOL    HW162186   9.595   3.319  13.278
86763SOL    HW262187   9.552   3.254  13.148
86764SOL     OW62188   8.384   2.313  12.010
86764SOL    HW162189   8.314   2.277  11.955
86764SOL    HW262190   8.447   2.242  12.017
86765SOL     OW62191   2.779  11.403  11.034
86765SOL    HW162192   2.755  11.336  11.097
86765SOL    HW262193   2.695  11.443  11.009
86766SOL     OW62194   6.718  10.629   1.354
86766SOL    HW162195   6.760  10.584   1.281
86766SOL    HW262196   6.713  10.564   1.424
86767SOL     OW62197   6.537   2.038   0.231
86767SOL    HW162198   6.460   2.043   0.174
86767SOL    HW262199   6.501   2.041   0.320
86768SOL     OW62200   1.354   8.135   1.690
86768SOL    HW162201   1.326   8.147   1.599
86768SOL    HW262202   1.293   8.189   1.741
86769SOL     OW62203  11.839   9.312   0.953
86769SOL    HW162204  11.890   9.272   1.024
86769SOL    HW262205  11.749   9.284   0.971
86770SOL     OW62206   1.009  11.501   8.077
86770SOL    HW162207   0.970  11.581   8.043
86770SOL    HW262208   0.958  11.430   8.037
86771SOL     OW62209  14.255  12.087   3.760
86771SOL    HW162210  14.269  11.996   3.783
86771SOL    HW262211  14.170  12.110   3.799
86772SOL     OW62212   2.695   9.279   3.214
86772SOL    HW162213   2.601   9.260   3.215
86772SOL    HW262214   2.707   9.343   3.284
86773SOL     OW62215  13.246   9.579   6.590
86773SOL    HW162216  13.198   9.514   6.538
86773SOL    HW262217  13.199   9.661   6.576
86774SOL     OW62218   2.892   6.881   5.826
86774SOL    HW162219   2.861   6.837   5.906
86774SOL    HW262220   2.975   6.838   5.806
86775SOL     OW62221   8.132   6.474   8.860
86775SOL    HW162222   8.202   6.539   8.856
86775SOL    HW262223   8.053   6.522   8.835
86776SOL     OW62224  13.397   2.319   4.888
86776SOL    HW162225  13.384   2.334   4.981
86776SOL    HW262226  13.341   2.384   4.844
86777SOL     OW62227  11.585   1.222  10.194
86777SOL    HW162228  11.572   1.173  10.113
86777SOL    HW262229  11.513   1.285  10.196
86778SOL     OW62230  11.249   4.620  12.166
86778SOL    HW162231  11.307   4.564  12.218
86778SOL    HW262232  11.290   4.706  12.168
86779SOL     OW62233   9.299   1.762   1.449
86779SOL    HW162234   9.326   1.705   1.377
86779SOL    HW262235   9.311   1.709   1.528
86780SOL     OW62236   3.880   8.585  12.342
86780SOL    HW162237   3.807   8.644  12.363
86780SOL    HW262238   3.887   8.589  12.247
86781SOL     OW62239   3.837   7.517  11.948
86781SOL    HW162240   3.745   7.526  11.923
86781SOL    HW262241   3.880   7.481  11.870
86782SOL     OW62242   0.068  12.118   9.521
86782SOL    HW162243   0.074  12.188   9.585
86782SOL    HW262244   0.051  12.039   9.573
86783SOL     OW62245   0.436  13.448  14.123
86783SOL    HW162246   0.521  13.406  14.110
86783SOL    HW262247   0.412  13.427  14.213
86784SOL     OW62248   9.537  12.823   3.250
86784SOL    HW162249   9.443  12.809   3.242
86784SOL    HW262250   9.551  12.912   3.218
86785SOL     OW62251   7.908   1.618   6.583
86785SOL    HW162252   7.982   1.674   6.609
86785SOL    HW262253   7.908   1.621   6.487
86786SOL     OW62254  12.509   6.722   7.660
86786SOL    HW162255  12.531   6.729   7.567
86786SOL    HW262256  12.573   6.778   7.704
86787SOL     OW62257  11.595   0.869  14.221
86787SOL    HW162258  11.585   0.914  14.304
86787SOL    HW262259  11.607   0.939  14.156
86788SOL     OW62260   0.122  12.865  11.239
86788SOL    HW162261   0.152  12.851  11.329
86788SOL    HW262262   0.035  12.826  11.237
86789SOL     OW62263   2.479   8.977   8.853
86789SOL    HW162264   2.468   9.036   8.928
86789SOL    HW262265   2.525   9.030   8.787
86790SOL     OW62266  13.080  12.004  11.503
86790SOL    HW162267  13.146  11.943  11.473
86790SOL    HW262268  13.027  11.954  11.565
86791SOL     OW62269  13.184   4.664   1.262
86791SOL    HW162270  13.158   4.573   1.252
86791SOL    HW262271  13.272   4.668   1.226
86792SOL     OW62272   7.058   0.550  13.237
86792SOL    HW162273   6.978   0.589  13.272
86792SOL    HW262274   7.062   0.464  13.278
86793SOL     OW62275   0.380   7.835   1.536
86793SOL    HW162276   0.470   7.842   1.569
86793SOL    HW262277   0.384   7.765   1.471
86794SOL     OW62278  14.669   5.574  10.912
86794SOL    HW162279  14.688   5.601  10.822
86794SOL    HW262280  14.723   5.631  10.966
86795SOL     OW62281  10.499  11.576   2.660
86795SOL    HW162282  10.474  11.601   2.571
86795SOL    HW262283  10.595  11.582   2.660
86796SOL     OW62284  11.334   7.898   9.487
86796SOL    HW162285  11.265   7.961   9.468
86796SOL    HW262286  11.411   7.951   9.508
86797SOL     OW62287   3.968  10.110   5.112
86797SOL    HW162288   3.898  10.146   5.166
86797SOL    HW262289   3.934  10.026   5.080
86798SOL     OW62290   2.385  10.139   5.229
86798SOL    HW162291   2.360  10.167   5.141
86798SOL    HW262292   2.356  10.048   5.234
86799SOL     OW62293   8.223   1.321  10.194
86799SOL    HW162294   8.151   1.340  10.254
86799SOL    HW262295   8.182   1.318  10.108
86800SOL     OW62296   9.107   6.003  12.381
86800SOL    HW162297   9.102   5.987  12.287
86800SOL    HW262298   9.039   6.069  12.397
86801SOL     OW62299   3.522   2.971  14.443
86801SOL    HW162300   3.486   3.046  14.395
86801SOL    HW262301   3.594   3.007  14.494
86802SOL     OW62302   6.534  11.576   6.839
86802SOL    HW162303   6.454  11.608   6.880
86802SOL    HW262304   6.505  11.537   6.757
86803SOL     OW62305   4.572  12.608   0.139
86803SOL    HW162306   4.524  12.664   0.078
86803SOL    HW262307   4.600  12.666   0.209
86804SOL     OW62308   8.222  12.454   9.340
86804SOL    HW162309   8.165  12.414   9.406
86804SOL    HW262310   8.172  12.448   9.259
86805SOL     OW62311   9.206  14.597   6.986
86805SOL    HW162312   9.291  14.552   6.985
86805SOL    HW262313   9.226  14.685   7.017
86806SOL     OW62314   5.970   2.641   1.054
86806SOL    HW162315   6.006   2.710   0.999
86806SOL    HW262316   5.961   2.566   0.996
86807SOL     OW62317  11.037   4.733  10.009
86807SOL    HW162318  11.058   4.751   9.918
86807SOL    HW262319  10.989   4.811  10.038
86808SOL     OW62320   1.286   7.524   3.243
86808SOL    HW162321   1.239   7.606   3.227
86808SOL    HW262322   1.376   7.552   3.262
86809SOL     OW62323   2.294  11.186   9.375
86809SOL    HW162324   2.219  11.226   9.419
86809SOL    HW262325   2.369  11.238   9.405
86810SOL     OW62326   1.763  11.258   6.564
86810SOL    HW162327   1.833  11.196   6.542
86810SOL    HW262328   1.683  11.212   6.540
86811SOL     OW62329   8.141   6.605  14.615
86811SOL    HW162330   8.097   6.640  14.692
86811SOL    HW262331   8.142   6.678  14.552
86812SOL     OW62332   3.753   0.621  14.452
86812SOL    HW162333   3.726   0.614  14.360
86812SOL    HW262334   3.830   0.565  14.458
86813SOL     OW62335  10.716   9.750   6.804
86813SOL    HW162336  10.624   9.736   6.785
86813SOL    HW262337  10.722   9.842   6.830
86814SOL     OW62338   6.515   0.630  11.341
86814SOL    HW162339   6.546   0.717  11.366
86814SOL    HW262340   6.507   0.583  11.424
86815SOL     OW62341  10.870   7.022  10.380
86815SOL    HW162342  10.881   7.117  10.376
86815SOL    HW262343  10.911   6.990  10.300
86816SOL     OW62344  12.665   8.515  10.934
86816SOL    HW162345  12.635   8.497  11.023
86816SOL    HW262346  12.713   8.597  10.941
86817SOL     OW62347  13.640  13.484   2.595
86817SOL    HW162348  13.548  13.464   2.614
86817SOL    HW262349  13.639  13.520   2.506
86818SOL     OW62350  13.819   0.248   4.822
86818SOL    HW162351  13.822   0.153   4.812
86818SOL    HW262352  13.908   0.272   4.846
86819SOL     OW62353   8.743   5.190  14.700
86819SOL    HW162354   8.751   5.103  14.739
86819SOL    HW262355   8.674   5.181  14.635
86820SOL     OW62356   6.432   2.965   5.891
86820SOL    HW162357   6.411   2.890   5.834
86820SOL    HW262358   6.382   2.949   5.971
86821SOL     OW62359  10.449  11.374   3.042
86821SOL    HW162360  10.502  11.444   3.079
86821SOL    HW262361  10.365  11.382   3.087
86822SOL     OW62362   0.300   5.891   2.453
86822SOL    HW162363   0.272   5.814   2.403
86822SOL    HW262364   0.321   5.957   2.387
86823SOL     OW62365  12.268  10.263   6.858
86823SOL    HW162366  12.231  10.280   6.772
86823SOL    HW262367  12.273  10.167   6.863
86824SOL     OW62368  10.109  13.774   2.997
86824SOL    HW162369  10.114  13.678   3.002
86824SOL    HW262370  10.191  13.804   3.036
86825SOL     OW62371   0.169   8.620  12.863
86825SOL    HW162372   0.083   8.637  12.825
86825SOL    HW262373   0.204   8.548  12.811
86826SOL     OW62374   1.411   3.477  13.212
86826SOL    HW162375   1.478   3.409  13.210
86826SOL    HW262376   1.329   3.429  13.200
86827SOL     OW62377   0.396   5.012   1.297
86827SOL    HW162378   0.463   4.974   1.240
86827SOL    HW262379   0.426   5.100   1.315
86828SOL     OW62380   3.744   3.894   6.323
86828SOL    HW162381   3.672   3.907   6.385
86828SOL    HW262382   3.823   3.897   6.377
86829SOL     OW62383   0.279   1.437   8.067
86829SOL    HW162384   0.306   1.516   8.020
86829SOL    HW262385   0.198   1.410   8.025
86830SOL     OW62386   1.942   5.308  12.915
86830SOL    HW162387   2.037   5.297  12.913
86830SOL    HW262388   1.909   5.248  12.848
86831SOL     OW62389   6.407   7.431   0.524
86831SOL    HW162390   6.456   7.512   0.509
86831SOL    HW262391   6.454   7.365   0.473
86832SOL     OW62392   7.366  11.143   4.438
86832SOL    HW162393   7.382  11.134   4.532
86832SOL    HW262394   7.454  11.152   4.399
86833SOL     OW62395  10.262   6.787   4.234
86833SOL    HW162396  10.282   6.753   4.321
86833SOL    HW262397  10.323   6.861   4.223
86834SOL     OW62398  10.915   2.233   7.848
86834SOL    HW162399  10.871   2.164   7.898
86834SOL    HW262400  10.872   2.231   7.762
86835SOL     OW62401  12.423  14.458   8.336
86835SOL    HW162402  12.463  14.535   8.377
86835SOL    HW262403  12.494  14.416   8.287
86836SOL     OW62404   6.479   8.120   6.076
86836SOL    HW162405   6.517   8.032   6.070
86836SOL    HW262406   6.458   8.143   5.986
86837SOL     OW62407   1.894  14.209   5.304
86837SOL    HW162408   1.811  14.184   5.263
86837SOL    HW262409   1.961  14.183   5.240
86838SOL     OW62410   4.103  12.673   1.207
86838SOL    HW162411   4.072  12.611   1.141
86838SOL    HW262412   4.042  12.746   1.201
86839SOL     OW62413  14.273   6.198   7.770
86839SOL    HW162414  14.195   6.148   7.793
86839SOL    HW262415  14.278   6.192   7.674
86840SOL     OW62416   9.464  13.364   9.688
86840SOL    HW162417   9.505  13.445   9.719
86840SOL    HW262418   9.374  13.388   9.668
86841SOL     OW62419  10.287   7.785  10.462
86841SOL    HW162420  10.194   7.805  10.470
86841SOL    HW262421  10.325   7.814  10.546
86842SOL     OW62422   0.186   4.647  12.542
86842SOL    HW162423   0.142   4.592  12.477
86842SOL    HW262424   0.117   4.701  12.580
86843SOL     OW62425   4.267   7.153   0.644
86843SOL    HW162426   4.346   7.204   0.628
86843SOL    HW262427   4.271   7.081   0.581
86844SOL     OW62428   1.547   0.394   8.305
86844SOL    HW162429   1.599   0.401   8.225
86844SOL    HW262430   1.462   0.359   8.276
86845SOL     OW62431  10.699   5.711   4.754
86845SOL    HW162432  10.729   5.795   4.719
86845SOL    HW262433  10.628   5.735   4.814
86846SOL     OW62434   3.573   0.743   0.579
86846SOL    HW162435   3.652   0.718   0.531
86846SOL    HW262436   3.605   0.792   0.654
86847SOL     OW62437   9.962   1.281   1.374
86847SOL    HW162438   9.882   1.231   1.365
86847SOL    HW262439   9.996   1.290   1.285
86848SOL     OW62440   8.071  11.558   9.030
86848SOL    HW162441   8.070  11.464   9.049
86848SOL    HW262442   7.982  11.588   9.051
86849SOL     OW62443   7.779   1.872   8.645
86849SOL    HW162444   7.860   1.832   8.614
86849SOL    HW262445   7.803   1.962   8.666
86850SOL     OW62446   2.638  14.813   5.556
86850SOL    HW162447   2.565   0.001   5.542
86850SOL    HW262448   2.673  14.837   5.642
86851SOL     OW62449   7.709   7.209  12.335
86851SOL    HW162450   7.785   7.153  12.353
86851SOL    HW262451   7.680   7.183  12.247
86852SOL     OW62452   1.240   1.779   7.287
86852SOL    HW162453   1.282   1.863   7.303
86852SOL    HW262454   1.312   1.717   7.278
86853SOL     OW62455  12.028   8.429   5.782
86853SOL    HW162456  12.005   8.464   5.868
86853SOL    HW262457  12.123   8.421   5.783
86854SOL     OW62458  12.635   9.755   5.318
86854SOL    HW162459  12.689   9.678   5.340
86854SOL    HW262460  12.545   9.724   5.328
86855SOL     OW62461   3.214   2.609   2.914
86855SOL    HW162462   3.138   2.560   2.944
86855SOL    HW262463   3.223   2.681   2.978
86856SOL     OW62464   3.474  14.724   1.154
86856SOL    HW162465   3.433  14.747   1.070
86856SOL    HW262466   3.417  14.762   1.220
86857SOL     OW62467  10.520   6.429  10.249
86857SOL    HW162468  10.516   6.523  10.266
86857SOL    HW262469  10.614   6.408  10.250
86858SOL     OW62470  12.174   7.959   9.581
86858SOL    HW162471  12.158   7.963   9.676
86858SOL    HW262472  12.093   7.925   9.544
86859SOL     OW62473   0.652  13.816  10.019
86859SOL    HW162474   0.707  13.805  10.096
86859SOL    HW262475   0.641  13.727   9.985
86860SOL     OW62476  11.513   2.114   2.580
86860SOL    HW162477  11.557   2.053   2.638
86860SOL    HW262478  11.546   2.093   2.493
86861SOL     OW62479  10.534   4.730  11.987
86861SOL    HW162480  10.507   4.643  12.017
86861SOL    HW262481  10.462   4.787  12.011
86862SOL     OW62482   4.201  12.619   7.974
86862SOL    HW162483   4.111  12.608   8.003
86862SOL    HW262484   4.200  12.596   7.881
86863SOL     OW62485   8.489   3.711  12.895
86863SOL    HW162486   8.568   3.736  12.848
86863SOL    HW262487   8.438   3.792  12.903
86864SOL     OW62488   4.684  14.327  14.820
86864SOL    HW162489   4.761  14.287  14.779
86864SOL    HW262490   4.689  14.299   0.039
86865SOL     OW62491   0.912   4.145   5.484
86865SOL    HW162492   0.925   4.225   5.434
86865SOL    HW262493   0.931   4.169   5.574
86866SOL     OW62494   3.833  10.937   9.714
86866SOL    HW162495   3.770  10.877   9.754
86866SOL    HW262496   3.787  10.973   9.638
86867SOL     OW62497   3.160  12.565   2.253
86867SOL    HW162498   3.075  12.576   2.211
86867SOL    HW262499   3.178  12.649   2.294
86868SOL     OW62500  13.643   6.653  14.328
86868SOL    HW162501  13.619   6.572  14.281
86868SOL    HW262502  13.617   6.723  14.269
86869SOL     OW62503   7.075  11.406   1.803
86869SOL    HW162504   6.980  11.413   1.813
86869SOL    HW262505   7.105  11.375   1.888
86870SOL     OW62506   5.279   9.859  13.248
86870SOL    HW162507   5.268   9.810  13.166
86870SOL    HW262508   5.338   9.931  13.226
86871SOL     OW62509   7.169  14.442  14.171
86871SOL    HW162510   7.182  14.452  14.076
86871SOL    HW262511   7.155  14.531  14.203
86872SOL     OW62512  13.400   4.444   1.976
86872SOL    HW162513  13.444   4.512   2.027
86872SOL    HW262514  13.379   4.376   2.041
86873SOL     OW62515   0.126   7.433  10.132
86873SOL    HW162516   0.084   7.479  10.204
86873SOL    HW262517   0.055   7.385  10.090
86874SOL     OW62518   8.115   5.819   7.345
86874SOL    HW162519   8.124   5.900   7.396
86874SOL    HW262520   8.117   5.749   7.410
86875SOL     OW62521   9.164   2.125   5.459
86875SOL    HW162522   9.135   2.123   5.550
86875SOL    HW262523   9.152   2.216   5.432
86876SOL     OW62524   1.969   5.038   6.304
86876SOL    HW162525   1.923   5.067   6.383
86876SOL    HW262526   1.902   4.993   6.253
86877SOL     OW62527   4.836   2.704  13.121
86877SOL    HW162528   4.902   2.770  13.099
86877SOL    HW262529   4.809   2.727  13.210
86878SOL     OW62530   8.799   4.121  12.880
86878SOL    HW162531   8.834   4.184  12.817
86878SOL    HW262532   8.865   4.053  12.886
86879SOL     OW62533  12.582  12.945  10.636
86879SOL    HW162534  12.671  12.912  10.644
86879SOL    HW262535  12.539  12.884  10.575
86880SOL     OW62536   9.461   5.133   8.512
86880SOL    HW162537   9.454   5.159   8.604
86880SOL    HW262538   9.495   5.210   8.468
86881SOL     OW62539   9.736  10.873   0.296
86881SOL    HW162540   9.701  10.947   0.246
86881SOL    HW262541   9.830  10.875   0.279
86882SOL     OW62542  13.737  13.822  11.428
86882SOL    HW162543  13.677  13.763  11.382
86882SOL    HW262544  13.684  13.860  11.498
86883SOL     OW62545   7.364  12.048  10.526
86883SOL    HW162546   7.344  12.141  10.516
86883SOL    HW262547   7.409  12.025  10.445
86884SOL     OW62548   6.196  12.887   0.341
86884SOL    HW162549   6.130  12.880   0.410
86884SOL    HW262550   6.172  12.967   0.293
86885SOL     OW62551  11.047   3.863  13.803
86885SOL    HW162552  11.108   3.864  13.729
86885SOL    HW262553  11.029   3.770  13.818
86886SOL     OW62554   9.357   2.531   8.879
86886SOL    HW162555   9.358   2.586   8.958
86886SOL    HW262556   9.449   2.517   8.857
86887SOL     OW62557   6.205   3.403   7.800
86887SOL    HW162558   6.285   3.362   7.767
86887SOL    HW262559   6.185   3.471   7.735
86888SOL     OW62560   2.450  11.717   3.724
86888SOL    HW162561   2.525  11.729   3.665
86888SOL    HW262562   2.405  11.640   3.690
86889SOL     OW62563   9.936  13.249   1.835
86889SOL    HW162564   9.902  13.303   1.907
86889SOL    HW262565   9.888  13.167   1.843
86890SOL     OW62566   8.197   2.544   7.716
86890SOL    HW162567   8.102   2.545   7.701
86890SOL    HW262568   8.227   2.463   7.674
86891SOL     OW62569  11.041   7.901   6.612
86891SOL    HW162570  10.995   7.910   6.529
86891SOL    HW262571  10.989   7.952   6.674
86892SOL     OW62572  10.369   5.658   0.552
86892SOL    HW162573  10.394   5.617   0.635
86892SOL    HW262574  10.275   5.644   0.546
86893SOL     OW62575   6.194   2.909  14.747
86893SOL    HW162576   6.117   2.909  14.690
86893SOL    HW262577   6.165   2.865  14.827
86894SOL     OW62578   8.307   3.170  14.398
86894SOL    HW162579   8.351   3.244  14.439
86894SOL    HW262580   8.314   3.186  14.304
86895SOL     OW62581   1.924   2.031  12.793
86895SOL    HW162582   1.829   2.025  12.778
86895SOL    HW262583   1.962   1.972  12.727
86896SOL     OW62584  13.885   1.731  14.206
86896SOL    HW162585  13.824   1.798  14.175
86896SOL    HW262586  13.854   1.650  14.165
86897SOL     OW62587  11.354   2.540  12.678
86897SOL    HW162588  11.282   2.584  12.723
86897SOL    HW262589  11.430   2.597  12.693
86898SOL     OW62590   6.459  13.895   0.759
86898SOL    HW162591   6.376  13.883   0.805
86898SOL    HW262592   6.521  13.920   0.827
86899SOL     OW62593   3.699  14.768   5.709
86899SOL    HW162594   3.631  14.834   5.724
86899SOL    HW262595   3.770  14.793   5.768
86900SOL     OW62596   7.877   8.471   2.891
86900SOL    HW162597   7.790   8.511   2.895
86900SOL    HW262598   7.860   8.377   2.886
86901SOL     OW62599   8.771  10.910   6.020
86901SOL    HW162600   8.723  10.872   5.946
86901SOL    HW262601   8.731  10.870   6.097
86902SOL     OW62602   7.765   4.628   1.920
86902SOL    HW162603   7.687   4.631   1.865
86902SOL    HW262604   7.761   4.542   1.962
86903SOL     OW62605  10.728   5.201   7.620
86903SOL    HW162606  10.655   5.141   7.605
86903SOL    HW262607  10.776   5.203   7.537
86904SOL     OW62608   1.856   0.613  10.762
86904SOL    HW162609   1.792   0.683  10.775
86904SOL    HW262610   1.934   0.658  10.729
86905SOL     OW62611   6.950   5.096   8.453
86905SOL    HW162612   6.986   5.151   8.383
86905SOL    HW262613   7.012   5.105   8.525
86906SOL     OW62614   2.059   9.288   1.650
86906SOL    HW162615   1.970   9.277   1.616
86906SOL    HW262616   2.101   9.346   1.585
86907SOL     OW62617   7.759   1.964   3.325
86907SOL    HW162618   7.697   1.994   3.391
86907SOL    HW262619   7.832   1.928   3.376
86908SOL     OW62620   9.056   0.484  13.477
86908SOL    HW162621   8.975   0.527  13.451
86908SOL    HW262622   9.125   0.542  13.445
86909SOL     OW62623  12.316   7.664   4.876
86909SOL    HW162624  12.372   7.735   4.907
86909SOL    HW262625  12.376   7.595   4.849
86910SOL     OW62626  11.654  14.304   6.489
86910SOL    HW162627  11.568  14.342   6.508
86910SOL    HW262628  11.709  14.329   6.563
86911SOL     OW62629   9.719  14.410   5.850
86911SOL    HW162630   9.637  14.448   5.883
86911SOL    HW262631   9.700  14.388   5.759
86912SOL     OW62632  14.503   8.104   2.474
86912SOL    HW162633  14.478   8.190   2.442
86912SOL    HW262634  14.597   8.110   2.489
86913SOL     OW62635   3.097   9.738   8.125
86913SOL    HW162636   3.190   9.741   8.103
86913SOL    HW262637   3.083   9.650   8.160
86914SOL     OW62638  11.867   0.001   8.540
86914SOL    HW162639  11.918   0.068   8.585
86914SOL    HW262640  11.814   0.050   8.476
86915SOL     OW62641   9.704  11.513   7.466
86915SOL    HW162642   9.729  11.520   7.374
86915SOL    HW262643   9.729  11.424   7.491
86916SOL     OW62644   4.969   4.745  12.492
86916SOL    HW162645   4.895   4.752  12.551
86916SOL    HW262646   5.028   4.815  12.519
86917SOL     OW62647   4.030  12.989   9.338
86917SOL    HW162648   4.033  13.003   9.243
86917SOL    HW262649   4.121  12.969   9.362
86918SOL     OW62650   9.412   9.853  13.093
86918SOL    HW162651   9.352   9.912  13.046
86918SOL    HW262652   9.462   9.911  13.151
86919SOL     OW62653  14.545   7.814   3.791
86919SOL    HW162654  14.476   7.833   3.855
86919SOL    HW262655  14.609   7.763   3.840
86920SOL     OW62656   0.608   8.330   5.306
86920SOL    HW162657   0.582   8.342   5.215
86920SOL    HW262658   0.559   8.252   5.335
86921SOL     OW62659   6.561   1.842   7.984
86921SOL    HW162660   6.470   1.868   7.994
86921SOL    HW262661   6.561   1.747   7.994
86922SOL     OW62662  10.419   6.694  12.041
86922SOL    HW162663  10.417   6.619  11.981
86922SOL    HW262664  10.359   6.758  12.002
86923SOL     OW62665   5.200   7.250   2.844
86923SOL    HW162666   5.172   7.286   2.928
86923SOL    HW262667   5.118   7.239   2.795
86924SOL     OW62668   9.209   9.108   4.186
86924SOL    HW162669   9.238   9.019   4.163
86924SOL    HW262670   9.120   9.096   4.220
86925SOL     OW62671   2.832  11.516  13.781
86925SOL    HW162672   2.830  11.600  13.735
86925SOL    HW262673   2.748  11.475  13.760
86926SOL     OW62674   3.040  13.561   3.863
86926SOL    HW162675   2.994  13.544   3.780
86926SOL    HW262676   2.998  13.502   3.926
86927SOL     OW62677  11.720   0.539   0.611
86927SOL    HW162678  11.658   0.490   0.665
86927SOL    HW262679  11.721   0.627   0.648
86928SOL     OW62680   1.527   9.749   2.557
86928SOL    HW162681   1.443   9.705   2.568
86928SOL    HW262682   1.592   9.679   2.569
86929SOL     OW62683   4.744   7.394  10.833
86929SOL    HW162684   4.819   7.450  10.814
86929SOL    HW262685   4.781   7.306  10.842
86930SOL     OW62686   8.865   8.527  10.124
86930SOL    HW162687   8.833   8.490  10.042
86930SOL    HW262688   8.961   8.525  10.115
86931SOL     OW62689   3.516   8.736   9.453
86931SOL    HW162690   3.467   8.780   9.383
86931SOL    HW262691   3.503   8.791   9.530
86932SOL     OW62692   0.887   9.405   0.456
86932SOL    HW162693   0.847   9.459   0.388
86932SOL    HW262694   0.814   9.380   0.512
86933SOL     OW62695  11.829   7.617   9.805
86933SOL    HW162696  11.762   7.610   9.873
86933SOL    HW262697  11.887   7.686   9.837
86934SOL     OW62698   6.856   3.584  10.519
86934SOL    HW162699   6.784   3.646  10.533
86934SOL    HW262700   6.844   3.517  10.587
86935SOL     OW62701   2.696   1.034   2.669
86935SOL    HW162702   2.650   1.118   2.675
86935SOL    HW262703   2.626   0.970   2.657
86936SOL     OW62704   4.006  13.665   5.236
86936SOL    HW162705   4.073  13.732   5.224
86936SOL    HW262706   4.051  13.595   5.284
86937SOL     OW62707   2.394  14.057   0.303
86937SOL    HW162708   2.348  14.135   0.272
86937SOL    HW262709   2.476  14.091   0.340
86938SOL     OW62710  13.536   0.771   2.344
86938SOL    HW162711  13.547   0.702   2.410
86938SOL    HW262712  13.540   0.852   2.394
86939SOL     OW62713   0.477  11.075   4.554
86939SOL    HW162714   0.527  10.999   4.522
86939SOL    HW262715   0.386  11.056   4.531
86940SOL     OW62716  10.866  10.412  14.577
86940SOL    HW162717  10.807  10.397  14.503
86940SOL    HW262718  10.946  10.365  14.552
86941SOL     OW62719  12.661   0.741   1.362
86941SOL    HW162720  12.620   0.704   1.440
86941SOL    HW262721  12.675   0.833   1.383
86942SOL     OW62722  12.600   4.906   7.940
86942SOL    HW162723  12.639   4.882   7.856
86942SOL    HW262724  12.668   4.885   8.005
86943SOL     OW62725  11.330  10.226   2.389
86943SOL    HW162726  11.390  10.226   2.314
86943SOL    HW262727  11.267  10.294   2.369
86944SOL     OW62728   9.971   6.979   3.405
86944SOL    HW162729  10.061   6.988   3.435
86944SOL    HW262730   9.918   6.987   3.484
86945SOL     OW62731  10.907   4.384   7.581
86945SOL    HW162732  10.820   4.360   7.548
86945SOL    HW262733  10.902   4.368   7.676
86946SOL     OW62734  11.143   8.026  10.042
86946SOL    HW162735  11.202   8.097  10.067
86946SOL    HW262736  11.186   7.985   9.967
86947SOL     OW62737   1.647   6.914   7.859
86947SOL    HW162738   1.723   6.913   7.801
86947SOL    HW262739   1.683   6.938   7.945
86948SOL     OW62740   3.077   2.423   7.335
86948SOL    HW162741   2.997   2.426   7.282
86948SOL    HW262742   3.096   2.515   7.353
86949SOL     OW62743   4.399   2.858   7.072
86949SOL    HW162744   4.347   2.919   7.020
86949SOL    HW262745   4.419   2.906   7.153
86950SOL     OW62746  12.223   6.646   3.297
86950SOL    HW162747  12.258   6.624   3.211
86950SOL    HW262748  12.163   6.575   3.318
86951SOL     OW62749  10.093   3.378  12.819
86951SOL    HW162750  10.167   3.362  12.878
86951SOL    HW262751  10.019   3.394  12.877
86952SOL     OW62752   2.023   6.252   0.218
86952SOL    HW162753   2.086   6.202   0.270
86952SOL    HW262754   2.044   6.229   0.127
86953SOL     OW62755   7.414   8.132  10.189
86953SOL    HW162756   7.346   8.179  10.141
86953SOL    HW262757   7.464   8.086  10.121
86954SOL     OW62758   0.684   5.178   6.404
86954SOL    HW162759   0.674   5.096   6.452
86954SOL    HW262760   0.754   5.160   6.341
86955SOL     OW62761   6.960  10.406   7.293
86955SOL    HW162762   6.889  10.355   7.332
86955SOL    HW262763   7.012  10.435   7.368
86956SOL     OW62764   5.185  14.033   6.279
86956SOL    HW162765   5.280  14.017   6.275
86956SOL    HW262766   5.176  14.127   6.260
86957SOL     OW62767   3.154   5.785  13.593
86957SOL    HW162768   3.124   5.848  13.659
86957SOL    HW262769   3.239   5.819  13.564
86958SOL     OW62770   5.910   5.295   3.384
86958SOL    HW162771   5.949   5.362   3.329
86958SOL    HW262772   5.829   5.335   3.416
86959SOL     OW62773  14.336   2.121  13.459
86959SOL    HW162774  14.328   2.097  13.367
86959SOL    HW262775  14.265   2.183  13.474
86960SOL     OW62776  14.117   9.815   6.276
86960SOL    HW162777  14.129   9.722   6.256
86960SOL    HW262778  14.205   9.848   6.291
86961SOL     OW62779   4.711  12.502  13.647
86961SOL    HW162780   4.653  12.501  13.723
86961SOL    HW262781   4.743  12.412  13.641
86962SOL     OW62782   5.375   6.179   6.000
86962SOL    HW162783   5.405   6.266   6.027
86962SOL    HW262784   5.355   6.134   6.082
86963SOL     OW62785   4.384   7.463  13.124
86963SOL    HW162786   4.388   7.522  13.049
86963SOL    HW262787   4.319   7.503  13.182
86964SOL     OW62788   0.683   3.816   1.432
86964SOL    HW162789   0.745   3.885   1.409
86964SOL    HW262790   0.738   3.742   1.458
86965SOL     OW62791  14.320   5.339  10.688
86965SOL    HW162792  14.416   5.341  10.689
86965SOL    HW262793  14.294   5.422  10.725
86966SOL     OW62794  12.386  13.950   3.019
86966SOL    HW162795  12.350  14.015   2.959
86966SOL    HW262796  12.394  13.871   2.966
86967SOL     OW62797   0.022   8.191   7.884
86967SOL    HW162798  14.802   8.174   7.863
86967SOL    HW262799   0.053   8.248   7.814
86968SOL     OW62800  12.322   0.163  10.978
86968SOL    HW162801  12.352   0.231  11.038
86968SOL    HW262802  12.325   0.205  10.892
86969SOL     OW62803  10.303   4.055   1.015
86969SOL    HW162804  10.356   4.028   1.090
86969SOL    HW262805  10.240   4.118   1.052
86970SOL     OW62806   7.245   1.042  11.022
86970SOL    HW162807   7.194   1.095  11.083
86970SOL    HW262808   7.207   0.955  11.028
86971SOL     OW62809  13.694  13.710   9.490
86971SOL    HW162810  13.620  13.653   9.469
86971SOL    HW262811  13.670  13.795   9.454
86972SOL     OW62812   4.330  10.646   7.265
86972SOL    HW162813   4.394  10.713   7.290
86972SOL    HW262814   4.271  10.641   7.340
86973SOL     OW62815   6.425   2.638   2.878
86973SOL    HW162816   6.364   2.670   2.810
86973SOL    HW262817   6.443   2.716   2.932
86974SOL     OW62818   4.890   0.163   2.258
86974SOL    HW162819   4.893   0.244   2.308
86974SOL    HW262820   4.802   0.128   2.273
86975SOL     OW62821  10.884   2.076  14.360
86975SOL    HW162822  10.972   2.113  14.357
86975SOL    HW262823  10.839   2.125  14.429
86976SOL     OW62824   0.049  13.978   7.551
86976SOL    HW162825   0.047  13.977   7.455
86976SOL    HW262826  14.855  14.043   7.575
86977SOL     OW62827   0.543  13.467  10.543
86977SOL    HW162828   0.520  13.441  10.632
86977SOL    HW262829   0.488  13.413  10.487
86978SOL     OW62830   4.254   0.320  14.382
86978SOL    HW162831   4.321   0.387  14.396
86978SOL    HW262832   4.287   0.267  14.309
86979SOL     OW62833   5.688  12.282   4.278
86979SOL    HW162834   5.683  12.187   4.276
86979SOL    HW262835   5.606  12.311   4.237
86980SOL     OW62836  10.379  13.913   0.716
86980SOL    HW162837  10.370  13.866   0.799
86980SOL    HW262838  10.322  13.989   0.726
86981SOL     OW62839   0.622   2.954   6.172
86981SOL    HW162840   0.691   3.014   6.146
86981SOL    HW262841   0.573   2.936   6.092
86982SOL     OW62842  14.269  11.607   5.157
86982SOL    HW162843  14.215  11.606   5.236
86982SOL    HW262844  14.341  11.667   5.178
86983SOL     OW62845   5.840   4.932   5.501
86983SOL    HW162846   5.864   5.023   5.482
86983SOL    HW262847   5.770   4.939   5.566
86984SOL     OW62848  10.119   5.247   4.482
86984SOL    HW162849  10.058   5.243   4.409
86984SOL    HW262850  10.181   5.315   4.458
86985SOL     OW62851   8.045  10.908  11.846
86985SOL    HW162852   8.067  10.815  11.854
86985SOL    HW262853   8.108  10.952  11.903
86986SOL     OW62854   9.514  14.617   2.529
86986SOL    HW162855   9.479  14.668   2.456
86986SOL    HW262856   9.437  14.589   2.578
86987SOL     OW62857   4.705   2.113  11.308
86987SOL    HW162858   4.654   2.048  11.260
86987SOL    HW262859   4.700   2.084  11.399
86988SOL     OW62860   2.454   6.030   0.639
86988SOL    HW162861   2.426   6.121   0.646
86988SOL    HW262862   2.544   6.034   0.608
86989SOL     OW62863  13.570   1.794  11.849
86989SOL    HW162864  13.513   1.718  11.860
86989SOL    HW262865  13.510   1.867  11.834
86990SOL     OW62866  13.738   9.416  13.980
86990SOL    HW162867  13.761   9.324  13.982
86990SOL    HW262868  13.731   9.442  14.072
86991SOL     OW62869   4.140   2.701   5.346
86991SOL    HW162870   4.091   2.638   5.293
86991SOL    HW262871   4.216   2.652   5.377
86992SOL     OW62872   0.352   1.285   4.438
86992SOL    HW162873   0.443   1.269   4.413
86992SOL    HW262874   0.342   1.381   4.433
86993SOL     OW62875   4.501   2.389   7.806
86993SOL    HW162876   4.572   2.437   7.849
86993SOL    HW262877   4.538   2.302   7.789
86994SOL     OW62878   2.505   4.537   9.357
86994SOL    HW162879   2.413   4.509   9.351
86994SOL    HW262880   2.508   4.593   9.435
86995SOL     OW62881  10.211   1.962  13.883
86995SOL    HW162882  10.210   2.058  13.880
86995SOL    HW262883  10.187   1.935  13.794
86996SOL     OW62884   2.433   9.129   4.460
86996SOL    HW162885   2.356   9.138   4.516
86996SOL    HW262886   2.462   9.039   4.473
86997SOL     OW62887  12.536   3.418   7.373
86997SOL    HW162888  12.547   3.477   7.448
86997SOL    HW262889  12.620   3.421   7.328
86998SOL     OW62890   4.785   6.501   2.903
86998SOL    HW162891   4.868   6.455   2.916
86998SOL    HW262892   4.734   6.444   2.846
86999SOL     OW62893  11.119   7.162   0.337
86999SOL    HW162894  11.131   7.252   0.366
86999SOL    HW262895  11.113   7.169   0.242
87000SOL     OW62896   2.645   7.263   4.310
87000SOL    HW162897   2.638   7.291   4.401
87000SOL    HW262898   2.735   7.231   4.302
87001SOL     OW62899  12.132   0.173   9.258
87001SOL    HW162900  12.195   0.240   9.230
87001SOL    HW262901  12.088   0.146   9.178
87002SOL     OW62902   9.182  10.103  11.103
87002SOL    HW162903   9.225  10.107  11.018
87002SOL    HW262904   9.098  10.148  11.090
87003SOL     OW62905  12.940  12.854   0.326
87003SOL    HW162906  12.927  12.770   0.370
87003SOL    HW262907  12.951  12.917   0.398
87004SOL     OW62908   3.186   0.268  14.011
87004SOL    HW162909   3.196   0.323  13.934
87004SOL    HW262910   3.245   0.194  13.996
87005SOL     OW62911  12.824   7.405   6.410
87005SOL    HW162912  12.738   7.438   6.383
87005SOL    HW262913  12.810   7.312   6.428
87006SOL     OW62914   8.919   1.213  13.109
87006SOL    HW162915   8.868   1.238  13.186
87006SOL    HW262916   8.972   1.290  13.090
87007SOL     OW62917   3.482  14.548   6.665
87007SOL    HW162918   3.469  14.500   6.746
87007SOL    HW262919   3.477  14.481   6.596
87008SOL     OW62920   8.030   9.719   4.167
87008SOL    HW162921   7.951   9.673   4.193
87008SOL    HW262922   8.101   9.656   4.179
87009SOL     OW62923   0.137  12.489  10.680
87009SOL    HW162924   0.166  12.419  10.738
87009SOL    HW262925   0.049  12.510  10.709
87010SOL     OW62926  13.085   8.498   8.214
87010SOL    HW162927  13.015   8.510   8.278
87010SOL    HW262928  13.097   8.585   8.176
87011SOL     OW62929   6.534  12.237  14.397
87011SOL    HW162930   6.567  12.148  14.409
87011SOL    HW262931   6.469  12.248  14.466
87012SOL     OW62932   1.256   8.965   1.118
87012SOL    HW162933   1.347   8.995   1.122
87012SOL    HW262934   1.212   9.012   1.190
87013SOL     OW62935  12.487   9.645  13.972
87013SOL    HW162936  12.558   9.595  14.011
87013SOL    HW262937  12.521   9.734  13.964
87014SOL     OW62938  10.346   6.994  11.075
87014SOL    HW162939  10.331   6.986  11.169
87014SOL    HW262940  10.316   6.911  11.039
87015SOL     OW62941  14.391   8.243   8.747
87015SOL    HW162942  14.408   8.173   8.810
87015SOL    HW262943  14.434   8.320   8.784
87016SOL     OW62944  12.977   8.503  10.334
87016SOL    HW162945  13.002   8.454  10.256
87016SOL    HW262946  12.931   8.580  10.301
87017SOL     OW62947   1.207   7.320  14.651
87017SOL    HW162948   1.276   7.376  14.685
87017SOL    HW262949   1.232   7.231  14.678
87018SOL     OW62950   4.576   7.363  11.054
87018SOL    HW162951   4.497   7.391  11.007
87018SOL    HW262952   4.646   7.370  10.990
87019SOL     OW62953  14.509   1.702   7.050
87019SOL    HW162954  14.458   1.633   7.092
87019SOL    HW262955  14.509   1.678   6.957
87020SOL     OW62956   7.814   3.063  13.789
87020SOL    HW162957   7.739   3.114  13.760
87020SOL    HW262958   7.802   2.977  13.749
87021SOL     OW62959   5.942   1.132   2.422
87021SOL    HW162960   5.885   1.112   2.497
87021SOL    HW262961   5.971   1.222   2.438
87022SOL     OW62962   3.930   6.444   6.772
87022SOL    HW162963   4.016   6.480   6.789
87022SOL    HW262964   3.940   6.396   6.690
87023SOL     OW62965  14.249  13.692   0.459
87023SOL    HW162966  14.276  13.667   0.370
87023SOL    HW262967  14.319  13.661   0.515
87024SOL     OW62968  10.921   7.026   6.574
87024SOL    HW162969  10.979   6.955   6.546
87024SOL    HW262970  10.834   6.985   6.581
87025SOL     OW62971  10.441   1.283   3.392
87025SOL    HW162972  10.403   1.235   3.319
87025SOL    HW262973  10.390   1.363   3.399
87026SOL     OW62974  13.849   9.786   6.029
87026SOL    HW162975  13.770   9.734   6.043
87026SOL    HW262976  13.843   9.855   6.095
87027SOL     OW62977   5.106   1.689   4.702
87027SOL    HW162978   5.125   1.601   4.736
87027SOL    HW262979   5.014   1.686   4.676
87028SOL     OW62980  11.778   7.553  12.515
87028SOL    HW162981  11.800   7.516  12.600
87028SOL    HW262982  11.817   7.641  12.516
87029SOL     OW62983  12.986  12.676   4.117
87029SOL    HW162984  13.052  12.746   4.112
87029SOL    HW262985  13.031  12.598   4.086
87030SOL     OW62986   1.657   3.868   9.159
87030SOL    HW162987   1.696   3.915   9.086
87030SOL    HW262988   1.635   3.782   9.123
87031SOL     OW62989  10.392   1.217   1.931
87031SOL    HW162990  10.387   1.296   1.984
87031SOL    HW262991  10.303   1.207   1.895
87032SOL     OW62992  12.407  12.022   2.198
87032SOL    HW162993  12.438  12.056   2.281
87032SOL    HW262994  12.328  12.073   2.179
87033SOL     OW62995   6.275   9.200  10.903
87033SOL    HW162996   6.294   9.114  10.939
87033SOL    HW262997   6.362   9.239  10.889
87034SOL     OW62998  12.667   5.459  10.894
87034SOL    HW162999  12.736   5.520  10.868
87034SOL    HW263000  12.616   5.446  10.814
87035SOL     OW63001  14.249   0.615  11.497
87035SOL    HW163002  14.234   0.703  11.530
87035SOL    HW263003  14.269   0.627  11.404
87036SOL     OW63004   1.969   0.923  11.812
87036SOL    HW163005   1.891   0.978  11.819
87036SOL    HW263006   1.987   0.918  11.718
87037SOL     OW63007   7.664   5.777   3.258
87037SOL    HW163008   7.750   5.760   3.298
87037SOL    HW263009   7.606   5.712   3.297
87038SOL     OW63010  10.612   0.019  12.672
87038SOL    HW163011  10.530  14.867  12.715
87038SOL    HW263012  10.588   0.030  12.579
87039SOL     OW63013   8.727  13.622  10.664
87039SOL    HW163014   8.689  13.640  10.578
87039SOL    HW263015   8.812  13.582  10.645
87040SOL     OW63016   6.266   9.653   3.700
87040SOL    HW163017   6.231   9.587   3.641
87040SOL    HW263018   6.361   9.647   3.689
87041SOL     OW63019  11.000   7.562  13.832
87041SOL    HW163020  10.925   7.596  13.881
87041SOL    HW263021  11.061   7.533  13.900
87042SOL     OW63022  11.218   3.142   6.949
87042SOL    HW163023  11.190   3.206   6.884
87042SOL    HW263024  11.206   3.187   7.033
87043SOL     OW63025  10.650   4.697  13.600
87043SOL    HW163026  10.603   4.712  13.682
87043SOL    HW263027  10.603   4.750  13.536
87044SOL     OW63028   8.201   8.228   8.298
87044SOL    HW163029   8.203   8.291   8.370
87044SOL    HW263030   8.283   8.244   8.250
87045SOL     OW63031   7.789  10.225   6.232
87045SOL    HW163032   7.767  10.294   6.295
87045SOL    HW263033   7.861  10.177   6.273
87046SOL     OW63034   2.961   6.232   6.818
87046SOL    HW163035   3.028   6.174   6.782
87046SOL    HW263036   2.989   6.247   6.909
87047SOL     OW63037   0.990   3.101   8.787
87047SOL    HW163038   1.073   3.108   8.740
87047SOL    HW263039   1.015   3.083   8.878
87048SOL     OW63040   4.660   7.068   1.423
87048SOL    HW163041   4.735   7.100   1.473
87048SOL    HW263042   4.595   7.138   1.428
87049SOL     OW63043  12.408  14.585   7.246
87049SOL    HW163044  12.393  14.644   7.172
87049SOL    HW263045  12.412  14.643   7.322
87050SOL     OW63046  11.481   6.661   3.117
87050SOL    HW163047  11.389   6.638   3.128
87050SOL    HW263048  11.480   6.745   3.072
87051SOL     OW63049   0.265   3.644   4.278
87051SOL    HW163050   0.271   3.725   4.329
87051SOL    HW263051   0.231   3.580   4.340
87052SOL     OW63052   3.781   0.642  10.427
87052SOL    HW163053   3.863   0.674  10.464
87052SOL    HW263054   3.713   0.679  10.484
87053SOL     OW63055   1.229   7.326   7.849
87053SOL    HW163056   1.171   7.265   7.893
87053SOL    HW263057   1.225   7.300   7.757
87054SOL     OW63058   5.160  11.138  14.072
87054SOL    HW163059   5.176  11.046  14.090
87054SOL    HW263060   5.220  11.185  14.130
87055SOL     OW63061  11.392   9.016   0.487
87055SOL    HW163062  11.468   8.981   0.440
87055SOL    HW263063  11.358   8.941   0.536
87056SOL     OW63064  10.220  13.646  12.947
87056SOL    HW163065  10.169  13.576  12.909
87056SOL    HW263066  10.178  13.664  13.031
87057SOL     OW63067   6.086   3.215   8.213
87057SOL    HW163068   6.106   3.306   8.187
87057SOL    HW263069   6.091   3.217   8.309
87058SOL     OW63070  12.356  14.010   5.659
87058SOL    HW163071  12.362  13.989   5.752
87058SOL    HW263072  12.446  14.033   5.634
87059SOL     OW63073   1.034   2.371   9.682
87059SOL    HW163074   1.002   2.368   9.592
87059SOL    HW263075   1.106   2.308   9.684
87060SOL     OW63076  10.715   8.848   3.525
87060SOL    HW163077  10.741   8.757   3.517
87060SOL    HW263078  10.737   8.887   3.440
87061SOL     OW63079   4.292   0.994  11.556
87061SOL    HW163080   4.209   1.038  11.541
87061SOL    HW263081   4.282   0.952  11.642
87062SOL     OW63082   7.637  11.430  14.759
87062SOL    HW163083   7.674  11.399  14.842
87062SOL    HW263084   7.710  11.431  14.698
87063SOL     OW63085   4.137   0.935  10.961
87063SOL    HW163086   4.063   0.874  10.966
87063SOL    HW263087   4.106   1.007  10.906
87064SOL     OW63088   0.898  13.172   6.392
87064SOL    HW163089   0.876  13.165   6.485
87064SOL    HW263090   0.816  13.198   6.351
87065SOL     OW63091  12.024   9.666  13.935
87065SOL    HW163092  11.997   9.757  13.943
87065SOL    HW263093  12.095   9.656  13.998
87066SOL     OW63094   2.073  11.563  12.140
87066SOL    HW163095   2.072  11.652  12.174
87066SOL    HW263096   2.122  11.569  12.058
87067SOL     OW63097   1.123   9.960   5.414
87067SOL    HW163098   1.163  10.005   5.488
87067SOL    HW263099   1.042  10.009   5.397
87068SOL     OW63100   7.055   2.044  14.853
87068SOL    HW163101   6.982   2.011  14.801
87068SOL    HW263102   7.037   2.138  14.862
87069SOL     OW63103   1.534   5.546  10.807
87069SOL    HW163104   1.513   5.529  10.899
87069SOL    HW263105   1.537   5.642  10.800
87070SOL     OW63106   3.187   8.696   7.112
87070SOL    HW163107   3.242   8.754   7.165
87070SOL    HW263108   3.215   8.711   7.022
87071SOL     OW63109  12.626   1.876   9.066
87071SOL    HW163110  12.642   1.793   9.021
87071SOL    HW263111  12.531   1.888   9.062
87072SOL     OW63112   0.773  10.185   5.290
87072SOL    HW163113   0.791  10.097   5.256
87072SOL    HW263114   0.859  10.217   5.318
87073SOL     OW63115  10.217   7.057   8.250
87073SOL    HW163116  10.164   6.981   8.273
87073SOL    HW263117  10.242   7.041   8.159
87074SOL     OW63118   1.469   1.911   0.218
87074SOL    HW163119   1.527   1.955   0.156
87074SOL    HW263120   1.512   1.827   0.235
87075SOL     OW63121   0.743  14.496  14.506
87075SOL    HW163122   0.823  14.478  14.457
87075SOL    HW263123   0.748  14.589  14.526
87076SOL     OW63124   3.109  12.914  12.722
87076SOL    HW163125   3.073  12.998  12.752
87076SOL    HW263126   3.119  12.925  12.628
87077SOL     OW63127   4.899   0.815  14.615
87077SOL    HW163128   4.939   0.800  14.700
87077SOL    HW263129   4.808   0.785  14.626
87078SOL     OW63130   6.148   1.597  12.116
87078SOL    HW163131   6.065   1.597  12.165
87078SOL    HW263132   6.168   1.689  12.104
87079SOL     OW63133   3.938   9.209   9.907
87079SOL    HW163134   3.895   9.196   9.823
87079SOL    HW263135   4.031   9.192   9.890
87080SOL     OW63136  10.889   8.748  13.329
87080SOL    HW163137  10.944   8.816  13.291
87080SOL    HW263138  10.799   8.779  13.317
87081SOL     OW63139  10.433   1.959   8.554
87081SOL    HW163140  10.392   1.873   8.544
87081SOL    HW263141  10.526   1.940   8.568
87082SOL     OW63142   7.003   3.704  12.644
87082SOL    HW163143   6.978   3.652  12.567
87082SOL    HW263144   6.932   3.768  12.653
87083SOL     OW63145  14.621  12.313   9.112
87083SOL    HW163146  14.603  12.263   9.191
87083SOL    HW263147  14.547  12.294   9.054
87084SOL     OW63148   8.646  11.733   2.049
87084SOL    HW163149   8.708  11.669   2.084
87084SOL    HW263150   8.564  11.714   2.094
87085SOL     OW63151   8.784   0.294   6.931
87085SOL    HW163152   8.800   0.380   6.970
87085SOL    HW263153   8.870   0.252   6.929
87086SOL     OW63154  10.525   7.284   0.127
87086SOL    HW163155  10.461   7.354   0.119
87086SOL    HW263156  10.610   7.329   0.120
87087SOL     OW63157   7.283   3.221  12.867
87087SOL    HW163158   7.306   3.145  12.815
87087SOL    HW263159   7.363   3.244  12.914
87088SOL     OW63160   1.697   2.368  14.218
87088SOL    HW163161   1.781   2.389  14.177
87088SOL    HW263162   1.634   2.373  14.147
87089SOL     OW63163   1.254  11.582   7.729
87089SOL    HW163164   1.258  11.673   7.758
87089SOL    HW263165   1.316  11.536   7.785
87090SOL     OW63166   0.103   0.296   9.865
87090SOL    HW163167   0.193   0.300   9.896
87090SOL    HW263168   0.052   0.338   9.934
87091SOL     OW63169   6.058   2.306   6.223
87091SOL    HW163170   6.097   2.393   6.231
87091SOL    HW263171   5.982   2.310   6.282
87092SOL     OW63172  13.429   6.854   7.502
87092SOL    HW163173  13.421   6.949   7.490
87092SOL    HW263174  13.434   6.819   7.413
87093SOL     OW63175   5.981  13.487   0.935
87093SOL    HW163176   5.998  13.557   0.873
87093SOL    HW263177   5.952  13.531   1.015
87094SOL     OW63178   7.025   9.279   5.963
87094SOL    HW163179   7.119   9.284   5.947
87094SOL    HW263180   7.012   9.197   6.010
87095SOL     OW63181   3.136   7.428   8.038
87095SOL    HW163182   3.224   7.404   8.010
87095SOL    HW263183   3.129   7.522   8.021
87096SOL     OW63184   0.108  11.562   4.809
87096SOL    HW163185   0.082  11.576   4.900
87096SOL    HW263186   0.133  11.649   4.778
87097SOL     OW63187   5.112   9.413  11.266
87097SOL    HW163188   5.187   9.473  11.267
87097SOL    HW263189   5.139   9.342  11.208
87098SOL     OW63190  11.661  13.908  14.194
87098SOL    HW163191  11.650  13.905  14.289
87098SOL    HW263192  11.642  13.999  14.170
87099SOL     OW63193  14.723  14.784   1.038
87099SOL    HW163194  14.810  14.787   1.078
87099SOL    HW263195  14.682  14.866   1.064
87100SOL     OW63196   4.157   3.728   0.550
87100SOL    HW163197   4.093   3.662   0.576
87100SOL    HW263198   4.201   3.752   0.632
87101SOL     OW63199   8.354   0.005   5.359
87101SOL    HW163200   8.315   0.086   5.391
87101SOL    HW263201   8.297  14.850   5.287
87102SOL     OW63202   6.306   1.975   8.584
87102SOL    HW163203   6.254   2.029   8.523
87102SOL    HW263204   6.394   1.974   8.546
87103SOL     OW63205  14.050   6.076  12.221
87103SOL    HW163206  13.990   6.042  12.287
87103SOL    HW263207  13.992   6.112  12.153
87104SOL     OW63208   3.593   7.707   7.759
87104SOL    HW163209   3.654   7.697   7.833
87104SOL    HW263210   3.579   7.801   7.752
87105SOL     OW63211   4.764  13.615  13.854
87105SOL    HW163212   4.677  13.643  13.884
87105SOL    HW263213   4.753  13.522  13.834
87106SOL     OW63214   7.323   7.570  10.751
87106SOL    HW163215   7.317   7.510  10.677
87106SOL    HW263216   7.241   7.558  10.799
87107SOL     OW63217   2.677   0.063   1.063
87107SOL    HW163218   2.760   0.043   1.020
87107SOL    HW263219   2.617   0.083   0.992
87108SOL     OW63220  14.379   1.067  13.825
87108SOL    HW163221  14.405   0.975  13.813
87108SOL    HW263222  14.374   1.102  13.736
87109SOL     OW63223   4.276  11.833   6.149
87109SOL    HW163224   4.301  11.914   6.105
87109SOL    HW263225   4.347  11.816   6.211
87110SOL     OW63226   8.636   3.090   8.299
87110SOL    HW163227   8.717   3.125   8.262
87110SOL    HW263228   8.655   3.077   8.392
87111SOL     OW63229   5.185   2.106  14.473
87111SOL    HW163230   5.206   2.163  14.400
87111SOL    HW263231   5.092   2.121  14.489
87112SOL     OW63232  14.120   3.478   6.234
87112SOL    HW163233  14.106   3.546   6.300
87112SOL    HW263234  14.089   3.398   6.276
87113SOL     OW63235   1.375   7.347   1.874
87113SOL    HW163236   1.311   7.362   1.943
87113SOL    HW263237   1.452   7.313   1.919
87114SOL     OW63238   1.968   6.578   4.443
87114SOL    HW163239   2.041   6.590   4.382
87114SOL    HW263240   1.968   6.658   4.496
87115SOL     OW63241   6.848  11.435   8.330
87115SOL    HW163242   6.811  11.448   8.243
87115SOL    HW263243   6.773  11.426   8.388
87116SOL     OW63244   0.516  12.211   3.208
87116SOL    HW163245   0.518  12.285   3.148
87116SOL    HW263246   0.503  12.250   3.294
87117SOL     OW63247  10.748   5.102   7.065
87117SOL    HW163248  10.771   5.186   7.025
87117SOL    HW263249  10.796   5.037   7.015
87118SOL     OW63250   9.752  10.148   1.100
87118SOL    HW163251   9.674  10.120   1.147
87118SOL    HW263252   9.824  10.128   1.159
87119SOL     OW63253   8.789   6.597   2.656
87119SOL    HW163254   8.824   6.601   2.744
87119SOL    HW263255   8.791   6.687   2.625
87120SOL     OW63256   4.726   8.315   7.995
87120SOL    HW163257   4.752   8.405   7.977
87120SOL    HW263258   4.724   8.273   7.909
87121SOL     OW63259   6.726  13.111   6.388
87121SOL    HW163260   6.716  13.016   6.392
87121SOL    HW263261   6.800  13.131   6.446
87122SOL     OW63262  13.681  11.740   1.368
87122SOL    HW163263  13.748  11.757   1.302
87122SOL    HW263264  13.726  11.754   1.452
87123SOL     OW63265  11.890  13.534   6.660
87123SOL    HW163266  11.873  13.586   6.739
87123SOL    HW263267  11.927  13.597   6.599
87124SOL     OW63268   2.879   2.230   4.494
87124SOL    HW163269   2.846   2.295   4.432
87124SOL    HW263270   2.909   2.158   4.439
87125SOL     OW63271   6.260   4.979   1.616
87125SOL    HW163272   6.178   4.932   1.636
87125SOL    HW263273   6.247   5.011   1.527
87126SOL     OW63274   4.475   0.608   0.291
87126SOL    HW163275   4.409   0.668   0.323
87126SOL    HW263276   4.463   0.608   0.196
87127SOL     OW63277   0.323   1.512   8.350
87127SOL    HW163278   0.249   1.556   8.393
87127SOL    HW263279   0.287   1.482   8.266
87128SOL     OW63280   6.234   0.325  13.422
87128SOL    HW163281   6.173   0.371  13.481
87128SOL    HW263282   6.316   0.323  13.470
87129SOL     OW63283   1.780  13.477   5.994
87129SOL    HW163284   1.853  13.488   5.933
87129SOL    HW263285   1.722  13.414   5.951
87130SOL     OW63286   4.455  14.348   5.081
87130SOL    HW163287   4.509  14.393   5.016
87130SOL    HW263288   4.392  14.297   5.030
87131SOL     OW63289  12.416   8.930   2.806
87131SOL    HW163290  12.433   8.883   2.888
87131SOL    HW263291  12.482   9.000   2.804
87132SOL     OW63292   0.005  12.016   3.888
87132SOL    HW163293   0.030  11.949   3.825
87132SOL    HW263294   0.038  11.983   3.972
87133SOL     OW63295   0.056   1.440  10.050
87133SOL    HW163296   0.099   1.493   9.983
87133SOL    HW263297  14.867   1.384  10.002
87134SOL     OW63298   4.692   1.105   7.469
87134SOL    HW163299   4.746   1.029   7.488
87134SOL    HW263300   4.618   1.098   7.530
87135SOL     OW63301  11.939   1.200   7.766
87135SOL    HW163302  12.004   1.229   7.831
87135SOL    HW263303  11.862   1.177   7.819
87136SOL     OW63304   2.582   4.412   8.372
87136SOL    HW163305   2.576   4.351   8.298
87136SOL    HW263306   2.501   4.398   8.421
87137SOL     OW63307   9.785  10.217   6.716
87137SOL    HW163308   9.697  10.236   6.683
87137SOL    HW263309   9.824  10.160   6.650
87138SOL     OW63310   6.093  11.021  14.166
87138SOL    HW163311   6.012  11.071  14.174
87138SOL    HW263312   6.076  10.940  14.215
87139SOL     OW63313   4.620   3.865  14.274
87139SOL    HW163314   4.641   3.879  14.366
87139SOL    HW263315   4.525   3.852  14.272
87140SOL     OW63316   8.135   6.018   2.565
87140SOL    HW163317   8.088   6.095   2.599
87140SOL    HW263318   8.218   6.017   2.613
87141SOL     OW63319  14.513   8.884  14.634
87141SOL    HW163320  14.605   8.879  14.660
87141SOL    HW263321  14.514   8.906  14.541
87142SOL     OW63322   9.128   4.906  10.127
87142SOL    HW163323   9.088   4.820  10.113
87142SOL    HW263324   9.196   4.889  10.193
87143SOL     OW63325  11.150   1.957  11.979
87143SOL    HW163326  11.240   1.956  12.011
87143SOL    HW263327  11.114   1.872  12.005
87144SOL     OW63328   0.713   5.934  13.728
87144SOL    HW163329   0.621   5.930  13.704
87144SOL    HW263330   0.736   6.027  13.719
87145SOL     OW63331   4.659   0.765  10.067
87145SOL    HW163332   4.741   0.791  10.026
87145SOL    HW263333   4.647   0.826  10.140
87146SOL     OW63334  12.226  10.761   8.239
87146SOL    HW163335  12.181  10.715   8.310
87146SOL    HW263336  12.165  10.757   8.165
87147SOL     OW63337   1.419  13.721   9.010
87147SOL    HW163338   1.511  13.746   9.017
87147SOL    HW263339   1.418  13.654   8.941
87148SOL     OW63340  13.791   1.815   4.150
87148SOL    HW163341  13.775   1.745   4.087
87148SOL    HW263342  13.734   1.887   4.121
87149SOL     OW63343   6.459   6.357   9.614
87149SOL    HW163344   6.462   6.354   9.518
87149SOL    HW263345   6.406   6.281   9.638
87150SOL     OW63346  11.387  12.588  12.413
87150SOL    HW163347  11.306  12.635  12.432
87150SOL    HW263348  11.372  12.500  12.448
87151SOL     OW63349   1.224   5.026  10.266
87151SOL    HW163350   1.220   5.088  10.193
87151SOL    HW263351   1.199   5.078  10.343
87152SOL     OW63352   9.779   5.857  10.249
87152SOL    HW163353   9.830   5.938  10.247
87152SOL    HW263354   9.844   5.787  10.247
87153SOL     OW63355   1.739  11.375   1.852
87153SOL    HW163356   1.758  11.354   1.761
87153SOL    HW263357   1.665  11.319   1.875
87154SOL     OW63358  10.720   5.922   3.326
87154SOL    HW163359  10.798   5.929   3.269
87154SOL    HW263360  10.733   5.840   3.373
87155SOL     OW63361   2.910   8.634  13.960
87155SOL    HW163362   2.965   8.675  14.027
87155SOL    HW263363   2.865   8.707  13.918
87156SOL     OW63364   2.339   1.551   5.306
87156SOL    HW163365   2.356   1.591   5.220
87156SOL    HW263366   2.246   1.569   5.322
87157SOL     OW63367   3.267  14.854   6.196
87157SOL    HW163368   3.331  14.804   6.143
87157SOL    HW263369   3.197   0.003   6.134
87158SOL     OW63370   7.352  12.194   1.900
87158SOL    HW163371   7.425  12.150   1.856
87158SOL    HW263372   7.296  12.122   1.931
87159SOL     OW63373   1.190   1.112  12.090
87159SOL    HW163374   1.161   1.193  12.133
87159SOL    HW263375   1.153   1.042  12.145
87160SOL     OW63376   5.207  13.106  11.796
87160SOL    HW163377   5.142  13.077  11.732
87160SOL    HW263378   5.247  13.183  11.757
87161SOL     OW63379  12.039  14.287  12.391
87161SOL    HW163380  12.100  14.224  12.430
87161SOL    HW263381  11.973  14.301  12.458
87162SOL     OW63382   5.160   0.741   5.843
87162SOL    HW163383   5.187   0.804   5.777
87162SOL    HW263384   5.091   0.690   5.801
87163SOL     OW63385   2.718   9.930   9.926
87163SOL    HW163386   2.742  10.020   9.906
87163SOL    HW263387   2.745   9.917  10.017
87164SOL     OW63388  12.771   6.458   1.075
87164SOL    HW163389  12.710   6.514   1.123
87164SOL    HW263390  12.849   6.453   1.131
87165SOL     OW63391  12.917   8.823  12.188
87165SOL    HW163392  12.904   8.881  12.263
87165SOL    HW263393  12.863   8.746  12.206
87166SOL     OW63394   9.153  10.830   1.811
87166SOL    HW163395   9.170  10.887   1.736
87166SOL    HW263396   9.201  10.870   1.884
87167SOL     OW63397  13.424  10.260   2.609
87167SOL    HW163398  13.366  10.336   2.600
87167SOL    HW263399  13.456  10.243   2.521
87168SOL     OW63400   7.755   2.067   6.296
87168SOL    HW163401   7.825   2.077   6.360
87168SOL    HW263402   7.782   2.121   6.221
87169SOL     OW63403   6.638   0.525   6.083
87169SOL    HW163404   6.548   0.543   6.056
87169SOL    HW263405   6.683   0.502   6.002
87170SOL     OW63406   7.034   5.382  12.700
87170SOL    HW163407   6.942   5.375  12.672
87170SOL    HW263408   7.061   5.469  12.670
87171SOL     OW63409   0.373   4.282   9.295
87171SOL    HW163410   0.293   4.252   9.252
87171SOL    HW263411   0.357   4.374   9.315
87172SOL     OW63412  10.567   8.874   7.445
87172SOL    HW163413  10.490   8.921   7.411
87172SOL    HW263414  10.530   8.806   7.501
87173SOL     OW63415   8.169  10.214   2.880
87173SOL    HW163416   8.102  10.152   2.911
87173SOL    HW263417   8.125  10.299   2.881
87174SOL     OW63418  12.290   9.610  11.797
87174SOL    HW163419  12.369   9.571  11.835
87174SOL    HW263420  12.320   9.651  11.716
87175SOL     OW63421   1.412   3.200   1.026
87175SOL    HW163422   1.408   3.272   0.963
87175SOL    HW263423   1.477   3.140   0.990
87176SOL     OW63424   3.311  10.443   3.237
87176SOL    HW163425   3.307  10.410   3.327
87176SOL    HW263426   3.392  10.405   3.202
87177SOL     OW63427   0.378   4.587  12.726
87177SOL    HW163428   0.313   4.629  12.669
87177SOL    HW263429   0.461   4.629  12.703
87178SOL     OW63430   3.602  11.835   6.395
87178SOL    HW163431   3.607  11.909   6.457
87178SOL    HW263432   3.516  11.845   6.354
87179SOL     OW63433  12.119   6.919   2.257
87179SOL    HW163434  12.161   6.861   2.322
87179SOL    HW263435  12.193   6.961   2.212
87180SOL     OW63436   3.351  12.943   8.228
87180SOL    HW163437   3.328  13.016   8.285
87180SOL    HW263438   3.296  12.954   8.151
87181SOL     OW63439  14.564   8.557  10.049
87181SOL    HW163440  14.588   8.617   9.979
87181SOL    HW263441  14.584   8.470  10.015
87182SOL     OW63442   7.200   2.987  12.415
87182SOL    HW163443   7.218   2.897  12.388
87182SOL    HW263444   7.214   3.039  12.336
87183SOL     OW63445   6.447   1.806  12.307
87183SOL    HW163446   6.502   1.788  12.231
87183SOL    HW263447   6.357   1.804  12.273
87184SOL     OW63448   7.167  11.353   2.042
87184SOL    HW163449   7.200  11.264   2.055
87184SOL    HW263450   7.178  11.395   2.127
87185SOL     OW63451  10.118   5.464   9.036
87185SOL    HW163452  10.096   5.430   8.949
87185SOL    HW263453  10.213   5.459   9.040
87186SOL     OW63454  12.633   7.622  14.702
87186SOL    HW163455  12.591   7.565  14.637
87186SOL    HW263456  12.641   7.707  14.658
87187SOL     OW63457   6.287   1.952   2.589
87187SOL    HW163458   6.374   1.973   2.553
87187SOL    HW263459   6.253   1.885   2.530
87188SOL     OW63460   6.758  10.778  11.106
87188SOL    HW163461   6.794  10.690  11.097
87188SOL    HW263462   6.770  10.799  11.199
87189SOL     OW63463  13.249   5.959   8.928
87189SOL    HW163464  13.265   5.873   8.891
87189SOL    HW263465  13.337   5.994   8.947
87190SOL     OW63466   3.264  10.385  12.906
87190SOL    HW163467   3.310  10.462  12.939
87190SOL    HW263468   3.273  10.320  12.976
87191SOL     OW63469  10.103   3.223   0.866
87191SOL    HW163470  10.090   3.243   0.773
87191SOL    HW263471  10.176   3.161   0.867
87192SOL     OW63472   7.840  14.463   3.998
87192SOL    HW163473   7.878  14.420   4.074
87192SOL    HW263474   7.856  14.402   3.925
87193SOL     OW63475  10.923   2.724  12.632
87193SOL    HW163476  10.841   2.675  12.632
87193SOL    HW263477  10.898   2.813  12.656
87194SOL     OW63478   0.341   5.946   9.265
87194SOL    HW163479   0.327   5.967   9.358
87194SOL    HW263480   0.288   6.009   9.218
87195SOL     OW63481   7.986   6.926   9.999
87195SOL    HW163482   8.076   6.948   9.974
87195SOL    HW263483   7.951   6.877   9.925
87196SOL     OW63484   0.791   3.549   4.841
87196SOL    HW163485   0.814   3.537   4.749
87196SOL    HW263486   0.701   3.579   4.839
87197SOL     OW63487  12.557   1.537   3.962
87197SOL    HW163488  12.494   1.609   3.954
87197SOL    HW263489  12.565   1.522   4.056
87198SOL     OW63490  10.785  11.336  14.629
87198SOL    HW163491  10.865  11.383  14.656
87198SOL    HW263492  10.813  11.246  14.617
87199SOL     OW63493   2.791   4.407  13.415
87199SOL    HW163494   2.816   4.314  13.416
87199SOL    HW263495   2.839   4.444  13.342
87200SOL     OW63496  10.508   5.108   1.076
87200SOL    HW163497  10.412   5.103   1.074
87200SOL    HW263498  10.533   5.054   1.151
87201SOL     OW63499  12.744  13.597   1.664
87201SOL    HW163500  12.744  13.626   1.755
87201SOL    HW263501  12.665  13.544   1.656
87202SOL     OW63502   0.012   4.405   2.166
87202SOL    HW163503  14.807   4.439   2.210
87202SOL    HW263504  14.850   4.352   2.095
87203SOL     OW63505   2.860  10.505   4.613
87203SOL    HW163506   2.901  10.421   4.589
87203SOL    HW263507   2.850  10.500   4.708
87204SOL     OW63508   7.963  12.736   6.260
87204SOL    HW163509   7.921  12.729   6.346
87204SOL    HW263510   7.923  12.814   6.221
87205SOL     OW63511   0.840   9.584  13.397
87205SOL    HW163512   0.747   9.562  13.395
87205SOL    HW263513   0.848   9.659  13.338
87206SOL     OW63514  10.236   3.642   0.877
87206SOL    HW163515  10.226   3.712   0.813
87206SOL    HW263516  10.147   3.608   0.889
87207SOL     OW63517  13.643  10.522   7.997
87207SOL    HW163518  13.676  10.560   8.078
87207SOL    HW263519  13.721  10.493   7.950
87208SOL     OW63520  14.606  12.084   6.789
87208SOL    HW163521  14.545  12.051   6.723
87208SOL    HW263522  14.637  12.006   6.834
87209SOL     OW63523  11.318  13.640  13.679
87209SOL    HW163524  11.323  13.711  13.614
87209SOL    HW263525  11.306  13.685  13.763
87210SOL     OW63526   0.886   5.877   3.184
87210SOL    HW163527   0.840   5.809   3.135
87210SOL    HW263528   0.898   5.948   3.121
87211SOL     OW63529  11.062   7.420   7.470
87211SOL    HW163530  10.981   7.424   7.419
87211SOL    HW263531  11.044   7.474   7.547
87212SOL     OW63532   3.116   7.140   1.903
87212SOL    HW163533   3.099   7.153   1.810
87212SOL    HW263534   3.194   7.191   1.922
87213SOL     OW63535  12.607   3.002  10.511
87213SOL    HW163536  12.522   3.021  10.551
87213SOL    HW263537  12.588   2.989  10.418
87214SOL     OW63538   3.988  14.208   6.930
87214SOL    HW163539   4.010  14.170   6.846
87214SOL    HW263540   4.068  14.199   6.982
87215SOL     OW63541   4.463  12.690   0.715
87215SOL    HW163542   4.499  12.735   0.791
87215SOL    HW263543   4.407  12.622   0.752
87216SOL     OW63544   2.060   6.253  11.358
87216SOL    HW163545   1.976   6.206  11.351
87216SOL    HW263546   2.095   6.251  11.269
87217SOL     OW63547   2.230   3.888  14.193
87217SOL    HW163548   2.306   3.917  14.243
87217SOL    HW263549   2.181   3.969  14.176
87218SOL     OW63550   0.106   7.121  11.117
87218SOL    HW163551   0.069   7.043  11.076
87218SOL    HW263552   0.031   7.162  11.161
87219SOL     OW63553   1.331   5.479  13.916
87219SOL    HW163554   1.395   5.463  13.846
87219SOL    HW263555   1.297   5.392  13.938
87220SOL     OW63556   4.433   7.441  12.749
87220SOL    HW163557   4.388   7.503  12.806
87220SOL    HW263558   4.370   7.419  12.682
87221SOL     OW63559  12.947  11.955   0.549
87221SOL    HW163560  12.883  11.912   0.492
87221SOL    HW263561  13.008  11.997   0.488
87222SOL     OW63562   8.716   6.007  11.489
87222SOL    HW163563   8.704   6.098  11.465
87222SOL    HW263564   8.706   5.958  11.407
87223SOL     OW63565   2.942   8.513   5.314
87223SOL    HW163566   2.951   8.595   5.363
87223SOL    HW263567   3.031   8.478   5.308
87224SOL     OW63568   4.247   3.079   2.390
87224SOL    HW163569   4.292   3.162   2.403
87224SOL    HW263570   4.180   3.077   2.459
87225SOL     OW63571  12.362   2.339  12.197
87225SOL    HW163572  12.303   2.399  12.152
87225SOL    HW263573  12.305   2.292  12.258
87226SOL     OW63574   5.940  13.534  10.685
87226SOL    HW163575   5.855  13.569  10.712
87226SOL    HW263576   5.999  13.557  10.757
87227SOL     OW63577   1.825  10.174   4.673
87227SOL    HW163578   1.810  10.105   4.608
87227SOL    HW263579   1.804  10.132   4.757
87228SOL     OW63580   4.589   9.092  10.074
87228SOL    HW163581   4.641   9.156  10.124
87228SOL    HW263582   4.607   9.008  10.116
87229SOL     OW63583   7.865   2.131   7.327
87229SOL    HW163584   7.808   2.086   7.389
87229SOL    HW263585   7.950   2.087   7.336
87230SOL     OW63586   9.375   0.887  10.463
87230SOL    HW163587   9.321   0.898  10.541
87230SOL    HW263588   9.461   0.861  10.497
87231SOL     OW63589   4.500   2.874   6.482
87231SOL    HW163590   4.516   2.968   6.492
87231SOL    HW263591   4.540   2.852   6.398
87232SOL     OW63592  14.785   2.767   5.645
87232SOL    HW163593  14.707   2.771   5.700
87232SOL    HW263594  14.802   2.859   5.621
87233SOL     OW63595   6.195   0.224   0.449
87233SOL    HW163596   6.111   0.180   0.438
87233SOL    HW263597   6.193   0.257   0.539
87234SOL     OW63598   9.686   0.350  13.639
87234SOL    HW163599   9.683   0.259  13.670
87234SOL    HW263600   9.648   0.401  13.710
87235SOL     OW63601  10.858   4.890  10.490
87235SOL    HW163602  10.948   4.882  10.458
87235SOL    HW263603  10.826   4.800  10.491
87236SOL     OW63604   1.574   8.011   8.717
87236SOL    HW163605   1.633   7.974   8.784
87236SOL    HW263606   1.512   8.064   8.767
87237SOL     OW63607   5.790   9.173  11.866
87237SOL    HW163608   5.880   9.207  11.864
87237SOL    HW263609   5.780   9.136  11.953
87238SOL     OW63610  13.204   5.083   9.325
87238SOL    HW163611  13.297   5.103   9.315
87238SOL    HW263612  13.162   5.167   9.339
87239SOL     OW63613   9.952  14.095   8.714
87239SOL    HW163614   9.917  14.018   8.759
87239SOL    HW263615   9.916  14.170   8.763
87240SOL     OW63616   3.955  12.312   2.037
87240SOL    HW163617   3.906  12.234   2.064
87240SOL    HW263618   3.902  12.350   1.967
87241SOL     OW63619   4.467   5.251   1.449
87241SOL    HW163620   4.548   5.201   1.440
87241SOL    HW263621   4.399   5.193   1.417
87242SOL     OW63622  13.299   3.510  13.689
87242SOL    HW163623  13.290   3.537  13.781
87242SOL    HW263624  13.383   3.545  13.662
87243SOL     OW63625   9.794   7.220  11.770
87243SOL    HW163626   9.816   7.296  11.824
87243SOL    HW263627   9.704   7.234  11.744
87244SOL     OW63628  11.324   7.643   1.570
87244SOL    HW163629  11.298   7.574   1.631
87244SOL    HW263630  11.409   7.615   1.536
87245SOL     OW63631  12.559   4.674  12.273
87245SOL    HW163632  12.508   4.644  12.198
87245SOL    HW263633  12.540   4.768  12.279
87246SOL     OW63634  11.578   7.206   1.618
87246SOL    HW163635  11.529   7.206   1.535
87246SOL    HW263636  11.643   7.137   1.607
87247SOL     OW63637   3.589  11.585   9.062
87247SOL    HW163638   3.620  11.660   9.012
87247SOL    HW263639   3.637  11.510   9.027
87248SOL     OW63640  14.282   3.282   0.050
87248SOL    HW163641  14.335   3.356   0.019
87248SOL    HW263642  14.234   3.318   0.125
87249SOL     OW63643  13.395   7.982   6.265
87249SOL    HW163644  13.333   8.054   6.254
87249SOL    HW263645  13.423   7.988   6.357
87250SOL     OW63646   1.632  13.864  11.125
87250SOL    HW163647   1.551  13.901  11.091
87250SOL    HW263648   1.696  13.934  11.117
87251SOL     OW63649   4.277  10.889   4.837
87251SOL    HW163650   4.282  10.808   4.787
87251SOL    HW263651   4.215  10.944   4.788
87252SOL     OW63652  10.967   1.826   7.306
87252SOL    HW163653  10.922   1.903   7.272
87252SOL    HW263654  10.975   1.842   7.400
87253SOL     OW63655   8.694   3.922  13.303
87253SOL    HW163656   8.701   4.008  13.262
87253SOL    HW263657   8.784   3.897  13.321
87254SOL     OW63658   8.312   1.102   8.591
87254SOL    HW163659   8.278   1.146   8.513
87254SOL    HW263660   8.234   1.080   8.642
87255SOL     OW63661   6.707  14.271   1.415
87255SOL    HW163662   6.637  14.334   1.396
87255SOL    HW263663   6.722  14.227   1.331
87256SOL     OW63664   1.169   9.862  11.721
87256SOL    HW163665   1.146   9.846  11.813
87256SOL    HW263666   1.134   9.949  11.703
87257SOL     OW63667   3.571   9.157  13.295
87257SOL    HW163668   3.638   9.214  13.255
87257SOL    HW263669   3.621   9.098  13.352
87258SOL     OW63670   2.280   6.989   1.177
87258SOL    HW163671   2.200   7.012   1.130
87258SOL    HW263672   2.287   6.894   1.169
87259SOL     OW63673  10.004   7.648   9.944
87259SOL    HW163674  10.052   7.582   9.894
87259SOL    HW263675   9.917   7.610   9.956
87260SOL     OW63676  13.315   3.403  11.492
87260SOL    HW163677  13.348   3.484  11.532
87260SOL    HW263678  13.350   3.405  11.403
87261SOL     OW63679   6.079  12.510   7.518
87261SOL    HW163680   6.015  12.466   7.461
87261SOL    HW263681   6.164  12.475   7.490
87262SOL     OW63682  10.256   3.254   1.132
87262SOL    HW163683  10.285   3.237   1.042
87262SOL    HW263684  10.176   3.306   1.122
87263SOL     OW63685   2.481   6.035  12.768
87263SOL    HW163686   2.490   6.100  12.699
87263SOL    HW263687   2.441   6.082  12.841
87264SOL     OW63688  13.740  11.443   7.942
87264SOL    HW163689  13.667  11.505   7.935
87264SOL    HW263690  13.704  11.361   7.909
87265SOL     OW63691   2.163   4.680   3.633
87265SOL    HW163692   2.189   4.682   3.725
87265SOL    HW263693   2.079   4.634   3.632
87266SOL     OW63694  10.863   8.761   3.253
87266SOL    HW163695  10.937   8.815   3.282
87266SOL    HW263696  10.848   8.700   3.325
87267SOL     OW63697  11.511  12.363   2.804
87267SOL    HW163698  11.590  12.313   2.781
87267SOL    HW263699  11.544  12.448   2.833
87268SOL     OW63700   9.955   2.946   7.067
87268SOL    HW163701   9.969   3.026   7.118
87268SOL    HW263702   9.874   2.909   7.100
87269SOL     OW63703   1.261   1.272   3.914
87269SOL    HW163704   1.263   1.308   3.825
87269SOL    HW263705   1.278   1.348   3.970
87270SOL     OW63706   0.833   0.793  13.479
87270SOL    HW163707   0.904   0.748  13.525
87270SOL    HW263708   0.825   0.877  13.523
87271SOL     OW63709   3.304   0.663  14.790
87271SOL    HW163710   3.328   0.732  14.727
87271SOL    HW263711   3.360   0.589  14.767
87272SOL     OW63712   9.025  14.068   0.690
87272SOL    HW163713   9.115  14.063   0.657
87272SOL    HW263714   9.027  14.137   0.756
87273SOL     OW63715  10.225  11.829  10.059
87273SOL    HW163716  10.160  11.814   9.991
87273SOL    HW263717  10.194  11.908  10.105
87274SOL     OW63718   2.402  10.976  12.491
87274SOL    HW163719   2.370  10.931  12.412
87274SOL    HW263720   2.351  11.057  12.494
87275SOL     OW63721   7.792  11.865   1.017
87275SOL    HW163722   7.704  11.882   1.049
87275SOL    HW263723   7.822  11.788   1.066
87276SOL     OW63724  14.086   8.872   1.706
87276SOL    HW163725  14.090   8.963   1.676
87276SOL    HW263726  13.993   8.854   1.718
87277SOL     OW63727   9.754   6.680   8.632
87277SOL    HW163728   9.807   6.677   8.712
87277SOL    HW263729   9.774   6.598   8.587
87278SOL     OW63730   1.603   4.897  14.279
87278SOL    HW163731   1.590   4.883  14.186
87278SOL    HW263732   1.698   4.905  14.289
87279SOL     OW63733   0.518  13.646   0.971
87279SOL    HW163734   0.516  13.573   0.909
87279SOL    HW263735   0.593  13.698   0.944
87280SOL     OW63736   5.925   6.914  13.096
87280SOL    HW163737   5.953   6.965  13.020
87280SOL    HW263738   5.983   6.838  13.098
87281SOL     OW63739   8.665   8.600   2.279
87281SOL    HW163740   8.690   8.509   2.289
87281SOL    HW263741   8.601   8.616   2.348
87282SOL     OW63742   5.503  13.982   4.511
87282SOL    HW163743   5.598  13.980   4.512
87282SOL    HW263744   5.478  13.980   4.604
87283SOL     OW63745  12.109  13.395   6.236
87283SOL    HW163746  12.156  13.439   6.165
87283SOL    HW263747  12.032  13.357   6.193
87284SOL     OW63748   8.783   8.029   4.685
87284SOL    HW163749   8.746   8.102   4.734
87284SOL    HW263750   8.720   8.015   4.613
87285SOL     OW63751  12.026   7.143   9.627
87285SOL    HW163752  11.997   7.156   9.718
87285SOL    HW263753  12.085   7.068   9.631
87286SOL     OW63754   8.553  12.322  12.055
87286SOL    HW163755   8.509  12.252  12.007
87286SOL    HW263756   8.557  12.291  12.145
87287SOL     OW63757   2.481   5.963   7.774
87287SOL    HW163758   2.389   5.990   7.777
87287SOL    HW263759   2.479   5.878   7.732
87288SOL     OW63760  10.682  12.434  12.638
87288SOL    HW163761  10.697  12.343  12.613
87288SOL    HW263762  10.709  12.438  12.730
87289SOL     OW63763  10.814   2.776  10.047
87289SOL    HW163764  10.742   2.718  10.072
87289SOL    HW263765  10.802   2.853  10.102
87290SOL     OW63766   7.671   3.524   5.167
87290SOL    HW163767   7.612   3.471   5.221
87290SOL    HW263768   7.722   3.460   5.117
87291SOL     OW63769   9.562  11.141   7.999
87291SOL    HW163770   9.650  11.146   7.963
87291SOL    HW263771   9.574  11.139   8.094
87292SOL     OW63772   3.296  11.362  12.789
87292SOL    HW163773   3.236  11.379  12.716
87292SOL    HW263774   3.301  11.446  12.835
87293SOL     OW63775   5.206  13.250   3.673
87293SOL    HW163776   5.122  13.214   3.643
87293SOL    HW263777   5.228  13.198   3.751
87294SOL     OW63778  11.850   0.637  10.303
87294SOL    HW163779  11.804   0.556  10.324
87294SOL    HW263780  11.781   0.703  10.298
87295SOL     OW63781   8.920   8.369   2.128
87295SOL    HW163782   8.869   8.365   2.209
87295SOL    HW263783   8.857   8.348   2.059
87296SOL     OW63784   7.739   7.920   0.442
87296SOL    HW163785   7.765   7.888   0.528
87296SOL    HW263786   7.791   7.999   0.428
87297SOL     OW63787   5.926  11.686   1.470
87297SOL    HW163788   5.978  11.722   1.542
87297SOL    HW263789   5.960  11.597   1.459
87298SOL     OW63790  13.220   2.640  12.785
87298SOL    HW163791  13.186   2.571  12.842
87298SOL    HW263792  13.240   2.712  12.845
87299SOL     OW63793   0.934  11.179  13.444
87299SOL    HW163794   0.907  11.271  13.451
87299SOL    HW263795   1.026  11.183  13.418
87300SOL     OW63796  11.570   7.655   4.662
87300SOL    HW163797  11.480   7.624   4.666
87300SOL    HW263798  11.623   7.576   4.674
87301SOL     OW63799   8.659  14.495  12.153
87301SOL    HW163800   8.657  14.438  12.076
87301SOL    HW263801   8.613  14.574  12.126
87302SOL     OW63802   2.160   4.480   5.697
87302SOL    HW163803   2.231   4.533   5.733
87302SOL    HW263804   2.122   4.435   5.773
87303SOL     OW63805  13.454  11.478  13.583
87303SOL    HW163806  13.403  11.535  13.526
87303SOL    HW263807  13.539  11.521  13.590
87304SOL     OW63808   6.253   0.954  13.378
87304SOL    HW163809   6.312   0.989  13.444
87304SOL    HW263810   6.209   1.031  13.341
87305SOL     OW63811   7.256  10.665   8.315
87305SOL    HW163812   7.287  10.655   8.405
87305SOL    HW263813   7.314  10.610   8.263
87306SOL     OW63814  11.895   8.523  10.088
87306SOL    HW163815  11.836   8.523  10.164
87306SOL    HW263816  11.934   8.610  10.089
87307SOL     OW63817   9.037  13.593  12.194
87307SOL    HW163818   9.010  13.546  12.115
87307SOL    HW263819   9.133  13.589  12.193
87308SOL     OW63820  12.437   4.485   7.796
87308SOL    HW163821  12.438   4.408   7.739
87308SOL    HW263822  12.359   4.474   7.850
87309SOL     OW63823   8.155   9.285   5.643
87309SOL    HW163824   8.241   9.321   5.626
87309SOL    HW263825   8.167   9.190   5.638
87310SOL     OW63826  11.438   9.523   2.440
87310SOL    HW163827  11.350   9.544   2.408
87310SOL    HW263828  11.424   9.501   2.532
87311SOL     OW63829  14.602   4.956   8.058
87311SOL    HW163830  14.629   4.892   7.992
87311SOL    HW263831  14.587   4.904   8.137
87312SOL     OW63832  12.564   4.246   4.608
87312SOL    HW163833  12.516   4.319   4.647
87312SOL    HW263834  12.648   4.283   4.581
87313SOL     OW63835   4.911   1.401   0.952
87313SOL    HW163836   4.824   1.374   0.923
87313SOL    HW263837   4.918   1.367   1.041
87314SOL     OW63838   6.308   2.716   4.697
87314SOL    HW163839   6.390   2.765   4.695
87314SOL    HW263840   6.244   2.773   4.655
87315SOL     OW63841   7.750   3.858  11.244
87315SOL    HW163842   7.759   3.783  11.302
87315SOL    HW263843   7.714   3.821  11.163
87316SOL     OW63844   1.201   6.389   9.182
87316SOL    HW163845   1.115   6.372   9.143
87316SOL    HW263846   1.257   6.319   9.147
87317SOL     OW63847   8.890  11.572   6.069
87317SOL    HW163848   8.845  11.487   6.064
87317SOL    HW263849   8.829  11.634   6.029
87318SOL     OW63850   1.421   2.294   4.667
87318SOL    HW163851   1.513   2.303   4.643
87318SOL    HW263852   1.393   2.384   4.689
87319SOL     OW63853  11.006  10.267   6.600
87319SOL    HW163854  11.057  10.226   6.530
87319SOL    HW263855  11.035  10.223   6.680
87320SOL     OW63856  14.289   0.713   5.893
87320SOL    HW163857  14.287   0.640   5.955
87320SOL    HW263858  14.320   0.675   5.811
87321SOL     OW63859  12.031   2.354   2.282
87321SOL    HW163860  12.063   2.289   2.219
87321SOL    HW263861  11.940   2.368   2.257
87322SOL     OW63862  10.944   6.399   1.520
87322SOL    HW163863  10.925   6.448   1.599
87322SOL    HW263864  10.962   6.465   1.454
87323SOL     OW63865  12.189   6.026   0.222
87323SOL    HW163866  12.168   6.102   0.276
87323SOL    HW263867  12.208   5.956   0.284
87324SOL     OW63868  14.300  12.130   1.391
87324SOL    HW163869  14.362  12.148   1.461
87324SOL    HW263870  14.241  12.064   1.428
87325SOL     OW63871  13.084  11.733   5.504
87325SOL    HW163872  13.094  11.714   5.411
87325SOL    HW263873  13.087  11.829   5.509
87326SOL     OW63874  13.768  14.648   6.448
87326SOL    HW163875  13.779  14.553   6.450
87326SOL    HW263876  13.674  14.660   6.435
87327SOL     OW63877  13.329   1.953  12.297
87327SOL    HW163878  13.378   1.993  12.368
87327SOL    HW263879  13.360   1.997  12.218
87328SOL     OW63880   2.454  14.870   7.263
87328SOL    HW163881   2.472   0.080   7.308
87328SOL    HW263882   2.406   0.024   7.184
87329SOL     OW63883   6.625  11.384   0.486
87329SOL    HW163884   6.676  11.351   0.560
87329SOL    HW263885   6.540  11.408   0.523
87330SOL     OW63886  13.214   0.199   3.482
87330SOL    HW163887  13.143   0.239   3.532
87330SOL    HW263888  13.247   0.271   3.427
87331SOL     OW63889  10.670   7.537   6.209
87331SOL    HW163890  10.735   7.539   6.138
87331SOL    HW263891  10.691   7.457   6.257
87332SOL     OW63892  10.201   7.273   1.659
87332SOL    HW163893  10.206   7.178   1.646
87332SOL    HW263894  10.291   7.298   1.679
87333SOL     OW63895  11.226  14.014  14.161
87333SOL    HW163896  11.133  14.004  14.182
87333SOL    HW263897  11.227  14.047  14.071
87334SOL     OW63898  13.744   5.339   6.339
87334SOL    HW163899  13.796   5.419   6.329
87334SOL    HW263900  13.653   5.368   6.337
87335SOL     OW63901   7.537   5.448   9.610
87335SOL    HW163902   7.519   5.417   9.521
87335SOL    HW263903   7.541   5.543   9.602
87336SOL     OW63904  10.071   3.300   8.504
87336SOL    HW163905  10.017   3.347   8.441
87336SOL    HW263906  10.011   3.279   8.575
87337SOL     OW63907  10.923   5.417  10.925
87337SOL    HW163908  10.950   5.355  10.858
87337SOL    HW263909  10.870   5.483  10.879
87338SOL     OW63910  12.257  12.685  10.087
87338SOL    HW163911  12.182  12.668  10.030
87338SOL    HW263912  12.330  12.697  10.027
87339SOL     OW63913   3.149   2.692  14.040
87339SOL    HW163914   3.137   2.742  13.959
87339SOL    HW263915   3.157   2.601  14.011
87340SOL     OW63916   9.432   2.251  11.870
87340SOL    HW163917   9.347   2.292  11.884
87340SOL    HW263918   9.450   2.263  11.777
87341SOL     OW63919  14.443   0.721   5.073
87341SOL    HW163920  14.387   0.745   5.000
87341SOL    HW263921  14.530   0.750   5.046
87342SOL     OW63922   5.911   5.962  10.432
87342SOL    HW163923   5.828   5.987  10.473
87342SOL    HW263924   5.958   5.916  10.501
87343SOL     OW63925   5.650   5.407   4.648
87343SOL    HW163926   5.582   5.457   4.693
87343SOL    HW263927   5.632   5.419   4.555
87344SOL     OW63928  12.701  14.860   4.789
87344SOL    HW163929  12.660  14.774   4.792
87344SOL    HW263930  12.631   0.048   4.815
87345SOL     OW63931  14.352   3.003   1.053
87345SOL    HW163932  14.441   3.020   1.084
87345SOL    HW263933  14.358   2.919   1.008
87346SOL     OW63934  13.762  12.739   2.179
87346SOL    HW163935  13.671  12.751   2.151
87346SOL    HW263936  13.760  12.658   2.231
87347SOL     OW63937   0.665  14.471   8.997
87347SOL    HW163938   0.584  14.431   9.030
87347SOL    HW263939   0.638  14.516   8.917
87348SOL     OW63940   5.034  12.691   1.478
87348SOL    HW163941   5.086  12.677   1.557
87348SOL    HW263942   5.097  12.722   1.413
87349SOL     OW63943   0.066  14.580   1.674
87349SOL    HW163944   0.140  14.526   1.648
87349SOL    HW263945  14.861  14.534   1.640
87350SOL     OW63946   1.787   2.863  12.501
87350SOL    HW163947   1.837   2.859  12.582
87350SOL    HW263948   1.714   2.922  12.519
87351SOL     OW63949   2.976   7.723   6.218
87351SOL    HW163950   2.891   7.765   6.210
87351SOL    HW263951   3.018   7.736   6.133
87352SOL     OW63952   7.833  14.690   9.835
87352SOL    HW163953   7.902  14.741   9.878
87352SOL    HW263954   7.758  14.695   9.894
87353SOL     OW63955  10.929   3.863   9.636
87353SOL    HW163956  10.910   3.782   9.589
87353SOL    HW263957  10.878   3.930   9.589
87354SOL     OW63958   4.655   7.585   5.688
87354SOL    HW163959   4.584   7.582   5.753
87354SOL    HW263960   4.712   7.513   5.712
87355SOL     OW63961   1.616   2.395   5.231
87355SOL    HW163962   1.691   2.379   5.174
87355SOL    HW263963   1.562   2.316   5.222
87356SOL     OW63964  13.744   3.588   0.969
87356SOL    HW163965  13.797   3.658   0.928
87356SOL    HW263966  13.779   3.581   1.058
87357SOL     OW63967  13.362  12.159   5.967
87357SOL    HW163968  13.338  12.237   6.017
87357SOL    HW263969  13.303  12.160   5.891
87358SOL     OW63970   2.470   4.957   8.849
87358SOL    HW163971   2.525   4.984   8.776
87358SOL    HW263972   2.429   4.876   8.819
87359SOL     OW63973   7.712   8.619  14.619
87359SOL    HW163974   7.735   8.599  14.709
87359SOL    HW263975   7.617   8.610  14.615
87360SOL     OW63976  14.712  11.468  10.276
87360SOL    HW163977  14.618  11.454  10.270
87360SOL    HW263978  14.723  11.528  10.349
87361SOL     OW63979   9.409   9.177   3.237
87361SOL    HW163980   9.330   9.229   3.249
87361SOL    HW263981   9.440   9.160   3.326
87362SOL     OW63982  11.448  14.037  10.153
87362SOL    HW163983  11.467  14.122  10.193
87362SOL    HW263984  11.428  13.980  10.226
87363SOL     OW63985   9.953   9.046   8.095
87363SOL    HW163986   9.936   9.082   8.182
87363SOL    HW263987   9.879   8.988   8.078
87364SOL     OW63988   8.033   8.099   5.947
87364SOL    HW163989   8.099   8.069   5.884
87364SOL    HW263990   7.961   8.036   5.938
87365SOL     OW63991   3.348  11.910   0.831
87365SOL    HW163992   3.426  11.920   0.885
87365SOL    HW263993   3.349  11.818   0.804
87366SOL     OW63994   6.000  11.246  14.362
87366SOL    HW163995   6.011  11.243  14.457
87366SOL    HW263996   6.072  11.301  14.331
87367SOL     OW63997  14.132   5.857  11.741
87367SOL    HW163998  14.132   5.935  11.798
87367SOL    HW263999  14.120   5.893  11.653
87368SOL     OW64000   1.685   1.962   7.272
87368SOL    HW164001   1.741   2.005   7.207
87368SOL    HW264002   1.596   1.968   7.235
87369SOL     OW64003   0.811   4.628   9.615
87369SOL    HW164004   0.830   4.558   9.677
87369SOL    HW264005   0.751   4.588   9.552
87370SOL     OW64006   3.664  11.040   8.861
87370SOL    HW164007   3.641  10.997   8.943
87370SOL    HW264008   3.658  10.971   8.795
87371SOL     OW64009  13.027  11.535   4.888
87371SOL    HW164010  13.066  11.490   4.813
87371SOL    HW264011  13.049  11.481   4.963
87372SOL     OW64012   0.745   2.556   3.105
87372SOL    HW164013   0.800   2.584   3.032
87372SOL    HW264014   0.806   2.518   3.168
87373SOL     OW64015   5.460   9.881   5.239
87373SOL    HW164016   5.385   9.929   5.205
87373SOL    HW264017   5.531   9.902   5.177
87374SOL     OW64018   0.596   4.171   2.550
87374SOL    HW164019   0.539   4.230   2.502
87374SOL    HW264020   0.682   4.180   2.507
87375SOL     OW64021  11.908   3.208  11.519
87375SOL    HW164022  11.953   3.201  11.603
87375SOL    HW264023  11.968   3.259  11.464
87376SOL     OW64024   2.812   2.306   8.134
87376SOL    HW164025   2.778   2.220   8.158
87376SOL    HW264026   2.781   2.319   8.044
87377SOL     OW64027  12.366   2.683   8.704
87377SOL    HW164028  12.457   2.668   8.679
87377SOL    HW264029  12.323   2.709   8.622
87378SOL     OW64030   9.406   9.491   6.226
87378SOL    HW164031   9.380   9.574   6.267
87378SOL    HW264032   9.418   9.431   6.299
87379SOL     OW64033   6.887   2.961   6.321
87379SOL    HW164034   6.906   2.951   6.228
87379SOL    HW264035   6.971   2.948   6.365
87380SOL     OW64036  13.293   3.087   7.603
87380SOL    HW164037  13.212   3.123   7.568
87380SOL    HW264038  13.273   3.065   7.694
87381SOL     OW64039   6.378   2.697  14.714
87381SOL    HW164040   6.318   2.766  14.740
87381SOL    HW264041   6.403   2.719  14.624
87382SOL     OW64042  12.449  12.733  14.852
87382SOL    HW164043  12.397  12.806  14.817
87382SOL    HW264044  12.473  12.682  14.774
87383SOL     OW64045   5.519   6.329  11.706
87383SOL    HW164046   5.604   6.331  11.663
87383SOL    HW264047   5.456   6.326  11.634
87384SOL     OW64048   4.982   9.114   3.925
87384SOL    HW164049   4.960   9.021   3.916
87384SOL    HW264050   4.897   9.158   3.930
87385SOL     OW64051  12.024  12.409   6.616
87385SOL    HW164052  12.101  12.433   6.565
87385SOL    HW264053  12.050  12.421   6.707
87386SOL     OW64054   8.208   0.573  11.712
87386SOL    HW164055   8.115   0.555  11.726
87386SOL    HW264056   8.220   0.561  11.617
87387SOL     OW64057  11.014   3.755   7.725
87387SOL    HW164058  10.959   3.816   7.774
87387SOL    HW264059  11.104   3.777   7.750
87388SOL     OW64060  13.620  12.779   9.439
87388SOL    HW164061  13.708  12.765   9.475
87388SOL    HW264062  13.594  12.693   9.406
87389SOL     OW64063   4.047   0.802   7.722
87389SOL    HW164064   3.983   0.857   7.768
87389SOL    HW264065   4.024   0.713   7.747
87390SOL     OW64066   4.333  11.888   6.905
87390SOL    HW164067   4.327  11.959   6.841
87390SOL    HW264068   4.281  11.817   6.868
87391SOL     OW64069   6.124   0.872   8.907
87391SOL    HW164070   6.146   0.948   8.962
87391SOL    HW264071   6.102   0.803   8.970
87392SOL     OW64072   6.518   4.146   9.667
87392SOL    HW164073   6.567   4.111   9.740
87392SOL    HW264074   6.521   4.241   9.679
87393SOL     OW64075   1.886   8.832  12.908
87393SOL    HW164076   1.916   8.786  12.986
87393SOL    HW264077   1.941   8.911  12.905
87394SOL     OW64078   1.438   0.584  12.290
87394SOL    HW164079   1.493   0.599  12.213
87394SOL    HW264080   1.495   0.602  12.364
87395SOL     OW64081   5.168   3.349   3.737
87395SOL    HW164082   5.092   3.320   3.686
87395SOL    HW264083   5.223   3.271   3.743
87396SOL     OW64084  11.461  14.391   3.003
87396SOL    HW164085  11.441  14.330   3.074
87396SOL    HW264086  11.495  14.336   2.932
87397SOL     OW64087  14.170   6.731  11.191
87397SOL    HW164088  14.116   6.725  11.112
87397SOL    HW264089  14.205   6.820  11.189
87398SOL     OW64090  10.535  13.003  11.406
87398SOL    HW164091  10.486  12.935  11.359
87398SOL    HW264092  10.501  12.999  11.496
87399SOL     OW64093   1.793   4.586   2.247
87399SOL    HW164094   1.859   4.543   2.301
87399SOL    HW264095   1.812   4.679   2.256
87400SOL     OW64096   8.292   2.861   0.879
87400SOL    HW164097   8.306   2.850   0.785
87400SOL    HW264098   8.354   2.930   0.904
87401SOL     OW64099  11.581   9.696  10.255
87401SOL    HW164100  11.657   9.754  10.262
87401SOL    HW264101  11.510   9.754  10.226
87402SOL     OW64102   3.868  14.626   2.037
87402SOL    HW164103   3.809  14.697   2.063
87402SOL    HW264104   3.951  14.649   2.079
87403SOL     OW64105   4.416  13.968  11.476
87403SOL    HW164106   4.372  14.049  11.502
87403SOL    HW264107   4.497  13.968  11.527
87404SOL     OW64108   4.636   1.447  12.091
87404SOL    HW164109   4.590   1.455  12.174
87404SOL    HW264110   4.596   1.372  12.048
87405SOL     OW64111  10.811   6.306   2.278
87405SOL    HW164112  10.758   6.345   2.347
87405SOL    HW264113  10.762   6.325   2.198
87406SOL     OW64114  10.991   9.572  11.526
87406SOL    HW164115  10.949   9.632  11.587
87406SOL    HW264116  10.970   9.608  11.439
87407SOL     OW64117  13.286  13.506   7.451
87407SOL    HW164118  13.254  13.425   7.410
87407SOL    HW264119  13.227  13.520   7.525
87408SOL     OW64120   4.301  13.148   9.859
87408SOL    HW164121   4.382  13.197   9.868
87408SOL    HW264122   4.234  13.215   9.843
87409SOL     OW64123   9.780  14.586   6.617
87409SOL    HW164124   9.737  14.510   6.577
87409SOL    HW264125   9.852  14.607   6.557
87410SOL     OW64126   7.070   5.347   7.713
87410SOL    HW164127   7.086   5.394   7.795
87410SOL    HW264128   7.127   5.390   7.649
87411SOL     OW64129   7.410  10.677  12.274
87411SOL    HW164130   7.324  10.671  12.315
87411SOL    HW264131   7.429  10.771  12.274
87412SOL     OW64132   1.131   0.228   9.123
87412SOL    HW164133   1.091   0.279   9.053
87412SOL    HW264134   1.099   0.139   9.109
87413SOL     OW64135  14.644   1.314   0.881
87413SOL    HW164136  14.549   1.320   0.874
87413SOL    HW264137  14.668   1.237   0.830
87414SOL     OW64138  12.922   2.616   9.808
87414SOL    HW164139  12.896   2.699   9.847
87414SOL    HW264140  12.867   2.608   9.730
87415SOL     OW64141   3.721  14.719   8.771
87415SOL    HW164142   3.639  14.768   8.780
87415SOL    HW264143   3.743  14.726   8.678
87416SOL     OW64144   1.525   6.984   4.203
87416SOL    HW164145   1.618   6.999   4.187
87416SOL    HW264146   1.481   7.030   4.131
87417SOL     OW64147  12.846   1.929   6.777
87417SOL    HW164148  12.864   2.018   6.747
87417SOL    HW264149  12.853   1.875   6.698
87418SOL     OW64150  10.750   3.216   4.821
87418SOL    HW164151  10.661   3.222   4.856
87418SOL    HW264152  10.783   3.306   4.825
87419SOL     OW64153   4.767   6.566   7.784
87419SOL    HW164154   4.680   6.605   7.779
87419SOL    HW264155   4.804   6.578   7.696
87420SOL     OW64156   3.915  12.541  12.830
87420SOL    HW164157   3.922  12.597  12.753
87420SOL    HW264158   3.931  12.452  12.797
87421SOL     OW64159   4.448   3.052   4.646
87421SOL    HW164160   4.528   3.104   4.642
87421SOL    HW264161   4.387   3.105   4.698
87422SOL     OW64162   1.728   3.140  11.778
87422SOL    HW164163   1.821   3.152  11.758
87422SOL    HW264164   1.711   3.048  11.761
87423SOL     OW64165   8.699   6.304   8.300
87423SOL    HW164166   8.636   6.267   8.237
87423SOL    HW264167   8.696   6.244   8.375
87424SOL     OW64168  12.253   4.969   3.454
87424SOL    HW164169  12.189   5.014   3.509
87424SOL    HW264170  12.254   4.879   3.485
87425SOL     OW64171   3.666   5.299  10.211
87425SOL    HW164172   3.761   5.307  10.219
87425SOL    HW264173   3.649   5.205  10.222
87426SOL     OW64174   9.049   5.303   9.123
87426SOL    HW164175   9.015   5.223   9.081
87426SOL    HW264176   9.021   5.296   9.214
87427SOL     OW64177  10.839   1.080   6.682
87427SOL    HW164178  10.833   0.992   6.644
87427SOL    HW264179  10.788   1.074   6.763
87428SOL     OW64180  10.627   0.249   7.692
87428SOL    HW164181  10.695   0.274   7.755
87428SOL    HW264182  10.660   0.280   7.608
87429SOL     OW64183   6.889   9.274   7.485
87429SOL    HW164184   6.865   9.195   7.437
87429SOL    HW264185   6.969   9.251   7.531
87430SOL     OW64186   6.786  12.811   4.063
87430SOL    HW164187   6.726  12.842   4.131
87430SOL    HW264188   6.873  12.833   4.097
87431SOL     OW64189  13.680  13.259  14.648
87431SOL    HW164190  13.728  13.210  14.715
87431SOL    HW264191  13.606  13.297  14.694
87432SOL     OW64192   5.320   2.137   3.607
87432SOL    HW164193   5.289   2.227   3.599
87432SOL    HW264194   5.374   2.137   3.686
87433SOL     OW64195   0.758   1.659   7.801
87433SOL    HW164196   0.752   1.670   7.896
87433SOL    HW264197   0.668   1.649   7.773
87434SOL     OW64198   3.390   4.927   3.636
87434SOL    HW164199   3.413   4.867   3.706
87434SOL    HW264200   3.371   4.871   3.561
87435SOL     OW64201   7.119  13.388  14.744
87435SOL    HW164202   7.129  13.340  14.826
87435SOL    HW264203   7.122  13.480  14.769
87436SOL     OW64204   9.378  13.979   7.337
87436SOL    HW164205   9.307  13.924   7.303
87436SOL    HW264206   9.363  14.064   7.296
87437SOL     OW64207   9.271   3.252   7.520
87437SOL    HW164208   9.274   3.346   7.501
87437SOL    HW264209   9.263   3.210   7.434
87438SOL     OW64210   8.790  11.908   6.276
87438SOL    HW164211   8.855  11.842   6.299
87438SOL    HW264212   8.814  11.935   6.187
87439SOL     OW64213   0.885   4.823  14.654
87439SOL    HW164214   0.957   4.766  14.628
87439SOL    HW264215   0.924   4.885  14.716
87440SOL     OW64216  14.243   3.248   9.366
87440SOL    HW164217  14.153   3.267   9.342
87440SOL    HW264218  14.237   3.206   9.452
87441SOL     OW64219  13.465   6.517   7.844
87441SOL    HW164220  13.432   6.430   7.867
87441SOL    HW264221  13.458   6.521   7.749
87442SOL     OW64222   6.478  10.443   8.377
87442SOL    HW164223   6.427  10.465   8.455
87442SOL    HW264224   6.525  10.363   8.400
87443SOL     OW64225  11.208   1.747   2.519
87443SOL    HW164226  11.217   1.710   2.607
87443SOL    HW264227  11.135   1.699   2.480
87444SOL     OW64228  13.360   8.572   4.428
87444SOL    HW164229  13.416   8.643   4.395
87444SOL    HW264230  13.272   8.610   4.429
87445SOL     OW64231   0.679  13.356   1.389
87445SOL    HW164232   0.635  13.404   1.319
87445SOL    HW264233   0.745  13.303   1.344
87446SOL     OW64234   6.630  12.239   3.570
87446SOL    HW164235   6.673  12.317   3.536
87446SOL    HW264236   6.696  12.197   3.625
87447SOL     OW64237  14.680   6.398   8.008
87447SOL    HW164238  14.692   6.488   7.979
87447SOL    HW264239  14.602   6.367   7.961
87448SOL     OW64240  14.369  13.518   0.281
87448SOL    HW164241  14.335  13.453   0.219
87448SOL    HW264242  14.464  13.513   0.270
87449SOL     OW64243   9.981  13.737  14.544
87449SOL    HW164244   9.924  13.673  14.503
87449SOL    HW264245  10.065  13.692  14.554
87450SOL     OW64246  11.526   1.510   4.180
87450SOL    HW164247  11.558   1.489   4.092
87450SOL    HW264248  11.435   1.536   4.167
87451SOL     OW64249   7.093  13.228   9.642
87451SOL    HW164250   7.158  13.198   9.707
87451SOL    HW264251   7.014  13.179   9.664
87452SOL     OW64252   6.077   1.278  11.089
87452SOL    HW164253   6.158   1.279  11.040
87452SOL    HW264254   6.104   1.285  11.181
87453SOL     OW64255   4.442  11.112   7.004
87453SOL    HW164256   4.403  11.026   7.020
87453SOL    HW264257   4.451  11.151   7.091
87454SOL     OW64258   7.509   1.652   6.837
87454SOL    HW164259   7.560   1.606   6.770
87454SOL    HW264260   7.455   1.714   6.788
87455SOL     OW64261  11.312   4.176   8.028
87455SOL    HW164262  11.221   4.176   8.055
87455SOL    HW264263  11.360   4.136   8.101
87456SOL     OW64264   7.037   2.950   8.480
87456SOL    HW164265   7.070   2.945   8.570
87456SOL    HW264266   6.959   2.895   8.480
87457SOL     OW64267   3.227   9.852   7.814
87457SOL    HW164268   3.266   9.783   7.760
87457SOL    HW264269   3.133   9.837   7.810
87458SOL     OW64270  14.635   1.439   9.465
87458SOL    HW164271  14.614   1.408   9.377
87458SOL    HW264272  14.580   1.517   9.476
87459SOL     OW64273   9.277   7.817  11.658
87459SOL    HW164274   9.353   7.764  11.634
87459SOL    HW264275   9.231   7.831  11.576
87460SOL     OW64276  14.826   8.831  13.455
87460SOL    HW164277  14.868   8.746  13.458
87460SOL    HW264278  14.829   8.863  13.545
87461SOL     OW64279  13.277  14.255  12.509
87461SOL    HW164280  13.209  14.299  12.559
87461SOL    HW264281  13.230  14.194  12.452
87462SOL     OW64282  12.980  12.905  12.606
87462SOL    HW164283  13.033  12.845  12.554
87462SOL    HW264284  12.907  12.852  12.637
87463SOL     OW64285   7.090   8.474   0.910
87463SOL    HW164286   7.054   8.553   0.871
87463SOL    HW264287   7.042   8.464   0.992
87464SOL     OW64288   8.147  12.824   7.564
87464SOL    HW164289   8.236  12.793   7.553
87464SOL    HW264290   8.140  12.899   7.504
87465SOL     OW64291   0.236   1.846   9.699
87465SOL    HW164292   0.229   1.836   9.604
87465SOL    HW264293   0.319   1.805   9.721
87466SOL     OW64294  12.048   5.138   9.408
87466SOL    HW164295  12.066   5.126   9.315
87466SOL    HW264296  12.053   5.049   9.445
87467SOL     OW64297   3.113  14.768   7.509
87467SOL    HW164298   3.126  14.807   7.595
87467SOL    HW264299   3.184  14.803   7.455
87468SOL     OW64300   7.979   4.693   2.811
87468SOL    HW164301   7.897   4.739   2.791
87468SOL    HW264302   8.037   4.715   2.739
87469SOL     OW64303   3.976  10.611   5.614
87469SOL    HW164304   3.923  10.651   5.544
87469SOL    HW264305   3.986  10.520   5.587
87470SOL     OW64306  14.614  10.143  14.129
87470SOL    HW164307  14.659  10.071  14.083
87470SOL    HW264308  14.685  10.199  14.161
87471SOL     OW64309   1.267   6.588   8.165
87471SOL    HW164310   1.306   6.509   8.128
87471SOL    HW264311   1.301   6.591   8.255
87472SOL     OW64312   4.415   0.049  14.572
87472SOL    HW164313   4.319   0.046  14.573
87472SOL    HW264314   4.440   0.051  14.664
87473SOL     OW64315  11.584   3.610   9.228
87473SOL    HW164316  11.567   3.683   9.286
87473SOL    HW264317  11.569   3.532   9.281
87474SOL     OW64318   1.650   8.003   3.235
87474SOL    HW164319   1.622   8.086   3.196
87474SOL    HW264320   1.580   7.941   3.211
87475SOL     OW64321  10.794  12.395  12.881
87475SOL    HW164322  10.838  12.473  12.916
87475SOL    HW264323  10.841  12.321  12.921
87476SOL     OW64324   0.341  14.788   8.480
87476SOL    HW164325   0.370  14.791   8.571
87476SOL    HW264326   0.340   0.007   8.451
87477SOL     OW64327   8.876  11.211  11.124
87477SOL    HW164328   8.897  11.123  11.156
87477SOL    HW264329   8.817  11.247  11.191
87478SOL     OW64330  12.123   6.465  13.387
87478SOL    HW164331  12.203   6.461  13.439
87478SOL    HW264332  12.065   6.398  13.425
87479SOL     OW64333  13.026   2.130   1.766
87479SOL    HW164334  13.036   2.042   1.729
87479SOL    HW264335  12.982   2.180   1.697
87480SOL     OW64336   5.438  14.490  10.609
87480SOL    HW164337   5.435  14.421  10.543
87480SOL    HW264338   5.503  14.553  10.575
87481SOL     OW64339  13.935  10.364   2.286
87481SOL    HW164340  13.891  10.355   2.202
87481SOL    HW264341  13.868  10.402   2.344
87482SOL     OW64342  12.493   0.990   6.631
87482SOL    HW164343  12.423   1.019   6.573
87482SOL    HW264344  12.572   0.994   6.577
87483SOL     OW64345  13.997  13.880   3.573
87483SOL    HW164346  13.909  13.875   3.609
87483SOL    HW264347  13.995  13.823   3.496
87484SOL     OW64348   0.835  13.828  10.472
87484SOL    HW164349   0.925  13.844  10.501
87484SOL    HW264350   0.783  13.832  10.552
87485SOL     OW64351   6.818  11.178   3.903
87485SOL    HW164352   6.825  11.249   3.839
87485SOL    HW264353   6.757  11.211   3.969
87486SOL     OW64354   0.481  11.263   1.274
87486SOL    HW164355   0.563  11.308   1.257
87486SOL    HW264356   0.414  11.329   1.255
87487SOL     OW64357   0.172   0.698  11.375
87487SOL    HW164358   0.169   0.615  11.327
87487SOL    HW264359   0.255   0.737  11.351
87488SOL     OW64360  12.307   8.202   1.515
87488SOL    HW164361  12.331   8.260   1.443
87488SOL    HW264362  12.387   8.151   1.532
87489SOL     OW64363   6.254   6.128   9.207
87489SOL    HW164364   6.288   6.180   9.134
87489SOL    HW264365   6.165   6.105   9.180
87490SOL     OW64366   6.808   0.138   4.991
87490SOL    HW164367   6.767   0.132   5.077
87490SOL    HW264368   6.884   0.194   5.005
87491SOL     OW64369   9.531   1.622   4.781
87491SOL    HW164370   9.479   1.598   4.858
87491SOL    HW264371   9.472   1.677   4.729
87492SOL     OW64372   3.484  13.652  13.113
87492SOL    HW164373   3.465  13.736  13.155
87492SOL    HW264374   3.428  13.651  13.035
87493SOL     OW64375   3.841   2.422   2.318
87493SOL    HW164376   3.851   2.328   2.303
87493SOL    HW264377   3.880   2.463   2.240
87494SOL     OW64378  10.340   4.342   3.052
87494SOL    HW164379  10.295   4.386   2.980
87494SOL    HW264380  10.349   4.252   3.023
87495SOL     OW64381   3.421  12.166   6.877
87495SOL    HW164382   3.379  12.110   6.942
87495SOL    HW264383   3.397  12.127   6.792
87496SOL     OW64384   6.540   8.469  11.400
87496SOL    HW164385   6.447   8.445  11.408
87496SOL    HW264386   6.588   8.392  11.430
87497SOL     OW64387   4.148   8.333  13.555
87497SOL    HW164388   4.218   8.298  13.501
87497SOL    HW264389   4.150   8.280  13.635
87498SOL     OW64390  12.722   7.382   9.033
87498SOL    HW164391  12.739   7.355   8.943
87498SOL    HW264392  12.809   7.385   9.074
87499SOL     OW64393   2.333  13.659   3.469
87499SOL    HW164394   2.275  13.697   3.535
87499SOL    HW264395   2.420  13.693   3.490
87500SOL     OW64396   2.491  10.651  10.147
87500SOL    HW164397   2.512  10.566  10.186
87500SOL    HW264398   2.550  10.712  10.191
87501SOL     OW64399  10.501  10.655  12.504
87501SOL    HW164400  10.563  10.590  12.536
87501SOL    HW264401  10.540  10.687  12.422
87502SOL     OW64402   4.239   6.875   8.198
87502SOL    HW164403   4.271   6.870   8.108
87502SOL    HW264404   4.319   6.869   8.252
87503SOL     OW64405  12.926  10.836  13.585
87503SOL    HW164406  13.006  10.866  13.627
87503SOL    HW264407  12.903  10.756  13.632
87504SOL     OW64408   6.321  12.971   7.844
87504SOL    HW164409   6.309  13.064   7.865
87504SOL    HW264410   6.264  12.925   7.904
87505SOL     OW64411   5.067   3.183   6.425
87505SOL    HW164412   5.148   3.200   6.471
87505SOL    HW264413   5.003   3.241   6.466
87506SOL     OW64414   0.277  11.152  10.225
87506SOL    HW164415   0.347  11.198  10.270
87506SOL    HW264416   0.309  11.062  10.213
87507SOL     OW64417   5.767  14.097   6.205
87507SOL    HW164418   5.732  14.015   6.240
87507SOL    HW264419   5.829  14.070   6.138
87508SOL     OW64420  10.383   6.316   4.981
87508SOL    HW164421  10.382   6.392   4.922
87508SOL    HW264422  10.425   6.349   5.061
87509SOL     OW64423  11.471  13.318   6.575
87509SOL    HW164424  11.392  13.289   6.620
87509SOL    HW264425  11.506  13.387   6.631
87510SOL     OW64426   8.652  11.843   8.581
87510SOL    HW164427   8.583  11.860   8.645
87510SOL    HW264428   8.624  11.762   8.537
87511SOL     OW64429   8.214   6.298   1.032
87511SOL    HW164430   8.264   6.217   1.031
87511SOL    HW264431   8.265   6.357   1.088
87512SOL     OW64432   7.166   0.179   1.401
87512SOL    HW164433   7.078   0.147   1.382
87512SOL    HW264434   7.221   0.140   1.333
87513SOL     OW64435  11.490  12.385   7.437
87513SOL    HW164436  11.534  12.306   7.406
87513SOL    HW264437  11.454  12.425   7.357
87514SOL     OW64438  14.063   7.886  12.713
87514SOL    HW164439  14.013   7.812  12.679
87514SOL    HW264440  14.075   7.865  12.806
87515SOL     OW64441  13.317   2.283   2.424
87515SOL    HW164442  13.298   2.268   2.332
87515SOL    HW264443  13.366   2.365   2.426
87516SOL     OW64444  13.123   3.837   2.824
87516SOL    HW164445  13.216   3.823   2.844
87516SOL    HW264446  13.120   3.925   2.788
87517SOL     OW64447   5.828  11.720  13.202
87517SOL    HW164448   5.875  11.672  13.270
87517SOL    HW264449   5.890  11.786  13.170
87518SOL     OW64450   6.023   1.194   3.895
87518SOL    HW164451   6.094   1.225   3.951
87518SOL    HW264452   6.034   1.099   3.894
87519SOL     OW64453   9.179  14.857   6.311
87519SOL    HW164454   9.125  14.820   6.381
87519SOL    HW264455   9.194  14.784   6.251
87520SOL     OW64456   0.930   2.809   0.258
87520SOL    HW164457   0.886   2.891   0.281
87520SOL    HW264458   0.951   2.819   0.165
87521SOL     OW64459   5.336   4.428   9.398
87521SOL    HW164460   5.244   4.401   9.401
87521SOL    HW264461   5.346   4.486   9.474
87522SOL     OW64462   5.431   9.238  12.062
87522SOL    HW164463   5.415   9.154  12.018
87522SOL    HW264464   5.387   9.303  12.007
87523SOL     OW64465  13.808   6.802   5.222
87523SOL    HW164466  13.736   6.850   5.181
87523SOL    HW264467  13.797   6.818   5.316
87524SOL     OW64468   2.543  14.518  13.005
87524SOL    HW164469   2.483  14.517  13.079
87524SOL    HW264470   2.516  14.444  12.951
87525SOL     OW64471   8.462   1.041   2.623
87525SOL    HW164472   8.501   0.954   2.632
87525SOL    HW264473   8.520   1.098   2.673
87526SOL     OW64474  10.203  13.535   4.150
87526SOL    HW164475  10.190  13.535   4.245
87526SOL    HW264476  10.205  13.442   4.126
87527SOL     OW64477   7.609  13.415   2.941
87527SOL    HW164478   7.575  13.335   2.981
87527SOL    HW264479   7.561  13.423   2.859
87528SOL     OW64480  14.797  11.717   1.164
87528SOL    HW164481  14.758  11.803   1.176
87528SOL    HW264482   0.019  11.733   1.162
87529SOL     OW64483  10.826  11.628  12.833
87529SOL    HW164484  10.789  11.700  12.782
87529SOL    HW264485  10.843  11.559  12.768
87530SOL     OW64486   3.688   7.819   8.861
87530SOL    HW164487   3.714   7.737   8.817
87530SOL    HW264488   3.610   7.795   8.910
87531SOL     OW64489   9.892   1.671   3.671
87531SOL    HW164490   9.971   1.624   3.645
87531SOL    HW264491   9.823   1.637   3.613
87532SOL     OW64492   4.240  13.375   0.912
87532SOL    HW164493   4.197  13.448   0.868
87532SOL    HW264494   4.212  13.297   0.863
87533SOL     OW64495  10.915   5.897  10.336
87533SOL    HW164496  10.836   5.891  10.391
87533SOL    HW264497  10.988   5.895  10.398
87534SOL     OW64498   2.337   7.610   9.579
87534SOL    HW164499   2.345   7.705   9.585
87534SOL    HW264500   2.427   7.578   9.588
87535SOL     OW64501  10.607  10.744  11.126
87535SOL    HW164502  10.627  10.738  11.220
87535SOL    HW264503  10.545  10.817  11.119
87536SOL     OW64504   6.776   3.742   8.934
87536SOL    HW164505   6.764   3.647   8.936
87536SOL    HW264506   6.752   3.767   8.844
87537SOL     OW64507  10.085   7.953  10.913
87537SOL    HW164508  10.000   7.920  10.884
87537SOL    HW264509  10.138   7.953  10.834
87538SOL     OW64510   2.663   0.584   1.680
87538SOL    HW164511   2.642   0.601   1.772
87538SOL    HW264512   2.634   0.662   1.634
87539SOL     OW64513  13.797   0.313  10.265
87539SOL    HW164514  13.863   0.380  10.283
87539SOL    HW264515  13.822   0.239  10.320
87540SOL     OW64516   2.023   3.233   8.452
87540SOL    HW164517   2.114   3.215   8.476
87540SOL    HW264518   2.016   3.206   8.361
87541SOL     OW64519   1.566  12.266   5.436
87541SOL    HW164520   1.643  12.277   5.491
87541SOL    HW264521   1.573  12.336   5.371
87542SOL     OW64522   4.641  12.517  10.823
87542SOL    HW164523   4.568  12.524  10.761
87542SOL    HW264524   4.718  12.500  10.768
87543SOL     OW64525  13.687   2.466   0.250
87543SOL    HW164526  13.770   2.419   0.242
87543SOL    HW264527  13.661   2.454   0.341
87544SOL     OW64528   6.915  14.820   5.411
87544SOL    HW164529   6.972  14.845   5.338
87544SOL    HW264530   6.925  14.725   5.418
87545SOL     OW64531   4.460  14.553  12.316
87545SOL    HW164532   4.521  14.499  12.265
87545SOL    HW264533   4.438  14.499  12.392
87546SOL     OW64534   6.696  10.044  13.434
87546SOL    HW164535   6.679  10.070  13.525
87546SOL    HW264536   6.699  10.126  13.386
87547SOL     OW64537   9.498  10.586   2.379
87547SOL    HW164538   9.416  10.569   2.424
87547SOL    HW264539   9.547  10.504   2.387
87548SOL     OW64540  14.270  14.686   4.045
87548SOL    HW164541  14.209  14.751   4.009
87548SOL    HW264542  14.248  14.681   4.138
87549SOL     OW64543   1.994   9.430  12.312
87549SOL    HW164544   2.081   9.397  12.334
87549SOL    HW264545   1.985   9.414  12.219
87550SOL     OW64546   9.147  10.363   7.847
87550SOL    HW164547   9.126  10.409   7.766
87550SOL    HW264548   9.063  10.343   7.887
87551SOL     OW64549  12.270   0.660  10.143
87551SOL    HW164550  12.295   0.597  10.211
87551SOL    HW264551  12.352   0.702  10.118
87552SOL     OW64552   3.594   9.586   8.787
87552SOL    HW164553   3.657   9.598   8.858
87552SOL    HW264554   3.636   9.627   8.711
87553SOL     OW64555   6.885  11.034  11.280
87553SOL    HW164556   6.862  11.114  11.233
87553SOL    HW264557   6.818  11.026  11.348
87554SOL     OW64558  14.816   7.893  10.426
87554SOL    HW164559  14.758   7.828  10.464
87554SOL    HW264560  14.765   7.974  10.423
87555SOL     OW64561   2.553   9.989   4.126
87555SOL    HW164562   2.594   9.919   4.178
87555SOL    HW264563   2.490  10.030   4.185
87556SOL     OW64564   4.715   9.853   4.685
87556SOL    HW164565   4.689   9.924   4.627
87556SOL    HW264566   4.699   9.773   4.634
87557SOL     OW64567  10.377   4.942  11.967
87557SOL    HW164568  10.400   5.024  12.012
87557SOL    HW264569  10.357   4.969  11.878
87558SOL     OW64570   2.356   0.111   5.186
87558SOL    HW164571   2.351   0.179   5.119
87558SOL    HW264572   2.391   0.035   5.139
87559SOL     OW64573   9.542   2.901   4.234
87559SOL    HW164574   9.552   2.923   4.327
87559SOL    HW264575   9.542   2.806   4.231
87560SOL     OW64576   6.174   2.918   0.598
87560SOL    HW164577   6.117   2.854   0.554
87560SOL    HW264578   6.263   2.887   0.580
87561SOL     OW64579   6.083  11.866  14.861
87561SOL    HW164580   6.170  11.836  14.834
87561SOL    HW264581   6.060  11.934  14.798
87562SOL     OW64582   9.613  14.560   5.073
87562SOL    HW164583   9.592  14.651   5.095
87562SOL    HW264584   9.622  14.516   5.158
87563SOL     OW64585   4.744  14.801   3.961
87563SOL    HW164586   4.820  14.761   4.004
87563SOL    HW264587   4.707  14.730   3.908
87564SOL     OW64588   2.317  10.183   7.854
87564SOL    HW164589   2.260  10.252   7.820
87564SOL    HW264590   2.290  10.104   7.808
87565SOL     OW64591  11.006   3.080   9.590
87565SOL    HW164592  10.998   2.985   9.602
87565SOL    HW264593  10.947   3.100   9.517
87566SOL     OW64594   8.415  10.658  13.114
87566SOL    HW164595   8.332  10.645  13.159
87566SOL    HW264596   8.393  10.653  13.021
87567SOL     OW64597  13.345   9.347   9.453
87567SOL    HW164598  13.406   9.279   9.482
87567SOL    HW264599  13.263   9.300   9.437
87568SOL     OW64600   9.554   9.189  11.645
87568SOL    HW164601   9.477   9.194  11.588
87568SOL    HW264602   9.532   9.246  11.719
87569SOL     OW64603  12.293  13.691   4.881
87569SOL    HW164604  12.294  13.619   4.945
87569SOL    HW264605  12.214  13.741   4.903
87570SOL     OW64606   6.751   9.009   1.428
87570SOL    HW164607   6.824   8.978   1.373
87570SOL    HW264608   6.699   9.065   1.370
87571SOL     OW64609   8.124   2.680   4.462
87571SOL    HW164610   8.093   2.721   4.380
87571SOL    HW264611   8.058   2.706   4.527
87572SOL     OW64612  12.793   4.659  12.032
87572SOL    HW164613  12.870   4.643  12.088
87572SOL    HW264614  12.770   4.750  12.048
87573SOL     OW64615  14.514   2.948   6.611
87573SOL    HW164616  14.545   2.858   6.604
87573SOL    HW264617  14.448   2.946   6.681
87574SOL     OW64618   2.535   7.816  13.873
87574SOL    HW164619   2.545   7.880  13.944
87574SOL    HW264620   2.475   7.858  13.811
87575SOL     OW64621   2.184   7.369   6.662
87575SOL    HW164622   2.199   7.419   6.742
87575SOL    HW264623   2.113   7.417   6.618
87576SOL     OW64624  12.744  12.623   3.310
87576SOL    HW164625  12.822  12.634   3.256
87576SOL    HW264626  12.775  12.634   3.400
87577SOL     OW64627   6.887   6.654  10.449
87577SOL    HW164628   6.818   6.719  10.462
87577SOL    HW264629   6.968   6.703  10.451
87578SOL     OW64630  11.811  12.179   5.749
87578SOL    HW164631  11.766  12.124   5.813
87578SOL    HW264632  11.803  12.268   5.784
87579SOL     OW64633   2.412   1.750  13.362
87579SOL    HW164634   2.497   1.773  13.323
87579SOL    HW264635   2.399   1.658  13.338
87580SOL     OW64636   5.045   1.779   9.673
87580SOL    HW164637   5.009   1.866   9.690
87580SOL    HW264638   4.970   1.720   9.681
87581SOL     OW64639  14.163   0.195   2.771
87581SOL    HW164640  14.200   0.130   2.712
87581SOL    HW264641  14.159   0.276   2.719
87582SOL     OW64642   9.998  13.568   0.830
87582SOL    HW164643   9.916  13.523   0.811
87582SOL    HW264644  10.041  13.514   0.896
87583SOL     OW64645   2.727   9.809  10.879
87583SOL    HW164646   2.649   9.759  10.898
87583SOL    HW264647   2.795   9.743  10.861
87584SOL     OW64648  10.390   9.102   5.113
87584SOL    HW164649  10.364   9.091   5.205
87584SOL    HW264650  10.448   9.029   5.095
87585SOL     OW64651   5.785   9.728   1.938
87585SOL    HW164652   5.753   9.686   2.017
87585SOL    HW264653   5.842   9.799   1.969
87586SOL     OW64654   9.931   3.690  11.630
87586SOL    HW164655   9.929   3.784  11.645
87586SOL    HW264656   9.917   3.680  11.536
87587SOL     OW64657   7.875  12.533   1.510
87587SOL    HW164658   7.780  12.526   1.500
87587SOL    HW264659   7.889  12.538   1.604
87588SOL     OW64660  14.759  12.258   1.562
87588SOL    HW164661  14.779  12.331   1.504
87588SOL    HW264662  14.663  12.254   1.564
87589SOL     OW64663   6.003   0.059  13.439
87589SOL    HW164664   5.969   0.149  13.444
87589SOL    HW264665   5.929   0.005  13.468
87590SOL     OW64666  10.973  12.906   1.360
87590SOL    HW164667  11.023  12.964   1.303
87590SOL    HW264668  10.997  12.933   1.449
87591SOL     OW64669  11.345   6.949   6.018
87591SOL    HW164670  11.274   7.001   6.054
87591SOL    HW264671  11.419   7.009   6.011
87592SOL     OW64672  13.192   8.967  12.510
87592SOL    HW164673  13.161   9.015  12.586
87592SOL    HW264674  13.120   8.974  12.447
87593SOL     OW64675   9.212   8.531   1.456
87593SOL    HW164676   9.171   8.516   1.371
87593SOL    HW264677   9.140   8.527   1.519
87594SOL     OW64678   1.457   7.507   2.915
87594SOL    HW164679   1.423   7.525   2.828
87594SOL    HW264680   1.417   7.424   2.941
87595SOL     OW64681   2.866   5.461  14.356
87595SOL    HW164682   2.862   5.426  14.267
87595SOL    HW264683   2.775   5.483  14.377
87596SOL     OW64684   9.362   8.006   7.565
87596SOL    HW164685   9.300   7.997   7.493
87596SOL    HW264686   9.352   7.926   7.616
87597SOL     OW64687   3.235   5.667  11.132
87597SOL    HW164688   3.325   5.700  11.128
87597SOL    HW264689   3.193   5.703  11.054
87598SOL     OW64690   1.537   9.857   4.830
87598SOL    HW164691   1.591   9.826   4.757
87598SOL    HW264692   1.490   9.779   4.860
87599SOL     OW64693   9.102  12.658  13.029
87599SOL    HW164694   9.113  12.609  13.110
87599SOL    HW264695   9.130  12.747  13.051
87600SOL     OW64696   1.346   9.417  11.083
87600SOL    HW164697   1.428   9.452  11.047
87600SOL    HW264698   1.280   9.484  11.064
87601SOL     OW64699  11.370  14.690   4.917
87601SOL    HW164700  11.333  14.706   5.004
87601SOL    HW264701  11.293  14.681   4.860
87602SOL     OW64702   5.681   8.793  13.497
87602SOL    HW164703   5.757   8.759  13.448
87602SOL    HW264704   5.605   8.755  13.453
87603SOL     OW64705  11.095   9.241   7.655
87603SOL    HW164706  11.080   9.165   7.599
87603SOL    HW264707  11.101   9.204   7.744
87604SOL     OW64708  13.075   4.938  11.786
87604SOL    HW164709  13.052   4.989  11.863
87604SOL    HW264710  13.162   4.970  11.761
87605SOL     OW64711   0.092   8.434   1.337
87605SOL    HW164712   0.183   8.405   1.348
87605SOL    HW264713   0.058   8.380   1.266
87606SOL     OW64714  12.442  14.795  12.096
87606SOL    HW164715  12.482  14.805  12.010
87606SOL    HW264716  12.357  14.839  12.089
87607SOL     OW64717  10.023   6.732   6.603
87607SOL    HW164718   9.988   6.690   6.525
87607SOL    HW264719   9.968   6.701   6.674
87608SOL     OW64720   3.247   2.656   3.260
87608SOL    HW164721   3.266   2.570   3.223
87608SOL    HW264722   3.230   2.712   3.185
87609SOL     OW64723   1.044   1.985   2.273
87609SOL    HW164724   1.061   2.001   2.181
87609SOL    HW264725   1.071   1.894   2.287
87610SOL     OW64726   6.861  11.302   9.760
87610SOL    HW164727   6.910  11.270   9.684
87610SOL    HW264728   6.926  11.351   9.811
87611SOL     OW64729   6.562   5.992   9.237
87611SOL    HW164730   6.526   6.059   9.296
87611SOL    HW264731   6.503   5.918   9.245
87612SOL     OW64732  13.531   3.538   8.145
87612SOL    HW164733  13.497   3.627   8.138
87612SOL    HW264734  13.622   3.549   8.173
87613SOL     OW64735  14.038   7.481  11.752
87613SOL    HW164736  14.058   7.416  11.684
87613SOL    HW264737  13.959   7.525  11.720
87614SOL     OW64738   7.908   6.444   7.732
87614SOL    HW164739   7.981   6.384   7.748
87614SOL    HW264740   7.950   6.522   7.695
87615SOL     OW64741   8.760   3.454   8.747
87615SOL    HW164742   8.782   3.388   8.813
87615SOL    HW264743   8.686   3.417   8.699
87616SOL     OW64744   0.046   7.381   7.671
87616SOL    HW164745   0.026   7.442   7.743
87616SOL    HW264746  14.837   7.375   7.621
87617SOL     OW64747   0.269  11.569   6.652
87617SOL    HW164748   0.300  11.479   6.641
87617SOL    HW264749   0.277  11.608   6.565
87618SOL     OW64750   8.636  14.002   0.359
87618SOL    HW164751   8.630  14.098   0.350
87618SOL    HW264752   8.725  13.981   0.331
87619SOL     OW64753  13.649   5.181   1.686
87619SOL    HW164754  13.653   5.147   1.776
87619SOL    HW264755  13.606   5.111   1.637
87620SOL     OW64756  14.549   5.268   2.694
87620SOL    HW164757  14.500   5.186   2.701
87620SOL    HW264758  14.606   5.268   2.770
87621SOL     OW64759   6.376  12.503  13.694
87621SOL    HW164760   6.325  12.575  13.731
87621SOL    HW264761   6.381  12.439  13.765
87622SOL     OW64762  10.458   7.138   7.845
87622SOL    HW164763  10.500   7.203   7.902
87622SOL    HW264764  10.522   7.123   7.776
87623SOL     OW64765  10.090   2.886  13.589
87623SOL    HW164766  10.175   2.924  13.566
87623SOL    HW264767  10.061   2.842  13.509
87624SOL     OW64768  12.153   2.076   6.559
87624SOL    HW164769  12.198   2.083   6.644
87624SOL    HW264770  12.120   2.164   6.543
87625SOL     OW64771  12.172   5.200   2.750
87625SOL    HW164772  12.085   5.174   2.721
87625SOL    HW264773  12.185   5.153   2.833
87626SOL     OW64774   1.190  11.744   5.949
87626SOL    HW164775   1.137  11.682   5.999
87626SOL    HW264776   1.271  11.752   5.999
87627SOL     OW64777   7.008   6.981   9.155
87627SOL    HW164778   7.062   6.995   9.077
87627SOL    HW264779   6.944   6.915   9.128
87628SOL     OW64780   4.161   1.835   6.810
87628SOL    HW164781   4.217   1.909   6.788
87628SOL    HW264782   4.073   1.861   6.781
87629SOL     OW64783   2.538   2.525   9.464
87629SOL    HW164784   2.569   2.467   9.395
87629SOL    HW264785   2.602   2.515   9.535
87630SOL     OW64786  12.993  13.432   1.975
87630SOL    HW164787  12.984  13.443   1.880
87630SOL    HW264788  13.070  13.484   1.998
87631SOL     OW64789   6.789  11.902   9.573
87631SOL    HW164790   6.786  11.993   9.545
87631SOL    HW264791   6.881  11.885   9.592
87632SOL     OW64792   5.193   5.023   1.939
87632SOL    HW164793   5.259   5.045   2.005
87632SOL    HW264794   5.211   5.083   1.866
87633SOL     OW64795   0.012   8.508   1.024
87633SOL    HW164796   0.043   8.598   1.036
87633SOL    HW264797  14.791   8.518   1.004
87634SOL     OW64798  12.436  12.121  14.259
87634SOL    HW164799  12.514  12.077  14.224
87634SOL    HW264800  12.402  12.172  14.186
87635SOL     OW64801   8.447   7.637  14.763
87635SOL    HW164802   8.375   7.582  14.734
87635SOL    HW264803   8.442   7.637  14.859
87636SOL     OW64804   2.343   3.324   0.764
87636SOL    HW164805   2.376   3.255   0.707
87636SOL    HW264806   2.259   3.291   0.796
87637SOL     OW64807  13.274   0.111   0.776
87637SOL    HW164808  13.321   0.124   0.694
87637SOL    HW264809  13.181   0.111   0.752
87638SOL     OW64810   5.972   0.337   4.863
87638SOL    HW164811   5.959   0.333   4.768
87638SOL    HW264812   5.938   0.424   4.887
87639SOL     OW64813   7.451   5.275   4.742
87639SOL    HW164814   7.372   5.223   4.755
87639SOL    HW264815   7.441   5.311   4.653
87640SOL     OW64816   1.006   3.231   0.507
87640SOL    HW164817   0.986   3.321   0.533
87640SOL    HW264818   1.047   3.192   0.584
87641SOL     OW64819   3.774   6.125   5.386
87641SOL    HW164820   3.836   6.054   5.369
87641SOL    HW264821   3.692   6.095   5.347
87642SOL     OW64822   6.689   0.674   9.178
87642SOL    HW164823   6.721   0.740   9.239
87642SOL    HW264824   6.601   0.704   9.155
87643SOL     OW64825   5.215  10.766  14.709
87643SOL    HW164826   5.283  10.833  14.700
87643SOL    HW264827   5.245  10.711  14.781
87644SOL     OW64828   5.338   5.402  11.266
87644SOL    HW164829   5.346   5.472  11.202
87644SOL    HW264830   5.290   5.442  11.339
87645SOL     OW64831  13.342   0.154   2.044
87645SOL    HW164832  13.392   0.229   2.078
87645SOL    HW264833  13.409   0.087   2.028
87646SOL     OW64834   6.011  14.469   3.408
87646SOL    HW164835   5.963  14.549   3.427
87646SOL    HW264836   5.966  14.401   3.458
87647SOL     OW64837   2.366   7.481  10.541
87647SOL    HW164838   2.284   7.528  10.527
87647SOL    HW264839   2.392   7.503  10.631
87648SOL     OW64840  10.614  10.911  14.865
87648SOL    HW164841  10.656  10.928  14.781
87648SOL    HW264842  10.635  10.820   0.013
87649SOL     OW64843   5.305  12.712  10.386
87649SOL    HW164844   5.345  12.748  10.465
87649SOL    HW264845   5.379  12.685  10.332
87650SOL     OW64846   7.685   2.226  12.104
87650SOL    HW164847   7.727   2.148  12.141
87650SOL    HW264848   7.756   2.290  12.096
87651SOL     OW64849   9.120  13.401  12.472
87651SOL    HW164850   9.205  13.369  12.502
87651SOL    HW264851   9.131  13.495  12.463
87652SOL     OW64852   5.446   1.355   7.316
87652SOL    HW164853   5.440   1.269   7.356
87652SOL    HW264854   5.484   1.339   7.230
87653SOL     OW64855   0.244   0.546  12.050
87653SOL    HW164856   0.337   0.571  12.049
87653SOL    HW264857   0.246   0.450  12.053
87654SOL     OW64858   9.678  12.267   1.330
87654SOL    HW164859   9.582  12.276   1.334
87654SOL    HW264860   9.699  12.203   1.398
87655SOL     OW64861  11.723   1.058  13.333
87655SOL    HW164862  11.775   0.991  13.289
87655SOL    HW264863  11.635   1.047  13.297
87656SOL     OW64864   0.652   8.806  10.012
87656SOL    HW164865   0.686   8.890  10.042
87656SOL    HW264866   0.707   8.784   9.937
87657SOL     OW64867   6.160   5.616   1.660
87657SOL    HW164868   6.126   5.704   1.676
87657SOL    HW264869   6.143   5.568   1.740
87658SOL     OW64870   9.270   8.117  11.760
87658SOL    HW164871   9.201   8.141  11.698
87658SOL    HW264872   9.349   8.109  11.706
87659SOL     OW64873  10.972   3.782   7.157
87659SOL    HW164874  10.909   3.851   7.134
87659SOL    HW264875  10.952   3.762   7.249
87660SOL     OW64876  10.716   5.133   3.706
87660SOL    HW164877  10.645   5.097   3.761
87660SOL    HW264878  10.747   5.210   3.755
87661SOL     OW64879   0.620   9.746   2.426
87661SOL    HW164880   0.582   9.660   2.446
87661SOL    HW264881   0.711   9.728   2.404
87662SOL     OW64882   9.655   6.730   6.057
87662SOL    HW164883   9.652   6.774   6.141
87662SOL    HW264884   9.747   6.711   6.043
87663SOL     OW64885  11.880   0.221  11.949
87663SOL    HW164886  11.884   0.133  11.912
87663SOL    HW264887  11.805   0.262  11.905
87664SOL     OW64888  13.221   2.570   9.986
87664SOL    HW164889  13.310   2.550  10.013
87664SOL    HW264890  13.229   2.591   9.892
87665SOL     OW64891   3.540   0.170  12.127
87665SOL    HW164892   3.634   0.152  12.119
87665SOL    HW264893   3.534   0.237  12.196
87666SOL     OW64894   2.703  12.059   3.942
87666SOL    HW164895   2.619  12.052   3.896
87666SOL    HW264896   2.680  12.044   4.034
87667SOL     OW64897   5.609   8.840   3.660
87667SOL    HW164898   5.683   8.850   3.599
87667SOL    HW264899   5.602   8.925   3.703
87668SOL     OW64900   5.982   3.043   7.181
87668SOL    HW164901   6.014   3.086   7.261
87668SOL    HW264902   6.046   2.975   7.163
87669SOL     OW64903   8.241   0.743   8.085
87669SOL    HW164904   8.188   0.698   8.152
87669SOL    HW264905   8.331   0.716   8.104
87670SOL     OW64906   1.037   0.609  13.592
87670SOL    HW164907   1.058   0.516  13.589
87670SOL    HW264908   1.108   0.652  13.546
87671SOL     OW64909  14.437  11.119  14.489
87671SOL    HW164910  14.442  11.041  14.545
87671SOL    HW264911  14.368  11.172  14.529
87672SOL     OW64912   8.164  11.553   8.570
87672SOL    HW164913   8.103  11.612   8.615
87672SOL    HW264914   8.217  11.611   8.516
87673SOL     OW64915  11.557   2.827   4.924
87673SOL    HW164916  11.522   2.910   4.890
87673SOL    HW264917  11.609   2.792   4.852
87674SOL     OW64918  14.766   9.526  14.676
87674SOL    HW164919  14.683   9.485  14.702
87674SOL    HW264920  14.801   9.468  14.608
87675SOL     OW64921   8.447   5.285   0.379
87675SOL    HW164922   8.482   5.268   0.292
87675SOL    HW264923   8.523   5.275   0.437
87676SOL     OW64924   2.273   8.591  12.978
87676SOL    HW164925   2.310   8.532  13.043
87676SOL    HW264926   2.343   8.603  12.914
87677SOL     OW64927  13.798  14.837  14.596
87677SOL    HW164928  13.746   0.006  14.527
87677SOL    HW264929  13.752  14.859  14.677
87678SOL     OW64930   7.525   0.453  11.776
87678SOL    HW164931   7.434   0.480  11.791
87678SOL    HW264932   7.527   0.361  11.803
87679SOL     OW64933   0.718   0.724  11.707
87679SOL    HW164934   0.707   0.743  11.801
87679SOL    HW264935   0.628   0.714  11.675
87680SOL     OW64936   2.228   6.285   9.582
87680SOL    HW164937   2.164   6.246   9.641
87680SOL    HW264938   2.280   6.211   9.550
87681SOL     OW64939  12.058   1.994   3.236
87681SOL    HW164940  12.011   1.933   3.179
87681SOL    HW264941  12.113   1.938   3.290
87682SOL     OW64942  12.629   9.173   9.024
87682SOL    HW164943  12.683   9.097   9.046
87682SOL    HW264944  12.574   9.185   9.101
87683SOL     OW64945   6.608   7.875   4.074
87683SOL    HW164946   6.571   7.880   3.986
87683SOL    HW264947   6.701   7.895   4.062
87684SOL     OW64948  12.561   9.918   9.862
87684SOL    HW164949  12.475   9.895   9.897
87684SOL    HW264950  12.615   9.935   9.940
87685SOL     OW64951   4.863   2.045  10.198
87685SOL    HW164952   4.820   2.011  10.276
87685SOL    HW264953   4.794   2.090  10.150
87686SOL     OW64954   3.004   6.877   4.068
87686SOL    HW164955   2.942   6.881   4.140
87686SOL    HW264956   3.063   6.805   4.091
87687SOL     OW64957   1.359   1.170   0.108
87687SOL    HW164958   1.422   1.232   0.071
87687SOL    HW264959   1.381   1.086   0.068
87688SOL     OW64960  11.504   7.692   3.057
87688SOL    HW164961  11.460   7.762   3.103
87688SOL    HW264962  11.487   7.709   2.964
87689SOL     OW64963  10.960  12.808  13.607
87689SOL    HW164964  11.029  12.874  13.594
87689SOL    HW264965  10.997  12.747  13.671
87690SOL     OW64966   9.218   8.965   9.560
87690SOL    HW164967   9.142   9.020   9.579
87690SOL    HW264968   9.263   9.010   9.489
87691SOL     OW64969  11.531   2.721  10.203
87691SOL    HW164970  11.458   2.668  10.234
87691SOL    HW264971  11.565   2.763  10.282
87692SOL     OW64972   9.212  13.339   2.589
87692SOL    HW164973   9.262  13.279   2.645
87692SOL    HW264974   9.122  13.307   2.594
87693SOL     OW64975   3.143   3.601   6.203
87693SOL    HW164976   3.222   3.561   6.239
87693SOL    HW264977   3.169   3.691   6.182
87694SOL     OW64978  12.789   8.030   6.466
87694SOL    HW164979  12.847   7.973   6.516
87694SOL    HW264980  12.728   8.064   6.531
87695SOL     OW64981   5.094   7.059   5.824
87695SOL    HW164982   5.084   7.148   5.789
87695SOL    HW264983   5.188   7.044   5.823
87696SOL     OW64984  10.728   8.687   9.027
87696SOL    HW164985  10.683   8.622   8.973
87696SOL    HW264986  10.820   8.679   9.002
87697SOL     OW64987   2.396   0.228   0.174
87697SOL    HW164988   2.473   0.171   0.166
87697SOL    HW264989   2.339   0.183   0.235
87698SOL     OW64990  11.695  12.732   3.401
87698SOL    HW164991  11.739  12.797   3.457
87698SOL    HW264992  11.740  12.650   3.420
87699SOL     OW64993   6.243   8.575   0.345
87699SOL    HW164994   6.200   8.559   0.261
87699SOL    HW264995   6.336   8.564   0.326
87700SOL     OW64996  14.134   8.152  11.208
87700SOL    HW164997  14.041   8.161  11.227
87700SOL    HW264998  14.137   8.117  11.119
87701SOL     OW64999   3.378  12.699   8.398
87701SOL    HW165000   3.359  12.635   8.329
87701SOL    HW265001   3.366  12.784   8.355
87702SOL     OW65002   5.585  13.845   1.943
87702SOL    HW165003   5.554  13.930   1.973
87702SOL    HW265004   5.640  13.813   2.014
87703SOL     OW65005   5.853   1.074  13.008
87703SOL    HW165006   5.902   0.997  13.036
87703SOL    HW265007   5.914   1.147  13.021
87704SOL     OW65008  11.170   0.513   8.773
87704SOL    HW165009  11.083   0.483   8.797
87704SOL    HW265010  11.158   0.604   8.746
87705SOL     OW65011   7.304  12.092   7.242
87705SOL    HW165012   7.214  12.082   7.211
87705SOL    HW265013   7.317  12.018   7.301
87706SOL     OW65014  12.414   9.499   0.380
87706SOL    HW165015  12.374   9.417   0.409
87706SOL    HW265016  12.451   9.537   0.459
87707SOL     OW65017  11.319   4.935  13.077
87707SOL    HW165018  11.269   4.855  13.093
87707SOL    HW265019  11.293   4.994  13.147
87708SOL     OW65020   2.036  14.175  10.956
87708SOL    HW165021   2.046  14.128  10.873
87708SOL    HW265022   2.105  14.140  11.012
87709SOL     OW65023   6.711   0.245   0.161
87709SOL    HW165024   6.729   0.225   0.253
87709SOL    HW265025   6.735   0.337   0.151
87710SOL     OW65026   9.493  13.026   7.667
87710SOL    HW165027   9.579  12.994   7.695
87710SOL    HW265028   9.432  12.961   7.701
87711SOL     OW65029   6.233   8.680  11.707
87711SOL    HW165030   6.148   8.650  11.675
87711SOL    HW265031   6.246   8.765  11.666
87712SOL     OW65032   3.050   6.816  14.455
87712SOL    HW165033   3.112   6.791  14.386
87712SOL    HW265034   2.968   6.775  14.430
87713SOL     OW65035  13.632  10.900   0.974
87713SOL    HW165036  13.548  10.936   1.003
87713SOL    HW265037  13.671  10.970   0.922
87714SOL     OW65038   2.741  13.344   8.507
87714SOL    HW165039   2.804  13.278   8.478
87714SOL    HW265040   2.763  13.358   8.599
87715SOL     OW65041  14.351   0.956  11.713
87715SOL    HW165042  14.352   0.926  11.622
87715SOL    HW265043  14.307   0.886  11.762
87716SOL     OW65044   0.068   8.502   6.631
87716SOL    HW165045  14.847   8.501   6.653
87716SOL    HW265046   0.103   8.422   6.670
87717SOL     OW65047   3.138  11.461   3.582
87717SOL    HW165048   3.222  11.498   3.608
87717SOL    HW265049   3.152  11.432   3.491
87718SOL     OW65050  12.336   6.431  10.814
87718SOL    HW165051  12.266   6.375  10.782
87718SOL    HW265052  12.374   6.382  10.887
87719SOL     OW65053   9.367   2.992  13.366
87719SOL    HW165054   9.437   2.967  13.426
87719SOL    HW265055   9.323   3.065  13.409
87720SOL     OW65056   5.801  13.260  13.854
87720SOL    HW165057   5.801  13.203  13.931
87720SOL    HW265058   5.832  13.205  13.783
87721SOL     OW65059   3.103   3.290  14.343
87721SOL    HW165060   3.124   3.375  14.381
87721SOL    HW265061   3.068   3.239  14.416
87722SOL     OW65062   6.339  12.066   9.748
87722SOL    HW165063   6.433  12.053   9.762
87722SOL    HW265064   6.304  11.978   9.735
87723SOL     OW65065   4.683   1.943   2.282
87723SOL    HW165066   4.596   1.946   2.320
87723SOL    HW265067   4.718   1.857   2.307
87724SOL     OW65068  12.818   3.979   3.200
87724SOL    HW165069  12.736   3.996   3.246
87724SOL    HW265070  12.886   4.001   3.264
87725SOL     OW65071   9.109  11.788   1.212
87725SOL    HW165072   9.113  11.727   1.286
87725SOL    HW265073   9.016  11.812   1.207
87726SOL     OW65074   7.796   3.749   8.100
87726SOL    HW165075   7.795   3.801   8.020
87726SOL    HW265076   7.812   3.814   8.169
87727SOL     OW65077   1.895  13.249   5.083
87727SOL    HW165078   1.832  13.195   5.034
87727SOL    HW265079   1.840  13.299   5.143
87728SOL     OW65080   0.647   5.189  12.720
87728SOL    HW165081   0.661   5.277  12.754
87728SOL    HW265082   0.692   5.132  12.782
87729SOL     OW65083  13.895   4.167  13.794
87729SOL    HW165084  13.807   4.156  13.830
87729SOL    HW265085  13.909   4.090  13.740
87730SOL     OW65086   2.319  10.293   6.799
87730SOL    HW165087   2.381  10.230   6.833
87730SOL    HW265088   2.361  10.329   6.721
87731SOL     OW65089   5.731   5.488   0.909
87731SOL    HW165090   5.665   5.442   0.961
87731SOL    HW265091   5.801   5.425   0.897
87732SOL     OW65092  11.605   8.590   9.185
87732SOL    HW165093  11.583   8.503   9.217
87732SOL    HW265094  11.586   8.648   9.259
87733SOL     OW65095   6.453   7.764   4.923
87733SOL    HW165096   6.398   7.743   4.848
87733SOL    HW265097   6.517   7.693   4.928
87734SOL     OW65098  11.122   7.880  10.446
87734SOL    HW165099  11.089   7.966  10.472
87734SOL    HW265100  11.202   7.898  10.398
87735SOL     OW65101   6.862  14.254   3.284
87735SOL    HW165102   6.879  14.305   3.363
87735SOL    HW265103   6.779  14.287   3.250
87736SOL     OW65104   4.932   4.093   0.847
87736SOL    HW165105   4.957   4.163   0.787
87736SOL    HW265106   5.014   4.046   0.866
87737SOL     OW65107  10.274   8.495  11.240
87737SOL    HW165108  10.250   8.474  11.330
87737SOL    HW265109  10.194   8.479  11.189
87738SOL     OW65110   1.203   0.551   4.485
87738SOL    HW165111   1.244   0.579   4.403
87738SOL    HW265112   1.159   0.629   4.518
87739SOL     OW65113   0.942   3.845   9.905
87739SOL    HW165114   0.999   3.921   9.907
87739SOL    HW265115   0.924   3.825   9.996
87740SOL     OW65116   0.376   6.891  10.803
87740SOL    HW165117   0.462   6.926  10.827
87740SOL    HW265118   0.375   6.895  10.707
87741SOL     OW65119   9.084   1.636   5.064
87741SOL    HW165120   9.072   1.711   5.006
87741SOL    HW265121   9.113   1.674   5.147
87742SOL     OW65122  10.876  10.982   4.749
87742SOL    HW165123  10.810  10.934   4.799
87742SOL    HW265124  10.851  10.970   4.658
87743SOL     OW65125   4.653   9.771  11.999
87743SOL    HW165126   4.662   9.690  11.950
87743SOL    HW265127   4.707   9.834  11.951
87744SOL     OW65128  13.729   8.923   9.349
87744SOL    HW165129  13.783   8.859   9.303
87744SOL    HW265130  13.686   8.872   9.418
87745SOL     OW65131  13.060  14.267   7.864
87745SOL    HW165132  13.048  14.295   7.773
87745SOL    HW265133  12.974  14.278   7.904
87746SOL     OW65134  10.528   3.458   7.820
87746SOL    HW165135  10.584   3.518   7.870
87746SOL    HW265136  10.523   3.380   7.876
87747SOL     OW65137   3.715   6.241   4.956
87747SOL    HW165138   3.634   6.205   4.919
87747SOL    HW265139   3.689   6.272   5.043
87748SOL     OW65140   3.989   9.259   2.628
87748SOL    HW165141   4.010   9.277   2.720
87748SOL    HW265142   3.961   9.343   2.593
87749SOL     OW65143   8.550   1.660  12.079
87749SOL    HW165144   8.585   1.640  11.992
87749SOL    HW265145   8.591   1.595  12.137
87750SOL     OW65146  12.387   9.384   7.570
87750SOL    HW165147  12.335   9.452   7.526
87750SOL    HW265148  12.345   9.373   7.655
87751SOL     OW65149   6.790   4.047   2.939
87751SOL    HW165150   6.839   4.009   2.866
87751SOL    HW265151   6.841   4.023   3.016
87752SOL     OW65152  14.212  12.605   1.901
87752SOL    HW165153  14.237  12.515   1.922
87752SOL    HW265154  14.137  12.623   1.958
87753SOL     OW65155   0.333   1.433   1.403
87753SOL    HW165156   0.324   1.470   1.491
87753SOL    HW265157   0.354   1.509   1.348
87754SOL     OW65158   5.989   2.477  10.900
87754SOL    HW165159   5.980   2.425  10.980
87754SOL    HW265160   6.004   2.566  10.931
87755SOL     OW65161   9.477   4.255   9.837
87755SOL    HW165162   9.386   4.247   9.865
87755SOL    HW265163   9.494   4.174   9.789
87756SOL     OW65164  13.046  11.584  10.405
87756SOL    HW165165  13.048  11.680  10.400
87756SOL    HW265166  13.122  11.557  10.352
87757SOL     OW65167   5.098  10.196   2.056
87757SOL    HW165168   5.082  10.290   2.067
87757SOL    HW265169   5.013  10.161   2.029
87758SOL     OW65170   0.524  10.387   8.168
87758SOL    HW165171   0.598  10.445   8.189
87758SOL    HW265172   0.539  10.361   8.077
87759SOL     OW65173   7.497  11.956  13.131
87759SOL    HW165174   7.534  11.870  13.153
87759SOL    HW265175   7.565  11.999  13.079
87760SOL     OW65176  13.873   5.791   7.074
87760SOL    HW165177  13.946   5.778   7.013
87760SOL    HW265178  13.914   5.805   7.159
87761SOL     OW65179  10.899   5.631   7.484
87761SOL    HW165180  10.891   5.537   7.502
87761SOL    HW265181  10.842   5.672   7.549
87762SOL     OW65182  12.818   4.662  13.383
87762SOL    HW165183  12.849   4.735  13.329
87762SOL    HW265184  12.852   4.584  13.338
87763SOL     OW65185   0.181  10.114   2.707
87763SOL    HW165186   0.142  10.027   2.701
87763SOL    HW265187   0.158  10.144   2.795
87764SOL     OW65188   5.289   2.164  12.749
87764SOL    HW165189   5.348   2.177  12.823
87764SOL    HW265190   5.206   2.201  12.778
87765SOL     OW65191   7.019   3.388   7.595
87765SOL    HW165192   7.028   3.482   7.581
87765SOL    HW265193   6.949   3.362   7.535
87766SOL     OW65194  13.714  10.191   5.904
87766SOL    HW165195  13.797  10.168   5.861
87766SOL    HW265196  13.740  10.219   5.992
87767SOL     OW65197  10.769  10.275  11.437
87767SOL    HW165198  10.846  10.253  11.386
87767SOL    HW265199  10.702  10.295  11.372
87768SOL     OW65200  12.778   1.392   7.964
87768SOL    HW165201  12.837   1.404   8.039
87768SOL    HW265202  12.728   1.313   7.986
87769SOL     OW65203   7.573  12.585  12.002
87769SOL    HW165204   7.597  12.620  12.088
87769SOL    HW265205   7.608  12.496  12.002
87770SOL     OW65206   6.882   7.072  12.433
87770SOL    HW165207   6.825   7.055  12.359
87770SOL    HW265208   6.953   7.125  12.397
87771SOL     OW65209  12.872  14.812   7.828
87771SOL    HW165210  12.787  14.829   7.789
87771SOL    HW265211  12.873  14.718   7.846
87772SOL     OW65212  13.338   8.834   0.460
87772SOL    HW165213  13.252   8.854   0.496
87772SOL    HW265214  13.349   8.740   0.475
87773SOL     OW65215  14.252   4.004  11.789
87773SOL    HW165216  14.317   3.934  11.803
87773SOL    HW265217  14.167   3.960  11.796
87774SOL     OW65218   6.023  11.670  10.041
87774SOL    HW165219   5.985  11.719   9.967
87774SOL    HW265220   6.038  11.736  10.108
87775SOL     OW65221   6.232   5.806   6.919
87775SOL    HW165222   6.291   5.744   6.960
87775SOL    HW265223   6.276   5.831   6.838
87776SOL     OW65224  10.021   8.936  13.438
87776SOL    HW165225   9.943   8.952  13.490
87776SOL    HW265226  10.028   9.014  13.382
87777SOL     OW65227   4.546   3.081  11.017
87777SOL    HW165228   4.577   3.129  11.093
87777SOL    HW265229   4.619   3.084  10.955
87778SOL     OW65230   7.976   4.451   2.121
87778SOL    HW165231   7.978   4.388   2.194
87778SOL    HW265232   7.948   4.533   2.162
87779SOL     OW65233  11.850   0.386   1.731
87779SOL    HW165234  11.829   0.329   1.657
87779SOL    HW265235  11.765   0.416   1.763
87780SOL     OW65236  12.578   2.989  14.824
87780SOL    HW165237  12.582   3.037  14.742
87780SOL    HW265238  12.511   2.922  14.810
87781SOL     OW65239   3.660   5.221   0.410
87781SOL    HW165240   3.701   5.268   0.337
87781SOL    HW265241   3.590   5.170   0.369
87782SOL     OW65242  11.040   6.361  12.080
87782SOL    HW165243  11.003   6.278  12.048
87782SOL    HW265244  11.109   6.383  12.017
87783SOL     OW65245   9.413   8.117   7.805
87783SOL    HW165246   9.380   8.070   7.729
87783SOL    HW265247   9.336   8.157   7.845
87784SOL     OW65248   6.325   5.001   9.489
87784SOL    HW165249   6.353   5.066   9.424
87784SOL    HW265250   6.252   4.955   9.447
87785SOL     OW65251   3.549   9.862   4.094
87785SOL    HW165252   3.576   9.944   4.133
87785SOL    HW265253   3.576   9.869   4.002
87786SOL     OW65254  13.482   8.827   1.247
87786SOL    HW165255  13.402   8.777   1.266
87786SOL    HW265256  13.530   8.772   1.184
87787SOL     OW65257   9.511   7.409   6.225
87787SOL    HW165258   9.531   7.377   6.137
87787SOL    HW265259   9.436   7.466   6.213
87788SOL     OW65260   0.238  14.141  11.684
87788SOL    HW165261   0.243  14.108  11.774
87788SOL    HW265262   0.178  14.082  11.640
87789SOL     OW65263  12.266  11.263  11.329
87789SOL    HW165264  12.180  11.251  11.289
87789SOL    HW265265  12.250  11.323  11.402
87790SOL     OW65266  14.046   3.180   6.965
87790SOL    HW165267  13.952   3.177   6.944
87790SOL    HW265268  14.084   3.235   6.897
87791SOL     OW65269   9.692   0.053  13.717
87791SOL    HW165270   9.646   0.082  13.796
87791SOL    HW265271   9.631  14.866  13.673
87792SOL     OW65272   5.435   4.117  14.862
87792SOL    HW165273   5.443   4.204   0.027
87792SOL    HW265274   5.518   4.074   0.009
87793SOL     OW65275  14.156  11.979  10.601
87793SOL    HW165276  14.141  12.069  10.570
87793SOL    HW265277  14.086  11.928  10.561
87794SOL     OW65278   6.962  12.085  10.797
87794SOL    HW165279   6.974  12.127  10.712
87794SOL    HW265280   6.922  12.154  10.852
87795SOL     OW65281  13.180  13.097   8.198
87795SOL    HW165282  13.192  13.084   8.293
87795SOL    HW265283  13.143  13.184   8.190
87796SOL     OW65284   4.885   4.042   1.500
87796SOL    HW165285   4.883   3.948   1.515
87796SOL    HW265286   4.794   4.067   1.486
87797SOL     OW65287   1.740  14.666   9.462
87797SOL    HW165288   1.778  14.744   9.422
87797SOL    HW265289   1.760  14.596   9.401
87798SOL     OW65290   9.351   8.019  12.266
87798SOL    HW165291   9.428   8.037  12.321
87798SOL    HW265292   9.385   7.964  12.195
87799SOL     OW65293   6.044   7.504  14.169
87799SOL    HW165294   6.070   7.412  14.176
87799SOL    HW265295   5.950   7.501  14.152
87800SOL     OW65296   0.250   9.771   8.989
87800SOL    HW165297   0.208   9.850   9.023
87800SOL    HW265298   0.333   9.765   9.036
87801SOL     OW65299   5.937   6.373   1.810
87801SOL    HW165300   6.024   6.412   1.814
87801SOL    HW265301   5.879   6.445   1.784
87802SOL     OW65302   6.179  10.064   3.209
87802SOL    HW165303   6.170  10.117   3.129
87802SOL    HW265304   6.268  10.029   3.204
87803SOL     OW65305   3.473  10.572   7.388
87803SOL    HW165306   3.385  10.608   7.376
87803SOL    HW265307   3.459  10.481   7.414
87804SOL     OW65308   7.396   9.116   4.964
87804SOL    HW165309   7.330   9.182   4.943
87804SOL    HW265310   7.359   9.034   4.931
87805SOL     OW65311   9.855   3.268   0.441
87805SOL    HW165312   9.915   3.211   0.489
87805SOL    HW265313   9.772   3.260   0.488
87806SOL     OW65314   1.100   9.390  11.692
87806SOL    HW165315   1.027   9.413  11.749
87806SOL    HW265316   1.063   9.391  11.603
87807SOL     OW65317   9.946   3.173   4.579
87807SOL    HW165318   9.943   3.078   4.575
87807SOL    HW265319   9.916   3.194   4.668
87808SOL     OW65320   1.737  13.951   4.617
87808SOL    HW165321   1.762  13.858   4.621
87808SOL    HW265322   1.690  13.959   4.534
87809SOL     OW65323   3.849   6.417  10.909
87809SOL    HW165324   3.864   6.487  10.845
87809SOL    HW265325   3.901   6.443  10.986
87810SOL     OW65326   5.860   6.257  12.709
87810SOL    HW165327   5.841   6.166  12.731
87810SOL    HW265328   5.861   6.303  12.793
87811SOL     OW65329   4.214  13.752  11.046
87811SOL    HW165330   4.202  13.838  11.006
87811SOL    HW265331   4.133  13.737  11.095
87812SOL     OW65332   9.668   2.087  12.755
87812SOL    HW165333   9.741   2.035  12.789
87812SOL    HW265334   9.704   2.132  12.678
87813SOL     OW65335   7.587   1.286  13.112
87813SOL    HW165336   7.558   1.274  13.021
87813SOL    HW265337   7.674   1.247  13.115
87814SOL     OW65338   7.514   3.269  13.004
87814SOL    HW165339   7.578   3.208  12.968
87814SOL    HW265340   7.564   3.348  13.023
87815SOL     OW65341  11.565  10.398  12.223
87815SOL    HW165342  11.566  10.476  12.168
87815SOL    HW265343  11.472  10.376  12.232
87816SOL     OW65344   3.602   6.600   4.988
87816SOL    HW165345   3.678   6.551   4.956
87816SOL    HW265346   3.640   6.676   5.033
87817SOL     OW65347  11.786   3.918   1.898
87817SOL    HW165348  11.860   3.867   1.864
87817SOL    HW265349  11.775   3.886   1.988
87818SOL     OW65350   9.797  11.655  11.583
87818SOL    HW165351   9.781  11.624  11.672
87818SOL    HW265352   9.739  11.603  11.528
87819SOL     OW65353  11.748  11.110   5.429
87819SOL    HW165354  11.794  11.069   5.356
87819SOL    HW265355  11.692  11.176   5.388
87820SOL     OW65356  10.700  12.183   2.156
87820SOL    HW165357  10.789  12.148   2.148
87820SOL    HW265358  10.652  12.141   2.085
87821SOL     OW65359  10.171   4.842  12.790
87821SOL    HW165360  10.236   4.893  12.741
87821SOL    HW265361  10.104   4.905  12.814
87822SOL     OW65362  11.662  14.225   4.345
87822SOL    HW165363  11.575  14.221   4.304
87822SOL    HW265364  11.722  14.236   4.271
87823SOL     OW65365   1.830   0.775   3.033
87823SOL    HW165366   1.925   0.772   3.050
87823SOL    HW265367   1.809   0.688   2.999
87824SOL     OW65368   7.284  11.508   2.758
87824SOL    HW165369   7.333  11.554   2.826
87824SOL    HW265370   7.298  11.415   2.777
87825SOL     OW65371  11.431  12.968  14.505
87825SOL    HW165372  11.474  13.045  14.469
87825SOL    HW265373  11.503  12.911  14.533
87826SOL     OW65374   3.112   5.511   8.787
87826SOL    HW165375   3.096   5.595   8.829
87826SOL    HW265376   3.152   5.458   8.856
87827SOL     OW65377  10.810   3.567   1.167
87827SOL    HW165378  10.893   3.615   1.165
87827SOL    HW265379  10.775   3.583   1.255
87828SOL     OW65380  12.966   4.761   2.706
87828SOL    HW165381  13.049   4.769   2.754
87828SOL    HW265382  12.926   4.847   2.713
87829SOL     OW65383   3.633   4.251   3.496
87829SOL    HW165384   3.622   4.156   3.498
87829SOL    HW265385   3.586   4.281   3.574
87830SOL     OW65386   8.312   5.040  11.776
87830SOL    HW165387   8.217   5.048  11.784
87830SOL    HW265388   8.342   5.129  11.762
87831SOL     OW65389  12.551  10.751   3.943
87831SOL    HW165390  12.492  10.695   3.893
87831SOL    HW265391  12.499  10.780   4.018
87832SOL     OW65392   5.500   8.221   2.915
87832SOL    HW165393   5.573   8.282   2.926
87832SOL    HW265394   5.533   8.156   2.852
87833SOL     OW65395  10.977  10.779   6.865
87833SOL    HW165396  10.965  10.710   6.800
87833SOL    HW265397  10.904  10.839   6.851
87834SOL     OW65398   9.897   7.434   3.373
87834SOL    HW165399   9.877   7.365   3.310
87834SOL    HW265400   9.824   7.495   3.366
87835SOL     OW65401   3.907   0.219   9.577
87835SOL    HW165402   3.955   0.293   9.541
87835SOL    HW265403   3.975   0.160   9.610
87836SOL     OW65404   4.145  14.613   3.426
87836SOL    HW165405   4.125  14.637   3.517
87836SOL    HW265406   4.210  14.543   3.434
87837SOL     OW65407  13.729   3.014   1.423
87837SOL    HW165408  13.739   3.032   1.330
87837SOL    HW265409  13.671   3.084   1.455
87838SOL     OW65410   2.803   9.372   2.880
87838SOL    HW165411   2.879   9.391   2.935
87838SOL    HW265412   2.836   9.378   2.791
87839SOL     OW65413   8.275   8.431   2.916
87839SOL    HW165414   8.215   8.363   2.885
87839SOL    HW265415   8.315   8.466   2.837
87840SOL     OW65416  13.732  10.657   0.451
87840SOL    HW165417  13.641  10.686   0.450
87840SOL    HW265418  13.736  10.593   0.522
87841SOL     OW65419  13.168  14.254   5.022
87841SOL    HW165420  13.182  14.160   5.015
87841SOL    HW265421  13.124  14.279   4.941
87842SOL     OW65422   9.424  10.856   9.148
87842SOL    HW165423   9.358  10.922   9.127
87842SOL    HW265424   9.381  10.773   9.127
87843SOL     OW65425  10.218  11.318   3.850
87843SOL    HW165426  10.268  11.330   3.769
87843SOL    HW265427  10.162  11.396   3.856
87844SOL     OW65428   2.168   9.333   6.963
87844SOL    HW165429   2.107   9.388   7.011
87844SOL    HW265430   2.170   9.250   7.011
87845SOL     OW65431  13.205   0.672   7.199
87845SOL    HW165432  13.256   0.733   7.146
87845SOL    HW265433  13.150   0.626   7.136
87846SOL     OW65434   4.660   1.647   1.896
87846SOL    HW165435   4.608   1.614   1.822
87846SOL    HW265436   4.750   1.625   1.874
87847SOL     OW65437  12.969   3.250  10.825
87847SOL    HW165438  13.003   3.338  10.807
87847SOL    HW265439  12.960   3.247  10.921
87848SOL     OW65440   3.269   0.844   7.871
87848SOL    HW165441   3.359   0.844   7.902
87848SOL    HW265442   3.228   0.919   7.915
87849SOL     OW65443   8.160   0.746   4.251
87849SOL    HW165444   8.183   0.733   4.159
87849SOL    HW265445   8.167   0.841   4.263
87850SOL     OW65446   0.428  10.871   8.735
87850SOL    HW165447   0.388  10.929   8.670
87850SOL    HW265448   0.446  10.927   8.810
87851SOL     OW65449   0.297  14.251  12.983
87851SOL    HW165450   0.295  14.294  13.068
87851SOL    HW265451   0.216  14.280  12.939
87852SOL     OW65452   1.840   8.892   0.618
87852SOL    HW165453   1.822   8.798   0.620
87852SOL    HW265454   1.757   8.931   0.592
87853SOL     OW65455   4.701   5.493   5.571
87853SOL    HW165456   4.645   5.416   5.566
87853SOL    HW265457   4.658   5.550   5.635
87854SOL     OW65458  10.326   7.172   9.043
87854SOL    HW165459  10.236   7.185   9.073
87854SOL    HW265460  10.380   7.213   9.110
87855SOL     OW65461   4.885   1.201  12.331
87855SOL    HW165462   4.886   1.246  12.247
87855SOL    HW265463   4.844   1.116  12.313
87856SOL     OW65464   1.035   2.646  13.224
87856SOL    HW165465   0.947   2.639  13.261
87856SOL    HW265466   1.042   2.571  13.165
87857SOL     OW65467   4.582   2.505   1.442
87857SOL    HW165468   4.563   2.481   1.351
87857SOL    HW265469   4.513   2.463   1.493
87858SOL     OW65470   1.960   5.903   9.668
87858SOL    HW165471   1.958   5.808   9.681
87858SOL    HW265472   2.052   5.926   9.677
87859SOL     OW65473   2.051   7.292   2.137
87859SOL    HW165474   1.992   7.344   2.190
87859SOL    HW265475   2.119   7.263   2.198
87860SOL     OW65476  13.015  12.841   9.287
87860SOL    HW165477  12.951  12.866   9.353
87860SOL    HW265478  13.044  12.754   9.313
87861SOL     OW65479   1.489   4.376   8.964
87861SOL    HW165480   1.507   4.418   9.048
87861SOL    HW265481   1.399   4.344   8.973
87862SOL     OW65482  14.683  12.703   9.674
87862SOL    HW165483  14.603  12.660   9.703
87862SOL    HW265484  14.662  12.797   9.678
87863SOL     OW65485   2.494   0.371  12.890
87863SOL    HW165486   2.561   0.406  12.831
87863SOL    HW265487   2.531   0.288  12.922
87864SOL     OW65488   8.620   5.356   1.472
87864SOL    HW165489   8.706   5.339   1.433
87864SOL    HW265490   8.563   5.377   1.398
87865SOL     OW65491   6.053   2.855  10.127
87865SOL    HW165492   5.962   2.826  10.119
87865SOL    HW265493   6.067   2.909  10.049
87866SOL     OW65494  12.245  11.878   7.615
87866SOL    HW165495  12.210  11.830   7.540
87866SOL    HW265496  12.248  11.814   7.685
87867SOL     OW65497   6.991   0.922   0.907
87867SOL    HW165498   7.035   0.909   0.991
87867SOL    HW265499   6.913   0.973   0.928
87868SOL     OW65500   6.214  11.223   4.833
87868SOL    HW165501   6.298  11.177   4.844
87868SOL    HW265502   6.149  11.163   4.870
87869SOL     OW65503  14.707  13.421  11.669
87869SOL    HW165504  14.682  13.511  11.648
87869SOL    HW265505  14.800  13.416  11.646
87870SOL     OW65506   7.176   0.491   2.332
87870SOL    HW165507   7.246   0.505   2.396
87870SOL    HW265508   7.140   0.405   2.355
87871SOL     OW65509   5.744   8.811   6.966
87871SOL    HW165510   5.817   8.816   7.028
87871SOL    HW265511   5.709   8.722   6.979
87872SOL     OW65512   2.185   8.099   8.874
87872SOL    HW165513   2.108   8.131   8.921
87872SOL    HW265514   2.233   8.046   8.938
87873SOL     OW65515   3.182   5.368   3.971
87873SOL    HW165516   3.156   5.292   3.919
87873SOL    HW265517   3.240   5.332   4.038
87874SOL     OW65518  13.756   2.604   9.450
87874SOL    HW165519  13.796   2.688   9.427
87874SOL    HW265520  13.662   2.618   9.439
87875SOL     OW65521   8.877  11.001   1.971
87875SOL    HW165522   8.870  10.990   1.877
87875SOL    HW265523   8.971  11.009   1.987
87876SOL     OW65524   0.186   2.167  10.805
87876SOL    HW165525   0.206   2.201  10.718
87876SOL    HW265526   0.205   2.074  10.799
87877SOL     OW65527   2.862  12.595   9.527
87877SOL    HW165528   2.948  12.554   9.536
87877SOL    HW265529   2.878  12.689   9.538
87878SOL     OW65530   4.646   7.472   2.459
87878SOL    HW165531   4.696   7.543   2.419
87878SOL    HW265532   4.630   7.501   2.549
87879SOL     OW65533   2.355   5.319   9.518
87879SOL    HW165534   2.334   5.350   9.606
87879SOL    HW265535   2.451   5.310   9.519
87880SOL     OW65536   9.559   7.551   0.714
87880SOL    HW165537   9.555   7.457   0.736
87880SOL    HW265538   9.492   7.563   0.648
87881SOL     OW65539   9.189  13.274   7.547
87881SOL    HW165540   9.235  13.233   7.621
87881SOL    HW265541   9.243  13.350   7.525
87882SOL     OW65542   5.774  13.991  14.384
87882SOL    HW165543   5.698  13.947  14.347
87882SOL    HW265544   5.738  14.067  14.430
87883SOL     OW65545   5.153  14.186   1.321
87883SOL    HW165546   5.080  14.217   1.375
87883SOL    HW265547   5.222  14.252   1.334
87884SOL     OW65548  13.329  10.285  11.784
87884SOL    HW165549  13.295  10.270  11.696
87884SOL    HW265550  13.342  10.197  11.820
87885SOL     OW65551  10.423  10.302   5.806
87885SOL    HW165552  10.465  10.274   5.888
87885SOL    HW265553  10.405  10.220   5.760
87886SOL     OW65554   3.528  12.468   2.276
87886SOL    HW165555   3.526  12.561   2.298
87886SOL    HW265556   3.483  12.462   2.191
87887SOL     OW65557   9.740   6.225  12.709
87887SOL    HW165558   9.653   6.240  12.672
87887SOL    HW265559   9.798   6.276  12.653
87888SOL     OW65560   1.658   1.481   8.728
87888SOL    HW165561   1.611   1.518   8.803
87888SOL    HW265562   1.714   1.551   8.698
87889SOL     OW65563   2.509  10.084  11.655
87889SOL    HW165564   2.438  10.020  11.660
87889SOL    HW265565   2.570  10.059  11.724
87890SOL     OW65566  14.202   4.697   8.128
87890SOL    HW165567  14.196   4.790   8.148
87890SOL    HW265568  14.117   4.675   8.091
87891SOL     OW65569   8.694   8.877  11.135
87891SOL    HW165570   8.670   8.969  11.144
87891SOL    HW265571   8.789   8.876  11.137
87892SOL     OW65572   1.308   9.249   2.523
87892SOL    HW165573   1.393   9.228   2.561
87892SOL    HW265574   1.275   9.165   2.491
87893SOL     OW65575   2.798  11.548   8.427
87893SOL    HW165576   2.868  11.559   8.492
87893SOL    HW265577   2.742  11.479   8.463
87894SOL     OW65578   9.855  12.016  10.770
87894SOL    HW165579   9.864  12.040  10.862
87894SOL    HW265580   9.775  11.963  10.767
87895SOL     OW65581  10.591   0.620  14.781
87895SOL    HW165582  10.569   0.710  14.756
87895SOL    HW265583  10.524   0.566  14.739
87896SOL     OW65584  13.873   0.362   4.294
87896SOL    HW165585  13.808   0.331   4.357
87896SOL    HW265586  13.822   0.399   4.222
87897SOL     OW65587   7.896   4.478  13.227
87897SOL    HW165588   7.864   4.568  13.228
87897SOL    HW265589   7.991   4.487  13.215
87898SOL     OW65590   4.038   4.920  14.741
87898SOL    HW165591   4.026   5.015  14.737
87898SOL    HW265592   4.025   4.899  14.833
87899SOL     OW65593  11.355  11.929   5.705
87899SOL    HW165594  11.408  11.859   5.667
87899SOL    HW265595  11.303  11.962   5.632
87900SOL     OW65596   3.944   0.686   2.346
87900SOL    HW165597   3.996   0.610   2.372
87900SOL    HW265598   4.005   0.760   2.350
87901SOL     OW65599   0.941  13.724   9.455
87901SOL    HW165600   0.884  13.702   9.529
87901SOL    HW265601   0.938  13.820   9.451
87902SOL     OW65602   7.742  11.436   4.457
87902SOL    HW165603   7.659  11.468   4.493
87902SOL    HW265604   7.788  11.516   4.430
87903SOL     OW65605   1.297   1.045   4.034
87903SOL    HW165606   1.211   1.010   4.057
87903SOL    HW265607   1.281   1.137   4.011
87904SOL     OW65608  14.738  13.530  11.204
87904SOL    HW165609  14.652  13.534  11.247
87904SOL    HW265610  14.772  13.443  11.226
87905SOL     OW65611   2.796  14.427   3.895
87905SOL    HW165612   2.701  14.422   3.880
87905SOL    HW265613   2.805  14.476   3.977
87906SOL     OW65614   4.671   3.202   7.969
87906SOL    HW165615   4.663   3.293   7.998
87906SOL    HW265616   4.582   3.168   7.972
87907SOL     OW65617   0.992   8.031   3.222
87907SOL    HW165618   1.024   8.003   3.137
87907SOL    HW265619   1.015   8.123   3.227
87908SOL     OW65620  13.630   6.628   3.028
87908SOL    HW165621  13.632   6.580   2.945
87908SOL    HW265622  13.681   6.575   3.089
87909SOL     OW65623   9.542   2.295   7.726
87909SOL    HW165624   9.513   2.218   7.678
87909SOL    HW265625   9.496   2.290   7.810
87910SOL     OW65626   3.152   9.574  14.436
87910SOL    HW165627   3.204   9.622  14.500
87910SOL    HW265628   3.076   9.543  14.485
87911SOL     OW65629  13.302  11.612   1.981
87911SOL    HW165630  13.394  11.625   1.959
87911SOL    HW265631  13.262  11.699   1.973
87912SOL     OW65632  14.214   6.481  10.251
87912SOL    HW165633  14.210   6.565  10.205
87912SOL    HW265634  14.293   6.439  10.218
87913SOL     OW65635   0.376   2.220   5.016
87913SOL    HW165636   0.399   2.310   4.996
87913SOL    HW265637   0.284   2.224   5.043
87914SOL     OW65638   2.032   2.229   9.755
87914SOL    HW165639   1.959   2.271   9.709
87914SOL    HW265640   2.063   2.295   9.817
87915SOL     OW65641   8.620   7.512   9.309
87915SOL    HW165642   8.615   7.418   9.293
87915SOL    HW265643   8.668   7.520   9.391
87916SOL     OW65644  10.625   7.535  14.620
87916SOL    HW165645  10.656   7.445  14.608
87916SOL    HW265646  10.556   7.528  14.685
87917SOL     OW65647  12.789   7.691  13.271
87917SOL    HW165648  12.745   7.748  13.333
87917SOL    HW265649  12.874   7.732  13.255
87918SOL     OW65650  11.743   1.677  14.139
87918SOL    HW165651  11.775   1.687  14.228
87918SOL    HW265652  11.783   1.750  14.091
87919SOL     OW65653   5.749   0.929  13.617
87919SOL    HW165654   5.720   0.924  13.525
87919SOL    HW265655   5.702   0.857  13.660
87920SOL     OW65656   0.598   5.799   8.622
87920SOL    HW165657   0.569   5.805   8.713
87920SOL    HW265658   0.685   5.759   8.627
87921SOL     OW65659  14.789   8.873   4.591
87921SOL    HW165660  14.813   8.949   4.538
87921SOL    HW265661  14.769   8.805   4.526
87922SOL     OW65662   3.334   3.624   7.272
87922SOL    HW165663   3.388   3.549   7.248
87922SOL    HW265664   3.395   3.698   7.275
87923SOL     OW65665   7.281   7.929   6.943
87923SOL    HW165666   7.282   8.015   6.986
87923SOL    HW265667   7.292   7.949   6.850
87924SOL     OW65668  14.732   4.897   3.228
87924SOL    HW165669  14.746   4.887   3.322
87924SOL    HW265670  14.665   4.832   3.207
87925SOL     OW65671  12.440   9.900   7.940
87925SOL    HW165672  12.447   9.960   7.866
87925SOL    HW265673  12.365   9.845   7.919
87926SOL     OW65674  13.234  11.161  10.429
87926SOL    HW165675  13.301  11.229  10.438
87926SOL    HW265676  13.186  11.162  10.511
87927SOL     OW65677   9.319  10.419   6.521
87927SOL    HW165678   9.319  10.497   6.466
87927SOL    HW265679   9.280  10.351   6.466
87928SOL     OW65680   5.527   5.086  10.386
87928SOL    HW165681   5.437   5.092  10.353
87928SOL    HW265682   5.534   5.156  10.451
87929SOL     OW65683  13.504   4.868   8.187
87929SOL    HW165684  13.553   4.951   8.190
87929SOL    HW265685  13.504   4.837   8.277
87930SOL     OW65686   3.197   4.127   9.263
87930SOL    HW165687   3.163   4.209   9.297
87930SOL    HW265688   3.290   4.129   9.286
87931SOL     OW65689  12.636   1.488   9.750
87931SOL    HW165690  12.608   1.476   9.660
87931SOL    HW265691  12.649   1.400   9.784
87932SOL     OW65692  10.871  14.167   0.493
87932SOL    HW165693  10.862  14.258   0.463
87932SOL    HW265694  10.784  14.129   0.479
87933SOL     OW65695  10.828  12.349  11.288
87933SOL    HW165696  10.770  12.295  11.341
87933SOL    HW265697  10.828  12.434  11.333
87934SOL     OW65698   8.780   0.196   7.616
87934SOL    HW165699   8.694   0.233   7.635
87934SOL    HW265700   8.772   0.103   7.638
87935SOL     OW65701   1.186   9.771  14.219
87935SOL    HW165702   1.233   9.851  14.243
87935SOL    HW265703   1.093   9.795  14.225
87936SOL     OW65704  10.969   6.317   5.688
87936SOL    HW165705  10.899   6.260   5.718
87936SOL    HW265706  10.949   6.402   5.725
87937SOL     OW65707  12.682   6.579   4.596
87937SOL    HW165708  12.722   6.494   4.577
87937SOL    HW265709  12.595   6.557   4.629
87938SOL     OW65710   0.130   9.525   1.951
87938SOL    HW165711   0.068   9.453   1.959
87938SOL    HW265712   0.202   9.490   1.900
87939SOL     OW65713   3.360   3.097   7.054
87939SOL    HW165714   3.323   3.127   7.137
87939SOL    HW265715   3.356   3.173   6.996
87940SOL     OW65716   5.194  10.889  14.133
87940SOL    HW165717   5.136  10.813  14.128
87940SOL    HW265718   5.269  10.859  14.185
87941SOL     OW65719   2.336  11.310   7.734
87941SOL    HW165720   2.258  11.295   7.679
87941SOL    HW265721   2.330  11.402   7.759
87942SOL     OW65722   0.548   0.517   8.730
87942SOL    HW165723   0.495   0.460   8.785
87942SOL    HW265724   0.616   0.551   8.788
87943SOL     OW65725  13.085   7.080   4.733
87943SOL    HW165726  13.075   7.172   4.707
87943SOL    HW265727  13.164   7.078   4.787
87944SOL     OW65728   5.804   8.868   4.277
87944SOL    HW165729   5.796   8.800   4.343
87944SOL    HW265730   5.873   8.925   4.310
87945SOL     OW65731   4.533  10.930   1.081
87945SOL    HW165732   4.551  10.872   1.155
87945SOL    HW265733   4.454  10.977   1.106
87946SOL     OW65734  14.780   8.186   3.153
87946SOL    HW165735  14.843   8.165   3.222
87946SOL    HW265736  14.768   8.103   3.106
87947SOL     OW65737   8.717   4.575   7.810
87947SOL    HW165738   8.738   4.596   7.719
87947SOL    HW265739   8.686   4.484   7.807
87948SOL     OW65740   1.822   3.780   8.586
87948SOL    HW165741   1.867   3.822   8.513
87948SOL    HW265742   1.757   3.723   8.544
87949SOL     OW65743  13.010   4.042   2.162
87949SOL    HW165744  13.031   4.091   2.082
87949SOL    HW265745  12.956   3.968   2.132
87950SOL     OW65746   1.102  14.809  12.287
87950SOL    HW165747   1.071  14.856  12.364
87950SOL    HW265748   1.036  14.741  12.272
87951SOL     OW65749   7.111  14.572   6.939
87951SOL    HW165750   7.050  14.498   6.946
87951SOL    HW265751   7.156  14.574   7.023
87952SOL     OW65752   3.766  11.546   2.642
87952SOL    HW165753   3.720  11.571   2.562
87952SOL    HW265754   3.741  11.614   2.705
87953SOL     OW65755   9.836   4.417   4.418
87953SOL    HW165756   9.844   4.479   4.490
87953SOL    HW265757   9.886   4.456   4.347
87954SOL     OW65758   8.462   0.861   1.092
87954SOL    HW165759   8.524   0.934   1.090
87954SOL    HW265760   8.448   0.844   1.185
87955SOL     OW65761   5.811   8.377  11.440
87955SOL    HW165762   5.838   8.453  11.388
87955SOL    HW265763   5.768   8.319  11.377
87956SOL     OW65764   3.853  12.177   7.671
87956SOL    HW165765   3.909  12.124   7.615
87956SOL    HW265766   3.913  12.233   7.720
87957SOL     OW65767   1.296   5.085   3.227
87957SOL    HW165768   1.308   4.994   3.200
87957SOL    HW265769   1.246   5.125   3.156
87958SOL     OW65770   6.975   9.504   4.603
87958SOL    HW165771   6.969   9.496   4.698
87958SOL    HW265772   6.955   9.595   4.585
87959SOL     OW65773   9.648   2.990   9.848
87959SOL    HW165774   9.643   2.898   9.823
87959SOL    HW265775   9.634   2.990   9.943
87960SOL     OW65776  11.229   1.335   9.325
87960SOL    HW165777  11.324   1.336   9.339
87960SOL    HW265778  11.194   1.376   9.404
87961SOL     OW65779   0.771   0.152   9.154
87961SOL    HW165780   0.812   0.066   9.159
87961SOL    HW265781   0.677   0.134   9.154
87962SOL     OW65782  12.803   1.348   5.578
87962SOL    HW165783  12.832   1.420   5.633
87962SOL    HW265784  12.783   1.277   5.639
87963SOL     OW65785   0.492  12.869   8.754
87963SOL    HW165786   0.583  12.871   8.783
87963SOL    HW265787   0.498  12.870   8.658
87964SOL     OW65788   7.196  11.993   1.985
87964SOL    HW165789   7.175  11.901   1.967
87964SOL    HW265790   7.123  12.024   2.038
87965SOL     OW65791   4.162  12.559   2.100
87965SOL    HW165792   4.151  12.655   2.096
87965SOL    HW265793   4.076  12.527   2.128
87966SOL     OW65794  12.178  13.113   2.536
87966SOL    HW165795  12.239  13.185   2.555
87966SOL    HW265796  12.212  13.039   2.586
87967SOL     OW65797   8.519   7.737  13.221
87967SOL    HW165798   8.493   7.655  13.178
87967SOL    HW265799   8.555   7.791  13.151
87968SOL     OW65800   2.131  14.707  13.237
87968SOL    HW165801   2.095  14.658  13.311
87968SOL    HW265802   2.203  14.758  13.275
87969SOL     OW65803   8.207   0.756   3.969
87969SOL    HW165804   8.250   0.733   3.887
87969SOL    HW265805   8.200   0.852   3.967
87970SOL     OW65806   6.492  11.400   7.408
87970SOL    HW165807   6.538  11.395   7.324
87970SOL    HW265808   6.476  11.309   7.432
87971SOL     OW65809  12.882   7.810  12.431
87971SOL    HW165810  12.920   7.786  12.346
87971SOL    HW265811  12.809   7.750  12.442
87972SOL     OW65812  10.727   6.177   3.450
87972SOL    HW165813  10.757   6.218   3.369
87972SOL    HW265814  10.679   6.099   3.422
87973SOL     OW65815  12.687   5.921   1.552
87973SOL    HW165816  12.717   5.875   1.630
87973SOL    HW265817  12.592   5.929   1.565
87974SOL     OW65818  12.071   9.078   7.744
87974SOL    HW165819  12.049   8.985   7.742
87974SOL    HW265820  12.120   9.089   7.826
87975SOL     OW65821   5.195  10.716   3.744
87975SOL    HW165822   5.179  10.753   3.657
87975SOL    HW265823   5.185  10.622   3.731
87976SOL     OW65824  11.049   6.910   3.299
87976SOL    HW165825  11.083   6.990   3.337
87976SOL    HW265826  11.121   6.876   3.246
87977SOL     OW65827   9.473   4.377   6.857
87977SOL    HW165828   9.514   4.461   6.833
87977SOL    HW265829   9.462   4.331   6.774
87978SOL     OW65830  12.700   9.927  10.100
87978SOL    HW165831  12.655   9.919  10.184
87978SOL    HW265832  12.766   9.994  10.114
87979SOL     OW65833   6.541   1.008   0.307
87979SOL    HW165834   6.579   1.054   0.382
87979SOL    HW265835   6.609   1.013   0.239
87980SOL     OW65836  12.873  13.160  12.507
87980SOL    HW165837  12.923  13.081  12.527
87980SOL    HW265838  12.940  13.224  12.482
87981SOL     OW65839   1.166   6.714   4.523
87981SOL    HW165840   1.079   6.677   4.506
87981SOL    HW265841   1.180   6.776   4.451
87982SOL     OW65842   0.798   9.818   6.760
87982SOL    HW165843   0.770   9.907   6.781
87982SOL    HW265844   0.870   9.830   6.697
87983SOL     OW65845  14.247  13.413   1.476
87983SOL    HW165846  14.293  13.352   1.419
87983SOL    HW265847  14.303  13.423   1.552
87984SOL     OW65848   4.401  10.023   4.099
87984SOL    HW165849   4.370   9.940   4.135
87984SOL    HW265850   4.391  10.085   4.171
87985SOL     OW65851  10.606   9.846  14.858
87985SOL    HW165852  10.629   9.763   0.028
87985SOL    HW265853  10.595   9.908   0.057
87986SOL     OW65854   0.012  13.339   3.578
87986SOL    HW165855   0.022  13.248   3.550
87986SOL    HW265856   0.095  13.361   3.620
87987SOL     OW65857  11.105   5.023  13.286
87987SOL    HW165858  11.057   5.026  13.203
87987SOL    HW265859  11.038   5.043  13.352
87988SOL     OW65860   7.973  13.676   1.449
87988SOL    HW165861   8.041  13.652   1.511
87988SOL    HW265862   7.986  13.616   1.375
87989SOL     OW65863   7.846   1.171   6.853
87989SOL    HW165864   7.872   1.142   6.941
87989SOL    HW265865   7.870   1.263   6.849
87990SOL     OW65866   4.671   5.627   4.652
87990SOL    HW165867   4.747   5.615   4.596
87990SOL    HW265868   4.644   5.538   4.675
87991SOL     OW65869   4.901   3.642   2.722
87991SOL    HW165870   4.868   3.731   2.728
87991SOL    HW265871   4.993   3.648   2.747
87992SOL     OW65872   7.250   4.827  10.508
87992SOL    HW165873   7.306   4.810  10.432
87992SOL    HW265874   7.256   4.922  10.520
87993SOL     OW65875  13.261  12.995   3.885
87993SOL    HW165876  13.232  13.085   3.899
87993SOL    HW265877  13.353  13.003   3.859
87994SOL     OW65878   0.670  12.325   1.959
87994SOL    HW165879   0.698  12.240   1.993
87994SOL    HW265880   0.637  12.306   1.871
87995SOL     OW65881   4.438  14.543   5.265
87995SOL    HW165882   4.367  14.509   5.319
87995SOL    HW265883   4.467  14.468   5.213
87996SOL     OW65884   8.296   8.697   8.613
87996SOL    HW165885   8.362   8.633   8.639
87996SOL    HW265886   8.310   8.772   8.672
87997SOL     OW65887   1.674   0.966   5.602
87997SOL    HW165888   1.672   0.965   5.506
87997SOL    HW265889   1.695   1.057   5.624
87998SOL     OW65890   8.379   4.526   3.292
87998SOL    HW165891   8.375   4.497   3.201
87998SOL    HW265892   8.423   4.454   3.338
87999SOL     OW65893  11.751  10.284   4.074
87999SOL    HW165894  11.725  10.264   3.984
87999SOL    HW265895  11.846  10.296   4.071
88000SOL     OW65896  12.609   3.695   5.093
88000SOL    HW165897  12.628   3.757   5.164
88000SOL    HW265898  12.516   3.677   5.101
88001SOL     OW65899  10.523   1.279  14.834
88001SOL    HW165900  10.562   1.195  14.856
88001SOL    HW265901  10.583   1.318  14.770
88002SOL     OW65902   4.206   1.598  10.077
88002SOL    HW165903   4.295   1.608  10.044
88002SOL    HW265904   4.179   1.686  10.104
88003SOL     OW65905   1.837   8.550   0.537
88003SOL    HW165906   1.745   8.538   0.557
88003SOL    HW265907   1.847   8.519   0.447
88004SOL     OW65908  12.935  14.829   7.468
88004SOL    HW165909  12.984  14.799   7.545
88004SOL    HW265910  13.002  14.848   7.402
88005SOL     OW65911  10.352  14.801   2.566
88005SOL    HW165912  10.415  14.872   2.584
88005SOL    HW265913  10.337  14.761   2.651
88006SOL     OW65914   7.316  13.901  13.171
88006SOL    HW165915   7.228  13.864  13.173
88006SOL    HW265916   7.374  13.825  13.175
88007SOL     OW65917   9.111   4.695   7.155
88007SOL    HW165918   9.086   4.605   7.174
88007SOL    HW265919   9.105   4.702   7.060
88008SOL     OW65920  12.415  14.787   4.925
88008SOL    HW165921  12.353  14.763   4.993
88008SOL    HW265922  12.441  14.704   4.885
88009SOL     OW65923   4.917   1.047  11.634
88009SOL    HW165924   4.971   1.107  11.685
88009SOL    HW265925   4.960   1.041  11.549
88010SOL     OW65926   3.779   1.248   7.533
88010SOL    HW165927   3.715   1.210   7.593
88010SOL    HW265928   3.730   1.262   7.452
88011SOL     OW65929   4.184   0.060   6.899
88011SOL    HW165930   4.202   0.003   6.974
88011SOL    HW265931   4.196   0.003   6.822
88012SOL     OW65932  10.827   2.494  10.486
88012SOL    HW165933  10.793   2.427  10.546
88012SOL    HW265934  10.799   2.464  10.400
88013SOL     OW65935  12.517  10.931  13.727
88013SOL    HW165936  12.425  10.919  13.752
88013SOL    HW265937  12.558  10.846  13.744
88014SOL     OW65938  13.418   5.118  13.197
88014SOL    HW165939  13.437   5.063  13.273
88014SOL    HW265940  13.332   5.155  13.216
88015SOL     OW65941   7.793   2.534   0.189
88015SOL    HW165942   7.843   2.483   0.253
88015SOL    HW265943   7.836   2.515   0.105
88016SOL     OW65944  11.366  13.780   8.858
88016SOL    HW165945  11.364  13.865   8.815
88016SOL    HW265946  11.459  13.755   8.857
88017SOL     OW65947   3.845  12.915  10.674
88017SOL    HW165948   3.918  12.855  10.683
88017SOL    HW265949   3.858  12.957  10.589
88018SOL     OW65950  13.745   9.020  12.144
88018SOL    HW165951  13.757   9.111  12.120
88018SOL    HW265952  13.827   8.995  12.186
88019SOL     OW65953  12.413   4.116   2.874
88019SOL    HW165954  12.397   4.107   2.968
88019SOL    HW265955  12.469   4.041   2.852
88020SOL     OW65956  13.526   1.553   9.331
88020SOL    HW165957  13.599   1.520   9.278
88020SOL    HW265958  13.523   1.495   9.406
88021SOL     OW65959   2.498   0.701  13.956
88021SOL    HW165960   2.529   0.622  13.912
88021SOL    HW265961   2.454   0.751  13.886
88022SOL     OW65962   2.875   7.478   5.516
88022SOL    HW165963   2.886   7.383   5.521
88022SOL    HW265964   2.890   7.509   5.605
88023SOL     OW65965   9.056   2.193  11.465
88023SOL    HW165966   9.051   2.102  11.438
88023SOL    HW265967   9.028   2.243  11.387
88024SOL     OW65968   9.352  11.549  11.140
88024SOL    HW165969   9.301  11.594  11.207
88024SOL    HW265970   9.375  11.465  11.180
88025SOL     OW65971   7.052   0.975   7.774
88025SOL    HW165972   7.110   0.908   7.738
88025SOL    HW265973   7.024   0.940   7.859
88026SOL     OW65974   6.527  12.565   2.743
88026SOL    HW165975   6.595  12.625   2.713
88026SOL    HW265976   6.449  12.619   2.751
88027SOL     OW65977   6.393  13.673  14.103
88027SOL    HW165978   6.457  13.608  14.132
88027SOL    HW265979   6.315  13.653  14.155
88028SOL     OW65980   3.941   3.230   6.848
88028SOL    HW165981   3.940   3.146   6.894
88028SOL    HW265982   3.976   3.209   6.762
88029SOL     OW65983   1.010  12.452  10.278
88029SOL    HW165984   1.017  12.539  10.318
88029SOL    HW265985   1.063  12.458  10.199
88030SOL     OW65986  13.257   5.339   7.086
88030SOL    HW165987  13.173   5.307   7.118
88030SOL    HW265988  13.320   5.317   7.154
88031SOL     OW65989  10.579   7.667   1.530
88031SOL    HW165990  10.609   7.711   1.452
88031SOL    HW265991  10.521   7.597   1.498
88032SOL     OW65992  11.549   1.325   6.516
88032SOL    HW165993  11.459   1.305   6.493
88032SOL    HW265994  11.568   1.270   6.592
88033SOL     OW65995  11.546   6.367  12.428
88033SOL    HW165996  11.511   6.290  12.473
88033SOL    HW265997  11.473   6.399  12.375
88034SOL     OW65998   1.314   8.553   9.431
88034SOL    HW165999   1.258   8.608   9.486
88034SOL    HW266000   1.402   8.587   9.445
88035SOL     OW66001   2.585   3.394   5.489
88035SOL    HW166002   2.606   3.391   5.583
88035SOL    HW266003   2.642   3.328   5.450
88036SOL     OW66004   3.267   6.011   9.643
88036SOL    HW166005   3.198   6.077   9.656
88036SOL    HW266006   3.348   6.062   9.645
88037SOL     OW66007   2.033   6.671   8.741
88037SOL    HW166008   2.014   6.692   8.832
88037SOL    HW266009   1.978   6.731   8.691
88038SOL     OW66010  10.890  12.552   3.373
88038SOL    HW166011  10.901  12.642   3.342
88038SOL    HW266012  10.979  12.522   3.394
88039SOL     OW66013  14.705  10.843   7.244
88039SOL    HW166014  14.739  10.832   7.156
88039SOL    HW266015  14.610  10.832   7.235
88040SOL     OW66016   3.502   4.745  11.302
88040SOL    HW166017   3.561   4.695  11.245
88040SOL    HW266018   3.430   4.772  11.245
88041SOL     OW66019   8.486  10.786   3.729
88041SOL    HW166020   8.479  10.842   3.806
88041SOL    HW266021   8.420  10.718   3.743
88042SOL     OW66022   4.200   9.495   6.751
88042SOL    HW166023   4.252   9.430   6.798
88042SOL    HW266024   4.261   9.533   6.688
88043SOL     OW66025   1.644  11.769   7.722
88043SOL    HW166026   1.706  11.828   7.764
88043SOL    HW266027   1.571  11.763   7.783
88044SOL     OW66028   2.104   2.934   1.679
88044SOL    HW166029   2.122   2.845   1.711
88044SOL    HW266030   2.046   2.972   1.745
88045SOL     OW66031  12.672   1.992   4.348
88045SOL    HW166032  12.579   2.015   4.341
88045SOL    HW266033  12.690   1.942   4.268
88046SOL     OW66034   2.125  13.558  11.181
88046SOL    HW166035   2.045  13.528  11.137
88046SOL    HW266036   2.094  13.594  11.264
88047SOL     OW66037   0.475  14.244   9.059
88047SOL    HW166038   0.438  14.278   8.978
88047SOL    HW266039   0.521  14.164   9.034
88048SOL     OW66040   0.329  10.524  12.039
88048SOL    HW166041   0.319  10.607  12.086
88048SOL    HW266042   0.247  10.514  11.991
88049SOL     OW66043   3.472   0.992   6.174
88049SOL    HW166044   3.439   0.962   6.259
88049SOL    HW266045   3.468   1.087   6.179
88050SOL     OW66046  11.057   7.551   3.068
88050SOL    HW166047  11.016   7.625   3.024
88050SOL    HW266048  11.031   7.475   3.017
88051SOL     OW66049   4.117   0.378   5.212
88051SOL    HW166050   4.199   0.414   5.245
88051SOL    HW266051   4.143   0.310   5.151
88052SOL     OW66052   6.777   6.093  14.570
88052SOL    HW166053   6.715   6.164  14.553
88052SOL    HW266054   6.722   6.020  14.600
88053SOL     OW66055   8.261  14.561  12.090
88053SOL    HW166056   8.234  14.540  12.180
88053SOL    HW266057   8.347  14.600  12.100
88054SOL     OW66058   7.712  13.398   3.509
88054SOL    HW166059   7.693  13.492   3.513
88054SOL    HW266060   7.647  13.358   3.566
88055SOL     OW66061   8.549   5.246   7.505
88055SOL    HW166062   8.480   5.193   7.465
88055SOL    HW266063   8.586   5.190   7.573
88056SOL     OW66064  10.361   8.115   8.374
88056SOL    HW166065  10.451   8.082   8.377
88056SOL    HW266066  10.320   8.063   8.304
88057SOL     OW66067   2.837   1.411  14.770
88057SOL    HW166068   2.909   1.400  14.832
88057SOL    HW266069   2.879   1.422  14.685
88058SOL     OW66070   6.229   7.082   4.672
88058SOL    HW166071   6.145   7.127   4.663
88058SOL    HW266072   6.232   7.056   4.764
88059SOL     OW66073   4.321   1.218   4.860
88059SOL    HW166074   4.275   1.281   4.915
88059SOL    HW266075   4.403   1.261   4.836
88060SOL     OW66076   5.755   1.614  14.789
88060SOL    HW166077   5.793   1.692  14.831
88060SOL    HW266078   5.699   1.575  14.856
88061SOL     OW66079   8.282   9.706   3.831
88061SOL    HW166080   8.272   9.627   3.778
88061SOL    HW266081   8.265   9.778   3.770
88062SOL     OW66082   9.989   6.527   3.098
88062SOL    HW166083   9.984   6.604   3.041
88062SOL    HW266084   9.924   6.467   3.063
88063SOL     OW66085   8.088   7.462  13.480
88063SOL    HW166086   8.033   7.406  13.534
88063SOL    HW266087   8.176   7.449  13.514
88064SOL     OW66088   3.450   6.218   6.357
88064SOL    HW166089   3.506   6.145   6.383
88064SOL    HW266090   3.361   6.182   6.362
88065SOL     OW66091  10.299   8.379   5.485
88065SOL    HW166092  10.275   8.469   5.507
88065SOL    HW266093  10.246   8.358   5.408
88066SOL     OW66094  12.710  10.446  10.341
88066SOL    HW166095  12.742  10.427  10.253
88066SOL    HW266096  12.691  10.540  10.339
88067SOL     OW66097   6.456   8.921   7.573
88067SOL    HW166098   6.510   8.843   7.565
88067SOL    HW266099   6.414   8.913   7.658
88068SOL     OW66100  10.072   8.497  14.473
88068SOL    HW166101  10.165   8.518  14.482
88068SOL    HW266102  10.046   8.540  14.391
88069SOL     OW66103   9.953   1.207  14.084
88069SOL    HW166104  10.024   1.197  14.147
88069SOL    HW266105   9.906   1.285  14.112
88070SOL     OW66106   0.617   8.180   4.849
88070SOL    HW166107   0.569   8.176   4.766
88070SOL    HW266108   0.560   8.231   4.907
88071SOL     OW66109   5.181   1.648   3.705
88071SOL    HW166110   5.171   1.740   3.679
88071SOL    HW266111   5.135   1.599   3.637
88072SOL     OW66112   2.686   8.387  12.984
88072SOL    HW166113   2.752   8.322  13.008
88072SOL    HW266114   2.653   8.420  13.067
88073SOL     OW66115   9.630  13.586   3.328
88073SOL    HW166116   9.645  13.679   3.312
88073SOL    HW266117   9.555  13.565   3.272
88074SOL     OW66118  10.278   1.332  13.817
88074SOL    HW166119  10.203   1.386  13.844
88074SOL    HW266120  10.350   1.364  13.871
88075SOL     OW66121   1.227   2.884  12.560
88075SOL    HW166122   1.217   2.959  12.619
88075SOL    HW266123   1.211   2.920  12.473
88076SOL     OW66124   4.761   8.305   2.216
88076SOL    HW166125   4.787   8.376   2.157
88076SOL    HW266126   4.740   8.350   2.298
88077SOL     OW66127   3.418   0.527   8.411
88077SOL    HW166128   3.367   0.607   8.401
88077SOL    HW266129   3.413   0.485   8.325
88078SOL     OW66130  12.365   2.671   2.117
88078SOL    HW166131  12.407   2.604   2.172
88078SOL    HW266132  12.316   2.621   2.052
88079SOL     OW66133   3.540   7.751   3.978
88079SOL    HW166134   3.519   7.824   4.036
88079SOL    HW266135   3.457   7.705   3.965
88080SOL     OW66136  13.459   2.330   1.141
88080SOL    HW166137  13.523   2.376   1.196
88080SOL    HW266138  13.502   2.323   1.055
88081SOL     OW66139   2.669  11.453  11.973
88081SOL    HW166140   2.589  11.424  12.016
88081SOL    HW266141   2.643  11.532  11.926
88082SOL     OW66142   0.738  11.378  12.756
88082SOL    HW166143   0.734  11.362  12.851
88082SOL    HW266144   0.650  11.410  12.734
88083SOL     OW66145  10.176   4.249   1.168
88083SOL    HW166146  10.179   4.339   1.136
88083SOL    HW266147  10.208   4.255   1.258
88084SOL     OW66148   0.898  10.914  12.011
88084SOL    HW166149   0.887  10.820  12.027
88084SOL    HW266150   0.984  10.921  11.970
88085SOL     OW66151  13.142   2.471  10.228
88085SOL    HW166152  13.224   2.433  10.261
88085SOL    HW266153  13.163   2.500  10.139
88086SOL     OW66154   5.105   1.234   0.283
88086SOL    HW166155   5.153   1.181   0.219
88086SOL    HW266156   5.032   1.271   0.234
88087SOL     OW66157   8.738   1.665  10.356
88087SOL    HW166158   8.660   1.665  10.413
88087SOL    HW266159   8.807   1.701  10.411
88088SOL     OW66160   8.479  14.411   1.820
88088SOL    HW166161   8.451  14.442   1.734
88088SOL    HW266162   8.528  14.484   1.858
88089SOL     OW66163   9.533   1.434   6.751
88089SOL    HW166164   9.553   1.367   6.816
88089SOL    HW266165   9.464   1.487   6.791
88090SOL     OW66166  10.323   1.231   7.159
88090SOL    HW166167  10.295   1.261   7.073
88090SOL    HW266168  10.324   1.310   7.214
88091SOL     OW66169   7.479  11.829   9.903
88091SOL    HW166170   7.405  11.889   9.896
88091SOL    HW266171   7.522  11.834   9.818
88092SOL     OW66172   6.174  13.302   0.810
88092SOL    HW166173   6.095  13.343   0.845
88092SOL    HW266174   6.213  13.257   0.886
88093SOL     OW66175   8.743   1.053   3.238
88093SOL    HW166176   8.818   1.021   3.287
88093SOL    HW266177   8.712   0.978   3.188
88094SOL     OW66178   1.838  10.990  13.520
88094SOL    HW166179   1.827  10.908  13.471
88094SOL    HW266180   1.766  10.990  13.584
88095SOL     OW66181   4.761   8.153   8.201
88095SOL    HW166182   4.764   8.230   8.145
88095SOL    HW266183   4.756   8.187   8.290
88096SOL     OW66184  10.801  12.741   3.986
88096SOL    HW166185  10.864  12.693   3.932
88096SOL    HW266186  10.855  12.800   4.038
88097SOL     OW66187  13.548  11.314   2.484
88097SOL    HW166188  13.531  11.399   2.525
88097SOL    HW266189  13.512  11.251   2.546
88098SOL     OW66190  12.428   5.881  12.637
88098SOL    HW166191  12.375   5.847  12.565
88098SOL    HW266192  12.483   5.948  12.596
88099SOL     OW66193   2.569  10.160  14.627
88099SOL    HW166194   2.661  10.182  14.611
88099SOL    HW266195   2.569  10.118  14.713
88100SOL     OW66196  12.852   9.302   3.914
88100SOL    HW166197  12.762   9.296   3.881
88100SOL    HW266198  12.892   9.371   3.862
88101SOL     OW66199   5.948  12.135  12.377
88101SOL    HW166200   5.948  12.112  12.470
88101SOL    HW266201   5.991  12.061  12.335
88102SOL     OW66202   9.799  13.257   1.412
88102SOL    HW166203   9.706  13.269   1.397
88102SOL    HW266204   9.806  13.173   1.457
88103SOL     OW66205   9.366  11.388   8.242
88103SOL    HW166206   9.383  11.297   8.216
88103SOL    HW266207   9.409  11.396   8.328
88104SOL     OW66208   4.313   8.211   4.922
88104SOL    HW166209   4.275   8.279   4.977
88104SOL    HW266210   4.372   8.258   4.863
88105SOL     OW66211  10.633   1.442   6.157
88105SOL    HW166212  10.541   1.431   6.180
88105SOL    HW266213  10.678   1.372   6.203
88106SOL     OW66214   6.460   2.395   4.557
88106SOL    HW166215   6.399   2.468   4.551
88106SOL    HW266216   6.464   2.374   4.651
88107SOL     OW66217   1.470  12.189   9.260
88107SOL    HW166218   1.551  12.171   9.308
88107SOL    HW266219   1.499  12.231   9.179
88108SOL     OW66220   3.785   1.826   2.971
88108SOL    HW166221   3.804   1.797   2.882
88108SOL    HW266222   3.843   1.773   3.026
88109SOL     OW66223   5.307  10.315   1.049
88109SOL    HW166224   5.316  10.233   0.999
88109SOL    HW266225   5.342  10.294   1.135
88110SOL     OW66226   8.386   9.074  11.030
88110SOL    HW166227   8.325   9.016  10.985
88110SOL    HW266228   8.471   9.054  10.991
88111SOL     OW66229   1.051   3.677   2.309
88111SOL    HW166230   1.132   3.722   2.286
88111SOL    HW266231   0.988   3.706   2.243
88112SOL     OW66232  11.592   1.681   3.116
88112SOL    HW166233  11.547   1.660   3.198
88112SOL    HW266234  11.680   1.645   3.127
88113SOL     OW66235   8.993  10.155  12.874
88113SOL    HW166236   9.017  10.245  12.894
88113SOL    HW266237   9.076  10.113  12.850
88114SOL     OW66238   4.115  12.675  13.170
88114SOL    HW166239   4.183  12.700  13.107
88114SOL    HW266240   4.136  12.724  13.249
88115SOL     OW66241  12.391   0.950  11.657
88115SOL    HW166242  12.435   1.035  11.660
88115SOL    HW266243  12.460   0.886  11.674
88116SOL     OW66244  10.862   3.294  11.975
88116SOL    HW166245  10.824   3.343  12.047
88116SOL    HW266246  10.819   3.329  11.897
88117SOL     OW66247   6.927   2.849   2.118
88117SOL    HW166248   6.905   2.932   2.159
88117SOL    HW266249   6.990   2.808   2.177
88118SOL     OW66250  11.062   0.936   4.913
88118SOL    HW166251  11.020   0.851   4.901
88118SOL    HW266252  11.062   0.976   4.826
88119SOL     OW66253   5.146   3.766   9.323
88119SOL    HW166254   5.166   3.806   9.239
88119SOL    HW266255   5.097   3.832   9.371
88120SOL     OW66256   2.671   9.246   6.677
88120SOL    HW166257   2.651   9.286   6.593
88120SOL    HW266258   2.677   9.152   6.659
88121SOL     OW66259   0.140   5.727  14.251
88121SOL    HW166260   0.211   5.718  14.315
88121SOL    HW266261   0.181   5.704  14.167
88122SOL     OW66262   5.178   6.263  12.769
88122SOL    HW166263   5.146   6.177  12.740
88122SOL    HW266264   5.128   6.325  12.717
88123SOL     OW66265   1.785   7.941  14.623
88123SOL    HW166266   1.863   7.988  14.592
88123SOL    HW266267   1.814   7.850  14.629
88124SOL     OW66268   9.832  13.548   7.169
88124SOL    HW166269   9.839  13.641   7.146
88124SOL    HW266270   9.796  13.548   7.257
88125SOL     OW66271   6.742   3.524   3.699
88125SOL    HW166272   6.733   3.547   3.791
88125SOL    HW266273   6.731   3.608   3.653
88126SOL     OW66274   1.863  14.257   7.664
88126SOL    HW166275   1.832  14.338   7.622
88126SOL    HW266276   1.951  14.278   7.695
88127SOL     OW66277   5.526  13.763  10.519
88127SOL    HW166278   5.561  13.675  10.513
88127SOL    HW266279   5.450  13.755  10.577
88128SOL     OW66280  14.146   0.445  13.456
88128SOL    HW166281  14.142   0.490  13.540
88128SOL    HW266282  14.114   0.356  13.475
88129SOL     OW66283   0.114  11.176  14.414
88129SOL    HW166284   0.132  11.246  14.351
88129SOL    HW266285   0.024  11.150  14.395
88130SOL     OW66286   7.427  11.969  14.436
88130SOL    HW166287   7.464  11.894  14.389
88130SOL    HW266288   7.343  11.984  14.394
88131SOL     OW66289   4.829   9.535   1.236
88131SOL    HW166290   4.829   9.630   1.245
88131SOL    HW266291   4.881   9.519   1.156
88132SOL     OW66292  10.676  10.216  10.854
88132SOL    HW166293  10.597  10.205  10.800
88132SOL    HW266294  10.747  10.183  10.798
88133SOL     OW66295   5.685   3.931   7.446
88133SOL    HW166296   5.706   3.941   7.353
88133SOL    HW266297   5.621   4.001   7.463
88134SOL     OW66298   8.494   7.700   8.908
88134SOL    HW166299   8.467   7.614   8.876
88134SOL    HW266300   8.578   7.716   8.864
88135SOL     OW66301   5.573   5.215   6.179
88135SOL    HW166302   5.532   5.191   6.096
88135SOL    HW266303   5.614   5.134   6.209
88136SOL     OW66304   3.665   0.892   3.911
88136SOL    HW166305   3.621   0.964   3.866
88136SOL    HW266306   3.594   0.837   3.944
88137SOL     OW66307   2.943   0.692  11.662
88137SOL    HW166308   2.951   0.701  11.757
88137SOL    HW266309   2.909   0.603  11.648
88138SOL     OW66310  10.817   0.455   5.907
88138SOL    HW166311  10.751   0.417   5.849
88138SOL    HW266312  10.815   0.549   5.889
88139SOL     OW66313   6.526   2.162   5.336
88139SOL    HW166314   6.547   2.232   5.273
88139SOL    HW266315   6.586   2.177   5.408
88140SOL     OW66316  12.945   6.787  14.487
88140SOL    HW166317  12.922   6.831  14.405
88140SOL    HW266318  12.938   6.855  14.553
88141SOL     OW66319   1.882   1.590  14.506
88141SOL    HW166320   1.840   1.532  14.442
88141SOL    HW266321   1.827   1.669  14.506
88142SOL     OW66322   6.209   1.274   0.683
88142SOL    HW166323   6.115   1.256   0.683
88142SOL    HW266324   6.220   1.346   0.746
88143SOL     OW66325  11.008  10.953   6.450
88143SOL    HW166326  11.063  10.976   6.525
88143SOL    HW266327  11.042  11.008   6.378
88144SOL     OW66328   5.350   1.192  12.281
88144SOL    HW166329   5.446   1.192  12.288
88144SOL    HW266330   5.332   1.251  12.207
88145SOL     OW66331   5.629  12.559   8.728
88145SOL    HW166332   5.689  12.632   8.714
88145SOL    HW266333   5.683  12.490   8.766
88146SOL     OW66334   8.777   0.268   1.055
88146SOL    HW166335   8.815   0.251   1.141
88146SOL    HW266336   8.687   0.235   1.062
88147SOL     OW66337   0.770   5.394  10.711
88147SOL    HW166338   0.692   5.372  10.661
88147SOL    HW266339   0.788   5.315  10.764
88148SOL     OW66340   2.889   4.564   0.095
88148SOL    HW166341   2.851   4.521   0.172
88148SOL    HW266342   2.841   4.646   0.088
88149SOL     OW66343  13.543   6.473   1.114
88149SOL    HW166344  13.497   6.390   1.113
88149SOL    HW266345  13.475   6.539   1.099
88150SOL     OW66346   3.130   5.819   7.656
88150SOL    HW166347   3.091   5.906   7.661
88150SOL    HW266348   3.139   5.792   7.747
88151SOL     OW66349   0.012   1.188  12.878
88151SOL    HW166350   0.096   1.165  12.919
88151SOL    HW266351  14.845   1.250  12.940
88152SOL     OW66352   4.375  10.450   6.575
88152SOL    HW166353   4.384  10.359   6.602
88152SOL    HW266354   4.465  10.482   6.571
88153SOL     OW66355   4.683  13.701   4.976
88153SOL    HW166356   4.676  13.609   5.003
88153SOL    HW266357   4.667  13.751   5.056
88154SOL     OW66358   7.868   1.570  10.312
88154SOL    HW166359   7.878   1.560  10.217
88154SOL    HW266360   7.956   1.552  10.347
88155SOL     OW66361  12.742   3.557   4.573
88155SOL    HW166362  12.751   3.560   4.668
88155SOL    HW266363  12.650   3.533   4.559
88156SOL     OW66364  10.960   2.975  10.821
88156SOL    HW166365  11.012   3.053  10.799
88156SOL    HW266366  10.997   2.906  10.767
88157SOL     OW66367   0.135  11.831   0.105
88157SOL    HW166368   0.222  11.829   0.066
88157SOL    HW266369   0.116  11.740   0.128
88158SOL     OW66370   2.983  14.171   5.760
88158SOL    HW166371   3.055  14.107   5.762
88158SOL    HW266372   2.992  14.215   5.675
88159SOL     OW66373  12.642   5.005  14.150
88159SOL    HW166374  12.722   5.045  14.114
88159SOL    HW266375  12.668   4.916  14.174
88160SOL     OW66376   1.431   1.724  13.637
88160SOL    HW166377   1.471   1.750  13.719
88160SOL    HW266378   1.401   1.806  13.597
88161SOL     OW66379   1.548  11.031   6.961
88161SOL    HW166380   1.601  11.046   7.039
88161SOL    HW266381   1.610  10.999   6.895
88162SOL     OW66382   8.218   8.071   7.589
88162SOL    HW166383   8.185   8.013   7.659
88162SOL    HW266384   8.145   8.130   7.571
88163SOL     OW66385  10.031   3.022   2.277
88163SOL    HW166386   9.966   2.953   2.283
88163SOL    HW266387  10.063   3.017   2.187
88164SOL     OW66388   2.723  10.245   7.402
88164SOL    HW166389   2.688  10.278   7.319
88164SOL    HW266390   2.666  10.284   7.469
88165SOL     OW66391  13.217   6.239   6.738
88165SOL    HW166392  13.124   6.251   6.724
88165SOL    HW266393  13.224   6.200   6.825
88166SOL     OW66394  12.170  11.011   6.973
88166SOL    HW166395  12.101  11.063   7.013
88166SOL    HW266396  12.124  10.948   6.917
88167SOL     OW66397  10.165   7.919   8.898
88167SOL    HW166398  10.178   7.903   8.805
88167SOL    HW266399  10.212   8.000   8.916
88168SOL     OW66400  10.302   1.221  14.583
88168SOL    HW166401  10.215   1.253  14.558
88168SOL    HW266402  10.349   1.300  14.612
88169SOL     OW66403   2.661  13.694   4.113
88169SOL    HW166404   2.729  13.760   4.103
88169SOL    HW266405   2.664  13.672   4.206
88170SOL     OW66406  11.031   0.524  11.659
88170SOL    HW166407  11.116   0.484  11.640
88170SOL    HW266408  11.012   0.579  11.584
88171SOL     OW66409  10.048  14.629   6.504
88171SOL    HW166410  10.126  14.599   6.550
88171SOL    HW266411  10.062  14.723   6.490
88172SOL     OW66412   1.325   0.600   8.038
88172SOL    HW166413   1.284   0.641   8.114
88172SOL    HW266414   1.407   0.564   8.072
88173SOL     OW66415   9.253   7.966   5.188
88173SOL    HW166416   9.181   7.903   5.198
88173SOL    HW266417   9.321   7.933   5.247
88174SOL     OW66418  13.938  13.873   2.761
88174SOL    HW166419  13.887  13.945   2.723
88174SOL    HW266420  13.873  13.808   2.786
88175SOL     OW66421   3.660   3.900   3.488
88175SOL    HW166422   3.700   3.885   3.402
88175SOL    HW266423   3.718   3.855   3.550
88176SOL     OW66424   9.710   1.234   1.370
88176SOL    HW166425   9.637   1.209   1.314
88176SOL    HW266426   9.681   1.315   1.413
88177SOL     OW66427   1.956   4.553  13.884
88177SOL    HW166428   1.908   4.585  13.808
88177SOL    HW266429   1.897   4.489  13.925
88178SOL     OW66430  14.399   2.902   8.616
88178SOL    HW166431  14.444   2.857   8.544
88178SOL    HW266432  14.428   2.856   8.695
88179SOL     OW66433  13.643  13.808   0.240
88179SOL    HW166434  13.629  13.793   0.334
88179SOL    HW266435  13.684  13.895   0.236
88180SOL     OW66436  13.997   7.793   5.478
88180SOL    HW166437  14.003   7.698   5.481
88180SOL    HW266438  14.079   7.824   5.517
88181SOL     OW66439   3.230   5.175  11.597
88181SOL    HW166440   3.186   5.141  11.519
88181SOL    HW266441   3.161   5.224  11.643
88182SOL     OW66442   7.746  12.048   2.935
88182SOL    HW166443   7.807  12.055   3.009
88182SOL    HW266444   7.748  11.956   2.910
88183SOL     OW66445   2.902   8.771  13.528
88183SOL    HW166446   2.933   8.703  13.468
88183SOL    HW266447   2.969   8.839  13.523
88184SOL     OW66448  11.479   0.916   5.278
88184SOL    HW166449  11.435   0.955   5.202
88184SOL    HW266450  11.500   0.991   5.334
88185SOL     OW66451  10.074   0.007   7.558
88185SOL    HW166452  10.016   0.068   7.604
88185SOL    HW266453  10.027  14.796   7.559
88186SOL     OW66454   3.937   7.786   9.987
88186SOL    HW166455   4.031   7.782   9.971
88186SOL    HW266456   3.930   7.828  10.073
88187SOL     OW66457   3.876   9.906  13.576
88187SOL    HW166458   3.884   9.851  13.498
88187SOL    HW266459   3.884   9.996  13.544
88188SOL     OW66460   8.574   9.243   7.346
88188SOL    HW166461   8.569   9.235   7.251
88188SOL    HW266462   8.507   9.183   7.378
88189SOL     OW66463  12.918   3.089  10.203
88189SOL    HW166464  13.010   3.065  10.214
88189SOL    HW266465  12.869   3.018  10.244
88190SOL     OW66466   7.951   8.805   3.469
88190SOL    HW166467   7.880   8.852   3.513
88190SOL    HW266468   7.918   8.716   3.459
88191SOL     OW66469  10.995   9.876   9.419
88191SOL    HW166470  11.001   9.784   9.393
88191SOL    HW266471  11.003   9.925   9.337
88192SOL     OW66472   9.832   4.929   9.866
88192SOL    HW166473   9.841   4.971   9.951
88192SOL    HW266474   9.759   4.868   9.877
88193SOL     OW66475   7.368  13.242   8.781
88193SOL    HW166476   7.321  13.162   8.761
88193SOL    HW266477   7.308  13.313   8.757
88194SOL     OW66478   7.370  14.451   6.322
88194SOL    HW166479   7.447  14.434   6.376
88194SOL    HW266480   7.396  14.524   6.266
88195SOL     OW66481  10.041   1.826  13.098
88195SOL    HW166482  10.092   1.897  13.137
88195SOL    HW266483  10.067   1.748  13.147
88196SOL     OW66484   6.919   5.374   2.024
88196SOL    HW166485   6.861   5.305   2.056
88196SOL    HW266486   6.861   5.447   2.003
88197SOL     OW66487   0.168  13.788   6.132
88197SOL    HW166488   0.212  13.834   6.061
88197SOL    HW266489   0.171  13.696   6.108
88198SOL     OW66490   8.290   1.339  14.269
88198SOL    HW166491   8.225   1.345  14.340
88198SOL    HW266492   8.297   1.428  14.236
88199SOL     OW66493   0.773   7.174   3.823
88199SOL    HW166494   0.699   7.116   3.809
88199SOL    HW266495   0.738   7.244   3.879
88200SOL     OW66496   2.336  14.301   5.834
88200SOL    HW166497   2.302  14.224   5.789
88200SOL    HW266498   2.271  14.319   5.903
88201SOL     OW66499   5.905   0.825   7.273
88201SOL    HW166500   5.992   0.849   7.304
88201SOL    HW266501   5.917   0.808   7.179
88202SOL     OW66502   1.200  13.088   9.759
88202SOL    HW166503   1.206  13.010   9.705
88202SOL    HW266504   1.227  13.159   9.701
88203SOL     OW66505  12.291   4.268   6.128
88203SOL    HW166506  12.322   4.237   6.043
88203SOL    HW266507  12.196   4.256   6.124
88204SOL     OW66508  12.710  10.796   0.321
88204SOL    HW166509  12.721  10.891   0.329
88204SOL    HW266510  12.772  10.760   0.384
88205SOL     OW66511   1.157  11.674   8.546
88205SOL    HW166512   1.228  11.738   8.548
88205SOL    HW266513   1.101  11.702   8.474
88206SOL     OW66514   1.711  12.492   8.831
88206SOL    HW166515   1.677  12.496   8.742
88206SOL    HW266516   1.743  12.402   8.840
88207SOL     OW66517   2.966   4.756   0.690
88207SOL    HW166518   3.050   4.712   0.707
88207SOL    HW266519   2.985   4.849   0.697
88208SOL     OW66520  11.256   3.767  12.062
88208SOL    HW166521  11.322   3.772  11.993
88208SOL    HW266522  11.301   3.725  12.135
88209SOL     OW66523   6.107   5.406   1.028
88209SOL    HW166524   6.148   5.322   1.048
88209SOL    HW266525   6.016   5.396   1.058
88210SOL     OW66526   5.937   0.715   6.662
88210SOL    HW166527   5.965   0.638   6.613
88210SOL    HW266528   5.845   0.727   6.638
88211SOL     OW66529   6.494   3.972  13.862
88211SOL    HW166530   6.531   3.985  13.775
88211SOL    HW266531   6.483   4.060  13.897
88212SOL     OW66532   8.640   3.469   5.441
88212SOL    HW166533   8.693   3.545   5.416
88212SOL    HW266534   8.561   3.477   5.387
88213SOL     OW66535   7.567   6.032   0.463
88213SOL    HW166536   7.660   6.044   0.444
88213SOL    HW266537   7.556   6.068   0.551
88214SOL     OW66538   9.100   9.005   2.298
88214SOL    HW166539   9.062   8.928   2.256
88214SOL    HW266540   9.154   8.971   2.369
88215SOL     OW66541   3.762  11.817   9.523
88215SOL    HW166542   3.778  11.875   9.597
88215SOL    HW266543   3.705  11.869   9.465
88216SOL     OW66544  14.391   8.110   5.504
88216SOL    HW166545  14.454   8.176   5.534
88216SOL    HW266546  14.326   8.160   5.454
88217SOL     OW66547   9.600   5.964   9.002
88217SOL    HW166548   9.601   5.938   8.909
88217SOL    HW266549   9.609   5.882   9.049
88218SOL     OW66550   8.638   7.861   7.598
88218SOL    HW166551   8.547   7.829   7.602
88218SOL    HW266552   8.629   7.954   7.577
88219SOL     OW66553   1.570   3.866  11.331
88219SOL    HW166554   1.561   3.812  11.252
88219SOL    HW266555   1.597   3.952  11.298
88220SOL     OW66556   8.012  12.426   3.576
88220SOL    HW166557   8.020  12.336   3.606
88220SOL    HW266558   7.926  12.454   3.607
88221SOL     OW66559   3.891  13.351   4.101
88221SOL    HW166560   3.940  13.279   4.140
88221SOL    HW266561   3.847  13.312   4.026
88222SOL     OW66562  13.445  14.679  10.991
88222SOL    HW166563  13.537  14.653  10.999
88222SOL    HW266564  13.398  14.598  10.974
88223SOL     OW66565   5.337   1.576   1.560
88223SOL    HW166566   5.389   1.496   1.570
88223SOL    HW266567   5.253   1.555   1.601
88224SOL     OW66568   3.439   9.049  11.274
88224SOL    HW166569   3.389   9.091  11.345
88224SOL    HW266570   3.422   9.104  11.197
88225SOL     OW66571   2.634   8.220   1.434
88225SOL    HW166572   2.619   8.131   1.400
88225SOL    HW266573   2.577   8.275   1.380
88226SOL     OW66574   3.458   4.764   7.659
88226SOL    HW166575   3.387   4.810   7.613
88226SOL    HW266576   3.454   4.799   7.748
88227SOL     OW66577   0.290   1.221   8.830
88227SOL    HW166578   0.305   1.129   8.806
88227SOL    HW266579   0.336   1.232   8.913
88228SOL     OW66580   5.944  12.215   4.386
88228SOL    HW166581   5.859  12.228   4.344
88228SOL    HW266582   5.932  12.248   4.475
88229SOL     OW66583   8.950   5.332   0.584
88229SOL    HW166584   8.887   5.393   0.622
88229SOL    HW266585   9.035   5.376   0.594
88230SOL     OW66586   8.486  10.020   6.549
88230SOL    HW166587   8.470  10.105   6.591
88230SOL    HW266588   8.426   9.960   6.592
88231SOL     OW66589   3.860   0.766   1.367
88231SOL    HW166590   3.801   0.817   1.311
88231SOL    HW266591   3.878   0.686   1.316
88232SOL     OW66592   0.069   2.225   4.189
88232SOL    HW166593   0.065   2.251   4.281
88232SOL    HW266594   0.152   2.262   4.157
88233SOL     OW66595   7.621  10.595   0.464
88233SOL    HW166596   7.550  10.560   0.518
88233SOL    HW266597   7.686  10.627   0.527
88234SOL     OW66598   2.532  13.430   3.648
88234SOL    HW166599   2.512  13.469   3.733
88234SOL    HW266600   2.624  13.453   3.632
88235SOL     OW66601   0.062   0.129   2.032
88235SOL    HW166602   0.088   0.139   2.123
88235SOL    HW266603   0.144   0.125   1.983
88236SOL     OW66604  12.714  11.377  14.420
88236SOL    HW166605  12.627  11.338  14.412
88236SOL    HW266606  12.771  11.302  14.437
88237SOL     OW66607   6.186   1.610   3.997
88237SOL    HW166608   6.142   1.694   3.983
88237SOL    HW266609   6.245   1.601   3.923
88238SOL     OW66610  13.544   0.283   4.013
88238SOL    HW166611  13.487   0.273   3.937
88238SOL    HW266612  13.620   0.331   3.980
88239SOL     OW66613  13.322   2.100   3.835
88239SOL    HW166614  13.381   2.031   3.804
88239SOL    HW266615  13.304   2.076   3.926
88240SOL     OW66616  11.234   3.096   0.333
88240SOL    HW166617  11.322   3.115   0.365
88240SOL    HW266618  11.176   3.145   0.392
88241SOL     OW66619   9.983   7.553   0.496
88241SOL    HW166620  10.011   7.622   0.557
88241SOL    HW266621  10.021   7.473   0.531
88242SOL     OW66622   1.305  11.209   7.508
88242SOL    HW166623   1.251  11.262   7.449
88242SOL    HW266624   1.308  11.122   7.467
88243SOL     OW66625  12.205   7.917   5.658
88243SOL    HW166626  12.149   7.839   5.656
88243SOL    HW266627  12.156   7.984   5.612
88244SOL     OW66628   5.753  10.856   5.584
88244SOL    HW166629   5.847  10.843   5.570
88244SOL    HW266630   5.712  10.823   5.504
88245SOL     OW66631   2.562   9.377   8.282
88245SOL    HW166632   2.625   9.438   8.244
88245SOL    HW266633   2.554   9.307   8.218
88246SOL     OW66634   0.168   1.348  11.439
88246SOL    HW166635   0.143   1.389  11.356
88246SOL    HW266636   0.214   1.417  11.487
88247SOL     OW66637   2.792   6.216   8.910
88247SOL    HW166638   2.719   6.183   8.858
88247SOL    HW266639   2.752   6.249   8.990
88248SOL     OW66640  10.470   3.789   9.373
88248SOL    HW166641  10.397   3.747   9.328
88248SOL    HW266642  10.432   3.871   9.406
88249SOL     OW66643   2.771  14.820  13.140
88249SOL    HW166644   2.847  14.840  13.086
88249SOL    HW266645   2.758   0.026  13.194
88250SOL     OW66646  10.050  14.788   5.564
88250SOL    HW166647  10.047  14.707   5.512
88250SOL    HW266648   9.958  14.809   5.581
88251SOL     OW66649  12.160   4.488   2.772
88251SOL    HW166650  12.090   4.541   2.810
88251SOL    HW266651  12.240   4.537   2.790
88252SOL     OW66652  14.516  12.233   8.609
88252SOL    HW166653  14.551  12.279   8.532
88252SOL    HW266654  14.520  12.140   8.585
88253SOL     OW66655   1.916   5.109  11.815
88253SOL    HW166656   1.963   5.053  11.876
88253SOL    HW266657   1.933   5.198  11.846
88254SOL     OW66658  14.486  13.816   4.618
88254SOL    HW166659  14.460  13.905   4.596
88254SOL    HW266660  14.582  13.818   4.615
88255SOL     OW66661   4.223  12.471  14.115
88255SOL    HW166662   4.176  12.515  14.043
88255SOL    HW266663   4.271  12.541  14.158
88256SOL     OW66664  13.806   1.519   6.601
88256SOL    HW166665  13.804   1.595   6.659
88256SOL    HW266666  13.898   1.507   6.580
88257SOL     OW66667   7.377   1.010   8.532
88257SOL    HW166668   7.454   0.953   8.536
88257SOL    HW266669   7.409   1.091   8.494
88258SOL     OW66670  10.594   0.538   2.914
88258SOL    HW166671  10.595   0.505   2.824
88258SOL    HW266672  10.564   0.464   2.966
88259SOL     OW66673  12.069   0.821   1.064
88259SOL    HW166674  12.009   0.747   1.064
88259SOL    HW266675  12.027   0.886   1.007
88260SOL     OW66676   6.514   4.745   0.858
88260SOL    HW166677   6.511   4.830   0.902
88260SOL    HW266678   6.422   4.721   0.846
88261SOL     OW66679   2.962  10.052   6.719
88261SOL    HW166680   2.970   9.971   6.770
88261SOL    HW266681   3.043  10.099   6.738
88262SOL     OW66682  13.780  14.071  13.167
88262SOL    HW166683  13.758  14.092  13.076
88262SOL    HW266684  13.785  14.156  13.211
88263SOL     OW66685   3.267   8.050  13.902
88263SOL    HW166686   3.294   7.980  13.843
88263SOL    HW266687   3.243   8.122  13.844
88264SOL     OW66688  13.102   8.747   3.562
88264SOL    HW166689  13.184   8.730   3.515
88264SOL    HW266690  13.128   8.750   3.654
88265SOL     OW66691   6.792  11.924   2.624
88265SOL    HW166692   6.713  11.950   2.670
88265SOL    HW266693   6.786  11.829   2.616
88266SOL     OW66694   9.612   7.286   7.363
88266SOL    HW166695   9.556   7.363   7.361
88266SOL    HW266696   9.571   7.227   7.426
88267SOL     OW66697   9.034  10.923   8.036
88267SOL    HW166698   9.110  10.975   8.010
88267SOL    HW266699   9.004  10.963   8.117
88268SOL     OW66700  11.577  14.674   9.037
88268SOL    HW166701  11.554  14.581   9.037
88268SOL    HW266702  11.493  14.720   9.040
88269SOL     OW66703  12.306   6.562  10.030
88269SOL    HW166704  12.383   6.584   9.979
88269SOL    HW266705  12.239   6.539   9.965
88270SOL     OW66706   6.700  10.373   7.920
88270SOL    HW166707   6.758  10.447   7.901
88270SOL    HW266708   6.757  10.306   7.957
88271SOL     OW66709  13.141  11.563   4.538
88271SOL    HW166710  13.112  11.500   4.473
88271SOL    HW266711  13.148  11.646   4.491
88272SOL     OW66712   6.159   0.921   7.352
88272SOL    HW166713   6.195   0.998   7.397
88272SOL    HW266714   6.190   0.928   7.262
88273SOL     OW66715   3.824  14.676   6.855
88273SOL    HW166716   3.903  14.642   6.897
88273SOL    HW266717   3.806  14.758   6.900
88274SOL     OW66718  12.547  14.051  13.489
88274SOL    HW166719  12.604  14.008  13.425
88274SOL    HW266720  12.596  14.045  13.572
88275SOL     OW66721  11.069   0.379  10.935
88275SOL    HW166722  11.069   0.284  10.950
88275SOL    HW266723  11.106   0.416  11.015
88276SOL     OW66724  11.101   4.476   1.874
88276SOL    HW166725  11.083   4.383   1.866
88276SOL    HW266726  11.132   4.503   1.787
88277SOL     OW66727  12.476  10.162   6.172
88277SOL    HW166728  12.429  10.079   6.161
88277SOL    HW266729  12.407  10.228   6.176
88278SOL     OW66730   2.811   8.632   1.614
88278SOL    HW166731   2.829   8.704   1.675
88278SOL    HW266732   2.717   8.618   1.622
88279SOL     OW66733  10.353   8.580   9.106
88279SOL    HW166734  10.323   8.575   9.015
88279SOL    HW266735  10.286   8.534   9.156
88280SOL     OW66736   9.268   2.637   2.073
88280SOL    HW166737   9.182   2.679   2.082
88280SOL    HW266738   9.329   2.709   2.059
88281SOL     OW66739  14.464  14.224  11.315
88281SOL    HW166740  14.416  14.304  11.336
88281SOL    HW266741  14.504  14.198  11.398
88282SOL     OW66742  10.873  14.204   4.123
88282SOL    HW166743  10.779  14.191   4.111
88282SOL    HW266744  10.889  14.181   4.214
88283SOL     OW66745  14.370  11.152  14.024
88283SOL    HW166746  14.278  11.149  13.998
88283SOL    HW266747  14.403  11.234  13.988
88284SOL     OW66748   6.758   8.213  12.294
88284SOL    HW166749   6.844   8.210  12.251
88284SOL    HW266750   6.704   8.267  12.236
88285SOL     OW66751  13.051   9.131   1.650
88285SOL    HW166752  12.956   9.126   1.641
88285SOL    HW266753  13.067   9.123   1.744
88286SOL     OW66754   2.606   9.115   6.376
88286SOL    HW166755   2.661   9.181   6.333
88286SOL    HW266756   2.663   9.039   6.385
88287SOL     OW66757   3.339   8.730  12.717
88287SOL    HW166758   3.372   8.810  12.757
88287SOL    HW266759   3.273   8.759  12.654
88288SOL     OW66760  14.488   4.447  12.315
88288SOL    HW166761  14.518   4.370  12.363
88288SOL    HW266762  14.547   4.453  12.240
88289SOL     OW66763   1.118   3.097  12.751
88289SOL    HW166764   1.059   3.153  12.700
88289SOL    HW266765   1.152   3.154  12.820
88290SOL     OW66766   7.511  13.799   9.199
88290SOL    HW166767   7.478  13.883   9.231
88290SOL    HW266768   7.575  13.772   9.265
88291SOL     OW66769   6.336   6.926   7.329
88291SOL    HW166770   6.310   6.854   7.387
88291SOL    HW266771   6.381   6.987   7.386
88292SOL     OW66772  11.319   4.927  14.224
88292SOL    HW166773  11.276   4.902  14.306
88292SOL    HW266774  11.274   4.876  14.157
88293SOL     OW66775   0.350   1.276   1.892
88293SOL    HW166776   0.442   1.257   1.911
88293SOL    HW266777   0.333   1.360   1.934
88294SOL     OW66778   3.384  11.269   6.775
88294SOL    HW166779   3.351  11.181   6.760
88294SOL    HW266780   3.307  11.325   6.769
88295SOL     OW66781  14.387   9.390  12.200
88295SOL    HW166782  14.343   9.418  12.120
88295SOL    HW266783  14.394   9.469  12.253
88296SOL     OW66784  11.477  10.320  10.000
88296SOL    HW166785  11.403  10.312  10.060
88296SOL    HW266786  11.455  10.264   9.926
88297SOL     OW66787   6.986   9.347   9.747
88297SOL    HW166788   6.901   9.387   9.730
88297SOL    HW266789   7.012   9.382   9.832
88298SOL     OW66790   4.189  12.174  10.326
88298SOL    HW166791   4.184  12.149  10.233
88298SOL    HW266792   4.259  12.119  10.362
88299SOL     OW66793   5.647   2.021   0.337
88299SOL    HW166794   5.736   2.049   0.314
88299SOL    HW266795   5.596   2.039   0.258
88300SOL     OW66796   6.679  12.622   3.733
88300SOL    HW166797   6.711  12.634   3.643
88300SOL    HW266798   6.726  12.687   3.785
88301SOL     OW66799   8.148  14.535  14.224
88301SOL    HW166800   8.096  14.485  14.287
88301SOL    HW266801   8.115  14.507  14.139
88302SOL     OW66802  10.866   7.830   1.883
88302SOL    HW166803  10.816   7.848   1.804
88302SOL    HW266804  10.956   7.816   1.853
88303SOL     OW66805   2.760   8.634  12.042
88303SOL    HW166806   2.747   8.710  11.985
88303SOL    HW266807   2.683   8.580  12.029
88304SOL     OW66808   2.043   1.458   8.448
88304SOL    HW166809   2.050   1.472   8.543
88304SOL    HW266810   2.057   1.545   8.411
88305SOL     OW66811  12.592   4.739   9.430
88305SOL    HW166812  12.549   4.813   9.474
88305SOL    HW266813  12.574   4.752   9.337
88306SOL     OW66814   0.162  14.458   5.748
88306SOL    HW166815   0.107  14.446   5.671
88306SOL    HW266816   0.207  14.374   5.759
88307SOL     OW66817   5.783  10.672   8.111
88307SOL    HW166818   5.866  10.667   8.063
88307SOL    HW266819   5.723  10.713   8.049
88308SOL     OW66820   1.511   8.628  11.070
88308SOL    HW166821   1.454   8.631  11.147
88308SOL    HW266822   1.572   8.700  11.083
88309SOL     OW66823   3.656  13.117  11.684
88309SOL    HW166824   3.675  13.120  11.591
88309SOL    HW266825   3.688  13.031  11.713
88310SOL     OW66826   4.897   7.026   5.470
88310SOL    HW166827   4.962   6.960   5.493
88310SOL    HW266828   4.921   7.053   5.382
88311SOL     OW66829   3.518   8.231   9.547
88311SOL    HW166830   3.554   8.188   9.469
88311SOL    HW266831   3.434   8.188   9.561
88312SOL     OW66832  12.766   9.184  12.043
88312SOL    HW166833  12.823   9.106  12.045
88312SOL    HW266834  12.680   9.151  12.066
88313SOL     OW66835  13.675   8.244  12.784
88313SOL    HW166836  13.693   8.154  12.759
88313SOL    HW266837  13.665   8.291  12.701
88314SOL     OW66838  12.891   1.645  13.163
88314SOL    HW166839  12.935   1.728  13.146
88314SOL    HW266840  12.826   1.665  13.230
88315SOL     OW66841   7.392   5.038   8.844
88315SOL    HW166842   7.404   5.097   8.919
88315SOL    HW266843   7.379   4.952   8.882
88316SOL     OW66844   7.396   7.309  14.154
88316SOL    HW166845   7.411   7.399  14.182
88316SOL    HW266846   7.327   7.316  14.087
88317SOL     OW66847   3.978  10.932  10.887
88317SOL    HW166848   4.028  10.991  10.830
88317SOL    HW266849   3.906  10.986  10.920
88318SOL     OW66850   8.971  11.498   9.794
88318SOL    HW166851   8.901  11.448   9.754
88318SOL    HW266852   8.992  11.567   9.731
88319SOL     OW66853   5.692   3.063   0.079
88319SOL    HW166854   5.607   3.064   0.125
88319SOL    HW266855   5.681   3.127   0.009
88320SOL     OW66856   6.823   2.265  14.593
88320SOL    HW166857   6.739   2.299  14.561
88320SOL    HW266858   6.886   2.289  14.525
88321SOL     OW66859   7.983   2.051  14.706
88321SOL    HW166860   7.954   2.106  14.779
88321SOL    HW266861   8.077   2.042  14.718
88322SOL     OW66862  14.840   9.661   6.330
88322SOL    HW166863  14.812   9.749   6.307
88322SOL    HW266864   0.050   9.648   6.282
88323SOL     OW66865   6.518   5.652   9.241
88323SOL    HW166866   6.438   5.616   9.279
88323SOL    HW266867   6.568   5.576   9.212
88324SOL     OW66868  13.822   0.727   8.308
88324SOL    HW166869  13.847   0.635   8.304
88324SOL    HW266870  13.854   0.756   8.394
88325SOL     OW66871   7.011   7.782   2.518
88325SOL    HW166872   7.028   7.718   2.587
88325SOL    HW266873   6.937   7.744   2.469
88326SOL     OW66874  13.104   9.834   3.723
88326SOL    HW166875  13.091   9.802   3.633
88326SOL    HW266876  13.188   9.881   3.719
88327SOL     OW66877   3.141   2.914   8.143
88327SOL    HW166878   3.147   2.872   8.057
88327SOL    HW266879   3.051   2.897   8.172
88328SOL     OW66880   2.519   8.228   0.605
88328SOL    HW166881   2.579   8.180   0.662
88328SOL    HW266882   2.516   8.316   0.644
88329SOL     OW66883   9.331   3.150  12.295
88329SOL    HW166884   9.374   3.068  12.321
88329SOL    HW266885   9.401   3.201  12.255
88330SOL     OW66886  10.851  11.420  12.660
88330SOL    HW166887  10.782  11.393  12.599
88330SOL    HW266888  10.927  11.437  12.604
88331SOL     OW66889  13.033  14.215   6.264
88331SOL    HW166890  13.034  14.196   6.358
88331SOL    HW266891  13.044  14.130   6.222
88332SOL     OW66892   0.259  13.760   9.826
88332SOL    HW166893   0.164  13.756   9.834
88332SOL    HW266894   0.278  13.850   9.801
88333SOL     OW66895  13.801   1.531   9.238
88333SOL    HW166896  13.841   1.610   9.276
88333SOL    HW266897  13.870   1.492   9.185
88334SOL     OW66898  10.037   0.447   3.213
88334SOL    HW166899  10.026   0.366   3.164
88334SOL    HW266900   9.951   0.464   3.251
88335SOL     OW66901   8.413   9.639  13.568
88335SOL    HW166902   8.413   9.608  13.478
88335SOL    HW266903   8.503   9.624  13.598
88336SOL     OW66904   6.148   3.353   9.999
88336SOL    HW166905   6.145   3.294  10.074
88336SOL    HW266906   6.189   3.432  10.033
88337SOL     OW66907  10.483   3.144  10.768
88337SOL    HW166908  10.560   3.093  10.794
88337SOL    HW266909  10.514   3.234  10.763
88338SOL     OW66910   7.101  12.684   5.639
88338SOL    HW166911   7.083  12.707   5.730
88338SOL    HW266912   7.182  12.728   5.617
88339SOL     OW66913  13.835   3.253   5.141
88339SOL    HW166914  13.772   3.302   5.087
88339SOL    HW266915  13.868   3.184   5.083
88340SOL     OW66916   5.225   6.619  11.311
88340SOL    HW166917   5.308   6.580  11.337
88340SOL    HW266918   5.207   6.684  11.380
88341SOL     OW66919  13.565   4.472   4.996
88341SOL    HW166920  13.527   4.559   4.983
88341SOL    HW266921  13.513   4.433   5.066
88342SOL     OW66922   1.623   3.945  11.680
88342SOL    HW166923   1.706   3.899  11.697
88342SOL    HW266924   1.641   4.000  11.604
88343SOL     OW66925   2.975   5.094   4.167
88343SOL    HW166926   2.905   5.035   4.196
88343SOL    HW266927   2.981   5.159   4.236
88344SOL     OW66928   5.067  11.235   0.996
88344SOL    HW166929   5.039  11.152   0.958
88344SOL    HW266930   4.989  11.290   0.996
88345SOL     OW66931   8.089   3.285   4.214
88345SOL    HW166932   8.149   3.287   4.139
88345SOL    HW266933   8.113   3.206   4.262
88346SOL     OW66934   6.944  12.161   7.900
88346SOL    HW166935   6.882  12.101   7.942
88346SOL    HW266936   6.988  12.108   7.833
88347SOL     OW66937   3.405  12.338   6.370
88347SOL    HW166938   3.418  12.392   6.449
88347SOL    HW266939   3.400  12.401   6.299
88348SOL     OW66940   5.045   9.330   8.890
88348SOL    HW166941   5.001   9.388   8.829
88348SOL    HW266942   5.137   9.357   8.888
88349SOL     OW66943   3.270   3.661   3.899
88349SOL    HW166944   3.213   3.615   3.961
88349SOL    HW266945   3.225   3.652   3.815
88350SOL     OW66946   6.240   0.242  12.420
88350SOL    HW166947   6.247   0.147  12.428
88350SOL    HW266948   6.286   0.262  12.339
88351SOL     OW66949  14.002   3.151  12.694
88351SOL    HW166950  13.942   3.077  12.689
88351SOL    HW266951  14.057   3.132  12.770
88352SOL     OW66952   6.369   7.290  13.624
88352SOL    HW166953   6.343   7.306  13.715
88352SOL    HW266954   6.287   7.265  13.581
88353SOL     OW66955   3.712   0.782   4.653
88353SOL    HW166956   3.632   0.804   4.701
88353SOL    HW266957   3.767   0.737   4.717
88354SOL     OW66958   4.420   5.040   7.176
88354SOL    HW166959   4.426   5.128   7.212
88354SOL    HW266960   4.336   5.007   7.205
88355SOL     OW66961   1.447  12.344   1.510
88355SOL    HW166962   1.442  12.323   1.417
88355SOL    HW266963   1.378  12.292   1.550
88356SOL     OW66964   1.182  13.469  12.624
88356SOL    HW166965   1.112  13.439  12.683
88356SOL    HW266966   1.166  13.563  12.613
88357SOL     OW66967  11.603   2.909   8.203
88357SOL    HW166968  11.588   3.002   8.185
88357SOL    HW266969  11.516   2.873   8.220
88358SOL     OW66970   3.064   3.426   7.109
88358SOL    HW166971   2.994   3.433   7.175
88358SOL    HW266972   3.063   3.510   7.063
88359SOL     OW66973   6.366  12.165   7.026
88359SOL    HW166974   6.354  12.141   6.934
88359SOL    HW266975   6.428  12.101   7.061
88360SOL     OW66976  12.703   0.962  11.371
88360SOL    HW166977  12.732   0.870  11.367
88360SOL    HW266978  12.622   0.963  11.320
88361SOL     OW66979  13.265   1.289   1.105
88361SOL    HW166980  13.246   1.313   1.195
88361SOL    HW266981  13.307   1.366   1.067
88362SOL     OW66982   1.836   4.660  14.513
88362SOL    HW166983   1.841   4.728  14.580
88362SOL    HW266984   1.840   4.578  14.561
88363SOL     OW66985  11.934   2.552   7.099
88363SOL    HW166986  11.929   2.646   7.117
88363SOL    HW266987  11.880   2.512   7.167
88364SOL     OW66988   9.127   3.309   3.699
88364SOL    HW166989   9.165   3.236   3.749
88364SOL    HW266990   9.180   3.385   3.722
88365SOL     OW66991   4.720  13.341   7.665
88365SOL    HW166992   4.637  13.355   7.711
88365SOL    HW266993   4.758  13.428   7.658
88366SOL     OW66994   8.171   6.043   8.289
88366SOL    HW166995   8.085   6.059   8.329
88366SOL    HW266996   8.209   6.130   8.279
88367SOL     OW66997   1.076  14.299  12.768
88367SOL    HW166998   1.160  14.255  12.755
88367SOL    HW266999   1.011  14.236  12.737
88368SOL     OW67000   1.715  13.703  11.703
88368SOL    HW167001   1.716  13.772  11.636
88368SOL    HW267002   1.632  13.658  11.689
88369SOL     OW67003  12.886   1.028  10.595
88369SOL    HW167004  12.798   1.059  10.619
88369SOL    HW267005  12.908   1.076  10.516
88370SOL     OW67006  11.340   9.204   7.996
88370SOL    HW167007  11.297   9.224   8.078
88370SOL    HW267008  11.364   9.289   7.959
88371SOL     OW67009   6.916   3.209   9.484
88371SOL    HW167010   6.962   3.157   9.419
88371SOL    HW267011   6.898   3.292   9.440
88372SOL     OW67012  12.023   9.338   2.888
88372SOL    HW167013  12.007   9.244   2.895
88372SOL    HW267014  12.039   9.353   2.795
88373SOL     OW67015  11.353   4.787   9.993
88373SOL    HW167016  11.395   4.831  10.067
88373SOL    HW267017  11.261   4.780  10.018
88374SOL     OW67018   2.287   5.415  13.169
88374SOL    HW167019   2.247   5.489  13.214
88374SOL    HW267020   2.275   5.435  13.076
88375SOL     OW67021  10.486  13.018   7.688
88375SOL    HW167022  10.574  12.984   7.674
88375SOL    HW267023  10.463  13.059   7.605
88376SOL     OW67024  14.838   2.076   4.884
88376SOL    HW167025   0.003   2.123   4.959
88376SOL    HW267026   0.007   2.117   4.808
88377SOL     OW67027   1.575   4.090   0.150
88377SOL    HW167028   1.618   4.007   0.128
88377SOL    HW267029   1.482   4.071   0.145
88378SOL     OW67030   2.359   1.001  11.754
88378SOL    HW167031   2.319   1.068  11.809
88378SOL    HW267032   2.341   1.030  11.664
88379SOL     OW67033   2.796   9.391   6.881
88379SOL    HW167034   2.887   9.367   6.864
88379SOL    HW267035   2.746   9.345   6.814
88380SOL     OW67036   0.903   0.432   3.139
88380SOL    HW167037   0.925   0.461   3.227
88380SOL    HW267038   0.900   0.513   3.087
88381SOL     OW67039   1.769   0.007   0.326
88381SOL    HW167040   1.753  14.830   0.406
88381SOL    HW267041   1.839  14.830   0.282
88382SOL     OW67042  11.211   2.257   1.700
88382SOL    HW167043  11.252   2.174   1.680
88382SOL    HW267044  11.239   2.315   1.629
88383SOL     OW67045   4.322   8.137   0.861
88383SOL    HW167046   4.321   8.114   0.768
88383SOL    HW267047   4.414   8.133   0.887
88384SOL     OW67048   5.139  13.608   7.198
88384SOL    HW167049   5.168  13.699   7.198
88384SOL    HW267050   5.218  13.558   7.176
88385SOL     OW67051   0.945  13.862   7.447
88385SOL    HW167052   0.854  13.844   7.421
88385SOL    HW267053   0.998  13.819   7.380
88386SOL     OW67054   9.221   2.720  11.337
88386SOL    HW167055   9.269   2.756  11.262
88386SOL    HW267056   9.262   2.635  11.353
88387SOL     OW67057   4.091   6.857  12.120
88387SOL    HW167058   4.133   6.815  12.045
88387SOL    HW267059   4.043   6.786  12.164
88388SOL     OW67060   0.550  11.838  14.741
88388SOL    HW167061   0.592  11.752  14.735
88388SOL    HW267062   0.538  11.853  14.835
88389SOL     OW67063   8.936   3.467   7.462
88389SOL    HW167064   8.898   3.445   7.546
88389SOL    HW267065   9.016   3.515   7.483
88390SOL     OW67066   5.405   6.555   2.826
88390SOL    HW167067   5.362   6.640   2.843
88390SOL    HW267068   5.446   6.533   2.909
88391SOL     OW67069   1.471   8.739   5.025
88391SOL    HW167070   1.463   8.656   5.072
88391SOL    HW267071   1.409   8.733   4.953
88392SOL     OW67072  12.710   6.288   9.832
88392SOL    HW167073  12.617   6.267   9.841
88392SOL    HW267074  12.726   6.355   9.898
88393SOL     OW67075  14.478   8.312  14.147
88393SOL    HW167076  14.504   8.293  14.237
88393SOL    HW267077  14.547   8.369  14.114
88394SOL     OW67078  14.664   2.964  11.094
88394SOL    HW167079  14.643   2.955  11.001
88394SOL    HW267080  14.693   2.877  11.120
88395SOL     OW67081  13.371   9.767   7.781
88395SOL    HW167082  13.373   9.672   7.794
88395SOL    HW267083  13.283   9.792   7.807
88396SOL     OW67084   8.940   8.260  14.349
88396SOL    HW167085   8.991   8.250  14.429
88396SOL    HW267086   8.989   8.210  14.284
88397SOL     OW67087   4.508   2.154   1.065
88397SOL    HW167088   4.436   2.105   1.105
88397SOL    HW267089   4.528   2.107   0.985
88398SOL     OW67090   9.517  11.564  10.345
88398SOL    HW167091   9.587  11.534  10.286
88398SOL    HW267092   9.437  11.525  10.310
88399SOL     OW67093   1.249   1.257   9.158
88399SOL    HW167094   1.262   1.164   9.139
88399SOL    HW267095   1.319   1.279   9.219
88400SOL     OW67096   1.921   5.992  13.038
88400SOL    HW167097   2.000   5.991  12.984
88400SOL    HW267098   1.907   5.900  13.062
88401SOL     OW67099  14.747   6.763   1.275
88401SOL    HW167100  14.804   6.839   1.264
88401SOL    HW267101  14.664   6.790   1.235
88402SOL     OW67102   0.503  14.444   9.726
88402SOL    HW167103   0.569  14.421   9.661
88402SOL    HW267104   0.423  14.458   9.674
88403SOL     OW67105  10.859   1.774   4.171
88403SOL    HW167106  10.924   1.834   4.135
88403SOL    HW267107  10.783   1.783   4.113
88404SOL     OW67108  13.213   0.492   0.202
88404SOL    HW167109  13.123   0.461   0.194
88404SOL    HW267110  13.208   0.584   0.177
88405SOL     OW67111   2.217   8.328   1.236
88405SOL    HW167112   2.147   8.330   1.302
88405SOL    HW267113   2.171   8.329   1.152
88406SOL     OW67114   3.843   2.855   1.560
88406SOL    HW167115   3.790   2.809   1.494
88406SOL    HW267116   3.781   2.877   1.630
88407SOL     OW67117  14.682   8.471   4.475
88407SOL    HW167118  14.721   8.537   4.418
88407SOL    HW267119  14.741   8.467   4.550
88408SOL     OW67120   6.295   8.460   6.182
88408SOL    HW167121   6.216   8.407   6.188
88408SOL    HW267122   6.341   8.443   6.265
88409SOL     OW67123   5.088   8.413   7.644
88409SOL    HW167124   5.006   8.454   7.614
88409SOL    HW267125   5.083   8.418   7.739
88410SOL     OW67126   2.387   5.012   5.915
88410SOL    HW167127   2.346   5.005   6.001
88410SOL    HW267128   2.314   5.017   5.853
88411SOL     OW67129  10.514  13.032   0.899
88411SOL    HW167130  10.574  12.957   0.909
88411SOL    HW267131  10.570  13.103   0.868
88412SOL     OW67132   7.625   5.170   1.279
88412SOL    HW167133   7.664   5.254   1.304
88412SOL    HW267134   7.537   5.192   1.249
88413SOL     OW67135   7.110   9.498  13.414
88413SOL    HW167136   7.164   9.484  13.337
88413SOL    HW267137   7.028   9.532  13.380
88414SOL     OW67138   8.026  10.722   9.795
88414SOL    HW167139   8.099  10.691   9.848
88414SOL    HW267140   8.041  10.816   9.784
88415SOL     OW67141   6.251   5.369   7.879
88415SOL    HW167142   6.287   5.443   7.830
88415SOL    HW267143   6.327   5.330   7.923
88416SOL     OW67144   6.122  14.399   1.345
88416SOL    HW167145   6.125  14.403   1.440
88416SOL    HW267146   6.183  14.329   1.322
88417SOL     OW67147   2.026   1.179  13.417
88417SOL    HW167148   1.940   1.218  13.406
88417SOL    HW267149   2.073   1.240  13.473
88418SOL     OW67150   4.167   6.558  14.352
88418SOL    HW167151   4.219   6.487  14.390
88418SOL    HW267152   4.078   6.543  14.385
88419SOL     OW67153  14.116   8.796   9.172
88419SOL    HW167154  14.066   8.731   9.124
88419SOL    HW267155  14.118   8.872   9.114
88420SOL     OW67156  10.060   8.365   1.285
88420SOL    HW167157   9.983   8.309   1.294
88420SOL    HW267158  10.079   8.366   1.191
88421SOL     OW67159   3.804  10.666  11.504
88421SOL    HW167160   3.863  10.742  11.509
88421SOL    HW267161   3.826  10.614  11.581
88422SOL     OW67162   1.951  12.068  10.529
88422SOL    HW167163   1.992  12.075  10.615
88422SOL    HW267164   2.003  12.127  10.473
88423SOL     OW67165   2.987  13.414   4.301
88423SOL    HW167166   3.060  13.361   4.333
88423SOL    HW267167   2.997  13.498   4.345
88424SOL     OW67168  12.109   2.561   8.099
88424SOL    HW167169  12.035   2.621   8.099
88424SOL    HW267170  12.146   2.567   8.187
88425SOL     OW67171   3.960  10.506   0.943
88425SOL    HW167172   4.008  10.437   0.989
88425SOL    HW267173   3.870  10.473   0.937
88426SOL     OW67174   4.346   5.219   0.752
88426SOL    HW167175   4.285   5.159   0.795
88426SOL    HW267176   4.408   5.243   0.821
88427SOL     OW67177  12.849   9.699  10.036
88427SOL    HW167178  12.797   9.776  10.058
88427SOL    HW267179  12.918   9.732   9.979
88428SOL     OW67180   4.216  13.977   9.318
88428SOL    HW167181   4.123  13.992   9.333
88428SOL    HW267182   4.253  14.063   9.299
88429SOL     OW67183   7.732   8.787   5.173
88429SOL    HW167184   7.717   8.850   5.242
88429SOL    HW267185   7.725   8.702   5.216
88430SOL     OW67186  13.266   0.522  14.055
88430SOL    HW167187  13.304   0.436  14.074
88430SOL    HW267188  13.262   0.565  14.141
88431SOL     OW67189  13.543   1.582  10.306
88431SOL    HW167190  13.525   1.527  10.230
88431SOL    HW267191  13.614   1.640  10.278
88432SOL     OW67192  12.087   3.398   3.127
88432SOL    HW167193  12.171   3.430   3.096
88432SOL    HW267194  12.022   3.446   3.075
88433SOL     OW67195   2.205   2.695   1.807
88433SOL    HW167196   2.205   2.755   1.881
88433SOL    HW267197   2.291   2.705   1.767
88434SOL     OW67198   1.806   2.249   8.918
88434SOL    HW167199   1.892   2.262   8.879
88434SOL    HW267200   1.774   2.167   8.880
88435SOL     OW67201  13.065  12.735   4.386
88435SOL    HW167202  13.044  12.651   4.427
88435SOL    HW267203  13.085  12.713   4.295
88436SOL     OW67204   7.404   3.098   8.008
88436SOL    HW167205   7.328   3.119   8.061
88436SOL    HW267206   7.452   3.180   8.000
88437SOL     OW67207   3.222   4.931  11.997
88437SOL    HW167208   3.244   4.939  12.090
88437SOL    HW267209   3.131   4.903  11.996
88438SOL     OW67210   4.468   8.469   4.713
88438SOL    HW167211   4.509   8.510   4.788
88438SOL    HW267212   4.540   8.430   4.664
88439SOL     OW67213   5.603   1.319  12.321
88439SOL    HW167214   5.693   1.302  12.349
88439SOL    HW267215   5.612   1.384  12.251
88440SOL     OW67216  12.916  13.363  12.246
88440SOL    HW167217  12.960  13.437  12.288
88440SOL    HW267218  12.824  13.390  12.243
88441SOL     OW67219   2.757   4.886   7.570
88441SOL    HW167220   2.757   4.969   7.522
88441SOL    HW267221   2.675   4.843   7.543
88442SOL     OW67222   9.512   9.586   2.104
88442SOL    HW167223   9.458   9.547   2.173
88442SOL    HW267224   9.575   9.517   2.081
88443SOL     OW67225   9.588   6.186  14.836
88443SOL    HW167226   9.631   6.185  14.750
88443SOL    HW267227   9.547   6.100  14.843
88444SOL     OW67228  10.928   6.887  11.050
88444SOL    HW167229  10.836   6.866  11.060
88444SOL    HW267230  10.970   6.851  11.128
88445SOL     OW67231  11.765   8.552  13.499
88445SOL    HW167232  11.792   8.517  13.413
88445SOL    HW267233  11.802   8.640  13.502
88446SOL     OW67234   5.180   7.840   7.282
88446SOL    HW167235   5.192   7.918   7.337
88446SOL    HW267236   5.192   7.766   7.342
88447SOL     OW67237   7.625   4.713  13.022
88447SOL    HW167238   7.536   4.679  13.036
88447SOL    HW267239   7.671   4.642  12.978
88448SOL     OW67240   3.519  14.100  13.909
88448SOL    HW167241   3.426  14.086  13.927
88448SOL    HW267242   3.529  14.073  13.818
88449SOL     OW67243   7.249  10.274  14.782
88449SOL    HW167244   7.284  10.306  14.699
88449SOL    HW267245   7.246  10.351  14.839
88450SOL     OW67246   6.567   1.950   3.691
88450SOL    HW167247   6.589   2.040   3.715
88450SOL    HW267248   6.480   1.936   3.729
88451SOL     OW67249   9.499   0.014   0.052
88451SOL    HW167250   9.562  14.870   0.122
88451SOL    HW267251   9.415   0.026   0.097
88452SOL     OW67252  14.238   5.902   9.574
88452SOL    HW167253  14.309   5.962   9.550
88452SOL    HW267254  14.194   5.945   9.647
88453SOL     OW67255   8.948   8.909   8.318
88453SOL    HW167256   8.900   8.989   8.295
88453SOL    HW267257   9.000   8.890   8.240
88454SOL     OW67258   5.633   6.662   0.551
88454SOL    HW167259   5.687   6.740   0.550
88454SOL    HW267260   5.553   6.687   0.505
88455SOL     OW67261   7.983  11.589   3.621
88455SOL    HW167262   7.888  11.573   3.619
88455SOL    HW267263   8.005  11.589   3.714
88456SOL     OW67264   9.074  13.909   3.973
88456SOL    HW167265   8.984  13.886   3.997
88456SOL    HW267266   9.068  13.942   3.884
88457SOL     OW67267   7.270  10.448  14.199
88457SOL    HW167268   7.350  10.492  14.171
88457SOL    HW267269   7.219  10.515  14.243
88458SOL     OW67270   9.676   5.533   0.341
88458SOL    HW167271   9.620   5.579   0.278
88458SOL    HW267272   9.647   5.564   0.426
88459SOL     OW67273   0.109   1.388   2.880
88459SOL    HW167274   0.190   1.423   2.918
88459SOL    HW267275   0.062   1.466   2.850
88460SOL     OW67276  14.107  13.339   7.193
88460SOL    HW167277  14.131  13.371   7.280
88460SOL    HW267278  14.152  13.255   7.185
88461SOL     OW67279   5.469   7.068  12.336
88461SOL    HW167280   5.449   7.061  12.242
88461SOL    HW267281   5.492   6.979  12.362
88462SOL     OW67282   1.872  10.910   7.676
88462SOL    HW167283   1.925  10.946   7.747
88462SOL    HW267284   1.810  10.979   7.654
88463SOL     OW67285   3.462   2.987   5.561
88463SOL    HW167286   3.442   2.926   5.490
88463SOL    HW267287   3.553   2.970   5.583
88464SOL     OW67288  12.674   6.801  13.256
88464SOL    HW167289  12.633   6.887  13.265
88464SOL    HW267290  12.611   6.740  13.296
88465SOL     OW67291  10.101   9.731  13.388
88465SOL    HW167292  10.165   9.786  13.342
88465SOL    HW267293  10.068   9.671  13.322
88466SOL     OW67294   4.337  11.864   9.648
88466SOL    HW167295   4.367  11.920   9.576
88466SOL    HW267296   4.293  11.791   9.605
88467SOL     OW67297  13.040   4.141   6.801
88467SOL    HW167298  13.019   4.198   6.875
88467SOL    HW267299  13.136   4.131   6.804
88468SOL     OW67300   5.411   5.422   3.021
88468SOL    HW167301   5.386   5.345   2.970
88468SOL    HW267302   5.335   5.481   3.014
88469SOL     OW67303   0.185  11.201  14.047
88469SOL    HW167304   0.241  11.249  13.986
88469SOL    HW267305   0.161  11.266  14.113
88470SOL     OW67306   7.380   8.425  12.771
88470SOL    HW167307   7.305   8.440  12.828
88470SOL    HW267308   7.399   8.332  12.782
88471SOL     OW67309  11.451  12.469   9.233
88471SOL    HW167310  11.445  12.501   9.323
88471SOL    HW267311  11.428  12.546   9.180
88472SOL     OW67312   1.247   6.169   8.987
88472SOL    HW167313   1.186   6.202   8.921
88472SOL    HW267314   1.219   6.079   9.003
88473SOL     OW67315  11.926   5.682  13.890
88473SOL    HW167316  11.839   5.693  13.851
88473SOL    HW267317  11.942   5.587  13.886
88474SOL     OW67318  10.535   9.518   2.859
88474SOL    HW167319  10.612   9.461   2.863
88474SOL    HW267320  10.464   9.464   2.894
88475SOL     OW67321   9.120   6.695   6.924
88475SOL    HW167322   9.176   6.723   6.996
88475SOL    HW267323   9.033   6.683   6.964
88476SOL     OW67324  10.438  14.086   7.119
88476SOL    HW167325  10.490  14.028   7.175
88476SOL    HW267326  10.421  14.035   7.040
88477SOL     OW67327   2.940   3.623   9.417
88477SOL    HW167328   2.957   3.540   9.372
88477SOL    HW267329   2.918   3.684   9.346
88478SOL     OW67330   5.456   5.013   5.361
88478SOL    HW167331   5.512   5.091   5.364
88478SOL    HW267332   5.370   5.047   5.337
88479SOL     OW67333  12.161   4.464  14.487
88479SOL    HW167334  12.166   4.370  14.468
88479SOL    HW267335  12.222   4.504  14.425
88480SOL     OW67336   5.733   2.795   5.899
88480SOL    HW167337   5.737   2.891   5.894
88480SOL    HW267338   5.659   2.771   5.843
88481SOL     OW67339   0.381  12.104   8.134
88481SOL    HW167340   0.368  12.018   8.173
88481SOL    HW267341   0.296  12.127   8.098
88482SOL     OW67342   2.158   0.001   3.864
88482SOL    HW167343   2.158  14.853   3.771
88482SOL    HW267344   2.150   0.096   3.868
88483SOL     OW67345  12.876  10.050   4.974
88483SOL    HW167346  12.956  10.008   4.943
88483SOL    HW267347  12.812  10.034   4.904
88484SOL     OW67348   9.825  12.932   2.170
88484SOL    HW167349   9.863  12.844   2.168
88484SOL    HW267350   9.730  12.917   2.169
88485SOL     OW67351  11.187   5.249  10.880
88485SOL    HW167352  11.163   5.160  10.854
88485SOL    HW267353  11.123   5.271  10.948
88486SOL     OW67354  13.302   6.849   9.006
88486SOL    HW167355  13.269   6.884   8.924
88486SOL    HW267356  13.230   6.861   9.068
88487SOL     OW67357   3.111   2.349  14.842
88487SOL    HW167358   3.164   2.414  14.798
88487SOL    HW267359   3.166   2.317   0.041
88488SOL     OW67360  11.418   6.445   4.344
88488SOL    HW167361  11.504   6.471   4.311
88488SOL    HW267362  11.432   6.356   4.378
88489SOL     OW67363   9.182   5.700  10.821
88489SOL    HW167364   9.158   5.718  10.911
88489SOL    HW267365   9.165   5.607  10.809
88490SOL     OW67366   6.895  13.347  13.910
88490SOL    HW167367   6.966  13.284  13.923
88490SOL    HW267368   6.904  13.408  13.982
88491SOL     OW67369  11.033  12.411  13.377
88491SOL    HW167370  11.016  12.505  13.371
88491SOL    HW267371  11.001  12.387  13.464
88492SOL     OW67372  10.455  13.667  11.394
88492SOL    HW167373  10.399  13.651  11.470
88492SOL    HW267374  10.541  13.632  11.420
88493SOL     OW67375  14.071   3.312   2.520
88493SOL    HW167376  14.114   3.325   2.604
88493SOL    HW267377  14.017   3.234   2.532
88494SOL     OW67378   2.143  13.460   3.305
88494SOL    HW167379   2.226  13.497   3.335
88494SOL    HW267380   2.150  13.367   3.323
88495SOL     OW67381  10.739   1.980   2.275
88495SOL    HW167382  10.739   1.988   2.180
88495SOL    HW267383  10.831   1.968   2.298
88496SOL     OW67384   8.945   0.297   3.076
88496SOL    HW167385   8.943   0.263   3.166
88496SOL    HW267386   8.854   0.297   3.048
88497SOL     OW67387   7.264   0.161   9.379
88497SOL    HW167388   7.207   0.101   9.426
88497SOL    HW267389   7.253   0.137   9.287
88498SOL     OW67390   6.452   7.868   5.487
88498SOL    HW167391   6.518   7.887   5.553
88498SOL    HW267392   6.486   7.792   5.440
88499SOL     OW67393   5.242  14.420  10.355
88499SOL    HW167394   5.306  14.355  10.385
88499SOL    HW267395   5.159  14.372  10.352
88500SOL     OW67396   8.800   1.662   5.110
88500SOL    HW167397   8.766   1.697   5.028
88500SOL    HW267398   8.894   1.651   5.095
88501SOL     OW67399   0.839  14.044   1.220
88501SOL    HW167400   0.809  14.024   1.131
88501SOL    HW267401   0.928  14.076   1.208
88502SOL     OW67402   5.517   9.232  10.347
88502SOL    HW167403   5.584   9.174  10.383
88502SOL    HW267404   5.435   9.183  10.358
88503SOL     OW67405  12.393  13.076   3.827
88503SOL    HW167406  12.375  13.103   3.737
88503SOL    HW267407  12.488  13.079   3.834
88504SOL     OW67408   4.814   6.820   6.755
88504SOL    HW167409   4.887   6.840   6.813
88504SOL    HW267410   4.852   6.767   6.685
88505SOL     OW67411   0.613   7.045  12.297
88505SOL    HW167412   0.565   7.026  12.216
88505SOL    HW267413   0.687   6.984  12.296
88506SOL     OW67414   5.842   2.079   4.072
88506SOL    HW167415   5.858   2.161   4.026
88506SOL    HW267416   5.770   2.038   4.023
88507SOL     OW67417   7.516  12.323   7.609
88507SOL    HW167418   7.502  12.418   7.610
88507SOL    HW267419   7.464  12.292   7.535
88508SOL     OW67420   0.998   7.209   9.866
88508SOL    HW167421   0.963   7.298   9.873
88508SOL    HW267422   0.937   7.155   9.917
88509SOL     OW67423  13.500  11.360  13.838
88509SOL    HW167424  13.496  11.406  13.754
88509SOL    HW267425  13.570  11.295  13.827
88510SOL     OW67426   4.761   1.557   7.565
88510SOL    HW167427   4.711   1.629   7.526
88510SOL    HW267428   4.815   1.599   7.633
88511SOL     OW67429   6.623   1.939  12.533
88511SOL    HW167430   6.567   1.931  12.455
88511SOL    HW267431   6.562   1.933  12.606
88512SOL     OW67432  12.212  10.159   5.462
88512SOL    HW167433  12.237  10.177   5.371
88512SOL    HW267434  12.285  10.108   5.497
88513SOL     OW67435  10.140  13.602   1.654
88513SOL    HW167436  10.219  13.573   1.699
88513SOL    HW267437  10.081  13.526   1.658
88514SOL     OW67438   6.267  11.386   2.223
88514SOL    HW167439   6.354  11.362   2.189
88514SOL    HW267440   6.256  11.478   2.198
88515SOL     OW67441  10.415   5.447   5.096
88515SOL    HW167442  10.360   5.385   5.143
88515SOL    HW267443  10.362   5.474   5.021
88516SOL     OW67444  10.737   2.840   0.440
88516SOL    HW167445  10.797   2.914   0.448
88516SOL    HW267446  10.687   2.841   0.522
88517SOL     OW67447  13.026  11.967   2.172
88517SOL    HW167448  12.952  11.987   2.114
88517SOL    HW267449  13.066  12.052   2.191
88518SOL     OW67450   3.102   0.143  10.581
88518SOL    HW167451   3.082   0.065  10.633
88518SOL    HW267452   3.093   0.114  10.490
88519SOL     OW67453   8.504  14.658  13.186
88519SOL    HW167454   8.556  14.588  13.145
88519SOL    HW267455   8.415  14.622  13.191
88520SOL     OW67456  13.388   8.688   8.955
88520SOL    HW167457  13.475   8.730   8.955
88520SOL    HW267458  13.327   8.761   8.955
88521SOL     OW67459  13.519   2.575   9.944
88521SOL    HW167460  13.587   2.570  10.012
88521SOL    HW267461  13.547   2.647   9.888
88522SOL     OW67462   0.354   0.699   8.786
88522SOL    HW167463   0.353   0.678   8.879
88522SOL    HW267464   0.421   0.641   8.749
88523SOL     OW67465   5.535   4.640   4.156
88523SOL    HW167466   5.471   4.570   4.141
88523SOL    HW267467   5.591   4.638   4.079
88524SOL     OW67468  12.260   9.014   8.209
88524SOL    HW167469  12.216   9.033   8.292
88524SOL    HW267470  12.302   8.929   8.223
88525SOL     OW67471  11.393   4.076   1.350
88525SOL    HW167472  11.337   4.150   1.373
88525SOL    HW267473  11.460   4.075   1.419
88526SOL     OW67474  13.920   8.385  11.873
88526SOL    HW167475  13.885   8.367  11.960
88526SOL    HW267476  13.943   8.478  11.875
88527SOL     OW67477   3.714  13.730   3.603
88527SOL    HW167478   3.637  13.731   3.546
88527SOL    HW267479   3.728  13.821   3.628
88528SOL     OW67480   2.944  11.115  12.239
88528SOL    HW167481   2.984  11.144  12.321
88528SOL    HW267482   2.936  11.195  12.187
88529SOL     OW67483   1.770   4.001   9.349
88529SOL    HW167484   1.819   4.062   9.295
88529SOL    HW267485   1.740   3.933   9.289
88530SOL     OW67486  14.412   6.634   7.682
88530SOL    HW167487  14.435   6.569   7.749
88530SOL    HW267488  14.388   6.712   7.732
88531SOL     OW67489   4.163  14.720   3.686
88531SOL    HW167490   4.257  14.711   3.670
88531SOL    HW267491   4.139  14.640   3.734
88532SOL     OW67492   9.184   6.020   7.099
88532SOL    HW167493   9.103   6.023   7.048
88532SOL    HW267494   9.217   5.931   7.086
88533SOL     OW67495  11.061   4.123   4.376
88533SOL    HW167496  11.037   4.154   4.463
88533SOL    HW267497  11.048   4.199   4.318
88534SOL     OW67498   1.692   1.050  13.597
88534SOL    HW167499   1.689   1.107  13.520
88534SOL    HW267500   1.729   0.968  13.564
88535SOL     OW67501   2.400   5.054   1.934
88535SOL    HW167502   2.480   5.093   1.969
88535SOL    HW267503   2.425   4.964   1.913
88536SOL     OW67504   3.925   6.772   5.536
88536SOL    HW167505   3.923   6.683   5.501
88536SOL    HW267506   3.986   6.768   5.609
88537SOL     OW67507   5.221  12.533  12.963
88537SOL    HW167508   5.131  12.513  12.936
88537SOL    HW267509   5.219  12.533  13.058
88538SOL     OW67510   7.541   2.968   8.220
88538SOL    HW167511   7.510   3.000   8.136
88538SOL    HW267512   7.461   2.947   8.269
88539SOL     OW67513   8.480   4.971   1.310
88539SOL    HW167514   8.473   4.922   1.392
88539SOL    HW267515   8.453   5.060   1.333
88540SOL     OW67516  11.166   0.451   9.507
88540SOL    HW167517  11.080   0.411   9.522
88540SOL    HW267518  11.149   0.519   9.442
88541SOL     OW67519  14.349   1.681  14.014
88541SOL    HW167520  14.306   1.652  13.933
88541SOL    HW267521  14.279   1.682  14.079
88542SOL     OW67522   7.872   4.878   8.720
88542SOL    HW167523   7.777   4.872   8.731
88542SOL    HW267524   7.898   4.793   8.684
88543SOL     OW67525   0.927  11.080   3.321
88543SOL    HW167526   0.989  11.099   3.392
88543SOL    HW267527   0.982  11.047   3.250
88544SOL     OW67528  12.190  13.740   6.058
88544SOL    HW167529  12.167  13.833   6.053
88544SOL    HW267530  12.205  13.724   6.152
88545SOL     OW67531   2.590   5.095   1.656
88545SOL    HW167532   2.564   5.166   1.598
88545SOL    HW267533   2.550   5.117   1.740
88546SOL     OW67534   5.552   7.848  10.705
88546SOL    HW167535   5.543   7.943  10.704
88546SOL    HW267536   5.589   7.825  10.620
88547SOL     OW67537   0.796   6.671   9.740
88547SOL    HW167538   0.727   6.736   9.724
88547SOL    HW267539   0.878   6.719   9.726
88548SOL     OW67540   4.178  11.108   1.070
88548SOL    HW167541   4.093  11.069   1.048
88548SOL    HW267542   4.227  11.036   1.110
88549SOL     OW67543   3.084  10.596   4.309
88549SOL    HW167544   3.092  10.686   4.278
88549SOL    HW267545   3.040  10.550   4.238
88550SOL     OW67546   9.334  10.358  13.645
88550SOL    HW167547   9.290  10.306  13.712
88550SOL    HW267548   9.276  10.432  13.630
88551SOL     OW67549   2.553   3.761   8.462
88551SOL    HW167550   2.549   3.839   8.406
88551SOL    HW267551   2.502   3.695   8.415
88552SOL     OW67552   8.809   8.126   7.752
88552SOL    HW167553   8.821   8.117   7.658
88552SOL    HW267554   8.877   8.070   7.791
88553SOL     OW67555   0.334   7.298   9.970
88553SOL    HW167556   0.245   7.304   9.934
88553SOL    HW267557   0.323   7.318  10.063
88554SOL     OW67558   9.114   0.193   8.810
88554SOL    HW167559   9.032   0.189   8.860
88554SOL    HW267560   9.086   0.189   8.719
88555SOL     OW67561   6.758  10.157  13.058
88555SOL    HW167562   6.764  10.227  12.992
88555SOL    HW267563   6.773  10.201  13.141
88556SOL     OW67564   0.775   5.925   5.714
88556SOL    HW167565   0.757   5.845   5.665
88556SOL    HW267566   0.703   5.984   5.690
88557SOL     OW67567   4.521  13.962   7.796
88557SOL    HW167568   4.548  13.949   7.705
88557SOL    HW267569   4.436  14.006   7.790
88558SOL     OW67570  12.452   0.219   4.467
88558SOL    HW167571  12.507   0.158   4.418
88558SOL    HW267572  12.513   0.279   4.508
88559SOL     OW67573  12.996   0.080   0.996
88559SOL    HW167574  13.072   0.103   1.050
88559SOL    HW267575  12.951   0.012   1.047
88560SOL     OW67576  13.259  10.591  12.921
88560SOL    HW167577  13.339  10.638  12.946
88560SOL    HW267578  13.198  10.607  12.993
88561SOL     OW67579  11.959  12.102  11.496
88561SOL    HW167580  11.908  12.160  11.553
88561SOL    HW267581  11.963  12.147  11.412
88562SOL     OW67582  12.999   8.533   5.230
88562SOL    HW167583  13.095   8.543   5.230
88562SOL    HW267584  12.985   8.439   5.222
88563SOL     OW67585   2.631  13.955  10.995
88563SOL    HW167586   2.722  13.958  11.024
88563SOL    HW267587   2.595  14.039  11.024
88564SOL     OW67588   7.795   0.485   2.777
88564SOL    HW167589   7.858   0.448   2.839
88564SOL    HW267590   7.715   0.435   2.791
88565SOL     OW67591   4.637   7.711  13.151
88565SOL    HW167592   4.562   7.759  13.186
88565SOL    HW267593   4.702   7.779  13.132
88566SOL     OW67594  12.574   5.915   9.050
88566SOL    HW167595  12.550   5.838   9.101
88566SOL    HW267596  12.615   5.880   8.971
88567SOL     OW67597  12.777  12.460  14.098
88567SOL    HW167598  12.746  12.388  14.044
88567SOL    HW267599  12.858  12.489  14.056
88568SOL     OW67600  11.521  10.752   5.209
88568SOL    HW167601  11.448  10.759   5.147
88568SOL    HW267602  11.597  10.730   5.154
88569SOL     OW67603  14.439   1.745   4.326
88569SOL    HW167604  14.439   1.811   4.257
88569SOL    HW267605  14.513   1.768   4.382
88570SOL     OW67606   9.296   6.648   5.585
88570SOL    HW167607   9.207   6.649   5.550
88570SOL    HW267608   9.292   6.699   5.666
88571SOL     OW67609   1.681   9.302  11.942
88571SOL    HW167610   1.759   9.288  11.889
88571SOL    HW267611   1.612   9.254  11.896
88572SOL     OW67612  12.360   0.617   6.120
88572SOL    HW167613  12.274   0.644   6.089
88572SOL    HW267614  12.377   0.673   6.196
88573SOL     OW67615   2.131   8.393   9.970
88573SOL    HW167616   2.080   8.314   9.953
88573SOL    HW267617   2.187   8.403   9.893
88574SOL     OW67618   9.010   8.625   8.066
88574SOL    HW167619   9.061   8.702   8.092
88574SOL    HW267620   8.922   8.643   8.097
88575SOL     OW67621   3.796   3.764   7.262
88575SOL    HW167622   3.757   3.682   7.294
88575SOL    HW267623   3.857   3.736   7.194
88576SOL     OW67624   0.195  14.404  14.606
88576SOL    HW167625   0.279  14.449  14.620
88576SOL    HW267626   0.203  14.323  14.655
88577SOL     OW67627   0.742   6.674  13.604
88577SOL    HW167628   0.800   6.630  13.666
88577SOL    HW267629   0.654   6.653  13.635
88578SOL     OW67630  14.580  11.520   0.461
88578SOL    HW167631  14.631  11.439   0.461
88578SOL    HW267632  14.639  11.586   0.424
88579SOL     OW67633  14.027   2.761  11.252
88579SOL    HW167634  14.065   2.740  11.166
88579SOL    HW267635  14.084   2.717  11.315
88580SOL     OW67636   6.674   5.304   9.200
88580SOL    HW167637   6.766   5.280   9.203
88580SOL    HW267638   6.664   5.349   9.116
88581SOL     OW67639   2.345   5.038  12.741
88581SOL    HW167640   2.283   4.966  12.742
88581SOL    HW267641   2.342   5.072  12.652
88582SOL     OW67642  13.772   7.148  12.014
88582SOL    HW167643  13.864   7.151  11.987
88582SOL    HW267644  13.773   7.174  12.106
88583SOL     OW67645   8.130   4.491  11.734
88583SOL    HW167646   8.213   4.464  11.696
88583SOL    HW267647   8.152   4.560  11.796
88584SOL     OW67648   0.102   4.082   4.653
88584SOL    HW167649   0.144   3.995   4.657
88584SOL    HW267650   0.112   4.108   4.561
88585SOL     OW67651   7.293  10.003   2.645
88585SOL    HW167652   7.229   9.938   2.674
88585SOL    HW267653   7.284  10.075   2.706
88586SOL     OW67654  13.244   2.398   2.842
88586SOL    HW167655  13.243   2.348   2.924
88586SOL    HW267656  13.334   2.427   2.833
88587SOL     OW67657   9.095   3.201   5.095
88587SOL    HW167658   9.106   3.267   5.027
88587SOL    HW267659   9.057   3.248   5.168
88588SOL     OW67660   9.806  10.565   5.503
88588SOL    HW167661   9.836  10.637   5.448
88588SOL    HW267662   9.886  10.522   5.533
88589SOL     OW67663   2.283   7.901   9.584
88589SOL    HW167664   2.351   7.947   9.634
88589SOL    HW267665   2.201   7.940   9.614
88590SOL     OW67666   4.332   5.501   8.575
88590SOL    HW167667   4.374   5.557   8.640
88590SOL    HW267668   4.319   5.557   8.499
88591SOL     OW67669  13.300   8.216  12.834
88591SOL    HW167670  13.359   8.143  12.815
88591SOL    HW267671  13.243   8.221  12.757
88592SOL     OW67672   7.077  13.394  13.016
88592SOL    HW167673   7.098  13.312  12.973
88592SOL    HW267674   7.077  13.459  12.945
88593SOL     OW67675   0.338  10.889  14.678
88593SOL    HW167676   0.321  10.835  14.755
88593SOL    HW267677   0.388  10.832  14.619
88594SOL     OW67678  12.425  11.634   5.920
88594SOL    HW167679  12.456  11.625   5.830
88594SOL    HW267680  12.406  11.727   5.930
88595SOL     OW67681   1.302  10.904  10.290
88595SOL    HW167682   1.364  10.892  10.219
88595SOL    HW267683   1.334  10.847  10.360
88596SOL     OW67684   0.161   2.646  12.603
88596SOL    HW167685   0.239   2.619  12.555
88596SOL    HW267686   0.132   2.567  12.648
88597SOL     OW67687   9.378  11.305  10.889
88597SOL    HW167688   9.413  11.286  10.976
88597SOL    HW267689   9.370  11.219  10.847
88598SOL     OW67690  12.735  12.624  10.983
88598SOL    HW167691  12.719  12.629  11.077
88598SOL    HW267692  12.671  12.684  10.945
88599SOL     OW67693   3.381   4.259  14.388
88599SOL    HW167694   3.389   4.194  14.319
88599SOL    HW267695   3.461   4.312  14.381
88600SOL     OW67696   8.084   5.451   9.630
88600SOL    HW167697   8.075   5.375   9.572
88600SOL    HW267698   7.996   5.488   9.633
88601SOL     OW67699   0.302   8.539   0.730
88601SOL    HW167700   0.299   8.531   0.825
88601SOL    HW267701   0.220   8.499   0.700
88602SOL     OW67702   7.185   4.600  12.088
88602SOL    HW167703   7.269   4.575  12.127
88602SOL    HW267704   7.126   4.614  12.162
88603SOL     OW67705   6.713  12.406   0.669
88603SOL    HW167706   6.740  12.440   0.754
88603SOL    HW267707   6.719  12.480   0.609
88604SOL     OW67708   6.732   4.819   6.841
88604SOL    HW167709   6.744   4.880   6.768
88604SOL    HW267710   6.650   4.848   6.882
88605SOL     OW67711   5.221   0.946   0.942
88605SOL    HW167712   5.282   1.019   0.955
88605SOL    HW267713   5.167   0.973   0.868
88606SOL     OW67714  12.641   4.904  11.115
88606SOL    HW167715  12.569   4.861  11.069
88606SOL    HW267716  12.700   4.834  11.141
88607SOL     OW67717  14.438   4.163   6.724
88607SOL    HW167718  14.405   4.197   6.807
88607SOL    HW267719  14.500   4.230   6.694
88608SOL     OW67720  10.840   5.985   6.561
88608SOL    HW167721  10.865   6.039   6.636
88608SOL    HW267722  10.765   6.032   6.522
88609SOL     OW67723   1.750   6.790  10.187
88609SOL    HW167724   1.776   6.836  10.266
88609SOL    HW267725   1.660   6.819  10.171
88610SOL     OW67726   1.023  12.415   2.192
88610SOL    HW167727   1.005  12.322   2.205
88610SOL    HW267728   1.012  12.454   2.278
88611SOL     OW67729   8.732   4.890   5.000
88611SOL    HW167730   8.747   4.966   4.944
88611SOL    HW267731   8.764   4.918   5.086
88612SOL     OW67732   3.137   8.149   2.198
88612SOL    HW167733   3.219   8.101   2.205
88612SOL    HW267734   3.134   8.178   2.106
88613SOL     OW67735   0.142   9.830   7.998
88613SOL    HW167736   0.113   9.813   8.087
88613SOL    HW267737   0.111   9.755   7.947
88614SOL     OW67738  13.647   5.375   7.979
88614SOL    HW167739  13.642   5.302   7.918
88614SOL    HW267740  13.715   5.432   7.943
88615SOL     OW67741  14.568  10.429  13.649
88615SOL    HW167742  14.624  10.416  13.726
88615SOL    HW267743  14.590  10.516  13.618
88616SOL     OW67744  11.025   7.356  12.371
88616SOL    HW167745  10.989   7.331  12.455
88616SOL    HW267746  11.040   7.273  12.325
88617SOL     OW67747  13.659   7.391   8.116
88617SOL    HW167748  13.684   7.299   8.120
88617SOL    HW267749  13.668   7.415   8.024
88618SOL     OW67750  12.837   4.868  13.180
88618SOL    HW167751  12.782   4.838  13.108
88618SOL    HW267752  12.922   4.884  13.140
88619SOL     OW67753   0.962  14.506  13.521
88619SOL    HW167754   0.868  14.525  13.522
88619SOL    HW267755   1.004  14.592  13.528
88620SOL     OW67756  10.963   6.999  13.835
88620SOL    HW167757  10.997   6.974  13.749
88620SOL    HW267758  10.937   7.090  13.825
88621SOL     OW67759  11.766  13.684   5.749
88621SOL    HW167760  11.754  13.776   5.771
88621SOL    HW267761  11.837  13.655   5.806
88622SOL     OW67762   6.599  13.868   2.109
88622SOL    HW167763   6.648  13.895   2.031
88622SOL    HW267764   6.667  13.851   2.174
88623SOL     OW67765   1.039   8.614   0.025
88623SOL    HW167766   1.130   8.604  14.868
88623SOL    HW267767   0.997   8.667  14.830
88624SOL     OW67768   5.926   0.366   0.919
88624SOL    HW167769   5.966   0.425   0.855
88624SOL    HW267770   5.867   0.311   0.868
88625SOL     OW67771   3.399   0.925   5.929
88625SOL    HW167772   3.426   0.951   6.017
88625SOL    HW267773   3.441   0.840   5.915
88626SOL     OW67774   9.758   6.312   3.420
88626SOL    HW167775   9.833   6.344   3.370
88626SOL    HW267776   9.681   6.348   3.375
88627SOL     OW67777   4.679   5.588   6.424
88627SOL    HW167778   4.650   5.679   6.424
88627SOL    HW267779   4.747   5.584   6.491
88628SOL     OW67780   6.920   9.619   8.634
88628SOL    HW167781   6.825   9.615   8.644
88628SOL    HW267782   6.949   9.527   8.640
88629SOL     OW67783  11.447  12.886  12.358
88629SOL    HW167784  11.495  12.882  12.275
88629SOL    HW267785  11.445  12.795  12.389
88630SOL     OW67786  12.938  13.959  10.794
88630SOL    HW167787  13.023  13.922  10.771
88630SOL    HW267788  12.958  14.027  10.859
88631SOL     OW67789   9.475  10.081  13.301
88631SOL    HW167790   9.380  10.068  13.307
88631SOL    HW267791   9.488  10.170  13.332
88632SOL     OW67792   8.907   9.589   3.087
88632SOL    HW167793   8.997   9.583   3.057
88632SOL    HW267794   8.856   9.611   3.009
88633SOL     OW67795  12.390   9.315  12.239
88633SOL    HW167796  12.343   9.340  12.159
88633SOL    HW267797  12.446   9.242  12.212
88634SOL     OW67798   6.868   2.698   8.796
88634SOL    HW167799   6.874   2.721   8.888
88634SOL    HW267800   6.926   2.622   8.786
88635SOL     OW67801  13.610   4.805   7.691
88635SOL    HW167802  13.592   4.778   7.781
88635SOL    HW267803  13.604   4.724   7.641
88636SOL     OW67804   0.374  11.801   2.553
88636SOL    HW167805   0.453  11.826   2.602
88636SOL    HW267806   0.398  11.815   2.461
88637SOL     OW67807   5.424   2.252   2.998
88637SOL    HW167808   5.473   2.197   2.937
88637SOL    HW267809   5.341   2.269   2.953
88638SOL     OW67810  11.071  12.952   1.593
88638SOL    HW167811  11.153  12.911   1.565
88638SOL    HW267812  11.083  12.967   1.687
88639SOL     OW67813   1.513   1.652  12.575
88639SOL    HW167814   1.476   1.711  12.509
88639SOL    HW267815   1.437   1.612  12.617
88640SOL     OW67816   7.438   5.781   5.167
88640SOL    HW167817   7.421   5.849   5.102
88640SOL    HW267818   7.470   5.829   5.243
88641SOL     OW67819   3.136   5.640  10.420
88641SOL    HW167820   3.210   5.620  10.477
88641SOL    HW267821   3.160   5.605  10.335
88642SOL     OW67822  13.424   8.070   8.614
88642SOL    HW167823  13.485   8.136   8.581
88642SOL    HW267824  13.396   8.022   8.536
88643SOL     OW67825   8.556  14.758   3.070
88643SOL    HW167826   8.580  14.739   3.161
88643SOL    HW267827   8.495  14.831   3.076
88644SOL     OW67828   5.103   8.762   0.716
88644SOL    HW167829   5.184   8.811   0.731
88644SOL    HW267830   5.066   8.800   0.636
88645SOL     OW67831   2.496  13.561   0.918
88645SOL    HW167832   2.503  13.656   0.916
88645SOL    HW267833   2.585  13.529   0.905
88646SOL     OW67834  11.622   4.585   2.075
88646SOL    HW167835  11.714   4.566   2.092
88646SOL    HW267836  11.624   4.668   2.026
88647SOL     OW67837  14.804   8.462   9.339
88647SOL    HW167838  14.810   8.538   9.281
88647SOL    HW267839  14.823   8.387   9.283
88648SOL     OW67840   7.362   7.555   5.112
88648SOL    HW167841   7.437   7.544   5.169
88648SOL    HW267842   7.394   7.609   5.040
88649SOL     OW67843   2.261  14.094   8.046
88649SOL    HW167844   2.210  14.038   8.106
88649SOL    HW267845   2.338  14.119   8.097
88650SOL     OW67846  10.995   7.746   6.185
88650SOL    HW167847  10.958   7.733   6.273
88650SOL    HW267848  10.918   7.757   6.129
88651SOL     OW67849   7.725  14.613  13.204
88651SOL    HW167850   7.682  14.527  13.202
88651SOL    HW267851   7.658  14.672  13.237
88652SOL     OW67852   4.395  13.722  11.868
88652SOL    HW167853   4.338  13.729  11.792
88652SOL    HW267854   4.387  13.806  11.913
88653SOL     OW67855   6.048   7.204  14.742
88653SOL    HW167856   5.990   7.227  14.814
88653SOL    HW267857   5.994   7.213  14.663
88654SOL     OW67858   3.713   4.024   7.689
88654SOL    HW167859   3.791   4.079   7.696
88654SOL    HW267860   3.706   4.005   7.595
88655SOL     OW67861  14.808  11.963  12.604
88655SOL    HW167862  14.858  11.903  12.659
88655SOL    HW267863  14.837  11.944  12.515
88656SOL     OW67864   4.813   3.055  12.571
88656SOL    HW167865   4.876   3.090  12.508
88656SOL    HW267866   4.841   2.966  12.588
88657SOL     OW67867   9.390  11.101   8.294
88657SOL    HW167868   9.360  11.061   8.375
88657SOL    HW267869   9.478  11.065   8.281
88658SOL     OW67870  10.094  13.629   9.367
88658SOL    HW167871  10.087  13.724   9.378
88658SOL    HW267872  10.010  13.596   9.397
88659SOL     OW67873   8.038   0.989   0.853
88659SOL    HW167874   8.091   0.954   0.925
88659SOL    HW267875   7.968   0.925   0.841
88660SOL     OW67876  13.067  12.775   8.239
88660SOL    HW167877  13.140  12.724   8.275
88660SOL    HW267878  13.024  12.715   8.177
88661SOL     OW67879  14.629  11.235   0.624
88661SOL    HW167880  14.558  11.274   0.676
88661SOL    HW267881  14.585  11.173   0.566
88662SOL     OW67882  14.486   3.319  13.067
88662SOL    HW167883  14.427   3.389  13.037
88662SOL    HW267884  14.571   3.342  13.030
88663SOL     OW67885  11.713   9.004  10.806
88663SOL    HW167886  11.767   9.076  10.840
88663SOL    HW267887  11.665   9.042  10.733
88664SOL     OW67888   0.006   7.817   3.862
88664SOL    HW167889   0.089   7.770   3.865
88664SOL    HW267890  14.813   7.753   3.891
88665SOL     OW67891   8.737   8.614   3.418
88665SOL    HW167892   8.645   8.638   3.423
88665SOL    HW267893   8.755   8.607   3.324
88666SOL     OW67894   1.076   5.968  13.078
88666SOL    HW167895   0.982   5.981  13.096
88666SOL    HW267896   1.087   5.873  13.078
88667SOL     OW67897  11.134  14.313   4.804
88667SOL    HW167898  11.083  14.394   4.797
88667SOL    HW267899  11.141  14.280   4.715
88668SOL     OW67900   5.999   7.773   0.484
88668SOL    HW167901   6.033   7.754   0.572
88668SOL    HW267902   5.940   7.847   0.497
88669SOL     OW67903  11.576   3.246  14.558
88669SOL    HW167904  11.499   3.301  14.541
88669SOL    HW267905  11.639   3.271  14.490
88670SOL     OW67906  12.578   7.348  14.071
88670SOL    HW167907  12.584   7.284  14.000
88670SOL    HW267908  12.522   7.305  14.136
88671SOL     OW67909   7.124   4.589   4.145
88671SOL    HW167910   7.134   4.515   4.205
88671SOL    HW267911   7.058   4.561   4.082
88672SOL     OW67912   2.948   1.957   4.360
88672SOL    HW167913   2.878   1.892   4.362
88672SOL    HW267914   2.964   1.972   4.267
88673SOL     OW67915   6.079   3.192   3.639
88673SOL    HW167916   6.019   3.222   3.707
88673SOL    HW267917   6.023   3.179   3.562
88674SOL     OW67918   6.954   1.839   3.403
88674SOL    HW167919   6.968   1.754   3.361
88674SOL    HW267920   7.027   1.893   3.373
88675SOL     OW67921   3.332   9.002   0.327
88675SOL    HW167922   3.277   8.961   0.395
88675SOL    HW267923   3.270   9.046   0.269
88676SOL     OW67924   6.928  13.379   5.966
88676SOL    HW167925   6.893  13.326   6.037
88676SOL    HW267926   7.008  13.333   5.939
88677SOL     OW67927  14.272   1.938   4.504
88677SOL    HW167928  14.260   1.885   4.583
88677SOL    HW267929  14.290   1.874   4.435
88678SOL     OW67930  13.865   8.276  13.311
88678SOL    HW167931  13.827   8.203  13.360
88678SOL    HW267932  13.839   8.259  13.220
88679SOL     OW67933   0.825   4.939   7.524
88679SOL    HW167934   0.758   5.006   7.515
88679SOL    HW267935   0.846   4.938   7.617
88680SOL     OW67936   7.342   8.284  11.045
88680SOL    HW167937   7.330   8.300  11.139
88680SOL    HW267938   7.310   8.195  11.031
88681SOL     OW67939   7.591   9.091   4.674
88681SOL    HW167940   7.623   9.162   4.729
88681SOL    HW267941   7.506   9.122   4.641
88682SOL     OW67942   4.949  11.201  11.114
88682SOL    HW167943   4.856  11.181  11.109
88682SOL    HW267944   4.954  11.296  11.103
88683SOL     OW67945   9.129   5.837   2.037
88683SOL    HW167946   9.137   5.890   2.116
88683SOL    HW267947   9.215   5.840   1.996
88684SOL     OW67948   5.887   0.941   1.374
88684SOL    HW167949   5.943   0.948   1.296
88684SOL    HW267950   5.798   0.953   1.340
88685SOL     OW67951   8.569   1.336   4.735
88685SOL    HW167952   8.497   1.312   4.678
88685SOL    HW267953   8.572   1.268   4.802
88686SOL     OW67954   6.711  11.622   4.716
88686SOL    HW167955   6.766  11.590   4.787
88686SOL    HW267956   6.628  11.645   4.758
88687SOL     OW67957   9.313   2.610  14.349
88687SOL    HW167958   9.253   2.631  14.420
88687SOL    HW267959   9.334   2.517  14.363
88688SOL     OW67960  10.108   6.509   7.977
88688SOL    HW167961  10.110   6.490   8.070
88688SOL    HW267962  10.127   6.425   7.935
88689SOL     OW67963  14.000  12.348  11.910
88689SOL    HW167964  13.953  12.265  11.910
88689SOL    HW267965  14.049  12.348  11.991
88690SOL     OW67966   7.557  14.784  14.372
88690SOL    HW167967   7.513  14.704  14.341
88690SOL    HW267968   7.599  14.820  14.293
88691SOL     OW67969   7.963   5.779   4.883
88691SOL    HW167970   7.990   5.865   4.853
88691SOL    HW267971   7.882   5.761   4.835
88692SOL     OW67972  14.019  14.708   1.539
88692SOL    HW167973  14.035  14.675   1.627
88692SOL    HW267974  14.036  14.802   1.544
88693SOL     OW67975   8.971  10.784   0.251
88693SOL    HW167976   9.065  10.768   0.262
88693SOL    HW267977   8.951  10.754   0.163
88694SOL     OW67978  10.967  13.129   3.310
88694SOL    HW167979  11.006  13.125   3.223
88694SOL    HW267980  10.905  13.202   3.305
88695SOL     OW67981   6.610   3.683  10.158
88695SOL    HW167982   6.554   3.667  10.081
88695SOL    HW267983   6.557   3.738  10.215
88696SOL     OW67984   4.704   1.887   7.759
88696SOL    HW167985   4.760   1.856   7.687
88696SOL    HW267986   4.647   1.813   7.779
88697SOL     OW67987  12.835   6.935  11.970
88697SOL    HW167988  12.746   6.932  11.937
88697SOL    HW267989  12.878   6.859  11.932
88698SOL     OW67990  12.698  14.006  13.261
88698SOL    HW167991  12.789  14.015  13.290
88698SOL    HW267992  12.705  13.982  13.169
88699SOL     OW67993   0.286   5.402   6.261
88699SOL    HW167994   0.331   5.379   6.342
88699SOL    HW267995   0.273   5.318   6.216
88700SOL     OW67996   5.595   0.333   2.246
88700SOL    HW167997   5.557   0.246   2.258
88700SOL    HW267998   5.658   0.322   2.175
88701SOL     OW67999  11.071   0.344   5.894
88701SOL    HW168000  10.988   0.366   5.851
88701SOL    HW268001  11.062   0.380   5.982
88702SOL     OW68002  10.729   9.656  10.058
88702SOL    HW168003  10.804   9.714  10.042
88702SOL    HW268004  10.710   9.618   9.973
88703SOL     OW68005  12.140   6.254  13.743
88703SOL    HW168006  12.236   6.253  13.742
88703SOL    HW268007  12.118   6.337  13.785
88704SOL     OW68008   5.247  10.859   9.922
88704SOL    HW168009   5.296  10.938   9.899
88704SOL    HW268010   5.298  10.787   9.883
88705SOL     OW68011   7.363  11.096   7.887
88705SOL    HW168012   7.402  11.177   7.918
88705SOL    HW268013   7.328  11.055   7.966
88706SOL     OW68014   4.644  12.669   0.943
88706SOL    HW168015   4.593  12.609   0.997
88706SOL    HW268016   4.696  12.611   0.886
88707SOL     OW68017  13.004  11.362  11.688
88707SOL    HW168018  12.925  11.415  11.678
88707SOL    HW268019  13.052  11.374  11.607
88708SOL     OW68020  11.072   7.852   1.108
88708SOL    HW168021  11.148   7.845   1.164
88708SOL    HW268022  11.007   7.900   1.159
88709SOL     OW68023   8.151   0.473  10.005
88709SOL    HW168024   8.209   0.545  10.032
88709SOL    HW268025   8.097   0.455  10.082
88710SOL     OW68026   1.163   9.179   6.870
88710SOL    HW168027   1.075   9.215   6.857
88710SOL    HW268028   1.200   9.173   6.783
88711SOL     OW68029  10.860   3.960   2.754
88711SOL    HW168030  10.950   3.928   2.744
88711SOL    HW268031  10.863   4.050   2.722
88712SOL     OW68032   3.236  11.654  10.451
88712SOL    HW168033   3.294  11.719  10.412
88712SOL    HW268034   3.150  11.698  10.455
88713SOL     OW68035   5.543   1.612  13.178
88713SOL    HW168036   5.485   1.644  13.246
88713SOL    HW268037   5.491   1.548  13.129
88714SOL     OW68038  14.042   2.015   2.334
88714SOL    HW168039  13.991   1.960   2.274
88714SOL    HW268040  14.055   2.097   2.287
88715SOL     OW68041  12.873   5.709   8.331
88715SOL    HW168042  12.941   5.712   8.263
88715SOL    HW268043  12.922   5.699   8.413
88716SOL     OW68044   9.838   3.250  14.557
88716SOL    HW168045   9.752   3.292  14.566
88716SOL    HW268046   9.891   3.313  14.508
88717SOL     OW68047  13.530  12.035   5.806
88717SOL    HW168048  13.468  12.064   5.873
88717SOL    HW268049  13.479  11.974   5.752
88718SOL     OW68050   4.318   2.786   8.610
88718SOL    HW168051   4.280   2.787   8.522
88718SOL    HW268052   4.326   2.693   8.631
88719SOL     OW68053  11.679   9.031   2.940
88719SOL    HW168054  11.587   9.037   2.914
88719SOL    HW268055  11.714   8.958   2.889
88720SOL     OW68056   1.831  12.344  10.780
88720SOL    HW168057   1.795  12.432  10.793
88720SOL    HW268058   1.795  12.316  10.696
88721SOL     OW68059   7.237   7.125  14.343
88721SOL    HW168060   7.285   7.177  14.279
88721SOL    HW268061   7.293   7.124  14.421
88722SOL     OW68062  10.475   1.123   9.946
88722SOL    HW168063  10.389   1.127   9.905
88722SOL    HW268064  10.462   1.160  10.033
88723SOL     OW68065  12.832   5.360   6.031
88723SOL    HW168066  12.924   5.353   6.008
88723SOL    HW268067  12.817   5.291   6.095
88724SOL     OW68068   8.906   5.008   8.530
88724SOL    HW168069   8.964   5.081   8.552
88724SOL    HW268070   8.949   4.965   8.457
88725SOL     OW68071   9.152   8.194   0.992
88725SOL    HW168072   9.243   8.218   0.975
88725SOL    HW268073   9.101   8.260   0.946
88726SOL     OW68074   9.047  12.095   5.099
88726SOL    HW168075   9.088  12.029   5.154
88726SOL    HW268076   8.970  12.125   5.149
88727SOL     OW68077  11.252   6.532   7.308
88727SOL    HW168078  11.272   6.625   7.304
88727SOL    HW268079  11.258   6.503   7.217
88728SOL     OW68080  12.589   4.342   6.063
88728SOL    HW168081  12.602   4.428   6.024
88728SOL    HW268082  12.678   4.310   6.080
88729SOL     OW68083   8.009   4.368   4.682
88729SOL    HW168084   7.944   4.403   4.742
88729SOL    HW268085   7.988   4.275   4.676
88730SOL     OW68086   6.523  12.138   8.278
88730SOL    HW168087   6.537  12.058   8.227
88730SOL    HW268088   6.432  12.132   8.306
88731SOL     OW68089   0.912  14.495   9.809
88731SOL    HW168090   0.900  14.441   9.731
88731SOL    HW268091   0.828  14.491   9.855
88732SOL     OW68092  10.951  13.095   6.252
88732SOL    HW168093  10.995  13.040   6.188
88732SOL    HW268094  10.956  13.045   6.334
88733SOL     OW68095   6.144   8.488   7.259
88733SOL    HW168096   6.154   8.459   7.168
88733SOL    HW268097   6.076   8.431   7.295
88734SOL     OW68098   9.970   8.163   6.864
88734SOL    HW168099   9.905   8.118   6.917
88734SOL    HW268100   9.971   8.253   6.899
88735SOL     OW68101   7.835  11.755   4.900
88735SOL    HW168102   7.805  11.709   4.979
88735SOL    HW268103   7.833  11.688   4.832
88736SOL     OW68104  12.897   0.344   4.784
88736SOL    HW168105  12.905   0.437   4.807
88736SOL    HW268106  12.988   0.313   4.781
88737SOL     OW68107   6.401   7.935  11.337
88737SOL    HW168108   6.346   7.862  11.307
88737SOL    HW268109   6.339   8.006  11.352
88738SOL     OW68110   8.711   1.681   2.113
88738SOL    HW168111   8.758   1.724   2.042
88738SOL    HW268112   8.724   1.587   2.097
88739SOL     OW68113  11.338  12.594  10.556
88739SOL    HW168114  11.248  12.600  10.523
88739SOL    HW268115  11.376  12.680  10.536
88740SOL     OW68116   8.284  11.520  11.854
88740SOL    HW168117   8.356  11.583  11.852
88740SOL    HW268118   8.297  11.465  11.777
88741SOL     OW68119   3.110  13.016   1.734
88741SOL    HW168120   3.022  12.993   1.767
88741SOL    HW268121   3.106  13.111   1.722
88742SOL     OW68122  12.581   7.448  14.492
88742SOL    HW168123  12.675   7.457  14.504
88742SOL    HW268124  12.566   7.472  14.400
88743SOL     OW68125  14.150   4.321   3.256
88743SOL    HW168126  14.088   4.331   3.183
88743SOL    HW268127  14.200   4.242   3.234
88744SOL     OW68128   8.871   8.425   7.785
88744SOL    HW168129   8.843   8.460   7.870
88744SOL    HW268130   8.841   8.334   7.786
88745SOL     OW68131   3.540   2.204   8.876
88745SOL    HW168132   3.541   2.295   8.846
88745SOL    HW268133   3.468   2.164   8.828
88746SOL     OW68134  11.475   0.825   4.414
88746SOL    HW168135  11.395   0.779   4.389
88746SOL    HW268136  11.546   0.765   4.390
88747SOL     OW68137   2.776  14.470   6.918
88747SOL    HW168138   2.772  14.380   6.951
88747SOL    HW268139   2.841  14.467   6.847
88748SOL     OW68140   0.881  14.536   6.459
88748SOL    HW168141   0.962  14.585   6.448
88748SOL    HW268142   0.832  14.551   6.378
88749SOL     OW68143   4.458   3.684  13.234
88749SOL    HW168144   4.425   3.623  13.300
88749SOL    HW268145   4.451   3.636  13.152
88750SOL     OW68146  11.855  10.714   5.778
88750SOL    HW168147  11.770  10.674   5.759
88750SOL    HW268148  11.917  10.668   5.721
88751SOL     OW68149   7.787   1.907   0.663
88751SOL    HW168150   7.756   1.945   0.580
88751SOL    HW268151   7.786   1.980   0.724
88752SOL     OW68152  12.840  14.436   5.088
88752SOL    HW168153  12.923  14.482   5.075
88752SOL    HW268154  12.811  14.414   4.999
88753SOL     OW68155   9.897  11.251   0.892
88753SOL    HW168156   9.815  11.274   0.936
88753SOL    HW268157   9.884  11.161   0.863
88754SOL     OW68158   3.064  11.386   2.574
88754SOL    HW168159   3.140  11.436   2.606
88754SOL    HW268160   3.068  11.395   2.479
88755SOL     OW68161  11.306   9.942   7.824
88755SOL    HW168162  11.323   9.915   7.914
88755SOL    HW268163  11.326   9.865   7.771
88756SOL     OW68164   4.494   4.488   6.861
88756SOL    HW168165   4.527   4.541   6.788
88756SOL    HW268166   4.568   4.432   6.885
88757SOL     OW68167  13.134   5.765   9.542
88757SOL    HW168168  13.168   5.676   9.549
88757SOL    HW268169  13.171   5.798   9.460
88758SOL     OW68170   1.631   8.113  11.382
88758SOL    HW168171   1.570   8.186  11.390
88758SOL    HW268172   1.611   8.056  11.456
88759SOL     OW68173  13.486   1.860   7.309
88759SOL    HW168174  13.575   1.844   7.278
88759SOL    HW268175  13.451   1.927   7.250
88760SOL     OW68176   7.402   3.427   4.662
88760SOL    HW168177   7.339   3.382   4.719
88760SOL    HW268178   7.358   3.431   4.577
88761SOL     OW68179   5.506  12.999   6.122
88761SOL    HW168180   5.476  12.967   6.207
88761SOL    HW268181   5.464  12.941   6.059
88762SOL     OW68182  13.693  10.700  10.245
88762SOL    HW168183  13.679  10.609  10.272
88762SOL    HW268184  13.722  10.745  10.325
88763SOL     OW68185   8.546   6.800   2.532
88763SOL    HW168186   8.501   6.879   2.501
88763SOL    HW268187   8.639   6.821   2.525
88764SOL     OW68188   4.453  11.636  13.570
88764SOL    HW168189   4.384  11.575  13.596
88764SOL    HW268190   4.407  11.720  13.557
88765SOL     OW68191   8.059   5.544  14.844
88765SOL    HW168192   8.066   5.570  14.752
88765SOL    HW268193   7.980   5.489  14.848
88766SOL     OW68194   9.569   1.826   2.789
88766SOL    HW168195   9.519   1.790   2.863
88766SOL    HW268196   9.658   1.794   2.802
88767SOL     OW68197   5.374   6.400   2.432
88767SOL    HW168198   5.441   6.418   2.366
88767SOL    HW268199   5.313   6.342   2.388
88768SOL     OW68200   7.739   0.176   5.915
88768SOL    HW168201   7.703   0.232   5.846
88768SOL    HW268202   7.677   0.184   5.987
88769SOL     OW68203   3.581  12.757  11.698
88769SOL    HW168204   3.500  12.765  11.749
88769SOL    HW268205   3.649  12.740  11.763
88770SOL     OW68206   3.200   5.028   0.764
88770SOL    HW168207   3.281   5.015   0.815
88770SOL    HW268208   3.130   5.005   0.825
88771SOL     OW68209   4.088   9.325  13.166
88771SOL    HW168210   4.135   9.408  13.179
88771SOL    HW268211   4.071   9.321  13.072
88772SOL     OW68212   0.322   3.677   2.540
88772SOL    HW168213   0.410   3.688   2.576
88772SOL    HW268214   0.286   3.602   2.587
88773SOL     OW68215   2.691   4.636   1.211
88773SOL    HW168216   2.604   4.641   1.171
88773SOL    HW268217   2.678   4.580   1.288
88774SOL     OW68218   4.250  10.919   7.095
88774SOL    HW168219   4.159  10.947   7.090
88774SOL    HW268220   4.247  10.824   7.086
88775SOL     OW68221   8.978   1.679   2.811
88775SOL    HW168222   9.007   1.589   2.796
88775SOL    HW268223   8.901   1.670   2.867
88776SOL     OW68224  12.339   4.194   1.283
88776SOL    HW168225  12.302   4.144   1.356
88776SOL    HW268226  12.401   4.254   1.325
88777SOL     OW68227   4.350   3.096   2.027
88777SOL    HW168228   4.416   3.083   2.095
88777SOL    HW268229   4.391   3.155   1.964
88778SOL     OW68230   9.507   4.897  12.606
88778SOL    HW168231   9.545   4.946  12.533
88778SOL    HW268232   9.538   4.944  12.684
88779SOL     OW68233  12.682   5.458  14.824
88779SOL    HW168234  12.644   5.422   0.031
88779SOL    HW268235  12.686   5.553  14.840
88780SOL     OW68236  12.272   7.939   8.474
88780SOL    HW168237  12.304   7.896   8.395
88780SOL    HW268238  12.247   7.867   8.532
88781SOL     OW68239  11.185  13.605   4.888
88781SOL    HW168240  11.219  13.668   4.952
88781SOL    HW268241  11.224  13.522   4.913
88782SOL     OW68242   3.031  11.074   3.347
88782SOL    HW168243   3.022  11.072   3.252
88782SOL    HW268244   3.097  11.008   3.367
88783SOL     OW68245   7.186  13.753   3.371
88783SOL    HW168246   7.150  13.718   3.452
88783SOL    HW268247   7.280  13.737   3.377
88784SOL     OW68248   1.139   0.127   0.770
88784SOL    HW168249   1.205   0.059   0.756
88784SOL    HW268250   1.106   0.147   0.683
88785SOL     OW68251   8.951   7.259  13.001
88785SOL    HW168252   8.934   7.352  13.018
88785SOL    HW268253   8.991   7.258  12.914
88786SOL     OW68254   3.740   3.321   5.392
88786SOL    HW168255   3.793   3.242   5.383
88786SOL    HW268256   3.650   3.289   5.399
88787SOL     OW68257   1.345   9.797  13.849
88787SOL    HW168258   1.279   9.864  13.831
88787SOL    HW268259   1.409   9.841  13.906
88788SOL     OW68260   5.278   2.392  13.752
88788SOL    HW168261   5.334   2.426  13.682
88788SOL    HW268262   5.219   2.464  13.773
88789SOL     OW68263   7.230   8.942  10.744
88789SOL    HW168264   7.188   8.860  10.768
88789SOL    HW268265   7.261   8.979  10.827
88790SOL     OW68266  13.511  11.041   1.783
88790SOL    HW168267  13.556  11.054   1.700
88790SOL    HW268268  13.422  11.018   1.759
88791SOL     OW68269   2.379  12.778   7.331
88791SOL    HW168270   2.411  12.771   7.421
88791SOL    HW268271   2.459  12.782   7.278
88792SOL     OW68272   1.547   4.763   0.430
88792SOL    HW168273   1.458   4.731   0.418
88792SOL    HW268274   1.539   4.834   0.494
88793SOL     OW68275   5.398   3.664   4.153
88793SOL    HW168276   5.325   3.704   4.201
88793SOL    HW268277   5.407   3.577   4.192
88794SOL     OW68278  11.485   5.641  12.352
88794SOL    HW168279  11.514   5.691  12.428
88794SOL    HW268280  11.550   5.662  12.284
88795SOL     OW68281  12.181   4.499   7.559
88795SOL    HW168282  12.121   4.435   7.598
88795SOL    HW268283  12.256   4.501   7.618
88796SOL     OW68284   3.353   5.379  10.120
88796SOL    HW168285   3.364   5.327  10.199
88796SOL    HW268286   3.438   5.419  10.105
88797SOL     OW68287   0.272   1.845   9.419
88797SOL    HW168288   0.241   1.931   9.391
88797SOL    HW268289   0.329   1.815   9.348
88798SOL     OW68290   8.541   3.124   5.073
88798SOL    HW168291   8.516   3.213   5.048
88798SOL    HW268292   8.580   3.087   4.994
88799SOL     OW68293   3.212  12.522   4.441
88799SOL    HW168294   3.157  12.527   4.363
88799SOL    HW268295   3.290  12.474   4.411
88800SOL     OW68296   6.723   7.516  12.575
88800SOL    HW168297   6.727   7.599  12.623
88800SOL    HW268298   6.745   7.540  12.485
88801SOL     OW68299   3.514   9.159   0.452
88801SOL    HW168300   3.527   9.130   0.542
88801SOL    HW268301   3.452   9.096   0.415
88802SOL     OW68302   8.084   6.760  12.015
88802SOL    HW168303   8.026   6.693  12.049
88802SOL    HW268304   8.041   6.791  11.935
88803SOL     OW68305   3.052  10.049  14.405
88803SOL    HW168306   2.972  10.087  14.442
88803SOL    HW268307   3.105  10.125  14.379
88804SOL     OW68308  13.433  10.554   6.951
88804SOL    HW168309  13.506  10.591   6.901
88804SOL    HW268310  13.474  10.503   7.020
88805SOL     OW68311   5.585  10.397   2.610
88805SOL    HW168312   5.545  10.379   2.525
88805SOL    HW268313   5.528  10.463   2.650
88806SOL     OW68314  12.213  10.430   9.980
88806SOL    HW168315  12.136  10.484   9.998
88806SOL    HW268316  12.182  10.365   9.917
88807SOL     OW68317   0.098   0.585   3.869
88807SOL    HW168318   0.089   0.680   3.878
88807SOL    HW268319   0.192   0.570   3.873
88808SOL     OW68320  14.509   6.755   1.528
88808SOL    HW168321  14.506   6.706   1.446
88808SOL    HW268322  14.569   6.705   1.584
88809SOL     OW68323  13.835  12.327   4.093
88809SOL    HW168324  13.847  12.420   4.111
88809SOL    HW268325  13.922  12.294   4.074
88810SOL     OW68326   0.474   5.791   9.739
88810SOL    HW168327   0.550   5.802   9.796
88810SOL    HW268328   0.417   5.864   9.760
88811SOL     OW68329   0.765   2.232   4.980
88811SOL    HW168330   0.828   2.211   5.048
88811SOL    HW268331   0.755   2.327   4.984
88812SOL     OW68332   6.565   7.461  11.119
88812SOL    HW168333   6.472   7.469  11.139
88812SOL    HW268334   6.578   7.517  11.042
88813SOL     OW68335   7.056   3.237   6.169
88813SOL    HW168336   7.117   3.201   6.234
88813SOL    HW268337   7.037   3.163   6.111
88814SOL     OW68338   1.842  12.080   0.758
88814SOL    HW168339   1.901  12.071   0.683
88814SOL    HW268340   1.764  12.031   0.732
88815SOL     OW68341   1.904   6.000   5.782
88815SOL    HW168342   1.959   5.924   5.802
88815SOL    HW268343   1.923   6.020   5.690
88816SOL     OW68344  10.471   0.699   5.872
88816SOL    HW168345  10.409   0.627   5.880
88816SOL    HW268346  10.487   0.707   5.778
88817SOL     OW68347   2.634   2.110   6.353
88817SOL    HW168348   2.668   2.041   6.409
88817SOL    HW268349   2.559   2.071   6.308
88818SOL     OW68350   8.719   8.284  12.331
88818SOL    HW168351   8.693   8.218  12.267
88818SOL    HW268352   8.705   8.243  12.416
88819SOL     OW68353   3.837   8.128   3.170
88819SOL    HW168354   3.790   8.211   3.172
88819SOL    HW268355   3.772   8.063   3.198
88820SOL     OW68356   1.122  11.039   5.348
88820SOL    HW168357   1.144  10.955   5.389
88820SOL    HW268358   1.109  11.098   5.422
88821SOL     OW68359   4.408   3.032   3.120
88821SOL    HW168360   4.500   3.025   3.144
88821SOL    HW268361   4.394   3.125   3.104
88822SOL     OW68362   3.532   5.984   0.991
88822SOL    HW168363   3.619   5.959   0.958
88822SOL    HW268364   3.550   6.038   1.067
88823SOL     OW68365   8.497  12.895  11.776
88823SOL    HW168366   8.550  12.829  11.732
88823SOL    HW268367   8.411  12.855  11.785
88824SOL     OW68368  13.743   6.751   7.672
88824SOL    HW168369  13.664   6.702   7.650
88824SOL    HW268370  13.720   6.842   7.656
88825SOL     OW68371   2.168   4.851   6.618
88825SOL    HW168372   2.230   4.859   6.690
88825SOL    HW268373   2.189   4.924   6.559
88826SOL     OW68374   5.528   2.011  10.407
88826SOL    HW168375   5.616   2.048  10.400
88826SOL    HW268376   5.498   2.004  10.316
88827SOL     OW68377   2.832   9.253   0.020
88827SOL    HW168378   2.841   9.191  14.820
88827SOL    HW268379   2.837   9.199   0.099
88828SOL     OW68380   5.791   6.621   1.388
88828SOL    HW168381   5.797   6.561   1.314
88828SOL    HW268382   5.861   6.594   1.446
88829SOL     OW68383  12.907   9.363  14.179
88829SOL    HW168384  12.822   9.359  14.136
88829SOL    HW268385  12.888   9.397  14.267
88830SOL     OW68386   9.869   7.033   4.045
88830SOL    HW168387   9.900   7.123   4.043
88830SOL    HW268388   9.777   7.038   4.019
88831SOL     OW68389   7.716   5.045   8.950
88831SOL    HW168390   7.671   4.963   8.929
88831SOL    HW268391   7.803   5.035   8.911
88832SOL     OW68392   5.059   8.993   2.450
88832SOL    HW168393   5.111   9.049   2.392
88832SOL    HW268394   5.009   9.054   2.504
88833SOL     OW68395   1.424   7.160   5.003
88833SOL    HW168396   1.333   7.170   4.975
88833SOL    HW268397   1.470   7.232   4.958
88834SOL     OW68398   1.285   8.532   2.276
88834SOL    HW168399   1.327   8.581   2.347
88834SOL    HW268400   1.352   8.471   2.246
88835SOL     OW68401   2.621   1.135   3.024
88835SOL    HW168402   2.571   1.168   2.949
88835SOL    HW268403   2.616   1.040   3.015
88836SOL     OW68404  13.883   7.691   0.312
88836SOL    HW168405  13.855   7.742   0.236
88836SOL    HW268406  13.978   7.700   0.313
88837SOL     OW68407   9.061   1.367   5.046
88837SOL    HW168408   9.071   1.461   5.060
88837SOL    HW268409   9.101   1.327   5.123
88838SOL     OW68410  13.968   2.284   3.822
88838SOL    HW168411  13.932   2.316   3.740
88838SOL    HW268412  13.912   2.209   3.845
88839SOL     OW68413   0.573  14.289  13.349
88839SOL    HW168414   0.576  14.273  13.444
88839SOL    HW268415   0.663  14.310  13.325
88840SOL     OW68416  12.320   3.087   1.479
88840SOL    HW168417  12.266   3.151   1.434
88840SOL    HW268418  12.339   3.127   1.564
88841SOL     OW68419   5.349  10.051   6.276
88841SOL    HW168420   5.429  10.073   6.228
88841SOL    HW268421   5.341   9.956   6.267
88842SOL     OW68422   6.196  13.907   8.443
88842SOL    HW168423   6.274  13.922   8.497
88842SOL    HW268424   6.221  13.939   8.356
88843SOL     OW68425   3.319  10.298   7.902
88843SOL    HW168426   3.355  10.257   7.981
88843SOL    HW268427   3.335  10.234   7.832
88844SOL     OW68428   2.705  12.006  10.695
88844SOL    HW168429   2.738  12.094  10.710
88844SOL    HW268430   2.744  11.978  10.613
88845SOL     OW68431   2.146   5.194  10.839
88845SOL    HW168432   2.097   5.112  10.828
88845SOL    HW268433   2.113   5.231  10.921
88846SOL     OW68434   8.628  10.371   8.213
88846SOL    HW168435   8.718  10.339   8.211
88846SOL    HW268436   8.635  10.464   8.235
88847SOL     OW68437   6.825  13.495  12.776
88847SOL    HW168438   6.808  13.589  12.774
88847SOL    HW268439   6.746  13.456  12.812
88848SOL     OW68440   3.979  12.936   4.775
88848SOL    HW168441   4.015  13.003   4.834
88848SOL    HW268442   3.967  12.859   4.831
88849SOL     OW68443   4.796  11.893   4.838
88849SOL    HW168444   4.740  11.828   4.882
88849SOL    HW268445   4.814  11.958   4.906
88850SOL     OW68446   4.856  13.482  14.733
88850SOL    HW168447   4.944  13.470  14.769
88850SOL    HW268448   4.853  13.426  14.656
88851SOL     OW68449  13.460   5.197   7.321
88851SOL    HW168450  13.534   5.158   7.276
88851SOL    HW268451  13.495   5.278   7.359
88852SOL     OW68452   6.891   0.057   0.742
88852SOL    HW168453   6.933  14.844   0.743
88852SOL    HW268454   6.948   0.111   0.688
88853SOL     OW68455  12.437  10.767   7.240
88853SOL    HW168456  12.498  10.783   7.312
88853SOL    HW268457  12.491  10.725   7.173
88854SOL     OW68458   7.712  13.974   8.236
88854SOL    HW168459   7.724  13.902   8.175
88854SOL    HW268460   7.795  13.979   8.284
88855SOL     OW68461   7.008  12.616   9.532
88855SOL    HW168462   7.026  12.652   9.619
88855SOL    HW268463   7.091  12.575   9.506
88856SOL     OW68464   9.038  14.314   1.602
88856SOL    HW168465   9.106  14.376   1.628
88856SOL    HW268466   9.023  14.332   1.509
88857SOL     OW68467   6.916  14.188   7.983
88857SOL    HW168468   6.892  14.271   8.025
88857SOL    HW268469   6.869  14.189   7.900
88858SOL     OW68470   7.793   7.666   5.876
88858SOL    HW168471   7.791   7.648   5.782
88858SOL    HW268472   7.701   7.669   5.902
88859SOL     OW68473  10.723  13.498   1.265
88859SOL    HW168474  10.695  13.576   1.313
88859SOL    HW268475  10.739  13.433   1.333
88860SOL     OW68476  12.563   8.394   0.719
88860SOL    HW168477  12.604   8.402   0.806
88860SOL    HW268478  12.531   8.483   0.700
88861SOL     OW68479  10.750  12.730   1.475
88861SOL    HW168480  10.746  12.706   1.568
88861SOL    HW268481  10.822  12.794   1.470
88862SOL     OW68482  14.261  10.081  14.582
88862SOL    HW168483  14.341  10.030  14.591
88862SOL    HW268484  14.290  10.172  14.592
88863SOL     OW68485  10.161  14.113   7.844
88863SOL    HW168486  10.173  14.030   7.890
88863SOL    HW268487  10.133  14.174   7.912
88864SOL     OW68488   6.825   9.124  10.284
88864SOL    HW168489   6.878   9.178  10.342
88864SOL    HW268490   6.745   9.176  10.270
88865SOL     OW68491   3.132   8.468   7.225
88865SOL    HW168492   3.138   8.550   7.176
88865SOL    HW268493   3.040   8.462   7.251
88866SOL     OW68494  13.330  13.695   2.196
88866SOL    HW168495  13.409  13.641   2.191
88866SOL    HW268496  13.284  13.679   2.114
88867SOL     OW68497   8.173   6.777  12.312
88867SOL    HW168498   8.130   6.841  12.254
88867SOL    HW268499   8.155   6.809  12.400
88868SOL     OW68500  12.432  11.621   6.378
88868SOL    HW168501  12.368  11.676   6.332
88868SOL    HW268502  12.436  11.540   6.326
88869SOL     OW68503   0.133   8.470   7.194
88869SOL    HW168504   0.191   8.399   7.223
88869SOL    HW268505   0.151   8.478   7.100
88870SOL     OW68506   0.611  11.779   3.744
88870SOL    HW168507   0.622  11.807   3.653
88870SOL    HW268508   0.516  11.777   3.757
88871SOL     OW68509   8.378   6.835   6.206
88871SOL    HW168510   8.444   6.788   6.154
88871SOL    HW268511   8.298   6.830   6.154
88872SOL     OW68512  11.669   5.330   1.635
88872SOL    HW168513  11.715   5.381   1.702
88872SOL    HW268514  11.580   5.366   1.634
88873SOL     OW68515  14.174  10.125   8.324
88873SOL    HW168516  14.257  10.166   8.350
88873SOL    HW268517  14.191  10.031   8.332
88874SOL     OW68518   4.122   3.825  11.975
88874SOL    HW168519   4.188   3.895  11.981
88874SOL    HW268520   4.170   3.750  11.938
88875SOL     OW68521   4.741   9.665   1.612
88875SOL    HW168522   4.717   9.756   1.631
88875SOL    HW268523   4.772   9.667   1.521
88876SOL     OW68524   4.625   4.605   9.250
88876SOL    HW168525   4.716   4.637   9.252
88876SOL    HW268526   4.634   4.510   9.240
88877SOL     OW68527  11.431   3.619  11.109
88877SOL    HW168528  11.506   3.670  11.080
88877SOL    HW268529  11.456   3.587  11.196
88878SOL     OW68530  13.325  13.442  10.957
88878SOL    HW168531  13.245  13.460  10.907
88878SOL    HW268532  13.320  13.349  10.979
88879SOL     OW68533   0.187  11.951   7.409
88879SOL    HW168534   0.232  11.948   7.494
88879SOL    HW268535   0.219  12.031   7.368
88880SOL     OW68536   6.328   1.336   5.426
88880SOL    HW168537   6.254   1.364   5.373
88880SOL    HW268538   6.404   1.351   5.370
88881SOL     OW68539  10.748   5.354   5.555
88881SOL    HW168540  10.678   5.328   5.495
88881SOL    HW268541  10.740   5.293   5.629
88882SOL     OW68542   6.081   6.763   1.313
88882SOL    HW168543   6.000   6.713   1.313
88882SOL    HW268544   6.102   6.774   1.406
88883SOL     OW68545   8.023  11.996  13.354
88883SOL    HW168546   7.951  12.058  13.342
88883SOL    HW268547   8.018  11.972  13.447
88884SOL     OW68548   1.770   1.729   9.138
88884SOL    HW168549   1.675   1.731   9.136
88884SOL    HW268550   1.791   1.682   9.218
88885SOL     OW68551   5.960   3.613   6.795
88885SOL    HW168552   5.949   3.560   6.716
88885SOL    HW268553   6.041   3.581   6.835
88886SOL     OW68554  10.818   3.152   7.099
88886SOL    HW168555  10.881   3.194   7.157
88886SOL    HW268556  10.820   3.205   7.019
88887SOL     OW68557   6.582   1.332  11.217
88887SOL    HW168558   6.606   1.332  11.124
88887SOL    HW268559   6.549   1.243  11.233
88888SOL     OW68560   3.359   4.915   7.217
88888SOL    HW168561   3.442   4.961   7.212
88888SOL    HW268562   3.383   4.824   7.235
88889SOL     OW68563  13.394   8.018   9.660
88889SOL    HW168564  13.308   8.035   9.699
88889SOL    HW268565  13.374   7.970   9.580
88890SOL     OW68566  11.073  11.979  11.777
88890SOL    HW168567  11.079  12.066  11.816
88890SOL    HW268568  10.979  11.961  11.774
88891SOL     OW68569   2.430   8.671  11.604
88891SOL    HW168570   2.372   8.654  11.678
88891SOL    HW268571   2.489   8.596  11.602
88892SOL     OW68572   5.843   5.363  12.239
88892SOL    HW168573   5.784   5.419  12.188
88892SOL    HW268574   5.858   5.287  12.183
88893SOL     OW68575   5.646   5.356   3.454
88893SOL    HW168576   5.646   5.423   3.523
88893SOL    HW268577   5.616   5.401   3.376
88894SOL     OW68578   6.413  14.011   2.973
88894SOL    HW168579   6.389  13.970   3.056
88894SOL    HW268580   6.382  13.950   2.907
88895SOL     OW68581  13.212  13.557  10.035
88895SOL    HW168582  13.182  13.563  10.126
88895SOL    HW268583  13.247  13.644  10.015
88896SOL     OW68584  10.050   6.822   3.922
88896SOL    HW168585   9.982   6.870   3.968
88896SOL    HW268586  10.059   6.740   3.970
88897SOL     OW68587   9.905   5.501   5.541
88897SOL    HW168588   9.941   5.548   5.617
88897SOL    HW268589   9.969   5.432   5.524
88898SOL     OW68590  14.222   0.709   8.908
88898SOL    HW168591  14.154   0.775   8.896
88898SOL    HW268592  14.296   0.741   8.856
88899SOL     OW68593   9.909  12.718   7.313
88899SOL    HW168594   9.846  12.790   7.308
88899SOL    HW268595   9.878  12.663   7.384
88900SOL     OW68596   4.122   9.000   5.154
88900SOL    HW168597   4.215   8.977   5.152
88900SOL    HW268598   4.076   8.915   5.152
88901SOL     OW68599  10.855  10.024   9.619
88901SOL    HW168600  10.821   9.951   9.672
88901SOL    HW268601  10.884   9.984   9.538
88902SOL     OW68602   5.058   5.072  11.603
88902SOL    HW168603   5.024   5.138  11.543
88902SOL    HW268604   5.054   5.114  11.689
88903SOL     OW68605   9.805   4.260   2.046
88903SOL    HW168606   9.725   4.211   2.031
88903SOL    HW268607   9.876   4.196   2.036
88904SOL     OW68608  13.374  11.315   6.855
88904SOL    HW168609  13.330  11.321   6.939
88904SOL    HW268610  13.374  11.221   6.834
88905SOL     OW68611   8.154  11.080   2.155
88905SOL    HW168612   8.189  11.124   2.077
88905SOL    HW268613   8.205  10.999   2.162
88906SOL     OW68614   7.910   1.414   2.020
88906SOL    HW168615   7.958   1.487   2.060
88906SOL    HW268616   7.915   1.430   1.926
88907SOL     OW68617  13.225   6.396  14.772
88907SOL    HW168618  13.258   6.311  14.742
88907SOL    HW268619  13.181   6.433  14.696
88908SOL     OW68620   3.064   5.940   5.365
88908SOL    HW168621   3.090   5.857   5.405
88908SOL    HW268622   3.046   5.918   5.274
88909SOL     OW68623  12.871   5.736  11.934
88909SOL    HW168624  12.859   5.819  11.980
88909SOL    HW268625  12.803   5.679  11.971
88910SOL     OW68626  10.792  11.436  12.012
88910SOL    HW168627  10.841  11.387  12.078
88910SOL    HW268628  10.776  11.373  11.941
88911SOL     OW68629   4.416  14.697  12.847
88911SOL    HW168630   4.405  14.791  12.858
88911SOL    HW268631   4.475  14.671  12.918
88912SOL     OW68632   8.413  10.893   4.528
88912SOL    HW168633   8.477  10.822   4.531
88912SOL    HW268634   8.357  10.872   4.453
88913SOL     OW68635   9.224   0.828  10.920
88913SOL    HW168636   9.310   0.786  10.923
88913SOL    HW268637   9.162   0.757  10.938
88914SOL     OW68638   4.629  12.797   3.800
88914SOL    HW168639   4.542  12.795   3.761
88914SOL    HW268640   4.670  12.875   3.762
88915SOL     OW68641   7.625   7.627  10.634
88915SOL    HW168642   7.561   7.558  10.650
88915SOL    HW268643   7.572   7.702  10.605
88916SOL     OW68644  11.184   0.093   9.498
88916SOL    HW168645  11.149   0.102   9.587
88916SOL    HW268646  11.216   0.180   9.476
88917SOL     OW68647   4.889   4.136   7.842
88917SOL    HW168648   4.882   4.121   7.936
88917SOL    HW268649   4.798   4.131   7.810
88918SOL     OW68650   1.927  12.236   7.425
88918SOL    HW168651   1.913  12.141   7.431
88918SOL    HW268652   2.020  12.245   7.403
88919SOL     OW68653   5.517   2.557   0.314
88919SOL    HW168654   5.500   2.464   0.331
88919SOL    HW268655   5.459   2.604   0.375
88920SOL     OW68656  14.825   9.674   8.664
88920SOL    HW168657  14.808   9.767   8.680
88920SOL    HW268658  14.774   9.653   8.586
88921SOL     OW68659   5.190   4.292   7.524
88921SOL    HW168660   5.110   4.345   7.522
88921SOL    HW268661   5.261   4.357   7.520
88922SOL     OW68662   8.568  12.820   2.234
88922SOL    HW168663   8.609  12.880   2.296
88922SOL    HW268664   8.514  12.876   2.178
88923SOL     OW68665  11.929   7.037   5.982
88923SOL    HW168666  11.845   7.059   6.023
88923SOL    HW268667  11.923   6.943   5.965
88924SOL     OW68668   4.668  13.462   9.399
88924SOL    HW168669   4.699  13.376   9.370
88924SOL    HW268670   4.581  13.445   9.436
88925SOL     OW68671  11.999   1.633   9.979
88925SOL    HW168672  11.907   1.609   9.968
88925SOL    HW268673  12.001   1.680  10.062
88926SOL     OW68674   0.958   6.388   2.443
88926SOL    HW168675   0.910   6.454   2.493
88926SOL    HW268676   0.900   6.312   2.443
88927SOL     OW68677   8.927   5.685   6.046
88927SOL    HW168678   8.988   5.614   6.024
88927SOL    HW268679   8.873   5.695   5.968
88928SOL     OW68680   2.895  13.106   9.371
88928SOL    HW168681   2.812  13.069   9.341
88928SOL    HW268682   2.936  13.139   9.291
88929SOL     OW68683   2.604   8.352   4.867
88929SOL    HW168684   2.614   8.416   4.937
88929SOL    HW268685   2.516   8.315   4.880
88930SOL     OW68686  11.589  14.475   5.370
88930SOL    HW168687  11.571  14.471   5.464
88930SOL    HW268688  11.525  14.417   5.331
88931SOL     OW68689   4.814  11.363  13.475
88931SOL    HW168690   4.831  11.284  13.525
88931SOL    HW268691   4.860  11.432  13.523
88932SOL     OW68692   8.903   2.942   3.986
88932SOL    HW168693   8.903   2.902   4.073
88932SOL    HW268694   8.983   2.996   3.985
88933SOL     OW68695   4.028   1.885   9.406
88933SOL    HW168696   4.042   1.897   9.312
88933SOL    HW268697   3.951   1.937   9.427
88934SOL     OW68698   9.249   3.801   5.340
88934SOL    HW168699   9.293   3.879   5.375
88934SOL    HW268700   9.250   3.739   5.413
88935SOL     OW68701   0.272  12.463  13.509
88935SOL    HW168702   0.261  12.498  13.420
88935SOL    HW268703   0.191  12.488  13.554
88936SOL     OW68704   0.825  10.133  13.627
88936SOL    HW168705   0.895  10.121  13.691
88936SOL    HW268706   0.804  10.045  13.597
88937SOL     OW68707  11.546   2.124  10.306
88937SOL    HW168708  11.476   2.189  10.293
88937SOL    HW268709  11.569   2.095  10.218
88938SOL     OW68710   1.912   8.752   9.647
88938SOL    HW168711   1.860   8.772   9.725
88938SOL    HW268712   1.888   8.662   9.626
88939SOL     OW68713   9.569   0.286   7.192
88939SOL    HW168714   9.494   0.342   7.173
88939SOL    HW268715   9.569   0.277   7.287
88940SOL     OW68716  13.335   9.493  14.856
88940SOL    HW168717  13.402   9.430   0.010
88940SOL    HW268718  13.252   9.451   0.007
88941SOL     OW68719   8.887   3.659  14.542
88941SOL    HW168720   8.803   3.639  14.500
88941SOL    HW268721   8.893   3.598  14.615
88942SOL     OW68722   7.341   8.578  10.204
88942SOL    HW168723   7.392   8.551  10.280
88942SOL    HW268724   7.250   8.567  10.230
88943SOL     OW68725   8.381   1.279   3.797
88943SOL    HW168726   8.433   1.217   3.747
88943SOL    HW268727   8.292   1.271   3.762
88944SOL     OW68728  11.420  11.579   8.207
88944SOL    HW168729  11.396  11.495   8.168
88944SOL    HW268730  11.489  11.614   8.151
88945SOL     OW68731  12.821   1.285   0.055
88945SOL    HW168732  12.771   1.358   0.017
88945SOL    HW268733  12.909   1.296   0.021
88946SOL     OW68734   3.106   5.256  13.029
88946SOL    HW168735   3.175   5.320  13.009
88946SOL    HW268736   3.099   5.259  13.125
88947SOL     OW68737  12.223  10.407   2.841
88947SOL    HW168738  12.239  10.464   2.916
88947SOL    HW268739  12.282  10.332   2.855
88948SOL     OW68740   8.351  11.027   5.072
88948SOL    HW168741   8.442  11.043   5.098
88948SOL    HW268742   8.328  10.944   5.114
88949SOL     OW68743  11.697   5.558   5.195
88949SOL    HW168744  11.634   5.618   5.156
88949SOL    HW268745  11.650   5.516   5.266
88950SOL     OW68746   6.869   3.761  11.894
88950SOL    HW168747   6.909   3.675  11.906
88950SOL    HW268748   6.775   3.744  11.903
88951SOL     OW68749   7.821  14.059   7.852
88951SOL    HW168750   7.737  14.016   7.839
88951SOL    HW268751   7.883  14.004   7.804
88952SOL     OW68752  10.811  10.754   5.320
88952SOL    HW168753  10.720  10.728   5.309
88952SOL    HW268754  10.833  10.729   5.410
88953SOL     OW68755   7.911   2.585   5.109
88953SOL    HW168756   7.945   2.640   5.180
88953SOL    HW268757   7.988   2.543   5.072
88954SOL     OW68758   5.152   4.285   6.524
88954SOL    HW168759   5.163   4.198   6.486
88954SOL    HW268760   5.119   4.270   6.612
88955SOL     OW68761   4.391  14.671  14.855
88955SOL    HW168762   4.378  14.766  14.852
88955SOL    HW268763   4.457  14.658   0.050
88956SOL     OW68764   9.105  11.602   6.611
88956SOL    HW168765   9.138  11.522   6.651
88956SOL    HW268766   9.010  11.597   6.621
88957SOL     OW68767  10.801  11.793   7.382
88957SOL    HW168768  10.746  11.864   7.415
88957SOL    HW268769  10.762  11.768   7.299
88958SOL     OW68770   7.082  14.859   5.178
88958SOL    HW168771   7.160   0.028   5.215
88958SOL    HW268772   7.093  14.867   5.084
88959SOL     OW68773   6.366  12.547   5.574
88959SOL    HW168774   6.285  12.584   5.539
88959SOL    HW268775   6.401  12.616   5.631
88960SOL     OW68776   3.405   2.276   5.383
88960SOL    HW168777   3.458   2.202   5.413
88960SOL    HW268778   3.433   2.291   5.293
88961SOL     OW68779  10.151   4.896   2.335
88961SOL    HW168780  10.150   4.917   2.241
88961SOL    HW268781  10.105   4.969   2.377
88962SOL     OW68782   4.003   6.989   8.835
88962SOL    HW168783   4.009   6.909   8.887
88962SOL    HW268784   4.077   7.042   8.864
88963SOL     OW68785  13.753   0.487  11.350
88963SOL    HW168786  13.838   0.458  11.318
88963SOL    HW268787  13.763   0.582  11.361
88964SOL     OW68788   1.335  13.019  11.105
88964SOL    HW168789   1.333  13.101  11.055
88964SOL    HW268790   1.406  12.969  11.065
88965SOL     OW68791   9.743   7.422  14.245
88965SOL    HW168792   9.676   7.452  14.184
88965SOL    HW268793   9.696   7.409  14.327
88966SOL     OW68794   3.958  11.246   7.993
88966SOL    HW168795   3.954  11.191   7.914
88966SOL    HW268796   3.920  11.329   7.966
88967SOL     OW68797  10.514  12.513   9.002
88967SOL    HW168798  10.502  12.432   9.052
88967SOL    HW268799  10.600  12.504   8.962
88968SOL     OW68800   7.464   2.842  11.785
88968SOL    HW168801   7.463   2.921  11.731
88968SOL    HW268802   7.481   2.771  11.723
88969SOL     OW68803   9.523  10.582  11.905
88969SOL    HW168804   9.511  10.651  11.840
88969SOL    HW268805   9.448  10.524  11.892
88970SOL     OW68806   0.647   1.221  14.872
88970SOL    HW168807   0.695   1.153  14.824
88970SOL    HW268808   0.584   1.173   0.053
88971SOL     OW68809   9.221  12.024   9.456
88971SOL    HW168810   9.235  12.104   9.507
88971SOL    HW268811   9.213  12.054   9.366
88972SOL     OW68812   4.199   8.564   4.666
88972SOL    HW168813   4.287   8.527   4.667
88972SOL    HW268814   4.159   8.531   4.746
88973SOL     OW68815   5.700   4.498   0.291
88973SOL    HW168816   5.619   4.453   0.317
88973SOL    HW268817   5.754   4.498   0.370
88974SOL     OW68818   9.028  10.908   2.718
88974SOL    HW168819   8.933  10.918   2.721
88974SOL    HW268820   9.043  10.816   2.740
88975SOL     OW68821   6.011  10.137   9.865
88975SOL    HW168822   6.060  10.177   9.793
88975SOL    HW268823   6.058  10.164   9.944
88976SOL     OW68824   9.037   4.159   0.128
88976SOL    HW168825   9.023   4.121   0.041
88976SOL    HW268826   8.950   4.192   0.154
88977SOL     OW68827   0.668  12.922  14.300
88977SOL    HW168828   0.679  12.894  14.391
88977SOL    HW268829   0.637  13.012  14.306
88978SOL     OW68830  11.582   6.957   1.022
88978SOL    HW168831  11.503   7.012   1.028
88978SOL    HW268832  11.629   6.992   0.946
88979SOL     OW68833  10.364   8.419   0.664
88979SOL    HW168834  10.366   8.514   0.660
88979SOL    HW268835  10.452   8.394   0.694
88980SOL     OW68836   0.339  13.467   9.970
88980SOL    HW168837   0.392  13.423   9.904
88980SOL    HW268838   0.383  13.446  10.053
88981SOL     OW68839  14.468   9.615   7.672
88981SOL    HW168840  14.549   9.575   7.701
88981SOL    HW268841  14.415   9.623   7.752
88982SOL     OW68842   0.720   6.189   9.043
88982SOL    HW168843   0.700   6.233   8.961
88982SOL    HW268844   0.701   6.097   9.026
88983SOL     OW68845  12.429   8.155  13.908
88983SOL    HW168846  12.481   8.202  13.973
88983SOL    HW268847  12.438   8.063  13.932
88984SOL     OW68848   3.340  10.131   2.461
88984SOL    HW168849   3.248  10.140   2.487
88984SOL    HW268850   3.340  10.150   2.367
88985SOL     OW68851   1.048   1.962   2.714
88985SOL    HW168852   1.138   1.930   2.726
88985SOL    HW268853   1.052   2.012   2.633
88986SOL     OW68854   7.366  13.407   1.022
88986SOL    HW168855   7.449  13.366   1.047
88986SOL    HW268856   7.387  13.456   0.943
88987SOL     OW68857   1.033  13.368   4.482
88987SOL    HW168858   1.111  13.319   4.454
88987SOL    HW268859   1.021  13.433   4.413
88988SOL     OW68860   3.328  12.001   6.656
88988SOL    HW168861   3.323  11.911   6.690
88988SOL    HW268862   3.394  11.997   6.587
88989SOL     OW68863   2.742  10.461   1.168
88989SOL    HW168864   2.763  10.432   1.079
88989SOL    HW268865   2.808  10.419   1.223
88990SOL     OW68866   0.152  14.483   4.079
88990SOL    HW168867   0.067  14.467   4.038
88990SOL    HW268868   0.133  14.545   4.149
88991SOL     OW68869   9.182   1.498   4.724
88991SOL    HW168870   9.147   1.431   4.784
88991SOL    HW268871   9.116   1.567   4.726
88992SOL     OW68872   6.550   9.387   6.027
88992SOL    HW168873   6.461   9.354   6.045
88992SOL    HW268874   6.607   9.312   6.044
88993SOL     OW68875  11.814  13.246   0.457
88993SOL    HW168876  11.829  13.302   0.381
88993SOL    HW268877  11.755  13.178   0.426
88994SOL     OW68878   4.310   8.798   6.106
88994SOL    HW168879   4.365   8.737   6.057
88994SOL    HW268880   4.318   8.881   6.059
88995SOL     OW68881  14.006   5.289   2.939
88995SOL    HW168882  14.013   5.289   2.844
88995SOL    HW268883  14.091   5.322   2.969
88996SOL     OW68884  11.517   6.499  11.998
88996SOL    HW168885  11.599   6.477  12.042
88996SOL    HW268886  11.537   6.577  11.946
88997SOL     OW68887  13.990   7.215  14.756
88997SOL    HW168888  14.051   7.258  14.696
88997SOL    HW268889  13.907   7.211  14.708
88998SOL     OW68890   3.439  11.726   1.415
88998SOL    HW168891   3.357  11.763   1.448
88998SOL    HW268892   3.458  11.653   1.474
88999SOL     OW68893  14.463   2.645  12.650
88999SOL    HW168894  14.428   2.589  12.719
88999SOL    HW268895  14.444   2.598  12.569
89000SOL     OW68896   1.655   8.599  12.103
89000SOL    HW168897   1.702   8.644  12.033
89000SOL    HW268898   1.661   8.506  12.079
89001SOL     OW68899   3.042   9.540   8.319
89001SOL    HW168900   3.014   9.491   8.396
89001SOL    HW268901   3.133   9.564   8.339
89002SOL     OW68902   3.036  13.533   2.436
89002SOL    HW168903   3.047  13.615   2.485
89002SOL    HW268904   2.944  13.512   2.446
89003SOL     OW68905   2.564  11.049   9.168
89003SOL    HW168906   2.643  11.097   9.142
89003SOL    HW268907   2.551  11.074   9.259
89004SOL     OW68908  11.938   8.120   3.172
89004SOL    HW168909  12.032   8.106   3.168
89004SOL    HW268910  11.928   8.215   3.177
89005SOL     OW68911   5.032  11.173   7.463
89005SOL    HW168912   5.078  11.146   7.384
89005SOL    HW268913   5.071  11.257   7.486
89006SOL     OW68914   8.031   8.584   5.453
89006SOL    HW168915   7.946   8.604   5.494
89006SOL    HW268916   8.009   8.570   5.361
89007SOL     OW68917   3.769   3.440   6.803
89007SOL    HW168918   3.684   3.401   6.824
89007SOL    HW268919   3.832   3.368   6.812
89008SOL     OW68920   6.974  14.412   1.559
89008SOL    HW168921   6.885  14.390   1.533
89008SOL    HW268922   6.970  14.504   1.585
89009SOL     OW68923  10.404   5.600   3.957
89009SOL    HW168924  10.461   5.532   3.993
89009SOL    HW268925  10.358   5.557   3.885
89010SOL     OW68926  14.223   3.397   5.108
89010SOL    HW168927  14.201   3.470   5.166
89010SOL    HW268928  14.278   3.340   5.161
89011SOL     OW68929  13.576  13.193   0.519
89011SOL    HW168930  13.579  13.098   0.524
89011SOL    HW268931  13.661  13.222   0.554
89012SOL     OW68932   8.230   7.112   2.869
89012SOL    HW168933   8.286   7.079   2.939
89012SOL    HW268934   8.260   7.202   2.854
89013SOL     OW68935  10.076   7.298   4.677
89013SOL    HW168936  10.141   7.323   4.743
89013SOL    HW268937  10.126   7.292   4.596
89014SOL     OW68938   0.008   0.670  13.227
89014SOL    HW168939  14.863   0.641  13.137
89014SOL    HW268940  14.795   0.697  13.260
89015SOL     OW68941   3.930  10.040  11.759
89015SOL    HW168942   3.973  10.003  11.682
89015SOL    HW268943   3.914   9.964  11.815
89016SOL     OW68944   9.704  10.136   8.297
89016SOL    HW168945   9.668  10.053   8.265
89016SOL    HW268946   9.753  10.171   8.223
89017SOL     OW68947   5.354  11.868   1.398
89017SOL    HW168948   5.383  11.780   1.420
89017SOL    HW268949   5.258  11.864   1.402
89018SOL     OW68950   0.496  10.277  10.489
89018SOL    HW168951   0.569  10.308  10.543
89018SOL    HW268952   0.440  10.354  10.479
89019SOL     OW68953  10.421  13.156   2.533
89019SOL    HW168954  10.502  13.207   2.544
89019SOL    HW268955  10.375  13.166   2.616
89020SOL     OW68956  11.615  10.338   5.918
89020SOL    HW168957  11.701  10.376   5.899
89020SOL    HW268958  11.597  10.363   6.008
89021SOL     OW68959   7.455   8.724  12.056
89021SOL    HW168960   7.495   8.810  12.069
89021SOL    HW268961   7.519   8.675  12.005
89022SOL     OW68962  11.852   4.983   2.332
89022SOL    HW168963  11.901   5.061   2.359
89022SOL    HW268964  11.772   5.018   2.291
89023SOL     OW68965   8.037   8.145   5.334
89023SOL    HW168966   8.008   8.179   5.418
89023SOL    HW268967   7.989   8.063   5.323
89024SOL     OW68968   9.762   0.420   3.348
89024SOL    HW168969   9.672   0.429   3.381
89024SOL    HW268970   9.791   0.335   3.381
89025SOL     OW68971  13.048   0.837  14.661
89025SOL    HW168972  13.008   0.854  14.747
89025SOL    HW268973  13.045   0.922  14.616
89026SOL     OW68974   4.533  12.550  10.548
89026SOL    HW168975   4.483  12.479  10.510
89026SOL    HW268976   4.625  12.526  10.534
89027SOL     OW68977   7.391   5.032   7.550
89027SOL    HW168978   7.466   5.091   7.544
89027SOL    HW268979   7.395   4.996   7.639
89028SOL     OW68980  10.423   5.124   1.558
89028SOL    HW168981  10.503   5.074   1.575
89028SOL    HW268982  10.377   5.126   1.642
89029SOL     OW68983  12.987   6.250   3.907
89029SOL    HW168984  12.962   6.158   3.917
89029SOL    HW268985  13.079   6.252   3.936
89030SOL     OW68986  14.277   6.977   0.507
89030SOL    HW168987  14.205   6.985   0.569
89030SOL    HW268988  14.273   7.057   0.455
89031SOL     OW68989   1.586   1.274  10.340
89031SOL    HW168990   1.527   1.252  10.268
89031SOL    HW268991   1.612   1.365  10.323
89032SOL     OW68992   0.528   8.509   7.363
89032SOL    HW168993   0.523   8.601   7.336
89032SOL    HW268994   0.576   8.466   7.292
89033SOL     OW68995  13.132   4.994   2.883
89033SOL    HW168996  13.151   5.000   2.790
89033SOL    HW268997  13.188   5.061   2.923
89034SOL     OW68998  11.950   9.922  13.964
89034SOL    HW168999  11.981   9.955  13.880
89034SOL    HW269000  11.960   9.996  14.024
89035SOL     OW69001   2.134  12.293  11.012
89035SOL    HW169002   2.165  12.368  10.960
89035SOL    HW269003   2.213  12.244  11.032
89036SOL     OW69004  12.114  13.967   7.839
89036SOL    HW169005  12.048  13.995   7.776
89036SOL    HW269006  12.182  13.925   7.786
89037SOL     OW69007  13.204   7.814   6.190
89037SOL    HW169008  13.237   7.794   6.102
89037SOL    HW269009  13.248   7.895   6.213
89038SOL     OW69010   7.098   0.166  11.212
89038SOL    HW169011   7.063   0.094  11.159
89038SOL    HW269012   7.136   0.227  11.148
89039SOL     OW69013   8.085   1.820   9.522
89039SOL    HW169014   8.036   1.795   9.444
89039SOL    HW269015   8.139   1.894   9.494
89040SOL     OW69016   5.115   7.094   2.424
89040SOL    HW169017   5.124   7.053   2.337
89040SOL    HW269018   5.023   7.121   2.427
89041SOL     OW69019   9.063   2.081  13.513
89041SOL    HW169020   8.980   2.076  13.562
89041SOL    HW269021   9.124   2.028  13.565
89042SOL     OW69022  11.844   5.099   7.427
89042SOL    HW169023  11.939   5.091   7.421
89042SOL    HW269024  11.817   5.031   7.488
89043SOL     OW69025  13.738  10.707  13.175
89043SOL    HW169026  13.774  10.795  13.181
89043SOL    HW269027  13.715  10.697  13.082
89044SOL     OW69028   0.286   2.677   8.339
89044SOL    HW169029   0.369   2.677   8.291
89044SOL    HW269030   0.312   2.671   8.431
89045SOL     OW69031   8.288   1.695   8.470
89045SOL    HW169032   8.306   1.788   8.485
89045SOL    HW269033   8.356   1.667   8.409
89046SOL     OW69034   8.248   9.899   3.022
89046SOL    HW169035   8.296   9.966   3.071
89046SOL    HW269036   8.179   9.871   3.082
89047SOL     OW69037  10.280  11.180   5.234
89047SOL    HW169038  10.314  11.193   5.323
89047SOL    HW269039  10.260  11.087   5.229
89048SOL     OW69040  11.675   4.255   1.294
89048SOL    HW169041  11.652   4.335   1.248
89048SOL    HW269042  11.646   4.185   1.235
89049SOL     OW69043   9.624   8.154   2.575
89049SOL    HW169044   9.584   8.212   2.640
89049SOL    HW269045   9.553   8.094   2.551
89050SOL     OW69046  14.547   2.658  10.349
89050SOL    HW169047  14.570   2.571  10.380
89050SOL    HW269048  14.595   2.717  10.407
89051SOL     OW69049  14.362   5.237   5.835
89051SOL    HW169050  14.327   5.325   5.845
89051SOL    HW269051  14.452   5.243   5.867
89052SOL     OW69052  10.753  11.955   8.492
89052SOL    HW169053  10.686  11.992   8.434
89052SOL    HW269054  10.727  11.983   8.580
89053SOL     OW69055   5.247   0.366   0.425
89053SOL    HW169056   5.265   0.385   0.333
89053SOL    HW269057   5.321   0.313   0.454
89054SOL     OW69058   1.117   7.656  10.065
89054SOL    HW169059   1.050   7.648  10.133
89054SOL    HW269060   1.138   7.565  10.042
89055SOL     OW69061  11.855  14.219   6.335
89055SOL    HW169062  11.930  14.277   6.322
89055SOL    HW269063  11.802  14.264   6.401
89056SOL     OW69064  11.164   3.318  11.139
89056SOL    HW169065  11.106   3.383  11.179
89056SOL    HW269066  11.111   3.239  11.130
89057SOL     OW69067   3.778   7.009  12.664
89057SOL    HW169068   3.862   7.055  12.662
89057SOL    HW269069   3.769   6.973  12.576
89058SOL     OW69070  10.938   6.223   4.529
89058SOL    HW169071  10.875   6.185   4.468
89058SOL    HW269072  11.009   6.255   4.472
89059SOL     OW69073  10.879   6.844   4.181
89059SOL    HW169074  10.795   6.834   4.225
89059SOL    HW269075  10.869   6.921   4.125
89060SOL     OW69076   2.127   2.734   4.599
89060SOL    HW169077   2.212   2.720   4.640
89060SOL    HW269078   2.100   2.821   4.627
89061SOL     OW69079  10.323   0.515  11.734
89061SOL    HW169080  10.298   0.501  11.643
89061SOL    HW269081  10.281   0.598  11.758
89062SOL     OW69082   5.089   4.312   9.372
89062SOL    HW169083   5.020   4.348   9.428
89062SOL    HW269084   5.047   4.239   9.326
89063SOL     OW69085   7.317  11.194   6.640
89063SOL    HW169086   7.278  11.267   6.594
89063SOL    HW269087   7.335  11.228   6.728
89064SOL     OW69088  10.134   8.262   2.882
89064SOL    HW169089  10.048   8.245   2.921
89064SOL    HW269090  10.154   8.352   2.907
89065SOL     OW69091   6.410   2.459   9.865
89065SOL    HW169092   6.496   2.500   9.873
89065SOL    HW269093   6.349   2.532   9.854
89066SOL     OW69094  14.218  14.480   7.804
89066SOL    HW169095  14.231  14.442   7.892
89066SOL    HW269096  14.150  14.546   7.816
89067SOL     OW69097  12.000  13.181   3.872
89067SOL    HW169098  11.919  13.228   3.893
89067SOL    HW269099  12.001  13.108   3.934
89068SOL     OW69100  12.499  12.388   9.885
89068SOL    HW169101  12.448  12.318   9.844
89068SOL    HW269102  12.492  12.371   9.979
89069SOL     OW69103  11.883   2.373   1.744
89069SOL    HW169104  11.823   2.371   1.669
89069SOL    HW269105  11.826   2.361   1.820
89070SOL     OW69106   4.939   5.713  12.957
89070SOL    HW169107   5.026   5.724  12.919
89070SOL    HW269108   4.956   5.692  13.049
89071SOL     OW69109   9.586  12.511   6.317
89071SOL    HW169110   9.621  12.565   6.246
89071SOL    HW269111   9.624  12.424   6.303
89072SOL     OW69112   0.463   8.773   5.229
89072SOL    HW169113   0.457   8.729   5.145
89072SOL    HW269114   0.547   8.819   5.227
89073SOL     OW69115  10.775   2.917   4.433
89073SOL    HW169116  10.706   2.981   4.414
89073SOL    HW269117  10.846   2.969   4.471
89074SOL     OW69118   2.550  12.825   0.046
89074SOL    HW169119   2.599  12.776  14.852
89074SOL    HW269120   2.558  12.772   0.125
89075SOL     OW69121  13.658  10.203   7.423
89075SOL    HW169122  13.650  10.277   7.483
89075SOL    HW269123  13.714  10.141   7.469
89076SOL     OW69124   9.158  11.744  12.591
89076SOL    HW169125   9.156  11.667  12.533
89076SOL    HW269126   9.108  11.717  12.668
89077SOL     OW69127   1.436   2.983   4.907
89077SOL    HW169128   1.395   2.910   4.953
89077SOL    HW269129   1.363   3.029   4.865
89078SOL     OW69130  10.835   3.732   3.574
89078SOL    HW169131  10.916   3.775   3.602
89078SOL    HW269132  10.863   3.673   3.504
89079SOL     OW69133   0.933  13.743   8.833
89079SOL    HW169134   0.935  13.751   8.928
89079SOL    HW269135   1.025  13.735   8.807
89080SOL     OW69136   7.643   4.972   5.214
89080SOL    HW169137   7.662   4.883   5.185
89080SOL    HW269138   7.665   5.027   5.139
89081SOL     OW69139  12.364   6.732  11.206
89081SOL    HW169140  12.322   6.791  11.269
89081SOL    HW269141  12.317   6.746  11.124
89082SOL     OW69142  10.049   8.114   0.284
89082SOL    HW169143  10.063   8.032   0.331
89082SOL    HW269144   9.959   8.108   0.251
89083SOL     OW69145   4.707   1.111   0.756
89083SOL    HW169146   4.776   1.073   0.810
89083SOL    HW269147   4.662   1.036   0.718
89084SOL     OW69148  11.349   8.536   7.438
89084SOL    HW169149  11.322   8.619   7.476
89084SOL    HW269150  11.288   8.521   7.366
89085SOL     OW69151  12.309   0.486  10.351
89085SOL    HW169152  12.254   0.416  10.385
89085SOL    HW269153  12.343   0.530  10.429
89086SOL     OW69154   7.425   2.350   4.756
89086SOL    HW169155   7.467   2.293   4.820
89086SOL    HW269156   7.497   2.401   4.719
89087SOL     OW69157   2.779  12.031  14.851
89087SOL    HW169158   2.759  11.938  14.862
89087SOL    HW269159   2.694  12.074  14.847
89088SOL     OW69160   9.838   3.026  13.568
89088SOL    HW169161   9.819   2.985  13.653
89088SOL    HW269162   9.927   3.062  13.579
89089SOL     OW69163   2.976   9.931   1.505
89089SOL    HW169164   3.022   9.950   1.423
89089SOL    HW269165   2.889   9.901   1.478
89090SOL     OW69166   4.410  10.575   3.742
89090SOL    HW169167   4.460  10.647   3.703
89090SOL    HW269168   4.320  10.608   3.744
89091SOL     OW69169   0.407   8.797   4.173
89091SOL    HW169170   0.476   8.733   4.190
89091SOL    HW269171   0.420   8.823   4.082
89092SOL     OW69172   1.838  10.163   9.142
89092SOL    HW169173   1.752  10.176   9.102
89092SOL    HW269174   1.901  10.181   9.071
89093SOL     OW69175  10.241  11.125   5.527
89093SOL    HW169176  10.151  11.159   5.524
89093SOL    HW269177  10.244  11.074   5.607
89094SOL     OW69178  12.342   5.790  10.962
89094SOL    HW169179  12.410   5.804  11.028
89094SOL    HW269180  12.260   5.802  11.010
89095SOL     OW69181  11.548   7.902  14.221
89095SOL    HW169182  11.626   7.953  14.198
89095SOL    HW269183  11.483   7.967  14.246
89096SOL     OW69184  11.108   4.438  12.559
89096SOL    HW169185  11.024   4.437  12.514
89096SOL    HW269186  11.095   4.384  12.637
89097SOL     OW69187   8.504   4.569   1.094
89097SOL    HW169188   8.454   4.643   1.061
89097SOL    HW269189   8.442   4.519   1.146
89098SOL     OW69190   7.385   0.350  12.558
89098SOL    HW169191   7.453   0.367  12.624
89098SOL    HW269192   7.384   0.429  12.505
89099SOL     OW69193   8.645   2.296   7.332
89099SOL    HW169194   8.652   2.213   7.379
89099SOL    HW269195   8.646   2.271   7.239
89100SOL     OW69196   5.824   1.679   6.069
89100SOL    HW169197   5.864   1.747   6.016
89100SOL    HW269198   5.833   1.709   6.159
89101SOL     OW69199  12.211  10.646  14.161
89101SOL    HW169200  12.119  10.621  14.150
89101SOL    HW269201  12.210  10.708  14.234
89102SOL     OW69202   9.044   4.258   6.308
89102SOL    HW169203   9.073   4.268   6.398
89102SOL    HW269204   8.960   4.305   6.305
89103SOL     OW69205   4.611   5.631   8.622
89103SOL    HW169206   4.568   5.670   8.698
89103SOL    HW269207   4.689   5.685   8.608
89104SOL     OW69208  10.662   9.890  11.313
89104SOL    HW169209  10.598   9.913  11.380
89104SOL    HW269210  10.672   9.970  11.261
89105SOL     OW69211  11.621   6.139  13.771
89105SOL    HW169212  11.547   6.199  13.763
89105SOL    HW269213  11.635   6.130  13.865
89106SOL     OW69214   2.352  14.422   6.428
89106SOL    HW169215   2.405  14.344   6.447
89106SOL    HW269216   2.409  14.496   6.451
89107SOL     OW69217   6.660   6.450   4.338
89107SOL    HW169218   6.677   6.522   4.398
89107SOL    HW269219   6.732   6.452   4.275
89108SOL     OW69220  11.359   6.641   3.732
89108SOL    HW169221  11.417   6.707   3.694
89108SOL    HW269222  11.417   6.584   3.782
89109SOL     OW69223   4.956  13.982   5.503
89109SOL    HW169224   4.990  13.937   5.425
89109SOL    HW269225   4.861  13.980   5.492
89110SOL     OW69226   8.355   3.798   4.775
89110SOL    HW169227   8.315   3.864   4.719
89110SOL    HW269228   8.433   3.841   4.811
89111SOL     OW69229   7.723  10.226   6.707
89111SOL    HW169230   7.717  10.130   6.704
89111SOL    HW269231   7.652  10.255   6.650
89112SOL     OW69232   9.194   1.082   8.228
89112SOL    HW169233   9.238   1.027   8.292
89112SOL    HW269234   9.220   1.046   8.143
89113SOL     OW69235   9.578  14.421  14.624
89113SOL    HW169236   9.672  14.436  14.638
89113SOL    HW269237   9.571  14.402  14.530
89114SOL     OW69238  10.349   1.034  13.339
89114SOL    HW169239  10.277   1.010  13.280
89114SOL    HW269240  10.306   1.053  13.422
89115SOL     OW69241   2.442  14.453   1.635
89115SOL    HW169242   2.446  14.365   1.671
89115SOL    HW269243   2.532  14.476   1.616
89116SOL     OW69244   4.515   3.470  12.091
89116SOL    HW169245   4.566   3.473  12.010
89116SOL    HW269246   4.442   3.411  12.071
89117SOL     OW69247  13.041  12.455   0.822
89117SOL    HW169248  13.111  12.439   0.759
89117SOL    HW269249  13.080  12.514   0.887
89118SOL     OW69250   5.970   6.049   6.463
89118SOL    HW169251   5.905   6.117   6.445
89118SOL    HW269252   5.931   5.997   6.533
89119SOL     OW69253  12.792   6.220   6.528
89119SOL    HW169254  12.704   6.183   6.536
89119SOL    HW269255  12.795   6.256   6.439
89120SOL     OW69256   3.797   5.442  13.294
89120SOL    HW169257   3.717   5.472  13.336
89120SOL    HW269258   3.863   5.446  13.363
89121SOL     OW69259   1.681   4.293  12.554
89121SOL    HW169260   1.617   4.356  12.586
89121SOL    HW269261   1.715   4.250  12.632
89122SOL     OW69262   7.473   7.000  14.033
89122SOL    HW169263   7.464   7.036  14.121
89122SOL    HW269264   7.408   7.047  13.981
89123SOL     OW69265  14.577   3.155  11.251
89123SOL    HW169266  14.649   3.212  11.277
89123SOL    HW269267  14.619   3.070  11.235
89124SOL     OW69268  13.502   9.232   3.297
89124SOL    HW169269  13.539   9.157   3.344
89124SOL    HW269270  13.576   9.293   3.289
89125SOL     OW69271   2.543  14.716  10.397
89125SOL    HW169272   2.541  14.687  10.488
89125SOL    HW269273   2.453  14.743  10.378
89126SOL     OW69274   7.574  10.719  12.896
89126SOL    HW169275   7.650  10.663  12.912
89126SOL    HW269276   7.562  10.768  12.977
89127SOL     OW69277  11.645   7.353  12.026
89127SOL    HW169278  11.707   7.283  12.049
89127SOL    HW269279  11.634   7.403  12.107
89128SOL     OW69280   5.835   2.082  12.984
89128SOL    HW169281   5.806   2.084  12.893
89128SOL    HW269282   5.930   2.089  12.979
89129SOL     OW69283   8.601   1.283  14.249
89129SOL    HW169284   8.522   1.314  14.205
89129SOL    HW269285   8.601   1.188  14.235
89130SOL     OW69286   1.298  11.883  10.705
89130SOL    HW169287   1.364  11.814  10.711
89130SOL    HW269288   1.349  11.963  10.689
89131SOL     OW69289   3.672   0.856  10.607
89131SOL    HW169290   3.633   0.825  10.688
89131SOL    HW269291   3.766   0.854  10.623
89132SOL     OW69292  13.451   3.524  13.424
89132SOL    HW169293  13.370   3.557  13.383
89132SOL    HW269294  13.438   3.429  13.430
89133SOL     OW69295  14.046  10.789   3.454
89133SOL    HW169296  14.063  10.769   3.361
89133SOL    HW269297  13.967  10.843   3.453
89134SOL     OW69298  10.259   3.608   1.536
89134SOL    HW169299  10.275   3.514   1.549
89134SOL    HW269300  10.332   3.637   1.481
89135SOL     OW69301  13.113  14.082  12.988
89135SOL    HW169302  13.151  14.152  12.934
89135SOL    HW269303  13.134  14.108  13.077
89136SOL     OW69304   8.258  11.426  10.879
89136SOL    HW169305   8.266  11.491  10.809
89136SOL    HW269306   8.168  11.395  10.873
89137SOL     OW69307   3.282  14.187  14.341
89137SOL    HW169308   3.279  14.237  14.259
89137SOL    HW269309   3.362  14.134  14.334
89138SOL     OW69310   4.198  14.153  11.558
89138SOL    HW169311   4.185  14.151  11.463
89138SOL    HW269312   4.167  14.240  11.584
89139SOL     OW69313   0.726   0.160  10.454
89139SOL    HW169314   0.686   0.246  10.437
89139SOL    HW269315   0.714   0.111  10.372
89140SOL     OW69316   0.912  10.788   5.107
89140SOL    HW169317   0.828  10.746   5.124
89140SOL    HW269318   0.970  10.716   5.082
89141SOL     OW69319   2.490   8.351   4.530
89141SOL    HW169320   2.397   8.354   4.554
89141SOL    HW269321   2.490   8.321   4.440
89142SOL     OW69322  14.797  13.561  13.173
89142SOL    HW169323  14.859  13.634  13.171
89142SOL    HW269324  14.739  13.580  13.247
89143SOL     OW69325   8.500   6.180  10.770
89143SOL    HW169326   8.438   6.230  10.824
89143SOL    HW269327   8.470   6.195  10.680
89144SOL     OW69328   4.844   1.626   4.657
89144SOL    HW169329   4.859   1.532   4.665
89144SOL    HW269330   4.776   1.645   4.721
89145SOL     OW69331   8.551   4.301  11.883
89145SOL    HW169332   8.478   4.356  11.910
89145SOL    HW269333   8.558   4.235  11.952
89146SOL     OW69334   2.683  10.034   3.707
89146SOL    HW169335   2.744   9.961   3.714
89146SOL    HW269336   2.645  10.025   3.620
89147SOL     OW69337  11.698   5.245   0.560
89147SOL    HW169338  11.782   5.246   0.605
89147SOL    HW269339  11.681   5.337   0.540
89148SOL     OW69340  14.044   8.025  13.485
89148SOL    HW169341  14.055   7.934  13.515
89148SOL    HW269342  13.952   8.029  13.456
89149SOL     OW69343   4.355   7.815  11.989
89149SOL    HW169344   4.295   7.837  12.061
89149SOL    HW269345   4.353   7.891  11.931
89150SOL     OW69346   9.805  11.168  10.741
89150SOL    HW169347   9.785  11.261  10.753
89150SOL    HW269348   9.769  11.146  10.655
89151SOL     OW69349   4.831  10.762   9.199
89151SOL    HW169350   4.790  10.846   9.218
89151SOL    HW269351   4.760  10.698   9.207
89152SOL     OW69352  13.090   1.064  12.961
89152SOL    HW169353  13.009   1.108  12.934
89152SOL    HW269354  13.068   1.020  13.043
89153SOL     OW69355   9.609  10.963   4.638
89153SOL    HW169356   9.517  10.957   4.662
89153SOL    HW269357   9.652  10.893   4.686
89154SOL     OW69358  13.722   3.243   3.526
89154SOL    HW169359  13.791   3.192   3.566
89154SOL    HW269360  13.663   3.178   3.487
89155SOL     OW69361   0.032   5.089   5.217
89155SOL    HW169362   0.005   5.157   5.278
89155SOL    HW269363   0.092   5.034   5.268
89156SOL     OW69364  14.447   6.968   1.663
89156SOL    HW169365  14.476   7.033   1.598
89156SOL    HW269366  14.490   6.887   1.636
89157SOL     OW69367  10.229   6.947  14.495
89157SOL    HW169368  10.256   7.011  14.428
89157SOL    HW269369  10.261   6.863  14.462
89158SOL     OW69370  12.213   2.643  14.271
89158SOL    HW169371  12.273   2.589  14.322
89158SOL    HW269372  12.237   2.626  14.180
89159SOL     OW69373  12.781  11.452   8.089
89159SOL    HW169374  12.842  11.408   8.030
89159SOL    HW269375  12.768  11.390   8.160
89160SOL     OW69376  10.309  10.152   2.304
89160SOL    HW169377  10.323  10.062   2.275
89160SOL    HW269378  10.282  10.198   2.225
89161SOL     OW69379   6.348  10.296   1.669
89161SOL    HW169380   6.364  10.312   1.576
89161SOL    HW269381   6.275  10.355   1.691
89162SOL     OW69382   5.437   8.042   6.812
89162SOL    HW169383   5.471   7.966   6.766
89162SOL    HW269384   5.350   8.016   6.842
89163SOL     OW69385   6.461  10.128   9.113
89163SOL    HW169386   6.474  10.037   9.086
89163SOL    HW269387   6.550  10.163   9.122
89164SOL     OW69388   5.327   8.016   9.038
89164SOL    HW169389   5.406   8.059   9.004
89164SOL    HW269390   5.311   7.944   8.976
89165SOL     OW69391   0.686   5.929   8.986
89165SOL    HW169392   0.780   5.930   9.004
89165SOL    HW269393   0.645   5.909   9.070
89166SOL     OW69394   2.406   8.072   7.447
89166SOL    HW169395   2.456   8.148   7.417
89166SOL    HW269396   2.357   8.043   7.370
89167SOL     OW69397  11.566   4.782  11.569
89167SOL    HW169398  11.661   4.769  11.574
89167SOL    HW269399  11.534   4.750  11.653
89168SOL     OW69400  11.354   1.885   4.591
89168SOL    HW169401  11.268   1.877   4.633
89168SOL    HW269402  11.342   1.953   4.525
89169SOL     OW69403  11.315  10.548  11.549
89169SOL    HW169404  11.244  10.484  11.560
89169SOL    HW269405  11.346  10.564  11.639
89170SOL     OW69406  13.621   7.679   1.607
89170SOL    HW169407  13.648   7.594   1.641
89170SOL    HW269408  13.549   7.660   1.547
89171SOL     OW69409  13.714   9.638   4.999
89171SOL    HW169410  13.749   9.550   4.986
89171SOL    HW269411  13.620   9.627   4.992
89172SOL     OW69412   5.993  13.070   2.114
89172SOL    HW169413   6.062  13.051   2.051
89172SOL    HW269414   5.916  13.024   2.081
89173SOL     OW69415   2.950  10.139  13.118
89173SOL    HW169416   2.912  10.227  13.127
89173SOL    HW269417   2.898  10.098  13.050
89174SOL     OW69418  13.858   9.667  13.895
89174SOL    HW169419  13.783   9.664  13.835
89174SOL    HW269420  13.832   9.613  13.969
89175SOL     OW69421   9.225   7.537  13.550
89175SOL    HW169422   9.253   7.609  13.607
89175SOL    HW269423   9.178   7.580  13.479
89176SOL     OW69424  14.482  11.129   0.441
89176SOL    HW169425  14.439  11.075   0.376
89176SOL    HW269426  14.421  11.201   0.458
89177SOL     OW69427   3.443   1.039   1.164
89177SOL    HW169428   3.517   1.073   1.215
89177SOL    HW269429   3.461   0.945   1.156
89178SOL     OW69430   0.308   0.075   2.545
89178SOL    HW169431   0.227   0.060   2.593
89178SOL    HW269432   0.300   0.020   2.466
89179SOL     OW69433  13.815  14.361   4.114
89179SOL    HW169434  13.759  14.437   4.097
89179SOL    HW269435  13.863  14.347   4.033
89180SOL     OW69436   5.109   2.607   6.795
89180SOL    HW169437   5.111   2.513   6.812
89180SOL    HW269438   5.200   2.634   6.802
89181SOL     OW69439   5.267   4.636   3.656
89181SOL    HW169440   5.360   4.647   3.676
89181SOL    HW269441   5.223   4.665   3.736
89182SOL     OW69442  13.676  14.496  11.020
89182SOL    HW169443  13.662  14.496  10.925
89182SOL    HW269444  13.707  14.408  11.040
89183SOL     OW69445   7.924  11.303  10.364
89183SOL    HW169446   7.912  11.372  10.429
89183SOL    HW269447   7.946  11.225  10.415
89184SOL     OW69448  12.267  13.640   9.317
89184SOL    HW169449  12.211  13.609   9.388
89184SOL    HW269450  12.257  13.575   9.248
89185SOL     OW69451   8.531  14.746   5.835
89185SOL    HW169452   8.456  14.731   5.777
89185SOL    HW269453   8.493  14.751   5.923
89186SOL     OW69454  14.145   3.519   8.023
89186SOL    HW169455  14.113   3.446   7.970
89186SOL    HW269456  14.069   3.576   8.034
89187SOL     OW69457   2.689  11.746  11.910
89187SOL    HW169458   2.668  11.837  11.886
89187SOL    HW269459   2.653  11.694  11.838
89188SOL     OW69460  10.526   7.670  10.036
89188SOL    HW169461  10.460   7.666   9.967
89188SOL    HW269462  10.609   7.677   9.989
89189SOL     OW69463  12.038   6.954  10.815
89189SOL    HW169464  12.054   7.028  10.758
89189SOL    HW269465  12.018   6.992  10.900
89190SOL     OW69466  13.226  12.586   9.599
89190SOL    HW169467  13.317  12.580   9.628
89190SOL    HW269468  13.229  12.569   9.505
89191SOL     OW69469   1.031  14.299  13.339
89191SOL    HW169470   0.990  14.212  13.336
89191SOL    HW269471   0.992  14.341  13.416
89192SOL     OW69472  13.339   8.563  11.522
89192SOL    HW169473  13.370   8.620  11.452
89192SOL    HW269474  13.246   8.553  11.507
89193SOL     OW69475   1.778   1.816   5.857
89193SOL    HW169476   1.740   1.893   5.814
89193SOL    HW269477   1.858   1.848   5.898
89194SOL     OW69478  14.628   4.112   7.530
89194SOL    HW169479  14.710   4.064   7.520
89194SOL    HW269480  14.576   4.088   7.453
89195SOL     OW69481   9.444   8.656   6.521
89195SOL    HW169482   9.534   8.622   6.515
89195SOL    HW269483   9.449   8.727   6.585
89196SOL     OW69484   8.772   6.511   3.248
89196SOL    HW169485   8.679   6.525   3.229
89196SOL    HW269486   8.802   6.452   3.179
89197SOL     OW69487   9.185   0.403   0.445
89197SOL    HW169488   9.110   0.351   0.417
89197SOL    HW269489   9.188   0.476   0.383
89198SOL     OW69490   8.420  13.636  14.366
89198SOL    HW169491   8.507  13.659  14.398
89198SOL    HW269492   8.435  13.601  14.278
89199SOL     OW69493  12.381  12.746   7.750
89199SOL    HW169494  12.310  12.691   7.784
89199SOL    HW269495  12.357  12.835   7.777
89200SOL     OW69496   3.588   1.584   7.167
89200SOL    HW169497   3.559   1.658   7.219
89200SOL    HW269498   3.517   1.570   7.104
89201SOL     OW69499   0.226   1.179   4.691
89201SOL    HW169500   0.283   1.142   4.758
89201SOL    HW269501   0.285   1.199   4.618
89202SOL     OW69502   0.380   2.506   8.982
89202SOL    HW169503   0.390   2.578   8.918
89202SOL    HW269504   0.461   2.456   8.973
89203SOL     OW69505   5.001   8.608   6.878
89203SOL    HW169506   4.988   8.693   6.920
89203SOL    HW269507   5.089   8.614   6.840
89204SOL     OW69508  12.344   1.020   9.075
89204SOL    HW169509  12.249   1.006   9.068
89204SOL    HW269510  12.379   0.932   9.092
89205SOL     OW69511  13.070  13.022   7.095
89205SOL    HW169512  13.033  13.023   7.183
89205SOL    HW269513  12.997  12.998   7.038
89206SOL     OW69514  11.358   8.101  12.577
89206SOL    HW169515  11.319   8.188  12.567
89206SOL    HW269516  11.288   8.049  12.617
89207SOL     OW69517  13.236   5.035  12.405
89207SOL    HW169518  13.190   5.015  12.323
89207SOL    HW269519  13.306   4.971  12.410
89208SOL     OW69520   5.602   6.230  13.068
89208SOL    HW169521   5.652   6.228  12.986
89208SOL    HW269522   5.511   6.222  13.040
89209SOL     OW69523   7.597  10.232   8.179
89209SOL    HW169524   7.523  10.184   8.216
89209SOL    HW269525   7.660  10.164   8.155
89210SOL     OW69526   3.213   1.719  14.683
89210SOL    HW169527   3.146   1.758  14.741
89210SOL    HW269528   3.207   1.769  14.602
89211SOL     OW69529   9.495   7.652  13.219
89211SOL    HW169530   9.506   7.593  13.294
89211SOL    HW269531   9.583   7.681  13.198
89212SOL     OW69532   2.689  13.676  10.227
89212SOL    HW169533   2.688  13.604  10.164
89212SOL    HW269534   2.606  13.722  10.214
89213SOL     OW69535   3.627   0.663  13.640
89213SOL    HW169536   3.540   0.627  13.620
89213SOL    HW269537   3.686   0.589  13.629
89214SOL     OW69538  10.551   8.924  11.674
89214SOL    HW169539  10.620   8.872  11.633
89214SOL    HW269540  10.488   8.941  11.604
89215SOL     OW69541  12.034   1.094   8.258
89215SOL    HW169542  12.084   1.056   8.185
89215SOL    HW269543  12.059   1.186   8.258
89216SOL     OW69544   4.625   0.210  14.495
89216SOL    HW169545   4.693   0.152  14.530
89216SOL    HW269546   4.544   0.162  14.509
89217SOL     OW69547   8.424   5.021  11.183
89217SOL    HW169548   8.382   5.060  11.259
89217SOL    HW269549   8.352   4.999  11.124
89218SOL     OW69550  13.705   1.757  12.570
89218SOL    HW169551  13.755   1.792  12.496
89218SOL    HW269552  13.744   1.672  12.587
89219SOL     OW69553  14.865   1.151   1.161
89219SOL    HW169554   0.057   1.118   1.223
89219SOL    HW269555  14.803   1.079   1.150
89220SOL     OW69556   7.831   2.537   8.865
89220SOL    HW169557   7.743   2.505   8.887
89220SOL    HW269558   7.886   2.510   8.939
89221SOL     OW69559   4.626   1.895  11.985
89221SOL    HW169560   4.679   1.817  11.969
89221SOL    HW269561   4.663   1.934  12.064
89222SOL     OW69562   3.623   1.949   4.682
89222SOL    HW169563   3.622   1.998   4.599
89222SOL    HW269564   3.669   1.868   4.661
89223SOL     OW69565   0.728   1.457   6.439
89223SOL    HW169566   0.712   1.370   6.476
89223SOL    HW269567   0.823   1.464   6.434
89224SOL     OW69568   1.057   1.314   4.418
89224SOL    HW169569   1.072   1.406   4.439
89224SOL    HW269570   1.139   1.284   4.380
89225SOL     OW69571  12.673   3.313   6.576
89225SOL    HW169572  12.760   3.281   6.601
89225SOL    HW269573  12.691   3.391   6.524
89226SOL     OW69574   6.575   5.693   0.058
89226SOL    HW169575   6.643   5.724   0.118
89226SOL    HW269576   6.516   5.641   0.112
89227SOL     OW69577   1.051   4.138   3.139
89227SOL    HW169578   1.044   4.067   3.075
89227SOL    HW269579   0.962   4.148   3.174
89228SOL     OW69580   6.035   4.241   0.737
89228SOL    HW169581   5.990   4.309   0.686
89228SOL    HW269582   5.977   4.165   0.732
89229SOL     OW69583  11.501   0.564  11.032
89229SOL    HW169584  11.503   0.512  10.952
89229SOL    HW269585  11.565   0.522  11.090
89230SOL     OW69586   4.260  14.293  13.272
89230SOL    HW169587   4.293  14.218  13.223
89230SOL    HW269588   4.197  14.335  13.213
89231SOL     OW69589  11.812  13.988   0.618
89231SOL    HW169590  11.747  14.027   0.675
89231SOL    HW269591  11.895  14.002   0.663
89232SOL     OW69592   5.756   7.721   2.653
89232SOL    HW169593   5.801   7.719   2.569
89232SOL    HW269594   5.729   7.630   2.667
89233SOL     OW69595   2.224   8.182   6.677
89233SOL    HW169596   2.159   8.252   6.687
89233SOL    HW269597   2.233   8.171   6.583
89234SOL     OW69598   7.894  13.431   7.876
89234SOL    HW169599   7.935  13.518   7.878
89234SOL    HW269600   7.953  13.378   7.823
89235SOL     OW69601  13.504   1.320   1.326
89235SOL    HW169602  13.414   1.347   1.305
89235SOL    HW269603  13.493   1.236   1.370
89236SOL     OW69604   2.581   6.693   9.773
89236SOL    HW169605   2.674   6.678   9.760
89236SOL    HW269606   2.565   6.782   9.742
89237SOL     OW69607   6.208  11.429  10.309
89237SOL    HW169608   6.267  11.448  10.236
89237SOL    HW269609   6.174  11.342  10.292
89238SOL     OW69610  10.619  13.603   7.536
89238SOL    HW169611  10.643  13.545   7.609
89238SOL    HW269612  10.664  13.564   7.461
89239SOL     OW69613  11.458   9.892   1.949
89239SOL    HW169614  11.394   9.939   1.895
89239SOL    HW269615  11.413   9.879   2.033
89240SOL     OW69616   7.793  10.521   8.921
89240SOL    HW169617   7.758  10.447   8.871
89240SOL    HW269618   7.832  10.481   8.999
89241SOL     OW69619  10.736   1.429  14.230
89241SOL    HW169620  10.645   1.458  14.222
89241SOL    HW269621  10.738   1.343  14.189
89242SOL     OW69622   0.438   1.523  12.601
89242SOL    HW169623   0.462   1.438  12.638
89242SOL    HW269624   0.426   1.506  12.507
89243SOL     OW69625   6.719   0.805   5.131
89243SOL    HW169626   6.794   0.853   5.095
89243SOL    HW269627   6.725   0.818   5.225
89244SOL     OW69628   6.838  12.500   9.330
89244SOL    HW169629   6.875  12.483   9.416
89244SOL    HW269630   6.793  12.584   9.340
89245SOL     OW69631   5.809  13.116   4.000
89245SOL    HW169632   5.774  13.205   3.997
89245SOL    HW269633   5.882  13.117   3.937
89246SOL     OW69634  13.459   9.460  13.635
89246SOL    HW169635  13.445   9.391  13.570
89246SOL    HW269636  13.452   9.416  13.719
89247SOL     OW69637  10.713   7.905  11.940
89247SOL    HW169638  10.715   7.973  12.007
89247SOL    HW269639  10.678   7.949  11.862
89248SOL     OW69640   4.875   2.478   2.828
89248SOL    HW169641   4.849   2.504   2.739
89248SOL    HW269642   4.918   2.394   2.816
89249SOL     OW69643  12.250  10.086   1.134
89249SOL    HW169644  12.174  10.142   1.147
89249SOL    HW269645  12.259  10.080   1.039
89250SOL     OW69646  12.495   4.704   1.888
89250SOL    HW169647  12.411   4.727   1.928
89250SOL    HW269648  12.514   4.616   1.920
89251SOL     OW69649  10.312   3.793   8.890
89251SOL    HW169650  10.228   3.748   8.898
89251SOL    HW269651  10.350   3.789   8.977
89252SOL     OW69652  10.441  13.544  12.422
89252SOL    HW169653  10.451  13.467  12.365
89252SOL    HW269654  10.471  13.514  12.508
89253SOL     OW69655   4.677  13.240  13.193
89253SOL    HW169656   4.616  13.310  13.215
89253SOL    HW269657   4.763  13.281  13.201
89254SOL     OW69658   0.743   6.920  13.958
89254SOL    HW169659   0.791   6.841  13.986
89254SOL    HW269660   0.651   6.899  13.974
89255SOL     OW69661   1.542  10.439   7.422
89255SOL    HW169662   1.598  10.498   7.473
89255SOL    HW269663   1.549  10.355   7.468
89256SOL     OW69664   3.688   6.206  14.047
89256SOL    HW169665   3.628   6.146  14.093
89256SOL    HW269666   3.714   6.158  13.969
89257SOL     OW69667  13.358   3.796  11.966
89257SOL    HW169668  13.437   3.830  12.009
89257SOL    HW269669  13.352   3.844  11.884
89258SOL     OW69670   6.908  13.722  11.719
89258SOL    HW169671   6.886  13.638  11.679
89258SOL    HW269672   6.829  13.746  11.768
89259SOL     OW69673   6.220  10.553   2.445
89259SOL    HW169674   6.268  10.635   2.432
89259SOL    HW269675   6.161  10.548   2.370
89260SOL     OW69676   3.314   8.885  12.399
89260SOL    HW169677   3.333   8.808  12.346
89260SOL    HW269678   3.231   8.866  12.442
89261SOL     OW69679   6.119   1.622  11.475
89261SOL    HW169680   6.054   1.643  11.542
89261SOL    HW269681   6.141   1.706  11.436
89262SOL     OW69682   4.153  12.865   3.685
89262SOL    HW169683   4.208  12.919   3.742
89262SOL    HW269684   4.101  12.812   3.745
89263SOL     OW69685   1.097   6.401  14.482
89263SOL    HW169686   1.079   6.315  14.445
89263SOL    HW269687   1.185   6.422  14.451
89264SOL     OW69688  10.911   5.499   4.533
89264SOL    HW169689  10.821   5.498   4.500
89264SOL    HW269690  10.943   5.587   4.514
89265SOL     OW69691   8.977   6.781  10.004
89265SOL    HW169692   8.893   6.823   9.987
89265SOL    HW269693   9.039   6.854  10.012
89266SOL     OW69694   6.852  10.299   0.537
89266SOL    HW169695   6.894  10.361   0.596
89266SOL    HW269696   6.925  10.260   0.488
89267SOL     OW69697   5.331  10.755   8.372
89267SOL    HW169698   5.273  10.679   8.381
89267SOL    HW269699   5.295  10.819   8.434
89268SOL     OW69700   9.768  13.827   3.847
89268SOL    HW169701   9.849  13.877   3.841
89268SOL    HW269702   9.736  13.844   3.935
89269SOL     OW69703   7.181  14.271   0.090
89269SOL    HW169704   7.132  14.263   0.008
89269SOL    HW269705   7.246  14.200   0.086
89270SOL     OW69706   9.553   9.109  14.532
89270SOL    HW169707   9.535   9.172  14.462
89270SOL    HW269708   9.613   9.045  14.493
89271SOL     OW69709   5.791  14.324   7.345
89271SOL    HW169710   5.885  14.310   7.355
89271SOL    HW269711   5.783  14.379   7.267
89272SOL     OW69712   8.751  14.164   2.273
89272SOL    HW169713   8.725  14.087   2.222
89272SOL    HW269714   8.669  14.212   2.287
89273SOL     OW69715   1.527   6.516   9.393
89273SOL    HW169716   1.572   6.581   9.448
89273SOL    HW269717   1.464   6.568   9.342
89274SOL     OW69718   1.860   8.594  11.547
89274SOL    HW169719   1.927   8.609  11.481
89274SOL    HW269720   1.781   8.636  11.512
89275SOL     OW69721   7.048   1.987   3.639
89275SOL    HW169722   7.079   2.071   3.608
89275SOL    HW269723   7.014   1.943   3.562
89276SOL     OW69724  14.461  10.131   6.980
89276SOL    HW169725  14.408  10.077   6.921
89276SOL    HW269726  14.512  10.186   6.921
89277SOL     OW69727  14.514  11.229   4.268
89277SOL    HW169728  14.421  11.249   4.259
89277SOL    HW269729  14.555  11.312   4.291
89278SOL     OW69730   4.008   0.346   0.125
89278SOL    HW169731   3.936   0.328   0.065
89278SOL    HW269732   4.061   0.412   0.081
89279SOL     OW69733   6.720   5.799   8.394
89279SOL    HW169734   6.674   5.876   8.427
89279SOL    HW269735   6.673   5.776   8.314
89280SOL     OW69736   0.267  13.174   9.346
89280SOL    HW169737   0.182  13.136   9.368
89280SOL    HW269738   0.287  13.140   9.259
89281SOL     OW69739   7.547   9.620   7.432
89281SOL    HW169740   7.549   9.571   7.350
89281SOL    HW269741   7.481   9.687   7.418
89282SOL     OW69742   8.063  11.438   0.774
89282SOL    HW169743   8.035  11.506   0.713
89282SOL    HW269744   8.032  11.356   0.736
89283SOL     OW69745   7.045  10.255   8.561
89283SOL    HW169746   7.100  10.190   8.518
89283SOL    HW269747   7.101  10.293   8.629
89284SOL     OW69748   9.685  12.379   3.341
89284SOL    HW169749   9.706  12.471   3.333
89284SOL    HW269750   9.651  12.370   3.430
89285SOL     OW69751   0.722   2.962   4.438
89285SOL    HW169752   0.745   3.055   4.437
89285SOL    HW269753   0.734   2.935   4.529
89286SOL     OW69754  12.184   8.480   6.106
89286SOL    HW169755  12.160   8.456   6.196
89286SOL    HW269756  12.116   8.541   6.079
89287SOL     OW69757   9.019   0.141  11.094
89287SOL    HW169758   8.990   0.232  11.097
89287SOL    HW269759   8.942   0.091  11.122
89288SOL     OW69760  13.486   6.496  10.846
89288SOL    HW169761  13.575   6.482  10.877
89288SOL    HW269762  13.477   6.591  10.841
89289SOL     OW69763  14.228   2.507   1.852
89289SOL    HW169764  14.249   2.479   1.763
89289SOL    HW269765  14.216   2.601   1.845
89290SOL     OW69766   5.452   3.315  13.454
89290SOL    HW169767   5.511   3.385  13.482
89290SOL    HW269768   5.472   3.242  13.512
89291SOL     OW69769  12.791  12.353  11.073
89291SOL    HW169770  12.764  12.428  11.019
89291SOL    HW269771  12.775  12.277  11.018
89292SOL     OW69772   9.025   3.023   7.948
89292SOL    HW169773   9.002   2.980   7.866
89292SOL    HW269774   9.101   3.078   7.926
89293SOL     OW69775   7.421   4.345   2.749
89293SOL    HW169776   7.329   4.365   2.736
89293SOL    HW269777   7.467   4.419   2.710
89294SOL     OW69778   3.876  10.522  11.975
89294SOL    HW169779   3.950  10.476  11.935
89294SOL    HW269780   3.824  10.453  12.016
89295SOL     OW69781   4.784   8.025   6.663
89295SOL    HW169782   4.780   8.120   6.670
89295SOL    HW269783   4.855   8.009   6.600
89296SOL     OW69784   1.315   5.082   5.165
89296SOL    HW169785   1.241   5.087   5.226
89296SOL    HW269786   1.370   5.012   5.200
89297SOL     OW69787  14.771   2.884   0.228
89297SOL    HW169788  14.687   2.929   0.223
89297SOL    HW269789  14.806   2.889   0.138
89298SOL     OW69790   7.640  14.112   9.584
89298SOL    HW169791   7.645  14.205   9.607
89298SOL    HW269792   7.707  14.070   9.638
89299SOL     OW69793   7.625   0.416  14.127
89299SOL    HW169794   7.612   0.507  14.154
89299SOL    HW269795   7.548   0.395  14.075
89300SOL     OW69796  12.269   1.008   3.477
89300SOL    HW169797  12.358   1.030   3.502
89300SOL    HW269798  12.234   1.087   3.437
89301SOL     OW69799   2.873  10.605   1.408
89301SOL    HW169800   2.937  10.602   1.479
89301SOL    HW269801   2.920  10.643   1.334
89302SOL     OW69802  13.305   1.943   3.484
89302SOL    HW169803  13.245   1.918   3.414
89302SOL    HW269804  13.291   1.877   3.552
89303SOL     OW69805   9.127   7.217   9.351
89303SOL    HW169806   9.046   7.178   9.318
89303SOL    HW269807   9.139   7.296   9.299
89304SOL     OW69808  12.906   5.562   1.272
89304SOL    HW169809  12.972   5.590   1.336
89304SOL    HW269810  12.939   5.594   1.189
89305SOL     OW69811   0.846  10.253   1.698
89305SOL    HW169812   0.914  10.193   1.666
89305SOL    HW269813   0.780  10.195   1.738
89306SOL     OW69814  11.532   6.191   0.212
89306SOL    HW169815  11.578   6.260   0.261
89306SOL    HW269816  11.483   6.143   0.278
89307SOL     OW69817   5.450   4.511  13.450
89307SOL    HW169818   5.417   4.439  13.503
89307SOL    HW269819   5.545   4.501  13.452
89308SOL     OW69820   5.379   6.791   0.450
89308SOL    HW169821   5.357   6.870   0.501
89308SOL    HW269822   5.300   6.773   0.399
89309SOL     OW69823   8.142   2.212   8.962
89309SOL    HW169824   8.154   2.278   8.893
89309SOL    HW269825   8.154   2.128   8.917
89310SOL     OW69826   5.121  13.049   9.925
89310SOL    HW169827   5.189  13.111   9.900
89310SOL    HW269828   5.117  12.987   9.852
89311SOL     OW69829   9.328   5.268   7.057
89311SOL    HW169830   9.312   5.180   7.092
89311SOL    HW269831   9.245   5.314   7.070
89312SOL     OW69832   7.736   5.362   3.333
89312SOL    HW169833   7.796   5.323   3.269
89312SOL    HW269834   7.781   5.442   3.362
89313SOL     OW69835   3.884   6.622   4.821
89313SOL    HW169836   3.886   6.607   4.916
89313SOL    HW269837   3.901   6.716   4.812
89314SOL     OW69838   7.573   3.204  13.772
89314SOL    HW169839   7.481   3.201  13.799
89314SOL    HW269840   7.570   3.219  13.678
89315SOL     OW69841   0.509  13.144   1.900
89315SOL    HW169842   0.586  13.195   1.925
89315SOL    HW269843   0.447  13.208   1.864
89316SOL     OW69844  13.719  13.997  10.655
89316SOL    HW169845  13.798  13.948  10.632
89316SOL    HW269846  13.655  13.970  10.589
89317SOL     OW69847   0.632   7.850   7.796
89317SOL    HW169848   0.669   7.794   7.728
89317SOL    HW269849   0.598   7.926   7.749
89318SOL     OW69850  10.120   4.590  10.235
89318SOL    HW169851  10.134   4.548  10.150
89318SOL    HW269852  10.177   4.542  10.295
89319SOL     OW69853   0.960  14.614  11.197
89319SOL    HW169854   0.969  14.588  11.105
89319SOL    HW269855   1.048  14.603  11.233
89320SOL     OW69856   9.731   7.087   7.253
89320SOL    HW169857   9.730   7.068   7.159
89320SOL    HW269858   9.682   7.169   7.261
89321SOL     OW69859  14.641   5.924   7.109
89321SOL    HW169860  14.659   5.844   7.159
89321SOL    HW269861  14.574   5.898   7.046
89322SOL     OW69862   1.519   2.316   7.461
89322SOL    HW169863   1.583   2.269   7.514
89322SOL    HW269864   1.568   2.388   7.422
89323SOL     OW69865   5.140  12.217  13.942
89323SOL    HW169866   5.116  12.306  13.919
89323SOL    HW269867   5.105  12.163  13.871
89324SOL     OW69868   3.982  13.651   0.034
89324SOL    HW169869   4.013  13.718   0.095
89324SOL    HW269870   4.021  13.674  14.823
89325SOL     OW69871   4.910  11.957  13.674
89325SOL    HW169872   4.849  11.938  13.746
89325SOL    HW269873   4.855  11.970  13.598
89326SOL     OW69874   4.844  12.748   7.299
89326SOL    HW169875   4.846  12.653   7.283
89326SOL    HW269876   4.770  12.779   7.247
89327SOL     OW69877   5.020   1.034  10.842
89327SOL    HW169878   5.110   1.007  10.825
89327SOL    HW269879   5.016   1.125  10.812
89328SOL     OW69880  12.816   0.691   2.453
89328SOL    HW169881  12.881   0.639   2.501
89328SOL    HW269882  12.812   0.774   2.500
89329SOL     OW69883  10.845  13.251   0.199
89329SOL    HW169884  10.791  13.178   0.169
89329SOL    HW269885  10.794  13.291   0.269
89330SOL     OW69886   9.564  14.519   3.221
89330SOL    HW169887   9.658  14.504   3.234
89330SOL    HW269888   9.521  14.454   3.277
89331SOL     OW69889   1.677   8.025   9.130
89331SOL    HW169890   1.600   7.970   9.114
89331SOL    HW269891   1.716   7.989   9.210
89332SOL     OW69892  13.373  14.034   0.349
89332SOL    HW169893  13.349  14.120   0.313
89332SOL    HW269894  13.296  14.007   0.399
89333SOL     OW69895  10.134   2.438  14.852
89333SOL    HW169896  10.072   2.496  14.809
89333SOL    HW269897  10.098   2.426   0.068
89334SOL     OW69898  11.652   9.305  12.844
89334SOL    HW169899  11.652   9.364  12.769
89334SOL    HW269900  11.619   9.222  12.809
89335SOL     OW69901   9.890   0.148  11.488
89335SOL    HW169902   9.821   0.085  11.467
89335SOL    HW269903   9.899   0.142  11.583
89336SOL     OW69904   9.873   6.032   6.607
89336SOL    HW169905   9.793   6.072   6.573
89336SOL    HW269906   9.904   6.093   6.675
89337SOL     OW69907   2.420   7.798   0.358
89337SOL    HW169908   2.491   7.862   0.350
89337SOL    HW269909   2.451   7.737   0.425
89338SOL     OW69910  11.272  10.811   4.710
89338SOL    HW169911  11.194  10.778   4.756
89338SOL    HW269912  11.306  10.879   4.768
89339SOL     OW69913  13.504  12.538   9.081
89339SOL    HW169914  13.434  12.474   9.065
89339SOL    HW269915  13.458  12.621   9.093
89340SOL     OW69916  12.334  10.699   5.567
89340SOL    HW169917  12.327  10.607   5.591
89340SOL    HW269918  12.360  10.699   5.475
89341SOL     OW69919   3.480  13.033   1.356
89341SOL    HW169920   3.459  12.973   1.427
89341SOL    HW269921   3.404  13.092   1.351
89342SOL     OW69922   7.827   5.007  13.031
89342SOL    HW169923   7.877   5.073  12.983
89342SOL    HW269924   7.884   4.983  13.104
89343SOL     OW69925   6.631  13.757   4.022
89343SOL    HW169926   6.567  13.756   3.950
89343SOL    HW269927   6.587  13.806   4.092
89344SOL     OW69928   0.269   8.556   8.811
89344SOL    HW169929   0.349   8.593   8.847
89344SOL    HW269930   0.198   8.608   8.849
89345SOL     OW69931   1.415  12.358  10.152
89345SOL    HW169932   1.341  12.311  10.113
89345SOL    HW269933   1.374  12.421  10.211
89346SOL     OW69934   1.146   9.798  14.608
89346SOL    HW169935   1.082   9.830  14.544
89346SOL    HW269936   1.222   9.772  14.555
89347SOL     OW69937   5.040   0.901   2.153
89347SOL    HW169938   5.136   0.894   2.160
89347SOL    HW269939   5.022   0.879   2.061
89348SOL     OW69940   8.114   8.483   8.990
89348SOL    HW169941   8.108   8.445   9.078
89348SOL    HW269942   8.144   8.573   9.004
89349SOL     OW69943  12.263   0.577   2.504
89349SOL    HW169944  12.352   0.571   2.540
89349SOL    HW269945  12.272   0.632   2.427
89350SOL     OW69946   1.640  13.765   5.774
89350SOL    HW169947   1.614  13.676   5.750
89350SOL    HW269948   1.649  13.763   5.869
89351SOL     OW69949  14.231   9.517  12.003
89351SOL    HW169950  14.137   9.521  12.022
89351SOL    HW269951  14.247   9.592  11.945
89352SOL     OW69952   3.695  13.787  10.854
89352SOL    HW169953   3.610  13.830  10.850
89352SOL    HW269954   3.741  13.819  10.777
89353SOL     OW69955   4.639   0.945  10.679
89353SOL    HW169956   4.546   0.934  10.657
89353SOL    HW269957   4.681   0.866  10.646
89354SOL     OW69958   2.181  12.316   4.249
89354SOL    HW169959   2.090  12.326   4.279
89354SOL    HW269960   2.182  12.355   4.162
89355SOL     OW69961   8.091   8.086  10.405
89355SOL    HW169962   8.065   8.141  10.331
89355SOL    HW269963   8.173   8.046  10.378
89356SOL     OW69964  11.620   3.542   3.768
89356SOL    HW169965  11.683   3.551   3.696
89356SOL    HW269966  11.558   3.613   3.755
89357SOL     OW69967   7.306   5.034   4.544
89357SOL    HW169968   7.385   4.979   4.545
89357SOL    HW269969   7.291   5.052   4.452
89358SOL     OW69970   8.665  11.014   6.684
89358SOL    HW169971   8.685  11.103   6.714
89358SOL    HW269972   8.660  11.023   6.588
89359SOL     OW69973   2.451  10.891   3.246
89359SOL    HW169974   2.509  10.823   3.281
89359SOL    HW269975   2.504  10.971   3.247
89360SOL     OW69976   3.464   5.618   1.316
89360SOL    HW169977   3.425   5.703   1.297
89360SOL    HW269978   3.411   5.555   1.267
89361SOL     OW69979   2.806   0.517   1.052
89361SOL    HW169980   2.727   0.571   1.048
89361SOL    HW269981   2.784   0.447   1.113
89362SOL     OW69982  14.318  12.086   3.475
89362SOL    HW169983  14.369  12.167   3.473
89362SOL    HW269984  14.270  12.090   3.557
89363SOL     OW69985   8.177  12.559  14.722
89363SOL    HW169986   8.167  12.652  14.742
89363SOL    HW269987   8.233  12.557  14.644
89364SOL     OW69988  12.042   0.029   3.304
89364SOL    HW169989  12.020   0.081   3.226
89364SOL    HW269990  12.137   0.018   3.299
89365SOL     OW69991   0.348   0.953   6.929
89365SOL    HW169992   0.314   0.906   7.006
89365SOL    HW269993   0.367   0.884   6.866
89366SOL     OW69994  11.377   3.244   4.005
89366SOL    HW169995  11.365   3.202   3.920
89366SOL    HW269996  11.422   3.178   4.058
89367SOL     OW69997  12.031  13.126   0.088
89367SOL    HW169998  12.022  13.072   0.009
89367SOL    HW269999  11.941  13.151   0.110
89368SOL     OW70000   4.768   3.874  10.127
89368SOL    HW170001   4.741   3.848  10.039
89368SOL    HW270002   4.720   3.955  10.144
89369SOL     OW70003   6.271   2.946  12.638
89369SOL    HW170004   6.230   2.893  12.707
89369SOL    HW270005   6.292   2.884  12.569
89370SOL     OW70006  13.495   5.684   4.708
89370SOL    HW170007  13.542   5.701   4.789
89370SOL    HW270008  13.452   5.599   4.723
89371SOL     OW70009   2.790   7.189   3.226
89371SOL    HW170010   2.717   7.146   3.181
89371SOL    HW270011   2.859   7.194   3.159
89372SOL     OW70012   7.902   8.951   6.811
89372SOL    HW170013   7.962   8.948   6.886
89372SOL    HW270014   7.875   8.860   6.798
89373SOL     OW70015   9.197   5.715  12.295
89373SOL    HW170016   9.198   5.769  12.374
89373SOL    HW270017   9.121   5.746  12.246
89374SOL     OW70018   4.738  14.296   9.669
89374SOL    HW170019   4.661  14.347   9.644
89374SOL    HW270020   4.729  14.283   9.764
89375SOL     OW70021   2.255   4.302  12.292
89375SOL    HW170022   2.256   4.212  12.324
89375SOL    HW270023   2.163   4.320  12.272
89376SOL     OW70024   5.129  10.057  13.523
89376SOL    HW170025   5.045  10.080  13.483
89376SOL    HW270026   5.129  10.102  13.608
89377SOL     OW70027   2.381   0.718  10.310
89377SOL    HW170028   2.346   0.642  10.357
89377SOL    HW270029   2.343   0.712  10.223
89378SOL     OW70030   2.719   1.667   4.446
89378SOL    HW170031   2.639   1.617   4.463
89378SOL    HW270032   2.715   1.741   4.507
89379SOL     OW70033   9.694   2.547   1.153
89379SOL    HW170034   9.686   2.575   1.062
89379SOL    HW270035   9.727   2.457   1.147
89380SOL     OW70036  10.287   4.089   9.911
89380SOL    HW170037  10.203   4.051   9.938
89380SOL    HW270038  10.310   4.043   9.831
89381SOL     OW70039   6.007   8.341   0.758
89381SOL    HW170040   6.007   8.292   0.840
89381SOL    HW270041   6.022   8.275   0.690
89382SOL     OW70042  11.153   6.969   4.570
89382SOL    HW170043  11.192   6.956   4.483
89382SOL    HW270044  11.142   7.064   4.577
89383SOL     OW70045   5.362   7.320   5.325
89383SOL    HW170046   5.367   7.408   5.362
89383SOL    HW270047   5.407   7.264   5.388
89384SOL     OW70048  10.061   4.253   6.199
89384SOL    HW170049  10.040   4.345   6.214
89384SOL    HW270050   9.978   4.207   6.212
89385SOL     OW70051  10.635   6.262  13.466
89385SOL    HW170052  10.601   6.173  13.459
89385SOL    HW270053  10.602   6.293  13.551
89386SOL     OW70054   8.790   2.592  11.439
89386SOL    HW170055   8.743   2.510  11.427
89386SOL    HW270056   8.789   2.634  11.353
89387SOL     OW70057   9.074   8.720  13.699
89387SOL    HW170058   9.163   8.728  13.664
89387SOL    HW270059   9.083   8.665  13.777
89388SOL     OW70060   8.830   9.495  12.940
89388SOL    HW170061   8.774   9.569  12.965
89388SOL    HW270062   8.785   9.418  12.976
89389SOL     OW70063  12.700   4.012  10.474
89389SOL    HW170064  12.772   4.004  10.536
89389SOL    HW270065  12.725   3.955  10.401
89390SOL     OW70066   9.607  14.413  12.055
89390SOL    HW170067   9.652  14.429  12.138
89390SOL    HW270068   9.555  14.492  12.040
89391SOL     OW70069  12.793  12.182   9.227
89391SOL    HW170070  12.782  12.104   9.173
89391SOL    HW270071  12.877  12.170   9.271
89392SOL     OW70072  14.455   7.516   8.916
89392SOL    HW170073  14.453   7.576   8.991
89392SOL    HW270074  14.369   7.474   8.916
89393SOL     OW70075   7.518   1.760   1.250
89393SOL    HW170076   7.434   1.717   1.267
89393SOL    HW270077   7.523   1.768   1.155
89394SOL     OW70078   0.430  13.611  14.529
89394SOL    HW170079   0.375  13.681  14.496
89394SOL    HW270080   0.506  13.656  14.566
89395SOL     OW70081  10.120  13.298   3.088
89395SOL    HW170082  10.062  13.309   3.013
89395SOL    HW270083  10.099  13.211   3.122
89396SOL     OW70084  12.374   3.265   1.705
89396SOL    HW170085  12.290   3.276   1.749
89396SOL    HW270086  12.365   3.314   1.624
89397SOL     OW70087  11.390  10.661   9.016
89397SOL    HW170088  11.463  10.722   9.020
89397SOL    HW270089  11.314  10.715   8.996
89398SOL     OW70090   3.531   1.959  10.507
89398SOL    HW170091   3.607   1.976  10.451
89398SOL    HW270092   3.561   1.978  10.595
89399SOL     OW70093   6.634   6.374   9.924
89399SOL    HW170094   6.563   6.310   9.915
89399SOL    HW270095   6.609   6.427  10.000
89400SOL     OW70096   2.943  12.279   1.853
89400SOL    HW170097   2.910  12.303   1.766
89400SOL    HW270098   2.998  12.203   1.837
89401SOL     OW70099   5.503   6.958   5.169
89401SOL    HW170100   5.553   6.970   5.250
89401SOL    HW270101   5.556   7.001   5.101
89402SOL     OW70102   9.781  11.209  13.485
89402SOL    HW170103   9.827  11.126  13.497
89402SOL    HW270104   9.821  11.268  13.550
89403SOL     OW70105   7.142   4.187   7.794
89403SOL    HW170106   7.185   4.158   7.874
89403SOL    HW270107   7.051   4.156   7.803
89404SOL     OW70108   1.290  14.619   9.777
89404SOL    HW170109   1.363  14.628   9.838
89404SOL    HW270110   1.320  14.556   9.711
89405SOL     OW70111   9.980   2.835   1.775
89405SOL    HW170112  10.053   2.840   1.713
89405SOL    HW270113   9.982   2.745   1.806
89406SOL     OW70114  12.569  10.681  13.853
89406SOL    HW170115  12.536  10.634  13.776
89406SOL    HW270116  12.538  10.629  13.927
89407SOL     OW70117  13.399  13.569   1.827
89407SOL    HW170118  13.444  13.532   1.751
89407SOL    HW270119  13.464  13.565   1.897
89408SOL     OW70120   5.263  14.551   6.220
89408SOL    HW170121   5.343  14.556   6.167
89408SOL    HW270122   5.269  14.624   6.281
89409SOL     OW70123   7.601  10.511  11.512
89409SOL    HW170124   7.522  10.517  11.459
89409SOL    HW270125   7.664  10.569  11.469
89410SOL     OW70126   9.536   8.824  13.774
89410SOL    HW170127   9.527   8.791  13.685
89410SOL    HW270128   9.460   8.880  13.787
89411SOL     OW70129   2.153   5.721  10.991
89411SOL    HW170130   2.156   5.637  11.036
89411SOL    HW270131   2.062   5.731  10.964
89412SOL     OW70132  12.962   5.017   2.454
89412SOL    HW170133  13.014   5.007   2.375
89412SOL    HW270134  13.024   5.047   2.521
89413SOL     OW70135  13.275  11.620   1.186
89413SOL    HW170136  13.197  11.598   1.134
89413SOL    HW270137  13.281  11.549   1.250
89414SOL     OW70138   0.820   4.696  10.120
89414SOL    HW170139   0.762   4.720  10.048
89414SOL    HW270140   0.762   4.671  10.192
89415SOL     OW70141   6.791   8.526   8.107
89415SOL    HW170142   6.814   8.510   8.198
89415SOL    HW270143   6.822   8.448   8.061
89416SOL     OW70144  12.298   4.867  13.992
89416SOL    HW170145  12.377   4.878  14.043
89416SOL    HW270146  12.268   4.955  13.972
89417SOL     OW70147  11.553   5.508   9.637
89417SOL    HW170148  11.495   5.444   9.678
89417SOL    HW270149  11.506   5.536   9.558
89418SOL     OW70150   8.267   4.644   0.614
89418SOL    HW170151   8.185   4.687   0.588
89418SOL    HW270152   8.309   4.705   0.674
89419SOL     OW70153   4.535  11.024  10.241
89419SOL    HW170154   4.541  10.980  10.156
89419SOL    HW270155   4.531  11.117  10.219
89420SOL     OW70156  10.015   4.553   0.611
89420SOL    HW170157  10.049   4.636   0.576
89420SOL    HW270158   9.921   4.559   0.600
89421SOL     OW70159   3.676  10.192  11.369
89421SOL    HW170160   3.681  10.099  11.389
89421SOL    HW270161   3.610  10.226  11.430
89422SOL     OW70162  10.335   6.621   0.153
89422SOL    HW170163  10.271   6.636   0.084
89422SOL    HW270164  10.286   6.578   0.223
89423SOL     OW70165   8.973  14.582   4.747
89423SOL    HW170166   8.943  14.669   4.723
89423SOL    HW270167   9.066  14.593   4.768
89424SOL     OW70168   1.179  10.059   6.356
89424SOL    HW170169   1.152   9.994   6.291
89424SOL    HW270170   1.262  10.094   6.322
89425SOL     OW70171   6.147   9.788  10.165
89425SOL    HW170172   6.212   9.767  10.098
89425SOL    HW270173   6.106   9.870  10.134
89426SOL     OW70174  11.533   7.190   9.572
89426SOL    HW170175  11.452   7.212   9.618
89426SOL    HW270176  11.588   7.267   9.582
89427SOL     OW70177  12.927  13.391   7.417
89427SOL    HW170178  12.864  13.373   7.487
89427SOL    HW270179  12.997  13.327   7.430
89428SOL     OW70180  13.244  11.735  12.237
89428SOL    HW170181  13.173  11.722  12.300
89428SOL    HW270182  13.321  11.697  12.279
89429SOL     OW70183   1.538   0.999   2.174
89429SOL    HW170184   1.554   1.034   2.262
89429SOL    HW270185   1.605   0.932   2.162
89430SOL     OW70186   2.315   1.650   5.568
89430SOL    HW170187   2.277   1.729   5.528
89430SOL    HW270188   2.386   1.625   5.509
89431SOL     OW70189  11.619  14.845   9.793
89431SOL    HW170190  11.565   0.042   9.753
89431SOL    HW270191  11.692   0.019   9.834
89432SOL     OW70192  13.803   5.578   0.306
89432SOL    HW170193  13.759   5.637   0.245
89432SOL    HW270194  13.860   5.636   0.357
89433SOL     OW70195   8.624  14.472  11.359
89433SOL    HW170196   8.613  14.535  11.430
89433SOL    HW270197   8.550  14.488  11.301
89434SOL     OW70198  10.558   2.545   3.561
89434SOL    HW170199  10.570   2.455   3.594
89434SOL    HW270200  10.517   2.592   3.634
89435SOL     OW70201   4.408   6.208   9.375
89435SOL    HW170202   4.418   6.290   9.424
89435SOL    HW270203   4.497   6.182   9.353
89436SOL     OW70204  10.708  11.501   9.462
89436SOL    HW170205  10.713  11.561   9.536
89436SOL    HW270206  10.799  11.483   9.440
89437SOL     OW70207   2.435   5.373   8.700
89437SOL    HW170208   2.366   5.324   8.654
89437SOL    HW270209   2.416   5.464   8.681
89438SOL     OW70210  13.919   4.345  13.208
89438SOL    HW170211  13.976   4.343  13.285
89438SOL    HW270212  13.910   4.253  13.182
89439SOL     OW70213   3.866  14.308   7.180
89439SOL    HW170214   3.898  14.270   7.098
89439SOL    HW270215   3.772  14.317   7.168
89440SOL     OW70216   2.024   7.745   9.826
89440SOL    HW170217   2.061   7.744   9.914
89440SOL    HW270218   1.966   7.669   9.824
89441SOL     OW70219  10.278   9.709   5.302
89441SOL    HW170220  10.362   9.737   5.265
89441SOL    HW270221  10.228   9.676   5.227
89442SOL     OW70222   7.523  14.361   1.997
89442SOL    HW170223   7.603  14.331   2.040
89442SOL    HW270224   7.521  14.455   2.015
89443SOL     OW70225   8.868  13.514   7.918
89443SOL    HW170226   8.786  13.466   7.906
89443SOL    HW270227   8.912  13.508   7.833
89444SOL     OW70228   9.940   8.279  10.426
89444SOL    HW170229   9.934   8.374  10.439
89444SOL    HW270230  10.033   8.264  10.407
89445SOL     OW70231   6.021  12.782  12.584
89445SOL    HW170232   5.973  12.743  12.657
89445SOL    HW270233   5.977  12.747  12.506
89446SOL     OW70234   0.482   5.013   1.590
89446SOL    HW170235   0.482   5.008   1.686
89446SOL    HW270236   0.404   4.964   1.564
89447SOL     OW70237  11.614  14.694   3.708
89447SOL    HW170238  11.672  14.685   3.783
89447SOL    HW270239  11.652  14.766   3.657
89448SOL     OW70240   9.252   3.581  14.076
89448SOL    HW170241   9.343   3.609  14.080
89448SOL    HW270242   9.205   3.657  14.041
89449SOL     OW70243   8.631  11.273   2.585
89449SOL    HW170244   8.681  11.284   2.504
89449SOL    HW270245   8.604  11.181   2.584
89450SOL     OW70246   6.737   9.225  12.394
89450SOL    HW170247   6.680   9.148  12.388
89450SOL    HW270248   6.680   9.295  12.427
89451SOL     OW70249  13.481  10.366   0.746
89451SOL    HW170250  13.538  10.366   0.669
89451SOL    HW270251  13.450  10.276   0.752
89452SOL     OW70252   4.869   5.302   7.128
89452SOL    HW170253   4.879   5.214   7.165
89452SOL    HW270254   4.909   5.295   7.041
89453SOL     OW70255  11.707  12.576   8.760
89453SOL    HW170256  11.770  12.568   8.688
89453SOL    HW270257  11.633  12.521   8.733
89454SOL     OW70258  14.083   8.458  13.850
89454SOL    HW170259  14.111   8.399  13.780
89454SOL    HW270260  14.054   8.537  13.805
89455SOL     OW70261   8.379  11.900  14.470
89455SOL    HW170262   8.390  11.956  14.547
89455SOL    HW270263   8.388  11.811  14.504
89456SOL     OW70264  14.069   0.119   6.893
89456SOL    HW170265  14.007   0.134   6.822
89456SOL    HW270266  14.138   0.184   6.879
89457SOL     OW70267   4.230   0.226   8.641
89457SOL    HW170268   4.206   0.141   8.605
89457SOL    HW270269   4.158   0.284   8.615
89458SOL     OW70270  12.376   2.528  11.750
89458SOL    HW170271  12.361   2.434  11.741
89458SOL    HW270272  12.307   2.557  11.810
89459SOL     OW70273   4.203   8.754   5.387
89459SOL    HW170274   4.201   8.690   5.459
89459SOL    HW270275   4.112   8.779   5.375
89460SOL     OW70276   2.402   4.279   3.201
89460SOL    HW170277   2.486   4.236   3.189
89460SOL    HW270278   2.362   4.234   3.276
89461SOL     OW70279   4.133   3.992   7.667
89461SOL    HW170280   4.086   3.946   7.736
89461SOL    HW270281   4.074   4.062   7.639
89462SOL     OW70282   8.843   2.206   2.233
89462SOL    HW170283   8.934   2.178   2.243
89462SOL    HW270284   8.792   2.141   2.282
89463SOL     OW70285  11.397   8.287   0.606
89463SOL    HW170286  11.426   8.207   0.650
89463SOL    HW270287  11.353   8.337   0.675
89464SOL     OW70288   8.274   7.539   9.948
89464SOL    HW170289   8.216   7.609   9.917
89464SOL    HW270290   8.351   7.544   9.892
89465SOL     OW70291   6.448   4.282   0.369
89465SOL    HW170292   6.497   4.245   0.442
89465SOL    HW270293   6.514   4.323   0.313
89466SOL     OW70294   1.364   6.619   7.586
89466SOL    HW170295   1.356   6.599   7.679
89466SOL    HW270296   1.352   6.534   7.542
89467SOL     OW70297   8.057   7.821   0.524
89467SOL    HW170298   8.083   7.731   0.502
89467SOL    HW270299   7.989   7.810   0.590
89468SOL     OW70300   6.050   2.533  13.767
89468SOL    HW170301   6.006   2.450  13.751
89468SOL    HW270302   6.018   2.591  13.698
89469SOL     OW70303   0.556  13.346   9.847
89469SOL    HW170304   0.566  13.295   9.928
89469SOL    HW270305   0.553  13.281   9.778
89470SOL     OW70306   8.375   9.430   9.738
89470SOL    HW170307   8.286   9.454   9.764
89470SOL    HW270308   8.387   9.473   9.653
89471SOL     OW70309   8.641  10.073   8.217
89471SOL    HW170310   8.651  10.154   8.168
89471SOL    HW270311   8.683  10.091   8.302
89472SOL     OW70312   7.423   4.089   4.368
89472SOL    HW170313   7.336   4.094   4.407
89472SOL    HW270314   7.483   4.081   4.442
89473SOL     OW70315   5.291   6.552   1.271
89473SOL    HW170316   5.349   6.548   1.347
89473SOL    HW270317   5.347   6.534   1.196
89474SOL     OW70318  14.297   4.898   2.098
89474SOL    HW170319  14.269   4.806   2.103
89474SOL    HW270320  14.310   4.914   2.005
89475SOL     OW70321   3.820  14.180   5.940
89475SOL    HW170322   3.814  14.246   5.871
89475SOL    HW270323   3.741  14.193   5.993
89476SOL     OW70324  12.135   8.491   4.342
89476SOL    HW170325  12.133   8.441   4.261
89476SOL    HW270326  12.206   8.451   4.393
89477SOL     OW70327  13.228   0.627  13.387
89477SOL    HW170328  13.177   0.691  13.438
89477SOL    HW270329  13.185   0.624  13.302
89478SOL     OW70330  13.826   9.026   0.635
89478SOL    HW170331  13.838   8.963   0.564
89478SOL    HW270332  13.731   9.036   0.642
89479SOL     OW70333  14.834   7.081   4.419
89479SOL    HW170334  14.820   7.063   4.512
89479SOL    HW270335   0.041   7.135   4.416
89480SOL     OW70336   6.626   6.059  13.057
89480SOL    HW170337   6.701   6.058  12.997
89480SOL    HW270338   6.647   6.128  13.119
89481SOL     OW70339   6.213  11.984   1.784
89481SOL    HW170340   6.172  12.055   1.735
89481SOL    HW270341   6.141  11.925   1.806
89482SOL     OW70342  14.025  10.658  10.430
89482SOL    HW170343  14.007  10.651  10.336
89482SOL    HW270344  14.119  10.673  10.435
89483SOL     OW70345   3.685   0.385   1.392
89483SOL    HW170346   3.590   0.378   1.398
89483SOL    HW270347   3.700   0.476   1.366
89484SOL     OW70348  14.397  10.677  13.638
89484SOL    HW170349  14.339  10.635  13.574
89484SOL    HW270350  14.483  10.679  13.596
89485SOL     OW70351   6.270  14.839  12.491
89485SOL    HW170352   6.292  14.823  12.583
89485SOL    HW270353   6.175  14.827  12.487
89486SOL     OW70354  11.813   3.188   0.324
89486SOL    HW170355  11.888   3.230   0.284
89486SOL    HW270356  11.831   3.094   0.316
89487SOL     OW70357   2.581  12.307  13.291
89487SOL    HW170358   2.663  12.357  13.293
89487SOL    HW270359   2.567  12.281  13.382
89488SOL     OW70360   4.591  11.010  13.996
89488SOL    HW170361   4.600  11.096  14.038
89488SOL    HW270362   4.563  11.030  13.906
89489SOL     OW70363   9.667   9.774  11.200
89489SOL    HW170364   9.751   9.820  11.191
89489SOL    HW270365   9.686   9.700  11.258
89490SOL     OW70366   7.321  11.207  14.394
89490SOL    HW170367   7.390  11.168  14.340
89490SOL    HW270368   7.274  11.132  14.431
89491SOL     OW70369  11.620  11.518   4.469
89491SOL    HW170370  11.532  11.481   4.458
89491SOL    HW270371  11.605  11.611   4.487
89492SOL     OW70372  13.375   9.540   5.178
89492SOL    HW170373  13.437   9.478   5.216
89492SOL    HW270374  13.402   9.549   5.087
89493SOL     OW70375   4.962   4.886   3.828
89493SOL    HW170376   5.020   4.919   3.759
89493SOL    HW270377   4.963   4.791   3.817
89494SOL     OW70378   6.663  13.239   4.751
89494SOL    HW170379   6.687  13.331   4.742
89494SOL    HW270380   6.722  13.206   4.819
89495SOL     OW70381  12.688  13.601  11.152
89495SOL    HW170382  12.690  13.564  11.240
89495SOL    HW270383  12.723  13.531  11.097
89496SOL     OW70384   4.248   0.516   5.447
89496SOL    HW170385   4.208   0.560   5.523
89496SOL    HW270386   4.335   0.556   5.440
89497SOL     OW70387   6.899  10.114   4.839
89497SOL    HW170388   6.839  10.049   4.875
89497SOL    HW270389   6.978  10.064   4.819
89498SOL     OW70390  10.049   9.634   6.929
89498SOL    HW170391   9.972   9.647   6.874
89498SOL    HW270392  10.106   9.577   6.877
89499SOL     OW70393   8.696   7.684  12.555
89499SOL    HW170394   8.634   7.644  12.494
89499SOL    HW270395   8.754   7.612  12.580
89500SOL     OW70396  12.981  13.099  11.814
89500SOL    HW170397  12.971  13.185  11.774
89500SOL    HW270398  13.028  13.046  11.749
89501SOL     OW70399  10.418   3.732   6.099
89501SOL    HW170400  10.494   3.764   6.050
89501SOL    HW270401  10.428   3.637   6.099
89502SOL     OW70402  11.117   2.476   1.894
89502SOL    HW170403  11.111   2.461   1.799
89502SOL    HW270404  11.153   2.564   1.902
89503SOL     OW70405   0.307   8.643   5.402
89503SOL    HW170406   0.372   8.676   5.340
89503SOL    HW270407   0.321   8.695   5.481
89504SOL     OW70408   9.319   9.084   9.314
89504SOL    HW170409   9.411   9.062   9.331
89504SOL    HW270410   9.306   9.169   9.356
89505SOL     OW70411   9.162   7.562   9.430
89505SOL    HW170412   9.255   7.541   9.441
89505SOL    HW270413   9.116   7.498   9.486
89506SOL     OW70414   5.256   7.613   4.335
89506SOL    HW170415   5.272   7.631   4.428
89506SOL    HW270416   5.326   7.553   4.310
89507SOL     OW70417   3.643  11.438   9.604
89507SOL    HW170418   3.662  11.404   9.516
89507SOL    HW270419   3.574  11.502   9.590
89508SOL     OW70420   6.933   3.788   8.327
89508SOL    HW170421   7.017   3.834   8.319
89508SOL    HW270422   6.868   3.851   8.298
89509SOL     OW70423  10.607   1.887  10.754
89509SOL    HW170424  10.526   1.903  10.804
89509SOL    HW270425  10.619   1.967  10.702
89510SOL     OW70426   7.248   6.135  14.748
89510SOL    HW170427   7.291   6.188  14.815
89510SOL    HW270428   7.155   6.154  14.758
89511SOL     OW70429  12.240  12.735   5.665
89511SOL    HW170430  12.185  12.674   5.616
89511SOL    HW270431  12.329  12.700   5.657
89512SOL     OW70432  14.057   5.450   9.507
89512SOL    HW170433  14.112   5.402   9.445
89512SOL    HW270434  14.085   5.541   9.499
89513SOL     OW70435  13.678  14.665  12.860
89513SOL    HW170436  13.772  14.650  12.853
89513SOL    HW270437  13.668  14.721  12.937
89514SOL     OW70438  13.194   1.225   6.237
89514SOL    HW170439  13.244   1.191   6.311
89514SOL    HW270440  13.260   1.254   6.174
89515SOL     OW70441  12.240   3.343   7.779
89515SOL    HW170442  12.149   3.318   7.794
89515SOL    HW270443  12.253   3.329   7.685
89516SOL     OW70444  11.041   1.458   8.469
89516SOL    HW170445  11.063   1.431   8.558
89516SOL    HW270446  10.965   1.515   8.480
89517SOL     OW70447   1.901   0.775  14.448
89517SOL    HW170448   1.833   0.767  14.382
89517SOL    HW270449   1.927   0.867  14.446
89518SOL     OW70450  14.468   9.951  12.659
89518SOL    HW170451  14.431   9.881  12.604
89518SOL    HW270452  14.512   9.905  12.730
89519SOL     OW70453   9.729  11.206   5.432
89519SOL    HW170454   9.663  11.137   5.441
89519SOL    HW270455   9.684  11.286   5.457
89520SOL     OW70456   7.805  11.226   5.825
89520SOL    HW170457   7.875  11.276   5.783
89520SOL    HW270458   7.801  11.144   5.776
89521SOL     OW70459   5.450  13.633   5.899
89521SOL    HW170460   5.492  13.548   5.896
89521SOL    HW270461   5.390  13.633   5.824
89522SOL     OW70462   0.453   0.988  10.718
89522SOL    HW170463   0.505   0.920  10.675
89522SOL    HW270464   0.363   0.971  10.689
89523SOL     OW70465   6.484   2.051  13.290
89523SOL    HW170466   6.438   2.117  13.239
89523SOL    HW270467   6.452   1.968  13.256
89524SOL     OW70468   1.958   3.054   8.661
89524SOL    HW170469   1.954   3.123   8.595
89524SOL    HW270470   2.044   3.013   8.648
89525SOL     OW70471   4.854  13.975  13.148
89525SOL    HW170472   4.915  13.984  13.221
89525SOL    HW270473   4.871  13.886  13.114
89526SOL     OW70474   5.934   7.440   3.501
89526SOL    HW170475   5.866   7.506   3.514
89526SOL    HW270476   5.922   7.379   3.574
89527SOL     OW70477   9.008   9.562   0.359
89527SOL    HW170478   9.080   9.515   0.403
89527SOL    HW270479   8.978   9.502   0.292
89528SOL     OW70480  14.278   2.340   8.557
89528SOL    HW170481  14.191   2.373   8.536
89528SOL    HW270482  14.272   2.314   8.649
89529SOL     OW70483   3.048  13.048  12.439
89529SOL    HW170484   3.049  13.090  12.353
89529SOL    HW270485   2.956  13.028  12.455
89530SOL     OW70486   2.935  11.945   8.377
89530SOL    HW170487   2.904  12.033   8.355
89530SOL    HW270488   2.922  11.938   8.472
89531SOL     OW70489   5.989  11.482   2.571
89531SOL    HW170490   5.995  11.391   2.601
89531SOL    HW270491   6.045  11.530   2.632
89532SOL     OW70492   0.607  14.179  12.163
89532SOL    HW170493   0.607  14.228  12.245
89532SOL    HW270494   0.682  14.120  12.171
89533SOL     OW70495   8.974  14.580   0.487
89533SOL    HW170496   9.061  14.612   0.509
89533SOL    HW270497   8.934  14.557   0.571
89534SOL     OW70498  11.086   8.082   4.796
89534SOL    HW170499  11.036   8.001   4.804
89534SOL    HW270500  11.093   8.096   4.701
89535SOL     OW70501  10.901  14.443  11.551
89535SOL    HW170502  10.809  14.441  11.525
89535SOL    HW270503  10.941  14.510  11.495
89536SOL     OW70504   4.565   1.761  13.617
89536SOL    HW170505   4.574   1.804  13.702
89536SOL    HW270506   4.610   1.677  13.627
89537SOL     OW70507  14.181  14.443   2.784
89537SOL    HW170508  14.128  14.428   2.863
89537SOL    HW270509  14.248  14.375   2.787
89538SOL     OW70510   5.856   4.715  12.940
89538SOL    HW170511   5.928   4.762  12.982
89538SOL    HW270512   5.896   4.672  12.865
89539SOL     OW70513  12.241   4.639   4.260
89539SOL    HW170514  12.319   4.663   4.309
89539SOL    HW270515  12.265   4.653   4.168
89540SOL     OW70516   7.340  12.414   5.029
89540SOL    HW170517   7.300  12.331   5.004
89540SOL    HW270518   7.310  12.476   4.962
89541SOL     OW70519  12.971  12.691   5.193
89541SOL    HW170520  12.912  12.761   5.163
89541SOL    HW270521  13.054  12.710   5.151
89542SOL     OW70522   4.338   4.414   7.881
89542SOL    HW170523   4.267   4.350   7.870
89542SOL    HW270524   4.301   4.497   7.851
89543SOL     OW70525  13.321   2.224  14.055
89543SOL    HW170526  13.383   2.283  14.012
89543SOL    HW270527  13.271   2.280  14.114
89544SOL     OW70528  12.580  13.448   4.938
89544SOL    HW170529  12.608  13.503   4.864
89544SOL    HW270530  12.535  13.375   4.896
89545SOL     OW70531  14.230   6.894   4.754
89545SOL    HW170532  14.200   6.810   4.719
89545SOL    HW270533  14.166   6.915   4.822
89546SOL     OW70534   1.510   6.900   3.665
89546SOL    HW170535   1.510   6.970   3.730
89546SOL    HW270536   1.554   6.827   3.708
89547SOL     OW70537   2.485   7.537  10.775
89547SOL    HW170538   2.512   7.625  10.800
89547SOL    HW270539   2.439   7.504  10.852
89548SOL     OW70540   5.445   3.302  12.051
89548SOL    HW170541   5.361   3.348  12.044
89548SOL    HW270542   5.450   3.250  11.971
89549SOL     OW70543  10.817   7.526   4.922
89549SOL    HW170544  10.779   7.488   4.843
89549SOL    HW270545  10.741   7.555   4.973
89550SOL     OW70546  10.402   9.635  11.388
89550SOL    HW170547  10.309   9.655  11.398
89550SOL    HW270548  10.431   9.694  11.318
89551SOL     OW70549   6.028   1.166  11.895
89551SOL    HW170550   6.093   1.107  11.933
89551SOL    HW270551   5.971   1.109  11.843
89552SOL     OW70552   5.510  11.517   6.655
89552SOL    HW170553   5.489  11.455   6.584
89552SOL    HW270554   5.593  11.485   6.690
89553SOL     OW70555  10.240   3.632  13.739
89553SOL    HW170556  10.316   3.589  13.780
89553SOL    HW270557  10.205   3.565  13.680
89554SOL     OW70558   3.956   9.400   1.138
89554SOL    HW170559   3.863   9.379   1.150
89554SOL    HW270560   3.958   9.458   1.062
89555SOL     OW70561  14.707   6.321   1.908
89555SOL    HW170562  14.622   6.366   1.910
89555SOL    HW270563  14.691   6.243   1.856
89556SOL     OW70564   0.986  14.214   9.904
89556SOL    HW170565   0.956  14.305   9.905
89556SOL    HW270566   0.937  14.171   9.973
89557SOL     OW70567   5.055   0.664  14.058
89557SOL    HW170568   5.130   0.652  14.116
89557SOL    HW270569   5.080   0.736  14.001
89558SOL     OW70570   3.613   8.183   8.669
89558SOL    HW170571   3.652   8.267   8.692
89558SOL    HW270572   3.558   8.161   8.744
89559SOL     OW70573   0.034  11.592   5.086
89559SOL    HW170574  14.822  11.628   5.114
89559SOL    HW270575   0.063  11.539   5.160
89560SOL     OW70576  11.363   0.930   3.349
89560SOL    HW170577  11.383   0.848   3.304
89560SOL    HW270578  11.271   0.946   3.331
89561SOL     OW70579  12.466   8.206   2.115
89561SOL    HW170580  12.382   8.174   2.149
89561SOL    HW270581  12.496   8.270   2.181
89562SOL     OW70582   3.296   9.247   5.752
89562SOL    HW170583   3.350   9.218   5.826
89562SOL    HW270584   3.300   9.343   5.756
89563SOL     OW70585  11.159   2.450  10.390
89563SOL    HW170586  11.105   2.486  10.319
89563SOL    HW270587  11.123   2.488  10.470
89564SOL     OW70588   0.952   2.800  14.849
89564SOL    HW170589   0.862   2.797  14.815
89564SOL    HW270590   1.002   2.843  14.780
89565SOL     OW70591  10.414   3.339   5.741
89565SOL    HW170592  10.487   3.330   5.680
89565SOL    HW270593  10.394   3.249   5.767
89566SOL     OW70594   1.678   2.982  10.268
89566SOL    HW170595   1.685   2.950  10.178
89566SOL    HW270596   1.756   2.948  10.311
89567SOL     OW70597  14.390  14.189  14.127
89567SOL    HW170598  14.319  14.184  14.191
89567SOL    HW270599  14.347  14.177  14.043
89568SOL     OW70600   4.694  10.338  13.238
89568SOL    HW170601   4.657  10.388  13.311
89568SOL    HW270602   4.618  10.303  13.192
89569SOL     OW70603   5.030   5.105   2.704
89569SOL    HW170604   4.958   5.132   2.647
89569SOL    HW270605   5.034   5.010   2.695
89570SOL     OW70606   5.588   6.827   9.112
89570SOL    HW170607   5.683   6.820   9.105
89570SOL    HW270608   5.570   6.918   9.088
89571SOL     OW70609  10.434   5.516  11.255
89571SOL    HW170610  10.391   5.535  11.171
89571SOL    HW270611  10.361   5.494  11.314
89572SOL     OW70612   0.780  14.837   8.270
89572SOL    HW170613   0.751  14.750   8.296
89572SOL    HW270614   0.872  14.842   8.296
89573SOL     OW70615  12.090  14.225   2.406
89573SOL    HW170616  12.012  14.200   2.456
89573SOL    HW270617  12.146  14.267   2.471
89574SOL     OW70618   9.905   7.646   4.099
89574SOL    HW170619   9.905   7.711   4.029
89574SOL    HW270620   9.995   7.614   4.102
89575SOL     OW70621   7.319   4.994   4.270
89575SOL    HW170622   7.356   5.009   4.183
89575SOL    HW270623   7.241   4.940   4.254
89576SOL     OW70624   7.171   2.772   2.222
89576SOL    HW170625   7.208   2.778   2.310
89576SOL    HW270626   7.202   2.851   2.177
89577SOL     OW70627   0.520   5.615  11.481
89577SOL    HW170628   0.490   5.698  11.517
89577SOL    HW270629   0.519   5.555  11.556
89578SOL     OW70630   7.098  13.093  10.730
89578SOL    HW170631   7.164  13.102  10.799
89578SOL    HW270632   7.033  13.034  10.768
89579SOL     OW70633   1.782  10.418   7.806
89579SOL    HW170634   1.784  10.439   7.899
89579SOL    HW270635   1.757  10.500   7.763
89580SOL     OW70636  13.000  12.338   6.429
89580SOL    HW170637  12.987  12.297   6.344
89580SOL    HW270638  12.998  12.264   6.491
89581SOL     OW70639   7.056   4.263  13.353
89581SOL    HW170640   7.012   4.258  13.438
89581SOL    HW270641   7.149   4.272  13.374
89582SOL     OW70642   8.318  10.366   0.255
89582SOL    HW170643   8.381  10.375   0.327
89582SOL    HW270644   8.293  10.273   0.257
89583SOL     OW70645   6.119  13.157  12.335
89583SOL    HW170646   6.105  13.206  12.417
89583SOL    HW270647   6.162  13.077  12.362
89584SOL     OW70648   5.871  12.532   3.540
89584SOL    HW170649   5.858  12.445   3.578
89584SOL    HW270650   5.962  12.554   3.561
89585SOL     OW70651   6.880  12.415   4.627
89585SOL    HW170652   6.815  12.346   4.629
89585SOL    HW270653   6.932  12.398   4.548
89586SOL     OW70654   7.763   7.880  13.408
89586SOL    HW170655   7.831   7.920  13.463
89586SOL    HW270656   7.797   7.794  13.385
89587SOL     OW70657   9.871   4.367   7.726
89587SOL    HW170658   9.867   4.280   7.764
89587SOL    HW270659   9.886   4.352   7.633
89588SOL     OW70660   5.530   7.529   0.359
89588SOL    HW170661   5.612   7.576   0.350
89588SOL    HW270662   5.472   7.569   0.295
89589SOL     OW70663  10.280  13.804  11.233
89589SOL    HW170664  10.350  13.755  11.276
89589SOL    HW270665  10.212  13.814  11.300
89590SOL     OW70666  11.671   1.094   2.309
89590SOL    HW170667  11.737   1.080   2.241
89590SOL    HW270668  11.590   1.109   2.262
89591SOL     OW70669   3.587  12.763  10.696
89591SOL    HW170670   3.671  12.810  10.694
89591SOL    HW270671   3.553  12.778  10.784
89592SOL     OW70672   8.005  14.765  11.732
89592SOL    HW170673   7.987  14.735  11.644
89592SOL    HW270674   8.067  14.701  11.768
89593SOL     OW70675   2.974  12.598  13.644
89593SOL    HW170676   2.986  12.656  13.719
89593SOL    HW270677   3.057  12.551  13.635
89594SOL     OW70678  12.917  13.845   5.905
89594SOL    HW170679  12.898  13.753   5.884
89594SOL    HW270680  12.867  13.894   5.840
89595SOL     OW70681   9.141   9.805   0.468
89595SOL    HW170682   9.045   9.801   0.463
89595SOL    HW270683   9.170   9.717   0.445
89596SOL     OW70684   4.638  11.655  13.221
89596SOL    HW170685   4.547  11.626  13.211
89596SOL    HW270686   4.653  11.657  13.315
89597SOL     OW70687   0.578   1.476  14.155
89597SOL    HW170688   0.589   1.556  14.103
89597SOL    HW270689   0.637   1.489  14.230
89598SOL     OW70690   4.518  12.493   2.165
89598SOL    HW170691   4.479  12.478   2.079
89598SOL    HW270692   4.556  12.409   2.190
89599SOL     OW70693   3.477   8.491  12.816
89599SOL    HW170694   3.421   8.563  12.789
89599SOL    HW270695   3.545   8.487  12.749
89600SOL     OW70696   5.716   4.462  14.741
89600SOL    HW170697   5.738   4.374  14.710
89600SOL    HW270698   5.622   4.460  14.755
89601SOL     OW70699   1.428   7.691   7.017
89601SOL    HW170700   1.506   7.634   7.019
89601SOL    HW270701   1.360   7.637   6.977
89602SOL     OW70702   7.137   6.420   4.773
89602SOL    HW170703   7.216   6.454   4.733
89602SOL    HW270704   7.119   6.479   4.846
89603SOL     OW70705  12.617  10.474   2.699
89603SOL    HW170706  12.624  10.555   2.649
89603SOL    HW270707  12.537  10.432   2.667
89604SOL     OW70708   2.588   0.265  10.996
89604SOL    HW170709   2.652   0.194  10.995
89604SOL    HW270710   2.612   0.317  11.073
89605SOL     OW70711   2.732   9.268  10.549
89605SOL    HW170712   2.772   9.184  10.530
89605SOL    HW270713   2.660   9.276  10.486
89606SOL     OW70714  13.991   8.876  13.884
89606SOL    HW170715  13.941   8.910  13.958
89606SOL    HW270716  14.034   8.797  13.918
89607SOL     OW70717   2.025   8.011   8.406
89607SOL    HW170718   1.997   7.931   8.363
89607SOL    HW270719   1.962   8.024   8.477
89608SOL     OW70720   9.756  14.570   4.513
89608SOL    HW170721   9.813  14.500   4.481
89608SOL    HW270722   9.668  14.533   4.510
89609SOL     OW70723   2.430  14.821  10.803
89609SOL    HW170724   2.431  14.753  10.736
89609SOL    HW270725   2.499   0.010  10.776
89610SOL     OW70726  14.778  11.994   2.564
89610SOL    HW170727  14.867  12.006   2.596
89610SOL    HW270728  14.785  11.922   2.501
89611SOL     OW70729   7.353   0.955   9.104
89611SOL    HW170730   7.306   1.002   9.035
89611SOL    HW270731   7.320   0.866   9.100
89612SOL     OW70732   5.209   7.933  10.655
89612SOL    HW170733   5.265   8.011  10.645
89612SOL    HW270734   5.144   7.959  10.720
89613SOL     OW70735  14.485  13.908   9.672
89613SOL    HW170736  14.434  13.960   9.611
89613SOL    HW270737  14.569  13.954   9.679
89614SOL     OW70738  13.038   9.785   1.196
89614SOL    HW170739  13.087   9.792   1.114
89614SOL    HW270740  13.065   9.701   1.233
89615SOL     OW70741   5.540   5.747   6.149
89615SOL    HW170742   5.553   5.822   6.090
89615SOL    HW270743   5.629   5.717   6.169
89616SOL     OW70744   5.606   6.323  13.726
89616SOL    HW170745   5.559   6.402  13.755
89616SOL    HW270746   5.611   6.269  13.805
89617SOL     OW70747   5.279  11.368   0.587
89617SOL    HW170748   5.256  11.290   0.637
89617SOL    HW270749   5.199  11.421   0.587
89618SOL     OW70750   0.185  11.435   5.230
89618SOL    HW170751   0.187  11.343   5.257
89618SOL    HW270752   0.274  11.453   5.198
89619SOL     OW70753   8.980   6.168   4.462
89619SOL    HW170754   9.044   6.221   4.508
89619SOL    HW270755   8.934   6.230   4.405
89620SOL     OW70756  14.560   4.832   9.002
89620SOL    HW170757  14.622   4.779   9.052
89620SOL    HW270758  14.547   4.784   8.920
89621SOL     OW70759   8.538   9.104   1.449
89621SOL    HW170760   8.493   9.099   1.534
89621SOL    HW270761   8.628   9.127   1.471
89622SOL     OW70762   6.640   2.294  11.024
89622SOL    HW170763   6.552   2.333  11.023
89622SOL    HW270764   6.669   2.298  10.933
89623SOL     OW70765  13.058   4.461   8.861
89623SOL    HW170766  13.103   4.379   8.840
89623SOL    HW270767  13.127   4.521   8.888
89624SOL     OW70768   6.263   1.015   2.192
89624SOL    HW170769   6.339   1.020   2.135
89624SOL    HW270770   6.296   1.037   2.279
89625SOL     OW70771   5.896  11.696  10.315
89625SOL    HW170772   5.844  11.619  10.294
89625SOL    HW270773   5.959  11.665  10.380
89626SOL     OW70774  13.136   0.197   5.856
89626SOL    HW170775  13.158   0.263   5.791
89626SOL    HW270776  13.040   0.193   5.855
89627SOL     OW70777   0.090   4.136   0.604
89627SOL    HW170778   0.004   4.175   0.622
89627SOL    HW270779   0.150   4.180   0.665
89628SOL     OW70780   5.172   5.272   0.165
89628SOL    HW170781   5.083   5.252   0.195
89628SOL    HW270782   5.212   5.187   0.150
89629SOL     OW70783   5.738  12.446   7.080
89629SOL    HW170784   5.821  12.450   7.126
89629SOL    HW270785   5.675  12.416   7.145
89630SOL     OW70786   5.580   4.915  13.270
89630SOL    HW170787   5.553   4.907  13.179
89630SOL    HW270788   5.586   5.009  13.286
89631SOL     OW70789   0.066  10.087  11.884
89631SOL    HW170790  14.862  10.030  11.886
89631SOL    HW270791   0.096  10.084  11.793
89632SOL     OW70792   3.924  14.541   7.842
89632SOL    HW170793   3.853  14.490   7.880
89632SOL    HW270794   3.881  14.605   7.786
89633SOL     OW70795  13.669  12.743   7.071
89633SOL    HW170796  13.652  12.818   7.013
89633SOL    HW270797  13.658  12.778   7.159
89634SOL     OW70798   8.188   5.771   7.070
89634SOL    HW170799   8.170   5.795   7.161
89634SOL    HW270800   8.150   5.842   7.018
89635SOL     OW70801   1.210  10.477   3.439
89635SOL    HW170802   1.196  10.471   3.533
89635SOL    HW270803   1.300  10.446   3.426
89636SOL     OW70804  12.029   7.961   1.210
89636SOL    HW170805  12.057   7.884   1.161
89636SOL    HW270806  12.111   8.002   1.238
89637SOL     OW70807   6.448   6.292  11.822
89637SOL    HW170808   6.363   6.272  11.782
89637SOL    HW270809   6.502   6.216  11.801
89638SOL     OW70810   6.551   9.702   2.234
89638SOL    HW170811   6.525   9.679   2.145
89638SOL    HW270812   6.638   9.741   2.224
89639SOL     OW70813   7.788   5.746   9.134
89639SOL    HW170814   7.747   5.824   9.098
89639SOL    HW270815   7.829   5.703   9.059
89640SOL     OW70816  14.678  12.608  14.088
89640SOL    HW170817  14.768  12.638  14.102
89640SOL    HW270818  14.632  12.685  14.054
89641SOL     OW70819  14.579  10.521   5.703
89641SOL    HW170820  14.554  10.455   5.768
89641SOL    HW270821  14.672  10.504   5.686
89642SOL     OW70822   7.570   4.372   9.431
89642SOL    HW170823   7.642   4.340   9.485
89642SOL    HW270824   7.613   4.425   9.364
89643SOL     OW70825  11.981   7.652  12.815
89643SOL    HW170826  12.065   7.607  12.817
89643SOL    HW270827  11.916   7.582  12.821
89644SOL     OW70828   7.988   6.573  13.297
89644SOL    HW170829   8.002   6.623  13.377
89644SOL    HW270830   8.076   6.553  13.265
89645SOL     OW70831   3.735   3.389   4.096
89645SOL    HW170832   3.757   3.437   4.176
89645SOL    HW270833   3.666   3.441   4.056
89646SOL     OW70834   3.542   1.315   8.769
89646SOL    HW170835   3.595   1.261   8.711
89646SOL    HW270836   3.496   1.376   8.711
89647SOL     OW70837   6.780  12.510  13.595
89647SOL    HW170838   6.802  12.603  13.594
89647SOL    HW270839   6.727  12.497  13.516
89648SOL     OW70840  12.217  12.575   5.281
89648SOL    HW170841  12.164  12.582   5.360
89648SOL    HW270842  12.200  12.656   5.233
89649SOL     OW70843   7.337  14.460  12.301
89649SOL    HW170844   7.301  14.544  12.328
89649SOL    HW270845   7.381  14.426  12.379
89650SOL     OW70846   8.884  14.149   7.196
89650SOL    HW170847   8.965  14.122   7.153
89650SOL    HW270848   8.861  14.074   7.252
89651SOL     OW70849  13.067   9.265  13.511
89651SOL    HW170850  13.128   9.192  13.497
89651SOL    HW270851  12.981   9.228  13.491
89652SOL     OW70852   0.299  11.038   7.335
89652SOL    HW170853   0.262  11.124   7.358
89652SOL    HW270854   0.310  10.994   7.419
89653SOL     OW70855  11.212  11.541   5.510
89653SOL    HW170856  11.261  11.552   5.428
89653SOL    HW270857  11.170  11.626   5.524
89654SOL     OW70858   8.191   6.915   1.973
89654SOL    HW170859   8.218   6.860   2.047
89654SOL    HW270860   8.230   7.000   1.990
89655SOL     OW70861  13.814  11.877   3.354
89655SOL    HW170862  13.902  11.902   3.384
89655SOL    HW270863  13.787  11.948   3.296
89656SOL     OW70864   8.194   2.473  13.646
89656SOL    HW170865   8.218   2.557  13.687
89656SOL    HW270866   8.125   2.496  13.583
89657SOL     OW70867   8.151   4.089   7.811
89657SOL    HW170868   8.238   4.067   7.779
89657SOL    HW270869   8.166   4.124   7.899
89658SOL     OW70870  14.144   3.185  13.443
89658SOL    HW170871  14.124   3.156  13.532
89658SOL    HW270872  14.132   3.280  13.446
89659SOL     OW70873  14.414  11.498   1.716
89659SOL    HW170874  14.492  11.506   1.771
89659SOL    HW270875  14.445  11.519   1.628
89660SOL     OW70876  12.524  11.561   6.844
89660SOL    HW170877  12.463  11.509   6.896
89660SOL    HW270878  12.472  11.595   6.771
89661SOL     OW70879  12.363   4.292   2.695
89661SOL    HW170880  12.397   4.256   2.777
89661SOL    HW270881  12.298   4.357   2.723
89662SOL     OW70882   6.338  13.945   2.556
89662SOL    HW170883   6.319  14.032   2.591
89662SOL    HW270884   6.428  13.950   2.525
89663SOL     OW70885   3.416   6.631   6.196
89663SOL    HW170886   3.452   6.589   6.274
89663SOL    HW270887   3.483   6.619   6.129
89664SOL     OW70888   9.729  11.144   3.589
89664SOL    HW170889   9.792  11.176   3.525
89664SOL    HW270890   9.643  11.159   3.547
89665SOL     OW70891   5.984  13.905  12.458
89665SOL    HW170892   5.995  13.974  12.393
89665SOL    HW270893   5.908  13.932  12.510
89666SOL     OW70894   6.455  12.470   9.809
89666SOL    HW170895   6.491  12.406   9.870
89666SOL    HW270896   6.428  12.418   9.733
89667SOL     OW70897   6.585   1.462   5.313
89667SOL    HW170898   6.531   1.519   5.258
89667SOL    HW270899   6.636   1.411   5.250
89668SOL     OW70900  12.417   9.044  14.163
89668SOL    HW170901  12.450   9.119  14.212
89668SOL    HW270902  12.486   9.025  14.099
89669SOL     OW70903  11.450  11.578   5.753
89669SOL    HW170904  11.494  11.514   5.696
89669SOL    HW270905  11.361  11.546   5.761
89670SOL     OW70906   4.998  12.744  13.244
89670SOL    HW170907   4.929  12.727  13.179
89670SOL    HW270908   4.950  12.768  13.323
89671SOL     OW70909   1.284  13.009   1.831
89671SOL    HW170910   1.254  12.936   1.885
89671SOL    HW270911   1.212  13.072   1.833
89672SOL     OW70912   6.701   1.838   4.047
89672SOL    HW170913   6.608   1.855   4.034
89672SOL    HW270914   6.717   1.861   4.139
89673SOL     OW70915   5.623   7.480  12.747
89673SOL    HW170916   5.560   7.479  12.675
89673SOL    HW270917   5.597   7.556  12.799
89674SOL     OW70918  10.378  10.344   5.146
89674SOL    HW170919  10.457  10.343   5.200
89674SOL    HW270920  10.320  10.280   5.188
89675SOL     OW70921   4.189   1.405   0.822
89675SOL    HW170922   4.115   1.363   0.778
89675SOL    HW270923   4.216   1.342   0.889
89676SOL     OW70924   2.500   8.563   8.299
89676SOL    HW170925   2.479   8.552   8.392
89676SOL    HW270926   2.505   8.473   8.265
89677SOL     OW70927   6.521   1.251   8.870
89677SOL    HW170928   6.585   1.195   8.915
89677SOL    HW270929   6.573   1.322   8.833
89678SOL     OW70930   9.307   9.515   8.504
89678SOL    HW170931   9.341   9.459   8.434
89678SOL    HW270932   9.384   9.535   8.558
89679SOL     OW70933  14.851  11.731   1.641
89679SOL    HW170934   0.014  11.656   1.689
89679SOL    HW270935   0.055  11.784   1.620
89680SOL     OW70936   9.588   4.799   0.774
89680SOL    HW170937   9.555   4.730   0.832
89680SOL    HW270938   9.683   4.794   0.782
89681SOL     OW70939   6.170   8.265   1.835
89681SOL    HW170940   6.092   8.230   1.878
89681SOL    HW270941   6.205   8.328   1.898
89682SOL     OW70942  13.346   4.520   2.394
89682SOL    HW170943  13.288   4.595   2.405
89682SOL    HW270944  13.414   4.531   2.461
89683SOL     OW70945  10.733   2.617   0.864
89683SOL    HW170946  10.661   2.608   0.802
89683SOL    HW270947  10.702   2.574   0.943
89684SOL     OW70948   5.680  14.512   9.836
89684SOL    HW170949   5.634  14.553   9.909
89684SOL    HW270950   5.623  14.439   9.809
89685SOL     OW70951   2.125   0.454   4.148
89685SOL    HW170952   2.157   0.398   4.218
89685SOL    HW270953   2.029   0.450   4.156
89686SOL     OW70954   1.392   1.510  13.431
89686SOL    HW170955   1.434   1.562  13.363
89686SOL    HW270956   1.381   1.571  13.504
89687SOL     OW70957  13.260  11.087  13.891
89687SOL    HW170958  13.349  11.065  13.864
89687SOL    HW270959  13.231  11.011  13.941
89688SOL     OW70960  11.259   4.494   3.493
89688SOL    HW170961  11.172   4.480   3.529
89688SOL    HW270962  11.269   4.427   3.426
89689SOL     OW70963   5.360   1.671   9.367
89689SOL    HW170964   5.308   1.597   9.334
89689SOL    HW270965   5.451   1.648   9.345
89690SOL     OW70966   7.755   9.457   6.271
89690SOL    HW170967   7.704   9.377   6.281
89690SOL    HW270968   7.690   9.527   6.265
89691SOL     OW70969   8.730   0.298  12.565
89691SOL    HW170970   8.755   0.317  12.475
89691SOL    HW270971   8.813   0.292  12.613
89692SOL     OW70972  12.089   3.933  14.534
89692SOL    HW170973  12.031   3.921  14.610
89692SOL    HW270974  12.041   3.896  14.461
89693SOL     OW70975   7.650  12.354   9.967
89693SOL    HW170976   7.726  12.342   9.910
89693SOL    HW270977   7.626  12.265   9.992
89694SOL     OW70978   7.945   2.765  10.070
89694SOL    HW170979   8.005   2.821  10.020
89694SOL    HW270980   7.905   2.824  10.134
89695SOL     OW70981  11.340   4.251   8.723
89695SOL    HW170982  11.354   4.219   8.634
89695SOL    HW270983  11.274   4.319   8.714
89696SOL     OW70984   5.015   8.301   4.794
89696SOL    HW170985   5.090   8.260   4.839
89696SOL    HW270986   4.977   8.230   4.742
89697SOL     OW70987   8.653   7.962   8.441
89697SOL    HW170988   8.607   7.885   8.408
89697SOL    HW270989   8.673   8.013   8.363
89698SOL     OW70990   7.205  13.704   1.260
89698SOL    HW170991   7.283  13.666   1.301
89698SOL    HW270992   7.156  13.629   1.227
89699SOL     OW70993   0.515   4.325   6.048
89699SOL    HW170994   0.572   4.396   6.017
89699SOL    HW270995   0.513   4.337   6.143
89700SOL     OW70996   7.501  11.748  12.744
89700SOL    HW170997   7.563  11.821  12.742
89700SOL    HW270998   7.461  11.748  12.657
89701SOL     OW70999   9.966   7.838  10.443
89701SOL    HW171000   9.891   7.897  10.447
89701SOL    HW271001   9.971   7.811  10.352
89702SOL     OW71002  13.456   5.925   8.300
89702SOL    HW171003  13.472   5.900   8.391
89702SOL    HW271004  13.453   6.020   8.301
89703SOL     OW71005   9.462   0.818  13.479
89703SOL    HW171006   9.373   0.785  13.490
89703SOL    HW271007   9.511   0.782  13.552
89704SOL     OW71008   5.235   7.010  13.535
89704SOL    HW171009   5.157   6.961  13.511
89704SOL    HW271010   5.308   6.961  13.498
89705SOL     OW71011   2.833   7.415  10.548
89705SOL    HW171012   2.744   7.404  10.514
89705SOL    HW271013   2.822   7.476  10.622
89706SOL     OW71014  11.696   5.889   4.118
89706SOL    HW171015  11.709   5.981   4.097
89706SOL    HW271016  11.778   5.861   4.158
89707SOL     OW71017   8.136   9.621   1.199
89707SOL    HW171018   8.210   9.666   1.159
89707SOL    HW271019   8.172   9.575   1.274
89708SOL     OW71020   0.690   7.573  14.648
89708SOL    HW171021   0.604   7.577  14.607
89708SOL    HW271022   0.676   7.530  14.732
89709SOL     OW71023   6.645   1.408   3.919
89709SOL    HW171024   6.575   1.420   3.983
89709SOL    HW271025   6.692   1.492   3.919
89710SOL     OW71026   7.221   1.870   3.824
89710SOL    HW171027   7.182   1.895   3.741
89710SOL    HW271028   7.295   1.929   3.835
89711SOL     OW71029   9.322   8.403  11.580
89711SOL    HW171030   9.233   8.421  11.549
89711SOL    HW271031   9.333   8.458  11.657
89712SOL     OW71032   2.675   7.007   5.252
89712SOL    HW171033   2.614   6.984   5.321
89712SOL    HW271034   2.674   6.933   5.192
89713SOL     OW71035  12.307   9.916   8.275
89713SOL    HW171036  12.332   9.883   8.361
89713SOL    HW271037  12.321  10.010   8.280
89714SOL     OW71038  11.431   0.206   6.706
89714SOL    HW171039  11.444   0.283   6.650
89714SOL    HW271040  11.375   0.236   6.777
89715SOL     OW71041  13.763   5.832   8.552
89715SOL    HW171042  13.677   5.790   8.547
89715SOL    HW271043  13.777   5.868   8.464
89716SOL     OW71044   6.713   7.125   5.605
89716SOL    HW171045   6.806   7.109   5.588
89716SOL    HW271046   6.707   7.128   5.700
89717SOL     OW71047   0.788   9.310   3.298
89717SOL    HW171048   0.865   9.285   3.247
89717SOL    HW271049   0.715   9.265   3.254
89718SOL     OW71050   7.357   7.507   6.343
89718SOL    HW171051   7.280   7.456   6.367
89718SOL    HW271052   7.431   7.449   6.361
89719SOL     OW71053   7.252   9.655   0.963
89719SOL    HW171054   7.214   9.737   0.928
89719SOL    HW271055   7.194   9.632   1.036
89720SOL     OW71056  12.403   8.125   9.535
89720SOL    HW171057  12.319   8.080   9.545
89720SOL    HW271058  12.465   8.056   9.511
89721SOL     OW71059   7.901   7.321  12.046
89721SOL    HW171060   7.929   7.260  12.115
89721SOL    HW271061   7.901   7.407  12.089
89722SOL     OW71062  10.342   9.484   8.883
89722SOL    HW171063  10.384   9.477   8.968
89722SOL    HW271064  10.383   9.560   8.841
89723SOL     OW71065   2.893   8.223  13.040
89723SOL    HW171066   2.926   8.177  12.962
89723SOL    HW271067   2.935   8.179  13.113
89724SOL     OW71068   2.675   9.802   7.649
89724SOL    HW171069   2.683   9.792   7.554
89724SOL    HW271070   2.643   9.892   7.661
89725SOL     OW71071  11.783  12.434   5.856
89725SOL    HW171072  11.717  12.470   5.916
89725SOL    HW271073  11.755  12.463   5.769
89726SOL     OW71074  12.941  11.596   9.250
89726SOL    HW171075  12.903  11.510   9.232
89726SOL    HW271076  13.016  11.577   9.306
89727SOL     OW71077  12.089   8.357  10.203
89727SOL    HW171078  12.038   8.416  10.147
89727SOL    HW271079  12.047   8.272  10.193
89728SOL     OW71080   0.003   2.451   9.080
89728SOL    HW171081  14.797   2.438   9.133
89728SOL    HW271082   0.076   2.427   9.137
89729SOL     OW71083  14.319   7.676  12.809
89729SOL    HW171084  14.397   7.695  12.861
89729SOL    HW271085  14.248   7.670  12.872
89730SOL     OW71086   2.649   7.399  12.718
89730SOL    HW171087   2.652   7.312  12.756
89730SOL    HW271088   2.674   7.457  12.790
89731SOL     OW71089  13.370   9.766  13.126
89731SOL    HW171090  13.370   9.849  13.173
89731SOL    HW271091  13.458   9.758  13.088
89732SOL     OW71092   4.302  13.621   2.080
89732SOL    HW171093   4.368  13.670   2.032
89732SOL    HW271094   4.303  13.658   2.168
89733SOL     OW71095   6.531   3.629   8.247
89733SOL    HW171096   6.494   3.706   8.203
89733SOL    HW271097   6.521   3.558   8.183
89734SOL     OW71098   2.988  12.672   6.521
89734SOL    HW171099   3.076  12.706   6.540
89734SOL    HW271100   2.932  12.710   6.589
89735SOL     OW71101   3.991  11.711   0.556
89735SOL    HW171102   3.915  11.766   0.536
89735SOL    HW271103   3.961  11.622   0.541
89736SOL     OW71104   6.531   7.184   0.378
89736SOL    HW171105   6.601   7.134   0.418
89736SOL    HW271106   6.564   7.207   0.292
89737SOL     OW71107  13.161   0.668   5.416
89737SOL    HW171108  13.122   0.748   5.380
89737SOL    HW271109  13.093   0.602   5.407
89738SOL     OW71110   0.790  10.491   5.584
89738SOL    HW171111   0.835  10.538   5.655
89738SOL    HW271112   0.808  10.543   5.506
89739SOL     OW71113   3.964   1.162  10.832
89739SOL    HW171114   3.941   1.139  10.923
89739SOL    HW271115   4.039   1.220  10.840
89740SOL     OW71116   2.302   4.308   0.933
89740SOL    HW171117   2.379   4.251   0.931
89740SOL    HW271118   2.330   4.388   0.889
89741SOL     OW71119   8.555   3.529  13.080
89741SOL    HW171120   8.484   3.477  13.043
89741SOL    HW271121   8.528   3.620  13.067
89742SOL     OW71122   0.874  13.162  14.151
89742SOL    HW171123   0.784  13.129  14.147
89742SOL    HW271124   0.898  13.154  14.243
89743SOL     OW71125   4.040  14.199   0.349
89743SOL    HW171126   4.005  14.118   0.387
89743SOL    HW271127   4.029  14.187   0.255
89744SOL     OW71128   3.690   1.315   1.581
89744SOL    HW171129   3.737   1.251   1.633
89744SOL    HW271130   3.754   1.386   1.566
89745SOL     OW71131  10.789  13.514   0.114
89745SOL    HW171132  10.802  13.423   0.089
89745SOL    HW271133  10.735  13.510   0.193
89746SOL     OW71134   3.705  11.531   0.337
89746SOL    HW171135   3.626  11.551   0.286
89746SOL    HW271136   3.765  11.492   0.273
89747SOL     OW71137   0.855   0.205   1.196
89747SOL    HW171138   0.927   0.176   1.141
89747SOL    HW271139   0.781   0.151   1.170
89748SOL     OW71140   2.782   1.664   4.823
89748SOL    HW171141   2.741   1.750   4.828
89748SOL    HW271142   2.796   1.638   4.914
89749SOL     OW71143   1.318   9.554   2.541
89749SOL    HW171144   1.349   9.471   2.578
89749SOL    HW271145   1.274   9.530   2.460
89750SOL     OW71146   4.229   7.370   4.631
89750SOL    HW171147   4.236   7.446   4.573
89750SOL    HW271148   4.139   7.373   4.663
89751SOL     OW71149   9.157   5.425   4.082
89751SOL    HW171150   9.119   5.413   4.169
89751SOL    HW271151   9.165   5.336   4.046
89752SOL     OW71152  11.837   9.062  12.929
89752SOL    HW171153  11.872   9.012  12.854
89752SOL    HW271154  11.794   9.137  12.889
89753SOL     OW71155  13.290  10.466   0.279
89753SOL    HW171156  13.221  10.477   0.214
89753SOL    HW271157  13.336  10.550   0.281
89754SOL     OW71158   6.396  12.370   5.770
89754SOL    HW171159   6.372  12.425   5.696
89754SOL    HW271160   6.317  12.368   5.825
89755SOL     OW71161   4.979   4.569  14.165
89755SOL    HW171162   5.064   4.532  14.190
89755SOL    HW271163   4.957   4.629  14.236
89756SOL     OW71164   7.833   4.110   9.319
89756SOL    HW171165   7.819   4.067   9.234
89756SOL    HW271166   7.846   4.202   9.297
89757SOL     OW71167   1.192  14.193   8.050
89757SOL    HW171168   1.268  14.222   8.000
89757SOL    HW271169   1.165  14.112   8.007
89758SOL     OW71170   0.174   2.328   9.867
89758SOL    HW171171   0.169   2.236   9.841
89758SOL    HW271172   0.088   2.364   9.844
89759SOL     OW71173   3.115  13.615  13.721
89759SOL    HW171174   3.068  13.653  13.795
89759SOL    HW271175   3.207  13.615  13.748
89760SOL     OW71176  14.531   3.396   4.095
89760SOL    HW171177  14.460   3.396   4.031
89760SOL    HW271178  14.488   3.384   4.179
89761SOL     OW71179  11.569  11.117   1.527
89761SOL    HW171180  11.533  11.035   1.495
89761SOL    HW271181  11.529  11.129   1.613
89762SOL     OW71182  12.600   1.718  10.378
89762SOL    HW171183  12.693   1.695  10.382
89762SOL    HW271184  12.554   1.638  10.402
89763SOL     OW71185  11.769   2.327   5.119
89763SOL    HW171186  11.675   2.319   5.137
89763SOL    HW271187  11.791   2.249   5.068
89764SOL     OW71188   0.135   6.891   0.779
89764SOL    HW171189   0.045   6.892   0.747
89764SOL    HW271190   0.189   6.879   0.700
89765SOL     OW71191   2.170   6.597   3.095
89765SOL    HW171192   2.206   6.519   3.053
89765SOL    HW271193   2.207   6.596   3.184
89766SOL     OW71194   4.778  14.765  11.973
89766SOL    HW171195   4.754  14.691  11.917
89766SOL    HW271196   4.703  14.824  11.968
89767SOL     OW71197  10.397   1.365   2.429
89767SOL    HW171198  10.389   1.270   2.428
89767SOL    HW271199  10.465   1.383   2.495
89768SOL     OW71200  12.660   5.630  12.463
89768SOL    HW171201  12.707   5.708  12.434
89768SOL    HW271202  12.728   5.563  12.472
89769SOL     OW71203  12.448   8.412  13.529
89769SOL    HW171204  12.530   8.448  13.563
89769SOL    HW271205  12.451   8.319  13.552
89770SOL     OW71206   5.694   3.927  12.166
89770SOL    HW171207   5.725   3.983  12.237
89770SOL    HW271208   5.773   3.906  12.116
89771SOL     OW71209  11.656   0.619   2.334
89771SOL    HW171210  11.608   0.701   2.331
89771SOL    HW271211  11.663   0.598   2.427
89772SOL     OW71212   3.524   6.271   7.916
89772SOL    HW171213   3.429   6.268   7.928
89772SOL    HW271214   3.544   6.364   7.906
89773SOL     OW71215   3.457   9.317   5.368
89773SOL    HW171216   3.518   9.292   5.438
89773SOL    HW271217   3.384   9.358   5.414
89774SOL     OW71218   0.295  11.521  10.204
89774SOL    HW171219   0.233  11.579  10.248
89774SOL    HW271220   0.296  11.442  10.257
89775SOL     OW71221   5.768   3.114   4.774
89775SOL    HW171222   5.855   3.074   4.773
89775SOL    HW271223   5.728   3.083   4.855
89776SOL     OW71224   1.905  11.716   3.583
89776SOL    HW171225   1.996  11.737   3.565
89776SOL    HW271226   1.898  11.622   3.566
89777SOL     OW71227   4.122   8.280   9.729
89777SOL    HW171228   4.107   8.319   9.643
89777SOL    HW271229   4.042   8.231   9.747
89778SOL     OW71230   5.622   9.517  14.142
89778SOL    HW171231   5.527   9.516  14.158
89778SOL    HW271232   5.631   9.486  14.052
89779SOL     OW71233   9.734   4.322   5.523
89779SOL    HW171234   9.814   4.374   5.518
89779SOL    HW271235   9.692   4.335   5.438
89780SOL     OW71236   1.999   4.528   6.905
89780SOL    HW171237   1.961   4.440   6.914
89780SOL    HW271238   2.067   4.531   6.972
89781SOL     OW71239   1.560   9.375   7.268
89781SOL    HW171240   1.597   9.314   7.332
89781SOL    HW271241   1.619   9.371   7.193
89782SOL     OW71242   6.614   0.552  12.341
89782SOL    HW171243   6.595   0.479  12.400
89782SOL    HW271244   6.583   0.629  12.388
89783SOL     OW71245   8.994   7.428   8.330
89783SOL    HW171246   9.063   7.476   8.377
89783SOL    HW271247   8.955   7.371   8.396
89784SOL     OW71248   0.880   2.749   2.432
89784SOL    HW171249   0.807   2.688   2.438
89784SOL    HW271250   0.866   2.794   2.349
89785SOL     OW71251   1.746   5.983   7.701
89785SOL    HW171252   1.826   6.017   7.660
89785SOL    HW271253   1.729   5.901   7.655
89786SOL     OW71254   8.832   5.746  12.780
89786SOL    HW171255   8.786   5.786  12.706
89786SOL    HW271256   8.793   5.786  12.857
89787SOL     OW71257   1.093   2.045   9.089
89787SOL    HW171258   1.027   2.087   9.144
89787SOL    HW271259   1.166   2.106   9.088
89788SOL     OW71260   8.422   0.569   9.230
89788SOL    HW171261   8.448   0.525   9.311
89788SOL    HW271262   8.390   0.655   9.259
89789SOL     OW71263   7.270   0.482  13.066
89789SOL    HW171264   7.280   0.388  13.076
89789SOL    HW271265   7.187   0.503  13.110
89790SOL     OW71266  13.253   3.473   3.580
89790SOL    HW171267  13.280   3.543   3.520
89790SOL    HW271268  13.276   3.506   3.667
89791SOL     OW71269   3.469  10.937  14.618
89791SOL    HW171270   3.378  10.964  14.626
89791SOL    HW271271   3.512  10.974  14.694
89792SOL     OW71272   3.173   0.481   1.359
89792SOL    HW171273   3.146   0.562   1.315
89792SOL    HW271274   3.100   0.421   1.346
89793SOL     OW71275  14.019  14.860   0.987
89793SOL    HW171276  14.074  14.814   0.924
89793SOL    HW271277  14.080   0.035   1.044
89794SOL     OW71278  13.148   9.745   6.072
89794SOL    HW171279  13.195   9.821   6.106
89794SOL    HW271280  13.057   9.775   6.063
89795SOL     OW71281  10.985  10.713   0.892
89795SOL    HW171282  10.957  10.635   0.941
89795SOL    HW271283  10.924  10.717   0.817
89796SOL     OW71284   4.086   3.587  10.464
89796SOL    HW171285   4.079   3.657  10.529
89796SOL    HW271286   4.175   3.596  10.429
89797SOL     OW71287  10.153   7.138   9.831
89797SOL    HW171288  10.137   7.150   9.925
89797SOL    HW271289  10.236   7.090   9.827
89798SOL     OW71290   7.062  10.603   1.423
89798SOL    HW171291   7.007  10.634   1.351
89798SOL    HW271292   7.097  10.520   1.391
89799SOL     OW71293  13.789  12.757   9.157
89799SOL    HW171294  13.812  12.838   9.202
89799SOL    HW271295  13.694  12.765   9.142
89800SOL     OW71296  14.774   4.751  13.203
89800SOL    HW171297  14.723   4.821  13.162
89800SOL    HW271298  14.716   4.717  13.272
89801SOL     OW71299  12.757   5.743  14.347
89801SOL    HW171300  12.851   5.761  14.344
89801SOL    HW271301  12.720   5.800  14.280
89802SOL     OW71302  10.370   8.436  13.502
89802SOL    HW171303  10.402   8.417  13.414
89802SOL    HW271304  10.288   8.483  13.489
89803SOL     OW71305  10.393   0.574   1.081
89803SOL    HW171306  10.403   0.560   0.987
89803SOL    HW271307  10.314   0.627   1.089
89804SOL     OW71308  14.119  14.025   1.952
89804SOL    HW171309  14.134  13.979   2.034
89804SOL    HW271310  14.119  13.956   1.885
89805SOL     OW71311   8.210   8.391   8.537
89805SOL    HW171312   8.148   8.417   8.605
89805SOL    HW271313   8.295   8.391   8.581
89806SOL     OW71314  12.305  11.690   3.785
89806SOL    HW171315  12.238  11.622   3.788
89806SOL    HW271316  12.388  11.643   3.797
89807SOL     OW71317   9.612   1.453   7.955
89807SOL    HW171318   9.682   1.497   8.003
89807SOL    HW271319   9.571   1.522   7.903
89808SOL     OW71320   3.264   3.851  12.955
89808SOL    HW171321   3.316   3.904  13.015
89808SOL    HW271322   3.180   3.897  12.950
89809SOL     OW71323  10.351  13.384   9.668
89809SOL    HW171324  10.318  13.462   9.713
89809SOL    HW271325  10.342  13.405   9.575
89810SOL     OW71326   5.610   5.515  14.175
89810SOL    HW171327   5.575   5.440  14.125
89810SOL    HW271328   5.547   5.527  14.246
89811SOL     OW71329  10.826   1.174  13.193
89811SOL    HW171330  10.871   1.253  13.165
89811SOL    HW271331  10.842   1.169  13.288
89812SOL     OW71332  13.615   4.884   1.627
89812SOL    HW171333  13.591   4.868   1.718
89812SOL    HW271334  13.697   4.835   1.615
89813SOL     OW71335   9.873   6.702   2.348
89813SOL    HW171336   9.789   6.713   2.305
89813SOL    HW271337   9.924   6.779   2.322
89814SOL     OW71338   9.122   8.875   8.080
89814SOL    HW171339   9.207   8.906   8.110
89814SOL    HW271340   9.098   8.935   8.009
89815SOL     OW71341   6.222  11.065   2.264
89815SOL    HW171342   6.226  11.153   2.225
89815SOL    HW271343   6.240  11.006   2.191
89816SOL     OW71344   1.974   8.727   1.119
89816SOL    HW171345   1.949   8.721   1.027
89816SOL    HW271346   1.920   8.661   1.163
89817SOL     OW71347   8.252  13.248  14.522
89817SOL    HW171348   8.340  13.217  14.541
89817SOL    HW271349   8.258  13.343  14.525
89818SOL     OW71350  12.280   3.300  14.859
89818SOL    HW171351  12.338   3.249   0.044
89818SOL    HW271352  12.210   3.239  14.836
89819SOL     OW71353   2.039  10.286   4.576
89819SOL    HW171354   2.123  10.266   4.615
89819SOL    HW271355   1.975  10.244   4.634
89820SOL     OW71356  12.257   2.937  12.647
89820SOL    HW171357  12.351   2.927  12.659
89820SOL    HW271358  12.248   2.988  12.566
89821SOL     OW71359   2.471   0.874   3.178
89821SOL    HW171360   2.402   0.886   3.113
89821SOL    HW271361   2.552   0.866   3.127
89822SOL     OW71362   5.846   0.319  13.407
89822SOL    HW171363   5.898   0.321  13.327
89822SOL    HW271364   5.764   0.363  13.383
89823SOL     OW71365   5.948   9.557  12.709
89823SOL    HW171366   5.920   9.641  12.745
89823SOL    HW271367   5.986   9.511  12.783
89824SOL     OW71368   1.301  11.029   2.112
89824SOL    HW171369   1.355  11.101   2.078
89824SOL    HW271370   1.241  11.071   2.173
89825SOL     OW71371   7.441   8.523   4.180
89825SOL    HW171372   7.493   8.586   4.131
89825SOL    HW271373   7.360   8.515   4.129
89826SOL     OW71374   6.274   1.669   5.286
89826SOL    HW171375   6.349   1.645   5.231
89826SOL    HW271376   6.303   1.650   5.375
89827SOL     OW71377   8.450   1.674   7.129
89827SOL    HW171378   8.382   1.637   7.072
89827SOL    HW271379   8.410   1.674   7.216
89828SOL     OW71380  11.997   3.399   4.108
89828SOL    HW171381  11.920   3.437   4.065
89828SOL    HW271382  12.060   3.471   4.113
89829SOL     OW71383  14.573   0.647   7.199
89829SOL    HW171384  14.658   0.665   7.158
89829SOL    HW271385  14.509   0.664   7.129
89830SOL     OW71386  10.583   5.524   8.940
89830SOL    HW171387  10.604   5.530   8.847
89830SOL    HW271388  10.667   5.528   8.984
89831SOL     OW71389   9.063   5.111   6.239
89831SOL    HW171390   9.155   5.110   6.210
89831SOL    HW271391   9.026   5.030   6.205
89832SOL     OW71392   0.877   0.527   2.789
89832SOL    HW171393   0.910   0.598   2.844
89832SOL    HW271394   0.933   0.452   2.810
89833SOL     OW71395   0.337  11.023   5.710
89833SOL    HW171396   0.401  11.088   5.681
89833SOL    HW271397   0.317  11.049   5.800
89834SOL     OW71398  10.245  14.808  13.158
89834SOL    HW171399  10.152  14.789  13.145
89834SOL    HW271400  10.253   0.029  13.138
89835SOL     OW71401  14.728   7.038   5.499
89835SOL    HW171402  14.821   7.039   5.522
89835SOL    HW271403  14.726   7.061   5.407
89836SOL     OW71404   6.228   4.324   8.440
89836SOL    HW171405   6.312   4.319   8.394
89836SOL    HW271406   6.194   4.235   8.437
89837SOL     OW71407  13.818   8.422   3.455
89837SOL    HW171408  13.810   8.399   3.548
89837SOL    HW271409  13.872   8.353   3.418
89838SOL     OW71410  11.323  11.726   1.690
89838SOL    HW171411  11.297  11.657   1.630
89838SOL    HW271412  11.241  11.770   1.713
89839SOL     OW71413   9.371   2.362  14.025
89839SOL    HW171414   9.350   2.455  14.035
89839SOL    HW271415   9.411   2.356  13.939
89840SOL     OW71416   2.187  10.546   7.099
89840SOL    HW171417   2.142  10.530   7.016
89840SOL    HW271418   2.274  10.577   7.074
89841SOL     OW71419  14.218   7.450  13.388
89841SOL    HW171420  14.285   7.506  13.350
89841SOL    HW271421  14.263   7.368  13.408
89842SOL     OW71422   1.645   3.642  13.913
89842SOL    HW171423   1.649   3.609  14.003
89842SOL    HW271424   1.634   3.737  13.923
89843SOL     OW71425   3.715   2.959   0.638
89843SOL    HW171426   3.629   2.996   0.658
89843SOL    HW271427   3.777   3.023   0.673
89844SOL     OW71428   5.865   9.162   0.662
89844SOL    HW171429   5.896   9.250   0.642
89844SOL    HW271430   5.942   9.118   0.699
89845SOL     OW71431  14.123   4.347  14.532
89845SOL    HW171432  14.196   4.324  14.589
89845SOL    HW271433  14.164   4.388  14.455
89846SOL     OW71434   5.185   0.059   7.810
89846SOL    HW171435   5.174   0.146   7.848
89846SOL    HW271436   5.112   0.008   7.846
89847SOL     OW71437   8.863   2.525   2.910
89847SOL    HW171438   8.798   2.512   2.979
89847SOL    HW271439   8.918   2.597   2.943
89848SOL     OW71440   4.756   6.922   1.941
89848SOL    HW171441   4.839   6.889   1.905
89848SOL    HW271442   4.712   6.843   1.973
89849SOL     OW71443   0.058  11.386  12.448
89849SOL    HW171444   0.146  11.412  12.422
89849SOL    HW271445   0.059  11.388  12.544
89850SOL     OW71446  10.283  13.123   0.312
89850SOL    HW171447  10.264  13.083   0.227
89850SOL    HW271448  10.199  13.123   0.357
89851SOL     OW71449  11.335   7.216   9.049
89851SOL    HW171450  11.377   7.279   8.990
89851SOL    HW271451  11.300   7.270   9.120
89852SOL     OW71452  13.638  12.721  12.768
89852SOL    HW171453  13.588  12.662  12.823
89852SOL    HW271454  13.575  12.754  12.704
89853SOL     OW71455  11.070   9.426   0.823
89853SOL    HW171456  10.986   9.393   0.856
89853SOL    HW271457  11.093   9.498   0.883
89854SOL     OW71458   2.536   9.985  14.831
89854SOL    HW171459   2.508   9.898  14.803
89854SOL    HW271460   2.574   9.972   0.045
89855SOL     OW71461   2.227   7.988  11.858
89855SOL    HW171462   2.226   7.993  11.954
89855SOL    HW271463   2.319   7.995  11.834
89856SOL     OW71464   6.443   4.412   0.975
89856SOL    HW171465   6.355   4.439   0.947
89856SOL    HW271466   6.493   4.403   0.894
89857SOL     OW71467   9.068   4.109   6.842
89857SOL    HW171468   9.109   4.092   6.757
89857SOL    HW271469   9.123   4.177   6.882
89858SOL     OW71470  11.506  13.878   2.280
89858SOL    HW171471  11.513  13.898   2.187
89858SOL    HW271472  11.437  13.936   2.312
89859SOL     OW71473   4.206  11.132   9.265
89859SOL    HW171474   4.197  11.089   9.181
89859SOL    HW271475   4.164  11.217   9.254
89860SOL     OW71476   6.232   9.888   8.336
89860SOL    HW171477   6.147   9.916   8.301
89860SOL    HW271478   6.293   9.905   8.264
89861SOL     OW71479   6.768  12.371   9.578
89861SOL    HW171480   6.815  12.290   9.558
89861SOL    HW271481   6.685  12.363   9.532
89862SOL     OW71482   4.147   3.076   0.585
89862SOL    HW171483   4.101   3.154   0.555
89862SOL    HW271484   4.216   3.062   0.519
89863SOL     OW71485   3.583  13.137   2.211
89863SOL    HW171486   3.503  13.154   2.260
89863SOL    HW271487   3.648  13.197   2.249
89864SOL     OW71488   7.415   0.268   2.294
89864SOL    HW171489   7.334   0.217   2.285
89864SOL    HW271490   7.483   0.203   2.309
89865SOL     OW71491   4.038   0.701  11.277
89865SOL    HW171492   4.122   0.702  11.323
89865SOL    HW271493   4.032   0.613  11.240
89866SOL     OW71494   3.791  14.158   0.553
89866SOL    HW171495   3.867  14.100   0.543
89866SOL    HW271496   3.809  14.209   0.631
89867SOL     OW71497   8.039  12.993  12.194
89867SOL    HW171498   8.125  12.958  12.172
89867SOL    HW271499   8.044  13.086  12.171
89868SOL     OW71500   7.398   8.125   8.124
89868SOL    HW171501   7.375   8.096   8.036
89868SOL    HW271502   7.336   8.080   8.182
89869SOL     OW71503   8.570   5.403  10.559
89869SOL    HW171504   8.494   5.428  10.507
89869SOL    HW271505   8.533   5.363  10.638
89870SOL     OW71506  12.429   0.405   8.156
89870SOL    HW171507  12.508   0.355   8.136
89870SOL    HW271508  12.377   0.347   8.212
89871SOL     OW71509   4.524   7.349   3.633
89871SOL    HW171510   4.429   7.349   3.649
89871SOL    HW271511   4.551   7.259   3.652
89872SOL     OW71512   1.624   9.980   1.631
89872SOL    HW171513   1.671   9.971   1.548
89872SOL    HW271514   1.692   9.999   1.695
89873SOL     OW71515  12.260   2.407  10.676
89873SOL    HW171516  12.333   2.360  10.636
89873SOL    HW271517  12.217   2.451  10.602
89874SOL     OW71518  11.036   1.558  12.905
89874SOL    HW171519  11.004   1.508  12.980
89874SOL    HW271520  10.995   1.516  12.829
89875SOL     OW71521   1.282  12.459   7.056
89875SOL    HW171522   1.365  12.428   7.090
89875SOL    HW271523   1.232  12.486   7.133
89876SOL     OW71524   7.488   4.350  11.513
89876SOL    HW171525   7.520   4.316  11.429
89876SOL    HW271526   7.498   4.276  11.574
89877SOL     OW71527   3.221   3.530   8.841
89877SOL    HW171528   3.146   3.565   8.888
89877SOL    HW271529   3.270   3.608   8.814
89878SOL     OW71530   1.795  10.962  12.202
89878SOL    HW171531   1.746  11.013  12.138
89878SOL    HW271532   1.730  10.935  12.267
89879SOL     OW71533  11.030   1.554   6.260
89879SOL    HW171534  10.977   1.552   6.339
89879SOL    HW271535  11.010   1.471   6.216
89880SOL     OW71536   1.901  11.137   1.332
89880SOL    HW171537   1.979  11.084   1.350
89880SOL    HW271538   1.936  11.218   1.295
89881SOL     OW71539   0.944   0.554   3.787
89881SOL    HW171540   0.901   0.473   3.760
89881SOL    HW271541   0.893   0.624   3.746
89882SOL     OW71542   9.863   4.755  12.663
89882SOL    HW171543   9.828   4.823  12.606
89882SOL    HW271544   9.957   4.767  12.661
89883SOL     OW71545   7.022  10.539   2.300
89883SOL    HW171546   7.036  10.471   2.366
89883SOL    HW271547   7.088  10.605   2.319
89884SOL     OW71548  10.300  14.694  13.946
89884SOL    HW171549  10.360  14.704  13.872
89884SOL    HW271550  10.317  14.771  14.001
89885SOL     OW71551   6.039   2.374  12.426
89885SOL    HW171552   6.123   2.378  12.380
89885SOL    HW271553   6.018   2.281  12.429
89886SOL     OW71554   0.753  12.503  10.363
89886SOL    HW171555   0.819  12.465  10.305
89886SOL    HW271556   0.673  12.453  10.344
89887SOL     OW71557  14.828  11.528  13.503
89887SOL    HW171558   0.036  11.475  13.501
89887SOL    HW271559  14.780  11.501  13.424
89888SOL     OW71560   9.507   5.593   5.144
89888SOL    HW171561   9.477   5.596   5.053
89888SOL    HW271562   9.598   5.564   5.139
89889SOL     OW71563  14.839   5.559   9.984
89889SOL    HW171564   0.050   5.572   9.939
89889SOL    HW271565  14.775   5.547   9.914
89890SOL     OW71566   1.709   2.621   7.435
89890SOL    HW171567   1.758   2.687   7.484
89890SOL    HW271568   1.751   2.538   7.456
89891SOL     OW71569   5.659  11.644   1.615
89891SOL    HW171570   5.738  11.655   1.563
89891SOL    HW271571   5.654  11.724   1.668
89892SOL     OW71572   5.766   6.663   7.911
89892SOL    HW171573   5.860   6.674   7.896
89892SOL    HW271574   5.736   6.749   7.939
89893SOL     OW71575   1.343   8.206  13.229
89893SOL    HW171576   1.383   8.121  13.246
89893SOL    HW271577   1.282   8.219  13.301
89894SOL     OW71578   5.359   8.367   9.168
89894SOL    HW171579   5.327   8.344   9.080
89894SOL    HW271580   5.365   8.283   9.214
89895SOL     OW71581   7.547   2.829  12.758
89895SOL    HW171582   7.467   2.786  12.728
89895SOL    HW271583   7.618   2.779  12.718
89896SOL     OW71584   2.253   7.913   2.765
89896SOL    HW171585   2.270   7.915   2.859
89896SOL    HW271586   2.158   7.924   2.757
89897SOL     OW71587   1.000   9.077   8.677
89897SOL    HW171588   1.081   9.068   8.626
89897SOL    HW271589   1.017   9.150   8.736
89898SOL     OW71590   1.597   2.116   6.531
89898SOL    HW171591   1.600   2.075   6.617
89898SOL    HW271592   1.504   2.120   6.510
89899SOL     OW71593   3.914   1.372   2.250
89899SOL    HW171594   3.975   1.349   2.320
89899SOL    HW271595   3.830   1.381   2.293
89900SOL     OW71596   1.358   3.284   1.305
89900SOL    HW171597   1.366   3.279   1.209
89900SOL    HW271598   1.448   3.281   1.337
89901SOL     OW71599   4.489   7.404   8.448
89901SOL    HW171600   4.505   7.454   8.368
89901SOL    HW271601   4.556   7.434   8.509
89902SOL     OW71602   1.602   8.165  14.037
89902SOL    HW171603   1.672   8.190  13.977
89902SOL    HW271604   1.647   8.150  14.121
89903SOL     OW71605  11.636   1.594  13.496
89903SOL    HW171606  11.549   1.617  13.465
89903SOL    HW271607  11.621   1.524  13.560
89904SOL     OW71608   3.336   7.680   1.735
89904SOL    HW171609   3.275   7.672   1.660
89904SOL    HW271610   3.369   7.592   1.748
89905SOL     OW71611   7.585   0.586   5.320
89905SOL    HW171612   7.537   0.577   5.238
89905SOL    HW271613   7.634   0.668   5.311
89906SOL     OW71614   5.005   6.544   6.139
89906SOL    HW171615   4.962   6.628   6.153
89906SOL    HW271616   5.007   6.534   6.043
89907SOL     OW71617   2.496   3.430   1.389
89907SOL    HW171618   2.462   3.385   1.312
89907SOL    HW271619   2.537   3.509   1.353
89908SOL     OW71620   7.237   3.874   3.240
89908SOL    HW171621   7.275   3.819   3.309
89908SOL    HW271622   7.164   3.919   3.282
89909SOL     OW71623  10.708   3.137  13.486
89909SOL    HW171624  10.712   3.079  13.562
89909SOL    HW271625  10.663   3.216  13.518
89910SOL     OW71626  13.116   6.906  10.704
89910SOL    HW171627  13.156   6.891  10.789
89910SOL    HW271628  13.102   6.819  10.668
89911SOL     OW71629   3.284   7.554  11.312
89911SOL    HW171630   3.204   7.594  11.277
89911SOL    HW271631   3.305   7.484  11.251
89912SOL     OW71632   9.294   5.433   7.434
89912SOL    HW171633   9.216   5.460   7.385
89912SOL    HW271634   9.276   5.462   7.524
89913SOL     OW71635   1.773   1.470   0.109
89913SOL    HW171636   1.814   1.556   0.114
89913SOL    HW271637   1.777   1.447   0.016
89914SOL     OW71638   4.847   2.321  12.616
89914SOL    HW171639   4.753   2.314  12.605
89914SOL    HW271640   4.877   2.232  12.633
89915SOL     OW71641  10.640  12.791   7.054
89915SOL    HW171642  10.633  12.788   7.149
89915SOL    HW271643  10.687  12.711   7.031
89916SOL     OW71644  12.615   3.399  11.975
89916SOL    HW171645  12.656   3.425  11.893
89916SOL    HW271646  12.563   3.322  11.952
89917SOL     OW71647   7.524   5.404   8.294
89917SOL    HW171648   7.593   5.349   8.333
89917SOL    HW271649   7.491   5.455   8.368
89918SOL     OW71650   7.071   2.881  13.440
89918SOL    HW171651   7.133   2.809  13.438
89918SOL    HW271652   7.041   2.890  13.349
89919SOL     OW71653   6.636   0.328  12.089
89919SOL    HW171654   6.646   0.422  12.074
89919SOL    HW271655   6.722   0.291  12.072
89920SOL     OW71656  11.514  11.302   5.343
89920SOL    HW171657  11.544  11.344   5.263
89920SOL    HW271658  11.418  11.299   5.335
89921SOL     OW71659   9.540   6.798   2.867
89921SOL    HW171660   9.505   6.884   2.843
89921SOL    HW271661   9.500   6.779   2.952
89922SOL     OW71662  13.166   7.977   4.829
89922SOL    HW171663  13.220   7.965   4.907
89922SOL    HW271664  13.077   7.988   4.863
89923SOL     OW71665   6.992  11.886   0.965
89923SOL    HW171666   7.013  11.925   1.050
89923SOL    HW271667   7.051  11.811   0.958
89924SOL     OW71668  12.154   2.589   5.814
89924SOL    HW171669  12.238   2.568   5.854
89924SOL    HW271670  12.172   2.658   5.751
89925SOL     OW71671   5.128   6.764   3.379
89925SOL    HW171672   5.223   6.771   3.368
89925SOL    HW271673   5.117   6.722   3.465
89926SOL     OW71674   3.353   1.578  10.977
89926SOL    HW171675   3.302   1.497  10.989
89926SOL    HW271676   3.422   1.553  10.915
89927SOL     OW71677  10.994   9.232   7.285
89927SOL    HW171678  11.003   9.182   7.203
89927SOL    HW271679  10.941   9.176   7.341
89928SOL     OW71680   9.834   8.224  14.545
89928SOL    HW171681   9.764   8.167  14.577
89928SOL    HW271682   9.903   8.216  14.611
89929SOL     OW71683   6.817   8.803   8.749
89929SOL    HW171684   6.797   8.868   8.816
89929SOL    HW271685   6.732   8.779   8.713
89930SOL     OW71686   7.397   7.904   9.585
89930SOL    HW171687   7.403   7.926   9.492
89930SOL    HW271688   7.343   7.974   9.622
89931SOL     OW71689   8.125   9.267  12.130
89931SOL    HW171690   8.138   9.173  12.147
89931SOL    HW271691   8.074   9.298  12.205
89932SOL     OW71692   2.790   0.072   3.565
89932SOL    HW171693   2.743   0.022   3.498
89932SOL    HW271694   2.833   0.006   3.619
89933SOL     OW71695   7.357   4.297   9.804
89933SOL    HW171696   7.284   4.311   9.742
89933SOL    HW271697   7.432   4.337   9.762
89934SOL     OW71698   5.643  14.243  14.580
89934SOL    HW171699   5.685  14.243  14.666
89934SOL    HW271700   5.559  14.200  14.594
89935SOL     OW71701  11.012   0.613   8.310
89935SOL    HW171702  10.974   0.654   8.233
89935SOL    HW271703  10.960   0.646   8.383
89936SOL     OW71704  11.138   7.606   5.157
89936SOL    HW171705  11.185   7.662   5.219
89936SOL    HW271706  11.175   7.629   5.071
89937SOL     OW71707  12.247   8.159   8.014
89937SOL    HW171708  12.182   8.098   8.048
89937SOL    HW271709  12.271   8.214   8.089
89938SOL     OW71710  10.621   6.821  12.960
89938SOL    HW171711  10.673   6.862  12.890
89938SOL    HW271712  10.533   6.856  12.948
89939SOL     OW71713   9.565  13.593   7.040
89939SOL    HW171714   9.548  13.685   7.059
89939SOL    HW271715   9.660  13.586   7.035
89940SOL     OW71716   6.199   8.778  12.596
89940SOL    HW171717   6.286   8.818  12.607
89940SOL    HW271718   6.204   8.734  12.511
89941SOL     OW71719   9.928   2.752  12.968
89941SOL    HW171720   9.842   2.737  12.928
89941SOL    HW271721   9.973   2.668  12.963
89942SOL     OW71722   2.493  12.830  12.072
89942SOL    HW171723   2.407  12.869  12.055
89942SOL    HW271724   2.541  12.842  11.990
89943SOL     OW71725   8.257   4.013  10.566
89943SOL    HW171726   8.350   4.034  10.556
89943SOL    HW271727   8.217   4.040  10.483
89944SOL     OW71728   7.374  13.366   4.724
89944SOL    HW171729   7.428  13.414   4.787
89944SOL    HW271730   7.375  13.276   4.755
89945SOL     OW71731   2.378   0.416   4.307
89945SOL    HW171732   2.376   0.462   4.391
89945SOL    HW271733   2.439   0.466   4.253
89946SOL     OW71734   0.987  14.135   5.629
89946SOL    HW171735   1.014  14.099   5.713
89946SOL    HW271736   0.895  14.111   5.621
89947SOL     OW71737   0.351   9.418  12.634
89947SOL    HW171738   0.447   9.422  12.633
89947SOL    HW271739   0.330   9.366  12.711
89948SOL     OW71740   6.183   9.028  11.618
89948SOL    HW171741   6.100   9.049  11.575
89948SOL    HW271742   6.249   9.076  11.568
89949SOL     OW71743   3.699   9.363   5.133
89949SOL    HW171744   3.646   9.309   5.193
89949SOL    HW271745   3.638   9.391   5.066
89950SOL     OW71746  10.968   1.679   5.722
89950SOL    HW171747  10.872   1.686   5.723
89950SOL    HW271748  10.998   1.768   5.736
89951SOL     OW71749   9.976   5.376   7.918
89951SOL    HW171750   9.977   5.282   7.901
89951SOL    HW271751  10.031   5.414   7.849
89952SOL     OW71752   6.825   0.906   3.009
89952SOL    HW171753   6.851   0.894   3.100
89952SOL    HW271754   6.762   0.978   3.012
89953SOL     OW71755  11.403   2.463  12.260
89953SOL    HW171756  11.460   2.448  12.185
89953SOL    HW271757  11.358   2.545  12.240
89954SOL     OW71758  13.353   1.774   5.672
89954SOL    HW171759  13.394   1.740   5.593
89954SOL    HW271760  13.311   1.856   5.645
89955SOL     OW71761  11.828   7.926   9.813
89955SOL    HW171762  11.749   7.915   9.866
89955SOL    HW271763  11.836   8.021   9.802
89956SOL     OW71764   8.385   0.496   8.461
89956SOL    HW171765   8.415   0.531   8.377
89956SOL    HW271766   8.361   0.405   8.442
89957SOL     OW71767   4.865   9.070   0.534
89957SOL    HW171768   4.832   9.121   0.460
89957SOL    HW271769   4.791   9.017   0.563
89958SOL     OW71770   8.782   6.413   4.020
89958SOL    HW171771   8.721   6.370   3.960
89958SOL    HW271772   8.733   6.489   4.053
89959SOL     OW71773   4.510  10.672   5.807
89959SOL    HW171774   4.418  10.663   5.781
89959SOL    HW271775   4.557  10.680   5.724
89960SOL     OW71776   4.771   8.704   2.603
89960SOL    HW171777   4.842   8.695   2.539
89960SOL    HW271778   4.815   8.705   2.688
89961SOL     OW71779   7.435   4.019   1.498
89961SOL    HW171780   7.494   4.080   1.543
89961SOL    HW271781   7.421   3.948   1.561
89962SOL     OW71782   7.560  13.462  10.566
89962SOL    HW171783   7.629  13.398  10.546
89962SOL    HW271784   7.608  13.538  10.598
89963SOL     OW71785   4.955   4.334   8.801
89963SOL    HW171786   4.970   4.280   8.723
89963SOL    HW271787   5.000   4.416   8.781
89964SOL     OW71788  10.869   6.916   4.693
89964SOL    HW171789  10.935   6.941   4.758
89964SOL    HW271790  10.916   6.861   4.631
89965SOL     OW71791  14.738  12.645   2.865
89965SOL    HW171792  14.767  12.628   2.775
89965SOL    HW271793  14.771  12.732   2.885
89966SOL     OW71794   4.937  14.233  11.869
89966SOL    HW171795   4.921  14.300  11.804
89966SOL    HW271796   4.891  14.263  11.947
89967SOL     OW71797   2.158   4.760   5.942
89967SOL    HW171798   2.088   4.703   5.909
89967SOL    HW271799   2.178   4.819   5.870
89968SOL     OW71800  11.944   2.007  11.906
89968SOL    HW171801  12.038   2.018  11.923
89968SOL    HW271802  11.902   2.026  11.990
89969SOL     OW71803  10.392   4.062   9.043
89969SOL    HW171804  10.436   3.979   9.024
89969SOL    HW271805  10.317   4.065   8.984
89970SOL     OW71806   0.280  12.582   7.461
89970SOL    HW171807   0.349  12.570   7.527
89970SOL    HW271808   0.283  12.676   7.441
89971SOL     OW71809   5.900   3.502  12.718
89971SOL    HW171810   5.911   3.482  12.625
89971SOL    HW271811   5.805   3.494  12.733
89972SOL     OW71812  11.443  11.322   2.046
89972SOL    HW171813  11.401  11.403   2.076
89972SOL    HW271814  11.441  11.330   1.950
89973SOL     OW71815   1.403  11.098   8.736
89973SOL    HW171816   1.332  11.139   8.785
89973SOL    HW271817   1.439  11.168   8.682
89974SOL     OW71818  14.436   4.578   9.939
89974SOL    HW171819  14.479   4.610   9.860
89974SOL    HW271820  14.353   4.541   9.909
89975SOL     OW71821   9.312   7.824   0.148
89975SOL    HW171822   9.264   7.772   0.212
89975SOL    HW271823   9.341   7.901   0.197
89976SOL     OW71824   7.472   7.440   1.427
89976SOL    HW171825   7.465   7.354   1.387
89976SOL    HW271826   7.395   7.446   1.484
89977SOL     OW71827   2.326   8.356  10.301
89977SOL    HW171828   2.245   8.376  10.347
89977SOL    HW271829   2.369   8.440  10.287
89978SOL     OW71830   1.813   1.402  13.079
89978SOL    HW171831   1.881   1.405  13.147
89978SOL    HW271832   1.859   1.421  12.998
89979SOL     OW71833  10.482   0.037   3.274
89979SOL    HW171834  10.545  14.838   3.260
89979SOL    HW271835  10.520   0.089   3.344
89980SOL     OW71836   4.111   9.923   9.792
89980SOL    HW171837   4.032   9.972   9.769
89980SOL    HW271838   4.115   9.926   9.887
89981SOL     OW71839  12.968  14.007   0.283
89981SOL    HW171840  12.976  14.076   0.218
89981SOL    HW271841  12.873  13.998   0.296
89982SOL     OW71842   4.474   8.393   7.721
89982SOL    HW171843   4.379   8.390   7.715
89982SOL    HW271844   4.501   8.301   7.725
89983SOL     OW71845   1.485  12.712   1.938
89983SOL    HW171846   1.458  12.647   1.874
89983SOL    HW271847   1.404  12.757   1.963
89984SOL     OW71848  10.713  10.943  13.502
89984SOL    HW171849  10.802  10.936  13.535
89984SOL    HW271850  10.685  11.031  13.526
89985SOL     OW71851   2.727  12.180   9.180
89985SOL    HW171852   2.698  12.259   9.134
89985SOL    HW271853   2.727  12.112   9.113
89986SOL     OW71854   2.810  13.201   6.364
89986SOL    HW171855   2.791  13.109   6.386
89986SOL    HW271856   2.762  13.216   6.283
89987SOL     OW71857   0.488   7.774   3.113
89987SOL    HW171858   0.547   7.825   3.057
89987SOL    HW271859   0.508   7.805   3.202
89988SOL     OW71860   2.891   3.589   9.678
89988SOL    HW171861   2.914   3.605   9.587
89988SOL    HW271862   2.851   3.502   9.677
89989SOL     OW71863   2.290  13.483   3.028
89989SOL    HW171864   2.236  13.443   3.096
89989SOL    HW271865   2.354  13.536   3.075
89990SOL     OW71866   9.865  10.204   7.625
89990SOL    HW171867   9.856  10.212   7.530
89990SOL    HW271868   9.776  10.190   7.657
89991SOL     OW71869  11.761  11.868  11.200
89991SOL    HW171870  11.809  11.790  11.229
89991SOL    HW271871  11.680  11.833  11.162
89992SOL     OW71872  12.930  14.829   8.291
89992SOL    HW171873  12.931  14.854   8.383
89992SOL    HW271874  13.022  14.829   8.265
89993SOL     OW71875  14.767   2.987  14.327
89993SOL    HW171876  14.791   3.078  14.309
89993SOL    HW271877  14.814   2.936  14.260
89994SOL     OW71878   7.223   4.583  10.160
89994SOL    HW171879   7.168   4.661  10.157
89994SOL    HW271880   7.219   4.548  10.071
89995SOL     OW71881   4.594   8.125   0.901
89995SOL    HW171882   4.612   8.047   0.849
89995SOL    HW271883   4.680   8.153   0.934
89996SOL     OW71884   6.693  13.459  14.688
89996SOL    HW171885   6.747  13.521  14.640
89996SOL    HW271886   6.692  13.492  14.778
89997SOL     OW71887   4.979  11.539   6.933
89997SOL    HW171888   5.011  11.624   6.962
89997SOL    HW271889   4.883  11.546   6.937
89998SOL     OW71890  14.429   3.753   7.435
89998SOL    HW171891  14.513   3.738   7.391
89998SOL    HW271892  14.363   3.732   7.368
89999SOL     OW71893  13.014   3.361   9.221
89999SOL    HW171894  12.944   3.426   9.227
89999SOL    HW271895  13.045   3.351   9.311
90000SOL     OW71896   8.480   5.915   3.888
90000SOL    HW171897   8.389   5.943   3.882
90000SOL    HW271898   8.518   5.938   3.803
90001SOL     OW71899  14.590   4.021   3.207
90001SOL    HW171900  14.630   3.948   3.159
90001SOL    HW271901  14.632   4.019   3.293
90002SOL     OW71902   4.236  10.017   3.610
90002SOL    HW171903   4.269   9.937   3.652
90002SOL    HW271904   4.250  10.086   3.674
90003SOL     OW71905   1.661   5.602   9.876
90003SOL    HW171906   1.571   5.609   9.908
90003SOL    HW271907   1.652   5.602   9.781
90004SOL     OW71908   6.421   9.070   0.134
90004SOL    HW171909   6.496   9.051   0.078
90004SOL    HW271910   6.369   8.990   0.134
90005SOL     OW71911   6.195   2.381   6.499
90005SOL    HW171912   6.234   2.299   6.529
90005SOL    HW271913   6.102   2.361   6.491
90006SOL     OW71914   0.364   9.266   1.588
90006SOL    HW171915   0.438   9.207   1.602
90006SOL    HW271916   0.374   9.295   1.497
90007SOL     OW71917   0.708   9.917   4.144
90007SOL    HW171918   0.737   9.926   4.053
90007SOL    HW271919   0.712  10.007   4.179
90008SOL     OW71920   6.343   7.652   9.993
90008SOL    HW171921   6.292   7.690  10.065
90008SOL    HW271922   6.278   7.605   9.941
90009SOL     OW71923   1.028  10.758  10.655
90009SOL    HW171924   0.966  10.759  10.728
90009SOL    HW271925   0.973  10.765  10.577
90010SOL     OW71926   4.023   4.645   5.110
90010SOL    HW171927   3.980   4.729   5.126
90010SOL    HW271928   4.113   4.658   5.141
90011SOL     OW71929   4.683  14.218  10.199
90011SOL    HW171930   4.735  14.229  10.278
90011SOL    HW271931   4.716  14.286  10.139
90012SOL     OW71932  11.911  13.022   1.423
90012SOL    HW171933  11.835  13.055   1.472
90012SOL    HW271934  11.936  13.095   1.367
90013SOL     OW71935   8.452   5.529   8.797
90013SOL    HW171936   8.482   5.471   8.868
90013SOL    HW271937   8.370   5.489   8.767
90014SOL     OW71938   0.273   5.736   4.728
90014SOL    HW171939   0.284   5.710   4.820
90014SOL    HW271940   0.359   5.770   4.703
90015SOL     OW71941   1.824   7.078   7.196
90015SOL    HW171942   1.793   6.995   7.161
90015SOL    HW271943   1.798   7.077   7.289
90016SOL     OW71944  10.262   8.030   2.860
90016SOL    HW171945  10.238   8.121   2.875
90016SOL    HW271946  10.196   7.979   2.907
90017SOL     OW71947   2.726  11.494   5.115
90017SOL    HW171948   2.764  11.407   5.102
90017SOL    HW271949   2.633  11.482   5.095
90018SOL     OW71950  14.618   8.917   3.810
90018SOL    HW171951  14.595   9.008   3.824
90018SOL    HW271952  14.554   8.867   3.860
90019SOL     OW71953   2.257   3.321   7.947
90019SOL    HW171954   2.279   3.272   8.027
90019SOL    HW271955   2.328   3.299   7.886
90020SOL     OW71956   9.922  13.006   3.828
90020SOL    HW171957   9.943  12.975   3.916
90020SOL    HW271958   9.924  13.101   3.835
90021SOL     OW71959   7.664   1.803   6.531
90021SOL    HW171960   7.575   1.810   6.565
90021SOL    HW271961   7.680   1.709   6.526
90022SOL     OW71962   0.570  13.416   2.129
90022SOL    HW171963   0.490  13.429   2.078
90022SOL    HW271964   0.633  13.380   2.067
90023SOL     OW71965  13.236   9.918   8.200
90023SOL    HW171966  13.220   9.980   8.130
90023SOL    HW271967  13.229   9.832   8.158
90024SOL     OW71968  12.357   5.939  13.036
90024SOL    HW171969  12.301   5.915  13.110
90024SOL    HW271970  12.300   5.930  12.960
90025SOL     OW71971  11.153   1.164   7.710
90025SOL    HW171972  11.119   1.160   7.621
90025SOL    HW271973  11.204   1.246   7.713
90026SOL     OW71974   8.606  14.258  13.233
90026SOL    HW171975   8.618  14.334  13.175
90026SOL    HW271976   8.672  14.195  13.203
90027SOL     OW71977   2.417   0.957   4.737
90027SOL    HW171978   2.441   1.040   4.778
90027SOL    HW271979   2.368   0.910   4.805
90028SOL     OW71980   8.556   7.358  11.434
90028SOL    HW171981   8.595   7.426  11.488
90028SOL    HW271982   8.626   7.294  11.421
90029SOL     OW71983   9.008  12.877   9.746
90029SOL    HW171984   8.947  12.918   9.685
90029SOL    HW271985   9.087  12.931   9.741
90030SOL     OW71986   7.091  11.944   7.444
90030SOL    HW171987   7.043  11.869   7.408
90030SOL    HW271988   7.068  12.017   7.387
90031SOL     OW71989  11.073  12.142   4.786
90031SOL    HW171990  11.103  12.052   4.800
90031SOL    HW271991  11.133  12.177   4.720
90032SOL     OW71992   7.300   4.990  11.227
90032SOL    HW171993   7.325   4.900  11.246
90032SOL    HW271994   7.382   5.036  11.213
90033SOL     OW71995  11.593  14.833   4.907
90033SOL    HW171996  11.509  14.794   4.883
90033SOL    HW271997  11.657  14.791   4.850
90034SOL     OW71998   3.105  12.798  14.090
90034SOL    HW171999   3.023  12.830  14.127
90034SOL    HW272000   3.163  12.786  14.165
90035SOL     OW72001   6.857   5.803  12.359
90035SOL    HW172002   6.931   5.857  12.331
90035SOL    HW272003   6.813   5.778  12.278
90036SOL     OW72004   9.133  14.242  13.637
90036SOL    HW172005   9.042  14.270  13.634
90036SOL    HW272006   9.157  14.250  13.730
90037SOL     OW72007   7.405   1.648  11.431
90037SOL    HW172008   7.334   1.590  11.459
90037SOL    HW272009   7.467   1.647  11.504
90038SOL     OW72010  10.894  10.134  13.090
90038SOL    HW172011  10.904  10.056  13.145
90038SOL    HW272012  10.981  10.149  13.053
90039SOL     OW72013   7.149   5.161   7.051
90039SOL    HW172014   7.172   5.249   7.024
90039SOL    HW272015   7.148   5.164   7.146
90040SOL     OW72016   6.122  14.258   5.568
90040SOL    HW172017   6.029  14.255   5.545
90040SOL    HW272018   6.161  14.186   5.519
90041SOL     OW72019  14.650  13.237  10.591
90041SOL    HW172020  14.567  13.205  10.556
90041SOL    HW272021  14.709  13.161  10.585
90042SOL     OW72022   5.592   1.457  14.239
90042SOL    HW172023   5.538   1.511  14.182
90042SOL    HW272024   5.609   1.512  14.316
90043SOL     OW72025   7.430  10.033   0.489
90043SOL    HW172026   7.357   9.976   0.512
90043SOL    HW272027   7.508   9.981   0.508
90044SOL     OW72028  12.673   7.220  11.374
90044SOL    HW172029  12.735   7.158  11.411
90044SOL    HW272030  12.674   7.203  11.280
90045SOL     OW72031   2.310   9.000   6.145
90045SOL    HW172032   2.317   9.079   6.199
90045SOL    HW272033   2.238   9.017   6.085
90046SOL     OW72034   3.547   9.965   2.480
90046SOL    HW172035   3.526   9.905   2.552
90046SOL    HW272036   3.474  10.026   2.478
90047SOL     OW72037   9.174   2.233   7.913
90047SOL    HW172038   9.120   2.195   7.982
90047SOL    HW272039   9.253   2.179   7.912
90048SOL     OW72040   4.757  14.726   7.281
90048SOL    HW172041   4.690  14.779   7.326
90048SOL    HW272042   4.737  14.636   7.307
90049SOL     OW72043  14.448   7.589   0.182
90049SOL    HW172044  14.524   7.635   0.217
90049SOL    HW272045  14.414   7.647   0.114
90050SOL     OW72046  11.705   5.942  14.549
90050SOL    HW172047  11.790   5.923  14.508
90050SOL    HW272048  11.646   5.875  14.514
90051SOL     OW72049   5.440   9.938   3.209
90051SOL    HW172050   5.441   9.896   3.295
90051SOL    HW272051   5.348   9.942   3.185
90052SOL     OW72052   7.911   4.141  13.638
90052SOL    HW172053   7.841   4.186  13.591
90052SOL    HW272054   7.975   4.209  13.659
90053SOL     OW72055   5.229   7.136  12.773
90053SOL    HW172056   5.187   7.182  12.700
90053SOL    HW272057   5.321   7.129  12.747
90054SOL     OW72058  12.916   8.367   4.699
90054SOL    HW172059  12.937   8.427   4.771
90054SOL    HW272060  12.881   8.424   4.631
90055SOL     OW72061   4.961   8.523  10.108
90055SOL    HW172062   4.928   8.547  10.195
90055SOL    HW272063   4.949   8.428  10.104
90056SOL     OW72064  12.641  10.939  10.810
90056SOL    HW172065  12.733  10.941  10.784
90056SOL    HW272066  12.607  11.025  10.788
90057SOL     OW72067   7.763  11.025  14.322
90057SOL    HW172068   7.748  10.975  14.242
90057SOL    HW272069   7.856  11.048  14.319
90058SOL     OW72070  14.520   3.046  13.113
90058SOL    HW172071  14.557   3.031  13.200
90058SOL    HW272072  14.509   3.141  13.108
90059SOL     OW72073   8.809   4.852   0.561
90059SOL    HW172074   8.889   4.893   0.594
90059SOL    HW272075   8.840   4.790   0.495
90060SOL     OW72076   5.540   0.276   4.132
90060SOL    HW172077   5.549   0.188   4.169
90060SOL    HW272078   5.478   0.266   4.059
90061SOL     OW72079   6.870  10.858  13.603
90061SOL    HW172080   6.870  10.945  13.644
90061SOL    HW272081   6.844  10.875  13.512
90062SOL     OW72082   5.377   2.058   6.370
90062SOL    HW172083   5.458   2.019   6.403
90062SOL    HW272084   5.387   2.058   6.275
90063SOL     OW72085  11.515   4.511   8.354
90063SOL    HW172086  11.609   4.527   8.353
90063SOL    HW272087  11.483   4.550   8.272
90064SOL     OW72088   2.020   0.263   6.851
90064SOL    HW172089   2.073   0.317   6.909
90064SOL    HW272090   1.978   0.325   6.791
90065SOL     OW72091   7.150   1.476  10.044
90065SOL    HW172092   7.084   1.435   9.989
90065SOL    HW272093   7.233   1.450  10.005
90066SOL     OW72094   4.820  13.609   6.934
90066SOL    HW172095   4.869  13.545   6.884
90066SOL    HW272096   4.882  13.681   6.948
90067SOL     OW72097  10.472  14.377   9.902
90067SOL    HW172098  10.439  14.443   9.963
90067SOL    HW272099  10.435  14.401   9.817
90068SOL     OW72100   9.681   6.883  12.058
90068SOL    HW172101   9.591   6.907  12.079
90068SOL    HW272102   9.708   6.825  12.129
90069SOL     OW72103  10.533  12.799   2.984
90069SOL    HW172104  10.501  12.868   3.041
90069SOL    HW272105  10.477  12.804   2.906
90070SOL     OW72106   8.151   4.107  12.366
90070SOL    HW172107   8.106   4.104  12.450
90070SOL    HW272108   8.227   4.163  12.382
90071SOL     OW72109   1.233   0.366  11.256
90071SOL    HW172110   1.216   0.273  11.244
90071SOL    HW272111   1.324   0.371  11.285
90072SOL     OW72112  12.214  14.040  10.249
90072SOL    HW172113  12.286  14.087  10.290
90072SOL    HW272114  12.172  14.104  10.192
90073SOL     OW72115   0.865   9.047  13.682
90073SOL    HW172116   0.780   9.084  13.704
90073SOL    HW272117   0.845   8.958  13.651
90074SOL     OW72118  13.363   9.368   1.574
90074SOL    HW172119  13.270   9.388   1.558
90074SOL    HW272120  13.382   9.410   1.658
90075SOL     OW72121   9.522   6.973  14.339
90075SOL    HW172122   9.491   7.061  14.316
90075SOL    HW272123   9.583   6.950  14.270
90076SOL     OW72124   9.445   2.596  11.193
90076SOL    HW172125   9.431   2.685  11.159
90076SOL    HW272126   9.519   2.606  11.253
90077SOL     OW72127  12.487  11.912  13.711
90077SOL    HW172128  12.406  11.863  13.696
90077SOL    HW272129  12.505  11.953  13.626
90078SOL     OW72130   1.941   1.289   0.771
90078SOL    HW172131   1.969   1.361   0.714
90078SOL    HW272132   1.987   1.212   0.737
90079SOL     OW72133   4.466  10.861  13.565
90079SOL    HW172134   4.413  10.822  13.634
90079SOL    HW272135   4.403  10.892  13.501
90080SOL     OW72136   5.354   7.614   7.797
90080SOL    HW172137   5.450   7.614   7.805
90080SOL    HW272138   5.323   7.581   7.881
90081SOL     OW72139   4.781   9.487   4.158
90081SOL    HW172140   4.831   9.567   4.142
90081SOL    HW272141   4.839   9.416   4.130
90082SOL     OW72142   9.807   1.748  13.885
90082SOL    HW172143   9.749   1.676  13.908
90082SOL    HW272144   9.857   1.716  13.810
90083SOL     OW72145  10.074  12.095  13.897
90083SOL    HW172146  10.139  12.141  13.844
90083SOL    HW272147   9.990  12.120  13.858
90084SOL     OW72148   8.070  10.349  11.190
90084SOL    HW172149   7.988  10.367  11.235
90084SOL    HW272150   8.090  10.431  11.144
90085SOL     OW72151  13.387  10.852   5.817
90085SOL    HW172152  13.433  10.911   5.756
90085SOL    HW272153  13.420  10.765   5.796
90086SOL     OW72154   7.228   6.543  11.962
90086SOL    HW172155   7.285   6.609  11.923
90086SOL    HW272156   7.273   6.460  11.948
90087SOL     OW72157   2.415  10.346  11.714
90087SOL    HW172158   2.461  10.268  11.684
90087SOL    HW272159   2.459  10.419  11.670
90088SOL     OW72160   6.521  12.481  14.250
90088SOL    HW172161   6.532  12.406  14.308
90088SOL    HW272162   6.592  12.541  14.274
90089SOL     OW72163   1.966   8.355   6.699
90089SOL    HW172164   1.990   8.413   6.771
90089SOL    HW272165   1.969   8.267   6.736
90090SOL     OW72166   9.036   7.598  12.418
90090SOL    HW172167   9.040   7.589  12.323
90090SOL    HW272168   9.025   7.692  12.433
90091SOL     OW72169   7.706   8.525   5.281
90091SOL    HW172170   7.622   8.480   5.290
90091SOL    HW272171   7.730   8.549   5.371
90092SOL     OW72172  14.855   7.901  10.157
90092SOL    HW172173   0.011   7.930  10.244
90092SOL    HW272174   0.021   7.814  10.146
90093SOL     OW72175   5.931   9.079  11.542
90093SOL    HW172176   5.943   9.037  11.456
90093SOL    HW272177   5.863   9.027  11.585
90094SOL     OW72178   4.890   6.484  13.338
90094SOL    HW172179   4.864   6.575  13.352
90094SOL    HW272180   4.957   6.488  13.270
90095SOL     OW72181   1.462   1.888   1.886
90095SOL    HW172182   1.555   1.894   1.868
90095SOL    HW272183   1.422   1.949   1.824
90096SOL     OW72184  11.965   8.705  11.954
90096SOL    HW172185  12.033   8.653  11.996
90096SOL    HW272186  11.953   8.664  11.868
90097SOL     OW72187   1.423   6.578   3.851
90097SOL    HW172188   1.442   6.492   3.814
90097SOL    HW272189   1.508   6.623   3.852
90098SOL     OW72190   9.351   6.896  12.064
90098SOL    HW172191   9.329   6.964  12.001
90098SOL    HW272192   9.360   6.942  12.147
90099SOL     OW72193  10.746   3.285   7.498
90099SOL    HW172194  10.760   3.190   7.504
90099SOL    HW272195  10.813   3.322   7.555
90100SOL     OW72196  12.767   9.050  10.814
90100SOL    HW172197  12.698   8.985  10.806
90100SOL    HW272198  12.742   9.120  10.753
90101SOL     OW72199  12.292   8.523  12.499
90101SOL    HW172200  12.247   8.448  12.537
90101SOL    HW272201  12.384   8.511  12.522
90102SOL     OW72202   0.602  14.538  10.506
90102SOL    HW172203   0.677  14.505  10.458
90102SOL    HW272204   0.553  14.589  10.441
90103SOL     OW72205   2.916  11.001   4.870
90103SOL    HW172206   3.010  11.019   4.862
90103SOL    HW272207   2.881  11.011   4.782
90104SOL     OW72208   5.429   3.869   8.974
90104SOL    HW172209   5.491   3.906   8.912
90104SOL    HW272210   5.483   3.828   9.042
90105SOL     OW72211  11.666   8.618   3.634
90105SOL    HW172212  11.611   8.543   3.615
90105SOL    HW272213  11.611   8.675   3.688
90106SOL     OW72214   6.058   5.482   6.826
90106SOL    HW172215   6.105   5.447   6.901
90106SOL    HW272216   6.017   5.405   6.786
90107SOL     OW72217   2.300   7.777   4.339
90107SOL    HW172218   2.310   7.687   4.369
90107SOL    HW272219   2.320   7.830   4.417
90108SOL     OW72220   5.359   5.570   5.430
90108SOL    HW172221   5.314   5.646   5.394
90108SOL    HW272222   5.293   5.526   5.485
90109SOL     OW72223   5.102   1.238   7.099
90109SOL    HW172224   5.189   1.206   7.075
90109SOL    HW272225   5.049   1.159   7.108
90110SOL     OW72226   6.700  11.266   9.041
90110SOL    HW172227   6.610  11.244   9.064
90110SOL    HW272228   6.692  11.324   8.966
90111SOL     OW72229  10.755   7.750   3.190
90111SOL    HW172230  10.679   7.693   3.199
90111SOL    HW272231  10.795   7.725   3.107
90112SOL     OW72232  14.822   0.981  11.192
90112SOL    HW172233  14.764   0.969  11.268
90112SOL    HW272234   0.035   1.001  11.230
90113SOL     OW72235  14.327   8.290   9.131
90113SOL    HW172236  14.402   8.351   9.129
90113SOL    HW272237  14.330   8.252   9.219
90114SOL     OW72238  11.512  11.933   1.717
90114SOL    HW172239  11.439  11.871   1.725
90114SOL    HW272240  11.483  11.996   1.651
90115SOL     OW72241  11.872   1.069  10.879
90115SOL    HW172242  11.949   1.088  10.932
90115SOL    HW272243  11.898   1.091  10.790
90116SOL     OW72244   1.084  13.894   0.404
90116SOL    HW172245   1.031  13.955   0.352
90116SOL    HW272246   1.036  13.886   0.486
90117SOL     OW72247   8.307   2.162   8.210
90117SOL    HW172248   8.397   2.142   8.233
90117SOL    HW272249   8.314   2.214   8.130
90118SOL     OW72250   2.052   3.921   4.356
90118SOL    HW172251   2.134   3.968   4.368
90118SOL    HW272252   2.019   3.906   4.444
90119SOL     OW72253  11.549   2.572   1.770
90119SOL    HW172254  11.612   2.557   1.700
90119SOL    HW272255  11.599   2.618   1.838
90120SOL     OW72256   9.575   6.941   6.767
90120SOL    HW172257   9.495   6.925   6.817
90120SOL    HW272258   9.551   7.007   6.703
90121SOL     OW72259   1.942  11.251  11.204
90121SOL    HW172260   1.966  11.246  11.111
90121SOL    HW272261   1.879  11.323  11.209
90122SOL     OW72262   5.067   8.035  13.651
90122SOL    HW172263   5.052   8.108  13.711
90122SOL    HW272264   5.103   8.075  13.572
90123SOL     OW72265  12.578   2.813  10.092
90123SOL    HW172266  12.620   2.727  10.102
90123SOL    HW272267  12.610   2.846  10.008
90124SOL     OW72268   9.099   5.801  10.297
90124SOL    HW172269   9.083   5.735  10.365
90124SOL    HW272270   9.109   5.883  10.346
90125SOL     OW72271   1.310   2.146   6.587
90125SOL    HW172272   1.277   2.098   6.663
90125SOL    HW272273   1.285   2.237   6.603
90126SOL     OW72274   1.325  11.891  13.259
90126SOL    HW172275   1.357  11.927  13.177
90126SOL    HW272276   1.283  11.965  13.303
90127SOL     OW72277   0.853   1.260   4.610
90127SOL    HW172278   0.924   1.253   4.546
90127SOL    HW272279   0.889   1.315   4.680
90128SOL     OW72280   1.637  11.440   8.992
90128SOL    HW172281   1.555  11.488   8.983
90128SOL    HW272282   1.626  11.388   9.072
90129SOL     OW72283   5.778   7.064  14.256
90129SOL    HW172284   5.689   7.053  14.290
90129SOL    HW272285   5.800   6.979  14.217
90130SOL     OW72286   7.485  14.038   9.358
90130SOL    HW172287   7.476  14.111   9.297
90130SOL    HW272288   7.543  14.071   9.427
90131SOL     OW72289   5.094  10.656  12.030
90131SOL    HW172290   5.168  10.598  12.050
90131SOL    HW272291   5.047  10.663  12.114
90132SOL     OW72292   2.503  11.420   3.495
90132SOL    HW172293   2.499  11.334   3.537
90132SOL    HW272294   2.528  11.401   3.404
90133SOL     OW72295  10.891  11.326   3.092
90133SOL    HW172296  10.981  11.347   3.115
90133SOL    HW272297  10.884  11.232   3.106
90134SOL     OW72298   4.206  14.613  12.179
90134SOL    HW172299   4.164  14.543  12.228
90134SOL    HW272300   4.283  14.637  12.232
90135SOL     OW72301  10.804  12.753   5.398
90135SOL    HW172302  10.769  12.835   5.364
90135SOL    HW272303  10.866  12.723   5.332
90136SOL     OW72304   0.079   6.659   3.119
90136SOL    HW172305   0.142   6.589   3.139
90136SOL    HW272306   0.110   6.696   3.037
90137SOL     OW72307  11.898   1.282   4.225
90137SOL    HW172308  11.926   1.270   4.134
90137SOL    HW272309  11.965   1.238   4.276
90138SOL     OW72310  11.637  10.286   6.794
90138SOL    HW172311  11.591  10.246   6.867
90138SOL    HW272312  11.716  10.324   6.833
90139SOL     OW72313  10.878   1.837  14.203
90139SOL    HW172314  10.947   1.869  14.145
90139SOL    HW272315  10.869   1.906  14.269
90140SOL     OW72316   9.761   6.787   8.385
90140SOL    HW172317   9.670   6.770   8.360
90140SOL    HW272318   9.763   6.770   8.479
90141SOL     OW72319   7.330   9.294   1.031
90141SOL    HW172320   7.411   9.328   1.069
90141SOL    HW272321   7.355   9.263   0.944
90142SOL     OW72322   2.773   7.654   9.852
90142SOL    HW172323   2.853   7.621   9.894
90142SOL    HW272324   2.715   7.579   9.850
90143SOL     OW72325   7.959  14.181   2.972
90143SOL    HW172326   8.013  14.108   3.003
90143SOL    HW272327   7.946  14.235   3.049
90144SOL     OW72328  14.786   8.260   5.163
90144SOL    HW172329  14.695   8.243   5.139
90144SOL    HW272330  14.797   8.216   5.248
90145SOL     OW72331  12.925   2.037   5.013
90145SOL    HW172332  12.899   2.114   4.963
90145SOL    HW272333  13.020   2.038   5.011
90146SOL     OW72334   8.395   5.318  11.733
90146SOL    HW172335   8.421   5.317  11.826
90146SOL    HW272336   8.456   5.378  11.692
90147SOL     OW72337   6.492  11.138   7.496
90147SOL    HW172338   6.447  11.135   7.411
90147SOL    HW272339   6.490  11.048   7.527
90148SOL     OW72340  10.471  14.811   0.891
90148SOL    HW172341  10.485  14.845   0.803
90148SOL    HW272342  10.542  14.748   0.904
90149SOL     OW72343  12.084   9.048   8.403
90149SOL    HW172344  12.009   8.989   8.392
90149SOL    HW272345  12.084   9.070   8.496
90150SOL     OW72346   8.847   0.391  12.324
90150SOL    HW172347   8.921   0.335  12.347
90150SOL    HW272348   8.873   0.479  12.354
90151SOL     OW72349   8.317   0.501   9.632
90151SOL    HW172350   8.380   0.451   9.683
90151SOL    HW272351   8.235   0.453   9.643
90152SOL     OW72352   7.426   6.635   8.811
90152SOL    HW172353   7.445   6.721   8.848
90152SOL    HW272354   7.508   6.587   8.819
90153SOL     OW72355   3.785   2.636   1.805
90153SOL    HW172356   3.808   2.716   1.854
90153SOL    HW272357   3.692   2.624   1.822
90154SOL     OW72358   3.004   2.667   0.947
90154SOL    HW172359   2.962   2.664   0.860
90154SOL    HW272360   3.088   2.710   0.932
90155SOL     OW72361  10.448  14.726   2.858
90155SOL    HW172362  10.404  14.753   2.938
90155SOL    HW272363  10.521  14.787   2.847
90156SOL     OW72364  13.409   7.687   8.071
90156SOL    HW172365  13.376   7.626   8.006
90156SOL    HW272366  13.339   7.694   8.136
90157SOL     OW72367   7.492   1.340   4.619
90157SOL    HW172368   7.556   1.273   4.594
90157SOL    HW272369   7.407   1.298   4.608
90158SOL     OW72370   4.977  13.065   4.872
90158SOL    HW172371   4.933  13.001   4.816
90158SOL    HW272372   5.014  13.013   4.943
90159SOL     OW72373  13.755   2.434   2.056
90159SOL    HW172374  13.667   2.400   2.041
90159SOL    HW272375  13.751   2.476   2.142
90160SOL     OW72376   1.247   3.258   8.969
90160SOL    HW172377   1.188   3.183   8.976
90160SOL    HW272378   1.194   3.332   8.999
90161SOL     OW72379  14.101   8.318   5.859
90161SOL    HW172380  14.195   8.331   5.867
90161SOL    HW272381  14.087   8.300   5.765
90162SOL     OW72382  14.770  11.534   3.874
90162SOL    HW172383  14.727  11.600   3.928
90162SOL    HW272384  14.706  11.464   3.864
90163SOL     OW72385  12.473   8.279   9.758
90163SOL    HW172386  12.557   8.243   9.786
90163SOL    HW272387  12.448   8.225   9.683
90164SOL     OW72388  11.269  12.361  11.919
90164SOL    HW172389  11.294  12.451  11.898
90164SOL    HW272390  11.334  12.334  11.984
90165SOL     OW72391   3.547   6.783  14.575
90165SOL    HW172392   3.513   6.718  14.638
90165SOL    HW272393   3.482   6.784  14.505
90166SOL     OW72394  12.795   7.847   6.073
90166SOL    HW172395  12.817   7.900   5.996
90166SOL    HW272396  12.716   7.889   6.109
90167SOL     OW72397   8.797  14.256  11.296
90167SOL    HW172398   8.776  14.348  11.311
90167SOL    HW272399   8.713  14.210  11.304
90168SOL     OW72400  12.382  13.557   8.974
90168SOL    HW172401  12.397  13.559   9.069
90168SOL    HW272402  12.387  13.649   8.947
90169SOL     OW72403   6.316   2.474  10.153
90169SOL    HW172404   6.293   2.393  10.199
90169SOL    HW272405   6.299   2.455  10.061
90170SOL     OW72406   0.598   6.531   9.015
90170SOL    HW172407   0.610   6.595   8.945
90170SOL    HW272408   0.636   6.450   8.981
90171SOL     OW72409   3.092   0.215   6.529
90171SOL    HW172410   3.115   0.278   6.461
90171SOL    HW272411   3.171   0.163   6.543
90172SOL     OW72412   0.575  12.356   9.367
90172SOL    HW172413   0.542  12.271   9.395
90172SOL    HW272414   0.607  12.397   9.447
90173SOL     OW72415   3.898   7.609   7.302
90173SOL    HW172416   3.852   7.657   7.371
90173SOL    HW272417   3.860   7.521   7.306
90174SOL     OW72418   5.345   5.438  13.461
90174SOL    HW172419   5.341   5.352  13.503
90174SOL    HW272420   5.417   5.483  13.505
90175SOL     OW72421   6.392  10.981   1.579
90175SOL    HW172422   6.309  11.028   1.587
90175SOL    HW272423   6.372  10.905   1.524
90176SOL     OW72424   3.096   4.574   0.913
90176SOL    HW172425   3.004   4.566   0.888
90176SOL    HW272426   3.093   4.593   1.007
90177SOL     OW72427   5.255  12.202   4.762
90177SOL    HW172428   5.305  12.248   4.694
90177SOL    HW272429   5.164  12.214   4.736
90178SOL     OW72430   2.523  14.322   9.789
90178SOL    HW172431   2.582  14.391   9.818
90178SOL    HW272432   2.436  14.361   9.792
90179SOL     OW72433  11.308  13.762   2.796
90179SOL    HW172434  11.227  13.727   2.833
90179SOL    HW272435  11.377  13.709   2.835
90180SOL     OW72436  11.280  14.510  13.224
90180SOL    HW172437  11.207  14.547  13.273
90180SOL    HW272438  11.276  14.554  13.139
90181SOL     OW72439  12.387   3.702  10.599
90181SOL    HW172440  12.426   3.774  10.648
90181SOL    HW272441  12.329   3.659  10.662
90182SOL     OW72442  14.698   6.044  12.772
90182SOL    HW172443  14.660   5.986  12.838
90182SOL    HW272444  14.742   5.985  12.711
90183SOL     OW72445   2.419   8.820   6.492
90183SOL    HW172446   2.368   8.892   6.530
90183SOL    HW272447   2.510   8.845   6.506
90184SOL     OW72448   3.841   6.370   7.015
90184SOL    HW172449   3.748   6.372   6.992
90184SOL    HW272450   3.885   6.403   6.936
90185SOL     OW72451  14.037  13.070   2.408
90185SOL    HW172452  14.057  13.120   2.329
90185SOL    HW272453  13.942  13.060   2.407
90186SOL     OW72454   9.524  12.532   9.662
90186SOL    HW172455   9.442  12.529   9.710
90186SOL    HW272456   9.574  12.602   9.704
90187SOL     OW72457   8.270   2.721  13.748
90187SOL    HW172458   8.217   2.800  13.736
90187SOL    HW272459   8.356   2.753  13.777
90188SOL     OW72460  11.670   5.257   3.567
90188SOL    HW172461  11.713   5.294   3.489
90188SOL    HW272462  11.577   5.256   3.544
90189SOL     OW72463   8.764   9.547  13.952
90189SOL    HW172464   8.677   9.513  13.929
90189SOL    HW272465   8.824   9.500  13.894
90190SOL     OW72466   5.765  13.412   3.516
90190SOL    HW172467   5.819  13.468   3.460
90190SOL    HW272468   5.706  13.368   3.456
90191SOL     OW72469   6.166   2.549  14.468
90191SOL    HW172470   6.219   2.477  14.434
90191SOL    HW272471   6.228   2.619  14.486
90192SOL     OW72472   7.490  10.020  14.176
90192SOL    HW172473   7.513   9.963  14.249
90192SOL    HW272474   7.552   9.998  14.107
90193SOL     OW72475   2.417   2.850   8.393
90193SOL    HW172476   2.463   2.820   8.471
90193SOL    HW272477   2.461   2.932   8.369
90194SOL     OW72478   0.808   1.703   7.126
90194SOL    HW172479   0.888   1.672   7.169
90194SOL    HW272480   0.745   1.716   7.197
90195SOL     OW72481   4.456   7.212   6.336
90195SOL    HW172482   4.425   7.273   6.404
90195SOL    HW272483   4.508   7.148   6.384
90196SOL     OW72484   1.864  11.389   7.419
90196SOL    HW172485   1.825  11.436   7.345
90196SOL    HW272486   1.894  11.457   7.478
90197SOL     OW72487  13.946  13.233   8.600
90197SOL    HW172488  13.911  13.147   8.622
90197SOL    HW272489  13.979  13.223   8.511
90198SOL     OW72490  13.055  13.691   1.039
90198SOL    HW172491  13.054  13.598   1.017
90198SOL    HW272492  13.083  13.693   1.131
90199SOL     OW72493   9.682  12.009  14.742
90199SOL    HW172494   9.763  12.024  14.791
90199SOL    HW272495   9.614  12.053  14.793
90200SOL     OW72496  10.216  11.994   2.242
90200SOL    HW172497  10.229  11.906   2.277
90200SOL    HW272498  10.303  12.033   2.242
90201SOL     OW72499   9.446  12.196   1.736
90201SOL    HW172500   9.492  12.127   1.784
90201SOL    HW272501   9.474  12.277   1.778
90202SOL     OW72502   9.384  13.446  10.029
90202SOL    HW172503   9.430  13.529  10.014
90202SOL    HW272504   9.292  13.471  10.041
90203SOL     OW72505  10.379   0.334   7.631
90203SOL    HW172506  10.465   0.323   7.671
90203SOL    HW272507  10.317   0.299   7.696
90204SOL     OW72508   5.802   8.304   2.059
90204SOL    HW172509   5.739   8.373   2.040
90204SOL    HW272510   5.752   8.239   2.110
90205SOL     OW72511   9.754   5.717  11.745
90205SOL    HW172512   9.736   5.811  11.745
90205SOL    HW272513   9.763   5.694  11.652
90206SOL     OW72514   2.413   2.480  10.461
90206SOL    HW172515   2.486   2.476  10.399
90206SOL    HW272516   2.335   2.489  10.406
90207SOL     OW72517  10.418  12.969   7.009
90207SOL    HW172518  10.427  13.022   6.930
90207SOL    HW272519  10.500  12.918   7.013
90208SOL     OW72520  11.471   9.820   4.420
90208SOL    HW172521  11.378   9.839   4.435
90208SOL    HW272522  11.517   9.879   4.479
90209SOL     OW72523   2.321   6.737   1.128
90209SOL    HW172524   2.399   6.692   1.095
90209SOL    HW272525   2.260   6.667   1.151
90210SOL     OW72526   9.860   3.412   3.910
90210SOL    HW172527   9.908   3.359   3.846
90210SOL    HW272528   9.787   3.357   3.937
90211SOL     OW72529  13.755  12.663   7.999
90211SOL    HW172530  13.682  12.642   7.941
90211SOL    HW272531  13.741  12.610   8.077
90212SOL     OW72532   6.323   9.576  12.772
90212SOL    HW172533   6.309   9.561  12.866
90212SOL    HW272534   6.406   9.534  12.753
90213SOL     OW72535  12.610   5.057   1.919
90213SOL    HW172536  12.521   5.039   1.891
90213SOL    HW272537  12.643   4.973   1.950
90214SOL     OW72538   9.511   8.273   1.985
90214SOL    HW172539   9.461   8.196   1.958
90214SOL    HW272540   9.554   8.303   1.905
90215SOL     OW72541   3.654  10.193   0.154
90215SOL    HW172542   3.614  10.243   0.083
90215SOL    HW272543   3.747  10.192   0.134
90216SOL     OW72544   9.707   1.991  14.080
90216SOL    HW172545   9.725   1.919  14.020
90216SOL    HW272546   9.622   2.025  14.051
90217SOL     OW72547   3.472  12.829   6.303
90217SOL    HW172548   3.536  12.837   6.232
90217SOL    HW272549   3.431  12.915   6.307
90218SOL     OW72550  11.576  12.536   5.631
90218SOL    HW172551  11.501  12.533   5.572
90218SOL    HW272552  11.540  12.565   5.715
90219SOL     OW72553  11.044   0.777  12.707
90219SOL    HW172554  10.996   0.694  12.714
90219SOL    HW272555  11.004   0.821  12.632
90220SOL     OW72556   9.296  14.642   8.561
90220SOL    HW172557   9.297  14.579   8.489
90220SOL    HW272558   9.377  14.693   8.548
90221SOL     OW72559   8.427  11.984   4.678
90221SOL    HW172560   8.365  11.912   4.680
90221SOL    HW272561   8.374  12.062   4.695
90222SOL     OW72562   5.320   8.805  10.128
90222SOL    HW172563   5.299   8.741  10.195
90222SOL    HW272564   5.385   8.863  10.170
90223SOL     OW72565   4.093   5.366  13.054
90223SOL    HW172566   4.006   5.400  13.033
90223SOL    HW272567   4.148   5.393  12.981
90224SOL     OW72568   0.098   6.605   0.839
90224SOL    HW172569   0.093   6.697   0.864
90224SOL    HW272570   0.011   6.571   0.857
90225SOL     OW72571   4.431   9.548   2.494
90225SOL    HW172572   4.341   9.578   2.508
90225SOL    HW272573   4.438   9.537   2.399
90226SOL     OW72574   8.807  13.631  14.068
90226SOL    HW172575   8.804  13.535  14.067
90226SOL    HW272576   8.893  13.652  14.104
90227SOL     OW72577  10.784   2.395   1.618
90227SOL    HW172578  10.757   2.468   1.562
90227SOL    HW272579  10.701   2.355   1.646
90228SOL     OW72580   3.805   8.173   6.397
90228SOL    HW172581   3.857   8.148   6.321
90228SOL    HW272582   3.722   8.204   6.359
90229SOL     OW72583   0.236   5.242  11.584
90229SOL    HW172584   0.143   5.257  11.567
90229SOL    HW272585   0.265   5.188  11.510
90230SOL     OW72586   7.701   2.853   2.352
90230SOL    HW172587   7.708   2.817   2.264
90230SOL    HW272588   7.648   2.789   2.400
90231SOL     OW72589   2.115   4.401   3.883
90231SOL    HW172590   2.162   4.484   3.889
90231SOL    HW272591   2.023   4.426   3.891
90232SOL     OW72592  12.773   3.877  10.256
90232SOL    HW172593  12.804   3.951  10.204
90232SOL    HW272594  12.809   3.800  10.211
90233SOL     OW72595   4.973   2.467   7.661
90233SOL    HW172596   5.004   2.536   7.602
90233SOL    HW272597   4.878   2.467   7.651
90234SOL     OW72598   2.755  12.776   3.672
90234SOL    HW172599   2.834  12.828   3.654
90234SOL    HW272600   2.774  12.731   3.754
90235SOL     OW72601   0.788   7.084   9.673
90235SOL    HW172602   0.871   7.131   9.663
90235SOL    HW272603   0.767   7.092   9.766
90236SOL     OW72604   0.797   8.555  12.829
90236SOL    HW172605   0.828   8.607  12.903
90236SOL    HW272606   0.758   8.620  12.770
90237SOL     OW72607  13.573   9.114   0.637
90237SOL    HW172608  13.551   9.162   0.557
90237SOL    HW272609  13.506   9.047   0.645
90238SOL     OW72610   3.657   3.933  12.550
90238SOL    HW172611   3.659   3.884  12.633
90238SOL    HW272612   3.659   3.865  12.483
90239SOL     OW72613   8.420   3.222  10.932
90239SOL    HW172614   8.454   3.310  10.915
90239SOL    HW272615   8.447   3.170  10.856
90240SOL     OW72616  10.365   9.502   4.799
90240SOL    HW172617  10.355   9.544   4.713
90240SOL    HW272618  10.393   9.574   4.856
90241SOL     OW72619   3.010   4.639   3.710
90241SOL    HW172620   3.013   4.734   3.717
90241SOL    HW272621   3.046   4.608   3.793
90242SOL     OW72622   6.601   7.321   2.445
90242SOL    HW172623   6.675   7.378   2.466
90242SOL    HW272624   6.583   7.273   2.526
90243SOL     OW72625   0.344   2.259   0.224
90243SOL    HW172626   0.435   2.278   0.199
90243SOL    HW272627   0.297   2.341   0.206
90244SOL     OW72628   9.437  10.797   9.411
90244SOL    HW172629   9.348  10.823   9.433
90244SOL    HW272630   9.444  10.813   9.317
90245SOL     OW72631   0.076  12.062   5.949
90245SOL    HW172632   0.092  12.141   6.000
90245SOL    HW272633   0.019  12.009   6.005
90246SOL     OW72634   8.254   0.212   5.890
90246SOL    HW172635   8.258   0.287   5.831
90246SOL    HW272636   8.160   0.197   5.904
90247SOL     OW72637   9.134   8.382   4.605
90247SOL    HW172638   9.077   8.434   4.662
90247SOL    HW272639   9.090   8.297   4.598
90248SOL     OW72640   2.271   8.389  13.477
90248SOL    HW172641   2.356   8.432  13.473
90248SOL    HW272642   2.288   8.298  13.454
90249SOL     OW72643   2.520  12.335   4.671
90249SOL    HW172644   2.518  12.240   4.673
90249SOL    HW272645   2.434  12.361   4.640
90250SOL     OW72646   2.423   0.716   8.769
90250SOL    HW172647   2.496   0.699   8.828
90250SOL    HW272648   2.379   0.631   8.760
90251SOL     OW72649   7.800  10.077   1.034
90251SOL    HW172650   7.883  10.072   0.987
90251SOL    HW272651   7.825  10.087   1.126
90252SOL     OW72652   2.057   9.501   1.464
90252SOL    HW172653   2.018   9.582   1.431
90252SOL    HW272654   2.145   9.527   1.493
90253SOL     OW72655  11.424   4.840   4.247
90253SOL    HW172656  11.337   4.844   4.207
90253SOL    HW272657  11.408   4.861   4.340
90254SOL     OW72658   3.962  13.880  12.217
90254SOL    HW172659   4.043  13.929  12.204
90254SOL    HW272660   3.945  13.838  12.132
90255SOL     OW72661   1.894   5.296   1.314
90255SOL    HW172662   1.853   5.383   1.314
90255SOL    HW272663   1.924   5.284   1.404
90256SOL     OW72664  10.155   8.100   4.081
90256SOL    HW172665  10.082   8.161   4.086
90256SOL    HW272666  10.163   8.079   3.988
90257SOL     OW72667  11.287  12.228   7.089
90257SOL    HW172668  11.353  12.169   7.052
90257SOL    HW272669  11.209  12.213   7.035
90258SOL     OW72670  12.937   6.256   7.814
90258SOL    HW172671  12.917   6.309   7.737
90258SOL    HW272672  12.949   6.167   7.779
90259SOL     OW72673   5.287  10.080   6.839
90259SOL    HW172674   5.308  10.050   6.751
90259SOL    HW272675   5.336  10.161   6.850
90260SOL     OW72676  10.993  13.629   6.399
90260SOL    HW172677  11.047  13.554   6.424
90260SOL    HW272678  10.903  13.598   6.411
90261SOL     OW72679  14.305   3.061  10.072
90261SOL    HW172680  14.368   2.993  10.050
90261SOL    HW272681  14.281   3.045  10.163
90262SOL     OW72682  10.742   4.475   5.029
90262SOL    HW172683  10.668   4.461   4.969
90262SOL    HW272684  10.795   4.543   4.987
90263SOL     OW72685   9.989   1.463   7.266
90263SOL    HW172686   9.969   1.546   7.309
90263SOL    HW272687  10.083   1.450   7.281
90264SOL     OW72688   1.783   2.733  13.105
90264SOL    HW172689   1.761   2.698  13.192
90264SOL    HW272690   1.827   2.660  13.061
90265SOL     OW72691  13.799   7.274   8.383
90265SOL    HW172692  13.709   7.242   8.390
90265SOL    HW272693  13.790   7.369   8.371
90266SOL     OW72694   1.873  12.009  13.303
90266SOL    HW172695   1.802  12.006  13.239
90266SOL    HW272696   1.850  12.083  13.360
90267SOL     OW72697   0.035   4.750   6.814
90267SOL    HW172698   0.055   4.658   6.801
90267SOL    HW272699   0.073   4.794   6.738
90268SOL     OW72700   2.300   9.162  13.434
90268SOL    HW172701   2.324   9.200  13.350
90268SOL    HW272702   2.235   9.095  13.411
90269SOL     OW72703   1.472   8.137   7.091
90269SOL    HW172704   1.563   8.169   7.094
90269SOL    HW272705   1.437   8.174   7.010
90270SOL     OW72706   6.683   1.825   3.121
90270SOL    HW172707   6.676   1.815   3.026
90270SOL    HW272708   6.745   1.757   3.148
90271SOL     OW72709   6.373  14.321   8.612
90271SOL    HW172710   6.289  14.285   8.582
90271SOL    HW272711   6.378  14.294   8.704
90272SOL     OW72712  11.004   7.795  10.109
90272SOL    HW172713  11.056   7.875  10.108
90272SOL    HW272714  11.065   7.726  10.136
90273SOL     OW72715  10.886   4.762   8.146
90273SOL    HW172716  10.963   4.708   8.129
90273SOL    HW272717  10.898   4.792   8.236
90274SOL     OW72718   5.243   1.960   0.025
90274SOL    HW172719   5.262   1.905  14.821
90274SOL    HW272720   5.242   1.898   0.098
90275SOL     OW72721   7.809   8.202   1.397
90275SOL    HW172722   7.757   8.283   1.406
90275SOL    HW272723   7.752   8.133   1.431
90276SOL     OW72724   2.955   8.363   0.714
90276SOL    HW172725   3.007   8.282   0.717
90276SOL    HW272726   2.997   8.421   0.777
90277SOL     OW72727   9.851  13.358   6.176
90277SOL    HW172728   9.890  13.278   6.140
90277SOL    HW272729   9.821  13.407   6.099
90278SOL     OW72730   4.251   0.518   4.814
90278SOL    HW172731   4.308   0.563   4.751
90278SOL    HW272732   4.311   0.489   4.883
90279SOL     OW72733   2.084  11.927  11.148
90279SOL    HW172734   1.998  11.897  11.176
90279SOL    HW272735   2.133  11.847  11.127
90280SOL     OW72736  14.569   4.207   9.399
90280SOL    HW172737  14.651   4.230   9.443
90280SOL    HW272738  14.552   4.116   9.427
90281SOL     OW72739   8.573   4.183   4.312
90281SOL    HW172740   8.560   4.202   4.405
90281SOL    HW272741   8.485   4.188   4.274
90282SOL     OW72742   2.152  14.161  14.133
90282SOL    HW172743   2.221  14.194  14.075
90282SOL    HW272744   2.147  14.068  14.113
90283SOL     OW72745  10.949  13.037   9.686
90283SOL    HW172746  11.008  12.962   9.683
90283SOL    HW272747  10.981  13.095   9.617
90284SOL     OW72748   2.682   5.540   1.920
90284SOL    HW172749   2.728   5.601   1.978
90284SOL    HW272750   2.721   5.455   1.939
90285SOL     OW72751  12.721   7.168   6.769
90285SOL    HW172752  12.731   7.113   6.691
90285SOL    HW272753  12.792   7.232   6.763
90286SOL     OW72754  14.427   8.878   6.087
90286SOL    HW172755  14.446   8.914   6.000
90286SOL    HW272756  14.506   8.828   6.109
90287SOL     OW72757  11.437   8.463  11.075
90287SOL    HW172758  11.445   8.465  11.171
90287SOL    HW272759  11.361   8.518  11.057
90288SOL     OW72760  11.802   1.683   4.603
90288SOL    HW172761  11.757   1.635   4.533
90288SOL    HW272762  11.749   1.667   4.681
90289SOL     OW72763   9.367   7.476   2.265
90289SOL    HW172764   9.401   7.535   2.198
90289SOL    HW272765   9.305   7.529   2.314
90290SOL     OW72766   5.997   1.115   9.771
90290SOL    HW172767   5.950   1.177   9.827
90290SOL    HW272768   6.071   1.086   9.824
90291SOL     OW72769  10.688   4.554   0.294
90291SOL    HW172770  10.776   4.520   0.308
90291SOL    HW272771  10.664   4.594   0.378
90292SOL     OW72772  11.285   8.600   7.833
90292SOL    HW172773  11.357   8.661   7.848
90292SOL    HW272774  11.277   8.596   7.738
90293SOL     OW72775   8.252  11.594   6.844
90293SOL    HW172776   8.228  11.622   6.932
90293SOL    HW272777   8.273  11.501   6.853
90294SOL     OW72778  13.495   8.336  11.432
90294SOL    HW172779  13.460   8.417  11.469
90294SOL    HW272780  13.585   8.332  11.465
90295SOL     OW72781   7.157   9.945  11.143
90295SOL    HW172782   7.063   9.932  11.133
90295SOL    HW272783   7.187   9.869  11.193
90296SOL     OW72784  11.145   6.838   5.353
90296SOL    HW172785  11.165   6.861   5.262
90296SOL    HW272786  11.105   6.752   5.348
90297SOL     OW72787   5.540   4.009  12.923
90297SOL    HW172788   5.516   3.929  12.968
90297SOL    HW272789   5.624   3.990  12.881
90298SOL     OW72790   9.964   9.610   9.908
90298SOL    HW172791  10.017   9.543   9.952
90298SOL    HW272792   9.941   9.672   9.978
90299SOL     OW72793   4.833   9.090  14.762
90299SOL    HW172794   4.928   9.094  14.750
90299SOL    HW272795   4.821   9.084  14.857
90300SOL     OW72796   6.935   0.651   3.664
90300SOL    HW172797   7.018   0.694   3.689
90300SOL    HW272798   6.945   0.633   3.571
90301SOL     OW72799   4.576   7.270   4.136
90301SOL    HW172800   4.616   7.344   4.180
90301SOL    HW272801   4.501   7.247   4.192
90302SOL     OW72802   5.386  12.878   5.913
90302SOL    HW172803   5.315  12.933   5.881
90302SOL    HW272804   5.409  12.822   5.839
90303SOL     OW72805   3.915  11.098   7.316
90303SOL    HW172806   3.846  11.101   7.250
90303SOL    HW272807   3.994  11.124   7.269
90304SOL     OW72808  10.632  12.211   0.848
90304SOL    HW172809  10.561  12.244   0.902
90304SOL    HW272810  10.591  12.192   0.763
90305SOL     OW72811   1.116   4.600   8.204
90305SOL    HW172812   1.168   4.520   8.216
90305SOL    HW272813   1.037   4.570   8.159
90306SOL     OW72814  11.705   3.924  13.937
90306SOL    HW172815  11.785   3.923  13.885
90306SOL    HW272816  11.635   3.921  13.872
90307SOL     OW72817   3.475   1.824   7.624
90307SOL    HW172818   3.526   1.783   7.554
90307SOL    HW272819   3.387   1.834   7.587
90308SOL     OW72820  12.924   5.775   0.459
90308SOL    HW172821  12.948   5.703   0.517
90308SOL    HW272822  12.867   5.831   0.511
90309SOL     OW72823  14.281  11.939   8.470
90309SOL    HW172824  14.348  11.880   8.504
90309SOL    HW272825  14.198  11.891   8.481
90310SOL     OW72826  14.494  10.047   8.946
90310SOL    HW172827  14.576  10.024   8.903
90310SOL    HW272828  14.469   9.968   8.995
90311SOL     OW72829   5.816  10.393  14.759
90311SOL    HW172830   5.824  10.307  14.800
90311SOL    HW272831   5.905  10.428  14.759
90312SOL     OW72832   2.500   9.511   4.246
90312SOL    HW172833   2.546   9.430   4.225
90312SOL    HW272834   2.411   9.483   4.269
90313SOL     OW72835   0.744   6.563   7.233
90313SOL    HW172836   0.763   6.554   7.140
90313SOL    HW272837   0.736   6.657   7.247
90314SOL     OW72838   1.683  10.669  10.197
90314SOL    HW172839   1.610  10.717  10.156
90314SOL    HW272840   1.754  10.674  10.134
90315SOL     OW72841   1.118  12.724  10.851
90315SOL    HW172842   1.088  12.633  10.855
90315SOL    HW272843   1.157  12.739  10.937
90316SOL     OW72844  10.375   5.615   6.630
90316SOL    HW172845  10.392   5.645   6.720
90316SOL    HW272846  10.330   5.532   6.641
90317SOL     OW72847   1.233  13.607  14.710
90317SOL    HW172848   1.188  13.667  14.769
90317SOL    HW272849   1.166  13.545  14.683
90318SOL     OW72850   5.364   0.378  12.402
90318SOL    HW172851   5.426   0.305  12.397
90318SOL    HW272852   5.416   0.451  12.435
90319SOL     OW72853   1.586   5.692   2.285
90319SOL    HW172854   1.580   5.760   2.217
90319SOL    HW272855   1.496   5.662   2.297
90320SOL     OW72856  11.497  10.736   6.107
90320SOL    HW172857  11.404  10.758   6.102
90320SOL    HW272858  11.528  10.743   6.017
90321SOL     OW72859   7.666  10.013   2.248
90321SOL    HW172860   7.597  10.017   2.182
90321SOL    HW272861   7.655   9.928   2.289
90322SOL     OW72862   3.712  13.478   4.313
90322SOL    HW172863   3.672  13.414   4.372
90322SOL    HW272864   3.760  13.426   4.249
90323SOL     OW72865   9.621  14.452   5.587
90323SOL    HW172866   9.531  14.480   5.570
90323SOL    HW272867   9.675  14.523   5.551
90324SOL     OW72868   6.239  14.051   7.210
90324SOL    HW172869   6.239  14.103   7.290
90324SOL    HW272870   6.153  14.008   7.209
90325SOL     OW72871   4.895   6.270   5.097
90325SOL    HW172872   4.806   6.251   5.128
90325SOL    HW272873   4.919   6.351   5.142
90326SOL     OW72874  12.930   5.363   3.697
90326SOL    HW172875  12.956   5.370   3.789
90326SOL    HW272876  12.884   5.445   3.679
90327SOL     OW72877   4.462   6.321   2.233
90327SOL    HW172878   4.371   6.290   2.241
90327SOL    HW272879   4.479   6.322   2.139
90328SOL     OW72880   3.116   8.982  11.666
90328SOL    HW172881   3.196   8.939  11.637
90328SOL    HW272882   3.130   9.075  11.647
90329SOL     OW72883   2.692   9.847  13.975
90329SOL    HW172884   2.682   9.773  14.034
90329SOL    HW272885   2.671   9.811  13.888
90330SOL     OW72886   3.444   7.966  14.147
90330SOL    HW172887   3.537   7.964  14.124
90330SOL    HW272888   3.399   7.974  14.063
90331SOL     OW72889  12.060  10.457  10.621
90331SOL    HW172890  12.097  10.369  10.610
90331SOL    HW272891  12.136  10.513  10.638
90332SOL     OW72892   5.527   6.011   3.161
90332SOL    HW172893   5.569   5.964   3.233
90332SOL    HW272894   5.473   5.945   3.118
90333SOL     OW72895   8.501   2.174   9.082
90333SOL    HW172896   8.411   2.185   9.115
90333SOL    HW272897   8.500   2.216   8.996
90334SOL     OW72898   7.717  11.558   6.536
90334SOL    HW172899   7.668  11.528   6.613
90334SOL    HW272900   7.809  11.540   6.558
90335SOL     OW72901   4.502   0.718   6.608
90335SOL    HW172902   4.429   0.757   6.656
90335SOL    HW272903   4.562   0.688   6.676
90336SOL     OW72904  10.286   7.464  11.921
90336SOL    HW172905  10.349   7.412  11.971
90336SOL    HW272906  10.240   7.401  11.866
90337SOL     OW72907   7.920  11.437  10.606
90337SOL    HW172908   7.957  11.386  10.678
90337SOL    HW272909   7.948  11.527  10.624
90338SOL     OW72910  12.437   6.067   3.232
90338SOL    HW172911  12.397   5.982   3.253
90338SOL    HW272912  12.478   6.054   3.147
90339SOL     OW72913   4.881  12.667   6.177
90339SOL    HW172914   4.916  12.725   6.245
90339SOL    HW272915   4.943  12.594   6.173
90340SOL     OW72916   6.252   2.080   2.994
90340SOL    HW172917   6.339   2.103   2.960
90340SOL    HW272918   6.193   2.144   2.953
90341SOL     OW72919   2.961   5.146  12.021
90341SOL    HW172920   3.051   5.173  12.037
90341SOL    HW272921   2.917   5.157  12.105
90342SOL     OW72922  12.640   6.720  13.779
90342SOL    HW172923  12.654   6.672  13.698
90342SOL    HW272924  12.727   6.729  13.817
90343SOL     OW72925   6.677  10.019  12.350
90343SOL    HW172926   6.655   9.988  12.437
90343SOL    HW272927   6.721   9.945  12.308
90344SOL     OW72928   0.772   5.386  11.616
90344SOL    HW172929   0.714   5.311  11.631
90344SOL    HW272930   0.838   5.354  11.555
90345SOL     OW72931   1.939  10.826  12.926
90345SOL    HW172932   1.936  10.788  12.839
90345SOL    HW272933   1.853  10.864  12.939
90346SOL     OW72934   9.956   9.600   6.636
90346SOL    HW172935   9.887   9.601   6.703
90346SOL    HW272936   9.957   9.509   6.605
90347SOL     OW72937  13.215   4.073  11.112
90347SOL    HW172938  13.223   4.120  11.029
90347SOL    HW272939  13.169   3.992  11.088
90348SOL     OW72940   8.541   5.653   7.281
90348SOL    HW172941   8.574   5.695   7.360
90348SOL    HW272942   8.478   5.589   7.312
90349SOL     OW72943   7.102   4.334  14.754
90349SOL    HW172944   7.092   4.320  14.849
90349SOL    HW272945   7.149   4.417  14.747
90350SOL     OW72946  10.762  13.655  13.499
90350SOL    HW172947  10.804  13.715  13.561
90350SOL    HW272948  10.676  13.637  13.538
90351SOL     OW72949  10.838   9.330   1.785
90351SOL    HW172950  10.770   9.264   1.782
90351SOL    HW272951  10.849   9.350   1.879
90352SOL     OW72952  10.554   5.266   5.844
90352SOL    HW172953  10.626   5.309   5.889
90352SOL    HW272954  10.495   5.239   5.914
90353SOL     OW72955   8.895   1.166   2.192
90353SOL    HW172956   8.822   1.176   2.131
90353SOL    HW272957   8.972   1.159   2.136
90354SOL     OW72958   1.953  12.655   7.646
90354SOL    HW172959   2.043  12.629   7.626
90354SOL    HW272960   1.940  12.738   7.599
90355SOL     OW72961   9.774   3.685  14.432
90355SOL    HW172962   9.789   3.742  14.507
90355SOL    HW272963   9.788   3.740  14.355
90356SOL     OW72964  12.944   8.202   8.641
90356SOL    HW172965  12.875   8.268   8.631
90356SOL    HW272966  12.947   8.186   8.736
90357SOL     OW72967   2.309   5.863   0.458
90357SOL    HW172968   2.352   5.920   0.522
90357SOL    HW272969   2.294   5.919   0.382
90358SOL     OW72970  10.666   4.398  14.281
90358SOL    HW172971  10.735   4.332  14.279
90358SOL    HW272972  10.645   4.409  14.373
90359SOL     OW72973   0.713   8.383   6.722
90359SOL    HW172974   0.704   8.458   6.780
90359SOL    HW272975   0.755   8.316   6.775
90360SOL     OW72976   2.909   2.668   6.964
90360SOL    HW172977   2.920   2.762   6.949
90360SOL    HW272978   2.938   2.655   7.054
90361SOL     OW72979  12.339   6.932   3.286
90361SOL    HW172980  12.286   6.852   3.283
90361SOL    HW272981  12.403   6.916   3.355
90362SOL     OW72982   5.273   0.608   3.760
90362SOL    HW172983   5.224   0.687   3.780
90362SOL    HW272984   5.291   0.614   3.666
90363SOL     OW72985   0.395   0.857   4.435
90363SOL    HW172986   0.479   0.888   4.467
90363SOL    HW272987   0.339   0.935   4.434
90364SOL     OW72988   6.457  12.345   8.846
90364SOL    HW172989   6.476  12.296   8.766
90364SOL    HW272990   6.543  12.374   8.876
90365SOL     OW72991  11.664   6.295  10.039
90365SOL    HW172992  11.577   6.310  10.003
90365SOL    HW272993  11.703   6.229   9.982
90366SOL     OW72994   4.855   4.183  14.479
90366SOL    HW172995   4.871   4.268  14.520
90366SOL    HW272996   4.805   4.203  14.400
90367SOL     OW72997   6.595   9.986  10.114
90367SOL    HW172998   6.676  10.009  10.070
90367SOL    HW272999   6.548  10.069  10.122
90368SOL     OW73000   1.480   3.753   7.492
90368SOL    HW173001   1.568   3.771   7.524
90368SOL    HW273002   1.451   3.836   7.453
90369SOL     OW73003   5.365   4.333  11.669
90369SOL    HW173004   5.278   4.371  11.684
90369SOL    HW273005   5.408   4.339  11.754
90370SOL     OW73006  12.478  11.413   5.210
90370SOL    HW173007  12.406  11.464   5.175
90370SOL    HW273008  12.518  11.470   5.276
90371SOL     OW73009   4.720  14.138  11.382
90371SOL    HW173010   4.752  14.223  11.412
90371SOL    HW273011   4.700  14.091  11.463
90372SOL     OW73012   9.033   6.971  10.918
90372SOL    HW173013   9.015   7.004  11.006
90372SOL    HW273014   9.005   6.879  10.922
90373SOL     OW73015   8.483   2.780  12.203
90373SOL    HW173016   8.418   2.710  12.199
90373SOL    HW273017   8.460   2.829  12.282
90374SOL     OW73018   0.344   9.977  14.007
90374SOL    HW173019   0.433   9.945  13.992
90374SOL    HW273020   0.332   9.970  14.102
90375SOL     OW73021   9.655   5.466  11.811
90375SOL    HW173022   9.679   5.559  11.803
90375SOL    HW273023   9.605   5.447  11.732
90376SOL     OW73024   9.893   7.866   8.857
90376SOL    HW173025   9.982   7.903   8.855
90376SOL    HW273026   9.837   7.938   8.827
90377SOL     OW73027   3.028  14.453   6.780
90377SOL    HW173028   3.054  14.363   6.800
90377SOL    HW273029   3.004  14.451   6.688
90378SOL     OW73030   0.581   5.816   3.703
90378SOL    HW173031   0.636   5.767   3.642
90378SOL    HW273032   0.535   5.749   3.753
90379SOL     OW73033   0.122  13.463   8.249
90379SOL    HW173034   0.211  13.473   8.281
90379SOL    HW273035   0.067  13.480   8.326
90380SOL     OW73036   5.419   0.878   6.421
90380SOL    HW173037   5.386   0.967   6.415
90380SOL    HW273038   5.355   0.832   6.476
90381SOL     OW73039  11.306   2.904   4.414
90381SOL    HW173040  11.236   2.872   4.471
90381SOL    HW273041  11.371   2.834   4.415
90382SOL     OW73042   1.489   0.459   0.693
90382SOL    HW173043   1.510   0.547   0.724
90382SOL    HW273044   1.462   0.412   0.772
90383SOL     OW73045   4.064   1.771   4.610
90383SOL    HW173046   4.048   1.833   4.682
90383SOL    HW273047   3.986   1.716   4.609
90384SOL     OW73048   0.725   2.143   5.803
90384SOL    HW173049   0.789   2.083   5.766
90384SOL    HW273050   0.683   2.094   5.874
90385SOL     OW73051   2.472   9.201   5.959
90385SOL    HW173052   2.532   9.133   5.989
90385SOL    HW273053   2.430   9.233   6.038
90386SOL     OW73054   6.850   2.862   6.711
90386SOL    HW173055   6.929   2.813   6.734
90386SOL    HW273056   6.836   2.920   6.786
90387SOL     OW73057   0.583   9.466  14.411
90387SOL    HW173058   0.650   9.530  14.388
90387SOL    HW273059   0.587   9.459  14.506
90388SOL     OW73060   0.218  11.342   4.691
90388SOL    HW173061   0.179  11.403   4.754
90388SOL    HW273062   0.312  11.354   4.701
90389SOL     OW73063   9.715  13.499   1.027
90389SOL    HW173064   9.698  13.593   1.039
90389SOL    HW273065   9.779  13.477   1.095
90390SOL     OW73066   2.039   3.027   2.324
90390SOL    HW173067   1.951   3.010   2.293
90390SOL    HW273068   2.056   3.118   2.299
90391SOL     OW73069  12.413   4.737   7.677
90391SOL    HW173070  12.420   4.696   7.591
90391SOL    HW273071  12.445   4.670   7.738
90392SOL     OW73072   3.374   6.309  14.252
90392SOL    HW173073   3.351   6.319  14.160
90392SOL    HW273074   3.361   6.216  14.270
90393SOL     OW73075  13.206  11.160  13.417
90393SOL    HW173076  13.141  11.189  13.482
90393SOL    HW273077  13.288  11.157  13.466
90394SOL     OW73078   2.274   6.705   4.945
90394SOL    HW173079   2.314   6.722   4.860
90394SOL    HW273080   2.338   6.740   5.008
90395SOL     OW73081  10.465   1.609   1.748
90395SOL    HW173082  10.432   1.574   1.831
90395SOL    HW273083  10.553   1.573   1.740
90396SOL     OW73084   5.153   7.632   1.703
90396SOL    HW173085   5.103   7.558   1.739
90396SOL    HW273086   5.178   7.684   1.779
90397SOL     OW73087   2.793   2.377  11.868
90397SOL    HW173088   2.751   2.424  11.795
90397SOL    HW273089   2.858   2.439  11.902
90398SOL     OW73090   6.018  10.521  10.143
90398SOL    HW173091   5.953  10.584  10.175
90398SOL    HW273092   6.001  10.441  10.192
90399SOL     OW73093   6.154   0.300  14.204
90399SOL    HW173094   6.138   0.389  14.234
90399SOL    HW273095   6.069   0.271  14.169
90400SOL     OW73096  14.769   9.806  10.684
90400SOL    HW173097  14.832   9.848  10.626
90400SOL    HW273098  14.769   9.860  10.763
90401SOL     OW73099   1.132  12.797   0.786
90401SOL    HW173100   1.057  12.767   0.735
90401SOL    HW273101   1.207  12.754   0.746
90402SOL     OW73102   3.078  14.139   4.153
90402SOL    HW173103   3.135  14.185   4.091
90402SOL    HW273104   3.127  14.142   4.236
90403SOL     OW73105  10.113  11.114   4.036
90403SOL    HW173106  10.073  11.037   3.997
90403SOL    HW273107  10.110  11.181   3.967
90404SOL     OW73108  10.257  13.588   1.402
90404SOL    HW173109  10.320  13.516   1.403
90404SOL    HW273110  10.203  13.574   1.480
90405SOL     OW73111  12.892  11.666  12.691
90405SOL    HW173112  12.885  11.741  12.750
90405SOL    HW273113  12.868  11.591  12.745
90406SOL     OW73114   0.625  13.075   5.156
90406SOL    HW173115   0.597  13.009   5.218
90406SOL    HW273116   0.695  13.033   5.106
90407SOL     OW73117   6.641  13.187   4.214
90407SOL    HW173118   6.605  13.099   4.231
90407SOL    HW273119   6.566  13.238   4.183
90408SOL     OW73120   3.860   3.177   0.735
90408SOL    HW173121   3.951   3.171   0.763
90408SOL    HW273122   3.863   3.233   0.657
90409SOL     OW73123   8.895  14.228   4.513
90409SOL    HW173124   8.868  14.286   4.584
90409SOL    HW273125   8.991  14.230   4.516
90410SOL     OW73126  12.511   2.374  13.724
90410SOL    HW173127  12.537   2.437  13.657
90410SOL    HW273128  12.437   2.327  13.685
90411SOL     OW73129  14.518   6.347   0.445
90411SOL    HW173130  14.427   6.369   0.464
90411SOL    HW273131  14.513   6.280   0.376
90412SOL     OW73132   7.888   9.215  12.306
90412SOL    HW173133   7.805   9.207  12.353
90412SOL    HW273134   7.955   9.205  12.374
90413SOL     OW73135   9.026  13.404  11.994
90413SOL    HW173136   8.940  13.362  11.991
90413SOL    HW273137   9.049  13.419  11.903
90414SOL     OW73138  12.820  11.265  10.251
90414SOL    HW173139  12.791  11.345  10.207
90414SOL    HW273140  12.853  11.209  10.181
90415SOL     OW73141   5.444   2.991  14.667
90415SOL    HW173142   5.529   2.993  14.622
90415SOL    HW273143   5.380   3.011  14.599
90416SOL     OW73144   7.430   9.775  12.443
90416SOL    HW173145   7.381   9.828  12.506
90416SOL    HW273146   7.370   9.762  12.370
90417SOL     OW73147   7.590   4.776   2.919
90417SOL    HW173148   7.525   4.752   2.985
90417SOL    HW273149   7.672   4.781   2.968
90418SOL     OW73150  12.557   1.734   2.167
90418SOL    HW173151  12.568   1.802   2.234
90418SOL    HW273152  12.531   1.782   2.089
90419SOL     OW73153   3.986   0.318   0.958
90419SOL    HW173154   4.017   0.228   0.959
90419SOL    HW273155   3.898   0.315   0.996
90420SOL     OW73156   5.169   6.076   1.737
90420SOL    HW173157   5.131   6.035   1.815
90420SOL    HW273158   5.238   6.016   1.709
90421SOL     OW73159   0.019   7.106   7.565
90421SOL    HW173160   0.066   7.188   7.567
90421SOL    HW273161   0.022   7.074   7.655
90422SOL     OW73162  14.764  10.457   7.468
90422SOL    HW173163  14.792  10.366   7.480
90422SOL    HW273164  14.768  10.471   7.373
90423SOL     OW73165   2.599   5.307   9.660
90423SOL    HW173166   2.615   5.228   9.711
90423SOL    HW273167   2.686   5.344   9.644
90424SOL     OW73168  14.709  10.940  13.407
90424SOL    HW173169  14.666  10.948  13.322
90424SOL    HW273170  14.783  11.001  13.402
90425SOL     OW73171   4.754   1.056   5.430
90425SOL    HW173172   4.795   1.009   5.503
90425SOL    HW273173   4.823   1.065   5.365
90426SOL     OW73174  12.232   2.635   4.093
90426SOL    HW173175  12.316   2.592   4.076
90426SOL    HW273176  12.211   2.611   4.183
90427SOL     OW73177   0.322   6.254  13.274
90427SOL    HW173178   0.360   6.246  13.186
90427SOL    HW273179   0.247   6.313  13.263
90428SOL     OW73180   5.100   1.374   2.365
90428SOL    HW173181   5.124   1.322   2.442
90428SOL    HW273182   5.004   1.370   2.362
90429SOL     OW73183  13.733   2.343   5.120
90429SOL    HW173184  13.829   2.343   5.125
90429SOL    HW273185  13.705   2.273   5.178
90430SOL     OW73186  14.739   1.098   4.349
90430SOL    HW173187  14.745   1.018   4.400
90430SOL    HW273188  14.772   1.166   4.408
90431SOL     OW73189   5.730  12.207   1.798
90431SOL    HW173190   5.674  12.157   1.857
90431SOL    HW273191   5.670  12.240   1.731
90432SOL     OW73192   3.103  12.694   7.464
90432SOL    HW173193   3.102  12.667   7.373
90432SOL    HW273194   3.184  12.744   7.474
90433SOL     OW73195  14.646   9.305   9.023
90433SOL    HW173196  14.710   9.370   9.053
90433SOL    HW273197  14.639   9.320   8.929
90434SOL     OW73198  12.369  14.786   8.188
90434SOL    HW173199  12.431  14.778   8.261
90434SOL    HW273200  12.284  14.800   8.230
90435SOL     OW73201  12.356   3.050  10.582
90435SOL    HW173202  12.281   3.098  10.547
90435SOL    HW273203  12.395   3.108  10.647
90436SOL     OW73204  13.209  14.538   2.054
90436SOL    HW173205  13.178  14.497   2.134
90436SOL    HW273206  13.147  14.610   2.039
90437SOL     OW73207  12.191   0.962   2.526
90437SOL    HW173208  12.213   1.053   2.542
90437SOL    HW273209  12.274   0.915   2.536
90438SOL     OW73210   7.644  10.939   6.384
90438SOL    HW173211   7.625  11.014   6.440
90438SOL    HW273212   7.571  10.935   6.323
90439SOL     OW73213  10.752   4.617  10.469
90439SOL    HW173214  10.770   4.622  10.375
90439SOL    HW273215  10.657   4.604  10.475
90440SOL     OW73216   6.759  12.400   5.414
90440SOL    HW173217   6.739  12.395   5.507
90440SOL    HW273218   6.746  12.492   5.391
90441SOL     OW73219   2.939   2.386   3.176
90441SOL    HW173220   2.865   2.336   3.141
90441SOL    HW273221   2.935   2.470   3.130
90442SOL     OW73222   4.033  11.692  12.302
90442SOL    HW173223   4.054  11.785  12.308
90442SOL    HW273224   4.000  11.680  12.213
90443SOL     OW73225  11.252  14.356   5.746
90443SOL    HW173226  11.253  14.451   5.761
90443SOL    HW273227  11.163  14.329   5.769
90444SOL     OW73228  10.944   9.421   4.563
90444SOL    HW173229  11.038   9.430   4.577
90444SOL    HW273230  10.905   9.486   4.621
90445SOL     OW73231   2.239  14.419   6.775
90445SOL    HW173232   2.314  14.457   6.729
90445SOL    HW273233   2.278  14.366   6.845
90446SOL     OW73234   0.071   5.238   3.191
90446SOL    HW173235  14.849   5.225   3.190
90446SOL    HW273236   0.082   5.334   3.193
90447SOL     OW73237   1.139   1.519   5.085
90447SOL    HW173238   1.054   1.476   5.083
90447SOL    HW273239   1.199   1.456   5.043
90448SOL     OW73240   2.812   1.791   2.421
90448SOL    HW173241   2.744   1.724   2.417
90448SOL    HW273242   2.894   1.741   2.423
90449SOL     OW73243   0.108  11.172   1.653
90449SOL    HW173244   0.117  11.167   1.557
90449SOL    HW273245   0.080  11.085   1.679
90450SOL     OW73246   3.043   2.221   2.814
90450SOL    HW173247   3.020   2.149   2.755
90450SOL    HW273248   3.005   2.298   2.773
90451SOL     OW73249   1.187   6.646   2.472
90451SOL    HW173250   1.149   6.607   2.550
90451SOL    HW273251   1.117   6.699   2.434
90452SOL     OW73252  11.325  13.016   8.830
90452SOL    HW173253  11.262  13.041   8.898
90452SOL    HW273254  11.271  12.987   8.757
90453SOL     OW73255   6.202   7.035   0.216
90453SOL    HW173256   6.239   7.043   0.304
90453SOL    HW273257   6.252   7.098   0.164
90454SOL     OW73258   8.704   3.408  12.486
90454SOL    HW173259   8.781   3.433  12.435
90454SOL    HW273260   8.658   3.344  12.431
90455SOL     OW73261   3.256  10.003   5.564
90455SOL    HW173262   3.248  10.000   5.469
90455SOL    HW273263   3.329   9.944   5.584
90456SOL     OW73264  13.931   5.901   0.859
90456SOL    HW173265  13.910   5.808   0.867
90456SOL    HW273266  13.897   5.940   0.940
90457SOL     OW73267  10.160   5.140   7.497
90457SOL    HW173268  10.249   5.171   7.511
90457SOL    HW273269  10.163   5.048   7.524
90458SOL     OW73270   7.051   2.219   7.499
90458SOL    HW173271   7.115   2.261   7.556
90458SOL    HW273272   7.093   2.217   7.413
90459SOL     OW73273  13.216   3.270  10.992
90459SOL    HW173274  13.186   3.319  10.916
90459SOL    HW273275  13.188   3.322  11.067
90460SOL     OW73276  11.212   7.967   6.138
90460SOL    HW173277  11.169   7.989   6.055
90460SOL    HW273278  11.149   7.912   6.184
90461SOL     OW73279  11.356  10.771   5.467
90461SOL    HW173280  11.380  10.859   5.496
90461SOL    HW273281  11.408  10.756   5.389
90462SOL     OW73282   7.249   9.754  13.425
90462SOL    HW173283   7.222   9.832  13.474
90462SOL    HW273284   7.198   9.683  13.465
90463SOL     OW73285  10.084   3.181   4.334
90463SOL    HW173286  10.116   3.221   4.415
90463SOL    HW273287   9.992   3.162   4.352
90464SOL     OW73288   0.205   1.583  14.778
90464SOL    HW173289   0.236   1.657  14.725
90464SOL    HW273290   0.192   1.620  14.865
90465SOL     OW73291  14.792   3.717  10.679
90465SOL    HW173292   0.005   3.678  10.698
90465SOL    HW273293  14.768   3.762  10.759
90466SOL     OW73294   1.533   3.798   9.418
90466SOL    HW173295   1.594   3.727   9.395
90466SOL    HW273296   1.559   3.871   9.362
90467SOL     OW73297   1.074   4.131   9.926
90467SOL    HW173298   1.101   4.116   9.835
90467SOL    HW273299   1.041   4.221   9.926
90468SOL     OW73300  10.057   8.577   5.869
90468SOL    HW173301   9.988   8.631   5.829
90468SOL    HW273302  10.082   8.515   5.801
90469SOL     OW73303   4.973  12.673  10.979
90469SOL    HW173304   4.946  12.605  11.040
90469SOL    HW273305   5.067  12.681  10.992
90470SOL     OW73306  13.123   2.833   4.514
90470SOL    HW173307  13.058   2.791   4.458
90470SOL    HW273308  13.171   2.892   4.456
90471SOL     OW73309   9.598   9.934   4.796
90471SOL    HW173310   9.533   9.896   4.738
90471SOL    HW273311   9.639   9.859   4.839
90472SOL     OW73312  10.445   4.975  12.387
90472SOL    HW173313  10.381   5.003  12.321
90472SOL    HW273314  10.529   4.974  12.341
90473SOL     OW73315   5.283   0.766   0.162
90473SOL    HW173316   5.315   0.782   0.251
90473SOL    HW273317   5.358   0.783   0.106
90474SOL     OW73318   6.620   7.878   6.047
90474SOL    HW173319   6.598   7.825   6.124
90474SOL    HW273320   6.712   7.859   6.030
90475SOL     OW73321   9.372  12.268   1.036
90475SOL    HW173322   9.452  12.229   1.002
90475SOL    HW273323   9.324  12.194   1.075
90476SOL     OW73324   4.811   2.853   4.485
90476SOL    HW173325   4.832   2.939   4.521
90476SOL    HW273326   4.817   2.864   4.390
90477SOL     OW73327   0.558   0.662   1.059
90477SOL    HW173328   0.605   0.711   1.126
90477SOL    HW273329   0.614   0.587   1.040
90478SOL     OW73330  13.497  13.756   1.036
90478SOL    HW173331  13.461  13.709   1.111
90478SOL    HW273332  13.591  13.739   1.039
90479SOL     OW73333   3.418   4.008  13.876
90479SOL    HW173334   3.334   3.964  13.865
90479SOL    HW273335   3.398   4.101  13.877
90480SOL     OW73336   8.933   7.482   1.584
90480SOL    HW173337   8.947   7.457   1.492
90480SOL    HW273338   8.900   7.403   1.626
90481SOL     OW73339   0.583  12.542   5.264
90481SOL    HW173340   0.509  12.487   5.289
90481SOL    HW273341   0.660  12.490   5.285
90482SOL     OW73342   9.012   9.267  10.694
90482SOL    HW173343   8.959   9.193  10.665
90482SOL    HW273344   8.980   9.341  10.642
90483SOL     OW73345   0.436   0.368   9.150
90483SOL    HW173346   0.520   0.401   9.182
90483SOL    HW273347   0.371   0.424   9.193
90484SOL     OW73348   3.297   2.481   5.858
90484SOL    HW173349   3.280   2.552   5.796
90484SOL    HW273350   3.375   2.437   5.824
90485SOL     OW73351  11.106   4.578  11.919
90485SOL    HW173352  11.106   4.484  11.905
90485SOL    HW273353  11.188   4.596  11.966
90486SOL     OW73354  11.527  14.507   0.411
90486SOL    HW173355  11.460  14.472   0.470
90486SOL    HW273356  11.484  14.508   0.325
90487SOL     OW73357   4.764   8.639   9.757
90487SOL    HW173358   4.695   8.640   9.691
90487SOL    HW273359   4.773   8.547   9.782
90488SOL     OW73360   6.420   9.693   8.767
90488SOL    HW173361   6.338   9.719   8.725
90488SOL    HW273362   6.392   9.652   8.849
90489SOL     OW73363   6.063  10.734  12.456
90489SOL    HW173364   6.038  10.704  12.368
90489SOL    HW273365   6.098  10.822  12.443
90490SOL     OW73366  14.276   5.105   9.435
90490SOL    HW173367  14.269   5.190   9.392
90490SOL    HW273368  14.311   5.047   9.367
90491SOL     OW73369   8.578   0.220   9.571
90491SOL    HW173370   8.541   0.272   9.642
90491SOL    HW273371   8.503   0.191   9.520
90492SOL     OW73372   7.569  10.846   8.442
90492SOL    HW173373   7.486  10.890   8.455
90492SOL    HW273374   7.556  10.759   8.480
90493SOL     OW73375  13.190   2.457   4.767
90493SOL    HW173376  13.253   2.451   4.695
90493SOL    HW273377  13.122   2.515   4.735
90494SOL     OW73378   2.193   9.662   1.743
90494SOL    HW173379   2.178   9.744   1.697
90494SOL    HW273380   2.240   9.607   1.680
90495SOL     OW73381   4.064   0.080   8.472
90495SOL    HW173382   4.039   0.172   8.469
90495SOL    HW273383   4.087   0.058   8.381
90496SOL     OW73384   2.813   8.435   0.495
90496SOL    HW173385   2.863   8.415   0.574
90496SOL    HW273386   2.797   8.350   0.455
90497SOL     OW73387   2.321  10.860  10.953
90497SOL    HW173388   2.406  10.822  10.974
90497SOL    HW273389   2.320  10.944  10.999
90498SOL     OW73390  12.297   7.002   4.066
90498SOL    HW173391  12.217   7.011   4.015
90498SOL    HW273392  12.333   6.917   4.039
90499SOL     OW73393   1.649   7.244   3.683
90499SOL    HW173394   1.659   7.335   3.710
90499SOL    HW273395   1.573   7.213   3.732
90500SOL     OW73396   4.714   6.088   4.416
90500SOL    HW173397   4.628   6.077   4.375
90500SOL    HW273398   4.719   6.019   4.481
90501SOL     OW73399   5.115   9.963   7.826
90501SOL    HW173400   5.189   9.969   7.767
90501SOL    HW273401   5.078  10.052   7.826
90502SOL     OW73402  11.927   8.875  14.601
90502SOL    HW173403  11.915   8.846  14.691
90502SOL    HW273404  11.878   8.957  14.595
90503SOL     OW73405   0.259  14.337  14.319
90503SOL    HW173406   0.249  14.325  14.413
90503SOL    HW273407   0.352  14.320  14.302
90504SOL     OW73408  10.490   9.985  11.506
90504SOL    HW173409  10.444  10.028  11.434
90504SOL    HW273410  10.421   9.957  11.565
90505SOL     OW73411  10.252   1.692   0.466
90505SOL    HW173412  10.168   1.716   0.425
90505SOL    HW273413  10.286   1.774   0.500
90506SOL     OW73414   0.170   4.293  10.066
90506SOL    HW173415   0.208   4.216  10.023
90506SOL    HW273416   0.083   4.265  10.093
90507SOL     OW73417  12.867  14.150   0.816
90507SOL    HW173418  12.854  14.113   0.728
90507SOL    HW273419  12.880  14.074   0.872
90508SOL     OW73420  10.559  14.414  14.000
90508SOL    HW173421  10.527  14.501  14.024
90508SOL    HW273422  10.554  14.411  13.905
90509SOL     OW73423   1.568  10.308  12.825
90509SOL    HW173424   1.570  10.404  12.830
90509SOL    HW273425   1.497  10.288  12.764
90510SOL     OW73426   5.130  10.236  12.059
90510SOL    HW173427   5.190  10.268  11.992
90510SOL    HW273428   5.106  10.148  12.030
90511SOL     OW73429  11.106   6.438   4.486
90511SOL    HW173430  11.084   6.516   4.436
90511SOL    HW273431  11.169   6.468   4.551
90512SOL     OW73432   5.023   8.585  13.461
90512SOL    HW173433   5.063   8.650  13.520
90512SOL    HW273434   5.000   8.512  13.518
90513SOL     OW73435  13.910   7.869   1.031
90513SOL    HW173436  13.853   7.809   1.079
90513SOL    HW273437  13.999   7.843   1.055
90514SOL     OW73438   5.467  12.337  12.231
90514SOL    HW173439   5.493  12.303  12.145
90514SOL    HW273440   5.484  12.265  12.291
90515SOL     OW73441   9.611  12.403  12.113
90515SOL    HW173442   9.577  12.373  12.197
90515SOL    HW273443   9.541  12.455  12.075
90516SOL     OW73444   1.031   6.777   9.698
90516SOL    HW173445   1.076   6.806   9.777
90516SOL    HW273446   1.093   6.718   9.655
90517SOL     OW73447  10.998   7.563   8.291
90517SOL    HW173448  11.001   7.629   8.359
90517SOL    HW273449  11.086   7.526   8.288
90518SOL     OW73450   8.157   2.955  10.872
90518SOL    HW173451   8.120   3.017  10.810
90518SOL    HW273452   8.203   3.009  10.937
90519SOL     OW73453   1.543   5.483   4.561
90519SOL    HW173454   1.505   5.557   4.610
90519SOL    HW273455   1.595   5.524   4.493
90520SOL     OW73456   3.651   2.466   7.124
90520SOL    HW173457   3.658   2.464   7.029
90520SOL    HW273458   3.610   2.550   7.144
90521SOL     OW73459   8.873   7.221   4.137
90521SOL    HW173460   8.804   7.158   4.116
90521SOL    HW273461   8.946   7.196   4.081
90522SOL     OW73462   9.148   4.489  14.254
90522SOL    HW173463   9.176   4.471  14.344
90522SOL    HW273464   9.161   4.583  14.243
90523SOL     OW73465  12.636   3.799   0.632
90523SOL    HW173466  12.544   3.774   0.622
90523SOL    HW273467  12.647   3.872   0.572
90524SOL     OW73468   9.632   2.421   9.283
90524SOL    HW173469   9.711   2.474   9.272
90524SOL    HW273470   9.624   2.372   9.201
90525SOL     OW73471   3.677   4.316   4.131
90525SOL    HW173472   3.595   4.318   4.082
90525SOL    HW273473   3.684   4.403   4.169
90526SOL     OW73474  13.863  13.966  13.867
90526SOL    HW173475  13.806  13.903  13.911
90526SOL    HW273476  13.887  14.029  13.935
90527SOL     OW73477   4.251   9.341   1.579
90527SOL    HW173478   4.324   9.321   1.521
90527SOL    HW273479   4.263   9.433   1.601
90528SOL     OW73480   1.653   7.573  12.382
90528SOL    HW173481   1.704   7.636  12.332
90528SOL    HW273482   1.645   7.497  12.325
90529SOL     OW73483   4.017  11.031   7.022
90529SOL    HW173484   3.961  10.953   7.019
90529SOL    HW273485   3.979  11.090   6.958
90530SOL     OW73486   9.712  10.526   1.931
90530SOL    HW173487   9.742  10.485   1.850
90530SOL    HW273488   9.637  10.579   1.905
90531SOL     OW73489   4.489  13.902  12.533
90531SOL    HW173490   4.442  13.850  12.467
90531SOL    HW273491   4.437  13.981  12.544
90532SOL     OW73492   1.641   0.671   4.810
90532SOL    HW173493   1.574   0.609   4.782
90532SOL    HW273494   1.716   0.617   4.835
90533SOL     OW73495  14.769   4.377   3.885
90533SOL    HW173496  14.759   4.285   3.862
90533SOL    HW273497  14.747   4.381   3.978
90534SOL     OW73498   2.184   8.980   0.897
90534SOL    HW173499   2.183   8.999   0.990
90534SOL    HW273500   2.095   8.999   0.868
90535SOL     OW73501   6.286  11.201  12.685
90535SOL    HW173502   6.367  11.153  12.699
90535SOL    HW273503   6.281  11.212  12.590
90536SOL     OW73504  11.439  12.583   6.278
90536SOL    HW173505  11.381  12.614   6.347
90536SOL    HW273506  11.525  12.618   6.301
90537SOL     OW73507  12.936   3.443   6.479
90537SOL    HW173508  12.975   3.382   6.542
90537SOL    HW273509  12.897   3.388   6.412
90538SOL     OW73510  10.745  11.944  11.615
90538SOL    HW173511  10.757  11.926  11.708
90538SOL    HW273512  10.786  12.030  11.602
90539SOL     OW73513  10.072  12.178   1.431
90539SOL    HW173514  10.097  12.139   1.348
90539SOL    HW273515  10.147  12.161   1.489
90540SOL     OW73516  10.678   4.949   2.206
90540SOL    HW173517  10.726   4.871   2.234
90540SOL    HW273518  10.746   5.016   2.197
90541SOL     OW73519   7.512   9.467   7.189
90541SOL    HW173520   7.540   9.398   7.129
90541SOL    HW273521   7.421   9.446   7.208
90542SOL     OW73522  11.712   3.440   8.520
90542SOL    HW173523  11.778   3.431   8.589
90542SOL    HW273524  11.635   3.473   8.566
90543SOL     OW73525  13.625  11.705   3.041
90543SOL    HW173526  13.617  11.798   3.022
90543SOL    HW273527  13.712  11.681   3.010
90544SOL     OW73528   9.961   0.599  11.997
90544SOL    HW173529   9.940   0.676  12.051
90544SOL    HW273530  10.047   0.572  12.027
90545SOL     OW73531  12.436   0.095  12.645
90545SOL    HW173532  12.346   0.066  12.663
90545SOL    HW273533  12.484   0.015  12.626
90546SOL     OW73534   5.802   3.787   6.353
90546SOL    HW173535   5.747   3.857   6.388
90546SOL    HW273536   5.892   3.816   6.369
90547SOL     OW73537   9.298  13.055   1.613
90547SOL    HW173538   9.210  13.076   1.580
90547SOL    HW273539   9.349  13.134   1.599
90548SOL     OW73540  13.802   4.491  14.160
90548SOL    HW173541  13.750   4.508  14.081
90548SOL    HW273542  13.893   4.490  14.130
90549SOL     OW73543   3.670  11.439  13.668
90549SOL    HW173544   3.676  11.367  13.731
90549SOL    HW273545   3.583  11.476  13.682
90550SOL     OW73546   2.168   9.805   3.570
90550SOL    HW173547   2.178   9.839   3.481
90550SOL    HW273548   2.074   9.800   3.583
90551SOL     OW73549   9.998   4.184   5.076
90551SOL    HW173550  10.055   4.107   5.085
90551SOL    HW273551  10.051   4.256   5.109
90552SOL     OW73552   4.436  12.481  14.436
90552SOL    HW173553   4.375  12.408  14.422
90552SOL    HW273554   4.421  12.540  14.362
90553SOL     OW73555   9.208  14.775  10.206
90553SOL    HW173556   9.208  14.716  10.281
90553SOL    HW273557   9.134  14.834  10.221
90554SOL     OW73558  13.029   2.894   7.661
90554SOL    HW173559  13.024   2.919   7.569
90554SOL    HW273560  12.938   2.886   7.690
90555SOL     OW73561   7.025   6.564   0.448
90555SOL    HW173562   7.109   6.579   0.491
90555SOL    HW273563   6.980   6.649   0.455
90556SOL     OW73564   9.816   1.210   0.241
90556SOL    HW173565   9.800   1.133   0.187
90556SOL    HW273566   9.832   1.176   0.329
90557SOL     OW73567   6.240   8.875   0.243
90557SOL    HW173568   6.260   8.799   0.298
90557SOL    HW273569   6.146   8.888   0.254
90558SOL     OW73570   1.813  14.305  14.168
90558SOL    HW173571   1.769  14.345  14.093
90558SOL    HW273572   1.830  14.215  14.140
90559SOL     OW73573   4.270  14.149  14.614
90559SOL    HW173574   4.320  14.175  14.536
90559SOL    HW273575   4.298  14.211  14.682
90560SOL     OW73576  13.370   5.278  13.533
90560SOL    HW173577  13.406   5.326  13.458
90560SOL    HW273578  13.405   5.323  13.610
90561SOL     OW73579   1.328  12.520  12.206
90561SOL    HW173580   1.324  12.547  12.298
90561SOL    HW273581   1.312  12.600  12.157
90562SOL     OW73582   4.815   7.143  10.928
90562SOL    HW173583   4.752   7.106  10.867
90562SOL    HW273584   4.900   7.123  10.890
90563SOL     OW73585   8.040   1.627  11.275
90563SOL    HW173586   8.033   1.537  11.307
90563SOL    HW273587   7.971   1.674  11.321
90564SOL     OW73588  13.054   1.680   0.205
90564SOL    HW173589  13.055   1.727   0.289
90564SOL    HW273590  12.961   1.674   0.182
90565SOL     OW73591  11.058   9.051   1.614
90565SOL    HW173592  10.965   9.072   1.621
90565SOL    HW273593  11.076   8.995   1.690
90566SOL     OW73594  12.031   5.412   8.871
90566SOL    HW173595  12.059   5.489   8.921
90566SOL    HW273596  11.959   5.444   8.817
90567SOL     OW73597  12.560   4.673   8.563
90567SOL    HW173598  12.508   4.616   8.507
90567SOL    HW273599  12.622   4.614   8.607
90568SOL     OW73600  14.854   3.295  13.294
90568SOL    HW173601  14.804   3.253  13.365
90568SOL    HW273602   0.018   3.222  13.244
90569SOL     OW73603   0.010  14.270  10.996
90569SOL    HW173604   0.032  14.179  10.975
90569SOL    HW273605  14.797  14.264  11.040
90570SOL     OW73606   1.454   3.819  13.041
90570SOL    HW173607   1.422   3.743  12.993
90570SOL    HW273608   1.394   3.890  13.017
90571SOL     OW73609  11.745   6.867   3.813
90571SOL    HW173610  11.706   6.782   3.833
90571SOL    HW273611  11.824   6.871   3.867
90572SOL     OW73612  11.797   0.982   1.629
90572SOL    HW173613  11.742   0.925   1.682
90572SOL    HW273614  11.858   0.923   1.586
90573SOL     OW73615   2.657   7.188   6.077
90573SOL    HW173616   2.658   7.263   6.136
90573SOL    HW273617   2.669   7.112   6.134
90574SOL     OW73618  10.958  13.886   4.922
90574SOL    HW173619  10.962  13.978   4.947
90574SOL    HW273620  11.032  13.845   4.967
90575SOL     OW73621   9.856   2.954  14.239
90575SOL    HW173622   9.933   2.905  14.268
90575SOL    HW273623   9.816   2.898  14.173
90576SOL     OW73624   0.684  14.015   1.444
90576SOL    HW173625   0.708  13.949   1.508
90576SOL    HW273626   0.748  14.005   1.374
90577SOL     OW73627   3.005  11.981   8.963
90577SOL    HW173628   3.047  11.928   9.031
90577SOL    HW273629   2.911  11.966   8.975
90578SOL     OW73630   3.531   7.895  10.467
90578SOL    HW173631   3.618   7.887  10.506
90578SOL    HW273632   3.529   7.984  10.432
90579SOL     OW73633   3.964   4.557  11.107
90579SOL    HW173634   4.027   4.610  11.058
90579SOL    HW273635   3.968   4.592  11.196
90580SOL     OW73636  10.133   6.861  10.527
90580SOL    HW173637  10.149   6.809  10.448
90580SOL    HW273638  10.064   6.813  10.573
90581SOL     OW73639   4.743   2.547  12.910
90581SOL    HW173640   4.793   2.606  12.965
90581SOL    HW273641   4.654   2.582  12.910
90582SOL     OW73642  14.294   7.116   0.204
90582SOL    HW173643  14.311   7.209   0.215
90582SOL    HW273644  14.370   7.073   0.245
90583SOL     OW73645  12.432   8.728  14.720
90583SOL    HW173646  12.474   8.777  14.790
90583SOL    HW273647  12.458   8.775  14.640
90584SOL     OW73648  12.837   1.037   3.437
90584SOL    HW173649  12.905   1.024   3.371
90584SOL    HW273650  12.874   1.102   3.497
90585SOL     OW73651   6.661  12.973  14.239
90585SOL    HW173652   6.679  12.912  14.310
90585SOL    HW273653   6.722  13.045  14.253
90586SOL     OW73654  11.410   0.602  11.752
90586SOL    HW173655  11.413   0.547  11.829
90586SOL    HW273656  11.373   0.546  11.683
90587SOL     OW73657   6.598  11.487   0.857
90587SOL    HW173658   6.595  11.414   0.918
90587SOL    HW273659   6.620  11.563   0.911
90588SOL     OW73660   6.526   2.698   2.576
90588SOL    HW173661   6.442   2.742   2.584
90588SOL    HW273662   6.506   2.605   2.585
90589SOL     OW73663  12.170   0.088   6.051
90589SOL    HW173664  12.095   0.032   6.068
90589SOL    HW273665  12.200   0.117   6.137
90590SOL     OW73666   0.320  13.797   9.402
90590SOL    HW173667   0.284  13.708   9.399
90590SOL    HW273668   0.413  13.784   9.416
90591SOL     OW73669   6.493   8.293   8.086
90591SOL    HW173670   6.449   8.208   8.080
90591SOL    HW273671   6.583   8.273   8.108
90592SOL     OW73672  10.776   6.309   1.269
90592SOL    HW173673  10.823   6.299   1.187
90592SOL    HW273674  10.826   6.373   1.319
90593SOL     OW73675  12.463   5.768   2.923
90593SOL    HW173676  12.439   5.826   2.850
90593SOL    HW273677  12.384   5.764   2.977
90594SOL     OW73678   8.114   5.648   0.247
90594SOL    HW173679   8.113   5.571   0.191
90594SOL    HW273680   8.181   5.630   0.313
90595SOL     OW73681  12.041  12.268  11.096
90595SOL    HW173682  12.123  12.238  11.056
90595SOL    HW273683  11.975  12.207  11.063
90596SOL     OW73684   8.281   2.395   8.632
90596SOL    HW173685   8.289   2.301   8.614
90596SOL    HW273686   8.255   2.433   8.548
90597SOL     OW73687   9.954   4.642   8.041
90597SOL    HW173688   9.859   4.655   8.047
90597SOL    HW273689   9.965   4.572   7.976
90598SOL     OW73690  11.157  14.029  10.149
90598SOL    HW173691  11.156  13.966  10.076
90598SOL    HW273692  11.178  14.112  10.108
90599SOL     OW73693   4.486  11.104   5.579
90599SOL    HW173694   4.511  11.150   5.660
90599SOL    HW273695   4.507  11.166   5.509
90600SOL     OW73696   8.582  13.696   9.523
90600SOL    HW173697   8.563  13.759   9.454
90600SOL    HW273698   8.659  13.648   9.492
90601SOL     OW73699  13.360  10.570   3.529
90601SOL    HW173700  13.409  10.652   3.541
90601SOL    HW273701  13.284  10.596   3.477
90602SOL     OW73702  12.538   8.856   9.081
90602SOL    HW173703  12.497   8.915   9.144
90602SOL    HW273704  12.632   8.873   9.090
90603SOL     OW73705   8.475   8.862   5.272
90603SOL    HW173706   8.503   8.911   5.349
90603SOL    HW273707   8.519   8.777   5.281
90604SOL     OW73708   8.492   3.291  14.771
90604SOL    HW173709   8.512   3.310  14.679
90604SOL    HW273710   8.555   3.343  14.821
90605SOL     OW73711   3.947   7.820   3.939
90605SOL    HW173712   3.958   7.785   4.028
90605SOL    HW273713   3.961   7.914   3.949
90606SOL     OW73714   9.168   4.896   5.808
90606SOL    HW173715   9.225   4.905   5.732
90606SOL    HW273716   9.161   4.801   5.822
90607SOL     OW73717   7.621   8.956   3.901
90607SOL    HW173718   7.633   8.891   3.970
90607SOL    HW273719   7.664   8.917   3.824
90608SOL     OW73720  10.712  13.016  13.815
90608SOL    HW173721  10.693  13.099  13.859
90608SOL    HW273722  10.742  13.042  13.728
90609SOL     OW73723   9.783  11.463  12.526
90609SOL    HW173724   9.871  11.440  12.559
90609SOL    HW273725   9.799  11.503  12.441
90610SOL     OW73726  10.724   9.212   4.921
90610SOL    HW173727  10.718   9.218   5.017
90610SOL    HW273728  10.817   9.195   4.904
90611SOL     OW73729  14.327   6.597   2.626
90611SOL    HW173730  14.397   6.659   2.643
90611SOL    HW273731  14.282   6.632   2.549
90612SOL     OW73732  14.079   3.706  13.253
90612SOL    HW173733  14.001   3.742  13.296
90612SOL    HW273734  14.072   3.736  13.162
90613SOL     OW73735   5.046   1.246   7.742
90613SOL    HW173736   5.138   1.273   7.738
90613SOL    HW273737   5.012   1.262   7.654
90614SOL     OW73738   5.262   2.370   9.580
90614SOL    HW173739   5.209   2.292   9.595
90614SOL    HW273740   5.304   2.354   9.495
90615SOL     OW73741  13.838   2.864  10.615
90615SOL    HW173742  13.762   2.890  10.562
90615SOL    HW273743  13.913   2.885  10.560
90616SOL     OW73744   0.670  10.803   8.616
90616SOL    HW173745   0.732  10.785   8.686
90616SOL    HW273746   0.585  10.811   8.660
90617SOL     OW73747   4.426   0.731   6.182
90617SOL    HW173748   4.375   0.796   6.133
90617SOL    HW273749   4.438   0.659   6.120
90618SOL     OW73750   7.624   7.312  12.841
90618SOL    HW173751   7.602   7.249  12.910
90618SOL    HW273752   7.680   7.376  12.885
90619SOL     OW73753   2.092   8.934   4.205
90619SOL    HW173754   2.144   8.886   4.140
90619SOL    HW273755   2.109   8.889   4.287
90620SOL     OW73756  11.495   9.605   4.580
90620SOL    HW173757  11.480   9.555   4.500
90620SOL    HW273758  11.510   9.695   4.549
90621SOL     OW73759  10.434   0.322  12.240
90621SOL    HW173760  10.424   0.409  12.278
90621SOL    HW273761  10.394   0.328  12.153
90622SOL     OW73762   2.199   2.415   0.845
90622SOL    HW173763   2.253   2.345   0.881
90622SOL    HW273764   2.260   2.472   0.799
90623SOL     OW73765   1.022   2.686   1.910
90623SOL    HW173766   1.116   2.693   1.894
90623SOL    HW273767   0.982   2.740   1.842
90624SOL     OW73768   4.089   7.438   8.693
90624SOL    HW173769   4.004   7.469   8.663
90624SOL    HW273770   4.152   7.500   8.657
90625SOL     OW73771   1.394   2.424   4.311
90625SOL    HW173772   1.358   2.509   4.286
90625SOL    HW273773   1.369   2.366   4.240
90626SOL     OW73774  12.644   5.036  10.410
90626SOL    HW173775  12.572   4.974  10.421
90626SOL    HW273776  12.701   5.021  10.486
90627SOL     OW73777  13.422   5.129   6.307
90627SOL    HW173778  13.329   5.113   6.286
90627SOL    HW273779  13.419   5.182   6.387
90628SOL     OW73780   3.541  14.468  14.189
90628SOL    HW173781   3.551  14.414  14.111
90628SOL    HW273782   3.624  14.459  14.235
90629SOL     OW73783   9.508   5.584   1.263
90629SOL    HW173784   9.483   5.514   1.202
90629SOL    HW273785   9.602   5.592   1.253
90630SOL     OW73786   5.028   3.979  13.361
90630SOL    HW173787   5.066   3.892  13.373
90630SOL    HW273788   4.942   3.973  13.403
90631SOL     OW73789   7.634  11.734   9.362
90631SOL    HW173790   7.619  11.645   9.330
90631SOL    HW273791   7.546  11.769   9.378
90632SOL     OW73792   0.505   5.842   6.265
90632SOL    HW173793   0.589   5.831   6.220
90632SOL    HW273794   0.505   5.776   6.334
90633SOL     OW73795   8.054  12.237  10.394
90633SOL    HW173796   7.991  12.232  10.322
90633SOL    HW273797   8.051  12.151  10.435
90634SOL     OW73798   0.935   5.346   9.270
90634SOL    HW173799   0.900   5.304   9.348
90634SOL    HW273800   0.941   5.276   9.205
90635SOL     OW73801   4.876   9.982   5.688
90635SOL    HW173802   4.909   9.939   5.609
90635SOL    HW273803   4.902  10.073   5.678
90636SOL     OW73804  12.641  14.434   4.083
90636SOL    HW173805  12.546  14.434   4.094
90636SOL    HW273806  12.667  14.344   4.104
90637SOL     OW73807   8.556   3.137  10.686
90637SOL    HW173808   8.622   3.206  10.673
90637SOL    HW273809   8.607   3.058  10.702
90638SOL     OW73810   5.281   9.035   0.368
90638SOL    HW173811   5.229   8.978   0.424
90638SOL    HW273812   5.367   9.039   0.411
90639SOL     OW73813   0.838  13.169   3.816
90639SOL    HW173814   0.791  13.177   3.733
90639SOL    HW273815   0.791  13.227   3.876
90640SOL     OW73816   7.492   2.646  13.718
90640SOL    HW173817   7.432   2.580  13.685
90640SOL    HW273818   7.435   2.714  13.755
90641SOL     OW73819   3.493  10.678  11.272
90641SOL    HW173820   3.505  10.670  11.177
90641SOL    HW273821   3.476  10.772  11.286
90642SOL     OW73822   4.056   7.649   2.802
90642SOL    HW173823   4.108   7.660   2.881
90642SOL    HW273824   3.967   7.637   2.833
90643SOL     OW73825  14.299  11.366   6.784
90643SOL    HW173826  14.360  11.422   6.735
90643SOL    HW273827  14.215  11.413   6.779
90644SOL     OW73828  12.595  13.689   3.112
90644SOL    HW173829  12.645  13.771   3.115
90644SOL    HW273830  12.578  13.674   3.019
90645SOL     OW73831   9.170   3.612  14.681
90645SOL    HW173832   9.078   3.626  14.705
90645SOL    HW273833   9.167   3.590  14.588
90646SOL     OW73834   2.090  14.165  10.225
90646SOL    HW173835   2.103  14.175  10.131
90646SOL    HW273836   1.995  14.168  10.237
90647SOL     OW73837   4.716  13.997   7.183
90647SOL    HW173838   4.680  13.979   7.269
90647SOL    HW273839   4.783  13.930   7.170
90648SOL     OW73840   4.873   0.923  12.814
90648SOL    HW173841   4.811   0.987  12.852
90648SOL    HW273842   4.949   0.926  12.873
90649SOL     OW73843   5.197   9.327   4.778
90649SOL    HW173844   5.154   9.402   4.737
90649SOL    HW273845   5.224   9.358   4.864
90650SOL     OW73846  10.189   5.066  11.489
90650SOL    HW173847  10.167   5.092  11.399
90650SOL    HW273848  10.155   4.978  11.497
90651SOL     OW73849  14.112   3.427  11.518
90651SOL    HW173850  14.111   3.334  11.541
90651SOL    HW273851  14.043   3.436  11.452
90652SOL     OW73852  14.186   5.407  14.132
90652SOL    HW173853  14.256   5.433  14.192
90652SOL    HW273854  14.159   5.490  14.091
90653SOL     OW73855   4.041   6.892  11.315
90653SOL    HW173856   4.036   6.915  11.223
90653SOL    HW273857   3.962   6.840  11.332
90654SOL     OW73858  13.171  13.722   5.683
90654SOL    HW173859  13.077  13.708   5.668
90654SOL    HW273860  13.185  13.692   5.773
90655SOL     OW73861   3.163   3.364   4.851
90655SOL    HW173862   3.131   3.373   4.941
90655SOL    HW273863   3.099   3.412   4.798
90656SOL     OW73864   5.537  12.723  13.276
90656SOL    HW173865   5.500  12.712  13.364
90656SOL    HW273866   5.491  12.799  13.240
90657SOL     OW73867  13.835   2.336   6.869
90657SOL    HW173868  13.808   2.427   6.870
90657SOL    HW273869  13.769   2.292   6.815
90658SOL     OW73870  14.015   6.652   8.886
90658SOL    HW173871  13.926   6.632   8.915
90658SOL    HW273872  14.069   6.582   8.922
90659SOL     OW73873   5.370   9.591  12.894
90659SOL    HW173874   5.350   9.522  12.830
90659SOL    HW273875   5.291   9.597  12.948
90660SOL     OW73876   9.079   0.447   5.109
90660SOL    HW173877   9.026   0.368   5.097
90660SOL    HW273878   9.155   0.433   5.052
90661SOL     OW73879   2.317   2.495  12.026
90661SOL    HW173880   2.323   2.591  12.032
90661SOL    HW273881   2.361   2.473  11.944
90662SOL     OW73882   4.280   5.408  12.873
90662SOL    HW173883   4.366   5.372  12.851
90662SOL    HW273884   4.229   5.399  12.793
90663SOL     OW73885   9.749   9.378  12.551
90663SOL    HW173886   9.753   9.439  12.478
90663SOL    HW273887   9.750   9.434  12.629
90664SOL     OW73888   3.168   7.036   5.354
90664SOL    HW173889   3.225   7.110   5.375
90664SOL    HW273890   3.191   6.970   5.420
90665SOL     OW73891  11.246   7.878   8.804
90665SOL    HW173892  11.206   7.792   8.793
90665SOL    HW273893  11.242   7.917   8.717
90666SOL     OW73894  14.866   1.571   9.639
90666SOL    HW173895  14.832   1.482   9.627
90666SOL    HW273896   0.017   1.600   9.550
90667SOL     OW73897   6.146   9.401   1.195
90667SOL    HW173898   6.082   9.333   1.174
90667SOL    HW273899   6.116   9.437   1.278
90668SOL     OW73900   8.348   1.004   0.286
90668SOL    HW173901   8.261   1.020   0.321
90668SOL    HW273902   8.381   0.930   0.337
90669SOL     OW73903   8.617  11.079   2.363
90669SOL    HW173904   8.673  11.001   2.364
90669SOL    HW273905   8.662  11.140   2.305
90670SOL     OW73906  14.072  11.969   3.432
90670SOL    HW173907  14.147  12.026   3.419
90670SOL    HW273908  14.103  11.881   3.409
90671SOL     OW73909   7.176   4.460   2.686
90671SOL    HW173910   7.149   4.504   2.767
90671SOL    HW273911   7.208   4.531   2.630
90672SOL     OW73912  11.926   4.086   0.502
90672SOL    HW173913  11.863   4.155   0.521
90672SOL    HW273914  11.908   4.061   0.411
90673SOL     OW73915   5.293   6.632  13.173
90673SOL    HW173916   5.284   6.540  13.196
90673SOL    HW273917   5.358   6.666  13.234
90674SOL     OW73918   0.701  12.977   8.362
90674SOL    HW173919   0.722  13.027   8.441
90674SOL    HW273920   0.767  13.003   8.298
90675SOL     OW73921   5.615   2.619   6.355
90675SOL    HW173922   5.594   2.661   6.272
90675SOL    HW273923   5.552   2.654   6.417
90676SOL     OW73924   4.742   3.313  12.636
90676SOL    HW173925   4.647   3.323  12.630
90676SOL    HW273926   4.757   3.218  12.627
90677SOL     OW73927  11.878  10.496   3.106
90677SOL    HW173928  11.784  10.484   3.089
90677SOL    HW273929  11.916  10.410   3.089
90678SOL     OW73930   4.056  10.954   3.748
90678SOL    HW173931   3.981  10.998   3.709
90678SOL    HW273932   4.028  10.931   3.836
90679SOL     OW73933   0.559   5.869  10.615
90679SOL    HW173934   0.600   5.858  10.530
90679SOL    HW273935   0.570   5.784  10.658
90680SOL     OW73936   0.196  13.850   4.818
90680SOL    HW173937   0.194  13.767   4.769
90680SOL    HW273938   0.236  13.912   4.757
90681SOL     OW73939  11.960  13.818  14.193
90681SOL    HW173940  11.989  13.884  14.256
90681SOL    HW273941  11.865  13.815  14.203
90682SOL     OW73942   3.656  10.523   9.067
90682SOL    HW173943   3.607  10.602   9.042
90682SOL    HW273944   3.672  10.533   9.160
90683SOL     OW73945   5.014   3.580   3.434
90683SOL    HW173946   5.011   3.580   3.530
90683SOL    HW273947   5.076   3.511   3.412
90684SOL     OW73948  14.305  12.082   2.256
90684SOL    HW173949  14.309  11.991   2.227
90684SOL    HW273950  14.380  12.091   2.315
90685SOL     OW73951   9.681  10.168  11.942
90685SOL    HW173952   9.591  10.136  11.942
90685SOL    HW273953   9.688  10.223  11.864
90686SOL     OW73954  14.672  11.062   5.623
90686SOL    HW173955  14.594  11.060   5.567
90686SOL    HW273956  14.711  11.148   5.607
90687SOL     OW73957  10.669   3.802   7.019
90687SOL    HW173958  10.689   3.890   7.053
90687SOL    HW273959  10.656   3.748   7.097
90688SOL     OW73960   5.111   3.459  12.240
90688SOL    HW173961   5.107   3.404  12.161
90688SOL    HW273962   5.025   3.448  12.281
90689SOL     OW73963   6.268   0.520   3.173
90689SOL    HW173964   6.258   0.529   3.078
90689SOL    HW273965   6.180   0.535   3.208
90690SOL     OW73966  12.636  10.327   7.281
90690SOL    HW173967  12.698  10.352   7.213
90690SOL    HW273968  12.558  10.380   7.261
90691SOL     OW73969  13.809  13.755   3.384
90691SOL    HW173970  13.742  13.813   3.349
90691SOL    HW273971  13.848  13.713   3.307
90692SOL     OW73972  14.511   9.747   3.137
90692SOL    HW173973  14.507   9.688   3.061
90692SOL    HW273974  14.605   9.754   3.156
90693SOL     OW73975  12.093   4.162  11.103
90693SOL    HW173976  12.057   4.251  11.106
90693SOL    HW273977  12.037   4.112  11.163
90694SOL     OW73978   0.204   2.633   2.704
90694SOL    HW173979   0.109   2.623   2.708
90694SOL    HW273980   0.238   2.566   2.764
90695SOL     OW73981   3.876  11.599   2.223
90695SOL    HW173982   3.875  11.639   2.136
90695SOL    HW273983   3.851  11.507   2.207
90696SOL     OW73984   9.998   7.176   7.050
90696SOL    HW173985   9.926   7.219   7.097
90696SOL    HW273986   9.965   7.166   6.961
90697SOL     OW73987  10.568   9.009  12.891
90697SOL    HW173988  10.583   8.917  12.870
90697SOL    HW273989  10.646   9.054  12.859
90698SOL     OW73990  11.606   4.277  11.743
90698SOL    HW173991  11.638   4.339  11.677
90698SOL    HW273992  11.572   4.203  11.693
90699SOL     OW73993   0.413  13.668   3.026
90699SOL    HW173994   0.440  13.617   2.949
90699SOL    HW273995   0.318  13.671   3.020
90700SOL     OW73996   0.149   5.364   7.864
90700SOL    HW173997   0.115   5.420   7.794
90700SOL    HW273998   0.076   5.305   7.885
90701SOL     OW73999  10.266  12.410   0.119
90701SOL    HW174000  10.329  12.464   0.167
90701SOL    HW274001  10.320  12.340   0.080
90702SOL     OW74002  10.523   8.555   5.934
90702SOL    HW174003  10.568   8.499   5.871
90702SOL    HW274004  10.593   8.606   5.975
90703SOL     OW74005   1.362  14.787   3.196
90703SOL    HW174006   1.278  14.811   3.235
90703SOL    HW274007   1.408  14.740   3.266
90704SOL     OW74008   2.057  10.854   4.259
90704SOL    HW174009   2.030  10.941   4.288
90704SOL    HW274010   2.131  10.831   4.315
90705SOL     OW74011   3.918   6.974   5.899
90705SOL    HW174012   3.879   6.981   5.812
90705SOL    HW274013   3.871   7.037   5.952
90706SOL     OW74014   5.575  12.361  13.977
90706SOL    HW174015   5.618  12.318  13.904
90706SOL    HW274016   5.584  12.455  13.959
90707SOL     OW74017   6.707  13.879   9.829
90707SOL    HW174018   6.688  13.840   9.743
90707SOL    HW274019   6.622  13.884   9.872
90708SOL     OW74020  10.150  14.659   6.026
90708SOL    HW174021  10.065  14.617   6.010
90708SOL    HW274022  10.151  14.733   5.966
90709SOL     OW74023   6.745   6.504   8.784
90709SOL    HW174024   6.758   6.468   8.872
90709SOL    HW274025   6.768   6.596   8.793
90710SOL     OW74026   0.827   3.823  12.467
90710SOL    HW174027   0.800   3.749  12.412
90710SOL    HW274028   0.889   3.872  12.413
90711SOL     OW74029   8.729  12.977   0.038
90711SOL    HW174030   8.664  13.032   0.083
90711SOL    HW274031   8.701  12.978  14.819
90712SOL     OW74032   5.343  14.730   4.089
90712SOL    HW174033   5.333  14.779   4.008
90712SOL    HW274034   5.303  14.645   4.071
90713SOL     OW74035   0.670   1.648   5.307
90713SOL    HW174036   0.621   1.572   5.278
90713SOL    HW274037   0.617   1.685   5.377
90714SOL     OW74038  13.639   2.215   1.702
90714SOL    HW174039  13.580   2.223   1.627
90714SOL    HW274040  13.714   2.165   1.669
90715SOL     OW74041   3.617  14.432  11.375
90715SOL    HW174042   3.559  14.508  11.379
90715SOL    HW274043   3.558  14.359  11.352
90716SOL     OW74044   1.096  13.715  14.411
90716SOL    HW174045   1.024  13.687  14.469
90716SOL    HW274046   1.057  13.718  14.324
90717SOL     OW74047  14.099   3.009   9.061
90717SOL    HW174048  14.124   2.932   9.010
90717SOL    HW274049  14.116   2.984   9.152
90718SOL     OW74050   3.277  13.461   7.269
90718SOL    HW174051   3.233  13.545   7.258
90718SOL    HW274052   3.256  13.412   7.189
90719SOL     OW74053   3.270  11.762  11.201
90719SOL    HW174054   3.175  11.761  11.186
90719SOL    HW274055   3.299  11.674  11.175
90720SOL     OW74056  10.509  11.042   7.965
90720SOL    HW174057  10.482  11.064   8.055
90720SOL    HW274058  10.454  10.968   7.941
90721SOL     OW74059  10.445  12.680  14.780
90721SOL    HW174060  10.485  12.602  14.820
90721SOL    HW274061  10.510  12.749  14.793
90722SOL     OW74062  14.203   0.366  11.292
90722SOL    HW174063  14.124   0.387  11.243
90722SOL    HW274064  14.227   0.278  11.261
90723SOL     OW74065   7.634   5.496   9.987
90723SOL    HW174066   7.551   5.476   9.943
90723SOL    HW274067   7.668   5.572   9.940
90724SOL     OW74068  11.389   4.533   6.505
90724SOL    HW174069  11.298   4.563   6.499
90724SOL    HW274070  11.397   4.500   6.594
90725SOL     OW74071   0.494  11.074   3.891
90725SOL    HW174072   0.464  11.163   3.910
90725SOL    HW274073   0.509  11.035   3.977
90726SOL     OW74074   9.172   8.465  10.390
90726SOL    HW174075   9.205   8.418  10.313
90726SOL    HW274076   9.078   8.450  10.388
90727SOL     OW74077   7.648   3.317   1.246
90727SOL    HW174078   7.612   3.384   1.188
90727SOL    HW274079   7.574   3.259   1.263
90728SOL     OW74080   9.190   5.828   9.058
90728SOL    HW174081   9.222   5.738   9.061
90728SOL    HW274082   9.124   5.828   8.988
90729SOL     OW74083   3.647   7.184   9.242
90729SOL    HW174084   3.667   7.265   9.288
90729SOL    HW274085   3.704   7.119   9.282
90730SOL     OW74086   7.921  11.970  10.810
90730SOL    HW174087   7.897  11.902  10.873
90730SOL    HW274088   7.866  12.044  10.833
90731SOL     OW74089  14.169  11.458   8.422
90731SOL    HW174090  14.163  11.527   8.356
90731SOL    HW274091  14.232  11.396   8.385
90732SOL     OW74092   5.544   9.983  12.713
90732SOL    HW174093   5.521   9.971  12.621
90732SOL    HW274094   5.549   9.894  12.749
90733SOL     OW74095   4.779  14.582   6.466
90733SOL    HW174096   4.860  14.555   6.510
90733SOL    HW274097   4.729  14.501   6.455
90734SOL     OW74098   7.904   7.717   8.549
90734SOL    HW174099   7.892   7.812   8.548
90734SOL    HW274100   7.824   7.682   8.587
90735SOL     OW74101   3.727   6.457   5.800
90735SOL    HW174102   3.800   6.519   5.804
90735SOL    HW274103   3.751   6.394   5.733
90736SOL     OW74104   0.316   0.193   4.893
90736SOL    HW174105   0.337   0.160   4.806
90736SOL    HW274106   0.241   0.251   4.880
90737SOL     OW74107   3.770   9.838  13.326
90737SOL    HW174108   3.790   9.827  13.234
90737SOL    HW274109   3.758   9.933  13.337
90738SOL     OW74110   4.040   8.532  13.720
90738SOL    HW174111   4.065   8.486  13.800
90738SOL    HW274112   4.089   8.488  13.651
90739SOL     OW74113   9.390   4.354  14.056
90739SOL    HW174114   9.395   4.409  13.978
90739SOL    HW274115   9.312   4.300  14.042
90740SOL     OW74116  12.628  10.572  10.082
90740SOL    HW174117  12.687  10.512  10.036
90740SOL    HW274118  12.545  10.525  10.086
90741SOL     OW74119  11.927   5.646  10.417
90741SOL    HW174120  11.920   5.668  10.324
90741SOL    HW274121  11.837   5.646  10.449
90742SOL     OW74122   7.488   1.687  14.825
90742SOL    HW174123   7.543   1.699  14.748
90742SOL    HW274124   7.469   1.775  14.856
90743SOL     OW74125  11.980   6.300   1.129
90743SOL    HW174126  11.904   6.356   1.111
90743SOL    HW274127  12.023   6.342   1.203
90744SOL     OW74128   9.929   0.223   8.752
90744SOL    HW174129   9.866   0.243   8.683
90744SOL    HW274130   9.955   0.308   8.786
90745SOL     OW74131   1.508   7.380   7.245
90745SOL    HW174132   1.463   7.408   7.324
90745SOL    HW274133   1.572   7.316   7.275
90746SOL     OW74134  14.731  12.412   7.519
90746SOL    HW174135  14.721  12.326   7.476
90746SOL    HW274136  14.719  12.393   7.612
90747SOL     OW74137   2.653   1.480   9.490
90747SOL    HW174138   2.657   1.550   9.425
90747SOL    HW274139   2.713   1.413   9.457
90748SOL     OW74140   4.600   7.688  14.217
90748SOL    HW174141   4.572   7.597  14.218
90748SOL    HW274142   4.520   7.737  14.198
90749SOL     OW74143   1.923   1.059  12.914
90749SOL    HW174144   1.885   1.041  13.000
90749SOL    HW274145   1.858   1.026  12.852
90750SOL     OW74146  14.531  12.388   5.486
90750SOL    HW174147  14.526  12.448   5.412
90750SOL    HW274148  14.616  12.407   5.528
90751SOL     OW74149   6.443   4.377   8.060
90751SOL    HW174150   6.404   4.464   8.057
90751SOL    HW274151   6.437   4.350   8.151
90752SOL     OW74152  10.302   9.220   4.856
90752SOL    HW174153  10.334   9.206   4.946
90752SOL    HW274154  10.305   9.315   4.844
90753SOL     OW74155  12.539  13.289  10.089
90753SOL    HW174156  12.634  13.292  10.102
90753SOL    HW274157  12.506  13.368  10.131
90754SOL     OW74158  14.498  12.652   6.143
90754SOL    HW174159  14.406  12.678   6.134
90754SOL    HW274160  14.546  12.735   6.153
90755SOL     OW74161  13.806   3.943   2.072
90755SOL    HW174162  13.789   3.851   2.056
90755SOL    HW274163  13.743   3.989   2.017
90756SOL     OW74164   9.682  10.425   4.018
90756SOL    HW174165   9.751  10.488   4.039
90756SOL    HW274166   9.632  10.417   4.100
90757SOL     OW74167   5.167   7.127   4.694
90757SOL    HW174168   5.204   7.206   4.733
90757SOL    HW274169   5.114   7.088   4.763
90758SOL     OW74170   7.763   2.156   7.059
90758SOL    HW174171   7.736   2.065   7.045
90758SOL    HW274172   7.778   2.162   7.153
90759SOL     OW74173   7.411   5.312   2.672
90759SOL    HW174174   7.402   5.219   2.649
90759SOL    HW274175   7.478   5.345   2.612
90760SOL     OW74176  11.836   6.925   8.213
90760SOL    HW174177  11.913   6.871   8.195
90760SOL    HW274178  11.778   6.867   8.263
90761SOL     OW74179   0.402   2.174   9.072
90761SOL    HW174180   0.338   2.214   9.131
90761SOL    HW274181   0.449   2.110   9.126
90762SOL     OW74182   2.186   8.700   5.400
90762SOL    HW174183   2.239   8.746   5.465
90762SOL    HW274184   2.249   8.674   5.333
90763SOL     OW74185  12.145  14.871   8.275
90763SOL    HW174186  12.094   0.042   8.206
90763SOL    HW274187  12.201   0.068   8.310
90764SOL     OW74188  14.352   1.263  11.713
90764SOL    HW174189  14.305   1.223  11.640
90764SOL    HW274190  14.284   1.290  11.774
90765SOL     OW74191  14.717  13.930   8.932
90765SOL    HW174192  14.813  13.938   8.934
90765SOL    HW274193  14.689  13.960   9.018
90766SOL     OW74194  13.298  11.189   7.758
90766SOL    HW174195  13.385  11.215   7.729
90766SOL    HW274196  13.314  11.133   7.834
90767SOL     OW74197   4.224   1.700   5.224
90767SOL    HW174198   4.178   1.727   5.145
90767SOL    HW274199   4.302   1.756   5.227
90768SOL     OW74200   5.890  11.768   1.206
90768SOL    HW174201   5.894  11.740   1.298
90768SOL    HW274202   5.966  11.824   1.195
90769SOL     OW74203   6.605   2.829   7.121
90769SOL    HW174204   6.590   2.736   7.108
90769SOL    HW274205   6.698   2.842   7.100
90770SOL     OW74206  11.597  10.613   7.209
90770SOL    HW174207  11.678  10.621   7.259
90770SOL    HW274208  11.624  10.622   7.118
90771SOL     OW74209   8.398   2.911  10.570
90771SOL    HW174210   8.354   2.851  10.629
90771SOL    HW274211   8.391   2.996  10.612
90772SOL     OW74212  13.766   6.007  13.193
90772SOL    HW174213  13.770   6.011  13.288
90772SOL    HW274214  13.855   5.982  13.167
90773SOL     OW74215   9.641  12.342   0.781
90773SOL    HW174216   9.735  12.329   0.776
90773SOL    HW274217   9.612  12.351   0.690
90774SOL     OW74218   1.382   9.869   4.565
90774SOL    HW174219   1.414   9.802   4.504
90774SOL    HW274220   1.356   9.821   4.643
90775SOL     OW74221   1.033   3.651   9.165
90775SOL    HW174222   1.001   3.729   9.120
90775SOL    HW274223   1.056   3.590   9.094
90776SOL     OW74224   9.447  11.653   6.770
90776SOL    HW174225   9.438  11.744   6.740
90776SOL    HW274226   9.484  11.607   6.695
90777SOL     OW74227   3.328  10.318   6.469
90777SOL    HW174228   3.376  10.328   6.552
90777SOL    HW274229   3.250  10.373   6.479
90778SOL     OW74230   6.433   8.259   9.390
90778SOL    HW174231   6.458   8.213   9.470
90778SOL    HW274232   6.410   8.189   9.329
90779SOL     OW74233  12.310  12.063   4.416
90779SOL    HW174234  12.346  11.988   4.370
90779SOL    HW274235  12.257  12.108   4.349
90780SOL     OW74236   5.193  10.965   3.091
90780SOL    HW174237   5.250  10.921   3.027
90780SOL    HW274238   5.184  11.054   3.058
90781SOL     OW74239   5.566   1.525  10.907
90781SOL    HW174240   5.660   1.508  10.897
90781SOL    HW274241   5.552   1.525  11.002
90782SOL     OW74242   7.732  11.906   1.657
90782SOL    HW174243   7.708  11.814   1.650
90782SOL    HW274244   7.787  11.923   1.581
90783SOL     OW74245   7.399  12.950   2.989
90783SOL    HW174246   7.465  12.896   3.033
90783SOL    HW274247   7.337  12.972   3.058
90784SOL     OW74248   1.627   8.322   4.478
90784SOL    HW174249   1.649   8.408   4.441
90784SOL    HW274250   1.695   8.264   4.443
90785SOL     OW74251   4.872  10.198   6.681
90785SOL    HW174252   4.812  10.219   6.753
90785SOL    HW274253   4.824  10.223   6.602
90786SOL     OW74254  12.016   1.774   6.806
90786SOL    HW174255  11.974   1.706   6.754
90786SOL    HW274256  12.110   1.761   6.793
90787SOL     OW74257   7.977   3.169  14.296
90787SOL    HW174258   8.003   3.084  14.259
90787SOL    HW274259   7.965   3.226  14.220
90788SOL     OW74260   7.802   2.048  12.847
90788SOL    HW174261   7.889   2.032  12.883
90788SOL    HW274262   7.814   2.042  12.752
90789SOL     OW74263  13.503  10.398  11.540
90789SOL    HW174264  13.589  10.440  11.536
90789SOL    HW274265  13.442  10.469  11.560
90790SOL     OW74266   9.451   1.108   2.513
90790SOL    HW174267   9.391   1.033   2.511
90790SOL    HW274268   9.494   1.107   2.427
90791SOL     OW74269  13.535   7.726   0.174
90791SOL    HW174270  13.629   7.735   0.193
90791SOL    HW274271  13.491   7.768   0.247
90792SOL     OW74272  14.534   7.823  10.100
90792SOL    HW174273  14.555   7.904  10.148
90792SOL    HW274274  14.613   7.769  10.110
90793SOL     OW74275  10.978   0.817  13.998
90793SOL    HW174276  10.981   0.890  14.059
90793SOL    HW274277  11.050   0.760  14.024
90794SOL     OW74278   3.176   1.518   3.335
90794SOL    HW174279   3.217   1.549   3.254
90794SOL    HW274280   3.236   1.546   3.404
90795SOL     OW74281   9.743  11.965   9.599
90795SOL    HW174282   9.733  12.004   9.513
90795SOL    HW274283   9.837  11.958   9.612
90796SOL     OW74284   5.516  14.552   1.552
90796SOL    HW174285   5.478  14.629   1.595
90796SOL    HW274286   5.581  14.589   1.491
90797SOL     OW74287   6.427   6.281   5.183
90797SOL    HW174288   6.445   6.199   5.229
90797SOL    HW274289   6.350   6.318   5.227
90798SOL     OW74290   0.434   5.870   3.986
90798SOL    HW174291   0.512   5.906   3.944
90798SOL    HW274292   0.468   5.810   4.052
90799SOL     OW74293   8.626  14.039  11.083
90799SOL    HW174294   8.595  14.036  11.173
90799SOL    HW274295   8.614  14.131  11.057
90800SOL     OW74296   9.666  13.082  10.413
90800SOL    HW174297   9.652  12.988  10.401
90800SOL    HW274298   9.596  13.123  10.363
90801SOL     OW74299  12.064   3.014   4.736
90801SOL    HW174300  11.982   3.011   4.786
90801SOL    HW274301  12.113   3.086   4.776
90802SOL     OW74302   4.652   9.207  12.958
90802SOL    HW174303   4.630   9.227  12.867
90802SOL    HW274304   4.691   9.287  12.992
90803SOL     OW74305   7.126   9.812   2.800
90803SOL    HW174306   7.103   9.847   2.885
90803SOL    HW274307   7.060   9.745   2.782
90804SOL     OW74308   2.035   0.002   0.003
90804SOL    HW174309   2.124  14.861   0.036
90804SOL    HW274310   2.038   0.086  14.830
90805SOL     OW74311  11.454   9.469  10.333
90805SOL    HW174312  11.500   9.548  10.305
90805SOL    HW274313  11.523   9.408  10.358
90806SOL     OW74314  13.324   8.136   7.931
90806SOL    HW174315  13.282   8.187   8.000
90806SOL    HW274316  13.403   8.100   7.972
90807SOL     OW74317   6.711  12.674  14.735
90807SOL    HW174318   6.737  12.691  14.826
90807SOL    HW274319   6.715  12.578  14.727
90808SOL     OW74320   4.862   5.747   0.060
90808SOL    HW174321   4.921   5.757  14.857
90808SOL    HW274322   4.775   5.750   0.021
90809SOL     OW74323  10.982  11.490   1.703
90809SOL    HW174324  10.901  11.539   1.684
90809SOL    HW274325  11.042  11.515   1.633
90810SOL     OW74326  14.252   2.403  12.505
90810SOL    HW174327  14.197   2.471  12.544
90810SOL    HW274328  14.294   2.360  12.579
90811SOL     OW74329   3.226   8.847   1.471
90811SOL    HW174330   3.307   8.825   1.517
90811SOL    HW274331   3.168   8.774   1.490
90812SOL     OW74332   7.563   7.353  10.682
90812SOL    HW174333   7.487   7.309  10.719
90812SOL    HW274334   7.605   7.287  10.627
90813SOL     OW74335   1.280   5.075   9.393
90813SOL    HW174336   1.246   5.165   9.386
90813SOL    HW274337   1.207   5.025   9.429
90814SOL     OW74338  11.711   7.402   7.385
90814SOL    HW174339  11.692   7.393   7.478
90814SOL    HW274340  11.718   7.497   7.370
90815SOL     OW74341   5.484   4.802   9.731
90815SOL    HW174342   5.406   4.761   9.770
90815SOL    HW274343   5.558   4.761   9.776
90816SOL     OW74344   8.189   1.204  11.232
90816SOL    HW174345   8.104   1.247  11.248
90816SOL    HW274346   8.253   1.261  11.273
90817SOL     OW74347   7.952   6.872  11.804
90817SOL    HW174348   7.872   6.922  11.817
90817SOL    HW274349   7.984   6.900  11.718
90818SOL     OW74350   6.317   7.247  14.577
90818SOL    HW174351   6.237   7.239  14.629
90818SOL    HW274352   6.307   7.183  14.507
90819SOL     OW74353   4.253   6.316  12.341
90819SOL    HW174354   4.334   6.366  12.348
90819SOL    HW274355   4.200   6.365  12.279
90820SOL     OW74356   8.685   1.997  11.744
90820SOL    HW174357   8.707   1.920  11.692
90820SOL    HW274358   8.753   2.000  11.812
90821SOL     OW74359   9.409   0.149   5.593
90821SOL    HW174360   9.369   0.076   5.640
90821SOL    HW274361   9.432   0.212   5.661
90822SOL     OW74362  10.632   5.708   0.258
90822SOL    HW174363  10.701   5.647   0.284
90822SOL    HW274364  10.589   5.664   0.184
90823SOL     OW74365   7.688   4.148   1.838
90823SOL    HW174366   7.779   4.171   1.857
90823SOL    HW274367   7.650   4.127   1.924
90824SOL     OW74368   3.044   6.643   0.298
90824SOL    HW174369   2.990   6.570   0.268
90824SOL    HW274370   2.993   6.721   0.278
90825SOL     OW74371   7.452   4.724  13.782
90825SOL    HW174372   7.379   4.744  13.724
90825SOL    HW274373   7.437   4.635  13.811
90826SOL     OW74374  10.269  10.725   0.130
90826SOL    HW174375  10.318  10.646   0.105
90826SOL    HW274376  10.182  10.712   0.093
90827SOL     OW74377   3.518   0.812  11.885
90827SOL    HW174378   3.519   0.886  11.824
90827SOL    HW274379   3.441   0.828  11.940
90828SOL     OW74380   8.792  13.257   4.356
90828SOL    HW174381   8.850  13.181   4.357
90828SOL    HW274382   8.757  13.259   4.267
90829SOL     OW74383   3.635  14.019  13.056
90829SOL    HW174384   3.586  14.101  13.060
90829SOL    HW274385   3.700  14.032  12.988
90830SOL     OW74386  13.798  12.750   3.628
90830SOL    HW174387  13.872  12.693   3.607
90830SOL    HW274388  13.789  12.807   3.551
90831SOL     OW74389   3.720   7.380   7.024
90831SOL    HW174390   3.782   7.432   6.972
90831SOL    HW274391   3.634   7.415   7.001
90832SOL     OW74392   4.466  14.715  10.581
90832SOL    HW174393   4.475  14.641  10.641
90832SOL    HW274394   4.494  14.791  10.632
90833SOL     OW74395  10.619  14.031   3.397
90833SOL    HW174396  10.708  14.029   3.361
90833SOL    HW274397  10.562  14.009   3.323
90834SOL     OW74398   3.981   6.307   8.337
90834SOL    HW174399   3.887   6.304   8.319
90834SOL    HW274400   3.992   6.258   8.419
90835SOL     OW74401   0.676   7.394   3.925
90835SOL    HW174402   0.590   7.411   3.888
90835SOL    HW274403   0.663   7.396   4.019
90836SOL     OW74404  14.039  14.793   2.908
90836SOL    HW174405  14.095  14.820   2.980
90836SOL    HW274406  14.100  14.774   2.836
90837SOL     OW74407  13.701   0.944  12.114
90837SOL    HW174408  13.764   1.016  12.114
90837SOL    HW274409  13.620   0.983  12.146
90838SOL     OW74410  12.904   0.328  14.297
90838SOL    HW174411  12.896   0.246  14.346
90838SOL    HW274412  12.952   0.386  14.356
90839SOL     OW74413  13.812   9.833   0.308
90839SOL    HW174414  13.851   9.917   0.285
90839SOL    HW274415  13.871   9.768   0.270
90840SOL     OW74416   3.028   5.831   3.766
90840SOL    HW174417   3.020   5.736   3.760
90840SOL    HW274418   3.107   5.847   3.817
90841SOL     OW74419  12.908  13.715   6.974
90841SOL    HW174420  12.950  13.740   7.057
90841SOL    HW274421  12.825  13.675   7.001
90842SOL     OW74422  11.003   6.499  12.702
90842SOL    HW174423  10.912   6.529  12.704
90842SOL    HW274424  11.026   6.497  12.610
90843SOL     OW74425  11.068   6.744  12.463
90843SOL    HW174426  11.163   6.731  12.456
90843SOL    HW274427  11.058   6.833  12.496
90844SOL     OW74428   5.024  10.591  11.138
90844SOL    HW174429   5.025  10.501  11.170
90844SOL    HW274430   4.953  10.594  11.074
90845SOL     OW74431  10.368  13.116  12.664
90845SOL    HW174432  10.356  13.163  12.582
90845SOL    HW274433  10.430  13.046  12.643
90846SOL     OW74434  12.471   5.170  11.631
90846SOL    HW174435  12.545   5.110  11.634
90846SOL    HW274436  12.444   5.179  11.723
90847SOL     OW74437  11.088   1.146   7.441
90847SOL    HW174438  11.182   1.150   7.429
90847SOL    HW274439  11.051   1.177   7.359
90848SOL     OW74440   3.562  14.254   1.920
90848SOL    HW174441   3.549  14.188   1.989
90848SOL    HW274442   3.634  14.309   1.952
90849SOL     OW74443   9.773   0.338  11.851
90849SOL    HW174444   9.719   0.387  11.788
90849SOL    HW274445   9.761   0.246  11.827
90850SOL     OW74446   8.930   7.133   6.652
90850SOL    HW174447   8.963   7.187   6.723
90850SOL    HW274448   8.847   7.098   6.685
90851SOL     OW74449   6.309   9.802   3.917
90851SOL    HW174450   6.316   9.749   3.838
90851SOL    HW274451   6.216   9.800   3.941
90852SOL     OW74452   2.046   2.418   3.090
90852SOL    HW174453   1.953   2.418   3.115
90852SOL    HW274454   2.047   2.458   3.003
90853SOL     OW74455  11.474   1.825  13.465
90853SOL    HW174456  11.570   1.831  13.472
90853SOL    HW274457  11.442   1.900  13.515
90854SOL     OW74458  12.040   2.265   7.642
90854SOL    HW174459  12.064   2.308   7.724
90854SOL    HW274460  12.096   2.187   7.639
90855SOL     OW74461  11.462  14.823   2.683
90855SOL    HW174462  11.395  14.829   2.751
90855SOL    HW274463  11.466   0.039   2.646
90856SOL     OW74464   1.559  11.331  11.109
90856SOL    HW174465   1.593  11.280  11.035
90856SOL    HW274466   1.536  11.415  11.071
90857SOL     OW74467  14.343  10.958   6.786
90857SOL    HW174468  14.361  10.876   6.831
90857SOL    HW274469  14.247  10.961   6.779
90858SOL     OW74470   9.007  10.034   2.950
90858SOL    HW174471   9.012  10.126   2.925
90858SOL    HW274472   8.994  10.036   3.045
90859SOL     OW74473  13.213   2.058  11.512
90859SOL    HW174474  13.211   2.146  11.549
90859SOL    HW274475  13.218   2.000  11.588
90860SOL     OW74476   1.405   5.282   7.984
90860SOL    HW174477   1.479   5.323   7.939
90860SOL    HW274478   1.382   5.343   8.054
90861SOL     OW74479   1.649   6.238   1.891
90861SOL    HW174480   1.701   6.221   1.970
90861SOL    HW274481   1.604   6.321   1.910
90862SOL     OW74482   1.917  10.728  13.182
90862SOL    HW174483   1.938  10.772  13.099
90862SOL    HW274484   1.991  10.748  13.239
90863SOL     OW74485  12.791  11.582   6.209
90863SOL    HW174486  12.752  11.670   6.218
90863SOL    HW274487  12.733  11.537   6.147
90864SOL     OW74488   8.312  13.311  12.938
90864SOL    HW174489   8.226  13.270  12.925
90864SOL    HW274490   8.308  13.391  12.885
90865SOL     OW74491   7.796  12.008   8.429
90865SOL    HW174492   7.748  12.076   8.381
90865SOL    HW274493   7.842  11.959   8.361
90866SOL     OW74494   0.536   3.580  14.179
90866SOL    HW174495   0.574   3.503  14.220
90866SOL    HW274496   0.442   3.568  14.188
90867SOL     OW74497  10.792   8.088   4.474
90867SOL    HW174498  10.767   8.127   4.390
90867SOL    HW274499  10.746   8.004   4.475
90868SOL     OW74500   6.512   1.575  13.221
90868SOL    HW174501   6.598   1.604  13.251
90868SOL    HW274502   6.523   1.481  13.206
90869SOL     OW74503   8.183   7.021   7.873
90869SOL    HW174504   8.091   7.042   7.883
90869SOL    HW274505   8.228   7.078   7.935
90870SOL     OW74506   5.042   1.247   3.385
90870SOL    HW174507   4.979   1.314   3.413
90870SOL    HW274508   4.991   1.188   3.329
90871SOL     OW74509   5.034  10.495   7.777
90871SOL    HW174510   5.057  10.403   7.766
90871SOL    HW274511   5.113  10.535   7.814
90872SOL     OW74512  10.943   9.263  12.347
90872SOL    HW174513  10.943   9.178  12.392
90872SOL    HW274514  10.868   9.258  12.287
90873SOL     OW74515  13.201  10.593  13.939
90873SOL    HW174516  13.120  10.629  13.974
90873SOL    HW274517  13.251  10.669  13.909
90874SOL     OW74518   5.965  14.150   1.168
90874SOL    HW174519   5.928  14.068   1.200
90874SOL    HW274520   6.052  14.155   1.209
90875SOL     OW74521   4.549  11.712   7.315
90875SOL    HW174522   4.516  11.678   7.398
90875SOL    HW274523   4.474  11.756   7.275
90876SOL     OW74524  13.620  13.250  14.193
90876SOL    HW174525  13.616  13.320  14.128
90876SOL    HW274526  13.549  13.270  14.255
90877SOL     OW74527   0.768   2.950   1.938
90877SOL    HW174528   0.695   2.954   1.875
90877SOL    HW274529   0.840   2.911   1.888
90878SOL     OW74530   2.037   8.133  12.143
90878SOL    HW174531   2.058   8.224  12.120
90878SOL    HW274532   1.995   8.139  12.229
90879SOL     OW74533  11.243   3.579  10.697
90879SOL    HW174534  11.245   3.550  10.788
90879SOL    HW274535  11.150   3.591  10.677
90880SOL     OW74536   5.809   3.390   0.402
90880SOL    HW174537   5.724   3.428   0.426
90880SOL    HW274538   5.831   3.431   0.318
90881SOL     OW74539  10.674   9.326  14.845
90881SOL    HW174540  10.742   9.262  14.823
90881SOL    HW274541  10.597   9.297  14.795
90882SOL     OW74542   2.345  12.551  12.922
90882SOL    HW174543   2.270  12.514  12.969
90882SOL    HW274544   2.413  12.560  12.989
90883SOL     OW74545   1.427   9.881  11.597
90883SOL    HW174546   1.486   9.806  11.600
90883SOL    HW274547   1.341   9.844  11.618
90884SOL     OW74548   0.191   5.768  13.185
90884SOL    HW174549   0.195   5.811  13.100
90884SOL    HW274550   0.097   5.759  13.203
90885SOL     OW74551  14.560   9.023   4.194
90885SOL    HW174552  14.511   8.967   4.255
90885SOL    HW274553  14.497   9.046   4.126
90886SOL     OW74554  12.291  12.638  13.352
90886SOL    HW174555  12.202  12.634  13.388
90886SOL    HW274556  12.345  12.669  13.425
90887SOL     OW74557   7.156   1.188  11.384
90887SOL    HW174558   7.247   1.191  11.357
90887SOL    HW274559   7.138   1.275  11.421
90888SOL     OW74560   0.093   9.436   3.958
90888SOL    HW174561   0.185   9.463   3.960
90888SOL    HW274562   0.047   9.510   3.916
90889SOL     OW74563   8.848   6.177   7.275
90889SOL    HW174564   8.878   6.189   7.365
90889SOL    HW274565   8.888   6.095   7.246
90890SOL     OW74566   3.836  14.102  14.636
90890SOL    HW174567   3.866  14.110  14.545
90890SOL    HW274568   3.865  14.182  14.678
90891SOL     OW74569  12.009   0.073   0.880
90891SOL    HW174570  11.970   0.019   0.948
90891SOL    HW274571  12.103   0.055   0.885
90892SOL     OW74572   3.455   8.114   5.155
90892SOL    HW174573   3.362   8.133   5.155
90892SOL    HW274574   3.467   8.049   5.224
90893SOL     OW74575   7.673  11.562  11.029
90893SOL    HW174576   7.753  11.613  11.022
90893SOL    HW274577   7.604  11.621  10.999
90894SOL     OW74578  13.609   1.933  14.390
90894SOL    HW174579  13.658   1.887  14.458
90894SOL    HW274580  13.677   1.964  14.329
90895SOL     OW74581  13.214   2.492  12.555
90895SOL    HW174582  13.129   2.477  12.513
90895SOL    HW274583  13.197   2.557  12.623
90896SOL     OW74584   8.083   5.443   6.817
90896SOL    HW174585   8.032   5.419   6.740
90896SOL    HW274586   8.083   5.538   6.817
90897SOL     OW74587   8.778  11.271   1.763
90897SOL    HW174588   8.713  11.340   1.744
90897SOL    HW274589   8.860  11.319   1.774
90898SOL     OW74590   6.347   4.003   9.479
90898SOL    HW174591   6.396   3.924   9.457
90898SOL    HW274592   6.393   4.039   9.556
90899SOL     OW74593  12.029   7.258   4.206
90899SOL    HW174594  12.014   7.254   4.111
90899SOL    HW274595  12.061   7.346   4.221
90900SOL     OW74596  11.513  12.358   5.328
90900SOL    HW174597  11.565  12.284   5.361
90900SOL    HW274598  11.569  12.434   5.341
90901SOL     OW74599   5.135   6.994   8.490
90901SOL    HW174600   5.193   7.023   8.420
90901SOL    HW274601   5.162   6.903   8.507
90902SOL     OW74602   6.840   3.414  10.267
90902SOL    HW174603   6.864   3.506  10.260
90902SOL    HW274604   6.882   3.383  10.347
90903SOL     OW74605  12.010  10.160   9.538
90903SOL    HW174606  11.944  10.210   9.588
90903SOL    HW274607  12.040  10.093   9.599
90904SOL     OW74608   0.074  12.874  12.128
90904SOL    HW174609   0.119  12.790  12.139
90904SOL    HW274610   0.026  12.866  12.046
90905SOL     OW74611   2.180   8.406   4.129
90905SOL    HW174612   2.092   8.427   4.098
90905SOL    HW274613   2.172   8.317   4.164
90906SOL     OW74614   9.801   6.217   0.836
90906SOL    HW174615   9.880   6.236   0.885
90906SOL    HW274616   9.796   6.285   0.770
90907SOL     OW74617   7.767   5.314  11.917
90907SOL    HW174618   7.726   5.357  11.992
90907SOL    HW274619   7.698   5.309  11.851
90908SOL     OW74620  12.090   9.225   9.998
90908SOL    HW174621  12.001   9.247   9.969
90908SOL    HW274622  12.098   9.266  10.084
90909SOL     OW74623   1.548   1.822   4.508
90909SOL    HW174624   1.513   1.910   4.520
90909SOL    HW274625   1.640   1.835   4.486
90910SOL     OW74626   4.034   1.823   5.921
90910SOL    HW174627   4.056   1.753   5.860
90910SOL    HW274628   4.019   1.778   6.004
90911SOL     OW74629   8.236   9.820   9.462
90911SOL    HW174630   8.279   9.804   9.379
90911SOL    HW274631   8.262   9.747   9.518
90912SOL     OW74632   9.995  11.591  14.155
90912SOL    HW174633  10.059  11.661  14.161
90912SOL    HW274634   9.918  11.624  14.200
90913SOL     OW74635   5.192   8.566   1.732
90913SOL    HW174636   5.111   8.527   1.698
90913SOL    HW274637   5.235   8.601   1.654
90914SOL     OW74638   2.567   6.124   5.822
90914SOL    HW174639   2.515   6.079   5.889
90914SOL    HW274640   2.609   6.196   5.869
90915SOL     OW74641   1.658   2.738   7.168
90915SOL    HW174642   1.673   2.833   7.166
90915SOL    HW274643   1.663   2.715   7.261
90916SOL     OW74644  14.368   2.853   1.580
90916SOL    HW174645  14.361   2.948   1.564
90916SOL    HW274646  14.362   2.814   1.493
90917SOL     OW74647   4.715   8.899  12.006
90917SOL    HW174648   4.768   8.963  12.053
90917SOL    HW274649   4.672   8.950  11.937
90918SOL     OW74650  10.920  11.903  10.682
90918SOL    HW174651  10.924  11.847  10.760
90918SOL    HW274652  11.009  11.900  10.647
90919SOL     OW74653   7.105   6.079   0.543
90919SOL    HW174654   7.071   6.076   0.454
90919SOL    HW274655   7.027   6.087   0.598
90920SOL     OW74656   0.529   5.547   4.883
90920SOL    HW174657   0.487   5.630   4.907
90920SOL    HW274658   0.530   5.497   4.965
90921SOL     OW74659   3.231   8.367   7.507
90921SOL    HW174660   3.323   8.352   7.488
90921SOL    HW274661   3.201   8.425   7.436
90922SOL     OW74662   4.430   3.652   8.276
90922SOL    HW174663   4.498   3.669   8.341
90922SOL    HW274664   4.475   3.658   8.192
90923SOL     OW74665  11.351   6.215   2.734
90923SOL    HW174666  11.265   6.182   2.707
90923SOL    HW274667  11.333   6.303   2.767
90924SOL     OW74668   1.815   2.223   5.075
90924SOL    HW174669   1.787   2.156   5.012
90924SOL    HW274670   1.784   2.192   5.159
90925SOL     OW74671   8.867   8.038   0.274
90925SOL    HW174672   8.806   8.039   0.347
90925SOL    HW274673   8.820   8.081   0.203
90926SOL     OW74674   6.540  14.595   0.889
90926SOL    HW174675   6.588  14.676   0.908
90926SOL    HW274676   6.606  14.536   0.854
90927SOL     OW74677  11.580   3.522  14.222
90927SOL    HW174678  11.572   3.432  14.255
90927SOL    HW274679  11.674   3.539  14.225
90928SOL     OW74680  11.622  11.427   8.068
90928SOL    HW174681  11.614  11.336   8.040
90928SOL    HW274682  11.652  11.423   8.158
90929SOL     OW74683  10.195   5.386   6.685
90929SOL    HW174684  10.165   5.310   6.635
90929SOL    HW274685  10.114   5.432   6.709
90930SOL     OW74686   4.249   4.473   3.711
90930SOL    HW174687   4.197   4.392   3.712
90930SOL    HW274688   4.198   4.534   3.657
90931SOL     OW74689   6.613   0.712   1.525
90931SOL    HW174690   6.583   0.685   1.612
90931SOL    HW274691   6.693   0.762   1.542
90932SOL     OW74692  14.327   4.216   6.226
90932SOL    HW174693  14.355   4.187   6.313
90932SOL    HW274694  14.388   4.174   6.166
90933SOL     OW74695  14.467   8.579   1.856
90933SOL    HW174696  14.388   8.626   1.882
90933SOL    HW274697  14.530   8.648   1.836
90934SOL     OW74698  13.580   4.125   3.456
90934SOL    HW174699  13.649   4.089   3.512
90934SOL    HW274700  13.627   4.159   3.380
90935SOL     OW74701   9.831  14.070   1.760
90935SOL    HW174702   9.776  14.006   1.715
90935SOL    HW274703   9.806  14.063   1.852
90936SOL     OW74704   0.207   3.623   6.350
90936SOL    HW174705   0.260   3.611   6.272
90936SOL    HW274706   0.139   3.685   6.324
90937SOL     OW74707   7.181  12.613   2.668
90937SOL    HW174708   7.156  12.611   2.760
90937SOL    HW274709   7.267  12.571   2.666
90938SOL     OW74710  14.682   5.720   1.920
90938SOL    HW174711  14.602   5.764   1.890
90938SOL    HW274712  14.676   5.632   1.882
90939SOL     OW74713  13.463   9.356   3.545
90939SOL    HW174714  13.495   9.310   3.467
90939SOL    HW274715  13.469   9.449   3.523
90940SOL     OW74716   0.098   7.955  12.117
90940SOL    HW174717   0.018   7.964  12.066
90940SOL    HW274718   0.124   7.863  12.106
90941SOL     OW74719   5.125   4.144   5.881
90941SOL    HW174720   5.209   4.117   5.846
90941SOL    HW274721   5.073   4.063   5.882
90942SOL     OW74722  11.092   7.032   2.143
90942SOL    HW174723  11.059   7.090   2.211
90942SOL    HW274724  11.013   6.996   2.102
90943SOL     OW74725  12.829   2.530   4.929
90943SOL    HW174726  12.778   2.466   4.978
90943SOL    HW274727  12.767   2.600   4.907
90944SOL     OW74728  11.649   9.259   1.805
90944SOL    HW174729  11.678   9.334   1.753
90944SOL    HW274730  11.616   9.196   1.740
90945SOL     OW74731   0.102   6.703   2.416
90945SOL    HW174732   0.051   6.688   2.337
90945SOL    HW274733   0.138   6.617   2.439
90946SOL     OW74734   0.933  12.022  12.406
90946SOL    HW174735   0.981  11.985  12.332
90946SOL    HW274736   0.891  12.100  12.371
90947SOL     OW74737   0.274   8.639  14.680
90947SOL    HW174738   0.296   8.549  14.702
90947SOL    HW274739   0.235   8.674  14.760
90948SOL     OW74740   9.166   9.475   5.257
90948SOL    HW174741   9.137   9.384   5.254
90948SOL    HW274742   9.159   9.505   5.166
90949SOL     OW74743  11.726   3.229  10.795
90949SOL    HW174744  11.702   3.136  10.793
90949SOL    HW274745  11.789   3.236  10.867
90950SOL     OW74746   2.177   8.773   9.659
90950SOL    HW174747   2.085   8.751   9.644
90950SOL    HW274748   2.192   8.756   9.752
90951SOL     OW74749   4.145   3.377   9.629
90951SOL    HW174750   4.154   3.315   9.701
90951SOL    HW274751   4.222   3.363   9.574
90952SOL     OW74752  11.631  12.709   8.976
90952SOL    HW174753  11.681  12.665   9.044
90952SOL    HW274754  11.648  12.659   8.897
90953SOL     OW74755   6.529   3.550   5.537
90953SOL    HW174756   6.516   3.458   5.560
90953SOL    HW274757   6.447   3.593   5.562
90954SOL     OW74758  11.973   9.062   2.899
90954SOL    HW174759  12.035   8.994   2.876
90954SOL    HW274760  11.891   9.036   2.857
90955SOL     OW74761  14.511   9.689   8.035
90955SOL    HW174762  14.541   9.737   8.113
90955SOL    HW274763  14.465   9.755   7.983
90956SOL     OW74764   3.233   6.436   8.620
90956SOL    HW174765   3.238   6.413   8.527
90956SOL    HW274766   3.277   6.365   8.665
90957SOL     OW74767   2.859   8.134   9.534
90957SOL    HW174768   2.875   8.041   9.516
90957SOL    HW274769   2.874   8.143   9.628
90958SOL     OW74770   8.865   3.896  10.176
90958SOL    HW174771   8.923   3.928  10.107
90958SOL    HW274772   8.923   3.851  10.237
90959SOL     OW74773   3.307   2.992   3.679
90959SOL    HW174774   3.266   3.043   3.748
90959SOL    HW274775   3.336   2.912   3.722
90960SOL     OW74776   1.676  12.817   8.047
90960SOL    HW174777   1.650  12.730   8.076
90960SOL    HW274778   1.674  12.870   8.126
90961SOL     OW74779   4.668  12.152   0.608
90961SOL    HW174780   4.653  12.105   0.526
90961SOL    HW274781   4.580  12.168   0.643
90962SOL     OW74782  14.285   6.715   4.247
90962SOL    HW174783  14.331   6.734   4.165
90962SOL    HW274784  14.347   6.737   4.316
90963SOL     OW74785   9.851   7.293   0.860
90963SOL    HW174786   9.817   7.286   0.950
90963SOL    HW274787   9.891   7.208   0.844
90964SOL     OW74788  14.526  11.827   4.584
90964SOL    HW174789  14.589  11.763   4.618
90964SOL    HW274790  14.449  11.818   4.640
90965SOL     OW74791   7.238  10.531   7.179
90965SOL    HW174792   7.208  10.563   7.264
90965SOL    HW274793   7.159  10.494   7.139
90966SOL     OW74794   4.453   3.221   6.166
90966SOL    HW174795   4.454   3.209   6.261
90966SOL    HW274796   4.405   3.303   6.153
90967SOL     OW74797   0.742   4.692  13.031
90967SOL    HW174798   0.755   4.618  13.090
90967SOL    HW274799   0.681   4.659  12.965
90968SOL     OW74800   0.641   8.206  13.559
90968SOL    HW174801   0.593   8.154  13.624
90968SOL    HW274802   0.604   8.181  13.475
90969SOL     OW74803   9.320   0.720   9.685
90969SOL    HW174804   9.373   0.651   9.725
90969SOL    HW274805   9.232   0.684   9.681
90970SOL     OW74806  13.655  13.050  12.048
90970SOL    HW174807  13.592  13.053  12.119
90970SOL    HW274808  13.735  13.087  12.085
90971SOL     OW74809   6.470   9.882   9.005
90971SOL    HW174810   6.459   9.891   8.911
90971SOL    HW274811   6.436   9.794   9.025
90972SOL     OW74812  10.002   4.372   3.130
90972SOL    HW174813  10.021   4.294   3.078
90972SOL    HW274814   9.986   4.338   3.218
90973SOL     OW74815   5.546   9.744   7.366
90973SOL    HW174816   5.486   9.683   7.323
90973SOL    HW274817   5.591   9.692   7.432
90974SOL     OW74818   1.754  10.010  14.862
90974SOL    HW174819   1.753   9.914  14.864
90974SOL    HW274820   1.832  10.034   0.041
90975SOL     OW74821   6.205   2.554   1.984
90975SOL    HW174822   6.207   2.649   1.988
90975SOL    HW274823   6.283   2.530   1.933
90976SOL     OW74824   3.453   8.858  10.939
90976SOL    HW174825   3.469   8.814  10.856
90976SOL    HW274826   3.509   8.812  11.002
90977SOL     OW74827  13.387   2.031  13.812
90977SOL    HW174828  13.308   2.073  13.844
90977SOL    HW274829  13.426   1.991  13.890
90978SOL     OW74830   7.070   2.826   4.295
90978SOL    HW174831   7.019   2.870   4.364
90978SOL    HW274832   7.037   2.863   4.214
90979SOL     OW74833   5.008  13.028  13.583
90979SOL    HW174834   5.011  12.986  13.669
90979SOL    HW274835   5.080  13.092  13.585
90980SOL     OW74836  10.646   1.412  14.625
90980SOL    HW174837  10.608   1.499  14.640
90980SOL    HW274838  10.741   1.426  14.631
90981SOL     OW74839  12.481  14.380  12.054
90981SOL    HW174840  12.417  14.310  12.041
90981SOL    HW274841  12.489  14.388  12.149
90982SOL     OW74842   7.302  13.887   0.873
90982SOL    HW174843   7.350  13.935   0.806
90982SOL    HW274844   7.237  13.837   0.825
90983SOL     OW74845  10.923   1.232  11.864
90983SOL    HW174846  10.878   1.253  11.782
90983SOL    HW274847  10.972   1.311  11.885
90984SOL     OW74848   9.831   7.664   4.358
90984SOL    HW174849   9.921   7.666   4.391
90984SOL    HW274850   9.839   7.684   4.265
90985SOL     OW74851  12.519   6.528   9.178
90985SOL    HW174852  12.590   6.500   9.235
90985SOL    HW274853  12.451   6.559   9.238
90986SOL     OW74854  13.213   3.400   6.162
90986SOL    HW174855  13.185   3.372   6.074
90986SOL    HW274856  13.218   3.319   6.212
90987SOL     OW74857  14.003   4.068   8.562
90987SOL    HW174858  14.004   4.032   8.473
90987SOL    HW274859  14.040   4.156   8.553
90988SOL     OW74860   1.276  10.592  11.014
90988SOL    HW174861   1.243  10.561  10.930
90988SOL    HW274862   1.229  10.674  11.029
90989SOL     OW74863   5.846   2.406  10.155
90989SOL    HW174864   5.753   2.388  10.140
90989SOL    HW274865   5.850   2.501  10.165
90990SOL     OW74866   4.456  11.658   5.838
90990SOL    HW174867   4.475  11.624   5.925
90990SOL    HW274868   4.398  11.732   5.853
90991SOL     OW74869   2.672   8.016   2.308
90991SOL    HW174870   2.646   7.926   2.291
90991SOL    HW274871   2.697   8.050   2.222
90992SOL     OW74872  12.801   5.861   1.834
90992SOL    HW174873  12.854   5.939   1.822
90992SOL    HW274874  12.826   5.828   1.921
90993SOL     OW74875   3.347   5.226   7.325
90993SOL    HW174876   3.412   5.199   7.260
90993SOL    HW274877   3.376   5.185   7.406
90994SOL     OW74878  11.307  10.723   7.709
90994SOL    HW174879  11.401  10.714   7.723
90994SOL    HW274880  11.293  10.690   7.620
90995SOL     OW74881   9.499   8.815   5.315
90995SOL    HW174882   9.565   8.770   5.262
90995SOL    HW274883   9.441   8.856   5.252
90996SOL     OW74884  13.615   2.575   5.128
90996SOL    HW174885  13.533   2.587   5.079
90996SOL    HW274886  13.638   2.483   5.116
90997SOL     OW74887  10.003  11.101   6.510
90997SOL    HW174888   9.965  11.021   6.473
90997SOL    HW274889  10.089  11.075   6.542
90998SOL     OW74890  14.748   9.103   7.333
90998SOL    HW174891  14.666   9.057   7.313
90998SOL    HW274892  14.725   9.161   7.406
90999SOL     OW74893   1.905  12.451   0.112
90999SOL    HW174894   1.813  12.451   0.086
90999SOL    HW274895   1.950  12.500   0.043
91000SOL     OW74896   5.415  13.595   4.610
91000SOL    HW174897   5.456  13.509   4.598
91000SOL    HW274898   5.486  13.652   4.640
91001SOL     OW74899  13.387   4.814   0.599
91001SOL    HW174900  13.363   4.752   0.667
91001SOL    HW274901  13.398   4.760   0.521
91002SOL     OW74902   0.233   1.532  14.394
91002SOL    HW174903   0.140   1.516  14.379
91002SOL    HW274904   0.268   1.445  14.416
91003SOL     OW74905  12.766   1.513   6.260
91003SOL    HW174906  12.839   1.452   6.268
91003SOL    HW274907  12.802   1.598   6.287
91004SOL     OW74908  13.194  14.217  11.486
91004SOL    HW174909  13.285  14.219  11.514
91004SOL    HW274910  13.185  14.289  11.424
91005SOL     OW74911  10.108  13.167  12.798
91005SOL    HW174912  10.086  13.074  12.804
91005SOL    HW274913  10.199  13.168  12.771
91006SOL     OW74914   7.484  10.356   8.798
91006SOL    HW174915   7.479  10.443   8.759
91006SOL    HW274916   7.493  10.296   8.724
91007SOL     OW74917   6.212  13.462   6.993
91007SOL    HW174918   6.255  13.508   7.066
91007SOL    HW274919   6.269  13.480   6.918
91008SOL     OW74920  14.723  12.922  14.511
91008SOL    HW174921  14.787  12.855  14.535
91008SOL    HW274922  14.641  12.873  14.499
91009SOL     OW74923   6.393   2.745   7.427
91009SOL    HW174924   6.339   2.769   7.503
91009SOL    HW274925   6.336   2.692   7.372
91010SOL     OW74926   2.538   5.931   1.854
91010SOL    HW174927   2.467   5.899   1.911
91010SOL    HW274928   2.493   5.966   1.777
91011SOL     OW74929  14.406  13.078   3.352
91011SOL    HW174930  14.421  13.015   3.281
91011SOL    HW274931  14.408  13.025   3.432
91012SOL     OW74932  14.638   4.543  11.547
91012SOL    HW174933  14.659   4.635  11.559
91012SOL    HW274934  14.687   4.497  11.615
91013SOL     OW74935   3.717   2.538   0.881
91013SOL    HW174936   3.775   2.522   0.806
91013SOL    HW274937   3.776   2.565   0.951
91014SOL     OW74938  11.943  14.725   5.549
91014SOL    HW174939  11.912  14.806   5.508
91014SOL    HW274940  11.981  14.754   5.632
91015SOL     OW74941   1.516   0.661   8.886
91015SOL    HW174942   1.517   0.568   8.910
91015SOL    HW274943   1.423   0.683   8.880
91016SOL     OW74944   4.914  11.736   1.654
91016SOL    HW174945   4.965  11.799   1.706
91016SOL    HW274946   4.925  11.653   1.700
91017SOL     OW74947   9.217  11.861   2.655
91017SOL    HW174948   9.288  11.915   2.621
91017SOL    HW274949   9.183  11.909   2.730
91018SOL     OW74950  13.464   7.608  14.011
91018SOL    HW174951  13.503   7.525  13.982
91018SOL    HW274952  13.376   7.608  13.973
91019SOL     OW74953   8.978   2.971   8.597
91019SOL    HW174954   8.984   2.889   8.548
91019SOL    HW274955   9.047   2.964   8.663
91020SOL     OW74956   1.386   0.936  13.665
91020SOL    HW174957   1.456   0.973  13.610
91020SOL    HW274958   1.408   0.966  13.754
91021SOL     OW74959  11.361   4.611   0.431
91021SOL    HW174960  11.405   4.671   0.372
91021SOL    HW274961  11.427   4.545   0.453
91022SOL     OW74962   0.117  14.211   3.668
91022SOL    HW174963   0.184  14.246   3.610
91022SOL    HW274964   0.114  14.118   3.649
91023SOL     OW74965  10.032  11.685  11.428
91023SOL    HW174966  10.076  11.770  11.437
91023SOL    HW274967   9.941  11.703  11.453
91024SOL     OW74968   9.157   4.607   6.307
91024SOL    HW174969   9.062   4.616   6.316
91024SOL    HW274970   9.191   4.688   6.345
91025SOL     OW74971   0.769  12.481  12.256
91025SOL    HW174972   0.704  12.486  12.327
91025SOL    HW274973   0.718  12.499  12.176
91026SOL     OW74974   7.050  13.839   1.426
91026SOL    HW174975   7.058  13.934   1.424
91026SOL    HW274976   7.124  13.807   1.375
91027SOL     OW74977  14.841  11.905   7.083
91027SOL    HW174978   0.046  11.959   7.065
91027SOL    HW274979  14.833  11.905   7.178
91028SOL     OW74980   4.022  12.022  10.138
91028SOL    HW174981   3.982  12.106  10.160
91028SOL    HW274982   3.955  11.957  10.156
91029SOL     OW74983   8.951   7.247  11.684
91029SOL    HW174984   8.860   7.270  11.704
91029SOL    HW274985   8.972   7.176  11.744
91030SOL     OW74986   7.852   9.426   7.688
91030SOL    HW174987   7.785   9.450   7.624
91030SOL    HW274988   7.904   9.506   7.701
91031SOL     OW74989   7.134  14.663   8.916
91031SOL    HW174990   7.062  14.642   8.975
91031SOL    HW274991   7.170  14.578   8.891
91032SOL     OW74992   8.081   2.464  14.740
91032SOL    HW174993   8.026   2.433  14.669
91032SOL    HW274994   8.096   2.557  14.721
91033SOL     OW74995   3.585   8.971   0.669
91033SOL    HW174996   3.664   8.997   0.717
91033SOL    HW274997   3.541   8.908   0.728
91034SOL     OW74998   6.933   1.147  12.932
91034SOL    HW174999   6.848   1.190  12.927
91034SOL    HW275000   6.913   1.053  12.923
91035SOL     OW75001   9.979  14.144   1.534
91035SOL    HW175002   9.917  14.126   1.464
91035SOL    HW275003   9.935  14.112   1.613
91036SOL     OW75004  11.893  10.172   5.036
91036SOL    HW175005  11.956  10.124   5.089
91036SOL    HW275006  11.860  10.241   5.093
91037SOL     OW75007   7.730  10.792   0.849
91037SOL    HW175008   7.654  10.763   0.898
91037SOL    HW275009   7.745  10.882   0.878
91038SOL     OW75010   4.500   9.625   3.561
91038SOL    HW175011   4.587   9.605   3.525
91038SOL    HW275012   4.445   9.636   3.483
91039SOL     OW75013   1.756   7.079   8.730
91039SOL    HW175014   1.678   7.134   8.736
91039SOL    HW275015   1.829   7.138   8.754
91040SOL     OW75016   4.287  13.125  13.133
91040SOL    HW175017   4.325  13.154  13.051
91040SOL    HW275018   4.361  13.090  13.184
91041SOL     OW75019  11.888   2.824   2.523
91041SOL    HW175020  11.844   2.779   2.595
91041SOL    HW275021  11.978   2.792   2.527
91042SOL     OW75022   7.494  14.703   4.642
91042SOL    HW175023   7.431  14.634   4.663
91042SOL    HW275024   7.443  14.784   4.646
91043SOL     OW75025  13.250   1.013   8.615
91043SOL    HW175026  13.247   1.109   8.616
91043SOL    HW275027  13.168   0.986   8.657
91044SOL     OW75028   7.437   5.659   6.359
91044SOL    HW175029   7.371   5.603   6.398
91044SOL    HW275030   7.504   5.668   6.427
91045SOL     OW75031   6.081  11.967  12.236
91045SOL    HW175032   6.087  11.964  12.141
91045SOL    HW275033   6.169  11.994  12.265
91046SOL     OW75034  11.352   4.116  13.544
91046SOL    HW175035  11.295   4.177  13.497
91046SOL    HW275036  11.364   4.155  13.630
91047SOL     OW75037  10.216   9.347   7.045
91047SOL    HW175038  10.148   9.356   7.111
91047SOL    HW275039  10.276   9.282   7.082
91048SOL     OW75040  14.340   2.999   7.266
91048SOL    HW175041  14.253   2.978   7.299
91048SOL    HW275042  14.324   3.054   7.189
91049SOL     OW75043  10.247  13.238  10.420
91049SOL    HW175044  10.182  13.254  10.489
91049SOL    HW275045  10.214  13.288  10.345
91050SOL     OW75046  10.330   3.577   9.692
91050SOL    HW175047  10.296   3.636   9.625
91050SOL    HW275048  10.252   3.545   9.738
91051SOL     OW75049  13.207   7.180   0.265
91051SOL    HW175050  13.172   7.241   0.331
91051SOL    HW275051  13.302   7.185   0.276
91052SOL     OW75052   9.746   5.312  11.541
91052SOL    HW175053   9.798   5.367  11.482
91052SOL    HW275054   9.665   5.362  11.554
91053SOL     OW75055   8.506   6.662  10.713
91053SOL    HW175056   8.539   6.606  10.783
91053SOL    HW275057   8.498   6.604  10.637
91054SOL     OW75058  13.623   6.975   1.550
91054SOL    HW175059  13.545   6.991   1.603
91054SOL    HW275060  13.642   6.882   1.563
91055SOL     OW75061   2.851  10.885  10.565
91055SOL    HW175062   2.874  10.850  10.651
91055SOL    HW275063   2.924  10.861  10.509
91056SOL     OW75064  11.063  14.099   6.007
91056SOL    HW175065  11.037  14.101   6.099
91056SOL    HW275066  11.054  14.008   5.981
91057SOL     OW75067  12.989  13.116   8.765
91057SOL    HW175068  12.961  13.055   8.834
91057SOL    HW275069  12.912  13.123   8.708
91058SOL     OW75070   2.193   5.048   7.231
91058SOL    HW175071   2.247   5.096   7.295
91058SOL    HW275072   2.122   5.010   7.283
91059SOL     OW75073  14.204  11.033   8.641
91059SOL    HW175074  14.143  10.996   8.705
91059SOL    HW275075  14.225  10.960   8.583
91060SOL     OW75076   1.362  11.457   8.906
91060SOL    HW175077   1.284  11.510   8.890
91060SOL    HW275078   1.328  11.371   8.929
91061SOL     OW75079   5.494   3.369   7.712
91061SOL    HW175080   5.400   3.386   7.714
91061SOL    HW275081   5.523   3.405   7.628
91062SOL     OW75082  10.066  14.340  14.725
91062SOL    HW175083  10.076  14.428  14.690
91062SOL    HW275084   9.972  14.330  14.741
91063SOL     OW75085  10.540   3.894   3.773
91063SOL    HW175086  10.592   3.966   3.808
91063SOL    HW275087  10.460   3.894   3.826
91064SOL     OW75088  12.601   7.288   3.480
91064SOL    HW175089  12.551   7.369   3.468
91064SOL    HW275090  12.571   7.255   3.565
91065SOL     OW75091   5.829  13.502   0.564
91065SOL    HW175092   5.781  13.466   0.490
91065SOL    HW275093   5.786  13.466   0.641
91066SOL     OW75094  13.750   7.174  14.156
91066SOL    HW175095  13.748   7.125  14.238
91066SOL    HW275096  13.800   7.118  14.096
91067SOL     OW75097  12.143   8.737  12.538
91067SOL    HW175098  12.205   8.794  12.583
91067SOL    HW275099  12.188   8.653  12.532
91068SOL     OW75100   1.512   3.671   5.362
91068SOL    HW175101   1.456   3.608   5.407
91068SOL    HW275102   1.588   3.621   5.334
91069SOL     OW75103   1.520  12.306   9.021
91069SOL    HW175104   1.450  12.255   8.979
91069SOL    HW275105   1.583  12.323   8.951
91070SOL     OW75106   0.206   0.935  10.353
91070SOL    HW175107   0.158   0.878  10.412
91070SOL    HW275108   0.265   0.876  10.305
91071SOL     OW75109   4.913   0.806   9.966
91071SOL    HW175110   4.943   0.895   9.946
91071SOL    HW275111   4.898   0.767   9.880
91072SOL     OW75112   7.301   5.342  14.249
91072SOL    HW175113   7.224   5.305  14.205
91072SOL    HW275114   7.311   5.429  14.211
91073SOL     OW75115  13.387  10.824  12.941
91073SOL    HW175116  13.478  10.801  12.927
91073SOL    HW275117  13.384  10.862  13.028
91074SOL     OW75118   7.444  11.511   3.000
91074SOL    HW175119   7.455  11.596   3.042
91074SOL    HW275120   7.439  11.448   3.073
91075SOL     OW75121   7.428   6.335  10.391
91075SOL    HW175122   7.468   6.407  10.439
91075SOL    HW275123   7.450   6.257  10.442
91076SOL     OW75124   6.939   2.448  11.339
91076SOL    HW175125   6.951   2.414  11.250
91076SOL    HW275126   6.845   2.462  11.346
91077SOL     OW75127   8.398   5.750  11.581
91077SOL    HW175128   8.408   5.838  11.544
91077SOL    HW275129   8.323   5.757  11.639
91078SOL     OW75130  13.282   6.837   0.937
91078SOL    HW175131  13.237   6.786   0.870
91078SOL    HW275132  13.266   6.928   0.913
91079SOL     OW75133   2.439   2.838   6.011
91079SOL    HW175134   2.507   2.778   5.981
91079SOL    HW275135   2.443   2.832   6.107
91080SOL     OW75136   3.642   3.428  13.121
91080SOL    HW175137   3.693   3.432  13.040
91080SOL    HW275138   3.649   3.516  13.158
91081SOL     OW75139  11.509  11.888   6.806
91081SOL    HW175140  11.460  11.870   6.725
91081SOL    HW275141  11.600  11.893   6.778
91082SOL     OW75142  14.566   2.663   0.573
91082SOL    HW175143  14.526   2.581   0.599
91082SOL    HW275144  14.628   2.639   0.504
91083SOL     OW75145  14.622   8.388   2.003
91083SOL    HW175146  14.575   8.411   2.084
91083SOL    HW275147  14.584   8.446   1.937
91084SOL     OW75148   9.134  10.651   5.732
91084SOL    HW175149   9.046  10.651   5.694
91084SOL    HW275150   9.128  10.594   5.808
91085SOL     OW75151   2.331   6.380   7.674
91085SOL    HW175152   2.410   6.337   7.706
91085SOL    HW275153   2.351   6.473   7.678
91086SOL     OW75154  11.554  12.044  13.364
91086SOL    HW175155  11.614  12.111  13.398
91086SOL    HW275156  11.475  12.056  13.416
91087SOL     OW75157   4.112  10.820  12.094
91087SOL    HW175158   4.032  10.817  12.042
91087SOL    HW275159   4.089  10.874  12.170
91088SOL     OW75160  11.343   0.145   5.002
91088SOL    HW175161  11.428   0.139   4.960
91088SOL    HW275162  11.338   0.066   5.057
91089SOL     OW75163  13.663   8.031   3.203
91089SOL    HW175164  13.623   7.971   3.140
91089SOL    HW275165  13.703   8.099   3.149
91090SOL     OW75166   1.747   1.047   7.798
91090SOL    HW175167   1.812   1.106   7.760
91090SOL    HW275168   1.691   1.105   7.851
91091SOL     OW75169   7.483   8.525   5.601
91091SOL    HW175170   7.498   8.432   5.584
91091SOL    HW275171   7.414   8.550   5.540
91092SOL     OW75172   4.183   2.049   9.767
91092SOL    HW175173   4.214   1.981   9.827
91092SOL    HW275174   4.112   2.007   9.718
91093SOL     OW75175   6.324   8.004  11.988
91093SOL    HW175176   6.232   8.027  12.000
91093SOL    HW275177   6.357   7.992  12.077
91094SOL     OW75178  13.379  10.263   8.332
91094SOL    HW175179  13.439  10.190   8.318
91094SOL    HW275180  13.351  10.254   8.424
91095SOL     OW75181   2.159   1.454   2.706
91095SOL    HW175182   2.169   1.520   2.775
91095SOL    HW275183   2.162   1.504   2.625
91096SOL     OW75184  13.640  12.485   7.086
91096SOL    HW175185  13.662  12.577   7.101
91096SOL    HW275186  13.630  12.448   7.174
91097SOL     OW75187   9.794   6.830   3.808
91097SOL    HW175188   9.754   6.752   3.847
91097SOL    HW275189   9.886   6.825   3.834
91098SOL     OW75190   7.436   8.437   1.562
91098SOL    HW175191   7.384   8.392   1.496
91098SOL    HW275192   7.463   8.368   1.622
91099SOL     OW75193  13.276  10.748   7.620
91099SOL    HW175194  13.359  10.703   7.635
91099SOL    HW275195  13.287  10.790   7.535
91100SOL     OW75196   9.921   3.621   8.705
91100SOL    HW175197   9.827   3.635   8.688
91100SOL    HW275198   9.926   3.609   8.800
91101SOL     OW75199   2.736   5.502   4.554
91101SOL    HW175200   2.782   5.581   4.523
91101SOL    HW275201   2.659   5.496   4.498
91102SOL     OW75202   9.674   6.922   7.855
91102SOL    HW175203   9.733   6.846   7.863
91102SOL    HW275204   9.600   6.900   7.912
91103SOL     OW75205   7.965  11.120   0.183
91103SOL    HW175206   7.920  11.046   0.223
91103SOL    HW275207   7.994  11.173   0.257
91104SOL     OW75208  12.439  12.140   8.859
91104SOL    HW175209  12.371  12.074   8.848
91104SOL    HW275210  12.499  12.102   8.923
91105SOL     OW75211  10.301   6.866  13.100
91105SOL    HW175212  10.297   6.953  13.138
91105SOL    HW275213  10.333   6.810  13.171
91106SOL     OW75214   8.524   6.900  10.281
91106SOL    HW175215   8.449   6.956  10.296
91106SOL    HW275216   8.523   6.882  10.187
91107SOL     OW75217  12.021  10.660   1.301
91107SOL    HW175218  12.111  10.657   1.333
91107SOL    HW275219  12.007  10.575   1.259
91108SOL     OW75220   2.001   9.865   1.609
91108SOL    HW175221   2.015   9.859   1.515
91108SOL    HW275222   1.946   9.789   1.630
91109SOL     OW75223   7.228  10.261  12.342
91109SOL    HW175224   7.275  10.327  12.290
91109SOL    HW275225   7.138  10.294  12.347
91110SOL     OW75226   9.990   7.635   8.602
91110SOL    HW175227   9.952   7.696   8.539
91110SOL    HW275228  10.040   7.691   8.662
91111SOL     OW75229  12.560   7.549  13.872
91111SOL    HW175230  12.567   7.464  13.916
91111SOL    HW275231  12.605   7.610  13.929
91112SOL     OW75232   5.136  12.926  10.930
91112SOL    HW175233   5.110  12.861  10.865
91112SOL    HW275234   5.099  12.893  11.012
91113SOL     OW75235   9.811   8.515   1.982
91113SOL    HW175236   9.752   8.462   1.929
91113SOL    HW275237   9.888   8.530   1.927
91114SOL     OW75238  10.637  10.848   2.557
91114SOL    HW175239  10.611  10.886   2.641
91114SOL    HW275240  10.654  10.923   2.501
91115SOL     OW75241   3.394   6.693   5.897
91115SOL    HW175242   3.355   6.778   5.918
91115SOL    HW275243   3.363   6.634   5.966
91116SOL     OW75244  10.986  14.739   6.079
91116SOL    HW175245  10.924  14.691   6.134
91116SOL    HW275246  10.937  14.759   5.999
91117SOL     OW75247   9.319  11.775  10.799
91117SOL    HW175248   9.249  11.718  10.831
91117SOL    HW275249   9.400  11.734  10.831
91118SOL     OW75250  10.416   1.906   5.940
91118SOL    HW175251  10.374   1.982   5.979
91118SOL    HW275252  10.445   1.936   5.854
91119SOL     OW75253   2.324   3.092  14.848
91119SOL    HW175254   2.361   3.004  14.848
91119SOL    HW275255   2.373   3.139  14.780
91120SOL     OW75256   3.712  12.416  10.680
91120SOL    HW175257   3.789  12.466  10.707
91120SOL    HW275258   3.684  12.371  10.759
91121SOL     OW75259  12.955   0.245   6.988
91121SOL    HW175260  12.927   0.179   7.052
91121SOL    HW275261  13.044   0.219   6.964
91122SOL     OW75262   8.794   5.578   2.105
91122SOL    HW175263   8.786   5.513   2.174
91122SOL    HW275264   8.845   5.649   2.145
91123SOL     OW75265   0.976   1.631  13.070
91123SOL    HW175266   0.972   1.717  13.029
91123SOL    HW275267   1.051   1.637  13.130
91124SOL     OW75268  11.595   0.437   2.813
91124SOL    HW175269  11.545   0.516   2.833
91124SOL    HW275270  11.563   0.371   2.875
91125SOL     OW75271   6.333   9.281   8.228
91125SOL    HW175272   6.319   9.370   8.196
91125SOL    HW275273   6.418   9.285   8.272
91126SOL     OW75274  10.524  12.948  13.449
91126SOL    HW175275  10.475  13.029  13.435
91126SOL    HW275276  10.483  12.885  13.390
91127SOL     OW75277   7.922   3.631  11.659
91127SOL    HW175278   8.009   3.611  11.626
91127SOL    HW275279   7.931   3.714  11.705
91128SOL     OW75280   9.746   4.727   7.697
91128SOL    HW175281   9.673   4.783   7.725
91128SOL    HW275282   9.716   4.688   7.615
91129SOL     OW75283   4.018  10.108   0.910
91129SOL    HW175284   4.001  10.154   0.828
91129SOL    HW275285   4.042  10.019   0.884
91130SOL     OW75286   5.042  10.271  11.655
91130SOL    HW175287   5.111  10.337  11.661
91130SOL    HW275288   5.084  10.196  11.613
91131SOL     OW75289   8.952   7.577   3.258
91131SOL    HW175290   8.925   7.621   3.339
91131SOL    HW275291   8.871   7.541   3.222
91132SOL     OW75292  10.371   9.910   1.772
91132SOL    HW175293  10.412   9.899   1.857
91132SOL    HW275294  10.353   9.821   1.742
91133SOL     OW75295  12.197  14.527   3.661
91133SOL    HW175296  12.169  14.572   3.581
91133SOL    HW275297  12.211  14.436   3.635
91134SOL     OW75298   2.445   8.466  14.305
91134SOL    HW175299   2.520   8.509  14.262
91134SOL    HW275300   2.375   8.531  14.301
91135SOL     OW75301  14.842  14.430   3.746
91135SOL    HW175302   0.022  14.353   3.725
91135SOL    HW275303  14.826  14.424   3.840
91136SOL     OW75304   3.834   2.331   4.008
91136SOL    HW175305   3.834   2.292   3.921
91136SOL    HW275306   3.828   2.426   3.992
91137SOL     OW75307   5.682  12.912  11.425
91137SOL    HW175308   5.745  12.853  11.383
91137SOL    HW275309   5.646  12.860  11.497
91138SOL     OW75310   4.899   2.536   5.864
91138SOL    HW175311   4.872   2.618   5.906
91138SOL    HW275312   4.825   2.512   5.808
91139SOL     OW75313  10.648   6.285  14.594
91139SOL    HW175314  10.720   6.243  14.641
91139SOL    HW275315  10.609   6.344  14.659
91140SOL     OW75316   7.139   6.332  11.157
91140SOL    HW175317   7.049   6.299  11.149
91140SOL    HW275318   7.139   6.382  11.239
91141SOL     OW75319   1.632   0.765   6.396
91141SOL    HW175320   1.710   0.787   6.447
91141SOL    HW275321   1.665   0.714   6.322
91142SOL     OW75322   3.199   5.841  12.066
91142SOL    HW175323   3.174   5.764  12.016
91142SOL    HW275324   3.242   5.898  12.003
91143SOL     OW75325   7.594   1.796   0.963
91143SOL    HW175326   7.598   1.787   0.868
91143SOL    HW275327   7.679   1.833   0.987
91144SOL     OW75328   6.436  10.301   3.479
91144SOL    HW175329   6.465  10.372   3.536
91144SOL    HW275330   6.510  10.241   3.474
91145SOL     OW75331   9.267  12.061   6.954
91145SOL    HW175332   9.350  12.020   6.978
91145SOL    HW275333   9.230  12.092   7.037
91146SOL     OW75334   4.134   8.475  12.759
91146SOL    HW175335   4.133   8.569  12.776
91146SOL    HW275336   4.109   8.467  12.667
91147SOL     OW75337   4.075  13.806  12.489
91147SOL    HW175338   4.075  13.723  12.536
91147SOL    HW275339   4.022  13.790  12.411
91148SOL     OW75340   4.253   9.528  13.297
91148SOL    HW175341   4.295   9.584  13.232
91148SOL    HW275342   4.316   9.458  13.313
91149SOL     OW75343  12.337   8.216  11.377
91149SOL    HW175344  12.314   8.214  11.470
91149SOL    HW275345  12.431   8.198  11.374
91150SOL     OW75346   1.364   1.096  10.252
91150SOL    HW175347   1.325   1.146  10.180
91150SOL    HW275348   1.334   1.141  10.331
91151SOL     OW75349   3.701   7.744  14.460
91151SOL    HW175350   3.687   7.713  14.549
91151SOL    HW275351   3.710   7.665  14.408
91152SOL     OW75352  12.147  14.834  10.235
91152SOL    HW175353  12.235  14.864  10.211
91152SOL    HW275354  12.092   0.040  10.226
91153SOL     OW75355  12.446   3.282   5.848
91153SOL    HW175356  12.483   3.327   5.924
91153SOL    HW275357  12.464   3.341   5.775
91154SOL     OW75358  14.123   7.145   9.128
91154SOL    HW175359  14.188   7.075   9.135
91154SOL    HW275360  14.118   7.164   9.034
91155SOL     OW75361   0.680   3.642   4.377
91155SOL    HW175362   0.635   3.558   4.390
91155SOL    HW275363   0.643   3.678   4.297
91156SOL     OW75364  12.865  14.301   2.647
91156SOL    HW175365  12.899  14.252   2.573
91156SOL    HW275366  12.776  14.268   2.659
91157SOL     OW75367   1.262  11.950   0.560
91157SOL    HW175368   1.266  11.963   0.655
91157SOL    HW275369   1.238  12.036   0.525
91158SOL     OW75370   3.563  12.830   2.411
91158SOL    HW175371   3.510  12.766   2.457
91158SOL    HW275372   3.534  12.825   2.320
91159SOL     OW75373   0.992  14.170   6.543
91159SOL    HW175374   0.965  14.237   6.605
91159SOL    HW275375   1.059  14.213   6.489
91160SOL     OW75376   2.509   2.780   1.071
91160SOL    HW175377   2.512   2.693   1.113
91160SOL    HW275378   2.529   2.762   0.979
91161SOL     OW75379   8.360   4.529  11.941
91161SOL    HW175380   8.418   4.565  12.008
91161SOL    HW275381   8.356   4.597  11.874
91162SOL     OW75382   2.037  13.457   7.448
91162SOL    HW175383   1.944  13.450   7.425
91162SOL    HW275384   2.074  13.516   7.382
91163SOL     OW75385   1.653   5.515   2.694
91163SOL    HW175386   1.733   5.482   2.734
91163SOL    HW275387   1.594   5.534   2.767
91164SOL     OW75388   1.097   4.519   7.465
91164SOL    HW175389   1.193   4.518   7.471
91164SOL    HW275390   1.076   4.602   7.422
91165SOL     OW75391   8.162   2.566   2.093
91165SOL    HW175392   8.232   2.502   2.083
91165SOL    HW275393   8.169   2.623   2.016
91166SOL     OW75394  10.347  13.982  13.296
91166SOL    HW175395  10.377  14.037  13.224
91166SOL    HW275396  10.296  14.040  13.352
91167SOL     OW75397   3.016   4.032  11.983
91167SOL    HW175398   3.027   4.119  12.022
91167SOL    HW275399   3.000   4.048  11.891
91168SOL     OW75400  12.213   7.449   3.674
91168SOL    HW175401  12.154   7.407   3.736
91168SOL    HW275402  12.277   7.495   3.729
91169SOL     OW75403   5.683   9.339   9.915
91169SOL    HW175404   5.659   9.246   9.920
91169SOL    HW275405   5.676   9.360   9.822
91170SOL     OW75406   5.453   5.991   7.751
91170SOL    HW175407   5.527   6.046   7.777
91170SOL    HW275408   5.384   6.054   7.729
91171SOL     OW75409   6.007   2.815   1.341
91171SOL    HW175410   6.071   2.851   1.279
91171SOL    HW275411   5.997   2.724   1.314
91172SOL     OW75412   5.324   0.014  11.990
91172SOL    HW175413   5.229   0.022  11.979
91172SOL    HW275414   5.355   0.105  11.991
91173SOL     OW75415   6.255  13.064   5.491
91173SOL    HW175416   6.171  13.105   5.511
91173SOL    HW275417   6.320  13.130   5.514
91174SOL     OW75418   7.841  10.723   1.958
91174SOL    HW175419   7.911  10.699   1.896
91174SOL    HW275420   7.760  10.698   1.913
91175SOL     OW75421   3.368  11.020   2.380
91175SOL    HW175422   3.419  10.952   2.337
91175SOL    HW275423   3.277  10.993   2.368
91176SOL     OW75424  13.427  10.531  12.328
91176SOL    HW175425  13.451  10.546  12.419
91176SOL    HW275426  13.368  10.603  12.306
91177SOL     OW75427  10.573   6.201   6.109
91177SOL    HW175428  10.498   6.155   6.147
91177SOL    HW275429  10.605   6.143   6.040
91178SOL     OW75430  13.907   7.696   7.234
91178SOL    HW175431  13.862   7.621   7.194
91178SOL    HW275432  13.861   7.710   7.317
91179SOL     OW75433   2.023   5.168   1.736
91179SOL    HW175434   1.948   5.138   1.789
91179SOL    HW275435   1.996   5.253   1.702
91180SOL     OW75436   1.649  10.223   3.355
91180SOL    HW175437   1.568  10.209   3.405
91180SOL    HW275438   1.680  10.309   3.384
91181SOL     OW75439   6.697  11.318   6.703
91181SOL    HW175440   6.653  11.384   6.757
91181SOL    HW275441   6.635  11.298   6.633
91182SOL     OW75442  14.626   9.718   1.801
91182SOL    HW175443  14.683   9.724   1.878
91182SOL    HW275444  14.634   9.803   1.759
91183SOL     OW75445  14.744   3.880  14.414
91183SOL    HW175446  14.834   3.900  14.388
91183SOL    HW275447  14.751   3.800  14.466
91184SOL     OW75448  11.668  14.696   5.831
91184SOL    HW175449  11.741  14.739   5.787
91184SOL    HW275450  11.605  14.766   5.848
91185SOL     OW75451   0.166   6.544   0.575
91185SOL    HW175452   0.243   6.492   0.553
91185SOL    HW275453   0.167   6.550   0.670
91186SOL     OW75454   4.763   2.431  14.736
91186SOL    HW175455   4.832   2.423  14.803
91186SOL    HW275456   4.804   2.397  14.656
91187SOL     OW75457  13.269  10.589   5.425
91187SOL    HW175458  13.347  10.635   5.455
91187SOL    HW275459  13.267  10.509   5.478
91188SOL     OW75460   7.877  10.421   1.008
91188SOL    HW175461   7.880  10.501   1.059
91188SOL    HW275462   7.803  10.372   1.044
91189SOL     OW75463  11.161   8.488   2.102
91189SOL    HW175464  11.232   8.446   2.150
91189SOL    HW275465  11.194   8.497   2.013
91190SOL     OW75466   5.514  11.789   6.541
91190SOL    HW175467   5.600  11.829   6.530
91190SOL    HW275468   5.532  11.707   6.587
91191SOL     OW75469  11.458  10.802  12.887
91191SOL    HW175470  11.529  10.757  12.843
91191SOL    HW275471  11.457  10.765  12.976
91192SOL     OW75472   9.949  10.284   3.704
91192SOL    HW175473   9.925  10.214   3.643
91192SOL    HW275474   9.878  10.348   3.698
91193SOL     OW75475   1.116  14.252   2.271
91193SOL    HW175476   1.158  14.227   2.189
91193SOL    HW275477   1.060  14.326   2.248
91194SOL     OW75478   5.555   1.657  12.105
91194SOL    HW175479   5.580   1.616  12.023
91194SOL    HW275480   5.609   1.736  12.111
91195SOL     OW75481   4.158  10.924   2.016
91195SOL    HW175482   4.252  10.914   2.005
91195SOL    HW275483   4.142  10.906   2.109
91196SOL     OW75484  12.606   8.590   9.201
91196SOL    HW175485  12.648   8.623   9.121
91196SOL    HW275486  12.537   8.654   9.219
91197SOL     OW75487   3.323   8.206  14.242
91197SOL    HW175488   3.338   8.117  14.211
91197SOL    HW275489   3.229   8.219  14.231
91198SOL     OW75490   4.539  13.552   9.055
91198SOL    HW175491   4.570  13.578   8.969
91198SOL    HW275492   4.586  13.609   9.116
91199SOL     OW75493  12.336  10.622   5.035
91199SOL    HW175494  12.317  10.538   4.993
91199SOL    HW275495  12.331  10.686   4.964
91200SOL     OW75496   0.978   7.432   2.267
91200SOL    HW175497   0.970   7.507   2.327
91200SOL    HW275498   0.908   7.373   2.294
91201SOL     OW75499  10.586   0.054   6.926
91201SOL    HW175500  10.545   0.096   7.001
91201SOL    HW275501  10.545  14.839   6.922
91202SOL     OW75502   0.707   7.301   2.165
91202SOL    HW175503   0.656   7.224   2.190
91202SOL    HW275504   0.694   7.308   2.070
91203SOL     OW75505  12.144   5.972   6.959
91203SOL    HW175506  12.096   5.942   7.036
91203SOL    HW275507  12.080   6.025   6.911
91204SOL     OW75508  11.638  13.528   0.244
91204SOL    HW175509  11.588  13.449   0.223
91204SOL    HW275510  11.582  13.600   0.215
91205SOL     OW75511   0.535   8.761   2.187
91205SOL    HW175512   0.616   8.785   2.232
91205SOL    HW275513   0.534   8.815   2.108
91206SOL     OW75514   8.549   3.036  13.255
91206SOL    HW175515   8.492   3.009  13.327
91206SOL    HW275516   8.583   3.121  13.282
91207SOL     OW75517   7.129   9.274   0.094
91207SOL    HW175518   7.038   9.288   0.119
91207SOL    HW275519   7.125   9.219   0.016
91208SOL     OW75520  10.851  14.092  13.737
91208SOL    HW175521  10.820  14.156  13.673
91208SOL    HW275522  10.935  14.128  13.767
91209SOL     OW75523   4.752  12.885  11.254
91209SOL    HW175524   4.691  12.938  11.305
91209SOL    HW275525   4.773  12.811  11.311
91210SOL     OW75526   1.592   7.896  12.385
91210SOL    HW175527   1.668   7.872  12.332
91210SOL    HW275528   1.630   7.929  12.466
91211SOL     OW75529   0.391   0.288   8.740
91211SOL    HW175530   0.463   0.237   8.702
91211SOL    HW275531   0.373   0.356   8.674
91212SOL     OW75532   0.182   6.420   8.865
91212SOL    HW175533   0.266   6.374   8.856
91212SOL    HW275534   0.185   6.459   8.952
91213SOL     OW75535   8.736   7.074   9.529
91213SOL    HW175536   8.736   6.982   9.554
91213SOL    HW275537   8.828   7.099   9.529
91214SOL     OW75538   3.060   9.461   7.978
91214SOL    HW175539   3.043   9.386   8.036
91214SOL    HW275540   3.156   9.464   7.972
91215SOL     OW75541   8.969   5.284   8.816
91215SOL    HW175542   8.890   5.323   8.777
91215SOL    HW275543   9.033   5.354   8.814
91216SOL     OW75544  10.855   9.721   4.164
91216SOL    HW175545  10.813   9.764   4.089
91216SOL    HW275546  10.791   9.728   4.235
91217SOL     OW75547  10.798   9.951   0.777
91217SOL    HW175548  10.813   9.860   0.751
91217SOL    HW275549  10.702   9.959   0.782
91218SOL     OW75550  12.200   8.069  11.209
91218SOL    HW175551  12.247   8.125  11.271
91218SOL    HW275552  12.111   8.065  11.242
91219SOL     OW75553   8.632   1.432   0.193
91219SOL    HW175554   8.621   1.471   0.279
91219SOL    HW275555   8.609   1.340   0.204
91220SOL     OW75556   5.676  10.074   8.281
91220SOL    HW175557   5.682  10.155   8.230
91220SOL    HW275558   5.766  10.043   8.287
91221SOL     OW75559  10.759   7.743  11.239
91221SOL    HW175560  10.769   7.776  11.329
91221SOL    HW275561  10.811   7.803  11.186
91222SOL     OW75562  14.389  13.457   5.067
91222SOL    HW175563  14.315  13.427   5.120
91222SOL    HW275564  14.420  13.536   5.112
91223SOL     OW75565   8.135   2.171  13.005
91223SOL    HW175566   8.157   2.198  13.094
91223SOL    HW275567   8.106   2.080  13.013
91224SOL     OW75568  14.496  10.898  11.118
91224SOL    HW175569  14.549  10.943  11.053
91224SOL    HW275570  14.555  10.834  11.158
91225SOL     OW75571   5.715   0.610   9.377
91225SOL    HW175572   5.740   0.702   9.364
91225SOL    HW275573   5.724   0.596   9.471
91226SOL     OW75574  10.854  14.217   9.026
91226SOL    HW175575  10.929  14.169   9.061
91226SOL    HW275576  10.781  14.193   9.084
91227SOL     OW75577  12.192   5.247   8.470
91227SOL    HW175578  12.126   5.212   8.410
91227SOL    HW275579  12.273   5.203   8.444
91228SOL     OW75580   7.569  12.988   1.151
91228SOL    HW175581   7.612  13.013   1.069
91228SOL    HW275582   7.476  13.002   1.135
91229SOL     OW75583  12.472   4.712   4.362
91229SOL    HW175584  12.514   4.628   4.378
91229SOL    HW275585  12.495   4.765   4.438
91230SOL     OW75586  13.742   6.699  11.056
91230SOL    HW175587  13.825   6.744  11.041
91230SOL    HW275588  13.737   6.634  10.986
91231SOL     OW75589   5.517   0.655   6.254
91231SOL    HW175590   5.472   0.681   6.173
91231SOL    HW275591   5.505   0.729   6.313
91232SOL     OW75592  10.730   3.688   1.702
91232SOL    HW175593  10.823   3.686   1.725
91232SOL    HW275594  10.691   3.622   1.759
91233SOL     OW75595  14.120  12.555   6.794
91233SOL    HW175596  14.193  12.615   6.778
91233SOL    HW275597  14.068  12.599   6.861
91234SOL     OW75598   7.560   9.074   7.257
91234SOL    HW175599   7.588   8.990   7.293
91234SOL    HW275600   7.549   9.131   7.333
91235SOL     OW75601   9.289  12.715   0.028
91235SOL    HW175602   9.216  12.689  14.844
91235SOL    HW275603   9.252  12.781   0.086
91236SOL     OW75604   6.512   0.064  13.665
91236SOL    HW175605   6.433   0.050  13.614
91236SOL    HW275606   6.579   0.011  13.622
91237SOL     OW75607   3.290  13.373   8.867
91237SOL    HW175608   3.355  13.373   8.938
91237SOL    HW275609   3.234  13.447   8.888
91238SOL     OW75610  14.543  12.267   1.072
91238SOL    HW175611  14.546  12.244   0.979
91238SOL    HW275612  14.634  12.272   1.099
91239SOL     OW75613   7.857   7.084   9.315
91239SOL    HW175614   7.783   7.122   9.363
91239SOL    HW275615   7.916   7.055   9.384
91240SOL     OW75616   2.415   2.502   1.145
91240SOL    HW175617   2.340   2.527   1.198
91240SOL    HW275618   2.460   2.434   1.196
91241SOL     OW75619   5.263  12.169  10.012
91241SOL    HW175620   5.227  12.130  10.092
91241SOL    HW275621   5.338  12.220  10.042
91242SOL     OW75622  12.977   0.608   2.206
91242SOL    HW175623  13.009   0.698   2.200
91242SOL    HW275624  12.901   0.614   2.264
91243SOL     OW75625  12.800   4.965   2.687
91243SOL    HW175626  12.804   4.976   2.592
91243SOL    HW275627  12.707   4.972   2.708
91244SOL     OW75628  13.764   8.578  13.374
91244SOL    HW175629  13.777   8.498  13.323
91244SOL    HW275630  13.771   8.550  13.465
91245SOL     OW75631   5.554   3.999   3.384
91245SOL    HW175632   5.613   4.065   3.350
91245SOL    HW275633   5.611   3.937   3.430
91246SOL     OW75634  13.148   6.403   1.436
91246SOL    HW175635  13.096   6.370   1.363
91246SOL    HW275636  13.179   6.488   1.408
91247SOL     OW75637  11.138   0.267   1.507
91247SOL    HW175638  11.056   0.313   1.527
91247SOL    HW275639  11.190   0.331   1.458
91248SOL     OW75640   4.987  14.116   7.991
91248SOL    HW175641   5.054  14.170   8.032
91248SOL    HW275642   5.023  14.028   7.991
91249SOL     OW75643   4.984  14.558   7.683
91249SOL    HW175644   5.045  14.498   7.640
91249SOL    HW275645   4.925  14.500   7.732
91250SOL     OW75646   5.579   2.007   5.542
91250SOL    HW175647   5.541   2.032   5.626
91250SOL    HW275648   5.666   2.047   5.542
91251SOL     OW75649  11.380   3.438   7.713
91251SOL    HW175650  11.428   3.379   7.655
91251SOL    HW275651  11.327   3.380   7.768
91252SOL     OW75652   4.401  11.763   3.654
91252SOL    HW175653   4.313  11.753   3.691
91252SOL    HW275654   4.445  11.681   3.676
91253SOL     OW75655   6.257   1.121   7.581
91253SOL    HW175656   6.325   1.186   7.567
91253SOL    HW275657   6.178   1.171   7.602
91254SOL     OW75658   8.021   0.173  12.582
91254SOL    HW175659   8.091   0.162  12.518
91254SOL    HW275660   8.050   0.121  12.658
91255SOL     OW75661   8.655   6.970   7.466
91255SOL    HW175662   8.611   7.040   7.417
91255SOL    HW275663   8.597   6.894   7.456
91256SOL     OW75664   7.026   8.087  14.543
91256SOL    HW175665   7.026   8.035  14.462
91256SOL    HW275666   7.062   8.028  14.609
91257SOL     OW75667   7.205   4.214  10.473
91257SOL    HW175668   7.153   4.134  10.470
91257SOL    HW275669   7.160   4.269  10.538
91258SOL     OW75670  13.152   7.288  10.565
91258SOL    HW175671  13.102   7.277  10.484
91258SOL    HW275672  13.158   7.383  10.576
91259SOL     OW75673  13.551  12.489   1.591
91259SOL    HW175674  13.604  12.506   1.669
91259SOL    HW275675  13.469  12.453   1.624
91260SOL     OW75676   1.220  14.160   4.230
91260SOL    HW175677   1.171  14.236   4.263
91260SOL    HW275678   1.304  14.197   4.204
91261SOL     OW75679  12.793  14.855  10.573
91261SOL    HW175680  12.847  14.847  10.494
91261SOL    HW275681  12.854   0.014  10.640
91262SOL     OW75682  12.921   1.316   7.343
91262SOL    HW175683  12.877   1.360   7.416
91262SOL    HW275684  12.974   1.384   7.302
91263SOL     OW75685   6.634   2.526  11.907
91263SOL    HW175686   6.726   2.551  11.907
91263SOL    HW275687   6.598   2.561  11.988
91264SOL     OW75688  14.400   8.506  14.527
91264SOL    HW175689  14.425   8.537  14.440
91264SOL    HW275690  14.313   8.468  14.514
91265SOL     OW75691  13.613   9.857  12.290
91265SOL    HW175692  13.621   9.915  12.214
91265SOL    HW275693  13.672   9.896  12.355
91266SOL     OW75694   3.022  14.628   0.508
91266SOL    HW175695   3.110  14.591   0.502
91266SOL    HW275696   3.035  14.716   0.542
91267SOL     OW75697  13.938   3.124  10.118
91267SOL    HW175698  13.973   3.209  10.143
91267SOL    HW275699  13.981   3.103  10.035
91268SOL     OW75700   9.247   2.823  12.910
91268SOL    HW175701   9.296   2.753  12.954
91268SOL    HW275702   9.259   2.900  12.965
91269SOL     OW75703  13.375   7.346   9.198
91269SOL    HW175704  13.310   7.396   9.247
91269SOL    HW275705  13.329   7.316   9.120
91270SOL     OW75706  13.664   6.550   4.611
91270SOL    HW175707  13.725   6.515   4.546
91270SOL    HW275708  13.578   6.515   4.585
91271SOL     OW75709   8.462  13.321   6.208
91271SOL    HW175710   8.389  13.283   6.158
91271SOL    HW275711   8.458  13.279   6.293
91272SOL     OW75712  11.531  14.844   7.188
91272SOL    HW175713  11.616  14.801   7.180
91272SOL    HW275714  11.468  14.780   7.155
91273SOL     OW75715   8.869   2.563   1.665
91273SOL    HW175716   8.829   2.476   1.663
91273SOL    HW275717   8.900   2.576   1.575
91274SOL     OW75718  13.437   1.564  11.945
91274SOL    HW175719  13.522   1.525  11.963
91274SOL    HW275720  13.385   1.545  12.023
91275SOL     OW75721   6.646   4.576  12.617
91275SOL    HW175722   6.628   4.644  12.683
91275SOL    HW275723   6.708   4.616  12.557
91276SOL     OW75724  12.057   7.678   4.098
91276SOL    HW175725  12.084   7.613   4.163
91276SOL    HW275726  11.983   7.723   4.138
91277SOL     OW75727   5.602  13.085  12.872
91277SOL    HW175728   5.697  13.096  12.873
91277SOL    HW275729   5.588  12.991  12.884
91278SOL     OW75730  10.263   1.381  14.295
91278SOL    HW175731  10.172   1.406  14.279
91278SOL    HW275732  10.306   1.464  14.317
91279SOL     OW75733   3.815   0.681  13.953
91279SOL    HW175734   3.857   0.766  13.942
91279SOL    HW275735   3.785   0.657  13.866
91280SOL     OW75736   3.974   2.948   0.085
91280SOL    HW175737   3.983   3.005   0.161
91280SOL    HW275738   4.021   2.994   0.015
91281SOL     OW75739  11.725   6.260   9.407
91281SOL    HW175740  11.662   6.238   9.476
91281SOL    HW275741  11.682   6.234   9.326
91282SOL     OW75742   8.289  13.890   3.617
91282SOL    HW175743   8.355  13.935   3.668
91282SOL    HW275744   8.326  13.886   3.528
91283SOL     OW75745   8.911   7.722   7.501
91283SOL    HW175746   8.855   7.644   7.504
91283SOL    HW275747   8.865   7.786   7.555
91284SOL     OW75748   9.449   8.220  14.060
91284SOL    HW175749   9.356   8.196  14.064
91284SOL    HW275750   9.449   8.311  14.032
91285SOL     OW75751   3.725   0.751   7.549
91285SOL    HW175752   3.671   0.830   7.553
91285SOL    HW275753   3.715   0.711   7.635
91286SOL     OW75754  13.058   9.045   8.133
91286SOL    HW175755  13.101   8.967   8.169
91286SOL    HW275756  13.129   9.092   8.089
91287SOL     OW75757   9.952  11.928   9.956
91287SOL    HW175758   9.996  12.009   9.929
91287SOL    HW275759   9.866  11.958   9.986
91288SOL     OW75760   9.045   7.074  11.186
91288SOL    HW175761   8.967   7.086  11.241
91288SOL    HW275762   9.105   7.023  11.241
91289SOL     OW75763  11.961  12.000  12.689
91289SOL    HW175764  12.052  12.028  12.700
91289SOL    HW275765  11.912  12.082  12.677
91290SOL     OW75766  11.400   4.497  11.305
91290SOL    HW175767  11.467   4.488  11.373
91290SOL    HW275768  11.434   4.447  11.231
91291SOL     OW75769  13.564   7.042  13.452
91291SOL    HW175770  13.542   7.112  13.390
91291SOL    HW275771  13.657   7.054  13.469
91292SOL     OW75772   4.863  10.932   2.467
91292SOL    HW175773   4.822  11.008   2.508
91292SOL    HW275774   4.946  10.921   2.513
91293SOL     OW75775  14.226   1.797   8.243
91293SOL    HW175776  14.264   1.742   8.311
91293SOL    HW275777  14.192   1.873   8.290
91294SOL     OW75778   4.924   6.747   7.350
91294SOL    HW175779   4.908   6.832   7.310
91294SOL    HW275780   5.012   6.723   7.323
91295SOL     OW75781   2.012  14.791   7.072
91295SOL    HW175782   1.956  14.807   6.996
91295SOL    HW275783   1.953  14.753   7.138
91296SOL     OW75784  11.279   6.329   3.071
91296SOL    HW175785  11.331   6.288   3.140
91296SOL    HW275786  11.211   6.379   3.117
91297SOL     OW75787   2.678   8.554   3.720
91297SOL    HW175788   2.661   8.558   3.626
91297SOL    HW275789   2.633   8.474   3.749
91298SOL     OW75790   6.590   5.125   5.194
91298SOL    HW175791   6.504   5.108   5.232
91298SOL    HW275792   6.647   5.142   5.269
91299SOL     OW75793   1.726   5.872   5.389
91299SOL    HW175794   1.638   5.871   5.426
91299SOL    HW275795   1.712   5.869   5.294
91300SOL     OW75796   5.884  10.043   8.971
91300SOL    HW175797   5.810  10.091   9.009
91300SOL    HW275798   5.926  10.107   8.913
91301SOL     OW75799  13.120   2.856  11.705
91301SOL    HW175800  13.048   2.810  11.661
91301SOL    HW275801  13.192   2.793  11.706
91302SOL     OW75802   7.599   6.409   7.723
91302SOL    HW175803   7.673   6.409   7.663
91302SOL    HW275804   7.568   6.319   7.723
91303SOL     OW75805  11.931  12.042  10.098
91303SOL    HW175806  11.915  11.963  10.149
91303SOL    HW275807  11.933  12.012  10.007
91304SOL     OW75808   1.180  13.966   9.381
91304SOL    HW175809   1.095  13.966   9.426
91304SOL    HW275810   1.160  13.997   9.293
91305SOL     OW75811   1.037  14.000   2.228
91305SOL    HW175812   1.082  13.987   2.144
91305SOL    HW275813   1.064  14.087   2.257
91306SOL     OW75814   6.917  13.475   0.207
91306SOL    HW175815   6.969  13.538   0.258
91306SOL    HW275816   6.981  13.431   0.151
91307SOL     OW75817   1.942   9.237   2.002
91307SOL    HW175818   1.925   9.144   1.990
91307SOL    HW275819   2.025   9.252   1.957
91308SOL     OW75820   2.585   5.870   4.692
91308SOL    HW175821   2.554   5.785   4.661
91308SOL    HW275822   2.663   5.888   4.641
91309SOL     OW75823   1.763   9.591   4.419
91309SOL    HW175824   1.784   9.574   4.328
91309SOL    HW275825   1.795   9.514   4.466
91310SOL     OW75826   7.582  14.828   6.884
91310SOL    HW175827   7.537   0.039   6.867
91310SOL    HW275828   7.672  14.853   6.905
91311SOL     OW75829  10.243  10.062  13.486
91311SOL    HW175830  10.188  10.074  13.563
91311SOL    HW275831  10.289   9.979  13.501
91312SOL     OW75832  12.540   0.827   3.873
91312SOL    HW175833  12.537   0.922   3.861
91312SOL    HW275834  12.543   0.791   3.784
91313SOL     OW75835  13.926   3.175   4.445
91313SOL    HW175836  13.844   3.125   4.446
91313SOL    HW275837  13.991   3.115   4.480
91314SOL     OW75838   6.130   0.221   2.558
91314SOL    HW175839   6.080   0.173   2.623
91314SOL    HW275840   6.064   0.257   2.498
91315SOL     OW75841   7.999   5.552  13.934
91315SOL    HW175842   8.004   5.612  13.859
91315SOL    HW275843   7.955   5.603  14.002
91316SOL     OW75844   6.407  13.798  11.818
91316SOL    HW175845   6.358  13.767  11.894
91316SOL    HW275846   6.354  13.868  11.781
91317SOL     OW75847   5.940   2.055   9.944
91317SOL    HW175848   6.019   2.002   9.932
91317SOL    HW275849   5.880   1.997   9.991
91318SOL     OW75850  14.246   5.575   0.162
91318SOL    HW175851  14.207   5.493   0.189
91318SOL    HW275852  14.216   5.639   0.226
91319SOL     OW75853  11.491  10.813  13.945
91319SOL    HW175854  11.443  10.765  13.878
91319SOL    HW275855  11.431  10.818  14.019
91320SOL     OW75856  11.614   6.870   7.197
91320SOL    HW175857  11.532   6.830   7.226
91320SOL    HW275858  11.599   6.890   7.104
91321SOL     OW75859   2.940  12.678   8.474
91321SOL    HW175860   2.925  12.734   8.550
91321SOL    HW275861   2.864  12.694   8.418
91322SOL     OW75862   2.493   0.805   6.434
91322SOL    HW175863   2.565   0.764   6.481
91322SOL    HW275864   2.496   0.766   6.347
91323SOL     OW75865   1.335   5.164  14.421
91323SOL    HW175866   1.275   5.202  14.357
91323SOL    HW275867   1.422   5.185  14.387
91324SOL     OW75868   4.710   9.047   9.844
91324SOL    HW175869   4.680   9.102   9.916
91324SOL    HW275870   4.643   8.980   9.834
91325SOL     OW75871   0.784   1.428   3.736
91325SOL    HW175872   0.853   1.384   3.787
91325SOL    HW275873   0.790   1.389   3.649
91326SOL     OW75874  11.653   3.674   1.673
91326SOL    HW175875  11.698   3.636   1.748
91326SOL    HW275876  11.642   3.601   1.612
91327SOL     OW75877  13.973   0.520  12.596
91327SOL    HW175878  13.961   0.530  12.690
91327SOL    HW275879  13.896   0.470  12.567
91328SOL     OW75880  11.113   7.388   2.433
91328SOL    HW175881  11.067   7.308   2.410
91328SOL    HW275882  11.118   7.438   2.351
91329SOL     OW75883  13.129   0.130  13.148
91329SOL    HW175884  13.064   0.105  13.083
91329SOL    HW275885  13.202   0.070  13.133
91330SOL     OW75886   4.110   1.819   2.748
91330SOL    HW175887   4.147   1.751   2.803
91330SOL    HW275888   4.162   1.897   2.768
91331SOL     OW75889  10.803   9.073   0.268
91331SOL    HW175890  10.772   9.153   0.226
91331SOL    HW275891  10.739   9.006   0.241
91332SOL     OW75892   4.596  11.719   2.275
91332SOL    HW175893   4.685  11.684   2.283
91332SOL    HW275894   4.557  11.669   2.203
91333SOL     OW75895   8.609   1.911   8.405
91333SOL    HW175896   8.595   1.863   8.486
91333SOL    HW275897   8.541   1.880   8.346
91334SOL     OW75898   9.329   4.983   4.423
91334SOL    HW175899   9.324   4.892   4.396
91334SOL    HW275900   9.269   5.029   4.364
91335SOL     OW75901   6.203   5.764  11.191
91335SOL    HW175902   6.244   5.688  11.150
91335SOL    HW275903   6.211   5.834  11.126
91336SOL     OW75904   6.732   3.232   8.351
91336SOL    HW175905   6.689   3.172   8.412
91336SOL    HW275906   6.661   3.282   8.313
91337SOL     OW75907  11.178  12.581   3.683
91337SOL    HW175908  11.093  12.546   3.710
91337SOL    HW275909  11.242  12.516   3.714
91338SOL     OW75910   8.075   0.874  11.094
91338SOL    HW175911   8.001   0.828  11.055
91338SOL    HW275912   8.151   0.839  11.048
91339SOL     OW75913   6.188   0.616   5.198
91339SOL    HW175914   6.269   0.618   5.248
91339SOL    HW275915   6.209   0.658   5.114
91340SOL     OW75916  10.070  10.514   1.586
91340SOL    HW175917  10.145  10.572   1.571
91340SOL    HW275918  10.080  10.485   1.676
91341SOL     OW75919   9.924   2.986   8.179
91341SOL    HW175920   9.986   3.038   8.128
91341SOL    HW275921   9.978   2.943   8.245
91342SOL     OW75922   8.587   9.678   2.245
91342SOL    HW175923   8.606   9.592   2.282
91342SOL    HW275924   8.608   9.669   2.152
91343SOL     OW75925   0.474  12.920   7.845
91343SOL    HW175926   0.569  12.919   7.843
91343SOL    HW275927   0.450  13.003   7.803
91344SOL     OW75928   1.246  14.553   7.214
91344SOL    HW175929   1.200  14.626   7.171
91344SOL    HW275930   1.193  14.476   7.192
91345SOL     OW75931  10.371   3.147  11.292
91345SOL    HW175932  10.309   3.122  11.361
91345SOL    HW275933  10.415   3.225  11.327
91346SOL     OW75934   4.246  14.573   4.216
91346SOL    HW175935   4.260  14.478   4.214
91346SOL    HW275936   4.257  14.597   4.308
91347SOL     OW75937   4.105   6.043   4.794
91347SOL    HW175938   4.079   5.958   4.828
91347SOL    HW275939   4.060   6.106   4.850
91348SOL     OW75940   1.150  14.762   7.088
91348SOL    HW175941   1.185  14.807   7.010
91348SOL    HW275942   1.097  14.829   7.132
91349SOL     OW75943   7.293  14.633  10.769
91349SOL    HW175944   7.343  14.679  10.701
91349SOL    HW275945   7.320  14.674  10.851
91350SOL     OW75946   2.179   3.633   9.779
91350SOL    HW175947   2.110   3.599   9.722
91350SOL    HW275948   2.194   3.564   9.842
91351SOL     OW75949   9.190   3.241  10.241
91351SOL    HW175950   9.272   3.280  10.271
91351SOL    HW275951   9.191   3.251  10.146
91352SOL     OW75952   7.909  14.812   0.224
91352SOL    HW175953   7.943  14.852   0.144
91352SOL    HW275954   7.874  14.727   0.196
91353SOL     OW75955   4.113   1.875   3.923
91353SOL    HW175956   4.137   1.783   3.922
91353SOL    HW275957   4.112   1.898   4.016
91354SOL     OW75958   4.542   5.837   9.202
91354SOL    HW175959   4.479   5.795   9.260
91354SOL    HW275960   4.612   5.866   9.261
91355SOL     OW75961  14.477  11.690  11.206
91355SOL    HW175962  14.514  11.608  11.175
91355SOL    HW275963  14.541  11.756  11.181
91356SOL     OW75964  14.396  14.463   8.642
91356SOL    HW175965  14.408  14.385   8.696
91356SOL    HW275966  14.477  14.469   8.590
91357SOL     OW75967   2.804   6.703  12.937
91357SOL    HW175968   2.774   6.785  12.976
91357SOL    HW275969   2.863   6.729  12.867
91358SOL     OW75970  12.969   3.633   5.230
91358SOL    HW175971  13.017   3.563   5.185
91358SOL    HW275972  12.922   3.678   5.160
91359SOL     OW75973  14.475   8.847  11.833
91359SOL    HW175974  14.498   8.767  11.881
91359SOL    HW275975  14.394   8.877  11.874
91360SOL     OW75976   8.469  13.775  12.873
91360SOL    HW175977   8.456  13.857  12.921
91360SOL    HW275978   8.489  13.710  12.942
91361SOL     OW75979   5.793   9.849   3.091
91361SOL    HW175980   5.822   9.808   3.010
91361SOL    HW275981   5.780   9.941   3.068
91362SOL     OW75982   4.014  11.551   2.796
91362SOL    HW175983   4.078  11.618   2.774
91362SOL    HW275984   3.931  11.585   2.763
91363SOL     OW75985  12.146   4.464   0.102
91363SOL    HW175986  12.068   4.495   0.148
91363SOL    HW275987  12.142   4.508   0.017
91364SOL     OW75988  10.525   4.161  12.936
91364SOL    HW175989  10.445   4.202  12.903
91364SOL    HW275990  10.503   4.131  13.024
91365SOL     OW75991   4.450   4.956  13.986
91365SOL    HW175992   4.461   5.048  13.959
91365SOL    HW275993   4.364   4.954  14.029
91366SOL     OW75994   1.099   7.069   4.702
91366SOL    HW175995   1.114   7.109   4.788
91366SOL    HW275996   1.015   7.024   4.711
91367SOL     OW75997  14.042  11.776   0.788
91367SOL    HW175998  14.113  11.821   0.833
91367SOL    HW275999  14.002  11.721   0.856
91368SOL     OW76000  13.949   6.642   5.562
91368SOL    HW176001  13.934   6.625   5.468
91368SOL    HW276002  13.869   6.611   5.604
91369SOL     OW76003   3.822  11.516   5.397
91369SOL    HW176004   3.855  11.449   5.337
91369SOL    HW276005   3.741  11.479   5.431
91370SOL     OW76006   6.643   4.529  11.406
91370SOL    HW176007   6.724   4.577  11.388
91370SOL    HW276008   6.581   4.596  11.435
91371SOL     OW76009  12.582   9.651   1.824
91371SOL    HW176010  12.645   9.624   1.757
91371SOL    HW276011  12.521   9.578   1.831
91372SOL     OW76012   3.533   5.226  11.844
91372SOL    HW176013   3.518   5.306  11.794
91372SOL    HW276014   3.446   5.199  11.873
91373SOL     OW76015   5.252   6.872   7.602
91373SOL    HW176016   5.165   6.839   7.625
91373SOL    HW276017   5.237   6.957   7.561
91374SOL     OW76018   3.437   6.510   4.764
91374SOL    HW176019   3.475   6.566   4.696
91374SOL    HW276020   3.484   6.534   4.844
91375SOL     OW76021  10.186   0.388   2.773
91375SOL    HW176022  10.148   0.438   2.845
91375SOL    HW276023  10.124   0.398   2.701
91376SOL     OW76024  11.651   6.735   8.299
91376SOL    HW176025  11.616   6.710   8.385
91376SOL    HW276026  11.573   6.743   8.244
91377SOL     OW76027   9.155  10.999   2.945
91377SOL    HW176028   9.205  11.063   2.895
91377SOL    HW276029   9.125  10.935   2.881
91378SOL     OW76030  12.466  14.701   8.460
91378SOL    HW176031  12.468  14.650   8.541
91378SOL    HW276032  12.433  14.787   8.487
91379SOL     OW76033   1.301   5.031   8.172
91379SOL    HW176034   1.313   5.109   8.226
91379SOL    HW276035   1.335   5.055   8.086
91380SOL     OW76036  12.065   7.834   3.395
91380SOL    HW176037  12.022   7.919   3.405
91380SOL    HW276038  12.032   7.782   3.468
91381SOL     OW76039   6.228   7.427   9.594
91381SOL    HW176040   6.166   7.379   9.540
91381SOL    HW276041   6.280   7.478   9.532
91382SOL     OW76042  10.739   9.472   8.233
91382SOL    HW176043  10.711   9.551   8.187
91382SOL    HW276044  10.810   9.500   8.290
91383SOL     OW76045   7.748   7.378   1.427
91383SOL    HW176046   7.790   7.444   1.372
91383SOL    HW276047   7.657   7.406   1.434
91384SOL     OW76048   6.231   3.178   2.390
91384SOL    HW176049   6.174   3.231   2.336
91384SOL    HW276050   6.172   3.136   2.453
91385SOL     OW76051   9.771   0.150   1.739
91385SOL    HW176052   9.816   0.215   1.793
91385SOL    HW276053   9.757   0.076   1.798
91386SOL     OW76054  14.824   8.430   5.449
91386SOL    HW176055  14.843   8.345   5.490
91386SOL    HW276056   0.023   8.443   5.387
91387SOL     OW76057   3.194   5.818   0.115
91387SOL    HW176058   3.144   5.899   0.117
91387SOL    HW276059   3.250   5.822   0.193
91388SOL     OW76060   1.574   7.758  12.722
91388SOL    HW176061   1.545   7.760  12.813
91388SOL    HW276062   1.500   7.719  12.675
91389SOL     OW76063  13.369  14.156   4.358
91389SOL    HW176064  13.396  14.241   4.392
91389SOL    HW276065  13.376  14.097   4.433
91390SOL     OW76066   1.897   1.904   5.141
91390SOL    HW176067   1.889   1.812   5.115
91390SOL    HW276068   1.808   1.938   5.136
91391SOL     OW76069   2.313  12.778   4.820
91391SOL    HW176070   2.348  12.829   4.747
91391SOL    HW276071   2.323  12.836   4.896
91392SOL     OW76072   0.511  12.911   1.764
91392SOL    HW176073   0.550  12.831   1.798
91392SOL    HW276074   0.542  12.980   1.823
91393SOL     OW76075  10.715   2.539   4.216
91393SOL    HW176076  10.772   2.575   4.284
91393SOL    HW276077  10.769   2.540   4.136
91394SOL     OW76078   5.174  10.256  12.353
91394SOL    HW176079   5.121  10.309  12.412
91394SOL    HW276080   5.149  10.285  12.265
91395SOL     OW76081   1.795   2.062   1.478
91395SOL    HW176082   1.781   2.062   1.573
91395SOL    HW276083   1.879   2.106   1.466
91396SOL     OW76084   6.463  14.454  13.003
91396SOL    HW176085   6.525  14.524  13.022
91396SOL    HW276086   6.516  14.383  12.968
91397SOL     OW76087   7.185  11.668  14.589
91397SOL    HW176088   7.161  11.597  14.529
91397SOL    HW276089   7.277  11.652  14.609
91398SOL     OW76090   2.926   6.297  10.916
91398SOL    HW176091   2.912   6.389  10.940
91398SOL    HW276092   2.944   6.254  11.000
91399SOL     OW76093   9.677  11.066   0.116
91399SOL    HW176094   9.757  11.032   0.075
91399SOL    HW276095   9.608  11.051   0.051
91400SOL     OW76096   7.967  10.560   4.851
91400SOL    HW176097   7.970  10.597   4.763
91400SOL    HW276098   7.937  10.632   4.906
91401SOL     OW76099   8.460   1.142   4.404
91401SOL    HW176100   8.407   1.218   4.383
91401SOL    HW276101   8.480   1.102   4.320
91402SOL     OW76102  11.915   2.479   9.906
91402SOL    HW176103  11.955   2.438   9.983
91402SOL    HW276104  11.855   2.544   9.942
91403SOL     OW76105  12.219  12.378   5.750
91403SOL    HW176106  12.171  12.456   5.777
91403SOL    HW276107  12.150  12.314   5.729
91404SOL     OW76108   2.782   7.264   3.489
91404SOL    HW176109   2.799   7.262   3.395
91404SOL    HW276110   2.838   7.195   3.525
91405SOL     OW76111   7.203   8.649   4.757
91405SOL    HW176112   7.204   8.613   4.845
91405SOL    HW276113   7.241   8.581   4.702
91406SOL     OW76114  14.450   1.223  12.323
91406SOL    HW176115  14.484   1.163  12.257
91406SOL    HW276116  14.426   1.302  12.274
91407SOL     OW76117  11.497  12.270  14.475
91407SOL    HW176118  11.414  12.279  14.429
91407SOL    HW276119  11.561  12.250  14.406
91408SOL     OW76120   6.611  10.950  12.847
91408SOL    HW176121   6.690  10.965  12.899
91408SOL    HW276122   6.544  10.931  12.912
91409SOL     OW76123   1.305   5.876   7.834
91409SOL    HW176124   1.395   5.843   7.830
91409SOL    HW276125   1.260   5.830   7.763
91410SOL     OW76126  11.964  12.486   1.075
91410SOL    HW176127  11.971  12.408   1.130
91410SOL    HW276128  12.042  12.538   1.096
91411SOL     OW76129   0.888  13.344  11.100
91411SOL    HW176130   0.868  13.313  11.188
91411SOL    HW276131   0.984  13.351  11.097
91412SOL     OW76132   9.114   7.304   2.525
91412SOL    HW176133   9.167   7.261   2.458
91412SOL    HW276134   9.076   7.380   2.481
91413SOL     OW76135   4.187   7.362   2.982
91413SOL    HW176136   4.112   7.356   2.923
91413SOL    HW276137   4.148   7.384   3.067
91414SOL     OW76138   4.226  14.516   4.902
91414SOL    HW176139   4.197  14.465   4.978
91414SOL    HW276140   4.145  14.545   4.860
91415SOL     OW76141   1.840  14.597   1.857
91415SOL    HW176142   1.791  14.590   1.939
91415SOL    HW276143   1.845  14.691   1.840
91416SOL     OW76144  12.306   9.238   1.996
91416SOL    HW176145  12.305   9.266   2.087
91416SOL    HW276146  12.315   9.143   2.000
91417SOL     OW76147   6.607   4.883  10.579
91417SOL    HW176148   6.666   4.899  10.505
91417SOL    HW276149   6.615   4.961  10.633
91418SOL     OW76150  13.976  13.148  10.500
91418SOL    HW176151  13.941  13.210  10.436
91418SOL    HW276152  14.014  13.204  10.568
91419SOL     OW76153   7.762  13.614   1.001
91419SOL    HW176154   7.679  13.651   0.971
91419SOL    HW276155   7.827  13.679   0.975
91420SOL     OW76156   4.529  13.336   8.514
91420SOL    HW176157   4.541  13.315   8.607
91420SOL    HW276158   4.613  13.316   8.474
91421SOL     OW76159   1.637  10.385   2.731
91421SOL    HW176160   1.663  10.372   2.822
91421SOL    HW276161   1.548  10.421   2.736
91422SOL     OW76162  10.162   8.228  14.408
91422SOL    HW176163  10.149   8.320  14.432
91422SOL    HW276164  10.089   8.208  14.350
91423SOL     OW76165  10.129   1.009   6.368
91423SOL    HW176166  10.177   0.929   6.348
91423SOL    HW276167  10.166   1.039   6.451
91424SOL     OW76168   0.256   5.581   7.141
91424SOL    HW176169   0.276   5.494   7.173
91424SOL    HW276170   0.229   5.568   7.050
91425SOL     OW76171   2.231   8.435   4.690
91425SOL    HW176172   2.179   8.481   4.756
91425SOL    HW276173   2.215   8.483   4.609
91426SOL     OW76174   3.453   6.618   1.623
91426SOL    HW176175   3.407   6.534   1.617
91426SOL    HW276176   3.517   6.616   1.552
91427SOL     OW76177   3.912  12.716   4.912
91427SOL    HW176178   3.859  12.637   4.909
91427SOL    HW276179   3.997  12.688   4.946
91428SOL     OW76180   7.270  12.119   5.562
91428SOL    HW176181   7.217  12.107   5.640
91428SOL    HW276182   7.272  12.214   5.548
91429SOL     OW76183   5.576  14.511   5.743
91429SOL    HW176184   5.616  14.596   5.726
91429SOL    HW276185   5.594  14.495   5.836
91430SOL     OW76186  13.813   4.016   3.947
91430SOL    HW176187  13.767   3.995   4.028
91430SOL    HW276188  13.867   3.939   3.929
91431SOL     OW76189   7.603   9.885  13.372
91431SOL    HW176190   7.698   9.881  13.362
91431SOL    HW276191   7.580   9.804  13.418
91432SOL     OW76192  13.469   4.870   6.542
91432SOL    HW176193  13.423   4.786   6.539
91432SOL    HW276194  13.543   4.859   6.482
91433SOL     OW76195   7.396   5.461   9.863
91433SOL    HW176196   7.401   5.455   9.768
91433SOL    HW276197   7.306   5.489   9.880
91434SOL     OW76198  11.046  14.135  12.654
91434SOL    HW176199  11.133  14.121  12.691
91434SOL    HW276200  11.021  14.222  12.685
91435SOL     OW76201   1.504  11.305  12.095
91435SOL    HW176202   1.534  11.219  12.124
91435SOL    HW276203   1.457  11.340  12.171
91436SOL     OW76204  11.935   6.387   3.066
91436SOL    HW176205  11.840   6.376   3.057
91436SOL    HW276206  11.965   6.304   3.103
91437SOL     OW76207  12.416   2.273   4.310
91437SOL    HW176208  12.364   2.193   4.300
91437SOL    HW276209  12.452   2.267   4.399
91438SOL     OW76210  14.362   0.662  10.087
91438SOL    HW176211  14.440   0.674  10.032
91438SOL    HW276212  14.390   0.689  10.174
91439SOL     OW76213   0.496   1.210   1.380
91439SOL    HW176214   0.460   1.291   1.414
91439SOL    HW276215   0.449   1.195   1.298
91440SOL     OW76216   0.332   3.048   7.346
91440SOL    HW176217   0.299   2.965   7.311
91440SOL    HW276218   0.266   3.113   7.322
91441SOL     OW76219   6.547   7.238   3.071
91441SOL    HW176220   6.611   7.295   3.028
91441SOL    HW276221   6.519   7.178   3.002
91442SOL     OW76222   2.646   8.090   0.809
91442SOL    HW176223   2.732   8.124   0.833
91442SOL    HW276224   2.584   8.140   0.863
91443SOL     OW76225   3.152   8.708   9.239
91443SOL    HW176226   3.154   8.647   9.313
91443SOL    HW276227   3.075   8.763   9.255
91444SOL     OW76228  12.978   5.839   7.899
91444SOL    HW176229  12.995   5.899   7.826
91444SOL    HW276230  13.033   5.763   7.880
91445SOL     OW76231   1.296   0.450  13.265
91445SOL    HW176232   1.346   0.482  13.341
91445SOL    HW276233   1.240   0.524  13.241
91446SOL     OW76234  13.412  11.678   4.384
91446SOL    HW176235  13.426  11.706   4.475
91446SOL    HW276236  13.431  11.584   4.385
91447SOL     OW76237   8.899  10.932   1.047
91447SOL    HW176238   8.866  11.022   1.053
91447SOL    HW276239   8.932  10.913   1.135
91448SOL     OW76240   5.558   5.061   6.555
91448SOL    HW176241   5.560   5.040   6.649
91448SOL    HW276242   5.522   5.149   6.551
91449SOL     OW76243   5.975   2.008   1.548
91449SOL    HW176244   5.936   1.965   1.472
91449SOL    HW276245   5.908   2.071   1.577
91450SOL     OW76246   1.727   8.709  12.720
91450SOL    HW176247   1.786   8.742  12.787
91450SOL    HW276248   1.655   8.772  12.717
91451SOL     OW76249  10.078   5.110  12.342
91451SOL    HW176250  10.068   5.205  12.332
91451SOL    HW276251  10.100   5.098  12.435
91452SOL     OW76252   8.117   1.225   9.100
91452SOL    HW176253   8.202   1.204   9.138
91452SOL    HW276254   8.081   1.292   9.158
91453SOL     OW76255   6.763   4.946   6.591
91453SOL    HW176256   6.813   5.011   6.542
91453SOL    HW276257   6.765   4.867   6.537
91454SOL     OW76258   8.213  13.599   1.592
91454SOL    HW176259   8.207  13.617   1.686
91454SOL    HW276260   8.221  13.503   1.587
91455SOL     OW76261   8.654   1.521   7.016
91455SOL    HW176262   8.718   1.513   7.086
91455SOL    HW276263   8.576   1.556   7.059
91456SOL     OW76264   0.511   9.730   3.736
91456SOL    HW176265   0.509   9.687   3.822
91456SOL    HW276266   0.428   9.778   3.731
91457SOL     OW76267   3.752  10.942   5.776
91457SOL    HW176268   3.742  10.850   5.755
91457SOL    HW276269   3.824  10.972   5.721
91458SOL     OW76270  11.334  14.239   6.108
91458SOL    HW176271  11.246  14.215   6.078
91458SOL    HW276272  11.388  14.237   6.029
91459SOL     OW76273   6.854   4.899   4.049
91459SOL    HW176274   6.833   4.894   3.955
91459SOL    HW276275   6.790   4.841   4.090
91460SOL     OW76276  10.234  13.009  14.871
91460SOL    HW176277  10.155  13.050   0.034
91460SOL    HW276278  10.234  12.921   0.037
91461SOL     OW76279   6.630   1.635   1.932
91461SOL    HW176280   6.606   1.726   1.950
91461SOL    HW276281   6.558   1.583   1.968
91462SOL     OW76282   8.641   1.047  12.856
91462SOL    HW176283   8.556   1.010  12.829
91462SOL    HW276284   8.632   1.141  12.839
91463SOL     OW76285   9.434   8.372   0.656
91463SOL    HW176286   9.527   8.358   0.639
91463SOL    HW276287   9.390   8.297   0.616
91464SOL     OW76288   0.976   9.557   5.387
91464SOL    HW176289   0.951   9.466   5.402
91464SOL    HW276290   1.071   9.557   5.388
91465SOL     OW76291   1.460  10.832  13.443
91465SOL    HW176292   1.555  10.832  13.455
91465SOL    HW276293   1.446  10.790  13.359
91466SOL     OW76294   3.165   7.621   2.135
91466SOL    HW176295   3.137   7.530   2.148
91466SOL    HW276296   3.140   7.640   2.044
91467SOL     OW76297   4.783   9.834   9.509
91467SOL    HW176298   4.756   9.916   9.468
91467SOL    HW276299   4.750   9.765   9.451
91468SOL     OW76300   0.718   8.050   8.365
91468SOL    HW176301   0.667   7.981   8.407
91468SOL    HW276302   0.739   8.111   8.435
91469SOL     OW76303   9.952   0.904   9.766
91469SOL    HW176304   9.954   0.933   9.675
91469SOL    HW276305  10.040   0.872   9.783
91470SOL     OW76306   2.065  11.753   7.044
91470SOL    HW176307   2.140  11.695   7.058
91470SOL    HW276308   1.993  11.693   7.022
91471SOL     OW76309   1.929  14.635   2.715
91471SOL    HW176310   1.861  14.638   2.647
91471SOL    HW276311   2.009  14.610   2.668
91472SOL     OW76312   8.607   8.155   6.369
91472SOL    HW176313   8.525   8.204   6.378
91472SOL    HW276314   8.581   8.063   6.380
91473SOL     OW76315   6.193  14.115   4.602
91473SOL    HW176316   6.138  14.181   4.643
91473SOL    HW276317   6.282  14.141   4.625
91474SOL     OW76318  11.133   7.814  12.337
91474SOL    HW176319  11.083   7.896  12.338
91474SOL    HW276320  11.114   7.776  12.251
91475SOL     OW76321  11.337  14.427  14.233
91475SOL    HW176322  11.339  14.373  14.312
91475SOL    HW276323  11.401  14.496  14.250
91476SOL     OW76324  12.135  13.386   3.689
91476SOL    HW176325  12.098  13.377   3.777
91476SOL    HW276326  12.146  13.480   3.676
91477SOL     OW76327  11.149   2.211  12.362
91477SOL    HW176328  11.243   2.227  12.372
91477SOL    HW276329  11.108   2.258  12.435
91478SOL     OW76330   4.353  13.997   9.745
91478SOL    HW176331   4.340  13.904   9.763
91478SOL    HW276332   4.347  14.039   9.831
91479SOL     OW76333   3.614   5.808  14.242
91479SOL    HW176334   3.676   5.758  14.294
91479SOL    HW276335   3.579   5.874  14.302
91480SOL     OW76336  10.177   9.558   5.080
91480SOL    HW176337  10.170   9.542   4.986
91480SOL    HW276338  10.087   9.574   5.109
91481SOL     OW76339   7.619   9.578   8.739
91481SOL    HW176340   7.592   9.545   8.825
91481SOL    HW276341   7.624   9.673   8.751
91482SOL     OW76342   4.054   7.162  10.721
91482SOL    HW176343   4.124   7.122  10.773
91482SOL    HW276344   4.082   7.153  10.630
91483SOL     OW76345  13.146  10.215   0.052
91483SOL    HW176346  13.099  10.205   0.135
91483SOL    HW276347  13.163  10.309   0.045
91484SOL     OW76348  14.496   8.079   0.761
91484SOL    HW176349  14.409   8.086   0.800
91484SOL    HW276350  14.492   7.999   0.709
91485SOL     OW76351   9.167   4.584   8.950
91485SOL    HW176352   9.187   4.495   8.920
91485SOL    HW276353   9.117   4.623   8.879
91486SOL     OW76354   9.759   6.878   1.660
91486SOL    HW176355   9.810   6.797   1.668
91486SOL    HW276356   9.820   6.941   1.621
91487SOL     OW76357   2.057  12.213   1.659
91487SOL    HW176358   2.019  12.196   1.745
91487SOL    HW276359   2.018  12.147   1.602
91488SOL     OW76360   9.825  10.415   7.170
91488SOL    HW176361   9.869  10.413   7.084
91488SOL    HW276362   9.878  10.357   7.225
91489SOL     OW76363  10.161  11.348   0.030
91489SOL    HW176364  10.122  11.416   0.085
91489SOL    HW276365  10.234  11.314   0.082
91490SOL     OW76366   2.826  11.987   9.486
91490SOL    HW176367   2.916  11.964   9.509
91490SOL    HW276368   2.808  12.066   9.537
91491SOL     OW76369   1.503  13.398   9.742
91491SOL    HW176370   1.409  13.415   9.745
91491SOL    HW276371   1.529  13.385   9.833
91492SOL     OW76372   5.460   5.354  12.668
91492SOL    HW176373   5.511   5.284  12.709
91492SOL    HW276374   5.501   5.367  12.583
91493SOL     OW76375  14.637  14.092   8.105
91493SOL    HW176376  14.609  14.035   8.177
91493SOL    HW276377  14.698  14.038   8.055
91494SOL     OW76378   3.244   6.065   7.306
91494SOL    HW176379   3.204   5.978   7.307
91494SOL    HW276380   3.178   6.123   7.343
91495SOL     OW76381   2.505   8.684   7.448
91495SOL    HW176382   2.549   8.734   7.517
91495SOL    HW276383   2.455   8.750   7.400
91496SOL     OW76384   9.304   1.894   5.456
91496SOL    HW176385   9.284   1.987   5.453
91496SOL    HW276386   9.327   1.878   5.548
91497SOL     OW76387   3.681   7.567   2.025
91497SOL    HW176388   3.730   7.648   2.040
91497SOL    HW276389   3.599   7.596   1.984
91498SOL     OW76390  11.292   5.278   7.166
91498SOL    HW176391  11.360   5.345   7.163
91498SOL    HW276392  11.263   5.279   7.258
91499SOL     OW76393   1.823   2.957   7.933
91499SOL    HW176394   1.808   2.882   7.990
91499SOL    HW276395   1.907   2.993   7.962
91500SOL     OW76396   0.540   7.688   5.237
91500SOL    HW176397   0.613   7.655   5.184
91500SOL    HW276398   0.567   7.674   5.327
91501SOL     OW76399   3.178   6.091  11.317
91501SOL    HW176400   3.239   6.153  11.357
91501SOL    HW276401   3.216   6.071  11.232
91502SOL     OW76402  13.055  11.697   3.784
91502SOL    HW176403  12.979  11.733   3.739
91502SOL    HW276404  13.130  11.747   3.750
91503SOL     OW76405  13.158  14.073   1.081
91503SOL    HW176406  13.084  14.043   1.029
91503SOL    HW276407  13.233  14.026   1.045
91504SOL     OW76408   7.387   2.705   1.414
91504SOL    HW176409   7.329   2.731   1.486
91504SOL    HW276410   7.475   2.729   1.445
91505SOL     OW76411  14.412   0.028  10.060
91505SOL    HW176412  14.375  14.843   9.993
91505SOL    HW276413  14.348   0.099  10.069
91506SOL     OW76414   2.435   2.433   6.568
91506SOL    HW176415   2.367   2.393   6.622
91506SOL    HW276416   2.465   2.509   6.619
91507SOL     OW76417   1.694   4.464   4.254
91507SOL    HW176418   1.724   4.540   4.304
91507SOL    HW276419   1.615   4.435   4.300
91508SOL     OW76420   7.748   8.390   8.249
91508SOL    HW176421   7.817   8.327   8.268
91508SOL    HW276422   7.789   8.475   8.264
91509SOL     OW76423  13.988   3.168   2.944
91509SOL    HW176424  13.934   3.247   2.945
91509SOL    HW276425  13.929   3.100   2.913
91510SOL     OW76426  11.959  10.227   1.814
91510SOL    HW176427  11.957  10.186   1.900
91510SOL    HW276428  11.887  10.290   1.816
91511SOL     OW76429   2.764   2.992   0.656
91511SOL    HW176430   2.760   3.087   0.670
91511SOL    HW276431   2.827   2.981   0.585
91512SOL     OW76432   1.780  14.238   9.871
91512SOL    HW176433   1.686  14.216   9.873
91512SOL    HW276434   1.822  14.155   9.847
91513SOL     OW76435   4.883   9.320  11.099
91513SOL    HW176436   4.909   9.389  11.160
91513SOL    HW276437   4.903   9.238  11.144
91514SOL     OW76438   3.688  10.373   6.469
91514SOL    HW176439   3.775  10.376   6.509
91514SOL    HW276440   3.658  10.283   6.480
91515SOL     OW76441  13.239  10.757  12.302
91515SOL    HW176442  13.193  10.726  12.380
91515SOL    HW276443  13.205  10.845  12.287
91516SOL     OW76444   1.599   5.958   6.416
91516SOL    HW176445   1.609   5.970   6.511
91516SOL    HW276446   1.570   6.043   6.384
91517SOL     OW76447   5.754   1.883  14.554
91517SOL    HW176448   5.752   1.931  14.471
91517SOL    HW276449   5.679   1.916  14.603
91518SOL     OW76450   1.276  12.996  12.748
91518SOL    HW176451   1.323  13.001  12.665
91518SOL    HW276452   1.341  13.022  12.814
91519SOL     OW76453  14.842   5.866   3.650
91519SOL    HW176454   0.008   5.896   3.567
91519SOL    HW276455   0.043   5.829   3.698
91520SOL     OW76456  11.487   7.566   8.303
91520SOL    HW176457  11.539   7.535   8.378
91520SOL    HW276458  11.551   7.576   8.233
91521SOL     OW76459  11.391  10.456   2.138
91521SOL    HW176460  11.348  10.374   2.164
91521SOL    HW276461  11.439  10.484   2.216
91522SOL     OW76462   5.577  13.328  10.275
91522SOL    HW176463   5.582  13.361  10.365
91522SOL    HW276464   5.645  13.376  10.229
91523SOL     OW76465  14.138   7.042   5.839
91523SOL    HW176466  14.115   6.969   5.897
91523SOL    HW276467  14.221   7.015   5.799
91524SOL     OW76468  14.152  14.334   1.118
91524SOL    HW176469  14.197  14.387   1.052
91524SOL    HW276470  14.102  14.271   1.068
91525SOL     OW76471  11.444   2.048   1.675
91525SOL    HW176472  11.505   2.083   1.740
91525SOL    HW276473  11.487   2.062   1.591
91526SOL     OW76474   4.772  11.930   9.989
91526SOL    HW176475   4.694  11.986   9.981
91526SOL    HW276476   4.840  11.976   9.939
91527SOL     OW76477   5.277   4.307   1.786
91527SOL    HW176478   5.278   4.402   1.772
91527SOL    HW276479   5.193   4.279   1.750
91528SOL     OW76480   7.762   0.235   2.452
91528SOL    HW176481   7.688   0.296   2.458
91528SOL    HW276482   7.730   0.156   2.495
91529SOL     OW76483  12.196   5.495   0.111
91529SOL    HW176484  12.145   5.536   0.181
91529SOL    HW276485  12.271   5.457   0.156
91530SOL     OW76486   4.669  11.952   2.110
91530SOL    HW176487   4.615  12.030   2.126
91530SOL    HW276488   4.633  11.885   2.167
91531SOL     OW76489   1.622   8.720   4.510
91531SOL    HW176490   1.573   8.762   4.439
91531SOL    HW276491   1.675   8.653   4.466
91532SOL     OW76492   8.238   2.715  12.747
91532SOL    HW176493   8.316   2.750  12.789
91532SOL    HW276494   8.220   2.634  12.794
91533SOL     OW76495  12.177   0.397   4.093
91533SOL    HW176496  12.216   0.437   4.171
91533SOL    HW276497  12.083   0.415   4.101
91534SOL     OW76498   0.616   8.096   0.502
91534SOL    HW176499   0.549   8.155   0.538
91534SOL    HW276500   0.566   8.030   0.453
91535SOL     OW76501   6.734  13.086  12.994
91535SOL    HW176502   6.642  13.078  13.022
91535SOL    HW276503   6.778  13.128  13.068
91536SOL     OW76504   2.011  11.604   6.194
91536SOL    HW176505   2.022  11.681   6.140
91536SOL    HW276506   2.039  11.631   6.282
91537SOL     OW76507   4.299  10.019   4.503
91537SOL    HW176508   4.290  10.096   4.447
91537SOL    HW276509   4.362   9.964   4.456
91538SOL     OW76510  14.810   8.392  13.786
91538SOL    HW176511   0.019   8.388  13.836
91538SOL    HW276512  14.759   8.317  13.818
91539SOL     OW76513   8.790  14.545   6.133
91539SOL    HW176514   8.842  14.618   6.099
91539SOL    HW276515   8.843  14.468   6.113
91540SOL     OW76516  13.647   6.556   6.589
91540SOL    HW176517  13.632   6.531   6.497
91540SOL    HW276518  13.669   6.474   6.633
91541SOL     OW76519  14.520   4.182   3.746
91541SOL    HW176520  14.473   4.149   3.669
91541SOL    HW276521  14.453   4.229   3.796
91542SOL     OW76522  12.274   2.282   4.994
91542SOL    HW176523  12.269   2.197   5.038
91542SOL    HW276524  12.335   2.268   4.922
91543SOL     OW76525  14.359  14.030   8.555
91543SOL    HW176526  14.365  14.121   8.525
91543SOL    HW276527  14.392  14.032   8.645
91544SOL     OW76528   6.544  11.018  14.481
91544SOL    HW176529   6.629  11.044  14.517
91544SOL    HW276530   6.493  11.099  14.481
91545SOL     OW76531  11.403  14.238  12.462
91545SOL    HW176532  11.485  14.240  12.413
91545SOL    HW276533  11.337  14.270  12.401
91546SOL     OW76534   6.463  11.900   1.681
91546SOL    HW176535   6.470  11.805   1.691
91546SOL    HW276536   6.376  11.921   1.715
91547SOL     OW76537   3.083  12.915   5.438
91547SOL    HW176538   3.104  12.859   5.513
91547SOL    HW276539   3.053  12.854   5.371
91548SOL     OW76540   5.376   8.773  11.314
91548SOL    HW176541   5.443   8.708  11.333
91548SOL    HW276542   5.306   8.725  11.270
91549SOL     OW76543   4.261  11.510   6.959
91549SOL    HW176544   4.214  11.590   6.982
91549SOL    HW276545   4.298  11.480   7.042
91550SOL     OW76546   3.699  14.295   3.476
91550SOL    HW176547   3.784  14.332   3.500
91550SOL    HW276548   3.709  14.201   3.490
91551SOL     OW76549   7.561   9.047   4.392
91551SOL    HW176550   7.595   9.124   4.347
91551SOL    HW276551   7.602   9.049   4.478
91552SOL     OW76552   3.677   3.736   8.750
91552SOL    HW176553   3.610   3.751   8.817
91552SOL    HW276554   3.756   3.714   8.799
91553SOL     OW76555   8.254   0.694   4.581
91553SOL    HW176556   8.303   0.666   4.504
91553SOL    HW276557   8.254   0.789   4.575
91554SOL     OW76558   3.360   6.023  11.953
91554SOL    HW176559   3.412   5.994  11.878
91554SOL    HW276560   3.425   6.048  12.019
91555SOL     OW76561   2.693   9.046  12.494
91555SOL    HW176562   2.616   9.085  12.535
91555SOL    HW276563   2.674   9.046  12.401
91556SOL     OW76564  14.312   4.403   1.770
91556SOL    HW176565  14.255   4.372   1.839
91556SOL    HW276566  14.269   4.482   1.736
91557SOL     OW76567   6.195   3.836  14.519
91557SOL    HW176568   6.239   3.824  14.603
91557SOL    HW276569   6.133   3.763  14.514
91558SOL     OW76570   9.175  13.089   0.972
91558SOL    HW176571   9.121  13.151   0.923
91558SOL    HW276572   9.114  13.021   1.000
91559SOL     OW76573   2.189   0.073   2.172
91559SOL    HW176574   2.256   0.075   2.103
91559SOL    HW276575   2.229   0.022   2.242
91560SOL     OW76576  13.164  11.960   8.833
91560SOL    HW176577  13.114  11.983   8.755
91560SOL    HW276578  13.101  11.914   8.889
91561SOL     OW76579   7.200   6.108   1.152
91561SOL    HW176580   7.192   6.203   1.151
91561SOL    HW276581   7.133   6.079   1.215
91562SOL     OW76582   6.507  12.458   6.147
91562SOL    HW176583   6.434  12.463   6.084
91562SOL    HW276584   6.564  12.532   6.123
91563SOL     OW76585   4.805  12.476   0.088
91563SOL    HW176586   4.725  12.508   0.129
91563SOL    HW276587   4.776  12.405   0.031
91564SOL     OW76588   7.713   1.918  13.460
91564SOL    HW176589   7.657   1.893  13.533
91564SOL    HW276590   7.654   1.929  13.386
91565SOL     OW76591   2.451  10.476   4.905
91565SOL    HW176592   2.401  10.550   4.869
91565SOL    HW276593   2.466  10.419   4.830
91566SOL     OW76594   9.193   9.817  13.706
91566SOL    HW176595   9.236   9.734  13.682
91566SOL    HW276596   9.255   9.884  13.678
91567SOL     OW76597   5.876  14.304   5.780
91567SOL    HW176598   5.907  14.372   5.719
91567SOL    HW276599   5.877  14.224   5.729
91568SOL     OW76600   5.030   8.323   5.386
91568SOL    HW176601   4.975   8.247   5.409
91568SOL    HW276602   5.031   8.377   5.465
91569SOL     OW76603   8.291   8.974  13.483
91569SOL    HW176604   8.281   8.943  13.573
91569SOL    HW276605   8.304   9.069  13.492
91570SOL     OW76606   5.021  10.401   2.852
91570SOL    HW176607   5.017  10.468   2.784
91570SOL    HW276608   4.957  10.336   2.826
91571SOL     OW76609  11.007   8.181  11.683
91571SOL    HW176610  11.062   8.106  11.704
91571SOL    HW276611  11.049   8.255  11.727
91572SOL     OW76612   1.419  10.045  13.650
91572SOL    HW176613   1.497  10.041  13.705
91572SOL    HW276614   1.426  10.129  13.604
91573SOL     OW76615  12.530   8.561  11.440
91573SOL    HW176616  12.478   8.641  11.444
91573SOL    HW276617  12.481   8.498  11.494
91574SOL     OW76618   6.860   4.749   0.144
91574SOL    HW176619   6.900   4.782   0.225
91574SOL    HW276620   6.875   4.820   0.080
91575SOL     OW76621   7.999  10.056  12.103
91575SOL    HW176622   8.005  10.151  12.092
91575SOL    HW276623   7.906  10.038  12.118
91576SOL     OW76624  14.693  13.370   2.967
91576SOL    HW176625  14.637  13.302   2.929
91576SOL    HW276626  14.714  13.428   2.893
91577SOL     OW76627   8.339   3.741   8.871
91577SOL    HW176628   8.292   3.787   8.941
91577SOL    HW276629   8.286   3.664   8.853
91578SOL     OW76630  10.902  10.048   8.150
91578SOL    HW176631  10.967  10.106   8.110
91578SOL    HW276632  10.850  10.016   8.076
91579SOL     OW76633   1.211   6.519   4.273
91579SOL    HW176634   1.194   6.437   4.320
91579SOL    HW276635   1.217   6.586   4.341
91580SOL     OW76636   9.016   8.822   4.684
91580SOL    HW176637   9.025   8.882   4.758
91580SOL    HW276638   8.952   8.864   4.627
91581SOL     OW76639  10.539   1.731  10.441
91581SOL    HW176640  10.549   1.673  10.365
91581SOL    HW276641  10.580   1.682  10.513
91582SOL     OW76642   4.169  10.629   7.686
91582SOL    HW176643   4.104  10.685   7.728
91582SOL    HW276644   4.156  10.642   7.593
91583SOL     OW76645   8.101   0.057   9.655
91583SOL    HW176646   8.027   0.035   9.598
91583SOL    HW276647   8.160  14.855   9.647
91584SOL     OW76648   3.615   0.592   9.754
91584SOL    HW176649   3.639   0.670   9.804
91584SOL    HW276650   3.588   0.625   9.668
91585SOL     OW76651  11.833   2.102   7.538
91585SOL    HW176652  11.761   2.154   7.575
91585SOL    HW276653  11.912   2.154   7.557
91586SOL     OW76654  10.304   0.617   9.519
91586SOL    HW176655  10.386   0.608   9.469
91586SOL    HW276656  10.265   0.530   9.518
91587SOL     OW76657   7.525   0.191  12.391
91587SOL    HW176658   7.474   0.261  12.431
91587SOL    HW276659   7.607   0.234  12.365
91588SOL     OW76660  14.328   6.309   5.952
91588SOL    HW176661  14.334   6.261   6.035
91588SOL    HW276662  14.250   6.274   5.909
91589SOL     OW76663  11.002  14.138   4.972
91589SOL    HW176664  11.056  14.164   5.047
91589SOL    HW276665  11.029  14.197   4.901
91590SOL     OW76666   8.660   6.169  13.696
91590SOL    HW176667   8.637   6.086  13.739
91590SOL    HW276668   8.586   6.187  13.639
91591SOL     OW76669   5.784  14.787  13.504
91591SOL    HW176670   5.834  14.793  13.585
91591SOL    HW276671   5.704  14.740  13.529
91592SOL     OW76672  10.291   8.180  10.924
91592SOL    HW176673  10.204   8.142  10.909
91592SOL    HW276674  10.346   8.105  10.945
91593SOL     OW76675   8.936   7.466  12.644
91593SOL    HW176676   8.970   7.531  12.706
91593SOL    HW276677   8.983   7.483  12.562
91594SOL     OW76678   1.392   9.053  12.969
91594SOL    HW176679   1.299   9.048  12.990
91594SOL    HW276680   1.404   9.141  12.934
91595SOL     OW76681   9.196   2.697  12.051
91595SOL    HW176682   9.182   2.775  11.997
91595SOL    HW276683   9.108   2.671  12.079
91596SOL     OW76684   0.190  14.839  11.959
91596SOL    HW176685   0.240  14.758  11.948
91596SOL    HW276686   0.126  14.838  11.889
91597SOL     OW76687   4.345  12.155  14.837
91597SOL    HW176688   4.320  12.245  14.818
91597SOL    HW276689   4.368  12.118  14.752
91598SOL     OW76690   0.420   1.176   4.917
91598SOL    HW176691   0.450   1.102   4.970
91598SOL    HW276692   0.373   1.232   4.979
91599SOL     OW76693  13.998   9.940   4.507
91599SOL    HW176694  14.014  10.031   4.533
91599SOL    HW276695  13.968   9.897   4.588
91600SOL     OW76696   1.981   0.092  11.052
91600SOL    HW176697   2.046   0.059  10.991
91600SOL    HW276698   1.901   0.044  11.032
91601SOL     OW76699   9.644   0.048  11.470
91601SOL    HW176700   9.645  14.845  11.411
91601SOL    HW276701   9.584   0.023  11.540
91602SOL     OW76702   8.118   0.602   0.994
91602SOL    HW176703   8.149   0.690   1.013
91602SOL    HW276704   8.031   0.598   1.034
91603SOL     OW76705   6.887   2.212   4.324
91603SOL    HW176706   6.873   2.292   4.272
91603SOL    HW276707   6.810   2.159   4.306
91604SOL     OW76708   8.063  11.007  11.379
91604SOL    HW176709   8.093  10.949  11.448
91604SOL    HW276710   8.012  10.951  11.320
91605SOL     OW76711   4.902   8.012   9.965
91605SOL    HW176712   4.915   7.918   9.954
91605SOL    HW276713   4.865   8.041   9.881
91606SOL     OW76714   0.419  12.960  11.411
91606SOL    HW176715   0.493  12.912  11.449
91606SOL    HW276716   0.343  12.929  11.458
91607SOL     OW76717   3.313   5.937   2.774
91607SOL    HW176718   3.405   5.958   2.757
91607SOL    HW276719   3.316   5.872   2.845
91608SOL     OW76720   1.203   4.109   4.825
91608SOL    HW176721   1.205   4.204   4.829
91608SOL    HW276722   1.287   4.084   4.787
91609SOL     OW76723   9.750  13.511  13.618
91609SOL    HW176724   9.706  13.529  13.535
91609SOL    HW276725   9.723  13.422  13.640
91610SOL     OW76726   6.828   8.203   3.981
91610SOL    HW176727   6.914   8.203   3.940
91610SOL    HW276728   6.787   8.122   3.951
91611SOL     OW76729   4.415   3.906  10.985
91611SOL    HW176730   4.452   3.887  11.071
91611SOL    HW276731   4.469   3.978  10.951
91612SOL     OW76732   3.709   4.734   7.994
91612SOL    HW176733   3.635   4.774   8.040
91612SOL    HW276734   3.725   4.793   7.920
91613SOL     OW76735  13.059   7.391  13.161
91613SOL    HW176736  13.143   7.424  13.192
91613SOL    HW276737  12.998   7.407  13.234
91614SOL     OW76738   0.359   1.905   1.295
91614SOL    HW176739   0.417   1.970   1.334
91614SOL    HW276740   0.299   1.881   1.365
91615SOL     OW76741   8.163   8.819  14.611
91615SOL    HW176742   8.243   8.868  14.631
91615SOL    HW276743   8.173   8.793  14.520
91616SOL     OW76744  11.725   8.266  12.987
91616SOL    HW176745  11.799   8.318  12.955
91616SOL    HW276746  11.649   8.302  12.943
91617SOL     OW76747   2.151   0.238   9.627
91617SOL    HW176748   2.137   0.331   9.643
91617SOL    HW276749   2.246   0.226   9.631
91618SOL     OW76750  13.294   0.210  10.817
91618SOL    HW176751  13.256   0.261  10.889
91618SOL    HW276752  13.302   0.273  10.745
91619SOL     OW76753  12.301   0.535   8.515
91619SOL    HW176754  12.211   0.509   8.495
91619SOL    HW276755  12.292   0.616   8.566
91620SOL     OW76756   6.200   8.908   4.212
91620SOL    HW176757   6.289   8.892   4.181
91620SOL    HW276758   6.181   8.998   4.186
91621SOL     OW76759   8.377   0.435   3.096
91621SOL    HW176760   8.362   0.454   3.188
91621SOL    HW276761   8.291   0.446   3.055
91622SOL     OW76762  14.853   3.247  10.520
91622SOL    HW176763   0.056   3.302  10.499
91622SOL    HW276764   0.012   3.190  10.590
91623SOL     OW76765   8.222   8.596   1.905
91623SOL    HW176766   8.198   8.503   1.902
91623SOL    HW276767   8.258   8.615   1.818
91624SOL     OW76768  13.637   2.886  10.119
91624SOL    HW176769  13.685   2.820  10.168
91624SOL    HW276770  13.673   2.969  10.149
91625SOL     OW76771  12.527  11.390  10.786
91625SOL    HW176772  12.539  11.357  10.875
91625SOL    HW276773  12.544  11.484  10.793
91626SOL     OW76774   3.899   3.660   5.675
91626SOL    HW176775   3.874   3.752   5.665
91626SOL    HW276776   3.821   3.611   5.648
91627SOL     OW76777   1.716   2.487  12.078
91627SOL    HW176778   1.668   2.443  12.008
91627SOL    HW276779   1.758   2.561  12.035
91628SOL     OW76780   8.459   2.142  10.740
91628SOL    HW176781   8.549   2.134  10.706
91628SOL    HW276782   8.468   2.194  10.820
91629SOL     OW76783  10.740   6.976   0.148
91629SOL    HW176784  10.726   6.884   0.131
91629SOL    HW276785  10.678   7.022   0.092
91630SOL     OW76786   8.946  11.379  10.623
91630SOL    HW176787   8.903  11.434  10.689
91630SOL    HW276788   8.994  11.314  10.674
91631SOL     OW76789   2.447   3.281   8.196
91631SOL    HW176790   2.511   3.261   8.128
91631SOL    HW276791   2.475   3.366   8.231
91632SOL     OW76792   2.148  14.402   3.945
91632SOL    HW176793   2.083  14.445   4.000
91632SOL    HW276794   2.122  14.423   3.856
91633SOL     OW76795   9.007   0.742   0.020
91633SOL    HW176796   9.085   0.768   0.069
91633SOL    HW276797   8.964   0.677   0.076
91634SOL     OW76798   3.460   2.453   4.108
91634SOL    HW176799   3.402   2.490   4.175
91634SOL    HW276800   3.528   2.519   4.097
91635SOL     OW76801   9.343   7.830   2.285
91635SOL    HW176802   9.260   7.783   2.283
91635SOL    HW276803   9.403   7.774   2.236
91636SOL     OW76804   1.370  10.193   7.897
91636SOL    HW176805   1.371  10.194   7.801
91636SOL    HW276806   1.291  10.242   7.921
91637SOL     OW76807  13.159   0.470   2.014
91637SOL    HW176808  13.116   0.498   2.094
91637SOL    HW276809  13.246   0.510   2.018
91638SOL     OW76810   1.984  10.486   3.840
91638SOL    HW176811   1.945  10.476   3.926
91638SOL    HW276812   1.940  10.561   3.801
91639SOL     OW76813   8.111   8.241   3.246
91639SOL    HW176814   8.110   8.308   3.315
91639SOL    HW276815   8.094   8.159   3.292
91640SOL     OW76816   9.300   4.831   8.410
91640SOL    HW176817   9.334   4.788   8.331
91640SOL    HW276818   9.371   4.824   8.474
91641SOL     OW76819  14.666   4.152   5.145
91641SOL    HW176820  14.621   4.112   5.071
91641SOL    HW276821  14.678   4.243   5.120
91642SOL     OW76822   1.090   8.033   0.116
91642SOL    HW176823   1.090   8.115   0.066
91642SOL    HW276824   0.997   8.016   0.133
91643SOL     OW76825  10.834  14.453   9.624
91643SOL    HW176826  10.898  14.513   9.663
91643SOL    HW276827  10.822  14.485   9.535
91644SOL     OW76828   6.512  11.965   7.144
91644SOL    HW176829   6.592  11.951   7.095
91644SOL    HW276830   6.468  11.880   7.145
91645SOL     OW76831   2.862  10.010   1.971
91645SOL    HW176832   2.908  10.045   1.894
91645SOL    HW276833   2.811   9.937   1.936
91646SOL     OW76834  13.982   4.868  14.009
91646SOL    HW176835  14.075   4.853  14.028
91646SOL    HW276836  13.936   4.832  14.085
91647SOL     OW76837  14.227  11.400   1.028
91647SOL    HW176838  14.169  11.324   1.018
91647SOL    HW276839  14.255  11.396   1.120
91648SOL     OW76840   7.345  11.054   7.600
91648SOL    HW176841   7.283  11.125   7.582
91648SOL    HW276842   7.378  11.072   7.688
91649SOL     OW76843   6.078   9.695   4.683
91649SOL    HW176844   6.169   9.667   4.696
91649SOL    HW276845   6.027   9.615   4.697
91650SOL     OW76846  10.411   8.110  10.299
91650SOL    HW176847  10.401   8.022  10.262
91650SOL    HW276848  10.321   8.141  10.312
91651SOL     OW76849  10.549   6.566  12.599
91651SOL    HW176850  10.541   6.660  12.581
91651SOL    HW276851  10.638   6.544  12.573
91652SOL     OW76852   4.851   8.461   8.271
91652SOL    HW176853   4.893   8.378   8.249
91652SOL    HW276854   4.922   8.524   8.277
91653SOL     OW76855   5.392   7.773   3.805
91653SOL    HW176856   5.376   7.721   3.726
91653SOL    HW276857   5.312   7.763   3.857
91654SOL     OW76858   9.973  13.431  12.052
91654SOL    HW176859  10.045  13.386  12.008
91654SOL    HW276860   9.969  13.392  12.139
91655SOL     OW76861  12.661   0.613  10.383
91655SOL    HW176862  12.725   0.685  10.381
91655SOL    HW276863  12.701   0.544  10.330
91656SOL     OW76864  14.826   2.334   0.607
91656SOL    HW176865   0.017   2.265   0.592
91656SOL    HW276866  14.846   2.368   0.694
91657SOL     OW76867  12.401  10.661  13.079
91657SOL    HW176868  12.399  10.651  12.984
91657SOL    HW276869  12.318  10.703  13.100
91658SOL     OW76870   7.025   1.233   9.553
91658SOL    HW176871   6.971   1.154   9.559
91658SOL    HW276872   6.991   1.279   9.477
91659SOL     OW76873   0.162   9.198   7.547
91659SOL    HW176874   0.214   9.220   7.470
91659SOL    HW276875   0.185   9.106   7.566
91660SOL     OW76876   4.511   2.748   2.776
91660SOL    HW176877   4.459   2.717   2.702
91660SOL    HW276878   4.593   2.778   2.736
91661SOL     OW76879   2.483  11.911   2.282
91661SOL    HW176880   2.489  11.820   2.313
91661SOL    HW276881   2.543  11.959   2.339
91662SOL     OW76882  10.869  11.257   9.042
91662SOL    HW176883  10.829  11.177   9.077
91662SOL    HW276884  10.955  11.261   9.083
91663SOL     OW76885  11.055  12.842   2.805
91663SOL    HW176886  11.064  12.747   2.798
91663SOL    HW276887  10.962  12.856   2.821
91664SOL     OW76888   3.288   4.220  11.052
91664SOL    HW176889   3.330   4.198  11.136
91664SOL    HW276890   3.353   4.197  10.986
91665SOL     OW76891   6.952  12.362   5.819
91665SOL    HW176892   7.030  12.409   5.848
91665SOL    HW276893   6.902  12.346   5.898
91666SOL     OW76894  12.609   2.682   4.295
91666SOL    HW176895  12.543   2.615   4.279
91666SOL    HW276896  12.671   2.671   4.223
91667SOL     OW76897   0.755   4.608   9.278
91667SOL    HW176898   0.719   4.616   9.190
91667SOL    HW276899   0.753   4.514   9.296
91668SOL     OW76900   4.173   0.847   3.452
91668SOL    HW176901   4.115   0.801   3.391
91668SOL    HW276902   4.148   0.815   3.539
91669SOL     OW76903   8.841   5.681  13.618
91669SOL    HW176904   8.839   5.629  13.538
91669SOL    HW276905   8.917   5.738  13.607
91670SOL     OW76906  12.205   9.292   8.823
91670SOL    HW176907  12.185   9.231   8.894
91670SOL    HW276908  12.299   9.308   8.830
91671SOL     OW76909   0.821  12.823  12.910
91671SOL    HW176910   0.914  12.831  12.890
91671SOL    HW276911   0.815  12.834  13.004
91672SOL     OW76912  11.425  14.608  10.433
91672SOL    HW176913  11.475  14.571  10.360
91672SOL    HW276914  11.474  14.686  10.459
91673SOL     OW76915   2.247   3.029  13.892
91673SOL    HW176916   2.256   2.938  13.861
91673SOL    HW276917   2.268   3.082  13.815
91674SOL     OW76918   4.394  11.128  12.867
91674SOL    HW176919   4.321  11.181  12.898
91674SOL    HW276920   4.388  11.132  12.772
91675SOL     OW76921  12.278   0.572  10.627
91675SOL    HW176922  12.206   0.599  10.569
91675SOL    HW276923  12.253   0.606  10.713
91676SOL     OW76924   1.278   9.913   0.874
91676SOL    HW176925   1.313   9.988   0.826
91676SOL    HW276926   1.204   9.948   0.923
91677SOL     OW76927  14.312  13.601   3.889
91677SOL    HW176928  14.286  13.654   3.813
91677SOL    HW276929  14.258  13.522   3.882
91678SOL     OW76930   2.421   0.256   2.997
91678SOL    HW176931   2.419   0.165   2.969
91678SOL    HW276932   2.357   0.261   3.068
91679SOL     OW76933   8.310   2.569   3.255
91679SOL    HW176934   8.327   2.584   3.348
91679SOL    HW276935   8.361   2.490   3.234
91680SOL     OW76936  11.740   1.816   3.400
91680SOL    HW176937  11.741   1.838   3.307
91680SOL    HW276938  11.648   1.798   3.420
91681SOL     OW76939  11.616  12.070   1.954
91681SOL    HW176940  11.601  12.021   1.873
91681SOL    HW276941  11.528  12.090   1.986
91682SOL     OW76942   4.484   2.135   8.726
91682SOL    HW176943   4.417   2.199   8.751
91682SOL    HW276944   4.511   2.162   8.638
91683SOL     OW76945   5.076   7.424   0.491
91683SOL    HW176946   5.054   7.332   0.504
91683SOL    HW276947   5.126   7.448   0.569
91684SOL     OW76948   0.924  11.786   7.401
91684SOL    HW176949   0.999  11.742   7.442
91684SOL    HW276950   0.961  11.829   7.324
91685SOL     OW76951   4.979  10.469   3.234
91685SOL    HW176952   5.073  10.462   3.217
91685SOL    HW276953   4.974  10.518   3.316
91686SOL     OW76954   0.897   5.923  14.332
91686SOL    HW176955   0.954   5.847  14.346
91686SOL    HW276956   0.847   5.901  14.253
91687SOL     OW76957   2.924   7.904   3.071
91687SOL    HW176958   2.832   7.886   3.055
91687SOL    HW276959   2.936   7.886   3.164
91688SOL     OW76960   0.092   8.675  12.162
91688SOL    HW176961   0.135   8.704  12.242
91688SOL    HW276962   0.159   8.623  12.117
91689SOL     OW76963  14.424  11.713   7.179
91689SOL    HW176964  14.507  11.712   7.226
91689SOL    HW276965  14.428  11.792   7.124
91690SOL     OW76966   0.355   6.587  11.340
91690SOL    HW176967   0.450   6.581  11.354
91690SOL    HW276968   0.328   6.496  11.327
91691SOL     OW76969  10.081   2.572   1.835
91691SOL    HW176970  10.069   2.481   1.862
91691SOL    HW276971  10.151   2.569   1.771
91692SOL     OW76972   1.446   7.351   6.025
91692SOL    HW176973   1.518   7.357   5.962
91692SOL    HW276974   1.430   7.442   6.052
91693SOL     OW76975  10.641   2.193  14.829
91693SOL    HW176976  10.577   2.128  14.857
91693SOL    HW276977  10.716   2.142  14.799
91694SOL     OW76978   7.232   0.310   3.151
91694SOL    HW176979   7.142   0.341   3.161
91694SOL    HW276980   7.252   0.266   3.233
91695SOL     OW76981   2.994   5.322  12.633
91695SOL    HW176982   2.948   5.282  12.559
91695SOL    HW276983   3.082   5.340  12.600
91696SOL     OW76984  12.250   4.857   8.484
91696SOL    HW176985  12.325   4.905   8.447
91696SOL    HW276986  12.229   4.903   8.565
91697SOL     OW76987  10.766   3.437  12.181
91697SOL    HW176988  10.809   3.522  12.189
91697SOL    HW276989  10.673   3.457  12.171
91698SOL     OW76990  11.233   3.599  10.034
91698SOL    HW176991  11.142   3.567  10.035
91698SOL    HW276992  11.265   3.584  10.123
91699SOL     OW76993   6.561   6.148   6.305
91699SOL    HW176994   6.644   6.183   6.337
91699SOL    HW276995   6.556   6.176   6.214
91700SOL     OW76996   8.012   4.921   7.408
91700SOL    HW176997   7.917   4.907   7.412
91700SOL    HW276998   8.041   4.862   7.338
91701SOL     OW76999  13.204   4.617  13.405
91701SOL    HW177000  13.273   4.559  13.438
91701SOL    HW277001  13.207   4.606  13.310
91702SOL     OW77002   4.841   9.779   3.671
91702SOL    HW177003   4.906   9.732   3.618
91702SOL    HW277004   4.785   9.823   3.607
91703SOL     OW77005   6.841  12.359  13.182
91703SOL    HW177006   6.788  12.377  13.260
91703SOL    HW277007   6.838  12.264  13.172
91704SOL     OW77008   0.504   3.526   3.046
91704SOL    HW177009   0.474   3.435   3.044
91704SOL    HW277010   0.518   3.544   3.139
91705SOL     OW77011   2.960   6.680   4.364
91705SOL    HW177012   3.037   6.657   4.312
91705SOL    HW277013   2.995   6.702   4.450
91706SOL     OW77014  14.044   1.903   7.749
91706SOL    HW177015  13.994   1.822   7.760
91706SOL    HW277016  14.114   1.897   7.814
91707SOL     OW77017   1.278   9.862   0.457
91707SOL    HW177018   1.214   9.931   0.470
91707SOL    HW277019   1.266   9.804   0.532
91708SOL     OW77020   2.603  12.462  10.857
91708SOL    HW177021   2.564  12.459  10.944
91708SOL    HW277022   2.605  12.371  10.828
91709SOL     OW77023   7.470  13.011   2.705
91709SOL    HW177024   7.416  12.967   2.639
91709SOL    HW277025   7.428  12.989   2.788
91710SOL     OW77026   5.331   3.345  11.321
91710SOL    HW177027   5.401   3.281  11.338
91710SOL    HW277028   5.372   3.430  11.336
91711SOL     OW77029   9.479   5.216   4.993
91711SOL    HW177030   9.534   5.151   4.950
91711SOL    HW277031   9.529   5.243   5.070
91712SOL     OW77032  12.256   2.457   8.879
91712SOL    HW177033  12.278   2.506   8.959
91712SOL    HW277034  12.255   2.523   8.810
91713SOL     OW77035   2.479  13.151  12.557
91713SOL    HW177036   2.403  13.182  12.508
91713SOL    HW277037   2.451  13.067  12.593
91714SOL     OW77038   1.722  10.647  10.499
91714SOL    HW177039   1.815  10.623  10.496
91714SOL    HW277040   1.699  10.665  10.408
91715SOL     OW77041   0.183   3.554   6.054
91715SOL    HW177042   0.127   3.604   5.994
91715SOL    HW277043   0.257   3.527   6.000
91716SOL     OW77044   2.051   3.750   4.086
91716SOL    HW177045   2.059   3.660   4.117
91716SOL    HW277046   2.072   3.804   4.161
91717SOL     OW77047   5.973   0.765   5.296
91717SOL    HW177048   6.058   0.724   5.283
91717SOL    HW277049   5.952   0.804   5.210
91718SOL     OW77050   2.083   3.126   5.856
91718SOL    HW177051   2.017   3.080   5.804
91718SOL    HW277052   2.066   3.099   5.946
91719SOL     OW77053   2.879  13.710  11.177
91719SOL    HW177054   2.886  13.622  11.140
91719SOL    HW277055   2.791  13.713  11.215
91720SOL     OW77056  11.146  13.528   1.932
91720SOL    HW177057  11.212  13.540   1.864
91720SOL    HW277058  11.170  13.592   2.000
91721SOL     OW77059  11.891  11.879  14.328
91721SOL    HW177060  11.874  11.785  14.338
91721SOL    HW277061  11.865  11.899  14.239
91722SOL     OW77062   3.767   7.293  10.414
91722SOL    HW177063   3.774   7.297  10.318
91722SOL    HW277064   3.705   7.363  10.436
91723SOL     OW77065   7.029   2.375  13.244
91723SOL    HW177066   7.084   2.367  13.166
91723SOL    HW277067   7.052   2.299  13.298
91724SOL     OW77068  11.488   2.885  13.291
91724SOL    HW177069  11.470   2.802  13.336
91724SOL    HW277070  11.402   2.913  13.259
91725SOL     OW77071   7.551   1.728   2.781
91725SOL    HW177072   7.473   1.693   2.738
91725SOL    HW277073   7.543   1.700   2.872
91726SOL     OW77074   2.729   9.549   2.320
91726SOL    HW177075   2.713   9.628   2.269
91726SOL    HW277076   2.642   9.513   2.337
91727SOL     OW77077  14.604  14.071  10.304
91727SOL    HW177078  14.683  14.020  10.284
91727SOL    HW277079  14.537  14.037  10.245
91728SOL     OW77080   3.582   4.455  14.373
91728SOL    HW177081   3.674   4.445  14.397
91728SOL    HW277082   3.541   4.491  14.451
91729SOL     OW77083   5.725   3.031  11.209
91729SOL    HW177084   5.791   3.070  11.151
91729SOL    HW277085   5.687   2.960  11.158
91730SOL     OW77086   0.203   3.249   6.974
91730SOL    HW177087   0.164   3.171   6.935
91730SOL    HW277088   0.151   3.321   6.939
91731SOL     OW77089  10.858  11.848   2.303
91731SOL    HW177090  10.892  11.906   2.234
91731SOL    HW277091  10.837  11.907   2.375
91732SOL     OW77092  13.901   7.536   6.640
91732SOL    HW177093  13.893   7.454   6.591
91732SOL    HW277094  13.859   7.518   6.724
91733SOL     OW77095   9.356  13.249   4.492
91733SOL    HW177096   9.378  13.186   4.424
91733SOL    HW277097   9.293  13.203   4.548
91734SOL     OW77098   6.745   3.163   6.397
91734SOL    HW177099   6.792   3.081   6.379
91734SOL    HW277100   6.749   3.172   6.492
91735SOL     OW77101   4.302  11.247   1.763
91735SOL    HW177102   4.214  11.218   1.788
91735SOL    HW277103   4.330  11.185   1.696
91736SOL     OW77104   1.178   5.537  10.781
91736SOL    HW177105   1.184   5.450  10.740
91736SOL    HW277106   1.260   5.544  10.831
91737SOL     OW77107   4.328   4.569   2.377
91737SOL    HW177108   4.391   4.590   2.309
91737SOL    HW277109   4.378   4.516   2.440
91738SOL     OW77110  12.218  12.594   8.572
91738SOL    HW177111  12.257  12.534   8.508
91738SOL    HW277112  12.288  12.655   8.595
91739SOL     OW77113   5.371   1.342  13.353
91739SOL    HW177114   5.325   1.332  13.269
91739SOL    HW277115   5.453   1.294  13.341
91740SOL     OW77116   0.278   7.180   2.215
91740SOL    HW177117   0.352   7.127   2.242
91740SOL    HW277118   0.310   7.232   2.141
91741SOL     OW77119  14.235  11.265   2.804
91741SOL    HW177120  14.296  11.278   2.877
91741SOL    HW277121  14.186  11.186   2.827
91742SOL     OW77122   3.706   2.798   4.654
91742SOL    HW177123   3.792   2.834   4.635
91742SOL    HW277124   3.654   2.818   4.576
91743SOL     OW77125  13.489   9.206  10.461
91743SOL    HW177126  13.548   9.163  10.400
91743SOL    HW277127  13.493   9.299  10.437
91744SOL     OW77128   9.318   3.334   9.212
91744SOL    HW177129   9.310   3.246   9.176
91744SOL    HW277130   9.229   3.371   9.207
91745SOL     OW77131  12.761   5.748   6.220
91745SOL    HW177132  12.718   5.675   6.175
91745SOL    HW277133  12.845   5.712   6.248
91746SOL     OW77134   7.959  13.865  12.602
91746SOL    HW177135   8.013  13.861  12.523
91746SOL    HW277136   7.875  13.900  12.572
91747SOL     OW77137  13.584   0.603   5.960
91747SOL    HW177138  13.627   0.538   6.016
91747SOL    HW277139  13.524   0.551   5.907
91748SOL     OW77140   0.444   2.052   6.834
91748SOL    HW177141   0.519   2.004   6.800
91748SOL    HW277142   0.368   2.016   6.787
91749SOL     OW77143   4.602   5.433   3.563
91749SOL    HW177144   4.613   5.428   3.468
91749SOL    HW277145   4.516   5.473   3.575
91750SOL     OW77146   9.065   6.163   4.830
91750SOL    HW177147   9.014   6.243   4.840
91750SOL    HW277148   9.000   6.094   4.823
91751SOL     OW77149   4.328   0.825   7.761
91751SOL    HW177150   4.324   0.891   7.831
91751SOL    HW277151   4.236   0.803   7.744
91752SOL     OW77152  14.406   3.483   8.895
91752SOL    HW177153  14.499   3.461   8.890
91752SOL    HW277154  14.362   3.414   8.846
91753SOL     OW77155  10.714   5.297   2.943
91753SOL    HW177156  10.634   5.336   2.976
91753SOL    HW277157  10.699   5.202   2.950
91754SOL     OW77158  13.416   2.582  10.632
91754SOL    HW177159  13.432   2.500  10.678
91754SOL    HW277160  13.482   2.585  10.563
91755SOL     OW77161   3.509   9.373   2.789
91755SOL    HW177162   3.561   9.422   2.853
91755SOL    HW277163   3.522   9.281   2.812
91756SOL     OW77164  11.345   7.522   9.664
91756SOL    HW177165  11.438   7.513   9.640
91756SOL    HW277166  11.310   7.585   9.600
91757SOL     OW77167   8.983   4.385   5.970
91757SOL    HW177168   9.059   4.436   5.943
91757SOL    HW277169   9.010   4.294   5.958
91758SOL     OW77170  13.163   5.932   3.913
91758SOL    HW177171  13.204   5.925   3.999
91758SOL    HW277172  13.082   5.882   3.921
91759SOL     OW77173   9.129   5.784   5.813
91759SOL    HW177174   9.208   5.801   5.864
91759SOL    HW277175   9.058   5.820   5.865
91760SOL     OW77176   6.917   0.187   9.811
91760SOL    HW177177   6.878   0.137   9.882
91760SOL    HW277178   6.956   0.264   9.854
91761SOL     OW77179   0.717   0.954  13.882
91761SOL    HW177180   0.629   0.965  13.847
91761SOL    HW277181   0.706   0.900  13.960
91762SOL     OW77182  12.626  13.188  11.151
91762SOL    HW177183  12.597  13.097  11.153
91762SOL    HW277184  12.631  13.214  11.243
91763SOL     OW77185   6.704   8.355   3.010
91763SOL    HW177186   6.677   8.314   3.092
91763SOL    HW277187   6.670   8.298   2.941
91764SOL     OW77188   1.359  11.194   8.314
91764SOL    HW177189   1.280  11.236   8.279
91764SOL    HW277190   1.330  11.153   8.395
91765SOL     OW77191   3.299  12.298   5.294
91765SOL    HW177192   3.204  12.288   5.285
91765SOL    HW277193   3.325  12.228   5.354
91766SOL     OW77194  11.760   5.507   7.699
91766SOL    HW177195  11.704   5.577   7.733
91766SOL    HW277196  11.848   5.543   7.703
91767SOL     OW77197   5.689  14.568  11.039
91767SOL    HW177198   5.718  14.654  11.070
91767SOL    HW277199   5.654  14.525  11.117
91768SOL     OW77200  12.393  14.032   4.652
91768SOL    HW177201  12.308  13.993   4.674
91768SOL    HW277202  12.450  14.007   4.725
91769SOL     OW77203  12.204   6.977   6.493
91769SOL    HW177204  12.178   6.902   6.439
91769SOL    HW277205  12.263   6.940   6.558
91770SOL     OW77206  10.660   4.284  13.568
91770SOL    HW177207  10.602   4.209  13.557
91770SOL    HW277208  10.709   4.290  13.486
91771SOL     OW77209  10.014  13.329  12.302
91771SOL    HW177210   9.945  13.265  12.283
91771SOL    HW277211  10.096  13.282  12.287
91772SOL     OW77212  11.474   5.713   2.510
91772SOL    HW177213  11.496   5.668   2.592
91772SOL    HW277214  11.379   5.706   2.503
91773SOL     OW77215  14.134  13.843  10.041
91773SOL    HW177216  14.046  13.882  10.046
91773SOL    HW277217  14.123  13.755  10.076
91774SOL     OW77218   1.253   2.492   1.731
91774SOL    HW177219   1.292   2.535   1.655
91774SOL    HW277220   1.256   2.559   1.800
91775SOL     OW77221   2.945   3.408  12.533
91775SOL    HW177222   2.962   3.469  12.605
91775SOL    HW277223   3.030   3.397  12.490
91776SOL     OW77224   1.442   3.593   6.792
91776SOL    HW177225   1.386   3.519   6.768
91776SOL    HW277226   1.438   3.652   6.717
91777SOL     OW77227   9.644  12.383  14.135
91777SOL    HW177228   9.707  12.333  14.186
91777SOL    HW277229   9.697  12.430  14.071
91778SOL     OW77230   6.724  10.766   7.585
91778SOL    HW177231   6.787  10.768   7.657
91778SOL    HW277232   6.763  10.824   7.519
91779SOL     OW77233   1.193  13.701   5.718
91779SOL    HW177234   1.160  13.680   5.806
91779SOL    HW277235   1.208  13.616   5.677
91780SOL     OW77236   0.662   7.611  12.853
91780SOL    HW177237   0.657   7.694  12.900
91780SOL    HW277238   0.699   7.549  12.916
91781SOL     OW77239  11.566  12.512   4.686
91781SOL    HW177240  11.567  12.584   4.749
91781SOL    HW277241  11.563  12.555   4.600
91782SOL     OW77242   0.667  10.640   3.690
91782SOL    HW177243   0.660  10.687   3.774
91782SOL    HW277244   0.649  10.707   3.624
91783SOL     OW77245   0.727  13.587   3.996
91783SOL    HW177246   0.763  13.632   4.072
91783SOL    HW277247   0.772  13.627   3.921
91784SOL     OW77248  14.715   5.324   4.940
91784SOL    HW177249  14.736   5.253   4.879
91784SOL    HW277250  14.795   5.376   4.945
91785SOL     OW77251   5.390   7.063   2.392
91785SOL    HW177252   5.423   6.996   2.452
91785SOL    HW277253   5.315   7.100   2.438
91786SOL     OW77254   5.443  13.813   0.852
91786SOL    HW177255   5.481  13.738   0.806
91786SOL    HW277256   5.412  13.777   0.935
91787SOL     OW77257  13.232   0.635  14.313
91787SOL    HW177258  13.166   0.631  14.382
91787SOL    HW277259  13.316   0.634  14.359
91788SOL     OW77260   1.538   7.985   1.824
91788SOL    HW177261   1.466   8.026   1.777
91788SOL    HW277262   1.542   7.895   1.790
91789SOL     OW77263   9.805   9.595  12.345
91789SOL    HW177264   9.794   9.677  12.393
91789SOL    HW277265   9.744   9.601  12.272
91790SOL     OW77266   4.785   3.179   0.558
91790SOL    HW177267   4.799   3.234   0.481
91790SOL    HW277268   4.864   3.193   0.611
91791SOL     OW77269   6.829  12.411   3.490
91791SOL    HW177270   6.854  12.382   3.578
91791SOL    HW277271   6.841  12.506   3.492
91792SOL     OW77272   6.059   9.294  11.885
91792SOL    HW177273   6.113   9.222  11.916
91792SOL    HW277274   6.107   9.330  11.810
91793SOL     OW77275  11.276   1.613   4.205
91793SOL    HW177276  11.232   1.646   4.127
91793SOL    HW277277  11.205   1.584   4.262
91794SOL     OW77278  12.040   3.040  13.617
91794SOL    HW177279  12.109   2.980  13.590
91794SOL    HW277280  12.028   3.023  13.710
91795SOL     OW77281  14.410   1.784  13.271
91795SOL    HW177282  14.470   1.763  13.343
91795SOL    HW277283  14.436   1.871  13.242
91796SOL     OW77284   9.257   0.875   4.450
91796SOL    HW177285   9.307   0.923   4.516
91796SOL    HW277286   9.216   0.943   4.396
91797SOL     OW77287  12.872  12.443   9.459
91797SOL    HW177288  12.856  12.374   9.523
91797SOL    HW277289  12.788  12.454   9.414
91798SOL     OW77290  13.435  10.290  12.124
91798SOL    HW177291  13.402  10.368  12.169
91798SOL    HW277292  13.356  10.240  12.105
91799SOL     OW77293   3.426   2.054   0.316
91799SOL    HW177294   3.468   2.130   0.358
91799SOL    HW277295   3.442   2.067   0.222
91800SOL     OW77296   6.937   8.854   2.995
91800SOL    HW177297   7.025   8.888   2.982
91800SOL    HW277298   6.883   8.902   2.933
91801SOL     OW77299  12.179  14.447   8.832
91801SOL    HW177300  12.110  14.509   8.810
91801SOL    HW277301  12.160  14.421   8.923
91802SOL     OW77302   8.523  14.557   9.793
91802SOL    HW177303   8.480  14.484   9.837
91802SOL    HW277304   8.614  14.554   9.822
91803SOL     OW77305   5.052  10.270   0.030
91803SOL    HW177306   5.146  10.268   0.048
91803SOL    HW277307   5.015  10.318   0.103
91804SOL     OW77308  13.794   8.443   4.518
91804SOL    HW177309  13.878   8.410   4.487
91804SOL    HW277310  13.731   8.375   4.492
91805SOL     OW77311  13.095   8.572   7.274
91805SOL    HW177312  13.026   8.531   7.223
91805SOL    HW277313  13.147   8.622   7.210
91806SOL     OW77314  12.205   2.148   0.304
91806SOL    HW177315  12.114   2.136   0.332
91806SOL    HW277316  12.206   2.235   0.264
91807SOL     OW77317  11.001   1.586   7.560
91807SOL    HW177318  11.067   1.577   7.491
91807SOL    HW277319  10.982   1.679   7.564
91808SOL     OW77320   9.384  12.846  12.858
91808SOL    HW177321   9.385  12.942  12.869
91808SOL    HW277322   9.295  12.821  12.882
91809SOL     OW77323   7.398   3.228   1.372
91809SOL    HW177324   7.349   3.247   1.292
91809SOL    HW277325   7.407   3.133   1.373
91810SOL     OW77326   3.611   6.855   5.575
91810SOL    HW177327   3.658   6.798   5.513
91810SOL    HW277328   3.657   6.842   5.658
91811SOL     OW77329   0.758   3.456   0.997
91811SOL    HW177330   0.817   3.514   1.045
91811SOL    HW277331   0.688   3.437   1.059
91812SOL     OW77332   2.462   4.616   2.048
91812SOL    HW177333   2.490   4.672   1.976
91812SOL    HW277334   2.482   4.666   2.127
91813SOL     OW77335   5.113  10.061   3.839
91813SOL    HW177336   5.185  10.110   3.877
91813SOL    HW277337   5.057  10.039   3.914
91814SOL     OW77338  13.477   8.938   5.746
91814SOL    HW177339  13.448   9.026   5.771
91814SOL    HW277340  13.420   8.879   5.795
91815SOL     OW77341   7.971   2.238   0.007
91815SOL    HW177342   8.017   2.317  14.850
91815SOL    HW277343   7.995   2.230   0.100
91816SOL     OW77344   0.024   6.221   5.265
91816SOL    HW177345   0.072   6.210   5.346
91816SOL    HW277346  14.811   6.256   5.292
91817SOL     OW77347   4.915   9.264  14.437
91817SOL    HW177348   4.825   9.294  14.453
91817SOL    HW277349   4.961   9.283  14.519
91818SOL     OW77350   9.621  10.676  11.468
91818SOL    HW177351   9.538  10.666  11.514
91818SOL    HW277352   9.599  10.723  11.388
91819SOL     OW77353   9.158  11.462  10.436
91819SOL    HW177354   9.198  11.469  10.523
91819SOL    HW277355   9.064  11.458  10.454
91820SOL     OW77356   8.147   4.963  10.151
91820SOL    HW177357   8.077   4.920  10.201
91820SOL    HW277358   8.102   5.010  10.082
91821SOL     OW77359   3.887  12.652   2.748
91821SOL    HW177360   3.840  12.577   2.713
91821SOL    HW277361   3.978  12.624   2.750
91822SOL     OW77362   6.935  11.732  14.855
91822SOL    HW177363   7.028  11.731  14.833
91822SOL    HW277364   6.892  11.771  14.779
91823SOL     OW77365   3.326   2.786   4.951
91823SOL    HW177366   3.360   2.831   4.873
91823SOL    HW277367   3.292   2.703   4.917
91824SOL     OW77368  14.191  12.161   8.678
91824SOL    HW177369  14.214  12.114   8.598
91824SOL    HW277370  14.195  12.254   8.653
91825SOL     OW77371  10.643   5.053  12.659
91825SOL    HW177372  10.591   5.111  12.604
91825SOL    HW277373  10.724   5.100  12.675
91826SOL     OW77374   0.034   9.961  10.478
91826SOL    HW177375   0.128   9.978  10.481
91826SOL    HW277376  14.866  10.046  10.463
91827SOL     OW77377   9.103  14.708   4.355
91827SOL    HW177378   9.194  14.738   4.347
91827SOL    HW277379   9.070  14.707   4.265
91828SOL     OW77380  13.889  10.558  11.441
91828SOL    HW177381  13.868  10.515  11.358
91828SOL    HW277382  13.816  10.618  11.456
91829SOL     OW77383   3.204   0.146   2.807
91829SOL    HW177384   3.298   0.128   2.797
91829SOL    HW277385   3.172   0.159   2.718
91830SOL     OW77386   3.577   7.463   2.818
91830SOL    HW177387   3.594   7.492   2.729
91830SOL    HW277388   3.508   7.397   2.810
91831SOL     OW77389   7.189  12.106   6.865
91831SOL    HW177390   7.126  12.173   6.892
91831SOL    HW277391   7.137  12.025   6.860
91832SOL     OW77392   7.879   8.349  14.028
91832SOL    HW177393   7.925   8.319  14.106
91832SOL    HW277394   7.948   8.383  13.971
91833SOL     OW77395   4.124   5.457   1.886
91833SOL    HW177396   4.053   5.468   1.823
91833SOL    HW277397   4.198   5.426   1.833
91834SOL     OW77398   5.972   0.647  12.215
91834SOL    HW177399   5.970   0.561  12.257
91834SOL    HW277400   5.916   0.637  12.138
91835SOL     OW77401  14.490   1.054   8.958
91835SOL    HW177402  14.453   1.135   8.921
91835SOL    HW277403  14.477   0.989   8.890
91836SOL     OW77404  12.846  12.925   4.362
91836SOL    HW177405  12.883  12.997   4.413
91836SOL    HW277406  12.905  12.852   4.377
91837SOL     OW77407   5.245   1.982   7.375
91837SOL    HW177408   5.247   1.937   7.459
91837SOL    HW277409   5.321   1.948   7.328
91838SOL     OW77410   5.923   1.297  11.692
91838SOL    HW177411   5.966   1.381  11.674
91838SOL    HW277412   5.960   1.269  11.776
91839SOL     OW77413  10.290   6.127   2.851
91839SOL    HW177414  10.206   6.087   2.874
91839SOL    HW277415  10.269   6.219   2.834
91840SOL     OW77416   7.644   0.334  14.598
91840SOL    HW177417   7.683   0.302  14.517
91840SOL    HW277418   7.571   0.275  14.615
91841SOL     OW77419   6.502  10.226   4.562
91841SOL    HW177420   6.486  10.171   4.486
91841SOL    HW277421   6.436  10.199   4.626
91842SOL     OW77422   5.361   9.742  14.395
91842SOL    HW177423   5.330   9.745  14.486
91842SOL    HW277424   5.439   9.797  14.394
91843SOL     OW77425  10.189  12.729   0.111
91843SOL    HW177426  10.260  12.717   0.048
91843SOL    HW277427  10.219  12.685   0.190
91844SOL     OW77428  14.187  14.530   5.164
91844SOL    HW177429  14.228  14.460   5.114
91844SOL    HW277430  14.132  14.577   5.101
91845SOL     OW77431  13.914  12.089   1.067
91845SOL    HW177432  13.980  12.113   1.002
91845SOL    HW277433  13.831  12.118   1.028
91846SOL     OW77434  12.335   9.885   0.126
91846SOL    HW177435  12.289   9.957   0.169
91846SOL    HW277436  12.317   9.898   0.033
91847SOL     OW77437   1.962   5.428   0.368
91847SOL    HW177438   1.970   5.508   0.420
91847SOL    HW277439   2.005   5.361   0.421
91848SOL     OW77440   4.900   8.636   8.547
91848SOL    HW177441   4.809   8.615   8.525
91848SOL    HW277442   4.945   8.640   8.462
91849SOL     OW77443   3.287  13.641  10.940
91849SOL    HW177444   3.242  13.558  10.927
91849SOL    HW277445   3.371  13.618  10.979
91850SOL     OW77446   1.472   5.865   0.662
91850SOL    HW177447   1.539   5.824   0.717
91850SOL    HW277448   1.390   5.850   0.709
91851SOL     OW77449  11.357   6.277   3.548
91851SOL    HW177450  11.340   6.276   3.642
91851SOL    HW277451  11.442   6.320   3.539
91852SOL     OW77452   1.672   6.789   2.138
91852SOL    HW177453   1.719   6.872   2.128
91852SOL    HW277454   1.628   6.796   2.223
91853SOL     OW77455  12.261   8.080   2.260
91853SOL    HW177456  12.192   8.146   2.264
91853SOL    HW277457  12.214   7.998   2.245
91854SOL     OW77458  12.746  10.785  12.465
91854SOL    HW177459  12.835  10.818  12.478
91854SOL    HW277460  12.709  10.779  12.553
91855SOL     OW77461   3.974   5.163   3.544
91855SOL    HW177462   3.933   5.087   3.502
91855SOL    HW277463   3.959   5.149   3.637
91856SOL     OW77464   7.703  10.775   3.644
91856SOL    HW177465   7.774  10.737   3.592
91856SOL    HW277466   7.628  10.719   3.626
91857SOL     OW77467   4.004   9.026   6.812
91857SOL    HW177468   3.941   9.096   6.793
91857SOL    HW277469   3.995   9.009   6.905
91858SOL     OW77470  11.645   0.239   9.660
91858SOL    HW177471  11.639   0.287   9.578
91858SOL    HW277472  11.696   0.161   9.638
91859SOL     OW77473   9.990   6.252   7.818
91859SOL    HW177474   9.903   6.285   7.795
91859SOL    HW277475  10.036   6.246   7.734
91860SOL     OW77476   8.690  12.868   2.985
91860SOL    HW177477   8.770  12.817   2.976
91860SOL    HW277478   8.649  12.864   2.898
91861SOL     OW77479  13.423  12.040   7.677
91861SOL    HW177480  13.373  11.979   7.623
91861SOL    HW277481  13.358  12.076   7.737
91862SOL     OW77482   3.155  13.506  14.010
91862SOL    HW177483   3.230  13.503  14.070
91862SOL    HW277484   3.156  13.420  13.967
91863SOL     OW77485   1.430  11.796   6.102
91863SOL    HW177486   1.487  11.721   6.114
91863SOL    HW277487   1.414  11.828   6.190
91864SOL     OW77488   4.768   3.961  11.065
91864SOL    HW177489   4.703   3.968  10.995
91864SOL    HW277490   4.775   4.050  11.100
91865SOL     OW77491   8.441   0.122   9.141
91865SOL    HW177492   8.424   0.212   9.113
91865SOL    HW277493   8.358   0.093   9.179
91866SOL     OW77494   0.530   0.967  10.314
91866SOL    HW177495   0.488   0.902  10.259
91866SOL    HW277496   0.479   1.047  10.301
91867SOL     OW77497   1.333   2.641   8.638
91867SOL    HW177498   1.354   2.548   8.630
91867SOL    HW277499   1.372   2.681   8.560
91868SOL     OW77500   2.275   6.278  13.599
91868SOL    HW177501   2.264   6.361  13.552
91868SOL    HW277502   2.203   6.276  13.662
91869SOL     OW77503   6.859   4.854   2.983
91869SOL    HW177504   6.849   4.946   3.008
91869SOL    HW277505   6.937   4.853   2.927
91870SOL     OW77506   2.821  11.706   9.968
91870SOL    HW177507   2.822  11.797   9.996
91870SOL    HW277508   2.729  11.681   9.969
91871SOL     OW77509  12.889  13.991  11.658
91871SOL    HW177510  12.966  13.961  11.611
91871SOL    HW277511  12.865  13.917  11.715
91872SOL     OW77512   0.993  11.995  14.431
91872SOL    HW177513   1.030  11.907  14.433
91872SOL    HW277514   0.981  12.018  14.523
91873SOL     OW77515   0.906   1.208  12.797
91873SOL    HW177516   0.973   1.221  12.864
91873SOL    HW277517   0.955   1.184  12.718
91874SOL     OW77518   4.406   4.185  12.299
91874SOL    HW177519   4.410   4.113  12.237
91874SOL    HW277520   4.467   4.250  12.264
91875SOL     OW77521  11.363  14.777   7.669
91875SOL    HW177522  11.353  14.827   7.588
91875SOL    HW277523  11.336  14.688   7.646
91876SOL     OW77524  14.751   2.754   5.105
91876SOL    HW177525  14.716   2.840   5.127
91876SOL    HW277526  14.743   2.748   5.010
91877SOL     OW77527   9.586  12.715   5.748
91877SOL    HW177528   9.507  12.696   5.799
91877SOL    HW277529   9.561  12.789   5.693
91878SOL     OW77530   7.843   8.874  13.966
91878SOL    HW177531   7.752   8.900  13.983
91878SOL    HW277532   7.835   8.790  13.920
91879SOL     OW77533   2.242   2.116   2.223
91879SOL    HW177534   2.292   2.095   2.301
91879SOL    HW277535   2.241   2.212   2.220
91880SOL     OW77536   3.461   6.591   0.937
91880SOL    HW177537   3.459   6.658   0.869
91880SOL    HW277538   3.513   6.630   1.007
91881SOL     OW77539  10.371   3.468  13.413
91881SOL    HW177540  10.428   3.478  13.489
91881SOL    HW277541  10.291   3.429  13.447
91882SOL     OW77542  13.198  12.154  10.883
91882SOL    HW177543  13.207  12.111  10.799
91882SOL    HW277544  13.138  12.227  10.867
91883SOL     OW77545   4.753   3.099  10.855
91883SOL    HW177546   4.792   3.180  10.823
91883SOL    HW277547   4.829   3.043  10.875
91884SOL     OW77548   2.311  12.017   7.495
91884SOL    HW177549   2.247  11.947   7.504
91884SOL    HW277550   2.367  11.988   7.422
91885SOL     OW77551   9.900   7.801   8.385
91885SOL    HW177552   9.913   7.751   8.304
91885SOL    HW277553   9.806   7.795   8.401
91886SOL     OW77554  13.038   1.332   2.076
91886SOL    HW177555  13.030   1.339   2.171
91886SOL    HW277556  12.954   1.363   2.043
91887SOL     OW77557   1.867   5.256  13.681
91887SOL    HW177558   1.910   5.338  13.657
91887SOL    HW277559   1.903   5.234  13.767
91888SOL     OW77560   0.145   3.618   2.977
91888SOL    HW177561   0.170   3.526   2.970
91888SOL    HW277562   0.074   3.629   2.914
91889SOL     OW77563   3.984   6.328  12.870
91889SOL    HW177564   3.990   6.249  12.816
91889SOL    HW277565   3.989   6.400  12.807
91890SOL     OW77566   2.974   3.242  13.341
91890SOL    HW177567   2.889   3.268  13.305
91890SOL    HW277568   2.953   3.189  13.418
91891SOL     OW77569   4.739  14.207  10.771
91891SOL    HW177570   4.711  14.231  10.859
91891SOL    HW277571   4.831  14.233  10.767
91892SOL     OW77572   5.127   8.007   3.764
91892SOL    HW177573   5.043   7.975   3.798
91892SOL    HW277574   5.193   7.969   3.822
91893SOL     OW77575   1.470   3.401   3.591
91893SOL    HW177576   1.478   3.469   3.658
91893SOL    HW277577   1.376   3.401   3.568
91894SOL     OW77578   3.011   4.948   6.806
91894SOL    HW177579   3.044   5.038   6.798
91894SOL    HW277580   3.023   4.910   6.719
91895SOL     OW77581  14.433  12.981   3.605
91895SOL    HW177582  14.505  12.919   3.594
91895SOL    HW277583  14.384  12.948   3.681
91896SOL     OW77584  13.514   5.769   8.877
91896SOL    HW177585  13.599   5.796   8.913
91896SOL    HW277586  13.478   5.710   8.944
91897SOL     OW77587   0.725   8.982  10.266
91897SOL    HW177588   0.680   8.952  10.344
91897SOL    HW277589   0.795   8.918  10.252
91898SOL     OW77590  14.569  13.641   2.321
91898SOL    HW177591  14.507  13.710   2.298
91898SOL    HW277592  14.650  13.688   2.341
91899SOL     OW77593   3.153   8.883  10.370
91899SOL    HW177594   3.097   8.957  10.347
91899SOL    HW277595   3.191   8.907  10.455
91900SOL     OW77596   1.448   9.907   7.019
91900SOL    HW177597   1.396   9.986   7.008
91900SOL    HW277598   1.436   9.859   6.937
91901SOL     OW77599   2.705  11.421   2.447
91901SOL    HW177600   2.677  11.505   2.483
91901SOL    HW277601   2.655  11.356   2.496
91902SOL     OW77602  10.568   0.646   1.657
91902SOL    HW177603  10.602   0.559   1.678
91902SOL    HW277604  10.485   0.629   1.612
91903SOL     OW77605  13.054  12.933  14.683
91903SOL    HW177606  13.140  12.964  14.710
91903SOL    HW277607  13.044  12.848  14.726
91904SOL     OW77608   1.920   1.984  14.021
91904SOL    HW177609   1.849   1.984  13.956
91904SOL    HW277610   1.891   1.924  14.089
91905SOL     OW77611  12.513  11.061  11.059
91905SOL    HW177612  12.522  11.003  10.983
91905SOL    HW277613  12.463  11.010  11.122
91906SOL     OW77614   0.319   0.104   7.936
91906SOL    HW177615   0.270   0.086   8.016
91906SOL    HW277616   0.302   0.197   7.918
91907SOL     OW77617   2.120  12.319   2.889
91907SOL    HW177618   2.089  12.248   2.833
91907SOL    HW277619   2.157  12.384   2.829
91908SOL     OW77620  11.956  10.732   3.635
91908SOL    HW177621  11.966  10.729   3.730
91908SOL    HW277622  11.875  10.780   3.620
91909SOL     OW77623   5.762   1.256   1.712
91909SOL    HW177624   5.690   1.202   1.680
91909SOL    HW277625   5.816   1.197   1.764
91910SOL     OW77626  10.265   2.414   8.156
91910SOL    HW177627  10.258   2.475   8.229
91910SOL    HW277628  10.192   2.353   8.168
91911SOL     OW77629   1.177   2.652   2.200
91911SOL    HW177630   1.154   2.744   2.214
91911SOL    HW277631   1.100   2.603   2.229
91912SOL     OW77632   9.703  14.471  11.012
91912SOL    HW177633   9.713  14.383  10.974
91912SOL    HW277634   9.780  14.481  11.069
91913SOL     OW77635   2.735   8.337   5.297
91913SOL    HW177636   2.747   8.353   5.204
91913SOL    HW277637   2.792   8.401   5.340
91914SOL     OW77638   1.493   0.706   9.272
91914SOL    HW177639   1.505   0.612   9.264
91914SOL    HW277640   1.398   0.719   9.272
91915SOL     OW77641   4.770   8.798   8.176
91915SOL    HW177642   4.848   8.810   8.229
91915SOL    HW277643   4.752   8.884   8.139
91916SOL     OW77644  10.211   6.530   5.898
91916SOL    HW177645  10.256   6.613   5.881
91916SOL    HW277646  10.203   6.489   5.811
91917SOL     OW77647   9.126   1.484   0.235
91917SOL    HW177648   9.167   1.570   0.227
91917SOL    HW277649   9.070   1.477   0.158
91918SOL     OW77650   4.854   2.592  14.459
91918SOL    HW177651   4.840   2.682  14.486
91918SOL    HW277652   4.942   2.571  14.492
91919SOL     OW77653  11.297   8.736   6.549
91919SOL    HW177654  11.391   8.754   6.554
91919SOL    HW277655  11.274   8.752   6.458
91920SOL     OW77656  13.331   9.560  13.375
91920SOL    HW177657  13.360   9.512  13.453
91920SOL    HW277658  13.363   9.650  13.389
91921SOL     OW77659   9.486   3.228  11.213
91921SOL    HW177660   9.498   3.150  11.267
91921SOL    HW277661   9.570   3.242  11.171
91922SOL     OW77662  10.321   4.573  11.595
91922SOL    HW177663  10.263   4.614  11.660
91922SOL    HW277664  10.262   4.546  11.524
91923SOL     OW77665   4.483  13.357  13.898
91923SOL    HW177666   4.408  13.330  13.951
91923SOL    HW277667   4.518  13.433  13.943
91924SOL     OW77668  14.552  14.693   2.549
91924SOL    HW177669  14.623  14.641   2.512
91924SOL    HW277670  14.573  14.701   2.642
91925SOL     OW77671   2.379  10.960   4.874
91925SOL    HW177672   2.419  11.020   4.810
91925SOL    HW277673   2.293  10.997   4.891
91926SOL     OW77674   2.288   0.055  11.235
91926SOL    HW177675   2.234  14.854  11.266
91926SOL    HW277676   2.247   0.082  11.153
91927SOL     OW77677   8.676   4.493   3.306
91927SOL    HW177678   8.769   4.507   3.289
91927SOL    HW277679   8.646   4.440   3.232
91928SOL     OW77680   9.850   5.229   3.730
91928SOL    HW177681   9.886   5.191   3.649
91928SOL    HW277682   9.826   5.318   3.706
91929SOL     OW77683  13.189   6.106  10.339
91929SOL    HW177684  13.188   6.139  10.429
91929SOL    HW277685  13.106   6.059  10.329
91930SOL     OW77686   2.534   4.540   4.488
91930SOL    HW177687   2.546   4.552   4.582
91930SOL    HW277688   2.526   4.629   4.453
91931SOL     OW77689  12.737  13.420  11.911
91931SOL    HW177690  12.680  13.493  11.934
91931SOL    HW277691  12.822  13.461  11.893
91932SOL     OW77692   4.613  14.585   3.478
91932SOL    HW177693   4.581  14.673   3.458
91932SOL    HW277694   4.555  14.526   3.430
91933SOL     OW77695  10.131  11.585  11.920
91933SOL    HW177696  10.121  11.548  11.832
91933SOL    HW277697  10.043  11.587  11.956
91934SOL     OW77698  12.820   5.275   1.283
91934SOL    HW177699  12.728   5.280   1.257
91934SOL    HW277700  12.852   5.365   1.277
91935SOL     OW77701  13.434  12.401  12.590
91935SOL    HW177702  13.393  12.348  12.522
91935SOL    HW277703  13.449  12.486  12.550
91936SOL     OW77704   5.353  11.758  12.041
91936SOL    HW177705   5.426  11.811  12.007
91936SOL    HW277706   5.276  11.791  11.995
91937SOL     OW77707  10.822   2.126   8.699
91937SOL    HW177708  10.861   2.056   8.752
91937SOL    HW277709  10.817   2.201   8.758
91938SOL     OW77710  14.183   9.588  11.374
91938SOL    HW177711  14.220   9.676  11.376
91938SOL    HW277712  14.122   9.590  11.300
91939SOL     OW77713   8.640  14.658  11.617
91939SOL    HW177714   8.597  14.718  11.556
91939SOL    HW277715   8.703  14.712  11.664
91940SOL     OW77716   7.639   9.251  14.562
91940SOL    HW177717   7.656   9.210  14.647
91940SOL    HW277718   7.547   9.235  14.545
91941SOL     OW77719   2.370   0.921   2.318
91941SOL    HW177720   2.394   0.830   2.301
91941SOL    HW277721   2.453   0.964   2.340
91942SOL     OW77722   3.874   1.708   1.892
91942SOL    HW177723   3.790   1.663   1.898
91942SOL    HW277724   3.936   1.649   1.935
91943SOL     OW77725   2.219   5.371  10.625
91943SOL    HW177726   2.206   5.309  10.696
91943SOL    HW277727   2.144   5.430  10.631
91944SOL     OW77728   0.105   0.244   0.223
91944SOL    HW177729   0.126   0.181   0.154
91944SOL    HW277730   0.014   0.226   0.245
91945SOL     OW77731  10.659   9.503   5.220
91945SOL    HW177732  10.613   9.419   5.232
91945SOL    HW277733  10.743   9.478   5.181
91946SOL     OW77734   0.496  14.098   5.870
91946SOL    HW177735   0.572  14.104   5.812
91946SOL    HW277736   0.530  14.120   5.956
91947SOL     OW77737   3.613   7.401   7.364
91947SOL    HW177738   3.658   7.321   7.391
91947SOL    HW277739   3.593   7.446   7.446
91948SOL     OW77740  10.522   7.575   3.580
91948SOL    HW177741  10.450   7.636   3.568
91948SOL    HW277742  10.484   7.489   3.562
91949SOL     OW77743  13.680   0.003   6.810
91949SOL    HW177744  13.663  14.782   6.806
91949SOL    HW277745  13.617   0.037   6.874
91950SOL     OW77746   1.430  12.796   4.125
91950SOL    HW177747   1.386  12.761   4.202
91950SOL    HW277748   1.359  12.833   4.072
91951SOL     OW77749  11.765   6.154  11.648
91951SOL    HW177750  11.737   6.067  11.677
91951SOL    HW277751  11.736   6.159  11.557
91952SOL     OW77752   2.915   0.254  14.026
91952SOL    HW177753   3.009   0.266  14.035
91952SOL    HW277754   2.906   0.168  13.985
91953SOL     OW77755  12.550   6.306   5.998
91953SOL    HW177756  12.464   6.309   5.957
91953SOL    HW277757  12.543   6.236   6.064
91954SOL     OW77758   7.140  11.600  12.213
91954SOL    HW177759   7.216  11.627  12.162
91954SOL    HW277760   7.168  11.522  12.260
91955SOL     OW77761  10.034   6.921   6.825
91955SOL    HW177762   9.962   6.984   6.828
91955SOL    HW277763  10.033   6.888   6.735
91956SOL     OW77764   6.090   1.476   7.500
91956SOL    HW177765   6.071   1.397   7.551
91956SOL    HW277766   6.051   1.547   7.551
91957SOL     OW77767  13.021   1.398  13.045
91957SOL    HW177768  12.998   1.477  13.094
91957SOL    HW277769  13.077   1.349  13.104
91958SOL     OW77770   9.257   3.013  13.116
91958SOL    HW177771   9.316   2.998  13.190
91958SOL    HW277772   9.172   2.982  13.146
91959SOL     OW77773   8.732  11.463  12.811
91959SOL    HW177774   8.807  11.499  12.763
91959SOL    HW277775   8.731  11.513  12.893
91960SOL     OW77776   6.868   8.539   7.764
91960SOL    HW177777   6.774   8.547   7.748
91960SOL    HW277778   6.895   8.463   7.712
91961SOL     OW77779  11.096   7.253   4.784
91961SOL    HW177780  11.076   7.337   4.825
91961SOL    HW277781  11.069   7.188   4.848
91962SOL     OW77782   5.756  11.193  13.810
91962SOL    HW177783   5.682  11.167  13.754
91962SOL    HW277784   5.790  11.273  13.769
91963SOL     OW77785   0.497   4.926   9.018
91963SOL    HW177786   0.527   4.999   8.964
91963SOL    HW277787   0.517   4.848   8.966
91964SOL     OW77788   4.239  11.569   2.374
91964SOL    HW177789   4.180  11.632   2.332
91964SOL    HW277790   4.186  11.490   2.385
91965SOL     OW77791  14.094  14.657   4.621
91965SOL    HW177792  14.127  14.704   4.544
91965SOL    HW277793  14.172  14.621   4.662
91966SOL     OW77794   0.877  13.495   6.343
91966SOL    HW177795   0.877  13.399   6.344
91966SOL    HW277796   0.838  13.518   6.259
91967SOL     OW77797  12.199   4.836   2.832
91967SOL    HW177798  12.211   4.920   2.876
91967SOL    HW277799  12.185   4.859   2.740
91968SOL     OW77800  14.833   7.966  12.824
91968SOL    HW177801  14.780   7.973  12.904
91968SOL    HW277802   0.051   7.959  12.856
91969SOL     OW77803   7.489   3.321   0.292
91969SOL    HW177804   7.577   3.357   0.283
91969SOL    HW277805   7.461   3.348   0.380
91970SOL     OW77806   8.145   2.917   6.691
91970SOL    HW177807   8.140   3.011   6.670
91970SOL    HW277808   8.147   2.914   6.786
91971SOL     OW77809   4.448   2.199  13.804
91971SOL    HW177810   4.437   2.289  13.836
91971SOL    HW277811   4.534   2.198  13.763
91972SOL     OW77812  14.182   7.881   3.847
91972SOL    HW177813  14.231   7.846   3.773
91972SOL    HW277814  14.169   7.805   3.905
91973SOL     OW77815   4.134   5.072  13.001
91973SOL    HW177816   4.110   5.165  13.003
91973SOL    HW277817   4.083   5.033  13.072
91974SOL     OW77818  13.389   3.628   0.519
91974SOL    HW177819  13.477   3.666   0.522
91974SOL    HW277820  13.351   3.664   0.439
91975SOL     OW77821  11.903   3.860   7.396
91975SOL    HW177822  11.813   3.838   7.422
91975SOL    HW277823  11.934   3.783   7.349
91976SOL     OW77824  12.034   1.288   6.696
91976SOL    HW177825  11.996   1.205   6.724
91976SOL    HW277826  12.065   1.272   6.607
91977SOL     OW77827  11.722   4.887  14.777
91977SOL    HW177828  11.672   4.810  14.806
91977SOL    HW277829  11.678   4.915  14.697
91978SOL     OW77830   2.390   6.537  10.741
91978SOL    HW177831   2.417   6.512  10.653
91978SOL    HW277832   2.472   6.540  10.791
91979SOL     OW77833   4.079   0.215  10.217
91979SOL    HW177834   4.032   0.184  10.295
91979SOL    HW277835   4.010   0.230  10.153
91980SOL     OW77836  11.465  14.128   1.556
91980SOL    HW177837  11.521  14.116   1.633
91980SOL    HW277838  11.518  14.178   1.496
91981SOL     OW77839   5.340   0.796  13.153
91981SOL    HW177840   5.289   0.722  13.121
91981SOL    HW277841   5.286   0.873  13.134
91982SOL     OW77842  11.650  10.722  10.368
91982SOL    HW177843  11.591  10.736  10.442
91982SOL    HW277844  11.694  10.639  10.388
91983SOL     OW77845  11.948   0.111   7.598
91983SOL    HW177846  11.904   0.193   7.623
91983SOL    HW277847  12.041   0.134   7.595
91984SOL     OW77848   9.422   3.194   2.315
91984SOL    HW177849   9.443   3.263   2.252
91984SOL    HW277850   9.330   3.174   2.298
91985SOL     OW77851  11.168  12.734  12.470
91985SOL    HW177852  11.082  12.691  12.478
91985SOL    HW277853  11.163  12.808  12.532
91986SOL     OW77854  13.287   5.339   4.593
91986SOL    HW177855  13.210   5.363   4.646
91986SOL    HW277856  13.252   5.283   4.524
91987SOL     OW77857  13.288  12.210   3.518
91987SOL    HW177858  13.283  12.115   3.526
91987SOL    HW277859  13.343  12.238   3.591
91988SOL     OW77860  10.042   9.605  11.108
91988SOL    HW177861  10.116   9.646  11.064
91988SOL    HW277862   9.967   9.627  11.053
91989SOL     OW77863   1.052   6.215   0.610
91989SOL    HW177864   1.022   6.294   0.656
91989SOL    HW277865   1.146   6.231   0.595
91990SOL     OW77866   7.596   7.880   1.049
91990SOL    HW177867   7.625   7.905   1.137
91990SOL    HW277868   7.518   7.934   1.034
91991SOL     OW77869   0.520   3.853  10.459
91991SOL    HW177870   0.586   3.821  10.398
91991SOL    HW277871   0.480   3.928  10.413
91992SOL     OW77872   2.954   1.211   5.510
91992SOL    HW177873   2.894   1.194   5.438
91992SOL    HW277874   2.898   1.243   5.581
91993SOL     OW77875   8.078   9.410   0.231
91993SOL    HW177876   7.987   9.438   0.221
91993SOL    HW277877   8.103   9.440   0.318
91994SOL     OW77878   0.744  11.290   5.684
91994SOL    HW177879   0.741  11.379   5.649
91994SOL    HW277880   0.837  11.267   5.683
91995SOL     OW77881  13.293   1.845  13.580
91995SOL    HW177882  13.342   1.911  13.629
91995SOL    HW277883  13.331   1.762  13.608
91996SOL     OW77884  13.325   4.977   5.091
91996SOL    HW177885  13.334   5.039   5.019
91996SOL    HW277886  13.307   5.031   5.168
91997SOL     OW77887   1.673  11.820  10.160
91997SOL    HW177888   1.605  11.850  10.100
91997SOL    HW277889   1.712  11.901  10.194
91998SOL     OW77890  14.048   3.474   8.776
91998SOL    HW177891  14.126   3.441   8.731
91998SOL    HW277892  14.047   3.428   8.859
91999SOL     OW77893   8.835   9.512   9.299
91999SOL    HW177894   8.899   9.495   9.230
91999SOL    HW277895   8.832   9.430   9.349
92000SOL     OW77896   7.637   4.869   5.605
92000SOL    HW177897   7.553   4.844   5.567
92000SOL    HW277898   7.701   4.815   5.561
92001SOL     OW77899   2.809  11.487   0.206
92001SOL    HW177900   2.808  11.506   0.300
92001SOL    HW277901   2.749  11.413   0.196
92002SOL     OW77902   5.635   4.298  10.291
92002SOL    HW177903   5.642   4.240  10.368
92002SOL    HW277904   5.680   4.378  10.317
92003SOL     OW77905   2.601   6.917   1.183
92003SOL    HW177906   2.610   7.006   1.150
92003SOL    HW277907   2.515   6.916   1.226
92004SOL     OW77908   4.767   8.716   4.969
92004SOL    HW177909   4.776   8.695   4.876
92004SOL    HW277910   4.806   8.803   4.978
92005SOL     OW77911  11.833  12.142   4.243
92005SOL    HW177912  11.848  12.186   4.327
92005SOL    HW277913  11.739  12.122   4.243
92006SOL     OW77914  13.157   3.883  13.787
92006SOL    HW177915  13.199   3.967  13.807
92006SOL    HW277916  13.130   3.849  13.872
92007SOL     OW77917   8.096  14.372  10.166
92007SOL    HW177918   8.031  14.430  10.205
92007SOL    HW277919   8.045  14.308  10.116
92008SOL     OW77920  14.111  13.353   6.744
92008SOL    HW177921  14.072  13.333   6.830
92008SOL    HW277922  14.144  13.443   6.754
92009SOL     OW77923   4.896   3.737  14.776
92009SOL    HW177924   4.914   3.809  14.716
92009SOL    HW277925   4.973   3.681  14.770
92010SOL     OW77926  12.276   9.458  13.900
92010SOL    HW177927  12.257   9.505  13.819
92010SOL    HW277928  12.340   9.513  13.946
92011SOL     OW77929  12.944  12.463  11.535
92011SOL    HW177930  13.020  12.457  11.592
92011SOL    HW277931  12.931  12.374  11.503
92012SOL     OW77932   2.018   4.640   6.303
92012SOL    HW177933   2.104   4.616   6.339
92012SOL    HW277934   1.992   4.717   6.355
92013SOL     OW77935  11.401   5.464   5.144
92013SOL    HW177936  11.317   5.487   5.184
92013SOL    HW277937  11.461   5.452   5.217
92014SOL     OW77938   4.101   8.097   2.781
92014SOL    HW177939   4.188   8.129   2.806
92014SOL    HW277940   4.065   8.166   2.725
92015SOL     OW77941   9.851   9.581   3.239
92015SOL    HW177942   9.943   9.605   3.244
92015SOL    HW277943   9.844   9.502   3.293
92016SOL     OW77944  10.649   5.350   6.670
92016SOL    HW177945  10.616   5.324   6.755
92016SOL    HW277946  10.721   5.289   6.652
92017SOL     OW77947   6.065   8.425   6.566
92017SOL    HW177948   6.121   8.502   6.556
92017SOL    HW277949   6.122   8.351   6.548
92018SOL     OW77950  10.162   7.800  12.898
92018SOL    HW177951  10.209   7.790  12.815
92018SOL    HW277952  10.077   7.837  12.873
92019SOL     OW77953  14.264   4.719   4.541
92019SOL    HW177954  14.191   4.706   4.481
92019SOL    HW277955  14.254   4.650   4.606
92020SOL     OW77956  14.002   4.436   6.640
92020SOL    HW177957  14.095   4.441   6.620
92020SOL    HW277958  13.972   4.357   6.593
92021SOL     OW77959  12.524   2.892  11.582
92021SOL    HW177960  12.565   2.968  11.622
92021SOL    HW277961  12.438   2.886  11.624
92022SOL     OW77962  11.774   3.627  12.418
92022SOL    HW177963  11.769   3.720  12.442
92022SOL    HW277964  11.867   3.605  12.429
92023SOL     OW77965   5.206  13.365  12.701
92023SOL    HW177966   5.176  13.295  12.643
92023SOL    HW277967   5.297  13.343  12.721
92024SOL     OW77968  11.850   0.630  14.139
92024SOL    HW177969  11.888   0.597  14.221
92024SOL    HW277970  11.852   0.555  14.080
92025SOL     OW77971  11.299   5.342   6.145
92025SOL    HW177972  11.321   5.434   6.162
92025SOL    HW277973  11.215   5.329   6.188
92026SOL     OW77974  12.478   5.752  12.055
92026SOL    HW177975  12.456   5.720  11.968
92026SOL    HW277976  12.427   5.832  12.065
92027SOL     OW77977  11.452  12.188   5.742
92027SOL    HW177978  11.432  12.110   5.690
92027SOL    HW277979  11.494  12.153   5.821
92028SOL     OW77980   4.691  12.358   2.401
92028SOL    HW177981   4.666  12.437   2.449
92028SOL    HW277982   4.781  12.375   2.374
92029SOL     OW77983   7.323   2.659  11.275
92029SOL    HW177984   7.287   2.701  11.353
92029SOL    HW277985   7.270   2.579  11.264
92030SOL     OW77986   3.525   7.783   0.224
92030SOL    HW177987   3.616   7.781   0.197
92030SOL    HW277988   3.518   7.858   0.283
92031SOL     OW77989   5.198   7.536   7.337
92031SOL    HW177990   5.227   7.540   7.428
92031SOL    HW277991   5.265   7.484   7.293
92032SOL     OW77992  14.292   7.995   7.429
92032SOL    HW177993  14.335   8.025   7.349
92032SOL    HW277994  14.234   8.066   7.454
92033SOL     OW77995   1.007   7.461   6.740
92033SOL    HW177996   0.935   7.406   6.707
92033SOL    HW277997   0.988   7.471   6.833
92034SOL     OW77998  10.982  10.405   6.895
92034SOL    HW177999  11.013  10.475   6.839
92034SOL    HW278000  11.052  10.393   6.960
92035SOL     OW78001   6.138   2.131  13.338
92035SOL    HW178002   6.173   2.050  13.300
92035SOL    HW278003   6.044   2.127  13.321
92036SOL     OW78004   2.086   9.008   1.896
92036SOL    HW178005   2.064   8.972   1.810
92036SOL    HW278006   2.087   8.932   1.954
92037SOL     OW78007   0.296  12.450  10.443
92037SOL    HW178008   0.338  12.521  10.491
92037SOL    HW278009   0.245  12.403  10.509
92038SOL     OW78010  14.650  12.359  11.763
92038SOL    HW178011  14.729  12.393  11.805
92038SOL    HW278012  14.608  12.437  11.726
92039SOL     OW78013   0.370  14.276   2.025
92039SOL    HW178014   0.413  14.360   2.010
92039SOL    HW278015   0.417  14.215   1.967
92040SOL     OW78016  10.121   1.472   4.267
92040SOL    HW178017  10.184   1.477   4.340
92040SOL    HW278018  10.173   1.442   4.193
92041SOL     OW78019  12.782  10.289  12.593
92041SOL    HW178020  12.871  10.320  12.575
92041SOL    HW278021  12.777  10.285  12.688
92042SOL     OW78022   7.696   8.562   5.858
92042SOL    HW178023   7.769   8.509   5.827
92042SOL    HW278024   7.695   8.549   5.953
92043SOL     OW78025   7.783  11.350   0.590
92043SOL    HW178026   7.688  11.343   0.580
92043SOL    HW278027   7.807  11.273   0.641
92044SOL     OW78028   4.008  10.327   1.473
92044SOL    HW178029   4.069  10.353   1.542
92044SOL    HW278030   4.043  10.245   1.439
92045SOL     OW78031   3.719   8.645  14.785
92045SOL    HW178032   3.757   8.689  14.861
92045SOL    HW278033   3.647   8.593  14.821
92046SOL     OW78034  11.088  12.428  10.642
92046SOL    HW178035  11.076  12.497  10.706
92046SOL    HW278036  11.159  12.374  10.678
92047SOL     OW78037  14.547   9.554  11.755
92047SOL    HW178038  14.493   9.478  11.776
92047SOL    HW278039  14.621   9.518  11.705
92048SOL     OW78040   4.241   9.527  10.905
92048SOL    HW178041   4.197   9.500  10.824
92048SOL    HW278042   4.333   9.534  10.881
92049SOL     OW78043   7.257   7.711  11.458
92049SOL    HW178044   7.286   7.782  11.515
92049SOL    HW278045   7.166   7.732  11.438
92050SOL     OW78046  14.853   9.179   4.766
92050SOL    HW178047  14.842   9.196   4.672
92050SOL    HW278048  14.872   9.265   4.804
92051SOL     OW78049  14.739  14.419   1.593
92051SOL    HW178050  14.668  14.366   1.630
92051SOL    HW278051  14.759  14.375   1.510
92052SOL     OW78052   9.420   1.912  13.447
92052SOL    HW178053   9.457   1.839  13.497
92052SOL    HW278054   9.395   1.874  13.363
92053SOL     OW78055   0.927  13.329   1.278
92053SOL    HW178056   1.018  13.348   1.303
92053SOL    HW278057   0.907  13.393   1.209
92054SOL     OW78058   3.498   2.814   7.971
92054SOL    HW178059   3.567   2.758   8.006
92054SOL    HW278060   3.497   2.796   7.877
92055SOL     OW78061  10.738  13.197   6.680
92055SOL    HW178062  10.732  13.124   6.619
92055SOL    HW278063  10.655  13.243   6.671
92056SOL     OW78064   6.540   6.657   8.559
92056SOL    HW178065   6.472   6.724   8.567
92056SOL    HW278066   6.599   6.690   8.491
92057SOL     OW78067   2.786   5.908  14.074
92057SOL    HW178068   2.743   5.941  14.153
92057SOL    HW278069   2.833   5.830  14.104
92058SOL     OW78070   9.511   6.748   9.559
92058SOL    HW178071   9.524   6.838   9.531
92058SOL    HW278072   9.442   6.753   9.624
92059SOL     OW78073   0.429  10.826  13.955
92059SOL    HW178074   0.428  10.732  13.935
92059SOL    HW278075   0.338  10.853  13.950
92060SOL     OW78076  13.543   0.073  10.330
92060SOL    HW178077  13.526  14.855  10.358
92060SOL    HW278078  13.576   0.117  10.408
92061SOL     OW78079   3.473   0.858   1.441
92061SOL    HW178080   3.492   0.952   1.432
92061SOL    HW278081   3.387   0.855   1.481
92062SOL     OW78082   5.158   6.175   5.041
92062SOL    HW178083   5.072   6.202   5.074
92062SOL    HW278084   5.219   6.202   5.110
92063SOL     OW78085   7.170   3.645   2.690
92063SOL    HW178086   7.242   3.669   2.633
92063SOL    HW278087   7.199   3.671   2.778
92064SOL     OW78088   7.949   7.072  13.966
92064SOL    HW178089   7.996   6.994  13.939
92064SOL    HW278090   7.857   7.052  13.952
92065SOL     OW78091   8.456   2.693  12.917
92065SOL    HW178092   8.477   2.601  12.898
92065SOL    HW278093   8.471   2.703  13.011
92066SOL     OW78094  14.413  14.760   1.192
92066SOL    HW178095  14.470  14.687   1.216
92066SOL    HW278096  14.326  14.733   1.221
92067SOL     OW78097   8.378  11.337   6.422
92067SOL    HW178098   8.326  11.334   6.503
92067SOL    HW278099   8.340  11.408   6.371
92068SOL     OW78100   7.323   9.161  11.248
92068SOL    HW178101   7.262   9.150  11.175
92068SOL    HW278102   7.288   9.103  11.316
92069SOL     OW78103   4.018   6.332   4.132
92069SOL    HW178104   4.025   6.328   4.227
92069SOL    HW278105   4.108   6.318   4.101
92070SOL     OW78106   7.419   0.728  12.879
92070SOL    HW178107   7.432   0.823  12.887
92070SOL    HW278108   7.463   0.692  12.956
92071SOL     OW78109  11.121  11.529   2.118
92071SOL    HW178110  11.072  11.515   2.199
92071SOL    HW278111  11.212  11.533   2.146
92072SOL     OW78112  12.419  14.213   3.969
92072SOL    HW178113  12.496  14.239   3.919
92072SOL    HW278114  12.437  14.122   3.994
92073SOL     OW78115  11.618  12.276   2.277
92073SOL    HW178116  11.662  12.296   2.195
92073SOL    HW278117  11.526  12.295   2.260
92074SOL     OW78118   0.971   4.645   4.986
92074SOL    HW178119   1.043   4.695   5.025
92074SOL    HW278120   0.986   4.555   5.013
92075SOL     OW78121   3.560   4.715   5.674
92075SOL    HW178122   3.631   4.689   5.616
92075SOL    HW278123   3.501   4.640   5.675
92076SOL     OW78124   0.044  10.802   0.818
92076SOL    HW178125  14.870  10.719   0.806
92076SOL    HW278126   0.053  10.811   0.913
92077SOL     OW78127  14.024   2.871  12.398
92077SOL    HW178128  14.041   2.830  12.313
92077SOL    HW278129  14.109   2.874  12.441
92078SOL     OW78130   9.566  10.879   4.252
92078SOL    HW178131   9.611  10.879   4.168
92078SOL    HW278132   9.498  10.812   4.243
92079SOL     OW78133   5.634   6.126   9.768
92079SOL    HW178134   5.685   6.097   9.692
92079SOL    HW278135   5.649   6.221   9.771
92080SOL     OW78136  12.804  13.069   8.547
92080SOL    HW178137  12.834  12.993   8.496
92080SOL    HW278138  12.778  13.133   8.481
92081SOL     OW78139   8.789  12.115   5.200
92081SOL    HW178140   8.707  12.127   5.152
92081SOL    HW278141   8.761  12.083   5.286
92082SOL     OW78142  14.468   1.476  14.222
92082SOL    HW178143  14.502   1.397  14.180
92082SOL    HW278144  14.544   1.535  14.228
92083SOL     OW78145   1.191   4.623   9.169
92083SOL    HW178146   1.129   4.630   9.242
92083SOL    HW278147   1.272   4.663   9.202
92084SOL     OW78148  10.188   2.217  13.639
92084SOL    HW178149  10.235   2.262  13.568
92084SOL    HW278150  10.188   2.125  13.614
92085SOL     OW78151   6.945   0.451   4.808
92085SOL    HW178152   6.990   0.427   4.889
92085SOL    HW278153   6.886   0.522   4.833
92086SOL     OW78154   2.380  14.266   6.958
92086SOL    HW178155   2.420  14.181   6.941
92086SOL    HW278156   2.311  14.247   7.022
92087SOL     OW78157  14.214   1.064   5.770
92087SOL    HW178158  14.211   1.136   5.707
92087SOL    HW278159  14.216   1.106   5.856
92088SOL     OW78160   7.557   1.344   8.088
92088SOL    HW178161   7.465   1.338   8.112
92088SOL    HW278162   7.583   1.432   8.116
92089SOL     OW78163   9.747  12.516   5.545
92089SOL    HW178164   9.718  12.488   5.458
92089SOL    HW278165   9.705  12.601   5.558
92090SOL     OW78166  11.867   4.045   1.366
92090SOL    HW178167  11.830   3.984   1.429
92090SOL    HW278168  11.797   4.110   1.352
92091SOL     OW78169   8.320   0.855  13.030
92091SOL    HW178170   8.330   0.893  13.117
92091SOL    HW278171   8.231   0.880  13.004
92092SOL     OW78172   0.300   3.933   9.208
92092SOL    HW178173   0.360   3.975   9.269
92092SOL    HW278174   0.324   3.840   9.212
92093SOL     OW78175   8.170  10.723   7.046
92093SOL    HW178176   8.207  10.706   7.133
92093SOL    HW278177   8.243  10.708   6.986
92094SOL     OW78178  10.865   6.298   4.982
92094SOL    HW178179  10.931   6.261   4.923
92094SOL    HW278180  10.866   6.391   4.963
92095SOL     OW78181   9.882   1.595   0.752
92095SOL    HW178182   9.863   1.542   0.675
92095SOL    HW278183   9.968   1.634   0.734
92096SOL     OW78184  12.306   2.345   6.209
92096SOL    HW178185  12.327   2.390   6.291
92096SOL    HW278186  12.315   2.252   6.229
92097SOL     OW78187  13.051  12.318   7.460
92097SOL    HW178188  13.092  12.390   7.412
92097SOL    HW278189  13.082  12.330   7.550
92098SOL     OW78190   5.383   0.125   4.451
92098SOL    HW178191   5.361   0.209   4.492
92098SOL    HW278192   5.340   0.059   4.507
92099SOL     OW78193  12.292  13.272  11.916
92099SOL    HW178194  12.297  13.367  11.904
92099SOL    HW278195  12.228  13.244  11.851
92100SOL     OW78196   1.741   8.581   9.278
92100SOL    HW178197   1.770   8.491   9.267
92100SOL    HW278198   1.680   8.578   9.352
92101SOL     OW78199   3.912   2.405   7.498
92101SOL    HW178200   3.862   2.460   7.437
92101SOL    HW278201   3.854   2.331   7.516
92102SOL     OW78202  13.814   7.976  12.027
92102SOL    HW178203  13.754   8.049  12.011
92102SOL    HW278204  13.784   7.907  11.967
92103SOL     OW78205   5.223   3.056   8.868
92103SOL    HW178206   5.249   3.144   8.894
92103SOL    HW278207   5.219   3.060   8.772
92104SOL     OW78208   7.158  11.181  13.986
92104SOL    HW178209   7.173  11.102  13.935
92104SOL    HW278210   7.146  11.150  14.076
92105SOL     OW78211  13.272   8.104  13.780
92105SOL    HW178212  13.317   8.184  13.754
92105SOL    HW278213  13.334   8.034  13.761
92106SOL     OW78214   7.282   4.489   4.571
92106SOL    HW178215   7.250   4.445   4.492
92106SOL    HW278216   7.376   4.498   4.557
92107SOL     OW78217   6.206  12.631   9.870
92107SOL    HW178218   6.273  12.566   9.848
92107SOL    HW278219   6.233  12.665   9.955
92108SOL     OW78220   5.478   2.473   4.717
92108SOL    HW178221   5.398   2.509   4.756
92108SOL    HW278222   5.549   2.509   4.770
92109SOL     OW78223   1.567   4.984   5.685
92109SOL    HW178224   1.586   4.928   5.759
92109SOL    HW278225   1.542   4.924   5.615
92110SOL     OW78226   5.132   1.272  11.377
92110SOL    HW178227   5.146   1.205  11.310
92110SOL    HW278228   5.134   1.355  11.329
92111SOL     OW78229   8.779   4.114   9.002
92111SOL    HW178230   8.775   4.208   8.982
92111SOL    HW278231   8.751   4.071   8.921
92112SOL     OW78232   4.286   6.621   9.554
92112SOL    HW178233   4.234   6.694   9.521
92112SOL    HW278234   4.315   6.649   9.640
92113SOL     OW78235   8.502  14.309   9.889
92113SOL    HW178236   8.509  14.263   9.805
92113SOL    HW278237   8.448  14.251   9.943
92114SOL     OW78238   0.658   1.599   9.431
92114SOL    HW178239   0.745   1.569   9.404
92114SOL    HW278240   0.657   1.586   9.526
92115SOL     OW78241  11.985   0.890   6.587
92115SOL    HW178242  12.077   0.914   6.599
92115SOL    HW278243  11.947   0.895   6.674
92116SOL     OW78244   0.875  11.881   0.857
92116SOL    HW178245   0.935  11.816   0.894
92116SOL    HW278246   0.798  11.831   0.832
92117SOL     OW78247   3.166  10.708   2.653
92117SOL    HW178248   3.135  10.759   2.729
92117SOL    HW278249   3.145  10.762   2.577
92118SOL     OW78250   6.459   1.396   7.832
92118SOL    HW178251   6.502   1.311   7.842
92118SOL    HW278252   6.412   1.390   7.749
92119SOL     OW78253   6.889   1.835  11.836
92119SOL    HW178254   6.850   1.801  11.755
92119SOL    HW278255   6.873   1.766  11.901
92120SOL     OW78256   9.529  10.901   1.651
92120SOL    HW178257   9.510  10.939   1.565
92120SOL    HW278258   9.519  10.974   1.712
92121SOL     OW78259  12.716   7.674   9.542
92121SOL    HW178260  12.701   7.661   9.448
92121SOL    HW278261  12.736   7.586   9.575
92122SOL     OW78262  11.708   6.945   4.155
92122SOL    HW178263  11.648   7.015   4.132
92122SOL    HW278264  11.774   6.987   4.211
92123SOL     OW78265   6.309   9.467  14.639
92123SOL    HW178266   6.343   9.387  14.680
92123SOL    HW278267   6.279   9.439  14.553
92124SOL     OW78268   6.850  11.516  11.066
92124SOL    HW178269   6.891  11.577  11.127
92124SOL    HW278270   6.874  11.429  11.098
92125SOL     OW78271   7.135   4.725   6.167
92125SOL    HW178272   7.124   4.675   6.086
92125SOL    HW278273   7.110   4.814   6.143
92126SOL     OW78274   6.059   7.635   4.418
92126SOL    HW178275   6.122   7.592   4.476
92126SOL    HW278276   5.992   7.569   4.402
92127SOL     OW78277   7.726   6.184   9.298
92127SOL    HW178278   7.818   6.195   9.321
92127SOL    HW278279   7.685   6.150   9.378
92128SOL     OW78280   3.426  11.613   5.823
92128SOL    HW178281   3.446  11.628   5.916
92128SOL    HW278282   3.439  11.519   5.811
92129SOL     OW78283   0.057  12.080  10.741
92129SOL    HW178284   0.015  12.015  10.797
92129SOL    HW278285  14.856  12.127  10.701
92130SOL     OW78286   9.433   9.926  12.462
92130SOL    HW178287   9.454  10.016  12.485
92130SOL    HW278288   9.411   9.929  12.369
92131SOL     OW78289   5.342   2.992   3.096
92131SOL    HW178290   5.394   3.052   3.043
92131SOL    HW278291   5.327   2.916   3.041
92132SOL     OW78292  11.659   9.228  11.878
92132SOL    HW178293  11.638   9.207  11.787
92132SOL    HW278294  11.591   9.291  11.904
92133SOL     OW78295   6.104   4.908   1.315
92133SOL    HW178296   6.191   4.941   1.294
92133SOL    HW278297   6.107   4.815   1.290
92134SOL     OW78298   8.566   1.283   6.881
92134SOL    HW178299   8.583   1.363   6.930
92134SOL    HW278300   8.525   1.312   6.800
92135SOL     OW78301   3.653   1.178  10.906
92135SOL    HW178302   3.720   1.119  10.939
92135SOL    HW278303   3.602   1.124  10.845
92136SOL     OW78304   7.567  11.368   5.467
92136SOL    HW178305   7.646  11.397   5.513
92136SOL    HW278306   7.585  11.276   5.444
92137SOL     OW78307  11.336  10.852   9.274
92137SOL    HW178308  11.340  10.946   9.294
92137SOL    HW278309  11.309  10.848   9.182
92138SOL     OW78310   3.809   6.494   0.017
92138SOL    HW178311   3.889   6.545   0.033
92138SOL    HW278312   3.802   6.436   0.093
92139SOL     OW78313   0.193   1.252   7.258
92139SOL    HW178314   0.135   1.212   7.323
92139SOL    HW278315   0.136   1.269   7.182
92140SOL     OW78316  11.826  13.371  10.992
92140SOL    HW178317  11.777  13.348  11.071
92140SOL    HW278318  11.916  13.385  11.022
92141SOL     OW78319   6.916   4.525   7.221
92141SOL    HW178320   6.966   4.456   7.178
92141SOL    HW278321   6.867   4.567   7.151
92142SOL     OW78322  11.032   9.559  13.224
92142SOL    HW178323  11.116   9.547  13.269
92142SOL    HW278324  11.039   9.645  13.183
92143SOL     OW78325  13.900  11.046  14.146
92143SOL    HW178326  13.884  11.103  14.221
92143SOL    HW278327  13.817  11.043  14.099
92144SOL     OW78328   3.755  10.385   5.824
92144SOL    HW178329   3.728  10.365   5.735
92144SOL    HW278330   3.769  10.299   5.865
92145SOL     OW78331   4.752   9.952  12.682
92145SOL    HW178332   4.725   9.983  12.768
92145SOL    HW278333   4.824   9.892  12.699
92146SOL     OW78334   4.046   3.358   6.225
92146SOL    HW178335   4.075   3.422   6.290
92146SOL    HW278336   3.952   3.374   6.216
92147SOL     OW78337  10.398   4.745  11.027
92147SOL    HW178338  10.431   4.735  10.938
92147SOL    HW278339  10.316   4.696  11.028
92148SOL     OW78340  14.394   1.826  12.668
92148SOL    HW178341  14.316   1.771  12.669
92148SOL    HW278342  14.417   1.833  12.576
92149SOL     OW78343  11.755   4.357  10.141
92149SOL    HW178344  11.822   4.288  10.142
92149SOL    HW278345  11.799   4.432  10.101
92150SOL     OW78346   8.983   0.769   1.242
92150SOL    HW178347   9.020   0.785   1.328
92150SOL    HW278348   9.032   0.826   1.183
92151SOL     OW78349   6.549   3.230   8.661
92151SOL    HW178350   6.532   3.140   8.690
92151SOL    HW278351   6.620   3.261   8.717
92152SOL     OW78352   0.031  11.424  11.340
92152SOL    HW178353  14.828  11.455  11.290
92152SOL    HW278354   0.062  11.502  11.387
92153SOL     OW78355   2.181  14.554   2.011
92153SOL    HW178356   2.140  14.635   1.980
92153SOL    HW278357   2.175  14.560   2.107
92154SOL     OW78358  14.617  10.251   4.706
92154SOL    HW178359  14.642  10.254   4.613
92154SOL    HW278360  14.556  10.178   4.712
92155SOL     OW78361   7.092   6.162  14.155
92155SOL    HW178362   7.030   6.106  14.202
92155SOL    HW278363   7.116   6.230  14.217
92156SOL     OW78364   0.686  12.463   6.039
92156SOL    HW178365   0.762  12.515   6.064
92156SOL    HW278366   0.644  12.513   5.969
92157SOL     OW78367   8.747  10.189   8.667
92157SOL    HW178368   8.698  10.266   8.696
92157SOL    HW278369   8.817  10.225   8.613
92158SOL     OW78370   6.740   4.306   7.310
92158SOL    HW178371   6.661   4.336   7.355
92158SOL    HW278372   6.791   4.386   7.296
92159SOL     OW78373   6.941   7.140   5.309
92159SOL    HW178374   6.978   7.100   5.387
92159SOL    HW278375   6.868   7.082   5.285
92160SOL     OW78376   2.625   8.257  13.682
92160SOL    HW178377   2.682   8.257  13.605
92160SOL    HW278378   2.670   8.312  13.746
92161SOL     OW78379   9.470   7.343   5.144
92161SOL    HW178380   9.558   7.315   5.169
92161SOL    HW278381   9.463   7.433   5.174
92162SOL     OW78382  10.781   7.459   7.733
92162SOL    HW178383  10.726   7.443   7.809
92162SOL    HW278384  10.792   7.373   7.692
92163SOL     OW78385  13.379   9.852   8.947
92163SOL    HW178386  13.301   9.842   9.002
92163SOL    HW278387  13.346   9.853   8.858
92164SOL     OW78388   3.996   7.047   0.706
92164SOL    HW178389   3.955   7.054   0.620
92164SOL    HW278390   4.086   7.076   0.691
92165SOL     OW78391   2.616   8.813   7.713
92165SOL    HW178392   2.556   8.887   7.702
92165SOL    HW278393   2.655   8.828   7.799
92166SOL     OW78394   4.189   8.732   0.739
92166SOL    HW178395   4.274   8.708   0.703
92166SOL    HW278396   4.198   8.824   0.764
92167SOL     OW78397  13.381  13.757   3.610
92167SOL    HW178398  13.318  13.775   3.680
92167SOL    HW278399  13.452  13.710   3.652
92168SOL     OW78400   9.459   6.047   0.367
92168SOL    HW178401   9.376   6.079   0.402
92168SOL    HW278402   9.466   5.957   0.399
92169SOL     OW78403   0.240  13.169   2.215
92169SOL    HW178404   0.288  13.103   2.164
92169SOL    HW278405   0.149  13.138   2.215
92170SOL     OW78406   1.056   0.848   9.074
92170SOL    HW178407   1.034   0.774   9.131
92170SOL    HW278408   0.976   0.866   9.026
92171SOL     OW78409  14.445   0.519  12.637
92171SOL    HW178410  14.395   0.573  12.576
92171SOL    HW278411  14.516   0.577  12.667
92172SOL     OW78412   2.767   2.442  13.743
92172SOL    HW178413   2.787   2.449  13.650
92172SOL    HW278414   2.850   2.461  13.787
92173SOL     OW78415  10.498   3.044   7.357
92173SOL    HW178416  10.519   3.137   7.347
92173SOL    HW278417  10.426   3.042   7.421
92174SOL     OW78418   2.888  12.763   2.713
92174SOL    HW178419   2.969  12.815   2.708
92174SOL    HW278420   2.875  12.747   2.806
92175SOL     OW78421  10.671  13.258   0.829
92175SOL    HW178422  10.727  13.334   0.848
92175SOL    HW278423  10.731  13.192   0.794
92176SOL     OW78424   1.809   9.235  14.628
92176SOL    HW178425   1.891   9.186  14.638
92176SOL    HW278426   1.742   9.167  14.614
92177SOL     OW78427   8.381   0.927   0.027
92177SOL    HW178428   8.470   0.960   0.017
92177SOL    HW278429   8.353   0.959   0.113
92178SOL     OW78430   1.938  12.881   2.113
92178SOL    HW178431   1.845  12.870   2.132
92178SOL    HW278432   1.948  12.852   2.022
92179SOL     OW78433  10.029   9.116   2.330
92179SOL    HW178434  10.017   9.111   2.235
92179SOL    HW278435  10.113   9.071   2.346
92180SOL     OW78436  10.983   0.121  12.373
92180SOL    HW178437  10.947   0.198  12.329
92180SOL    HW278438  11.078   0.136  12.373
92181SOL     OW78439   1.072   1.934  14.136
92181SOL    HW178440   1.152   1.985  14.149
92181SOL    HW278441   1.095   1.870  14.069
92182SOL     OW78442   7.131   1.056   0.692
92182SOL    HW178443   7.117   1.008   0.773
92182SOL    HW278444   7.220   1.034   0.665
92183SOL     OW78445  13.694   7.527   8.409
92183SOL    HW178446  13.692   7.565   8.321
92183SOL    HW278447  13.671   7.600   8.467
92184SOL     OW78448  11.322   4.741   5.218
92184SOL    HW178449  11.289   4.786   5.296
92184SOL    HW278450  11.291   4.651   5.228
92185SOL     OW78451  13.825   4.295   4.615
92185SOL    HW178452  13.789   4.346   4.542
92185SOL    HW278453  13.749   4.246   4.649
92186SOL     OW78454   7.880   6.548   7.161
92186SOL    HW178455   7.800   6.600   7.168
92186SOL    HW278456   7.903   6.528   7.252
92187SOL     OW78457   2.548   5.523   1.335
92187SOL    HW178458   2.549   5.559   1.424
92187SOL    HW278459   2.566   5.429   1.347
92188SOL     OW78460   8.053  12.994   4.833
92188SOL    HW178461   8.114  12.947   4.890
92188SOL    HW278462   8.066  12.956   4.747
92189SOL     OW78463   0.356  13.984   8.196
92189SOL    HW178464   0.288  14.029   8.145
92189SOL    HW278465   0.381  14.048   8.264
92190SOL     OW78466   7.045   8.939  12.004
92190SOL    HW178467   6.952   8.939  12.029
92190SOL    HW278468   7.051   9.007  11.936
92191SOL     OW78469  10.827   5.452   7.712
92191SOL    HW178470  10.811   5.360   7.694
92191SOL    HW278471  10.832   5.457   7.808
92192SOL     OW78472  12.227   5.218   7.939
92192SOL    HW178473  12.244   5.134   7.896
92192SOL    HW278474  12.306   5.236   7.989
92193SOL     OW78475   6.413   8.730  10.181
92193SOL    HW178476   6.460   8.806  10.147
92193SOL    HW278477   6.457   8.655  10.139
92194SOL     OW78478  13.536   3.502   0.796
92194SOL    HW178479  13.603   3.531   0.857
92194SOL    HW278480  13.526   3.408   0.813
92195SOL     OW78481  12.741   0.270  13.369
92195SOL    HW178482  12.807   0.338  13.380
92195SOL    HW278483  12.663   0.317  13.337
92196SOL     OW78484   6.740   5.896  10.851
92196SOL    HW178485   6.684   5.834  10.804
92196SOL    HW278486   6.737   5.975  10.798
92197SOL     OW78487   0.884   4.709   7.383
92197SOL    HW178488   0.875   4.788   7.436
92197SOL    HW278489   0.795   4.675   7.375
92198SOL     OW78490   1.997  11.910  14.456
92198SOL    HW178491   1.917  11.935  14.502
92198SOL    HW278492   1.968  11.890  14.367
92199SOL     OW78493  14.409   5.682   3.689
92199SOL    HW178494  14.483   5.732   3.722
92199SOL    HW278495  14.345   5.682   3.761
92200SOL     OW78496   1.906  13.480   3.069
92200SOL    HW178497   1.846  13.474   3.143
92200SOL    HW278498   1.978  13.422   3.092
92201SOL     OW78499   3.742  11.165  13.767
92201SOL    HW178500   3.835  11.149  13.781
92201SOL    HW278501   3.714  11.096  13.707
92202SOL     OW78502  14.296   2.231   0.235
92202SOL    HW178503  14.280   2.137   0.226
92202SOL    HW278504  14.306   2.262   0.145
92203SOL     OW78505  10.396   4.628   0.449
92203SOL    HW178506  10.339   4.555   0.425
92203SOL    HW278507  10.414   4.615   0.542
92204SOL     OW78508   0.102  13.350  14.452
92204SOL    HW178509   0.038  13.282  14.431
92204SOL    HW278510   0.108  13.349  14.547
92205SOL     OW78511   6.385  11.745  11.999
92205SOL    HW178512   6.335  11.682  11.947
92205SOL    HW278513   6.455  11.694  12.038
92206SOL     OW78514   1.323  12.275   8.837
92206SOL    HW178515   1.371  12.227   8.769
92206SOL    HW278516   1.278  12.345   8.790
92207SOL     OW78517  11.724   0.770   3.709
92207SOL    HW178518  11.750   0.706   3.642
92207SOL    HW278519  11.781   0.846   3.693
92208SOL     OW78520  10.917   3.084   7.576
92208SOL    HW178521  10.895   3.024   7.648
92208SOL    HW278522  10.950   3.027   7.507
92209SOL     OW78523   4.695   6.589   5.008
92209SOL    HW178524   4.741   6.575   4.925
92209SOL    HW278525   4.605   6.608   4.982
92210SOL     OW78526  11.212   1.610   2.783
92210SOL    HW178527  11.247   1.670   2.850
92210SOL    HW278528  11.118   1.623   2.787
92211SOL     OW78529  10.890  14.476   4.359
92211SOL    HW178530  10.845  14.419   4.296
92211SOL    HW278531  10.901  14.559   4.312
92212SOL     OW78532  12.934   4.358   9.527
92212SOL    HW178533  12.897   4.289   9.582
92212SOL    HW278534  12.859   4.396   9.483
92213SOL     OW78535   8.124   1.152  13.944
92213SOL    HW178536   8.196   1.110  13.895
92213SOL    HW278537   8.052   1.089  13.938
92214SOL     OW78538   5.007   9.504   1.732
92214SOL    HW178539   5.084   9.548   1.696
92214SOL    HW278540   4.937   9.568   1.726
92215SOL     OW78541  10.312  10.801  11.060
92215SOL    HW178542  10.268  10.797  11.145
92215SOL    HW278543  10.241  10.806  10.997
92216SOL     OW78544  11.709   3.299   5.519
92216SOL    HW178545  11.722   3.321   5.611
92216SOL    HW278546  11.744   3.375   5.471
92217SOL     OW78547   7.708   5.861  12.298
92217SOL    HW178548   7.715   5.955  12.278
92217SOL    HW278549   7.798   5.831  12.302
92218SOL     OW78550  10.915   7.728   2.912
92218SOL    HW178551  10.837   7.680   2.884
92218SOL    HW278552  10.917   7.805   2.855
92219SOL     OW78553   0.817   6.906  10.116
92219SOL    HW178554   0.721   6.901  10.116
92219SOL    HW278555   0.835   6.999  10.101
92220SOL     OW78556   5.890  12.403   4.576
92220SOL    HW178557   5.867  12.461   4.504
92220SOL    HW278558   5.816  12.412   4.638
92221SOL     OW78559   3.012  13.166  12.212
92221SOL    HW178560   3.087  13.189  12.159
92221SOL    HW278561   2.936  13.190  12.159
92222SOL     OW78562   0.120  13.626  10.046
92222SOL    HW178563   0.171  13.692  10.093
92222SOL    HW278564   0.182  13.587   9.985
92223SOL     OW78565   7.660  13.532   6.725
92223SOL    HW178566   7.572  13.566   6.746
92223SOL    HW278567   7.652  13.437   6.736
92224SOL     OW78568  13.616  11.563   8.897
92224SOL    HW178569  13.571  11.585   8.816
92224SOL    HW278570  13.703  11.602   8.888
92225SOL     OW78571   4.434  11.149   4.599
92225SOL    HW178572   4.499  11.181   4.536
92225SOL    HW278573   4.359  11.122   4.545
92226SOL     OW78574   7.051   7.702   5.222
92226SOL    HW178575   7.100   7.784   5.216
92226SOL    HW278576   6.969   7.727   5.265
92227SOL     OW78577   3.199   9.516  11.670
92227SOL    HW178578   3.141   9.554  11.736
92227SOL    HW278579   3.181   9.565  11.590
92228SOL     OW78580   5.988   8.078   1.136
92228SOL    HW178581   6.048   8.027   1.190
92228SOL    HW278582   5.958   8.017   1.069
92229SOL     OW78583  10.976  12.098   3.119
92229SOL    HW178584  10.988  12.041   3.195
92229SOL    HW278585  10.891  12.140   3.133
92230SOL     OW78586  14.098   2.686  10.998
92230SOL    HW178587  14.014   2.661  10.961
92230SOL    HW278588  14.131   2.607  11.039
92231SOL     OW78589   6.847  10.246   4.051
92231SOL    HW178590   6.818  10.156   4.062
92231SOL    HW278591   6.942  10.242   4.058
92232SOL     OW78592   7.751  11.521   5.610
92232SOL    HW178593   7.767  11.571   5.530
92232SOL    HW278594   7.809  11.560   5.675
92233SOL     OW78595  11.265   0.087   0.006
92233SOL    HW178596  11.294   0.013   0.059
92233SOL    HW278597  11.344   0.139  14.866
92234SOL     OW78598   3.877   8.030  12.742
92234SOL    HW178599   3.943   7.993  12.800
92234SOL    HW278600   3.927   8.063  12.667
92235SOL     OW78601   1.987   5.961  14.683
92235SOL    HW178602   2.006   5.868  14.676
92235SOL    HW278603   1.900   5.971  14.643
92236SOL     OW78604  11.121  10.391   8.300
92236SOL    HW178605  11.213  10.415   8.288
92236SOL    HW278606  11.123  10.313   8.355
92237SOL     OW78607   1.421  13.215  12.286
92237SOL    HW178608   1.452  13.301  12.261
92237SOL    HW278609   1.333  13.230  12.321
92238SOL     OW78610  11.062   6.985   1.324
92238SOL    HW178611  11.037   6.923   1.254
92238SOL    HW278612  11.086   6.929   1.397
92239SOL     OW78613  13.970   9.622  10.724
92239SOL    HW178614  13.897   9.574  10.686
92239SOL    HW278615  14.015   9.558  10.779
92240SOL     OW78616   0.405   5.761   7.378
92240SOL    HW178617   0.372   5.716   7.456
92240SOL    HW278618   0.500   5.757   7.386
92241SOL     OW78619  13.832   8.994  13.708
92241SOL    HW178620  13.844   8.996  13.613
92241SOL    HW278621  13.897   8.931  13.739
92242SOL     OW78622  10.633   0.286   6.513
92242SOL    HW178623  10.636   0.280   6.609
92242SOL    HW278624  10.542   0.310   6.494
92243SOL     OW78625  10.057   6.564  12.366
92243SOL    HW178626  10.147   6.547  12.337
92243SOL    HW278627  10.010   6.585  12.285
92244SOL     OW78628  12.435   1.762  11.325
92244SOL    HW178629  12.424   1.674  11.289
92244SOL    HW278630  12.495   1.806  11.264
92245SOL     OW78631  12.957   6.025   7.134
92245SOL    HW178632  12.965   5.932   7.155
92245SOL    HW278633  12.881   6.029   7.075
92246SOL     OW78634   9.425   2.722  13.351
92246SOL    HW178635   9.438   2.665  13.275
92246SOL    HW278636   9.398   2.805  13.314
92247SOL     OW78637   4.869   4.800  10.589
92247SOL    HW178638   4.832   4.858  10.655
92247SOL    HW278639   4.849   4.842  10.505
92248SOL     OW78640   9.474   0.450   3.417
92248SOL    HW178641   9.453   0.359   3.433
92248SOL    HW278642   9.446   0.467   3.327
92249SOL     OW78643  10.518   1.373   8.636
92249SOL    HW178644  10.463   1.357   8.559
92249SOL    HW278645  10.606   1.345   8.610
92250SOL     OW78646   1.998   4.943   4.517
92250SOL    HW178647   2.033   4.914   4.433
92250SOL    HW278648   1.917   4.894   4.528
92251SOL     OW78649   7.905   3.763   8.957
92251SOL    HW178650   7.833   3.777   8.895
92251SOL    HW278651   7.962   3.838   8.945
92252SOL     OW78652  13.975  12.511  12.974
92252SOL    HW178653  13.993  12.420  12.950
92252SOL    HW278654  13.920  12.544  12.903
92253SOL     OW78655   6.338  13.785   2.790
92253SOL    HW178656   6.368  13.699   2.762
92253SOL    HW278657   6.335  13.837   2.709
92254SOL     OW78658  12.565  11.194   6.195
92254SOL    HW178659  12.490  11.135   6.202
92254SOL    HW278660  12.563  11.245   6.276
92255SOL     OW78661   9.677   8.880   0.801
92255SOL    HW178662   9.587   8.868   0.770
92255SOL    HW278663   9.730   8.827   0.741
92256SOL     OW78664   8.444   6.291  11.925
92256SOL    HW178665   8.473   6.262  11.839
92256SOL    HW278666   8.399   6.374  11.909
92257SOL     OW78667   4.160   1.380   6.236
92257SOL    HW178668   4.244   1.389   6.191
92257SOL    HW278669   4.176   1.413   6.324
92258SOL     OW78670   1.403  10.250   0.058
92258SOL    HW178671   1.399  10.262   0.153
92258SOL    HW278672   1.496  10.241   0.039
92259SOL     OW78673   6.815  14.027   8.194
92259SOL    HW178674   6.721  14.011   8.191
92259SOL    HW278675   6.831  14.094   8.128
92260SOL     OW78676   2.224   7.172  12.169
92260SOL    HW178677   2.217   7.113  12.245
92260SOL    HW278678   2.140   7.162  12.124
92261SOL     OW78679  11.383   9.924   1.189
92261SOL    HW178680  11.330   9.974   1.126
92261SOL    HW278681  11.416   9.850   1.139
92262SOL     OW78682  10.827   3.538   5.649
92262SOL    HW178683  10.756   3.550   5.711
92262SOL    HW278684  10.784   3.536   5.563
92263SOL     OW78685   4.185  14.004   8.420
92263SOL    HW178686   4.259  13.970   8.370
92263SOL    HW278687   4.203  13.977   8.510
92264SOL     OW78688   6.256   7.874   5.873
92264SOL    HW178689   6.327   7.929   5.906
92264SOL    HW278690   6.300   7.800   5.831
92265SOL     OW78691   2.184   7.416   0.764
92265SOL    HW178692   2.206   7.347   0.701
92265SOL    HW278693   2.201   7.377   0.850
92266SOL     OW78694  10.178  11.366  11.080
92266SOL    HW178695  10.138  11.370  10.993
92266SOL    HW278696  10.153  11.448  11.122
92267SOL     OW78697  13.821   9.332  10.016
92267SOL    HW178698  13.916   9.338  10.012
92267SOL    HW278699  13.794   9.314   9.927
92268SOL     OW78700   4.107   3.006  13.186
92268SOL    HW178701   4.058   2.949  13.126
92268SOL    HW278702   4.194   3.013  13.146
92269SOL     OW78703   9.856   9.350   3.386
92269SOL    HW178704   9.904   9.359   3.468
92269SOL    HW278705   9.816   9.263   3.391
92270SOL     OW78706   7.090  12.103  13.955
92270SOL    HW178707   7.134  12.079  14.037
92270SOL    HW278708   7.088  12.198  13.956
92271SOL     OW78709   8.439  12.523  13.996
92271SOL    HW178710   8.452  12.430  14.018
92271SOL    HW278711   8.518  12.547  13.948
92272SOL     OW78712   5.718   8.221   4.516
92272SOL    HW178713   5.725   8.238   4.610
92272SOL    HW278714   5.800   8.177   4.494
92273SOL     OW78715  13.865   1.504  11.860
92273SOL    HW178716  13.838   1.449  11.787
92273SOL    HW278717  13.960   1.513  11.850
92274SOL     OW78718   8.909   5.581   3.667
92274SOL    HW178719   8.877   5.630   3.591
92274SOL    HW278720   8.998   5.555   3.643
92275SOL     OW78721  14.528   0.052   9.075
92275SOL    HW178722  14.500  14.836   9.099
92275SOL    HW278723  14.450   0.106   9.087
92276SOL     OW78724  11.527   3.924   5.204
92276SOL    HW178725  11.537   3.971   5.287
92276SOL    HW278726  11.614   3.923   5.165
92277SOL     OW78727   5.419  12.123   2.270
92277SOL    HW178728   5.334  12.101   2.233
92277SOL    HW278729   5.440  12.209   2.232
92278SOL     OW78730   4.762   3.107   9.309
92278SOL    HW178731   4.824   3.152   9.366
92278SOL    HW278732   4.766   3.016   9.337
92279SOL     OW78733  12.242   0.571   1.410
92279SOL    HW178734  12.217   0.501   1.350
92279SOL    HW278735  12.171   0.574   1.474
92280SOL     OW78736   2.520  10.742   5.434
92280SOL    HW178737   2.540  10.829   5.399
92280SOL    HW278738   2.459  10.705   5.371
92281SOL     OW78739  14.330  12.566   3.974
92281SOL    HW178740  14.321  12.645   4.026
92281SOL    HW278741  14.311  12.494   4.034
92282SOL     OW78742   6.413   3.475   3.562
92282SOL    HW178743   6.376   3.423   3.633
92282SOL    HW278744   6.433   3.560   3.601
92283SOL     OW78745  12.211  10.636   9.395
92283SOL    HW178746  12.118  10.648   9.418
92283SOL    HW278747  12.244  10.574   9.459
92284SOL     OW78748  11.307  10.473   8.742
92284SOL    HW178749  11.276  10.440   8.826
92284SOL    HW278750  11.231  10.469   8.685
92285SOL     OW78751   6.000   8.284  10.013
92285SOL    HW178752   6.079   8.290   9.960
92285SOL    HW278753   6.020   8.336  10.091
92286SOL     OW78754  11.869   8.080  14.494
92286SOL    HW178755  11.868   8.116  14.583
92286SOL    HW278756  11.911   7.995  14.503
92287SOL     OW78757   3.140   6.188  10.763
92287SOL    HW178758   3.058   6.223  10.799
92287SOL    HW278759   3.205   6.207  10.830
92288SOL     OW78760  10.696  13.513   9.318
92288SOL    HW178761  10.781  13.554   9.332
92288SOL    HW278762  10.633  13.577   9.351
92289SOL     OW78763  13.255   4.452   3.310
92289SOL    HW178764  13.163   4.476   3.303
92289SOL    HW278765  13.303   4.534   3.298
92290SOL     OW78766   8.489   4.861   2.327
92290SOL    HW178767   8.531   4.809   2.259
92290SOL    HW278768   8.396   4.857   2.307
92291SOL     OW78769  12.350   4.695   3.557
92291SOL    HW178770  12.278   4.656   3.606
92291SOL    HW278771  12.362   4.637   3.482
92292SOL     OW78772   3.222  10.508   7.139
92292SOL    HW178773   3.206  10.426   7.186
92292SOL    HW278774   3.222  10.575   7.207
92293SOL     OW78775  11.292   7.699   2.342
92293SOL    HW178776  11.321   7.673   2.255
92293SOL    HW278777  11.330   7.634   2.401
92294SOL     OW78778   6.128   9.856   6.136
92294SOL    HW178779   6.130   9.764   6.162
92294SOL    HW278780   6.082   9.856   6.052
92295SOL     OW78781   6.087  12.074  12.920
92295SOL    HW178782   6.176  12.059  12.952
92295SOL    HW278783   6.095  12.073  12.825
92296SOL     OW78784   7.264  10.143   5.536
92296SOL    HW178785   7.172  10.116   5.537
92296SOL    HW278786   7.305  10.091   5.605
92297SOL     OW78787  13.645   5.087   8.167
92297SOL    HW178788  13.590   5.107   8.091
92297SOL    HW278789  13.669   5.172   8.203
92298SOL     OW78790   4.303  14.807   9.546
92298SOL    HW178791   4.326  14.718   9.571
92298SOL    HW278792   4.377  14.860   9.574
92299SOL     OW78793   9.196   7.206  13.186
92299SOL    HW178794   9.199   7.144  13.113
92299SOL    HW278795   9.224   7.154  13.262
92300SOL     OW78796   9.632   7.194   3.910
92300SOL    HW178797   9.621   7.102   3.889
92300SOL    HW278798   9.550   7.235   3.883
92301SOL     OW78799   9.117  14.647   6.136
92301SOL    HW178800   9.038  14.701   6.124
92301SOL    HW278801   9.098  14.566   6.088
92302SOL     OW78802   6.613   0.045   6.496
92302SOL    HW178803   6.678   0.052   6.426
92302SOL    HW278804   6.658   0.079   6.574
92303SOL     OW78805   0.983   0.437  11.824
92303SOL    HW178806   0.905   0.394  11.790
92303SOL    HW278807   1.005   0.503  11.759
92304SOL     OW78808   0.933   6.444   0.482
92304SOL    HW178809   0.941   6.488   0.567
92304SOL    HW278810   0.854   6.391   0.490
92305SOL     OW78811   0.978  12.152   2.270
92305SOL    HW178812   1.010  12.126   2.356
92305SOL    HW278813   1.035  12.106   2.208
92306SOL     OW78814   7.979   7.188  11.267
92306SOL    HW178815   7.914   7.249  11.301
92306SOL    HW278816   8.045   7.243  11.226
92307SOL     OW78817  12.782   7.565  12.711
92307SOL    HW178818  12.765   7.482  12.756
92307SOL    HW278819  12.719   7.566  12.639
92308SOL     OW78820  11.288  12.318   4.065
92308SOL    HW178821  11.353  12.251   4.045
92308SOL    HW278822  11.207  12.284   4.028
92309SOL     OW78823   3.248   2.466   9.203
92309SOL    HW178824   3.328   2.430   9.165
92309SOL    HW278825   3.203   2.390   9.241
92310SOL     OW78826   2.613  12.899  14.577
92310SOL    HW178827   2.690  12.922  14.628
92310SOL    HW278828   2.593  12.809  14.601
92311SOL     OW78829   2.227   3.658   5.221
92311SOL    HW178830   2.298   3.666   5.157
92311SOL    HW278831   2.272   3.650   5.305
92312SOL     OW78832  11.035  14.000  10.882
92312SOL    HW178833  10.955  14.020  10.834
92312SOL    HW278834  11.025  14.045  10.965
92313SOL     OW78835  11.741   5.478  13.281
92313SOL    HW178836  11.654   5.442  13.261
92313SOL    HW278837  11.799   5.435  13.219
92314SOL     OW78838   5.659   4.864   2.724
92314SOL    HW178839   5.659   4.841   2.816
92314SOL    HW278840   5.608   4.944   2.719
92315SOL     OW78841  10.666  11.680   2.210
92315SOL    HW178842  10.670  11.657   2.117
92315SOL    HW278843  10.737  11.743   2.222
92316SOL     OW78844   3.229   2.055  11.862
92316SOL    HW178845   3.241   2.143  11.897
92316SOL    HW278846   3.201   2.004  11.938
92317SOL     OW78847  13.747   3.214  12.202
92317SOL    HW178848  13.722   3.292  12.153
92317SOL    HW278849  13.822   3.242  12.255
92318SOL     OW78850   5.789  13.665   7.170
92318SOL    HW178851   5.764  13.579   7.136
92318SOL    HW278852   5.845  13.702   7.102
92319SOL     OW78853   9.845  14.249  12.615
92319SOL    HW178854   9.762  14.208  12.638
92319SOL    HW278855   9.888  14.186  12.558
92320SOL     OW78856  12.899   7.064  13.574
92320SOL    HW178857  12.943   7.046  13.657
92320SOL    HW278858  12.846   7.142  13.592
92321SOL     OW78859   7.419   9.007   6.019
92321SOL    HW178860   7.467   8.993   5.937
92321SOL    HW278861   7.406   8.920   6.055
92322SOL     OW78862   0.407   5.275   9.215
92322SOL    HW178863   0.464   5.210   9.172
92322SOL    HW278864   0.350   5.307   9.146
92323SOL     OW78865   1.153   8.204   9.789
92323SOL    HW178866   1.202   8.233   9.866
92323SOL    HW278867   1.114   8.284   9.754
92324SOL     OW78868   4.574  14.848   4.572
92324SOL    HW178869   4.609   0.057   4.535
92324SOL    HW278870   4.520   0.004   4.645
92325SOL     OW78871  13.197   4.320   7.656
92325SOL    HW178872  13.234   4.270   7.583
92325SOL    HW278873  13.233   4.408   7.645
92326SOL     OW78874  14.440  14.762  12.423
92326SOL    HW178875  14.431  14.782  12.516
92326SOL    HW278876  14.526  14.721  12.416
92327SOL     OW78877   3.171  12.879  11.220
92327SOL    HW178878   3.197  12.788  11.205
92327SOL    HW278879   3.241  12.931  11.181
92328SOL     OW78880  10.132  13.421   0.279
92328SOL    HW178881  10.118  13.515   0.291
92328SOL    HW278882  10.175  13.392   0.359
92329SOL     OW78883   9.520  10.112   7.470
92329SOL    HW178884   9.462  10.075   7.537
92329SOL    HW278885   9.463  10.130   7.395
92330SOL     OW78886  10.443   1.850   9.054
92330SOL    HW178887  10.442   1.796   8.974
92330SOL    HW278888  10.442   1.940   9.022
92331SOL     OW78889   8.703   9.835  10.934
92331SOL    HW178890   8.796   9.858  10.939
92331SOL    HW278891   8.673   9.840  11.025
92332SOL     OW78892   5.963   4.627  12.487
92332SOL    HW178893   5.893   4.693  12.486
92332SOL    HW278894   6.027   4.660  12.425
92333SOL     OW78895   2.203   0.510   3.697
92333SOL    HW178896   2.224   0.417   3.704
92333SOL    HW278897   2.107   0.514   3.705
92334SOL     OW78898   1.931   3.591   0.984
92334SOL    HW178899   1.887   3.567   0.903
92334SOL    HW278900   2.005   3.531   0.990
92335SOL     OW78901   4.386   3.494   3.297
92335SOL    HW178902   4.347   3.531   3.218
92335SOL    HW278903   4.456   3.556   3.320
92336SOL     OW78904   1.874  11.400  13.372
92336SOL    HW178905   1.789  11.357  13.371
92336SOL    HW278906   1.936  11.329  13.392
92337SOL     OW78907  10.365  10.140   0.728
92337SOL    HW178908  10.277  10.140   0.767
92337SOL    HW278909  10.364  10.215   0.668
92338SOL     OW78910   7.605   8.912  12.803
92338SOL    HW178911   7.554   8.984  12.838
92338SOL    HW278912   7.693   8.925  12.840
92339SOL     OW78913   7.618   6.825  12.935
92339SOL    HW178914   7.599   6.738  12.969
92339SOL    HW278915   7.600   6.819  12.842
92340SOL     OW78916   3.015  10.907  11.943
92340SOL    HW178917   3.053  10.837  11.890
92340SOL    HW278918   3.088  10.940  11.995
92341SOL     OW78919  14.846   6.924   5.092
92341SOL    HW178920  14.802   7.000   5.130
92341SOL    HW278921   0.044   6.962   5.038
92342SOL     OW78922   7.397   4.581   3.951
92342SOL    HW178923   7.324   4.617   4.001
92342SOL    HW278924   7.362   4.501   3.911
92343SOL     OW78925   9.198   4.718  10.360
92343SOL    HW178926   9.170   4.639  10.314
92343SOL    HW278927   9.128   4.736  10.422
92344SOL     OW78928   8.533  10.427  14.350
92344SOL    HW178929   8.621  10.450  14.380
92344SOL    HW278930   8.520  10.481  14.271
92345SOL     OW78931   5.887   3.964   6.687
92345SOL    HW178932   5.841   4.043   6.715
92345SOL    HW278933   5.844   3.938   6.606
92346SOL     OW78934   5.169   4.893   5.846
92346SOL    HW178935   5.205   4.974   5.811
92346SOL    HW278936   5.120   4.855   5.773
92347SOL     OW78937  10.229  12.959   7.219
92347SOL    HW178938  10.297  12.979   7.155
92347SOL    HW278939  10.158  12.920   7.168
92348SOL     OW78940   4.605   4.370   7.811
92348SOL    HW178941   4.519   4.407   7.830
92348SOL    HW278942   4.595   4.276   7.827
92349SOL     OW78943   7.092  14.414   1.986
92349SOL    HW178944   7.070  14.321   1.980
92349SOL    HW278945   7.011  14.459   1.963
92350SOL     OW78946  13.389  11.079   9.762
92350SOL    HW178947  13.441  11.149   9.801
92350SOL    HW278948  13.354  11.031   9.837
92351SOL     OW78949  13.175   7.620  12.902
92351SOL    HW178950  13.261   7.660  12.914
92351SOL    HW278951  13.193   7.531  12.872
92352SOL     OW78952   5.115   2.506   5.649
92352SOL    HW178953   5.038   2.461   5.685
92352SOL    HW278954   5.110   2.594   5.685
92353SOL     OW78955   1.435   8.081   2.948
92353SOL    HW178956   1.479   8.158   2.984
92353SOL    HW278957   1.506   8.026   2.915
92354SOL     OW78958   0.113   7.750  11.140
92354SOL    HW178959   0.040   7.810  11.124
92354SOL    HW278960   0.151   7.735  11.053
92355SOL     OW78961  14.293   2.932  12.406
92355SOL    HW178962  14.294   3.017  12.361
92355SOL    HW278963  14.365   2.883  12.366
92356SOL     OW78964  12.069   6.568   6.378
92356SOL    HW178965  12.027   6.489   6.344
92356SOL    HW278966  12.105   6.610   6.301
92357SOL     OW78967   5.841   2.295  14.465
92357SOL    HW178968   5.851   2.356  14.392
92357SOL    HW278969   5.890   2.218  14.439
92358SOL     OW78970  12.840   6.022   5.980
92358SOL    HW178971  12.920   6.045   6.028
92358SOL    HW278972  12.775   6.007   6.047
92359SOL     OW78973   6.958   2.596  10.909
92359SOL    HW178974   6.877   2.588  10.857
92359SOL    HW278975   6.932   2.646  10.986
92360SOL     OW78976   4.252   7.084   5.952
92360SOL    HW178977   4.202   7.118   6.027
92360SOL    HW278978   4.328   7.042   5.992
92361SOL     OW78979   4.027  10.426   6.852
92361SOL    HW178980   4.049  10.409   6.760
92361SOL    HW278981   3.932  10.437   6.853
92362SOL     OW78982   7.719   6.840   8.866
92362SOL    HW178983   7.626   6.846   8.889
92362SOL    HW278984   7.763   6.900   8.926
92363SOL     OW78985   0.859   6.987   2.416
92363SOL    HW178986   0.902   6.907   2.386
92363SOL    HW278987   0.768   6.960   2.433
92364SOL     OW78988   8.886   4.419  13.059
92364SOL    HW178989   8.916   4.411  12.969
92364SOL    HW278990   8.919   4.505  13.088
92365SOL     OW78991   0.671  12.104  10.714
92365SOL    HW178992   0.625  12.188  10.713
92365SOL    HW278993   0.639  12.058  10.636
92366SOL     OW78994   0.955  12.980   3.974
92366SOL    HW178995   0.922  12.911   3.917
92366SOL    HW278996   0.921  13.061   3.935
92367SOL     OW78997   0.100   1.336  14.686
92367SOL    HW178998   0.152   1.411  14.715
92367SOL    HW278999   0.137   1.262  14.733
92368SOL     OW79000   3.593   7.201   9.970
92368SOL    HW179001   3.628   7.269  10.028
92368SOL    HW279002   3.605   7.235   9.882
92369SOL     OW79003  12.139   8.067   4.014
92369SOL    HW179004  12.167   8.012   4.087
92369SOL    HW279005  12.150   8.012   3.937
92370SOL     OW79006   0.369   8.754  12.981
92370SOL    HW179007   0.408   8.785  12.900
92370SOL    HW279008   0.305   8.689  12.953
92371SOL     OW79009   4.077   8.465  12.498
92371SOL    HW179010   4.149   8.500  12.446
92371SOL    HW279011   3.998   8.499  12.456
92372SOL     OW79012  12.887  12.802   1.469
92372SOL    HW179013  12.805  12.837   1.505
92372SOL    HW279014  12.956  12.843   1.522
92373SOL     OW79015   8.273   1.671   0.783
92373SOL    HW179016   8.208   1.635   0.722
92373SOL    HW279017   8.330   1.724   0.728
92374SOL     OW79018  14.869   4.173   7.112
92374SOL    HW179019  14.777   4.149   7.123
92374SOL    HW279020   0.025   4.197   7.200
92375SOL     OW79021  13.378   9.006   5.140
92375SOL    HW179022  13.414   9.009   5.228
92375SOL    HW279023  13.290   8.972   5.151
92376SOL     OW79024  11.733   8.584   6.453
92376SOL    HW179025  11.672   8.510   6.452
92376SOL    HW279026  11.681   8.657   6.485
92377SOL     OW79027   5.211   2.387   9.312
92377SOL    HW179028   5.118   2.387   9.336
92377SOL    HW279029   5.227   2.473   9.275
92378SOL     OW79030   6.512   3.153   9.632
92378SOL    HW179031   6.431   3.106   9.609
92378SOL    HW279032   6.548   3.103   9.705
92379SOL     OW79033  11.499   0.376   1.600
92379SOL    HW179034  11.483   0.315   1.529
92379SOL    HW279035  11.539   0.323   1.669
92380SOL     OW79036   9.022  12.431  12.076
92380SOL    HW179037   9.021  12.362  12.144
92380SOL    HW279038   8.998  12.511  12.123
92381SOL     OW79039   1.211   2.474   3.544
92381SOL    HW179040   1.117   2.482   3.525
92381SOL    HW279041   1.248   2.558   3.517
92382SOL     OW79042  14.512   3.638   7.952
92382SOL    HW179043  14.432   3.621   7.902
92382SOL    HW279044  14.579   3.651   7.885
92383SOL     OW79045  14.430   5.038   5.661
92383SOL    HW179046  14.452   5.064   5.572
92383SOL    HW279047  14.391   5.116   5.701
92384SOL     OW79048   6.563  14.652   6.548
92384SOL    HW179049   6.646  14.609   6.531
92384SOL    HW279050   6.572  14.739   6.509
92385SOL     OW79051   5.738   2.789   7.129
92385SOL    HW179052   5.769   2.856   7.067
92385SOL    HW279053   5.776   2.816   7.213
92386SOL     OW79054   6.437   1.043   3.926
92386SOL    HW179055   6.452   0.986   3.850
92386SOL    HW279056   6.371   0.996   3.977
92387SOL     OW79057  12.120  10.642   2.374
92387SOL    HW179058  12.139  10.550   2.393
92387SOL    HW279059  12.030  10.642   2.342
92388SOL     OW79060   5.504   3.372   4.693
92388SOL    HW179061   5.443   3.441   4.720
92388SOL    HW279062   5.453   3.291   4.701
92389SOL     OW79063   9.217   9.751  10.056
92389SOL    HW179064   9.210   9.822  10.119
92389SOL    HW279065   9.197   9.672  10.106
92390SOL     OW79066  14.812   9.395   6.680
92390SOL    HW179067   0.030   9.395   6.714
92390SOL    HW279068  14.798   9.485   6.651
92391SOL     OW79069  14.597   2.323   7.084
92391SOL    HW179070  14.634   2.270   7.155
92391SOL    HW279071  14.523   2.368   7.125
92392SOL     OW79072   3.634   2.994   2.352
92392SOL    HW179073   3.581   2.916   2.341
92392SOL    HW279074   3.723   2.967   2.330
92393SOL     OW79075   2.004  13.833   7.525
92393SOL    HW179076   1.972  13.901   7.584
92393SOL    HW279077   1.972  13.751   7.563
92394SOL     OW79078  13.968   9.203  12.475
92394SOL    HW179079  13.991   9.208  12.568
92394SOL    HW279080  13.935   9.114  12.464
92395SOL     OW79081   3.424  11.203   7.690
92395SOL    HW179082   3.453  11.290   7.718
92395SOL    HW279083   3.342  11.189   7.737
92396SOL     OW79084   3.717   5.511   7.963
92396SOL    HW179085   3.634   5.488   7.921
92396SOL    HW279086   3.693   5.572   8.033
92397SOL     OW79087   6.902   4.756   4.407
92397SOL    HW179088   6.986   4.760   4.362
92397SOL    HW279089   6.898   4.836   4.459
92398SOL     OW79090  11.613   4.601  13.189
92398SOL    HW179091  11.603   4.559  13.275
92398SOL    HW279092  11.551   4.554  13.132
92399SOL     OW79093  12.582   2.744  14.096
92399SOL    HW179094  12.587   2.752  14.001
92399SOL    HW279095  12.620   2.659  14.116
92400SOL     OW79096   4.105   9.739   6.424
92400SOL    HW179097   4.087   9.749   6.331
92400SOL    HW279098   4.161   9.662   6.430
92401SOL     OW79099   9.411  13.023   8.014
92401SOL    HW179100   9.389  13.104   8.061
92401SOL    HW279101   9.506  13.021   8.015
92402SOL     OW79102   1.495   6.492  10.287
92402SOL    HW179103   1.551   6.515  10.361
92402SOL    HW279104   1.541   6.419  10.245
92403SOL     OW79105  12.008   2.960  11.131
92403SOL    HW179106  12.101   2.961  11.151
92403SOL    HW279107  12.000   2.903  11.055
92404SOL     OW79108  10.462  12.357   7.092
92404SOL    HW179109  10.465  12.451   7.077
92404SOL    HW279110  10.436  12.320   7.008
92405SOL     OW79111   6.425  10.910  11.739
92405SOL    HW179112   6.388  10.906  11.651
92405SOL    HW279113   6.431  10.819  11.767
92406SOL     OW79114  14.293   7.314  11.882
92406SOL    HW179115  14.326   7.322  11.792
92406SOL    HW279116  14.265   7.402  11.905
92407SOL     OW79117   4.420   3.666   4.981
92407SOL    HW179118   4.504   3.670   5.026
92407SOL    HW279119   4.441   3.630   4.894
92408SOL     OW79120   8.131  10.001   9.625
92408SOL    HW179121   8.185  10.072   9.589
92408SOL    HW279122   8.156   9.924   9.574
92409SOL     OW79123  13.001   4.649  10.111
92409SOL    HW179124  12.917   4.675  10.072
92409SOL    HW279125  13.006   4.701  10.191
92410SOL     OW79126   5.501  13.928  10.306
92410SOL    HW179127   5.485  13.873  10.383
92410SOL    HW279128   5.543  14.006  10.341
92411SOL     OW79129   5.948  14.478   7.851
92411SOL    HW179130   5.949  14.494   7.945
92411SOL    HW279131   5.963  14.384   7.842
92412SOL     OW79132   8.697   0.219   3.041
92412SOL    HW179133   8.659   0.180   2.962
92412SOL    HW279134   8.711   0.145   3.100
92413SOL     OW79135   0.498  12.348  10.304
92413SOL    HW179136   0.493  12.253  10.306
92413SOL    HW279137   0.430  12.376  10.365
92414SOL     OW79138   6.269   3.148  10.825
92414SOL    HW179139   6.221   3.218  10.780
92414SOL    HW279140   6.297   3.188  10.908
92415SOL     OW79141  14.413  11.815  11.447
92415SOL    HW179142  14.432  11.763  11.526
92415SOL    HW279143  14.438  11.757  11.374
92416SOL     OW79144   4.302  13.488  10.225
92416SOL    HW179145   4.301  13.567  10.279
92416SOL    HW279146   4.374  13.436  10.261
92417SOL     OW79147  12.767   7.695   3.609
92417SOL    HW179148  12.799   7.611   3.578
92417SOL    HW279149  12.713   7.729   3.538
92418SOL     OW79150   4.332   0.129   2.995
92418SOL    HW179151   4.245   0.150   2.962
92418SOL    HW279152   4.377   0.213   3.000
92419SOL     OW79153   2.296  11.818   1.240
92419SOL    HW179154   2.346  11.893   1.271
92419SOL    HW279155   2.323  11.746   1.296
92420SOL     OW79156   2.188   7.833   5.139
92420SOL    HW179157   2.173   7.914   5.188
92420SOL    HW279158   2.266   7.794   5.179
92421SOL     OW79159   3.496   9.528  11.587
92421SOL    HW179160   3.541   9.475  11.653
92421SOL    HW279161   3.404   9.523  11.612
92422SOL     OW79162   4.476   5.347   4.367
92422SOL    HW179163   4.403   5.285   4.366
92422SOL    HW279164   4.443   5.423   4.415
92423SOL     OW79165  11.720   2.936   6.612
92423SOL    HW179166  11.694   2.963   6.524
92423SOL    HW279167  11.637   2.927   6.660
92424SOL     OW79168  10.633   6.360   6.342
92424SOL    HW179169  10.603   6.297   6.406
92424SOL    HW279170  10.607   6.323   6.257
92425SOL     OW79171   1.152   5.266   1.912
92425SOL    HW179172   1.194   5.320   1.845
92425SOL    HW279173   1.168   5.176   1.884
92426SOL     OW79174  13.771  14.791   5.948
92426SOL    HW179175  13.679  14.812   5.964
92426SOL    HW279176  13.793  14.841   5.869
92427SOL     OW79177  12.604   6.745   0.202
92427SOL    HW179178  12.623   6.751   0.296
92427SOL    HW279179  12.661   6.674   0.171
92428SOL     OW79180   4.279   9.809  12.929
92428SOL    HW179181   4.309   9.792  12.840
92428SOL    HW279182   4.185   9.790  12.927
92429SOL     OW79183   0.719  12.195   2.319
92429SOL    HW179184   0.813  12.211   2.330
92429SOL    HW279185   0.712  12.155   2.232
92430SOL     OW79186   8.704   2.834   7.012
92430SOL    HW179187   8.694   2.868   7.101
92430SOL    HW279188   8.674   2.744   7.017
92431SOL     OW79189   0.088   0.584   1.848
92431SOL    HW179190   0.040   0.667   1.845
92431SOL    HW279191   0.166   0.603   1.900
92432SOL     OW79192  10.914   7.219   7.585
92432SOL    HW179193  10.972   7.282   7.543
92432SOL    HW279194  10.890   7.158   7.515
92433SOL     OW79195   0.467   1.642   6.492
92433SOL    HW179196   0.417   1.562   6.478
92433SOL    HW279197   0.546   1.630   6.441
92434SOL     OW79198   0.289  12.467   6.176
92434SOL    HW179199   0.370  12.440   6.133
92434SOL    HW279200   0.268  12.395   6.235
92435SOL     OW79201   5.676   9.247   1.680
92435SOL    HW179202   5.628   9.315   1.728
92435SOL    HW279203   5.717   9.194   1.748
92436SOL     OW79204   0.946   9.340   8.192
92436SOL    HW179205   0.970   9.387   8.112
92436SOL    HW279206   0.885   9.272   8.163
92437SOL     OW79207   8.189  10.372   7.323
92437SOL    HW179208   8.199  10.356   7.230
92437SOL    HW279209   8.094  10.366   7.339
92438SOL     OW79210   1.548   4.066   7.863
92438SOL    HW179211   1.452   4.067   7.862
92438SOL    HW279212   1.574   4.115   7.784
92439SOL     OW79213   7.786  12.762   9.968
92439SOL    HW179214   7.779  12.771   9.873
92439SOL    HW279215   7.875  12.730   9.982
92440SOL     OW79216   1.273   8.594  14.725
92440SOL    HW179217   1.347   8.579  14.784
92440SOL    HW279218   1.235   8.507  14.711
92441SOL     OW79219   2.259   2.935   8.640
92441SOL    HW179220   2.312   2.866   8.678
92441SOL    HW279221   2.219   2.895   8.563
92442SOL     OW79222   0.737   0.029   4.227
92442SOL    HW179223   0.800   0.077   4.174
92442SOL    HW279224   0.711   0.092   4.295
92443SOL     OW79225   8.985   7.404   5.931
92443SOL    HW179226   9.037   7.445   6.000
92443SOL    HW279227   9.005   7.455   5.852
92444SOL     OW79228   5.247   6.069   0.789
92444SOL    HW179229   5.254   6.159   0.819
92444SOL    HW279230   5.330   6.053   0.742
92445SOL     OW79231   3.882   4.914  13.104
92445SOL    HW179232   3.860   4.936  13.013
92445SOL    HW279233   3.903   4.821  13.101
92446SOL     OW79234  12.307  11.093   2.375
92446SOL    HW179235  12.245  11.110   2.304
92446SOL    HW279236  12.392  11.086   2.331
92447SOL     OW79237  14.199   2.933   6.888
92447SOL    HW179238  14.244   2.979   6.959
92447SOL    HW279239  14.110   2.922   6.919
92448SOL     OW79240  12.909   1.538   6.682
92448SOL    HW179241  12.833   1.591   6.660
92448SOL    HW279242  12.951   1.520   6.598
92449SOL     OW79243  13.728  13.408   8.626
92449SOL    HW179244  13.810  13.361   8.619
92449SOL    HW279245  13.700  13.395   8.717
92450SOL     OW79246   7.323   9.767   4.540
92450SOL    HW179247   7.328   9.759   4.445
92450SOL    HW279248   7.408   9.736   4.571
92451SOL     OW79249   5.994   1.661  14.334
92451SOL    HW179250   5.933   1.668  14.261
92451SOL    HW279251   6.079   1.649  14.292
92452SOL     OW79252  10.326   2.123   6.111
92452SOL    HW179253  10.369   2.196   6.156
92452SOL    HW279254  10.256   2.096   6.169
92453SOL     OW79255  11.884   1.242   1.036
92453SOL    HW179256  11.835   1.266   1.114
92453SOL    HW279257  11.820   1.199   0.980
92454SOL     OW79258  14.389   2.796  12.966
92454SOL    HW179259  14.425   2.866  13.021
92454SOL    HW279260  14.350   2.842  12.891
92455SOL     OW79261   9.667   6.777   7.580
92455SOL    HW179262   9.573   6.767   7.565
92455SOL    HW279263   9.673   6.836   7.655
92456SOL     OW79264   9.926  11.220  14.806
92456SOL    HW179265  10.012  11.236  14.845
92456SOL    HW279266   9.912  11.294  14.746
92457SOL     OW79267   2.308  14.596   8.587
92457SOL    HW179268   2.377  14.579   8.652
92457SOL    HW279269   2.234  14.628   8.639
92458SOL     OW79270  13.665   0.869   1.375
92458SOL    HW179271  13.641   0.810   1.446
92458SOL    HW279272  13.581   0.899   1.339
92459SOL     OW79273   5.138   1.953  13.464
92459SOL    HW179274   5.051   1.986  13.443
92459SOL    HW279275   5.132   1.923  13.555
92460SOL     OW79276   4.630  12.553   2.588
92460SOL    HW179277   4.685  12.614   2.636
92460SOL    HW279278   4.582  12.608   2.525
92461SOL     OW79279   3.515   6.304  14.681
92461SOL    HW179280   3.479   6.261  14.759
92461SOL    HW279281   3.453   6.283  14.612
92462SOL     OW79282   3.428   2.502   0.898
92462SOL    HW179283   3.429   2.408   0.881
92462SOL    HW279284   3.518   2.531   0.880
92463SOL     OW79285   0.125  11.631   3.299
92463SOL    HW179286   0.078  11.629   3.382
92463SOL    HW279287   0.187  11.558   3.304
92464SOL     OW79288   6.725  14.762   1.580
92464SOL    HW179289   6.721  14.854   1.606
92464SOL    HW279290   6.818  14.739   1.589
92465SOL     OW79291  14.600   0.663   0.229
92465SOL    HW179292  14.550   0.633   0.153
92465SOL    HW279293  14.559   0.745   0.255
92466SOL     OW79294   6.908   3.064  11.503
92466SOL    HW179295   6.842   2.999  11.479
92466SOL    HW279296   6.950   3.028  11.581
92467SOL     OW79297   4.955   1.629   2.900
92467SOL    HW179298   5.034   1.624   2.954
92467SOL    HW279299   4.898   1.561   2.935
92468SOL     OW79300   9.076   4.807   3.938
92468SOL    HW179301   9.080   4.852   3.854
92468SOL    HW279302   9.032   4.724   3.919
92469SOL     OW79303  12.411   5.373   8.751
92469SOL    HW179304  12.462   5.296   8.776
92469SOL    HW279305  12.424   5.380   8.656
92470SOL     OW79306  11.398  12.659   2.399
92470SOL    HW179307  11.321  12.631   2.350
92470SOL    HW279308  11.385  12.623   2.487
92471SOL     OW79309   6.472   2.434  13.924
92471SOL    HW179310   6.460   2.358  13.868
92471SOL    HW279311   6.567   2.447  13.927
92472SOL     OW79312  14.686   8.769   7.589
92472SOL    HW179313  14.745   8.736   7.521
92472SOL    HW279314  14.743   8.811   7.653
92473SOL     OW79315  14.617  10.142  12.546
92473SOL    HW179316  14.561  10.067  12.570
92473SOL    HW279317  14.693  10.102  12.504
92474SOL     OW79318  11.208   0.102   3.831
92474SOL    HW179319  11.130   0.158   3.826
92474SOL    HW279320  11.212   0.060   3.745
92475SOL     OW79321   6.261   8.571  13.405
92475SOL    HW179322   6.261   8.526  13.320
92475SOL    HW279323   6.332   8.634  13.398
92476SOL     OW79324   5.980   3.147   1.706
92476SOL    HW179325   6.038   3.189   1.770
92476SOL    HW279326   5.968   3.058   1.739
92477SOL     OW79327   1.293  13.841  14.554
92477SOL    HW179328   1.218  13.815  14.502
92477SOL    HW279329   1.323  13.761  14.597
92478SOL     OW79330   4.545   2.530   4.977
92478SOL    HW179331   4.565   2.556   4.887
92478SOL    HW279332   4.621   2.478   5.005
92479SOL     OW79333   6.668   1.291   3.287
92479SOL    HW179334   6.739   1.308   3.226
92479SOL    HW279335   6.700   1.322   3.371
92480SOL     OW79336  11.478   5.080   9.127
92480SOL    HW179337  11.401   5.079   9.071
92480SOL    HW279338  11.449   5.126   9.206
92481SOL     OW79339   9.920   1.712   4.980
92481SOL    HW179340   9.842   1.709   5.036
92481SOL    HW279341   9.991   1.737   5.039
92482SOL     OW79342   6.424   0.972   5.911
92482SOL    HW179343   6.346   0.916   5.914
92482SOL    HW279344   6.484   0.932   5.974
92483SOL     OW79345  11.269   5.282   8.715
92483SOL    HW179346  11.305   5.352   8.660
92483SOL    HW279347  11.231   5.327   8.790
92484SOL     OW79348   2.066   8.124   2.082
92484SOL    HW179349   1.980   8.098   2.116
92484SOL    HW279350   2.106   8.174   2.153
92485SOL     OW79351   2.002   6.967  13.310
92485SOL    HW179352   2.011   6.881  13.349
92485SOL    HW279353   1.948   6.953  13.232
92486SOL     OW79354  12.874   3.503  13.403
92486SOL    HW179355  12.946   3.442  13.392
92486SOL    HW279356  12.885   3.538  13.492
92487SOL     OW79357   2.429   7.520   8.304
92487SOL    HW179358   2.358   7.497   8.244
92487SOL    HW279359   2.509   7.506   8.252
92488SOL     OW79360   4.024  10.596  10.216
92488SOL    HW179361   4.008  10.688  10.195
92488SOL    HW279362   4.114  10.580  10.186
92489SOL     OW79363   7.183   5.911  11.733
92489SOL    HW179364   7.098   5.914  11.776
92489SOL    HW279365   7.212   5.820  11.743
92490SOL     OW79366   9.905  10.186   1.521
92490SOL    HW179367   9.831  10.133   1.549
92490SOL    HW279368   9.875  10.277   1.530
92491SOL     OW79369   6.597   9.141  13.815
92491SOL    HW179370   6.621   9.055  13.850
92491SOL    HW279371   6.534   9.176  13.878
92492SOL     OW79372   1.157   3.847   4.684
92492SOL    HW179373   1.086   3.820   4.626
92492SOL    HW279374   1.118   3.914   4.741
92493SOL     OW79375   0.551   3.141   4.104
92493SOL    HW179376   0.479   3.194   4.139
92493SOL    HW279377   0.611   3.204   4.064
92494SOL     OW79378   8.529   8.884   1.264
92494SOL    HW179379   8.585   8.841   1.328
92494SOL    HW279380   8.534   8.977   1.287
92495SOL     OW79381   1.918   5.560  12.462
92495SOL    HW179382   1.909   5.642  12.511
92495SOL    HW279383   1.941   5.588  12.373
92496SOL     OW79384  13.969  11.185  11.320
92496SOL    HW179385  13.889  11.236  11.308
92496SOL    HW279386  13.991  11.153  11.233
92497SOL     OW79387  14.689   8.816  11.052
92497SOL    HW179388  14.782   8.804  11.069
92497SOL    HW279389  14.659   8.730  11.020
92498SOL     OW79390   5.218   2.970   7.093
92498SOL    HW179391   5.162   2.954   7.017
92498SOL    HW279392   5.296   3.011   7.057
92499SOL     OW79393   7.547   3.038   9.986
92499SOL    HW179394   7.521   3.119   9.941
92499SOL    HW279395   7.496   2.970   9.942
92500SOL     OW79396   4.852   4.045   5.692
92500SOL    HW179397   4.900   3.965   5.711
92500SOL    HW279398   4.782   4.047   5.757
92501SOL     OW79399   4.668   5.424   3.893
92501SOL    HW179400   4.727   5.362   3.937
92501SOL    HW279401   4.703   5.430   3.804
92502SOL     OW79402  13.014  11.915  14.363
92502SOL    HW179403  13.018  11.860  14.285
92502SOL    HW279404  12.958  11.867  14.424
92503SOL     OW79405   2.379   6.432   0.136
92503SOL    HW179406   2.460   6.483   0.126
92503SOL    HW279407   2.357   6.441   0.229
92504SOL     OW79408   5.567   2.260   9.579
92504SOL    HW179409   5.648   2.232   9.620
92504SOL    HW279410   5.529   2.324   9.640
92505SOL     OW79411   1.842   8.131  10.026
92505SOL    HW179412   1.756   8.149   9.988
92505SOL    HW279413   1.850   8.192  10.099
92506SOL     OW79414   8.449   2.001   5.244
92506SOL    HW179415   8.418   2.065   5.179
92506SOL    HW279416   8.469   1.923   5.192
92507SOL     OW79417   3.789   5.097  12.624
92507SOL    HW179418   3.779   5.091  12.529
92507SOL    HW279419   3.703   5.127  12.655
92508SOL     OW79420   8.886   3.448   3.317
92508SOL    HW179421   8.870   3.529   3.365
92508SOL    HW279422   8.823   3.386   3.353
92509SOL     OW79423   0.243   7.189  10.479
92509SOL    HW179424   0.181   7.150  10.541
92509SOL    HW279425   0.188   7.218  10.406
92510SOL     OW79426   5.571   3.961  11.459
92510SOL    HW179427   5.512   3.933  11.529
92510SOL    HW279428   5.539   4.049  11.435
92511SOL     OW79429   9.022  11.110  13.911
92511SOL    HW179430   9.114  11.096  13.886
92511SOL    HW279431   9.026  11.177  13.979
92512SOL     OW79432   4.465  10.747  13.971
92512SOL    HW179433   4.527  10.706  13.911
92512SOL    HW279434   4.513  10.823  14.006
92513SOL     OW79435  13.582  10.802   1.874
92513SOL    HW179436  13.674  10.776   1.872
92513SOL    HW279437  13.581  10.891   1.840
92514SOL     OW79438  12.506  14.308   2.848
92514SOL    HW179439  12.543  14.389   2.812
92514SOL    HW279440  12.485  14.255   2.771
92515SOL     OW79441   3.273  11.805  11.471
92515SOL    HW179442   3.240  11.721  11.504
92515SOL    HW279443   3.280  11.793  11.377
92516SOL     OW79444   6.201   4.390  11.401
92516SOL    HW179445   6.260   4.368  11.473
92516SOL    HW279446   6.113   4.386  11.439
92517SOL     OW79447   6.476   4.262  11.771
92517SOL    HW179448   6.395   4.217  11.796
92517SOL    HW279449   6.546   4.204  11.799
92518SOL     OW79450   9.906  11.433  14.648
92518SOL    HW179451   9.951  11.431  14.563
92518SOL    HW279452   9.814  11.414  14.627
92519SOL     OW79453  13.801  13.829   7.445
92519SOL    HW179454  13.840  13.774   7.377
92519SOL    HW279455  13.774  13.767   7.513
92520SOL     OW79456  13.444   5.227  11.410
92520SOL    HW179457  13.496   5.201  11.487
92520SOL    HW279458  13.475   5.315  11.390
92521SOL     OW79459  13.829   3.207   1.949
92521SOL    HW179460  13.764   3.229   1.883
92521SOL    HW279461  13.836   3.111   1.944
92522SOL     OW79462   7.340   0.067  11.354
92522SOL    HW179463   7.282   0.100  11.423
92522SOL    HW279464   7.305   0.106  11.273
92523SOL     OW79465   2.186   7.933   1.883
92523SOL    HW179466   2.176   7.987   1.962
92523SOL    HW279467   2.259   7.875   1.903
92524SOL     OW79468   5.481   4.521   4.566
92524SOL    HW179469   5.415   4.575   4.609
92524SOL    HW279470   5.435   4.442   4.540
92525SOL     OW79471   4.606   3.987   5.812
92525SOL    HW179472   4.534   3.970   5.873
92525SOL    HW279473   4.574   3.959   5.727
92526SOL     OW79474   4.907   6.197   3.484
92526SOL    HW179475   4.929   6.259   3.414
92526SOL    HW279476   4.850   6.133   3.442
92527SOL     OW79477  12.456   3.141   6.934
92527SOL    HW179478  12.460   3.212   6.870
92527SOL    HW279479  12.471   3.061   6.882
92528SOL     OW79480   4.070   2.768   9.004
92528SOL    HW179481   4.033   2.856   8.996
92528SOL    HW279482   3.993   2.711   9.010
92529SOL     OW79483   0.937   5.634   4.826
92529SOL    HW179484   1.030   5.647   4.840
92529SOL    HW279485   0.897   5.718   4.849
92530SOL     OW79486  12.130   2.411   1.137
92530SOL    HW179487  12.179   2.463   1.200
92530SOL    HW279488  12.054   2.380   1.185
92531SOL     OW79489  10.187  12.625   0.496
92531SOL    HW179490  10.093  12.630   0.511
92531SOL    HW279491  10.220  12.712   0.520
92532SOL     OW79492   3.201  10.139   0.706
92532SOL    HW179493   3.246  10.120   0.623
92532SOL    HW279494   3.110  10.114   0.690
92533SOL     OW79495  10.061   8.888   1.422
92533SOL    HW179496  10.156   8.881   1.428
92533SOL    HW279497  10.045   8.918   1.332
92534SOL     OW79498   9.803  10.872  13.089
92534SOL    HW179499   9.801  10.788  13.043
92534SOL    HW279500   9.893  10.878  13.121
92535SOL     OW79501   9.571   0.224   7.494
92535SOL    HW179502   9.521   0.205   7.573
92535SOL    HW279503   9.648   0.272   7.525
92536SOL     OW79504   3.940   3.897  11.079
92536SOL    HW179505   4.025   3.940  11.090
92536SOL    HW279506   3.927   3.848  11.160
92537SOL     OW79507   7.782   5.719  12.572
92537SOL    HW179508   7.852   5.747  12.512
92537SOL    HW279509   7.707   5.774  12.548
92538SOL     OW79510   8.183   1.140   6.913
92538SOL    HW179511   8.099   1.154   6.956
92538SOL    HW279512   8.244   1.123   6.985
92539SOL     OW79513   2.684  10.475   9.100
92539SOL    HW179514   2.776  10.489   9.077
92539SOL    HW279515   2.637  10.485   9.017
92540SOL     OW79516  13.266  13.870  12.349
92540SOL    HW179517  13.247  13.897  12.439
92540SOL    HW279518  13.187  13.892  12.300
92541SOL     OW79519  10.149  10.168   4.413
92541SOL    HW179520  10.174  10.150   4.322
92541SOL    HW279521  10.225  10.143   4.465
92542SOL     OW79522   5.843  14.292   9.514
92542SOL    HW179523   5.854  14.370   9.569
92542SOL    HW279524   5.810  14.326   9.431
92543SOL     OW79525  13.515   0.837  13.811
92543SOL    HW179526  13.510   0.908  13.746
92543SOL    HW279527  13.438   0.783  13.793
92544SOL     OW79528   3.562  10.085   9.089
92544SOL    HW179529   3.620  10.158   9.111
92544SOL    HW279530   3.550  10.038   9.172
92545SOL     OW79531   8.124   3.479   5.111
92545SOL    HW179532   8.112   3.388   5.084
92545SOL    HW279533   8.134   3.528   5.030
92546SOL     OW79534   0.445   1.457  11.122
92546SOL    HW179535   0.482   1.370  11.139
92546SOL    HW279536   0.440   1.499  11.208
92547SOL     OW79537   1.016   9.417   9.314
92547SOL    HW179538   0.997   9.470   9.236
92547SOL    HW279539   1.110   9.398   9.308
92548SOL     OW79540  11.169  14.226  13.225
92548SOL    HW179541  11.080  14.260  13.238
92548SOL    HW279542  11.225  14.302  13.241
92549SOL     OW79543  12.276  12.496   3.866
92549SOL    HW179544  12.305  12.583   3.895
92549SOL    HW279545  12.181  12.505   3.855
92550SOL     OW79546  11.023   7.073   0.067
92550SOL    HW179547  11.013   7.128  14.862
92550SOL    HW279548  10.933   7.059   0.098
92551SOL     OW79549   9.726   0.374   3.872
92551SOL    HW179550   9.808   0.412   3.905
92551SOL    HW279551   9.728   0.283   3.904
92552SOL     OW79552   7.903  11.521   2.790
92552SOL    HW179553   7.980  11.485   2.747
92552SOL    HW279554   7.876  11.453   2.852
92553SOL     OW79555  14.684   0.756   4.252
92553SOL    HW179556  14.710   0.797   4.335
92553SOL    HW279557  14.732   0.805   4.185
92554SOL     OW79558   9.869   6.678  13.040
92554SOL    HW179559   9.828   6.636  12.964
92554SOL    HW279560   9.932   6.740  13.002
92555SOL     OW79561   8.819   1.860   9.286
92555SOL    HW179562   8.859   1.947   9.286
92555SOL    HW279563   8.888   1.802   9.316
92556SOL     OW79564  11.512  11.603   0.195
92556SOL    HW179565  11.522  11.525   0.250
92556SOL    HW279566  11.535  11.676   0.252
92557SOL     OW79567   0.401   4.467   1.792
92557SOL    HW179568   0.315   4.505   1.771
92557SOL    HW279569   0.394   4.375   1.764
92558SOL     OW79570   0.067   0.565   7.157
92558SOL    HW179571   0.153   0.598   7.133
92558SOL    HW279572   0.085   0.485   7.207
92559SOL     OW79573   1.623   4.911  10.119
92559SOL    HW179574   1.700   4.866  10.157
92559SOL    HW279575   1.570   4.934  10.195
92560SOL     OW79576   3.663   6.880  13.996
92560SOL    HW179577   3.604   6.945  14.033
92560SOL    HW279578   3.624   6.857  13.912
92561SOL     OW79579   4.202   9.445   5.122
92561SOL    HW179580   4.138   9.389   5.166
92561SOL    HW279581   4.261   9.383   5.078
92562SOL     OW79582   1.486  12.609   7.281
92562SOL    HW179583   1.474  12.668   7.355
92562SOL    HW279584   1.577  12.621   7.254
92563SOL     OW79585  12.094   1.594   6.508
92563SOL    HW179586  12.046   1.575   6.589
92563SOL    HW279587  12.034   1.570   6.438
92564SOL     OW79588  13.998   5.259  12.385
92564SOL    HW179589  14.022   5.243  12.294
92564SOL    HW279590  13.936   5.189  12.405
92565SOL     OW79591   4.990  12.876   7.495
92565SOL    HW179592   4.949  12.820   7.429
92565SOL    HW279593   4.998  12.961   7.453
92566SOL     OW79594   4.011  13.353   6.316
92566SOL    HW179595   4.013  13.337   6.411
92566SOL    HW279596   4.086  13.409   6.299
92567SOL     OW79597   4.743   6.484  14.838
92567SOL    HW179598   4.795   6.405  14.853
92567SOL    HW279599   4.805   6.546  14.799
92568SOL     OW79600   7.222   9.249  14.059
92568SOL    HW179601   7.176   9.333  14.072
92568SOL    HW279602   7.156   9.193  14.018
92569SOL     OW79603  12.992   0.284   3.909
92569SOL    HW179604  12.898   0.282   3.927
92569SOL    HW279605  12.998   0.279   3.814
92570SOL     OW79606   8.404   9.620   0.946
92570SOL    HW179607   8.441   9.704   0.973
92570SOL    HW279608   8.461   9.589   0.876
92571SOL     OW79609   7.562   9.230   3.950
92571SOL    HW179610   7.643   9.257   3.906
92571SOL    HW279611   7.571   9.136   3.960
92572SOL     OW79612  10.517  10.771   1.089
92572SOL    HW179613  10.438  10.784   1.141
92572SOL    HW279614  10.556  10.858   1.083
92573SOL     OW79615   5.386   6.403   9.358
92573SOL    HW179616   5.365   6.357   9.277
92573SOL    HW279617   5.398   6.494   9.332
92574SOL     OW79618  10.894   9.217   4.319
92574SOL    HW179619  10.908   9.256   4.405
92574SOL    HW279620  10.875   9.125   4.337
92575SOL     OW79621   8.985  11.211   4.309
92575SOL    HW179622   9.003  11.217   4.215
92575SOL    HW279623   9.042  11.278   4.348
92576SOL     OW79624  13.957  14.412   4.348
92576SOL    HW179625  13.901  14.422   4.271
92576SOL    HW279626  14.023  14.347   4.321
92577SOL     OW79627  10.800  11.393  10.325
92577SOL    HW179628  10.727  11.346  10.365
92577SOL    HW279629  10.824  11.340  10.249
92578SOL     OW79630   1.924   6.707  10.524
92578SOL    HW179631   2.016   6.713  10.497
92578SOL    HW279632   1.903   6.795  10.556
92579SOL     OW79633  14.206   0.730  11.244
92579SOL    HW179634  14.181   0.821  11.226
92579SOL    HW279635  14.193   0.685  11.161
92580SOL     OW79636   8.206   8.824   5.834
92580SOL    HW179637   8.149   8.883   5.785
92580SOL    HW279638   8.232   8.875   5.911
92581SOL     OW79639   1.434   9.986   5.281
92581SOL    HW179640   1.425  10.060   5.342
92581SOL    HW279641   1.400  10.019   5.198
92582SOL     OW79642   2.979   7.463   7.643
92582SOL    HW179643   2.963   7.416   7.725
92582SOL    HW279644   2.975   7.396   7.575
92583SOL     OW79645   5.745   4.239  13.702
92583SOL    HW179646   5.753   4.315  13.759
92583SOL    HW279647   5.835   4.217  13.677
92584SOL     OW79648   1.350   3.629  10.739
92584SOL    HW179649   1.273   3.574  10.724
92584SOL    HW279650   1.410   3.575  10.790
92585SOL     OW79651   7.280  10.300   5.160
92585SOL    HW179652   7.353  10.358   5.142
92585SOL    HW279653   7.233  10.293   5.076
92586SOL     OW79654  10.208   5.382  12.154
92586SOL    HW179655  10.177   5.411  12.068
92586SOL    HW279656  10.263   5.454  12.185
92587SOL     OW79657   8.705   8.917   2.011
92587SOL    HW179658   8.610   8.928   2.015
92587SOL    HW279659   8.724   8.904   1.918
92588SOL     OW79660  11.089   1.764   5.029
92588SOL    HW179661  11.046   1.849   5.026
92588SOL    HW279662  11.019   1.701   5.008
92589SOL     OW79663   5.520   3.487  14.825
92589SOL    HW179664   5.591   3.434  14.789
92589SOL    HW279665   5.509   3.558  14.762
92590SOL     OW79666   6.428   3.181   4.629
92590SOL    HW179667   6.445   3.140   4.545
92590SOL    HW279668   6.334   3.167   4.644
92591SOL     OW79669   1.986   2.902   3.190
92591SOL    HW179670   1.928   2.859   3.127
92591SOL    HW279671   1.978   2.995   3.168
92592SOL     OW79672   3.554   8.066  12.227
92592SOL    HW179673   3.555   8.082  12.133
92592SOL    HW279674   3.645   8.078  12.255
92593SOL     OW79675   8.284   9.350  12.922
92593SOL    HW179676   8.301   9.444  12.923
92593SOL    HW279677   8.352   9.313  12.980
92594SOL     OW79678   6.200  13.971   9.336
92594SOL    HW179679   6.171  14.062   9.328
92594SOL    HW279680   6.120  13.923   9.361
92595SOL     OW79681  12.047  11.879   7.965
92595SOL    HW179682  12.084  11.959   7.928
92595SOL    HW279683  12.104  11.858   8.039
92596SOL     OW79684   4.658   1.864   0.334
92596SOL    HW179685   4.650   1.933   0.268
92596SOL    HW279686   4.746   1.829   0.321
92597SOL     OW79687  14.334  11.293   8.304
92597SOL    HW179688  14.310  11.201   8.301
92597SOL    HW279689  14.332  11.322   8.213
92598SOL     OW79690   4.350   4.713  10.114
92598SOL    HW179691   4.402   4.698  10.034
92598SOL    HW279692   4.347   4.808  10.123
92599SOL     OW79693   5.667  12.409   0.211
92599SOL    HW179694   5.703  12.493   0.184
92599SOL    HW279695   5.716  12.386   0.290
92600SOL     OW79696   0.899   4.480   2.045
92600SOL    HW179697   0.820   4.523   2.013
92600SOL    HW279698   0.875   4.449   2.133
92601SOL     OW79699  13.364   9.931   6.822
92601SOL    HW179700  13.291   9.932   6.884
92601SOL    HW279701  13.393   9.840   6.820
92602SOL     OW79702   4.551   0.307   8.700
92602SOL    HW179703   4.517   0.360   8.628
92602SOL    HW279704   4.484   0.240   8.714
92603SOL     OW79705  10.580   6.358  10.584
92603SOL    HW179706  10.655   6.364  10.643
92603SOL    HW279707  10.618   6.342  10.498
92604SOL     OW79708  10.309  11.263   6.636
92604SOL    HW179709  10.287  11.221   6.719
92604SOL    HW279710  10.388  11.219   6.605
92605SOL     OW79711   7.172   3.724   7.001
92605SOL    HW179712   7.137   3.674   6.928
92605SOL    HW279713   7.094   3.757   7.047
92606SOL     OW79714   3.231   0.087   1.779
92606SOL    HW179715   3.200  14.868   1.788
92606SOL    HW279716   3.313   0.089   1.829
92607SOL     OW79717  13.144   7.164  14.063
92607SOL    HW179718  13.146   7.247  14.111
92607SOL    HW279719  13.161   7.097  14.130
92608SOL     OW79720   9.641   0.337  11.522
92608SOL    HW179721   9.578   0.309  11.456
92608SOL    HW279722   9.712   0.273  11.516
92609SOL     OW79723   0.778   6.892   7.330
92609SOL    HW179724   0.697   6.942   7.322
92609SOL    HW279725   0.831   6.919   7.255
92610SOL     OW79726  13.613   3.693   6.191
92610SOL    HW179727  13.693   3.699   6.243
92610SOL    HW279728  13.584   3.784   6.181
92611SOL     OW79729  11.028  14.691   0.120
92611SOL    HW179730  11.017  14.729   0.033
92611SOL    HW279731  10.941  14.693   0.158
92612SOL     OW79732   0.442   9.527   3.577
92612SOL    HW179733   0.496   9.583   3.633
92612SOL    HW279734   0.388   9.476   3.638
92613SOL     OW79735   4.597   1.841  13.929
92613SOL    HW179736   4.650   1.920  13.943
92613SOL    HW279737   4.608   1.790  14.009
92614SOL     OW79738   5.547   7.552  10.648
92614SOL    HW179739   5.530   7.561  10.554
92614SOL    HW279740   5.635   7.514  10.653
92615SOL     OW79741   4.742   5.249   2.874
92615SOL    HW179742   4.832   5.255   2.905
92615SOL    HW279743   4.689   5.238   2.953
92616SOL     OW79744   4.719   4.747  12.122
92616SOL    HW179745   4.791   4.744  12.184
92616SOL    HW279746   4.740   4.679  12.057
92617SOL     OW79747  13.717   3.474  11.560
92617SOL    HW179748  13.753   3.494  11.474
92617SOL    HW279749  13.679   3.387  11.550
92618SOL     OW79750   9.032   4.791   5.098
92618SOL    HW179751   9.069   4.718   5.047
92618SOL    HW279752   9.061   4.774   5.188
92619SOL     OW79753   9.741   8.942   4.649
92619SOL    HW179754   9.759   9.035   4.663
92619SOL    HW279755   9.758   8.901   4.734
92620SOL     OW79756   7.967  14.460   2.037
92620SOL    HW179757   8.000  14.549   2.050
92620SOL    HW279758   8.044  14.409   2.013
92621SOL     OW79759  10.350  10.721   6.380
92621SOL    HW179760  10.282  10.654   6.386
92621SOL    HW279761  10.422  10.687   6.433
92622SOL     OW79762   0.524   1.204   8.515
92622SOL    HW179763   0.440   1.188   8.471
92622SOL    HW279764   0.525   1.299   8.531
92623SOL     OW79765  14.360   2.292  14.839
92623SOL    HW179766  14.376   2.267  14.748
92623SOL    HW279767  14.442   2.334  14.867
92624SOL     OW79768  12.166   9.010   4.079
92624SOL    HW179769  12.110   8.967   4.014
92624SOL    HW279770  12.207   8.937   4.126
92625SOL     OW79771   3.506   9.151   0.993
92625SOL    HW179772   3.421   9.135   0.950
92625SOL    HW279773   3.558   9.197   0.928
92626SOL     OW79774  14.026  13.335   2.854
92626SOL    HW179775  14.061  13.249   2.831
92626SOL    HW279776  14.092  13.397   2.823
92627SOL     OW79777   9.862   5.414   1.711
92627SOL    HW179778   9.879   5.379   1.624
92627SOL    HW279779   9.825   5.341   1.760
92628SOL     OW79780   1.869   7.326  13.383
92628SOL    HW179781   1.839   7.411  13.413
92628SOL    HW279782   1.849   7.324  13.289
92629SOL     OW79783   7.358  12.887  10.268
92629SOL    HW179784   7.364  12.803  10.222
92629SOL    HW279785   7.349  12.863  10.361
92630SOL     OW79786  14.830  13.086   3.847
92630SOL    HW179787  14.795  13.146   3.782
92630SOL    HW279788  14.755  13.034   3.876
92631SOL     OW79789   7.039  11.988   8.143
92631SOL    HW179790   6.995  11.921   8.091
92631SOL    HW279791   7.101  12.028   8.082
92632SOL     OW79792   1.219   2.965   8.125
92632SOL    HW179793   1.139   3.015   8.110
92632SOL    HW279794   1.205   2.883   8.077
92633SOL     OW79795  13.802  14.050  11.278
92633SOL    HW179796  13.741  13.976  11.281
92633SOL    HW279797  13.794  14.091  11.365
92634SOL     OW79798   9.904  13.272  14.574
92634SOL    HW179799   9.934  13.196  14.525
92634SOL    HW279800   9.963  13.278  14.649
92635SOL     OW79801  10.874   7.556   1.315
92635SOL    HW179802  10.815   7.622   1.279
92635SOL    HW279803  10.882   7.579   1.407
92636SOL     OW79804   0.053  14.430  13.261
92636SOL    HW179805   0.074  14.524  13.258
92636SOL    HW279806   0.136  14.388  13.281
92637SOL     OW79807   5.803   3.420   4.223
92637SOL    HW179808   5.851   3.387   4.299
92637SOL    HW279809   5.711   3.411   4.248
92638SOL     OW79810   9.346   4.554   2.008
92638SOL    HW179811   9.321   4.494   2.079
92638SOL    HW279812   9.441   4.544   2.002
92639SOL     OW79813   5.708   3.176  14.714
92639SOL    HW179814   5.789   3.214  14.680
92639SOL    HW279815   5.672   3.128  14.639
92640SOL     OW79816  10.697   2.778   1.166
92640SOL    HW179817  10.754   2.703   1.181
92640SOL    HW279818  10.754   2.854   1.178
92641SOL     OW79819  12.534   2.583   3.265
92641SOL    HW179820  12.588   2.599   3.187
92641SOL    HW279821  12.597   2.578   3.337
92642SOL     OW79822   9.300   9.251   2.563
92642SOL    HW179823   9.280   9.157   2.568
92642SOL    HW279824   9.396   9.255   2.567
92643SOL     OW79825   0.140   1.080  14.513
92643SOL    HW179826   0.052   1.089  14.477
92643SOL    HW279827   0.179   1.007  14.465
92644SOL     OW79828   3.609   2.715  13.666
92644SOL    HW179829   3.652   2.735  13.583
92644SOL    HW279830   3.681   2.699  13.728
92645SOL     OW79831  13.553   6.900   5.457
92645SOL    HW179832  13.504   6.980   5.476
92645SOL    HW279833  13.637   6.913   5.502
92646SOL     OW79834   3.288  13.271   0.594
92646SOL    HW179835   3.340  13.305   0.521
92646SOL    HW279836   3.273  13.179   0.573
92647SOL     OW79837   6.889   1.175  11.523
92647SOL    HW179838   6.977   1.194  11.490
92647SOL    HW279839   6.837   1.251  11.497
92648SOL     OW79840  13.761  12.959  10.585
92648SOL    HW179841  13.838  13.014  10.592
92648SOL    HW279842  13.771  12.894  10.655
92649SOL     OW79843   9.258   0.182   6.752
92649SOL    HW179844   9.316   0.210   6.822
92649SOL    HW279845   9.255   0.086   6.759
92650SOL     OW79846   0.429   7.771   9.562
92650SOL    HW179847   0.424   7.763   9.657
92650SOL    HW279848   0.516   7.738   9.539
92651SOL     OW79849   8.757  14.399   0.785
92651SOL    HW179850   8.795  14.484   0.806
92651SOL    HW279851   8.801  14.337   0.844
92652SOL     OW79852   6.706   6.770   4.007
92652SOL    HW179853   6.733   6.678   4.005
92652SOL    HW279854   6.695   6.789   4.100
92653SOL     OW79855   9.170   8.822   6.611
92653SOL    HW179856   9.247   8.869   6.641
92653SOL    HW279857   9.096   8.871   6.648
92654SOL     OW79858   7.996   6.947  13.200
92654SOL    HW179859   7.966   6.958  13.110
92654SOL    HW279860   8.048   7.025  13.217
92655SOL     OW79861   1.443  12.874   7.054
92655SOL    HW179862   1.398  12.936   6.997
92655SOL    HW279863   1.378  12.851   7.120
92656SOL     OW79864  10.252  13.885   1.724
92656SOL    HW179865  10.188  13.951   1.697
92656SOL    HW279866  10.204  13.802   1.720
92657SOL     OW79867   8.139  10.242   8.371
92657SOL    HW179868   8.136  10.163   8.426
92657SOL    HW279869   8.205  10.298   8.413
92658SOL     OW79870   1.446   0.817   3.551
92658SOL    HW179871   1.406   0.823   3.637
92658SOL    HW279872   1.460   0.908   3.524
92659SOL     OW79873   0.041   0.446   7.800
92659SOL    HW179874  14.843   0.393   7.837
92659SOL    HW279875   0.119   0.421   7.849
92660SOL     OW79876  11.495   8.918   4.792
92660SOL    HW179877  11.481   8.836   4.746
92660SOL    HW279878  11.527   8.892   4.879
92661SOL     OW79879   3.182   5.547   0.121
92661SOL    HW179880   3.172   5.641   0.108
92661SOL    HW279881   3.093   5.513   0.118
92662SOL     OW79882  10.968   0.880   7.391
92662SOL    HW179883  11.022   0.955   7.416
92662SOL    HW279884  10.878   0.914   7.391
92663SOL     OW79885  12.905   4.016   4.860
92663SOL    HW179886  12.852   4.079   4.909
92663SOL    HW279887  12.949   4.069   4.794
92664SOL     OW79888   4.544   0.572   9.159
92664SOL    HW179889   4.454   0.567   9.126
92664SOL    HW279890   4.599   0.568   9.081
92665SOL     OW79891  11.351   6.630   8.833
92665SOL    HW179892  11.349   6.549   8.781
92665SOL    HW279893  11.390   6.603   8.916
92666SOL     OW79894   8.766   2.790  11.244
92666SOL    HW179895   8.718   2.845  11.182
92666SOL    HW279896   8.847   2.839  11.261
92667SOL     OW79897  10.967   2.784   9.605
92667SOL    HW179898  10.945   2.766   9.513
92667SOL    HW279899  10.884   2.779   9.651
92668SOL     OW79900   1.886   4.394  11.014
92668SOL    HW179901   1.948   4.341  10.964
92668SOL    HW279902   1.915   4.484  10.998
92669SOL     OW79903   1.567  13.629   5.096
92669SOL    HW179904   1.580  13.723   5.107
92669SOL    HW279905   1.604  13.609   5.010
92670SOL     OW79906  10.379   9.786   2.517
92670SOL    HW179907  10.342   9.862   2.561
92670SOL    HW279908  10.307   9.723   2.513
92671SOL     OW79909   7.599   0.428   7.639
92671SOL    HW179910   7.511   0.455   7.612
92671SOL    HW279911   7.584   0.360   7.704
92672SOL     OW79912   2.941   8.364   4.589
92672SOL    HW179913   2.953   8.331   4.500
92672SOL    HW279914   2.887   8.298   4.632
92673SOL     OW79915   2.310  12.047   2.808
92673SOL    HW179916   2.355  12.102   2.871
92673SOL    HW279917   2.220  12.079   2.806
92674SOL     OW79918   0.099   9.901   7.481
92674SOL    HW179919   0.126   9.942   7.563
92674SOL    HW279920   0.014   9.940   7.461
92675SOL     OW79921   3.252  14.738   3.445
92675SOL    HW179922   3.174  14.735   3.391
92675SOL    HW279923   3.322  14.764   3.385
92676SOL     OW79924   4.769  12.817   4.178
92676SOL    HW179925   4.708  12.808   4.105
92676SOL    HW279926   4.727  12.881   4.236
92677SOL     OW79927   8.127   1.139  12.547
92677SOL    HW179928   8.103   1.231  12.561
92677SOL    HW279929   8.213   1.130  12.587
92678SOL     OW79930   1.628   4.455   6.867
92678SOL    HW179931   1.615   4.399   6.791
92678SOL    HW279932   1.587   4.538   6.842
92679SOL     OW79933   2.382   6.216   9.885
92679SOL    HW179934   2.436   6.290   9.916
92679SOL    HW279935   2.441   6.141   9.887
92680SOL     OW79936  12.879  10.030   1.710
92680SOL    HW179937  12.816   9.977   1.759
92680SOL    HW279938  12.940  10.062   1.776
92681SOL     OW79939   0.422  14.576  14.605
92681SOL    HW179940   0.394  14.584  14.514
92681SOL    HW279941   0.502  14.525  14.602
92682SOL     OW79942   1.183   7.978   9.532
92682SOL    HW179943   1.201   8.051   9.592
92682SOL    HW279944   1.233   7.904   9.568
92683SOL     OW79945  10.012   7.640   7.211
92683SOL    HW179946  10.066   7.628   7.133
92683SOL    HW279947  10.073   7.665   7.280
92684SOL     OW79948   2.259   4.161   2.788
92684SOL    HW179949   2.202   4.195   2.857
92684SOL    HW279950   2.348   4.167   2.825
92685SOL     OW79951   3.543   3.031  10.129
92685SOL    HW179952   3.548   3.051  10.223
92685SOL    HW279953   3.556   3.116  10.086
92686SOL     OW79954  14.512   7.117   9.302
92686SOL    HW179955  14.466   7.200   9.287
92686SOL    HW279956  14.602   7.134   9.273
92687SOL     OW79957  14.157   4.991  13.077
92687SOL    HW179958  14.178   4.913  13.025
92687SOL    HW279959  14.239   5.041  13.079
92688SOL     OW79960   2.936   1.340   8.961
92688SOL    HW179961   2.923   1.340   8.866
92688SOL    HW279962   2.849   1.359   8.997
92689SOL     OW79963   5.555   6.430   2.238
92689SOL    HW179964   5.619   6.359   2.234
92689SOL    HW279965   5.506   6.424   2.156
92690SOL     OW79966   6.159  13.887   5.852
92690SOL    HW179967   6.192  13.805   5.816
92690SOL    HW279968   6.233  13.923   5.901
92691SOL     OW79969   4.399  12.571   6.434
92691SOL    HW179970   4.340  12.496   6.424
92691SOL    HW279971   4.380  12.627   6.359
92692SOL     OW79972   5.390   3.282   5.055
92692SOL    HW179973   5.454   3.218   5.087
92692SOL    HW279974   5.406   3.360   5.109
92693SOL     OW79975  10.694   1.885   8.623
92693SOL    HW179976  10.733   1.858   8.540
92693SOL    HW279977  10.731   1.972   8.640
92694SOL     OW79978  13.285   3.175  12.621
92694SOL    HW179979  13.345   3.226  12.566
92694SOL    HW279980  13.207   3.163  12.567
92695SOL     OW79981   6.934   2.613   3.406
92695SOL    HW179982   6.846   2.644   3.426
92695SOL    HW279983   6.992   2.681   3.441
92696SOL     OW79984   9.285   3.723   6.195
92696SOL    HW179985   9.264   3.812   6.167
92696SOL    HW279986   9.258   3.720   6.287
92697SOL     OW79987   4.802   0.461  10.140
92697SOL    HW179988   4.819   0.388  10.080
92697SOL    HW279989   4.888   0.482  10.177
92698SOL     OW79990  13.836   1.895   2.176
92698SOL    HW179991  13.850   1.831   2.106
92698SOL    HW279992  13.743   1.888   2.196
92699SOL     OW79993   9.026   2.130   2.435
92699SOL    HW179994   9.086   2.067   2.395
92699SOL    HW279995   9.038   2.118   2.529
92700SOL     OW79996   1.796   5.998  12.287
92700SOL    HW179997   1.793   6.059  12.213
92700SOL    HW279998   1.865   6.033  12.343
92701SOL     OW79999   8.676  13.290   9.604
92701SOL    HW180000   8.630  13.268   9.685
92701SOL    HW280001   8.719  13.373   9.622
92702SOL     OW80002  12.241   3.715   4.596
92702SOL    HW180003  12.260   3.625   4.621
92702SOL    HW280004  12.147   3.725   4.614
92703SOL     OW80005  12.814   4.697   6.335
92703SOL    HW180006  12.726   4.733   6.324
92703SOL    HW280007  12.799   4.603   6.346
92704SOL     OW80008  12.329   8.943   2.394
92704SOL    HW180009  12.321   8.869   2.453
92704SOL    HW280010  12.384   8.912   2.322
92705SOL     OW80011   7.206   9.951   3.881
92705SOL    HW180012   7.288   9.902   3.876
92705SOL    HW280013   7.139   9.884   3.899
92706SOL     OW80014   9.973   4.549  13.988
92706SOL    HW180015  10.035   4.597  13.933
92706SOL    HW280016  10.024   4.477  14.024
92707SOL     OW80017   5.374   8.233   1.563
92707SOL    HW180018   5.401   8.245   1.654
92707SOL    HW280019   5.354   8.321   1.533
92708SOL     OW80020   1.522  12.620  13.936
92708SOL    HW180021   1.492  12.704  13.971
92708SOL    HW280022   1.559  12.575  14.012
92709SOL     OW80023  11.922  12.159  14.491
92709SOL    HW180024  11.999  12.123  14.445
92709SOL    HW280025  11.864  12.188  14.421
92710SOL     OW80026   9.866   7.348   3.756
92710SOL    HW180027   9.829   7.260   3.748
92710SOL    HW280028   9.800   7.406   3.718
92711SOL     OW80029  10.910   0.356  14.312
92711SOL    HW180030  10.909   0.325  14.402
92711SOL    HW280031  10.887   0.449  14.317
92712SOL     OW80032   9.978  12.741   7.880
92712SOL    HW180033  10.068  12.774   7.871
92712SOL    HW280034   9.987  12.646   7.867
92713SOL     OW80035   4.839   8.057  12.703
92713SOL    HW180036   4.817   7.997  12.631
92713SOL    HW280037   4.888   8.128  12.662
92714SOL     OW80038  11.942   1.525   7.122
92714SOL    HW180039  11.885   1.471   7.068
92714SOL    HW280040  12.025   1.529   7.073
92715SOL     OW80041  14.630   6.452   2.176
92715SOL    HW180042  14.679   6.530   2.152
92715SOL    HW280043  14.634   6.396   2.098
92716SOL     OW80044   1.539  10.401  10.185
92716SOL    HW180045   1.566  10.336  10.249
92716SOL    HW280046   1.575  10.484  10.218
92717SOL     OW80047  13.179   5.520  12.921
92717SOL    HW180048  13.208   5.464  12.993
92717SOL    HW280049  13.107   5.571  12.958
92718SOL     OW80050   5.256   6.770   2.924
92718SOL    HW180051   5.280   6.813   3.006
92718SOL    HW280052   5.182   6.821   2.891
92719SOL     OW80053  12.049   3.691   2.901
92719SOL    HW180054  11.984   3.661   2.838
92719SOL    HW280055  12.023   3.781   2.921
92720SOL     OW80056   7.625   7.866   9.744
92720SOL    HW180057   7.636   7.775   9.715
92720SOL    HW280058   7.533   7.886   9.726
92721SOL     OW80059  10.232   4.883  14.424
92721SOL    HW180060  10.189   4.860  14.507
92721SOL    HW280061  10.205   4.814  14.363
92722SOL     OW80062   3.580   5.267   1.346
92722SOL    HW180063   3.514   5.304   1.287
92722SOL    HW280064   3.612   5.189   1.301
92723SOL     OW80065  10.878   9.435   6.366
92723SOL    HW180066  10.807   9.442   6.303
92723SOL    HW280067  10.838   9.459   6.450
92724SOL     OW80068  11.293  14.074  13.895
92724SOL    HW180069  11.265  13.993  13.852
92724SOL    HW280070  11.389  14.068  13.899
92725SOL     OW80071  11.876   5.008   6.295
92725SOL    HW180072  11.806   4.965   6.345
92725SOL    HW280073  11.837   5.024   6.209
92726SOL     OW80074   2.698   1.255  14.127
92726SOL    HW180075   2.629   1.231  14.190
92726SOL    HW280076   2.779   1.231  14.172
92727SOL     OW80077   9.665   0.871  14.701
92727SOL    HW180078   9.684   0.784  14.666
92727SOL    HW280079   9.591   0.902  14.649
92728SOL     OW80080   5.911  13.702   7.420
92728SOL    HW180081   5.852  13.676   7.349
92728SOL    HW280082   5.865  13.773   7.464
92729SOL     OW80083  14.683   6.540   6.411
92729SOL    HW180084  14.776   6.548   6.392
92729SOL    HW280085  14.654   6.630   6.426
92730SOL     OW80086   0.091   3.727  10.439
92730SOL    HW180087   0.023   3.765  10.494
92730SOL    HW280088   0.126   3.800  10.389
92731SOL     OW80089   6.727  11.066   4.832
92731SOL    HW180090   6.805  11.045   4.882
92731SOL    HW280091   6.740  11.156   4.804
92732SOL     OW80092   0.087   7.254   8.542
92732SOL    HW180093   0.076   7.165   8.576
92732SOL    HW280094   0.020   7.264   8.475
92733SOL     OW80095   1.778   6.560   5.195
92733SOL    HW180096   1.709   6.626   5.202
92733SOL    HW280097   1.790   6.547   5.101
92734SOL     OW80098   9.624   0.579  10.700
92734SOL    HW180099   9.587   0.661  10.667
92734SOL    HW280100   9.692   0.607  10.762
92735SOL     OW80101   0.559  12.631   6.320
92735SOL    HW180102   0.569  12.540   6.291
92735SOL    HW280103   0.648  12.665   6.321
92736SOL     OW80104   9.288   6.847   2.574
92736SOL    HW180105   9.288   6.878   2.483
92736SOL    HW280106   9.377   6.815   2.588
92737SOL     OW80107   5.388   5.837   1.380
92737SOL    HW180108   5.316   5.874   1.328
92737SOL    HW280109   5.446   5.911   1.396
92738SOL     OW80110   9.248   0.685   8.822
92738SOL    HW180111   9.316   0.618   8.835
92738SOL    HW280112   9.212   0.666   8.736
92739SOL     OW80113  10.610   6.738   9.149
92739SOL    HW180114  10.705   6.747   9.142
92739SOL    HW280115  10.576   6.820   9.112
92740SOL     OW80116  12.638   9.198   9.603
92740SOL    HW180117  12.615   9.285   9.637
92740SOL    HW280118  12.730   9.206   9.578
92741SOL     OW80119  14.710   3.113   6.470
92741SOL    HW180120  14.769   3.072   6.407
92741SOL    HW280121  14.665   3.040   6.512
92742SOL     OW80122  11.376  10.549  11.276
92742SOL    HW180123  11.361  10.532  11.369
92742SOL    HW280124  11.305  10.502  11.232
92743SOL     OW80125  10.801   3.371   3.275
92743SOL    HW180126  10.874   3.325   3.317
92743SOL    HW280127  10.725   3.350   3.328
92744SOL     OW80128   0.402  11.722   7.253
92744SOL    HW180129   0.456  11.724   7.333
92744SOL    HW280130   0.397  11.814   7.226
92745SOL     OW80131   9.038  13.528  10.719
92745SOL    HW180132   9.030  13.501  10.810
92745SOL    HW280133   8.992  13.613  10.715
92746SOL     OW80134  10.472  12.992  14.311
92746SOL    HW180135  10.472  12.936  14.233
92746SOL    HW280136  10.486  12.932  14.384
92747SOL     OW80137  12.068  14.746   4.721
92747SOL    HW180138  12.118  14.704   4.651
92747SOL    HW280139  12.132  14.759   4.791
92748SOL     OW80140  10.788   2.051   9.161
92748SOL    HW180141  10.828   1.965   9.173
92748SOL    HW280142  10.732   2.063   9.238
92749SOL     OW80143   2.114  11.552   1.232
92749SOL    HW180144   2.168  11.599   1.168
92749SOL    HW280145   2.172  11.536   1.306
92750SOL     OW80146   2.018   1.771   1.713
92750SOL    HW180147   1.959   1.698   1.731
92750SOL    HW280148   2.106   1.734   1.722
92751SOL     OW80149   4.372  12.240   7.139
92751SOL    HW180150   4.397  12.163   7.190
92751SOL    HW280151   4.452  12.292   7.131
92752SOL     OW80152  12.671   9.807   6.453
92752SOL    HW180153  12.657   9.887   6.403
92752SOL    HW280154  12.612   9.743   6.415
92753SOL     OW80155  10.093  12.847   9.785
92753SOL    HW180156  10.021  12.828   9.846
92753SOL    HW280157  10.127  12.931   9.814
92754SOL     OW80158  12.138  10.886   3.839
92754SOL    HW180159  12.197  10.817   3.870
92754SOL    HW280160  12.161  10.897   3.747
92755SOL     OW80161  11.486   9.146   1.571
92755SOL    HW180162  11.412   9.149   1.510
92755SOL    HW280163  11.470   9.218   1.632
92756SOL     OW80164   1.702   8.977   1.846
92756SOL    HW180165   1.719   8.886   1.825
92756SOL    HW280166   1.738   8.988   1.935
92757SOL     OW80167   9.077   8.250   6.713
92757SOL    HW180168   9.159   8.204   6.733
92757SOL    HW280169   9.081   8.265   6.619
92758SOL     OW80170   5.398  13.335   3.496
92758SOL    HW180171   5.319  13.311   3.546
92758SOL    HW280172   5.410  13.428   3.514
92759SOL     OW80173   0.053   6.445  12.445
92759SOL    HW180174   0.018   6.358  12.461
92759SOL    HW280175  14.852   6.494  12.407
92760SOL     OW80176   3.139   2.771  10.611
92760SOL    HW180177   3.044   2.780  10.606
92760SOL    HW280178   3.155   2.677  10.607
92761SOL     OW80179   4.709   7.005  14.385
92761SOL    HW180180   4.799   7.009  14.353
92761SOL    HW280181   4.667   7.085  14.351
92762SOL     OW80182   3.693   2.077   5.259
92762SOL    HW180183   3.712   2.113   5.345
92762SOL    HW280184   3.732   1.989   5.260
92763SOL     OW80185   0.534   1.901   6.438
92763SOL    HW180186   0.475   1.827   6.453
92763SOL    HW280187   0.502   1.942   6.358
92764SOL     OW80188  12.418  13.884   9.293
92764SOL    HW180189  12.492  13.836   9.257
92764SOL    HW280190  12.345  13.823   9.288
92765SOL     OW80191   1.759  10.462  12.504
92765SOL    HW180192   1.783  10.429  12.591
92765SOL    HW280193   1.843  10.486  12.464
92766SOL     OW80194   3.795   2.911  14.032
92766SOL    HW180195   3.890   2.904  14.037
92766SOL    HW280196   3.762   2.857  14.104
92767SOL     OW80197  14.050   0.930   9.492
92767SOL    HW180198  14.063   0.999   9.428
92767SOL    HW280199  14.012   0.974   9.568
92768SOL     OW80200   6.336   6.989   2.309
92768SOL    HW180201   6.383   6.928   2.366
92768SOL    HW280202   6.338   7.072   2.357
92769SOL     OW80203   6.147  10.708   8.865
92769SOL    HW180204   6.240  10.684   8.865
92769SOL    HW280205   6.130  10.738   8.954
92770SOL     OW80206  13.790   4.515   6.792
92770SOL    HW180207  13.868   4.474   6.754
92770SOL    HW280208  13.823   4.585   6.847
92771SOL     OW80209  13.502   3.986   2.110
92771SOL    HW180210  13.502   3.916   2.046
92771SOL    HW280211  13.522   4.065   2.060
92772SOL     OW80212   6.813   6.013   1.090
92772SOL    HW180213   6.783   6.080   1.029
92772SOL    HW280214   6.779   5.931   1.054
92773SOL     OW80215   7.078   0.970   1.962
92773SOL    HW180216   7.053   1.052   1.919
92773SOL    HW280217   7.015   0.960   2.033
92774SOL     OW80218  11.454   6.825   3.535
92774SOL    HW180219  11.525   6.879   3.502
92774SOL    HW280220  11.374   6.870   3.506
92775SOL     OW80221   4.857   8.502   2.055
92775SOL    HW180222   4.904   8.574   2.097
92775SOL    HW280223   4.790   8.545   2.001
92776SOL     OW80224   2.808  14.780   0.103
92776SOL    HW180225   2.804  14.820   0.016
92776SOL    HW280226   2.837  14.690   0.088
92777SOL     OW80227   6.586   2.095  10.640
92777SOL    HW180228   6.668   2.073  10.596
92777SOL    HW280229   6.592   2.189  10.657
92778SOL     OW80230   4.257   1.947   0.193
92778SOL    HW180231   4.323   1.944   0.262
92778SOL    HW280232   4.173   1.953   0.239
92779SOL     OW80233   7.670  14.799  14.792
92779SOL    HW180234   7.705  14.727  14.845
92779SOL    HW280235   7.637  14.862  14.857
92780SOL     OW80236  13.688  11.683   5.205
92780SOL    HW180237  13.731  11.767   5.191
92780SOL    HW280238  13.760  11.623   5.225
92781SOL     OW80239   2.027   5.692  14.682
92781SOL    HW180240   1.957   5.671  14.743
92781SOL    HW280241   2.107   5.664  14.727
92782SOL     OW80242   8.139  10.048   4.338
92782SOL    HW180243   8.060  10.014   4.380
92782SOL    HW280244   8.159   9.984   4.269
92783SOL     OW80245  11.707   9.709   6.319
92783SOL    HW180246  11.753   9.776   6.269
92783SOL    HW280247  11.649   9.667   6.255
92784SOL     OW80248   2.011   4.675  10.983
92784SOL    HW180249   2.044   4.701  11.069
92784SOL    HW280250   2.087   4.638  10.938
92785SOL     OW80251   3.146   9.564   4.049
92785SOL    HW180252   3.221   9.547   3.992
92785SOL    HW280253   3.179   9.626   4.114
92786SOL     OW80254   0.780   2.670   1.456
92786SOL    HW180255   0.830   2.589   1.463
92786SOL    HW280256   0.844   2.736   1.429
92787SOL     OW80257   3.475   0.037   5.748
92787SOL    HW180258   3.446   0.102   5.811
92787SOL    HW280259   3.420  14.832   5.765
92788SOL     OW80260   1.194  12.008  12.322
92788SOL    HW180261   1.200  12.084  12.264
92788SOL    HW280262   1.184  12.046  12.409
92789SOL     OW80263   6.117  11.776  11.426
92789SOL    HW180264   6.130  11.714  11.353
92789SOL    HW280265   6.202  11.816  11.439
92790SOL     OW80266   6.976   3.932   3.124
92790SOL    HW180267   6.913   3.894   3.185
92790SOL    HW280268   7.030   3.989   3.178
92791SOL     OW80269  14.375   0.888   1.996
92791SOL    HW180270  14.427   0.965   1.971
92791SOL    HW280271  14.348   0.849   1.913
92792SOL     OW80272   5.038   8.244   6.792
92792SOL    HW180273   4.964   8.300   6.765
92792SOL    HW280274   5.001   8.188   6.860
92793SOL     OW80275   1.131  13.743   8.179
92793SOL    HW180276   1.094  13.742   8.091
92793SOL    HW280277   1.187  13.665   8.182
92794SOL     OW80278   7.538   9.937   4.783
92794SOL    HW180279   7.559   9.849   4.751
92794SOL    HW280280   7.609   9.957   4.844
92795SOL     OW80281   4.309   2.398   3.314
92795SOL    HW180282   4.215   2.392   3.334
92795SOL    HW280283   4.340   2.308   3.317
92796SOL     OW80284  11.632   7.418  12.282
92796SOL    HW180285  11.693   7.484  12.315
92796SOL    HW280286  11.673   7.334  12.304
92797SOL     OW80287   2.483   1.309   6.308
92797SOL    HW180288   2.495   1.399   6.338
92797SOL    HW280289   2.422   1.316   6.234
92798SOL     OW80290   1.214   6.810  11.869
92798SOL    HW180291   1.231   6.897  11.833
92798SOL    HW280292   1.204   6.754  11.792
92799SOL     OW80293   1.581   0.915   7.511
92799SOL    HW180294   1.491   0.947   7.500
92799SOL    HW280295   1.620   0.973   7.575
92800SOL     OW80296   7.015  10.988  10.889
92800SOL    HW180297   6.950  10.957  10.953
92800SOL    HW280298   7.016  11.083  10.900
92801SOL     OW80299   7.032   5.006   3.726
92801SOL    HW180300   6.959   4.968   3.678
92801SOL    HW280301   7.077   5.062   3.662
92802SOL     OW80302  10.481  12.533   9.385
92802SOL    HW180303  10.473  12.464   9.320
92802SOL    HW280304  10.526  12.492   9.458
92803SOL     OW80305  13.864   7.831  10.080
92803SOL    HW180306  13.795   7.795  10.137
92803SOL    HW280307  13.888   7.758  10.023
92804SOL     OW80308   8.163  12.421   2.787
92804SOL    HW180309   8.117  12.337   2.791
92804SOL    HW280310   8.168  12.449   2.879
92805SOL     OW80311   1.441   8.259  12.331
92805SOL    HW180312   1.427   8.322  12.402
92805SOL    HW280313   1.356   8.217  12.320
92806SOL     OW80314   4.316  11.610   6.693
92806SOL    HW180315   4.257  11.562   6.635
92806SOL    HW280316   4.298  11.575   6.780
92807SOL     OW80317  11.170   7.600   4.101
92807SOL    HW180318  11.263   7.620   4.089
92807SOL    HW280319  11.169   7.524   4.159
92808SOL     OW80320  14.556   0.701   8.518
92808SOL    HW180321  14.466   0.695   8.486
92808SOL    HW280322  14.557   0.648   8.598
92809SOL     OW80323   2.787   5.885   0.355
92809SOL    HW180324   2.878   5.858   0.373
92809SOL    HW280325   2.775   5.869   0.262
92810SOL     OW80326   2.559   1.875   6.213
92810SOL    HW180327   2.536   1.820   6.288
92810SOL    HW280328   2.487   1.863   6.151
92811SOL     OW80329   1.120   9.644  12.747
92811SOL    HW180330   1.112   9.549  12.736
92811SOL    HW280331   1.030   9.677  12.737
92812SOL     OW80332   9.759   0.724   9.857
92812SOL    HW180333   9.805   0.685   9.782
92812SOL    HW280334   9.823   0.783   9.897
92813SOL     OW80335   5.952   7.027  12.861
92813SOL    HW180336   6.001   7.069  12.790
92813SOL    HW280337   5.869   7.075  12.866
92814SOL     OW80338  12.936   7.855   0.848
92814SOL    HW180339  13.000   7.906   0.799
92814SOL    HW280340  12.930   7.772   0.801
92815SOL     OW80341  10.912  13.952   2.444
92815SOL    HW180342  10.965  13.877   2.417
92815SOL    HW280343  10.962  14.028   2.415
92816SOL     OW80344  11.409   9.312  10.829
92816SOL    HW180345  11.486   9.314  10.772
92816SOL    HW280346  11.436   9.360  10.908
92817SOL     OW80347  11.672   2.547   8.404
92817SOL    HW180348  11.665   2.583   8.492
92817SOL    HW280349  11.698   2.455   8.417
92818SOL     OW80350  10.226   0.201   4.356
92818SOL    HW180351  10.138   0.184   4.323
92818SOL    HW280352  10.225   0.168   4.446
92819SOL     OW80353   9.495  11.045   5.839
92819SOL    HW180354   9.425  10.983   5.818
92819SOL    HW280355   9.452  11.114   5.888
92820SOL     OW80356   2.220   8.272   0.620
92820SOL    HW180357   2.211   8.309   0.533
92820SOL    HW280358   2.315   8.258   0.631
92821SOL     OW80359  13.638   0.733   3.515
92821SOL    HW180360  13.575   0.661   3.518
92821SOL    HW280361  13.722   0.691   3.499
92822SOL     OW80362   4.767   4.162   4.228
92822SOL    HW180363   4.726   4.117   4.155
92822SOL    HW280364   4.721   4.130   4.305
92823SOL     OW80365  13.929  10.006   6.220
92823SOL    HW180366  13.986   9.941   6.260
92823SOL    HW280367  13.988  10.065   6.174
92824SOL     OW80368   0.389  14.810   3.268
92824SOL    HW180369   0.474  14.768   3.256
92824SOL    HW280370   0.406   0.012   3.325
92825SOL     OW80371  13.077   2.411   6.962
92825SOL    HW180372  13.015   2.482   6.982
92825SOL    HW280373  13.021   2.336   6.942
92826SOL     OW80374  10.749   9.863   7.997
92826SOL    HW180375  10.727   9.770   8.003
92826SOL    HW280376  10.800   9.870   7.916
92827SOL     OW80377   4.977   4.739   4.622
92827SOL    HW180378   5.014   4.785   4.547
92827SOL    HW280379   4.959   4.807   4.686
92828SOL     OW80380   6.914   0.948  14.414
92828SOL    HW180381   6.985   0.885  14.402
92828SOL    HW280382   6.841   0.911  14.365
92829SOL     OW80383   0.546   4.143   5.369
92829SOL    HW180384   0.548   4.095   5.451
92829SOL    HW280385   0.479   4.098   5.317
92830SOL     OW80386   1.167   1.906   5.922
92830SOL    HW180387   1.249   1.950   5.947
92830SOL    HW280388   1.106   1.929   5.991
92831SOL     OW80389  14.217   4.875   1.568
92831SOL    HW180390  14.155   4.911   1.506
92831SOL    HW280391  14.292   4.848   1.515
92832SOL     OW80392  13.157   7.950  11.909
92832SOL    HW180393  13.190   7.924  11.995
92832SOL    HW280394  13.173   7.874  11.854
92833SOL     OW80395   7.500  12.561  10.700
92833SOL    HW180396   7.529  12.530  10.786
92833SOL    HW280397   7.472  12.651  10.715
92834SOL     OW80398  10.802   6.055   6.214
92834SOL    HW180399  10.766   6.142   6.201
92834SOL    HW280400  10.845   6.035   6.130
92835SOL     OW80401  10.675   8.941   8.927
92835SOL    HW180402  10.623   8.920   8.849
92835SOL    HW280403  10.699   8.856   8.964
92836SOL     OW80404   4.320  10.258  10.144
92836SOL    HW180405   4.228  10.287  10.145
92836SOL    HW280406   4.357  10.294  10.225
92837SOL     OW80407   2.640   7.620   9.281
92837SOL    HW180408   2.605   7.691   9.335
92837SOL    HW280409   2.568   7.595   9.223
92838SOL     OW80410   7.822  12.947   2.261
92838SOL    HW180411   7.742  12.938   2.313
92838SOL    HW280412   7.790  12.954   2.170
92839SOL     OW80413   9.993   1.105   6.918
92839SOL    HW180414   9.952   1.179   6.963
92839SOL    HW280415   9.975   1.120   6.825
92840SOL     OW80416   1.663  14.676   4.078
92840SOL    HW180417   1.684  14.752   4.023
92840SOL    HW280418   1.568  14.678   4.084
92841SOL     OW80419   3.721  14.498   5.440
92841SOL    HW180420   3.649  14.439   5.416
92841SOL    HW280421   3.712  14.511   5.534
92842SOL     OW80422   1.741  10.331  10.634
92842SOL    HW180423   1.679  10.400  10.654
92842SOL    HW280424   1.805  10.335  10.705
92843SOL     OW80425   0.798   2.483   6.354
92843SOL    HW180426   0.796   2.394   6.389
92843SOL    HW280427   0.710   2.517   6.372
92844SOL     OW80428  13.195   3.138   9.140
92844SOL    HW180429  13.160   3.222   9.170
92844SOL    HW280430  13.281   3.160   9.105
92845SOL     OW80431   2.810   5.561   7.169
92845SOL    HW180432   2.788   5.470   7.190
92845SOL    HW280433   2.827   5.560   7.075
92846SOL     OW80434   6.502  13.182   4.538
92846SOL    HW180435   6.537  13.178   4.627
92846SOL    HW280436   6.569  13.141   4.484
92847SOL     OW80437   1.827   0.950   8.728
92847SOL    HW180438   1.762   0.903   8.676
92847SOL    HW280439   1.797   1.041   8.729
92848SOL     OW80440   2.738   4.706   5.139
92848SOL    HW180441   2.702   4.724   5.226
92848SOL    HW280442   2.827   4.741   5.142
92849SOL     OW80443  12.579  14.536   0.879
92849SOL    HW180444  12.548  14.534   0.970
92849SOL    HW280445  12.662  14.489   0.881
92850SOL     OW80446   9.947   8.338  12.918
92850SOL    HW180447   9.975   8.338  12.826
92850SOL    HW280448  10.024   8.369  12.966
92851SOL     OW80449  14.284   2.808   5.686
92851SOL    HW180450  14.232   2.888   5.695
92851SOL    HW280451  14.298   2.778   5.776
92852SOL     OW80452   9.490  10.849  13.800
92852SOL    HW180453   9.405  10.878  13.768
92852SOL    HW280454   9.536  10.930  13.823
92853SOL     OW80455   6.726   7.173  14.743
92853SOL    HW180456   6.730   7.121  14.663
92853SOL    HW280457   6.748   7.262  14.714
92854SOL     OW80458   0.484   5.515  12.620
92854SOL    HW180459   0.452   5.455  12.688
92854SOL    HW280460   0.498   5.598  12.667
92855SOL     OW80461   7.164  13.473   7.781
92855SOL    HW180462   7.074  13.483   7.810
92855SOL    HW280463   7.178  13.378   7.776
92856SOL     OW80464   2.007   5.429  13.547
92856SOL    HW180465   2.004   5.398  13.457
92856SOL    HW280466   2.100   5.441  13.565
92857SOL     OW80467  10.123  14.178   1.858
92857SOL    HW180468  10.133  14.154   1.766
92857SOL    HW280469  10.212  14.177   1.893
92858SOL     OW80470   4.878   8.555   5.180
92858SOL    HW180471   4.827   8.598   5.111
92858SOL    HW280472   4.966   8.548   5.143
92859SOL     OW80473  12.595  13.502   0.944
92859SOL    HW180474  12.665  13.452   0.903
92859SOL    HW280475  12.515  13.473   0.900
92860SOL     OW80476   5.440   7.251  14.435
92860SOL    HW180477   5.461   7.159  14.451
92860SOL    HW280478   5.440   7.260  14.340
92861SOL     OW80479   1.634   4.588   3.705
92861SOL    HW180480   1.650   4.565   3.797
92861SOL    HW280481   1.638   4.504   3.659
92862SOL     OW80482  11.479   5.237   1.217
92862SOL    HW180483  11.560   5.228   1.267
92862SOL    HW280484  11.475   5.158   1.163
92863SOL     OW80485   2.436  13.163  10.691
92863SOL    HW180486   2.501  13.100  10.660
92863SOL    HW280487   2.358  13.111  10.708
92864SOL     OW80488  12.352  13.807   6.552
92864SOL    HW180489  12.354  13.875   6.483
92864SOL    HW280490  12.296  13.844   6.620
92865SOL     OW80491   2.246   6.773   3.383
92865SOL    HW180492   2.300   6.706   3.341
92865SOL    HW280493   2.174   6.724   3.422
92866SOL     OW80494   1.397   0.085  14.415
92866SOL    HW180495   1.417  14.864  14.417
92866SOL    HW280496   1.447   0.122  14.488
92867SOL     OW80497   6.559   2.948   6.878
92867SOL    HW180498   6.534   3.040   6.877
92867SOL    HW280499   6.594   2.933   6.966
92868SOL     OW80500  14.835  13.827   2.752
92868SOL    HW180501   0.047  13.845   2.709
92868SOL    HW280502  14.821  13.903   2.809
92869SOL     OW80503   0.340   4.638   0.562
92869SOL    HW180504   0.403   4.605   0.625
92869SOL    HW280505   0.309   4.721   0.600
92870SOL     OW80506   8.720   2.605   8.115
92870SOL    HW180507   8.801   2.656   8.117
92870SOL    HW280508   8.658   2.658   8.165
92871SOL     OW80509   5.028   2.702   1.525
92871SOL    HW180510   4.950   2.706   1.470
92871SOL    HW280511   5.031   2.786   1.569
92872SOL     OW80512   7.720  12.298   6.606
92872SOL    HW180513   7.643  12.320   6.659
92872SOL    HW280514   7.701  12.335   6.520
92873SOL     OW80515  13.012  11.007   3.149
92873SOL    HW180516  13.106  11.024   3.158
92873SOL    HW280517  12.997  10.997   3.055
92874SOL     OW80518   8.352   5.492   3.839
92874SOL    HW180519   8.363   5.414   3.893
92874SOL    HW280520   8.258   5.510   3.842
92875SOL     OW80521   0.357  10.191   9.705
92875SOL    HW180522   0.306  10.149   9.774
92875SOL    HW280523   0.377  10.120   9.643
92876SOL     OW80524  10.525   7.901   3.292
92876SOL    HW180525  10.542   7.914   3.386
92876SOL    HW280526  10.585   7.832   3.266
92877SOL     OW80527  14.173   9.909   0.268
92877SOL    HW180528  14.246   9.871   0.318
92877SOL    HW280529  14.115   9.835   0.250
92878SOL     OW80530   5.469   6.415   9.919
92878SOL    HW180531   5.449   6.386   9.830
92878SOL    HW280532   5.549   6.467   9.910
92879SOL     OW80533  11.883  10.454   6.828
92879SOL    HW180534  11.910  10.492   6.911
92879SOL    HW280535  11.825  10.520   6.789
92880SOL     OW80536  13.340   4.442   9.708
92880SOL    HW180537  13.298   4.522   9.740
92880SOL    HW280538  13.291   4.419   9.629
92881SOL     OW80539   7.736   8.982  10.897
92881SOL    HW180540   7.663   8.993  10.836
92881SOL    HW280541   7.737   9.063  10.947
92882SOL     OW80542   5.867   9.037  13.849
92882SOL    HW180543   5.939   9.095  13.826
92882SOL    HW280544   5.892   8.952  13.812
92883SOL     OW80545  11.089  11.817   7.543
92883SOL    HW180546  11.060  11.726   7.537
92883SOL    HW280547  11.013  11.865   7.576
92884SOL     OW80548   6.594   3.132   4.133
92884SOL    HW180549   6.558   3.131   4.044
92884SOL    HW280550   6.582   3.223   4.162
92885SOL     OW80551   0.950   5.308  10.008
92885SOL    HW180552   0.921   5.282  10.096
92885SOL    HW280553   0.959   5.225   9.961
92886SOL     OW80554   9.681   9.359   7.385
92886SOL    HW180555   9.592   9.326   7.374
92886SOL    HW280556   9.734   9.305   7.327
92887SOL     OW80557   8.996   9.547  14.199
92887SOL    HW180558   8.913   9.579  14.163
92887SOL    HW280559   9.056   9.546  14.124
92888SOL     OW80560  13.860  10.573   5.854
92888SOL    HW180561  13.905  10.514   5.915
92888SOL    HW280562  13.859  10.658   5.899
92889SOL     OW80563  11.574  13.324  11.449
92889SOL    HW180564  11.493  13.343  11.496
92889SOL    HW280565  11.643  13.333  11.514
92890SOL     OW80566   9.603  11.616  13.218
92890SOL    HW180567   9.699  11.621  13.224
92890SOL    HW280568   9.586  11.547  13.154
92891SOL     OW80569   7.975  10.800   6.669
92891SOL    HW180570   7.945  10.796   6.760
92891SOL    HW280571   8.052  10.743   6.667
92892SOL     OW80572   4.274  11.232  11.016
92892SOL    HW180573   4.275  11.265  10.926
92892SOL    HW280574   4.317  11.147  11.011
92893SOL     OW80575  14.799  10.369  14.169
92893SOL    HW180576   0.007  10.320  14.185
92893SOL    HW280577  14.789  10.425  14.246
92894SOL     OW80578   3.199  13.648  12.918
92894SOL    HW180579   3.251  13.677  12.843
92894SOL    HW280580   3.164  13.563  12.891
92895SOL     OW80581   6.487   8.287   3.475
92895SOL    HW180582   6.543   8.268   3.399
92895SOL    HW280583   6.538   8.259   3.550
92896SOL     OW80584   1.802   4.817  10.524
92896SOL    HW180585   1.711   4.845  10.525
92896SOL    HW280586   1.815   4.772  10.607
92897SOL     OW80587  14.830  11.826   7.369
92897SOL    HW180588   0.043  11.870   7.376
92897SOL    HW280589  14.775  11.871   7.433
92898SOL     OW80590   4.927   6.492  11.338
92898SOL    HW180591   4.933   6.476  11.244
92898SOL    HW280592   4.858   6.558  11.347
92899SOL     OW80593  12.059   1.884   1.158
92899SOL    HW180594  11.967   1.906   1.175
92899SOL    HW280595  12.105   1.909   1.238
92900SOL     OW80596  10.134   3.035  14.474
92900SOL    HW180597  10.078   3.110  14.451
92900SOL    HW280598  10.129   3.031  14.570
92901SOL     OW80599   2.503  10.959  11.523
92901SOL    HW180600   2.565  10.946  11.595
92901SOL    HW280601   2.524  10.890  11.460
92902SOL     OW80602   1.842   9.637   0.626
92902SOL    HW180603   1.780   9.639   0.699
92902SOL    HW280604   1.923   9.602   0.664
92903SOL     OW80605   3.460   7.791   7.334
92903SOL    HW180606   3.538   7.778   7.387
92903SOL    HW280607   3.485   7.760   7.247
92904SOL     OW80608  10.169   1.792   3.434
92904SOL    HW180609  10.243   1.814   3.490
92904SOL    HW280610  10.109   1.866   3.442
92905SOL     OW80611   1.658  10.246  10.377
92905SOL    HW180612   1.742  10.209  10.349
92905SOL    HW280613   1.676  10.281  10.465
92906SOL     OW80614  12.133   1.559   4.393
92906SOL    HW180615  12.213   1.530   4.350
92906SOL    HW280616  12.115   1.491   4.459
92907SOL     OW80617  13.513   0.623   7.042
92907SOL    HW180618  13.515   0.575   7.125
92907SOL    HW280619  13.602   0.616   7.009
92908SOL     OW80620   9.967  14.764   3.914
92908SOL    HW180621   9.903  14.814   3.863
92908SOL    HW280622  10.018  14.717   3.848
92909SOL     OW80623  11.310  12.528   9.970
92909SOL    HW180624  11.310  12.623   9.960
92909SOL    HW280625  11.381  12.498   9.913
92910SOL     OW80626   4.129   4.536  12.984
92910SOL    HW180627   4.121   4.622  12.942
92910SOL    HW280628   4.051   4.488  12.958
92911SOL     OW80629  13.128   6.908   5.704
92911SOL    HW180630  13.084   6.992   5.707
92911SOL    HW280631  13.177   6.908   5.621
92912SOL     OW80632  14.014   8.999  12.251
92912SOL    HW180633  14.099   8.965  12.282
92912SOL    HW280634  14.037   9.073  12.196
92913SOL     OW80635   9.061   2.725   4.983
92913SOL    HW180636   8.996   2.684   4.927
92913SOL    HW280637   9.055   2.819   4.962
92914SOL     OW80638  11.585  13.978  11.926
92914SOL    HW180639  11.576  14.030  12.005
92914SOL    HW280640  11.539  13.896  11.945
92915SOL     OW80641   5.879   9.537   0.563
92915SOL    HW180642   5.916   9.608   0.511
92915SOL    HW280643   5.954   9.493   0.601
92916SOL     OW80644   2.158   7.914   6.875
92916SOL    HW180645   2.188   7.830   6.842
92916SOL    HW280646   2.207   7.926   6.957
92917SOL     OW80647   7.362  10.069   0.963
92917SOL    HW180648   7.292  10.003   0.968
92917SOL    HW280649   7.328  10.135   0.903
92918SOL     OW80650   6.466   2.309   7.017
92918SOL    HW180651   6.501   2.344   6.935
92918SOL    HW280652   6.396   2.251   6.990
92919SOL     OW80653  13.396   6.492   4.576
92919SOL    HW180654  13.333   6.423   4.597
92919SOL    HW280655  13.355   6.541   4.504
92920SOL     OW80656   4.627   8.114   2.952
92920SOL    HW180657   4.608   8.085   3.041
92920SOL    HW280658   4.670   8.199   2.963
92921SOL     OW80659   9.034  10.305   5.664
92921SOL    HW180660   9.052  10.316   5.757
92921SOL    HW280661   9.082  10.375   5.620
92922SOL     OW80662   2.685   6.591  12.149
92922SOL    HW180663   2.704   6.662  12.211
92922SOL    HW280664   2.757   6.593  12.087
92923SOL     OW80665  13.202   4.530   3.819
92923SOL    HW180666  13.272   4.563   3.763
92923SOL    HW280667  13.167   4.607   3.863
92924SOL     OW80668   4.641  14.844  10.762
92924SOL    HW180669   4.711  14.809  10.817
92924SOL    HW280670   4.574   0.003  10.824
92925SOL     OW80671   9.325  11.149  12.122
92925SOL    HW180672   9.391  11.081  12.113
92925SOL    HW280673   9.374  11.231  12.112
92926SOL     OW80674   3.941   6.731   6.894
92926SOL    HW180675   3.987   6.810   6.921
92926SOL    HW280676   3.899   6.700   6.974
92927SOL     OW80677   3.402  14.317   8.967
92927SOL    HW180678   3.388  14.390   8.907
92927SOL    HW280679   3.495  14.297   8.959
92928SOL     OW80680   5.533   6.120   5.766
92928SOL    HW180681   5.490   6.059   5.707
92928SOL    HW280682   5.479   6.120   5.845
92929SOL     OW80683   8.181   6.573  11.237
92929SOL    HW180684   8.148   6.585  11.148
92929SOL    HW280685   8.194   6.661  11.270
92930SOL     OW80686  10.439   8.908   8.772
92930SOL    HW180687  10.439   8.977   8.706
92930SOL    HW280688  10.379   8.940   8.840
92931SOL     OW80689  13.875  12.567  11.817
92931SOL    HW180690  13.900  12.529  11.733
92931SOL    HW280691  13.844  12.493  11.869
92932SOL     OW80692  13.427  14.378   1.297
92932SOL    HW180693  13.488  14.443   1.262
92932SOL    HW280694  13.410  14.406   1.387
92933SOL     OW80695   3.900   2.648   3.618
92933SOL    HW180696   3.993   2.671   3.624
92933SOL    HW280697   3.900   2.553   3.613
92934SOL     OW80698  11.792   3.599   5.065
92934SOL    HW180699  11.789   3.694   5.068
92934SOL    HW280700  11.790   3.577   4.971
92935SOL     OW80701   4.176   7.858  13.193
92935SOL    HW180702   4.085   7.878  13.215
92935SOL    HW280703   4.190   7.769  13.226
92936SOL     OW80704  11.809  12.638   5.542
92936SOL    HW180705  11.732  12.587   5.566
92936SOL    HW280706  11.774  12.723   5.514
92937SOL     OW80707   6.601   3.355  12.829
92937SOL    HW180708   6.624   3.433  12.778
92937SOL    HW280709   6.670   3.348  12.895
92938SOL     OW80710   2.023   3.562   2.768
92938SOL    HW180711   1.940   3.520   2.788
92938SOL    HW280712   2.090   3.506   2.808
92939SOL     OW80713   7.492   6.522  10.863
92939SOL    HW180714   7.504   6.460  10.935
92939SOL    HW280715   7.397   6.528  10.852
92940SOL     OW80716   7.059   3.889  14.757
92940SOL    HW180717   7.035   3.982  14.766
92940SOL    HW280718   7.030   3.849  14.839
92941SOL     OW80719   8.531   7.406   4.800
92941SOL    HW180720   8.438   7.382   4.806
92941SOL    HW280721   8.559   7.416   4.891
92942SOL     OW80722   9.179  14.800  10.508
92942SOL    HW180723   9.228  14.798  10.590
92942SOL    HW280724   9.193   0.016  10.474
92943SOL     OW80725   3.266  13.163   3.328
92943SOL    HW180726   3.348  13.213   3.324
92943SOL    HW280727   3.294  13.072   3.339
92944SOL     OW80728  13.681  14.518  10.721
92944SOL    HW180729  13.623  14.485  10.653
92944SOL    HW280730  13.769  14.512  10.682
92945SOL     OW80731   4.040   3.570   8.719
92945SOL    HW180732   4.008   3.493   8.672
92945SOL    HW280733   4.076   3.626   8.651
92946SOL     OW80734  12.845   1.945   9.428
92946SOL    HW180735  12.806   2.027   9.460
92946SOL    HW280736  12.836   1.949   9.333
92947SOL     OW80737   6.854  13.506   9.262
92947SOL    HW180738   6.812  13.421   9.253
92947SOL    HW280739   6.832  13.535   9.351
92948SOL     OW80740  12.349   7.262   9.078
92948SOL    HW180741  12.333   7.356   9.063
92948SOL    HW280742  12.284   7.237   9.143
92949SOL     OW80743   1.523  13.287   3.564
92949SOL    HW180744   1.513  13.201   3.606
92949SOL    HW280745   1.547  13.267   3.473
92950SOL     OW80746   6.482  11.948  10.861
92950SOL    HW180747   6.509  11.873  10.809
92950SOL    HW280748   6.413  11.914  10.918
92951SOL     OW80749   9.930   4.199   4.618
92951SOL    HW180750   9.888   4.240   4.543
92951SOL    HW280751   9.860   4.153   4.664
92952SOL     OW80752   7.734  11.388   9.579
92952SOL    HW180753   7.764  11.297   9.584
92952SOL    HW280754   7.650  11.383   9.535
92953SOL     OW80755  12.447  11.141   5.879
92953SOL    HW180756  12.385  11.111   5.813
92953SOL    HW280757  12.431  11.235   5.885
92954SOL     OW80758   6.708   0.996   2.254
92954SOL    HW180759   6.688   0.953   2.170
92954SOL    HW280760   6.802   0.984   2.265
92955SOL     OW80761   6.326   2.309  14.393
92955SOL    HW180762   6.402   2.268  14.351
92955SOL    HW280763   6.317   2.263  14.476
92956SOL     OW80764  11.075  10.489  11.229
92956SOL    HW180765  11.018  10.417  11.198
92956SOL    HW280766  11.105  10.460  11.315
92957SOL     OW80767   1.419  12.592  13.034
92957SOL    HW180768   1.410  12.499  13.017
92957SOL    HW280769   1.512  12.605  13.051
92958SOL     OW80770   1.598  11.193   8.429
92958SOL    HW180771   1.567  11.260   8.489
92958SOL    HW280772   1.537  11.196   8.356
92959SOL     OW80773   5.778  11.850   0.970
92959SOL    HW180774   5.823  11.834   1.053
92959SOL    HW280775   5.849  11.870   0.908
92960SOL     OW80776  11.934   7.456   4.688
92960SOL    HW180777  11.839   7.441   4.683
92960SOL    HW280778  11.945   7.548   4.665
92961SOL     OW80779  11.844  12.336   5.219
92961SOL    HW180780  11.780  12.390   5.265
92961SOL    HW280781  11.904  12.306   5.288
92962SOL     OW80782   7.123   0.261   2.054
92962SOL    HW180783   7.147   0.186   2.108
92962SOL    HW280784   7.133   0.230   1.964
92963SOL     OW80785   4.535  10.657  11.980
92963SOL    HW180786   4.605  10.592  11.990
92963SOL    HW280787   4.541  10.685  11.889
92964SOL     OW80788   1.469   3.044   2.850
92964SOL    HW180789   1.528   2.969   2.849
92964SOL    HW280790   1.428   3.044   2.764
92965SOL     OW80791  14.779   0.719   7.885
92965SOL    HW180792  14.835   0.698   7.810
92965SOL    HW280793  14.690   0.701   7.853
92966SOL     OW80794  13.542   2.186  14.344
92966SOL    HW180795  13.534   2.096  14.377
92966SOL    HW280796  13.636   2.198  14.329
92967SOL     OW80797   6.803   2.195   1.861
92967SOL    HW180798   6.785   2.279   1.904
92967SOL    HW280799   6.851   2.218   1.782
92968SOL     OW80800   6.294   5.433   6.634
92968SOL    HW180801   6.203   5.460   6.637
92968SOL    HW280802   6.291   5.338   6.618
92969SOL     OW80803   7.825   7.441   6.067
92969SOL    HW180804   7.763   7.395   6.010
92969SOL    HW280805   7.881   7.490   6.007
92970SOL     OW80806   2.363  10.387   0.035
92970SOL    HW180807   2.321  10.415  14.826
92970SOL    HW280808   2.387  10.468   0.079
92971SOL     OW80809   1.558  10.312  13.959
92971SOL    HW180810   1.624  10.316  14.029
92971SOL    HW280811   1.608  10.326  13.878
92972SOL     OW80812  12.688  11.772   7.675
92972SOL    HW180813  12.658  11.765   7.585
92972SOL    HW280814  12.694  11.866   7.692
92973SOL     OW80815  14.078  11.267  11.816
92973SOL    HW180816  13.986  11.246  11.832
92973SOL    HW280817  14.097  11.227  11.731
92974SOL     OW80818  12.173  14.339   3.976
92974SOL    HW180819  12.161  14.325   4.070
92974SOL    HW280820  12.260  14.304   3.958
92975SOL     OW80821   3.143  11.106   3.644
92975SOL    HW180822   3.152  11.107   3.548
92975SOL    HW280823   3.224  11.146   3.676
92976SOL     OW80824   7.993   6.437   7.439
92976SOL    HW180825   7.924   6.387   7.483
92976SOL    HW280826   8.000   6.517   7.491
92977SOL     OW80827   7.838   6.579   1.479
92977SOL    HW180828   7.813   6.494   1.441
92977SOL    HW280829   7.813   6.573   1.571
92978SOL     OW80830   5.023  12.243  13.444
92978SOL    HW180831   4.995  12.286  13.363
92978SOL    HW280832   5.110  12.279  13.461
92979SOL     OW80833   2.733   8.034   7.080
92979SOL    HW180834   2.810   7.994   7.123
92979SOL    HW280835   2.715   7.976   7.006
92980SOL     OW80836   5.521   4.581   8.820
92980SOL    HW180837   5.511   4.667   8.779
92980SOL    HW280838   5.555   4.599   8.907
92981SOL     OW80839   9.950   4.801   9.361
92981SOL    HW180840   9.939   4.791   9.455
92981SOL    HW280841   9.882   4.864   9.336
92982SOL     OW80842   9.694  10.014  13.161
92982SOL    HW180843   9.701   9.942  13.224
92982SOL    HW280844   9.630  10.074  13.200
92983SOL     OW80845  10.270   0.695  10.591
92983SOL    HW180846  10.350   0.644  10.605
92983SOL    HW280847  10.299   0.786  10.598
92984SOL     OW80848   6.358   2.109   0.435
92984SOL    HW180849   6.319   2.181   0.385
92984SOL    HW280850   6.359   2.140   0.525
92985SOL     OW80851   8.419   8.722   4.270
92985SOL    HW180852   8.455   8.811   4.260
92985SOL    HW280853   8.377   8.722   4.356
92986SOL     OW80854   7.450   4.905   9.407
92986SOL    HW180855   7.487   4.824   9.443
92986SOL    HW280856   7.370   4.920   9.458
92987SOL     OW80857  12.670  13.842  11.003
92987SOL    HW180858  12.730  13.811  10.936
92987SOL    HW280859  12.660  13.769  11.064
92988SOL     OW80860   0.068  10.265  13.309
92988SOL    HW180861   0.059  10.171  13.329
92988SOL    HW280862   0.103  10.267  13.220
92989SOL     OW80863   7.572   8.813   7.337
92989SOL    HW180864   7.647   8.770   7.380
92989SOL    HW280865   7.516   8.741   7.310
92990SOL     OW80866   3.631   7.719   8.092
92990SOL    HW180867   3.707   7.774   8.073
92990SOL    HW280868   3.634   7.704   8.186
92991SOL     OW80869   6.407  12.092   4.434
92991SOL    HW180870   6.323  12.045   4.439
92991SOL    HW280871   6.408  12.130   4.346
92992SOL     OW80872  12.457   6.800   5.562
92992SOL    HW180873  12.507   6.845   5.494
92992SOL    HW280874  12.385   6.859   5.582
92993SOL     OW80875   5.229  14.842  14.227
92993SOL    HW180876   5.201  14.762  14.271
92993SOL    HW280877   5.170   0.038  14.260
92994SOL     OW80878   5.303   6.820   8.235
92994SOL    HW180879   5.327   6.741   8.283
92994SOL    HW280880   5.382   6.874   8.236
92995SOL     OW80881   3.035  13.975   5.176
92995SOL    HW180882   3.073  13.920   5.244
92995SOL    HW280883   2.994  13.913   5.116
92996SOL     OW80884   7.421   7.223  12.431
92996SOL    HW180885   7.456   7.291  12.488
92996SOL    HW280886   7.491   7.204  12.369
92997SOL     OW80887   0.194   2.812   3.843
92997SOL    HW180888   0.265   2.865   3.879
92997SOL    HW280889   0.215   2.804   3.749
92998SOL     OW80890   8.385   2.195  14.250
92998SOL    HW180891   8.449   2.209  14.320
92998SOL    HW280892   8.300   2.197  14.294
92999SOL     OW80893   1.135   8.326   4.686
92999SOL    HW180894   1.173   8.321   4.598
92999SOL    HW280895   1.098   8.240   4.701
93000SOL     OW80896   7.953   0.755   2.920
93000SOL    HW180897   7.876   0.751   2.864
93000SOL    HW280898   7.919   0.785   3.005
93001SOL     OW80899   2.906   0.252   0.025
93001SOL    HW180900   2.883   0.221   0.112
93001SOL    HW280901   2.822   0.261  14.852
93002SOL     OW80902   8.637   2.795   0.707
93002SOL    HW180903   8.606   2.733   0.641
93002SOL    HW280904   8.643   2.744   0.788
93003SOL     OW80905  11.549   8.677   2.991
93003SOL    HW180906  11.585   8.762   3.016
93003SOL    HW280907  11.508   8.692   2.906
93004SOL     OW80908   4.953   2.283   7.075
93004SOL    HW180909   5.047   2.300   7.070
93004SOL    HW280910   4.923   2.285   6.984
93005SOL     OW80911   3.481  13.032   3.017
93005SOL    HW180912   3.455  13.107   2.964
93005SOL    HW280913   3.571  13.015   2.992
93006SOL     OW80914  13.705   6.090   4.545
93006SOL    HW180915  13.757   6.049   4.475
93006SOL    HW280916  13.618   6.050   4.536
93007SOL     OW80917  13.133   7.128   5.358
93007SOL    HW180918  13.220   7.117   5.395
93007SOL    HW280919  13.123   7.055   5.297
93008SOL     OW80920   3.298   1.301  14.013
93008SOL    HW180921   3.269   1.223  13.964
93008SOL    HW280922   3.362   1.343  13.955
93009SOL     OW80923   2.877  10.104  10.808
93009SOL    HW180924   2.868  10.116  10.902
93009SOL    HW280925   2.788  10.096  10.775
93010SOL     OW80926   1.006  13.058   9.005
93010SOL    HW180927   0.913  13.049   9.026
93010SOL    HW280928   1.033  13.139   9.049
93011SOL     OW80929  12.556   0.381   3.438
93011SOL    HW180930  12.560   0.414   3.528
93011SOL    HW280931  12.480   0.322   3.438
93012SOL     OW80932   8.116   8.479   4.290
93012SOL    HW180933   8.049   8.411   4.290
93012SOL    HW280934   8.068   8.559   4.271
93013SOL     OW80935   4.150   6.236   6.471
93013SOL    HW180936   4.184   6.193   6.549
93013SOL    HW280937   4.216   6.301   6.447
93014SOL     OW80938  10.357   5.972   5.005
93014SOL    HW180939  10.394   6.016   5.082
93014SOL    HW280940  10.281   5.925   5.039
93015SOL     OW80941  10.266  11.725   2.289
93015SOL    HW180942  10.276  11.651   2.230
93015SOL    HW280943  10.187  11.705   2.340
93016SOL     OW80944  12.820  10.064   3.654
93016SOL    HW180945  12.764  10.141   3.649
93016SOL    HW280946  12.872  10.067   3.574
93017SOL     OW80947   5.903   2.800   9.441
93017SOL    HW180948   5.917   2.780   9.534
93017SOL    HW280949   5.852   2.880   9.442
93018SOL     OW80950  11.153   5.861  10.460
93018SOL    HW180951  11.187   5.885  10.374
93018SOL    HW280952  11.220   5.803  10.497
93019SOL     OW80953   4.606   5.776   9.581
93019SOL    HW180954   4.677   5.815   9.632
93019SOL    HW280955   4.602   5.829   9.501
93020SOL     OW80956   3.572   5.664   7.196
93020SOL    HW180957   3.648   5.653   7.253
93020SOL    HW280958   3.503   5.612   7.238
93021SOL     OW80959   6.725   9.284  11.229
93021SOL    HW180960   6.631   9.303  11.234
93021SOL    HW280961   6.729   9.197  11.190
93022SOL     OW80962   1.477  10.800  10.475
93022SOL    HW180963   1.571  10.815  10.464
93022SOL    HW280964   1.462  10.715  10.434
93023SOL     OW80965   4.491   0.276   7.520
93023SOL    HW180966   4.429   0.336   7.561
93023SOL    HW280967   4.537   0.236   7.594
93024SOL     OW80968   7.303   2.542   8.011
93024SOL    HW180969   7.238   2.528   7.941
93024SOL    HW280970   7.353   2.461   8.014
93025SOL     OW80971   3.774   8.399  11.688
93025SOL    HW180972   3.849   8.447  11.652
93025SOL    HW280973   3.699   8.435  11.642
93026SOL     OW80974  10.742  14.005   1.458
93026SOL    HW180975  10.694  14.087   1.470
93026SOL    HW280976  10.709  13.970   1.375
93027SOL     OW80977   7.983  11.002   8.006
93027SOL    HW180978   7.888  11.009   7.993
93027SOL    HW280979   7.996  10.916   8.045
93028SOL     OW80980  11.278   1.187  12.711
93028SOL    HW180981  11.190   1.162  12.737
93028SOL    HW280982  11.271   1.207  12.618
93029SOL     OW80983   7.454   7.860   5.740
93029SOL    HW180984   7.495   7.849   5.825
93029SOL    HW280985   7.487   7.786   5.688
93030SOL     OW80986   8.499   0.028   3.786
93030SOL    HW180987   8.500  14.831   3.852
93030SOL    HW280988   8.446   0.097   3.825
93031SOL     OW80989   5.257   3.267   5.951
93031SOL    HW180990   5.285   3.322   6.023
93031SOL    HW280991   5.338   3.242   5.906
93032SOL     OW80992   7.528   5.789   0.355
93032SOL    HW180993   7.519   5.883   0.367
93032SOL    HW280994   7.440   5.759   0.333
93033SOL     OW80995  13.250   5.271  12.152
93033SOL    HW180996  13.166   5.316  12.163
93033SOL    HW280997  13.302   5.300  12.228
93034SOL     OW80998  10.104   2.104  11.490
93034SOL    HW180999  10.172   2.169  11.506
93034SOL    HW281000  10.081   2.115  11.398
93035SOL     OW81001   5.708  12.490   8.373
93035SOL    HW181002   5.681  12.434   8.299
93035SOL    HW281003   5.739  12.428   8.439
93036SOL     OW81004   4.962   9.707  12.770
93036SOL    HW181005   4.916   9.724  12.853
93036SOL    HW281006   4.906   9.646  12.723
93037SOL     OW81007  12.066   0.061   2.286
93037SOL    HW181008  12.115   0.142   2.302
93037SOL    HW281009  12.079   0.043   2.193
93038SOL     OW81010  14.667   2.332  10.301
93038SOL    HW181011  14.725   2.372  10.237
93038SOL    HW281012  14.692   2.240  10.302
93039SOL     OW81013  12.581  12.156   9.423
93039SOL    HW181014  12.647  12.164   9.354
93039SOL    HW281015  12.596  12.070   9.461
93040SOL     OW81016  11.255   7.478   5.658
93040SOL    HW181017  11.342   7.465   5.620
93040SOL    HW281018  11.213   7.392   5.653
93041SOL     OW81019  13.860   1.262   5.899
93041SOL    HW181020  13.785   1.310   5.864
93041SOL    HW281021  13.841   1.170   5.880
93042SOL     OW81022   2.495   4.692  11.003
93042SOL    HW181023   2.455   4.778  10.989
93042SOL    HW281024   2.574   4.693  10.949
93043SOL     OW81025  11.970   2.841   6.582
93043SOL    HW181026  11.995   2.802   6.665
93043SOL    HW281027  11.879   2.869   6.594
93044SOL     OW81028  12.085   4.833  11.783
93044SOL    HW181029  12.146   4.836  11.857
93044SOL    HW281030  12.055   4.924  11.774
93045SOL     OW81031  10.729   2.772  11.530
93045SOL    HW181032  10.633   2.776  11.525
93045SOL    HW281033  10.760   2.825  11.457
93046SOL     OW81034  13.873   8.048   6.044
93046SOL    HW181035  13.967   8.048   6.023
93046SOL    HW281036  13.850   7.955   6.047
93047SOL     OW81037  12.049  12.713   6.414
93047SOL    HW181038  12.014  12.785   6.466
93047SOL    HW281039  12.137  12.742   6.389
93048SOL     OW81040   1.711  11.080   9.483
93048SOL    HW181041   1.635  11.021   9.482
93048SOL    HW281042   1.779  11.031   9.436
93049SOL     OW81043   4.365  11.650   1.847
93049SOL    HW181044   4.338  11.720   1.788
93049SOL    HW281045   4.292  11.640   1.907
93050SOL     OW81046   6.825   6.432   9.074
93050SOL    HW181047   6.791   6.436   9.163
93050SOL    HW281048   6.894   6.366   9.078
93051SOL     OW81049  12.231   0.214   7.710
93051SOL    HW181050  12.183   0.254   7.782
93051SOL    HW281051  12.260   0.129   7.744
93052SOL     OW81052   4.995   9.310   2.820
93052SOL    HW181053   4.901   9.319   2.802
93052SOL    HW281054   5.035   9.304   2.733
93053SOL     OW81055   4.492   0.124   1.593
93053SOL    HW181056   4.488   0.156   1.683
93053SOL    HW281057   4.545   0.189   1.547
93054SOL     OW81058   4.862   4.343   1.815
93054SOL    HW181059   4.913   4.302   1.746
93054SOL    HW281060   4.875   4.437   1.802
93055SOL     OW81061  13.919   6.616   7.477
93055SOL    HW181062  13.978   6.569   7.536
93055SOL    HW281063  13.874   6.678   7.533
93056SOL     OW81064  11.643  13.864   7.359
93056SOL    HW181065  11.706  13.824   7.299
93056SOL    HW281066  11.570  13.801   7.363
93057SOL     OW81067   2.733  13.620   4.357
93057SOL    HW181068   2.712  13.550   4.419
93057SOL    HW281069   2.827  13.635   4.370
93058SOL     OW81070  10.325  13.103   1.724
93058SOL    HW181071  10.245  13.067   1.687
93058SOL    HW281072  10.294  13.161   1.794
93059SOL     OW81073   7.703   9.024  13.141
93059SOL    HW181074   7.679   9.092  13.204
93059SOL    HW281075   7.754   9.070  13.075
93060SOL     OW81076   1.552   2.930   4.395
93060SOL    HW181077   1.514   2.913   4.481
93060SOL    HW281078   1.541   3.025   4.382
93061SOL     OW81079   3.407  14.549   4.132
93061SOL    HW181080   3.431  14.474   4.187
93061SOL    HW281081   3.482  14.561   4.074
93062SOL     OW81082   0.364   3.745   7.088
93062SOL    HW181083   0.331   3.683   7.023
93062SOL    HW281084   0.403   3.815   7.036
93063SOL     OW81085   2.915  10.298   8.883
93063SOL    HW181086   2.858  10.279   8.809
93063SOL    HW281087   3.003  10.302   8.845
93064SOL     OW81088   7.643   9.116   1.325
93064SOL    HW181089   7.729   9.095   1.363
93064SOL    HW281090   7.653   9.099   1.232
93065SOL     OW81091   7.443  13.663   6.845
93065SOL    HW181092   7.460  13.651   6.938
93065SOL    HW281093   7.354  13.629   6.832
93066SOL     OW81094  14.663  13.272   5.386
93066SOL    HW181095  14.599  13.201   5.389
93066SOL    HW281096  14.704  13.264   5.300
93067SOL     OW81097   0.664   6.119   9.888
93067SOL    HW181098   0.632   6.137   9.800
93067SOL    HW281099   0.747   6.074   9.875
93068SOL     OW81100  13.997   0.537   5.333
93068SOL    HW181101  13.975   0.484   5.410
93068SOL    HW281102  13.913   0.572   5.303
93069SOL     OW81103   0.263   0.511   7.546
93069SOL    HW181104   0.283   0.417   7.550
93069SOL    HW281105   0.200   0.519   7.475
93070SOL     OW81106   0.447  10.740  10.630
93070SOL    HW181107   0.442  10.792  10.710
93070SOL    HW281108   0.539  10.716  10.622
93071SOL     OW81109   6.726   8.386  10.279
93071SOL    HW181110   6.764   8.459  10.328
93071SOL    HW281111   6.674   8.427  10.211
93072SOL     OW81112   4.612   6.905   7.348
93072SOL    HW181113   4.557   6.980   7.322
93072SOL    HW281114   4.549   6.833   7.361
93073SOL     OW81115   1.434  13.082  10.604
93073SOL    HW181116   1.423  13.158  10.662
93073SOL    HW281117   1.528  13.072  10.596
93074SOL     OW81118  12.160   8.562  12.833
93074SOL    HW181119  12.223   8.631  12.852
93074SOL    HW281120  12.208   8.480  12.848
93075SOL     OW81121   1.737   2.571  11.003
93075SOL    HW181122   1.678   2.556  10.929
93075SOL    HW281123   1.682   2.558  11.080
93076SOL     OW81124  10.634   5.227   5.088
93076SOL    HW181125  10.558   5.203   5.035
93076SOL    HW281126  10.676   5.298   5.040
93077SOL     OW81127   4.746   9.625   6.164
93077SOL    HW181128   4.659   9.604   6.130
93077SOL    HW281129   4.774   9.702   6.113
93078SOL     OW81130  11.241   7.460   0.440
93078SOL    HW181131  11.253   7.476   0.346
93078SOL    HW281132  11.157   7.501   0.461
93079SOL     OW81133   9.388   6.194   5.011
93079SOL    HW181134   9.330   6.218   5.083
93079SOL    HW281135   9.353   6.112   4.977
93080SOL     OW81136  12.063   4.278  13.571
93080SOL    HW181137  12.030   4.333  13.500
93080SOL    HW281138  11.988   4.265  13.629
93081SOL     OW81139   9.831   4.488  11.282
93081SOL    HW181140   9.865   4.439  11.358
93081SOL    HW281141   9.836   4.425  11.210
93082SOL     OW81142   2.312   8.926   2.703
93082SOL    HW181143   2.380   8.889   2.759
93082SOL    HW281144   2.280   8.851   2.652
93083SOL     OW81145   3.042   4.183  14.204
93083SOL    HW181146   3.103   4.116  14.176
93083SOL    HW281147   3.063   4.259  14.150
93084SOL     OW81148   5.461  12.574   9.678
93084SOL    HW181149   5.535  12.634   9.672
93084SOL    HW281150   5.461  12.526   9.595
93085SOL     OW81151  14.059   0.860   6.014
93085SOL    HW181152  14.112   0.936   6.039
93085SOL    HW281153  14.119   0.803   5.966
93086SOL     OW81154   0.539   8.067   4.025
93086SOL    HW181155   0.482   8.061   3.948
93086SOL    HW281156   0.483   8.042   4.098
93087SOL     OW81157   1.200  11.152  10.367
93087SOL    HW181158   1.243  11.068  10.350
93087SOL    HW281159   1.107  11.130  10.373
93088SOL     OW81160   1.107   8.869   7.973
93088SOL    HW181161   1.014   8.892   7.967
93088SOL    HW281162   1.149   8.946   8.011
93089SOL     OW81163   4.852  14.125  14.218
93089SOL    HW181164   4.775  14.182  14.215
93089SOL    HW281165   4.829  14.058  14.283
93090SOL     OW81166   8.005   5.121   3.643
93090SOL    HW181167   8.014   5.146   3.735
93090SOL    HW281168   7.916   5.087   3.636
93091SOL     OW81169   2.392  10.409   9.466
93091SOL    HW181170   2.448  10.339   9.432
93091SOL    HW281171   2.362  10.456   9.388
93092SOL     OW81172   7.183  12.143   6.088
93092SOL    HW181173   7.097  12.154   6.130
93092SOL    HW281174   7.246  12.151   6.160
93093SOL     OW81175   0.188   7.683  12.100
93093SOL    HW181176   0.125   7.613  12.118
93093SOL    HW281177   0.273   7.639  12.102
93094SOL     OW81178  13.679   1.849  12.297
93094SOL    HW181179  13.673   1.944  12.295
93094SOL    HW281180  13.713   1.825  12.211
93095SOL     OW81181  12.504   2.881   6.829
93095SOL    HW181182  12.586   2.920   6.801
93095SOL    HW281183  12.470   2.837   6.751
93096SOL     OW81184   8.822  11.171   7.310
93096SOL    HW181185   8.833  11.121   7.229
93096SOL    HW281186   8.756  11.237   7.288
93097SOL     OW81187   3.822   2.037   4.825
93097SOL    HW181188   3.848   2.124   4.795
93097SOL    HW281189   3.737   2.022   4.784
93098SOL     OW81190   6.622   9.261   8.347
93098SOL    HW181191   6.687   9.326   8.323
93098SOL    HW281192   6.642   9.185   8.291
93099SOL     OW81193   1.891   0.461  14.217
93099SOL    HW181194   1.887   0.449  14.311
93099SOL    HW281195   1.823   0.404  14.182
93100SOL     OW81196  10.997  11.655   9.159
93100SOL    HW181197  10.990  11.565   9.128
93100SOL    HW281198  10.920  11.700   9.124
93101SOL     OW81199   3.731  10.386  11.165
93101SOL    HW181200   3.714  10.355  11.254
93101SOL    HW281201   3.644  10.389  11.124
93102SOL     OW81202   2.876  13.693   6.302
93102SOL    HW181203   2.922  13.611   6.322
93102SOL    HW281204   2.811  13.702   6.371
93103SOL     OW81205  10.637  12.174   8.269
93103SOL    HW181206  10.717  12.217   8.240
93103SOL    HW281207  10.566  12.229   8.236
93104SOL     OW81208   7.745   8.138   8.536
93104SOL    HW181209   7.674   8.075   8.547
93104SOL    HW281210   7.780   8.121   8.448
93105SOL     OW81211   7.467   3.913  13.476
93105SOL    HW181212   7.522   3.967  13.533
93105SOL    HW281213   7.489   3.823  13.500
93106SOL     OW81214  10.165   8.696   1.049
93106SOL    HW181215  10.102   8.766   1.066
93106SOL    HW281216  10.112   8.616   1.049
93107SOL     OW81217  13.510   9.059  10.888
93107SOL    HW181218  13.515   9.153  10.906
93107SOL    HW281219  13.601   9.030  10.887
93108SOL     OW81220   9.187   7.531   0.766
93108SOL    HW181221   9.222   7.509   0.680
93108SOL    HW281222   9.096   7.501   0.763
93109SOL     OW81223   6.423  13.914   9.869
93109SOL    HW181224   6.412  13.865   9.950
93109SOL    HW281225   6.365  13.870   9.806
93110SOL     OW81226   3.413  13.429  12.580
93110SOL    HW181227   3.429  13.337  12.603
93110SOL    HW281228   3.427  13.432  12.485
93111SOL     OW81229  12.009   8.686   5.956
93111SOL    HW181230  11.941   8.753   5.964
93111SOL    HW281231  12.065   8.716   5.884
93112SOL     OW81232   5.592  13.426   3.722
93112SOL    HW181233   5.652  13.410   3.650
93112SOL    HW281234   5.572  13.519   3.717
93113SOL     OW81235  12.607  12.716   6.396
93113SOL    HW181236  12.667  12.788   6.381
93113SOL    HW281237  12.654  12.657   6.455
93114SOL     OW81238   5.698   4.932  10.529
93114SOL    HW181239   5.661   4.969  10.609
93114SOL    HW281240   5.638   4.961  10.460
93115SOL     OW81241   8.662   0.023   6.169
93115SOL    HW181242   8.597   0.018   6.099
93115SOL    HW281243   8.641   0.103   6.217
93116SOL     OW81244  12.995   5.436   1.004
93116SOL    HW181245  12.987   5.348   1.041
93116SOL    HW281246  12.905   5.464   0.989
93117SOL     OW81247   5.493   7.098   7.644
93117SOL    HW181248   5.532   7.035   7.704
93117SOL    HW281249   5.536   7.181   7.665
93118SOL     OW81250   1.437  12.090   2.841
93118SOL    HW181251   1.357  12.128   2.804
93118SOL    HW281252   1.429  12.106   2.935
93119SOL     OW81253   9.711   1.460   0.939
93119SOL    HW181254   9.742   1.493   1.023
93119SOL    HW281255   9.775   1.493   0.876
93120SOL     OW81256   7.057   4.506   8.979
93120SOL    HW181257   7.082   4.564   9.051
93120SOL    HW281258   7.005   4.562   8.921
93121SOL     OW81259   5.307   1.072  12.977
93121SOL    HW181260   5.359   1.120  12.912
93121SOL    HW281261   5.223   1.118  12.980
93122SOL     OW81262   6.611  14.413   4.226
93122SOL    HW181263   6.668  14.448   4.157
93122SOL    HW281264   6.559  14.489   4.255
93123SOL     OW81265   7.395   7.643   0.639
93123SOL    HW181266   7.371   7.730   0.670
93123SOL    HW281267   7.462   7.659   0.573
93124SOL     OW81268   8.959   6.077   9.205
93124SOL    HW181269   8.975   6.152   9.262
93124SOL    HW281270   9.034   6.020   9.220
93125SOL     OW81271  13.492   6.718   5.257
93125SOL    HW181272  13.527   6.780   5.193
93125SOL    HW281273  13.494   6.766   5.340
93126SOL     OW81274   9.720   9.704  13.297
93126SOL    HW181275   9.729   9.704  13.393
93126SOL    HW281276   9.797   9.658  13.266
93127SOL     OW81277  10.084   4.814   8.208
93127SOL    HW181278  10.012   4.777   8.158
93127SOL    HW281279  10.159   4.810   8.148
93128SOL     OW81280   1.585   8.308   8.942
93128SOL    HW181281   1.666   8.258   8.930
93128SOL    HW281282   1.560   8.292   9.033
93129SOL     OW81283  13.660  10.148  11.696
93129SOL    HW181284  13.683  10.095  11.620
93129SOL    HW281285  13.569  10.174  11.680
93130SOL     OW81286  10.025   4.317  12.577
93130SOL    HW181287   9.977   4.333  12.496
93130SOL    HW281288   9.978   4.368  12.643
93131SOL     OW81289   5.077   8.949  11.435
93131SOL    HW181290   5.034   8.962  11.351
93131SOL    HW281291   5.076   9.036  11.476
93132SOL     OW81292   1.727   7.048   1.148
93132SOL    HW181293   1.674   7.126   1.162
93132SOL    HW281294   1.687   6.982   1.204
93133SOL     OW81295   2.851   3.868   7.210
93133SOL    HW181296   2.893   3.898   7.130
93133SOL    HW281297   2.757   3.881   7.194
93134SOL     OW81298  10.001  12.778   2.826
93134SOL    HW181299  10.053  12.838   2.772
93134SOL    HW281300  10.066  12.727   2.874
93135SOL     OW81301   4.941  12.953   6.337
93135SOL    HW181302   4.938  13.048   6.353
93135SOL    HW281303   4.915  12.914   6.421
93136SOL     OW81304  12.798   9.819  13.556
93136SOL    HW181305  12.826   9.769  13.632
93136SOL    HW281306  12.714   9.858  13.583
93137SOL     OW81307  14.631   2.031   6.165
93137SOL    HW181308  14.598   2.106   6.115
93137SOL    HW281309  14.554   1.996   6.209
93138SOL     OW81310  10.102  11.597   5.068
93138SOL    HW181311  10.185  11.620   5.027
93138SOL    HW281312  10.125  11.533   5.135
93139SOL     OW81313  14.729  10.876  11.636
93139SOL    HW181314  14.709  10.822  11.713
93139SOL    HW281315  14.772  10.953  11.672
93140SOL     OW81316  14.034  11.168  12.522
93140SOL    HW181317  14.098  11.109  12.481
93140SOL    HW281318  13.983  11.111  12.579
93141SOL     OW81319   5.459   5.418   6.300
93141SOL    HW181320   5.515   5.369   6.240
93141SOL    HW281321   5.395   5.354   6.331
93142SOL     OW81322   0.295   1.383   6.540
93142SOL    HW181323   0.343   1.328   6.602
93142SOL    HW281324   0.254   1.320   6.480
93143SOL     OW81325   1.455  11.547  10.976
93143SOL    HW181326   1.478  11.606  10.904
93143SOL    HW281327   1.373  11.507  10.949
93144SOL     OW81328   7.611   2.121  14.258
93144SOL    HW181329   7.687   2.091  14.308
93144SOL    HW281330   7.536   2.089  14.307
93145SOL     OW81331   7.822   0.449   4.683
93145SOL    HW181332   7.804   0.355   4.683
93145SOL    HW281333   7.917   0.455   4.674
93146SOL     OW81334   1.531   8.348  10.359
93146SOL    HW181335   1.531   8.264  10.313
93146SOL    HW281336   1.494   8.328  10.446
93147SOL     OW81337  13.354   3.145   5.214
93147SOL    HW181338  13.342   3.206   5.142
93147SOL    HW281339  13.295   3.072   5.194
93148SOL     OW81340   6.567   3.356  11.305
93148SOL    HW181341   6.574   3.279  11.248
93148SOL    HW281342   6.654   3.393  11.306
93149SOL     OW81343  10.625  12.351   8.637
93149SOL    HW181344  10.589  12.276   8.589
93149SOL    HW281345  10.549  12.407   8.655
93150SOL     OW81346   4.199  12.127   8.746
93150SOL    HW181347   4.127  12.188   8.763
93150SOL    HW281348   4.178  12.088   8.661
93151SOL     OW81349   3.586   4.520   4.507
93151SOL    HW181350   3.595   4.490   4.416
93151SOL    HW281351   3.652   4.589   4.516
93152SOL     OW81352   6.067   3.292   0.183
93152SOL    HW181353   6.104   3.205   0.196
93152SOL    HW281354   5.977   3.276   0.157
93153SOL     OW81355  14.238   4.431   9.265
93153SOL    HW181356  14.209   4.484   9.339
93153SOL    HW281357  14.241   4.342   9.299
93154SOL     OW81358   5.683  13.454   1.564
93154SOL    HW181359   5.591  13.442   1.585
93154SOL    HW281360   5.730  13.408   1.634
93155SOL     OW81361   5.002   6.640   2.340
93155SOL    HW181362   4.929   6.677   2.291
93155SOL    HW281363   4.997   6.546   2.323
93156SOL     OW81364  12.044   2.314   0.766
93156SOL    HW181365  11.979   2.384   0.772
93156SOL    HW281366  12.000   2.238   0.804
93157SOL     OW81367   3.005   3.071   8.538
93157SOL    HW181368   3.081   3.106   8.493
93157SOL    HW281369   3.035   3.054   8.627
93158SOL     OW81370  13.851   7.341  14.398
93158SOL    HW181371  13.848   7.323  14.492
93158SOL    HW281372  13.794   7.275  14.359
93159SOL     OW81373  10.705   0.931   5.030
93159SOL    HW181374  10.720   0.992   4.958
93159SOL    HW281375  10.618   0.955   5.063
93160SOL     OW81376   2.314  13.230   4.021
93160SOL    HW181377   2.365  13.220   3.940
93160SOL    HW281378   2.268  13.313   4.010
93161SOL     OW81379  12.998  10.927   2.345
93161SOL    HW181380  13.009  10.921   2.440
93161SOL    HW281381  12.980  11.019   2.329
93162SOL     OW81382   6.482   7.013  14.868
93162SOL    HW181383   6.534   6.954  14.814
93162SOL    HW281384   6.482   7.096  14.821
93163SOL     OW81385  11.080  10.540   9.093
93163SOL    HW181386  11.051  10.624   9.057
93163SOL    HW281387  11.062  10.477   9.024
93164SOL     OW81388   6.489  11.311  11.736
93164SOL    HW181389   6.468  11.365  11.660
93164SOL    HW281390   6.405  11.297  11.780
93165SOL     OW81391   8.248  14.592   0.033
93165SOL    HW181392   8.212  14.546   0.108
93165SOL    HW281393   8.330  14.629   0.065
93166SOL     OW81394   0.431   4.886   6.795
93166SOL    HW181395   0.520   4.914   6.815
93166SOL    HW281396   0.432   4.791   6.806
93167SOL     OW81397   0.928   3.508   4.584
93167SOL    HW181398   0.966   3.596   4.581
93167SOL    HW281399   0.928   3.480   4.492
93168SOL     OW81400   3.054   8.182   1.945
93168SOL    HW181401   3.077   8.256   1.889
93168SOL    HW281402   3.068   8.105   1.890
93169SOL     OW81403  13.326  13.301   3.021
93169SOL    HW181404  13.327  13.265   3.110
93169SOL    HW281405  13.236  13.331   3.008
93170SOL     OW81406   8.828   8.818   2.517
93170SOL    HW181407   8.815   8.904   2.476
93170SOL    HW281408   8.915   8.791   2.489
93171SOL     OW81409  12.470  10.683  14.397
93171SOL    HW181410  12.413  10.662  14.471
93171SOL    HW281411  12.411  10.716  14.330
93172SOL     OW81412   6.573   2.607  14.250
93172SOL    HW181413   6.627   2.529  14.238
93172SOL    HW281414   6.613   2.673  14.194
93173SOL     OW81415   5.985   9.692   5.197
93173SOL    HW181416   6.044   9.667   5.125
93173SOL    HW281417   5.900   9.656   5.171
93174SOL     OW81418  14.179   6.395   5.203
93174SOL    HW181419  14.198   6.487   5.221
93174SOL    HW281420  14.102   6.376   5.258
93175SOL     OW81421   9.689   1.457  10.518
93175SOL    HW181422   9.717   1.448  10.427
93175SOL    HW281423   9.616   1.396  10.526
93176SOL     OW81424  14.826  12.348   0.817
93176SOL    HW181425  14.799  12.398   0.894
93176SOL    HW281426   0.039  12.385   0.794
93177SOL     OW81427   3.602  13.063   7.998
93177SOL    HW181428   3.593  13.036   8.089
93177SOL    HW281429   3.671  13.008   7.963
93178SOL     OW81430   6.908   7.129  13.852
93178SOL    HW181431   6.824   7.170  13.828
93178SOL    HW281432   6.892   7.091  13.938
93179SOL     OW81433   9.681   4.153  12.521
93179SOL    HW181434   9.702   4.062  12.499
93179SOL    HW281435   9.699   4.160  12.614
93180SOL     OW81436   5.350   1.399   0.274
93180SOL    HW181437   5.283   1.345   0.316
93180SOL    HW281438   5.433   1.369   0.312
93181SOL     OW81439   0.392  11.381   9.860
93181SOL    HW181440   0.326  11.450   9.851
93181SOL    HW281441   0.454  11.398   9.788
93182SOL     OW81442   6.681   9.442  13.716
93182SOL    HW181443   6.670   9.534  13.692
93182SOL    HW281444   6.603   9.398  13.682
93183SOL     OW81445   1.975   2.504   4.662
93183SOL    HW181446   2.021   2.586   4.645
93183SOL    HW281447   2.008   2.444   4.595
93184SOL     OW81448   3.675  14.858   3.794
93184SOL    HW181449   3.746   0.048   3.813
93184SOL    HW281450   3.615   0.034   3.739
93185SOL     OW81451   6.136   3.152   5.980
93185SOL    HW181452   6.049   3.129   6.014
93185SOL    HW281453   6.196   3.102   6.035
93186SOL     OW81454   4.939   7.372  11.832
93186SOL    HW181455   4.962   7.431  11.904
93186SOL    HW281456   4.850   7.397  11.809
93187SOL     OW81457   3.827   0.510  10.187
93187SOL    HW181458   3.812   0.566  10.263
93187SOL    HW281459   3.915   0.535  10.156
93188SOL     OW81460  14.042   5.528  14.439
93188SOL    HW181461  14.067   5.611  14.481
93188SOL    HW281462  14.080   5.533  14.351
93189SOL     OW81463   8.271   6.178   4.164
93189SOL    HW181464   8.361   6.173   4.131
93189SOL    HW281465   8.241   6.088   4.166
93190SOL     OW81466  10.356   4.694   8.464
93190SOL    HW181467  10.443   4.719   8.433
93190SOL    HW281468  10.299   4.767   8.439
93191SOL     OW81469  11.026  10.604  10.377
93191SOL    HW181470  10.973  10.593  10.456
93191SOL    HW281471  10.988  10.542  10.314
93192SOL     OW81472   2.982  11.964   2.763
93192SOL    HW181473   2.902  11.949   2.712
93192SOL    HW281474   2.953  11.962   2.854
93193SOL     OW81475  13.598   1.586  12.942
93193SOL    HW181476  13.668   1.652  12.939
93193SOL    HW281477  13.642   1.504  12.917
93194SOL     OW81478  12.018   0.747  12.317
93194SOL    HW181479  12.087   0.803  12.282
93194SOL    HW281480  12.058   0.660  12.321
93195SOL     OW81481   0.358   3.364   1.303
93195SOL    HW181482   0.358   3.269   1.296
93195SOL    HW281483   0.343   3.381   1.396
93196SOL     OW81484   3.672   3.480   9.019
93196SOL    HW181485   3.757   3.485   8.976
93196SOL    HW281486   3.661   3.564   9.063
93197SOL     OW81487  14.079  13.020  11.220
93197SOL    HW181488  14.076  13.015  11.316
93197SOL    HW281489  14.022  13.093  11.198
93198SOL     OW81490   6.826   1.341   8.780
93198SOL    HW181491   6.821   1.377   8.691
93198SOL    HW281492   6.788   1.409   8.836
93199SOL     OW81493   7.436   6.417   8.568
93199SOL    HW181494   7.459   6.496   8.616
93199SOL    HW281495   7.372   6.446   8.503
93200SOL     OW81496  13.759   0.446   4.664
93200SOL    HW181497  13.775   0.369   4.719
93200SOL    HW281498  13.738   0.411   4.578
93201SOL     OW81499   6.080   0.722   0.829
93201SOL    HW181500   6.083   0.816   0.812
93201SOL    HW281501   6.156   0.706   0.886
93202SOL     OW81502   3.210   2.255   6.569
93202SOL    HW181503   3.189   2.332   6.621
93202SOL    HW281504   3.279   2.285   6.509
93203SOL     OW81505  12.206   0.995  13.149
93203SOL    HW181506  12.210   1.059  13.220
93203SOL    HW281507  12.298   0.972  13.133
93204SOL     OW81508   1.659   0.595   2.924
93204SOL    HW181509   1.618   0.609   2.839
93204SOL    HW281510   1.587   0.588   2.985
93205SOL     OW81511   7.755  10.788   2.236
93205SOL    HW181512   7.838  10.790   2.283
93205SOL    HW281513   7.765  10.719   2.171
93206SOL     OW81514  12.480   4.714  14.607
93206SOL    HW181515  12.397   4.670  14.621
93206SOL    HW281516  12.496   4.761  14.689
93207SOL     OW81517  14.717   8.822  11.493
93207SOL    HW181518  14.781   8.771  11.445
93207SOL    HW281519  14.761   8.905  11.511
93208SOL     OW81520  11.591  10.217  11.466
93208SOL    HW181521  11.548  10.197  11.549
93208SOL    HW281522  11.679  10.181  11.476
93209SOL     OW81523   5.170  11.964   8.877
93209SOL    HW181524   5.138  11.996   8.793
93209SOL    HW281525   5.171  11.869   8.868
93210SOL     OW81526   2.790   7.697   7.363
93210SOL    HW181527   2.719   7.761   7.361
93210SOL    HW281528   2.776   7.648   7.444
93211SOL     OW81529  13.789   7.013   6.797
93211SOL    HW181530  13.854   6.945   6.810
93211SOL    HW281531  13.837   7.095   6.805
93212SOL     OW81532  12.005   3.240   3.603
93212SOL    HW181533  11.958   3.297   3.541
93212SOL    HW281534  11.941   3.174   3.628
93213SOL     OW81535   6.347   4.665   8.846
93213SOL    HW181536   6.358   4.628   8.758
93213SOL    HW281537   6.252   4.662   8.861
93214SOL     OW81538   8.845   5.760   6.310
93214SOL    HW181539   8.818   5.680   6.356
93214SOL    HW281540   8.847   5.734   6.217
93215SOL     OW81541   6.866  11.205  12.511
93215SOL    HW181542   6.960  11.195  12.524
93215SOL    HW281543   6.830  11.206  12.600
93216SOL     OW81544   8.846   0.407  14.416
93216SOL    HW181545   8.776   0.471  14.429
93216SOL    HW281546   8.848   0.357  14.498
93217SOL     OW81547  10.234   3.122   8.150
93217SOL    HW181548  10.262   3.208   8.181
93217SOL    HW281549  10.158   3.141   8.094
93218SOL     OW81550   5.167  10.711   7.125
93218SOL    HW181551   5.224  10.638   7.102
93218SOL    HW281552   5.113  10.679   7.197
93219SOL     OW81553   0.308   7.318  12.760
93219SOL    HW181554   0.256   7.361  12.692
93219SOL    HW281555   0.277   7.228  12.761
93220SOL     OW81556   3.063   0.720  13.329
93220SOL    HW181557   2.971   0.716  13.302
93220SOL    HW281558   3.068   0.796  13.386
93221SOL     OW81559   5.204  13.823   1.703
93221SOL    HW181560   5.208  13.841   1.609
93221SOL    HW281561   5.284  13.774   1.721
93222SOL     OW81562   3.640   4.887   3.382
93222SOL    HW181563   3.546   4.872   3.373
93222SOL    HW281564   3.647   4.973   3.424
93223SOL     OW81565  11.098   0.374  13.104
93223SOL    HW181566  11.120   0.379  13.011
93223SOL    HW281567  11.182   0.362  13.148
93224SOL     OW81568   8.462   9.758   9.667
93224SOL    HW181569   8.552   9.726   9.674
93224SOL    HW281570   8.436   9.774   9.758
93225SOL     OW81571  13.351   2.253  10.017
93225SOL    HW181572  13.329   2.170  10.060
93225SOL    HW281573  13.406   2.299  10.080
93226SOL     OW81574   8.023  11.960  14.070
93226SOL    HW181575   8.016  11.945  14.165
93226SOL    HW281576   8.095  11.904  14.042
93227SOL     OW81577  14.816   0.017   5.769
93227SOL    HW181578  14.792  14.815   5.824
93227SOL    HW281579  14.817  14.853   5.680
93228SOL     OW81580   0.653  10.363  14.281
93228SOL    HW181581   0.639  10.278  14.323
93228SOL    HW281582   0.748  10.374  14.280
93229SOL     OW81583   0.881  13.317  13.333
93229SOL    HW181584   0.968  13.281  13.312
93229SOL    HW281585   0.899  13.397  13.382
93230SOL     OW81586  10.460   4.477   0.141
93230SOL    HW181587  10.394   4.434   0.196
93230SOL    HW281588  10.527   4.506   0.203
93231SOL     OW81589   0.499   0.177   4.019
93231SOL    HW181590   0.420   0.230   4.031
93231SOL    HW281591   0.496   0.114   4.092
93232SOL     OW81592   3.623  12.216   6.210
93232SOL    HW181593   3.618  12.309   6.188
93232SOL    HW281594   3.534  12.193   6.239
93233SOL     OW81595   0.237   3.545  12.307
93233SOL    HW181596   0.143   3.561  12.303
93233SOL    HW281597   0.255   3.532  12.400
93234SOL     OW81598   1.598  11.502  10.093
93234SOL    HW181599   1.528  11.534  10.150
93234SOL    HW281600   1.642  11.435  10.145
93235SOL     OW81601   3.303   0.407   8.198
93235SOL    HW181602   3.355   0.326   8.202
93235SOL    HW281603   3.213   0.377   8.189
93236SOL     OW81604  10.341   1.272   9.320
93236SOL    HW181605  10.421   1.320   9.299
93236SOL    HW281606  10.293   1.269   9.237
93237SOL     OW81607  10.976   8.010   5.394
93237SOL    HW181608  11.022   8.090   5.372
93237SOL    HW281609  11.036   7.961   5.450
93238SOL     OW81610  13.762  14.569  14.612
93238SOL    HW181611  13.758  14.657  14.648
93238SOL    HW281612  13.853  14.559  14.584
93239SOL     OW81613   5.322   5.972   2.630
93239SOL    HW181614   5.346   5.906   2.696
93239SOL    HW281615   5.294   5.921   2.554
93240SOL     OW81616   2.732  10.320   1.944
93240SOL    HW181617   2.739  10.248   1.882
93240SOL    HW281618   2.758  10.282   2.028
93241SOL     OW81619  12.651   2.690   3.046
93241SOL    HW181620  12.721   2.738   3.088
93241SOL    HW281621  12.630   2.740   2.967
93242SOL     OW81622   9.846   1.591   9.801
93242SOL    HW181623   9.915   1.594   9.735
93242SOL    HW281624   9.832   1.682   9.826
93243SOL     OW81625   5.586   0.437   4.942
93243SOL    HW181626   5.562   0.345   4.933
93243SOL    HW281627   5.654   0.450   4.876
93244SOL     OW81628   6.167   2.489   0.467
93244SOL    HW181629   6.256   2.506   0.495
93244SOL    HW281630   6.133   2.575   0.441
93245SOL     OW81631   5.229   4.428  12.178
93245SOL    HW181632   5.306   4.370  12.177
93245SOL    HW281633   5.208   4.438  12.270
93246SOL     OW81634   1.297   8.956   1.614
93246SOL    HW181635   1.303   9.033   1.671
93246SOL    HW281636   1.333   8.884   1.666
93247SOL     OW81637   2.487  11.014   8.428
93247SOL    HW181638   2.424  10.948   8.399
93247SOL    HW281639   2.542  11.030   8.351
93248SOL     OW81640   3.558   9.618   4.219
93248SOL    HW181641   3.470   9.620   4.257
93248SOL    HW281642   3.570   9.705   4.181
93249SOL     OW81643   8.932   5.466  14.357
93249SOL    HW181644   8.953   5.376  14.331
93249SOL    HW281645   8.912   5.460  14.450
93250SOL     OW81646  14.320   5.278  12.027
93250SOL    HW181647  14.258   5.347  12.003
93250SOL    HW281648  14.361   5.253  11.944
93251SOL     OW81649   8.625  13.904   2.116
93251SOL    HW181650   8.689  13.833   2.108
93251SOL    HW281651   8.551  13.876   2.062
93252SOL     OW81652  10.763   0.303   2.092
93252SOL    HW181653  10.829   0.276   2.028
93252SOL    HW281654  10.762   0.398   2.086
93253SOL     OW81655   1.331   5.561   2.290
93253SOL    HW181656   1.281   5.485   2.260
93253SOL    HW281657   1.314   5.565   2.384
93254SOL     OW81658   6.631   4.164   2.002
93254SOL    HW181659   6.589   4.120   2.076
93254SOL    HW281660   6.622   4.102   1.929
93255SOL     OW81661   1.082  10.154   1.951
93255SOL    HW181662   1.113  10.237   1.915
93255SOL    HW281663   1.114  10.088   1.890
93256SOL     OW81664  14.309  13.256   5.367
93256SOL    HW181665  14.352  13.341   5.366
93256SOL    HW281666  14.259  13.255   5.448
93257SOL     OW81667   2.465   0.872  10.669
93257SOL    HW181668   2.378   0.831  10.674
93257SOL    HW281669   2.460   0.946  10.730
93258SOL     OW81670  11.047   8.240  13.758
93258SOL    HW181671  11.114   8.296  13.719
93258SOL    HW281672  11.062   8.246  13.853
93259SOL     OW81673   9.567   7.223  12.918
93259SOL    HW181674   9.486   7.266  12.943
93259SOL    HW281675   9.545   7.171  12.842
93260SOL     OW81676  14.814   1.955   5.641
93260SOL    HW181677  14.833   2.026   5.580
93260SOL    HW281678   0.007   1.888   5.622
93261SOL     OW81679  14.364   8.669   7.492
93261SOL    HW181680  14.378   8.654   7.586
93261SOL    HW281681  14.422   8.606   7.450
93262SOL     OW81682   7.139  12.636   9.052
93262SOL    HW181683   7.212  12.587   9.013
93262SOL    HW281684   7.181  12.705   9.103
93263SOL     OW81685   7.454   8.554  12.563
93263SOL    HW181686   7.427   8.490  12.629
93263SOL    HW281687   7.437   8.639  12.604
93264SOL     OW81688   8.192  10.452   8.162
93264SOL    HW181689   8.173  10.445   8.256
93264SOL    HW281690   8.236  10.369   8.141
93265SOL     OW81691   1.821  12.404  14.394
93265SOL    HW181692   1.877  12.443  14.326
93265SOL    HW281693   1.732  12.418  14.362
93266SOL     OW81694   1.101   7.605   7.836
93266SOL    HW181695   1.132   7.525   7.878
93266SOL    HW281696   1.172   7.628   7.775
93267SOL     OW81697   2.139   7.334   0.467
93267SOL    HW181698   2.062   7.306   0.517
93267SOL    HW281699   2.125   7.427   0.451
93268SOL     OW81700  13.058   4.330   0.797
93268SOL    HW181701  13.147   4.296   0.789
93268SOL    HW281702  13.033   4.311   0.887
93269SOL     OW81703   1.237   4.008   5.312
93269SOL    HW181704   1.200   3.954   5.382
93269SOL    HW281705   1.265   3.945   5.246
93270SOL     OW81706  14.232   4.099   6.549
93270SOL    HW181707  14.202   4.190   6.541
93270SOL    HW281708  14.300   4.102   6.616
93271SOL     OW81709  13.232   7.669  13.896
93271SOL    HW181710  13.171   7.735  13.930
93271SOL    HW281711  13.189   7.635  13.818
93272SOL     OW81712   0.248  13.317   1.821
93272SOL    HW181713   0.233  13.293   1.729
93272SOL    HW281714   0.164  13.301   1.864
93273SOL     OW81715  12.271   5.468   3.948
93273SOL    HW181716  12.248   5.475   3.856
93273SOL    HW281717  12.202   5.412   3.985
93274SOL     OW81718  13.739   3.837   9.951
93274SOL    HW181719  13.825   3.811   9.916
93274SOL    HW281720  13.684   3.849   9.873
93275SOL     OW81721  12.081   9.337  12.241
93275SOL    HW181722  12.080   9.429  12.215
93275SOL    HW281723  12.135   9.294  12.174
93276SOL     OW81724   6.337   1.110   8.652
93276SOL    HW181725   6.263   1.141   8.600
93276SOL    HW281726   6.350   1.178   8.718
93277SOL     OW81727   6.999  12.240   0.281
93277SOL    HW181728   7.078  12.285   0.311
93277SOL    HW281729   6.952  12.219   0.361
93278SOL     OW81730  11.079  12.263   7.759
93278SOL    HW181731  11.152  12.292   7.704
93278SOL    HW281732  11.035  12.344   7.786
93279SOL     OW81733   7.699  14.380   6.816
93279SOL    HW181734   7.616  14.332   6.813
93279SOL    HW281735   7.711  14.401   6.909
93280SOL     OW81736  10.519   3.560  11.861
93280SOL    HW181737  10.539   3.650  11.833
93280SOL    HW281738  10.424   3.552  11.849
93281SOL     OW81739   2.404   7.104   2.117
93281SOL    HW181740   2.496   7.093   2.142
93281SOL    HW281741   2.399   7.190   2.077
93282SOL     OW81742  13.439   9.270  12.497
93282SOL    HW181743  13.446   9.356  12.539
93282SOL    HW281744  13.381   9.284  12.422
93283SOL     OW81745  10.843   0.221  14.087
93283SOL    HW181746  10.846   0.259  14.174
93283SOL    HW281747  10.764   0.259  14.047
93284SOL     OW81748   9.731  11.328  14.093
93284SOL    HW181749   9.696  11.251  14.137
93284SOL    HW281750   9.705  11.402  14.148
93285SOL     OW81751   0.959   8.226   7.179
93285SOL    HW181752   1.042   8.273   7.173
93285SOL    HW281753   0.968   8.154   7.115
93286SOL     OW81754   4.989  11.526  12.258
93286SOL    HW181755   5.069  11.536  12.309
93286SOL    HW281756   4.936  11.465  12.309
93287SOL     OW81757   2.238   5.835   4.115
93287SOL    HW181758   2.211   5.917   4.074
93287SOL    HW281759   2.162   5.777   4.105
93288SOL     OW81760   8.062   3.844   8.703
93288SOL    HW181761   8.072   3.927   8.658
93288SOL    HW281762   8.079   3.778   8.636
93289SOL     OW81763  13.442   4.909  13.687
93289SOL    HW181764  13.426   4.992  13.732
93289SOL    HW281765  13.523   4.875  13.726
93290SOL     OW81766   5.673  12.012   4.298
93290SOL    HW181767   5.700  11.939   4.354
93290SOL    HW281768   5.622  11.971   4.228
93291SOL     OW81769  10.236   3.545  10.572
93291SOL    HW181770  10.315   3.595  10.551
93291SOL    HW281771  10.247   3.522  10.665
93292SOL     OW81772   9.747   0.073   7.148
93292SOL    HW181773   9.741   0.022   7.229
93292SOL    HW281774   9.675   0.136   7.154
93293SOL     OW81775  10.318  12.496   4.661
93293SOL    HW181776  10.368  12.572   4.692
93293SOL    HW281777  10.382  12.440   4.618
93294SOL     OW81778  10.639   7.753   5.523
93294SOL    HW181779  10.575   7.743   5.453
93294SOL    HW281780  10.630   7.843   5.552
93295SOL     OW81781   6.600   0.542   4.964
93295SOL    HW181782   6.573   0.566   5.052
93295SOL    HW281783   6.553   0.461   4.945
93296SOL     OW81784   9.152   4.742  10.753
93296SOL    HW181785   9.239   4.781  10.765
93296SOL    HW281786   9.160   4.654  10.790
93297SOL     OW81787  12.510   4.682   4.818
93297SOL    HW181788  12.460   4.607   4.784
93297SOL    HW281789  12.600   4.651   4.822
93298SOL     OW81790   4.013   1.118   5.362
93298SOL    HW181791   3.987   1.205   5.333
93298SOL    HW281792   4.050   1.077   5.283
93299SOL     OW81793  12.165   5.388  13.078
93299SOL    HW181794  12.184   5.482  13.086
93299SOL    HW281795  12.237   5.345  13.123
93300SOL     OW81796   6.250   4.948  12.642
93300SOL    HW181797   6.223   5.026  12.691
93300SOL    HW281798   6.171   4.920  12.596
93301SOL     OW81799  14.189   9.298   2.941
93301SOL    HW181800  14.128   9.252   2.884
93301SOL    HW281801  14.162   9.276   3.030
93302SOL     OW81802   4.627   0.477   6.725
93302SOL    HW181803   4.674   0.468   6.642
93302SOL    HW281804   4.595   0.389   6.744
93303SOL     OW81805   0.841   4.758   4.730
93303SOL    HW181806   0.841   4.698   4.805
93303SOL    HW281807   0.894   4.714   4.664
93304SOL     OW81808   9.140   0.476   3.045
93304SOL    HW181809   9.089   0.546   3.003
93304SOL    HW281810   9.074   0.413   3.075
93305SOL     OW81811  12.824   7.766   7.676
93305SOL    HW181812  12.809   7.855   7.646
93305SOL    HW281813  12.832   7.714   7.595
93306SOL     OW81814   0.682  12.028   5.353
93306SOL    HW181815   0.652  11.959   5.293
93306SOL    HW281816   0.605  12.051   5.405
93307SOL     OW81817  13.340   5.356   9.349
93307SOL    HW181818  13.422   5.401   9.372
93307SOL    HW281819  13.286   5.424   9.308
93308SOL     OW81820   2.805   5.597  14.679
93308SOL    HW181821   2.768   5.676  14.638
93308SOL    HW281822   2.754   5.525  14.642
93309SOL     OW81823   7.263  13.986   9.727
93309SOL    HW181824   7.307  13.932   9.793
93309SOL    HW281825   7.177  13.947   9.717
93310SOL     OW81826  12.753   4.151  12.970
93310SOL    HW181827  12.841   4.140  12.933
93310SOL    HW281828  12.698   4.093  12.918
93311SOL     OW81829   4.051   7.971   0.447
93311SOL    HW181830   4.125   8.011   0.491
93311SOL    HW281831   3.983   8.039   0.447
93312SOL     OW81832   3.544   7.014  12.839
93312SOL    HW181833   3.614   6.997  12.776
93312SOL    HW281834   3.510   6.927  12.861
93313SOL     OW81835   0.583  10.762  12.215
93313SOL    HW181836   0.564  10.695  12.281
93313SOL    HW281837   0.497  10.783  12.178
93314SOL     OW81838   7.953   4.484   5.451
93314SOL    HW181839   7.931   4.472   5.544
93314SOL    HW281840   7.895   4.423   5.405
93315SOL     OW81841   2.067   0.064   4.134
93315SOL    HW181842   2.103   0.012   4.063
93315SOL    HW281843   2.141   0.112   4.169
93316SOL     OW81844  12.545  14.798   0.185
93316SOL    HW181845  12.455  14.809   0.155
93316SOL    HW281846  12.598  14.818   0.108
93317SOL     OW81847  12.037   1.750  12.611
93317SOL    HW181848  11.943   1.733  12.619
93317SOL    HW281849  12.079   1.676  12.655
93318SOL     OW81850   7.815   0.559   4.997
93318SOL    HW181851   7.906   0.535   4.977
93318SOL    HW281852   7.771   0.557   4.912
93319SOL     OW81853   3.560   2.927   1.749
93319SOL    HW181854   3.536   3.010   1.707
93319SOL    HW281855   3.526   2.936   1.839
93320SOL     OW81856  12.070   5.668  13.110
93320SOL    HW181857  12.106   5.734  13.169
93320SOL    HW281858  11.985   5.704  13.083
93321SOL     OW81859   0.289  13.583   6.821
93321SOL    HW181860   0.367  13.616   6.777
93321SOL    HW281861   0.218  13.637   6.785
93322SOL     OW81862  14.073   5.444  10.148
93322SOL    HW181863  14.084   5.381  10.076
93322SOL    HW281864  14.143   5.507  10.135
93323SOL     OW81865   1.444   8.292   6.222
93323SOL    HW181866   1.516   8.268   6.163
93323SOL    HW281867   1.412   8.208   6.256
93324SOL     OW81868  12.291   3.829   8.509
93324SOL    HW181869  12.329   3.864   8.589
93324SOL    HW281870  12.347   3.754   8.487
93325SOL     OW81871  13.678   3.731  11.505
93325SOL    HW181872  13.700   3.646  11.467
93325SOL    HW281873  13.687   3.793  11.433
93326SOL     OW81874  12.308  13.181   4.519
93326SOL    HW181875  12.281  13.227   4.439
93326SOL    HW281876  12.267  13.095   4.511
93327SOL     OW81877   0.768   5.409   8.508
93327SOL    HW181878   0.853   5.439   8.476
93327SOL    HW281879   0.705   5.474   8.477
93328SOL     OW81880  10.949  10.645   2.654
93328SOL    HW181881  10.949  10.554   2.683
93328SOL    HW281882  10.943  10.640   2.558
93329SOL     OW81883   9.638   3.896   0.448
93329SOL    HW181884   9.602   3.968   0.396
93329SOL    HW281885   9.681   3.839   0.384
93330SOL     OW81886   6.045   9.976   1.078
93330SOL    HW181887   5.982   9.941   1.015
93330SOL    HW281888   6.036  10.071   1.071
93331SOL     OW81889   7.701  11.029   7.979
93331SOL    HW181890   7.672  10.942   7.951
93331SOL    HW281891   7.684  11.031   8.073
93332SOL     OW81892   8.524  10.042  10.822
93332SOL    HW181893   8.561   9.977  10.881
93332SOL    HW281894   8.600  10.081  10.779
93333SOL     OW81895   2.987  11.993   6.398
93333SOL    HW181896   3.019  11.959   6.482
93333SOL    HW281897   2.957  11.916   6.350
93334SOL     OW81898  12.946   0.653  14.371
93334SOL    HW181899  12.872   0.609  14.328
93334SOL    HW281900  12.982   0.710  14.303
93335SOL     OW81901   9.177  10.001  13.979
93335SOL    HW181902   9.170  10.013  14.074
93335SOL    HW281903   9.245   9.935  13.968
93336SOL     OW81904  14.528  12.315  12.161
93336SOL    HW181905  14.499  12.368  12.086
93336SOL    HW281906  14.484  12.354  12.236
93337SOL     OW81907  11.607   7.195   2.274
93337SOL    HW181908  11.633   7.287   2.281
93337SOL    HW281909  11.679   7.153   2.228
93338SOL     OW81910   5.370   2.939   0.058
93338SOL    HW181911   5.414   2.856   0.078
93338SOL    HW281912   5.408   2.967  14.847
93339SOL     OW81913  11.946   3.578   7.221
93339SOL    HW181914  11.935   3.485   7.239
93339SOL    HW281915  11.878   3.598   7.157
93340SOL     OW81916  11.891  13.834   6.626
93340SOL    HW181917  11.804  13.873   6.632
93340SOL    HW281918  11.947  13.894   6.675
93341SOL     OW81919  12.465   6.987   8.047
93341SOL    HW181920  12.504   6.916   8.098
93341SOL    HW281921  12.386   7.010   8.094
93342SOL     OW81922   8.069   1.061   6.386
93342SOL    HW181923   8.036   1.135   6.335
93342SOL    HW281924   7.999   1.042   6.448
93343SOL     OW81925   8.965  14.671  10.426
93343SOL    HW181926   9.047  14.705  10.461
93343SOL    HW281927   8.900  14.737  10.451
93344SOL     OW81928  14.719   2.724   8.407
93344SOL    HW181929  14.788   2.779   8.373
93344SOL    HW281930  14.745   2.635   8.385
93345SOL     OW81931   3.186  12.778   0.941
93345SOL    HW181932   3.201  12.849   1.003
93345SOL    HW281933   3.263  12.722   0.950
93346SOL     OW81934  13.159  14.618   4.744
93346SOL    HW181935  13.127  14.642   4.658
93346SOL    HW281936  13.235  14.675   4.759
93347SOL     OW81937   4.707   8.499   3.957
93347SOL    HW181938   4.657   8.577   3.936
93347SOL    HW281939   4.797   8.530   3.968
93348SOL     OW81940   6.742   8.782   0.630
93348SOL    HW181941   6.735   8.794   0.535
93348SOL    HW281942   6.652   8.789   0.662
93349SOL     OW81943   6.408   2.363   4.844
93349SOL    HW181944   6.390   2.426   4.914
93349SOL    HW281945   6.322   2.335   4.815
93350SOL     OW81946   6.669  11.262   2.401
93350SOL    HW181947   6.704  11.248   2.489
93350SOL    HW281948   6.595  11.322   2.414
93351SOL     OW81949   3.865   7.504   0.884
93351SOL    HW181950   3.908   7.557   0.817
93351SOL    HW281951   3.802   7.451   0.835
93352SOL     OW81952   0.184   3.828  11.441
93352SOL    HW181953   0.273   3.827  11.408
93352SOL    HW281954   0.159   3.736  11.448
93353SOL     OW81955   6.237  12.702  10.116
93353SOL    HW181956   6.265  12.630  10.173
93353SOL    HW281957   6.297  12.773  10.136
93354SOL     OW81958  10.126  11.061  12.002
93354SOL    HW181959  10.167  11.074  11.917
93354SOL    HW281960  10.140  10.968  12.021
93355SOL     OW81961   1.527   0.613   5.929
93355SOL    HW181962   1.463   0.681   5.948
93355SOL    HW281963   1.476   0.541   5.890
93356SOL     OW81964  10.365  11.811   8.566
93356SOL    HW181965  10.451  11.772   8.580
93356SOL    HW281966  10.305  11.736   8.560
93357SOL     OW81967   1.351  14.486   6.565
93357SOL    HW181968   1.374  14.400   6.600
93357SOL    HW281969   1.429  14.515   6.518
93358SOL     OW81970   3.146   2.781  14.287
93358SOL    HW181971   3.228   2.751  14.326
93358SOL    HW281972   3.139   2.732  14.205
93359SOL     OW81973   1.531  10.634   9.358
93359SOL    HW181974   1.600  10.592   9.307
93359SOL    HW281975   1.577  10.688   9.421
93360SOL     OW81976  11.171  13.402   0.575
93360SOL    HW181977  11.239  13.461   0.541
93360SOL    HW281978  11.145  13.349   0.499
93361SOL     OW81979   2.955   2.254   7.799
93361SOL    HW181980   2.933   2.342   7.768
93361SOL    HW281981   3.009   2.217   7.729
93362SOL     OW81982  12.051   6.074   3.873
93362SOL    HW181983  12.119   6.084   3.939
93362SOL    HW281984  12.097   6.041   3.795
93363SOL     OW81985   6.135   0.077   8.436
93363SOL    HW181986   6.101   0.064   8.525
93363SOL    HW281987   6.230   0.076   8.447
93364SOL     OW81988  11.814   5.486   8.698
93364SOL    HW181989  11.790   5.530   8.617
93364SOL    HW281990  11.779   5.542   8.768
93365SOL     OW81991  10.308   8.836   6.304
93365SOL    HW181992  10.368   8.800   6.370
93365SOL    HW281993  10.321   8.781   6.227
93366SOL     OW81994   0.412   2.203   1.879
93366SOL    HW181995   0.495   2.249   1.863
93366SOL    HW281996   0.437   2.110   1.885
93367SOL     OW81997   5.145   9.810  10.168
93367SOL    HW181998   5.148   9.901  10.140
93367SOL    HW281999   5.074   9.807  10.232
93368SOL     OW82000  11.243  11.725   6.158
93368SOL    HW182001  11.150  11.748   6.150
93368SOL    HW282002  11.267  11.750   6.247
93369SOL     OW82003  12.042   7.747  11.726
93369SOL    HW182004  12.030   7.828  11.776
93369SOL    HW282005  12.032   7.773  11.634
93370SOL     OW82006   6.118   8.986   0.567
93370SOL    HW182007   6.037   9.015   0.524
93370SOL    HW282008   6.125   8.894   0.543
93371SOL     OW82009   2.061   5.179   5.932
93371SOL    HW182010   2.090   5.122   6.004
93371SOL    HW282011   1.976   5.143   5.907
93372SOL     OW82012   7.864  10.174   2.144
93372SOL    HW182013   7.932  10.122   2.101
93372SOL    HW282014   7.807  10.108   2.186
93373SOL     OW82015   0.052   8.219  14.616
93373SOL    HW182016   0.066   8.311  14.591
93373SOL    HW282017   0.121   8.171  14.570
93374SOL     OW82018   3.114   2.754  12.787
93374SOL    HW182019   3.077   2.843  12.785
93374SOL    HW282020   3.161   2.750  12.870
93375SOL     OW82021   9.119  14.684  14.047
93375SOL    HW182022   9.101  14.640  14.130
93375SOL    HW282023   9.092  14.621  13.980
93376SOL     OW82024  12.594   5.271   9.903
93376SOL    HW182025  12.591   5.196   9.962
93376SOL    HW282026  12.672   5.256   9.849
93377SOL     OW82027   8.529   3.657   2.817
93377SOL    HW182028   8.511   3.563   2.820
93377SOL    HW282029   8.596   3.670   2.885
93378SOL     OW82030  10.425   5.835   3.347
93378SOL    HW182031  10.492   5.885   3.392
93378SOL    HW282032  10.344   5.856   3.393
93379SOL     OW82033  10.469   5.304   4.820
93379SOL    HW182034  10.383   5.346   4.816
93379SOL    HW282035  10.455   5.227   4.876
93380SOL     OW82036   6.462  11.385  14.424
93380SOL    HW182037   6.393  11.326  14.453
93380SOL    HW282038   6.416  11.463  14.393
93381SOL     OW82039   3.444  10.739   3.600
93381SOL    HW182040   3.422  10.734   3.507
93381SOL    HW282041   3.360  10.745   3.645
93382SOL     OW82042   3.635   0.001   8.075
93382SOL    HW182043   3.592  14.837   7.998
93382SOL    HW282044   3.726   0.016   8.047
93383SOL     OW82045  14.413  13.605   7.427
93383SOL    HW182046  14.402  13.617   7.522
93383SOL    HW282047  14.415  13.511   7.415
93384SOL     OW82048   9.678   2.304  14.603
93384SOL    HW182049   9.717   2.217  14.616
93384SOL    HW282050   9.589   2.296  14.637
93385SOL     OW82051   0.553  14.277   1.451
93385SOL    HW182052   0.629  14.335   1.438
93385SOL    HW282053   0.590  14.189   1.444
93386SOL     OW82054   4.941  11.853   2.693
93386SOL    HW182055   4.968  11.762   2.709
93386SOL    HW282056   5.023  11.897   2.670
93387SOL     OW82057   0.594   7.655   2.078
93387SOL    HW182058   0.626   7.631   1.991
93387SOL    HW282059   0.673   7.676   2.128
93388SOL     OW82060  10.114  10.553  10.841
93388SOL    HW182061  10.100  10.530  10.749
93388SOL    HW282062  10.209  10.548  10.852
93389SOL     OW82063  12.554   4.670   6.628
93389SOL    HW182064  12.628   4.730   6.627
93389SOL    HW282065  12.525   4.666   6.537
93390SOL     OW82066   8.848  14.192   3.420
93390SOL    HW182067   8.755  14.169   3.420
93390SOL    HW282068   8.852  14.270   3.365
93391SOL     OW82069   6.021   3.643  13.992
93391SOL    HW182070   6.107   3.619  14.026
93391SOL    HW282071   5.960   3.613  14.059
93392SOL     OW82072  11.154  10.824   9.775
93392SOL    HW182073  11.086  10.849   9.837
93392SOL    HW282074  11.230  10.804   9.829
93393SOL     OW82075   0.677   8.837   6.995
93393SOL    HW182076   0.734   8.844   6.918
93393SOL    HW282077   0.605   8.897   6.978
93394SOL     OW82078   5.076   4.849   1.653
93394SOL    HW182079   4.982   4.861   1.671
93394SOL    HW282080   5.091   4.898   1.572
93395SOL     OW82081   0.797  12.438   5.026
93395SOL    HW182082   0.729  12.506   5.023
93395SOL    HW282083   0.767  12.377   5.094
93396SOL     OW82084   4.467   4.660   0.150
93396SOL    HW182085   4.416   4.670   0.230
93396SOL    HW282086   4.510   4.745   0.138
93397SOL     OW82087  10.576   5.189   2.599
93397SOL    HW182088  10.493   5.234   2.580
93397SOL    HW282089  10.629   5.203   2.520
93398SOL     OW82090   7.966   5.589  10.695
93398SOL    HW182091   8.053   5.556  10.715
93398SOL    HW282092   7.952   5.660  10.757
93399SOL     OW82093   0.531   9.660   4.749
93399SOL    HW182094   0.492   9.742   4.779
93399SOL    HW282095   0.469   9.625   4.685
93400SOL     OW82096   3.694   6.777   0.199
93400SOL    HW182097   3.757   6.713   0.166
93400SOL    HW282098   3.621   6.725   0.231
93401SOL     OW82099   5.228   3.688  10.186
93401SOL    HW182100   5.243   3.708  10.093
93401SOL    HW282101   5.150   3.738  10.208
93402SOL     OW82102   9.301   9.599  13.606
93402SOL    HW182103   9.263   9.530  13.552
93402SOL    HW282104   9.392   9.573  13.617
93403SOL     OW82105   0.232  14.861   9.544
93403SOL    HW182106   0.179   0.066   9.565
93403SOL    HW282107   0.267   0.007   9.457
93404SOL     OW82108   1.572  14.282   3.530
93404SOL    HW182109   1.505  14.270   3.463
93404SOL    HW282110   1.643  14.329   3.484
93405SOL     OW82111   8.957   1.761   5.494
93405SOL    HW182112   8.939   1.837   5.438
93405SOL    HW282113   8.957   1.686   5.433
93406SOL     OW82114   0.070   5.135   3.507
93406SOL    HW182115   0.042   5.127   3.416
93406SOL    HW282116   0.075   5.230   3.522
93407SOL     OW82117   0.737   5.497   3.990
93407SOL    HW182118   0.740   5.551   3.911
93407SOL    HW282119   0.829   5.491   4.018
93408SOL     OW82120   2.591   6.333   6.040
93408SOL    HW182121   2.547   6.379   5.969
93408SOL    HW282122   2.600   6.398   6.109
93409SOL     OW82123   8.767  13.936   4.683
93409SOL    HW182124   8.786  13.845   4.707
93409SOL    HW282125   8.768  13.936   4.588
93410SOL     OW82126   6.458  11.794  10.078
93410SOL    HW182127   6.523  11.828  10.141
93410SOL    HW282128   6.383  11.770  10.132
93411SOL     OW82129   7.527   1.281  12.845
93411SOL    HW182130   7.446   1.329  12.859
93411SOL    HW282131   7.551   1.299  12.754
93412SOL     OW82132   0.796   7.112   0.337
93412SOL    HW182133   0.732   7.041   0.330
93412SOL    HW282134   0.881   7.069   0.324
93413SOL     OW82135   6.642  13.542   8.881
93413SOL    HW182136   6.640  13.524   8.975
93413SOL    HW282137   6.619  13.635   8.875
93414SOL     OW82138   8.194   4.475   0.144
93414SOL    HW182139   8.278   4.515   0.123
93414SOL    HW282140   8.162   4.442   0.060
93415SOL     OW82141   8.746   2.600  10.705
93415SOL    HW182142   8.665   2.548  10.712
93415SOL    HW282143   8.796   2.577  10.782
93416SOL     OW82144   5.597  13.679   0.602
93416SOL    HW182145   5.521  13.679   0.543
93416SOL    HW282146   5.672  13.678   0.543
93417SOL     OW82147  13.554   7.094  11.014
93417SOL    HW182148  13.471   7.124  11.052
93417SOL    HW282149  13.580   7.164  10.954
93418SOL     OW82150   9.219   3.760   4.729
93418SOL    HW182151   9.167   3.707   4.668
93418SOL    HW282152   9.220   3.709   4.810
93419SOL     OW82153  12.882   4.758   7.128
93419SOL    HW182154  12.900   4.763   7.222
93419SOL    HW282155  12.964   4.727   7.090
93420SOL     OW82156  11.629  13.882  12.240
93420SOL    HW182157  11.540  13.857  12.212
93420SOL    HW282158  11.679  13.801  12.233
93421SOL     OW82159  12.194   6.947   9.172
93421SOL    HW182160  12.126   6.949   9.104
93421SOL    HW282161  12.161   7.006   9.240
93422SOL     OW82162   7.407   5.182   9.915
93422SOL    HW182163   7.441   5.270   9.930
93422SOL    HW282164   7.398   5.174   9.820
93423SOL     OW82165   1.620   6.114   4.362
93423SOL    HW182166   1.666   6.192   4.330
93423SOL    HW282167   1.655   6.101   4.450
93424SOL     OW82168  13.850   3.967  14.282
93424SOL    HW182169  13.843   3.874  14.259
93424SOL    HW282170  13.797   3.976  14.362
93425SOL     OW82171   2.668   8.147   1.731
93425SOL    HW182172   2.700   8.142   1.641
93425SOL    HW282173   2.665   8.240   1.751
93426SOL     OW82174   7.431   1.295   8.463
93426SOL    HW182175   7.393   1.314   8.378
93426SOL    HW282176   7.523   1.319   8.455
93427SOL     OW82177  14.083   1.654   6.259
93427SOL    HW182178  13.994   1.650   6.224
93427SOL    HW282179  14.113   1.743   6.238
93428SOL     OW82180   1.591   2.936  12.077
93428SOL    HW182181   1.538   2.905  12.003
93428SOL    HW282182   1.580   3.031  12.077
93429SOL     OW82183  10.095   2.092  13.129
93429SOL    HW182184  10.153   2.168  13.125
93429SOL    HW282185  10.016   2.120  13.083
93430SOL     OW82186   5.069  14.404  13.841
93430SOL    HW182187   5.065  14.366  13.929
93430SOL    HW282188   4.998  14.362  13.793
93431SOL     OW82189   6.150  14.575   7.279
93431SOL    HW182190   6.226  14.627   7.307
93431SOL    HW282191   6.076  14.617   7.323
93432SOL     OW82192   6.097  11.447   7.430
93432SOL    HW182193   6.021  11.498   7.460
93432SOL    HW282194   6.145  11.507   7.373
93433SOL     OW82195   0.763   0.796  12.923
93433SOL    HW182196   0.818   0.845  12.985
93433SOL    HW282197   0.819   0.724  12.893
93434SOL     OW82198   2.743   0.300   4.028
93434SOL    HW182199   2.669   0.315   4.087
93434SOL    HW282200   2.813   0.354   4.063
93435SOL     OW82201  13.784  12.911   6.737
93435SOL    HW182202  13.778  12.887   6.645
93435SOL    HW282203  13.867  12.959   6.743
93436SOL     OW82204   9.778  10.891   6.966
93436SOL    HW182205   9.790  10.814   7.021
93436SOL    HW282206   9.744  10.958   7.026
93437SOL     OW82207   7.747   4.060  12.419
93437SOL    HW182208   7.729   4.072  12.326
93437SOL    HW282209   7.737   4.148  12.456
93438SOL     OW82210   1.679  12.178  14.866
93438SOL    HW182211   1.683  12.236  14.790
93438SOL    HW282212   1.586  12.159   0.005
93439SOL     OW82213   2.617   7.839  12.424
93439SOL    HW182214   2.680   7.910  12.413
93439SOL    HW282215   2.587   7.848  12.514
93440SOL     OW82216   9.500   2.526   8.603
93440SOL    HW182217   9.530   2.579   8.529
93440SOL    HW282218   9.426   2.574   8.638
93441SOL     OW82219   2.122  10.713  11.527
93441SOL    HW182220   2.133  10.619  11.510
93441SOL    HW282221   2.153  10.755  11.447
93442SOL     OW82222   2.133   9.281   8.177
93442SOL    HW182223   2.138   9.376   8.166
93442SOL    HW282224   2.183   9.263   8.257
93443SOL     OW82225   6.301   3.623  11.373
93443SOL    HW182226   6.271   3.714  11.374
93443SOL    HW282227   6.380   3.625  11.320
93444SOL     OW82228   3.252  10.659   9.676
93444SOL    HW182229   3.307  10.616   9.610
93444SOL    HW282230   3.175  10.604   9.683
93445SOL     OW82231  13.304  12.311   7.246
93445SOL    HW182232  13.229  12.260   7.215
93445SOL    HW282233  13.312  12.382   7.183
93446SOL     OW82234   8.161  10.214   1.084
93446SOL    HW182235   8.088  10.215   1.021
93446SOL    HW282236   8.237  10.189   1.032
93447SOL     OW82237   3.645   1.783  10.017
93447SOL    HW182238   3.648   1.843  10.092
93447SOL    HW282239   3.652   1.696  10.055
93448SOL     OW82240  14.786  12.627   6.784
93448SOL    HW182241  14.779  12.558   6.850
93448SOL    HW282242   0.006  12.655   6.788
93449SOL     OW82243  12.848   8.058   4.176
93449SOL    HW182244  12.846   8.031   4.085
93449SOL    HW282245  12.942   8.064   4.197
93450SOL     OW82246   4.252  13.417   7.687
93450SOL    HW182247   4.241  13.326   7.658
93450SOL    HW282248   4.168  13.459   7.668
93451SOL     OW82249  14.152  14.784   3.756
93451SOL    HW182250  14.209  14.707   3.758
93451SOL    HW282251  14.172  14.827   3.673
93452SOL     OW82252  13.576  14.075   2.021
93452SOL    HW182253  13.647  14.111   1.967
93452SOL    HW282254  13.572  14.131   2.098
93453SOL     OW82255  10.437   9.931   5.864
93453SOL    HW182256  10.452   9.971   5.778
93453SOL    HW282257  10.525   9.907   5.895
93454SOL     OW82258  11.224  14.850  13.753
93454SOL    HW182259  11.281   0.019  13.687
93454SOL    HW282260  11.279  14.841  13.830
93455SOL     OW82261   0.821   1.201   0.601
93455SOL    HW182262   0.833   1.277   0.657
93455SOL    HW282263   0.727   1.201   0.580
93456SOL     OW82264  12.595  10.057  14.348
93456SOL    HW182265  12.590  10.052  14.444
93456SOL    HW282266  12.542   9.983  14.318
93457SOL     OW82267   7.132   2.199   8.622
93457SOL    HW182268   7.092   2.116   8.597
93457SOL    HW282269   7.207   2.209   8.563
93458SOL     OW82270  12.075  12.300  12.123
93458SOL    HW182271  12.061  12.233  12.055
93458SOL    HW282272  12.155  12.272  12.168
93459SOL     OW82273  11.527  11.183   7.959
93459SOL    HW182274  11.463  11.253   7.971
93459SOL    HW282275  11.485  11.106   7.996
93460SOL     OW82276   3.523   5.601   0.355
93460SOL    HW182277   3.493   5.610   0.446
93460SOL    HW282278   3.486   5.676   0.310
93461SOL     OW82279   1.749   4.743   3.516
93461SOL    HW182280   1.684   4.788   3.462
93461SOL    HW282281   1.698   4.687   3.574
93462SOL     OW82282   2.176   2.868   6.505
93462SOL    HW182283   2.156   2.939   6.444
93462SOL    HW282284   2.126   2.889   6.584
93463SOL     OW82285   2.092   9.020   9.576
93463SOL    HW182286   2.038   9.037   9.654
93463SOL    HW282287   2.145   8.944   9.601
93464SOL     OW82288  11.222   2.169  10.345
93464SOL    HW182289  11.189   2.128  10.265
93464SOL    HW282290  11.172   2.251  10.352
93465SOL     OW82291   1.445   0.196   6.048
93465SOL    HW182292   1.513   0.153   6.100
93465SOL    HW282293   1.403   0.258   6.108
93466SOL     OW82294   7.351  10.099  12.543
93466SOL    HW182295   7.343  10.165  12.612
93466SOL    HW282296   7.296  10.132  12.472
93467SOL     OW82297   4.780  13.727  14.853
93467SOL    HW182298   4.841  13.787  14.811
93467SOL    HW282299   4.785  13.646  14.802
93468SOL     OW82300   1.069  11.518   4.731
93468SOL    HW182301   1.071  11.613   4.746
93468SOL    HW282302   1.084  11.480   4.818
93469SOL     OW82303   7.724   7.991   9.187
93469SOL    HW182304   7.732   7.896   9.196
93469SOL    HW282305   7.629   8.006   9.182
93470SOL     OW82306   6.980   8.621  13.507
93470SOL    HW182307   6.968   8.537  13.551
93470SOL    HW282308   6.915   8.679  13.547
93471SOL     OW82309   0.395  12.306   2.059
93471SOL    HW182310   0.355  12.333   1.977
93471SOL    HW282311   0.482  12.346   2.058
93472SOL     OW82312   6.857   9.624   7.182
93472SOL    HW182313   6.947   9.651   7.204
93472SOL    HW282314   6.823   9.585   7.263
93473SOL     OW82315   7.282   3.504  11.043
93473SOL    HW182316   7.260   3.428  11.097
93473SOL    HW282317   7.377   3.513  11.051
93474SOL     OW82318  14.375   4.810   1.354
93474SOL    HW182319  14.348   4.872   1.287
93474SOL    HW282320  14.351   4.724   1.319
93475SOL     OW82321  10.540   1.289   1.694
93475SOL    HW182322  10.492   1.254   1.769
93475SOL    HW282323  10.630   1.257   1.705
93476SOL     OW82324   4.195   0.675   0.512
93476SOL    HW182325   4.144   0.747   0.550
93476SOL    HW282326   4.141   0.642   0.441
93477SOL     OW82327  13.428   6.385  10.128
93477SOL    HW182328  13.335   6.403  10.141
93477SOL    HW282329  13.430   6.304  10.078
93478SOL     OW82330   0.771  12.638  10.604
93478SOL    HW182331   0.762  12.596  10.518
93478SOL    HW282332   0.820  12.718  10.586
93479SOL     OW82333  12.078   6.418   6.046
93479SOL    HW182334  12.159   6.449   6.087
93479SOL    HW282335  12.070   6.328   6.076
93480SOL     OW82336   1.100   7.493   5.390
93480SOL    HW182337   1.005   7.482   5.394
93480SOL    HW282338   1.118   7.565   5.451
93481SOL     OW82339   0.300   2.257  11.223
93481SOL    HW182340   0.355   2.256  11.301
93481SOL    HW282341   0.354   2.298  11.156
93482SOL     OW82342   7.571   8.032   4.652
93482SOL    HW182343   7.486   7.992   4.672
93482SOL    HW282344   7.550   8.101   4.589
93483SOL     OW82345   7.046  13.510   1.176
93483SOL    HW182346   7.041  13.462   1.093
93483SOL    HW282347   7.031  13.443   1.242
93484SOL     OW82348   1.031   3.779   8.721
93484SOL    HW182349   1.085   3.782   8.800
93484SOL    HW282350   1.026   3.870   8.692
93485SOL     OW82351   2.574   6.576   0.621
93485SOL    HW182352   2.634   6.614   0.686
93485SOL    HW282353   2.491   6.622   0.635
93486SOL     OW82354   5.032   1.621   5.321
93486SOL    HW182355   5.017   1.596   5.230
93486SOL    HW282356   4.980   1.559   5.372
93487SOL     OW82357  10.917   2.312  11.275
93487SOL    HW182358  10.898   2.246  11.342
93487SOL    HW282359  10.831   2.352  11.256
93488SOL     OW82360   1.623   8.903  11.926
93488SOL    HW182361   1.546   8.910  11.868
93488SOL    HW282362   1.674   8.831  11.889
93489SOL     OW82363   8.765   0.113   5.184
93489SOL    HW182364   8.686   0.090   5.233
93489SOL    HW282365   8.826   0.145   5.251
93490SOL     OW82366   3.802   6.285   5.605
93490SOL    HW182367   3.799   6.204   5.554
93490SOL    HW282368   3.896   6.304   5.616
93491SOL     OW82369   8.145  14.457   8.054
93491SOL    HW182370   8.055  14.446   8.086
93491SOL    HW282371   8.138  14.449   7.959
93492SOL     OW82372  14.742   4.218   4.194
93492SOL    HW182373  14.715   4.309   4.185
93492SOL    HW282374  14.757   4.188   4.104
93493SOL     OW82375   7.820   5.538   1.573
93493SOL    HW182376   7.867   5.465   1.615
93493SOL    HW282377   7.740   5.547   1.623
93494SOL     OW82378  11.680   8.977   2.519
93494SOL    HW182379  11.771   8.975   2.491
93494SOL    HW282380  11.633   8.927   2.452
93495SOL     OW82381   0.467   4.417  10.756
93495SOL    HW182382   0.371   4.414  10.757
93495SOL    HW282383   0.487   4.510  10.766
93496SOL     OW82384  14.811  13.216   8.051
93496SOL    HW182385   0.034  13.226   8.052
93496SOL    HW282386  14.785  13.239   7.962
93497SOL     OW82387  14.527  10.798  10.623
93497SOL    HW182388  14.597  10.860  10.603
93497SOL    HW282389  14.526  10.794  10.719
93498SOL     OW82390   1.584  14.440   6.146
93498SOL    HW182391   1.574  14.532   6.120
93498SOL    HW282392   1.634  14.401   6.074
93499SOL     OW82393  13.170   5.379   5.603
93499SOL    HW182394  13.207   5.447   5.546
93499SOL    HW282395  13.097   5.422   5.647
93500SOL     OW82396   6.612   6.563   6.048
93500SOL    HW182397   6.629   6.602   6.134
93500SOL    HW282398   6.695   6.521   6.025
93501SOL     OW82399  14.364   9.574  10.289
93501SOL    HW182400  14.270   9.591  10.295
93501SOL    HW282401  14.397   9.586  10.378
93502SOL     OW82402   8.682  11.227   0.002
93502SOL    HW182403   8.723  11.150   0.041
93502SOL    HW282404   8.651  11.197  14.789
93503SOL     OW82405   8.065   3.785   3.237
93503SOL    HW182406   8.055   3.696   3.202
93503SOL    HW282407   8.108   3.833   3.167
93504SOL     OW82408   9.495   6.472   9.588
93504SOL    HW182409   9.489   6.561   9.553
93504SOL    HW282410   9.434   6.471   9.662
93505SOL     OW82411  13.533   3.946   7.992
93505SOL    HW182412  13.526   3.934   7.898
93505SOL    HW282413  13.602   4.012   8.003
93506SOL     OW82414   7.732  14.531   6.169
93506SOL    HW182415   7.703  14.507   6.081
93506SOL    HW282416   7.718  14.626   6.174
93507SOL     OW82417   0.636   0.342  10.010
93507SOL    HW182418   0.664   0.368   9.922
93507SOL    HW282419   0.706   0.285  10.042
93508SOL     OW82420  10.966   5.547  12.409
93508SOL    HW182421  10.955   5.510  12.321
93508SOL    HW282422  10.951   5.641  12.397
93509SOL     OW82423  14.687   8.853   8.241
93509SOL    HW182424  14.708   8.785   8.178
93509SOL    HW282425  14.711   8.935   8.198
93510SOL     OW82426  11.181  13.060   7.049
93510SOL    HW182427  11.181  13.084   6.956
93510SOL    HW282428  11.273  13.062   7.074
93511SOL     OW82429   0.475   1.706   5.506
93511SOL    HW182430   0.399   1.652   5.526
93511SOL    HW282431   0.443   1.796   5.510
93512SOL     OW82432   0.579   0.183   5.485
93512SOL    HW182433   0.559   0.112   5.424
93512SOL    HW282434   0.592   0.139   5.569
93513SOL     OW82435  12.237   6.245   3.092
93513SOL    HW182436  12.316   6.199   3.061
93513SOL    HW282437  12.179   6.174   3.122
93514SOL     OW82438   8.702  10.318   9.284
93514SOL    HW182439   8.679  10.235   9.327
93514SOL    HW282440   8.742  10.292   9.201
93515SOL     OW82441   2.762   7.971   1.924
93515SOL    HW182442   2.843   8.021   1.937
93515SOL    HW282443   2.711   8.024   1.863
93516SOL     OW82444  10.239   7.372  12.228
93516SOL    HW182445  10.228   7.285  12.266
93516SOL    HW282446  10.327   7.370  12.189
93517SOL     OW82447   0.388   2.221  12.888
93517SOL    HW182448   0.399   2.312  12.917
93517SOL    HW282449   0.473   2.199  12.848
93518SOL     OW82450  12.929   5.351  14.700
93518SOL    HW182451  12.962   5.321  14.615
93518SOL    HW282452  12.834   5.351  14.691
93519SOL     OW82453   6.487   2.036  13.961
93519SOL    HW182454   6.517   1.948  13.939
93519SOL    HW282455   6.531   2.093  13.898
93520SOL     OW82456  14.740   9.790   2.855
93520SOL    HW182457  14.765   9.698   2.858
93520SOL    HW282458  14.644   9.788   2.857
93521SOL     OW82459  11.292   9.300   9.718
93521SOL    HW182460  11.357   9.293   9.648
93521SOL    HW282461  11.224   9.237   9.694
93522SOL     OW82462   8.884   3.506  11.056
93522SOL    HW182463   8.855   3.596  11.042
93522SOL    HW282464   8.835   3.476  11.132
93523SOL     OW82465  13.090  12.171   4.073
93523SOL    HW182466  13.121  12.104   4.134
93523SOL    HW282467  13.149  12.164   3.998
93524SOL     OW82468  11.413  13.822  11.131
93524SOL    HW182469  11.344  13.881  11.161
93524SOL    HW282470  11.475  13.819  11.203
93525SOL     OW82471  13.646   8.633   3.443
93525SOL    HW182472  13.700   8.704   3.478
93525SOL    HW282473  13.703   8.556   3.446
93526SOL     OW82474   6.057   3.718  13.627
93526SOL    HW182475   6.011   3.634  13.621
93526SOL    HW282476   6.026   3.756  13.709
93527SOL     OW82477   7.057   3.825  12.311
93527SOL    HW182478   7.080   3.917  12.299
93527SOL    HW282479   6.963   3.825  12.325
93528SOL     OW82480  11.668   4.652   8.778
93528SOL    HW182481  11.691   4.741   8.806
93528SOL    HW282482  11.594   4.664   8.718
93529SOL     OW82483   2.166   5.719   5.276
93529SOL    HW182484   2.095   5.708   5.340
93529SOL    HW282485   2.154   5.808   5.243
93530SOL     OW82486   1.726  11.488   0.291
93530SOL    HW182487   1.731  11.418   0.226
93530SOL    HW282488   1.781  11.558   0.255
93531SOL     OW82489  12.910  11.283   1.102
93531SOL    HW182490  12.888  11.266   1.194
93531SOL    HW282491  12.849  11.352   1.075
93532SOL     OW82492  11.226  12.321   5.387
93532SOL    HW182493  11.218  12.341   5.480
93532SOL    HW282494  11.318  12.335   5.367
93533SOL     OW82495   7.306   7.188   6.537
93533SOL    HW182496   7.242   7.230   6.479
93533SOL    HW282497   7.255   7.159   6.612
93534SOL     OW82498   2.680  14.740   8.957
93534SOL    HW182499   2.738  14.684   9.008
93534SOL    HW282500   2.685  14.706   8.867
93535SOL     OW82501  13.464   1.254   1.738
93535SOL    HW182502  13.476   1.205   1.656
93535SOL    HW282503  13.492   1.192   1.807
93536SOL     OW82504  12.747  10.759   5.095
93536SOL    HW182505  12.699  10.784   5.174
93536SOL    HW282506  12.718  10.822   5.029
93537SOL     OW82507   8.771  13.298   1.765
93537SOL    HW182508   8.860  13.265   1.779
93537SOL    HW282509   8.728  13.286   1.850
93538SOL     OW82510  14.175   0.892   5.044
93538SOL    HW182511  14.096   0.849   5.013
93538SOL    HW282512  14.204   0.839   5.118
93539SOL     OW82513   4.752   4.423   8.933
93539SOL    HW182514   4.815   4.385   8.871
93539SOL    HW282515   4.802   4.432   9.014
93540SOL     OW82516  13.871   9.161   0.346
93540SOL    HW182517  13.846   9.214   0.422
93540SOL    HW282518  13.964   9.179   0.333
93541SOL     OW82519   2.363  11.920  14.651
93541SOL    HW182520   2.377  11.959  14.565
93541SOL    HW282521   2.270  11.933  14.670
93542SOL     OW82522   1.638   6.291   7.592
93542SOL    HW182523   1.683   6.223   7.543
93542SOL    HW282524   1.680   6.373   7.564
93543SOL     OW82525  14.038  14.634   4.923
93543SOL    HW182526  14.038  14.658   4.830
93543SOL    HW282527  14.014  14.714   4.969
93544SOL     OW82528   6.963   5.038   4.486
93544SOL    HW182529   6.945   5.123   4.526
93544SOL    HW282530   6.984   5.058   4.395
93545SOL     OW82531   2.004  11.648  12.761
93545SOL    HW182532   2.065  11.700  12.708
93545SOL    HW282533   2.059  11.581  12.801
93546SOL     OW82534   9.097   1.334  10.884
93546SOL    HW182535   9.068   1.269  10.947
93546SOL    HW282536   9.112   1.285  10.803
93547SOL     OW82537   8.207  10.925   6.469
93547SOL    HW182538   8.291  10.889   6.498
93547SOL    HW282539   8.148  10.913   6.544
93548SOL     OW82540  12.221  11.233   5.146
93548SOL    HW182541  12.308  11.272   5.145
93548SOL    HW282542  12.163  11.302   5.115
93549SOL     OW82543   3.629   5.760   2.571
93549SOL    HW182544   3.664   5.675   2.600
93549SOL    HW282545   3.622   5.811   2.652
93550SOL     OW82546   9.903  14.025  14.791
93550SOL    HW182547   9.935  14.082  14.721
93550SOL    HW282548   9.808  14.027  14.781
93551SOL     OW82549  12.876  10.533   0.015
93551SOL    HW182550  12.857  10.625   0.034
93551SOL    HW282551  12.847  10.486   0.093
93552SOL     OW82552  14.800   1.360  13.098
93552SOL    HW182553  14.843   1.295  13.154
93552SOL    HW282554  14.790   1.437  13.153
93553SOL     OW82555  10.136  11.279   8.510
93553SOL    HW182556  10.214  11.223   8.512
93553SOL    HW282557  10.170  11.365   8.485
93554SOL     OW82558   2.923   7.002  10.104
93554SOL    HW182559   2.961   6.965  10.183
93554SOL    HW282560   2.997   7.041  10.058
93555SOL     OW82561   4.057  13.524  13.650
93555SOL    HW182562   4.130  13.524  13.587
93555SOL    HW282563   3.980  13.541  13.597
93556SOL     OW82564  11.837  13.853   4.362
93556SOL    HW182565  11.845  13.906   4.441
93556SOL    HW282566  11.761  13.889   4.316
93557SOL     OW82567  10.657   4.729   4.362
93557SOL    HW182568  10.696   4.805   4.405
93557SOL    HW282569  10.648   4.755   4.270
93558SOL     OW82570   4.659   5.794   2.862
93558SOL    HW182571   4.569   5.826   2.867
93558SOL    HW282572   4.689   5.795   2.953
93559SOL     OW82573   8.392   2.680   3.509
93559SOL    HW182574   8.450   2.740   3.462
93559SOL    HW282575   8.449   2.610   3.539
93560SOL     OW82576  12.706   7.154   4.180
93560SOL    HW182577  12.650   7.132   4.106
93560SOL    HW282578  12.775   7.208   4.143
93561SOL     OW82579   2.945   7.697   9.529
93561SOL    HW182580   2.910   7.761   9.467
93561SOL    HW282581   2.918   7.612   9.494
93562SOL     OW82582   6.351   3.811   6.991
93562SOL    HW182583   6.388   3.802   6.902
93562SOL    HW282584   6.258   3.830   6.976
93563SOL     OW82585   8.854  12.936   1.615
93563SOL    HW182586   8.874  12.867   1.552
93563SOL    HW282587   8.910  13.009   1.590
93564SOL     OW82588   8.246  10.297   9.921
93564SOL    HW182589   8.272  10.321  10.010
93564SOL    HW282590   8.150  10.300   9.922
93565SOL     OW82591   4.005   2.136   6.582
93565SOL    HW182592   4.067   2.118   6.511
93565SOL    HW282593   4.048   2.204   6.634
93566SOL     OW82594   4.242   0.390  10.935
93566SOL    HW182595   4.212   0.398  11.025
93566SOL    HW282596   4.263   0.479  10.908
93567SOL     OW82597  10.519   1.642   9.745
93567SOL    HW182598  10.513   1.655   9.839
93567SOL    HW282599  10.561   1.722   9.713
93568SOL     OW82600  12.223  10.822   8.667
93568SOL    HW182601  12.294  10.804   8.729
93568SOL    HW282602  12.144  10.790   8.711
93569SOL     OW82603   6.911   3.648   2.517
93569SOL    HW182604   6.851   3.577   2.537
93569SOL    HW282605   6.988   3.630   2.570
93570SOL     OW82606  10.554  14.180  11.187
93570SOL    HW182607  10.511  14.124  11.123
93570SOL    HW282608  10.577  14.121  11.259
93571SOL     OW82609   4.085  10.428   6.153
93571SOL    HW182610   4.090  10.350   6.207
93571SOL    HW282611   3.997  10.426   6.115
93572SOL     OW82612   8.934  11.732   7.267
93572SOL    HW182613   8.854  11.719   7.216
93572SOL    HW282614   8.979  11.805   7.222
93573SOL     OW82615   2.253  13.137  11.772
93573SOL    HW182616   2.241  13.229  11.751
93573SOL    HW282617   2.346  13.120  11.757
93574SOL     OW82618   1.071   2.597  11.666
93574SOL    HW182619   0.986   2.622  11.702
93574SOL    HW282620   1.120   2.679  11.659
93575SOL     OW82621   6.233   4.484   0.820
93575SOL    HW182622   6.164   4.426   0.789
93575SOL    HW282623   6.228   4.561   0.763
93576SOL     OW82624   0.550   8.566   3.190
93576SOL    HW182625   0.542   8.607   3.104
93576SOL    HW282626   0.637   8.591   3.221
93577SOL     OW82627   7.900   7.326   0.347
93577SOL    HW182628   7.809   7.301   0.367
93577SOL    HW282629   7.893   7.413   0.307
93578SOL     OW82630   9.897  14.520   2.491
93578SOL    HW182631   9.930  14.450   2.435
93578SOL    HW282632   9.850  14.579   2.431
93579SOL     OW82633   3.099   8.748   8.784
93579SOL    HW182634   3.011   8.717   8.762
93579SOL    HW282635   3.151   8.728   8.706
93580SOL     OW82636  12.837   3.414   8.434
93580SOL    HW182637  12.749   3.402   8.471
93580SOL    HW282638  12.832   3.497   8.386
93581SOL     OW82639   3.763  10.285   1.236
93581SOL    HW182640   3.857  10.277   1.253
93581SOL    HW282641   3.756  10.358   1.175
93582SOL     OW82642  12.472   4.104   7.832
93582SOL    HW182643  12.550   4.048   7.830
93582SOL    HW282644  12.404   4.051   7.791
93583SOL     OW82645  10.490   1.406   8.296
93583SOL    HW182646  10.500   1.500   8.278
93583SOL    HW282647  10.566   1.365   8.257
93584SOL     OW82648   3.875   3.266   1.772
93584SOL    HW182649   3.957   3.268   1.722
93584SOL    HW282650   3.806   3.266   1.706
93585SOL     OW82651   9.612   6.593   0.925
93585SOL    HW182652   9.695   6.555   0.898
93585SOL    HW282653   9.572   6.625   0.844
93586SOL     OW82654  10.942   9.792   4.920
93586SOL    HW182655  11.018   9.808   4.864
93586SOL    HW282656  10.972   9.817   5.008
93587SOL     OW82657   9.068   6.740   6.059
93587SOL    HW182658   9.061   6.772   5.969
93587SOL    HW282659   9.059   6.819   6.113
93588SOL     OW82660  14.679  13.372   9.340
93588SOL    HW182661  14.677  13.467   9.331
93588SOL    HW282662  14.634  13.340   9.261
93589SOL     OW82663  14.025  11.848   9.245
93589SOL    HW182664  14.022  11.772   9.303
93589SOL    HW282665  14.118  11.866   9.233
93590SOL     OW82666   0.447  11.129   1.567
93590SOL    HW182667   0.531  11.120   1.612
93590SOL    HW282668   0.471  11.138   1.474
93591SOL     OW82669   4.597  13.270   9.093
93591SOL    HW182670   4.619  13.242   9.182
93591SOL    HW282671   4.582  13.364   9.100
93592SOL     OW82672   3.336   4.772  11.651
93592SOL    HW182673   3.255   4.733  11.620
93592SOL    HW282674   3.365   4.829  11.580
93593SOL     OW82675  10.837   4.724   7.610
93593SOL    HW182676  10.917   4.691   7.571
93593SOL    HW282677  10.777   4.736   7.536
93594SOL     OW82678   9.534  11.143  12.446
93594SOL    HW182679   9.580  11.172  12.524
93594SOL    HW282680   9.600  11.097  12.394
93595SOL     OW82681   0.226   2.585   3.254
93595SOL    HW182682   0.304   2.587   3.310
93595SOL    HW282683   0.217   2.493   3.229
93596SOL     OW82684   1.521  12.532   0.241
93596SOL    HW182685   1.493  12.603   0.299
93596SOL    HW282686   1.514  12.569   0.153
93597SOL     OW82687   2.380   1.524   6.128
93597SOL    HW182688   2.437   1.579   6.074
93597SOL    HW282689   2.399   1.550   6.218
93598SOL     OW82690  14.111   9.899   7.367
93598SOL    HW182691  14.147   9.820   7.408
93598SOL    HW282692  14.086   9.870   7.279
93599SOL     OW82693  13.810   6.793   8.031
93599SOL    HW182694  13.781   6.840   8.109
93599SOL    HW282695  13.738   6.804   7.969
93600SOL     OW82696   9.321  13.047   8.448
93600SOL    HW182697   9.391  13.096   8.405
93600SOL    HW282698   9.359  12.962   8.467
93601SOL     OW82699   7.716  13.578   2.176
93601SOL    HW182700   7.791  13.637   2.186
93601SOL    HW282701   7.754  13.490   2.176
93602SOL     OW82702   2.267   0.477   8.234
93602SOL    HW182703   2.299   0.517   8.153
93602SOL    HW282704   2.234   0.392   8.207
93603SOL     OW82705   9.056   4.473   7.326
93603SOL    HW182706   9.133   4.417   7.315
93603SOL    HW282707   9.061   4.504   7.417
93604SOL     OW82708   0.740  10.512  12.771
93604SOL    HW182709   0.745  10.582  12.706
93604SOL    HW282710   0.817  10.458  12.755
93605SOL     OW82711   9.014   4.105  13.535
93605SOL    HW182712   9.109   4.100  13.525
93605SOL    HW282713   8.991   4.021  13.576
93606SOL     OW82714  11.580  13.099  12.999
93606SOL    HW182715  11.579  13.118  13.093
93606SOL    HW282716  11.613  13.009  12.994
93607SOL     OW82717  14.842   4.130  13.258
93607SOL    HW182718  14.787   4.128  13.336
93607SOL    HW282719  14.800   4.068  13.198
93608SOL     OW82720   9.787   7.062  13.560
93608SOL    HW182721   9.847   7.136  13.569
93608SOL    HW282722   9.842   6.985  13.573
93609SOL     OW82723  11.375   9.653   5.646
93609SOL    HW182724  11.450   9.663   5.704
93609SOL    HW282725  11.304   9.698   5.691
93610SOL     OW82726   1.586  10.072  13.370
93610SOL    HW182727   1.589  10.106  13.459
93610SOL    HW282728   1.675  10.084  13.337
93611SOL     OW82729  11.360   5.495   8.513
93611SOL    HW182730  11.308   5.510   8.434
93611SOL    HW282731  11.391   5.405   8.505
93612SOL     OW82732   0.838  11.819   2.780
93612SOL    HW182733   0.823  11.805   2.874
93612SOL    HW282734   0.909  11.758   2.759
93613SOL     OW82735   6.646   0.369   5.637
93613SOL    HW182736   6.629   0.405   5.550
93613SOL    HW282737   6.716   0.306   5.624
93614SOL     OW82738   5.703   0.183  11.144
93614SOL    HW182739   5.750   0.266  11.150
93614SOL    HW282740   5.772   0.117  11.133
93615SOL     OW82741  10.647   4.319  10.569
93615SOL    HW182742  10.582   4.385  10.544
93615SOL    HW282743  10.640   4.315  10.665
93616SOL     OW82744   1.187  12.931  10.223
93616SOL    HW182745   1.274  12.969  10.227
93616SOL    HW282746   1.165  12.932  10.130
93617SOL     OW82747   5.786   4.062   5.245
93617SOL    HW182748   5.768   4.060   5.339
93617SOL    HW282749   5.701   4.080   5.205
93618SOL     OW82750   6.681   2.299   8.988
93618SOL    HW182751   6.736   2.269   8.915
93618SOL    HW282752   6.658   2.219   9.035
93619SOL     OW82753   5.255   9.798  14.128
93619SOL    HW182754   5.309   9.852  14.071
93619SOL    HW282755   5.289   9.816  14.216
93620SOL     OW82756   9.714  11.003  12.260
93620SOL    HW182757   9.655  10.980  12.188
93620SOL    HW282758   9.750  10.919  12.289
93621SOL     OW82759  13.355   5.859  14.245
93621SOL    HW182760  13.304   5.913  14.306
93621SOL    HW282761  13.290   5.801  14.206
93622SOL     OW82762   8.374   1.513   1.935
93622SOL    HW182763   8.296   1.459   1.925
93622SOL    HW282764   8.348   1.582   1.996
93623SOL     OW82765  12.699   0.965  10.096
93623SOL    HW182766  12.635   0.975  10.025
93623SOL    HW282767  12.712   0.871  10.103
93624SOL     OW82768   8.561   0.381  11.878
93624SOL    HW182769   8.490   0.445  11.870
93624SOL    HW282770   8.588   0.387  11.969
93625SOL     OW82771  13.476   3.202  12.323
93625SOL    HW182772  13.420   3.217  12.247
93625SOL    HW282773  13.565   3.219  12.290
93626SOL     OW82774   5.209  10.814  13.792
93626SOL    HW182775   5.179  10.726  13.816
93626SOL    HW282776   5.236  10.854  13.875
93627SOL     OW82777   6.215  13.732   3.652
93627SOL    HW182778   6.221  13.643   3.617
93627SOL    HW282779   6.271  13.784   3.595
93628SOL     OW82780  12.961   9.627  13.300
93628SOL    HW182781  13.033   9.606  13.241
93628SOL    HW282782  12.978   9.577  13.380
93629SOL     OW82783  10.821   0.695   2.935
93629SOL    HW182784  10.828   0.741   3.019
93629SOL    HW282785  10.740   0.644   2.943
93630SOL     OW82786  11.894   6.624  14.548
93630SOL    HW182787  11.840   6.695  14.583
93630SOL    HW282788  11.841   6.545  14.558
93631SOL     OW82789   6.620   4.041   3.816
93631SOL    HW182790   6.542   4.002   3.856
93631SOL    HW282791   6.611   4.022   3.723
93632SOL     OW82792   2.255  13.216  11.024
93632SOL    HW182793   2.275  13.123  11.033
93632SOL    HW282794   2.334  13.254  10.987
93633SOL     OW82795   0.975   1.429   0.186
93633SOL    HW182796   1.003   1.498   0.125
93633SOL    HW282797   0.986   1.469   0.272
93634SOL     OW82798  12.972  13.251  10.301
93634SOL    HW182799  12.906  13.305  10.259
93634SOL    HW282800  12.963  13.165  10.261
93635SOL     OW82801   3.246   2.191  11.185
93635SOL    HW182802   3.318   2.202  11.123
93635SOL    HW282803   3.187   2.264  11.166
93636SOL     OW82804   8.341   8.417   3.603
93636SOL    HW182805   8.270   8.424   3.666
93636SOL    HW282806   8.313   8.472   3.529
93637SOL     OW82807   1.006   8.349   9.345
93637SOL    HW182808   0.917   8.322   9.324
93637SOL    HW282809   0.997   8.437   9.381
93638SOL     OW82810   6.679   2.246   3.340
93638SOL    HW182811   6.692   2.254   3.434
93638SOL    HW282812   6.704   2.156   3.319
93639SOL     OW82813   9.900  14.659   9.252
93639SOL    HW182814   9.811  14.638   9.222
93639SOL    HW282815   9.886  14.717   9.327
93640SOL     OW82816  11.948   7.715  14.712
93640SOL    HW182817  12.012   7.645  14.705
93640SOL    HW282818  11.923   7.735  14.622
93641SOL     OW82819   7.799   8.229   9.363
93641SOL    HW182820   7.770   8.215   9.453
93641SOL    HW282821   7.788   8.143   9.321
93642SOL     OW82822   7.712   7.014   0.471
93642SOL    HW182823   7.740   6.970   0.552
93642SOL    HW282824   7.703   6.944   0.407
93643SOL     OW82825   2.865   2.806  13.752
93643SOL    HW182826   2.879   2.735  13.689
93643SOL    HW282827   2.946   2.809  13.803
93644SOL     OW82828   5.425   6.007   9.884
93644SOL    HW182829   5.463   5.990   9.971
93644SOL    HW282830   5.495   6.052   9.836
93645SOL     OW82831   8.030   9.061   6.451
93645SOL    HW182832   7.998   8.972   6.446
93645SOL    HW282833   8.013   9.098   6.364
93646SOL     OW82834   6.838  13.851   1.602
93646SOL    HW182835   6.767  13.893   1.554
93646SOL    HW282836   6.917  13.872   1.552
93647SOL     OW82837  13.985   3.970  14.576
93647SOL    HW182838  13.953   4.034  14.639
93647SOL    HW282839  14.034   4.021  14.512
93648SOL     OW82840   9.632   5.484  11.281
93648SOL    HW182841   9.623   5.506  11.374
93648SOL    HW282842   9.549   5.442  11.258
93649SOL     OW82843  12.577   2.082  12.257
93649SOL    HW182844  12.657   2.031  12.263
93649SOL    HW282845  12.556   2.105  12.347
93650SOL     OW82846   4.302   9.201   5.390
93650SOL    HW182847   4.332   9.160   5.309
93650SOL    HW282848   4.383   9.222   5.437
93651SOL     OW82849   1.455   3.359   7.956
93651SOL    HW182850   1.378   3.416   7.951
93651SOL    HW282851   1.453   3.308   7.875
93652SOL     OW82852   6.399   6.487   3.769
93652SOL    HW182853   6.491   6.498   3.746
93652SOL    HW282854   6.360   6.572   3.753
93653SOL     OW82855   6.137  11.112   0.219
93653SOL    HW182856   6.093  11.036   0.256
93653SOL    HW282857   6.227  11.106   0.251
93654SOL     OW82858  10.627   4.351  11.927
93654SOL    HW182859  10.635   4.438  11.888
93654SOL    HW282860  10.676   4.357  12.009
93655SOL     OW82861   4.584   4.870   7.546
93655SOL    HW182862   4.578   4.955   7.503
93655SOL    HW282863   4.526   4.876   7.622
93656SOL     OW82864   1.899   9.000   0.896
93656SOL    HW182865   1.828   8.956   0.943
93656SOL    HW282866   1.890   8.970   0.805
93657SOL     OW82867   0.072   3.913   1.299
93657SOL    HW182868  14.870   3.917   1.239
93657SOL    HW282869   0.105   3.824   1.291
93658SOL     OW82870   6.085   6.615  11.615
93658SOL    HW182871   6.067   6.522  11.629
93658SOL    HW282872   6.163   6.616  11.559
93659SOL     OW82873   1.593  14.435   8.364
93659SOL    HW182874   1.640  14.379   8.302
93659SOL    HW282875   1.558  14.375   8.430
93660SOL     OW82876   2.695  12.598   3.470
93660SOL    HW182877   2.625  12.632   3.415
93660SOL    HW282878   2.706  12.664   3.538
93661SOL     OW82879   1.516  14.275   8.944
93661SOL    HW182880   1.573  14.332   8.893
93661SOL    HW282881   1.562  14.191   8.947
93662SOL     OW82882   3.865   8.821   8.316
93662SOL    HW182883   3.907   8.879   8.253
93662SOL    HW282884   3.799   8.773   8.264
93663SOL     OW82885   8.144   8.336  11.685
93663SOL    HW182886   8.212   8.394  11.719
93663SOL    HW282887   8.172   8.315  11.596
93664SOL     OW82888   0.451   1.496  12.332
93664SOL    HW182889   0.429   1.413  12.289
93664SOL    HW282890   0.489   1.550  12.262
93665SOL     OW82891   1.790   2.831   4.671
93665SOL    HW182892   1.865   2.887   4.656
93665SOL    HW282893   1.783   2.825   4.766
93666SOL     OW82894  13.525   9.409  11.659
93666SOL    HW182895  13.545   9.322  11.625
93666SOL    HW282896  13.503   9.461  11.581
93667SOL     OW82897   5.122   8.379   5.125
93667SOL    HW182898   5.077   8.300   5.096
93667SOL    HW282899   5.118   8.376   5.220
93668SOL     OW82900   5.655   5.366  14.545
93668SOL    HW182901   5.569   5.323  14.542
93668SOL    HW282902   5.718   5.294  14.551
93669SOL     OW82903   9.990   8.542   1.783
93669SOL    HW182904   9.949   8.510   1.702
93669SOL    HW282905  10.078   8.504   1.781
93670SOL     OW82906   4.553   2.260   5.161
93670SOL    HW182907   4.536   2.165   5.160
93670SOL    HW282908   4.567   2.280   5.253
93671SOL     OW82909   8.538   9.527  11.057
93671SOL    HW182910   8.468   9.463  11.067
93671SOL    HW282911   8.572   9.512  10.969
93672SOL     OW82912   8.602   7.652   0.239
93672SOL    HW182913   8.508   7.643   0.224
93672SOL    HW282914   8.617   7.747   0.241
93673SOL     OW82915  10.403   9.352  13.799
93673SOL    HW182916  10.458   9.369  13.876
93673SOL    HW282917  10.463   9.360  13.725
93674SOL     OW82918   5.715  11.970  11.709
93674SOL    HW182919   5.692  12.063  11.717
93674SOL    HW282920   5.648  11.933  11.652
93675SOL     OW82921   6.707   2.942   8.472
93675SOL    HW182922   6.687   2.972   8.383
93675SOL    HW282923   6.735   2.851   8.461
93676SOL     OW82924   6.036   6.733   3.009
93676SOL    HW182925   6.050   6.828   3.002
93676SOL    HW282926   6.082   6.708   3.089
93677SOL     OW82927  11.775  13.228  13.438
93677SOL    HW182928  11.813  13.163  13.379
93677SOL    HW282929  11.832  13.305  13.428
93678SOL     OW82930   3.301  11.390  13.949
93678SOL    HW182931   3.395  11.389  13.965
93678SOL    HW282932   3.291  11.366  13.857
93679SOL     OW82933  13.588  13.931   9.366
93679SOL    HW182934  13.563  14.002   9.424
93679SOL    HW282935  13.664  13.964   9.317
93680SOL     OW82936   1.433   8.054   8.426
93680SOL    HW182937   1.490   7.979   8.443
93680SOL    HW282938   1.362   8.045   8.490
93681SOL     OW82939  11.404   4.866  13.819
93681SOL    HW182940  11.455   4.914  13.884
93681SOL    HW282941  11.371   4.789  13.865
93682SOL     OW82942   2.804  12.393   4.587
93682SOL    HW182943   2.773  12.441   4.511
93682SOL    HW282944   2.724  12.371   4.635
93683SOL     OW82945   4.472  14.815  10.988
93683SOL    HW182946   4.521  14.754  11.044
93683SOL    HW282947   4.398  14.764  10.957
93684SOL     OW82948  10.432   3.589   4.828
93684SOL    HW182949  10.456   3.670   4.783
93684SOL    HW282950  10.338   3.596   4.843
93685SOL     OW82951  14.804   8.413   2.360
93685SOL    HW182952  14.715   8.420   2.327
93685SOL    HW282953  14.858   8.398   2.282
93686SOL     OW82954   7.410  11.300  10.940
93686SOL    HW182955   7.424  11.255  10.857
93686SOL    HW282956   7.481  11.270  10.997
93687SOL     OW82957  14.469   7.051  14.094
93687SOL    HW182958  14.450   7.088  14.008
93687SOL    HW282959  14.437   7.116  14.157
93688SOL     OW82960   9.538   5.081  12.384
93688SOL    HW182961   9.454   5.113  12.349
93688SOL    HW282962   9.600   5.152  12.365
93689SOL     OW82963  13.047  10.283   4.471
93689SOL    HW182964  13.109  10.322   4.533
93689SOL    HW282965  13.089  10.292   4.386
93690SOL     OW82966  10.753   5.433  12.838
93690SOL    HW182967  10.659   5.430  12.853
93690SOL    HW282968  10.777   5.525  12.847
93691SOL     OW82969  10.564   8.557   2.540
93691SOL    HW182970  10.615   8.554   2.621
93691SOL    HW282971  10.580   8.471   2.500
93692SOL     OW82972   3.585   9.066   9.248
93692SOL    HW182973   3.534   9.081   9.169
93692SOL    HW282974   3.536   9.000   9.296
93693SOL     OW82975   7.198  10.864   5.698
93693SOL    HW182976   7.255  10.906   5.634
93693SOL    HW282977   7.142  10.806   5.647
93694SOL     OW82978  14.424  12.531  10.687
93694SOL    HW182979  14.480  12.496  10.618
93694SOL    HW282980  14.393  12.615  10.652
93695SOL     OW82981   1.832   2.080  14.713
93695SOL    HW182982   1.906   2.022  14.734
93695SOL    HW282983   1.754   2.028  14.733
93696SOL     OW82984  12.912  13.032  10.117
93696SOL    HW182985  12.930  13.070  10.031
93696SOL    HW282986  12.943  12.942  10.110
93697SOL     OW82987   5.702   0.534   7.649
93697SOL    HW182988   5.664   0.595   7.587
93697SOL    HW282989   5.755   0.474   7.595
93698SOL     OW82990   3.629   8.603  10.436
93698SOL    HW182991   3.721   8.593  10.410
93698SOL    HW282992   3.586   8.524  10.406
93699SOL     OW82993   0.703   1.044  13.573
93699SOL    HW182994   0.640   1.094  13.521
93699SOL    HW282995   0.656   1.021  13.652
93700SOL     OW82996  14.594   0.132   2.936
93700SOL    HW182997  14.565   0.224   2.935
93700SOL    HW282998  14.513   0.081   2.935
93701SOL     OW82999   5.365   8.576   3.493
93701SOL    HW183000   5.373   8.632   3.570
93701SOL    HW283001   5.394   8.490   3.522
93702SOL     OW83002  12.475   6.501   4.168
93702SOL    HW183003  12.483   6.561   4.094
93702SOL    HW283004  12.422   6.549   4.232
93703SOL     OW83005  14.837   4.611   9.653
93703SOL    HW183006  14.822   4.568   9.569
93703SOL    HW283007   0.047   4.574   9.685
93704SOL     OW83008   5.181   8.378   8.902
93704SOL    HW183009   5.163   8.302   8.847
93704SOL    HW283010   5.161   8.453   8.846
93705SOL     OW83011   1.429  14.091   5.303
93705SOL    HW183012   1.384  14.145   5.368
93705SOL    HW283013   1.374  14.014   5.294
93706SOL     OW83014   5.299   0.554   6.942
93706SOL    HW183015   5.216   0.599   6.957
93706SOL    HW283016   5.336   0.597   6.864
93707SOL     OW83017   9.780   1.912   5.336
93707SOL    HW183018   9.818   1.831   5.368
93707SOL    HW283019   9.687   1.892   5.323
93708SOL     OW83020   8.182   0.256   4.370
93708SOL    HW183021   8.171   0.219   4.458
93708SOL    HW283022   8.276   0.272   4.363
93709SOL     OW83023  14.255   5.710   5.300
93709SOL    HW183024  14.248   5.637   5.239
93709SOL    HW283025  14.297   5.673   5.378
93710SOL     OW83026  11.722  13.255   7.739
93710SOL    HW183027  11.746  13.265   7.646
93710SOL    HW283028  11.771  13.324   7.784
93711SOL     OW83029   6.042   8.637  14.456
93711SOL    HW183030   5.968   8.674  14.408
93711SOL    HW283031   6.052   8.695  14.532
93712SOL     OW83032  14.089   9.094   3.744
93712SOL    HW183033  14.050   9.131   3.824
93712SOL    HW283034  14.171   9.142   3.734
93713SOL     OW83035   0.309   3.705   7.903
93713SOL    HW183036   0.297   3.778   7.842
93713SOL    HW283037   0.394   3.669   7.881
93714SOL     OW83038   6.000   0.650   3.237
93714SOL    HW183039   5.965   0.715   3.176
93714SOL    HW283040   5.932   0.643   3.305
93715SOL     OW83041   4.859   1.512   9.948
93715SOL    HW183042   4.843   1.418   9.941
93715SOL    HW283043   4.952   1.519   9.972
93716SOL     OW83044   0.437   1.640   3.398
93716SOL    HW183045   0.365   1.702   3.407
93716SOL    HW283046   0.502   1.670   3.462
93717SOL     OW83047   8.201   8.442  10.163
93717SOL    HW183048   8.236   8.521  10.206
93717SOL    HW283049   8.189   8.467  10.072
93718SOL     OW83050   6.435   4.504   6.863
93718SOL    HW183051   6.434   4.421   6.910
93718SOL    HW283052   6.433   4.480   6.771
93719SOL     OW83053  11.430   3.228   0.853
93719SOL    HW183054  11.443   3.139   0.820
93719SOL    HW283055  11.336   3.234   0.869
93720SOL     OW83056   0.100   4.417   0.630
93720SOL    HW183057   0.143   4.502   0.621
93720SOL    HW283058   0.052   4.405   0.548
93721SOL     OW83059   2.150   4.192  14.150
93721SOL    HW183060   2.220   4.242  14.193
93721SOL    HW283061   2.070   4.223  14.191
93722SOL     OW83062   3.271   5.772   6.106
93722SOL    HW183063   3.256   5.751   6.013
93722SOL    HW283064   3.335   5.706   6.135
93723SOL     OW83065  10.230  14.793   9.388
93723SOL    HW183066  10.194  14.754   9.308
93723SOL    HW283067  10.167  14.861   9.412
93724SOL     OW83068   9.444   0.103   6.954
93724SOL    HW183069   9.401   0.019   6.973
93724SOL    HW283070   9.463   0.140   7.041
93725SOL     OW83071   0.352  11.772  14.299
93725SOL    HW183072   0.362  11.684  14.264
93725SOL    HW283073   0.324  11.825  14.225
93726SOL     OW83074   6.264   2.777  13.521
93726SOL    HW183075   6.330   2.758  13.455
93726SOL    HW283076   6.297   2.736  13.601
93727SOL     OW83077   9.512  12.568   2.412
93727SOL    HW183078   9.436  12.621   2.391
93727SOL    HW283079   9.571  12.627   2.459
93728SOL     OW83080   4.730  10.896   4.484
93728SOL    HW183081   4.759  10.931   4.568
93728SOL    HW283082   4.693  10.810   4.505
93729SOL     OW83083  11.180   5.229   5.322
93729SOL    HW183084  11.209   5.179   5.399
93729SOL    HW283085  11.085   5.232   5.330
93730SOL     OW83086  14.765  10.368   4.897
93730SOL    HW183087  14.777  10.461   4.878
93730SOL    HW283088  14.727  10.332   4.817
93731SOL     OW83089   0.933  10.658  14.287
93731SOL    HW183090   0.888  10.624  14.364
93731SOL    HW283091   0.872  10.642  14.214
93732SOL     OW83092  12.654  10.913   1.124
93732SOL    HW183093  12.562  10.892   1.106
93732SOL    HW283094  12.676  10.981   1.060
93733SOL     OW83095   0.312   5.595  10.077
93733SOL    HW183096   0.340   5.568  10.165
93733SOL    HW283097   0.348   5.683  10.066
93734SOL     OW83098  14.357  13.989   2.930
93734SOL    HW183099  14.430  13.928   2.922
93734SOL    HW283100  14.358  14.015   3.022
93735SOL     OW83101  12.341   1.222  10.819
93735SOL    HW183102  12.377   1.308  10.838
93735SOL    HW283103  12.309   1.229  10.729
93736SOL     OW83104   7.849  10.587   8.497
93736SOL    HW183105   7.896  10.523   8.549
93736SOL    HW283106   7.790  10.536   8.441
93737SOL     OW83107  11.792  12.869   2.237
93737SOL    HW183108  11.838  12.815   2.301
93737SOL    HW283109  11.799  12.958   2.271
93738SOL     OW83110  11.127  11.140   6.634
93738SOL    HW183111  11.188  11.151   6.707
93738SOL    HW283112  11.047  11.186   6.661
93739SOL     OW83113  11.933  11.306   2.672
93739SOL    HW183114  11.947  11.212   2.667
93739SOL    HW283115  12.012  11.340   2.714
93740SOL     OW83116   5.884   8.015  10.000
93740SOL    HW183117   5.924   8.100   9.980
93740SOL    HW283118   5.956   7.960  10.028
93741SOL     OW83119   3.196  10.036   3.970
93741SOL    HW183120   3.125  10.007   4.028
93741SOL    HW283121   3.214  10.126   3.998
93742SOL     OW83122   3.882  14.871   7.950
93742SOL    HW183123   3.908  14.822   7.872
93742SOL    HW283124   3.962   0.007   8.002
93743SOL     OW83125   7.159  14.167  12.967
93743SOL    HW183126   7.211  14.095  12.932
93743SOL    HW283127   7.144  14.224  12.892
93744SOL     OW83128   9.068  11.975   0.912
93744SOL    HW183129   9.070  12.058   0.864
93744SOL    HW283130   9.095  11.909   0.847
93745SOL     OW83131   6.985   6.647  11.687
93745SOL    HW183132   6.930   6.684  11.756
93745SOL    HW283133   7.061   6.705  11.683
93746SOL     OW83134   2.701   0.281   1.967
93746SOL    HW183135   2.705   0.286   1.872
93746SOL    HW283136   2.671   0.192   1.985
93747SOL     OW83137   3.580   0.637   7.362
93747SOL    HW183138   3.563   0.726   7.334
93747SOL    HW283139   3.651   0.644   7.426
93748SOL     OW83140   1.291  13.291   3.834
93748SOL    HW183141   1.311  13.364   3.775
93748SOL    HW283142   1.198  13.302   3.854
93749SOL     OW83143  11.384   9.774  13.190
93749SOL    HW183144  11.435   9.855  13.193
93749SOL    HW283145  11.441   9.712  13.146
93750SOL     OW83146   7.809   8.265   0.122
93750SOL    HW183147   7.788   8.235   0.033
93750SOL    HW283148   7.904   8.252   0.130
93751SOL     OW83149   2.233   9.088  10.148
93751SOL    HW183150   2.208   9.147  10.077
93751SOL    HW283151   2.216   9.137  10.228
93752SOL     OW83152  10.201   5.370   0.244
93752SOL    HW183153  10.138   5.417   0.300
93752SOL    HW283154  10.209   5.426   0.167
93753SOL     OW83155   0.155   4.073   8.037
93753SOL    HW183156   0.113   4.124   8.106
93753SOL    HW283157   0.175   3.989   8.078
93754SOL     OW83158   3.060   9.260   9.192
93754SOL    HW183159   3.131   9.204   9.160
93754SOL    HW283160   2.980   9.215   9.164
93755SOL     OW83161   7.468   2.723  11.544
93755SOL    HW183162   7.548   2.766  11.512
93755SOL    HW283163   7.446   2.659  11.477
93756SOL     OW83164   0.961  13.326   0.544
93756SOL    HW183165   0.998  13.317   0.631
93756SOL    HW283166   0.974  13.418   0.521
93757SOL     OW83167   9.434  11.845   4.244
93757SOL    HW183168   9.381  11.799   4.179
93757SOL    HW283169   9.520  11.804   4.239
93758SOL     OW83170   6.929   5.356   4.593
93758SOL    HW183171   6.926   5.413   4.516
93758SOL    HW283172   7.021   5.330   4.600
93759SOL     OW83173   8.640  10.735   4.103
93759SOL    HW183174   8.574  10.801   4.123
93759SOL    HW283175   8.721  10.769   4.140
93760SOL     OW83176  14.485   6.949   7.748
93760SOL    HW183177  14.399   6.945   7.790
93760SOL    HW283178  14.546   6.914   7.814
93761SOL     OW83179  11.820  11.687   0.289
93761SOL    HW183180  11.887  11.718   0.228
93761SOL    HW283181  11.752  11.648   0.233
93762SOL     OW83182   4.226  12.407  10.715
93762SOL    HW183183   4.302  12.362  10.752
93762SOL    HW283184   4.233  12.496  10.748
93763SOL     OW83185   4.993   3.232   7.769
93763SOL    HW183186   4.982   3.171   7.696
93763SOL    HW283187   5.014   3.176   7.844
93764SOL     OW83188  12.683  13.397   2.788
93764SOL    HW183189  12.640  13.416   2.872
93764SOL    HW283190  12.671  13.302   2.777
93765SOL     OW83191  11.630   9.916  12.067
93765SOL    HW183192  11.665   9.831  12.040
93765SOL    HW283193  11.695   9.980  12.038
93766SOL     OW83194  14.186  11.994   9.462
93766SOL    HW183195  14.282  12.001   9.455
93766SOL    HW283196  14.172  11.937   9.537
93767SOL     OW83197   7.153  11.190   9.991
93767SOL    HW183198   7.059  11.170   9.999
93767SOL    HW283199   7.156  11.272   9.943
93768SOL     OW83200   5.966   8.740   1.565
93768SOL    HW183201   5.878   8.708   1.583
93768SOL    HW283202   5.965   8.765   1.473
93769SOL     OW83203   4.470  11.277  11.649
93769SOL    HW183204   4.423  11.196  11.670
93769SOL    HW283205   4.553  11.248  11.612
93770SOL     OW83206   0.736  10.424  12.492
93770SOL    HW183207   0.792  10.496  12.465
93770SOL    HW283208   0.751  10.355  12.426
93771SOL     OW83209  11.639   5.374   4.259
93771SOL    HW183210  11.614   5.292   4.301
93771SOL    HW283211  11.610   5.365   4.168
93772SOL     OW83212   2.133  12.238  10.071
93772SOL    HW183213   2.108  12.186   9.994
93772SOL    HW283214   2.210  12.193  10.106
93773SOL     OW83215   1.909   0.264   6.237
93773SOL    HW183216   1.838   0.298   6.184
93773SOL    HW283217   1.969   0.339   6.248
93774SOL     OW83218  12.497  13.982  10.482
93774SOL    HW183219  12.502  14.075  10.460
93774SOL    HW283220  12.568  13.968  10.544
93775SOL     OW83221   9.966  12.761   3.306
93775SOL    HW183222  10.025  12.754   3.231
93775SOL    HW283223  10.022  12.747   3.382
93776SOL     OW83224  14.762   4.406   2.442
93776SOL    HW183225  14.752   4.414   2.537
93776SOL    HW283226  14.674   4.384   2.411
93777SOL     OW83227   4.896   8.211   3.438
93777SOL    HW183228   4.851   8.162   3.507
93777SOL    HW283229   4.877   8.163   3.358
93778SOL     OW83230   5.555   0.471  10.117
93778SOL    HW183231   5.644   0.505  10.117
93778SOL    HW283232   5.534   0.461  10.024
93779SOL     OW83233   8.314   9.474  11.510
93779SOL    HW183234   8.398   9.512  11.536
93779SOL    HW283235   8.260   9.549  11.485
93780SOL     OW83236   2.314   6.505   9.199
93780SOL    HW183237   2.357   6.420   9.210
93780SOL    HW283238   2.224   6.490   9.228
93781SOL     OW83239   6.491  13.799  10.400
93781SOL    HW183240   6.480  13.882  10.354
93781SOL    HW283241   6.407  13.783  10.442
93782SOL     OW83242   9.653   4.920  11.248
93782SOL    HW183243   9.705   4.992  11.284
93782SOL    HW283244   9.630   4.950  11.160
93783SOL     OW83245  12.141   8.792   1.434
93783SOL    HW183246  12.078   8.844   1.484
93783SOL    HW283247  12.103   8.787   1.346
93784SOL     OW83248   7.473   5.153  14.237
93784SOL    HW183249   7.523   5.166  14.156
93784SOL    HW283250   7.417   5.230  14.243
93785SOL     OW83251  14.824   9.931  14.623
93785SOL    HW183252  14.815  10.003  14.561
93785SOL    HW283253  14.861   9.859  14.572
93786SOL     OW83254  14.739   3.951   3.464
93786SOL    HW183255  14.798   3.969   3.391
93786SOL    HW283256  14.713   3.860   3.451
93787SOL     OW83257  11.589   2.017   5.311
93787SOL    HW183258  11.657   2.060   5.365
93787SOL    HW283259  11.514   2.010   5.370
93788SOL     OW83260   1.638   3.283   1.456
93788SOL    HW183261   1.667   3.238   1.377
93788SOL    HW283262   1.705   3.349   1.473
93789SOL     OW83263  13.656   6.063  10.131
93789SOL    HW183264  13.585   6.017  10.177
93789SOL    HW283265  13.633   6.054  10.038
93790SOL     OW83266   7.501   8.349   5.379
93790SOL    HW183267   7.406   8.337   5.384
93790SOL    HW283268   7.525   8.310   5.295
93791SOL     OW83269   5.429   7.201   5.572
93791SOL    HW183270   5.488   7.249   5.631
93791SOL    HW283271   5.402   7.124   5.621
93792SOL     OW83272   5.458   4.322   0.873
93792SOL    HW183273   5.537   4.295   0.825
93792SOL    HW283274   5.448   4.415   0.852
93793SOL     OW83275   7.825  14.312   7.754
93793SOL    HW183276   7.844  14.218   7.750
93793SOL    HW283277   7.762  14.326   7.684
93794SOL     OW83278  10.428   5.935   0.747
93794SOL    HW183279  10.476   5.907   0.670
93794SOL    HW283280  10.493   5.934   0.818
93795SOL     OW83281  13.116  11.608   9.983
93795SOL    HW183282  13.023  11.626  10.001
93795SOL    HW283283  13.140  11.671   9.916
93796SOL     OW83284   8.415  14.467  10.596
93796SOL    HW183285   8.349  14.494  10.532
93796SOL    HW283286   8.411  14.534  10.664
93797SOL     OW83287  13.943   9.671   1.307
93797SOL    HW183288  13.934   9.759   1.271
93797SOL    HW283289  13.926   9.682   1.401
93798SOL     OW83290   4.932   8.842   7.739
93798SOL    HW183291   4.937   8.859   7.832
93798SOL    HW283292   4.839   8.845   7.718
93799SOL     OW83293   4.003   7.234  12.636
93799SOL    HW183294   3.977   7.237  12.728
93799SOL    HW283295   3.956   7.306  12.595
93800SOL     OW83296  13.409  14.323   7.704
93800SOL    HW183297  13.467  14.295   7.775
93800SOL    HW283298  13.442  14.279   7.626
93801SOL     OW83299   2.246   5.633   5.627
93801SOL    HW183300   2.295   5.695   5.574
93801SOL    HW283301   2.290   5.549   5.613
93802SOL     OW83302   2.901   9.437   3.778
93802SOL    HW183303   2.822   9.426   3.725
93802SOL    HW283304   2.885   9.383   3.855
93803SOL     OW83305   4.982   4.007   8.893
93803SOL    HW183306   4.916   3.940   8.875
93803SOL    HW283307   5.041   4.003   8.819
93804SOL     OW83308   1.510   4.256  14.147
93804SOL    HW183309   1.454   4.287  14.219
93804SOL    HW283310   1.450   4.250  14.072
93805SOL     OW83311  12.404   2.387  12.558
93805SOL    HW183312  12.323   2.399  12.508
93805SOL    HW283313  12.392   2.440  12.636
93806SOL     OW83314  13.971   2.279   8.417
93806SOL    HW183315  13.972   2.259   8.510
93806SOL    HW283316  13.886   2.320   8.402
93807SOL     OW83317   8.055  11.783   9.331
93807SOL    HW183318   8.056  11.824   9.244
93807SOL    HW283319   7.996  11.708   9.322
93808SOL     OW83320   6.134   2.121   5.134
93808SOL    HW183321   6.156   2.094   5.224
93808SOL    HW283322   6.155   2.215   5.132
93809SOL     OW83323   7.555   3.513   9.443
93809SOL    HW183324   7.511   3.429   9.432
93809SOL    HW283325   7.647   3.490   9.456
93810SOL     OW83326  12.278   1.624   0.425
93810SOL    HW183327  12.268   1.562   0.497
93810SOL    HW283328  12.285   1.709   0.469
93811SOL     OW83329   4.375   1.203   3.754
93811SOL    HW183330   4.361   1.201   3.848
93811SOL    HW283331   4.453   1.258   3.742
93812SOL     OW83332   3.763  12.468   5.860
93812SOL    HW183333   3.845  12.502   5.823
93812SOL    HW283334   3.780  12.462   5.954
93813SOL     OW83335   6.332   3.393  13.536
93813SOL    HW183336   6.301   3.454  13.603
93813SOL    HW283337   6.386   3.330  13.584
93814SOL     OW83338   6.807   3.731   9.608
93814SOL    HW183339   6.801   3.637   9.628
93814SOL    HW283340   6.740   3.746   9.542
93815SOL     OW83341  11.292  12.024   7.473
93815SOL    HW183342  11.244  12.107   7.482
93815SOL    HW283343  11.230  11.958   7.501
93816SOL     OW83344   1.235   7.093   9.786
93816SOL    HW183345   1.154   7.130   9.821
93816SOL    HW283346   1.248   7.139   9.703
93817SOL     OW83347  13.270   3.651   5.425
93817SOL    HW183348  13.344   3.650   5.485
93817SOL    HW283349  13.199   3.611   5.474
93818SOL     OW83350   1.698   3.028   0.907
93818SOL    HW183351   1.695   2.954   0.846
93818SOL    HW283352   1.751   2.996   0.980
93819SOL     OW83353   0.104   1.442   6.262
93819SOL    HW183354   0.044   1.421   6.334
93819SOL    HW283355   0.072   1.389   6.188
93820SOL     OW83356   2.472   8.684   0.583
93820SOL    HW183357   2.471   8.606   0.638
93820SOL    HW283358   2.524   8.748   0.633
93821SOL     OW83359   2.837  14.074  14.695
93821SOL    HW183360   2.756  14.038  14.732
93821SOL    HW283361   2.866  14.008  14.632
93822SOL     OW83362   5.170   3.503   2.032
93822SOL    HW183363   5.076   3.485   2.022
93822SOL    HW283364   5.174   3.594   2.059
93823SOL     OW83365  11.954   6.674   7.701
93823SOL    HW183366  11.986   6.585   7.713
93823SOL    HW283367  12.021   6.719   7.650
93824SOL     OW83368   6.496   0.680   1.759
93824SOL    HW183369   6.536   0.720   1.836
93824SOL    HW283370   6.420   0.735   1.739
93825SOL     OW83371  14.455   5.431   2.522
93825SOL    HW183372  14.408   5.486   2.583
93825SOL    HW283373  14.495   5.363   2.576
93826SOL     OW83374   4.098  13.541   9.596
93826SOL    HW183375   4.154  13.530   9.519
93826SOL    HW283376   4.035  13.469   9.590
93827SOL     OW83377   1.603   8.596   5.764
93827SOL    HW183378   1.685   8.576   5.810
93827SOL    HW283379   1.537   8.545   5.810
93828SOL     OW83380  12.488   4.318  13.589
93828SOL    HW183381  12.493   4.413  13.575
93828SOL    HW283382  12.413   4.290  13.537
93829SOL     OW83383   4.935   9.154   4.683
93829SOL    HW183384   5.020   9.199   4.679
93829SOL    HW283385   4.917   9.129   4.592
93830SOL     OW83386   2.443   7.166   3.729
93830SOL    HW183387   2.395   7.095   3.686
93830SOL    HW283388   2.458   7.231   3.660
93831SOL     OW83389   4.545  11.251  13.479
93831SOL    HW183390   4.628  11.253  13.432
93831SOL    HW283391   4.557  11.310  13.553
93832SOL     OW83392  12.277   2.370   8.574
93832SOL    HW183393  12.349   2.375   8.637
93832SOL    HW283394  12.201   2.348   8.628
93833SOL     OW83395  14.823  10.740  14.129
93833SOL    HW183396   0.039  10.773  14.147
93833SOL    HW283397  14.817  10.739  14.033
93834SOL     OW83398   4.154  12.863   8.556
93834SOL    HW183399   4.153  12.788   8.498
93834SOL    HW283400   4.170  12.938   8.499
93835SOL     OW83401  11.606   5.963   0.645
93835SOL    HW183402  11.699   5.944   0.657
93835SOL    HW283403  11.574   5.985   0.732
93836SOL     OW83404  11.034  12.653   9.825
93836SOL    HW183405  11.031  12.693   9.912
93836SOL    HW283406  11.093  12.710   9.774
93837SOL     OW83407   8.797   4.617   7.317
93837SOL    HW183408   8.776   4.653   7.232
93837SOL    HW283409   8.876   4.565   7.303
93838SOL     OW83410   2.734   7.199   1.032
93838SOL    HW183411   2.826   7.208   1.007
93838SOL    HW283412   2.712   7.280   1.077
93839SOL     OW83413   5.054   0.922   4.282
93839SOL    HW183414   5.005   0.878   4.212
93839SOL    HW283415   5.086   0.851   4.338
93840SOL     OW83416   5.051   4.487  10.979
93840SOL    HW183417   5.142   4.459  10.968
93840SOL    HW283418   5.048   4.519  11.069
93841SOL     OW83419   4.961   1.914   2.485
93841SOL    HW183420   5.011   1.835   2.463
93841SOL    HW283421   4.874   1.881   2.510
93842SOL     OW83422  10.574   6.541  12.878
93842SOL    HW183423  10.554   6.549  12.784
93842SOL    HW283424  10.633   6.614  12.896
93843SOL     OW83425   0.947   3.525   8.663
93843SOL    HW183426   0.985   3.611   8.647
93843SOL    HW283427   0.861   3.543   8.700
93844SOL     OW83428  12.297  12.795   0.307
93844SOL    HW183429  12.283  12.726   0.371
93844SOL    HW283430  12.212  12.838   0.298
93845SOL     OW83431   5.155   0.504   2.872
93845SOL    HW183432   5.164   0.598   2.887
93845SOL    HW283433   5.180   0.492   2.780
93846SOL     OW83434   4.382   7.443  14.617
93846SOL    HW183435   4.339   7.396  14.545
93846SOL    HW283436   4.312   7.492  14.660
93847SOL     OW83437   6.401  13.363  12.993
93847SOL    HW183438   6.350  13.432  13.035
93847SOL    HW283439   6.481  13.406  12.964
93848SOL     OW83440  11.888   8.478   7.659
93848SOL    HW183441  11.832   8.514   7.728
93848SOL    HW283442  11.970   8.457   7.705
93849SOL     OW83443  13.447  11.170  13.556
93849SOL    HW183444  13.514  11.149  13.491
93849SOL    HW283445  13.453  11.266  13.565
93850SOL     OW83446   5.964   7.899   4.055
93850SOL    HW183447   5.942   7.991   4.068
93850SOL    HW283448   6.001   7.872   4.140
93851SOL     OW83449  14.082   8.863   7.885
93851SOL    HW183450  14.014   8.922   7.918
93851SOL    HW283451  14.122   8.912   7.812
93852SOL     OW83452  12.963   9.986   0.445
93852SOL    HW183453  13.044   9.936   0.435
93852SOL    HW283454  12.894   9.923   0.426
93853SOL     OW83455   6.832  14.565  11.224
93853SOL    HW183456   6.913  14.606  11.194
93853SOL    HW283457   6.860  14.508  11.296
93854SOL     OW83458   5.063  10.718   9.585
93854SOL    HW183459   5.066  10.626   9.561
93854SOL    HW283460   5.045  10.718   9.679
93855SOL     OW83461   5.980   7.875   1.494
93855SOL    HW183462   5.941   7.830   1.569
93855SOL    HW283463   5.909   7.930   1.461
93856SOL     OW83464   0.215   3.183  12.143
93856SOL    HW183465   0.291   3.209  12.092
93856SOL    HW283466   0.140   3.202  12.086
93857SOL     OW83467   3.198   7.633   5.470
93857SOL    HW183468   3.270   7.607   5.412
93857SOL    HW283469   3.133   7.672   5.411
93858SOL     OW83470   5.740   1.232   3.849
93858SOL    HW183471   5.831   1.202   3.858
93858SOL    HW283472   5.747   1.318   3.809
93859SOL     OW83473  13.283  12.975   2.869
93859SOL    HW183474  13.295  13.068   2.846
93859SOL    HW283475  13.302  12.928   2.789
93860SOL     OW83476   3.554   3.222   1.711
93860SOL    HW183477   3.465   3.250   1.730
93860SOL    HW283478   3.602   3.238   1.791
93861SOL     OW83479  12.513   6.018   0.127
93861SOL    HW183480  12.503   6.058   0.041
93861SOL    HW283481  12.434   5.967   0.140
93862SOL     OW83482  11.676   8.234  11.310
93862SOL    HW183483  11.659   8.175  11.236
93862SOL    HW283484  11.771   8.247  11.309
93863SOL     OW83485  12.927   1.023   6.549
93863SOL    HW183486  12.964   1.004   6.463
93863SOL    HW283487  12.989   0.986   6.611
93864SOL     OW83488   2.360  10.096  10.933
93864SOL    HW183489   2.330  10.066  11.019
93864SOL    HW283490   2.417  10.171  10.953
93865SOL     OW83491  12.725  12.631  11.445
93865SOL    HW183492  12.713  12.704  11.506
93865SOL    HW283493  12.808  12.592  11.471
93866SOL     OW83494  10.700   7.464   4.664
93866SOL    HW183495  10.762   7.445   4.594
93866SOL    HW283496  10.626   7.404   4.648
93867SOL     OW83497  11.831   3.983   0.261
93867SOL    HW183498  11.844   4.049   0.193
93867SOL    HW283499  11.793   3.909   0.214
93868SOL     OW83500   8.825   9.070   8.841
93868SOL    HW183501   8.865   8.992   8.880
93868SOL    HW283502   8.777   9.111   8.913
93869SOL     OW83503   6.221  10.174   7.420
93869SOL    HW183504   6.144  10.152   7.472
93869SOL    HW283505   6.283  10.209   7.484
93870SOL     OW83506   0.269   8.805   2.265
93870SOL    HW183507   0.247   8.898   2.258
93870SOL    HW283508   0.357   8.798   2.228
93871SOL     OW83509   5.389   6.654   9.206
93871SOL    HW183510   5.459   6.715   9.185
93871SOL    HW283511   5.320   6.709   9.243
93872SOL     OW83512   3.039  11.882  11.849
93872SOL    HW183513   3.108  11.903  11.913
93872SOL    HW283514   3.042  11.787  11.841
93873SOL     OW83515  10.950  14.063   1.794
93873SOL    HW183516  10.917  14.071   1.884
93873SOL    HW283517  10.899  13.992   1.756
93874SOL     OW83518   4.337   2.994  13.041
93874SOL    HW183519   4.316   2.916  12.990
93874SOL    HW283520   4.358   3.061  12.975
93875SOL     OW83521   1.815   8.471   0.287
93875SOL    HW183522   1.759   8.437   0.217
93875SOL    HW283523   1.881   8.403   0.301
93876SOL     OW83524   8.482   5.669   9.476
93876SOL    HW183525   8.541   5.740   9.504
93876SOL    HW283526   8.518   5.591   9.517
93877SOL     OW83527  11.995   5.040  14.511
93877SOL    HW183528  11.992   4.981  14.587
93877SOL    HW283529  12.088   5.050  14.492
93878SOL     OW83530   1.325  13.954   0.574
93878SOL    HW183531   1.336  14.046   0.597
93878SOL    HW283532   1.267  13.955   0.497
93879SOL     OW83533   2.974  14.735  14.221
93879SOL    HW183534   2.884  14.763  14.239
93879SOL    HW283535   3.028  14.810  14.245
93880SOL     OW83536   9.804   0.251  10.979
93880SOL    HW183537   9.849   0.209  11.052
93880SOL    HW283538   9.720   0.206  10.972
93881SOL     OW83539  13.626   6.276  10.333
93881SOL    HW183540  13.631   6.220  10.255
93881SOL    HW283541  13.710   6.262  10.377
93882SOL     OW83542  12.669   5.228   2.758
93882SOL    HW183543  12.595   5.172   2.779
93882SOL    HW283544  12.659   5.304   2.815
93883SOL     OW83545   6.235   4.406   3.362
93883SOL    HW183546   6.239   4.491   3.405
93883SOL    HW283547   6.155   4.409   3.310
93884SOL     OW83548   7.966   3.468   0.486
93884SOL    HW183549   8.048   3.508   0.458
93884SOL    HW283550   7.973   3.377   0.456
93885SOL     OW83551   7.594   8.486  13.775
93885SOL    HW183552   7.666   8.547  13.789
93885SOL    HW283553   7.602   8.424  13.847
93886SOL     OW83554  10.248   6.150   1.695
93886SOL    HW183555  10.180   6.204   1.654
93886SOL    HW283556  10.202   6.071   1.723
93887SOL     OW83557   1.005   5.398   4.020
93887SOL    HW183558   1.096   5.395   4.049
93887SOL    HW283559   1.011   5.403   3.924
93888SOL     OW83560   3.229   9.061   1.280
93888SOL    HW183561   3.172   9.040   1.205
93888SOL    HW283562   3.244   8.977   1.323
93889SOL     OW83563   6.129   8.412   8.181
93889SOL    HW183564   6.103   8.498   8.147
93889SOL    HW283565   6.046   8.369   8.204
93890SOL     OW83566   6.339  13.997   0.101
93890SOL    HW183567   6.307  14.082   0.072
93890SOL    HW283568   6.433  14.010   0.116
93891SOL     OW83569   7.071  14.690  14.261
93891SOL    HW183570   6.980  14.692  14.290
93891SOL    HW283571   7.120  14.733  14.331
93892SOL     OW83572   8.770   7.743  12.907
93892SOL    HW183573   8.685   7.748  12.863
93892SOL    HW283574   8.812   7.827  12.888
93893SOL     OW83575   0.102   5.116   6.176
93893SOL    HW183576   0.016   5.103   6.137
93893SOL    HW283577   0.087   5.114   6.270
93894SOL     OW83578  11.535  11.276  12.161
93894SOL    HW183579  11.538  11.363  12.122
93894SOL    HW283580  11.598  11.281  12.233
93895SOL     OW83581   0.857   2.618   6.745
93895SOL    HW183582   0.832   2.691   6.688
93895SOL    HW283583   0.900   2.556   6.687
93896SOL     OW83584  10.241   9.755  11.947
93896SOL    HW183585  10.255   9.665  11.919
93896SOL    HW283586  10.309   9.805  11.902
93897SOL     OW83587   0.824   6.736   5.019
93897SOL    HW183588   0.905   6.693   4.991
93897SOL    HW283589   0.759   6.707   4.956
93898SOL     OW83590   9.660   2.903   4.532
93898SOL    HW183591   9.657   2.809   4.550
93898SOL    HW283592   9.748   2.930   4.558
93899SOL     OW83593   9.403  12.463   0.219
93899SOL    HW183594   9.440  12.469   0.131
93899SOL    HW283595   9.436  12.381   0.254
93900SOL     OW83596   5.854   1.628   9.999
93900SOL    HW183597   5.934   1.607  10.047
93900SOL    HW283598   5.837   1.720  10.019
93901SOL     OW83599   4.264   1.847  13.058
93901SOL    HW183600   4.253   1.931  13.013
93901SOL    HW283601   4.229   1.783  12.997
93902SOL     OW83602   5.490  11.620  11.512
93902SOL    HW183603   5.499  11.689  11.577
93902SOL    HW283604   5.511  11.662  11.428
93903SOL     OW83605  14.793  13.393   1.501
93903SOL    HW183606  14.739  13.418   1.426
93903SOL    HW283607  14.863  13.458   1.504
93904SOL     OW83608   9.078   7.812  12.600
93904SOL    HW183609   9.172   7.812  12.579
93904SOL    HW283610   9.070   7.759  12.679
93905SOL     OW83611  14.494   3.700   0.101
93905SOL    HW183612  14.502   3.781   0.152
93905SOL    HW283613  14.434   3.646   0.152
93906SOL     OW83614   3.199   4.989  13.011
93906SOL    HW183615   3.181   5.082  13.017
93906SOL    HW283616   3.155   4.960  12.931
93907SOL     OW83617   9.812   9.117  13.131
93907SOL    HW183618   9.908   9.108  13.130
93907SOL    HW283619   9.780   9.032  13.103
93908SOL     OW83620   9.162  12.155   3.739
93908SOL    HW183621   9.131  12.224   3.680
93908SOL    HW283622   9.233  12.196   3.788
93909SOL     OW83623   0.936   4.081   5.813
93909SOL    HW183624   0.889   4.137   5.875
93909SOL    HW283625   0.960   4.004   5.864
93910SOL     OW83626   0.916   4.766   2.849
93910SOL    HW183627   0.931   4.673   2.828
93910SOL    HW283628   0.987   4.812   2.804
93911SOL     OW83629   9.212   3.574  10.533
93911SOL    HW183630   9.222   3.663  10.501
93911SOL    HW283631   9.300   3.546  10.556
93912SOL     OW83632  10.200   4.486  13.591
93912SOL    HW183633  10.178   4.575  13.563
93912SOL    HW283634  10.296   4.485  13.594
93913SOL     OW83635   9.082  11.541   0.861
93913SOL    HW183636   8.988  11.541   0.846
93913SOL    HW283637   9.096  11.472   0.927
93914SOL     OW83638  11.994   7.701   4.610
93914SOL    HW183639  11.983   7.779   4.665
93914SOL    HW283640  12.084   7.673   4.625
93915SOL     OW83641   1.925  12.955   5.784
93915SOL    HW183642   1.901  13.001   5.864
93915SOL    HW283643   1.842  12.919   5.751
93916SOL     OW83644   5.467   2.968  11.847
93916SOL    HW183645   5.534   2.924  11.795
93916SOL    HW283646   5.414   3.015  11.783
93917SOL     OW83647   3.084   5.410  12.008
93917SOL    HW183648   3.062   5.414  12.101
93917SOL    HW283649   3.175   5.440  12.003
93918SOL     OW83650   7.499   8.368   8.152
93918SOL    HW183651   7.467   8.278   8.157
93918SOL    HW283652   7.589   8.363   8.184
93919SOL     OW83653  13.534  13.424  11.139
93919SOL    HW183654  13.444  13.429  11.109
93919SOL    HW283655  13.586  13.418  11.059
93920SOL     OW83656   3.779  14.816  12.466
93920SOL    HW183657   3.745   0.030  12.442
93920SOL    HW283658   3.871  14.832  12.488
93921SOL     OW83659  10.524   3.097   8.419
93921SOL    HW183660  10.556   3.077   8.331
93921SOL    HW283661  10.567   3.179   8.442
93922SOL     OW83662   4.479   0.624   4.041
93922SOL    HW183663   4.526   0.554   3.997
93922SOL    HW283664   4.531   0.644   4.118
93923SOL     OW83665   9.630   7.042   2.113
93923SOL    HW183666   9.539   7.040   2.083
93923SOL    HW283667   9.627   7.095   2.193
93924SOL     OW83668   2.688   8.885   6.119
93924SOL    HW183669   2.605   8.841   6.135
93924SOL    HW283670   2.732   8.886   6.204
93925SOL     OW83671   2.972  12.199   4.166
93925SOL    HW183672   2.928  12.196   4.251
93925SOL    HW283673   3.047  12.141   4.175
93926SOL     OW83674   3.775   8.580  13.637
93926SOL    HW183675   3.750   8.672  13.646
93926SOL    HW283676   3.866   8.577  13.667
93927SOL     OW83677   0.264   9.852   3.813
93927SOL    HW183678   0.311   9.934   3.799
93927SOL    HW283679   0.261   9.843   3.909
93928SOL     OW83680   8.757   1.956   2.867
93928SOL    HW183681   8.835   1.952   2.812
93928SOL    HW283682   8.692   1.903   2.821
93929SOL     OW83683   0.899  13.964  14.397
93929SOL    HW183684   0.915  14.053  14.430
93929SOL    HW283685   0.974  13.946  14.341
93930SOL     OW83686   9.721  14.132   8.574
93930SOL    HW183687   9.701  14.073   8.501
93930SOL    HW283688   9.816  14.122   8.587
93931SOL     OW83689   7.230  13.026   1.853
93931SOL    HW183690   7.307  13.020   1.910
93931SOL    HW283691   7.168  13.079   1.902
93932SOL     OW83692  10.204   5.787  12.962
93932SOL    HW183693  10.267   5.857  12.944
93932SOL    HW283694  10.164   5.770  12.877
93933SOL     OW83695   6.619   6.194   8.711
93933SOL    HW183696   6.592   6.166   8.799
93933SOL    HW283697   6.714   6.206   8.717
93934SOL     OW83698   0.632   4.723   7.036
93934SOL    HW183699   0.685   4.660   6.986
93934SOL    HW283700   0.655   4.706   7.128
93935SOL     OW83701  12.300   7.020   5.881
93935SOL    HW183702  12.385   6.980   5.864
93935SOL    HW283703  12.240   6.946   5.888
93936SOL     OW83704   4.557   1.201  12.017
93936SOL    HW183705   4.598   1.129  12.065
93936SOL    HW283706   4.602   1.203  11.933
93937SOL     OW83707  13.520  11.232   8.101
93937SOL    HW183708  13.547  11.317   8.068
93937SOL    HW283709  13.491  11.184   8.024
93938SOL     OW83710   5.410   8.318   3.567
93938SOL    HW183711   5.337   8.287   3.515
93938SOL    HW283712   5.383   8.305   3.658
93939SOL     OW83713   3.149   8.250  13.724
93939SOL    HW183714   3.185   8.248  13.635
93939SOL    HW283715   3.164   8.339  13.754
93940SOL     OW83716  10.419   2.507  12.185
93940SOL    HW183717  10.326   2.498  12.209
93940SOL    HW283718  10.459   2.425  12.213
93941SOL     OW83719   4.974   6.805   3.145
93941SOL    HW183720   5.021   6.801   3.228
93941SOL    HW283721   4.985   6.895   3.116
93942SOL     OW83722   0.159   9.634   7.571
93942SOL    HW183723   0.253   9.653   7.581
93942SOL    HW283724   0.128   9.701   7.510
93943SOL     OW83725   2.633   6.186   0.122
93943SOL    HW183726   2.669   6.244   0.055
93943SOL    HW283727   2.592   6.115   0.072
93944SOL     OW83728   1.347  11.842  14.674
93944SOL    HW183729   1.263  11.806  14.647
93944SOL    HW283730   1.354  11.821  14.768
93945SOL     OW83731   1.315   1.084  11.852
93945SOL    HW183732   1.349   1.002  11.887
93945SOL    HW283733   1.262   1.120  11.923
93946SOL     OW83734  11.520   0.018   3.872
93946SOL    HW183735  11.427   0.035   3.855
93946SOL    HW283736  11.532  14.798   3.849
93947SOL     OW83737   2.550   7.169   0.671
93947SOL    HW183738   2.519   7.165   0.581
93947SOL    HW283739   2.470   7.163   0.724
93948SOL     OW83740  13.415   1.441   6.826
93948SOL    HW183741  13.337   1.395   6.796
93948SOL    HW283742  13.473   1.371   6.858
93949SOL     OW83743   5.237  12.563   9.302
93949SOL    HW183744   5.174  12.521   9.360
93949SOL    HW283745   5.281  12.628   9.357
93950SOL     OW83746  12.239   6.440   2.408
93950SOL    HW183747  12.214   6.530   2.430
93950SOL    HW283748  12.165   6.406   2.359
93951SOL     OW83749   3.389   1.631  10.231
93951SOL    HW183750   3.319   1.684  10.193
93951SOL    HW283751   3.452   1.694  10.264
93952SOL     OW83752   8.227  13.775   3.211
93952SOL    HW183753   8.260  13.822   3.287
93952SOL    HW283754   8.305  13.753   3.160
93953SOL     OW83755   7.993   6.380   1.678
93953SOL    HW183756   8.004   6.325   1.755
93953SOL    HW283757   7.903   6.411   1.682
93954SOL     OW83758   9.994   8.261  11.901
93954SOL    HW183759  10.068   8.241  11.844
93954SOL    HW283760   9.920   8.274  11.841
93955SOL     OW83761  10.325   7.585   5.834
93955SOL    HW183762  10.260   7.519   5.858
93955SOL    HW283763  10.275   7.654   5.790
93956SOL     OW83764   4.844  14.440   8.981
93956SOL    HW183765   4.780  14.486   8.927
93956SOL    HW283766   4.825  14.467   9.071
93957SOL     OW83767   8.881  11.640   1.770
93957SOL    HW183768   8.956  11.667   1.823
93957SOL    HW283769   8.847  11.722   1.733
93958SOL     OW83770  13.629   2.918   1.875
93958SOL    HW183771  13.651   2.890   1.786
93958SOL    HW283772  13.572   2.848   1.908
93959SOL     OW83773   6.751   4.573   6.993
93959SOL    HW183774   6.736   4.645   6.931
93959SOL    HW283775   6.716   4.496   6.949
93960SOL     OW83776   0.546   3.702   2.703
93960SOL    HW183777   0.617   3.657   2.747
93960SOL    HW283778   0.568   3.795   2.708
93961SOL     OW83779  13.069  12.622   6.192
93961SOL    HW183780  12.988  12.579   6.220
93961SOL    HW283781  13.040  12.703   6.150
93962SOL     OW83782   6.250  10.461   9.213
93962SOL    HW183783   6.275  10.538   9.162
93962SOL    HW283784   6.156  10.452   9.200
93963SOL     OW83785  11.790   5.303  13.852
93963SOL    HW183786  11.802   5.229  13.911
93963SOL    HW283787  11.745   5.266  13.776
93964SOL     OW83788  12.488   1.088  14.564
93964SOL    HW183789  12.573   1.074  14.522
93964SOL    HW283790  12.492   1.176  14.600
93965SOL     OW83791  13.043  10.681  12.500
93965SOL    HW183792  13.034  10.613  12.434
93965SOL    HW283793  13.040  10.634  12.584
93966SOL     OW83794  10.748   9.506  11.190
93966SOL    HW183795  10.680   9.476  11.250
93966SOL    HW283796  10.699   9.536  11.113
93967SOL     OW83797   1.560   6.005   4.808
93967SOL    HW183798   1.635   6.011   4.748
93967SOL    HW283799   1.493   6.060   4.767
93968SOL     OW83800   0.209   1.192  12.555
93968SOL    HW183801   0.124   1.150  12.567
93968SOL    HW283802   0.196   1.254  12.483
93969SOL     OW83803   1.251   1.047   7.495
93969SOL    HW183804   1.213   1.116   7.550
93969SOL    HW283805   1.273   1.091   7.413
93970SOL     OW83806   2.404  10.467   6.237
93970SOL    HW183807   2.357  10.546   6.209
93970SOL    HW283808   2.391  10.406   6.164
93971SOL     OW83809   4.969  14.148   9.583
93971SOL    HW183810   4.954  14.127   9.491
93971SOL    HW283811   4.888  14.190   9.611
93972SOL     OW83812   6.803   0.350  13.261
93972SOL    HW183813   6.748   0.371  13.185
93972SOL    HW283814   6.865   0.286  13.227
93973SOL     OW83815   0.250   7.881   3.152
93973SOL    HW183816   0.334   7.838   3.139
93973SOL    HW283817   0.188   7.809   3.163
93974SOL     OW83818   0.753  12.162  11.549
93974SOL    HW183819   0.827  12.127  11.499
93974SOL    HW283820   0.777  12.151  11.640
93975SOL     OW83821   8.632  13.026   5.853
93975SOL    HW183822   8.565  12.963   5.880
93975SOL    HW283823   8.643  13.011   5.759
93976SOL     OW83824   7.653   3.283  10.842
93976SOL    HW183825   7.623   3.206  10.889
93976SOL    HW283826   7.592   3.291  10.768
93977SOL     OW83827  14.399   5.959  13.470
93977SOL    HW183828  14.470   5.924  13.523
93977SOL    HW283829  14.319   5.935  13.517
93978SOL     OW83830   0.646   4.651   0.563
93978SOL    HW183831   0.585   4.584   0.532
93978SOL    HW283832   0.733   4.616   0.542
93979SOL     OW83833   8.697   2.335   3.117
93979SOL    HW183834   8.660   2.293   3.040
93979SOL    HW283835   8.666   2.425   3.113
93980SOL     OW83836  14.657  13.843   3.264
93980SOL    HW183837  14.664  13.937   3.284
93980SOL    HW283838  14.564  13.823   3.278
93981SOL     OW83839  14.801  13.647  10.977
93981SOL    HW183840  14.858  13.580  10.939
93981SOL    HW283841  14.792  13.622  11.069
93982SOL     OW83842   2.774  14.175   0.798
93982SOL    HW183843   2.779  14.080   0.813
93982SOL    HW283844   2.808  14.214   0.878
93983SOL     OW83845  14.606   9.689   9.429
93983SOL    HW183846  14.572   9.749   9.495
93983SOL    HW283847  14.529   9.664   9.377
93984SOL     OW83848   9.091   8.153   2.174
93984SOL    HW183849   9.006   8.196   2.164
93984SOL    HW283850   9.086   8.076   2.117
93985SOL     OW83851   7.250   3.494   9.120
93985SOL    HW183852   7.277   3.440   9.195
93985SOL    HW283853   7.313   3.567   9.120
93986SOL     OW83854   6.955   3.434   9.341
93986SOL    HW183855   6.868   3.461   9.311
93986SOL    HW283856   7.015   3.492   9.294
93987SOL     OW83857   3.838   2.389   4.333
93987SOL    HW183858   3.835   2.439   4.252
93987SOL    HW283859   3.776   2.432   4.391
93988SOL     OW83860   8.603  10.669   7.961
93988SOL    HW183861   8.535  10.731   7.988
93988SOL    HW283862   8.666  10.671   8.033
93989SOL     OW83863   8.664   1.446   9.578
93989SOL    HW183864   8.613   1.496   9.514
93989SOL    HW283865   8.625   1.358   9.576
93990SOL     OW83866   8.277   0.536   8.756
93990SOL    HW183867   8.354   0.590   8.772
93990SOL    HW283868   8.277   0.522   8.661
93991SOL     OW83869   4.991  14.794   8.495
93991SOL    HW183870   4.959   0.007   8.466
93991SOL    HW283871   5.082  14.791   8.465
93992SOL     OW83872   9.743   9.850   1.173
93992SOL    HW183873   9.654   9.857   1.207
93992SOL    HW283874   9.791   9.922   1.214
93993SOL     OW83875   1.374  12.550   9.012
93993SOL    HW183876   1.393  12.466   8.970
93993SOL    HW283877   1.432  12.553   9.088
93994SOL     OW83878   0.761   1.738  12.291
93994SOL    HW183879   0.760   1.733  12.195
93994SOL    HW283880   0.835   1.794  12.312
93995SOL     OW83881   0.999  10.604   4.185
93995SOL    HW183882   0.955  10.607   4.100
93995SOL    HW283883   1.091  10.621   4.164
93996SOL     OW83884  11.169   5.792   8.604
93996SOL    HW183885  11.196   5.873   8.646
93996SOL    HW283886  11.180   5.809   8.510
93997SOL     OW83887  10.806  12.793  10.873
93997SOL    HW183888  10.732  12.823  10.925
93997SOL    HW283889  10.804  12.698  10.880
93998SOL     OW83890  12.186   4.458  10.035
93998SOL    HW183891  12.231   4.444  10.118
93998SOL    HW283892  12.235   4.403   9.973
93999SOL     OW83893   1.604   8.169   5.959
93999SOL    HW183894   1.647   8.209   5.883
93999SOL    HW283895   1.610   8.075   5.943
94000SOL     OW83896   7.594   4.682   1.696
94000SOL    HW183897   7.642   4.701   1.615
94000SOL    HW283898   7.511   4.729   1.686
94001SOL     OW83899  10.672   8.750   1.441
94001SOL    HW183900  10.726   8.671   1.437
94001SOL    HW283901  10.646   8.757   1.533
94002SOL     OW83902  12.332   0.290   6.461
94002SOL    HW183903  12.343   0.293   6.556
94002SOL    HW283904  12.408   0.338   6.427
94003SOL     OW83905   6.688   3.753   8.683
94003SOL    HW183906   6.596   3.747   8.656
94003SOL    HW283907   6.735   3.779   8.604
94004SOL     OW83908   5.890   2.658   9.123
94004SOL    HW183909   5.861   2.746   9.097
94004SOL    HW283910   5.840   2.638   9.202
94005SOL     OW83911   7.163   1.828   9.507
94005SOL    HW183912   7.082   1.878   9.517
94005SOL    HW283913   7.195   1.852   9.420
94006SOL     OW83914   8.384  11.382   6.941
94006SOL    HW183915   8.444  11.312   6.966
94006SOL    HW283916   8.307  11.368   6.996
94007SOL     OW83917  14.650  12.989   1.814
94007SOL    HW183918  14.649  12.949   1.727
94007SOL    HW283919  14.714  12.937   1.864
94008SOL     OW83920   7.804   4.244   2.578
94008SOL    HW183921   7.765   4.278   2.659
94008SOL    HW283922   7.737   4.187   2.541
94009SOL     OW83923   0.700   7.772   0.311
94009SOL    HW183924   0.625   7.718   0.335
94009SOL    HW283925   0.754   7.715   0.256
94010SOL     OW83926  13.685  14.133   0.952
94010SOL    HW183927  13.714  14.212   0.997
94010SOL    HW283928  13.755  14.114   0.889
94011SOL     OW83929   4.532   8.245   2.016
94011SOL    HW183930   4.457   8.280   2.065
94011SOL    HW283931   4.586   8.202   2.082
94012SOL     OW83932  10.754   4.768   6.056
94012SOL    HW183933  10.745   4.790   6.148
94012SOL    HW283934  10.710   4.839   6.009
94013SOL     OW83935   8.035   5.378   1.362
94013SOL    HW183936   8.012   5.342   1.447
94013SOL    HW283937   8.043   5.472   1.376
94014SOL     OW83938   5.693   0.937   3.571
94014SOL    HW183939   5.620   0.921   3.632
94014SOL    HW283940   5.767   0.890   3.609
94015SOL     OW83941   6.297  12.721   9.462
94015SOL    HW183942   6.228  12.786   9.452
94015SOL    HW283943   6.296  12.698   9.555
94016SOL     OW83944   6.525  12.257  12.382
94016SOL    HW183945   6.535  12.352  12.380
94016SOL    HW283946   6.551  12.228  12.295
94017SOL     OW83947  13.069  12.872   1.716
94017SOL    HW183948  13.116  12.954   1.725
94017SOL    HW283949  13.056  12.841   1.806
94018SOL     OW83950   6.987  14.490  12.233
94018SOL    HW183951   7.029  14.405  12.244
94018SOL    HW283952   6.921  14.476  12.166
94019SOL     OW83953  10.255   1.492   7.337
94019SOL    HW183954  10.306   1.546   7.277
94019SOL    HW283955  10.252   1.542   7.418
94020SOL     OW83956   5.913  11.406  10.207
94020SOL    HW183957   5.923  11.321  10.166
94020SOL    HW283958   5.959  11.467  10.148
94021SOL     OW83959   2.602  10.462   5.471
94021SOL    HW183960   2.598  10.543   5.521
94021SOL    HW283961   2.511  10.438   5.456
94022SOL     OW83962   4.688  13.040   3.427
94022SOL    HW183963   4.732  13.058   3.343
94022SOL    HW283964   4.597  13.024   3.403
94023SOL     OW83965   0.918   2.907   1.398
94023SOL    HW183966   0.975   2.973   1.437
94023SOL    HW283967   0.958   2.889   1.312
94024SOL     OW83968   4.910  12.354   3.981
94024SOL    HW183969   4.875  12.442   3.973
94024SOL    HW283970   4.982  12.362   4.044
94025SOL     OW83971   4.053  10.929   6.060
94025SOL    HW183972   4.101  10.898   5.984
94025SOL    HW283973   4.010  10.851   6.095
94026SOL     OW83974   5.281  13.535  12.364
94026SOL    HW183975   5.374  13.549  12.349
94026SOL    HW283976   5.266  13.565  12.453
94027SOL     OW83977  12.217   9.446   9.286
94027SOL    HW183978  12.266   9.509   9.339
94027SOL    HW283979  12.238   9.469   9.195
94028SOL     OW83980   7.675  12.742   6.969
94028SOL    HW183981   7.694  12.781   6.883
94028SOL    HW283982   7.669  12.816   7.028
94029SOL     OW83983   6.956  10.449  12.010
94029SOL    HW183984   6.914  10.366  11.986
94029SOL    HW283985   6.961  10.498  11.928
94030SOL     OW83986   5.746   6.435  11.282
94030SOL    HW183987   5.800   6.502  11.324
94030SOL    HW283988   5.802   6.400  11.213
94031SOL     OW83989   2.592   7.340   4.936
94031SOL    HW183990   2.502   7.309   4.921
94031SOL    HW283991   2.588   7.385   5.021
94032SOL     OW83992   4.576  10.175   7.534
94032SOL    HW183993   4.605  10.090   7.568
94032SOL    HW283994   4.567  10.230   7.611
94033SOL     OW83995   1.058  10.298   8.843
94033SOL    HW183996   1.110  10.236   8.793
94033SOL    HW283997   0.967  10.272   8.827
94034SOL     OW83998   1.072  12.733  13.345
94034SOL    HW183999   1.098  12.674  13.274
94034SOL    HW284000   1.141  12.799  13.347
94035SOL     OW84001   3.185  10.945  14.026
94035SOL    HW184002   3.101  10.903  14.045
94035SOL    HW284003   3.174  11.034  14.059
94036SOL     OW84004  10.062  10.153   5.767
94036SOL    HW184005  10.128  10.159   5.698
94036SOL    HW284006   9.998  10.220   5.744
94037SOL     OW84007   2.538   7.721   3.739
94037SOL    HW184008   2.633   7.717   3.725
94037SOL    HW284009   2.528   7.775   3.817
94038SOL     OW84010   6.364  13.869   3.183
94038SOL    HW184011   6.293  13.887   3.245
94038SOL    HW284012   6.374  13.773   3.186
94039SOL     OW84013  14.767   3.635   9.151
94039SOL    HW184014  14.776   3.539   9.147
94039SOL    HW284015  14.740   3.660   9.062
94040SOL     OW84016   2.507   8.834   2.876
94040SOL    HW184017   2.592   8.797   2.851
94040SOL    HW284018   2.483   8.785   2.955
94041SOL     OW84019   2.857  11.121   1.956
94041SOL    HW184020   2.771  11.120   1.913
94041SOL    HW284021   2.839  11.155   2.044
94042SOL     OW84022  10.757   5.759   6.411
94042SOL    HW184023  10.803   5.836   6.444
94042SOL    HW284024  10.739   5.706   6.488
94043SOL     OW84025  11.094  11.793   5.566
94043SOL    HW184026  11.023  11.782   5.503
94043SOL    HW284027  11.070  11.871   5.615
94044SOL     OW84028  13.188  12.888   1.267
94044SOL    HW184029  13.155  12.945   1.337
94044SOL    HW284030  13.203  12.804   1.310
94045SOL     OW84031   4.665   7.093   6.462
94045SOL    HW184032   4.644   7.102   6.555
94045SOL    HW284033   4.739   7.152   6.448
94046SOL     OW84034   1.595   2.943   8.968
94046SOL    HW184035   1.647   2.863   8.974
94046SOL    HW284036   1.525   2.922   8.906
94047SOL     OW84037  12.310  11.655   7.760
94047SOL    HW184038  12.350  11.570   7.779
94047SOL    HW284039  12.216  11.637   7.758
94048SOL     OW84040  14.398  10.384   7.516
94048SOL    HW184041  14.444  10.334   7.449
94048SOL    HW284042  14.425  10.475   7.500
94049SOL     OW84043   0.989   3.970  11.276
94049SOL    HW184044   0.989   3.895  11.216
94049SOL    HW284045   0.988   3.930  11.363
94050SOL     OW84046  12.434  10.857   4.413
94050SOL    HW184047  12.399  10.782   4.461
94050SOL    HW284048  12.483  10.907   4.479
94051SOL     OW84049   2.526  11.053   7.086
94051SOL    HW184050   2.595  10.990   7.061
94051SOL    HW284051   2.573  11.135   7.101
94052SOL     OW84052   5.237   3.248   4.556
94052SOL    HW184053   5.267   3.240   4.646
94052SOL    HW284054   5.158   3.302   4.561
94053SOL     OW84055   4.116  14.250   7.498
94053SOL    HW184056   4.190  14.302   7.467
94053SOL    HW284057   4.116  14.263   7.593
94054SOL     OW84058  12.609   3.199   9.608
94054SOL    HW184059  12.621   3.112   9.645
94054SOL    HW284060  12.610   3.257   9.684
94055SOL     OW84061  10.778   2.260  14.541
94055SOL    HW184062  10.698   2.296  14.504
94055SOL    HW284063  10.761   2.254  14.635
94056SOL     OW84064  11.279  11.190   8.929
94056SOL    HW184065  11.367  11.200   8.892
94056SOL    HW284066  11.263  11.272   8.976
94057SOL     OW84067   4.332  12.968   1.980
94057SOL    HW184068   4.317  13.017   1.898
94057SOL    HW284069   4.320  13.033   2.049
94058SOL     OW84070  11.172   2.249   6.579
94058SOL    HW184071  11.249   2.220   6.628
94058SOL    HW284072  11.189   2.224   6.489
94059SOL     OW84073  12.763  12.570   6.534
94059SOL    HW184074  12.822  12.626   6.584
94059SOL    HW284075  12.815  12.493   6.511
94060SOL     OW84076   6.919  11.944   1.732
94060SOL    HW184077   6.926  11.941   1.827
94060SOL    HW284078   7.008  11.958   1.701
94061SOL     OW84079  11.997   5.256   4.649
94061SOL    HW184080  11.905   5.232   4.654
94061SOL    HW284081  11.999   5.349   4.669
94062SOL     OW84082   1.379   3.336  13.664
94062SOL    HW184083   1.390   3.290  13.580
94062SOL    HW284084   1.459   3.387  13.674
94063SOL     OW84085   1.742   7.593   9.763
94063SOL    HW184086   1.653   7.585   9.729
94063SOL    HW284087   1.743   7.537   9.840
94064SOL     OW84088   4.116   3.932   5.795
94064SOL    HW184089   4.077   4.016   5.772
94064SOL    HW284090   4.152   3.898   5.712
94065SOL     OW84091  11.648  13.684  13.395
94065SOL    HW184092  11.716  13.641  13.447
94065SOL    HW284093  11.567  13.665  13.443
94066SOL     OW84094  11.407  10.285   0.227
94066SOL    HW184095  11.402  10.226   0.302
94066SOL    HW284096  11.476  10.347   0.250
94067SOL     OW84097   3.745   8.553   7.255
94067SOL    HW184098   3.796   8.602   7.190
94067SOL    HW284099   3.804   8.541   7.329
94068SOL     OW84100   5.366   6.756  14.405
94068SOL    HW184101   5.366   6.683  14.467
94068SOL    HW284102   5.303   6.818  14.442
94069SOL     OW84103  12.789   8.598   9.629
94069SOL    HW184104  12.800   8.623   9.537
94069SOL    HW284105  12.855   8.531   9.644
94070SOL     OW84106  10.577   5.663   5.778
94070SOL    HW184107  10.552   5.578   5.742
94070SOL    HW284108  10.503   5.688   5.834
94071SOL     OW84109   9.954  14.049  12.323
94071SOL    HW184110   9.973  14.027  12.232
94071SOL    HW284111   9.878  14.107  12.318
94072SOL     OW84112   2.540   1.011   6.881
94072SOL    HW184113   2.610   0.946   6.875
94072SOL    HW284114   2.527   1.041   6.791
94073SOL     OW84115   9.987   7.329   2.677
94073SOL    HW184116   9.908   7.383   2.686
94073SOL    HW284117   9.961   7.243   2.710
94074SOL     OW84118   2.135   4.678   7.893
94074SOL    HW184119   2.056   4.664   7.946
94074SOL    HW284120   2.111   4.748   7.832
94075SOL     OW84121   2.707   5.814  10.498
94075SOL    HW184122   2.704   5.720  10.482
94075SOL    HW284123   2.619   5.836  10.528
94076SOL     OW84124   5.816   6.300   8.231
94076SOL    HW184125   5.869   6.270   8.305
94076SOL    HW284126   5.726   6.279   8.257
94077SOL     OW84127  13.144   0.512   2.408
94077SOL    HW184128  13.109   0.538   2.494
94077SOL    HW284129  13.074   0.533   2.347
94078SOL     OW84130   2.202  10.872   6.513
94078SOL    HW184131   2.295  10.856   6.494
94078SOL    HW284132   2.199  10.963   6.541
94079SOL     OW84133   1.771   8.763   8.058
94079SOL    HW184134   1.733   8.697   8.116
94079SOL    HW284135   1.712   8.837   8.063
94080SOL     OW84136  14.297  10.141   0.460
94080SOL    HW184137  14.325  10.054   0.431
94080SOL    HW284138  14.268  10.184   0.380
94081SOL     OW84139   4.830  10.883   9.490
94081SOL    HW184140   4.896  10.815   9.503
94081SOL    HW284141   4.787  10.892   9.575
94082SOL     OW84142   6.385   8.396  14.857
94082SOL    HW184143   6.298   8.414  14.823
94082SOL    HW284144   6.400   8.304  14.836
94083SOL     OW84145  12.381  11.442   0.145
94083SOL    HW184146  12.452  11.504   0.130
94083SOL    HW284147  12.332  11.479   0.218
94084SOL     OW84148  13.747   7.479  11.383
94084SOL    HW184149  13.660   7.517  11.393
94084SOL    HW284150  13.804   7.533  11.437
94085SOL     OW84151   3.981   3.585   1.418
94085SOL    HW184152   4.011   3.642   1.489
94085SOL    HW284153   3.937   3.513   1.463
94086SOL     OW84154  13.213  13.527   7.005
94086SOL    HW184155  13.123  13.505   7.029
94086SOL    HW284156  13.240  13.593   7.069
94087SOL     OW84157   3.360   6.143  13.502
94087SOL    HW184158   3.422   6.196  13.551
94087SOL    HW284159   3.276   6.156  13.547
94088SOL     OW84160   7.051   3.951  14.178
94088SOL    HW184161   6.987   3.946  14.249
94088SOL    HW284162   6.998   3.951  14.098
94089SOL     OW84163   6.674   1.045  12.418
94089SOL    HW184164   6.605   1.012  12.476
94089SOL    HW284165   6.754   1.041  12.471
94090SOL     OW84166   6.899  13.267  12.105
94090SOL    HW184167   6.899  13.261  12.010
94090SOL    HW284168   6.974  13.214  12.133
94091SOL     OW84169   5.449   7.791   6.366
94091SOL    HW184170   5.454   7.775   6.271
94091SOL    HW284171   5.450   7.886   6.373
94092SOL     OW84172   8.439  12.064  14.729
94092SOL    HW184173   8.522  12.082  14.772
94092SOL    HW284174   8.387  12.019  14.795
94093SOL     OW84175   0.860   0.275   3.733
94093SOL    HW184176   0.886   0.282   3.641
94093SOL    HW284177   0.934   0.230   3.774
94094SOL     OW84178   0.876   8.977   9.008
94094SOL    HW184179   0.868   9.040   9.080
94094SOL    HW284180   0.839   8.896   9.042
94095SOL     OW84181   1.887   9.590   1.678
94095SOL    HW184182   1.929   9.545   1.752
94095SOL    HW284183   1.946   9.574   1.604
94096SOL     OW84184   1.284   6.824  10.462
94096SOL    HW184185   1.223   6.888  10.427
94096SOL    HW284186   1.235   6.779  10.531
94097SOL     OW84187   0.593   6.078   3.614
94097SOL    HW184188   0.616   6.076   3.521
94097SOL    HW284189   0.572   5.987   3.636
94098SOL     OW84190  12.781   3.479  12.180
94098SOL    HW184191  12.725   3.436  12.116
94098SOL    HW284192  12.745   3.567  12.189
94099SOL     OW84193   7.667   0.956   4.139
94099SOL    HW184194   7.640   1.047   4.154
94099SOL    HW284195   7.587   0.913   4.109
94100SOL     OW84196   3.403   9.317  11.813
94100SOL    HW184197   3.444   9.391  11.857
94100SOL    HW284198   3.323   9.299  11.864
94101SOL     OW84199   1.786   4.597   3.204
94101SOL    HW184200   1.696   4.584   3.233
94101SOL    HW284201   1.789   4.561   3.115
94102SOL     OW84202  12.206   0.633   0.100
94102SOL    HW184203  12.175   0.712   0.144
94102SOL    HW284204  12.295   0.622   0.131
94103SOL     OW84205  10.500   9.506   4.263
94103SOL    HW184206  10.562   9.445   4.302
94103SOL    HW284207  10.419   9.456   4.253
94104SOL     OW84208   0.907   6.760  10.593
94104SOL    HW184209   0.825   6.760  10.644
94104SOL    HW284210   0.878   6.744  10.503
94105SOL     OW84211   5.062   2.718   3.649
94105SOL    HW184212   5.139   2.773   3.641
94105SOL    HW284213   5.078   2.645   3.589
94106SOL     OW84214   4.816   9.574  14.360
94106SOL    HW184215   4.735   9.529  14.335
94106SOL    HW284216   4.862   9.589  14.278
94107SOL     OW84217   9.269  13.511   5.353
94107SOL    HW184218   9.203  13.577   5.374
94107SOL    HW284219   9.218  13.436   5.321
94108SOL     OW84220   6.404  10.034  10.380
94108SOL    HW184221   6.395   9.950  10.424
94108SOL    HW284222   6.482  10.074  10.420
94109SOL     OW84223   4.414   2.333   8.344
94109SOL    HW184224   4.398   2.334   8.250
94109SOL    HW284225   4.419   2.425   8.370
94110SOL     OW84226   5.144  13.553  14.029
94110SOL    HW184227   5.183  13.466  14.028
94110SOL    HW284228   5.098  13.558  14.113
94111SOL     OW84229   9.561   7.002   8.772
94111SOL    HW184230   9.470   6.973   8.766
94111SOL    HW284231   9.570   7.035   8.861
94112SOL     OW84232   9.981   6.245   4.782
94112SOL    HW184233   9.898   6.205   4.808
94112SOL    HW284234   9.961   6.338   4.772
94113SOL     OW84235   0.347   9.983   3.566
94113SOL    HW184236   0.366  10.076   3.558
94113SOL    HW284237   0.382   9.944   3.486
94114SOL     OW84238   7.719  14.191  13.975
94114SOL    HW184239   7.709  14.161  14.065
94114SOL    HW284240   7.640  14.159  13.931
94115SOL     OW84241   7.331   4.749   1.678
94115SOL    HW184242   7.279   4.675   1.648
94115SOL    HW284243   7.288   4.826   1.640
94116SOL     OW84244  13.935   4.693   6.611
94116SOL    HW184245  13.929   4.602   6.640
94116SOL    HW284246  14.022   4.721   6.638
94117SOL     OW84247   9.706   1.520   8.903
94117SOL    HW184248   9.771   1.528   8.972
94117SOL    HW284249   9.750   1.472   8.833
94118SOL     OW84250   5.331  13.456   3.864
94118SOL    HW184251   5.418  13.487   3.839
94118SOL    HW284252   5.291  13.427   3.782
94119SOL     OW84253   3.992   8.935  12.712
94119SOL    HW184254   3.985   8.918  12.619
94119SOL    HW284255   3.998   8.848  12.753
94120SOL     OW84256  12.408   3.798  13.299
94120SOL    HW184257  12.467   3.872  13.282
94120SOL    HW284258  12.448   3.753  13.374
94121SOL     OW84259   8.976   7.881   7.802
94121SOL    HW184260   8.912   7.812   7.822
94121SOL    HW284261   9.003   7.863   7.712
94122SOL     OW84262   1.840   3.296  14.302
94122SOL    HW184263   1.756   3.342  14.300
94122SOL    HW284264   1.903   3.360  14.271
94123SOL     OW84265   3.116   3.571   7.997
94123SOL    HW184266   3.146   3.484   7.971
94123SOL    HW284267   3.020   3.564   7.996
94124SOL     OW84268  12.862   4.658   3.792
94124SOL    HW184269  12.853   4.581   3.736
94124SOL    HW284270  12.818   4.635   3.873
94125SOL     OW84271   1.625  10.965   7.218
94125SOL    HW184272   1.695  11.027   7.237
94125SOL    HW284273   1.649  10.887   7.268
94126SOL     OW84274   8.631   9.457   0.186
94126SOL    HW184275   8.592   9.382   0.231
94126SOL    HW284276   8.725   9.448   0.204
94127SOL     OW84277  12.506   2.483   3.617
94127SOL    HW184278  12.533   2.392   3.623
94127SOL    HW284279  12.416   2.485   3.649
94128SOL     OW84280   7.142   6.780  13.536
94128SOL    HW184281   7.235   6.763  13.519
94128SOL    HW284282   7.107   6.695  13.562
94129SOL     OW84283  11.946  13.669   7.972
94129SOL    HW184284  11.973  13.704   8.057
94129SOL    HW284285  11.894  13.740   7.933
94130SOL     OW84286  11.968  10.495   2.746
94130SOL    HW184287  12.051  10.464   2.784
94130SOL    HW284288  11.907  10.423   2.761
94131SOL     OW84289  11.804  12.002   7.625
94131SOL    HW184290  11.795  11.957   7.541
94131SOL    HW284291  11.775  12.091   7.607
94132SOL     OW84292   4.249  10.849  11.831
94132SOL    HW184293   4.180  10.852  11.897
94132SOL    HW284294   4.297  10.931  11.843
94133SOL     OW84295  11.026   8.040  12.234
94133SOL    HW184296  11.092   8.085  12.287
94133SOL    HW284297  11.062   8.042  12.146
94134SOL     OW84298   8.978   2.707   8.465
94134SOL    HW184299   9.020   2.622   8.477
94134SOL    HW284300   8.894   2.687   8.423
94135SOL     OW84301  11.084   6.799  12.793
94135SOL    HW184302  11.056   6.829  12.706
94135SOL    HW284303  11.009   6.753  12.828
94136SOL     OW84304   7.849   9.668   2.585
94136SOL    HW184305   7.868   9.577   2.609
94136SOL    HW284306   7.933   9.713   2.595
94137SOL     OW84307   3.653   6.171  11.526
94137SOL    HW184308   3.684   6.185  11.436
94137SOL    HW284309   3.731   6.144  11.574
94138SOL     OW84310   0.810   0.389  10.936
94138SOL    HW184311   0.858   0.339  11.003
94138SOL    HW284312   0.801   0.329  10.863
94139SOL     OW84313   4.773   7.144   2.053
94139SOL    HW184314   4.775   7.057   2.013
94139SOL    HW284315   4.727   7.199   1.990
94140SOL     OW84316   5.575   5.383   2.607
94140SOL    HW184317   5.495   5.333   2.593
94140SOL    HW284318   5.546   5.469   2.638
94141SOL     OW84319   2.749   6.733   8.005
94141SOL    HW184320   2.836   6.693   8.005
94141SOL    HW284321   2.746   6.785   8.086
94142SOL     OW84322  11.843  10.606   8.598
94142SOL    HW184323  11.755  10.583   8.628
94142SOL    HW284324  11.863  10.541   8.531
94143SOL     OW84325  14.693  14.814  14.813
94143SOL    HW184326  14.630  14.745  14.833
94143SOL    HW284327  14.699  14.865   0.021
94144SOL     OW84328  11.363  12.562  11.425
94144SOL    HW184329  11.414  12.639  11.400
94144SOL    HW284330  11.364  12.563  11.521
94145SOL     OW84331   8.928   1.199  11.156
94145SOL    HW184332   8.968   1.140  11.093
94145SOL    HW284333   8.877   1.142  11.214
94146SOL     OW84334   1.920   8.801  10.508
94146SOL    HW184335   1.968   8.884  10.515
94146SOL    HW284336   1.862   8.802  10.585
94147SOL     OW84337   0.067   5.867   0.125
94147SOL    HW184338   0.047   5.774   0.129
94147SOL    HW284339   0.156   5.871   0.090
94148SOL     OW84340   4.160   7.241   3.924
94148SOL    HW184341   4.126   7.224   3.836
94148SOL    HW284342   4.244   7.196   3.927
94149SOL     OW84343  11.019  12.288  13.630
94149SOL    HW184344  11.106  12.325  13.647
94149SOL    HW284345  10.976  12.289  13.715
94150SOL     OW84346   8.545  14.514   6.261
94150SOL    HW184347   8.629  14.504   6.217
94150SOL    HW284348   8.525  14.607   6.254
94151SOL     OW84349   0.636   2.911  13.141
94151SOL    HW184350   0.666   2.866  13.062
94151SOL    HW284351   0.633   2.842  13.208
94152SOL     OW84352   1.649  10.109   1.174
94152SOL    HW184353   1.557  10.133   1.190
94152SOL    HW284354   1.660  10.121   1.080
94153SOL     OW84355   0.584   9.897   8.267
94153SOL    HW184356   0.570   9.974   8.213
94153SOL    HW284357   0.652   9.922   8.329
94154SOL     OW84358  11.116   5.345  13.741
94154SOL    HW184359  11.081   5.270  13.693
94154SOL    HW284360  11.039   5.384  13.784
94155SOL     OW84361   4.675  11.599   5.117
94155SOL    HW184362   4.738  11.671   5.126
94155SOL    HW284363   4.648  11.579   5.207
94156SOL     OW84364   6.086  14.274   2.247
94156SOL    HW184365   6.147  14.345   2.267
94156SOL    HW284366   6.133  14.218   2.186
94157SOL     OW84367   5.098  10.452   3.628
94157SOL    HW184368   5.077  10.526   3.571
94157SOL    HW284369   5.140  10.388   3.570
94158SOL     OW84370   0.724   3.866   7.213
94158SOL    HW184371   0.791   3.810   7.252
94158SOL    HW284372   0.641   3.831   7.245
94159SOL     OW84373   5.597  12.395  14.640
94159SOL    HW184374   5.554  12.388  14.555
94159SOL    HW284375   5.668  12.331  14.636
94160SOL     OW84376  12.829   7.969   3.916
94160SOL    HW184377  12.829   8.011   3.830
94160SOL    HW284378  12.776   7.890   3.904
94161SOL     OW84379   4.418  11.419   4.338
94161SOL    HW184380   4.476  11.480   4.384
94161SOL    HW284381   4.477  11.366   4.284
94162SOL     OW84382  10.394  13.869   8.060
94162SOL    HW184383  10.343  13.825   7.993
94162SOL    HW284384  10.373  13.822   8.141
94163SOL     OW84385   4.314   9.832  11.219
94163SOL    HW184386   4.297   9.905  11.159
94163SOL    HW284387   4.263   9.760  11.183
94164SOL     OW84388   9.874   1.465  14.115
94164SOL    HW184389   9.887   1.495  14.205
94164SOL    HW284390   9.785   1.493  14.093
94165SOL     OW84391   5.622   7.457  14.481
94165SOL    HW184392   5.548   7.397  14.472
94165SOL    HW284393   5.655   7.442  14.570
94166SOL     OW84394  11.421   0.669   0.713
94166SOL    HW184395  11.401   0.715   0.631
94166SOL    HW284396  11.342   0.621   0.733
94167SOL     OW84397   6.345  10.282  13.262
94167SOL    HW184398   6.344  10.373  13.231
94167SOL    HW284399   6.340  10.290  13.357
94168SOL     OW84400   4.752  13.256  12.832
94168SOL    HW184401   4.825  13.199  12.810
94168SOL    HW284402   4.792  13.338  12.860
94169SOL     OW84403  10.366   6.259  12.969
94169SOL    HW184404  10.342   6.350  12.950
94169SOL    HW284405  10.454   6.266  13.007
94170SOL     OW84406   4.304   5.012  10.360
94170SOL    HW184407   4.265   4.929  10.389
94170SOL    HW284408   4.390   5.014  10.403
94171SOL     OW84409   1.848   5.077   3.208
94171SOL    HW184410   1.773   5.063   3.150
94171SOL    HW284411   1.868   4.990   3.243
94172SOL     OW84412   0.875  11.651  13.760
94172SOL    HW184413   0.881  11.600  13.841
94172SOL    HW284414   0.799  11.707  13.772
94173SOL     OW84415   4.211   8.502   0.171
94173SOL    HW184416   4.167   8.566   0.115
94173SOL    HW284417   4.146   8.433   0.183
94174SOL     OW84418  12.413   2.018   3.080
94174SOL    HW184419  12.335   2.061   3.045
94174SOL    HW284420  12.483   2.082   3.067
94175SOL     OW84421   5.618   2.229  12.142
94175SOL    HW184422   5.542   2.172  12.152
94175SOL    HW284423   5.610   2.293  12.213
94176SOL     OW84424   7.215  12.785  10.511
94176SOL    HW184425   7.134  12.806  10.464
94176SOL    HW284426   7.220  12.690  10.510
94177SOL     OW84427   1.303  10.512  13.369
94177SOL    HW184428   1.254  10.487  13.290
94177SOL    HW284429   1.243  10.569  13.417
94178SOL     OW84430   5.316   0.648  10.158
94178SOL    HW184431   5.371   0.579  10.194
94178SOL    HW284432   5.252   0.666  10.227
94179SOL     OW84433   5.344  14.435   6.667
94179SOL    HW184434   5.274  14.458   6.728
94179SOL    HW284435   5.346  14.506   6.604
94180SOL     OW84436  14.335   8.622  13.119
94180SOL    HW184437  14.252   8.633  13.072
94180SOL    HW284438  14.311   8.585  13.203
94181SOL     OW84439   3.668  10.116  10.490
94181SOL    HW184440   3.715  10.053  10.435
94181SOL    HW284441   3.732  10.142  10.557
94182SOL     OW84442  13.803  12.449   8.980
94182SOL    HW184443  13.731  12.498   9.019
94182SOL    HW284444  13.824  12.497   8.900
94183SOL     OW84445   8.943   3.460   2.660
94183SOL    HW184446   8.868   3.448   2.603
94183SOL    HW284447   8.976   3.371   2.675
94184SOL     OW84448   2.973  12.438   5.000
94184SOL    HW184449   3.013  12.419   4.916
94184SOL    HW284450   3.011  12.522   5.026
94185SOL     OW84451   2.368  12.510  12.067
94185SOL    HW184452   2.394  12.581  12.008
94185SOL    HW284453   2.275  12.496  12.048
94186SOL     OW84454   5.988   8.221   5.509
94186SOL    HW184455   5.898   8.230   5.538
94186SOL    HW284456   6.014   8.132   5.535
94187SOL     OW84457   3.031  12.966  10.916
94187SOL    HW184458   3.094  13.038  10.911
94187SOL    HW284459   3.082  12.888  10.896
94188SOL     OW84460  12.615   5.335   9.202
94188SOL    HW184461  12.671   5.411   9.214
94188SOL    HW284462  12.654   5.287   9.129
94189SOL     OW84463  14.544   8.402   5.984
94189SOL    HW184464  14.636   8.427   5.996
94189SOL    HW284465  14.501   8.428   6.066
94190SOL     OW84466   8.700  13.254   0.247
94190SOL    HW184467   8.675  13.281   0.335
94190SOL    HW284468   8.676  13.162   0.242
94191SOL     OW84469   5.913  10.607  11.164
94191SOL    HW184470   5.857  10.569  11.096
94191SOL    HW284471   5.915  10.541  11.233
94192SOL     OW84472   5.132  14.050  13.338
94192SOL    HW184473   5.132  13.960  13.372
94192SOL    HW284474   5.170  14.042  13.251
94193SOL     OW84475  11.191  11.066  11.980
94193SOL    HW184476  11.220  11.075  11.890
94193SOL    HW284477  11.260  11.108  12.032
94194SOL     OW84478  10.270  11.219   2.336
94194SOL    HW184479  10.352  11.200   2.291
94194SOL    HW284480  10.226  11.134   2.343
94195SOL     OW84481  10.377   4.310   7.006
94195SOL    HW184482  10.298   4.365   7.006
94195SOL    HW284483  10.366   4.252   6.931
94196SOL     OW84484   4.438   4.395  10.576
94196SOL    HW184485   4.520   4.445  10.582
94196SOL    HW284486   4.423   4.362  10.664
94197SOL     OW84487   5.830   4.603  10.707
94197SOL    HW184488   5.876   4.643  10.780
94197SOL    HW284489   5.891   4.609  10.634
94198SOL     OW84490  10.692   4.590   4.613
94198SOL    HW184491  10.661   4.604   4.523
94198SOL    HW284492  10.788   4.596   4.606
94199SOL     OW84493  11.546  11.519   1.543
94199SOL    HW184494  11.533  11.592   1.482
94199SOL    HW284495  11.641  11.516   1.556
94200SOL     OW84496   1.672   8.647   1.564
94200SOL    HW184497   1.682   8.742   1.564
94200SOL    HW284498   1.711   8.620   1.480
94201SOL     OW84499   2.018  12.171   8.772
94201SOL    HW184500   2.035  12.226   8.849
94201SOL    HW284501   2.074  12.094   8.786
94202SOL     OW84502   5.953   5.231   0.779
94202SOL    HW184503   5.928   5.139   0.782
94202SOL    HW284504   6.044   5.231   0.749
94203SOL     OW84505   6.709   2.551   1.532
94203SOL    HW184506   6.679   2.482   1.472
94203SOL    HW284507   6.630   2.603   1.549
94204SOL     OW84508  11.316   7.044   1.898
94204SOL    HW184509  11.245   7.108   1.906
94204SOL    HW284510  11.300   6.982   1.970
94205SOL     OW84511  11.137  12.088  12.600
94205SOL    HW184512  11.185  12.090  12.517
94205SOL    HW284513  11.176  12.158  12.652
94206SOL     OW84514  14.085   3.288  14.198
94206SOL    HW184515  14.147   3.343  14.151
94206SOL    HW284516  14.067   3.336  14.279
94207SOL     OW84517   1.051   3.933   8.402
94207SOL    HW184518   1.007   3.848   8.398
94207SOL    HW284519   1.032   3.974   8.317
94208SOL     OW84520   0.162   9.805   1.096
94208SOL    HW184521   0.097   9.827   1.029
94208SOL    HW284522   0.240   9.853   1.071
94209SOL     OW84523   1.273  12.961   8.176
94209SOL    HW184524   1.187  12.985   8.210
94209SOL    HW284525   1.259  12.876   8.135
94210SOL     OW84526   6.814  14.067   0.697
94210SOL    HW184527   6.799  13.972   0.702
94210SOL    HW284528   6.891  14.082   0.752
94211SOL     OW84529   9.535  11.575  10.892
94211SOL    HW184530   9.579  11.629  10.958
94211SOL    HW284531   9.458  11.540  10.938
94212SOL     OW84532   4.945   8.605   9.093
94212SOL    HW184533   5.028   8.649   9.111
94212SOL    HW284534   4.961   8.514   9.117
94213SOL     OW84535   1.208   9.037   7.458
94213SOL    HW184536   1.257   9.105   7.503
94213SOL    HW284537   1.138   9.013   7.519
94214SOL     OW84538   2.163   2.061  12.572
94214SOL    HW184539   2.129   2.136  12.523
94214SOL    HW284540   2.105   1.989  12.547
94215SOL     OW84541   8.259   8.741   7.304
94215SOL    HW184542   8.242   8.830   7.333
94215SOL    HW284543   8.177   8.694   7.322
94216SOL     OW84544  10.557   5.283   5.349
94216SOL    HW184545  10.464   5.265   5.335
94216SOL    HW284546  10.601   5.233   5.280
94217SOL     OW84547   0.605   0.649   4.360
94217SOL    HW184548   0.626   0.623   4.270
94217SOL    HW284549   0.515   0.680   4.355
94218SOL     OW84550  12.305   5.323   9.060
94218SOL    HW184551  12.332   5.352   8.973
94218SOL    HW284552  12.303   5.404   9.112
94219SOL     OW84553   0.942   2.326   1.623
94219SOL    HW184554   0.947   2.302   1.530
94219SOL    HW284555   0.949   2.421   1.623
94220SOL     OW84556   2.236   1.005  14.442
94220SOL    HW184557   2.194   0.929  14.483
94220SOL    HW284558   2.312   0.968  14.397
94221SOL     OW84559  11.288   7.913  13.272
94221SOL    HW184560  11.235   7.835  13.254
94221SOL    HW284561  11.347   7.885  13.342
94222SOL     OW84562  14.330   3.362  14.390
94222SOL    HW184563  14.343   3.272  14.421
94222SOL    HW284564  14.238   3.381  14.408
94223SOL     OW84565   1.311  11.922  11.716
94223SOL    HW184566   1.269  11.910  11.631
94223SOL    HW284567   1.375  11.993  11.701
94224SOL     OW84568   8.669  10.863  11.700
94224SOL    HW184569   8.604  10.800  11.731
94224SOL    HW284570   8.739  10.859  11.766
94225SOL     OW84571   7.737   8.503   7.620
94225SOL    HW184572   7.662   8.453   7.587
94225SOL    HW284573   7.751   8.469   7.708
94226SOL     OW84574   0.392   1.542   2.612
94226SOL    HW184575   0.358   1.452   2.610
94226SOL    HW284576   0.464   1.542   2.549
94227SOL     OW84577   2.364  12.415   8.038
94227SOL    HW184578   2.411  12.498   8.052
94227SOL    HW284579   2.323  12.425   7.953
94228SOL     OW84580   7.421   0.790   4.137
94228SOL    HW184581   7.439   0.815   4.047
94228SOL    HW284582   7.326   0.802   4.147
94229SOL     OW84583   3.492   1.286   6.989
94229SOL    HW184584   3.409   1.259   6.949
94229SOL    HW284585   3.544   1.206   6.992
94230SOL     OW84586  13.718   4.427   1.111
94230SOL    HW184587  13.652   4.359   1.111
94230SOL    HW284588  13.703   4.475   1.030
94231SOL     OW84589   4.265   4.660  14.802
94231SOL    HW184590   4.316   4.654   0.010
94231SOL    HW284591   4.282   4.749  14.769
94232SOL     OW84592   1.935   0.438   8.233
94232SOL    HW184593   1.963   0.512   8.286
94232SOL    HW284594   1.899   0.375   8.295
94233SOL     OW84595   5.922  10.635   6.693
94233SOL    HW184596   5.879  10.716   6.721
94233SOL    HW284597   5.897  10.625   6.601
94234SOL     OW84598   6.941   8.300   4.712
94234SOL    HW184599   6.881   8.362   4.755
94234SOL    HW284600   6.945   8.225   4.772
94235SOL     OW84601   5.541   4.115   2.606
94235SOL    HW184602   5.601   4.189   2.620
94235SOL    HW284603   5.473   4.127   2.672
94236SOL     OW84604  11.780  12.605   9.196
94236SOL    HW184605  11.728  12.667   9.247
94236SOL    HW284606  11.747  12.519   9.222
94237SOL     OW84607   0.804   8.236   1.335
94237SOL    HW184608   0.799   8.329   1.313
94237SOL    HW284609   0.832   8.193   1.255
94238SOL     OW84610   5.146   6.193   3.225
94238SOL    HW184611   5.080   6.253   3.191
94238SOL    HW284612   5.222   6.208   3.170
94239SOL     OW84613   5.485  12.169   5.384
94239SOL    HW184614   5.578  12.152   5.397
94239SOL    HW284615   5.463  12.126   5.301
94240SOL     OW84616  10.848   3.478   7.885
94240SOL    HW184617  10.809   3.407   7.936
94240SOL    HW284618  10.892   3.434   7.813
94241SOL     OW84619   1.593  13.354   6.628
94241SOL    HW184620   1.683  13.376   6.651
94241SOL    HW284621   1.600  13.309   6.544
94242SOL     OW84622   6.434   9.457  10.254
94242SOL    HW184623   6.468   9.424  10.337
94242SOL    HW284624   6.346   9.421  10.248
94243SOL     OW84625   3.426  11.542  10.655
94243SOL    HW184626   3.350  11.513  10.705
94243SOL    HW284627   3.389  11.592  10.582
94244SOL     OW84628   4.351   3.511   1.480
94244SOL    HW184629   4.350   3.537   1.388
94244SOL    HW284630   4.264   3.473   1.496
94245SOL     OW84631   7.741  10.948  10.105
94245SOL    HW184632   7.808  10.987  10.161
94245SOL    HW284633   7.661  10.951  10.158
94246SOL     OW84634   7.816  10.937   7.675
94246SOL    HW184635   7.823  10.843   7.695
94246SOL    HW284636   7.723  10.956   7.680
94247SOL     OW84637  13.824   7.989   5.588
94247SOL    HW184638  13.760   7.947   5.647
94247SOL    HW284639  13.878   7.917   5.556
94248SOL     OW84640  13.047  13.212   4.967
94248SOL    HW184641  13.074  13.160   5.043
94248SOL    HW284642  12.974  13.163   4.928
94249SOL     OW84643   3.746   1.282  13.822
94249SOL    HW184644   3.769   1.242  13.738
94249SOL    HW284645   3.826   1.326  13.851
94250SOL     OW84646   5.834   2.097   0.855
94250SOL    HW184647   5.771   2.091   0.784
94250SOL    HW284648   5.843   2.191   0.871
94251SOL     OW84649   2.189   3.881  13.898
94251SOL    HW184650   2.231   3.812  13.846
94251SOL    HW284651   2.243   3.889  13.976
94252SOL     OW84652   6.191   4.062  10.510
94252SOL    HW184653   6.207   4.145  10.465
94252SOL    HW284654   6.276   4.020  10.513
94253SOL     OW84655  14.227   5.277  13.474
94253SOL    HW184656  14.293   5.320  13.419
94253SOL    HW284657  14.156   5.255  13.413
94254SOL     OW84658   6.786   0.683  13.427
94254SOL    HW184659   6.754   0.593  13.429
94254SOL    HW284660   6.723   0.732  13.480
94255SOL     OW84661  13.134   9.402   9.777
94255SOL    HW184662  13.226   9.426   9.763
94255SOL    HW284663  13.113   9.437   9.864
94256SOL     OW84664   5.609   4.434  10.813
94256SOL    HW184665   5.639   4.363  10.870
94256SOL    HW284666   5.689   4.480  10.787
94257SOL     OW84667   1.536   9.828   9.080
94257SOL    HW184668   1.498   9.778   9.008
94257SOL    HW284669   1.617   9.863   9.044
94258SOL     OW84670  12.112   3.540  13.678
94258SOL    HW184671  12.120   3.495  13.594
94258SOL    HW284672  12.118   3.469  13.743
94259SOL     OW84673   7.761  11.653   1.904
94259SOL    HW184674   7.782  11.630   1.994
94259SOL    HW284675   7.747  11.748   1.905
94260SOL     OW84676   7.225   3.035   4.732
94260SOL    HW184677   7.187   3.075   4.654
94260SOL    HW284678   7.185   3.083   4.805
94261SOL     OW84679   7.569   1.276   5.323
94261SOL    HW184680   7.535   1.190   5.347
94261SOL    HW284681   7.571   1.275   5.227
94262SOL     OW84682  11.131   3.185   8.467
94262SOL    HW184683  11.093   3.264   8.427
94262SOL    HW284684  11.121   3.198   8.561
94263SOL     OW84685  11.588   4.492   5.720
94263SOL    HW184686  11.618   4.582   5.702
94263SOL    HW284687  11.498   4.503   5.750
94264SOL     OW84688  11.552   4.281   4.115
94264SOL    HW184689  11.510   4.237   4.189
94264SOL    HW284690  11.618   4.338   4.155
94265SOL     OW84691   5.824  14.240  12.065
94265SOL    HW184692   5.860  14.315  12.017
94265SOL    HW284693   5.729  14.254  12.063
94266SOL     OW84694  13.110   2.668   5.667
94266SOL    HW184695  13.182   2.680   5.729
94266SOL    HW284696  13.031   2.664   5.721
94267SOL     OW84697   5.039   0.056  11.978
94267SOL    HW184698   4.982  14.856  11.952
94267SOL    HW284699   4.989   0.103  12.045
94268SOL     OW84700   6.092   2.728   4.344
94268SOL    HW184701   6.061   2.818   4.360
94268SOL    HW284702   6.030   2.693   4.280
94269SOL     OW84703   1.802   5.106   5.872
94269SOL    HW184704   1.767   5.142   5.790
94269SOL    HW284705   1.732   5.049   5.904
94270SOL     OW84706   3.346   9.971   8.201
94270SOL    HW184707   3.383   9.991   8.287
94270SOL    HW284708   3.395   9.894   8.171
94271SOL     OW84709  10.704  11.485   9.126
94271SOL    HW184710  10.687  11.468   9.218
94271SOL    HW284711  10.757  11.411   9.097
94272SOL     OW84712  13.292   8.720  14.065
94272SOL    HW184713  13.209   8.756  14.035
94272SOL    HW284714  13.354   8.793  14.061
94273SOL     OW84715   9.232  11.653   4.113
94273SOL    HW184716   9.231  11.676   4.206
94273SOL    HW284717   9.140  11.642   4.090
94274SOL     OW84718  12.381   3.976  11.543
94274SOL    HW184719  12.413   4.063  11.516
94274SOL    HW284720  12.349   3.937  11.462
94275SOL     OW84721   8.242  13.767   9.755
94275SOL    HW184722   8.329  13.801   9.735
94275SOL    HW284723   8.223  13.706   9.683
94276SOL     OW84724   9.641   5.492   6.212
94276SOL    HW184725   9.728   5.483   6.174
94276SOL    HW284726   9.602   5.405   6.206
94277SOL     OW84727   0.762   1.891  12.007
94277SOL    HW184728   0.742   1.883  11.913
94277SOL    HW284729   0.685   1.934  12.044
94278SOL     OW84730   4.198   7.783   9.891
94278SOL    HW184731   4.194   7.823   9.804
94278SOL    HW284732   4.276   7.727   9.888
94279SOL     OW84733   3.763   9.568  13.371
94279SOL    HW184734   3.670   9.548  13.387
94279SOL    HW284735   3.763   9.662  13.354
94280SOL     OW84736  13.298  11.748  11.644
94280SOL    HW184737  13.247  11.816  11.688
94280SOL    HW284738  13.304  11.677  11.708
94281SOL     OW84739   4.595  13.640   6.614
94281SOL    HW184740   4.645  13.577   6.561
94281SOL    HW284741   4.646  13.721   6.608
94282SOL     OW84742   1.932   4.431   9.266
94282SOL    HW184743   2.020   4.464   9.286
94282SOL    HW284744   1.884   4.443   9.348
94283SOL     OW84745   5.854  12.361  10.102
94283SOL    HW184746   5.779  12.416  10.122
94283SOL    HW284747   5.909  12.365  10.181
94284SOL     OW84748  12.798   9.320   2.579
94284SOL    HW184749  12.813   9.402   2.626
94284SOL    HW284750  12.886   9.290   2.554
94285SOL     OW84751   7.391   0.853   1.562
94285SOL    HW184752   7.463   0.891   1.511
94285SOL    HW284753   7.337   0.928   1.586
94286SOL     OW84754  13.784   2.215   0.529
94286SOL    HW184755  13.722   2.144   0.515
94286SOL    HW284756  13.733   2.285   0.570
94287SOL     OW84757  11.091   8.849  12.704
94287SOL    HW184758  11.129   8.854  12.792
94287SOL    HW284759  10.999   8.826  12.719
94288SOL     OW84760   8.077  14.778   6.013
94288SOL    HW184761   8.044  14.868   6.010
94288SOL    HW284762   8.058  14.749   6.102
94289SOL     OW84763   1.104   9.314   6.579
94289SOL    HW184764   1.069   9.354   6.500
94289SOL    HW284765   1.034   9.258   6.612
94290SOL     OW84766   5.416  10.924  14.639
94290SOL    HW184767   5.496  10.896  14.594
94290SOL    HW284768   5.446  10.988  14.704
94291SOL     OW84769   0.385   3.677  10.177
94291SOL    HW184770   0.343   3.759  10.203
94291SOL    HW284771   0.312   3.618  10.158
94292SOL     OW84772   7.381  11.255   9.743
94292SOL    HW184773   7.320  11.230   9.673
94292SOL    HW284774   7.415  11.171   9.775
94293SOL     OW84775   5.103  11.360   5.510
94293SOL    HW184776   5.068  11.279   5.472
94293SOL    HW284777   5.049  11.375   5.588
94294SOL     OW84778   0.193  14.614   1.320
94294SOL    HW184779   0.198  14.703   1.354
94294SOL    HW284780   0.106  14.608   1.281
94295SOL     OW84781   8.860   5.606   7.419
94295SOL    HW184782   8.865   5.670   7.489
94295SOL    HW284783   8.944   5.615   7.373
94296SOL     OW84784   9.421   7.736  12.367
94296SOL    HW184785   9.468   7.789  12.432
94296SOL    HW284786   9.368   7.676  12.419
94297SOL     OW84787   7.063   1.579   7.317
94297SOL    HW184788   7.034   1.516   7.251
94297SOL    HW284789   7.144   1.541   7.352
94298SOL     OW84790   6.490   1.335  10.641
94298SOL    HW184791   6.523   1.355  10.728
94298SOL    HW284792   6.552   1.376  10.581
94299SOL     OW84793  13.535   2.763   9.405
94299SOL    HW184794  13.545   2.824   9.478
94299SOL    HW284795  13.472   2.806   9.346
94300SOL     OW84796  11.460   3.486   8.626
94300SOL    HW184797  11.405   3.416   8.662
94300SOL    HW284798  11.456   3.555   8.692
94301SOL     OW84799  14.702   8.313   8.053
94301SOL    HW184800  14.679   8.310   7.961
94301SOL    HW284801  14.792   8.281   8.057
94302SOL     OW84802  11.075  11.141   4.015
94302SOL    HW184803  10.992  11.096   4.029
94302SOL    HW284804  11.130  11.076   3.971
94303SOL     OW84805   3.519   9.359   6.989
94303SOL    HW184806   3.530   9.291   7.056
94303SOL    HW284807   3.557   9.438   7.027
94304SOL     OW84808   8.567   0.655   0.962
94304SOL    HW184809   8.651   0.650   1.008
94304SOL    HW284810   8.523   0.730   1.001
94305SOL     OW84811   0.065  11.442  11.857
94305SOL    HW184812   0.093  11.461  11.767
94305SOL    HW284813   0.005  11.368  11.848
94306SOL     OW84814   3.900   4.717  13.863
94306SOL    HW184815   3.969   4.736  13.799
94306SOL    HW284816   3.819   4.745  13.820
94307SOL     OW84817  11.795  13.634  11.930
94307SOL    HW184818  11.862  13.568  11.949
94307SOL    HW284819  11.762  13.609  11.843
94308SOL     OW84820   3.794   5.054  10.065
94308SOL    HW184821   3.800   4.975  10.012
94308SOL    HW284822   3.731   5.033  10.134
94309SOL     OW84823   2.033   0.287   0.157
94309SOL    HW184824   1.952   0.236   0.168
94309SOL    HW284825   2.057   0.274   0.065
94310SOL     OW84826   1.982   3.865   0.019
94310SOL    HW184827   2.001   3.816  14.812
94310SOL    HW284828   2.027   3.817   0.089
94311SOL     OW84829   6.100   4.704   7.158
94311SOL    HW184830   6.119   4.704   7.064
94311SOL    HW284831   6.149   4.629   7.192
94312SOL     OW84832  11.313  12.647   7.021
94312SOL    HW184833  11.365  12.709   7.073
94312SOL    HW284834  11.351  12.562   7.040
94313SOL     OW84835   5.720   7.546   5.788
94313SOL    HW184836   5.810   7.519   5.806
94313SOL    HW284837   5.723   7.641   5.783
94314SOL     OW84838   3.593   6.009   5.220
94314SOL    HW184839   3.575   5.950   5.147
94314SOL    HW284840   3.518   6.068   5.222
94315SOL     OW84841   7.136   8.445   5.767
94315SOL    HW184842   7.099   8.506   5.703
94315SOL    HW284843   7.060   8.411   5.814
94316SOL     OW84844   2.207   9.496  13.318
94316SOL    HW184845   2.164   9.569  13.275
94316SOL    HW284846   2.161   9.418  13.286
94317SOL     OW84847   5.206   9.309  14.858
94317SOL    HW184848   5.232   9.384  14.805
94317SOL    HW284849   5.289   9.273   0.018
94318SOL     OW84850  11.091  14.846  11.855
94318SOL    HW184851  11.044  14.806  11.928
94318SOL    HW284852  11.158   0.028  11.896
94319SOL     OW84853   5.825   0.008   0.147
94319SOL    HW184854   5.799   0.092   0.183
94319SOL    HW284855   5.743  14.836   0.127
94320SOL     OW84856  13.239   6.821   5.496
94320SOL    HW184857  13.334   6.821   5.492
94320SOL    HW284858  13.213   6.744   5.444
94321SOL     OW84859   4.671   7.903   3.169
94321SOL    HW184860   4.706   7.818   3.196
94321SOL    HW284861   4.738   7.966   3.195
94322SOL     OW84862   1.377  12.866   2.575
94322SOL    HW184863   1.356  12.791   2.520
94322SOL    HW284864   1.316  12.935   2.546
94323SOL     OW84865   4.814   9.997  12.216
94323SOL    HW184866   4.722  10.020  12.204
94323SOL    HW284867   4.836  10.033  12.302
94324SOL     OW84868  13.634   3.498   4.790
94324SOL    HW184869  13.658   3.561   4.723
94324SOL    HW284870  13.716   3.456   4.816
94325SOL     OW84871   2.981   1.760  10.155
94325SOL    HW184872   3.047   1.777  10.089
94325SOL    HW284873   2.947   1.673  10.134
94326SOL     OW84874   0.370  14.176   9.300
94326SOL    HW184875   0.427  14.201   9.227
94326SOL    HW284876   0.326  14.257   9.325
94327SOL     OW84877   8.138   0.520   1.312
94327SOL    HW184878   8.108   0.607   1.335
94327SOL    HW284879   8.059   0.466   1.310
94328SOL     OW84880   2.616   3.403   8.847
94328SOL    HW184881   2.570   3.352   8.913
94328SOL    HW284882   2.558   3.477   8.829
94329SOL     OW84883  10.980  14.321   5.843
94329SOL    HW184884  11.026  14.260   5.900
94329SOL    HW284885  10.908  14.271   5.807
94330SOL     OW84886  10.325   2.789   1.202
94330SOL    HW184887  10.341   2.731   1.128
94330SOL    HW284888  10.235   2.820   1.190
94331SOL     OW84889   0.592   7.426  13.204
94331SOL    HW184890   0.666   7.467  13.159
94331SOL    HW284891   0.621   7.418  13.295
94332SOL     OW84892  11.630   6.523  14.752
94332SOL    HW184893  11.659   6.612  14.732
94332SOL    HW284894  11.685   6.467  14.699
94333SOL     OW84895  12.829  10.611   9.737
94333SOL    HW184896  12.916  10.606   9.697
94333SOL    HW284897  12.846  10.605   9.831
94334SOL     OW84898   1.849  13.061   4.081
94334SOL    HW184899   1.925  13.009   4.108
94334SOL    HW284900   1.785  12.996   4.053
94335SOL     OW84901   5.592   3.210  11.660
94335SOL    HW184902   5.609   3.304  11.672
94335SOL    HW284903   5.672   3.167  11.689
94336SOL     OW84904  14.445   2.766   9.354
94336SOL    HW184905  14.488   2.715   9.286
94336SOL    HW284906  14.446   2.856   9.321
94337SOL     OW84907  10.631  14.732   8.636
94337SOL    HW184908  10.571  14.669   8.596
94337SOL    HW284909  10.696  14.678   8.682
94338SOL     OW84910   6.173  11.357   5.746
94338SOL    HW184911   6.149  11.285   5.687
94338SOL    HW284912   6.221  11.315   5.817
94339SOL     OW84913  13.614   3.398   7.892
94339SOL    HW184914  13.604   3.457   7.966
94339SOL    HW284915  13.541   3.419   7.834
94340SOL     OW84916   7.292   9.057   4.588
94340SOL    HW184917   7.226   9.008   4.539
94340SOL    HW284918   7.258   9.060   4.678
94341SOL     OW84919   2.599   0.628  10.760
94341SOL    HW184920   2.613   0.722  10.759
94341SOL    HW284921   2.589   0.604  10.667
94342SOL     OW84922  11.318   7.076   1.294
94342SOL    HW184923  11.318   6.982   1.276
94342SOL    HW284924  11.253   7.112   1.234
94343SOL     OW84925   1.194   3.062   1.485
94343SOL    HW184926   1.262   3.093   1.424
94343SOL    HW284927   1.120   3.121   1.469
94344SOL     OW84928   5.091   5.533   6.609
94344SOL    HW184929   5.137   5.546   6.692
94344SOL    HW284930   5.160   5.511   6.547
94345SOL     OW84931   5.665  10.336   3.381
94345SOL    HW184932   5.646  10.282   3.304
94345SOL    HW284933   5.595  10.314   3.443
94346SOL     OW84934   0.708   5.653  13.483
94346SOL    HW184935   0.630   5.666  13.429
94346SOL    HW284936   0.776   5.706  13.440
94347SOL     OW84937   3.212  14.010  13.591
94347SOL    HW184938   3.158  13.952  13.538
94347SOL    HW284939   3.199  13.979  13.681
94348SOL     OW84940  14.287  11.412  14.207
94348SOL    HW184941  14.349  11.418  14.134
94348SOL    HW284942  14.343  11.400  14.284
94349SOL     OW84943  14.417  13.199   3.880
94349SOL    HW184944  14.493  13.223   3.826
94349SOL    HW284945  14.343  13.241   3.838
94350SOL     OW84946  13.327  14.619   5.383
94350SOL    HW184947  13.387  14.662   5.444
94350SOL    HW284948  13.295  14.542   5.431
94351SOL     OW84949   3.500   0.740  10.988
94351SOL    HW184950   3.549   0.684  11.049
94351SOL    HW284951   3.448   0.797  11.044
94352SOL     OW84952   8.841   2.536  14.400
94352SOL    HW184953   8.907   2.470  14.423
94352SOL    HW284954   8.851   2.604  14.466
94353SOL     OW84955   8.450   5.387   5.242
94353SOL    HW184956   8.369   5.420   5.203
94353SOL    HW284957   8.518   5.445   5.206
94354SOL     OW84958   0.375   0.673   1.950
94354SOL    HW184959   0.357   0.745   1.890
94354SOL    HW284960   0.459   0.637   1.920
94355SOL     OW84961  14.147  11.037   0.351
94355SOL    HW184962  14.132  10.967   0.414
94355SOL    HW284963  14.179  11.111   0.403
94356SOL     OW84964   3.493   0.638   3.390
94356SOL    HW184965   3.446   0.705   3.440
94356SOL    HW284966   3.426   0.595   3.337
94357SOL     OW84967   4.278  13.378  14.419
94357SOL    HW184968   4.364  13.389  14.461
94357SOL    HW284969   4.220  13.351  14.491
94358SOL     OW84970  11.625   4.458   0.198
94358SOL    HW184971  11.599   4.407   0.275
94358SOL    HW284972  11.548   4.511   0.178
94359SOL     OW84973  14.169  13.815  11.052
94359SOL    HW184974  14.256  13.843  11.080
94359SOL    HW284975  14.111  13.844  11.123
94360SOL     OW84976  10.257   1.724  14.036
94360SOL    HW184977  10.195   1.768  14.094
94360SOL    HW284978  10.259   1.777  13.957
94361SOL     OW84979   9.525   7.347   2.982
94361SOL    HW184980   9.483   7.365   2.898
94361SOL    HW284981   9.591   7.415   2.992
94362SOL     OW84982   0.814   0.892   8.885
94362SOL    HW184983   0.746   0.932   8.938
94362SOL    HW284984   0.872   0.964   8.862
94363SOL     OW84985   6.734   7.586  12.266
94363SOL    HW184986   6.695   7.500  12.245
94363SOL    HW284987   6.665   7.632  12.315
94364SOL     OW84988   8.615   3.002  14.777
94364SOL    HW184989   8.606   3.053  14.858
94364SOL    HW284990   8.535   3.020  14.728
94365SOL     OW84991   9.500   1.966   6.920
94365SOL    HW184992   9.505   1.872   6.933
94365SOL    HW284993   9.411   1.982   6.889
94366SOL     OW84994   4.254   6.201   1.131
94366SOL    HW184995   4.318   6.266   1.102
94366SOL    HW284996   4.244   6.218   1.225
94367SOL     OW84997   6.767   7.834   9.793
94367SOL    HW184998   6.844   7.778   9.781
94367SOL    HW284999   6.709   7.784   9.851
94368SOL     OW85000   2.874  13.924   1.144
94368SOL    HW185001   2.874  13.831   1.122
94368SOL    HW285002   2.783  13.952   1.137
94369SOL     OW85003   4.452   5.724  13.888
94369SOL    HW185004   4.512   5.651  13.904
94369SOL    HW285005   4.412   5.704  13.803
94370SOL     OW85006   9.443   4.171   5.353
94370SOL    HW185007   9.528   4.128   5.343
94370SOL    HW285008   9.456   4.258   5.316
94371SOL     OW85009  14.508   9.979   0.204
94371SOL    HW185010  14.421   9.982   0.163
94371SOL    HW285011  14.496   9.923   0.281
94372SOL     OW85012  11.013  10.301   7.193
94372SOL    HW185013  10.975  10.214   7.198
94372SOL    HW285014  11.107  10.286   7.178
94373SOL     OW85015  12.233   1.527   2.040
94373SOL    HW185016  12.202   1.513   2.129
94373SOL    HW285017  12.322   1.492   2.040
94374SOL     OW85018   5.846   3.615   2.498
94374SOL    HW185019   5.811   3.526   2.491
94374SOL    HW285020   5.934   3.609   2.461
94375SOL     OW85021   9.349   3.180   7.015
94375SOL    HW185022   9.382   3.143   6.934
94375SOL    HW285023   9.277   3.238   6.988
94376SOL     OW85024   8.302  14.740   7.815
94376SOL    HW185025   8.209  14.756   7.801
94376SOL    HW285026   8.307  14.697   7.900
94377SOL     OW85027  14.361  14.113   0.394
94377SOL    HW185028  14.405  14.154   0.469
94377SOL    HW285029  14.423  14.048   0.362
94378SOL     OW85030  14.293   0.176  11.033
94378SOL    HW185031  14.286   0.082  11.017
94378SOL    HW285032  14.380   0.188  11.072
94379SOL     OW85033   3.849   6.654  11.198
94379SOL    HW185034   3.918   6.591  11.177
94379SOL    HW285035   3.768   6.607  11.180
94380SOL     OW85036   6.584   0.237  11.060
94380SOL    HW185037   6.537   0.225  11.142
94380SOL    HW285038   6.516   0.253  10.995
94381SOL     OW85039   7.076   9.502  11.020
94381SOL    HW185040   7.003   9.521  11.079
94381SOL    HW285041   7.036   9.448  10.951
94382SOL     OW85042   5.814   8.065   6.321
94382SOL    HW185043   5.867   7.986   6.332
94382SOL    HW285044   5.843   8.102   6.238
94383SOL     OW85045   5.692  10.954  14.607
94383SOL    HW185046   5.745  10.943  14.528
94383SOL    HW285047   5.754  10.947  14.680
94384SOL     OW85048  13.259   4.608   9.198
94384SOL    HW185049  13.342   4.621   9.243
94384SOL    HW285050  13.243   4.513   9.204
94385SOL     OW85051  10.335  11.379   0.982
94385SOL    HW185052  10.318  11.316   0.912
94385SOL    HW285053  10.264  11.367   1.044
94386SOL     OW85054   0.740  12.520   9.236
94386SOL    HW185055   0.675  12.451   9.246
94386SOL    HW285056   0.700  12.597   9.278
94387SOL     OW85057   4.796  12.602   3.934
94387SOL    HW185058   4.744  12.591   4.014
94387SOL    HW285059   4.736  12.645   3.873
94388SOL     OW85060   1.185  14.520   8.760
94388SOL    HW185061   1.233  14.442   8.734
94388SOL    HW285062   1.093  14.497   8.747
94389SOL     OW85063   5.231  11.345   7.988
94389SOL    HW185064   5.166  11.300   8.042
94389SOL    HW285065   5.190  11.354   7.902
94390SOL     OW85066  14.096  13.446   7.461
94390SOL    HW185067  14.169  13.422   7.517
94390SOL    HW285068  14.025  13.386   7.486
94391SOL     OW85069   9.650   2.482   7.572
94391SOL    HW185070   9.715   2.427   7.529
94391SOL    HW285071   9.588   2.420   7.610
94392SOL     OW85072  12.842   5.633   9.324
94392SOL    HW185073  12.815   5.567   9.389
94392SOL    HW285074  12.853   5.713   9.374
94393SOL     OW85075   0.651   6.436   5.292
94393SOL    HW185076   0.616   6.348   5.302
94393SOL    HW285077   0.746   6.426   5.305
94394SOL     OW85078  14.459   6.706   8.572
94394SOL    HW185079  14.368   6.722   8.599
94394SOL    HW285080  14.452   6.656   8.491
94395SOL     OW85081   4.982   6.207  12.569
94395SOL    HW185082   4.896   6.201  12.528
94395SOL    HW285083   4.976   6.153  12.647
94396SOL     OW85084   0.700  14.870   1.090
94396SOL    HW185085   0.631   0.008   1.026
94396SOL    HW285086   0.719  14.776   1.090
94397SOL     OW85087  12.238   6.511  14.836
94397SOL    HW185088  12.282   6.432  14.866
94397SOL    HW285089  12.145   6.490  14.841
94398SOL     OW85090   9.571  11.838  12.460
94398SOL    HW185091   9.666  11.823  12.462
94398SOL    HW285092   9.557  11.889  12.380
94399SOL     OW85093  10.500  13.512   6.182
94399SOL    HW185094  10.536  13.439   6.132
94399SOL    HW285095  10.577  13.561   6.212
94400SOL     OW85096   0.098   8.248   4.838
94400SOL    HW185097   0.103   8.216   4.748
94400SOL    HW285098   0.005   8.264   4.852
94401SOL     OW85099   1.661  13.310   1.455
94401SOL    HW185100   1.605  13.232   1.457
94401SOL    HW285101   1.731  13.291   1.517
94402SOL     OW85102  12.120   9.110   2.275
94402SOL    HW185103  12.146   9.201   2.287
94402SOL    HW285104  12.201   9.060   2.281
94403SOL     OW85105   9.992   8.621   1.458
94403SOL    HW185106   9.974   8.715   1.453
94403SOL    HW285107  10.027   8.599   1.371
94404SOL     OW85108  12.690  12.666   8.461
94404SOL    HW185109  12.620  12.684   8.399
94404SOL    HW285110  12.729  12.584   8.430
94405SOL     OW85111  10.265   2.431   5.585
94405SOL    HW185112  10.318   2.362   5.626
94405SOL    HW285113  10.303   2.513   5.618
94406SOL     OW85114   8.202  12.666   0.543
94406SOL    HW185115   8.198  12.583   0.497
94406SOL    HW285116   8.276  12.712   0.503
94407SOL     OW85117   4.223   3.226   9.873
94407SOL    HW185118   4.305   3.276   9.881
94407SOL    HW285119   4.247   3.137   9.897
94408SOL     OW85120   8.938   1.757  13.805
94408SOL    HW185121   8.883   1.806  13.867
94408SOL    HW285122   8.881   1.743  13.729
94409SOL     OW85123   9.195   9.103   5.419
94409SOL    HW185124   9.240   9.108   5.335
94409SOL    HW285125   9.258   9.137   5.482
94410SOL     OW85126   4.671   0.433   3.017
94410SOL    HW185127   4.732   0.426   2.944
94410SOL    HW285128   4.699   0.365   3.078
94411SOL     OW85129   7.122  12.102  14.592
94411SOL    HW185130   7.125  12.190  14.556
94411SOL    HW285131   7.057  12.107  14.663
94412SOL     OW85132   8.233   7.969   0.700
94412SOL    HW185133   8.192   8.051   0.729
94412SOL    HW285134   8.173   7.935   0.634
94413SOL     OW85135   4.718   7.502   1.273
94413SOL    HW185136   4.743   7.540   1.189
94413SOL    HW285137   4.633   7.462   1.256
94414SOL     OW85138   9.109  13.194   9.756
94414SOL    HW185139   9.115  13.120   9.695
94414SOL    HW285140   9.024  13.184   9.797
94415SOL     OW85141   1.927   9.802  12.978
94415SOL    HW185142   1.915   9.867  12.909
94415SOL    HW285143   1.924   9.718  12.933
94416SOL     OW85144   6.016   9.197   3.009
94416SOL    HW185145   5.972   9.141   3.073
94416SOL    HW285146   6.009   9.285   3.046
94417SOL     OW85147  13.064  11.093   6.920
94417SOL    HW185148  13.095  11.094   6.829
94417SOL    HW285149  13.069  11.001   6.946
94418SOL     OW85150   9.031  13.208   3.353
94418SOL    HW185151   8.993  13.286   3.313
94418SOL    HW285152   8.958  13.167   3.400
94419SOL     OW85153   0.301   9.706  14.589
94419SOL    HW185154   0.372   9.714  14.526
94419SOL    HW285155   0.342   9.723  14.674
94420SOL     OW85156   6.157   5.436  13.434
94420SOL    HW185157   6.115   5.495  13.498
94420SOL    HW285158   6.137   5.348  13.467
94421SOL     OW85159   5.990   3.635   9.332
94421SOL    HW185160   6.041   3.715   9.341
94421SOL    HW285161   6.050   3.572   9.292
94422SOL     OW85162  13.996   2.096   1.218
94422SOL    HW185163  14.037   2.060   1.297
94422SOL    HW285164  13.905   2.068   1.223
94423SOL     OW85165   4.409   4.605  13.262
94423SOL    HW185166   4.396   4.695  13.232
94423SOL    HW285167   4.478   4.570  13.206
94424SOL     OW85168  12.373   9.053  13.422
94424SOL    HW185169  12.457   9.070  13.464
94424SOL    HW285170  12.311   9.047  13.495
94425SOL     OW85171   0.923   8.826   0.165
94425SOL    HW185172   0.958   8.757   0.109
94425SOL    HW285173   0.883   8.779   0.239
94426SOL     OW85174   2.438   9.129   0.631
94426SOL    HW185175   2.356   9.167   0.664
94426SOL    HW285176   2.448   9.048   0.682
94427SOL     OW85177  14.137   5.702   9.448
94427SOL    HW185178  14.161   5.779   9.500
94427SOL    HW285179  14.096   5.737   9.370
94428SOL     OW85180   0.019  10.996  10.120
94428SOL    HW185181   0.020  11.011  10.214
94428SOL    HW285182   0.066  11.072  10.084
94429SOL     OW85183   1.619  14.633  13.475
94429SOL    HW185184   1.570  14.668  13.550
94429SOL    HW285185   1.643  14.711  13.424
94430SOL     OW85186   2.951   7.765  10.194
94430SOL    HW185187   2.962   7.672  10.212
94430SOL    HW285188   3.032   7.790  10.149
94431SOL     OW85189   9.473  14.005  14.341
94431SOL    HW185190   9.426  14.088  14.351
94431SOL    HW285191   9.560  14.022  14.378
94432SOL     OW85192   1.027   3.755   6.989
94432SOL    HW185193   1.088   3.690   6.955
94432SOL    HW285194   0.975   3.782   6.913
94433SOL     OW85195   5.107   1.484  14.012
94433SOL    HW185196   5.066   1.417  14.067
94433SOL    HW285197   5.110   1.562  14.068
94434SOL     OW85198   3.595   0.633   1.316
94434SOL    HW185199   3.586   0.664   1.225
94434SOL    HW285200   3.563   0.706   1.369
94435SOL     OW85201  13.335   1.659   3.286
94435SOL    HW185202  13.395   1.631   3.216
94435SOL    HW285203  13.268   1.710   3.241
94436SOL     OW85204   6.986   9.342   8.644
94436SOL    HW185205   7.006   9.318   8.554
94436SOL    HW285206   6.975   9.258   8.689
94437SOL     OW85207  12.894  13.666  14.567
94437SOL    HW185208  12.955  13.630  14.503
94437SOL    HW285209  12.880  13.595  14.629
94438SOL     OW85210   8.213   4.933  12.950
94438SOL    HW185211   8.201   4.875  12.875
94438SOL    HW285212   8.306   4.925  12.972
94439SOL     OW85213  13.038   8.488   3.033
94439SOL    HW185214  13.095   8.520   3.103
94439SOL    HW285215  13.040   8.556   2.966
94440SOL     OW85216   2.246  12.856   8.112
94440SOL    HW185217   2.253  12.920   8.041
94440SOL    HW285218   2.296  12.894   8.184
94441SOL     OW85219   7.922  10.425   9.163
94441SOL    HW185220   7.974  10.351   9.131
94441SOL    HW285221   7.957  10.442   9.250
94442SOL     OW85222   1.749   3.952  12.724
94442SOL    HW185223   1.755   3.910  12.810
94442SOL    HW285224   1.695   3.893  12.672
94443SOL     OW85225   5.639  11.725   2.045
94443SOL    HW185226   5.687  11.797   2.086
94443SOL    HW285227   5.548  11.753   2.044
94444SOL     OW85228   3.820   7.198   0.867
94444SOL    HW185229   3.872   7.133   0.819
94444SOL    HW285230   3.731   7.187   0.833
94445SOL     OW85231   8.153   5.159   4.644
94445SOL    HW185232   8.242   5.138   4.672
94445SOL    HW285233   8.148   5.254   4.650
94446SOL     OW85234  13.386   2.630  13.632
94446SOL    HW185235  13.324   2.572  13.678
94446SOL    HW285236  13.371   2.612  13.539
94447SOL     OW85237  10.526   6.285  11.055
94447SOL    HW185238  10.519   6.241  10.970
94447SOL    HW285239  10.504   6.376  11.037
94448SOL     OW85240   9.610  14.157   7.896
94448SOL    HW185241   9.663  14.085   7.864
94448SOL    HW285242   9.524  14.118   7.914
94449SOL     OW85243  11.379   9.818   8.417
94449SOL    HW185244  11.394   9.725   8.405
94449SOL    HW285245  11.460   9.851   8.456
94450SOL     OW85246  13.899   0.073   5.457
94450SOL    HW185247  13.922  14.860   5.495
94450SOL    HW285248  13.981   0.107   5.423
94451SOL     OW85249  13.637  14.449  12.179
94451SOL    HW185250  13.563  14.394  12.201
94451SOL    HW285251  13.609  14.538  12.201
94452SOL     OW85252   4.815  13.371  10.693
94452SOL    HW185253   4.872  13.364  10.616
94452SOL    HW285254   4.768  13.288  10.696
94453SOL     OW85255   0.023   4.414   9.198
94453SOL    HW185256   0.057   4.324   9.192
94453SOL    HW285257   0.056   4.457   9.120
94454SOL     OW85258   5.032  10.865  13.489
94454SOL    HW185259   5.037  10.856  13.394
94454SOL    HW285260   4.941  10.845  13.510
94455SOL     OW85261   2.964   0.484   0.805
94455SOL    HW185262   2.916   0.401   0.807
94455SOL    HW285263   2.955   0.519   0.893
94456SOL     OW85264  12.035   9.408   3.541
94456SOL    HW185265  12.003   9.470   3.607
94456SOL    HW285266  12.096   9.459   3.488
94457SOL     OW85267   4.269  13.948   6.564
94457SOL    HW185268   4.216  14.019   6.601
94457SOL    HW285269   4.209  13.873   6.562
94458SOL     OW85270   6.083   5.645  10.329
94458SOL    HW185271   5.995   5.678  10.349
94458SOL    HW285272   6.128   5.720  10.291
94459SOL     OW85273   2.667   5.214  14.357
94459SOL    HW185274   2.747   5.246  14.399
94459SOL    HW285275   2.697   5.176  14.275
94460SOL     OW85276  11.663   1.387   8.003
94460SOL    HW185277  11.742   1.434   8.030
94460SOL    HW285278  11.642   1.424   7.918
94461SOL     OW85279   4.339  10.542   4.269
94461SOL    HW185280   4.246  10.561   4.279
94461SOL    HW285281   4.371  10.610   4.209
94462SOL     OW85282   4.682  12.054   4.447
94462SOL    HW185283   4.588  12.059   4.465
94462SOL    HW285284   4.702  12.137   4.403
94463SOL     OW85285  14.764  13.956   3.741
94463SOL    HW185286  14.786  13.865   3.719
94463SOL    HW285287  14.668  13.956   3.745
94464SOL     OW85288   6.041   3.582   3.454
94464SOL    HW185289   6.030   3.674   3.478
94464SOL    HW285290   6.026   3.580   3.360
94465SOL     OW85291   2.763  13.869   7.600
94465SOL    HW185292   2.790  13.904   7.686
94465SOL    HW285293   2.668  13.863   7.606
94466SOL     OW85294   3.979   7.541   1.417
94466SOL    HW185295   3.966   7.564   1.325
94466SOL    HW285296   4.034   7.463   1.415
94467SOL     OW85297   7.709   5.041  10.366
94467SOL    HW185298   7.663   5.096  10.428
94467SOL    HW285299   7.641   5.008  10.307
94468SOL     OW85300   8.619   9.984  11.216
94468SOL    HW185301   8.645   9.892  11.216
94468SOL    HW285302   8.525   9.982  11.229
94469SOL     OW85303   5.728   0.237   0.317
94469SOL    HW185304   5.763   0.281   0.395
94469SOL    HW285305   5.633   0.244   0.327
94470SOL     OW85306   9.522  14.544   8.809
94470SOL    HW185307   9.481  14.630   8.815
94470SOL    HW285308   9.558  14.541   8.720
94471SOL     OW85309  13.887  13.748  10.932
94471SOL    HW185310  13.981  13.739  10.947
94471SOL    HW285311  13.860  13.663  10.898
94472SOL     OW85312   3.161   2.687   7.389
94472SOL    HW185313   3.198   2.767   7.350
94472SOL    HW285314   3.194   2.688   7.479
94473SOL     OW85315  14.773   4.358   8.906
94473SOL    HW185316  14.826   4.423   8.952
94473SOL    HW285317  14.725   4.408   8.840
94474SOL     OW85318   7.412   3.248   9.603
94474SOL    HW185319   7.349   3.298   9.551
94474SOL    HW285320   7.359   3.212   9.674
94475SOL     OW85321   8.666  11.869   4.686
94475SOL    HW185322   8.648  11.806   4.617
94475SOL    HW285323   8.591  11.929   4.684
94476SOL     OW85324   5.552   1.826   4.394
94476SOL    HW185325   5.620   1.765   4.368
94476SOL    HW285326   5.470   1.783   4.368
94477SOL     OW85327   4.230   5.711   4.732
94477SOL    HW185328   4.185   5.782   4.777
94477SOL    HW285329   4.303   5.688   4.790
94478SOL     OW85330  10.309  11.540   9.953
94478SOL    HW185331  10.237  11.604   9.950
94478SOL    HW285332  10.343  11.547  10.043
94479SOL     OW85333  14.565   6.855   4.930
94479SOL    HW185334  14.589   6.880   5.019
94479SOL    HW285335  14.552   6.938   4.884
94480SOL     OW85336  10.444   8.003   6.527
94480SOL    HW185337  10.352   8.031   6.525
94480SOL    HW285338  10.451   7.939   6.457
94481SOL     OW85339   4.162   8.409   5.050
94481SOL    HW185340   4.186   8.497   5.022
94481SOL    HW285341   4.176   8.409   5.144
94482SOL     OW85342   6.119  10.190   6.497
94482SOL    HW185343   6.025  10.192   6.481
94482SOL    HW285344   6.131  10.125   6.566
94483SOL     OW85345   9.037   5.354   6.025
94483SOL    HW185346   9.111   5.294   6.031
94483SOL    HW285347   9.012   5.353   5.933
94484SOL     OW85348  10.393   4.288  14.272
94484SOL    HW185349  10.447   4.235  14.331
94484SOL    HW285350  10.409   4.250  14.185
94485SOL     OW85351  14.607  14.595   0.903
94485SOL    HW185352  14.632  14.598   0.811
94485SOL    HW285353  14.640  14.677   0.940
94486SOL     OW85354   0.895   5.118   8.130
94486SOL    HW185355   0.943   5.113   8.213
94486SOL    HW285356   0.962   5.104   8.063
94487SOL     OW85357  12.562   7.330   5.737
94487SOL    HW185358  12.535   7.415   5.700
94487SOL    HW285359  12.636   7.303   5.683
94488SOL     OW85360   6.217   0.120   5.726
94488SOL    HW185361   6.312   0.132   5.733
94488SOL    HW285362   6.197   0.135   5.634
94489SOL     OW85363   1.195   7.877   1.377
94489SOL    HW185364   1.190   7.800   1.434
94489SOL    HW285365   1.121   7.868   1.318
94490SOL     OW85366  10.010  12.819   4.831
94490SOL    HW185367  10.090  12.869   4.815
94490SOL    HW285368  10.003  12.760   4.756
94491SOL     OW85369   2.994   6.757   8.587
94491SOL    HW185370   2.977   6.851   8.585
94491SOL    HW285371   3.079   6.748   8.543
94492SOL     OW85372   0.957   3.670   2.558
94492SOL    HW185373   0.982   3.671   2.466
94492SOL    HW285374   0.893   3.599   2.566
94493SOL     OW85375   2.587   3.243  11.973
94493SOL    HW185376   2.580   3.177  12.041
94493SOL    HW285377   2.670   3.287  11.991
94494SOL     OW85378   6.049   4.639  10.544
94494SOL    HW185379   6.087   4.571  10.488
94494SOL    HW285380   6.099   4.718  10.522
94495SOL     OW85381  12.001   7.382   8.841
94495SOL    HW185382  11.967   7.388   8.931
94495SOL    HW285383  12.078   7.326   8.849
94496SOL     OW85384  14.091   1.124  13.634
94496SOL    HW185385  14.095   1.127  13.538
94496SOL    HW285386  13.998   1.131  13.654
94497SOL     OW85387  11.303   4.184   2.087
94497SOL    HW185388  11.371   4.250   2.101
94497SOL    HW285389  11.323   4.146   2.002
94498SOL     OW85390   2.714   7.103   9.585
94498SOL    HW185391   2.718   7.073   9.676
94498SOL    HW285392   2.760   7.034   9.536
94499SOL     OW85393   9.434  14.488   5.977
94499SOL    HW185394   9.421  14.577   6.008
94499SOL    HW285395   9.353  14.467   5.931
94500SOL     OW85396  14.571   2.122  12.554
94500SOL    HW185397  14.640   2.186  12.574
94500SOL    HW285398  14.616   2.037  12.556
94501SOL     OW85399   7.649  10.073   5.547
94501SOL    HW185400   7.740  10.087   5.573
94501SOL    HW285401   7.628  10.150   5.495
94502SOL     OW85402   7.091   4.930   7.154
94502SOL    HW185403   6.996   4.928   7.142
94502SOL    HW285404   7.121   4.993   7.089
94503SOL     OW85405   2.252   1.013   1.356
94503SOL    HW185406   2.214   0.962   1.428
94503SOL    HW285407   2.229   1.104   1.376
94504SOL     OW85408   7.479   0.950   4.381
94504SOL    HW185409   7.393   0.989   4.365
94504SOL    HW285410   7.492   0.889   4.309
94505SOL     OW85411   6.752   8.050   0.027
94505SOL    HW185412   6.841   8.048   0.061
94505SOL    HW285413   6.706   7.981   0.075
94506SOL     OW85414   9.231  11.815  11.509
94506SOL    HW185415   9.217  11.887  11.448
94506SOL    HW285416   9.170  11.831  11.581
94507SOL     OW85417   1.203   6.378   7.547
94507SOL    HW185418   1.208   6.400   7.640
94507SOL    HW285419   1.191   6.283   7.546
94508SOL     OW85420   4.684   1.929   6.365
94508SOL    HW185421   4.654   1.985   6.436
94508SOL    HW285422   4.772   1.903   6.391
94509SOL     OW85423  14.691  12.514  12.693
94509SOL    HW185424  14.645  12.456  12.632
94509SOL    HW285425  14.622  12.570  12.729
94510SOL     OW85426   7.327   7.155  12.125
94510SOL    HW185427   7.265   7.132  12.056
94510SOL    HW285428   7.351   7.245  12.106
94511SOL     OW85429   7.589  10.525  12.544
94511SOL    HW185430   7.573  10.439  12.583
94511SOL    HW285431   7.506  10.571  12.554
94512SOL     OW85432   0.624  14.680   3.253
94512SOL    HW185433   0.633  14.600   3.201
94512SOL    HW285434   0.714  14.700   3.281
94513SOL     OW85435   7.219   1.917   6.287
94513SOL    HW185436   7.307   1.953   6.299
94513SOL    HW285437   7.167   1.954   6.359
94514SOL     OW85438   1.216   3.307   9.407
94514SOL    HW185439   1.230   3.397   9.378
94514SOL    HW285440   1.250   3.304   9.496
94515SOL     OW85441   0.882   3.254   6.862
94515SOL    HW185442   0.885   3.169   6.818
94515SOL    HW285443   0.881   3.318   6.791
94516SOL     OW85444   8.501  14.438   0.980
94516SOL    HW185445   8.415  14.476   0.962
94516SOL    HW285446   8.564  14.505   0.953
94517SOL     OW85447   8.103  14.476   6.623
94517SOL    HW185448   8.093  14.449   6.715
94517SOL    HW285449   8.023  14.523   6.603
94518SOL     OW85450   5.307   3.712   7.183
94518SOL    HW185451   5.242   3.666   7.237
94518SOL    HW285452   5.382   3.653   7.181
94519SOL     OW85453   5.205   6.805   3.768
94519SOL    HW185454   5.121   6.806   3.813
94519SOL    HW285455   5.264   6.854   3.826
94520SOL     OW85456   9.444   2.424   1.498
94520SOL    HW185457   9.442   2.494   1.433
94520SOL    HW285458   9.491   2.353   1.454
94521SOL     OW85459   0.777   6.303  14.373
94521SOL    HW185460   0.834   6.377  14.352
94521SOL    HW285461   0.830   6.249  14.432
94522SOL     OW85462  11.265   4.165  12.450
94522SOL    HW185463  11.183   4.117  12.454
94522SOL    HW285464  11.301   4.160  12.538
94523SOL     OW85465   6.637   6.703   0.913
94523SOL    HW185466   6.660   6.757   0.838
94523SOL    HW285467   6.720   6.686   0.957
94524SOL     OW85468   5.965  12.666   0.546
94524SOL    HW185469   5.933  12.592   0.599
94524SOL    HW285470   5.973  12.738   0.608
94525SOL     OW85471  11.075  12.004   9.961
94525SOL    HW185472  11.153  12.044   9.999
94525SOL    HW285473  11.052  11.933  10.021
94526SOL     OW85474   3.917   5.691  10.588
94526SOL    HW185475   3.824   5.675  10.571
94526SOL    HW285476   3.918   5.746  10.666
94527SOL     OW85477   1.449  11.282   6.922
94527SOL    HW185478   1.516  11.346   6.898
94527SOL    HW285479   1.494  11.197   6.916
94528SOL     OW85480  11.056   8.137   4.250
94528SOL    HW185481  11.001   8.061   4.271
94528SOL    HW285482  11.136   8.099   4.213
94529SOL     OW85483   9.815   4.272   0.756
94529SOL    HW185484   9.808   4.193   0.808
94529SOL    HW285485   9.740   4.268   0.697
94530SOL     OW85486   1.659   9.618   4.681
94530SOL    HW185487   1.564   9.607   4.673
94530SOL    HW285488   1.696   9.560   4.615
94531SOL     OW85489   6.537   9.577   2.603
94531SOL    HW185490   6.515   9.504   2.660
94531SOL    HW285491   6.527   9.654   2.659
94532SOL     OW85492  10.411   2.211   5.000
94532SOL    HW185493  10.462   2.154   4.943
94532SOL    HW285494  10.428   2.299   4.966
94533SOL     OW85495   3.942   5.416   2.302
94533SOL    HW185496   3.897   5.406   2.218
94533SOL    HW285497   4.029   5.379   2.287
94534SOL     OW85498  12.317  13.888  13.498
94534SOL    HW185499  12.389  13.946  13.475
94534SOL    HW285500  12.347  13.800  13.473
94535SOL     OW85501  10.307   9.554  11.732
94535SOL    HW185502  10.349   9.469  11.750
94535SOL    HW285503  10.367   9.597  11.671
94536SOL     OW85504   9.757   5.463   5.109
94536SOL    HW185505   9.778   5.432   5.021
94536SOL    HW285506   9.840   5.455   5.157
94537SOL     OW85507  14.391   2.530   4.223
94537SOL    HW185508  14.433   2.606   4.183
94537SOL    HW285509  14.390   2.464   4.153
94538SOL     OW85510   5.103   1.080  13.378
94538SOL    HW185511   5.031   1.039  13.330
94538SOL    HW285512   5.068   1.164  13.406
94539SOL     OW85513   4.484  14.816   3.435
94539SOL    HW185514   4.571  14.856   3.430
94539SOL    HW285515   4.442  14.861   3.508
94540SOL     OW85516   3.369   1.607   6.955
94540SOL    HW185517   3.334   1.567   6.875
94540SOL    HW285518   3.394   1.695   6.929
94541SOL     OW85519   2.463   9.584  11.559
94541SOL    HW185520   2.427   9.503  11.595
94541SOL    HW285521   2.463   9.645  11.633
94542SOL     OW85522   5.805   0.885   1.641
94542SOL    HW185523   5.853   0.867   1.560
94542SOL    HW285524   5.858   0.847   1.710
94543SOL     OW85525   4.211  12.193  12.650
94543SOL    HW185526   4.302  12.177  12.675
94543SOL    HW285527   4.181  12.108  12.617
94544SOL     OW85528   4.834   4.424   3.743
94544SOL    HW185529   4.806   4.377   3.665
94544SOL    HW285530   4.765   4.488   3.759
94545SOL     OW85531   7.178   5.800   6.012
94545SOL    HW185532   7.101   5.778   6.064
94545SOL    HW285533   7.247   5.814   6.076
94546SOL     OW85534   8.532  10.807   2.138
94546SOL    HW185535   8.552  10.740   2.072
94546SOL    HW285536   8.617  10.830   2.176
94547SOL     OW85537   7.116   2.350  10.799
94547SOL    HW185538   7.054   2.374  10.730
94547SOL    HW285539   7.153   2.267  10.770
94548SOL     OW85540  12.518  14.139   9.404
94548SOL    HW185541  12.437  14.186   9.428
94548SOL    HW285542  12.488  14.065   9.352
94549SOL     OW85543   5.660  10.106  11.538
94549SOL    HW185544   5.593  10.171  11.514
94549SOL    HW285545   5.718  10.152  11.598
94550SOL     OW85546   5.104   2.136   1.364
94550SOL    HW185547   5.092   2.067   1.429
94550SOL    HW285548   5.181   2.184   1.395
94551SOL     OW85549  13.437   1.063   5.093
94551SOL    HW185550  13.400   1.024   5.172
94551SOL    HW285551  13.525   1.026   5.087
94552SOL     OW85552   6.844   2.342   8.003
94552SOL    HW185553   6.827   2.432   7.977
94552SOL    HW285554   6.903   2.350   8.078
94553SOL     OW85555   4.114   3.225   3.115
94553SOL    HW185556   4.186   3.228   3.179
94553SOL    HW285557   4.143   3.282   3.044
94554SOL     OW85558  13.926  11.195   0.438
94554SOL    HW185559  13.838  11.219   0.467
94554SOL    HW285560  13.915  11.108   0.400
94555SOL     OW85561  11.399  12.327   0.323
94555SOL    HW185562  11.469  12.300   0.263
94555SOL    HW285563  11.373  12.246   0.367
94556SOL     OW85564  10.505   1.702   7.609
94556SOL    HW185565  10.530   1.772   7.549
94556SOL    HW285566  10.538   1.622   7.568
94557SOL     OW85567   9.459   2.063   2.035
94557SOL    HW185568   9.472   2.134   1.972
94557SOL    HW285569   9.373   2.080   2.073
94558SOL     OW85570   0.399   2.648  11.907
94558SOL    HW185571   0.318   2.677  11.864
94558SOL    HW285572   0.405   2.704  11.985
94559SOL     OW85573   5.838  10.513   3.285
94559SOL    HW185574   5.785  10.449   3.334
94559SOL    HW285575   5.859  10.580   3.350
94560SOL     OW85576   1.362   2.544   0.429
94560SOL    HW185577   1.365   2.452   0.403
94560SOL    HW285578   1.288   2.581   0.381
94561SOL     OW85579  12.524  14.615   2.805
94561SOL    HW185580  12.484  14.688   2.852
94561SOL    HW285581  12.565  14.562   2.873
94562SOL     OW85582  11.928  13.539   1.110
94562SOL    HW185583  11.982  13.618   1.116
94562SOL    HW285584  11.971  13.486   1.043
94563SOL     OW85585  12.375  11.242   3.297
94563SOL    HW185586  12.316  11.290   3.239
94563SOL    HW285587  12.379  11.154   3.258
94564SOL     OW85588   5.778  14.419   3.800
94564SOL    HW185589   5.818  14.333   3.815
94564SOL    HW285590   5.818  14.476   3.865
94565SOL     OW85591  11.092  10.850   4.926
94565SOL    HW185592  11.041  10.872   4.849
94565SOL    HW285593  11.062  10.912   4.993
94566SOL     OW85594   6.063  13.581   9.113
94566SOL    HW185595   6.089  13.516   9.179
94566SOL    HW285596   6.044  13.529   9.035
94567SOL     OW85597   9.561   2.631   3.947
94567SOL    HW185598   9.508   2.616   4.025
94567SOL    HW285599   9.611   2.711   3.967
94568SOL     OW85600  11.398   1.789   2.949
94568SOL    HW185601  11.315   1.805   2.994
94568SOL    HW285602  11.457   1.760   3.019
94569SOL     OW85603  12.043  12.104   9.781
94569SOL    HW185604  12.080  12.064   9.702
94569SOL    HW285605  11.976  12.164   9.747
94570SOL     OW85606   0.446   9.664  14.173
94570SOL    HW185607   0.366   9.612  14.164
94570SOL    HW285608   0.510   9.617  14.119
94571SOL     OW85609  14.547   4.442   7.760
94571SOL    HW185610  14.510   4.479   7.840
94571SOL    HW285611  14.558   4.518   7.702
94572SOL     OW85612   0.362   0.268   5.204
94572SOL    HW185613   0.390   0.182   5.235
94572SOL    HW285614   0.381   0.268   5.110
94573SOL     OW85615   9.583  12.659  12.914
94573SOL    HW185616   9.675  12.684  12.926
94573SOL    HW285617   9.534  12.739  12.929
94574SOL     OW85618   0.722   3.823   2.210
94574SOL    HW185619   0.673   3.803   2.130
94574SOL    HW285620   0.655   3.850   2.273
94575SOL     OW85621  13.537   7.157   1.035
94575SOL    HW185622  13.489   7.083   1.070
94575SOL    HW285623  13.483   7.189   0.963
94576SOL     OW85624   4.638   2.369   1.770
94576SOL    HW185625   4.697   2.435   1.734
94576SOL    HW285626   4.628   2.393   1.862
94577SOL     OW85627  13.567   6.389  14.574
94577SOL    HW185628  13.619   6.470  14.571
94577SOL    HW285629  13.570   6.362  14.666
94578SOL     OW85630   0.573  11.486   9.670
94578SOL    HW185631   0.662  11.478   9.703
94578SOL    HW285632   0.552  11.579   9.679
94579SOL     OW85633  10.238   8.398  12.463
94579SOL    HW185634  10.202   8.346  12.391
94579SOL    HW285635  10.278   8.333  12.521
94580SOL     OW85636   8.721   5.409  10.253
94580SOL    HW185637   8.757   5.428  10.339
94580SOL    HW285638   8.626   5.409  10.266
94581SOL     OW85639   3.146   1.881   8.522
94581SOL    HW185640   3.095   1.826   8.582
94581SOL    HW285641   3.228   1.898   8.569
94582SOL     OW85642  14.676   8.851   5.482
94582SOL    HW185643  14.597   8.800   5.464
94582SOL    HW285644  14.696   8.894   5.399
94583SOL     OW85645   5.114   9.077   9.613
94583SOL    HW185646   5.170   9.008   9.649
94583SOL    HW285647   5.158   9.104   9.532
94584SOL     OW85648  12.485   0.882  13.107
94584SOL    HW185649  12.566   0.932  13.093
94584SOL    HW285650  12.497   0.802  13.057
94585SOL     OW85651   5.038  13.752  13.843
94585SOL    HW185652   4.962  13.695  13.836
94585SOL    HW285653   5.106  13.696  13.881
94586SOL     OW85654   1.467  14.315  10.083
94586SOL    HW185655   1.441  14.307   9.991
94586SOL    HW285656   1.533  14.248  10.095
94587SOL     OW85657   7.198   4.532   1.615
94587SOL    HW185658   7.131   4.567   1.556
94587SOL    HW285659   7.224   4.449   1.574
94588SOL     OW85660   1.665   1.623   9.774
94588SOL    HW185661   1.709   1.647   9.856
94588SOL    HW285662   1.575   1.603   9.799
94589SOL     OW85663   3.735  10.984   4.864
94589SOL    HW185664   3.792  11.046   4.908
94589SOL    HW285665   3.707  11.029   4.784
94590SOL     OW85666  11.580   8.437   4.113
94590SOL    HW185667  11.625   8.390   4.044
94590SOL    HW285668  11.641   8.506   4.140
94591SOL     OW85669   8.576   7.604  13.639
94591SOL    HW185670   8.573   7.640  13.728
94591SOL    HW285671   8.668   7.607  13.615
94592SOL     OW85672   3.009   3.436   4.411
94592SOL    HW185673   3.005   3.522   4.369
94592SOL    HW285674   2.930   3.392   4.383
94593SOL     OW85675   8.406  10.913   9.664
94593SOL    HW185676   8.478  10.975   9.673
94593SOL    HW285677   8.336  10.948   9.720
94594SOL     OW85678   6.101  14.592  10.728
94594SOL    HW185679   6.011  14.612  10.752
94594SOL    HW285680   6.102  14.498  10.710
94595SOL     OW85681   2.834   9.899  12.590
94595SOL    HW185682   2.831   9.861  12.503
94595SOL    HW285683   2.855   9.991  12.576
94596SOL     OW85684   7.324   5.066   0.309
94596SOL    HW185685   7.360   5.054   0.222
94596SOL    HW285686   7.277   5.150   0.304
94597SOL     OW85687   2.214   9.142   9.258
94597SOL    HW185688   2.146   9.075   9.247
94597SOL    HW285689   2.184   9.196   9.331
94598SOL     OW85690   8.927   1.854   6.486
94598SOL    HW185691   8.877   1.890   6.559
94598SOL    HW285692   8.993   1.798   6.527
94599SOL     OW85693  14.194  12.450   4.976
94599SOL    HW185694  14.185  12.544   4.964
94599SOL    HW285695  14.104  12.418   4.984
94600SOL     OW85696  10.835   3.680   5.393
94600SOL    HW185697  10.800   3.757   5.437
94600SOL    HW285698  10.928   3.679   5.417
94601SOL     OW85699  13.069  10.837  10.306
94601SOL    HW185700  13.002  10.843  10.238
94601SOL    HW285701  13.043  10.904  10.370
94602SOL     OW85702  10.954  11.690   4.075
94602SOL    HW185703  10.894  11.694   4.150
94602SOL    HW285704  11.040  11.712   4.111
94603SOL     OW85705   4.827   6.668   7.017
94603SOL    HW185706   4.828   6.757   6.982
94603SOL    HW285707   4.890   6.621   6.964
94604SOL     OW85708  11.199   9.435   3.733
94604SOL    HW185709  11.113   9.473   3.717
94604SOL    HW285710  11.211   9.440   3.828
94605SOL     OW85711  13.455  12.269   3.748
94605SOL    HW185712  13.472  12.355   3.709
94605SOL    HW285713  13.529  12.255   3.808
94606SOL     OW85714   0.484  13.325   8.712
94606SOL    HW185715   0.459  13.345   8.802
94606SOL    HW285716   0.409  13.277   8.677
94607SOL     OW85717   1.568   6.243   2.633
94607SOL    HW185718   1.601   6.310   2.572
94607SOL    HW285719   1.610   6.162   2.605
94608SOL     OW85720   8.966   5.504   9.590
94608SOL    HW185721   9.043   5.542   9.632
94608SOL    HW285722   8.914   5.468   9.661
94609SOL     OW85723  12.815   4.817  12.572
94609SOL    HW185724  12.852   4.858  12.650
94609SOL    HW285725  12.767   4.887  12.528
94610SOL     OW85726   2.864   3.585   1.717
94610SOL    HW185727   2.815   3.531   1.779
94610SOL    HW285728   2.884   3.665   1.765
94611SOL     OW85729   7.342  13.068   4.859
94611SOL    HW185730   7.307  12.980   4.875
94611SOL    HW285731   7.437  13.057   4.860
94612SOL     OW85732   1.126  11.795  12.492
94612SOL    HW185733   1.115  11.873  12.439
94612SOL    HW285734   1.050  11.740  12.471
94613SOL     OW85735   5.632   2.829   8.021
94613SOL    HW185736   5.693   2.877   7.965
94613SOL    HW285737   5.552   2.822   7.970
94614SOL     OW85738   3.724  11.158   3.508
94614SOL    HW185739   3.678  11.124   3.431
94614SOL    HW285740   3.774  11.232   3.474
94615SOL     OW85741  10.251  10.002   2.587
94615SOL    HW185742  10.277  10.092   2.605
94615SOL    HW285743  10.166   9.993   2.629
94616SOL     OW85744   2.503   4.147   1.842
94616SOL    HW185745   2.464   4.234   1.831
94616SOL    HW285746   2.430   4.090   1.866
94617SOL     OW85747  13.939  12.555   9.908
94617SOL    HW185748  13.860  12.601   9.938
94617SOL    HW285749  13.991  12.541   9.987
94618SOL     OW85750  10.040   4.444   3.972
94618SOL    HW185751  10.087   4.513   3.925
94618SOL    HW285752  10.019   4.379   3.905
94619SOL     OW85753  12.916  13.044   5.359
94619SOL    HW185754  12.837  13.003   5.323
94619SOL    HW285755  12.894  13.063   5.450
94620SOL     OW85756  12.502   3.286   3.913
94620SOL    HW185757  12.526   3.374   3.942
94620SOL    HW285758  12.436   3.300   3.845
94621SOL     OW85759  11.158   2.722  11.600
94621SOL    HW185760  11.144   2.810  11.637
94621SOL    HW285761  11.194   2.738  11.512
94622SOL     OW85762  13.724   4.528   1.811
94622SOL    HW185763  13.817   4.507   1.803
94622SOL    HW285764  13.719   4.589   1.884
94623SOL     OW85765  11.225   8.221  12.271
94623SOL    HW185766  11.306   8.254  12.310
94623SOL    HW285767  11.161   8.291  12.285
94624SOL     OW85768   6.405   9.953   2.822
94624SOL    HW185769   6.399  10.034   2.873
94624SOL    HW285770   6.456   9.977   2.745
94625SOL     OW85771   1.848  13.973   9.943
94625SOL    HW185772   1.804  13.903   9.893
94625SOL    HW285773   1.941  13.960   9.925
94626SOL     OW85774  10.877   8.019   1.235
94626SOL    HW185775  10.898   8.027   1.328
94626SOL    HW285776  10.849   8.106   1.209
94627SOL     OW85777  13.484   9.425   2.409
94627SOL    HW185778  13.571   9.397   2.437
94627SOL    HW285779  13.489   9.427   2.313
94628SOL     OW85780  11.009   4.471   3.637
94628SOL    HW185781  11.035   4.493   3.727
94628SOL    HW285782  10.966   4.550   3.605
94629SOL     OW85783   2.266  13.805   8.189
94629SOL    HW185784   2.228  13.775   8.107
94629SOL    HW285785   2.208  13.876   8.218
94630SOL     OW85786   2.588  12.238  14.564
94630SOL    HW185787   2.512  12.182  14.553
94630SOL    HW285788   2.611  12.232  14.656
94631SOL     OW85789  11.730   4.973   8.733
94631SOL    HW185790  11.705   4.975   8.641
94631SOL    HW285791  11.674   5.039   8.775
94632SOL     OW85792   6.223   7.302   6.603
94632SOL    HW185793   6.182   7.230   6.554
94632SOL    HW285794   6.298   7.262   6.646
94633SOL     OW85795  13.769  11.288   9.452
94633SOL    HW185796  13.857  11.253   9.449
94633SOL    HW285797  13.780  11.382   9.439
94634SOL     OW85798   3.187   9.402   4.750
94634SOL    HW185799   3.111   9.458   4.737
94634SOL    HW285800   3.219   9.385   4.661
94635SOL     OW85801  10.877   7.061   8.263
94635SOL    HW185802  10.895   7.140   8.315
94635SOL    HW285803  10.886   7.091   8.172
94636SOL     OW85804   4.990   3.408   8.982
94636SOL    HW185805   5.013   3.404   8.889
94636SOL    HW285806   5.073   3.394   9.027
94637SOL     OW85807   2.606  11.186   2.566
94637SOL    HW185808   2.633  11.114   2.623
94637SOL    HW285809   2.516  11.164   2.541
94638SOL     OW85810  13.824   4.490   7.901
94638SOL    HW185811  13.883   4.503   7.975
94638SOL    HW285812  13.743   4.535   7.926
94639SOL     OW85813   9.116   5.265  10.520
94639SOL    HW185814   9.129   5.178  10.557
94639SOL    HW285815   9.022   5.281  10.529
94640SOL     OW85816   6.699  10.589   6.078
94640SOL    HW185817   6.709  10.620   6.168
94640SOL    HW285818   6.778  10.619   6.033
94641SOL     OW85819   6.104  11.015   6.814
94641SOL    HW185820   6.123  10.928   6.847
94641SOL    HW285821   6.080  11.066   6.892
94642SOL     OW85822   0.612   4.752  13.496
94642SOL    HW185823   0.607   4.766  13.402
94642SOL    HW285824   0.653   4.666  13.505
94643SOL     OW85825   3.157   4.454  14.172
94643SOL    HW185826   3.206   4.474  14.093
94643SOL    HW285827   3.219   4.467  14.244
94644SOL     OW85828  13.975  14.046  11.898
94644SOL    HW185829  14.046  14.074  11.840
94644SOL    HW285830  13.966  13.952  11.881
94645SOL     OW85831   1.615   4.635  13.049
94645SOL    HW185832   1.519   4.641  13.047
94645SOL    HW285833   1.633   4.543  13.027
94646SOL     OW85834   9.130   9.999  10.466
94646SOL    HW185835   9.143  10.008  10.371
94646SOL    HW285836   9.036   9.984  10.476
94647SOL     OW85837   8.672   3.951   5.565
94647SOL    HW185838   8.732   3.932   5.638
94647SOL    HW285839   8.722   4.009   5.507
94648SOL     OW85840   6.173   4.034  14.069
94648SOL    HW185841   6.080   4.053  14.077
94648SOL    HW285842   6.212   4.069  14.149
94649SOL     OW85843  11.590  13.564   6.815
94649SOL    HW185844  11.682  13.585   6.833
94649SOL    HW285845  11.555  13.537   6.900
94650SOL     OW85846   4.774   4.470   7.988
94650SOL    HW185847   4.713   4.479   8.061
94650SOL    HW285848   4.719   4.450   7.913
94651SOL     OW85849  13.997  11.264   7.668
94651SOL    HW185850  13.971  11.336   7.611
94651SOL    HW285851  13.927  11.199   7.660
94652SOL     OW85852   9.539   8.022  13.667
94652SOL    HW185853   9.443   8.026  13.666
94652SOL    HW285854   9.566   8.065  13.586
94653SOL     OW85855   5.877   6.410   0.673
94653SOL    HW185856   5.876   6.499   0.707
94653SOL    HW285857   5.961   6.373   0.703
94654SOL     OW85858  14.605   9.123  11.354
94654SOL    HW185859  14.699   9.132  11.366
94654SOL    HW285860  14.596   9.063  11.280
94655SOL     OW85861   1.653  10.724   4.283
94655SOL    HW185862   1.563  10.734   4.314
94655SOL    HW285863   1.688  10.813   4.285
94656SOL     OW85864  13.392   3.327  10.669
94656SOL    HW185865  13.462   3.263  10.681
94656SOL    HW285866  13.322   3.280  10.624
94657SOL     OW85867   6.551   9.335  10.477
94657SOL    HW185868   6.624   9.396  10.482
94657SOL    HW285869   6.487   9.368  10.540
94658SOL     OW85870  10.495   9.818   6.173
94658SOL    HW185871  10.426   9.760   6.142
94658SOL    HW285872  10.464   9.849   6.258
94659SOL     OW85873   8.386   2.244   2.387
94659SOL    HW185874   8.420   2.171   2.440
94659SOL    HW285875   8.409   2.322   2.436
94660SOL     OW85876   1.031  11.965   3.398
94660SOL    HW185877   1.061  11.938   3.485
94660SOL    HW285878   1.060  11.894   3.340
94661SOL     OW85879   1.413   7.478   7.962
94661SOL    HW185880   1.348   7.418   7.927
94661SOL    HW285881   1.388   7.489   8.054
94662SOL     OW85882   1.980   1.603  10.187
94662SOL    HW185883   2.062   1.653  10.187
94662SOL    HW285884   1.933   1.634  10.109
94663SOL     OW85885  11.608  11.356   7.295
94663SOL    HW185886  11.608  11.451   7.291
94663SOL    HW285887  11.637  11.336   7.384
94664SOL     OW85888  10.911   3.708  11.734
94664SOL    HW185889  10.932   3.706  11.827
94664SOL    HW285890  10.953   3.788  11.702
94665SOL     OW85891   3.716  12.678   4.531
94665SOL    HW185892   3.710  12.726   4.614
94665SOL    HW285893   3.629  12.639   4.521
94666SOL     OW85894   2.824   1.532   7.162
94666SOL    HW185895   2.755   1.547   7.097
94666SOL    HW285896   2.898   1.500   7.111
94667SOL     OW85897   6.757   1.627   4.996
94667SOL    HW185898   6.664   1.645   5.014
94667SOL    HW285899   6.768   1.535   5.020
94668SOL     OW85900   9.879   3.415  13.698
94668SOL    HW185901   9.868   3.424  13.792
94668SOL    HW285902   9.791   3.404  13.664
94669SOL     OW85903  14.457   6.860  10.289
94669SOL    HW185904  14.548   6.884  10.276
94669SOL    HW285905  14.407   6.928  10.243
94670SOL     OW85906   5.669   8.268  12.818
94670SOL    HW185907   5.736   8.252  12.885
94670SOL    HW285908   5.695   8.213  12.744
94671SOL     OW85909  11.611   4.414   6.408
94671SOL    HW185910  11.650   4.379   6.488
94671SOL    HW285911  11.534   4.462   6.437
94672SOL     OW85912  10.582   7.819  13.737
94672SOL    HW185913  10.558   7.907  13.706
94672SOL    HW285914  10.647   7.834  13.805
94673SOL     OW85915   7.831   4.472   2.782
94673SOL    HW185916   7.887   4.545   2.755
94673SOL    HW285917   7.743   4.498   2.755
94674SOL     OW85918   0.348   6.385  11.990
94674SOL    HW185919   0.388   6.463  11.952
94674SOL    HW285920   0.423   6.330  12.014
94675SOL     OW85921   3.299   5.217  11.267
94675SOL    HW185922   3.318   5.283  11.201
94675SOL    HW285923   3.347   5.246  11.344
94676SOL     OW85924   0.186   9.515  10.444
94676SOL    HW185925   0.203   9.550  10.532
94676SOL    HW285926   0.124   9.577  10.405
94677SOL     OW85927   4.901   2.721   3.897
94677SOL    HW185928   4.899   2.816   3.907
94677SOL    HW285929   4.931   2.707   3.807
94678SOL     OW85930  14.452   4.673  12.634
94678SOL    HW185931  14.486   4.646  12.719
94678SOL    HW285932  14.523   4.651  12.573
94679SOL     OW85933   4.819  12.919  14.273
94679SOL    HW185934   4.772  12.890  14.351
94679SOL    HW285935   4.758  12.979  14.230
94680SOL     OW85936   5.781   2.294  11.681
94680SOL    HW185937   5.846   2.353  11.718
94680SOL    HW285938   5.699   2.343  11.683
94681SOL     OW85939   3.316   3.321  11.163
94681SOL    HW185940   3.273   3.243  11.199
94681SOL    HW285941   3.278   3.330  11.075
94682SOL     OW85942   0.782   9.258  10.312
94682SOL    HW185943   0.727   9.308  10.252
94682SOL    HW285944   0.737   9.174  10.320
94683SOL     OW85945  11.999   8.541   3.972
94683SOL    HW185946  12.034   8.550   3.884
94683SOL    HW285947  12.059   8.481   4.016
94684SOL     OW85948   6.984  12.241   8.883
94684SOL    HW185949   6.947  12.306   8.944
94684SOL    HW285950   7.078  12.255   8.887
94685SOL     OW85951  12.583   8.664  10.258
94685SOL    HW185952  12.621   8.737  10.209
94685SOL    HW285953  12.490   8.665  10.236
94686SOL     OW85954   5.479   1.707  14.393
94686SOL    HW185955   5.541   1.654  14.443
94686SOL    HW285956   5.395   1.697  14.439
94687SOL     OW85957   4.011   1.284   7.180
94687SOL    HW185958   3.950   1.349   7.217
94687SOL    HW285959   4.097   1.313   7.209
94688SOL     OW85960  13.413   9.816   0.654
94688SOL    HW185961  13.386   9.890   0.599
94688SOL    HW285962  13.444   9.750   0.593
94689SOL     OW85963  10.868  10.362   3.254
94689SOL    HW185964  10.826  10.429   3.199
94689SOL    HW285965  10.881  10.405   3.339
94690SOL     OW85966   0.792   1.187   9.689
94690SOL    HW185967   0.853   1.138   9.744
94690SOL    HW285968   0.718   1.206   9.748
94691SOL     OW85969   0.723   1.640   1.854
94691SOL    HW185970   0.719   1.690   1.936
94691SOL    HW285971   0.816   1.619   1.844
94692SOL     OW85972   2.175   1.129   3.604
94692SOL    HW185973   2.211   1.175   3.680
94692SOL    HW285974   2.086   1.165   3.595
94693SOL     OW85975   6.268  10.248  12.133
94693SOL    HW185976   6.317  10.205  12.063
94693SOL    HW285977   6.280  10.191  12.209
94694SOL     OW85978   3.288  14.084   9.101
94694SOL    HW185979   3.336  14.144   9.043
94694SOL    HW285980   3.341  14.005   9.103
94695SOL     OW85981   4.850   7.046   7.273
94695SOL    HW185982   4.896   7.046   7.357
94695SOL    HW285983   4.779   6.982   7.285
94696SOL     OW85984  13.021   2.742   8.942
94696SOL    HW185985  13.078   2.666   8.931
94696SOL    HW285986  13.036   2.795   8.864
94697SOL     OW85987  12.568  12.838  13.023
94697SOL    HW185988  12.658  12.812  13.041
94697SOL    HW285989  12.515  12.760  13.042
94698SOL     OW85990  12.320  10.627   3.844
94698SOL    HW185991  12.283  10.564   3.905
94698SOL    HW285992  12.301  10.591   3.757
94699SOL     OW85993   5.303   4.483   4.959
94699SOL    HW185994   5.313   4.533   4.879
94699SOL    HW285995   5.296   4.549   5.028
94700SOL     OW85996  12.513  10.303   2.199
94700SOL    HW185997  12.455  10.227   2.204
94700SOL    HW285998  12.565  10.299   2.280
94701SOL     OW85999   1.934   5.009   5.468
94701SOL    HW186000   1.994   4.975   5.402
94701SOL    HW286001   1.989   5.064   5.524
94702SOL     OW86002  10.594  10.469  13.760
94702SOL    HW186003  10.623  10.558  13.777
94702SOL    HW286004  10.500  10.477  13.742
94703SOL     OW86005   2.082   6.260   3.350
94703SOL    HW186006   2.160   6.258   3.294
94703SOL    HW286007   2.109   6.218   3.431
94704SOL     OW86008  10.160  13.609   9.646
94704SOL    HW186009  10.106  13.533   9.668
94704SOL    HW286010  10.145  13.621   9.552
94705SOL     OW86011   5.999  13.713   1.117
94705SOL    HW186012   5.984  13.792   1.169
94705SOL    HW286013   5.977  13.641   1.176
94706SOL     OW86014  10.727   1.570  12.044
94706SOL    HW186015  10.738   1.614  11.959
94706SOL    HW286016  10.816   1.558  12.077
94707SOL     OW86017   8.192   2.911   2.166
94707SOL    HW186018   8.162   2.981   2.108
94707SOL    HW286019   8.129   2.910   2.237
94708SOL     OW86020   8.336   1.329   4.250
94708SOL    HW186021   8.390   1.368   4.181
94708SOL    HW286022   8.247   1.357   4.229
94709SOL     OW86023   6.953  10.842  10.533
94709SOL    HW186024   6.931  10.881  10.449
94709SOL    HW286025   7.021  10.778  10.513
94710SOL     OW86026   2.647   0.410  11.208
94710SOL    HW186027   2.730   0.453  11.228
94710SOL    HW286028   2.580   0.470  11.242
94711SOL     OW86029   3.188   4.950  14.867
94711SOL    HW186030   3.281   4.961   0.012
94711SOL    HW286031   3.165   4.867   0.035
94712SOL     OW86032   2.947   8.328   3.853
94712SOL    HW186033   2.905   8.388   3.791
94712SOL    HW286034   3.015   8.284   3.803
94713SOL     OW86035   8.695   6.109   5.514
94713SOL    HW186036   8.600   6.110   5.500
94713SOL    HW286037   8.709   6.044   5.584
94714SOL     OW86038   6.936   9.325  11.950
94714SOL    HW186039   6.989   9.360  12.022
94714SOL    HW286040   6.854   9.298  11.992
94715SOL     OW86041   8.670   8.908   4.352
94715SOL    HW186042   8.718   8.827   4.369
94715SOL    HW286043   8.637   8.898   4.263
94716SOL     OW86044  10.638  10.155   1.116
94716SOL    HW186045  10.644  10.208   1.037
94716SOL    HW286046  10.590  10.209   1.179
94717SOL     OW86047   5.724  11.449   7.209
94717SOL    HW186048   5.709  11.389   7.281
94717SOL    HW286049   5.678  11.410   7.135
94718SOL     OW86050   4.251  13.401  14.128
94718SOL    HW186051   4.271  13.494  14.124
94718SOL    HW286052   4.272  13.375  14.218
94719SOL     OW86053  10.299   6.941   7.983
94719SOL    HW186054  10.334   7.021   7.943
94719SOL    HW286055  10.280   6.883   7.909
94720SOL     OW86056  13.155   4.407  12.564
94720SOL    HW186057  13.109   4.336  12.609
94720SOL    HW286058  13.187   4.463  12.635
94721SOL     OW86059   4.323  14.116   4.775
94721SOL    HW186060   4.327  14.098   4.869
94721SOL    HW286061   4.262  14.050   4.741
94722SOL     OW86062  10.221   3.484   4.332
94722SOL    HW186063  10.170   3.512   4.256
94722SOL    HW286064  10.302   3.534   4.326
94723SOL     OW86065   2.163   8.153   4.263
94723SOL    HW186066   2.126   8.190   4.343
94723SOL    HW286067   2.118   8.069   4.252
94724SOL     OW86068   0.481   9.914   4.525
94724SOL    HW186069   0.444   9.997   4.495
94724SOL    HW286070   0.562   9.940   4.570
94725SOL     OW86071   6.501   6.161  14.820
94725SOL    HW186072   6.521   6.191   0.037
94725SOL    HW286073   6.550   6.221  14.764
94726SOL     OW86074   3.410   7.703   8.974
94726SOL    HW186075   3.320   7.706   9.007
94726SOL    HW286076   3.440   7.615   8.995
94727SOL     OW86077   0.407   3.353   7.096
94727SOL    HW186078   0.330   3.351   7.040
94727SOL    HW286079   0.466   3.286   7.059
94728SOL     OW86080   9.061   3.618   6.362
94728SOL    HW186081   9.012   3.545   6.399
94728SOL    HW286082   9.143   3.620   6.412
94729SOL     OW86083   5.777   5.324   7.924
94729SOL    HW186084   5.871   5.335   7.936
94729SOL    HW286085   5.759   5.363   7.838
94730SOL     OW86086  10.729  10.259  13.633
94730SOL    HW186087  10.746  10.284  13.542
94730SOL    HW286088  10.663  10.320  13.663
94731SOL     OW86089   2.025   1.465   1.133
94731SOL    HW186090   2.006   1.524   1.060
94731SOL    HW286091   2.001   1.515   1.211
94732SOL     OW86092   3.018   9.684  13.215
94732SOL    HW186093   3.108   9.717  13.217
94732SOL    HW286094   2.968   9.748  13.266
94733SOL     OW86095  10.568   4.924  10.037
94733SOL    HW186096  10.480   4.889  10.022
94733SOL    HW286097  10.567   5.010   9.996
94734SOL     OW86098   8.694  11.609   8.223
94734SOL    HW186099   8.730  11.665   8.154
94734SOL    HW286100   8.763  11.545   8.240
94735SOL     OW86101   0.963   7.692   2.410
94735SOL    HW186102   1.012   7.770   2.437
94735SOL    HW286103   0.890   7.687   2.473
94736SOL     OW86104  11.246   5.639   0.372
94736SOL    HW186105  11.216   5.550   0.388
94736SOL    HW286106  11.206   5.663   0.288
94737SOL     OW86107   3.258  11.308  11.374
94737SOL    HW186108   3.298  11.361  11.442
94737SOL    HW286109   3.242  11.370  11.302
94738SOL     OW86110   9.412  13.764   0.167
94738SOL    HW186111   9.422  13.803   0.254
94738SOL    HW286112   9.334  13.709   0.174
94739SOL     OW86113   8.781   8.846  13.500
94739SOL    HW186114   8.847   8.915  13.495
94739SOL    HW286115   8.700   8.889  13.473
94740SOL     OW86116   2.250   3.731   6.210
94740SOL    HW186117   2.248   3.646   6.254
94740SOL    HW286118   2.165   3.770   6.231
94741SOL     OW86119   8.086  12.095   9.782
94741SOL    HW186120   7.997  12.101   9.817
94741SOL    HW286121   8.083  12.022   9.721
94742SOL     OW86122   0.703   8.746   7.805
94742SOL    HW186123   0.796   8.728   7.791
94742SOL    HW286124   0.671   8.671   7.856
94743SOL     OW86125  12.342   7.862   5.916
94743SOL    HW186126  12.275   7.890   5.853
94743SOL    HW286127  12.421   7.853   5.864
94744SOL     OW86128  11.941   0.162   7.216
94744SOL    HW186129  11.986   0.228   7.269
94744SOL    HW286130  11.864   0.207   7.181
94745SOL     OW86131   6.230  14.489   5.454
94745SOL    HW186132   6.208  14.413   5.508
94745SOL    HW286133   6.180  14.561   5.494
94746SOL     OW86134  14.759   7.800   6.588
94746SOL    HW186135  14.721   7.743   6.521
94746SOL    HW286136  14.727   7.765   6.671
94747SOL     OW86137   1.352   8.293  12.967
94747SOL    HW186138   1.366   8.286  13.061
94747SOL    HW286139   1.391   8.377  12.943
94748SOL     OW86140  14.138   5.549  13.403
94748SOL    HW186141  14.134   5.482  13.471
94748SOL    HW286142  14.085   5.621  13.437
94749SOL     OW86143   2.511   7.628   2.549
94749SOL    HW186144   2.539   7.720   2.548
94749SOL    HW286145   2.418   7.633   2.574
94750SOL     OW86146   6.671   8.592   5.890
94750SOL    HW186147   6.655   8.586   5.796
94750SOL    HW286148   6.597   8.547   5.930
94751SOL     OW86149   7.133   5.711  11.141
94751SOL    HW186150   7.058   5.699  11.083
94751SOL    HW286151   7.137   5.806  11.155
94752SOL     OW86152   5.682   3.719  10.817
94752SOL    HW186153   5.633   3.652  10.769
94752SOL    HW286154   5.630   3.736  10.895
94753SOL     OW86155   5.443   4.952  11.266
94753SOL    HW186156   5.422   4.960  11.359
94753SOL    HW286157   5.538   4.935  11.265
94754SOL     OW86158   5.949  14.594   0.578
94754SOL    HW186159   5.927  14.663   0.514
94754SOL    HW286160   5.890  14.522   0.556
94755SOL     OW86161   8.385   5.054   3.854
94755SOL    HW186162   8.391   5.138   3.900
94755SOL    HW286163   8.337   5.073   3.774
94756SOL     OW86164  12.712   7.128  13.297
94756SOL    HW186165  12.798   7.147  13.261
94756SOL    HW286166  12.724   7.131  13.392
94757SOL     OW86167   7.997   5.302   1.624
94757SOL    HW186168   8.023   5.210   1.635
94757SOL    HW286169   8.011   5.341   1.710
94758SOL     OW86170  13.007  10.396  13.845
94758SOL    HW186171  13.091  10.442  13.848
94758SOL    HW286172  12.944  10.464  13.822
94759SOL     OW86173  10.478  11.576   2.382
94759SOL    HW186174  10.549  11.608   2.327
94759SOL    HW286175  10.410  11.643   2.376
94760SOL     OW86176  10.990   9.344  11.219
94760SOL    HW186177  11.026   9.423  11.179
94760SOL    HW286178  10.899   9.368  11.240
94761SOL     OW86179  11.075  12.913   8.688
94761SOL    HW186180  11.072  12.897   8.594
94761SOL    HW286181  11.027  12.841   8.727
94762SOL     OW86182   0.411   9.623  10.941
94762SOL    HW186183   0.342   9.561  10.918
94762SOL    HW286184   0.449   9.589  11.022
94763SOL     OW86185  10.337  10.872   0.896
94763SOL    HW186186  10.408  10.841   0.953
94763SOL    HW286187  10.305  10.951   0.939
94764SOL     OW86188   1.499  14.317  14.771
94764SOL    HW186189   1.539  14.404  14.775
94764SOL    HW286190   1.413  14.329  14.813
94765SOL     OW86191   7.647  10.309  11.772
94765SOL    HW186192   7.654  10.396  11.732
94765SOL    HW286193   7.553  10.292  11.776
94766SOL     OW86194   8.278   0.448  12.407
94766SOL    HW186195   8.214   0.429  12.476
94766SOL    HW286196   8.236   0.514  12.352
94767SOL     OW86197  11.031   2.462  12.977
94767SOL    HW186198  11.043   2.478  12.884
94767SOL    HW286199  10.948   2.504  12.998
94768SOL     OW86200   1.856   9.954   3.774
94768SOL    HW186201   1.789  10.022   3.777
94768SOL    HW286202   1.939  10.002   3.776
94769SOL     OW86203  14.054   9.167  11.678
94769SOL    HW186204  14.081   9.223  11.605
94769SOL    HW286205  14.113   9.190  11.750
94770SOL     OW86206   7.820   4.381   8.808
94770SOL    HW186207   7.800   4.400   8.899
94770SOL    HW286208   7.743   4.334   8.775
94771SOL     OW86209   3.590   7.057   0.726
94771SOL    HW186210   3.618   6.973   0.763
94771SOL    HW286211   3.502   7.040   0.692
94772SOL     OW86212  11.244   0.120  10.462
94772SOL    HW186213  11.219   0.028  10.468
94772SOL    HW286214  11.252   0.136  10.368
94773SOL     OW86215   2.548   9.995   9.399
94773SOL    HW186216   2.527   9.927   9.334
94773SOL    HW286217   2.547   9.948   9.483
94774SOL     OW86218  10.618   9.294   1.290
94774SOL    HW186219  10.567   9.243   1.227
94774SOL    HW286220  10.565   9.372   1.307
94775SOL     OW86221   1.416  10.932   1.525
94775SOL    HW186222   1.431  10.854   1.471
94775SOL    HW286223   1.356  10.986   1.475
94776SOL     OW86224   7.220  14.804  11.586
94776SOL    HW186225   7.217  14.765  11.673
94776SOL    HW286226   7.304  14.850  11.583
94777SOL     OW86227   0.303  13.929  13.670
94777SOL    HW186228   0.282  13.935  13.763
94777SOL    HW286229   0.217  13.918  13.628
94778SOL     OW86230   7.559  14.018   7.455
94778SOL    HW186231   7.583  13.933   7.494
94778SOL    HW286232   7.473  14.038   7.492
94779SOL     OW86233  11.542   6.308   6.294
94779SOL    HW186234  11.558   6.233   6.351
94779SOL    HW286235  11.453   6.295   6.262
94780SOL     OW86236  12.561  11.634   3.912
94780SOL    HW186237  12.594  11.697   3.977
94780SOL    HW286238  12.530  11.560   3.964
94781SOL     OW86239   7.752   3.216   5.876
94781SOL    HW186240   7.784   3.182   5.793
94781SOL    HW286241   7.756   3.140   5.936
94782SOL     OW86242   7.975   6.011   2.185
94782SOL    HW186243   7.988   5.945   2.253
94782SOL    HW286244   7.949   6.090   2.232
94783SOL     OW86245   9.504   2.307   1.746
94783SOL    HW186246   9.468   2.343   1.664
94783SOL    HW286247   9.435   2.322   1.811
94784SOL     OW86248   8.495   5.043  12.468
94784SOL    HW186249   8.561   5.110  12.448
94784SOL    HW286250   8.479   5.053  12.562
94785SOL     OW86251  14.521   8.490  12.243
94785SOL    HW186252  14.510   8.447  12.159
94785SOL    HW286253  14.512   8.583  12.224
94786SOL     OW86254   5.022  10.905   7.650
94786SOL    HW186255   5.109  10.866   7.650
94786SOL    HW286256   5.029  10.979   7.589
94787SOL     OW86257   0.601  13.945   3.937
94787SOL    HW186258   0.679  14.000   3.924
94787SOL    HW286259   0.556  13.985   4.011
94788SOL     OW86260  14.570   0.562   8.748
94788SOL    HW186261  14.538   0.472   8.747
94788SOL    HW286262  14.665   0.554   8.757
94789SOL     OW86263   2.303  11.123   2.131
94789SOL    HW186264   2.311  11.045   2.076
94789SOL    HW286265   2.263  11.189   2.075
94790SOL     OW86266   8.554   8.123  14.152
94790SOL    HW186267   8.566   8.029  14.144
94790SOL    HW286268   8.522   8.152  14.067
94791SOL     OW86269  10.401   6.426   6.631
94791SOL    HW186270  10.318   6.380   6.644
94791SOL    HW286271  10.468   6.358   6.634
94792SOL     OW86272   8.239  11.870  12.574
94792SOL    HW186273   8.147  11.868  12.601
94792SOL    HW286274   8.267  11.960  12.592
94793SOL     OW86275   6.064  11.202   8.310
94793SOL    HW186276   6.066  11.164   8.398
94793SOL    HW286277   6.128  11.273   8.313
94794SOL     OW86278  11.242   3.813  10.310
94794SOL    HW186279  11.271   3.899  10.338
94794SOL    HW286280  11.245   3.816  10.214
94795SOL     OW86281   3.813   5.744  12.230
94795SOL    HW186282   3.809   5.698  12.147
94795SOL    HW286283   3.722   5.763  12.252
94796SOL     OW86284  11.586   4.311   9.553
94796SOL    HW186285  11.636   4.372   9.607
94796SOL    HW286286  11.551   4.247   9.614
94797SOL     OW86287   9.053  13.469  13.814
94797SOL    HW186288   9.098  13.550  13.793
94797SOL    HW286289   9.046  13.470  13.910
94798SOL     OW86290   8.034   0.459  12.573
94798SOL    HW186291   7.970   0.388  12.579
94798SOL    HW286292   8.034   0.499  12.661
94799SOL     OW86293   2.964  11.418   3.805
94799SOL    HW186294   3.011  11.426   3.722
94799SOL    HW286295   2.880  11.460   3.789
94800SOL     OW86296   1.229   6.820   5.141
94800SOL    HW186297   1.278   6.856   5.067
94800SOL    HW286298   1.285   6.750   5.175
94801SOL     OW86299   8.347   0.843  11.002
94801SOL    HW186300   8.382   0.923  11.043
94801SOL    HW286301   8.416   0.815  10.942
94802SOL     OW86302   2.220   9.716  10.312
94802SOL    HW186303   2.296   9.680  10.358
94802SOL    HW286304   2.257   9.774  10.246
94803SOL     OW86305   4.914  11.167  10.562
94803SOL    HW186306   4.858  11.097  10.595
94803SOL    HW286307   4.957  11.130  10.485
94804SOL     OW86308  11.361   4.910   1.986
94804SOL    HW186309  11.307   4.832   1.991
94804SOL    HW286310  11.332   4.964   2.060
94805SOL     OW86311   9.616   7.929   3.479
94805SOL    HW186312   9.668   7.918   3.559
94805SOL    HW286313   9.530   7.894   3.502
94806SOL     OW86314  13.855   1.882   2.891
94806SOL    HW186315  13.908   1.816   2.847
94806SOL    HW286316  13.840   1.950   2.825
94807SOL     OW86317  13.153  14.415   8.249
94807SOL    HW186318  13.136  14.333   8.295
94807SOL    HW286319  13.191  14.388   8.166
94808SOL     OW86320   9.075   8.843   5.433
94808SOL    HW186321   9.012   8.835   5.505
94808SOL    HW286322   9.105   8.934   5.438
94809SOL     OW86323   2.043  11.275  14.298
94809SOL    HW186324   2.071  11.216  14.229
94809SOL    HW286325   2.103  11.350  14.291
94810SOL     OW86326  13.323   1.182   5.791
94810SOL    HW186327  13.272   1.152   5.866
94810SOL    HW286328  13.388   1.113   5.777
94811SOL     OW86329   8.732   8.002   1.722
94811SOL    HW186330   8.767   7.917   1.697
94811SOL    HW286331   8.698   8.040   1.640
94812SOL     OW86332   4.950   7.298   3.570
94812SOL    HW186333   4.883   7.273   3.506
94812SOL    HW286334   5.013   7.349   3.519
94813SOL     OW86335   6.260   0.467   5.975
94813SOL    HW186336   6.347   0.442   5.944
94813SOL    HW286337   6.248   0.556   5.942
94814SOL     OW86338   0.960   9.873  14.332
94814SOL    HW186339   0.915   9.851  14.413
94814SOL    HW286340   0.893   9.914  14.278
94815SOL     OW86341   5.072  10.001   3.564
94815SOL    HW186342   4.992  10.050   3.544
94815SOL    HW286343   5.076   9.999   3.660
94816SOL     OW86344   7.381  11.270   8.240
94816SOL    HW186345   7.411  11.180   8.229
94816SOL    HW286346   7.434  11.305   8.311
94817SOL     OW86347   0.886   7.564   3.893
94817SOL    HW186348   0.816   7.500   3.910
94817SOL    HW286349   0.866   7.600   3.807
94818SOL     OW86350   8.845   4.455   3.072
94818SOL    HW186351   8.933   4.457   3.033
94818SOL    HW286352   8.806   4.373   3.040
94819SOL     OW86353  10.268   3.967   3.281
94819SOL    HW186354  10.248   4.005   3.366
94819SOL    HW286355  10.183   3.959   3.237
94820SOL     OW86356   6.604   1.077   8.179
94820SOL    HW186357   6.615   0.983   8.194
94820SOL    HW286358   6.520   1.085   8.134
94821SOL     OW86359   1.281  12.981  12.249
94821SOL    HW186360   1.344  13.051  12.267
94821SOL    HW286361   1.255  12.949  12.335
94822SOL     OW86362   0.129   1.680   8.480
94822SOL    HW186363   0.129   1.645   8.569
94822SOL    HW286364   0.151   1.773   8.491
94823SOL     OW86365   9.697  10.778   2.500
94823SOL    HW186366   9.717  10.721   2.574
94823SOL    HW286367   9.635  10.728   2.447
94824SOL     OW86368   4.258   5.820  13.181
94824SOL    HW186369   4.192   5.769  13.228
94824SOL    HW286370   4.248   5.793  13.089
94825SOL     OW86371   8.073   3.300   9.702
94825SOL    HW186372   7.987   3.310   9.743
94825SOL    HW286373   8.128   3.263   9.772
94826SOL     OW86374   9.362   9.836   3.631
94826SOL    HW186375   9.287   9.828   3.691
94826SOL    HW286376   9.334   9.900   3.566
94827SOL     OW86377   5.684   0.128   9.873
94827SOL    HW186378   5.589   0.130   9.885
94827SOL    HW286379   5.718   0.185   9.942
94828SOL     OW86380   0.180   8.310  13.323
94828SOL    HW186381   0.195   8.351  13.238
94828SOL    HW286382   0.111   8.245  13.306
94829SOL     OW86383  12.962   2.665   6.835
94829SOL    HW186384  12.923   2.748   6.809
94829SOL    HW286385  13.054   2.684   6.848
94830SOL     OW86386   8.985  13.126   0.020
94830SOL    HW186387   8.946  13.213   0.028
94830SOL    HW286388   8.910  13.067   0.014
94831SOL     OW86389   5.075   2.159   1.078
94831SOL    HW186390   5.044   2.175   1.167
94831SOL    HW286391   5.057   2.240   1.031
94832SOL     OW86392   6.063   1.859   3.964
94832SOL    HW186393   6.133   1.923   3.960
94832SOL    HW286394   5.987   1.903   3.926
94833SOL     OW86395   4.639  12.461  14.658
94833SOL    HW186396   4.555  12.460  14.612
94833SOL    HW286397   4.636  12.384  14.715
94834SOL     OW86398  11.848   4.780  12.098
94834SOL    HW186399  11.811   4.769  12.010
94834SOL    HW286400  11.803   4.857  12.133
94835SOL     OW86401  11.128   2.217   9.390
94835SOL    HW186402  11.069   2.141   9.395
94835SOL    HW286403  11.214   2.182   9.414
94836SOL     OW86404   9.772  12.220   1.065
94836SOL    HW186405   9.775  12.124   1.072
94836SOL    HW286406   9.733  12.249   1.147
94837SOL     OW86407   8.522  10.575  11.295
94837SOL    HW186408   8.536  10.569  11.390
94837SOL    HW286409   8.427  10.564  11.285
94838SOL     OW86410  13.434   5.124   8.795
94838SOL    HW186411  13.458   5.087   8.710
94838SOL    HW286412  13.437   5.219   8.782
94839SOL     OW86413  13.426   6.190   0.255
94839SOL    HW186414  13.489   6.145   0.312
94839SOL    HW286415  13.472   6.270   0.228
94840SOL     OW86416  10.447   7.645  12.449
94840SOL    HW186417  10.372   7.592  12.476
94840SOL    HW286418  10.483   7.679  12.531
94841SOL     OW86419   9.742   2.992  14.506
94841SOL    HW186420   9.733   2.984  14.411
94841SOL    HW286421   9.741   3.087  14.522
94842SOL     OW86422   3.330   9.024   2.376
94842SOL    HW186423   3.326   9.065   2.463
94842SOL    HW286424   3.335   8.930   2.394
94843SOL     OW86425   8.534   1.480  13.070
94843SOL    HW186426   8.537   1.545  13.140
94843SOL    HW286427   8.441   1.472  13.049
94844SOL     OW86428  13.111  12.288   8.894
94844SOL    HW186429  13.064  12.313   8.974
94844SOL    HW286430  13.084  12.198   8.877
94845SOL     OW86431   4.620   7.828   1.809
94845SOL    HW186432   4.692   7.878   1.771
94845SOL    HW286433   4.548   7.891   1.816
94846SOL     OW86434   2.809   3.328   8.142
94846SOL    HW186435   2.796   3.236   8.119
94846SOL    HW286436   2.736   3.348   8.201
94847SOL     OW86437  13.071   0.311  11.681
94847SOL    HW186438  12.994   0.308  11.624
94847SOL    HW286439  13.102   0.220  11.684
94848SOL     OW86440  10.121   4.276  13.462
94848SOL    HW186441  10.096   4.248  13.550
94848SOL    HW286442  10.167   4.359  13.475
94849SOL     OW86443   4.555   2.924  12.670
94849SOL    HW186444   4.625   2.986  12.646
94849SOL    HW286445   4.560   2.856  12.603
94850SOL     OW86446  11.602   4.044  11.922
94850SOL    HW186447  11.608   4.128  11.877
94850SOL    HW286448  11.691   4.008  11.918
94851SOL     OW86449   7.594  10.885   9.596
94851SOL    HW186450   7.663  10.827   9.563
94851SOL    HW286451   7.512  10.843   9.568
94852SOL     OW86452   7.671  13.540   2.501
94852SOL    HW186453   7.604  13.480   2.535
94852SOL    HW286454   7.656  13.621   2.549
94853SOL     OW86455   9.853  11.897   4.191
94853SOL    HW186456   9.763  11.887   4.159
94853SOL    HW286457   9.857  11.986   4.225
94854SOL     OW86458   2.690   7.376   9.905
94854SOL    HW186459   2.626   7.313   9.939
94854SOL    HW286460   2.771   7.325   9.896
94855SOL     OW86461   1.459   9.691   8.449
94855SOL    HW186462   1.465   9.602   8.482
94855SOL    HW286463   1.549   9.714   8.423
94856SOL     OW86464   1.556   7.094   0.559
94856SOL    HW186465   1.525   7.141   0.637
94856SOL    HW286466   1.636   7.049   0.590
94857SOL     OW86467   6.498  12.043   7.756
94857SOL    HW186468   6.460  12.076   7.837
94857SOL    HW286469   6.426  12.047   7.692
94858SOL     OW86470  14.741  13.569   2.786
94858SOL    HW186471  14.769  13.659   2.772
94858SOL    HW286472  14.667  13.575   2.846
94859SOL     OW86473   5.139   6.605   1.020
94859SOL    HW186474   5.120   6.659   0.943
94859SOL    HW286475   5.213   6.649   1.062
94860SOL     OW86476  14.724   8.795   0.688
94860SOL    HW186477  14.655   8.733   0.714
94860SOL    HW286478  14.702   8.875   0.735
94861SOL     OW86479   5.776  10.558   4.594
94861SOL    HW186480   5.819  10.475   4.572
94861SOL    HW286481   5.787  10.612   4.515
94862SOL     OW86482  14.474   5.231   0.717
94862SOL    HW186483  14.558   5.185   0.711
94862SOL    HW286484  14.480   5.299   0.650
94863SOL     OW86485   9.247   8.941  13.451
94863SOL    HW186486   9.239   8.862  13.397
94863SOL    HW286487   9.327   8.926  13.503
94864SOL     OW86488   8.952   7.726   0.215
94864SOL    HW186489   8.953   7.820   0.236
94864SOL    HW286490   9.018   7.688   0.272
94865SOL     OW86491  14.326   5.926   7.386
94865SOL    HW186492  14.231   5.930   7.381
94865SOL    HW286493  14.356   6.003   7.337
94866SOL     OW86494   4.773  14.410  11.518
94866SOL    HW186495   4.782  14.431  11.425
94866SOL    HW286496   4.808  14.486  11.564
94867SOL     OW86497   2.083   7.714   0.020
94867SOL    HW186498   2.168   7.718  14.847
94867SOL    HW286499   2.074   7.801   0.061
94868SOL     OW86500   6.564   0.924  10.330
94868SOL    HW186501   6.479   0.899  10.295
94868SOL    HW286502   6.544   0.974  10.409
94869SOL     OW86503   7.016   0.940   5.330
94869SOL    HW186504   7.023   0.912   5.239
94869SOL    HW286505   7.068   0.877   5.379
94870SOL     OW86506   1.365  13.715   0.088
94870SOL    HW186507   1.383  13.635   0.137
94870SOL    HW286508   1.280  13.745   0.122
94871SOL     OW86509   1.297   6.913  13.347
94871SOL    HW186510   1.207   6.882  13.336
94871SOL    HW286511   1.306   6.983  13.282
94872SOL     OW86512   6.294  10.174   8.202
94872SOL    HW186513   6.375  10.171   8.149
94872SOL    HW286514   6.323  10.154   8.291
94873SOL     OW86515  14.745   5.980   1.801
94873SOL    HW186516  14.741   5.890   1.833
94873SOL    HW286517  14.653   6.005   1.790
94874SOL     OW86518   5.879   2.011  12.629
94874SOL    HW186519   5.829   2.053  12.559
94874SOL    HW286520   5.812   1.973  12.686
94875SOL     OW86521   6.895  13.785   8.371
94875SOL    HW186522   6.977  13.746   8.403
94875SOL    HW286523   6.917  13.876   8.351
94876SOL     OW86524   0.816  14.857   0.731
94876SOL    HW186525   0.733  14.846   0.684
94876SOL    HW286526   0.876   0.020   0.665
94877SOL     OW86527   7.654  13.769   8.032
94877SOL    HW186528   7.681  13.805   7.947
94877SOL    HW286529   7.559  13.781   8.034
94878SOL     OW86530   9.773   0.071  12.597
94878SOL    HW186531   9.788   0.165  12.583
94878SOL    HW286532   9.763   0.063  12.692
94879SOL     OW86533  14.753   2.384   7.922
94879SOL    HW186534  14.787   2.464   7.961
94879SOL    HW286535  14.708   2.339   7.994
94880SOL     OW86536  11.147   7.683  11.071
94880SOL    HW186537  11.121   7.650  10.985
94880SOL    HW286538  11.127   7.612  11.131
94881SOL     OW86539   0.823   4.412   0.158
94881SOL    HW186540   0.892   4.465   0.197
94881SOL    HW286541   0.747   4.427   0.214
94882SOL     OW86542   1.350  10.973   3.068
94882SOL    HW186543   1.333  10.943   3.158
94882SOL    HW286544   1.445  10.980   3.064
94883SOL     OW86545   1.398   0.418   5.496
94883SOL    HW186546   1.354   0.468   5.427
94883SOL    HW286547   1.375   0.327   5.478
94884SOL     OW86548   0.429  10.798   2.514
94884SOL    HW186549   0.469  10.789   2.427
94884SOL    HW286550   0.342  10.834   2.497
94885SOL     OW86551  10.309  11.364   4.105
94885SOL    HW186552  10.275  11.338   4.019
94885SOL    HW286553  10.362  11.441   4.087
94886SOL     OW86554  11.339   0.543   9.914
94886SOL    HW186555  11.427   0.562   9.945
94886SOL    HW286556  11.282   0.592   9.973
94887SOL     OW86557  12.061   9.800   4.894
94887SOL    HW186558  11.981   9.811   4.946
94887SOL    HW286559  12.034   9.749   4.818
94888SOL     OW86560   2.569  12.670   0.264
94888SOL    HW186561   2.573  12.666   0.359
94888SOL    HW286562   2.617  12.593   0.234
94889SOL     OW86563   5.456  11.451  10.431
94889SOL    HW186564   5.508  11.455  10.512
94889SOL    HW286565   5.518  11.474  10.362
94890SOL     OW86566  13.880   5.983   8.035
94890SOL    HW186567  13.960   5.932   8.044
94890SOL    HW286568  13.810   5.918   8.032
94891SOL     OW86569  10.269   0.360   3.640
94891SOL    HW186570  10.277   0.364   3.545
94891SOL    HW286571  10.252   0.451   3.666
94892SOL     OW86572   4.527   7.677   9.928
94892SOL    HW186573   4.533   7.767   9.898
94892SOL    HW286574   4.584   7.628   9.869
94893SOL     OW86575   1.883   8.807   7.369
94893SOL    HW186576   1.912   8.796   7.460
94893SOL    HW286577   1.834   8.889   7.369
94894SOL     OW86578  13.062  10.009   1.325
94894SOL    HW186579  12.970  10.025   1.345
94894SOL    HW286580  13.062   9.930   1.271
94895SOL     OW86581   4.392   1.831   4.960
94895SOL    HW186582   4.442   1.895   4.909
94895SOL    HW286583   4.365   1.879   5.038
94896SOL     OW86584   6.611   8.996  14.226
94896SOL    HW186585   6.550   9.069  14.237
94896SOL    HW286586   6.692   9.038  14.195
94897SOL     OW86587   0.905   6.118   6.629
94897SOL    HW186588   0.851   6.087   6.701
94897SOL    HW286589   0.984   6.064   6.632
94898SOL     OW86590  12.792  11.436   5.319
94898SOL    HW186591  12.732  11.471   5.385
94898SOL    HW286592  12.800  11.343   5.341
94899SOL     OW86593   9.089   9.642   2.344
94899SOL    HW186594   9.155   9.578   2.318
94899SOL    HW286595   9.039   9.659   2.264
94900SOL     OW86596  12.017   3.964   4.127
94900SOL    HW186597  12.038   3.873   4.146
94900SOL    HW286598  12.037   4.011   4.208
94901SOL     OW86599   9.785   8.130  13.077
94901SOL    HW186600   9.835   8.117  13.158
94901SOL    HW286601   9.796   8.223  13.057
94902SOL     OW86602   3.165   3.303   8.007
94902SOL    HW186603   3.149   3.276   8.097
94902SOL    HW286604   3.249   3.262   7.984
94903SOL     OW86605   0.801   9.047  10.617
94903SOL    HW186606   0.878   9.005  10.655
94903SOL    HW286607   0.745   8.975  10.591
94904SOL     OW86608   6.470   0.115   3.383
94904SOL    HW186609   6.533   0.098   3.453
94904SOL    HW286610   6.473   0.036   3.329
94905SOL     OW86611   3.671  14.772   0.973
94905SOL    HW186612   3.701  14.681   0.973
94905SOL    HW286613   3.624  14.782   1.055
94906SOL     OW86614   0.694   9.592   2.071
94906SOL    HW186615   0.737   9.616   2.153
94906SOL    HW286616   0.663   9.503   2.086
94907SOL     OW86617  11.090   9.811   5.626
94907SOL    HW186618  11.035   9.884   5.655
94907SOL    HW286619  11.115   9.766   5.707
94908SOL     OW86620  12.672   2.670  13.046
94908SOL    HW186621  12.615   2.595  13.066
94908SOL    HW286622  12.749   2.631  13.005
94909SOL     OW86623  13.366   6.228   7.224
94909SOL    HW186624  13.378   6.201   7.315
94909SOL    HW286625  13.295   6.172   7.191
94910SOL     OW86626   0.627  11.948  11.659
94910SOL    HW186627   0.694  11.881  11.649
94910SOL    HW286628   0.665  12.027  11.620
94911SOL     OW86629   4.722  12.363   3.495
94911SOL    HW186630   4.799  12.350   3.551
94911SOL    HW286631   4.709  12.278   3.453
94912SOL     OW86632   0.320   6.135   4.796
94912SOL    HW186633   0.389   6.201   4.794
94912SOL    HW286634   0.315   6.104   4.705
94913SOL     OW86635   4.569   9.614  14.618
94913SOL    HW186636   4.634   9.667  14.664
94913SOL    HW286637   4.492   9.671  14.610
94914SOL     OW86638   8.159   7.368   7.504
94914SOL    HW186639   8.227   7.312   7.467
94914SOL    HW286640   8.113   7.403   7.427
94915SOL     OW86641  10.688   5.388   1.409
94915SOL    HW186642  10.730   5.308   1.379
94915SOL    HW286643  10.753   5.430   1.465
94916SOL     OW86644   9.488  14.639   0.557
94916SOL    HW186645   9.508  14.558   0.510
94916SOL    HW286646   9.521  14.624   0.646
94917SOL     OW86647  13.928   6.442   7.259
94917SOL    HW186648  13.941   6.479   7.346
94917SOL    HW286649  13.890   6.514   7.208
94918SOL     OW86650  12.661   3.475  10.686
94918SOL    HW186651  12.612   3.428  10.618
94918SOL    HW286652  12.712   3.540  10.638
94919SOL     OW86653  11.230   5.586   4.607
94919SOL    HW186654  11.137   5.596   4.628
94919SOL    HW286655  11.261   5.520   4.668
94920SOL     OW86656   0.608   5.620   8.386
94920SOL    HW186657   0.611   5.670   8.304
94920SOL    HW286658   0.629   5.685   8.454
94921SOL     OW86659   2.096  10.003  13.065
94921SOL    HW186660   2.143  10.020  12.984
94921SOL    HW286661   2.058   9.916  13.053
94922SOL     OW86662   8.870   3.150  10.403
94922SOL    HW186663   8.787   3.190  10.429
94922SOL    HW286664   8.932   3.224  10.398
94923SOL     OW86665   0.579   8.421  12.632
94923SOL    HW186666   0.663   8.431  12.588
94923SOL    HW286667   0.571   8.327  12.649
94924SOL     OW86668  11.426   7.836  12.550
94924SOL    HW186669  11.431   7.931  12.555
94924SOL    HW286670  11.404   7.807  12.638
94925SOL     OW86671   9.057   0.603   0.655
94925SOL    HW186672   9.129   0.572   0.600
94925SOL    HW286673   9.011   0.523   0.681
94926SOL     OW86674   8.303  14.780  11.130
94926SOL    HW186675   8.305  14.869  11.095
94926SOL    HW286676   8.233  14.737  11.081
94927SOL     OW86677  14.099  13.290  11.434
94927SOL    HW186678  14.027  13.251  11.383
94927SOL    HW286679  14.175  13.284  11.377
94928SOL     OW86680   1.626   9.036  13.888
94928SOL    HW186681   1.566   9.019  13.960
94928SOL    HW286682   1.713   9.033  13.927
94929SOL     OW86683   2.769  13.416  12.434
94929SOL    HW186684   2.862  13.423  12.412
94929SOL    HW286685   2.749  13.323  12.422
94930SOL     OW86686   9.610  14.086  11.498
94930SOL    HW186687   9.647  14.017  11.443
94930SOL    HW286688   9.685  14.143  11.518
94931SOL     OW86689   8.292  12.811  10.299
94931SOL    HW186690   8.345  12.853  10.231
94931SOL    HW286691   8.321  12.720  10.301
94932SOL     OW86692  10.342   8.389   9.325
94932SOL    HW186693  10.392   8.469   9.336
94932SOL    HW286694  10.267   8.399   9.383
94933SOL     OW86695   7.314   5.350   6.860
94933SOL    HW186696   7.290   5.277   6.802
94933SOL    HW286697   7.318   5.426   6.802
94934SOL     OW86698   3.398  14.818  12.154
94934SOL    HW186699   3.324  14.856  12.202
94934SOL    HW286700   3.462   0.017  12.148
94935SOL     OW86701   1.579   2.698   0.515
94935SOL    HW186702   1.501   2.660   0.475
94935SOL    HW286703   1.642   2.626   0.519
94936SOL     OW86704   9.213   0.133  11.797
94936SOL    HW186705   9.208   0.228  11.807
94936SOL    HW286706   9.305   0.116  11.776
94937SOL     OW86707  10.165   8.260   5.282
94937SOL    HW186708  10.145   8.284   5.192
94937SOL    HW286709  10.082   8.272   5.329
94938SOL     OW86710   4.479   6.513  11.015
94938SOL    HW186711   4.532   6.583  10.975
94938SOL    HW286712   4.535   6.477  11.083
94939SOL     OW86713  14.608   3.409   7.212
94939SOL    HW186714  14.680   3.456   7.170
94939SOL    HW286715  14.647   3.326   7.239
94940SOL     OW86716   2.375   0.373   7.026
94940SOL    HW186717   2.403   0.447   7.081
94940SOL    HW286718   2.413   0.392   6.940
94941SOL     OW86719   5.234  10.395  14.174
94941SOL    HW186720   5.178  10.404  14.251
94941SOL    HW286721   5.307  10.455  14.191
94942SOL     OW86722   9.860   0.619   6.780
94942SOL    HW186723   9.910   0.674   6.720
94942SOL    HW286724   9.788   0.585   6.728
94943SOL     OW86725   3.948  11.049   8.982
94943SOL    HW186726   3.894  10.979   8.946
94943SOL    HW286727   4.021  11.058   8.922
94944SOL     OW86728   1.154  11.182   7.776
94944SOL    HW186729   1.175  11.207   7.686
94944SOL    HW286730   1.207  11.241   7.831
94945SOL     OW86731   2.047   5.205   4.598
94945SOL    HW186732   1.961   5.247   4.599
94945SOL    HW286733   2.027   5.111   4.597
94946SOL     OW86734   3.363   5.280  12.102
94946SOL    HW186735   3.315   5.253  12.024
94946SOL    HW286736   3.301   5.269  12.174
94947SOL     OW86737  12.848   5.936  13.503
94947SOL    HW186738  12.828   5.894  13.587
94947SOL    HW286739  12.785   5.899  13.442
94948SOL     OW86740  14.284   4.014   8.253
94948SOL    HW186741  14.346   3.941   8.249
94948SOL    HW286742  14.200   3.973   8.272
94949SOL     OW86743   8.943  10.688   0.012
94949SOL    HW186744   8.908  10.627  14.819
94949SOL    HW286745   9.037  10.693  14.865
94950SOL     OW86746  14.206   8.134   7.693
94950SOL    HW186747  14.155   8.177   7.624
94950SOL    HW286748  14.238   8.206   7.747
94951SOL     OW86749   2.844  11.388  14.292
94951SOL    HW186750   2.866  11.297  14.274
94951SOL    HW286751   2.882  11.437  14.220
94952SOL     OW86752   8.814  14.751   8.910
94952SOL    HW186753   8.797  14.665   8.947
94952SOL    HW286754   8.855  14.800   8.982
94953SOL     OW86755   6.758  11.506  13.763
94953SOL    HW186756   6.785  11.590  13.724
94953SOL    HW286757   6.838  11.471  13.801
94954SOL     OW86758  10.587  12.660   8.747
94954SOL    HW186759  10.644  12.591   8.780
94954SOL    HW286760  10.505  12.649   8.795
94955SOL     OW86761   3.865   0.693   9.018
94955SOL    HW186762   3.949   0.734   9.039
94955SOL    HW286763   3.845   0.640   9.095
94956SOL     OW86764   4.302  13.262   2.964
94956SOL    HW186765   4.263  13.204   3.030
94956SOL    HW286766   4.385  13.219   2.940
94957SOL     OW86767   0.789   6.093   3.379
94957SOL    HW186768   0.838   6.069   3.457
94957SOL    HW286769   0.803   6.021   3.318
94958SOL     OW86770   4.045  10.205   6.309
94958SOL    HW186771   4.119  10.177   6.363
94958SOL    HW286772   3.981  10.238   6.371
94959SOL     OW86773  13.772   0.065  11.317
94959SOL    HW186774  13.817   0.051  11.234
94959SOL    HW286775  13.696   0.119  11.294
94960SOL     OW86776   5.378   9.538   4.592
94960SOL    HW186777   5.355   9.464   4.536
94960SOL    HW286778   5.295   9.568   4.628
94961SOL     OW86779   3.912   5.469   9.732
94961SOL    HW186780   3.862   5.493   9.654
94961SOL    HW286781   3.964   5.547   9.753
94962SOL     OW86782  10.152  12.064   8.830
94962SOL    HW186783  10.074  12.008   8.831
94962SOL    HW286784  10.134  12.130   8.897
94963SOL     OW86785  12.024  11.376  10.680
94963SOL    HW186786  11.958  11.312  10.709
94963SOL    HW286787  12.082  11.326  10.623
94964SOL     OW86788   0.153   8.326   6.052
94964SOL    HW186789   0.227   8.380   6.079
94964SOL    HW286790   0.081   8.388   6.041
94965SOL     OW86791   7.938  11.247  12.564
94965SOL    HW186792   7.938  11.156  12.536
94965SOL    HW286793   7.846  11.270  12.572
94966SOL     OW86794  13.297  13.605   9.642
94966SOL    HW186795  13.244  13.557   9.580
94966SOL    HW286796  13.377  13.627   9.594
94967SOL     OW86797   6.122   8.397   3.268
94967SOL    HW186798   6.181   8.440   3.206
94967SOL    HW286799   6.153   8.424   3.354
94968SOL     OW86800   5.463  13.848   2.730
94968SOL    HW186801   5.402  13.831   2.659
94968SOL    HW286802   5.492  13.938   2.716
94969SOL     OW86803   7.687  10.707   4.290
94969SOL    HW186804   7.725  10.701   4.378
94969SOL    HW286805   7.692  10.617   4.256
94970SOL     OW86806   9.526  14.642   9.493
94970SOL    HW186807   9.532  14.565   9.550
94970SOL    HW286808   9.562  14.713   9.546
94971SOL     OW86809   1.983   5.365  11.066
94971SOL    HW186810   1.928   5.286  11.061
94971SOL    HW286811   2.038   5.351  11.143
94972SOL     OW86812   0.262   3.956  11.190
94972SOL    HW186813   0.174   3.983  11.167
94972SOL    HW286814   0.289   4.016  11.260
94973SOL     OW86815  13.273   9.700   2.902
94973SOL    HW186816  13.207   9.683   2.970
94973SOL    HW286817  13.228   9.680   2.820
94974SOL     OW86818   6.480   5.334  13.169
94974SOL    HW186819   6.458   5.394  13.240
94974SOL    HW286820   6.525   5.261  13.212
94975SOL     OW86821  13.073   3.392   5.178
94975SOL    HW186822  13.044   3.327   5.242
94975SOL    HW286823  13.057   3.350   5.093
94976SOL     OW86824   1.469  10.913   7.487
94976SOL    HW186825   1.423  10.830   7.494
94976SOL    HW286826   1.451  10.943   7.398
94977SOL     OW86827  14.268   9.324   9.266
94977SOL    HW186828  14.242   9.320   9.358
94977SOL    HW286829  14.363   9.337   9.268
94978SOL     OW86830  14.074   0.671  14.443
94978SOL    HW186831  13.998   0.721  14.415
94978SOL    HW286832  14.038   0.590  14.480
94979SOL     OW86833   0.652   2.633   2.549
94979SOL    HW186834   0.640   2.727   2.566
94979SOL    HW286835   0.564   2.601   2.528
94980SOL     OW86836   6.330   9.568   2.414
94980SOL    HW186837   6.354   9.479   2.387
94980SOL    HW286838   6.399   9.594   2.475
94981SOL     OW86839   0.750   9.961  11.434
94981SOL    HW186840   0.820   9.933  11.492
94981SOL    HW286841   0.669   9.947  11.484
94982SOL     OW86842  13.466  13.717   7.514
94982SOL    HW186843  13.482  13.780   7.444
94982SOL    HW286844  13.386  13.671   7.487
94983SOL     OW86845  10.894  12.412   0.063
94983SOL    HW186846  10.895  12.371   0.149
94983SOL    HW286847  10.912  12.505   0.081
94984SOL     OW86848   8.841   4.245  13.971
94984SOL    HW186849   8.749   4.231  13.947
94984SOL    HW286850   8.857   4.184  14.042
94985SOL     OW86851  14.563  12.686  11.941
94985SOL    HW186852  14.496  12.631  11.980
94985SOL    HW286853  14.568  12.657  11.850
94986SOL     OW86854   8.103   5.585  12.666
94986SOL    HW186855   8.059   5.593  12.581
94986SOL    HW286856   8.039   5.620  12.729
94987SOL     OW86857  10.634   1.985  11.907
94987SOL    HW186858  10.657   2.039  11.983
94987SOL    HW286859  10.552   2.022  11.876
94988SOL     OW86860  14.538   1.502   6.190
94988SOL    HW186861  14.444   1.498   6.170
94988SOL    HW286862  14.551   1.590   6.225
94989SOL     OW86863   7.668  11.747   0.192
94989SOL    HW186864   7.639  11.659   0.216
94989SOL    HW286865   7.757  11.754   0.226
94990SOL     OW86866   9.053   9.202   0.057
94990SOL    HW186867   8.968   9.183   0.017
94990SOL    HW286868   9.109   9.129   0.033
94991SOL     OW86869   4.772  12.032  11.334
94991SOL    HW186870   4.697  12.079  11.371
94991SOL    HW286871   4.734  11.974  11.268
94992SOL     OW86872  12.758  11.982   2.199
94992SOL    HW186873  12.699  11.914   2.168
94992SOL    HW286874  12.789  11.950   2.283
94993SOL     OW86875   7.063   0.576   7.219
94993SOL    HW186876   7.156   0.571   7.198
94993SOL    HW286877   7.037   0.664   7.191
94994SOL     OW86878   9.806   3.248   6.574
94994SOL    HW186879   9.818   3.341   6.594
94994SOL    HW286880   9.893   3.209   6.584
94995SOL     OW86881   8.654   2.591   0.927
94995SOL    HW186882   8.585   2.526   0.940
94995SOL    HW286883   8.628   2.665   0.981
94996SOL     OW86884  12.857   0.599   0.758
94996SOL    HW186885  12.789   0.590   0.824
94996SOL    HW286886  12.867   0.511   0.721
94997SOL     OW86887   0.332   2.874   2.740
94997SOL    HW186888   0.282   2.792   2.731
94997SOL    HW286889   0.276   2.940   2.700
94998SOL     OW86890   1.793  12.220   1.942
94998SOL    HW186891   1.715  12.268   1.913
94998SOL    HW286892   1.813  12.259   2.028
94999SOL     OW86893   8.530  10.497  13.851
94999SOL    HW186894   8.572  10.417  13.885
94999SOL    HW286895   8.500  10.473  13.764
95000SOL     OW86896   8.049   1.499   1.515
95000SOL    HW186897   7.999   1.435   1.465
95000SOL    HW286898   7.986   1.535   1.578
95001SOL     OW86899   8.482  14.484  14.768
95001SOL    HW186900   8.463  14.425  14.840
95001SOL    HW286901   8.409  14.545  14.766
95002SOL     OW86902   8.788   5.899   2.225
95002SOL    HW186903   8.766   5.913   2.317
95002SOL    HW286904   8.711   5.927   2.177
95003SOL     OW86905  11.854   2.645   9.646
95003SOL    HW186906  11.777   2.613   9.600
95003SOL    HW286907  11.928   2.623   9.589
95004SOL     OW86908   5.898  12.752  14.220
95004SOL    HW186909   5.981  12.775  14.179
95004SOL    HW286910   5.843  12.829  14.208
95005SOL     OW86911  13.527   8.861   4.374
95005SOL    HW186912  13.568   8.911   4.305
95005SOL    HW286913  13.434   8.885   4.370
95006SOL     OW86914  13.555   6.532   5.459
95006SOL    HW186915  13.529   6.582   5.536
95006SOL    HW286916  13.642   6.566   5.437
95007SOL     OW86917  14.817   9.133   8.234
95007SOL    HW186918  14.858   9.177   8.160
95007SOL    HW286919  14.725   9.125   8.210
95008SOL     OW86920   7.342   5.001   9.184
95008SOL    HW186921   7.256   5.009   9.224
95008SOL    HW286922   7.396   4.959   9.252
95009SOL     OW86923   5.194  14.841  12.765
95009SOL    HW186924   5.222  14.815  12.678
95009SOL    HW286925   5.262   0.030  12.795
95010SOL     OW86926   4.508  13.352  14.536
95010SOL    HW186927   4.572  13.287  14.506
95010SOL    HW286928   4.479  13.319  14.621
95011SOL     OW86929  14.221  10.849   0.759
95011SOL    HW186930  14.198  10.910   0.828
95011SOL    HW286931  14.290  10.795   0.797
95012SOL     OW86932  14.630   4.249  12.409
95012SOL    HW186933  14.645   4.208  12.494
95012SOL    HW286934  14.614   4.175  12.350
95013SOL     OW86935  12.806   2.325   2.933
95013SOL    HW186936  12.758   2.300   3.011
95013SOL    HW286937  12.830   2.416   2.948
95014SOL     OW86938   9.138  13.922   8.339
95014SOL    HW186939   9.068  13.863   8.365
95014SOL    HW286940   9.094  13.996   8.298
95015SOL     OW86941   5.999   3.896  12.726
95015SOL    HW186942   6.018   3.814  12.771
95015SOL    HW286943   5.942   3.871  12.653
95016SOL     OW86944   6.098   1.856   3.380
95016SOL    HW186945   6.038   1.818   3.316
95016SOL    HW286946   6.183   1.859   3.336
95017SOL     OW86947   1.314  12.487   5.866
95017SOL    HW186948   1.246  12.431   5.903
95017SOL    HW286949   1.275  12.521   5.785
95018SOL     OW86950   5.594  14.230  11.403
95018SOL    HW186951   5.606  14.318  11.366
95018SOL    HW286952   5.583  14.173  11.328
95019SOL     OW86953   6.957   1.729   8.130
95019SOL    HW186954   6.913   1.658   8.176
95019SOL    HW286955   7.026   1.758   8.190
95020SOL     OW86956   2.187  12.241   7.401
95020SOL    HW186957   2.231  12.172   7.450
95020SOL    HW286958   2.251  12.269   7.336
95021SOL     OW86959   4.680   6.572   0.254
95021SOL    HW186960   4.702   6.532   0.170
95021SOL    HW286961   4.591   6.605   0.242
95022SOL     OW86962   8.070  12.641   3.933
95022SOL    HW186963   8.034  12.567   3.982
95022SOL    HW286964   8.065  12.714   3.994
95023SOL     OW86965  13.481  11.565   8.600
95023SOL    HW186966  13.393  11.601   8.585
95023SOL    HW286967  13.534  11.602   8.530
95024SOL     OW86968   8.598   6.631  10.381
95024SOL    HW186969   8.581   6.722  10.360
95024SOL    HW286970   8.512   6.592  10.394
95025SOL     OW86971   4.171   4.025   7.187
95025SOL    HW186972   4.193   3.943   7.143
95025SOL    HW286973   4.188   4.093   7.122
95026SOL     OW86974  10.371  11.715  11.030
95026SOL    HW186975  10.330  11.666  11.100
95026SOL    HW286976  10.397  11.649  10.965
95027SOL     OW86977   1.938   1.173  10.787
95027SOL    HW186978   1.916   1.240  10.722
95027SOL    HW286979   1.909   1.091  10.747
95028SOL     OW86980  12.434   6.108   2.310
95028SOL    HW186981  12.431   6.204   2.306
95028SOL    HW286982  12.477   6.089   2.393
95029SOL     OW86983   3.632   5.039   7.622
95029SOL    HW186984   3.639   4.958   7.672
95029SOL    HW286985   3.691   5.100   7.666
95030SOL     OW86986  11.633   7.003  12.533
95030SOL    HW186987  11.661   7.026  12.622
95030SOL    HW286988  11.581   7.077  12.504
95031SOL     OW86989  13.992  11.359   4.608
95031SOL    HW186990  13.986  11.349   4.703
95031SOL    HW286991  13.980  11.453   4.593
95032SOL     OW86992  14.314  11.422   4.658
95032SOL    HW186993  14.252  11.377   4.716
95032SOL    HW286994  14.281  11.405   4.570
95033SOL     OW86995   8.842   9.990   9.453
95033SOL    HW186996   8.752   9.958   9.445
95033SOL    HW286997   8.895   9.910   9.463
95034SOL     OW86998   0.755  11.211   0.765
95034SOL    HW186999   0.681  11.265   0.738
95034SOL    HW287000   0.726  11.168   0.846
95035SOL     OW87001   8.145  14.798   5.187
95035SOL    HW187002   8.158  14.769   5.096
95035SOL    HW287003   8.094  14.728   5.227
95036SOL     OW87004  13.597   0.248   1.069
95036SOL    HW187005  13.511   0.267   1.106
95036SOL    HW287006  13.659   0.266   1.141
95037SOL     OW87007   0.943  11.380   3.419
95037SOL    HW187008   0.879  11.419   3.359
95037SOL    HW287009   1.001  11.329   3.362
95038SOL     OW87010   7.422  12.680   6.824
95038SOL    HW187011   7.343  12.727   6.851
95038SOL    HW287012   7.494  12.728   6.866
95039SOL     OW87013  13.405   4.677   3.311
95039SOL    HW187014  13.373   4.715   3.229
95039SOL    HW287015  13.402   4.748   3.374
95040SOL     OW87016   5.658  12.500   5.126
95040SOL    HW187017   5.609  12.423   5.097
95040SOL    HW287018   5.684  12.480   5.216
95041SOL     OW87019   7.086   2.725   7.176
95041SOL    HW187020   7.058   2.803   7.224
95041SOL    HW287021   7.172   2.705   7.212
95042SOL     OW87022   4.402   5.143   6.940
95042SOL    HW187023   4.453   5.222   6.956
95042SOL    HW287024   4.384   5.109   7.027
95043SOL     OW87025  13.025   6.879   6.227
95043SOL    HW187026  13.067   6.944   6.284
95043SOL    HW287027  13.096   6.821   6.201
95044SOL     OW87028   0.544   0.117   2.657
95044SOL    HW187029   0.590   0.035   2.673
95044SOL    HW287030   0.471   0.093   2.600
95045SOL     OW87031   0.538   0.769  10.544
95045SOL    HW187032   0.504   0.796  10.458
95045SOL    HW287033   0.633   0.779  10.536
95046SOL     OW87034  12.110   4.887   1.045
95046SOL    HW187035  12.061   4.920   0.969
95046SOL    HW287036  12.074   4.935   1.120
95047SOL     OW87037  13.433  14.422   1.581
95047SOL    HW187038  13.357  14.427   1.639
95047SOL    HW287039  13.505  14.396   1.639
95048SOL     OW87040  11.520  11.786  12.201
95048SOL    HW187041  11.524  11.756  12.292
95048SOL    HW287042  11.609  11.816  12.182
95049SOL     OW87043   2.851   4.327   6.427
95049SOL    HW187044   2.834   4.235   6.406
95049SOL    HW287045   2.931   4.348   6.380
95050SOL     OW87046  11.232   7.447  10.928
95050SOL    HW187047  11.138   7.449  10.915
95050SOL    HW287048  11.247   7.377  10.991
95051SOL     OW87049   3.103   6.018   6.629
95051SOL    HW187050   3.165   5.971   6.573
95051SOL    HW287051   3.119   5.982   6.717
95052SOL     OW87052  12.367   4.370  12.877
95052SOL    HW187053  12.419   4.390  12.799
95052SOL    HW287054  12.361   4.274  12.877
95053SOL     OW87055   0.015   0.865   1.811
95053SOL    HW187056   0.060   0.927   1.867
95053SOL    HW287057   0.020   0.903   1.723
95054SOL     OW87058   6.474   5.313   5.018
95054SOL    HW187059   6.514   5.241   5.066
95054SOL    HW287060   6.380   5.303   5.033
95055SOL     OW87061  13.111  13.427   2.510
95055SOL    HW187062  13.023  13.461   2.525
95055SOL    HW287063  13.097  13.346   2.461
95056SOL     OW87064   2.280  10.042  12.867
95056SOL    HW187065   2.291   9.965  12.811
95056SOL    HW287066   2.361  10.092  12.856
95057SOL     OW87067   0.081   2.477   4.956
95057SOL    HW187068   0.013   2.535   4.922
95057SOL    HW287069   0.126   2.444   4.879
95058SOL     OW87070   7.679  14.468   7.939
95058SOL    HW187071   7.610  14.420   7.985
95058SOL    HW287072   7.726  14.402   7.889
95059SOL     OW87073   1.320   5.852   1.314
95059SOL    HW187074   1.342   5.865   1.407
95059SOL    HW287075   1.404   5.830   1.273
95060SOL     OW87076   2.040  11.133   3.896
95060SOL    HW187077   1.974  11.185   3.941
95060SOL    HW287078   2.011  11.129   3.805
95061SOL     OW87079   9.356   7.526   4.003
95061SOL    HW187080   9.279   7.531   4.060
95061SOL    HW287081   9.418   7.471   4.051
95062SOL     OW87082   3.338  11.502  11.881
95062SOL    HW187083   3.428  11.532  11.868
95062SOL    HW287084   3.338  11.466  11.969
95063SOL     OW87085   5.171  10.688   5.536
95063SOL    HW187086   5.089  10.720   5.575
95063SOL    HW287087   5.194  10.611   5.588
95064SOL     OW87088   8.788   5.900   9.058
95064SOL    HW187089   8.741   5.965   9.006
95064SOL    HW287090   8.846   5.951   9.115
95065SOL     OW87091  12.533  11.044   9.864
95065SOL    HW187092  12.578  10.974   9.818
95065SOL    HW287093  12.488  11.092   9.795
95066SOL     OW87094  12.381  14.500  10.050
95066SOL    HW187095  12.421  14.516   9.964
95066SOL    HW287096  12.291  14.533  10.040
95067SOL     OW87097   5.820   3.365  10.008
95067SOL    HW187098   5.829   3.283   9.959
95067SOL    HW287099   5.900   3.413   9.988
95068SOL     OW87100   9.398  10.796   7.784
95068SOL    HW187101   9.326  10.751   7.828
95068SOL    HW287102   9.461  10.727   7.763
95069SOL     OW87103   1.697  14.023  13.104
95069SOL    HW187104   1.759  14.029  13.176
95069SOL    HW287105   1.637  14.096  13.118
95070SOL     OW87106   8.757   0.696   5.356
95070SOL    HW187107   8.675   0.709   5.403
95070SOL    HW287108   8.766   0.601   5.347
95071SOL     OW87109   4.488  12.384   0.243
95071SOL    HW187110   4.473  12.470   0.204
95071SOL    HW287111   4.497  12.401   0.337
95072SOL     OW87112   3.772  11.380  14.110
95072SOL    HW187113   3.858  11.414  14.087
95072SOL    HW287114   3.790  11.302  14.163
95073SOL     OW87115   4.355  14.115  12.697
95073SOL    HW187116   4.370  14.041  12.756
95073SOL    HW287117   4.364  14.192  12.754
95074SOL     OW87118   7.920   5.704   3.739
95074SOL    HW187119   7.949   5.752   3.662
95074SOL    HW287120   7.825   5.696   3.728
95075SOL     OW87121  11.458   8.955  11.749
95075SOL    HW187122  11.422   9.031  11.794
95075SOL    HW287123  11.537   8.988  11.706
95076SOL     OW87124  10.379   5.375   4.230
95076SOL    HW187125  10.326   5.305   4.193
95076SOL    HW287126  10.464   5.368   4.187
95077SOL     OW87127   3.805  11.564  11.675
95077SOL    HW187128   3.805  11.522  11.761
95077SOL    HW287129   3.887  11.612  11.672
95078SOL     OW87130   8.743  13.969   3.629
95078SOL    HW187131   8.683  14.031   3.587
95078SOL    HW287132   8.747  13.895   3.568
95079SOL     OW87133  12.153  10.263  10.236
95079SOL    HW187134  12.238  10.242  10.198
95079SOL    HW287135  12.090  10.245  10.166
95080SOL     OW87136  13.492   7.213   5.189
95080SOL    HW187137  13.398   7.229   5.192
95080SOL    HW287138  13.529   7.293   5.153
95081SOL     OW87139  13.925   3.971  11.473
95081SOL    HW187140  13.857   3.958  11.407
95081SOL    HW287141  13.900   4.051  11.519
95082SOL     OW87142   6.226  13.244  11.846
95082SOL    HW187143   6.168  13.318  11.835
95082SOL    HW287144   6.236  13.208  11.758
95083SOL     OW87145   1.046  10.973   8.266
95083SOL    HW187146   0.999  10.895   8.296
95083SOL    HW287147   1.093  11.004   8.343
95084SOL     OW87148   9.535  11.511   6.567
95084SOL    HW187149   9.536  11.528   6.472
95084SOL    HW287150   9.574  11.424   6.575
95085SOL     OW87151   1.918  10.365   4.868
95085SOL    HW187152   1.883  10.321   4.790
95085SOL    HW287153   1.882  10.454   4.863
95086SOL     OW87154  13.617   3.611   5.308
95086SOL    HW187155  13.659   3.588   5.225
95086SOL    HW287156  13.616   3.530   5.358
95087SOL     OW87157   0.650   4.324   4.669
95087SOL    HW187158   0.669   4.377   4.592
95087SOL    HW287159   0.735   4.305   4.708
95088SOL     OW87160  12.549   8.222   9.178
95088SOL    HW187161  12.509   8.146   9.138
95088SOL    HW287162  12.611   8.255   9.112
95089SOL     OW87163  13.986   1.013  11.363
95089SOL    HW187164  14.015   1.076  11.430
95089SOL    HW287165  14.044   1.030  11.288
95090SOL     OW87166  10.832   0.766   9.274
95090SOL    HW187167  10.776   0.843   9.290
95090SOL    HW287168  10.904   0.776   9.335
95091SOL     OW87169  11.403   0.216   5.612
95091SOL    HW187170  11.339   0.149   5.634
95091SOL    HW287171  11.376   0.249   5.527
95092SOL     OW87172  14.658   1.747   4.057
95092SOL    HW187173  14.733   1.806   4.067
95092SOL    HW287174  14.674   1.677   4.120
95093SOL     OW87175   8.973   8.415   0.591
95093SOL    HW187176   9.050   8.405   0.534
95093SOL    HW287177   8.939   8.502   0.570
95094SOL     OW87178   2.597  13.935  12.378
95094SOL    HW187179   2.632  13.855  12.417
95094SOL    HW287180   2.643  14.006  12.422
95095SOL     OW87181   8.107   3.249   2.751
95095SOL    HW187182   8.126   3.189   2.679
95095SOL    HW287183   8.167   3.322   2.738
95096SOL     OW87184  14.392  10.627   5.499
95096SOL    HW187185  14.425  10.596   5.583
95096SOL    HW287186  14.449  10.585   5.434
95097SOL     OW87187  13.510   4.263   1.143
95097SOL    HW187188  13.517   4.222   1.057
95097SOL    HW287189  13.504   4.189   1.204
95098SOL     OW87190  13.648   9.071  12.545
95098SOL    HW187191  13.566   9.023  12.536
95098SOL    HW287192  13.624   9.162  12.532
95099SOL     OW87193  13.415   8.889   9.300
95099SOL    HW187194  13.413   8.794   9.313
95099SOL    HW287195  13.471   8.902   9.224
95100SOL     OW87196   9.438  13.891   3.881
95100SOL    HW187197   9.386  13.810   3.883
95100SOL    HW287198   9.398  13.943   3.811
95101SOL     OW87199   3.104  11.516   2.031
95101SOL    HW187200   3.067  11.500   2.118
95101SOL    HW287201   3.030  11.503   1.971
95102SOL     OW87202   6.544   4.857   3.553
95102SOL    HW187203   6.511   4.802   3.482
95102SOL    HW287204   6.536   4.946   3.519
95103SOL     OW87205   1.416   6.549   2.369
95103SOL    HW187206   1.341   6.576   2.422
95103SOL    HW287207   1.456   6.477   2.418
95104SOL     OW87208  12.734   5.790   4.073
95104SOL    HW187209  12.652   5.769   4.029
95104SOL    HW287210  12.754   5.711   4.124
95105SOL     OW87211   6.788  11.672   3.816
95105SOL    HW187212   6.708  11.709   3.778
95105SOL    HW287213   6.756  11.609   3.881
95106SOL     OW87214   5.509  10.875  10.279
95106SOL    HW187215   5.497  10.782  10.259
95106SOL    HW287216   5.556  10.909  10.203
95107SOL     OW87217   6.008   6.579   1.543
95107SOL    HW187218   5.982   6.639   1.613
95107SOL    HW287219   6.090   6.540   1.574
95108SOL     OW87220  10.856  11.499   0.384
95108SOL    HW187221  10.938  11.464   0.419
95108SOL    HW287222  10.881  11.580   0.340
95109SOL     OW87223   4.329   9.939   0.446
95109SOL    HW187224   4.416   9.931   0.484
95109SOL    HW287225   4.270   9.902   0.512
95110SOL     OW87226  13.784  11.436   2.920
95110SOL    HW187227  13.797  11.529   2.900
95110SOL    HW287228  13.837  11.390   2.855
95111SOL     OW87229  14.870  10.965   6.909
95111SOL    HW187230   0.020  10.933   6.821
95111SOL    HW287231   0.068  11.027   6.930
95112SOL     OW87232  13.760   9.590  10.496
95112SOL    HW187233  13.729   9.566  10.409
95112SOL    HW287234  13.812   9.669  10.482
95113SOL     OW87235   2.561  10.217  11.415
95113SOL    HW187236   2.637  10.188  11.365
95113SOL    HW287237   2.567  10.170  11.498
95114SOL     OW87238  13.493   3.834   5.186
95114SOL    HW187239  13.531   3.776   5.252
95114SOL    HW287240  13.399   3.831   5.204
95115SOL     OW87241   5.860   0.031   6.238
95115SOL    HW187242   5.851   0.102   6.175
95115SOL    HW287243   5.842  14.823   6.189
95116SOL     OW87244   3.418  13.477   8.089
95116SOL    HW187245   3.479  13.485   8.162
95116SOL    HW287246   3.472  13.488   8.011
95117SOL     OW87247  10.866   2.579   7.133
95117SOL    HW187248  10.911   2.634   7.069
95117SOL    HW287249  10.779   2.618   7.140
95118SOL     OW87250  13.708  13.524   5.335
95118SOL    HW187251  13.723  13.467   5.410
95118SOL    HW287252  13.717  13.613   5.369
95119SOL     OW87253   0.983  10.403  11.904
95119SOL    HW187254   0.980  10.399  12.000
95119SOL    HW287255   1.063  10.453  11.885
95120SOL     OW87256  12.750   9.948   5.816
95120SOL    HW187257  12.710   9.903   5.891
95120SOL    HW287258  12.786   9.877   5.763
95121SOL     OW87259   6.475  11.812   5.484
95121SOL    HW187260   6.485  11.745   5.552
95121SOL    HW287261   6.557  11.862   5.487
95122SOL     OW87262   1.070   0.733   1.655
95122SOL    HW187263   1.106   0.805   1.601
95122SOL    HW287264   1.091   0.758   1.745
95123SOL     OW87265   6.226   5.946  11.374
95123SOL    HW187266   6.202   5.868  11.324
95123SOL    HW287267   6.145   5.997  11.379
95124SOL     OW87268   7.554   7.882  12.873
95124SOL    HW187269   7.539   7.834  12.955
95124SOL    HW287270   7.527   7.821  12.804
95125SOL     OW87271   6.177   9.659  12.579
95125SOL    HW187272   6.229   9.613  12.645
95125SOL    HW287273   6.087   9.651  12.610
95126SOL     OW87274   8.353   2.986  13.482
95126SOL    HW187275   8.259   2.980  13.462
95126SOL    HW287276   8.357   3.032  13.566
95127SOL     OW87277   2.197  13.014  10.630
95127SOL    HW187278   2.228  12.967  10.552
95127SOL    HW287279   2.112  12.974  10.649
95128SOL     OW87280  10.702   0.959   7.456
95128SOL    HW187281  10.719   0.873   7.496
95128SOL    HW287282  10.614   0.952   7.420
95129SOL     OW87283   5.025   8.228   8.475
95129SOL    HW187284   4.929   8.219   8.475
95129SOL    HW287285   5.050   8.225   8.383
95130SOL     OW87286   4.727   5.136   1.420
95130SOL    HW187287   4.820   5.152   1.436
95130SOL    HW287288   4.724   5.047   1.384
95131SOL     OW87289   8.011  14.379  13.283
95131SOL    HW187290   8.053  14.293  13.271
95131SOL    HW287291   7.993  14.410  13.195
95132SOL     OW87292  13.030   3.071   1.610
95132SOL    HW187293  13.102   3.133   1.620
95132SOL    HW287294  13.046   3.031   1.524
95133SOL     OW87295   2.543   4.557   9.069
95133SOL    HW187296   2.564   4.650   9.065
95133SOL    HW287297   2.529   4.539   9.162
95134SOL     OW87298   0.596   7.243  11.299
95134SOL    HW187299   0.501   7.229  11.309
95134SOL    HW287300   0.606   7.267  11.207
95135SOL     OW87301   4.718   1.550  13.639
95135SOL    HW187302   4.698   1.456  13.636
95135SOL    HW287303   4.764   1.561  13.723
95136SOL     OW87304   5.128  13.737  10.275
95136SOL    HW187305   5.185  13.660  10.278
95136SOL    HW287306   5.130  13.765  10.184
95137SOL     OW87307   1.634   1.716   3.051
95137SOL    HW187308   1.665   1.699   3.140
95137SOL    HW287309   1.691   1.784   3.018
95138SOL     OW87310   8.850   9.770   6.270
95138SOL    HW187311   8.924   9.712   6.252
95138SOL    HW287312   8.821   9.745   6.358
95139SOL     OW87313   0.838  12.452  11.493
95139SOL    HW187314   0.791  12.375  11.523
95139SOL    HW287315   0.824  12.453  11.398
95140SOL     OW87316   4.349   7.265  10.125
95140SOL    HW187317   4.435   7.275  10.084
95140SOL    HW287318   4.316   7.182  10.092
95141SOL     OW87319  14.382   2.629   3.735
95141SOL    HW187320  14.293   2.601   3.758
95141SOL    HW287321  14.369   2.697   3.669
95142SOL     OW87322   1.981   8.505   6.912
95142SOL    HW187323   1.941   8.546   6.988
95142SOL    HW287324   2.067   8.477   6.942
95143SOL     OW87325   3.814   6.713   7.897
95143SOL    HW187326   3.844   6.786   7.953
95143SOL    HW287327   3.883   6.704   7.831
95144SOL     OW87328   7.980  11.472   6.621
95144SOL    HW187329   8.001  11.411   6.692
95144SOL    HW287330   8.026  11.552   6.644
95145SOL     OW87331   3.579  14.476   1.209
95145SOL    HW187332   3.562  14.569   1.198
95145SOL    HW287333   3.630  14.452   1.131
95146SOL     OW87334   3.907   8.417   4.014
95146SOL    HW187335   3.941   8.466   4.089
95146SOL    HW287336   3.974   8.425   3.946
95147SOL     OW87337  10.774  13.730   3.318
95147SOL    HW187338  10.731  13.657   3.275
95147SOL    HW287339  10.828  13.690   3.386
95148SOL     OW87340   0.298   1.180   8.356
95148SOL    HW187341   0.245   1.147   8.284
95148SOL    HW287342   0.235   1.196   8.426
95149SOL     OW87343  10.376  10.905   7.523
95149SOL    HW187344  10.420  10.932   7.604
95149SOL    HW287345  10.285  10.933   7.535
95150SOL     OW87346  11.161   4.347  14.109
95150SOL    HW187347  11.216   4.396  14.048
95150SOL    HW287348  11.196   4.370  14.195
95151SOL     OW87349   9.941   7.902   0.590
95151SOL    HW187350   9.956   7.848   0.512
95151SOL    HW287351   9.891   7.846   0.649
95152SOL     OW87352   1.762   9.956   1.363
95152SOL    HW187353   1.702   9.993   1.299
95152SOL    HW287354   1.849   9.963   1.322
95153SOL     OW87355  10.800   7.199  12.269
95153SOL    HW187356  10.878   7.167  12.224
95153SOL    HW287357  10.829   7.218  12.358
95154SOL     OW87358  11.808   8.705   9.404
95154SOL    HW187359  11.830   8.648   9.331
95154SOL    HW287360  11.791   8.790   9.364
95155SOL     OW87361  11.390   6.456   7.809
95155SOL    HW187362  11.411   6.454   7.716
95155SOL    HW287363  11.296   6.471   7.813
95156SOL     OW87364  12.679   2.029   8.789
95156SOL    HW187365  12.669   2.097   8.723
95156SOL    HW287366  12.730   1.960   8.745
95157SOL     OW87367   1.505   8.522   6.339
95157SOL    HW187368   1.439   8.567   6.391
95157SOL    HW287369   1.463   8.441   6.310
95158SOL     OW87370   7.206   2.347   6.223
95158SOL    HW187371   7.271   2.298   6.173
95158SOL    HW287372   7.123   2.329   6.178
95159SOL     OW87373   8.229   5.815  13.795
95159SOL    HW187374   8.241   5.833  13.888
95159SOL    HW287375   8.219   5.902  13.755
95160SOL     OW87376   7.029  13.407  10.690
95160SOL    HW187377   7.104  13.441  10.640
95160SOL    HW287378   7.058  13.321  10.721
95161SOL     OW87379  10.837   3.112  14.799
95161SOL    HW187380  10.832   3.165   0.006
95161SOL    HW287381  10.824   3.022  14.829
95162SOL     OW87382  14.142  10.458  12.405
95162SOL    HW187383  14.067  10.515  12.423
95162SOL    HW287384  14.217  10.501  12.446
95163SOL     OW87385   1.386   7.174   2.202
95163SOL    HW187386   1.448   7.193   2.132
95163SOL    HW287387   1.417   7.224   2.277
95164SOL     OW87388   4.588  13.581   9.623
95164SOL    HW187389   4.566  13.673   9.612
95164SOL    HW287390   4.642  13.559   9.547
95165SOL     OW87391   6.155  13.500   8.007
95165SOL    HW187392   6.159  13.517   7.913
95165SOL    HW287393   6.245  13.477   8.032
95166SOL     OW87394   0.110   0.309   8.055
95166SOL    HW187395   0.048   0.261   8.109
95166SOL    HW287396   0.088   0.401   8.069
95167SOL     OW87397  13.758   2.829  12.444
95167SOL    HW187398  13.736   2.848  12.352
95167SOL    HW287399  13.852   2.810  12.441
95168SOL     OW87400  13.454   9.141   1.715
95168SOL    HW187401  13.545   9.171   1.710
95168SOL    HW287402  13.407   9.195   1.653
95169SOL     OW87403   7.409  11.340  12.471
95169SOL    HW187404   7.420  11.428  12.436
95169SOL    HW287405   7.497  11.302  12.467
95170SOL     OW87406   5.032  14.859  13.802
95170SOL    HW187407   5.099  14.806  13.847
95170SOL    HW287408   5.074   0.071  13.788
95171SOL     OW87409  11.638  11.933   2.959
95171SOL    HW187410  11.617  11.894   2.874
95171SOL    HW287411  11.733  11.944   2.957
95172SOL     OW87412  10.336  10.480   2.972
95172SOL    HW187413  10.402  10.522   2.916
95172SOL    HW287414  10.267  10.546   2.981
95173SOL     OW87415  13.272   2.001  12.721
95173SOL    HW187416  13.354   1.979  12.678
95173SOL    HW287417  13.262   2.095  12.708
95174SOL     OW87418  10.621   8.200   6.424
95174SOL    HW187419  10.564   8.129   6.454
95174SOL    HW287420  10.604   8.272   6.485
95175SOL     OW87421  12.498   4.714   8.902
95175SOL    HW187422  12.494   4.654   8.828
95175SOL    HW287423  12.560   4.673   8.963
95176SOL     OW87424   1.410   4.866   8.376
95176SOL    HW187425   1.477   4.930   8.399
95176SOL    HW287426   1.375   4.898   8.292
95177SOL     OW87427   0.059   5.624   5.879
95177SOL    HW187428   0.118   5.652   5.809
95177SOL    HW287429  14.852   5.677   5.868
95178SOL     OW87430   2.781   7.569  14.833
95178SOL    HW187431   2.801   7.585  14.740
95178SOL    HW287432   2.786   7.655   0.001
95179SOL     OW87433  11.441   1.510  12.326
95179SOL    HW187434  11.534   1.533  12.328
95179SOL    HW287435  11.411   1.523  12.416
95180SOL     OW87436   1.145   7.399   9.045
95180SOL    HW187437   1.093   7.320   9.063
95180SOL    HW287438   1.116   7.428   8.959
95181SOL     OW87439   9.995  11.929   3.639
95181SOL    HW187440   9.950  11.875   3.704
95181SOL    HW287441   9.924  11.967   3.587
95182SOL     OW87442   3.026  14.256   6.395
95182SOL    HW187443   2.985  14.203   6.327
95182SOL    HW287444   2.957  14.268   6.460
95183SOL     OW87445   8.941   6.347   7.814
95183SOL    HW187446   8.892   6.418   7.855
95183SOL    HW287447   8.940   6.276   7.879
95184SOL     OW87448  13.961   4.167  12.023
95184SOL    HW187449  13.976   4.251  12.067
95184SOL    HW287450  14.024   4.165  11.951
95185SOL     OW87451   5.408   3.075  13.552
95185SOL    HW187452   5.372   3.008  13.494
95185SOL    HW287453   5.336   3.096  13.612
95186SOL     OW87454   2.753  12.127   2.185
95186SOL    HW187455   2.709  12.075   2.118
95186SOL    HW287456   2.769  12.212   2.143
95187SOL     OW87457  11.639   7.697  10.989
95187SOL    HW187458  11.693   7.639  10.935
95187SOL    HW287459  11.560   7.712  10.937
95188SOL     OW87460   9.141   0.670  11.702
95188SOL    HW187461   9.109   0.607  11.638
95188SOL    HW287462   9.103   0.754  11.675
95189SOL     OW87463  10.971   2.595   4.085
95189SOL    HW187464  11.010   2.524   4.033
95189SOL    HW287465  11.038   2.616   4.150
95190SOL     OW87466   2.518   7.093  14.579
95190SOL    HW187467   2.493   7.159  14.644
95190SOL    HW287468   2.489   7.010  14.617
95191SOL     OW87469  13.760   2.247  10.872
95191SOL    HW187470  13.666   2.240  10.854
95191SOL    HW287471  13.784   2.162  10.907
95192SOL     OW87472  14.508   9.539   0.894
95192SOL    HW187473  14.570   9.609   0.914
95192SOL    HW287474  14.563   9.462   0.877
95193SOL     OW87475   0.938   8.103   1.542
95193SOL    HW187476   0.903   8.018   1.516
95193SOL    HW287477   0.900   8.165   1.480
95194SOL     OW87478   3.731   0.403   9.120
95194SOL    HW187479   3.811   0.367   9.160
95194SOL    HW287480   3.660   0.357   9.164
95195SOL     OW87481  10.707   0.218   0.605
95195SOL    HW187482  10.749   0.143   0.564
95195SOL    HW287483  10.620   0.186   0.631
95196SOL     OW87484  10.067   8.001   8.311
95196SOL    HW187485  10.030   7.919   8.343
95196SOL    HW287486  10.014   8.069   8.353
95197SOL     OW87487   0.936   0.866   0.555
95197SOL    HW187488   0.914   0.783   0.596
95197SOL    HW287489   0.947   0.927   0.628
95198SOL     OW87490  10.694   1.977   3.849
95198SOL    HW187491  10.697   1.952   3.757
95198SOL    HW287492  10.754   2.051   3.856
95199SOL     OW87493  12.395  13.911   3.683
95199SOL    HW187494  12.326  13.927   3.618
95199SOL    HW287495  12.352  13.927   3.767
95200SOL     OW87496  10.199  12.574   2.841
95200SOL    HW187497  10.200  12.580   2.745
95200SOL    HW287498  10.130  12.510   2.860
95201SOL     OW87499   4.508   2.405   1.192
95201SOL    HW187500   4.498   2.316   1.161
95201SOL    HW287501   4.528   2.456   1.113
95202SOL     OW87502  11.048  14.266   2.610
95202SOL    HW187503  11.089  14.299   2.690
95202SOL    HW287504  10.976  14.326   2.593
95203SOL     OW87505  12.953   8.117  11.818
95203SOL    HW187506  13.023   8.064  11.858
95203SOL    HW287507  12.899   8.054  11.771
95204SOL     OW87508   0.985   6.920   0.375
95204SOL    HW187509   1.060   6.862   0.382
95204SOL    HW287510   0.912   6.870   0.413
95205SOL     OW87511   1.842  12.254   4.431
95205SOL    HW187512   1.841  12.159   4.444
95205SOL    HW287513   1.754  12.282   4.456
95206SOL     OW87514   7.101   1.470   5.392
95206SOL    HW187515   7.149   1.418   5.456
95206SOL    HW287516   7.099   1.558   5.429
95207SOL     OW87517   2.306  12.202  11.518
95207SOL    HW187518   2.364  12.197  11.442
95207SOL    HW287519   2.219  12.187  11.482
95208SOL     OW87520   0.083   9.416   9.993
95208SOL    HW187521   0.094   9.343  10.053
95208SOL    HW287522   0.158   9.474  10.011
95209SOL     OW87523   7.188  13.018   5.289
95209SOL    HW187524   7.095  13.029   5.270
95209SOL    HW287525   7.190  12.976   5.375
95210SOL     OW87526  10.065  13.683   8.463
95210SOL    HW187527   9.971  13.665   8.467
95210SOL    HW287528  10.074  13.775   8.486
95211SOL     OW87529  12.206  14.616   5.761
95211SOL    HW187530  12.273  14.647   5.700
95211SOL    HW287531  12.147  14.690   5.772
95212SOL     OW87532   6.001  10.148   4.549
95212SOL    HW187533   6.014  10.060   4.514
95212SOL    HW287534   5.955  10.195   4.479
95213SOL     OW87535   0.894   8.275  14.463
95213SOL    HW187536   0.932   8.195  14.498
95213SOL    HW287537   0.812   8.286  14.510
95214SOL     OW87538  12.170  13.738  11.870
95214SOL    HW187539  12.078  13.732  11.843
95214SOL    HW287540  12.215  13.774  11.793
95215SOL     OW87541  11.594   7.622   1.410
95215SOL    HW187542  11.641   7.541   1.430
95215SOL    HW287543  11.519   7.594   1.357
95216SOL     OW87544  12.766   9.166   6.506
95216SOL    HW187545  12.815   9.247   6.494
95216SOL    HW287546  12.714   9.158   6.427
95217SOL     OW87547   7.844   2.115  14.454
95217SOL    HW187548   7.872   2.077  14.538
95217SOL    HW287549   7.901   2.074  14.389
95218SOL     OW87550   1.258   7.788   7.225
95218SOL    HW187551   1.235   7.880   7.213
95218SOL    HW287552   1.336   7.775   7.172
95219SOL     OW87553  14.255   8.825  11.659
95219SOL    HW187554  14.341   8.862  11.639
95219SOL    HW287555  14.216   8.808  11.573
95220SOL     OW87556   8.591   4.819  11.121
95220SOL    HW187557   8.506   4.853  11.150
95220SOL    HW287558   8.655   4.867  11.172
95221SOL     OW87559   1.852  12.403   0.595
95221SOL    HW187560   1.920  12.377   0.657
95221SOL    HW287561   1.823  12.322   0.554
95222SOL     OW87562  13.223   6.754   6.502
95222SOL    HW187563  13.201   6.661   6.507
95222SOL    HW287564  13.204   6.788   6.589
95223SOL     OW87565   8.061   9.274   7.760
95223SOL    HW187566   7.976   9.313   7.739
95223SOL    HW287567   8.111   9.282   7.679
95224SOL     OW87568  10.968  11.729   7.095
95224SOL    HW187569  10.965  11.653   7.152
95224SOL    HW287570  11.052  11.721   7.049
95225SOL     OW87571   4.144   8.152   7.380
95225SOL    HW187572   4.145   8.238   7.337
95225SOL    HW287573   4.219   8.106   7.342
95226SOL     OW87574   9.332   7.756   1.283
95226SOL    HW187575   9.422   7.759   1.250
95226SOL    HW287576   9.336   7.800   1.368
95227SOL     OW87577  11.113   9.030   3.952
95227SOL    HW187578  11.166   9.065   3.881
95227SOL    HW287579  11.100   9.103   4.012
95228SOL     OW87580   4.180   7.260  13.438
95228SOL    HW187581   4.096   7.255  13.392
95228SOL    HW287582   4.173   7.339  13.491
95229SOL     OW87583   3.808   5.351   3.039
95229SOL    HW187584   3.808   5.416   2.968
95229SOL    HW287585   3.760   5.393   3.110
95230SOL     OW87586   7.472   1.532   1.065
95230SOL    HW187587   7.393   1.562   1.019
95230SOL    HW287588   7.543   1.583   1.026
95231SOL     OW87589   4.914   0.779   0.620
95231SOL    HW187590   4.819   0.770   0.624
95231SOL    HW287591   4.931   0.827   0.539
95232SOL     OW87592   5.569  12.705   7.148
95232SOL    HW187593   5.562  12.693   7.053
95232SOL    HW287594   5.663  12.712   7.164
95233SOL     OW87595  11.241  13.344  14.606
95233SOL    HW187596  11.214  13.434  14.623
95233SOL    HW287597  11.331  13.351  14.574
95234SOL     OW87598   5.684   6.791  11.797
95234SOL    HW187599   5.662   6.750  11.713
95234SOL    HW287600   5.779   6.803  11.794
95235SOL     OW87601   5.772   9.127   0.338
95235SOL    HW187602   5.714   9.062   0.377
95235SOL    HW287603   5.739   9.211   0.370
95236SOL     OW87604   2.171   9.727  11.494
95236SOL    HW187605   2.098   9.770  11.450
95236SOL    HW287606   2.245   9.738  11.434
95237SOL     OW87607  10.832   5.642  13.796
95237SOL    HW187608  10.887   5.720  13.788
95237SOL    HW287609  10.886   5.579  13.845
95238SOL     OW87610   3.018  13.081  10.148
95238SOL    HW187611   2.927  13.107  10.162
95238SOL    HW287612   3.059  13.157  10.106
95239SOL     OW87613   6.970   1.691  11.485
95239SOL    HW187614   6.893   1.716  11.536
95239SOL    HW287615   6.999   1.773  11.444
95240SOL     OW87616   8.576  11.199  14.623
95240SOL    HW187617   8.499  11.245  14.654
95240SOL    HW287618   8.542  11.120  14.581
95241SOL     OW87619  11.212   0.151   3.102
95241SOL    HW187620  11.140   0.213   3.114
95241SOL    HW287621  11.231   0.119   3.191
95242SOL     OW87622  12.574   3.121   4.835
95242SOL    HW187623  12.523   3.171   4.770
95242SOL    HW287624  12.623   3.188   4.883
95243SOL     OW87625  12.796  14.512  14.096
95243SOL    HW187626  12.740  14.448  14.139
95243SOL    HW287627  12.774  14.595  14.139
95244SOL     OW87628  13.993  13.922  12.296
95244SOL    HW187629  13.990  13.961  12.383
95244SOL    HW287630  14.085  13.926  12.270
95245SOL     OW87631   1.461   3.296   7.675
95245SOL    HW187632   1.462   3.357   7.602
95245SOL    HW287633   1.398   3.228   7.648
95246SOL     OW87634   1.268  13.120  13.101
95246SOL    HW187635   1.345  13.153  13.055
95246SOL    HW287636   1.275  13.025  13.095
95247SOL     OW87637  12.838   0.964  12.040
95247SOL    HW187638  12.767   0.905  12.066
95247SOL    HW287639  12.821   0.983  11.948
95248SOL     OW87640   8.330   9.121   9.668
95248SOL    HW187641   8.252   9.172   9.647
95248SOL    HW287642   8.351   9.144   9.758
95249SOL     OW87643   9.219  10.030   6.678
95249SOL    HW187644   9.233  10.070   6.764
95249SOL    HW287645   9.305  10.035   6.635
95250SOL     OW87646   6.233  13.924   4.173
95250SOL    HW187647   6.181  13.987   4.223
95250SOL    HW287648   6.204  13.934   4.083
95251SOL     OW87649   6.273   2.772  14.078
95251SOL    HW187650   6.270   2.679  14.101
95251SOL    HW287651   6.195   2.787  14.025
95252SOL     OW87652  14.380   3.138   7.029
95252SOL    HW187653  14.464   3.092   7.026
95252SOL    HW287654  14.400   3.227   7.000
95253SOL     OW87655   9.122   2.032  10.005
95253SOL    HW187656   9.082   2.046   9.919
95253SOL    HW287657   9.097   1.943  10.030
95254SOL     OW87658   5.106  11.686   3.683
95254SOL    HW187659   5.101  11.756   3.618
95254SOL    HW287660   5.199  11.682   3.707
95255SOL     OW87661   1.754   7.028   1.746
95255SOL    HW187662   1.821   6.974   1.703
95255SOL    HW287663   1.799   7.064   1.823
95256SOL     OW87664   8.053   4.978  10.561
95256SOL    HW187665   7.980   4.946  10.614
95256SOL    HW287666   8.045   4.931  10.478
95257SOL     OW87667   8.457   6.324  14.460
95257SOL    HW187668   8.439   6.383  14.532
95257SOL    HW287669   8.541   6.354  14.424
95258SOL     OW87670   1.184  10.261   9.793
95258SOL    HW187671   1.198  10.209   9.714
95258SOL    HW287672   1.245  10.225   9.857
95259SOL     OW87673  10.086   4.103   2.104
95259SOL    HW187674  10.054   4.076   2.190
95259SOL    HW287675  10.163   4.048   2.089
95260SOL     OW87676   5.149   1.342   8.043
95260SOL    HW187677   5.167   1.249   8.034
95260SOL    HW287678   5.179   1.381   7.960
95261SOL     OW87679  14.687  13.130  12.825
95261SOL    HW187680  14.640  13.157  12.746
95261SOL    HW287681  14.620  13.130  12.894
95262SOL     OW87682   9.191   6.456   7.441
95262SOL    HW187683   9.173   6.490   7.529
95262SOL    HW287684   9.263   6.394   7.454
95263SOL     OW87685   8.814   9.236  10.288
95263SOL    HW187686   8.866   9.246  10.208
95263SOL    HW287687   8.801   9.325  10.319
95264SOL     OW87688   8.174   1.662  14.733
95264SOL    HW187689   8.082   1.638  14.746
95264SOL    HW287690   8.189   1.736  14.791
95265SOL     OW87691   3.751   5.760   7.687
95265SOL    HW187692   3.805   5.781   7.610
95265SOL    HW287693   3.784   5.817   7.756
95266SOL     OW87694   5.283   9.049   0.092
95266SOL    HW187695   5.192   9.063   0.066
95266SOL    HW287696   5.283   9.056   0.187
95267SOL     OW87697   1.536   1.617   9.378
95267SOL    HW187698   1.632   1.611   9.371
95267SOL    HW287699   1.505   1.531   9.352
95268SOL     OW87700   1.747   0.271   2.921
95268SOL    HW187701   1.702   0.354   2.935
95268SOL    HW287702   1.699   0.230   2.848
95269SOL     OW87703   3.813   4.385   8.459
95269SOL    HW187704   3.727   4.358   8.427
95269SOL    HW287705   3.814   4.480   8.445
95270SOL     OW87706   5.741  12.216  13.715
95270SOL    HW187707   5.701  12.138  13.752
95270SOL    HW287708   5.799  12.183  13.646
95271SOL     OW87709   6.850  12.194   4.439
95271SOL    HW187710   6.944  12.203   4.456
95271SOL    HW287711   6.824  12.120   4.494
95272SOL     OW87712  14.694   0.856  13.156
95272SOL    HW187713  14.736   0.922  13.101
95272SOL    HW287714  14.642   0.802  13.096
95273SOL     OW87715   1.876  11.024  10.496
95273SOL    HW187716   1.827  10.981  10.425
95273SOL    HW287717   1.877  10.959  10.567
95274SOL     OW87718  12.987   9.482   2.330
95274SOL    HW187719  12.981   9.526   2.245
95274SOL    HW287720  12.967   9.391   2.311
95275SOL     OW87721   6.982  10.487   7.004
95275SOL    HW187722   6.947  10.573   7.030
95275SOL    HW287723   6.973  10.433   7.083
95276SOL     OW87724   9.704   8.007  14.675
95276SOL    HW187725   9.710   7.930  14.619
95276SOL    HW287726   9.649   7.980  14.748
95277SOL     OW87727  13.998  14.034   2.973
95277SOL    HW187728  13.975  13.951   2.931
95277SOL    HW287729  14.044  14.009   3.053
95278SOL     OW87730   8.904   9.221  12.734
95278SOL    HW187731   8.823   9.270  12.751
95278SOL    HW287732   8.974   9.283  12.750
95279SOL     OW87733  13.414   9.623   6.235
95279SOL    HW187734  13.383   9.545   6.189
95279SOL    HW287735  13.347   9.689   6.218
95280SOL     OW87736   1.514  10.441   8.027
95280SOL    HW187737   1.507  10.364   7.971
95280SOL    HW287738   1.444  10.430   8.091
95281SOL     OW87739  11.870  12.697   1.827
95281SOL    HW187740  11.859  12.778   1.876
95281SOL    HW287741  11.892  12.632   1.894
95282SOL     OW87742   3.942   9.518   0.878
95282SOL    HW187743   3.856   9.516   0.921
95282SOL    HW287744   3.933   9.458   0.804
95283SOL     OW87745   6.404   4.533   8.630
95283SOL    HW187746   6.444   4.468   8.688
95283SOL    HW287747   6.430   4.508   8.542
95284SOL     OW87748   6.181  10.197  11.156
95284SOL    HW187749   6.178  10.224  11.247
95284SOL    HW287750   6.101  10.147  11.143
95285SOL     OW87751  12.412   5.881   7.996
95285SOL    HW187752  12.401   5.924   8.081
95285SOL    HW287753  12.474   5.937   7.950
95286SOL     OW87754   6.982   0.116  11.632
95286SOL    HW187755   6.915   0.113  11.564
95286SOL    HW287756   7.046   0.050  11.605
95287SOL     OW87757   3.481   4.871  14.332
95287SOL    HW187758   3.473   4.817  14.410
95287SOL    HW287759   3.449   4.957  14.359
95288SOL     OW87760   9.469  13.901   9.253
95288SOL    HW187761   9.481  13.975   9.312
95288SOL    HW287762   9.496  13.933   9.167
95289SOL     OW87763   5.811  11.726  10.875
95289SOL    HW187764   5.856  11.797  10.922
95289SOL    HW287765   5.831  11.742  10.783
95290SOL     OW87766   4.669  13.364  13.708
95290SOL    HW187767   4.631  13.365  13.620
95290SOL    HW287768   4.596  13.385  13.766
95291SOL     OW87769   8.795   5.167  13.491
95291SOL    HW187770   8.701   5.185  13.497
95291SOL    HW287771   8.826   5.218  13.417
95292SOL     OW87772   8.249   6.229   9.544
95292SOL    HW187773   8.254   6.180   9.462
95292SOL    HW287774   8.229   6.164   9.611
95293SOL     OW87775  12.786   3.515   0.342
95293SOL    HW187776  12.701   3.550   0.370
95293SOL    HW287777  12.772   3.421   0.335
95294SOL     OW87778   4.952   3.645   5.368
95294SOL    HW187779   4.934   3.578   5.434
95294SOL    HW287780   4.866   3.677   5.342
95295SOL     OW87781   9.469   3.318   1.866
95295SOL    HW187782   9.457   3.230   1.829
95295SOL    HW287783   9.409   3.373   1.815
95296SOL     OW87784   0.374   4.967   2.698
95296SOL    HW187785   0.318   5.016   2.758
95296SOL    HW287786   0.462   4.999   2.716
95297SOL     OW87787  12.106  14.454   9.542
95297SOL    HW187788  12.017  14.443   9.509
95297SOL    HW287789  12.101  14.528   9.602
95298SOL     OW87790   2.739   3.010   9.218
95298SOL    HW187791   2.652   2.977   9.196
95298SOL    HW287792   2.746   2.998   9.313
95299SOL     OW87793   5.900   8.451   1.096
95299SOL    HW187794   5.955   8.490   1.163
95299SOL    HW287795   5.961   8.402   1.040
95300SOL     OW87796   6.553  11.017  13.376
95300SOL    HW187797   6.483  11.045  13.436
95300SOL    HW287798   6.611  11.093  13.372
95301SOL     OW87799   9.719   5.732  13.939
95301SOL    HW187800   9.653   5.713  13.872
95301SOL    HW287801   9.725   5.827  13.941
95302SOL     OW87802   9.078   4.528  12.639
95302SOL    HW187803   9.109   4.572  12.718
95302SOL    HW287804   9.155   4.529  12.581
95303SOL     OW87805   3.165  14.228  10.217
95303SOL    HW187806   3.254  14.221  10.182
95303SOL    HW287807   3.111  14.182  10.153
95304SOL     OW87808   9.490   7.041   2.744
95304SOL    HW187809   9.531   7.029   2.658
95304SOL    HW287810   9.471   7.135   2.748
95305SOL     OW87811   2.509   4.209   2.526
95305SOL    HW187812   2.562   4.277   2.485
95305SOL    HW287813   2.435   4.256   2.564
95306SOL     OW87814  13.659  14.743  13.913
95306SOL    HW187815  13.741  14.767  13.869
95306SOL    HW287816  13.594  14.741  13.843
95307SOL     OW87817  13.070   0.528   6.988
95307SOL    HW187818  13.107   0.560   6.905
95307SOL    HW287819  12.976   0.532   6.975
95308SOL     OW87820  14.743   9.485   9.835
95308SOL    HW187821  14.819   9.459   9.888
95308SOL    HW287822  14.679   9.415   9.848
95309SOL     OW87823   4.566   5.787   1.003
95309SOL    HW187824   4.558   5.709   1.057
95309SOL    HW287825   4.658   5.813   1.013
95310SOL     OW87826  14.334   1.804  12.382
95310SOL    HW187827  14.390   1.824  12.307
95310SOL    HW287828  14.249   1.782  12.343
95311SOL     OW87829  12.587   6.791  12.184
95311SOL    HW187830  12.501   6.790  12.225
95311SOL    HW287831  12.649   6.792  12.257
95312SOL     OW87832   8.085   8.566  13.834
95312SOL    HW187833   8.143   8.599  13.766
95312SOL    HW287834   8.139   8.561  13.912
95313SOL     OW87835  14.026   2.210  12.128
95313SOL    HW187836  14.015   2.297  12.166
95313SOL    HW287837  14.017   2.150  12.202
95314SOL     OW87838  13.726   7.677   8.666
95314SOL    HW187839  13.751   7.636   8.749
95314SOL    HW287840  13.737   7.771   8.681
95315SOL     OW87841   9.941  10.617   9.306
95315SOL    HW187842   9.986  10.534   9.296
95315SOL    HW287843   9.928  10.627   9.400
95316SOL     OW87844   2.555   5.878   9.729
95316SOL    HW187845   2.514   5.807   9.778
95316SOL    HW287846   2.581   5.942   9.795
95317SOL     OW87847   9.610  11.510   3.534
95317SOL    HW187848   9.644  11.547   3.615
95317SOL    HW287849   9.635  11.573   3.466
95318SOL     OW87850   2.328   5.117   3.745
95318SOL    HW187851   2.374   5.123   3.661
95318SOL    HW287852   2.333   5.205   3.782
95319SOL     OW87853   1.207   2.618   5.185
95319SOL    HW187854   1.145   2.574   5.127
95319SOL    HW287855   1.262   2.547   5.220
95320SOL     OW87856  13.811   0.641  11.655
95320SOL    HW187857  13.735   0.596  11.621
95320SOL    HW287858  13.868   0.654  11.579
95321SOL     OW87859  10.604  10.969  10.260
95321SOL    HW187860  10.578  10.877  10.258
95321SOL    HW287861  10.534  11.015  10.214
95322SOL     OW87862   3.501   1.376  10.487
95322SOL    HW187863   3.497   1.339  10.399
95322SOL    HW287864   3.415   1.415  10.501
95323SOL     OW87865   5.540   5.519   1.978
95323SOL    HW187866   5.618   5.485   1.934
95323SOL    HW287867   5.474   5.526   1.908
95324SOL     OW87868   7.012  14.612  10.766
95324SOL    HW187869   7.000  14.705  10.786
95324SOL    HW287870   7.107  14.602  10.756
95325SOL     OW87871  14.409  12.513   7.967
95325SOL    HW187872  14.366  12.429   7.981
95325SOL    HW287873  14.453  12.504   7.883
95326SOL     OW87874  14.421   0.797  10.648
95326SOL    HW187875  14.468   0.871  10.686
95326SOL    HW287876  14.440   0.724  10.708
95327SOL     OW87877  11.015  11.310   3.582
95327SOL    HW187878  10.960  11.241   3.617
95327SOL    HW287879  11.041  11.278   3.495
95328SOL     OW87880   6.471   5.100  13.283
95328SOL    HW187881   6.386   5.090  13.240
95328SOL    HW287882   6.450   5.119  13.374
95329SOL     OW87883   4.508   7.691  12.199
95329SOL    HW187884   4.451   7.614  12.201
95329SOL    HW287885   4.482   7.737  12.118
95330SOL     OW87886  10.372  12.124   1.543
95330SOL    HW187887  10.411  12.129   1.456
95330SOL    HW287888  10.357  12.215   1.568
95331SOL     OW87889   1.723   7.685   2.464
95331SOL    HW187890   1.775   7.765   2.469
95331SOL    HW287891   1.784   7.614   2.483
95332SOL     OW87892   8.371   3.119   0.591
95332SOL    HW187893   8.447   3.103   0.535
95332SOL    HW287894   8.321   3.038   0.588
95333SOL     OW87895   5.748   9.309   5.622
95333SOL    HW187896   5.810   9.247   5.583
95333SOL    HW287897   5.778   9.320   5.712
95334SOL     OW87898  12.871   6.478  13.167
95334SOL    HW187899  12.789   6.442  13.201
95334SOL    HW287900  12.862   6.572  13.176
95335SOL     OW87901   6.815   6.807  11.912
95335SOL    HW187902   6.813   6.772  12.001
95335SOL    HW287903   6.738   6.864  11.908
95336SOL     OW87904   1.741   6.501   8.427
95336SOL    HW187905   1.731   6.439   8.354
95336SOL    HW287906   1.830   6.535   8.417
95337SOL     OW87907   9.749   1.536   4.652
95337SOL    HW187908   9.704   1.518   4.569
95337SOL    HW287909   9.696   1.602   4.695
95338SOL     OW87910  13.202   6.273   7.947
95338SOL    HW187911  13.187   6.237   8.034
95338SOL    HW287912  13.118   6.265   7.902
95339SOL     OW87913   4.411  14.075   0.363
95339SOL    HW187914   4.366  14.083   0.280
95339SOL    HW287915   4.348  14.032   0.421
95340SOL     OW87916  13.994   4.787   9.205
95340SOL    HW187917  14.038   4.790   9.290
95340SOL    HW287918  13.944   4.706   9.207
95341SOL     OW87919  13.849  13.832   7.821
95341SOL    HW187920  13.800  13.770   7.766
95341SOL    HW287921  13.939  13.826   7.790
95342SOL     OW87922   6.796   4.014   0.229
95342SOL    HW187923   6.763   4.092   0.186
95342SOL    HW287924   6.868   3.984   0.173
95343SOL     OW87925   8.896   7.578   0.006
95343SOL    HW187926   8.821   7.622  14.837
95343SOL    HW287927   8.909   7.627   0.087
95344SOL     OW87928  10.432   2.267  10.961
95344SOL    HW187929  10.492   2.337  10.988
95344SOL    HW287930  10.361   2.312  10.915
95345SOL     OW87931  13.513  13.739  14.465
95345SOL    HW187932  13.485  13.750  14.374
95345SOL    HW287933  13.606  13.720  14.460
95346SOL     OW87934   9.824  14.228  14.386
95346SOL    HW187935   9.797  14.137  14.383
95346SOL    HW287936   9.750  14.274  14.426
95347SOL     OW87937   0.048   9.541   4.371
95347SOL    HW187938   0.053   9.612   4.308
95347SOL    HW287939   0.139   9.519   4.390
95348SOL     OW87940   2.310   7.294   2.777
95348SOL    HW187941   2.345   7.362   2.835
95348SOL    HW287942   2.277   7.227   2.837
95349SOL     OW87943   0.570   4.866   2.164
95349SOL    HW187944   0.625   4.891   2.239
95349SOL    HW287945   0.486   4.844   2.202
95350SOL     OW87946   1.570   1.726   2.783
95350SOL    HW187947   1.479   1.714   2.757
95350SOL    HW287948   1.569   1.718   2.878
95351SOL     OW87949   4.033   5.429   8.269
95351SOL    HW187950   4.031   5.337   8.243
95351SOL    HW287951   3.944   5.447   8.300
95352SOL     OW87952   3.661  14.199   8.788
95352SOL    HW187953   3.676  14.293   8.799
95352SOL    HW287954   3.659  14.186   8.694
95353SOL     OW87955   6.631   4.620   0.140
95353SOL    HW187956   6.607   4.627   0.047
95353SOL    HW287957   6.698   4.686   0.152
95354SOL     OW87958   8.876  11.910  10.987
95354SOL    HW187959   8.892  11.827  11.031
95354SOL    HW287960   8.963  11.941  10.961
95355SOL     OW87961   3.564   8.634   3.653
95355SOL    HW187962   3.585   8.541   3.659
95355SOL    HW287963   3.601   8.673   3.732
95356SOL     OW87964   8.440   0.603  12.956
95356SOL    HW187965   8.484   0.559  13.029
95356SOL    HW287966   8.393   0.676  12.996
95357SOL     OW87967   1.741   5.135  11.559
95357SOL    HW187968   1.814   5.154  11.618
95357SOL    HW287969   1.784   5.112  11.476
95358SOL     OW87970   3.834   4.668   6.164
95358SOL    HW187971   3.786   4.675   6.246
95358SOL    HW287972   3.920   4.635   6.188
95359SOL     OW87973   5.090   2.903   2.201
95359SOL    HW187974   5.127   2.982   2.240
95359SOL    HW287975   5.164   2.861   2.156
95360SOL     OW87976   5.407   9.067  11.307
95360SOL    HW187977   5.366   8.992  11.349
95360SOL    HW287978   5.471   9.028  11.246
95361SOL     OW87979  11.804  11.264  10.264
95361SOL    HW187980  11.787  11.312  10.346
95361SOL    HW287981  11.757  11.181  10.275
95362SOL     OW87982  14.141   1.812  14.136
95362SOL    HW187983  14.057   1.771  14.155
95362SOL    HW287984  14.121   1.878  14.069
95363SOL     OW87985   8.439   4.677   4.587
95363SOL    HW187986   8.459   4.753   4.532
95363SOL    HW287987   8.349   4.691   4.618
95364SOL     OW87988  12.149   7.348   6.792
95364SOL    HW187989  12.168   7.301   6.711
95364SOL    HW287990  12.082   7.413   6.767
95365SOL     OW87991  13.587   0.793  11.004
95365SOL    HW187992  13.672   0.769  11.041
95365SOL    HW287993  13.609   0.845  10.926
95366SOL     OW87994  11.699   9.419   5.431
95366SOL    HW187995  11.793   9.427   5.418
95366SOL    HW287996  11.683   9.325   5.438
95367SOL     OW87997   1.045  10.292  13.836
95367SOL    HW187998   1.135  10.279  13.865
95367SOL    HW287999   1.051  10.291  13.740
95368SOL     OW88000   9.567   3.746  12.990
95368SOL    HW188001   9.589   3.755  12.898
95368SOL    HW288002   9.532   3.657  12.998
95369SOL     OW88003  13.085  11.195   0.376
95369SOL    HW188004  13.142  11.118   0.376
95369SOL    HW288005  13.070  11.214   0.468
95370SOL     OW88006   8.032   6.504  10.647
95370SOL    HW188007   8.099   6.534  10.586
95370SOL    HW288008   7.953   6.552  10.622
95371SOL     OW88009   9.520   2.388   3.077
95371SOL    HW188010   9.492   2.448   3.008
95371SOL    HW288011   9.449   2.391   3.141
95372SOL     OW88012  10.510   5.252   2.092
95372SOL    HW188013  10.563   5.317   2.046
95372SOL    HW288014  10.559   5.170   2.081
95373SOL     OW88015   7.644   0.641  11.308
95373SOL    HW188016   7.642   0.547  11.289
95373SOL    HW288017   7.621   0.647  11.401
95374SOL     OW88018  11.897   7.663  10.057
95374SOL    HW188019  11.871   7.734  10.115
95374SOL    HW288020  11.850   7.586  10.090
95375SOL     OW88021   3.963   2.114  11.002
95375SOL    HW188022   3.925   2.189  11.047
95375SOL    HW288023   3.996   2.058  11.073
95376SOL     OW88024   0.823   0.421   7.358
95376SOL    HW188025   0.899   0.393   7.409
95376SOL    HW288026   0.775   0.341   7.341
95377SOL     OW88027   6.546  10.616   9.377
95377SOL    HW188028   6.509  10.531   9.402
95377SOL    HW288029   6.531  10.672   9.453
95378SOL     OW88030  14.818   8.877   4.136
95378SOL    HW188031   0.010   8.946   4.150
95378SOL    HW288032  14.744   8.921   4.094
95379SOL     OW88033   3.507   7.117  14.039
95379SOL    HW188034   3.487   7.171  13.963
95379SOL    HW288035   3.517   7.178  14.111
95380SOL     OW88036   0.301   5.723   5.010
95380SOL    HW188037   0.341   5.802   5.047
95380SOL    HW288038   0.211   5.724   5.043
95381SOL     OW88039  14.601   5.669  14.342
95381SOL    HW188040  14.683   5.707  14.374
95381SOL    HW288041  14.624   5.577  14.324
95382SOL     OW88042   8.252  11.392   2.246
95382SOL    HW188043   8.307  11.325   2.205
95382SOL    HW288044   8.169  11.347   2.264
95383SOL     OW88045   8.245   1.454  12.300
95383SOL    HW188046   8.296   1.385  12.258
95383SOL    HW288047   8.159   1.449  12.258
95384SOL     OW88048  12.699  14.767   3.569
95384SOL    HW188049  12.706  14.841   3.509
95384SOL    HW288050  12.780  14.717   3.556
95385SOL     OW88051   4.441   8.277   7.434
95385SOL    HW188052   4.534   8.262   7.451
95385SOL    HW288053   4.410   8.194   7.398
95386SOL     OW88054   1.057   5.769  12.814
95386SOL    HW188055   1.124   5.802  12.755
95386SOL    HW288056   1.096   5.774  12.901
95387SOL     OW88057   7.739  10.340  13.978
95387SOL    HW188058   7.662  10.315  14.029
95387SOL    HW288059   7.795  10.386  14.041
95388SOL     OW88060   2.151  11.707   3.499
95388SOL    HW188061   2.216  11.645   3.534
95388SOL    HW288062   2.203  11.776   3.459
95389SOL     OW88063   5.852   5.885   9.856
95389SOL    HW188064   5.917   5.919   9.795
95389SOL    HW288065   5.818   5.962   9.900
95390SOL     OW88066  10.073   7.406   6.841
95390SOL    HW188067  10.014   7.481   6.841
95390SOL    HW288068  10.147   7.433   6.896
95391SOL     OW88069   8.252   7.103   3.253
95391SOL    HW188070   8.330   7.049   3.259
95391SOL    HW288071   8.283   7.185   3.214
95392SOL     OW88072   3.804  14.716   7.196
95392SOL    HW188073   3.859  14.676   7.129
95392SOL    HW288074   3.852  14.795   7.222
95393SOL     OW88075   9.626   8.279   4.888
95393SOL    HW188076   9.547   8.247   4.845
95393SOL    HW288077   9.681   8.310   4.816
95394SOL     OW88078   1.809   0.950   3.483
95394SOL    HW188079   1.819   0.980   3.574
95394SOL    HW288080   1.720   0.975   3.460
95395SOL     OW88081   7.506   8.937   8.400
95395SOL    HW188082   7.555   9.017   8.416
95395SOL    HW288083   7.423   8.967   8.363
95396SOL     OW88084   1.593  13.329  10.710
95396SOL    HW188085   1.681  13.342  10.743
95396SOL    HW288086   1.540  13.311  10.788
95397SOL     OW88087  13.704  10.021  12.913
95397SOL    HW188088  13.681   9.949  12.854
95397SOL    HW288089  13.800  10.023  12.912
95398SOL     OW88090   1.382   7.720   5.853
95398SOL    HW188091   1.297   7.755   5.827
95398SOL    HW288092   1.436   7.729   5.774
95399SOL     OW88093  13.685  11.883   2.195
95399SOL    HW188094  13.673  11.929   2.112
95399SOL    HW288095  13.599  11.883   2.237
95400SOL     OW88096   2.629  12.748   7.572
95400SOL    HW188097   2.644  12.748   7.478
95400SOL    HW288098   2.568  12.820   7.587
95401SOL     OW88099  14.566   9.565  14.416
95401SOL    HW188100  14.603   9.588  14.331
95401SOL    HW288101  14.598   9.476  14.433
95402SOL     OW88102   2.457  13.098  13.029
95402SOL    HW188103   2.533  13.144  13.065
95402SOL    HW288104   2.415  13.059  13.104
95403SOL     OW88105   1.382   7.620   1.703
95403SOL    HW188106   1.473   7.615   1.734
95403SOL    HW288107   1.329   7.619   1.783
95404SOL     OW88108  12.104   5.330  14.643
95404SOL    HW188109  12.132   5.257  14.588
95404SOL    HW288110  12.185   5.376  14.666
95405SOL     OW88111   9.848   2.545  11.747
95405SOL    HW188112   9.922   2.490  11.773
95405SOL    HW288113   9.875   2.634  11.772
95406SOL     OW88114   6.871  14.030   5.629
95406SOL    HW188115   6.854  14.080   5.549
95406SOL    HW288116   6.926  14.087   5.682
95407SOL     OW88117  10.317   3.007   2.020
95407SOL    HW188118  10.338   3.011   2.113
95407SOL    HW288119  10.371   2.935   1.987
95408SOL     OW88120   8.060  14.710   7.476
95408SOL    HW188121   8.092  14.794   7.443
95408SOL    HW288122   8.113  14.644   7.432
95409SOL     OW88123   9.156  10.432  12.763
95409SOL    HW188124   9.123  10.489  12.694
95409SOL    HW288125   9.251  10.432  12.752
95410SOL     OW88126   8.720  12.223  11.567
95410SOL    HW188127   8.772  12.194  11.492
95410SOL    HW288128   8.783  12.226  11.639
95411SOL     OW88129   1.525   0.062   0.910
95411SOL    HW188130   1.608   0.098   0.879
95411SOL    HW288131   1.531   0.064   1.005
95412SOL     OW88132  14.111   3.050   9.893
95412SOL    HW188133  14.054   2.979   9.862
95412SOL    HW288134  14.169   3.008   9.956
95413SOL     OW88135   2.656  10.055   2.955
95413SOL    HW188136   2.655   9.964   2.987
95413SOL    HW288137   2.688  10.106   3.030
95414SOL     OW88138  12.823   8.287   5.209
95414SOL    HW188139  12.833   8.192   5.208
95414SOL    HW288140  12.730   8.302   5.188
95415SOL     OW88141  10.295   3.345   1.609
95415SOL    HW188142  10.314   3.296   1.528
95415SOL    HW288143  10.212   3.309   1.640
95416SOL     OW88144   7.135  10.335  10.794
95416SOL    HW188145   7.082  10.313  10.871
95416SOL    HW288146   7.196  10.401  10.826
95417SOL     OW88147   7.261  10.298   9.983
95417SOL    HW188148   7.310  10.227  10.024
95417SOL    HW288149   7.322  10.372   9.983
95418SOL     OW88150   0.446   8.436   2.052
95418SOL    HW188151   0.461   8.350   2.012
95418SOL    HW288152   0.511   8.443   2.121
95419SOL     OW88153   2.398   1.142   0.585
95419SOL    HW188154   2.330   1.168   0.523
95419SOL    HW288155   2.404   1.215   0.646
95420SOL     OW88156   4.989   3.034  13.478
95420SOL    HW188157   5.066   3.018  13.424
95420SOL    HW288158   4.921   3.060  13.416
95421SOL     OW88159  10.500   5.217  10.789
95421SOL    HW188160  10.574   5.182  10.739
95421SOL    HW288161  10.474   5.295  10.740
95422SOL     OW88162   7.136   5.631  12.628
95422SOL    HW188163   7.228   5.617  12.650
95422SOL    HW288164   7.116   5.718  12.665
95423SOL     OW88165  13.615  12.299   2.573
95423SOL    HW188166  13.684  12.272   2.513
95423SOL    HW288167  13.659  12.361   2.632
95424SOL     OW88168   1.424   2.028  12.494
95424SOL    HW188169   1.384   2.046  12.579
95424SOL    HW288170   1.418   2.110  12.446
95425SOL     OW88171  14.073  14.851  10.332
95425SOL    HW188172  14.059  14.776  10.275
95425SOL    HW288173  14.161  14.838  10.368
95426SOL     OW88174  13.286   0.840   0.584
95426SOL    HW188175  13.239   0.762   0.614
95426SOL    HW288176  13.327   0.875   0.663
95427SOL     OW88177   2.444   6.763   4.734
95427SOL    HW188178   2.460   6.848   4.774
95427SOL    HW288179   2.531   6.724   4.724
95428SOL     OW88180  12.294   4.665   6.098
95428SOL    HW188181  12.204   4.693   6.083
95428SOL    HW288182  12.303   4.583   6.051
95429SOL     OW88183   3.115   4.014   3.953
95429SOL    HW188184   3.146   4.104   3.947
95429SOL    HW288185   3.020   4.021   3.954
95430SOL     OW88186  11.765   3.989  12.428
95430SOL    HW188187  11.854   3.954  12.428
95430SOL    HW288188  11.776   4.084  12.430
95431SOL     OW88189   6.038  14.777  14.021
95431SOL    HW188190   5.995  14.697  14.051
95431SOL    HW288191   6.070  14.819  14.102
95432SOL     OW88192   9.490   1.407   0.657
95432SOL    HW188193   9.427   1.478   0.655
95432SOL    HW288194   9.466   1.356   0.734
95433SOL     OW88195   0.814   8.158   7.462
95433SOL    HW188196   0.780   8.069   7.458
95433SOL    HW288197   0.889   8.158   7.403
95434SOL     OW88198  11.654  14.397   6.826
95434SOL    HW188199  11.730  14.443   6.860
95434SOL    HW288200  11.655  14.313   6.871
95435SOL     OW88201   4.749   4.435   7.170
95435SOL    HW188202   4.813   4.370   7.141
95435SOL    HW288203   4.679   4.383   7.209
95436SOL     OW88204   6.317   9.244   6.027
95436SOL    HW188205   6.255   9.271   6.095
95436SOL    HW288206   6.324   9.149   6.038
95437SOL     OW88207  13.075   4.729  11.387
95437SOL    HW188208  13.096   4.649  11.436
95437SOL    HW288209  13.021   4.780  11.447
95438SOL     OW88210   0.978   4.046   0.009
95438SOL    HW188211   1.054   3.989  14.870
95438SOL    HW288212   0.959   4.079  14.794
95439SOL     OW88213   1.319   0.863   2.956
95439SOL    HW188214   1.393   0.890   2.902
95439SOL    HW288215   1.286   0.784   2.913
95440SOL     OW88216   2.629   9.177   7.477
95440SOL    HW188217   2.639   9.258   7.527
95440SOL    HW288218   2.555   9.133   7.519
95441SOL     OW88219  10.063  13.083   3.221
95441SOL    HW188220  10.136  13.078   3.282
95441SOL    HW288221  10.003  13.014   3.250
95442SOL     OW88222   3.429   3.099   4.222
95442SOL    HW188223   3.471   3.039   4.161
95442SOL    HW288224   3.447   3.186   4.186
95443SOL     OW88225   5.046   0.285  10.422
95443SOL    HW188226   5.031   0.201  10.466
95443SOL    HW288227   5.085   0.261  10.338
95444SOL     OW88228   2.372   2.213  11.262
95444SOL    HW188229   2.396   2.160  11.339
95444SOL    HW288230   2.305   2.161  11.218
95445SOL     OW88231  12.971  11.047   1.619
95445SOL    HW188232  13.019  10.965   1.605
95445SOL    HW288233  12.878  11.021   1.617
95446SOL     OW88234   1.389   1.672   1.585
95446SOL    HW188235   1.429   1.747   1.542
95446SOL    HW288236   1.423   1.674   1.675
95447SOL     OW88237   2.112   9.265  10.880
95447SOL    HW188238   2.038   9.216  10.845
95447SOL    HW288239   2.079   9.355  10.888
95448SOL     OW88240  11.107   8.539   1.471
95448SOL    HW188241  11.183   8.542   1.413
95448SOL    HW288242  11.131   8.475   1.537
95449SOL     OW88243   6.444   1.020  13.571
95449SOL    HW188244   6.410   1.014  13.660
95449SOL    HW288245   6.534   0.990  13.577
95450SOL     OW88246   3.934   8.055  11.898
95450SOL    HW188247   3.858   8.090  11.852
95450SOL    HW288248   3.900   7.981  11.949
95451SOL     OW88249  10.805  11.979   8.760
95451SOL    HW188250  10.751  12.043   8.806
95451SOL    HW288251  10.895  12.006   8.779
95452SOL     OW88252  13.981   9.858  11.256
95452SOL    HW188253  13.963   9.764  11.268
95452SOL    HW288254  14.018   9.885  11.340
95453SOL     OW88255   9.540  11.557  14.748
95453SOL    HW188256   9.551  11.471  14.707
95453SOL    HW288257   9.495  11.538  14.831
95454SOL     OW88258   3.269   9.017   0.881
95454SOL    HW188259   3.303   8.931   0.907
95454SOL    HW288260   3.192   9.030   0.936
95455SOL     OW88261   0.008   6.112   8.684
95455SOL    HW188262   0.038   6.186   8.631
95455SOL    HW288263   0.084   6.056   8.693
95456SOL     OW88264  12.308   5.539   3.650
95456SOL    HW188265  12.272   5.627   3.655
95456SOL    HW288266  12.240   5.487   3.608
95457SOL     OW88267   5.891   0.869   7.681
95457SOL    HW188268   5.854   0.900   7.764
95457SOL    HW288269   5.985   0.885   7.690
95458SOL     OW88270   6.513  10.959   2.426
95458SOL    HW188271   6.569  10.972   2.350
95458SOL    HW288272   6.536  11.030   2.486
95459SOL     OW88273   0.916  13.506   5.624
95459SOL    HW188274   0.844  13.519   5.686
95459SOL    HW288275   0.924  13.590   5.579
95460SOL     OW88276   4.722   4.856   5.096
95460SOL    HW188277   4.755   4.779   5.143
95460SOL    HW288278   4.696   4.917   5.165
95461SOL     OW88279   7.407   4.011  12.279
95461SOL    HW188280   7.325   4.061  12.269
95461SOL    HW288281   7.476   4.072  12.253
95462SOL     OW88282  12.399   3.219   0.351
95462SOL    HW188283  12.444   3.145   0.393
95462SOL    HW288284  12.436   3.223   0.263
95463SOL     OW88285   3.496   2.944  11.426
95463SOL    HW188286   3.462   2.856  11.410
95463SOL    HW288287   3.576   2.949  11.374
95464SOL     OW88288  10.233  12.931   8.936
95464SOL    HW188289  10.208  13.002   8.995
95464SOL    HW288290  10.310  12.891   8.977
95465SOL     OW88291   7.813   8.725  10.974
95465SOL    HW188292   7.775   8.803  10.934
95465SOL    HW288293   7.783   8.728  11.065
95466SOL     OW88294  10.243  10.335   6.425
95466SOL    HW188295  10.314  10.316   6.364
95466SOL    HW288296  10.163  10.316   6.375
95467SOL     OW88297   8.682   0.162   8.245
95467SOL    HW188298   8.746   0.203   8.187
95467SOL    HW288299   8.636   0.100   8.188
95468SOL     OW88300  13.551  11.545   1.078
95468SOL    HW188301  13.472  11.597   1.093
95468SOL    HW288302  13.523  11.477   1.018
95469SOL     OW88303   1.972   8.264   7.319
95469SOL    HW188304   1.894   8.316   7.304
95469SOL    HW288305   1.940   8.175   7.330
95470SOL     OW88306  12.142  14.256   7.727
95470SOL    HW188307  12.099  14.258   7.812
95470SOL    HW288308  12.074  14.224   7.667
95471SOL     OW88309   2.333   4.939  12.195
95471SOL    HW188310   2.402   4.983  12.146
95471SOL    HW288311   2.377   4.902  12.271
95472SOL     OW88312   0.945  14.460   9.016
95472SOL    HW188313   0.859  14.499   9.000
95472SOL    HW288314   0.959  14.401   8.942
95473SOL     OW88315  14.470   6.191   0.217
95473SOL    HW188316  14.544   6.148   0.175
95473SOL    HW288317  14.406   6.121   0.229
95474SOL     OW88318  11.555   2.601  13.267
95474SOL    HW188319  11.619   2.531  13.252
95474SOL    HW288320  11.482   2.558  13.311
95475SOL     OW88321  13.268  11.647   5.702
95475SOL    HW188322  13.211  11.609   5.768
95475SOL    HW288323  13.212  11.659   5.625
95476SOL     OW88324   0.236   9.774   4.497
95476SOL    HW188325   0.321   9.817   4.490
95476SOL    HW288326   0.257   9.683   4.517
95477SOL     OW88327   9.333   4.590   7.657
95477SOL    HW188328   9.382   4.589   7.574
95477SOL    HW288329   9.241   4.585   7.630
95478SOL     OW88330   1.890  14.698  12.736
95478SOL    HW188331   1.958  14.751  12.779
95478SOL    HW288332   1.825  14.682  12.805
95479SOL     OW88333  10.260  10.360   7.715
95479SOL    HW188334  10.255  10.378   7.621
95479SOL    HW288335  10.354  10.360   7.734
95480SOL     OW88336   0.941   3.853   3.345
95480SOL    HW188337   0.901   3.835   3.260
95480SOL    HW288338   0.964   3.767   3.379
95481SOL     OW88339   0.798  10.197   4.066
95481SOL    HW188340   0.823  10.225   4.154
95481SOL    HW288341   0.798  10.278   4.015
95482SOL     OW88342   2.900   1.040   8.041
95482SOL    HW188343   2.899   1.007   7.952
95482SOL    HW288344   2.901   0.962   8.096
95483SOL     OW88345   8.688   6.686  12.262
95483SOL    HW188346   8.743   6.763  12.246
95483SOL    HW288347   8.613   6.721  12.310
95484SOL     OW88348   1.387  10.269  12.617
95484SOL    HW188349   1.427  10.276  12.530
95484SOL    HW288350   1.352  10.180  12.620
95485SOL     OW88351   4.880   1.292   7.546
95485SOL    HW188352   4.817   1.234   7.589
95485SOL    HW288353   4.841   1.379   7.553
95486SOL     OW88354   7.762  14.618   3.425
95486SOL    HW188355   7.674  14.616   3.386
95486SOL    HW288356   7.811  14.680   3.371
95487SOL     OW88357   5.855   7.819  12.249
95487SOL    HW188358   5.866   7.744  12.308
95487SOL    HW288359   5.883   7.787  12.163
95488SOL     OW88360   6.418   4.674  11.009
95488SOL    HW188361   6.493   4.734  11.010
95488SOL    HW288362   6.350   4.721  11.057
95489SOL     OW88363  12.827   7.398  12.979
95489SOL    HW188364  12.903   7.413  13.036
95489SOL    HW288365  12.836   7.307  12.951
95490SOL     OW88366  13.170   4.812   9.512
95490SOL    HW188367  13.262   4.790   9.527
95490SOL    HW288368  13.172   4.903   9.483
95491SOL     OW88369  13.323  11.842  10.225
95491SOL    HW188370  13.262  11.890  10.168
95491SOL    HW288371  13.279  11.840  10.310
95492SOL     OW88372   6.160   8.847  14.628
95492SOL    HW188373   6.115   8.876  14.708
95492SOL    HW288374   6.209   8.924  14.600
95493SOL     OW88375  11.644  10.936  13.181
95493SOL    HW188376  11.578  10.867  13.181
95493SOL    HW288377  11.629  10.984  13.100
95494SOL     OW88378  12.770   8.942  11.170
95494SOL    HW188379  12.693   8.937  11.113
95494SOL    HW288380  12.843   8.957  11.110
95495SOL     OW88381   5.822   4.684   5.821
95495SOL    HW188382   5.862   4.748   5.879
95495SOL    HW288383   5.885   4.673   5.749
95496SOL     OW88384   8.897   5.205  10.233
95496SOL    HW188385   8.831   5.274  10.222
95496SOL    HW288386   8.980   5.252  10.236
95497SOL     OW88387  13.038  11.242   7.325
95497SOL    HW188388  13.046  11.149   7.306
95497SOL    HW288389  12.950  11.253   7.361
95498SOL     OW88390  11.593  12.639  13.496
95498SOL    HW188391  11.502  12.611  13.490
95498SOL    HW288392  11.606  12.657  13.589
95499SOL     OW88393   9.616  12.204   3.943
95499SOL    HW188394   9.604  12.143   4.015
95499SOL    HW288395   9.710  12.221   3.941
95500SOL     OW88396   2.701   9.333  13.232
95500SOL    HW188397   2.774   9.274  13.217
95500SOL    HW288398   2.669   9.311  13.319
95501SOL     OW88399  10.289   8.685   9.724
95501SOL    HW188400  10.198   8.658   9.740
95501SOL    HW288401  10.330   8.679   9.810
95502SOL     OW88402   5.454  12.018   4.631
95502SOL    HW188403   5.381  12.033   4.691
95502SOL    HW288404   5.431  12.067   4.552
95503SOL     OW88405  10.528  11.934  14.601
95503SOL    HW188406  10.537  11.904  14.692
95503SOL    HW288407  10.488  12.020  14.608
95504SOL     OW88408  13.686   5.939  12.091
95504SOL    HW188409  13.718   5.945  12.181
95504SOL    HW288410  13.761   5.907  12.040
95505SOL     OW88411  12.672   5.199  13.123
95505SOL    HW188412  12.727   5.179  13.199
95505SOL    HW288413  12.695   5.132  13.059
95506SOL     OW88414   2.227   5.268  12.865
95506SOL    HW188415   2.252   5.193  12.812
95506SOL    HW288416   2.305   5.323  12.868
95507SOL     OW88417   7.726   0.001  14.149
95507SOL    HW188418   7.820  14.858  14.146
95507SOL    HW288419   7.694  14.849  14.062
95508SOL     OW88420   0.625  10.551  10.904
95508SOL    HW188421   0.572  10.585  10.977
95508SOL    HW288422   0.575  10.476  10.872
95509SOL     OW88423   6.427  11.549   3.985
95509SOL    HW188424   6.423  11.617   3.917
95509SOL    HW288425   6.455  11.470   3.938
95510SOL     OW88426   8.134  13.316   9.563
95510SOL    HW188427   8.064  13.262   9.526
95510SOL    HW288428   8.209  13.257   9.572
95511SOL     OW88429   1.053   6.749   8.499
95511SOL    HW188430   1.115   6.728   8.569
95511SOL    HW288431   1.103   6.803   8.438
95512SOL     OW88432   3.911   2.819  12.001
95512SOL    HW188433   3.891   2.897  12.052
95512SOL    HW288434   3.988   2.781  12.043
95513SOL     OW88435   1.257   4.226  11.577
95513SOL    HW188436   1.342   4.255  11.609
95513SOL    HW288437   1.273   4.200  11.486
95514SOL     OW88438   6.179   4.599   9.776
95514SOL    HW188439   6.173   4.577   9.869
95514SOL    HW288440   6.131   4.529   9.731
95515SOL     OW88441  13.519  11.607   9.364
95515SOL    HW188442  13.587  11.565   9.312
95515SOL    HW288443  13.558  11.691   9.389
95516SOL     OW88444   8.583   3.144   1.707
95516SOL    HW188445   8.645   3.085   1.750
95516SOL    HW288446   8.507   3.144   1.764
95517SOL     OW88447   6.659  11.006   3.545
95517SOL    HW188448   6.677  10.941   3.613
95517SOL    HW288449   6.704  11.085   3.575
95518SOL     OW88450   3.073   5.189   3.782
95518SOL    HW188451   3.035   5.216   3.698
95518SOL    HW288452   2.997   5.166   3.836
95519SOL     OW88453   2.222  12.487  10.834
95519SOL    HW188454   2.218  12.583  10.843
95519SOL    HW288455   2.311  12.470  10.806
95520SOL     OW88456  10.838  12.516   4.823
95520SOL    HW188457  10.768  12.452   4.829
95520SOL    HW288458  10.867  12.527   4.914
95521SOL     OW88459   5.041   0.742   1.850
95521SOL    HW188460   5.107   0.692   1.899
95521SOL    HW288461   5.068   0.833   1.860
95522SOL     OW88462  12.363  12.457  11.822
95522SOL    HW188463  12.402  12.526  11.769
95522SOL    HW288464  12.437  12.412  11.862
95523SOL     OW88465   1.704   3.666  10.681
95523SOL    HW188466   1.747   3.600  10.735
95523SOL    HW288467   1.725   3.749  10.722
95524SOL     OW88468   5.180   6.674  14.674
95524SOL    HW188469   5.231   6.623  14.611
95524SOL    HW288470   5.210   6.764  14.660
95525SOL     OW88471  13.032   7.288   9.099
95525SOL    HW188472  13.002   7.314   9.186
95525SOL    HW288473  13.003   7.198   9.089
95526SOL     OW88474   8.765   2.118  10.660
95526SOL    HW188475   8.815   2.199  10.660
95526SOL    HW288476   8.803   2.066  10.731
95527SOL     OW88477   8.741  12.811  14.180
95527SOL    HW188478   8.753  12.854  14.095
95527SOL    HW288479   8.657  12.844  14.212
95528SOL     OW88480  12.785   1.193   1.394
95528SOL    HW188481  12.874   1.221   1.415
95528SOL    HW288482  12.739   1.195   1.478
95529SOL     OW88483   1.018   2.285   4.676
95529SOL    HW188484   1.042   2.299   4.585
95529SOL    HW288485   0.965   2.362   4.699
95530SOL     OW88486   9.063   9.497  13.129
95530SOL    HW188487   8.993   9.487  13.064
95530SOL    HW288488   9.117   9.568  13.095
95531SOL     OW88489   5.083   0.813  14.823
95531SOL    HW188490   5.049   0.857   0.029
95531SOL    HW288491   5.152   0.871  14.791
95532SOL     OW88492  13.652   2.230  13.398
95532SOL    HW188493  13.659   2.136  13.387
95532SOL    HW288494  13.586   2.242  13.466
95533SOL     OW88495   1.268   0.882   5.367
95533SOL    HW188496   1.347   0.851   5.412
95533SOL    HW288497   1.252   0.816   5.299
95534SOL     OW88498   6.622  13.237  10.011
95534SOL    HW188499   6.638  13.142  10.012
95534SOL    HW288500   6.576  13.254   9.930
95535SOL     OW88501   2.060   3.271  13.722
95535SOL    HW188502   2.044   3.360  13.690
95535SOL    HW288503   1.984   3.250  13.776
95536SOL     OW88504   0.578   6.363   2.485
95536SOL    HW188505   0.607   6.449   2.515
95536SOL    HW288506   0.653   6.327   2.438
95537SOL     OW88507   0.038   9.447   9.610
95537SOL    HW188508   0.073   9.371   9.657
95537SOL    HW288509  14.852   9.489   9.673
95538SOL     OW88510   1.742  12.648   5.725
95538SOL    HW188511   1.675  12.588   5.758
95538SOL    HW288512   1.801  12.593   5.674
95539SOL     OW88513   1.201  12.194   1.965
95539SOL    HW188514   1.137  12.234   1.906
95539SOL    HW288515   1.155  12.120   2.004
95540SOL     OW88516   0.263   6.228  10.470
95540SOL    HW188517   0.328   6.298  10.461
95540SOL    HW288518   0.212   6.253  10.547
95541SOL     OW88519  14.144  14.336   3.233
95541SOL    HW188520  14.104  14.275   3.294
95541SOL    HW288521  14.090  14.330   3.153
95542SOL     OW88522   6.446   8.200   2.515
95542SOL    HW188523   6.418   8.282   2.556
95542SOL    HW288524   6.375   8.139   2.532
95543SOL     OW88525   1.238   5.449   0.924
95543SOL    HW188526   1.318   5.446   0.873
95543SOL    HW288527   1.265   5.487   1.008
95544SOL     OW88528   6.425   2.125   3.412
95544SOL    HW188529   6.439   2.212   3.377
95544SOL    HW288530   6.509   2.099   3.449
95545SOL     OW88531   5.737   8.945  11.693
95545SOL    HW188532   5.732   9.003  11.769
95545SOL    HW288533   5.646   8.938  11.663
95546SOL     OW88534  10.631   6.886   5.349
95546SOL    HW188535  10.723   6.900   5.369
95546SOL    HW288536  10.621   6.915   5.258
95547SOL     OW88537   6.632   8.700   5.037
95547SOL    HW188538   6.685   8.768   4.995
95547SOL    HW288539   6.551   8.746   5.061
95548SOL     OW88540   0.145  10.531   7.281
95548SOL    HW188541   0.151  10.494   7.192
95548SOL    HW288542   0.195  10.470   7.335
95549SOL     OW88543   8.910   9.004   5.826
95549SOL    HW188544   8.942   9.071   5.886
95549SOL    HW288545   8.866   8.941   5.883
95550SOL     OW88546  13.008   1.363   1.677
95550SOL    HW188547  12.958   1.384   1.756
95550SOL    HW288548  13.099   1.382   1.701
95551SOL     OW88549   7.592   5.243  13.154
95551SOL    HW188550   7.590   5.224  13.247
95551SOL    HW288551   7.550   5.168  13.112
95552SOL     OW88552   1.747  13.489   4.444
95552SOL    HW188553   1.699  13.437   4.380
95552SOL    HW288554   1.838  13.462   4.433
95553SOL     OW88555   2.925   1.617   3.233
95553SOL    HW188556   3.013   1.601   3.267
95553SOL    HW288557   2.869   1.621   3.310
95554SOL     OW88558   6.580   4.463  10.887
95554SOL    HW188559   6.515   4.516  10.934
95554SOL    HW288560   6.602   4.515  10.810
95555SOL     OW88561   0.765  11.504   0.155
95555SOL    HW188562   0.769  11.524   0.061
95555SOL    HW288563   0.671  11.492   0.172
95556SOL     OW88564  12.563  10.361   1.604
95556SOL    HW188565  12.556  10.266   1.594
95556SOL    HW288566  12.505  10.382   1.678
95557SOL     OW88567  12.957  11.948  12.786
95557SOL    HW188568  12.997  11.975  12.703
95557SOL    HW288569  12.872  11.993  12.788
95558SOL     OW88570   3.939   4.112  14.732
95558SOL    HW188571   3.946   4.132  14.825
95558SOL    HW288572   3.845   4.102  14.717
95559SOL     OW88573  13.638  14.641   5.561
95559SOL    HW188574  13.567  14.603   5.613
95559SOL    HW288575  13.709  14.577   5.567
95560SOL     OW88576   5.146   3.461   4.029
95560SOL    HW188577   5.153   3.555   4.015
95560SOL    HW288578   5.122   3.425   3.944
95561SOL     OW88579   3.935  10.243   0.148
95561SOL    HW188580   3.941  10.318   0.088
95561SOL    HW288581   4.003  10.259   0.214
95562SOL     OW88582   5.517  14.559   8.966
95562SOL    HW188583   5.433  14.562   9.012
95562SOL    HW288584   5.562  14.484   9.004
95563SOL     OW88585  11.179   8.788  12.972
95563SOL    HW188586  11.257   8.800  13.028
95563SOL    HW288587  11.126   8.866  12.988
95564SOL     OW88588   1.786   0.739   5.415
95564SOL    HW188589   1.740   0.821   5.398
95564SOL    HW288590   1.879   0.761   5.410
95565SOL     OW88591   2.633  12.123  14.208
95565SOL    HW188592   2.566  12.130  14.140
95565SOL    HW288593   2.716  12.128  14.161
95566SOL     OW88594   8.292   3.565   4.431
95566SOL    HW188595   8.315   3.525   4.348
95566SOL    HW288596   8.207   3.526   4.454
95567SOL     OW88597   3.150  10.280  14.247
95567SOL    HW188598   3.058  10.284  14.220
95567SOL    HW288599   3.194  10.345  14.192
95568SOL     OW88600   3.347   6.315   1.242
95568SOL    HW188601   3.439   6.302   1.266
95568SOL    HW288602   3.299   6.253   1.296
95569SOL     OW88603   0.310   9.587   8.169
95569SOL    HW188604   0.289   9.513   8.227
95569SOL    HW288605   0.295   9.665   8.224
95570SOL     OW88606  12.866   6.666   6.405
95570SOL    HW188607  12.906   6.752   6.389
95570SOL    HW288608  12.871   6.621   6.320
95571SOL     OW88609  13.702   1.510   9.712
95571SOL    HW188610  13.795   1.503   9.692
95571SOL    HW288611  13.676   1.422   9.737
95572SOL     OW88612  13.996   5.418   8.335
95572SOL    HW188613  14.060   5.368   8.386
95572SOL    HW288614  13.997   5.505   8.373
95573SOL     OW88615   8.081   9.595   8.090
95573SOL    HW188616   8.036   9.642   8.160
95573SOL    HW288617   8.108   9.663   8.029
95574SOL     OW88618   6.666   2.891   0.837
95574SOL    HW188619   6.757   2.902   0.808
95574SOL    HW288620   6.646   2.799   0.823
95575SOL     OW88621   8.410   3.250   8.301
95575SOL    HW188622   8.480   3.185   8.291
95575SOL    HW288623   8.409   3.297   8.218
95576SOL     OW88624   4.772  10.771   6.947
95576SOL    HW188625   4.753  10.684   6.982
95576SOL    HW288626   4.732  10.831   7.011
95577SOL     OW88627   3.985   9.829   5.608
95577SOL    HW188628   3.985   9.771   5.684
95577SOL    HW288629   4.050   9.792   5.549
95578SOL     OW88630  11.026   5.617  13.461
95578SOL    HW188631  10.978   5.539  13.489
95578SOL    HW288632  11.067   5.592  13.378
95579SOL     OW88633   5.233  13.175  13.627
95579SOL    HW188634   5.322  13.150  13.599
95579SOL    HW288635   5.226  13.267  13.603
95580SOL     OW88636   1.355   2.000  12.782
95580SOL    HW188637   1.260   2.003  12.770
95580SOL    HW288638   1.372   2.060  12.855
95581SOL     OW88639   5.514   1.776  10.121
95581SOL    HW188640   5.465   1.732  10.190
95581SOL    HW288641   5.456   1.845  10.089
95582SOL     OW88642  14.169   5.785   1.249
95582SOL    HW188643  14.190   5.874   1.222
95582SOL    HW288644  14.073   5.784   1.255
95583SOL     OW88645  10.375   3.810  10.029
95583SOL    HW188646  10.377   3.848   9.941
95583SOL    HW288647  10.321   3.870  10.080
95584SOL     OW88648  12.765   1.138   7.192
95584SOL    HW188649  12.811   1.054   7.198
95584SOL    HW288650  12.816   1.196   7.249
95585SOL     OW88651   4.278   1.281   9.112
95585SOL    HW188652   4.254   1.296   9.204
95585SOL    HW288653   4.309   1.366   9.081
95586SOL     OW88654   0.655  12.662   6.931
95586SOL    HW188655   0.733  12.613   6.902
95586SOL    HW288656   0.686  12.715   7.005
95587SOL     OW88657   7.723   4.962   0.346
95587SOL    HW188658   7.634   4.929   0.342
95587SOL    HW288659   7.714   5.057   0.336
95588SOL     OW88660  11.332   9.815   9.401
95588SOL    HW188661  11.260   9.755   9.381
95588SOL    HW288662  11.317   9.841   9.492
95589SOL     OW88663   4.528  12.868   1.727
95589SOL    HW188664   4.568  12.892   1.810
95589SOL    HW288665   4.473  12.943   1.703
95590SOL     OW88666   4.394   0.499  10.599
95590SOL    HW188667   4.299   0.496  10.595
95590SOL    HW288668   4.422   0.407  10.598
95591SOL     OW88669   0.028  11.081   2.374
95591SOL    HW188670   0.088  11.152   2.352
95591SOL    HW288671   0.078  11.001   2.357
95592SOL     OW88672   0.149   8.351   9.507
95592SOL    HW188673   0.085   8.378   9.442
95592SOL    HW288674   0.160   8.427   9.564
95593SOL     OW88675   5.191   8.596   9.989
95593SOL    HW188676   5.099   8.605  10.015
95593SOL    HW288677   5.232   8.678  10.019
95594SOL     OW88678  12.957   2.142  12.857
95594SOL    HW188679  13.039   2.101  12.882
95594SOL    HW288680  12.889   2.087  12.896
95595SOL     OW88681  10.888  11.545   7.762
95595SOL    HW188682  10.857  11.635   7.768
95595SOL    HW288683  10.906  11.532   7.669
95596SOL     OW88684  11.307  13.086   0.010
95596SOL    HW188685  11.274  13.166  14.842
95596SOL    HW288686  11.241  13.065   0.076
95597SOL     OW88687  12.912  12.677  13.522
95597SOL    HW188688  12.890  12.629  13.601
95597SOL    HW288689  13.007  12.690  13.527
95598SOL     OW88690  13.266   8.411   5.534
95598SOL    HW188691  13.177   8.387   5.560
95598SOL    HW288692  13.261   8.424   5.440
95599SOL     OW88693   5.577  12.699   3.593
95599SOL    HW188694   5.530  12.738   3.520
95599SOL    HW288695   5.668  12.697   3.565
95600SOL     OW88696   5.557   8.986  13.079
95600SOL    HW188697   5.536   9.058  13.021
95600SOL    HW288698   5.643   8.956  13.050
95601SOL     OW88699   4.777  12.847   6.567
95601SOL    HW188700   4.730  12.818   6.489
95601SOL    HW288701   4.795  12.766   6.616
95602SOL     OW88702  13.439   3.195   9.069
95602SOL    HW188703  13.491   3.274   9.084
95602SOL    HW288704  13.464   3.167   8.981
95603SOL     OW88705   6.838  11.134   4.323
95603SOL    HW188706   6.819  11.077   4.249
95603SOL    HW288707   6.829  11.078   4.400
95604SOL     OW88708   6.370  10.798   3.488
95604SOL    HW188709   6.462  10.777   3.498
95604SOL    HW288710   6.350  10.778   3.396
95605SOL     OW88711   0.057   9.889   4.300
95605SOL    HW188712   0.087   9.969   4.258
95605SOL    HW288713   0.122   9.871   4.368
95606SOL     OW88714  10.811  13.134   6.963
95606SOL    HW188715  10.750  13.060   6.962
95606SOL    HW288716  10.786  13.187   6.887
95607SOL     OW88717   3.440   2.239  12.136
95607SOL    HW188718   3.529   2.227  12.103
95607SOL    HW288719   3.450   2.248  12.231
95608SOL     OW88720   9.289   6.534  10.202
95608SOL    HW188721   9.287   6.441  10.225
95608SOL    HW288722   9.218   6.573  10.253
95609SOL     OW88723   4.733   9.451   9.558
95609SOL    HW188724   4.661   9.482   9.613
95609SOL    HW288725   4.767   9.375   9.604
95610SOL     OW88726  12.211   8.405  11.703
95610SOL    HW188727  12.182   8.483  11.750
95610SOL    HW288728  12.133   8.352  11.693
95611SOL     OW88729   4.257   6.832   7.166
95611SOL    HW188730   4.232   6.752   7.120
95611SOL    HW288731   4.198   6.837   7.241
95612SOL     OW88732  14.186   7.717   2.490
95612SOL    HW188733  14.257   7.673   2.444
95612SOL    HW288734  14.186   7.677   2.577
95613SOL     OW88735   3.074   7.017  12.535
95613SOL    HW188736   3.044   7.097  12.578
95613SOL    HW288737   3.050   7.028  12.443
95614SOL     OW88738   2.387   6.096   2.874
95614SOL    HW188739   2.353   6.035   2.940
95614SOL    HW288740   2.348   6.067   2.791
95615SOL     OW88741   5.635   5.919   2.683
95615SOL    HW188742   5.601   5.948   2.599
95615SOL    HW288743   5.682   5.995   2.718
95616SOL     OW88744   6.508   4.620   2.106
95616SOL    HW188745   6.508   4.676   2.184
95616SOL    HW288746   6.470   4.537   2.136
95617SOL     OW88747   0.543   0.527  12.584
95617SOL    HW188748   0.490   0.483  12.650
95617SOL    HW288749   0.633   0.504  12.605
95618SOL     OW88750  12.309   8.491   4.771
95618SOL    HW188751  12.390   8.542   4.777
95618SOL    HW288752  12.243   8.544   4.815
95619SOL     OW88753   1.971   6.479   1.980
95619SOL    HW188754   2.058   6.441   1.991
95619SOL    HW288755   1.911   6.411   2.013
95620SOL     OW88756  14.296  13.646   1.886
95620SOL    HW188757  14.242  13.569   1.901
95620SOL    HW288758  14.239  13.704   1.834
95621SOL     OW88759   2.397  12.435   9.450
95621SOL    HW188760   2.487  12.466   9.464
95621SOL    HW288761   2.342  12.507   9.478
95622SOL     OW88762   2.312   3.108   5.547
95622SOL    HW188763   2.235   3.063   5.512
95622SOL    HW288764   2.325   3.182   5.488
95623SOL     OW88765   7.366   5.652  13.804
95623SOL    HW188766   7.301   5.698  13.750
95623SOL    HW288767   7.345   5.559  13.792
95624SOL     OW88768  13.037   1.164   1.485
95624SOL    HW188769  13.031   1.227   1.557
95624SOL    HW288770  13.122   1.122   1.497
95625SOL     OW88771  13.656   3.391   4.484
95625SOL    HW188772  13.698   3.459   4.537
95625SOL    HW288773  13.692   3.403   4.396
95626SOL     OW88774  11.839   4.541  10.739
95626SOL    HW188775  11.821   4.615  10.796
95626SOL    HW288776  11.921   4.563  10.695
95627SOL     OW88777  13.097  12.178   8.324
95627SOL    HW188778  13.140  12.165   8.409
95627SOL    HW288779  13.129  12.105   8.270
95628SOL     OW88780   1.654   3.821   3.757
95628SOL    HW188781   1.609   3.760   3.816
95628SOL    HW288782   1.585   3.879   3.725
95629SOL     OW88783   9.063  10.955   2.407
95629SOL    HW188784   9.014  11.036   2.417
95629SOL    HW288785   9.101  10.939   2.493
95630SOL     OW88786  14.184   3.437  13.004
95630SOL    HW188787  14.172   3.355  13.053
95630SOL    HW288788  14.179   3.410  12.912
95631SOL     OW88789   1.846   0.665  14.796
95631SOL    HW188790   1.817   0.630   0.008
95631SOL    HW288791   1.891   0.747  14.818
95632SOL     OW88792   0.604   3.608   3.316
95632SOL    HW188793   0.608   3.704   3.315
95632SOL    HW288794   0.693   3.580   3.296
95633SOL     OW88795   9.381   7.176   1.144
95633SOL    HW188796   9.341   7.255   1.107
95633SOL    HW288797   9.433   7.139   1.073
95634SOL     OW88798   2.668   0.879   5.039
95634SOL    HW188799   2.605   0.812   5.062
95634SOL    HW288800   2.621   0.962   5.049
95635SOL     OW88801   1.391   8.547   8.158
95635SOL    HW188802   1.355   8.462   8.133
95635SOL    HW288803   1.446   8.529   8.234
95636SOL     OW88804   3.395   5.705  11.619
95636SOL    HW188805   3.315   5.651  11.620
95636SOL    HW288806   3.379   5.769  11.550
95637SOL     OW88807   3.842   9.074   5.585
95637SOL    HW188808   3.822   9.074   5.491
95637SOL    HW288809   3.934   9.045   5.589
95638SOL     OW88810   0.598  13.928   4.666
95638SOL    HW188811   0.520  13.887   4.631
95638SOL    HW288812   0.660  13.856   4.679
95639SOL     OW88813  10.532   1.875  12.254
95639SOL    HW188814  10.577   1.945  12.207
95639SOL    HW288815  10.601   1.817  12.284
95640SOL     OW88816   3.220   6.512  12.470
95640SOL    HW188817   3.311   6.496  12.495
95640SOL    HW288818   3.215   6.606  12.456
95641SOL     OW88819   7.206   8.479   4.055
95641SOL    HW188820   7.198   8.546   3.986
95641SOL    HW288821   7.119   8.475   4.094
95642SOL     OW88822   2.274  11.775  13.224
95642SOL    HW188823   2.289  11.861  13.263
95642SOL    HW288824   2.189  11.782  13.181
95643SOL     OW88825   0.524   1.027  14.478
95643SOL    HW188826   0.577   1.101  14.450
95643SOL    HW288827   0.466   1.009  14.404
95644SOL     OW88828   4.336   2.195  10.057
95644SOL    HW188829   4.288   2.239  10.127
95644SOL    HW288830   4.307   2.237   9.977
95645SOL     OW88831   0.748   9.722   0.520
95645SOL    HW188832   0.761   9.805   0.474
95645SOL    HW288833   0.747   9.656   0.450
95646SOL     OW88834  14.308   8.101   6.177
95646SOL    HW188835  14.313   8.163   6.250
95646SOL    HW288836  14.359   8.025   6.207
95647SOL     OW88837   8.871   3.238  10.939
95647SOL    HW188838   8.889   3.315  10.993
95647SOL    HW288839   8.889   3.267  10.850
95648SOL     OW88840  11.982  13.995   2.198
95648SOL    HW188841  12.061  14.046   2.215
95648SOL    HW288842  12.013  13.905   2.188
95649SOL     OW88843  11.844   4.881  13.364
95649SOL    HW188844  11.768   4.868  13.307
95649SOL    HW288845  11.845   4.974  13.383
95650SOL     OW88846   7.415   9.586  12.648
95650SOL    HW188847   7.508   9.570  12.636
95650SOL    HW288848   7.402   9.677  12.623
95651SOL     OW88849   0.848  10.115   0.485
95651SOL    HW188850   0.794  10.101   0.563
95651SOL    HW288851   0.821  10.046   0.425
95652SOL     OW88852   7.492   9.308   8.992
95652SOL    HW188853   7.513   9.218   9.018
95652SOL    HW288854   7.398   9.315   9.004
95653SOL     OW88855   6.953   7.114  13.031
95653SOL    HW188856   6.872   7.103  12.983
95653SOL    HW288857   6.932   7.179  13.099
95654SOL     OW88858   0.907   2.777   7.885
95654SOL    HW188859   0.889   2.770   7.791
95654SOL    HW288860   0.844   2.842   7.917
95655SOL     OW88861   2.605   5.200   8.980
95655SOL    HW188862   2.674   5.178   9.044
95655SOL    HW288863   2.598   5.121   8.926
95656SOL     OW88864   5.141   6.534   7.441
95656SOL    HW188865   5.220   6.552   7.492
95656SOL    HW288866   5.077   6.502   7.505
95657SOL     OW88867   8.916  14.703   5.240
95657SOL    HW188868   8.972  14.778   5.261
95657SOL    HW288869   8.830  14.727   5.276
95658SOL     OW88870   1.944  13.963   9.642
95658SOL    HW188871   1.903  13.878   9.625
95658SOL    HW288872   1.933  14.012   9.560
95659SOL     OW88873  12.200  12.275   8.867
95659SOL    HW188874  12.185  12.245   8.778
95659SOL    HW288875  12.294  12.293   8.870
95660SOL     OW88876  10.783  13.641   9.016
95660SOL    HW188877  10.773  13.599   9.101
95660SOL    HW288878  10.822  13.574   8.961
95661SOL     OW88879   2.145  13.469   7.689
95661SOL    HW188880   2.134  13.462   7.594
95661SOL    HW288881   2.226  13.518   7.701
95662SOL     OW88882  12.818  14.083  14.508
95662SOL    HW188883  12.748  14.071  14.443
95662SOL    HW288884  12.774  14.122  14.584
95663SOL     OW88885  11.420   0.070  11.851
95663SOL    HW188886  11.379  14.859  11.827
95663SOL    HW288887  11.466   0.051  11.933
95664SOL     OW88888  13.303   6.653   2.336
95664SOL    HW188889  13.254   6.574   2.359
95664SOL    HW288890  13.355   6.627   2.260
95665SOL     OW88891   8.020   1.636   8.291
95665SOL    HW188892   8.112   1.633   8.265
95665SOL    HW288893   7.979   1.694   8.227
95666SOL     OW88894   5.110   2.044  10.476
95666SOL    HW188895   5.046   2.006  10.536
95666SOL    HW288896   5.194   2.029  10.519
95667SOL     OW88897   9.290   8.809   3.056
95667SOL    HW188898   9.239   8.832   3.134
95667SOL    HW288899   9.381   8.805   3.088
95668SOL     OW88900   3.994  13.508   1.138
95668SOL    HW188901   3.998  13.420   1.100
95668SOL    HW288902   4.080  13.547   1.119
95669SOL     OW88903   9.585  14.794   6.229
95669SOL    HW188904   9.502  14.797   6.181
95669SOL    HW288905   9.561  14.757   6.315
95670SOL     OW88906   4.038   3.131   5.047
95670SOL    HW188907   4.102   3.060   5.056
95670SOL    HW288908   3.977   3.100   4.980
95671SOL     OW88909   7.865  12.720   6.513
95671SOL    HW188910   7.877  12.657   6.584
95671SOL    HW288911   7.903  12.802   6.546
95672SOL     OW88912   4.509   9.437   3.805
95672SOL    HW188913   4.476   9.485   3.881
95672SOL    HW288914   4.432   9.419   3.753
95673SOL     OW88915   2.709   2.962  10.269
95673SOL    HW188916   2.732   3.028  10.334
95673SOL    HW288917   2.736   2.999  10.186
95674SOL     OW88918   1.187   5.109   7.694
95674SOL    HW188919   1.092   5.116   7.689
95674SOL    HW288920   1.213   5.078   7.607
95675SOL     OW88921   7.788   6.908   8.600
95675SOL    HW188922   7.728   6.905   8.526
95675SOL    HW288923   7.734   6.936   8.674
95676SOL     OW88924   1.564  11.534   4.968
95676SOL    HW188925   1.571  11.617   5.015
95676SOL    HW288926   1.618  11.546   4.890
95677SOL     OW88927   0.557  12.837  13.664
95677SOL    HW188928   0.576  12.921  13.624
95677SOL    HW288929   0.632  12.820  13.722
95678SOL     OW88930   1.200   1.102   6.181
95678SOL    HW188931   1.132   1.143   6.127
95678SOL    HW288932   1.249   1.176   6.218
95679SOL     OW88933   6.090   1.426   5.652
95679SOL    HW188934   6.010   1.470   5.623
95679SOL    HW288935   6.161   1.483   5.623
95680SOL     OW88936  12.367   5.241   6.386
95680SOL    HW188937  12.357   5.270   6.476
95680SOL    HW288938  12.404   5.153   6.393
95681SOL     OW88939   6.094  13.861  13.672
95681SOL    HW188940   6.113  13.925  13.740
95681SOL    HW288941   6.002  13.838  13.686
95682SOL     OW88942   6.704   8.560  12.344
95682SOL    HW188943   6.624   8.512  12.364
95682SOL    HW288944   6.714   8.551  12.249
95683SOL     OW88945   1.226   0.784   4.819
95683SOL    HW188946   1.201   0.700   4.858
95683SOL    HW288947   1.172   0.792   4.741
95684SOL     OW88948  12.982  13.694   9.497
95684SOL    HW188949  12.985  13.627   9.565
95684SOL    HW288950  12.889  13.716   9.489
95685SOL     OW88951   4.774   2.985   2.006
95685SOL    HW188952   4.712   3.040   1.958
95685SOL    HW288953   4.857   3.034   2.004
95686SOL     OW88954   5.895  11.731  14.582
95686SOL    HW188955   5.813  11.741  14.534
95686SOL    HW288956   5.950  11.803  14.551
95687SOL     OW88957   5.992  12.614   6.461
95687SOL    HW188958   6.077  12.579   6.432
95687SOL    HW288959   5.998  12.708   6.443
95688SOL     OW88960   3.190   9.411   7.037
95688SOL    HW188961   3.130   9.362   6.981
95688SOL    HW288962   3.222   9.347   7.100
95689SOL     OW88963  14.807   7.494  14.395
95689SOL    HW188964  14.727   7.441  14.387
95689SOL    HW288965   0.006   7.431  14.390
95690SOL     OW88966   7.575   6.003  10.061
95690SOL    HW188967   7.619   5.984  10.145
95690SOL    HW288968   7.633   6.066  10.018
95691SOL     OW88969   8.879   2.140   9.247
95691SOL    HW188970   8.870   2.178   9.160
95691SOL    HW288971   8.971   2.155   9.270
95692SOL     OW88972   9.746   3.646   2.917
95692SOL    HW188973   9.733   3.577   2.853
95692SOL    HW288974   9.736   3.728   2.868
95693SOL     OW88975   2.988   4.140  11.366
95693SOL    HW188976   3.057   4.193  11.407
95693SOL    HW288977   3.031   4.057  11.345
95694SOL     OW88978  11.670  13.669   1.448
95694SOL    HW188979  11.600  13.734   1.455
95694SOL    HW288980  11.693  13.667   1.355
95695SOL     OW88981   2.104  12.938  11.357
95695SOL    HW188982   2.173  12.874  11.339
95695SOL    HW288983   2.082  12.923  11.450
95696SOL     OW88984   9.801  13.080   2.397
95696SOL    HW188985   9.748  13.145   2.351
95696SOL    HW288986   9.840  13.027   2.327
95697SOL     OW88987   4.843   8.831   1.166
95697SOL    HW188988   4.884   8.745   1.173
95697SOL    HW288989   4.863   8.874   1.249
95698SOL     OW88990   5.375   1.223   6.968
95698SOL    HW188991   5.357   1.280   6.893
95698SOL    HW288992   5.467   1.238   6.988
95699SOL     OW88993   7.230   2.653  12.875
95699SOL    HW188994   7.148   2.701  12.887
95699SOL    HW288995   7.223   2.615  12.788
95700SOL     OW88996   2.506   4.640  13.826
95700SOL    HW188997   2.430   4.598  13.785
95700SOL    HW288998   2.579   4.619  13.768
95701SOL     OW88999  10.097   9.652   3.236
95701SOL    HW189000  10.125   9.637   3.145
95701SOL    HW289001  10.175   9.630   3.288
95702SOL     OW89002   2.606   5.324   2.520
95702SOL    HW189003   2.537   5.389   2.527
95702SOL    HW289004   2.632   5.306   2.611
95703SOL     OW89005   4.262  12.911   4.366
95703SOL    HW189006   4.231  13.002   4.365
95703SOL    HW289007   4.213  12.869   4.436
95704SOL     OW89008  12.719   0.483  12.183
95704SOL    HW189009  12.709   0.404  12.235
95704SOL    HW289010  12.811   0.506  12.192
95705SOL     OW89011   6.263   9.571   0.222
95705SOL    HW189012   6.256   9.485   0.181
95705SOL    HW289013   6.355   9.593   0.215
95706SOL     OW89014   9.760  13.438   4.972
95706SOL    HW189015   9.685  13.485   4.936
95706SOL    HW289016   9.726  13.353   4.999
95707SOL     OW89017   3.270   1.698   5.087
95707SOL    HW189018   3.209   1.772   5.087
95707SOL    HW289019   3.259   1.658   5.001
95708SOL     OW89020  10.680   0.558   6.629
95708SOL    HW189021  10.656   0.471   6.659
95708SOL    HW289022  10.773   0.551   6.607
95709SOL     OW89023   5.544   7.437   4.632
95709SOL    HW189024   5.525   7.531   4.635
95709SOL    HW289025   5.462   7.397   4.604
95710SOL     OW89026  12.930   8.872   5.995
95710SOL    HW189027  12.971   8.908   6.075
95710SOL    HW289028  12.919   8.779   6.014
95711SOL     OW89029  13.310  10.300   2.092
95711SOL    HW189030  13.235  10.346   2.054
95711SOL    HW289031  13.354  10.365   2.146
95712SOL     OW89032   8.536  14.314   6.456
95712SOL    HW189033   8.456  14.352   6.491
95712SOL    HW289034   8.565  14.377   6.389
95713SOL     OW89035   5.714   7.078   1.576
95713SOL    HW189036   5.629   7.054   1.611
95713SOL    HW289037   5.775   7.014   1.614
95714SOL     OW89038   4.478  10.324  11.146
95714SOL    HW189039   4.493  10.401  11.200
95714SOL    HW289040   4.491  10.250  11.205
95715SOL     OW89041   8.544   0.132   1.064
95715SOL    HW189042   8.494   0.101   1.140
95715SOL    HW289043   8.478   0.163   1.003
95716SOL     OW89044   3.454   1.065   4.470
95716SOL    HW189045   3.372   1.060   4.519
95716SOL    HW289046   3.429   1.098   4.384
95717SOL     OW89047  11.827   1.359  10.214
95717SOL    HW189048  11.747   1.306  10.209
95717SOL    HW289049  11.857   1.348  10.304
95718SOL     OW89050  14.129  13.347   5.879
95718SOL    HW189051  14.050  13.363   5.827
95718SOL    HW289052  14.096  13.323   5.966
95719SOL     OW89053   2.733  11.696  12.955
95719SOL    HW189054   2.690  11.735  12.879
95719SOL    HW289055   2.680  11.723  13.029
95720SOL     OW89056  14.227   5.446   5.934
95720SOL    HW189057  14.185   5.456   5.848
95720SOL    HW289058  14.159   5.408   5.989
95721SOL     OW89059   3.166   3.366   1.107
95721SOL    HW189060   3.211   3.285   1.085
95721SOL    HW289061   3.077   3.354   1.074
95722SOL     OW89062   2.415   0.962   2.678
95722SOL    HW189063   2.353   0.984   2.747
95722SOL    HW289064   2.413   1.037   2.619
95723SOL     OW89065   1.203   6.862   3.507
95723SOL    HW189066   1.234   6.948   3.534
95723SOL    HW289067   1.211   6.808   3.585
95724SOL     OW89068  12.685  13.227   1.997
95724SOL    HW189069  12.721  13.242   1.910
95724SOL    HW289070  12.756  13.185   2.045
95725SOL     OW89071  10.269   6.600  13.324
95725SOL    HW189072  10.264   6.517  13.371
95725SOL    HW289073  10.215   6.586  13.246
95726SOL     OW89074  10.716   0.152   3.744
95726SOL    HW189075  10.810   0.164   3.736
95726SOL    HW289076  10.681   0.241   3.740
95727SOL     OW89077  13.779   3.696  13.886
95727SOL    HW189078  13.801   3.611  13.924
95727SOL    HW289079  13.843   3.756  13.923
95728SOL     OW89080   9.609   6.254   6.780
95728SOL    HW189081   9.638   6.318   6.715
95728SOL    HW289082   9.626   6.297   6.864
95729SOL     OW89083  11.970   1.924   9.839
95729SOL    HW189084  11.912   1.857   9.802
95729SOL    HW289085  12.037   1.874   9.885
95730SOL     OW89086   9.855  10.083   6.478
95730SOL    HW189087   9.864   9.990   6.460
95730SOL    HW289088   9.786  10.112   6.417
95731SOL     OW89089   2.067  12.781   9.730
95731SOL    HW189090   2.100  12.721   9.797
95731SOL    HW289091   2.065  12.867   9.774
95732SOL     OW89092   2.640   4.919   4.646
95732SOL    HW189093   2.600   4.868   4.575
95732SOL    HW289094   2.643   4.859   4.720
95733SOL     OW89095   3.897  12.238  10.202
95733SOL    HW189096   3.813  12.221  10.160
95733SOL    HW289097   3.877  12.301  10.271
95734SOL     OW89098  14.032  13.788   2.471
95734SOL    HW189099  13.970  13.860   2.486
95734SOL    HW289100  13.988  13.711   2.507
95735SOL     OW89101   1.506   5.747   3.047
95735SOL    HW189102   1.588   5.704   3.023
95735SOL    HW289103   1.438   5.684   3.024
95736SOL     OW89104  13.414   1.373   7.968
95736SOL    HW189105  13.417   1.365   7.873
95736SOL    HW289106  13.332   1.331   7.994
95737SOL     OW89107   8.963   1.904   8.743
95737SOL    HW189108   9.005   1.957   8.810
95737SOL    HW289109   8.875   1.940   8.735
95738SOL     OW89110   5.857  11.886   2.336
95738SOL    HW189111   5.781  11.915   2.285
95738SOL    HW289112   5.926  11.949   2.313
95739SOL     OW89113   5.870  13.323  14.502
95739SOL    HW189114   5.825  13.399  14.539
95739SOL    HW289115   5.948  13.360  14.460
95740SOL     OW89116   2.082   1.153  14.180
95740SOL    HW189117   2.135   1.232  14.183
95740SOL    HW289118   2.140   1.083  14.209
95741SOL     OW89119  13.393   0.321   0.891
95741SOL    HW189120  13.485   0.301   0.912
95741SOL    HW289121  13.356   0.236   0.867
95742SOL     OW89122   4.081  12.050   5.623
95742SOL    HW189123   4.070  12.141   5.647
95742SOL    HW289124   3.993  12.021   5.598
95743SOL     OW89125   1.851  13.256   1.616
95743SOL    HW189126   1.898  13.178   1.646
95743SOL    HW289127   1.920  13.323   1.607
95744SOL     OW89128   1.665   4.437  10.239
95744SOL    HW189129   1.746   4.481  10.265
95744SOL    HW289130   1.652   4.463  10.148
95745SOL     OW89131  10.029  10.991  10.028
95745SOL    HW189132  10.063  10.952   9.948
95745SOL    HW289133  10.068  11.078  10.031
95746SOL     OW89134  14.483   0.825   8.797
95746SOL    HW189135  14.505   0.745   8.749
95746SOL    HW289136  14.476   0.892   8.729
95747SOL     OW89137   2.133  13.662  12.299
95747SOL    HW189138   2.094  13.709  12.372
95747SOL    HW289139   2.227  13.659  12.320
95748SOL     OW89140   4.394   8.712   2.377
95748SOL    HW189141   4.324   8.648   2.391
95748SOL    HW289142   4.462   8.663   2.331
95749SOL     OW89143   0.754   1.599   3.035
95749SOL    HW189144   0.807   1.671   3.000
95749SOL    HW289145   0.670   1.607   2.989
95750SOL     OW89146  10.488   1.940   1.033
95750SOL    HW189147  10.499   1.874   1.101
95750SOL    HW289148  10.400   1.976   1.049
95751SOL     OW89149   6.745   3.820  13.224
95751SOL    HW189150   6.723   3.735  13.186
95751SOL    HW289151   6.820   3.803  13.280
95752SOL     OW89152   5.800  10.659   1.596
95752SOL    HW189153   5.733  10.592   1.581
95752SOL    HW289154   5.751  10.736   1.624
95753SOL     OW89155  14.431  14.772   2.317
95753SOL    HW189156  14.466  14.737   2.399
95753SOL    HW289157  14.351  14.721   2.302
95754SOL     OW89158   7.143   4.639   0.467
95754SOL    HW189159   7.214   4.665   0.409
95754SOL    HW289160   7.107   4.721   0.501
95755SOL     OW89161  10.203   1.331   9.080
95755SOL    HW189162  10.256   1.308   9.004
95755SOL    HW289163  10.223   1.423   9.096
95756SOL     OW89164   3.352  14.198   9.363
95756SOL    HW189165   3.339  14.173   9.272
95756SOL    HW289166   3.393  14.121   9.403
95757SOL     OW89167  12.719   2.617   3.734
95757SOL    HW189168  12.630   2.587   3.715
95757SOL    HW289169  12.774   2.541   3.718
95758SOL     OW89170   2.124   0.013   2.677
95758SOL    HW189171   2.091  14.844   2.757
95758SOL    HW289172   2.184   0.081   2.708
95759SOL     OW89173   4.247   3.239   8.796
95759SOL    HW189174   4.341   3.239   8.814
95759SOL    HW289175   4.221   3.147   8.805
95760SOL     OW89176  12.931   3.956   9.524
95760SOL    HW189177  12.967   4.027   9.576
95760SOL    HW289178  12.847   3.937   9.564
95761SOL     OW89179   9.321   8.719   7.282
95761SOL    HW189180   9.264   8.682   7.350
95761SOL    HW289181   9.260   8.744   7.212
95762SOL     OW89182   1.188   4.026   6.460
95762SOL    HW189183   1.180   4.003   6.367
95762SOL    HW289184   1.282   4.039   6.473
95763SOL     OW89185   1.502   2.833   0.182
95763SOL    HW189186   1.420   2.813   0.229
95763SOL    HW289187   1.560   2.760   0.204
95764SOL     OW89188  10.472   8.597   2.150
95764SOL    HW189189  10.488   8.554   2.234
95764SOL    HW289190  10.393   8.555   2.117
95765SOL     OW89191   2.334   2.592  12.626
95765SOL    HW189192   2.259   2.606  12.567
95765SOL    HW289193   2.345   2.675  12.671
95766SOL     OW89194   7.311  14.183   6.348
95766SOL    HW189195   7.236  14.179   6.407
95766SOL    HW289196   7.345  14.272   6.358
95767SOL     OW89197  11.221  12.356   5.659
95767SOL    HW189198  11.139  12.325   5.698
95767SOL    HW289199  11.289  12.301   5.700
95768SOL     OW89200   3.088   7.027  13.826
95768SOL    HW189201   3.137   6.985  13.755
95768SOL    HW289202   3.025   6.960  13.854
95769SOL     OW89203  13.022  10.558   1.007
95769SOL    HW189204  13.058  10.624   0.947
95769SOL    HW289205  13.100  10.513   1.041
95770SOL     OW89206   8.732   5.537   6.410
95770SOL    HW189207   8.758   5.466   6.351
95770SOL    HW289208   8.637   5.539   6.405
95771SOL     OW89209  11.790  14.599   4.284
95771SOL    HW189210  11.826  14.655   4.215
95771SOL    HW289211  11.696  14.597   4.267
95772SOL     OW89212   3.340   4.164  11.303
95772SOL    HW189213   3.290   4.195  11.378
95772SOL    HW289214   3.308   4.075  11.288
95773SOL     OW89215  12.554   6.987   1.558
95773SOL    HW189216  12.561   7.073   1.517
95773SOL    HW289217  12.464   6.983   1.589
95774SOL     OW89218   5.634   2.573   6.774
95774SOL    HW189219   5.635   2.652   6.720
95774SOL    HW289220   5.618   2.501   6.712
95775SOL     OW89221  10.452   5.586   6.934
95775SOL    HW189222  10.398   5.507   6.936
95775SOL    HW289223  10.401   5.651   6.982
95776SOL     OW89224   7.194   5.629   0.055
95776SOL    HW189225   7.174   5.550   0.005
95776SOL    HW289226   7.221   5.693  14.862
95777SOL     OW89227  10.189   5.559   9.313
95777SOL    HW189228  10.118   5.522   9.260
95777SOL    HW289229  10.269   5.522   9.276
95778SOL     OW89230   6.894   1.179   6.251
95778SOL    HW189231   6.862   1.093   6.277
95778SOL    HW289232   6.882   1.181   6.156
95779SOL     OW89233   6.589  11.550   7.845
95779SOL    HW189234   6.583  11.631   7.795
95779SOL    HW289235   6.502  11.537   7.881
95780SOL     OW89236   7.883  13.994   8.433
95780SOL    HW189237   7.903  13.930   8.501
95780SOL    HW289238   7.950  14.062   8.444
95781SOL     OW89239  11.041   2.190  12.819
95781SOL    HW189240  11.085   2.110  12.790
95781SOL    HW289241  11.038   2.245  12.740
95782SOL     OW89242  12.887   6.026   4.063
95782SOL    HW189243  12.825   5.952   4.064
95782SOL    HW289244  12.938   6.015   4.143
95783SOL     OW89245   1.585   3.325   0.253
95783SOL    HW189246   1.674   3.357   0.271
95783SOL    HW289247   1.598   3.240   0.212
95784SOL     OW89248   1.111   0.131   3.792
95784SOL    HW189249   1.158   0.152   3.711
95784SOL    HW289250   1.139   0.042   3.814
95785SOL     OW89251   7.170  14.055   3.342
95785SOL    HW189252   7.131  13.973   3.313
95785SOL    HW289253   7.099  14.101   3.388
95786SOL     OW89254  10.789  12.734   8.319
95786SOL    HW189255  10.816  12.762   8.407
95786SOL    HW289256  10.695  12.751   8.317
95787SOL     OW89257   2.403   1.661   4.139
95787SOL    HW189258   2.345   1.596   4.179
95787SOL    HW289259   2.466   1.610   4.089
95788SOL     OW89260  14.431   4.568   7.977
95788SOL    HW189261  14.353   4.619   8.000
95788SOL    HW289262  14.454   4.521   8.057
95789SOL     OW89263   3.612   8.114  13.467
95789SOL    HW189264   3.629   8.208  13.453
95789SOL    HW289265   3.517   8.106  13.458
95790SOL     OW89266  10.252  10.896   5.190
95790SOL    HW189267  10.232  10.804   5.173
95790SOL    HW289268  10.216  10.942   5.114
95791SOL     OW89269   0.879  11.152  10.717
95791SOL    HW189270   0.861  11.198  10.635
95791SOL    HW289271   0.877  11.219  10.784
95792SOL     OW89272   8.116  13.564   6.969
95792SOL    HW189273   8.166  13.566   6.887
95792SOL    HW289274   8.035  13.611   6.948
95793SOL     OW89275   0.464   0.400   1.180
95793SOL    HW189276   0.459   0.475   1.121
95793SOL    HW289277   0.455   0.324   1.123
95794SOL     OW89278   5.587  12.928  12.098
95794SOL    HW189279   5.507  12.974  12.074
95794SOL    HW289280   5.639  12.925  12.018
95795SOL     OW89281   6.428   6.377   3.250
95795SOL    HW189282   6.433   6.459   3.298
95795SOL    HW289283   6.474   6.314   3.307
95796SOL     OW89284   0.440   4.834   7.443
95796SOL    HW189285   0.438   4.802   7.534
95796SOL    HW289286   0.369   4.897   7.438
95797SOL     OW89287   3.865  11.389   4.064
95797SOL    HW189288   3.809  11.457   4.103
95797SOL    HW289289   3.948  11.433   4.049
95798SOL     OW89290   3.546   3.031   4.447
95798SOL    HW189291   3.509   3.074   4.370
95798SOL    HW289292   3.630   3.075   4.462
95799SOL     OW89293   9.508   6.106   1.371
95799SOL    HW189294   9.559   6.025   1.369
95799SOL    HW289295   9.417   6.078   1.370
95800SOL     OW89296   4.996   8.570   4.012
95800SOL    HW189297   5.033   8.482   4.012
95800SOL    HW289298   5.014   8.603   3.923
95801SOL     OW89299  13.303   3.317   1.962
95801SOL    HW189300  13.304   3.224   1.941
95801SOL    HW289301  13.216   3.347   1.935
95802SOL     OW89302   5.887   2.240   7.861
95802SOL    HW189303   5.809   2.258   7.808
95802SOL    HW289304   5.901   2.145   7.852
95803SOL     OW89305   7.867   2.991   1.475
95803SOL    HW189306   7.916   3.060   1.431
95803SOL    HW289307   7.833   2.937   1.405
95804SOL     OW89308  11.297   0.332  14.530
95804SOL    HW189309  11.378   0.363  14.490
95804SOL    HW289310  11.253   0.284  14.460
95805SOL     OW89311   3.838   9.823   0.670
95805SOL    HW189312   3.893   9.824   0.592
95805SOL    HW289313   3.896   9.794   0.740
95806SOL     OW89314   1.563   8.561   1.009
95806SOL    HW189315   1.479   8.566   0.964
95806SOL    HW289316   1.545   8.511   1.089
95807SOL     OW89317   2.807   2.454   5.658
95807SOL    HW189318   2.798   2.515   5.731
95807SOL    HW289319   2.797   2.367   5.697
95808SOL     OW89320   9.617  14.059  12.147
95808SOL    HW189321   9.657  13.979  12.113
95808SOL    HW289322   9.527  14.034  12.168
95809SOL     OW89323  10.226   6.013   8.338
95809SOL    HW189324  10.198   6.095   8.299
95809SOL    HW289325  10.149   5.957   8.333
95810SOL     OW89326   0.790   4.430   5.134
95810SOL    HW189327   0.706   4.434   5.088
95810SOL    HW289328   0.856   4.432   5.065
95811SOL     OW89329   1.871  12.379   2.997
95811SOL    HW189330   1.912  12.462   3.017
95811SOL    HW289331   1.940  12.327   2.956
95812SOL     OW89332   2.945   3.438   6.289
95812SOL    HW189333   3.019   3.484   6.249
95812SOL    HW289334   2.910   3.500   6.352
95813SOL     OW89335  10.328   9.722  14.465
95813SOL    HW189336  10.238   9.751  14.450
95813SOL    HW289337  10.369   9.792  14.516
95814SOL     OW89338   5.296  14.797   2.670
95814SOL    HW189339   5.324  14.735   2.738
95814SOL    HW289340   5.359  14.869   2.677
95815SOL     OW89341   6.472   9.447   7.594
95815SOL    HW189342   6.379   9.430   7.608
95815SOL    HW289343   6.508   9.362   7.568
95816SOL     OW89344  13.531  12.598   7.462
95816SOL    HW189345  13.602  12.535   7.456
95816SOL    HW289346  13.469  12.558   7.523
95817SOL     OW89347   7.907   2.820   4.297
95817SOL    HW189348   7.850   2.873   4.352
95817SOL    HW289349   7.854   2.800   4.220
95818SOL     OW89350   0.402   9.498   5.176
95818SOL    HW189351   0.373   9.528   5.090
95818SOL    HW289352   0.401   9.577   5.231
95819SOL     OW89353  13.544  14.813   2.029
95819SOL    HW189354  13.486  14.762   2.085
95819SOL    HW289355  13.632  14.791   2.058
95820SOL     OW89356   4.126   3.477   9.181
95820SOL    HW189357   4.124   3.509   9.271
95820SOL    HW289358   4.219   3.476   9.158
95821SOL     OW89359  10.169   4.486  11.045
95821SOL    HW189360  10.149   4.533  11.125
95821SOL    HW289361  10.109   4.522  10.979
95822SOL     OW89362   9.875  12.790  12.250
95822SOL    HW189363   9.916  12.813  12.333
95822SOL    HW289364   9.944  12.745  12.201
95823SOL     OW89365   4.140  14.614   9.177
95823SOL    HW189366   4.069  14.627   9.115
95823SOL    HW289367   4.158  14.520   9.175
95824SOL     OW89368   3.775   8.403   9.589
95824SOL    HW189369   3.710   8.366   9.649
95824SOL    HW289370   3.809   8.328   9.540
95825SOL     OW89371  11.587   0.511  12.502
95825SOL    HW189372  11.648   0.470  12.441
95825SOL    HW289373  11.527   0.561  12.447
95826SOL     OW89374   0.685  11.227   7.681
95826SOL    HW189375   0.601  11.213   7.724
95826SOL    HW289376   0.684  11.170   7.604
95827SOL     OW89377  12.041   8.256  11.016
95827SOL    HW189378  12.067   8.164  11.023
95827SOL    HW289379  12.026   8.284  11.106
95828SOL     OW89380   0.502  14.361  14.030
95828SOL    HW189381   0.506  14.385  14.123
95828SOL    HW289382   0.593  14.363  14.000
95829SOL     OW89383   5.082  12.842  10.136
95829SOL    HW189384   5.131  12.865  10.215
95829SOL    HW289385   5.130  12.885  10.065
95830SOL     OW89386   6.871   9.621  10.122
95830SOL    HW189387   6.786   9.578  10.114
95830SOL    HW289388   6.859   9.681  10.196
95831SOL     OW89389   1.639  14.424  12.803
95831SOL    HW189390   1.596  14.508  12.818
95831SOL    HW289391   1.707  14.419  12.870
95832SOL     OW89392   4.607   1.612   0.616
95832SOL    HW189393   4.558   1.609   0.534
95832SOL    HW289394   4.669   1.539   0.610
95833SOL     OW89395   6.935   2.390  12.334
95833SOL    HW189396   7.028   2.374  12.347
95833SOL    HW289397   6.906   2.318  12.278
95834SOL     OW89398   5.380   2.637  13.649
95834SOL    HW189399   5.333   2.699  13.703
95834SOL    HW289400   5.472   2.661  13.658
95835SOL     OW89401   8.125   1.977   6.073
95835SOL    HW189402   8.129   2.068   6.101
95835SOL    HW289403   8.214   1.944   6.086
95836SOL     OW89404   4.554   0.585  12.210
95836SOL    HW189405   4.587   0.625  12.291
95836SOL    HW289406   4.563   0.491  12.225
95837SOL     OW89407   9.726   4.616   0.547
95837SOL    HW189408   9.745   4.703   0.583
95837SOL    HW289409   9.692   4.566   0.622
95838SOL     OW89410  10.184   7.132   1.294
95838SOL    HW189411  10.157   7.204   1.350
95838SOL    HW289412  10.103   7.085   1.274
95839SOL     OW89413   0.766  11.954  12.818
95839SOL    HW189414   0.736  12.040  12.789
95839SOL    HW289415   0.796  11.910  12.739
95840SOL     OW89416   4.889   5.703   2.490
95840SOL    HW189417   4.819   5.710   2.425
95840SOL    HW289418   4.928   5.617   2.474
95841SOL     OW89419   8.989  13.253  14.206
95841SOL    HW189420   9.029  13.201  14.136
95841SOL    HW289421   8.994  13.196  14.283
95842SOL     OW89422   6.270   5.164   6.560
95842SOL    HW189423   6.239   5.202   6.478
95842SOL    HW289424   6.191   5.128   6.600
95843SOL     OW89425  11.408   3.471  11.997
95843SOL    HW189426  11.364   3.464  11.913
95843SOL    HW289427  11.456   3.553  11.993
95844SOL     OW89428   3.163   3.192  14.750
95844SOL    HW189429   3.233   3.131  14.777
95844SOL    HW289430   3.203   3.279  14.760
95845SOL     OW89431  13.006   8.044   0.289
95845SOL    HW189432  13.034   7.953   0.300
95845SOL    HW289433  12.911   8.040   0.289
95846SOL     OW89434   9.324   7.697   6.295
95846SOL    HW189435   9.417   7.708   6.314
95846SOL    HW289436   9.293   7.785   6.274
95847SOL     OW89437   2.384  11.124  11.066
95847SOL    HW189438   2.360  11.166  10.984
95847SOL    HW289439   2.353  11.185  11.134
95848SOL     OW89440   2.589   8.340   0.095
95848SOL    HW189441   2.590   8.296   0.181
95848SOL    HW289442   2.504   8.384   0.092
95849SOL     OW89443  10.897   4.956   6.863
95849SOL    HW189444  10.859   4.872   6.836
95849SOL    HW289445  10.991   4.944   6.853
95850SOL     OW89446  13.837   4.637   5.835
95850SOL    HW189447  13.862   4.550   5.803
95850SOL    HW289448  13.815   4.623   5.928
95851SOL     OW89449   6.528   9.164   6.931
95851SOL    HW189450   6.510   9.253   6.903
95851SOL    HW289451   6.554   9.172   7.023
95852SOL     OW89452   1.759   7.945  12.602
95852SOL    HW189453   1.698   7.879  12.636
95852SOL    HW289454   1.746   8.020  12.660
95853SOL     OW89455  13.242  11.864   2.673
95853SOL    HW189456  13.177  11.812   2.719
95853SOL    HW289457  13.198  11.893   2.593
95854SOL     OW89458   9.940   3.382   8.270
95854SOL    HW189459   9.858   3.338   8.246
95854SOL    HW289460   9.984   3.399   8.187
95855SOL     OW89461   9.238   5.840   4.395
95855SOL    HW189462   9.170   5.778   4.369
95855SOL    HW289463   9.227   5.915   4.336
95856SOL     OW89464   4.558  14.027   6.980
95856SOL    HW189465   4.588  13.951   6.930
95856SOL    HW289466   4.602  14.017   7.065
95857SOL     OW89467  13.882   7.368  10.745
95857SOL    HW189468  13.936   7.354  10.823
95857SOL    HW289469  13.805   7.415  10.779
95858SOL     OW89470   4.492  13.374   7.807
95858SOL    HW189471   4.489  13.306   7.873
95858SOL    HW289472   4.403  13.379   7.773
95859SOL     OW89473   7.597   7.170   9.421
95859SOL    HW189474   7.550   7.234   9.473
95859SOL    HW289475   7.538   7.095   9.415
95860SOL     OW89476   6.184   1.954   5.325
95860SOL    HW189477   6.113   1.893   5.347
95860SOL    HW289478   6.217   1.922   5.241
95861SOL     OW89479   8.689  12.862   7.961
95861SOL    HW189480   8.709  12.785   8.014
95861SOL    HW289481   8.685  12.934   8.024
95862SOL     OW89482   3.386  12.576   5.047
95862SOL    HW189483   3.428  12.562   5.132
95862SOL    HW289484   3.430  12.515   4.988
95863SOL     OW89485  11.859   5.714   6.192
95863SOL    HW189486  11.914   5.751   6.123
95863SOL    HW289487  11.915   5.651   6.237
95864SOL     OW89488   1.652   5.209  14.030
95864SOL    HW189489   1.629   5.207  13.937
95864SOL    HW289490   1.580   5.164  14.074
95865SOL     OW89491  10.245   7.822  13.159
95865SOL    HW189492  10.224   7.826  13.065
95865SOL    HW289493  10.159   7.814  13.202
95866SOL     OW89494  13.050   4.285  11.784
95866SOL    HW189495  13.052   4.348  11.856
95866SOL    HW289496  13.091   4.207  11.820
95867SOL     OW89497  10.868   4.959   9.540
95867SOL    HW189498  10.866   4.883   9.481
95867SOL    HW289499  10.830   4.926   9.622
95868SOL     OW89500   2.131   1.262   9.142
95868SOL    HW189501   2.133   1.166   9.146
95868SOL    HW289502   2.197   1.290   9.205
95869SOL     OW89503   7.280   4.307   3.885
95869SOL    HW189504   7.222   4.258   3.943
95869SOL    HW289505   7.249   4.284   3.797
95870SOL     OW89506   8.742   7.748   8.076
95870SOL    HW189507   8.746   7.733   7.981
95870SOL    HW289508   8.758   7.662   8.115
95871SOL     OW89509   6.963  11.039  13.260
95871SOL    HW189510   6.973  11.092  13.339
95871SOL    HW289511   6.905  10.967  13.287
95872SOL     OW89512   9.096   6.698  10.287
95872SOL    HW189513   9.020   6.694  10.229
95872SOL    HW289514   9.073   6.763  10.353
95873SOL     OW89515   2.178  11.463   8.492
95873SOL    HW189516   2.091  11.424   8.483
95873SOL    HW289517   2.193  11.509   8.409
95874SOL     OW89518   2.706  14.243   1.257
95874SOL    HW189519   2.655  14.299   1.198
95874SOL    HW289520   2.757  14.304   1.310
95875SOL     OW89521   8.453  11.003   5.963
95875SOL    HW189522   8.368  10.964   5.987
95875SOL    HW289523   8.501  11.006   6.046
95876SOL     OW89524   0.711   5.351   2.545
95876SOL    HW189525   0.791   5.359   2.596
95876SOL    HW289526   0.735   5.385   2.458
95877SOL     OW89527   7.199   9.570   8.127
95877SOL    HW189528   7.287   9.534   8.119
95877SOL    HW289529   7.171   9.547   8.216
95878SOL     OW89530   2.577   4.005  14.623
95878SOL    HW189531   2.600   3.969  14.709
95878SOL    HW289532   2.593   4.099  14.631
95879SOL     OW89533  13.910   0.891   0.712
95879SOL    HW189534  13.826   0.925   0.682
95879SOL    HW289535  13.965   0.969   0.723
95880SOL     OW89536   9.628   7.522  12.522
95880SOL    HW189537   9.589   7.470  12.452
95880SOL    HW289538   9.560   7.585  12.546
95881SOL     OW89539   0.504  14.553  10.127
95881SOL    HW189540   0.446  14.591  10.193
95881SOL    HW289541   0.456  14.477  10.094
95882SOL     OW89542  12.385  11.812   9.666
95882SOL    HW189543  12.466  11.760   9.667
95882SOL    HW289544  12.364  11.821   9.574
95883SOL     OW89545   0.529   8.027  11.461
95883SOL    HW189546   0.491   8.091  11.400
95883SOL    HW289547   0.515   8.065  11.547
95884SOL     OW89548   5.713  13.749   5.858
95884SOL    HW189549   5.632  13.699   5.869
95884SOL    HW289550   5.771  13.715   5.926
95885SOL     OW89551   0.277   7.985   2.507
95885SOL    HW189552   0.259   8.047   2.436
95885SOL    HW289553   0.303   8.041   2.580
95886SOL     OW89554   3.361   1.311   0.115
95886SOL    HW189555   3.322   1.323   0.201
95886SOL    HW289556   3.411   1.392   0.101
95887SOL     OW89557  13.397   9.496  10.376
95887SOL    HW189558  13.332   9.520  10.443
95887SOL    HW289559  13.356   9.522  10.293
95888SOL     OW89560   9.383   3.905   4.157
95888SOL    HW189561   9.420   3.943   4.237
95888SOL    HW289562   9.293   3.937   4.155
95889SOL     OW89563  10.746  13.908   0.102
95889SOL    HW189564  10.665  13.901   0.152
95889SOL    HW289565  10.730  13.856   0.024
95890SOL     OW89566   1.948   1.942  11.910
95890SOL    HW189567   1.980   1.857  11.940
95890SOL    HW289568   1.895   1.921  11.833
95891SOL     OW89569   1.916   8.763   6.101
95891SOL    HW189570   1.954   8.761   6.189
95891SOL    HW289571   1.823   8.782   6.115
95892SOL     OW89572   6.438   6.836   3.915
95892SOL    HW189573   6.508   6.902   3.914
95892SOL    HW289574   6.440   6.801   4.004
95893SOL     OW89575   8.644   4.438  12.929
95893SOL    HW189576   8.726   4.445  12.977
95893SOL    HW289577   8.620   4.529  12.909
95894SOL     OW89578   7.796   5.031  13.341
95894SOL    HW189579   7.841   5.008  13.422
95894SOL    HW289580   7.790   5.126  13.342
95895SOL     OW89581   8.072   5.015   7.013
95895SOL    HW189582   7.994   5.024   6.958
95895SOL    HW289583   8.067   5.089   7.073
95896SOL     OW89584   1.892  11.246   8.728
95896SOL    HW189585   1.896  11.254   8.632
95896SOL    HW289586   1.826  11.179   8.743
95897SOL     OW89587   7.834   2.180  13.591
95897SOL    HW189588   7.812   2.126  13.515
95897SOL    HW289589   7.895   2.126  13.642
95898SOL     OW89590  12.266  13.564  10.663
95898SOL    HW189591  12.349  13.589  10.703
95898SOL    HW289592  12.202  13.570  10.734
95899SOL     OW89593   6.413   7.801  13.694
95899SOL    HW189594   6.498   7.819  13.656
95899SOL    HW289595   6.392   7.712  13.667
95900SOL     OW89596   3.440   3.924   8.498
95900SOL    HW189597   3.523   3.959   8.530
95900SOL    HW289598   3.441   3.832   8.525
95901SOL     OW89599  12.514  14.205  13.239
95901SOL    HW189600  12.594  14.152  13.239
95901SOL    HW289601  12.509  14.240  13.150
95902SOL     OW89602  10.085   9.590   4.306
95902SOL    HW189603  10.011   9.582   4.247
95902SOL    HW289604  10.116   9.680   4.292
95903SOL     OW89605  13.802   3.739   6.378
95903SOL    HW189606  13.745   3.718   6.452
95903SOL    HW289607  13.891   3.731   6.413
95904SOL     OW89608   8.386   4.382  13.751
95904SOL    HW189609   8.456   4.333  13.709
95904SOL    HW289610   8.406   4.377  13.845
95905SOL     OW89611   0.670   7.494  12.439
95905SOL    HW189612   0.756   7.517  12.474
95905SOL    HW289613   0.617   7.476  12.516
95906SOL     OW89614  12.496   1.702   7.305
95906SOL    HW189615  12.449   1.706   7.221
95906SOL    HW289616  12.581   1.665   7.283
95907SOL     OW89617   9.014  10.643   6.211
95907SOL    HW189618   9.030  10.655   6.305
95907SOL    HW289619   9.094  10.603   6.178
95908SOL     OW89620   9.957  13.456   7.909
95908SOL    HW189621   9.970  13.396   7.836
95908SOL    HW289622  10.045  13.471   7.944
95909SOL     OW89623  10.688  12.629   7.560
95909SOL    HW189624  10.731  12.653   7.478
95909SOL    HW289625  10.643  12.546   7.541
95910SOL     OW89626  14.328   1.711  11.985
95910SOL    HW189627  14.356   1.684  11.898
95910SOL    HW289628  14.268   1.784  11.969
95911SOL     OW89629   9.578   3.208   9.276
95911SOL    HW189630   9.525   3.288   9.269
95911SOL    HW289631   9.530   3.143   9.225
95912SOL     OW89632   5.615   8.874  14.417
95912SOL    HW189633   5.561   8.824  14.355
95912SOL    HW289634   5.705   8.861  14.387
95913SOL     OW89635  11.542  10.570   3.868
95913SOL    HW189636  11.590  10.571   3.951
95913SOL    HW289637  11.526  10.662   3.849
95914SOL     OW89638   4.470   4.274   5.348
95914SOL    HW189639   4.374   4.274   5.347
95914SOL    HW289640   4.494   4.184   5.325
95915SOL     OW89641   4.911   3.190  11.240
95915SOL    HW189642   5.003   3.216  11.232
95915SOL    HW289643   4.865   3.248  11.179
95916SOL     OW89644   7.672   4.380  13.330
95916SOL    HW189645   7.749   4.410  13.282
95916SOL    HW289646   7.608   4.359  13.263
95917SOL     OW89647   5.347   5.037   2.202
95917SOL    HW189648   5.440   5.050   2.182
95917SOL    HW289649   5.310   5.125   2.200
95918SOL     OW89650  10.782   4.701  11.827
95918SOL    HW189651  10.694   4.665  11.841
95918SOL    HW289652  10.824   4.697  11.912
95919SOL     OW89653  10.619   4.703   9.120
95919SOL    HW189654  10.571   4.769   9.069
95919SOL    HW289655  10.659   4.647   9.053
95920SOL     OW89656  12.820   9.785   0.856
95920SOL    HW189657  12.870   9.717   0.812
95920SOL    HW289658  12.749   9.806   0.795
95921SOL     OW89659   7.819  14.087   9.308
95921SOL    HW189660   7.760  14.154   9.273
95921SOL    HW289661   7.773  14.005   9.292
95922SOL     OW89662   1.411  14.531   9.190
95922SOL    HW189663   1.318  14.530   9.210
95922SOL    HW289664   1.436  14.439   9.189
95923SOL     OW89665   3.264   0.248   0.955
95923SOL    HW189666   3.186   0.239   1.011
95923SOL    HW289667   3.229   0.257   0.867
95924SOL     OW89668   8.977   1.607   8.865
95924SOL    HW189669   8.930   1.683   8.830
95924SOL    HW289670   9.042   1.643   8.925
95925SOL     OW89671  10.860  13.162   1.804
95925SOL    HW189672  10.927  13.223   1.773
95925SOL    HW289673  10.870  13.085   1.748
95926SOL     OW89674   6.014  10.293   7.147
95926SOL    HW189675   5.931  10.253   7.120
95926SOL    HW289676   6.046  10.236   7.216
95927SOL     OW89677   6.034  11.371   4.529
95927SOL    HW189678   5.956  11.352   4.582
95927SOL    HW289679   6.016  11.457   4.490
95928SOL     OW89680   6.468   2.894   5.463
95928SOL    HW189681   6.506   2.963   5.516
95928SOL    HW289682   6.536   2.873   5.399
95929SOL     OW89683   9.873  13.271   4.156
95929SOL    HW189684   9.843  13.210   4.223
95929SOL    HW289685   9.835  13.355   4.181
95930SOL     OW89686  13.678   8.138  14.635
95930SOL    HW189687  13.631   8.183  14.565
95930SOL    HW289688  13.747   8.198  14.661
95931SOL     OW89689   4.595   2.501   2.016
95931SOL    HW189690   4.665   2.560   2.042
95931SOL    HW289691   4.585   2.441   2.090
95932SOL     OW89692   2.382   1.777   9.583
95932SOL    HW189693   2.335   1.861   9.581
95932SOL    HW289694   2.474   1.803   9.589
95933SOL     OW89695   9.401  12.787  14.589
95933SOL    HW189696   9.404  12.777  14.685
95933SOL    HW289697   9.316  12.753  14.564
95934SOL     OW89698   7.741   5.323   4.102
95934SOL    HW189699   7.786   5.248   4.141
95934SOL    HW289700   7.792   5.399   4.133
95935SOL     OW89701   9.287  13.916   8.756
95935SOL    HW189702   9.326  13.999   8.782
95935SOL    HW289703   9.195  13.937   8.740
95936SOL     OW89704  14.681   2.479   0.391
95936SOL    HW189705  14.758   2.428   0.366
95936SOL    HW289706  14.647   2.436   0.469
95937SOL     OW89707   4.319   3.979   6.329
95937SOL    HW189708   4.306   3.892   6.291
95937SOL    HW289709   4.414   3.988   6.334
95938SOL     OW89710   4.508   4.479   8.861
95938SOL    HW189711   4.468   4.399   8.828
95938SOL    HW289712   4.593   4.451   8.895
95939SOL     OW89713  12.450  12.109   4.863
95939SOL    HW189714  12.411  12.128   4.948
95939SOL    HW289715  12.490  12.022   4.875
95940SOL     OW89716  10.662   3.897   2.558
95940SOL    HW189717  10.703   3.939   2.482
95940SOL    HW289718  10.729   3.903   2.626
95941SOL     OW89719   3.518   8.738   8.855
95941SOL    HW189720   3.525   8.740   8.950
95941SOL    HW289721   3.479   8.823   8.832
95942SOL     OW89722   1.885   7.614  10.634
95942SOL    HW189723   1.853   7.526  10.616
95942SOL    HW289724   1.822   7.650  10.696
95943SOL     OW89725  10.400   6.742   8.859
95943SOL    HW189726  10.489   6.720   8.888
95943SOL    HW289727  10.406   6.833   8.830
95944SOL     OW89728  12.025  10.094   4.380
95944SOL    HW189729  12.091  10.026   4.366
95944SOL    HW289730  12.075  10.173   4.397
95945SOL     OW89731   8.833   0.291   0.163
95945SOL    HW189732   8.882   0.368   0.136
95945SOL    HW289733   8.743   0.309   0.134
95946SOL     OW89734   4.819  14.076   7.485
95946SOL    HW189735   4.728  14.049   7.471
95946SOL    HW289736   4.831  14.071   7.580
95947SOL     OW89737  12.078   0.004   5.736
95947SOL    HW189738  12.134   0.018   5.812
95947SOL    HW289739  12.023   0.083   5.733
95948SOL     OW89740  13.212   7.327   7.073
95948SOL    HW189741  13.130   7.352   7.115
95948SOL    HW289742  13.279   7.374   7.122
95949SOL     OW89743   1.203  12.213  12.542
95949SOL    HW189744   1.207  12.204  12.637
95949SOL    HW289745   1.291  12.241  12.516
95950SOL     OW89746   6.798   0.026   8.606
95950SOL    HW189747   6.794   0.102   8.548
95950SOL    HW289748   6.721  14.846   8.583
95951SOL     OW89749  13.336   1.674   9.670
95951SOL    HW189750  13.348   1.766   9.691
95951SOL    HW289751  13.327   1.630   9.754
95952SOL     OW89752   3.747   8.407   8.720
95952SOL    HW189753   3.837   8.441   8.722
95952SOL    HW289754   3.718   8.410   8.811
95953SOL     OW89755  14.050   1.187   2.370
95953SOL    HW189756  14.060   1.219   2.281
95953SOL    HW289757  14.137   1.155   2.394
95954SOL     OW89758   8.672   0.808   3.126
95954SOL    HW189759   8.691   0.803   3.033
95954SOL    HW289760   8.667   0.717   3.155
95955SOL     OW89761  10.064   7.146  12.033
95955SOL    HW189762  10.007   7.161  11.957
95955SOL    HW289763  10.153   7.162  11.999
95956SOL     OW89764  10.567   5.339  13.148
95956SOL    HW189765  10.505   5.319  13.078
95956SOL    HW289766  10.625   5.406  13.111
95957SOL     OW89767  14.624  14.345   5.041
95957SOL    HW189768  14.635  14.431   5.000
95957SOL    HW289769  14.703  14.296   5.017
95958SOL     OW89770  11.761   5.516   5.509
95958SOL    HW189771  11.746   5.584   5.575
95958SOL    HW289772  11.852   5.489   5.523
95959SOL     OW89773   9.062   5.937  12.927
95959SOL    HW189774   9.066   5.911  12.834
95959SOL    HW289775   9.000   6.010  12.929
95960SOL     OW89776   8.849  13.033  13.151
95960SOL    HW189777   8.937  13.042  13.189
95960SOL    HW289778   8.805  13.115  13.174
95961SOL     OW89779  13.005   8.424   9.676
95961SOL    HW189780  13.019   8.354   9.739
95961SOL    HW289781  13.071   8.410   9.609
95962SOL     OW89782   7.174   0.913  12.019
95962SOL    HW189783   7.140   0.846  12.078
95962SOL    HW289784   7.266   0.890  12.008
95963SOL     OW89785   1.599   8.908   9.831
95963SOL    HW189786   1.685   8.922   9.873
95963SOL    HW289787   1.550   8.988   9.850
95964SOL     OW89788  12.334   3.868   7.717
95964SOL    HW189789  12.338   3.774   7.734
95964SOL    HW289790  12.316   3.874   7.623
95965SOL     OW89791   7.233  12.384   3.359
95965SOL    HW189792   7.173  12.447   3.321
95965SOL    HW289793   7.320  12.414   3.334
95966SOL     OW89794   0.901   8.659   2.103
95966SOL    HW189795   0.897   8.674   2.008
95966SOL    HW289796   0.931   8.568   2.111
95967SOL     OW89797   1.641   8.562   4.738
95967SOL    HW189798   1.630   8.619   4.662
95967SOL    HW289799   1.559   8.513   4.743
95968SOL     OW89800   6.063   2.162  10.823
95968SOL    HW189801   6.094   2.239  10.775
95968SOL    HW289802   6.092   2.176  10.913
95969SOL     OW89803  10.941   0.525   2.306
95969SOL    HW189804  10.884   0.537   2.230
95969SOL    HW289805  11.016   0.476   2.272
95970SOL     OW89806   2.888  11.338   9.405
95970SOL    HW189807   2.868  11.347   9.498
95970SOL    HW289808   2.977  11.305   9.402
95971SOL     OW89809  10.021   2.542   6.517
95971SOL    HW189810  10.032   2.622   6.465
95971SOL    HW289811   9.926   2.531   6.525
95972SOL     OW89812   1.106  10.653   2.857
95972SOL    HW189813   1.023  10.681   2.895
95972SOL    HW289814   1.080  10.605   2.778
95973SOL     OW89815   4.137  11.221   7.199
95973SOL    HW189816   4.132  11.175   7.115
95973SOL    HW289817   4.229  11.218   7.223
95974SOL     OW89818   0.786  11.500   9.826
95974SOL    HW189819   0.719  11.526   9.890
95974SOL    HW289820   0.826  11.422   9.864
95975SOL     OW89821   6.571  13.062   9.080
95975SOL    HW189822   6.541  13.096   8.996
95975SOL    HW289823   6.582  12.968   9.066
95976SOL     OW89824  11.503   6.781  13.428
95976SOL    HW189825  11.589   6.805  13.394
95976SOL    HW289826  11.489   6.840  13.502
95977SOL     OW89827  14.371   0.326   7.435
95977SOL    HW189828  14.325   0.277   7.367
95977SOL    HW289829  14.308   0.390   7.467
95978SOL     OW89830  10.216  13.677  13.633
95978SOL    HW189831  10.186  13.766  13.611
95978SOL    HW289832  10.136  13.627  13.646
95979SOL     OW89833  11.090   4.545   5.559
95979SOL    HW189834  11.038   4.623   5.544
95979SOL    HW289835  11.031   4.484   5.604
95980SOL     OW89836  13.083  11.257  11.917
95980SOL    HW189837  13.098  11.327  11.981
95980SOL    HW289838  13.045  11.301  11.841
95981SOL     OW89839  12.294   5.578   4.630
95981SOL    HW189840  12.289   5.624   4.545
95981SOL    HW289841  12.202   5.567   4.656
95982SOL     OW89842  13.726   7.256  12.565
95982SOL    HW189843  13.778   7.279  12.642
95982SOL    HW289844  13.751   7.321  12.499
95983SOL     OW89845   4.697   7.047   2.877
95983SOL    HW189846   4.613   7.046   2.922
95983SOL    HW289847   4.683   7.101   2.800
95984SOL     OW89848  11.154  12.079  11.357
95984SOL    HW189849  11.193  12.012  11.300
95984SOL    HW289850  11.095  12.128  11.299
95985SOL     OW89851   0.051   7.317   8.090
95985SOL    HW189852   0.028   7.249   8.154
95985SOL    HW289853  14.868   7.391   8.113
95986SOL     OW89854   4.632  14.099   8.443
95986SOL    HW189855   4.622  14.135   8.531
95986SOL    HW289856   4.715  14.051   8.447
95987SOL     OW89857  11.480   9.167  14.277
95987SOL    HW189858  11.387   9.187  14.268
95987SOL    HW289859  11.492   9.086  14.229
95988SOL     OW89860  12.634   8.553   2.016
95988SOL    HW189861  12.662   8.599   1.937
95988SOL    HW289862  12.538   8.555   2.012
95989SOL     OW89863   5.439  12.796   8.652
95989SOL    HW189864   5.486  12.715   8.669
95989SOL    HW289865   5.373  12.801   8.721
95990SOL     OW89866   8.719   9.938   5.448
95990SOL    HW189867   8.715   9.955   5.354
95990SOL    HW289868   8.746  10.021   5.487
95991SOL     OW89869  10.017   9.521   9.329
95991SOL    HW189870   9.962   9.444   9.315
95991SOL    HW289871   9.977   9.566   9.404
95992SOL     OW89872  13.468  11.496   0.477
95992SOL    HW189873  13.529  11.528   0.410
95992SOL    HW289874  13.410  11.437   0.430
95993SOL     OW89875  11.437   6.515   7.513
95993SOL    HW189876  11.379   6.505   7.438
95993SOL    HW289877  11.518   6.470   7.488
95994SOL     OW89878   3.535   6.571   9.362
95994SOL    HW189879   3.449   6.611   9.374
95994SOL    HW289880   3.521   6.478   9.379
95995SOL     OW89881   5.747   0.467  10.733
95995SOL    HW189882   5.795   0.535  10.780
95995SOL    HW289883   5.707   0.414  10.802
95996SOL     OW89884   6.509   5.091  11.653
95996SOL    HW189885   6.545   5.113  11.739
95996SOL    HW289886   6.585   5.062  11.603
95997SOL     OW89887  14.394  11.618  10.741
95997SOL    HW189888  14.435  11.575  10.666
95997SOL    HW289889  14.466  11.630  10.803
95998SOL     OW89890   7.433  14.813   0.837
95998SOL    HW189891   7.414  14.806   0.744
95998SOL    HW289892   7.366   0.000   0.871
95999SOL     OW89893  12.350  11.919   3.063
95999SOL    HW189894  12.371  11.957   2.977
95999SOL    HW289895  12.365  11.990   3.125
96000SOL     OW89896   1.114  10.869   4.850
96000SOL    HW189897   1.190  10.860   4.793
96000SOL    HW289898   1.149  10.905   4.932
96001SOL     OW89899   1.885   7.719  11.293
96001SOL    HW189900   1.861   7.801  11.337
96001SOL    HW289901   1.946   7.746  11.224
96002SOL     OW89902   3.916   5.348  10.022
96002SOL    HW189903   3.836   5.395  10.001
96002SOL    HW289904   3.897   5.257   9.997
96003SOL     OW89905   2.763   8.825  11.409
96003SOL    HW189906   2.796   8.913  11.428
96003SOL    HW289907   2.713   8.834  11.328
96004SOL     OW89908   2.816  12.083   4.385
96004SOL    HW189909   2.839  11.991   4.403
96004SOL    HW289910   2.845  12.130   4.463
96005SOL     OW89911   8.467   5.635   9.090
96005SOL    HW189912   8.540   5.680   9.134
96005SOL    HW289913   8.510   5.574   9.029
96006SOL     OW89914  12.773   6.051   1.092
96006SOL    HW189915  12.694   6.098   1.069
96006SOL    HW289916  12.794   6.078   1.181
96007SOL     OW89917   0.874   0.804   7.617
96007SOL    HW189918   0.913   0.790   7.703
96007SOL    HW289919   0.933   0.760   7.556
96008SOL     OW89920   9.434   2.866   7.283
96008SOL    HW189921   9.467   2.829   7.365
96008SOL    HW289922   9.440   2.793   7.221
96009SOL     OW89923  11.402  13.707   7.428
96009SOL    HW189924  11.365  13.709   7.516
96009SOL    HW289925  11.325  13.699   7.371
96010SOL     OW89926   4.854   4.201   6.099
96010SOL    HW189927   4.788   4.205   6.029
96010SOL    HW289928   4.935   4.231   6.057
96011SOL     OW89929  14.637   0.227  12.850
96011SOL    HW189930  14.619   0.189  12.764
96011SOL    HW289931  14.576   0.183  12.909
96012SOL     OW89932  11.740  13.160   3.159
96012SOL    HW189933  11.796  13.100   3.208
96012SOL    HW289934  11.797  13.233   3.137
96013SOL     OW89935   0.358  10.895  10.869
96013SOL    HW189936   0.374  10.980  10.909
96013SOL    HW289937   0.319  10.842  10.939
96014SOL     OW89938   9.990  14.621   1.537
96014SOL    HW189939   9.939  14.702   1.526
96014SOL    HW289940  10.079  14.645   1.513
96015SOL     OW89941   0.491   6.596   1.584
96015SOL    HW189942   0.556   6.637   1.527
96015SOL    HW289943   0.417   6.576   1.527
96016SOL     OW89944  12.544   2.394   1.511
96016SOL    HW189945  12.506   2.384   1.424
96016SOL    HW289946  12.623   2.447   1.496
96017SOL     OW89947   5.532   9.064   8.458
96017SOL    HW189948   5.546   8.971   8.477
96017SOL    HW289949   5.620   9.102   8.457
96018SOL     OW89950   7.635   3.745   8.819
96018SOL    HW189951   7.682   3.814   8.773
96018SOL    HW289952   7.546   3.780   8.832
96019SOL     OW89953   6.442  10.695   5.970
96019SOL    HW189954   6.511  10.740   5.922
96019SOL    HW289955   6.488  10.636   6.029
96020SOL     OW89956  14.381   1.928   5.202
96020SOL    HW189957  14.392   1.959   5.112
96020SOL    HW289958  14.381   2.007   5.255
96021SOL     OW89959  11.826  14.528  14.495
96021SOL    HW189960  11.880  14.569  14.563
96021SOL    HW289961  11.787  14.452  14.537
96022SOL     OW89962   9.772   6.234   1.348
96022SOL    HW189963   9.803   6.168   1.286
96022SOL    HW289964   9.682   6.209   1.367
96023SOL     OW89965   5.038  14.751  12.967
96023SOL    HW189966   4.963  14.810  12.968
96023SOL    HW289967   5.093  14.783  12.895
96024SOL     OW89968  12.074   1.263   6.132
96024SOL    HW189969  12.166   1.249   6.155
96024SOL    HW289970  12.029   1.184   6.161
96025SOL     OW89971   6.426   5.682   8.927
96025SOL    HW189972   6.491   5.745   8.960
96025SOL    HW289973   6.342   5.725   8.939
96026SOL     OW89974   1.636   4.564   0.190
96026SOL    HW189975   1.702   4.511   0.235
96026SOL    HW289976   1.625   4.520   0.105
96027SOL     OW89977   3.908   2.315   0.751
96027SOL    HW189978   3.977   2.279   0.808
96027SOL    HW289979   3.829   2.268   0.776
96028SOL     OW89980   8.671   8.576   3.919
96028SOL    HW189981   8.717   8.502   3.880
96028SOL    HW289982   8.659   8.637   3.847
96029SOL     OW89983  12.763  11.129  11.874
96029SOL    HW189984  12.713  11.180  11.810
96029SOL    HW289985  12.826  11.191  11.911
96030SOL     OW89986   8.276   9.319   0.062
96030SOL    HW189987   8.210   9.343   0.127
96030SOL    HW289988   8.348   9.283   0.114
96031SOL     OW89989  11.745   4.500   1.385
96031SOL    HW189990  11.839   4.499   1.405
96031SOL    HW289991  11.718   4.408   1.389
96032SOL     OW89992  11.125  10.663   6.415
96032SOL    HW189993  11.190  10.734   6.414
96032SOL    HW289994  11.160  10.597   6.356
96033SOL     OW89995  14.061   9.889   2.163
96033SOL    HW189996  14.138   9.851   2.120
96033SOL    HW289997  14.050   9.974   2.121
96034SOL     OW89998   8.883   9.368   0.221
96034SOL    HW189999   8.954   9.330   0.170
96034SOL    HW290000   8.863   9.302   0.287
96035SOL     OW90001   1.600  14.377   7.856
96035SOL    HW190002   1.666  14.431   7.899
96035SOL    HW290003   1.580  14.423   7.775
96036SOL     OW90004   4.185  13.946  14.460
96036SOL    HW190005   4.225  14.006  14.523
96036SOL    HW290006   4.219  13.975  14.375
96037SOL     OW90007  10.149   0.763   1.202
96037SOL    HW190008  10.205   0.752   1.279
96037SOL    HW290009  10.060   0.757   1.237
96038SOL     OW90010   5.570   7.816   6.634
96038SOL    HW190011   5.520   7.800   6.555
96038SOL    HW290012   5.625   7.891   6.613
96039SOL     OW90013  11.951  12.363   7.078
96039SOL    HW190014  12.017  12.420   7.038
96039SOL    HW290015  12.001  12.286   7.108
96040SOL     OW90016   4.360   8.834   6.695
96040SOL    HW190017   4.268   8.810   6.681
96040SOL    HW290018   4.357   8.895   6.769
96041SOL     OW90019  13.680   2.573   8.438
96041SOL    HW190020  13.618   2.518   8.391
96041SOL    HW290021  13.690   2.531   8.523
96042SOL     OW90022  13.133   2.649  10.471
96042SOL    HW190023  13.194   2.583  10.438
96042SOL    HW290024  13.174   2.682  10.551
96043SOL     OW90025   3.512  12.872  13.136
96043SOL    HW190026   3.594  12.860  13.185
96043SOL    HW290027   3.537  12.859  13.044
96044SOL     OW90028   9.912   1.557   6.850
96044SOL    HW190029   9.845   1.594   6.793
96044SOL    HW290030   9.919   1.618   6.923
96045SOL     OW90031   9.021   0.433  13.020
96045SOL    HW190032   8.961   0.501  13.049
96045SOL    HW290033   9.099   0.480  12.990
96046SOL     OW90034  10.093   1.919   0.496
96046SOL    HW190035  10.116   1.983   0.429
96046SOL    HW290036   9.998   1.915   0.494
96047SOL     OW90037   6.662   5.089  13.758
96047SOL    HW190038   6.645   5.138  13.838
96047SOL    HW290039   6.621   5.140  13.688
96048SOL     OW90040   7.753   9.975   4.964
96048SOL    HW190041   7.765  10.048   5.025
96048SOL    HW290042   7.798   9.901   5.006
96049SOL     OW90043   0.737   2.546   8.729
96049SOL    HW190044   0.825   2.578   8.746
96049SOL    HW290045   0.687   2.623   8.704
96050SOL     OW90046  12.401   0.746   1.721
96050SOL    HW190047  12.318   0.771   1.680
96050SOL    HW290048  12.427   0.823   1.771
96051SOL     OW90049   9.622   7.319   8.516
96051SOL    HW190050   9.668   7.307   8.600
96051SOL    HW290051   9.688   7.358   8.458
96052SOL     OW90052   2.214   5.853   9.783
96052SOL    HW190053   2.143   5.840   9.846
96052SOL    HW290054   2.281   5.790   9.809
96053SOL     OW90055   2.953   0.153  10.922
96053SOL    HW190056   2.932   0.156  11.015
96053SOL    HW290057   2.952   0.245  10.894
96054SOL     OW90058   7.557   5.369   2.900
96054SOL    HW190059   7.493   5.360   2.830
96054SOL    HW290060   7.602   5.452   2.882
96055SOL     OW90061  12.623  13.046   0.877
96055SOL    HW190062  12.664  13.054   0.791
96055SOL    HW290063  12.546  13.103   0.872
96056SOL     OW90064  13.990  13.345  12.485
96056SOL    HW190065  14.032  13.397  12.416
96056SOL    HW290066  13.930  13.287  12.438
96057SOL     OW90067   8.264   1.545   9.489
96057SOL    HW190068   8.234   1.461   9.525
96057SOL    HW290069   8.184   1.595   9.475
96058SOL     OW90070  14.396  10.912   0.005
96058SOL    HW190071  14.429  11.001   0.014
96058SOL    HW290072  14.472  10.859  14.855
96059SOL     OW90073   4.314  11.038   0.288
96059SOL    HW190074   4.264  11.077   0.359
96059SOL    HW290075   4.372  11.108   0.257
96060SOL     OW90076   1.173   5.319  11.539
96060SOL    HW190077   1.103   5.303  11.476
96060SOL    HW290078   1.253   5.294  11.492
96061SOL     OW90079   9.400   1.376   8.539
96061SOL    HW190080   9.319   1.339   8.504
96061SOL    HW290081   9.467   1.313   8.515
96062SOL     OW90082   4.890  12.904   2.818
96062SOL    HW190083   4.931  12.862   2.743
96062SOL    HW290084   4.963  12.934   2.872
96063SOL     OW90085  14.645   7.263   7.055
96063SOL    HW190086  14.601   7.255   7.140
96063SOL    HW290087  14.722   7.207   7.063
96064SOL     OW90088   0.669  11.414   3.503
96064SOL    HW190089   0.683  11.353   3.430
96064SOL    HW290090   0.756  11.424   3.543
96065SOL     OW90091   8.516   0.886   4.844
96065SOL    HW190092   8.540   0.835   4.921
96065SOL    HW290093   8.423   0.868   4.830
96066SOL     OW90094   4.045  14.445  12.344
96066SOL    HW190095   4.015  14.354  12.343
96066SOL    HW290096   3.972  14.494  12.304
96067SOL     OW90097   4.896   4.670   2.280
96067SOL    HW190098   4.990   4.664   2.298
96067SOL    HW290099   4.886   4.638   2.191
96068SOL     OW90100   4.796   7.638  11.404
96068SOL    HW190101   4.756   7.564  11.358
96068SOL    HW290102   4.828   7.695  11.334
96069SOL     OW90103   3.177   4.836   9.415
96069SOL    HW190104   3.142   4.808   9.500
96069SOL    HW290105   3.221   4.758   9.381
96070SOL     OW90106   9.568   3.315   7.646
96070SOL    HW190107   9.507   3.252   7.687
96070SOL    HW290108   9.610   3.359   7.720
96071SOL     OW90109   6.663   4.221   6.777
96071SOL    HW190110   6.720   4.144   6.773
96071SOL    HW290111   6.634   4.225   6.868
96072SOL     OW90112  10.532   3.630   8.355
96072SOL    HW190113  10.538   3.550   8.303
96072SOL    HW290114  10.503   3.601   8.441
96073SOL     OW90115   8.067  13.509   5.653
96073SOL    HW190116   8.027  13.545   5.574
96073SOL    HW290117   8.132  13.447   5.621
96074SOL     OW90118   6.358   5.573  11.031
96074SOL    HW190119   6.416   5.583  10.956
96074SOL    HW290120   6.360   5.480  11.051
96075SOL     OW90121   5.841   6.506  13.244
96075SOL    HW190122   5.830   6.475  13.333
96075SOL    HW290123   5.806   6.436  13.189
96076SOL     OW90124   8.770   5.411   6.661
96076SOL    HW190125   8.684   5.370   6.672
96076SOL    HW290126   8.763   5.461   6.579
96077SOL     OW90127   7.415   5.697  12.677
96077SOL    HW190128   7.470   5.697  12.755
96077SOL    HW290129   7.464   5.749  12.613
96078SOL     OW90130   1.093   2.036   3.692
96078SOL    HW190131   1.035   2.102   3.654
96078SOL    HW290132   1.040   1.956   3.693
96079SOL     OW90133   4.660   9.598   8.060
96079SOL    HW190134   4.567   9.576   8.072
96079SOL    HW290135   4.690   9.624   8.147
96080SOL     OW90136   1.317   2.074  14.132
96080SOL    HW190137   1.361   2.137  14.075
96080SOL    HW290138   1.388   2.018  14.164
96081SOL     OW90139  12.198  12.588   7.867
96081SOL    HW190140  12.103  12.593   7.876
96081SOL    HW290141  12.223  12.511   7.918
96082SOL     OW90142   6.301   6.124   1.499
96082SOL    HW190143   6.210   6.143   1.476
96082SOL    HW290144   6.324   6.192   1.562
96083SOL     OW90145   3.198   0.332   4.249
96083SOL    HW190146   3.157   0.247   4.264
96083SOL    HW290147   3.249   0.321   4.169
96084SOL     OW90148  14.345  11.829  10.444
96084SOL    HW190149  14.292  11.823  10.523
96084SOL    HW290150  14.347  11.740  10.410
96085SOL     OW90151   6.297   2.517   3.573
96085SOL    HW190152   6.243   2.442   3.600
96085SOL    HW290153   6.235   2.590   3.567
96086SOL     OW90154   0.713   9.046   7.804
96086SOL    HW190155   0.694   9.073   7.894
96086SOL    HW290156   0.700   8.951   7.804
96087SOL     OW90157  10.308   9.469  14.533
96087SOL    HW190158  10.352   9.554  14.526
96087SOL    HW290159  10.224   9.482  14.489
96088SOL     OW90160   3.395   4.337  11.719
96088SOL    HW190161   3.387   4.338  11.624
96088SOL    HW290162   3.345   4.413  11.749
96089SOL     OW90163   6.896   3.261  10.951
96089SOL    HW190164   6.960   3.203  10.994
96089SOL    HW290165   6.924   3.264  10.860
96090SOL     OW90166   3.946  10.997   1.016
96090SOL    HW190167   3.941  10.904   0.992
96090SOL    HW290168   3.854  11.026   1.016
96091SOL     OW90169   0.535  11.807  12.460
96091SOL    HW190170   0.511  11.855  12.539
96091SOL    HW290171   0.626  11.781  12.475
96092SOL     OW90172   6.964   8.380   0.132
96092SOL    HW190173   6.983   8.443   0.063
96092SOL    HW290174   7.042   8.325   0.136
96093SOL     OW90175   1.464   1.090   5.261
96093SOL    HW190176   1.417   1.035   5.324
96093SOL    HW290177   1.395   1.135   5.212
96094SOL     OW90178   4.732  14.419   6.850
96094SOL    HW190179   4.708  14.471   6.927
96094SOL    HW290180   4.657  14.362   6.835
96095SOL     OW90181   7.049  11.018   3.573
96095SOL    HW190182   7.052  11.012   3.668
96095SOL    HW290183   6.985  10.952   3.546
96096SOL     OW90184   2.209   8.123  13.395
96096SOL    HW190185   2.184   8.045  13.346
96096SOL    HW290186   2.174   8.109  13.483
96097SOL     OW90187  10.809   8.832   0.648
96097SOL    HW190188  10.734   8.785   0.684
96097SOL    HW290189  10.816   8.799   0.558
96098SOL     OW90190   6.941  12.986   1.439
96098SOL    HW190191   6.851  12.983   1.408
96098SOL    HW290192   6.935  12.969   1.533
96099SOL     OW90193   3.959  14.802  11.237
96099SOL    HW190194   3.931  14.735  11.174
96099SOL    HW290195   3.956  14.758  11.322
96100SOL     OW90196   1.359  12.994   5.222
96100SOL    HW190197   1.266  12.982   5.242
96100SOL    HW290198   1.365  12.979   5.128
96101SOL     OW90199  14.064  11.903  13.066
96101SOL    HW190200  13.977  11.864  13.059
96101SOL    HW290201  14.121  11.841  13.019
96102SOL     OW90202   5.341   7.435   7.113
96102SOL    HW190203   5.423   7.425   7.160
96102SOL    HW290204   5.301   7.348   7.114
96103SOL     OW90205   4.323   8.998   9.260
96103SOL    HW190206   4.391   9.053   9.299
96103SOL    HW290207   4.246   9.012   9.316
96104SOL     OW90208   8.557   8.302   2.808
96104SOL    HW190209   8.482   8.321   2.752
96104SOL    HW290210   8.629   8.284   2.747
96105SOL     OW90211  13.548   5.613   5.692
96105SOL    HW190212  13.527   5.525   5.723
96105SOL    HW290213  13.594   5.600   5.610
96106SOL     OW90214   4.498  14.278   7.739
96106SOL    HW190215   4.450  14.253   7.817
96106SOL    HW290216   4.468  14.218   7.671
96107SOL     OW90217  12.957   7.139   5.739
96107SOL    HW190218  12.909   7.166   5.818
96107SOL    HW290219  12.890   7.136   5.670
96108SOL     OW90220   9.940   5.913   7.551
96108SOL    HW190221   9.922   5.994   7.504
96108SOL    HW290222  10.030   5.891   7.526
96109SOL     OW90223  11.679  11.679   9.551
96109SOL    HW190224  11.666  11.664   9.457
96109SOL    HW290225  11.759  11.731   9.556
96110SOL     OW90226   8.633   1.313  12.824
96110SOL    HW190227   8.724   1.310  12.796
96110SOL    HW290228   8.634   1.368  12.903
96111SOL     OW90229   5.465  12.423  12.877
96111SOL    HW190230   5.387  12.479  12.875
96111SOL    HW290231   5.477  12.402  12.969
96112SOL     OW90232   9.016   0.375   1.695
96112SOL    HW190233   8.950   0.413   1.753
96112SOL    HW290234   9.032   0.288   1.731
96113SOL     OW90235   6.903   1.685   7.030
96113SOL    HW190236   6.835   1.641   7.082
96113SOL    HW290237   6.854   1.748   6.977
96114SOL     OW90238   3.625   6.649   1.170
96114SOL    HW190239   3.644   6.741   1.190
96114SOL    HW290240   3.700   6.601   1.206
96115SOL     OW90241  13.511  12.695   2.052
96115SOL    HW190242  13.465  12.738   1.980
96115SOL    HW290243  13.443  12.653   2.103
96116SOL     OW90244  11.313  13.019  13.209
96116SOL    HW190245  11.404  13.045  13.223
96116SOL    HW290246  11.283  13.076  13.137
96117SOL     OW90247   0.631   4.554   7.778
96117SOL    HW190248   0.621   4.575   7.870
96117SOL    HW290249   0.716   4.592   7.753
96118SOL     OW90250   5.833   4.360   2.650
96118SOL    HW190251   5.912   4.343   2.599
96118SOL    HW290252   5.836   4.454   2.667
96119SOL     OW90253  12.675   1.592   5.806
96119SOL    HW190254  12.770   1.585   5.790
96119SOL    HW290255  12.640   1.507   5.780
96120SOL     OW90256   0.804  11.677   5.288
96120SOL    HW190257   0.836  11.621   5.216
96120SOL    HW290258   0.735  11.730   5.249
96121SOL     OW90259   2.208  10.468   4.411
96121SOL    HW190260   2.194  10.440   4.320
96121SOL    HW290261   2.162  10.402   4.463
96122SOL     OW90262   6.203   8.486  13.970
96122SOL    HW190263   6.279   8.509  14.024
96122SOL    HW290264   6.131   8.536  14.007
96123SOL     OW90265  10.751  12.230  11.837
96123SOL    HW190266  10.688  12.248  11.907
96123SOL    HW290267  10.831  12.274  11.866
96124SOL     OW90268  14.545  13.226   2.763
96124SOL    HW190269  14.592  13.143   2.757
96124SOL    HW290270  14.586  13.282   2.697
96125SOL     OW90271  11.839   2.550  10.708
96125SOL    HW190272  11.759   2.603  10.713
96125SOL    HW290273  11.909   2.613  10.690
96126SOL     OW90274   8.343  11.310   9.668
96126SOL    HW190275   8.408  11.367   9.627
96126SOL    HW290276   8.268  11.312   9.608
96127SOL     OW90277   8.271   8.575  11.139
96127SOL    HW190278   8.219   8.499  11.166
96127SOL    HW290279   8.328   8.593  11.213
96128SOL     OW90280  10.668  14.645   9.023
96128SOL    HW190281  10.655  14.681   9.110
96128SOL    HW290282  10.623  14.560   9.025
96129SOL     OW90283   1.115   4.277   6.562
96129SOL    HW190284   1.150   4.197   6.600
96129SOL    HW290285   1.115   4.261   6.468
96130SOL     OW90286   9.476   3.938   6.975
96130SOL    HW190287   9.486   3.843   6.968
96130SOL    HW290288   9.391   3.951   7.017
96131SOL     OW90289  11.940   3.954  13.775
96131SOL    HW190290  11.917   3.868  13.737
96131SOL    HW290291  12.023   3.939  13.820
96132SOL     OW90292   1.780   9.202  10.237
96132SOL    HW190293   1.694   9.171  10.206
96132SOL    HW290294   1.810   9.260  10.167
96133SOL     OW90295  14.123   9.965  13.080
96133SOL    HW190296  14.132  10.059  13.063
96133SOL    HW290297  14.080   9.960  13.166
96134SOL     OW90298   6.730  13.204   1.338
96134SOL    HW190299   6.717  13.297   1.323
96134SOL    HW290300   6.713  13.163   1.253
96135SOL     OW90301   2.140   4.638   3.291
96135SOL    HW190302   2.132   4.550   3.255
96135SOL    HW290303   2.206   4.629   3.361
96136SOL     OW90304   3.287   6.030  14.528
96136SOL    HW190305   3.364   6.004  14.478
96136SOL    HW290306   3.226   5.958  14.517
96137SOL     OW90307   4.198  14.150   9.923
96137SOL    HW190308   4.174  14.194   9.842
96137SOL    HW290309   4.207  14.220   9.987
96138SOL     OW90310  12.982  10.331  12.890
96138SOL    HW190311  12.980  10.303  12.981
96138SOL    HW290312  13.037  10.266  12.846
96139SOL     OW90313  11.534   2.478   0.719
96139SOL    HW190314  11.499   2.438   0.799
96139SOL    HW290315  11.587   2.409   0.679
96140SOL     OW90316   1.709  11.185   4.168
96140SOL    HW190317   1.750  11.263   4.206
96140SOL    HW290318   1.713  11.119   4.237
96141SOL     OW90319  11.429   6.483   9.986
96141SOL    HW190320  11.466   6.567   9.960
96141SOL    HW290321  11.409   6.438   9.904
96142SOL     OW90322  14.212   8.240  14.658
96142SOL    HW190323  14.308   8.237  14.657
96142SOL    HW290324  14.186   8.148  14.649
96143SOL     OW90325   1.440   0.334   4.200
96143SOL    HW190326   1.488   0.255   4.176
96143SOL    HW290327   1.348   0.314   4.183
96144SOL     OW90328  13.424  11.568   2.307
96144SOL    HW190329  13.475  11.621   2.245
96144SOL    HW290330  13.333  11.590   2.288
96145SOL     OW90331   6.393  10.657   3.836
96145SOL    HW190332   6.328  10.610   3.888
96145SOL    HW290333   6.368  10.749   3.843
96146SOL     OW90334   5.851   1.159  13.713
96146SOL    HW190335   5.844   1.067  13.687
96146SOL    HW290336   5.833   1.208  13.632
96147SOL     OW90337   0.724   2.687   7.405
96147SOL    HW190338   0.694   2.636   7.329
96147SOL    HW290339   0.648   2.739   7.431
96148SOL     OW90340   3.895   8.811  10.913
96148SOL    HW190341   3.890   8.856  10.997
96148SOL    HW290342   3.916   8.879  10.849
96149SOL     OW90343   3.385   1.809   8.311
96149SOL    HW190344   3.342   1.732   8.275
96149SOL    HW290345   3.319   1.849   8.368
96150SOL     OW90346   4.690   3.369   3.283
96150SOL    HW190347   4.742   3.391   3.206
96150SOL    HW290348   4.680   3.452   3.330
96151SOL     OW90349   6.046   8.445   2.214
96151SOL    HW190350   6.036   8.540   2.209
96151SOL    HW290351   5.962   8.410   2.186
96152SOL     OW90352   5.541  11.146  13.291
96152SOL    HW190353   5.449  11.160  13.267
96152SOL    HW290354   5.581  11.232  13.284
96153SOL     OW90355  11.969   2.755   4.205
96153SOL    HW190356  12.058   2.784   4.186
96153SOL    HW290357  11.962   2.670   4.160
96154SOL     OW90358   7.278   3.229   5.212
96154SOL    HW190359   7.270   3.150   5.159
96154SOL    HW290360   7.370   3.234   5.235
96155SOL     OW90361   7.988   5.453  12.284
96155SOL    HW190362   7.935   5.376  12.306
96155SOL    HW290363   8.019   5.436  12.195
96156SOL     OW90364  13.728   6.308   5.804
96156SOL    HW190365  13.667   6.238   5.828
96156SOL    HW290366  13.770   6.277   5.724
96157SOL     OW90367   0.100   0.684  13.492
96157SOL    HW190368   0.103   0.590  13.512
96157SOL    HW290369   0.065   0.688  13.403
96158SOL     OW90370   1.233  13.587  12.156
96158SOL    HW190371   1.197  13.560  12.071
96158SOL    HW290372   1.186  13.667  12.177
96159SOL     OW90373   8.806  11.527  13.643
96159SOL    HW190374   8.747  11.453  13.660
96159SOL    HW290375   8.750  11.595  13.607
96160SOL     OW90376  12.200  13.337  14.652
96160SOL    HW190377  12.277  13.334  14.596
96160SOL    HW290378  12.234  13.344  14.741
96161SOL     OW90379   2.726   4.282   4.209
96161SOL    HW190380   2.681   4.199   4.217
96161SOL    HW290381   2.675   4.331   4.144
96162SOL     OW90382   7.136  10.192  11.920
96162SOL    HW190383   7.200  10.121  11.926
96162SOL    HW290384   7.181  10.269  11.954
96163SOL     OW90385  13.693   6.233   3.510
96163SOL    HW190386  13.729   6.321   3.495
96163SOL    HW290387  13.639   6.242   3.588
96164SOL     OW90388  10.353   1.286  10.480
96164SOL    HW190389  10.425   1.348  10.476
96164SOL    HW290390  10.293   1.322  10.545
96165SOL     OW90391   0.483   4.648   5.805
96165SOL    HW190392   0.498   4.739   5.776
96165SOL    HW290393   0.407   4.654   5.863
96166SOL     OW90394   5.423  13.844   9.901
96166SOL    HW190395   5.462  13.830   9.815
96166SOL    HW290396   5.494  13.825   9.963
96167SOL     OW90397   7.615   1.632   7.826
96167SOL    HW190398   7.621   1.642   7.921
96167SOL    HW290399   7.692   1.580   7.803
96168SOL     OW90400   6.425  12.952   7.580
96168SOL    HW190401   6.354  12.948   7.644
96168SOL    HW290402   6.498  12.909   7.623
96169SOL     OW90403  14.372   2.299  13.888
96169SOL    HW190404  14.346   2.231  13.949
96169SOL    HW290405  14.297   2.359  13.885
96170SOL     OW90406  12.315   5.356  11.011
96170SOL    HW190407  12.285   5.276  11.053
96170SOL    HW290408  12.395   5.380  11.059
96171SOL     OW90409   4.948   4.827   9.579
96171SOL    HW190410   5.002   4.905   9.589
96171SOL    HW290411   4.993   4.760   9.630
96172SOL     OW90412   0.068  11.701   6.259
96172SOL    HW190413  14.855  11.744   6.270
96172SOL    HW290414   0.085  11.707   6.164
96173SOL     OW90415  11.333  12.363   4.364
96173SOL    HW190416  11.296  12.441   4.404
96173SOL    HW290417  11.400  12.395   4.304
96174SOL     OW90418  12.861   2.003   1.354
96174SOL    HW190419  12.766   1.987   1.351
96174SOL    HW290420  12.871   2.075   1.416
96175SOL     OW90421   7.404  11.702   6.001
96175SOL    HW190422   7.464  11.630   5.978
96175SOL    HW290423   7.317  11.665   5.987
96176SOL     OW90424  12.147   0.757  13.868
96176SOL    HW190425  12.103   0.802  13.940
96176SOL    HW290426  12.234   0.797  13.865
96177SOL     OW90427  12.044   1.302  12.627
96177SOL    HW190428  12.052   1.235  12.560
96177SOL    HW290429  12.134   1.328  12.647
96178SOL     OW90430  10.788   3.249   8.005
96178SOL    HW190431  10.698   3.238   7.973
96178SOL    HW290432  10.820   3.160   8.016
96179SOL     OW90433   6.774   9.756  12.285
96179SOL    HW190434   6.693   9.727  12.242
96179SOL    HW290435   6.770   9.717  12.372
96180SOL     OW90436   6.018   6.649   5.906
96180SOL    HW190437   6.062   6.613   5.829
96180SOL    HW290438   6.090   6.683   5.960
96181SOL     OW90439  11.802  11.358   0.158
96181SOL    HW190440  11.773  11.373   0.248
96181SOL    HW290441  11.721  11.335   0.111
96182SOL     OW90442   9.676   0.000   8.639
96182SOL    HW190443   9.688   0.085   8.597
96182SOL    HW290444   9.764  14.834   8.642
96183SOL     OW90445   6.578  14.563  14.489
96183SOL    HW190446   6.516  14.502  14.529
96183SOL    HW290447   6.584  14.635  14.552
96184SOL     OW90448  11.116   0.336  11.380
96184SOL    HW190449  11.167   0.265  11.341
96184SOL    HW290450  11.179   0.405  11.397
96185SOL     OW90451   7.623   6.225   5.603
96185SOL    HW190452   7.545   6.278   5.588
96185SOL    HW290453   7.656   6.254   5.688
96186SOL     OW90454   8.520   5.938   6.944
96186SOL    HW190455   8.555   5.864   6.994
96186SOL    HW290456   8.571   6.014   6.974
96187SOL     OW90457   1.623   0.260   5.492
96187SOL    HW190458   1.545   0.313   5.477
96187SOL    HW290459   1.688   0.297   5.432
96188SOL     OW90460  14.231   7.097   9.705
96188SOL    HW190461  14.207   7.170   9.762
96188SOL    HW290462  14.184   7.022   9.742
96189SOL     OW90463   7.275   6.467   9.861
96189SOL    HW190464   7.268   6.459   9.956
96189SOL    HW290465   7.235   6.386   9.827
96190SOL     OW90466   3.345  11.942  11.028
96190SOL    HW190467   3.272  11.933  10.966
96190SOL    HW290468   3.328  11.875  11.095
96191SOL     OW90469  11.013   6.169   3.835
96191SOL    HW190470  10.946   6.180   3.902
96191SOL    HW290471  10.974   6.206   3.755
96192SOL     OW90472  13.270   9.323   0.488
96192SOL    HW190473  13.326   9.292   0.417
96192SOL    HW290474  13.322   9.390   0.532
96193SOL     OW90475   1.176   0.338   7.485
96193SOL    HW190476   1.191   0.363   7.577
96193SOL    HW290477   1.138   0.416   7.445
96194SOL     OW90478   1.536   9.296   5.538
96194SOL    HW190479   1.605   9.313   5.602
96194SOL    HW290480   1.503   9.383   5.515
96195SOL     OW90481   1.514   6.961   1.311
96195SOL    HW190482   1.531   6.873   1.343
96195SOL    HW290483   1.536   7.018   1.385
96196SOL     OW90484   4.948  12.362   4.853
96196SOL    HW190485   4.883  12.369   4.784
96196SOL    HW290486   4.924  12.282   4.901
96197SOL     OW90487   0.349   9.192   8.092
96197SOL    HW190488   0.310   9.224   8.173
96197SOL    HW290489   0.302   9.111   8.072
96198SOL     OW90490  10.216   8.985   8.127
96198SOL    HW190491  10.123   9.006   8.121
96198SOL    HW290492  10.220   8.910   8.186
96199SOL     OW90493   5.576  10.940  13.728
96199SOL    HW190494   5.538  10.922  13.814
96199SOL    HW290495   5.500  10.947  13.670
96200SOL     OW90496   7.443  11.826   6.585
96200SOL    HW190497   7.478  11.801   6.671
96200SOL    HW290498   7.500  11.896   6.555
96201SOL     OW90499   6.876  10.812   3.514
96201SOL    HW190500   6.787  10.792   3.484
96201SOL    HW290501   6.921  10.728   3.513
96202SOL     OW90502  10.584   1.839   2.441
96202SOL    HW190503  10.651   1.841   2.509
96202SOL    HW290504  10.624   1.887   2.368
96203SOL     OW90505   6.959   0.795   6.086
96203SOL    HW190506   7.006   0.878   6.076
96203SOL    HW290507   7.001   0.753   6.161
96204SOL     OW90508   6.228   4.923  11.079
96204SOL    HW190509   6.165   4.980  11.034
96204SOL    HW290510   6.313   4.946  11.041
96205SOL     OW90511   5.389   2.206   4.832
96205SOL    HW190512   5.427   2.126   4.794
96205SOL    HW290513   5.428   2.277   4.781
96206SOL     OW90514   0.079  14.667   4.687
96206SOL    HW190515   0.055  14.728   4.757
96206SOL    HW290516   0.170  14.689   4.666
96207SOL     OW90517   8.011   5.000   0.383
96207SOL    HW190518   8.014   5.034   0.294
96207SOL    HW290519   7.918   5.001   0.406
96208SOL     OW90520   8.916   3.004   8.918
96208SOL    HW190521   8.996   2.953   8.907
96208SOL    HW290522   8.845   2.942   8.903
96209SOL     OW90523   9.468  11.098   2.074
96209SOL    HW190524   9.554  11.070   2.104
96209SOL    HW290525   9.406  11.042   2.121
96210SOL     OW90526  14.235   0.211  12.015
96210SOL    HW190527  14.239   0.211  12.110
96210SOL    HW290528  14.324   0.232  11.987
96211SOL     OW90529  11.456   3.895   7.330
96211SOL    HW190530  11.532   3.847   7.363
96211SOL    HW290531  11.472   3.986   7.357
96212SOL     OW90532   5.681   8.016  13.320
96212SOL    HW190533   5.661   8.073  13.395
96212SOL    HW290534   5.614   7.948  13.325
96213SOL     OW90535   7.543   6.168   0.785
96213SOL    HW190536   7.616   6.199   0.838
96213SOL    HW290537   7.540   6.074   0.801
96214SOL     OW90538  11.627   5.655   8.785
96214SOL    HW190539  11.654   5.747   8.785
96214SOL    HW290540  11.541   5.655   8.745
96215SOL     OW90541  11.781  13.121  11.132
96215SOL    HW190542  11.770  13.130  11.037
96215SOL    HW290543  11.708  13.066  11.160
96216SOL     OW90544  12.356  14.206  11.029
96216SOL    HW190545  12.396  14.150  10.963
96216SOL    HW290546  12.263  14.208  11.006
96217SOL     OW90547   5.410   9.961   7.216
96217SOL    HW190548   5.317   9.984   7.220
96217SOL    HW290549   5.415   9.874   7.257
96218SOL     OW90550   0.025   4.954   0.347
96218SOL    HW190551   0.067   4.984   0.428
96218SOL    HW290552  14.828   5.017   0.331
96219SOL     OW90553   4.019   9.468   6.935
96219SOL    HW190554   4.078   9.511   6.873
96219SOL    HW290555   4.066   9.471   7.018
96220SOL     OW90556  10.182  13.250  13.304
96220SOL    HW190557  10.195  13.320  13.239
96220SOL    HW290558  10.260  13.196  13.298
96221SOL     OW90559  14.753   7.963   1.337
96221SOL    HW190560  14.693   7.898   1.374
96221SOL    HW290561  14.839   7.938   1.371
96222SOL     OW90562   9.001  12.896   9.330
96222SOL    HW190563   9.087  12.872   9.363
96222SOL    HW290564   8.948  12.817   9.341
96223SOL     OW90565   8.959   8.863   8.957
96223SOL    HW190566   9.014   8.927   9.004
96223SOL    HW290567   9.001   8.779   8.973
96224SOL     OW90568   1.922  14.618   3.829
96224SOL    HW190569   1.925  14.571   3.912
96224SOL    HW290570   1.912  14.549   3.763
96225SOL     OW90571  12.818   8.353  13.753
96225SOL    HW190572  12.871   8.343  13.675
96225SOL    HW290573  12.728   8.348  13.722
96226SOL     OW90574   5.895   6.501   6.101
96226SOL    HW190575   5.916   6.532   6.013
96226SOL    HW290576   5.980   6.484   6.141
96227SOL     OW90577   3.298   2.818   8.874
96227SOL    HW190578   3.320   2.896   8.924
96227SOL    HW290579   3.211   2.793   8.904
96228SOL     OW90580  12.683   2.193   6.522
96228SOL    HW190581  12.609   2.221   6.576
96228SOL    HW290582  12.669   2.100   6.508
96229SOL     OW90583   9.798  14.266  11.634
96229SOL    HW190584   9.834  14.351  11.607
96229SOL    HW290585   9.771  14.280  11.725
96230SOL     OW90586   0.901   1.673   9.021
96230SOL    HW190587   0.897   1.682   8.925
96230SOL    HW290588   0.985   1.630   9.037
96231SOL     OW90589   3.254   7.507   7.657
96231SOL    HW190590   3.160   7.490   7.651
96231SOL    HW290591   3.279   7.474   7.743
96232SOL     OW90592  10.002  13.804   1.511
96232SOL    HW190593  10.037  13.789   1.423
96232SOL    HW290594  10.042  13.734   1.564
96233SOL     OW90595  14.535   9.111   4.824
96233SOL    HW190596  14.612   9.167   4.818
96233SOL    HW290597  14.570   9.023   4.836
96234SOL     OW90598   2.441   8.889  12.411
96234SOL    HW190599   2.390   8.829  12.466
96234SOL    HW290600   2.433   8.974  12.454
96235SOL     OW90601   5.565   7.834   1.779
96235SOL    HW190602   5.548   7.907   1.839
96235SOL    HW290603   5.544   7.869   1.693
96236SOL     OW90604  10.903   5.502   5.254
96236SOL    HW190605  10.844   5.484   5.181
96236SOL    HW290606  10.865   5.580   5.296
96237SOL     OW90607   0.233  14.187   0.202
96237SOL    HW190608   0.316  14.162   0.243
96237SOL    HW290609   0.195  14.251   0.262
96238SOL     OW90610   5.968  11.521  13.675
96238SOL    HW190611   6.052  11.495  13.713
96238SOL    HW290612   5.973  11.616  13.668
96239SOL     OW90613   3.096   1.017   2.837
96239SOL    HW190614   3.159   1.089   2.831
96239SOL    HW290615   3.053   1.030   2.922
96240SOL     OW90616   6.867   4.039   9.184
96240SOL    HW190617   6.952   3.999   9.164
96240SOL    HW290618   6.877   4.130   9.157
96241SOL     OW90619   2.027   0.307   8.977
96241SOL    HW190620   2.093   0.299   9.045
96241SOL    HW290621   2.077   0.319   8.896
96242SOL     OW90622  10.177   6.856   9.088
96242SOL    HW190623  10.217   6.773   9.117
96242SOL    HW290624  10.092   6.830   9.053
96243SOL     OW90625   1.658   8.776   1.231
96243SOL    HW190626   1.614   8.854   1.264
96243SOL    HW290627   1.675   8.796   1.139
96244SOL     OW90628   9.223   5.717   0.684
96244SOL    HW190629   9.150   5.755   0.634
96244SOL    HW290630   9.194   5.721   0.775
96245SOL     OW90631  11.972   0.861   2.392
96245SOL    HW190632  12.059   0.875   2.431
96245SOL    HW290633  11.911   0.902   2.454
96246SOL     OW90634   6.116  14.816   4.752
96246SOL    HW190635   6.165   0.024   4.733
96246SOL    HW290636   6.177  14.761   4.801
96247SOL     OW90637   4.104   0.360   0.593
96247SOL    HW190638   4.154   0.313   0.525
96247SOL    HW290639   4.128   0.316   0.675
96248SOL     OW90640   1.631  10.479   1.201
96248SOL    HW190641   1.645  10.466   1.107
96248SOL    HW290642   1.699  10.427   1.243
96249SOL     OW90643   1.536   3.573   5.049
96249SOL    HW190644   1.505   3.484   5.033
96249SOL    HW290645   1.460   3.629   5.032
96250SOL     OW90646   5.241  12.177   1.838
96250SOL    HW190647   5.247  12.212   1.749
96250SOL    HW290648   5.148  12.159   1.851
96251SOL     OW90649   0.393   1.847  14.728
96251SOL    HW190650   0.371   1.880  14.815
96251SOL    HW290651   0.332   1.891  14.670
96252SOL     OW90652  12.142   9.815   1.772
96252SOL    HW190653  12.047   9.827   1.774
96252SOL    HW290654  12.164   9.781   1.859
96253SOL     OW90655   7.084  10.259   0.340
96253SOL    HW190656   7.171  10.279   0.306
96253SOL    HW290657   7.068  10.167   0.316
96254SOL     OW90658  11.138   5.734  11.682
96254SOL    HW190659  11.130   5.830  11.678
96254SOL    HW290660  11.050   5.702  11.665
96255SOL     OW90661   8.245   4.234   9.943
96255SOL    HW190662   8.328   4.283   9.952
96255SOL    HW290663   8.194   4.260  10.019
96256SOL     OW90664   0.480  10.196  14.455
96256SOL    HW190665   0.429  10.277  14.449
96256SOL    HW290666   0.439  10.146  14.525
96257SOL     OW90667  13.867   7.589   4.156
96257SOL    HW190668  13.884   7.683   4.153
96257SOL    HW290669  13.951   7.550   4.180
96258SOL     OW90670  13.597  13.015   4.559
96258SOL    HW190671  13.680  12.990   4.519
96258SOL    HW290672  13.534  12.950   4.528
96259SOL     OW90673  12.157   0.563   3.419
96259SOL    HW190674  12.154   0.586   3.326
96259SOL    HW290675  12.173   0.647   3.464
96260SOL     OW90676   7.106   6.388   1.191
96260SOL    HW190677   7.049   6.386   1.113
96260SOL    HW290678   7.090   6.474   1.230
96261SOL     OW90679   5.785   5.786   9.242
96261SOL    HW190680   5.719   5.762   9.307
96261SOL    HW290681   5.793   5.881   9.250
96262SOL     OW90682   4.598   9.660   0.737
96262SOL    HW190683   4.571   9.640   0.826
96262SOL    HW290684   4.567   9.586   0.685
96263SOL     OW90685   2.307  10.436   3.871
96263SOL    HW190686   2.342  10.352   3.843
96263SOL    HW290687   2.214  10.419   3.886
96264SOL     OW90688  13.414  14.274   8.567
96264SOL    HW190689  13.423  14.360   8.608
96264SOL    HW290690  13.462  14.281   8.484
96265SOL     OW90691   7.509   4.147  10.783
96265SOL    HW190692   7.504   4.148  10.687
96265SOL    HW290693   7.439   4.207  10.811
96266SOL     OW90694   3.035   4.514  10.584
96266SOL    HW190695   2.982   4.583  10.543
96266SOL    HW290696   3.047   4.449  10.515
96267SOL     OW90697  11.254  10.076   4.933
96267SOL    HW190698  11.171  10.110   4.897
96267SOL    HW290699  11.300  10.154   4.964
96268SOL     OW90700   7.689   7.073   6.676
96268SOL    HW190701   7.679   7.075   6.580
96268SOL    HW290702   7.628   7.005   6.705
96269SOL     OW90703   4.259   8.920   2.822
96269SOL    HW190704   4.255   8.993   2.759
96269SOL    HW290705   4.200   8.854   2.785
96270SOL     OW90706  12.773  10.294  11.846
96270SOL    HW190707  12.777  10.249  11.931
96270SOL    HW290708  12.802  10.383  11.865
96271SOL     OW90709   3.847   0.638  11.727
96271SOL    HW190710   3.924   0.689  11.703
96271SOL    HW290711   3.832   0.580  11.652
96272SOL     OW90712   9.212   3.884   7.519
96272SOL    HW190713   9.253   3.931   7.446
96272SOL    HW290714   9.251   3.922   7.597
96273SOL     OW90715   1.995   9.695  12.113
96273SOL    HW190716   2.041   9.622  12.154
96273SOL    HW290717   1.908   9.661  12.095
96274SOL     OW90718   5.660   4.455   0.706
96274SOL    HW190719   5.710   4.426   0.629
96274SOL    HW290720   5.599   4.520   0.672
96275SOL     OW90721   9.614   1.486   7.542
96275SOL    HW190722   9.669   1.436   7.481
96275SOL    HW290723   9.676   1.535   7.596
96276SOL     OW90724  13.203  11.339  10.041
96276SOL    HW190725  13.231  11.396  10.113
96276SOL    HW290726  13.156  11.398   9.982
96277SOL     OW90727   3.362  13.075   6.335
96277SOL    HW190728   3.272  13.106   6.325
96277SOL    HW290729   3.370  13.055   6.429
96278SOL     OW90730   3.913   8.401  11.205
96278SOL    HW190731   3.946   8.386  11.294
96278SOL    HW290732   3.983   8.370  11.148
96279SOL     OW90733   7.548  11.698  14.346
96279SOL    HW190734   7.642  11.687  14.357
96279SOL    HW290735   7.510  11.625  14.396
96280SOL     OW90736   3.021   6.361   3.697
96280SOL    HW190737   3.043   6.390   3.608
96280SOL    HW290738   2.992   6.440   3.742
96281SOL     OW90739   4.968   7.353  11.429
96281SOL    HW190740   4.955   7.443  11.459
96281SOL    HW290741   5.046   7.357  11.373
96282SOL     OW90742  11.197   1.014   8.110
96282SOL    HW190743  11.230   1.039   8.196
96282SOL    HW290744  11.182   0.920   8.116
96283SOL     OW90745   9.192  12.443  14.328
96283SOL    HW190746   9.270  12.396  14.299
96283SOL    HW290747   9.226  12.504  14.394
96284SOL     OW90748  10.431  11.699   1.600
96284SOL    HW190749  10.435  11.784   1.644
96284SOL    HW290750  10.477  11.713   1.517
96285SOL     OW90751   5.725   0.980  13.334
96285SOL    HW190752   5.801   0.937  13.294
96285SOL    HW290753   5.654   0.967  13.272
96286SOL     OW90754  14.378   7.558  14.443
96286SOL    HW190755  14.331   7.572  14.361
96286SOL    HW290756  14.410   7.645  14.467
96287SOL     OW90757   5.332   2.440   4.056
96287SOL    HW190758   5.241   2.452   4.032
96287SOL    HW290759   5.329   2.380   4.131
96288SOL     OW90760   4.785   4.181   8.390
96288SOL    HW190761   4.818   4.118   8.455
96288SOL    HW290762   4.713   4.225   8.435
96289SOL     OW90763   0.914   7.045   1.803
96289SOL    HW190764   0.929   7.073   1.893
96289SOL    HW290765   0.822   7.066   1.786
96290SOL     OW90766   5.517  10.673   5.754
96290SOL    HW190767   5.592  10.632   5.798
96290SOL    HW290768   5.454  10.602   5.742
96291SOL     OW90769  11.174  12.859   9.667
96291SOL    HW190770  11.259  12.890   9.696
96291SOL    HW290771  11.185  12.842   9.574
96292SOL     OW90772   9.273   6.489   8.806
96292SOL    HW190773   9.201   6.427   8.794
96292SOL    HW290774   9.331   6.473   8.731
96293SOL     OW90775  12.228   0.944   6.959
96293SOL    HW190776  12.236   0.894   7.041
96293SOL    HW290777  12.302   1.005   6.962
96294SOL     OW90778   1.375  13.676   1.187
96294SOL    HW190779   1.281  13.696   1.184
96294SOL    HW290780   1.390  13.641   1.274
96295SOL     OW90781   8.218   1.837   6.877
96295SOL    HW190782   8.226   1.754   6.922
96295SOL    HW290783   8.280   1.831   6.804
96296SOL     OW90784   0.699   3.190  13.811
96296SOL    HW190785   0.723   3.223  13.897
96296SOL    HW290786   0.702   3.267  13.754
96297SOL     OW90787   6.587  12.482  12.666
96297SOL    HW190788   6.630  12.529  12.595
96297SOL    HW290789   6.495  12.508  12.660
96298SOL     OW90790   1.191   7.435  14.150
96298SOL    HW190791   1.286   7.437  14.163
96298SOL    HW290792   1.154   7.447  14.237
96299SOL     OW90793   8.056   0.529   0.106
96299SOL    HW190794   8.041   0.601   0.166
96299SOL    HW290795   8.017   0.453   0.149
96300SOL     OW90796   7.913   5.802  11.324
96300SOL    HW190797   7.946   5.786  11.413
96300SOL    HW290798   7.863   5.724  11.302
96301SOL     OW90799   1.568  11.693   3.107
96301SOL    HW190800   1.637  11.635   3.073
96301SOL    HW290801   1.615  11.773   3.133
96302SOL     OW90802  14.092   0.330  10.577
96302SOL    HW190803  14.049   0.393  10.635
96302SOL    HW290804  14.163   0.293  10.630
96303SOL     OW90805   3.179   2.251   4.477
96303SOL    HW190806   3.178   2.257   4.381
96303SOL    HW290807   3.089   2.267   4.503
96304SOL     OW90808   8.550   1.802   3.114
96304SOL    HW190809   8.527   1.711   3.135
96304SOL    HW290810   8.525   1.851   3.192
96305SOL     OW90811   8.848   6.468  14.646
96305SOL    HW190812   8.847   6.538  14.711
96305SOL    HW290813   8.941   6.450  14.631
96306SOL     OW90814   6.846  14.128   6.418
96306SOL    HW190815   6.786  14.100   6.488
96306SOL    HW290816   6.808  14.209   6.384
96307SOL     OW90817   1.787   5.894   3.652
96307SOL    HW190818   1.778   5.883   3.747
96307SOL    HW290819   1.701   5.924   3.623
96308SOL     OW90820  10.502  11.564   8.621
96308SOL    HW190821  10.432  11.531   8.565
96308SOL    HW290822  10.471  11.551   8.710
96309SOL     OW90823  12.160  11.488  13.136
96309SOL    HW190824  12.123  11.424  13.075
96309SOL    HW290825  12.255  11.476  13.128
96310SOL     OW90826   6.712  12.345   5.147
96310SOL    HW190827   6.774  12.295   5.094
96310SOL    HW290828   6.764  12.376   5.222
96311SOL     OW90829  13.123   3.277  11.616
96311SOL    HW190830  13.194   3.320  11.569
96311SOL    HW290831  13.043   3.310  11.576
96312SOL     OW90832   8.488  14.767   0.089
96312SOL    HW190833   8.480  14.784  14.867
96312SOL    HW290834   8.582  14.776   0.106
96313SOL     OW90835   0.054   3.906   6.156
96313SOL    HW190836   0.032   3.857   6.236
96313SOL    HW290837  14.845   3.950   6.132
96314SOL     OW90838   2.552   0.850   1.622
96314SOL    HW190839   2.554   0.829   1.529
96314SOL    HW290840   2.469   0.813   1.653
96315SOL     OW90841   8.828   9.337  14.264
96315SOL    HW190842   8.907   9.384  14.237
96315SOL    HW290843   8.786   9.395  14.327
96316SOL     OW90844   7.812   8.089   4.909
96316SOL    HW190845   7.767   8.038   4.977
96316SOL    HW290846   7.861   8.024   4.859
96317SOL     OW90847  14.029  11.800   4.052
96317SOL    HW190848  14.071  11.760   3.976
96317SOL    HW290849  14.102  11.838   4.103
96318SOL     OW90850   8.166  12.078   3.800
96318SOL    HW190851   8.216  11.996   3.800
96318SOL    HW290852   8.124  12.080   3.886
96319SOL     OW90853   2.013   6.474  10.709
96319SOL    HW190854   2.054   6.534  10.646
96319SOL    HW290855   1.985   6.531  10.781
96320SOL     OW90856   2.393   3.224  14.608
96320SOL    HW190857   2.321   3.234  14.546
96320SOL    HW290858   2.472   3.232  14.554
96321SOL     OW90859  14.762   4.276  10.102
96321SOL    HW190860  14.682   4.225  10.111
96321SOL    HW290861  14.758   4.310  10.012
96322SOL     OW90862  11.765   0.126  11.669
96322SOL    HW190863  11.793   0.057  11.728
96322SOL    HW290864  11.839   0.139  11.610
96323SOL     OW90865   1.130   9.315   3.460
96323SOL    HW190866   1.206   9.373   3.463
96323SOL    HW290867   1.055   9.373   3.470
96324SOL     OW90868   2.799   7.488   9.449
96324SOL    HW190869   2.747   7.529   9.380
96324SOL    HW290870   2.738   7.474   9.521
96325SOL     OW90871   4.555  14.322  13.793
96325SOL    HW190872   4.515  14.275  13.720
96325SOL    HW290873   4.549  14.415  13.768
96326SOL     OW90874  13.830   6.493   4.839
96326SOL    HW190875  13.752   6.518   4.790
96326SOL    HW290876  13.887   6.452   4.774
96327SOL     OW90877   9.592  13.640  10.259
96327SOL    HW190878   9.602  13.671  10.169
96327SOL    HW290879   9.651  13.565  10.266
96328SOL     OW90880   1.620   2.804   6.791
96328SOL    HW190881   1.578   2.847   6.866
96328SOL    HW290882   1.672   2.734   6.829
96329SOL     OW90883   0.102   9.572   7.309
96329SOL    HW190884   0.132   9.544   7.396
96329SOL    HW290885   0.018   9.528   7.297
96330SOL     OW90886   0.633   9.752   3.001
96330SOL    HW190887   0.720   9.781   3.029
96330SOL    HW290888   0.638   9.749   2.906
96331SOL     OW90889   6.454   8.594   1.414
96331SOL    HW190890   6.434   8.540   1.337
96331SOL    HW290891   6.534   8.554   1.450
96332SOL     OW90892   4.365  10.814   0.904
96332SOL    HW190893   4.438  10.854   0.952
96332SOL    HW290894   4.360  10.725   0.940
96333SOL     OW90895   1.149   3.607  13.422
96333SOL    HW190896   1.096   3.684  13.405
96333SOL    HW290897   1.200   3.595  13.342
96334SOL     OW90898   9.492  13.733   0.981
96334SOL    HW190899   9.418  13.776   1.025
96334SOL    HW290900   9.481  13.756   0.889
96335SOL     OW90901  11.322  10.273   4.128
96335SOL    HW190902  11.400  10.232   4.166
96335SOL    HW290903  11.249  10.238   4.179
96336SOL     OW90904   7.164   4.814   2.095
96336SOL    HW190905   7.192   4.723   2.105
96336SOL    HW290906   7.211   4.844   2.017
96337SOL     OW90907  12.785   5.304   0.483
96337SOL    HW190908  12.807   5.302   0.576
96337SOL    HW290909  12.865   5.274   0.439
96338SOL     OW90910  12.793   8.712   5.236
96338SOL    HW190911  12.861   8.648   5.216
96338SOL    HW290912  12.830   8.796   5.209
96339SOL     OW90913   4.041  13.915   7.051
96339SOL    HW190914   4.078  13.832   7.020
96339SOL    HW290915   3.948  13.897   7.060
96340SOL     OW90916   3.972   1.348   3.416
96340SOL    HW190917   4.031   1.367   3.343
96340SOL    HW290918   4.030   1.321   3.488
96341SOL     OW90919   8.903  10.387   7.502
96341SOL    HW190920   8.888  10.433   7.420
96341SOL    HW290921   8.952  10.449   7.556
96342SOL     OW90922   5.225   5.879   4.448
96342SOL    HW190923   5.268   5.936   4.511
96342SOL    HW290924   5.215   5.932   4.369
96343SOL     OW90925  13.528   7.498  11.018
96343SOL    HW190926  13.476   7.459  10.948
96343SOL    HW290927  13.611   7.521  10.977
96344SOL     OW90928  10.789   2.355   4.422
96344SOL    HW190929  10.786   2.294   4.348
96344SOL    HW290930  10.780   2.442   4.382
96345SOL     OW90931  12.483   5.982   5.308
96345SOL    HW190932  12.513   6.056   5.255
96345SOL    HW290933  12.521   5.905   5.265
96346SOL     OW90934   3.158   0.985   8.173
96346SOL    HW190935   3.123   0.903   8.139
96346SOL    HW290936   3.238   0.959   8.219
96347SOL     OW90937   9.633   7.676   9.876
96347SOL    HW190938   9.635   7.580   9.877
96347SOL    HW290939   9.591   7.698   9.793
96348SOL     OW90940  12.576   7.983  12.175
96348SOL    HW190941  12.644   8.043  12.206
96348SOL    HW290942  12.570   7.916  12.243
96349SOL     OW90943   6.765  11.024   2.608
96349SOL    HW190944   6.770  10.970   2.687
96349SOL    HW290945   6.791  10.966   2.537
96350SOL     OW90946  11.533   7.866  11.761
96350SOL    HW190947  11.576   7.796  11.810
96350SOL    HW290948  11.571   7.947  11.795
96351SOL     OW90949   1.734   0.539  10.357
96351SOL    HW190950   1.666   0.498  10.410
96351SOL    HW290951   1.750   0.624  10.400
96352SOL     OW90952   7.339  10.698   1.588
96352SOL    HW190953   7.410  10.761   1.600
96352SOL    HW290954   7.259  10.752   1.593
96353SOL     OW90955   4.537   1.349  10.440
96353SOL    HW190956   4.630   1.343  10.465
96353SOL    HW290957   4.490   1.348  10.523
96354SOL     OW90958   3.439  10.274  12.031
96354SOL    HW190959   3.534  10.289  12.036
96354SOL    HW290960   3.412  10.265  12.122
96355SOL     OW90961   4.374   3.334  13.632
96355SOL    HW190962   4.427   3.260  13.601
96355SOL    HW290963   4.329   3.366  13.554
96356SOL     OW90964   7.324   6.106  14.486
96356SOL    HW190965   7.235   6.075  14.469
96356SOL    HW290966   7.320   6.138  14.577
96357SOL     OW90967   1.476  13.366   4.975
96357SOL    HW190968   1.513  13.429   5.037
96357SOL    HW290969   1.546  13.302   4.961
96358SOL     OW90970   0.901   4.059   9.249
96358SOL    HW190971   0.869   3.993   9.310
96358SOL    HW290972   0.826   4.119   9.237
96359SOL     OW90973   6.132  11.302   0.632
96359SOL    HW190974   6.046  11.316   0.594
96359SOL    HW290975   6.132  11.211   0.661
96360SOL     OW90976   7.216  10.806   5.319
96360SOL    HW190977   7.229  10.711   5.311
96360SOL    HW290978   7.125  10.820   5.293
96361SOL     OW90979   5.934   3.893  13.019
96361SOL    HW190980   5.974   3.823  12.967
96361SOL    HW290981   6.003   3.922  13.079
96362SOL     OW90982  12.001   9.299  14.474
96362SOL    HW190983  12.049   9.217  14.467
96362SOL    HW290984  11.913   9.279  14.442
96363SOL     OW90985   9.752  10.134   2.539
96363SOL    HW190986   9.762  10.047   2.578
96363SOL    HW290987   9.747  10.118   2.445
96364SOL     OW90988   8.887   2.313  12.145
96364SOL    HW190989   8.910   2.404  12.161
96364SOL    HW290990   8.873   2.307  12.051
96365SOL     OW90991   1.213   8.866   5.346
96365SOL    HW190992   1.175   8.849   5.260
96365SOL    HW290993   1.298   8.904   5.328
96366SOL     OW90994  11.821   9.071   5.194
96366SOL    HW190995  11.892   9.043   5.251
96366SOL    HW290996  11.822   9.009   5.121
96367SOL     OW90997   3.932  12.447   1.010
96367SOL    HW190998   3.876  12.384   0.964
96367SOL    HW290999   4.020  12.409   1.004
96368SOL     OW91000   4.045  11.762   7.231
96368SOL    HW191001   3.960  11.717   7.237
96368SOL    HW291002   4.045  11.800   7.144
96369SOL     OW91003  12.571  14.534   5.181
96369SOL    HW191004  12.568  14.623   5.145
96369SOL    HW291005  12.659  14.503   5.161
96370SOL     OW91006  13.960   7.913   9.037
96370SOL    HW191007  13.903   7.930   9.112
96370SOL    HW291008  14.019   7.989   9.034
96371SOL     OW91009   0.428  10.235  12.897
96371SOL    HW191010   0.361  10.196  12.840
96371SOL    HW291011   0.496  10.265  12.838
96372SOL     OW91012   2.294  11.099   6.060
96372SOL    HW191013   2.298  11.011   6.097
96372SOL    HW291014   2.377  11.110   6.013
96373SOL     OW91015   1.952   4.100   0.505
96373SOL    HW191016   2.013   4.083   0.576
96373SOL    HW291017   2.001   4.079   0.426
96374SOL     OW91018   1.736   1.124   1.329
96374SOL    HW191019   1.761   1.107   1.238
96374SOL    HW291020   1.670   1.058   1.349
96375SOL     OW91021   2.337  10.217  14.339
96375SOL    HW191022   2.335  10.238  14.432
96375SOL    HW291023   2.285  10.138  14.331
96376SOL     OW91024   7.518   2.773   9.018
96376SOL    HW191025   7.612   2.788   9.014
96376SOL    HW291026   7.500   2.707   8.951
96377SOL     OW91027  12.133   3.646  11.342
96377SOL    HW191028  12.098   3.725  11.301
96377SOL    HW291029  12.157   3.674  11.431
96378SOL     OW91030   0.227   0.603  12.496
96378SOL    HW191031   0.301   0.573  12.549
96378SOL    HW291032   0.195   0.525  12.452
96379SOL     OW91033   7.441   2.898   6.616
96379SOL    HW191034   7.376   2.829   6.611
96379SOL    HW291035   7.511   2.861   6.670
96380SOL     OW91036   4.950   8.987  10.814
96380SOL    HW191037   4.985   9.075  10.823
96380SOL    HW291038   4.870   8.988  10.865
96381SOL     OW91039   9.966  11.193   5.573
96381SOL    HW191040   9.932  11.175   5.660
96381SOL    HW291041   9.889  11.217   5.521
96382SOL     OW91042   4.013   0.517   0.342
96382SOL    HW191043   4.001   0.433   0.298
96382SOL    HW291044   4.007   0.497   0.436
96383SOL     OW91045   0.761   2.140   2.139
96383SOL    HW191046   0.816   2.130   2.062
96383SOL    HW291047   0.706   2.216   2.120
96384SOL     OW91048   7.043   0.017   7.369
96384SOL    HW191049   6.953   0.045   7.380
96384SOL    HW291050   7.095   0.098   7.376
96385SOL     OW91051   2.899  13.895   7.892
96385SOL    HW191052   2.921  13.809   7.926
96385SOL    HW291053   2.979  13.947   7.905
96386SOL     OW91054  13.013   4.355  10.931
96386SOL    HW191055  13.020   4.391  10.843
96386SOL    HW291056  13.050   4.422  10.988
96387SOL     OW91057  10.077   5.381   2.377
96387SOL    HW191058  10.007   5.375   2.312
96387SOL    HW291059  10.155   5.347   2.332
96388SOL     OW91060   5.875  13.923   9.978
96388SOL    HW191061   5.880  13.827   9.974
96388SOL    HW291062   5.936  13.953   9.911
96389SOL     OW91063  13.361   8.922   3.165
96389SOL    HW191064  13.321   9.005   3.191
96389SOL    HW291065  13.288   8.870   3.130
96390SOL     OW91066   7.079  13.707   6.847
96390SOL    HW191067   7.004  13.732   6.900
96390SOL    HW291068   7.048  13.634   6.794
96391SOL     OW91069   5.187   6.332  11.744
96391SOL    HW191070   5.182   6.376  11.829
96391SOL    HW291071   5.224   6.397  11.685
96392SOL     OW91072   7.407   2.075   6.627
96392SOL    HW191073   7.360   2.157   6.613
96392SOL    HW291074   7.408   2.064   6.722
96393SOL     OW91075   4.857   1.395   7.148
96393SOL    HW191076   4.941   1.353   7.132
96393SOL    HW291077   4.849   1.460   7.079
96394SOL     OW91078   1.753   8.853  12.477
96394SOL    HW191079   1.762   8.797  12.553
96394SOL    HW291080   1.676   8.907  12.495
96395SOL     OW91081   4.653  11.372   8.177
96395SOL    HW191082   4.575  11.391   8.124
96395SOL    HW291083   4.661  11.277   8.175
96396SOL     OW91084  11.844  13.867   7.571
96396SOL    HW191085  11.846  13.775   7.546
96396SOL    HW291086  11.766  13.902   7.527
96397SOL     OW91087  13.135   0.646   3.554
96397SOL    HW191088  13.062   0.675   3.499
96397SOL    HW291089  13.132   0.703   3.631
96398SOL     OW91090   4.653   8.398   2.741
96398SOL    HW191091   4.605   8.365   2.665
96398SOL    HW291092   4.745   8.393   2.716
96399SOL     OW91093  12.603   1.153   8.060
96399SOL    HW191094  12.600   1.121   7.969
96399SOL    HW291095  12.522   1.120   8.099
96400SOL     OW91096  14.149  14.138   5.036
96400SOL    HW191097  14.078  14.130   4.973
96400SOL    HW291098  14.180  14.048   5.048
96401SOL     OW91099   4.296  12.761  13.783
96401SOL    HW191100   4.253  12.678  13.803
96401SOL    HW291101   4.296  12.808  13.866
96402SOL     OW91102   2.935   3.342   5.637
96402SOL    HW191103   2.974   3.255   5.635
96402SOL    HW291104   2.909   3.354   5.728
96403SOL     OW91105  12.191  10.781  14.401
96403SOL    HW191106  12.115  10.838  14.414
96403SOL    HW291107  12.202  10.735  14.484
96404SOL     OW91108  13.582   7.912   7.370
96404SOL    HW191109  13.630   7.828   7.370
96404SOL    HW291110  13.581   7.938   7.462
96405SOL     OW91111   7.544   5.950   6.018
96405SOL    HW191112   7.468   5.913   6.064
96405SOL    HW291113   7.597   5.988   6.088
96406SOL     OW91114  10.470  11.323  14.197
96406SOL    HW191115  10.482  11.400  14.142
96406SOL    HW291116  10.532  11.335  14.270
96407SOL     OW91117   7.758  11.342  11.458
96407SOL    HW191118   7.765  11.316  11.366
96407SOL    HW291119   7.840  11.389  11.476
96408SOL     OW91120   0.873   8.763  10.253
96408SOL    HW191121   0.951   8.748  10.307
96408SOL    HW291122   0.833   8.677  10.244
96409SOL     OW91123  10.185  13.151   6.909
96409SOL    HW191124  10.110  13.188   6.955
96409SOL    HW291125  10.157  13.062   6.886
96410SOL     OW91126   6.017   6.094   5.459
96410SOL    HW191127   5.979   6.029   5.401
96410SOL    HW291128   6.067   6.152   5.402
96411SOL     OW91129  14.164  10.079   9.817
96411SOL    HW191130  14.116  10.162   9.810
96411SOL    HW291131  14.116  10.019   9.760
96412SOL     OW91132   9.528   0.465  11.142
96412SOL    HW191133   9.502   0.450  11.051
96412SOL    HW291134   9.489   0.391  11.190
96413SOL     OW91135  10.269   7.571   0.781
96413SOL    HW191136  10.183   7.553   0.818
96413SOL    HW291137  10.251   7.624   0.703
96414SOL     OW91138   3.353   0.521   0.547
96414SOL    HW191139   3.417   0.492   0.612
96414SOL    HW291140   3.399   0.589   0.497
96415SOL     OW91141  13.524   1.222   0.721
96415SOL    HW191142  13.439   1.226   0.678
96415SOL    HW291143  13.561   1.138   0.694
96416SOL     OW91144   6.297   9.753   5.053
96416SOL    HW191145   6.246   9.689   5.003
96416SOL    HW291146   6.288   9.835   5.003
96417SOL     OW91147  10.718  13.225   5.698
96417SOL    HW191148  10.783  13.275   5.749
96417SOL    HW291149  10.746  13.134   5.706
96418SOL     OW91150   8.747   2.312   6.101
96418SOL    HW191151   8.707   2.399   6.102
96418SOL    HW291152   8.729   2.276   6.188
96419SOL     OW91153   2.090   6.886   0.280
96419SOL    HW191154   2.076   6.981   0.282
96419SOL    HW291155   2.042   6.856   0.203
96420SOL     OW91156   9.231  14.493   8.309
96420SOL    HW191157   9.215  14.407   8.348
96420SOL    HW291158   9.184  14.491   8.226
96421SOL     OW91159   3.009   0.424  14.552
96421SOL    HW191160   3.054   0.341  14.569
96421SOL    HW291161   3.048   0.486  14.613
96422SOL     OW91162   2.732   0.299   1.203
96422SOL    HW191163   2.660   0.315   1.264
96422SOL    HW291164   2.701   0.229   1.146
96423SOL     OW91165   8.082   1.831   4.487
96423SOL    HW191166   8.053   1.919   4.511
96423SOL    HW291167   8.079   1.781   4.569
96424SOL     OW91168  14.364  13.853  11.447
96424SOL    HW191169  14.289  13.912  11.459
96424SOL    HW291170  14.328  13.766  11.461
96425SOL     OW91171   2.673   2.509  10.303
96425SOL    HW191172   2.722   2.470  10.230
96425SOL    HW291173   2.731   2.578  10.337
96426SOL     OW91174   8.373   6.633   8.964
96426SOL    HW191175   8.316   6.708   8.981
96426SOL    HW291176   8.431   6.630   9.040
96427SOL     OW91177   5.724   6.602   0.208
96427SOL    HW191178   5.729   6.537   0.279
96427SOL    HW291179   5.671   6.673   0.245
96428SOL     OW91180  13.849  12.792  13.610
96428SOL    HW191181  13.759  12.796  13.575
96428SOL    HW291182  13.905  12.795  13.532
96429SOL     OW91183   2.439  12.388   3.873
96429SOL    HW191184   2.353  12.354   3.897
96429SOL    HW291185   2.498  12.352   3.939
96430SOL     OW91186   3.098   1.054  10.020
96430SOL    HW191187   3.145   1.107  10.084
96430SOL    HW291188   3.019   1.105  10.000
96431SOL     OW91189   6.704   3.251   1.130
96431SOL    HW191190   6.740   3.327   1.176
96431SOL    HW291191   6.710   3.274   1.037
96432SOL     OW91192   5.172  13.147  10.763
96432SOL    HW191193   5.127  13.148  10.678
96432SOL    HW291194   5.158  13.059  10.797
96433SOL     OW91195   0.421   3.050  11.987
96433SOL    HW191196   0.493   3.110  12.005
96433SOL    HW291197   0.436   2.977  12.047
96434SOL     OW91198   2.942  13.594   2.191
96434SOL    HW191199   2.984  13.572   2.274
96434SOL    HW291200   2.990  13.543   2.126
96435SOL     OW91201   2.372   6.546  13.164
96435SOL    HW191202   2.445   6.485  13.155
96435SOL    HW291203   2.335   6.527  13.251
96436SOL     OW91204   4.589   0.007   1.879
96436SOL    HW191205   4.646  14.815   1.837
96436SOL    HW291206   4.542  14.831   1.946
96437SOL     OW91207  11.932  12.061   8.242
96437SOL    HW191208  11.874  12.008   8.188
96437SOL    HW291209  12.019  12.024   8.226
96438SOL     OW91210   2.228   0.046  11.643
96438SOL    HW191211   2.315   0.067  11.610
96438SOL    HW291212   2.220   0.096  11.724
96439SOL     OW91213   6.485  11.100   6.101
96439SOL    HW191214   6.577  11.098   6.074
96439SOL    HW291215   6.464  11.008   6.119
96440SOL     OW91216   4.393  14.754   6.195
96440SOL    HW191217   4.485  14.729   6.203
96440SOL    HW291218   4.393  14.849   6.206
96441SOL     OW91219   5.936  14.691   7.409
96441SOL    HW191220   5.890  14.680   7.493
96441SOL    HW291221   5.899  14.772   7.373
96442SOL     OW91222   3.752   9.059  10.417
96442SOL    HW191223   3.844   9.085  10.412
96442SOL    HW291224   3.736   9.048  10.511
96443SOL     OW91225   8.825   9.025   7.429
96443SOL    HW191226   8.879   9.099   7.457
96443SOL    HW291227   8.868   8.948   7.467
96444SOL     OW91228   6.396  14.588   5.975
96444SOL    HW191229   6.438  14.648   5.913
96444SOL    HW291230   6.374  14.511   5.923
96445SOL     OW91231  12.519  11.837  12.546
96445SOL    HW191232  12.607  11.802  12.528
96445SOL    HW291233  12.468  11.760  12.572
96446SOL     OW91234   3.918   9.514   5.987
96446SOL    HW191235   3.938   9.608   5.993
96446SOL    HW291236   3.915   9.496   5.893
96447SOL     OW91237  14.848   3.096   1.710
96447SOL    HW191238  14.865   3.012   1.751
96447SOL    HW291239  14.818   3.074   1.621
96448SOL     OW91240   6.191   9.038  11.919
96448SOL    HW191241   6.215   9.008  11.831
96448SOL    HW291242   6.127   8.974  11.950
96449SOL     OW91243  14.497   0.709   6.949
96449SOL    HW191244  14.576   0.654   6.944
96449SOL    HW291245  14.479   0.732   6.858
96450SOL     OW91246  11.267   6.071  12.754
96450SOL    HW191247  11.244   6.103  12.841
96450SOL    HW291248  11.184   6.065  12.708
96451SOL     OW91249   7.827  14.424   9.733
96451SOL    HW191250   7.890  14.459   9.795
96451SOL    HW291251   7.878  14.410   9.652
96452SOL     OW91252   0.896   2.975  11.638
96452SOL    HW191253   0.929   2.908  11.578
96452SOL    HW291254   0.817   3.008  11.596
96453SOL     OW91255   7.082  10.684  13.558
96453SOL    HW191256   7.012  10.746  13.579
96453SOL    HW291257   7.081  10.622  13.631
96454SOL     OW91258   0.272   8.753   9.625
96454SOL    HW191259   0.206   8.752   9.694
96454SOL    HW291260   0.345   8.701   9.661
96455SOL     OW91261   2.323   1.828   8.909
96455SOL    HW191262   2.314   1.784   8.994
96455SOL    HW291263   2.343   1.757   8.848
96456SOL     OW91264   7.514  14.813   2.222
96456SOL    HW191265   7.556  14.752   2.284
96456SOL    HW291266   7.578   0.011   2.211
96457SOL     OW91267  13.984   4.401   1.649
96457SOL    HW191268  14.032   4.375   1.571
96457SOL    HW291269  14.051   4.416   1.716
96458SOL     OW91270   1.345   3.735   6.075
96458SOL    HW191271   1.279   3.695   6.019
96458SOL    HW291272   1.346   3.827   6.049
96459SOL     OW91273  10.621   4.728   7.758
96459SOL    HW191274  10.709   4.697   7.740
96459SOL    HW291275  10.633   4.817   7.792
96460SOL     OW91276   5.947  13.756   6.944
96460SOL    HW191277   6.013  13.686   6.942
96460SOL    HW291278   5.934  13.780   6.852
96461SOL     OW91279   8.473   5.016  11.984
96461SOL    HW191280   8.444   5.100  12.019
96461SOL    HW291281   8.416   4.999  11.909
96462SOL     OW91282   1.459  13.963   3.526
96462SOL    HW191283   1.385  14.019   3.503
96462SOL    HW291284   1.530  13.993   3.470
96463SOL     OW91285   4.931   2.086   6.282
96463SOL    HW191286   4.873   2.046   6.217
96463SOL    HW291287   4.873   2.139   6.336
96464SOL     OW91288  13.198   5.649   3.710
96464SOL    HW191289  13.182   5.671   3.802
96464SOL    HW291290  13.272   5.589   3.712
96465SOL     OW91291   4.349   4.677   8.951
96465SOL    HW191292   4.346   4.673   9.046
96465SOL    HW291293   4.431   4.633   8.928
96466SOL     OW91294  11.789   4.208   5.239
96466SOL    HW191295  11.704   4.234   5.274
96466SOL    HW291296  11.776   4.205   5.144
96467SOL     OW91297   8.067   9.494  10.955
96467SOL    HW191298   8.035   9.414  10.914
96467SOL    HW291299   8.131   9.464  11.019
96468SOL     OW91300   4.719  11.096   6.898
96468SOL    HW191301   4.713  11.091   6.802
96468SOL    HW291302   4.631  11.071   6.928
96469SOL     OW91303  12.636   1.164   8.627
96469SOL    HW191304  12.688   1.183   8.706
96469SOL    HW291305  12.700   1.164   8.556
96470SOL     OW91306   8.303   6.987   1.722
96470SOL    HW191307   8.247   6.970   1.798
96470SOL    HW291308   8.242   6.997   1.649
96471SOL     OW91309   8.705  10.202   4.403
96471SOL    HW191310   8.665  10.251   4.475
96471SOL    HW291311   8.632  10.177   4.348
96472SOL     OW91312   9.506  14.243   6.089
96472SOL    HW191313   9.494  14.334   6.061
96472SOL    HW291314   9.575  14.210   6.031
96473SOL     OW91315   9.969   4.078   9.136
96473SOL    HW191316   9.899   4.015   9.151
96473SOL    HW291317   9.928   4.163   9.152
96474SOL     OW91318   9.805   1.910  11.374
96474SOL    HW191319   9.736   1.901  11.307
96474SOL    HW291320   9.769   1.973  11.436
96475SOL     OW91321  13.980  12.853   1.352
96475SOL    HW191322  13.914  12.850   1.420
96475SOL    HW291323  13.973  12.769   1.307
96476SOL     OW91324   6.151   5.428  13.803
96476SOL    HW191325   6.139   5.468  13.889
96476SOL    HW291326   6.096   5.481  13.745
96477SOL     OW91327   3.844   0.503  12.158
96477SOL    HW191328   3.921   0.455  12.129
96477SOL    HW291329   3.811   0.545  12.079
96478SOL     OW91330  10.797   4.132  12.895
96478SOL    HW191331  10.705   4.158  12.893
96478SOL    HW291332  10.795   4.037  12.903
96479SOL     OW91333  11.039   8.909  10.543
96479SOL    HW191334  11.042   8.881  10.452
96479SOL    HW291335  11.098   8.849  10.589
96480SOL     OW91336   4.974  10.997   1.921
96480SOL    HW191337   4.949  10.917   1.968
96480SOL    HW291338   4.904  11.059   1.941
96481SOL     OW91339   8.662   8.236   9.182
96481SOL    HW191340   8.755   8.238   9.206
96481SOL    HW291341   8.662   8.245   9.086
96482SOL     OW91342   6.948  10.539   1.650
96482SOL    HW191343   6.994  10.544   1.566
96482SOL    HW291344   6.858  10.515   1.627
96483SOL     OW91345   6.729  12.412   8.117
96483SOL    HW191346   6.727  12.318   8.135
96483SOL    HW291347   6.808  12.424   8.065
96484SOL     OW91348  12.733   7.162  12.820
96484SOL    HW191349  12.660   7.207  12.779
96484SOL    HW291350  12.783   7.124  12.747
96485SOL     OW91351   7.337   0.959   6.676
96485SOL    HW191352   7.397   1.032   6.691
96485SOL    HW291353   7.291   0.948   6.760
96486SOL     OW91354   1.425  13.280  12.684
96486SOL    HW191355   1.357  13.339  12.717
96486SOL    HW291356   1.484  13.336  12.634
96487SOL     OW91357  13.264  12.353   0.990
96487SOL    HW191358  13.175  12.334   0.959
96487SOL    HW291359  13.320  12.302   0.932
96488SOL     OW91360   2.289   9.348  11.197
96488SOL    HW191361   2.343   9.355  11.276
96488SOL    HW291362   2.252   9.436  11.186
96489SOL     OW91363  14.840   5.177  10.482
96489SOL    HW191364   0.039   5.235  10.454
96489SOL    HW291365  14.872   5.137  10.563
96490SOL     OW91366   8.406  14.387   6.061
96490SOL    HW191367   8.320  14.368   6.098
96490SOL    HW291368   8.447  14.447   6.124
96491SOL     OW91369   8.052  14.127  11.892
96491SOL    HW191370   8.029  14.218  11.874
96491SOL    HW291371   8.053  14.085  11.806
96492SOL     OW91372  12.638   8.614  13.587
96492SOL    HW191373  12.574   8.680  13.610
96492SOL    HW291374  12.719   8.643  13.630
96493SOL     OW91375   6.776   1.054   1.945
96493SOL    HW191376   6.795   1.116   2.015
96493SOL    HW291377   6.752   1.108   1.870
96494SOL     OW91378  10.034   9.331  11.120
96494SOL    HW191379   9.942   9.304  11.118
96494SOL    HW291380  10.031   9.427  11.116
96495SOL     OW91381  13.929   2.913   0.774
96495SOL    HW191382  13.966   2.951   0.694
96495SOL    HW291383  13.891   2.987   0.820
96496SOL     OW91384   4.422   1.367   6.638
96496SOL    HW191385   4.333   1.334   6.629
96496SOL    HW291386   4.469   1.294   6.680
96497SOL     OW91387  13.512   8.130   1.362
96497SOL    HW191388  13.597   8.169   1.380
96497SOL    HW291389  13.530   8.062   1.297
96498SOL     OW91390   8.386   3.073   1.906
96498SOL    HW191391   8.405   2.989   1.865
96498SOL    HW291392   8.296   3.064   1.939
96499SOL     OW91393   1.664   7.285   5.830
96499SOL    HW191394   1.627   7.239   5.755
96499SOL    HW291395   1.690   7.214   5.890
96500SOL     OW91396   4.635  12.704  12.460
96500SOL    HW191397   4.691  12.758  12.405
96500SOL    HW291398   4.547  12.738  12.446
96501SOL     OW91399  10.224   0.342   8.550
96501SOL    HW191400  10.204   0.304   8.635
96501SOL    HW291401  10.176   0.288   8.487
96502SOL     OW91402   8.912   8.057   9.845
96502SOL    HW191403   8.883   7.989   9.907
96502SOL    HW291404   8.991   8.020   9.806
96503SOL     OW91405   5.957   7.899   3.592
96503SOL    HW191406   6.027   7.951   3.552
96503SOL    HW291407   5.894   7.964   3.623
96504SOL     OW91408   8.821  12.089   5.962
96504SOL    HW191409   8.800  12.030   5.890
96504SOL    HW291410   8.916  12.099   5.959
96505SOL     OW91411  13.985  11.274   0.731
96505SOL    HW191412  14.072  11.273   0.773
96505SOL    HW291413  13.995  11.222   0.652
96506SOL     OW91414  12.658  11.733   9.651
96506SOL    HW191415  12.615  11.655   9.687
96506SOL    HW291416  12.736  11.699   9.607
96507SOL     OW91417   2.722   4.426  10.976
96507SOL    HW191418   2.809   4.424  10.935
96507SOL    HW291419   2.734   4.480  11.054
96508SOL     OW91420   1.973   0.079   6.020
96508SOL    HW191421   2.049   0.099   5.965
96508SOL    HW291422   1.991   0.125   6.102
96509SOL     OW91423   1.351   7.115  10.850
96509SOL    HW191424   1.287   7.103  10.780
96509SOL    HW291425   1.409   7.039  10.842
96510SOL     OW91426   4.164   8.819   0.302
96510SOL    HW191427   4.146   8.778   0.216
96510SOL    HW291428   4.232   8.764   0.340
96511SOL     OW91429   0.097  10.388   8.144
96511SOL    HW191430   0.092  10.464   8.202
96511SOL    HW291431   0.158  10.328   8.188
96512SOL     OW91432   1.963   1.915   7.738
96512SOL    HW191433   2.002   1.951   7.818
96512SOL    HW291434   1.995   1.971   7.668
96513SOL     OW91435   2.107   5.819   5.795
96513SOL    HW191436   2.169   5.775   5.737
96513SOL    HW291437   2.060   5.747   5.838
96514SOL     OW91438   4.434   3.434   7.396
96514SOL    HW191439   4.396   3.433   7.309
96514SOL    HW291440   4.526   3.411   7.382
96515SOL     OW91441   7.007  11.854  14.515
96515SOL    HW191442   7.050  11.939  14.507
96515SOL    HW291443   7.076  11.795  14.546
96516SOL     OW91444   6.867  12.683   4.338
96516SOL    HW191445   6.919  12.734   4.400
96516SOL    HW291446   6.777  12.696   4.366
96517SOL     OW91447   6.971   2.416   3.608
96517SOL    HW191448   7.025   2.346   3.571
96517SOL    HW291449   6.938   2.464   3.532
96518SOL     OW91450   3.646   6.825   9.884
96518SOL    HW191451   3.605   6.905   9.851
96518SOL    HW291452   3.693   6.853   9.962
96519SOL     OW91453   0.204  11.945   8.989
96519SOL    HW191454   0.174  11.907   9.072
96519SOL    HW291455   0.296  11.922   8.984
96520SOL     OW91456   3.543   4.644  10.108
96520SOL    HW191457   3.623   4.676  10.150
96520SOL    HW291458   3.564   4.554  10.083
96521SOL     OW91459   7.727  10.016  11.223
96521SOL    HW191460   7.777  10.028  11.142
96521SOL    HW291461   7.770  10.073  11.287
96522SOL     OW91462  12.884   4.621  12.834
96522SOL    HW191463  12.858   4.554  12.771
96522SOL    HW291464  12.974   4.644  12.809
96523SOL     OW91465   2.172   9.956   2.154
96523SOL    HW191466   2.187   9.873   2.109
96523SOL    HW291467   2.173  10.022   2.084
96524SOL     OW91468   7.188   5.513  10.658
96524SOL    HW191469   7.277   5.543  10.640
96524SOL    HW291470   7.155   5.484  10.573
96525SOL     OW91471   4.564   9.699  11.150
96525SOL    HW191472   4.500   9.755  11.193
96525SOL    HW291473   4.532   9.610  11.165
96526SOL     OW91474  10.086  11.118   2.894
96526SOL    HW191475  10.176  11.110   2.863
96526SOL    HW291476  10.053  11.199   2.854
96527SOL     OW91477   6.211   3.024   8.065
96527SOL    HW191478   6.152   3.086   8.108
96527SOL    HW291479   6.238   3.070   7.985
96528SOL     OW91480   5.556   5.189  13.278
96528SOL    HW191481   5.524   5.234  13.200
96528SOL    HW291482   5.648   5.213  13.283
96529SOL     OW91483   6.894   8.730   0.183
96529SOL    HW191484   6.812   8.722   0.135
96529SOL    HW291485   6.960   8.694   0.123
96530SOL     OW91486   3.038  13.412   0.281
96530SOL    HW191487   2.965  13.375   0.233
96530SOL    HW291488   3.010  13.501   0.304
96531SOL     OW91489  14.588   1.900   2.971
96531SOL    HW191490  14.562   1.820   3.016
96531SOL    HW291491  14.524   1.911   2.901
96532SOL     OW91492   5.735   3.801   3.518
96532SOL    HW191493   5.830   3.803   3.529
96532SOL    HW291494   5.703   3.755   3.596
96533SOL     OW91495   9.912  10.696   7.120
96533SOL    HW191496   9.974  10.717   7.190
96533SOL    HW291497   9.878  10.609   7.143
96534SOL     OW91498  11.335  13.497  12.197
96534SOL    HW191499  11.258  13.544  12.228
96534SOL    HW291500  11.343  13.521  12.104
96535SOL     OW91501   8.328   7.315  14.844
96535SOL    HW191502   8.391   7.249  14.814
96535SOL    HW291503   8.258   7.313  14.780
96536SOL     OW91504   0.979  12.647   9.061
96536SOL    HW191505   1.027  12.670   8.981
96536SOL    HW291506   0.891  12.623   9.030
96537SOL     OW91507  14.744  12.295   0.455
96537SOL    HW191508  14.670  12.317   0.512
96537SOL    HW291509  14.815  12.351   0.486
96538SOL     OW91510   1.661   1.030  14.331
96538SOL    HW191511   1.693   1.015  14.420
96538SOL    HW291512   1.735   1.068  14.284
96539SOL     OW91513   8.296   9.523   5.927
96539SOL    HW191514   8.361   9.579   5.969
96539SOL    HW291515   8.222   9.581   5.910
96540SOL     OW91516   3.780   0.273  14.838
96540SOL    HW191517   3.727   0.262  14.759
96540SOL    HW291518   3.752   0.202   0.023
96541SOL     OW91519   4.643  11.683   1.600
96541SOL    HW191520   4.719  11.732   1.569
96541SOL    HW291521   4.638  11.704   1.694
96542SOL     OW91522  10.296   1.133   4.582
96542SOL    HW191523  10.247   1.204   4.624
96542SOL    HW291524  10.307   1.161   4.492
96543SOL     OW91525   6.945   6.275  12.747
96543SOL    HW191526   6.914   6.351  12.796
96543SOL    HW291527   7.020   6.307  12.697
96544SOL     OW91528   6.832  13.086   7.046
96544SOL    HW191529   6.913  13.036   7.054
96544SOL    HW291530   6.822  13.129   7.132
96545SOL     OW91531   9.149   9.266   2.326
96545SOL    HW191532   9.130   9.173   2.312
96545SOL    HW291533   9.187   9.269   2.414
96546SOL     OW91534   8.199   9.339  11.717
96546SOL    HW191535   8.164   9.264  11.669
96546SOL    HW291536   8.244   9.391  11.651
96547SOL     OW91537  10.427  12.927   5.749
96547SOL    HW191538  10.378  12.874   5.811
96547SOL    HW291539  10.516  12.928   5.784
96548SOL     OW91540   2.138   0.912  12.066
96548SOL    HW191541   2.115   0.932  11.975
96548SOL    HW291542   2.077   0.965  12.118
96549SOL     OW91543   8.126   2.232  13.275
96549SOL    HW191544   8.171   2.188  13.347
96549SOL    HW291545   8.162   2.321  13.275
96550SOL     OW91546   6.342   1.268   9.751
96550SOL    HW191547   6.258   1.315   9.752
96550SOL    HW291548   6.408   1.337   9.748
96551SOL     OW91549  14.803  10.276  12.723
96551SOL    HW191550  14.761  10.240  12.801
96551SOL    HW291551  14.740  10.259  12.653
96552SOL     OW91552  11.869   5.604   0.955
96552SOL    HW191553  11.894   5.615   1.047
96552SOL    HW291554  11.799   5.538   0.957
96553SOL     OW91555  11.313   8.357   5.617
96553SOL    HW191556  11.322   8.274   5.570
96553SOL    HW291557  11.237   8.343   5.674
96554SOL     OW91558   4.928   0.659  12.785
96554SOL    HW191559   4.834   0.667  12.795
96554SOL    HW291560   4.960   0.749  12.778
96555SOL     OW91561   6.371   0.279   0.053
96555SOL    HW191562   6.450   0.239   0.089
96555SOL    HW291563   6.306   0.209   0.053
96556SOL     OW91564   6.315  11.415   0.854
96556SOL    HW191565   6.410  11.410   0.864
96556SOL    HW291566   6.294  11.345   0.792
96557SOL     OW91567   2.666  13.292   9.186
96557SOL    HW191568   2.654  13.334   9.271
96557SOL    HW291569   2.625  13.206   9.196
96558SOL     OW91570   1.508   4.874   1.825
96558SOL    HW191571   1.527   4.782   1.806
96558SOL    HW291572   1.480   4.910   1.741
96559SOL     OW91573   5.440   7.749  13.613
96559SOL    HW191574   5.349   7.720  13.621
96559SOL    HW291575   5.486   7.702  13.682
96560SOL     OW91576  14.610   6.458   7.391
96560SOL    HW191577  14.605   6.553   7.383
96560SOL    HW291578  14.654   6.429   7.311
96561SOL     OW91579   5.496   8.177   2.394
96561SOL    HW191580   5.427   8.112   2.410
96561SOL    HW291581   5.465   8.256   2.438
96562SOL     OW91582   5.386   4.134  14.099
96562SOL    HW191583   5.313   4.112  14.041
96562SOL    HW291584   5.450   4.064  14.084
96563SOL     OW91585  11.367   3.854  10.808
96563SOL    HW191586  11.407   3.855  10.721
96563SOL    HW291587  11.372   3.762  10.836
96564SOL     OW91588   8.531   0.937   6.415
96564SOL    HW191589   8.440   0.926   6.440
96564SOL    HW291590   8.576   0.862   6.454
96565SOL     OW91591   7.167   8.089  11.033
96565SOL    HW191592   7.136   8.007  10.993
96565SOL    HW291593   7.105   8.106  11.104
96566SOL     OW91594   6.606   8.893  13.968
96566SOL    HW191595   6.624   8.919  14.058
96566SOL    HW291596   6.691   8.870  13.931
96567SOL     OW91597   8.763   3.619   5.701
96567SOL    HW191598   8.769   3.547   5.764
96567SOL    HW291599   8.697   3.589   5.638
96568SOL     OW91600   6.061   3.352   2.615
96568SOL    HW191601   6.078   3.260   2.595
96568SOL    HW291602   5.979   3.351   2.664
96569SOL     OW91603   8.998  12.756   4.892
96569SOL    HW191604   9.081  12.797   4.915
96569SOL    HW291605   8.979  12.696   4.964
96570SOL     OW91606   9.632   2.284   9.052
96570SOL    HW191607   9.544   2.257   9.027
96570SOL    HW291608   9.660   2.344   8.982
96571SOL     OW91609   8.478  13.508   6.013
96571SOL    HW191610   8.500  13.455   5.937
96571SOL    HW291611   8.464  13.444   6.083
96572SOL     OW91612   7.719   7.316  11.343
96572SOL    HW191613   7.731   7.407  11.317
96572SOL    HW291614   7.626   7.308  11.361
96573SOL     OW91615  13.513   0.584  14.828
96573SOL    HW191616  13.593   0.624  14.793
96573SOL    HW291617  13.474   0.652   0.011
96574SOL     OW91618   7.164   4.268   0.140
96574SOL    HW191619   7.103   4.301   0.206
96574SOL    HW291620   7.236   4.331   0.141
96575SOL     OW91621   6.249   4.282  13.319
96575SOL    HW191622   6.170   4.227  13.315
96575SOL    HW291623   6.222   4.361  13.366
96576SOL     OW91624   5.532   3.310  13.954
96576SOL    HW191625   5.437   3.297  13.960
96576SOL    HW291626   5.556   3.355  14.035
96577SOL     OW91627   2.858   7.217   6.751
96577SOL    HW191628   2.838   7.158   6.679
96577SOL    HW291629   2.775   7.262   6.769
96578SOL     OW91630   1.237  14.541   7.739
96578SOL    HW191631   1.263  14.556   7.648
96578SOL    HW291632   1.286  14.463   7.766
96579SOL     OW91633  14.474  13.410  14.702
96579SOL    HW191634  14.535  13.464  14.752
96579SOL    HW291635  14.437  13.349  14.767
96580SOL     OW91636  14.710   5.726  10.438
96580SOL    HW191637  14.788   5.776  10.412
96580SOL    HW291638  14.653   5.730  10.361
96581SOL     OW91639   4.025   4.541   3.913
96581SOL    HW191640   3.956   4.582   3.965
96581SOL    HW291641   4.098   4.603   3.917
96582SOL     OW91642   9.636   2.210  10.080
96582SOL    HW191643   9.709   2.148  10.075
96582SOL    HW291644   9.677   2.296  10.083
96583SOL     OW91645   9.749   0.741   7.887
96583SOL    HW191646   9.691   0.809   7.919
96583SOL    HW291647   9.764   0.764   7.795
96584SOL     OW91648  13.706  10.430   7.582
96584SOL    HW191649  13.717  10.371   7.657
96584SOL    HW291650  13.796  10.454   7.558
96585SOL     OW91651  13.150   0.194   1.188
96585SOL    HW191652  13.104   0.191   1.272
96585SOL    HW291653  13.233   0.237   1.208
96586SOL     OW91654   5.081   6.487  12.247
96586SOL    HW191655   5.157   6.456  12.296
96586SOL    HW291656   5.006   6.444  12.287
96587SOL     OW91657  12.025  12.302   7.825
96587SOL    HW191658  11.991  12.366   7.763
96587SOL    HW291659  11.950  12.277   7.879
96588SOL     OW91660   0.925   7.626  14.502
96588SOL    HW191661   0.850   7.617  14.561
96588SOL    HW291662   0.897   7.689  14.436
96589SOL     OW91663   7.197   1.479   7.533
96589SOL    HW191664   7.248   1.408   7.570
96589SOL    HW291665   7.106   1.452   7.544
96590SOL     OW91666   5.177   0.421   9.490
96590SOL    HW191667   5.112   0.401   9.557
96590SOL    HW291668   5.217   0.337   9.469
96591SOL     OW91669   9.736   4.032   9.977
96591SOL    HW191670   9.807   4.064  10.033
96591SOL    HW291671   9.656   4.070  10.015
96592SOL     OW91672   0.570   2.820  13.721
96592SOL    HW191673   0.583   2.876  13.644
96592SOL    HW291674   0.486   2.849  13.757
96593SOL     OW91675  10.646   6.327  11.321
96593SOL    HW191676  10.624   6.255  11.379
96593SOL    HW291677  10.573   6.331  11.259
96594SOL     OW91678   7.159  11.048   5.890
96594SOL    HW191679   7.068  11.075   5.902
96594SOL    HW291680   7.154  10.970   5.835
96595SOL     OW91681  10.987   1.713   2.110
96595SOL    HW191682  11.054   1.719   2.042
96595SOL    HW291683  10.912   1.759   2.073
96596SOL     OW91684  10.564   3.797   0.682
96596SOL    HW191685  10.647   3.845   0.679
96596SOL    HW291686  10.498   3.864   0.703
96597SOL     OW91687   0.288   5.395   1.664
96597SOL    HW191688   0.205   5.443   1.662
96597SOL    HW291689   0.355   5.464   1.662
96598SOL     OW91690   5.870  11.488   0.190
96598SOL    HW191691   5.893  11.553   0.124
96598SOL    HW291692   5.835  11.539   0.263
96599SOL     OW91693  12.524  12.759  13.769
96599SOL    HW191694  12.458  12.808  13.721
96599SOL    HW291695  12.604  12.812  13.762
96600SOL     OW91696   5.053   9.181  11.552
96600SOL    HW191697   5.026   9.238  11.624
96600SOL    HW291698   5.119   9.232  11.504
96601SOL     OW91699   6.259   0.283   7.063
96601SOL    HW191700   6.264   0.308   6.971
96601SOL    HW291701   6.183   0.331   7.097
96602SOL     OW91702  10.246   4.105   3.513
96602SOL    HW191703  10.224   4.194   3.541
96602SOL    HW291704  10.199   4.048   3.574
96603SOL     OW91705   6.075  11.292  13.126
96603SOL    HW191706   6.016  11.356  13.086
96603SOL    HW291707   6.155  11.299  13.075
96604SOL     OW91708   1.109   1.500   9.177
96604SOL    HW191709   1.169   1.570   9.203
96604SOL    HW291710   1.165   1.438   9.131
96605SOL     OW91711   6.769  14.143   7.772
96605SOL    HW191712   6.793  14.226   7.731
96605SOL    HW291713   6.796  14.076   7.709
96606SOL     OW91714   5.120  14.367   7.043
96606SOL    HW191715   5.065  14.292   7.018
96606SOL    HW291716   5.090  14.391   7.131
96607SOL     OW91717  14.006   2.025   4.486
96607SOL    HW191718  13.971   2.032   4.574
96607SOL    HW291719  14.099   2.005   4.498
96608SOL     OW91720   4.571  13.997   7.437
96608SOL    HW191721   4.497  13.966   7.386
96608SOL    HW291722   4.534  14.061   7.498
96609SOL     OW91723   8.600   9.214   6.734
96609SOL    HW191724   8.679   9.166   6.758
96609SOL    HW291725   8.530   9.169   6.782
96610SOL     OW91726   5.046  13.594   2.357
96610SOL    HW191727   5.036  13.665   2.420
96610SOL    HW291728   4.960  13.588   2.313
96611SOL     OW91729   3.857   1.724   2.728
96611SOL    HW191730   3.878   1.651   2.670
96611SOL    HW291731   3.934   1.781   2.723
96612SOL     OW91732   9.632   8.211   0.016
96612SOL    HW191733   9.630   8.161  14.806
96612SOL    HW291734   9.640   8.302  14.861
96613SOL     OW91735   3.240  12.184  10.157
96613SOL    HW191736   3.307  12.147  10.101
96613SOL    HW291737   3.256  12.145  10.243
96614SOL     OW91738   2.397   0.054   6.749
96614SOL    HW191739   2.404  14.864   6.822
96614SOL    HW291740   2.395  14.870   6.671
96615SOL     OW91741   0.035   3.851   4.948
96615SOL    HW191742   0.117   3.891   4.919
96615SOL    HW291743   0.016   3.892   5.033
96616SOL     OW91744   1.288   2.678   1.948
96616SOL    HW191745   1.374   2.657   1.983
96616SOL    HW291746   1.231   2.683   2.025
96617SOL     OW91747   0.016  13.682   8.138
96617SOL    HW191748   0.017  13.588   8.158
96617SOL    HW291749  14.827  13.691   8.066
96618SOL     OW91750  11.541  11.234  11.253
96618SOL    HW191751  11.472  11.187  11.206
96618SOL    HW291752  11.617  11.227  11.196
96619SOL     OW91753   8.103   7.600   4.095
96619SOL    HW191754   8.185   7.644   4.114
96619SOL    HW291755   8.049   7.614   4.173
96620SOL     OW91756  10.103   1.793   5.150
96620SOL    HW191757  10.131   1.884   5.161
96620SOL    HW291758  10.109   1.755   5.238
96621SOL     OW91759   5.404   1.213   4.988
96621SOL    HW191760   5.402   1.298   5.031
96621SOL    HW291761   5.452   1.229   4.906
96622SOL     OW91762  10.962  13.659  14.846
96622SOL    HW191763  10.925  13.612   0.048
96622SOL    HW291764  10.891  13.715  14.814
96623SOL     OW91765   5.748  12.734   5.767
96623SOL    HW191766   5.695  12.666   5.809
96623SOL    HW291767   5.816  12.754   5.830
96624SOL     OW91768   9.571  14.193  14.843
96624SOL    HW191769   9.497  14.205  14.784
96624SOL    HW291770   9.572  14.098  14.860
96625SOL     OW91771   4.571   5.453   2.091
96625SOL    HW191772   4.514   5.529   2.085
96625SOL    HW291773   4.613   5.448   2.005
96626SOL     OW91774   7.477   0.397   5.510
96626SOL    HW191775   7.490   0.466   5.445
96626SOL    HW291776   7.490   0.315   5.461
96627SOL     OW91777   0.047  10.014  13.931
96627SOL    HW191778  14.838   9.965  13.943
96627SOL    HW291779   0.116   9.952  13.954
96628SOL     OW91780   3.642   3.821   2.759
96628SOL    HW191781   3.587   3.889   2.796
96628SOL    HW291782   3.599   3.798   2.676
96629SOL     OW91783   5.959   8.137   6.804
96629SOL    HW191784   6.054   8.140   6.789
96629SOL    HW291785   5.925   8.215   6.760
96630SOL     OW91786   2.306   4.753   0.633
96630SOL    HW191787   2.360   4.832   0.635
96630SOL    HW291788   2.278   4.746   0.542
96631SOL     OW91789   0.977  10.056   3.147
96631SOL    HW191790   1.049  10.086   3.202
96631SOL    HW291791   1.012  10.060   3.058
96632SOL     OW91792   7.997  14.078  14.423
96632SOL    HW191793   8.047  14.006  14.385
96632SOL    HW291794   8.048  14.107  14.498
96633SOL     OW91795   1.424   0.840  14.508
96633SOL    HW191796   1.441   0.759  14.557
96633SOL    HW291797   1.506   0.858  14.462
96634SOL     OW91798  11.129  10.526   6.179
96634SOL    HW191799  11.177  10.601   6.143
96634SOL    HW291800  11.132  10.460   6.110
96635SOL     OW91801  14.346   4.714   0.483
96635SOL    HW191802  14.424   4.760   0.513
96635SOL    HW291803  14.303   4.776   0.424
96636SOL     OW91804  14.259   5.925   4.378
96636SOL    HW191805  14.326   5.993   4.376
96636SOL    HW291806  14.176   5.973   4.377
96637SOL     OW91807   0.634   1.288   0.901
96637SOL    HW191808   0.679   1.324   0.978
96637SOL    HW291809   0.682   1.324   0.827
96638SOL     OW91810  11.242   2.961   4.893
96638SOL    HW191811  11.237   3.043   4.942
96638SOL    HW291812  11.236   2.892   4.960
96639SOL     OW91813   4.294   1.605  10.964
96639SOL    HW191814   4.327   1.658  10.893
96639SOL    HW291815   4.275   1.667  11.034
96640SOL     OW91816   2.790  12.042   1.775
96640SOL    HW191817   2.835  12.112   1.821
96640SOL    HW291818   2.719  12.015   1.834
96641SOL     OW91819  11.077   9.712   8.332
96641SOL    HW191820  11.170   9.727   8.316
96641SOL    HW291821  11.033   9.748   8.255
96642SOL     OW91822   7.483   2.838   3.147
96642SOL    HW191823   7.577   2.842   3.166
96642SOL    HW291824   7.442   2.893   3.213
96643SOL     OW91825  13.489   6.726   4.195
96643SOL    HW191826  13.553   6.740   4.264
96643SOL    HW291827  13.511   6.791   4.128
96644SOL     OW91828   1.858   2.922  12.065
96644SOL    HW191829   1.902   2.995  12.108
96644SOL    HW291830   1.764   2.939  12.078
96645SOL     OW91831   6.077  10.919   2.847
96645SOL    HW191832   6.131  10.962   2.781
96645SOL    HW291833   6.094  10.826   2.835
96646SOL     OW91834   9.445  12.358   5.713
96646SOL    HW191835   9.379  12.380   5.778
96646SOL    HW291836   9.396  12.343   5.632
96647SOL     OW91837  13.606   7.600   4.456
96647SOL    HW191838  13.575   7.616   4.545
96647SOL    HW291839  13.679   7.539   4.467
96648SOL     OW91840  14.833  11.752   8.644
96648SOL    HW191841  14.872  11.825   8.594
96648SOL    HW291842  14.794  11.696   8.577
96649SOL     OW91843   5.948   5.300   6.649
96649SOL    HW191844   5.889   5.325   6.720
96649SOL    HW291845   5.890   5.264   6.582
96650SOL     OW91846   9.215   5.610  11.877
96650SOL    HW191847   9.184   5.520  11.887
96650SOL    HW291848   9.283   5.620  11.943
96651SOL     OW91849  10.334  13.407   6.401
96651SOL    HW191850  10.248  13.437   6.372
96651SOL    HW291851  10.395  13.447   6.340
96652SOL     OW91852  12.467  12.194   4.108
96652SOL    HW191853  12.372  12.181   4.109
96652SOL    HW291854  12.502  12.119   4.156
96653SOL     OW91855  12.061   4.602   7.131
96653SOL    HW191856  12.024   4.513   7.135
96653SOL    HW291857  12.148   4.590   7.093
96654SOL     OW91858   5.207  12.582  13.250
96654SOL    HW191859   5.162  12.666  13.246
96654SOL    HW291860   5.249  12.582  13.336
96655SOL     OW91861   5.595  14.575   6.864
96655SOL    HW191862   5.593  14.643   6.797
96655SOL    HW291863   5.504  14.547   6.873
96656SOL     OW91864   8.645  14.426   7.440
96656SOL    HW191865   8.685  14.392   7.520
96656SOL    HW291866   8.717  14.469   7.394
96657SOL     OW91867   5.001   0.577   7.053
96657SOL    HW191868   4.918   0.591   7.098
96657SOL    HW291869   5.013   0.655   7.000
96658SOL     OW91870   8.314   1.689  10.762
96658SOL    HW191871   8.311   1.761  10.824
96658SOL    HW291872   8.265   1.618  10.804
96659SOL     OW91873   2.985   9.114   7.741
96659SOL    HW191874   2.984   9.039   7.801
96659SOL    HW291875   2.927   9.178   7.782
96660SOL     OW91876  10.122  10.192  10.805
96660SOL    HW191877  10.100  10.205  10.713
96660SOL    HW291878  10.139  10.280  10.838
96661SOL     OW91879   3.553   4.472   6.882
96661SOL    HW191880   3.465   4.471   6.846
96661SOL    HW291881   3.602   4.409   6.828
96662SOL     OW91882   0.521  10.528   4.910
96662SOL    HW191883   0.431  10.542   4.882
96662SOL    HW291884   0.550  10.451   4.861
96663SOL     OW91885   8.765   9.466   6.824
96663SOL    HW191886   8.764   9.546   6.772
96663SOL    HW291887   8.672   9.443   6.835
96664SOL     OW91888  11.401   2.490   8.505
96664SOL    HW191889  11.449   2.515   8.584
96664SOL    HW291890  11.461   2.431   8.458
96665SOL     OW91891   1.486  12.350   7.370
96665SOL    HW191892   1.449  12.285   7.310
96665SOL    HW291893   1.465  12.434   7.330
96666SOL     OW91894   0.390   0.392  10.118
96666SOL    HW191895   0.461   0.363  10.060
96666SOL    HW291896   0.433   0.452  10.179
96667SOL     OW91897   8.186  10.224  12.397
96667SOL    HW191898   8.259  10.286  12.390
96667SOL    HW291899   8.154  10.237  12.486
96668SOL     OW91900   6.879   2.710   6.051
96668SOL    HW191901   6.967   2.716   6.015
96668SOL    HW291902   6.890   2.660   6.132
96669SOL     OW91903   6.353  12.691   0.795
96669SOL    HW191904   6.316  12.603   0.805
96669SOL    HW291905   6.345  12.710   0.702
96670SOL     OW91906   3.400  11.650   0.790
96670SOL    HW191907   3.431  11.612   0.873
96670SOL    HW291908   3.392  11.574   0.731
96671SOL     OW91909   8.240  12.026  11.503
96671SOL    HW191910   8.175  12.043  11.435
96671SOL    HW291911   8.188  12.003  11.580
96672SOL     OW91912   5.949   5.181   2.088
96672SOL    HW191913   5.923   5.147   2.002
96672SOL    HW291914   5.868   5.182   2.139
96673SOL     OW91915  14.126  12.747  13.466
96673SOL    HW191916  14.210  12.759  13.422
96673SOL    HW291917  14.144  12.764  13.558
96674SOL     OW91918   5.040   7.144  10.800
96674SOL    HW191919   5.097   7.067  10.796
96674SOL    HW291920   5.014   7.160  10.709
96675SOL     OW91921   5.827   2.962  13.021
96675SOL    HW191922   5.824   2.899  13.093
96675SOL    HW291923   5.854   2.911  12.945
96676SOL     OW91924   0.882  13.649   3.108
96676SOL    HW191925   0.891  13.661   3.203
96676SOL    HW291926   0.868  13.737   3.074
96677SOL     OW91927  10.903  11.853   3.604
96677SOL    HW191928  10.897  11.809   3.520
96677SOL    HW291929  10.865  11.790   3.666
96678SOL     OW91930  13.430   1.705  12.381
96678SOL    HW191931  13.381   1.786  12.366
96678SOL    HW291932  13.521   1.729  12.366
96679SOL     OW91933   9.867   5.083   9.434
96679SOL    HW191934   9.791   5.128   9.396
96679SOL    HW291935   9.941   5.111   9.379
96680SOL     OW91936   8.319  12.138   9.455
96680SOL    HW191937   8.395  12.182   9.417
96680SOL    HW291938   8.299  12.067   9.394
96681SOL     OW91939   9.729   2.255   3.691
96681SOL    HW191940   9.784   2.300   3.627
96681SOL    HW291941   9.685   2.186   3.640
96682SOL     OW91942   8.204   2.242   2.214
96682SOL    HW191943   8.261   2.230   2.291
96682SOL    HW291944   8.265   2.243   2.140
96683SOL     OW91945   8.440   2.210   4.593
96683SOL    HW191946   8.364   2.177   4.642
96683SOL    HW291947   8.408   2.292   4.554
96684SOL     OW91948   3.818  13.302   0.095
96684SOL    HW191949   3.813  13.271   0.004
96684SOL    HW291950   3.758  13.244   0.142
96685SOL     OW91951   9.312  13.022   4.037
96685SOL    HW191952   9.376  12.974   3.985
96685SOL    HW291953   9.293  13.100   3.984
96686SOL     OW91954  10.597  10.277   4.792
96686SOL    HW191955  10.667  10.295   4.855
96686SOL    HW291956  10.630  10.312   4.709
96687SOL     OW91957   3.265   6.577  14.313
96687SOL    HW191958   3.348   6.617  14.337
96687SOL    HW291959   3.289   6.494  14.272
96688SOL     OW91960  12.277   1.870   8.557
96688SOL    HW191961  12.319   1.938   8.504
96688SOL    HW291962  12.297   1.896   8.648
96689SOL     OW91963   9.068   9.066   1.905
96689SOL    HW191964   9.091   9.019   1.985
96689SOL    HW291965   8.992   9.119   1.928
96690SOL     OW91966  10.068   9.345  13.090
96690SOL    HW191967  10.147   9.334  13.143
96690SOL    HW291968  10.100   9.353  13.000
96691SOL     OW91969  11.287   6.170  13.043
96691SOL    HW191970  11.297   6.246  13.100
96691SOL    HW291971  11.200   6.135  13.065
96692SOL     OW91972   6.295  10.513   5.207
96692SOL    HW191973   6.358  10.447   5.181
96692SOL    HW291974   6.239  10.469   5.271
96693SOL     OW91975   9.970   0.691  10.126
96693SOL    HW191976   9.970   0.786  10.142
96693SOL    HW291977   9.912   0.655  10.193
96694SOL     OW91978   5.853  12.636  12.700
96694SOL    HW191979   5.843  12.541  12.700
96694SOL    HW291980   5.789  12.668  12.636
96695SOL     OW91981   4.496   8.376  10.513
96695SOL    HW191982   4.568   8.319  10.483
96695SOL    HW291983   4.422   8.351  10.458
96696SOL     OW91984   6.675   4.335   9.885
96696SOL    HW191985   6.600   4.277   9.901
96696SOL    HW291986   6.642   4.401   9.824
96697SOL     OW91987  14.191  10.721   6.341
96697SOL    HW191988  14.178  10.633   6.304
96697SOL    HW291989  14.286  10.732   6.343
96698SOL     OW91990  14.668   0.378  14.017
96698SOL    HW191991  14.608   0.382  14.091
96698SOL    HW291992  14.612   0.352  13.943
96699SOL     OW91993   3.818   4.227   7.130
96699SOL    HW191994   3.842   4.177   7.051
96699SOL    HW291995   3.727   4.253   7.114
96700SOL     OW91996   5.857   1.827  13.879
96700SOL    HW191997   5.949   1.806  13.862
96700SOL    HW291998   5.844   1.912  13.836
96701SOL     OW91999   6.441  12.897   1.645
96701SOL    HW192000   6.436  12.845   1.725
96701SOL    HW292001   6.370  12.864   1.591
96702SOL     OW92002   9.989   7.038   4.299
96702SOL    HW192003   9.960   7.000   4.216
96702SOL    HW292004   9.998   7.132   4.280
96703SOL     OW92005  12.972   2.541   4.610
96703SOL    HW192006  12.909   2.546   4.682
96703SOL    HW292007  12.940   2.604   4.546
96704SOL     OW92008  10.373   1.199   2.861
96704SOL    HW192009  10.292   1.160   2.830
96704SOL    HW292010  10.349   1.288   2.888
96705SOL     OW92011   3.569   1.881  11.136
96705SOL    HW192012   3.634   1.903  11.202
96705SOL    HW292013   3.609   1.811  11.085
96706SOL     OW92014   8.265  11.128   3.155
96706SOL    HW192015   8.358  11.129   3.132
96706SOL    HW292016   8.261  11.170   3.241
96707SOL     OW92017   7.928   0.776  13.218
96707SOL    HW192018   7.967   0.688  13.220
96707SOL    HW292019   7.884   0.784  13.303
96708SOL     OW92020   1.693   0.670   3.490
96708SOL    HW192021   1.600   0.679   3.509
96708SOL    HW292022   1.732   0.751   3.522
96709SOL     OW92023  13.779  10.234   4.028
96709SOL    HW192024  13.845  10.169   4.003
96709SOL    HW292025  13.736  10.257   3.946
96710SOL     OW92026   6.699  12.535  10.071
96710SOL    HW192027   6.682  12.444  10.046
96710SOL    HW292028   6.788  12.533  10.106
96711SOL     OW92029   5.996  10.920   2.315
96711SOL    HW192030   6.001  10.850   2.250
96711SOL    HW292031   6.074  10.972   2.300
96712SOL     OW92032  13.760   0.767   5.740
96712SOL    HW192033  13.835   0.715   5.768
96712SOL    HW292034  13.686   0.731   5.788
96713SOL     OW92035   9.401   5.277   0.400
96713SOL    HW192036   9.355   5.329   0.334
96713SOL    HW292037   9.340   5.207   0.422
96714SOL     OW92038  11.862   3.657   9.711
96714SOL    HW192039  11.774   3.696   9.713
96714SOL    HW292040  11.917   3.720   9.757
96715SOL     OW92041   6.028   0.416   7.103
96715SOL    HW192042   5.978   0.337   7.124
96715SOL    HW292043   5.963   0.477   7.067
96716SOL     OW92044  10.518   3.206   7.964
96716SOL    HW192045  10.500   3.184   8.056
96716SOL    HW292046  10.477   3.135   7.915
96717SOL     OW92047  13.658   7.130   9.149
96717SOL    HW192048  13.694   7.218   9.165
96717SOL    HW292049  13.589   7.144   9.084
96718SOL     OW92050  12.839  11.543   7.161
96718SOL    HW192051  12.913  11.596   7.190
96718SOL    HW292052  12.866  11.509   7.076
96719SOL     OW92053  11.768   0.681  12.645
96719SOL    HW192054  11.821   0.601  12.646
96719SOL    HW292055  11.687   0.655  12.602
96720SOL     OW92056  12.756   1.680   0.524
96720SOL    HW192057  12.816   1.624   0.572
96720SOL    HW292058  12.721   1.624   0.454
96721SOL     OW92059   2.743   3.412   3.915
96721SOL    HW192060   2.781   3.336   3.871
96721SOL    HW292061   2.778   3.487   3.868
96722SOL     OW92062  11.594   1.550   1.972
96722SOL    HW192063  11.573   1.486   2.040
96722SOL    HW292064  11.555   1.514   1.893
96723SOL     OW92065   1.156   8.005   2.960
96723SOL    HW192066   1.176   7.969   2.873
96723SOL    HW292067   1.240   8.034   2.994
96724SOL     OW92068   9.041  10.522   8.625
96724SOL    HW192069   9.119  10.548   8.576
96724SOL    HW292070   8.969  10.570   8.584
96725SOL     OW92071  12.222   2.992  14.022
96725SOL    HW192072  12.272   2.937  13.963
96725SOL    HW292073  12.196   3.068  13.970
96726SOL     OW92074   7.486  12.203  12.543
96726SOL    HW192075   7.527  12.288  12.562
96726SOL    HW292076   7.481  12.201  12.447
96727SOL     OW92077  10.657   9.674  11.504
96727SOL    HW192078  10.582   9.624  11.473
96727SOL    HW292079  10.686   9.724  11.428
96728SOL     OW92080  14.103  13.030   9.420
96728SOL    HW192081  14.075  13.104   9.475
96728SOL    HW292082  14.179  13.063   9.373
96729SOL     OW92083   1.353   1.020  11.583
96729SOL    HW192084   1.418   1.085  11.556
96729SOL    HW292085   1.324   1.050  11.669
96730SOL     OW92086   7.033   4.620   1.150
96730SOL    HW192087   7.039   4.613   1.245
96730SOL    HW292088   6.962   4.683   1.135
96731SOL     OW92089   3.321   4.810  11.074
96731SOL    HW192090   3.228   4.830  11.084
96731SOL    HW292091   3.324   4.747  11.001
96732SOL     OW92092   4.230  14.532   7.064
96732SOL    HW192093   4.308  14.587   7.053
96732SOL    HW292094   4.201  14.550   7.154
96733SOL     OW92095   6.666   1.819   2.821
96733SOL    HW192096   6.703   1.876   2.753
96733SOL    HW292097   6.572   1.822   2.807
96734SOL     OW92098   1.970   0.923   9.502
96734SOL    HW192099   2.032   0.990   9.475
96734SOL    HW292100   1.954   0.872   9.422
96735SOL     OW92101   7.747   7.347  10.923
96735SOL    HW192102   7.801   7.425  10.918
96735SOL    HW292103   7.682   7.358  10.854
96736SOL     OW92104   2.008   4.463   8.999
96736SOL    HW192105   1.974   4.450   9.087
96736SOL    HW292106   2.099   4.489   9.011
96737SOL     OW92107   5.781  13.796  10.448
96737SOL    HW192108   5.794  13.701  10.445
96737SOL    HW292109   5.689  13.807  10.472
96738SOL     OW92110  10.766  10.204   7.409
96738SOL    HW192111  10.805  10.128   7.453
96738SOL    HW292112  10.833  10.272   7.414
96739SOL     OW92113   2.695   1.963   1.903
96739SOL    HW192114   2.717   1.945   1.994
96739SOL    HW292115   2.715   2.056   1.891
96740SOL     OW92116  10.809  11.269   4.964
96740SOL    HW192117  10.732  11.262   5.020
96740SOL    HW292118  10.799  11.354   4.920
96741SOL     OW92119  10.790   0.428  14.785
96741SOL    HW192120  10.724   0.376  14.831
96741SOL    HW292121  10.748   0.513  14.770
96742SOL     OW92122   5.442   0.108  11.191
96742SOL    HW192123   5.536   0.116  11.179
96742SOL    HW292124   5.432   0.051  11.267
96743SOL     OW92125  13.451   3.644   1.541
96743SOL    HW192126  13.475   3.588   1.616
96743SOL    HW292127  13.503   3.610   1.468
96744SOL     OW92128   3.694  11.595   4.114
96744SOL    HW192129   3.638  11.555   4.181
96744SOL    HW292130   3.649  11.677   4.093
96745SOL     OW92131  14.541   9.450   1.997
96745SOL    HW192132  14.554   9.514   2.067
96745SOL    HW292133  14.573   9.367   2.033
96746SOL     OW92134   4.031   1.390  14.378
96746SOL    HW192135   4.126   1.379  14.374
96746SOL    HW292136   4.017   1.454  14.447
96747SOL     OW92137   5.160  14.728  12.178
96747SOL    HW192138   5.160  14.636  12.154
96747SOL    HW292139   5.232  14.766  12.129
96748SOL     OW92140  10.208   2.212   3.199
96748SOL    HW192141  10.298   2.178   3.200
96748SOL    HW292142  10.157   2.144   3.156
96749SOL     OW92143   4.636   0.621  13.383
96749SOL    HW192144   4.654   0.582  13.469
96749SOL    HW292145   4.695   0.696  13.378
96750SOL     OW92146   9.803   1.699   4.419
96750SOL    HW192147   9.859   1.664   4.488
96750SOL    HW292148   9.730   1.637   4.415
96751SOL     OW92149   1.465   7.230   4.602
96751SOL    HW192150   1.525   7.304   4.610
96751SOL    HW292151   1.383   7.269   4.572
96752SOL     OW92152   5.539   3.558  10.367
96752SOL    HW192153   5.534   3.532  10.275
96752SOL    HW292154   5.609   3.623  10.370
96753SOL     OW92155  12.306   8.415   1.700
96753SOL    HW192156  12.327   8.486   1.639
96753SOL    HW292157  12.319   8.335   1.649
96754SOL     OW92158   9.000   2.354  14.496
96754SOL    HW192159   9.062   2.297  14.451
96754SOL    HW292160   9.011   2.333  14.589
96755SOL     OW92161   9.517   7.940   8.043
96755SOL    HW192162   9.460   7.902   8.110
96755SOL    HW292163   9.458   7.986   7.984
96756SOL     OW92164   0.786   5.689   2.903
96756SOL    HW192165   0.792   5.736   2.820
96756SOL    HW292166   0.853   5.621   2.897
96757SOL     OW92167   0.445   7.930   5.550
96757SOL    HW192168   0.490   7.986   5.613
96757SOL    HW292169   0.417   7.854   5.601
96758SOL     OW92170  10.869   7.379   9.344
96758SOL    HW192171  10.920   7.391   9.264
96758SOL    HW292172  10.817   7.460   9.351
96759SOL     OW92173   6.447  11.705   7.090
96759SOL    HW192174   6.491  11.633   7.134
96759SOL    HW292175   6.360  11.670   7.068
96760SOL     OW92176   6.982  12.098  10.236
96760SOL    HW192177   6.972  12.003  10.224
96760SOL    HW292178   6.913  12.121  10.298
96761SOL     OW92179   1.832   3.770   7.892
96761SOL    HW192180   1.793   3.753   7.978
96761SOL    HW292181   1.760   3.754   7.830
96762SOL     OW92182  13.311   6.895  10.259
96762SOL    HW192183  13.247   6.874  10.328
96762SOL    HW292184  13.360   6.969  10.294
96763SOL     OW92185   2.805  12.335   1.614
96763SOL    HW192186   2.822  12.290   1.531
96763SOL    HW292187   2.854  12.417   1.607
96764SOL     OW92188   2.729   9.492   0.894
96764SOL    HW192189   2.669   9.560   0.863
96764SOL    HW292190   2.791   9.481   0.822
96765SOL     OW92191   8.343   8.945  10.781
96765SOL    HW192192   8.380   8.874  10.832
96765SOL    HW292193   8.271   8.905  10.731
96766SOL     OW92194  13.614   1.431   6.191
96766SOL    HW192195  13.542   1.405   6.133
96766SOL    HW292196  13.610   1.369   6.264
96767SOL     OW92197   9.209   5.480   1.401
96767SOL    HW192198   9.236   5.555   1.348
96767SOL    HW292199   9.123   5.504   1.434
96768SOL     OW92200   7.928   4.097   6.343
96768SOL    HW192201   7.971   4.099   6.258
96768SOL    HW292202   7.841   4.061   6.325
96769SOL     OW92203   9.260   6.396  11.344
96769SOL    HW192204   9.281   6.425  11.433
96769SOL    HW292205   9.325   6.329  11.325
96770SOL     OW92206   2.220   6.808   9.167
96770SOL    HW192207   2.257   6.728   9.204
96770SOL    HW292208   2.296   6.863   9.147
96771SOL     OW92209   5.983  11.469  11.820
96771SOL    HW192210   5.888  11.475  11.812
96771SOL    HW292211   6.015  11.549  11.778
96772SOL     OW92212   4.774  10.267   0.902
96772SOL    HW192213   4.722  10.308   0.971
96772SOL    HW292214   4.828  10.203   0.947
96773SOL     OW92215   1.547   7.139   2.663
96773SOL    HW192216   1.613   7.083   2.621
96773SOL    HW292217   1.468   7.086   2.663
96774SOL     OW92218  10.269  12.020   8.448
96774SOL    HW192219  10.296  11.940   8.492
96774SOL    HW292220  10.194  12.051   8.499
96775SOL     OW92221   0.290   7.936  12.716
96775SOL    HW192222   0.247   7.921  12.800
96775SOL    HW292223   0.285   7.852  12.671
96776SOL     OW92224   0.523   4.693   3.838
96776SOL    HW192225   0.471   4.764   3.800
96776SOL    HW292226   0.467   4.616   3.830
96777SOL     OW92227   8.248   1.305   0.712
96777SOL    HW192228   8.224   1.397   0.714
96777SOL    HW292229   8.165   1.258   0.721
96778SOL     OW92230  12.617   2.603   8.598
96778SOL    HW192231  12.612   2.649   8.514
96778SOL    HW292232  12.707   2.617   8.628
96779SOL     OW92233   6.264  12.206  14.861
96779SOL    HW192234   6.262  12.285   0.044
96779SOL    HW292235   6.172  12.181  14.853
96780SOL     OW92236   6.772   8.843  12.384
96780SOL    HW192237   6.782   8.750  12.365
96780SOL    HW292238   6.770   8.885  12.298
96781SOL     OW92239  11.696   1.146   5.842
96781SOL    HW192240  11.659   1.135   5.755
96781SOL    HW292241  11.622   1.137   5.901
96782SOL     OW92242   9.962   9.112   6.545
96782SOL    HW192243   9.983   9.064   6.465
96782SOL    HW292244  10.029   9.086   6.607
96783SOL     OW92245   8.734   2.382   6.845
96783SOL    HW192246   8.721   2.454   6.784
96783SOL    HW292247   8.710   2.304   6.795
96784SOL     OW92248   5.935   0.995   6.639
96784SOL    HW192249   5.945   0.902   6.657
96784SOL    HW292250   6.009   1.017   6.582
96785SOL     OW92251  13.410   1.448   0.393
96785SOL    HW192252  13.348   1.390   0.350
96785SOL    HW292253  13.496   1.417   0.365
96786SOL     OW92254   4.417   7.961   1.373
96786SOL    HW192255   4.402   7.871   1.344
96786SOL    HW292256   4.387   7.962   1.464
96787SOL     OW92257   2.794  13.196  13.933
96787SOL    HW192258   2.786  13.280  13.889
96787SOL    HW292259   2.745  13.207  14.015
96788SOL     OW92260   7.431  11.412  10.509
96788SOL    HW192261   7.355  11.363  10.477
96788SOL    HW292262   7.480  11.434  10.430
96789SOL     OW92263   6.657   2.701   3.448
96789SOL    HW192264   6.704   2.770   3.494
96789SOL    HW292265   6.571   2.738   3.431
96790SOL     OW92266  10.188  11.701  13.636
96790SOL    HW192267  10.203  11.763  13.706
96790SOL    HW292268  10.165  11.619  13.681
96791SOL     OW92269   8.774  13.923   1.079
96791SOL    HW192270   8.765  13.927   0.984
96791SOL    HW292271   8.686  13.906   1.111
96792SOL     OW92272  11.066   5.087   0.097
96792SOL    HW192273  11.155   5.100   0.128
96792SOL    HW292274  11.062   4.995   0.073
96793SOL     OW92275   0.063  10.996   7.852
96793SOL    HW192276   0.128  10.928   7.835
96793SOL    HW292277  14.860  10.950   7.889
96794SOL     OW92278   7.611  10.998   0.594
96794SOL    HW192279   7.583  10.956   0.513
96794SOL    HW292280   7.530  11.010   0.644
96795SOL     OW92281   9.425   8.450  10.512
96795SOL    HW192282   9.345   8.460  10.461
96795SOL    HW292283   9.398   8.405  10.592
96796SOL     OW92284   9.917   8.281   9.512
96796SOL    HW192285   9.876   8.210   9.563
96796SOL    HW292286   9.914   8.250   9.422
96797SOL     OW92287   1.996   3.123  12.196
96797SOL    HW192288   1.964   3.186  12.261
96797SOL    HW292289   2.080   3.093  12.232
96798SOL     OW92290  11.869   6.865   3.546
96798SOL    HW192291  11.802   6.887   3.610
96798SOL    HW292292  11.820   6.830   3.471
96799SOL     OW92293  12.234   7.051  10.278
96799SOL    HW192294  12.184   7.045  10.359
96799SOL    HW292295  12.254   6.960  10.255
96800SOL     OW92296   9.217   6.077   0.458
96800SOL    HW192297   9.196   6.168   0.476
96800SOL    HW292298   9.142   6.045   0.408
96801SOL     OW92299   9.457   1.091   8.359
96801SOL    HW192300   9.539   1.136   8.341
96801SOL    HW292301   9.450   1.024   8.291
96802SOL     OW92302   9.251   0.439   7.987
96802SOL    HW192303   9.300   0.482   7.917
96802SOL    HW292304   9.211   0.363   7.946
96803SOL     OW92305   1.423   6.859   3.018
96803SOL    HW192306   1.431   6.818   3.104
96803SOL    HW292307   1.355   6.926   3.029
96804SOL     OW92308  10.883   9.381  14.157
96804SOL    HW192309  10.918   9.315  14.217
96804SOL    HW292310  10.802   9.410  14.198
96805SOL     OW92311   3.513   4.503   1.060
96805SOL    HW192312   3.550   4.464   0.981
96805SOL    HW292313   3.538   4.595   1.055
96806SOL     OW92314   0.614   3.257   4.850
96806SOL    HW192315   0.696   3.267   4.898
96806SOL    HW292316   0.563   3.195   4.901
96807SOL     OW92317   6.139   5.876  14.776
96807SOL    HW192318   6.099   5.901  14.693
96807SOL    HW292319   6.121   5.782  14.784
96808SOL     OW92320  12.628  10.444  10.697
96808SOL    HW192321  12.706  10.422  10.647
96808SOL    HW292322  12.598  10.526  10.659
96809SOL     OW92323  12.552   1.897   1.928
96809SOL    HW192324  12.615   1.848   1.875
96809SOL    HW292325  12.586   1.987   1.927
96810SOL     OW92326   4.723   9.250   3.891
96810SOL    HW192327   4.667   9.328   3.892
96810SOL    HW292328   4.662   9.176   3.897
96811SOL     OW92329  14.831  10.404  10.337
96811SOL    HW192330  14.778  10.462  10.282
96811SOL    HW292331   0.049  10.432  10.322
96812SOL     OW92332  13.232   2.058  10.582
96812SOL    HW192333  13.151   2.073  10.630
96812SOL    HW292334  13.287   2.008  10.643
96813SOL     OW92335   3.586  12.481   2.584
96813SOL    HW192336   3.519  12.500   2.518
96813SOL    HW292337   3.585  12.557   2.642
96814SOL     OW92338   0.405  14.124   5.558
96814SOL    HW192339   0.338  14.178   5.515
96814SOL    HW292340   0.488  14.159   5.527
96815SOL     OW92341   3.253   7.554  14.734
96815SOL    HW192342   3.244   7.584  14.643
96815SOL    HW292343   3.282   7.631  14.782
96816SOL     OW92344  12.769   8.830  11.550
96816SOL    HW192345  12.848   8.786  11.519
96816SOL    HW292346  12.716   8.761  11.590
96817SOL     OW92347  14.490   3.662   5.154
96817SOL    HW192348  14.584   3.649   5.138
96817SOL    HW292349  14.469   3.743   5.107
96818SOL     OW92350   0.112   4.325   0.890
96818SOL    HW192351   0.098   4.368   0.806
96818SOL    HW292352   0.157   4.392   0.943
96819SOL     OW92353   9.993   6.451   6.872
96819SOL    HW192354  10.043   6.423   6.949
96819SOL    HW292355  10.004   6.546   6.870
96820SOL     OW92356   1.457   7.831   9.219
96820SOL    HW192357   1.398   7.864   9.151
96820SOL    HW292358   1.456   7.899   9.287
96821SOL     OW92359  11.560  10.104   3.951
96821SOL    HW192360  11.474  10.133   3.919
96821SOL    HW292361  11.587  10.036   3.888
96822SOL     OW92362   3.258   5.435   7.610
96822SOL    HW192363   3.258   5.347   7.574
96822SOL    HW292364   3.217   5.426   7.697
96823SOL     OW92365  13.457  13.033  13.629
96823SOL    HW192366  13.417  13.044  13.715
96823SOL    HW292367  13.488  12.943  13.627
96824SOL     OW92368   6.314   0.175   1.959
96824SOL    HW192369   6.297   0.175   1.865
96824SOL    HW292370   6.296   0.086   1.987
96825SOL     OW92371   8.246  13.631   3.918
96825SOL    HW192372   8.173  13.616   3.978
96825SOL    HW292373   8.206  13.628   3.831
96826SOL     OW92374  14.004  12.203  13.105
96826SOL    HW192375  14.083  12.250  13.129
96826SOL    HW292376  14.033  12.113  13.087
96827SOL     OW92377   4.600   7.519   7.017
96827SOL    HW192378   4.598   7.550   6.927
96827SOL    HW292379   4.520   7.467   7.026
96828SOL     OW92380   6.001  13.026   7.361
96828SOL    HW192381   6.079  12.997   7.315
96828SOL    HW292382   6.032  13.095   7.420
96829SOL     OW92383  13.257  11.068  12.033
96829SOL    HW192384  13.185  11.120  11.997
96829SOL    HW292385  13.313  11.132  12.076
96830SOL     OW92386   4.546  10.030   9.061
96830SOL    HW192387   4.513  10.030   9.151
96830SOL    HW292388   4.607   9.956   9.058
96831SOL     OW92389  14.608   5.505   9.477
96831SOL    HW192390  14.528   5.540   9.438
96831SOL    HW292391  14.671   5.505   9.405
96832SOL     OW92392   3.756  11.258   1.650
96832SOL    HW192393   3.712  11.284   1.731
96832SOL    HW292394   3.767  11.163   1.658
96833SOL     OW92395  13.683  13.811   7.143
96833SOL    HW192396  13.634  13.773   7.070
96833SOL    HW292397  13.702  13.737   7.201
96834SOL     OW92398   6.259   2.089   6.904
96834SOL    HW192399   6.241   2.124   6.816
96834SOL    HW292400   6.349   2.057   6.899
96835SOL     OW92401   9.097  11.451  12.842
96835SOL    HW192402   9.173  11.405  12.876
96835SOL    HW292403   9.048  11.385  12.793
96836SOL     OW92404  12.775  12.962   0.151
96836SOL    HW192405  12.698  12.918   0.188
96836SOL    HW292406  12.849  12.925   0.198
96837SOL     OW92407   9.447   6.623  13.792
96837SOL    HW192408   9.461   6.609  13.885
96837SOL    HW292409   9.356   6.652  13.785
96838SOL     OW92410   5.597  10.647   2.861
96838SOL    HW192411   5.529  10.613   2.802
96838SOL    HW292412   5.618  10.573   2.917
96839SOL     OW92413   1.235  12.964   3.086
96839SOL    HW192414   1.203  12.874   3.096
96839SOL    HW292415   1.283  12.963   3.004
96840SOL     OW92416   6.119   3.596   2.451
96840SOL    HW192417   6.110   3.514   2.499
96840SOL    HW292418   6.207   3.626   2.472
96841SOL     OW92419   4.001   9.235   4.138
96841SOL    HW192420   3.916   9.279   4.140
96841SOL    HW292421   4.064   9.305   4.123
96842SOL     OW92422   6.569  12.096   6.273
96842SOL    HW192423   6.585  12.183   6.309
96842SOL    HW292424   6.615  12.036   6.332
96843SOL     OW92425   5.615   0.811   7.053
96843SOL    HW192426   5.692   0.824   7.108
96843SOL    HW292427   5.544   0.855   7.100
96844SOL     OW92428  14.212  10.248   0.228
96844SOL    HW192429  14.164  10.239   0.146
96844SOL    HW292430  14.257  10.333   0.221
96845SOL     OW92431   3.837  13.372   9.537
96845SOL    HW192432   3.840  13.277   9.554
96845SOL    HW292433   3.775  13.382   9.466
96846SOL     OW92434  14.778   0.854  13.601
96846SOL    HW192435  14.859   0.809  13.574
96846SOL    HW292436  14.779   0.848  13.697
96847SOL     OW92437   7.956   0.210   6.746
96847SOL    HW192438   8.008   0.143   6.702
96847SOL    HW292439   7.876   0.215   6.694
96848SOL     OW92440   3.649   4.778   5.246
96848SOL    HW192441   3.609   4.744   5.166
96848SOL    HW292442   3.710   4.710   5.273
96849SOL     OW92443   7.731   4.560   8.212
96849SOL    HW192444   7.772   4.615   8.278
96849SOL    HW292445   7.642   4.546   8.243
96850SOL     OW92446   3.108  14.668   9.767
96850SOL    HW192447   3.193  14.693   9.804
96850SOL    HW292448   3.062  14.751   9.756
96851SOL     OW92449   5.192   7.118   0.868
96851SOL    HW192450   5.279   7.106   0.905
96851SOL    HW292451   5.137   7.055   0.915
96852SOL     OW92452   2.177   1.883  14.006
96852SOL    HW192453   2.228   1.961  13.987
96852SOL    HW292454   2.095   1.915  14.043
96853SOL     OW92455  11.045   7.712   7.906
96853SOL    HW192456  11.100   7.779   7.865
96853SOL    HW292457  11.053   7.729   8.000
96854SOL     OW92458   1.247   0.240  13.528
96854SOL    HW192459   1.201   0.251  13.445
96854SOL    HW292460   1.323   0.187  13.506
96855SOL     OW92461   1.231  10.560  10.693
96855SOL    HW192462   1.169  10.627  10.723
96855SOL    HW292463   1.180  10.506  10.632
96856SOL     OW92464   5.469  13.862   9.609
96856SOL    HW192465   5.388  13.812   9.601
96856SOL    HW292466   5.463  13.928   9.540
96857SOL     OW92467  13.068  10.810  13.062
96857SOL    HW192468  12.995  10.754  13.088
96857SOL    HW292469  13.129  10.806  13.136
96858SOL     OW92470  13.187   9.015   7.823
96858SOL    HW192471  13.267   9.059   7.795
96858SOL    HW292472  13.119   9.083   7.817
96859SOL     OW92473   5.022   5.404   5.455
96859SOL    HW192474   5.032   5.405   5.550
96859SOL    HW292475   4.984   5.490   5.434
96860SOL     OW92476   2.262  10.218   4.712
96860SOL    HW192477   2.264  10.122   4.709
96860SOL    HW292478   2.351  10.245   4.691
96861SOL     OW92479   5.156   2.145   0.810
96861SOL    HW192480   5.132   2.158   0.902
96861SOL    HW292481   5.239   2.097   0.814
96862SOL     OW92482   1.471  10.474   4.036
96862SOL    HW192483   1.514  10.391   4.014
96862SOL    HW292484   1.538  10.540   4.024
96863SOL     OW92485   0.754   4.513   6.923
96863SOL    HW192486   0.729   4.449   6.856
96863SOL    HW292487   0.783   4.459   6.998
96864SOL     OW92488   8.655  11.776   6.613
96864SOL    HW192489   8.585  11.812   6.668
96864SOL    HW292490   8.638  11.811   6.526
96865SOL     OW92491   6.951   9.400   1.907
96865SOL    HW192492   6.873   9.428   1.860
96865SOL    HW292493   7.016   9.385   1.838
96866SOL     OW92494  14.453   8.418   2.671
96866SOL    HW192495  14.440   8.384   2.582
96866SOL    HW292496  14.492   8.345   2.719
96867SOL     OW92497   6.468   0.490   0.817
96867SOL    HW192498   6.485   0.561   0.754
96867SOL    HW292499   6.538   0.499   0.881
96868SOL     OW92500   3.680   0.429   5.334
96868SOL    HW192501   3.750   0.393   5.389
96868SOL    HW292502   3.714   0.514   5.304
96869SOL     OW92503   4.966   0.643   8.348
96869SOL    HW192504   4.886   0.604   8.383
96869SOL    HW292505   4.976   0.725   8.398
96870SOL     OW92506   3.177   1.805   9.084
96870SOL    HW192507   3.228   1.796   9.165
96870SOL    HW292508   3.086   1.800   9.113
96871SOL     OW92509   4.992   0.143   8.285
96871SOL    HW192510   5.061   0.210   8.288
96871SOL    HW292511   4.995   0.110   8.195
96872SOL     OW92512   7.463   5.333   4.470
96872SOL    HW192513   7.481   5.305   4.380
96872SOL    HW292514   7.549   5.346   4.509
96873SOL     OW92515   5.784   9.377   5.211
96873SOL    HW192516   5.745   9.424   5.285
96873SOL    HW292517   5.870   9.350   5.241
96874SOL     OW92518  14.865   2.834   2.476
96874SOL    HW192519   0.001   2.879   2.560
96874SOL    HW292520  14.838   2.903   2.415
96875SOL     OW92521   3.634   8.944   5.043
96875SOL    HW192522   3.570   8.880   5.012
96875SOL    HW292523   3.616   8.953   5.136
96876SOL     OW92524   4.267   3.044   6.939
96876SOL    HW192525   4.212   3.100   6.994
96876SOL    HW292526   4.345   3.098   6.921
96877SOL     OW92527  13.210   0.030   5.569
96877SOL    HW192528  13.256  14.828   5.609
96877SOL    HW292529  13.273   0.101   5.573
96878SOL     OW92530   9.441  14.379  13.273
96878SOL    HW192531   9.370  14.429  13.313
96878SOL    HW292532   9.500  14.446  13.238
96879SOL     OW92533  14.380  11.038   3.170
96879SOL    HW192534  14.288  11.045   3.197
96879SOL    HW292535  14.422  11.115   3.207
96880SOL     OW92536   2.103   6.434   7.075
96880SOL    HW192537   2.149   6.512   7.044
96880SOL    HW292538   2.100   6.376   6.999
96881SOL     OW92539  10.248  12.522  13.325
96881SOL    HW192540  10.170  12.528  13.379
96881SOL    HW292541  10.320  12.511  13.387
96882SOL     OW92542  13.256   7.683   2.595
96882SOL    HW192543  13.188   7.698   2.661
96882SOL    HW292544  13.272   7.589   2.598
96883SOL     OW92545   1.479  11.486  10.584
96883SOL    HW192546   1.448  11.396  10.585
96883SOL    HW292547   1.495  11.506  10.492
96884SOL     OW92548  13.586  14.078  14.188
96884SOL    HW192549  13.617  14.008  14.245
96884SOL    HW292550  13.514  14.039  14.139
96885SOL     OW92551  12.738   5.491   8.802
96885SOL    HW192552  12.738   5.427   8.874
96885SOL    HW292553  12.710   5.440   8.726
96886SOL     OW92554   5.490   2.106   3.232
96886SOL    HW192555   5.411   2.087   3.283
96886SOL    HW292556   5.460   2.168   3.165
96887SOL     OW92557   4.411   3.357   4.482
96887SOL    HW192558   4.441   3.447   4.470
96887SOL    HW292559   4.341   3.346   4.418
96888SOL     OW92560   6.906   3.403   1.438
96888SOL    HW192561   6.880   3.449   1.358
96888SOL    HW292562   6.943   3.471   1.494
96889SOL     OW92563  10.768   7.821   6.059
96889SOL    HW192564  10.769   7.902   6.110
96889SOL    HW292565  10.675   7.804   6.043
96890SOL     OW92566   1.604   3.446  10.543
96890SOL    HW192567   1.620   3.515  10.608
96890SOL    HW292568   1.677   3.385  10.555
96891SOL     OW92569  12.814   8.353   7.582
96891SOL    HW192570  12.858   8.413   7.643
96891SOL    HW292571  12.727   8.391   7.571
96892SOL     OW92572   3.282  11.937   7.923
96892SOL    HW192573   3.339  11.884   7.868
96892SOL    HW292574   3.313  11.922   8.013
96893SOL     OW92575   3.884   2.972   8.765
96893SOL    HW192576   3.860   2.931   8.682
96893SOL    HW292577   3.979   2.960   8.771
96894SOL     OW92578   5.483   0.163   2.728
96894SOL    HW192579   5.566   0.210   2.724
96894SOL    HW292580   5.423   0.223   2.774
96895SOL     OW92581   3.386   9.972   4.497
96895SOL    HW192582   3.409  10.031   4.425
96895SOL    HW292583   3.463   9.915   4.507
96896SOL     OW92584   5.142  11.099  13.213
96896SOL    HW192585   5.141  11.194  13.204
96896SOL    HW292586   5.054  11.071  13.187
96897SOL     OW92587   1.079   6.705   1.617
96897SOL    HW192588   1.121   6.641   1.560
96897SOL    HW292589   1.109   6.790   1.584
96898SOL     OW92590  10.081  12.640  10.272
96898SOL    HW192591  10.095  12.575  10.340
96898SOL    HW292592  10.027  12.595  10.207
96899SOL     OW92593  10.382   5.272   7.538
96899SOL    HW192594  10.382   5.315   7.624
96899SOL    HW292595  10.440   5.196   7.550
96900SOL     OW92596   8.556   2.218  10.996
96900SOL    HW192597   8.471   2.200  11.036
96900SOL    HW292598   8.583   2.302  11.034
96901SOL     OW92599   2.068  14.086  11.679
96901SOL    HW192600   2.023  14.083  11.595
96901SOL    HW292601   2.075  14.180  11.698
96902SOL     OW92602   3.481   6.864   8.755
96902SOL    HW192603   3.398   6.900   8.786
96902SOL    HW292604   3.547   6.925   8.789
96903SOL     OW92605  14.092   2.932   7.323
96903SOL    HW192606  14.047   2.849   7.307
96903SOL    HW292607  14.031   2.999   7.294
96904SOL     OW92608  11.446  10.602   0.229
96904SOL    HW192609  11.371  10.622   0.285
96904SOL    HW292610  11.513  10.569   0.289
96905SOL     OW92611   3.047  12.062   9.718
96905SOL    HW192612   3.107  12.017   9.777
96905SOL    HW292613   3.086  12.148   9.705
96906SOL     OW92614   2.033   6.355  12.606
96906SOL    HW192615   2.070   6.415  12.542
96906SOL    HW292616   2.094   6.281  12.608
96907SOL     OW92617   3.983   7.921   6.953
96907SOL    HW192618   3.942   7.872   6.883
96907SOL    HW292619   3.914   7.979   6.986
96908SOL     OW92620   8.744   9.213   4.265
96908SOL    HW192621   8.669   9.191   4.209
96908SOL    HW292622   8.707   9.270   4.333
96909SOL     OW92623   0.828   7.594   2.858
96909SOL    HW192624   0.822   7.598   2.763
96909SOL    HW292625   0.847   7.684   2.885
96910SOL     OW92626   8.314   3.510   1.639
96910SOL    HW192627   8.265   3.466   1.709
96910SOL    HW292628   8.402   3.521   1.675
96911SOL     OW92629  10.287   7.674  12.693
96911SOL    HW192630  10.257   7.634  12.611
96911SOL    HW292631  10.320   7.600  12.745
96912SOL     OW92632   2.562   6.960   4.345
96912SOL    HW192633   2.496   6.901   4.383
96912SOL    HW292634   2.512   7.036   4.317
96913SOL     OW92635   4.410   2.646  11.841
96913SOL    HW192636   4.346   2.621  11.774
96913SOL    HW292637   4.380   2.602  11.921
96914SOL     OW92638  14.116   2.447  14.788
96914SOL    HW192639  14.082   2.371  14.739
96914SOL    HW292640  14.210   2.430  14.795
96915SOL     OW92641  10.903  11.156   9.343
96915SOL    HW192642  10.970  11.106   9.390
96915SOL    HW292643  10.844  11.091   9.307
96916SOL     OW92644   9.168   2.480   0.017
96916SOL    HW192645   9.248   2.456   0.066
96916SOL    HW292646   9.178   2.573  14.871
96917SOL     OW92647  11.510   6.915   3.020
96917SOL    HW192648  11.490   6.925   2.927
96917SOL    HW292649  11.573   6.985   3.038
96918SOL     OW92650   0.605  11.313  11.178
96918SOL    HW192651   0.625  11.223  11.153
96918SOL    HW292652   0.685  11.344  11.221
96919SOL     OW92653   3.391   7.237   1.967
96919SOL    HW192654   3.341   7.272   1.894
96919SOL    HW292655   3.481   7.234   1.935
96920SOL     OW92656  12.833  12.704   3.032
96920SOL    HW192657  12.752  12.716   2.983
96920SOL    HW292658  12.873  12.790   3.035
96921SOL     OW92659  10.310  10.252   2.019
96921SOL    HW192660  10.312  10.255   1.924
96921SOL    HW292661  10.359  10.330   2.047
96922SOL     OW92662  12.722   2.009   6.990
96922SOL    HW192663  12.768   1.965   6.918
96922SOL    HW292664  12.787   2.067   7.028
96923SOL     OW92665   8.913   6.725  10.858
96923SOL    HW192666   8.836   6.689  10.903
96923SOL    HW292667   8.900   6.703  10.766
96924SOL     OW92668  11.979  10.973   0.818
96924SOL    HW192669  12.027  11.018   0.748
96924SOL    HW292670  11.887  10.985   0.795
96925SOL     OW92671   3.067   7.929   3.360
96925SOL    HW192672   3.159   7.923   3.384
96925SOL    HW292673   3.050   8.023   3.352
96926SOL     OW92674  11.714   2.616   6.550
96926SOL    HW192675  11.760   2.674   6.611
96926SOL    HW292676  11.750   2.640   6.464
96927SOL     OW92677   7.972   7.128  12.389
96927SOL    HW192678   7.992   7.106  12.298
96927SOL    HW292679   8.040   7.190  12.414
96928SOL     OW92680  10.348   1.353   4.962
96928SOL    HW192681  10.337   1.434   5.013
96928SOL    HW292682  10.276   1.297   4.992
96929SOL     OW92683   6.742   3.212   9.268
96929SOL    HW192684   6.690   3.292   9.262
96929SOL    HW292685   6.695   3.158   9.332
96930SOL     OW92686  14.165   6.271   6.183
96930SOL    HW192687  14.125   6.204   6.127
96930SOL    HW292688  14.098   6.339   6.190
96931SOL     OW92689  13.591  11.182   6.156
96931SOL    HW192690  13.673  11.231   6.143
96931SOL    HW292691  13.614  11.116   6.222
96932SOL     OW92692  11.602   0.878   0.449
96932SOL    HW192693  11.507   0.869   0.449
96932SOL    HW292694  11.627   0.871   0.357
96933SOL     OW92695  13.911   3.208  11.415
96933SOL    HW192696  13.893   3.234  11.325
96933SOL    HW292697  13.927   3.113  11.410
96934SOL     OW92698   1.799   8.757  10.264
96934SOL    HW192699   1.794   8.732  10.357
96934SOL    HW292700   1.892   8.771  10.248
96935SOL     OW92701  13.592   5.424   2.744
96935SOL    HW192702  13.517   5.384   2.700
96935SOL    HW292703  13.560   5.446   2.832
96936SOL     OW92704   0.489  10.238   5.331
96936SOL    HW192705   0.487  10.295   5.407
96936SOL    HW292706   0.582  10.224   5.314
96937SOL     OW92707  10.808   7.420   7.341
96937SOL    HW192708  10.772   7.334   7.363
96937SOL    HW292709  10.744   7.457   7.280
96938SOL     OW92710   8.322   4.760  11.788
96938SOL    HW192711   8.399   4.766  11.732
96938SOL    HW292712   8.278   4.844  11.778
96939SOL     OW92713   2.586   1.411   4.335
96939SOL    HW192714   2.551   1.322   4.331
96939SOL    HW292715   2.516   1.462   4.378
96940SOL     OW92716   8.249   7.666  11.235
96940SOL    HW192717   8.257   7.761  11.226
96940SOL    HW292718   8.161   7.647  11.201
96941SOL     OW92719   8.623   2.447  11.128
96941SOL    HW192720   8.668   2.438  11.212
96941SOL    HW292721   8.530   2.445  11.149
96942SOL     OW92722   6.050   3.929   0.465
96942SOL    HW192723   6.064   3.973   0.381
96942SOL    HW292724   6.124   3.869   0.474
96943SOL     OW92725   9.646  10.240   4.784
96943SOL    HW192726   9.623  10.147   4.779
96943SOL    HW292727   9.637  10.272   4.694
96944SOL     OW92728  12.385   1.416   6.672
96944SOL    HW192729  12.324   1.356   6.629
96944SOL    HW292730  12.472   1.378   6.656
96945SOL     OW92731  12.270   9.815  10.995
96945SOL    HW192732  12.338   9.853  10.939
96945SOL    HW292733  12.227   9.891  11.035
96946SOL     OW92734   2.883   8.609  11.282
96946SOL    HW192735   2.842   8.680  11.332
96946SOL    HW292736   2.921   8.551  11.349
96947SOL     OW92737  14.403  13.450  10.968
96947SOL    HW192738  14.487  13.427  10.928
96947SOL    HW292739  14.379  13.534  10.927
96948SOL     OW92740   2.852  11.183  13.045
96948SOL    HW192741   2.919  11.169  12.978
96948SOL    HW292742   2.836  11.277  13.043
96949SOL     OW92743  14.613   6.840   9.424
96949SOL    HW192744  14.665   6.832   9.504
96949SOL    HW292745  14.619   6.932   9.400
96950SOL     OW92746   1.859   1.633  10.446
96950SOL    HW192747   1.901   1.628  10.360
96950SOL    HW292748   1.897   1.560  10.495
96951SOL     OW92749  13.601   9.051   3.075
96951SOL    HW192750  13.519   9.073   3.118
96951SOL    HW292751  13.655   9.011   3.143
96952SOL     OW92752  13.771   5.791  13.644
96952SOL    HW192753  13.757   5.710  13.595
96952SOL    HW292754  13.776   5.764  13.735
96953SOL     OW92755  14.800  12.482  10.253
96953SOL    HW192756  14.810  12.387  10.263
96953SOL    HW292757  14.716  12.493  10.209
96954SOL     OW92758   3.533  14.325  10.904
96954SOL    HW192759   3.546  14.322  10.809
96954SOL    HW292760   3.599  14.386  10.936
96955SOL     OW92761  13.950   2.959   7.689
96955SOL    HW192762  13.882   2.939   7.625
96955SOL    HW292763  13.927   2.907   7.766
96956SOL     OW92764   3.995   2.901   6.680
96956SOL    HW192765   3.976   2.925   6.589
96956SOL    HW292766   4.090   2.893   6.683
96957SOL     OW92767   3.774   7.395   6.067
96957SOL    HW192768   3.859   7.437   6.064
96957SOL    HW292769   3.722   7.449   6.127
96958SOL     OW92770  14.197  13.512  11.154
96958SOL    HW192771  14.116  13.525  11.104
96958SOL    HW292772  14.260  13.481  11.089
96959SOL     OW92773  11.457  14.005   4.588
96959SOL    HW192774  11.510  13.929   4.614
96959SOL    HW292775  11.504  14.080   4.625
96960SOL     OW92776   2.812   9.087   2.919
96960SOL    HW192777   2.806   9.182   2.925
96960SOL    HW292778   2.797   9.057   3.009
96961SOL     OW92779   4.615   2.790   0.984
96961SOL    HW192780   4.599   2.873   0.939
96961SOL    HW292781   4.681   2.812   1.050
96962SOL     OW92782   8.672   7.839  11.820
96962SOL    HW192783   8.616   7.775  11.775
96962SOL    HW292784   8.616   7.915  11.832
96963SOL     OW92785   2.007   9.415  11.376
96963SOL    HW192786   2.023   9.393  11.467
96963SOL    HW292787   2.067   9.488  11.358
96964SOL     OW92788   7.380   1.261   0.791
96964SOL    HW192789   7.402   1.354   0.782
96964SOL    HW292790   7.409   1.222   0.709
96965SOL     OW92791   6.745   2.722   2.375
96965SOL    HW192792   6.782   2.808   2.395
96965SOL    HW292793   6.672   2.713   2.436
96966SOL     OW92794  12.264  13.822  11.337
96966SOL    HW192795  12.196  13.853  11.397
96966SOL    HW292796  12.300  13.902  11.299
96967SOL     OW92797  11.274   2.799  10.532
96967SOL    HW192798  11.337   2.870  10.543
96967SOL    HW292799  11.302   2.731  10.593
96968SOL     OW92800   2.974   4.605   4.004
96968SOL    HW192801   2.943   4.600   4.094
96968SOL    HW292802   2.897   4.587   3.951
96969SOL     OW92803   8.191   0.108   4.583
96969SOL    HW192804   8.097   0.099   4.600
96969SOL    HW292805   8.233   0.091   4.667
96970SOL     OW92806  10.032  11.905   8.130
96970SOL    HW192807  10.093  11.978   8.113
96970SOL    HW292808  10.014  11.910   8.223
96971SOL     OW92809   9.447   6.411   5.623
96971SOL    HW192810   9.455   6.506   5.614
96971SOL    HW292811   9.360   6.390   5.591
96972SOL     OW92812   3.754  12.745   9.171
96972SOL    HW192813   3.735  12.736   9.077
96972SOL    HW292814   3.794  12.832   9.178
96973SOL     OW92815   9.788   2.707   9.493
96973SOL    HW192816   9.796   2.614   9.472
96973SOL    HW292817   9.699   2.716   9.526
96974SOL     OW92818   4.325   3.125  14.073
96974SOL    HW192819   4.418   3.128  14.097
96974SOL    HW292820   4.324   3.076  13.990
96975SOL     OW92821   7.632   1.633   8.105
96975SOL    HW192822   7.570   1.662   8.173
96975SOL    HW292823   7.716   1.669   8.133
96976SOL     OW92824   6.990   9.597   6.057
96976SOL    HW192825   7.072   9.587   6.106
96976SOL    HW292826   6.942   9.516   6.073
96977SOL     OW92827  13.461   4.926   4.716
96977SOL    HW192828  13.517   4.849   4.725
96977SOL    HW292829  13.520   4.996   4.690
96978SOL     OW92830   7.879   2.907  11.594
96978SOL    HW192831   7.894   2.993  11.634
96978SOL    HW292832   7.957   2.856  11.619
96979SOL     OW92833   6.283   9.635   0.476
96979SOL    HW192834   6.279   9.604   0.385
96979SOL    HW292835   6.359   9.589   0.514
96980SOL     OW92836  12.825   5.501  11.309
96980SOL    HW192837  12.869   5.576  11.268
96980SOL    HW292838  12.739   5.534  11.334
96981SOL     OW92839  12.643   2.008   8.269
96981SOL    HW192840  12.602   2.084   8.227
96981SOL    HW292841  12.726   1.997   8.223
96982SOL     OW92842   7.767   2.797   8.144
96982SOL    HW192843   7.791   2.841   8.062
96982SOL    HW292844   7.685   2.837   8.170
96983SOL     OW92845   7.577  11.222   6.519
96983SOL    HW192846   7.585  11.289   6.587
96983SOL    HW292847   7.483  11.204   6.514
96984SOL     OW92848   4.876   7.536   6.132
96984SOL    HW192849   4.835   7.479   6.067
96984SOL    HW292850   4.833   7.514   6.215
96985SOL     OW92851   9.071   8.984   4.909
96985SOL    HW192852   9.079   9.007   5.002
96985SOL    HW292853   9.160   8.959   4.883
96986SOL     OW92854   3.755   7.573  14.106
96986SOL    HW192855   3.667   7.598  14.077
96986SOL    HW292856   3.808   7.651  14.091
96987SOL     OW92857  14.725   4.961  12.249
96987SOL    HW192858  14.643   4.998  12.216
96987SOL    HW292859  14.782   4.955  12.172
96988SOL     OW92860   9.797   6.033  13.811
96988SOL    HW192861   9.880   6.049  13.767
96988SOL    HW292862   9.818   6.037  13.904
96989SOL     OW92863  11.565   1.316   1.789
96989SOL    HW192864  11.553   1.275   1.704
96989SOL    HW292865  11.632   1.263   1.832
96990SOL     OW92866  11.935   3.619   1.022
96990SOL    HW192867  11.960   3.678   1.094
96990SOL    HW292868  11.964   3.665   0.943
96991SOL     OW92869  11.415  13.113  11.072
96991SOL    HW192870  11.470  13.037  11.091
96991SOL    HW292871  11.353  13.082  11.006
96992SOL     OW92872  13.544   3.482   3.052
96992SOL    HW192873  13.537   3.573   3.081
96992SOL    HW292874  13.456   3.446   3.066
96993SOL     OW92875   0.091   9.602  12.192
96993SOL    HW192876  14.868   9.604  12.182
96993SOL    HW292877   0.117   9.694  12.195
96994SOL     OW92878  14.812   9.139  10.731
96994SOL    HW192879  14.850   9.224  10.710
96994SOL    HW292880  14.853   9.114  10.814
96995SOL     OW92881   3.884  10.985   1.382
96995SOL    HW192882   3.819  10.914   1.383
96995SOL    HW292883   3.831  11.065   1.374
96996SOL     OW92884   7.257   1.848  11.682
96996SOL    HW192885   7.233   1.756  11.681
96996SOL    HW292886   7.342   1.851  11.638
96997SOL     OW92887   3.599   3.274  11.250
96997SOL    HW192888   3.566   3.260  11.338
96997SOL    HW292889   3.524   3.307  11.201
96998SOL     OW92890  10.393   0.255   4.758
96998SOL    HW192891  10.476   0.303   4.751
96998SOL    HW292892  10.328   0.323   4.774
96999SOL     OW92893   0.185   1.211   5.491
96999SOL    HW192894   0.246   1.168   5.552
96999SOL    HW292895   0.121   1.254   5.547
97000SOL     OW92896   1.493  13.446   1.921
97000SOL    HW192897   1.417  13.421   1.974
97000SOL    HW292898   1.471  13.532   1.886
97001SOL     OW92899   0.553   6.890   2.762
97001SOL    HW192900   0.511   6.900   2.847
97001SOL    HW292901   0.606   6.969   2.751
97002SOL     OW92902   7.731  11.750   2.889
97002SOL    HW192903   7.776  11.676   2.848
97002SOL    HW292904   7.715  11.721   2.979
97003SOL     OW92905   8.281   4.327   8.236
97003SOL    HW192906   8.294   4.253   8.295
97003SOL    HW292907   8.231   4.291   8.162
97004SOL     OW92908   2.639   0.255   9.910
97004SOL    HW192909   2.692   0.321   9.866
97004SOL    HW292910   2.690   0.229   9.986
97005SOL     OW92911  10.898   4.091   0.423
97005SOL    HW192912  10.877   4.167   0.369
97005SOL    HW292913  10.979   4.116   0.468
97006SOL     OW92914   9.106   2.804   3.292
97006SOL    HW192915   9.133   2.881   3.241
97006SOL    HW292916   9.135   2.823   3.381
97007SOL     OW92917   0.148   5.545   4.356
97007SOL    HW192918   0.140   5.633   4.394
97007SOL    HW292919   0.180   5.491   4.428
97008SOL     OW92920   9.043   8.817  11.051
97008SOL    HW192921   8.996   8.900  11.045
97008SOL    HW292922   9.004   8.763  10.982
97009SOL     OW92923   4.607  10.919   5.123
97009SOL    HW192924   4.540  10.867   5.167
97009SOL    HW292925   4.561  10.961   5.050
97010SOL     OW92926   0.868  10.445   6.724
97010SOL    HW192927   0.773  10.447   6.709
97010SOL    HW292928   0.885  10.356   6.757
97011SOL     OW92929  10.081   1.103   5.294
97011SOL    HW192930  10.140   1.095   5.218
97011SOL    HW292931  10.006   1.047   5.272
97012SOL     OW92932  13.122  11.201   4.597
97012SOL    HW192933  13.154  11.280   4.640
97012SOL    HW292934  13.191  11.177   4.535
97013SOL     OW92935   2.267  10.028   9.713
97013SOL    HW192936   2.324  10.104   9.727
97013SOL    HW292937   2.237  10.038   9.623
97014SOL     OW92938   2.276  13.712   7.472
97014SOL    HW192939   2.232  13.667   7.400
97014SOL    HW292940   2.213  13.779   7.500
97015SOL     OW92941  12.731   2.622   8.268
97015SOL    HW192942  12.654   2.644   8.216
97015SOL    HW292943  12.738   2.693   8.332
97016SOL     OW92944   8.240  12.664   6.505
97016SOL    HW192945   8.310  12.613   6.544
97016SOL    HW292946   8.244  12.643   6.412
97017SOL     OW92947   7.032   9.108   6.880
97017SOL    HW192948   7.109   9.162   6.900
97017SOL    HW292949   6.971   9.128   6.951
97018SOL     OW92950   3.031   3.711   8.930
97018SOL    HW192951   3.009   3.760   8.851
97018SOL    HW292952   2.990   3.760   9.001
97019SOL     OW92953  13.093   2.924  14.489
97019SOL    HW192954  13.009   2.901  14.528
97019SOL    HW292955  13.156   2.868  14.535
97020SOL     OW92956   2.122   3.427  11.204
97020SOL    HW192957   2.139   3.425  11.298
97020SOL    HW292958   2.096   3.517  11.186
97021SOL     OW92959   0.972   3.476  10.040
97021SOL    HW192960   1.061   3.445  10.021
97021SOL    HW292961   0.937   3.502   9.954
97022SOL     OW92962  10.900  10.520  13.989
97022SOL    HW192963  10.910  10.600  13.938
97022SOL    HW292964  10.945  10.539  14.072
97023SOL     OW92965   7.868   3.734   6.519
97023SOL    HW192966   7.944   3.746   6.577
97023SOL    HW292967   7.853   3.640   6.519
97024SOL     OW92968   7.943   4.953   1.575
97024SOL    HW192969   7.906   4.963   1.662
97024SOL    HW292970   7.889   4.885   1.534
97025SOL     OW92971   7.183  13.883   4.327
97025SOL    HW192972   7.217  13.799   4.357
97025SOL    HW292973   7.223  13.947   4.386
97026SOL     OW92974   9.197   3.203   4.465
97026SOL    HW192975   9.165   3.145   4.395
97026SOL    HW292976   9.117   3.234   4.508
97027SOL     OW92977   8.526  11.242   3.095
97027SOL    HW192978   8.570  11.273   3.016
97027SOL    HW292979   8.572  11.285   3.167
97028SOL     OW92980   4.853   2.887  10.231
97028SOL    HW192981   4.854   2.791  10.226
97028SOL    HW292982   4.857   2.906  10.324
97029SOL     OW92983   0.877  13.660   7.717
97029SOL    HW192984   0.947  13.700   7.665
97029SOL    HW292985   0.824  13.735   7.747
97030SOL     OW92986   1.795   1.903  14.487
97030SOL    HW192987   1.719   1.852  14.515
97030SOL    HW292988   1.771   1.994  14.501
97031SOL     OW92989   7.680   0.200  12.944
97031SOL    HW192990   7.763   0.210  12.990
97031SOL    HW292991   7.674   0.106  12.926
97032SOL     OW92992   4.220  10.232   2.576
97032SOL    HW192993   4.194  10.281   2.654
97032SOL    HW292994   4.316  10.234   2.578
97033SOL     OW92995  11.940   6.234   8.002
97033SOL    HW192996  11.970   6.324   7.991
97033SOL    HW292997  11.867   6.240   8.064
97034SOL     OW92998  10.176   3.002   0.509
97034SOL    HW192999  10.154   2.916   0.474
97034SOL    HW293000  10.260   2.989   0.553
97035SOL     OW93001   7.394  11.434  11.949
97035SOL    HW193002   7.413  11.508  11.891
97035SOL    HW293003   7.418  11.466  12.037
97036SOL     OW93004   7.515   6.343   3.649
97036SOL    HW193005   7.482   6.302   3.729
97036SOL    HW293006   7.473   6.429   3.646
97037SOL     OW93007  10.650  10.558   6.245
97037SOL    HW193008  10.573  10.596   6.288
97037SOL    HW293009  10.713  10.547   6.316
97038SOL     OW93010  12.858  10.390  10.104
97038SOL    HW193011  12.797  10.320  10.078
97038SOL    HW293012  12.941  10.345  10.119
97039SOL     OW93013   9.835  10.715  12.233
97039SOL    HW193014   9.924  10.741  12.254
97039SOL    HW293015   9.824  10.631  12.277
97040SOL     OW93016   9.442   9.284  13.595
97040SOL    HW193017   9.420   9.263  13.504
97040SOL    HW293018   9.358   9.287  13.640
97041SOL     OW93019  10.523   2.884  13.723
97041SOL    HW193020  10.600   2.939  13.725
97041SOL    HW293021  10.462   2.930  13.665
97042SOL     OW93022   2.798  11.592   4.104
97042SOL    HW193023   2.727  11.604   4.168
97042SOL    HW293024   2.832  11.680   4.090
97043SOL     OW93025   0.379   3.714   0.237
97043SOL    HW193026   0.287   3.727   0.216
97043SOL    HW293027   0.426   3.760   0.168
97044SOL     OW93028   1.689  13.941   2.280
97044SOL    HW193029   1.782  13.939   2.300
97044SOL    HW293030   1.654  14.014   2.332
97045SOL     OW93031  12.414   4.875  10.264
97045SOL    HW193032  12.406   4.970  10.252
97045SOL    HW293033  12.500   4.854  10.226
97046SOL     OW93034   3.754  12.683  13.455
97046SOL    HW193035   3.701  12.609  13.427
97046SOL    HW293036   3.771  12.733  13.375
97047SOL     OW93037   6.578   1.934   6.303
97047SOL    HW193038   6.608   2.014   6.260
97047SOL    HW293039   6.652   1.906   6.355
97048SOL     OW93040   2.318   0.184   0.672
97048SOL    HW193041   2.302   0.226   0.588
97048SOL    HW293042   2.243   0.209   0.726
97049SOL     OW93043   5.199  14.535   9.866
97049SOL    HW193044   5.106  14.553   9.875
97049SOL    HW293045   5.227  14.510   9.955
97050SOL     OW93046   9.602  12.697   2.654
97050SOL    HW193047   9.682  12.674   2.703
97050SOL    HW293048   9.607  12.792   2.643
97051SOL     OW93049  11.721  13.326   9.249
97051SOL    HW193050  11.742  13.292   9.336
97051SOL    HW293051  11.789  13.290   9.193
97052SOL     OW93052   7.827   4.627   0.779
97052SOL    HW193053   7.778   4.687   0.835
97052SOL    HW293054   7.896   4.681   0.741
97053SOL     OW93055   0.177   1.366  14.014
97053SOL    HW193056   0.193   1.460  14.023
97053SOL    HW293057   0.252   1.325  14.057
97054SOL     OW93058   5.561   3.639   2.683
97054SOL    HW193059   5.548   3.612   2.774
97054SOL    HW293060   5.657   3.644   2.674
97055SOL     OW93061  14.772   9.874  11.875
97055SOL    HW193062  14.839   9.833  11.822
97055SOL    HW293063  14.716   9.802  11.904
97056SOL     OW93064   3.304  10.195  10.778
97056SOL    HW193065   3.313  10.179  10.872
97056SOL    HW293066   3.232  10.259  10.772
97057SOL     OW93067  11.254  12.679   6.471
97057SOL    HW193068  11.251  12.683   6.567
97057SOL    HW293069  11.267  12.769   6.443
97058SOL     OW93070  13.042   7.008  12.350
97058SOL    HW193071  12.955   6.975  12.328
97058SOL    HW293072  13.071   7.054  12.272
97059SOL     OW93073  12.471   1.282   0.412
97059SOL    HW193074  12.461   1.187   0.403
97059SOL    HW293075  12.490   1.296   0.505
97060SOL     OW93076   7.034  12.665   4.099
97060SOL    HW193077   6.978  12.597   4.061
97060SOL    HW293078   7.006  12.669   4.191
97061SOL     OW93079  13.894   7.672  12.626
97061SOL    HW193080  13.930   7.615  12.559
97061SOL    HW293081  13.800   7.667  12.614
97062SOL     OW93082   8.994  14.741  10.950
97062SOL    HW193083   8.991  14.732  10.855
97062SOL    HW293084   9.063  14.804  10.967
97063SOL     OW93085  14.795   3.182   3.050
97063SOL    HW193086  14.768   3.102   3.096
97063SOL    HW293087  14.840   3.234   3.117
97064SOL     OW93088   6.555  11.193  10.166
97064SOL    HW193089   6.646  11.189  10.195
97064SOL    HW293090   6.533  11.287  10.169
97065SOL     OW93091   6.511  13.622   6.276
97065SOL    HW193092   6.547  13.609   6.364
97065SOL    HW293093   6.549  13.705   6.247
97066SOL     OW93094   6.014   4.893  12.037
97066SOL    HW193095   6.059   4.810  12.051
97066SOL    HW293096   6.074   4.959  12.072
97067SOL     OW93097  14.484   4.396   6.467
97067SOL    HW193098  14.496   4.321   6.408
97067SOL    HW293099  14.567   4.444   6.461
97068SOL     OW93100   2.502   9.326   2.852
97068SOL    HW193101   2.588   9.343   2.889
97068SOL    HW293102   2.518   9.312   2.758
97069SOL     OW93103   8.959  10.421  14.772
97069SOL    HW193104   9.044  10.455  14.744
97069SOL    HW293105   8.980  10.344  14.825
97070SOL     OW93106   5.139   1.526  13.166
97070SOL    HW193107   5.220   1.517  13.117
97070SOL    HW293108   5.131   1.620  13.183
97071SOL     OW93109   0.326   5.701   8.599
97071SOL    HW193110   0.300   5.630   8.541
97071SOL    HW293111   0.386   5.754   8.548
97072SOL     OW93112   3.199  10.252   5.731
97072SOL    HW193113   3.167  10.280   5.817
97072SOL    HW293114   3.149  10.303   5.668
97073SOL     OW93115   8.543   6.615   5.261
97073SOL    HW193116   8.461   6.572   5.235
97073SOL    HW293117   8.516   6.676   5.330
97074SOL     OW93118   9.237   3.312   4.865
97074SOL    HW193119   9.247   3.226   4.823
97074SOL    HW293120   9.199   3.367   4.797
97075SOL     OW93121   5.878  14.119   3.816
97075SOL    HW193122   5.899  14.159   3.900
97075SOL    HW293123   5.798  14.070   3.831
97076SOL     OW93124  10.603   0.437  13.983
97076SOL    HW193125  10.554   0.486  14.049
97076SOL    HW293126  10.677   0.495  13.961
97077SOL     OW93127   8.075   5.363   5.960
97077SOL    HW193128   7.991   5.341   6.001
97077SOL    HW293129   8.121   5.280   5.951
97078SOL     OW93130  14.782   3.506   8.061
97078SOL    HW193131  14.779   3.420   8.019
97078SOL    HW293132  14.728   3.562   8.005
97079SOL     OW93133   2.629  10.712   3.324
97079SOL    HW193134   2.705  10.727   3.268
97079SOL    HW293135   2.665  10.675   3.404
97080SOL     OW93136  10.978   0.980  10.518
97080SOL    HW193137  10.890   0.968  10.482
97080SOL    HW293138  10.964   0.993  10.612
97081SOL     OW93139   4.320   8.648  13.468
97081SOL    HW193140   4.359   8.735  13.479
97081SOL    HW293141   4.332   8.629  13.375
97082SOL     OW93142   2.951   6.620  12.081
97082SOL    HW193143   2.939   6.667  11.998
97082SOL    HW293144   3.003   6.681  12.134
97083SOL     OW93145   0.168   8.216  10.013
97083SOL    HW193146   0.203   8.222   9.924
97083SOL    HW293147   0.241   8.240  10.069
97084SOL     OW93148  12.431  13.662  13.378
97084SOL    HW193149  12.403  13.574  13.353
97084SOL    HW293150  12.473  13.697  13.300
97085SOL     OW93151   1.440   9.102  14.709
97085SOL    HW193152   1.452   9.196  14.717
97085SOL    HW293153   1.364   9.082  14.764
97086SOL     OW93154   2.956  13.830  10.666
97086SOL    HW193155   3.011  13.763  10.627
97086SOL    HW293156   2.938  13.799  10.755
97087SOL     OW93157   3.466   5.082   5.117
97087SOL    HW193158   3.445   5.035   5.198
97087SOL    HW293159   3.433   5.026   5.047
97088SOL     OW93160   3.109   0.905   4.912
97088SOL    HW193161   3.112   0.876   5.004
97088SOL    HW293162   3.096   1.000   4.918
97089SOL     OW93163   5.257   9.840   5.712
97089SOL    HW193164   5.327   9.822   5.649
97089SOL    HW293165   5.179   9.802   5.673
97090SOL     OW93166   5.982   4.938   6.930
97090SOL    HW193167   5.940   4.854   6.914
97090SOL    HW293168   5.926   4.980   6.996
97091SOL     OW93169   2.939   3.207   7.810
97091SOL    HW193170   3.017   3.224   7.864
97091SOL    HW293171   2.930   3.112   7.810
97092SOL     OW93172  12.036  14.848   3.582
97092SOL    HW193173  12.044  14.763   3.624
97092SOL    HW293174  12.067  14.833   3.492
97093SOL     OW93175   0.169   5.556  13.624
97093SOL    HW193176   0.080   5.540  13.592
97093SOL    HW293177   0.181   5.651  13.615
97094SOL     OW93178   2.605   2.791  10.591
97094SOL    HW193179   2.583   2.814  10.501
97094SOL    HW293180   2.529   2.741  10.622
97095SOL     OW93181   1.852   5.412   9.888
97095SOL    HW193182   1.798   5.337   9.862
97095SOL    HW293183   1.790   5.484   9.895
97096SOL     OW93184  12.773   8.446  10.133
97096SOL    HW193185  12.795   8.511  10.066
97096SOL    HW293186  12.702   8.486  10.183
97097SOL     OW93187   4.204   4.167  13.700
97097SOL    HW193188   4.175   4.083  13.663
97097SOL    HW293189   4.230   4.219  13.624
97098SOL     OW93190   9.378   5.799   7.434
97098SOL    HW193191   9.450   5.802   7.498
97098SOL    HW293192   9.332   5.718   7.455
97099SOL     OW93193   8.500  13.921   9.386
97099SOL    HW193194   8.584  13.965   9.401
97099SOL    HW293195   8.446  13.988   9.344
97100SOL     OW93196   4.628  11.147   2.952
97100SOL    HW193197   4.697  11.082   2.945
97100SOL    HW293198   4.638  11.203   2.875
97101SOL     OW93199   1.533   3.050   8.046
97101SOL    HW193200   1.544   3.064   7.952
97101SOL    HW293201   1.438   3.051   8.059
97102SOL     OW93202  10.268   4.007   7.427
97102SOL    HW193203  10.287   3.983   7.518
97102SOL    HW293204  10.238   3.926   7.387
97103SOL     OW93205   1.357   9.166   3.723
97103SOL    HW193206   1.282   9.181   3.780
97103SOL    HW293207   1.343   9.227   3.650
97104SOL     OW93208  13.796   2.108  14.612
97104SOL    HW193209  13.819   2.019  14.588
97104SOL    HW293210  13.701   2.107  14.621
97105SOL     OW93211  11.733   2.341  11.251
97105SOL    HW193212  11.692   2.376  11.329
97105SOL    HW293213  11.817   2.388  11.244
97106SOL     OW93214   7.001   0.493   6.484
97106SOL    HW193215   6.913   0.464   6.458
97106SOL    HW293216   7.019   0.445   6.565
97107SOL     OW93217   9.837   2.380   6.061
97107SOL    HW193218   9.868   2.292   6.043
97107SOL    HW293219   9.914   2.436   6.051
97108SOL     OW93220   5.681   7.789   8.594
97108SOL    HW193221   5.662   7.840   8.673
97108SOL    HW293222   5.776   7.783   8.592
97109SOL     OW93223  13.410  10.494   8.131
97109SOL    HW193224  13.415  10.409   8.175
97109SOL    HW293225  13.497  10.506   8.093
97110SOL     OW93226   6.378   5.093  11.978
97110SOL    HW193227   6.443   5.146  12.023
97110SOL    HW293228   6.302   5.151  11.969
97111SOL     OW93229   6.069  12.408   8.537
97111SOL    HW193230   6.145  12.458   8.567
97111SOL    HW293231   6.105  12.346   8.474
97112SOL     OW93232  12.248   1.881   3.416
97112SOL    HW193233  12.241   1.845   3.504
97112SOL    HW293234  12.244   1.975   3.428
97113SOL     OW93235   6.633  14.855   3.822
97113SOL    HW193236   6.590   0.050   3.874
97113SOL    HW293237   6.660   0.028   3.742
97114SOL     OW93238   9.907   1.633  13.657
97114SOL    HW193239   9.812   1.619  13.651
97114SOL    HW293240   9.939   1.619  13.568
97115SOL     OW93241   5.869  13.511   3.261
97115SOL    HW193242   5.847  13.562   3.183
97115SOL    HW293243   5.871  13.420   3.230
97116SOL     OW93244   3.430   3.735   3.624
97116SOL    HW193245   3.446   3.808   3.564
97116SOL    HW293246   3.479   3.759   3.704
97117SOL     OW93247  12.001   6.162   1.434
97117SOL    HW193248  12.045   6.079   1.417
97117SOL    HW293249  11.920   6.138   1.480
97118SOL     OW93250   9.371  14.745   6.088
97118SOL    HW193251   9.288  14.700   6.106
97118SOL    HW293252   9.344  14.832   6.058
97119SOL     OW93253   4.968   5.829  14.690
97119SOL    HW193254   5.042   5.770  14.680
97119SOL    HW293255   4.892   5.776  14.667
97120SOL     OW93256   5.471   6.690   4.603
97120SOL    HW193257   5.552   6.721   4.643
97120SOL    HW293258   5.420   6.770   4.588
97121SOL     OW93259  13.851  13.827   4.096
97121SOL    HW193260  13.756  13.829   4.110
97121SOL    HW293261  13.869  13.739   4.064
97122SOL     OW93262   8.772   8.000   6.049
97122SOL    HW193263   8.838   7.990   6.116
97122SOL    HW293264   8.815   8.052   5.980
97123SOL     OW93265  14.150   5.598  11.462
97123SOL    HW193266  14.110   5.665  11.408
97123SOL    HW293267  14.122   5.515  11.424
97124SOL     OW93268   4.858   5.593   7.949
97124SOL    HW193269   4.815   5.673   7.921
97124SOL    HW293270   4.837   5.585   8.042
97125SOL     OW93271  14.802   4.214   9.536
97125SOL    HW193272  14.845   4.299   9.544
97125SOL    HW293273  14.869   4.156   9.499
97126SOL     OW93274  11.954  13.831   4.900
97126SOL    HW193275  11.927  13.921   4.920
97126SOL    HW293276  12.024  13.813   4.963
97127SOL     OW93277  12.539  11.621   3.195
97127SOL    HW193278  12.558  11.555   3.128
97127SOL    HW293279  12.605  11.605   3.263
97128SOL     OW93280   4.584   6.406   1.712
97128SOL    HW193281   4.656   6.468   1.719
97128SOL    HW293282   4.522   6.447   1.652
97129SOL     OW93283   2.171   9.552   4.063
97129SOL    HW193284   2.198   9.564   4.154
97129SOL    HW293285   2.139   9.462   4.059
97130SOL     OW93286   2.180   3.310  10.570
97130SOL    HW193287   2.084   3.315  10.574
97130SOL    HW293288   2.205   3.382  10.512
97131SOL     OW93289   1.955   9.940   0.318
97131SOL    HW193290   1.986   9.966   0.232
97131SOL    HW293291   2.028   9.892   0.357
97132SOL     OW93292   3.232   1.231   8.286
97132SOL    HW193293   3.207   1.149   8.243
97132SOL    HW293294   3.286   1.204   8.360
97133SOL     OW93295   6.753   0.462   9.925
97133SOL    HW193296   6.751   0.520   9.849
97133SOL    HW293297   6.722   0.378   9.891
97134SOL     OW93298  14.070   0.279   2.474
97134SOL    HW193299  14.067   0.310   2.383
97134SOL    HW293300  14.062   0.358   2.527
97135SOL     OW93301   4.526   5.917  13.201
97135SOL    HW193302   4.446   5.906  13.150
97135SOL    HW293303   4.496   5.936  13.290
97136SOL     OW93304   3.532   2.766   7.696
97136SOL    HW193305   3.616   2.737   7.661
97136SOL    HW293306   3.505   2.837   7.638
97137SOL     OW93307  12.734   3.308   4.957
97137SOL    HW193308  12.753   3.401   4.951
97137SOL    HW293309  12.820   3.267   4.972
97138SOL     OW93310  10.003   3.896   3.189
97138SOL    HW193311   9.909   3.912   3.183
97138SOL    HW293312  10.011   3.805   3.215
97139SOL     OW93313   8.945   9.310   5.035
97139SOL    HW193314   8.858   9.348   5.047
97139SOL    HW293315   8.938   9.263   4.952
97140SOL     OW93316  12.687  10.913   2.933
97140SOL    HW193317  12.739  10.841   2.969
97140SOL    HW293318  12.604  10.874   2.908
97141SOL     OW93319   5.340   3.388  12.592
97141SOL    HW193320   5.315   3.343  12.673
97141SOL    HW293321   5.319   3.325  12.523
97142SOL     OW93322  10.522   5.753   9.337
97142SOL    HW193323  10.497   5.660   9.343
97142SOL    HW293324  10.519   5.772   9.243
97143SOL     OW93325   5.073   7.370  11.004
97143SOL    HW193326   5.089   7.284  10.964
97143SOL    HW293327   5.129   7.430  10.955
97144SOL     OW93328  13.156   2.040   5.831
97144SOL    HW193329  13.099   2.101   5.879
97144SOL    HW293330  13.096   1.975   5.795
97145SOL     OW93331  13.737   9.597  11.429
97145SOL    HW193332  13.684   9.660  11.380
97145SOL    HW293333  13.767   9.644  11.506
97146SOL     OW93334   7.958  14.728   4.257
97146SOL    HW193335   8.037  14.759   4.300
97146SOL    HW293336   7.886  14.768   4.306
97147SOL     OW93337   2.462  12.989   3.201
97147SOL    HW193338   2.379  13.021   3.238
97147SOL    HW293339   2.507  13.068   3.172
97148SOL     OW93340  12.019   9.237   1.196
97148SOL    HW193341  12.007   9.169   1.262
97148SOL    HW293342  12.056   9.311   1.244
97149SOL     OW93343   3.898  12.719   7.086
97149SOL    HW193344   3.904  12.738   6.992
97149SOL    HW293345   3.873  12.627   7.090
97150SOL     OW93346  11.758   9.547   4.450
97150SOL    HW193347  11.795   9.471   4.495
97150SOL    HW293348  11.677   9.565   4.498
97151SOL     OW93349   4.387  14.095   5.300
97151SOL    HW193350   4.466  14.133   5.339
97151SOL    HW293351   4.323  14.166   5.300
97152SOL     OW93352   0.213   0.851  13.962
97152SOL    HW193353   0.261   0.896  13.892
97152SOL    HW293354   0.254   0.764  13.967
97153SOL     OW93355   2.363   2.929   2.610
97153SOL    HW193356   2.293   2.881   2.567
97153SOL    HW293357   2.345   3.021   2.591
97154SOL     OW93358   3.307  11.237   5.449
97154SOL    HW193359   3.214  11.217   5.462
97154SOL    HW293360   3.321  11.224   5.355
97155SOL     OW93361   9.122   1.591  13.849
97155SOL    HW193362   9.064   1.667  13.855
97155SOL    HW293363   9.089   1.530  13.915
97156SOL     OW93364   6.099   3.747   8.738
97156SOL    HW193365   6.077   3.787   8.823
97156SOL    HW293366   6.142   3.665   8.761
97157SOL     OW93367  11.626   5.487   1.983
97157SOL    HW193368  11.689   5.536   1.931
97157SOL    HW293369  11.637   5.522   2.072
97158SOL     OW93370   7.130  14.800   6.350
97158SOL    HW193371   7.125  14.706   6.331
97158SOL    HW293372   7.136  14.841   6.264
97159SOL     OW93373   7.249   4.852  12.836
97159SOL    HW193374   7.166   4.891  12.805
97159SOL    HW293375   7.235   4.838  12.930
97160SOL     OW93376  11.633   8.756  13.246
97160SOL    HW193377  11.641   8.671  13.288
97160SOL    HW293378  11.565   8.802  13.295
97161SOL     OW93379  11.935  11.720   8.623
97161SOL    HW193380  11.875  11.681   8.559
97161SOL    HW293381  11.894  11.702   8.708
97162SOL     OW93382  13.296   2.080   7.590
97162SOL    HW193383  13.214   2.031   7.587
97162SOL    HW293384  13.347   2.037   7.659
97163SOL     OW93385  13.400   5.416   2.374
97163SOL    HW193386  13.470   5.482   2.372
97163SOL    HW293387  13.446   5.334   2.393
97164SOL     OW93388   1.949  12.549   2.563
97164SOL    HW193389   2.036  12.588   2.562
97164SOL    HW293390   1.927  12.537   2.470
97165SOL     OW93391   5.854   9.285   3.779
97165SOL    HW193392   5.839   9.342   3.854
97165SOL    HW293393   5.850   9.196   3.814
97166SOL     OW93394  14.777  10.142   3.162
97166SOL    HW193395  14.722  10.115   3.089
97166SOL    HW293396  14.739  10.226   3.191
97167SOL     OW93397   2.295   1.813   2.182
97167SOL    HW193398   2.307   1.897   2.227
97167SOL    HW293399   2.340   1.749   2.237
97168SOL     OW93400  11.090   5.908   0.909
97168SOL    HW193401  11.099   5.947   0.821
97168SOL    HW293402  11.177   5.917   0.948
97169SOL     OW93403   6.215   5.430   0.765
97169SOL    HW193404   6.144   5.423   0.829
97169SOL    HW293405   6.295   5.419   0.817
97170SOL     OW93406  13.791  11.917   8.124
97170SOL    HW193407  13.827  11.913   8.035
97170SOL    HW293408  13.854  11.969   8.173
97171SOL     OW93409   1.216  11.259   3.313
97171SOL    HW193410   1.298  11.214   3.292
97171SOL    HW293411   1.174  11.271   3.228
97172SOL     OW93412   4.531  11.479  10.465
97172SOL    HW193413   4.454  11.490  10.410
97172SOL    HW293414   4.602  11.518  10.416
97173SOL     OW93415  10.193  12.968  11.128
97173SOL    HW193416  10.131  12.956  11.199
97173SOL    HW293417  10.215  13.062  11.131
97174SOL     OW93418   8.228   6.358  13.693
97174SOL    HW193419   8.252   6.441  13.654
97174SOL    HW293420   8.138   6.369  13.722
97175SOL     OW93421   7.960   3.519   5.354
97175SOL    HW193422   7.998   3.518   5.266
97175SOL    HW293423   8.003   3.446   5.399
97176SOL     OW93424   3.578   3.690   8.322
97176SOL    HW193425   3.649   3.748   8.297
97176SOL    HW293426   3.576   3.624   8.253
97177SOL     OW93427  12.856   4.367   4.647
97177SOL    HW193428  12.884   4.338   4.561
97177SOL    HW293429  12.889   4.457   4.654
97178SOL     OW93430   4.464   9.965   8.699
97178SOL    HW193431   4.547   9.938   8.739
97178SOL    HW293432   4.397   9.924   8.754
97179SOL     OW93433  13.617  10.081  12.133
97179SOL    HW193434  13.669  10.123  12.065
97179SOL    HW293435  13.546  10.143  12.150
97180SOL     OW93436   8.003   5.893   9.269
97180SOL    HW193437   7.929   5.873   9.212
97180SOL    HW293438   7.979   5.856   9.354
97181SOL     OW93439  13.831   4.239  10.201
97181SOL    HW193440  13.759   4.233  10.137
97181SOL    HW293441  13.787   4.257  10.284
97182SOL     OW93442  10.657  13.977   6.157
97182SOL    HW193443  10.744  14.001   6.124
97182SOL    HW293444  10.658  14.004   6.249
97183SOL     OW93445  12.948   9.601   2.099
97183SOL    HW193446  12.959   9.525   2.042
97183SOL    HW293447  12.955   9.676   2.041
97184SOL     OW93448   7.394  10.005  14.480
97184SOL    HW193449   7.461   9.938  14.468
97184SOL    HW293450   7.385  10.046  14.394
97185SOL     OW93451   7.021   0.725   6.331
97185SOL    HW193452   7.112   0.745   6.350
97185SOL    HW293453   7.002   0.646   6.382
97186SOL     OW93454   0.218   0.883   0.445
97186SOL    HW193455   0.187   0.915   0.530
97186SOL    HW293456   0.156   0.920   0.382
97187SOL     OW93457   2.542   3.001   2.378
97187SOL    HW193458   2.499   2.943   2.441
97187SOL    HW293459   2.587   3.066   2.433
97188SOL     OW93460  10.409   7.615  13.807
97188SOL    HW193461  10.421   7.611  13.902
97188SOL    HW293462  10.463   7.690  13.780
97189SOL     OW93463   3.301   3.638   1.141
97189SOL    HW193464   3.226   3.584   1.168
97189SOL    HW293465   3.335   3.593   1.063
97190SOL     OW93466  10.379   8.195  13.968
97190SOL    HW193467  10.315   8.126  13.951
97190SOL    HW293468  10.374   8.251  13.891
97191SOL     OW93469   2.119   6.249   6.232
97191SOL    HW193470   2.195   6.283   6.279
97191SOL    HW293471   2.145   6.251   6.140
97192SOL     OW93472  10.291   3.047  13.286
97192SOL    HW193473  10.265   3.131  13.246
97192SOL    HW293474  10.386   3.052  13.293
97193SOL     OW93475   4.916   8.920   6.825
97193SOL    HW193476   4.836   8.905   6.876
97193SOL    HW293477   4.901   9.006   6.784
97194SOL     OW93478   1.938  12.722  11.139
97194SOL    HW193479   1.972  12.670  11.066
97194SOL    HW293480   2.007  12.787  11.157
97195SOL     OW93481  12.058  12.111   3.176
97195SOL    HW193482  12.036  12.021   3.154
97195SOL    HW293483  11.987  12.140   3.233
97196SOL     OW93484  11.302  13.402   5.021
97196SOL    HW193485  11.362  13.328   5.032
97196SOL    HW293486  11.244  13.397   5.097
97197SOL     OW93487  12.871   9.794   9.121
97197SOL    HW193488  12.881   9.836   9.207
97197SOL    HW293489  12.873   9.866   9.059
97198SOL     OW93490   5.235  13.232   9.555
97198SOL    HW193491   5.264  13.154   9.507
97198SOL    HW293492   5.308  13.293   9.550
97199SOL     OW93493   8.435  14.388   4.489
97199SOL    HW193494   8.371  14.343   4.434
97199SOL    HW293495   8.469  14.458   4.434
97200SOL     OW93496  11.880   4.102  11.271
97200SOL    HW193497  11.786   4.109  11.255
97200SOL    HW293498  11.899   4.169  11.336
97201SOL     OW93499  14.373   3.718   0.761
97201SOL    HW193500  14.396   3.642   0.708
97201SOL    HW293501  14.447   3.729   0.821
97202SOL     OW93502  14.164   6.629  12.093
97202SOL    HW193503  14.140   6.594  12.008
97202SOL    HW293504  14.089   6.611  12.149
97203SOL     OW93505   3.059  11.138   9.725
97203SOL    HW193506   3.061  11.168   9.634
97203SOL    HW293507   3.132  11.185   9.767
97204SOL     OW93508  14.044   5.227  12.650
97204SOL    HW193509  14.135   5.212  12.676
97204SOL    HW293510  14.050   5.262  12.561
97205SOL     OW93511   1.231  12.366   7.479
97205SOL    HW193512   1.325  12.344   7.475
97205SOL    HW293513   1.193  12.297   7.532
97206SOL     OW93514   9.215   0.913   7.125
97206SOL    HW193515   9.151   0.982   7.108
97206SOL    HW293516   9.250   0.890   7.039
97207SOL     OW93517   0.565   1.291   2.407
97207SOL    HW193518   0.593   1.369   2.360
97207SOL    HW293519   0.628   1.282   2.479
97208SOL     OW93520   0.367   1.967   2.030
97208SOL    HW193521   0.389   2.015   2.110
97208SOL    HW293522   0.314   2.028   1.979
97209SOL     OW93523  14.321  11.064   6.338
97209SOL    HW193524  14.260  11.138   6.344
97209SOL    HW293525  14.295  11.006   6.409
97210SOL     OW93526   4.474  10.263  12.439
97210SOL    HW193527   4.417  10.189  12.419
97210SOL    HW293528   4.548  10.254  12.379
97211SOL     OW93529  12.495   9.414   5.257
97211SOL    HW193530  12.501   9.372   5.342
97211SOL    HW293531  12.576   9.390   5.212
97212SOL     OW93532  11.431   8.774  12.031
97212SOL    HW193533  11.525   8.757  12.039
97212SOL    HW293534  11.426   8.850  11.972
97213SOL     OW93535   2.059   3.868  12.748
97213SOL    HW193536   1.989   3.804  12.764
97213SOL    HW293537   2.133   3.835  12.800
97214SOL     OW93538   0.977   0.067   7.212
97214SOL    HW193539   0.890   0.106   7.204
97214SOL    HW293540   0.974   0.020   7.296
97215SOL     OW93541   2.888   1.553  12.142
97215SOL    HW193542   2.864   1.539  12.234
97215SOL    HW293543   2.939   1.634  12.143
97216SOL     OW93544  14.030   0.224  13.544
97216SOL    HW193545  13.937   0.202  13.550
97216SOL    HW293546  14.074   0.140  13.534
97217SOL     OW93547   5.782   4.465   3.071
97217SOL    HW193548   5.694   4.482   3.038
97217SOL    HW293549   5.840   4.499   3.004
97218SOL     OW93550   3.194   0.987   9.122
97218SOL    HW193551   3.234   0.953   9.203
97218SOL    HW293552   3.115   0.934   9.111
97219SOL     OW93553  13.491   1.229  12.732
97219SOL    HW193554  13.534   1.302  12.778
97219SOL    HW293555  13.420   1.271  12.683
97220SOL     OW93556  13.099  10.785  11.312
97220SOL    HW193557  13.049  10.816  11.237
97220SOL    HW293558  13.033  10.769  11.380
97221SOL     OW93559   2.401   2.329   2.012
97221SOL    HW193560   2.350   2.386   1.953
97221SOL    HW293561   2.373   2.354   2.100
97222SOL     OW93562  14.384  12.155  14.357
97222SOL    HW193563  14.454  12.125  14.299
97222SOL    HW293564  14.317  12.086  14.352
97223SOL     OW93565  12.946   6.124   0.872
97223SOL    HW193566  12.942   6.214   0.842
97223SOL    HW293567  12.863   6.109   0.916
97224SOL     OW93568   9.288   8.730   3.448
97224SOL    HW193569   9.267   8.823   3.459
97224SOL    HW293570   9.203   8.687   3.445
97225SOL     OW93571  14.763   9.029  14.306
97225SOL    HW193572  14.742   9.072  14.223
97225SOL    HW293573  14.679   8.994  14.337
97226SOL     OW93574  12.386  11.710  14.022
97226SOL    HW193575  12.468  11.705  14.071
97226SOL    HW293576  12.337  11.780  14.065
97227SOL     OW93577   1.433  10.136   6.237
97227SOL    HW193578   1.516  10.151   6.282
97227SOL    HW293579   1.443  10.182   6.153
97228SOL     OW93580  11.637   2.489   2.434
97228SOL    HW193581  11.652   2.449   2.520
97228SOL    HW293582  11.558   2.542   2.445
97229SOL     OW93583   0.017   6.557   1.609
97229SOL    HW193584   0.063   6.527   1.688
97229SOL    HW293585   0.083   6.551   1.539
97230SOL     OW93586   9.464   1.264   9.722
97230SOL    HW193587   9.428   1.352   9.710
97230SOL    HW293588   9.553   1.278   9.753
97231SOL     OW93589   1.928  11.861  14.184
97231SOL    HW193590   1.845  11.852  14.137
97231SOL    HW293591   1.994  11.828  14.124
97232SOL     OW93592  10.651   6.305  12.719
97232SOL    HW193593  10.573   6.321  12.665
97232SOL    HW293594  10.642   6.367  12.792
97233SOL     OW93595  13.453   8.332   4.349
97233SOL    HW193596  13.369   8.364   4.381
97233SOL    HW293597  13.438   8.309   4.257
97234SOL     OW93598   2.451  13.286   5.234
97234SOL    HW193599   2.540  13.263   5.262
97234SOL    HW293600   2.411  13.202   5.210
97235SOL     OW93601   9.399   2.135   3.723
97235SOL    HW193602   9.386   2.081   3.801
97235SOL    HW293603   9.372   2.223   3.750
97236SOL     OW93604   3.056   8.226   8.800
97236SOL    HW193605   2.987   8.187   8.745
97236SOL    HW293606   3.041   8.189   8.887
97237SOL     OW93607   2.324   4.897   4.230
97237SOL    HW193608   2.303   4.979   4.275
97237SOL    HW293609   2.342   4.924   4.140
97238SOL     OW93610   2.690  12.444   2.967
97238SOL    HW193611   2.698  12.432   3.062
97238SOL    HW293612   2.725  12.363   2.930
97239SOL     OW93613  12.115   2.875   8.194
97239SOL    HW193614  12.037   2.840   8.152
97239SOL    HW293615  12.125   2.962   8.157
97240SOL     OW93616  10.066   1.037  10.667
97240SOL    HW193617   9.984   1.066  10.628
97240SOL    HW293618  10.109   0.987  10.597
97241SOL     OW93619  11.137   2.827  13.026
97241SOL    HW193620  11.121   2.766  12.953
97241SOL    HW293621  11.201   2.889  12.991
97242SOL     OW93622   7.224   0.433   0.123
97242SOL    HW193623   7.194   0.430   0.032
97242SOL    HW293624   7.237   0.341   0.146
97243SOL     OW93625   9.342   6.067   9.066
97243SOL    HW193626   9.294   5.985   9.058
97243SOL    HW293627   9.427   6.048   9.026
97244SOL     OW93628  14.743   7.653   2.896
97244SOL    HW193629  14.694   7.659   2.978
97244SOL    HW293630  14.819   7.599   2.917
97245SOL     OW93631   8.794   6.673   4.803
97245SOL    HW193632   8.754   6.676   4.716
97245SOL    HW293633   8.847   6.753   4.808
97246SOL     OW93634   6.596  12.036   0.823
97246SOL    HW193635   6.515  12.011   0.779
97246SOL    HW293636   6.593  11.990   0.907
97247SOL     OW93637   1.087  14.786  11.461
97247SOL    HW193638   1.171  14.763  11.500
97247SOL    HW293639   1.024  14.730  11.506
97248SOL     OW93640   2.556   4.450  11.342
97248SOL    HW193641   2.627   4.404  11.386
97248SOL    HW293642   2.571   4.542  11.362
97249SOL     OW93643   0.841   6.839  12.247
97249SOL    HW193644   0.797   6.760  12.216
97249SOL    HW293645   0.867   6.885  12.167
97250SOL     OW93646  12.554   4.744   2.714
97250SOL    HW193647  12.562   4.795   2.634
97250SOL    HW293648  12.599   4.662   2.695
97251SOL     OW93649  13.139   5.975   4.249
97251SOL    HW193650  13.063   5.972   4.308
97251SOL    HW293651  13.168   6.066   4.251
97252SOL     OW93652   4.338   8.940   3.743
97252SOL    HW193653   4.259   8.990   3.722
97252SOL    HW293654   4.314   8.890   3.822
97253SOL     OW93655   7.059  13.112   0.658
97253SOL    HW193656   7.140  13.063   0.649
97253SOL    HW293657   7.011  13.067   0.727
97254SOL     OW93658   9.462   3.535   7.513
97254SOL    HW193659   9.518   3.466   7.549
97254SOL    HW293660   9.439   3.503   7.426
97255SOL     OW93661  10.495  10.186   6.524
97255SOL    HW193662  10.421  10.246   6.532
97255SOL    HW293663  10.571  10.238   6.550
97256SOL     OW93664   1.225  14.168   7.319
97256SOL    HW193665   1.246  14.182   7.227
97256SOL    HW293666   1.310  14.165   7.363
97257SOL     OW93667   6.838  13.305   0.381
97257SOL    HW193668   6.869  13.360   0.309
97257SOL    HW293669   6.745  13.291   0.362
97258SOL     OW93670   4.269  12.360  11.652
97258SOL    HW193671   4.295  12.449  11.630
97258SOL    HW293672   4.293  12.308  11.575
97259SOL     OW93673   1.255  10.633   4.066
97259SOL    HW193674   1.320  10.568   4.039
97259SOL    HW293675   1.237  10.682   3.985
97260SOL     OW93676   2.205   1.331   0.936
97260SOL    HW193677   2.122   1.287   0.916
97260SOL    HW293678   2.184   1.389   1.009
97261SOL     OW93679   5.156  10.461   0.680
97261SOL    HW193680   5.064  10.441   0.660
97261SOL    HW293681   5.158  10.470   0.775
97262SOL     OW93682   4.947   5.056   8.128
97262SOL    HW193683   4.924   5.032   8.218
97262SOL    HW293684   4.958   4.973   8.083
97263SOL     OW93685  10.312  10.560  13.671
97263SOL    HW193686  10.265  10.632  13.712
97263SOL    HW293687  10.249  10.489  13.668
97264SOL     OW93688   8.592  10.887   4.811
97264SOL    HW193689   8.531  10.930   4.751
97264SOL    HW293690   8.588  10.939   4.891
97265SOL     OW93691   7.949   6.067   0.908
97265SOL    HW193692   7.993   6.116   0.839
97265SOL    HW293693   7.857   6.093   0.901
97266SOL     OW93694   2.984   4.668  13.128
97266SOL    HW193695   2.984   4.576  13.103
97266SOL    HW293696   3.064   4.703  13.087
97267SOL     OW93697   7.925   9.736   2.998
97267SOL    HW193698   7.831   9.726   2.981
97267SOL    HW293699   7.967   9.677   2.936
97268SOL     OW93700   8.612   8.080   1.432
97268SOL    HW193701   8.534   8.102   1.380
97268SOL    HW293702   8.686   8.105   1.376
97269SOL     OW93703   0.420   8.118  14.235
97269SOL    HW193704   0.375   8.062  14.172
97269SOL    HW293705   0.511   8.088  14.233
97270SOL     OW93706   8.038   1.720  12.076
97270SOL    HW193707   8.124   1.682  12.055
97270SOL    HW293708   8.019   1.776  12.001
97271SOL     OW93709   5.267  12.982   6.281
97271SOL    HW193710   5.230  13.063   6.245
97271SOL    HW293711   5.231  12.913   6.226
97272SOL     OW93712  14.644   7.781   0.246
97272SOL    HW193713  14.684   7.823   0.170
97272SOL    HW293714  14.589   7.849   0.284
97273SOL     OW93715  11.666   2.599  11.075
97273SOL    HW193716  11.714   2.608  11.157
97273SOL    HW293717  11.577   2.626  11.096
97274SOL     OW93718   8.855  10.886   6.855
97274SOL    HW193719   8.889  10.802   6.824
97274SOL    HW293720   8.786  10.908   6.792
97275SOL     OW93721   6.350   3.978   3.962
97275SOL    HW193722   6.274   3.998   3.908
97275SOL    HW293723   6.315   3.926   4.034
97276SOL     OW93724  12.748   1.007   5.576
97276SOL    HW193725  12.763   1.019   5.482
97276SOL    HW293726  12.812   0.941   5.602
97277SOL     OW93727  10.293   1.586  12.666
97277SOL    HW193728  10.235   1.599  12.740
97277SOL    HW293729  10.367   1.645  12.683
97278SOL     OW93730   2.136  14.696  11.287
97278SOL    HW193731   2.043  14.674  11.278
97278SOL    HW293732   2.161  14.662  11.372
97279SOL     OW93733   7.717  13.189   8.281
97279SOL    HW193734   7.682  13.121   8.338
97279SOL    HW293735   7.752  13.142   8.205
97280SOL     OW93736   6.312   0.062   2.395
97280SOL    HW193737   6.222   0.084   2.419
97280SOL    HW293738   6.335   0.125   2.327
97281SOL     OW93739   5.676  12.396   9.054
97281SOL    HW193740   5.760  12.359   9.026
97281SOL    HW293741   5.614  12.325   9.040
97282SOL     OW93742   4.701  12.040   7.700
97282SOL    HW193743   4.665  12.123   7.732
97282SOL    HW293744   4.673  11.976   7.765
97283SOL     OW93745   9.862   4.188   1.618
97283SOL    HW193746   9.867   4.103   1.575
97283SOL    HW293747   9.872   4.168   1.711
97284SOL     OW93748   3.113  14.813  10.368
97284SOL    HW193749   3.202  14.821  10.404
97284SOL    HW293750   3.081  14.731  10.404
97285SOL     OW93751   4.493   4.305   1.580
97285SOL    HW193752   4.451   4.231   1.537
97285SOL    HW293753   4.526   4.270   1.663
97286SOL     OW93754  14.430   3.923  10.834
97286SOL    HW193755  14.426   3.939  10.739
97286SOL    HW293756  14.405   3.831  10.843
97287SOL     OW93757  14.149   6.163   9.404
97287SOL    HW193758  14.229   6.207   9.435
97287SOL    HW293759  14.180   6.079   9.368
97288SOL     OW93760   9.843   4.946   6.445
97288SOL    HW193761   9.927   4.993   6.441
97288SOL    HW293762   9.778   5.014   6.459
97289SOL     OW93763   5.286   7.117   7.459
97289SOL    HW193764   5.362   7.136   7.513
97289SOL    HW293765   5.215   7.169   7.498
97290SOL     OW93766  13.009  10.119  13.740
97290SOL    HW193767  12.955  10.056  13.692
97290SOL    HW293768  12.946  10.183  13.773
97291SOL     OW93769   9.881  10.421   2.855
97291SOL    HW193770   9.858  10.346   2.911
97291SOL    HW293771   9.914  10.382   2.774
97292SOL     OW93772   4.910  11.041   8.542
97292SOL    HW193773   4.874  11.089   8.617
97292SOL    HW293774   4.882  10.951   8.556
97293SOL     OW93775   1.898  10.204   0.404
97293SOL    HW193776   1.906  10.120   0.359
97293SOL    HW293777   1.850  10.260   0.344
97294SOL     OW93778   8.387   0.711  12.433
97294SOL    HW193779   8.454   0.649  12.461
97294SOL    HW293780   8.351   0.746  12.515
97295SOL     OW93781   7.427   5.119   9.647
97295SOL    HW193782   7.363   5.147   9.582
97295SOL    HW293783   7.510   5.119   9.600
97296SOL     OW93784  14.200   0.616  10.912
97296SOL    HW193785  14.174   0.524  10.905
97296SOL    HW293786  14.284   0.620  10.866
97297SOL     OW93787   3.088  12.312   7.757
97297SOL    HW193788   2.997  12.291   7.738
97297SOL    HW293789   3.096  12.404   7.733
97298SOL     OW93790  10.792   5.437  14.749
97298SOL    HW193791  10.819   5.352  14.783
97298SOL    HW293792  10.696   5.436  14.756
97299SOL     OW93793   3.963   7.386   4.088
97299SOL    HW193794   4.001   7.347   4.166
97299SOL    HW293795   4.007   7.342   4.015
97300SOL     OW93796  10.140  13.678   0.215
97300SOL    HW193797  10.155  13.743   0.284
97300SOL    HW293798  10.067  13.713   0.165
97301SOL     OW93799   8.797  10.226   2.065
97301SOL    HW193800   8.837  10.312   2.079
97301SOL    HW293801   8.707  10.246   2.038
97302SOL     OW93802   3.691   6.741  11.439
97302SOL    HW193803   3.733   6.712  11.359
97302SOL    HW293804   3.757   6.729  11.507
97303SOL     OW93805  10.779   6.647   1.315
97303SOL    HW193806  10.809   6.665   1.404
97303SOL    HW293807  10.850   6.595   1.276
97304SOL     OW93808   5.775   7.847  13.068
97304SOL    HW193809   5.706   7.913  13.079
97304SOL    HW293810   5.818   7.870  12.986
97305SOL     OW93811   8.991  12.362  11.462
97305SOL    HW193812   9.019  12.428  11.399
97305SOL    HW293813   8.939  12.300  11.411
97306SOL     OW93814  14.266   1.742   2.314
97306SOL    HW193815  14.231   1.799   2.245
97306SOL    HW293816  14.335   1.794   2.356
97307SOL     OW93817   6.769   4.427   2.631
97307SOL    HW193818   6.839   4.379   2.675
97307SOL    HW293819   6.765   4.511   2.676
97308SOL     OW93820   2.612   1.456  11.833
97308SOL    HW193821   2.693   1.507  11.835
97308SOL    HW293822   2.622   1.393  11.904
97309SOL     OW93823  11.104   3.622   2.184
97309SOL    HW193824  11.153   3.653   2.260
97309SOL    HW293825  11.164   3.561   2.141
97310SOL     OW93826   4.511   2.890  11.807
97310SOL    HW193827   4.481   2.799  11.808
97310SOL    HW293828   4.571   2.896  11.881
97311SOL     OW93829   6.452   5.791   2.158
97311SOL    HW193830   6.476   5.882   2.171
97311SOL    HW293831   6.400   5.768   2.235
97312SOL     OW93832   0.119   8.191   4.566
97312SOL    HW193833   0.062   8.120   4.537
97312SOL    HW293834   0.146   8.234   4.485
97313SOL     OW93835  14.049  14.088   0.996
97313SOL    HW193836  13.973  14.101   0.939
97313SOL    HW293837  14.013  14.086   1.085
97314SOL     OW93838   1.870   8.349   8.232
97314SOL    HW193839   1.928   8.338   8.308
97314SOL    HW293840   1.834   8.262   8.217
97315SOL     OW93841   1.287   3.973  14.259
97315SOL    HW193842   1.229   3.937  14.192
97315SOL    HW293843   1.375   3.959  14.224
97316SOL     OW93844   3.482   0.783   4.464
97316SOL    HW193845   3.549   0.778   4.531
97316SOL    HW293846   3.470   0.877   4.448
97317SOL     OW93847   9.507  11.846  12.856
97317SOL    HW193848   9.504  11.750  12.852
97317SOL    HW293849   9.461  11.868  12.937
97318SOL     OW93850  10.643  13.002  12.069
97318SOL    HW193851  10.578  12.934  12.050
97318SOL    HW293852  10.718  12.954  12.103
97319SOL     OW93853  10.052   5.293   4.743
97319SOL    HW193854  10.067   5.296   4.649
97319SOL    HW293855   9.957   5.283   4.752
97320SOL     OW93856   4.108   7.000  14.037
97320SOL    HW193857   4.072   6.971  14.120
97320SOL    HW293858   4.033   7.039  13.990
97321SOL     OW93859   3.184   9.103   0.631
97321SOL    HW193860   3.192   9.058   0.715
97321SOL    HW293861   3.090   9.115   0.619
97322SOL     OW93862  11.610  12.662   9.628
97322SOL    HW193863  11.615  12.734   9.691
97322SOL    HW293864  11.561  12.698   9.554
97323SOL     OW93865  10.073  11.013   5.930
97323SOL    HW193866  10.088  11.106   5.913
97323SOL    HW293867  10.085  11.005   6.025
97324SOL     OW93868   3.211   2.421   8.382
97324SOL    HW193869   3.261   2.432   8.301
97324SOL    HW293870   3.255   2.478   8.445
97325SOL     OW93871  11.116  11.749   1.301
97325SOL    HW193872  11.123  11.682   1.233
97325SOL    HW293873  11.166  11.824   1.266
97326SOL     OW93874  13.728  14.381   0.570
97326SOL    HW193875  13.748  14.437   0.645
97326SOL    HW293876  13.668  14.314   0.605
97327SOL     OW93877  11.225   5.130   9.036
97327SOL    HW193878  11.164   5.119   9.110
97327SOL    HW293879  11.214   5.221   9.010
97328SOL     OW93880   7.168   0.028   3.516
97328SOL    HW193881   7.126   0.042   3.601
97328SOL    HW293882   7.236  14.836   3.534
97329SOL     OW93883   2.018   7.859   5.460
97329SOL    HW193884   1.926   7.881   5.476
97329SOL    HW293885   2.054   7.937   5.418
97330SOL     OW93886   5.082   2.435   6.547
97330SOL    HW193887   5.145   2.368   6.519
97330SOL    HW293888   5.082   2.430   6.642
97331SOL     OW93889   4.039   5.133   8.219
97331SOL    HW193890   4.114   5.073   8.212
97331SOL    HW293891   3.964   5.081   8.191
97332SOL     OW93892   5.346  11.750   1.927
97332SOL    HW193893   5.273  11.806   1.900
97332SOL    HW293894   5.304  11.665   1.946
97333SOL     OW93895  10.615   5.628   7.607
97333SOL    HW193896  10.669   5.569   7.660
97333SOL    HW293897  10.538   5.646   7.662
97334SOL     OW93898   8.393   7.179   3.508
97334SOL    HW193899   8.437   7.104   3.547
97334SOL    HW293900   8.326   7.140   3.451
97335SOL     OW93901  12.821  14.157  14.013
97335SOL    HW193902  12.878  14.173  14.088
97335SOL    HW293903  12.859  14.080  13.970
97336SOL     OW93904   9.232  13.115   6.999
97336SOL    HW193905   9.262  13.205   6.995
97336SOL    HW293906   9.280  13.076   7.072
97337SOL     OW93907   5.964   5.084   1.509
97337SOL    HW193908   5.977   4.991   1.486
97337SOL    HW293909   6.034   5.129   1.463
97338SOL     OW93910  12.340   0.688   2.236
97338SOL    HW193911  12.430   0.719   2.246
97338SOL    HW293912  12.349   0.607   2.185
97339SOL     OW93913   0.400   0.838   4.024
97339SOL    HW193914   0.480   0.789   4.046
97339SOL    HW293915   0.331   0.794   4.074
97340SOL     OW93916   1.444   1.579  12.984
97340SOL    HW193917   1.516   1.637  12.958
97340SOL    HW293918   1.463   1.496  12.941
97341SOL     OW93919   1.624   5.465   0.501
97341SOL    HW193920   1.631   5.523   0.426
97341SOL    HW293921   1.685   5.501   0.565
97342SOL     OW93922   9.584   7.113   9.682
97342SOL    HW193923   9.655   7.051   9.664
97342SOL    HW293924   9.578   7.166   9.602
97343SOL     OW93925   9.791   4.197  11.325
97343SOL    HW193926   9.810   4.111  11.289
97343SOL    HW293927   9.701   4.216  11.298
97344SOL     OW93928   3.526   6.577  14.805
97344SOL    HW193929   3.594   6.555  14.868
97344SOL    HW293930   3.510   6.495  14.757
97345SOL     OW93931  13.697   5.614  10.472
97345SOL    HW193932  13.716   5.690  10.527
97345SOL    HW293933  13.783   5.577  10.451
97346SOL     OW93934   2.759  12.512  13.325
97346SOL    HW193935   2.834  12.453  13.312
97346SOL    HW293936   2.785  12.568  13.398
97347SOL     OW93937   9.183   9.213   3.922
97347SOL    HW193938   9.176   9.147   3.991
97347SOL    HW293939   9.094   9.246   3.911
97348SOL     OW93940  14.353  12.503   1.671
97348SOL    HW193941  14.277  12.496   1.728
97348SOL    HW293942  14.317  12.509   1.583
97349SOL     OW93943   0.023   5.152  12.577
97349SOL    HW193944   0.051   5.129  12.489
97349SOL    HW293945  14.859   5.240  12.569
97350SOL     OW93946  11.754   1.415   9.951
97350SOL    HW193947  11.801   1.335   9.928
97350SOL    HW293948  11.766   1.424  10.046
97351SOL     OW93949   0.058  10.413   1.373
97351SOL    HW193950   0.015  10.328   1.373
97351SOL    HW293951   0.134  10.401   1.431
97352SOL     OW93952  14.779  14.723   4.472
97352SOL    HW193953  14.827  14.704   4.553
97352SOL    HW293954  14.687  14.712   4.495
97353SOL     OW93955   5.706   8.047   3.770
97353SOL    HW193956   5.747   8.126   3.734
97353SOL    HW293957   5.656   8.079   3.845
97354SOL     OW93958   4.404  10.458  13.984
97354SOL    HW193959   4.446  10.524  13.929
97354SOL    HW293960   4.370  10.393  13.923
97355SOL     OW93961   9.733   1.928   3.673
97355SOL    HW193962   9.799   1.874   3.631
97355SOL    HW293963   9.688   1.971   3.600
97356SOL     OW93964   7.088  12.599   0.615
97356SOL    HW193965   7.074  12.682   0.569
97356SOL    HW293966   7.000  12.562   0.624
97357SOL     OW93967   5.982  14.490   0.126
97357SOL    HW193968   6.055  14.456   0.178
97357SOL    HW293969   6.025  14.534   0.053
97358SOL     OW93970   7.199   1.850   4.569
97358SOL    HW193971   7.163   1.932   4.535
97358SOL    HW293972   7.173   1.848   4.661
97359SOL     OW93973   8.588  10.397   4.204
97359SOL    HW193974   8.502  10.431   4.180
97359SOL    HW293975   8.576  10.302   4.207
97360SOL     OW93976   4.147   3.876   1.409
97360SOL    HW193977   4.200   3.954   1.392
97360SOL    HW293978   4.063   3.895   1.366
97361SOL     OW93979   1.431   9.241  11.875
97361SOL    HW193980   1.381   9.167  11.840
97361SOL    HW293981   1.422   9.310  11.809
97362SOL     OW93982   3.172   7.214  13.991
97362SOL    HW193983   3.138   7.144  13.935
97362SOL    HW293984   3.264   7.221  13.967
97363SOL     OW93985   1.580   8.168   1.437
97363SOL    HW193986   1.486   8.151   1.442
97363SOL    HW293987   1.620   8.081   1.433
97364SOL     OW93988   5.706   1.977   3.085
97364SOL    HW193989   5.761   2.054   3.073
97364SOL    HW293990   5.661   1.993   3.168
97365SOL     OW93991   8.047  14.247   0.027
97365SOL    HW193992   8.102  14.169   0.022
97365SOL    HW293993   7.970  14.219   0.076
97366SOL     OW93994   4.424   0.173  14.202
97366SOL    HW193995   4.424   0.116  14.126
97366SOL    HW293996   4.477   0.127  14.267
97367SOL     OW93997  11.152   5.628   3.807
97367SOL    HW193998  11.224   5.626   3.743
97367SOL    HW293999  11.133   5.721   3.817
97368SOL     OW94000   5.791   3.335   2.454
97368SOL    HW194001   5.792   3.332   2.550
97368SOL    HW294002   5.809   3.245   2.427
97369SOL     OW94003   5.173  13.582  11.201
97369SOL    HW194004   5.157  13.505  11.255
97369SOL    HW294005   5.225  13.640  11.256
97370SOL     OW94006  11.773  14.039  11.128
97370SOL    HW194007  11.863  14.066  11.113
97370SOL    HW294008  11.753  13.982  11.054
97371SOL     OW94009  14.745  11.182   8.726
97371SOL    HW194010  14.750  11.237   8.647
97371SOL    HW294011  14.652  11.183   8.749
97372SOL     OW94012   8.182   8.434   6.517
97372SOL    HW194013   8.157   8.520   6.484
97372SOL    HW294014   8.102   8.397   6.553
97373SOL     OW94015   6.410  12.441   0.394
97373SOL    HW194016   6.330  12.449   0.447
97373SOL    HW294017   6.430  12.531   0.369
97374SOL     OW94018   1.847  14.397   2.443
97374SOL    HW194019   1.823  14.314   2.483
97374SOL    HW294020   1.928  14.378   2.395
97375SOL     OW94021   9.965   7.808  13.274
97375SOL    HW194022   9.895   7.812  13.209
97375SOL    HW294023   9.942   7.735  13.331
97376SOL     OW94024   3.199  13.606   5.152
97376SOL    HW194025   3.186  13.535   5.215
97376SOL    HW294026   3.203  13.685   5.206
97377SOL     OW94027  13.782  11.849  14.354
97377SOL    HW194028  13.856  11.906  14.375
97377SOL    HW294029  13.749  11.822  14.440
97378SOL     OW94030   5.156   8.913  14.489
97378SOL    HW194031   5.163   8.959  14.405
97378SOL    HW294032   5.170   8.981  14.555
97379SOL     OW94033   3.078   3.001   7.419
97379SOL    HW194034   3.090   3.091   7.449
97379SOL    HW294035   3.037   2.956   7.493
97380SOL     OW94036  10.481   4.912   6.243
97380SOL    HW194037  10.492   4.824   6.279
97380SOL    HW294038  10.485   4.899   6.148
97381SOL     OW94039   0.562   3.642   8.762
97381SOL    HW194040   0.635   3.704   8.766
97381SOL    HW294041   0.555   3.608   8.851
97382SOL     OW94042   9.182   9.011  14.800
97382SOL    HW194043   9.268   9.045  14.777
97382SOL    HW294044   9.198   8.950  14.872
97383SOL     OW94045   6.766  13.303  12.358
97383SOL    HW194046   6.802  13.313  12.447
97383SOL    HW294047   6.841  13.318  12.300
97384SOL     OW94048  11.765  11.484   0.576
97384SOL    HW194049  11.705  11.552   0.544
97384SOL    HW294050  11.780  11.507   0.668
97385SOL     OW94051   2.485   4.340   0.314
97385SOL    HW194052   2.392   4.327   0.333
97385SOL    HW294053   2.505   4.274   0.247
97386SOL     OW94054  12.651   0.158  11.953
97386SOL    HW194055  12.674   0.080  12.003
97386SOL    HW294056  12.675   0.137  11.863
97387SOL     OW94057   2.050   9.022   0.510
97387SOL    HW194058   2.110   8.950   0.491
97387SOL    HW294059   1.969   8.980   0.536
97388SOL     OW94060  13.836   2.835   2.548
97388SOL    HW194061  13.826   2.750   2.506
97388SOL    HW294062  13.747   2.871   2.551
97389SOL     OW94063  11.798   8.101  10.070
97389SOL    HW194064  11.861   8.088  10.141
97389SOL    HW294065  11.836   8.171  10.017
97390SOL     OW94066   6.773   5.329  12.649
97390SOL    HW194067   6.776   5.320  12.554
97390SOL    HW294068   6.680   5.344  12.669
97391SOL     OW94069   8.038  13.521  10.378
97391SOL    HW194070   8.116  13.512  10.434
97391SOL    HW294071   8.047  13.608  10.338
97392SOL     OW94072  14.054   0.043   6.325
97392SOL    HW194073  14.124  14.864   6.284
97392SOL    HW294074  14.057   0.016   6.417
97393SOL     OW94075   2.605   8.420   1.790
97393SOL    HW194076   2.570   8.507   1.769
97393SOL    HW294077   2.629   8.425   1.883
97394SOL     OW94078  11.260   6.644   2.280
97394SOL    HW194079  11.258   6.605   2.367
97394SOL    HW294080  11.332   6.600   2.235
97395SOL     OW94081   4.844   6.291  13.519
97395SOL    HW194082   4.853   6.375  13.475
97395SOL    HW294083   4.759   6.258  13.490
97396SOL     OW94084   1.947  14.554   4.082
97396SOL    HW194085   1.864  14.528   4.121
97396SOL    HW294086   1.998  14.589   4.156
97397SOL     OW94087  14.710   8.019   3.457
97397SOL    HW194088  14.728   8.045   3.548
97397SOL    HW294089  14.659   7.938   3.466
97398SOL     OW94090   3.953   9.970   3.936
97398SOL    HW194091   3.991   9.928   3.859
97398SOL    HW294092   3.986   9.918   4.010
97399SOL     OW94093  13.624  12.984   1.790
97399SOL    HW194094  13.542  12.987   1.741
97399SOL    HW294095  13.631  13.071   1.830
97400SOL     OW94096   8.473   0.952   8.900
97400SOL    HW194097   8.460   0.861   8.924
97400SOL    HW294098   8.565   0.956   8.873
97401SOL     OW94099   6.049   0.449   1.493
97401SOL    HW194100   6.107   0.452   1.417
97401SOL    HW294101   6.025   0.540   1.508
97402SOL     OW94102   7.271  11.791  11.927
97402SOL    HW194103   7.190  11.741  11.935
97402SOL    HW294104   7.242  11.882  11.915
97403SOL     OW94105  11.159  13.111   7.543
97403SOL    HW194106  11.231  13.059   7.505
97403SOL    HW294107  11.099  13.046   7.580
97404SOL     OW94108   2.508   4.093  13.063
97404SOL    HW194109   2.539   4.107  13.152
97404SOL    HW294110   2.578   4.128  13.007
97405SOL     OW94111   0.213   7.439  14.145
97405SOL    HW194112   0.302   7.418  14.117
97405SOL    HW294113   0.181   7.359  14.186
97406SOL     OW94114   4.662   8.632  11.335
97406SOL    HW194115   4.732   8.600  11.392
97406SOL    HW294116   4.599   8.560  11.332
97407SOL     OW94117   3.343  14.695   5.247
97407SOL    HW194118   3.334  14.602   5.225
97407SOL    HW294119   3.433  14.704   5.277
97408SOL     OW94120  14.736   4.378   0.111
97408SOL    HW194121  14.642   4.376   0.128
97408SOL    HW294122  14.757   4.290   0.079
97409SOL     OW94123   3.316   6.304   5.723
97409SOL    HW194124   3.271   6.345   5.797
97409SOL    HW294125   3.265   6.226   5.704
97410SOL     OW94126  11.594  13.186   6.352
97410SOL    HW194127  11.554  13.230   6.427
97410SOL    HW294128  11.660  13.247   6.320
97411SOL     OW94129   2.174   8.633  10.130
97411SOL    HW194130   2.146   8.557  10.079
97411SOL    HW294131   2.246   8.671  10.080
97412SOL     OW94132   5.246   7.130  12.478
97412SOL    HW194133   5.210   7.218  12.466
97412SOL    HW294134   5.333   7.134  12.438
97413SOL     OW94135  12.576  13.993  12.511
97413SOL    HW194136  12.629  14.054  12.563
97413SOL    HW294137  12.634  13.965  12.440
97414SOL     OW94138   1.631  14.822  14.838
97414SOL    HW194139   1.689  14.747  14.824
97414SOL    HW294140   1.543  14.785  14.834
97415SOL     OW94141  11.897   1.054   3.253
97415SOL    HW194142  11.968   1.113   3.230
97415SOL    HW294143  11.817   1.100   3.226
97416SOL     OW94144   9.409   4.226  13.697
97416SOL    HW194145   9.334   4.280  13.672
97416SOL    HW294146   9.483   4.286  13.699
97417SOL     OW94147   4.491  10.634   2.169
97417SOL    HW194148   4.445  10.551   2.184
97417SOL    HW294149   4.580  10.608   2.147
97418SOL     OW94150  14.683  14.469   3.067
97418SOL    HW194151  14.730  14.391   3.037
97418SOL    HW294152  14.751  14.524   3.107
97419SOL     OW94153  10.107  13.318  14.763
97419SOL    HW194154  10.194  13.278  14.773
97419SOL    HW294155  10.114  13.402  14.807
97420SOL     OW94156   5.852   2.337   0.494
97420SOL    HW194157   5.907   2.333   0.573
97420SOL    HW294158   5.912   2.363   0.425
97421SOL     OW94159  12.995  10.921   9.413
97421SOL    HW194160  13.075  10.919   9.361
97421SOL    HW294161  13.026  10.912   9.503
97422SOL     OW94162  13.797   0.064   0.510
97422SOL    HW194163  13.766  14.869   0.571
97422SOL    HW294164  13.885   0.085   0.541
97423SOL     OW94165   7.269   1.709   3.195
97423SOL    HW194166   7.241   1.790   3.152
97423SOL    HW294167   7.350   1.733   3.239
97424SOL     OW94168   9.509   2.895   8.945
97424SOL    HW194169   9.504   2.927   9.035
97424SOL    HW294170   9.536   2.803   8.954
97425SOL     OW94171  11.746  10.047   2.063
97425SOL    HW194172  11.790   9.964   2.082
97425SOL    HW294173  11.726  10.042   1.970
97426SOL     OW94174   8.023   4.353   7.571
97426SOL    HW194175   8.079   4.295   7.519
97426SOL    HW294176   7.938   4.349   7.527
97427SOL     OW94177   3.940  14.521   4.939
97427SOL    HW194178   3.908  14.431   4.931
97427SOL    HW294179   3.959  14.531   5.033
97428SOL     OW94180   7.599   2.014  12.434
97428SOL    HW194181   7.604   2.096  12.384
97428SOL    HW294182   7.678   2.014  12.488
97429SOL     OW94183   7.007  10.296  13.923
97429SOL    HW194184   6.935  10.360  13.915
97429SOL    HW294185   6.963  10.211  13.925
97430SOL     OW94186   3.920   7.164  12.281
97430SOL    HW194187   3.956   7.095  12.336
97430SOL    HW294188   3.981   7.170  12.207
97431SOL     OW94189  11.912  14.216  11.917
97431SOL    HW194190  11.965  14.142  11.946
97431SOL    HW294191  11.904  14.204  11.822
97432SOL     OW94192   9.248  13.266   4.210
97432SOL    HW194193   9.293  13.187   4.240
97432SOL    HW294194   9.172  13.234   4.163
97433SOL     OW94195   1.556  10.230   1.559
97433SOL    HW194196   1.587  10.270   1.640
97433SOL    HW294197   1.544  10.137   1.581
97434SOL     OW94198  13.201  12.652  13.663
97434SOL    HW194199  13.254  12.644  13.584
97434SOL    HW294200  13.265  12.658  13.734
97435SOL     OW94201   8.149   7.421   8.997
97435SOL    HW194202   8.067   7.456   8.961
97435SOL    HW294203   8.216   7.480   8.965
97436SOL     OW94204  10.521   3.461  12.409
97436SOL    HW194205  10.438   3.507  12.397
97436SOL    HW294206  10.551   3.443  12.320
97437SOL     OW94207   7.655   2.103   8.913
97437SOL    HW194208   7.720   2.117   8.843
97437SOL    HW294209   7.648   2.008   8.921
97438SOL     OW94210   9.282  11.536   5.694
97438SOL    HW194211   9.249  11.494   5.774
97438SOL    HW294212   9.361  11.581   5.722
97439SOL     OW94213   7.785   2.014   8.121
97439SOL    HW194214   7.798   1.935   8.068
97439SOL    HW294215   7.862   2.018   8.177
97440SOL     OW94216   8.727  13.717   5.597
97440SOL    HW194217   8.755  13.732   5.507
97440SOL    HW294218   8.672  13.638   5.592
97441SOL     OW94219   2.473   5.842  10.613
97441SOL    HW194220   2.407   5.846  10.682
97441SOL    HW294221   2.428   5.872  10.534
97442SOL     OW94222   2.028   2.587  11.444
97442SOL    HW194223   2.105   2.637  11.469
97442SOL    HW294224   1.961   2.612  11.508
97443SOL     OW94225   1.578   8.386   5.356
97443SOL    HW194226   1.649   8.434   5.313
97443SOL    HW294227   1.602   8.294   5.345
97444SOL     OW94228   3.126   1.543   5.683
97444SOL    HW194229   3.131   1.588   5.598
97444SOL    HW294230   3.214   1.506   5.695
97445SOL     OW94231  13.845   9.351   7.364
97445SOL    HW194232  13.915   9.287   7.380
97445SOL    HW294233  13.892   9.433   7.344
97446SOL     OW94234   9.549  10.523  14.770
97446SOL    HW194235   9.512  10.567  14.693
97446SOL    HW294236   9.473  10.485  14.815
97447SOL     OW94237  14.174   7.295   3.649
97447SOL    HW194238  14.170   7.373   3.594
97447SOL    HW294239  14.096   7.300   3.704
97448SOL     OW94240   3.766   7.663   2.442
97448SOL    HW194241   3.698   7.683   2.506
97448SOL    HW294242   3.724   7.602   2.381
97449SOL     OW94243  14.826   1.213   4.955
97449SOL    HW194244   0.005   1.271   4.898
97449SOL    HW294245   0.005   1.133   4.960
97450SOL     OW94246   8.499  12.207   9.262
97450SOL    HW194247   8.491  12.260   9.183
97450SOL    HW294248   8.505  12.117   9.230
97451SOL     OW94249   4.719  14.346  13.523
97451SOL    HW194250   4.657  14.276  13.546
97451SOL    HW294251   4.787  14.341  13.591
97452SOL     OW94252  10.055  13.174   7.872
97452SOL    HW194253  10.116  13.195   7.801
97452SOL    HW294254  10.082  13.088   7.902
97453SOL     OW94255  14.484   6.262  14.328
97453SOL    HW194256  14.537   6.331  14.367
97453SOL    HW294257  14.444   6.304  14.251
97454SOL     OW94258   0.468   4.905   3.571
97454SOL    HW194259   0.485   4.893   3.478
97454SOL    HW294260   0.546   4.949   3.604
97455SOL     OW94261   7.354   3.193   7.437
97455SOL    HW194262   7.345   3.279   7.480
97455SOL    HW294263   7.398   3.213   7.354
97456SOL     OW94264   2.832   5.426   9.614
97456SOL    HW194265   2.884   5.415   9.693
97456SOL    HW294266   2.880   5.378   9.546
97457SOL     OW94267   6.659  10.506   9.118
97457SOL    HW194268   6.716  10.583   9.115
97457SOL    HW294269   6.600  10.523   9.192
97458SOL     OW94270  12.183  10.053   8.896
97458SOL    HW194271  12.109  10.038   8.955
97458SOL    HW294272  12.213  10.142   8.918
97459SOL     OW94273   2.951  12.038  10.999
97459SOL    HW194274   2.964  12.010  11.089
97459SOL    HW294275   2.887  11.976  10.963
97460SOL     OW94276   7.854  13.760   6.171
97460SOL    HW194277   7.846  13.842   6.219
97460SOL    HW294278   7.920  13.777   6.104
97461SOL     OW94279  12.921   8.664   3.286
97461SOL    HW194280  12.998   8.613   3.260
97461SOL    HW294281  12.947   8.706   3.368
97462SOL     OW94282   3.467   0.828   8.580
97462SOL    HW194283   3.532   0.762   8.606
97462SOL    HW294284   3.383   0.789   8.603
97463SOL     OW94285  12.137   3.280   0.490
97463SOL    HW194286  12.139   3.373   0.512
97463SOL    HW294287  12.224   3.262   0.453
97464SOL     OW94288  11.615   0.722  12.974
97464SOL    HW194289  11.551   0.671  12.925
97464SOL    HW294290  11.698   0.678  12.958
97465SOL     OW94291  11.793  11.229   7.161
97465SOL    HW194292  11.732  11.156   7.145
97465SOL    HW294293  11.747  11.285   7.223
97466SOL     OW94294   2.313   5.362   2.512
97466SOL    HW194295   2.221   5.365   2.535
97466SOL    HW294296   2.348   5.287   2.561
97467SOL     OW94297  14.529  12.040   7.383
97467SOL    HW194298  14.576  11.984   7.445
97467SOL    HW294299  14.478  11.978   7.330
97468SOL     OW94300   6.189   9.906   0.826
97468SOL    HW194301   6.166   9.975   0.763
97468SOL    HW294302   6.168   9.944   0.912
97469SOL     OW94303   9.017   4.755   0.906
97469SOL    HW194304   9.043   4.846   0.889
97469SOL    HW294305   8.931   4.747   0.864
97470SOL     OW94306   7.796  11.340  12.232
97470SOL    HW194307   7.840  11.402  12.173
97470SOL    HW294308   7.751  11.279  12.174
97471SOL     OW94309  13.782   5.916  12.341
97471SOL    HW194310  13.854   5.911  12.404
97471SOL    HW294311  13.703   5.920  12.395
97472SOL     OW94312  14.775   9.971  13.159
97472SOL    HW194313  14.822   9.947  13.239
97472SOL    HW294314  14.700  10.021  13.190
97473SOL     OW94315   3.408   6.215   0.622
97473SOL    HW194316   3.376   6.290   0.671
97473SOL    HW294317   3.470   6.172   0.682
97474SOL     OW94318   8.824  10.271  12.049
97474SOL    HW194319   8.763  10.339  12.079
97474SOL    HW294320   8.909  10.298  12.083
97475SOL     OW94321   9.912  10.640   9.575
97475SOL    HW194322   9.944  10.620   9.663
97475SOL    HW294323   9.817  10.645   9.584
97476SOL     OW94324   3.668  10.034  14.723
97476SOL    HW194325   3.711   9.955  14.756
97476SOL    HW294326   3.576  10.025  14.750
97477SOL     OW94327   7.279   5.878  12.358
97477SOL    HW194328   7.216   5.807  12.366
97477SOL    HW294329   7.358   5.846  12.400
97478SOL     OW94330   0.526  11.042  13.696
97478SOL    HW194331   0.501  10.985  13.623
97478SOL    HW294332   0.542  10.983  13.769
97479SOL     OW94333   0.333  10.464  14.534
97479SOL    HW194334   0.305  10.530  14.471
97479SOL    HW294335   0.302  10.498  14.619
97480SOL     OW94336   1.401   8.064   3.981
97480SOL    HW194337   1.323   8.114   4.005
97480SOL    HW294338   1.468   8.091   4.044
97481SOL     OW94339   3.317  10.257  14.456
97481SOL    HW194340   3.373  10.333  14.473
97481SOL    HW294341   3.265  10.282  14.380
97482SOL     OW94342   6.495  13.001   3.437
97482SOL    HW194343   6.514  12.982   3.529
97482SOL    HW294344   6.406  13.036   3.437
97483SOL     OW94345   2.119   9.413   5.826
97483SOL    HW194346   2.117   9.374   5.738
97483SOL    HW294347   2.202   9.460   5.830
97484SOL     OW94348  13.945   1.611   5.242
97484SOL    HW194349  13.960   1.575   5.154
97484SOL    HW294350  14.007   1.683   5.249
97485SOL     OW94351   7.638  13.777   4.273
97485SOL    HW194352   7.623  13.804   4.182
97485SOL    HW294353   7.679  13.691   4.266
97486SOL     OW94354  11.809   4.378   9.028
97486SOL    HW194355  11.761   4.309   8.982
97486SOL    HW294356  11.824   4.342   9.116
97487SOL     OW94357  13.239  13.797  10.213
97487SOL    HW194358  13.334  13.805  10.214
97487SOL    HW294359  13.210  13.872  10.160
97488SOL     OW94360   6.704   6.860   1.795
97488SOL    HW194361   6.695   6.942   1.843
97488SOL    HW294362   6.798   6.848   1.784
97489SOL     OW94363   9.188  10.474   9.976
97489SOL    HW194364   9.259  10.491   9.914
97489SOL    HW294365   9.109  10.501   9.928
97490SOL     OW94366   4.040  10.500  13.894
97490SOL    HW194367   3.969  10.564  13.903
97490SOL    HW294368   4.102  10.522  13.963
97491SOL     OW94369  10.542   4.827   0.062
97491SOL    HW194370  10.459   4.785   0.037
97491SOL    HW294371  10.525   4.861   0.150
97492SOL     OW94372   2.924   1.290   9.941
97492SOL    HW194373   3.012   1.290   9.903
97492SOL    HW294374   2.878   1.360   9.894
97493SOL     OW94375   0.694  11.847   1.175
97493SOL    HW194376   0.724  11.790   1.104
97493SOL    HW294377   0.613  11.807   1.205
97494SOL     OW94378   8.932   4.370  13.763
97494SOL    HW194379   8.902   4.297  13.818
97494SOL    HW294380   8.876   4.366  13.686
97495SOL     OW94381   5.633   7.224  13.984
97495SOL    HW194382   5.655   7.139  14.022
97495SOL    HW294383   5.611   7.204  13.893
97496SOL     OW94384   9.147   7.935   5.499
97496SOL    HW194385   9.116   7.854   5.459
97496SOL    HW294386   9.068   7.985   5.519
97497SOL     OW94387  11.377  12.920   2.525
97497SOL    HW194388  11.427  12.919   2.606
97497SOL    HW294389  11.404  12.841   2.478
97498SOL     OW94390  13.361   8.439   6.748
97498SOL    HW194391  13.428   8.380   6.712
97498SOL    HW294392  13.399   8.470   6.830
97499SOL     OW94393   5.325   0.581   5.403
97499SOL    HW194394   5.415   0.558   5.427
97499SOL    HW294395   5.274   0.502   5.424
97500SOL     OW94396   9.616   5.685   2.663
97500SOL    HW194397   9.696   5.687   2.609
97500SOL    HW294398   9.609   5.774   2.697
97501SOL     OW94399   5.171   5.435  10.470
97501SOL    HW194400   5.159   5.529  10.481
97501SOL    HW294401   5.209   5.405  10.553
97502SOL     OW94402   5.455   7.592   4.897
97502SOL    HW194403   5.429   7.504   4.925
97502SOL    HW294404   5.507   7.626   4.970
97503SOL     OW94405   5.487  14.533   2.059
97503SOL    HW194406   5.579  14.550   2.041
97503SOL    HW294407   5.466  14.589   2.133
97504SOL     OW94408   3.046   6.738  11.822
97504SOL    HW194409   3.139   6.715  11.823
97504SOL    HW294410   3.031   6.774  11.735
97505SOL     OW94411   3.154   1.696  10.759
97505SOL    HW194412   3.234   1.670  10.805
97505SOL    HW294413   3.092   1.718  10.829
97506SOL     OW94414   5.875  14.097  13.351
97506SOL    HW194415   5.854  14.155  13.278
97506SOL    HW294416   5.791  14.080  13.393
97507SOL     OW94417   4.875  12.034  14.780
97507SOL    HW194418   4.956  12.042  14.829
97507SOL    HW294419   4.816  11.987  14.839
97508SOL     OW94420  11.105   5.295  12.243
97508SOL    HW194421  11.106   5.216  12.188
97508SOL    HW294422  11.020   5.292  12.287
97509SOL     OW94423   2.091  14.658   3.598
97509SOL    HW194424   2.057  14.655   3.687
97509SOL    HW294425   2.157  14.589   3.595
97510SOL     OW94426   8.899  13.146  10.238
97510SOL    HW194427   8.947  13.217  10.280
97510SOL    HW294428   8.954  13.069  10.251
97511SOL     OW94429  10.136   6.344   8.713
97511SOL    HW194430  10.067   6.409   8.726
97511SOL    HW294431  10.216   6.389   8.742
97512SOL     OW94432   4.206   5.404   2.160
97512SOL    HW194433   4.236   5.313   2.160
97512SOL    HW294434   4.204   5.429   2.067
97513SOL     OW94435  13.677  13.693   7.656
97513SOL    HW194436  13.644  13.668   7.742
97513SOL    HW294437  13.602  13.684   7.598
97514SOL     OW94438   2.463  11.940   1.419
97514SOL    HW194439   2.526  11.992   1.469
97514SOL    HW294440   2.379  11.981   1.437
97515SOL     OW94441   1.757  14.039   7.154
97515SOL    HW194442   1.810  14.079   7.085
97515SOL    HW294443   1.671  14.026   7.115
97516SOL     OW94444  11.048  14.870  11.578
97516SOL    HW194445  11.002   0.081  11.570
97516SOL    HW294446  11.051  14.853  11.673
97517SOL     OW94447   0.909   6.415   5.285
97517SOL    HW194448   0.896   6.370   5.201
97517SOL    HW294449   1.004   6.426   5.292
97518SOL     OW94450   1.551   1.401   4.602
97518SOL    HW194451   1.495   1.455   4.658
97518SOL    HW294452   1.636   1.401   4.645
97519SOL     OW94453   9.005  13.133   7.676
97519SOL    HW194454   9.060  13.151   7.599
97519SOL    HW294455   8.916  13.134   7.643
97520SOL     OW94456   5.358   8.002   8.373
97520SOL    HW194457   5.375   8.096   8.369
97520SOL    HW294458   5.309   7.983   8.294
97521SOL     OW94459   5.891   2.144   2.315
97521SOL    HW194460   5.956   2.199   2.359
97521SOL    HW294461   5.808   2.191   2.325
97522SOL     OW94462   8.487   0.778   3.440
97522SOL    HW194463   8.534   0.712   3.490
97522SOL    HW294464   8.470   0.737   3.355
97523SOL     OW94465   5.992   2.715   8.090
97523SOL    HW194466   6.049   2.638   8.086
97523SOL    HW294467   5.990   2.739   8.182
97524SOL     OW94468  11.138   9.758   9.971
97524SOL    HW194469  11.155   9.751  10.065
97524SOL    HW294470  11.210   9.711   9.929
97525SOL     OW94471  10.931  10.542   3.479
97525SOL    HW194472  10.890  10.556   3.564
97525SOL    HW294473  10.953  10.630   3.448
97526SOL     OW94474  13.884   2.804   7.907
97526SOL    HW194475  13.937   2.775   7.981
97526SOL    HW294476  13.845   2.724   7.873
97527SOL     OW94477   5.564  10.111   0.374
97527SOL    HW194478   5.584  10.163   0.295
97527SOL    HW294479   5.626  10.038   0.371
97528SOL     OW94480   4.777  11.767   6.590
97528SOL    HW194481   4.842  11.727   6.532
97528SOL    HW294482   4.695  11.762   6.540
97529SOL     OW94483  11.190   1.688   9.776
97529SOL    HW194484  11.190   1.639   9.858
97529SOL    HW294485  11.102   1.675   9.740
97530SOL     OW94486   0.606  10.386   5.917
97530SOL    HW194487   0.592  10.424   6.003
97530SOL    HW294488   0.522  10.396   5.872
97531SOL     OW94489  13.289   5.899   6.602
97531SOL    HW194490  13.323   5.984   6.631
97531SOL    HW294491  13.194   5.910   6.603
97532SOL     OW94492  13.561   5.407   0.247
97532SOL    HW194493  13.543   5.397   0.341
97532SOL    HW294494  13.564   5.502   0.233
97533SOL     OW94495  11.834  11.000   2.770
97533SOL    HW194496  11.925  10.973   2.784
97533SOL    HW294497  11.816  11.062   2.841
97534SOL     OW94498   4.674   5.008   1.926
97534SOL    HW194499   4.631   4.999   2.011
97534SOL    HW294500   4.765   5.031   1.948
97535SOL     OW94501   5.248   7.924   4.037
97535SOL    HW194502   5.338   7.925   4.070
97535SOL    HW294503   5.209   7.846   4.077
97536SOL     OW94504   4.606   2.201   3.427
97536SOL    HW194505   4.543   2.184   3.357
97536SOL    HW294506   4.602   2.296   3.439
97537SOL     OW94507   1.809   0.074  12.135
97537SOL    HW194508   1.802  14.865  12.085
97537SOL    HW294509   1.720   0.091  12.166
97538SOL     OW94510   7.505   8.153  12.824
97538SOL    HW194511   7.542   8.219  12.883
97538SOL    HW294512   7.537   8.070  12.860
97539SOL     OW94513  12.460   3.172  14.171
97539SOL    HW194514  12.442   3.210  14.257
97539SOL    HW294515  12.431   3.081  14.179
97540SOL     OW94516   8.296  13.283  11.250
97540SOL    HW194517   8.253  13.297  11.166
97540SOL    HW294518   8.276  13.191  11.272
97541SOL     OW94519  13.719   1.062  11.328
97541SOL    HW194520  13.813   1.041  11.328
97541SOL    HW294521  13.695   1.061  11.421
97542SOL     OW94522   7.515  11.771   6.856
97542SOL    HW194523   7.501  11.696   6.914
97542SOL    HW294524   7.575  11.828   6.905
97543SOL     OW94525   9.652  11.693   1.027
97543SOL    HW194526   9.560  11.675   1.009
97543SOL    HW294527   9.686  11.730   0.945
97544SOL     OW94528  14.586   4.762   8.309
97544SOL    HW194529  14.647   4.714   8.365
97544SOL    HW294530  14.524   4.802   8.370
97545SOL     OW94531   1.792   5.524   1.191
97545SOL    HW194532   1.774   5.581   1.265
97545SOL    HW294533   1.710   5.521   1.142
97546SOL     OW94534   2.245  14.518   3.245
97546SOL    HW194535   2.216  14.608   3.228
97546SOL    HW294536   2.338  14.527   3.267
97547SOL     OW94537   8.150   0.396   6.820
97547SOL    HW194538   8.105   0.479   6.801
97547SOL    HW294539   8.082   0.329   6.811
97548SOL     OW94540   3.370  13.321   7.648
97548SOL    HW194541   3.289  13.335   7.599
97548SOL    HW294542   3.421  13.261   7.594
97549SOL     OW94543  11.324   5.473  12.865
97549SOL    HW194544  11.302   5.432  12.782
97549SOL    HW294545  11.273   5.425  12.930
97550SOL     OW94546  10.932   8.386   1.928
97550SOL    HW194547  10.995   8.435   1.980
97550SOL    HW294548  10.854   8.381   1.984
97551SOL     OW94549   0.244   9.665  13.646
97551SOL    HW194550   0.179   9.633  13.708
97551SOL    HW294551   0.314   9.599  13.649
97552SOL     OW94552   8.969  10.566  12.076
97552SOL    HW194553   9.006  10.654  12.067
97552SOL    HW294554   8.901  10.561  12.009
97553SOL     OW94555   8.048   1.363  13.148
97553SOL    HW194556   8.004   1.446  13.128
97553SOL    HW294557   8.026   1.347  13.240
97554SOL     OW94558   2.591   9.894   6.543
97554SOL    HW194559   2.547   9.812   6.520
97554SOL    HW294560   2.684   9.872   6.545
97555SOL     OW94561   1.944  11.351   3.710
97555SOL    HW194562   1.865  11.315   3.751
97555SOL    HW294563   1.991  11.274   3.677
97556SOL     OW94564   6.093   6.355   1.059
97556SOL    HW194565   6.155   6.416   1.099
97556SOL    HW294566   6.083   6.284   1.122
97557SOL     OW94567   3.119  11.460   3.074
97557SOL    HW194568   3.129  11.554   3.058
97557SOL    HW294569   3.086  11.425   2.991
97558SOL     OW94570  14.244   2.205   4.549
97558SOL    HW194571  14.274   2.117   4.523
97558SOL    HW294572  14.254   2.207   4.644
97559SOL     OW94573   4.153   7.035   9.087
97559SOL    HW194574   4.058   7.046   9.094
97559SOL    HW294575   4.166   6.940   9.087
97560SOL     OW94576  12.222   6.458   5.219
97560SOL    HW194577  12.159   6.392   5.187
97560SOL    HW294578  12.170   6.514   5.276
97561SOL     OW94579  10.980  11.662   0.771
97561SOL    HW194580  10.947  11.573   0.783
97561SOL    HW294581  10.967  11.680   0.677
97562SOL     OW94582  10.851   7.227  12.589
97562SOL    HW194583  10.836   7.170  12.665
97562SOL    HW294584  10.778   7.289  12.592
97563SOL     OW94585   0.482   4.684   6.392
97563SOL    HW194586   0.549   4.697   6.325
97563SOL    HW294587   0.410   4.741   6.365
97564SOL     OW94588  11.678   3.991  10.582
97564SOL    HW194589  11.681   4.011  10.675
97564SOL    HW294590  11.603   3.933  10.572
97565SOL     OW94591   4.844   0.665   4.058
97565SOL    HW194592   4.930   0.706   4.057
97565SOL    HW294593   4.813   0.676   4.148
97566SOL     OW94594   0.364   2.039   7.279
97566SOL    HW194595   0.344   1.947   7.299
97566SOL    HW294596   0.285   2.071   7.236
97567SOL     OW94597   1.246   3.826   0.546
97567SOL    HW194598   1.206   3.872   0.473
97567SOL    HW294599   1.311   3.768   0.506
97568SOL     OW94600   7.589  14.252   0.411
97568SOL    HW194601   7.655  14.219   0.472
97568SOL    HW294602   7.544  14.174   0.378
97569SOL     OW94603  13.443   5.134  10.380
97569SOL    HW194604  13.507   5.205  10.370
97569SOL    HW294605  13.359   5.174  10.362
97570SOL     OW94606   9.422  11.394   2.756
97570SOL    HW194607   9.424  11.453   2.681
97570SOL    HW294608   9.506  11.349   2.755
97571SOL     OW94609   9.903  10.940   5.468
97571SOL    HW194610   9.835  10.982   5.522
97571SOL    HW294611   9.981  10.994   5.482
97572SOL     OW94612  14.707   0.290   1.660
97572SOL    HW194613  14.705   0.303   1.755
97572SOL    HW294614  14.615   0.276   1.636
97573SOL     OW94615   4.924   9.252   2.117
97573SOL    HW194616   4.951   9.165   2.090
97573SOL    HW294617   4.908   9.300   2.035
97574SOL     OW94618  10.174   8.001   9.974
97574SOL    HW194619  10.249   7.993   9.914
97574SOL    HW294620  10.202   7.956  10.054
97575SOL     OW94621  11.316   1.124   4.045
97575SOL    HW194622  11.354   1.149   4.130
97575SOL    HW294623  11.387   1.078   4.000
97576SOL     OW94624   9.868   1.028   3.266
97576SOL    HW194625   9.959   1.015   3.238
97576SOL    HW294626   9.867   1.118   3.300
97577SOL     OW94627   7.118   9.786  14.159
97577SOL    HW194628   7.208   9.767  14.186
97577SOL    HW294629   7.126   9.865  14.105
97578SOL     OW94630   5.937   0.650   4.948
97578SOL    HW194631   5.901   0.726   4.994
97578SOL    HW294632   5.991   0.688   4.878
97579SOL     OW94633   0.805   5.765  13.041
97579SOL    HW194634   0.723   5.727  13.072
97579SOL    HW294635   0.779   5.842  12.991
97580SOL     OW94636   4.678   6.704  11.919
97580SOL    HW194637   4.721   6.788  11.902
97580SOL    HW294638   4.734   6.661  11.984
97581SOL     OW94639   2.482  11.930   6.360
97581SOL    HW194640   2.531  11.853   6.330
97581SOL    HW294641   2.507  12.000   6.300
97582SOL     OW94642  14.610  14.501   8.504
97582SOL    HW194643  14.641  14.591   8.514
97582SOL    HW294644  14.689  14.449   8.497
97583SOL     OW94645   4.493   1.143   6.089
97583SOL    HW194646   4.493   1.155   6.184
97583SOL    HW294647   4.459   1.225   6.054
97584SOL     OW94648   1.921   0.031  14.586
97584SOL    HW194649   1.894  14.828  14.637
97584SOL    HW294650   2.005   0.005  14.547
97585SOL     OW94651   0.275  12.446   3.590
97585SOL    HW194652   0.343  12.438   3.523
97585SOL    HW294653   0.201  12.486   3.544
97586SOL     OW94654   9.556   6.523  12.407
97586SOL    HW194655   9.629   6.516  12.346
97586SOL    HW294656   9.569   6.450  12.468
97587SOL     OW94657   6.730  12.620   8.278
97587SOL    HW194658   6.802  12.679   8.258
97587SOL    HW294659   6.745  12.544   8.223
97588SOL     OW94660  11.210  11.943   0.847
97588SOL    HW194661  11.265  12.009   0.803
97588SOL    HW294662  11.209  11.869   0.786
97589SOL     OW94663   8.350   7.809  11.668
97589SOL    HW194664   8.255   7.820  11.666
97589SOL    HW294665   8.365   7.723  11.629
97590SOL     OW94666   2.760  14.583   0.465
97590SOL    HW194667   2.729  14.561   0.553
97590SOL    HW294668   2.851  14.610   0.479
97591SOL     OW94669  13.099   6.138   8.732
97591SOL    HW194670  13.148   6.082   8.792
97591SOL    HW294671  13.013   6.147   8.773
97592SOL     OW94672   3.306  13.851  14.300
97592SOL    HW194673   3.360  13.921  14.337
97592SOL    HW294674   3.337  13.772  14.344
97593SOL     OW94675  12.091   1.020  13.580
97593SOL    HW194676  12.061   1.095  13.529
97593SOL    HW294677  12.020   0.957  13.574
97594SOL     OW94678   6.208   0.653   7.801
97594SOL    HW194679   6.191   0.725   7.740
97594SOL    HW294680   6.275   0.687   7.861
97595SOL     OW94681   3.357   7.158   1.068
97595SOL    HW194682   3.348   7.070   1.033
97595SOL    HW294683   3.376   7.145   1.161
97596SOL     OW94684  12.850   7.604   7.097
97596SOL    HW194685  12.815   7.542   7.033
97596SOL    HW294686  12.940   7.576   7.111
97597SOL     OW94687   6.068   4.588   0.578
97597SOL    HW194688   6.152   4.598   0.533
97597SOL    HW294689   6.048   4.675   0.611
97598SOL     OW94690   7.994   9.518   6.383
97598SOL    HW194691   7.995   9.485   6.472
97598SOL    HW294692   7.914   9.482   6.345
97599SOL     OW94693  11.364   7.428  11.282
97599SOL    HW194694  11.392   7.517  11.260
97599SOL    HW294695  11.268   7.433  11.282
97600SOL     OW94696  10.138  14.399   5.858
97600SOL    HW194697  10.088  14.320   5.836
97600SOL    HW294698  10.078  14.451   5.910
97601SOL     OW94699   3.618   4.196   6.810
97601SOL    HW194700   3.588   4.214   6.900
97601SOL    HW294701   3.537   4.199   6.758
97602SOL     OW94702  12.097   2.866   6.079
97602SOL    HW194703  12.027   2.804   6.100
97602SOL    HW294704  12.137   2.832   5.999
97603SOL     OW94705   2.359   6.549  14.691
97603SOL    HW194706   2.427   6.566  14.756
97603SOL    HW294707   2.366   6.455  14.673
97604SOL     OW94708   3.390  10.294   8.429
97604SOL    HW194709   3.337  10.346   8.489
97604SOL    HW294710   3.414  10.355   8.359
97605SOL     OW94711  10.650   7.582  12.246
97605SOL    HW194712  10.730   7.607  12.292
97605SOL    HW294713  10.579   7.608  12.306
97606SOL     OW94714   8.498   3.128   3.455
97606SOL    HW194715   8.407   3.151   3.436
97606SOL    HW294716   8.505   3.035   3.431
97607SOL     OW94717   4.252   1.052   2.075
97607SOL    HW194718   4.302   0.977   2.042
97607SOL    HW294719   4.317   1.120   2.089
97608SOL     OW94720   7.834  12.749   4.345
97608SOL    HW194721   7.758  12.793   4.381
97608SOL    HW294722   7.889  12.819   4.310
97609SOL     OW94723   9.176   0.556   0.937
97609SOL    HW194724   9.115   0.493   0.976
97609SOL    HW294725   9.220   0.597   1.012
97610SOL     OW94726  12.556   6.893   1.952
97610SOL    HW194727  12.600   6.824   1.902
97610SOL    HW294728  12.545   6.965   1.890
97611SOL     OW94729   5.898   0.308   8.971
97611SOL    HW194730   5.926   0.378   9.029
97611SOL    HW294731   5.811   0.283   9.004
97612SOL     OW94732  13.345   0.560   3.948
97612SOL    HW194733  13.290   0.545   4.025
97612SOL    HW294734  13.297   0.520   3.875
97613SOL     OW94735  11.965  10.448  14.427
97613SOL    HW194736  11.941  10.533  14.389
97613SOL    HW294737  11.894  10.389  14.401
97614SOL     OW94738   8.238   1.577   6.985
97614SOL    HW194739   8.235   1.547   6.894
97614SOL    HW294740   8.176   1.521   7.031
97615SOL     OW94741  14.277  12.062  14.831
97615SOL    HW194742  14.316  12.079   0.045
97615SOL    HW294743  14.351  12.039  14.775
97616SOL     OW94744  14.371   1.873  11.039
97616SOL    HW194745  14.427   1.882  11.115
97616SOL    HW294746  14.287   1.842  11.074
97617SOL     OW94747   5.253   8.100   0.580
97617SOL    HW194748   5.179   8.040   0.573
97617SOL    HW294749   5.244   8.158   0.504
97618SOL     OW94750   9.178   4.902  14.225
97618SOL    HW194751   9.140   4.851  14.296
97618SOL    HW294752   9.172   4.845  14.148
97619SOL     OW94753   2.142   3.208   3.913
97619SOL    HW194754   2.078   3.263   3.957
97619SOL    HW294755   2.114   3.208   3.821
97620SOL     OW94756  11.299  13.142  13.630
97620SOL    HW194757  11.383  13.188  13.627
97620SOL    HW294758  11.244  13.189  13.567
97621SOL     OW94759   0.217   0.285  11.715
97621SOL    HW194760   0.240   0.377  11.704
97621SOL    HW294761   0.295   0.236  11.687
97622SOL     OW94762   6.012   4.690   5.579
97622SOL    HW194763   5.980   4.774   5.546
97622SOL    HW294764   6.061   4.653   5.506
97623SOL     OW94765   4.677   3.731  11.778
97623SOL    HW194766   4.674   3.747  11.683
97623SOL    HW294767   4.719   3.808  11.814
97624SOL     OW94768   8.847   1.445   9.771
97624SOL    HW194769   8.938   1.447   9.740
97624SOL    HW294770   8.795   1.429   9.693
97625SOL     OW94771   3.473   8.386  12.433
97625SOL    HW194772   3.516   8.343  12.358
97625SOL    HW294773   3.534   8.456  12.458
97626SOL     OW94774   9.007   3.008  12.492
97626SOL    HW194775   9.087   2.956  12.497
97626SOL    HW294776   8.964   2.997  12.577
97627SOL     OW94777  13.425  13.894  14.050
97627SOL    HW194778  13.451  13.941  13.971
97627SOL    HW294779  13.377  13.818  14.019
97628SOL     OW94780   4.873   0.560  13.064
97628SOL    HW194781   4.902   0.592  13.150
97628SOL    HW294782   4.791   0.606  13.048
97629SOL     OW94783   8.629   2.310   0.497
97629SOL    HW194784   8.712   2.352   0.522
97629SOL    HW294785   8.571   2.383   0.476
97630SOL     OW94786   3.203  11.917   3.209
97630SOL    HW194787   3.230  12.004   3.179
97630SOL    HW294788   3.256  11.856   3.159
97631SOL     OW94789  14.001   7.209   6.809
97631SOL    HW194790  13.957   7.294   6.805
97631SOL    HW294791  14.088   7.230   6.843
97632SOL     OW94792   8.287  13.927   6.981
97632SOL    HW194793   8.329  13.874   6.914
97632SOL    HW294794   8.230  13.986   6.932
97633SOL     OW94795   4.560   6.640   2.284
97633SOL    HW194796   4.553   6.559   2.335
97633SOL    HW294797   4.526   6.618   2.198
97634SOL     OW94798   7.608   8.684   0.829
97634SOL    HW194799   7.574   8.637   0.905
97634SOL    HW294800   7.534   8.737   0.799
97635SOL     OW94801   5.300  11.829   0.507
97635SOL    HW194802   5.251  11.902   0.545
97635SOL    HW294803   5.379  11.868   0.472
97636SOL     OW94804   7.620  11.532  13.235
97636SOL    HW194805   7.604  11.540  13.141
97636SOL    HW294806   7.533  11.536  13.275
97637SOL     OW94807   3.709   2.882   3.075
97637SOL    HW194808   3.734   2.931   3.153
97637SOL    HW294809   3.773   2.909   3.008
97638SOL     OW94810   5.706   8.489   3.816
97638SOL    HW194811   5.624   8.521   3.854
97638SOL    HW294812   5.679   8.417   3.758
97639SOL     OW94813   1.318   4.007   0.089
97639SOL    HW194814   1.254   4.006   0.160
97639SOL    HW294815   1.346   3.916   0.080
97640SOL     OW94816   3.190   0.877  11.321
97640SOL    HW194817   3.259   0.900  11.259
97640SOL    HW294818   3.231   0.883  11.407
97641SOL     OW94819  12.631   4.556   9.777
97641SOL    HW194820  12.544   4.546   9.737
97641SOL    HW294821  12.661   4.467   9.792
97642SOL     OW94822  11.784   9.400   4.013
97642SOL    HW194823  11.738   9.340   3.953
97642SOL    HW294824  11.743   9.485   3.998
97643SOL     OW94825  13.356   5.231   0.116
97643SOL    HW194826  13.289   5.242   0.184
97643SOL    HW294827  13.434   5.272   0.154
97644SOL     OW94828  10.377   7.339  14.021
97644SOL    HW194829  10.455   7.337  13.966
97644SOL    HW294830  10.351   7.247  14.028
97645SOL     OW94831   9.544  12.181   4.839
97645SOL    HW194832   9.639  12.176   4.851
97645SOL    HW294833   9.527  12.132   4.759
97646SOL     OW94834   5.482   6.653   5.685
97646SOL    HW194835   5.440   6.612   5.761
97646SOL    HW294836   5.555   6.595   5.664
97647SOL     OW94837  14.647   8.765   6.180
97647SOL    HW194838  14.627   8.683   6.224
97647SOL    HW294839  14.741   8.760   6.161
97648SOL     OW94840  10.854   0.907   0.031
97648SOL    HW194841  10.884   0.866  14.822
97648SOL    HW294842  10.848   0.834   0.093
97649SOL     OW94843   7.277   5.973   2.992
97649SOL    HW194844   7.364   6.010   3.007
97649SOL    HW294845   7.247   5.945   3.079
97650SOL     OW94846   2.037   8.586  12.081
97650SOL    HW194847   2.046   8.674  12.044
97650SOL    HW294848   2.005   8.601  12.170
97651SOL     OW94849   6.485   5.379  12.694
97651SOL    HW194850   6.475   5.470  12.721
97651SOL    HW294851   6.442   5.328  12.762
97652SOL     OW94852  13.459  14.544   2.125
97652SOL    HW194853  13.448  14.534   2.220
97652SOL    HW294854  13.375  14.517   2.088
97653SOL     OW94855   5.466  10.787   5.524
97653SOL    HW194856   5.372  10.768   5.524
97653SOL    HW294857   5.495  10.760   5.612
97654SOL     OW94858   6.729   3.133   6.654
97654SOL    HW194859   6.782   3.146   6.733
97654SOL    HW294860   6.683   3.051   6.670
97655SOL     OW94861   4.430   5.780   6.918
97655SOL    HW194862   4.409   5.702   6.868
97655SOL    HW294863   4.369   5.846   6.886
97656SOL     OW94864   8.554   6.406   4.398
97656SOL    HW194865   8.525   6.427   4.487
97656SOL    HW294866   8.597   6.485   4.367
97657SOL     OW94867   1.917  14.038   2.677
97657SOL    HW194868   2.008  14.056   2.699
97657SOL    HW294869   1.877  14.125   2.668
97658SOL     OW94870   9.910  13.599   4.127
97658SOL    HW194871   9.900  13.602   4.032
97658SOL    HW294872  10.003  13.615   4.141
97659SOL     OW94873   9.558  10.642  12.180
97659SOL    HW194874   9.541  10.643  12.086
97659SOL    HW294875   9.639  10.692  12.190
97660SOL     OW94876   4.545  10.637   1.552
97660SOL    HW194877   4.630  10.614   1.590
97660SOL    HW294878   4.522  10.562   1.497
97661SOL     OW94879   5.010   4.527   5.824
97661SOL    HW194880   4.986   4.469   5.751
97661SOL    HW294881   5.028   4.611   5.783
97662SOL     OW94882   2.870   7.525   1.583
97662SOL    HW194883   2.890   7.433   1.567
97662SOL    HW294884   2.808   7.524   1.656
97663SOL     OW94885  11.160   2.266  11.558
97663SOL    HW194886  11.169   2.301  11.647
97663SOL    HW294887  11.072   2.292  11.531
97664SOL     OW94888  13.053   8.075   9.603
97664SOL    HW194889  12.970   8.118   9.582
97664SOL    HW294890  13.096   8.063   9.518
97665SOL     OW94891   5.958   8.586   5.814
97665SOL    HW194892   5.929   8.612   5.727
97665SOL    HW294893   6.006   8.662   5.848
97666SOL     OW94894   5.879   2.337  14.157
97666SOL    HW194895   5.904   2.410  14.100
97666SOL    HW294896   5.962   2.299  14.185
97667SOL     OW94897  13.364  11.134   3.999
97667SOL    HW194898  13.324  11.215   4.032
97667SOL    HW294899  13.330  11.066   4.057
97668SOL     OW94900  11.771  14.679  12.367
97668SOL    HW194901  11.735  14.752  12.417
97668SOL    HW294902  11.717  14.604  12.393
97669SOL     OW94903  11.974   9.229   0.724
97669SOL    HW194904  11.942   9.245   0.813
97669SOL    HW294905  11.960   9.312   0.678
97670SOL     OW94906   4.486   5.135  11.227
97670SOL    HW194907   4.488   5.216  11.176
97670SOL    HW294908   4.537   5.073  11.174
97671SOL     OW94909  13.028  13.943   8.638
97671SOL    HW194910  13.014  13.881   8.711
97671SOL    HW294911  13.008  13.892   8.560
97672SOL     OW94912   6.510   5.626  10.004
97672SOL    HW194913   6.553   5.596   9.923
97672SOL    HW294914   6.479   5.714   9.984
97673SOL     OW94915  10.307   5.295   2.262
97673SOL    HW194916  10.330   5.214   2.307
97673SOL    HW294917  10.357   5.292   2.181
97674SOL     OW94918   4.136   6.223  13.462
97674SOL    HW194919   4.066   6.287  13.448
97674SOL    HW294920   4.215   6.267  13.431
97675SOL     OW94921   4.658   8.646   8.410
97675SOL    HW194922   4.588   8.582   8.426
97675SOL    HW294923   4.707   8.610   8.336
97676SOL     OW94924   4.554   5.364   9.547
97676SOL    HW194925   4.497   5.287   9.551
97676SOL    HW294926   4.533   5.412   9.628
97677SOL     OW94927   7.128   3.156   7.675
97677SOL    HW194928   7.211   3.132   7.634
97677SOL    HW294929   7.104   3.240   7.636
97678SOL     OW94930  14.638   1.485   4.492
97678SOL    HW194931  14.630   1.572   4.532
97678SOL    HW294932  14.552   1.445   4.504
97679SOL     OW94933  10.623   7.692   0.481
97679SOL    HW194934  10.562   7.759   0.449
97679SOL    HW294935  10.572   7.611   0.480
97680SOL     OW94936   5.195   2.054   0.401
97680SOL    HW194937   5.158   2.086   0.319
97680SOL    HW294938   5.128   2.074   0.467
97681SOL     OW94939   3.771   6.096  13.782
97681SOL    HW194940   3.866   6.102  13.767
97681SOL    HW294941   3.733   6.158  13.719
97682SOL     OW94942   3.443  13.710   4.590
97682SOL    HW194943   3.431  13.768   4.665
97682SOL    HW294944   3.426  13.766   4.514
97683SOL     OW94945   1.973   2.242  11.156
97683SOL    HW194946   2.012   2.156  11.175
97683SOL    HW294947   1.911   2.225  11.086
97684SOL     OW94948  11.020  11.634   7.977
97684SOL    HW194949  10.973  11.590   7.906
97684SOL    HW294950  10.985  11.595   8.057
97685SOL     OW94951  11.192  14.866   1.406
97685SOL    HW194952  11.253  14.860   1.480
97685SOL    HW294953  11.139   0.071   1.425
97686SOL     OW94954   0.178   3.681  10.904
97686SOL    HW194955   0.189   3.637  10.820
97686SOL    HW294956   0.226   3.764  10.894
97687SOL     OW94957  10.120   0.608   0.966
97687SOL    HW194958  10.065   0.543   1.010
97687SOL    HW294959  10.109   0.688   1.019
97688SOL     OW94960  12.849   2.075  10.892
97688SOL    HW194961  12.888   1.999  10.936
97688SOL    HW294962  12.756   2.051  10.882
97689SOL     OW94963  14.393   6.950   5.782
97689SOL    HW194964  14.423   6.954   5.873
97689SOL    HW294965  14.395   6.857   5.760
97690SOL     OW94966  10.220   8.826   4.114
97690SOL    HW194967  10.285   8.881   4.159
97690SOL    HW294968  10.149   8.887   4.092
97691SOL     OW94969   8.484  11.853  12.789
97691SOL    HW194970   8.571  11.887  12.767
97691SOL    HW294971   8.446  11.827  12.705
97692SOL     OW94972  10.695   3.840  12.939
97692SOL    HW194973  10.646   3.758  12.930
97692SOL    HW294974  10.654   3.884  13.013
97693SOL     OW94975   5.835   3.132   0.436
97693SOL    HW194976   5.890   3.116   0.360
97693SOL    HW294977   5.809   3.224   0.428
97694SOL     OW94978   9.230   4.166   4.113
97694SOL    HW194979   9.275   4.234   4.163
97694SOL    HW294980   9.275   4.164   4.029
97695SOL     OW94981  12.930   2.851  10.796
97695SOL    HW194982  12.989   2.912  10.752
97695SOL    HW294983  12.918   2.889  10.883
97696SOL     OW94984   1.340   9.078   5.544
97696SOL    HW194985   1.381   8.997   5.516
97696SOL    HW294986   1.409   9.144   5.536
97697SOL     OW94987  10.676  12.325  13.601
97697SOL    HW194988  10.736  12.363  13.665
97697SOL    HW294989  10.675  12.389  13.530
97698SOL     OW94990   1.432   8.869   0.830
97698SOL    HW194991   1.371   8.797   0.845
97698SOL    HW294992   1.377   8.940   0.797
97699SOL     OW94993   2.116  10.885   8.052
97699SOL    HW194994   2.029  10.899   8.014
97699SOL    HW294995   2.175  10.937   7.997
97700SOL     OW94996  12.144  11.724   8.428
97700SOL    HW194997  12.193  11.644   8.410
97700SOL    HW294998  12.092  11.703   8.505
97701SOL     OW94999   4.513  13.098   3.080
97701SOL    HW195000   4.539  13.029   3.019
97701SOL    HW295001   4.498  13.052   3.163
97702SOL     OW95002   8.511   6.196   6.178
97702SOL    HW195003   8.457   6.134   6.227
97702SOL    HW295004   8.507   6.277   6.229
97703SOL     OW95005   2.242   9.356   0.242
97703SOL    HW195006   2.171   9.322   0.296
97703SOL    HW295007   2.320   9.345   0.296
97704SOL     OW95008   9.439   6.647  12.052
97704SOL    HW195009   9.431   6.742  12.040
97704SOL    HW295010   9.447   6.635  12.147
97705SOL     OW95011   8.219   1.904   1.768
97705SOL    HW195012   8.155   1.860   1.825
97705SOL    HW295013   8.292   1.842   1.763
97706SOL     OW95014   9.198  14.586  12.880
97706SOL    HW195015   9.169  14.677  12.889
97706SOL    HW295016   9.117  14.534  12.888
97707SOL     OW95017   2.024   6.378  13.198
97707SOL    HW195018   2.071   6.341  13.124
97707SOL    HW295019   1.978   6.454  13.161
97708SOL     OW95020   0.014  14.485  10.790
97708SOL    HW195021  14.798  14.511  10.814
97708SOL    HW295022   0.045  14.434  10.865
97709SOL     OW95023   6.549   6.604  13.977
97709SOL    HW195024   6.487   6.588  13.906
97709SOL    HW295025   6.593   6.520  13.990
97710SOL     OW95026   2.691  11.433   8.688
97710SOL    HW195027   2.676  11.372   8.616
97710SOL    HW295028   2.629  11.406   8.756
97711SOL     OW95029  10.489   8.728   7.012
97711SOL    HW195030  10.434   8.704   7.087
97711SOL    HW295031  10.556   8.660   7.008
97712SOL     OW95032   7.154  13.301   0.133
97712SOL    HW195033   7.224  13.354   0.171
97712SOL    HW295034   7.157  13.219   0.183
97713SOL     OW95035   7.623   3.949   4.822
97713SOL    HW195036   7.686   3.909   4.763
97713SOL    HW295037   7.578   3.876   4.864
97714SOL     OW95038  13.061  10.352  12.557
97714SOL    HW195039  13.056  10.424  12.620
97714SOL    HW295040  13.097  10.393  12.478
97715SOL     OW95041   2.913  10.588   6.399
97715SOL    HW195042   2.886  10.498   6.420
97715SOL    HW295043   2.844  10.622   6.343
97716SOL     OW95044   3.199   6.322   4.976
97716SOL    HW195045   3.164   6.305   5.064
97716SOL    HW295046   3.230   6.413   4.981
97717SOL     OW95047   3.184  13.719   7.265
97717SOL    HW195048   3.112  13.752   7.211
97717SOL    HW295049   3.158  13.738   7.355
97718SOL     OW95050  10.678   9.525  14.255
97718SOL    HW195051  10.703   9.617  14.249
97718SOL    HW295052  10.673   9.508  14.349
97719SOL     OW95053   2.686   0.895  10.874
97719SOL    HW195054   2.635   0.975  10.864
97719SOL    HW295055   2.741   0.912  10.951
97720SOL     OW95056   1.725   4.653   7.128
97720SOL    HW195057   1.778   4.594   7.074
97720SOL    HW295058   1.781   4.675   7.203
97721SOL     OW95059   8.615   4.689   6.301
97721SOL    HW195060   8.562   4.610   6.302
97721SOL    HW295061   8.574   4.746   6.236
97722SOL     OW95062   3.927   0.401   2.173
97722SOL    HW195063   3.882   0.467   2.121
97722SOL    HW295064   4.013   0.440   2.192
97723SOL     OW95065  13.247   2.115   8.451
97723SOL    HW195066  13.187   2.058   8.404
97723SOL    HW295067  13.288   2.168   8.382
97724SOL     OW95068   7.990   4.490  12.570
97724SOL    HW195069   8.002   4.481  12.665
97724SOL    HW295070   8.074   4.463  12.533
97725SOL     OW95071   6.950   4.375  11.803
97725SOL    HW195072   6.879   4.419  11.757
97725SOL    HW295073   7.021   4.439  11.804
97726SOL     OW95074   0.510   3.464   0.576
97726SOL    HW195075   0.549   3.379   0.598
97726SOL    HW295076   0.427   3.442   0.534
97727SOL     OW95077   6.491   0.055   7.448
97727SOL    HW195078   6.480   0.110   7.370
97727SOL    HW295079   6.586   0.052   7.461
97728SOL     OW95080  11.029  12.106   8.914
97728SOL    HW195081  10.946  12.127   8.956
97728SOL    HW295082  11.077  12.054   8.978
97729SOL     OW95083   0.217  13.049  12.312
97729SOL    HW195084   0.217  13.003  12.396
97729SOL    HW295085   0.171  12.989  12.252
97730SOL     OW95086   5.309   8.719   6.853
97730SOL    HW195087   5.396   8.707   6.815
97730SOL    HW295088   5.268   8.788   6.801
97731SOL     OW95089   0.529   7.988   9.888
97731SOL    HW195090   0.617   7.985   9.850
97731SOL    HW295091   0.523   8.074   9.929
97732SOL     OW95092  12.120  12.889  12.547
97732SOL    HW195093  12.048  12.845  12.591
97732SOL    HW295094  12.141  12.963  12.604
97733SOL     OW95095   9.371   4.899   7.515
97733SOL    HW195096   9.293   4.875   7.566
97733SOL    HW295097   9.424   4.951   7.574
97734SOL     OW95098  12.207   9.950   4.062
97734SOL    HW195099  12.120   9.967   4.026
97734SOL    HW295100  12.190   9.901   4.143
97735SOL     OW95101   9.176  11.679  12.199
97735SOL    HW195102   9.241  11.746  12.177
97735SOL    HW295103   9.111  11.685  12.129
97736SOL     OW95104   8.564   8.926   4.628
97736SOL    HW195105   8.613   8.927   4.545
97736SOL    HW295106   8.539   8.834   4.639
97737SOL     OW95107   7.821   5.901   1.095
97737SOL    HW195108   7.870   5.908   1.177
97737SOL    HW295109   7.880   5.939   1.029
97738SOL     OW95110  11.646   3.274   6.346
97738SOL    HW195111  11.693   3.313   6.420
97738SOL    HW295112  11.588   3.208   6.387
97739SOL     OW95113   1.984  14.190   4.103
97739SOL    HW195114   1.997  14.209   4.195
97739SOL    HW295115   1.958  14.098   4.101
97740SOL     OW95116   8.329   5.668  11.267
97740SOL    HW195117   8.355   5.656  11.358
97740SOL    HW295118   8.256   5.730  11.270
97741SOL     OW95119  11.195  10.260  10.061
97741SOL    HW195120  11.150  10.207   9.996
97741SOL    HW295121  11.157  10.347  10.052
97742SOL     OW95122   3.365   9.814  10.957
97742SOL    HW195123   3.439   9.852  11.005
97742SOL    HW295124   3.380   9.840  10.866
97743SOL     OW95125   1.240   9.537   5.300
97743SOL    HW195126   1.297   9.564   5.372
97743SOL    HW295127   1.300   9.496   5.237
97744SOL     OW95128   7.710   9.939   7.558
97744SOL    HW195129   7.804   9.927   7.542
97744SOL    HW295130   7.706  10.011   7.620
97745SOL     OW95131  13.356   9.443   5.642
97745SOL    HW195132  13.380   9.526   5.684
97745SOL    HW295133  13.312   9.468   5.561
97746SOL     OW95134  11.565   8.915   6.218
97746SOL    HW195135  11.521   8.875   6.293
97746SOL    HW295136  11.536   9.007   6.219
97747SOL     OW95137   7.500   0.740   9.421
97747SOL    HW195138   7.444   0.666   9.399
97747SOL    HW295139   7.495   0.746   9.517
97748SOL     OW95140   2.990   0.344   4.554
97748SOL    HW195141   2.927   0.350   4.626
97748SOL    HW295142   3.066   0.300   4.592
97749SOL     OW95143  13.852   6.620   6.155
97749SOL    HW195144  13.874   6.678   6.082
97749SOL    HW295145  13.759   6.601   6.144
97750SOL     OW95146  10.924   1.279  13.875
97750SOL    HW195147  10.911   1.216  13.946
97750SOL    HW295148  10.909   1.364  13.915
97751SOL     OW95149   2.800   3.262   8.593
97751SOL    HW195150   2.869   3.202   8.563
97751SOL    HW295151   2.815   3.269   8.688
97752SOL     OW95152   0.788   2.275   5.553
97752SOL    HW195153   0.732   2.236   5.486
97752SOL    HW295154   0.753   2.244   5.636
97753SOL     OW95155  13.721  12.023  10.707
97753SOL    HW195156  13.635  12.055  10.735
97753SOL    HW295157  13.782  12.068  10.765
97754SOL     OW95158   3.302   7.207   7.769
97754SOL    HW195159   3.347   7.265   7.830
97754SOL    HW295160   3.317   7.247   7.683
97755SOL     OW95161   6.379  10.136   1.963
97755SOL    HW195162   6.422  10.219   1.940
97755SOL    HW295163   6.390  10.081   1.886
97756SOL     OW95164  10.209   7.150   6.755
97756SOL    HW195165  10.178   7.061   6.772
97756SOL    HW295166  10.229   7.185   6.842
97757SOL     OW95167  13.676   4.723   4.745
97757SOL    HW195168  13.686   4.741   4.839
97757SOL    HW295169  13.756   4.678   4.720
97758SOL     OW95170   0.494   4.126  11.622
97758SOL    HW195171   0.500   4.032  11.604
97758SOL    HW295172   0.567   4.144  11.681
97759SOL     OW95173  10.198   9.026   6.035
97759SOL    HW195174  10.203   9.087   5.961
97759SOL    HW295175  10.183   8.941   5.994
97760SOL     OW95176   3.165   7.058  11.089
97760SOL    HW195177   3.112   7.102  11.023
97760SOL    HW295178   3.178   6.970  11.054
97761SOL     OW95179  10.888   3.169   5.163
97761SOL    HW195180  10.841   3.226   5.101
97761SOL    HW295181  10.923   3.099   5.108
97762SOL     OW95182  13.753   1.433   5.179
97762SOL    HW195183  13.704   1.374   5.237
97762SOL    HW295184  13.814   1.478   5.237
97763SOL     OW95185   8.720   4.719  13.449
97763SOL    HW195186   8.812   4.728  13.475
97763SOL    HW295187   8.672   4.708  13.531
97764SOL     OW95188   4.959  10.898  10.671
97764SOL    HW195189   4.885  10.923  10.726
97764SOL    HW295190   4.972  10.805  10.689
97765SOL     OW95191   0.726   6.488  11.916
97765SOL    HW195192   0.790   6.533  11.971
97765SOL    HW295193   0.761   6.399  11.908
97766SOL     OW95194   5.349   1.516   3.477
97766SOL    HW195195   5.331   1.570   3.553
97766SOL    HW295196   5.356   1.578   3.404
97767SOL     OW95197   4.393  11.471   7.190
97767SOL    HW195198   4.431  11.557   7.207
97767SOL    HW295199   4.434  11.414   7.256
97768SOL     OW95200   1.262  12.806   9.885
97768SOL    HW195201   1.177  12.842   9.911
97768SOL    HW295202   1.241  12.741   9.817
97769SOL     OW95203  14.144   0.347   9.903
97769SOL    HW195204  14.231   0.362   9.864
97769SOL    HW295205  14.150   0.262   9.945
97770SOL     OW95206  11.116   4.060  10.984
97770SOL    HW195207  11.066   4.126  11.033
97770SOL    HW295208  11.050   3.997  10.956
97771SOL     OW95209  12.486   8.423   5.505
97771SOL    HW195210  12.535   8.349   5.470
97771SOL    HW295211  12.537   8.500   5.481
97772SOL     OW95212   3.772   3.213  12.968
97772SOL    HW195213   3.739   3.158  13.039
97772SOL    HW295214   3.730   3.298  12.982
97773SOL     OW95215   7.766   3.141   7.143
97773SOL    HW195216   7.823   3.130   7.067
97773SOL    HW295217   7.734   3.231   7.136
97774SOL     OW95218   7.862   0.251  10.819
97774SOL    HW195219   7.858   0.346  10.810
97774SOL    HW295220   7.833   0.234  10.908
97775SOL     OW95221  11.285   1.609  12.872
97775SOL    HW195222  11.197   1.589  12.903
97775SOL    HW295223  11.330   1.525  12.871
97776SOL     OW95224  10.818   8.373  10.693
97776SOL    HW195225  10.774   8.288  10.691
97776SOL    HW295226  10.789   8.413  10.775
97777SOL     OW95227   2.596   1.692  14.116
97777SOL    HW195228   2.654   1.621  14.091
97777SOL    HW295229   2.608   1.758  14.048
97778SOL     OW95230   2.915   9.116   0.669
97778SOL    HW195231   2.901   9.052   0.599
97778SOL    HW295232   2.867   9.081   0.744
97779SOL     OW95233   2.490  12.319   5.011
97779SOL    HW195234   2.484  12.369   5.093
97779SOL    HW295235   2.537  12.377   4.951
97780SOL     OW95236  12.233   5.944   7.508
97780SOL    HW195237  12.241   6.013   7.442
97780SOL    HW295238  12.144   5.911   7.498
97781SOL     OW95239   1.719   8.477  10.563
97781SOL    HW195240   1.702   8.569  10.581
97781SOL    HW295241   1.679   8.462  10.477
97782SOL     OW95242   1.421   3.742   8.239
97782SOL    HW195243   1.371   3.697   8.306
97782SOL    HW295244   1.488   3.679   8.212
97783SOL     OW95245  11.605   9.675   9.770
97783SOL    HW195246  11.547   9.744   9.738
97783SOL    HW295247  11.548   9.617   9.820
97784SOL     OW95248  10.845  12.155  10.082
97784SOL    HW195249  10.917  12.104  10.045
97784SOL    HW295250  10.858  12.150  10.177
97785SOL     OW95251   6.262   5.106   0.272
97785SOL    HW195252   6.215   5.167   0.329
97785SOL    HW295253   6.331   5.159   0.233
97786SOL     OW95254   2.967  12.807  11.741
97786SOL    HW195255   2.889  12.762  11.709
97786SOL    HW295256   2.972  12.783  11.834
97787SOL     OW95257   6.874   7.702   2.277
97787SOL    HW195258   6.924   7.775   2.238
97787SOL    HW295259   6.892   7.628   2.219
97788SOL     OW95260   4.486  14.089  11.239
97788SOL    HW195261   4.515  14.167  11.285
97788SOL    HW295262   4.455  14.030  11.308
97789SOL     OW95263   8.419   7.955  12.520
97789SOL    HW195264   8.465   7.879  12.482
97789SOL    HW295265   8.348   7.917  12.572
97790SOL     OW95266   9.993   8.473  11.413
97790SOL    HW195267   9.947   8.401  11.457
97790SOL    HW295268   9.968   8.551  11.463
97791SOL     OW95269   2.234   0.203   3.182
97791SOL    HW195270   2.158   0.149   3.159
97791SOL    HW295271   2.298   0.141   3.216
97792SOL     OW95272   1.463  11.551   2.358
97792SOL    HW195273   1.486  11.502   2.279
97792SOL    HW295274   1.448  11.483   2.424
97793SOL     OW95275   4.605  12.525   4.116
97793SOL    HW195276   4.525  12.542   4.166
97793SOL    HW295277   4.580  12.455   4.055
97794SOL     OW95278   3.473   6.779  13.813
97794SOL    HW195279   3.386   6.789  13.774
97794SOL    HW295280   3.476   6.687  13.840
97795SOL     OW95281  10.050  13.263  10.584
97795SOL    HW195282  10.008  13.349  10.576
97795SOL    HW295283  10.002  13.206  10.524
97796SOL     OW95284   7.742   6.800  10.109
97796SOL    HW195285   7.781   6.816  10.023
97796SOL    HW295286   7.697   6.717  10.100
97797SOL     OW95287  13.754   5.022   4.322
97797SOL    HW195288  13.800   4.945   4.291
97797SOL    HW295289  13.801   5.048   4.401
97798SOL     OW95290  14.071   6.850   3.931
97798SOL    HW195291  14.108   6.856   3.843
97798SOL    HW295292  14.006   6.779   3.925
97799SOL     OW95293  11.730   8.738   4.813
97799SOL    HW195294  11.752   8.654   4.853
97799SOL    HW295295  11.812   8.787   4.812
97800SOL     OW95296   6.119  12.470   5.802
97800SOL    HW195297   6.039  12.478   5.749
97800SOL    HW295298   6.113  12.384   5.843
97801SOL     OW95299  12.462   8.891   5.410
97801SOL    HW195300  12.393   8.827   5.425
97801SOL    HW295301  12.418   8.966   5.370
97802SOL     OW95302   0.655  10.253   0.670
97802SOL    HW195303   0.741  10.249   0.713
97802SOL    HW295304   0.638  10.347   0.659
97803SOL     OW95305  12.155   3.359  10.688
97803SOL    HW195306  12.144   3.427  10.755
97803SOL    HW295307  12.133   3.402  10.606
97804SOL     OW95308   1.339  11.365  12.851
97804SOL    HW195309   1.374  11.279  12.824
97804SOL    HW295310   1.303  11.402  12.771
97805SOL     OW95311   4.979  10.367  10.109
97805SOL    HW195312   5.002  10.451  10.148
97805SOL    HW295313   4.895  10.344  10.148
97806SOL     OW95314   0.518   6.525   6.507
97806SOL    HW195315   0.528   6.471   6.429
97806SOL    HW295316   0.444   6.486   6.554
97807SOL     OW95317   8.573  13.261   5.611
97807SOL    HW195318   8.515  13.236   5.539
97807SOL    HW295319   8.658  13.224   5.587
97808SOL     OW95320   9.160   0.896   1.738
97808SOL    HW195321   9.127   0.908   1.827
97808SOL    HW295322   9.216   0.972   1.723
97809SOL     OW95323   2.553   5.372   6.444
97809SOL    HW195324   2.525   5.458   6.413
97809SOL    HW295325   2.529   5.370   6.536
97810SOL     OW95326  12.669   9.259  10.667
97810SOL    HW195327  12.670   9.271  10.572
97810SOL    HW295328  12.577   9.272  10.692
97811SOL     OW95329   3.296   7.006   0.754
97811SOL    HW195330   3.254   6.977   0.673
97811SOL    HW295331   3.244   6.966   0.824
97812SOL     OW95332   9.823  11.002   0.758
97812SOL    HW195333   9.884  11.004   0.684
97812SOL    HW295334   9.801  10.910   0.768
97813SOL     OW95335   1.162  14.227  14.723
97813SOL    HW195336   1.191  14.285  14.793
97813SOL    HW295337   1.233  14.162  14.714
97814SOL     OW95338  12.902   4.153  14.352
97814SOL    HW195339  12.993   4.157  14.381
97814SOL    HW295340  12.854   4.123  14.428
97815SOL     OW95341   0.106  12.581  11.889
97815SOL    HW195342   0.165  12.639  11.938
97815SOL    HW295343   0.025  12.631  11.883
97816SOL     OW95344  12.635  12.136   5.328
97816SOL    HW195345  12.635  12.208   5.390
97816SOL    HW295346  12.582  12.167   5.254
97817SOL     OW95347   4.440   0.555   8.213
97817SOL    HW195348   4.406   0.541   8.125
97817SOL    HW295349   4.535   0.551   8.204
97818SOL     OW95350   0.676   2.626  11.946
97818SOL    HW195351   0.705   2.646  12.035
97818SOL    HW295352   0.586   2.660  11.941
97819SOL     OW95353  13.200   6.152   8.208
97819SOL    HW195354  13.194   6.058   8.189
97819SOL    HW295355  13.158   6.162   8.293
97820SOL     OW95356   4.147  11.872  14.244
97820SOL    HW195357   4.208  11.844  14.175
97820SOL    HW295358   4.204  11.903  14.315
97821SOL     OW95359  12.514   4.263  11.536
97821SOL    HW195360  12.432   4.307  11.558
97821SOL    HW295361  12.557   4.248  11.621
97822SOL     OW95362  11.886  13.081   7.264
97822SOL    HW195363  11.902  13.103   7.356
97822SOL    HW295364  11.874  13.165   7.221
97823SOL     OW95365  13.824  10.329   0.918
97823SOL    HW195366  13.736  10.334   0.956
97823SOL    HW295367  13.877  10.286   0.985
97824SOL     OW95368   7.590  11.532   7.615
97824SOL    HW195369   7.598  11.460   7.553
97824SOL    HW295370   7.655  11.596   7.586
97825SOL     OW95371   4.717   9.013  13.868
97825SOL    HW195372   4.725   9.072  13.943
97825SOL    HW295373   4.713   9.072  13.792
97826SOL     OW95374   8.273   1.710   9.727
97826SOL    HW195375   8.249   1.732   9.637
97826SOL    HW295376   8.281   1.614   9.727
97827SOL     OW95377   5.828   2.830   7.419
97827SOL    HW195378   5.865   2.886   7.487
97827SOL    HW295379   5.734   2.831   7.436
97828SOL     OW95380   2.655  14.495   4.310
97828SOL    HW195381   2.722  14.561   4.292
97828SOL    HW295382   2.590  14.540   4.364
97829SOL     OW95383   1.880   9.709   8.482
97829SOL    HW195384   1.859   9.800   8.500
97829SOL    HW295385   1.923   9.710   8.396
97830SOL     OW95386   3.426   8.767   2.426
97830SOL    HW195387   3.514   8.793   2.397
97830SOL    HW295388   3.405   8.691   2.372
97831SOL     OW95389   2.366   8.621   2.421
97831SOL    HW195390   2.284   8.642   2.465
97831SOL    HW295391   2.365   8.526   2.411
97832SOL     OW95392  11.446   8.052   5.889
97832SOL    HW195393  11.439   8.148   5.891
97832SOL    HW295394  11.540   8.035   5.883
97833SOL     OW95395   4.085  13.258  12.046
97833SOL    HW195396   4.028  13.270  12.122
97833SOL    HW295397   4.108  13.347  12.019
97834SOL     OW95398  11.096  14.437   0.605
97834SOL    HW195399  11.129  14.499   0.670
97834SOL    HW295400  11.096  14.486   0.522
97835SOL     OW95401  14.222   7.202   2.976
97835SOL    HW195402  14.197   7.258   2.902
97835SOL    HW295403  14.229   7.114   2.938
97836SOL     OW95404   0.606  11.083   6.177
97836SOL    HW195405   0.560  11.034   6.108
97836SOL    HW295406   0.542  11.092   6.247
97837SOL     OW95407   9.958   0.712   6.314
97837SOL    HW195408  10.009   0.781   6.358
97837SOL    HW295409   9.868   0.744   6.315
97838SOL     OW95410   7.177   6.333   4.411
97838SOL    HW195411   7.245   6.374   4.463
97838SOL    HW295412   7.223   6.295   4.336
97839SOL     OW95413   2.661   0.023   9.749
97839SOL    HW195414   2.649   0.115   9.772
97839SOL    HW295415   2.752   0.004   9.771
97840SOL     OW95416   7.371  13.865   5.101
97840SOL    HW195417   7.287  13.908   5.118
97840SOL    HW295418   7.347  13.775   5.079
97841SOL     OW95419   2.273   0.207  13.594
97841SOL    HW195420   2.247   0.289  13.637
97841SOL    HW295421   2.205   0.145  13.618
97842SOL     OW95422   0.227   9.634   6.264
97842SOL    HW195423   0.301   9.682   6.227
97842SOL    HW295424   0.211   9.563   6.202
97843SOL     OW95425   3.957  10.067   3.544
97843SOL    HW195426   4.028  10.015   3.582
97843SOL    HW295427   3.973  10.156   3.575
97844SOL     OW95428   3.061   9.682   6.434
97844SOL    HW195429   3.114   9.606   6.458
97844SOL    HW295430   3.120   9.757   6.442
97845SOL     OW95431  12.274  11.804   4.944
97845SOL    HW195432  12.365  11.815   4.971
97845SOL    HW295433  12.237  11.893   4.946
97846SOL     OW95434  13.878  10.891  12.886
97846SOL    HW195435  13.845  10.949  12.955
97846SOL    HW295436  13.819  10.816  12.888
97847SOL     OW95437   6.963  11.898  11.493
97847SOL    HW195438   7.005  11.966  11.441
97847SOL    HW295439   7.002  11.816  11.463
97848SOL     OW95440   6.842   8.959   2.750
97848SOL    HW195441   6.902   8.885   2.742
97848SOL    HW295442   6.834   8.993   2.661
97849SOL     OW95443  11.342  10.010   5.851
97849SOL    HW195444  11.429   9.999   5.889
97849SOL    HW295445  11.355  10.073   5.779
97850SOL     OW95446   5.911  12.276  13.137
97850SOL    HW195447   6.005  12.262  13.148
97850SOL    HW295448   5.904  12.336  13.063
97851SOL     OW95449   6.224   4.669   5.374
97851SOL    HW195450   6.291   4.689   5.310
97851SOL    HW295451   6.266   4.610   5.436
97852SOL     OW95452   5.161  10.529   1.505
97852SOL    HW195453   5.164  10.573   1.420
97852SOL    HW295454   5.214  10.584   1.562
97853SOL     OW95455   8.518   3.604  10.288
97853SOL    HW195456   8.590   3.580  10.347
97853SOL    HW295457   8.472   3.674  10.335
97854SOL     OW95458   7.066   8.301   7.947
97854SOL    HW195459   7.069   8.210   7.918
97854SOL    HW295460   7.146   8.340   7.911
97855SOL     OW95461   2.375   2.836  13.411
97855SOL    HW195462   2.347   2.747  13.387
97855SOL    HW295463   2.402   2.875  13.328
97856SOL     OW95464   1.513  12.537  10.909
97856SOL    HW195465   1.422  12.535  10.877
97856SOL    HW295466   1.558  12.596  10.849
97857SOL     OW95467  14.245  10.969  10.706
97857SOL    HW195468  14.214  11.020  10.631
97857SOL    HW295469  14.168  10.959  10.762
97858SOL     OW95470   3.357   8.534   5.732
97858SOL    HW195471   3.372   8.628   5.739
97858SOL    HW295472   3.433   8.501   5.684
97859SOL     OW95473   5.585   3.726  12.801
97859SOL    HW195474   5.496   3.760  12.796
97859SOL    HW295475   5.634   3.772  12.733
97860SOL     OW95476  12.544  12.295   8.632
97860SOL    HW195477  12.520  12.219   8.684
97860SOL    HW295478  12.546  12.367   8.695
97861SOL     OW95479   0.238   9.333   8.331
97861SOL    HW195480   0.186   9.347   8.410
97861SOL    HW295481   0.326   9.364   8.354
97862SOL     OW95482  10.181   0.600   8.457
97862SOL    HW195483  10.232   0.633   8.531
97862SOL    HW295484  10.208   0.509   8.448
97863SOL     OW95485   3.482   2.779   5.334
97863SOL    HW195486   3.420   2.711   5.306
97863SOL    HW295487   3.564   2.731   5.348
97864SOL     OW95488  11.910  14.392   1.407
97864SOL    HW195489  11.826  14.353   1.433
97864SOL    HW295490  11.972  14.362   1.473
97865SOL     OW95491  13.569  14.005   1.158
97865SOL    HW195492  13.545  13.922   1.115
97865SOL    HW295493  13.619  14.052   1.091
97866SOL     OW95494  14.652   1.808  12.456
97866SOL    HW195495  14.649   1.818  12.361
97866SOL    HW295496  14.620   1.719  12.472
97867SOL     OW95497   5.538  11.663   7.053
97867SOL    HW195498   5.532  11.572   7.081
97867SOL    HW295499   5.509  11.713   7.130
97868SOL     OW95500  13.191   1.764   5.878
97868SOL    HW195501  13.218   1.743   5.789
97868SOL    HW295502  13.200   1.860   5.884
97869SOL     OW95503  13.896   1.053  14.835
97869SOL    HW195504  13.932   1.013  14.756
97869SOL    HW295505  13.806   1.021  14.839
97870SOL     OW95506   1.672  12.017  10.858
97870SOL    HW195507   1.627  11.993  10.939
97870SOL    HW295508   1.753  12.059  10.886
97871SOL     OW95509   3.921   6.521   8.571
97871SOL    HW195510   3.925   6.613   8.595
97871SOL    HW295511   3.915   6.521   8.476
97872SOL     OW95512   3.475  13.162   7.466
97872SOL    HW195513   3.563  13.155   7.429
97872SOL    HW295514   3.417  13.163   7.390
97873SOL     OW95515  13.947   3.888  13.973
97873SOL    HW195516  13.918   3.900  14.063
97873SOL    HW295517  14.041   3.910  13.975
97874SOL     OW95518   2.446   4.771   0.011
97874SOL    HW195519   2.487   4.729  14.808
97874SOL    HW295520   2.471   4.717   0.085
97875SOL     OW95521   6.485   4.033  13.579
97875SOL    HW195522   6.403   4.000  13.542
97875SOL    HW295523   6.487   4.126  13.557
97876SOL     OW95524   2.734  14.174   9.244
97876SOL    HW195525   2.793  14.250   9.241
97876SOL    HW295526   2.793  14.098   9.249
97877SOL     OW95527   7.492  12.303   8.985
97877SOL    HW195528   7.504  12.215   8.949
97877SOL    HW295529   7.448  12.351   8.915
97878SOL     OW95530  14.813   4.813   1.033
97878SOL    HW195531  14.732   4.849   0.997
97878SOL    HW295532  14.859   4.889   1.069
97879SOL     OW95533   2.207   6.739   6.385
97879SOL    HW195534   2.241   6.654   6.415
97879SOL    HW295535   2.279   6.800   6.403
97880SOL     OW95536   3.026  13.365  10.406
97880SOL    HW195537   2.993  13.333  10.322
97880SOL    HW295538   3.107  13.316  10.421
97881SOL     OW95539   4.515   5.515   9.771
97881SOL    HW195540   4.493   5.522   9.864
97881SOL    HW295541   4.490   5.600   9.734
97882SOL     OW95542  11.861   3.798  11.226
97882SOL    HW195543  11.778   3.768  11.265
97882SOL    HW295544  11.864   3.892  11.245
97883SOL     OW95545  13.058  12.761   3.855
97883SOL    HW195546  13.082  12.853   3.867
97883SOL    HW295547  12.983  12.749   3.914
97884SOL     OW95548   8.520  13.143  12.390
97884SOL    HW195549   8.588  13.208  12.370
97884SOL    HW295550   8.544  13.110  12.477
97885SOL     OW95551  14.525   6.149  10.143
97885SOL    HW195552  14.581   6.176  10.070
97885SOL    HW295553  14.496   6.061  10.119
97886SOL     OW95554  13.506   8.308   0.076
97886SOL    HW195555  13.499   8.328   0.169
97886SOL    HW295556  13.474   8.218   0.069
97887SOL     OW95557  13.031   2.983   1.326
97887SOL    HW195558  13.096   3.054   1.330
97887SOL    HW295559  13.072   2.916   1.272
97888SOL     OW95560  12.064   0.379   8.484
97888SOL    HW195561  12.052   0.307   8.545
97888SOL    HW295562  11.980   0.388   8.440
97889SOL     OW95563  11.209   1.868   8.072
97889SOL    HW195564  11.232   1.947   8.022
97889SOL    HW295565  11.115   1.859   8.061
97890SOL     OW95566   6.942   3.001   5.548
97890SOL    HW195567   6.876   3.026   5.483
97890SOL    HW295568   6.963   2.910   5.527
97891SOL     OW95569  12.024  13.056   2.771
97891SOL    HW195570  12.071  13.101   2.841
97891SOL    HW295571  12.061  13.091   2.690
97892SOL     OW95572   2.761  11.334   2.780
97892SOL    HW195573   2.754  11.285   2.699
97892SOL    HW295574   2.676  11.378   2.790
97893SOL     OW95575  13.140   0.692  13.123
97893SOL    HW195576  13.089   0.770  13.143
97893SOL    HW295577  13.076   0.620  13.128
97894SOL     OW95578   1.318  14.871   1.161
97894SOL    HW195579   1.225  14.851   1.157
97894SOL    HW295580   1.323   0.094   1.158
97895SOL     OW95581   9.182  13.961   6.327
97895SOL    HW195582   9.143  14.025   6.386
97895SOL    HW295583   9.167  13.876   6.370
97896SOL     OW95584   5.896   2.016   9.339
97896SOL    HW195585   5.972   1.975   9.382
97896SOL    HW295586   5.926   2.104   9.316
97897SOL     OW95587   3.719  14.644  11.649
97897SOL    HW195588   3.738  14.552  11.630
97897SOL    HW295589   3.754  14.657  11.737
97898SOL     OW95590   6.194   0.554   7.320
97898SOL    HW195591   6.140   0.508   7.256
97898SOL    HW295592   6.201   0.493   7.394
97899SOL     OW95593   2.748   7.847   6.126
97899SOL    HW195594   2.706   7.870   6.043
97899SOL    HW295595   2.712   7.909   6.190
97900SOL     OW95596   1.213  11.418   1.751
97900SOL    HW195597   1.198  11.398   1.844
97900SOL    HW295598   1.211  11.332   1.708
97901SOL     OW95599   6.217  11.681   4.139
97901SOL    HW195600   6.297  11.655   4.093
97901SOL    HW295601   6.205  11.773   4.115
97902SOL     OW95602   3.903  11.104   4.033
97902SOL    HW195603   3.824  11.051   4.022
97902SOL    HW295604   3.870  11.192   4.051
97903SOL     OW95605   6.502   1.573   8.038
97903SOL    HW195606   6.472   1.512   7.971
97903SOL    HW295607   6.537   1.517   8.108
97904SOL     OW95608   4.091   9.688   6.148
97904SOL    HW195609   4.156   9.619   6.133
97904SOL    HW295610   4.135   9.768   6.119
97905SOL     OW95611  13.559  14.715   3.454
97905SOL    HW195612  13.500  14.646   3.482
97905SOL    HW295613  13.640  14.700   3.504
97906SOL     OW95614  11.687   0.785   6.095
97906SOL    HW195615  11.743   0.772   6.172
97906SOL    HW295616  11.747   0.780   6.021
97907SOL     OW95617   2.650   3.786   9.102
97907SOL    HW195618   2.715   3.823   9.163
97907SOL    HW295619   2.686   3.701   9.077
97908SOL     OW95620  12.522   2.128   0.597
97908SOL    HW195621  12.590   2.090   0.652
97908SOL    HW295622  12.562   2.135   0.511
97909SOL     OW95623   7.398   2.176   2.459
97909SOL    HW195624   7.371   2.268   2.450
97909SOL    HW295625   7.490   2.175   2.433
97910SOL     OW95626   5.616   4.664  10.454
97910SOL    HW195627   5.583   4.597  10.514
97910SOL    HW295628   5.650   4.733  10.512
97911SOL     OW95629   1.478  11.239  12.460
97911SOL    HW195630   1.453  11.183  12.533
97911SOL    HW295631   1.569  11.262  12.476
97912SOL     OW95632   5.919  13.293  11.930
97912SOL    HW195633   5.922  13.255  11.842
97912SOL    HW295634   5.959  13.227  11.987
97913SOL     OW95635  12.285  10.783   0.719
97913SOL    HW195636  12.314  10.792   0.809
97913SOL    HW295637  12.266  10.872   0.690
97914SOL     OW95638   4.379   1.985  12.783
97914SOL    HW195639   4.410   2.054  12.841
97914SOL    HW295640   4.285   1.981  12.799
97915SOL     OW95641   7.759   8.176  11.271
97915SOL    HW195642   7.717   8.198  11.354
97915SOL    HW295643   7.715   8.231  11.207
97916SOL     OW95644   5.218  11.014  14.424
97916SOL    HW195645   5.267  11.018  14.506
97916SOL    HW295646   5.270  10.958  14.367
97917SOL     OW95647   8.139   1.602   2.796
97917SOL    HW195648   8.081   1.532   2.765
97917SOL    HW295649   8.174   1.641   2.716
97918SOL     OW95650   5.039   6.475   8.952
97918SOL    HW195651   5.134   6.480   8.949
97918SOL    HW295652   5.009   6.561   8.923
97919SOL     OW95653   4.728   3.869   8.019
97919SOL    HW195654   4.749   3.960   8.037
97919SOL    HW295655   4.812   3.823   8.026
97920SOL     OW95656   8.958   8.414   2.502
97920SOL    HW195657   8.868   8.444   2.512
97920SOL    HW295658   8.960   8.328   2.545
97921SOL     OW95659   8.581   8.958  11.816
97921SOL    HW195660   8.565   8.911  11.734
97921SOL    HW295661   8.670   8.934  11.841
97922SOL     OW95662   6.374  12.287  14.609
97922SOL    HW195663   6.373  12.277  14.705
97922SOL    HW295664   6.293  12.334  14.589
97923SOL     OW95665   7.298   2.889   9.116
97923SOL    HW195666   7.279   2.957   9.052
97923SOL    HW295667   7.376   2.845   9.083
97924SOL     OW95668   6.653  14.387  11.108
97924SOL    HW195669   6.695  14.441  11.175
97924SOL    HW295670   6.595  14.447  11.061
97925SOL     OW95671  14.069   6.907   9.824
97925SOL    HW195672  13.981   6.936   9.848
97925SOL    HW295673  14.055   6.823   9.779
97926SOL     OW95674  10.816   4.018  11.258
97926SOL    HW195675  10.863   4.074  11.319
97926SOL    HW295676  10.724   4.028  11.282
97927SOL     OW95677   8.854   3.550  12.682
97927SOL    HW195678   8.817   3.473  12.637
97927SOL    HW295679   8.841   3.532  12.775
97928SOL     OW95680   3.894  13.261   2.712
97928SOL    HW195681   3.953  13.332   2.738
97928SOL    HW295682   3.940  13.181   2.739
97929SOL     OW95683   8.253  14.486   3.779
97929SOL    HW195684   8.205  14.568   3.768
97929SOL    HW295685   8.208  14.441   3.850
97930SOL     OW95686  11.776   0.874  12.240
97930SOL    HW195687  11.826   0.935  12.185
97930SOL    HW295688  11.842   0.817  12.279
97931SOL     OW95689   7.311  13.111   6.795
97931SOL    HW195690   7.290  13.071   6.711
97931SOL    HW295691   7.310  13.039   6.858
97932SOL     OW95692   3.960  14.477   8.627
97932SOL    HW195693   4.034  14.421   8.602
97932SOL    HW295694   3.937  14.523   8.546
97933SOL     OW95695   5.306  14.662  13.426
97933SOL    HW195696   5.242  14.614  13.479
97933SOL    HW295697   5.346  14.595  13.370
97934SOL     OW95698  13.352   8.503   2.142
97934SOL    HW195699  13.400   8.454   2.208
97934SOL    HW295700  13.343   8.443   2.069
97935SOL     OW95701   1.918  12.753  11.547
97935SOL    HW195702   1.854  12.795  11.491
97935SOL    HW295703   1.955  12.825  11.599
97936SOL     OW95704  12.884   2.807   3.921
97936SOL    HW195705  12.945   2.787   3.992
97936SOL    HW295706  12.847   2.722   3.897
97937SOL     OW95707   0.941   7.159  10.179
97937SOL    HW195708   0.913   7.232  10.233
97937SOL    HW295709   1.032   7.145  10.204
97938SOL     OW95710   1.275   6.643   9.269
97938SOL    HW195711   1.193   6.692   9.257
97938SOL    HW295712   1.255   6.556   9.233
97939SOL     OW95713   5.374  14.796   1.578
97939SOL    HW195714   5.349  14.854   1.650
97939SOL    HW295715   5.291  14.766   1.542
97940SOL     OW95716   2.751   1.455  10.631
97940SOL    HW195717   2.738   1.362  10.617
97940SOL    HW295718   2.806   1.461  10.708
97941SOL     OW95719  12.556  13.386   3.035
97941SOL    HW195720  12.552  13.436   3.116
97941SOL    HW295721  12.465  13.383   3.005
97942SOL     OW95722   8.013  12.462  12.102
97942SOL    HW195723   7.952  12.535  12.112
97942SOL    HW295724   8.025  12.454  12.007
97943SOL     OW95725   0.509   7.073  10.026
97943SOL    HW195726   0.457   7.147   9.993
97943SOL    HW295727   0.450   7.029  10.088
97944SOL     OW95728  10.134   4.977   6.395
97944SOL    HW195729  10.165   4.934   6.474
97944SOL    HW295730  10.179   5.062   6.395
97945SOL     OW95731   7.003   9.060   6.109
97945SOL    HW195732   6.996   8.965   6.102
97945SOL    HW295733   7.090   9.075   6.147
97946SOL     OW95734  10.441   9.924   6.422
97946SOL    HW195735  10.347   9.938   6.424
97946SOL    HW295736  10.476   9.985   6.487
97947SOL     OW95737  11.732   5.556   3.629
97947SOL    HW195738  11.679   5.523   3.702
97947SOL    HW295739  11.702   5.646   3.617
97948SOL     OW95740  10.897   3.083  14.535
97948SOL    HW195741  10.827   3.019  14.517
97948SOL    HW295742  10.880   3.111  14.625
97949SOL     OW95743   2.952  13.172   8.441
97949SOL    HW195744   2.972  13.125   8.360
97949SOL    HW295745   3.028  13.227   8.456
97950SOL     OW95746   3.802   8.218   8.311
97950SOL    HW195747   3.867   8.195   8.377
97950SOL    HW295748   3.764   8.300   8.343
97951SOL     OW95749   2.173  13.358  14.235
97951SOL    HW195750   2.253  13.340  14.285
97951SOL    HW295751   2.105  13.368  14.302
97952SOL     OW95752   3.812   6.494   7.353
97952SOL    HW195753   3.734   6.439   7.344
97952SOL    HW295754   3.881   6.446   7.307
97953SOL     OW95755   1.126   3.846  10.749
97953SOL    HW195756   1.181   3.783  10.795
97953SOL    HW295757   1.187   3.908  10.710
97954SOL     OW95758   7.289  13.065  13.934
97954SOL    HW195759   7.298  12.997  14.002
97954SOL    HW295760   7.354  13.042  13.868
97955SOL     OW95761   9.033   3.019  10.606
97955SOL    HW195762   9.080   2.936  10.620
97955SOL    HW295763   8.959   2.995  10.551
97956SOL     OW95764  13.814  14.760  12.408
97956SOL    HW195765  13.738  14.778  12.352
97956SOL    HW295766  13.832  14.667  12.395
97957SOL     OW95767   1.494   8.798  13.078
97957SOL    HW195768   1.548   8.791  13.157
97957SOL    HW295769   1.454   8.885  13.084
97958SOL     OW95770   4.551  14.868   7.417
97958SOL    HW195771   4.498   0.015   7.340
97958SOL    HW295772   4.566   0.082   7.457
97959SOL     OW95773   2.546   6.863   1.494
97959SOL    HW195774   2.634   6.868   1.456
97959SOL    HW295775   2.513   6.778   1.467
97960SOL     OW95776   6.161  10.776   6.928
97960SOL    HW195777   6.202  10.771   7.015
97960SOL    HW295778   6.117  10.691   6.919
97961SOL     OW95779  12.088   3.110   0.939
97961SOL    HW195780  12.170   3.159   0.930
97961SOL    HW295781  12.020   3.175   0.921
97962SOL     OW95782  14.316   9.556  14.070
97962SOL    HW195783  14.301   9.512  13.986
97962SOL    HW295784  14.403   9.525  14.098
97963SOL     OW95785   9.706  11.454  14.390
97963SOL    HW195786   9.687  11.544  14.362
97963SOL    HW295787   9.799  11.443  14.371
97964SOL     OW95788   1.702   8.794  13.254
97964SOL    HW195789   1.785   8.840  13.240
97964SOL    HW295790   1.709   8.758  13.343
97965SOL     OW95791   9.072  13.668  13.448
97965SOL    HW195792   8.991  13.717  13.431
97965SOL    HW295793   9.121  13.674  13.366
97966SOL     OW95794   4.426  11.762   1.480
97966SOL    HW195795   4.377  11.721   1.409
97966SOL    HW295796   4.495  11.700   1.500
97967SOL     OW95797  11.854   0.565  14.596
97967SOL    HW195798  11.873   0.553  14.689
97967SOL    HW295799  11.793   0.639  14.593
97968SOL     OW95800   4.370   7.021  14.300
97968SOL    HW195801   4.395   7.113  14.305
97968SOL    HW295802   4.275   7.021  14.307
97969SOL     OW95803   4.468   9.542  10.720
97969SOL    HW195804   4.404   9.600  10.679
97969SOL    HW295805   4.550   9.592  10.717
97970SOL     OW95806  12.869  14.838   6.700
97970SOL    HW195807  12.961  14.864   6.710
97970SOL    HW295808  12.824   0.005   6.774
97971SOL     OW95809  14.570   7.937   5.426
97971SOL    HW195810  14.506   8.004   5.448
97971SOL    HW295811  14.568   7.932   5.330
97972SOL     OW95812   5.058  13.751  13.419
97972SOL    HW195813   5.033  13.710  13.336
97972SOL    HW295814   5.114  13.686  13.461
97973SOL     OW95815   4.873   5.381   3.631
97973SOL    HW195816   4.923   5.318   3.579
97973SOL    HW295817   4.785   5.379   3.592
97974SOL     OW95818  11.360   6.981   5.204
97974SOL    HW195819  11.414   6.942   5.273
97974SOL    HW295820  11.342   6.908   5.145
97975SOL     OW95821   1.385  10.199   5.458
97975SOL    HW195822   1.407  10.243   5.540
97975SOL    HW295823   1.349  10.115   5.484
97976SOL     OW95824  13.469   6.401   8.834
97976SOL    HW195825  13.457   6.321   8.886
97976SOL    HW295826  13.460   6.472   8.898
97977SOL     OW95827  11.876   5.776   1.623
97977SOL    HW195828  11.820   5.825   1.683
97977SOL    HW295829  11.815   5.727   1.568
97978SOL     OW95830   3.619   6.002   3.893
97978SOL    HW195831   3.578   6.004   3.807
97978SOL    HW295832   3.584   5.924   3.935
97979SOL     OW95833  13.579   4.590   2.573
97979SOL    HW195834  13.593   4.663   2.633
97979SOL    HW295835  13.664   4.547   2.568
97980SOL     OW95836   5.002  13.408   6.201
97980SOL    HW195837   5.065  13.456   6.256
97980SOL    HW295838   4.959  13.476   6.149
97981SOL     OW95839  12.666   8.716   8.720
97981SOL    HW195840  12.674   8.809   8.741
97981SOL    HW295841  12.591   8.711   8.661
97982SOL     OW95842  13.351   5.388  10.594
97982SOL    HW195843  13.436   5.401  10.635
97982SOL    HW295844  13.362   5.421  10.505
97983SOL     OW95845   1.655   8.362   0.091
97983SOL    HW195846   1.694   8.335   0.007
97983SOL    HW295847   1.615   8.282   0.125
97984SOL     OW95848   6.501   5.834   3.641
97984SOL    HW195849   6.461   5.919   3.622
97984SOL    HW295850   6.590   5.855   3.668
97985SOL     OW95851   6.521   4.857   1.450
97985SOL    HW195852   6.470   4.777   1.442
97985SOL    HW295853   6.498   4.893   1.535
97986SOL     OW95854  13.841   2.481   9.841
97986SOL    HW195855  13.774   2.541   9.809
97986SOL    HW295856  13.793   2.402   9.864
97987SOL     OW95857   3.060   8.998   1.064
97987SOL    HW195858   3.023   9.086   1.057
97987SOL    HW295859   2.988   8.945   1.099
97988SOL     OW95860   6.274  12.923  12.887
97988SOL    HW195861   6.322  12.920  12.969
97988SOL    HW295862   6.211  12.851  12.893
97989SOL     OW95863   4.774   7.592   1.029
97989SOL    HW195864   4.850   7.584   0.971
97989SOL    HW295865   4.699   7.594   0.970
97990SOL     OW95866  10.824   1.575   8.968
97990SOL    HW195867  10.891   1.612   8.912
97990SOL    HW295868  10.811   1.486   8.936
97991SOL     OW95869  10.377   7.501   1.402
97991SOL    HW195870  10.288   7.490   1.436
97991SOL    HW295871  10.367   7.498   1.307
97992SOL     OW95872  12.483  13.812   2.373
97992SOL    HW195873  12.535  13.752   2.427
97992SOL    HW295874  12.397  13.770   2.368
97993SOL     OW95875   3.677   0.568   0.902
97993SOL    HW195876   3.715   0.592   0.987
97993SOL    HW295877   3.740   0.599   0.837
97994SOL     OW95878   8.312   5.883   9.038
97994SOL    HW195879   8.356   5.803   9.066
97994SOL    HW295880   8.241   5.853   8.982
97995SOL     OW95881   9.555   2.479   2.385
97995SOL    HW195882   9.556   2.573   2.404
97995SOL    HW295883   9.537   2.437   2.469
97996SOL     OW95884   7.195  10.823   2.646
97996SOL    HW195885   7.287  10.848   2.634
97996SOL    HW295886   7.190  10.733   2.614
97997SOL     OW95887   2.438   8.960  11.262
97997SOL    HW195888   2.495   8.898  11.216
97997SOL    HW295889   2.465   9.046  11.230
97998SOL     OW95890   8.042  10.831  13.220
97998SOL    HW195891   8.006  10.906  13.172
97998SOL    HW295892   8.020  10.849  13.311
97999SOL     OW95893   3.049   5.660  13.371
97999SOL    HW195894   3.065   5.568  13.390
97999SOL    HW295895   3.078   5.707  13.449
98000SOL     OW95896   8.062  10.672   1.804
98000SOL    HW195897   8.042  10.751   1.753
98000SOL    HW295898   8.054  10.600   1.741
98001SOL     OW95899   0.388   9.095   2.221
98001SOL    HW195900   0.329   9.159   2.182
98001SOL    HW295901   0.388   9.116   2.314
98002SOL     OW95902   0.122  10.787   3.283
98002SOL    HW195903   0.116  10.692   3.290
98002SOL    HW295904   0.113  10.818   3.373
98003SOL     OW95905  11.040   8.075   3.695
98003SOL    HW195906  11.030   8.039   3.607
98003SOL    HW295907  11.004   8.009   3.753
98004SOL     OW95908  11.301  10.528   7.295
98004SOL    HW195909  11.389  10.560   7.277
98004SOL    HW295910  11.258  10.525   7.209
98005SOL     OW95911   7.354   7.837   0.012
98005SOL    HW195912   7.352   7.823   0.107
98005SOL    HW295913   7.423   7.901  14.871
98006SOL     OW95914   5.472  13.737   5.596
98006SOL    HW195915   5.417  13.812   5.620
98006SOL    HW295916   5.412  13.663   5.590
98007SOL     OW95917   7.319  12.538  14.017
98007SOL    HW195918   7.411  12.559  14.035
98007SOL    HW295919   7.293  12.602  13.950
98008SOL     OW95920  10.993   1.258   3.069
98008SOL    HW195921  10.965   1.321   3.003
98008SOL    HW295922  11.072   1.296   3.107
98009SOL     OW95923   4.559   4.472   6.175
98009SOL    HW195924   4.484   4.530   6.161
98009SOL    HW295925   4.612   4.482   6.096
98010SOL     OW95926   6.159   4.234   2.839
98010SOL    HW195927   6.128   4.268   2.755
98010SOL    HW295928   6.233   4.290   2.861
98011SOL     OW95929   4.533  12.774   1.318
98011SOL    HW195930   4.556  12.810   1.232
98011SOL    HW295931   4.618  12.763   1.362
98012SOL     OW95932   9.616   0.679   9.380
98012SOL    HW195933   9.683   0.611   9.373
98012SOL    HW295934   9.656   0.756   9.338
98013SOL     OW95935   4.746  14.719   2.597
98013SOL    HW195936   4.742  14.647   2.659
98013SOL    HW295937   4.684  14.695   2.528
98014SOL     OW95938  10.749   1.128   4.803
98014SOL    HW195939  10.761   1.040   4.766
98014SOL    HW295940  10.813   1.182   4.757
98015SOL     OW95941  13.862  10.677  14.305
98015SOL    HW195942  13.958  10.687  14.301
98015SOL    HW295943  13.833  10.694  14.216
98016SOL     OW95944   4.216  14.858  11.146
98016SOL    HW195945   4.205  14.857  11.051
98016SOL    HW295946   4.130  14.835  11.180
98017SOL     OW95947   5.241   7.344   8.421
98017SOL    HW195948   5.196   7.294   8.489
98017SOL    HW295949   5.292   7.279   8.373
98018SOL     OW95950   0.528   0.267   9.416
98018SOL    HW195951   0.515   0.322   9.494
98018SOL    HW295952   0.600   0.310   9.369
98019SOL     OW95953   7.075  10.885   0.228
98019SOL    HW195954   7.095  10.933   0.308
98019SOL    HW295955   7.156  10.838   0.209
98020SOL     OW95956   9.987  14.612   0.170
98020SOL    HW195957  10.036  14.531   0.182
98020SOL    HW295958   9.897  14.583   0.153
98021SOL     OW95959  10.223   6.922  11.946
98021SOL    HW195960  10.291   6.986  11.925
98021SOL    HW295961  10.150   6.975  11.977
98022SOL     OW95962   3.941  13.193   7.212
98022SOL    HW195963   3.934  13.282   7.176
98022SOL    HW295964   4.032  13.169   7.199
98023SOL     OW95965  13.071   5.393   8.926
98023SOL    HW195966  13.062   5.301   8.951
98023SOL    HW295967  13.029   5.441   8.997
98024SOL     OW95968   4.350   2.374   6.441
98024SOL    HW195969   4.322   2.288   6.411
98024SOL    HW295970   4.369   2.362   6.534
98025SOL     OW95971   2.775  13.958   0.124
98025SOL    HW195972   2.861  14.000   0.119
98025SOL    HW295973   2.780  13.904   0.203
98026SOL     OW95974   9.120   9.397   8.698
98026SOL    HW195975   9.071   9.401   8.615
98026SOL    HW295976   9.207   9.429   8.676
98027SOL     OW95977   2.002   9.359  14.353
98027SOL    HW195978   1.953   9.430  14.393
98027SOL    HW295979   2.072   9.402  14.305
98028SOL     OW95980   0.317   3.654   9.256
98028SOL    HW195981   0.393   3.603   9.282
98028SOL    HW295982   0.285   3.612   9.177
98029SOL     OW95983   9.805   1.865   3.409
98029SOL    HW195984   9.780   1.879   3.317
98029SOL    HW295985   9.875   1.929   3.425
98030SOL     OW95986   6.498   1.233  14.385
98030SOL    HW195987   6.475   1.325  14.369
98030SOL    HW295988   6.579   1.238  14.437
98031SOL     OW95989  13.613  13.969   7.883
98031SOL    HW195990  13.705  13.945   7.889
98031SOL    HW295991  13.565  13.888   7.901
98032SOL     OW95992  11.542   5.382   5.375
98032SOL    HW195993  11.599   5.440   5.426
98032SOL    HW295994  11.460   5.379   5.425
98033SOL     OW95995   8.686  11.357   3.308
98033SOL    HW195996   8.711  11.445   3.280
98033SOL    HW295997   8.765  11.322   3.349
98034SOL     OW95998  12.804  13.419   4.247
98034SOL    HW195999  12.740  13.366   4.199
98034SOL    HW296000  12.793  13.507   4.211
98035SOL     OW96001   3.187   8.201   7.290
98035SOL    HW196002   3.196   8.278   7.234
98035SOL    HW296003   3.186   8.237   7.379
98036SOL     OW96004  14.645   5.824   6.704
98036SOL    HW196005  14.674   5.911   6.732
98036SOL    HW296006  14.557   5.838   6.669
98037SOL     OW96007  13.917  11.051   2.156
98037SOL    HW196008  13.856  11.122   2.138
98037SOL    HW296009  13.995  11.073   2.104
98038SOL     OW96010   7.414  12.653   3.345
98038SOL    HW196011   7.326  12.676   3.315
98038SOL    HW296012   7.460  12.627   3.266
98039SOL     OW96013   5.987   0.757  14.518
98039SOL    HW196014   5.985   0.788  14.609
98039SOL    HW296015   6.009   0.835  14.467
98040SOL     OW96016  11.065  13.715   6.717
98040SOL    HW196017  11.012  13.786   6.754
98040SOL    HW296018  11.128  13.694   6.786
98041SOL     OW96019  11.519   5.685   9.102
98041SOL    HW196020  11.559   5.616   9.050
98041SOL    HW296021  11.433   5.698   9.062
98042SOL     OW96022   6.836   3.498   1.191
98042SOL    HW196023   6.750   3.523   1.158
98042SOL    HW296024   6.894   3.570   1.166
98043SOL     OW96025   1.833   3.517   3.490
98043SOL    HW196026   1.833   3.611   3.475
98043SOL    HW296027   1.914   3.499   3.537
98044SOL     OW96028  13.353  12.200   2.294
98044SOL    HW196029  13.446  12.220   2.288
98044SOL    HW296030  13.332  12.206   2.387
98045SOL     OW96031   5.839   8.555   2.988
98045SOL    HW196032   5.811   8.529   3.075
98045SOL    HW296033   5.914   8.499   2.969
98046SOL     OW96034   8.128   9.032   8.915
98046SOL    HW196035   8.060   9.092   8.885
98046SOL    HW296036   8.169   9.076   8.989
98047SOL     OW96037   5.869   4.759  11.781
98047SOL    HW196038   5.831   4.846  11.798
98047SOL    HW296039   5.963   4.771  11.790
98048SOL     OW96040   5.724   2.208   8.807
98048SOL    HW196041   5.697   2.240   8.893
98048SOL    HW296042   5.648   2.223   8.751
98049SOL     OW96043   3.812  14.821   5.043
98049SOL    HW196044   3.894  14.837   5.091
98049SOL    HW296045   3.839  14.813   4.952
98050SOL     OW96046   6.367   4.157   7.384
98050SOL    HW196047   6.454   4.146   7.423
98050SOL    HW296048   6.354   4.252   7.382
98051SOL     OW96049  13.291   3.077  11.696
98051SOL    HW196050  13.242   3.157  11.678
98051SOL    HW296051  13.224   3.007  11.693
98052SOL     OW96052   9.557  13.050   5.208
98052SOL    HW196053   9.509  13.082   5.284
98052SOL    HW296054   9.616  12.983   5.243
98053SOL     OW96055   0.243   0.688   5.841
98053SOL    HW196056   0.333   0.696   5.810
98053SOL    HW296057   0.189   0.718   5.768
98054SOL     OW96058   7.020  11.879   6.849
98054SOL    HW196059   6.997  11.821   6.776
98054SOL    HW296060   7.097  11.839   6.889
98055SOL     OW96061   7.858   1.790  11.829
98055SOL    HW196062   7.916   1.786  11.754
98055SOL    HW296063   7.828   1.880  11.832
98056SOL     OW96064   0.190   6.097   1.096
98056SOL    HW196065   0.227   6.023   1.145
98056SOL    HW296066   0.116   6.126   1.149
98057SOL     OW96067   0.269  12.336  14.678
98057SOL    HW196068   0.251  12.425  14.707
98057SOL    HW296069   0.261  12.339  14.583
98058SOL     OW96070   7.132   2.581  12.606
98058SOL    HW196071   7.048   2.627  12.602
98058SOL    HW296072   7.109   2.489  12.620
98059SOL     OW96073  12.799   9.478   6.930
98059SOL    HW196074  12.727   9.523   6.973
98059SOL    HW296075  12.797   9.389   6.965
98060SOL     OW96076  14.590   5.907   3.767
98060SOL    HW196077  14.685   5.901   3.766
98060SOL    HW296078  14.571   5.979   3.827
98061SOL     OW96079   2.046  12.604   1.275
98061SOL    HW196080   2.037  12.514   1.242
98061SOL    HW296081   2.030  12.598   1.369
98062SOL     OW96082   6.148  14.050  13.404
98062SOL    HW196083   6.148  14.008  13.490
98062SOL    HW296084   6.056  14.055  13.379
98063SOL     OW96085  13.037   5.399  12.217
98063SOL    HW196086  13.033   5.471  12.280
98063SOL    HW296087  12.951   5.358  12.221
98064SOL     OW96088  13.165  10.226   6.405
98064SOL    HW196089  13.242  10.192   6.359
98064SOL    HW296090  13.128  10.149   6.449
98065SOL     OW96091   9.853   6.357   9.815
98065SOL    HW196092   9.814   6.320   9.736
98065SOL    HW296093   9.779   6.385   9.867
98066SOL     OW96094  10.832   4.365   9.313
98066SOL    HW196095  10.759   4.425   9.296
98066SOL    HW296096  10.840   4.314   9.233
98067SOL     OW96097  13.648  11.871   9.298
98067SOL    HW196098  13.674  11.955   9.259
98067SOL    HW296099  13.620  11.818   9.223
98068SOL     OW96100  12.030  11.517  12.422
98068SOL    HW196101  12.009  11.600  12.464
98068SOL    HW296102  11.996  11.450  12.481
98069SOL     OW96103   0.040   2.042   6.109
98069SOL    HW196104   0.066   1.951   6.094
98069SOL    HW296105  14.817   2.038   6.118
98070SOL     OW96106   4.524   9.482   4.107
98070SOL    HW196107   4.495   9.392   4.111
98070SOL    HW296108   4.617   9.479   4.133
98071SOL     OW96109   3.454   9.283   6.234
98071SOL    HW196110   3.368   9.255   6.203
98071SOL    HW296111   3.499   9.314   6.156
98072SOL     OW96112  11.870   1.401  10.569
98072SOL    HW196113  11.809   1.328  10.556
98072SOL    HW296114  11.828   1.455  10.637
98073SOL     OW96115   9.743   6.782  12.324
98073SOL    HW196116   9.828   6.817  12.351
98073SOL    HW296117   9.692   6.777  12.405
98074SOL     OW96118   0.354   6.030   9.790
98074SOL    HW196119   0.411   6.092   9.745
98074SOL    HW296120   0.344   6.066   9.878
98075SOL     OW96121   0.273  10.183  10.212
98075SOL    HW196122   0.362  10.204  10.182
98075SOL    HW296123   0.286  10.137  10.295
98076SOL     OW96124   2.840   0.197   0.683
98076SOL    HW196125   2.760   0.160   0.645
98076SOL    HW296126   2.865   0.135   0.752
98077SOL     OW96127   6.053  11.997  13.777
98077SOL    HW196128   6.112  12.060  13.735
98077SOL    HW296129   6.036  11.932  13.709
98078SOL     OW96130   5.131   6.900  11.339
98078SOL    HW196131   5.191   6.928  11.408
98078SOL    HW296132   5.044   6.914  11.376
98079SOL     OW96133   2.689  14.642   3.043
98079SOL    HW196134   2.690  14.580   2.971
98079SOL    HW296135   2.774  14.632   3.085
98080SOL     OW96136  12.718   4.586   4.086
98080SOL    HW196137  12.718   4.652   4.156
98080SOL    HW296138  12.800   4.538   4.097
98081SOL     OW96139  13.477   2.027   3.164
98081SOL    HW196140  13.416   2.085   3.209
98081SOL    HW296141  13.423   1.975   3.105
98082SOL     OW96142   5.010   6.063  10.519
98082SOL    HW196143   5.071   6.133  10.495
98082SOL    HW296144   4.995   6.015  10.437
98083SOL     OW96145   9.120   1.454   2.906
98083SOL    HW196146   9.100   1.481   2.995
98083SOL    HW296147   9.169   1.373   2.915
98084SOL     OW96148  14.687   3.074   8.644
98084SOL    HW196149  14.727   2.997   8.685
98084SOL    HW296150  14.756   3.140   8.644
98085SOL     OW96151  12.801  11.323  13.282
98085SOL    HW196152  12.795  11.246  13.338
98085SOL    HW296153  12.840  11.391  13.338
98086SOL     OW96154  11.783  11.619   8.826
98086SOL    HW196155  11.772  11.524   8.821
98086SOL    HW296156  11.693  11.653   8.834
98087SOL     OW96157  10.032   4.743  10.872
98087SOL    HW196158  10.053   4.835  10.891
98087SOL    HW296159   9.966   4.720  10.938
98088SOL     OW96160  14.248   2.902   3.200
98088SOL    HW196161  14.169   2.904   3.146
98088SOL    HW296162  14.304   2.837   3.159
98089SOL     OW96163  12.981   7.756   8.956
98089SOL    HW196164  12.927   7.804   8.893
98089SOL    HW296165  13.023   7.688   8.904
98090SOL     OW96166   9.574  10.425   7.481
98090SOL    HW196167   9.654  10.417   7.429
98090SOL    HW296168   9.549  10.335   7.502
98091SOL     OW96169   4.726  13.543   8.556
98091SOL    HW196170   4.687  13.535   8.468
98091SOL    HW296171   4.820  13.545   8.540
98092SOL     OW96172  12.657   0.312   4.668
98092SOL    HW196173  12.599   0.268   4.731
98092SOL    HW296174  12.742   0.313   4.711
98093SOL     OW96175  12.511   5.707   0.270
98093SOL    HW196176  12.592   5.757   0.264
98093SOL    HW296177  12.453   5.747   0.205
98094SOL     OW96178   2.772   8.470   7.093
98094SOL    HW196179   2.838   8.528   7.055
98094SOL    HW296180   2.754   8.508   7.179
98095SOL     OW96181   2.071   4.786   8.689
98095SOL    HW196182   2.116   4.787   8.773
98095SOL    HW296183   2.136   4.817   8.626
98096SOL     OW96184  13.650   5.257   5.100
98096SOL    HW196185  13.596   5.236   5.024
98096SOL    HW296186  13.644   5.179   5.156
98097SOL     OW96187  12.572  11.835   5.671
98097SOL    HW196188  12.651  11.809   5.623
98097SOL    HW296189  12.600  11.841   5.762
98098SOL     OW96190  10.319   0.585   7.017
98098SOL    HW196191  10.223   0.583   7.025
98098SOL    HW296192  10.347   0.644   7.088
98099SOL     OW96193  14.635   1.200   6.442
98099SOL    HW196194  14.701   1.265   6.465
98099SOL    HW296195  14.554   1.230   6.483
98100SOL     OW96196   5.225  11.060   8.932
98100SOL    HW196197   5.153  10.999   8.942
98100SOL    HW296198   5.196  11.121   8.863
98101SOL     OW96199   2.708   0.392  13.842
98101SOL    HW196200   2.734   0.353  13.925
98101SOL    HW296201   2.631   0.343  13.815
98102SOL     OW96202  11.164   6.849  14.439
98102SOL    HW196203  11.148   6.763  14.478
98102SOL    HW296204  11.108   6.909  14.488
98103SOL     OW96205  13.560   5.324   5.745
98103SOL    HW196206  13.651   5.301   5.728
98103SOL    HW296207  13.554   5.336   5.840
98104SOL     OW96208  10.570   3.280  12.891
98104SOL    HW196209  10.606   3.318  12.811
98104SOL    HW296210  10.535   3.195  12.862
98105SOL     OW96211   5.985  14.071  11.060
98105SOL    HW196212   5.915  14.136  11.060
98105SOL    HW296213   6.064  14.120  11.038
98106SOL     OW96214   1.516   7.272  11.880
98106SOL    HW196215   1.455   7.342  11.855
98106SOL    HW296216   1.508   7.207  11.811
98107SOL     OW96217  12.672  10.765   7.405
98107SOL    HW196218  12.708  10.842   7.450
98107SOL    HW296219  12.745  10.732   7.352
98108SOL     OW96220   9.380  14.120   9.830
98108SOL    HW196221   9.320  14.184   9.867
98108SOL    HW296222   9.346  14.102   9.743
98109SOL     OW96223  13.903  12.932   1.038
98109SOL    HW196224  13.918  12.842   1.066
98109SOL    HW296225  13.816  12.953   1.072
98110SOL     OW96226   7.156   4.879  11.562
98110SOL    HW196227   7.149   4.916  11.650
98110SOL    HW296228   7.164   4.956  11.505
98111SOL     OW96229   9.303  10.549  13.366
98111SOL    HW196230   9.257  10.603  13.431
98111SOL    HW296231   9.235  10.495  13.326
98112SOL     OW96232   6.471   5.442   0.860
98112SOL    HW196233   6.529   5.405   0.792
98112SOL    HW296234   6.519   5.429   0.942
98113SOL     OW96235   6.201   8.722   0.601
98113SOL    HW196236   6.240   8.658   0.542
98113SOL    HW296237   6.158   8.670   0.669
98114SOL     OW96238   0.448  11.697   4.818
98114SOL    HW196239   0.531  11.697   4.866
98114SOL    HW296240   0.430  11.605   4.801
98115SOL     OW96241   5.236   6.949  10.781
98115SOL    HW196242   5.266   6.949  10.872
98115SOL    HW296243   5.215   6.857  10.763
98116SOL     OW96244  14.782   2.876  10.233
98116SOL    HW196245  14.759   2.897  10.324
98116SOL    HW296246   0.000   2.844  10.238
98117SOL     OW96247   0.446  12.071   6.828
98117SOL    HW196248   0.493  11.994   6.857
98117SOL    HW296249   0.436  12.060   6.734
98118SOL     OW96250  14.369   4.970   9.655
98118SOL    HW196251  14.451   5.010   9.685
98118SOL    HW296252  14.350   5.013   9.572
98119SOL     OW96253   0.824   0.746  14.062
98119SOL    HW196254   0.837   0.714  13.973
98119SOL    HW296255   0.899   0.802  14.079
98120SOL     OW96256   6.548  11.642   8.212
98120SOL    HW196257   6.538  11.648   8.307
98120SOL    HW296258   6.577  11.552   8.196
98121SOL     OW96259   5.319  12.147   1.341
98121SOL    HW196260   5.316  12.155   1.245
98121SOL    HW296261   5.337  12.054   1.356
98122SOL     OW96262   5.880  14.163   5.518
98122SOL    HW196263   5.840  14.153   5.431
98122SOL    HW296264   5.851  14.086   5.567
98123SOL     OW96265   0.299  12.417   2.355
98123SOL    HW196266   0.276  12.324   2.348
98123SOL    HW296267   0.384  12.424   2.311
98124SOL     OW96268  10.469   7.779  13.284
98124SOL    HW196269  10.403   7.803  13.219
98124SOL    HW296270  10.419   7.760  13.363
98125SOL     OW96271  11.835   4.576  12.487
98125SOL    HW196272  11.783   4.500  12.513
98125SOL    HW296273  11.847   4.626  12.567
98126SOL     OW96274   4.577   2.811   6.877
98126SOL    HW196275   4.605   2.719   6.881
98126SOL    HW296276   4.492   2.812   6.921
98127SOL     OW96277   9.403   0.009   3.737
98127SOL    HW196278   9.348  14.804   3.720
98127SOL    HW296279   9.352   0.082   3.702
98128SOL     OW96280   1.757   1.354  14.424
98128SOL    HW196281   1.842   1.311  14.433
98128SOL    HW296282   1.705   1.294  14.371
98129SOL     OW96283  11.208  11.862   0.557
98129SOL    HW196284  11.182  11.771   0.574
98129SOL    HW296285  11.298  11.855   0.525
98130SOL     OW96286  13.163   4.996   0.282
98130SOL    HW196287  13.095   4.970   0.221
98130SOL    HW296288  13.239   4.943   0.257
98131SOL     OW96289  13.108   9.395   1.565
98131SOL    HW196290  13.041   9.464   1.566
98131SOL    HW296291  13.058   9.314   1.554
98132SOL     OW96292  14.453  12.576   5.275
98132SOL    HW196293  14.492  12.629   5.345
98132SOL    HW296294  14.362  12.605   5.271
98133SOL     OW96295  11.915  13.065  14.409
98133SOL    HW196296  11.927  12.993  14.348
98133SOL    HW296297  12.003  13.085  14.441
98134SOL     OW96298  14.376   9.091   6.259
98134SOL    HW196299  14.385   9.014   6.203
98134SOL    HW296300  14.334   9.156   6.203
98135SOL     OW96301   1.935   1.942  13.620
98135SOL    HW196302   2.026   1.967  13.633
98135SOL    HW296303   1.922   1.943  13.525
98136SOL     OW96304  11.536  10.335  12.497
98136SOL    HW196305  11.505  10.408  12.551
98136SOL    HW296306  11.528  10.367  12.407
98137SOL     OW96307   6.310  12.082  13.083
98137SOL    HW196308   6.273  12.130  13.157
98137SOL    HW296309   6.343  12.149  13.024
98138SOL     OW96310   3.039   6.765   7.935
98138SOL    HW196311   3.059   6.859   7.934
98138SOL    HW296312   3.025   6.743   7.843
98139SOL     OW96313  13.537  10.010   1.935
98139SOL    HW196314  13.509  10.101   1.928
98139SOL    HW296315  13.511   9.971   1.851
98140SOL     OW96316  13.965  12.143  11.407
98140SOL    HW196317  14.033  12.161  11.343
98140SOL    HW296318  13.997  12.181  11.489
98141SOL     OW96319   6.018  10.467   3.640
98141SOL    HW196320   6.077  10.433   3.707
98141SOL    HW296321   5.972  10.389   3.608
98142SOL     OW96322  13.366   1.397   2.336
98142SOL    HW196323  13.374   1.308   2.303
98142SOL    HW296324  13.440   1.406   2.397
98143SOL     OW96325   3.810   6.428   1.497
98143SOL    HW196326   3.882   6.371   1.522
98143SOL    HW296327   3.788   6.477   1.577
98144SOL     OW96328  13.113   3.594   2.686
98144SOL    HW196329  13.082   3.668   2.737
98144SOL    HW296330  13.157   3.537   2.750
98145SOL     OW96331   0.921   9.369   1.010
98145SOL    HW196332   0.857   9.399   0.945
98145SOL    HW296333   0.971   9.301   0.965
98146SOL     OW96334   0.894   6.636   3.940
98146SOL    HW196335   0.967   6.690   3.909
98146SOL    HW296336   0.904   6.634   4.035
98147SOL     OW96337  12.609   2.583  14.778
98147SOL    HW196338  12.677   2.532  14.735
98147SOL    HW296339  12.655   2.633  14.846
98148SOL     OW96340  10.120   2.377   0.280
98148SOL    HW196341  10.046   2.432   0.304
98148SOL    HW296342  10.195   2.415   0.325
98149SOL     OW96343   8.467  12.402   9.441
98149SOL    HW196344   8.485  12.334   9.375
98149SOL    HW296345   8.390  12.448   9.407
98150SOL     OW96346  10.741   7.334   1.703
98150SOL    HW196347  10.728   7.339   1.608
98150SOL    HW296348  10.818   7.277   1.714
98151SOL     OW96349  12.638   3.012   5.093
98151SOL    HW196350  12.591   3.042   5.016
98151SOL    HW296351  12.640   3.088   5.151
98152SOL     OW96352   5.147  14.427   8.804
98152SOL    HW196353   5.204  14.366   8.758
98152SOL    HW296354   5.083  14.372   8.849
98153SOL     OW96355  14.564   4.585   4.746
98153SOL    HW196356  14.656   4.562   4.738
98153SOL    HW296357  14.519   4.524   4.687
98154SOL     OW96358   3.361  11.858   6.274
98154SOL    HW196359   3.283  11.811   6.246
98154SOL    HW296360   3.331  11.947   6.290
98155SOL     OW96361   2.694   3.953   7.806
98155SOL    HW196362   2.725   3.911   7.886
98155SOL    HW296363   2.752   4.027   7.794
98156SOL     OW96364  13.617   3.049   5.320
98156SOL    HW196365  13.629   2.973   5.263
98156SOL    HW296366  13.619   3.124   5.261
98157SOL     OW96367  14.829  10.512  12.864
98157SOL    HW196368   0.049  10.536  12.873
98157SOL    HW296369  14.831  10.428  12.818
98158SOL     OW96370   7.183   5.195   5.833
98158SOL    HW196371   7.204   5.157   5.748
98158SOL    HW296372   7.150   5.282   5.813
98159SOL     OW96373   9.992   8.370   0.168
98159SOL    HW196374   9.956   8.295   0.216
98159SOL    HW296375   9.963   8.446   0.218
98160SOL     OW96376   5.509   4.208  11.382
98160SOL    HW196377   5.482   4.300  11.387
98160SOL    HW296378   5.564   4.204  11.304
98161SOL     OW96379   0.553   0.889   9.769
98161SOL    HW196380   0.542   0.977   9.805
98161SOL    HW296381   0.639   0.860   9.801
98162SOL     OW96382   6.612   9.524   4.867
98162SOL    HW196383   6.550   9.463   4.828
98162SOL    HW296384   6.562   9.568   4.936
98163SOL     OW96385   7.308   1.439  12.904
98163SOL    HW196386   7.259   1.399  12.975
98163SOL    HW296387   7.242   1.466  12.841
98164SOL     OW96388  11.524   1.260  12.542
98164SOL    HW196389  11.553   1.320  12.610
98164SOL    HW296390  11.603   1.213  12.515
98165SOL     OW96391  11.886  14.323   7.958
98165SOL    HW196392  11.860  14.357   8.044
98165SOL    HW296393  11.897  14.228   7.972
98166SOL     OW96394  14.119   8.638   5.443
98166SOL    HW196395  14.142   8.687   5.523
98166SOL    HW296396  14.119   8.704   5.374
98167SOL     OW96397  13.048   4.846  11.158
98167SOL    HW196398  12.954   4.846  11.140
98167SOL    HW296399  13.056   4.805  11.244
98168SOL     OW96400  13.598   0.439  14.582
98168SOL    HW196401  13.561   0.378  14.646
98168SOL    HW296402  13.667   0.486  14.630
98169SOL     OW96403  10.756   8.462   6.688
98169SOL    HW196404  10.742   8.555   6.670
98169SOL    HW296405  10.829   8.437   6.631
98170SOL     OW96406  11.789  13.597   6.158
98170SOL    HW196407  11.832  13.668   6.205
98170SOL    HW296408  11.761  13.536   6.226
98171SOL     OW96409   5.410  13.676   7.701
98171SOL    HW196410   5.461  13.673   7.620
98171SOL    HW296411   5.399  13.584   7.726
98172SOL     OW96412   4.183  10.705   3.667
98172SOL    HW196413   4.146  10.789   3.694
98172SOL    HW296414   4.107  10.655   3.636
98173SOL     OW96415  11.757   9.099   8.438
98173SOL    HW196416  11.761   9.180   8.488
98173SOL    HW296417  11.777   9.126   8.348
98174SOL     OW96418   9.258  10.192   0.567
98174SOL    HW196419   9.338  10.139   0.565
98174SOL    HW296420   9.289  10.281   0.583
98175SOL     OW96421   1.183  14.302  13.872
98175SOL    HW196422   1.154  14.235  13.934
98175SOL    HW296423   1.270  14.327  13.903
98176SOL     OW96424  14.740   6.820   3.569
98176SOL    HW196425  14.766   6.739   3.525
98176SOL    HW296426  14.760   6.889   3.505
98177SOL     OW96427   9.348   8.661   1.802
98177SOL    HW196428   9.272   8.718   1.813
98177SOL    HW296429   9.413   8.696   1.864
98178SOL     OW96430   6.737  12.341   9.871
98178SOL    HW196431   6.714  12.374   9.785
98178SOL    HW296432   6.694  12.255   9.877
98179SOL     OW96433   5.938  11.290  13.365
98179SOL    HW196434   5.853  11.299  13.323
98179SOL    HW296435   5.999  11.274  13.292
98180SOL     OW96436   4.904   8.844  12.313
98180SOL    HW196437   4.859   8.851  12.397
98180SOL    HW296438   4.930   8.752  12.306
98181SOL     OW96439   6.809  11.184   5.354
98181SOL    HW196440   6.894  11.215   5.386
98181SOL    HW296441   6.807  11.091   5.379
98182SOL     OW96442  10.017   5.342  12.685
98182SOL    HW196443  10.001   5.374  12.774
98182SOL    HW296444   9.957   5.268  12.675
98183SOL     OW96445   1.891   1.365  10.137
98183SOL    HW196446   1.903   1.447  10.185
98183SOL    HW296447   1.979   1.328  10.130
98184SOL     OW96448  10.311   7.892   7.233
98184SOL    HW196449  10.358   7.854   7.159
98184SOL    HW296450  10.378   7.910   7.299
98185SOL     OW96451   4.431   4.789  13.709
98185SOL    HW196452   4.473   4.731  13.773
98185SOL    HW296453   4.433   4.875  13.750
98186SOL     OW96454   4.210   7.245   6.526
98186SOL    HW196455   4.203   7.172   6.466
98186SOL    HW296456   4.120   7.262   6.553
98187SOL     OW96457   0.499  12.107  12.533
98187SOL    HW196458   0.434  12.051  12.575
98187SOL    HW296459   0.549  12.145  12.605
98188SOL     OW96460   6.988  14.554   0.766
98188SOL    HW196461   7.028  14.515   0.688
98188SOL    HW296462   7.017  14.499   0.839
98189SOL     OW96463  11.586  14.179   5.213
98189SOL    HW196464  11.559  14.207   5.125
98189SOL    HW296465  11.505  14.145   5.253
98190SOL     OW96466   2.047  12.946   9.494
98190SOL    HW196467   2.041  12.924   9.587
98190SOL    HW296468   2.036  12.863   9.449
98191SOL     OW96469   9.652   5.416   3.188
98191SOL    HW196470   9.590   5.345   3.175
98191SOL    HW296471   9.597   5.495   3.194
98192SOL     OW96472   8.140   4.240  14.447
98192SOL    HW196473   8.230   4.225  14.417
98192SOL    HW296474   8.137   4.334  14.466
98193SOL     OW96475   9.838   1.948  13.264
98193SOL    HW196476   9.758   1.902  13.240
98193SOL    HW296477   9.900   1.928  13.194
98194SOL     OW96478   4.719   8.911   8.465
98194SOL    HW196479   4.660   8.955   8.404
98194SOL    HW296480   4.711   8.818   8.444
98195SOL     OW96481  13.231   9.688   4.039
98195SOL    HW196482  13.280   9.770   4.027
98195SOL    HW296483  13.265   9.629   3.972
98196SOL     OW96484   6.860  11.950  14.017
98196SOL    HW196485   6.866  11.993  13.932
98196SOL    HW296486   6.803  12.008  14.068
98197SOL     OW96487   2.095   4.360   2.608
98197SOL    HW196488   2.078   4.273   2.573
98197SOL    HW296489   2.172   4.390   2.558
98198SOL     OW96490  10.893  12.429  10.061
98198SOL    HW196491  10.887  12.348  10.011
98198SOL    HW296492  10.806  12.441  10.099
98199SOL     OW96493   2.320  12.888  13.515
98199SOL    HW196494   2.312  12.914  13.424
98199SOL    HW296495   2.278  12.958  13.565
98200SOL     OW96496   0.410   4.610   5.097
98200SOL    HW196497   0.339   4.619   5.160
98200SOL    HW296498   0.414   4.516   5.078
98201SOL     OW96499   7.454   5.602   4.222
98201SOL    HW196500   7.485   5.596   4.132
98201SOL    HW296501   7.497   5.680   4.258
98202SOL     OW96502   7.849  12.836  12.325
98202SOL    HW196503   7.893  12.787  12.395
98202SOL    HW296504   7.920  12.876  12.276
98203SOL     OW96505  10.140   9.940   7.898
98203SOL    HW196506  10.123   9.921   7.990
98203SOL    HW296507  10.121  10.033   7.888
98204SOL     OW96508   6.778  11.131   9.274
98204SOL    HW196509   6.762  11.037   9.271
98204SOL    HW296510   6.758  11.161   9.186
98205SOL     OW96511  11.806   1.459   1.636
98205SOL    HW196512  11.753   1.383   1.660
98205SOL    HW296513  11.756   1.501   1.567
98206SOL     OW96514  13.239  14.670   9.847
98206SOL    HW196515  13.292  14.745   9.874
98206SOL    HW296516  13.173  14.706   9.789
98207SOL     OW96517   3.134  14.821   5.082
98207SOL    HW196518   3.201  14.770   5.128
98207SOL    HW296519   3.180  14.864   5.010
98208SOL     OW96520   1.903   2.646   9.923
98208SOL    HW196521   1.894   2.652  10.018
98208SOL    HW296522   1.851   2.570   9.898
98209SOL     OW96523   4.885   3.208   3.889
98209SOL    HW196524   4.917   3.238   3.805
98209SOL    HW296525   4.792   3.231   3.889
98210SOL     OW96526   3.288  12.150  10.477
98210SOL    HW196527   3.384  12.156  10.471
98210SOL    HW296528   3.271  12.134  10.570
98211SOL     OW96529   7.103   6.015   1.463
98211SOL    HW196530   7.159   5.940   1.483
98211SOL    HW296531   7.111   6.072   1.539
98212SOL     OW96532   4.212   1.002   6.280
98212SOL    HW196533   4.135   0.946   6.273
98212SOL    HW296534   4.252   1.000   6.194
98213SOL     OW96535  10.103  13.710   4.678
98213SOL    HW196536  10.082  13.660   4.757
98213SOL    HW296537  10.027  13.767   4.665
98214SOL     OW96538   3.792   1.935  13.051
98214SOL    HW196539   3.862   1.973  13.105
98214SOL    HW296540   3.751   1.870  13.107
98215SOL     OW96541   3.087  13.633  14.758
98215SOL    HW196542   3.083  13.652  14.852
98215SOL    HW296543   3.021  13.565  14.745
98216SOL     OW96544  11.924  13.340   3.122
98216SOL    HW196545  11.958  13.379   3.202
98216SOL    HW296546  11.942  13.406   3.054
98217SOL     OW96547   0.598   0.914  10.929
98217SOL    HW196548   0.691   0.893  10.915
98217SOL    HW296549   0.578   0.979  10.861
98218SOL     OW96550  11.456   7.524  11.586
98218SOL    HW196551  11.459   7.483  11.672
98218SOL    HW296552  11.458   7.451  11.524
98219SOL     OW96553  11.155   6.487   5.054
98219SOL    HW196554  11.230   6.530   5.093
98219SOL    HW296555  11.126   6.424   5.120
98220SOL     OW96556   2.974  12.208  14.818
98220SOL    HW196557   2.896  12.152  14.817
98220SOL    HW296558   3.026  12.178  14.744
98221SOL     OW96559   9.004   5.979  11.563
98221SOL    HW196560   8.913   5.998  11.584
98221SOL    HW296561   9.033   5.919  11.631
98222SOL     OW96562   1.615  13.276   7.792
98222SOL    HW196563   1.633  13.182   7.799
98222SOL    HW296564   1.697  13.314   7.763
98223SOL     OW96565  13.800   8.937  11.301
98223SOL    HW196566  13.856   9.014  11.286
98223SOL    HW296567  13.713   8.974  11.314
98224SOL     OW96568   6.366  11.479   5.062
98224SOL    HW196569   6.396  11.483   5.153
98224SOL    HW296570   6.307  11.404   5.060
98225SOL     OW96571   3.678   7.602   1.710
98225SOL    HW196572   3.616   7.655   1.760
98225SOL    HW296573   3.760   7.652   1.712
98226SOL     OW96574   5.074  13.666   1.897
98226SOL    HW196575   5.095  13.740   1.840
98226SOL    HW296576   5.133  13.677   1.972
98227SOL     OW96577  10.546   7.577   5.033
98227SOL    HW196578  10.544   7.537   5.120
98227SOL    HW296579  10.457   7.610   5.021
98228SOL     OW96580  14.341   0.026   2.558
98228SOL    HW196581  14.299  14.872   2.476
98228SOL    HW296582  14.435   0.030   2.536
98229SOL     OW96583   3.744   7.251  14.615
98229SOL    HW196584   3.683   7.184  14.647
98229SOL    HW296585   3.756   7.229  14.522
98230SOL     OW96586  12.414  13.593   4.296
98230SOL    HW196587  12.399  13.625   4.207
98230SOL    HW296588  12.385  13.665   4.352
98231SOL     OW96589   3.218  13.800   2.176
98231SOL    HW196590   3.236  13.726   2.119
98231SOL    HW296591   3.211  13.875   2.116
98232SOL     OW96592   1.583   2.119   0.094
98232SOL    HW196593   1.576   2.208   0.059
98232SOL    HW296594   1.632   2.071   0.028
98233SOL     OW96595   4.638   4.584  10.633
98233SOL    HW196596   4.710   4.528  10.606
98233SOL    HW296597   4.643   4.585  10.729
98234SOL     OW96598   1.507  14.100  10.383
98234SOL    HW196599   1.518  14.188  10.418
98234SOL    HW296600   1.587  14.054  10.409
98235SOL     OW96601  10.505   8.458  13.941
98235SOL    HW196602  10.560   8.532  13.918
98235SOL    HW296603  10.435   8.458  13.876
98236SOL     OW96604  11.121   8.967   9.070
98236SOL    HW196605  11.187   8.977   9.139
98236SOL    HW296606  11.041   9.004   9.108
98237SOL     OW96607   0.872  14.695   6.711
98237SOL    HW196608   0.780  14.721   6.711
98237SOL    HW296609   0.887  14.661   6.623
98238SOL     OW96610  12.847  10.590   8.991
98238SOL    HW196611  12.792  10.559   8.920
98238SOL    HW296612  12.895  10.513   9.021
98239SOL     OW96613   6.077   4.130   4.860
98239SOL    HW196614   6.098   4.145   4.767
98239SOL    HW296615   6.012   4.198   4.880
98240SOL     OW96616   5.113  12.351   7.421
98240SOL    HW196617   5.169  12.403   7.364
98240SOL    HW296618   5.145  12.261   7.410
98241SOL     OW96619  14.773   3.641  10.037
98241SOL    HW196620  14.757   3.565  10.092
98241SOL    HW296621  14.744   3.716  10.089
98242SOL     OW96622   4.754   8.345  11.124
98242SOL    HW196623   4.706   8.272  11.084
98242SOL    HW296624   4.783   8.310  11.208
98243SOL     OW96625  11.146   5.816   8.305
98243SOL    HW196626  11.214   5.866   8.260
98243SOL    HW296627  11.065   5.840   8.261
98244SOL     OW96628   0.766  13.931   6.132
98244SOL    HW196629   0.821  13.945   6.209
98244SOL    HW296630   0.677  13.922   6.167
98245SOL     OW96631  14.006   4.742   2.554
98245SOL    HW196632  13.999   4.717   2.646
98245SOL    HW296633  14.098   4.766   2.544
98246SOL     OW96634   3.775   1.860   4.262
98246SOL    HW196635   3.828   1.924   4.311
98246SOL    HW296636   3.742   1.909   4.187
98247SOL     OW96637  10.482   9.685   0.592
98247SOL    HW196638  10.503   9.596   0.565
98247SOL    HW296639  10.538   9.740   0.536
98248SOL     OW96640   0.850  14.006   8.831
98248SOL    HW196641   0.865  13.912   8.822
98248SOL    HW296642   0.814  14.033   8.746
98249SOL     OW96643   4.298  12.967   9.436
98249SOL    HW196644   4.313  12.894   9.496
98249SOL    HW296645   4.375  12.968   9.380
98250SOL     OW96646   4.924  10.141  10.419
98250SOL    HW196647   4.870  10.178  10.348
98250SOL    HW296648   5.004  10.111  10.375
98251SOL     OW96649   4.801  14.638  12.236
98251SOL    HW196650   4.872  14.701  12.227
98251SOL    HW296651   4.738  14.661  12.168
98252SOL     OW96652   6.279   9.926   2.138
98252SOL    HW196653   6.235   9.850   2.099
98252SOL    HW296654   6.298   9.983   2.064
98253SOL     OW96655   2.451   1.215   2.610
98253SOL    HW196656   2.500   1.295   2.590
98253SOL    HW296657   2.392   1.239   2.681
98254SOL     OW96658   2.165  10.782  13.272
98254SOL    HW196659   2.166  10.859  13.329
98254SOL    HW296660   2.224  10.720  13.316
98255SOL     OW96661   7.425   2.172   1.535
98255SOL    HW196662   7.500   2.138   1.486
98255SOL    HW296663   7.448   2.263   1.554
98256SOL     OW96664   7.457  13.543  11.792
98256SOL    HW196665   7.468  13.594  11.872
98256SOL    HW296666   7.420  13.605  11.729
98257SOL     OW96667   2.574   0.817  11.809
98257SOL    HW196668   2.500   0.874  11.790
98257SOL    HW296669   2.595   0.834  11.901
98258SOL     OW96670  13.007   7.297   2.210
98258SOL    HW196671  13.098   7.296   2.177
98258SOL    HW296672  12.961   7.354   2.148
98259SOL     OW96673  12.846   1.958   0.441
98259SOL    HW196674  12.795   1.881   0.467
98259SOL    HW296675  12.937   1.930   0.451
98260SOL     OW96676  10.536  14.288  11.526
98260SOL    HW196677  10.554  14.354  11.458
98260SOL    HW296678  10.613  14.230  11.523
98261SOL     OW96679  14.496   3.416  14.160
98261SOL    HW196680  14.524   3.507  14.150
98261SOL    HW296681  14.441   3.416  14.238
98262SOL     OW96682   0.889   7.310   8.795
98262SOL    HW196683   0.808   7.360   8.792
98262SOL    HW296684   0.884   7.262   8.877
98263SOL     OW96685   5.144   3.930   9.113
98263SOL    HW196686   5.086   3.964   9.044
98263SOL    HW296687   5.225   3.908   9.068
98264SOL     OW96688   8.422  10.354   3.876
98264SOL    HW196689   8.454  10.444   3.889
98264SOL    HW296690   8.439  10.337   3.783
98265SOL     OW96691   2.404   9.029   9.808
98265SOL    HW196692   2.442   9.104   9.853
98265SOL    HW296693   2.416   9.048   9.715
98266SOL     OW96694  10.044   2.332  11.840
98266SOL    HW196695  10.011   2.282  11.915
98266SOL    HW296696  10.139   2.333  11.853
98267SOL     OW96697   5.789  10.123   0.008
98267SOL    HW196698   5.826  10.118   0.096
98267SOL    HW296699   5.834  10.054  14.831
98268SOL     OW96700   9.947  14.841   8.254
98268SOL    HW196701   9.950  14.775   8.185
98268SOL    HW296702   9.936  14.790   8.335
98269SOL     OW96703  11.422   0.042   9.391
98269SOL    HW196704  11.391  14.869   9.312
98269SOL    HW296705  11.342   0.058   9.442
98270SOL     OW96706  13.122   0.393   4.125
98270SOL    HW196707  13.097   0.373   4.034
98270SOL    HW296708  13.076   0.474   4.145
98271SOL     OW96709  14.327   6.370   7.347
98271SOL    HW196710  14.418   6.399   7.352
98271SOL    HW296711  14.315   6.347   7.254
98272SOL     OW96712  13.250   5.416   5.902
98272SOL    HW196713  13.269   5.508   5.885
98272SOL    HW296714  13.302   5.395   5.979
98273SOL     OW96715   1.538   3.200  11.493
98273SOL    HW196716   1.517   3.271  11.432
98273SOL    HW296717   1.633   3.190  11.486
98274SOL     OW96718   0.868  10.099   2.117
98274SOL    HW196719   0.792  10.047   2.090
98274SOL    HW296720   0.932  10.086   2.047
98275SOL     OW96721   5.992   3.180   5.138
98275SOL    HW196722   5.973   3.257   5.192
98275SOL    HW296723   6.037   3.216   5.061
98276SOL     OW96724  12.879   9.075   3.100
98276SOL    HW196725  12.848   8.998   3.053
98276SOL    HW296726  12.843   9.149   3.050
98277SOL     OW96727  11.052   6.539   6.457
98277SOL    HW196728  11.063   6.506   6.368
98277SOL    HW296729  11.065   6.463   6.514
98278SOL     OW96730   9.651   3.035   5.795
98278SOL    HW196731   9.596   3.098   5.747
98278SOL    HW296732   9.604   2.952   5.785
98279SOL     OW96733   2.071   6.762   5.636
98279SOL    HW196734   1.978   6.755   5.615
98279SOL    HW296735   2.115   6.720   5.562
98280SOL     OW96736  10.944   4.468   0.054
98280SOL    HW196737  10.956   4.487   0.147
98280SOL    HW296738  10.856   4.433   0.047
98281SOL     OW96739  12.985   5.138   9.022
98281SOL    HW196740  13.061   5.080   9.029
98281SOL    HW296741  12.910   5.080   9.010
98282SOL     OW96742   6.650  12.010   4.514
98282SOL    HW196743   6.571  12.038   4.466
98282SOL    HW296744   6.668  11.922   4.480
98283SOL     OW96745  10.062  13.272  14.150
98283SOL    HW196746  10.061  13.367  14.134
98283SOL    HW296747  10.155  13.250  14.155
98284SOL     OW96748   9.703   6.348   5.529
98284SOL    HW196749   9.616   6.383   5.547
98284SOL    HW296750   9.751   6.359   5.612
98285SOL     OW96751  11.901  14.527   4.516
98285SOL    HW196752  11.907  14.612   4.560
98285SOL    HW296753  11.860  14.548   4.431
98286SOL     OW96754   8.464   0.514   2.233
98286SOL    HW196755   8.410   0.590   2.255
98286SOL    HW296756   8.407   0.439   2.250
98287SOL     OW96757   3.997   3.073   9.370
98287SOL    HW196758   3.950   3.155   9.386
98287SOL    HW296759   3.988   3.058   9.276
98288SOL     OW96760  12.968  13.080  12.839
98288SOL    HW196761  13.036  13.052  12.779
98288SOL    HW296762  13.013  13.132  12.905
98289SOL     OW96763   9.326  13.948   2.156
98289SOL    HW196764   9.416  13.968   2.181
98289SOL    HW296765   9.294  14.028   2.116
98290SOL     OW96766  11.519   6.538   5.033
98290SOL    HW196767  11.603   6.519   5.076
98290SOL    HW296768  11.486   6.616   5.078
98291SOL     OW96769   6.952   0.988   2.381
98291SOL    HW196770   6.986   1.005   2.469
98291SOL    HW296771   6.983   0.900   2.360
98292SOL     OW96772   4.874  11.482   7.969
98292SOL    HW196773   4.825  11.400   7.963
98292SOL    HW296774   4.881  11.498   8.063
98293SOL     OW96775   0.888  13.137   2.217
98293SOL    HW196776   0.849  13.069   2.271
98293SOL    HW296777   0.954  13.091   2.164
98294SOL     OW96778   2.849  12.147   7.783
98294SOL    HW196779   2.783  12.121   7.847
98294SOL    HW296780   2.917  12.080   7.788
98295SOL     OW96781  13.281   9.968   6.169
98295SOL    HW196782  13.364  10.001   6.136
98295SOL    HW296783  13.216  10.031   6.139
98296SOL     OW96784   3.871   7.042   5.631
98296SOL    HW196785   3.815   6.992   5.571
98296SOL    HW296786   3.928   7.093   5.574
98297SOL     OW96787   5.226   4.881   3.367
98297SOL    HW196788   5.218   4.936   3.445
98297SOL    HW296789   5.137   4.852   3.349
98298SOL     OW96790  11.085   3.771  13.126
98298SOL    HW196791  11.101   3.848  13.180
98298SOL    HW296792  11.169   3.754  13.083
98299SOL     OW96793   3.096   0.620   3.634
98299SOL    HW196794   3.095   0.527   3.660
98299SOL    HW296795   3.012   0.633   3.590
98300SOL     OW96796  10.622   6.644   6.303
98300SOL    HW196797  10.711   6.669   6.279
98300SOL    HW296798  10.626   6.549   6.315
98301SOL     OW96799   1.646  10.318   5.269
98301SOL    HW196800   1.699  10.372   5.210
98301SOL    HW296801   1.710  10.274   5.325
98302SOL     OW96802   8.449   1.809   7.460
98302SOL    HW196803   8.397   1.801   7.540
98302SOL    HW296804   8.452   1.903   7.443
98303SOL     OW96805  14.802  10.937  12.319
98303SOL    HW196806  14.827  11.018  12.275
98303SOL    HW296807  14.860  10.871  12.283
98304SOL     OW96808   8.402   4.304  10.334
98304SOL    HW196809   8.466   4.243  10.369
98304SOL    HW296810   8.364   4.346  10.411
98305SOL     OW96811   8.640   3.332  14.259
98305SOL    HW196812   8.714   3.392  14.252
98305SOL    HW296813   8.679   3.246  14.272
98306SOL     OW96814   4.040  14.187  14.371
98306SOL    HW196815   4.057  14.273  14.411
98306SOL    HW296816   4.094  14.126  14.421
98307SOL     OW96817   4.640   9.145  11.773
98307SOL    HW196818   4.700   9.088  11.724
98307SOL    HW296819   4.554   9.127  11.734
98308SOL     OW96820   9.578   8.697   3.417
98308SOL    HW196821   9.575   8.691   3.322
98308SOL    HW296822   9.488   8.715   3.443
98309SOL     OW96823  12.788   0.533   8.535
98309SOL    HW196824  12.795   0.440   8.558
98309SOL    HW296825  12.721   0.536   8.467
98310SOL     OW96826  10.535   3.676  11.288
98310SOL    HW196827  10.573   3.729  11.358
98310SOL    HW296828  10.519   3.591  11.330
98311SOL     OW96829   7.754   5.926   2.881
98311SOL    HW196830   7.760   6.011   2.838
98311SOL    HW296831   7.676   5.933   2.937
98312SOL     OW96832   7.720   2.505   2.157
98312SOL    HW196833   7.707   2.599   2.144
98312SOL    HW296834   7.642   2.465   2.118
98313SOL     OW96835   5.319   3.196   3.394
98313SOL    HW196836   5.260   3.138   3.442
98313SOL    HW296837   5.403   3.150   3.395
98314SOL     OW96838   1.618   4.685  13.338
98314SOL    HW196839   1.581   4.610  13.290
98314SOL    HW296840   1.671   4.731  13.274
98315SOL     OW96841  14.531   6.613   0.342
98315SOL    HW196842  14.623   6.639   0.352
98315SOL    HW296843  14.532   6.518   0.347
98316SOL     OW96844  13.631  13.958  12.004
98316SOL    HW196845  13.633  13.877  12.056
98316SOL    HW296846  13.693  14.016  12.048
98317SOL     OW96847   9.536   3.302   9.905
98317SOL    HW196848   9.583   3.223   9.879
98317SOL    HW296849   9.531   3.355   9.825
98318SOL     OW96850   9.792  14.105   5.643
98318SOL    HW196851   9.704  14.139   5.664
98318SOL    HW296852   9.787  14.012   5.664
98319SOL     OW96853   7.843   4.721   0.313
98319SOL    HW196854   7.783   4.793   0.333
98319SOL    HW296855   7.806   4.646   0.359
98320SOL     OW96856   7.102   5.655  12.357
98320SOL    HW196857   7.118   5.623  12.446
98320SOL    HW296858   7.012   5.628  12.338
98321SOL     OW96859   2.889   9.062  12.025
98321SOL    HW196860   2.906   9.039  12.117
98321SOL    HW296861   2.911   8.982  11.977
98322SOL     OW96862  10.121  11.920   6.885
98322SOL    HW196863  10.072  11.852   6.932
98322SOL    HW296864  10.208  11.919   6.926
98323SOL     OW96865   5.541  12.026   1.524
98323SOL    HW196866   5.477  11.974   1.475
98323SOL    HW296867   5.558  11.976   1.603
98324SOL     OW96868  12.768   1.249  11.876
98324SOL    HW196869  12.850   1.281  11.917
98324SOL    HW296870  12.797   1.197  11.802
98325SOL     OW96871   9.042   5.346   1.708
98325SOL    HW196872   9.105   5.401   1.754
98325SOL    HW296873   8.964   5.346   1.764
98326SOL     OW96874   0.588   9.331  12.936
98326SOL    HW196875   0.633   9.257  12.977
98326SOL    HW296876   0.496   9.306  12.937
98327SOL     OW96877   2.225   4.065  12.488
98327SOL    HW196878   2.204   3.987  12.436
98327SOL    HW296879   2.140   4.104  12.508
98328SOL     OW96880  13.547  14.047  11.554
98328SOL    HW196881  13.549  14.059  11.459
98328SOL    HW296882  13.506  14.126  11.587
98329SOL     OW96883   0.699   8.577   9.102
98329SOL    HW196884   0.693   8.634   9.178
98329SOL    HW296885   0.643   8.502   9.123
98330SOL     OW96886   5.884   1.606   3.043
98330SOL    HW196887   5.804   1.633   2.998
98330SOL    HW296888   5.955   1.637   2.987
98331SOL     OW96889   4.244  11.977   2.116
98331SOL    HW196890   4.301  11.958   2.190
98331SOL    HW296891   4.233  12.072   2.119
98332SOL     OW96892   7.242  11.875   2.368
98332SOL    HW196893   7.238  11.958   2.415
98332SOL    HW296894   7.276  11.813   2.432
98333SOL     OW96895   4.099  11.056  14.285
98333SOL    HW196896   4.173  11.029  14.339
98333SOL    HW296897   4.060  10.973  14.256
98334SOL     OW96898   0.983  11.161   4.446
98334SOL    HW196899   1.073  11.155   4.414
98334SOL    HW296900   0.967  11.076   4.488
98335SOL     OW96901   1.509   6.392   0.164
98335SOL    HW196902   1.509   6.423   0.255
98335SOL    HW296903   1.586   6.336   0.158
98336SOL     OW96904  12.377   8.078  14.513
98336SOL    HW196905  12.387   8.072  14.418
98336SOL    HW296906  12.316   8.009  14.535
98337SOL     OW96907  12.850  13.661  13.920
98337SOL    HW196908  12.754  13.657  13.922
98337SOL    HW296909  12.877  13.640  14.010
98338SOL     OW96910  14.846   0.898   4.082
98338SOL    HW196911  14.812   0.980   4.118
98338SOL    HW296912   0.011   0.922   3.998
98339SOL     OW96913   9.892   8.045   3.542
98339SOL    HW196914   9.808   8.090   3.555
98339SOL    HW296915   9.954   8.094   3.597
98340SOL     OW96916   1.097  10.533   4.513
98340SOL    HW196917   1.181  10.575   4.533
98340SOL    HW296918   1.087  10.544   4.418
98341SOL     OW96919   3.327  14.280   4.072
98341SOL    HW196920   3.357  14.364   4.038
98341SOL    HW296921   3.383  14.216   4.028
98342SOL     OW96922  11.334   0.980  14.125
98342SOL    HW196923  11.293   0.894  14.114
98342SOL    HW296924  11.426   0.960  14.145
98343SOL     OW96925  11.202  13.978   5.582
98343SOL    HW196926  11.277  13.922   5.601
98343SOL    HW296927  11.169  13.947   5.498
98344SOL     OW96928   7.643  14.851   9.467
98344SOL    HW196929   7.723  14.809   9.498
98344SOL    HW296930   7.589  14.862   9.545
98345SOL     OW96931   6.659  14.241  12.819
98345SOL    HW196932   6.599  14.220  12.747
98345SOL    HW296933   6.703  14.321  12.790
98346SOL     OW96934   8.392  13.264   9.232
98346SOL    HW196935   8.448  13.214   9.292
98346SOL    HW296936   8.417  13.355   9.245
98347SOL     OW96937   1.219   7.879   6.108
98347SOL    HW196938   1.142   7.918   6.150
98347SOL    HW296939   1.293   7.908   6.162
98348SOL     OW96940  13.490   0.369  10.652
98348SOL    HW196941  13.557   0.302  10.655
98348SOL    HW296942  13.425   0.336  10.590
98349SOL     OW96943   3.873   6.994   9.180
98349SOL    HW196944   3.827   6.992   9.096
98349SOL    HW296945   3.856   6.907   9.219
98350SOL     OW96946   0.641   5.808   0.910
98350SOL    HW196947   0.717   5.867   0.900
98350SOL    HW296948   0.679   5.720   0.907
98351SOL     OW96949   2.655  14.395   0.269
98351SOL    HW196950   2.648  14.310   0.313
98351SOL    HW296951   2.663  14.458   0.340
98352SOL     OW96952   6.544   3.980  11.041
98352SOL    HW196953   6.591   3.948  11.119
98352SOL    HW296954   6.579   4.068  11.027
98353SOL     OW96955   2.033   4.753   0.691
98353SOL    HW196956   2.122   4.755   0.655
98353SOL    HW296957   1.976   4.737   0.616
98354SOL     OW96958  10.045   6.324   0.950
98354SOL    HW196959  10.115   6.260   0.961
98354SOL    HW296960  10.089   6.408   0.942
98355SOL     OW96961  14.412   5.630   9.346
98355SOL    HW196962  14.450   5.718   9.342
98355SOL    HW296963  14.326   5.642   9.385
98356SOL     OW96964   3.043  11.998  11.582
98356SOL    HW196965   3.052  11.980  11.676
98356SOL    HW296966   3.132  12.018  11.554
98357SOL     OW96967   2.987   9.793   4.365
98357SOL    HW196968   2.942   9.725   4.314
98357SOL    HW296969   2.924   9.818   4.432
98358SOL     OW96970   2.600   3.181  11.275
98358SOL    HW196971   2.554   3.117  11.221
98358SOL    HW296972   2.615   3.136  11.358
98359SOL     OW96973   3.701   1.072  13.991
98359SOL    HW196974   3.789   1.052  14.023
98359SOL    HW296975   3.712   1.151  13.939
98360SOL     OW96976   1.060   5.541   0.164
98360SOL    HW196977   1.140   5.565   0.211
98360SOL    HW296978   1.085   5.545   0.072
98361SOL     OW96979   0.903   5.066   3.240
98361SOL    HW196980   0.895   4.997   3.175
98361SOL    HW296981   0.931   5.021   3.320
98362SOL     OW96982   8.183   2.067   6.548
98362SOL    HW196983   8.128   2.119   6.490
98362SOL    HW296984   8.127   2.045   6.622
98363SOL     OW96985   6.324  10.238   4.067
98363SOL    HW196986   6.275  10.202   4.141
98363SOL    HW296987   6.374  10.311   4.105
98364SOL     OW96988  11.587  13.387   5.505
98364SOL    HW196989  11.589  13.399   5.600
98364SOL    HW296990  11.494  13.385   5.483
98365SOL     OW96991   6.861  10.085   8.883
98365SOL    HW196992   6.847  10.008   8.939
98365SOL    HW296993   6.955  10.100   8.886
98366SOL     OW96994   1.266   8.554  12.358
98366SOL    HW196995   1.292   8.513  12.276
98366SOL    HW296996   1.293   8.646  12.350
98367SOL     OW96997   2.728  13.285   6.013
98367SOL    HW196998   2.823  13.296   6.013
98367SOL    HW296999   2.696  13.351   5.952
98368SOL     OW97000  12.016   4.734   8.563
98368SOL    HW197001  12.048   4.681   8.635
98368SOL    HW297002  12.095   4.768   8.521
98369SOL     OW97003   4.084   0.847   5.463
98369SOL    HW197004   4.050   0.789   5.395
98369SOL    HW297005   4.041   0.931   5.447
98370SOL     OW97006   8.465  11.926   4.409
98370SOL    HW197007   8.505  12.013   4.417
98370SOL    HW297008   8.435  11.906   4.498
98371SOL     OW97009   3.934   7.458  13.928
98371SOL    HW197010   3.924   7.553  13.924
98371SOL    HW297011   3.861   7.428  13.983
98372SOL     OW97012  11.728   8.587  11.496
98372SOL    HW197013  11.653   8.549  11.543
98372SOL    HW297014  11.692   8.613  11.412
98373SOL     OW97015   4.049   6.681  14.150
98373SOL    HW197016   4.095   6.616  14.204
98373SOL    HW297017   4.018   6.746  14.213
98374SOL     OW97018   1.711   2.695   9.104
98374SOL    HW197019   1.805   2.700   9.122
98374SOL    HW297020   1.685   2.609   9.137
98375SOL     OW97021  10.526  12.579   1.429
98375SOL    HW197022  10.459  12.607   1.493
98375SOL    HW297023  10.609  12.587   1.477
98376SOL     OW97024   9.235   5.598   7.694
98376SOL    HW197025   9.239   5.603   7.789
98376SOL    HW297026   9.188   5.677   7.668
98377SOL     OW97027   6.055  13.056  13.969
98377SOL    HW197028   6.079  12.978  14.018
98377SOL    HW297029   5.978  13.090  14.014
98378SOL     OW97030   5.252   9.799  13.547
98378SOL    HW197031   5.347   9.808  13.547
98378SOL    HW297032   5.220   9.888  13.532
98379SOL     OW97033  12.479  13.643  10.807
98379SOL    HW197034  12.454  13.645  10.900
98379SOL    HW297035  12.553  13.704  10.801
98380SOL     OW97036   6.342   4.673  13.868
98380SOL    HW197037   6.403   4.683  13.941
98380SOL    HW297038   6.310   4.583  13.875
98381SOL     OW97039   7.845   6.690  12.324
98381SOL    HW197040   7.864   6.607  12.367
98381SOL    HW297041   7.882   6.757  12.382
98382SOL     OW97042  10.729   3.984   5.702
98382SOL    HW197043  10.687   3.935   5.632
98382SOL    HW297044  10.822   3.983   5.680
98383SOL     OW97045  14.634  13.487  11.966
98383SOL    HW197046  14.618  13.414  11.907
98383SOL    HW297047  14.593  13.462  12.049
98384SOL     OW97048  13.981  12.208   3.756
98384SOL    HW197049  13.983  12.194   3.850
98384SOL    HW297050  13.964  12.121   3.719
98385SOL     OW97051   2.852   9.857   7.397
98385SOL    HW197052   2.894   9.932   7.354
98385SOL    HW297053   2.777   9.837   7.342
98386SOL     OW97054   7.131   3.357   2.174
98386SOL    HW197055   7.142   3.347   2.269
98386SOL    HW297056   7.215   3.328   2.138
98387SOL     OW97057   8.837   7.976   8.203
98387SOL    HW197058   8.821   7.885   8.178
98387SOL    HW297059   8.917   8.000   8.155
98388SOL     OW97060  14.640   0.221   3.198
98388SOL    HW197061  14.731   0.190   3.203
98388SOL    HW297062  14.610   0.193   3.112
98389SOL     OW97063   0.854   0.476   1.581
98389SOL    HW197064   0.784   0.520   1.533
98389SOL    HW297065   0.893   0.544   1.636
98390SOL     OW97066   0.559   3.184   7.354
98390SOL    HW197067   0.572   3.175   7.448
98390SOL    HW297068   0.480   3.134   7.335
98391SOL     OW97069   9.691   3.734  10.697
98391SOL    HW197070   9.770   3.760  10.744
98391SOL    HW297071   9.625   3.722  10.765
98392SOL     OW97072  14.345   9.414   0.624
98392SOL    HW197073  14.251   9.426   0.606
98392SOL    HW297074  14.348   9.367   0.707
98393SOL     OW97075   8.889  11.891   1.671
98393SOL    HW197076   8.869  11.985   1.673
98393SOL    HW297077   8.983  11.887   1.652
98394SOL     OW97078   3.768   4.772   9.061
98394SOL    HW197079   3.778   4.677   9.062
98394SOL    HW297080   3.770   4.797   9.153
98395SOL     OW97081   0.765  13.721   3.754
98395SOL    HW197082   0.818  13.798   3.736
98395SOL    HW297083   0.675  13.747   3.735
98396SOL     OW97084   7.530  14.647   8.803
98396SOL    HW197085   7.474  14.625   8.728
98396SOL    HW297086   7.490  14.727   8.839
98397SOL     OW97087   7.419  13.334   7.536
98397SOL    HW197088   7.456  13.363   7.453
98397SOL    HW297089   7.330  13.304   7.513
98398SOL     OW97090  12.613   1.034  10.466
98398SOL    HW197091  12.681   1.086  10.425
98398SOL    HW297092  12.610   1.065  10.557
98399SOL     OW97093  10.527  10.602   7.360
98399SOL    HW197094  10.455  10.592   7.422
98399SOL    HW297095  10.504  10.546   7.286
98400SOL     OW97096   8.173   5.505   5.733
98400SOL    HW197097   8.128   5.450   5.797
98400SOL    HW297098   8.246   5.452   5.702
98401SOL     OW97099   8.322   7.029   0.644
98401SOL    HW197100   8.396   7.079   0.679
98401SOL    HW297101   8.324   7.045   0.550
98402SOL     OW97102   4.190  13.797   2.570
98402SOL    HW197103   4.182  13.855   2.494
98402SOL    HW297104   4.174  13.709   2.535
98403SOL     OW97105   3.682   3.299   7.621
98403SOL    HW197106   3.603   3.279   7.672
98403SOL    HW297107   3.705   3.215   7.580
98404SOL     OW97108  13.844   4.228   2.716
98404SOL    HW197109  13.936   4.221   2.740
98404SOL    HW297110  13.809   4.139   2.726
98405SOL     OW97111   9.021   2.088  12.292
98405SOL    HW197112   8.963   2.156  12.257
98405SOL    HW297113   8.963   2.015  12.310
98406SOL     OW97114   8.440  14.365   9.384
98406SOL    HW197115   8.500  14.291   9.382
98406SOL    HW297116   8.368  14.336   9.440
98407SOL     OW97117  11.519   4.747   6.338
98407SOL    HW197118  11.478   4.695   6.407
98407SOL    HW297119  11.603   4.774   6.374
98408SOL     OW97120   6.060  12.769   4.001
98408SOL    HW197121   6.001  12.717   4.056
98408SOL    HW297122   6.123  12.807   4.062
98409SOL     OW97123   0.707  13.285   0.640
98409SOL    HW197124   0.727  13.222   0.709
98409SOL    HW297125   0.792  13.306   0.601
98410SOL     OW97126   9.935  10.070   4.870
98410SOL    HW197127   9.869  10.138   4.885
98410SOL    HW297128   9.954  10.035   4.957
98411SOL     OW97129   6.466   9.670   1.962
98411SOL    HW197130   6.375   9.645   1.942
98411SOL    HW297131   6.475   9.758   1.925
98412SOL     OW97132  10.065   2.190   7.150
98412SOL    HW197133  10.100   2.265   7.101
98412SOL    HW297134  10.047   2.124   7.083
98413SOL     OW97135  11.215  14.438  10.906
98413SOL    HW197136  11.198  14.445  11.000
98413SOL    HW297137  11.306  14.467  10.896
98414SOL     OW97138  10.789  12.144  13.326
98414SOL    HW197139  10.735  12.200  13.271
98414SOL    HW297140  10.833  12.204  13.386
98415SOL     OW97141   9.177   8.102   7.940
98415SOL    HW197142   9.124   8.027   7.912
98415SOL    HW297143   9.175   8.098   8.036
98416SOL     OW97144  12.354  12.271  12.536
98416SOL    HW197145  12.325  12.241  12.622
98416SOL    HW297146  12.382  12.362  12.551
98417SOL     OW97147  13.992   4.731   4.124
98417SOL    HW197148  13.951   4.721   4.037
98417SOL    HW297149  14.012   4.824   4.130
98418SOL     OW97150   4.751   2.790   3.255
98418SOL    HW197151   4.713   2.875   3.230
98418SOL    HW297152   4.786   2.805   3.342
98419SOL     OW97153   2.930  12.732   7.092
98419SOL    HW197154   3.013  12.686   7.100
98419SOL    HW297155   2.938  12.807   7.150
98420SOL     OW97156  12.060  11.044  12.815
98420SOL    HW197157  12.102  11.105  12.755
98420SOL    HW297158  11.988  11.094  12.854
98421SOL     OW97159   6.906  13.460   4.558
98421SOL    HW197160   6.862  13.524   4.613
98421SOL    HW297161   6.997  13.462   4.587
98422SOL     OW97162   0.745   9.500   5.740
98422SOL    HW197163   0.769   9.591   5.755
98422SOL    HW297164   0.660   9.491   5.782
98423SOL     OW97165  13.051   6.091   6.113
98423SOL    HW197166  13.062   6.144   6.191
98423SOL    HW297167  13.101   6.136   6.045
98424SOL     OW97168   4.422  12.869   4.697
98424SOL    HW197169   4.477  12.793   4.716
98424SOL    HW297170   4.386  12.894   4.782
98425SOL     OW97171   3.697   5.572   0.154
98425SOL    HW197172   3.640   5.563   0.230
98425SOL    HW297173   3.722   5.665   0.155
98426SOL     OW97174  14.424   2.476  10.692
98426SOL    HW197175  14.395   2.494  10.602
98426SOL    HW297176  14.425   2.563  10.734
98427SOL     OW97177   6.237  11.432   8.502
98427SOL    HW197178   6.243  11.527   8.502
98427SOL    HW297179   6.308  11.403   8.445
98428SOL     OW97180  10.836  11.109   0.058
98428SOL    HW197181  10.772  11.181   0.066
98428SOL    HW297182  10.782  11.030   0.053
98429SOL     OW97183   7.460   2.364  11.845
98429SOL    HW197184   7.514   2.320  11.911
98429SOL    HW297185   7.461   2.305  11.770
98430SOL     OW97186  13.417  10.085   4.429
98430SOL    HW197187  13.341  10.036   4.398
98430SOL    HW297188  13.398  10.176   4.406
98431SOL     OW97189  14.421   5.779   2.578
98431SOL    HW197190  14.384   5.717   2.640
98431SOL    HW297191  14.357   5.849   2.573
98432SOL     OW97192  14.138  12.161   0.912
98432SOL    HW197193  14.081  12.208   0.852
98432SOL    HW297194  14.226  12.174   0.877
98433SOL     OW97195   3.849   7.174  11.098
98433SOL    HW197196   3.897   7.094  11.080
98433SOL    HW297197   3.773   7.145  11.150
98434SOL     OW97198  12.167   3.753  13.202
98434SOL    HW197199  12.124   3.824  13.249
98434SOL    HW297200  12.260   3.763  13.223
98435SOL     OW97201   9.266   7.798   7.732
98435SOL    HW197202   9.207   7.848   7.789
98435SOL    HW297203   9.244   7.706   7.750
98436SOL     OW97204  13.237   3.935   8.766
98436SOL    HW197205  13.210   3.886   8.688
98436SOL    HW297206  13.326   3.964   8.746
98437SOL     OW97207   9.988   7.527   2.122
98437SOL    HW197208   9.927   7.496   2.055
98437SOL    HW297209   9.951   7.611   2.151
98438SOL     OW97210   9.262  14.814   3.046
98438SOL    HW197211   9.299  14.865   3.118
98438SOL    HW297212   9.192  14.869   3.011
98439SOL     OW97213   4.583   5.790   0.105
98439SOL    HW197214   4.533   5.872   0.113
98439SOL    HW297215   4.588   5.774   0.011
98440SOL     OW97216  11.129  13.151   4.018
98440SOL    HW197217  11.106  13.230   3.971
98440SOL    HW297218  11.187  13.103   3.960
98441SOL     OW97219  12.811  11.525  10.538
98441SOL    HW197220  12.747  11.513  10.469
98441SOL    HW297221  12.896  11.524  10.493
98442SOL     OW97222  12.081   0.457   8.164
98442SOL    HW197223  12.156   0.470   8.223
98442SOL    HW297224  12.005   0.486   8.216
98443SOL     OW97225   2.853  12.583  12.582
98443SOL    HW197226   2.797  12.627  12.646
98443SOL    HW297227   2.932  12.561  12.631
98444SOL     OW97228   3.792   5.841   5.728
98444SOL    HW197229   3.867   5.862   5.673
98444SOL    HW297230   3.829   5.792   5.801
98445SOL     OW97231   8.987   8.504  13.126
98445SOL    HW197232   8.975   8.409  13.130
98445SOL    HW297233   8.916   8.539  13.180
98446SOL     OW97234   0.669  13.888   6.462
98446SOL    HW197235   0.597  13.950   6.474
98446SOL    HW297236   0.713  13.918   6.383
98447SOL     OW97237   0.001   7.557   5.651
98447SOL    HW197238   0.010   7.606   5.733
98447SOL    HW297239  14.823   7.615   5.595
98448SOL     OW97240   0.212   7.964   9.447
98448SOL    HW197241   0.245   7.888   9.399
98448SOL    HW297242   0.162   7.927   9.519
98449SOL     OW97243   7.786   5.568   9.429
98449SOL    HW197244   7.758   5.480   9.453
98449SOL    HW297245   7.709   5.607   9.386
98450SOL     OW97246  11.923   5.074  11.718
98450SOL    HW197247  11.846   5.129  11.734
98450SOL    HW297248  11.980   5.128  11.663
98451SOL     OW97249  12.833   7.963   1.995
98451SOL    HW197250  12.895   7.983   2.066
98451SOL    HW297251  12.806   7.873   2.012
98452SOL     OW97252  11.629  13.973  10.555
98452SOL    HW197253  11.638  14.017  10.639
98452SOL    HW297254  11.674  13.890  10.566
98453SOL     OW97255  11.427   8.734   4.096
98453SOL    HW197256  11.438   8.717   4.190
98453SOL    HW297257  11.461   8.655   4.053
98454SOL     OW97258   5.381   6.957   0.160
98454SOL    HW197259   5.351   7.045   0.185
98454SOL    HW297260   5.316   6.927   0.097
98455SOL     OW97261   4.212  12.815   0.627
98455SOL    HW197262   4.294  12.766   0.641
98455SOL    HW297263   4.226  12.861   0.544
98456SOL     OW97264   4.857   8.412  11.964
98456SOL    HW197265   4.880   8.442  11.876
98456SOL    HW297266   4.808   8.485  12.002
98457SOL     OW97267  14.448   0.636  14.096
98457SOL    HW197268  14.457   0.644  14.191
98457SOL    HW297269  14.367   0.587  14.084
98458SOL     OW97270  14.753  11.461   8.213
98458SOL    HW197271  14.813  11.429   8.146
98458SOL    HW297272  14.716  11.382   8.251
98459SOL     OW97273  13.552  13.414  13.071
98459SOL    HW197274  13.637  13.413  13.115
98459SOL    HW297275  13.489  13.396  13.140
98460SOL     OW97276   4.761  13.952   2.173
98460SOL    HW197277   4.708  14.027   2.148
98460SOL    HW297278   4.754  13.892   2.099
98461SOL     OW97279   1.064   4.439  10.394
98461SOL    HW197280   1.076   4.390  10.475
98461SOL    HW297281   1.144   4.422  10.344
98462SOL     OW97282  12.935   3.075   2.984
98462SOL    HW197283  12.919   3.067   2.890
98462SOL    HW297284  13.024   3.108   2.992
98463SOL     OW97285   6.167   0.007   2.798
98463SOL    HW197286   6.077   0.022   2.826
98463SOL    HW297287   6.160  14.810   2.732
98464SOL     OW97288   0.015  11.966   1.035
98464SOL    HW197289   0.069  11.961   0.956
98464SOL    HW297290   0.075  11.998   1.103
98465SOL     OW97291  13.906   6.437  11.656
98465SOL    HW197292  13.904   6.379  11.580
98465SOL    HW297293  13.815   6.467  11.665
98466SOL     OW97294   7.496   4.174   5.384
98466SOL    HW197295   7.507   4.266   5.407
98466SOL    HW297296   7.401   4.161   5.383
98467SOL     OW97297  12.640  14.642  10.506
98467SOL    HW197298  12.651  14.606  10.594
98467SOL    HW297299  12.675  14.731  10.512
98468SOL     OW97300   7.628   2.200   1.865
98468SOL    HW197301   7.675   2.219   1.784
98468SOL    HW297302   7.550   2.256   1.861
98469SOL     OW97303   3.530   3.632   2.953
98469SOL    HW197304   3.588   3.681   2.894
98469SOL    HW297305   3.463   3.596   2.895
98470SOL     OW97306   5.770   8.340   6.356
98470SOL    HW197307   5.784   8.327   6.450
98470SOL    HW297308   5.774   8.253   6.318
98471SOL     OW97309  13.532   4.979  12.984
98471SOL    HW197310  13.598   4.958  13.050
98471SOL    HW297311  13.454   5.002  13.034
98472SOL     OW97312   2.892   8.232   6.967
98472SOL    HW197313   2.815   8.177   6.978
98472SOL    HW297314   2.883   8.299   7.034
98473SOL     OW97315   8.257   2.975   7.848
98473SOL    HW197316   8.311   3.053   7.837
98473SOL    HW297317   8.173   3.008   7.878
98474SOL     OW97318   5.458   2.026   1.682
98474SOL    HW197319   5.511   1.948   1.665
98474SOL    HW297320   5.487   2.056   1.768
98475SOL     OW97321   7.148   8.480   8.204
98475SOL    HW197322   7.169   8.439   8.120
98475SOL    HW297323   7.218   8.544   8.217
98476SOL     OW97324   9.109  13.340   8.970
98476SOL    HW197325   9.065  13.255   8.971
98476SOL    HW297326   9.062  13.393   9.034
98477SOL     OW97327  11.832  10.959   5.828
98477SOL    HW197328  11.820  10.866   5.813
98477SOL    HW297329  11.927  10.972   5.827
98478SOL     OW97330   8.992   7.907   3.724
98478SOL    HW197331   9.023   7.988   3.765
98478SOL    HW297332   8.900   7.924   3.703
98479SOL     OW97333  11.750   8.163   3.754
98479SOL    HW197334  11.657   8.169   3.776
98479SOL    HW297335  11.757   8.087   3.697
98480SOL     OW97336   4.411  10.251  12.723
98480SOL    HW197337   4.434  10.182  12.785
98480SOL    HW297338   4.453  10.225  12.641
98481SOL     OW97339   2.598   9.847  13.429
98481SOL    HW197340   2.608   9.752  13.436
98481SOL    HW297341   2.560   9.861  13.342
98482SOL     OW97342   2.866   9.736   4.599
98482SOL    HW197343   2.783   9.772   4.631
98482SOL    HW297344   2.890   9.671   4.665
98483SOL     OW97345  10.928   3.002   0.538
98483SOL    HW197346  10.959   3.092   0.549
98483SOL    HW297347  10.996   2.948   0.577
98484SOL     OW97348   9.070  11.281  14.120
98484SOL    HW197349   9.040  11.369  14.097
98484SOL    HW297350   9.160  11.292  14.148
98485SOL     OW97351  12.836  12.918   7.020
98485SOL    HW197352  12.808  12.904   7.110
98485SOL    HW297353  12.759  12.895   6.967
98486SOL     OW97354   4.483   9.208  13.919
98486SOL    HW197355   4.456   9.117  13.906
98486SOL    HW297356   4.403   9.259  13.905
98487SOL     OW97357   6.343   1.887   2.259
98487SOL    HW197358   6.288   1.815   2.290
98487SOL    HW297359   6.420   1.884   2.317
98488SOL     OW97360   0.623  13.607   5.581
98488SOL    HW197361   0.611  13.654   5.664
98488SOL    HW297362   0.535  13.582   5.555
98489SOL     OW97363   2.453   7.644   9.067
98489SOL    HW197364   2.428   7.612   8.980
98489SOL    HW297365   2.377   7.625   9.122
98490SOL     OW97366  13.257   0.124  12.171
98490SOL    HW197367  13.172   0.127  12.127
98490SOL    HW297368  13.251   0.189  12.241
98491SOL     OW97369   6.691   6.225   1.283
98491SOL    HW197370   6.716   6.140   1.247
98491SOL    HW297371   6.774   6.263   1.313
98492SOL     OW97372   2.367   1.706   9.172
98492SOL    HW197373   2.277   1.674   9.184
98492SOL    HW297374   2.378   1.772   9.241
98493SOL     OW97375   7.192   0.062   0.916
98493SOL    HW197376   7.148   0.140   0.882
98493SOL    HW297377   7.124   0.016   0.966
98494SOL     OW97378   2.859  14.058  13.584
98494SOL    HW197379   2.926  13.989  13.588
98494SOL    HW297380   2.846  14.083  13.675
98495SOL     OW97381   8.887   6.954  14.038
98495SOL    HW197382   8.942   6.901  13.981
98495SOL    HW297383   8.945   7.024  14.070
98496SOL     OW97384  13.341   4.234  13.605
98496SOL    HW197385  13.252   4.209  13.579
98496SOL    HW297386  13.391   4.233  13.523
98497SOL     OW97387  10.226  10.229  12.606
98497SOL    HW197388  10.278  10.288  12.659
98497SOL    HW297389  10.256  10.141  12.631
98498SOL     OW97390  13.150   4.638   7.027
98498SOL    HW197391  13.185   4.565   6.976
98498SOL    HW297392  13.222   4.663   7.086
98499SOL     OW97393  13.756   4.672   6.107
98499SOL    HW197394  13.676   4.700   6.063
98499SOL    HW297395  13.758   4.723   6.188
98500SOL     OW97396   0.598   7.933   4.430
98500SOL    HW197397   0.505   7.932   4.410
98500SOL    HW297398   0.606   7.885   4.513
98501SOL     OW97399  13.719  14.656   1.759
98501SOL    HW197400  13.692  14.685   1.672
98501SOL    HW297401  13.642  14.613   1.795
98502SOL     OW97402   0.656   7.221   0.144
98502SOL    HW197403   0.716   7.185   0.079
98502SOL    HW297404   0.705   7.217   0.226
98503SOL     OW97405   2.798  14.839  11.504
98503SOL    HW197406   2.797  14.843  11.599
98503SOL    HW297407   2.775  14.749  11.483
98504SOL     OW97408  12.017   0.011   4.343
98504SOL    HW197409  11.947  14.859   4.283
98504SOL    HW297410  12.095   0.019   4.287
98505SOL     OW97411  12.408  13.206   2.336
98505SOL    HW197412  12.388  13.274   2.400
98505SOL    HW297413  12.443  13.255   2.261
98506SOL     OW97414  14.377   7.446   8.315
98506SOL    HW197415  14.398   7.392   8.392
98506SOL    HW297416  14.324   7.518   8.351
98507SOL     OW97417  11.876   0.754   5.919
98507SOL    HW197418  11.871   0.665   5.884
98507SOL    HW297419  11.902   0.808   5.844
98508SOL     OW97420   3.696   4.837   0.345
98508SOL    HW197421   3.772   4.894   0.356
98508SOL    HW297422   3.621   4.896   0.341
98509SOL     OW97423   6.310  12.902   2.366
98509SOL    HW197424   6.310  12.889   2.271
98509SOL    HW297425   6.220  12.930   2.387
98510SOL     OW97426   2.470   7.895  12.632
98510SOL    HW197427   2.388   7.850  12.654
98510SOL    HW297428   2.444   7.986  12.619
98511SOL     OW97429   3.611  10.603   1.673
98511SOL    HW197430   3.636  10.604   1.581
98511SOL    HW297431   3.670  10.540   1.714
98512SOL     OW97432   8.679   4.219   8.524
98512SOL    HW197433   8.632   4.300   8.506
98512SOL    HW297434   8.753   4.219   8.463
98513SOL     OW97435  11.114   2.755   6.307
98513SOL    HW197436  11.095   2.662   6.318
98513SOL    HW297437  11.029   2.798   6.310
98514SOL     OW97438   1.808   4.819  12.227
98514SOL    HW197439   1.732   4.789  12.177
98514SOL    HW297440   1.879   4.761  12.200
98515SOL     OW97441   6.059   9.209   4.008
98515SOL    HW197442   6.081   9.242   3.921
98515SOL    HW297443   5.985   9.150   3.993
98516SOL     OW97444  14.034   2.954   5.448
98516SOL    HW197445  13.986   2.881   5.487
98516SOL    HW297446  13.999   3.031   5.492
98517SOL     OW97447   4.985   1.768   3.229
98517SOL    HW197448   4.999   1.787   3.322
98517SOL    HW297449   4.929   1.840   3.199
98518SOL     OW97450  14.616   5.727   0.262
98518SOL    HW197451  14.542   5.746   0.320
98518SOL    HW297452  14.592   5.766   0.178
98519SOL     OW97453   6.617   5.003  13.014
98519SOL    HW197454   6.577   5.021  13.100
98519SOL    HW297455   6.611   5.087  12.967
98520SOL     OW97456  10.640   5.560   8.680
98520SOL    HW197457  10.575   5.533   8.615
98520SOL    HW297458  10.717   5.585   8.630
98521SOL     OW97459   0.664   1.201  10.399
98521SOL    HW197460   0.756   1.177  10.396
98521SOL    HW297461   0.617   1.120  10.380
98522SOL     OW97462  13.409  14.136   3.771
98522SOL    HW197463  13.376  14.076   3.839
98522SOL    HW297464  13.404  14.222   3.812
98523SOL     OW97465   4.536   1.442   9.088
98523SOL    HW197466   4.508   1.443   8.997
98523SOL    HW297467   4.513   1.529   9.121
98524SOL     OW97468   5.049   8.448  14.854
98524SOL    HW197469   4.981   8.503  14.815
98524SOL    HW297470   5.103   8.421  14.780
98525SOL     OW97471  10.260   0.544  14.156
98525SOL    HW197472  10.354   0.547  14.176
98525SOL    HW297473  10.255   0.564  14.062
98526SOL     OW97474  10.903   6.517  13.205
98526SOL    HW197475  10.893   6.425  13.232
98526SOL    HW297476  10.955   6.512  13.125
98527SOL     OW97477   6.171   0.220   1.000
98527SOL    HW197478   6.113   0.261   1.064
98527SOL    HW297479   6.255   0.264   1.012
98528SOL     OW97480   2.046   3.390   7.752
98528SOL    HW197481   2.081   3.356   7.669
98528SOL    HW297482   2.078   3.328   7.818
98529SOL     OW97483   5.251   7.644   0.396
98529SOL    HW197484   5.300   7.585   0.453
98529SOL    HW297485   5.178   7.592   0.365
98530SOL     OW97486  12.587   0.061   4.285
98530SOL    HW197487  12.570   0.093   4.197
98530SOL    HW297488  12.682   0.057   4.292
98531SOL     OW97489  14.742   3.627  14.552
98531SOL    HW197490  14.668   3.567  14.559
98531SOL    HW297491  14.792   3.595  14.477
98532SOL     OW97492   3.553   4.326  13.360
98532SOL    HW197493   3.571   4.397  13.422
98532SOL    HW297494   3.457   4.319  13.359
98533SOL     OW97495   1.603  12.437   9.977
98533SOL    HW197496   1.519  12.444  10.024
98533SOL    HW297497   1.648  12.364  10.020
98534SOL     OW97498   3.792   4.173  10.314
98534SOL    HW197499   3.784   4.216  10.399
98534SOL    HW297500   3.850   4.230  10.263
98535SOL     OW97501   3.593   1.935   1.948
98535SOL    HW197502   3.675   1.978   1.974
98535SOL    HW297503   3.528   1.968   2.010
98536SOL     OW97504  12.359   3.922   8.784
98536SOL    HW197505  12.408   3.897   8.862
98536SOL    HW297506  12.414   3.987   8.741
98537SOL     OW97507   4.097  14.638  10.631
98537SOL    HW197508   4.158  14.696  10.586
98537SOL    HW297509   4.122  14.550  10.602
98538SOL     OW97510  11.647  11.313   8.365
98538SOL    HW197511  11.562  11.269   8.377
98538SOL    HW297512  11.700  11.249   8.317
98539SOL     OW97513   3.496  11.936   3.070
98539SOL    HW197514   3.556  11.964   3.001
98539SOL    HW297515   3.474  11.846   3.047
98540SOL     OW97516   4.505  13.156   7.476
98540SOL    HW197517   4.521  13.250   7.483
98540SOL    HW297518   4.592  13.118   7.460
98541SOL     OW97519   1.250   8.869  10.065
98541SOL    HW197520   1.327   8.817  10.092
98541SOL    HW297521   1.193   8.805  10.024
98542SOL     OW97522   8.942   7.047   1.282
98542SOL    HW197523   8.972   7.101   1.356
98542SOL    HW297524   8.852   7.023   1.305
98543SOL     OW97525   1.648  13.310   5.822
98543SOL    HW197526   1.604  13.226   5.834
98543SOL    HW297527   1.731  13.288   5.779
98544SOL     OW97528   2.083   2.403  14.354
98544SOL    HW197529   2.068   2.319  14.310
98544SOL    HW297530   2.169   2.394  14.395
98545SOL     OW97531   3.095   8.454   6.656
98545SOL    HW197532   3.073   8.497   6.573
98545SOL    HW297533   3.146   8.377   6.630
98546SOL     OW97534   9.367   9.535   9.050
98546SOL    HW197535   9.440   9.478   9.030
98546SOL    HW297536   9.290   9.478   9.045
98547SOL     OW97537   5.509   7.194   4.446
98547SOL    HW197538   5.578   7.192   4.512
98547SOL    HW297539   5.443   7.253   4.482
98548SOL     OW97540   0.169   6.289   8.228
98548SOL    HW197541   0.144   6.276   8.136
98548SOL    HW297542   0.217   6.373   8.227
98549SOL     OW97543  10.171  13.163   9.104
98549SOL    HW197544  10.142  13.226   9.171
98549SOL    HW297545  10.263  13.148   9.125
98550SOL     OW97546   4.026  12.955   9.053
98550SOL    HW197547   3.961  12.985   8.989
98550SOL    HW297548   4.070  12.882   9.010
98551SOL     OW97549   0.540   0.753  13.438
98551SOL    HW197550   0.626   0.756  13.480
98551SOL    HW297551   0.559   0.728  13.348
98552SOL     OW97552   5.182   3.778  12.335
98552SOL    HW197553   5.130   3.750  12.411
98552SOL    HW297554   5.160   3.715  12.266
98553SOL     OW97555  12.587   8.084  10.268
98553SOL    HW197556  12.584   8.177  10.290
98553SOL    HW297557  12.495   8.057  10.263
98554SOL     OW97558  10.440   2.797   4.011
98554SOL    HW197559  10.457   2.721   4.067
98554SOL    HW297560  10.370   2.844   4.056
98555SOL     OW97561   6.093  10.401   0.330
98555SOL    HW197562   6.023  10.369   0.388
98555SOL    HW297563   6.076  10.357   0.246
98556SOL     OW97564   8.435  13.350  12.640
98556SOL    HW197565   8.466  13.392  12.560
98556SOL    HW297566   8.514  13.338  12.693
98557SOL     OW97567   6.518   5.540   6.771
98557SOL    HW197568   6.450   5.478   6.746
98557SOL    HW297569   6.472   5.624   6.779
98558SOL     OW97570   3.925   9.693   3.498
98558SOL    HW197571   3.947   9.751   3.570
98558SOL    HW297572   3.935   9.605   3.535
98559SOL     OW97573  12.300   8.919  13.863
98559SOL    HW197574  12.315   8.833  13.903
98559SOL    HW297575  12.348   8.980  13.919
98560SOL     OW97576  11.482   9.432   5.931
98560SOL    HW197577  11.406   9.423   5.989
98560SOL    HW297578  11.447   9.419   5.843
98561SOL     OW97579  12.522   2.897  10.992
98561SOL    HW197580  12.580   2.851  11.053
98561SOL    HW297581  12.469   2.828  10.952
98562SOL     OW97582   8.394   5.804  10.457
98562SOL    HW197583   8.353   5.838  10.537
98562SOL    HW297584   8.386   5.876  10.394
98563SOL     OW97585   8.148   0.323   0.558
98563SOL    HW197586   8.110   0.272   0.486
98563SOL    HW297587   8.074   0.370   0.597
98564SOL     OW97588   9.457   1.453   3.025
98564SOL    HW197589   9.392   1.389   2.997
98564SOL    HW297590   9.538   1.403   3.037
98565SOL     OW97591   9.359  11.742   1.002
98565SOL    HW197592   9.318  11.801   1.066
98565SOL    HW297593   9.356  11.790   0.920
98566SOL     OW97594  11.991   8.722   7.009
98566SOL    HW197595  12.034   8.716   6.924
98566SOL    HW297596  11.931   8.648   7.012
98567SOL     OW97597   9.011  12.139   8.375
98567SOL    HW197598   8.936  12.197   8.382
98567SOL    HW297599   8.983  12.057   8.416
98568SOL     OW97600   7.987   3.351  14.499
98568SOL    HW197601   7.994   3.280  14.435
98568SOL    HW297602   8.018   3.428  14.452
98569SOL     OW97603   5.667   1.899  12.264
98569SOL    HW197604   5.590   1.843  12.252
98569SOL    HW297605   5.689   1.928  12.176
98570SOL     OW97606   1.179   3.596   7.370
98570SOL    HW197607   1.086   3.615   7.362
98570SOL    HW297608   1.208   3.582   7.280
98571SOL     OW97609  10.770   9.224   3.365
98571SOL    HW197610  10.757   9.133   3.336
98571SOL    HW297611  10.717   9.276   3.305
98572SOL     OW97612  12.372   2.552   6.023
98572SOL    HW197613  12.459   2.515   6.040
98572SOL    HW297614  12.314   2.508   6.086
98573SOL     OW97615   5.618   0.254   6.195
98573SOL    HW197616   5.678   0.255   6.119
98573SOL    HW297617   5.559   0.181   6.178
98574SOL     OW97618   2.245   7.880   7.305
98574SOL    HW197619   2.242   7.784   7.303
98574SOL    HW297620   2.156   7.907   7.280
98575SOL     OW97621   6.797  14.088  11.326
98575SOL    HW197622   6.744  14.160  11.359
98575SOL    HW297623   6.827  14.117  11.240
98576SOL     OW97624  13.791   5.031  14.286
98576SOL    HW197625  13.797   5.091  14.213
98576SOL    HW297626  13.879   5.030  14.324
98577SOL     OW97627   2.410   5.754   7.082
98577SOL    HW197628   2.400   5.829   7.024
98577SOL    HW297629   2.427   5.792   7.169
98578SOL     OW97630   1.641   2.448   3.478
98578SOL    HW197631   1.669   2.539   3.466
98578SOL    HW297632   1.575   2.434   3.410
98579SOL     OW97633   5.862  10.222   2.290
98579SOL    HW197634   5.776  10.191   2.317
98579SOL    HW297635   5.867  10.311   2.323
98580SOL     OW97636   6.904   6.335  11.631
98580SOL    HW197637   6.906   6.286  11.549
98580SOL    HW297638   6.870   6.273  11.695
98581SOL     OW97639   4.295  12.621   1.726
98581SOL    HW197640   4.292  12.623   1.630
98581SOL    HW297641   4.320  12.710   1.751
98582SOL     OW97642   1.275  11.692  13.940
98582SOL    HW197643   1.342  11.749  13.977
98582SOL    HW297644   1.299  11.685  13.847
98583SOL     OW97645   4.539   2.021   0.836
98583SOL    HW197646   4.596   2.052   0.766
98583SOL    HW297647   4.592   1.958   0.884
98584SOL     OW97648   5.011   2.829   1.242
98584SOL    HW197649   4.999   2.736   1.222
98584SOL    HW297650   5.105   2.840   1.250
98585SOL     OW97651   2.953   8.297   9.333
98585SOL    HW197652   3.019   8.348   9.379
98585SOL    HW297653   2.912   8.243   9.400
98586SOL     OW97654   4.209  13.659   3.483
98586SOL    HW197655   4.274  13.677   3.551
98586SOL    HW297656   4.125  13.654   3.530
98587SOL     OW97657   8.057   5.465  10.419
98587SOL    HW197658   8.000   5.408  10.368
98587SOL    HW297659   8.005   5.490  10.496
98588SOL     OW97660   9.675   2.658  12.920
98588SOL    HW197661   9.612   2.675  12.850
98588SOL    HW297662   9.687   2.563  12.919
98589SOL     OW97663   3.442   8.546   8.022
98589SOL    HW197664   3.495   8.502   7.955
98589SOL    HW297665   3.366   8.490   8.033
98590SOL     OW97666   5.991   8.417  11.920
98590SOL    HW197667   5.973   8.498  11.872
98590SOL    HW297668   5.978   8.348  11.856
98591SOL     OW97669   8.864  11.050   5.427
98591SOL    HW197670   8.896  11.138   5.447
98591SOL    HW297671   8.860  11.006   5.512
98592SOL     OW97672   3.848   9.845  14.079
98592SOL    HW197673   3.760   9.860  14.113
98592SOL    HW297674   3.851   9.894  13.996
98593SOL     OW97675   2.957   2.467   1.913
98593SOL    HW197676   2.904   2.416   1.852
98593SOL    HW297677   2.906   2.469   1.994
98594SOL     OW97678   1.191   5.617   2.976
98594SOL    HW197679   1.202   5.600   3.069
98594SOL    HW297680   1.112   5.569   2.952
98595SOL     OW97681  11.582  12.350  10.168
98595SOL    HW197682  11.649  12.292  10.203
98595SOL    HW297683  11.599  12.354  10.074
98596SOL     OW97684   1.489  13.068   4.278
98596SOL    HW197685   1.467  13.014   4.202
98596SOL    HW297686   1.552  13.016   4.327
98597SOL     OW97687   1.352   5.862  11.594
98597SOL    HW197688   1.332   5.776  11.556
98597SOL    HW297689   1.269   5.908  11.596
98598SOL     OW97690  11.917  14.279   9.290
98598SOL    HW197691  11.881  14.359   9.250
98598SOL    HW297692  11.862  14.209   9.257
98599SOL     OW97693   4.356   8.951   8.740
98599SOL    HW197694   4.291   8.919   8.802
98599SOL    HW297695   4.437   8.905   8.765
98600SOL     OW97696  14.591   0.662   9.922
98600SOL    HW197697  14.665   0.701   9.967
98600SOL    HW297698  14.584   0.711   9.840
98601SOL     OW97699   9.156   5.141  12.872
98601SOL    HW197700   9.235   5.187  12.845
98601SOL    HW297701   9.097   5.210  12.902
98602SOL     OW97702   6.045   0.971   0.494
98602SOL    HW197703   5.959   1.002   0.464
98602SOL    HW297704   6.058   1.016   0.578
98603SOL     OW97705  12.067  14.064  11.477
98603SOL    HW197706  12.113  14.142  11.446
98603SOL    HW297707  12.013  14.037  11.403
98604SOL     OW97708   6.616  10.296  12.621
98604SOL    HW197709   6.649  10.317  12.534
98604SOL    HW297710   6.587  10.205  12.613
98605SOL     OW97711  13.725   7.958  12.767
98605SOL    HW197712  13.780   7.941  12.843
98605SOL    HW297713  13.783   7.946  12.692
98606SOL     OW97714   9.740  13.649  12.869
98606SOL    HW197715   9.707  13.737  12.846
98606SOL    HW297716   9.819  13.639  12.817
98607SOL     OW97717  13.291   2.013  10.159
98607SOL    HW197718  13.215   2.041  10.109
98607SOL    HW297719  13.266   1.927  10.194
98608SOL     OW97720  14.610   2.972   5.753
98608SOL    HW197721  14.582   3.045   5.699
98608SOL    HW297722  14.531   2.947   5.802
98609SOL     OW97723   9.039  10.218   8.946
98609SOL    HW197724   9.067  10.161   8.874
98609SOL    HW297725   9.089  10.188   9.021
98610SOL     OW97726   7.816  14.158   0.113
98610SOL    HW197727   7.744  14.113   0.156
98610SOL    HW297728   7.774  14.215   0.048
98611SOL     OW97729  11.712   4.135   1.046
98611SOL    HW197730  11.617   4.121   1.051
98611SOL    HW297731  11.731   4.135   0.952
98612SOL     OW97732  12.772   4.011  14.531
98612SOL    HW197733  12.793   3.963  14.611
98612SOL    HW297734  12.678   4.027  14.537
98613SOL     OW97735   9.817  11.928   0.709
98613SOL    HW197736   9.885  11.961   0.650
98613SOL    HW297737   9.863  11.909   0.791
98614SOL     OW97738   7.350   8.208  14.011
98614SOL    HW197739   7.414   8.278  14.000
98614SOL    HW297740   7.355   8.183  14.103
98615SOL     OW97741   8.486  14.764   7.389
98615SOL    HW197742   8.483  14.730   7.478
98615SOL    HW297743   8.476  14.858   7.399
98616SOL     OW97744   5.386   1.114  10.151
98616SOL    HW197745   5.419   1.204  10.157
98616SOL    HW297746   5.381   1.097  10.057
98617SOL     OW97747   4.140  11.355   9.540
98617SOL    HW197748   4.079  11.281   9.541
98617SOL    HW297749   4.227  11.315   9.546
98618SOL     OW97750   7.558   1.210   9.149
98618SOL    HW197751   7.552   1.122   9.110
98618SOL    HW297752   7.472   1.225   9.189
98619SOL     OW97753   6.708   0.839   9.992
98619SOL    HW197754   6.802   0.855   9.976
98619SOL    HW297755   6.694   0.871  10.081
98620SOL     OW97756   6.435   3.428   0.379
98620SOL    HW197757   6.349   3.467   0.364
98620SOL    HW297758   6.431   3.395   0.468
98621SOL     OW97759   3.369   6.839  14.358
98621SOL    HW197760   3.325   6.823  14.275
98621SOL    HW297761   3.353   6.932  14.376
98622SOL     OW97762   8.346  14.841  10.553
98622SOL    HW197763   8.410  14.772  10.534
98622SOL    HW297764   8.374   0.043  10.500
98623SOL     OW97765   8.296  12.424   4.030
98623SOL    HW197766   8.213  12.459   4.064
98623SOL    HW297767   8.327  12.491   3.970
98624SOL     OW97768   8.045  11.838   6.359
98624SOL    HW197769   8.021  11.908   6.420
98624SOL    HW297770   8.133  11.811   6.387
98625SOL     OW97771   8.448   1.844   2.864
98625SOL    HW197772   8.492   1.844   2.949
98625SOL    HW297773   8.355   1.853   2.885
98626SOL     OW97774  12.486   5.205   6.955
98626SOL    HW197775  12.437   5.282   6.983
98626SOL    HW297776  12.448   5.133   7.005
98627SOL     OW97777   0.924  11.315   9.955
98627SOL    HW197778   0.902  11.224   9.936
98627SOL    HW297779   1.019  11.314   9.967
98628SOL     OW97780  13.109   1.910   2.768
98628SOL    HW197781  13.112   1.924   2.673
98628SOL    HW297782  13.060   1.828   2.778
98629SOL     OW97783   2.042  10.320   5.128
98629SOL    HW197784   2.119  10.296   5.076
98629SOL    HW297785   1.974  10.339   5.064
98630SOL     OW97786   1.920  13.335   8.404
98630SOL    HW197787   1.921  13.381   8.320
98630SOL    HW297788   1.828  13.336   8.431
98631SOL     OW97789   6.543   2.961   2.916
98631SOL    HW197790   6.596   2.937   2.840
98631SOL    HW297791   6.557   2.891   2.979
98632SOL     OW97792   9.758   1.114   9.839
98632SOL    HW197793   9.793   1.042   9.787
98632SOL    HW297794   9.764   1.191   9.782
98633SOL     OW97795   0.328   9.393  13.615
98633SOL    HW197796   0.382   9.378  13.537
98633SOL    HW297797   0.390   9.401  13.687
98634SOL     OW97798   0.448   3.086  13.045
98634SOL    HW197799   0.522   3.036  13.080
98634SOL    HW297800   0.483   3.131  12.969
98635SOL     OW97801   2.628   4.557   4.731
98635SOL    HW197802   2.698   4.522   4.787
98635SOL    HW297803   2.577   4.614   4.789
98636SOL     OW97804  10.886   2.812  13.111
98636SOL    HW197805  10.875   2.875  13.183
98636SOL    HW297806  10.979   2.812  13.092
98637SOL     OW97807  10.278   3.621  12.475
98637SOL    HW197808  10.270   3.711  12.443
98637SOL    HW297809  10.190   3.584  12.464
98638SOL     OW97810   2.287   7.656   8.481
98638SOL    HW197811   2.341   7.632   8.405
98638SOL    HW297812   2.274   7.751   8.472
98639SOL     OW97813   6.074   6.908   4.202
98639SOL    HW197814   6.113   6.948   4.124
98639SOL    HW297815   6.122   6.826   4.212
98640SOL     OW97816  14.619   6.902   6.864
98640SOL    HW197817  14.580   6.924   6.780
98640SOL    HW297818  14.704   6.946   6.864
98641SOL     OW97819   8.947  12.388  14.401
98641SOL    HW197820   8.908  12.341  14.327
98641SOL    HW297821   9.036  12.407  14.373
98642SOL     OW97822   6.874   7.780   1.907
98642SOL    HW197823   6.789   7.824   1.901
98642SOL    HW297824   6.919   7.803   1.826
98643SOL     OW97825   8.035   3.681   4.286
98643SOL    HW197826   8.068   3.769   4.307
98643SOL    HW297827   8.052   3.671   4.193
98644SOL     OW97828   6.998   1.486   6.856
98644SOL    HW197829   7.042   1.567   6.830
98644SOL    HW297830   6.942   1.512   6.929
98645SOL     OW97831  10.495  13.449  11.175
98645SOL    HW197832  10.412  13.426  11.216
98645SOL    HW297833  10.540  13.503  11.240
98646SOL     OW97834   8.959  12.380   9.332
98646SOL    HW197835   9.024  12.330   9.381
98646SOL    HW297836   8.875  12.339   9.353
98647SOL     OW97837  14.563   8.057  14.077
98647SOL    HW197838  14.618   8.080  14.002
98647SOL    HW297839  14.498   8.127  14.082
98648SOL     OW97840  10.637  11.361   1.760
98648SOL    HW197841  10.666  11.429   1.698
98648SOL    HW297842  10.689  11.377   1.838
98649SOL     OW97843   3.905   9.383  10.904
98649SOL    HW197844   3.977   9.332  10.867
98649SOL    HW297845   3.828   9.329  10.891
98650SOL     OW97846   9.523   0.294  14.440
98650SOL    HW197847   9.542   0.301  14.534
98650SOL    HW297848   9.508   0.384  14.411
98651SOL     OW97849   6.142  11.824  14.087
98651SOL    HW197850   6.156  11.873  14.168
98651SOL    HW297851   6.223  11.775  14.074
98652SOL     OW97852   3.193   0.131   2.484
98652SOL    HW197853   3.172   0.038   2.482
98652SOL    HW297854   3.213   0.154   2.394
98653SOL     OW97855   6.760   5.751  11.898
98653SOL    HW197856   6.682   5.783  11.942
98653SOL    HW297857   6.734   5.741  11.807
98654SOL     OW97858  12.509  10.305   4.509
98654SOL    HW197859  12.549  10.341   4.430
98654SOL    HW297860  12.552  10.220   4.521
98655SOL     OW97861  14.580  11.995   8.475
98655SOL    HW197862  14.573  12.004   8.380
98655SOL    HW297863  14.567  11.902   8.491
98656SOL     OW97864   1.904   9.561   5.913
98656SOL    HW197865   1.971   9.497   5.888
98656SOL    HW297866   1.917   9.572   6.008
98657SOL     OW97867   8.512   9.808   1.363
98657SOL    HW197868   8.499   9.719   1.394
98657SOL    HW297869   8.596   9.807   1.319
98658SOL     OW97870  13.772   0.470   3.397
98658SOL    HW197871  13.711   0.398   3.414
98658SOL    HW297872  13.800   0.458   3.307
98659SOL     OW97873   8.575  10.386   1.974
98659SOL    HW197874   8.488  10.367   2.008
98659SOL    HW297875   8.576  10.480   1.959
98660SOL     OW97876   7.705  14.424  13.656
98660SOL    HW197877   7.669  14.437  13.743
98660SOL    HW297878   7.672  14.498  13.605
98661SOL     OW97879   2.652   5.742   7.959
98661SOL    HW197880   2.635   5.653   7.928
98661SOL    HW297881   2.678   5.790   7.880
98662SOL     OW97882   3.452   5.227  10.919
98662SOL    HW197883   3.449   5.274  10.836
98662SOL    HW297884   3.390   5.273  10.975
98663SOL     OW97885   0.719   6.316   0.788
98663SOL    HW197886   0.709   6.409   0.809
98663SOL    HW297887   0.708   6.311   0.693
98664SOL     OW97888   8.503   9.961  13.620
98664SOL    HW197889   8.415   9.978  13.587
98664SOL    HW297890   8.492   9.958  13.715
98665SOL     OW97891  13.951  13.342  13.528
98665SOL    HW197892  13.973  13.419  13.476
98665SOL    HW297893  14.026  13.329  13.586
98666SOL     OW97894  11.661  13.175   4.077
98666SOL    HW197895  11.642  13.214   4.162
98666SOL    HW297896  11.728  13.232   4.039
98667SOL     OW97897   8.449   5.994   3.269
98667SOL    HW197898   8.485   6.082   3.282
98667SOL    HW297899   8.467   5.949   3.351
98668SOL     OW97900   1.574   9.207   0.906
98668SOL    HW197901   1.562   9.269   0.834
98668SOL    HW297902   1.516   9.135   0.886
98669SOL     OW97903  13.521   2.082   0.479
98669SOL    HW197904  13.447   2.115   0.530
98669SOL    HW297905  13.486   2.070   0.391
98670SOL     OW97906  10.462  13.185   2.251
98670SOL    HW197907  10.368  13.184   2.233
98670SOL    HW297908  10.468  13.183   2.346
98671SOL     OW97909  11.306   4.260   7.285
98671SOL    HW197910  11.224   4.310   7.289
98671SOL    HW297911  11.316   4.222   7.372
98672SOL     OW97912   4.598   2.228  12.441
98672SOL    HW197913   4.508   2.213  12.470
98672SOL    HW297914   4.597   2.315  12.401
98673SOL     OW97915   5.374   8.625  12.033
98673SOL    HW197916   5.431   8.615  11.957
98673SOL    HW297917   5.382   8.542  12.080
98674SOL     OW97918   5.138  10.169   5.647
98674SOL    HW197919   5.156  10.182   5.554
98674SOL    HW297920   5.112  10.076   5.653
98675SOL     OW97921   8.432  11.944   2.467
98675SOL    HW197922   8.505  11.924   2.525
98675SOL    HW297923   8.426  12.040   2.468
98676SOL     OW97924   6.532  14.049   5.482
98676SOL    HW197925   6.557  13.965   5.521
98676SOL    HW297926   6.614  14.086   5.449
98677SOL     OW97927   1.180  12.411   5.416
98677SOL    HW197928   1.234  12.359   5.357
98677SOL    HW297929   1.090  12.381   5.400
98678SOL     OW97930  13.198  11.704   6.747
98678SOL    HW197931  13.202  11.798   6.765
98678SOL    HW297932  13.114  11.676   6.781
98679SOL     OW97933   0.343  10.038  10.448
98679SOL    HW197934   0.395  10.109  10.487
98679SOL    HW297935   0.355   9.964  10.508
98680SOL     OW97936  13.922   9.199   9.397
98680SOL    HW197937  13.954   9.275   9.446
98680SOL    HW297938  13.901   9.134   9.464
98681SOL     OW97939   0.449   8.620   1.365
98681SOL    HW197940   0.459   8.626   1.270
98681SOL    HW297941   0.538   8.624   1.399
98682SOL     OW97942   5.449   3.706   7.607
98682SOL    HW197943   5.469   3.714   7.513
98682SOL    HW297944   5.354   3.707   7.611
98683SOL     OW97945  10.419   6.602   8.286
98683SOL    HW197946  10.505   6.597   8.328
98683SOL    HW297947  10.431   6.560   8.201
98684SOL     OW97948   1.766   5.930   9.485
98684SOL    HW197949   1.819   5.911   9.563
98684SOL    HW297950   1.760   6.026   9.483
98685SOL     OW97951   8.748   6.787  13.214
98685SOL    HW197952   8.726   6.813  13.303
98685SOL    HW297953   8.827   6.734  13.223
98686SOL     OW97954  14.830  14.853  13.032
98686SOL    HW197955  14.842   0.033  12.953
98686SOL    HW297956  14.736  14.844  13.041
98687SOL     OW97957  12.032  12.896   0.331
98687SOL    HW197958  12.012  12.987   0.308
98687SOL    HW297959  11.977  12.845   0.273
98688SOL     OW97960  12.796   3.088   8.901
98688SOL    HW197961  12.852   3.103   8.977
98688SOL    HW297962  12.846   3.029   8.845
98689SOL     OW97963  14.622  14.238   9.245
98689SOL    HW197964  14.614  14.143   9.233
98689SOL    HW297965  14.545  14.262   9.296
98690SOL     OW97966  10.501   0.823   9.960
98690SOL    HW197967  10.494   0.783   9.873
98690SOL    HW297968  10.496   0.917   9.944
98691SOL     OW97969  11.480   2.761   1.328
98691SOL    HW197970  11.567   2.795   1.349
98691SOL    HW297971  11.494   2.704   1.252
98692SOL     OW97972   6.241  11.484   9.987
98692SOL    HW197973   6.171  11.547  10.003
98692SOL    HW297974   6.200  11.415   9.935
98693SOL     OW97975  12.348   2.092  11.256
98693SOL    HW197976  12.292   2.169  11.251
98693SOL    HW297977  12.297   2.029  11.306
98694SOL     OW97978   0.653   9.953  11.812
98694SOL    HW197979   0.619   9.958  11.901
98694SOL    HW297980   0.746   9.974  11.821
98695SOL     OW97981  13.692  12.005  12.724
98695SOL    HW197982  13.690  12.047  12.638
98695SOL    HW297983  13.646  12.065  12.782
98696SOL     OW97984   7.540  14.827  13.193
98696SOL    HW197985   7.471  14.849  13.130
98696SOL    HW297986   7.552   0.034  13.245
98697SOL     OW97987   9.508   5.118   7.660
98697SOL    HW197988   9.453   5.174   7.715
98697SOL    HW297989   9.580   5.175   7.632
98698SOL     OW97990   6.877   3.878   6.105
98698SOL    HW197991   6.860   3.788   6.133
98698SOL    HW297992   6.937   3.869   6.031
98699SOL     OW97993   1.746   3.434  12.288
98699SOL    HW197994   1.821   3.492  12.274
98699SOL    HW297995   1.784   3.356  12.329
98700SOL     OW97996   4.615  14.494   2.450
98700SOL    HW197997   4.541  14.490   2.511
98700SOL    HW297998   4.587  14.441   2.375
98701SOL     OW97999   9.835   3.773   6.985
98701SOL    HW198000   9.843   3.865   7.010
98701SOL    HW298001   9.875   3.767   6.899
98702SOL     OW98002  12.675   9.944   2.208
98702SOL    HW198003  12.581   9.952   2.220
98702SOL    HW298004  12.689   9.853   2.184
98703SOL     OW98005   1.059   3.271  12.332
98703SOL    HW198006   1.065   3.339  12.264
98703SOL    HW298007   1.101   3.310  12.409
98704SOL     OW98008  11.809   4.613  11.089
98704SOL    HW198009  11.856   4.685  11.046
98704SOL    HW298010  11.725   4.651  11.114
98705SOL     OW98011   1.066   6.910   7.422
98705SOL    HW198012   1.001   6.844   7.395
98705SOL    HW298013   1.109   6.872   7.498
98706SOL     OW98014   8.122  12.487   5.715
98706SOL    HW198015   8.084  12.402   5.695
98706SOL    HW298016   8.214  12.469   5.735
98707SOL     OW98017  14.106  12.751  10.852
98707SOL    HW198018  14.095  12.703  10.934
98707SOL    HW298019  14.107  12.683  10.784
98708SOL     OW98020   7.560   5.757   6.911
98708SOL    HW198021   7.490   5.718   6.858
98708SOL    HW298022   7.519   5.833   6.952
98709SOL     OW98023  11.796   0.256   0.099
98709SOL    HW198024  11.829   0.346   0.097
98709SOL    HW298025  11.796   0.228   0.008
98710SOL     OW98026  10.805   5.151   1.371
98710SOL    HW198027  10.890   5.109   1.363
98710SOL    HW298028  10.744   5.091   1.328
98711SOL     OW98029  10.594   8.741  13.892
98711SOL    HW198030  10.587   8.707  13.803
98711SOL    HW298031  10.673   8.795  13.891
98712SOL     OW98032   3.269   8.120   2.662
98712SOL    HW198033   3.302   8.095   2.576
98712SOL    HW298034   3.327   8.074   2.723
98713SOL     OW98035   2.963   6.569  11.521
98713SOL    HW198036   2.904   6.584  11.595
98713SOL    HW298037   3.001   6.655  11.502
98714SOL     OW98038   3.171   8.789   6.144
98714SOL    HW198039   3.124   8.706   6.149
98714SOL    HW298040   3.175   8.820   6.235
98715SOL     OW98041  13.823   2.387  10.555
98715SOL    HW198042  13.769   2.354  10.627
98715SOL    HW298043  13.869   2.310  10.522
98716SOL     OW98044   2.318   8.880   4.029
98716SOL    HW198045   2.387   8.850   4.089
98716SOL    HW298046   2.346   8.967   4.001
98717SOL     OW98047  14.160  13.739  12.582
98717SOL    HW198048  14.128  13.684  12.511
98717SOL    HW298049  14.117  13.824  12.568
98718SOL     OW98050   7.913   4.789  14.603
98718SOL    HW198051   8.004   4.770  14.582
98718SOL    HW298052   7.882   4.711  14.649
98719SOL     OW98053   6.984   0.813   4.775
98719SOL    HW198054   6.976   0.805   4.680
98719SOL    HW298055   7.072   0.848   4.789
98720SOL     OW98056   9.995   7.236   7.411
98720SOL    HW198057   9.998   7.249   7.316
98720SOL    HW298058   9.935   7.304   7.442
98721SOL     OW98059   7.297   1.946   9.276
98721SOL    HW198060   7.312   1.912   9.188
98721SOL    HW298061   7.282   2.040   9.263
98722SOL     OW98062  11.936   6.277  14.006
98722SOL    HW198063  11.848   6.286  13.967
98722SOL    HW298064  11.979   6.210  13.953
98723SOL     OW98065   0.499  10.056   7.975
98723SOL    HW198066   0.412  10.090   7.954
98723SOL    HW298067   0.540  10.042   7.890
98724SOL     OW98068   6.851   2.513   5.781
98724SOL    HW198069   6.903   2.517   5.701
98724SOL    HW298070   6.799   2.593   5.781
98725SOL     OW98071   1.442   0.051   7.948
98725SOL    HW198072   1.458  14.858   7.880
98725SOL    HW298073   1.529   0.082   7.972
98726SOL     OW98074   3.456   4.201   1.909
98726SOL    HW198075   3.388   4.265   1.930
98726SOL    HW298076   3.454   4.195   1.814
98727SOL     OW98077   1.618   3.593   4.766
98727SOL    HW198078   1.560   3.592   4.842
98727SOL    HW298079   1.691   3.536   4.790
98728SOL     OW98080   4.079   6.998   3.099
98728SOL    HW198081   4.169   7.031   3.097
98728SOL    HW298082   4.089   6.903   3.101
98729SOL     OW98083   5.165   8.774  13.907
98729SOL    HW198084   5.134   8.685  13.890
98729SOL    HW298085   5.086   8.829  13.904
98730SOL     OW98086  14.324   2.373   9.382
98730SOL    HW198087  14.316   2.457   9.427
98730SOL    HW298088  14.284   2.309   9.441
98731SOL     OW98089   8.498   5.566   6.239
98731SOL    HW198090   8.414   5.571   6.194
98731SOL    HW298091   8.493   5.633   6.308
98732SOL     OW98092  12.020   1.646  10.446
98732SOL    HW198093  12.030   1.695  10.528
98732SOL    HW298094  11.962   1.573  10.469
98733SOL     OW98095   9.755   9.736   4.960
98733SOL    HW198096   9.693   9.671   4.992
98733SOL    HW298097   9.807   9.689   4.894
98734SOL     OW98098   4.932   9.924   4.432
98734SOL    HW198099   4.842   9.917   4.401
98734SOL    HW298100   4.963  10.007   4.396
98735SOL     OW98101   0.518  12.099   6.323
98735SOL    HW198102   0.422  12.098   6.323
98735SOL    HW298103   0.543  12.021   6.274
98736SOL     OW98104   6.863   7.831   5.372
98736SOL    HW198105   6.842   7.803   5.461
98736SOL    HW298106   6.862   7.927   5.377
98737SOL     OW98107   1.659   8.839  10.739
98737SOL    HW198108   1.596   8.788  10.688
98737SOL    HW298109   1.607   8.907  10.782
98738SOL     OW98110  13.139   2.022   9.488
98738SOL    HW198111  13.053   1.987   9.466
98738SOL    HW298112  13.142   2.020   9.583
98739SOL     OW98113  10.866   6.741   2.983
98739SOL    HW198114  10.788   6.735   3.039
98739SOL    HW298115  10.831   6.743   2.894
98740SOL     OW98116  14.236  14.708   2.728
98740SOL    HW198117  14.287  14.734   2.651
98740SOL    HW298118  14.222  14.614   2.717
98741SOL     OW98119  11.539  12.552  10.796
98741SOL    HW198120  11.491  12.485  10.844
98741SOL    HW298121  11.489  12.566  10.716
98742SOL     OW98122   2.129   6.065   5.186
98742SOL    HW198123   2.189   6.110   5.126
98742SOL    HW298124   2.043   6.098   5.164
98743SOL     OW98125  12.433  13.080   8.550
98743SOL    HW198126  12.482  13.105   8.628
98743SOL    HW298127  12.348  13.125   8.561
98744SOL     OW98128   3.143   5.900   6.907
98744SOL    HW198129   3.088   5.952   6.965
98744SOL    HW298130   3.233   5.923   6.931
98745SOL     OW98131   8.791   6.813  11.596
98745SOL    HW198132   8.711   6.788  11.551
98745SOL    HW298133   8.855   6.747  11.569
98746SOL     OW98134   2.267   5.873   8.218
98746SOL    HW198135   2.314   5.895   8.299
98746SOL    HW298136   2.193   5.933   8.216
98747SOL     OW98137   4.942   3.106   0.208
98747SOL    HW198138   4.994   3.092   0.287
98747SOL    HW298139   4.991   3.062   0.138
98748SOL     OW98140  11.884  13.573  10.238
98748SOL    HW198141  11.794  13.541  10.240
98748SOL    HW298142  11.912  13.560  10.147
98749SOL     OW98143   0.622   6.022   2.725
98749SOL    HW198144   0.574   6.101   2.702
98749SOL    HW298145   0.555   5.955   2.736
98750SOL     OW98146   8.671  12.611  10.731
98750SOL    HW198147   8.580  12.609  10.757
98750SOL    HW298148   8.711  12.679  10.785
98751SOL     OW98149   2.919   6.615   2.488
98751SOL    HW198150   2.943   6.526   2.460
98751SOL    HW298151   2.824   6.616   2.488
98752SOL     OW98152  10.404  13.063   4.600
98752SOL    HW198153  10.413  13.152   4.634
98752SOL    HW298154  10.482  13.050   4.546
98753SOL     OW98155  14.221  10.403   3.332
98753SOL    HW198156  14.136  10.362   3.319
98753SOL    HW298157  14.231  10.463   3.258
98754SOL     OW98158   6.693   3.791  10.562
98754SOL    HW198159   6.642   3.872  10.560
98754SOL    HW298160   6.712   3.776  10.654
98755SOL     OW98161  12.389   8.085   7.436
98755SOL    HW198162  12.330   8.139   7.489
98755SOL    HW298163  12.372   8.112   7.346
98756SOL     OW98164   2.048   4.105   1.216
98756SOL    HW198165   2.074   4.195   1.236
98756SOL    HW298166   2.067   4.056   1.295
98757SOL     OW98167  10.695  14.544  10.954
98757SOL    HW198168  10.640  14.536  11.032
98757SOL    HW298169  10.661  14.621  10.909
98758SOL     OW98170  10.969   9.410   7.874
98758SOL    HW198171  11.062   9.419   7.896
98758SOL    HW298172  10.957   9.316   7.859
98759SOL     OW98173   3.253   7.155   2.252
98759SOL    HW198174   3.330   7.197   2.290
98759SOL    HW298175   3.278   7.135   2.162
98760SOL     OW98176  14.245   9.670   9.567
98760SOL    HW198177  14.314   9.719   9.610
98760SOL    HW298178  14.240   9.587   9.615
98761SOL     OW98179   8.299  11.575   3.435
98761SOL    HW198180   8.321  11.485   3.458
98761SOL    HW298181   8.370  11.627   3.472
98762SOL     OW98182   0.528   9.256  11.879
98762SOL    HW198183   0.499   9.312  11.807
98762SOL    HW298184   0.448   9.230  11.924
98763SOL     OW98185   0.809   7.212   7.224
98763SOL    HW198186   0.869   7.160   7.170
98763SOL    HW298187   0.809   7.298   7.183
98764SOL     OW98188  11.126   6.390   7.758
98764SOL    HW198189  11.103   6.374   7.667
98764SOL    HW298190  11.060   6.341   7.808
98765SOL     OW98191  13.734   0.654  14.698
98765SOL    HW198192  13.714   0.687  14.610
98765SOL    HW298193  13.797   0.716  14.733
98766SOL     OW98194  11.771   6.479   5.132
98766SOL    HW198195  11.844   6.527   5.171
98766SOL    HW298196  11.740   6.422   5.202
98767SOL     OW98197  12.503   1.488   1.732
98767SOL    HW198198  12.456   1.493   1.649
98767SOL    HW298199  12.448   1.432   1.787
98768SOL     OW98200   9.404  13.795   2.952
98768SOL    HW198201   9.398  13.777   2.858
98768SOL    HW298202   9.316  13.824   2.976
98769SOL     OW98203   9.286   2.056   7.264
98769SOL    HW198204   9.250   2.110   7.334
98769SOL    HW298205   9.377   2.087   7.255
98770SOL     OW98206   7.445  12.863   3.868
98770SOL    HW198207   7.437  12.783   3.816
98770SOL    HW298208   7.390  12.927   3.822
98771SOL     OW98209   8.390   9.883  11.931
98771SOL    HW198210   8.308   9.923  11.902
98771SOL    HW298211   8.389   9.894  12.026
98772SOL     OW98212  14.511  13.658  14.557
98772SOL    HW198213  14.551  13.575  14.535
98772SOL    HW298214  14.430  13.634  14.604
98773SOL     OW98215  10.862   0.037   3.260
98773SOL    HW198216  10.796  14.841   3.277
98773SOL    HW298217  10.869   0.041   3.165
98774SOL     OW98218   9.445  11.604   8.096
98774SOL    HW198219   9.407  11.529   8.142
98774SOL    HW298220   9.396  11.609   8.014
98775SOL     OW98221  12.260   1.565  12.386
98775SOL    HW198222  12.314   1.521  12.321
98775SOL    HW298223  12.241   1.651  12.347
98776SOL     OW98224   8.331   8.969   8.215
98776SOL    HW198225   8.253   8.989   8.266
98776SOL    HW298226   8.325   8.874   8.200
98777SOL     OW98227   7.629   5.264   8.023
98777SOL    HW198228   7.682   5.220   8.090
98777SOL    HW298229   7.549   5.289   8.068
98778SOL     OW98230   8.367   8.317   9.001
98778SOL    HW198231   8.351   8.264   9.079
98778SOL    HW298232   8.288   8.370   8.990
98779SOL     OW98233  13.722   7.693   3.104
98779SOL    HW198234  13.654   7.667   3.166
98779SOL    HW298235  13.796   7.718   3.158
98780SOL     OW98236   0.659   3.242  13.375
98780SOL    HW198237   0.719   3.210  13.309
98780SOL    HW298238   0.683   3.334  13.388
98781SOL     OW98239  10.239   7.574   7.458
98781SOL    HW198240  10.313   7.629   7.484
98781SOL    HW298241  10.181   7.575   7.534
98782SOL     OW98242   3.745  11.040   9.438
98782SOL    HW198243   3.704  11.126   9.433
98782SOL    HW298244   3.760  11.014   9.347
98783SOL     OW98245  12.930  10.223   9.232
98783SOL    HW198246  13.015  10.215   9.189
98783SOL    HW298247  12.869  10.239   9.160
98784SOL     OW98248   0.695   9.636   6.931
98784SOL    HW198249   0.739   9.716   6.901
98784SOL    HW298250   0.763   9.587   6.976
98785SOL     OW98251  13.086   2.005   3.030
98785SOL    HW198252  13.109   1.983   2.939
98785SOL    HW298253  12.992   2.024   3.027
98786SOL     OW98254   2.268  12.462   1.057
98786SOL    HW198255   2.354  12.424   1.040
98786SOL    HW298256   2.274  12.498   1.146
98787SOL     OW98257   7.124   2.493  14.183
98787SOL    HW198258   7.160   2.411  14.217
98787SOL    HW298259   7.178   2.512  14.106
98788SOL     OW98260   3.315   9.104   2.642
98788SOL    HW198261   3.305   9.199   2.632
98788SOL    HW298262   3.233   9.075   2.682
98789SOL     OW98263   2.720   8.270   5.633
98789SOL    HW198264   2.715   8.174   5.631
98789SOL    HW298265   2.650   8.299   5.576
98790SOL     OW98266   6.008   9.289  13.130
98790SOL    HW198267   5.968   9.243  13.204
98790SOL    HW298268   5.937   9.300  13.067
98791SOL     OW98269  12.284   2.854  11.692
98791SOL    HW198270  12.256   2.824  11.778
98791SOL    HW298271  12.203   2.853  11.640
98792SOL     OW98272   7.181  11.066  13.601
98792SOL    HW198273   7.229  11.004  13.546
98792SOL    HW298274   7.191  11.033  13.690
98793SOL     OW98275   7.448  12.589  10.296
98793SOL    HW198276   7.505  12.556  10.365
98793SOL    HW298277   7.499  12.579  10.216
98794SOL     OW98278   2.785  12.203   5.679
98794SOL    HW198279   2.710  12.249   5.640
98794SOL    HW298280   2.856  12.267   5.676
98795SOL     OW98281   1.458   7.436   4.370
98795SOL    HW198282   1.530   7.420   4.430
98795SOL    HW298283   1.379   7.424   4.423
98796SOL     OW98284   0.670   3.044  13.573
98796SOL    HW198285   0.666   3.109  13.644
98796SOL    HW298286   0.655   3.094  13.493
98797SOL     OW98287  13.099   1.447   3.964
98797SOL    HW198288  13.006   1.443   3.940
98797SOL    HW298289  13.123   1.538   3.949
98798SOL     OW98290   7.794   1.266  11.075
98798SOL    HW198291   7.820   1.309  10.993
98798SOL    HW298292   7.703   1.293  11.087
98799SOL     OW98293   2.234  13.443   5.574
98799SOL    HW198294   2.234  13.427   5.480
98799SOL    HW298295   2.317  13.405   5.605
98800SOL     OW98296   5.798   6.330  11.755
98800SOL    HW198297   5.717   6.290  11.788
98800SOL    HW298298   5.797   6.310  11.661
98801SOL     OW98299   0.086   9.511   1.142
98801SOL    HW198300   0.118   9.594   1.179
98801SOL    HW298301   0.152   9.488   1.076
98802SOL     OW98302   3.232  12.152   3.551
98802SOL    HW198303   3.325  12.136   3.534
98802SOL    HW298304   3.204  12.211   3.481
98803SOL     OW98305   6.678   9.833  13.145
98803SOL    HW198306   6.692   9.918  13.104
98803SOL    HW298307   6.584   9.816  13.137
98804SOL     OW98308   1.488   2.993   9.748
98804SOL    HW198309   1.556   2.937   9.710
98804SOL    HW298310   1.533   3.075   9.770
98805SOL     OW98311   1.579   5.207  11.020
98805SOL    HW198312   1.530   5.126  11.014
98805SOL    HW298313   1.670   5.182  11.006
98806SOL     OW98314   1.838  10.212   2.195
98806SOL    HW198315   1.849  10.118   2.202
98806SOL    HW298316   1.773  10.234   2.261
98807SOL     OW98317   7.423   8.626  13.481
98807SOL    HW198318   7.359   8.605  13.413
98807SOL    HW298319   7.496   8.666  13.433
98808SOL     OW98320  10.008  13.295   8.260
98808SOL    HW198321  10.044  13.370   8.213
98808SOL    HW298322   9.927  13.328   8.298
98809SOL     OW98323  12.479  14.708   9.445
98809SOL    HW198324  12.544  14.734   9.510
98809SOL    HW298325  12.453  14.619   9.470
98810SOL     OW98326  11.916  12.345  11.693
98810SOL    HW198327  11.868  12.369  11.772
98810SOL    HW298328  12.004  12.381  11.706
98811SOL     OW98329   6.751   0.811   4.190
98811SOL    HW198330   6.770   0.719   4.173
98811SOL    HW298331   6.786   0.858   4.115
98812SOL     OW98332  11.266   7.693  12.982
98812SOL    HW198333  11.249   7.647  13.065
98812SOL    HW298334  11.295   7.624  12.922
98813SOL     OW98335   5.188   8.528  10.830
98813SOL    HW198336   5.276   8.515  10.865
98813SOL    HW298337   5.160   8.612  10.866
98814SOL     OW98338   9.926   2.207   9.792
98814SOL    HW198339   9.913   2.261   9.870
98814SOL    HW298340  10.021   2.198   9.784
98815SOL     OW98341   1.886   4.972   9.019
98815SOL    HW198342   1.904   4.879   9.031
98815SOL    HW298343   1.819   4.974   8.950
98816SOL     OW98344   0.747  12.530  14.541
98816SOL    HW198345   0.726  12.523  14.448
98816SOL    HW298346   0.690  12.466  14.583
98817SOL     OW98347  11.497  13.560   9.164
98817SOL    HW198348  11.435  13.493   9.138
98817SOL    HW298349  11.583  13.520   9.153
98818SOL     OW98350   8.606  14.863   9.327
98818SOL    HW198351   8.561  14.779   9.317
98818SOL    HW298352   8.552   0.053   9.279
98819SOL     OW98353   2.076   2.160   1.402
98819SOL    HW198354   2.108   2.092   1.461
98819SOL    HW298355   2.132   2.154   1.325
98820SOL     OW98356   8.442   5.998  13.577
98820SOL    HW198357   8.445   6.002  13.481
98820SOL    HW298358   8.504   5.928  13.600
98821SOL     OW98359  12.999  13.437   5.631
98821SOL    HW198360  13.042  13.401   5.554
98821SOL    HW298361  12.978  13.528   5.608
98822SOL     OW98362   6.849  14.388  11.452
98822SOL    HW198363   6.757  14.363  11.463
98822SOL    HW298364   6.899  14.314  11.487
98823SOL     OW98365  13.935   9.384  10.331
98823SOL    HW198366  13.857   9.438  10.316
98823SOL    HW298367  13.970   9.416  10.414
98824SOL     OW98368   3.098   2.846   9.541
98824SOL    HW198369   3.154   2.891   9.604
98824SOL    HW298370   3.137   2.865   9.456
98825SOL     OW98371  11.647  14.404   3.618
98825SOL    HW198372  11.738  14.396   3.588
98825SOL    HW298373  11.634  14.497   3.631
98826SOL     OW98374   2.912   8.680   3.347
98826SOL    HW198375   3.007   8.686   3.350
98826SOL    HW298376   2.881   8.759   3.390
98827SOL     OW98377   2.424  11.665   2.392
98827SOL    HW198378   2.366  11.684   2.466
98827SOL    HW298379   2.388  11.585   2.353
98828SOL     OW98380   3.630  14.008   6.389
98828SOL    HW198381   3.692  14.063   6.438
98828SOL    HW298382   3.552  14.062   6.380
98829SOL     OW98383   7.916   3.422   9.276
98829SOL    HW198384   7.859   3.484   9.231
98829SOL    HW298385   7.921   3.347   9.218
98830SOL     OW98386   4.476  10.567   3.451
98830SOL    HW198387   4.440  10.588   3.538
98830SOL    HW298388   4.422  10.618   3.390
98831SOL     OW98389   5.003   3.856  10.268
98831SOL    HW198390   4.988   3.787  10.334
98831SOL    HW298391   4.926   3.852  10.211
98832SOL     OW98392   0.687   9.944   9.743
98832SOL    HW198393   0.695   9.997   9.821
98832SOL    HW298394   0.757   9.974   9.685
98833SOL     OW98395   3.106   8.053   7.805
98833SOL    HW198396   3.144   8.139   7.821
98833SOL    HW298397   3.143   8.024   7.722
98834SOL     OW98398   7.979   8.255  10.178
98834SOL    HW198399   7.901   8.286  10.224
98834SOL    HW298400   8.037   8.330  10.176
98835SOL     OW98401   5.738  12.890   5.091
98835SOL    HW198402   5.774  12.858   5.174
98835SOL    HW298403   5.809  12.940   5.052
98836SOL     OW98404   2.616   7.704   4.792
98836SOL    HW198405   2.702   7.732   4.762
98836SOL    HW298406   2.557   7.775   4.768
98837SOL     OW98407   2.313  12.637   8.268
98837SOL    HW198408   2.305  12.693   8.190
98837SOL    HW298409   2.226  12.641   8.308
98838SOL     OW98410  11.534  11.060  12.949
98838SOL    HW198411  11.460  11.111  12.980
98838SOL    HW298412  11.496  10.979  12.915
98839SOL     OW98413  14.174  13.585   3.305
98839SOL    HW198414  14.095  13.540   3.336
98839SOL    HW298415  14.170  13.577   3.210
98840SOL     OW98416   5.449   4.436   1.425
98840SOL    HW198417   5.486   4.375   1.489
98840SOL    HW298418   5.475   4.523   1.456
98841SOL     OW98419   7.026  12.782  14.641
98841SOL    HW198420   6.932  12.769  14.626
98841SOL    HW298421   7.040  12.876  14.626
98842SOL     OW98422   2.673   1.364   9.004
98842SOL    HW198423   2.599   1.423   8.987
98842SOL    HW298424   2.638   1.277   8.985
98843SOL     OW98425  10.859   5.394  14.474
98843SOL    HW198426  10.769   5.410  14.445
98843SOL    HW298427  10.866   5.440  14.557
98844SOL     OW98428  14.536   5.480  14.589
98844SOL    HW198429  14.592   5.551  14.558
98844SOL    HW298430  14.488   5.518  14.663
98845SOL     OW98431   7.805   5.044   7.778
98845SOL    HW198432   7.725   5.097   7.772
98845SOL    HW298433   7.776   4.960   7.813
98846SOL     OW98434   2.191  10.810   2.511
98846SOL    HW198435   2.225  10.756   2.582
98846SOL    HW298436   2.101  10.831   2.537
98847SOL     OW98437   7.669   0.896  10.365
98847SOL    HW198438   7.670   0.957  10.439
98847SOL    HW298439   7.686   0.950  10.288
98848SOL     OW98440   8.813   8.330  13.481
98848SOL    HW198441   8.848   8.409  13.440
98848SOL    HW298442   8.736   8.307  13.428
98849SOL     OW98443  10.087   9.353   3.211
98849SOL    HW198444  10.119   9.437   3.244
98849SOL    HW298445  10.019   9.327   3.274
98850SOL     OW98446   2.014  11.666   2.591
98850SOL    HW198447   2.037  11.580   2.556
98850SOL    HW298448   1.920  11.661   2.606
98851SOL     OW98449   8.001  13.829  11.862
98851SOL    HW198450   7.955  13.762  11.812
98851SOL    HW298451   7.978  13.911  11.818
98852SOL     OW98452   5.833  14.290  12.855
98852SOL    HW198453   5.817  14.353  12.785
98852SOL    HW298454   5.915  14.247  12.830
98853SOL     OW98455   5.166   7.080   1.737
98853SOL    HW198456   5.225   7.153   1.718
98853SOL    HW298457   5.118   7.108   1.815
98854SOL     OW98458  12.778   0.188  13.779
98854SOL    HW198459  12.747   0.276  13.754
98854SOL    HW298460  12.810   0.198  13.868
98855SOL     OW98461   6.657  14.405   6.029
98855SOL    HW198462   6.671  14.341   5.958
98855SOL    HW298463   6.569  14.439   6.013
98856SOL     OW98464  14.503   4.119   2.014
98856SOL    HW198465  14.421   4.091   2.054
98856SOL    HW298466  14.486   4.116   1.920
98857SOL     OW98467  12.671   0.255   9.403
98857SOL    HW198468  12.632   0.186   9.350
98857SOL    HW298469  12.673   0.218   9.492
98858SOL     OW98470   6.419   0.585   7.201
98858SOL    HW198471   6.403   0.541   7.118
98858SOL    HW298472   6.337   0.577   7.249
98859SOL     OW98473  11.942  11.793  13.367
98859SOL    HW198474  11.979  11.721  13.419
98859SOL    HW298475  11.857  11.810  13.406
98860SOL     OW98476   7.910   3.102   7.640
98860SOL    HW198477   7.923   3.008   7.646
98860SOL    HW298478   7.957   3.128   7.560
98861SOL     OW98479  14.834   2.668   1.554
98861SOL    HW198480   0.032   2.610   1.525
98861SOL    HW298481  14.818   2.725   1.479
98862SOL     OW98482   7.228   2.926   7.464
98862SOL    HW198483   7.138   2.954   7.447
98862SOL    HW298484   7.282   2.999   7.435
98863SOL     OW98485  13.748   1.740   1.456
98863SOL    HW198486  13.834   1.777   1.470
98863SOL    HW298487  13.687   1.802   1.497
98864SOL     OW98488   4.957   8.665  10.643
98864SOL    HW198489   5.020   8.687  10.712
98864SOL    HW298490   4.884   8.623  10.689
98865SOL     OW98491  12.125   3.632   8.207
98865SOL    HW198492  12.092   3.625   8.297
98865SOL    HW298493  12.060   3.687   8.162
98866SOL     OW98494   3.068   9.809   1.881
98866SOL    HW198495   3.099   9.724   1.909
98866SOL    HW298496   2.981   9.817   1.921
98867SOL     OW98497   1.804   8.926  10.041
98867SOL    HW198498   1.872   8.903  10.104
98867SOL    HW298499   1.724   8.933  10.094
98868SOL     OW98500  11.552   1.411   8.514
98868SOL    HW198501  11.515   1.420   8.426
98868SOL    HW298502  11.635   1.365   8.502
98869SOL     OW98503   6.173  10.965   1.187
98869SOL    HW198504   6.145  11.019   1.261
98869SOL    HW298505   6.154  11.019   1.110
98870SOL     OW98506   1.228  10.328  11.649
98870SOL    HW198507   1.232  10.423  11.642
98870SOL    HW298508   1.296  10.296  11.589
98871SOL     OW98509   4.321   9.173   9.991
98871SOL    HW198510   4.406   9.134  10.010
98871SOL    HW298511   4.262   9.135  10.057
98872SOL     OW98512   4.619   9.015  12.534
98872SOL    HW198513   4.531   8.982  12.516
98872SOL    HW298514   4.635   8.993  12.626
98873SOL     OW98515   3.017   1.905   7.332
98873SOL    HW198516   2.950   1.846   7.365
98873SOL    HW298517   2.982   1.993   7.349
98874SOL     OW98518   9.775   2.309   5.661
98874SOL    HW198519   9.723   2.344   5.588
98874SOL    HW298520   9.864   2.338   5.642
98875SOL     OW98521   4.633   5.603   7.077
98875SOL    HW198522   4.643   5.641   7.164
98875SOL    HW298523   4.628   5.678   7.018
98876SOL     OW98524   9.212  10.660   0.059
98876SOL    HW198525   9.242  10.650  14.841
98876SOL    HW298526   9.223  10.754   0.077
98877SOL     OW98527   7.039   0.961  11.282
98877SOL    HW198528   7.059   0.880  11.329
98877SOL    HW298529   7.083   1.030  11.331
98878SOL     OW98530   6.964   9.973   6.253
98878SOL    HW198531   7.014   9.914   6.309
98878SOL    HW298532   6.874   9.941   6.258
98879SOL     OW98533   7.784   2.637   8.395
98879SOL    HW198534   7.696   2.612   8.425
98879SOL    HW298535   7.768   2.691   8.318
98880SOL     OW98536   7.115   8.969  12.875
98880SOL    HW198537   7.058   9.045  12.863
98880SOL    HW298538   7.186   8.981  12.812
98881SOL     OW98539   3.073   3.737   6.651
98881SOL    HW198540   3.164   3.769   6.647
98881SOL    HW298541   3.020   3.815   6.633
98882SOL     OW98542  14.467  14.541   8.201
98882SOL    HW198543  14.448  14.528   8.294
98882SOL    HW298544  14.523  14.467   8.178
98883SOL     OW98545   1.828   3.866   7.295
98883SOL    HW198546   1.763   3.799   7.315
98883SOL    HW298547   1.823   3.877   7.200
98884SOL     OW98548   3.023   3.053   0.538
98884SOL    HW198549   3.050   3.075   0.627
98884SOL    HW298550   3.079   2.979   0.514
98885SOL     OW98551   1.081  12.088   2.523
98885SOL    HW198552   0.989  12.085   2.548
98885SOL    HW298553   1.127  12.109   2.604
98886SOL     OW98554  14.123   5.667   2.479
98886SOL    HW198555  14.076   5.733   2.428
98886SOL    HW298556  14.215   5.695   2.476
98887SOL     OW98557   4.440   4.469   3.933
98887SOL    HW198558   4.511   4.524   3.900
98887SOL    HW298559   4.372   4.473   3.865
98888SOL     OW98560  12.503   7.889  11.052
98888SOL    HW198561  12.446   7.856  10.982
98888SOL    HW298562  12.577   7.928  11.006
98889SOL     OW98563   6.426   5.718   2.456
98889SOL    HW198564   6.442   5.697   2.548
98889SOL    HW298565   6.393   5.637   2.418
98890SOL     OW98566   3.250  11.730   4.527
98890SOL    HW198567   3.313  11.789   4.567
98890SOL    HW298568   3.235  11.765   4.439
98891SOL     OW98569   6.483  13.104  13.073
98891SOL    HW198570   6.405  13.070  13.118
98891SOL    HW298571   6.459  13.193  13.047
98892SOL     OW98572  12.409   9.994   7.683
98892SOL    HW198573  12.399  10.014   7.590
98892SOL    HW298574  12.357  10.061   7.727
98893SOL     OW98575  11.314   1.892  12.545
98893SOL    HW198576  11.339   1.979  12.513
98893SOL    HW298577  11.310   1.902  12.640
98894SOL     OW98578  10.931  11.557   8.212
98894SOL    HW198579  10.998  11.502   8.255
98894SOL    HW298580  10.925  11.634   8.268
98895SOL     OW98581   7.177   8.729   2.441
98895SOL    HW198582   7.153   8.804   2.386
98895SOL    HW298583   7.195   8.659   2.379
98896SOL     OW98584   6.451   1.629  10.967
98896SOL    HW198585   6.473   1.542  10.933
98896SOL    HW298586   6.423   1.613  11.057
98897SOL     OW98587   6.217   4.266  10.154
98897SOL    HW198588   6.235   4.184  10.106
98897SOL    HW298589   6.304   4.295  10.184
98898SOL     OW98590   6.603   4.043   9.122
98898SOL    HW198591   6.581   4.021   9.031
98898SOL    HW298592   6.696   4.025   9.129
98899SOL     OW98593   1.290   4.654   4.928
98899SOL    HW198594   1.232   4.729   4.915
98899SOL    HW298595   1.337   4.673   5.009
98900SOL     OW98596  10.735   8.108   4.980
98900SOL    HW198597  10.739   8.013   4.975
98900SOL    HW298598  10.814   8.138   4.936
98901SOL     OW98599   5.974   4.809   7.476
98901SOL    HW198600   6.051   4.865   7.467
98901SOL    HW298601   5.989   4.761   7.557
98902SOL     OW98602   4.490  12.595  13.298
98902SOL    HW198603   4.500  12.663  13.232
98902SOL    HW298604   4.459  12.641  13.376
98903SOL     OW98605   8.937   8.973   6.739
98903SOL    HW198606   8.860   8.919   6.756
98903SOL    HW298607   8.929   9.047   6.799
98904SOL     OW98608   6.506   2.680  13.434
98904SOL    HW198609   6.590   2.697  13.475
98904SOL    HW298610   6.527   2.659  13.343
98905SOL     OW98611  10.186   0.514   3.437
98905SOL    HW198612  10.161   0.490   3.348
98905SOL    HW298613  10.145   0.599   3.451
98906SOL     OW98614   2.524   0.893   7.525
98906SOL    HW198615   2.564   0.864   7.442
98906SOL    HW298616   2.541   0.987   7.528
98907SOL     OW98617   5.448  13.226  14.335
98907SOL    HW198618   5.449  13.322  14.336
98907SOL    HW298619   5.392  13.204  14.260
98908SOL     OW98620   9.552   3.944   5.098
98908SOL    HW198621   9.595   3.868   5.060
98908SOL    HW298622   9.621   4.010   5.105
98909SOL     OW98623  14.134  13.132  10.072
98909SOL    HW198624  14.131  13.041  10.104
98909SOL    HW298625  14.057  13.140  10.016
98910SOL     OW98626  13.550   7.919   6.039
98910SOL    HW198627  13.489   7.939   6.109
98910SOL    HW298628  13.634   7.906   6.083
98911SOL     OW98629   7.862  10.547  13.598
98911SOL    HW198630   7.841  10.605  13.671
98911SOL    HW298631   7.809  10.469  13.613
98912SOL     OW98632   4.477  14.133   6.515
98912SOL    HW198633   4.400  14.077   6.519
98912SOL    HW298634   4.476  14.169   6.426
98913SOL     OW98635   4.333   5.357  14.747
98913SOL    HW198636   4.262   5.408  14.788
98913SOL    HW298637   4.404   5.420  14.738
98914SOL     OW98638   8.754  11.713  14.565
98914SOL    HW198639   8.687  11.650  14.540
98914SOL    HW298640   8.762  11.705  14.660
98915SOL     OW98641  10.789   1.463  13.548
98915SOL    HW198642  10.820   1.533  13.606
98915SOL    HW298643  10.714   1.425  13.594
98916SOL     OW98644   2.296  12.781   7.076
98916SOL    HW198645   2.384  12.767   7.041
98916SOL    HW298646   2.310  12.790   7.170
98917SOL     OW98647   9.434   5.040   3.906
98917SOL    HW198648   9.529   5.049   3.911
98917SOL    HW298649   9.421   4.966   3.846
98918SOL     OW98650   0.299   9.751   2.187
98918SOL    HW198651   0.329   9.758   2.096
98918SOL    HW298652   0.209   9.720   2.181
98919SOL     OW98653   3.136   2.178  10.762
98919SOL    HW198654   3.121   2.179  10.668
98919SOL    HW298655   3.207   2.240  10.776
98920SOL     OW98656   1.590  13.036   8.247
98920SOL    HW198657   1.496  13.023   8.240
98920SOL    HW298658   1.619  12.968   8.308
98921SOL     OW98659  13.896   0.723   1.581
98921SOL    HW198660  13.882   0.670   1.503
98921SOL    HW298661  13.980   0.693   1.616
98922SOL     OW98662  14.185   4.048   3.769
98922SOL    HW198663  14.124   4.073   3.838
98922SOL    HW298664  14.235   3.975   3.805
98923SOL     OW98665  14.325   5.806   7.652
98923SOL    HW198666  14.397   5.750   7.624
98923SOL    HW298667  14.311   5.866   7.578
98924SOL     OW98668   0.741   0.479   3.401
98924SOL    HW198669   0.711   0.521   3.481
98924SOL    HW298670   0.766   0.551   3.343
98925SOL     OW98671   0.487  11.394   5.218
98925SOL    HW198672   0.509  11.404   5.310
98925SOL    HW298673   0.564  11.426   5.170
98926SOL     OW98674   8.790  10.478   6.874
98926SOL    HW198675   8.824  10.551   6.822
98926SOL    HW298676   8.703  10.461   6.838
98927SOL     OW98677   6.259   4.991   3.033
98927SOL    HW198678   6.186   4.976   3.093
98927SOL    HW298679   6.257   5.085   3.016
98928SOL     OW98680   2.216  12.344  14.544
98928SOL    HW198681   2.151  12.413  14.531
98928SOL    HW298682   2.175  12.266  14.506
98929SOL     OW98683   0.731   5.272   0.865
98929SOL    HW198684   0.735   5.196   0.924
98929SOL    HW298685   0.823   5.292   0.847
98930SOL     OW98686  10.644   2.409   1.040
98930SOL    HW198687  10.598   2.420   1.122
98930SOL    HW298688  10.586   2.355   0.986
98931SOL     OW98689   9.959  12.344  11.246
98931SOL    HW198690   9.957  12.285  11.170
98931SOL    HW298691   9.896  12.306  11.307
98932SOL     OW98692  12.008   7.397   9.115
98932SOL    HW198693  12.079   7.352   9.161
98932SOL    HW298694  11.930   7.379   9.167
98933SOL     OW98695   8.961   3.723   0.705
98933SOL    HW198696   8.874   3.741   0.741
98933SOL    HW298697   8.996   3.810   0.684
98934SOL     OW98698  11.673   6.158   9.164
98934SOL    HW198699  11.601   6.095   9.161
98934SOL    HW298700  11.736   6.125   9.100
98935SOL     OW98701  10.682  14.161   7.616
98935SOL    HW198702  10.647  14.250   7.626
98935SOL    HW298703  10.628  14.108   7.675
98936SOL     OW98704  10.666   9.349   6.869
98936SOL    HW198705  10.593   9.395   6.911
98936SOL    HW298706  10.676   9.269   6.921
98937SOL     OW98707   9.587   9.735   3.796
98937SOL    HW198708   9.649   9.807   3.784
98937SOL    HW298709   9.501   9.776   3.791
98938SOL     OW98710  13.341   4.881   3.719
98938SOL    HW198711  13.351   4.804   3.663
98938SOL    HW298712  13.252   4.912   3.702
98939SOL     OW98713   8.832  11.961   5.722
98939SOL    HW198714   8.894  11.903   5.678
98939SOL    HW298715   8.745  11.926   5.701
98940SOL     OW98716   2.887   4.891   0.263
98940SOL    HW198717   2.900   4.979   0.297
98940SOL    HW298718   2.932   4.834   0.324
98941SOL     OW98719   1.533   6.961   0.335
98941SOL    HW198720   1.623   6.983   0.312
98941SOL    HW298721   1.513   7.016   0.410
98942SOL     OW98722   6.420  11.650   9.112
98942SOL    HW198723   6.416  11.558   9.084
98942SOL    HW298724   6.381  11.699   9.040
98943SOL     OW98725   7.462   6.132  12.263
98943SOL    HW198726   7.408   6.123  12.184
98943SOL    HW298727   7.431   6.063  12.322
98944SOL     OW98728   4.689  13.941   6.514
98944SOL    HW198729   4.768  13.994   6.506
98944SOL    HW298730   4.616  14.003   6.506
98945SOL     OW98731  12.165   2.839   3.372
98945SOL    HW198732  12.186   2.860   3.463
98945SOL    HW298733  12.187   2.746   3.364
98946SOL     OW98734  11.892   4.983  12.472
98946SOL    HW198735  11.841   4.963  12.551
98946SOL    HW298736  11.943   5.061  12.496
98947SOL     OW98737   8.409   3.353   3.097
98947SOL    HW198738   8.362   3.435   3.116
98947SOL    HW298739   8.346   3.284   3.120
98948SOL     OW98740   6.768   8.584  12.670
98948SOL    HW198741   6.736   8.566  12.582
98948SOL    HW298742   6.854   8.541  12.674
98949SOL     OW98743   7.029   3.062   0.449
98949SOL    HW198744   7.007   2.990   0.390
98949SOL    HW298745   7.074   3.126   0.394
98950SOL     OW98746  10.003   1.098   0.797
98950SOL    HW198747   9.941   1.040   0.752
98950SOL    HW298748   9.959   1.121   0.879
98951SOL     OW98749  10.309   6.241   1.943
98951SOL    HW198750  10.316   6.213   1.852
98951SOL    HW298751  10.227   6.291   1.947
98952SOL     OW98752   7.917  11.914   5.410
98952SOL    HW198753   7.844  11.976   5.414
98952SOL    HW298754   7.876  11.828   5.403
98953SOL     OW98755   5.923  12.245   2.521
98953SOL    HW198756   5.994  12.309   2.525
98953SOL    HW298757   5.927  12.199   2.606
98954SOL     OW98758   6.116   1.918   0.329
98954SOL    HW198759   6.202   1.953   0.351
98954SOL    HW298760   6.074   1.987   0.278
98955SOL     OW98761   9.937   5.561  13.464
98955SOL    HW198762   9.918   5.526  13.551
98955SOL    HW298763   9.905   5.651  13.466
98956SOL     OW98764  12.513  12.979   6.447
98956SOL    HW198765  12.572  13.054   6.440
98956SOL    HW298766  12.500  12.950   6.357
98957SOL     OW98767   9.087   6.310   2.122
98957SOL    HW198768   9.073   6.386   2.178
98957SOL    HW298769   9.123   6.347   2.041
98958SOL     OW98770   9.785   1.964   4.486
98958SOL    HW198771   9.781   1.874   4.456
98958SOL    HW298772   9.776   1.959   4.581
98959SOL     OW98773  12.755   3.151   7.812
98959SOL    HW198774  12.762   3.162   7.717
98959SOL    HW298775  12.724   3.236   7.844
98960SOL     OW98776  14.060   6.211   3.043
98960SOL    HW198777  13.985   6.256   3.006
98960SOL    HW298778  14.114   6.281   3.080
98961SOL     OW98779   8.130   9.285  14.379
98961SOL    HW198780   8.071   9.212  14.394
98961SOL    HW298781   8.098   9.354  14.438
98962SOL     OW98782   2.948  12.041  12.613
98962SOL    HW198783   2.915  12.078  12.531
98962SOL    HW298784   2.882  12.066  12.678
98963SOL     OW98785   5.738   6.256   5.872
98963SOL    HW198786   5.678   6.196   5.828
98963SOL    HW298787   5.825   6.221   5.853
98964SOL     OW98788  13.669   4.122   1.881
98964SOL    HW198789  13.667   4.196   1.941
98964SOL    HW298790  13.726   4.150   1.809
98965SOL     OW98791   7.494   1.508   6.155
98965SOL    HW198792   7.456   1.592   6.177
98965SOL    HW298793   7.504   1.462   6.238
98966SOL     OW98794   0.621   6.631   2.836
98966SOL    HW198795   0.566   6.700   2.798
98966SOL    HW298796   0.639   6.661   2.925
98967SOL     OW98797   5.231   5.061   4.725
98967SOL    HW198798   5.140   5.032   4.720
98967SOL    HW298799   5.246   5.077   4.818
98968SOL     OW98800   0.751  12.392   7.662
98968SOL    HW198801   0.707  12.342   7.730
98968SOL    HW298802   0.796  12.462   7.709
98969SOL     OW98803   9.867  11.718   4.978
98969SOL    HW198804   9.944  11.677   5.017
98969SOL    HW298805   9.804  11.723   5.049
98970SOL     OW98806  10.350  13.463   3.554
98970SOL    HW198807  10.274  13.444   3.608
98970SOL    HW298808  10.317  13.463   3.464
98971SOL     OW98809   3.696   7.273   5.167
98971SOL    HW198810   3.736   7.262   5.253
98971SOL    HW298811   3.705   7.367   5.148
98972SOL     OW98812   5.582  11.466   6.065
98972SOL    HW198813   5.532  11.522   6.124
98972SOL    HW298814   5.673  11.476   6.095
98973SOL     OW98815  14.739  12.443  13.082
98973SOL    HW198816  14.734  12.433  12.987
98973SOL    HW298817  14.814  12.389  13.107
98974SOL     OW98818   9.621   1.833  13.180
98974SOL    HW198819   9.537   1.876  13.164
98974SOL    HW298820   9.608   1.743  13.150
98975SOL     OW98821   7.247  11.545   7.887
98975SOL    HW198822   7.171  11.600   7.872
98975SOL    HW298823   7.237  11.515   7.978
98976SOL     OW98824  11.826  11.606  13.175
98976SOL    HW198825  11.885  11.674  13.208
98976SOL    HW298826  11.801  11.557  13.253
98977SOL     OW98827   0.455   6.582  13.464
98977SOL    HW198828   0.371   6.583  13.418
98977SOL    HW298829   0.517   6.546  13.401
98978SOL     OW98830   4.031   5.447  10.460
98978SOL    HW198831   4.022   5.539  10.484
98978SOL    HW298832   4.109   5.417  10.506
98979SOL     OW98833   2.153   0.858   1.548
98979SOL    HW198834   2.206   0.827   1.621
98979SOL    HW298835   2.107   0.781   1.516
98980SOL     OW98836   8.101   3.174   6.616
98980SOL    HW198837   8.082   3.262   6.647
98980SOL    HW298838   8.035   3.157   6.549
98981SOL     OW98839   4.458  14.805   5.160
98981SOL    HW198840   4.449  14.766   5.073
98981SOL    HW298841   4.450  14.731   5.220
98982SOL     OW98842  14.108  10.005  11.045
98982SOL    HW198843  14.187   9.951  11.034
98982SOL    HW298844  14.060   9.963  11.116
98983SOL     OW98845  12.274  12.912   2.723
98983SOL    HW198846  12.215  12.843   2.751
98983SOL    HW298847  12.292  12.962   2.802
98984SOL     OW98848  13.911  10.668   7.937
98984SOL    HW198849  13.831  10.713   7.912
98984SOL    HW298850  13.910  10.666   8.032
98985SOL     OW98851   6.563   3.390  10.268
98985SOL    HW198852   6.532   3.476  10.238
98985SOL    HW298853   6.659   3.399  10.270
98986SOL     OW98854  11.771   4.782   0.176
98986SOL    HW198855  11.821   4.767   0.257
98986SOL    HW298856  11.827   4.838   0.123
98987SOL     OW98857   7.371   9.269  10.925
98987SOL    HW198858   7.387   9.333  10.994
98987SOL    HW298859   7.372   9.185  10.970
98988SOL     OW98860   1.748   1.703   7.221
98988SOL    HW198861   1.766   1.677   7.312
98988SOL    HW298862   1.730   1.797   7.226
98989SOL     OW98863   7.965   8.725   4.261
98989SOL    HW198864   7.963   8.768   4.346
98989SOL    HW298865   7.903   8.774   4.207
98990SOL     OW98866   7.392  13.607   3.002
98990SOL    HW198867   7.440  13.542   3.053
98990SOL    HW298868   7.460  13.659   2.960
98991SOL     OW98869  11.604   4.031   6.587
98991SOL    HW198870  11.529   4.026   6.646
98991SOL    HW298871  11.572   3.993   6.505
98992SOL     OW98872   1.699   8.357  11.990
98992SOL    HW198873   1.680   8.288  12.054
98992SOL    HW298874   1.753   8.314  11.924
98993SOL     OW98875   4.392   4.149   8.330
98993SOL    HW198876   4.419   4.227   8.282
98993SOL    HW298877   4.461   4.136   8.396
98994SOL     OW98878   8.091  13.605   2.229
98994SOL    HW198879   8.159  13.664   2.263
98994SOL    HW298880   8.026  13.601   2.299
98995SOL     OW98881   3.783  12.245   6.556
98995SOL    HW198882   3.763  12.217   6.467
98995SOL    HW298883   3.878  12.251   6.560
98996SOL     OW98884   5.073  10.706  12.470
98996SOL    HW198885   5.154  10.655  12.460
98996SOL    HW298886   5.032  10.702  12.384
98997SOL     OW98887   2.921   9.391   9.585
98997SOL    HW198888   2.972   9.437   9.518
98997SOL    HW298889   2.834   9.432   9.581
98998SOL     OW98890   1.513   1.811  10.460
98998SOL    HW198891   1.472   1.762  10.531
98998SOL    HW298892   1.598   1.837  10.495
98999SOL     OW98893   0.663   3.527   6.429
98999SOL    HW198894   0.660   3.588   6.356
98999SOL    HW298895   0.604   3.565   6.494
99000SOL     OW98896  11.486   1.905   1.964
99000SOL    HW198897  11.533   1.980   1.927
99000SOL    HW298898  11.396   1.935   1.973
99001SOL     OW98899   4.150   3.953   3.017
99001SOL    HW198900   4.077   3.975   3.075
99001SOL    HW298901   4.109   3.903   2.946
99002SOL     OW98902   6.303   4.875  12.139
99002SOL    HW198903   6.256   4.920  12.209
99002SOL    HW298904   6.329   4.944  12.079
99003SOL     OW98905   5.056   2.641   7.460
99003SOL    HW198906   5.151   2.645   7.455
99003SOL    HW298907   5.027   2.632   7.370
99004SOL     OW98908   5.547   5.923  10.139
99004SOL    HW198909   5.637   5.957  10.144
99004SOL    HW298910   5.530   5.888  10.227
99005SOL     OW98911  11.463   4.144   7.504
99005SOL    HW198912  11.557   4.154   7.521
99005SOL    HW298913  11.423   4.152   7.591
99006SOL     OW98914   7.400   5.459   2.069
99006SOL    HW198915   7.431   5.507   2.146
99006SOL    HW298916   7.389   5.527   2.002
99007SOL     OW98917  10.223   2.341   4.483
99007SOL    HW198918  10.155   2.392   4.439
99007SOL    HW298919  10.304   2.388   4.464
99008SOL     OW98920   8.122   8.578   9.389
99008SOL    HW198921   8.128   8.531   9.306
99008SOL    HW298922   8.038   8.550   9.426
99009SOL     OW98923   7.173   5.369  14.797
99009SOL    HW198924   7.234   5.368  14.723
99009SOL    HW298925   7.135   5.282  14.799
99010SOL     OW98926  14.406   4.420   5.450
99010SOL    HW198927  14.485   4.451   5.407
99010SOL    HW298928  14.336   4.439   5.389
99011SOL     OW98929   1.207  13.796  10.938
99011SOL    HW198930   1.111  13.796  10.931
99011SOL    HW298931   1.237  13.760  10.854
99012SOL     OW98932   4.466   4.013   8.774
99012SOL    HW198933   4.389   3.957   8.768
99012SOL    HW298934   4.526   3.979   8.708
99013SOL     OW98935   8.183   8.808  12.623
99013SOL    HW198936   8.092   8.836  12.624
99013SOL    HW298937   8.198   8.777  12.533
99014SOL     OW98938   6.548   0.453   3.642
99014SOL    HW198939   6.510   0.538   3.622
99014SOL    HW298940   6.486   0.390   3.607
99015SOL     OW98941   2.113   0.088  10.187
99015SOL    HW198942   2.047   0.040  10.238
99015SOL    HW298943   2.152   0.021  10.131
99016SOL     OW98944   0.960   6.661   3.046
99016SOL    HW198945   0.993   6.572   3.034
99016SOL    HW298946   1.002   6.693   3.126
99017SOL     OW98947  10.522  13.587   5.791
99017SOL    HW198948  10.503  13.652   5.723
99017SOL    HW298949  10.598  13.622   5.837
99018SOL     OW98950   0.216   3.805   5.480
99018SOL    HW198951   0.278   3.777   5.548
99018SOL    HW298952   0.173   3.882   5.517
99019SOL     OW98953   1.750   1.334   4.758
99019SOL    HW198954   1.703   1.279   4.820
99019SOL    HW298955   1.765   1.416   4.804
99020SOL     OW98956   2.733  12.097   8.622
99020SOL    HW198957   2.809  12.040   8.633
99020SOL    HW298958   2.664  12.057   8.674
99021SOL     OW98959  14.539  14.732   3.970
99021SOL    HW198960  14.445  14.740   3.980
99021SOL    HW298961  14.559  14.782   3.890
99022SOL     OW98962   5.248   8.454   6.914
99022SOL    HW198963   5.266   8.547   6.901
99022SOL    HW298964   5.249   8.417   6.826
99023SOL     OW98965  12.180   9.419  14.680
99023SOL    HW198966  12.097   9.395  14.640
99023SOL    HW298967  12.208   9.498  14.633
99024SOL     OW98968   4.858   0.435   0.323
99024SOL    HW198969   4.817   0.377   0.260
99024SOL    HW298970   4.919   0.488   0.271
99025SOL     OW98971   6.545   2.024  14.423
99025SOL    HW198972   6.572   2.081  14.495
99025SOL    HW298973   6.454   2.001  14.443
99026SOL     OW98974   7.662  12.077   4.494
99026SOL    HW198975   7.657  12.038   4.581
99026SOL    HW298976   7.744  12.043   4.457
99027SOL     OW98977   4.126   9.492   1.357
99027SOL    HW198978   4.055   9.464   1.299
99027SOL    HW298979   4.202   9.441   1.327
99028SOL     OW98980   0.744   7.864  14.671
99028SOL    HW198981   0.770   7.772  14.680
99028SOL    HW298982   0.688   7.881  14.746
99029SOL     OW98983   9.587   8.643   6.816
99029SOL    HW198984   9.650   8.709   6.787
99029SOL    HW298985   9.578   8.656   6.910
99030SOL     OW98986   0.317   1.272   2.655
99030SOL    HW198987   0.228   1.252   2.624
99030SOL    HW298988   0.373   1.210   2.609
99031SOL     OW98989   2.097   8.105   9.947
99031SOL    HW198990   2.124   8.024   9.990
99031SOL    HW298991   2.003   8.111   9.966
99032SOL     OW98992   7.650   2.540   7.994
99032SOL    HW198993   7.666   2.601   8.066
99032SOL    HW298994   7.736   2.529   7.953
99033SOL     OW98995   8.672   3.819   9.629
99033SOL    HW198996   8.743   3.766   9.666
99033SOL    HW298997   8.687   3.907   9.663
99034SOL     OW98998   1.083   0.087  10.138
99034SOL    HW198999   1.153   0.044  10.090
99034SOL    HW299000   1.026   0.015  10.166
99035SOL     OW99001   7.629   1.105   4.568
99035SOL    HW199002   7.589   1.058   4.495
99035SOL    HW299003   7.621   1.045   4.642
99036SOL     OW99004   8.103   6.762  14.363
99036SOL    HW199005   8.047   6.743  14.288
99036SOL    HW299006   8.066   6.843  14.401
99037SOL     OW99007   9.417   4.609   9.326
99037SOL    HW199008   9.460   4.548   9.266
99037SOL    HW299009   9.446   4.696   9.298
99038SOL     OW99010   4.832   7.491  12.537
99038SOL    HW199011   4.788   7.485  12.453
99038SOL    HW299012   4.779   7.437  12.596
99039SOL     OW99013  12.742   7.055   7.134
99039SOL    HW199014  12.780   7.065   7.222
99039SOL    HW299015  12.805   7.098   7.076
99040SOL     OW99016   8.101   3.541   9.528
99040SOL    HW199017   8.164   3.602   9.567
99040SOL    HW299018   8.081   3.479   9.598
99041SOL     OW99019  12.084   3.411  11.076
99041SOL    HW199020  12.171   3.371  11.066
99041SOL    HW299021  12.101   3.505  11.072
99042SOL     OW99022   9.205   5.717   6.210
99042SOL    HW199023   9.150   5.644   6.237
99042SOL    HW299024   9.192   5.784   6.277
99043SOL     OW99025  12.980   8.706  13.409
99043SOL    HW199026  13.034   8.654  13.349
99043SOL    HW299027  12.911   8.646  13.437
99044SOL     OW99028   6.894   5.003  11.316
99044SOL    HW199029   6.926   4.925  11.270
99044SOL    HW299030   6.799   5.000  11.306
99045SOL     OW99031   9.779  14.697   5.506
99045SOL    HW199032   9.829  14.638   5.449
99045SOL    HW299033   9.748  14.766   5.448
99046SOL     OW99034   9.303  14.678  13.276
99046SOL    HW199035   9.298  14.771  13.251
99046SOL    HW299036   9.331  14.680  13.367
99047SOL     OW99037   8.338   5.768  11.017
99047SOL    HW199038   8.273   5.828  11.053
99047SOL    HW299039   8.349   5.701  11.084
99048SOL     OW99040   7.047   0.004   3.989
99048SOL    HW199041   7.134  14.854   3.955
99048SOL    HW299042   7.022  14.799   4.040
99049SOL     OW99043   2.525   7.888   1.687
99049SOL    HW199044   2.507   7.876   1.594
99049SOL    HW299045   2.541   7.982   1.697
99050SOL     OW99046   0.503   3.075   5.900
99050SOL    HW199047   0.596   3.058   5.915
99050SOL    HW299048   0.499   3.117   5.814
99051SOL     OW99049   1.663  11.708   8.607
99051SOL    HW199050   1.678  11.655   8.529
99051SOL    HW299051   1.692  11.653   8.679
99052SOL     OW99052   7.351  11.616  10.170
99052SOL    HW199053   7.329  11.538  10.221
99052SOL    HW299054   7.432  11.648  10.210
99053SOL     OW99055   9.542   9.650   4.066
99053SOL    HW199056   9.568   9.685   3.981
99053SOL    HW299057   9.459   9.605   4.049
99054SOL     OW99058   2.105   1.915   1.501
99054SOL    HW199059   2.066   1.875   1.579
99054SOL    HW299060   2.124   1.841   1.443
99055SOL     OW99061  13.871   3.059   5.748
99055SOL    HW199062  13.864   2.967   5.772
99055SOL    HW299063  13.809   3.104   5.806
99056SOL     OW99064   6.414  10.315  12.843
99056SOL    HW199065   6.446  10.278  12.760
99056SOL    HW299066   6.438  10.250  12.909
99057SOL     OW99067   0.010   8.341  14.159
99057SOL    HW199068   0.045   8.412  14.213
99057SOL    HW299069   0.055   8.350  14.075
99058SOL     OW99070   9.402   1.362  12.170
99058SOL    HW199071   9.460   1.353  12.094
99058SOL    HW299072   9.407   1.277  12.214
99059SOL     OW99073   2.674   1.519  14.367
99059SOL    HW199074   2.746   1.460  14.389
99059SOL    HW299075   2.716   1.603  14.348
99060SOL     OW99076   3.081   4.642  10.094
99060SOL    HW199077   3.119   4.631  10.006
99060SOL    HW299078   2.993   4.604  10.087
99061SOL     OW99079   5.138   3.965   2.985
99061SOL    HW199080   5.146   3.950   2.891
99061SOL    HW299081   5.092   4.048   2.993
99062SOL     OW99082   7.928   8.527   3.410
99062SOL    HW199083   7.922   8.444   3.458
99062SOL    HW299084   7.879   8.513   3.329
99063SOL     OW99085   4.386  12.369   1.962
99063SOL    HW199086   4.329  12.444   1.945
99063SOL    HW299087   4.386  12.319   1.881
99064SOL     OW99088  13.454   7.183  12.217
99064SOL    HW199089  13.387   7.193  12.284
99064SOL    HW299090  13.460   7.088  12.203
99065SOL     OW99091  10.108   9.788   2.960
99065SOL    HW199092  10.034   9.845   2.981
99065SOL    HW299093  10.182   9.848   2.950
99066SOL     OW99094   4.501   8.564   6.037
99066SOL    HW199095   4.570   8.497   6.041
99066SOL    HW299096   4.427   8.519   5.996
99067SOL     OW99097   7.821   5.445  12.561
99067SOL    HW199098   7.744   5.407  12.519
99067SOL    HW299099   7.802   5.539  12.564
99068SOL     OW99100  14.839   9.839  10.088
99068SOL    HW199101   0.032   9.803  10.028
99068SOL    HW299102  14.864   9.931  10.098
99069SOL     OW99103   8.817   6.612  10.200
99069SOL    HW199104   8.801   6.638  10.109
99069SOL    HW299105   8.731   6.615  10.242
99070SOL     OW99106   3.996   6.949   5.341
99070SOL    HW199107   4.091   6.957   5.353
99070SOL    HW299108   3.970   6.881   5.402
99071SOL     OW99109   0.957   8.570  12.236
99071SOL    HW199110   0.959   8.584  12.142
99071SOL    HW299111   1.044   8.536  12.257
99072SOL     OW99112  10.125  12.880  12.864
99072SOL    HW199113  10.157  12.794  12.835
99072SOL    HW299114  10.166  12.894  12.949
99073SOL     OW99115  12.469   4.111  14.375
99073SOL    HW199116  12.379   4.114  14.410
99073SOL    HW299117  12.497   4.021  14.389
99074SOL     OW99118  11.136   0.548  10.467
99074SOL    HW199119  11.043   0.544  10.489
99074SOL    HW299120  11.178   0.486  10.527
99075SOL     OW99121   0.924   8.510   7.375
99075SOL    HW199122   0.881   8.581   7.423
99075SOL    HW299123   0.854   8.470   7.324
99076SOL     OW99124   9.073   5.358  13.572
99076SOL    HW199125   9.072   5.278  13.520
99076SOL    HW299126   9.026   5.422  13.517
99077SOL     OW99127  11.299  10.344   7.502
99077SOL    HW199128  11.247  10.276   7.459
99077SOL    HW299129  11.322  10.405   7.432
99078SOL     OW99130   7.709   2.162   3.902
99078SOL    HW199131   7.668   2.160   3.988
99078SOL    HW299132   7.794   2.119   3.915
99079SOL     OW99133   8.826  11.842  14.202
99079SOL    HW199134   8.899  11.901  14.181
99079SOL    HW299135   8.803  11.863  14.292
99080SOL     OW99136   0.389  10.585   3.437
99080SOL    HW199137   0.322  10.565   3.503
99080SOL    HW299138   0.354  10.547   3.357
99081SOL     OW99139   4.960  10.546  14.820
99081SOL    HW199140   4.995  10.619   0.000
99081SOL    HW299141   5.037  10.495  14.796
99082SOL     OW99142  11.073   5.495   7.172
99082SOL    HW199143  10.980   5.497   7.197
99082SOL    HW299144  11.118   5.462   7.249
99083SOL     OW99145   1.837   7.674   0.921
99083SOL    HW199146   1.848   7.744   0.857
99083SOL    HW299147   1.837   7.719   1.006
99084SOL     OW99148   0.588  10.389   9.387
99084SOL    HW199149   0.616  10.330   9.457
99084SOL    HW299150   0.515  10.438   9.424
99085SOL     OW99151   8.154  11.106  11.022
99085SOL    HW199152   8.246  11.081  11.014
99085SOL    HW299153   8.153  11.177  11.085
99086SOL     OW99154   9.896  10.391   5.826
99086SOL    HW199155   9.857  10.478   5.835
99086SOL    HW299156   9.919  10.385   5.733
99087SOL     OW99157  12.856   5.043  11.001
99087SOL    HW199158  12.767   5.008  10.998
99087SOL    HW299159  12.861   5.089  11.085
99088SOL     OW99160   0.260   1.777   1.740
99088SOL    HW199161   0.221   1.726   1.811
99088SOL    HW299162   0.237   1.867   1.760
99089SOL     OW99163   2.821   8.659   8.360
99089SOL    HW199164   2.727   8.640   8.366
99089SOL    HW299165   2.863   8.581   8.397
99090SOL     OW99166   0.980   0.551  12.544
99090SOL    HW199167   0.894   0.516  12.565
99090SOL    HW299168   1.035   0.473  12.532
99091SOL     OW99169   7.821   0.929   6.176
99091SOL    HW199170   7.884   0.921   6.105
99091SOL    HW299171   7.761   0.998   6.147
99092SOL     OW99172   5.455   9.876   1.249
99092SOL    HW199173   5.459   9.785   1.277
99092SOL    HW299174   5.403   9.874   1.169
99093SOL     OW99175   4.692  12.296   6.141
99093SOL    HW199176   4.741  12.306   6.060
99093SOL    HW299177   4.647  12.212   6.132
99094SOL     OW99178  10.638   6.165   7.040
99094SOL    HW199179  10.675   6.223   7.107
99094SOL    HW299180  10.629   6.080   7.084
99095SOL     OW99181   0.299  11.156   1.883
99095SOL    HW199182   0.250  11.156   1.801
99095SOL    HW299183   0.377  11.102   1.865
99096SOL     OW99184   7.261   0.126  14.722
99096SOL    HW199185   7.223   0.209  14.750
99096SOL    HW299186   7.244   0.066  14.795
99097SOL     OW99187   0.215  10.483  10.168
99097SOL    HW199188   0.218  10.388  10.157
99097SOL    HW299189   0.161  10.514  10.095
99098SOL     OW99190  14.178   7.923  13.037
99098SOL    HW199191  14.240   7.926  12.964
99098SOL    HW299192  14.193   8.005  13.084
99099SOL     OW99193  13.353   6.563  13.273
99099SOL    HW199194  13.263   6.593  13.287
99099SOL    HW299195  13.407   6.633  13.309
99100SOL     OW99196   7.084  13.952   0.218
99100SOL    HW199197   7.136  13.875   0.196
99100SOL    HW299198   7.014  13.918   0.274
99101SOL     OW99199   5.528  14.788   8.270
99101SOL    HW199200   5.551  14.733   8.344
99101SOL    HW299201   5.469  14.733   8.218
99102SOL     OW99202  11.198   1.216   4.381
99102SOL    HW199203  11.211   1.176   4.466
99102SOL    HW299204  11.286   1.229   4.346
99103SOL     OW99205   5.599   5.933   4.890
99103SOL    HW199206   5.599   5.854   4.944
99103SOL    HW299207   5.513   5.972   4.905
99104SOL     OW99208   7.388   8.069   0.990
99104SOL    HW199209   7.303   8.037   0.962
99104SOL    HW299210   7.371   8.155   1.029
99105SOL     OW99211   1.687   7.256   2.324
99105SOL    HW199212   1.756   7.209   2.370
99105SOL    HW299213   1.730   7.300   2.251
99106SOL     OW99214   6.394   5.653   7.062
99106SOL    HW199215   6.475   5.616   7.028
99106SOL    HW299216   6.374   5.600   7.139
99107SOL     OW99217   7.360   7.656   6.098
99107SOL    HW199218   7.334   7.626   6.185
99107SOL    HW299219   7.296   7.724   6.077
99108SOL     OW99220  11.515   9.022   7.496
99108SOL    HW199221  11.558   9.089   7.444
99108SOL    HW299222  11.573   8.946   7.490
99109SOL     OW99223   2.394  10.743   9.480
99109SOL    HW199224   2.489  10.756   9.487
99109SOL    HW299225   2.382  10.702   9.394
99110SOL     OW99226  10.212  12.587  12.829
99110SOL    HW199227  10.292  12.535  12.821
99110SOL    HW299228  10.176  12.562  12.914
99111SOL     OW99229  14.042   8.841   8.285
99111SOL    HW199230  14.051   8.751   8.317
99111SOL    HW299231  14.132   8.869   8.270
99112SOL     OW99232   8.422   0.735  10.088
99112SOL    HW199233   8.339   0.770  10.058
99112SOL    HW299234   8.436   0.776  10.174
99113SOL     OW99235   9.296   0.133   0.991
99113SOL    HW199236   9.236   0.075   1.036
99113SOL    HW299237   9.248   0.161   0.913
99114SOL     OW99238   3.880   1.402   8.625
99114SOL    HW199239   3.957   1.376   8.675
99114SOL    HW299240   3.907   1.398   8.534
99115SOL     OW99241  10.530   9.270   2.021
99115SOL    HW199242  10.444   9.255   2.061
99115SOL    HW299243  10.514   9.340   1.958
99116SOL     OW99244   8.498  10.560   7.086
99116SOL    HW199245   8.454  10.600   7.011
99116SOL    HW299246   8.494  10.466   7.068
99117SOL     OW99247   2.617  10.574   4.069
99117SOL    HW199248   2.568  10.502   4.109
99117SOL    HW299249   2.572  10.653   4.099
99118SOL     OW99250  14.778   4.627   8.490
99118SOL    HW199251  14.848   4.691   8.482
99118SOL    HW299252  14.820   4.543   8.473
99119SOL     OW99253  12.242  11.055  10.317
99119SOL    HW199254  12.213  10.968  10.289
99119SOL    HW299255  12.285  11.092  10.240
99120SOL     OW99256   1.936   5.793   0.738
99120SOL    HW199257   1.994   5.782   0.814
99120SOL    HW299258   1.967   5.874   0.696
99121SOL     OW99259   3.211   3.138  12.030
99121SOL    HW199260   3.305   3.130  12.048
99121SOL    HW299261   3.178   3.195  12.099
99122SOL     OW99262   0.146   0.862   3.844
99122SOL    HW199263   0.222   0.896   3.892
99122SOL    HW299264   0.167   0.877   3.752
99123SOL     OW99265   8.937   0.005   9.329
99123SOL    HW199266   8.842   0.003   9.327
99123SOL    HW299267   8.959   0.051   9.410
99124SOL     OW99268   0.197   3.119   7.734
99124SOL    HW199269   0.226   3.112   7.825
99124SOL    HW299270   0.182   3.029   7.707
99125SOL     OW99271   0.783   9.767  14.024
99125SOL    HW199272   0.725   9.818  13.967
99125SOL    HW299273   0.863   9.755  13.972
99126SOL     OW99274   5.321   2.808  13.887
99126SOL    HW199275   5.267   2.731  13.906
99126SOL    HW299276   5.394   2.802  13.948
99127SOL     OW99277  12.100   3.533   1.713
99127SOL    HW199278  12.164   3.535   1.784
99127SOL    HW299279  12.071   3.441   1.709
99128SOL     OW99280   4.712   2.935  11.442
99128SOL    HW199281   4.774   2.985  11.495
99128SOL    HW299282   4.653   2.894  11.505
99129SOL     OW99283   2.882   3.454   7.321
99129SOL    HW199284   2.859   3.428   7.410
99129SOL    HW299285   2.802   3.495   7.287
99130SOL     OW99286   8.396   8.365  12.727
99130SOL    HW199287   8.449   8.441  12.703
99130SOL    HW299288   8.324   8.401  12.778
99131SOL     OW99289   4.668   9.213   7.526
99131SOL    HW199290   4.586   9.263   7.528
99131SOL    HW299291   4.646   9.135   7.474
99132SOL     OW99292   6.966   3.495   8.151
99132SOL    HW199293   6.912   3.573   8.165
99132SOL    HW299294   6.952   3.472   8.059
99133SOL     OW99295  13.844   4.926   7.868
99133SOL    HW199296  13.813   4.963   7.786
99133SOL    HW299297  13.779   4.859   7.890
99134SOL     OW99298   0.184  11.150   6.682
99134SOL    HW199299   0.171  11.159   6.776
99134SOL    HW299300   0.250  11.216   6.660
99135SOL     OW99301   4.877   0.990   0.929
99135SOL    HW199302   4.891   1.029   1.015
99135SOL    HW299303   4.888   0.896   0.944
99136SOL     OW99304   7.954   7.549   5.632
99136SOL    HW199305   7.952   7.501   5.715
99136SOL    HW299306   7.984   7.484   5.568
99137SOL     OW99307   8.373   2.393  11.206
99137SOL    HW199308   8.361   2.323  11.270
99137SOL    HW299309   8.339   2.358  11.124
99138SOL     OW99310   2.988   1.231  11.157
99138SOL    HW199311   2.960   1.299  11.218
99138SOL    HW299312   2.977   1.149  11.205
99139SOL     OW99313   0.482   8.650   8.952
99139SOL    HW199314   0.560   8.596   8.939
99139SOL    HW299315   0.511   8.739   8.934
99140SOL     OW99316  10.261   6.103   0.946
99140SOL    HW199317  10.310   6.185   0.935
99140SOL    HW299318  10.298   6.043   0.882
99141SOL     OW99319   8.857  10.451   4.290
99141SOL    HW199320   8.762  10.439   4.282
99141SOL    HW299321   8.872  10.540   4.257
99142SOL     OW99322   6.590  10.869   0.080
99142SOL    HW199323   6.640  10.812   0.140
99142SOL    HW299324   6.562  10.810   0.010
99143SOL     OW99325   4.461  10.052  12.886
99143SOL    HW199326   4.393  10.011  12.939
99143SOL    HW299327   4.542  10.034  12.932
99144SOL     OW99328   7.846  12.984   6.207
99144SOL    HW199329   7.755  12.975   6.233
99144SOL    HW299330   7.872  13.069   6.242
99145SOL     OW99331  12.031  14.796   7.095
99145SOL    HW199332  12.031  14.801   7.000
99145SOL    HW299333  11.975  14.868   7.123
99146SOL     OW99334  14.253   4.677   8.785
99146SOL    HW199335  14.176   4.713   8.828
99146SOL    HW299336  14.301   4.632   8.855
99147SOL     OW99337  14.543   5.872  14.867
99147SOL    HW199338  14.569   5.884  14.776
99147SOL    HW299339  14.592   5.937   0.043
99148SOL     OW99340   6.413   5.873   9.868
99148SOL    HW199341   6.488   5.932   9.859
99148SOL    HW299342   6.347   5.909   9.809
99149SOL     OW99343  12.431   2.188   2.146
99149SOL    HW199344  12.417   2.253   2.214
99149SOL    HW299345  12.527   2.181   2.139
99150SOL     OW99346  10.636   0.233  12.405
99150SOL    HW199347  10.576   0.257  12.335
99150SOL    HW299348  10.721   0.225  12.362
99151SOL     OW99349   2.804  13.219  12.043
99151SOL    HW199350   2.817  13.303  11.998
99151SOL    HW299351   2.718  13.227  12.084
99152SOL     OW99352   7.214   8.426   7.263
99152SOL    HW199353   7.158   8.415   7.186
99152SOL    HW299354   7.246   8.337   7.281
99153SOL     OW99355  11.816  13.579   7.583
99153SOL    HW199356  11.795  13.489   7.562
99153SOL    HW299357  11.855  13.575   7.671
99154SOL     OW99358   5.735  13.362   3.963
99154SOL    HW199359   5.688  13.396   3.887
99154SOL    HW299360   5.814  13.417   3.969
99155SOL     OW99361  11.665   6.213   2.594
99155SOL    HW199362  11.700   6.296   2.626
99155SOL    HW299363  11.648   6.162   2.674
99156SOL     OW99364  12.272  10.192   7.836
99156SOL    HW199365  12.302  10.242   7.911
99156SOL    HW299366  12.176  10.192   7.843
99157SOL     OW99367   0.378   4.894  14.504
99157SOL    HW199368   0.434   4.972  14.499
99157SOL    HW299369   0.429   4.831  14.555
99158SOL     OW99370   4.464   8.029   6.750
99158SOL    HW199371   4.429   8.054   6.836
99158SOL    HW299372   4.557   8.053   6.754
99159SOL     OW99373  12.609  11.941   6.705
99159SOL    HW199374  12.662  11.862   6.690
99159SOL    HW299375  12.519  11.909   6.708
99160SOL     OW99376   1.096   1.758  13.900
99160SOL    HW199377   1.125   1.848  13.889
99160SOL    HW299378   1.059   1.734  13.816
99161SOL     OW99379   3.824   8.538  14.560
99161SOL    HW199380   3.801   8.608  14.499
99161SOL    HW299381   3.780   8.562  14.641
99162SOL     OW99382   9.054   0.794  14.177
99162SOL    HW199383   9.014   0.849  14.244
99162SOL    HW299384   9.143   0.828  14.168
99163SOL     OW99385   0.456   0.234  13.323
99163SOL    HW199386   0.419   0.272  13.402
99163SOL    HW299387   0.543   0.274  13.314
99164SOL     OW99388   6.693   8.487   0.616
99164SOL    HW199389   6.671   8.580   0.609
99164SOL    HW299390   6.724   8.464   0.528
99165SOL     OW99391   3.069  11.662   8.683
99165SOL    HW199392   3.074  11.656   8.779
99165SOL    HW299393   3.146  11.712   8.658
99166SOL     OW99394   9.826   4.805   2.605
99166SOL    HW199395   9.818   4.766   2.517
99166SOL    HW299396   9.745   4.855   2.616
99167SOL     OW99397  13.020   5.555   1.821
99167SOL    HW199398  13.084   5.495   1.783
99167SOL    HW299399  12.946   5.500   1.846
99168SOL     OW99400   6.150  11.443   9.573
99168SOL    HW199401   6.192  11.378   9.516
99168SOL    HW299402   6.149  11.524   9.522
99169SOL     OW99403   9.831   3.439  11.623
99169SOL    HW199404   9.848   3.532  11.629
99169SOL    HW299405   9.901   3.398  11.674
99170SOL     OW99406  10.426   2.153  11.262
99170SOL    HW199407  10.509   2.138  11.217
99170SOL    HW299408  10.364   2.094  11.219
99171SOL     OW99409   9.415  14.756   6.447
99171SOL    HW199410   9.370  14.839   6.433
99171SOL    HW299411   9.347  14.697   6.480
99172SOL     OW99412   4.073   9.336  12.424
99172SOL    HW199413   4.004   9.348  12.359
99172SOL    HW299414   4.153   9.324  12.373
99173SOL     OW99415   1.294   6.329   1.581
99173SOL    HW199416   1.229   6.286   1.525
99173SOL    HW299417   1.263   6.312   1.671
99174SOL     OW99418  11.213   3.873   9.172
99174SOL    HW199419  11.242   3.964   9.172
99174SOL    HW299420  11.243   3.838   9.256
99175SOL     OW99421   7.470   5.343   3.165
99175SOL    HW199422   7.480   5.355   3.071
99175SOL    HW299423   7.549   5.384   3.203
99176SOL     OW99424   0.061   1.563  11.776
99176SOL    HW199425   0.032   1.484  11.823
99176SOL    HW299426  14.852   1.610  11.757
99177SOL     OW99427   9.366   8.060  11.167
99177SOL    HW199428   9.362   7.965  11.155
99177SOL    HW299429   9.387   8.071  11.260
99178SOL     OW99430   6.381  11.470   4.640
99178SOL    HW199431   6.362  11.520   4.561
99178SOL    HW299432   6.315  11.497   4.703
99179SOL     OW99433  11.073   2.748   3.336
99179SOL    HW199434  11.149   2.735   3.392
99179SOL    HW299435  11.059   2.843   3.337
99180SOL     OW99436   7.611  11.909   4.025
99180SOL    HW199437   7.629  11.946   4.111
99180SOL    HW299438   7.609  11.814   4.040
99181SOL     OW99439  14.735   0.414  13.712
99181SOL    HW199440  14.736   0.398  13.807
99181SOL    HW299441  14.667   0.480  13.700
99182SOL     OW99442   6.026   8.836   5.913
99182SOL    HW199443   5.951   8.867   5.863
99182SOL    HW299444   5.996   8.836   6.004
99183SOL     OW99445   3.622  12.886   8.203
99183SOL    HW199446   3.632  12.854   8.292
99183SOL    HW299447   3.528  12.878   8.185
99184SOL     OW99448   5.588  10.322   5.653
99184SOL    HW199449   5.644  10.259   5.608
99184SOL    HW299450   5.558  10.276   5.732
99185SOL     OW99451  11.671   3.981   7.833
99185SOL    HW199452  11.689   3.949   7.922
99185SOL    HW299453  11.680   4.076   7.840
99186SOL     OW99454  12.739   8.934  14.360
99186SOL    HW199455  12.687   8.853  14.358
99186SOL    HW299456  12.748   8.958  14.267
99187SOL     OW99457  14.718   2.183  13.330
99187SOL    HW199458  14.682   2.124  13.396
99187SOL    HW299459  14.791   2.133  13.291
99188SOL     OW99460   2.288   4.101  10.333
99188SOL    HW199461   2.348   4.128  10.263
99188SOL    HW299462   2.304   4.164  10.404
99189SOL     OW99463   6.535   8.891   3.822
99189SOL    HW199464   6.579   8.976   3.831
99189SOL    HW299465   6.443   8.914   3.809
99190SOL     OW99466   5.995  14.742   0.853
99190SOL    HW199467   6.076  14.778   0.817
99190SOL    HW299468   5.976  14.666   0.798
99191SOL     OW99469   1.599   1.447  11.501
99191SOL    HW199470   1.686   1.412  11.482
99191SOL    HW299471   1.562   1.387  11.566
99192SOL     OW99472  11.088   7.872   8.155
99192SOL    HW199473  11.025   7.836   8.217
99192SOL    HW299474  11.174   7.850   8.192
99193SOL     OW99475  10.254   0.773  11.847
99193SOL    HW199476  10.210   0.734  11.923
99193SOL    HW299477  10.195   0.843  11.820
99194SOL     OW99478   0.398  13.408   8.358
99194SOL    HW199479   0.429  13.366   8.278
99194SOL    HW299480   0.466  13.474   8.378
99195SOL     OW99481   2.853  11.848  14.220
99195SOL    HW199482   2.875  11.912  14.152
99195SOL    HW299483   2.863  11.763  14.177
99196SOL     OW99484  11.656   1.916  14.324
99196SOL    HW199485  11.663   1.964  14.241
99196SOL    HW299486  11.744   1.882  14.339
99197SOL     OW99487   1.800  14.036  10.671
99197SOL    HW199488   1.885  14.073  10.695
99197SOL    HW299489   1.816  13.995  10.586
99198SOL     OW99490   3.313   1.946   8.903
99198SOL    HW199491   3.389   1.892   8.878
99198SOL    HW299492   3.255   1.886   8.949
99199SOL     OW99493   2.399   5.267  11.645
99199SOL    HW199494   2.308   5.263  11.672
99199SOL    HW299495   2.442   5.196  11.694
99200SOL     OW99496   6.450  14.126   6.667
99200SOL    HW199497   6.385  14.150   6.733
99200SOL    HW299498   6.509  14.201   6.662
99201SOL     OW99499   1.477   0.525   1.111
99201SOL    HW199500   1.398   0.556   1.067
99201SOL    HW299501   1.527   0.605   1.130
99202SOL     OW99502   9.395   9.195  13.336
99202SOL    HW199503   9.384   9.199  13.241
99202SOL    HW299504   9.331   9.129  13.365
99203SOL     OW99505  13.077   4.664   2.938
99203SOL    HW199506  13.061   4.740   2.995
99203SOL    HW299507  13.010   4.600   2.964
99204SOL     OW99508  13.583  11.618  10.469
99204SOL    HW199509  13.530  11.638  10.546
99204SOL    HW299510  13.658  11.677  10.475
99205SOL     OW99511   5.859   1.839   0.076
99205SOL    HW199512   5.850   1.918   0.130
99205SOL    HW299513   5.921   1.784   0.125
99206SOL     OW99514   4.858   1.076   3.758
99206SOL    HW199515   4.786   1.028   3.719
99206SOL    HW299516   4.832   1.168   3.752
99207SOL     OW99517   1.348   8.031   5.644
99207SOL    HW199518   1.399   8.003   5.568
99207SOL    HW299519   1.277   8.084   5.607
99208SOL     OW99520   6.787  13.634  10.102
99208SOL    HW199521   6.849  13.708  10.103
99208SOL    HW299522   6.815  13.581  10.027
99209SOL     OW99523   2.725   5.553  12.884
99209SOL    HW199524   2.713   5.460  12.906
99209SOL    HW299525   2.817   5.559  12.857
99210SOL     OW99526   0.741  10.007  11.123
99210SOL    HW199527   0.745  10.011  11.219
99210SOL    HW299528   0.726  10.098  11.096
99211SOL     OW99529   7.835   0.651  10.475
99211SOL    HW199530   7.777   0.580  10.504
99211SOL    HW299531   7.782   0.702  10.413
99212SOL     OW99532   3.804  12.789   1.404
99212SOL    HW199533   3.773  12.877   1.425
99212SOL    HW299534   3.724  12.737   1.395
99213SOL     OW99535   2.457  12.951   5.618
99213SOL    HW199536   2.444  12.860   5.644
99213SOL    HW299537   2.416  13.002   5.687
99214SOL     OW99538   0.624   8.086   6.235
99214SOL    HW199539   0.654   8.040   6.314
99214SOL    HW299540   0.668   8.171   6.239
99215SOL     OW99541   3.144  14.364  12.836
99215SOL    HW199542   3.167  14.306  12.908
99215SOL    HW299543   3.117  14.446  12.879
99216SOL     OW99544  10.615  13.221  14.841
99216SOL    HW199545  10.709  13.213  14.828
99216SOL    HW299546  10.596  13.165   0.044
99217SOL     OW99547   9.989   6.885   7.725
99217SOL    HW199548   9.940   6.936   7.661
99217SOL    HW299549  10.023   6.950   7.787
99218SOL     OW99550  14.273  13.432   7.669
99218SOL    HW199551  14.202  13.439   7.732
99218SOL    HW299552  14.350  13.462   7.716
99219SOL     OW99553  10.402   8.395   7.339
99219SOL    HW199554  10.427   8.333   7.271
99219SOL    HW299555  10.361   8.340   7.406
99220SOL     OW99556   8.458  14.719   4.009
99220SOL    HW199557   8.428  14.775   4.081
99220SOL    HW299558   8.399  14.644   4.011
99221SOL     OW99559  12.616   0.407   3.684
99221SOL    HW199560  12.537   0.428   3.734
99221SOL    HW299561  12.673   0.364   3.748
99222SOL     OW99562   3.930   1.616  13.455
99222SOL    HW199563   3.879   1.543  13.421
99222SOL    HW299564   3.977   1.579  13.530
99223SOL     OW99565   9.469   7.684  11.553
99223SOL    HW199566   9.483   7.591  11.532
99223SOL    HW299567   9.546   7.708  11.604
99224SOL     OW99568   1.441  12.348  13.669
99224SOL    HW199569   1.401  12.265  13.693
99224SOL    HW299570   1.485  12.330  13.586
99225SOL     OW99571   5.432   5.680   4.227
99225SOL    HW199572   5.521   5.650   4.209
99225SOL    HW299573   5.443   5.768   4.263
99226SOL     OW99574  10.151   1.310   2.597
99226SOL    HW199575  10.091   1.381   2.618
99226SOL    HW299576  10.206   1.344   2.527
99227SOL     OW99577   4.835  14.840   4.290
99227SOL    HW199578   4.843  14.851   4.385
99227SOL    HW299579   4.761  14.779   4.280
99228SOL     OW99580   5.417   0.442   8.316
99228SOL    HW199581   5.505   0.405   8.319
99228SOL    HW299582   5.412   0.485   8.231
99229SOL     OW99583   6.436  14.104  11.874
99229SOL    HW199584   6.498  14.078  11.806
99229SOL    HW299585   6.490  14.128  11.949
99230SOL     OW99586  11.823   8.092  10.525
99230SOL    HW199587  11.793   8.028  10.589
99230SOL    HW299588  11.886   8.146  10.573
99231SOL     OW99589   4.494   3.900   7.130
99231SOL    HW199590   4.573   3.898   7.183
99231SOL    HW299591   4.427   3.860   7.185
99232SOL     OW99592   2.365   5.385   6.954
99232SOL    HW199593   2.381   5.293   6.977
99232SOL    HW299594   2.278   5.404   6.990
99233SOL     OW99595   5.269   5.414   2.058
99233SOL    HW199596   5.263   5.381   2.147
99233SOL    HW299597   5.351   5.463   2.056
99234SOL     OW99598   3.409   5.685   1.022
99234SOL    HW199599   3.367   5.685   0.936
99234SOL    HW299600   3.361   5.750   1.073
99235SOL     OW99601   2.699  12.286  13.923
99235SOL    HW199602   2.714  12.380  13.912
99235SOL    HW299603   2.705  12.250  13.834
99236SOL     OW99604  11.137   3.457   2.785
99236SOL    HW199605  11.197   3.419   2.721
99236SOL    HW299606  11.135   3.393   2.856
99237SOL     OW99607   6.511   2.411   6.268
99237SOL    HW199608   6.437   2.468   6.290
99237SOL    HW299609   6.567   2.465   6.212
99238SOL     OW99610  12.643   5.564   6.031
99238SOL    HW199611  12.735   5.541   6.017
99238SOL    HW299612  12.603   5.485   6.066
99239SOL     OW99613  11.069   6.737  11.627
99239SOL    HW199614  11.134   6.668  11.637
99239SOL    HW299615  10.990   6.692  11.599
99240SOL     OW99616   6.276  13.342   6.185
99240SOL    HW199617   6.180  13.346   6.187
99240SOL    HW299618   6.297  13.294   6.105
99241SOL     OW99619   2.726  10.090   2.674
99241SOL    HW199620   2.655  10.066   2.615
99241SOL    HW299621   2.699  10.058   2.760
99242SOL     OW99622  11.389  14.726   9.873
99242SOL    HW199623  11.476  14.764   9.861
99242SOL    HW299624  11.345  14.737   9.789
99243SOL     OW99625  14.456   5.307   1.827
99243SOL    HW199626  14.379   5.274   1.780
99243SOL    HW299627  14.430   5.307   1.919
99244SOL     OW99628   5.589   2.707   5.680
99244SOL    HW199629   5.523   2.638   5.668
99244SOL    HW299630   5.593   2.751   5.595
99245SOL     OW99631   1.935   2.518   0.741
99245SOL    HW199632   1.895   2.454   0.683
99245SOL    HW299633   2.019   2.479   0.766
99246SOL     OW99634   2.980  11.590   9.799
99246SOL    HW199635   2.912  11.642   9.843
99246SOL    HW299636   3.034  11.556   9.870
99247SOL     OW99637  14.144   7.501   6.890
99247SOL    HW199638  14.163   7.452   6.969
99247SOL    HW299639  14.103   7.582   6.920
99248SOL     OW99640   3.358   6.164   0.038
99248SOL    HW199641   3.270   6.125   0.043
99248SOL    HW299642   3.344   6.257   0.055
99249SOL     OW99643   4.696  11.496   0.094
99249SOL    HW199644   4.647  11.577   0.084
99249SOL    HW299645   4.738  11.503   0.180
99250SOL     OW99646   6.286   0.589   9.370
99250SOL    HW199647   6.303   0.601   9.276
99250SOL    HW299648   6.194   0.615   9.380
99251SOL     OW99649   7.124   9.973   4.937
99251SOL    HW199650   7.139   9.915   5.012
99251SOL    HW299651   7.119   9.913   4.861
99252SOL     OW99652  14.724  11.225   4.948
99252SOL    HW199653  14.716  11.294   4.882
99252SOL    HW299654  14.818  11.215   4.961
99253SOL     OW99655   5.930   2.480   7.421
99253SOL    HW199656   5.873   2.551   7.391
99253SOL    HW299657   5.935   2.420   7.346
99254SOL     OW99658   9.240   3.908   7.139
99254SOL    HW199659   9.201   3.828   7.175
99254SOL    HW299660   9.168   3.952   7.095
99255SOL     OW99661   8.941  10.477   6.497
99255SOL    HW199662   8.972  10.387   6.501
99255SOL    HW299663   8.911  10.496   6.586
99256SOL     OW99664   2.421  12.199   4.377
99256SOL    HW199665   2.390  12.179   4.465
99256SOL    HW299666   2.342  12.204   4.323
99257SOL     OW99667   2.367   0.839  13.700
99257SOL    HW199668   2.305   0.911  13.686
99257SOL    HW299669   2.446   0.865  13.652
99258SOL     OW99670  10.312   0.276  12.921
99258SOL    HW199671  10.257   0.266  12.999
99258SOL    HW299672  10.401   0.273  12.955
99259SOL     OW99673  14.213   2.767   9.712
99259SOL    HW199674  14.125   2.802   9.727
99259SOL    HW299675  14.214   2.684   9.761
99260SOL     OW99676   9.331   3.973   2.149
99260SOL    HW199677   9.348   4.067   2.145
99260SOL    HW299678   9.255   3.965   2.207
99261SOL     OW99679   0.284   1.931   4.573
99261SOL    HW199680   0.314   1.865   4.634
99261SOL    HW299681   0.188   1.926   4.577
99262SOL     OW99682  12.520   3.682   8.462
99262SOL    HW199683  12.570   3.711   8.538
99262SOL    HW299684  12.525   3.586   8.464
99263SOL     OW99685   7.304   4.639   5.214
99263SOL    HW199686   7.257   4.576   5.267
99263SOL    HW299687   7.287   4.723   5.256
99264SOL     OW99688  10.871   3.318   6.864
99264SOL    HW199689  10.841   3.406   6.845
99264SOL    HW299690  10.960   3.314   6.830
99265SOL     OW99691  10.291   6.315  13.394
99265SOL    HW199692  10.251   6.308  13.481
99265SOL    HW299693  10.360   6.249  13.394
99266SOL     OW99694  13.962   7.130   8.550
99266SOL    HW199695  13.921   7.048   8.578
99266SOL    HW299696  13.897   7.171   8.493
99267SOL     OW99697   1.976  10.285  12.264
99267SOL    HW199698   1.975  10.370  12.308
99267SOL    HW299699   2.006  10.305  12.175
99268SOL     OW99700  11.033  12.724  13.345
99268SOL    HW199701  11.099  12.794  13.349
99268SOL    HW299702  10.984  12.733  13.427
99269SOL     OW99703   1.235  10.611  13.755
99269SOL    HW199704   1.177  10.636  13.683
99269SOL    HW299705   1.242  10.516  13.748
99270SOL     OW99706   1.035   5.914   7.494
99270SOL    HW199707   1.032   5.993   7.440
99270SOL    HW299708   1.059   5.844   7.433
99271SOL     OW99709   4.957   4.944   0.201
99271SOL    HW199710   5.048   4.970   0.186
99271SOL    HW299711   4.961   4.851   0.222
99272SOL     OW99712   3.673   4.768   2.398
99272SOL    HW199713   3.734   4.818   2.343
99272SOL    HW299714   3.621   4.718   2.335
99273SOL     OW99715   5.498  13.386   8.775
99273SOL    HW199716   5.505  13.336   8.856
99273SOL    HW299717   5.412  13.362   8.739
99274SOL     OW99718   9.208   1.212   6.637
99274SOL    HW199719   9.161   1.269   6.576
99274SOL    HW299720   9.288   1.188   6.591
99275SOL     OW99721   4.888   7.636  14.837
99275SOL    HW199722   4.831   7.697  14.790
99275SOL    HW299723   4.954   7.610  14.773
99276SOL     OW99724   1.102  10.015   9.997
99276SOL    HW199725   1.189  10.047   9.973
99276SOL    HW299726   1.077   9.956   9.926
99277SOL     OW99727   4.413  11.304   9.456
99277SOL    HW199728   4.441  11.216   9.481
99277SOL    HW299729   4.485  11.361   9.484
99278SOL     OW99730  13.863   7.261  11.495
99278SOL    HW199731  13.838   7.335  11.441
99278SOL    HW299732  13.787   7.246  11.552
99279SOL     OW99733   8.241   0.873   1.767
99279SOL    HW199734   8.180   0.800   1.767
99279SOL    HW299735   8.217   0.924   1.845
99280SOL     OW99736   3.814   0.043   3.240
99280SOL    HW199737   3.821  14.821   3.223
99280SOL    HW299738   3.889   0.063   3.295
99281SOL     OW99739  10.637   6.474   9.793
99281SOL    HW199740  10.553   6.430   9.804
99281SOL    HW299741  10.700   6.419   9.839
99282SOL     OW99742   4.267  10.297   8.645
99282SOL    HW199743   4.312  10.258   8.570
99282SOL    HW299744   4.337  10.335   8.698
99283SOL     OW99745   0.485  13.722   8.123
99283SOL    HW199746   0.410  13.666   8.103
99283SOL    HW299747   0.489  13.784   8.050
99284SOL     OW99748   5.591   3.046   6.169
99284SOL    HW199749   5.588   3.091   6.253
99284SOL    HW299750   5.513   2.991   6.168
99285SOL     OW99751  10.221   6.278   3.112
99285SOL    HW199752  10.299   6.249   3.158
99285SOL    HW299753  10.161   6.307   3.182
99286SOL     OW99754  11.233  10.490   2.353
99286SOL    HW199755  11.143  10.476   2.380
99286SOL    HW299756  11.238  10.583   2.331
99287SOL     OW99757   8.470   9.880  13.072
99287SOL    HW199758   8.511   9.946  13.127
99287SOL    HW299759   8.411   9.833  13.130
99288SOL     OW99760  12.730  13.219   3.368
99288SOL    HW199761  12.695  13.132   3.386
99288SOL    HW299762  12.653  13.272   3.346
99289SOL     OW99763   8.073   6.920   8.554
99289SOL    HW199764   8.073   6.905   8.459
99289SOL    HW299765   7.988   6.886   8.583
99290SOL     OW99766   7.304  11.861   0.914
99290SOL    HW199767   7.266  11.899   0.835
99290SOL    HW299768   7.260  11.776   0.922
99291SOL     OW99769   8.582   6.509   2.428
99291SOL    HW199770   8.644   6.539   2.494
99291SOL    HW299771   8.558   6.588   2.380
99292SOL     OW99772  12.809   1.636   0.100
99292SOL    HW199773  12.766   1.721   0.090
99292SOL    HW299774  12.756   1.576   0.047
99293SOL     OW99775  13.491   4.389  10.884
99293SOL    HW199776  13.566   4.398  10.825
99293SOL    HW299777  13.523   4.421  10.968
99294SOL     OW99778  13.966  10.753   4.606
99294SOL    HW199779  13.946  10.725   4.516
99294SOL    HW299780  14.036  10.694   4.634
99295SOL     OW99781   7.571   3.153  13.246
99295SOL    HW199782   7.613   3.067  13.237
99295SOL    HW299783   7.540   3.173  13.158
99296SOL     OW99784   9.729   2.383  11.560
99296SOL    HW199785   9.800   2.319  11.554
99296SOL    HW299786   9.752   2.438  11.635
99297SOL     OW99787   6.871   9.647  13.274
99297SOL    HW199788   6.808   9.687  13.213
99297SOL    HW299789   6.878   9.711  13.345
99298SOL     OW99790   2.412  13.352  14.372
99298SOL    HW199791   2.468  13.282  14.405
99298SOL    HW299792   2.471  13.413  14.328
99299SOL     OW99793   8.352  13.446   5.231
99299SOL    HW199794   8.311  13.530   5.249
99299SOL    HW299795   8.357  13.442   5.135
99300SOL     OW99796  14.458   7.543  13.179
99300SOL    HW199797  14.463   7.605  13.106
99300SOL    HW299798  14.399   7.474  13.148
99301SOL     OW99799   2.407   1.822  13.630
99301SOL    HW199800   2.339   1.761  13.661
99301SOL    HW299801   2.404   1.814  13.535
99302SOL     OW99802  13.469   5.451   3.016
99302SOL    HW199803  13.427   5.534   3.037
99302SOL    HW299804  13.522   5.430   3.093
99303SOL     OW99805  11.176  12.878  10.915
99303SOL    HW199806  11.174  12.973  10.903
99303SOL    HW299807  11.269  12.857  10.919
99304SOL     OW99808   4.297  12.296  13.324
99304SOL    HW199809   4.315  12.361  13.256
99304SOL    HW299810   4.376  12.295  13.378
99305SOL     OW99811   9.727   4.044   5.516
99305SOL    HW199812   9.700   4.134   5.504
99305SOL    HW299813   9.823   4.048   5.525
99306SOL     OW99814  14.730   2.198  12.902
99306SOL    HW199815  14.722   2.243  12.818
99306SOL    HW299816  14.756   2.109  12.880
99307SOL     OW99817  13.053  14.558   5.002
99307SOL    HW199818  13.054  14.566   4.907
99307SOL    HW299819  13.140  14.586   5.030
99308SOL     OW99820   7.266   3.109  10.742
99308SOL    HW199821   7.193   3.171  10.746
99308SOL    HW299822   7.225   3.024  10.758
99309SOL     OW99823   5.766   0.034   6.487
99309SOL    HW199824   5.790   0.027   6.394
99309SOL    HW299825   5.746   0.127   6.499
99310SOL     OW99826   6.002   3.795   8.057
99310SOL    HW199827   5.979   3.747   7.978
99310SOL    HW299828   5.963   3.744   8.128
99311SOL     OW99829   0.729  14.293  13.580
99311SOL    HW199830   0.811  14.286  13.629
99311SOL    HW299831   0.688  14.207  13.590
99312SOL     OW99832   0.113   4.189   1.636
99312SOL    HW199833   0.092   4.119   1.697
99312SOL    HW299834   0.171   4.149   1.572
99313SOL     OW99835  10.513  11.539  12.416
99313SOL    HW199836  10.585  11.475  12.410
99313SOL    HW299837  10.508  11.561  12.509
99314SOL     OW99838  13.321  10.819  10.238
99314SOL    HW199839  13.230  10.817  10.266
99314SOL    HW299840  13.331  10.903  10.193
99315SOL     OW99841  13.058   0.406   3.337
99315SOL    HW199842  12.964   0.419   3.349
99315SOL    HW299843  13.065   0.325   3.286
99316SOL     OW99844   0.970   0.356   4.446
99316SOL    HW199845   0.989   0.416   4.518
99316SOL    HW299846   1.043   0.294   4.446
99317SOL     OW99847   7.415   5.785   8.345
99317SOL    HW199848   7.484   5.847   8.323
99317SOL    HW299849   7.356   5.787   8.269
99318SOL     OW99850   3.439  12.470  10.829
99318SOL    HW199851   3.499  12.402  10.857
99318SOL    HW299852   3.477  12.504  10.748
99319SOL     OW99853   5.901   7.619  12.426
99319SOL    HW199854   5.862   7.534  12.404
99319SOL    HW299855   5.888   7.627  12.521
99320SOL     OW99856   2.697   5.928   6.384
99320SOL    HW199857   2.685   5.864   6.454
99320SOL    HW299858   2.736   6.004   6.428
99321SOL     OW99859   0.046   4.121   2.886
99321SOL    HW199860  14.834   4.126   2.930
99321SOL    HW299861   0.098   4.061   2.940
99322SOL     OW99862   9.547   6.181   8.223
99322SOL    HW199863   9.601   6.146   8.294
99322SOL    HW299864   9.530   6.272   8.248
99323SOL     OW99865   1.251   0.762   9.713
99323SOL    HW199866   1.222   0.841   9.667
99323SOL    HW299867   1.333   0.788   9.756
99324SOL     OW99868   4.449   2.433   9.717
99324SOL    HW199869   4.425   2.467   9.631
99324SOL    HW299870   4.369   2.393   9.751
99325SOL     OW99871   4.706   8.066   2.621
99325SOL    HW199872   4.628   8.044   2.672
99325SOL    HW299873   4.739   8.146   2.662
99326SOL     OW99874  12.482   5.440   1.038
99326SOL    HW199875  12.454   5.491   0.962
99326SOL    HW299876  12.415   5.459   1.104
99327SOL     OW99877   0.300  10.097  11.140
99327SOL    HW199878   0.323  10.037  11.069
99327SOL    HW299879   0.362  10.078  11.210
99328SOL     OW99880   1.729   2.980   3.560
99328SOL    HW199881   1.721   3.073   3.578
99328SOL    HW299882   1.641   2.952   3.535
99329SOL     OW99883   9.135   7.070  14.668
99329SOL    HW199884   9.138   7.013  14.591
99329SOL    HW299885   9.224   7.106  14.675
99330SOL     OW99886  11.786   6.870  11.037
99330SOL    HW199887  11.832   6.952  11.053
99330SOL    HW299888  11.710   6.895  10.984
99331SOL     OW99889   5.259   8.142   0.184
99331SOL    HW199890   5.306   8.074   0.231
99331SOL    HW299891   5.318   8.168   0.113
99332SOL     OW99892  13.298   4.794   3.094
99332SOL    HW199893  13.368   4.851   3.061
99332SOL    HW299894  13.279   4.735   3.022
99333SOL     OW99895   2.868   7.601   2.675
99333SOL    HW199896   2.801   7.630   2.612
99333SOL    HW299897   2.834   7.517   2.707
99334SOL     OW99898  13.909   2.170   9.551
99334SOL    HW199899  13.835   2.230   9.536
99334SOL    HW299900  13.984   2.228   9.562
99335SOL     OW99901  10.671  11.321   0.150
99335SOL    HW199902  10.590  11.290   0.111
99335SOL    HW299903  10.662  11.303   0.243
99336SOL     OW99904  12.221   5.751   4.424
99336SOL    HW199905  12.128   5.731   4.412
99336SOL    HW299906  12.265   5.702   4.354
99337SOL     OW99907  13.119   0.298   6.733
99337SOL    HW199908  13.045   0.261   6.685
99337SOL    HW299909  13.182   0.323   6.666
99338SOL     OW99910   4.849   6.134   6.005
99338SOL    HW199911   4.887   6.120   5.918
99338SOL    HW299912   4.792   6.058   6.019
99339SOL     OW99913   3.495   2.301   8.583
99339SOL    HW199914   3.435   2.233   8.613
99339SOL    HW299915   3.543   2.261   8.510
99340SOL     OW99916   5.974   8.730   3.343
99340SOL    HW199917   5.903   8.711   3.282
99340SOL    HW299918   5.938   8.797   3.401
99341SOL     OW99919   3.958   8.636   4.545
99341SOL    HW199920   3.977   8.575   4.617
99341SOL    HW299921   3.882   8.685   4.576
99342SOL     OW99922  14.114   1.759   7.242
99342SOL    HW199923  14.059   1.807   7.304
99342SOL    HW299924  14.190   1.815   7.228
99343SOL     OW99925  12.256  13.129   5.395
99343SOL    HW199926  12.199  13.052   5.389
99343SOL    HW299927  12.231  13.172   5.477
99344SOL     OW99928   9.123   8.525  14.448
99344SOL    HW199929   9.126   8.592  14.380
99344SOL    HW299930   9.197   8.468  14.428
99345SOL     OW99931  11.628  14.280   8.245
99345SOL    HW199932  11.589  14.340   8.308
99345SOL    HW299933  11.722  14.298   8.249
99346SOL     OW99934  11.363   4.386   4.909
99346SOL    HW199935  11.295   4.369   4.844
99346SOL    HW299936  11.315   4.410   4.989
99347SOL     OW99937  14.542   0.662  13.410
99347SOL    HW199938  14.533   0.582  13.358
99347SOL    HW299939  14.455   0.675  13.448
99348SOL     OW99940   0.241   6.418   2.101
99348SOL    HW199941   0.336   6.409   2.096
99348SOL    HW299942   0.223   6.502   2.058
99349SOL     OW99943   0.530   2.781   6.386
99349SOL    HW199944   0.531   2.694   6.346
99349SOL    HW299945   0.558   2.840   6.316
99350SOL     OW99946   5.900  11.967   9.359
99350SOL    HW199947   5.826  12.025   9.345
99350SOL    HW299948   5.967  12.023   9.398
99351SOL     OW99949  12.963   0.874  12.262
99351SOL    HW199950  13.057   0.863  12.248
99351SOL    HW299951  12.932   0.920  12.184
99352SOL     OW99952   3.125   4.482   6.917
99352SOL    HW199953   3.102   4.494   7.009
99352SOL    HW299954   3.179   4.558   6.896
99353SOL     OW99955   5.695  14.361   9.013
99353SOL    HW199956   5.755  14.325   8.948
99353SOL    HW299957   5.696  14.298   9.085
99354SOL     OW99958   6.492   8.859  10.790
99354SOL    HW199959   6.579   8.851  10.751
99354SOL    HW299960   6.447   8.778  10.765
99355SOL     OW99961  13.939   5.206   4.904
99355SOL    HW199962  13.979   5.251   4.978
99355SOL    HW299963  13.850   5.240   4.900
99356SOL     OW99964  12.686   0.962   4.257
99356SOL    HW199965  12.596   0.974   4.286
99356SOL    HW299966  12.722   1.051   4.253
99357SOL     OW99967   0.345   5.930   1.836
99357SOL    HW199968   0.270   5.986   1.858
99357SOL    HW299969   0.422   5.983   1.859
99358SOL     OW99970  13.748   8.399   7.705
99358SOL    HW199971  13.827   8.436   7.744
99358SOL    HW299972  13.712   8.469   7.651
99359SOL     OW99973   6.849   0.958  13.412
99359SOL    HW199974   6.884   0.990  13.495
99359SOL    HW299975   6.872   0.865  13.411
99360SOL     OW99976   8.022   5.869   1.934
99360SOL    HW199977   8.100   5.896   1.885
99360SOL    HW299978   8.030   5.914   2.018
99361SOL     OW99979  13.756   8.660  12.110
99361SOL    HW199980  13.797   8.705  12.184
99361SOL    HW299981  13.662   8.677  12.121
99362SOL     OW99982   7.923   5.235   2.912
99362SOL    HW199983   7.886   5.320   2.887
99362SOL    HW299984   7.873   5.209   2.989
99363SOL     OW99985   0.393   4.228   9.727
99363SOL    HW199986   0.467   4.251   9.783
99363SOL    HW299987   0.339   4.171   9.783
99364SOL     OW99988   0.247   5.246  14.239
99364SOL    HW199989   0.271   5.255  14.331
99364SOL    HW299990   0.307   5.181  14.204
99365SOL     OW99991  14.728   7.561   5.276
99365SOL    HW199992  14.799   7.506   5.245
99365SOL    HW299993  14.770   7.643   5.302
99366SOL     OW99994   4.200   7.244   0.054
99366SOL    HW199995   4.173   7.212   0.140
99366SOL    HW299996   4.249   7.324   0.072
99367SOL     OW99997  11.491  13.047  11.947
99367SOL    HW199998  11.403  13.065  11.981
99367SOL    HW299999  11.530  12.988  12.011
99368SOL     OW    0  12.704  10.360  14.025
99368SOL    HW1    1  12.640  10.353  14.096
99368SOL    HW2    2  12.734  10.451  14.029
99369SOL     OW    3  12.294   9.532   3.687
99369SOL    HW1    4  12.384   9.558   3.704
99369SOL    HW2    5  12.277   9.558   3.597
99370SOL     OW    6  11.231   9.167   3.755
99370SOL    HW1    7  11.186   9.252   3.752
99370SOL    HW2    8  11.172   9.107   3.711
99371SOL     OW    9  11.210   0.325   9.182
99371SOL    HW1   10  11.250   0.244   9.150
99371SOL    HW2   11  11.276   0.393   9.165
99372SOL     OW   12  13.120  14.156  13.899
99372SOL    HW1   13  13.049  14.094  13.916
99372SOL    HW2   14  13.078  14.227  13.851
99373SOL     OW   15  10.815  11.199   8.486
99373SOL    HW1   16  10.805  11.230   8.396
99373SOL    HW2   17  10.903  11.226   8.511
99374SOL     OW   18   9.982   3.982  13.802
99374SOL    HW1   19   9.987   3.907  13.743
99374SOL    HW2   20   9.922   3.954  13.872
99375SOL     OW   21   9.217   4.091   5.488
99375SOL    HW1   22   9.299   4.112   5.443
99375SOL    HW2   23   9.161   4.167   5.472
99376SOL     OW   24   5.032   7.370   3.843
99376SOL    HW1   25   4.991   7.381   3.758
99376SOL    HW2   26   5.039   7.275   3.855
99377SOL     OW   27   2.444   3.020   4.418
99377SOL    HW1   28   2.502   3.095   4.406
99377SOL    HW2   29   2.427   3.017   4.512
99378SOL     OW   30  13.887   8.131   0.421
99378SOL    HW1   31  13.841   8.164   0.498
99378SOL    HW2   32  13.818   8.096   0.365
99379SOL     OW   33   3.050   6.395  13.914
99379SOL    HW1   34   3.046   6.479  13.961
99379SOL    HW2   35   3.035   6.418  13.822
99380SOL     OW   36  10.877  10.812  10.660
99380SOL    HW1   37  10.837  10.814  10.746
99380SOL    HW2   38  10.874  10.720  10.635
99381SOL     OW   39   6.048   6.987   2.862
99381SOL    HW1   40   6.129   7.031   2.837
99381SOL    HW2   41   6.010   7.042   2.930
99382SOL     OW   42   0.299  12.947   4.804
99382SOL    HW1   43   0.274  12.885   4.873
99382SOL    HW2   44   0.394  12.955   4.812
99383SOL     OW   45   3.514   0.619  13.905
99383SOL    HW1   46   3.573   0.626  13.830
99383SOL    HW2   47   3.556   0.672  13.973
99384SOL     OW   48   1.506   0.448   2.678
99384SOL    HW1   49   1.601   0.442   2.683
99384SOL    HW2   50   1.483   0.393   2.603
99385SOL     OW   51   0.555   5.085  13.860
99385SOL    HW1   52   0.616   5.152  13.891
99385SOL    HW2   53   0.494   5.072  13.932
99386SOL     OW   54   0.632   2.680   8.320
99386SOL    HW1   55   0.704   2.691   8.259
99386SOL    HW2   56   0.599   2.591   8.303
99387SOL     OW   57  13.447   5.423   4.805
99387SOL    HW1   58  13.380   5.395   4.868
99387SOL    HW2   59  13.429   5.370   4.727
99388SOL     OW   60   6.072  13.767  10.571
99388SOL    HW1   61   6.075  13.801  10.661
99388SOL    HW2   62   6.038  13.678  10.581
99389SOL     OW   63  14.493   5.349  12.385
99389SOL    HW1   64  14.451   5.277  12.338
99389SOL    HW2   65  14.450   5.428  12.351
99390SOL     OW   66   0.189   7.538   9.075
99390SOL    HW1   67   0.254   7.567   9.010
99390SOL    HW2   68   0.122   7.494   9.023
99391SOL     OW   69   6.984   0.008   2.260
99391SOL    HW1   70   6.900   0.037   2.225
99391SOL    HW2   71   6.962  14.841   2.344
99392SOL     OW   72   9.798   8.029   9.578
99392SOL    HW1   73   9.798   7.955   9.518
99392SOL    HW2   74   9.857   8.003   9.649
99393SOL     OW   75  10.660   6.590  12.244
99393SOL    HW1   76  10.712   6.622  12.170
99393SOL    HW2   77  10.606   6.521  12.207
99394SOL     OW   78   3.844   5.662   5.282
99394SOL    HW1   79   3.883   5.749   5.272
99394SOL    HW2   80   3.891   5.623   5.356
99395SOL     OW   81  12.552   0.610   0.616
99395SOL    HW1   82  12.625   0.671   0.632
99395SOL    HW2   83  12.480   0.666   0.586
99396SOL     OW   84  13.864   9.661   3.057
99396SOL    HW1   85  13.823   9.643   2.972
99396SOL    HW2   86  13.790   9.663   3.119
99397SOL     OW   87   4.005  14.468   6.461
99397SOL    HW1   88   4.084  14.439   6.506
99397SOL    HW2   89   4.035  14.535   6.400
99398SOL     OW   90  12.471  13.185  10.900
99398SOL    HW1   91  12.519  13.106  10.924
99398SOL    HW2   92  12.532  13.235  10.846
99399SOL     OW   93   2.583   1.827   5.391
99399SOL    HW1   94   2.658   1.878   5.361
99399SOL    HW2   95   2.600   1.812   5.484
99400SOL     OW   96   2.260  13.726   1.113
99400SOL    HW1   97   2.299  13.727   1.200
99400SOL    HW2   98   2.276  13.815   1.079
99401SOL     OW   99   1.732  13.963  10.208
99401SOL    HW1  100   1.656  13.905  10.204
99401SOL    HW2  101   1.747  13.989  10.118
99402SOL     OW  102  13.005   4.894   8.239
99402SOL    HW1  103  12.955   4.880   8.320
99402SOL    HW2  104  13.079   4.835   8.245
99403SOL     OW  105   4.344  10.036   0.801
99403SOL    HW1  106   4.309  10.098   0.737
99403SOL    HW2  107   4.357   9.955   0.751
99404SOL     OW  108   3.066  13.920   3.287
99404SOL    HW1  109   2.977  13.919   3.322
99404SOL    HW2  110   3.073  13.839   3.238
99405SOL     OW  111  10.194  10.290  10.216
99405SOL    HW1  112  10.215  10.301  10.123
99405SOL    HW2  113  10.099  10.288  10.219
99406SOL     OW  114  12.791   3.284  10.046
99406SOL    HW1  115  12.754   3.339  10.115
99406SOL    HW2  116  12.857   3.231  10.090
99407SOL     OW  117   4.804   5.102   6.633
99407SOL    HW1  118   4.832   5.192   6.653
99407SOL    HW2  119   4.817   5.094   6.538
99408SOL     OW  120   6.206  12.006   9.431
99408SOL    HW1  121   6.173  12.096   9.426
99408SOL    HW2  122   6.289  12.008   9.383
99409SOL     OW  123   0.446   8.718   7.202
99409SOL    HW1  124   0.409   8.676   7.125
99409SOL    HW2  125   0.485   8.799   7.168
99410SOL     OW  126   4.229  11.475   3.798
99410SOL    HW1  127   4.178  11.501   3.720
99410SOL    HW2  128   4.251  11.558   3.840
99411SOL     OW  129   0.650  10.773  14.669
99411SOL    HW1  130   0.645  10.688  14.625
99411SOL    HW2  131   0.631  10.753  14.761
99412SOL     OW  132   0.942   7.824   4.781
99412SOL    HW1  133   0.869   7.775   4.816
99412SOL    HW2  134   1.020   7.779   4.814
99413SOL     OW  135   8.179   1.974   8.838
99413SOL    HW1  136   8.164   1.886   8.803
99413SOL    HW2  137   8.269   1.994   8.813
99414SOL     OW  138   5.562   0.333   9.264
99414SOL    HW1  139   5.586   0.282   9.186
99414SOL    HW2  140   5.551   0.422   9.232
99415SOL     OW  141   7.436   9.409   6.720
99415SOL    HW1  142   7.512   9.458   6.751
99415SOL    HW2  143   7.473   9.335   6.672
99416SOL     OW  144   2.524  10.941   7.960
99416SOL    HW1  145   2.458  11.003   7.927
99416SOL    HW2  146   2.474  10.881   8.016
99417SOL     OW  147   2.230   1.992   3.005
99417SOL    HW1  148   2.170   1.959   3.072
99417SOL    HW2  149   2.228   1.924   2.937
99418SOL     OW  150  11.965   4.658   0.674
99418SOL    HW1  151  11.985   4.578   0.625
99418SOL    HW2  152  11.988   4.637   0.764
99419SOL     OW  153   6.735   0.549  14.128
99419SOL    HW1  154   6.786   0.598  14.193
99419SOL    HW2  155   6.663   0.511  14.177
99420SOL     OW  156   5.019   1.116   1.625
99420SOL    HW1  157   4.945   1.142   1.680
99420SOL    HW2  158   4.978   1.083   1.545
99421SOL     OW  159   6.965   3.293  14.814
99421SOL    HW1  160   6.956   3.286  14.719
99421SOL    HW2  161   7.019   3.218  14.839
99422SOL     OW  162  12.599   9.921  10.717
99422SOL    HW1  163  12.655   9.968  10.656
99422SOL    HW2  164  12.641   9.835  10.727
99423SOL     OW  165   9.308  12.761   0.614
99423SOL    HW1  166   9.385  12.765   0.671
99423SOL    HW2  167   9.340  12.724   0.532
99424SOL     OW  168  11.502   8.755   7.882
99424SOL    HW1  169  11.565   8.820   7.850
99424SOL    HW2  170  11.544   8.670   7.864
99425SOL     OW  171   5.613   4.069   8.369
99425SOL    HW1  172   5.525   4.090   8.338
99425SOL    HW2  173   5.663   4.150   8.357
99426SOL     OW  174  11.967   0.774   4.004
99426SOL    HW1  175  11.948   0.693   3.956
99426SOL    HW2  176  11.883   0.802   4.039
99427SOL     OW  177  10.993   8.488   0.386
99427SOL    HW1  178  10.933   8.561   0.404
99427SOL    HW2  179  11.017   8.456   0.473
99428SOL     OW  180   8.728   5.049   6.266
99428SOL    HW1  181   8.714   5.142   6.248
99428SOL    HW2  182   8.746   5.045   6.360
99429SOL     OW  183  11.318   3.734   9.799
99429SOL    HW1  184  11.262   3.812   9.799
99429SOL    HW2  185  11.277   3.674   9.861
99430SOL     OW  186   7.960   4.247   4.982
99430SOL    HW1  187   7.900   4.180   5.013
99430SOL    HW2  188   7.906   4.307   4.931
99431SOL     OW  189  10.721   9.986   1.497
99431SOL    HW1  190  10.809   9.956   1.476
99431SOL    HW2  191  10.668   9.906   1.500
99432SOL     OW  192   7.547  13.062  10.325
99432SOL    HW1  193   7.489  12.991  10.300
99432SOL    HW2  194   7.624  13.051  10.269
99433SOL     OW  195   6.064   6.630   0.125
99433SOL    HW1  196   5.976   6.644   0.090
99433SOL    HW2  197   6.050   6.613   0.218
99434SOL     OW  198   5.319  10.136   5.162
99434SOL    HW1  199   5.284  10.106   5.078
99434SOL    HW2  200   5.404  10.175   5.141
99435SOL     OW  201  10.191   8.214   7.902
99435SOL    HW1  202  10.278   8.249   7.881
99435SOL    HW2  203  10.206   8.157   7.977
99436SOL     OW  204  13.493  10.375  13.918
99436SOL    HW1  205  13.427  10.384  13.987
99436SOL    HW2  206  13.573  10.350  13.965
99437SOL     OW  207   5.275  10.749   4.645
99437SOL    HW1  208   5.260  10.750   4.550
99437SOL    HW2  209   5.358  10.704   4.656
99438SOL     OW  210   4.514  10.432   4.001
99438SOL    HW1  211   4.490  10.498   3.936
99438SOL    HW2  212   4.555  10.363   3.950
99439SOL     OW  213   2.749   9.566   5.204
99439SOL    HW1  214   2.757   9.601   5.293
99439SOL    HW2  215   2.839   9.559   5.173
99440SOL     OW  216   8.556   5.698   5.323
99440SOL    HW1  217   8.615   5.673   5.253
99440SOL    HW2  218   8.480   5.735   5.279
99441SOL     OW  219  11.423  11.426  14.114
99441SOL    HW1  220  11.514  11.397  14.110
99441SOL    HW2  221  11.405  11.460  14.026
99442SOL     OW  222   2.202   5.877  11.751
99442SOL    HW1  223   2.213   5.786  11.776
99442SOL    HW2  224   2.281   5.921  11.785
99443SOL     OW  225   3.528  10.001   6.000
99443SOL    HW1  226   3.448  10.015   6.050
99443SOL    HW2  227   3.507  10.035   5.912
99444SOL     OW  228   5.713   0.603  14.208
99444SOL    HW1  229   5.764   0.683  14.192
99444SOL    HW2  230   5.624   0.634  14.224
99445SOL     OW  231   7.571   9.224  12.853
99445SOL    HW1  232   7.558   9.259  12.942
99445SOL    HW2  233   7.665   9.225  12.840
99446SOL     OW  234   8.234  12.612  14.383
99446SOL    HW1  235   8.246  12.686  14.442
99446SOL    HW2  236   8.315  12.561  14.391
99447SOL     OW  237   6.889  11.134   9.993
99447SOL    HW1  238   6.831  11.128   9.917
99447SOL    HW2  239   6.833  11.167  10.063
99448SOL     OW  240  10.207  13.898  11.884
99448SOL    HW1  241  10.179  13.989  11.873
99448SOL    HW2  242  10.132  13.846  11.858
99449SOL     OW  243   5.700  12.763   3.224
99449SOL    HW1  244   5.660  12.682   3.257
99449SOL    HW2  245   5.654  12.833   3.271
99450SOL     OW  246   3.888  12.961   2.179
99450SOL    HW1  247   3.901  13.054   2.161
99450SOL    HW2  248   3.854  12.959   2.269
99451SOL     OW  249  13.676   9.748   7.289
99451SOL    HW1  250  13.641   9.779   7.372
99451SOL    HW2  251  13.651   9.815   7.226
99452SOL     OW  252   0.788  11.055  14.829
99452SOL    HW1  253   0.818  10.997  14.759
99452SOL    HW2  254   0.693  11.058  14.818
99453SOL     OW  255   2.313  13.573  12.664
99453SOL    HW1  256   2.253  13.505  12.634
99453SOL    HW2  257   2.329  13.553  12.756
99454SOL     OW  258   0.073  10.338   6.814
99454SOL    HW1  259   0.022  10.258   6.831
99454SOL    HW2  260   0.010  10.399   6.777
99455SOL     OW  261   3.428  13.272   3.877
99455SOL    HW1  262   3.343  13.232   3.895
99455SOL    HW2  263   3.416  13.364   3.898
99456SOL     OW  264  13.757   1.700  10.187
99456SOL    HW1  265  13.839   1.653  10.206
99456SOL    HW2  266  13.772   1.739  10.101
99457SOL     OW  267   6.583   8.123  13.094
99457SOL    HW1  268   6.507   8.067  13.106
99457SOL    HW2  269   6.624   8.126  13.181
99458SOL     OW  270   7.340   2.383   6.501
99458SOL    HW1  271   7.415   2.430   6.466
99458SOL    HW2  272   7.281   2.371   6.426
99459SOL     OW  273  12.383   3.191   3.127
99459SOL    HW1  274  12.356   3.282   3.143
99459SOL    HW2  275  12.449   3.197   3.057
99460SOL     OW  276   7.002   9.798  12.119
99460SOL    HW1  277   7.022   9.882  12.160
99460SOL    HW2  278   6.930   9.762  12.170
99461SOL     OW  279   7.624  10.148  10.406
99461SOL    HW1  280   7.578  10.204  10.344
99461SOL    HW2  281   7.717  10.169  10.392
99462SOL     OW  282   9.804   1.409  11.415
99462SOL    HW1  283   9.775   1.494  11.380
99462SOL    HW2  284   9.750   1.345  11.369
99463SOL     OW  285   9.086  11.040  11.663
99463SOL    HW1  286   9.121  11.076  11.744
99463SOL    HW2  287   9.160  10.995  11.622
99464SOL     OW  288   5.656   2.843   1.754
99464SOL    HW1  289   5.686   2.786   1.683
99464SOL    HW2  290   5.589   2.898   1.714
99465SOL     OW  291  13.825  11.692   2.839
99465SOL    HW1  292  13.909  11.686   2.795
99465SOL    HW2  293  13.761  11.701   2.768
99466SOL     OW  294  13.491   8.990  14.820
99466SOL    HW1  295  13.551   8.915  14.827
99466SOL    HW2  296  13.432   8.980   0.023
99467SOL     OW  297  10.137   3.271   5.534
99467SOL    HW1  298  10.115   3.319   5.614
99467SOL    HW2  299  10.063   3.211   5.521
99468SOL     OW  300   3.408   1.218  12.973
99468SOL    HW1  301   3.435   1.288  12.914
99468SOL    HW2  302   3.476   1.215  13.040
99469SOL     OW  303  10.026  12.982   4.397
99469SOL    HW1  304  10.063  12.964   4.483
99469SOL    HW2  305   9.934  12.954   4.404
99470SOL     OW  306   6.611   8.793   3.272
99470SOL    HW1  307   6.705   8.795   3.293
99470SOL    HW2  308   6.567   8.809   3.356
99471SOL     OW  309  10.187   5.308  12.952
99471SOL    HW1  310  10.107   5.315  12.901
99471SOL    HW2  311  10.206   5.397  12.981
99472SOL     OW  312  13.442  11.779   0.488
99472SOL    HW1  313  13.459  11.686   0.505
99472SOL    HW2  314  13.362  11.779   0.435
99473SOL     OW  315   5.660   1.193  14.175
99473SOL    HW1  316   5.629   1.144  14.251
99473SOL    HW2  317   5.634   1.284  14.192
99474SOL     OW  318   9.446  10.635   6.389
99474SOL    HW1  319   9.440  10.703   6.457
99474SOL    HW2  320   9.531  10.594   6.403
99475SOL     OW  321   6.517  14.736   5.802
99475SOL    HW1  322   6.583  14.737   5.732
99475SOL    HW2  323   6.460  14.810   5.781
99476SOL     OW  324   3.028   2.891  13.163
99476SOL    HW1  325   3.020   2.798  13.145
99476SOL    HW2  326   3.015   2.899  13.257
99477SOL     OW  327  10.063   2.324   9.342
99477SOL    HW1  328  10.023   2.268   9.408
99477SOL    HW2  329  10.126   2.267   9.297
99478SOL     OW  330  10.087   4.024  10.509
99478SOL    HW1  331  10.155   4.044  10.573
99478SOL    HW2  332  10.039   3.950  10.547
99479SOL     OW  333   2.138   7.904   8.695
99479SOL    HW1  334   2.047   7.919   8.668
99479SOL    HW2  335   2.155   7.969   8.763
99480SOL     OW  336  10.745  13.132  11.622
99480SOL    HW1  337  10.660  13.091  11.605
99480SOL    HW2  338  10.736  13.172  11.708
99481SOL     OW  339   1.272   2.653   2.629
99481SOL    HW1  340   1.247   2.633   2.719
99481SOL    HW2  341   1.189   2.656   2.581
99482SOL     OW  342   8.288   1.736   9.163
99482SOL    HW1  343   8.331   1.808   9.209
99482SOL    HW2  344   8.196   1.759   9.163
99483SOL     OW  345  10.599  10.081   6.227
99483SOL    HW1  346  10.547  10.110   6.301
99483SOL    HW2  347  10.648  10.005   6.260
99484SOL     OW  348   9.255   9.034   0.581
99484SOL    HW1  349   9.279   9.107   0.524
99484SOL    HW2  350   9.174   8.999   0.543
99485SOL     OW  351   3.692  14.687   3.414
99485SOL    HW1  352   3.764  14.653   3.361
99485SOL    HW2  353   3.613  14.656   3.370
99486SOL     OW  354   9.774  11.200   3.995
99486SOL    HW1  355   9.809  11.117   3.963
99486SOL    HW2  356   9.787  11.261   3.923
99487SOL     OW  357   7.617   3.598   0.934
99487SOL    HW1  358   7.596   3.536   0.864
99487SOL    HW2  359   7.709   3.620   0.921
99488SOL     OW  360   1.001   5.964  10.984
99488SOL    HW1  361   1.049   5.886  11.014
99488SOL    HW2  362   1.062   6.036  10.996
99489SOL     OW  363   3.838   9.178   4.589
99489SOL    HW1  364   3.891   9.114   4.637
99489SOL    HW2  365   3.807   9.239   4.655
99490SOL     OW  366  11.627   4.026  11.195
99490SOL    HW1  367  11.639   3.951  11.136
99490SOL    HW2  368  11.546   4.067  11.165
99491SOL     OW  369   7.870   8.754  14.824
99491SOL    HW1  370   7.778   8.762  14.850
99491SOL    HW2  371   7.906   8.842  14.835
99492SOL     OW  372   3.798   8.127  12.327
99492SOL    HW1  373   3.805   8.199  12.389
99492SOL    HW2  374   3.780   8.050  12.381
99493SOL     OW  375   4.589   3.424   2.491
99493SOL    HW1  376   4.538   3.355   2.534
99493SOL    HW2  377   4.539   3.504   2.507
99494SOL     OW  378  14.709   7.693   1.415
99494SOL    HW1  379  14.792   7.708   1.459
99494SOL    HW2  380  14.686   7.602   1.436
99495SOL     OW  381   6.811   7.445   5.415
99495SOL    HW1  382   6.861   7.491   5.482
99495SOL    HW2  383   6.876   7.395   5.367
99496SOL     OW  384  12.635  14.823   0.528
99496SOL    HW1  385  12.611  14.868   0.447
99496SOL    HW2  386  12.606  14.732   0.515
99497SOL     OW  387  10.685  10.443  12.712
99497SOL    HW1  388  10.715  10.444  12.803
99497SOL    HW2  389  10.722  10.523  12.673
99498SOL     OW  390   3.042   8.508   0.959
99498SOL    HW1  391   3.109   8.440   0.949
99498SOL    HW2  392   3.013   8.500   1.049
99499SOL     OW  393  13.441  11.627   2.563
99499SOL    HW1  394  13.390  11.708   2.568
99499SOL    HW2  395  13.429  11.596   2.474
99500SOL     OW  396   9.662  11.682   0.229
99500SOL    HW1  397   9.733  11.728   0.273
99500SOL    HW2  398   9.704  11.640   0.154
99501SOL     OW  399   8.295  14.811   8.805
99501SOL    HW1  400   8.233  14.741   8.784
99501SOL    HW2  401   8.318  14.849   8.720
99502SOL     OW  402   5.644  11.644   4.597
99502SOL    HW1  403   5.608  11.653   4.685
99502SOL    HW2  404   5.588  11.578   4.555
99503SOL     OW  405   5.711   8.173   4.791
99503SOL    HW1  406   5.672   8.248   4.836
99503SOL    HW2  407   5.799   8.165   4.828
99504SOL     OW  408   8.228   1.930   2.253
99504SOL    HW1  409   8.258   2.007   2.203
99504SOL    HW2  410   8.134   1.943   2.263
99505SOL     OW  411   3.227  11.661   0.424
99505SOL    HW1  412   3.177  11.672   0.504
99505SOL    HW2  413   3.306  11.613   0.451
99506SOL     OW  414   2.341   8.871   7.311
99506SOL    HW1  415   2.365   8.866   7.219
99506SOL    HW2  416   2.281   8.945   7.316
99507SOL     OW  417  12.185   6.692   2.492
99507SOL    HW1  418  12.122   6.726   2.556
99507SOL    HW2  419  12.266   6.740   2.509
99508SOL     OW  420   5.967   8.609   3.786
99508SOL    HW1  421   5.957   8.572   3.698
99508SOL    HW2  422   5.903   8.563   3.840
99509SOL     OW  423  13.771  14.093   7.476
99509SOL    HW1  424  13.826  14.109   7.553
99509SOL    HW2  425  13.774  13.998   7.464
99510SOL     OW  426   4.874   0.474   0.599
99510SOL    HW1  427   4.921   0.557   0.598
99510SOL    HW2  428   4.886   0.438   0.511
99511SOL     OW  429   9.678   2.605  11.383
99511SOL    HW1  430   9.738   2.639  11.316
99511SOL    HW2  431   9.716   2.520  11.408
99512SOL     OW  432   9.420  13.075   4.296
99512SOL    HW1  433   9.396  13.070   4.204
99512SOL    HW2  434   9.516  13.071   4.296
99513SOL     OW  435   9.997   2.358  11.145
99513SOL    HW1  436   9.901   2.359  11.151
99513SOL    HW2  437  10.019   2.442  11.104
99514SOL     OW  438   9.323   3.758   1.470
99514SOL    HW1  439   9.260   3.719   1.532
99514SOL    HW2  440   9.282   3.840   1.444
99515SOL     OW  441   1.177   9.271   5.099
99515SOL    HW1  442   1.167   9.244   5.190
99515SOL    HW2  443   1.107   9.334   5.084
99516SOL     OW  444   2.720   2.727  11.764
99516SOL    HW1  445   2.647   2.735  11.702
99516SOL    HW2  446   2.791   2.689  11.711
99517SOL     OW  447  11.942   9.998   4.626
99517SOL    HW1  448  11.943  10.047   4.544
99517SOL    HW2  449  12.016  10.033   4.675
99518SOL     OW  450   1.166   8.266   1.878
99518SOL    HW1  451   1.196   8.220   1.957
99518SOL    HW2  452   1.146   8.355   1.908
99519SOL     OW  453   2.836  13.898   0.802
99519SOL    HW1  454   2.865  13.838   0.733
99519SOL    HW2  455   2.916  13.936   0.836
99520SOL     OW  456   7.845   9.218   8.840
99520SOL    HW1  457   7.923   9.273   8.833
99520SOL    HW2  458   7.839   9.196   8.933
99521SOL     OW  459  11.899   5.072  14.274
99521SOL    HW1  460  11.932   5.051  14.361
99521SOL    HW2  461  11.918   5.165  14.263
99522SOL     OW  462  13.182   2.282   4.291
99522SOL    HW1  463  13.141   2.272   4.376
99522SOL    HW2  464  13.266   2.325   4.310
99523SOL     OW  465   1.651   8.923   0.993
99523SOL    HW1  466   1.581   8.890   0.936
99523SOL    HW2  467   1.606   8.971   1.062
99524SOL     OW  468   4.230   7.489  13.946
99524SOL    HW1  469   4.251   7.421  13.882
99524SOL    HW2  470   4.182   7.555  13.895
99525SOL     OW  471   4.063  10.950  13.949
99525SOL    HW1  472   4.067  11.043  13.971
99525SOL    HW2  473   4.055  10.906  14.033
99526SOL     OW  474   0.606   2.057  14.678
99526SOL    HW1  475   0.563   1.975  14.701
99526SOL    HW2  476   0.618   2.102  14.762
99527SOL     OW  477   7.877  14.025  14.179
99527SOL    HW1  478   7.901  14.077  14.256
99527SOL    HW2  479   7.860  13.938  14.214
99528SOL     OW  480  11.739   6.251   4.958
99528SOL    HW1  481  11.771   6.317   5.019
99528SOL    HW2  482  11.769   6.282   4.872
99529SOL     OW  483   6.453   1.427   4.901
99529SOL    HW1  484   6.452   1.331   4.900
99529SOL    HW2  485   6.477   1.451   4.812
99530SOL     OW  486  13.920  14.654   3.849
99530SOL    HW1  487  13.963  14.572   3.874
99530SOL    HW2  488  13.989  14.705   3.806
99531SOL     OW  489   8.097   7.458   1.356
99531SOL    HW1  490   8.109   7.474   1.449
99531SOL    HW2  491   8.060   7.371   1.350
99532SOL     OW  492   8.767   7.340  14.050
99532SOL    HW1  493   8.831   7.348  14.121
99532SOL    HW2  494   8.809   7.282  13.987
99533SOL     OW  495   5.460  12.650   8.943
99533SOL    HW1  496   5.518  12.606   8.880
99533SOL    HW2  497   5.434  12.581   9.003
99534SOL     OW  498   9.163  11.202  11.263
99534SOL    HW1  499   9.075  11.219  11.228
99534SOL    HW2  500   9.221  11.248  11.203
99535SOL     OW  501  14.292   8.110  14.360
99535SOL    HW1  502  14.287   8.021  14.325
99535SOL    HW2  503  14.385   8.132  14.359
99536SOL     OW  504   7.196  10.266   9.200
99536SOL    HW1  505   7.116  10.227   9.235
99536SOL    HW2  506   7.224  10.205   9.131
99537SOL     OW  507   7.457  14.045   5.428
99537SOL    HW1  508   7.537  14.094   5.406
99537SOL    HW2  509   7.473  13.957   5.395
99538SOL     OW  510   7.354   3.799   3.928
99538SOL    HW1  511   7.346   3.863   3.998
99538SOL    HW2  512   7.400   3.845   3.858
99539SOL     OW  513   6.181   5.203  12.743
99539SOL    HW1  514   6.088   5.201  12.766
99539SOL    HW2  515   6.222   5.250  12.815
99540SOL     OW  516   1.743   7.093   4.085
99540SOL    HW1  517   1.831   7.095   4.047
99540SOL    HW2  518   1.711   7.183   4.074
99541SOL     OW  519   1.354   2.646   9.838
99541SOL    HW1  520   1.269   2.636   9.880
99541SOL    HW2  521   1.366   2.741   9.831
99542SOL     OW  522   9.081   5.771   1.512
99542SOL    HW1  523   9.045   5.712   1.445
99542SOL    HW2  524   9.067   5.725   1.595
99543SOL     OW  525  14.261   6.256  12.273
99543SOL    HW1  526  14.190   6.293  12.326
99543SOL    HW2  527  14.219   6.185  12.223
99544SOL     OW  528   8.932  13.857  12.361
99544SOL    HW1  529   8.840  13.854  12.387
99544SOL    HW2  530   8.951  13.768  12.331
99545SOL     OW  531   1.416   7.453  14.813
99545SOL    HW1  532   1.420   7.383   0.005
99545SOL    HW2  533   1.455   7.529  14.856
99546SOL     OW  534   1.594   6.169   5.272
99546SOL    HW1  535   1.676   6.143   5.229
99546SOL    HW2  536   1.546   6.087   5.285
99547SOL     OW  537  13.292   3.212   4.926
99547SOL    HW1  538  13.327   3.146   4.867
99547SOL    HW2  539  13.323   3.296   4.892
99548SOL     OW  540  11.996   3.647  12.730
99548SOL    HW1  541  12.078   3.697  12.727
99548SOL    HW2  542  11.930   3.711  12.755
99549SOL     OW  543   3.037  14.731   8.353
99549SOL    HW1  544   2.993  14.793   8.295
99549SOL    HW2  545   2.967  14.697   8.410
99550SOL     OW  546  14.863   9.826   4.633
99550SOL    HW1  547   0.073   9.803   4.589
99550SOL    HW2  548  14.862   9.922   4.632
99551SOL     OW  549   0.005   7.472  14.856
99551SOL    HW1  550   0.032   7.561  14.836
99551SOL    HW2  551   0.082   7.419  14.836
99552SOL     OW  552  10.885  11.659   9.984
99552SOL    HW1  553  10.793  11.682   9.998
99552SOL    HW2  554  10.882  11.579   9.932
99553SOL     OW  555   6.366   5.059  13.851
99553SOL    HW1  556   6.389   5.020  13.767
99553SOL    HW2  557   6.377   5.153  13.839
99554SOL     OW  558  13.155   8.643   0.657
99554SOL    HW1  559  13.172   8.571   0.597
99554SOL    HW2  560  13.062   8.663   0.646
99555SOL     OW  561  10.726   5.562   6.980
99555SOL    HW1  562  10.793   5.628   6.960
99555SOL    HW2  563  10.643   5.603   6.956
99556SOL     OW  564   2.079   7.303  14.488
99556SOL    HW1  565   2.034   7.380  14.453
99556SOL    HW2  566   2.057   7.233  14.426
99557SOL     OW  567   0.559   8.671   2.531
99557SOL    HW1  568   0.610   8.699   2.455
99557SOL    HW2  569   0.602   8.591   2.560
99558SOL     OW  570   6.772  10.216   7.452
99558SOL    HW1  571   6.835  10.143   7.454
99558SOL    HW2  572   6.723  10.207   7.534
99559SOL     OW  573   4.023   2.541  10.262
99559SOL    HW1  574   4.094   2.596  10.296
99559SOL    HW2  575   4.017   2.469  10.325
99560SOL     OW  576   4.190   4.636   7.854
99560SOL    HW1  577   4.225   4.722   7.881
99560SOL    HW2  578   4.145   4.604   7.932
99561SOL     OW  579   7.161   2.786  11.457
99561SOL    HW1  580   7.099   2.786  11.384
99561SOL    HW2  581   7.107   2.800  11.534
99562SOL     OW  582  13.429  13.687   6.002
99562SOL    HW1  583  13.342  13.683   5.963
99562SOL    HW2  584  13.463  13.773   5.977
99563SOL     OW  585   2.551  12.850   9.996
99563SOL    HW1  586   2.491  12.777   9.982
99563SOL    HW2  587   2.638  12.810   9.998
99564SOL     OW  588  12.994   4.899   1.912
99564SOL    HW1  589  12.912   4.851   1.907
99564SOL    HW2  590  13.061   4.837   1.883
99565SOL     OW  591   4.940  14.699  13.386
99565SOL    HW1  592   4.852  14.692  13.423
99565SOL    HW2  593   4.998  14.671  13.456
99566SOL     OW  594   3.307  10.261  11.314
99566SOL    HW1  595   3.353  10.234  11.393
99566SOL    HW2  596   3.221  10.289  11.345
99567SOL     OW  597  12.618  11.781  10.013
99567SOL    HW1  598  12.556  11.713  10.038
99567SOL    HW2  599  12.587  11.860  10.058
99568SOL     OW  600  10.545   4.281  12.327
99568SOL    HW1  601  10.596   4.221  12.382
99568SOL    HW2  602  10.483   4.322  12.387
99569SOL     OW  603   2.094   8.298   1.618
99569SOL    HW1  604   2.075   8.341   1.701
99569SOL    HW2  605   2.189   8.298   1.612
99570SOL     OW  606   4.583   5.541   6.119
99570SOL    HW1  607   4.532   5.621   6.131
99570SOL    HW2  608   4.598   5.509   6.208
99571SOL     OW  609   7.233  14.402   3.857
99571SOL    HW1  610   7.200  14.418   3.945
99571SOL    HW2  611   7.206  14.312   3.837
99572SOL     OW  612  13.817   6.486   4.399
99572SOL    HW1  613  13.891   6.496   4.338
99572SOL    HW2  614  13.757   6.426   4.355
99573SOL     OW  615   2.736   4.983   3.039
99573SOL    HW1  616   2.703   4.894   3.025
99573SOL    HW2  617   2.782   4.979   3.122
99574SOL     OW  618   2.664   2.703   5.280
99574SOL    HW1  619   2.578   2.733   5.309
99574SOL    HW2  620   2.692   2.767   5.214
99575SOL     OW  621   8.095   0.587   8.296
99575SOL    HW1  622   8.137   0.627   8.373
99575SOL    HW2  623   8.031   0.526   8.333
99576SOL     OW  624  12.347  11.398   6.954
99576SOL    HW1  625  12.388  11.340   7.018
99576SOL    HW2  626  12.294  11.340   6.899
99577SOL     OW  627  10.699  13.394   7.730
99577SOL    HW1  628  10.666  13.331   7.794
99577SOL    HW2  629  10.790  13.371   7.718
99578SOL     OW  630   4.089  11.383   8.653
99578SOL    HW1  631   4.000  11.416   8.641
99578SOL    HW2  632   4.079  11.290   8.671
99579SOL     OW  633   8.264   6.920   9.773
99579SOL    HW1  634   8.274   6.956   9.861
99579SOL    HW2  635   8.290   6.992   9.715
99580SOL     OW  636   1.697   2.667   3.066
99580SOL    HW1  637   1.737   2.619   3.138
99580SOL    HW2  638   1.768   2.721   3.031
99581SOL     OW  639   3.171  14.620   7.302
99581SOL    HW1  640   3.090  14.589   7.261
99581SOL    HW2  641   3.142  14.664   7.381
99582SOL     OW  642  11.947   6.459   5.566
99582SOL    HW1  643  12.005   6.385   5.548
99582SOL    HW2  644  11.885   6.426   5.630
99583SOL     OW  645  11.132  14.326  11.978
99583SOL    HW1  646  11.057  14.369  12.019
99583SOL    HW2  647  11.134  14.361  11.889
99584SOL     OW  648   9.626   0.511   9.953
99584SOL    HW1  649   9.721   0.507   9.938
99584SOL    HW2  650   9.601   0.599   9.925
99585SOL     OW  651   2.912   6.119   1.326
99585SOL    HW1  652   2.863   6.050   1.371
99585SOL    HW2  653   2.968   6.071   1.265
99586SOL     OW  654   1.708   8.069  11.118
99586SOL    HW1  655   1.677   8.154  11.148
99586SOL    HW2  656   1.676   8.007  11.184
99587SOL     OW  657   3.519   7.853  12.975
99587SOL    HW1  658   3.455   7.923  12.967
99587SOL    HW2  659   3.496   7.791  12.905
99588SOL     OW  660  12.301  14.645   2.339
99588SOL    HW1  661  12.359  14.615   2.408
99588SOL    HW2  662  12.322  14.737   2.327
99589SOL     OW  663  14.797   3.437   4.009
99589SOL    HW1  664  14.846   3.363   4.044
99589SOL    HW2  665  14.705   3.413   4.022
99590SOL     OW  666   0.663   1.449   5.941
99590SOL    HW1  667   0.716   1.397   5.881
99590SOL    HW2  668   0.623   1.385   6.000
99591SOL     OW  669   1.965   1.641   7.753
99591SOL    HW1  670   1.960   1.737   7.751
99591SOL    HW2  671   2.003   1.617   7.668
99592SOL     OW  672  14.802   3.008   5.410
99592SOL    HW1  673  14.723   2.955   5.422
99592SOL    HW2  674  14.770   3.094   5.385
99593SOL     OW  675   9.922  10.084   4.544
99593SOL    HW1  676   9.975  10.088   4.624
99593SOL    HW2  677   9.984  10.105   4.474
99594SOL     OW  678   3.170  10.447   9.335
99594SOL    HW1  679   3.183  10.367   9.386
99594SOL    HW2  680   3.079  10.443   9.306
99595SOL     OW  681   1.409   5.910   3.813
99595SOL    HW1  682   1.441   5.836   3.864
99595SOL    HW2  683   1.331   5.939   3.861
99596SOL     OW  684   2.269   1.794   2.828
99596SOL    HW1  685   2.364   1.804   2.838
99596SOL    HW2  686   2.252   1.701   2.846
99597SOL     OW  687  10.973   0.821  11.787
99597SOL    HW1  688  10.902   0.878  11.759
99597SOL    HW2  689  10.969   0.746  11.727
99598SOL     OW  690  10.101  12.577  13.078
99598SOL    HW1  691  10.173  12.565  13.139
99598SOL    HW2  692  10.027  12.605  13.133
99599SOL     OW  693   4.295   7.582   1.979
99599SOL    HW1  694   4.340   7.607   2.059
99599SOL    HW2  695   4.359   7.530   1.931
99600SOL     OW  696   6.031  13.438   1.227
99600SOL    HW1  697   6.059  13.444   1.318
99600SOL    HW2  698   5.942  13.403   1.232
99601SOL     OW  699  13.848   8.699  10.271
99601SOL    HW1  700  13.866   8.762  10.201
99601SOL    HW2  701  13.934   8.681  10.309
99602SOL     OW  702  12.596  12.548   4.374
99602SOL    HW1  703  12.682  12.507   4.386
99602SOL    HW2  704  12.535  12.487   4.414
99603SOL     OW  705   6.570   9.737  13.925
99603SOL    HW1  706   6.632   9.686  13.978
99603SOL    HW2  707   6.624   9.777  13.857
99604SOL     OW  708   6.028   5.425   7.171
99604SOL    HW1  709   6.101   5.380   7.130
99604SOL    HW2  710   5.990   5.360   7.230
99605SOL     OW  711  13.762   4.034   9.253
99605SOL    HW1  712  13.758   3.939   9.245
99605SOL    HW2  713  13.817   4.062   9.180
99606SOL     OW  714   3.581  10.399   2.420
99606SOL    HW1  715   3.513  10.444   2.470
99606SOL    HW2  716   3.540  10.318   2.390
99607SOL     OW  717   8.408   9.078   6.867
99607SOL    HW1  718   8.373   9.003   6.915
99607SOL    HW2  719   8.351   9.086   6.790
99608SOL     OW  720   5.779   5.066   5.041
99608SOL    HW1  721   5.788   5.011   5.119
99608SOL    HW2  722   5.868   5.076   5.008
99609SOL     OW  723   3.152   3.865  10.079
99609SOL    HW1  724   3.151   3.783  10.128
99609SOL    HW2  725   3.194   3.927  10.139
99610SOL     OW  726  11.453   2.634   6.619
99610SOL    HW1  727  11.543   2.632   6.586
99610SOL    HW2  728  11.398   2.623   6.542
99611SOL     OW  729   7.641   1.597  11.275
99611SOL    HW1  730   7.570   1.643  11.321
99611SOL    HW2  731   7.716   1.606  11.333
99612SOL     OW  732   5.473  10.389  12.014
99612SOL    HW1  733   5.475  10.319  12.079
99612SOL    HW2  734   5.411  10.453  12.049
99613SOL     OW  735   8.814   7.712  14.460
99613SOL    HW1  736   8.801   7.803  14.436
99613SOL    HW2  737   8.905   7.708  14.491
99614SOL     OW  738   7.692   5.163  12.691
99614SOL    HW1  739   7.654   5.249  12.709
99614SOL    HW2  740   7.646   5.104  12.751
99615SOL     OW  741   4.099   8.441  10.776
99615SOL    HW1  742   4.153   8.454  10.697
99615SOL    HW2  743   4.011   8.466  10.749
99616SOL     OW  744   6.812   1.393   5.085
99616SOL    HW1  745   6.906   1.405   5.091
99616SOL    HW2  746   6.799   1.298   5.090
99617SOL     OW  747   1.163   5.296  13.649
99617SOL    HW1  748   1.173   5.366  13.584
99617SOL    HW2  749   1.139   5.341  13.730
99618SOL     OW  750   6.098  11.989   5.791
99618SOL    HW1  751   6.149  12.023   5.718
99618SOL    HW2  752   6.157  11.929   5.836
99619SOL     OW  753   8.826   1.084  14.870
99619SOL    HW1  754   8.759   1.062  14.805
99619SOL    HW2  755   8.790   1.053   0.080
99620SOL     OW  756  12.131  10.050  12.654
99620SOL    HW1  757  12.110  10.009  12.738
99620SOL    HW2  758  12.198  10.115  12.676
99621SOL     OW  759   5.511   9.962  12.367
99621SOL    HW1  760   5.601   9.943  12.340
99621SOL    HW2  761   5.487  10.040  12.316
99622SOL     OW  762   7.301   2.128  10.697
99622SOL    HW1  763   7.309   2.119  10.792
99622SOL    HW2  764   7.375   2.183  10.671
99623SOL     OW  765  13.613  11.032   9.101
99623SOL    HW1  766  13.564  11.097   9.152
99623SOL    HW2  767  13.577  10.947   9.130
99624SOL     OW  768   0.193   4.846   1.352
99624SOL    HW1  769   0.267   4.901   1.323
99624SOL    HW2  770   0.148   4.901   1.417
99625SOL     OW  771  11.359   9.471  13.065
99625SOL    HW1  772  11.452   9.467  13.086
99625SOL    HW2  773  11.320   9.522  13.136
99626SOL     OW  774   6.467  13.930   4.948
99626SOL    HW1  775   6.447  13.909   5.039
99626SOL    HW2  776   6.391  13.898   4.899
99627SOL     OW  777  10.959   5.987   5.181
99627SOL    HW1  778  10.919   5.911   5.140
99627SOL    HW2  779  10.920   6.062   5.136
99628SOL     OW  780   7.705  11.696  11.627
99628SOL    HW1  781   7.792  11.736  11.626
99628SOL    HW2  782   7.681  11.689  11.535
99629SOL     OW  783  11.500   8.771   3.791
99629SOL    HW1  784  11.520   8.783   3.884
99629SOL    HW2  785  11.475   8.858   3.761
99630SOL     OW  786   0.895   0.781  10.128
99630SOL    HW1  787   0.917   0.695  10.090
99630SOL    HW2  788   0.977   0.811  10.167
99631SOL     OW  789   2.802   4.773   9.437
99631SOL    HW1  790   2.865   4.816   9.379
99631SOL    HW2  791   2.819   4.680   9.426
99632SOL     OW  792   3.149   9.529   9.759
99632SOL    HW1  793   3.104   9.444   9.759
99632SOL    HW2  794   3.087   9.589   9.801
99633SOL     OW  795  12.959   3.985  10.612
99633SOL    HW1  796  13.022   3.913  10.616
99633SOL    HW2  797  13.013   4.063  10.601
99634SOL     OW  798   4.193   0.335   8.177
99634SOL    HW1  799   4.237   0.324   8.261
99634SOL    HW2  800   4.100   0.327   8.197
99635SOL     OW  801  11.970  12.479   8.636
99635SOL    HW1  802  12.047  12.523   8.600
99635SOL    HW2  803  11.976  12.494   8.730
99636SOL     OW  804   2.327  13.871   1.925
99636SOL    HW1  805   2.393  13.864   1.993
99636SOL    HW2  806   2.366  13.828   1.849
99637SOL     OW  807  10.922   8.519  14.390
99637SOL    HW1  808  11.004   8.561  14.414
99637SOL    HW2  809  10.921   8.438  14.441
99638SOL     OW  810   7.177  12.023   0.711
99638SOL    HW1  811   7.204  12.104   0.668
99638SOL    HW2  812   7.082  12.022   0.703
99639SOL     OW  813   4.554   6.953   2.553
99639SOL    HW1  814   4.585   6.863   2.543
99639SOL    HW2  815   4.470   6.955   2.508
99640SOL     OW  816  12.071  13.793   0.453
99640SOL    HW1  817  12.029  13.879   0.446
99640SOL    HW2  818  11.998  13.731   0.456
99641SOL     OW  819  12.494   8.003   0.155
99641SOL    HW1  820  12.522   8.022   0.065
99641SOL    HW2  821  12.415   7.950   0.144
99642SOL     OW  822   2.860  12.580   5.436
99642SOL    HW1  823   2.815  12.509   5.389
99642SOL    HW2  824   2.789  12.634   5.472
99643SOL     OW  825  11.653  12.846  13.097
99643SOL    HW1  826  11.680  12.851  13.189
99643SOL    HW2  827  11.692  12.766  13.064
99644SOL     OW  828   5.298   9.024   0.970
99644SOL    HW1  829   5.369   8.990   0.916
99644SOL    HW2  830   5.264   9.099   0.921
99645SOL     OW  831   9.223  12.270  11.548
99645SOL    HW1  832   9.224  12.277  11.643
99645SOL    HW2  833   9.137  12.302  11.522
99646SOL     OW  834   0.619   2.794   3.261
99646SOL    HW1  835   0.650   2.729   3.199
99646SOL    HW2  836   0.572   2.858   3.208
99647SOL     OW  837   0.950   1.095   4.862
99647SOL    HW1  838   0.982   1.059   4.779
99647SOL    HW2  839   0.893   1.027   4.897
99648SOL     OW  840  10.873   5.735   9.566
99648SOL    HW1  841  10.926   5.749   9.644
99648SOL    HW2  842  10.913   5.659   9.523
99649SOL     OW  843  12.259  13.872  10.921
99649SOL    HW1  844  12.283  13.793  10.968
99649SOL    HW2  845  12.341  13.904  10.883
99650SOL     OW  846   6.206   5.747   9.041
99650SOL    HW1  847   6.122   5.769   9.001
99650SOL    HW2  848   6.191   5.758   9.135
99651SOL     OW  849   1.038  11.176   1.030
99651SOL    HW1  850   1.043  11.096   0.978
99651SOL    HW2  851   1.071  11.245   0.972
99652SOL     OW  852   6.388  10.742   0.487
99652SOL    HW1  853   6.449  10.814   0.504
99652SOL    HW2  854   6.439  10.663   0.502
99653SOL     OW  855   1.147   3.975   5.643
99653SOL    HW1  856   1.215   4.041   5.630
99653SOL    HW2  857   1.075   4.023   5.684
99654SOL     OW  858  12.815  12.363  14.727
99654SOL    HW1  859  12.723  12.368  14.751
99654SOL    HW2  860  12.848  12.288  14.778
99655SOL     OW  861   2.247  14.397  10.064
99655SOL    HW1  862   2.311  14.408  10.134
99655SOL    HW2  863   2.182  14.336  10.100
99656SOL     OW  864  13.009  11.606   8.894
99656SOL    HW1  865  13.015  11.689   8.942
99656SOL    HW2  866  12.916  11.581   8.902
99657SOL     OW  867   8.799   8.333   3.834
99657SOL    HW1  868   8.738   8.315   3.905
99657SOL    HW2  869   8.746   8.325   3.754
99658SOL     OW  870   9.601   7.646   4.841
99658SOL    HW1  871   9.657   7.645   4.764
99658SOL    HW2  872   9.549   7.726   4.832
99659SOL     OW  873   8.715   6.159  12.075
99659SOL    HW1  874   8.677   6.153  11.987
99659SOL    HW2  875   8.682   6.242  12.109
99660SOL     OW  876   0.280  11.314  11.998
99660SOL    HW1  877   0.368  11.309  11.961
99660SOL    HW2  878   0.229  11.362  11.933
99661SOL     OW  879   0.011   1.898   8.813
99661SOL    HW1  880   0.105   1.912   8.814
99661SOL    HW2  881  14.847   1.985   8.794
99662SOL     OW  882  13.872   5.195  12.842
99662SOL    HW1  883  13.858   5.274  12.895
99662SOL    HW2  884  13.936   5.222  12.776
99663SOL     OW  885  12.315   7.643   7.956
99663SOL    HW1  886  12.271   7.677   7.878
99663SOL    HW2  887  12.396   7.693   7.961
99664SOL     OW  888   1.018   9.754   2.736
99664SOL    HW1  889   0.976   9.834   2.706
99664SOL    HW2  890   0.968   9.729   2.814
99665SOL     OW  891   1.962  12.965   8.502
99665SOL    HW1  892   1.889  13.023   8.523
99665SOL    HW2  893   2.007  12.952   8.585
99666SOL     OW  894   8.985   4.219   4.396
99666SOL    HW1  895   8.899   4.190   4.363
99666SOL    HW2  896   9.000   4.303   4.353
99667SOL     OW  897  12.744   7.106   1.068
99667SOL    HW1  898  12.731   7.172   1.000
99667SOL    HW2  899  12.839   7.094   1.071
99668SOL     OW  900  11.109   4.773  11.038
99668SOL    HW1  901  11.125   4.754  11.130
99668SOL    HW2  902  11.018   4.748  11.023
99669SOL     OW  903   6.418   8.835  13.242
99669SOL    HW1  904   6.369   8.916  13.256
99669SOL    HW2  905   6.414   8.820  13.147
99670SOL     OW  906   2.338  10.051   3.701
99670SOL    HW1  907   2.243  10.041   3.700
99670SOL    HW2  908   2.370   9.977   3.649
99671SOL     OW  909   3.023   8.448   1.233
99671SOL    HW1  910   3.054   8.365   1.268
99671SOL    HW2  911   2.937   8.461   1.272
99672SOL     OW  912   2.386  12.620   9.041
99672SOL    HW1  913   2.454  12.557   9.064
99672SOL    HW2  914   2.319  12.610   9.109
99673SOL     OW  915   7.454   6.596   5.909
99673SOL    HW1  916   7.415   6.541   5.977
99673SOL    HW2  917   7.381   6.649   5.878
99674SOL     OW  918  12.843   4.079  11.897
99674SOL    HW1  919  12.882   4.134  11.965
99674SOL    HW2  920  12.906   4.082  11.825
99675SOL     OW  921   8.402   2.424  14.674
99675SOL    HW1  922   8.398   2.454  14.584
99675SOL    HW2  923   8.478   2.468  14.711
99676SOL     OW  924   9.832   8.363   7.527
99676SOL    HW1  925   9.788   8.383   7.445
99676SOL    HW2  926   9.768   8.383   7.595
99677SOL     OW  927   4.723  14.616  13.547
99677SOL    HW1  928   4.663  14.622  13.621
99677SOL    HW2  929   4.705  14.530  13.508
99678SOL     OW  930   7.291   8.720   8.348
99678SOL    HW1  931   7.311   8.746   8.438
99678SOL    HW2  932   7.366   8.751   8.297
99679SOL     OW  933   4.092  10.115   6.746
99679SOL    HW1  934   4.115  10.025   6.724
99679SOL    HW2  935   4.167  10.147   6.797
99680SOL     OW  936  13.850  12.829   1.809
99680SOL    HW1  937  13.876  12.804   1.897
99680SOL    HW2  938  13.761  12.864   1.819
99681SOL     OW  939  12.122   7.444   5.500
99681SOL    HW1  940  12.046   7.421   5.447
99681SOL    HW2  941  12.188   7.379   5.477
99682SOL     OW  942  12.535   9.061   7.419
99682SOL    HW1  943  12.523   9.150   7.387
99682SOL    HW2  944  12.446   9.031   7.438
99683SOL     OW  945   0.239   7.552   5.402
99683SOL    HW1  946   0.149   7.555   5.434
99683SOL    HW2  947   0.290   7.604   5.465
99684SOL     OW  948  12.645   8.317   7.285
99684SOL    HW1  949  12.675   8.226   7.296
99684SOL    HW2  950  12.638   8.351   7.374
99685SOL     OW  951   7.503   5.600   4.855
99685SOL    HW1  952   7.435   5.593   4.788
99685SOL    HW2  953   7.457   5.582   4.937
99686SOL     OW  954   0.206   5.603   0.131
99686SOL    HW1  955   0.295   5.632   0.151
99686SOL    HW2  956   0.203   5.598   0.036
99687SOL     OW  957   9.423   7.393  11.006
99687SOL    HW1  958   9.505   7.388  11.055
99687SOL    HW2  959   9.360   7.345  11.059
99688SOL     OW  960   9.143   3.088   3.902
99688SOL    HW1  961   9.155   3.163   3.961
99688SOL    HW2  962   9.207   3.023   3.932
99689SOL     OW  963   9.960  12.808  12.517
99689SOL    HW1  964   9.934  12.898  12.536
99689SOL    HW2  965   9.885  12.755  12.546
99690SOL     OW  966   2.152  14.002   6.719
99690SOL    HW1  967   2.224  13.971   6.665
99690SOL    HW2  968   2.146  13.938   6.790
99691SOL     OW  969   9.934  14.246   4.065
99691SOL    HW1  970  10.022  14.250   4.101
99691SOL    HW2  971   9.924  14.330   4.019
99692SOL     OW  972  11.778   9.460  11.093
99692SOL    HW1  973  11.822   9.538  11.059
99692SOL    HW2  974  11.833   9.431  11.165
99693SOL     OW  975  13.393   1.673   5.434
99693SOL    HW1  976  13.390   1.699   5.342
99693SOL    HW2  977  13.350   1.587   5.436
99694SOL     OW  978   6.525  11.007   0.549
99694SOL    HW1  979   6.497  11.072   0.614
99694SOL    HW2  980   6.615  11.031   0.529
99695SOL     OW  981   8.823  12.627  12.200
99695SOL    HW1  982   8.871  12.696  12.154
99695SOL    HW2  983   8.875  12.609  12.277
99696SOL     OW  984   8.836   2.190   1.182
99696SOL    HW1  985   8.818   2.116   1.124
99696SOL    HW2  986   8.850   2.150   1.268
99697SOL     OW  987  11.286   4.218   5.253
99697SOL    HW1  988  11.221   4.152   5.232
99697SOL    HW2  989  11.293   4.215   5.349
99698SOL     OW  990  14.676   5.583   9.738
99698SOL    HW1  991  14.706   5.574   9.648
99698SOL    HW2  992  14.582   5.597   9.731
99699SOL     OW  993  14.491   5.922   9.016
99699SOL    HW1  994  14.529   5.938   8.930
99699SOL    HW2  995  14.397   5.935   9.005
99700SOL     OW  996   6.274  10.486  12.026
99700SOL    HW1  997   6.196  10.534  12.053
99700SOL    HW2  998   6.267  10.401  12.069
99701SOL     OW  999  11.396  11.160   8.279
99701SOL    HW1 1000  11.344  11.126   8.207
99701SOL    HW2 1001  11.333  11.173   8.350
99702SOL     OW 1002   3.863  10.461  13.018
99702SOL    HW1 1003   3.875  10.510  12.937
99702SOL    HW2 1004   3.857  10.370  12.990
99703SOL     OW 1005  12.257   0.224   8.391
99703SOL    HW1 1006  12.207   0.304   8.410
99703SOL    HW2 1007  12.322   0.221   8.461
99704SOL     OW 1008   7.924   4.736   6.680
99704SOL    HW1 1009   7.896   4.664   6.737
99704SOL    HW2 1010   8.017   4.748   6.701
99705SOL     OW 1011   1.141  11.947   2.151
99705SOL    HW1 1012   1.234  11.957   2.128
99705SOL    HW2 1013   1.139  11.866   2.202
99706SOL     OW 1014   8.072  10.172  13.242
99706SOL    HW1 1015   8.111  10.167  13.154
99706SOL    HW2 1016   8.069  10.265  13.261
99707SOL     OW 1017  12.021   3.189  12.412
99707SOL    HW1 1018  11.932   3.194  12.377
99707SOL    HW2 1019  12.034   3.271  12.458
99708SOL     OW 1020   2.024   1.480   0.590
99708SOL    HW1 1021   2.048   1.534   0.665
99708SOL    HW2 1022   2.103   1.479   0.534
99709SOL     OW 1023   8.195   1.464  11.865
99709SOL    HW1 1024   8.267   1.420  11.820
99709SOL    HW2 1025   8.231   1.550  11.890
99710SOL     OW 1026   8.715   9.114  14.145
99710SOL    HW1 1027   8.728   9.199  14.187
99710SOL    HW2 1028   8.800   9.093  14.107
99711SOL     OW 1029   0.436   4.000  14.548
99711SOL    HW1 1030   0.524   4.033  14.569
99711SOL    HW2 1031   0.452   3.917  14.503
99712SOL     OW 1032   5.209   0.056  13.429
99712SOL    HW1 1033   5.183   0.064  13.338
99712SOL    HW2 1034   5.252  14.842  13.435
99713SOL     OW 1035  12.434  10.137   2.783
99713SOL    HW1 1036  12.477  10.117   2.699
99713SOL    HW2 1037  12.504  10.170   2.839
99714SOL     OW 1038   8.426   1.426   4.015
99714SOL    HW1 1039   8.513   1.462   3.998
99714SOL    HW2 1040   8.405   1.374   3.938
99715SOL     OW 1041  11.619   5.659   3.400
99715SOL    HW1 1042  11.645   5.618   3.482
99715SOL    HW2 1043  11.645   5.596   3.333
99716SOL     OW 1044   9.383   7.509   0.518
99716SOL    HW1 1045   9.348   7.584   0.469
99716SOL    HW2 1046   9.412   7.449   0.450
99717SOL     OW 1047   8.553   6.443   8.849
99717SOL    HW1 1048   8.507   6.395   8.780
99717SOL    HW2 1049   8.485   6.496   8.890
99718SOL     OW 1050   6.672   1.124   5.357
99718SOL    HW1 1051   6.726   1.123   5.278
99718SOL    HW2 1052   6.700   1.202   5.404
99719SOL     OW 1053   8.408   5.088   6.127
99719SOL    HW1 1054   8.357   5.109   6.049
99719SOL    HW2 1055   8.475   5.026   6.097
99720SOL     OW 1056   0.017   1.943   4.593
99720SOL    HW1 1057  14.847   1.908   4.671
99720SOL    HW2 1058  14.817   1.964   4.533
99721SOL     OW 1059   3.115   1.032   9.518
99721SOL    HW1 1060   3.175   0.960   9.496
99721SOL    HW2 1061   3.093   1.017   9.610
99722SOL     OW 1062  10.314  10.103   5.298
99722SOL    HW1 1063  10.230  10.082   5.255
99722SOL    HW2 1064  10.380  10.070   5.237
99723SOL     OW 1065  12.352  10.095   7.441
99723SOL    HW1 1066  12.352  10.089   7.345
99723SOL    HW2 1067  12.339  10.188   7.459
99724SOL     OW 1068   2.803   6.900   8.206
99724SOL    HW1 1069   2.871   6.951   8.162
99724SOL    HW2 1070   2.767   6.959   8.272
99725SOL     OW 1071   8.264  14.248   5.325
99725SOL    HW1 1072   8.289  14.157   5.310
99725SOL    HW2 1073   8.257  14.255   5.420
99726SOL     OW 1074  10.700  11.772   7.135
99726SOL    HW1 1075  10.667  11.838   7.074
99726SOL    HW2 1076  10.790  11.757   7.107
99727SOL     OW 1077   0.696   9.816   3.475
99727SOL    HW1 1078   0.636   9.763   3.528
99727SOL    HW2 1079   0.743   9.752   3.421
99728SOL     OW 1080  12.029   7.881   1.489
99728SOL    HW1 1081  12.120   7.856   1.501
99728SOL    HW2 1082  12.006   7.849   1.402
99729SOL     OW 1083  14.559  10.414   1.393
99729SOL    HW1 1084  14.580  10.505   1.416
99729SOL    HW2 1085  14.635  10.364   1.423
99730SOL     OW 1086   6.189   4.834   6.633
99730SOL    HW1 1087   6.208   4.768   6.699
99730SOL    HW2 1088   6.160   4.911   6.682
99731SOL     OW 1089  14.101   8.804   2.678
99731SOL    HW1 1090  14.059   8.888   2.660
99731SOL    HW2 1091  14.043   8.740   2.637
99732SOL     OW 1092  14.086   4.560   0.013
99732SOL    HW1 1093  14.157   4.613  14.849
99732SOL    HW2 1094  14.074   4.490  14.822
99733SOL     OW 1095   6.091   2.852   8.636
99733SOL    HW1 1096   6.141   2.771   8.637
99733SOL    HW2 1097   6.148   2.915   8.591
99734SOL     OW 1098  11.349   7.361   6.525
99734SOL    HW1 1099  11.355   7.408   6.609
99734SOL    HW2 1100  11.419   7.296   6.529
99735SOL     OW 1101   7.349   1.759   2.075
99735SOL    HW1 1102   7.333   1.690   2.140
99735SOL    HW2 1103   7.388   1.831   2.126
99736SOL     OW 1104   6.773  14.716   8.095
99736SOL    HW1 1105   6.697  14.737   8.040
99736SOL    HW2 1106   6.751  14.752   8.181
99737SOL     OW 1107   9.552   4.194  13.237
99737SOL    HW1 1108   9.598   4.185  13.320
99737SOL    HW2 1109   9.562   4.109  13.194
99738SOL     OW 1110   1.152  12.184   4.837
99738SOL    HW1 1111   1.144  12.278   4.856
99738SOL    HW2 1112   1.087  12.168   4.769
99739SOL     OW 1113   5.970   8.182   4.122
99739SOL    HW1 1114   5.925   8.228   4.051
99739SOL    HW2 1115   6.055   8.225   4.127
99740SOL     OW 1116  11.564  11.519  13.126
99740SOL    HW1 1117  11.601  11.533  13.213
99740SOL    HW2 1118  11.636  11.538  13.065
99741SOL     OW 1119   5.721   6.332   2.665
99741SOL    HW1 1120   5.637   6.296   2.634
99741SOL    HW2 1121   5.715   6.330   2.760
99742SOL     OW 1122  10.843   4.000  10.327
99742SOL    HW1 1123  10.809   3.973  10.413
99742SOL    HW2 1124  10.767   3.995  10.269
99743SOL     OW 1125   0.552   3.715  10.997
99743SOL    HW1 1126   0.511   3.800  10.983
99743SOL    HW2 1127   0.505   3.678  11.072
99744SOL     OW 1128  10.132  12.681   5.041
99744SOL    HW1 1129  10.106  12.743   4.973
99744SOL    HW2 1130  10.070  12.695   5.112
99745SOL     OW 1131   3.464  12.566  14.551
99745SOL    HW1 1132   3.437  12.485  14.595
99745SOL    HW2 1133   3.503  12.536  14.469
99746SOL     OW 1134   2.159   0.984  12.450
99746SOL    HW1 1135   2.099   0.910  12.450
99746SOL    HW2 1136   2.220   0.965  12.521
99747SOL     OW 1137  12.741  12.962   4.113
99747SOL    HW1 1138  12.707  12.875   4.134
99747SOL    HW2 1139  12.785  12.990   4.194
99748SOL     OW 1140   5.943  10.295  13.727
99748SOL    HW1 1141   5.858  10.329  13.698
99748SOL    HW2 1142   5.936  10.200  13.715
99749SOL     OW 1143   7.057   7.420  10.868
99749SOL    HW1 1144   7.034   7.331  10.841
99749SOL    HW2 1145   6.974   7.467  10.869
99750SOL     OW 1146  11.762   3.485  10.741
99750SOL    HW1 1147  11.669   3.491  10.762
99750SOL    HW2 1148  11.782   3.391  10.745
99751SOL     OW 1149  12.396   4.286   6.581
99751SOL    HW1 1150  12.393   4.190   6.577
99751SOL    HW2 1151  12.442   4.312   6.502
99752SOL     OW 1152  13.752  14.620  13.664
99752SOL    HW1 1153  13.798  14.701  13.685
99752SOL    HW2 1154  13.818  14.564  13.623
99753SOL     OW 1155   8.894   8.427   8.620
99753SOL    HW1 1156   8.949   8.486   8.569
99753SOL    HW2 1157   8.878   8.475   8.702
99754SOL     OW 1158   3.703   6.743   6.461
99754SOL    HW1 1159   3.701   6.835   6.434
99754SOL    HW2 1160   3.631   6.702   6.413
99755SOL     OW 1161  12.233  11.030   5.326
99755SOL    HW1 1162  12.203  10.950   5.283
99755SOL    HW2 1163  12.201  11.101   5.270
99756SOL     OW 1164  14.579   1.761   5.663
99756SOL    HW1 1165  14.597   1.715   5.581
99756SOL    HW2 1166  14.633   1.840   5.659
99757SOL     OW 1167   6.592  10.109   8.427
99757SOL    HW1 1168   6.512  10.075   8.469
99757SOL    HW2 1169   6.601  10.057   8.347
99758SOL     OW 1170  12.840   0.934   2.559
99758SOL    HW1 1171  12.924   0.971   2.530
99758SOL    HW2 1172  12.831   0.962   2.650
99759SOL     OW 1173   7.330   8.608   1.085
99759SOL    HW1 1174   7.409   8.559   1.062
99759SOL    HW2 1175   7.295   8.638   1.001
99760SOL     OW 1176  14.404   7.073  13.197
99760SOL    HW1 1177  14.377   6.982  13.206
99760SOL    HW2 1178  14.443   7.078  13.110
99761SOL     OW 1179   9.584  13.836  12.627
99761SOL    HW1 1180   9.638  13.915  12.622
99761SOL    HW2 1181   9.558  13.830  12.718
99762SOL     OW 1182  13.600  11.121   3.869
99762SOL    HW1 1183  13.525  11.134   3.928
99762SOL    HW2 1184  13.649  11.050   3.909
99763SOL     OW 1185   6.992   0.572   0.581
99763SOL    HW1 1186   7.049   0.635   0.537
99763SOL    HW2 1187   6.999   0.493   0.527
99764SOL     OW 1188   8.951   9.621   1.304
99764SOL    HW1 1189   8.914   9.618   1.216
99764SOL    HW2 1190   8.916   9.544   1.348
99765SOL     OW 1191   5.867   4.785   1.515
99765SOL    HW1 1192   5.804   4.848   1.550
99765SOL    HW2 1193   5.818   4.735   1.450
99766SOL     OW 1194  14.808   8.690  10.507
99766SOL    HW1 1195  14.865   8.767  10.516
99766SOL    HW2 1196  14.866   8.622  10.472
99767SOL     OW 1197   0.214   6.484   5.893
99767SOL    HW1 1198   0.133   6.534   5.879
99767SOL    HW2 1199   0.199   6.435   5.973
99768SOL     OW 1200  14.355   5.607  12.041
99768SOL    HW1 1201  14.349   5.701  12.024
99768SOL    HW2 1202  14.264   5.580  12.056
99769SOL     OW 1203  12.907   0.704  12.000
99769SOL    HW1 1204  12.933   0.743  12.083
99769SOL    HW2 1205  12.868   0.776  11.950
99770SOL     OW 1206   0.230   8.131  11.948
99770SOL    HW1 1207   0.190   8.068  12.008
99770SOL    HW2 1208   0.300   8.171  11.999
99771SOL     OW 1209  12.044   5.109   6.466
99771SOL    HW1 1210  11.973   5.086   6.407
99771SOL    HW2 1211  12.002   5.160   6.535
99772SOL     OW 1212   9.768   5.039  14.015
99772SOL    HW1 1213   9.713   4.989  14.075
99772SOL    HW2 1214   9.706   5.082  13.956
99773SOL     OW 1215   9.946   7.256   4.928
99773SOL    HW1 1216   9.926   7.252   4.835
99773SOL    HW2 1217   9.988   7.172   4.947
99774SOL     OW 1218  10.989   6.024   1.808
99774SOL    HW1 1219  11.002   6.081   1.732
99774SOL    HW2 1220  10.944   5.947   1.774
99775SOL     OW 1221   2.832  14.288  12.292
99775SOL    HW1 1222   2.761  14.351  12.284
99775SOL    HW2 1223   2.805  14.213  12.239
99776SOL     OW 1224   1.326  11.994   6.889
99776SOL    HW1 1225   1.262  12.063   6.906
99776SOL    HW2 1226   1.273  11.916   6.871
99777SOL     OW 1227  12.450   3.980   2.442
99777SOL    HW1 1228  12.435   4.050   2.378
99777SOL    HW2 1229  12.544   3.962   2.436
99778SOL     OW 1230  10.660   9.437  12.240
99778SOL    HW1 1231  10.731   9.376  12.221
99778SOL    HW2 1232  10.612   9.396  12.312
99779SOL     OW 1233  10.609   3.488   9.272
99779SOL    HW1 1234  10.590   3.394   9.284
99779SOL    HW2 1235  10.525   3.525   9.244
99780SOL     OW 1236   7.240   3.378   7.941
99780SOL    HW1 1237   7.168   3.343   7.888
99780SOL    HW2 1238   7.251   3.314   8.011
99781SOL     OW 1239  11.965   2.216  13.657
99781SOL    HW1 1240  11.961   2.182  13.746
99781SOL    HW2 1241  11.928   2.146  13.602
99782SOL     OW 1242   5.225   3.461   7.745
99782SOL    HW1 1243   5.206   3.520   7.818
99782SOL    HW2 1244   5.147   3.407   7.736
99783SOL     OW 1245  14.848   7.025   7.130
99783SOL    HW1 1246  14.834   6.989   7.043
99783SOL    HW2 1247   0.047   6.973   7.168
99784SOL     OW 1248  10.549   6.625   4.086
99784SOL    HW1 1249  10.498   6.661   4.159
99784SOL    HW2 1250  10.609   6.563   4.127
99785SOL     OW 1251   0.779  14.344  13.925
99785SOL    HW1 1252   0.751  14.394  13.849
99785SOL    HW2 1253   0.845  14.399  13.967
99786SOL     OW 1254  12.979   0.059   4.736
99786SOL    HW1 1255  12.984  14.850   4.685
99786SOL    HW2 1256  12.887   0.065   4.761
99787SOL     OW 1257   3.060  10.570   1.612
99787SOL    HW1 1258   3.010  10.576   1.693
99787SOL    HW2 1259   3.145  10.608   1.634
99788SOL     OW 1260  12.512   6.577  11.886
99788SOL    HW1 1261  12.488   6.669  11.898
99788SOL    HW2 1262  12.559   6.575  11.802
99789SOL     OW 1263  12.503   6.146  13.982
99789SOL    HW1 1264  12.576   6.100  13.940
99789SOL    HW2 1265  12.468   6.203  13.913
99790SOL     OW 1266   0.509  13.489   7.617
99790SOL    HW1 1267   0.497  13.549   7.544
99790SOL    HW2 1268   0.432  13.502   7.672
99791SOL     OW 1269   1.585   5.054  12.616
99791SOL    HW1 1270   1.513   5.081  12.559
99791SOL    HW2 1271   1.645   5.008  12.558
99792SOL     OW 1272  11.779  12.187  13.110
99792SOL    HW1 1273  11.688  12.213  13.126
99792SOL    HW2 1274  11.775  12.092  13.099
99793SOL     OW 1275   9.594  10.466  13.917
99793SOL    HW1 1276   9.616  10.442  13.827
99793SOL    HW2 1277   9.648  10.544  13.933
99794SOL     OW 1278   5.441  10.606   7.600
99794SOL    HW1 1279   5.456  10.627   7.692
99794SOL    HW2 1280   5.528  10.604   7.561
99795SOL     OW 1281  12.237   0.745   8.188
99795SOL    HW1 1282  12.268   0.751   8.278
99795SOL    HW2 1283  12.245   0.834   8.154
99796SOL     OW 1284  12.036   3.322   9.702
99796SOL    HW1 1285  11.997   3.374   9.772
99796SOL    HW2 1286  11.970   3.255   9.683
99797SOL     OW 1287   9.780   4.737   1.003
99797SOL    HW1 1288   9.741   4.701   1.083
99797SOL    HW2 1289   9.807   4.661   0.953
99798SOL     OW 1290   3.862   0.318   4.373
99798SOL    HW1 1291   3.914   0.346   4.449
99798SOL    HW2 1292   3.771   0.324   4.403
99799SOL     OW 1293   6.309   1.863   3.786
99799SOL    HW1 1294   6.219   1.872   3.756
99799SOL    HW2 1295   6.333   1.773   3.764
99800SOL     OW 1296   3.636  14.442   8.420
99800SOL    HW1 1297   3.721  14.460   8.459
99800SOL    HW2 1298   3.599  14.529   8.400
99801SOL     OW 1299   8.539  12.324  12.501
99801SOL    HW1 1300   8.602  12.307  12.571
99801SOL    HW2 1301   8.501  12.238  12.482
99802SOL     OW 1302   3.785   0.387  13.149
99802SOL    HW1 1303   3.812   0.462  13.203
99802SOL    HW2 1304   3.801   0.311  13.205
99803SOL     OW 1305   8.464   5.842   0.798
99803SOL    HW1 1306   8.507   5.927   0.789
99803SOL    HW2 1307   8.483   5.797   0.716
99804SOL     OW 1308   3.005   0.140  13.186
99804SOL    HW1 1309   2.935   0.177  13.240
99804SOL    HW2 1310   3.054   0.216  13.156
99805SOL     OW 1311  11.814   6.546   6.011
99805SOL    HW1 1312  11.850   6.635   6.007
99805SOL    HW2 1313  11.877   6.497   6.063
99806SOL     OW 1314  11.587   4.484   0.601
99806SOL    HW1 1315  11.611   4.447   0.686
99806SOL    HW2 1316  11.566   4.576   0.621
99807SOL     OW 1317  13.734   7.934   0.263
99807SOL    HW1 1318  13.724   7.967   0.173
99807SOL    HW2 1319  13.669   7.983   0.313
99808SOL     OW 1320  11.638  13.225   1.218
99808SOL    HW1 1321  11.719  13.254   1.260
99808SOL    HW2 1322  11.664  13.205   1.128
99809SOL     OW 1323   9.987   5.032   1.700
99809SOL    HW1 1324  10.030   4.973   1.762
99809SOL    HW2 1325  10.057   5.061   1.642
99810SOL     OW 1326   6.345   4.837   8.523
99810SOL    HW1 1327   6.298   4.754   8.523
99810SOL    HW2 1328   6.431   4.817   8.560
99811SOL     OW 1329   3.468   8.460   8.441
99811SOL    HW1 1330   3.416   8.410   8.504
99811SOL    HW2 1331   3.405   8.482   8.372
99812SOL     OW 1332   8.898   1.621   6.200
99812SOL    HW1 1333   8.882   1.546   6.257
99812SOL    HW2 1334   8.822   1.624   6.142
99813SOL     OW 1335  13.122   1.846   3.290
99813SOL    HW1 1336  13.122   1.881   3.201
99813SOL    HW2 1337  13.035   1.866   3.324
99814SOL     OW 1338   9.583  12.081   9.921
99814SOL    HW1 1339   9.489  12.067   9.934
99814SOL    HW2 1340   9.598  12.056   9.830
99815SOL     OW 1341   4.542  13.588  14.121
99815SOL    HW1 1342   4.522  13.603  14.213
99815SOL    HW2 1343   4.477  13.641  14.074
99816SOL     OW 1344   4.025   0.784   4.318
99816SOL    HW1 1345   3.994   0.694   4.306
99816SOL    HW2 1346   4.067   0.806   4.235
99817SOL     OW 1347   2.640   6.453   2.106
99817SOL    HW1 1348   2.664   6.373   2.060
99817SOL    HW2 1349   2.718   6.509   2.100
99818SOL     OW 1350   1.254  12.888   0.424
99818SOL    HW1 1351   1.331  12.938   0.398
99818SOL    HW2 1352   1.184  12.952   0.430
99819SOL     OW 1353   3.033   7.511   0.932
99819SOL    HW1 1354   3.083   7.477   1.005
99819SOL    HW2 1355   3.004   7.433   0.884
99820SOL     OW 1356   6.400   4.748   2.666
99820SOL    HW1 1357   6.342   4.743   2.742
99820SOL    HW2 1358   6.477   4.697   2.691
99821SOL     OW 1359   8.378   3.646  14.605
99821SOL    HW1 1360   8.334   3.725  14.634
99821SOL    HW2 1361   8.327   3.574  14.643
99822SOL     OW 1362   3.155   7.282   4.883
99822SOL    HW1 1363   3.126   7.243   4.801
99822SOL    HW2 1364   3.077   7.328   4.916
99823SOL     OW 1365   6.304   4.121   8.849
99823SOL    HW1 1366   6.276   4.095   8.936
99823SOL    HW2 1367   6.270   4.210   8.838
99824SOL     OW 1368   6.973   6.940  11.044
99824SOL    HW1 1369   6.984   6.845  11.054
99824SOL    HW2 1370   7.059   6.971  11.015
99825SOL     OW 1371   4.627   1.393  14.160
99825SOL    HW1 1372   4.592   1.380  14.072
99825SOL    HW2 1373   4.624   1.488  14.173
99826SOL     OW 1374  11.486   7.392   8.907
99826SOL    HW1 1375  11.484   7.480   8.945
99826SOL    HW2 1376  11.571   7.386   8.865
99827SOL     OW 1377  13.122   0.648   3.200
99827SOL    HW1 1378  13.118   0.572   3.258
99827SOL    HW2 1379  13.197   0.698   3.231
99828SOL     OW 1380   9.268   9.410   8.038
99828SOL    HW1 1381   9.184   9.367   8.025
99828SOL    HW2 1382   9.286   9.453   7.954
99829SOL     OW 1383  13.268   8.070   4.407
99829SOL    HW1 1384  13.232   8.131   4.471
99829SOL    HW2 1385  13.311   8.002   4.460
99830SOL     OW 1386   5.043  11.601  10.356
99830SOL    HW1 1387   5.009  11.524  10.311
99830SOL    HW2 1388   5.056  11.573  10.447
99831SOL     OW 1389  14.634   4.116  14.404
99831SOL    HW1 1390  14.662   4.024  14.411
99831SOL    HW2 1391  14.674   4.147  14.322
99832SOL     OW 1392   2.254   5.313   1.371
99832SOL    HW1 1393   2.242   5.371   1.447
99832SOL    HW2 1394   2.246   5.225   1.407
99833SOL     OW 1395   9.147  12.655   5.409
99833SOL    HW1 1396   9.091  12.680   5.336
99833SOL    HW2 1397   9.225  12.709   5.399
99834SOL     OW 1398   7.698   2.482  11.466
99834SOL    HW1 1399   7.746   2.505  11.545
99834SOL    HW2 1400   7.612   2.454  11.497
99835SOL     OW 1401  12.597   5.530   4.698
99835SOL    HW1 1402  12.613   5.612   4.743
99835SOL    HW2 1403  12.502   5.525   4.690
99836SOL     OW 1404   8.848   3.366  13.284
99836SOL    HW1 1405   8.759   3.348  13.315
99836SOL    HW2 1406   8.864   3.299  13.218
99837SOL     OW 1407   9.601   6.123   7.566
99837SOL    HW1 1408   9.596   6.121   7.471
99837SOL    HW2 1409   9.690   6.150   7.586
99838SOL     OW 1410   1.734  12.633   4.305
99838SOL    HW1 1411   1.727  12.728   4.309
99838SOL    HW2 1412   1.651  12.601   4.339
99839SOL     OW 1413   9.078   0.824  13.282
99839SOL    HW1 1414   9.006   0.803  13.342
99839SOL    HW2 1415   9.136   0.748  13.285
99840SOL     OW 1416   9.766  14.294  11.900
99840SOL    HW1 1417   9.747  14.200  11.905
99840SOL    HW2 1418   9.702  14.334  11.960
99841SOL     OW 1419   4.027  10.122   2.261
99841SOL    HW1 1420   3.941  10.108   2.299
99841SOL    HW2 1421   4.015  10.195   2.200
99842SOL     OW 1422  12.684   0.586   5.291
99842SOL    HW1 1423  12.621   0.521   5.261
99842SOL    HW2 1424  12.706   0.559   5.380
99843SOL     OW 1425   5.052  14.516  11.534
99843SOL    HW1 1426   4.979  14.499  11.474
99843SOL    HW2 1427   5.109  14.440  11.523
99844SOL     OW 1428   8.948   2.301  12.509
99844SOL    HW1 1429   8.890   2.289  12.434
99844SOL    HW2 1430   9.010   2.368  12.481
99845SOL     OW 1431   3.793   4.689   5.539
99845SOL    HW1 1432   3.879   4.730   5.531
99845SOL    HW2 1433   3.812   4.597   5.559
99846SOL     OW 1434   6.511  11.885  12.450
99846SOL    HW1 1435   6.557  11.814  12.405
99846SOL    HW2 1436   6.459  11.926  12.382
99847SOL     OW 1437  10.336   0.522   1.574
99847SOL    HW1 1438  10.323   0.449   1.513
99847SOL    HW2 1439  10.255   0.526   1.624
99848SOL     OW 1440   4.170  13.266   1.902
99848SOL    HW1 1441   4.206  13.200   1.842
99848SOL    HW2 1442   4.243  13.326   1.918
99849SOL     OW 1443   3.686   6.566   0.699
99849SOL    HW1 1444   3.739   6.604   0.629
99849SOL    HW2 1445   3.712   6.474   0.701
99850SOL     OW 1446   7.839   4.002   0.756
99850SOL    HW1 1447   7.780   3.951   0.700
99850SOL    HW2 1448   7.915   4.021   0.701
99851SOL     OW 1449   5.550   6.723   0.808
99851SOL    HW1 1450   5.462   6.757   0.791
99851SOL    HW2 1451   5.586   6.705   0.722
99852SOL     OW 1452   3.470   8.242   5.867
99852SOL    HW1 1453   3.551   8.254   5.817
99852SOL    HW2 1454   3.418   8.320   5.848
99853SOL     OW 1455  10.054   8.434  11.053
99853SOL    HW1 1456   9.964   8.455  11.028
99853SOL    HW2 1457  10.046   8.351  11.101
99854SOL     OW 1458   6.334   2.853   6.732
99854SOL    HW1 1459   6.349   2.762   6.708
99854SOL    HW2 1460   6.418   2.881   6.770
99855SOL     OW 1461   7.633   5.620  12.859
99855SOL    HW1 1462   7.678   5.611  12.775
99855SOL    HW2 1463   7.691   5.575  12.922
99856SOL     OW 1464  12.888   6.446  13.939
99856SOL    HW1 1465  12.860   6.355  13.927
99856SOL    HW2 1466  12.973   6.439  13.983
99857SOL     OW 1467   2.741   8.766  14.374
99857SOL    HW1 1468   2.738   8.702  14.444
99857SOL    HW2 1469   2.812   8.825  14.399
99858SOL     OW 1470   1.326   0.719   3.324
99858SOL    HW1 1471   1.321   0.796   3.268
99858SOL    HW2 1472   1.373   0.749   3.402
99859SOL     OW 1473  13.154   5.550   3.022
99859SOL    HW1 1474  13.237   5.505   3.041
99859SOL    HW2 1475  13.096   5.522   3.093
99860SOL     OW 1476  11.168   1.929  10.465
99860SOL    HW1 1477  11.184   1.995  10.398
99860SOL    HW2 1478  11.240   1.868  10.457
99861SOL     OW 1479   8.632   7.337  10.513
99861SOL    HW1 1480   8.591   7.342  10.599
99861SOL    HW2 1481   8.647   7.244  10.499
99862SOL     OW 1482   5.489   1.111   7.361
99862SOL    HW1 1483   5.435   1.039   7.393
99862SOL    HW2 1484   5.575   1.072   7.346
99863SOL     OW 1485   3.410   5.748   9.215
99863SOL    HW1 1486   3.345   5.805   9.257
99863SOL    HW2 1487   3.492   5.798   9.219
99864SOL     OW 1488   5.275  10.276   4.175
99864SOL    HW1 1489   5.199  10.333   4.177
99864SOL    HW2 1490   5.345  10.331   4.137
99865SOL     OW 1491  10.721   7.204  10.681
99865SOL    HW1 1492  10.641   7.171  10.720
99865SOL    HW2 1493  10.724   7.164  10.594
99866SOL     OW 1494   5.917   2.083   0.213
99866SOL    HW1 1495   5.886   2.114   0.128
99866SOL    HW2 1496   5.969   2.155   0.248
99867SOL     OW 1497  13.291   0.680  10.175
99867SOL    HW1 1498  13.311   0.773  10.167
99867SOL    HW2 1499  13.376   0.636  10.171
99868SOL     OW 1500   0.876   7.431   9.963
99868SOL    HW1 1501   0.805   7.489   9.936
99868SOL    HW2 1502   0.906   7.468  10.046
99869SOL     OW 1503  12.427   8.836  12.598
99869SOL    HW1 1504  12.481   8.906  12.635
99869SOL    HW2 1505  12.481   8.758  12.603
99870SOL     OW 1506   8.553   5.109  10.099
99870SOL    HW1 1507   8.491   5.174  10.065
99870SOL    HW2 1508   8.617   5.161  10.147
99871SOL     OW 1509  12.866   2.334   0.575
99871SOL    HW1 1510  12.777   2.301   0.560
99871SOL    HW2 1511  12.917   2.299   0.503
99872SOL     OW 1512   3.722   1.780   6.204
99872SOL    HW1 1513   3.636   1.820   6.189
99872SOL    HW2 1514   3.732   1.717   6.134
99873SOL     OW 1515   5.044   5.628  10.028
99873SOL    HW1 1516   5.094   5.633   9.946
99873SOL    HW2 1517   5.110   5.643  10.096
99874SOL     OW 1518   9.026   4.897   2.858
99874SOL    HW1 1519   9.048   4.980   2.901
99874SOL    HW2 1520   8.937   4.877   2.889
99875SOL     OW 1521   1.733  12.867   1.130
99875SOL    HW1 1522   1.780  12.945   1.101
99875SOL    HW2 1523   1.786  12.794   1.099
99876SOL     OW 1524  13.592   8.824  10.294
99876SOL    HW1 1525  13.602   8.888  10.223
99876SOL    HW2 1526  13.659   8.758  10.276
99877SOL     OW 1527   5.046   1.265   6.738
99877SOL    HW1 1528   5.006   1.343   6.697
99877SOL    HW2 1529   4.972   1.219   6.777
99878SOL     OW 1530   5.284   4.624   2.755
99878SOL    HW1 1531   5.365   4.600   2.711
99878SOL    HW2 1532   5.240   4.540   2.772
99879SOL     OW 1533  13.769  12.815   5.521
99879SOL    HW1 1534  13.686  12.861   5.512
99879SOL    HW2 1535  13.836  12.882   5.509
99880SOL     OW 1536   3.578   3.665   5.785
99880SOL    HW1 1537   3.621   3.585   5.813
99880SOL    HW2 1538   3.614   3.733   5.842
99881SOL     OW 1539   4.106   7.341   7.903
99881SOL    HW1 1540   4.100   7.361   7.809
99881SOL    HW2 1541   4.015   7.336   7.932
99882SOL     OW 1542  12.440   4.055   7.493
99882SOL    HW1 1543  12.493   3.999   7.550
99882SOL    HW2 1544  12.480   4.046   7.407
99883SOL     OW 1545   2.351   6.614   8.944
99883SOL    HW1 1546   2.340   6.539   8.886
99883SOL    HW2 1547   2.330   6.580   9.031
99884SOL     OW 1548   6.026  11.767   4.707
99884SOL    HW1 1549   6.084  11.813   4.646
99884SOL    HW2 1550   6.074  11.687   4.729
99885SOL     OW 1551  13.614  11.208   2.028
99885SOL    HW1 1552  13.595  11.141   2.094
99885SOL    HW2 1553  13.624  11.159   1.946
99886SOL     OW 1554   2.925  11.214   7.958
99886SOL    HW1 1555   2.929  11.122   7.931
99886SOL    HW2 1556   2.948  11.213   8.051
99887SOL     OW 1557  14.060   1.154   2.637
99887SOL    HW1 1558  14.038   1.161   2.544
99887SOL    HW2 1559  14.036   1.239   2.674
99888SOL     OW 1560  14.821   0.458   0.931
99888SOL    HW1 1561  14.858   0.374   0.903
99888SOL    HW2 1562  14.799   0.445   1.024
99889SOL     OW 1563  11.148  14.684  12.179
99889SOL    HW1 1564  11.058  14.668  12.150
99889SOL    HW2 1565  11.164  14.776  12.159
99890SOL     OW 1566  12.523  14.053   9.051
99890SOL    HW1 1567  12.498  14.048   9.143
99890SOL    HW2 1568  12.613  14.019   9.049
99891SOL     OW 1569  14.127   3.432   0.959
99891SOL    HW1 1570  14.218   3.458   0.975
99891SOL    HW2 1571  14.116   3.440   0.864
99892SOL     OW 1572  14.105   3.033   1.177
99892SOL    HW1 1573  14.137   3.072   1.259
99892SOL    HW2 1574  14.185   3.019   1.126
99893SOL     OW 1575  11.219   7.225  11.089
99893SOL    HW1 1576  11.257   7.207  11.175
99893SOL    HW2 1577  11.125   7.220  11.104
99894SOL     OW 1578  10.228  12.775   6.744
99894SOL    HW1 1579  10.199  12.698   6.694
99894SOL    HW2 1580  10.155  12.836   6.738
99895SOL     OW 1581  13.455  13.188   1.568
99895SOL    HW1 1582  13.389  13.138   1.616
99895SOL    HW2 1583  13.478  13.131   1.494
99896SOL     OW 1584   4.412   6.002   5.411
99896SOL    HW1 1585   4.418   5.911   5.439
99896SOL    HW2 1586   4.445   6.053   5.486
99897SOL     OW 1587   6.200  10.686   8.310
99897SOL    HW1 1588   6.161  10.769   8.283
99897SOL    HW2 1589   6.243  10.705   8.393
99898SOL     OW 1590   6.928  14.837   3.395
99898SOL    HW1 1591   6.934  14.797   3.308
99898SOL    HW2 1592   7.016  14.867   3.414
99899SOL     OW 1593   8.133   3.772  11.163
99899SOL    HW1 1594   8.112   3.792  11.255
99899SOL    HW2 1595   8.194   3.698  11.168
99900SOL     OW 1596   5.283  11.588   4.666
99900SOL    HW1 1597   5.250  11.670   4.628
99900SOL    HW2 1598   5.245  11.520   4.611
99901SOL     OW 1599  13.112  13.299  12.031
99901SOL    HW1 1600  13.061  13.377  12.054
99901SOL    HW2 1601  13.049  13.228  12.036
99902SOL     OW 1602   8.744   0.310   1.508
99902SOL    HW1 1603   8.779   0.262   1.583
99902SOL    HW2 1604   8.719   0.396   1.545
99903SOL     OW 1605   7.232   0.037   9.759
99903SOL    HW1 1606   7.168  14.867   9.816
99903SOL    HW2 1607   7.245   0.123   9.797
99904SOL     OW 1608   0.472  13.158   7.219
99904SOL    HW1 1609   0.506  13.075   7.252
99904SOL    HW2 1610   0.468  13.215   7.295
99905SOL     OW 1611  13.014  14.567  13.149
99905SOL    HW1 1612  12.927  14.594  13.120
99905SOL    HW2 1613  13.027  14.613  13.232
99906SOL     OW 1614   6.810   1.610   3.170
99906SOL    HW1 1615   6.902   1.602   3.193
99906SOL    HW2 1616   6.768   1.537   3.215
99907SOL     OW 1617   7.347   6.842   2.711
99907SOL    HW1 1618   7.378   6.875   2.627
99907SOL    HW2 1619   7.418   6.861   2.773
99908SOL     OW 1620   0.133   5.001   7.090
99908SOL    HW1 1621   0.199   5.049   7.040
99908SOL    HW2 1622   0.177   4.919   7.115
99909SOL     OW 1623   1.860  13.983   7.728
99909SOL    HW1 1624   1.803  13.939   7.790
99909SOL    HW2 1625   1.839  14.076   7.737
99910SOL     OW 1626   7.601   7.660   9.496
99910SOL    HW1 1627   7.557   7.731   9.542
99910SOL    HW2 1628   7.545   7.584   9.510
99911SOL     OW 1629  10.019  10.513   8.509
99911SOL    HW1 1630  10.094  10.490   8.564
99911SOL    HW2 1631  10.039  10.474   8.424
99912SOL     OW 1632   3.624  12.984   1.148
99912SOL    HW1 1633   3.599  12.891   1.150
99912SOL    HW2 1634   3.582  13.021   1.226
99913SOL     OW 1635  10.961  11.878  13.478
99913SOL    HW1 1636  10.911  11.800  13.451
99913SOL    HW2 1637  10.900  11.928  13.531
99914SOL     OW 1638   2.137   4.290  13.134
99914SOL    HW1 1639   2.123   4.262  13.044
99914SOL    HW2 1640   2.085   4.229  13.187
99915SOL     OW 1641   5.264  14.080  13.066
99915SOL    HW1 1642   5.255  14.069  12.971
99915SOL    HW2 1643   5.241  14.172  13.081
99916SOL     OW 1644   4.297   6.431   1.507
99916SOL    HW1 1645   4.241   6.363   1.469
99916SOL    HW2 1646   4.370   6.439   1.447
99917SOL     OW 1647   0.498  13.257   8.111
99917SOL    HW1 1648   0.485  13.162   8.106
99917SOL    HW2 1649   0.553  13.278   8.036
99918SOL     OW 1650   6.067   9.312   2.052
99918SOL    HW1 1651   6.033   9.263   2.127
99918SOL    HW2 1652   6.115   9.385   2.090
99919SOL     OW 1653  10.142   0.689   4.061
99919SOL    HW1 1654  10.113   0.688   4.152
99919SOL    HW2 1655  10.073   0.644   4.012
99920SOL     OW 1656   5.045   9.980  14.424
99920SOL    HW1 1657   4.969   9.927  14.448
99920SOL    HW2 1658   5.028  10.066  14.464
99921SOL     OW 1659  12.501   3.798  11.894
99921SOL    HW1 1660  12.475   3.730  11.957
99921SOL    HW2 1661  12.423   3.812  11.841
99922SOL     OW 1662  10.497   9.549   1.341
99922SOL    HW1 1663  10.464   9.635   1.314
99922SOL    HW2 1664  10.542   9.566   1.423
99923SOL     OW 1665  11.079  12.395   2.593
99923SOL    HW1 1666  11.093  12.305   2.562
99923SOL    HW2 1667  11.168  12.427   2.611
99924SOL     OW 1668  13.811  14.186   5.421
99924SOL    HW1 1669  13.845  14.100   5.443
99924SOL    HW2 1670  13.861  14.214   5.345
99925SOL     OW 1671  13.812  11.721   3.892
99925SOL    HW1 1672  13.904  11.706   3.912
99925SOL    HW2 1673  13.809  11.722   3.796
99926SOL     OW 1674   9.169   2.028  14.721
99926SOL    HW1 1675   9.159   1.958  14.656
99926SOL    HW2 1676   9.253   2.010  14.763
99927SOL     OW 1677   7.640  11.931   0.469
99927SOL    HW1 1678   7.626  11.894   0.381
99927SOL    HW2 1679   7.719  11.983   0.460
99928SOL     OW 1680  11.238  14.294   8.458
99928SOL    HW1 1681  11.228  14.359   8.389
99928SOL    HW2 1682  11.301  14.333   8.519
99929SOL     OW 1683   7.246   8.625  10.531
99929SOL    HW1 1684   7.201   8.557  10.580
99929SOL    HW2 1685   7.319   8.579  10.489
99930SOL     OW 1686   0.041   4.980   3.714
99930SOL    HW1 1687   0.054   5.051   3.650
99930SOL    HW2 1688  14.841   5.011   3.769
99931SOL     OW 1689   7.755   8.910   9.182
99931SOL    HW1 1690   7.738   8.829   9.135
99931SOL    HW2 1691   7.718   8.896   9.269
99932SOL     OW 1692  10.341  13.834  13.959
99932SOL    HW1 1693  10.295  13.892  13.898
99932SOL    HW2 1694  10.271  13.792  14.008
99933SOL     OW 1695   8.638   8.216   7.192
99933SOL    HW1 1696   8.556   8.266   7.186
99933SOL    HW2 1697   8.611   8.129   7.222
99934SOL     OW 1698   4.821  10.973   0.142
99934SOL    HW1 1699   4.778  11.038   0.197
99934SOL    HW2 1700   4.761  10.898   0.142
99935SOL     OW 1701  11.486  13.018  12.741
99935SOL    HW1 1702  11.414  13.059  12.693
99935SOL    HW2 1703  11.489  13.065  12.825
99936SOL     OW 1704   0.826  14.682  13.718
99936SOL    HW1 1705   0.797  14.755  13.774
99936SOL    HW2 1706   0.744  14.644  13.685
99937SOL     OW 1707  10.529   2.130   8.082
99937SOL    HW1 1708  10.519   2.223   8.061
99937SOL    HW2 1709  10.443   2.092   8.064
99938SOL     OW 1710   4.086   2.895  10.007
99938SOL    HW1 1711   4.119   2.972  10.053
99938SOL    HW2 1712   4.000   2.879  10.045
99939SOL     OW 1713   1.669  13.635  10.808
99939SOL    HW1 1714   1.726  13.706  10.835
99939SOL    HW2 1715   1.691  13.562  10.866
99940SOL     OW 1716  10.972   7.615   7.648
99940SOL    HW1 1717  10.892   7.576   7.683
99940SOL    HW2 1718  11.017   7.651   7.724
99941SOL     OW 1719  10.805  11.682  12.316
99941SOL    HW1 1720  10.782  11.589  12.323
99941SOL    HW2 1721  10.768  11.722  12.395
99942SOL     OW 1722   1.942   6.520  14.111
99942SOL    HW1 1723   2.002   6.591  14.131
99942SOL    HW2 1724   1.865   6.537  14.165
99943SOL     OW 1725   0.310   3.367   1.635
99943SOL    HW1 1726   0.232   3.348   1.582
99943SOL    HW2 1727   0.302   3.460   1.656
99944SOL     OW 1728   6.067  14.169  14.680
99944SOL    HW1 1729   6.045  14.094  14.625
99944SOL    HW2 1730   6.005  14.237  14.653
99945SOL     OW 1731   2.809   1.921  12.185
99945SOL    HW1 1732   2.829   1.851  12.247
99945SOL    HW2 1733   2.773   1.876  12.108
99946SOL     OW 1734   4.397  12.206   1.741
99946SOL    HW1 1735   4.415  12.272   1.674
99946SOL    HW2 1736   4.442  12.128   1.710
99947SOL     OW 1737  10.662   8.389  14.315
99947SOL    HW1 1738  10.628   8.344  14.237
99947SOL    HW2 1739  10.702   8.469  14.281
99948SOL     OW 1740   9.176   5.462   2.757
99948SOL    HW1 1741   9.270   5.473   2.745
99948SOL    HW2 1742   9.158   5.371   2.734
99949SOL     OW 1743   2.100   2.972  13.425
99949SOL    HW1 1744   2.168   2.960  13.492
99949SOL    HW2 1745   2.021   2.993  13.474
99950SOL     OW 1746   7.185   8.190   1.635
99950SOL    HW1 1747   7.277   8.214   1.641
99950SOL    HW2 1748   7.183   8.120   1.569
99951SOL     OW 1749  12.099  13.061   9.649
99951SOL    HW1 1750  12.193  13.062   9.666
99951SOL    HW2 1751  12.062  13.006   9.718
99952SOL     OW 1752   4.002  11.918   9.087
99952SOL    HW1 1753   4.035  11.938   8.999
99952SOL    HW2 1754   4.052  11.975   9.145
99953SOL     OW 1755   1.859   0.896   4.696
99953SOL    HW1 1756   1.918   0.851   4.757
99953SOL    HW2 1757   1.812   0.825   4.651
99954SOL     OW 1758   7.338  13.421  13.089
99954SOL    HW1 1759   7.352  13.328  13.109
99954SOL    HW2 1760   7.243  13.433  13.094
99955SOL     OW 1761  14.405  12.698   9.457
99955SOL    HW1 1762  14.397  12.771   9.395
99955SOL    HW2 1763  14.388  12.737   9.542
99956SOL     OW 1764   1.476  10.848   0.208
99956SOL    HW1 1765   1.505  10.835   0.117
99956SOL    HW2 1766   1.381  10.852   0.202
99957SOL     OW 1767   5.387   0.277  12.060
99957SOL    HW1 1768   5.473   0.318  12.057
99957SOL    HW2 1769   5.325   0.349  12.070
99958SOL     OW 1770  14.264   9.551   8.151
99958SOL    HW1 1771  14.324   9.626   8.150
99958SOL    HW2 1772  14.234   9.543   8.061
99959SOL     OW 1773   9.688   0.701  12.305
99959SOL    HW1 1774   9.635   0.674  12.381
99959SOL    HW2 1775   9.631   0.688  12.230
99960SOL     OW 1776   8.826   9.138   0.385
99960SOL    HW1 1777   8.815   9.150   0.479
99960SOL    HW2 1778   8.850   9.045   0.375
99961SOL     OW 1779   6.716   6.745   2.441
99961SOL    HW1 1780   6.765   6.667   2.469
99961SOL    HW2 1781   6.727   6.807   2.513
99962SOL     OW 1782   4.135  13.792   9.003
99962SOL    HW1 1783   4.209  13.823   8.951
99962SOL    HW2 1784   4.116  13.705   8.968
99963SOL     OW 1785  12.719  11.122  11.268
99963SOL    HW1 1786  12.659  11.137  11.341
99963SOL    HW2 1787  12.661  11.104  11.193
99964SOL     OW 1788   6.897  14.177  13.768
99964SOL    HW1 1789   6.814  14.137  13.794
99964SOL    HW2 1790   6.939  14.112  13.712
99965SOL     OW 1791   6.031  11.048   0.707
99965SOL    HW1 1792   6.048  11.019   0.618
99965SOL    HW2 1793   5.936  11.063   0.710
99966SOL     OW 1794  13.447   2.720   6.726
99966SOL    HW1 1795  13.515   2.722   6.658
99966SOL    HW2 1796  13.419   2.628   6.729
99967SOL     OW 1797   9.814  13.250   9.190
99967SOL    HW1 1798   9.735  13.271   9.140
99967SOL    HW2 1799   9.784  13.248   9.281
99968SOL     OW 1800  11.546   2.745   3.004
99968SOL    HW1 1801  11.589   2.660   2.996
99968SOL    HW2 1802  11.480   2.732   3.073
99969SOL     OW 1803   7.119   8.869   9.676
99969SOL    HW1 1804   7.047   8.806   9.663
99969SOL    HW2 1805   7.085   8.932   9.739
99970SOL     OW 1806  12.009  14.256   3.740
99970SOL    HW1 1807  11.937  14.218   3.790
99970SOL    HW2 1808  12.069  14.290   3.806
99971SOL     OW 1809   3.487  11.007   9.987
99971SOL    HW1 1810   3.510  11.090   9.945
99971SOL    HW2 1811   3.480  10.945   9.914
99972SOL     OW 1812  13.279  14.674   8.464
99972SOL    HW1 1813  13.193  14.703   8.495
99972SOL    HW2 1814  13.262  14.635   8.379
99973SOL     OW 1815  14.312   2.687   1.343
99973SOL    HW1 1816  14.292   2.684   1.250
99973SOL    HW2 1817  14.384   2.624   1.354
99974SOL     OW 1818   4.938   5.611   4.085
99974SOL    HW1 1819   4.964   5.654   4.166
99974SOL    HW2 1820   4.926   5.519   4.109
99975SOL     OW 1821   5.145   1.220   5.100
99975SOL    HW1 1822   5.174   1.204   5.190
99975SOL    HW2 1823   5.225   1.213   5.048
99976SOL     OW 1824   3.342   4.645   1.318
99976SOL    HW1 1825   3.325   4.739   1.313
99976SOL    HW2 1826   3.408   4.629   1.251
99977SOL     OW 1827   4.070  12.447  14.610
99977SOL    HW1 1828   3.996  12.443  14.549
99977SOL    HW2 1829   4.044  12.392  14.684
99978SOL     OW 1830  14.003   9.879   8.330
99978SOL    HW1 1831  13.979   9.856   8.241
99978SOL    HW2 1832  14.091   9.842   8.342
99979SOL     OW 1833  12.141   2.935   2.123
99979SOL    HW1 1834  12.133   2.893   2.037
99979SOL    HW2 1835  12.234   2.926   2.146
99980SOL     OW 1836   1.575   5.043  13.400
99980SOL    HW1 1837   1.575   5.036  13.305
99980SOL    HW2 1838   1.588   5.136  13.418
99981SOL     OW 1839   4.147  13.182   0.755
99981SOL    HW1 1840   4.208  13.155   0.687
99981SOL    HW2 1841   4.127  13.101   0.803
99982SOL     OW 1842  10.946   0.535   0.774
99982SOL    HW1 1843  10.935   0.548   0.680
99982SOL    HW2 1844  10.934   0.441   0.787
99983SOL     OW 1845   3.295  12.345   8.389
99983SOL    HW1 1846   3.328  12.400   8.317
99983SOL    HW2 1847   3.212  12.385   8.413
99984SOL     OW 1848   2.391   2.176   0.888
99984SOL    HW1 1849   2.315   2.142   0.935
99984SOL    HW2 1850   2.366   2.172   0.796
99985SOL     OW 1851   3.431   3.345  11.952
99985SOL    HW1 1852   3.525   3.366  11.949
99985SOL    HW2 1853   3.424   3.271  12.012
99986SOL     OW 1854   9.863   7.719  11.916
99986SOL    HW1 1855   9.823   7.742  12.000
99986SOL    HW2 1856   9.943   7.772  11.913
99987SOL     OW 1857   7.177  10.441   2.868
99987SOL    HW1 1858   7.144  10.381   2.936
99987SOL    HW2 1859   7.225  10.384   2.807
99988SOL     OW 1860   6.386   5.303   5.355
99988SOL    HW1 1861   6.359   5.393   5.337
99988SOL    HW2 1862   6.472   5.311   5.396
99989SOL     OW 1863   2.464  13.435   2.627
99989SOL    HW1 1864   2.439  13.527   2.623
99989SOL    HW2 1865   2.477  13.409   2.536
99990SOL     OW 1866  11.537   3.485  11.337
99990SOL    HW1 1867  11.474   3.419  11.308
99990SOL    HW2 1868  11.620   3.439  11.341
99991SOL     OW 1869  12.998  14.464   0.272
99991SOL    HW1 1870  12.954  14.506   0.345
99991SOL    HW2 1871  13.027  14.536   0.216
99992SOL     OW 1872   3.750   1.464  13.341
99992SOL    HW1 1873   3.683   1.411  13.384
99992SOL    HW2 1874   3.730   1.456  13.247
99993SOL     OW 1875   7.295  14.379   5.364
99993SOL    HW1 1876   7.215  14.329   5.380
99993SOL    HW2 1877   7.343  14.329   5.298
99994SOL     OW 1878  10.772   6.233   8.826
99994SOL    HW1 1879  10.703   6.173   8.854
99994SOL    HW2 1880  10.799   6.278   8.905
99995SOL     OW 1881   4.890   3.474   2.000
99995SOL    HW1 1882   4.843   3.523   2.068
99995SOL    HW2 1883   4.839   3.489   1.921
99996SOL     OW 1884   6.576  11.233  14.215
99996SOL    HW1 1885   6.496  11.187  14.189
99996SOL    HW2 1886   6.546  11.298  14.279
99997SOL     OW 1887  14.449   3.997   6.047
99997SOL    HW1 1888  14.383   3.931   6.069
99997SOL    HW2 1889  14.436   4.015   5.954
99998SOL     OW 1890   9.936   8.107   1.088
99998SOL    HW1 1891   9.878   8.127   1.161
99998SOL    HW2 1892   9.979   8.190   1.068
99999SOL     OW 1893   0.360  12.762   6.004
99999SOL    HW1 1894   0.283  12.818   5.994
99999SOL    HW2 1895   0.330  12.676   5.975
    0SOL     OW 1896   6.988   5.676   4.523
    0SOL    HW1 1897   6.896   5.696   4.535
    0SOL    HW2 1898   7.017   5.644   4.609
    1SOL     OW 1899   2.569  12.345   4.103
    1SOL    HW1 1900   2.602  12.265   4.144
    1SOL    HW2 1901   2.512  12.384   4.170
    2SOL     OW 1902  12.376   8.471  14.612
    2SOL    HW1 1903  12.360   8.548  14.668
    2SOL    HW2 1904  12.291   8.429  14.605
    3SOL     OW 1905  12.475  11.066   4.817
    3SOL    HW1 1906  12.495  11.102   4.731
    3SOL    HW2 1907  12.499  11.136   4.878
    4SOL     OW 1908   5.830  11.052   7.410
    4SOL    HW1 1909   5.891  11.105   7.359
    4SOL    HW2 1910   5.880  10.974   7.434
    5SOL     OW 1911   6.663  13.692   8.177
    5SOL    HW1 1912   6.587  13.747   8.196
    5SOL    HW2 1913   6.712  13.689   8.259
    6SOL     OW 1914  12.398  13.719   4.050
    6SOL    HW1 1915  12.330  13.783   4.029
    6SOL    HW2 1916  12.396  13.657   3.977
    7SOL     OW 1917  12.867  10.705   2.587
    7SOL    HW1 1918  12.855  10.640   2.518
    7SOL    HW2 1919  12.779  10.736   2.605
    8SOL     OW 1920  13.288   2.033   5.592
    8SOL    HW1 1921  13.225   2.087   5.543
    8SOL    HW2 1922  13.263   2.045   5.684
    9SOL     OW 1923   2.651   4.864  12.349
    9SOL    HW1 1924   2.607   4.779  12.344
    9SOL    HW2 1925   2.608   4.908  12.423
   10SOL     OW 1926   5.647  10.424   1.559
   10SOL    HW1 1927   5.716  10.365   1.590
   10SOL    HW2 1928   5.596  10.371   1.497
   11SOL     OW 1929  11.350  14.416  12.146
   11SOL    HW1 1930  11.268  14.393  12.102
   11SOL    HW2 1931  11.404  14.338  12.136
   12SOL     OW 1932   6.365   6.184   4.355
   12SOL    HW1 1933   6.413   6.227   4.426
   12SOL    HW2 1934   6.397   6.226   4.276
   13SOL     OW 1935  13.132  11.650  13.840
   13SOL    HW1 1936  13.222  11.620  13.826
   13SOL    HW2 1937  13.130  11.738  13.804
   14SOL     OW 1938   6.305  12.704   8.286
   14SOL    HW1 1939   6.274  12.616   8.267
   14SOL    HW2 1940   6.303  12.710   8.382
   15SOL     OW 1941   7.461  14.522  14.341
   15SOL    HW1 1942   7.508  14.439  14.328
   15SOL    HW2 1943   7.409  14.532  14.261
   16SOL     OW 1944   0.583   6.898   8.435
   16SOL    HW1 1945   0.505   6.929   8.482
   16SOL    HW2 1946   0.556   6.813   8.398
   17SOL     OW 1947  13.649   2.341   3.397
   17SOL    HW1 1948  13.696   2.354   3.479
   17SOL    HW2 1949  13.557   2.354   3.419
   18SOL     OW 1950   5.112  10.285   8.527
   18SOL    HW1 1951   5.023  10.315   8.507
   18SOL    HW2 1952   5.099  10.205   8.578
   19SOL     OW 1953   6.837  13.846  14.138
   19SOL    HW1 1954   6.775  13.774  14.139
   19SOL    HW2 1955   6.887  13.833  14.058
   20SOL     OW 1956   4.859   3.378   6.501
   20SOL    HW1 1957   4.838   3.363   6.409
   20SOL    HW2 1958   4.857   3.473   6.511
   21SOL     OW 1959  12.231   0.016   6.649
   21SOL    HW1 1960  12.326   0.015   6.640
   21SOL    HW2 1961  12.198   0.028   6.560
   22SOL     OW 1962  11.295  10.885   6.394
   22SOL    HW1 1963  11.321  10.938   6.469
   22SOL    HW2 1964  11.332  10.931   6.319
   23SOL     OW 1965   7.419  14.393   0.586
   23SOL    HW1 1966   7.461  14.476   0.566
   23SOL    HW2 1967   7.454  14.332   0.521
   24SOL     OW 1968   4.992   5.251   1.383
   24SOL    HW1 1969   4.996   5.249   1.288
   24SOL    HW2 1970   5.037   5.332   1.408
   25SOL     OW 1971  11.711  14.849  14.293
   25SOL    HW1 1972  11.637   0.038  14.289
   25SOL    HW2 1973  11.751  14.865  14.379
   26SOL     OW 1974   6.691   2.222   0.068
   26SOL    HW1 1975   6.631   2.273   0.014
   26SOL    HW2 1976   6.635   2.166   0.122
   27SOL     OW 1977   8.744   5.369   2.325
   27SOL    HW1 1978   8.821   5.317   2.347
   27SOL    HW2 1979   8.733   5.429   2.398
   28SOL     OW 1980   5.999   2.646   8.377
   28SOL    HW1 1981   5.956   2.567   8.410
   28SOL    HW2 1982   6.079   2.653   8.429
   29SOL     OW 1983  11.257   2.498  14.744
   29SOL    HW1 1984  11.213   2.437  14.684
   29SOL    HW2 1985  11.307   2.557  14.687
   30SOL     OW 1986   7.226   5.181  12.354
   30SOL    HW1 1987   7.213   5.133  12.436
   30SOL    HW2 1988   7.254   5.268  12.381
   31SOL     OW 1989  11.452   9.099  11.054
   31SOL    HW1 1990  11.381   9.147  11.012
   31SOL    HW2 1991  11.456   9.016  11.006
   32SOL     OW 1992   7.982  11.512  13.984
   32SOL    HW1 1993   8.000  11.515  13.890
   32SOL    HW2 1994   8.067  11.526  14.024
   33SOL     OW 1995   5.623  11.371   0.134
   33SOL    HW1 1996   5.581  11.355   0.218
   33SOL    HW2 1997   5.692  11.435   0.154
   34SOL     OW 1998   8.605   7.430  11.849
   34SOL    HW1 1999   8.627   7.507  11.797
   34SOL    HW2 2000   8.542   7.382  11.796
   35SOL     OW 2001   2.646   0.163   7.522
   35SOL    HW1 2002   2.591   0.090   7.549
   35SOL    HW2 2003   2.735   0.127   7.523
   36SOL     OW 2004   6.594   9.155   4.073
   36SOL    HW1 2005   6.652   9.186   4.142
   36SOL    HW2 2006   6.643   9.171   3.992
   37SOL     OW 2007   7.276   5.035  14.597
   37SOL    HW1 2008   7.348   5.016  14.537
   37SOL    HW2 2009   7.238   5.117  14.563
   38SOL     OW 2010  14.667   0.834   9.715
   38SOL    HW1 2011  14.707   0.823   9.628
   38SOL    HW2 2012  14.590   0.889   9.699
   39SOL     OW 2013  11.639   1.373  13.673
   39SOL    HW1 2014  11.643   1.405  13.763
   39SOL    HW2 2015  11.685   1.289  13.675
   40SOL     OW 2016  12.632   5.475   2.149
   40SOL    HW1 2017  12.718   5.511   2.128
   40SOL    HW2 2018  12.643   5.380   2.143
   41SOL     OW 2019   7.153   4.307  14.098
   41SOL    HW1 2020   7.078   4.362  14.075
   41SOL    HW2 2021   7.160   4.244  14.026
   42SOL     OW 2022   6.667  14.295   8.372
   42SOL    HW1 2023   6.623  14.225   8.324
   42SOL    HW2 2024   6.759  14.286   8.349
   43SOL     OW 2025   3.271   3.143  10.416
   43SOL    HW1 2026   3.367   3.137  10.423
   43SOL    HW2 2027   3.243   3.055  10.393
   44SOL     OW 2028  12.517   6.290  12.192
   44SOL    HW1 2029  12.440   6.291  12.249
   44SOL    HW2 2030  12.482   6.304  12.104
   45SOL     OW 2031   0.980   8.154  11.774
   45SOL    HW1 2032   0.946   8.205  11.700
   45SOL    HW2 2033   1.026   8.081  11.733
   46SOL     OW 2034   4.039   6.167   8.577
   46SOL    HW1 2035   3.981   6.092   8.561
   46SOL    HW2 2036   4.125   6.128   8.594
   47SOL     OW 2037   8.055   1.052   9.928
   47SOL    HW1 2038   7.984   1.047   9.863
   47SOL    HW2 2039   8.064   1.146   9.945
   48SOL     OW 2040   0.576   6.099   0.569
   48SOL    HW1 2041   0.635   6.024   0.572
   48SOL    HW2 2042   0.498   6.069   0.616
   49SOL     OW 2043  14.736   3.663  12.115
   49SOL    HW1 2044  14.764   3.754  12.123
   49SOL    HW2 2045  14.643   3.669  12.090
   50SOL     OW 2046  10.614  14.840   6.648
   50SOL    HW1 2047  10.602  14.857   6.741
   50SOL    HW2 2048  10.553   0.028   6.604
   51SOL     OW 2049   3.693  10.966   9.165
   51SOL    HW1 2050   3.601  10.940   9.167
   51SOL    HW2 2051   3.740  10.887   9.140
   52SOL     OW 2052   2.582   9.564   6.814
   52SOL    HW1 2053   2.672   9.531   6.808
   52SOL    HW2 2054   2.528   9.486   6.824
   53SOL     OW 2055   1.076  13.343  14.732
   53SOL    HW1 2056   1.046  13.338  14.823
   53SOL    HW2 2057   0.996  13.346  14.680
   54SOL     OW 2058  12.689  12.920   3.406
   54SOL    HW1 2059  12.662  12.859   3.474
   54SOL    HW2 2060  12.607  12.953   3.369
   55SOL     OW 2061  13.953   5.592   3.017
   55SOL    HW1 2062  13.934   5.524   3.082
   55SOL    HW2 2063  13.980   5.544   2.939
   56SOL     OW 2064   1.638   6.348   0.914
   56SOL    HW1 2065   1.547   6.317   0.916
   56SOL    HW2 2066   1.635   6.427   0.859
   57SOL     OW 2067  11.422   0.568   1.793
   57SOL    HW1 2068  11.416   0.511   1.716
   57SOL    HW2 2069  11.510   0.555   1.826
   58SOL     OW 2070   7.977  12.368   0.913
   58SOL    HW1 2071   7.953  12.277   0.930
   58SOL    HW2 2072   7.990  12.406   1.000
   59SOL     OW 2073  12.330  10.032   1.918
   59SOL    HW1 2074  12.286   9.999   1.840
   59SOL    HW2 2075  12.345  10.125   1.900
   60SOL     OW 2076   8.755   4.284   1.554
   60SOL    HW1 2077   8.775   4.378   1.555
   60SOL    HW2 2078   8.660   4.280   1.566
   61SOL     OW 2079   4.452   6.349   0.752
   61SOL    HW1 2080   4.366   6.323   0.718
   61SOL    HW2 2081   4.509   6.347   0.675
   62SOL     OW 2082   7.478   5.097   3.017
   62SOL    HW1 2083   7.499   5.133   2.931
   62SOL    HW2 2084   7.500   5.167   3.079
   63SOL     OW 2085  13.871   7.438   5.891
   63SOL    HW1 2086  13.786   7.409   5.925
   63SOL    HW2 2087  13.882   7.527   5.926
   64SOL     OW 2088   4.610   9.978   7.220
   64SOL    HW1 2089   4.697   9.969   7.180
   64SOL    HW2 2090   4.622  10.046   7.287
   65SOL     OW 2091   3.134  13.015   6.742
   65SOL    HW1 2092   3.213  13.067   6.754
   65SOL    HW2 2093   3.161  12.940   6.690
   66SOL     OW 2094   4.263   0.851   9.358
   66SOL    HW1 2095   4.235   0.916   9.422
   66SOL    HW2 2096   4.297   0.778   9.410
   67SOL     OW 2097   8.379  13.191   4.577
   67SOL    HW1 2098   8.458  13.137   4.580
   67SOL    HW2 2099   8.412  13.281   4.568
   68SOL     OW 2100   7.927   8.974   7.714
   68SOL    HW1 2101   7.909   9.018   7.797
   68SOL    HW2 2102   7.863   8.903   7.710
   69SOL     OW 2103   6.722   3.053   7.317
   69SOL    HW1 2104   6.697   3.088   7.232
   69SOL    HW2 2105   6.639   3.026   7.357
   70SOL     OW 2106  10.003  11.668   2.392
   70SOL    HW1 2107  10.003  11.649   2.486
   70SOL    HW2 2108   9.965  11.590   2.352
   71SOL     OW 2109  11.752   2.749   0.578
   71SOL    HW1 2110  11.767   2.795   0.661
   71SOL    HW2 2111  11.838   2.744   0.537
   72SOL     OW 2112  11.334   3.426   2.568
   72SOL    HW1 2113  11.398   3.369   2.611
   72SOL    HW2 2114  11.293   3.370   2.502
   73SOL     OW 2115   3.296  10.712   1.156
   73SOL    HW1 2116   3.327  10.626   1.129
   73SOL    HW2 2117   3.349  10.734   1.233
   74SOL     OW 2118   0.396  13.926   0.960
   74SOL    HW1 2119   0.371  13.835   0.978
   74SOL    HW2 2120   0.337  13.978   1.014
   75SOL     OW 2121   8.528   0.742   1.657
   75SOL    HW1 2122   8.439   0.710   1.643
   75SOL    HW2 2123   8.524   0.834   1.632
   76SOL     OW 2124   7.572  12.047   3.268
   76SOL    HW1 2125   7.529  12.005   3.342
   76SOL    HW2 2126   7.502  12.092   3.222
   77SOL     OW 2127  11.645   7.414  14.364
   77SOL    HW1 2128  11.617   7.339  14.313
   77SOL    HW2 2129  11.601   7.489  14.322
   78SOL     OW 2130  14.596   5.151  14.649
   78SOL    HW1 2131  14.668   5.155  14.711
   78SOL    HW2 2132  14.520   5.181  14.698
   79SOL     OW 2133   0.478   6.017  14.536
   79SOL    HW1 2134   0.498   5.936  14.489
   79SOL    HW2 2135   0.508   6.087  14.477
   80SOL     OW 2136   8.897   2.893   5.520
   80SOL    HW1 2137   8.913   2.874   5.427
   80SOL    HW2 2138   8.883   2.988   5.523
   81SOL     OW 2139  13.371   8.042  13.229
   81SOL    HW1 2140  13.321   8.039  13.147
   81SOL    HW2 2141  13.304   8.036  13.298
   82SOL     OW 2142  10.871   4.598   2.007
   82SOL    HW1 2143  10.939   4.586   1.941
   82SOL    HW2 2144  10.819   4.517   2.003
   83SOL     OW 2145   5.836   7.636   2.418
   83SOL    HW1 2146   5.887   7.650   2.338
   83SOL    HW2 2147   5.805   7.546   2.412
   84SOL     OW 2148   4.148   5.952   5.758
   84SOL    HW1 2149   4.094   5.988   5.827
   84SOL    HW2 2150   4.238   5.977   5.782
   85SOL     OW 2151   5.120  14.847  10.104
   85SOL    HW1 2152   5.194  14.869  10.160
   85SOL    HW2 2153   5.157  14.843  10.015
   86SOL     OW 2154   8.500   3.694   4.541
   86SOL    HW1 2155   8.429   3.649   4.495
   86SOL    HW2 2156   8.457   3.745   4.609
   87SOL     OW 2157   9.636  10.976  14.668
   87SOL    HW1 2158   9.719  10.934  14.693
   87SOL    HW2 2159   9.582  10.971  14.747
   88SOL     OW 2160  14.087   0.879   2.376
   88SOL    HW1 2161  14.124   0.957   2.418
   88SOL    HW2 2162  14.057   0.910   2.290
   89SOL     OW 2163  10.995  10.054   1.696
   89SOL    HW1 2164  10.989  10.134   1.643
   89SOL    HW2 2165  10.913  10.050   1.744
   90SOL     OW 2166   8.668   1.222   2.649
   90SOL    HW1 2167   8.741   1.277   2.678
   90SOL    HW2 2168   8.707   1.161   2.586
   91SOL     OW 2169   8.263   2.656   5.336
   91SOL    HW1 2170   8.251   2.745   5.370
   91SOL    HW2 2171   8.292   2.668   5.246
   92SOL     OW 2172  10.809   9.023   9.880
   92SOL    HW1 2173  10.826   9.077   9.803
   92SOL    HW2 2174  10.831   8.934   9.851
   93SOL     OW 2175   5.344   4.319   5.909
   93SOL    HW1 2176   5.403   4.248   5.886
   93SOL    HW2 2177   5.258   4.291   5.876
   94SOL     OW 2178  10.440   7.485   8.118
   94SOL    HW1 2179  10.405   7.413   8.171
   94SOL    HW2 2180  10.515   7.517   8.168
   95SOL     OW 2181  10.962   0.228   1.937
   95SOL    HW1 2182  11.018   0.222   2.015
   95SOL    HW2 2183  10.916   0.144   1.935
   96SOL     OW 2184   5.993  11.782   6.433
   96SOL    HW1 2185   6.078  11.783   6.390
   96SOL    HW2 2186   6.013  11.781   6.527
   97SOL     OW 2187   7.718   0.752   7.957
   97SOL    HW1 2188   7.716   0.767   7.863
   97SOL    HW2 2189   7.807   0.774   7.983
   98SOL     OW 2190  12.556   0.714  10.075
   98SOL    HW1 2191  12.565   0.729   9.981
   98SOL    HW2 2192  12.631   0.661  10.099
   99SOL     OW 2193   4.331   0.647   1.292
   99SOL    HW1 2194   4.274   0.708   1.338
   99SOL    HW2 2195   4.413   0.649   1.341
  100SOL     OW 2196   7.422  14.045  10.823
  100SOL    HW1 2197   7.473  14.124  10.841
  100SOL    HW2 2198   7.409  14.046  10.728
  101SOL     OW 2199   1.561  10.031  14.393
  101SOL    HW1 2200   1.603   9.959  14.440
  101SOL    HW2 2201   1.600  10.110  14.429
  102SOL     OW 2202  14.054   7.355   8.287
  102SOL    HW1 2203  13.973   7.313   8.318
  102SOL    HW2 2204  14.047   7.352   8.191
  103SOL     OW 2205   8.084   4.066  14.688
  103SOL    HW1 2206   7.996   4.041  14.661
  103SOL    HW2 2207   8.108   4.138  14.629
  104SOL     OW 2208  10.443  11.095   5.946
  104SOL    HW1 2209  10.418  11.130   6.031
  104SOL    HW2 2210  10.467  11.171   5.894
  105SOL     OW 2211  10.276   5.278   8.035
  105SOL    HW1 2212  10.330   5.224   7.978
  105SOL    HW2 2213  10.204   5.219   8.061
  106SOL     OW 2214   9.137   2.969  13.669
  106SOL    HW1 2215   9.123   2.890  13.617
  106SOL    HW2 2216   9.186   3.028  13.612
  107SOL     OW 2217   2.863   8.729   0.897
  107SOL    HW1 2218   2.941   8.706   0.949
  107SOL    HW2 2219   2.816   8.646   0.886
  108SOL     OW 2220   4.270  10.491  14.664
  108SOL    HW1 2221   4.210  10.526  14.729
  108SOL    HW2 2222   4.286  10.565  14.604
  109SOL     OW 2223   7.079   0.459   9.819
  109SOL    HW1 2224   7.118   0.537   9.859
  109SOL    HW2 2225   7.057   0.402   9.892
  110SOL     OW 2226  11.712   2.643   0.054
  110SOL    HW1 2227  11.665   2.644   0.137
  110SOL    HW2 2228  11.647   2.613  14.863
  111SOL     OW 2229   7.479  11.477   0.967
  111SOL    HW1 2230   7.563  11.520   0.948
  111SOL    HW2 2231   7.437  11.535   1.031
  112SOL     OW 2232  13.991   7.255  13.421
  112SOL    HW1 2233  14.020   7.346  13.420
  112SOL    HW2 2234  13.999   7.229  13.513
  113SOL     OW 2235   0.900   3.415   9.506
  113SOL    HW1 2236   0.958   3.387   9.578
  113SOL    HW2 2237   0.825   3.356   9.511
  114SOL     OW 2238  10.189   7.011   1.603
  114SOL    HW1 2239  10.120   6.953   1.570
  114SOL    HW2 2240  10.270   6.974   1.567
  115SOL     OW 2241   6.223   7.535   4.998
  115SOL    HW1 2242   6.284   7.534   5.072
  115SOL    HW2 2243   6.277   7.522   4.921
  116SOL     OW 2244  12.015   5.353   4.005
  116SOL    HW1 2245  11.988   5.342   3.914
  116SOL    HW2 2246  11.974   5.435   4.033
  117SOL     OW 2247  12.140   7.325   3.943
  117SOL    HW1 2248  12.234   7.342   3.950
  117SOL    HW2 2249  12.133   7.230   3.939
  118SOL     OW 2250   1.840   3.624   1.653
  118SOL    HW1 2251   1.874   3.640   1.565
  118SOL    HW2 2252   1.859   3.532   1.670
  119SOL     OW 2253   1.257   0.210  11.538
  119SOL    HW1 2254   1.256   0.210  11.634
  119SOL    HW2 2255   1.165   0.208  11.513
  120SOL     OW 2256   4.477   9.378  13.316
  120SOL    HW1 2257   4.533   9.441  13.361
  120SOL    HW2 2258   4.521   9.294  13.328
  121SOL     OW 2259  12.932   9.542   6.660
  121SOL    HW1 2260  12.935   9.638   6.665
  121SOL    HW2 2261  12.884   9.516   6.738
  122SOL     OW 2262   0.472   6.961   7.842
  122SOL    HW1 2263   0.524   7.007   7.907
  122SOL    HW2 2264   0.484   7.011   7.761
  123SOL     OW 2265   3.353  12.957   0.560
  123SOL    HW1 2266   3.373  12.980   0.651
  123SOL    HW2 2267   3.400  13.022   0.508
  124SOL     OW 2268   6.789  10.922   8.589
  124SOL    HW1 2269   6.698  10.894   8.600
  124SOL    HW2 2270   6.842  10.847   8.616
  125SOL     OW 2271  12.828   3.170  12.062
  125SOL    HW1 2272  12.828   3.244  12.001
  125SOL    HW2 2273  12.887   3.106  12.023
  126SOL     OW 2274  12.681   4.409  10.523
  126SOL    HW1 2275  12.655   4.326  10.564
  126SOL    HW2 2276  12.609   4.469  10.544
  127SOL     OW 2277   2.499  11.558   1.094
  127SOL    HW1 2278   2.548  11.518   1.165
  127SOL    HW2 2279   2.546  11.640   1.076
  128SOL     OW 2280  13.439   6.707   8.538
  128SOL    HW1 2281  13.502   6.763   8.584
  128SOL    HW2 2282  13.360   6.761   8.531
  129SOL     OW 2283  14.403  10.201   9.737
  129SOL    HW1 2284  14.481  10.144   9.734
  129SOL    HW2 2285  14.333  10.143   9.767
  130SOL     OW 2286   3.510   4.057  14.137
  130SOL    HW1 2287   3.519   4.152  14.135
  130SOL    HW2 2288   3.512   4.030  14.046
  131SOL     OW 2289   4.693   3.746  13.367
  131SOL    HW1 2290   4.761   3.718  13.306
  131SOL    HW2 2291   4.611   3.736  13.317
  132SOL     OW 2292   3.260   6.315   8.358
  132SOL    HW1 2293   3.249   6.232   8.405
  132SOL    HW2 2294   3.354   6.332   8.361
  133SOL     OW 2295  11.231   5.597  13.847
  133SOL    HW1 2296  11.211   5.629  13.759
  133SOL    HW2 2297  11.215   5.503  13.843
  134SOL     OW 2298  13.208   6.372   3.256
  134SOL    HW1 2299  13.132   6.342   3.306
  134SOL    HW2 2300  13.198   6.467   3.253
  135SOL     OW 2301  13.689   8.521   8.303
  135SOL    HW1 2302  13.641   8.440   8.286
  135SOL    HW2 2303  13.718   8.551   8.217
  136SOL     OW 2304  10.312   1.753   6.409
  136SOL    HW1 2305  10.396   1.766   6.365
  136SOL    HW2 2306  10.249   1.803   6.357
  137SOL     OW 2307   7.692   7.572   0.731
  137SOL    HW1 2308   7.635   7.537   0.663
  137SOL    HW2 2309   7.640   7.566   0.811
  138SOL     OW 2310  13.368   6.846  11.451
  138SOL    HW1 2311  13.419   6.812  11.525
  138SOL    HW2 2312  13.362   6.773  11.390
  139SOL     OW 2313   7.222  11.545   7.090
  139SOL    HW1 2314   7.226  11.602   7.013
  139SOL    HW2 2315   7.233  11.604   7.164
  140SOL     OW 2316   3.269  10.823   0.013
  140SOL    HW1 2317   3.353  10.860   0.041
  140SOL    HW2 2318   3.240  10.879  14.813
  141SOL     OW 2319   2.686   8.675   9.288
  141SOL    HW1 2320   2.607   8.723   9.263
  141SOL    HW2 2321   2.704   8.617   9.214
  142SOL     OW 2322   4.554   5.833  11.936
  142SOL    HW1 2323   4.507   5.830  12.020
  142SOL    HW2 2324   4.566   5.927  11.919
  143SOL     OW 2325  11.000  11.179   5.654
  143SOL    HW1 2326  11.019  11.116   5.723
  143SOL    HW2 2327  11.084  11.219   5.633
  144SOL     OW 2328   9.350   0.433  12.220
  144SOL    HW1 2329   9.383   0.344  12.212
  144SOL    HW2 2330   9.428   0.489  12.217
  145SOL     OW 2331  11.781   8.217  14.708
  145SOL    HW1 2332  11.821   8.296  14.743
  145SOL    HW2 2333  11.690   8.221  14.739
  146SOL     OW 2334   5.326   4.704   5.429
  146SOL    HW1 2335   5.270   4.755   5.487
  146SOL    HW2 2336   5.267   4.671   5.361
  147SOL     OW 2337   1.435   3.106   1.835
  147SOL    HW1 2338   1.375   3.044   1.794
  147SOL    HW2 2339   1.427   3.186   1.783
  148SOL     OW 2340   3.115  12.673   6.820
  148SOL    HW1 2341   3.071  12.642   6.899
  148SOL    HW2 2342   3.173  12.601   6.794
  149SOL     OW 2343   9.788   1.670   2.854
  149SOL    HW1 2344   9.730   1.630   2.789
  149SOL    HW2 2345   9.869   1.620   2.848
  150SOL     OW 2346  14.211   5.321   3.733
  150SOL    HW1 2347  14.154   5.361   3.667
  150SOL    HW2 2348  14.166   5.336   3.816
  151SOL     OW 2349   0.563   0.080  10.796
  151SOL    HW1 2350   0.638   0.139  10.805
  151SOL    HW2 2351   0.501   0.128  10.741
  152SOL     OW 2352   3.358   5.030  10.581
  152SOL    HW1 2353   3.432   5.000  10.633
  152SOL    HW2 2354   3.305   5.082  10.642
  153SOL     OW 2355  12.637   4.720  10.293
  153SOL    HW1 2356  12.627   4.695  10.385
  153SOL    HW2 2357  12.627   4.639  10.244
  154SOL     OW 2358  11.243   7.338   3.982
  154SOL    HW1 2359  11.284   7.284   3.915
  154SOL    HW2 2360  11.173   7.385   3.937
  155SOL     OW 2361  14.662   7.711  13.999
  155SOL    HW1 2362  14.726   7.655  14.042
  155SOL    HW2 2363  14.713   7.764  13.938
  156SOL     OW 2364  13.404   6.172  11.559
  156SOL    HW1 2365  13.455   6.251  11.541
  156SOL    HW2 2366  13.441   6.138  11.640
  157SOL     OW 2367   9.219  13.225  10.290
  157SOL    HW1 2368   9.152  13.290  10.270
  157SOL    HW2 2369   9.191  13.187  10.373
  158SOL     OW 2370  12.147  11.777   1.327
  158SOL    HW1 2371  12.078  11.799   1.390
  158SOL    HW2 2372  12.220  11.747   1.382
  159SOL     OW 2373   3.829  14.461   0.193
  159SOL    HW1 2374   3.816  14.524   0.264
  159SOL    HW2 2375   3.761  14.484   0.129
  160SOL     OW 2376   4.052   7.961  12.955
  160SOL    HW1 2377   4.124   7.962  13.019
  160SOL    HW2 2378   4.074   7.889  12.896
  161SOL     OW 2379   4.528  12.904   4.434
  161SOL    HW1 2380   4.511  12.901   4.529
  161SOL    HW2 2381   4.440  12.903   4.395
  162SOL     OW 2382  10.161   4.694   5.472
  162SOL    HW1 2383  10.177   4.624   5.536
  162SOL    HW2 2384  10.196   4.660   5.390
  163SOL     OW 2385   0.186   6.010   4.978
  163SOL    HW1 2386   0.129   5.963   4.918
  163SOL    HW2 2387   0.228   6.078   4.924
  164SOL     OW 2388   4.194  11.192   3.838
  164SOL    HW1 2389   4.110  11.197   3.792
  164SOL    HW2 2390   4.228  11.282   3.835
  165SOL     OW 2391   3.424   9.035   4.242
  165SOL    HW1 2392   3.358   9.060   4.307
  165SOL    HW2 2393   3.508   9.058   4.283
  166SOL     OW 2394   3.287   2.204   3.638
  166SOL    HW1 2395   3.348   2.256   3.691
  166SOL    HW2 2396   3.303   2.234   3.548
  167SOL     OW 2397   0.358   0.170   8.373
  167SOL    HW1 2398   0.356   0.264   8.392
  167SOL    HW2 2399   0.383   0.165   8.280
  168SOL     OW 2400   3.664   9.023   1.666
  168SOL    HW1 2401   3.577   9.062   1.656
  168SOL    HW2 2402   3.698   9.062   1.746
  169SOL     OW 2403  10.872   9.542  13.692
  169SOL    HW1 2404  10.940   9.584  13.638
  169SOL    HW2 2405  10.855   9.605  13.762
  170SOL     OW 2406  10.856   7.308   0.499
  170SOL    HW1 2407  10.813   7.228   0.468
  170SOL    HW2 2408  10.855   7.301   0.594
  171SOL     OW 2409  12.235   1.848   8.158
  171SOL    HW1 2410  12.223   1.914   8.090
  171SOL    HW2 2411  12.330   1.840   8.166
  172SOL     OW 2412   2.325   6.325  14.314
  172SOL    HW1 2413   2.376   6.262  14.365
  172SOL    HW2 2414   2.380   6.403  14.310
  173SOL     OW 2415   0.520   7.445   9.696
  173SOL    HW1 2416   0.516   7.353   9.668
  173SOL    HW2 2417   0.436   7.482   9.668
  174SOL     OW 2418   4.001   9.448   0.464
  174SOL    HW1 2419   3.973   9.481   0.379
  174SOL    HW2 2420   4.082   9.496   0.483
  175SOL     OW 2421   9.974   7.601   1.780
  175SOL    HW1 2422   9.921   7.601   1.860
  175SOL    HW2 2423  10.064   7.608   1.811
  176SOL     OW 2424   6.804  10.650   5.675
  176SOL    HW1 2425   6.729  10.704   5.698
  176SOL    HW2 2426   6.768  10.578   5.623
  177SOL     OW 2427   5.299  11.662  10.765
  177SOL    HW1 2428   5.359  11.736  10.758
  177SOL    HW2 2429   5.356  11.586  10.778
  178SOL     OW 2430  14.223  10.573   1.656
  178SOL    HW1 2431  14.159  10.581   1.585
  178SOL    HW2 2432  14.194  10.496   1.706
  179SOL     OW 2433  12.870  12.407   1.260
  179SOL    HW1 2434  12.884  12.501   1.259
  179SOL    HW2 2435  12.843  12.386   1.170
  180SOL     OW 2436  14.738   6.693  10.412
  180SOL    HW1 2437  14.719   6.673  10.320
  180SOL    HW2 2438  14.664   6.656  10.460
  181SOL     OW 2439  13.656   2.831   8.989
  181SOL    HW1 2440  13.615   2.900   9.041
  181SOL    HW2 2441  13.584   2.778   8.956
  182SOL     OW 2442   2.921   4.882  12.458
  182SOL    HW1 2443   2.981   4.929  12.400
  182SOL    HW2 2444   2.835   4.893  12.417
  183SOL     OW 2445   8.846   8.560   2.906
  183SOL    HW1 2446   8.915   8.514   2.857
  183SOL    HW2 2447   8.769   8.556   2.849
  184SOL     OW 2448   5.623   5.599   1.670
  184SOL    HW1 2449   5.698   5.657   1.683
  184SOL    HW2 2450   5.605   5.603   1.576
  185SOL     OW 2451  11.167   6.584   5.766
  185SOL    HW1 2452  11.088   6.610   5.718
  185SOL    HW2 2453  11.149   6.606   5.857
  186SOL     OW 2454   5.682   9.944   5.663
  186SOL    HW1 2455   5.729   9.861   5.656
  186SOL    HW2 2456   5.610   9.935   5.600
  187SOL     OW 2457  10.229   0.389  11.504
  187SOL    HW1 2458  10.155   0.368  11.447
  187SOL    HW2 2459  10.284   0.312  11.503
  188SOL     OW 2460  13.732   9.322   1.022
  188SOL    HW1 2461  13.754   9.275   0.942
  188SOL    HW2 2462  13.816   9.357   1.052
  189SOL     OW 2463   7.629  13.035   2.042
  189SOL    HW1 2464   7.654  13.123   2.071
  189SOL    HW2 2465   7.540  13.023   2.075
  190SOL     OW 2466  13.541   4.645  12.595
  190SOL    HW1 2467  13.524   4.736  12.616
  190SOL    HW2 2468  13.635   4.633  12.607
  191SOL     OW 2469  14.340   8.261  11.333
  191SOL    HW1 2470  14.267   8.220  11.288
  191SOL    HW2 2471  14.323   8.247  11.426
  192SOL     OW 2472  13.497   4.553   4.624
  192SOL    HW1 2473  13.427   4.603   4.582
  192SOL    HW2 2474  13.555   4.619   4.662
  193SOL     OW 2475  11.930   5.865  11.410
  193SOL    HW1 2476  11.850   5.879  11.358
  193SOL    HW2 2477  11.968   5.952  11.419
  194SOL     OW 2478   9.813   5.156  12.715
  194SOL    HW1 2479   9.733   5.150  12.767
  194SOL    HW2 2480   9.788   5.122  12.629
  195SOL     OW 2481   8.648   3.169  13.650
  195SOL    HW1 2482   8.713   3.219  13.700
  195SOL    HW2 2483   8.685   3.162  13.562
  196SOL     OW 2484   9.759  10.518  10.086
  196SOL    HW1 2485   9.822  10.482  10.024
  196SOL    HW2 2486   9.771  10.613  10.082
  197SOL     OW 2487  13.168  12.861  10.888
  197SOL    HW1 2488  13.148  12.947  10.850
  197SOL    HW2 2489  13.086  12.812  10.881
  198SOL     OW 2490  10.338   3.013  13.557
  198SOL    HW1 2491  10.315   3.011  13.464
  198SOL    HW2 2492  10.376   3.100  13.570
  199SOL     OW 2493   3.243  14.860   7.071
  199SOL    HW1 2494   3.158  14.816   7.061
  199SOL    HW2 2495   3.305  14.802   7.027
  200SOL     OW 2496   4.850  10.210   3.163
  200SOL    HW1 2497   4.896  10.291   3.185
  200SOL    HW2 2498   4.830  10.171   3.248
  201SOL     OW 2499   5.878   9.224  14.696
  201SOL    HW1 2500   5.835   9.184  14.620
  201SOL    HW2 2501   5.832   9.186  14.771
  202SOL     OW 2502   0.692  14.349   3.211
  202SOL    HW1 2503   0.698  14.378   3.120
  202SOL    HW2 2504   0.598  14.356   3.231
  203SOL     OW 2505   2.143  14.868   9.459
  203SOL    HW1 2506   2.166  14.776   9.471
  203SOL    HW2 2507   2.129   0.028   9.548
  204SOL     OW 2508   9.944  14.316   4.718
  204SOL    HW1 2509   9.969  14.252   4.651
  204SOL    HW2 2510   9.998  14.393   4.698
  205SOL     OW 2511  12.834  11.986   4.278
  205SOL    HW1 2512  12.872  11.987   4.366
  205SOL    HW2 2513  12.905  11.953   4.222
  206SOL     OW 2514   5.435   7.542  14.066
  206SOL    HW1 2515   5.360   7.602  14.065
  206SOL    HW2 2516   5.508   7.596  14.095
  207SOL     OW 2517   4.877  12.849  13.452
  207SOL    HW1 2518   4.892  12.928  13.503
  207SOL    HW2 2519   4.814  12.799  13.503
  208SOL     OW 2520   4.432   6.980   9.119
  208SOL    HW1 2521   4.369   7.047   9.093
  208SOL    HW2 2522   4.430   6.916   9.048
  209SOL     OW 2523   1.339   3.051   2.085
  209SOL    HW1 2524   1.394   3.089   2.017
  209SOL    HW2 2525   1.288   2.984   2.040
  210SOL     OW 2526   4.296   4.695  12.587
  210SOL    HW1 2527   4.231   4.762  12.609
  210SOL    HW2 2528   4.315   4.711  12.494
  211SOL     OW 2529   6.007   4.187  13.586
  211SOL    HW1 2530   5.979   4.189  13.494
  211SOL    HW2 2531   6.079   4.125  13.587
  212SOL     OW 2532  11.431   8.015  14.671
  212SOL    HW1 2533  11.455   8.100  14.708
  212SOL    HW2 2534  11.478   7.951  14.724
  213SOL     OW 2535   8.966   2.522   1.916
  213SOL    HW1 2536   8.954   2.551   1.825
  213SOL    HW2 2537   8.944   2.598   1.969
  214SOL     OW 2538   9.613   7.857  11.288
  214SOL    HW1 2539   9.580   7.791  11.227
  214SOL    HW2 2540   9.656   7.806  11.357
  215SOL     OW 2541   5.165  11.605  12.970
  215SOL    HW1 2542   5.260  11.601  12.959
  215SOL    HW2 2543   5.131  11.612  12.881
  216SOL     OW 2544   0.289   4.879   6.283
  216SOL    HW1 2545   0.259   4.970   6.276
  216SOL    HW2 2546   0.301   4.850   6.192
  217SOL     OW 2547   0.597  11.214  11.593
  217SOL    HW1 2548   0.561  11.298  11.563
  217SOL    HW2 2549   0.603  11.161  11.514
  218SOL     OW 2550  12.188   5.409  10.148
  218SOL    HW1 2551  12.250   5.417  10.076
  218SOL    HW2 2552  12.106   5.445  10.114
  219SOL     OW 2553   2.108  10.434  11.089
  219SOL    HW1 2554   2.046  10.400  11.024
  219SOL    HW2 2555   2.059  10.500  11.137
  220SOL     OW 2556  11.404  11.767   1.070
  220SOL    HW1 2557  11.339  11.832   1.099
  220SOL    HW2 2558  11.368  11.684   1.101
  221SOL     OW 2559  11.320   7.506   3.232
  221SOL    HW1 2560  11.380   7.564   3.186
  221SOL    HW2 2561  11.245   7.496   3.173
  222SOL     OW 2562  11.429   2.325  12.826
  222SOL    HW1 2563  11.395   2.392  12.766
  222SOL    HW2 2564  11.378   2.337  12.906
  223SOL     OW 2565  13.906   8.962   6.511
  223SOL    HW1 2566  13.972   9.021   6.545
  223SOL    HW2 2567  13.823   9.006   6.527
  224SOL     OW 2568   5.252   4.640   0.266
  224SOL    HW1 2569   5.206   4.595   0.336
  224SOL    HW2 2570   5.305   4.707   0.310
  225SOL     OW 2571   0.163   5.232   9.475
  225SOL    HW1 2572   0.151   5.137   9.474
  225SOL    HW2 2573   0.248   5.245   9.517
  226SOL     OW 2574  13.866   8.977  11.711
  226SOL    HW1 2575  13.940   9.026  11.676
  226SOL    HW2 2576  13.898   8.942  11.795
  227SOL     OW 2577  10.513   8.459  13.259
  227SOL    HW1 2578  10.600   8.420  13.258
  227SOL    HW2 2579  10.496   8.482  13.168
  228SOL     OW 2580   6.415   7.742   0.982
  228SOL    HW1 2581   6.416   7.829   0.943
  228SOL    HW2 2582   6.323   7.727   1.005
  229SOL     OW 2583   3.185  10.500   9.048
  229SOL    HW1 2584   3.212  10.505   9.139
  229SOL    HW2 2585   3.241  10.432   9.010
  230SOL     OW 2586   9.422   5.661   1.522
  230SOL    HW1 2587   9.402   5.592   1.584
  230SOL    HW2 2588   9.461   5.616   1.447
  231SOL     OW 2589   1.895   8.574   7.817
  231SOL    HW1 2590   1.869   8.483   7.815
  231SOL    HW2 2591   1.950   8.582   7.895
  232SOL     OW 2592  12.905   0.436   5.809
  232SOL    HW1 2593  12.974   0.438   5.876
  232SOL    HW2 2594  12.843   0.370   5.841
  233SOL     OW 2595   6.708  10.638   3.119
  233SOL    HW1 2596   6.637  10.610   3.060
  233SOL    HW2 2597   6.717  10.565   3.180
  234SOL     OW 2598   7.126   9.133   1.985
  234SOL    HW1 2599   7.065   9.144   1.911
  234SOL    HW2 2600   7.210   9.165   1.953
  235SOL     OW 2601   6.824  11.703   0.652
  235SOL    HW1 2602   6.888  11.639   0.621
  235SOL    HW2 2603   6.856  11.787   0.621
  236SOL     OW 2604   7.433   7.790   3.790
  236SOL    HW1 2605   7.509   7.753   3.834
  236SOL    HW2 2606   7.375   7.715   3.774
  237SOL     OW 2607  11.517   9.653   4.190
  237SOL    HW1 2608  11.487   9.570   4.226
  237SOL    HW2 2609  11.512   9.715   4.263
  238SOL     OW 2610   6.700   6.997  10.046
  238SOL    HW1 2611   6.719   6.903  10.052
  238SOL    HW2 2612   6.633   7.004   9.978
  239SOL     OW 2613   9.817  10.768   4.510
  239SOL    HW1 2614   9.727  10.801   4.521
  239SOL    HW2 2615   9.868  10.845   4.484
  240SOL     OW 2616   2.384  10.043   2.569
  240SOL    HW1 2617   2.309  10.025   2.512
  240SOL    HW2 2618   2.429   9.958   2.577
  241SOL     OW 2619   6.974  12.019   1.284
  241SOL    HW1 2620   6.955  12.104   1.323
  241SOL    HW2 2621   7.044  12.036   1.220
  242SOL     OW 2622   6.624   4.220   7.055
  242SOL    HW1 2623   6.646   4.269   7.134
  242SOL    HW2 2624   6.597   4.134   7.087
  243SOL     OW 2625   8.455  11.888   1.504
  243SOL    HW1 2626   8.546  11.898   1.477
  243SOL    HW2 2627   8.411  11.853   1.427
  244SOL     OW 2628   8.816  12.425   1.457
  244SOL    HW1 2629   8.830  12.366   1.531
  244SOL    HW2 2630   8.856  12.508   1.484
  245SOL     OW 2631  13.392   7.982   6.899
  245SOL    HW1 2632  13.338   8.061   6.890
  245SOL    HW2 2633  13.329   7.911   6.907
  246SOL     OW 2634   3.657   2.841   6.964
  246SOL    HW1 2635   3.640   2.749   6.946
  246SOL    HW2 2636   3.630   2.886   6.884
  247SOL     OW 2637   7.338  12.951   7.016
  247SOL    HW1 2638   7.278  12.884   6.983
  247SOL    HW2 2639   7.389  12.906   7.084
  248SOL     OW 2640   8.529   9.426   8.746
  248SOL    HW1 2641   8.471   9.494   8.779
  248SOL    HW2 2642   8.585   9.471   8.682
  249SOL     OW 2643   6.191   2.718  10.330
  249SOL    HW1 2644   6.138   2.771  10.271
  249SOL    HW2 2645   6.225   2.647  10.275
  250SOL     OW 2646  12.254  13.489  11.585
  250SOL    HW1 2647  12.160  13.491  11.567
  250SOL    HW2 2648  12.288  13.422  11.525
  251SOL     OW 2649  13.161  10.350   5.954
  251SOL    HW1 2650  13.153  10.444   5.969
  251SOL    HW2 2651  13.255  10.332   5.962
  252SOL     OW 2652   1.281   9.536   6.205
  252SOL    HW1 2653   1.277   9.442   6.220
  252SOL    HW2 2654   1.197   9.569   6.238
  253SOL     OW 2655   7.036  11.710   2.292
  253SOL    HW1 2656   7.122  11.748   2.311
  253SOL    HW2 2657   7.052  11.616   2.288
  254SOL     OW 2658  12.672   3.454  10.240
  254SOL    HW1 2659  12.653   3.533  10.188
  254SOL    HW2 2660  12.672   3.485  10.331
  255SOL     OW 2661   7.529   5.472  12.415
  255SOL    HW1 2662   7.511   5.454  12.507
  255SOL    HW2 2663   7.443   5.478  12.374
  256SOL     OW 2664   9.369   8.372   4.457
  256SOL    HW1 2665   9.327   8.378   4.372
  256SOL    HW2 2666   9.298   8.354   4.518
  257SOL     OW 2667   2.648  14.225   3.653
  257SOL    HW1 2668   2.654  14.204   3.746
  257SOL    HW2 2669   2.564  14.188   3.625
  258SOL     OW 2670   9.366   2.964   7.942
  258SOL    HW1 2671   9.393   2.885   7.894
  258SOL    HW2 2672   9.365   2.937   8.034
  259SOL     OW 2673   2.912   3.360  10.583
  259SOL    HW1 2674   2.879   3.375  10.672
  259SOL    HW2 2675   3.001   3.395  10.584
  260SOL     OW 2676  13.795  13.923   1.389
  260SOL    HW1 2677  13.745  13.842   1.386
  260SOL    HW2 2678  13.755  13.978   1.322
  261SOL     OW 2679  11.827   2.136   0.824
  261SOL    HW1 2680  11.752   2.168   0.775
  261SOL    HW2 2681  11.827   2.187   0.905
  262SOL     OW 2682   4.280  10.162   3.855
  262SOL    HW1 2683   4.260  10.073   3.883
  262SOL    HW2 2684   4.265  10.217   3.932
  263SOL     OW 2685   9.696   9.760   7.725
  263SOL    HW1 2686   9.667   9.820   7.794
  263SOL    HW2 2687   9.780   9.725   7.757
  264SOL     OW 2688  13.605   7.493  13.376
  264SOL    HW1 2689  13.611   7.479  13.470
  264SOL    HW2 2690  13.696   7.507  13.348
  265SOL     OW 2691   8.850   7.989  14.151
  265SOL    HW1 2692   8.822   7.922  14.089
  265SOL    HW2 2693   8.941   8.006  14.129
  266SOL     OW 2694  13.115   4.384   2.518
  266SOL    HW1 2695  13.150   4.441   2.450
  266SOL    HW2 2696  13.083   4.307   2.471
  267SOL     OW 2697   5.368  14.114   0.377
  267SOL    HW1 2698   5.334  14.025   0.385
  267SOL    HW2 2699   5.383  14.141   0.468
  268SOL     OW 2700   0.847   4.547  10.995
  268SOL    HW1 2701   0.826   4.605  10.922
  268SOL    HW2 2702   0.940   4.564  11.013
  269SOL     OW 2703  12.855  11.813   2.484
  269SOL    HW1 2704  12.925  11.778   2.539
  269SOL    HW2 2705  12.791  11.743   2.479
  270SOL     OW 2706  11.125  11.603   0.506
  270SOL    HW1 2707  11.195  11.569   0.563
  270SOL    HW2 2708  11.152  11.580   0.418
  271SOL     OW 2709  11.617  10.765   2.036
  271SOL    HW1 2710  11.623  10.857   2.012
  271SOL    HW2 2711  11.523  10.747   2.042
  272SOL     OW 2712   0.078  11.015   0.328
  272SOL    HW1 2713   0.057  11.011   0.421
  272SOL    HW2 2714  14.866  11.018   0.284
  273SOL     OW 2715  10.150   4.350  14.079
  273SOL    HW1 2716  10.192   4.344  14.164
  273SOL    HW2 2717  10.157   4.261  14.043
  274SOL     OW 2718  13.947  13.763   3.142
  274SOL    HW1 2719  13.997  13.837   3.177
  274SOL    HW2 2720  14.008  13.719   3.083
  275SOL     OW 2721   1.555   1.884   1.513
  275SOL    HW1 2722   1.650   1.880   1.500
  275SOL    HW2 2723   1.523   1.939   1.441
  276SOL     OW 2724  13.564   5.704  10.844
  276SOL    HW1 2725  13.517   5.763  10.785
  276SOL    HW2 2726  13.510   5.702  10.923
  277SOL     OW 2727   3.720  13.299   1.565
  277SOL    HW1 2728   3.648  13.331   1.512
  277SOL    HW2 2729   3.795  13.353   1.539
  278SOL     OW 2730  10.096  14.654   4.557
  278SOL    HW1 2731  10.133  14.576   4.515
  278SOL    HW2 2732  10.173  14.706   4.582
  279SOL     OW 2733   2.431   6.165   1.019
  279SOL    HW1 2734   2.471   6.176   1.105
  279SOL    HW2 2735   2.503   6.137   0.963
  280SOL     OW 2736   0.909   1.380   3.136
  280SOL    HW1 2737   0.853   1.383   3.213
  280SOL    HW2 2738   0.899   1.466   3.095
  281SOL     OW 2739   0.709  12.821   1.441
  281SOL    HW1 2740   0.623  12.850   1.410
  281SOL    HW2 2741   0.772  12.875   1.393
  282SOL     OW 2742   2.147   1.306   0.039
  282SOL    HW1 2743   2.118   1.245   0.107
  282SOL    HW2 2744   2.227   1.266   0.004
  283SOL     OW 2745   2.806   9.976   5.090
  283SOL    HW1 2746   2.822   9.990   5.183
  283SOL    HW2 2747   2.725   9.926   5.086
  284SOL     OW 2748   8.813   1.396  11.754
  284SOL    HW1 2749   8.901   1.424  11.727
  284SOL    HW2 2750   8.811   1.302  11.736
  285SOL     OW 2751   3.020   2.285  12.830
  285SOL    HW1 2752   3.063   2.253  12.751
  285SOL    HW2 2753   2.936   2.320  12.798
  286SOL     OW 2754   6.232   0.451   1.259
  286SOL    HW1 2755   6.248   0.545   1.260
  286SOL    HW2 2756   6.300   0.416   1.203
  287SOL     OW 2757  14.550   8.661  12.896
  287SOL    HW1 2758  14.455   8.644  12.894
  287SOL    HW2 2759  14.557   8.752  12.925
  288SOL     OW 2760  10.399   5.995   6.205
  288SOL    HW1 2761  10.320   5.941   6.196
  288SOL    HW2 2762  10.437   5.968   6.288
  289SOL     OW 2763   2.325   5.946   4.758
  289SOL    HW1 2764   2.314   5.851   4.755
  289SOL    HW2 2765   2.411   5.961   4.720
  290SOL     OW 2766   7.809   0.228   0.866
  290SOL    HW1 2767   7.827   0.167   0.794
  290SOL    HW2 2768   7.895   0.255   0.897
  291SOL     OW 2769   9.763  12.523   1.033
  291SOL    HW1 2770   9.684  12.543   1.084
  291SOL    HW2 2771   9.750  12.433   1.005
  292SOL     OW 2772   8.202   1.414   8.524
  292SOL    HW1 2773   8.196   1.419   8.620
  292SOL    HW2 2774   8.243   1.497   8.498
  293SOL     OW 2775   6.571   8.625   1.995
  293SOL    HW1 2776   6.539   8.675   2.070
  293SOL    HW2 2777   6.626   8.557   2.033
  294SOL     OW 2778  11.538   7.906   2.294
  294SOL    HW1 2779  11.620   7.930   2.250
  294SOL    HW2 2780  11.482   7.872   2.224
  295SOL     OW 2781   6.050   3.876   2.742
  295SOL    HW1 2782   6.049   3.936   2.817
  295SOL    HW2 2783   6.103   3.802   2.771
  296SOL     OW 2784  11.348   6.238  12.121
  296SOL    HW1 2785  11.341   6.315  12.176
  296SOL    HW2 2786  11.425   6.255  12.066
  297SOL     OW 2787   7.263  14.194  12.417
  297SOL    HW1 2788   7.281  14.257  12.348
  297SOL    HW2 2789   7.170  14.207  12.438
  298SOL     OW 2790  14.627   1.861   2.194
  298SOL    HW1 2791  14.676   1.801   2.250
  298SOL    HW2 2792  14.564   1.902   2.253
  299SOL     OW 2793  14.237   0.764  14.770
  299SOL    HW1 2794  14.290   0.715  14.708
  299SOL    HW2 2795  14.270   0.853  14.765
  300SOL     OW 2796  13.767  14.443   8.366
  300SOL    HW1 2797  13.727  14.513   8.315
  300SOL    HW2 2798  13.761  14.472   8.456
  301SOL     OW 2799  13.216   8.907   9.779
  301SOL    HW1 2800  13.311   8.919   9.786
  301SOL    HW2 2801  13.185   8.987   9.736
  302SOL     OW 2802   2.884   0.384   6.559
  302SOL    HW1 2803   2.827   0.346   6.492
  302SOL    HW2 2804   2.953   0.319   6.571
  303SOL     OW 2805  11.010   9.809  14.205
  303SOL    HW1 2806  11.065   9.730  14.208
  303SOL    HW2 2807  11.055   9.868  14.145
  304SOL     OW 2808   6.629  13.739   5.807
  304SOL    HW1 2809   6.687  13.699   5.872
  304SOL    HW2 2810   6.585  13.809   5.855
  305SOL     OW 2811  14.505  12.898   6.711
  305SOL    HW1 2812  14.492  12.987   6.677
  305SOL    HW2 2813  14.565  12.857   6.649
  306SOL     OW 2814   8.246   8.585   8.346
  306SOL    HW1 2815   8.203   8.506   8.379
  306SOL    HW2 2816   8.253   8.641   8.423
  307SOL     OW 2817   2.416  12.918   6.331
  307SOL    HW1 2818   2.383  12.959   6.251
  307SOL    HW2 2819   2.380  12.829   6.329
  308SOL     OW 2820   5.152   1.423   3.907
  308SOL    HW1 2821   5.188   1.506   3.876
  308SOL    HW2 2822   5.086   1.400   3.843
  309SOL     OW 2823   3.334   7.151   3.586
  309SOL    HW1 2824   3.295   7.064   3.595
  309SOL    HW2 2825   3.426   7.134   3.566
  310SOL     OW 2826   6.883   9.149  11.614
  310SOL    HW1 2827   6.933   9.151  11.695
  310SOL    HW2 2828   6.817   9.217  11.625
  311SOL     OW 2829   8.769   6.326  14.250
  311SOL    HW1 2830   8.820   6.300  14.327
  311SOL    HW2 2831   8.705   6.256  14.240
  312SOL     OW 2832  13.907   5.824   1.271
  312SOL    HW1 2833  13.853   5.846   1.194
  312SOL    HW2 2834  13.894   5.899   1.330
  313SOL     OW 2835   0.887   8.245  11.553
  313SOL    HW1 2836   0.887   8.189  11.476
  313SOL    HW2 2837   0.802   8.290  11.550
  314SOL     OW 2838   7.545   3.314  12.220
  314SOL    HW1 2839   7.547   3.381  12.289
  314SOL    HW2 2840   7.489   3.352  12.152
  315SOL     OW 2841  14.596   2.999  13.380
  315SOL    HW1 2842  14.590   2.905  13.398
  315SOL    HW2 2843  14.689   3.020  13.388
  316SOL     OW 2844   1.007   8.017  10.161
  316SOL    HW1 2845   1.030   8.019  10.068
  316SOL    HW2 2846   0.962   7.933  10.173
  317SOL     OW 2847  10.854   2.657   4.426
  317SOL    HW1 2848  10.817   2.744   4.441
  317SOL    HW2 2849  10.919   2.646   4.496
  318SOL     OW 2850   7.772  12.173   3.709
  318SOL    HW1 2851   7.753  12.265   3.694
  318SOL    HW2 2852   7.858  12.159   3.667
  319SOL     OW 2853   7.232   0.339   6.348
  319SOL    HW1 2854   7.146   0.377   6.365
  319SOL    HW2 2855   7.220   0.288   6.268
  320SOL     OW 2856   4.029  11.666   9.812
  320SOL    HW1 2857   4.020  11.761   9.822
  320SOL    HW2 2858   4.088  11.656   9.737
  321SOL     OW 2859  10.928  14.144   4.390
  321SOL    HW1 2860  10.986  14.122   4.463
  321SOL    HW2 2861  10.881  14.222   4.418
  322SOL     OW 2862   6.188   0.598   9.090
  322SOL    HW1 2863   6.223   0.575   9.004
  322SOL    HW2 2864   6.130   0.525   9.112
  323SOL     OW 2865   5.714   9.371  10.191
  323SOL    HW1 2866   5.625   9.348  10.219
  323SOL    HW2 2867   5.721   9.336  10.102
  324SOL     OW 2868   6.085   8.100  14.584
  324SOL    HW1 2869   6.166   8.108  14.633
  324SOL    HW2 2870   6.038   8.028  14.627
  325SOL     OW 2871  12.104  14.123  14.083
  325SOL    HW1 2872  12.056  14.202  14.106
  325SOL    HW2 2873  12.141  14.142  13.997
  326SOL     OW 2874   2.003  14.628   9.992
  326SOL    HW1 2875   2.097  14.625  10.010
  326SOL    HW2 2876   1.976  14.537   9.994
  327SOL     OW 2877   0.253  13.570   9.055
  327SOL    HW1 2878   0.176  13.615   9.090
  327SOL    HW2 2879   0.318  13.639   9.042
  328SOL     OW 2880  12.728   1.984   0.060
  328SOL    HW1 2881  12.678   1.911   0.098
  328SOL    HW2 2882  12.663   2.053   0.046
  329SOL     OW 2883  10.067   0.394  12.841
  329SOL    HW1 2884  10.149   0.345  12.849
  329SOL    HW2 2885  10.074   0.438  12.756
  330SOL     OW 2886   8.707   6.657  11.012
  330SOL    HW1 2887   8.634   6.697  11.059
  330SOL    HW2 2888   8.671   6.574  10.979
  331SOL     OW 2889   4.195   8.056   5.416
  331SOL    HW1 2890   4.160   7.970   5.439
  331SOL    HW2 2891   4.171   8.069   5.324
  332SOL     OW 2892   8.244   3.895   4.355
  332SOL    HW1 2893   8.282   3.930   4.274
  332SOL    HW2 2894   8.282   3.808   4.363
  333SOL     OW 2895   1.942  10.920   8.657
  333SOL    HW1 2896   1.875  10.976   8.697
  333SOL    HW2 2897   1.919  10.918   8.564
  334SOL     OW 2898   9.092   1.568   7.151
  334SOL    HW1 2899   9.155   1.621   7.199
  334SOL    HW2 2900   9.139   1.487   7.130
  335SOL     OW 2901   4.611   4.380  12.259
  335SOL    HW1 2902   4.666   4.423  12.325
  335SOL    HW2 2903   4.670   4.318  12.216
  336SOL     OW 2904  10.434  10.632  10.535
  336SOL    HW1 2905  10.398  10.720  10.532
  336SOL    HW2 2906  10.476  10.625  10.621
  337SOL     OW 2907   9.879  10.039   2.040
  337SOL    HW1 2908   9.934  10.112   2.069
  337SOL    HW2 2909   9.826  10.076   1.969
  338SOL     OW 2910   0.515  11.646  11.401
  338SOL    HW1 2911   0.445  11.708  11.381
  338SOL    HW2 2912   0.594  11.687  11.366
  339SOL     OW 2913  12.925  14.809   2.068
  339SOL    HW1 2914  12.871  14.830   2.143
  339SOL    HW2 2915  13.014  14.805   2.102
  340SOL     OW 2916  11.240  14.234  14.536
  340SOL    HW1 2917  11.192  14.153  14.517
  340SOL    HW2 2918  11.289  14.214  14.616
  341SOL     OW 2919  11.931  12.746   1.544
  341SOL    HW1 2920  11.914  12.840   1.533
  341SOL    HW2 2921  11.909  12.729   1.636
  342SOL     OW 2922   6.370   0.459   2.414
  342SOL    HW1 2923   6.339   0.402   2.344
  342SOL    HW2 2924   6.462   0.475   2.394
  343SOL     OW 2925   6.145  12.621  11.223
  343SOL    HW1 2926   6.140  12.578  11.308
  343SOL    HW2 2927   6.137  12.550  11.159
  344SOL     OW 2928   7.116   0.640   2.635
  344SOL    HW1 2929   7.137   0.712   2.695
  344SOL    HW2 2930   7.022   0.649   2.618
  345SOL     OW 2931   6.910  13.368   2.385
  345SOL    HW1 2932   6.895  13.334   2.297
  345SOL    HW2 2933   6.837  13.336   2.437
  346SOL     OW 2934   0.296  11.640   6.376
  346SOL    HW1 2935   0.349  11.677   6.305
  346SOL    HW2 2936   0.206  11.645   6.343
  347SOL     OW 2937   8.150  11.906  14.328
  347SOL    HW1 2938   8.237  11.883  14.360
  347SOL    HW2 2939   8.091  11.883  14.400
  348SOL     OW 2940   8.845   4.478   8.657
  348SOL    HW1 2941   8.773   4.480   8.594
  348SOL    HW2 2942   8.922   4.504   8.606
  349SOL     OW 2943   4.536   8.456   5.735
  349SOL    HW1 2944   4.478   8.527   5.762
  349SOL    HW2 2945   4.505   8.432   5.648
  350SOL     OW 2946   6.472  11.803  10.365
  350SOL    HW1 2947   6.380  11.826  10.353
  350SOL    HW2 2948   6.472  11.735  10.433
  351SOL     OW 2949   5.943   9.263   8.975
  351SOL    HW1 2950   5.851   9.250   8.998
  351SOL    HW2 2951   5.983   9.178   8.992
  352SOL     OW 2952   7.797  12.529   7.443
  352SOL    HW1 2953   7.851  12.608   7.434
  352SOL    HW2 2954   7.858  12.463   7.477
  353SOL     OW 2955   0.699   1.727   3.286
  353SOL    HW1 2956   0.735   1.689   3.207
  353SOL    HW2 2957   0.604   1.718   3.276
  354SOL     OW 2958   7.663   1.519   6.655
  354SOL    HW1 2959   7.639   1.432   6.623
  354SOL    HW2 2960   7.755   1.530   6.631
  355SOL     OW 2961   4.795   3.559  11.966
  355SOL    HW1 2962   4.750   3.600  11.891
  355SOL    HW2 2963   4.886   3.551  11.938
  356SOL     OW 2964  12.468  10.085   3.654
  356SOL    HW1 2965  12.463  10.021   3.724
  356SOL    HW2 2966  12.436  10.039   3.577
  357SOL     OW 2967   3.786   7.793   2.183
  357SOL    HW1 2968   3.723   7.862   2.161
  357SOL    HW2 2969   3.782   7.786   2.278
  358SOL     OW 2970   5.853   0.354  10.189
  358SOL    HW1 2971   5.902   0.312  10.260
  358SOL    HW2 2972   5.902   0.331  10.109
  359SOL     OW 2973   8.406   7.496  13.086
  359SOL    HW1 2974   8.475   7.443  13.046
  359SOL    HW2 2975   8.328   7.477  13.033
  360SOL     OW 2976  13.792   6.581   3.735
  360SOL    HW1 2977  13.852   6.625   3.796
  360SOL    HW2 2978  13.726   6.540   3.791
  361SOL     OW 2979  10.326   5.837   3.849
  361SOL    HW1 2980  10.231   5.838   3.853
  361SOL    HW2 2981  10.352   5.762   3.903
  362SOL     OW 2982   5.756   1.584   8.238
  362SOL    HW1 2983   5.701   1.615   8.166
  362SOL    HW2 2984   5.709   1.610   8.317
  363SOL     OW 2985   3.273   0.238  13.721
  363SOL    HW1 2986   3.256   0.329  13.745
  363SOL    HW2 2987   3.224   0.224  13.640
  364SOL     OW 2988  11.744  11.328   9.098
  364SOL    HW1 2989  11.677  11.370   9.152
  364SOL    HW2 2990  11.722  11.352   9.008
  365SOL     OW 2991   9.075   3.977   4.380
  365SOL    HW1 2992   9.055   4.068   4.361
  365SOL    HW2 2993   9.142   3.981   4.448
  366SOL     OW 2994  11.377  14.795  14.524
  366SOL    HW1 2995  11.315  14.840  14.466
  366SOL    HW2 2996  11.416  14.864  14.576
  367SOL     OW 2997   6.519  14.344   1.055
  367SOL    HW1 2998   6.459  14.276   1.023
  367SOL    HW2 2999   6.485  14.425   1.018
  368SOL     OW 3000  10.092   3.258   0.599
  368SOL    HW1 3001  10.109   3.165   0.586
  368SOL    HW2 3002  10.156   3.302   0.543
  369SOL     OW 3003  13.180  11.674   2.315
  369SOL    HW1 3004  13.092  11.679   2.276
  369SOL    HW2 3005  13.165  11.645   2.404
  370SOL     OW 3006   5.846   9.727  10.297
  370SOL    HW1 3007   5.772   9.747  10.353
  370SOL    HW2 3008   5.869   9.637  10.318
  371SOL     OW 3009   3.008   9.232  13.537
  371SOL    HW1 3010   3.103   9.240  13.524
  371SOL    HW2 3011   2.975   9.322  13.526
  372SOL     OW 3012   9.922  10.026   3.033
  372SOL    HW1 3013   9.970  10.107   3.016
  372SOL    HW2 3014   9.837  10.039   2.990
  373SOL     OW 3015   2.007  14.069   4.619
  373SOL    HW1 3016   1.917  14.036   4.627
  373SOL    HW2 3017   2.052  14.033   4.695
  374SOL     OW 3018   4.056   9.232  12.019
  374SOL    HW1 3019   4.012   9.161  11.973
  374SOL    HW2 3020   4.095   9.285  11.949
  375SOL     OW 3021   9.180   5.873   3.452
  375SOL    HW1 3022   9.253   5.845   3.507
  375SOL    HW2 3023   9.215   5.870   3.363
  376SOL     OW 3024  13.212  10.842  14.546
  376SOL    HW1 3025  13.265  10.921  14.553
  376SOL    HW2 3026  13.132  10.862  14.595
  377SOL     OW 3027   5.046   3.037   3.459
  377SOL    HW1 3028   5.032   2.947   3.490
  377SOL    HW2 3029   5.033   3.032   3.364
  378SOL     OW 3030  12.644  10.315  11.411
  378SOL    HW1 3031  12.557  10.282  11.388
  378SOL    HW2 3032  12.680  10.246  11.468
  379SOL     OW 3033  11.543   9.315   4.944
  379SOL    HW1 3034  11.603   9.332   5.017
  379SOL    HW2 3035  11.595   9.335   4.865
  380SOL     OW 3036   3.809  13.933   4.030
  380SOL    HW1 3037   3.876  13.903   4.092
  380SOL    HW2 3038   3.730  13.943   4.083
  381SOL     OW 3039  10.303  11.433   0.657
  381SOL    HW1 3040  10.256  11.494   0.713
  381SOL    HW2 3041  10.270  11.347   0.682
  382SOL     OW 3042   4.048   8.521  10.042
  382SOL    HW1 3043   4.104   8.445  10.028
  382SOL    HW2 3044   3.964   8.496  10.004
  383SOL     OW 3045   4.925   9.601   3.012
  383SOL    HW1 3046   4.976   9.524   2.989
  383SOL    HW2 3047   4.956   9.669   2.953
  384SOL     OW 3048   6.091  14.125   0.563
  384SOL    HW1 3049   6.186  14.123   0.550
  384SOL    HW2 3050   6.078  14.099   0.654
  385SOL     OW 3051  10.203   1.117   9.873
  385SOL    HW1 3052  10.187   1.127   9.779
  385SOL    HW2 3053  10.227   1.025   9.884
  386SOL     OW 3054   0.228  14.540   5.324
  386SOL    HW1 3055   0.165  14.583   5.382
  386SOL    HW2 3056   0.190  14.549   5.236
  387SOL     OW 3057  10.327   7.579  14.696
  387SOL    HW1 3058  10.274   7.645  14.650
  387SOL    HW2 3059  10.296   7.496  14.661
  388SOL     OW 3060   6.582   3.645   7.704
  388SOL    HW1 3061   6.563   3.696   7.625
  388SOL    HW2 3062   6.508   3.663   7.762
  389SOL     OW 3063  11.765   3.194  12.585
  389SOL    HW1 3064  11.687   3.146  12.613
  389SOL    HW2 3065  11.733   3.280  12.558
  390SOL     OW 3066  10.585   3.250   3.809
  390SOL    HW1 3067  10.657   3.236   3.871
  390SOL    HW2 3068  10.553   3.338   3.828
  391SOL     OW 3069  13.696   1.463   5.677
  391SOL    HW1 3070  13.745   1.436   5.599
  391SOL    HW2 3071  13.745   1.537   5.712
  392SOL     OW 3072   8.966   1.168  10.420
  392SOL    HW1 3073   8.984   1.207  10.334
  392SOL    HW2 3074   8.895   1.106  10.404
  393SOL     OW 3075   5.707   3.017   6.464
  393SOL    HW1 3076   5.764   2.997   6.390
  393SOL    HW2 3077   5.703   3.113   6.466
  394SOL     OW 3078   7.263   2.032   8.316
  394SOL    HW1 3079   7.357   2.047   8.307
  394SOL    HW2 3080   7.225   2.061   8.233
  395SOL     OW 3081   7.882   8.958  11.704
  395SOL    HW1 3082   7.813   8.902  11.740
  395SOL    HW2 3083   7.880   8.940  11.610
  396SOL     OW 3084   7.568   5.930   0.923
  396SOL    HW1 3085   7.636   5.893   0.980
  396SOL    HW2 3086   7.503   5.861   0.915
  397SOL     OW 3087   1.176   1.366  12.217
  397SOL    HW1 3088   1.198   1.414  12.296
  397SOL    HW2 3089   1.147   1.433  12.155
  398SOL     OW 3090   0.262  14.463  12.382
  398SOL    HW1 3091   0.285  14.373  12.360
  398SOL    HW2 3092   0.169  14.470  12.361
  399SOL     OW 3093   9.560   7.223   8.033
  399SOL    HW1 3094   9.642   7.271   8.043
  399SOL    HW2 3095   9.584   7.131   8.048
  400SOL     OW 3096  11.185   8.833   3.642
  400SOL    HW1 3097  11.223   8.772   3.705
  400SOL    HW2 3098  11.091   8.832   3.660
  401SOL     OW 3099   5.242   1.602   6.369
  401SOL    HW1 3100   5.236   1.666   6.298
  401SOL    HW2 3101   5.155   1.562   6.372
  402SOL     OW 3102   2.091   4.231   8.312
  402SOL    HW1 3103   2.153   4.159   8.317
  402SOL    HW2 3104   2.092   4.258   8.220
  403SOL     OW 3105   2.506   0.470  14.578
  403SOL    HW1 3106   2.601   0.480  14.589
  403SOL    HW2 3107   2.473   0.560  14.577
  404SOL     OW 3108   0.388   6.796  11.765
  404SOL    HW1 3109   0.448   6.723  11.783
  404SOL    HW2 3110   0.330   6.763  11.697
  405SOL     OW 3111  10.760   7.826   4.576
  405SOL    HW1 3112  10.688   7.780   4.533
  405SOL    HW2 3113  10.735   7.831   4.668
  406SOL     OW 3114  14.864   9.203  13.778
  406SOL    HW1 3115  14.804   9.265  13.738
  406SOL    HW2 3116   0.074   9.216  13.732
  407SOL     OW 3117   9.272  14.020   6.783
  407SOL    HW1 3118   9.350  13.995   6.733
  407SOL    HW2 3119   9.268  14.115   6.774
  408SOL     OW 3120  14.349  10.752   1.439
  408SOL    HW1 3121  14.433  10.706   1.448
  408SOL    HW2 3122  14.283  10.685   1.461
  409SOL     OW 3123  13.068  13.172   3.409
  409SOL    HW1 3124  13.050  13.266   3.408
  409SOL    HW2 3125  12.983  13.131   3.426
  410SOL     OW 3126   5.425   9.362   8.474
  410SOL    HW1 3127   5.395   9.298   8.410
  410SOL    HW2 3128   5.517   9.377   8.453
  411SOL     OW 3129   2.083   3.714  11.715
  411SOL    HW1 3130   2.151   3.747  11.657
  411SOL    HW2 3131   2.001   3.748  11.677
  412SOL     OW 3132   6.080  14.005  10.738
  412SOL    HW1 3133   6.173  14.027  10.743
  412SOL    HW2 3134   6.071  13.928  10.793
  413SOL     OW 3135   6.182  13.117   0.136
  413SOL    HW1 3136   6.167  13.210   0.121
  413SOL    HW2 3137   6.096  13.084   0.164
  414SOL     OW 3138  13.302   1.818   1.017
  414SOL    HW1 3139  13.307   1.837   0.924
  414SOL    HW2 3140  13.292   1.904   1.059
  415SOL     OW 3141   9.426   9.678  11.058
  415SOL    HW1 3142   9.512   9.679  11.099
  415SOL    HW2 3143   9.393   9.589  11.075
  416SOL     OW 3144   4.931  14.590  13.146
  416SOL    HW1 3145   4.984  14.640  13.084
  416SOL    HW2 3146   4.933  14.642  13.226
  417SOL     OW 3147   7.231   0.614  11.825
  417SOL    HW1 3148   7.222   0.561  11.905
  417SOL    HW2 3149   7.287   0.687  11.851
  418SOL     OW 3150  11.904   6.816   5.530
  418SOL    HW1 3151  11.845   6.883   5.497
  418SOL    HW2 3152  11.861   6.733   5.509
  419SOL     OW 3153   5.252   0.606   1.965
  419SOL    HW1 3154   5.265   0.601   2.059
  419SOL    HW2 3155   5.334   0.573   1.927
  420SOL     OW 3156   3.579   1.623   0.269
  420SOL    HW1 3157   3.562   1.714   0.294
  420SOL    HW2 3158   3.528   1.611   0.189
  421SOL     OW 3159   8.729  12.617   3.701
  421SOL    HW1 3160   8.683  12.592   3.781
  421SOL    HW2 3161   8.708  12.547   3.639
  422SOL     OW 3162   3.766   6.453  10.375
  422SOL    HW1 3163   3.711   6.496  10.441
  422SOL    HW2 3164   3.740   6.493  10.292
  423SOL     OW 3165   1.575   9.703  11.241
  423SOL    HW1 3166   1.632   9.678  11.314
  423SOL    HW2 3167   1.635   9.730  11.171
  424SOL     OW 3168  13.769   3.304   0.836
  424SOL    HW1 3169  13.728   3.222   0.865
  424SOL    HW2 3170  13.788   3.351   0.917
  425SOL     OW 3171   2.674  11.475   9.072
  425SOL    HW1 3172   2.624  11.453   9.151
  425SOL    HW2 3173   2.641  11.415   9.005
  426SOL     OW 3174   8.288  14.246  14.325
  426SOL    HW1 3175   8.195  14.267  14.324
  426SOL    HW2 3176   8.324  14.301  14.396
  427SOL     OW 3177  13.428   6.767   1.638
  427SOL    HW1 3178  13.357   6.824   1.609
  427SOL    HW2 3179  13.414   6.756   1.732
  428SOL     OW 3180  13.403   1.064   0.087
  428SOL    HW1 3181  13.384   1.072   0.181
  428SOL    HW2 3182  13.354   1.136   0.047
  429SOL     OW 3183   0.797   2.652   5.887
  429SOL    HW1 3184   0.847   2.629   5.966
  429SOL    HW2 3185   0.723   2.703   5.920
  430SOL     OW 3186   4.154   1.047  12.583
  430SOL    HW1 3187   4.106   0.988  12.526
  430SOL    HW2 3188   4.199   1.107  12.524
  431SOL     OW 3189   7.094   9.420  14.603
  431SOL    HW1 3190   7.162   9.468  14.556
  431SOL    HW2 3191   7.083   9.468  14.685
  432SOL     OW 3192   5.752   9.318   6.300
  432SOL    HW1 3193   5.662   9.311   6.269
  432SOL    HW2 3194   5.743   9.345   6.392
  433SOL     OW 3195   3.726   7.070   2.257
  433SOL    HW1 3196   3.650   7.124   2.278
  433SOL    HW2 3197   3.800   7.116   2.295
  434SOL     OW 3198   9.892   1.896   9.815
  434SOL    HW1 3199   9.875   1.990   9.816
  434SOL    HW2 3200   9.967   1.884   9.873
  435SOL     OW 3201  14.234   9.804   8.905
  435SOL    HW1 3202  14.202   9.762   8.825
  435SOL    HW2 3203  14.329   9.807   8.895
  436SOL     OW 3204   5.426   4.795   8.339
  436SOL    HW1 3205   5.474   4.868   8.301
  436SOL    HW2 3206   5.335   4.808   8.311
  437SOL     OW 3207   0.729  10.459  11.488
  437SOL    HW1 3208   0.744  10.534  11.431
  437SOL    HW2 3209   0.749  10.491  11.576
  438SOL     OW 3210   8.892   3.388  13.573
  438SOL    HW1 3211   8.895   3.303  13.529
  438SOL    HW2 3212   8.975   3.392  13.621
  439SOL     OW 3213  14.295   9.882   7.986
  439SOL    HW1 3214  14.244   9.961   8.002
  439SOL    HW2 3215  14.247   9.836   7.917
  440SOL     OW 3216  13.692   0.492  12.454
  440SOL    HW1 3217  13.692   0.584  12.428
  440SOL    HW2 3218  13.626   0.487  12.523
  441SOL     OW 3219   1.604   9.004   4.581
  441SOL    HW1 3220   1.600   8.920   4.535
  441SOL    HW2 3221   1.630   8.982   4.670
  442SOL     OW 3222   1.592  13.335   4.302
  442SOL    HW1 3223   1.541  13.260   4.332
  442SOL    HW2 3224   1.544  13.368   4.226
  443SOL     OW 3225  12.141   2.144   1.483
  443SOL    HW1 3226  12.199   2.080   1.442
  443SOL    HW2 3227  12.186   2.168   1.564
  444SOL     OW 3228   2.377   3.666   6.777
  444SOL    HW1 3229   2.465   3.702   6.768
  444SOL    HW2 3230   2.340   3.671   6.689
  445SOL     OW 3231   9.179   2.118   4.595
  445SOL    HW1 3232   9.184   2.210   4.620
  445SOL    HW2 3233   9.215   2.116   4.507
  446SOL     OW 3234   2.569   2.536  11.183
  446SOL    HW1 3235   2.523   2.544  11.266
  446SOL    HW2 3236   2.660   2.558  11.203
  447SOL     OW 3237  13.013   2.707  13.063
  447SOL    HW1 3238  12.973   2.641  13.007
  447SOL    HW2 3239  13.046   2.658  13.139
  448SOL     OW 3240  12.877   7.404  11.988
  448SOL    HW1 3241  12.792   7.399  11.944
  448SOL    HW2 3242  12.922   7.476  11.944
  449SOL     OW 3243   9.968  11.165   0.537
  449SOL    HW1 3244   9.995  11.225   0.468
  449SOL    HW2 3245   9.932  11.222   0.605
  450SOL     OW 3246   2.487   5.819   5.772
  450SOL    HW1 3247   2.444   5.746   5.816
  450SOL    HW2 3248   2.448   5.821   5.684
  451SOL     OW 3249   2.582   7.356  10.462
  451SOL    HW1 3250   2.492   7.388  10.471
  451SOL    HW2 3251   2.573   7.261  10.456
  452SOL     OW 3252  13.528  12.043  13.843
  452SOL    HW1 3253  13.497  12.110  13.783
  452SOL    HW2 3254  13.454  11.983  13.853
  453SOL     OW 3255  13.355   3.583   9.125
  453SOL    HW1 3256  13.280   3.534   9.093
  453SOL    HW2 3257  13.342   3.671   9.089
  454SOL     OW 3258   0.068   3.474   8.460
  454SOL    HW1 3259   0.005   3.404   8.443
  454SOL    HW2 3260   0.083   3.513   8.374
  455SOL     OW 3261  14.569   1.212  13.226
  455SOL    HW1 3262  14.584   1.119  13.243
  455SOL    HW2 3263  14.554   1.217  13.132
  456SOL     OW 3264  14.666   4.924  11.908
  456SOL    HW1 3265  14.732   4.855  11.907
  456SOL    HW2 3266  14.603   4.898  11.841
  457SOL     OW 3267   8.181   8.648   6.351
  457SOL    HW1 3268   8.192   8.575   6.289
  457SOL    HW2 3269   8.126   8.711   6.304
  458SOL     OW 3270  13.998   6.021   6.418
  458SOL    HW1 3271  13.949   6.028   6.336
  458SOL    HW2 3272  14.088   6.003   6.391
  459SOL     OW 3273  12.445  13.126  13.984
  459SOL    HW1 3274  12.519  13.138  13.924
  459SOL    HW2 3275  12.441  13.208  14.033
  460SOL     OW 3276  10.037   3.238   8.002
  460SOL    HW1 3277   9.974   3.231   7.931
  460SOL    HW2 3278  10.089   3.316   7.981
  461SOL     OW 3279   2.099   2.563  10.620
  461SOL    HW1 3280   2.092   2.468  10.620
  461SOL    HW2 3281   2.097   2.588  10.712
  462SOL     OW 3282   1.373   4.859   2.478
  462SOL    HW1 3283   1.458   4.900   2.463
  462SOL    HW2 3284   1.390   4.792   2.544
  463SOL     OW 3285  10.168  10.885  14.698
  463SOL    HW1 3286  10.249  10.833  14.701
  463SOL    HW2 3287  10.175  10.934  14.615
  464SOL     OW 3288   4.495  14.871   0.738
  464SOL    HW1 3289   4.469   0.010   0.830
  464SOL    HW2 3290   4.577  14.822   0.742
  465SOL     OW 3291   1.220   2.645   7.614
  465SOL    HW1 3292   1.250   2.689   7.535
  465SOL    HW2 3293   1.206   2.554   7.588
  466SOL     OW 3294  10.209  12.514   5.745
  466SOL    HW1 3295  10.279  12.475   5.693
  466SOL    HW2 3296  10.254  12.563   5.813
  467SOL     OW 3297   1.474  11.010   8.129
  467SOL    HW1 3298   1.420  11.089   8.141
  467SOL    HW2 3299   1.476  10.998   8.034
  468SOL     OW 3300   2.493  11.429   6.070
  468SOL    HW1 3301   2.403  11.464   6.068
  468SOL    HW2 3302   2.529  11.462   6.153
  469SOL     OW 3303  11.664  11.098   5.674
  469SOL    HW1 3304  11.723  11.043   5.725
  469SOL    HW2 3305  11.710  11.113   5.591
  470SOL     OW 3306  13.029  10.395   8.445
  470SOL    HW1 3307  13.001  10.478   8.407
  470SOL    HW2 3308  13.109  10.373   8.397
  471SOL     OW 3309   2.454   8.111   7.753
  471SOL    HW1 3310   2.451   8.110   7.658
  471SOL    HW2 3311   2.364   8.130   7.780
  472SOL     OW 3312  13.925  13.248   7.560
  472SOL    HW1 3313  13.887  13.210   7.480
  472SOL    HW2 3314  13.914  13.180   7.626
  473SOL     OW 3315  11.210   1.243   4.887
  473SOL    HW1 3316  11.277   1.306   4.913
  473SOL    HW2 3317  11.145   1.247   4.957
  474SOL     OW 3318  10.099   2.658  12.663
  474SOL    HW1 3319  10.018   2.646  12.614
  474SOL    HW2 3320  10.165   2.678  12.597
  475SOL     OW 3321   4.001   9.539   4.056
  475SOL    HW1 3322   3.958   9.514   4.137
  475SOL    HW2 3323   3.937   9.518   3.987
  476SOL     OW 3324   5.569   2.839   0.490
  476SOL    HW1 3325   5.612   2.887   0.561
  476SOL    HW2 3326   5.503   2.786   0.535
  477SOL     OW 3327   5.315   3.947  14.458
  477SOL    HW1 3328   5.253   3.876  14.469
  477SOL    HW2 3329   5.387   3.909  14.407
  478SOL     OW 3330   8.287   4.310  12.114
  478SOL    HW1 3331   8.284   4.400  12.080
  478SOL    HW2 3332   8.299   4.256  12.037
  479SOL     OW 3333  12.630   9.668  13.007
  479SOL    HW1 3334  12.623   9.572  13.005
  479SOL    HW2 3335  12.659   9.689  13.096
  480SOL     OW 3336   9.508  13.374   2.438
  480SOL    HW1 3337   9.529  13.465   2.415
  480SOL    HW2 3338   9.530  13.324   2.360
  481SOL     OW 3339   4.003  11.739  11.783
  481SOL    HW1 3340   4.079  11.766  11.834
  481SOL    HW2 3341   4.037  11.673  11.723
  482SOL     OW 3342   2.989   9.505  13.486
  482SOL    HW1 3343   2.900   9.540  13.486
  482SOL    HW2 3344   3.030   9.544  13.408
  483SOL     OW 3345   0.870   8.392   4.958
  483SOL    HW1 3346   0.876   8.300   4.933
  483SOL    HW2 3347   0.837   8.391   5.047
  484SOL     OW 3348   8.641   0.984  11.642
  484SOL    HW1 3349   8.611   1.033  11.566
  484SOL    HW2 3350   8.582   0.909  11.649
  485SOL     OW 3351  13.689  11.780   9.550
  485SOL    HW1 3352  13.713  11.779   9.458
  485SOL    HW2 3353  13.760  11.828   9.593
  486SOL     OW 3354   1.064   3.328   5.185
  486SOL    HW1 3355   1.036   3.370   5.266
  486SOL    HW2 3356   1.061   3.397   5.119
  487SOL     OW 3357  12.953   6.980   4.317
  487SOL    HW1 3358  12.882   7.017   4.266
  487SOL    HW2 3359  12.916   6.971   4.405
  488SOL     OW 3360   2.585   6.276   4.437
  488SOL    HW1 3361   2.625   6.215   4.376
  488SOL    HW2 3362   2.637   6.356   4.430
  489SOL     OW 3363   1.361   1.575   8.461
  489SOL    HW1 3364   1.318   1.646   8.509
  489SOL    HW2 3365   1.397   1.519   8.530
  490SOL     OW 3366  11.915  13.808   6.345
  490SOL    HW1 3367  11.999  13.762   6.339
  490SOL    HW2 3368  11.908  13.832   6.437
  491SOL     OW 3369  13.806   0.641  13.660
  491SOL    HW1 3370  13.751   0.636  13.738
  491SOL    HW2 3371  13.771   0.575  13.601
  492SOL     OW 3372   7.811   5.068   1.117
  492SOL    HW1 3373   7.854   5.153   1.122
  492SOL    HW2 3374   7.741   5.072   1.182
  493SOL     OW 3375   1.609  13.990   4.365
  493SOL    HW1 3376   1.630  14.069   4.317
  493SOL    HW2 3377   1.523  13.964   4.332
  494SOL     OW 3378   8.785   1.353  13.813
  494SOL    HW1 3379   8.795   1.408  13.890
  494SOL    HW2 3380   8.751   1.270  13.847
  495SOL     OW 3381   8.771   3.097  11.458
  495SOL    HW1 3382   8.825   3.101  11.537
  495SOL    HW2 3383   8.807   3.023  11.409
  496SOL     OW 3384  14.480  13.325  11.527
  496SOL    HW1 3385  14.558  13.352  11.575
  496SOL    HW2 3386  14.479  13.382  11.449
  497SOL     OW 3387   0.730  13.451   9.004
  497SOL    HW1 3388   0.749  13.387   8.936
  497SOL    HW2 3389   0.679  13.519   8.960
  498SOL     OW 3390  11.897  13.392   2.761
  498SOL    HW1 3391  11.855  13.306   2.763
  498SOL    HW2 3392  11.824  13.453   2.752
  499SOL     OW 3393   4.699   6.760   1.477
  499SOL    HW1 3394   4.705   6.856   1.472
  499SOL    HW2 3395   4.717   6.730   1.387
  500SOL     OW 3396   2.985   8.279   4.332
  500SOL    HW1 3397   3.012   8.360   4.288
  500SOL    HW2 3398   2.921   8.240   4.273
  501SOL     OW 3399   1.345  11.868   3.054
  501SOL    HW1 3400   1.417  11.808   3.075
  501SOL    HW2 3401   1.382  11.955   3.068
  502SOL     OW 3402  14.101   9.070   1.393
  502SOL    HW1 3403  14.129   9.042   1.480
  502SOL    HW2 3404  14.108   9.165   1.394
  503SOL     OW 3405   8.752  11.633   9.523
  503SOL    HW1 3406   8.727  11.680   9.444
  503SOL    HW2 3407   8.847  11.632   9.522
  504SOL     OW 3408   7.783   5.769  13.230
  504SOL    HW1 3409   7.850   5.715  13.188
  504SOL    HW2 3410   7.762   5.723  13.311
  505SOL     OW 3411   0.644   9.963   2.022
  505SOL    HW1 3412   0.590   9.936   2.097
  505SOL    HW2 3413   0.650   9.885   1.967
  506SOL     OW 3414  14.208  14.467  13.400
  506SOL    HW1 3415  14.282  14.420  13.363
  506SOL    HW2 3416  14.244  14.511  13.477
  507SOL     OW 3417   0.739   7.116   4.122
  507SOL    HW1 3418   0.654   7.083   4.095
  507SOL    HW2 3419   0.785   7.040   4.159
  508SOL     OW 3420   5.449   8.081   9.685
  508SOL    HW1 3421   5.481   8.045   9.768
  508SOL    HW2 3422   5.520   8.067   9.623
  509SOL     OW 3423   5.087   3.761  12.043
  509SOL    HW1 3424   5.073   3.688  11.983
  509SOL    HW2 3425   5.181   3.764  12.057
  510SOL     OW 3426  11.234   7.659  10.175
  510SOL    HW1 3427  11.291   7.629  10.104
  510SOL    HW2 3428  11.287   7.722  10.224
  511SOL     OW 3429   2.819   1.923   0.539
  511SOL    HW1 3430   2.840   2.001   0.591
  511SOL    HW2 3431   2.839   1.849   0.596
  512SOL     OW 3432  11.370   5.389  12.357
  512SOL    HW1 3433  11.301   5.380  12.292
  512SOL    HW2 3434  11.411   5.474  12.337
  513SOL     OW 3435   4.071  10.580   9.065
  513SOL    HW1 3436   4.063  10.504   9.007
  513SOL    HW2 3437   4.106  10.649   9.009
  514SOL     OW 3438   7.333   3.539   5.114
  514SOL    HW1 3439   7.362   3.452   5.087
  514SOL    HW2 3440   7.332   3.536   5.210
  515SOL     OW 3441  10.046  11.884  11.772
  515SOL    HW1 3442  10.142  11.878  11.780
  515SOL    HW2 3443  10.014  11.802  11.808
  516SOL     OW 3444   3.060  14.608  11.142
  516SOL    HW1 3445   2.994  14.673  11.118
  516SOL    HW2 3446   3.010  14.530  11.165
  517SOL     OW 3447   0.630   1.409   2.108
  517SOL    HW1 3448   0.630   1.470   2.182
  517SOL    HW2 3449   0.542   1.415   2.072
  518SOL     OW 3450  13.172  13.835   2.772
  518SOL    HW1 3451  13.152  13.910   2.829
  518SOL    HW2 3452  13.129  13.761   2.814
  519SOL     OW 3453   4.792   5.214   6.135
  519SOL    HW1 3454   4.839   5.297   6.127
  519SOL    HW2 3455   4.839   5.155   6.076
  520SOL     OW 3456   8.005   5.195  12.536
  520SOL    HW1 3457   8.046   5.116  12.500
  520SOL    HW2 3458   7.934   5.215  12.475
  521SOL     OW 3459  14.845   8.436   7.586
  521SOL    HW1 3460   0.045   8.390   7.629
  521SOL    HW2 3461   0.015   8.490   7.519
  522SOL     OW 3462   6.524   2.645  10.286
  522SOL    HW1 3463   6.477   2.596  10.218
  522SOL    HW2 3464   6.458   2.705  10.321
  523SOL     OW 3465   0.940  10.764   1.107
  523SOL    HW1 3466   0.861  10.739   1.155
  523SOL    HW2 3467   0.997  10.802   1.174
  524SOL     OW 3468   9.930  13.076  10.413
  524SOL    HW1 3469   9.836  13.091  10.418
  524SOL    HW2 3470   9.939  12.983  10.395
  525SOL     OW 3471   1.961   9.182  11.210
  525SOL    HW1 3472   2.021   9.242  11.254
  525SOL    HW2 3473   1.942   9.224  11.126
  526SOL     OW 3474   4.182   5.387  12.638
  526SOL    HW1 3475   4.213   5.300  12.612
  526SOL    HW2 3476   4.242   5.448  12.595
  527SOL     OW 3477   7.391  12.861  12.196
  527SOL    HW1 3478   7.441  12.783  12.222
  527SOL    HW2 3479   7.332  12.878  12.270
  528SOL     OW 3480  10.765  12.639   5.645
  528SOL    HW1 3481  10.790  12.678   5.561
  528SOL    HW2 3482  10.674  12.613   5.632
  529SOL     OW 3483   3.778   2.860  14.345
  529SOL    HW1 3484   3.838   2.881  14.417
  529SOL    HW2 3485   3.691   2.871  14.383
  530SOL     OW 3486   1.206   5.754   8.433
  530SOL    HW1 3487   1.167   5.826   8.481
  530SOL    HW2 3488   1.256   5.796   8.363
  531SOL     OW 3489   0.086  12.151   2.878
  531SOL    HW1 3490   0.159  12.089   2.880
  531SOL    HW2 3491   0.054  12.146   2.788
  532SOL     OW 3492   7.748   8.932   3.626
  532SOL    HW1 3493   7.687   8.863   3.651
  532SOL    HW2 3494   7.789   8.960   3.708
  533SOL     OW 3495   0.673   9.931   1.067
  533SOL    HW1 3496   0.644  10.016   1.036
  533SOL    HW2 3497   0.692   9.881   0.987
  534SOL     OW 3498   9.049  11.580  14.091
  534SOL    HW1 3499   9.004  11.608  14.012
  534SOL    HW2 3500   8.986  11.593  14.162
  535SOL     OW 3501   2.040   5.536   1.063
  535SOL    HW1 3502   2.098   5.461   1.075
  535SOL    HW2 3503   1.974   5.526   1.132
  536SOL     OW 3504   7.207   5.611   9.658
  536SOL    HW1 3505   7.264   5.686   9.677
  536SOL    HW2 3506   7.153   5.641   9.585
  537SOL     OW 3507   4.120   1.019  12.020
  537SOL    HW1 3508   4.025   1.009  12.017
  537SOL    HW2 3509   4.136   1.063  12.104
  538SOL     OW 3510  12.398  14.093   4.970
  538SOL    HW1 3511  12.320  14.050   5.005
  538SOL    HW2 3512  12.405  14.175   5.018
  539SOL     OW 3513   2.836   9.325   4.294
  539SOL    HW1 3514   2.763   9.325   4.357
  539SOL    HW2 3515   2.895   9.258   4.326
  540SOL     OW 3516   0.417   5.667  13.318
  540SOL    HW1 3517   0.473   5.666  13.239
  540SOL    HW2 3518   0.332   5.699  13.287
  541SOL     OW 3519   2.718   7.539  12.223
  541SOL    HW1 3520   2.651   7.505  12.283
  541SOL    HW2 3521   2.668   7.586  12.156
  542SOL     OW 3522   8.373   2.339   8.003
  542SOL    HW1 3523   8.346   2.428   7.983
  542SOL    HW2 3524   8.466   2.336   7.982
  543SOL     OW 3525  12.209   6.771   3.545
  543SOL    HW1 3526  12.122   6.733   3.557
  543SOL    HW2 3527  12.235   6.744   3.457
  544SOL     OW 3528   8.010   3.271  14.761
  544SOL    HW1 3529   7.987   3.179  14.764
  544SOL    HW2 3530   8.001   3.295  14.669
  545SOL     OW 3531   1.803   0.424   9.079
  545SOL    HW1 3532   1.884   0.397   9.036
  545SOL    HW2 3533   1.822   0.418   9.173
  546SOL     OW 3534   6.274  11.050   8.828
  546SOL    HW1 3535   6.179  11.038   8.819
  546SOL    HW2 3536   6.287  11.143   8.812
  547SOL     OW 3537   9.285   0.096  13.969
  547SOL    HW1 3538   9.253   0.129  14.052
  547SOL    HW2 3539   9.316   0.174  13.923
  548SOL     OW 3540   9.360   4.406   1.195
  548SOL    HW1 3541   9.401   4.447   1.271
  548SOL    HW2 3542   9.312   4.331   1.232
  549SOL     OW 3543   3.643  10.262   8.638
  549SOL    HW1 3544   3.638  10.318   8.560
  549SOL    HW2 3545   3.591  10.308   8.704
  550SOL     OW 3546   5.280   2.116  11.024
  550SOL    HW1 3547   5.251   2.027  11.004
  550SOL    HW2 3548   5.217   2.148  11.088
  551SOL     OW 3549  13.015  12.390   4.957
  551SOL    HW1 3550  13.012  12.486   4.959
  551SOL    HW2 3551  12.948  12.363   5.020
  552SOL     OW 3552   6.716  12.658   5.330
  552SOL    HW1 3553   6.787  12.718   5.356
  552SOL    HW2 3554   6.636  12.705   5.350
  553SOL     OW 3555   4.145   3.108  10.740
  553SOL    HW1 3556   4.140   3.191  10.694
  553SOL    HW2 3557   4.174   3.131  10.829
  554SOL     OW 3558   9.005   5.001   4.931
  554SOL    HW1 3559   8.995   4.912   4.966
  554SOL    HW2 3560   8.929   5.049   4.966
  555SOL     OW 3561  10.907  14.133   2.047
  555SOL    HW1 3562  10.881  14.058   2.101
  555SOL    HW2 3563  10.932  14.200   2.111
  556SOL     OW 3564   1.074  13.665   0.238
  556SOL    HW1 3565   1.061  13.741   0.295
  556SOL    HW2 3566   1.143  13.614   0.280
  557SOL     OW 3567   7.601  11.286  14.014
  557SOL    HW1 3568   7.670  11.282  13.948
  557SOL    HW2 3569   7.562  11.199  14.014
  558SOL     OW 3570   7.302  11.761   7.567
  558SOL    HW1 3571   7.249  11.802   7.499
  558SOL    HW2 3572   7.244  11.755   7.643
  559SOL     OW 3573   8.324   2.499   0.327
  559SOL    HW1 3574   8.314   2.416   0.373
  559SOL    HW2 3575   8.292   2.481   0.238
  560SOL     OW 3576   3.440   8.860   9.689
  560SOL    HW1 3577   3.353   8.893   9.665
  560SOL    HW2 3578   3.433   8.841   9.783
  561SOL     OW 3579  11.587   7.885   5.515
  561SOL    HW1 3580  11.574   7.949   5.445
  561SOL    HW2 3581  11.557   7.802   5.477
  562SOL     OW 3582   3.684   2.586   4.819
  562SOL    HW1 3583   3.695   2.659   4.758
  562SOL    HW2 3584   3.680   2.509   4.762
  563SOL     OW 3585   8.224   1.360   2.437
  563SOL    HW1 3586   8.281   1.426   2.398
  563SOL    HW2 3587   8.223   1.381   2.531
  564SOL     OW 3588  13.079  10.129  11.319
  564SOL    HW1 3589  13.130  10.095  11.245
  564SOL    HW2 3590  12.999  10.076  11.318
  565SOL     OW 3591   2.094   0.775   3.972
  565SOL    HW1 3592   2.148   0.810   3.901
  565SOL    HW2 3593   2.139   0.695   3.999
  566SOL     OW 3594  12.912   6.945  14.700
  566SOL    HW1 3595  12.907   6.968  14.792
  566SOL    HW2 3596  12.850   7.003  14.657
  567SOL     OW 3597   4.895  11.175   4.883
  567SOL    HW1 3598   4.927  11.088   4.858
  567SOL    HW2 3599   4.896  11.174   4.979
  568SOL     OW 3600   9.397   5.917  13.491
  568SOL    HW1 3601   9.425   5.987  13.432
  568SOL    HW2 3602   9.458   5.921  13.564
  569SOL     OW 3603   5.797   9.680   5.618
  569SOL    HW1 3604   5.862   9.722   5.561
  569SOL    HW2 3605   5.849   9.642   5.689
  570SOL     OW 3606   0.710  14.749   7.042
  570SOL    HW1 3607   0.739  14.838   7.023
  570SOL    HW2 3608   0.791  14.697   7.042
  571SOL     OW 3609  11.740  12.589  13.050
  571SOL    HW1 3610  11.829  12.600  13.017
  571SOL    HW2 3611  11.750  12.586  13.145
  572SOL     OW 3612  10.662   7.890   2.089
  572SOL    HW1 3613  10.714   7.821   2.048
  572SOL    HW2 3614  10.629   7.850   2.170
  573SOL     OW 3615   4.818  13.273   9.887
  573SOL    HW1 3616   4.870  13.340   9.843
  573SOL    HW2 3617   4.876  13.236   9.953
  574SOL     OW 3618  11.269  13.344   2.748
  574SOL    HW1 3619  11.186  13.393   2.753
  574SOL    HW2 3620  11.242  13.253   2.749
  575SOL     OW 3621   1.209   5.756   7.619
  575SOL    HW1 3622   1.160   5.829   7.580
  575SOL    HW2 3623   1.147   5.683   7.617
  576SOL     OW 3624   7.082   0.926   9.777
  576SOL    HW1 3625   7.137   0.993   9.737
  576SOL    HW2 3626   7.067   0.956   9.866
  577SOL     OW 3627   7.619  13.199   9.467
  577SOL    HW1 3628   7.527  13.218   9.488
  577SOL    HW2 3629   7.643  13.267   9.404
  578SOL     OW 3630   2.212   1.802   0.619
  578SOL    HW1 3631   2.253   1.725   0.580
  578SOL    HW2 3632   2.181   1.853   0.544
  579SOL     OW 3633  12.423  12.199   5.673
  579SOL    HW1 3634  12.461  12.245   5.599
  579SOL    HW2 3635  12.362  12.262   5.712
  580SOL     OW 3636   9.362   1.530   2.004
  580SOL    HW1 3637   9.285   1.525   1.948
  580SOL    HW2 3638   9.386   1.623   2.004
  581SOL     OW 3639  14.721  10.084   7.117
  581SOL    HW1 3640  14.705   9.990   7.117
  581SOL    HW2 3641  14.731  10.107   7.025
  582SOL     OW 3642   4.139   3.865   9.405
  582SOL    HW1 3643   4.201   3.904   9.345
  582SOL    HW2 3644   4.167   3.773   9.413
  583SOL     OW 3645  10.739  13.748   8.272
  583SOL    HW1 3646  10.817  13.804   8.268
  583SOL    HW2 3647  10.774  13.659   8.269
  584SOL     OW 3648   8.356   2.746   3.027
  584SOL    HW1 3649   8.299   2.692   3.081
  584SOL    HW2 3650   8.369   2.695   2.947
  585SOL     OW 3651   6.552   0.205   8.623
  585SOL    HW1 3652   6.540   0.224   8.716
  585SOL    HW2 3653   6.601   0.281   8.590
  586SOL     OW 3654   3.627  10.795  14.036
  586SOL    HW1 3655   3.592  10.871  13.989
  586SOL    HW2 3656   3.550  10.756  14.079
  587SOL     OW 3657  10.339   7.841  14.143
  587SOL    HW1 3658  10.409   7.860  14.205
  587SOL    HW2 3659  10.322   7.748  14.152
  588SOL     OW 3660   5.666  14.713   4.406
  588SOL    HW1 3661   5.591  14.689   4.459
  588SOL    HW2 3662   5.739  14.720   4.468
  589SOL     OW 3663   5.339  14.070   3.062
  589SOL    HW1 3664   5.250  14.035   3.050
  589SOL    HW2 3665   5.331  14.130   3.137
  590SOL     OW 3666   2.533  12.127   9.621
  590SOL    HW1 3667   2.614  12.178   9.630
  590SOL    HW2 3668   2.560  12.037   9.637
  591SOL     OW 3669   2.990  14.051   5.461
  591SOL    HW1 3670   2.982  14.146   5.468
  591SOL    HW2 3671   2.957  14.031   5.373
  592SOL     OW 3672   6.091   9.563   6.155
  592SOL    HW1 3673   6.095   9.615   6.235
  592SOL    HW2 3674   6.028   9.494   6.174
  593SOL     OW 3675   4.500  11.883   2.840
  593SOL    HW1 3676   4.463  11.896   2.753
  593SOL    HW2 3677   4.577  11.941   2.842
  594SOL     OW 3678  13.241  14.831   5.930
  594SOL    HW1 3679  13.200   0.045   5.929
  594SOL    HW2 3680  13.171  14.770   5.906
  595SOL     OW 3681   3.710   3.696  11.819
  595SOL    HW1 3682   3.773   3.655  11.878
  595SOL    HW2 3683   3.703   3.634  11.746
  596SOL     OW 3684  12.788   6.183  11.420
  596SOL    HW1 3685  12.769   6.129  11.497
  596SOL    HW2 3686  12.881   6.202  11.426
  597SOL     OW 3687   3.927   0.099  13.058
  597SOL    HW1 3688   3.871   0.065  13.128
  597SOL    HW2 3689   3.974   0.172  13.098
  598SOL     OW 3690   1.977   1.467  12.268
  598SOL    HW1 3691   1.891   1.425  12.260
  598SOL    HW2 3692   1.997   1.463  12.361
  599SOL     OW 3693   2.782   5.756   1.743
  599SOL    HW1 3694   2.693   5.775   1.773
  599SOL    HW2 3695   2.805   5.673   1.785
  600SOL     OW 3696  13.573   5.377   6.890
  600SOL    HW1 3697  13.522   5.449   6.852
  600SOL    HW2 3698  13.654   5.419   6.920
  601SOL     OW 3699  14.838   6.687   2.176
  601SOL    HW1 3700  14.759   6.740   2.166
  601SOL    HW2 3701   0.024   6.718   2.106
  602SOL     OW 3702   2.463   2.651   0.176
  602SOL    HW1 3703   2.543   2.683   0.133
  602SOL    HW2 3704   2.404   2.726   0.175
  603SOL     OW 3705   3.055   1.531   0.635
  603SOL    HW1 3706   2.966   1.498   0.633
  603SOL    HW2 3707   3.108   1.458   0.666
  604SOL     OW 3708   7.585  13.186   2.327
  604SOL    HW1 3709   7.601  13.115   2.390
  604SOL    HW2 3710   7.673  13.211   2.298
  605SOL     OW 3711   8.659  11.350   9.041
  605SOL    HW1 3712   8.650  11.260   9.011
  605SOL    HW2 3713   8.648  11.403   8.962
  606SOL     OW 3714  14.242  10.908  11.426
  606SOL    HW1 3715  14.152  10.883  11.403
  606SOL    HW2 3716  14.282  10.933  11.343
  607SOL     OW 3717  11.343   6.786   5.617
  607SOL    HW1 3718  11.263   6.773   5.566
  607SOL    HW2 3719  11.320   6.759   5.705
  608SOL     OW 3720   0.355   9.778  12.405
  608SOL    HW1 3721   0.317   9.733  12.330
  608SOL    HW2 3722   0.430   9.825  12.370
  609SOL     OW 3723   2.702  14.789  14.229
  609SOL    HW1 3724   2.629  14.761  14.175
  609SOL    HW2 3725   2.693   0.012  14.235
  610SOL     OW 3726  14.602   8.287   4.295
  610SOL    HW1 3727  14.653   8.352   4.344
  610SOL    HW2 3728  14.642   8.203   4.319
  611SOL     OW 3729   3.690  13.005   7.661
  611SOL    HW1 3730   3.661  12.914   7.654
  611SOL    HW2 3731   3.748  13.017   7.586
  612SOL     OW 3732   1.476  13.137  12.894
  612SOL    HW1 3733   1.571  13.138  12.894
  612SOL    HW2 3734   1.450  13.176  12.811
  613SOL     OW 3735   2.948   5.479   1.203
  613SOL    HW1 3736   2.968   5.464   1.295
  613SOL    HW2 3737   3.014   5.428   1.156
  614SOL     OW 3738   9.539   0.792   7.077
  614SOL    HW1 3739   9.479   0.718   7.073
  614SOL    HW2 3740   9.496   0.862   7.028
  615SOL     OW 3741   7.276   3.315  13.196
  615SOL    HW1 3742   7.265   3.394  13.144
  615SOL    HW2 3743   7.368   3.291  13.184
  616SOL     OW 3744  10.848   0.465   4.638
  616SOL    HW1 3745  10.920   0.511   4.680
  616SOL    HW2 3746  10.868   0.468   4.545
  617SOL     OW 3747   6.814   0.361  13.526
  617SOL    HW1 3748   6.855   0.280  13.556
  617SOL    HW2 3749   6.795   0.345  13.433
  618SOL     OW 3750   1.173   6.466   5.270
  618SOL    HW1 3751   1.215   6.505   5.193
  618SOL    HW2 3752   1.236   6.402   5.301
  619SOL     OW 3753   2.203  12.118   1.063
  619SOL    HW1 3754   2.282  12.120   1.118
  619SOL    HW2 3755   2.134  12.155   1.118
  620SOL     OW 3756  11.277   6.002  13.409
  620SOL    HW1 3757  11.274   6.055  13.489
  620SOL    HW2 3758  11.315   5.919  13.435
  621SOL     OW 3759   0.399  12.854  13.050
  621SOL    HW1 3760   0.362  12.809  13.125
  621SOL    HW2 3761   0.483  12.889  13.081
  622SOL     OW 3762   9.412   0.054   8.660
  622SOL    HW1 3763   9.498   0.015   8.668
  622SOL    HW2 3764   9.382   0.066   8.750
  623SOL     OW 3765   2.686   7.889   6.863
  623SOL    HW1 3766   2.669   7.949   6.791
  623SOL    HW2 3767   2.696   7.803   6.822
  624SOL     OW 3768   9.022   7.394   7.940
  624SOL    HW1 3769   8.988   7.453   8.007
  624SOL    HW2 3770   9.038   7.311   7.987
  625SOL     OW 3771  11.027   6.195   3.431
  625SOL    HW1 3772  11.008   6.149   3.513
  625SOL    HW2 3773  10.957   6.260   3.424
  626SOL     OW 3774  14.330   3.708   8.703
  626SOL    HW1 3775  14.367   3.700   8.615
  626SOL    HW2 3776  14.344   3.623   8.743
  627SOL     OW 3777  13.660   3.610  11.797
  627SOL    HW1 3778  13.673   3.587  11.705
  627SOL    HW2 3779  13.637   3.703  11.796
  628SOL     OW 3780  10.235   5.562   9.873
  628SOL    HW1 3781  10.194   5.642   9.841
  628SOL    HW2 3782  10.246   5.507   9.795
  629SOL     OW 3783  12.778  13.075   1.473
  629SOL    HW1 3784  12.811  13.137   1.407
  629SOL    HW2 3785  12.726  13.013   1.422
  630SOL     OW 3786   8.725  12.784  11.473
  630SOL    HW1 3787   8.785  12.854  11.501
  630SOL    HW2 3788   8.711  12.732  11.552
  631SOL     OW 3789  11.441  12.163   9.844
  631SOL    HW1 3790  11.532  12.163   9.875
  631SOL    HW2 3791  11.394  12.110   9.909
  632SOL     OW 3792   3.066   1.105   0.216
  632SOL    HW1 3793   2.995   1.156   0.253
  632SOL    HW2 3794   3.120   1.170   0.170
  633SOL     OW 3795   1.649  14.502   0.437
  633SOL    HW1 3796   1.731  14.454   0.446
  633SOL    HW2 3797   1.657  14.549   0.354
  634SOL     OW 3798  12.300   8.020   1.203
  634SOL    HW1 3799  12.351   7.956   1.254
  634SOL    HW2 3800  12.335   8.105   1.230
  635SOL     OW 3801   4.718  10.633   3.849
  635SOL    HW1 3802   4.660  10.693   3.802
  635SOL    HW2 3803   4.706  10.548   3.806
  636SOL     OW 3804  12.881  10.922  12.865
  636SOL    HW1 3805  12.955  10.865  12.884
  636SOL    HW2 3806  12.845  10.944  12.951
  637SOL     OW 3807   4.081  14.805  13.967
  637SOL    HW1 3808   3.996  14.762  13.965
  637SOL    HW2 3809   4.070   0.013  13.915
  638SOL     OW 3810  10.781  12.299   1.260
  638SOL    HW1 3811  10.868  12.280   1.296
  638SOL    HW2 3812  10.758  12.220   1.211
  639SOL     OW 3813   8.839   4.478  10.915
  639SOL    HW1 3814   8.748   4.450  10.924
  639SOL    HW2 3815   8.853   4.485  10.820
  640SOL     OW 3816  13.006   3.739  14.871
  640SOL    HW1 3817  12.990   3.723   0.092
  640SOL    HW2 3818  13.051   3.823  14.867
  641SOL     OW 3819  13.334   6.584   2.973
  641SOL    HW1 3820  13.399   6.585   3.043
  641SOL    HW2 3821  13.332   6.493   2.944
  642SOL     OW 3822   9.394   8.292  12.877
  642SOL    HW1 3823   9.487   8.304  12.860
  642SOL    HW2 3824   9.372   8.209  12.835
  643SOL     OW 3825  14.678  11.604  14.630
  643SOL    HW1 3826  14.685  11.591  14.535
  643SOL    HW2 3827  14.665  11.698  14.640
  644SOL     OW 3828  13.167  13.952   9.378
  644SOL    HW1 3829  13.116  13.900   9.440
  644SOL    HW2 3830  13.213  14.016   9.433
  645SOL     OW 3831  10.763   6.571   8.070
  645SOL    HW1 3832  10.757   6.642   8.134
  645SOL    HW2 3833  10.825   6.509   8.108
  646SOL     OW 3834   0.519  10.756   8.204
  646SOL    HW1 3835   0.479  10.778   8.120
  646SOL    HW2 3836   0.535  10.840   8.246
  647SOL     OW 3837   6.900  11.645   1.939
  647SOL    HW1 3838   6.984  11.667   1.980
  647SOL    HW2 3839   6.890  11.552   1.955
  648SOL     OW 3840   2.304  13.570   6.437
  648SOL    HW1 3841   2.224  13.561   6.385
  648SOL    HW2 3842   2.279  13.545   6.526
  649SOL     OW 3843  11.027  12.227  11.149
  649SOL    HW1 3844  10.958  12.256  11.209
  649SOL    HW2 3845  11.038  12.299  11.088
  650SOL     OW 3846  11.634  14.051   2.850
  650SOL    HW1 3847  11.695  14.096   2.909
  650SOL    HW2 3848  11.576  14.120   2.819
  651SOL     OW 3849   1.502   3.657  12.137
  651SOL    HW1 3850   1.460   3.612  12.210
  651SOL    HW2 3851   1.567   3.594  12.104
  652SOL     OW 3852   1.060   5.922  11.822
  652SOL    HW1 3853   1.129   5.977  11.860
  652SOL    HW2 3854   1.058   5.946  11.730
  653SOL     OW 3855   8.995   9.032  13.488
  653SOL    HW1 3856   9.025   9.115  13.525
  653SOL    HW2 3857   9.076   8.985  13.466
  654SOL     OW 3858   7.872   2.052  11.824
  654SOL    HW1 3859   7.902   2.129  11.775
  654SOL    HW2 3860   7.940   2.039  11.891
  655SOL     OW 3861  14.692  14.620   5.747
  655SOL    HW1 3862  14.616  14.582   5.790
  655SOL    HW2 3863  14.736  14.546   5.706
  656SOL     OW 3864   2.265  13.921   4.671
  656SOL    HW1 3865   2.321  13.989   4.634
  656SOL    HW2 3866   2.214  13.965   4.739
  657SOL     OW 3867   4.380   8.356  14.807
  657SOL    HW1 3868   4.383   8.288   0.002
  657SOL    HW2 3869   4.296   8.343  14.763
  658SOL     OW 3870   6.805   6.602  13.744
  658SOL    HW1 3871   6.760   6.545  13.806
  658SOL    HW2 3872   6.783   6.691  13.774
  659SOL     OW 3873   1.285  11.715   4.038
  659SOL    HW1 3874   1.291  11.716   4.133
  659SOL    HW2 3875   1.203  11.670   4.020
  660SOL     OW 3876   7.364  12.390   5.347
  660SOL    HW1 3877   7.375  12.346   5.263
  660SOL    HW2 3878   7.448  12.379   5.391
  661SOL     OW 3879   5.525   8.601   4.420
  661SOL    HW1 3880   5.448   8.643   4.458
  661SOL    HW2 3881   5.498   8.510   4.407
  662SOL     OW 3882   7.325  13.605  10.900
  662SOL    HW1 3883   7.329  13.582  10.807
  662SOL    HW2 3884   7.242  13.569  10.930
  663SOL     OW 3885   0.674   8.947   3.502
  663SOL    HW1 3886   0.730   9.024   3.493
  663SOL    HW2 3887   0.606   8.957   3.436
  664SOL     OW 3888   6.558   7.273  12.407
  664SOL    HW1 3889   6.634   7.273  12.349
  664SOL    HW2 3890   6.522   7.184  12.400
  665SOL     OW 3891   0.676   0.537   1.391
  665SOL    HW1 3892   0.601   0.494   1.350
  665SOL    HW2 3893   0.636   0.602   1.450
  666SOL     OW 3894   8.744  10.508  12.935
  666SOL    HW1 3895   8.837  10.525  12.918
  666SOL    HW2 3896   8.698  10.567  12.875
  667SOL     OW 3897   8.284   9.634   7.500
  667SOL    HW1 3898   8.356   9.601   7.447
  667SOL    HW2 3899   8.316   9.631   7.590
  668SOL     OW 3900   9.941   6.216  14.685
  668SOL    HW1 3901   9.932   6.153  14.757
  668SOL    HW2 3902   9.913   6.168  14.607
  669SOL     OW 3903   1.194  12.748  14.384
  669SOL    HW1 3904   1.200  12.842  14.362
  669SOL    HW2 3905   1.117  12.718  14.335
  670SOL     OW 3906   8.758   7.079   0.674
  670SOL    HW1 3907   8.812   7.158   0.674
  670SOL    HW2 3908   8.802   7.020   0.736
  671SOL     OW 3909   3.517   7.050   5.784
  671SOL    HW1 3910   3.564   6.970   5.806
  671SOL    HW2 3911   3.522   7.056   5.688
  672SOL     OW 3912   8.296   1.772  10.332
  672SOL    HW1 3913   8.345   1.836  10.384
  672SOL    HW2 3914   8.360   1.739  10.270
  673SOL     OW 3915   0.773  13.536   2.862
  673SOL    HW1 3916   0.830  13.562   2.935
  673SOL    HW2 3917   0.822  13.563   2.784
  674SOL     OW 3918   5.482  11.264   7.951
  674SOL    HW1 3919   5.527  11.249   8.035
  674SOL    HW2 3920   5.394  11.291   7.976
  675SOL     OW 3921   1.732  13.589  13.928
  675SOL    HW1 3922   1.696  13.662  13.978
  675SOL    HW2 3923   1.815  13.623  13.894
  676SOL     OW 3924   0.787  10.265  13.939
  676SOL    HW1 3925   0.867  10.305  13.904
  676SOL    HW2 3926   0.816  10.180  13.972
  677SOL     OW 3927   0.606   1.611  10.019
  677SOL    HW1 3928   0.539   1.638   9.955
  677SOL    HW2 3929   0.569   1.532  10.059
  678SOL     OW 3930   2.382   1.245   4.069
  678SOL    HW1 3931   2.442   1.217   4.138
  678SOL    HW2 3932   2.424   1.322   4.031
  679SOL     OW 3933   8.783  10.296   3.934
  679SOL    HW1 3934   8.718  10.363   3.953
  679SOL    HW2 3935   8.866  10.343   3.927
  680SOL     OW 3936  14.809   0.498   2.667
  680SOL    HW1 3937  14.836   0.465   2.582
  680SOL    HW2 3938  14.821   0.424   2.727
  681SOL     OW 3939  12.478  11.048   4.056
  681SOL    HW1 3940  12.512  11.026   3.969
  681SOL    HW2 3941  12.495  10.971   4.109
  682SOL     OW 3942   2.264   4.359  12.820
  682SOL    HW1 3943   2.333   4.372  12.884
  682SOL    HW2 3944   2.305   4.310  12.749
  683SOL     OW 3945   0.693  10.802  13.857
  683SOL    HW1 3946   0.606  10.792  13.896
  683SOL    HW2 3947   0.683  10.768  13.768
  684SOL     OW 3948   0.790   6.191   2.401
  684SOL    HW1 3949   0.788   6.129   2.474
  684SOL    HW2 3950   0.831   6.142   2.329
  685SOL     OW 3951   6.320   5.666   7.732
  685SOL    HW1 3952   6.390   5.730   7.739
  685SOL    HW2 3953   6.254   5.707   7.676
  686SOL     OW 3954  12.511   3.206  12.830
  686SOL    HW1 3955  12.503   3.112  12.814
  686SOL    HW2 3956  12.564   3.212  12.909
  687SOL     OW 3957  10.658   7.420  12.621
  687SOL    HW1 3958  10.703   7.504  12.610
  687SOL    HW2 3959  10.575   7.443  12.663
  688SOL     OW 3960   7.733   9.401   8.578
  688SOL    HW1 3961   7.728   9.320   8.628
  688SOL    HW2 3962   7.719   9.470   8.642
  689SOL     OW 3963   0.036  13.022   9.741
  689SOL    HW1 3964   0.069  13.073   9.666
  689SOL    HW2 3965   0.006  13.088   9.803
  690SOL     OW 3966   3.284   3.624  10.340
  690SOL    HW1 3967   3.220   3.609  10.270
  690SOL    HW2 3968   3.352   3.558  10.324
  691SOL     OW 3969   3.693  11.765  13.079
  691SOL    HW1 3970   3.642  11.843  13.055
  691SOL    HW2 3971   3.755  11.753  13.007
  692SOL     OW 3972   6.190   2.591   6.325
  692SOL    HW1 3973   6.284   2.606   6.316
  692SOL    HW2 3974   6.183   2.526   6.396
  693SOL     OW 3975   0.768   3.477   7.192
  693SOL    HW1 3976   0.702   3.449   7.255
  693SOL    HW2 3977   0.717   3.504   7.115
  694SOL     OW 3978   6.106  12.544   0.957
  694SOL    HW1 3979   6.189  12.497   0.964
  694SOL    HW2 3980   6.127  12.621   0.904
  695SOL     OW 3981  13.564   8.175  12.001
  695SOL    HW1 3982  13.510   8.141  12.072
  695SOL    HW2 3983  13.624   8.237  12.043
  696SOL     OW 3984  12.660  10.523   5.390
  696SOL    HW1 3985  12.703  10.577   5.457
  696SOL    HW2 3986  12.730  10.499   5.330
  697SOL     OW 3987   8.437   4.954   5.773
  697SOL    HW1 3988   8.455   4.891   5.703
  697SOL    HW2 3989   8.524   4.986   5.800
  698SOL     OW 3990  12.446  10.776   2.854
  698SOL    HW1 3991  12.370  10.796   2.908
  698SOL    HW2 3992  12.420  10.698   2.804
  699SOL     OW 3993   2.791   0.221   0.280
  699SOL    HW1 3994   2.759   0.154   0.340
  699SOL    HW2 3995   2.721   0.286   0.276
  700SOL     OW 3996   9.981   0.104  13.732
  700SOL    HW1 3997   9.889   0.076  13.729
  700SOL    HW2 3998  10.022   0.044  13.795
  701SOL     OW 3999  10.774  11.913  12.146
  701SOL    HW1 4000  10.785  11.821  12.168
  701SOL    HW2 4001  10.707  11.945  12.207
  702SOL     OW 4002  14.284   1.349   0.311
  702SOL    HW1 4003  14.308   1.295   0.386
  702SOL    HW2 4004  14.336   1.315   0.239
  703SOL     OW 4005   3.156   0.759  14.411
  703SOL    HW1 4006   3.065   0.752  14.383
  703SOL    HW2 4007   3.204   0.698  14.354
  704SOL     OW 4008   4.929   6.520   5.389
  704SOL    HW1 4009   4.933   6.594   5.450
  704SOL    HW2 4010   4.996   6.539   5.324
  705SOL     OW 4011  10.911  11.195   7.457
  705SOL    HW1 4012  10.888  11.194   7.550
  705SOL    HW2 4013  10.826  11.197   7.412
  706SOL     OW 4014   5.232   4.904   4.159
  706SOL    HW1 4015   5.222   4.996   4.184
  706SOL    HW2 4016   5.299   4.871   4.218
  707SOL     OW 4017   4.309   4.173   6.097
  707SOL    HW1 4018   4.349   4.093   6.064
  707SOL    HW2 4019   4.309   4.162   6.192
  708SOL     OW 4020   3.149   7.450  10.086
  708SOL    HW1 4021   3.100   7.474  10.165
  708SOL    HW2 4022   3.220   7.394  10.118
  709SOL     OW 4023  11.832  10.402   4.564
  709SOL    HW1 4024  11.902  10.424   4.502
  709SOL    HW2 4025  11.875  10.351   4.632
  710SOL     OW 4026  14.383   4.551  11.489
  710SOL    HW1 4027  14.477   4.535  11.484
  710SOL    HW2 4028  14.346   4.489  11.425
  711SOL     OW 4029  12.199   8.604   6.505
  711SOL    HW1 4030  12.172   8.534   6.446
  711SOL    HW2 4031  12.209   8.680   6.449
  712SOL     OW 4032   9.609   8.133   0.438
  712SOL    HW1 4033   9.589   8.225   0.425
  712SOL    HW2 4034   9.633   8.126   0.531
  713SOL     OW 4035  14.362   4.134  13.661
  713SOL    HW1 4036  14.352   4.210  13.604
  713SOL    HW2 4037  14.444   4.093  13.633
  714SOL     OW 4038  10.052   4.160   3.930
  714SOL    HW1 4039  10.121   4.099   3.903
  714SOL    HW2 4040  10.032   4.134   4.020
  715SOL     OW 4041  13.282  10.610   4.238
  715SOL    HW1 4042  13.359  10.621   4.294
  715SOL    HW2 4043  13.218  10.672   4.274
  716SOL     OW 4044   0.841   5.371   4.955
  716SOL    HW1 4045   0.788   5.411   5.024
  716SOL    HW2 4046   0.905   5.438   4.931
  717SOL     OW 4047   0.316  11.322   9.567
  717SOL    HW1 4048   0.312  11.417   9.569
  717SOL    HW2 4049   0.251  11.293   9.630
  718SOL     OW 4050   0.300   0.400   4.497
  718SOL    HW1 4051   0.205   0.389   4.502
  718SOL    HW2 4052   0.315   0.489   4.529
  719SOL     OW 4053   2.425   2.144   5.221
  719SOL    HW1 4054   2.422   2.055   5.184
  719SOL    HW2 4055   2.357   2.145   5.288
  720SOL     OW 4056   8.494   6.690   8.694
  720SOL    HW1 4057   8.535   6.611   8.660
  720SOL    HW2 4058   8.527   6.761   8.639
  721SOL     OW 4059   1.761  11.449   5.187
  721SOL    HW1 4060   1.706  11.483   5.118
  721SOL    HW2 4061   1.810  11.525   5.219
  722SOL     OW 4062   7.899   4.632  11.255
  722SOL    HW1 4063   7.904   4.541  11.224
  722SOL    HW2 4064   7.806   4.646  11.270
  723SOL     OW 4065   9.655   9.480  10.832
  723SOL    HW1 4066   9.658   9.396  10.787
  723SOL    HW2 4067   9.686   9.461  10.921
  724SOL     OW 4068  12.473   4.637   6.353
  724SOL    HW1 4069  12.497   4.557   6.308
  724SOL    HW2 4070  12.474   4.705   6.285
  725SOL     OW 4071   9.149   0.151   2.943
  725SOL    HW1 4072   9.063   0.167   2.981
  725SOL    HW2 4073   9.172   0.233   2.900
  726SOL     OW 4074   8.258   7.952   3.740
  726SOL    HW1 4075   8.317   7.987   3.808
  726SOL    HW2 4076   8.265   8.016   3.668
  727SOL     OW 4077   4.791   3.452   5.016
  727SOL    HW1 4078   4.746   3.421   5.094
  727SOL    HW2 4079   4.830   3.536   5.042
  728SOL     OW 4080   8.443   8.983   8.517
  728SOL    HW1 4081   8.428   8.943   8.603
  728SOL    HW2 4082   8.375   8.945   8.461
  729SOL     OW 4083   4.577  14.677  10.333
  729SOL    HW1 4084   4.546  14.665  10.423
  729SOL    HW2 4085   4.587  14.772  10.324
  730SOL     OW 4086   9.111   8.740   2.419
  730SOL    HW1 4087   9.174   8.729   2.490
  730SOL    HW2 4088   9.115   8.657   2.371
  731SOL     OW 4089   4.101  11.353  12.265
  731SOL    HW1 4090   4.048  11.291  12.214
  731SOL    HW2 4091   4.058  11.437  12.252
  732SOL     OW 4092   5.752   7.955   3.070
  732SOL    HW1 4093   5.688   7.908   3.122
  732SOL    HW2 4094   5.733   7.932   2.980
  733SOL     OW 4095  13.412  14.249  11.720
  733SOL    HW1 4096  13.433  14.342  11.723
  733SOL    HW2 4097  13.400  14.224  11.812
  734SOL     OW 4098  14.664   0.782  11.754
  734SOL    HW1 4099  14.635   0.809  11.842
  734SOL    HW2 4100  14.687   0.864  11.711
  735SOL     OW 4101   6.619  14.083   8.723
  735SOL    HW1 4102   6.618  14.156   8.660
  735SOL    HW2 4103   6.711  14.077   8.750
  736SOL     OW 4104   0.808   5.922  14.614
  736SOL    HW1 4105   0.815   5.937  14.520
  736SOL    HW2 4106   0.895   5.942  14.649
  737SOL     OW 4107   3.260  12.561   1.836
  737SOL    HW1 4108   3.255  12.499   1.909
  737SOL    HW2 4109   3.240  12.508   1.759
  738SOL     OW 4110  14.868   0.370   7.388
  738SOL    HW1 4111  14.788   0.370   7.334
  738SOL    HW2 4112   0.020   0.277   7.393
  739SOL     OW 4113  13.474   3.179   2.876
  739SOL    HW1 4114  13.505   3.248   2.817
  739SOL    HW2 4115  13.537   3.180   2.949
  740SOL     OW 4116   0.607   3.825   4.615
  740SOL    HW1 4117   0.607   3.757   4.548
  740SOL    HW2 4118   0.564   3.785   4.691
  741SOL     OW 4119   1.478   0.366  11.368
  741SOL    HW1 4120   1.562   0.407  11.389
  741SOL    HW2 4121   1.443   0.337  11.452
  742SOL     OW 4122   1.192   8.266  14.354
  742SOL    HW1 4123   1.216   8.239  14.443
  742SOL    HW2 4124   1.147   8.190  14.318
  743SOL     OW 4125   7.817  13.194   0.219
  743SOL    HW1 4126   7.913  13.199   0.228
  743SOL    HW2 4127   7.788  13.146   0.295
  744SOL     OW 4128   1.992   1.408   6.507
  744SOL    HW1 4129   2.074   1.360   6.514
  744SOL    HW2 4130   1.924   1.341   6.509
  745SOL     OW 4131  10.136   5.407  11.857
  745SOL    HW1 4132  10.059   5.359  11.826
  745SOL    HW2 4133  10.109   5.499  11.855
  746SOL     OW 4134  12.246   7.835  12.558
  746SOL    HW1 4135  12.299   7.779  12.614
  746SOL    HW2 4136  12.232   7.915  12.609
  747SOL     OW 4137  13.914  14.261  14.645
  747SOL    HW1 4138  13.993  14.263  14.700
  747SOL    HW2 4139  13.844  14.236  14.705
  748SOL     OW 4140   2.464   8.871  10.148
  748SOL    HW1 4141   2.404   8.938  10.117
  748SOL    HW2 4142   2.468   8.885  10.243
  749SOL     OW 4143   1.161   7.224  12.937
  749SOL    HW1 4144   1.251   7.249  12.915
  749SOL    HW2 4145   1.136   7.161  12.869
  750SOL     OW 4146  13.465  14.593  13.632
  750SOL    HW1 4147  13.473  14.676  13.678
  750SOL    HW2 4148  13.554  14.559  13.628
  751SOL     OW 4149   7.217   9.294   8.951
  751SOL    HW1 4150   7.206   9.203   8.979
  751SOL    HW2 4151   7.156   9.343   9.005
  752SOL     OW 4152  12.469  13.199   6.083
  752SOL    HW1 4153  12.556  13.215   6.119
  752SOL    HW2 4154  12.471  13.244   5.998
  753SOL     OW 4155  11.803   5.297   6.121
  753SOL    HW1 4156  11.731   5.302   6.184
  753SOL    HW2 4157  11.812   5.204   6.102
  754SOL     OW 4158  12.195  13.460   0.232
  754SOL    HW1 4159  12.230  13.546   0.210
  754SOL    HW2 4160  12.102  13.476   0.249
  755SOL     OW 4161  10.497  12.968   3.230
  755SOL    HW1 4162  10.438  12.896   3.252
  755SOL    HW2 4163  10.579  12.947   3.275
  756SOL     OW 4164  14.327  14.338   5.003
  756SOL    HW1 4165  14.421  14.323   5.010
  756SOL    HW2 4166  14.288  14.255   5.029
  757SOL     OW 4167   5.710   9.534   3.470
  757SOL    HW1 4168   5.786   9.575   3.428
  757SOL    HW2 4169   5.653   9.510   3.396
  758SOL     OW 4170  14.070  13.360  11.682
  758SOL    HW1 4171  14.067  13.341  11.588
  758SOL    HW2 4172  13.987  13.327  11.716
  759SOL     OW 4173   1.592   4.719   4.913
  759SOL    HW1 4174   1.639   4.754   4.988
  759SOL    HW2 4175   1.577   4.627   4.935
  760SOL     OW 4176   6.403  12.047  11.802
  760SOL    HW1 4177   6.323  12.097  11.818
  760SOL    HW2 4178   6.443  12.089  11.726
  761SOL     OW 4179   4.147   8.787  14.659
  761SOL    HW1 4180   4.218   8.822  14.605
  761SOL    HW2 4181   4.140   8.695  14.634
  762SOL     OW 4182  12.583   3.375   8.503
  762SOL    HW1 4183  12.520   3.364   8.575
  762SOL    HW2 4184  12.528   3.376   8.424
  763SOL     OW 4185  14.392  12.890   9.972
  763SOL    HW1 4186  14.344  12.896  10.055
  763SOL    HW2 4187  14.448  12.813   9.982
  764SOL     OW 4188  12.327   8.764   7.182
  764SOL    HW1 4189  12.241   8.802   7.164
  764SOL    HW2 4190  12.328   8.751   7.277
  765SOL     OW 4191  10.121  12.249  13.658
  765SOL    HW1 4192  10.158  12.337  13.649
  765SOL    HW2 4193  10.039  12.252  13.609
  766SOL     OW 4194   5.128   3.051   0.411
  766SOL    HW1 4195   5.192   3.095   0.355
  766SOL    HW2 4196   5.163   3.060   0.499
  767SOL     OW 4197  13.972   1.585  10.345
  767SOL    HW1 4198  14.056   1.585  10.390
  767SOL    HW2 4199  13.916   1.641  10.399
  768SOL     OW 4200   0.169   7.606   4.099
  768SOL    HW1 4201   0.187   7.613   4.005
  768SOL    HW2 4202   0.231   7.667   4.140
  769SOL     OW 4203   2.677   0.010   2.850
  769SOL    HW1 4204   2.673  14.804   2.904
  769SOL    HW2 4205   2.766   0.012   2.816
  770SOL     OW 4206   0.582   9.692   4.030
  770SOL    HW1 4207   0.635   9.613   4.020
  770SOL    HW2 4208   0.634   9.749   4.086
  771SOL     OW 4209   3.629   8.130   1.245
  771SOL    HW1 4210   3.632   8.034   1.251
  771SOL    HW2 4211   3.696   8.152   1.180
  772SOL     OW 4212   9.184   4.213   7.268
  772SOL    HW1 4213   9.121   4.190   7.336
  772SOL    HW2 4214   9.259   4.156   7.284
  773SOL     OW 4215  10.926   7.584   3.674
  773SOL    HW1 4216  10.874   7.504   3.668
  773SOL    HW2 4217  10.924   7.620   3.586
  774SOL     OW 4218   8.962  14.042   3.758
  774SOL    HW1 4219   8.925  14.120   3.800
  774SOL    HW2 4220   8.895  14.017   3.694
  775SOL     OW 4221   5.953   5.809   8.301
  775SOL    HW1 4222   5.926   5.744   8.236
  775SOL    HW2 4223   5.871   5.842   8.337
  776SOL     OW 4224   8.334  11.816   7.151
  776SOL    HW1 4225   8.341  11.834   7.057
  776SOL    HW2 4226   8.384  11.736   7.164
  777SOL     OW 4227   3.847   4.459   7.640
  777SOL    HW1 4228   3.794   4.483   7.564
  777SOL    HW2 4229   3.930   4.505   7.628
  778SOL     OW 4230   0.386  13.660   3.481
  778SOL    HW1 4231   0.418  13.718   3.412
  778SOL    HW2 4232   0.325  13.601   3.436
  779SOL     OW 4233   6.930   9.631   9.536
  779SOL    HW1 4234   6.850   9.596   9.574
  779SOL    HW2 4235   6.961   9.695   9.601
  780SOL     OW 4236   2.782   6.686  14.427
  780SOL    HW1 4237   2.723   6.759  14.407
  780SOL    HW2 4238   2.760   6.619  14.363
  781SOL     OW 4239  12.064  10.370   2.422
  781SOL    HW1 4240  11.985  10.381   2.369
  781SOL    HW2 4241  12.032  10.332   2.504
  782SOL     OW 4242   9.365   4.090  14.300
  782SOL    HW1 4243   9.440   4.031  14.291
  782SOL    HW2 4244   9.291   4.038  14.270
  783SOL     OW 4245  11.051   7.479  10.609
  783SOL    HW1 4246  10.976   7.431  10.574
  783SOL    HW2 4247  11.056   7.452  10.701
  784SOL     OW 4248   7.684   8.661   9.079
  784SOL    HW1 4249   7.655   8.612   9.002
  784SOL    HW2 4250   7.707   8.595   9.144
  785SOL     OW 4251   8.439  10.160   4.263
  785SOL    HW1 4252   8.367  10.119   4.311
  785SOL    HW2 4253   8.462  10.097   4.195
  786SOL     OW 4254   7.842   0.566   2.462
  786SOL    HW1 4255   7.771   0.502   2.461
  786SOL    HW2 4256   7.870   0.570   2.553
  787SOL     OW 4257  12.345   5.406   7.238
  787SOL    HW1 4258  12.424   5.458   7.252
  787SOL    HW2 4259  12.367   5.319   7.270
  788SOL     OW 4260  10.984  11.846  10.157
  788SOL    HW1 4261  10.901  11.853  10.204
  788SOL    HW2 4262  10.969  11.776  10.093
  789SOL     OW 4263   3.142   8.632   2.372
  789SOL    HW1 4264   3.119   8.722   2.350
  789SOL    HW2 4265   3.152   8.633   2.467
  790SOL     OW 4266   3.936   2.005   5.670
  790SOL    HW1 4267   4.018   2.043   5.638
  790SOL    HW2 4268   3.940   2.018   5.765
  791SOL     OW 4269   8.479  13.422   0.201
  791SOL    HW1 4270   8.557  13.367   0.199
  791SOL    HW2 4271   8.466  13.440   0.294
  792SOL     OW 4272  10.555   1.836   0.398
  792SOL    HW1 4273  10.626   1.779   0.369
  792SOL    HW2 4274  10.581   1.864   0.486
  793SOL     OW 4275  13.509   2.234   5.504
  793SOL    HW1 4276  13.434   2.182   5.536
  793SOL    HW2 4277  13.534   2.288   5.579
  794SOL     OW 4278  10.558  11.310   1.119
  794SOL    HW1 4279  10.478  11.348   1.084
  794SOL    HW2 4280  10.542  11.303   1.213
  795SOL     OW 4281  13.530  12.815   7.845
  795SOL    HW1 4282  13.500  12.844   7.931
  795SOL    HW2 4283  13.564  12.894   7.804
  796SOL     OW 4284  12.158  12.622   4.941
  796SOL    HW1 4285  12.249  12.590   4.939
  796SOL    HW2 4286  12.109  12.551   4.983
  797SOL     OW 4287   2.284   7.471  10.944
  797SOL    HW1 4288   2.268   7.473  11.038
  797SOL    HW2 4289   2.244   7.551  10.910
  798SOL     OW 4290   2.105   1.501  13.919
  798SOL    HW1 4291   2.067   1.586  13.897
  798SOL    HW2 4292   2.181   1.522  13.973
  799SOL     OW 4293  10.738  12.526  11.790
  799SOL    HW1 4294  10.815  12.498  11.740
  799SOL    HW2 4295  10.671  12.461  11.769
  800SOL     OW 4296   0.255   0.788   3.080
  800SOL    HW1 4297   0.190   0.736   3.031
  800SOL    HW2 4298   0.326   0.726   3.098
  801SOL     OW 4299  13.755   5.737  14.448
  801SOL    HW1 4300  13.759   5.648  14.483
  801SOL    HW2 4301  13.685   5.734  14.383
  802SOL     OW 4302   9.768   2.294   3.111
  802SOL    HW1 4303   9.783   2.210   3.066
  802SOL    HW2 4304   9.684   2.325   3.078
  803SOL     OW 4305  13.570   1.722   2.103
  803SOL    HW1 4306  13.492   1.669   2.087
  803SOL    HW2 4307  13.630   1.665   2.150
  804SOL     OW 4308  13.157   9.738   0.794
  804SOL    HW1 4309  13.160   9.781   0.879
  804SOL    HW2 4310  13.245   9.749   0.758
  805SOL     OW 4311   6.609   9.334   9.831
  805SOL    HW1 4312   6.518   9.303   9.836
  805SOL    HW2 4313   6.660   9.260   9.863
  806SOL     OW 4314   2.594  13.830   0.558
  806SOL    HW1 4315   2.511  13.870   0.582
  806SOL    HW2 4316   2.583  13.737   0.578
  807SOL     OW 4317   6.329   6.975  13.747
  807SOL    HW1 4318   6.318   7.070  13.750
  807SOL    HW2 4319   6.294   6.950  13.661
  808SOL     OW 4320   6.585   0.842   6.092
  808SOL    HW1 4321   6.650   0.772   6.084
  808SOL    HW2 4322   6.547   0.829   6.179
  809SOL     OW 4323   9.663   9.519  12.844
  809SOL    HW1 4324   9.668   9.425  12.864
  809SOL    HW2 4325   9.669   9.561  12.930
  810SOL     OW 4326   7.308   3.784   0.205
  810SOL    HW1 4327   7.275   3.832   0.281
  810SOL    HW2 4328   7.365   3.716   0.241
  811SOL     OW 4329   9.309  14.171   9.568
  811SOL    HW1 4330   9.376  14.166   9.500
  811SOL    HW2 4331   9.240  14.226   9.530
  812SOL     OW 4332  11.908   9.464   8.921
  812SOL    HW1 4333  11.982   9.522   8.907
  812SOL    HW2 4334  11.838   9.521   8.953
  813SOL     OW 4335  14.485   4.519   8.921
  813SOL    HW1 4336  14.423   4.447   8.907
  813SOL    HW2 4337  14.511   4.511   9.013
  814SOL     OW 4338   6.325   9.141   2.641
  814SOL    HW1 4339   6.293   9.173   2.725
  814SOL    HW2 4340   6.268   9.067   2.620
  815SOL     OW 4341  11.811   3.655   5.819
  815SOL    HW1 4342  11.857   3.737   5.836
  815SOL    HW2 4343  11.764   3.637   5.900
  816SOL     OW 4344   3.442   4.560   7.202
  816SOL    HW1 4345   3.350   4.561   7.229
  816SOL    HW2 4346   3.491   4.551   7.284
  817SOL     OW 4347   4.991  10.731   0.462
  817SOL    HW1 4348   5.006  10.657   0.520
  817SOL    HW2 4349   4.997  10.808   0.519
  818SOL     OW 4350   8.337   5.696   7.634
  818SOL    HW1 4351   8.360   5.769   7.577
  818SOL    HW2 4352   8.383   5.621   7.597
  819SOL     OW 4353  13.351   5.997  12.380
  819SOL    HW1 4354  13.271   6.050  12.374
  819SOL    HW2 4355  13.413   6.040  12.321
  820SOL     OW 4356   6.604  13.282   7.938
  820SOL    HW1 4357   6.585  13.351   7.874
  820SOL    HW2 4358   6.530  13.221   7.931
  821SOL     OW 4359   7.421  11.134   7.178
  821SOL    HW1 4360   7.471  11.175   7.249
  821SOL    HW2 4361   7.330  11.140   7.207
  822SOL     OW 4362   3.870  10.163   0.649
  822SOL    HW1 4363   3.824  10.191   0.570
  822SOL    HW2 4364   3.810  10.104   0.693
  823SOL     OW 4365   3.119   9.204   2.223
  823SOL    HW1 4366   3.176   9.177   2.294
  823SOL    HW2 4367   3.062   9.271   2.262
  824SOL     OW 4368   9.226   9.532  10.439
  824SOL    HW1 4369   9.226   9.625  10.458
  824SOL    HW2 4370   9.296   9.495  10.493
  825SOL     OW 4371  10.942   0.021   0.745
  825SOL    HW1 4372  11.032   0.011   0.776
  825SOL    HW2 4373  10.901  14.809   0.764
  826SOL     OW 4374   2.448   4.318   4.366
  826SOL    HW1 4375   2.447   4.251   4.434
  826SOL    HW2 4376   2.507   4.385   4.400
  827SOL     OW 4377   0.325  11.516   5.817
  827SOL    HW1 4378   0.312  11.574   5.742
  827SOL    HW2 4379   0.257  11.449   5.808
  828SOL     OW 4380   5.489  10.178   1.572
  828SOL    HW1 4381   5.559  10.136   1.622
  828SOL    HW2 4382   5.421  10.197   1.637
  829SOL     OW 4383   8.028   0.137   0.406
  829SOL    HW1 4384   8.011   0.054   0.361
  829SOL    HW2 4385   7.966   0.138   0.479
  830SOL     OW 4386   3.827  12.836   5.824
  830SOL    HW1 4387   3.788  12.894   5.889
  830SOL    HW2 4388   3.920  12.831   5.848
  831SOL     OW 4389   4.716   0.633   5.224
  831SOL    HW1 4390   4.796   0.682   5.242
  831SOL    HW2 4391   4.687   0.602   5.310
  832SOL     OW 4392   7.900  14.426  10.975
  832SOL    HW1 4393   7.820  14.418  10.924
  832SOL    HW2 4394   7.970  14.432  10.909
  833SOL     OW 4395   3.862  10.792  11.995
  833SOL    HW1 4396   3.858  10.697  12.009
  833SOL    HW2 4397   3.826  10.805  11.907
  834SOL     OW 4398   5.870   0.677   4.607
  834SOL    HW1 4399   5.911   0.761   4.629
  834SOL    HW2 4400   5.880   0.670   4.512
  835SOL     OW 4401   7.506   2.254  12.308
  835SOL    HW1 4402   7.546   2.326  12.357
  835SOL    HW2 4403   7.567   2.237  12.236
  836SOL     OW 4404  11.600   8.350   6.500
  836SOL    HW1 4405  11.621   8.309   6.416
  836SOL    HW2 4406  11.640   8.293   6.566
  837SOL     OW 4407   7.180  14.726   2.964
  837SOL    HW1 4408   7.139  14.798   2.916
  837SOL    HW2 4409   7.265  14.714   2.922
  838SOL     OW 4410   4.012   1.737  13.791
  838SOL    HW1 4411   4.093   1.744  13.841
  838SOL    HW2 4412   4.031   1.674  13.721
  839SOL     OW 4413  10.763   6.265   0.120
  839SOL    HW1 4414  10.736   6.317   0.044
  839SOL    HW2 4415  10.729   6.314   0.195
  840SOL     OW 4416   5.131   0.701   7.875
  840SOL    HW1 4417   5.084   0.700   7.791
  840SOL    HW2 4418   5.165   0.790   7.881
  841SOL     OW 4419   6.924   8.949   4.751
  841SOL    HW1 4420   6.956   8.889   4.819
  841SOL    HW2 4421   6.920   8.895   4.672
  842SOL     OW 4422   0.938   7.238   2.926
  842SOL    HW1 4423   0.968   7.281   2.847
  842SOL    HW2 4424   0.944   7.306   2.994
  843SOL     OW 4425   5.846   5.822   9.571
  843SOL    HW1 4426   5.799   5.903   9.550
  843SOL    HW2 4427   5.804   5.756   9.516
  844SOL     OW 4428   7.429   7.544  11.689
  844SOL    HW1 4429   7.489   7.618  11.698
  844SOL    HW2 4430   7.389   7.556  11.603
  845SOL     OW 4431  11.276  14.382   3.879
  845SOL    HW1 4432  11.312  14.471   3.873
  845SOL    HW2 4433  11.200  14.384   3.821
  846SOL     OW 4434   4.245   0.725  13.374
  846SOL    HW1 4435   4.237   0.722  13.279
  846SOL    HW2 4436   4.182   0.791  13.402
  847SOL     OW 4437  13.516   0.234   7.964
  847SOL    HW1 4438  13.578   0.244   7.893
  847SOL    HW2 4439  13.550   0.291   8.034
  848SOL     OW 4440   3.948   9.029  11.461
  848SOL    HW1 4441   3.896   9.109  11.456
  848SOL    HW2 4442   3.903   8.967  11.403
  849SOL     OW 4443  14.614  11.768   7.768
  849SOL    HW1 4444  14.546  11.702   7.753
  849SOL    HW2 4445  14.629  11.765   7.863
  850SOL     OW 4446   3.368   1.116  14.212
  850SOL    HW1 4447   3.341   1.032  14.175
  850SOL    HW2 4448   3.352   1.179  14.142
  851SOL     OW 4449   3.347  11.157   8.883
  851SOL    HW1 4450   3.366  11.090   8.817
  851SOL    HW2 4451   3.254  11.176   8.873
  852SOL     OW 4452   5.677   9.659   8.504
  852SOL    HW1 4453   5.589   9.689   8.526
  852SOL    HW2 4454   5.686   9.675   8.410
  853SOL     OW 4455   6.738   8.834  11.904
  853SOL    HW1 4456   6.770   8.844  11.814
  853SOL    HW2 4457   6.653   8.877  11.904
  854SOL     OW 4458   2.352   5.997   6.906
  854SOL    HW1 4459   2.354   6.017   6.812
  854SOL    HW2 4460   2.394   6.072   6.948
  855SOL     OW 4461   0.793  10.681  12.058
  855SOL    HW1 4462   0.747  10.597  12.063
  855SOL    HW2 4463   0.734  10.743  12.101
  856SOL     OW 4464  13.635  13.271   3.263
  856SOL    HW1 4465  13.614  13.364   3.264
  856SOL    HW2 4466  13.551  13.228   3.281
  857SOL     OW 4467   9.460   2.245   0.061
  857SOL    HW1 4468   9.502   2.281   0.139
  857SOL    HW2 4469   9.380   2.204   0.094
  858SOL     OW 4470   8.295  12.834   0.003
  858SOL    HW1 4471   8.243  12.785   0.067
  858SOL    HW2 4472   8.232  12.854  14.805
  859SOL     OW 4473   8.361  14.082   1.062
  859SOL    HW1 4474   8.450  14.100   1.093
  859SOL    HW2 4475   8.310  14.157   1.092
  860SOL     OW 4476   0.842   8.746   0.427
  860SOL    HW1 4477   0.770   8.752   0.490
  860SOL    HW2 4478   0.907   8.808   0.458
  861SOL     OW 4479  12.958   8.330   9.293
  861SOL    HW1 4480  12.945   8.296   9.205
  861SOL    HW2 4481  12.875   8.375   9.314
  862SOL     OW 4482  14.535   0.218   7.651
  862SOL    HW1 4483  14.480   0.142   7.632
  862SOL    HW2 4484  14.496   0.290   7.602
  863SOL     OW 4485   6.082  14.416   1.604
  863SOL    HW1 4486   5.993  14.425   1.637
  863SOL    HW2 4487   6.134  14.475   1.659
  864SOL     OW 4488  12.924   8.768   1.931
  864SOL    HW1 4489  13.002   8.756   1.876
  864SOL    HW2 4490  12.852   8.736   1.877
  865SOL     OW 4491   9.348   0.707   0.768
  865SOL    HW1 4492   9.271   0.676   0.816
  865SOL    HW2 4493   9.345   0.660   0.685
  866SOL     OW 4494   7.028  11.084   1.963
  866SOL    HW1 4495   7.061  11.020   1.900
  866SOL    HW2 4496   6.948  11.117   1.923
  867SOL     OW 4497   2.592   9.212  13.433
  867SOL    HW1 4498   2.497   9.208  13.441
  867SOL    HW2 4499   2.624   9.153  13.501
  868SOL     OW 4500   9.406   7.154  11.391
  868SOL    HW1 4501   9.340   7.090  11.417
  868SOL    HW2 4502   9.385   7.175  11.300
  869SOL     OW 4503  13.776  12.141  12.445
  869SOL    HW1 4504  13.789  12.152  12.351
  869SOL    HW2 4505  13.804  12.224  12.483
  870SOL     OW 4506  14.571  10.755   6.098
  870SOL    HW1 4507  14.545  10.687   6.161
  870SOL    HW2 4508  14.667  10.748   6.095
  871SOL     OW 4509   2.232  11.183   8.717
  871SOL    HW1 4510   2.324  11.164   8.734
  871SOL    HW2 4511   2.200  11.109   8.666
  872SOL     OW 4512  12.581   1.577   7.018
  872SOL    HW1 4513  12.548   1.503   6.965
  872SOL    HW2 4514  12.605   1.538   7.101
  873SOL     OW 4515   2.602   0.952  12.795
  873SOL    HW1 4516   2.626   0.992  12.879
  873SOL    HW2 4517   2.652   0.870  12.794
  874SOL     OW 4518  14.535   9.196  12.356
  874SOL    HW1 4519  14.554   9.111  12.316
  874SOL    HW2 4520  14.491   9.246  12.287
  875SOL     OW 4521  14.597   2.677   7.250
  875SOL    HW1 4522  14.635   2.712   7.330
  875SOL    HW2 4523  14.570   2.754   7.200
  876SOL     OW 4524   6.247  13.267  13.947
  876SOL    HW1 4525   6.188  13.343  13.945
  876SOL    HW2 4526   6.192  13.194  13.975
  877SOL     OW 4527   6.813   6.814   0.732
  877SOL    HW1 4528   6.834   6.726   0.700
  877SOL    HW2 4529   6.896   6.862   0.727
  878SOL     OW 4530  12.184   7.948   4.259
  878SOL    HW1 4531  12.175   8.039   4.286
  878SOL    HW2 4532  12.098   7.909   4.275
  879SOL     OW 4533  13.556   4.613  14.665
  879SOL    HW1 4534  13.557   4.695  14.714
  879SOL    HW2 4535  13.615   4.630  14.591
  880SOL     OW 4536   1.539   2.585   4.588
  880SOL    HW1 4537   1.501   2.605   4.674
  880SOL    HW2 4538   1.518   2.661   4.534
  881SOL     OW 4539   2.259   4.938   8.045
  881SOL    HW1 4540   2.284   4.904   8.131
  881SOL    HW2 4541   2.240   4.860   7.994
  882SOL     OW 4542  13.305   4.095   4.490
  882SOL    HW1 4543  13.274   4.084   4.580
  882SOL    HW2 4544  13.271   4.180   4.464
  883SOL     OW 4545   0.841   6.454   1.292
  883SOL    HW1 4546   0.778   6.405   1.239
  883SOL    HW2 4547   0.853   6.401   1.371
  884SOL     OW 4548   9.887   8.051  11.717
  884SOL    HW1 4549   9.958   8.026  11.776
  884SOL    HW2 4550   9.807   8.026  11.763
  885SOL     OW 4551  12.770   5.925   5.480
  885SOL    HW1 4552  12.762   6.016   5.508
  885SOL    HW2 4553  12.748   5.874   5.558
  886SOL     OW 4554   0.261   4.290   3.053
  886SOL    HW1 4555   0.289   4.381   3.043
  886SOL    HW2 4556   0.303   4.245   2.979
  887SOL     OW 4557   8.895  14.215   0.945
  887SOL    HW1 4558   8.841  14.150   0.989
  887SOL    HW2 4559   8.971  14.226   1.003
  888SOL     OW 4560  12.510   3.223   2.872
  888SOL    HW1 4561  12.526   3.209   2.779
  888SOL    HW2 4562  12.527   3.317   2.885
  889SOL     OW 4563   7.087   4.167   4.032
  889SOL    HW1 4564   7.043   4.185   4.115
  889SOL    HW2 4565   7.019   4.131   3.976
  890SOL     OW 4566  14.234  12.897  14.567
  890SOL    HW1 4567  14.215  12.806  14.546
  890SOL    HW2 4568  14.247  12.939  14.482
  891SOL     OW 4569   9.585  11.641   2.394
  891SOL    HW1 4570   9.587  11.721   2.341
  891SOL    HW2 4571   9.497  11.640   2.433
  892SOL     OW 4572   6.457   7.414  14.386
  892SOL    HW1 4573   6.551   7.406  14.403
  892SOL    HW2 4574   6.416   7.356  14.450
  893SOL     OW 4575  14.391   6.243  11.887
  893SOL    HW1 4576  14.398   6.274  11.797
  893SOL    HW2 4577  14.408   6.320  11.941
  894SOL     OW 4578   5.648   4.293   8.085
  894SOL    HW1 4579   5.626   4.229   8.017
  894SOL    HW2 4580   5.563   4.322   8.119
  895SOL     OW 4581   0.681   0.268   0.165
  895SOL    HW1 4582   0.738   0.305   0.098
  895SOL    HW2 4583   0.594   0.303   0.144
  896SOL     OW 4584   4.312   4.057   3.756
  896SOL    HW1 4585   4.309   4.074   3.850
  896SOL    HW2 4586   4.227   4.016   3.736
  897SOL     OW 4587  14.764   9.514   5.360
  897SOL    HW1 4588  14.831   9.504   5.428
  897SOL    HW2 4589  14.717   9.594   5.384
  898SOL     OW 4590   3.728   5.439   2.472
  898SOL    HW1 4591   3.813   5.450   2.428
  898SOL    HW2 4592   3.664   5.464   2.405
  899SOL     OW 4593   3.175  13.894  13.040
  899SOL    HW1 4594   3.206  13.963  12.981
  899SOL    HW2 4595   3.199  13.812  12.997
  900SOL     OW 4596  10.840   7.987   6.996
  900SOL    HW1 4597  10.887   7.908   7.023
  900SOL    HW2 4598  10.796   8.017   7.076
  901SOL     OW 4599   9.586   0.843   1.392
  901SOL    HW1 4600   9.656   0.781   1.408
  901SOL    HW2 4601   9.514   0.814   1.449
  902SOL     OW 4602  13.860  11.352   1.997
  902SOL    HW1 4603  13.769  11.323   1.986
  902SOL    HW2 4604  13.853  11.433   2.047
  903SOL     OW 4605  12.352   8.960   4.809
  903SOL    HW1 4606  12.310   9.042   4.838
  903SOL    HW2 4607  12.413   8.987   4.740
  904SOL     OW 4608  14.645   2.256   6.651
  904SOL    HW1 4609  14.591   2.201   6.708
  904SOL    HW2 4610  14.620   2.232   6.562
  905SOL     OW 4611   9.160   1.748   5.284
  905SOL    HW1 4612   9.218   1.806   5.334
  905SOL    HW2 4613   9.154   1.669   5.338
  906SOL     OW 4614   2.027  10.274   7.762
  906SOL    HW1 4615   2.041  10.252   7.670
  906SOL    HW2 4616   1.943  10.320   7.762
  907SOL     OW 4617  13.629   9.322   0.045
  907SOL    HW1 4618  13.615   9.395   0.105
  907SOL    HW2 4619  13.597   9.245   0.094
  908SOL     OW 4620   5.334   9.624  11.093
  908SOL    HW1 4621   5.407   9.584  11.047
  908SOL    HW2 4622   5.360   9.623  11.185
  909SOL     OW 4623   3.504   3.890  14.657
  909SOL    HW1 4624   3.519   3.981  14.631
  909SOL    HW2 4625   3.583   3.844  14.632
  910SOL     OW 4626   5.287  11.690   7.760
  910SOL    HW1 4627   5.354  11.624   7.775
  910SOL    HW2 4628   5.237  11.656   7.685
  911SOL     OW 4629  14.154   6.081  11.922
  911SOL    HW1 4630  14.243   6.117  11.913
  911SOL    HW2 4631  14.097   6.158  11.921
  912SOL     OW 4632  14.851   4.012  13.818
  912SOL    HW1 4633  14.831   4.029  13.726
  912SOL    HW2 4634  14.770   3.978  13.855
  913SOL     OW 4635   3.716   1.249   3.096
  913SOL    HW1 4636   3.681   1.334   3.121
  913SOL    HW2 4637   3.673   1.187   3.154
  914SOL     OW 4638   1.341   9.077   5.977
  914SOL    HW1 4639   1.387   8.996   6.001
  914SOL    HW2 4640   1.324   9.120   6.061
  915SOL     OW 4641   2.928   1.214   6.279
  915SOL    HW1 4642   3.017   1.182   6.267
  915SOL    HW2 4643   2.906   1.255   6.195
  916SOL     OW 4644   0.624   8.096   1.802
  916SOL    HW1 4645   0.582   8.118   1.885
  916SOL    HW2 4646   0.577   8.148   1.737
  917SOL     OW 4647   3.836  10.309  12.607
  917SOL    HW1 4648   3.816  10.292  12.699
  917SOL    HW2 4649   3.845  10.222  12.567
  918SOL     OW 4650   1.431  13.136   0.152
  918SOL    HW1 4651   1.372  13.094   0.089
  918SOL    HW2 4652   1.375  13.200   0.197
  919SOL     OW 4653   7.458   8.509   4.436
  919SOL    HW1 4654   7.463   8.510   4.340
  919SOL    HW2 4655   7.469   8.600   4.462
  920SOL     OW 4656   3.420   6.787  10.638
  920SOL    HW1 4657   3.377   6.860  10.594
  920SOL    HW2 4658   3.406   6.803  10.731
  921SOL     OW 4659  13.927  14.066   5.818
  921SOL    HW1 4660  13.939  14.028   5.731
  921SOL    HW2 4661  13.980  14.146   5.817
  922SOL     OW 4662   8.853  10.277   1.423
  922SOL    HW1 4663   8.767  10.291   1.463
  922SOL    HW2 4664   8.852  10.333   1.345
  923SOL     OW 4665   7.110   6.925  13.755
  923SOL    HW1 4666   7.035   6.984  13.751
  923SOL    HW2 4667   7.118   6.891  13.666
  924SOL     OW 4668  13.138  14.409   8.763
  924SOL    HW1 4669  13.175  14.325   8.736
  924SOL    HW2 4670  13.213  14.467   8.774
  925SOL     OW 4671   8.153  13.405  13.518
  925SOL    HW1 4672   8.152  13.438  13.608
  925SOL    HW2 4673   8.074  13.443  13.479
  926SOL     OW 4674   2.644   9.785  13.006
  926SOL    HW1 4675   2.639   9.711  13.066
  926SOL    HW2 4676   2.618   9.750  12.921
  927SOL     OW 4677   7.794   1.403   7.121
  927SOL    HW1 4678   7.739   1.331   7.091
  927SOL    HW2 4679   7.828   1.374   7.206
  928SOL     OW 4680   2.843   1.784   5.762
  928SOL    HW1 4681   2.785   1.730   5.815
  928SOL    HW2 4682   2.786   1.850   5.722
  929SOL     OW 4683   8.819  11.696   3.427
  929SOL    HW1 4684   8.904  11.740   3.432
  929SOL    HW2 4685   8.824  11.628   3.494
  930SOL     OW 4686   5.739   5.922  14.019
  930SOL    HW1 4687   5.830   5.901  13.999
  930SOL    HW2 4688   5.722   5.877  14.102
  931SOL     OW 4689  14.158   1.688  12.942
  931SOL    HW1 4690  14.173   1.681  12.848
  931SOL    HW2 4691  14.145   1.782  12.957
  932SOL     OW 4692   0.512   4.981   4.362
  932SOL    HW1 4693   0.530   4.953   4.272
  932SOL    HW2 4694   0.424   5.018   4.358
  933SOL     OW 4695   9.879   7.566   6.316
  933SOL    HW1 4696   9.914   7.538   6.401
  933SOL    HW2 4697   9.818   7.636   6.338
  934SOL     OW 4698   1.959   4.194  10.826
  934SOL    HW1 4699   2.001   4.177  10.742
  934SOL    HW2 4700   1.872   4.227  10.803
  935SOL     OW 4701   0.360   5.007  10.434
  935SOL    HW1 4702   0.302   4.994  10.359
  935SOL    HW2 4703   0.322   4.953  10.503
  936SOL     OW 4704  14.555  13.025  11.396
  936SOL    HW1 4705  14.484  12.989  11.343
  936SOL    HW2 4706  14.534  13.118  11.403
  937SOL     OW 4707  10.230  14.721   1.528
  937SOL    HW1 4708  10.289  14.730   1.453
  937SOL    HW2 4709  10.190  14.808   1.537
  938SOL     OW 4710  11.838   7.419   5.060
  938SOL    HW1 4711  11.911   7.452   5.007
  938SOL    HW2 4712  11.842   7.470   5.141
  939SOL     OW 4713  13.173   2.255  14.807
  939SOL    HW1 4714  13.214   2.246  14.721
  939SOL    HW2 4715  13.091   2.205  14.800
  940SOL     OW 4716   7.371   8.078  11.979
  940SOL    HW1 4717   7.290   8.118  11.949
  940SOL    HW2 4718   7.345   8.024  12.053
  941SOL     OW 4719  14.588   5.946   0.798
  941SOL    HW1 4720  14.512   5.994   0.831
  941SOL    HW2 4721  14.602   5.980   0.709
  942SOL     OW 4722   4.123   3.148   5.689
  942SOL    HW1 4723   4.053   3.145   5.754
  942SOL    HW2 4724   4.078   3.134   5.605
  943SOL     OW 4725   0.248  12.048   5.204
  943SOL    HW1 4726   0.173  12.074   5.151
  943SOL    HW2 4727   0.270  11.960   5.173
  944SOL     OW 4728  12.325   0.873   3.252
  944SOL    HW1 4729  12.416   0.844   3.244
  944SOL    HW2 4730  12.317   0.900   3.343
  945SOL     OW 4731   2.675   9.053   5.701
  945SOL    HW1 4732   2.760   9.097   5.694
  945SOL    HW2 4733   2.694   8.971   5.747
  946SOL     OW 4734   9.085  12.512   7.838
  946SOL    HW1 4735   9.024  12.442   7.814
  946SOL    HW2 4736   9.146  12.470   7.898
  947SOL     OW 4737  13.683  13.818  11.114
  947SOL    HW1 4738  13.753  13.804  11.049
  947SOL    HW2 4739  13.679  13.736  11.162
  948SOL     OW 4740  12.806  12.204  13.658
  948SOL    HW1 4741  12.804  12.114  13.626
  948SOL    HW2 4742  12.783  12.257  13.582
  949SOL     OW 4743  14.612   9.790   8.268
  949SOL    HW1 4744  14.601   9.801   8.362
  949SOL    HW2 4745  14.705   9.772   8.256
  950SOL     OW 4746  10.450   0.601  12.318
  950SOL    HW1 4747  10.508   0.593  12.242
  950SOL    HW2 4748  10.498   0.657  12.379
  951SOL     OW 4749  10.344   9.034   7.442
  951SOL    HW1 4750  10.251   9.014   7.433
  951SOL    HW2 4751  10.359   9.037   7.537
  952SOL     OW 4752   3.549   9.510  13.542
  952SOL    HW1 4753   3.610   9.542  13.608
  952SOL    HW2 4754   3.530   9.420  13.567
  953SOL     OW 4755   8.766   5.197   6.982
  953SOL    HW1 4756   8.730   5.261   7.043
  953SOL    HW2 4757   8.831   5.246   6.931
  954SOL     OW 4758  12.921   1.584  14.191
  954SOL    HW1 4759  12.973   1.548  14.264
  954SOL    HW2 4760  12.897   1.671  14.220
  955SOL     OW 4761   9.830  14.398  13.769
  955SOL    HW1 4762   9.902  14.426  13.712
  955SOL    HW2 4763   9.795  14.479  13.805
  956SOL     OW 4764   9.193   0.737   7.819
  956SOL    HW1 4765   9.276   0.706   7.857
  956SOL    HW2 4766   9.153   0.790   7.888
  957SOL     OW 4767   2.858  12.147   4.985
  957SOL    HW1 4768   2.836  12.134   4.892
  957SOL    HW2 4769   2.889  12.238   4.990
  958SOL     OW 4770   7.893   7.146   6.873
  958SOL    HW1 4771   7.817   7.138   6.815
  958SOL    HW2 4772   7.874   7.087   6.946
  959SOL     OW 4773  14.194  13.798   8.532
  959SOL    HW1 4774  14.112  13.834   8.499
  959SOL    HW2 4775  14.255  13.871   8.530
  960SOL     OW 4776  10.091   6.020   7.940
  960SOL    HW1 4777  10.062   6.101   7.898
  960SOL    HW2 4778  10.054   6.025   8.028
  961SOL     OW 4779   8.402  11.701   2.734
  961SOL    HW1 4780   8.328  11.751   2.769
  961SOL    HW2 4781   8.437  11.655   2.810
  962SOL     OW 4782   9.674  11.297   8.537
  962SOL    HW1 4783   9.763  11.287   8.571
  962SOL    HW2 4784   9.634  11.210   8.548
  963SOL     OW 4785   2.586  11.341   8.123
  963SOL    HW1 4786   2.588  11.381   8.036
  963SOL    HW2 4787   2.494  11.343   8.149
  964SOL     OW 4788   7.680   0.979  10.857
  964SOL    HW1 4789   7.641   1.053  10.905
  964SOL    HW2 4790   7.656   0.902  10.908
  965SOL     OW 4791   2.265   4.004   6.145
  965SOL    HW1 4792   2.257   3.912   6.172
  965SOL    HW2 4793   2.293   3.999   6.054
  966SOL     OW 4794  12.665  12.604   7.179
  966SOL    HW1 4795  12.620  12.532   7.223
  966SOL    HW2 4796  12.704  12.563   7.101
  967SOL     OW 4797   5.667   8.743   1.063
  967SOL    HW1 4798   5.739   8.791   1.022
  967SOL    HW2 4799   5.624   8.808   1.119
  968SOL     OW 4800   5.065   6.489   5.144
  968SOL    HW1 4801   5.147   6.474   5.097
  968SOL    HW2 4802   5.047   6.582   5.131
  969SOL     OW 4803   5.936   6.643   5.258
  969SOL    HW1 4804   5.989   6.586   5.314
  969SOL    HW2 4805   5.874   6.583   5.216
  970SOL     OW 4806   4.312   8.472  12.981
  970SOL    HW1 4807   4.252   8.478  12.907
  970SOL    HW2 4808   4.394   8.441  12.943
  971SOL     OW 4809  12.961  10.113  11.722
  971SOL    HW1 4810  12.909  10.181  11.765
  971SOL    HW2 4811  12.902  10.074  11.658
  972SOL     OW 4812   2.240   4.886   4.628
  972SOL    HW1 4813   2.160   4.931   4.598
  972SOL    HW2 4814   2.275   4.943   4.697
  973SOL     OW 4815  11.632  13.130  14.416
  973SOL    HW1 4816  11.727  13.141  14.411
  973SOL    HW2 4817  11.602  13.125  14.325
  974SOL     OW 4818   8.276   4.689   5.843
  974SOL    HW1 4819   8.367   4.666   5.864
  974SOL    HW2 4820   8.255   4.637   5.766
  975SOL     OW 4821   4.882   0.080   7.592
  975SOL    HW1 4822   4.897   0.174   7.597
  975SOL    HW2 4823   4.906   0.057   7.503
  976SOL     OW 4824   9.857  13.043  12.581
  976SOL    HW1 4825   9.795  13.025  12.653
  976SOL    HW2 4826   9.886  13.132  12.597
  977SOL     OW 4827   0.101  13.127   3.009
  977SOL    HW1 4828   0.110  13.169   2.924
  977SOL    HW2 4829   0.191  13.112   3.038
  978SOL     OW 4830   1.582   5.700   1.548
  978SOL    HW1 4831   1.623   5.762   1.608
  978SOL    HW2 4832   1.514   5.658   1.600
  979SOL     OW 4833  11.110   1.517   4.007
  979SOL    HW1 4834  11.026   1.513   3.962
  979SOL    HW2 4835  11.098   1.464   4.086
  980SOL     OW 4836  10.773   5.658  11.246
  980SOL    HW1 4837  10.821   5.718  11.303
  980SOL    HW2 4838  10.736   5.592  11.305
  981SOL     OW 4839  11.320  10.140   3.112
  981SOL    HW1 4840  11.260  10.215   3.116
  981SOL    HW2 4841  11.285  10.079   3.178
  982SOL     OW 4842   9.727   6.426   6.981
  982SOL    HW1 4843   9.784   6.438   7.056
  982SOL    HW2 4844   9.770   6.474   6.910
  983SOL     OW 4845   4.398  10.834   1.719
  983SOL    HW1 4846   4.447  10.762   1.679
  983SOL    HW2 4847   4.446  10.852   1.800
  984SOL     OW 4848   6.656   8.011   9.326
  984SOL    HW1 4849   6.620   7.958   9.397
  984SOL    HW2 4850   6.579   8.043   9.279
  985SOL     OW 4851   8.268   4.503   8.936
  985SOL    HW1 4852   8.269   4.527   9.029
  985SOL    HW2 4853   8.207   4.429   8.932
  986SOL     OW 4854  10.090   5.747   8.671
  986SOL    HW1 4855  10.031   5.816   8.703
  986SOL    HW2 4856  10.121   5.779   8.586
  987SOL     OW 4857   3.324  13.255   5.669
  987SOL    HW1 4858   3.384  13.184   5.692
  987SOL    HW2 4859   3.325  13.256   5.573
  988SOL     OW 4860   8.867  10.885  13.195
  988SOL    HW1 4861   8.774  10.871  13.175
  988SOL    HW2 4862   8.871  10.976  13.224
  989SOL     OW 4863   9.086  10.972   8.796
  989SOL    HW1 4864   9.107  10.879   8.794
  989SOL    HW2 4865   9.131  11.008   8.720
  990SOL     OW 4866   7.517   5.283   5.027
  990SOL    HW1 4867   7.481   5.364   5.064
  990SOL    HW2 4868   7.495   5.289   4.934
  991SOL     OW 4869   9.051  13.430  14.514
  991SOL    HW1 4870   9.112  13.356  14.521
  991SOL    HW2 4871   9.034  13.456  14.604
  992SOL     OW 4872   6.644  12.130   5.360
  992SOL    HW1 4873   6.687  12.215   5.349
  992SOL    HW2 4874   6.703  12.068   5.316
  993SOL     OW 4875   0.575   4.940   5.990
  993SOL    HW1 4876   0.561   5.016   6.046
  993SOL    HW2 4877   0.618   4.876   6.048
  994SOL     OW 4878   1.132  12.345   4.213
  994SOL    HW1 4879   1.074  12.373   4.284
  994SOL    HW2 4880   1.220  12.367   4.243
  995SOL     OW 4881   6.762  10.650   4.940
  995SOL    HW1 4882   6.834  10.653   5.003
  995SOL    HW2 4883   6.805  10.648   4.854
  996SOL     OW 4884   1.347   4.094  12.930
  996SOL    HW1 4885   1.366   4.079  12.837
  996SOL    HW2 4886   1.252   4.099  12.934
  997SOL     OW 4887   7.844  14.771   3.647
  997SOL    HW1 4888   7.805  14.705   3.590
  997SOL    HW2 4889   7.769  14.820   3.681
  998SOL     OW 4890   0.436   8.218   7.413
  998SOL    HW1 4891   0.362   8.195   7.357
  998SOL    HW2 4892   0.454   8.310   7.392
  999SOL     OW 4893  13.014   8.637  11.088
  999SOL    HW1 4894  13.081   8.700  11.062
  999SOL    HW2 4895  13.063   8.562  11.123
 1000SOL     OW 4896   9.847   9.017  14.668
 1000SOL    HW1 4897   9.930   9.004  14.622
 1000SOL    HW2 4898   9.780   8.998  14.602
 1001SOL     OW 4899  13.799   7.937  12.465
 1001SOL    HW1 4900  13.847   7.870  12.417
 1001SOL    HW2 4901  13.713   7.938  12.424
 1002SOL     OW 4902   5.599   3.580  10.088
 1002SOL    HW1 4903   5.634   3.499  10.051
 1002SOL    HW2 4904   5.669   3.644  10.078
 1003SOL     OW 4905   9.196   2.678   9.225
 1003SOL    HW1 4906   9.232   2.606   9.277
 1003SOL    HW2 4907   9.119   2.707   9.273
 1004SOL     OW 4908   2.566   2.284  12.250
 1004SOL    HW1 4909   2.597   2.375  12.245
 1004SOL    HW2 4910   2.550   2.259  12.159
 1005SOL     OW 4911   7.293   2.220   8.874
 1005SOL    HW1 4912   7.273   2.127   8.867
 1005SOL    HW2 4913   7.243   2.262   8.804
 1006SOL     OW 4914   3.391   6.241  11.457
 1006SOL    HW1 4915   3.478   6.209  11.480
 1006SOL    HW2 4916   3.369   6.303  11.527
 1007SOL     OW 4917  12.940  12.002  11.086
 1007SOL    HW1 4918  13.029  11.997  11.124
 1007SOL    HW2 4919  12.937  11.929  11.025
 1008SOL     OW 4920  12.692   5.713   3.752
 1008SOL    HW1 4921  12.667   5.690   3.663
 1008SOL    HW2 4922  12.688   5.809   3.754
 1009SOL     OW 4923   4.179   7.550   5.946
 1009SOL    HW1 4924   4.272   7.554   5.971
 1009SOL    HW2 4925   4.181   7.522   5.855
 1010SOL     OW 4926   9.922  10.089   8.800
 1010SOL    HW1 4927  10.016  10.105   8.795
 1010SOL    HW2 4928   9.885  10.168   8.839
 1011SOL     OW 4929   5.249   9.333  13.683
 1011SOL    HW1 4930   5.189   9.406  13.695
 1011SOL    HW2 4931   5.303   9.358  13.608
 1012SOL     OW 4932   8.077   3.277  12.601
 1012SOL    HW1 4933   8.130   3.227  12.538
 1012SOL    HW2 4934   8.138   3.340  12.639
 1013SOL     OW 4935  11.791   7.574   2.643
 1013SOL    HW1 4936  11.708   7.530   2.660
 1013SOL    HW2 4937  11.827   7.592   2.730
 1014SOL     OW 4938   8.578  13.518  14.801
 1014SOL    HW1 4939   8.530  13.539   0.009
 1014SOL    HW2 4940   8.623  13.600  14.779
 1015SOL     OW 4941  13.582   9.977   5.403
 1015SOL    HW1 4942  13.670   9.976   5.439
 1015SOL    HW2 4943  13.529   9.926   5.465
 1016SOL     OW 4944  12.170   2.885  10.022
 1016SOL    HW1 4945  12.077   2.876  10.002
 1016SOL    HW2 4946  12.172   2.914  10.113
 1017SOL     OW 4947   3.098   0.899   7.020
 1017SOL    HW1 4948   3.179   0.869   7.062
 1017SOL    HW2 4949   3.040   0.823   7.023
 1018SOL     OW 4950   6.603   0.440   2.790
 1018SOL    HW1 4951   6.640   0.492   2.719
 1018SOL    HW2 4952   6.510   0.432   2.768
 1019SOL     OW 4953   6.095   3.520   0.033
 1019SOL    HW1 4954   6.092   3.440   0.085
 1019SOL    HW2 4955   6.156   3.500  14.834
 1020SOL     OW 4956   5.740   5.668   2.915
 1020SOL    HW1 4957   5.784   5.595   2.873
 1020SOL    HW2 4958   5.805   5.738   2.918
 1021SOL     OW 4959  14.834  14.399   0.526
 1021SOL    HW1 4960   0.024  14.438   0.464
 1021SOL    HW2 4961  14.772  14.469   0.546
 1022SOL     OW 4962  14.267   1.699  11.703
 1022SOL    HW1 4963  14.258   1.794  11.717
 1022SOL    HW2 4964  14.240   1.686  11.612
 1023SOL     OW 4965  13.056  10.057   7.766
 1023SOL    HW1 4966  13.056  10.077   7.672
 1023SOL    HW2 4967  12.978  10.101   7.800
 1024SOL     OW 4968   1.114   3.514   8.939
 1024SOL    HW1 4969   1.172   3.582   8.905
 1024SOL    HW2 4970   1.062   3.487   8.863
 1025SOL     OW 4971   1.435   0.039   0.313
 1025SOL    HW1 4972   1.349   0.002   0.333
 1025SOL    HW2 4973   1.489  14.836   0.291
 1026SOL     OW 4974  13.735   8.175  13.097
 1026SOL    HW1 4975  13.722   8.190  13.003
 1026SOL    HW2 4976  13.742   8.079  13.105
 1027SOL     OW 4977   3.112  12.071   5.673
 1027SOL    HW1 4978   3.203  12.091   5.653
 1027SOL    HW2 4979   3.116  11.991   5.726
 1028SOL     OW 4980  10.440  13.352   1.497
 1028SOL    HW1 4981  10.431  13.268   1.453
 1028SOL    HW2 4982  10.535  13.363   1.506
 1029SOL     OW 4983  14.101   1.521   4.525
 1029SOL    HW1 4984  14.030   1.542   4.463
 1029SOL    HW2 4985  14.181   1.533   4.474
 1030SOL     OW 4986   9.335  13.499   7.511
 1030SOL    HW1 4987   9.345  13.578   7.564
 1030SOL    HW2 4988   9.423  13.461   7.508
 1031SOL     OW 4989   4.360   1.088   1.537
 1031SOL    HW1 4990   4.299   1.044   1.478
 1031SOL    HW2 4991   4.306   1.153   1.583
 1032SOL     OW 4992   6.853   0.534  10.519
 1032SOL    HW1 4993   6.843   0.623  10.486
 1032SOL    HW2 4994   6.764   0.502  10.532
 1033SOL     OW 4995   0.790   8.714   2.402
 1033SOL    HW1 4996   0.875   8.669   2.392
 1033SOL    HW2 4997   0.809   8.788   2.459
 1034SOL     OW 4998   5.547   2.453   8.348
 1034SOL    HW1 4999   5.585   2.519   8.290
 1034SOL    HW2 5000   5.540   2.497   8.433
 1035SOL     OW 5001   1.879   7.460   2.538
 1035SOL    HW1 5002   1.813   7.435   2.602
 1035SOL    HW2 5003   1.927   7.379   2.520
 1036SOL     OW 5004   7.843   1.982   6.575
 1036SOL    HW1 5005   7.788   1.909   6.548
 1036SOL    HW2 5006   7.931   1.944   6.585
 1037SOL     OW 5007   7.599   6.449   1.984
 1037SOL    HW1 5008   7.614   6.436   2.077
 1037SOL    HW2 5009   7.555   6.369   1.955
 1038SOL     OW 5010   3.640   4.914   2.647
 1038SOL    HW1 5011   3.648   5.004   2.618
 1038SOL    HW2 5012   3.679   4.862   2.578
 1039SOL     OW 5013  12.249   1.327   8.660
 1039SOL    HW1 5014  12.315   1.318   8.591
 1039SOL    HW2 5015  12.285   1.277   8.734
 1040SOL     OW 5016   5.574  12.565   3.845
 1040SOL    HW1 5017   5.608  12.478   3.824
 1040SOL    HW2 5018   5.584  12.615   3.764
 1041SOL     OW 5019   3.215  14.445   4.456
 1041SOL    HW1 5020   3.241  14.415   4.544
 1041SOL    HW2 5021   3.271  14.521   4.440
 1042SOL     OW 5022   6.529  11.550   4.259
 1042SOL    HW1 5023   6.499  11.545   4.168
 1042SOL    HW2 5024   6.562  11.463   4.279
 1043SOL     OW 5025   4.494   8.599  14.855
 1043SOL    HW1 5026   4.460   8.511  14.870
 1043SOL    HW2 5027   4.465   8.621  14.766
 1044SOL     OW 5028   0.052  14.681  13.335
 1044SOL    HW1 5029  14.861  14.752  13.320
 1044SOL    HW2 5030   0.118  14.720  13.392
 1045SOL     OW 5031   4.786   1.144  13.017
 1045SOL    HW1 5032   4.696   1.178  13.022
 1045SOL    HW2 5033   4.841   1.222  13.021
 1046SOL     OW 5034   7.072   4.916   1.763
 1046SOL    HW1 5035   7.162   4.914   1.794
 1046SOL    HW2 5036   7.054   5.009   1.747
 1047SOL     OW 5037   0.619   0.827   1.270
 1047SOL    HW1 5038   0.605   0.836   1.364
 1047SOL    HW2 5039   0.670   0.905   1.245
 1048SOL     OW 5040  12.268  10.678  10.590
 1048SOL    HW1 5041  12.312  10.636  10.516
 1048SOL    HW2 5042  12.287  10.622  10.665
 1049SOL     OW 5043   4.525   9.213   5.552
 1049SOL    HW1 5044   4.608   9.166   5.544
 1049SOL    HW2 5045   4.504   9.208   5.645
 1050SOL     OW 5046   6.052   6.167   3.263
 1050SOL    HW1 5047   6.133   6.126   3.293
 1050SOL    HW2 5048   6.077   6.257   3.242
 1051SOL     OW 5049   4.627  13.571  14.433
 1051SOL    HW1 5050   4.585  13.526  14.507
 1051SOL    HW2 5051   4.718  13.543  14.437
 1052SOL     OW 5052   4.857   4.830   2.676
 1052SOL    HW1 5053   4.846   4.739   2.648
 1052SOL    HW2 5054   4.952   4.845   2.672
 1053SOL     OW 5055   6.639  13.710  14.412
 1053SOL    HW1 5056   6.619  13.626  14.369
 1053SOL    HW2 5057   6.733  13.705  14.431
 1054SOL     OW 5058  14.744   0.779  10.812
 1054SOL    HW1 5059  14.811   0.810  10.872
 1054SOL    HW2 5060  14.733   0.686  10.833
 1055SOL     OW 5061   6.956  10.140   5.582
 1055SOL    HW1 5062   6.898  10.172   5.651
 1055SOL    HW2 5063   6.970  10.048   5.603
 1056SOL     OW 5064   0.619   0.108  12.268
 1056SOL    HW1 5065   0.683   0.079  12.203
 1056SOL    HW2 5066   0.548   0.147  12.217
 1057SOL     OW 5067   9.973   6.298   5.943
 1057SOL    HW1 5068  10.065   6.276   5.930
 1057SOL    HW2 5069   9.935   6.298   5.855
 1058SOL     OW 5070  12.421  13.070   8.095
 1058SOL    HW1 5071  12.366  13.127   8.149
 1058SOL    HW2 5072  12.486  13.035   8.155
 1059SOL     OW 5073   3.454   2.368   6.433
 1059SOL    HW1 5074   3.419   2.445   6.390
 1059SOL    HW2 5075   3.547   2.366   6.410
 1060SOL     OW 5076   9.141  14.344  13.345
 1060SOL    HW1 5077   9.166  14.320  13.434
 1060SOL    HW2 5078   9.112  14.261  13.306
 1061SOL     OW 5079  13.790  13.836   6.743
 1061SOL    HW1 5080  13.701  13.836   6.778
 1061SOL    HW2 5081  13.834  13.765   6.790
 1062SOL     OW 5082   5.991   4.926  12.536
 1062SOL    HW1 5083   5.965   5.015  12.513
 1062SOL    HW2 5084   5.916   4.890  12.585
 1063SOL     OW 5085  11.465   4.357   1.124
 1063SOL    HW1 5086  11.492   4.407   1.046
 1063SOL    HW2 5087  11.397   4.410   1.164
 1064SOL     OW 5088   6.482  10.545  12.488
 1064SOL    HW1 5089   6.532  10.542  12.570
 1064SOL    HW2 5090   6.549  10.543  12.419
 1065SOL     OW 5091   1.160  13.769  12.754
 1065SOL    HW1 5092   1.084  13.790  12.700
 1065SOL    HW2 5093   1.233  13.767  12.692
 1066SOL     OW 5094  13.531   6.220   9.653
 1066SOL    HW1 5095  13.510   6.233   9.745
 1066SOL    HW2 5096  13.448   6.232   9.607
 1067SOL     OW 5097   7.139   9.237   5.158
 1067SOL    HW1 5098   7.157   9.270   5.070
 1067SOL    HW2 5099   7.225   9.232   5.200
 1068SOL     OW 5100   5.014   5.186  12.464
 1068SOL    HW1 5101   5.019   5.132  12.385
 1068SOL    HW2 5102   5.049   5.130  12.533
 1069SOL     OW 5103   0.546  14.321  14.311
 1069SOL    HW1 5104   0.579  14.367  14.388
 1069SOL    HW2 5105   0.612  14.253  14.293
 1070SOL     OW 5106  12.577  13.608  13.877
 1070SOL    HW1 5107  12.546  13.598  13.787
 1070SOL    HW2 5108  12.540  13.533  13.924
 1071SOL     OW 5109   4.263  11.904   4.186
 1071SOL    HW1 5110   4.242  11.959   4.262
 1071SOL    HW2 5111   4.290  11.821   4.224
 1072SOL     OW 5112   9.386   4.043   5.808
 1072SOL    HW1 5113   9.386   3.948   5.800
 1072SOL    HW2 5114   9.475   4.065   5.837
 1073SOL     OW 5115  14.766  12.163   3.096
 1073SOL    HW1 5116  14.829  12.171   3.024
 1073SOL    HW2 5117  14.720  12.247   3.097
 1074SOL     OW 5118   4.672   7.340  11.477
 1074SOL    HW1 5119   4.758   7.305  11.454
 1074SOL    HW2 5120   4.640   7.381  11.397
 1075SOL     OW 5121   6.164  10.301  11.700
 1075SOL    HW1 5122   6.224  10.267  11.767
 1075SOL    HW2 5123   6.113  10.368  11.746
 1076SOL     OW 5124  12.628   7.107   9.705
 1076SOL    HW1 5125  12.589   7.113   9.617
 1076SOL    HW2 5126  12.680   7.027   9.703
 1077SOL     OW 5127   6.285   0.538   4.756
 1077SOL    HW1 5128   6.336   0.527   4.676
 1077SOL    HW2 5129   6.252   0.450   4.775
 1078SOL     OW 5130   4.025  13.374  10.951
 1078SOL    HW1 5131   3.962  13.445  10.961
 1078SOL    HW2 5132   4.084  13.383  11.026
 1079SOL     OW 5133   5.207  13.285   7.902
 1079SOL    HW1 5134   5.115  13.293   7.876
 1079SOL    HW2 5135   5.209  13.210   7.961
 1080SOL     OW 5136   9.099   6.157   9.946
 1080SOL    HW1 5137   9.156   6.186  10.016
 1080SOL    HW2 5138   9.021   6.211   9.954
 1081SOL     OW 5139   6.941   9.348   9.278
 1081SOL    HW1 5140   6.980   9.434   9.293
 1081SOL    HW2 5141   6.948   9.335   9.184
 1082SOL     OW 5142   5.157  13.121   4.112
 1082SOL    HW1 5143   5.243  13.161   4.124
 1082SOL    HW2 5144   5.170  13.057   4.043
 1083SOL     OW 5145   8.484  12.084  11.625
 1083SOL    HW1 5146   8.558  12.129  11.585
 1083SOL    HW2 5147   8.418  12.081  11.555
 1084SOL     OW 5148  14.652   1.494   7.710
 1084SOL    HW1 5149  14.692   1.550   7.643
 1084SOL    HW2 5150  14.662   1.405   7.674
 1085SOL     OW 5151   2.560   6.107   5.487
 1085SOL    HW1 5152   2.541   6.200   5.477
 1085SOL    HW2 5153   2.529   6.067   5.405
 1086SOL     OW 5154  11.224   1.372   5.622
 1086SOL    HW1 5155  11.194   1.459   5.595
 1086SOL    HW2 5156  11.147   1.330   5.659
 1087SOL     OW 5157  14.114   3.167   9.601
 1087SOL    HW1 5158  14.130   3.096   9.664
 1087SOL    HW2 5159  14.130   3.247   9.651
 1088SOL     OW 5160   8.411   1.195  10.323
 1088SOL    HW1 5161   8.475   1.185  10.252
 1088SOL    HW2 5162   8.336   1.238  10.282
 1089SOL     OW 5163   7.850   1.835  13.905
 1089SOL    HW1 5164   7.928   1.871  13.862
 1089SOL    HW2 5165   7.883   1.793  13.984
 1090SOL     OW 5166   5.858   8.985   7.561
 1090SOL    HW1 5167   5.929   9.020   7.508
 1090SOL    HW2 5168   5.898   8.917   7.615
 1091SOL     OW 5169  12.794   7.035   6.217
 1091SOL    HW1 5170  12.814   7.082   6.298
 1091SOL    HW2 5171  12.868   6.975   6.206
 1092SOL     OW 5172  11.614   7.727  11.476
 1092SOL    HW1 5173  11.568   7.788  11.533
 1092SOL    HW2 5174  11.584   7.641  11.503
 1093SOL     OW 5175   2.793  10.308  11.016
 1093SOL    HW1 5176   2.745  10.326  10.935
 1093SOL    HW2 5177   2.731  10.331  11.085
 1094SOL     OW 5178   4.155   6.798   5.818
 1094SOL    HW1 5179   4.222   6.784   5.885
 1094SOL    HW2 5180   4.104   6.871   5.851
 1095SOL     OW 5181  10.273   5.319  13.331
 1095SOL    HW1 5182  10.305   5.408  13.314
 1095SOL    HW2 5183  10.301   5.268  13.255
 1096SOL     OW 5184   2.060  12.257  12.756
 1096SOL    HW1 5185   1.966  12.274  12.745
 1096SOL    HW2 5186   2.095  12.257  12.667
 1097SOL     OW 5187  12.301   5.287   2.450
 1097SOL    HW1 5188  12.320   5.256   2.538
 1097SOL    HW2 5189  12.385   5.288   2.406
 1098SOL     OW 5190  12.856   8.149  10.385
 1098SOL    HW1 5191  12.796   8.121  10.454
 1098SOL    HW2 5192  12.804   8.206  10.329
 1099SOL     OW 5193  14.283  11.018   9.877
 1099SOL    HW1 5194  14.206  11.073   9.870
 1099SOL    HW2 5195  14.344  11.051   9.812
 1100SOL     OW 5196   3.675   2.370  10.324
 1100SOL    HW1 5197   3.592   2.413  10.346
 1100SOL    HW2 5198   3.709   2.340  10.408
 1101SOL     OW 5199   1.351  14.740  14.851
 1101SOL    HW1 5200   1.304  14.738  14.767
 1101SOL    HW2 5201   1.315  14.816   0.025
 1102SOL     OW 5202   3.730   5.730   6.973
 1102SOL    HW1 5203   3.685   5.810   6.947
 1102SOL    HW2 5204   3.681   5.698   7.048
 1103SOL     OW 5205   4.777   2.570   2.575
 1103SOL    HW1 5206   4.711   2.636   2.598
 1103SOL    HW2 5207   4.759   2.551   2.483
 1104SOL     OW 5208   6.037   8.243  13.444
 1104SOL    HW1 5209   5.996   8.161  13.414
 1104SOL    HW2 5210   6.041   8.298  13.365
 1105SOL     OW 5211   4.478   9.320   4.708
 1105SOL    HW1 5212   4.553   9.344   4.654
 1105SOL    HW2 5213   4.502   9.348   4.796
 1106SOL     OW 5214   5.825  13.918   3.337
 1106SOL    HW1 5215   5.808  13.870   3.256
 1106SOL    HW2 5216   5.781  14.002   3.325
 1107SOL     OW 5217   4.079   2.304  11.401
 1107SOL    HW1 5218   4.136   2.258  11.338
 1107SOL    HW2 5219   4.038   2.373  11.349
 1108SOL     OW 5220  12.982  11.512   6.550
 1108SOL    HW1 5221  12.889  11.533   6.542
 1108SOL    HW2 5222  12.999  11.449   6.480
 1109SOL     OW 5223   5.304  10.857   7.665
 1109SOL    HW1 5224   5.314  10.944   7.628
 1109SOL    HW2 5225   5.353  10.800   7.607
 1110SOL     OW 5226  13.412   6.242   6.562
 1110SOL    HW1 5227  13.338   6.234   6.622
 1110SOL    HW2 5228  13.403   6.329   6.525
 1111SOL     OW 5229  12.041   3.516  12.379
 1111SOL    HW1 5230  12.110   3.561  12.330
 1111SOL    HW2 5231  12.086   3.484  12.458
 1112SOL     OW 5232   6.184   2.463   4.369
 1112SOL    HW1 5233   6.201   2.467   4.275
 1112SOL    HW2 5234   6.185   2.554   4.399
 1113SOL     OW 5235   6.058   3.678   4.422
 1113SOL    HW1 5236   6.016   3.630   4.494
 1113SOL    HW2 5237   5.985   3.712   4.371
 1114SOL     OW 5238  13.569  13.564   2.044
 1114SOL    HW1 5239  13.598  13.655   2.049
 1114SOL    HW2 5240  13.649  13.514   2.029
 1115SOL     OW 5241  13.727  13.431  12.552
 1115SOL    HW1 5242  13.731  13.500  12.619
 1115SOL    HW2 5243  13.813  13.432  12.512
 1116SOL     OW 5244  11.292   2.775  14.283
 1116SOL    HW1 5245  11.307   2.858  14.327
 1116SOL    HW2 5246  11.372   2.760  14.231
 1117SOL     OW 5247   9.686  12.837   8.346
 1117SOL    HW1 5248   9.649  12.876   8.425
 1117SOL    HW2 5249   9.625  12.768   8.322
 1118SOL     OW 5250   6.696   1.266  12.855
 1118SOL    HW1 5251   6.754   1.324  12.805
 1118SOL    HW2 5252   6.609   1.281  12.818
 1119SOL     OW 5253   5.553   1.189   3.574
 1119SOL    HW1 5254   5.576   1.119   3.513
 1119SOL    HW2 5255   5.605   1.170   3.652
 1120SOL     OW 5256  10.889   5.406   9.148
 1120SOL    HW1 5257  10.915   5.479   9.092
 1120SOL    HW2 5258  10.837   5.350   9.090
 1121SOL     OW 5259   2.098   5.354  11.337
 1121SOL    HW1 5260   2.116   5.261  11.352
 1121SOL    HW2 5261   2.071   5.387  11.422
 1122SOL     OW 5262   7.261   4.301   0.511
 1122SOL    HW1 5263   7.209   4.335   0.584
 1122SOL    HW2 5264   7.223   4.341   0.433
 1123SOL     OW 5265   5.803  10.262   1.721
 1123SOL    HW1 5266   5.896  10.239   1.729
 1123SOL    HW2 5267   5.782  10.306   1.804
 1124SOL     OW 5268   6.669   6.227   2.083
 1124SOL    HW1 5269   6.597   6.166   2.100
 1124SOL    HW2 5270   6.667   6.239   1.988
 1125SOL     OW 5271  12.192   7.470  12.743
 1125SOL    HW1 5272  12.148   7.445  12.661
 1125SOL    HW2 5273  12.165   7.403  12.806
 1126SOL     OW 5274   9.963  14.005  10.825
 1126SOL    HW1 5275   9.883  14.023  10.875
 1126SOL    HW2 5276   9.984  14.088  10.783
 1127SOL     OW 5277  12.666  13.986   2.268
 1127SOL    HW1 5278  12.735  13.919   2.266
 1127SOL    HW2 5279  12.588  13.938   2.298
 1128SOL     OW 5280   9.546  14.699  13.634
 1128SOL    HW1 5281   9.550  14.605  13.655
 1128SOL    HW2 5282   9.482  14.734  13.696
 1129SOL     OW 5283   3.922   7.022   1.869
 1129SOL    HW1 5284   3.955   6.942   1.829
 1129SOL    HW2 5285   3.959   7.021   1.957
 1130SOL     OW 5286   6.883   8.016  10.280
 1130SOL    HW1 5287   6.856   8.012  10.188
 1130SOL    HW2 5288   6.805   7.990  10.329
 1131SOL     OW 5289  11.158  12.722  14.374
 1131SOL    HW1 5290  11.148  12.661  14.447
 1131SOL    HW2 5291  11.156  12.809  14.414
 1132SOL     OW 5292   5.208   5.827   8.838
 1132SOL    HW1 5293   5.161   5.883   8.899
 1132SOL    HW2 5294   5.298   5.859   8.841
 1133SOL     OW 5295   1.581   3.920  13.782
 1133SOL    HW1 5296   1.550   4.009  13.764
 1133SOL    HW2 5297   1.508   3.864  13.757
 1134SOL     OW 5298  11.667   2.699   5.978
 1134SOL    HW1 5299  11.700   2.772   5.926
 1134SOL    HW2 5300  11.722   2.625   5.952
 1135SOL     OW 5301  12.123   5.892  11.905
 1135SOL    HW1 5302  12.204   5.935  11.880
 1135SOL    HW2 5303  12.064   5.963  11.931
 1136SOL     OW 5304  10.800  11.936   4.276
 1136SOL    HW1 5305  10.871  11.992   4.244
 1136SOL    HW2 5306  10.763  11.985   4.350
 1137SOL     OW 5307  10.443   2.844  12.711
 1137SOL    HW1 5308  10.357   2.886  12.715
 1137SOL    HW2 5309  10.503   2.909  12.749
 1138SOL     OW 5310   8.635  12.728   6.120
 1138SOL    HW1 5311   8.670  12.813   6.094
 1138SOL    HW2 5312   8.627  12.734   6.215
 1139SOL     OW 5313   8.352   8.462  11.794
 1139SOL    HW1 5314   8.398   8.389  11.836
 1139SOL    HW2 5315   8.351   8.530  11.861
 1140SOL     OW 5316   6.110   0.348  10.955
 1140SOL    HW1 5317   6.095   0.443  10.953
 1140SOL    HW2 5318   6.090   0.323  11.045
 1141SOL     OW 5319   3.951   4.333  10.184
 1141SOL    HW1 5320   3.981   4.395  10.251
 1141SOL    HW2 5321   3.933   4.388  10.108
 1142SOL     OW 5322  10.369   0.044  10.481
 1142SOL    HW1 5323  10.452  14.870  10.471
 1142SOL    HW2 5324  10.311  14.851  10.522
 1143SOL     OW 5325  14.135   4.759   2.802
 1143SOL    HW1 5326  14.230   4.747   2.802
 1143SOL    HW2 5327  14.124   4.854   2.814
 1144SOL     OW 5328   2.387   2.974  13.156
 1144SOL    HW1 5329   2.302   3.012  13.134
 1144SOL    HW2 5330   2.394   2.897  13.100
 1145SOL     OW 5331  10.646   4.350   7.486
 1145SOL    HW1 5332  10.588   4.303   7.426
 1145SOL    HW2 5333  10.611   4.439   7.489
 1146SOL     OW 5334   2.901   5.216   7.859
 1146SOL    HW1 5335   2.862   5.203   7.946
 1146SOL    HW2 5336   2.901   5.129   7.820
 1147SOL     OW 5337   0.603   6.703  10.454
 1147SOL    HW1 5338   0.636   6.692  10.543
 1147SOL    HW2 5339   0.527   6.647  10.449
 1148SOL     OW 5340   9.168   7.838   2.878
 1148SOL    HW1 5341   9.127   7.887   2.806
 1148SOL    HW2 5342   9.097   7.784   2.913
 1149SOL     OW 5343  14.467   1.894  14.131
 1149SOL    HW1 5344  14.425   1.812  14.107
 1149SOL    HW2 5345  14.526   1.872  14.203
 1150SOL     OW 5346  12.140  13.621   4.517
 1150SOL    HW1 5347  12.191  13.675   4.457
 1150SOL    HW2 5348  12.204  13.591   4.582
 1151SOL     OW 5349   2.271  13.822   6.552
 1151SOL    HW1 5350   2.247  13.884   6.483
 1151SOL    HW2 5351   2.285  13.739   6.507
 1152SOL     OW 5352   7.717   4.130  14.037
 1152SOL    HW1 5353   7.692   4.111  14.127
 1152SOL    HW2 5354   7.635   4.155  13.994
 1153SOL     OW 5355   1.341   7.442  11.762
 1153SOL    HW1 5356   1.383   7.506  11.704
 1153SOL    HW2 5357   1.286   7.390  11.704
 1154SOL     OW 5358   8.353   2.144   8.562
 1154SOL    HW1 5359   8.384   2.168   8.475
 1154SOL    HW2 5360   8.278   2.088   8.546
 1155SOL     OW 5361  13.709   3.772   5.633
 1155SOL    HW1 5362  13.664   3.781   5.548
 1155SOL    HW2 5363  13.682   3.849   5.682
 1156SOL     OW 5364   3.889   8.967   6.217
 1156SOL    HW1 5365   3.829   8.984   6.290
 1156SOL    HW2 5366   3.964   9.025   6.233
 1157SOL     OW 5367   3.208  11.403   1.270
 1157SOL    HW1 5368   3.202  11.449   1.187
 1157SOL    HW2 5369   3.167  11.462   1.333
 1158SOL     OW 5370  13.012  12.701  14.827
 1158SOL    HW1 5371  13.008  12.643   0.031
 1158SOL    HW2 5372  12.980  12.647  14.755
 1159SOL     OW 5373   5.052   9.904   2.539
 1159SOL    HW1 5374   4.961   9.918   2.512
 1159SOL    HW2 5375   5.104   9.930   2.463
 1160SOL     OW 5376   5.810   1.960   7.945
 1160SOL    HW1 5377   5.901   1.952   7.973
 1160SOL    HW2 5378   5.759   1.951   8.025
 1161SOL     OW 5379   8.435  10.411   8.527
 1161SOL    HW1 5380   8.470  10.472   8.592
 1161SOL    HW2 5381   8.485  10.430   8.447
 1162SOL     OW 5382   4.433   4.343   4.886
 1162SOL    HW1 5383   4.340   4.330   4.908
 1162SOL    HW2 5384   4.474   4.368   4.969
 1163SOL     OW 5385   1.559   0.696   0.843
 1163SOL    HW1 5386   1.586   0.710   0.934
 1163SOL    HW2 5387   1.482   0.751   0.832
 1164SOL     OW 5388  14.395  11.676  14.444
 1164SOL    HW1 5389  14.445  11.723  14.510
 1164SOL    HW2 5390  14.431  11.587  14.445
 1165SOL     OW 5391  14.799   1.486   3.972
 1165SOL    HW1 5392  14.854   1.561   3.950
 1165SOL    HW2 5393  14.737   1.520   4.037
 1166SOL     OW 5394   9.074  10.733  13.119
 1166SOL    HW1 5395   9.005  10.791  13.151
 1166SOL    HW2 5396   9.151  10.788  13.113
 1167SOL     OW 5397   9.939   7.893  14.427
 1167SOL    HW1 5398   9.982   7.911  14.343
 1167SOL    HW2 5399   9.933   7.978  14.470
 1168SOL     OW 5400  10.423   5.753   5.243
 1168SOL    HW1 5401  10.512   5.765   5.277
 1168SOL    HW2 5402  10.400   5.663   5.264
 1169SOL     OW 5403   7.761   9.513   1.220
 1169SOL    HW1 5404   7.700   9.584   1.199
 1169SOL    HW2 5405   7.846   9.555   1.227
 1170SOL     OW 5406   8.580  14.153   3.489
 1170SOL    HW1 5407   8.545  14.158   3.400
 1170SOL    HW2 5408   8.514  14.196   3.543
 1171SOL     OW 5409  10.705   8.741   6.052
 1171SOL    HW1 5410  10.664   8.778   6.130
 1171SOL    HW2 5411  10.731   8.817   6.000
 1172SOL     OW 5412   3.571   7.973  11.516
 1172SOL    HW1 5413   3.548   7.918  11.441
 1172SOL    HW2 5414   3.516   8.051  11.507
 1173SOL     OW 5415  11.362   5.669   3.624
 1173SOL    HW1 5416  11.305   5.724   3.570
 1173SOL    HW2 5417  11.442   5.720   3.635
 1174SOL     OW 5418  12.234  10.417   0.496
 1174SOL    HW1 5419  12.168  10.386   0.558
 1174SOL    HW2 5420  12.318  10.392   0.537
 1175SOL     OW 5421   1.880   8.484   2.785
 1175SOL    HW1 5422   1.833   8.567   2.789
 1175SOL    HW2 5423   1.821   8.421   2.826
 1176SOL     OW 5424  10.286  11.981   7.639
 1176SOL    HW1 5425  10.255  12.058   7.591
 1176SOL    HW2 5426  10.295  11.913   7.572
 1177SOL     OW 5427  11.005   4.232   1.753
 1177SOL    HW1 5428  11.022   4.162   1.691
 1177SOL    HW2 5429  10.924   4.206   1.798
 1178SOL     OW 5430   8.839   6.109  12.898
 1178SOL    HW1 5431   8.915   6.151  12.858
 1178SOL    HW2 5432   8.776   6.102  12.827
 1179SOL     OW 5433   9.789   4.661  12.060
 1179SOL    HW1 5434   9.851   4.627  11.996
 1179SOL    HW2 5435   9.778   4.590  12.124
 1180SOL     OW 5436   8.090   7.358  11.054
 1180SOL    HW1 5437   8.055   7.432  11.104
 1180SOL    HW2 5438   8.033   7.352  10.978
 1181SOL     OW 5439   5.556  11.146   3.200
 1181SOL    HW1 5440   5.619  11.081   3.231
 1181SOL    HW2 5441   5.524  11.111   3.117
 1182SOL     OW 5442   2.048   6.906   9.347
 1182SOL    HW1 5443   2.114   6.865   9.292
 1182SOL    HW2 5444   1.967   6.858   9.330
 1183SOL     OW 5445   5.253  11.932   3.764
 1183SOL    HW1 5446   5.212  12.008   3.722
 1183SOL    HW2 5447   5.307  11.893   3.696
 1184SOL     OW 5448  10.615  11.559   4.140
 1184SOL    HW1 5449  10.543  11.563   4.203
 1184SOL    HW2 5450  10.654  11.472   4.153
 1185SOL     OW 5451   3.647   7.033   8.913
 1185SOL    HW1 5452   3.725   7.086   8.893
 1185SOL    HW2 5453   3.586   7.095   8.954
 1186SOL     OW 5454   9.642  14.387   1.836
 1186SOL    HW1 5455   9.649  14.319   1.768
 1186SOL    HW2 5456   9.733  14.401   1.865
 1187SOL     OW 5457  12.181  11.847   5.344
 1187SOL    HW1 5458  12.267  11.879   5.371
 1187SOL    HW2 5459  12.126  11.856   5.422
 1188SOL     OW 5460   4.043   2.409   6.142
 1188SOL    HW1 5461   4.057   2.377   6.052
 1188SOL    HW2 5462   3.964   2.362   6.171
 1189SOL     OW 5463   7.399   6.739  13.507
 1189SOL    HW1 5464   7.434   6.762  13.422
 1189SOL    HW2 5465   7.474   6.709  13.557
 1190SOL     OW 5466   2.291   7.204   7.828
 1190SOL    HW1 5467   2.225   7.254   7.877
 1190SOL    HW2 5468   2.340   7.270   7.780
 1191SOL     OW 5469   9.661   3.833   2.135
 1191SOL    HW1 5470   9.714   3.755   2.156
 1191SOL    HW2 5471   9.608   3.806   2.060
 1192SOL     OW 5472   8.021   9.462   1.606
 1192SOL    HW1 5473   8.070   9.413   1.539
 1192SOL    HW2 5474   7.996   9.396   1.671
 1193SOL     OW 5475   0.014  11.738   0.357
 1193SOL    HW1 5476  14.816  11.790   0.319
 1193SOL    HW2 5477   0.094  11.783   0.333
 1194SOL     OW 5478  13.236   3.438   2.860
 1194SOL    HW1 5479  13.252   3.449   2.953
 1194SOL    HW2 5480  13.203   3.349   2.851
 1195SOL     OW 5481   8.851  12.025   3.561
 1195SOL    HW1 5482   8.836  12.078   3.640
 1195SOL    HW2 5483   8.848  11.935   3.591
 1196SOL     OW 5484  12.572  11.102   5.566
 1196SOL    HW1 5485  12.585  11.148   5.483
 1196SOL    HW2 5486  12.490  11.054   5.555
 1197SOL     OW 5487   4.729   7.063   0.801
 1197SOL    HW1 5488   4.770   6.978   0.820
 1197SOL    HW2 5489   4.640   7.041   0.774
 1198SOL     OW 5490   6.875   5.398  13.415
 1198SOL    HW1 5491   6.828   5.404  13.331
 1198SOL    HW2 5492   6.837   5.466  13.469
 1199SOL     OW 5493   5.935   4.913   3.779
 1199SOL    HW1 5494   5.945   5.006   3.756
 1199SOL    HW2 5495   5.881   4.914   3.858
 1200SOL     OW 5496  11.675  12.852  14.573
 1200SOL    HW1 5497  11.756  12.806  14.597
 1200SOL    HW2 5498  11.702  12.943  14.563
 1201SOL     OW 5499   8.415   5.094   1.769
 1201SOL    HW1 5500   8.351   5.160   1.742
 1201SOL    HW2 5501   8.386   5.066   1.856
 1202SOL     OW 5502   5.294  12.808  13.833
 1202SOL    HW1 5503   5.200  12.814  13.819
 1202SOL    HW2 5504   5.304  12.755  13.912
 1203SOL     OW 5505   0.251  11.076   8.041
 1203SOL    HW1 5506   0.188  11.071   7.970
 1203SOL    HW2 5507   0.202  11.113   8.114
 1204SOL     OW 5508  13.919   3.785   2.940
 1204SOL    HW1 5509  14.003   3.754   2.905
 1204SOL    HW2 5510  13.891   3.717   3.001
 1205SOL     OW 5511   4.975   9.841   7.640
 1205SOL    HW1 5512   5.027   9.878   7.711
 1205SOL    HW2 5513   5.039   9.803   7.580
 1206SOL     OW 5514   7.411  13.562   0.519
 1206SOL    HW1 5515   7.366  13.636   0.481
 1206SOL    HW2 5516   7.397  13.490   0.457
 1207SOL     OW 5517  12.308   2.621  14.704
 1207SOL    HW1 5518  12.275   2.536  14.733
 1207SOL    HW2 5519  12.403   2.615  14.713
 1208SOL     OW 5520   3.642   9.059  12.423
 1208SOL    HW1 5521   3.706   9.118  12.463
 1208SOL    HW2 5522   3.557   9.097  12.447
 1209SOL     OW 5523   2.408   9.541   0.598
 1209SOL    HW1 5524   2.337   9.540   0.534
 1209SOL    HW2 5525   2.372   9.587   0.674
 1210SOL     OW 5526   4.937   1.684  11.018
 1210SOL    HW1 5527   4.915   1.723  11.103
 1210SOL    HW2 5528   4.888   1.602  11.016
 1211SOL     OW 5529   1.115  12.472   3.334
 1211SOL    HW1 5530   1.119  12.515   3.248
 1211SOL    HW2 5531   1.137  12.381   3.316
 1212SOL     OW 5532  12.022  14.002   0.778
 1212SOL    HW1 5533  12.076  14.080   0.793
 1212SOL    HW2 5534  12.037  13.947   0.855
 1213SOL     OW 5535   7.325  10.940  10.193
 1213SOL    HW1 5536   7.318  10.976  10.281
 1213SOL    HW2 5537   7.246  10.887  10.181
 1214SOL     OW 5538   3.508   6.218   6.769
 1214SOL    HW1 5539   3.575   6.186   6.709
 1214SOL    HW2 5540   3.508   6.313   6.756
 1215SOL     OW 5541   7.681  14.072  13.511
 1215SOL    HW1 5542   7.729  14.072  13.593
 1215SOL    HW2 5543   7.706  14.154  13.468
 1216SOL     OW 5544  11.494   2.861  12.544
 1216SOL    HW1 5545  11.470   2.801  12.615
 1216SOL    HW2 5546  11.576   2.826  12.509
 1217SOL     OW 5547  11.346  11.440   4.390
 1217SOL    HW1 5548  11.287  11.406   4.457
 1217SOL    HW2 5549  11.370  11.364   4.338
 1218SOL     OW 5550   2.862   0.708   2.521
 1218SOL    HW1 5551   2.941   0.658   2.542
 1218SOL    HW2 5552   2.880   0.796   2.555
 1219SOL     OW 5553   1.585  12.512   7.954
 1219SOL    HW1 5554   1.681  12.516   7.961
 1219SOL    HW2 5555   1.569  12.481   7.865
 1220SOL     OW 5556   5.089   7.800   4.260
 1220SOL    HW1 5557   5.143   7.722   4.276
 1220SOL    HW2 5558   5.128   7.868   4.314
 1221SOL     OW 5559   5.063  11.500   3.419
 1221SOL    HW1 5560   4.973  11.476   3.443
 1221SOL    HW2 5561   5.087  11.567   3.483
 1222SOL     OW 5562  13.115   8.343   4.336
 1222SOL    HW1 5563  13.091   8.435   4.351
 1222SOL    HW2 5564  13.036   8.294   4.361
 1223SOL     OW 5565   8.575  13.464   3.862
 1223SOL    HW1 5566   8.527  13.540   3.826
 1223SOL    HW2 5567   8.510  13.419   3.916
 1224SOL     OW 5568  12.601   0.212   2.975
 1224SOL    HW1 5569  12.578   0.139   3.032
 1224SOL    HW2 5570  12.520   0.262   2.966
 1225SOL     OW 5571   3.487   4.302   5.922
 1225SOL    HW1 5572   3.461   4.321   6.012
 1225SOL    HW2 5573   3.465   4.381   5.873
 1226SOL     OW 5574   2.331   4.652   7.347
 1226SOL    HW1 5575   2.343   4.693   7.432
 1226SOL    HW2 5576   2.256   4.594   7.358
 1227SOL     OW 5577   7.382  10.988   8.214
 1227SOL    HW1 5578   7.352  10.995   8.305
 1227SOL    HW2 5579   7.415  10.898   8.207
 1228SOL     OW 5580   5.231   5.592   3.208
 1228SOL    HW1 5581   5.210   5.640   3.288
 1228SOL    HW2 5582   5.276   5.656   3.153
 1229SOL     OW 5583  12.584  10.338   8.509
 1229SOL    HW1 5584  12.509  10.397   8.506
 1229SOL    HW2 5585  12.656  10.389   8.473
 1230SOL     OW 5586   1.189  12.203   4.484
 1230SOL    HW1 5587   1.104  12.186   4.524
 1230SOL    HW2 5588   1.240  12.124   4.500
 1231SOL     OW 5589   7.626  10.741   6.709
 1231SOL    HW1 5590   7.576  10.722   6.630
 1231SOL    HW2 5591   7.605  10.832   6.730
 1232SOL     OW 5592   6.662   2.294   5.775
 1232SOL    HW1 5593   6.732   2.356   5.796
 1232SOL    HW2 5594   6.655   2.297   5.680
 1233SOL     OW 5595  13.870   8.794   3.941
 1233SOL    HW1 5596  13.822   8.713   3.960
 1233SOL    HW2 5597  13.801   8.859   3.929
 1234SOL     OW 5598  13.059   4.855   0.959
 1234SOL    HW1 5599  13.088   4.927   0.904
 1234SOL    HW2 5600  13.014   4.796   0.899
 1235SOL     OW 5601  10.876  12.011  12.802
 1235SOL    HW1 5602  10.969  11.989  12.799
 1235SOL    HW2 5603  10.859  12.031  12.894
 1236SOL     OW 5604   7.309   5.258   0.736
 1236SOL    HW1 5605   7.244   5.240   0.668
 1236SOL    HW2 5606   7.365   5.181   0.738
 1237SOL     OW 5607  10.809   9.382   5.758
 1237SOL    HW1 5608  10.726   9.344   5.788
 1237SOL    HW2 5609  10.785   9.434   5.681
 1238SOL     OW 5610  10.086   3.306   2.444
 1238SOL    HW1 5611  10.040   3.222   2.434
 1238SOL    HW2 5612  10.103   3.335   2.355
 1239SOL     OW 5613   7.522  12.133  11.535
 1239SOL    HW1 5614   7.565  12.147  11.620
 1239SOL    HW2 5615   7.474  12.052  11.546
 1240SOL     OW 5616  14.771   3.768   1.942
 1240SOL    HW1 5617  14.827   3.751   1.866
 1240SOL    HW2 5618  14.801   3.854   1.973
 1241SOL     OW 5619   8.962   4.202   2.729
 1241SOL    HW1 5620   8.891   4.266   2.739
 1241SOL    HW2 5621   8.941   4.133   2.792
 1242SOL     OW 5622   4.543   9.730   8.510
 1242SOL    HW1 5623   4.579   9.816   8.535
 1242SOL    HW2 5624   4.535   9.734   8.415
 1243SOL     OW 5625   2.259   2.366   8.535
 1243SOL    HW1 5626   2.178   2.343   8.490
 1243SOL    HW2 5627   2.328   2.330   8.479
 1244SOL     OW 5628   6.237  12.698  13.848
 1244SOL    HW1 5629   6.187  12.767  13.804
 1244SOL    HW2 5630   6.312  12.743  13.887
 1245SOL     OW 5631   4.047   8.183   6.710
 1245SOL    HW1 5632   3.955   8.155   6.705
 1245SOL    HW2 5633   4.042   8.271   6.748
 1246SOL     OW 5634   1.036   1.699   0.127
 1246SOL    HW1 5635   1.111   1.721   0.181
 1246SOL    HW2 5636   0.990   1.782   0.115
 1247SOL     OW 5637   8.577   5.845   7.491
 1247SOL    HW1 5638   8.634   5.809   7.558
 1247SOL    HW2 5639   8.599   5.939   7.489
 1248SOL     OW 5640   8.212   7.369  11.807
 1248SOL    HW1 5641   8.195   7.289  11.857
 1248SOL    HW2 5642   8.221   7.437  11.874
 1249SOL     OW 5643   2.325   7.378   4.865
 1249SOL    HW1 5644   2.255   7.406   4.925
 1249SOL    HW2 5645   2.373   7.459   4.846
 1250SOL     OW 5646   2.559  14.847   1.323
 1250SOL    HW1 5647   2.609   0.023   1.256
 1250SOL    HW2 5648   2.595  14.759   1.322
 1251SOL     OW 5649  14.423   1.296   5.831
 1251SOL    HW1 5650  14.399   1.282   5.739
 1251SOL    HW2 5651  14.427   1.391   5.841
 1252SOL     OW 5652   6.204   0.397   9.589
 1252SOL    HW1 5653   6.253   0.474   9.559
 1252SOL    HW2 5654   6.239   0.324   9.537
 1253SOL     OW 5655   2.630  10.690  13.749
 1253SOL    HW1 5656   2.544  10.698  13.708
 1253SOL    HW2 5657   2.636  10.599  13.776
 1254SOL     OW 5658   9.625   1.419   3.266
 1254SOL    HW1 5659   9.539   1.434   3.228
 1254SOL    HW2 5660   9.637   1.491   3.327
 1255SOL     OW 5661   3.642  10.561  14.239
 1255SOL    HW1 5662   3.645  10.618  14.162
 1255SOL    HW2 5663   3.728  10.519  14.241
 1256SOL     OW 5664   1.637   6.769  14.006
 1256SOL    HW1 5665   1.638   6.842  13.944
 1256SOL    HW2 5666   1.632   6.691  13.952
 1257SOL     OW 5667  12.596   4.078  13.432
 1257SOL    HW1 5668  12.552   4.100  13.350
 1257SOL    HW2 5669  12.524   4.063  13.494
 1258SOL     OW 5670   7.260  11.624   4.486
 1258SOL    HW1 5671   7.165  11.630   4.474
 1258SOL    HW2 5672   7.294  11.599   4.400
 1259SOL     OW 5673   7.952   6.613   9.406
 1259SOL    HW1 5674   7.989   6.677   9.468
 1259SOL    HW2 5675   7.865   6.648   9.386
 1260SOL     OW 5676   9.746   7.448   2.010
 1260SOL    HW1 5677   9.732   7.360   2.044
 1260SOL    HW2 5678   9.702   7.506   2.073
 1261SOL     OW 5679   2.144   6.530   4.737
 1261SOL    HW1 5680   2.111   6.592   4.672
 1261SOL    HW2 5681   2.148   6.580   4.818
 1262SOL     OW 5682   0.948   0.077  14.807
 1262SOL    HW1 5683   0.909   0.164  14.814
 1262SOL    HW2 5684   1.040   0.090  14.830
 1263SOL     OW 5685  14.292   9.034   3.161
 1263SOL    HW1 5686  14.383   9.055   3.143
 1263SOL    HW2 5687  14.261   8.987   3.084
 1264SOL     OW 5688  14.692   4.419   9.843
 1264SOL    HW1 5689  14.744   4.481   9.793
 1264SOL    HW2 5690  14.612   4.467   9.866
 1265SOL     OW 5691  14.589   4.301   1.762
 1265SOL    HW1 5692  14.626   4.351   1.690
 1265SOL    HW2 5693  14.505   4.343   1.779
 1266SOL     OW 5694  10.593   4.282   9.736
 1266SOL    HW1 5695  10.658   4.232   9.786
 1266SOL    HW2 5696  10.637   4.365   9.715
 1267SOL     OW 5697   9.662   0.602  13.025
 1267SOL    HW1 5698   9.627   0.516  13.045
 1267SOL    HW2 5699   9.689   0.597  12.934
 1268SOL     OW 5700   4.257   1.002   5.585
 1268SOL    HW1 5701   4.330   0.941   5.579
 1268SOL    HW2 5702   4.189   0.965   5.528
 1269SOL     OW 5703  12.860   5.068   1.484
 1269SOL    HW1 5704  12.789   5.007   1.467
 1269SOL    HW2 5705  12.853   5.134   1.415
 1270SOL     OW 5706   8.631   3.514   4.206
 1270SOL    HW1 5707   8.649   3.424   4.180
 1270SOL    HW2 5708   8.538   3.527   4.188
 1271SOL     OW 5709   1.342  11.027   2.458
 1271SOL    HW1 5710   1.361  10.948   2.509
 1271SOL    HW2 5711   1.417  11.035   2.398
 1272SOL     OW 5712   2.385  13.705  11.599
 1272SOL    HW1 5713   2.331  13.759  11.657
 1272SOL    HW2 5714   2.324  13.673  11.533
 1273SOL     OW 5715   5.653  11.599  13.428
 1273SOL    HW1 5716   5.685  11.688  13.441
 1273SOL    HW2 5717   5.616  11.574  13.513
 1274SOL     OW 5718   2.224   8.568  11.016
 1274SOL    HW1 5719   2.308   8.538  11.049
 1274SOL    HW2 5720   2.220   8.660  11.041
 1275SOL     OW 5721   3.917   8.042   4.393
 1275SOL    HW1 5722   3.994   7.986   4.384
 1275SOL    HW2 5723   3.922   8.103   4.319
 1276SOL     OW 5724   0.113  12.736   1.779
 1276SOL    HW1 5725   0.084  12.774   1.862
 1276SOL    HW2 5726   0.208  12.732   1.787
 1277SOL     OW 5727  12.160   8.427   5.053
 1277SOL    HW1 5728  12.180   8.347   5.006
 1277SOL    HW2 5729  12.244   8.472   5.061
 1278SOL     OW 5730   0.140  13.733   3.035
 1278SOL    HW1 5731   0.047  13.715   3.020
 1278SOL    HW2 5732   0.147  13.828   3.029
 1279SOL     OW 5733   5.729   4.799  12.481
 1279SOL    HW1 5734   5.676   4.746  12.541
 1279SOL    HW2 5735   5.687   4.885  12.483
 1280SOL     OW 5736   6.123   2.787   0.125
 1280SOL    HW1 5737   6.204   2.761   0.169
 1280SOL    HW2 5738   6.057   2.727   0.158
 1281SOL     OW 5739   7.541  11.013   9.832
 1281SOL    HW1 5740   7.617  11.000   9.889
 1281SOL    HW2 5741   7.559  10.960   9.755
 1282SOL     OW 5742   5.084   4.906   5.463
 1282SOL    HW1 5743   5.106   4.908   5.370
 1282SOL    HW2 5744   5.050   4.994   5.481
 1283SOL     OW 5745   9.817  10.862   1.385
 1283SOL    HW1 5746   9.906  10.896   1.381
 1283SOL    HW2 5747   9.824  10.782   1.436
 1284SOL     OW 5748   2.882   3.336   0.915
 1284SOL    HW1 5749   2.903   3.257   0.966
 1284SOL    HW2 5750   2.812   3.378   0.966
 1285SOL     OW 5751   0.973   9.043   4.443
 1285SOL    HW1 5752   1.039   9.106   4.471
 1285SOL    HW2 5753   0.908   9.045   4.514
 1286SOL     OW 5754   6.268   3.238   5.214
 1286SOL    HW1 5755   6.180   3.208   5.232
 1286SOL    HW2 5756   6.262   3.334   5.214
 1287SOL     OW 5757  14.053   9.845  11.516
 1287SOL    HW1 5758  14.146   9.825  11.531
 1287SOL    HW2 5759  14.014   9.845  11.603
 1288SOL     OW 5760   6.326   9.211   2.936
 1288SOL    HW1 5761   6.361   9.122   2.936
 1288SOL    HW2 5762   6.235   9.200   2.961
 1289SOL     OW 5763   2.167   6.229   8.847
 1289SOL    HW1 5764   2.255   6.256   8.871
 1289SOL    HW2 5765   2.110   6.290   8.893
 1290SOL     OW 5766   1.029   8.291  13.848
 1290SOL    HW1 5767   1.050   8.354  13.779
 1290SOL    HW2 5768   1.101   8.298  13.910
 1291SOL     OW 5769   3.809   0.150   2.210
 1291SOL    HW1 5770   3.893   0.120   2.245
 1291SOL    HW2 5771   3.822   0.244   2.193
 1292SOL     OW 5772  14.127  13.761   9.521
 1292SOL    HW1 5773  14.151  13.798   9.605
 1292SOL    HW2 5774  14.118  13.836   9.462
 1293SOL     OW 5775   4.703  14.808  14.175
 1293SOL    HW1 5776   4.634  14.777  14.234
 1293SOL    HW2 5777   4.759  14.731  14.160
 1294SOL     OW 5778  11.150   4.721  13.148
 1294SOL    HW1 5779  11.059   4.706  13.175
 1294SOL    HW2 5780  11.158   4.674  13.065
 1295SOL     OW 5781   7.250   3.952   8.624
 1295SOL    HW1 5782   7.263   3.885   8.557
 1295SOL    HW2 5783   7.278   3.911   8.706
 1296SOL     OW 5784   9.738   0.509   0.860
 1296SOL    HW1 5785   9.691   0.585   0.894
 1296SOL    HW2 5786   9.828   0.522   0.889
 1297SOL     OW 5787   3.513   1.204   6.577
 1297SOL    HW1 5788   3.569   1.153   6.636
 1297SOL    HW2 5789   3.573   1.239   6.511
 1298SOL     OW 5790   5.709  13.082   5.972
 1298SOL    HW1 5791   5.636  13.067   6.032
 1298SOL    HW2 5792   5.784  13.039   6.013
 1299SOL     OW 5793   2.571   5.221   4.734
 1299SOL    HW1 5794   2.580   5.126   4.727
 1299SOL    HW2 5795   2.587   5.254   4.645
 1300SOL     OW 5796   4.359   9.485  11.218
 1300SOL    HW1 5797   4.390   9.457  11.304
 1300SOL    HW2 5798   4.353   9.405  11.167
 1301SOL     OW 5799   2.952  14.443   1.230
 1301SOL    HW1 5800   3.047  14.450   1.219
 1301SOL    HW2 5801   2.930  14.356   1.198
 1302SOL     OW 5802   1.422   7.389   8.973
 1302SOL    HW1 5803   1.330   7.361   8.966
 1302SOL    HW2 5804   1.444   7.375   9.065
 1303SOL     OW 5805  10.881  13.106   0.733
 1303SOL    HW1 5806  10.884  13.041   0.803
 1303SOL    HW2 5807  10.972  13.115   0.705
 1304SOL     OW 5808   3.738   1.801  10.774
 1304SOL    HW1 5809   3.747   1.719  10.727
 1304SOL    HW2 5810   3.733   1.776  10.866
 1305SOL     OW 5811   8.260   3.973   9.435
 1305SOL    HW1 5812   8.168   3.965   9.457
 1305SOL    HW2 5813   8.263   3.964   9.340
 1306SOL     OW 5814   1.172   8.776   7.029
 1306SOL    HW1 5815   1.167   8.782   7.124
 1306SOL    HW2 5816   1.165   8.683   7.010
 1307SOL     OW 5817  11.029   6.768  11.285
 1307SOL    HW1 5818  10.996   6.680  11.301
 1307SOL    HW2 5819  11.029   6.810  11.372
 1308SOL     OW 5820   5.421   4.603   9.207
 1308SOL    HW1 5821   5.387   4.546   9.276
 1308SOL    HW2 5822   5.348   4.609   9.144
 1309SOL     OW 5823   4.248   2.582   3.114
 1309SOL    HW1 5824   4.269   2.503   3.164
 1309SOL    HW2 5825   4.157   2.600   3.134
 1310SOL     OW 5826   1.051   0.081  13.932
 1310SOL    HW1 5827   1.043   0.039  14.017
 1310SOL    HW2 5828   1.101   0.161  13.950
 1311SOL     OW 5829   4.972   8.992   5.619
 1311SOL    HW1 5830   4.934   9.014   5.704
 1311SOL    HW2 5831   5.062   8.967   5.639
 1312SOL     OW 5832   9.512   5.448  11.572
 1312SOL    HW1 5833   9.446   5.380  11.561
 1312SOL    HW2 5834   9.467   5.529  11.550
 1313SOL     OW 5835   8.879   9.784   3.813
 1313SOL    HW1 5836   8.850   9.727   3.742
 1313SOL    HW2 5837   8.810   9.776   3.880
 1314SOL     OW 5838   4.346   2.334  12.753
 1314SOL    HW1 5839   4.354   2.407  12.692
 1314SOL    HW2 5840   4.305   2.371  12.831
 1315SOL     OW 5841   1.759  11.914   0.004
 1315SOL    HW1 5842   1.693  11.886  14.813
 1315SOL    HW2 5843   1.767  12.009  14.863
 1316SOL     OW 5844   1.667  13.986   3.338
 1316SOL    HW1 5845   1.700  13.897   3.334
 1316SOL    HW2 5846   1.638  14.005   3.248
 1317SOL     OW 5847  13.312   0.145   1.680
 1317SOL    HW1 5848  13.248   0.174   1.745
 1317SOL    HW2 5849  13.328   0.053   1.700
 1318SOL     OW 5850   2.537  11.533  11.016
 1318SOL    HW1 5851   2.487  11.605  10.976
 1318SOL    HW2 5852   2.471  11.484  11.065
 1319SOL     OW 5853   0.127   7.805   1.958
 1319SOL    HW1 5854   0.038   7.770   1.957
 1319SOL    HW2 5855   0.135   7.851   1.874
 1320SOL     OW 5856   3.312   3.916   6.640
 1320SOL    HW1 5857   3.401   3.909   6.606
 1320SOL    HW2 5858   3.322   3.902   6.735
 1321SOL     OW 5859  11.046   6.862   2.699
 1321SOL    HW1 5860  10.972   6.867   2.640
 1321SOL    HW2 5861  11.123   6.853   2.642
 1322SOL     OW 5862   7.297   7.113  13.877
 1322SOL    HW1 5863   7.368   7.132  13.815
 1322SOL    HW2 5864   7.242   7.049  13.831
 1323SOL     OW 5865   4.132   5.216  14.424
 1323SOL    HW1 5866   4.193   5.165  14.477
 1323SOL    HW2 5867   4.188   5.270  14.368
 1324SOL     OW 5868  12.765   8.507   6.962
 1324SOL    HW1 5869  12.695   8.565   6.992
 1324SOL    HW2 5870  12.721   8.447   6.902
 1325SOL     OW 5871   5.111   5.281   8.189
 1325SOL    HW1 5872   5.036   5.222   8.187
 1325SOL    HW2 5873   5.086   5.354   8.132
 1326SOL     OW 5874  11.126   8.887   0.442
 1326SOL    HW1 5875  11.185   8.813   0.453
 1326SOL    HW2 5876  11.078   8.891   0.525
 1327SOL     OW 5877   1.394  11.176   3.990
 1327SOL    HW1 5878   1.355  11.091   3.966
 1327SOL    HW2 5879   1.474  11.153   4.036
 1328SOL     OW 5880   3.907   3.298   9.950
 1328SOL    HW1 5881   3.950   3.282  10.034
 1328SOL    HW2 5882   3.964   3.360   9.905
 1329SOL     OW 5883  13.139   4.567  13.131
 1329SOL    HW1 5884  13.058   4.521  13.156
 1329SOL    HW2 5885  13.199   4.497  13.105
 1330SOL     OW 5886  12.559  10.821   1.372
 1330SOL    HW1 5887  12.602  10.855   1.294
 1330SOL    HW2 5888  12.565  10.726   1.363
 1331SOL     OW 5889   7.147   8.302  14.735
 1331SOL    HW1 5890   7.179   8.280  14.822
 1331SOL    HW2 5891   7.158   8.221  14.684
 1332SOL     OW 5892  10.211  14.398  13.777
 1332SOL    HW1 5893  10.190  14.359  13.862
 1332SOL    HW2 5894  10.305  14.416  13.782
 1333SOL     OW 5895   4.315   1.473  11.690
 1333SOL    HW1 5896   4.367   1.393  11.704
 1333SOL    HW2 5897   4.234   1.441  11.651
 1334SOL     OW 5898   7.176  14.863   4.912
 1334SOL    HW1 5899   7.195   0.059   4.847
 1334SOL    HW2 5900   7.249  14.869   4.974
 1335SOL     OW 5901   7.854   5.698   0.828
 1335SOL    HW1 5902   7.800   5.713   0.751
 1335SOL    HW2 5903   7.791   5.692   0.900
 1336SOL     OW 5904   0.690   7.131   2.899
 1336SOL    HW1 5905   0.645   7.123   2.984
 1336SOL    HW2 5906   0.783   7.134   2.921
 1337SOL     OW 5907  11.849   8.935  12.289
 1337SOL    HW1 5908  11.808   8.872  12.348
 1337SOL    HW2 5909  11.856   8.888  12.206
 1338SOL     OW 5910  10.122   1.372   8.619
 1338SOL    HW1 5911  10.174   1.355   8.541
 1338SOL    HW2 5912  10.186   1.393   8.687
 1339SOL     OW 5913  14.046   8.821   3.192
 1339SOL    HW1 5914  14.069   8.745   3.245
 1339SOL    HW2 5915  14.126   8.840   3.142
 1340SOL     OW 5916   5.967   2.093  11.277
 1340SOL    HW1 5917   5.956   2.000  11.256
 1340SOL    HW2 5918   5.878   2.122  11.299
 1341SOL     OW 5919   2.071   7.318  10.484
 1341SOL    HW1 5920   2.131   7.258  10.439
 1341SOL    HW2 5921   2.041   7.378  10.415
 1342SOL     OW 5922  11.716   0.088  13.426
 1342SOL    HW1 5923  11.810   0.098  13.407
 1342SOL    HW2 5924  11.708   0.107  13.519
 1343SOL     OW 5925   2.244   5.540   6.408
 1343SOL    HW1 5926   2.215   5.487   6.334
 1343SOL    HW2 5927   2.188   5.618   6.405
 1344SOL     OW 5928  12.499   3.384   5.563
 1344SOL    HW1 5929  12.560   3.437   5.512
 1344SOL    HW2 5930  12.448   3.337   5.497
 1345SOL     OW 5931   1.130   6.125   2.038
 1345SOL    HW1 5932   1.085   6.044   2.014
 1345SOL    HW2 5933   1.208   6.096   2.085
 1346SOL     OW 5934   9.716   3.224  11.461
 1346SOL    HW1 5935   9.635   3.273  11.445
 1346SOL    HW2 5936   9.785   3.281  11.427
 1347SOL     OW 5937   0.019   6.605   6.832
 1347SOL    HW1 5938   0.003   6.532   6.771
 1347SOL    HW2 5939  14.817   6.602   6.893
 1348SOL     OW 5940   8.444   7.620   6.042
 1348SOL    HW1 5941   8.435   7.553   6.110
 1348SOL    HW2 5942   8.375   7.684   6.062
 1349SOL     OW 5943   8.325   1.582   7.374
 1349SOL    HW1 5944   8.369   1.500   7.395
 1349SOL    HW2 5945   8.375   1.649   7.421
 1350SOL     OW 5946   0.498  13.336   3.128
 1350SOL    HW1 5947   0.567  13.392   3.092
 1350SOL    HW2 5948   0.422  13.393   3.138
 1351SOL     OW 5949  14.738  10.549   4.269
 1351SOL    HW1 5950  14.720  10.577   4.179
 1351SOL    HW2 5951  14.667  10.587   4.321
 1352SOL     OW 5952  14.870   3.907  14.729
 1352SOL    HW1 5953   0.010   3.965  14.653
 1352SOL    HW2 5954   0.082   3.864  14.739
 1353SOL     OW 5955   4.755   3.859   8.856
 1353SOL    HW1 5956   4.769   3.770   8.824
 1353SOL    HW2 5957   4.675   3.888   8.812
 1354SOL     OW 5958   7.354   6.294   5.164
 1354SOL    HW1 5959   7.286   6.272   5.101
 1354SOL    HW2 5960   7.341   6.233   5.236
 1355SOL     OW 5961   0.646  14.635   9.379
 1355SOL    HW1 5962   0.568  14.622   9.325
 1355SOL    HW2 5963   0.661  14.730   9.376
 1356SOL     OW 5964  14.259   9.619   2.491
 1356SOL    HW1 5965  14.240   9.554   2.557
 1356SOL    HW2 5966  14.179   9.671   2.483
 1357SOL     OW 5967   0.834   3.566   4.035
 1357SOL    HW1 5968   0.851   3.604   4.121
 1357SOL    HW2 5969   0.781   3.631   3.989
 1358SOL     OW 5970   6.380  10.168   9.813
 1358SOL    HW1 5971   6.387  10.086   9.862
 1358SOL    HW2 5972   6.365  10.235   9.880
 1359SOL     OW 5973   9.067   9.806   7.625
 1359SOL    HW1 5974   9.145   9.758   7.595
 1359SOL    HW2 5975   9.015   9.741   7.671
 1360SOL     OW 5976   2.820   6.733   1.213
 1360SOL    HW1 5977   2.874   6.728   1.133
 1360SOL    HW2 5978   2.781   6.820   1.210
 1361SOL     OW 5979   8.014   9.712   0.844
 1361SOL    HW1 5980   7.982   9.639   0.896
 1361SOL    HW2 5981   8.032   9.781   0.908
 1362SOL     OW 5982  11.944  11.700   6.351
 1362SOL    HW1 5983  11.862  11.717   6.305
 1362SOL    HW2 5984  11.962  11.608   6.335
 1363SOL     OW 5985   8.584   1.146   4.927
 1363SOL    HW1 5986   8.666   1.149   4.976
 1363SOL    HW2 5987   8.570   1.054   4.909
 1364SOL     OW 5988   5.177  10.717   1.269
 1364SOL    HW1 5989   5.099  10.716   1.214
 1364SOL    HW2 5990   5.174  10.801   1.315
 1365SOL     OW 5991   6.348   3.839   0.459
 1365SOL    HW1 5992   6.356   3.750   0.492
 1365SOL    HW2 5993   6.353   3.830   0.364
 1366SOL     OW 5994  13.038   7.650   9.211
 1366SOL    HW1 5995  13.003   7.684   9.128
 1366SOL    HW2 5996  13.016   7.718   9.275
 1367SOL     OW 5997   9.772   4.389  10.186
 1367SOL    HW1 5998   9.775   4.466  10.128
 1367SOL    HW2 5999   9.835   4.407  10.255
 1368SOL     OW 6000   2.627   5.636  11.026
 1368SOL    HW1 6001   2.697   5.575  11.003
 1368SOL    HW2 6002   2.631   5.704  10.959
 1369SOL     OW 6003   1.005   7.776  11.404
 1369SOL    HW1 6004   0.934   7.836  11.427
 1369SOL    HW2 6005   1.040   7.747  11.488
 1370SOL     OW 6006   2.558   6.022  12.174
 1370SOL    HW1 6007   2.472   5.987  12.198
 1370SOL    HW2 6008   2.616   5.945  12.175
 1371SOL     OW 6009   0.099  14.012   5.417
 1371SOL    HW1 6010   0.155  14.090   5.412
 1371SOL    HW2 6011   0.113  13.977   5.505
 1372SOL     OW 6012   3.442   2.062   6.378
 1372SOL    HW1 6013   3.383   2.122   6.423
 1372SOL    HW2 6014   3.464   2.106   6.296
 1373SOL     OW 6015   9.552   0.177   3.477
 1373SOL    HW1 6016   9.499   0.151   3.552
 1373SOL    HW2 6017   9.636   0.203   3.515
 1374SOL     OW 6018  10.225   1.387  11.690
 1374SOL    HW1 6019  10.153   1.333  11.721
 1374SOL    HW2 6020  10.275   1.330  11.632
 1375SOL     OW 6021   0.441   2.283  10.485
 1375SOL    HW1 6022   0.489   2.223  10.428
 1375SOL    HW2 6023   0.350   2.277  10.454
 1376SOL     OW 6024   1.016   2.302   0.327
 1376SOL    HW1 6025   1.055   2.216   0.346
 1376SOL    HW2 6026   0.970   2.290   0.244
 1377SOL     OW 6027   7.772  11.241   4.090
 1377SOL    HW1 6028   7.722  11.197   4.159
 1377SOL    HW2 6029   7.860  11.203   4.095
 1378SOL     OW 6030  14.485   3.533   0.578
 1378SOL    HW1 6031  14.555   3.588   0.613
 1378SOL    HW2 6032  14.527   3.482   0.509
 1379SOL     OW 6033  12.834   2.579   4.168
 1379SOL    HW1 6034  12.810   2.489   4.143
 1379SOL    HW2 6035  12.929   2.579   4.170
 1380SOL     OW 6036  11.794  13.254   4.529
 1380SOL    HW1 6037  11.848  13.331   4.506
 1380SOL    HW2 6038  11.732  13.287   4.594
 1381SOL     OW 6039   8.256   5.433   8.656
 1381SOL    HW1 6040   8.240   5.386   8.574
 1381SOL    HW2 6041   8.192   5.398   8.717
 1382SOL     OW 6042   9.329  10.004  14.469
 1382SOL    HW1 6043   9.279   9.993  14.550
 1382SOL    HW2 6044   9.367   9.918  14.452
 1383SOL     OW 6045   5.225  14.752  12.513
 1383SOL    HW1 6046   5.308  14.785  12.480
 1383SOL    HW2 6047   5.213  14.668  12.468
 1384SOL     OW 6048   3.177   4.595   7.238
 1384SOL    HW1 6049   3.111   4.531   7.214
 1384SOL    HW2 6050   3.143   4.679   7.205
 1385SOL     OW 6051   7.833  10.017  10.961
 1385SOL    HW1 6052   7.802  10.095  10.916
 1385SOL    HW2 6053   7.851   9.955  10.890
 1386SOL     OW 6054  11.366   1.307   0.025
 1386SOL    HW1 6055  11.296   1.289   0.087
 1386SOL    HW2 6056  11.349   1.396  14.866
 1387SOL     OW 6057   3.016   9.225   8.134
 1387SOL    HW1 6058   3.094   9.215   8.189
 1387SOL    HW2 6059   3.014   9.146   8.081
 1388SOL     OW 6060   3.649   2.750   3.708
 1388SOL    HW1 6061   3.630   2.842   3.688
 1388SOL    HW2 6062   3.730   2.731   3.660
 1389SOL     OW 6063  12.643   4.201  10.998
 1389SOL    HW1 6064  12.726   4.173  10.959
 1389SOL    HW2 6065  12.660   4.205  11.092
 1390SOL     OW 6066  13.896   9.892   7.846
 1390SOL    HW1 6067  13.952   9.900   7.768
 1390SOL    HW2 6068  13.824   9.835   7.817
 1391SOL     OW 6069  12.217   7.962   5.042
 1391SOL    HW1 6070  12.295   8.015   5.055
 1391SOL    HW2 6071  12.154   7.995   5.106
 1392SOL     OW 6072  14.586   0.678   2.548
 1392SOL    HW1 6073  14.544   0.592   2.545
 1392SOL    HW2 6074  14.661   0.666   2.606
 1393SOL     OW 6075   7.118  10.680  12.443
 1393SOL    HW1 6076   7.123  10.774  12.455
 1393SOL    HW2 6077   7.052  10.668  12.374
 1394SOL     OW 6078   8.376   2.812   6.611
 1394SOL    HW1 6079   8.388   2.859   6.693
 1394SOL    HW2 6080   8.283   2.822   6.591
 1395SOL     OW 6081  14.455  14.216   3.393
 1395SOL    HW1 6082  14.480  14.305   3.367
 1395SOL    HW2 6083  14.450  14.219   3.489
 1396SOL     OW 6084  14.372   2.217   2.567
 1396SOL    HW1 6085  14.355   2.243   2.658
 1396SOL    HW2 6086  14.466   2.196   2.566
 1397SOL     OW 6087   0.766   3.824   8.806
 1397SOL    HW1 6088   0.841   3.865   8.762
 1397SOL    HW2 6089   0.775   3.848   8.898
 1398SOL     OW 6090   3.573   2.465  10.648
 1398SOL    HW1 6091   3.646   2.526  10.661
 1398SOL    HW2 6092   3.541   2.485  10.560
 1399SOL     OW 6093  13.029   5.786  14.337
 1399SOL    HW1 6094  13.105   5.733  14.363
 1399SOL    HW2 6095  13.031   5.861  14.396
 1400SOL     OW 6096  11.498  12.010  12.706
 1400SOL    HW1 6097  11.575  11.957  12.727
 1400SOL    HW2 6098  11.505  12.027  12.612
 1401SOL     OW 6099  12.063  10.528   4.478
 1401SOL    HW1 6100  12.033  10.525   4.387
 1401SOL    HW2 6101  12.036  10.615   4.509
 1402SOL     OW 6102   9.929  14.519   5.990
 1402SOL    HW1 6103   9.842  14.504   5.953
 1402SOL    HW2 6104   9.917  14.514   6.084
 1403SOL     OW 6105   5.694   3.333  12.263
 1403SOL    HW1 6106   5.653   3.252  12.291
 1403SOL    HW2 6107   5.726   3.314  12.175
 1404SOL     OW 6108   4.271  11.335   2.971
 1404SOL    HW1 6109   4.349  11.378   3.007
 1404SOL    HW2 6110   4.201  11.399   2.984
 1405SOL     OW 6111  12.429   0.572   0.320
 1405SOL    HW1 6112  12.425   0.492   0.267
 1405SOL    HW2 6113  12.485   0.548   0.394
 1406SOL     OW 6114   3.730   1.619   8.716
 1406SOL    HW1 6115   3.712   1.528   8.738
 1406SOL    HW2 6116   3.823   1.630   8.733
 1407SOL     OW 6117   2.416   9.492  10.035
 1407SOL    HW1 6118   2.452   9.580  10.028
 1407SOL    HW2 6119   2.322   9.506  10.052
 1408SOL     OW 6120  11.664   2.264   0.118
 1408SOL    HW1 6121  11.723   2.303   0.182
 1408SOL    HW2 6122  11.665   2.324   0.044
 1409SOL     OW 6123   0.977  12.968   7.661
 1409SOL    HW1 6124   1.033  12.934   7.591
 1409SOL    HW2 6125   0.979  12.899   7.728
 1410SOL     OW 6126   0.017  14.517   7.241
 1410SOL    HW1 6127   0.086  14.451   7.240
 1410SOL    HW2 6128  14.818  14.475   7.289
 1411SOL     OW 6129   2.342   5.360   8.130
 1411SOL    HW1 6130   2.280   5.316   8.188
 1411SOL    HW2 6131   2.295   5.437   8.098
 1412SOL     OW 6132   7.570   3.522   9.746
 1412SOL    HW1 6133   7.521   3.517   9.664
 1412SOL    HW2 6134   7.589   3.615   9.758
 1413SOL     OW 6135  11.358   5.397   2.293
 1413SOL    HW1 6136  11.401   5.312   2.308
 1413SOL    HW2 6137  11.294   5.404   2.364
 1414SOL     OW 6138  12.792   9.779  10.551
 1414SOL    HW1 6139  12.760   9.795  10.462
 1414SOL    HW2 6140  12.821   9.687  10.550
 1415SOL     OW 6141   6.767   1.529   9.963
 1415SOL    HW1 6142   6.716   1.476   9.901
 1415SOL    HW2 6143   6.801   1.465  10.026
 1416SOL     OW 6144  10.219  10.517   8.682
 1416SOL    HW1 6145  10.275  10.507   8.760
 1416SOL    HW2 6146  10.267  10.578   8.626
 1417SOL     OW 6147  12.678   8.616  12.302
 1417SOL    HW1 6148  12.695   8.525  12.280
 1417SOL    HW2 6149  12.583   8.626  12.292
 1418SOL     OW 6150   3.754   6.718   8.458
 1418SOL    HW1 6151   3.825   6.742   8.518
 1418SOL    HW2 6152   3.679   6.701   8.515
 1419SOL     OW 6153   6.233   3.910   6.184
 1419SOL    HW1 6154   6.291   3.944   6.253
 1419SOL    HW2 6155   6.218   3.984   6.126
 1420SOL     OW 6156   3.332   6.393   1.582
 1420SOL    HW1 6157   3.363   6.321   1.636
 1420SOL    HW2 6158   3.279   6.351   1.514
 1421SOL     OW 6159  11.496   2.381  12.500
 1421SOL    HW1 6160  11.471   2.444  12.432
 1421SOL    HW2 6161  11.462   2.419  12.581
 1422SOL     OW 6162   5.372   0.815   7.717
 1422SOL    HW1 6163   5.434   0.852   7.780
 1422SOL    HW2 6164   5.386   0.720   7.723
 1423SOL     OW 6165  13.486  10.875   2.879
 1423SOL    HW1 6166  13.484  10.784   2.848
 1423SOL    HW2 6167  13.569  10.910   2.846
 1424SOL     OW 6168   2.041   0.446  12.365
 1424SOL    HW1 6169   1.963   0.397  12.392
 1424SOL    HW2 6170   2.042   0.440  12.270
 1425SOL     OW 6171   6.148   0.959   8.281
 1425SOL    HW1 6172   6.086   1.009   8.228
 1425SOL    HW2 6173   6.101   0.939   8.362
 1426SOL     OW 6174   5.454   6.892   6.103
 1426SOL    HW1 6175   5.522   6.841   6.058
 1426SOL    HW2 6176   5.471   6.983   6.077
 1427SOL     OW 6177   6.483   1.423   1.714
 1427SOL    HW1 6178   6.502   1.494   1.653
 1427SOL    HW2 6179   6.442   1.355   1.660
 1428SOL     OW 6180  13.198   6.169   2.176
 1428SOL    HW1 6181  13.231   6.225   2.106
 1428SOL    HW2 6182  13.105   6.188   2.182
 1429SOL     OW 6183   8.814  10.271   3.247
 1429SOL    HW1 6184   8.859  10.339   3.197
 1429SOL    HW2 6185   8.830  10.294   3.339
 1430SOL     OW 6186  14.084   7.584   9.449
 1430SOL    HW1 6187  14.133   7.606   9.370
 1430SOL    HW2 6188  14.117   7.644   9.515
 1431SOL     OW 6189   1.183   5.604  11.561
 1431SOL    HW1 6190   1.171   5.640  11.473
 1431SOL    HW2 6191   1.188   5.509  11.547
 1432SOL     OW 6192  12.681   2.713   7.013
 1432SOL    HW1 6193  12.652   2.794   6.971
 1432SOL    HW2 6194  12.608   2.689   7.070
 1433SOL     OW 6195   4.717  10.964  14.650
 1433SOL    HW1 6196   4.734  11.055  14.674
 1433SOL    HW2 6197   4.803  10.929  14.628
 1434SOL     OW 6198   6.103   1.414   5.286
 1434SOL    HW1 6199   6.089   1.456   5.201
 1434SOL    HW2 6200   6.043   1.459   5.345
 1435SOL     OW 6201   7.458  13.914   1.799
 1435SOL    HW1 6202   7.453  14.007   1.778
 1435SOL    HW2 6203   7.450  13.910   1.894
 1436SOL     OW 6204  11.310  12.604   0.314
 1436SOL    HW1 6205  11.357  12.521   0.322
 1436SOL    HW2 6206  11.288  12.610   0.221
 1437SOL     OW 6207  13.311   2.606   1.249
 1437SOL    HW1 6208  13.334   2.578   1.337
 1437SOL    HW2 6209  13.265   2.532   1.211
 1438SOL     OW 6210  12.178   8.518  13.533
 1438SOL    HW1 6211  12.140   8.449  13.587
 1438SOL    HW2 6212  12.268   8.489  13.518
 1439SOL     OW 6213   0.832  12.475   5.726
 1439SOL    HW1 6214   0.745  12.515   5.734
 1439SOL    HW2 6215   0.888  12.527   5.784
 1440SOL     OW 6216   4.018   7.978   7.769
 1440SOL    HW1 6217   4.109   7.966   7.742
 1440SOL    HW2 6218   4.022   8.000   7.862
 1441SOL     OW 6219   3.674  13.402   6.605
 1441SOL    HW1 6220   3.656  13.458   6.529
 1441SOL    HW2 6221   3.633  13.448   6.678
 1442SOL     OW 6222   2.442  12.563   3.071
 1442SOL    HW1 6223   2.505  12.493   3.058
 1442SOL    HW2 6224   2.366  12.520   3.110
 1443SOL     OW 6225  14.622  10.167   0.806
 1443SOL    HW1 6226  14.562  10.161   0.881
 1443SOL    HW2 6227  14.571  10.211   0.738
 1444SOL     OW 6228   5.998  13.879   8.859
 1444SOL    HW1 6229   5.965  13.898   8.772
 1444SOL    HW2 6230   6.041  13.793   8.851
 1445SOL     OW 6231   4.677   7.852   5.805
 1445SOL    HW1 6232   4.704   7.788   5.739
 1445SOL    HW2 6233   4.699   7.811   5.889
 1446SOL     OW 6234   3.537   4.241   1.155
 1446SOL    HW1 6235   3.503   4.268   1.240
 1446SOL    HW2 6236   3.557   4.322   1.109
 1447SOL     OW 6237   3.608  13.601   5.131
 1447SOL    HW1 6238   3.587  13.540   5.060
 1447SOL    HW2 6239   3.701  13.621   5.119
 1448SOL     OW 6240   0.655  10.965  10.747
 1448SOL    HW1 6241   0.669  10.878  10.710
 1448SOL    HW2 6242   0.727  11.018  10.712
 1449SOL     OW 6243   8.802   0.214   3.617
 1449SOL    HW1 6244   8.871   0.224   3.683
 1449SOL    HW2 6245   8.726   0.258   3.655
 1450SOL     OW 6246   1.238  10.516  12.934
 1450SOL    HW1 6247   1.290  10.557  12.864
 1450SOL    HW2 6248   1.275  10.428  12.941
 1451SOL     OW 6249   5.455  11.176  10.500
 1451SOL    HW1 6250   5.511  11.164  10.424
 1451SOL    HW2 6251   5.459  11.092  10.546
 1452SOL     OW 6252   0.079  14.193   4.361
 1452SOL    HW1 6253   0.129  14.137   4.301
 1452SOL    HW2 6254   0.146  14.242   4.410
 1453SOL     OW 6255  13.882   2.401  13.523
 1453SOL    HW1 6256  13.838   2.321  13.495
 1453SOL    HW2 6257  13.825   2.472  13.494
 1454SOL     OW 6258   6.381  12.203   1.902
 1454SOL    HW1 6259   6.344  12.116   1.918
 1454SOL    HW2 6260   6.326  12.262   1.954
 1455SOL     OW 6261  10.645   5.451  11.393
 1455SOL    HW1 6262  10.554   5.447  11.363
 1455SOL    HW2 6263  10.658   5.368  11.440
 1456SOL     OW 6264  14.739   2.099  10.710
 1456SOL    HW1 6265  14.833   2.103  10.728
 1456SOL    HW2 6266  14.703   2.043  10.779
 1457SOL     OW 6267  12.703   9.364   5.077
 1457SOL    HW1 6268  12.744   9.439   5.034
 1457SOL    HW2 6269  12.675   9.307   5.005
 1458SOL     OW 6270  11.373   8.076   4.592
 1458SOL    HW1 6271  11.332   8.162   4.596
 1458SOL    HW2 6272  11.364   8.041   4.681
 1459SOL     OW 6273   0.748   2.611  11.512
 1459SOL    HW1 6274   0.780   2.694  11.475
 1459SOL    HW2 6275   0.802   2.597  11.589
 1460SOL     OW 6276   4.747  14.585  10.139
 1460SOL    HW1 6277   4.698  14.622  10.212
 1460SOL    HW2 6278   4.731  14.644  10.066
 1461SOL     OW 6279  13.244   7.534   2.164
 1461SOL    HW1 6280  13.246   7.488   2.248
 1461SOL    HW2 6281  13.335   7.535   2.135
 1462SOL     OW 6282  12.225   4.025  10.666
 1462SOL    HW1 6283  12.301   4.052  10.614
 1462SOL    HW2 6284  12.159   4.092  10.648
 1463SOL     OW 6285   3.464  11.875   5.240
 1463SOL    HW1 6286   3.423  11.821   5.308
 1463SOL    HW2 6287   3.558  11.866   5.256
 1464SOL     OW 6288  14.274  14.798   6.224
 1464SOL    HW1 6289  14.279  14.751   6.141
 1464SOL    HW2 6290  14.359  14.783   6.266
 1465SOL     OW 6291  11.773   8.509  13.165
 1465SOL    HW1 6292  11.827   8.465  13.099
 1465SOL    HW2 6293  11.778   8.602  13.141
 1466SOL     OW 6294  10.476   6.075   2.184
 1466SOL    HW1 6295  10.431   6.118   2.111
 1466SOL    HW2 6296  10.493   6.145   2.246
 1467SOL     OW 6297   7.985   5.207   7.897
 1467SOL    HW1 6298   7.929   5.249   7.963
 1467SOL    HW2 6299   7.925   5.153   7.845
 1468SOL     OW 6300   7.434   1.261  10.360
 1468SOL    HW1 6301   7.469   1.350  10.372
 1468SOL    HW2 6302   7.472   1.211  10.432
 1469SOL     OW 6303  12.600   4.904   2.472
 1469SOL    HW1 6304  12.589   4.997   2.454
 1469SOL    HW2 6305  12.662   4.874   2.405
 1470SOL     OW 6306   2.576   3.293   3.700
 1470SOL    HW1 6307   2.623   3.279   3.782
 1470SOL    HW2 6308   2.498   3.343   3.725
 1471SOL     OW 6309   9.169  13.532   0.647
 1471SOL    HW1 6310   9.174  13.581   0.565
 1471SOL    HW2 6311   9.118  13.588   0.705
 1472SOL     OW 6312  12.233   2.984   2.718
 1472SOL    HW1 6313  12.287   3.063   2.731
 1472SOL    HW2 6314  12.144   3.017   2.705
 1473SOL     OW 6315   7.472  11.393   2.281
 1473SOL    HW1 6316   7.526  11.327   2.237
 1473SOL    HW2 6317   7.454  11.458   2.212
 1474SOL     OW 6318  12.644   5.562  10.224
 1474SOL    HW1 6319  12.659   5.656  10.217
 1474SOL    HW2 6320  12.549   5.552  10.221
 1475SOL     OW 6321   6.796  13.543   4.115
 1475SOL    HW1 6322   6.748  13.623   4.094
 1475SOL    HW2 6323   6.841  13.563   4.197
 1476SOL     OW 6324   8.905   6.188  11.224
 1476SOL    HW1 6325   8.896   6.107  11.273
 1476SOL    HW2 6326   8.819   6.229  11.230
 1477SOL     OW 6327   1.789  10.389   0.250
 1477SOL    HW1 6328   1.878  10.422   0.254
 1477SOL    HW2 6329   1.734  10.467   0.240
 1478SOL     OW 6330   4.857   0.469  11.073
 1478SOL    HW1 6331   4.890   0.548  11.116
 1478SOL    HW2 6332   4.923   0.448  11.006
 1479SOL     OW 6333   3.295   6.118   9.360
 1479SOL    HW1 6334   3.218   6.072   9.394
 1479SOL    HW2 6335   3.281   6.120   9.265
 1480SOL     OW 6336   3.437   8.040   1.955
 1480SOL    HW1 6337   3.420   8.055   1.862
 1480SOL    HW2 6338   3.481   8.119   1.986
 1481SOL     OW 6339  11.784   0.243   1.480
 1481SOL    HW1 6340  11.824   0.173   1.429
 1481SOL    HW2 6341  11.690   0.225   1.478
 1482SOL     OW 6342  11.168   9.983   7.493
 1482SOL    HW1 6343  11.172   9.911   7.430
 1482SOL    HW2 6344  11.259  10.008   7.508
 1483SOL     OW 6345  13.468  14.827   7.373
 1483SOL    HW1 6346  13.447   0.048   7.380
 1483SOL    HW2 6347  13.445  14.791   7.459
 1484SOL     OW 6348   6.868  13.230   4.035
 1484SOL    HW1 6349   6.830  13.235   4.123
 1484SOL    HW2 6350   6.794  13.204   3.979
 1485SOL     OW 6351   7.560   7.534   3.286
 1485SOL    HW1 6352   7.600   7.478   3.219
 1485SOL    HW2 6353   7.491   7.581   3.239
 1486SOL     OW 6354   3.096   3.911   0.263
 1486SOL    HW1 6355   3.009   3.872   0.273
 1486SOL    HW2 6356   3.156   3.844   0.296
 1487SOL     OW 6357   3.179   3.153   8.248
 1487SOL    HW1 6358   3.225   3.134   8.329
 1487SOL    HW2 6359   3.139   3.070   8.223
 1488SOL     OW 6360   0.865  10.342   1.082
 1488SOL    HW1 6361   0.917  10.374   1.008
 1488SOL    HW2 6362   0.775  10.368   1.061
 1489SOL     OW 6363   8.348   0.678  14.471
 1489SOL    HW1 6364   8.338   0.763  14.429
 1489SOL    HW2 6365   8.365   0.699  14.563
 1490SOL     OW 6366  14.180   6.345  10.517
 1490SOL    HW1 6367  14.193   6.368  10.425
 1490SOL    HW2 6368  14.097   6.297  10.518
 1491SOL     OW 6369  14.544   0.362  14.298
 1491SOL    HW1 6370  14.468   0.337  14.351
 1491SOL    HW2 6371  14.573   0.280  14.258
 1492SOL     OW 6372   3.615   9.307   9.744
 1492SOL    HW1 6373   3.587   9.263   9.824
 1492SOL    HW2 6374   3.679   9.248   9.704
 1493SOL     OW 6375  11.709   7.100  10.139
 1493SOL    HW1 6376  11.684   7.117  10.048
 1493SOL    HW2 6377  11.687   7.181  10.185
 1494SOL     OW 6378  11.299   7.574   4.706
 1494SOL    HW1 6379  11.247   7.601   4.781
 1494SOL    HW2 6380  11.252   7.609   4.630
 1495SOL     OW 6381   6.541   3.356   6.581
 1495SOL    HW1 6382   6.625   3.315   6.605
 1495SOL    HW2 6383   6.545   3.366   6.486
 1496SOL     OW 6384   8.923  10.404   0.502
 1496SOL    HW1 6385   9.007  10.442   0.527
 1496SOL    HW2 6386   8.907  10.336   0.567
 1497SOL     OW 6387   5.606   2.837   5.011
 1497SOL    HW1 6388   5.532   2.867   4.958
 1497SOL    HW2 6389   5.664   2.913   5.016
 1498SOL     OW 6390   1.861  12.550  12.830
 1498SOL    HW1 6391   1.831  12.462  12.808
 1498SOL    HW2 6392   1.781  12.598  12.851
 1499SOL     OW 6393  11.842   3.569   1.858
 1499SOL    HW1 6394  11.917   3.592   1.804
 1499SOL    HW2 6395  11.874   3.575   1.948
 1500SOL     OW 6396   4.146   9.756  14.783
 1500SOL    HW1 6397   4.107   9.765  14.697
 1500SOL    HW2 6398   4.199   9.835  14.795
 1501SOL     OW 6399  14.213   9.216  10.719
 1501SOL    HW1 6400  14.251   9.219  10.631
 1501SOL    HW2 6401  14.154   9.140  10.717
 1502SOL     OW 6402   1.733   3.794   6.664
 1502SOL    HW1 6403   1.744   3.885   6.637
 1502SOL    HW2 6404   1.650   3.767   6.624
 1503SOL     OW 6405   7.960   7.285   6.346
 1503SOL    HW1 6406   7.879   7.331   6.367
 1503SOL    HW2 6407   7.967   7.294   6.251
 1504SOL     OW 6408   6.075   3.888  11.615
 1504SOL    HW1 6409   5.994   3.906  11.567
 1504SOL    HW2 6410   6.144   3.897  11.549
 1505SOL     OW 6411   8.205  12.095   2.603
 1505SOL    HW1 6412   8.219  12.000   2.596
 1505SOL    HW2 6413   8.118  12.104   2.642
 1506SOL     OW 6414  12.870   7.323   4.042
 1506SOL    HW1 6415  12.843   7.369   3.962
 1506SOL    HW2 6416  12.951   7.277   4.016
 1507SOL     OW 6417   7.089   7.168  10.248
 1507SOL    HW1 6418   7.107   7.221  10.326
 1507SOL    HW2 6419   7.002   7.132  10.263
 1508SOL     OW 6420   5.720   5.298  10.067
 1508SOL    HW1 6421   5.729   5.212  10.108
 1508SOL    HW2 6422   5.748   5.284   9.976
 1509SOL     OW 6423  13.338   9.597   7.362
 1509SOL    HW1 6424  13.306   9.513   7.328
 1509SOL    HW2 6425  13.261   9.637   7.402
 1510SOL     OW 6426  11.547   1.232  14.228
 1510SOL    HW1 6427  11.455   1.257  14.215
 1510SOL    HW2 6428  11.555   1.146  14.187
 1511SOL     OW 6429   1.175   2.855   7.111
 1511SOL    HW1 6430   1.179   2.787   7.044
 1511SOL    HW2 6431   1.101   2.830   7.166
 1512SOL     OW 6432   2.978   4.081   0.807
 1512SOL    HW1 6433   2.983   4.168   0.768
 1512SOL    HW2 6434   3.027   4.025   0.746
 1513SOL     OW 6435   0.413   2.003   5.295
 1513SOL    HW1 6436   0.437   1.913   5.274
 1513SOL    HW2 6437   0.322   2.011   5.265
 1514SOL     OW 6438   5.069  12.992   3.014
 1514SOL    HW1 6439   5.084  12.974   3.107
 1514SOL    HW2 6440   5.125  13.068   2.996
 1515SOL     OW 6441  11.183  12.685  11.906
 1515SOL    HW1 6442  11.108  12.717  11.856
 1515SOL    HW2 6443  11.174  12.726  11.992
 1516SOL     OW 6444   4.072  12.793   5.425
 1516SOL    HW1 6445   4.019  12.817   5.501
 1516SOL    HW2 6446   4.029  12.835   5.351
 1517SOL     OW 6447  12.389   6.803   9.357
 1517SOL    HW1 6448  12.329   6.864   9.314
 1517SOL    HW2 6449  12.339   6.722   9.367
 1518SOL     OW 6450  12.144  12.823  11.617
 1518SOL    HW1 6451  12.224  12.813  11.565
 1518SOL    HW2 6452  12.079  12.770  11.572
 1519SOL     OW 6453   1.492   5.308   3.933
 1519SOL    HW1 6454   1.448   5.244   3.989
 1519SOL    HW2 6455   1.421   5.348   3.883
 1520SOL     OW 6456   6.234   5.865  14.358
 1520SOL    HW1 6457   6.253   5.958  14.349
 1520SOL    HW2 6458   6.155   5.861  14.412
 1521SOL     OW 6459   0.058   0.179   8.489
 1521SOL    HW1 6460  14.870   0.193   8.416
 1521SOL    HW2 6461   0.145   0.182   8.449
 1522SOL     OW 6462  14.036  13.393  12.764
 1522SOL    HW1 6463  13.957  13.443  12.784
 1522SOL    HW2 6464  14.032  13.379  12.669
 1523SOL     OW 6465   0.378   9.579   7.221
 1523SOL    HW1 6466   0.284   9.573   7.237
 1523SOL    HW2 6467   0.414   9.612   7.303
 1524SOL     OW 6468  12.813   8.472  13.459
 1524SOL    HW1 6469  12.732   8.517  13.485
 1524SOL    HW2 6470  12.820   8.488  13.365
 1525SOL     OW 6471  11.272   7.244  10.013
 1525SOL    HW1 6472  11.333   7.296  10.065
 1525SOL    HW2 6473  11.186   7.279  10.034
 1526SOL     OW 6474   4.910  10.579  10.264
 1526SOL    HW1 6475   4.816  10.577  10.245
 1526SOL    HW2 6476   4.940  10.662  10.227
 1527SOL     OW 6477   6.446   4.414  10.219
 1527SOL    HW1 6478   6.496   4.468  10.281
 1527SOL    HW2 6479   6.497   4.417  10.138
 1528SOL     OW 6480  11.304   5.302  11.765
 1528SOL    HW1 6481  11.348   5.306  11.680
 1528SOL    HW2 6482  11.244   5.376  11.765
 1529SOL     OW 6483   1.920   9.881   2.460
 1529SOL    HW1 6484   1.874   9.952   2.505
 1529SOL    HW2 6485   1.881   9.880   2.372
 1530SOL     OW 6486   7.624  12.939   6.759
 1530SOL    HW1 6487   7.629  12.967   6.851
 1530SOL    HW2 6488   7.530  12.943   6.738
 1531SOL     OW 6489   0.459   9.258  11.345
 1531SOL    HW1 6490   0.496   9.253  11.433
 1531SOL    HW2 6491   0.518   9.206  11.291
 1532SOL     OW 6492   6.932  14.327   8.326
 1532SOL    HW1 6493   6.940  14.395   8.393
 1532SOL    HW2 6494   7.016  14.281   8.327
 1533SOL     OW 6495   8.680   1.955  13.370
 1533SOL    HW1 6496   8.743   2.022  13.342
 1533SOL    HW2 6497   8.635   1.994  13.445
 1534SOL     OW 6498   0.819   3.067   5.667
 1534SOL    HW1 6499   0.742   3.047   5.614
 1534SOL    HW2 6500   0.884   3.002   5.639
 1535SOL     OW 6501   2.375   6.755  13.442
 1535SOL    HW1 6502   2.423   6.699  13.503
 1535SOL    HW2 6503   2.285   6.754  13.475
 1536SOL     OW 6504   4.079   0.134   3.644
 1536SOL    HW1 6505   4.080   0.143   3.740
 1536SOL    HW2 6506   4.061   0.041   3.629
 1537SOL     OW 6507   3.387   0.560  13.549
 1537SOL    HW1 6508   3.330   0.635  13.564
 1537SOL    HW2 6509   3.327   0.487  13.535
 1538SOL     OW 6510   0.243   1.967   6.662
 1538SOL    HW1 6511   0.209   1.877   6.655
 1538SOL    HW2 6512   0.184   2.020   6.609
 1539SOL     OW 6513  11.264  10.503  13.258
 1539SOL    HW1 6514  11.214  10.462  13.187
 1539SOL    HW2 6515  11.289  10.430  13.315
 1540SOL     OW 6516  11.873   6.895   9.742
 1540SOL    HW1 6517  11.877   6.811   9.696
 1540SOL    HW2 6518  11.960   6.906   9.781
 1541SOL     OW 6519   2.760   9.292  12.308
 1541SOL    HW1 6520   2.831   9.238  12.343
 1541SOL    HW2 6521   2.751   9.363  12.372
 1542SOL     OW 6522   8.852  11.013   1.677
 1542SOL    HW1 6523   8.906  11.038   1.602
 1542SOL    HW2 6524   8.820  11.096   1.712
 1543SOL     OW 6525   1.554   6.469   4.845
 1543SOL    HW1 6526   1.529   6.559   4.822
 1543SOL    HW2 6527   1.570   6.426   4.761
 1544SOL     OW 6528  11.803   5.831   6.771
 1544SOL    HW1 6529  11.724   5.805   6.818
 1544SOL    HW2 6530  11.801   5.781   6.690
 1545SOL     OW 6531  11.525   8.792   0.811
 1545SOL    HW1 6532  11.528   8.730   0.738
 1545SOL    HW2 6533  11.597   8.853   0.793
 1546SOL     OW 6534   1.984  13.052   1.727
 1546SOL    HW1 6535   1.966  12.959   1.745
 1546SOL    HW2 6536   1.994  13.091   1.814
 1547SOL     OW 6537  10.288   8.530  11.543
 1547SOL    HW1 6538  10.267   8.501  11.632
 1547SOL    HW2 6539  10.242   8.613  11.533
 1548SOL     OW 6540   4.691   0.248  12.797
 1548SOL    HW1 6541   4.705   0.153  12.788
 1548SOL    HW2 6542   4.777   0.286  12.781
 1549SOL     OW 6543  13.618   8.329   2.072
 1549SOL    HW1 6544  13.652   8.268   2.137
 1549SOL    HW2 6545  13.642   8.416   2.105
 1550SOL     OW 6546  13.968  12.561   9.211
 1550SOL    HW1 6547  13.893  12.614   9.240
 1550SOL    HW2 6548  13.935  12.511   9.136
 1551SOL     OW 6549   1.237  13.702   6.426
 1551SOL    HW1 6550   1.286  13.640   6.480
 1551SOL    HW2 6551   1.224  13.656   6.343
 1552SOL     OW 6552  12.994   5.082   7.510
 1552SOL    HW1 6553  12.905   5.056   7.485
 1552SOL    HW2 6554  12.988   5.102   7.603
 1553SOL     OW 6555  10.991   8.227  13.109
 1553SOL    HW1 6556  11.066   8.196  13.160
 1553SOL    HW2 6557  11.030   8.270  13.033
 1554SOL     OW 6558   3.525   3.760   0.383
 1554SOL    HW1 6559   3.440   3.739   0.345
 1554SOL    HW2 6560   3.533   3.855   0.371
 1555SOL     OW 6561   8.831  11.082  10.378
 1555SOL    HW1 6562   8.784  10.999  10.386
 1555SOL    HW2 6563   8.876  11.092  10.462
 1556SOL     OW 6564   9.135   2.446   5.467
 1556SOL    HW1 6565   9.041   2.460   5.464
 1556SOL    HW2 6566   9.173   2.523   5.425
 1557SOL     OW 6567  13.650  14.849  13.106
 1557SOL    HW1 6568  13.568   0.015  13.076
 1557SOL    HW2 6569  13.627  14.797  13.182
 1558SOL     OW 6570  14.465  10.174   5.654
 1558SOL    HW1 6571  14.520  10.214   5.722
 1558SOL    HW2 6572  14.478  10.079   5.666
 1559SOL     OW 6573   8.284  13.854   7.241
 1559SOL    HW1 6574   8.270  13.772   7.194
 1559SOL    HW2 6575   8.286  13.920   7.172
 1560SOL     OW 6576   9.981  12.643   9.994
 1560SOL    HW1 6577   9.960  12.605   9.909
 1560SOL    HW2 6578   9.899  12.683  10.023
 1561SOL     OW 6579   6.044   4.431  10.011
 1561SOL    HW1 6580   6.126   4.394  10.043
 1561SOL    HW2 6581   6.042   4.520  10.048
 1562SOL     OW 6582  13.598  11.720  12.568
 1562SOL    HW1 6583  13.677  11.708  12.621
 1562SOL    HW2 6584  13.573  11.811  12.582
 1563SOL     OW 6585  10.358   4.906   9.705
 1563SOL    HW1 6586  10.409   4.977   9.666
 1563SOL    HW2 6587  10.276   4.948   9.732
 1564SOL     OW 6588   5.641   9.361   7.299
 1564SOL    HW1 6589   5.625   9.278   7.344
 1564SOL    HW2 6590   5.696   9.337   7.224
 1565SOL     OW 6591   0.675   1.438  13.594
 1565SOL    HW1 6592   0.642   1.420  13.682
 1565SOL    HW2 6593   0.641   1.367  13.540
 1566SOL     OW 6594  10.902  12.991   4.098
 1566SOL    HW1 6595  10.889  12.985   4.193
 1566SOL    HW2 6596  10.985  13.037   4.088
 1567SOL     OW 6597   4.488  13.826  13.491
 1567SOL    HW1 6598   4.417  13.868  13.442
 1567SOL    HW2 6599   4.485  13.734  13.464
 1568SOL     OW 6600   5.985  11.593  13.375
 1568SOL    HW1 6601   5.975  11.500  13.392
 1568SOL    HW2 6602   6.079  11.608  13.377
 1569SOL     OW 6603   6.636  13.056   6.856
 1569SOL    HW1 6604   6.704  13.069   6.922
 1569SOL    HW2 6605   6.592  12.975   6.883
 1570SOL     OW 6606   0.009   9.531   6.031
 1570SOL    HW1 6607  14.791   9.522   6.061
 1570SOL    HW2 6608   0.055   9.455   6.066
 1571SOL     OW 6609   4.771   7.073   1.068
 1571SOL    HW1 6610   4.736   7.072   0.979
 1571SOL    HW2 6611   4.694   7.086   1.123
 1572SOL     OW 6612   3.597  12.806   5.204
 1572SOL    HW1 6613   3.693  12.815   5.203
 1572SOL    HW2 6614   3.582  12.712   5.199
 1573SOL     OW 6615   5.995   4.734  10.040
 1573SOL    HW1 6616   6.068   4.797  10.039
 1573SOL    HW2 6617   5.934   4.768  10.105
 1574SOL     OW 6618   2.968   5.265   4.893
 1574SOL    HW1 6619   2.882   5.301   4.870
 1574SOL    HW2 6620   2.951   5.174   4.915
 1575SOL     OW 6621   8.784   6.335   0.369
 1575SOL    HW1 6622   8.745   6.299   0.448
 1575SOL    HW2 6623   8.715   6.387   0.328
 1576SOL     OW 6624   3.171   1.374  13.727
 1576SOL    HW1 6625   3.245   1.433  13.742
 1576SOL    HW2 6626   3.207   1.302  13.675
 1577SOL     OW 6627   5.102   0.280   0.170
 1577SOL    HW1 6628   5.049   0.340   0.223
 1577SOL    HW2 6629   5.095   0.313   0.081
 1578SOL     OW 6630  10.706  14.866   0.432
 1578SOL    HW1 6631  10.634  14.810   0.401
 1578SOL    HW2 6632  10.764  14.806   0.478
 1579SOL     OW 6633   5.009   5.902  13.227
 1579SOL    HW1 6634   5.003   5.989  13.188
 1579SOL    HW2 6635   4.927   5.860  13.204
 1580SOL     OW 6636   9.576  12.102   5.842
 1580SOL    HW1 6637   9.516  12.168   5.807
 1580SOL    HW2 6638   9.645  12.095   5.776
 1581SOL     OW 6639   4.654  10.010   4.361
 1581SOL    HW1 6640   4.599  10.024   4.284
 1581SOL    HW2 6641   4.607  10.056   4.432
 1582SOL     OW 6642  11.957   6.779   6.143
 1582SOL    HW1 6643  11.925   6.808   6.228
 1582SOL    HW2 6644  12.045   6.818   6.137
 1583SOL     OW 6645   8.935   4.328  12.786
 1583SOL    HW1 6646   8.964   4.381  12.711
 1583SOL    HW2 6647   9.015   4.289  12.821
 1584SOL     OW 6648  10.546   5.170   6.183
 1584SOL    HW1 6649  10.463   5.194   6.142
 1584SOL    HW2 6650  10.539   5.076   6.201
 1585SOL     OW 6651  10.268   4.059   8.494
 1585SOL    HW1 6652  10.193   4.002   8.510
 1585SOL    HW2 6653  10.341   4.014   8.536
 1586SOL     OW 6654   8.997  10.585  12.916
 1586SOL    HW1 6655   9.049  10.626  12.984
 1586SOL    HW2 6656   9.056  10.523  12.874
 1587SOL     OW 6657   4.339  10.717   4.052
 1587SOL    HW1 6658   4.264  10.760   4.092
 1587SOL    HW2 6659   4.302  10.651   3.995
 1588SOL     OW 6660   9.147   1.682   9.058
 1588SOL    HW1 6661   9.199   1.646   9.130
 1588SOL    HW2 6662   9.156   1.777   9.068
 1589SOL     OW 6663   3.188  14.551   2.803
 1589SOL    HW1 6664   3.233  14.468   2.787
 1589SOL    HW2 6665   3.232  14.614   2.745
 1590SOL     OW 6666   6.256  10.299   0.068
 1590SOL    HW1 6667   6.240  10.219   0.119
 1590SOL    HW2 6668   6.187  10.299   0.001
 1591SOL     OW 6669  11.202   1.838   0.600
 1591SOL    HW1 6670  11.296   1.832   0.617
 1591SOL    HW2 6671  11.192   1.805   0.511
 1592SOL     OW 6672   6.093  13.132   3.266
 1592SOL    HW1 6673   6.031  13.201   3.239
 1592SOL    HW2 6674   6.039  13.053   3.271
 1593SOL     OW 6675   5.541   4.053  11.991
 1593SOL    HW1 6676   5.585   4.015  11.914
 1593SOL    HW2 6677   5.587   4.014  12.066
 1594SOL     OW 6678   5.251  14.751  11.434
 1594SOL    HW1 6679   5.330  14.802  11.457
 1594SOL    HW2 6680   5.179  14.812  11.449
 1595SOL     OW 6681   7.384  12.320   1.657
 1595SOL    HW1 6682   7.345  12.407   1.653
 1595SOL    HW2 6683   7.353  12.283   1.740
 1596SOL     OW 6684  14.251   3.284  12.373
 1596SOL    HW1 6685  14.166   3.261  12.412
 1596SOL    HW2 6686  14.259   3.226  12.297
 1597SOL     OW 6687   5.843   8.205   1.712
 1597SOL    HW1 6688   5.912   8.162   1.762
 1597SOL    HW2 6689   5.847   8.165   1.625
 1598SOL     OW 6690   8.739   9.477   8.943
 1598SOL    HW1 6691   8.781   9.562   8.949
 1598SOL    HW2 6692   8.676   9.486   8.872
 1599SOL     OW 6693   9.295   1.618  14.725
 1599SOL    HW1 6694   9.208   1.641  14.693
 1599SOL    HW2 6695   9.316   1.536  14.680
 1600SOL     OW 6696  11.143   0.436   0.139
 1600SOL    HW1 6697  11.222   0.439   0.085
 1600SOL    HW2 6698  11.107   0.349   0.123
 1601SOL     OW 6699  12.586   7.501   2.727
 1601SOL    HW1 6700  12.668   7.550   2.718
 1601SOL    HW2 6701  12.548   7.533   2.808
 1602SOL     OW 6702   8.844  14.428  14.415
 1602SOL    HW1 6703   8.911  14.475  14.364
 1602SOL    HW2 6704   8.832  14.480  14.494
 1603SOL     OW 6705   6.611  14.422   2.581
 1603SOL    HW1 6706   6.688  14.470   2.612
 1603SOL    HW2 6707   6.574  14.478   2.513
 1604SOL     OW 6708   9.318   4.025  13.236
 1604SOL    HW1 6709   9.261   4.102  13.232
 1604SOL    HW2 6710   9.406   4.061  13.244
 1605SOL     OW 6711  10.158  12.577  10.976
 1605SOL    HW1 6712  10.158  12.669  10.951
 1605SOL    HW2 6713  10.090  12.570  11.043
 1606SOL     OW 6714  11.003   9.653  11.149
 1606SOL    HW1 6715  11.013   9.731  11.203
 1606SOL    HW2 6716  10.914   9.623  11.165
 1607SOL     OW 6717   8.177   5.825   4.148
 1607SOL    HW1 6718   8.104   5.802   4.091
 1607SOL    HW2 6719   8.146   5.805   4.237
 1608SOL     OW 6720  11.317   7.171   7.315
 1608SOL    HW1 6721  11.308   7.184   7.410
 1608SOL    HW2 6722  11.271   7.245   7.276
 1609SOL     OW 6723  13.752   3.536  11.301
 1609SOL    HW1 6724  13.824   3.479  11.271
 1609SOL    HW2 6725  13.689   3.534  11.230
 1610SOL     OW 6726   6.021   3.798   2.091
 1610SOL    HW1 6727   6.036   3.824   2.182
 1610SOL    HW2 6728   6.106   3.766   2.060
 1611SOL     OW 6729   3.054   3.476  11.794
 1611SOL    HW1 6730   3.126   3.415  11.780
 1611SOL    HW2 6731   3.094   3.563  11.784
 1612SOL     OW 6732   2.521  13.620  13.024
 1612SOL    HW1 6733   2.573  13.627  12.944
 1612SOL    HW2 6734   2.556  13.542  13.069
 1613SOL     OW 6735   0.473   8.123  12.670
 1613SOL    HW1 6736   0.514   8.133  12.756
 1613SOL    HW2 6737   0.416   8.047  12.679
 1614SOL     OW 6738   5.315  14.580   7.331
 1614SOL    HW1 6739   5.409  14.569   7.315
 1614SOL    HW2 6740   5.306  14.672   7.357
 1615SOL     OW 6741   0.441   5.151  10.810
 1615SOL    HW1 6742   0.423   5.058  10.818
 1615SOL    HW2 6743   0.491   5.173  10.889
 1616SOL     OW 6744   3.089   1.775  10.502
 1616SOL    HW1 6745   3.117   1.740  10.587
 1616SOL    HW2 6746   3.020   1.715  10.474
 1617SOL     OW 6747   8.672   7.495   3.603
 1617SOL    HW1 6748   8.681   7.547   3.523
 1617SOL    HW2 6749   8.759   7.501   3.644
 1618SOL     OW 6750   8.502  12.294  14.114
 1618SOL    HW1 6751   8.471  12.237  14.184
 1618SOL    HW2 6752   8.594  12.270  14.103
 1619SOL     OW 6753   3.805   8.486   4.855
 1619SOL    HW1 6754   3.842   8.443   4.932
 1619SOL    HW2 6755   3.853   8.449   4.781
 1620SOL     OW 6756  13.548   5.676   6.069
 1620SOL    HW1 6757  13.516   5.698   6.156
 1620SOL    HW2 6758  13.630   5.725   6.060
 1621SOL     OW 6759  12.292   1.282   4.792
 1621SOL    HW1 6760  12.327   1.212   4.738
 1621SOL    HW2 6761  12.254   1.237   4.868
 1622SOL     OW 6762   2.534   7.706  13.064
 1622SOL    HW1 6763   2.598   7.713  13.135
 1622SOL    HW2 6764   2.547   7.786  13.013
 1623SOL     OW 6765   0.683  11.923   4.979
 1623SOL    HW1 6766   0.739  11.855   4.942
 1623SOL    HW2 6767   0.630  11.879   5.045
 1624SOL     OW 6768   8.108   2.956  11.772
 1624SOL    HW1 6769   8.018   2.950  11.804
 1624SOL    HW2 6770   8.151   2.878  11.807
 1625SOL     OW 6771   4.833  13.524   1.832
 1625SOL    HW1 6772   4.794  13.450   1.785
 1625SOL    HW2 6773   4.896  13.561   1.770
 1626SOL     OW 6774   2.380  10.585  10.818
 1626SOL    HW1 6775   2.421  10.638  10.750
 1626SOL    HW2 6776   2.294  10.562  10.783
 1627SOL     OW 6777   6.800  10.363   0.239
 1627SOL    HW1 6778   6.734  10.302   0.206
 1627SOL    HW2 6779   6.807  10.344   0.332
 1628SOL     OW 6780   9.146  12.657  13.666
 1628SOL    HW1 6781   9.077  12.591  13.671
 1628SOL    HW2 6782   9.138  12.706  13.748
 1629SOL     OW 6783   2.407   1.868   0.224
 1629SOL    HW1 6784   2.460   1.838   0.298
 1629SOL    HW2 6785   2.427   1.962   0.218
 1630SOL     OW 6786   4.932   3.338  14.665
 1630SOL    HW1 6787   4.924   3.253  14.622
 1630SOL    HW2 6788   4.906   3.401  14.597
 1631SOL     OW 6789   9.056   2.068  10.784
 1631SOL    HW1 6790   9.014   1.984  10.802
 1631SOL    HW2 6791   9.102   2.089  10.865
 1632SOL     OW 6792  11.842   0.485  11.025
 1632SOL    HW1 6793  11.775   0.458  11.087
 1632SOL    HW2 6794  11.851   0.579  11.038
 1633SOL     OW 6795   4.102  10.246   7.382
 1633SOL    HW1 6796   4.197  10.238   7.394
 1633SOL    HW2 6797   4.092  10.286   7.296
 1634SOL     OW 6798   4.324  10.992   3.650
 1634SOL    HW1 6799   4.319  11.060   3.582
 1634SOL    HW2 6800   4.233  10.979   3.678
 1635SOL     OW 6801   9.425   5.842  12.853
 1635SOL    HW1 6802   9.368   5.799  12.790
 1635SOL    HW2 6803   9.367   5.861  12.928
 1636SOL     OW 6804   8.935   2.809   9.292
 1636SOL    HW1 6805   8.907   2.840   9.206
 1636SOL    HW2 6806   8.882   2.859   9.355
 1637SOL     OW 6807   8.578   1.225   5.576
 1637SOL    HW1 6808   8.628   1.256   5.500
 1637SOL    HW2 6809   8.621   1.143   5.601
 1638SOL     OW 6810   6.836   3.616   1.831
 1638SOL    HW1 6811   6.885   3.545   1.871
 1638SOL    HW2 6812   6.745   3.587   1.833
 1639SOL     OW 6813   7.944  12.530   6.758
 1639SOL    HW1 6814   7.935  12.530   6.853
 1639SOL    HW2 6815   8.007  12.461   6.740
 1640SOL     OW 6816   8.917   6.468  12.402
 1640SOL    HW1 6817   8.843   6.415  12.433
 1640SOL    HW2 6818   8.883   6.512  12.324
 1641SOL     OW 6819   3.540   3.257   3.538
 1641SOL    HW1 6820   3.467   3.315   3.557
 1641SOL    HW2 6821   3.587   3.302   3.467
 1642SOL     OW 6822  10.282   4.384   1.868
 1642SOL    HW1 6823  10.251   4.470   1.898
 1642SOL    HW2 6824  10.354   4.362   1.926
 1643SOL     OW 6825   4.053   6.214   5.667
 1643SOL    HW1 6826   4.131   6.182   5.623
 1643SOL    HW2 6827   4.023   6.140   5.720
 1644SOL     OW 6828   4.104   9.802   6.679
 1644SOL    HW1 6829   4.097   9.792   6.584
 1644SOL    HW2 6830   4.178   9.747   6.703
 1645SOL     OW 6831  10.272   7.322   7.355
 1645SOL    HW1 6832  10.184   7.286   7.349
 1645SOL    HW2 6833  10.259   7.416   7.364
 1646SOL     OW 6834   8.544  12.291   9.922
 1646SOL    HW1 6835   8.492  12.279   9.843
 1646SOL    HW2 6836   8.563  12.202   9.951
 1647SOL     OW 6837  12.619  13.128   6.983
 1647SOL    HW1 6838  12.552  13.071   7.023
 1647SOL    HW2 6839  12.662  13.170   7.058
 1648SOL     OW 6840  11.592  10.632  10.125
 1648SOL    HW1 6841  11.575  10.687  10.201
 1648SOL    HW2 6842  11.655  10.567  10.156
 1649SOL     OW 6843  10.519  14.817  14.549
 1649SOL    HW1 6844  10.441  14.762  14.545
 1649SOL    HW2 6845  10.548  14.825  14.458
 1650SOL     OW 6846   2.564   6.024  10.931
 1650SOL    HW1 6847   2.619   6.020  11.010
 1650SOL    HW2 6848   2.567   6.115  10.905
 1651SOL     OW 6849   2.117  11.984  14.824
 1651SOL    HW1 6850   2.140  12.041   0.025
 1651SOL    HW2 6851   2.024  11.965  14.837
 1652SOL     OW 6852   0.195   5.177  10.679
 1652SOL    HW1 6853   0.270   5.180  10.737
 1652SOL    HW2 6854   0.226   5.215  10.597
 1653SOL     OW 6855   3.821  11.082   6.084
 1653SOL    HW1 6856   3.816  11.073   5.989
 1653SOL    HW2 6857   3.899  11.031   6.108
 1654SOL     OW 6858   9.818   2.818   0.161
 1654SOL    HW1 6859   9.726   2.842   0.164
 1654SOL    HW2 6860   9.833   2.788   0.071
 1655SOL     OW 6861   2.142   1.332   3.041
 1655SOL    HW1 6862   2.207   1.278   3.086
 1655SOL    HW2 6863   2.079   1.355   3.109
 1656SOL     OW 6864   5.061   2.410   8.181
 1656SOL    HW1 6865   5.080   2.433   8.090
 1656SOL    HW2 6866   5.135   2.445   8.230
 1657SOL     OW 6867   1.117   1.765   9.878
 1657SOL    HW1 6868   1.175   1.807   9.815
 1657SOL    HW2 6869   1.130   1.814   9.960
 1658SOL     OW 6870   8.908  10.044   2.308
 1658SOL    HW1 6871   8.812  10.052   2.310
 1658SOL    HW2 6872   8.932  10.028   2.399
 1659SOL     OW 6873  12.121   7.004   3.652
 1659SOL    HW1 6874  12.200   7.045   3.615
 1659SOL    HW2 6875  12.115   6.920   3.606
 1660SOL     OW 6876   2.747   9.503  14.819
 1660SOL    HW1 6877   2.667   9.502  14.871
 1660SOL    HW2 6878   2.794   9.424  14.845
 1661SOL     OW 6879   4.603   2.555   4.723
 1661SOL    HW1 6880   4.658   2.496   4.671
 1661SOL    HW2 6881   4.611   2.640   4.679
 1662SOL     OW 6882  11.296   4.741   7.722
 1662SOL    HW1 6883  11.219   4.731   7.666
 1662SOL    HW2 6884  11.365   4.692   7.677
 1663SOL     OW 6885   5.265  11.507   4.972
 1663SOL    HW1 6886   5.279  11.527   4.880
 1663SOL    HW2 6887   5.323  11.567   5.019
 1664SOL     OW 6888  12.125   4.307   5.674
 1664SOL    HW1 6889  12.100   4.311   5.766
 1664SOL    HW2 6890  12.042   4.294   5.628
 1665SOL     OW 6891   9.894   3.122   1.165
 1665SOL    HW1 6892   9.942   3.205   1.159
 1665SOL    HW2 6893   9.812   3.145   1.208
 1666SOL     OW 6894   6.880   5.143   4.243
 1666SOL    HW1 6895   6.881   5.229   4.287
 1666SOL    HW2 6896   6.864   5.164   4.151
 1667SOL     OW 6897   9.337   0.753   3.347
 1667SOL    HW1 6898   9.242   0.743   3.347
 1667SOL    HW2 6899   9.370   0.669   3.315
 1668SOL     OW 6900   3.693   6.670  12.048
 1668SOL    HW1 6901   3.694   6.765  12.036
 1668SOL    HW2 6902   3.745   6.636  11.976
 1669SOL     OW 6903   2.094   5.020   2.090
 1669SOL    HW1 6904   2.175   5.045   2.045
 1669SOL    HW2 6905   2.123   4.970   2.166
 1670SOL     OW 6906   5.441  12.104   5.739
 1670SOL    HW1 6907   5.401  12.020   5.763
 1670SOL    HW2 6908   5.452  12.098   5.644
 1671SOL     OW 6909   0.149  10.076   5.213
 1671SOL    HW1 6910   0.183  10.147   5.158
 1671SOL    HW2 6911   0.065  10.053   5.173
 1672SOL     OW 6912   4.949   0.354  12.764
 1672SOL    HW1 6913   4.985   0.351  12.675
 1672SOL    HW2 6914   4.949   0.447  12.787
 1673SOL     OW 6915   1.455  12.938  12.547
 1673SOL    HW1 6916   1.503  13.002  12.494
 1673SOL    HW2 6917   1.518  12.867  12.562
 1674SOL     OW 6918   1.203   5.883   8.966
 1674SOL    HW1 6919   1.145   5.820   8.924
 1674SOL    HW2 6920   1.269   5.903   8.900
 1675SOL     OW 6921  12.954   2.464   6.547
 1675SOL    HW1 6922  12.953   2.538   6.485
 1675SOL    HW2 6923  12.988   2.391   6.496
 1676SOL     OW 6924  14.410   6.923   9.900
 1676SOL    HW1 6925  14.323   6.932   9.939
 1676SOL    HW2 6926  14.446   7.012   9.901
 1677SOL     OW 6927   5.447   8.399   7.110
 1677SOL    HW1 6928   5.523   8.369   7.061
 1677SOL    HW2 6929   5.375   8.394   7.047
 1678SOL     OW 6930   5.729   0.331   1.981
 1678SOL    HW1 6931   5.658   0.388   1.954
 1678SOL    HW2 6932   5.723   0.255   1.922
 1679SOL     OW 6933  11.183   1.339   7.077
 1679SOL    HW1 6934  11.177   1.289   6.995
 1679SOL    HW2 6935  11.276   1.360   7.084
 1680SOL     OW 6936   2.524   2.473   2.956
 1680SOL    HW1 6937   2.511   2.564   2.984
 1680SOL    HW2 6938   2.440   2.431   2.970
 1681SOL     OW 6939  10.337   7.908   6.253
 1681SOL    HW1 6940  10.362   7.829   6.204
 1681SOL    HW2 6941  10.285   7.959   6.191
 1682SOL     OW 6942  11.410   0.415   2.079
 1682SOL    HW1 6943  11.492   0.399   2.126
 1682SOL    HW2 6944  11.435   0.415   1.987
 1683SOL     OW 6945   3.693   9.595   9.290
 1683SOL    HW1 6946   3.723   9.678   9.253
 1683SOL    HW2 6947   3.611   9.616   9.335
 1684SOL     OW 6948   7.789   2.097   5.614
 1684SOL    HW1 6949   7.695   2.114   5.613
 1684SOL    HW2 6950   7.797   2.004   5.636
 1685SOL     OW 6951   3.784   9.118   3.791
 1685SOL    HW1 6952   3.792   9.123   3.886
 1685SOL    HW2 6953   3.865   9.075   3.762
 1686SOL     OW 6954   8.140   0.001  11.369
 1686SOL    HW1 6955   8.146   0.079  11.315
 1686SOL    HW2 6956   8.197  14.809  11.325
 1687SOL     OW 6957  11.802   7.472   0.080
 1687SOL    HW1 6958  11.711   7.494   0.103
 1687SOL    HW2 6959  11.831   7.546   0.026
 1688SOL     OW 6960   4.717   4.115  12.929
 1688SOL    HW1 6961   4.734   4.085  13.019
 1688SOL    HW2 6962   4.797   4.162  12.905
 1689SOL     OW 6963   9.555  14.423  12.610
 1689SOL    HW1 6964   9.583  14.509  12.578
 1689SOL    HW2 6965   9.515  14.442  12.695
 1690SOL     OW 6966  11.819   1.195  14.730
 1690SOL    HW1 6967  11.735   1.150  14.724
 1690SOL    HW2 6968  11.795   1.287  14.742
 1691SOL     OW 6969   5.045  11.993   5.326
 1691SOL    HW1 6970   4.952  12.019   5.333
 1691SOL    HW2 6971   5.092  12.067   5.364
 1692SOL     OW 6972   1.949  14.060   9.369
 1692SOL    HW1 6973   1.873  14.083   9.316
 1692SOL    HW2 6974   2.024  14.068   9.309
 1693SOL     OW 6975   3.297   1.556   8.251
 1693SOL    HW1 6976   3.307   1.475   8.300
 1693SOL    HW2 6977   3.319   1.532   8.161
 1694SOL     OW 6978   4.515   8.231  14.587
 1694SOL    HW1 6979   4.496   8.265  14.674
 1694SOL    HW2 6980   4.450   8.162  14.574
 1695SOL     OW 6981  10.760   7.457  13.351
 1695SOL    HW1 6982  10.826   7.416  13.407
 1695SOL    HW2 6983  10.718   7.522  13.407
 1696SOL     OW 6984   0.280   5.819  12.397
 1696SOL    HW1 6985   0.308   5.802  12.307
 1696SOL    HW2 6986   0.201   5.872  12.388
 1697SOL     OW 6987  14.706  11.109   0.213
 1697SOL    HW1 6988  14.666  11.171   0.274
 1697SOL    HW2 6989  14.644  11.103   0.140
 1698SOL     OW 6990   1.726   9.580   6.491
 1698SOL    HW1 6991   1.780   9.542   6.421
 1698SOL    HW2 6992   1.637   9.575   6.457
 1699SOL     OW 6993   2.142  13.151  12.691
 1699SOL    HW1 6994   2.145  13.166  12.785
 1699SOL    HW2 6995   2.100  13.230  12.655
 1700SOL     OW 6996   8.816   8.694  11.872
 1700SOL    HW1 6997   8.876   8.737  11.933
 1700SOL    HW2 6998   8.824   8.601  11.891
 1701SOL     OW 6999   9.298  11.558   7.869
 1701SOL    HW1 7000   9.336  11.475   7.841
 1701SOL    HW2 7001   9.217  11.565   7.819
 1702SOL     OW 7002   5.562   6.479   1.473
 1702SOL    HW1 7003   5.620   6.554   1.464
 1702SOL    HW2 7004   5.573   6.429   1.392
 1703SOL     OW 7005   4.246   2.432  12.964
 1703SOL    HW1 7006   4.281   2.467  13.046
 1703SOL    HW2 7007   4.198   2.505  12.925
 1704SOL     OW 7008   4.463   3.639   4.450
 1704SOL    HW1 7009   4.462   3.728   4.417
 1704SOL    HW2 7010   4.460   3.584   4.372
 1705SOL     OW 7011   0.734   5.300  14.417
 1705SOL    HW1 7012   0.681   5.233  14.459
 1705SOL    HW2 7013   0.786   5.253  14.352
 1706SOL     OW 7014   2.030   4.085   5.384
 1706SOL    HW1 7015   1.957   4.028   5.410
 1706SOL    HW2 7016   2.097   4.068   5.450
 1707SOL     OW 7017   4.577   3.104   8.260
 1707SOL    HW1 7018   4.505   3.105   8.323
 1707SOL    HW2 7019   4.534   3.114   8.175
 1708SOL     OW 7020   2.337   1.007  12.950
 1708SOL    HW1 7021   2.296   1.093  12.963
 1708SOL    HW2 7022   2.327   0.990  12.856
 1709SOL     OW 7023  13.103   1.154  10.954
 1709SOL    HW1 7024  13.183   1.110  10.926
 1709SOL    HW2 7025  13.118   1.175  11.046
 1710SOL     OW 7026   6.359   7.965  13.199
 1710SOL    HW1 7027   6.314   7.993  13.278
 1710SOL    HW2 7028   6.386   7.874  13.217
 1711SOL     OW 7029   7.754   3.212   8.358
 1711SOL    HW1 7030   7.814   3.190   8.429
 1711SOL    HW2 7031   7.784   3.297   8.326
 1712SOL     OW 7032   9.165   5.629   4.995
 1712SOL    HW1 7033   9.149   5.687   5.069
 1712SOL    HW2 7034   9.210   5.553   5.033
 1713SOL     OW 7035   2.886   1.284   5.128
 1713SOL    HW1 7036   2.840   1.247   5.203
 1713SOL    HW2 7037   2.842   1.247   5.052
 1714SOL     OW 7038  13.832  13.693   5.855
 1714SOL    HW1 7039  13.743  13.664   5.876
 1714SOL    HW2 7040  13.820  13.777   5.811
 1715SOL     OW 7041   6.071  12.859   6.406
 1715SOL    HW1 7042   6.123  12.924   6.454
 1715SOL    HW2 7043   6.135  12.810   6.355
 1716SOL     OW 7044   0.723  14.119  11.317
 1716SOL    HW1 7045   0.682  14.205  11.306
 1716SOL    HW2 7046   0.650  14.057  11.318
 1717SOL     OW 7047  14.630  11.864   2.184
 1717SOL    HW1 7048  14.623  11.912   2.102
 1717SOL    HW2 7049  14.543  11.828   2.199
 1718SOL     OW 7050   1.928   1.670   8.021
 1718SOL    HW1 7051   1.999   1.656   8.084
 1718SOL    HW2 7052   1.972   1.669   7.935
 1719SOL     OW 7053   8.035   7.692   4.846
 1719SOL    HW1 7054   7.956   7.673   4.897
 1719SOL    HW2 7055   8.003   7.727   4.763
 1720SOL     OW 7056   1.170   4.036   9.689
 1720SOL    HW1 7057   1.145   4.104   9.626
 1720SOL    HW2 7058   1.188   3.959   9.634
 1721SOL     OW 7059  12.845  10.874  10.161
 1721SOL    HW1 7060  12.824  10.914  10.245
 1721SOL    HW2 7061  12.763  10.878  10.111
 1722SOL     OW 7062   3.788   4.244   5.410
 1722SOL    HW1 7063   3.736   4.318   5.441
 1722SOL    HW2 7064   3.724   4.176   5.389
 1723SOL     OW 7065   0.983   4.334  14.306
 1723SOL    HW1 7066   0.959   4.424  14.283
 1723SOL    HW2 7067   1.030   4.302  14.230
 1724SOL     OW 7068   6.123   2.125  12.111
 1724SOL    HW1 7069   6.028   2.118  12.110
 1724SOL    HW2 7070   6.145   2.151  12.200
 1725SOL     OW 7071   8.484   9.974   2.044
 1725SOL    HW1 7072   8.457   9.882   2.035
 1725SOL    HW2 7073   8.414  10.023   2.002
 1726SOL     OW 7074   2.449   4.490  10.053
 1726SOL    HW1 7075   2.507   4.553  10.098
 1726SOL    HW2 7076   2.470   4.500   9.961
 1727SOL     OW 7077   3.778   2.514   1.565
 1727SOL    HW1 7078   3.819   2.431   1.589
 1727SOL    HW2 7079   3.773   2.563   1.647
 1728SOL     OW 7080  13.729   9.038   6.054
 1728SOL    HW1 7081  13.801   8.987   6.091
 1728SOL    HW2 7082  13.768   9.082   5.978
 1729SOL     OW 7083   8.867  14.754   4.498
 1729SOL    HW1 7084   8.918  14.787   4.424
 1729SOL    HW2 7085   8.905  14.798   4.574
 1730SOL     OW 7086   6.907   4.005  12.066
 1730SOL    HW1 7087   6.855   3.931  12.096
 1730SOL    HW2 7088   6.978   3.966  12.015
 1731SOL     OW 7089   9.755   3.209  11.741
 1731SOL    HW1 7090   9.711   3.144  11.686
 1731SOL    HW2 7091   9.782   3.278  11.680
 1732SOL     OW 7092  13.621   6.946  12.952
 1732SOL    HW1 7093  13.541   6.926  13.001
 1732SOL    HW2 7094  13.633   7.040  12.963
 1733SOL     OW 7095   4.179   5.064   5.607
 1733SOL    HW1 7096   4.140   5.118   5.677
 1733SOL    HW2 7097   4.182   5.122   5.531
 1734SOL     OW 7098  10.529   0.714  11.438
 1734SOL    HW1 7099  10.600   0.716  11.374
 1734SOL    HW2 7100  10.451   0.694  11.387
 1735SOL     OW 7101   4.380   2.380  14.726
 1735SOL    HW1 7102   4.427   2.461  14.744
 1735SOL    HW2 7103   4.352   2.348  14.812
 1736SOL     OW 7104  11.773  12.251   2.689
 1736SOL    HW1 7105  11.838  12.248   2.759
 1736SOL    HW2 7106  11.807  12.193   2.622
 1737SOL     OW 7107   8.118   0.108   3.148
 1737SOL    HW1 7108   8.075   0.084   3.066
 1737SOL    HW2 7109   8.204   0.064   3.144
 1738SOL     OW 7110  13.822   0.555  10.928
 1738SOL    HW1 7111  13.861   0.557  10.841
 1738SOL    HW2 7112  13.731   0.532  10.914
 1739SOL     OW 7113   3.243   6.891   1.977
 1739SOL    HW1 7114   3.312   6.858   1.919
 1739SOL    HW2 7115   3.199   6.958   1.925
 1740SOL     OW 7116   0.184   4.248   4.071
 1740SOL    HW1 7117   0.140   4.301   4.137
 1740SOL    HW2 7118   0.277   4.256   4.092
 1741SOL     OW 7119   3.935   0.575   7.500
 1741SOL    HW1 7120   3.869   0.645   7.502
 1741SOL    HW2 7121   3.991   0.597   7.426
 1742SOL     OW 7122  10.641   9.510   1.614
 1742SOL    HW1 7123  10.596   9.426   1.629
 1742SOL    HW2 7124  10.734   9.487   1.612
 1743SOL     OW 7125  12.308   1.801   4.637
 1743SOL    HW1 7126  12.218   1.780   4.663
 1743SOL    HW2 7127  12.362   1.743   4.691
 1744SOL     OW 7128   4.731   7.430  13.314
 1744SOL    HW1 7129   4.665   7.474  13.260
 1744SOL    HW2 7130   4.784   7.502  13.349
 1745SOL     OW 7131   0.413   2.098   9.516
 1745SOL    HW1 7132   0.426   2.003   9.518
 1745SOL    HW2 7133   0.501   2.133   9.530
 1746SOL     OW 7134   0.411   0.567   3.057
 1746SOL    HW1 7135   0.491   0.544   3.009
 1746SOL    HW2 7136   0.340   0.529   3.005
 1747SOL     OW 7137   0.814  12.828   9.983
 1747SOL    HW1 7138   0.832  12.746   9.938
 1747SOL    HW2 7139   0.788  12.802  10.072
 1748SOL     OW 7140   4.793   4.749   6.131
 1748SOL    HW1 7141   4.876   4.727   6.088
 1748SOL    HW2 7142   4.728   4.699   6.082
 1749SOL     OW 7143  11.335  10.265   3.857
 1749SOL    HW1 7144  11.338  10.294   3.948
 1749SOL    HW2 7145  11.299  10.340   3.809
 1750SOL     OW 7146   2.802   5.179  13.600
 1750SOL    HW1 7147   2.862   5.194  13.527
 1750SOL    HW2 7148   2.716   5.170  13.559
 1751SOL     OW 7149   0.035  14.415   8.542
 1751SOL    HW1 7150   0.040  14.321   8.555
 1751SOL    HW2 7151   0.087  14.452   8.613
 1752SOL     OW 7152  12.919   5.165   6.477
 1752SOL    HW1 7153  12.846   5.115   6.441
 1752SOL    HW2 7154  12.971   5.101   6.526
 1753SOL     OW 7155   2.214   5.903   1.980
 1753SOL    HW1 7156   2.286   5.845   2.003
 1753SOL    HW2 7157   2.189   5.944   2.063
 1754SOL     OW 7158   7.818   5.442   0.008
 1754SOL    HW1 7159   7.781   5.354   0.009
 1754SOL    HW2 7160   7.743   5.500   0.024
 1755SOL     OW 7161   2.333   1.205   7.933
 1755SOL    HW1 7162   2.331   1.166   7.846
 1755SOL    HW2 7163   2.241   1.210   7.959
 1756SOL     OW 7164   4.306   2.457   4.733
 1756SOL    HW1 7165   4.374   2.392   4.756
 1756SOL    HW2 7166   4.350   2.518   4.674
 1757SOL     OW 7167  11.333   1.392   5.901
 1757SOL    HW1 7168  11.341   1.359   5.811
 1757SOL    HW2 7169  11.245   1.430   5.906
 1758SOL     OW 7170   7.880   2.931   6.571
 1758SOL    HW1 7171   7.857   3.013   6.528
 1758SOL    HW2 7172   7.974   2.938   6.587
 1759SOL     OW 7173   2.633   9.218  12.831
 1759SOL    HW1 7174   2.714   9.197  12.877
 1759SOL    HW2 7175   2.600   9.134  12.799
 1760SOL     OW 7176   0.823   1.982  14.016
 1760SOL    HW1 7177   0.875   1.937  14.082
 1760SOL    HW2 7178   0.807   2.069  14.053
 1761SOL     OW 7179   7.329  12.131  12.851
 1761SOL    HW1 7180   7.240  12.141  12.817
 1761SOL    HW2 7181   7.382  12.110  12.775
 1762SOL     OW 7182   2.976   9.680  12.614
 1762SOL    HW1 7183   2.979   9.612  12.681
 1762SOL    HW2 7184   2.935   9.755  12.657
 1763SOL     OW 7185   7.695  13.096   6.544
 1763SOL    HW1 7186   7.788  13.101   6.518
 1763SOL    HW2 7187   7.686  13.009   6.582
 1764SOL     OW 7188   0.094  13.264   0.722
 1764SOL    HW1 7189   0.086  13.308   0.638
 1764SOL    HW2 7190   0.042  13.318   0.782
 1765SOL     OW 7191  14.145   2.682  11.840
 1765SOL    HW1 7192  14.124   2.772  11.814
 1765SOL    HW2 7193  14.084   2.662  11.911
 1766SOL     OW 7194   2.201   0.410   2.921
 1766SOL    HW1 7195   2.143   0.341   2.888
 1766SOL    HW2 7196   2.279   0.363   2.952
 1767SOL     OW 7197   2.986  13.396   5.552
 1767SOL    HW1 7198   2.947  13.324   5.601
 1767SOL    HW2 7199   2.944  13.474   5.587
 1768SOL     OW 7200   6.806   1.565  13.333
 1768SOL    HW1 7201   6.802   1.522  13.247
 1768SOL    HW2 7202   6.834   1.496  13.393
 1769SOL     OW 7203  13.030  13.141   9.391
 1769SOL    HW1 7204  13.007  13.061   9.439
 1769SOL    HW2 7205  12.989  13.131   9.305
 1770SOL     OW 7206   2.515   1.048  13.160
 1770SOL    HW1 7207   2.533   1.128  13.111
 1770SOL    HW2 7208   2.441   1.008  13.115
 1771SOL     OW 7209   3.795  14.398  12.557
 1771SOL    HW1 7210   3.749  14.411  12.640
 1771SOL    HW2 7211   3.845  14.317  12.570
 1772SOL     OW 7212   9.706   0.316   1.541
 1772SOL    HW1 7213   9.750   0.259   1.603
 1772SOL    HW2 7214   9.618   0.279   1.532
 1773SOL     OW 7215  10.470   5.056  14.582
 1773SOL    HW1 7216  10.408   5.009  14.638
 1773SOL    HW2 7217  10.514   5.118  14.640
 1774SOL     OW 7218   3.721  14.010   3.645
 1774SOL    HW1 7219   3.721  14.058   3.728
 1774SOL    HW2 7220   3.629  14.003   3.621
 1775SOL     OW 7221   8.410   4.068   6.852
 1775SOL    HW1 7222   8.426   4.091   6.943
 1775SOL    HW2 7223   8.407   4.152   6.806
 1776SOL     OW 7224   6.785   3.740   1.462
 1776SOL    HW1 7225   6.819   3.788   1.387
 1776SOL    HW2 7226   6.693   3.724   1.441
 1777SOL     OW 7227   4.972   2.185  12.158
 1777SOL    HW1 7228   5.010   2.117  12.103
 1777SOL    HW2 7229   5.002   2.267  12.119
 1778SOL     OW 7230  14.237  12.887  10.178
 1778SOL    HW1 7231  14.156  12.835  10.177
 1778SOL    HW2 7232  14.229  12.943  10.255
 1779SOL     OW 7233   1.680   8.250  13.364
 1779SOL    HW1 7234   1.729   8.248  13.281
 1779SOL    HW2 7235   1.593   8.280  13.340
 1780SOL     OW 7236   1.908   6.888  14.641
 1780SOL    HW1 7237   1.841   6.820  14.634
 1780SOL    HW2 7238   1.868   6.966  14.604
 1781SOL     OW 7239   1.305  12.714   0.625
 1781SOL    HW1 7240   1.270  12.763   0.551
 1781SOL    HW2 7241   1.399  12.711   0.611
 1782SOL     OW 7242   0.230   4.234   2.705
 1782SOL    HW1 7243   0.243   4.328   2.716
 1782SOL    HW2 7244   0.160   4.212   2.767
 1783SOL     OW 7245   2.876   4.247   3.080
 1783SOL    HW1 7246   2.890   4.324   3.025
 1783SOL    HW2 7247   2.964   4.213   3.095
 1784SOL     OW 7248   4.474  10.827  11.247
 1784SOL    HW1 7249   4.488  10.875  11.328
 1784SOL    HW2 7250   4.563  10.808  11.215
 1785SOL     OW 7251   1.115  13.478   8.923
 1785SOL    HW1 7252   1.095  13.460   8.831
 1785SOL    HW2 7253   1.062  13.556   8.944
 1786SOL     OW 7254   2.181  10.049   8.617
 1786SOL    HW1 7255   2.257  10.012   8.572
 1786SOL    HW2 7256   2.170   9.995   8.695
 1787SOL     OW 7257  11.068   5.530   6.083
 1787SOL    HW1 7258  11.068   5.453   6.140
 1787SOL    HW2 7259  11.142   5.583   6.113
 1788SOL     OW 7260  12.046  12.832  10.673
 1788SOL    HW1 7261  11.980  12.874  10.728
 1788SOL    HW2 7262  12.130  12.864  10.706
 1789SOL     OW 7263   6.547   9.402   2.833
 1789SOL    HW1 7264   6.512   9.321   2.870
 1789SOL    HW2 7265   6.506   9.471   2.885
 1790SOL     OW 7266   5.891  10.596  14.102
 1790SOL    HW1 7267   5.875  10.515  14.054
 1790SOL    HW2 7268   5.835  10.660  14.059
 1791SOL     OW 7269  14.506   2.441   7.326
 1791SOL    HW1 7270  14.562   2.435   7.403
 1791SOL    HW2 7271  14.537   2.520   7.280
 1792SOL     OW 7272   2.415   2.214  11.803
 1792SOL    HW1 7273   2.351   2.143  11.811
 1792SOL    HW2 7274   2.485   2.190  11.864
 1793SOL     OW 7275   5.367   2.208   5.100
 1793SOL    HW1 7276   5.388   2.199   5.007
 1793SOL    HW2 7277   5.452   2.222   5.143
 1794SOL     OW 7278   9.910   4.402   7.062
 1794SOL    HW1 7279   9.834   4.365   7.106
 1794SOL    HW2 7280   9.980   4.400   7.128
 1795SOL     OW 7281  10.115  11.626   1.049
 1795SOL    HW1 7282  10.104  11.577   0.968
 1795SOL    HW2 7283  10.210  11.630   1.061
 1796SOL     OW 7284  12.539  13.922   3.272
 1796SOL    HW1 7285  12.481  13.859   3.314
 1796SOL    HW2 7286  12.490  13.953   3.196
 1797SOL     OW 7287  12.082  13.824   7.043
 1797SOL    HW1 7288  11.999  13.851   7.003
 1797SOL    HW2 7289  12.108  13.898   7.097
 1798SOL     OW 7290  13.543   7.809   5.560
 1798SOL    HW1 7291  13.475   7.874   5.542
 1798SOL    HW2 7292  13.577   7.833   5.646
 1799SOL     OW 7293   3.062   3.908  11.023
 1799SOL    HW1 7294   3.152   3.881  11.043
 1799SOL    HW2 7295   3.007   3.848  11.073
 1800SOL     OW 7296  14.102   4.927   9.912
 1800SOL    HW1 7297  14.017   4.901   9.877
 1800SOL    HW2 7298  14.100   5.022   9.913
 1801SOL     OW 7299   8.425  14.092  10.099
 1801SOL    HW1 7300   8.430  14.138  10.182
 1801SOL    HW2 7301   8.484  14.016  10.110
 1802SOL     OW 7302   6.413   2.882   8.211
 1802SOL    HW1 7303   6.428   2.945   8.281
 1802SOL    HW2 7304   6.338   2.918   8.162
 1803SOL     OW 7305   5.239  14.450   3.988
 1803SOL    HW1 7306   5.183  14.373   3.987
 1803SOL    HW2 7307   5.328  14.416   3.976
 1804SOL     OW 7308   5.149   6.665  13.976
 1804SOL    HW1 7309   5.175   6.746  13.931
 1804SOL    HW2 7310   5.232   6.624  14.000
 1805SOL     OW 7311   8.999   1.574   0.646
 1805SOL    HW1 7312   8.989   1.485   0.613
 1805SOL    HW2 7313   9.026   1.563   0.738
 1806SOL     OW 7314   7.433   0.014   8.902
 1806SOL    HW1 7315   7.351   0.002   8.950
 1806SOL    HW2 7316   7.484   0.073   8.957
 1807SOL     OW 7317   3.015   7.238   5.834
 1807SOL    HW1 7318   3.077   7.201   5.771
 1807SOL    HW2 7319   3.069   7.290   5.893
 1808SOL     OW 7320   3.488   5.137   6.426
 1808SOL    HW1 7321   3.454   5.175   6.507
 1808SOL    HW2 7322   3.573   5.102   6.449
 1809SOL     OW 7323  12.485   9.332  14.680
 1809SOL    HW1 7324  12.392   9.342  14.701
 1809SOL    HW2 7325  12.502   9.238  14.689
 1810SOL     OW 7326  14.618  10.033   9.757
 1810SOL    HW1 7327  14.689  10.087   9.722
 1810SOL    HW2 7328  14.662   9.959   9.798
 1811SOL     OW 7329   4.496  13.669  13.832
 1811SOL    HW1 7330   4.403  13.688  13.830
 1811SOL    HW2 7331   4.522  13.666  13.739
 1812SOL     OW 7332  11.094   0.943   9.250
 1812SOL    HW1 7333  11.021   1.003   9.266
 1812SOL    HW2 7334  11.105   0.943   9.155
 1813SOL     OW 7335   3.110  11.878  13.493
 1813SOL    HW1 7336   3.095  11.784  13.487
 1813SOL    HW2 7337   3.169  11.897  13.419
 1814SOL     OW 7338   0.041  10.594  11.037
 1814SOL    HW1 7339   0.064  10.501  11.031
 1814SOL    HW2 7340   0.000  10.603  11.123
 1815SOL     OW 7341  11.033   9.127   8.282
 1815SOL    HW1 7342  10.976   9.177   8.339
 1815SOL    HW2 7343  11.006   9.036   8.293
 1816SOL     OW 7344  12.534   5.400  10.669
 1816SOL    HW1 7345  12.475   5.473  10.653
 1816SOL    HW2 7346  12.605   5.412  10.606
 1817SOL     OW 7347   8.579   2.001   1.759
 1817SOL    HW1 7348   8.606   2.010   1.851
 1817SOL    HW2 7349   8.536   1.916   1.755
 1818SOL     OW 7350  11.031  13.700  14.171
 1818SOL    HW1 7351  11.036  13.745  14.256
 1818SOL    HW2 7352  10.956  13.739  14.127
 1819SOL     OW 7353   3.735   2.250   2.800
 1819SOL    HW1 7354   3.729   2.334   2.755
 1819SOL    HW2 7355   3.771   2.190   2.735
 1820SOL     OW 7356   3.603   4.957   6.806
 1820SOL    HW1 7357   3.689   4.925   6.833
 1820SOL    HW2 7358   3.570   4.891   6.745
 1821SOL     OW 7359  13.474   8.088   4.765
 1821SOL    HW1 7360  13.477   8.179   4.735
 1821SOL    HW2 7361  13.398   8.084   4.823
 1822SOL     OW 7362   1.469   5.358   9.400
 1822SOL    HW1 7363   1.522   5.285   9.368
 1822SOL    HW2 7364   1.379   5.326   9.397
 1823SOL     OW 7365   9.493   3.673   6.909
 1823SOL    HW1 7366   9.568   3.631   6.867
 1823SOL    HW2 7367   9.439   3.600   6.939
 1824SOL     OW 7368   0.107   2.054   9.810
 1824SOL    HW1 7369   0.150   1.972   9.785
 1824SOL    HW2 7370   0.042   2.027   9.876
 1825SOL     OW 7371   7.707   8.340   5.577
 1825SOL    HW1 7372   7.658   8.326   5.496
 1825SOL    HW2 7373   7.667   8.278   5.639
 1826SOL     OW 7374   3.187   4.389  13.612
 1826SOL    HW1 7375   3.141   4.322  13.663
 1826SOL    HW2 7376   3.212   4.455  13.677
 1827SOL     OW 7377   6.360   4.760   1.918
 1827SOL    HW1 7378   6.349   4.694   1.850
 1827SOL    HW2 7379   6.420   4.720   1.981
 1828SOL     OW 7380   1.911   4.475   8.406
 1828SOL    HW1 7381   1.880   4.535   8.474
 1828SOL    HW2 7382   1.942   4.398   8.453
 1829SOL     OW 7383   0.831  10.013   1.467
 1829SOL    HW1 7384   0.816   9.997   1.560
 1829SOL    HW2 7385   0.754  10.062   1.439
 1830SOL     OW 7386   1.678   4.909   6.487
 1830SOL    HW1 7387   1.621   4.833   6.500
 1830SOL    HW2 7388   1.767   4.873   6.490
 1831SOL     OW 7389   6.515   5.344  12.431
 1831SOL    HW1 7390   6.487   5.351  12.522
 1831SOL    HW2 7391   6.541   5.253  12.420
 1832SOL     OW 7392   2.451  14.846   7.635
 1832SOL    HW1 7393   2.358  14.865   7.625
 1832SOL    HW2 7394   2.455  14.783   7.707
 1833SOL     OW 7395  14.005   0.999  10.761
 1833SOL    HW1 7396  14.079   0.996  10.701
 1833SOL    HW2 7397  14.004   1.089  10.794
 1834SOL     OW 7398   9.969   7.465   6.553
 1834SOL    HW1 7399  10.036   7.531   6.567
 1834SOL    HW2 7400  10.009   7.383   6.583
 1835SOL     OW 7401  13.057   7.127   1.064
 1835SOL    HW1 7402  13.105   7.114   0.983
 1835SOL    HW2 7403  13.123   7.120   1.133
 1836SOL     OW 7404   0.605  13.406  13.534
 1836SOL    HW1 7405   0.695  13.426  13.506
 1836SOL    HW2 7406   0.607  13.418  13.629
 1837SOL     OW 7407  10.521   8.356   9.047
 1837SOL    HW1 7408  10.471   8.431   9.080
 1837SOL    HW2 7409  10.547   8.381   8.959
 1838SOL     OW 7410  11.762  10.677   2.786
 1838SOL    HW1 7411  11.849  10.637   2.787
 1838SOL    HW2 7412  11.778  10.769   2.767
 1839SOL     OW 7413   2.474   0.569   4.804
 1839SOL    HW1 7414   2.555   0.619   4.797
 1839SOL    HW2 7415   2.436   0.573   4.716
 1840SOL     OW 7416   7.142   3.956   8.315
 1840SOL    HW1 7417   7.217   3.896   8.315
 1840SOL    HW2 7418   7.182   4.043   8.322
 1841SOL     OW 7419   8.211  14.087   2.483
 1841SOL    HW1 7420   8.179  14.170   2.518
 1841SOL    HW2 7421   8.257  14.047   2.557
 1842SOL     OW 7422  14.181   1.991   6.816
 1842SOL    HW1 7423  14.262   1.998   6.765
 1842SOL    HW2 7424  14.147   2.080   6.818
 1843SOL     OW 7425  12.646  14.170   1.038
 1843SOL    HW1 7426  12.624  14.248   1.089
 1843SOL    HW2 7427  12.690  14.112   1.100
 1844SOL     OW 7428   2.722   7.602   7.601
 1844SOL    HW1 7429   2.712   7.512   7.570
 1844SOL    HW2 7430   2.662   7.610   7.675
 1845SOL     OW 7431   9.574   3.403   8.474
 1845SOL    HW1 7432   9.571   3.436   8.384
 1845SOL    HW2 7433   9.634   3.329   8.470
 1846SOL     OW 7434  14.385   4.932   7.456
 1846SOL    HW1 7435  14.314   4.888   7.408
 1846SOL    HW2 7436  14.357   4.928   7.548
 1847SOL     OW 7437   9.422   3.371   4.167
 1847SOL    HW1 7438   9.445   3.461   4.145
 1847SOL    HW2 7439   9.420   3.370   4.263
 1848SOL     OW 7440   1.485  10.623   9.036
 1848SOL    HW1 7441   1.470  10.707   9.078
 1848SOL    HW2 7442   1.408  10.608   8.981
 1849SOL     OW 7443  11.804   2.671  14.000
 1849SOL    HW1 7444  11.801   2.728  13.923
 1849SOL    HW2 7445  11.826   2.730  14.073
 1850SOL     OW 7446   5.107   4.441  11.695
 1850SOL    HW1 7447   5.015   4.427  11.675
 1850SOL    HW2 7448   5.107   4.472  11.786
 1851SOL     OW 7449   5.324  11.575  14.190
 1851SOL    HW1 7450   5.371  11.618  14.261
 1851SOL    HW2 7451   5.340  11.631  14.114
 1852SOL     OW 7452  12.191   2.725  11.925
 1852SOL    HW1 7453  12.237   2.760  12.002
 1852SOL    HW2 7454  12.098   2.734  11.947
 1853SOL     OW 7455   4.140   8.290   6.428
 1853SOL    HW1 7456   4.229   8.267   6.455
 1853SOL    HW2 7457   4.084   8.247   6.492
 1854SOL     OW 7458   8.054   6.603   0.028
 1854SOL    HW1 7459   8.117   6.598   0.100
 1854SOL    HW2 7460   8.029   6.513   0.012
 1855SOL     OW 7461  14.028  13.606   0.007
 1855SOL    HW1 7462  13.962  13.674   0.022
 1855SOL    HW2 7463  13.991  13.527   0.047
 1856SOL     OW 7464  14.332   4.107   3.250
 1856SOL    HW1 7465  14.276   4.061   3.188
 1856SOL    HW2 7466  14.421   4.092   3.218
 1857SOL     OW 7467  14.517   7.470  12.728
 1857SOL    HW1 7468  14.437   7.522  12.725
 1857SOL    HW2 7469  14.499   7.395  12.672
 1858SOL     OW 7470  13.512  14.836   5.982
 1858SOL    HW1 7471  13.421  14.849   5.954
 1858SOL    HW2 7472  13.520   0.017   6.061
 1859SOL     OW 7473   2.785   6.482  14.232
 1859SOL    HW1 7474   2.733   6.439  14.164
 1859SOL    HW2 7475   2.862   6.427  14.242
 1860SOL     OW 7476   1.830  14.226  10.272
 1860SOL    HW1 7477   1.768  14.269  10.330
 1860SOL    HW2 7478   1.809  14.132  10.278
 1861SOL     OW 7479   3.256   7.476   7.352
 1861SOL    HW1 7480   3.272   7.523   7.434
 1861SOL    HW2 7481   3.203   7.537   7.299
 1862SOL     OW 7482   8.868  12.494   2.358
 1862SOL    HW1 7483   8.858  12.507   2.453
 1862SOL    HW2 7484   8.808  12.557   2.319
 1863SOL     OW 7485   8.724   3.364   5.035
 1863SOL    HW1 7486   8.721   3.323   5.122
 1863SOL    HW2 7487   8.726   3.458   5.053
 1864SOL     OW 7488   3.612  11.090  11.123
 1864SOL    HW1 7489   3.611  11.045  11.039
 1864SOL    HW2 7490   3.555  11.037  11.179
 1865SOL     OW 7491   8.910  13.495  11.579
 1865SOL    HW1 7492   8.895  13.401  11.573
 1865SOL    HW2 7493   8.922  13.512  11.673
 1866SOL     OW 7494   0.065   2.117  12.398
 1866SOL    HW1 7495   0.078   2.208  12.425
 1866SOL    HW2 7496   0.078   2.066  12.479
 1867SOL     OW 7497   4.465  12.111  13.711
 1867SOL    HW1 7498   4.380  12.128  13.753
 1867SOL    HW2 7499   4.442  12.068  13.628
 1868SOL     OW 7500  13.854  12.945   8.578
 1868SOL    HW1 7501  13.763  12.947   8.605
 1868SOL    HW2 7502  13.898  12.893   8.645
 1869SOL     OW 7503  10.695   7.313   3.277
 1869SOL    HW1 7504  10.681   7.319   3.182
 1869SOL    HW2 7505  10.648   7.233   3.303
 1870SOL     OW 7506   8.444   2.929  12.640
 1870SOL    HW1 7507   8.433   2.847  12.592
 1870SOL    HW2 7508   8.504   2.908  12.712
 1871SOL     OW 7509   5.638  12.738   5.516
 1871SOL    HW1 7510   5.678  12.766   5.598
 1871SOL    HW2 7511   5.688  12.784   5.448
 1872SOL     OW 7512   7.170  11.288   3.310
 1872SOL    HW1 7513   7.093  11.230   3.316
 1872SOL    HW2 7514   7.208  11.287   3.398
 1873SOL     OW 7515  12.846   8.386  14.750
 1873SOL    HW1 7516  12.885   8.358  14.833
 1873SOL    HW2 7517  12.893   8.335  14.684
 1874SOL     OW 7518   2.257   6.914  12.921
 1874SOL    HW1 7519   2.315   6.910  12.845
 1874SOL    HW2 7520   2.297   6.855  12.985
 1875SOL     OW 7521  14.769  13.524  13.743
 1875SOL    HW1 7522  14.678  13.497  13.731
 1875SOL    HW2 7523  14.768  13.584  13.817
 1876SOL     OW 7524  11.502  14.595   9.386
 1876SOL    HW1 7525  11.537  14.684   9.390
 1876SOL    HW2 7526  11.407  14.606   9.381
 1877SOL     OW 7527   9.621  13.283  14.544
 1877SOL    HW1 7528   9.711  13.298  14.573
 1877SOL    HW2 7529   9.619  13.191  14.518
 1878SOL     OW 7530   2.561   2.875   6.259
 1878SOL    HW1 7531   2.630   2.891   6.323
 1878SOL    HW2 7532   2.501   2.815   6.303
 1879SOL     OW 7533  13.509  12.786   2.408
 1879SOL    HW1 7534  13.529  12.696   2.383
 1879SOL    HW2 7535  13.567  12.805   2.481
 1880SOL     OW 7536   8.554   4.137  12.391
 1880SOL    HW1 7537   8.557   4.198  12.465
 1880SOL    HW2 7538   8.513   4.059  12.427
 1881SOL     OW 7539   7.599   4.177  10.004
 1881SOL    HW1 7540   7.588   4.188   9.910
 1881SOL    HW2 7541   7.534   4.236  10.043
 1882SOL     OW 7542   6.038   7.234   0.441
 1882SOL    HW1 7543   6.009   7.262   0.528
 1882SOL    HW2 7544   6.111   7.175   0.458
 1883SOL     OW 7545   3.400   3.725   0.023
 1883SOL    HW1 7546   3.406   3.811  14.854
 1883SOL    HW2 7547   3.487   3.710   0.059
 1884SOL     OW 7548  14.703   7.909  14.289
 1884SOL    HW1 7549  14.780   7.963  14.272
 1884SOL    HW2 7550  14.646   7.924  14.214
 1885SOL     OW 7551  11.013   3.174   3.835
 1885SOL    HW1 7552  11.030   3.105   3.771
 1885SOL    HW2 7553  10.938   3.141   3.886
 1886SOL     OW 7554  12.019   7.514   2.839
 1886SOL    HW1 7555  12.056   7.601   2.851
 1886SOL    HW2 7556  12.091   7.460   2.807
 1887SOL     OW 7557   6.690   3.489   2.612
 1887SOL    HW1 7558   6.646   3.562   2.655
 1887SOL    HW2 7559   6.685   3.417   2.675
 1888SOL     OW 7560   6.643   5.621   3.352
 1888SOL    HW1 7561   6.739   5.611   3.352
 1888SOL    HW2 7562   6.613   5.563   3.422
 1889SOL     OW 7563   1.986  14.166   7.438
 1889SOL    HW1 7564   1.943  14.201   7.360
 1889SOL    HW2 7565   1.913  14.143   7.496
 1890SOL     OW 7566   4.116   2.030   6.185
 1890SOL    HW1 7567   4.021   2.041   6.182
 1890SOL    HW2 7568   4.145   2.050   6.096
 1891SOL     OW 7569   7.016   5.088   0.842
 1891SOL    HW1 7570   7.027   5.181   0.824
 1891SOL    HW2 7571   6.946   5.061   0.782
 1892SOL     OW 7572  12.530   9.533   6.945
 1892SOL    HW1 7573  12.483   9.512   6.864
 1892SOL    HW2 7574  12.466   9.520   7.015
 1893SOL     OW 7575  10.058   9.029   4.063
 1893SOL    HW1 7576  10.113   9.108   4.063
 1893SOL    HW2 7577  10.056   9.001   3.972
 1894SOL     OW 7578   5.494   9.190   2.341
 1894SOL    HW1 7579   5.553   9.255   2.380
 1894SOL    HW2 7580   5.437   9.163   2.413
 1895SOL     OW 7581   6.780   8.064  11.204
 1895SOL    HW1 7582   6.751   8.022  11.285
 1895SOL    HW2 7583   6.771   7.997  11.137
 1896SOL     OW 7584   4.396   2.392   1.596
 1896SOL    HW1 7585   4.463   2.364   1.658
 1896SOL    HW2 7586   4.334   2.320   1.593
 1897SOL     OW 7587   9.843  12.021  12.385
 1897SOL    HW1 7588   9.847  11.953  12.453
 1897SOL    HW2 7589   9.933  12.054  12.380
 1898SOL     OW 7590   3.265  12.893   7.556
 1898SOL    HW1 7591   3.329  12.927   7.494
 1898SOL    HW2 7592   3.305  12.908   7.642
 1899SOL     OW 7593   9.722   5.107   0.579
 1899SOL    HW1 7594   9.765   5.083   0.497
 1899SOL    HW2 7595   9.773   5.063   0.647
 1900SOL     OW 7596   9.331  10.846   7.516
 1900SOL    HW1 7597   9.363  10.936   7.508
 1900SOL    HW2 7598   9.320  10.833   7.610
 1901SOL     OW 7599   8.122   0.655   5.047
 1901SOL    HW1 7600   8.161   0.719   4.987
 1901SOL    HW2 7601   8.107   0.577   4.993
 1902SOL     OW 7602   9.879  12.533  12.844
 1902SOL    HW1 7603   9.869  12.628  12.853
 1902SOL    HW2 7604   9.952  12.511  12.902
 1903SOL     OW 7605   6.545   8.021   4.773
 1903SOL    HW1 7606   6.607   7.995   4.841
 1903SOL    HW2 7607   6.462   8.035   4.819
 1904SOL     OW 7608  13.096   3.344   2.172
 1904SOL    HW1 7609  13.061   3.333   2.084
 1904SOL    HW2 7610  13.143   3.427   2.169
 1905SOL     OW 7611   3.143   8.174   6.863
 1905SOL    HW1 7612   3.050   8.188   6.882
 1905SOL    HW2 7613   3.189   8.227   6.928
 1906SOL     OW 7614  10.539  10.974  13.795
 1906SOL    HW1 7615  10.573  11.053  13.838
 1906SOL    HW2 7616  10.557  10.904  13.858
 1907SOL     OW 7617  13.457   2.957   7.288
 1907SOL    HW1 7618  13.412   2.899   7.351
 1907SOL    HW2 7619  13.449   2.911   7.204
 1908SOL     OW 7620  12.815  13.227   7.180
 1908SOL    HW1 7621  12.766  13.249   7.260
 1908SOL    HW2 7622  12.905  13.217   7.210
 1909SOL     OW 7623   4.682   7.337   1.638
 1909SOL    HW1 7624   4.615   7.269   1.637
 1909SOL    HW2 7625   4.633   7.419   1.630
 1910SOL     OW 7626   4.846   4.974  13.949
 1910SOL    HW1 7627   4.797   5.048  13.915
 1910SOL    HW2 7628   4.909   4.953  13.879
 1911SOL     OW 7629   7.851  12.443   7.195
 1911SOL    HW1 7630   7.841  12.478   7.284
 1911SOL    HW2 7631   7.765  12.456   7.155
 1912SOL     OW 7632   9.814  11.885  12.142
 1912SOL    HW1 7633   9.806  11.926  12.229
 1912SOL    HW2 7634   9.772  11.947  12.083
 1913SOL     OW 7635  12.086  13.669   3.710
 1913SOL    HW1 7636  12.074  13.761   3.688
 1913SOL    HW2 7637  12.052  13.660   3.799
 1914SOL     OW 7638  11.041   8.482   6.520
 1914SOL    HW1 7639  11.134   8.465   6.532
 1914SOL    HW2 7640  11.015   8.424   6.448
 1915SOL     OW 7641   0.019   4.854   8.412
 1915SOL    HW1 7642  14.812   4.894   8.447
 1915SOL    HW2 7643   0.074   4.928   8.386
 1916SOL     OW 7644  13.163   2.747   0.207
 1916SOL    HW1 7645  13.098   2.684   0.239
 1916SOL    HW2 7646  13.113   2.829   0.196
 1917SOL     OW 7647   8.114  14.266   8.857
 1917SOL    HW1 7648   8.173  14.199   8.822
 1917SOL    HW2 7649   8.042  14.269   8.794
 1918SOL     OW 7650   2.431  10.499  12.648
 1918SOL    HW1 7651   2.519  10.469  12.670
 1918SOL    HW2 7652   2.426  10.587  12.685
 1919SOL     OW 7653  11.811   4.767   3.371
 1919SOL    HW1 7654  11.785   4.808   3.454
 1919SOL    HW2 7655  11.741   4.705   3.351
 1920SOL     OW 7656   8.924   2.230   4.639
 1920SOL    HW1 7657   8.964   2.165   4.582
 1920SOL    HW2 7658   8.986   2.241   4.711
 1921SOL     OW 7659   9.402   7.753   8.210
 1921SOL    HW1 7660   9.310   7.778   8.212
 1921SOL    HW2 7661   9.401   7.657   8.205
 1922SOL     OW 7662  14.389  10.653  12.240
 1922SOL    HW1 7663  14.443  10.732  12.229
 1922SOL    HW2 7664  14.304  10.686  12.268
 1923SOL     OW 7665  13.121   0.381   5.650
 1923SOL    HW1 7666  13.143   0.452   5.588
 1923SOL    HW2 7667  13.034   0.403   5.682
 1924SOL     OW 7668   3.381   5.911  11.445
 1924SOL    HW1 7669   3.345   5.999  11.442
 1924SOL    HW2 7670   3.314   5.856  11.404
 1925SOL     OW 7671  12.857   6.566  12.345
 1925SOL    HW1 7672  12.803   6.533  12.272
 1925SOL    HW2 7673  12.890   6.487  12.388
 1926SOL     OW 7674  14.618  11.390   6.966
 1926SOL    HW1 7675  14.545  11.452   6.971
 1926SOL    HW2 7676  14.649  11.383   7.056
 1927SOL     OW 7677   5.799  12.369   9.684
 1927SOL    HW1 7678   5.726  12.310   9.700
 1927SOL    HW2 7679   5.834  12.388   9.771
 1928SOL     OW 7680   4.917  11.616   2.015
 1928SOL    HW1 7681   4.874  11.698   1.992
 1928SOL    HW2 7682   4.907  11.561   1.937
 1929SOL     OW 7683   0.137   6.484  13.715
 1929SOL    HW1 7684   0.174   6.563  13.756
 1929SOL    HW2 7685   0.043   6.492  13.728
 1930SOL     OW 7686   9.766  10.724   1.666
 1930SOL    HW1 7687   9.811  10.776   1.732
 1930SOL    HW2 7688   9.688  10.775   1.644
 1931SOL     OW 7689  12.350  14.745   7.040
 1931SOL    HW1 7690  12.358  14.839   7.023
 1931SOL    HW2 7691  12.258  14.732   7.062
 1932SOL     OW 7692   9.565   3.497  14.805
 1932SOL    HW1 7693   9.542   3.417  14.851
 1932SOL    HW2 7694   9.641   3.531  14.852
 1933SOL     OW 7695   8.986   4.603  13.909
 1933SOL    HW1 7696   8.994   4.521  13.862
 1933SOL    HW2 7697   8.894   4.627  13.901
 1934SOL     OW 7698   8.497   1.802   0.153
 1934SOL    HW1 7699   8.432   1.789   0.222
 1934SOL    HW2 7700   8.479   1.732   0.090
 1935SOL     OW 7701  14.430  10.550  14.373
 1935SOL    HW1 7702  14.443  10.625  14.314
 1935SOL    HW2 7703  14.434  10.474  14.316
 1936SOL     OW 7704   6.689   1.144  10.227
 1936SOL    HW1 7705   6.664   1.065  10.276
 1936SOL    HW2 7706   6.608   1.170  10.182
 1937SOL     OW 7707   9.686   0.243   0.282
 1937SOL    HW1 7708   9.744   0.184   0.234
 1937SOL    HW2 7709   9.729   0.328   0.277
 1938SOL     OW 7710   7.537  10.331   9.067
 1938SOL    HW1 7711   7.551  10.251   9.119
 1938SOL    HW2 7712   7.554  10.304   8.977
 1939SOL     OW 7713   3.936   7.738   1.608
 1939SOL    HW1 7714   4.010   7.740   1.668
 1939SOL    HW2 7715   3.959   7.671   1.544
 1940SOL     OW 7716   4.582  11.817   0.739
 1940SOL    HW1 7717   4.566  11.857   0.825
 1940SOL    HW2 7718   4.675  11.830   0.724
 1941SOL     OW 7719   4.739   9.055   6.428
 1941SOL    HW1 7720   4.815   9.055   6.370
 1941SOL    HW2 7721   4.679   8.991   6.389
 1942SOL     OW 7722   3.786   1.484   5.106
 1942SOL    HW1 7723   3.800   1.504   5.013
 1942SOL    HW2 7724   3.707   1.533   5.129
 1943SOL     OW 7725  13.973   3.367  10.767
 1943SOL    HW1 7726  14.016   3.396  10.848
 1943SOL    HW2 7727  13.932   3.446  10.731
 1944SOL     OW 7728  11.852   8.725   5.225
 1944SOL    HW1 7729  11.893   8.812   5.221
 1944SOL    HW2 7730  11.885   8.686   5.305
 1945SOL     OW 7731  14.054  14.196   8.707
 1945SOL    HW1 7732  13.959  14.185   8.699
 1945SOL    HW2 7733  14.087  14.175   8.619
 1946SOL     OW 7734   2.510   0.299   4.788
 1946SOL    HW1 7735   2.582   0.277   4.847
 1946SOL    HW2 7736   2.498   0.393   4.800
 1947SOL     OW 7737   2.243  12.083   4.000
 1947SOL    HW1 7738   2.196  12.090   3.917
 1947SOL    HW2 7739   2.229  12.168   4.043
 1948SOL     OW 7740   2.712   2.280   1.668
 1948SOL    HW1 7741   2.644   2.227   1.626
 1948SOL    HW2 7742   2.697   2.268   1.762
 1949SOL     OW 7743  12.567   6.538   8.900
 1949SOL    HW1 7744  12.534   6.503   8.983
 1949SOL    HW2 7745  12.650   6.494   8.886
 1950SOL     OW 7746   5.694   4.791  14.057
 1950SOL    HW1 7747   5.645   4.782  14.138
 1950SOL    HW2 7748   5.627   4.801  13.989
 1951SOL     OW 7749   0.332   7.171  11.348
 1951SOL    HW1 7750   0.283   7.164  11.429
 1951SOL    HW2 7751   0.268   7.155  11.279
 1952SOL     OW 7752   0.506  11.180   5.589
 1952SOL    HW1 7753   0.549  11.177   5.503
 1952SOL    HW2 7754   0.578  11.184   5.652
 1953SOL     OW 7755   0.546   2.239   3.420
 1953SOL    HW1 7756   0.555   2.292   3.341
 1953SOL    HW2 7757   0.532   2.150   3.388
 1954SOL     OW 7758   8.067   0.210   9.865
 1954SOL    HW1 7759   8.106   0.298   9.860
 1954SOL    HW2 7760   8.108   0.162   9.793
 1955SOL     OW 7761   5.921   3.425   5.292
 1955SOL    HW1 7762   5.843   3.475   5.315
 1955SOL    HW2 7763   5.991   3.491   5.290
 1956SOL     OW 7764  11.145   1.496  10.002
 1956SOL    HW1 7765  11.156   1.413   9.956
 1956SOL    HW2 7766  11.068   1.483  10.057
 1957SOL     OW 7767  10.591   8.730  12.786
 1957SOL    HW1 7768  10.638   8.667  12.840
 1957SOL    HW2 7769  10.511   8.684  12.760
 1958SOL     OW 7770   2.557  12.434   9.116
 1958SOL    HW1 7771   2.607  12.418   9.036
 1958SOL    HW2 7772   2.620  12.422   9.187
 1959SOL     OW 7773   6.606  13.388   6.151
 1959SOL    HW1 7774   6.596  13.484   6.152
 1959SOL    HW2 7775   6.602  13.363   6.243
 1960SOL     OW 7776   8.860   1.589  10.137
 1960SOL    HW1 7777   8.810   1.587  10.218
 1960SOL    HW2 7778   8.845   1.676  10.101
 1961SOL     OW 7779   6.258   7.374   0.767
 1961SOL    HW1 7780   6.328   7.400   0.708
 1961SOL    HW2 7781   6.292   7.391   0.855
 1962SOL     OW 7782   5.471  13.668   1.100
 1962SOL    HW1 7783   5.427  13.589   1.067
 1962SOL    HW2 7784   5.564  13.644   1.098
 1963SOL     OW 7785   0.187   0.133   2.910
 1963SOL    HW1 7786   0.281   0.154   2.907
 1963SOL    HW2 7787   0.180   0.070   2.982
 1964SOL     OW 7788   0.626  12.190   8.063
 1964SOL    HW1 7789   0.553  12.169   8.121
 1964SOL    HW2 7790   0.596  12.265   8.012
 1965SOL     OW 7791  11.605   6.224   6.869
 1965SOL    HW1 7792  11.650   6.296   6.913
 1965SOL    HW2 7793  11.628   6.147   6.922
 1966SOL     OW 7794   3.957   3.128   7.782
 1966SOL    HW1 7795   3.969   3.209   7.833
 1966SOL    HW2 7796   3.874   3.141   7.736
 1967SOL     OW 7797  13.838  13.685  12.319
 1967SOL    HW1 7798  13.910  13.746  12.307
 1967SOL    HW2 7799  13.809  13.700  12.409
 1968SOL     OW 7800   3.567  11.333  10.839
 1968SOL    HW1 7801   3.519  11.401  10.792
 1968SOL    HW2 7802   3.555  11.356  10.932
 1969SOL     OW 7803   1.183  13.022   1.298
 1969SOL    HW1 7804   1.235  13.010   1.377
 1969SOL    HW2 7805   1.204  12.945   1.244
 1970SOL     OW 7806  14.775   1.670   2.329
 1970SOL    HW1 7807  14.868   1.651   2.321
 1970SOL    HW2 7808  14.731   1.601   2.279
 1971SOL     OW 7809  11.853   4.920   1.157
 1971SOL    HW1 7810  11.901   4.925   1.240
 1971SOL    HW2 7811  11.821   4.830   1.154
 1972SOL     OW 7812  14.718   7.560   3.573
 1972SOL    HW1 7813  14.676   7.495   3.630
 1972SOL    HW2 7814  14.757   7.508   3.502
 1973SOL     OW 7815   8.265   4.674   7.883
 1973SOL    HW1 7816   8.187   4.619   7.886
 1973SOL    HW2 7817   8.254   4.727   7.804
 1974SOL     OW 7818  14.637   8.744   6.534
 1974SOL    HW1 7819  14.587   8.815   6.573
 1974SOL    HW2 7820  14.719   8.785   6.504
 1975SOL     OW 7821   3.541  11.069   4.648
 1975SOL    HW1 7822   3.567  11.076   4.556
 1975SOL    HW2 7823   3.573  11.149   4.689
 1976SOL     OW 7824   6.886   5.379   7.399
 1976SOL    HW1 7825   6.907   5.455   7.452
 1976SOL    HW2 7826   6.964   5.364   7.345
 1977SOL     OW 7827  12.434  10.549   6.526
 1977SOL    HW1 7828  12.471  10.609   6.591
 1977SOL    HW2 7829  12.495  10.550   6.453
 1978SOL     OW 7830  11.535   9.245  13.790
 1978SOL    HW1 7831  11.584   9.319  13.754
 1978SOL    HW2 7832  11.585   9.217  13.866
 1979SOL     OW 7833  12.835   4.227   1.751
 1979SOL    HW1 7834  12.826   4.229   1.656
 1979SOL    HW2 7835  12.926   4.200   1.766
 1980SOL     OW 7836   6.792  10.360  12.850
 1980SOL    HW1 7837   6.726  10.328  12.789
 1980SOL    HW2 7838   6.789  10.455  12.842
 1981SOL     OW 7839   7.163   7.880   5.958
 1981SOL    HW1 7840   7.095   7.821   5.925
 1981SOL    HW2 7841   7.239   7.863   5.902
 1982SOL     OW 7842   2.787   0.892  11.103
 1982SOL    HW1 7843   2.789   0.807  11.147
 1982SOL    HW2 7844   2.856   0.943  11.145
 1983SOL     OW 7845  11.201  12.869   9.190
 1983SOL    HW1 7846  11.178  12.813   9.264
 1983SOL    HW2 7847  11.264  12.818   9.140
 1984SOL     OW 7848  11.464   8.409  10.051
 1984SOL    HW1 7849  11.406   8.464   9.998
 1984SOL    HW2 7850  11.470   8.454  10.135
 1985SOL     OW 7851   3.415   2.066   7.243
 1985SOL    HW1 7852   3.479   2.137   7.247
 1985SOL    HW2 7853   3.334   2.107   7.213
 1986SOL     OW 7854  12.186  12.040   9.564
 1986SOL    HW1 7855  12.246  12.115   9.569
 1986SOL    HW2 7856  12.228  11.981   9.502
 1987SOL     OW 7857   7.163   6.020   2.702
 1987SOL    HW1 7858   7.193   5.932   2.725
 1987SOL    HW2 7859   7.242   6.067   2.678
 1988SOL     OW 7860  10.301   1.538   3.380
 1988SOL    HW1 7861  10.278   1.606   3.443
 1988SOL    HW2 7862  10.217   1.495   3.360
 1989SOL     OW 7863   9.112   4.554   1.481
 1989SOL    HW1 7864   9.153   4.629   1.524
 1989SOL    HW2 7865   9.122   4.482   1.544
 1990SOL     OW 7866   8.933   2.606   1.408
 1990SOL    HW1 7867   8.929   2.673   1.340
 1990SOL    HW2 7868   9.019   2.565   1.397
 1991SOL     OW 7869  13.659   6.258  10.664
 1991SOL    HW1 7870  13.583   6.312  10.688
 1991SOL    HW2 7871  13.718   6.267  10.739
 1992SOL     OW 7872  13.656   5.430   5.997
 1992SOL    HW1 7873  13.752   5.439   5.993
 1992SOL    HW2 7874  13.625   5.518   6.018
 1993SOL     OW 7875   0.468   6.640  12.944
 1993SOL    HW1 7876   0.451   6.726  12.983
 1993SOL    HW2 7877   0.381   6.602  12.931
 1994SOL     OW 7878   4.278   5.541   0.911
 1994SOL    HW1 7879   4.316   5.456   0.931
 1994SOL    HW2 7880   4.190   5.537   0.949
 1995SOL     OW 7881   6.119  13.147   0.592
 1995SOL    HW1 7882   6.066  13.202   0.534
 1995SOL    HW2 7883   6.128  13.199   0.672
 1996SOL     OW 7884   5.040   5.516  14.057
 1996SOL    HW1 7885   5.065   5.431  14.022
 1996SOL    HW2 7886   5.082   5.580  13.998
 1997SOL     OW 7887   8.533  13.639  11.695
 1997SOL    HW1 7888   8.605  13.580  11.718
 1997SOL    HW2 7889   8.458  13.605  11.743
 1998SOL     OW 7890   1.402  12.805  14.121
 1998SOL    HW1 7891   1.346  12.784  14.195
 1998SOL    HW2 7892   1.463  12.871  14.155
 1999SOL     OW 7893   6.115   4.362   1.387
 1999SOL    HW1 7894   6.190   4.332   1.336
 1999SOL    HW2 7895   6.124   4.316   1.471
 2000SOL     OW 7896  10.839  13.350  13.160
 2000SOL    HW1 7897  10.782  13.425  13.149
 2000SOL    HW2 7898  10.792  13.277  13.120
 2001SOL     OW 7899   1.326   1.379   4.831
 2001SOL    HW1 7900   1.230   1.378   4.835
 2001SOL    HW2 7901   1.347   1.461   4.785
 2002SOL     OW 7902   5.306   2.756   0.584
 2002SOL    HW1 7903   5.213   2.769   0.603
 2002SOL    HW2 7904   5.352   2.796   0.657
 2003SOL     OW 7905  13.773   9.551   6.548
 2003SOL    HW1 7906  13.719   9.611   6.496
 2003SOL    HW2 7907  13.762   9.466   6.505
 2004SOL     OW 7908   5.271   4.586   6.958
 2004SOL    HW1 7909   5.240   4.656   7.015
 2004SOL    HW2 7910   5.330   4.629   6.896
 2005SOL     OW 7911  14.333  12.209   5.980
 2005SOL    HW1 7912  14.329  12.116   5.959
 2005SOL    HW2 7913  14.386  12.248   5.910
 2006SOL     OW 7914   2.343  13.438   1.120
 2006SOL    HW1 7915   2.392  13.495   1.061
 2006SOL    HW2 7916   2.308  13.370   1.064
 2007SOL     OW 7917   0.496   9.973   2.930
 2007SOL    HW1 7918   0.550   9.913   2.981
 2007SOL    HW2 7919   0.477  10.045   2.991
 2008SOL     OW 7920   5.757  11.868  12.105
 2008SOL    HW1 7921   5.722  11.841  12.190
 2008SOL    HW2 7922   5.832  11.810  12.091
 2009SOL     OW 7923   7.326   9.147   8.133
 2009SOL    HW1 7924   7.289   9.142   8.221
 2009SOL    HW2 7925   7.256   9.186   8.080
 2010SOL     OW 7926   7.806   2.702  13.940
 2010SOL    HW1 7927   7.892   2.675  13.971
 2010SOL    HW2 7928   7.752   2.624  13.947
 2011SOL     OW 7929   6.118  12.743   5.904
 2011SOL    HW1 7930   6.108  12.672   5.841
 2011SOL    HW2 7931   6.083  12.820   5.859
 2012SOL     OW 7932  12.937  14.605  11.745
 2012SOL    HW1 7933  12.914  14.596  11.652
 2012SOL    HW2 7934  13.010  14.544  11.757
 2013SOL     OW 7935   7.232   2.188  12.569
 2013SOL    HW1 7936   7.283   2.173  12.649
 2013SOL    HW2 7937   7.212   2.100  12.537
 2014SOL     OW 7938   8.341   7.839   0.351
 2014SOL    HW1 7939   8.317   7.845   0.258
 2014SOL    HW2 7940   8.291   7.909   0.393
 2015SOL     OW 7941  11.629   7.747   7.107
 2015SOL    HW1 7942  11.679   7.704   7.176
 2015SOL    HW2 7943  11.630   7.840   7.132
 2016SOL     OW 7944   4.871   5.688  10.989
 2016SOL    HW1 7945   4.868   5.773  10.943
 2016SOL    HW2 7946   4.949   5.645  10.953
 2017SOL     OW 7947   1.611  11.852  13.531
 2017SOL    HW1 7948   1.657  11.927  13.495
 2017SOL    HW2 7949   1.526  11.853  13.488
 2018SOL     OW 7950   4.880   5.592   1.315
 2018SOL    HW1 7951   4.834   5.557   1.239
 2018SOL    HW2 7952   4.870   5.687   1.309
 2019SOL     OW 7953   2.333   2.474  11.340
 2019SOL    HW1 7954   2.243   2.454  11.365
 2019SOL    HW2 7955   2.375   2.389  11.327
 2020SOL     OW 7956   6.113   1.427  13.763
 2020SOL    HW1 7957   6.131   1.406  13.671
 2020SOL    HW2 7958   6.140   1.518  13.772
 2021SOL     OW 7959  14.578  10.170  10.145
 2021SOL    HW1 7960  14.659  10.165  10.196
 2021SOL    HW2 7961  14.556  10.078  10.128
 2022SOL     OW 7962   6.920   0.777   9.567
 2022SOL    HW1 7963   6.916   0.840   9.639
 2022SOL    HW2 7964   7.011   0.784   9.536
 2023SOL     OW 7965   9.380   9.235  13.956
 2023SOL    HW1 7966   9.432   9.315  13.956
 2023SOL    HW2 7967   9.293   9.262  13.928
 2024SOL     OW 7968  11.562   3.996  10.026
 2024SOL    HW1 7969  11.469   4.012  10.011
 2024SOL    HW2 7970  11.565   3.915  10.075
 2025SOL     OW 7971  12.166  12.184   4.217
 2025SOL    HW1 7972  12.154  12.163   4.125
 2025SOL    HW2 7973  12.078  12.205   4.248
 2026SOL     OW 7974   5.977  12.029   3.880
 2026SOL    HW1 7975   5.960  12.025   3.786
 2026SOL    HW2 7976   5.997  12.121   3.897
 2027SOL     OW 7977   4.229  13.318   2.266
 2027SOL    HW1 7978   4.302  13.292   2.210
 2027SOL    HW2 7979   4.179  13.380   2.213
 2028SOL     OW 7980   5.911   2.284  13.791
 2028SOL    HW1 7981   5.829   2.332  13.803
 2028SOL    HW2 7982   5.885   2.204  13.745
 2029SOL     OW 7983  10.505   2.790  14.152
 2029SOL    HW1 7984  10.495   2.765  14.244
 2029SOL    HW2 7985  10.460   2.720  14.104
 2030SOL     OW 7986   1.466   6.008   1.805
 2030SOL    HW1 7987   1.474   6.080   1.867
 2030SOL    HW2 7988   1.515   6.036   1.727
 2031SOL     OW 7989   4.304   5.170   0.279
 2031SOL    HW1 7990   4.280   5.145   0.190
 2031SOL    HW2 7991   4.222   5.204   0.317
 2032SOL     OW 7992   0.989  13.038   5.501
 2032SOL    HW1 7993   1.002  13.100   5.573
 2032SOL    HW2 7994   1.016  12.954   5.536
 2033SOL     OW 7995   9.710   5.983  12.048
 2033SOL    HW1 7996   9.684   6.071  12.022
 2033SOL    HW2 7997   9.640   5.954  12.107
 2034SOL     OW 7998   6.840   1.478  12.753
 2034SOL    HW1 7999   6.803   1.544  12.695
 2034SOL    HW2 8000   6.933   1.501  12.760
 2035SOL     OW 8001  10.441  11.118  12.313
 2035SOL    HW1 8002  10.436  11.184  12.244
 2035SOL    HW2 8003  10.421  11.166  12.393
 2036SOL     OW 8004  13.741   1.385   0.498
 2036SOL    HW1 8005  13.815   1.439   0.470
 2036SOL    HW2 8006  13.665   1.443   0.492
 2037SOL     OW 8007   7.780  10.403   6.429
 2037SOL    HW1 8008   7.810  10.490   6.454
 2037SOL    HW2 8009   7.699  10.390   6.480
 2038SOL     OW 8010  13.857   2.395   7.633
 2038SOL    HW1 8011  13.866   2.314   7.684
 2038SOL    HW2 8012  13.884   2.371   7.545
 2039SOL     OW 8013   5.762  12.971   2.744
 2039SOL    HW1 8014   5.791  12.914   2.815
 2039SOL    HW2 8015   5.695  12.920   2.698
 2040SOL     OW 8016   0.782  10.804   2.363
 2040SOL    HW1 8017   0.828  10.861   2.300
 2040SOL    HW2 8018   0.813  10.716   2.342
 2041SOL     OW 8019   1.966  12.810  13.923
 2041SOL    HW1 8020   1.922  12.738  13.878
 2041SOL    HW2 8021   1.941  12.799  14.015
 2042SOL     OW 8022   7.541   3.945   9.168
 2042SOL    HW1 8023   7.516   3.998   9.243
 2042SOL    HW2 8024   7.617   3.895   9.198
 2043SOL     OW 8025   6.732   4.140   3.280
 2043SOL    HW1 8026   6.715   4.206   3.213
 2043SOL    HW2 8027   6.827   4.124   3.275
 2044SOL     OW 8028  10.282   1.959   2.885
 2044SOL    HW1 8029  10.262   1.885   2.828
 2044SOL    HW2 8030  10.328   2.021   2.829
 2045SOL     OW 8031   0.623   9.212   5.711
 2045SOL    HW1 8032   0.539   9.202   5.665
 2045SOL    HW2 8033   0.672   9.133   5.689
 2046SOL     OW 8034  11.073   5.072  11.573
 2046SOL    HW1 8035  11.070   5.021  11.492
 2046SOL    HW2 8036  11.073   5.163  11.545
 2047SOL     OW 8037   2.357   8.081   1.139
 2047SOL    HW1 8038   2.302   8.154   1.165
 2047SOL    HW2 8039   2.356   8.082   1.044
 2048SOL     OW 8040   2.161  10.409  12.650
 2048SOL    HW1 8041   2.189  10.485  12.600
 2048SOL    HW2 8042   2.195  10.424  12.738
 2049SOL     OW 8043   8.610   2.655   1.721
 2049SOL    HW1 8044   8.705   2.653   1.707
 2049SOL    HW2 8045   8.575   2.596   1.654
 2050SOL     OW 8046   2.038  14.421  10.356
 2050SOL    HW1 8047   1.998  14.414  10.442
 2050SOL    HW2 8048   1.992  14.356  10.302
 2051SOL     OW 8049  10.592  11.802   7.861
 2051SOL    HW1 8050  10.503  11.837   7.870
 2051SOL    HW2 8051  10.626  11.799   7.950
 2052SOL     OW 8052   8.310   2.387   3.730
 2052SOL    HW1 8053   8.385   2.424   3.682
 2052SOL    HW2 8054   8.324   2.414   3.821
 2053SOL     OW 8055   7.257   8.842   9.133
 2053SOL    HW1 8056   7.311   8.763   9.131
 2053SOL    HW2 8057   7.168   8.811   9.115
 2054SOL     OW 8058   8.726   5.218   3.164
 2054SOL    HW1 8059   8.790   5.240   3.096
 2054SOL    HW2 8060   8.745   5.127   3.186
 2055SOL     OW 8061   6.420   2.196   8.110
 2055SOL    HW1 8062   6.376   2.111   8.109
 2055SOL    HW2 8063   6.513   2.175   8.119
 2056SOL     OW 8064  11.134   7.408   4.361
 2056SOL    HW1 8065  11.206   7.393   4.422
 2056SOL    HW2 8066  11.134   7.330   4.305
 2057SOL     OW 8067   3.934  10.861   2.482
 2057SOL    HW1 8068   3.907  10.813   2.404
 2057SOL    HW2 8069   3.866  10.840   2.547
 2058SOL     OW 8070  11.573   2.733   3.832
 2058SOL    HW1 8071  11.598   2.822   3.806
 2058SOL    HW2 8072  11.657   2.687   3.842
 2059SOL     OW 8073   6.811   4.702   6.064
 2059SOL    HW1 8074   6.814   4.780   6.120
 2059SOL    HW2 8075   6.769   4.635   6.118
 2060SOL     OW 8076   9.019  11.073   1.437
 2060SOL    HW1 8077   8.949  11.135   1.414
 2060SOL    HW2 8078   9.053  11.043   1.352
 2061SOL     OW 8079   9.711   2.298   7.048
 2061SOL    HW1 8080   9.683   2.277   6.959
 2061SOL    HW2 8081   9.777   2.367   7.038
 2062SOL     OW 8082  12.920   7.968  14.452
 2062SOL    HW1 8083  12.997   8.013  14.486
 2062SOL    HW2 8084  12.867   8.037  14.413
 2063SOL     OW 8085   2.919   7.174  10.451
 2063SOL    HW1 8086   2.864   7.181  10.372
 2063SOL    HW2 8087   2.901   7.255  10.499
 2064SOL     OW 8088   4.784   0.795  12.337
 2064SOL    HW1 8089   4.828   0.718  12.373
 2064SOL    HW2 8090   4.759   0.846  12.414
 2065SOL     OW 8091   6.965   5.392   4.970
 2065SOL    HW1 8092   6.873   5.417   4.975
 2065SOL    HW2 8093   6.963   5.300   4.943
 2066SOL     OW 8094   1.077  10.182   3.395
 2066SOL    HW1 8095   0.992  10.141   3.411
 2066SOL    HW2 8096   1.140  10.126   3.440
 2067SOL     OW 8097   2.816   8.682   8.725
 2067SOL    HW1 8098   2.757   8.607   8.716
 2067SOL    HW2 8099   2.779   8.749   8.667
 2068SOL     OW 8100  13.394   0.454   5.150
 2068SOL    HW1 8101  13.344   0.390   5.199
 2068SOL    HW2 8102  13.456   0.402   5.099
 2069SOL     OW 8103   7.892   1.012   6.591
 2069SOL    HW1 8104   7.893   0.924   6.630
 2069SOL    HW2 8105   7.893   1.071   6.666
 2070SOL     OW 8106   6.782   9.521   5.120
 2070SOL    HW1 8107   6.817   9.609   5.136
 2070SOL    HW2 8108   6.687   9.534   5.115
 2071SOL     OW 8109   0.239   8.403  11.132
 2071SOL    HW1 8110   0.185   8.381  11.208
 2071SOL    HW2 8111   0.226   8.331  11.071
 2072SOL     OW 8112   7.989  11.800  11.523
 2072SOL    HW1 8113   8.013  11.708  11.516
 2072SOL    HW2 8114   7.945  11.820  11.440
 2073SOL     OW 8115   6.907   9.778   4.535
 2073SOL    HW1 8116   6.895   9.757   4.443
 2073SOL    HW2 8117   6.885   9.871   4.542
 2074SOL     OW 8118   8.273  11.792  10.587
 2074SOL    HW1 8119   8.360  11.753  10.589
 2074SOL    HW2 8120   8.232  11.754  10.509
 2075SOL     OW 8121  13.742   2.691  13.955
 2075SOL    HW1 8122  13.687   2.689  14.033
 2075SOL    HW2 8123  13.684   2.723  13.886
 2076SOL     OW 8124   0.793   9.226  11.309
 2076SOL    HW1 8125   0.878   9.229  11.352
 2076SOL    HW2 8126   0.738   9.287  11.359
 2077SOL     OW 8127   4.026   6.725  13.289
 2077SOL    HW1 8128   4.089   6.668  13.244
 2077SOL    HW2 8129   3.988   6.778  13.220
 2078SOL     OW 8130  12.213   2.596   4.349
 2078SOL    HW1 8131  12.291   2.613   4.401
 2078SOL    HW2 8132  12.142   2.592   4.414
 2079SOL     OW 8133  10.848   0.103   4.040
 2079SOL    HW1 8134  10.875   0.015   4.066
 2079SOL    HW2 8135  10.797   0.090   3.960
 2080SOL     OW 8136  10.002   2.416  14.271
 2080SOL    HW1 8137   9.928   2.469  14.302
 2080SOL    HW2 8138   9.985   2.403  14.178
 2081SOL     OW 8139   3.747   0.602   5.916
 2081SOL    HW1 8140   3.836   0.571   5.900
 2081SOL    HW2 8141   3.740   0.681   5.862
 2082SOL     OW 8142   5.492   3.317   0.682
 2082SOL    HW1 8143   5.500   3.346   0.591
 2082SOL    HW2 8144   5.582   3.302   0.710
 2083SOL     OW 8145   4.308   6.234   8.798
 2083SOL    HW1 8146   4.278   6.307   8.745
 2083SOL    HW2 8147   4.387   6.266   8.841
 2084SOL     OW 8148   7.405   4.841   5.515
 2084SOL    HW1 8149   7.360   4.902   5.574
 2084SOL    HW2 8150   7.355   4.847   5.433
 2085SOL     OW 8151  13.735   3.990   6.501
 2085SOL    HW1 8152  13.644   3.987   6.529
 2085SOL    HW2 8153  13.771   3.906   6.529
 2086SOL     OW 8154   6.285   5.071   6.251
 2086SOL    HW1 8155   6.336   4.992   6.269
 2086SOL    HW2 8156   6.350   5.140   6.240
 2087SOL     OW 8157   4.936  14.436   0.143
 2087SOL    HW1 8158   5.008  14.494   0.117
 2087SOL    HW2 8159   4.860  14.494   0.149
 2088SOL     OW 8160   5.156  10.024   8.986
 2088SOL    HW1 8161   5.070  10.040   9.024
 2088SOL    HW2 8162   5.175  10.103   8.935
 2089SOL     OW 8163   1.198  11.273  11.126
 2089SOL    HW1 8164   1.189  11.358  11.168
 2089SOL    HW2 8165   1.111  11.234  11.132
 2090SOL     OW 8166  10.820   8.021   3.082
 2090SOL    HW1 8167  10.836   7.946   3.139
 2090SOL    HW2 8168  10.834   7.988   2.993
 2091SOL     OW 8169   9.008   9.189  11.217
 2091SOL    HW1 8170   9.077   9.125  11.235
 2091SOL    HW2 8171   9.032   9.228  11.133
 2092SOL     OW 8172   9.620   9.781  14.097
 2092SOL    HW1 8173   9.553   9.725  14.138
 2092SOL    HW2 8174   9.702   9.736  14.113
 2093SOL     OW 8175  11.972  10.425   6.100
 2093SOL    HW1 8176  12.008  10.510   6.074
 2093SOL    HW2 8177  11.883  10.445   6.130
 2094SOL     OW 8178   6.104  11.495   4.829
 2094SOL    HW1 8179   6.121  11.406   4.800
 2094SOL    HW2 8180   6.048  11.485   4.906
 2095SOL     OW 8181   5.618   7.449   6.298
 2095SOL    HW1 8182   5.668   7.504   6.238
 2095SOL    HW2 8183   5.654   7.469   6.385
 2096SOL     OW 8184  10.698   5.563  13.584
 2096SOL    HW1 8185  10.737   5.618  13.652
 2096SOL    HW2 8186  10.607   5.593  13.579
 2097SOL     OW 8187   8.486   5.030   8.766
 2097SOL    HW1 8188   8.479   5.078   8.848
 2097SOL    HW2 8189   8.437   4.949   8.781
 2098SOL     OW 8190   9.514  13.752  13.529
 2098SOL    HW1 8191   9.604  13.781  13.540
 2098SOL    HW2 8192   9.477  13.754  13.617
 2099SOL     OW 8193   8.231   2.003   9.797
 2099SOL    HW1 8194   8.239   1.911   9.772
 2099SOL    HW2 8195   8.253   2.005   9.890
 2100SOL     OW 8196   5.492   2.072   0.110
 2100SOL    HW1 8197   5.411   2.028   0.084
 2100SOL    HW2 8198   5.492   2.154   0.061
 2101SOL     OW 8199   7.355   3.799   8.862
 2101SOL    HW1 8200   7.378   3.789   8.954
 2101SOL    HW2 8201   7.313   3.716   8.838
 2102SOL     OW 8202  14.593   8.568   3.798
 2102SOL    HW1 8203  14.556   8.645   3.840
 2102SOL    HW2 8204  14.613   8.508   3.869
 2103SOL     OW 8205  10.583  10.589  14.553
 2103SOL    HW1 8206  10.510  10.617  14.608
 2103SOL    HW2 8207  10.605  10.502  14.586
 2104SOL     OW 8208  13.390   4.893   7.431
 2104SOL    HW1 8209  13.471   4.865   7.475
 2104SOL    HW2 8210  13.395   4.988   7.431
 2105SOL     OW 8211   0.642  10.707   5.069
 2105SOL    HW1 8212   0.608  10.642   5.007
 2105SOL    HW2 8213   0.567  10.765   5.085
 2106SOL     OW 8214   9.216   1.700   6.861
 2106SOL    HW1 8215   9.211   1.656   6.776
 2106SOL    HW2 8216   9.237   1.791   6.839
 2107SOL     OW 8217   4.959  13.334   4.920
 2107SOL    HW1 8218   4.978  13.248   4.880
 2107SOL    HW2 8219   4.969  13.396   4.847
 2108SOL     OW 8220  11.314   3.348   4.620
 2108SOL    HW1 8221  11.355   3.427   4.584
 2108SOL    HW2 8222  11.307   3.366   4.713
 2109SOL     OW 8223   5.387   8.489   7.638
 2109SOL    HW1 8224   5.349   8.555   7.579
 2109SOL    HW2 8225   5.310   8.446   7.676
 2110SOL     OW 8226   4.604   5.845   6.419
 2110SOL    HW1 8227   4.522   5.894   6.408
 2110SOL    HW2 8228   4.661   5.906   6.466
 2111SOL     OW 8229   4.425   1.149   7.171
 2111SOL    HW1 8230   4.497   1.210   7.188
 2111SOL    HW2 8231   4.379   1.141   7.254
 2112SOL     OW 8232   6.194  12.467   0.124
 2112SOL    HW1 8233   6.235  12.541   0.169
 2112SOL    HW2 8234   6.162  12.410   0.194
 2113SOL     OW 8235   0.918   5.015   5.523
 2113SOL    HW1 8236   0.844   5.075   5.526
 2113SOL    HW2 8237   0.881   4.929   5.541
 2114SOL     OW 8238  11.516   8.419   9.405
 2114SOL    HW1 8239  11.445   8.391   9.463
 2114SOL    HW2 8240  11.596   8.387   9.448
 2115SOL     OW 8241   6.891   5.158   9.448
 2115SOL    HW1 8242   6.837   5.235   9.428
 2115SOL    HW2 8243   6.842   5.112   9.517
 2116SOL     OW 8244   8.175  14.370   5.829
 2116SOL    HW1 8245   8.081  14.368   5.847
 2116SOL    HW2 8246   8.216  14.378   5.915
 2117SOL     OW 8247   5.921   1.815   2.855
 2117SOL    HW1 8248   5.857   1.875   2.893
 2117SOL    HW2 8249   6.004   1.842   2.894
 2118SOL     OW 8250   0.375   3.349  13.540
 2118SOL    HW1 8251   0.420   3.426  13.577
 2118SOL    HW2 8252   0.440   3.310  13.481
 2119SOL     OW 8253  10.790   4.455  13.866
 2119SOL    HW1 8254  10.716   4.508  13.895
 2119SOL    HW2 8255  10.807   4.483  13.776
 2120SOL     OW 8256  14.739   5.366  13.277
 2120SOL    HW1 8257  14.714   5.375  13.369
 2120SOL    HW2 8258  14.707   5.280  13.252
 2121SOL     OW 8259   2.664  11.359   0.885
 2121SOL    HW1 8260   2.703  11.387   0.802
 2121SOL    HW2 8261   2.702  11.419   0.949
 2122SOL     OW 8262   6.896  11.885   3.231
 2122SOL    HW1 8263   6.851  11.907   3.312
 2122SOL    HW2 8264   6.826  11.878   3.166
 2123SOL     OW 8265   2.434   3.380   1.679
 2123SOL    HW1 8266   2.426   3.286   1.663
 2123SOL    HW2 8267   2.451   3.418   1.592
 2124SOL     OW 8268   4.263   0.423   1.512
 2124SOL    HW1 8269   4.243   0.431   1.606
 2124SOL    HW2 8270   4.245   0.510   1.476
 2125SOL     OW 8271   0.626   3.637  10.021
 2125SOL    HW1 8272   0.552   3.690  10.050
 2125SOL    HW2 8273   0.618   3.555  10.069
 2126SOL     OW 8274  11.917   6.760   1.629
 2126SOL    HW1 8275  11.913   6.691   1.696
 2126SOL    HW2 8276  11.964   6.831   1.672
 2127SOL     OW 8277   4.913   8.695   2.810
 2127SOL    HW1 8278   4.994   8.648   2.789
 2127SOL    HW2 8279   4.906   8.689   2.905
 2128SOL     OW 8280   5.414   9.520   6.237
 2128SOL    HW1 8281   5.435   9.530   6.145
 2128SOL    HW2 8282   5.400   9.426   6.249
 2129SOL     OW 8283   0.978   1.143   3.581
 2129SOL    HW1 8284   0.889   1.173   3.567
 2129SOL    HW2 8285   0.969   1.049   3.597
 2130SOL     OW 8286   8.773  10.127   3.696
 2130SOL    HW1 8287   8.801  10.149   3.785
 2130SOL    HW2 8288   8.679  10.113   3.703
 2131SOL     OW 8289   2.559   9.826   5.195
 2131SOL    HW1 8290   2.561   9.764   5.268
 2131SOL    HW2 8291   2.581   9.773   5.118
 2132SOL     OW 8292   2.708  14.315  13.450
 2132SOL    HW1 8293   2.728  14.308  13.356
 2132SOL    HW2 8294   2.783  14.276  13.494
 2133SOL     OW 8295  14.324  14.356   1.699
 2133SOL    HW1 8296  14.358  14.309   1.775
 2133SOL    HW2 8297  14.229  14.356   1.712
 2134SOL     OW 8298   6.030  12.851  10.596
 2134SOL    HW1 8299   6.116  12.851  10.637
 2134SOL    HW2 8300   5.976  12.798  10.655
 2135SOL     OW 8301  11.231  13.809   6.510
 2135SOL    HW1 8302  11.296  13.780   6.574
 2135SOL    HW2 8303  11.150  13.765   6.537
 2136SOL     OW 8304  14.680   4.902   2.258
 2136SOL    HW1 8305  14.669   4.812   2.228
 2136SOL    HW2 8306  14.735   4.943   2.192
 2137SOL     OW 8307  11.466  10.582  14.772
 2137SOL    HW1 8308  11.452  10.586  14.867
 2137SOL    HW2 8309  11.557  10.554  14.762
 2138SOL     OW 8310  14.179   8.227  11.540
 2138SOL    HW1 8311  14.087   8.202  11.533
 2138SOL    HW2 8312  14.206   8.196  11.626
 2139SOL     OW 8313   0.914   5.364   8.835
 2139SOL    HW1 8314   0.825   5.373   8.803
 2139SOL    HW2 8315   0.930   5.442   8.888
 2140SOL     OW 8316  12.328   4.980  13.677
 2140SOL    HW1 8317  12.248   4.980  13.623
 2140SOL    HW2 8318  12.328   5.066  13.719
 2141SOL     OW 8319   3.271   0.519   8.726
 2141SOL    HW1 8320   3.309   0.491   8.809
 2141SOL    HW2 8321   3.244   0.610   8.741
 2142SOL     OW 8322   6.369   6.557   2.074
 2142SOL    HW1 8323   6.408   6.622   2.016
 2142SOL    HW2 8324   6.428   6.554   2.149
 2143SOL     OW 8325   9.657  13.104  13.406
 2143SOL    HW1 8326   9.652  13.197  13.427
 2143SOL    HW2 8327   9.682  13.062  13.489
 2144SOL     OW 8328  12.292   3.691  14.233
 2144SOL    HW1 8329  12.304   3.648  14.318
 2144SOL    HW2 8330  12.365   3.752  14.227
 2145SOL     OW 8331   7.320  14.696   9.403
 2145SOL    HW1 8332   7.354  14.607   9.412
 2145SOL    HW2 8333   7.398  14.750   9.391
 2146SOL     OW 8334   0.286   3.411   9.912
 2146SOL    HW1 8335   0.365   3.362   9.891
 2146SOL    HW2 8336   0.217   3.372   9.859
 2147SOL     OW 8337  14.582   7.841   1.658
 2147SOL    HW1 8338  14.558   7.928   1.690
 2147SOL    HW2 8339  14.566   7.846   1.563
 2148SOL     OW 8340   1.698   2.195   4.681
 2148SOL    HW1 8341   1.707   2.134   4.608
 2148SOL    HW2 8342   1.721   2.281   4.645
 2149SOL     OW 8343   4.293   0.487   9.082
 2149SOL    HW1 8344   4.300   0.410   9.026
 2149SOL    HW2 8345   4.283   0.453   9.170
 2150SOL     OW 8346   9.864  11.871  13.189
 2150SOL    HW1 8347   9.906  11.879  13.103
 2150SOL    HW2 8348   9.866  11.778  13.208
 2151SOL     OW 8349  12.711   1.204   6.055
 2151SOL    HW1 8350  12.721   1.212   5.960
 2151SOL    HW2 8351  12.801   1.193   6.087
 2152SOL     OW 8352   2.272  12.314   5.309
 2152SOL    HW1 8353   2.185  12.285   5.281
 2152SOL    HW2 8354   2.283  12.399   5.268
 2153SOL     OW 8355   3.347  13.587   9.263
 2153SOL    HW1 8356   3.421  13.586   9.203
 2153SOL    HW2 8357   3.271  13.563   9.209
 2154SOL     OW 8358   6.612  11.069   1.371
 2154SOL    HW1 8359   6.573  11.133   1.312
 2154SOL    HW2 8360   6.540  11.044   1.430
 2155SOL     OW 8361  11.308  14.610   0.716
 2155SOL    HW1 8362  11.312  14.615   0.812
 2155SOL    HW2 8363  11.367  14.538   0.693
 2156SOL     OW 8364   2.457   1.547  13.863
 2156SOL    HW1 8365   2.467   1.628  13.911
 2156SOL    HW2 8366   2.475   1.478  13.927
 2157SOL     OW 8367  10.810   7.138  13.209
 2157SOL    HW1 8368  10.880   7.165  13.268
 2157SOL    HW2 8369  10.809   7.043  13.216
 2158SOL     OW 8370   1.572   7.969   9.631
 2158SOL    HW1 8371   1.588   7.943   9.722
 2158SOL    HW2 8372   1.559   7.886   9.585
 2159SOL     OW 8373   3.779  14.100   1.235
 2159SOL    HW1 8374   3.847  14.164   1.255
 2159SOL    HW2 8375   3.724  14.098   1.314
 2160SOL     OW 8376   1.702   2.207   5.458
 2160SOL    HW1 8377   1.632   2.170   5.512
 2160SOL    HW2 8378   1.657   2.269   5.400
 2161SOL     OW 8379   1.522  12.963   3.168
 2161SOL    HW1 8380   1.470  12.912   3.231
 2161SOL    HW2 8381   1.496  12.928   3.083
 2162SOL     OW 8382   6.416  13.936  14.353
 2162SOL    HW1 8383   6.415  13.965  14.444
 2162SOL    HW2 8384   6.503  13.900  14.340
 2163SOL     OW 8385   4.228   9.929   7.083
 2163SOL    HW1 8386   4.283   9.982   7.024
 2163SOL    HW2 8387   4.281   9.852   7.102
 2164SOL     OW 8388  13.578   7.850  12.328
 2164SOL    HW1 8389  13.543   7.920  12.273
 2164SOL    HW2 8390  13.522   7.774  12.310
 2165SOL     OW 8391   1.682   1.165  13.019
 2165SOL    HW1 8392   1.633   1.200  12.944
 2165SOL    HW2 8393   1.726   1.241  13.057
 2166SOL     OW 8394   2.932   6.608   5.701
 2166SOL    HW1 8395   2.894   6.547   5.638
 2166SOL    HW2 8396   2.984   6.668   5.648
 2167SOL     OW 8397  12.563   6.909   5.798
 2167SOL    HW1 8398  12.524   6.841   5.743
 2167SOL    HW2 8399  12.567   6.986   5.741
 2168SOL     OW 8400  14.623   2.319   9.576
 2168SOL    HW1 8401  14.561   2.388   9.550
 2168SOL    HW2 8402  14.577   2.237   9.556
 2169SOL     OW 8403  13.542   4.388   9.517
 2169SOL    HW1 8404  13.553   4.483   9.521
 2169SOL    HW2 8405  13.490   4.367   9.595
 2170SOL     OW 8406  14.198   9.715   7.795
 2170SOL    HW1 8407  14.154   9.758   7.722
 2170SOL    HW2 8408  14.148   9.635   7.811
 2171SOL     OW 8409   1.365   3.564  11.586
 2171SOL    HW1 8410   1.385   3.655  11.566
 2171SOL    HW2 8411   1.402   3.549  11.673
 2172SOL     OW 8412   3.512   1.374   9.992
 2172SOL    HW1 8413   3.438   1.376  10.053
 2172SOL    HW2 8414   3.524   1.281   9.972
 2173SOL     OW 8415   9.040   7.691   1.390
 2173SOL    HW1 8416   9.119   7.706   1.337
 2173SOL    HW2 8417   9.070   7.697   1.480
 2174SOL     OW 8418   0.081   7.436  11.747
 2174SOL    HW1 8419   0.024   7.447  11.823
 2174SOL    HW2 8420   0.021   7.418  11.675
 2175SOL     OW 8421   8.135   9.426   7.306
 2175SOL    HW1 8422   8.196   9.407   7.235
 2175SOL    HW2 8423   8.087   9.504   7.276
 2176SOL     OW 8424   0.052  12.540   5.901
 2176SOL    HW1 8425   0.116  12.537   5.972
 2176SOL    HW2 8426   0.072  12.621   5.853
 2177SOL     OW 8427   0.660   2.205   9.765
 2177SOL    HW1 8428   0.570   2.198   9.797
 2177SOL    HW2 8429   0.688   2.293   9.791
 2178SOL     OW 8430   7.268  10.024  13.586
 2178SOL    HW1 8431   7.328  10.016  13.660
 2178SOL    HW2 8432   7.244  10.117  13.584
 2179SOL     OW 8433   2.759   4.562   3.739
 2179SOL    HW1 8434   2.850   4.581   3.720
 2179SOL    HW2 8435   2.728   4.513   3.662
 2180SOL     OW 8436   9.730   2.629   0.888
 2180SOL    HW1 8437   9.669   2.699   0.911
 2180SOL    HW2 8438   9.779   2.665   0.814
 2181SOL     OW 8439   4.750  14.484  12.461
 2181SOL    HW1 8440   4.771  14.534  12.382
 2181SOL    HW2 8441   4.692  14.542  12.511
 2182SOL     OW 8442  12.848  11.215   9.991
 2182SOL    HW1 8443  12.769  11.237   9.941
 2182SOL    HW2 8444  12.897  11.157   9.932
 2183SOL     OW 8445  11.113   1.511   1.578
 2183SOL    HW1 8446  11.149   1.422   1.574
 2183SOL    HW2 8447  11.182   1.567   1.542
 2184SOL     OW 8448   7.880   5.838   5.949
 2184SOL    HW1 8449   7.928   5.920   5.941
 2184SOL    HW2 8450   7.908   5.786   5.873
 2185SOL     OW 8451   8.022   8.617   3.951
 2185SOL    HW1 8452   8.090   8.554   3.930
 2185SOL    HW2 8453   7.947   8.564   3.979
 2186SOL     OW 8454   2.617  10.735   1.441
 2186SOL    HW1 8455   2.627  10.753   1.348
 2186SOL    HW2 8456   2.680  10.665   1.459
 2187SOL     OW 8457   1.264  13.451   0.658
 2187SOL    HW1 8458   1.209  13.432   0.734
 2187SOL    HW2 8459   1.281  13.545   0.663
 2188SOL     OW 8460   3.929   6.509   5.383
 2188SOL    HW1 8461   3.893   6.420   5.389
 2188SOL    HW2 8462   4.024   6.496   5.380
 2189SOL     OW 8463  14.036   3.751  11.355
 2189SOL    HW1 8464  13.999   3.820  11.410
 2189SOL    HW2 8465  14.130   3.766  11.357
 2190SOL     OW 8466  10.070   6.077  12.619
 2190SOL    HW1 8467  10.044   6.120  12.537
 2190SOL    HW2 8468  10.063   6.145  12.685
 2191SOL     OW 8469  10.963   8.978  13.027
 2191SOL    HW1 8470  10.898   8.980  12.957
 2191SOL    HW2 8471  10.992   9.069  13.035
 2192SOL     OW 8472  10.045   5.525   3.764
 2192SOL    HW1 8473   9.971   5.516   3.704
 2192SOL    HW2 8474  10.037   5.614   3.800
 2193SOL     OW 8475  12.016   7.214  10.199
 2193SOL    HW1 8476  11.988   7.273  10.128
 2193SOL    HW2 8477  12.109   7.198  10.181
 2194SOL     OW 8478   9.819   9.476   4.797
 2194SOL    HW1 8479   9.804   9.531   4.720
 2194SOL    HW2 8480   9.906   9.500   4.827
 2195SOL     OW 8481   5.969  14.065   6.559
 2195SOL    HW1 8482   5.897  14.116   6.521
 2195SOL    HW2 8483   6.016  14.127   6.615
 2196SOL     OW 8484   0.332   0.415   7.909
 2196SOL    HW1 8485   0.272   0.372   7.971
 2196SOL    HW2 8486   0.418   0.409   7.951
 2197SOL     OW 8487   8.535  12.728  12.186
 2197SOL    HW1 8488   8.620  12.687  12.170
 2197SOL    HW2 8489   8.500  12.681  12.262
 2198SOL     OW 8490   8.196  13.597  11.115
 2198SOL    HW1 8491   8.203  13.653  11.192
 2198SOL    HW2 8492   8.286  13.590  11.082
 2199SOL     OW 8493   5.896   1.519   5.418
 2199SOL    HW1 8494   5.851   1.471   5.488
 2199SOL    HW2 8495   5.831   1.524   5.347
 2200SOL     OW 8496   5.194   3.566  10.623
 2200SOL    HW1 8497   5.166   3.657  10.615
 2200SOL    HW2 8498   5.219   3.541  10.534
 2201SOL     OW 8499   7.190  13.461   7.124
 2201SOL    HW1 8500   7.202  13.538   7.180
 2201SOL    HW2 8501   7.273  13.414   7.129
 2202SOL     OW 8502   0.849   9.335   4.652
 2202SOL    HW1 8503   0.861   9.427   4.676
 2202SOL    HW2 8504   0.937   9.298   4.657
 2203SOL     OW 8505   4.090   0.910   7.484
 2203SOL    HW1 8506   4.074   0.840   7.548
 2203SOL    HW2 8507   4.121   0.983   7.537
 2204SOL     OW 8508   3.914   0.031   1.048
 2204SOL    HW1 8509   3.851  14.870   0.983
 2204SOL    HW2 8510   3.873   0.110   1.083
 2205SOL     OW 8511   4.800   9.910   2.424
 2205SOL    HW1 8512   4.769   9.823   2.398
 2205SOL    HW2 8513   4.800   9.961   2.343
 2206SOL     OW 8514   3.101   2.728   2.576
 2206SOL    HW1 8515   3.193   2.712   2.594
 2206SOL    HW2 8516   3.078   2.802   2.632
 2207SOL     OW 8517  12.641   5.462   7.369
 2207SOL    HW1 8518  12.624   5.368   7.360
 2207SOL    HW2 8519  12.659   5.474   7.462
 2208SOL     OW 8520   5.060   6.244   0.385
 2208SOL    HW1 8521   5.073   6.309   0.316
 2208SOL    HW2 8522   5.142   6.194   0.386
 2209SOL     OW 8523   1.545   7.072  12.143
 2209SOL    HW1 8524   1.526   7.081  12.237
 2209SOL    HW2 8525   1.503   7.148  12.103
 2210SOL     OW 8526  12.623   7.958  11.364
 2210SOL    HW1 8527  12.635   8.037  11.311
 2210SOL    HW2 8528  12.555   7.909  11.317
 2211SOL     OW 8529  10.303   2.412  11.923
 2211SOL    HW1 8530  10.347   2.475  11.866
 2211SOL    HW2 8531  10.330   2.436  12.012
 2212SOL     OW 8532   7.604   4.182   8.736
 2212SOL    HW1 8533   7.596   4.104   8.682
 2212SOL    HW2 8534   7.585   4.255   8.676
 2213SOL     OW 8535   3.119   2.210   5.338
 2213SOL    HW1 8536   3.147   2.183   5.251
 2213SOL    HW2 8537   3.195   2.193   5.394
 2214SOL     OW 8538   7.574   4.474   4.658
 2214SOL    HW1 8539   7.601   4.566   4.656
 2214SOL    HW2 8540   7.557   4.456   4.750
 2215SOL     OW 8541   6.610  13.293  10.280
 2215SOL    HW1 8542   6.696  13.258  10.302
 2215SOL    HW2 8543   6.608  13.293  10.184
 2216SOL     OW 8544   0.848   4.378  12.644
 2216SOL    HW1 8545   0.884   4.433  12.575
 2216SOL    HW2 8546   0.760   4.357  12.614
 2217SOL     OW 8547   6.703   3.420  11.928
 2217SOL    HW1 8548   6.792   3.436  11.895
 2217SOL    HW2 8549   6.645   3.462  11.864
 2218SOL     OW 8550   6.363   7.591   1.477
 2218SOL    HW1 8551   6.282   7.642   1.481
 2218SOL    HW2 8552   6.359   7.545   1.392
 2219SOL     OW 8553  13.454   9.541   0.598
 2219SOL    HW1 8554  13.470   9.496   0.681
 2219SOL    HW2 8555  13.539   9.540   0.553
 2220SOL     OW 8556  10.820   8.687   3.847
 2220SOL    HW1 8557  10.847   8.743   3.920
 2220SOL    HW2 8558  10.770   8.617   3.889
 2221SOL     OW 8559   8.602   0.461  10.752
 2221SOL    HW1 8560   8.678   0.516  10.733
 2221SOL    HW2 8561   8.578   0.425  10.667
 2222SOL     OW 8562  11.985   0.246   1.092
 2222SOL    HW1 8563  11.929   0.205   1.158
 2222SOL    HW2 8564  11.994   0.180   1.024
 2223SOL     OW 8565  10.754   4.608   6.473
 2223SOL    HW1 8566  10.777   4.690   6.430
 2223SOL    HW2 8567  10.788   4.540   6.414
 2224SOL     OW 8568  12.031   6.449  14.351
 2224SOL    HW1 8569  12.023   6.519  14.416
 2224SOL    HW2 8570  12.029   6.495  14.267
 2225SOL     OW 8571   4.873  13.715   2.739
 2225SOL    HW1 8572   4.865  13.627   2.703
 2225SOL    HW2 8573   4.815  13.716   2.815
 2226SOL     OW 8574  11.427  12.144  11.256
 2226SOL    HW1 8575  11.468  12.231  11.265
 2226SOL    HW2 8576  11.362  12.141  11.326
 2227SOL     OW 8577  13.361   4.127   7.533
 2227SOL    HW1 8578  13.376   4.033   7.528
 2227SOL    HW2 8579  13.433   4.166   7.483
 2228SOL     OW 8580  12.607  13.489   8.122
 2228SOL    HW1 8581  12.662  13.506   8.199
 2228SOL    HW2 8582  12.659  13.428   8.069
 2229SOL     OW 8583   2.844   6.110   6.556
 2229SOL    HW1 8584   2.842   6.205   6.543
 2229SOL    HW2 8585   2.934   6.091   6.583
 2230SOL     OW 8586   4.527   0.402   4.602
 2230SOL    HW1 8587   4.439   0.377   4.577
 2230SOL    HW2 8588   4.584   0.341   4.555
 2231SOL     OW 8589  11.662   7.632   5.009
 2231SOL    HW1 8590  11.583   7.677   4.979
 2231SOL    HW2 8591  11.631   7.546   5.039
 2232SOL     OW 8592  11.009   8.339   0.962
 2232SOL    HW1 8593  11.054   8.356   1.045
 2232SOL    HW2 8594  10.949   8.268   0.982
 2233SOL     OW 8595  13.469  11.406   3.568
 2233SOL    HW1 8596  13.449  11.335   3.507
 2233SOL    HW2 8597  13.403  11.397   3.637
 2234SOL     OW 8598   7.882  14.688   6.587
 2234SOL    HW1 8599   7.793  14.701   6.618
 2234SOL    HW2 8600   7.937  14.728   6.654
 2235SOL     OW 8601  12.488   6.962  14.481
 2235SOL    HW1 8602  12.457   7.047  14.513
 2235SOL    HW2 8603  12.431   6.942  14.407
 2236SOL     OW 8604   8.645   6.976   6.665
 2236SOL    HW1 8605   8.559   7.003   6.696
 2236SOL    HW2 8606   8.631   6.948   6.575
 2237SOL     OW 8607  11.749   5.975   8.009
 2237SOL    HW1 8608  11.841   5.953   8.002
 2237SOL    HW2 8609  11.719   5.982   7.918
 2238SOL     OW 8610  12.742   0.268   5.332
 2238SOL    HW1 8611  12.727   0.238   5.242
 2238SOL    HW2 8612  12.824   0.225   5.358
 2239SOL     OW 8613  11.312  10.066  10.798
 2239SOL    HW1 8614  11.333  10.110  10.880
 2239SOL    HW2 8615  11.374  10.103  10.735
 2240SOL     OW 8616  14.322   0.658   0.771
 2240SOL    HW1 8617  14.227   0.652   0.769
 2240SOL    HW2 8618  14.352   0.579   0.724
 2241SOL     OW 8619  14.213  14.193  14.322
 2241SOL    HW1 8620  14.224  14.250  14.398
 2241SOL    HW2 8621  14.153  14.125  14.351
 2242SOL     OW 8622   7.158   8.018   9.734
 2242SOL    HW1 8623   7.182   8.094   9.681
 2242SOL    HW2 8624   7.124   7.954   9.670
 2243SOL     OW 8625   8.532   5.685   0.231
 2243SOL    HW1 8626   8.475   5.755   0.202
 2243SOL    HW2 8627   8.473   5.616   0.260
 2244SOL     OW 8628   7.803   6.519   1.805
 2244SOL    HW1 8629   7.729   6.495   1.861
 2244SOL    HW2 8630   7.847   6.590   1.852
 2245SOL     OW 8631   6.104  11.890  11.977
 2245SOL    HW1 8632   6.191  11.860  11.951
 2245SOL    HW2 8633   6.057  11.810  12.002
 2246SOL     OW 8634   4.191   5.655  12.192
 2246SOL    HW1 8635   4.197   5.600  12.114
 2246SOL    HW2 8636   4.277   5.648  12.233
 2247SOL     OW 8637   8.722  13.157  14.410
 2247SOL    HW1 8638   8.814  13.184  14.415
 2247SOL    HW2 8639   8.694  13.183  14.322
 2248SOL     OW 8640   3.592   8.393   1.669
 2248SOL    HW1 8641   3.604   8.335   1.593
 2248SOL    HW2 8642   3.638   8.349   1.740
 2249SOL     OW 8643  11.646   8.579   6.759
 2249SOL    HW1 8644  11.570   8.528   6.785
 2249SOL    HW2 8645  11.686   8.529   6.688
 2250SOL     OW 8646   4.359   0.937   3.679
 2250SOL    HW1 8647   4.334   1.020   3.720
 2250SOL    HW2 8648   4.280   0.884   3.680
 2251SOL     OW 8649   7.545  10.105   6.191
 2251SOL    HW1 8650   7.537  10.027   6.245
 2251SOL    HW2 8651   7.626  10.146   6.221
 2252SOL     OW 8652  13.613  13.526   1.643
 2252SOL    HW1 8653  13.656  13.463   1.584
 2252SOL    HW2 8654  13.660  13.608   1.629
 2253SOL     OW 8655  10.308   3.701  11.120
 2253SOL    HW1 8656  10.340   3.695  11.030
 2253SOL    HW2 8657  10.385   3.679  11.174
 2254SOL     OW 8658  14.387   9.535   4.989
 2254SOL    HW1 8659  14.292   9.536   4.976
 2254SOL    HW2 8660  14.415   9.451   4.951
 2255SOL     OW 8661  11.322   5.889   1.084
 2255SOL    HW1 8662  11.386   5.959   1.069
 2255SOL    HW2 8663  11.373   5.808   1.081
 2256SOL     OW 8664   7.322  13.439   4.451
 2256SOL    HW1 8665   7.358  13.528   4.447
 2256SOL    HW2 8666   7.330  13.415   4.543
 2257SOL     OW 8667   6.398   1.835   7.372
 2257SOL    HW1 8668   6.414   1.929   7.383
 2257SOL    HW2 8669   6.303   1.828   7.364
 2258SOL     OW 8670   8.639   9.891  12.752
 2258SOL    HW1 8671   8.701   9.919  12.820
 2258SOL    HW2 8672   8.564   9.950  12.763
 2259SOL     OW 8673  11.037   4.126  10.518
 2259SOL    HW1 8674  11.040   4.042  10.564
 2259SOL    HW2 8675  10.992   4.105  10.436
 2260SOL     OW 8676   7.653  12.299   8.690
 2260SOL    HW1 8677   7.735  12.324   8.733
 2260SOL    HW2 8678   7.643  12.206   8.711
 2261SOL     OW 8679   1.513  14.291   1.464
 2261SOL    HW1 8680   1.574  14.343   1.515
 2261SOL    HW2 8681   1.560  14.209   1.447
 2262SOL     OW 8682  12.768   1.451  13.621
 2262SOL    HW1 8683  12.710   1.528  13.618
 2262SOL    HW2 8684  12.835   1.474  13.686
 2263SOL     OW 8685   4.899   9.311   6.058
 2263SOL    HW1 8686   4.890   9.325   6.152
 2263SOL    HW2 8687   4.940   9.392   6.026
 2264SOL     OW 8688  12.856   3.806   7.210
 2264SOL    HW1 8689  12.922   3.789   7.277
 2264SOL    HW2 8690  12.777   3.764   7.243
 2265SOL     OW 8691  14.831   0.081  13.980
 2265SOL    HW1 8692  14.753   0.127  14.010
 2265SOL    HW2 8693   0.028   0.146  13.983
 2266SOL     OW 8694   6.341  13.774  13.644
 2266SOL    HW1 8695   6.254  13.806  13.666
 2266SOL    HW2 8696   6.374  13.738  13.726
 2267SOL     OW 8697   1.397   2.339  11.154
 2267SOL    HW1 8698   1.467   2.386  11.199
 2267SOL    HW2 8699   1.429   2.249  11.147
 2268SOL     OW 8700   2.808   9.793   0.414
 2268SOL    HW1 8701   2.814   9.717   0.355
 2268SOL    HW2 8702   2.734   9.773   0.471
 2269SOL     OW 8703   7.198   1.548   4.654
 2269SOL    HW1 8704   7.182   1.642   4.662
 2269SOL    HW2 8705   7.291   1.542   4.632
 2270SOL     OW 8706  10.138  13.029   0.917
 2270SOL    HW1 8707  10.152  12.980   0.998
 2270SOL    HW2 8708  10.058  13.080   0.933
 2271SOL     OW 8709   8.303   4.186   0.197
 2271SOL    HW1 8710   8.245   4.247   0.243
 2271SOL    HW2 8711   8.244   4.125   0.152
 2272SOL     OW 8712  10.340   9.138  12.831
 2272SOL    HW1 8713  10.354   9.147  12.737
 2272SOL    HW2 8714  10.412   9.082  12.861
 2273SOL     OW 8715   8.678  11.373   6.078
 2273SOL    HW1 8716   8.687  11.345   5.987
 2273SOL    HW2 8717   8.603  11.433   6.078
 2274SOL     OW 8718   5.648   4.744  11.594
 2274SOL    HW1 8719   5.683   4.788  11.671
 2274SOL    HW2 8720   5.726   4.714  11.547
 2275SOL     OW 8721   3.582  14.175   5.582
 2275SOL    HW1 8722   3.504  14.201   5.534
 2275SOL    HW2 8723   3.552  14.107   5.642
 2276SOL     OW 8724  13.153   7.493   5.572
 2276SOL    HW1 8725  13.161   7.402   5.599
 2276SOL    HW2 8726  13.242   7.521   5.553
 2277SOL     OW 8727   9.029   2.476   7.684
 2277SOL    HW1 8728   8.950   2.489   7.632
 2277SOL    HW2 8729   9.024   2.385   7.714
 2278SOL     OW 8730   5.184   3.067   2.752
 2278SOL    HW1 8731   5.149   2.978   2.746
 2278SOL    HW2 8732   5.239   3.077   2.674
 2279SOL     OW 8733   3.801   9.965  13.852
 2279SOL    HW1 8734   3.717  10.011  13.855
 2279SOL    HW2 8735   3.828   9.969  13.760
 2280SOL     OW 8736  10.873  12.301   6.029
 2280SOL    HW1 8737  10.961  12.321   6.060
 2280SOL    HW2 8738  10.849  12.376   5.974
 2281SOL     OW 8739   8.599  13.023   2.440
 2281SOL    HW1 8740   8.519  13.062   2.474
 2281SOL    HW2 8741   8.657  13.016   2.516
 2282SOL     OW 8742   7.272   6.213   2.075
 2282SOL    HW1 8743   7.312   6.279   2.132
 2282SOL    HW2 8744   7.192   6.188   2.121
 2283SOL     OW 8745   1.220   0.298   9.766
 2283SOL    HW1 8746   1.298   0.304   9.821
 2283SOL    HW2 8747   1.207   0.204   9.752
 2284SOL     OW 8748   4.288  10.903   1.204
 2284SOL    HW1 8749   4.223  10.833   1.208
 2284SOL    HW2 8750   4.322  10.909   1.293
 2285SOL     OW 8751   8.400   3.722   8.177
 2285SOL    HW1 8752   8.495   3.726   8.169
 2285SOL    HW2 8753   8.371   3.688   8.092
 2286SOL     OW 8754   8.593   1.971   3.333
 2286SOL    HW1 8755   8.597   2.061   3.365
 2286SOL    HW2 8756   8.648   1.971   3.255
 2287SOL     OW 8757  10.037   2.708  11.920
 2287SOL    HW1 8758  10.125   2.744  11.934
 2287SOL    HW2 8759  10.007   2.683  12.007
 2288SOL     OW 8760   6.114   0.087  10.265
 2288SOL    HW1 8761   6.174   0.126  10.328
 2288SOL    HW2 8762   6.166   0.074  10.186
 2289SOL     OW 8763   9.514  10.506   3.128
 2289SOL    HW1 8764   9.528  10.492   3.035
 2289SOL    HW2 8765   9.524  10.601   3.140
 2290SOL     OW 8766   8.272   2.019   9.437
 2290SOL    HW1 8767   8.349   2.072   9.456
 2290SOL    HW2 8768   8.236   2.057   9.357
 2291SOL     OW 8769   6.287   5.535  11.400
 2291SOL    HW1 8770   6.217   5.587  11.362
 2291SOL    HW2 8771   6.257   5.515  11.489
 2292SOL     OW 8772   5.698   0.683  14.549
 2292SOL    HW1 8773   5.685   0.635  14.631
 2292SOL    HW2 8774   5.793   0.684  14.535
 2293SOL     OW 8775   3.700   4.409   9.576
 2293SOL    HW1 8776   3.780   4.388   9.527
 2293SOL    HW2 8777   3.692   4.339   9.641
 2294SOL     OW 8778   9.731   4.849   4.002
 2294SOL    HW1 8779   9.824   4.829   4.005
 2294SOL    HW2 8780   9.726   4.938   3.968
 2295SOL     OW 8781   8.198   9.735   5.562
 2295SOL    HW1 8782   8.281   9.770   5.527
 2295SOL    HW2 8783   8.196   9.644   5.533
 2296SOL     OW 8784   1.618   6.761   9.687
 2296SOL    HW1 8785   1.602   6.776   9.593
 2296SOL    HW2 8786   1.530   6.751   9.724
 2297SOL     OW 8787   1.049   7.767   9.372
 2297SOL    HW1 8788   1.108   7.822   9.424
 2297SOL    HW2 8789   0.966   7.769   9.420
 2298SOL     OW 8790  12.427  14.320   4.709
 2298SOL    HW1 8791  12.484  14.243   4.696
 2298SOL    HW2 8792  12.351  14.285   4.756
 2299SOL     OW 8793   8.838  10.352   1.765
 2299SOL    HW1 8794   8.828  10.427   1.706
 2299SOL    HW2 8795   8.827  10.388   1.853
 2300SOL     OW 8796   5.984   4.851   2.829
 2300SOL    HW1 8797   5.907   4.817   2.874
 2300SOL    HW2 8798   5.953   4.871   2.740
 2301SOL     OW 8799  11.073   2.800  12.425
 2301SOL    HW1 8800  11.003   2.761  12.373
 2301SOL    HW2 8801  11.046   2.787  12.516
 2302SOL     OW 8802   5.370   1.681   3.265
 2302SOL    HW1 8803   5.459   1.703   3.237
 2302SOL    HW2 8804   5.317   1.689   3.186
 2303SOL     OW 8805   5.522   0.544   6.606
 2303SOL    HW1 8806   5.441   0.494   6.596
 2303SOL    HW2 8807   5.495   0.636   6.600
 2304SOL     OW 8808   0.622   8.139   7.035
 2304SOL    HW1 8809   0.676   8.146   6.956
 2304SOL    HW2 8810   0.572   8.059   7.023
 2305SOL     OW 8811  14.148   0.179  10.144
 2305SOL    HW1 8812  14.134   0.115  10.214
 2305SOL    HW2 8813  14.179   0.257  10.189
 2306SOL     OW 8814   3.804  11.361   3.361
 2306SOL    HW1 8815   3.830  11.430   3.423
 2306SOL    HW2 8816   3.887  11.319   3.336
 2307SOL     OW 8817   6.954  14.493   6.043
 2307SOL    HW1 8818   6.859  14.483   6.034
 2307SOL    HW2 8819   6.979  14.558   5.978
 2308SOL     OW 8820  14.336   0.855   8.231
 2308SOL    HW1 8821  14.305   0.797   8.300
 2308SOL    HW2 8822  14.272   0.926   8.227
 2309SOL     OW 8823  11.739  14.412   3.239
 2309SOL    HW1 8824  11.694  14.497   3.244
 2309SOL    HW2 8825  11.826  14.430   3.275
 2310SOL     OW 8826  11.412   0.385   6.235
 2310SOL    HW1 8827  11.467   0.434   6.174
 2310SOL    HW2 8828  11.415   0.437   6.316
 2311SOL     OW 8829   7.496  10.212  11.275
 2311SOL    HW1 8830   7.519  10.184  11.363
 2311SOL    HW2 8831   7.523  10.138  11.219
 2312SOL     OW 8832  13.160   4.929  13.431
 2312SOL    HW1 8833  13.229   4.862  13.428
 2312SOL    HW2 8834  13.104   4.902  13.504
 2313SOL     OW 8835   0.735   6.532   6.196
 2313SOL    HW1 8836   0.644   6.510   6.176
 2313SOL    HW2 8837   0.782   6.449   6.185
 2314SOL     OW 8838   7.118   5.488   3.095
 2314SOL    HW1 8839   7.137   5.408   3.045
 2314SOL    HW2 8840   7.204   5.520   3.123
 2315SOL     OW 8841   7.510  13.013  12.819
 2315SOL    HW1 8842   7.545  12.939  12.770
 2315SOL    HW2 8843   7.574  13.083  12.808
 2316SOL     OW 8844  11.005   4.952   8.355
 2316SOL    HW1 8845  11.081   4.898   8.377
 2316SOL    HW2 8846  11.008   5.025   8.416
 2317SOL     OW 8847  10.574   7.044   9.939
 2317SOL    HW1 8848  10.510   7.007   9.879
 2317SOL    HW2 8849  10.522   7.090  10.005
 2318SOL     OW 8850   5.592  13.923   4.247
 2318SOL    HW1 8851   5.538  13.921   4.326
 2318SOL    HW2 8852   5.679  13.947   4.277
 2319SOL     OW 8853   9.037   3.414  11.651
 2319SOL    HW1 8854   9.080   3.493  11.684
 2319SOL    HW2 8855   8.954   3.445  11.615
 2320SOL     OW 8856  12.700   2.274  14.409
 2320SOL    HW1 8857  12.707   2.214  14.483
 2320SOL    HW2 8858  12.615   2.255  14.369
 2321SOL     OW 8859   9.765  11.948   3.099
 2321SOL    HW1 8860   9.717  11.996   3.166
 2321SOL    HW2 8861   9.857  11.960   3.122
 2322SOL     OW 8862   8.159  11.388   7.095
 2322SOL    HW1 8863   8.079  11.339   7.114
 2322SOL    HW2 8864   8.131  11.479   7.090
 2323SOL     OW 8865  10.278  12.014  13.604
 2323SOL    HW1 8866  10.234  12.099  13.600
 2323SOL    HW2 8867  10.208  11.950  13.592
 2324SOL     OW 8868  12.927  14.679   8.804
 2324SOL    HW1 8869  12.996  14.663   8.869
 2324SOL    HW2 8870  12.855  14.623   8.832
 2325SOL     OW 8871  10.722  14.838  12.952
 2325SOL    HW1 8872  10.711  14.847  12.858
 2325SOL    HW2 8873  10.788  14.769  12.962
 2326SOL     OW 8874   9.040   3.887   9.948
 2326SOL    HW1 8875   9.057   3.793   9.947
 2326SOL    HW2 8876   9.045   3.913   9.856
 2327SOL     OW 8877   2.602   8.626  12.353
 2327SOL    HW1 8878   2.639   8.705  12.390
 2327SOL    HW2 8879   2.524   8.608  12.406
 2328SOL     OW 8880   5.613   7.926   8.804
 2328SOL    HW1 8881   5.519   7.925   8.785
 2328SOL    HW2 8882   5.618   7.901   8.897
 2329SOL     OW 8883  12.384   0.139  10.275
 2329SOL    HW1 8884  12.471   0.126  10.312
 2329SOL    HW2 8885  12.329   0.162  10.349
 2330SOL     OW 8886  14.768  10.371   8.775
 2330SOL    HW1 8887  14.791  10.279   8.792
 2330SOL    HW2 8888  14.675  10.368   8.752
 2331SOL     OW 8889   1.290  12.145   3.916
 2331SOL    HW1 8890   1.327  12.058   3.934
 2331SOL    HW2 8891   1.196  12.133   3.920
 2332SOL     OW 8892   8.370  12.013  13.911
 2332SOL    HW1 8893   8.349  12.053  13.827
 2332SOL    HW2 8894   8.380  12.087  13.971
 2333SOL     OW 8895   6.136   9.811   8.901
 2333SOL    HW1 8896   6.096   9.731   8.935
 2333SOL    HW2 8897   6.141   9.869   8.978
 2334SOL     OW 8898   4.707   7.894   8.200
 2334SOL    HW1 8899   4.679   7.873   8.111
 2334SOL    HW2 8900   4.746   7.981   8.194
 2335SOL     OW 8901   3.058  13.494  12.395
 2335SOL    HW1 8902   3.063  13.589  12.399
 2335SOL    HW2 8903   3.149  13.465  12.397
 2336SOL     OW 8904  10.779  12.574   1.161
 2336SOL    HW1 8905  10.775  12.490   1.207
 2336SOL    HW2 8906  10.753  12.554   1.072
 2337SOL     OW 8907   8.429   2.196   6.161
 2337SOL    HW1 8908   8.427   2.125   6.224
 2337SOL    HW2 8909   8.466   2.270   6.209
 2338SOL     OW 8910  13.529   2.721  11.530
 2338SOL    HW1 8911  13.619   2.704  11.500
 2338SOL    HW2 8912  13.530   2.814  11.554
 2339SOL     OW 8913   1.355   4.435   4.108
 2339SOL    HW1 8914   1.280   4.484   4.074
 2339SOL    HW2 8915   1.383   4.380   4.035
 2340SOL     OW 8916  12.488  11.362   1.260
 2340SOL    HW1 8917  12.538  11.409   1.326
 2340SOL    HW2 8918  12.422  11.313   1.309
 2341SOL     OW 8919   9.392  10.481   8.825
 2341SOL    HW1 8920   9.353  10.467   8.738
 2341SOL    HW2 8921   9.459  10.413   8.833
 2342SOL     OW 8922   0.354   9.539   5.523
 2342SOL    HW1 8923   0.431   9.581   5.486
 2342SOL    HW2 8924   0.338   9.462   5.468
 2343SOL     OW 8925   7.314   5.494   3.491
 2343SOL    HW1 8926   7.371   5.422   3.517
 2343SOL    HW2 8927   7.264   5.460   3.417
 2344SOL     OW 8928  11.708   5.966  13.587
 2344SOL    HW1 8929  11.637   5.965  13.523
 2344SOL    HW2 8930  11.678   6.027  13.655
 2345SOL     OW 8931   6.057   9.112   0.866
 2345SOL    HW1 8932   5.995   9.157   0.923
 2345SOL    HW2 8933   6.069   9.026   0.906
 2346SOL     OW 8934  10.779  10.322  13.372
 2346SOL    HW1 8935  10.719  10.394  13.352
 2346SOL    HW2 8936  10.839  10.319  13.298
 2347SOL     OW 8937   9.752   8.302   4.636
 2347SOL    HW1 8938   9.837   8.257   4.640
 2347SOL    HW2 8939   9.773   8.395   4.636
 2348SOL     OW 8940  11.179   2.371   2.936
 2348SOL    HW1 8941  11.103   2.375   2.878
 2348SOL    HW2 8942  11.254   2.362   2.877
 2349SOL     OW 8943   5.493  11.496  10.881
 2349SOL    HW1 8944   5.558  11.487  10.812
 2349SOL    HW2 8945   5.523  11.435  10.949
 2350SOL     OW 8946   3.449  14.532  11.681
 2350SOL    HW1 8947   3.431  14.556  11.772
 2350SOL    HW2 8948   3.541  14.558  11.668
 2351SOL     OW 8949   8.034   9.572  13.903
 2351SOL    HW1 8950   7.963   9.533  13.852
 2351SOL    HW2 8951   8.082   9.626  13.840
 2352SOL     OW 8952   5.679  11.003   9.531
 2352SOL    HW1 8953   5.645  11.092   9.544
 2352SOL    HW2 8954   5.602  10.947   9.533
 2353SOL     OW 8955   6.731   8.890   4.538
 2353SOL    HW1 8956   6.766   8.812   4.579
 2353SOL    HW2 8957   6.638   8.870   4.523
 2354SOL     OW 8958   4.574   7.725  12.514
 2354SOL    HW1 8959   4.556   7.709  12.421
 2354SOL    HW2 8960   4.659   7.768  12.515
 2355SOL     OW 8961   5.792   5.253   7.474
 2355SOL    HW1 8962   5.760   5.338   7.444
 2355SOL    HW2 8963   5.728   5.225   7.539
 2356SOL     OW 8964  10.485   1.942   7.820
 2356SOL    HW1 8965  10.546   1.872   7.796
 2356SOL    HW2 8966  10.515   2.017   7.769
 2357SOL     OW 8967   5.914  14.111   5.147
 2357SOL    HW1 8968   5.915  14.038   5.209
 2357SOL    HW2 8969   5.836  14.095   5.094
 2358SOL     OW 8970  13.543   6.481   5.128
 2358SOL    HW1 8971  13.515   6.550   5.187
 2358SOL    HW2 8972  13.481   6.484   5.055
 2359SOL     OW 8973   7.914  12.385  14.090
 2359SOL    HW1 8974   7.885  12.339  14.011
 2359SOL    HW2 8975   7.888  12.328  14.162
 2360SOL     OW 8976   0.959   0.298   3.487
 2360SOL    HW1 8977   0.897   0.251   3.431
 2360SOL    HW2 8978   0.957   0.388   3.454
 2361SOL     OW 8979   3.306  12.419   2.064
 2361SOL    HW1 8980   3.253  12.458   2.134
 2361SOL    HW2 8981   3.310  12.326   2.086
 2362SOL     OW 8982   7.683   4.496   2.301
 2362SOL    HW1 8983   7.618   4.489   2.371
 2362SOL    HW2 8984   7.656   4.431   2.237
 2363SOL     OW 8985   7.237   8.104  10.397
 2363SOL    HW1 8986   7.159   8.159  10.402
 2363SOL    HW2 8987   7.276   8.124  10.312
 2364SOL     OW 8988  13.526  12.770  10.641
 2364SOL    HW1 8989  13.616  12.747  10.615
 2364SOL    HW2 8990  13.516  12.731  10.728
 2365SOL     OW 8991   4.084   8.730   0.059
 2365SOL    HW1 8992   3.989   8.741   0.055
 2365SOL    HW2 8993   4.113   8.745  14.842
 2366SOL     OW 8994  14.301   1.082   2.465
 2366SOL    HW1 8995  14.342   1.017   2.408
 2366SOL    HW2 8996  14.373   1.117   2.517
 2367SOL     OW 8997  10.310  13.806   4.076
 2367SOL    HW1 8998  10.399  13.813   4.042
 2367SOL    HW2 8999  10.288  13.713   4.065
 2368SOL     OW 9000  14.218   4.639   3.460
 2368SOL    HW1 9001  14.222   4.731   3.486
 2368SOL    HW2 9002  14.124   4.621   3.450
 2369SOL     OW 9003   6.331   1.561   3.755
 2369SOL    HW1 9004   6.254   1.540   3.701
 2369SOL    HW2 9005   6.364   1.475   3.783
 2370SOL     OW 9006   0.947   6.567  14.708
 2370SOL    HW1 9007   0.897   6.590  14.786
 2370SOL    HW2 9008   0.899   6.492  14.671
 2371SOL     OW 9009  14.390   8.541   9.407
 2371SOL    HW1 9010  14.458   8.537   9.340
 2371SOL    HW2 9011  14.372   8.635   9.418
 2372SOL     OW 9012   6.888   6.190   9.951
 2372SOL    HW1 9013   6.837   6.109   9.942
 2372SOL    HW2 9014   6.822   6.259   9.952
 2373SOL     OW 9015  10.384   2.330  14.077
 2373SOL    HW1 9016  10.457   2.346  14.018
 2373SOL    HW2 9017  10.321   2.281  14.024
 2374SOL     OW 9018   1.222   9.257  14.296
 2374SOL    HW1 9019   1.196   9.181  14.244
 2374SOL    HW2 9020   1.230   9.224  14.385
 2375SOL     OW 9021   1.489  10.024   2.127
 2375SOL    HW1 9022   1.505   9.994   2.216
 2375SOL    HW2 9023   1.397  10.048   2.125
 2376SOL     OW 9024   5.048  12.527   2.026
 2376SOL    HW1 9025   5.118  12.497   1.967
 2376SOL    HW2 9026   4.972  12.537   1.969
 2377SOL     OW 9027  12.426  11.942  11.035
 2377SOL    HW1 9028  12.480  11.863  11.032
 2377SOL    HW2 9029  12.461  11.991  11.110
 2378SOL     OW 9030   0.128   5.125  13.077
 2378SOL    HW1 9031   0.075   5.204  13.065
 2378SOL    HW2 9032   0.153   5.099  12.989
 2379SOL     OW 9033  13.329   1.160   4.538
 2379SOL    HW1 9034  13.362   1.249   4.546
 2379SOL    HW2 9035  13.390   1.106   4.588
 2380SOL     OW 9036   8.502   7.036   9.162
 2380SOL    HW1 9037   8.511   6.970   9.093
 2380SOL    HW2 9038   8.511   6.986   9.244
 2381SOL     OW 9039   8.726   9.656   7.240
 2381SOL    HW1 9040   8.760   9.582   7.189
 2381SOL    HW2 9041   8.804   9.696   7.279
 2382SOL     OW 9042   0.195   6.952  12.219
 2382SOL    HW1 9043   0.199   7.025  12.158
 2382SOL    HW2 9044   0.201   6.992  12.306
 2383SOL     OW 9045  12.277   2.465   6.452
 2383SOL    HW1 9046  12.221   2.536   6.421
 2383SOL    HW2 9047  12.306   2.493   6.539
 2384SOL     OW 9048  12.689   6.537  13.552
 2384SOL    HW1 9049  12.645   6.483  13.486
 2384SOL    HW2 9050  12.771   6.563  13.511
 2385SOL     OW 9051   5.184   7.382  11.260
 2385SOL    HW1 9052   5.149   7.347  11.178
 2385SOL    HW2 9053   5.199   7.475  11.242
 2386SOL     OW 9054   2.644   9.067   7.878
 2386SOL    HW1 9055   2.650   9.155   7.915
 2386SOL    HW2 9056   2.585   9.076   7.804
 2387SOL     OW 9057  12.190  13.210   8.586
 2387SOL    HW1 9058  12.180  13.265   8.508
 2387SOL    HW2 9059  12.128  13.247   8.649
 2388SOL     OW 9060  14.681   6.768   5.593
 2388SOL    HW1 9061  14.759   6.715   5.577
 2388SOL    HW2 9062  14.702   6.853   5.555
 2389SOL     OW 9063   1.082  13.599   2.173
 2389SOL    HW1 9064   1.118  13.530   2.228
 2389SOL    HW2 9065   1.147  13.669   2.177
 2390SOL     OW 9066   3.856   6.525   5.080
 2390SOL    HW1 9067   3.927   6.512   5.141
 2390SOL    HW2 9068   3.781   6.481   5.120
 2391SOL     OW 9069   6.908   8.645  10.647
 2391SOL    HW1 9070   6.962   8.684  10.715
 2391SOL    HW2 9071   6.949   8.561  10.628
 2392SOL     OW 9072   5.052  11.784   1.414
 2392SOL    HW1 9073   5.058  11.702   1.365
 2392SOL    HW2 9074   4.986  11.767   1.481
 2393SOL     OW 9075   5.621  11.337  11.375
 2393SOL    HW1 9076   5.712  11.307  11.384
 2393SOL    HW2 9077   5.583  11.325  11.462
 2394SOL     OW 9078  11.613   7.087  11.846
 2394SOL    HW1 9079  11.615   7.055  11.756
 2394SOL    HW2 9080  11.521   7.084  11.871
 2395SOL     OW 9081   1.962   5.399  14.049
 2395SOL    HW1 9082   1.922   5.337  13.988
 2395SOL    HW2 9083   1.903   5.475  14.049
 2396SOL     OW 9084   3.368   1.494  14.632
 2396SOL    HW1 9085   3.348   1.428  14.565
 2396SOL    HW2 9086   3.290   1.549  14.635
 2397SOL     OW 9087   8.626   6.562  12.826
 2397SOL    HW1 9088   8.628   6.633  12.891
 2397SOL    HW2 9089   8.553   6.584  12.769
 2398SOL     OW 9090  10.572  12.608   9.863
 2398SOL    HW1 9091  10.538  12.698   9.858
 2398SOL    HW2 9092  10.565  12.585   9.956
 2399SOL     OW 9093   7.351  12.293   9.817
 2399SOL    HW1 9094   7.291  12.358   9.854
 2399SOL    HW2 9095   7.438  12.331   9.829
 2400SOL     OW 9096  13.773   9.230  11.817
 2400SOL    HW1 9097  13.812   9.169  11.755
 2400SOL    HW2 9098  13.699   9.182  11.855
 2401SOL     OW 9099  12.409  11.167  10.134
 2401SOL    HW1 9100  12.495  11.125  10.135
 2401SOL    HW2 9101  12.392  11.186  10.041
 2402SOL     OW 9102   8.752   0.570   2.872
 2402SOL    HW1 9103   8.657   0.568   2.875
 2402SOL    HW2 9104   8.778   0.478   2.875
 2403SOL     OW 9105   0.529  11.571   6.988
 2403SOL    HW1 9106   0.497  11.484   6.964
 2403SOL    HW2 9107   0.454  11.629   6.976
 2404SOL     OW 9108  10.633   3.006   5.564
 2404SOL    HW1 9109  10.540   2.996   5.546
 2404SOL    HW2 9110  10.676   2.969   5.487
 2405SOL     OW 9111   5.725   8.183   9.250
 2405SOL    HW1 9112   5.703   8.114   9.186
 2405SOL    HW2 9113   5.692   8.263   9.211
 2406SOL     OW 9114   8.923   9.711   1.740
 2406SOL    HW1 9115   8.974   9.649   1.687
 2406SOL    HW2 9116   8.882   9.769   1.676
 2407SOL     OW 9117  11.324   4.983   0.849
 2407SOL    HW1 9118  11.346   5.048   0.917
 2407SOL    HW2 9119  11.379   5.006   0.775
 2408SOL     OW 9120   6.223   8.494   2.533
 2408SOL    HW1 9121   6.162   8.425   2.559
 2408SOL    HW2 9122   6.303   8.476   2.582
 2409SOL     OW 9123   1.967  11.171  12.031
 2409SOL    HW1 9124   1.919  11.103  11.983
 2409SOL    HW2 9125   2.016  11.122  12.097
 2410SOL     OW 9126  13.087   2.409  11.354
 2410SOL    HW1 9127  13.017   2.470  11.331
 2410SOL    HW2 9128  13.050   2.355  11.424
 2411SOL     OW 9129   3.670  10.796   3.769
 2411SOL    HW1 9130   3.594  10.780   3.714
 2411SOL    HW2 9131   3.697  10.886   3.748
 2412SOL     OW 9132   3.578   5.472   2.251
 2412SOL    HW1 9133   3.547   5.383   2.232
 2412SOL    HW2 9134   3.515   5.529   2.208
 2413SOL     OW 9135   1.822   0.263  14.645
 2413SOL    HW1 9136   1.884   0.333  14.664
 2413SOL    HW2 9137   1.877   0.192  14.609
 2414SOL     OW 9138   0.877   5.999   5.960
 2414SOL    HW1 9139   0.815   5.977   5.891
 2414SOL    HW2 9140   0.858   5.938   6.031
 2415SOL     OW 9141  12.866   3.125   9.467
 2415SOL    HW1 9142  12.784   3.161   9.500
 2415SOL    HW2 9143  12.849   3.031   9.458
 2416SOL     OW 9144   8.563  14.082  13.442
 2416SOL    HW1 9145   8.571  14.147  13.372
 2416SOL    HW2 9146   8.517  14.008  13.401
 2417SOL     OW 9147  10.264  12.344   7.363
 2417SOL    HW1 9148  10.298  12.330   7.275
 2417SOL    HW2 9149  10.222  12.430   7.360
 2418SOL     OW 9150  11.579  13.401   2.777
 2418SOL    HW1 9151  11.485  13.398   2.760
 2418SOL    HW2 9152  11.607  13.310   2.775
 2419SOL     OW 9153   3.345  13.204  11.330
 2419SOL    HW1 9154   3.414  13.192  11.396
 2419SOL    HW2 9155   3.265  13.176  11.375
 2420SOL     OW 9156   7.345   2.880  13.561
 2420SOL    HW1 9157   7.277   2.930  13.516
 2420SOL    HW2 9158   7.336   2.905  13.654
 2421SOL     OW 9159   9.070   9.214   9.566
 2421SOL    HW1 9160   8.984   9.245   9.537
 2421SOL    HW2 9161   9.121   9.294   9.579
 2422SOL     OW 9162   9.348  10.701  14.001
 2422SOL    HW1 9163   9.403  10.721  13.925
 2422SOL    HW2 9164   9.259  10.706  13.968
 2423SOL     OW 9165   6.150   4.605   8.375
 2423SOL    HW1 9166   6.068   4.590   8.328
 2423SOL    HW2 9167   6.180   4.517   8.399
 2424SOL     OW 9168   4.825   6.492   0.672
 2424SOL    HW1 9169   4.878   6.412   0.668
 2424SOL    HW2 9170   4.885   6.563   0.649
 2425SOL     OW 9171   0.044   8.064  14.238
 2425SOL    HW1 9172   0.102   8.027  14.171
 2425SOL    HW2 9173   0.035   8.156  14.215
 2426SOL     OW 9174   5.004   9.556  14.736
 2426SOL    HW1 9175   5.050   9.556  14.820
 2426SOL    HW2 9176   5.073   9.554  14.670
 2427SOL     OW 9177   8.605   4.849   0.154
 2427SOL    HW1 9178   8.521   4.888   0.179
 2427SOL    HW2 9179   8.670   4.905   0.197
 2428SOL     OW 9180  12.618   0.736   3.280
 2428SOL    HW1 9181  12.699   0.756   3.231
 2428SOL    HW2 9182  12.593   0.649   3.249
 2429SOL     OW 9183  14.177   7.353   4.133
 2429SOL    HW1 9184  14.129   7.319   4.058
 2429SOL    HW2 9185  14.259   7.304   4.134
 2430SOL     OW 9186  11.731  13.837   7.028
 2430SOL    HW1 9187  11.638  13.816   7.034
 2430SOL    HW2 9188  11.735  13.932   7.037
 2431SOL     OW 9189   7.940  12.970   6.585
 2431SOL    HW1 9190   7.959  12.989   6.677
 2431SOL    HW2 9191   8.025  12.977   6.541
 2432SOL     OW 9192   6.423   6.423   2.503
 2432SOL    HW1 9193   6.503   6.407   2.553
 2432SOL    HW2 9194   6.361   6.358   2.536
 2433SOL     OW 9195  12.678   4.281   1.015
 2433SOL    HW1 9196  12.702   4.284   1.107
 2433SOL    HW2 9197  12.733   4.213   0.977
 2434SOL     OW 9198   0.932   4.050   8.654
 2434SOL    HW1 9199   1.016   4.092   8.637
 2434SOL    HW2 9200   0.906   4.013   8.569
 2435SOL     OW 9201   2.820   5.814  12.977
 2435SOL    HW1 9202   2.764   5.769  12.914
 2435SOL    HW2 9203   2.821   5.757  13.054
 2436SOL     OW 9204  12.194   4.363   4.086
 2436SOL    HW1 9205  12.286   4.348   4.062
 2436SOL    HW2 9206  12.177   4.453   4.060
 2437SOL     OW 9207   6.589  13.798   5.556
 2437SOL    HW1 9208   6.574  13.780   5.649
 2437SOL    HW2 9209   6.662  13.741   5.533
 2438SOL     OW 9210   3.543  13.586  14.630
 2438SOL    HW1 9211   3.610  13.589  14.698
 2438SOL    HW2 9212   3.587  13.618  14.551
 2439SOL     OW 9213   9.467   7.530   7.433
 2439SOL    HW1 9214   9.509   7.586   7.498
 2439SOL    HW2 9215   9.374   7.534   7.455
 2440SOL     OW 9216  14.813   0.822  13.882
 2440SOL    HW1 9217   0.032   0.833  13.911
 2440SOL    HW2 9218  14.787   0.737  13.917
 2441SOL     OW 9219  12.063   9.443   7.083
 2441SOL    HW1 9220  12.092   9.359   7.047
 2441SOL    HW2 9221  12.139   9.500   7.073
 2442SOL     OW 9222   8.872   2.991   2.100
 2442SOL    HW1 9223   8.893   2.995   2.193
 2442SOL    HW2 9224   8.858   3.082   2.074
 2443SOL     OW 9225   5.916  10.729   9.046
 2443SOL    HW1 9226   5.828  10.706   9.075
 2443SOL    HW2 9227   5.926  10.820   9.071
 2444SOL     OW 9228   7.113   0.799   4.190
 2444SOL    HW1 9229   7.097   0.882   4.146
 2444SOL    HW2 9230   7.081   0.732   4.128
 2445SOL     OW 9231   1.770   5.246  11.253
 2445SOL    HW1 9232   1.683   5.269  11.221
 2445SOL    HW2 9233   1.773   5.281  11.342
 2446SOL     OW 9234   8.883   5.945   1.113
 2446SOL    HW1 9235   8.891   5.999   1.192
 2446SOL    HW2 9236   8.923   5.998   1.044
 2447SOL     OW 9237  10.674   3.390   6.398
 2447SOL    HW1 9238  10.753   3.373   6.451
 2447SOL    HW2 9239  10.702   3.453   6.332
 2448SOL     OW 9240  12.070  12.602   8.264
 2448SOL    HW1 9241  11.976  12.618   8.274
 2448SOL    HW2 9242  12.086  12.522   8.313
 2449SOL     OW 9243   4.453  11.721   9.861
 2449SOL    HW1 9244   4.402  11.648   9.827
 2449SOL    HW2 9245   4.423  11.797   9.811
 2450SOL     OW 9246   2.634   0.266  10.547
 2450SOL    HW1 9247   2.670   0.200  10.488
 2450SOL    HW2 9248   2.540   0.252  10.546
 2451SOL     OW 9249   1.927   7.909   4.276
 2451SOL    HW1 9250   1.996   7.862   4.230
 2451SOL    HW2 9251   1.910   7.857   4.354
 2452SOL     OW 9252   2.708   2.467   1.479
 2452SOL    HW1 9253   2.725   2.400   1.545
 2452SOL    HW2 9254   2.642   2.427   1.421
 2453SOL     OW 9255   4.586   9.724   7.718
 2453SOL    HW1 9256   4.585   9.707   7.623
 2453SOL    HW2 9257   4.647   9.659   7.753
 2454SOL     OW 9258   4.667   6.686   8.507
 2454SOL    HW1 9259   4.734   6.754   8.498
 2454SOL    HW2 9260   4.705   6.610   8.462
 2455SOL     OW 9261   2.932  11.933   8.666
 2455SOL    HW1 9262   2.965  11.848   8.697
 2455SOL    HW2 9263   2.975  11.997   8.722
 2456SOL     OW 9264  12.050   9.473  12.892
 2456SOL    HW1 9265  12.105   9.403  12.856
 2456SOL    HW2 9266  11.963   9.434  12.899
 2457SOL     OW 9267  13.149  11.978   2.425
 2457SOL    HW1 9268  13.075  11.960   2.367
 2457SOL    HW2 9269  13.225  11.980   2.368
 2458SOL     OW 9270   3.508   8.405   7.769
 2458SOL    HW1 9271   3.570   8.346   7.725
 2458SOL    HW2 9272   3.478   8.465   7.700
 2459SOL     OW 9273   0.876  11.297   6.978
 2459SOL    HW1 9274   0.788  11.328   6.999
 2459SOL    HW2 9275   0.930  11.323   7.052
 2460SOL     OW 9276   4.908  11.430   9.766
 2460SOL    HW1 9277   4.872  11.490   9.832
 2460SOL    HW2 9278   4.911  11.482   9.686
 2461SOL     OW 9279  10.637  10.168   2.905
 2461SOL    HW1 9280  10.676  10.117   2.975
 2461SOL    HW2 9281  10.547  10.183   2.934
 2462SOL     OW 9282  11.632   3.994   2.808
 2462SOL    HW1 9283  11.644   3.923   2.871
 2462SOL    HW2 9284  11.695   4.061   2.834
 2463SOL     OW 9285   0.330  11.542  11.762
 2463SOL    HW1 9286   0.347  11.612  11.826
 2463SOL    HW2 9287   0.416  11.506  11.743
 2464SOL     OW 9288   4.842   6.559   7.538
 2464SOL    HW1 9289   4.844   6.486   7.477
 2464SOL    HW2 9290   4.852   6.637   7.484
 2465SOL     OW 9291   9.417  12.148   2.291
 2465SOL    HW1 9292   9.470  12.182   2.363
 2465SOL    HW2 9293   9.404  12.224   2.234
 2466SOL     OW 9294   6.887  14.661   4.552
 2466SOL    HW1 9295   6.859  14.602   4.481
 2466SOL    HW2 9296   6.850  14.746   4.528
 2467SOL     OW 9297   7.835   4.382  11.169
 2467SOL    HW1 9298   7.863   4.295  11.198
 2467SOL    HW2 9299   7.843   4.380  11.074
 2468SOL     OW 9300  13.012   7.881   2.193
 2468SOL    HW1 9301  12.945   7.837   2.245
 2468SOL    HW2 9302  13.082   7.900   2.255
 2469SOL     OW 9303  10.193  14.326   7.395
 2469SOL    HW1 9304  10.166  14.257   7.455
 2469SOL    HW2 9305  10.270  14.291   7.351
 2470SOL     OW 9306   6.940   1.830   6.671
 2470SOL    HW1 9307   7.010   1.886   6.704
 2470SOL    HW2 9308   6.866   1.846   6.730
 2471SOL     OW 9309   8.382   0.486  13.594
 2471SOL    HW1 9310   8.461   0.437  13.569
 2471SOL    HW2 9311   8.339   0.429  13.658
 2472SOL     OW 9312  12.001  11.458  14.169
 2472SOL    HW1 9313  12.079  11.511  14.188
 2472SOL    HW2 9314  11.949  11.463  14.249
 2473SOL     OW 9315   5.139  13.376   9.196
 2473SOL    HW1 9316   5.119  13.463   9.230
 2473SOL    HW2 9317   5.230  13.361   9.220
 2474SOL     OW 9318  14.106   7.667   1.176
 2474SOL    HW1 9319  14.128   7.708   1.259
 2474SOL    HW2 9320  14.040   7.601   1.198
 2475SOL     OW 9321   6.631   5.000   0.989
 2475SOL    HW1 9322   6.665   4.935   1.050
 2475SOL    HW2 9323   6.706   5.055   0.968
 2476SOL     OW 9324   5.553   4.965   1.361
 2476SOL    HW1 9325   5.620   5.030   1.338
 2476SOL    HW2 9326   5.540   4.915   1.281
 2477SOL     OW 9327  12.588  13.292   6.470
 2477SOL    HW1 9328  12.500  13.318   6.496
 2477SOL    HW2 9329  12.625  13.251   6.547
 2478SOL     OW 9330   6.558   4.737  14.784
 2478SOL    HW1 9331   6.547   4.817  14.837
 2478SOL    HW2 9332   6.473   4.724  14.743
 2479SOL     OW 9333   1.174  11.348  10.019
 2479SOL    HW1 9334   1.203  11.259  10.001
 2479SOL    HW2 9335   1.224  11.403   9.958
 2480SOL     OW 9336  11.729  10.776  13.803
 2480SOL    HW1 9337  11.640  10.788  13.835
 2480SOL    HW2 9338  11.732  10.686  13.771
 2481SOL     OW 9339   0.045  12.559   9.260
 2481SOL    HW1 9340  14.833  12.553   9.216
 2481SOL    HW2 9341   0.025  12.548   9.353
 2482SOL     OW 9342   7.215   2.409   5.026
 2482SOL    HW1 9343   7.142   2.421   4.965
 2482SOL    HW2 9344   7.284   2.467   4.992
 2483SOL     OW 9345   1.286   4.123  14.724
 2483SOL    HW1 9346   1.282   4.217  14.740
 2483SOL    HW2 9347   1.292   4.084  14.811
 2484SOL     OW 9348   8.838   5.655  12.357
 2484SOL    HW1 9349   8.870   5.658  12.267
 2484SOL    HW2 9350   8.911   5.620  12.408
 2485SOL     OW 9351   5.579   6.602   2.633
 2485SOL    HW1 9352   5.584   6.515   2.593
 2485SOL    HW2 9353   5.531   6.589   2.714
 2486SOL     OW 9354   0.281   3.939  10.204
 2486SOL    HW1 9355   0.190   3.966  10.212
 2486SOL    HW2 9356   0.331   4.013  10.239
 2487SOL     OW 9357   8.756   7.712   7.793
 2487SOL    HW1 9358   8.686   7.761   7.751
 2487SOL    HW2 9359   8.744   7.622   7.762
 2488SOL     OW 9360   4.930   6.579  13.070
 2488SOL    HW1 9361   4.958   6.634  12.997
 2488SOL    HW2 9362   4.848   6.617  13.099
 2489SOL     OW 9363   4.798   4.719  11.473
 2489SOL    HW1 9364   4.710   4.706  11.438
 2489SOL    HW2 9365   4.816   4.812  11.457
 2490SOL     OW 9366  12.619   2.776   0.390
 2490SOL    HW1 9367  12.683   2.721   0.435
 2490SOL    HW2 9368  12.559   2.714   0.349
 2491SOL     OW 9369  14.827   9.671   3.881
 2491SOL    HW1 9370   0.006   9.709   3.953
 2491SOL    HW2 9371  14.772   9.743   3.850
 2492SOL     OW 9372   7.920  11.631   5.795
 2492SOL    HW1 9373   7.923  11.652   5.888
 2492SOL    HW2 9374   7.971  11.700   5.753
 2493SOL     OW 9375  10.864  14.481   7.371
 2493SOL    HW1 9376  10.788  14.536   7.348
 2493SOL    HW2 9377  10.900  14.453   7.287
 2494SOL     OW 9378   3.301   1.987  13.272
 2494SOL    HW1 9379   3.213   2.019  13.292
 2494SOL    HW2 9380   3.298   1.965  13.179
 2495SOL     OW 9381  12.328   1.501  13.774
 2495SOL    HW1 9382  12.316   1.437  13.844
 2495SOL    HW2 9383  12.254   1.561  13.783
 2496SOL     OW 9384   3.462  13.965   2.380
 2496SOL    HW1 9385   3.554  13.951   2.405
 2496SOL    HW2 9386   3.419  13.883   2.401
 2497SOL     OW 9387   3.666   5.490   3.233
 2497SOL    HW1 9388   3.580   5.506   3.274
 2497SOL    HW2 9389   3.700   5.577   3.214
 2498SOL     OW 9390   7.081   5.251  14.135
 2498SOL    HW1 9391   7.071   5.173  14.080
 2498SOL    HW2 9392   6.992   5.284  14.146
 2499SOL     OW 9393  11.223  11.910   6.672
 2499SOL    HW1 9394  11.254  11.854   6.742
 2499SOL    HW2 9395  11.215  11.997   6.712
 2500SOL     OW 9396   3.736   5.912   9.997
 2500SOL    HW1 9397   3.675   5.950  10.061
 2500SOL    HW2 9398   3.814   5.891  10.047
 2501SOL     OW 9399  11.413   2.522  11.611
 2501SOL    HW1 9400  11.372   2.494  11.693
 2501SOL    HW2 9401  11.413   2.618  11.616
 2502SOL     OW 9402  14.087   8.974  10.712
 2502SOL    HW1 9403  14.005   8.928  10.697
 2502SOL    HW2 9404  14.097   8.977  10.807
 2503SOL     OW 9405   5.797  12.907   8.915
 2503SOL    HW1 9406   5.729  12.869   8.971
 2503SOL    HW2 9407   5.794  12.854   8.835
 2504SOL     OW 9408   1.719   9.210  12.188
 2504SOL    HW1 9409   1.724   9.253  12.103
 2504SOL    HW2 9410   1.719   9.281  12.252
 2505SOL     OW 9411   4.743   9.813  11.309
 2505SOL    HW1 9412   4.694   9.760  11.246
 2505SOL    HW2 9413   4.793   9.875  11.255
 2506SOL     OW 9414  12.786   7.258  14.741
 2506SOL    HW1 9415  12.776   7.199  14.666
 2506SOL    HW2 9416  12.866   7.308  14.721
 2507SOL     OW 9417   7.823   6.095   5.186
 2507SOL    HW1 9418   7.917   6.090   5.165
 2507SOL    HW2 9419   7.780   6.071   5.105
 2508SOL     OW 9420   8.162  13.799  12.873
 2508SOL    HW1 9421   8.242  13.836  12.836
 2508SOL    HW2 9422   8.150  13.716  12.826
 2509SOL     OW 9423  14.058   8.582   9.018
 2509SOL    HW1 9424  14.029   8.625   8.937
 2509SOL    HW2 9425  14.125   8.520   8.989
 2510SOL     OW 9426   3.792   0.681   5.353
 2510SOL    HW1 9427   3.734   0.742   5.307
 2510SOL    HW2 9428   3.878   0.696   5.313
 2511SOL     OW 9429   7.614  13.582   3.254
 2511SOL    HW1 9430   7.622  13.584   3.159
 2511SOL    HW2 9431   7.695  13.621   3.286
 2512SOL     OW 9432   2.995   9.605  11.825
 2512SOL    HW1 9433   2.938   9.545  11.873
 2512SOL    HW2 9434   2.948   9.624  11.744
 2513SOL     OW 9435   1.401   8.029   8.143
 2513SOL    HW1 9436   1.397   8.032   8.239
 2513SOL    HW2 9437   1.343   7.956   8.119
 2514SOL     OW 9438   9.321   4.508  12.500
 2514SOL    HW1 9439   9.408   4.541  12.525
 2514SOL    HW2 9440   9.323   4.507  12.404
 2515SOL     OW 9441   5.207   1.517   0.074
 2515SOL    HW1 9442   5.254   1.479   0.148
 2515SOL    HW2 9443   5.151   1.583   0.113
 2516SOL     OW 9444   0.020  10.090  10.170
 2516SOL    HW1 9445  14.861  10.156  10.108
 2516SOL    HW2 9446   0.097  10.130  10.210
 2517SOL     OW 9447   6.651   2.175   6.187
 2517SOL    HW1 9448   6.743   2.201   6.194
 2517SOL    HW2 9449   6.603   2.246   6.230
 2518SOL     OW 9450   6.870  12.004   5.240
 2518SOL    HW1 9451   6.866  12.031   5.148
 2518SOL    HW2 9452   6.854  11.909   5.237
 2519SOL     OW 9453  14.363   5.506  14.313
 2519SOL    HW1 9454  14.442   5.452  14.324
 2519SOL    HW2 9455  14.377   5.579  14.374
 2520SOL     OW 9456  14.653   0.049   1.360
 2520SOL    HW1 9457  14.674  14.845   1.414
 2520SOL    HW2 9458  14.735   0.098   1.355
 2521SOL     OW 9459   0.865  11.481   0.789
 2521SOL    HW1 9460   0.931  11.483   0.720
 2521SOL    HW2 9461   0.834  11.391   0.791
 2522SOL     OW 9462  12.548   0.753   7.642
 2522SOL    HW1 9463  12.577   0.795   7.561
 2522SOL    HW2 9464  12.629   0.724   7.683
 2523SOL     OW 9465  10.602  11.797  14.388
 2523SOL    HW1 9466  10.693  11.820  14.367
 2523SOL    HW2 9467  10.588  11.830  14.477
 2524SOL     OW 9468   1.904   7.423   3.573
 2524SOL    HW1 9469   1.870   7.512   3.563
 2524SOL    HW2 9470   1.839   7.368   3.530
 2525SOL     OW 9471  10.319   3.933  11.339
 2525SOL    HW1 9472  10.233   3.947  11.379
 2525SOL    HW2 9473  10.305   3.862  11.277
 2526SOL     OW 9474  12.834   1.926   3.262
 2526SOL    HW1 9475  12.792   1.841   3.250
 2526SOL    HW2 9476  12.804   1.978   3.188
 2527SOL     OW 9477   1.781   7.992   5.536
 2527SOL    HW1 9478   1.742   7.987   5.623
 2527SOL    HW2 9479   1.707   7.986   5.476
 2528SOL     OW 9480   2.137   4.252   4.437
 2528SOL    HW1 9481   2.169   4.181   4.493
 2528SOL    HW2 9482   2.127   4.212   4.351
 2529SOL     OW 9483  10.063   3.790  11.932
 2529SOL    HW1 9484  10.120   3.815  11.859
 2529SOL    HW2 9485  10.004   3.724  11.894
 2530SOL     OW 9486   1.587   1.074  10.780
 2530SOL    HW1 9487   1.509   1.072  10.834
 2530SOL    HW2 9488   1.580   1.155  10.729
 2531SOL     OW 9489   9.102   6.362  13.666
 2531SOL    HW1 9490   9.142   6.357  13.752
 2531SOL    HW2 9491   9.007   6.359  13.683
 2532SOL     OW 9492   9.239   2.864  11.572
 2532SOL    HW1 9493   9.234   2.821  11.486
 2532SOL    HW2 9494   9.286   2.802  11.627
 2533SOL     OW 9495   0.805   2.819   4.216
 2533SOL    HW1 9496   0.776   2.862   4.297
 2533SOL    HW2 9497   0.825   2.891   4.157
 2534SOL     OW 9498   8.602   4.154   1.118
 2534SOL    HW1 9499   8.643   4.231   1.157
 2534SOL    HW2 9500   8.513   4.182   1.096
 2535SOL     OW 9501   4.909   3.525  13.691
 2535SOL    HW1 9502   4.858   3.606  13.681
 2535SOL    HW2 9503   4.998   3.556  13.710
 2536SOL     OW 9504   4.534  14.242   6.796
 2536SOL    HW1 9505   4.542  14.159   6.842
 2536SOL    HW2 9506   4.526  14.218   6.704
 2537SOL     OW 9507   8.917   4.380   6.850
 2537SOL    HW1 9508   8.839   4.424   6.885
 2537SOL    HW2 9509   8.951   4.329   6.924
 2538SOL     OW 9510  10.408   7.661   5.385
 2538SOL    HW1 9511  10.417   7.569   5.409
 2538SOL    HW2 9512  10.410   7.661   5.290
 2539SOL     OW 9513   4.669   0.761   5.924
 2539SOL    HW1 9514   4.720   0.810   5.989
 2539SOL    HW2 9515   4.732   0.697   5.890
 2540SOL     OW 9516   1.007  12.095   0.780
 2540SOL    HW1 9517   0.961  12.020   0.817
 2540SOL    HW2 9518   1.094  12.092   0.820
 2541SOL     OW 9519   4.974   0.118  14.262
 2541SOL    HW1 9520   4.944   0.168  14.186
 2541SOL    HW2 9521   4.894   0.091  14.307
 2542SOL     OW 9522   8.151  10.192  14.013
 2542SOL    HW1 9523   8.191  10.164  14.095
 2542SOL    HW2 9524   8.216  10.249  13.973
 2543SOL     OW 9525   2.289   7.469  10.248
 2543SOL    HW1 9526   2.274   7.544  10.307
 2543SOL    HW2 9527   2.378   7.482  10.215
 2544SOL     OW 9528   8.084   7.905  13.829
 2544SOL    HW1 9529   8.174   7.898  13.796
 2544SOL    HW2 9530   8.091   7.956  13.909
 2545SOL     OW 9531   1.534  12.880   5.393
 2545SOL    HW1 9532   1.471  12.929   5.340
 2545SOL    HW2 9533   1.489  12.797   5.412
 2546SOL     OW 9534  14.229   3.903   7.899
 2546SOL    HW1 9535  14.242   3.830   7.959
 2546SOL    HW2 9536  14.278   3.878   7.820
 2547SOL     OW 9537  10.120  10.819   9.238
 2547SOL    HW1 9538  10.055  10.759   9.276
 2547SOL    HW2 9539  10.126  10.793   9.146
 2548SOL     OW 9540   4.973   7.167  12.185
 2548SOL    HW1 9541   5.004   7.256  12.203
 2548SOL    HW2 9542   4.952   7.168  12.092
 2549SOL     OW 9543  14.592   9.811   1.148
 2549SOL    HW1 9544  14.658   9.850   1.092
 2549SOL    HW2 9545  14.510   9.853   1.122
 2550SOL     OW 9546   7.581  13.151  11.087
 2550SOL    HW1 9547   7.650  13.146  11.153
 2550SOL    HW2 9548   7.503  13.178  11.135
 2551SOL     OW 9549   6.765   2.368  13.453
 2551SOL    HW1 9550   6.807   2.324  13.379
 2551SOL    HW2 9551   6.775   2.461  13.435
 2552SOL     OW 9552  13.717  14.071   0.211
 2552SOL    HW1 9553  13.752  14.142   0.265
 2552SOL    HW2 9554  13.622  14.076   0.224
 2553SOL     OW 9555   3.242   4.462   0.289
 2553SOL    HW1 9556   3.321   4.444   0.238
 2553SOL    HW2 9557   3.195   4.379   0.291
 2554SOL     OW 9558   9.478  14.100  13.638
 2554SOL    HW1 9559   9.512  14.042  13.706
 2554SOL    HW2 9560   9.400  14.055  13.605
 2555SOL     OW 9561   1.681   7.264  10.177
 2555SOL    HW1 9562   1.718   7.213  10.106
 2555SOL    HW2 9563   1.700   7.213  10.256
 2556SOL     OW 9564   9.655   6.496   5.257
 2556SOL    HW1 9565   9.587   6.493   5.190
 2556SOL    HW2 9566   9.620   6.554   5.325
 2557SOL     OW 9567  10.039   4.413   7.924
 2557SOL    HW1 9568  10.133   4.420   7.904
 2557SOL    HW2 9569   9.997   4.422   7.839
 2558SOL     OW 9570  11.069   3.798   5.895
 2558SOL    HW1 9571  11.142   3.746   5.928
 2558SOL    HW2 9572  11.048   3.760   5.810
 2559SOL     OW 9573  14.719   5.275   8.962
 2559SOL    HW1 9574  14.673   5.248   9.041
 2559SOL    HW2 9575  14.713   5.371   8.961
 2560SOL     OW 9576   0.711   2.409  12.112
 2560SOL    HW1 9577   0.786   2.351  12.111
 2560SOL    HW2 9578   0.723   2.466  12.036
 2561SOL     OW 9579   3.219   6.947   7.207
 2561SOL    HW1 9580   3.240   7.019   7.266
 2561SOL    HW2 9581   3.293   6.944   7.145
 2562SOL     OW 9582   3.825  12.359   2.662
 2562SOL    HW1 9583   3.832  12.266   2.641
 2562SOL    HW2 9584   3.733  12.380   2.646
 2563SOL     OW 9585  12.843   8.870   8.429
 2563SOL    HW1 9586  12.875   8.789   8.391
 2563SOL    HW2 9587  12.757   8.847   8.466
 2564SOL     OW 9588  14.033   6.037   8.685
 2564SOL    HW1 9589  13.949   6.083   8.674
 2564SOL    HW2 9590  14.084   6.063   8.609
 2565SOL     OW 9591  10.227   7.481  12.484
 2565SOL    HW1 9592  10.238   7.449  12.394
 2565SOL    HW2 9593  10.166   7.420  12.524
 2566SOL     OW 9594  13.236  12.563   5.781
 2566SOL    HW1 9595  13.164  12.520   5.826
 2566SOL    HW2 9596  13.286  12.492   5.741
 2567SOL     OW 9597   4.437   6.491   7.389
 2567SOL    HW1 9598   4.505   6.515   7.325
 2567SOL    HW2 9599   4.474   6.414   7.434
 2568SOL     OW 9600   2.216   9.461   2.170
 2568SOL    HW1 9601   2.188   9.433   2.083
 2568SOL    HW2 9602   2.185   9.551   2.177
 2569SOL     OW 9603   0.893   9.598   7.835
 2569SOL    HW1 9604   0.903   9.677   7.780
 2569SOL    HW2 9605   0.805   9.566   7.814
 2570SOL     OW 9606   0.459   1.509  10.815
 2570SOL    HW1 9607   0.470   1.442  10.747
 2570SOL    HW2 9608   0.383   1.480  10.864
 2571SOL     OW 9609  12.556  14.520   6.436
 2571SOL    HW1 9610  12.499  14.457   6.479
 2571SOL    HW2 9611  12.599  14.566   6.508
 2572SOL     OW 9612  11.779   2.317  13.163
 2572SOL    HW1 9613  11.837   2.241  13.164
 2572SOL    HW2 9614  11.691   2.281  13.166
 2573SOL     OW 9615   7.333   3.359   7.153
 2573SOL    HW1 9616   7.336   3.406   7.069
 2573SOL    HW2 9617   7.276   3.412   7.208
 2574SOL     OW 9618   3.972   1.587   4.067
 2574SOL    HW1 9619   4.008   1.577   4.155
 2574SOL    HW2 9620   3.904   1.520   4.060
 2575SOL     OW 9621  12.442   4.687  11.300
 2575SOL    HW1 9622  12.454   4.689  11.395
 2575SOL    HW2 9623  12.494   4.613  11.271
 2576SOL     OW 9624   0.588   5.172   0.117
 2576SOL    HW1 9625   0.674   5.201   0.145
 2576SOL    HW2 9626   0.534   5.174   0.197
 2577SOL     OW 9627   0.147  11.376   2.589
 2577SOL    HW1 9628   0.105  11.456   2.558
 2577SOL    HW2 9629   0.163  11.325   2.509
 2578SOL     OW 9630   8.801   1.430   2.040
 2578SOL    HW1 9631   8.759   1.431   1.954
 2578SOL    HW2 9632   8.735   1.396   2.099
 2579SOL     OW 9633   2.398   5.364   8.985
 2579SOL    HW1 9634   2.383   5.363   8.891
 2579SOL    HW2 9635   2.476   5.310   8.998
 2580SOL     OW 9636   0.814  12.194  11.834
 2580SOL    HW1 9637   0.720  12.198  11.855
 2580SOL    HW2 9638   0.855  12.168  11.916
 2581SOL     OW 9639   6.788   6.879   3.378
 2581SOL    HW1 9640   6.825   6.904   3.293
 2581SOL    HW2 9641   6.820   6.790   3.393
 2582SOL     OW 9642   7.221   8.347   5.400
 2582SOL    HW1 9643   7.206   8.391   5.483
 2582SOL    HW2 9644   7.192   8.257   5.416
 2583SOL     OW 9645   1.770   1.283   3.073
 2583SOL    HW1 9646   1.694   1.341   3.071
 2583SOL    HW2 9647   1.803   1.286   2.983
 2584SOL     OW 9648   4.451  14.437   4.634
 2584SOL    HW1 9649   4.497  14.421   4.716
 2584SOL    HW2 9650   4.370  14.388   4.642
 2585SOL     OW 9651   2.081   2.963   9.402
 2585SOL    HW1 9652   2.152   3.005   9.353
 2585SOL    HW2 9653   2.114   2.958   9.492
 2586SOL     OW 9654   5.202   2.856   9.536
 2586SOL    HW1 9655   5.156   2.935   9.563
 2586SOL    HW2 9656   5.161   2.831   9.453
 2587SOL     OW 9657   6.613  11.400   3.815
 2587SOL    HW1 9658   6.581  11.326   3.764
 2587SOL    HW2 9659   6.703  11.413   3.786
 2588SOL     OW 9660   0.263   0.077  13.139
 2588SOL    HW1 9661   0.283   0.121  13.222
 2588SOL    HW2 9662   0.180   0.033  13.155
 2589SOL     OW 9663   9.621   4.674   0.287
 2589SOL    HW1 9664   9.685   4.634   0.346
 2589SOL    HW2 9665   9.672   4.732   0.232
 2590SOL     OW 9666  11.946  10.544   0.846
 2590SOL    HW1 9667  11.894  10.583   0.916
 2590SOL    HW2 9668  11.882  10.501   0.790
 2591SOL     OW 9669   3.904   4.488   9.937
 2591SOL    HW1 9670   3.812   4.465   9.921
 2591SOL    HW2 9671   3.950   4.462   9.857
 2592SOL     OW 9672   6.336   9.406   8.861
 2592SOL    HW1 9673   6.250   9.447   8.855
 2592SOL    HW2 9674   6.368   9.404   8.771
 2593SOL     OW 9675  13.381  14.279   1.872
 2593SOL    HW1 9676  13.398  14.231   1.791
 2593SOL    HW2 9677  13.297  14.322   1.858
 2594SOL     OW 9678   6.852   4.186   9.691
 2594SOL    HW1 9679   6.798   4.254   9.650
 2594SOL    HW2 9680   6.829   4.189   9.784
 2595SOL     OW 9681   8.611  10.775   5.822
 2595SOL    HW1 9682   8.515  10.773   5.825
 2595SOL    HW2 9683   8.637  10.685   5.841
 2596SOL     OW 9684   5.066   2.963   9.726
 2596SOL    HW1 9685   5.105   2.900   9.788
 2596SOL    HW2 9686   4.979   2.980   9.762
 2597SOL     OW 9687   7.375   5.843   6.187
 2597SOL    HW1 9688   7.368   5.892   6.269
 2597SOL    HW2 9689   7.399   5.754   6.214
 2598SOL     OW 9690   8.612   0.011   4.249
 2598SOL    HW1 9691   8.655   0.069   4.312
 2598SOL    HW2 9692   8.573   0.070   4.185
 2599SOL     OW 9693   8.389  12.651  13.339
 2599SOL    HW1 9694   8.481  12.625  13.343
 2599SOL    HW2 9695   8.388  12.739  13.377
 2600SOL     OW 9696   5.967   9.697   8.302
 2600SOL    HW1 9697   5.951   9.609   8.336
 2600SOL    HW2 9698   5.952   9.754   8.377
 2601SOL     OW 9699   7.779   2.232   8.411
 2601SOL    HW1 9700   7.851   2.264   8.356
 2601SOL    HW2 9701   7.806   2.254   8.500
 2602SOL     OW 9702   6.602   2.859   5.204
 2602SOL    HW1 9703   6.561   2.946   5.197
 2602SOL    HW2 9704   6.627   2.837   5.114
 2603SOL     OW 9705  10.953   9.610   9.831
 2603SOL    HW1 9706  10.993   9.579   9.750
 2603SOL    HW2 9707  11.025   9.650   9.880
 2604SOL     OW 9708   0.224   1.393   5.284
 2604SOL    HW1 9709   0.164   1.461   5.314
 2604SOL    HW2 9710   0.243   1.341   5.363
 2605SOL     OW 9711   5.895   1.591   9.459
 2605SOL    HW1 9712   5.855   1.562   9.541
 2605SOL    HW2 9713   5.951   1.664   9.484
 2606SOL     OW 9714   4.246   0.539   6.267
 2606SOL    HW1 9715   4.335   0.523   6.297
 2606SOL    HW2 9716   4.237   0.634   6.264
 2607SOL     OW 9717   5.951  10.247   5.201
 2607SOL    HW1 9718   5.925  10.154   5.203
 2607SOL    HW2 9719   6.042  10.246   5.228
 2608SOL     OW 9720   5.310   2.255   6.541
 2608SOL    HW1 9721   5.306   2.232   6.448
 2608SOL    HW2 9722   5.311   2.171   6.586
 2609SOL     OW 9723   5.568   9.975   6.096
 2609SOL    HW1 9724   5.506   9.908   6.065
 2609SOL    HW2 9725   5.653   9.932   6.093
 2610SOL     OW 9726   4.232   7.618  13.298
 2610SOL    HW1 9727   4.167   7.583  13.360
 2610SOL    HW2 9728   4.306   7.642  13.353
 2611SOL     OW 9729  13.136  13.657  14.418
 2611SOL    HW1 9730  13.126  13.744  14.378
 2611SOL    HW2 9731  13.157  13.599  14.345
 2612SOL     OW 9732  13.135   6.943   7.453
 2612SOL    HW1 9733  13.172   6.882   7.389
 2612SOL    HW2 9734  13.200   7.013   7.459
 2613SOL     OW 9735   9.458   9.485   3.735
 2613SOL    HW1 9736   9.499   9.572   3.742
 2613SOL    HW2 9737   9.531   9.424   3.747
 2614SOL     OW 9738   5.413   2.226   7.259
 2614SOL    HW1 9739   5.400   2.150   7.316
 2614SOL    HW2 9740   5.392   2.302   7.313
 2615SOL     OW 9741   6.252   0.809   5.465
 2615SOL    HW1 9742   6.181   0.856   5.509
 2615SOL    HW2 9743   6.308   0.878   5.430
 2616SOL     OW 9744   8.931   3.647   6.092
 2616SOL    HW1 9745   8.989   3.612   6.160
 2616SOL    HW2 9746   8.918   3.739   6.116
 2617SOL     OW 9747   9.811   0.878  10.374
 2617SOL    HW1 9748   9.863   0.904  10.298
 2617SOL    HW2 9749   9.864   0.812  10.418
 2618SOL     OW 9750  14.229   3.482  12.180
 2618SOL    HW1 9751  14.241   3.420  12.252
 2618SOL    HW2 9752  14.144   3.460  12.143
 2619SOL     OW 9753   2.653   8.468   8.715
 2619SOL    HW1 9754   2.605   8.425   8.786
 2619SOL    HW2 9755   2.695   8.396   8.668
 2620SOL     OW 9756   1.074   5.915   5.722
 2620SOL    HW1 9757   1.132   5.984   5.689
 2620SOL    HW2 9758   1.008   5.961   5.773
 2621SOL     OW 9759   0.721  14.695   5.961
 2621SOL    HW1 9760   0.707  14.654   5.875
 2621SOL    HW2 9761   0.814  14.715   5.964
 2622SOL     OW 9762  13.781  14.136   8.720
 2622SOL    HW1 9763  13.706  14.170   8.769
 2622SOL    HW2 9764  13.753  14.141   8.628
 2623SOL     OW 9765   6.270  11.005  14.726
 2623SOL    HW1 9766   6.282  11.074  14.791
 2623SOL    HW2 9767   6.241  10.929  14.777
 2624SOL     OW 9768   1.797   3.073  11.454
 2624SOL    HW1 9769   1.848   3.022  11.391
 2624SOL    HW2 9770   1.833   3.161  11.448
 2625SOL     OW 9771  13.205  14.375   3.247
 2625SOL    HW1 9772  13.288  14.344   3.210
 2625SOL    HW2 9773  13.166  14.428   3.177
 2626SOL     OW 9774  14.515   1.099  12.572
 2626SOL    HW1 9775  14.525   1.159  12.645
 2626SOL    HW2 9776  14.525   1.153  12.494
 2627SOL     OW 9777   3.945   6.427  13.802
 2627SOL    HW1 9778   3.966   6.373  13.878
 2627SOL    HW2 9779   3.916   6.510  13.839
 2628SOL     OW 9780  10.778   4.949   4.511
 2628SOL    HW1 9781  10.873   4.943   4.525
 2628SOL    HW2 9782  10.742   4.963   4.599
 2629SOL     OW 9783   4.766  14.599  14.757
 2629SOL    HW1 9784   4.854  14.577  14.728
 2629SOL    HW2 9785   4.713  14.523  14.733
 2630SOL     OW 9786  12.644   0.662   6.556
 2630SOL    HW1 9787  12.643   0.757   6.564
 2630SOL    HW2 9788  12.720   0.643   6.501
 2631SOL     OW 9789   8.630   9.627  12.699
 2631SOL    HW1 9790   8.544   9.623  12.656
 2631SOL    HW2 9791   8.642   9.719  12.720
 2632SOL     OW 9792  12.015  10.192  14.070
 2632SOL    HW1 9793  12.018  10.241  13.988
 2632SOL    HW2 9794  12.100  10.207  14.110
 2633SOL     OW 9795   0.080   1.100   5.248
 2633SOL    HW1 9796   0.050   1.015   5.282
 2633SOL    HW2 9797   0.117   1.144   5.325
 2634SOL     OW 9798   7.339   6.047   9.399
 2634SOL    HW1 9799   7.328   6.117   9.462
 2634SOL    HW2 9800   7.432   6.024   9.403
 2635SOL     OW 9801   2.763  10.215  10.439
 2635SOL    HW1 9802   2.743  10.308  10.441
 2635SOL    HW2 9803   2.737  10.183  10.526
 2636SOL     OW 9804   4.936   5.303   2.167
 2636SOL    HW1 9805   5.001   5.350   2.220
 2636SOL    HW2 9806   4.910   5.366   2.100
 2637SOL     OW 9807  10.840   7.434   4.403
 2637SOL    HW1 9808  10.933   7.458   4.400
 2637SOL    HW2 9809  10.841   7.338   4.402
 2638SOL     OW 9810  14.787   1.834   3.671
 2638SOL    HW1 9811  14.816   1.922   3.696
 2638SOL    HW2 9812  14.704   1.822   3.717
 2639SOL     OW 9813  13.138   3.239   9.439
 2639SOL    HW1 9814  13.050   3.204   9.450
 2639SOL    HW2 9815  13.195   3.176   9.484
 2640SOL     OW 9816   1.899  11.016   9.105
 2640SOL    HW1 9817   1.820  10.966   9.087
 2640SOL    HW2 9818   1.907  11.014   9.201
 2641SOL     OW 9819   4.844   7.541   0.702
 2641SOL    HW1 9820   4.932   7.573   0.724
 2641SOL    HW2 9821   4.844   7.533   0.607
 2642SOL     OW 9822   5.667   2.273  13.407
 2642SOL    HW1 9823   5.746   2.229  13.373
 2642SOL    HW2 9824   5.609   2.201  13.433
 2643SOL     OW 9825   1.941   0.044   7.362
 2643SOL    HW1 9826   2.036   0.054   7.356
 2643SOL    HW2 9827   1.906   0.113   7.306
 2644SOL     OW 9828   2.139   7.697   5.920
 2644SOL    HW1 9829   2.227   7.661   5.916
 2644SOL    HW2 9830   2.082   7.623   5.898
 2645SOL     OW 9831   7.347   2.805   4.286
 2645SOL    HW1 9832   7.381   2.753   4.359
 2645SOL    HW2 9833   7.253   2.790   4.287
 2646SOL     OW 9834   9.480   4.209   4.354
 2646SOL    HW1 9835   9.476   4.279   4.288
 2646SOL    HW2 9836   9.442   4.248   4.432
 2647SOL     OW 9837  10.636   2.983   7.012
 2647SOL    HW1 9838  10.623   3.019   6.925
 2647SOL    HW2 9839  10.699   3.042   7.054
 2648SOL     OW 9840   8.758   4.832  12.418
 2648SOL    HW1 9841   8.780   4.918  12.455
 2648SOL    HW2 9842   8.680   4.848  12.365
 2649SOL     OW 9843   8.841   8.935   1.168
 2649SOL    HW1 9844   8.809   9.001   1.230
 2649SOL    HW2 9845   8.863   8.985   1.089
 2650SOL     OW 9846   3.702   3.358   3.348
 2650SOL    HW1 9847   3.794   3.335   3.363
 2650SOL    HW2 9848   3.697   3.381   3.255
 2651SOL     OW 9849  10.581  12.515   1.899
 2651SOL    HW1 9850  10.578  12.501   1.994
 2651SOL    HW2 9851  10.659  12.467   1.870
 2652SOL     OW 9852  10.881  14.005  14.214
 2652SOL    HW1 9853  10.834  14.006  14.130
 2652SOL    HW2 9854  10.817  13.974  14.277
 2653SOL     OW 9855   4.833  13.903   8.231
 2653SOL    HW1 9856   4.869  13.901   8.142
 2653SOL    HW2 9857   4.910  13.907   8.287
 2654SOL     OW 9858   6.341  11.627  14.067
 2654SOL    HW1 9859   6.315  11.573  13.992
 2654SOL    HW2 9860   6.399  11.693  14.030
 2655SOL     OW 9861  14.734  12.133   6.151
 2655SOL    HW1 9862  14.742  12.216   6.103
 2655SOL    HW2 9863  14.721  12.159   6.242
 2656SOL     OW 9864  10.455  10.023   3.997
 2656SOL    HW1 9865  10.499  10.105   3.974
 2656SOL    HW2 9866  10.389  10.011   3.928
 2657SOL     OW 9867   5.628   0.448  14.722
 2657SOL    HW1 9868   5.673   0.501  14.787
 2657SOL    HW2 9869   5.696   0.391  14.686
 2658SOL     OW 9870   4.246  12.929  11.815
 2658SOL    HW1 9871   4.259  12.951  11.908
 2658SOL    HW2 9872   4.187  12.854  11.816
 2659SOL     OW 9873   1.280   6.989   2.621
 2659SOL    HW1 9874   1.252   7.032   2.540
 2659SOL    HW2 9875   1.207   7.002   2.681
 2660SOL     OW 9876   3.662   8.159   4.983
 2660SOL    HW1 9877   3.593   8.144   5.047
 2660SOL    HW2 9878   3.716   8.228   5.022
 2661SOL     OW 9879   9.522  14.162   8.754
 2661SOL    HW1 9880   9.584  14.153   8.681
 2661SOL    HW2 9881   9.450  14.214   8.719
 2662SOL     OW 9882   5.496  13.758   8.882
 2662SOL    HW1 9883   5.568  13.711   8.841
 2662SOL    HW2 9884   5.417  13.717   8.846
 2663SOL     OW 9885  11.320   9.012   8.256
 2663SOL    HW1 9886  11.301   8.969   8.172
 2663SOL    HW2 9887  11.239   9.002   8.307
 2664SOL     OW 9888   1.151   9.006  14.190
 2664SOL    HW1 9889   1.230   8.951  14.193
 2664SOL    HW2 9890   1.087   8.959  14.245
 2665SOL     OW 9891  10.709   9.247  13.764
 2665SOL    HW1 9892  10.693   9.339  13.743
 2665SOL    HW2 9893  10.686   9.200  13.684
 2666SOL     OW 9894  13.332   9.502   7.849
 2666SOL    HW1 9895  13.281   9.453   7.786
 2666SOL    HW2 9896  13.363   9.436   7.912
 2667SOL     OW 9897   9.350   3.457   8.603
 2667SOL    HW1 9898   9.292   3.456   8.527
 2667SOL    HW2 9899   9.435   3.430   8.569
 2668SOL     OW 9900   0.390  11.507  14.151
 2668SOL    HW1 9901   0.471  11.510  14.201
 2668SOL    HW2 9902   0.413  11.547  14.066
 2669SOL     OW 9903  13.632   0.991   6.735
 2669SOL    HW1 9904  13.646   0.987   6.829
 2669SOL    HW2 9905  13.550   0.942   6.720
 2670SOL     OW 9906   8.822   1.508   7.217
 2670SOL    HW1 9907   8.912   1.533   7.196
 2670SOL    HW2 9908   8.798   1.564   7.291
 2671SOL     OW 9909   2.340  12.668  14.789
 2671SOL    HW1 9910   2.353  12.587  14.838
 2671SOL    HW2 9911   2.400  12.730  14.831
 2672SOL     OW 9912   6.008   3.371   5.824
 2672SOL    HW1 9913   6.018   3.280   5.852
 2672SOL    HW2 9914   5.921   3.396   5.854
 2673SOL     OW 9915   0.700   4.006  10.637
 2673SOL    HW1 9916   0.620   3.956  10.617
 2673SOL    HW2 9917   0.770   3.942  10.629
 2674SOL     OW 9918   1.893  12.158  12.048
 2674SOL    HW1 9919   1.802  12.188  12.050
 2674SOL    HW2 9920   1.895  12.084  12.108
 2675SOL     OW 9921   8.060  10.591   4.131
 2675SOL    HW1 9922   8.026  10.618   4.045
 2675SOL    HW2 9923   7.991  10.535   4.167
 2676SOL     OW 9924  10.905  14.615  12.032
 2676SOL    HW1 9925  10.838  14.582  12.092
 2676SOL    HW2 9926  10.858  14.628  11.949
 2677SOL     OW 9927   6.440   1.536  13.746
 2677SOL    HW1 9928   6.373   1.604  13.743
 2677SOL    HW2 9929   6.429   1.488  13.664
 2678SOL     OW 9930   8.181  14.675   7.132
 2678SOL    HW1 9931   8.197  14.755   7.083
 2678SOL    HW2 9932   8.268  14.637   7.145
 2679SOL     OW 9933  14.822   0.974   5.662
 2679SOL    HW1 9934  14.773   1.041   5.710
 2679SOL    HW2 9935  14.769   0.957   5.584
 2680SOL     OW 9936   1.365   7.462   0.444
 2680SOL    HW1 9937   1.421   7.494   0.374
 2680SOL    HW2 9938   1.378   7.524   0.516
 2681SOL     OW 9939   3.270   6.610   8.846
 2681SOL    HW1 9940   3.308   6.695   8.825
 2681SOL    HW2 9941   3.278   6.558   8.766
 2682SOL     OW 9942   5.116  11.041   3.950
 2682SOL    HW1 9943   5.058  11.092   4.006
 2682SOL    HW2 9944   5.127  10.958   3.996
 2683SOL     OW 9945   0.995   3.346   1.637
 2683SOL    HW1 9946   0.948   3.373   1.715
 2683SOL    HW2 9947   0.944   3.274   1.601
 2684SOL     OW 9948   7.146  14.584   9.693
 2684SOL    HW1 9949   7.116  14.493   9.691
 2684SOL    HW2 9950   7.233  14.582   9.654
 2685SOL     OW 9951  10.854   8.750   8.594
 2685SOL    HW1 9952  10.948   8.751   8.573
 2685SOL    HW2 9953  10.841   8.829   8.646
 2686SOL     OW 9954   3.592   4.686   4.995
 2686SOL    HW1 9955   3.657   4.732   4.941
 2686SOL    HW2 9956   3.603   4.594   4.972
 2687SOL     OW 9957   1.223   2.010   1.550
 2687SOL    HW1 9958   1.153   1.989   1.612
 2687SOL    HW2 9959   1.298   2.032   1.605
 2688SOL     OW 9960   7.966  13.720  11.417
 2688SOL    HW1 9961   7.937  13.670  11.341
 2688SOL    HW2 9962   8.061  13.730  11.405
 2689SOL     OW 9963  11.810   9.083   6.828
 2689SOL    HW1 9964  11.822   9.172   6.795
 2689SOL    HW2 9965  11.800   9.093   6.922
 2690SOL     OW 9966   3.676  10.119   4.597
 2690SOL    HW1 9967   3.673  10.088   4.507
 2690SOL    HW2 9968   3.689  10.040   4.649
 2691SOL     OW 9969   0.311   0.266  13.549
 2691SOL    HW1 9970   0.235   0.321  13.531
 2691SOL    HW2 9971   0.286   0.215  13.626
 2692SOL     OW 9972   0.591   0.970  13.095
 2692SOL    HW1 9973   0.597   0.987  13.001
 2692SOL    HW2 9974   0.657   0.903  13.112
 2693SOL     OW 9975  14.635   5.008   5.191
 2693SOL    HW1 9976  14.712   5.065   5.182
 2693SOL    HW2 9977  14.670   4.920   5.195
 2694SOL     OW 9978  13.824   2.843   8.478
 2694SOL    HW1 9979  13.897   2.817   8.534
 2694SOL    HW2 9980  13.756   2.778   8.494
 2695SOL     OW 9981   2.296  14.647   9.303
 2695SOL    HW1 9982   2.369  14.648   9.364
 2695SOL    HW2 9983   2.219  14.626   9.357
 2696SOL     OW 9984   8.639   9.261  10.890
 2696SOL    HW1 9985   8.703   9.203  10.849
 2696SOL    HW2 9986   8.635   9.336  10.831
 2697SOL     OW 9987  12.920   9.053   3.756
 2697SOL    HW1 9988  12.848   8.997   3.727
 2697SOL    HW2 9989  12.878   9.125   3.802
 2698SOL     OW 9990   7.702   1.979  13.076
 2698SOL    HW1 9991   7.772   2.010  13.133
 2698SOL    HW2 9992   7.740   1.983  12.988
 2699SOL     OW 9993  14.315   9.929  10.848
 2699SOL    HW1 9994  14.291   9.861  10.912
 2699SOL    HW2 9995  14.266   9.905  10.769
 2700SOL     OW 9996   0.769   9.403  14.053
 2700SOL    HW1 9997   0.796   9.486  14.091
 2700SOL    HW2 9998   0.851   9.358  14.032
 2701SOL     OW 9999   0.947   0.585   8.459
 2701SOL    HW110000   0.932   0.630   8.542
 2701SOL    HW210001   0.861   0.583   8.417
 2702SOL     OW10002  10.260  11.880   0.029
 2702SOL    HW110003  10.308  11.867   0.111
 2702SOL    HW210004  10.306  11.826  14.837
 2703SOL     OW10005  13.765   1.709   7.771
 2703SOL    HW110006  13.722   1.626   7.747
 2703SOL    HW210007  13.709   1.776   7.733
 2704SOL     OW10008   7.596   9.969   9.912
 2704SOL    HW110009   7.546   9.950   9.833
 2704SOL    HW210010   7.677   9.920   9.902
 2705SOL     OW10011   3.363   7.434  12.803
 2705SOL    HW110012   3.355   7.344  12.835
 2705SOL    HW210013   3.300   7.440  12.731
 2706SOL     OW10014   6.114  11.028  10.707
 2706SOL    HW110015   6.055  10.963  10.669
 2706SOL    HW210016   6.058  11.104  10.724
 2707SOL     OW10017   5.365   0.596   5.979
 2707SOL    HW110018   5.299   0.653   5.939
 2707SOL    HW210019   5.325   0.509   5.980
 2708SOL     OW10020   4.953   5.694  14.246
 2708SOL    HW110021   5.005   5.775  14.240
 2708SOL    HW210022   4.984   5.641  14.173
 2709SOL     OW10023   1.046   7.993   3.478
 2709SOL    HW110024   1.016   8.003   3.388
 2709SOL    HW210025   1.045   8.082   3.514
 2710SOL     OW10026  14.165  12.141  10.918
 2710SOL    HW110027  14.231  12.079  10.950
 2710SOL    HW210028  14.215  12.204  10.865
 2711SOL     OW10029   9.915  14.625   9.998
 2711SOL    HW110030   9.864  14.547  10.021
 2711SOL    HW210031   9.907  14.682  10.075
 2712SOL     OW10032   6.340   5.182   8.415
 2712SOL    HW110033   6.307   5.162   8.503
 2712SOL    HW210034   6.322   5.103   8.364
 2713SOL     OW10035   5.908   4.415  10.985
 2713SOL    HW110036   5.924   4.507  10.963
 2713SOL    HW210037   5.985   4.369  10.953
 2714SOL     OW10038   6.094  12.935   4.663
 2714SOL    HW110039   6.090  12.881   4.742
 2714SOL    HW210040   6.180  12.918   4.626
 2715SOL     OW10041   6.792   4.154   0.981
 2715SOL    HW110042   6.729   4.082   0.977
 2715SOL    HW210043   6.843   4.137   1.060
 2716SOL     OW10044  12.068   1.389   8.326
 2716SOL    HW110045  12.145   1.344   8.292
 2716SOL    HW210046  12.087   1.482   8.316
 2717SOL     OW10047   1.045  12.005   5.701
 2717SOL    HW110048   0.998  12.062   5.641
 2717SOL    HW210049   1.020  11.916   5.675
 2718SOL     OW10050   5.924   6.928   6.088
 2718SOL    HW110051   5.914   6.940   6.183
 2718SOL    HW210052   6.016   6.949   6.071
 2719SOL     OW10053   4.819  12.568   6.574
 2719SOL    HW110054   4.779  12.504   6.515
 2719SOL    HW210055   4.904  12.530   6.597
 2720SOL     OW10056   9.248   8.843  12.208
 2720SOL    HW110057   9.182   8.868  12.272
 2720SOL    HW210058   9.271   8.924  12.163
 2721SOL     OW10059   2.280  13.328  10.528
 2721SOL    HW110060   2.339  13.275  10.581
 2721SOL    HW210061   2.330  13.347  10.449
 2722SOL     OW10062  12.477   0.208   4.076
 2722SOL    HW110063  12.413   0.162   4.022
 2722SOL    HW210064  12.425   0.245   4.148
 2723SOL     OW10065   4.010   6.378  12.138
 2723SOL    HW110066   3.957   6.379  12.059
 2723SOL    HW210067   3.974   6.307  12.191
 2724SOL     OW10068  10.718   9.904   3.251
 2724SOL    HW110069  10.726   9.810   3.266
 2724SOL    HW210070  10.770   9.921   3.173
 2725SOL     OW10071   3.579   8.799   3.874
 2725SOL    HW110072   3.485   8.788   3.859
 2725SOL    HW210073   3.590   8.894   3.885
 2726SOL     OW10074   6.684   4.749  11.008
 2726SOL    HW110075   6.703   4.701  10.928
 2726SOL    HW210076   6.770   4.763  11.048
 2727SOL     OW10077   6.366   9.888   7.482
 2727SOL    HW110078   6.431   9.819   7.476
 2727SOL    HW210079   6.394   9.953   7.417
 2728SOL     OW10080  11.552   6.786   9.066
 2728SOL    HW110081  11.507   6.702   9.054
 2728SOL    HW210082  11.631   6.765   9.116
 2729SOL     OW10083   5.010   2.621   4.123
 2729SOL    HW110084   4.931   2.613   4.177
 2729SOL    HW210085   4.977   2.633   4.034
 2730SOL     OW10086   6.049  13.669   4.499
 2730SOL    HW110087   6.096  13.613   4.561
 2730SOL    HW210088   5.959  13.635   4.500
 2731SOL     OW10089  13.657  13.103   3.489
 2731SOL    HW110090  13.737  13.051   3.499
 2731SOL    HW210091  13.677  13.163   3.417
 2732SOL     OW10092  13.833   9.766   1.555
 2732SOL    HW110093  13.836   9.712   1.634
 2732SOL    HW210094  13.880   9.846   1.579
 2733SOL     OW10095   3.639   3.736  10.446
 2733SOL    HW110096   3.581   3.727  10.371
 2733SOL    HW210097   3.727   3.729  10.409
 2734SOL     OW10098   7.503  12.970  13.781
 2734SOL    HW110099   7.547  13.045  13.821
 2734SOL    HW210100   7.570  12.929  13.725
 2735SOL     OW10101  10.863   6.652   5.200
 2735SOL    HW110102  10.886   6.744   5.213
 2735SOL    HW210103  10.869   6.638   5.106
 2736SOL     OW10104  11.899   2.925   9.979
 2736SOL    HW110105  11.908   3.018  10.001
 2736SOL    HW210106  11.856   2.924   9.894
 2737SOL     OW10107   3.893   0.285  14.208
 2737SOL    HW110108   3.935   0.363  14.172
 2737SOL    HW210109   3.898   0.296  14.302
 2738SOL     OW10110  13.010  13.118   7.591
 2738SOL    HW110111  12.960  13.063   7.652
 2738SOL    HW210112  13.093  13.072   7.580
 2739SOL     OW10113   7.810  10.013  13.080
 2739SOL    HW110114   7.757  10.092  13.085
 2739SOL    HW210115   7.772   9.962  13.009
 2740SOL     OW10116   8.615   2.174   4.323
 2740SOL    HW110117   8.703   2.179   4.285
 2740SOL    HW210118   8.624   2.112   4.396
 2741SOL     OW10119   7.424  12.063   3.550
 2741SOL    HW110120   7.490  12.128   3.529
 2741SOL    HW210121   7.340  12.106   3.533
 2742SOL     OW10122   2.588   3.166  13.063
 2742SOL    HW110123   2.543   3.122  13.135
 2742SOL    HW210124   2.518   3.202  13.009
 2743SOL     OW10125   7.540   3.120   2.624
 2743SOL    HW110126   7.616   3.098   2.571
 2743SOL    HW210127   7.577   3.144   2.710
 2744SOL     OW10128  12.122   1.154   4.054
 2744SOL    HW110129  12.148   1.145   4.146
 2744SOL    HW210130  12.162   1.236   4.026
 2745SOL     OW10131   4.615   4.233  13.393
 2745SOL    HW110132   4.523   4.242  13.419
 2745SOL    HW210133   4.619   4.269  13.305
 2746SOL     OW10134   6.551   9.687   3.650
 2746SOL    HW110135   6.640   9.677   3.683
 2746SOL    HW210136   6.548   9.776   3.615
 2747SOL     OW10137  13.427   4.897   1.239
 2747SOL    HW110138  13.356   4.960   1.224
 2747SOL    HW210139  13.478   4.936   1.311
 2748SOL     OW10140  12.532   8.967  10.186
 2748SOL    HW110141  12.490   8.947  10.103
 2748SOL    HW210142  12.616   9.006  10.162
 2749SOL     OW10143  10.162   6.927   4.715
 2749SOL    HW110144  10.113   6.848   4.690
 2749SOL    HW210145  10.179   6.971   4.632
 2750SOL     OW10146   1.964  11.505   6.749
 2750SOL    HW110147   1.899  11.543   6.689
 2750SOL    HW210148   1.935  11.531   6.836
 2751SOL     OW10149   4.948   9.483  10.084
 2751SOL    HW110150   4.966   9.545  10.013
 2751SOL    HW210151   5.025   9.426  10.086
 2752SOL     OW10152   5.968   5.478   8.829
 2752SOL    HW110153   5.938   5.390   8.852
 2752SOL    HW210154   6.059   5.481   8.857
 2753SOL     OW10155   9.451   0.010   1.814
 2753SOL    HW110156   9.493  14.801   1.784
 2753SOL    HW210157   9.501   0.035   1.892
 2754SOL     OW10158  12.197   5.000   3.741
 2754SOL    HW110159  12.172   4.974   3.829
 2754SOL    HW210160  12.293   4.999   3.742
 2755SOL     OW10161   8.247   4.192   5.491
 2755SOL    HW110162   8.325   4.162   5.444
 2755SOL    HW210163   8.174   4.152   5.444
 2756SOL     OW10164   2.580  13.900  13.460
 2756SOL    HW110165   2.550  13.978  13.505
 2756SOL    HW210166   2.661  13.875  13.506
 2757SOL     OW10167  12.409   8.931   1.387
 2757SOL    HW110168  12.429   8.984   1.465
 2757SOL    HW210169  12.328   8.885   1.409
 2758SOL     OW10170   5.024   9.590   5.635
 2758SOL    HW110171   5.085   9.517   5.625
 2758SOL    HW210172   4.942   9.558   5.599
 2759SOL     OW10173   2.328   7.217   8.436
 2759SOL    HW110174   2.310   7.124   8.450
 2759SOL    HW210175   2.367   7.220   8.348
 2760SOL     OW10176   5.861   2.134  13.279
 2760SOL    HW110177   5.827   2.146  13.191
 2760SOL    HW210178   5.849   2.041  13.297
 2761SOL     OW10179  12.212  12.270  13.903
 2761SOL    HW110180  12.127  12.309  13.881
 2761SOL    HW210181  12.207  12.181  13.867
 2762SOL     OW10182   6.891  11.956  12.925
 2762SOL    HW110183   6.945  12.017  12.976
 2762SOL    HW210184   6.840  12.012  12.867
 2763SOL     OW10185   5.012  10.127   4.222
 2763SOL    HW110186   4.991  10.218   4.244
 2763SOL    HW210187   5.107  10.125   4.219
 2764SOL     OW10188  13.284   0.709  14.695
 2764SOL    HW110189  13.200   0.750  14.674
 2764SOL    HW210190  13.300   0.732  14.786
 2765SOL     OW10191  10.473   0.950  11.595
 2765SOL    HW110192  10.458   0.903  11.677
 2765SOL    HW210193  10.498   0.883  11.532
 2766SOL     OW10194  12.124  12.308   1.493
 2766SOL    HW110195  12.180  12.345   1.562
 2766SOL    HW210196  12.131  12.213   1.504
 2767SOL     OW10197   3.997   0.056   6.380
 2767SOL    HW110198   3.959   0.050   6.468
 2767SOL    HW210199   4.000   0.150   6.362
 2768SOL     OW10200   9.505   7.598  14.213
 2768SOL    HW110201   9.491   7.691  14.232
 2768SOL    HW210202   9.567   7.569  14.280
 2769SOL     OW10203   8.655   6.303  12.445
 2769SOL    HW110204   8.590   6.371  12.430
 2769SOL    HW210205   8.611   6.222  12.420
 2770SOL     OW10206  12.463   4.000   7.196
 2770SOL    HW110207  12.413   3.918   7.201
 2770SOL    HW210208  12.418   4.051   7.129
 2771SOL     OW10209   1.716   2.809   0.738
 2771SOL    HW110210   1.703   2.734   0.795
 2771SOL    HW210211   1.684   2.781   0.653
 2772SOL     OW10212   8.150   1.398   1.771
 2772SOL    HW110213   8.213   1.372   1.703
 2772SOL    HW210214   8.065   1.392   1.728
 2773SOL     OW10215   4.335   2.602   4.097
 2773SOL    HW110216   4.427   2.606   4.123
 2773SOL    HW210217   4.324   2.512   4.067
 2774SOL     OW10218   6.927  10.570   9.367
 2774SOL    HW110219   7.015  10.548   9.399
 2774SOL    HW210220   6.931  10.552   9.273
 2775SOL     OW10221  10.710   8.465  12.114
 2775SOL    HW110222  10.641   8.440  12.176
 2775SOL    HW210223  10.724   8.386  12.062
 2776SOL     OW10224   9.367   1.109  11.411
 2776SOL    HW110225   9.285   1.070  11.382
 2776SOL    HW210226   9.434   1.065  11.359
 2777SOL     OW10227   5.331  12.843   0.277
 2777SOL    HW110228   5.327  12.785   0.201
 2777SOL    HW210229   5.248  12.891   0.275
 2778SOL     OW10230   6.358   8.146  10.188
 2778SOL    HW110231   6.352   8.159  10.093
 2778SOL    HW210232   6.452   8.147  10.206
 2779SOL     OW10233   7.490   7.093  14.538
 2779SOL    HW110234   7.435   7.016  14.545
 2779SOL    HW210235   7.432   7.167  14.558
 2780SOL     OW10236   1.480   9.539   0.988
 2780SOL    HW110237   1.404   9.494   0.951
 2780SOL    HW210238   1.444   9.591   1.060
 2781SOL     OW10239   0.207   7.265   9.439
 2781SOL    HW110240   0.173   7.345   9.397
 2781SOL    HW210241   0.129   7.210   9.452
 2782SOL     OW10242  11.572   3.592   1.255
 2782SOL    HW110243  11.489   3.564   1.215
 2782SOL    HW210244  11.566   3.687   1.257
 2783SOL     OW10245   3.633  14.816   9.206
 2783SOL    HW110246   3.679  14.843   9.286
 2783SOL    HW210247   3.659  14.724   9.194
 2784SOL     OW10248  13.907   7.778   2.701
 2784SOL    HW110249  13.894   7.721   2.777
 2784SOL    HW210250  13.911   7.719   2.626
 2785SOL     OW10251   2.818  11.036  13.266
 2785SOL    HW110252   2.826  11.068  13.177
 2785SOL    HW210253   2.846  11.109  13.321
 2786SOL     OW10254   8.960  11.692   4.535
 2786SOL    HW110255   9.034  11.700   4.596
 2786SOL    HW210256   8.928  11.781   4.524
 2787SOL     OW10257   8.523   3.804  11.784
 2787SOL    HW110258   8.523   3.711  11.763
 2787SOL    HW210259   8.582   3.843  11.720
 2788SOL     OW10260  10.459   7.023   2.814
 2788SOL    HW110261  10.386   6.961   2.816
 2788SOL    HW210262  10.466   7.048   2.721
 2789SOL     OW10263   3.596  11.985  12.651
 2789SOL    HW110264   3.664  12.008  12.715
 2789SOL    HW210265   3.642  11.984  12.567
 2790SOL     OW10266  12.347   5.793   0.062
 2790SOL    HW110267  12.349   5.780  14.840
 2790SOL    HW210268  12.276   5.736   0.093
 2791SOL     OW10269  10.240   3.618   2.351
 2791SOL    HW110270  10.176   3.685   2.377
 2791SOL    HW210271  10.188   3.552   2.305
 2792SOL     OW10272  11.733   2.333   1.964
 2792SOL    HW110273  11.644   2.355   1.992
 2792SOL    HW210274  11.780   2.314   2.045
 2793SOL     OW10275  12.345   9.581   7.185
 2793SOL    HW110276  12.435   9.602   7.210
 2793SOL    HW210277  12.305   9.545   7.264
 2794SOL     OW10278   3.892  10.747   0.607
 2794SOL    HW110279   3.806  10.786   0.620
 2794SOL    HW210280   3.875  10.663   0.565
 2795SOL     OW10281   0.304   7.622   8.171
 2795SOL    HW110282   0.301   7.651   8.080
 2795SOL    HW210283   0.214   7.627   8.201
 2796SOL     OW10284   6.164   6.270   7.538
 2796SOL    HW110285   6.135   6.348   7.585
 2796SOL    HW210286   6.107   6.265   7.462
 2797SOL     OW10287   2.432   8.060  12.071
 2797SOL    HW110288   2.415   8.055  12.165
 2797SOL    HW210289   2.410   8.150  12.047
 2798SOL     OW10290  14.031   5.464   1.843
 2798SOL    HW110291  14.048   5.466   1.937
 2798SOL    HW210292  13.956   5.406   1.833
 2799SOL     OW10293   1.797  11.686  11.984
 2799SOL    HW110294   1.734  11.624  11.948
 2799SOL    HW210295   1.870  11.631  12.014
 2800SOL     OW10296   1.218   9.050  14.851
 2800SOL    HW110297   1.198   9.143  14.856
 2800SOL    HW210298   1.172   9.012   0.054
 2801SOL     OW10299  12.351   3.418   1.480
 2801SOL    HW110300  12.341   3.439   1.387
 2801SOL    HW210301  12.351   3.502   1.525
 2802SOL     OW10302   2.912   9.519  14.598
 2802SOL    HW110303   2.895   9.508  14.691
 2802SOL    HW210304   2.825   9.526  14.558
 2803SOL     OW10305  11.089   7.450  13.453
 2803SOL    HW110306  11.150   7.497  13.511
 2803SOL    HW210307  11.021   7.417  13.511
 2804SOL     OW10308  12.740   9.309  11.253
 2804SOL    HW110309  12.655   9.284  11.291
 2804SOL    HW210310  12.736   9.275  11.163
 2805SOL     OW10311   3.999   9.071   9.062
 2805SOL    HW110312   3.921   9.076   9.007
 2805SOL    HW210313   3.977   9.008   9.130
 2806SOL     OW10314   9.867  13.559  13.279
 2806SOL    HW110315   9.785  13.543  13.326
 2806SOL    HW210316   9.866  13.653  13.261
 2807SOL     OW10317   7.840  12.831  14.608
 2807SOL    HW110318   7.792  12.841  14.690
 2807SOL    HW210319   7.810  12.904  14.554
 2808SOL     OW10320   7.024  12.903   8.965
 2808SOL    HW110321   7.012  12.927   9.057
 2808SOL    HW210322   7.030  12.807   8.967
 2809SOL     OW10323   4.928   5.500  11.511
 2809SOL    HW110324   4.861   5.442  11.547
 2809SOL    HW210325   4.908   5.585  11.549
 2810SOL     OW10326   9.846   3.261   6.144
 2810SOL    HW110327   9.821   3.188   6.088
 2810SOL    HW210328   9.868   3.221   6.227
 2811SOL     OW10329   7.800  13.052   3.730
 2811SOL    HW110330   7.873  13.071   3.671
 2811SOL    HW210331   7.772  12.963   3.707
 2812SOL     OW10332  14.542   3.007   0.189
 2812SOL    HW110333  14.520   2.967   0.105
 2812SOL    HW210334  14.497   2.953   0.254
 2813SOL     OW10335   0.641   1.046   4.785
 2813SOL    HW110336   0.689   0.970   4.818
 2813SOL    HW210337   0.570   1.058   4.848
 2814SOL     OW10338   7.388   1.653   4.454
 2814SOL    HW110339   7.340   1.723   4.499
 2814SOL    HW210340   7.455   1.698   4.404
 2815SOL     OW10341   7.563   0.312  10.907
 2815SOL    HW110342   7.535   0.242  10.848
 2815SOL    HW210343   7.624   0.269  10.967
 2816SOL     OW10344   2.051   0.354  11.518
 2816SOL    HW110345   2.141   0.346  11.487
 2816SOL    HW210346   2.005   0.398  11.446
 2817SOL     OW10347  14.087  13.317   4.673
 2817SOL    HW110348  14.076  13.373   4.750
 2817SOL    HW210349  14.007  13.265   4.669
 2818SOL     OW10350  11.156   7.798   0.377
 2818SOL    HW110351  11.083   7.775   0.435
 2818SOL    HW210352  11.159   7.894   0.378
 2819SOL     OW10353   3.319   4.080  11.809
 2819SOL    HW110354   3.357   4.166  11.825
 2819SOL    HW210355   3.360   4.049  11.729
 2820SOL     OW10356  12.669   7.522   0.553
 2820SOL    HW110357  12.583   7.493   0.585
 2820SOL    HW210358  12.695   7.454   0.491
 2821SOL     OW10359  14.554  13.874  13.471
 2821SOL    HW110360  14.533  13.913  13.555
 2821SOL    HW210361  14.476  13.823  13.448
 2822SOL     OW10362   3.305   3.442   7.689
 2822SOL    HW110363   3.276   3.507   7.626
 2822SOL    HW210364   3.346   3.493   7.759
 2823SOL     OW10365   3.459  12.899   8.792
 2823SOL    HW110366   3.523  12.941   8.734
 2823SOL    HW210367   3.377  12.900   8.742
 2824SOL     OW10368  13.063   6.690   9.988
 2824SOL    HW110369  13.096   6.777  10.007
 2824SOL    HW210370  12.971   6.692  10.018
 2825SOL     OW10371  12.374   6.953  14.060
 2825SOL    HW110372  12.390   6.863  14.030
 2825SOL    HW210373  12.350   6.943  14.152
 2826SOL     OW10374   4.093   8.039   4.908
 2826SOL    HW110375   4.059   7.985   4.837
 2826SOL    HW210376   4.181   8.065   4.879
 2827SOL     OW10377  13.635   4.370   8.527
 2827SOL    HW110378  13.543   4.360   8.504
 2827SOL    HW210379  13.667   4.280   8.541
 2828SOL     OW10380  10.047   7.920   3.001
 2828SOL    HW110381  10.042   7.839   3.052
 2828SOL    HW210382   9.970   7.918   2.945
 2829SOL     OW10383   5.381   9.950  10.720
 2829SOL    HW110384   5.440   9.952  10.796
 2829SOL    HW210385   5.311   9.890  10.745
 2830SOL     OW10386   9.673   6.554  13.651
 2830SOL    HW110387   9.679   6.592  13.563
 2830SOL    HW210388   9.581   6.564  13.674
 2831SOL     OW10389  11.465   7.654   9.295
 2831SOL    HW110390  11.533   7.620   9.353
 2831SOL    HW210391  11.404   7.700   9.352
 2832SOL     OW10392   9.091   4.481   8.537
 2832SOL    HW110393   9.178   4.464   8.573
 2832SOL    HW210394   9.107   4.541   8.465
 2833SOL     OW10395  14.041  11.426  12.602
 2833SOL    HW110396  14.042  11.331  12.587
 2833SOL    HW210397  13.970  11.458  12.546
 2834SOL     OW10398   5.270   7.090   9.059
 2834SOL    HW110399   5.255   6.999   9.035
 2834SOL    HW210400   5.365   7.097   9.068
 2835SOL     OW10401   1.311  10.838   2.855
 2835SOL    HW110402   1.329  10.887   2.935
 2835SOL    HW210403   1.239  10.779   2.878
 2836SOL     OW10404   6.540  12.800   7.860
 2836SOL    HW110405   6.524  12.757   7.944
 2836SOL    HW210406   6.456  12.841   7.838
 2837SOL     OW10407   3.834   5.097   4.283
 2837SOL    HW110408   3.775   5.058   4.218
 2837SOL    HW210409   3.883   5.163   4.234
 2838SOL     OW10410  11.587   9.681   5.825
 2838SOL    HW110411  11.655   9.741   5.854
 2838SOL    HW210412  11.568   9.628   5.903
 2839SOL     OW10413   8.291  12.125  12.640
 2839SOL    HW110414   8.348  12.169  12.703
 2839SOL    HW210415   8.253  12.197  12.589
 2840SOL     OW10416   7.488   6.023  13.964
 2840SOL    HW110417   7.550   6.088  13.997
 2840SOL    HW210418   7.530   5.987  13.885
 2841SOL     OW10419   1.056   3.199  10.186
 2841SOL    HW110420   1.136   3.246  10.208
 2841SOL    HW210421   1.000   3.264  10.144
 2842SOL     OW10422   3.959   1.151   0.435
 2842SOL    HW110423   3.880   1.166   0.383
 2842SOL    HW210424   4.022   1.215   0.402
 2843SOL     OW10425   4.200   9.177  11.273
 2843SOL    HW110426   4.177   9.106  11.333
 2843SOL    HW210427   4.280   9.148  11.229
 2844SOL     OW10428  12.046   8.972  11.808
 2844SOL    HW110429  11.973   8.977  11.870
 2844SOL    HW210430  12.121   8.949  11.862
 2845SOL     OW10431  11.044   5.625   1.877
 2845SOL    HW110432  11.011   5.542   1.911
 2845SOL    HW210433  10.966   5.673   1.850
 2846SOL     OW10434  13.157  11.330   7.544
 2846SOL    HW110435  13.100  11.292   7.477
 2846SOL    HW210436  13.196  11.254   7.588
 2847SOL     OW10437  14.714  14.719   6.216
 2847SOL    HW110438  14.722  14.627   6.190
 2847SOL    HW210439  14.668  14.761   6.143
 2848SOL     OW10440  13.812   2.959   2.900
 2848SOL    HW110441  13.761   2.950   2.981
 2848SOL    HW210442  13.872   2.884   2.901
 2849SOL     OW10443  11.697   5.376   8.240
 2849SOL    HW110444  11.679   5.373   8.146
 2849SOL    HW210445  11.744   5.458   8.253
 2850SOL     OW10446   6.659   5.744  10.564
 2850SOL    HW110447   6.689   5.827  10.526
 2850SOL    HW210448   6.586   5.717  10.509
 2851SOL     OW10449   5.917   0.783   1.923
 2851SOL    HW110450   5.885   0.717   1.862
 2851SOL    HW210451   5.884   0.755   2.009
 2852SOL     OW10452   3.616   1.655  11.569
 2852SOL    HW110453   3.545   1.667  11.506
 2852SOL    HW210454   3.602   1.724  11.634
 2853SOL     OW10455  14.226  10.814   5.908
 2853SOL    HW110456  14.234  10.909   5.899
 2853SOL    HW210457  14.309  10.780   5.875
 2854SOL     OW10458   4.198   3.642   8.500
 2854SOL    HW110459   4.232   3.718   8.452
 2854SOL    HW210460   4.255   3.570   8.473
 2855SOL     OW10461   2.917  14.644   5.148
 2855SOL    HW110462   2.846  14.617   5.089
 2855SOL    HW210463   2.974  14.698   5.094
 2856SOL     OW10464  11.278   5.608  11.287
 2856SOL    HW110465  11.207   5.548  11.310
 2856SOL    HW210466  11.240   5.695  11.298
 2857SOL     OW10467  12.248   8.397   1.030
 2857SOL    HW110468  12.265   8.321   0.976
 2857SOL    HW210469  12.157   8.387   1.059
 2858SOL     OW10470   0.516   2.452  12.612
 2858SOL    HW110471   0.500   2.379  12.671
 2858SOL    HW210472   0.519   2.413  12.525
 2859SOL     OW10473   8.208   5.032  12.393
 2859SOL    HW110474   8.174   5.039  12.304
 2859SOL    HW210475   8.303   5.044  12.383
 2860SOL     OW10476  13.298   6.440   6.407
 2860SOL    HW110477  13.212   6.461   6.444
 2860SOL    HW210478  13.292   6.466   6.315
 2861SOL     OW10479   8.468   5.557   3.196
 2861SOL    HW110480   8.386   5.508   3.201
 2861SOL    HW210481   8.492   5.573   3.288
 2862SOL     OW10482  14.537   3.434   1.723
 2862SOL    HW110483  14.556   3.500   1.657
 2862SOL    HW210484  14.500   3.483   1.797
 2863SOL     OW10485  12.746   3.295   5.766
 2863SOL    HW110486  12.805   3.282   5.692
 2863SOL    HW210487  12.663   3.321   5.728
 2864SOL     OW10488   4.204   4.067   9.587
 2864SOL    HW110489   4.214   4.009   9.662
 2864SOL    HW210490   4.139   4.024   9.531
 2865SOL     OW10491  10.765  11.914  10.973
 2865SOL    HW110492  10.740  12.000  11.007
 2865SOL    HW210493  10.684  11.877  10.937
 2866SOL     OW10494  13.651   4.095   7.177
 2866SOL    HW110495  13.661   4.021   7.117
 2866SOL    HW210496  13.741   4.114   7.206
 2867SOL     OW10497   2.549  11.287   6.549
 2867SOL    HW110498   2.583  11.198   6.536
 2867SOL    HW210499   2.527  11.290   6.642
 2868SOL     OW10500   0.279  11.677   8.286
 2868SOL    HW110501   0.305  11.738   8.356
 2868SOL    HW210502   0.311  11.718   8.206
 2869SOL     OW10503   2.977  14.186   1.172
 2869SOL    HW110504   3.039  14.156   1.239
 2869SOL    HW210505   2.922  14.109   1.155
 2870SOL     OW10506   0.106   9.120   6.484
 2870SOL    HW110507   0.027   9.154   6.441
 2870SOL    HW210508   0.172   9.188   6.471
 2871SOL     OW10509   7.076   5.597  14.231
 2871SOL    HW110510   7.105   5.658  14.299
 2871SOL    HW210511   7.050   5.653  14.158
 2872SOL     OW10512  14.809   7.584   0.264
 2872SOL    HW110513  14.813   7.539   0.179
 2872SOL    HW210514  14.737   7.647   0.254
 2873SOL     OW10515  11.440   1.237   4.287
 2873SOL    HW110516  11.458   1.324   4.251
 2873SOL    HW210517  11.519   1.214   4.336
 2874SOL     OW10518   4.467   7.972  10.613
 2874SOL    HW110519   4.445   7.887  10.575
 2874SOL    HW210520   4.384   8.019  10.616
 2875SOL     OW10521   4.423  12.278  11.887
 2875SOL    HW110522   4.340  12.231  11.886
 2875SOL    HW210523   4.428  12.322  11.802
 2876SOL     OW10524   0.143   2.014  11.894
 2876SOL    HW110525   0.071   1.962  11.929
 2876SOL    HW210526   0.170   2.070  11.967
 2877SOL     OW10527  13.459   9.298  14.281
 2877SOL    HW110528  13.372   9.263  14.259
 2877SOL    HW210529  13.465   9.287  14.376
 2878SOL     OW10530   8.383   9.402   9.389
 2878SOL    HW110531   8.302   9.391   9.438
 2878SOL    HW210532   8.355   9.431   9.302
 2879SOL     OW10533   3.087  13.248  13.934
 2879SOL    HW110534   3.116  13.159  13.956
 2879SOL    HW210535   2.993  13.248  13.953
 2880SOL     OW10536   9.642   9.397   9.012
 2880SOL    HW110537   9.619   9.435   9.096
 2880SOL    HW210538   9.727   9.435   8.991
 2881SOL     OW10539   8.547   1.937   9.891
 2881SOL    HW110540   8.635   1.967   9.867
 2881SOL    HW210541   8.490   1.974   9.824
 2882SOL     OW10542   2.669  14.010   6.361
 2882SOL    HW110543   2.600  13.997   6.296
 2882SOL    HW210544   2.680  13.924   6.401
 2883SOL     OW10545  11.903  10.492   8.085
 2883SOL    HW110546  11.938  10.443   8.010
 2883SOL    HW210547  11.839  10.434   8.124
 2884SOL     OW10548  11.227  14.682   3.769
 2884SOL    HW110549  11.137  14.704   3.747
 2884SOL    HW210550  11.231  14.690   3.864
 2885SOL     OW10551   3.558   3.875   3.841
 2885SOL    HW110552   3.568   3.901   3.932
 2885SOL    HW210553   3.618   3.932   3.793
 2886SOL     OW10554   3.151   5.290  10.370
 2886SOL    HW110555   3.245   5.299  10.356
 2886SOL    HW210556   3.128   5.207  10.327
 2887SOL     OW10557   9.671  11.633   3.761
 2887SOL    HW110558   9.606  11.642   3.831
 2887SOL    HW210559   9.713  11.719   3.756
 2888SOL     OW10560   7.857   0.212   9.459
 2888SOL    HW110561   7.768   0.227   9.426
 2888SOL    HW210562   7.866   0.116   9.459
 2889SOL     OW10563  14.631   8.498  11.048
 2889SOL    HW110564  14.600   8.474  11.135
 2889SOL    HW210565  14.552   8.522  11.000
 2890SOL     OW10566   6.071   2.929   5.203
 2890SOL    HW110567   6.040   3.018   5.191
 2890SOL    HW210568   6.125   2.932   5.281
 2891SOL     OW10569   4.341   5.023   6.370
 2891SOL    HW110570   4.292   5.083   6.426
 2891SOL    HW210571   4.419   5.072   6.345
 2892SOL     OW10572   3.816   7.697   4.427
 2892SOL    HW110573   3.772   7.779   4.401
 2892SOL    HW210574   3.794   7.636   4.357
 2893SOL     OW10575   6.534  11.689  14.331
 2893SOL    HW110576   6.501  11.729  14.251
 2893SOL    HW210577   6.611  11.741  14.354
 2894SOL     OW10578   0.277  11.804   5.072
 2894SOL    HW110579   0.306  11.819   4.982
 2894SOL    HW210580   0.205  11.741   5.063
 2895SOL     OW10581   7.557  14.867   5.738
 2895SOL    HW110582   7.567   0.079   5.694
 2895SOL    HW210583   7.512   0.016   5.820
 2896SOL     OW10584   2.053   2.848   4.998
 2896SOL    HW110585   2.102   2.917   4.954
 2896SOL    HW210586   1.961   2.863   4.973
 2897SOL     OW10587   2.719  14.013   8.872
 2897SOL    HW110588   2.683  13.929   8.845
 2897SOL    HW210589   2.789  13.992   8.934
 2898SOL     OW10590  13.866   5.063  10.926
 2898SOL    HW110591  13.919   5.136  10.893
 2898SOL    HW210592  13.848   5.009  10.849
 2899SOL     OW10593  12.754   7.749  11.477
 2899SOL    HW110594  12.696   7.676  11.458
 2899SOL    HW210595  12.710   7.825  11.440
 2900SOL     OW10596  13.469   8.589  14.406
 2900SOL    HW110597  13.399   8.625  14.460
 2900SOL    HW210598  13.433   8.591  14.317
 2901SOL     OW10599   7.611   2.108   9.182
 2901SOL    HW110600   7.653   2.124   9.098
 2901SOL    HW210601   7.521   2.137   9.170
 2902SOL     OW10602   7.184   3.413  14.306
 2902SOL    HW110603   7.238   3.420  14.227
 2902SOL    HW210604   7.233   3.355  14.364
 2903SOL     OW10605   0.635   1.522   8.772
 2903SOL    HW110606   0.716   1.543   8.725
 2903SOL    HW210607   0.571   1.505   8.703
 2904SOL     OW10608   9.049  10.392   9.265
 2904SOL    HW110609   9.076  10.399   9.173
 2904SOL    HW210610   8.956  10.372   9.262
 2905SOL     OW10611   3.291  13.340  14.338
 2905SOL    HW110612   3.368  13.287  14.358
 2905SOL    HW210613   3.327  13.422  14.304
 2906SOL     OW10614   3.975  14.501   5.862
 2906SOL    HW110615   4.020  14.586   5.865
 2906SOL    HW210616   3.959  14.479   5.954
 2907SOL     OW10617   7.463   9.519   8.084
 2907SOL    HW110618   7.489   9.472   8.163
 2907SOL    HW210619   7.544   9.558   8.051
 2908SOL     OW10620  13.424   4.397  14.142
 2908SOL    HW110621  13.334   4.395  14.175
 2908SOL    HW210622  13.471   4.450  14.206
 2909SOL     OW10623   5.369   8.633   7.925
 2909SOL    HW110624   5.329   8.715   7.895
 2909SOL    HW210625   5.385   8.583   7.845
 2910SOL     OW10626   6.657   7.981  12.074
 2910SOL    HW110627   6.615   7.959  11.991
 2910SOL    HW210628   6.664   8.076  12.073
 2911SOL     OW10629   7.811   4.465   4.871
 2911SOL    HW110630   7.819   4.560   4.885
 2911SOL    HW210631   7.718   4.451   4.856
 2912SOL     OW10632   7.776   4.886  14.217
 2912SOL    HW110633   7.814   4.803  14.247
 2912SOL    HW210634   7.683   4.866  14.204
 2913SOL     OW10635   1.544   6.440   2.027
 2913SOL    HW110636   1.566   6.391   2.106
 2913SOL    HW210637   1.451   6.462   2.037
 2914SOL     OW10638   6.743   8.478   8.789
 2914SOL    HW110639   6.792   8.417   8.845
 2914SOL    HW210640   6.778   8.564   8.810
 2915SOL     OW10641   9.763   6.491   0.033
 2915SOL    HW110642   9.693   6.555   0.016
 2915SOL    HW210643   9.727   6.408   0.004
 2916SOL     OW10644   8.285   0.968   6.527
 2916SOL    HW110645   8.205   0.982   6.477
 2916SOL    HW210646   8.291   1.043   6.585
 2917SOL     OW10647   5.829   9.979  14.137
 2917SOL    HW110648   5.877  10.017  14.064
 2917SOL    HW210649   5.798   9.894  14.105
 2918SOL     OW10650   7.556  14.477   5.146
 2918SOL    HW110651   7.590  14.496   5.233
 2918SOL    HW210652   7.542  14.382   5.145
 2919SOL     OW10653   0.052  10.981   0.581
 2919SOL    HW110654   0.120  11.043   0.610
 2919SOL    HW210655   0.054  10.912   0.647
 2920SOL     OW10656   0.420   3.190   1.796
 2920SOL    HW110657   0.363   3.165   1.868
 2920SOL    HW210658   0.374   3.264   1.754
 2921SOL     OW10659   6.923   2.446   7.046
 2921SOL    HW110660   6.856   2.385   7.076
 2921SOL    HW210661   6.888   2.482   6.964
 2922SOL     OW10662  10.150   5.830   6.181
 2922SOL    HW110663  10.106   5.750   6.209
 2922SOL    HW210664  10.149   5.826   6.086
 2923SOL     OW10665  14.815   1.273   4.533
 2923SOL    HW110666  14.865   1.320   4.599
 2923SOL    HW210667  14.754   1.338   4.497
 2924SOL     OW10668  13.960   8.236  14.809
 2924SOL    HW110669  13.900   8.301  14.844
 2924SOL    HW210670  14.017   8.285  14.750
 2925SOL     OW10671   1.821  11.919   6.162
 2925SOL    HW110672   1.804  11.838   6.114
 2925SOL    HW210673   1.846  11.982   6.095
 2926SOL     OW10674  11.872   7.546  11.833
 2926SOL    HW110675  11.938   7.503  11.888
 2926SOL    HW210676  11.921   7.615  11.788
 2927SOL     OW10677   0.144   2.864  12.756
 2927SOL    HW110678   0.087   2.933  12.724
 2927SOL    HW210679   0.138   2.795  12.690
 2928SOL     OW10680   2.144   3.034   6.293
 2928SOL    HW110681   2.063   3.085   6.295
 2928SOL    HW210682   2.147   2.997   6.204
 2929SOL     OW10683   9.757   3.996   4.108
 2929SOL    HW110684   9.664   4.003   4.130
 2929SOL    HW210685   9.803   4.020   4.189
 2930SOL     OW10686  14.073  11.192  13.055
 2930SOL    HW110687  14.033  11.156  12.976
 2930SOL    HW210688  14.101  11.280  13.030
 2931SOL     OW10689   1.906  14.349   1.988
 2931SOL    HW110690   1.923  14.439   1.962
 2931SOL    HW210691   1.810  14.341   1.987
 2932SOL     OW10692  10.550   9.990   0.216
 2932SOL    HW110693  10.624   9.962   0.271
 2932SOL    HW210694  10.472   9.963   0.265
 2933SOL     OW10695   8.521  11.235  11.173
 2933SOL    HW110696   8.568  11.239  11.256
 2933SOL    HW210697   8.481  11.322  11.164
 2934SOL     OW10698  13.643   9.723   7.869
 2934SOL    HW110699  13.637   9.633   7.901
 2934SOL    HW210700  13.571   9.732   7.807
 2935SOL     OW10701   2.753   0.248   6.853
 2935SOL    HW110702   2.772   0.192   6.777
 2935SOL    HW210703   2.778   0.193   6.928
 2936SOL     OW10704   9.016   2.423   9.069
 2936SOL    HW110705   8.984   2.506   9.103
 2936SOL    HW210706   9.012   2.363   9.144
 2937SOL     OW10707  12.270   9.852  13.377
 2937SOL    HW110708  12.309   9.934  13.349
 2937SOL    HW210709  12.194   9.840  13.320
 2938SOL     OW10710  10.685   5.268   2.346
 2938SOL    HW110711  10.759   5.231   2.298
 2938SOL    HW210712  10.613   5.268   2.283
 2939SOL     OW10713  12.948   8.214  12.226
 2939SOL    HW110714  12.897   8.192  12.303
 2939SOL    HW210715  12.997   8.293  12.251
 2940SOL     OW10716   6.788   1.112   5.104
 2940SOL    HW110717   6.866   1.057   5.093
 2940SOL    HW210718   6.723   1.072   5.046
 2941SOL     OW10719  11.429   2.185   4.203
 2941SOL    HW110720  11.443   2.093   4.227
 2941SOL    HW210721  11.341   2.187   4.166
 2942SOL     OW10722   7.951  13.685   0.637
 2942SOL    HW110723   8.004  13.755   0.676
 2942SOL    HW210724   7.863  13.723   0.632
 2943SOL     OW10725   7.986  12.340  12.349
 2943SOL    HW110726   8.008  12.378  12.264
 2943SOL    HW210727   7.895  12.367  12.364
 2944SOL     OW10728   1.819  13.904   0.741
 2944SOL    HW110729   1.843  13.918   0.650
 2944SOL    HW210730   1.759  13.829   0.739
 2945SOL     OW10731  10.224   4.625   4.892
 2945SOL    HW110732  10.231   4.534   4.920
 2945SOL    HW210733  10.143   4.630   4.843
 2946SOL     OW10734   3.525  14.647  13.920
 2946SOL    HW110735   3.480  14.640  14.004
 2946SOL    HW210736   3.537  14.557  13.891
 2947SOL     OW10737   4.285  14.426  12.496
 2947SOL    HW110738   4.195  14.429  12.464
 2947SOL    HW210739   4.278  14.445  12.589
 2948SOL     OW10740   2.401  13.276   1.336
 2948SOL    HW110741   2.403  13.346   1.271
 2948SOL    HW210742   2.339  13.212   1.301
 2949SOL     OW10743   3.017   4.275  10.967
 2949SOL    HW110744   2.991   4.208  11.030
 2949SOL    HW210745   3.113   4.275  10.971
 2950SOL     OW10746   3.117   7.603   7.171
 2950SOL    HW110747   3.037   7.571   7.214
 2950SOL    HW210748   3.087   7.635   7.086
 2951SOL     OW10749   0.129   1.757   5.556
 2951SOL    HW110750   0.179   1.704   5.618
 2951SOL    HW210751   0.182   1.835   5.543
 2952SOL     OW10752  11.260  13.299   9.859
 2952SOL    HW110753  11.345  13.331   9.890
 2952SOL    HW210754  11.262  13.205   9.877
 2953SOL     OW10755   1.642  10.238   7.606
 2953SOL    HW110756   1.681  10.153   7.583
 2953SOL    HW210757   1.679  10.260   7.691
 2954SOL     OW10758   5.750   7.219   2.321
 2954SOL    HW110759   5.721   7.253   2.236
 2954SOL    HW210760   5.682   7.247   2.382
 2955SOL     OW10761  10.285   9.234   2.147
 2955SOL    HW110762  10.290   9.148   2.188
 2955SOL    HW210763  10.249   9.291   2.215
 2956SOL     OW10764   0.684  12.570  14.287
 2956SOL    HW110765   0.691  12.625  14.209
 2956SOL    HW210766   0.592  12.580  14.315
 2957SOL     OW10767  10.395  11.866   3.333
 2957SOL    HW110768  10.466  11.852   3.396
 2957SOL    HW210769  10.413  11.951   3.294
 2958SOL     OW10770  14.237   9.356   1.121
 2958SOL    HW110771  14.143   9.374   1.118
 2958SOL    HW210772  14.250   9.287   1.055
 2959SOL     OW10773   6.297   6.685   8.365
 2959SOL    HW110774   6.382   6.728   8.352
 2959SOL    HW210775   6.266   6.666   8.276
 2960SOL     OW10776  12.798   6.192  12.866
 2960SOL    HW110777  12.757   6.120  12.914
 2960SOL    HW210778  12.726   6.233  12.817
 2961SOL     OW10779  10.226   1.421  10.956
 2961SOL    HW110780  10.210   1.413  11.050
 2961SOL    HW210781  10.263   1.508  10.946
 2962SOL     OW10782  14.121   3.555   5.756
 2962SOL    HW110783  14.057   3.588   5.692
 2962SOL    HW210784  14.139   3.630   5.812
 2963SOL     OW10785  12.272  14.285   3.518
 2963SOL    HW110786  12.208  14.305   3.449
 2963SOL    HW210787  12.254  14.194   3.542
 2964SOL     OW10788   8.389  11.140  13.515
 2964SOL    HW110789   8.356  11.051  13.530
 2964SOL    HW210790   8.403  11.145  13.420
 2965SOL     OW10791  10.739   9.900   0.389
 2965SOL    HW110792  10.835   9.899   0.391
 2965SOL    HW210793  10.713   9.932   0.475
 2966SOL     OW10794   5.341   2.907  10.120
 2966SOL    HW110795   5.249   2.886  10.139
 2966SOL    HW210796   5.381   2.922  10.205
 2967SOL     OW10797   1.762   6.162   1.661
 2967SOL    HW110798   1.794   6.233   1.606
 2967SOL    HW210799   1.742   6.203   1.745
 2968SOL     OW10800   5.071  10.719   4.360
 2968SOL    HW110801   5.083  10.814   4.357
 2968SOL    HW210802   5.159  10.684   4.358
 2969SOL     OW10803  12.343  14.219  14.483
 2969SOL    HW110804  12.256  14.225  14.522
 2969SOL    HW210805  12.329  14.232  14.389
 2970SOL     OW10806  11.715   2.190   8.968
 2970SOL    HW110807  11.714   2.105   9.013
 2970SOL    HW210808  11.764   2.248   9.027
 2971SOL     OW10809   0.825   0.591  14.643
 2971SOL    HW110810   0.890   0.660  14.656
 2971SOL    HW210811   0.845   0.526  14.710
 2972SOL     OW10812   7.299   0.076  14.004
 2972SOL    HW110813   7.306  14.856  13.980
 2972SOL    HW210814   7.239   0.077  14.079
 2973SOL     OW10815   3.970  13.332   6.577
 2973SOL    HW110816   3.993  13.328   6.670
 2973SOL    HW210817   3.874  13.331   6.576
 2974SOL     OW10818   9.235  12.244   8.560
 2974SOL    HW110819   9.262  12.335   8.574
 2974SOL    HW210820   9.159  12.249   8.503
 2975SOL     OW10821   3.169  14.079   0.640
 2975SOL    HW110822   3.264  14.088   0.642
 2975SOL    HW210823   3.136  14.167   0.623
 2976SOL     OW10824   0.066   3.197  13.958
 2976SOL    HW110825   0.035   3.151  13.879
 2976SOL    HW210826   0.052   3.134  14.028
 2977SOL     OW10827   3.992  10.167   8.444
 2977SOL    HW110828   4.063  10.181   8.381
 2977SOL    HW210829   3.953  10.083   8.420
 2978SOL     OW10830  13.424  13.055  12.197
 2978SOL    HW110831  13.335  13.020  12.202
 2978SOL    HW210832  13.412  13.150  12.188
 2979SOL     OW10833  11.299   1.085   2.372
 2979SOL    HW110834  11.348   1.126   2.442
 2979SOL    HW210835  11.209   1.078   2.405
 2980SOL     OW10836   3.503   3.312   8.611
 2980SOL    HW110837   3.530   3.403   8.595
 2980SOL    HW210838   3.534   3.292   8.699
 2981SOL     OW10839   1.960   9.229   3.787
 2981SOL    HW110840   1.873   9.233   3.746
 2981SOL    HW210841   1.970   9.137   3.812
 2982SOL     OW10842   3.784   8.594   1.720
 2982SOL    HW110843   3.747   8.668   1.671
 2982SOL    HW210844   3.709   8.538   1.739
 2983SOL     OW10845   6.250   8.386  10.625
 2983SOL    HW110846   6.227   8.345  10.542
 2983SOL    HW210847   6.272   8.313  10.683
 2984SOL     OW10848   1.624  14.330  10.470
 2984SOL    HW110849   1.615  14.425  10.458
 2984SOL    HW210850   1.674  14.321  10.551
 2985SOL     OW10851   4.652  12.205   1.868
 2985SOL    HW110852   4.561  12.210   1.895
 2985SOL    HW210853   4.701  12.246   1.939
 2986SOL     OW10854   6.658  14.075  14.728
 2986SOL    HW110855   6.710  14.126  14.665
 2986SOL    HW210856   6.714  14.070  14.806
 2987SOL     OW10857   8.198   6.411  11.755
 2987SOL    HW110858   8.142   6.343  11.793
 2987SOL    HW210859   8.141   6.459  11.695
 2988SOL     OW10860   9.783   1.952  10.224
 2988SOL    HW110861   9.863   1.922  10.182
 2988SOL    HW210862   9.714   1.895  10.189
 2989SOL     OW10863  11.522   4.774  13.578
 2989SOL    HW110864  11.452   4.810  13.632
 2989SOL    HW210865  11.533   4.839  13.508
 2990SOL     OW10866   6.992   5.102  14.390
 2990SOL    HW110867   7.002   5.122  14.297
 2990SOL    HW210868   6.968   5.185  14.431
 2991SOL     OW10869   7.626   9.614   5.715
 2991SOL    HW110870   7.660   9.536   5.760
 2991SOL    HW210871   7.701   9.648   5.666
 2992SOL     OW10872  13.591  12.252   9.419
 2992SOL    HW110873  13.564  12.175   9.469
 2992SOL    HW210874  13.663  12.222   9.365
 2993SOL     OW10875   1.310   4.404   8.725
 2993SOL    HW110876   1.357   4.358   8.794
 2993SOL    HW210877   1.225   4.424   8.762
 2994SOL     OW10878   5.566   3.098   8.844
 2994SOL    HW110879   5.516   3.033   8.893
 2994SOL    HW210880   5.650   3.055   8.827
 2995SOL     OW10881  11.594   1.263   4.661
 2995SOL    HW110882  11.564   1.289   4.574
 2995SOL    HW210883  11.585   1.168   4.663
 2996SOL     OW10884  12.010   9.976   6.878
 2996SOL    HW110885  12.044   9.890   6.898
 2996SOL    HW210886  12.012   9.981   6.782
 2997SOL     OW10887   6.618   9.070   5.650
 2997SOL    HW110888   6.630   9.160   5.678
 2997SOL    HW210889   6.703   9.029   5.666
 2998SOL     OW10890   8.987   9.672  12.787
 2998SOL    HW110891   8.973   9.758  12.828
 2998SOL    HW210892   8.907   9.623  12.806
 2999SOL     OW10893  11.089  13.064  11.658
 2999SOL    HW110894  11.037  13.002  11.708
 2999SOL    HW210895  11.138  13.010  11.596
 3000SOL     OW10896   0.528  12.395   6.926
 3000SOL    HW110897   0.529  12.388   6.831
 3000SOL    HW210898   0.587  12.468   6.945
 3001SOL     OW10899   9.645  13.702   4.510
 3001SOL    HW110900   9.709  13.732   4.445
 3001SOL    HW210901   9.677  13.737   4.593
 3002SOL     OW10902  10.124  13.948   6.976
 3002SOL    HW110903  10.159  13.900   6.901
 3002SOL    HW210904  10.032  13.961   6.956
 3003SOL     OW10905   7.653   2.748   2.073
 3003SOL    HW110906   7.602   2.705   2.005
 3003SOL    HW210907   7.699   2.818   2.027
 3004SOL     OW10908   4.751  13.900   6.820
 3004SOL    HW110909   4.837  13.870   6.851
 3004SOL    HW210910   4.764  13.912   6.726
 3005SOL     OW10911   6.479   0.829   9.820
 3005SOL    HW110912   6.514   0.760   9.763
 3005SOL    HW210913   6.551   0.849   9.880
 3006SOL     OW10914   5.238   1.227   1.975
 3006SOL    HW110915   5.248   1.243   2.069
 3006SOL    HW210916   5.153   1.266   1.954
 3007SOL     OW10917   1.988  13.532   6.164
 3007SOL    HW110918   1.914  13.506   6.109
 3007SOL    HW210919   1.951  13.598   6.224
 3008SOL     OW10920   6.931  11.712  13.654
 3008SOL    HW110921   6.950  11.672  13.569
 3008SOL    HW210922   7.014  11.748  13.684
 3009SOL     OW10923   6.305   2.852   5.042
 3009SOL    HW110924   6.241   2.836   5.111
 3009SOL    HW210925   6.343   2.766   5.024
 3010SOL     OW10926   5.626  12.566   1.482
 3010SOL    HW110927   5.561  12.633   1.468
 3010SOL    HW210928   5.580  12.483   1.466
 3011SOL     OW10929   7.410  10.888   5.507
 3011SOL    HW110930   7.342  10.856   5.448
 3011SOL    HW210931   7.445  10.809   5.548
 3012SOL     OW10932   7.794   6.830   9.820
 3012SOL    HW110933   7.723   6.858   9.761
 3012SOL    HW210934   7.808   6.738   9.800
 3013SOL     OW10935   1.524   4.432   7.202
 3013SOL    HW110936   1.559   4.490   7.269
 3013SOL    HW210937   1.599   4.417   7.143
 3014SOL     OW10938  12.510  12.627   5.561
 3014SOL    HW110939  12.597  12.613   5.598
 3014SOL    HW210940  12.515  12.715   5.523
 3015SOL     OW10941   8.705  10.815  10.420
 3015SOL    HW110942   8.722  10.737  10.472
 3015SOL    HW210943   8.708  10.785  10.329
 3016SOL     OW10944  11.849  11.751   1.414
 3016SOL    HW110945  11.857  11.656   1.417
 3016SOL    HW210946  11.821  11.776   1.502
 3017SOL     OW10947  10.108   3.070  10.892
 3017SOL    HW110948  10.104   2.981  10.926
 3017SOL    HW210949  10.137   3.123  10.966
 3018SOL     OW10950   4.255   7.324   9.857
 3018SOL    HW110951   4.264   7.231   9.876
 3018SOL    HW210952   4.337   7.363   9.887
 3019SOL     OW10953   5.237   2.135   1.980
 3019SOL    HW110954   5.176   2.062   1.990
 3019SOL    HW210955   5.301   2.122   2.050
 3020SOL     OW10956   5.662  12.678  13.728
 3020SOL    HW110957   5.750  12.715  13.740
 3020SOL    HW210958   5.677  12.596  13.682
 3021SOL     OW10959   3.579  14.618   5.020
 3021SOL    HW110960   3.666  14.624   4.980
 3021SOL    HW210961   3.586  14.671   5.100
 3022SOL     OW10962  13.332   6.490  12.711
 3022SOL    HW110963  13.269   6.547  12.754
 3022SOL    HW210964  13.417   6.530  12.728
 3023SOL     OW10965  13.934   4.762   0.990
 3023SOL    HW110966  13.939   4.713   0.908
 3023SOL    HW210967  13.862   4.722   1.038
 3024SOL     OW10968   2.800   0.190  10.118
 3024SOL    HW110969   2.846   0.106  10.121
 3024SOL    HW210970   2.752   0.194  10.201
 3025SOL     OW10971   1.880  10.992   4.875
 3025SOL    HW110972   1.907  10.953   4.791
 3025SOL    HW210973   1.785  10.987   4.873
 3026SOL     OW10974   6.912  11.920   0.517
 3026SOL    HW110975   6.948  11.923   0.428
 3026SOL    HW210976   6.890  12.011   0.536
 3027SOL     OW10977  12.592   9.295   3.793
 3027SOL    HW110978  12.558   9.375   3.751
 3027SOL    HW210979  12.524   9.272   3.857
 3028SOL     OW10980   8.399  13.658  12.583
 3028SOL    HW110981   8.471  13.618  12.631
 3028SOL    HW210982   8.418  13.751  12.585
 3029SOL     OW10983   9.991   7.834   6.729
 3029SOL    HW110984  10.034   7.875   6.654
 3029SOL    HW210985   9.998   7.899   6.799
 3030SOL     OW10986  12.816   6.037   3.124
 3030SOL    HW110987  12.801   5.945   3.101
 3030SOL    HW210988  12.822   6.036   3.220
 3031SOL     OW10989   3.895   5.884  14.515
 3031SOL    HW110990   3.938   5.835  14.585
 3031SOL    HW210991   3.909   5.976  14.538
 3032SOL     OW10992   5.816  14.571   5.101
 3032SOL    HW110993   5.836  14.648   5.155
 3032SOL    HW210994   5.781  14.607   5.020
 3033SOL     OW10995   1.486  14.622   0.216
 3033SOL    HW110996   1.574  14.601   0.186
 3033SOL    HW210997   1.440  14.654   0.139
 3034SOL     OW10998  14.795  13.560   6.931
 3034SOL    HW110999  14.796  13.509   6.850
 3034SOL    HW211000  14.775  13.496   6.999
 3035SOL     OW11001   3.638   6.826   5.846
 3035SOL    HW111002   3.703   6.790   5.907
 3035SOL    HW211003   3.558   6.778   5.865
 3036SOL     OW11004  11.161   1.759  12.163
 3036SOL    HW111005  11.115   1.772  12.246
 3036SOL    HW211006  11.249   1.791  12.180
 3037SOL     OW11007  13.825  10.261   3.521
 3037SOL    HW111008  13.816  10.230   3.611
 3037SOL    HW211009  13.754  10.323   3.510
 3038SOL     OW11010  11.728  12.290   4.812
 3038SOL    HW111011  11.777  12.372   4.816
 3038SOL    HW211012  11.644  12.315   4.773
 3039SOL     OW11013   9.418  13.110   6.073
 3039SOL    HW111014   9.357  13.058   6.126
 3039SOL    HW211015   9.500  13.061   6.076
 3040SOL     OW11016   9.459   9.954   4.152
 3040SOL    HW111017   9.369   9.962   4.121
 3040SOL    HW211018   9.495   9.880   4.103
 3041SOL     OW11019   7.554   5.891   1.214
 3041SOL    HW111020   7.516   5.978   1.223
 3041SOL    HW211021   7.643   5.907   1.183
 3042SOL     OW11022  10.997  10.958  10.421
 3042SOL    HW111023  10.929  11.013  10.460
 3042SOL    HW211024  10.968  10.868  10.438
 3043SOL     OW11025   5.901   5.231  12.523
 3043SOL    HW111026   5.863   5.272  12.445
 3043SOL    HW211027   5.993   5.254  12.520
 3044SOL     OW11028   8.500  13.624   7.037
 3044SOL    HW111029   8.576  13.582   6.996
 3044SOL    HW211030   8.459  13.674   6.967
 3045SOL     OW11031   5.676   7.222  12.542
 3045SOL    HW111032   5.600   7.174  12.507
 3045SOL    HW211033   5.696   7.287  12.475
 3046SOL     OW11034   6.337   4.248   1.206
 3046SOL    HW111035   6.379   4.278   1.126
 3046SOL    HW211036   6.279   4.177   1.178
 3047SOL     OW11037   9.275  10.575  12.316
 3047SOL    HW111038   9.272  10.660  12.271
 3047SOL    HW211039   9.300  10.596  12.406
 3048SOL     OW11040   7.435   9.665   3.362
 3048SOL    HW111041   7.526   9.637   3.354
 3048SOL    HW211042   7.436   9.733   3.430
 3049SOL     OW11043  14.628   9.150   1.129
 3049SOL    HW111044  14.613   9.217   1.195
 3049SOL    HW211045  14.544   9.105   1.120
 3050SOL     OW11046   3.507   5.611   6.132
 3050SOL    HW111047   3.591   5.645   6.164
 3050SOL    HW211048   3.528   5.574   6.046
 3051SOL     OW11049   9.946  10.992  12.834
 3051SOL    HW111050   9.966  11.063  12.773
 3051SOL    HW211051   9.998  11.012  12.912
 3052SOL     OW11052  13.433  12.550  10.550
 3052SOL    HW111053  13.399  12.509  10.629
 3052SOL    HW211054  13.474  12.631  10.581
 3053SOL     OW11055  13.091   1.469   7.197
 3053SOL    HW111056  13.135   1.553   7.213
 3053SOL    HW211057  13.034   1.486   7.122
 3054SOL     OW11058   5.518   8.378   0.225
 3054SOL    HW111059   5.487   8.373   0.134
 3054SOL    HW211060   5.612   8.391   0.217
 3055SOL     OW11061   3.752   9.244  11.547
 3055SOL    HW111062   3.770   9.297  11.625
 3055SOL    HW211063   3.665   9.209  11.562
 3056SOL     OW11064   0.483  12.256   9.903
 3056SOL    HW111065   0.413  12.317   9.926
 3056SOL    HW211066   0.498  12.207   9.984
 3057SOL     OW11067  11.808   8.266   1.392
 3057SOL    HW111068  11.847   8.231   1.472
 3057SOL    HW211069  11.788   8.357   1.412
 3058SOL     OW11070  12.135  11.785  11.692
 3058SOL    HW111071  12.155  11.696  11.663
 3058SOL    HW211072  12.127  11.836  11.611
 3059SOL     OW11073   7.260   4.557   8.011
 3059SOL    HW111074   7.303   4.477   8.040
 3059SOL    HW211075   7.206   4.530   7.936
 3060SOL     OW11076   2.945  13.444   1.312
 3060SOL    HW111077   2.925  13.403   1.396
 3060SOL    HW211078   3.029  13.406   1.286
 3061SOL     OW11079   6.752   7.386   2.036
 3061SOL    HW111080   6.833   7.401   2.085
 3061SOL    HW211081   6.770   7.308   1.983
 3062SOL     OW11082  14.246   8.882  13.239
 3062SOL    HW111083  14.317   8.830  13.201
 3062SOL    HW211084  14.195   8.911  13.164
 3063SOL     OW11085  11.680   0.549   1.872
 3063SOL    HW111086  11.681   0.642   1.895
 3063SOL    HW211087  11.692   0.504   1.956
 3064SOL     OW11088   0.488   3.009  10.496
 3064SOL    HW111089   0.425   3.063  10.543
 3064SOL    HW211090   0.485   3.040  10.406
 3065SOL     OW11091   5.554   3.476   1.342
 3065SOL    HW111092   5.491   3.474   1.415
 3065SOL    HW211093   5.502   3.449   1.266
 3066SOL     OW11094   8.862   5.934   7.448
 3066SOL    HW111095   8.834   5.861   7.502
 3066SOL    HW211096   8.915   5.988   7.507
 3067SOL     OW11097   6.413   5.264   3.008
 3067SOL    HW111098   6.505   5.243   2.987
 3067SOL    HW211099   6.417   5.304   3.095
 3068SOL     OW11100   4.763   2.398  13.593
 3068SOL    HW111101   4.684   2.433  13.550
 3068SOL    HW211102   4.737   2.312  13.623
 3069SOL     OW11103  12.460   8.833   5.050
 3069SOL    HW111104  12.403   8.863   4.980
 3069SOL    HW211105  12.533   8.895   5.050
 3070SOL     OW11106   8.856   4.413   9.334
 3070SOL    HW111107   8.923   4.386   9.270
 3070SOL    HW211108   8.774   4.381   9.296
 3071SOL     OW11109   0.304   6.115  11.263
 3071SOL    HW111110   0.380   6.132  11.207
 3071SOL    HW211111   0.304   6.186  11.326
 3072SOL     OW11112   4.599  13.183   9.592
 3072SOL    HW111113   4.641  13.131   9.660
 3072SOL    HW211114   4.558  13.255   9.639
 3073SOL     OW11115   9.816   4.333   2.583
 3073SOL    HW111116   9.887   4.293   2.632
 3073SOL    HW211117   9.859   4.392   2.521
 3074SOL     OW11118   6.767   5.708   2.755
 3074SOL    HW111119   6.809   5.677   2.835
 3074SOL    HW211120   6.829   5.687   2.685
 3075SOL     OW11121   4.168  14.777   8.676
 3075SOL    HW111122   4.120  14.822   8.606
 3075SOL    HW211123   4.258  14.770   8.643
 3076SOL     OW11124   7.360   3.120   3.811
 3076SOL    HW111125   7.347   3.032   3.848
 3076SOL    HW211126   7.332   3.179   3.881
 3077SOL     OW11127   5.055  14.618  14.278
 3077SOL    HW111128   4.984  14.609  14.215
 3077SOL    HW211129   5.119  14.552  14.252
 3078SOL     OW11130  12.293   5.204  10.400
 3078SOL    HW111131  12.246   5.284  10.424
 3078SOL    HW211132  12.382   5.232  10.383
 3079SOL     OW11133   7.234   2.970   1.489
 3079SOL    HW111134   7.215   3.006   1.402
 3079SOL    HW211135   7.154   2.925   1.514
 3080SOL     OW11136  14.096   4.531  11.139
 3080SOL    HW111137  14.123   4.440  11.127
 3080SOL    HW211138  14.102   4.570  11.052
 3081SOL     OW11139   0.737   9.941   0.315
 3081SOL    HW111140   0.643   9.946   0.297
 3081SOL    HW211141   0.773   9.891   0.242
 3082SOL     OW11142  11.625   0.452   3.149
 3082SOL    HW111143  11.557   0.413   3.094
 3082SOL    HW211144  11.588   0.452   3.237
 3083SOL     OW11145   9.528   1.443  10.780
 3083SOL    HW111146   9.579   1.514  10.742
 3083SOL    HW211147   9.551   1.442  10.872
 3084SOL     OW11148   1.006  11.701   4.252
 3084SOL    HW111149   1.082  11.752   4.223
 3084SOL    HW211150   1.044  11.627   4.299
 3085SOL     OW11151  11.220   0.002   1.893
 3085SOL    HW111152  11.134  14.833   1.891
 3085SOL    HW211153  11.235   0.024   1.985
 3086SOL     OW11154   7.263   6.068  10.724
 3086SOL    HW111155   7.344   6.090  10.770
 3086SOL    HW211156   7.203   6.039  10.793
 3087SOL     OW11157   4.509   1.649  11.574
 3087SOL    HW111158   4.436   1.597  11.607
 3087SOL    HW211159   4.583   1.624  11.629
 3088SOL     OW11160   4.336  12.111   8.954
 3088SOL    HW111161   4.330  12.015   8.959
 3088SOL    HW211162   4.265  12.136   8.895
 3089SOL     OW11163   8.173   5.901  14.047
 3089SOL    HW111164   8.107   5.948  13.996
 3089SOL    HW211165   8.125   5.865  14.121
 3090SOL     OW11166   0.515   0.695  12.883
 3090SOL    HW111167   0.505   0.657  12.796
 3090SOL    HW211168   0.607   0.722  12.887
 3091SOL     OW11169   4.987  13.319  13.807
 3091SOL    HW111170   5.066  13.265  13.805
 3091SOL    HW211171   4.942  13.293  13.887
 3092SOL     OW11172   3.570   8.721  14.505
 3092SOL    HW111173   3.582   8.694  14.414
 3092SOL    HW211174   3.637   8.787  14.521
 3093SOL     OW11175  14.858   3.545  14.312
 3093SOL    HW111176  14.829   3.456  14.291
 3093SOL    HW211177   0.026   3.576  14.231
 3094SOL     OW11178  13.215   6.084   0.762
 3094SOL    HW111179  13.254   6.032   0.832
 3094SOL    HW211180  13.121   6.077   0.777
 3095SOL     OW11181   7.917   1.156   7.864
 3095SOL    HW111182   7.898   1.076   7.815
 3095SOL    HW211183   7.859   1.151   7.940
 3096SOL     OW11184   2.726  11.419   1.209
 3096SOL    HW111185   2.758  11.332   1.186
 3096SOL    HW211186   2.765  11.436   1.295
 3097SOL     OW11187  14.239   9.713   7.523
 3097SOL    HW111188  14.294   9.687   7.449
 3097SOL    HW211189  14.293   9.697   7.600
 3098SOL     OW11190   0.576   9.096  14.846
 3098SOL    HW111191   0.486   9.128  14.847
 3098SOL    HW211192   0.597   9.089  14.753
 3099SOL     OW11193  13.839   4.843   5.640
 3099SOL    HW111194  13.747   4.846   5.613
 3099SOL    HW211195  13.841   4.780   5.712
 3100SOL     OW11196   6.035  14.484  12.087
 3100SOL    HW111197   6.091  14.475  12.164
 3100SOL    HW211198   6.073  14.424  12.022
 3101SOL     OW11199   4.970   0.700   7.631
 3101SOL    HW111200   5.006   0.785   7.656
 3101SOL    HW211201   5.039   0.659   7.579
 3102SOL     OW11202  10.456   5.976   7.397
 3102SOL    HW111203  10.541   5.961   7.439
 3102SOL    HW211204  10.400   5.906   7.431
 3103SOL     OW11205   8.794   1.548   8.315
 3103SOL    HW111206   8.873   1.588   8.351
 3103SOL    HW211207   8.802   1.455   8.337
 3104SOL     OW11208   0.143   1.780   2.915
 3104SOL    HW111209   0.176   1.711   2.973
 3104SOL    HW211210   0.065   1.814   2.960
 3105SOL     OW11211  10.876  10.684  14.496
 3105SOL    HW111212  10.854  10.595  14.524
 3105SOL    HW211213  10.814  10.740  14.541
 3106SOL     OW11214  14.212   3.506  13.824
 3106SOL    HW111215  14.254   3.424  13.851
 3106SOL    HW211216  14.268   3.539  13.753
 3107SOL     OW11217   6.217   0.421  11.516
 3107SOL    HW111218   6.212   0.489  11.583
 3107SOL    HW211219   6.153   0.448  11.449
 3108SOL     OW11220   6.270   5.831   1.414
 3108SOL    HW111221   6.348   5.885   1.417
 3108SOL    HW211222   6.303   5.741   1.404
 3109SOL     OW11223   3.358   1.312  11.602
 3109SOL    HW111224   3.296   1.239  11.603
 3109SOL    HW211225   3.334   1.366  11.677
 3110SOL     OW11226   0.820   6.368  10.099
 3110SOL    HW111227   0.821   6.459  10.069
 3110SOL    HW211228   0.839   6.374  10.193
 3111SOL     OW11229   0.737   9.587   6.173
 3111SOL    HW111230   0.715   9.578   6.080
 3111SOL    HW211231   0.818   9.638   6.174
 3112SOL     OW11232   8.063   2.715   2.735
 3112SOL    HW111233   8.074   2.733   2.641
 3112SOL    HW211234   7.980   2.669   2.741
 3113SOL     OW11235   8.838  10.315   3.518
 3113SOL    HW111236   8.789  10.391   3.549
 3113SOL    HW211237   8.813  10.244   3.577
 3114SOL     OW11238   2.838   9.628  13.804
 3114SOL    HW111239   2.836   9.660  13.714
 3114SOL    HW211240   2.915   9.669  13.843
 3115SOL     OW11241  10.382   9.460   8.083
 3115SOL    HW111242  10.426   9.429   8.163
 3115SOL    HW211243  10.288   9.452   8.104
 3116SOL     OW11244   9.371  11.619   2.615
 3116SOL    HW111245   9.308  11.552   2.587
 3116SOL    HW211246   9.317  11.696   2.632
 3117SOL     OW11247  13.500   8.399   2.352
 3117SOL    HW111248  13.464   8.313   2.330
 3117SOL    HW211249  13.574   8.380   2.410
 3118SOL     OW11250   1.761   4.120   4.644
 3118SOL    HW111251   1.696   4.123   4.574
 3118SOL    HW211252   1.816   4.196   4.628
 3119SOL     OW11253  12.040   2.346  14.243
 3119SOL    HW111254  12.056   2.312  14.155
 3119SOL    HW211255  12.104   2.417  14.253
 3120SOL     OW11256   8.672  10.107   6.046
 3120SOL    HW111257   8.760  10.070   6.055
 3120SOL    HW211258   8.614  10.034   6.066
 3121SOL     OW11259   0.883  13.294   1.705
 3121SOL    HW111260   0.926  13.238   1.639
 3121SOL    HW211261   0.790  13.290   1.682
 3122SOL     OW11262   9.023  10.942   9.750
 3122SOL    HW111263   8.989  10.871   9.805
 3122SOL    HW211264   9.035  11.015   9.810
 3123SOL     OW11265   9.088   5.346   9.906
 3123SOL    HW111266   9.036   5.411   9.953
 3123SOL    HW211267   9.052   5.262   9.935
 3124SOL     OW11268   3.712  12.307  14.817
 3124SOL    HW111269   3.774  12.304  14.745
 3124SOL    HW211270   3.745  12.242   0.007
 3125SOL     OW11271   4.381   8.529   8.979
 3125SOL    HW111272   4.404   8.586   8.905
 3125SOL    HW211273   4.465   8.503   9.016
 3126SOL     OW11274   1.570   8.154   4.173
 3126SOL    HW111275   1.653   8.149   4.220
 3126SOL    HW211276   1.505   8.120   4.235
 3127SOL     OW11277   9.500   3.959   7.635
 3127SOL    HW111278   9.566   3.972   7.567
 3127SOL    HW211279   9.548   3.970   7.717
 3128SOL     OW11280   3.827   8.815  14.472
 3128SOL    HW111281   3.918   8.833  14.449
 3128SOL    HW211282   3.776   8.873  14.415
 3129SOL     OW11283   3.581   5.553   6.850
 3129SOL    HW111284   3.641   5.617   6.887
 3129SOL    HW211285   3.630   5.512   6.779
 3130SOL     OW11286   2.216  12.523  12.684
 3130SOL    HW111287   2.249  12.558  12.767
 3130SOL    HW211288   2.133  12.481  12.708
 3131SOL     OW11289  14.122  13.812  12.841
 3131SOL    HW111290  14.146  13.763  12.762
 3131SOL    HW211291  14.204  13.816  12.892
 3132SOL     OW11292  13.040  13.081   5.774
 3132SOL    HW111293  12.963  13.029   5.750
 3132SOL    HW211294  13.110  13.017   5.783
 3133SOL     OW11295   5.523   6.640  12.829
 3133SOL    HW111296   5.515   6.548  12.852
 3133SOL    HW211297   5.611   6.664  12.856
 3134SOL     OW11298  12.804   3.478   9.577
 3134SOL    HW111299  12.724   3.448   9.619
 3134SOL    HW211300  12.847   3.533   9.642
 3135SOL     OW11301   4.613   2.873   8.419
 3135SOL    HW111302   4.614   2.931   8.342
 3135SOL    HW211303   4.587   2.929   8.491
 3136SOL     OW11304   8.016  12.172  12.649
 3136SOL    HW111305   8.089  12.186  12.709
 3136SOL    HW211306   8.038  12.091  12.602
 3137SOL     OW11307   7.378  10.567   9.987
 3137SOL    HW111308   7.433  10.553   9.910
 3137SOL    HW211309   7.401  10.655  10.017
 3138SOL     OW11310   8.657   6.847   8.156
 3138SOL    HW111311   8.636   6.834   8.064
 3138SOL    HW211312   8.604   6.783   8.203
 3139SOL     OW11313  11.628   9.386   7.184
 3139SOL    HW111314  11.594   9.331   7.114
 3139SOL    HW211315  11.555   9.395   7.245
 3140SOL     OW11316   0.104  13.098   7.204
 3140SOL    HW111317   0.112  13.145   7.288
 3140SOL    HW211318   0.133  13.162   7.139
 3141SOL     OW11319  11.481  12.003  13.776
 3141SOL    HW111320  11.489  12.091  13.812
 3141SOL    HW211321  11.446  12.017  13.688
 3142SOL     OW11322   0.054   2.084   1.175
 3142SOL    HW111323   0.012   2.131   1.103
 3142SOL    HW211324   0.034   1.992   1.157
 3143SOL     OW11325   8.284   2.356  10.299
 3143SOL    HW111326   8.332   2.349  10.217
 3143SOL    HW211327   8.231   2.277  10.304
 3144SOL     OW11328   9.432  10.343   4.598
 3144SOL    HW111329   9.396  10.430   4.581
 3144SOL    HW211330   9.381  10.284   4.543
 3145SOL     OW11331   8.306   4.826   8.232
 3145SOL    HW111332   8.269   4.909   8.204
 3145SOL    HW211333   8.397   4.846   8.252
 3146SOL     OW11334   1.172   1.736   2.246
 3146SOL    HW111335   1.245   1.753   2.187
 3146SOL    HW211336   1.208   1.681   2.315
 3147SOL     OW11337  11.293   7.935   7.408
 3147SOL    HW111338  11.317   7.979   7.327
 3147SOL    HW211339  11.301   8.002   7.475
 3148SOL     OW11340  14.590  13.585   6.487
 3148SOL    HW111341  14.533  13.515   6.454
 3148SOL    HW211342  14.537  13.630   6.553
 3149SOL     OW11343  13.888   3.988   2.355
 3149SOL    HW111344  13.797   3.994   2.387
 3149SOL    HW211345  13.881   3.996   2.260
 3150SOL     OW11346  10.698   9.433   4.461
 3150SOL    HW111347  10.793   9.443   4.464
 3150SOL    HW211348  10.673   9.416   4.552
 3151SOL     OW11349   4.895  10.370  11.853
 3151SOL    HW111350   4.944  10.334  11.779
 3151SOL    HW211351   4.904  10.465  11.844
 3152SOL     OW11352   3.011   8.723   1.162
 3152SOL    HW111353   3.022   8.632   1.190
 3152SOL    HW211354   2.925   8.748   1.197
 3153SOL     OW11355   4.537   4.370  10.225
 3153SOL    HW111356   4.558   4.461  10.204
 3153SOL    HW211357   4.448   4.374  10.259
 3154SOL     OW11358   7.828   9.908   8.522
 3154SOL    HW111359   7.734   9.899   8.510
 3154SOL    HW211360   7.844   9.877   8.611
 3155SOL     OW11361   4.515   6.414   8.900
 3155SOL    HW111362   4.497   6.492   8.849
 3155SOL    HW211363   4.550   6.446   8.983
 3156SOL     OW11364   6.428  11.136   9.882
 3156SOL    HW111365   6.498  11.095   9.831
 3156SOL    HW211366   6.431  11.229   9.857
 3157SOL     OW11367   2.377   1.119   7.313
 3157SOL    HW111368   2.400   1.125   7.220
 3157SOL    HW211369   2.382   1.209   7.345
 3158SOL     OW11370   6.194  10.312   4.727
 3158SOL    HW111371   6.152  10.346   4.806
 3158SOL    HW211372   6.131  10.251   4.690
 3159SOL     OW11373   1.829  11.133  14.136
 3159SOL    HW111374   1.824  11.228  14.145
 3159SOL    HW211375   1.739  11.107  14.116
 3160SOL     OW11376   1.820   0.415   8.756
 3160SOL    HW111377   1.790   0.398   8.667
 3160SOL    HW211378   1.797   0.335   8.804
 3161SOL     OW11379   7.261   0.598  10.603
 3161SOL    HW111380   7.237   0.510  10.631
 3161SOL    HW211381   7.221   0.608  10.517
 3162SOL     OW11382   7.294   2.269   3.879
 3162SOL    HW111383   7.291   2.357   3.841
 3162SOL    HW211384   7.231   2.272   3.951
 3163SOL     OW11385   0.497  10.105   4.303
 3163SOL    HW111386   0.475  10.159   4.227
 3163SOL    HW211387   0.575  10.146   4.340
 3164SOL     OW11388   7.581   3.585   8.598
 3164SOL    HW111389   7.610   3.637   8.672
 3164SOL    HW211390   7.576   3.495   8.631
 3165SOL     OW11391   2.907   9.582  10.543
 3165SOL    HW111392   2.856   9.624  10.474
 3165SOL    HW211393   2.899   9.488  10.526
 3166SOL     OW11394   2.303   5.615   0.733
 3166SOL    HW111395   2.216   5.633   0.768
 3166SOL    HW211396   2.311   5.672   0.656
 3167SOL     OW11397   9.835   5.327   1.265
 3167SOL    HW111398   9.880   5.351   1.346
 3167SOL    HW211399   9.874   5.383   1.198
 3168SOL     OW11400   8.979  11.302  12.656
 3168SOL    HW111401   9.025  11.243  12.596
 3168SOL    HW211402   8.908  11.340  12.603
 3169SOL     OW11403   5.242   4.047  12.362
 3169SOL    HW111404   5.240   3.956  12.331
 3169SOL    HW211405   5.187   4.047  12.440
 3170SOL     OW11406  14.597   5.319   7.281
 3170SOL    HW111407  14.641   5.251   7.332
 3170SOL    HW211408  14.605   5.398   7.335
 3171SOL     OW11409   5.805  11.625   3.310
 3171SOL    HW111410   5.725  11.642   3.360
 3171SOL    HW211411   5.780  11.561   3.244
 3172SOL     OW11412  14.069   2.091   9.127
 3172SOL    HW111413  14.018   2.014   9.151
 3172SOL    HW211414  14.158   2.070   9.154
 3173SOL     OW11415  10.132   0.182   1.171
 3173SOL    HW111416  10.197   0.187   1.101
 3173SOL    HW211417  10.083   0.102   1.153
 3174SOL     OW11418   9.442   4.010  12.078
 3174SOL    HW111419   9.530   3.996  12.113
 3174SOL    HW211420   9.389   4.034  12.154
 3175SOL     OW11421   1.474   1.689   7.796
 3175SOL    HW111422   1.532   1.616   7.777
 3175SOL    HW211423   1.419   1.659   7.868
 3176SOL     OW11424   6.521   4.791  11.977
 3176SOL    HW111425   6.566   4.749  12.050
 3176SOL    HW211426   6.590   4.814  11.915
 3177SOL     OW11427  11.511   3.209   1.628
 3177SOL    HW111428  11.565   3.131   1.639
 3177SOL    HW211429  11.485   3.208   1.536
 3178SOL     OW11430   6.168   0.664   3.469
 3178SOL    HW111431   6.141   0.751   3.500
 3178SOL    HW211432   6.137   0.659   3.379
 3179SOL     OW11433   4.783   4.869  13.505
 3179SOL    HW111434   4.844   4.826  13.566
 3179SOL    HW211435   4.706   4.813  13.505
 3180SOL     OW11436   0.249  10.377   5.249
 3180SOL    HW111437   0.216  10.373   5.160
 3180SOL    HW211438   0.317  10.310   5.253
 3181SOL     OW11439   1.264   4.655   8.464
 3181SOL    HW111440   1.213   4.649   8.384
 3181SOL    HW211441   1.329   4.724   8.446
 3182SOL     OW11442  14.269  13.729   2.376
 3182SOL    HW111443  14.190  13.748   2.426
 3182SOL    HW211444  14.340  13.759   2.432
 3183SOL     OW11445   1.504   0.366   6.503
 3183SOL    HW111446   1.462   0.317   6.573
 3183SOL    HW211447   1.501   0.457   6.532
 3184SOL     OW11448  12.731   7.314   8.227
 3184SOL    HW111449  12.696   7.397   8.194
 3184SOL    HW211450  12.713   7.251   8.157
 3185SOL     OW11451   9.542   3.457   9.451
 3185SOL    HW111452   9.454   3.464   9.416
 3185SOL    HW211453   9.534   3.482   9.543
 3186SOL     OW11454  14.850  12.969   0.563
 3186SOL    HW111455   0.001  13.056   0.595
 3186SOL    HW211456   0.062  12.924   0.553
 3187SOL     OW11457  12.716   4.031   7.381
 3187SOL    HW111458  12.797   4.079   7.394
 3187SOL    HW211459  12.699   4.036   7.287
 3188SOL     OW11460  10.842  12.628   2.380
 3188SOL    HW111461  10.864  12.536   2.395
 3188SOL    HW211462  10.838  12.667   2.467
 3189SOL     OW11463   1.234   3.973  13.693
 3189SOL    HW111464   1.290   3.899  13.715
 3189SOL    HW211465   1.145   3.942  13.705
 3190SOL     OW11466  14.811  11.143  13.636
 3190SOL    HW111467  14.831  11.050  13.641
 3190SOL    HW211468   0.016  11.182  13.594
 3191SOL     OW11469  11.881   1.997  11.091
 3191SOL    HW111470  11.928   2.066  11.045
 3191SOL    HW211471  11.944   1.926  11.099
 3192SOL     OW11472   6.271   8.282   4.524
 3192SOL    HW111473   6.365   8.275   4.534
 3192SOL    HW211474   6.236   8.258   4.610
 3193SOL     OW11475   1.968   7.956   3.958
 3193SOL    HW111476   1.998   8.045   3.939
 3193SOL    HW211477   2.033   7.922   4.019
 3194SOL     OW11478  13.480  10.288   3.214
 3194SOL    HW111479  13.426  10.280   3.293
 3194SOL    HW211480  13.477  10.381   3.192
 3195SOL     OW11481   9.304  11.760   5.496
 3195SOL    HW111482   9.387  11.783   5.537
 3195SOL    HW211483   9.278  11.679   5.541
 3196SOL     OW11484   6.733   2.055   9.152
 3196SOL    HW111485   6.745   1.969   9.112
 3196SOL    HW211486   6.799   2.059   9.221
 3197SOL     OW11487   6.216  14.546  10.276
 3197SOL    HW111488   6.271  14.493  10.218
 3197SOL    HW211489   6.181  14.615  10.219
 3198SOL     OW11490  10.734  13.515  10.261
 3198SOL    HW111491  10.805  13.470  10.306
 3198SOL    HW211492  10.656  13.497  10.314
 3199SOL     OW11493   3.287   9.210   7.318
 3199SOL    HW111494   3.235   9.246   7.390
 3199SOL    HW211495   3.230   9.147   7.276
 3200SOL     OW11496   4.935   8.368   9.549
 3200SOL    HW111497   4.847   8.407   9.547
 3200SOL    HW211498   4.964   8.381   9.639
 3201SOL     OW11499  11.343   9.712   7.621
 3201SOL    HW111500  11.292   9.631   7.627
 3201SOL    HW211501  11.299   9.764   7.554
 3202SOL     OW11502   5.929   6.619  14.202
 3202SOL    HW111503   6.000   6.651  14.146
 3202SOL    HW211504   5.856   6.678  14.184
 3203SOL     OW11505   5.629   4.678  10.169
 3203SOL    HW111506   5.618   4.666  10.264
 3203SOL    HW211507   5.540   4.671  10.134
 3204SOL     OW11508   4.234   3.763   7.057
 3204SOL    HW111509   4.263   3.707   7.129
 3204SOL    HW211510   4.315   3.784   7.010
 3205SOL     OW11511   2.255  11.326  13.520
 3205SOL    HW111512   2.268  11.379  13.441
 3205SOL    HW211513   2.172  11.281  13.506
 3206SOL     OW11514  13.165   6.173   2.629
 3206SOL    HW111515  13.175   6.134   2.542
 3206SOL    HW211516  13.071   6.171   2.646
 3207SOL     OW11517   1.777   2.961   1.477
 3207SOL    HW111518   1.770   2.866   1.467
 3207SOL    HW211519   1.769   2.996   1.388
 3208SOL     OW11520   0.219  10.642   5.307
 3208SOL    HW111521   0.235  10.550   5.287
 3208SOL    HW211522   0.123  10.651   5.306
 3209SOL     OW11523  12.807   5.245  10.756
 3209SOL    HW111524  12.899   5.267  10.748
 3209SOL    HW211525  12.772   5.308  10.819
 3210SOL     OW11526   0.543   9.912  13.216
 3210SOL    HW111527   0.461   9.904  13.168
 3210SOL    HW211528   0.518   9.905  13.308
 3211SOL     OW11529  13.513  11.695   5.446
 3211SOL    HW111530  13.455  11.621   5.430
 3211SOL    HW211531  13.564  11.703   5.366
 3212SOL     OW11532   4.064   5.365   0.251
 3212SOL    HW111533   4.101   5.413   0.177
 3212SOL    HW211534   4.042   5.432   0.315
 3213SOL     OW11535   3.559   2.332   4.682
 3213SOL    HW111536   3.628   2.323   4.748
 3213SOL    HW211537   3.581   2.267   4.615
 3214SOL     OW11538  14.579   8.736   4.730
 3214SOL    HW111539  14.647   8.803   4.720
 3214SOL    HW211540  14.616   8.675   4.794
 3215SOL     OW11541   0.701   3.199   8.539
 3215SOL    HW111542   0.630   3.187   8.602
 3215SOL    HW211543   0.709   3.294   8.531
 3216SOL     OW11544   4.110  11.156   5.428
 3216SOL    HW111545   4.117  11.212   5.505
 3216SOL    HW211546   4.197  11.156   5.390
 3217SOL     OW11547   5.875   8.992   6.770
 3217SOL    HW111548   5.823   8.950   6.838
 3217SOL    HW211549   5.955   9.021   6.815
 3218SOL     OW11550   3.310   2.162  10.531
 3218SOL    HW111551   3.311   2.171  10.436
 3218SOL    HW211552   3.339   2.073  10.548
 3219SOL     OW11553   2.956   1.997  14.001
 3219SOL    HW111554   2.871   2.028  13.970
 3219SOL    HW211555   3.017   2.020  13.931
 3220SOL     OW11556   8.538  12.658   0.292
 3220SOL    HW111557   8.610  12.688   0.237
 3220SOL    HW211558   8.513  12.573   0.256
 3221SOL     OW11559   6.729   1.872   8.822
 3221SOL    HW111560   6.702   1.792   8.776
 3221SOL    HW211561   6.646   1.912   8.849
 3222SOL     OW11562   1.265  11.441   9.347
 3222SOL    HW111563   1.295  11.497   9.276
 3222SOL    HW211564   1.189  11.395   9.311
 3223SOL     OW11565   3.115  10.434   9.793
 3223SOL    HW111566   3.208  10.434   9.815
 3223SOL    HW211567   3.093  10.342   9.777
 3224SOL     OW11568   4.490   5.717  14.371
 3224SOL    HW111569   4.518   5.789  14.428
 3224SOL    HW211570   4.416   5.753  14.322
 3225SOL     OW11571  13.035   5.752   4.463
 3225SOL    HW111572  13.018   5.833   4.511
 3225SOL    HW211573  13.122   5.765   4.425
 3226SOL     OW11574  11.044   2.585   0.838
 3226SOL    HW111575  11.051   2.593   0.742
 3226SOL    HW211576  10.950   2.587   0.855
 3227SOL     OW11577  12.644   4.718   3.425
 3227SOL    HW111578  12.562   4.732   3.473
 3227SOL    HW211579  12.711   4.762   3.478
 3228SOL     OW11580   6.233   4.701   3.980
 3228SOL    HW111581   6.317   4.675   3.942
 3228SOL    HW211582   6.200   4.621   4.023
 3229SOL     OW11583  12.270   8.690   5.425
 3229SOL    HW111584  12.246   8.672   5.516
 3229SOL    HW211585  12.231   8.618   5.376
 3230SOL     OW11586   8.354  13.214   5.802
 3230SOL    HW111587   8.301  13.269   5.743
 3230SOL    HW211588   8.440  13.210   5.760
 3231SOL     OW11589   0.254  11.422   1.081
 3231SOL    HW111590   0.212  11.377   1.154
 3231SOL    HW211591   0.194  11.494   1.060
 3232SOL     OW11592  11.276  11.437  10.309
 3232SOL    HW111593  11.316  11.392  10.234
 3232SOL    HW211594  11.198  11.478  10.274
 3233SOL     OW11595   1.340   3.593   2.592
 3233SOL    HW111596   1.274   3.617   2.657
 3233SOL    HW211597   1.358   3.501   2.611
 3234SOL     OW11598   8.156  12.220   1.665
 3234SOL    HW111599   8.077  12.250   1.711
 3234SOL    HW211600   8.225  12.226   1.730
 3235SOL     OW11601   3.994   9.439  14.483
 3235SOL    HW111602   3.921   9.489  14.519
 3235SOL    HW211603   4.065   9.450  14.546
 3236SOL     OW11604  13.761   8.081  14.263
 3236SOL    HW111605  13.766   8.166  14.305
 3236SOL    HW211606  13.668   8.059  14.264
 3237SOL     OW11607   6.403   6.573  13.771
 3237SOL    HW111608   6.445   6.501  13.722
 3237SOL    HW211609   6.423   6.651  13.720
 3238SOL     OW11610   4.370   3.819   1.924
 3238SOL    HW111611   4.452   3.788   1.962
 3238SOL    HW211612   4.327   3.740   1.891
 3239SOL     OW11613   3.996  14.830  11.771
 3239SOL    HW111614   3.964   0.035  11.725
 3239SOL    HW211615   3.916  14.789  11.806
 3240SOL     OW11616   8.930   3.689   8.824
 3240SOL    HW111617   8.855   3.710   8.880
 3240SOL    HW211618   8.903   3.610   8.777
 3241SOL     OW11619  11.274  12.345  13.681
 3241SOL    HW111620  11.343  12.327  13.617
 3241SOL    HW211621  11.294  12.432  13.714
 3242SOL     OW11622   0.884  10.714  12.629
 3242SOL    HW111623   0.954  10.754  12.578
 3242SOL    HW211624   0.929  10.669  12.701
 3243SOL     OW11625  12.434  10.214  10.635
 3243SOL    HW111626  12.482  10.285  10.677
 3243SOL    HW211627  12.475  10.205  10.549
 3244SOL     OW11628   5.940   6.424   2.563
 3244SOL    HW111629   5.912   6.515   2.572
 3244SOL    HW211630   5.873   6.375   2.611
 3245SOL     OW11631   0.220   9.456  14.729
 3245SOL    HW111632   0.175   9.374  14.709
 3245SOL    HW211633   0.180   9.521  14.671
 3246SOL     OW11634  13.259  10.453   4.572
 3246SOL    HW111635  13.287  10.416   4.489
 3246SOL    HW211636  13.273  10.548   4.562
 3247SOL     OW11637   0.457  11.874   8.945
 3247SOL    HW111638   0.512  11.915   9.012
 3247SOL    HW211639   0.497  11.789   8.930
 3248SOL     OW11640  10.552   1.783  11.362
 3248SOL    HW111641  10.525   1.773  11.453
 3248SOL    HW211642  10.512   1.865  11.334
 3249SOL     OW11643   4.054  14.429   3.829
 3249SOL    HW111644   3.995  14.456   3.900
 3249SOL    HW211645   4.090  14.345   3.859
 3250SOL     OW11646   6.013   1.472   1.913
 3250SOL    HW111647   6.034   1.392   1.961
 3250SOL    HW211648   5.985   1.534   1.981
 3251SOL     OW11649   7.229   8.773   3.603
 3251SOL    HW111650   7.203   8.716   3.675
 3251SOL    HW211651   7.264   8.714   3.536
 3252SOL     OW11652   3.932   4.971  10.871
 3252SOL    HW111653   4.021   5.000  10.853
 3252SOL    HW211654   3.920   4.988  10.965
 3253SOL     OW11655  12.317   9.667   9.940
 3253SOL    HW111656  12.246   9.627   9.990
 3253SOL    HW211657  12.291   9.657   9.849
 3254SOL     OW11658   4.522   3.068   0.428
 3254SOL    HW111659   4.554   3.093   0.515
 3254SOL    HW211660   4.581   3.112   0.368
 3255SOL     OW11661   3.304   2.670  11.844
 3255SOL    HW111662   3.220   2.636  11.812
 3255SOL    HW211663   3.280   2.727  11.917
 3256SOL     OW11664   7.311  12.713  12.684
 3256SOL    HW111665   7.261  12.635  12.659
 3256SOL    HW211666   7.255  12.758  12.747
 3257SOL     OW11667  13.507   9.324  13.847
 3257SOL    HW111668  13.546   9.260  13.789
 3257SOL    HW211669  13.579   9.353  13.904
 3258SOL     OW11670   8.735   0.346  12.086
 3258SOL    HW111671   8.740   0.356  12.181
 3258SOL    HW211672   8.781   0.423  12.052
 3259SOL     OW11673   2.438  14.121   8.437
 3259SOL    HW111674   2.453  14.200   8.385
 3259SOL    HW211675   2.360  14.142   8.489
 3260SOL     OW11676  14.186   4.133  10.889
 3260SOL    HW111677  14.263   4.136  10.832
 3260SOL    HW211678  14.153   4.044  10.880
 3261SOL     OW11679   3.412  13.527  14.189
 3261SOL    HW111680   3.483  13.588  14.207
 3261SOL    HW211681   3.456  13.452  14.149
 3262SOL     OW11682   5.829  14.455   2.474
 3262SOL    HW111683   5.763  14.431   2.540
 3262SOL    HW211684   5.829  14.381   2.413
 3263SOL     OW11685   2.423   3.824   4.368
 3263SOL    HW111686   2.469   3.787   4.292
 3263SOL    HW211687   2.347   3.766   4.380
 3264SOL     OW11688   3.768   7.534   4.941
 3264SOL    HW111689   3.754   7.583   4.860
 3264SOL    HW211690   3.707   7.573   5.003
 3265SOL     OW11691  11.612  11.217   3.725
 3265SOL    HW111692  11.530  11.265   3.713
 3265SOL    HW211693  11.614  11.196   3.818
 3266SOL     OW11694   7.105   9.927   0.961
 3266SOL    HW111695   7.034   9.862   0.965
 3266SOL    HW211696   7.060  10.011   0.959
 3267SOL     OW11697   6.386   3.631   2.526
 3267SOL    HW111698   6.369   3.540   2.501
 3267SOL    HW211699   6.481   3.634   2.542
 3268SOL     OW11700   0.264   3.385   6.505
 3268SOL    HW111701   0.196   3.347   6.561
 3268SOL    HW211702   0.222   3.459   6.462
 3269SOL     OW11703  14.335   5.214  14.720
 3269SOL    HW111704  14.303   5.249  14.803
 3269SOL    HW211705  14.259   5.215  14.662
 3270SOL     OW11706  14.562   5.385   1.405
 3270SOL    HW111707  14.512   5.303   1.408
 3270SOL    HW211708  14.538   5.430   1.487
 3271SOL     OW11709   9.214  12.284  11.046
 3271SOL    HW111710   9.213  12.342  11.122
 3271SOL    HW211711   9.307  12.264  11.033
 3272SOL     OW11712   8.202   0.216  11.553
 3272SOL    HW111713   8.122   0.219  11.605
 3272SOL    HW211714   8.177   0.171  11.473
 3273SOL     OW11715  14.253  13.503  11.835
 3273SOL    HW111716  14.203  13.560  11.894
 3273SOL    HW211717  14.187  13.446  11.794
 3274SOL     OW11718   7.943   2.298  11.781
 3274SOL    HW111719   7.920   2.329  11.869
 3274SOL    HW211720   7.933   2.375  11.725
 3275SOL     OW11721   7.952   9.027  11.958
 3275SOL    HW111722   7.930   9.028  11.865
 3275SOL    HW211723   8.047   9.014  11.959
 3276SOL     OW11724   3.203  10.768   6.770
 3276SOL    HW111725   3.227  10.689   6.721
 3276SOL    HW211726   3.284  10.795   6.812
 3277SOL     OW11727  13.482   6.673   7.132
 3277SOL    HW111728  13.511   6.612   7.199
 3277SOL    HW211729  13.463   6.618   7.056
 3278SOL     OW11730   4.323   4.027   6.604
 3278SOL    HW111731   4.318   4.008   6.511
 3278SOL    HW211732   4.374   3.954   6.641
 3279SOL     OW11733   6.517   0.074   6.102
 3279SOL    HW111734   6.436   0.029   6.126
 3279SOL    HW211735   6.513   0.157   6.149
 3280SOL     OW11736   5.169   0.593   3.484
 3280SOL    HW111737   5.216   0.570   3.404
 3280SOL    HW211738   5.106   0.523   3.496
 3281SOL     OW11739   6.472   3.130   0.836
 3281SOL    HW111740   6.519   3.049   0.817
 3281SOL    HW211741   6.532   3.179   0.892
 3282SOL     OW11742  12.282   0.901   6.132
 3282SOL    HW111743  12.365   0.938   6.163
 3282SOL    HW211744  12.296   0.887   6.038
 3283SOL     OW11745   2.794  14.641   8.020
 3283SOL    HW111746   2.752  14.687   7.947
 3283SOL    HW211747   2.852  14.577   7.977
 3284SOL     OW11748  13.232  11.403   4.739
 3284SOL    HW111749  13.314  11.362   4.713
 3284SOL    HW211750  13.218  11.471   4.673
 3285SOL     OW11751   3.650   8.084   0.833
 3285SOL    HW111752   3.698   8.118   0.909
 3285SOL    HW211753   3.626   7.994   0.858
 3286SOL     OW11754   4.714   8.109  14.859
 3286SOL    HW111755   4.801   8.087  14.826
 3286SOL    HW211756   4.679   8.170  14.794
 3287SOL     OW11757  14.029   7.340   1.028
 3287SOL    HW111758  13.961   7.309   1.088
 3287SOL    HW211759  13.986   7.340   0.942
 3288SOL     OW11760   4.567   3.505   6.370
 3288SOL    HW111761   4.588   3.474   6.458
 3288SOL    HW211762   4.630   3.459   6.314
 3289SOL     OW11763   6.152   1.494   1.678
 3289SOL    HW111764   6.220   1.427   1.683
 3289SOL    HW211765   6.116   1.498   1.766
 3290SOL     OW11766  12.056   9.532   3.077
 3290SOL    HW111767  11.995   9.508   3.147
 3290SOL    HW211768  12.041   9.466   3.009
 3291SOL     OW11769   5.267   4.613   0.886
 3291SOL    HW111770   5.285   4.615   0.980
 3291SOL    HW211771   5.201   4.545   0.876
 3292SOL     OW11772   6.924  14.639  11.501
 3292SOL    HW111773   7.016  14.649  11.523
 3292SOL    HW211774   6.913  14.545  11.487
 3293SOL     OW11775  11.135   0.197   2.129
 3293SOL    HW111776  11.210   0.144   2.156
 3293SOL    HW211777  11.173   0.283   2.109
 3294SOL     OW11778  13.588   5.106   6.957
 3294SOL    HW111779  13.568   5.196   6.932
 3294SOL    HW211780  13.586   5.106   7.052
 3295SOL     OW11781   3.447  12.808   2.168
 3295SOL    HW111782   3.489  12.756   2.099
 3295SOL    HW211783   3.396  12.874   2.121
 3296SOL     OW11784   8.753   8.286   8.913
 3296SOL    HW111785   8.675   8.259   8.863
 3296SOL    HW211786   8.791   8.357   8.861
 3297SOL     OW11787   1.906  10.850  11.626
 3297SOL    HW111788   1.948  10.770  11.593
 3297SOL    HW211789   1.979  10.908  11.647
 3298SOL     OW11790   3.299  12.065   4.401
 3298SOL    HW111791   3.227  12.107   4.448
 3298SOL    HW211792   3.374  12.121   4.417
 3299SOL     OW11793  11.950   4.165   1.809
 3299SOL    HW111794  11.885   4.208   1.754
 3299SOL    HW211795  11.900   4.101   1.860
 3300SOL     OW11796   6.274  10.823   0.925
 3300SOL    HW111797   6.247  10.885   0.993
 3300SOL    HW211798   6.367  10.841   0.912
 3301SOL     OW11799   3.197  13.351   8.241
 3301SOL    HW111800   3.263  13.390   8.183
 3301SOL    HW211801   3.117  13.350   8.189
 3302SOL     OW11802  10.176   6.213  10.422
 3302SOL    HW111803  10.250   6.152  10.419
 3302SOL    HW211804  10.175   6.255  10.337
 3303SOL     OW11805   4.743   4.206   5.473
 3303SOL    HW111806   4.661   4.230   5.516
 3303SOL    HW211807   4.786   4.146   5.534
 3304SOL     OW11808   7.402  13.828   9.902
 3304SOL    HW111809   7.354  13.745   9.896
 3304SOL    HW211810   7.494  13.803   9.891
 3305SOL     OW11811   3.756  10.911   2.717
 3305SOL    HW111812   3.807  10.925   2.797
 3305SOL    HW211813   3.740  10.817   2.715
 3306SOL     OW11814   9.870  14.562   4.054
 3306SOL    HW111815   9.786  14.558   4.007
 3306SOL    HW211816   9.915  14.638   4.017
 3307SOL     OW11817   8.201   4.728   6.645
 3307SOL    HW111818   8.266   4.731   6.575
 3307SOL    HW211819   8.227   4.797   6.706
 3308SOL     OW11820  10.607  11.543   3.569
 3308SOL    HW111821  10.644  11.506   3.489
 3308SOL    HW211822  10.608  11.470   3.631
 3309SOL     OW11823   8.798   9.065  14.392
 3309SOL    HW111824   8.832   9.155  14.393
 3309SOL    HW211825   8.755   9.057  14.307
 3310SOL     OW11826  10.212   0.677   7.390
 3310SOL    HW111827  10.220   0.605   7.327
 3310SOL    HW211828  10.256   0.645   7.469
 3311SOL     OW11829   2.195   0.263   9.190
 3311SOL    HW111830   2.277   0.220   9.214
 3311SOL    HW211831   2.157   0.290   9.274
 3312SOL     OW11832   9.393   6.762   7.605
 3312SOL    HW111833   9.419   6.809   7.684
 3312SOL    HW211834   9.302   6.789   7.591
 3313SOL     OW11835   0.663   2.116  11.463
 3313SOL    HW111836   0.652   2.129  11.558
 3313SOL    HW211837   0.653   2.203  11.426
 3314SOL     OW11838   6.459   5.608   1.624
 3314SOL    HW111839   6.374   5.626   1.663
 3314SOL    HW211840   6.481   5.520   1.652
 3315SOL     OW11841   5.780   9.987   9.796
 3315SOL    HW111842   5.795   9.892   9.801
 3315SOL    HW211843   5.860  10.026   9.829
 3316SOL     OW11844   1.648   9.217   1.767
 3316SOL    HW111845   1.679   9.132   1.799
 3316SOL    HW211846   1.614   9.261   1.845
 3317SOL     OW11847   8.411   0.168   3.551
 3317SOL    HW111848   8.441   0.102   3.614
 3317SOL    HW211849   8.347   0.123   3.497
 3318SOL     OW11850   4.218  12.481   7.714
 3318SOL    HW111851   4.238  12.455   7.624
 3318SOL    HW211852   4.292  12.450   7.765
 3319SOL     OW11853   1.173   7.181   4.465
 3319SOL    HW111854   1.147   7.128   4.539
 3319SOL    HW211855   1.183   7.269   4.500
 3320SOL     OW11856  10.059   6.123  13.344
 3320SOL    HW111857  10.128   6.181  13.376
 3320SOL    HW211858  10.052   6.144  13.251
 3321SOL     OW11859   2.839   6.455   9.084
 3321SOL    HW111860   2.878   6.438   8.998
 3321SOL    HW211861   2.754   6.494   9.065
 3322SOL     OW11862  14.166  12.426   8.603
 3322SOL    HW111863  14.093  12.484   8.585
 3322SOL    HW211864  14.239  12.463   8.553
 3323SOL     OW11865  13.506   5.749   6.532
 3323SOL    HW111866  13.464   5.764   6.447
 3323SOL    HW211867  13.446   5.790   6.595
 3324SOL     OW11868   9.102   4.693   5.588
 3324SOL    HW111869   9.109   4.651   5.503
 3324SOL    HW211870   9.174   4.656   5.639
 3325SOL     OW11871  10.112   9.360   8.489
 3325SOL    HW111872  10.024   9.329   8.513
 3325SOL    HW211873  10.129   9.433   8.548
 3326SOL     OW11874  13.069  11.436   3.887
 3326SOL    HW111875  12.985  11.404   3.921
 3326SOL    HW211876  13.048  11.521   3.849
 3327SOL     OW11877   7.419   0.882   5.090
 3327SOL    HW111878   7.362   0.813   5.056
 3327SOL    HW211879   7.505   0.862   5.054
 3328SOL     OW11880   5.099   9.062   1.743
 3328SOL    HW111881   5.123   9.071   1.651
 3328SOL    HW211882   5.101   8.968   1.759
 3329SOL     OW11883   3.952   7.624   7.760
 3329SOL    HW111884   3.902   7.557   7.713
 3329SOL    HW211885   3.933   7.705   7.712
 3330SOL     OW11886  11.441  13.177   8.166
 3330SOL    HW111887  11.509  13.225   8.118
 3330SOL    HW211888  11.489  13.103   8.205
 3331SOL     OW11889  14.672  10.096   7.551
 3331SOL    HW111890  14.626  10.122   7.471
 3331SOL    HW211891  14.667  10.174   7.607
 3332SOL     OW11892   4.189   4.096  12.490
 3332SOL    HW111893   4.274   4.120  12.451
 3332SOL    HW211894   4.181   4.002  12.474
 3333SOL     OW11895   1.820  11.428  14.158
 3333SOL    HW111896   1.848  11.500  14.101
 3333SOL    HW211897   1.886  11.423  14.226
 3334SOL     OW11898   0.081   3.873   0.745
 3334SOL    HW111899   0.152   3.858   0.809
 3334SOL    HW211900   0.086   3.967   0.726
 3335SOL     OW11901   1.742   4.242   3.042
 3335SOL    HW111902   1.790   4.211   3.119
 3335SOL    HW211903   1.651   4.243   3.068
 3336SOL     OW11904  12.234   9.928   2.839
 3336SOL    HW111905  12.177   9.932   2.917
 3336SOL    HW211906  12.278  10.013   2.838
 3337SOL     OW11907  11.730  14.256  10.470
 3337SOL    HW111908  11.805  14.309  10.445
 3337SOL    HW211909  11.767  14.170  10.489
 3338SOL     OW11910  13.033   5.446   3.268
 3338SOL    HW111911  13.070   5.503   3.336
 3338SOL    HW211912  12.979   5.384   3.316
 3339SOL     OW11913   3.212   6.838  10.954
 3339SOL    HW111914   3.203   6.850  10.860
 3339SOL    HW211915   3.278   6.769  10.963
 3340SOL     OW11916   9.342   5.741   8.416
 3340SOL    HW111917   9.416   5.707   8.366
 3340SOL    HW211918   9.295   5.798   8.355
 3341SOL     OW11919   9.532   8.583   4.521
 3341SOL    HW111920   9.469   8.512   4.506
 3341SOL    HW211921   9.538   8.589   4.617
 3342SOL     OW11922  10.891  11.802  14.801
 3342SOL    HW111923  10.814  11.848  14.834
 3342SOL    HW211924  10.855  11.723  14.760
 3343SOL     OW11925   6.236  11.791  12.509
 3343SOL    HW111926   6.242  11.876  12.552
 3343SOL    HW211927   6.325  11.757  12.510
 3344SOL     OW11928  14.820   2.786   3.957
 3344SOL    HW111929   0.020   2.797   3.896
 3344SOL    HW211930  14.827   2.695   3.987
 3345SOL     OW11931   5.836  13.174   6.945
 3345SOL    HW111932   5.916  13.159   6.894
 3345SOL    HW211933   5.848  13.121   7.024
 3346SOL     OW11934   8.169  11.084   7.317
 3346SOL    HW111935   8.247  11.042   7.352
 3346SOL    HW211936   8.101  11.067   7.382
 3347SOL     OW11937   0.623   8.828  13.187
 3347SOL    HW111938   0.659   8.752  13.231
 3347SOL    HW211939   0.533   8.803  13.164
 3348SOL     OW11940   0.028   3.694   4.087
 3348SOL    HW111941  14.863   3.610   4.062
 3348SOL    HW211942   0.120   3.677   4.102
 3349SOL     OW11943   7.637  12.098   9.984
 3349SOL    HW111944   7.720  12.054   9.999
 3349SOL    HW211945   7.575  12.027   9.967
 3350SOL     OW11946   6.441   9.298  11.930
 3350SOL    HW111947   6.403   9.319  12.016
 3350SOL    HW211948   6.374   9.326  11.867
 3351SOL     OW11949  10.919  13.687   1.424
 3351SOL    HW111950  10.833  13.729   1.427
 3351SOL    HW211951  10.921  13.628   1.500
 3352SOL     OW11952   3.087   4.230   7.378
 3352SOL    HW111953   3.135   4.231   7.461
 3352SOL    HW211954   2.995   4.241   7.404
 3353SOL     OW11955   5.182   1.970   7.693
 3353SOL    HW111956   5.114   1.928   7.746
 3353SOL    HW211957   5.146   2.057   7.674
 3354SOL     OW11958   3.426   5.745   8.576
 3354SOL    HW111959   3.335   5.775   8.587
 3354SOL    HW211960   3.430   5.662   8.623
 3355SOL     OW11961  14.613   4.934  11.412
 3355SOL    HW111962  14.595   5.014  11.462
 3355SOL    HW211963  14.654   4.875  11.475
 3356SOL     OW11964   4.766   8.099  13.132
 3356SOL    HW111965   4.764   8.063  13.043
 3356SOL    HW211966   4.797   8.027  13.186
 3357SOL     OW11967   4.776  10.737   0.920
 3357SOL    HW111968   4.683  10.726   0.934
 3357SOL    HW211969   4.800  10.668   0.858
 3358SOL     OW11970  11.850   5.263   3.808
 3358SOL    HW111971  11.794   5.265   3.885
 3358SOL    HW211972  11.790   5.274   3.734
 3359SOL     OW11973  11.146   3.985   7.081
 3359SOL    HW111974  11.239   3.969   7.097
 3359SOL    HW211975  11.102   3.911   7.122
 3360SOL     OW11976   8.770   3.757   9.379
 3360SOL    HW111977   8.707   3.791   9.315
 3360SOL    HW211978   8.741   3.793   9.463
 3361SOL     OW11979  13.519  12.522   2.352
 3361SOL    HW111980  13.598  12.479   2.318
 3361SOL    HW211981  13.514  12.493   2.443
 3362SOL     OW11982   1.313  11.651   2.859
 3362SOL    HW111983   1.379  11.706   2.818
 3362SOL    HW211984   1.298  11.691   2.945
 3363SOL     OW11985   2.935   1.117   4.107
 3363SOL    HW111986   2.958   1.039   4.157
 3363SOL    HW211987   2.845   1.101   4.076
 3364SOL     OW11988   6.660   8.997  11.206
 3364SOL    HW111989   6.652   8.915  11.157
 3364SOL    HW211990   6.571   9.014  11.239
 3365SOL     OW11991   5.186   5.709  13.322
 3365SOL    HW111992   5.117   5.649  13.352
 3365SOL    HW211993   5.141   5.772  13.266
 3366SOL     OW11994  11.531   6.376   1.268
 3366SOL    HW111995  11.604   6.397   1.326
 3366SOL    HW211996  11.454   6.377   1.325
 3367SOL     OW11997  13.141   9.059   3.488
 3367SOL    HW111998  13.052   9.085   3.461
 3367SOL    HW211999  13.131   8.970   3.522
 3368SOL     OW12000  12.687   1.766  13.904
 3368SOL    HW112001  12.698   1.704  13.976
 3368SOL    HW212002  12.643   1.716  13.836
 3369SOL     OW12003  10.557   9.668  11.032
 3369SOL    HW112004  10.520   9.718  11.105
 3369SOL    HW212005  10.489   9.604  11.011
 3370SOL     OW12006   2.155   6.257   2.082
 3370SOL    HW112007   2.228   6.271   2.142
 3370SOL    HW212008   2.196   6.243   1.997
 3371SOL     OW12009  10.010   3.758  10.637
 3371SOL    HW112010  10.016   3.676  10.684
 3371SOL    HW212011   9.976   3.821  10.701
 3372SOL     OW12012   2.242  13.397   6.075
 3372SOL    HW112013   2.277  13.438   5.997
 3372SOL    HW212014   2.165  13.451   6.098
 3373SOL     OW12015   1.315   3.759   4.928
 3373SOL    HW112016   1.325   3.796   5.015
 3373SOL    HW212017   1.254   3.817   4.884
 3374SOL     OW12018   2.795  12.731   9.909
 3374SOL    HW112019   2.839  12.734   9.824
 3374SOL    HW212020   2.864  12.744   9.973
 3375SOL     OW12021   9.467   3.939   1.730
 3375SOL    HW112022   9.557   3.966   1.746
 3375SOL    HW212023   9.445   3.883   1.804
 3376SOL     OW12024  11.154  11.667  13.421
 3376SOL    HW112025  11.176  11.705  13.336
 3376SOL    HW212026  11.078  11.717  13.451
 3377SOL     OW12027   5.291   6.372   7.265
 3377SOL    HW112028   5.346   6.443   7.232
 3377SOL    HW212029   5.236   6.414   7.332
 3378SOL     OW12030   3.623   3.758   7.679
 3378SOL    HW112031   3.630   3.850   7.703
 3378SOL    HW212032   3.708   3.721   7.702
 3379SOL     OW12033   1.289   1.635   3.324
 3379SOL    HW112034   1.319   1.609   3.411
 3379SOL    HW212035   1.333   1.718   3.307
 3380SOL     OW12036   4.547  12.844  11.822
 3380SOL    HW112037   4.493  12.808  11.751
 3380SOL    HW212038   4.546  12.776  11.890
 3381SOL     OW12039   5.148   6.755   4.286
 3381SOL    HW112040   5.077   6.692   4.271
 3381SOL    HW212041   5.211   6.708   4.340
 3382SOL     OW12042   7.174   0.064   2.782
 3382SOL    HW112043   7.220   0.103   2.708
 3382SOL    HW212044   7.083   0.094   2.772
 3383SOL     OW12045   4.639   2.081  10.907
 3383SOL    HW112046   4.602   2.046  10.826
 3383SOL    HW212047   4.637   2.007  10.968
 3384SOL     OW12048  11.614   3.667   9.522
 3384SOL    HW112049  11.662   3.584   9.528
 3384SOL    HW212050  11.594   3.690   9.613
 3385SOL     OW12051   9.328   4.590   9.744
 3385SOL    HW112052   9.248   4.541   9.760
 3385SOL    HW212053   9.299   4.678   9.722
 3386SOL     OW12054   4.885   1.676   0.074
 3386SOL    HW112055   4.796   1.704   0.055
 3386SOL    HW212056   4.878   1.582   0.090
 3387SOL     OW12057   3.710   0.468   3.374
 3387SOL    HW112058   3.644   0.537   3.367
 3387SOL    HW212059   3.705   0.421   3.291
 3388SOL     OW12060  14.176   8.445   4.920
 3388SOL    HW112061  14.263   8.447   4.880
 3388SOL    HW212062  14.135   8.527   4.894
 3389SOL     OW12063   5.733   1.842   8.727
 3389SOL    HW112064   5.714   1.752   8.755
 3389SOL    HW212065   5.795   1.875   8.791
 3390SOL     OW12066   3.434  10.942   9.528
 3390SOL    HW112067   3.508  10.883   9.513
 3390SOL    HW212068   3.389  10.946   9.443
 3391SOL     OW12069   7.985   4.184   7.252
 3391SOL    HW112070   8.024   4.097   7.242
 3391SOL    HW212071   7.893   4.166   7.270
 3392SOL     OW12072   9.811   7.735  11.451
 3392SOL    HW112073   9.903   7.734  11.425
 3392SOL    HW212074   9.812   7.708  11.543
 3393SOL     OW12075   0.493  12.718   5.485
 3393SOL    HW112076   0.533  12.777   5.548
 3393SOL    HW212077   0.566  12.666   5.450
 3394SOL     OW12078   9.263   1.547   6.165
 3394SOL    HW112079   9.191   1.499   6.123
 3394SOL    HW212080   9.246   1.639   6.145
 3395SOL     OW12081   1.394  13.492   3.677
 3395SOL    HW112082   1.428  13.415   3.632
 3395SOL    HW212083   1.450  13.564   3.647
 3396SOL     OW12084   8.427  11.578   5.299
 3396SOL    HW112085   8.357  11.540   5.353
 3396SOL    HW212086   8.492  11.607   5.363
 3397SOL     OW12087  10.405   1.011  12.973
 3397SOL    HW112088  10.495   1.041  12.978
 3397SOL    HW212089  10.397   0.946  13.043
 3398SOL     OW12090   5.898   2.218   8.136
 3398SOL    HW112091   5.814   2.190   8.172
 3398SOL    HW212092   5.878   2.245   8.047
 3399SOL     OW12093   7.822   8.001   4.326
 3399SOL    HW112094   7.887   7.938   4.295
 3399SOL    HW212095   7.739   7.954   4.321
 3400SOL     OW12096   6.453   1.816   4.884
 3400SOL    HW112097   6.391   1.783   4.819
 3400SOL    HW212098   6.415   1.898   4.914
 3401SOL     OW12099   5.789   9.077   0.044
 3401SOL    HW112100   5.701   9.037   0.046
 3401SOL    HW212101   5.810   9.091   0.136
 3402SOL     OW12102   7.106   6.126   8.903
 3402SOL    HW112103   7.046   6.166   8.840
 3402SOL    HW212104   7.142   6.051   8.856
 3403SOL     OW12105   3.189   9.582   1.951
 3403SOL    HW112106   3.193   9.584   2.047
 3403SOL    HW212107   3.280   9.568   1.924
 3404SOL     OW12108  12.210   9.891   1.337
 3404SOL    HW112109  12.244   9.898   1.426
 3404SOL    HW212110  12.187   9.981   1.313
 3405SOL     OW12111   2.674  11.337  14.626
 3405SOL    HW112112   2.727  11.414  14.603
 3405SOL    HW212113   2.621  11.320  14.549
 3406SOL     OW12114   9.735   1.642  14.852
 3406SOL    HW112115   9.699   1.666  14.767
 3406SOL    HW212116   9.668   1.585   0.019
 3407SOL     OW12117   7.576   0.544   4.816
 3407SOL    HW112118   7.546   0.611   4.754
 3407SOL    HW212119   7.609   0.473   4.760
 3408SOL     OW12120   6.244  10.567   3.093
 3408SOL    HW112121   6.242  10.500   3.161
 3408SOL    HW212122   6.210  10.646   3.136
 3409SOL     OW12123   1.200  14.435   8.245
 3409SOL    HW112124   1.280  14.487   8.239
 3409SOL    HW212125   1.220  14.355   8.196
 3410SOL     OW12126   5.203   2.066   3.265
 3410SOL    HW112127   5.227   2.024   3.182
 3410SOL    HW212128   5.178   2.155   3.241
 3411SOL     OW12129   7.987   0.450   7.525
 3411SOL    HW112130   8.021   0.520   7.469
 3411SOL    HW212131   8.053   0.381   7.521
 3412SOL     OW12132   8.182   9.720   7.123
 3412SOL    HW112133   8.137   9.796   7.086
 3412SOL    HW212134   8.114   9.653   7.129
 3413SOL     OW12135   5.716   4.323   3.820
 3413SOL    HW112136   5.761   4.287   3.897
 3413SOL    HW212137   5.746   4.268   3.747
 3414SOL     OW12138   7.134   8.611   2.873
 3414SOL    HW112139   7.085   8.570   2.944
 3414SOL    HW212140   7.225   8.584   2.889
 3415SOL     OW12141   7.025  10.378  12.715
 3415SOL    HW112142   7.026  10.372  12.619
 3415SOL    HW212143   6.936  10.356  12.740
 3416SOL     OW12144   5.875   5.262  10.413
 3416SOL    HW112145   5.847   5.249  10.504
 3416SOL    HW212146   5.954   5.314  10.420
 3417SOL     OW12147   7.195  11.082   9.575
 3417SOL    HW112148   7.105  11.112   9.586
 3417SOL    HW212149   7.230  11.138   9.505
 3418SOL     OW12150   1.797  14.676   3.261
 3418SOL    HW112151   1.845  14.622   3.198
 3418SOL    HW212152   1.705  14.662   3.239
 3419SOL     OW12153   5.834   4.996   0.833
 3419SOL    HW112154   5.797   4.930   0.775
 3419SOL    HW212155   5.763   5.018   0.893
 3420SOL     OW12156  13.434  10.588  14.258
 3420SOL    HW112157  13.374  10.522  14.222
 3420SOL    HW212158  13.503  10.536  14.299
 3421SOL     OW12159   9.242   8.740   6.245
 3421SOL    HW112160   9.207   8.664   6.292
 3421SOL    HW212161   9.336   8.736   6.260
 3422SOL     OW12162   7.600   7.258   7.223
 3422SOL    HW112163   7.542   7.278   7.296
 3422SOL    HW212164   7.589   7.330   7.162
 3423SOL     OW12165   8.220  11.980   2.033
 3423SOL    HW112166   8.129  11.985   2.004
 3423SOL    HW212167   8.215  11.980   2.129
 3424SOL     OW12168  10.969   7.275  13.824
 3424SOL    HW112169  10.975   7.371  13.825
 3424SOL    HW212170  11.050   7.245  13.865
 3425SOL     OW12171   9.937  11.209   2.157
 3425SOL    HW112172   9.954  11.261   2.235
 3425SOL    HW212173  10.023  11.198   2.116
 3426SOL     OW12174   9.673  13.903  10.169
 3426SOL    HW112175   9.592  13.873  10.210
 3426SOL    HW212176   9.646  13.932  10.082
 3427SOL     OW12177  13.154   1.794   4.995
 3427SOL    HW112178  13.162   1.884   5.027
 3427SOL    HW212179  13.211   1.791   4.918
 3428SOL     OW12180  13.437   7.541  10.035
 3428SOL    HW112181  13.455   7.632  10.059
 3428SOL    HW212182  13.385   7.547   9.955
 3429SOL     OW12183   9.130   4.526   1.028
 3429SOL    HW112184   9.224   4.517   1.044
 3429SOL    HW212185   9.118   4.616   1.000
 3430SOL     OW12186  12.984   0.661   4.148
 3430SOL    HW112187  12.930   0.633   4.222
 3430SOL    HW212188  12.929   0.723   4.100
 3431SOL     OW12189   3.576   8.401  12.169
 3431SOL    HW112190   3.669   8.413  12.153
 3431SOL    HW212191   3.539   8.379  12.084
 3432SOL     OW12192   1.638   6.186   6.869
 3432SOL    HW112193   1.725   6.144   6.867
 3432SOL    HW212194   1.656   6.278   6.886
 3433SOL     OW12195   6.497  10.151  14.101
 3433SOL    HW112196   6.534  10.167  14.014
 3433SOL    HW212197   6.568  10.169  14.162
 3434SOL     OW12198   4.966   9.954   1.238
 3434SOL    HW112199   5.034   9.985   1.298
 3434SOL    HW212200   5.011   9.896   1.178
 3435SOL     OW12201   2.456  11.289  10.079
 3435SOL    HW112202   2.472  11.224  10.010
 3435SOL    HW212203   2.417  11.238  10.150
 3436SOL     OW12204  12.874   7.561   8.432
 3436SOL    HW112205  12.860   7.479   8.479
 3436SOL    HW212206  12.932   7.612   8.490
 3437SOL     OW12207  10.145   6.819   2.277
 3437SOL    HW112208  10.098   6.884   2.225
 3437SOL    HW212209  10.158   6.745   2.217
 3438SOL     OW12210  14.201  10.858   2.755
 3438SOL    HW112211  14.262  10.883   2.824
 3438SOL    HW212212  14.257  10.831   2.682
 3439SOL     OW12213   2.370   4.881  13.919
 3439SOL    HW112214   2.422   4.811  13.880
 3439SOL    HW212215   2.280   4.858  13.897
 3440SOL     OW12216   0.453  10.671  11.109
 3440SOL    HW112217   0.451  10.584  11.148
 3440SOL    HW212218   0.361  10.690  11.088
 3441SOL     OW12219   4.266  10.331   5.794
 3441SOL    HW112220   4.281  10.362   5.705
 3441SOL    HW212221   4.235  10.408   5.841
 3442SOL     OW12222  10.889  13.735   2.659
 3442SOL    HW112223  10.926  13.778   2.582
 3442SOL    HW212224  10.794  13.740   2.646
 3443SOL     OW12225   2.785   5.968  13.416
 3443SOL    HW112226   2.752   5.914  13.488
 3443SOL    HW212227   2.877   5.943  13.408
 3444SOL     OW12228   7.465   6.723  14.004
 3444SOL    HW112229   7.433   6.810  13.981
 3444SOL    HW212230   7.397   6.663  13.973
 3445SOL     OW12231   3.475   5.668   7.825
 3445SOL    HW112232   3.380   5.676   7.819
 3445SOL    HW212233   3.502   5.630   7.742
 3446SOL     OW12234   2.277   8.391   1.956
 3446SOL    HW112235   2.252   8.365   2.044
 3446SOL    HW212236   2.216   8.344   1.899
 3447SOL     OW12237   2.988   7.914   1.386
 3447SOL    HW112238   2.994   7.870   1.302
 3447SOL    HW212239   2.927   7.860   1.437
 3448SOL     OW12240   8.896  12.713   1.423
 3448SOL    HW112241   8.833  12.686   1.357
 3448SOL    HW212242   8.976  12.735   1.374
 3449SOL     OW12243   1.320   1.582  13.977
 3449SOL    HW112244   1.342   1.521  13.906
 3449SOL    HW212245   1.234   1.615  13.954
 3450SOL     OW12246   7.790  12.506   0.799
 3450SOL    HW112247   7.807  12.573   0.733
 3450SOL    HW212248   7.876  12.471   0.820
 3451SOL     OW12249  11.633   9.973   9.777
 3451SOL    HW112250  11.568  10.043   9.790
 3451SOL    HW212251  11.668   9.957   9.865
 3452SOL     OW12252   0.441   5.448   5.477
 3452SOL    HW112253   0.463   5.541   5.466
 3452SOL    HW212254   0.517   5.401   5.442
 3453SOL     OW12255  14.857   3.385   7.714
 3453SOL    HW112256  14.840   3.309   7.769
 3453SOL    HW212257  14.785   3.387   7.652
 3454SOL     OW12258  11.264   7.362   2.692
 3454SOL    HW112259  11.224   7.351   2.605
 3454SOL    HW212260  11.256   7.456   2.710
 3455SOL     OW12261   8.518   7.266   0.347
 3455SOL    HW112262   8.446   7.204   0.352
 3455SOL    HW212263   8.503   7.315   0.266
 3456SOL     OW12264  12.575  12.420   1.383
 3456SOL    HW112265  12.591  12.347   1.443
 3456SOL    HW212266  12.514  12.477   1.430
 3457SOL     OW12267  11.549   8.472   8.497
 3457SOL    HW112268  11.478   8.408   8.497
 3457SOL    HW212269  11.515   8.546   8.546
 3458SOL     OW12270  11.064  14.374   9.779
 3458SOL    HW112271  11.120  14.306   9.817
 3458SOL    HW212272  11.026  14.418   9.855
 3459SOL     OW12273  13.884   5.465   6.676
 3459SOL    HW112274  13.864   5.479   6.768
 3459SOL    HW212275  13.820   5.401   6.646
 3460SOL     OW12276  13.574   5.655   4.960
 3460SOL    HW112277  13.507   5.599   4.998
 3460SOL    HW212278  13.645   5.594   4.938
 3461SOL     OW12279   2.349  12.502   6.807
 3461SOL    HW112280   2.372  12.495   6.714
 3461SOL    HW212281   2.258  12.530   6.807
 3462SOL     OW12282  10.558   2.438   0.103
 3462SOL    HW112283  10.508   2.495   0.046
 3462SOL    HW212284  10.565   2.355   0.055
 3463SOL     OW12285   1.534  14.686   6.023
 3463SOL    HW112286   1.602  14.646   5.969
 3463SOL    HW212287   1.570  14.771   6.048
 3464SOL     OW12288   0.711   0.419   5.749
 3464SOL    HW112289   0.804   0.438   5.737
 3464SOL    HW212290   0.669   0.455   5.671
 3465SOL     OW12291  10.183   4.340   3.639
 3465SOL    HW112292  10.253   4.397   3.606
 3465SOL    HW212293  10.120   4.400   3.680
 3466SOL     OW12294   2.452   9.723   9.633
 3466SOL    HW112295   2.390   9.734   9.705
 3466SOL    HW212296   2.527   9.777   9.657
 3467SOL     OW12297  13.140   8.104   7.214
 3467SOL    HW112298  13.106   8.161   7.283
 3467SOL    HW212299  13.234   8.099   7.232
 3468SOL     OW12300  14.524   7.711   7.500
 3468SOL    HW112301  14.476   7.638   7.541
 3468SOL    HW212302  14.459   7.755   7.446
 3469SOL     OW12303  10.555   0.371  10.241
 3469SOL    HW112304  10.650   0.372  10.243
 3469SOL    HW212305  10.530   0.461  10.265
 3470SOL     OW12306   1.256   6.943   6.677
 3470SOL    HW112307   1.339   6.979   6.708
 3470SOL    HW212308   1.266   6.940   6.581
 3471SOL     OW12309   5.786  12.352   9.395
 3471SOL    HW112310   5.797  12.320   9.484
 3471SOL    HW212311   5.816  12.443   9.397
 3472SOL     OW12312   2.627   5.238   9.348
 3472SOL    HW112313   2.680   5.204   9.276
 3472SOL    HW212314   2.576   5.163   9.378
 3473SOL     OW12315   8.792  10.758   8.177
 3473SOL    HW112316   8.799  10.834   8.235
 3473SOL    HW212317   8.882  10.727   8.166
 3474SOL     OW12318   4.656  10.275  10.790
 3474SOL    HW112319   4.683  10.304  10.703
 3474SOL    HW212320   4.582  10.216  10.774
 3475SOL     OW12321   5.111   8.783  10.894
 3475SOL    HW112322   5.192   8.835  10.888
 3475SOL    HW212323   5.043   8.842  10.861
 3476SOL     OW12324   5.979   0.473   7.840
 3476SOL    HW112325   6.055   0.531   7.832
 3476SOL    HW212326   5.903   0.531   7.833
 3477SOL     OW12327  13.172   5.374  13.154
 3477SOL    HW112328  13.081   5.390  13.181
 3477SOL    HW212329  13.203   5.305  13.213
 3478SOL     OW12330  10.839   0.279  12.213
 3478SOL    HW112331  10.859   0.366  12.177
 3478SOL    HW212332  10.800   0.232  12.140
 3479SOL     OW12333  10.112   8.564  10.637
 3479SOL    HW112334  10.067   8.646  10.660
 3479SOL    HW212335  10.152   8.535  10.719
 3480SOL     OW12336   3.184   9.824   8.625
 3480SOL    HW112337   3.097   9.813   8.584
 3480SOL    HW212338   3.230   9.883   8.565
 3481SOL     OW12339   5.146   9.248   7.170
 3481SOL    HW112340   5.177   9.230   7.258
 3481SOL    HW212341   5.222   9.232   7.114
 3482SOL     OW12342   9.918  13.129   5.691
 3482SOL    HW112343   9.892  13.092   5.607
 3482SOL    HW212344   9.841  13.177   5.721
 3483SOL     OW12345   1.985   7.879  10.840
 3483SOL    HW112346   1.951   7.969  10.842
 3483SOL    HW212347   1.910   7.827  10.812
 3484SOL     OW12348   5.300   3.010   5.105
 3484SOL    HW112349   5.242   2.955   5.156
 3484SOL    HW212350   5.279   2.990   5.014
 3485SOL     OW12351   8.025   5.503   0.954
 3485SOL    HW112352   7.960   5.443   0.989
 3485SOL    HW212353   7.974   5.573   0.913
 3486SOL     OW12354   9.366   7.063   6.337
 3486SOL    HW112355   9.413   7.054   6.420
 3486SOL    HW212356   9.274   7.048   6.359
 3487SOL     OW12357   0.028   1.304   6.760
 3487SOL    HW112358   0.100   1.353   6.800
 3487SOL    HW212359   0.057   1.212   6.764
 3488SOL     OW12360  13.934   0.393  14.539
 3488SOL    HW112361  13.874   0.321  14.555
 3488SOL    HW212362  14.000   0.357  14.480
 3489SOL     OW12363   3.423   4.744  13.369
 3489SOL    HW112364   3.511   4.762  13.336
 3489SOL    HW212365   3.425   4.777  13.459
 3490SOL     OW12366   3.832   1.416  14.178
 3490SOL    HW112367   3.903   1.424  14.241
 3490SOL    HW212368   3.874   1.426  14.092
 3491SOL     OW12369  11.603   0.532   6.065
 3491SOL    HW112370  11.609   0.628   6.064
 3491SOL    HW212371  11.644   0.504   5.984
 3492SOL     OW12372   5.804  13.641  12.675
 3492SOL    HW112373   5.724  13.691  12.694
 3492SOL    HW212374   5.793  13.560  12.724
 3493SOL     OW12375  12.584   3.847  14.374
 3493SOL    HW112376  12.675   3.873  14.390
 3493SOL    HW212377  12.588   3.796  14.293
 3494SOL     OW12378   4.932   6.750   7.937
 3494SOL    HW112379   4.903   6.818   7.997
 3494SOL    HW212380   4.852   6.708   7.907
 3495SOL     OW12381   7.189   2.558   4.136
 3495SOL    HW112382   7.169   2.639   4.089
 3495SOL    HW212383   7.165   2.488   4.074
 3496SOL     OW12384   0.407  10.598   0.944
 3496SOL    HW112385   0.370  10.575   0.859
 3496SOL    HW212386   0.332  10.608   1.002
 3497SOL     OW12387   8.480   5.284   8.256
 3497SOL    HW112388   8.545   5.318   8.195
 3497SOL    HW212389   8.438   5.212   8.210
 3498SOL     OW12390  13.413  14.108  12.771
 3498SOL    HW112391  13.367  14.179  12.816
 3498SOL    HW212392  13.488  14.088  12.828
 3499SOL     OW12393   4.600   8.673  11.773
 3499SOL    HW112394   4.659   8.665  11.848
 3499SOL    HW212395   4.610   8.763  11.743
 3500SOL     OW12396   0.404   9.206  12.343
 3500SOL    HW112397   0.358   9.259  12.408
 3500SOL    HW212398   0.444   9.270  12.284
 3501SOL     OW12399   7.864  14.799   3.224
 3501SOL    HW112400   7.838   0.018   3.233
 3501SOL    HW212401   7.935  14.800   3.161
 3502SOL     OW12402   1.992   5.357  13.253
 3502SOL    HW112403   1.941   5.299  13.198
 3502SOL    HW212404   2.006   5.436  13.200
 3503SOL     OW12405   3.212  10.104  10.043
 3503SOL    HW112406   3.292  10.156  10.052
 3503SOL    HW212407   3.242  10.019  10.011
 3504SOL     OW12408   4.305   9.291  12.205
 3504SOL    HW112409   4.218   9.287  12.165
 3504SOL    HW212410   4.363   9.248  12.143
 3505SOL     OW12411   0.147   0.472  11.223
 3505SOL    HW112412   0.190   0.424  11.152
 3505SOL    HW212413   0.091   0.407  11.266
 3506SOL     OW12414   9.543   7.143   9.010
 3506SOL    HW112415   9.606   7.196   9.059
 3506SOL    HW212416   9.519   7.073   9.071
 3507SOL     OW12417   0.110   3.841   0.161
 3507SOL    HW112418   0.037   3.792   0.123
 3507SOL    HW212419   0.071   3.884   0.238
 3508SOL     OW12420   6.162   4.354   1.991
 3508SOL    HW112421   6.252   4.352   2.023
 3508SOL    HW212422   6.144   4.265   1.962
 3509SOL     OW12423   5.395   9.252   7.057
 3509SOL    HW112424   5.465   9.188   7.043
 3509SOL    HW212425   5.434   9.336   7.033
 3510SOL     OW12426   3.219   2.409   2.053
 3510SOL    HW112427   3.169   2.382   2.130
 3510SOL    HW212428   3.153   2.442   1.992
 3511SOL     OW12429   1.567  13.902   5.107
 3511SOL    HW112430   1.509  13.963   5.154
 3511SOL    HW212431   1.601  13.954   5.034
 3512SOL     OW12432   0.287   7.475   6.940
 3512SOL    HW112433   0.252   7.402   6.991
 3512SOL    HW212434   0.215   7.537   6.934
 3513SOL     OW12435  13.040  14.423   1.495
 3513SOL    HW112436  12.989  14.357   1.449
 3513SOL    HW212437  13.082  14.474   1.425
 3514SOL     OW12438   9.439  12.375   5.013
 3514SOL    HW112439   9.459  12.296   4.962
 3514SOL    HW212440   9.484  12.445   4.967
 3515SOL     OW12441  14.362  14.310  11.682
 3515SOL    HW112442  14.320  14.373  11.741
 3515SOL    HW212443  14.411  14.363  11.619
 3516SOL     OW12444   4.693   2.689  14.692
 3516SOL    HW112445   4.710   2.596  14.676
 3516SOL    HW212446   4.599   2.693  14.713
 3517SOL     OW12447   6.877   7.316  13.198
 3517SOL    HW112448   6.783   7.333  13.207
 3517SOL    HW212449   6.917   7.403  13.196
 3518SOL     OW12450   2.952  11.745   7.071
 3518SOL    HW112451   2.937  11.833   7.105
 3518SOL    HW212452   2.967  11.691   7.149
 3519SOL     OW12453  14.132   2.094   6.440
 3519SOL    HW112454  14.066   2.093   6.509
 3519SOL    HW212455  14.087   2.129   6.363
 3520SOL     OW12456   2.646   6.611   6.136
 3520SOL    HW112457   2.584   6.680   6.112
 3520SOL    HW212458   2.720   6.623   6.077
 3521SOL     OW12459   2.771   8.110  14.602
 3521SOL    HW112460   2.751   8.071  14.687
 3521SOL    HW212461   2.685   8.123  14.561
 3522SOL     OW12462  10.481   7.582  10.924
 3522SOL    HW112463  10.402   7.529  10.934
 3522SOL    HW212464  10.517   7.588  11.013
 3523SOL     OW12465   0.900   9.803   3.056
 3523SOL    HW112466   0.911   9.875   3.118
 3523SOL    HW212467   0.983   9.757   3.058
 3524SOL     OW12468   3.119   4.783   8.560
 3524SOL    HW112469   3.096   4.701   8.515
 3524SOL    HW212470   3.183   4.824   8.502
 3525SOL     OW12471   2.116  11.459   7.257
 3525SOL    HW112472   2.037  11.441   7.308
 3525SOL    HW212473   2.085  11.500   7.177
 3526SOL     OW12474   4.556   7.969   9.890
 3526SOL    HW112475   4.622   7.989   9.955
 3526SOL    HW212476   4.519   8.054   9.866
 3527SOL     OW12477   1.348  10.290  14.637
 3527SOL    HW112478   1.349  10.272  14.731
 3527SOL    HW212479   1.264  10.256  14.607
 3528SOL     OW12480  11.302   8.254   3.552
 3528SOL    HW112481  11.278   8.217   3.467
 3528SOL    HW212482  11.291   8.182   3.614
 3529SOL     OW12483   3.095  12.541   1.040
 3529SOL    HW112484   3.088  12.632   1.013
 3529SOL    HW212485   3.184  12.532   1.074
 3530SOL     OW12486  13.642   7.125   5.706
 3530SOL    HW112487  13.566   7.181   5.719
 3530SOL    HW212488  13.678   7.153   5.622
 3531SOL     OW12489  11.541   0.022   2.081
 3531SOL    HW112490  11.585  14.818   2.044
 3531SOL    HW212491  11.611   0.088   2.088
 3532SOL     OW12492   5.530   9.477  10.955
 3532SOL    HW112493   5.557   9.561  10.917
 3532SOL    HW212494   5.611   9.426  10.962
 3533SOL     OW12495  11.705  11.684   6.196
 3533SOL    HW112496  11.635  11.724   6.144
 3533SOL    HW212497  11.703  11.592   6.172
 3534SOL     OW12498  12.073   7.684   5.620
 3534SOL    HW112499  12.103   7.628   5.549
 3534SOL    HW212500  12.048   7.624   5.689
 3535SOL     OW12501   1.287  12.993   1.555
 3535SOL    HW112502   1.313  12.902   1.539
 3535SOL    HW212503   1.286  13.001   1.650
 3536SOL     OW12504  14.459   2.466   7.802
 3536SOL    HW112505  14.552   2.459   7.825
 3536SOL    HW212506  14.456   2.530   7.732
 3537SOL     OW12507   3.118   0.276   7.618
 3537SOL    HW112508   3.151   0.280   7.708
 3537SOL    HW212509   3.087   0.364   7.600
 3538SOL     OW12510   2.112   9.231   2.813
 3538SOL    HW112511   2.063   9.289   2.754
 3538SOL    HW212512   2.190   9.207   2.764
 3539SOL     OW12513   2.452   1.014   3.900
 3539SOL    HW112514   2.392   0.963   3.846
 3539SOL    HW212515   2.404   1.094   3.922
 3540SOL     OW12516  12.235   8.060  11.571
 3540SOL    HW112517  12.216   7.975  11.531
 3540SOL    HW212518  12.163   8.073  11.634
 3541SOL     OW12519   4.521   4.443   9.718
 3541SOL    HW112520   4.579   4.504   9.672
 3541SOL    HW212521   4.542   4.357   9.681
 3542SOL     OW12522   8.601   6.590   2.080
 3542SOL    HW112523   8.538   6.644   2.129
 3542SOL    HW212524   8.567   6.501   2.085
 3543SOL     OW12525  14.494   7.134   8.111
 3543SOL    HW112526  14.487   7.087   8.194
 3543SOL    HW212527  14.409   7.177   8.100
 3544SOL     OW12528   2.477   7.339  14.723
 3544SOL    HW112529   2.412   7.333  14.653
 3544SOL    HW212530   2.451   7.415  14.774
 3545SOL     OW12531   1.968   7.776   8.295
 3545SOL    HW112532   1.938   7.787   8.205
 3545SOL    HW212533   1.899   7.725   8.338
 3546SOL     OW12534  11.094  12.288  14.128
 3546SOL    HW112535  11.158  12.253  14.066
 3546SOL    HW212536  11.097  12.383  14.115
 3547SOL     OW12537  12.480  10.654   0.496
 3547SOL    HW112538  12.447  10.657   0.586
 3547SOL    HW212539  12.558  10.600   0.501
 3548SOL     OW12540   0.622  11.275  13.577
 3548SOL    HW112541   0.708  11.280  13.617
 3548SOL    HW212542   0.575  11.207  13.627
 3549SOL     OW12543   3.389   5.067   0.964
 3549SOL    HW112544   3.411   5.150   0.922
 3549SOL    HW212545   3.402   5.082   1.057
 3550SOL     OW12546   3.850   5.363   5.973
 3550SOL    HW112547   3.841   5.379   6.067
 3550SOL    HW212548   3.811   5.277   5.960
 3551SOL     OW12549   7.573  13.726   0.088
 3551SOL    HW112550   7.642  13.790   0.069
 3551SOL    HW212551   7.606  13.643   0.053
 3552SOL     OW12552   2.163  14.429   7.296
 3552SOL    HW112553   2.202  14.511   7.324
 3552SOL    HW212554   2.227  14.362   7.321
 3553SOL     OW12555  11.425   2.118  12.429
 3553SOL    HW112556  11.476   2.103  12.350
 3553SOL    HW212557  11.434   2.212  12.446
 3554SOL     OW12558   6.452   4.444   5.124
 3554SOL    HW112559   6.543   4.442   5.095
 3554SOL    HW212560   6.405   4.391   5.059
 3555SOL     OW12561   6.075   3.698   6.099
 3555SOL    HW112562   6.093   3.642   6.175
 3555SOL    HW212563   6.138   3.769   6.107
 3556SOL     OW12564  13.165   3.158   6.292
 3556SOL    HW112565  13.100   3.103   6.248
 3556SOL    HW212566  13.186   3.111   6.373
 3557SOL     OW12567   8.475   2.231   1.651
 3557SOL    HW112568   8.382   2.215   1.665
 3557SOL    HW212569   8.518   2.151   1.681
 3558SOL     OW12570   6.182  12.500  11.533
 3558SOL    HW112571   6.182  12.460  11.620
 3558SOL    HW212572   6.268  12.541  11.525
 3559SOL     OW12573  10.369  12.064  13.854
 3559SOL    HW112574  10.336  12.024  13.773
 3559SOL    HW212575  10.366  11.993  13.918
 3560SOL     OW12576  10.229  11.563   8.524
 3560SOL    HW112577  10.205  11.595   8.437
 3560SOL    HW212578  10.146  11.546   8.568
 3561SOL     OW12579   4.916   6.216   1.732
 3561SOL    HW112580   5.008   6.233   1.749
 3561SOL    HW212581   4.913   6.125   1.703
 3562SOL     OW12582   3.188   2.983   0.159
 3562SOL    HW112583   3.102   2.960   0.195
 3562SOL    HW212584   3.244   2.909   0.181
 3563SOL     OW12585   2.832   8.456  12.354
 3563SOL    HW112586   2.773   8.435  12.427
 3563SOL    HW212587   2.790   8.530  12.310
 3564SOL     OW12588  10.039   3.813  14.180
 3564SOL    HW112589  10.030   3.820  14.085
 3564SOL    HW212590   9.971   3.872  14.215
 3565SOL     OW12591   0.385   6.751   2.193
 3565SOL    HW112592   0.429   6.676   2.235
 3565SOL    HW212593   0.331   6.788   2.263
 3566SOL     OW12594   4.407  10.192   4.796
 3566SOL    HW112595   4.458  10.116   4.826
 3566SOL    HW212596   4.348  10.211   4.869
 3567SOL     OW12597  12.500   9.769   1.462
 3567SOL    HW112598  12.477   9.828   1.389
 3567SOL    HW212599  12.590   9.792   1.484
 3568SOL     OW12600   9.341   7.894  14.583
 3568SOL    HW112601   9.374   7.808  14.556
 3568SOL    HW212602   9.281   7.876  14.655
 3569SOL     OW12603  14.168   6.922  13.429
 3569SOL    HW112604  14.222   6.912  13.351
 3569SOL    HW212605  14.230   6.912  13.502
 3570SOL     OW12606  12.744   2.203   9.362
 3570SOL    HW112607  12.800   2.279   9.350
 3570SOL    HW212608  12.722   2.175   9.273
 3571SOL     OW12609   2.409   8.892   0.788
 3571SOL    HW112610   2.347   8.948   0.836
 3571SOL    HW212611   2.468   8.858   0.856
 3572SOL     OW12612  11.653   3.488  14.761
 3572SOL    HW112613  11.623   3.438  14.685
 3572SOL    HW212614  11.717   3.431  14.803
 3573SOL     OW12615   0.779  11.962  11.060
 3573SOL    HW112616   0.818  12.037  11.016
 3573SOL    HW212617   0.757  11.901  10.989
 3574SOL     OW12618  12.346   9.133   9.661
 3574SOL    HW112619  12.436   9.135   9.630
 3574SOL    HW212620  12.296   9.175   9.591
 3575SOL     OW12621   2.470  12.204   9.291
 3575SOL    HW112622   2.463  12.290   9.333
 3575SOL    HW212623   2.564  12.189   9.283
 3576SOL     OW12624   3.496   8.938   7.548
 3576SOL    HW112625   3.515   9.030   7.534
 3576SOL    HW212626   3.402   8.935   7.568
 3577SOL     OW12627  13.808   5.849   3.097
 3577SOL    HW112628  13.831   5.761   3.066
 3577SOL    HW212629  13.876   5.870   3.161
 3578SOL     OW12630   0.910   6.283  13.808
 3578SOL    HW112631   0.942   6.255  13.894
 3578SOL    HW212632   0.864   6.206  13.774
 3579SOL     OW12633  12.370   2.235   5.467
 3579SOL    HW112634  12.372   2.296   5.393
 3579SOL    HW212635  12.301   2.268   5.524
 3580SOL     OW12636   6.658  10.414   3.271
 3580SOL    HW112637   6.645  10.369   3.188
 3580SOL    HW212638   6.677  10.344   3.334
 3581SOL     OW12639  13.456  13.773  14.728
 3581SOL    HW112640  13.446  13.868  14.736
 3581SOL    HW212641  13.455  13.757  14.634
 3582SOL     OW12642   4.655  13.107   6.323
 3582SOL    HW112643   4.727  13.050   6.296
 3582SOL    HW212644   4.666  13.187   6.272
 3583SOL     OW12645  10.268   4.453  10.687
 3583SOL    HW112646  10.249   4.401  10.609
 3583SOL    HW212647  10.237   4.541  10.666
 3584SOL     OW12648   1.458  14.828   5.314
 3584SOL    HW112649   1.464  14.778   5.395
 3584SOL    HW212650   1.415  14.769   5.252
 3585SOL     OW12651  11.110   3.611  10.443
 3585SOL    HW112652  11.025   3.622  10.399
 3585SOL    HW212653  11.160   3.689  10.418
 3586SOL     OW12654  13.278   2.210  10.361
 3586SOL    HW112655  13.272   2.131  10.307
 3586SOL    HW212656  13.257   2.181  10.449
 3587SOL     OW12657  12.798   3.016   4.061
 3587SOL    HW112658  12.719   3.024   4.008
 3587SOL    HW212659  12.847   2.945   4.020
 3588SOL     OW12660   3.096  12.762   4.812
 3588SOL    HW112661   3.154  12.807   4.750
 3588SOL    HW212662   3.010  12.800   4.796
 3589SOL     OW12663  14.640  11.687   9.377
 3589SOL    HW112664  14.674  11.656   9.293
 3589SOL    HW212665  14.701  11.653   9.442
 3590SOL     OW12666  14.806   8.575  14.734
 3590SOL    HW112667  14.806   8.514  14.661
 3590SOL    HW212668  14.829   8.659  14.696
 3591SOL     OW12669   1.377   2.397  10.596
 3591SOL    HW112670   1.466   2.432  10.603
 3591SOL    HW212671   1.379   2.339  10.520
 3592SOL     OW12672   4.267  10.504   0.315
 3592SOL    HW112673   4.350  10.492   0.270
 3592SOL    HW212674   4.292  10.526   0.405
 3593SOL     OW12675   3.942   9.034   4.351
 3593SOL    HW112676   3.955   9.110   4.295
 3593SOL    HW212677   3.919   9.071   4.436
 3594SOL     OW12678  14.473  10.743   4.624
 3594SOL    HW112679  14.463  10.650   4.643
 3594SOL    HW212680  14.443  10.787   4.704
 3595SOL     OW12681  10.371   9.396   9.840
 3595SOL    HW112682  10.406   9.445   9.766
 3595SOL    HW212683  10.286   9.365   9.810
 3596SOL     OW12684   8.311  11.374   8.304
 3596SOL    HW112685   8.330  11.447   8.363
 3596SOL    HW212686   8.283  11.416   8.222
 3597SOL     OW12687   1.094   5.528  10.410
 3597SOL    HW112688   1.174   5.579  10.419
 3597SOL    HW212689   1.073   5.533  10.317
 3598SOL     OW12690   2.844  13.669   9.192
 3598SOL    HW112691   2.883  13.602   9.248
 3598SOL    HW212692   2.760  13.688   9.232
 3599SOL     OW12693   2.393   6.403   2.580
 3599SOL    HW112694   2.306   6.420   2.545
 3599SOL    HW212695   2.445   6.380   2.503
 3600SOL     OW12696  10.053   0.127   9.478
 3600SOL    HW112697   9.998   0.163   9.409
 3600SOL    HW212698   9.991   0.096   9.544
 3601SOL     OW12699   4.300   6.867   2.342
 3601SOL    HW112700   4.377   6.888   2.288
 3601SOL    HW212701   4.246   6.811   2.286
 3602SOL     OW12702   9.136   5.901   6.656
 3602SOL    HW112703   9.107   5.983   6.696
 3602SOL    HW212704   9.093   5.899   6.571
 3603SOL     OW12705   4.964  13.348   9.614
 3603SOL    HW112706   4.941  13.260   9.584
 3603SOL    HW212707   5.060  13.345   9.624
 3604SOL     OW12708  12.759   2.202   6.036
 3604SOL    HW112709  12.723   2.155   6.112
 3604SOL    HW212710  12.854   2.188   6.042
 3605SOL     OW12711   7.526   1.418   3.860
 3605SOL    HW112712   7.579   1.456   3.790
 3605SOL    HW212713   7.462   1.486   3.881
 3606SOL     OW12714  11.152  11.435  13.066
 3606SOL    HW112715  11.139  11.346  13.100
 3606SOL    HW212716  11.218  11.473  13.123
 3607SOL     OW12717   1.042  10.008   0.135
 3607SOL    HW112718   1.111   9.990   0.071
 3607SOL    HW212719   1.005   9.922   0.155
 3608SOL     OW12720   0.746   7.581   6.296
 3608SOL    HW112721   0.799   7.503   6.311
 3608SOL    HW212722   0.809   7.648   6.269
 3609SOL     OW12723   2.908  14.065   0.438
 3609SOL    HW112724   2.929  14.133   0.502
 3609SOL    HW212725   2.959  14.088   0.361
 3610SOL     OW12726   0.673   7.370  13.519
 3610SOL    HW112727   0.645   7.284  13.489
 3610SOL    HW212728   0.637   7.378  13.608
 3611SOL     OW12729  10.237  12.919  13.357
 3611SOL    HW112730  10.279  12.833  13.356
 3611SOL    HW212731  10.147  12.902  13.385
 3612SOL     OW12732  11.999  13.003   7.011
 3612SOL    HW112733  11.957  13.019   7.096
 3612SOL    HW212734  12.013  13.090   6.975
 3613SOL     OW12735   7.569   3.889  11.633
 3613SOL    HW112736   7.520   3.813  11.665
 3613SOL    HW212737   7.629   3.852  11.568
 3614SOL     OW12738  11.255  11.301   5.627
 3614SOL    HW112739  11.316  11.261   5.567
 3614SOL    HW212740  11.225  11.381   5.582
 3615SOL     OW12741   6.963   0.580   7.527
 3615SOL    HW112742   7.036   0.609   7.473
 3615SOL    HW212743   6.896   0.648   7.516
 3616SOL     OW12744   9.218   8.653   4.054
 3616SOL    HW112745   9.133   8.609   4.048
 3616SOL    HW212746   9.282   8.582   4.044
 3617SOL     OW12747  14.029  14.737  10.611
 3617SOL    HW112748  14.076  14.814  10.577
 3617SOL    HW212749  14.089  14.700  10.676
 3618SOL     OW12750  13.888   5.413  14.104
 3618SOL    HW112751  13.903   5.418  14.010
 3618SOL    HW212752  13.975   5.429  14.143
 3619SOL     OW12753   1.280   7.066   1.978
 3619SOL    HW112754   1.363   7.093   1.940
 3619SOL    HW212755   1.288   7.088   2.071
 3620SOL     OW12756   9.009   1.632   8.428
 3620SOL    HW112757   8.983   1.589   8.510
 3620SOL    HW212758   9.025   1.723   8.453
 3621SOL     OW12759   8.773  11.240  12.390
 3621SOL    HW112760   8.709  11.187  12.342
 3621SOL    HW212761   8.724  11.318  12.417
 3622SOL     OW12762   4.888   0.190   6.842
 3622SOL    HW112763   4.803   0.183   6.886
 3622SOL    HW212764   4.932   0.107   6.859
 3623SOL     OW12765  13.964   8.196   7.893
 3623SOL    HW112766  14.018   8.272   7.872
 3623SOL    HW212767  14.027   8.131   7.925
 3624SOL     OW12768   7.970   9.531   9.082
 3624SOL    HW112769   7.919   9.457   9.116
 3624SOL    HW212770   7.968   9.596   9.151
 3625SOL     OW12771  12.493   0.224   0.805
 3625SOL    HW112772  12.550   0.245   0.731
 3625SOL    HW212773  12.549   0.232   0.882
 3626SOL     OW12774   3.376   4.007  13.142
 3626SOL    HW112775   3.304   4.038  13.198
 3626SOL    HW212776   3.453   4.012  13.197
 3627SOL     OW12777   4.913  13.609   8.982
 3627SOL    HW112778   4.831  13.658   8.971
 3627SOL    HW212779   4.925  13.606   9.077
 3628SOL     OW12780   6.138   9.781   2.481
 3628SOL    HW112781   6.200   9.739   2.421
 3628SOL    HW212782   6.119   9.865   2.440
 3629SOL     OW12783  14.697  13.901   7.167
 3629SOL    HW112784  14.618  13.937   7.208
 3629SOL    HW212785  14.669  13.872   7.081
 3630SOL     OW12786  10.916  10.516   7.325
 3630SOL    HW112787  10.963  10.443   7.286
 3630SOL    HW212788  10.868  10.556   7.253
 3631SOL     OW12789   3.455   0.475   0.788
 3631SOL    HW112790   3.374   0.486   0.838
 3631SOL    HW212791   3.519   0.532   0.832
 3632SOL     OW12792  13.456   7.414   5.500
 3632SOL    HW112793  13.477   7.424   5.593
 3632SOL    HW212794  13.505   7.483   5.457
 3633SOL     OW12795   6.472   4.021  10.580
 3633SOL    HW112796   6.449   4.008  10.672
 3633SOL    HW212797   6.473   4.116  10.569
 3634SOL     OW12798   5.028   7.570   5.230
 3634SOL    HW112799   5.075   7.486   5.228
 3634SOL    HW212800   5.096   7.636   5.221
 3635SOL     OW12801   6.579   1.638   6.556
 3635SOL    HW112802   6.569   1.727   6.521
 3635SOL    HW212803   6.577   1.650   6.651
 3636SOL     OW12804   0.082   4.125  14.236
 3636SOL    HW112805   0.125   4.056  14.287
 3636SOL    HW212806   0.089   4.203  14.292
 3637SOL     OW12807   7.540   8.568   2.321
 3637SOL    HW112808   7.459   8.584   2.273
 3637SOL    HW212809   7.561   8.651   2.362
 3638SOL     OW12810   8.715  14.165   9.498
 3638SOL    HW112811   8.688  14.132   9.584
 3638SOL    HW212812   8.788  14.109   9.473
 3639SOL     OW12813   8.806   7.904   3.238
 3639SOL    HW112814   8.777   7.838   3.175
 3639SOL    HW212815   8.770   7.874   3.321
 3640SOL     OW12816   5.065   5.742  12.126
 3640SOL    HW112817   5.044   5.822  12.076
 3640SOL    HW212818   4.980   5.710  12.156
 3641SOL     OW12819  12.197  12.472   0.768
 3641SOL    HW112820  12.120  12.423   0.739
 3641SOL    HW212821  12.256  12.405   0.803
 3642SOL     OW12822  11.653   3.174  11.158
 3642SOL    HW112823  11.708   3.096  11.148
 3642SOL    HW212824  11.706   3.245  11.121
 3643SOL     OW12825   3.911   2.948   2.277
 3643SOL    HW112826   3.952   2.871   2.238
 3643SOL    HW212827   3.947   3.022   2.230
 3644SOL     OW12828   6.582   0.861   5.406
 3644SOL    HW112829   6.596   0.947   5.366
 3644SOL    HW212830   6.568   0.880   5.499
 3645SOL     OW12831  11.418  13.633   0.099
 3645SOL    HW112832  11.333  13.673   0.082
 3645SOL    HW212833  11.420  13.555   0.044
 3646SOL     OW12834   7.497   5.198   7.028
 3646SOL    HW112835   7.463   5.117   6.991
 3646SOL    HW212836   7.437   5.266   6.997
 3647SOL     OW12837   3.331   8.751   0.609
 3647SOL    HW112838   3.276   8.687   0.563
 3647SOL    HW212839   3.269   8.799   0.665
 3648SOL     OW12840   5.788   6.075  12.238
 3648SOL    HW112841   5.785   5.988  12.276
 3648SOL    HW212842   5.703   6.114  12.260
 3649SOL     OW12843   3.640   1.297  12.633
 3649SOL    HW112844   3.634   1.303  12.538
 3649SOL    HW212845   3.577   1.228  12.656
 3650SOL     OW12846  12.943  10.185   5.200
 3650SOL    HW112847  12.901  10.263   5.165
 3650SOL    HW212848  12.939  10.121   5.129
 3651SOL     OW12849   4.962   0.251  14.522
 3651SOL    HW112850   4.977   0.217  14.434
 3651SOL    HW212851   4.919   0.335  14.509
 3652SOL     OW12852   9.666   8.500  12.600
 3652SOL    HW112853   9.616   8.569  12.643
 3652SOL    HW212854   9.682   8.436  12.669
 3653SOL     OW12855  13.445   8.191   3.356
 3653SOL    HW112856  13.467   8.255   3.288
 3653SOL    HW212857  13.514   8.125   3.349
 3654SOL     OW12858   4.737   0.116  12.382
 3654SOL    HW112859   4.815   0.067  12.357
 3654SOL    HW212860   4.672   0.049  12.402
 3655SOL     OW12861   7.435   8.446   2.596
 3655SOL    HW112862   7.424   8.351   2.603
 3655SOL    HW212863   7.432   8.463   2.502
 3656SOL     OW12864   1.641  10.908   1.907
 3656SOL    HW112865   1.652  10.967   1.833
 3656SOL    HW212866   1.701  10.940   1.973
 3657SOL     OW12867   7.118  10.634  11.810
 3657SOL    HW112868   7.146  10.718  11.845
 3657SOL    HW212869   7.160  10.628  11.724
 3658SOL     OW12870   9.402  10.371   7.890
 3658SOL    HW112871   9.415  10.394   7.982
 3658SOL    HW212872   9.308  10.362   7.880
 3659SOL     OW12873   4.444  11.447   0.840
 3659SOL    HW112874   4.435  11.507   0.914
 3659SOL    HW212875   4.358  11.405   0.834
 3660SOL     OW12876   2.811   0.849  10.611
 3660SOL    HW112877   2.731   0.885  10.572
 3660SOL    HW212878   2.797   0.854  10.705
 3661SOL     OW12879  12.100  13.926   5.697
 3661SOL    HW112880  12.178  13.969   5.663
 3661SOL    HW212881  12.043  13.997   5.725
 3662SOL     OW12882  12.782  12.282   6.743
 3662SOL    HW112883  12.869  12.254   6.714
 3662SOL    HW212884  12.736  12.306   6.663
 3663SOL     OW12885  14.483   4.419   2.361
 3663SOL    HW112886  14.390   4.412   2.384
 3663SOL    HW212887  14.493   4.360   2.287
 3664SOL     OW12888  11.054  12.981   5.203
 3664SOL    HW112889  10.966  12.985   5.241
 3664SOL    HW212890  11.050  13.040   5.128
 3665SOL     OW12891  12.978  13.726   3.681
 3665SOL    HW112892  12.920  13.674   3.624
 3665SOL    HW212893  13.007  13.798   3.625
 3666SOL     OW12894   4.158  13.300   1.448
 3666SOL    HW112895   4.207  13.307   1.367
 3666SOL    HW212896   4.070  13.331   1.426
 3667SOL     OW12897   0.845  10.738   2.646
 3667SOL    HW112898   0.836  10.753   2.552
 3667SOL    HW212899   0.898  10.811   2.678
 3668SOL     OW12900   7.954  14.623  10.191
 3668SOL    HW112901   8.000  14.659  10.267
 3668SOL    HW212902   7.975  14.682  10.119
 3669SOL     OW12903  14.213   3.468   6.867
 3669SOL    HW112904  14.271   3.478   6.792
 3669SOL    HW212905  14.270   3.437   6.937
 3670SOL     OW12906   9.657   0.060   5.413
 3670SOL    HW112907   9.736   0.077   5.361
 3670SOL    HW212908   9.675   0.102   5.497
 3671SOL     OW12909   3.720   5.810   1.904
 3671SOL    HW112910   3.716   5.729   1.854
 3671SOL    HW212911   3.655   5.799   1.973
 3672SOL     OW12912   8.985   1.116   2.875
 3672SOL    HW112913   8.982   1.056   2.950
 3672SOL    HW212914   8.949   1.066   2.802
 3673SOL     OW12915   6.618  11.737   4.457
 3673SOL    HW112916   6.662  11.692   4.530
 3673SOL    HW212917   6.609  11.671   4.389
 3674SOL     OW12918  11.811   2.529   7.859
 3674SOL    HW112919  11.798   2.472   7.935
 3674SOL    HW212920  11.849   2.609   7.895
 3675SOL     OW12921   4.099   2.582  12.519
 3675SOL    HW112922   4.163   2.517  12.491
 3675SOL    HW212923   4.018   2.533  12.534
 3676SOL     OW12924   6.022   2.281   8.873
 3676SOL    HW112925   5.987   2.325   8.950
 3676SOL    HW212926   5.946   2.272   8.814
 3677SOL     OW12927   6.993   6.649  13.164
 3677SOL    HW112928   6.928   6.664  13.233
 3677SOL    HW212929   6.968   6.708  13.094
 3678SOL     OW12930  13.611  13.676   6.918
 3678SOL    HW112931  13.665  13.614   6.870
 3678SOL    HW212932  13.529  13.629   6.936
 3679SOL     OW12933  13.850   8.129   7.621
 3679SOL    HW112934  13.892   8.163   7.699
 3679SOL    HW212935  13.762   8.166   7.623
 3680SOL     OW12936   5.626   6.410   4.462
 3680SOL    HW112937   5.609   6.372   4.548
 3680SOL    HW212938   5.553   6.380   4.408
 3681SOL     OW12939  10.095   8.712   5.155
 3681SOL    HW112940  10.033   8.651   5.117
 3681SOL    HW212941  10.176   8.699   5.106
 3682SOL     OW12942   0.268   6.396   6.625
 3682SOL    HW112943   0.202   6.330   6.603
 3682SOL    HW212944   0.243   6.427   6.712
 3683SOL     OW12945   9.153   8.960   3.546
 3683SOL    HW112946   9.069   8.913   3.542
 3683SOL    HW212947   9.131   9.046   3.581
 3684SOL     OW12948   2.688  14.673   1.730
 3684SOL    HW112949   2.690  14.578   1.722
 3684SOL    HW212950   2.774  14.697   1.764
 3685SOL     OW12951   2.775   1.722   4.187
 3685SOL    HW112952   2.749   1.697   4.276
 3685SOL    HW212953   2.752   1.646   4.133
 3686SOL     OW12954  13.861  11.402  14.298
 3686SOL    HW112955  13.911  11.405  14.380
 3686SOL    HW212956  13.900  11.470  14.243
 3687SOL     OW12957   1.935   7.311  13.854
 3687SOL    HW112958   2.017   7.335  13.809
 3687SOL    HW212959   1.951   7.333  13.946
 3688SOL     OW12960   2.662   6.028   3.501
 3688SOL    HW112961   2.720   6.045   3.576
 3688SOL    HW212962   2.644   5.934   3.505
 3689SOL     OW12963  11.385  14.145   8.245
 3689SOL    HW112964  11.339  14.149   8.328
 3689SOL    HW212965  11.468  14.191   8.260
 3690SOL     OW12966  11.630   9.628   7.040
 3690SOL    HW112967  11.705   9.674   7.079
 3690SOL    HW212968  11.626   9.545   7.087
 3691SOL     OW12969   6.264   8.206  13.141
 3691SOL    HW112970   6.282   8.241  13.228
 3691SOL    HW212971   6.322   8.130  13.133
 3692SOL     OW12972  13.513  14.023   6.177
 3692SOL    HW112973  13.488  14.092   6.238
 3692SOL    HW212974  13.595  14.052   6.139
 3693SOL     OW12975   1.431  10.931  14.714
 3693SOL    HW112976   1.359  10.910  14.774
 3693SOL    HW212977   1.388  10.969  14.637
 3694SOL     OW12978   7.845   0.375  13.946
 3694SOL    HW112979   7.916   0.343  14.001
 3694SOL    HW212980   7.767   0.367  14.001
 3695SOL     OW12981   2.324   6.822  14.357
 3695SOL    HW112982   2.395   6.775  14.400
 3695SOL    HW212983   2.358   6.844  14.270
 3696SOL     OW12984  13.968  13.959   4.301
 3696SOL    HW112985  13.901  14.027   4.298
 3696SOL    HW212986  13.934  13.889   4.246
 3697SOL     OW12987   2.810   6.901   4.246
 3697SOL    HW112988   2.829   6.822   4.297
 3697SOL    HW212989   2.720   6.923   4.269
 3698SOL     OW12990  12.497   7.721  11.636
 3698SOL    HW112991  12.482   7.715  11.541
 3698SOL    HW212992  12.513   7.814  11.652
 3699SOL     OW12993   9.800   1.404   5.713
 3699SOL    HW112994   9.864   1.418   5.643
 3699SOL    HW212995   9.851   1.373   5.787
 3700SOL     OW12996   3.805   2.968   3.344
 3700SOL    HW112997   3.856   3.049   3.350
 3700SOL    HW212998   3.864   2.900   3.374
 3701SOL     OW12999  12.120   7.697  13.703
 3701SOL    HW113000  12.108   7.754  13.779
 3701SOL    HW213001  12.182   7.630  13.734
 3702SOL     OW13002   5.535  13.552  12.531
 3702SOL    HW113003   5.555  13.613  12.460
 3702SOL    HW213004   5.544  13.604  12.611
 3703SOL     OW13005   6.391   2.613   4.959
 3703SOL    HW113006   6.485   2.631   4.956
 3703SOL    HW213007   6.357   2.647   4.877
 3704SOL     OW13008   1.031   5.624  13.622
 3704SOL    HW113009   1.010   5.716  13.635
 3704SOL    HW213010   1.092   5.624  13.548
 3705SOL     OW13011   5.501  10.158  12.137
 3705SOL    HW113012   5.552  10.141  12.058
 3705SOL    HW213013   5.437  10.086  12.140
 3706SOL     OW13014   6.623   0.168   9.481
 3706SOL    HW113015   6.635   0.202   9.392
 3706SOL    HW213016   6.712   0.149   9.511
 3707SOL     OW13017   2.472  12.493   4.329
 3707SOL    HW113018   2.466  12.412   4.380
 3707SOL    HW213019   2.561  12.524   4.343
 3708SOL     OW13020  14.614   2.556   5.224
 3708SOL    HW113021  14.543   2.528   5.166
 3708SOL    HW213022  14.667   2.614   5.170
 3709SOL     OW13023  14.691  10.613   9.135
 3709SOL    HW113024  14.600  10.605   9.106
 3709SOL    HW213025  14.743  10.611   9.055
 3710SOL     OW13026   3.716   9.617   2.654
 3710SOL    HW113027   3.636   9.670   2.662
 3710SOL    HW213028   3.750   9.612   2.743
 3711SOL     OW13029   1.539   9.667   3.034
 3711SOL    HW113030   1.603   9.722   2.988
 3711SOL    HW213031   1.464   9.724   3.049
 3712SOL     OW13032   2.000   3.712   5.105
 3712SOL    HW113033   2.066   3.671   5.161
 3712SOL    HW213034   1.916   3.681   5.139
 3713SOL     OW13035   9.915   9.908  11.221
 3713SOL    HW113036   9.956   9.917  11.135
 3713SOL    HW213037   9.938   9.988  11.267
 3714SOL     OW13038   2.197   0.210  14.476
 3714SOL    HW113039   2.109   0.218  14.438
 3714SOL    HW213040   2.192   0.131  14.530
 3715SOL     OW13041   1.122   4.098   1.180
 3715SOL    HW113042   1.078   4.168   1.131
 3715SOL    HW213043   1.130   4.026   1.117
 3716SOL     OW13044  14.363   7.321   2.013
 3716SOL    HW113045  14.380   7.415   2.011
 3716SOL    HW213046  14.351   7.297   1.921
 3717SOL     OW13047  13.105   1.737  11.646
 3717SOL    HW113048  13.149   1.804  11.699
 3717SOL    HW213049  13.174   1.675  11.623
 3718SOL     OW13050  13.825  10.270  10.601
 3718SOL    HW113051  13.823  10.318  10.518
 3718SOL    HW213052  13.878  10.193  10.583
 3719SOL     OW13053   6.477   1.216  10.083
 3719SOL    HW113054   6.437   1.294  10.046
 3719SOL    HW213055   6.409   1.177  10.137
 3720SOL     OW13056   2.395   3.320   6.048
 3720SOL    HW113057   2.384   3.250   6.113
 3720SOL    HW213058   2.388   3.275   5.964
 3721SOL     OW13059   8.698   9.796   7.519
 3721SOL    HW113060   8.775   9.823   7.469
 3721SOL    HW213061   8.658   9.878   7.547
 3722SOL     OW13062  13.070   3.161  11.318
 3722SOL    HW113063  13.032   3.075  11.339
 3722SOL    HW213064  13.164   3.148  11.323
 3723SOL     OW13065   9.857   7.439  11.927
 3723SOL    HW113066   9.899   7.420  12.010
 3723SOL    HW213067   9.861   7.535  11.919
 3724SOL     OW13068   9.120   9.844   0.023
 3724SOL    HW113069   9.061   9.893   0.081
 3724SOL    HW213070   9.149   9.910  14.831
 3725SOL     OW13071   5.566   4.780  13.513
 3725SOL    HW113072   5.612   4.696  13.519
 3725SOL    HW213073   5.591   4.815  13.427
 3726SOL     OW13074   3.555   7.961   9.415
 3726SOL    HW113075   3.516   7.884   9.455
 3726SOL    HW213076   3.538   7.952   9.322
 3727SOL     OW13077  10.116   8.366   5.710
 3727SOL    HW113078  10.210   8.370   5.692
 3727SOL    HW213079  10.076   8.357   5.623
 3728SOL     OW13080  10.748  13.289   6.352
 3728SOL    HW113081  10.659  13.261   6.331
 3728SOL    HW213082  10.804  13.232   6.299
 3729SOL     OW13083  12.440  12.814   9.603
 3729SOL    HW113084  12.436  12.907   9.581
 3729SOL    HW213085  12.353  12.781   9.581
 3730SOL     OW13086   8.951   5.023   2.612
 3730SOL    HW113087   8.872   5.065   2.643
 3730SOL    HW213088   8.972   4.959   2.680
 3731SOL     OW13089   9.019  10.864  14.124
 3731SOL    HW113090   8.945  10.877  14.064
 3731SOL    HW213091   9.091  10.912  14.083
 3732SOL     OW13092   8.815   8.752  14.235
 3732SOL    HW113093   8.875   8.790  14.172
 3732SOL    HW213094   8.834   8.797  14.317
 3733SOL     OW13095   8.287   6.723   7.694
 3733SOL    HW113096   8.225   6.796   7.691
 3733SOL    HW213097   8.294   6.695   7.603
 3734SOL     OW13098   9.800   8.839   2.043
 3734SOL    HW113099   9.843   8.870   1.963
 3734SOL    HW213100   9.858   8.771   2.077
 3735SOL     OW13101   6.440  14.270   6.389
 3735SOL    HW113102   6.523  14.313   6.410
 3735SOL    HW213103   6.379  14.343   6.375
 3736SOL     OW13104  11.775   1.175  13.861
 3736SOL    HW113105  11.796   1.131  13.779
 3736SOL    HW213106  11.857   1.219  13.886
 3737SOL     OW13107   2.719  11.188   6.235
 3737SOL    HW113108   2.780  11.224   6.299
 3737SOL    HW213109   2.745  11.096   6.228
 3738SOL     OW13110   7.723  13.842   4.782
 3738SOL    HW113111   7.715  13.863   4.689
 3738SOL    HW213112   7.789  13.903   4.815
 3739SOL     OW13113  11.025   6.702  14.860
 3739SOL    HW113114  11.082   6.653  14.800
 3739SOL    HW213115  10.936   6.683  14.828
 3740SOL     OW13116  13.516   0.515  12.689
 3740SOL    HW113117  13.446   0.553  12.637
 3740SOL    HW213118  13.570   0.590  12.715
 3741SOL     OW13119   7.274  11.968   8.586
 3741SOL    HW113120   7.237  11.973   8.498
 3741SOL    HW213121   7.217  11.908   8.633
 3742SOL     OW13122   2.754  10.052   0.844
 3742SOL    HW113123   2.770   9.987   0.912
 3742SOL    HW213124   2.828  10.041   0.783
 3743SOL     OW13125   0.976  12.917  11.330
 3743SOL    HW113126   0.898  12.967  11.310
 3743SOL    HW213127   1.018  12.965  11.402
 3744SOL     OW13128  12.045   8.211   2.392
 3744SOL    HW113129  12.074   8.300   2.412
 3744SOL    HW213130  12.094   8.156   2.454
 3745SOL     OW13131  10.740   2.889   2.302
 3745SOL    HW113132  10.774   2.946   2.371
 3745SOL    HW213133  10.645   2.901   2.305
 3746SOL     OW13134  10.830   8.199   5.535
 3746SOL    HW113135  10.880   8.130   5.492
 3746SOL    HW213136  10.895   8.264   5.562
 3747SOL     OW13137   5.219   9.638  11.611
 3747SOL    HW113138   5.205   9.718  11.561
 3747SOL    HW213139   5.313   9.637  11.629
 3748SOL     OW13140  12.377   8.581   5.140
 3748SOL    HW113141  12.441   8.637   5.094
 3748SOL    HW213142  12.391   8.600   5.233
 3749SOL     OW13143   2.178   3.064   7.205
 3749SOL    HW113144   2.133   3.117   7.139
 3749SOL    HW213145   2.119   2.990   7.221
 3750SOL     OW13146   9.734   8.945   4.009
 3750SOL    HW113147   9.801   9.010   4.031
 3750SOL    HW213148   9.769   8.900   3.933
 3751SOL     OW13149   5.995   9.471   7.258
 3751SOL    HW113150   6.051   9.439   7.329
 3751SOL    HW213151   6.047   9.539   7.215
 3752SOL     OW13152   6.306   8.019   0.612
 3752SOL    HW113153   6.326   8.112   0.606
 3752SOL    HW213154   6.353   7.990   0.690
 3753SOL     OW13155   3.697   0.518   0.062
 3753SOL    HW113156   3.748   0.445   0.026
 3753SOL    HW213157   3.649   0.553  14.859
 3754SOL     OW13158  10.758  12.684   4.334
 3754SOL    HW113159  10.749  12.660   4.242
 3754SOL    HW213160  10.669  12.678   4.370
 3755SOL     OW13161   2.027  13.387   2.821
 3755SOL    HW113162   2.103  13.357   2.772
 3755SOL    HW213163   2.050  13.374   2.913
 3756SOL     OW13164   2.054   5.640   4.088
 3756SOL    HW113165   2.065   5.578   4.017
 3756SOL    HW213166   2.047   5.586   4.167
 3757SOL     OW13167   2.492   4.897   0.992
 3757SOL    HW113168   2.480   4.904   0.898
 3757SOL    HW213169   2.586   4.880   1.003
 3758SOL     OW13170  14.834   6.795   8.154
 3758SOL    HW113171   0.003   6.758   8.076
 3758SOL    HW213172  14.820   6.720   8.212
 3759SOL     OW13173   0.381  14.252   8.598
 3759SOL    HW113174   0.375  14.250   8.503
 3759SOL    HW213175   0.346  14.338   8.623
 3760SOL     OW13176   0.517   7.940  12.136
 3760SOL    HW113177   0.529   7.861  12.189
 3760SOL    HW213178   0.605   7.974  12.123
 3761SOL     OW13179  10.652   5.304   9.753
 3761SOL    HW113180  10.622   5.224   9.710
 3761SOL    HW213181  10.620   5.297   9.843
 3762SOL     OW13182  14.197   1.453   8.176
 3762SOL    HW113183  14.210   1.534   8.128
 3762SOL    HW213184  14.244   1.465   8.258
 3763SOL     OW13185  13.633   9.587   8.575
 3763SOL    HW113186  13.633   9.679   8.546
 3763SOL    HW213187  13.544   9.557   8.559
 3764SOL     OW13188   5.400   8.539  13.506
 3764SOL    HW113189   5.320   8.508  13.549
 3764SOL    HW213190   5.442   8.460  13.472
 3765SOL     OW13191   4.378   8.478   9.748
 3765SOL    HW113192   4.307   8.415   9.752
 3765SOL    HW213193   4.386   8.500   9.656
 3766SOL     OW13194   2.028  13.027   4.919
 3766SOL    HW113195   2.077  13.023   4.837
 3766SOL    HW213196   2.055  13.110   4.959
 3767SOL     OW13197   4.234   2.276  13.614
 3767SOL    HW113198   4.292   2.215  13.660
 3767SOL    HW213199   4.243   2.252  13.521
 3768SOL     OW13200   5.976  14.139  12.265
 3768SOL    HW113201   6.061  14.137  12.220
 3768SOL    HW213202   5.915  14.173  12.199
 3769SOL     OW13203   9.342   9.714   6.614
 3769SOL    HW113204   9.396   9.654   6.665
 3769SOL    HW213205   9.392   9.796   6.612
 3770SOL     OW13206   0.728   6.277   7.297
 3770SOL    HW113207   0.756   6.359   7.256
 3770SOL    HW213208   0.734   6.294   7.391
 3771SOL     OW13209   2.527  11.916   8.750
 3771SOL    HW113210   2.528  11.832   8.797
 3771SOL    HW213211   2.530  11.892   8.658
 3772SOL     OW13212   7.480  12.026  13.440
 3772SOL    HW113213   7.436  12.037  13.356
 3772SOL    HW213214   7.452  11.940  13.471
 3773SOL     OW13215   3.462   0.144   4.863
 3773SOL    HW113216   3.525   0.212   4.841
 3773SOL    HW213217   3.485   0.118   4.952
 3774SOL     OW13218  14.801   8.876  14.656
 3774SOL    HW113219   0.005   8.882  14.714
 3774SOL    HW213220  14.838   8.867  14.568
 3775SOL     OW13221   3.084  10.983   2.351
 3775SOL    HW113222   3.084  10.995   2.256
 3775SOL    HW213223   3.059  11.067   2.387
 3776SOL     OW13224  11.099   4.754  13.454
 3776SOL    HW113225  11.110   4.823  13.389
 3776SOL    HW213226  11.092   4.800  13.537
 3777SOL     OW13227  10.535   8.008   2.819
 3777SOL    HW113228  10.447   8.042   2.836
 3777SOL    HW213229  10.549   7.942   2.888
 3778SOL     OW13230   8.432  10.328   2.877
 3778SOL    HW113231   8.354  10.276   2.860
 3778SOL    HW213232   8.423  10.403   2.817
 3779SOL     OW13233   4.595  12.584   1.740
 3779SOL    HW113234   4.583  12.679   1.740
 3779SOL    HW213235   4.509  12.549   1.763
 3780SOL     OW13236   2.265   7.410  11.230
 3780SOL    HW113237   2.352   7.427  11.265
 3780SOL    HW213238   2.213   7.387  11.307
 3781SOL     OW13239   0.743   7.554   0.163
 3781SOL    HW113240   0.715   7.499   0.090
 3781SOL    HW213241   0.773   7.493   0.229
 3782SOL     OW13242  10.517   2.763   2.722
 3782SOL    HW113243  10.449   2.707   2.683
 3782SOL    HW213244  10.469   2.841   2.750
 3783SOL     OW13245  13.868   0.502   8.642
 3783SOL    HW113246  13.827   0.449   8.710
 3783SOL    HW213247  13.801   0.565   8.616
 3784SOL     OW13248   2.163   0.316   2.410
 3784SOL    HW113249   2.193   0.227   2.428
 3784SOL    HW213250   2.222   0.347   2.341
 3785SOL     OW13251  13.820   1.555  12.332
 3785SOL    HW113252  13.753   1.487  12.338
 3785SOL    HW213253  13.771   1.635  12.316
 3786SOL     OW13254  12.242   1.097  14.356
 3786SOL    HW113255  12.271   1.038  14.426
 3786SOL    HW213256  12.166   1.143  14.392
 3787SOL     OW13257   8.391   1.090   0.652
 3787SOL    HW113258   8.347   1.169   0.684
 3787SOL    HW213259   8.455   1.069   0.720
 3788SOL     OW13260   1.331   8.984   9.428
 3788SOL    HW113261   1.411   9.023   9.465
 3788SOL    HW213262   1.355   8.962   9.338
 3789SOL     OW13263   2.694   6.278   7.385
 3789SOL    HW113264   2.738   6.347   7.335
 3789SOL    HW213265   2.742   6.275   7.468
 3790SOL     OW13266  11.419  10.522   5.807
 3790SOL    HW113267  11.349  10.504   5.870
 3790SOL    HW213268  11.493  10.469   5.837
 3791SOL     OW13269   4.445  10.070  13.590
 3791SOL    HW113270   4.530  10.028  13.600
 3791SOL    HW213271   4.408  10.029  13.511
 3792SOL     OW13272   7.758   3.432   0.288
 3792SOL    HW113273   7.813   3.429   0.367
 3792SOL    HW213274   7.804   3.492   0.230
 3793SOL     OW13275   1.700   4.195  10.553
 3793SOL    HW113276   1.729   4.119  10.502
 3793SOL    HW213277   1.666   4.157  10.634
 3794SOL     OW13278   7.984   2.360   1.752
 3794SOL    HW113279   7.994   2.333   1.843
 3794SOL    HW213280   7.919   2.300   1.716
 3795SOL     OW13281   6.396   5.310  13.796
 3795SOL    HW113282   6.311   5.348  13.774
 3795SOL    HW213283   6.442   5.305  13.713
 3796SOL     OW13284   4.726  11.889   0.084
 3796SOL    HW113285   4.649  11.838   0.109
 3796SOL    HW213286   4.764  11.916   0.167
 3797SOL     OW13287   5.511   7.513   4.083
 3797SOL    HW113288   5.601   7.481   4.069
 3797SOL    HW213289   5.457   7.456   4.029
 3798SOL     OW13290   8.290   8.163   1.440
 3798SOL    HW113291   8.205   8.201   1.415
 3798SOL    HW213292   8.300   8.088   1.382
 3799SOL     OW13293   1.266   4.943   7.075
 3799SOL    HW113294   1.185   4.974   7.035
 3799SOL    HW213295   1.306   4.887   7.008
 3800SOL     OW13296  12.980  10.178  13.405
 3800SOL    HW113297  13.068  10.204  13.429
 3800SOL    HW213298  12.929  10.185  13.485
 3801SOL     OW13299   5.508  13.762   7.009
 3801SOL    HW113300   5.594  13.780   7.047
 3801SOL    HW213301   5.463  13.711   7.076
 3802SOL     OW13302   7.425  12.707   2.141
 3802SOL    HW113303   7.412  12.801   2.135
 3802SOL    HW213304   7.517  12.693   2.119
 3803SOL     OW13305  11.072   2.639   0.563
 3803SOL    HW113306  10.985   2.621   0.527
 3803SOL    HW213307  11.132   2.595   0.502
 3804SOL     OW13308   7.989   1.297   0.995
 3804SOL    HW113309   7.961   1.275   0.906
 3804SOL    HW213310   7.914   1.343   1.033
 3805SOL     OW13311   4.129   4.939  13.867
 3805SOL    HW113312   4.139   4.864  13.809
 3805SOL    HW213313   4.068   4.909  13.934
 3806SOL     OW13314   3.490   1.988   4.054
 3806SOL    HW113315   3.574   1.997   4.010
 3806SOL    HW213316   3.425   1.996   3.984
 3807SOL     OW13317  13.072   1.211   9.075
 3807SOL    HW113318  13.128   1.189   9.150
 3807SOL    HW213319  13.097   1.301   9.053
 3808SOL     OW13320   1.915  13.246  12.260
 3808SOL    HW113321   1.822  13.221  12.261
 3808SOL    HW213322   1.914  13.342  12.261
 3809SOL     OW13323  12.305   1.160  11.944
 3809SOL    HW113324  12.254   1.090  11.903
 3809SOL    HW213325  12.241   1.230  11.961
 3810SOL     OW13326  11.683   2.777  11.505
 3810SOL    HW113327  11.732   2.800  11.584
 3810SOL    HW213328  11.747   2.786  11.434
 3811SOL     OW13329   4.846   1.800   5.123
 3811SOL    HW113330   4.767   1.780   5.172
 3811SOL    HW213331   4.894   1.718   5.120
 3812SOL     OW13332   7.080   4.759   3.484
 3812SOL    HW113333   7.110   4.784   3.397
 3812SOL    HW213334   7.130   4.816   3.543
 3813SOL     OW13335   7.800   8.330  12.014
 3813SOL    HW113336   7.824   8.364  12.101
 3813SOL    HW213337   7.704   8.329  12.015
 3814SOL     OW13338   5.534   6.162  10.803
 3814SOL    HW113339   5.506   6.239  10.753
 3814SOL    HW213340   5.467   6.152  10.870
 3815SOL     OW13341  14.566   6.498   8.699
 3815SOL    HW113342  14.512   6.574   8.677
 3815SOL    HW213343  14.625   6.487   8.625
 3816SOL     OW13344   5.012  14.312   0.372
 3816SOL    HW113345   4.998  14.343   0.282
 3816SOL    HW213346   5.096  14.351   0.397
 3817SOL     OW13347  12.323   9.611  14.548
 3817SOL    HW113348  12.316   9.699  14.510
 3817SOL    HW213349  12.386   9.620  14.619
 3818SOL     OW13350   5.095   7.088   4.963
 3818SOL    HW113351   5.165   7.027   4.988
 3818SOL    HW213352   5.138   7.173   4.960
 3819SOL     OW13353   2.240   4.422   8.782
 3819SOL    HW113354   2.183   4.375   8.721
 3819SOL    HW213355   2.283   4.353   8.832
 3820SOL     OW13356   3.971   7.194   2.353
 3820SOL    HW113357   4.018   7.214   2.434
 3820SOL    HW213358   4.005   7.256   2.289
 3821SOL     OW13359   9.960   2.891   7.453
 3821SOL    HW113360  10.043   2.847   7.469
 3821SOL    HW213361   9.894   2.821   7.452
 3822SOL     OW13362  13.962  11.308   2.420
 3822SOL    HW113363  14.047  11.309   2.377
 3822SOL    HW213364  13.978  11.346   2.507
 3823SOL     OW13365   0.840   0.308  13.677
 3823SOL    HW113366   0.860   0.288  13.585
 3823SOL    HW213367   0.898   0.252  13.728
 3824SOL     OW13368  13.325   9.938   0.221
 3824SOL    HW113369  13.373   9.907   0.297
 3824SOL    HW213370  13.335  10.034   0.224
 3825SOL     OW13371  12.082   3.821   2.156
 3825SOL    HW113372  11.991   3.794   2.163
 3825SOL    HW213373  12.133   3.740   2.160
 3826SOL     OW13374  11.917   4.066   3.904
 3826SOL    HW113375  11.997   4.082   3.855
 3826SOL    HW213376  11.946   4.030   3.988
 3827SOL     OW13377   7.844  14.118  13.738
 3827SOL    HW113378   7.877  14.071  13.814
 3827SOL    HW213379   7.804  14.197  13.773
 3828SOL     OW13380   9.476  11.913   3.855
 3828SOL    HW113381   9.413  11.966   3.903
 3828SOL    HW213382   9.451  11.822   3.873
 3829SOL     OW13383   3.911   6.149  10.397
 3829SOL    HW113384   3.932   6.177  10.487
 3829SOL    HW213385   3.922   6.054  10.398
 3830SOL     OW13386   4.463   8.810  13.207
 3830SOL    HW113387   4.438   8.852  13.290
 3830SOL    HW213388   4.544   8.855  13.182
 3831SOL     OW13389   2.477   7.423  13.717
 3831SOL    HW113390   2.460   7.355  13.651
 3831SOL    HW213391   2.491   7.374  13.798
 3832SOL     OW13392   7.991   0.724  10.756
 3832SOL    HW113393   7.983   0.817  10.778
 3832SOL    HW213394   7.998   0.723  10.661
 3833SOL     OW13395   1.630   2.528   5.457
 3833SOL    HW113396   1.665   2.464   5.519
 3833SOL    HW213397   1.630   2.482   5.373
 3834SOL     OW13398   1.846   2.433  11.331
 3834SOL    HW113399   1.899   2.386  11.266
 3834SOL    HW213400   1.909   2.478  11.386
 3835SOL     OW13401   9.753   3.993  11.140
 3835SOL    HW113402   9.676   3.969  11.088
 3835SOL    HW213403   9.806   4.046  11.081
 3836SOL     OW13404   1.972   1.798  10.984
 3836SOL    HW113405   1.902   1.783  11.048
 3836SOL    HW213406   2.010   1.711  10.970
 3837SOL     OW13407  12.612   0.542   4.244
 3837SOL    HW113408  12.652   0.527   4.158
 3837SOL    HW213409  12.660   0.618   4.279
 3838SOL     OW13410   9.623  13.774   7.443
 3838SOL    HW113411   9.696  13.831   7.417
 3838SOL    HW213412   9.555  13.835   7.474
 3839SOL     OW13413   3.245   6.806   1.522
 3839SOL    HW113414   3.303   6.758   1.581
 3839SOL    HW213415   3.280   6.789   1.435
 3840SOL     OW13416   1.299  10.357   8.199
 3840SOL    HW113417   1.238  10.284   8.211
 3840SOL    HW213418   1.243  10.434   8.188
 3841SOL     OW13419   9.792   4.933   9.129
 3841SOL    HW113420   9.748   4.974   9.055
 3841SOL    HW213421   9.855   4.999   9.159
 3842SOL     OW13422   6.086   2.094  12.371
 3842SOL    HW113423   6.021   2.046  12.421
 3842SOL    HW213424   6.156   2.113  12.435
 3843SOL     OW13425   2.228  12.029  13.333
 3843SOL    HW113426   2.243  12.121  13.312
 3843SOL    HW213427   2.256  12.021  13.425
 3844SOL     OW13428   2.693  14.561   2.615
 3844SOL    HW113429   2.767  14.566   2.676
 3844SOL    HW213430   2.617  14.545   2.672
 3845SOL     OW13431   5.254   6.390  12.470
 3845SOL    HW113432   5.300   6.464  12.509
 3845SOL    HW213433   5.324   6.332  12.439
 3846SOL     OW13434   0.067  11.083   4.627
 3846SOL    HW113435   0.021  11.072   4.711
 3846SOL    HW213436   0.087  11.176   4.623
 3847SOL     OW13437   5.268   0.388   1.655
 3847SOL    HW113438   5.358   0.419   1.650
 3847SOL    HW213439   5.228   0.414   1.573
 3848SOL     OW13440   2.115   5.976   0.646
 3848SOL    HW113441   2.182   5.923   0.602
 3848SOL    HW213442   2.153   6.063   0.653
 3849SOL     OW13443   3.833   6.631   1.947
 3849SOL    HW113444   3.801   6.690   2.014
 3849SOL    HW213445   3.908   6.677   1.907
 3850SOL     OW13446   7.912  12.001   0.076
 3850SOL    HW113447   7.839  12.049   0.115
 3850SOL    HW213448   7.926  12.044  14.864
 3851SOL     OW13449  13.917  12.038   9.753
 3851SOL    HW113450  13.920  12.011   9.661
 3851SOL    HW213451  13.890  12.130   9.750
 3852SOL     OW13452   0.065  12.563   2.355
 3852SOL    HW113453   0.136  12.501   2.376
 3852SOL    HW213454   0.088  12.598   2.269
 3853SOL     OW13455  12.110   4.394   1.192
 3853SOL    HW113456  12.071   4.380   1.278
 3853SOL    HW213457  12.056   4.342   1.133
 3854SOL     OW13458  13.083   7.106  11.009
 3854SOL    HW113459  13.059   7.180  10.955
 3854SOL    HW213460  13.003   7.054  11.017
 3855SOL     OW13461   9.733   6.347   7.749
 3855SOL    HW113462   9.656   6.401   7.730
 3855SOL    HW213463   9.715   6.310   7.836
 3856SOL     OW13464  13.732  12.333   6.136
 3856SOL    HW113465  13.753  12.287   6.217
 3856SOL    HW213466  13.720  12.265   6.071
 3857SOL     OW13467  14.398   1.995  12.874
 3857SOL    HW113468  14.390   1.925  12.809
 3857SOL    HW213469  14.423   2.072  12.824
 3858SOL     OW13470   3.310  13.985  11.199
 3858SOL    HW113471   3.359  13.904  11.190
 3858SOL    HW213472   3.359  14.049  11.147
 3859SOL     OW13473  14.677   4.351  11.807
 3859SOL    HW113474  14.748   4.302  11.766
 3859SOL    HW213475  14.597   4.313  11.772
 3860SOL     OW13476   9.947   6.968  12.219
 3860SOL    HW113477   9.864   7.016  12.220
 3860SOL    HW213478  10.011   7.032  12.189
 3861SOL     OW13479   8.453  12.566   2.736
 3861SOL    HW113480   8.438  12.516   2.816
 3861SOL    HW213481   8.401  12.520   2.669
 3862SOL     OW13482   4.015   3.388   7.445
 3862SOL    HW113483   4.033   3.373   7.352
 3862SOL    HW213484   4.089   3.346   7.491
 3863SOL     OW13485  12.787   1.854   7.210
 3863SOL    HW113486  12.808   1.926   7.269
 3863SOL    HW213487  12.736   1.894   7.140
 3864SOL     OW13488   2.593   5.852  11.651
 3864SOL    HW113489   2.646   5.871  11.729
 3864SOL    HW213490   2.521   5.915  11.656
 3865SOL     OW13491  10.447  13.938   6.865
 3865SOL    HW113492  10.360  13.901   6.849
 3865SOL    HW213493  10.506  13.863   6.868
 3866SOL     OW13494   1.138  14.106  14.077
 3866SOL    HW113495   1.073  14.049  14.036
 3866SOL    HW213496   1.164  14.059  14.156
 3867SOL     OW13497  14.854   4.266  12.734
 3867SOL    HW113498   0.060   4.297  12.780
 3867SOL    HW213499  14.794   4.340  12.736
 3868SOL     OW13500   3.912   5.173   3.811
 3868SOL    HW113501   3.994   5.220   3.823
 3868SOL    HW213502   3.844   5.239   3.826
 3869SOL     OW13503  11.866   5.169   2.047
 3869SOL    HW113504  11.842   5.205   1.962
 3869SOL    HW213505  11.961   5.162   2.044
 3870SOL     OW13506   1.324   9.490   1.314
 3870SOL    HW113507   1.238   9.507   1.276
 3870SOL    HW213508   1.373   9.571   1.298
 3871SOL     OW13509   0.538  10.123  13.767
 3871SOL    HW113510   0.483  10.197  13.741
 3871SOL    HW213511   0.627  10.151  13.748
 3872SOL     OW13512   8.566   6.431   7.359
 3872SOL    HW113513   8.502   6.500   7.380
 3872SOL    HW213514   8.538   6.356   7.412
 3873SOL     OW13515   6.603   9.040  11.739
 3873SOL    HW113516   6.532   9.055  11.802
 3873SOL    HW213517   6.648   9.125  11.733
 3874SOL     OW13518   1.580   7.597  11.671
 3874SOL    HW113519   1.667   7.569  11.700
 3874SOL    HW213520   1.562   7.676  11.721
 3875SOL     OW13521   9.491  12.603   4.875
 3875SOL    HW113522   9.555  12.662   4.837
 3875SOL    HW213523   9.455  12.652   4.949
 3876SOL     OW13524  11.198   3.781   7.421
 3876SOL    HW113525  11.276   3.831   7.397
 3876SOL    HW213526  11.228   3.690   7.420
 3877SOL     OW13527   5.899   3.645  10.378
 3877SOL    HW113528   5.880   3.552  10.376
 3877SOL    HW213529   5.813   3.687  10.381
 3878SOL     OW13530  12.447   1.479  10.374
 3878SOL    HW113531  12.378   1.508  10.313
 3878SOL    HW213532  12.518   1.450  10.318
 3879SOL     OW13533   9.966  12.419   2.596
 3879SOL    HW113534  10.049  12.467   2.597
 3879SOL    HW213535   9.946  12.409   2.503
 3880SOL     OW13536  12.562   7.485  10.055
 3880SOL    HW113537  12.597   7.400  10.028
 3880SOL    HW213538  12.620   7.513  10.126
 3881SOL     OW13539   5.597   3.460  14.191
 3881SOL    HW113540   5.559   3.439  14.275
 3881SOL    HW213541   5.540   3.528  14.154
 3882SOL     OW13542   9.995   1.113  14.375
 3882SOL    HW113543  10.002   1.188  14.433
 3882SOL    HW213544   9.919   1.064  14.407
 3883SOL     OW13545   6.423   8.547   2.835
 3883SOL    HW113546   6.511   8.515   2.852
 3883SOL    HW213547   6.436   8.636   2.803
 3884SOL     OW13548  12.204   8.310   9.850
 3884SOL    HW113549  12.277   8.277   9.797
 3884SOL    HW213550  12.207   8.405   9.837
 3885SOL     OW13551   6.700   5.612   4.574
 3885SOL    HW113552   6.650   5.541   4.615
 3885SOL    HW213553   6.697   5.592   4.480
 3886SOL     OW13554  10.659  12.005   7.521
 3886SOL    HW113555  10.640  12.034   7.610
 3886SOL    HW213556  10.580  12.027   7.471
 3887SOL     OW13557   0.828  13.152   6.683
 3887SOL    HW113558   0.790  13.236   6.708
 3887SOL    HW213559   0.883  13.127   6.757
 3888SOL     OW13560   0.676   2.916  10.051
 3888SOL    HW113561   0.753   2.964  10.020
 3888SOL    HW213562   0.624   2.901   9.972
 3889SOL     OW13563  14.526   5.620   7.494
 3889SOL    HW113564  14.611   5.635   7.454
 3889SOL    HW213565  14.530   5.531   7.527
 3890SOL     OW13566  12.124   3.038  12.880
 3890SOL    HW113567  12.161   3.027  12.793
 3890SOL    HW213568  12.042   3.085  12.866
 3891SOL     OW13569   3.294   7.352   0.817
 3891SOL    HW113570   3.370   7.411   0.821
 3891SOL    HW213571   3.326   7.269   0.852
 3892SOL     OW13572  10.276   2.827   6.105
 3892SOL    HW113573  10.284   2.789   6.192
 3892SOL    HW213574  10.343   2.895   6.102
 3893SOL     OW13575   5.883   1.560   1.141
 3893SOL    HW113576   5.950   1.622   1.114
 3893SOL    HW213577   5.907   1.535   1.230
 3894SOL     OW13578   5.582  13.800  12.646
 3894SOL    HW113579   5.533  13.831  12.569
 3894SOL    HW213580   5.568  13.868  12.712
 3895SOL     OW13581   1.975   3.371  12.055
 3895SOL    HW113582   2.025   3.428  12.113
 3895SOL    HW213583   1.985   3.284  12.093
 3896SOL     OW13584  10.966  10.039  12.169
 3896SOL    HW113585  10.873  10.023  12.154
 3896SOL    HW213586  10.992   9.974  12.233
 3897SOL     OW13587  12.587   5.205   2.408
 3897SOL    HW113588  12.605   5.205   2.314
 3897SOL    HW213589  12.669   5.237   2.447
 3898SOL     OW13590   9.965   5.589  13.850
 3898SOL    HW113591  10.024   5.591  13.926
 3898SOL    HW213592   9.887   5.636  13.878
 3899SOL     OW13593  11.045   8.402   3.058
 3899SOL    HW113594  11.136   8.392   3.030
 3899SOL    HW213595  11.023   8.492   3.034
 3900SOL     OW13596  11.573   0.511   8.247
 3900SOL    HW113597  11.602   0.594   8.286
 3900SOL    HW213598  11.524   0.468   8.316
 3901SOL     OW13599  13.137  13.806   9.765
 3901SOL    HW113600  13.058  13.753   9.757
 3901SOL    HW213601  13.207  13.750   9.729
 3902SOL     OW13602  14.301   3.318  10.038
 3902SOL    HW113603  14.381   3.333   9.987
 3902SOL    HW213604  14.318   3.236  10.086
 3903SOL     OW13605   0.539   8.851   2.755
 3903SOL    HW113606   0.565   8.793   2.684
 3903SOL    HW213607   0.460   8.894   2.723
 3904SOL     OW13608  11.639  13.846   3.038
 3904SOL    HW113609  11.570  13.870   3.100
 3904SOL    HW213610  11.630  13.909   2.967
 3905SOL     OW13611   7.845   9.006   2.408
 3905SOL    HW113612   7.903   9.082   2.403
 3905SOL    HW213613   7.857   8.973   2.496
 3906SOL     OW13614   9.739   8.801   7.081
 3906SOL    HW113615   9.657   8.752   7.089
 3906SOL    HW213616   9.714   8.883   7.039
 3907SOL     OW13617   9.398  13.384  13.140
 3907SOL    HW113618   9.374  13.385  13.233
 3907SOL    HW213619   9.321  13.418  13.095
 3908SOL     OW13620  12.209  13.066  11.215
 3908SOL    HW113621  12.131  13.092  11.264
 3908SOL    HW213622  12.283  13.100  11.266
 3909SOL     OW13623  11.512   2.378   6.424
 3909SOL    HW113624  11.497   2.283   6.414
 3909SOL    HW213625  11.582   2.384   6.488
 3910SOL     OW13626   2.997   7.059   8.140
 3910SOL    HW113627   3.047   7.081   8.061
 3910SOL    HW213628   3.059   7.072   8.212
 3911SOL     OW13629  13.311   3.686   6.524
 3911SOL    HW113630  13.321   3.632   6.445
 3911SOL    HW213631  13.272   3.767   6.492
 3912SOL     OW13632  10.278   3.444  11.828
 3912SOL    HW113633  10.239   3.436  11.741
 3912SOL    HW213634  10.210   3.415  11.888
 3913SOL     OW13635  12.645   6.143   5.735
 3913SOL    HW113636  12.658   6.228   5.778
 3913SOL    HW213637  12.588   6.095   5.794
 3914SOL     OW13638  13.644   3.233  11.500
 3914SOL    HW113639  13.591   3.154  11.505
 3914SOL    HW213640  13.727   3.203  11.461
 3915SOL     OW13641  13.526  11.033  13.801
 3915SOL    HW113642  13.521  11.035  13.706
 3915SOL    HW213643  13.600  10.975  13.821
 3916SOL     OW13644   9.253   8.285   5.143
 3916SOL    HW113645   9.231   8.374   5.116
 3916SOL    HW213646   9.177   8.233   5.118
 3917SOL     OW13647   8.136  10.583  13.147
 3917SOL    HW113648   8.086  10.663  13.163
 3917SOL    HW213649   8.083  10.533  13.086
 3918SOL     OW13650   5.222  10.487  13.642
 3918SOL    HW113651   5.133  10.519  13.632
 3918SOL    HW213652   5.214  10.409  13.696
 3919SOL     OW13653   6.054  11.554   0.478
 3919SOL    HW113654   5.992  11.495   0.436
 3919SOL    HW213655   6.127  11.498   0.506
 3920SOL     OW13656   5.827   4.677   2.639
 3920SOL    HW113657   5.827   4.678   2.543
 3920SOL    HW213658   5.757   4.738   2.664
 3921SOL     OW13659   4.617   4.240   1.818
 3921SOL    HW113660   4.613   4.171   1.884
 3921SOL    HW213661   4.710   4.263   1.813
 3922SOL     OW13662  13.845   9.840   5.098
 3922SOL    HW113663  13.801   9.769   5.051
 3922SOL    HW213664  13.938   9.826   5.080
 3923SOL     OW13665   0.193  11.397   0.470
 3923SOL    HW113666   0.264  11.461   0.458
 3923SOL    HW213667   0.220  11.321   0.419
 3924SOL     OW13668   2.818  12.859   0.274
 3924SOL    HW113669   2.724  12.856   0.259
 3924SOL    HW213670   2.857  12.834   0.190
 3925SOL     OW13671  13.777   6.564   5.755
 3925SOL    HW113672  13.782   6.475   5.788
 3925SOL    HW213673  13.831   6.615   5.816
 3926SOL     OW13674   4.476   1.147   6.366
 3926SOL    HW113675   4.384   1.144   6.392
 3926SOL    HW213676   4.508   1.058   6.385
 3927SOL     OW13677   6.482  13.174   8.853
 3927SOL    HW113678   6.427  13.186   8.775
 3927SOL    HW213679   6.570  13.199   8.825
 3928SOL     OW13680   9.826   7.864   9.385
 3928SOL    HW113681   9.821   7.930   9.316
 3928SOL    HW213682   9.823   7.781   9.339
 3929SOL     OW13683  11.798  14.641   9.989
 3929SOL    HW113684  11.769  14.622   9.899
 3929SOL    HW213685  11.789  14.736   9.997
 3930SOL     OW13686   8.378   3.254   6.973
 3930SOL    HW113687   8.362   3.171   7.017
 3930SOL    HW213688   8.307   3.311   7.002
 3931SOL     OW13689  12.130   3.163   4.195
 3931SOL    HW113690  12.213   3.175   4.148
 3931SOL    HW213691  12.077   3.238   4.168
 3932SOL     OW13692   6.876   1.712  10.721
 3932SOL    HW113693   6.842   1.792  10.760
 3932SOL    HW213694   6.873   1.727  10.627
 3933SOL     OW13695   9.137   0.057   7.674
 3933SOL    HW113696   9.101   0.140   7.644
 3933SOL    HW213697   9.060   0.004   7.693
 3934SOL     OW13698   9.840   6.544   7.532
 3934SOL    HW113699   9.821   6.475   7.595
 3934SOL    HW213700   9.776   6.613   7.553
 3935SOL     OW13701  12.569  11.532  11.236
 3935SOL    HW113702  12.530  11.451  11.203
 3935SOL    HW213703  12.568  11.591  11.160
 3936SOL     OW13704  12.195  11.893   8.209
 3936SOL    HW113705  12.287  11.919   8.205
 3936SOL    HW213706  12.185  11.849   8.294
 3937SOL     OW13707   0.100  14.392  13.890
 3937SOL    HW113708   0.056  14.465  13.845
 3937SOL    HW213709   0.081  14.407  13.983
 3938SOL     OW13710   3.451   1.585   2.574
 3938SOL    HW113711   3.396   1.659   2.598
 3938SOL    HW213712   3.530   1.594   2.628
 3939SOL     OW13713   1.543   4.477   3.143
 3939SOL    HW113714   1.509   4.387   3.146
 3939SOL    HW213715   1.472   4.530   3.180
 3940SOL     OW13716   8.668   4.185   5.284
 3940SOL    HW113717   8.621   4.208   5.364
 3940SOL    HW213718   8.618   4.226   5.213
 3941SOL     OW13719   9.489   9.357   0.759
 3941SOL    HW113720   9.468   9.347   0.851
 3941SOL    HW213721   9.451   9.441   0.734
 3942SOL     OW13722   6.799  11.698   2.195
 3942SOL    HW113723   6.875  11.722   2.248
 3942SOL    HW213724   6.830  11.700   2.105
 3943SOL     OW13725   4.728   8.088   3.590
 3943SOL    HW113726   4.706   8.124   3.676
 3943SOL    HW213727   4.670   8.134   3.529
 3944SOL     OW13728   9.303   7.895   1.531
 3944SOL    HW113729   9.217   7.899   1.573
 3944SOL    HW213730   9.350   7.971   1.566
 3945SOL     OW13731   6.512   1.458   8.461
 3945SOL    HW113732   6.439   1.396   8.472
 3945SOL    HW213733   6.474   1.529   8.410
 3946SOL     OW13734   7.844   6.403   0.254
 3946SOL    HW113735   7.912   6.421   0.189
 3946SOL    HW213736   7.807   6.319   0.227
 3947SOL     OW13737   9.980   5.467   0.360
 3947SOL    HW113738   9.984   5.562   0.376
 3947SOL    HW213739   9.899   5.455   0.310
 3948SOL     OW13740   0.591   2.661  12.756
 3948SOL    HW113741   0.554   2.597  12.694
 3948SOL    HW213742   0.626   2.730  12.700
 3949SOL     OW13743  14.064   4.967   8.707
 3949SOL    HW113744  14.043   4.906   8.778
 3949SOL    HW213745  14.158   4.979   8.713
 3950SOL     OW13746   0.241   3.501  11.113
 3950SOL    HW113747   0.306   3.546  11.166
 3950SOL    HW213748   0.233   3.555  11.034
 3951SOL     OW13749   3.133  14.067   2.322
 3951SOL    HW113750   3.051  14.093   2.279
 3951SOL    HW213751   3.132  13.971   2.319
 3952SOL     OW13752   4.574   1.396   3.720
 3952SOL    HW113753   4.619   1.445   3.652
 3952SOL    HW213754   4.585   1.448   3.799
 3953SOL     OW13755   4.771   0.934  12.566
 3953SOL    HW113756   4.745   0.916  12.657
 3953SOL    HW213757   4.866   0.923  12.566
 3954SOL     OW13758   5.827   9.329  12.308
 3954SOL    HW113759   5.744   9.289  12.281
 3954SOL    HW213760   5.806   9.422  12.317
 3955SOL     OW13761  10.799   9.214  10.135
 3955SOL    HW113762  10.757   9.128  10.145
 3955SOL    HW213763  10.891   9.197  10.155
 3956SOL     OW13764   3.156  14.460   5.014
 3956SOL    HW113765   3.115  14.481   4.930
 3956SOL    HW213766   3.111  14.517   5.077
 3957SOL     OW13767  11.507   7.634  14.202
 3957SOL    HW113768  11.542   7.723  14.209
 3957SOL    HW213769  11.538   7.602  14.118
 3958SOL     OW13770   5.074   2.307   4.391
 3958SOL    HW113771   5.157   2.306   4.342
 3958SOL    HW213772   5.031   2.388   4.362
 3959SOL     OW13773   0.582   1.022   1.017
 3959SOL    HW113774   0.628   1.092   0.970
 3959SOL    HW213775   0.571   0.953   0.951
 3960SOL     OW13776   2.690   9.756   7.986
 3960SOL    HW113777   2.647   9.768   8.071
 3960SOL    HW213778   2.670   9.836   7.937
 3961SOL     OW13779   0.887   7.039   6.460
 3961SOL    HW113780   0.948   6.968   6.438
 3961SOL    HW213781   0.846   7.062   6.376
 3962SOL     OW13782  12.562   4.848  13.671
 3962SOL    HW113783  12.563   4.801  13.587
 3962SOL    HW213784  12.482   4.900  13.669
 3963SOL     OW13785   4.725   8.323  12.302
 3963SOL    HW113786   4.698   8.252  12.243
 3963SOL    HW213787   4.820   8.315  12.308
 3964SOL     OW13788   6.525   2.148   8.763
 3964SOL    HW113789   6.466   2.141   8.688
 3964SOL    HW213790   6.468   2.139   8.839
 3965SOL     OW13791   1.104   3.802  14.122
 3965SOL    HW113792   1.035   3.834  14.064
 3965SOL    HW213793   1.064   3.728  14.168
 3966SOL     OW13794  11.853   9.358  14.808
 3966SOL    HW113795  11.891   9.421  14.870
 3966SOL    HW213796  11.759   9.380  14.807
 3967SOL     OW13797   3.619  12.687  11.172
 3967SOL    HW113798   3.700  12.637  11.162
 3967SOL    HW213799   3.557  12.625  11.211
 3968SOL     OW13800   0.148  10.040  11.604
 3968SOL    HW113801   0.227  10.093  11.590
 3968SOL    HW213802   0.104  10.041  11.518
 3969SOL     OW13803   0.869   4.315   6.694
 3969SOL    HW113804   0.849   4.239   6.750
 3969SOL    HW213805   0.964   4.313   6.683
 3970SOL     OW13806  10.058   5.792  14.620
 3970SOL    HW113807  10.128   5.853  14.595
 3970SOL    HW213808  10.028   5.755  14.537
 3971SOL     OW13809   7.885   9.667   5.281
 3971SOL    HW113810   7.894   9.664   5.376
 3971SOL    HW213811   7.963   9.714   5.251
 3972SOL     OW13812   2.290   8.165  12.875
 3972SOL    HW113813   2.231   8.181  12.802
 3972SOL    HW213814   2.254   8.089  12.919
 3973SOL     OW13815  10.862   5.797  12.592
 3973SOL    HW113816  10.898   5.786  12.679
 3973SOL    HW213817  10.769   5.774  12.602
 3974SOL     OW13818   8.895  13.931   1.769
 3974SOL    HW113819   8.905  13.843   1.806
 3974SOL    HW213820   8.800  13.941   1.758
 3975SOL     OW13821   2.879   0.517   1.490
 3975SOL    HW113822   2.861   0.590   1.431
 3975SOL    HW213823   2.808   0.519   1.554
 3976SOL     OW13824  10.958   9.017  11.508
 3976SOL    HW113825  10.903   9.089  11.537
 3976SOL    HW213826  11.000   9.050  11.429
 3977SOL     OW13827   4.830   5.732   9.105
 3977SOL    HW113828   4.843   5.827   9.103
 3977SOL    HW213829   4.737   5.721   9.123
 3978SOL     OW13830   2.793  10.576   4.366
 3978SOL    HW113831   2.813  10.576   4.459
 3978SOL    HW213832   2.873  10.607   4.324
 3979SOL     OW13833  12.303   9.386   1.496
 3979SOL    HW113834  12.270   9.363   1.583
 3979SOL    HW213835  12.311   9.482   1.499
 3980SOL     OW13836  10.835  10.019  14.848
 3980SOL    HW113837  10.773  10.064  14.791
 3980SOL    HW213838  10.801   9.930  14.855
 3981SOL     OW13839  11.868  10.874  14.025
 3981SOL    HW113840  11.830  10.859  13.939
 3981SOL    HW213841  11.909  10.960  14.019
 3982SOL     OW13842   4.618   2.842   2.502
 3982SOL    HW113843   4.712   2.858   2.493
 3982SOL    HW213844   4.584   2.924   2.538
 3983SOL     OW13845  12.188  14.391  12.705
 3983SOL    HW113846  12.102  14.384  12.663
 3983SOL    HW213847  12.229  14.466  12.663
 3984SOL     OW13848  11.076   0.068   9.761
 3984SOL    HW113849  11.128   0.011   9.817
 3984SOL    HW213850  11.087   0.155   9.799
 3985SOL     OW13851   2.416  10.359  12.014
 3985SOL    HW113852   2.403  10.394  11.926
 3985SOL    HW213853   2.333  10.316  12.035
 3986SOL     OW13854  14.443   7.051   4.821
 3986SOL    HW113855  14.368   6.997   4.798
 3986SOL    HW213856  14.408   7.119   4.878
 3987SOL     OW13857   2.613  12.847   1.303
 3987SOL    HW113858   2.625  12.936   1.338
 3987SOL    HW213859   2.522  12.825   1.323
 3988SOL     OW13860   5.055   6.118   3.964
 3988SOL    HW113861   4.965   6.137   3.989
 3988SOL    HW213862   5.055   6.024   3.946
 3989SOL     OW13863   9.717   7.772   7.934
 3989SOL    HW113864   9.762   7.853   7.907
 3989SOL    HW213865   9.632   7.801   7.966
 3990SOL     OW13866   5.381   2.320   2.637
 3990SOL    HW113867   5.396   2.259   2.565
 3990SOL    HW213868   5.465   2.324   2.683
 3991SOL     OW13869   6.764   1.868   6.872
 3991SOL    HW113870   6.670   1.880   6.878
 3991SOL    HW213871   6.802   1.940   6.923
 3992SOL     OW13872   7.973   9.597  13.246
 3992SOL    HW113873   8.033   9.528  13.276
 3992SOL    HW213874   7.886   9.559  13.256
 3993SOL     OW13875   2.211  14.569  13.947
 3993SOL    HW113876   2.135  14.546  14.001
 3993SOL    HW213877   2.280  14.510  13.977
 3994SOL     OW13878   0.754  12.583  11.748
 3994SOL    HW113879   0.743  12.543  11.662
 3994SOL    HW213880   0.779  12.674  11.729
 3995SOL     OW13881   5.663   5.552   0.655
 3995SOL    HW113882   5.676   5.571   0.748
 3995SOL    HW213883   5.670   5.457   0.649
 3996SOL     OW13884  10.949  12.066   2.111
 3996SOL    HW113885  11.039  12.091   2.088
 3996SOL    HW213886  10.921  12.009   2.039
 3997SOL     OW13887   4.133   8.378   8.373
 3997SOL    HW113888   4.086   8.456   8.403
 3997SOL    HW213889   4.073   8.305   8.390
 3998SOL     OW13890   1.498  10.596  12.770
 3998SOL    HW113891   1.526  10.657  12.838
 3998SOL    HW213892   1.524  10.638  12.688
 3999SOL     OW13893  13.992  10.153   1.873
 3999SOL    HW113894  13.948  10.109   1.945
 3999SOL    HW213895  13.931  10.222   1.845
 4000SOL     OW13896   1.857  12.885  14.658
 4000SOL    HW113897   1.921  12.823  14.694
 4000SOL    HW213898   1.899  12.970  14.665
 4001SOL     OW13899   1.395   3.008  10.284
 4001SOL    HW113900   1.486   3.005  10.257
 4001SOL    HW213901   1.396   2.973  10.373
 4002SOL     OW13902  14.655   1.221   9.930
 4002SOL    HW113903  14.622   1.287   9.991
 4002SOL    HW213904  14.743   1.201   9.963
 4003SOL     OW13905  11.099   8.418  12.944
 4003SOL    HW113906  11.172   8.453  12.893
 4003SOL    HW213907  11.084   8.483  13.013
 4004SOL     OW13908   4.191   7.125   7.574
 4004SOL    HW113909   4.179   7.118   7.479
 4004SOL    HW213910   4.128   7.193   7.601
 4005SOL     OW13911  11.389   9.869  10.303
 4005SOL    HW113912  11.355   9.815  10.376
 4005SOL    HW213913  11.319   9.931  10.286
 4006SOL     OW13914   9.254   3.178   6.552
 4006SOL    HW113915   9.183   3.121   6.581
 4006SOL    HW213916   9.334   3.133   6.582
 4007SOL     OW13917   5.451  10.575  10.564
 4007SOL    HW113918   5.371  10.619  10.591
 4007SOL    HW213919   5.444  10.566  10.469
 4008SOL     OW13920  14.827   0.350   8.969
 4008SOL    HW113921  14.843   0.409   8.896
 4008SOL    HW213922  14.817   0.407   9.045
 4009SOL     OW13923  14.080   9.958   3.752
 4009SOL    HW113924  14.136   9.969   3.675
 4009SOL    HW213925  14.122   9.888   3.802
 4010SOL     OW13926  12.153  11.632  11.303
 4010SOL    HW113927  12.124  11.717  11.336
 4010SOL    HW213928  12.244  11.625  11.331
 4011SOL     OW13929   4.236   1.038   9.011
 4011SOL    HW113930   4.239   1.125   9.051
 4011SOL    HW213931   4.146   1.029   8.980
 4012SOL     OW13932   3.386   3.098   7.960
 4012SOL    HW113933   3.400   3.005   7.943
 4012SOL    HW213934   3.410   3.110   8.052
 4013SOL     OW13935  13.216   2.825   1.143
 4013SOL    HW113936  13.187   2.763   1.076
 4013SOL    HW213937  13.244   2.769   1.216
 4014SOL     OW13938  10.462  12.869   2.383
 4014SOL    HW113939  10.409  12.947   2.369
 4014SOL    HW213940  10.531  12.874   2.317
 4015SOL     OW13941   1.735   6.439   2.486
 4015SOL    HW113942   1.762   6.493   2.412
 4015SOL    HW213943   1.796   6.461   2.556
 4016SOL     OW13944   9.022  11.892   7.587
 4016SOL    HW113945   8.996  11.802   7.564
 4016SOL    HW213946   9.063  11.925   7.507
 4017SOL     OW13947   8.863   0.207   1.309
 4017SOL    HW113948   8.809   0.237   1.382
 4017SOL    HW213949   8.886   0.117   1.332
 4018SOL     OW13950  10.873   8.797   7.582
 4018SOL    HW113951  10.799   8.842   7.624
 4018SOL    HW213952  10.951   8.840   7.619
 4019SOL     OW13953   6.599  10.574   9.865
 4019SOL    HW113954   6.694  10.570   9.874
 4019SOL    HW213955   6.580  10.514   9.792
 4020SOL     OW13956   9.420   5.787   0.472
 4020SOL    HW113957   9.353   5.783   0.540
 4020SOL    HW213958   9.494   5.738   0.508
 4021SOL     OW13959  14.090  11.004   5.339
 4021SOL    HW113960  14.156  10.956   5.390
 4021SOL    HW213961  14.010  10.952   5.349
 4022SOL     OW13962   4.780   6.036  12.218
 4022SOL    HW113963   4.845   6.021  12.149
 4022SOL    HW213964   4.772   5.951  12.262
 4023SOL     OW13965   5.716   6.378   7.539
 4023SOL    HW113966   5.639   6.330   7.509
 4023SOL    HW213967   5.786   6.312   7.539
 4024SOL     OW13968   4.126  13.107   6.543
 4024SOL    HW113969   4.174  13.188   6.524
 4024SOL    HW213970   4.034  13.130   6.534
 4025SOL     OW13971   5.277   8.899  13.695
 4025SOL    HW113972   5.251   8.841  13.767
 4025SOL    HW213973   5.373   8.898  13.696
 4026SOL     OW13974  11.649   5.734  14.108
 4026SOL    HW113975  11.594   5.686  14.045
 4026SOL    HW213976  11.714   5.671  14.136
 4027SOL     OW13977   8.056   6.142  11.278
 4027SOL    HW113978   7.987   6.120  11.216
 4027SOL    HW213979   8.016   6.207  11.336
 4028SOL     OW13980   1.961  10.496   6.537
 4028SOL    HW113981   1.893  10.469   6.599
 4028SOL    HW213982   2.005  10.570   6.580
 4029SOL     OW13983   7.499   8.820   7.760
 4029SOL    HW113984   7.498   8.916   7.755
 4029SOL    HW213985   7.455   8.800   7.843
 4030SOL     OW13986  10.380   5.450   7.758
 4030SOL    HW113987  10.302   5.498   7.729
 4030SOL    HW213988  10.386   5.469   7.851
 4031SOL     OW13989   5.605  12.533   1.930
 4031SOL    HW113990   5.651  12.590   1.869
 4031SOL    HW213991   5.574  12.592   1.999
 4032SOL     OW13992  13.605   5.336  11.072
 4032SOL    HW113993  13.663   5.296  11.137
 4032SOL    HW213994  13.523   5.350  11.119
 4033SOL     OW13995  11.186   8.555   8.781
 4033SOL    HW113996  11.170   8.464   8.808
 4033SOL    HW213997  11.123   8.606   8.830
 4034SOL     OW13998  11.410  13.141   2.052
 4034SOL    HW113999  11.375  13.053   2.062
 4034SOL    HW214000  11.442  13.165   2.139
 4035SOL     OW14001   2.728   0.974  14.280
 4035SOL    HW114002   2.770   1.053  14.314
 4035SOL    HW214003   2.738   0.910  14.351
 4036SOL     OW14004   5.405   4.301   9.760
 4036SOL    HW114005   5.356   4.232   9.715
 4036SOL    HW214006   5.416   4.269   9.849
 4037SOL     OW14007   9.812  10.733   2.084
 4037SOL    HW114008   9.854  10.683   2.155
 4037SOL    HW214009   9.785  10.666   2.021
 4038SOL     OW14010   6.488   1.103   7.852
 4038SOL    HW114011   6.536   1.021   7.842
 4038SOL    HW214012   6.424   1.102   7.781
 4039SOL     OW14013  14.284   7.469   8.068
 4039SOL    HW114014  14.364   7.443   8.022
 4039SOL    HW214015  14.304   7.456   8.161
 4040SOL     OW14016   5.700   1.403   6.647
 4040SOL    HW114017   5.681   1.310   6.657
 4040SOL    HW214018   5.796   1.407   6.642
 4041SOL     OW14019   9.026  13.399   0.311
 4041SOL    HW114020   9.010  13.374   0.220
 4041SOL    HW214021   9.033  13.315   0.358
 4042SOL     OW14022  14.106   5.058   1.884
 4042SOL    HW114023  14.040   5.034   1.819
 4042SOL    HW214024  14.172   4.989   1.878
 4043SOL     OW14025   4.217   9.720   2.418
 4043SOL    HW114026   4.207   9.671   2.336
 4043SOL    HW214027   4.184   9.807   2.399
 4044SOL     OW14028   5.729  11.235   3.608
 4044SOL    HW114029   5.778  11.216   3.528
 4044SOL    HW214030   5.796  11.259   3.672
 4045SOL     OW14031   9.207   0.899  10.664
 4045SOL    HW114032   9.217   0.864  10.752
 4045SOL    HW214033   9.174   0.988  10.676
 4046SOL     OW14034  13.655  12.699   0.908
 4046SOL    HW114035  13.741  12.662   0.887
 4046SOL    HW214036  13.672  12.757   0.982
 4047SOL     OW14037  11.766  14.179   3.060
 4047SOL    HW114038  11.728  14.248   3.115
 4047SOL    HW214039  11.825  14.132   3.118
 4048SOL     OW14040  13.103   1.311   9.507
 4048SOL    HW114041  13.116   1.404   9.489
 4048SOL    HW214042  13.118   1.268   9.422
 4049SOL     OW14043   0.886   9.534  11.858
 4049SOL    HW114044   0.868   9.537  11.952
 4049SOL    HW214045   0.803   9.559  11.817
 4050SOL     OW14046   6.069  14.214   9.377
 4050SOL    HW114047   6.046  14.289   9.322
 4050SOL    HW214048   5.989  14.196   9.427
 4051SOL     OW14049   5.022  13.895  10.485
 4051SOL    HW114050   5.043  13.851  10.403
 4051SOL    HW214051   5.097  13.879  10.542
 4052SOL     OW14052  14.344   7.553  13.664
 4052SOL    HW114053  14.342   7.648  13.653
 4052SOL    HW214054  14.436   7.533  13.682
 4053SOL     OW14055  11.768   9.951   4.047
 4053SOL    HW114056  11.810   9.946   4.133
 4053SOL    HW214057  11.700  10.018   4.056
 4054SOL     OW14058  13.793  12.682  13.103
 4054SOL    HW114059  13.774  12.671  13.196
 4054SOL    HW214060  13.850  12.608  13.081
 4055SOL     OW14061   9.373   1.609   6.506
 4055SOL    HW114062   9.278   1.615   6.511
 4055SOL    HW214063   9.391   1.515   6.505
 4056SOL     OW14064  14.799   2.632   8.037
 4056SOL    HW114065  14.854   2.710   8.045
 4056SOL    HW214066  14.714   2.658   8.070
 4057SOL     OW14067   0.147  12.133  11.215
 4057SOL    HW114068   0.148  12.190  11.138
 4057SOL    HW214069   0.159  12.045  11.180
 4058SOL     OW14070   5.586   5.228   1.106
 4058SOL    HW114071   5.603   5.139   1.075
 4058SOL    HW214072   5.494   5.243   1.088
 4059SOL     OW14073   9.399   1.998   1.591
 4059SOL    HW114074   9.334   2.068   1.590
 4059SOL    HW214075   9.350   1.918   1.569
 4060SOL     OW14076   7.887   0.801  11.823
 4060SOL    HW114077   7.906   0.720  11.776
 4060SOL    HW214078   7.957   0.809  11.888
 4061SOL     OW14079  13.071  14.790   9.330
 4061SOL    HW114080  13.020  14.867   9.353
 4061SOL    HW214081  13.020  14.716   9.363
 4062SOL     OW14082   9.974   5.658   5.774
 4062SOL    HW114083   9.957   5.696   5.860
 4062SOL    HW214084   9.971   5.731   5.714
 4063SOL     OW14085  11.663   9.373   9.105
 4063SOL    HW114086  11.656   9.435   9.178
 4063SOL    HW214087  11.756   9.349   9.103
 4064SOL     OW14088   2.479   0.975   8.083
 4064SOL    HW114089   2.415   1.033   8.041
 4064SOL    HW214090   2.473   0.893   8.033
 4065SOL     OW14091   2.470   1.736   3.459
 4065SOL    HW114092   2.391   1.703   3.417
 4065SOL    HW214093   2.439   1.804   3.518
 4066SOL     OW14094   2.518   0.682  13.217
 4066SOL    HW114095   2.527   0.769  13.179
 4066SOL    HW214096   2.424   0.673  13.233
 4067SOL     OW14097  13.614  12.135  11.671
 4067SOL    HW114098  13.557  12.081  11.727
 4067SOL    HW214099  13.671  12.072  11.627
 4068SOL     OW14100   9.763   6.710   6.782
 4068SOL    HW114101   9.800   6.702   6.870
 4068SOL    HW214102   9.698   6.780   6.790
 4069SOL     OW14103   2.286   9.844  14.349
 4069SOL    HW114104   2.252   9.884  14.269
 4069SOL    HW214105   2.380   9.837  14.334
 4070SOL     OW14106   4.054   2.327  10.440
 4070SOL    HW114107   4.030   2.241  10.406
 4070SOL    HW214108   4.076   2.311  10.532
 4071SOL     OW14109   8.233   2.470   0.937
 4071SOL    HW114110   8.243   2.560   0.904
 4071SOL    HW214111   8.211   2.481   1.030
 4072SOL     OW14112  11.079  11.878   7.880
 4072SOL    HW114113  11.082  11.877   7.784
 4072SOL    HW214114  11.046  11.791   7.904
 4073SOL     OW14115   4.154   7.633   3.568
 4073SOL    HW114116   4.122   7.719   3.593
 4073SOL    HW214117   4.131   7.624   3.475
 4074SOL     OW14118   9.058   0.192  10.114
 4074SOL    HW114119   9.131   0.228  10.165
 4074SOL    HW214120   9.063   0.237  10.030
 4075SOL     OW14121   6.362   3.387   8.378
 4075SOL    HW114122   6.425   3.339   8.324
 4075SOL    HW214123   6.329   3.456   8.319
 4076SOL     OW14124  14.529   2.843   3.887
 4076SOL    HW114125  14.497   2.762   3.847
 4076SOL    HW214126  14.624   2.829   3.895
 4077SOL     OW14127  12.739  14.822   8.089
 4077SOL    HW114128  12.821  14.801   8.133
 4077SOL    HW214129  12.753   0.036   8.051
 4078SOL     OW14130  12.556   7.946   3.091
 4078SOL    HW114131  12.486   7.993   3.045
 4078SOL    HW214132  12.511   7.894   3.157
 4079SOL     OW14133   4.801   6.763   2.815
 4079SOL    HW114134   4.789   6.675   2.852
 4079SOL    HW214135   4.741   6.818   2.864
 4080SOL     OW14136  11.031   8.432   5.969
 4080SOL    HW114137  10.958   8.439   6.031
 4080SOL    HW214138  11.092   8.371   6.010
 4081SOL     OW14139   1.968   9.941  13.834
 4081SOL    HW114140   1.967   9.962  13.927
 4081SOL    HW214141   1.913   9.863  13.827
 4082SOL     OW14142  14.864   5.900   7.528
 4082SOL    HW114143  14.833   5.830   7.471
 4082SOL    HW214144   0.069   5.863   7.571
 4083SOL     OW14145   0.160  12.358   5.096
 4083SOL    HW114146   0.124  12.270   5.082
 4083SOL    HW214147   0.170  12.394   5.008
 4084SOL     OW14148   7.201  10.463  12.134
 4084SOL    HW114149   7.277  10.504  12.094
 4084SOL    HW214150   7.135  10.461  12.065
 4085SOL     OW14151   7.048  12.339  14.308
 4085SOL    HW114152   7.116  12.307  14.249
 4085SOL    HW214153   6.987  12.387  14.252
 4086SOL     OW14154   0.879  10.826  10.416
 4086SOL    HW114155   0.787  10.830  10.391
 4086SOL    HW214156   0.916  10.909  10.386
 4087SOL     OW14157   7.563   2.053   7.921
 4087SOL    HW114158   7.637   2.023   7.974
 4087SOL    HW214159   7.504   1.978   7.919
 4088SOL     OW14160  10.340   7.692  11.590
 4088SOL    HW114161  10.330   7.695  11.686
 4088SOL    HW214162  10.405   7.624  11.575
 4089SOL     OW14163   6.533   9.618   5.412
 4089SOL    HW114164   6.590   9.542   5.403
 4089SOL    HW214165   6.450   9.581   5.442
 4090SOL     OW14166  12.711   3.704   1.675
 4090SOL    HW114167  12.779   3.689   1.609
 4090SOL    HW214168  12.629   3.706   1.625
 4091SOL     OW14169  10.516   1.357  13.638
 4091SOL    HW114170  10.425   1.331  13.656
 4091SOL    HW214171  10.548   1.389  13.722
 4092SOL     OW14172  14.763  14.238   2.887
 4092SOL    HW114173  14.842  14.195   2.852
 4092SOL    HW214174  14.735  14.297   2.818
 4093SOL     OW14175   4.031  11.436  10.914
 4093SOL    HW114176   3.998  11.364  10.861
 4093SOL    HW214177   4.117  11.455  10.878
 4094SOL     OW14178  10.085   5.623   6.349
 4094SOL    HW114179  10.179   5.641   6.341
 4094SOL    HW214180  10.056   5.680   6.420
 4095SOL     OW14181  11.092   5.096   7.486
 4095SOL    HW114182  11.111   5.010   7.449
 4095SOL    HW214183  11.164   5.112   7.547
 4096SOL     OW14184  10.996   1.544   6.666
 4096SOL    HW114185  11.015   1.452   6.648
 4096SOL    HW214186  10.937   1.570   6.596
 4097SOL     OW14187  13.497   6.518   0.783
 4097SOL    HW114188  13.573   6.461   0.779
 4097SOL    HW214189  13.427   6.463   0.818
 4098SOL     OW14190   2.847   2.572  14.210
 4098SOL    HW114191   2.899   2.635  14.160
 4098SOL    HW214192   2.764   2.567  14.163
 4099SOL     OW14193   1.140   2.892   6.467
 4099SOL    HW114194   1.104   2.827   6.407
 4099SOL    HW214195   1.209   2.935   6.416
 4100SOL     OW14196  13.486  14.392  10.173
 4100SOL    HW114197  13.475  14.386  10.268
 4100SOL    HW214198  13.413  14.448  10.145
 4101SOL     OW14199   1.748   8.555   1.331
 4101SOL    HW114200   1.728   8.638   1.288
 4101SOL    HW214201   1.679   8.495   1.300
 4102SOL     OW14202   4.545   4.668  13.507
 4102SOL    HW114203   4.499   4.701  13.584
 4102SOL    HW214204   4.477   4.661  13.440
 4103SOL     OW14205   2.229   0.868   5.627
 4103SOL    HW114206   2.294   0.929   5.593
 4103SOL    HW214207   2.150   0.887   5.576
 4104SOL     OW14208  10.045  10.017   2.315
 4104SOL    HW114209  10.122  10.009   2.372
 4104SOL    HW214210  10.049  10.106   2.280
 4105SOL     OW14211   6.423   5.563   4.541
 4105SOL    HW114212   6.477   5.642   4.542
 4105SOL    HW214213   6.406   5.547   4.448
 4106SOL     OW14214   2.359   4.610   1.385
 4106SOL    HW114215   2.325   4.628   1.298
 4106SOL    HW214216   2.421   4.682   1.402
 4107SOL     OW14217  10.805  14.580   8.805
 4107SOL    HW114218  10.778  14.626   8.884
 4107SOL    HW214219  10.790  14.487   8.824
 4108SOL     OW14220  11.414  11.682  13.476
 4108SOL    HW114221  11.321  11.668  13.461
 4108SOL    HW214222  11.425  11.674  13.571
 4109SOL     OW14223   1.662   8.662  14.174
 4109SOL    HW114224   1.666   8.752  14.143
 4109SOL    HW214225   1.694   8.610  14.100
 4110SOL     OW14226  13.377   4.177   7.207
 4110SOL    HW114227  13.460   4.131   7.201
 4110SOL    HW214228  13.398   4.259   7.251
 4111SOL     OW14229   6.546  11.074   5.691
 4111SOL    HW114230   6.478  11.136   5.717
 4111SOL    HW214231   6.627  11.124   5.691
 4112SOL     OW14232   9.060  10.536   4.989
 4112SOL    HW114233   9.116  10.540   4.911
 4112SOL    HW214234   9.057  10.626   5.021
 4113SOL     OW14235   9.535   0.965   5.462
 4113SOL    HW114236   9.519   0.945   5.554
 4113SOL    HW214237   9.629   0.954   5.450
 4114SOL     OW14238   6.539  14.336   9.658
 4114SOL    HW114239   6.486  14.286   9.719
 4114SOL    HW214240   6.624  14.345   9.702
 4115SOL     OW14241   5.628  10.777   9.786
 4115SOL    HW114242   5.674  10.853   9.822
 4115SOL    HW214243   5.568  10.813   9.722
 4116SOL     OW14244   7.504   8.965   1.523
 4116SOL    HW114245   7.411   8.952   1.503
 4116SOL    HW214246   7.540   9.004   1.444
 4117SOL     OW14247   3.226   0.151  10.115
 4117SOL    HW114248   3.316   0.148  10.147
 4117SOL    HW214249   3.194   0.061  10.126
 4118SOL     OW14250   3.773   1.974   5.906
 4118SOL    HW114251   3.854   1.931   5.932
 4118SOL    HW214252   3.709   1.904   5.899
 4119SOL     OW14253  13.607   5.911   3.942
 4119SOL    HW114254  13.517   5.923   3.973
 4119SOL    HW214255  13.599   5.893   3.849
 4120SOL     OW14256  11.763  13.023  14.820
 4120SOL    HW114257  11.850  12.992  14.794
 4120SOL    HW214258  11.748  13.101  14.766
 4121SOL     OW14259   3.033  10.583  11.234
 4121SOL    HW114260   2.949  10.625  11.212
 4121SOL    HW214261   3.036  10.505  11.179
 4122SOL     OW14262  10.413   1.186   4.319
 4122SOL    HW114263  10.428   1.173   4.225
 4122SOL    HW214264  10.500   1.184   4.357
 4123SOL     OW14265  10.702   1.763   9.161
 4123SOL    HW114266  10.611   1.784   9.137
 4123SOL    HW214267  10.734   1.710   9.088
 4124SOL     OW14268   8.521   9.395  14.124
 4124SOL    HW114269   8.572   9.416  14.203
 4124SOL    HW214270   8.451   9.460  14.122
 4125SOL     OW14271   3.558  12.560   6.845
 4125SOL    HW114272   3.534  12.547   6.936
 4125SOL    HW214273   3.567  12.472   6.809
 4126SOL     OW14274   3.389  11.004   8.648
 4126SOL    HW114275   3.427  10.958   8.572
 4126SOL    HW214276   3.300  10.971   8.654
 4127SOL     OW14277   4.481  12.935   7.830
 4127SOL    HW114278   4.559  12.885   7.806
 4127SOL    HW214279   4.408  12.887   7.790
 4128SOL     OW14280   6.342  13.186   3.570
 4128SOL    HW114281   6.295  13.267   3.589
 4128SOL    HW214282   6.306  13.122   3.631
 4129SOL     OW14283   5.139  13.957   4.070
 4129SOL    HW114284   5.178  13.982   4.154
 4129SOL    HW214285   5.190  13.881   4.041
 4130SOL     OW14286   2.184   7.062  13.686
 4130SOL    HW114287   2.166   6.972  13.712
 4130SOL    HW214288   2.122   7.080  13.616
 4131SOL     OW14289   2.947   0.027   8.156
 4131SOL    HW114290   2.993   0.088   8.098
 4131SOL    HW214291   2.927  14.824   8.100
 4132SOL     OW14292   9.306   7.468   1.693
 4132SOL    HW114293   9.289   7.388   1.641
 4132SOL    HW214294   9.379   7.444   1.749
 4133SOL     OW14295   2.064  11.510  10.164
 4133SOL    HW114296   2.160  11.513  10.163
 4133SOL    HW214297   2.039  11.524  10.073
 4134SOL     OW14298   6.188   9.839   9.451
 4134SOL    HW114299   6.144   9.922   9.470
 4134SOL    HW214300   6.117   9.776   9.443
 4135SOL     OW14301   6.687  12.003   9.122
 4135SOL    HW114302   6.695  12.021   9.028
 4135SOL    HW214303   6.736  12.074   9.164
 4136SOL     OW14304   7.695  13.582   9.575
 4136SOL    HW114305   7.601  13.564   9.569
 4136SOL    HW214306   7.735  13.497   9.588
 4137SOL     OW14307   8.142  12.055   8.370
 4137SOL    HW114308   8.214  12.032   8.312
 4137SOL    HW214309   8.089  12.118   8.320
 4138SOL     OW14310  12.477   4.899   6.802
 4138SOL    HW114311  12.491   4.897   6.897
 4138SOL    HW214312  12.500   4.811   6.773
 4139SOL     OW14313  11.359   6.045   4.562
 4139SOL    HW114314  11.359   5.964   4.511
 4139SOL    HW214315  11.365   6.016   4.653
 4140SOL     OW14316   7.773  14.419   1.211
 4140SOL    HW114317   7.794  14.337   1.254
 4140SOL    HW214318   7.703  14.457   1.264
 4141SOL     OW14319  12.192   9.200   3.310
 4141SOL    HW114320  12.237   9.241   3.235
 4141SOL    HW214321  12.257   9.201   3.380
 4142SOL     OW14322  13.905   3.468   1.782
 4142SOL    HW114323  13.986   3.418   1.777
 4142SOL    HW214324  13.932   3.559   1.765
 4143SOL     OW14325  10.547   6.349   0.508
 4143SOL    HW114326  10.466   6.331   0.556
 4143SOL    HW214327  10.613   6.296   0.553
 4144SOL     OW14328  13.993  12.339  10.375
 4144SOL    HW114329  13.919  12.380  10.420
 4144SOL    HW214330  14.058  12.325  10.443
 4145SOL     OW14331   4.614   2.243   7.176
 4145SOL    HW114332   4.613   2.148   7.162
 4145SOL    HW214333   4.580   2.254   7.265
 4146SOL     OW14334   3.431   3.483   6.021
 4146SOL    HW114335   3.480   3.455   6.098
 4146SOL    HW214336   3.371   3.411   6.003
 4147SOL     OW14337   8.309   3.144  10.218
 4147SOL    HW114338   8.338   3.223  10.174
 4147SOL    HW214339   8.221   3.165  10.250
 4148SOL     OW14340  13.028   4.683  11.759
 4148SOL    HW114341  13.107   4.636  11.733
 4148SOL    HW214342  13.060   4.762  11.803
 4149SOL     OW14343   8.023   5.111  12.829
 4149SOL    HW114344   8.098   5.072  12.874
 4149SOL    HW214345   8.040   5.096  12.736
 4150SOL     OW14346   9.796   6.068   4.898
 4150SOL    HW114347   9.719   6.011   4.891
 4150SOL    HW214348   9.859   6.017   4.950
 4151SOL     OW14349   8.985   2.868   7.731
 4151SOL    HW114350   8.921   2.814   7.776
 4151SOL    HW214351   9.065   2.816   7.730
 4152SOL     OW14352  14.854   4.729   1.982
 4152SOL    HW114353  14.862   4.688   2.068
 4152SOL    HW214354   0.064   4.709   1.938
 4153SOL     OW14355  13.651   4.587   8.727
 4153SOL    HW114356  13.572   4.628   8.690
 4153SOL    HW214357  13.659   4.504   8.680
 4154SOL     OW14358  13.228   4.916  10.945
 4154SOL    HW114359  13.176   4.880  11.017
 4154SOL    HW214360  13.319   4.899  10.970
 4155SOL     OW14361   7.985   4.205   3.241
 4155SOL    HW114362   8.034   4.256   3.305
 4155SOL    HW214363   8.004   4.247   3.157
 4156SOL     OW14364  11.255   6.361   0.237
 4156SOL    HW114365  11.175   6.385   0.283
 4156SOL    HW214366  11.267   6.268   0.256
 4157SOL     OW14367   6.583   7.839   9.535
 4157SOL    HW114368   6.646   7.816   9.602
 4157SOL    HW214369   6.532   7.759   9.521
 4158SOL     OW14370  14.871  14.132   1.563
 4158SOL    HW114371   0.089  14.141   1.531
 4158SOL    HW214372  14.850  14.218   1.601
 4159SOL     OW14373   3.952   0.952   5.094
 4159SOL    HW114374   3.905   0.887   5.146
 4159SOL    HW214375   3.885   0.991   5.037
 4160SOL     OW14376  12.627  10.041   9.145
 4160SOL    HW114377  12.562  10.004   9.086
 4160SOL    HW214378  12.606  10.005   9.231
 4161SOL     OW14379  13.489   5.423   0.515
 4161SOL    HW114380  13.487   5.358   0.585
 4161SOL    HW214381  13.568   5.474   0.532
 4162SOL     OW14382   2.452  10.810   5.698
 4162SOL    HW114383   2.469  10.789   5.607
 4162SOL    HW214384   2.526  10.774   5.746
 4163SOL     OW14385  12.264   3.438  14.103
 4163SOL    HW114386  12.215   3.520  14.100
 4163SOL    HW214387  12.254   3.408  14.193
 4164SOL     OW14388   0.545   6.385   7.896
 4164SOL    HW114389   0.599   6.404   7.973
 4164SOL    HW214390   0.536   6.469   7.852
 4165SOL     OW14391   6.563  13.119   7.201
 4165SOL    HW114392   6.516  13.149   7.123
 4165SOL    HW214393   6.585  13.199   7.248
 4166SOL     OW14394  14.522   0.246  12.568
 4166SOL    HW114395  14.512   0.339  12.587
 4166SOL    HW214396  14.554   0.243  12.478
 4167SOL     OW14397   5.108   7.280   5.631
 4167SOL    HW114398   5.203   7.290   5.643
 4167SOL    HW214399   5.079   7.366   5.600
 4168SOL     OW14400   7.363  14.245   3.293
 4168SOL    HW114401   7.322  14.309   3.350
 4168SOL    HW214402   7.297  14.176   3.283
 4169SOL     OW14403   0.021   8.069   6.822
 4169SOL    HW114404  14.828   8.140   6.823
 4169SOL    HW214405   0.047   8.064   6.730
 4170SOL     OW14406   5.010   6.552   1.330
 4170SOL    HW114407   4.952   6.583   1.261
 4170SOL    HW214408   5.098   6.565   1.294
 4171SOL     OW14409  11.236   7.020   3.115
 4171SOL    HW114410  11.166   7.009   3.050
 4171SOL    HW214411  11.313   6.979   3.074
 4172SOL     OW14412   9.013   4.544   3.920
 4172SOL    HW114413   9.037   4.504   3.836
 4172SOL    HW214414   8.999   4.469   3.979
 4173SOL     OW14415  12.865   1.853   6.108
 4173SOL    HW114416  12.776   1.825   6.130
 4173SOL    HW214417  12.911   1.772   6.085
 4174SOL     OW14418   7.976  13.518  12.972
 4174SOL    HW114419   8.056  13.501  12.922
 4174SOL    HW214420   7.908  13.468  12.927
 4175SOL     OW14421  10.099  10.236   2.900
 4175SOL    HW114422  10.174  10.251   2.841
 4175SOL    HW214423  10.103  10.308   2.963
 4176SOL     OW14424  10.670   3.114  12.632
 4176SOL    HW114425  10.575   3.119  12.641
 4176SOL    HW214426  10.695   3.196  12.589
 4177SOL     OW14427   5.230   7.564  13.620
 4177SOL    HW114428   5.183   7.498  13.568
 4177SOL    HW214429   5.267   7.515  13.693
 4178SOL     OW14430   0.872   2.090  11.188
 4178SOL    HW114431   0.819   2.138  11.124
 4178SOL    HW214432   0.962   2.121  11.173
 4179SOL     OW14433   2.928   8.425   8.511
 4179SOL    HW114434   2.861   8.360   8.533
 4179SOL    HW214435   2.954   8.462   8.596
 4180SOL     OW14436   9.981  11.253   5.281
 4180SOL    HW114437  10.045  11.184   5.266
 4180SOL    HW214438   9.901  11.206   5.304
 4181SOL     OW14439  14.370  14.167   1.931
 4181SOL    HW114440  14.399  14.095   1.987
 4181SOL    HW214441  14.287  14.138   1.894
 4182SOL     OW14442   3.455   4.248   6.571
 4182SOL    HW114443   3.403   4.214   6.498
 4182SOL    HW214444   3.509   4.317   6.532
 4183SOL     OW14445  13.943   3.723   4.432
 4183SOL    HW114446  14.026   3.769   4.422
 4183SOL    HW214447  13.932   3.675   4.350
 4184SOL     OW14448  12.725   1.321   9.035
 4184SOL    HW114449  12.789   1.381   9.074
 4184SOL    HW214450  12.641   1.363   9.050
 4185SOL     OW14451  12.085   5.348   0.370
 4185SOL    HW114452  12.070   5.441   0.352
 4185SOL    HW214453  12.176   5.344   0.399
 4186SOL     OW14454   3.103  13.016   0.323
 4186SOL    HW114455   3.166  12.960   0.278
 4186SOL    HW214456   3.074  13.078   0.256
 4187SOL     OW14457   6.241  11.129  10.083
 4187SOL    HW114458   6.274  11.043  10.110
 4187SOL    HW214459   6.301  11.156  10.013
 4188SOL     OW14460   1.992   0.026   9.038
 4188SOL    HW114461   1.975   0.120   9.034
 4188SOL    HW214462   2.081   0.020   9.073
 4189SOL     OW14463   2.111  11.237   7.573
 4189SOL    HW114464   2.129  11.145   7.553
 4189SOL    HW214465   2.017  11.246   7.561
 4190SOL     OW14466   5.446   0.414  14.540
 4190SOL    HW114467   5.421   0.324  14.562
 4190SOL    HW214468   5.511   0.438  14.607
 4191SOL     OW14469   1.177   8.304  10.298
 4191SOL    HW114470   1.090   8.264  10.299
 4191SOL    HW214471   1.183   8.350  10.381
 4192SOL     OW14472  14.855   9.377   1.374
 4192SOL    HW114473  14.869   9.407   1.284
 4192SOL    HW214474  14.831   9.456   1.422
 4193SOL     OW14475  11.257  12.557   0.840
 4193SOL    HW114476  11.336  12.573   0.891
 4193SOL    HW214477  11.225  12.472   0.872
 4194SOL     OW14478   5.005  14.575  14.636
 4194SOL    HW114479   5.065  14.509  14.602
 4194SOL    HW214480   5.043  14.600  14.720
 4195SOL     OW14481  12.444   3.346   7.977
 4195SOL    HW114482  12.429   3.405   8.051
 4195SOL    HW214483  12.364   3.351   7.925
 4196SOL     OW14484  10.251   2.430   1.113
 4196SOL    HW114485  10.169   2.385   1.096
 4196SOL    HW214486  10.236   2.520   1.083
 4197SOL     OW14487   1.088  13.355  13.944
 4197SOL    HW114488   1.035  13.414  13.889
 4197SOL    HW214489   1.065  13.380  14.034
 4198SOL     OW14490   2.834   1.817   1.017
 4198SOL    HW114491   2.769   1.884   1.041
 4198SOL    HW214492   2.917   1.852   1.049
 4199SOL     OW14493   6.372  14.196  11.587
 4199SOL    HW114494   6.306  14.265  11.575
 4199SOL    HW214495   6.338  14.143  11.658
 4200SOL     OW14496  13.455   0.410   5.815
 4200SOL    HW114497  13.534   0.358   5.830
 4200SOL    HW214498  13.421   0.379   5.731
 4201SOL     OW14499   2.619  14.484   8.174
 4201SOL    HW114500   2.691  14.540   8.146
 4201SOL    HW214501   2.551  14.545   8.204
 4202SOL     OW14502   1.832   5.074   8.135
 4202SOL    HW114503   1.905   5.048   8.079
 4202SOL    HW214504   1.766   5.006   8.121
 4203SOL     OW14505  11.377   7.409   2.157
 4203SOL    HW114506  11.387   7.325   2.202
 4203SOL    HW214507  11.407   7.474   2.220
 4204SOL     OW14508  12.918   9.955   3.123
 4204SOL    HW114509  12.845   9.928   3.178
 4204SOL    HW214510  12.950   9.874   3.084
 4205SOL     OW14511   3.212  13.315   7.020
 4205SOL    HW114512   3.272  13.251   6.982
 4205SOL    HW214513   3.213  13.389   6.959
 4206SOL     OW14514   7.016  11.079   6.343
 4206SOL    HW114515   7.021  11.070   6.438
 4206SOL    HW214516   7.009  10.990   6.310
 4207SOL     OW14517   9.610   3.329   4.884
 4207SOL    HW114518   9.548   3.353   4.815
 4207SOL    HW214519   9.566   3.353   4.965
 4208SOL     OW14520   5.414   4.177   7.343
 4208SOL    HW114521   5.350   4.249   7.336
 4208SOL    HW214522   5.393   4.120   7.269
 4209SOL     OW14523  11.500   3.794   8.077
 4209SOL    HW114524  11.513   3.723   8.140
 4209SOL    HW214525  11.430   3.763   8.020
 4210SOL     OW14526   8.563   8.656   9.986
 4210SOL    HW114527   8.597   8.587   9.929
 4210SOL    HW214528   8.567   8.619  10.074
 4211SOL     OW14529  10.268  12.688  10.005
 4211SOL    HW114530  10.178  12.707   9.978
 4211SOL    HW214531  10.284  12.747  10.079
 4212SOL     OW14532  11.826   2.121  13.999
 4212SOL    HW114533  11.844   2.215  13.994
 4212SOL    HW214534  11.741   2.111  13.958
 4213SOL     OW14535   7.035   4.975  14.123
 4213SOL    HW114536   6.982   4.901  14.154
 4213SOL    HW214537   7.113   4.973  14.178
 4214SOL     OW14538   9.212  12.773   5.779
 4214SOL    HW114539   9.266  12.726   5.843
 4214SOL    HW214540   9.167  12.704   5.731
 4215SOL     OW14541  12.527   8.017  14.725
 4215SOL    HW114542  12.593   7.987  14.663
 4215SOL    HW214543  12.466   8.069  14.672
 4216SOL     OW14544   7.286   9.431  11.396
 4216SOL    HW114545   7.223   9.362  11.420
 4216SOL    HW214546   7.366   9.407  11.443
 4217SOL     OW14547   4.138   8.888   2.301
 4217SOL    HW114548   4.195   8.904   2.226
 4217SOL    HW214549   4.185   8.822   2.353
 4218SOL     OW14550   5.903   6.630   3.253
 4218SOL    HW114551   5.912   6.695   3.183
 4218SOL    HW214552   5.840   6.668   3.314
 4219SOL     OW14553  10.499   6.833   9.418
 4219SOL    HW114554  10.494   6.749   9.462
 4219SOL    HW214555  10.548   6.816   9.337
 4220SOL     OW14556   6.424   7.531   3.755
 4220SOL    HW114557   6.341   7.500   3.719
 4220SOL    HW214558   6.436   7.479   3.834
 4221SOL     OW14559   9.426  13.307   1.652
 4221SOL    HW114560   9.372  13.336   1.725
 4221SOL    HW214561   9.482  13.383   1.632
 4222SOL     OW14562   1.202   0.201  11.858
 4222SOL    HW114563   1.146   0.279  11.867
 4222SOL    HW214564   1.202   0.161  11.945
 4223SOL     OW14565   3.078  12.913   3.178
 4223SOL    HW114566   3.034  12.867   3.250
 4223SOL    HW214567   3.152  12.957   3.220
 4224SOL     OW14568  13.963   4.749   7.554
 4224SOL    HW114569  13.998   4.833   7.583
 4224SOL    HW214570  13.994   4.687   7.619
 4225SOL     OW14571   1.502   2.801   3.205
 4225SOL    HW114572   1.561   2.773   3.134
 4225SOL    HW214573   1.416   2.767   3.179
 4226SOL     OW14574  13.084   8.218  13.975
 4226SOL    HW114575  13.113   8.162  13.903
 4226SOL    HW214576  13.035   8.159  14.032
 4227SOL     OW14577   2.269   4.091   0.065
 4227SOL    HW114578   2.189   4.093   0.014
 4227SOL    HW214579   2.240   4.081   0.156
 4228SOL     OW14580   5.658   3.006  14.497
 4228SOL    HW114581   5.605   3.035  14.423
 4228SOL    HW214582   5.734   2.964  14.457
 4229SOL     OW14583  10.430   2.625  11.761
 4229SOL    HW114584  10.490   2.559  11.725
 4229SOL    HW214585  10.470   2.650  11.845
 4230SOL     OW14586   5.656   8.992   1.425
 4230SOL    HW114587   5.660   8.950   1.511
 4230SOL    HW214588   5.716   9.067   1.431
 4231SOL     OW14589   4.074   7.343   6.259
 4231SOL    HW114590   4.034   7.353   6.345
 4231SOL    HW214591   4.033   7.411   6.206
 4232SOL     OW14592   8.236   9.685  10.167
 4232SOL    HW114593   8.289   9.697  10.089
 4232SOL    HW214594   8.171   9.755  10.163
 4233SOL     OW14595   3.868   4.371   7.959
 4233SOL    HW114596   3.855   4.451   7.907
 4233SOL    HW214597   3.806   4.379   8.032
 4234SOL     OW14598   1.890   9.021  11.974
 4234SOL    HW114599   1.818   8.958  11.964
 4234SOL    HW214600   1.900   9.030  12.069
 4235SOL     OW14601  10.135  14.097   8.952
 4235SOL    HW114602  10.106  14.088   8.861
 4235SOL    HW214603  10.174  14.012   8.974
 4236SOL     OW14604   8.824   2.103   9.576
 4236SOL    HW114605   8.847   2.055   9.496
 4236SOL    HW214606   8.747   2.058   9.610
 4237SOL     OW14607   3.472   6.680   8.332
 4237SOL    HW114608   3.419   6.740   8.281
 4237SOL    HW214609   3.560   6.718   8.331
 4238SOL     OW14610  13.289   5.682   4.355
 4238SOL    HW114611  13.365   5.629   4.381
 4238SOL    HW214612  13.326   5.750   4.300
 4239SOL     OW14613  13.405   9.850   1.722
 4239SOL    HW114614  13.326   9.881   1.677
 4239SOL    HW214615  13.393   9.755   1.729
 4240SOL     OW14616   5.822   7.351  14.314
 4240SOL    HW114617   5.749   7.392  14.360
 4240SOL    HW214618   5.783   7.276  14.268
 4241SOL     OW14619   1.516   9.715   4.390
 4241SOL    HW114620   1.486   9.724   4.299
 4241SOL    HW214621   1.595   9.662   4.384
 4242SOL     OW14622   9.559  13.613  11.696
 4242SOL    HW114623   9.566  13.522  11.722
 4242SOL    HW214624   9.495  13.651  11.756
 4243SOL     OW14625   4.385   2.575  12.637
 4243SOL    HW114626   4.393   2.628  12.558
 4243SOL    HW214627   4.427   2.628  12.705
 4244SOL     OW14628   4.295   2.499   7.382
 4244SOL    HW114629   4.327   2.503   7.472
 4244SOL    HW214630   4.373   2.511   7.329
 4245SOL     OW14631  13.045  13.251   6.573
 4245SOL    HW114632  13.090  13.301   6.641
 4245SOL    HW214633  12.975  13.204   6.620
 4246SOL     OW14634   8.884   3.275  10.650
 4246SOL    HW114635   8.914   3.185  10.666
 4246SOL    HW214636   8.942   3.308  10.582
 4247SOL     OW14637   6.298   3.950   7.243
 4247SOL    HW114638   6.309   4.025   7.302
 4247SOL    HW214639   6.385   3.934   7.207
 4248SOL     OW14640   7.265   8.191   9.566
 4248SOL    HW114641   7.193   8.215   9.506
 4248SOL    HW214642   7.331   8.259   9.551
 4249SOL     OW14643   0.429  10.371   9.152
 4249SOL    HW114644   0.350  10.338   9.194
 4249SOL    HW214645   0.494  10.373   9.221
 4250SOL     OW14646  11.114   3.236  11.872
 4250SOL    HW114647  11.030   3.246  11.917
 4250SOL    HW214648  11.175   3.210  11.941
 4251SOL     OW14649  12.677   6.932   9.298
 4251SOL    HW114650  12.609   6.865   9.295
 4251SOL    HW214651  12.753   6.888   9.337
 4252SOL     OW14652  12.060  12.567   5.505
 4252SOL    HW114653  12.061  12.477   5.473
 4252SOL    HW214654  11.968  12.585   5.525
 4253SOL     OW14655   9.557   3.758  10.974
 4253SOL    HW114656   9.606   3.839  10.958
 4253SOL    HW214657   9.466   3.781  10.952
 4254SOL     OW14658   1.213   6.604   4.751
 4254SOL    HW114659   1.214   6.620   4.657
 4254SOL    HW214660   1.300   6.631   4.781
 4255SOL     OW14661   5.786  10.456   2.429
 4255SOL    HW114662   5.869  10.448   2.477
 4255SOL    HW214663   5.719  10.435   2.494
 4256SOL     OW14664  10.645   5.722  12.065
 4256SOL    HW114665  10.600   5.638  12.058
 4256SOL    HW214666  10.694   5.716  12.147
 4257SOL     OW14667   6.763   7.349   1.581
 4257SOL    HW114668   6.701   7.279   1.562
 4257SOL    HW214669   6.835   7.305   1.627
 4258SOL     OW14670   6.318  12.733  14.495
 4258SOL    HW114671   6.327  12.697  14.583
 4258SOL    HW214672   6.408  12.739  14.463
 4259SOL     OW14673   1.627  11.975   6.654
 4259SOL    HW114674   1.681  11.948   6.580
 4259SOL    HW214675   1.690  12.004   6.720
 4260SOL     OW14676  12.422   7.315  11.948
 4260SOL    HW114677  12.493   7.285  11.892
 4260SOL    HW214678  12.385   7.391  11.902
 4261SOL     OW14679   2.123   6.329   3.869
 4261SOL    HW114680   2.047   6.339   3.812
 4261SOL    HW214681   2.159   6.418   3.876
 4262SOL     OW14682   7.234  10.226   5.908
 4262SOL    HW114683   7.254  10.136   5.933
 4262SOL    HW214684   7.144  10.239   5.938
 4263SOL     OW14685   4.236  10.680   6.087
 4263SOL    HW114686   4.265  10.726   6.008
 4263SOL    HW214687   4.147  10.650   6.066
 4264SOL     OW14688   6.500  13.749  14.632
 4264SOL    HW114689   6.557  13.760  14.556
 4264SOL    HW214690   6.450  13.831  14.637
 4265SOL     OW14691   4.754   5.691   2.233
 4265SOL    HW114692   4.665   5.694   2.197
 4265SOL    HW214693   4.788   5.606   2.207
 4266SOL     OW14694   4.510  13.162  12.940
 4266SOL    HW114695   4.530  13.149  13.032
 4266SOL    HW214696   4.591  13.194  12.901
 4267SOL     OW14697   5.153   0.250   3.423
 4267SOL    HW114698   5.101   0.173   3.398
 4267SOL    HW214699   5.089   0.321   3.428
 4268SOL     OW14700  13.258  12.496  14.107
 4268SOL    HW114701  13.219  12.484  14.194
 4268SOL    HW214702  13.329  12.433  14.104
 4269SOL     OW14703  14.734   4.372   1.361
 4269SOL    HW114704  14.826   4.363   1.339
 4269SOL    HW214705  14.687   4.352   1.280
 4270SOL     OW14706  10.617  14.653   1.357
 4270SOL    HW114707  10.650  14.721   1.299
 4270SOL    HW214708  10.627  14.689   1.445
 4271SOL     OW14709  12.099   6.372   3.989
 4271SOL    HW114710  12.137   6.456   4.015
 4271SOL    HW214711  12.174   6.318   3.965
 4272SOL     OW14712  14.035   7.913   8.119
 4272SOL    HW114713  14.111   7.972   8.114
 4272SOL    HW214714  14.009   7.916   8.211
 4273SOL     OW14715   3.849   4.463  14.694
 4273SOL    HW114716   3.897   4.545  14.684
 4273SOL    HW214717   3.901   4.413  14.757
 4274SOL     OW14718  14.230  14.696   8.185
 4274SOL    HW114719  14.316  14.670   8.150
 4274SOL    HW214720  14.225  14.652   8.270
 4275SOL     OW14721   1.068   9.734  14.853
 4275SOL    HW114722   1.113   9.793  14.792
 4275SOL    HW214723   1.138   9.687   0.025
 4276SOL     OW14724  10.308   2.156  11.964
 4276SOL    HW114725  10.326   2.100  11.889
 4276SOL    HW214726  10.312   2.245  11.929
 4277SOL     OW14727   2.277  13.095   9.586
 4277SOL    HW114728   2.198  13.149   9.583
 4277SOL    HW214729   2.254  13.016   9.536
 4278SOL     OW14730   6.659   2.646   0.495
 4278SOL    HW114731   6.714   2.725   0.497
 4278SOL    HW214732   6.711   2.580   0.541
 4279SOL     OW14733  13.550  11.205   2.937
 4279SOL    HW114734  13.464  11.183   2.973
 4279SOL    HW214735  13.537  11.288   2.892
 4280SOL     OW14736   3.338  11.830   3.500
 4280SOL    HW114737   3.277  11.898   3.470
 4280SOL    HW214738   3.318  11.819   3.593
 4281SOL     OW14739   2.231  10.804  12.299
 4281SOL    HW114740   2.275  10.756  12.229
 4281SOL    HW214741   2.159  10.850  12.256
 4282SOL     OW14742   6.563   3.370   9.487
 4282SOL    HW114743   6.639   3.405   9.534
 4282SOL    HW214744   6.544   3.287   9.530
 4283SOL     OW14745  13.604   3.757   9.505
 4283SOL    HW114746  13.618   3.785   9.415
 4283SOL    HW214747  13.515   3.721   9.505
 4284SOL     OW14748   0.522  13.121  14.394
 4284SOL    HW114749   0.529  13.131  14.489
 4284SOL    HW214750   0.465  13.193  14.366
 4285SOL     OW14751   8.185  11.106   6.253
 4285SOL    HW114752   8.187  11.033   6.316
 4285SOL    HW214753   8.153  11.180   6.305
 4286SOL     OW14754   2.417   9.040   0.376
 4286SOL    HW114755   2.465   9.054   0.458
 4286SOL    HW214756   2.337   8.996   0.402
 4287SOL     OW14757   1.099  11.910  12.734
 4287SOL    HW114758   1.100  11.864  12.650
 4287SOL    HW214759   1.044  11.986  12.719
 4288SOL     OW14760   3.038   1.940   2.297
 4288SOL    HW114761   3.084   1.857   2.307
 4288SOL    HW214762   2.960   1.932   2.352
 4289SOL     OW14763   4.669   9.496   5.181
 4289SOL    HW114764   4.675   9.575   5.235
 4289SOL    HW214765   4.760   9.469   5.169
 4290SOL     OW14766  14.471   7.890   0.571
 4290SOL    HW114767  14.477   7.913   0.478
 4290SOL    HW214768  14.471   7.794   0.571
 4291SOL     OW14769  14.017   1.444   7.443
 4291SOL    HW114770  13.938   1.445   7.498
 4291SOL    HW214771  13.987   1.408   7.359
 4292SOL     OW14772   7.599   6.630   0.739
 4292SOL    HW114773   7.594   6.564   0.670
 4292SOL    HW214774   7.511   6.668   0.743
 4293SOL     OW14775  14.317   9.490   3.840
 4293SOL    HW114776  14.404   9.449   3.846
 4293SOL    HW214777  14.257   9.424   3.874
 4294SOL     OW14778  13.228   0.424   0.693
 4294SOL    HW114779  13.306   0.421   0.638
 4294SOL    HW214780  13.260   0.400   0.780
 4295SOL     OW14781  13.706   7.196   7.098
 4295SOL    HW114782  13.665   7.114   7.071
 4295SOL    HW214783  13.667   7.262   7.040
 4296SOL     OW14784  10.042  14.308   2.274
 4296SOL    HW114785  10.068  14.219   2.251
 4296SOL    HW214786  10.121  14.361   2.259
 4297SOL     OW14787   1.409   4.281   3.895
 4297SOL    HW114788   1.398   4.186   3.894
 4297SOL    HW214789   1.396   4.308   3.804
 4298SOL     OW14790   2.151   4.611   1.914
 4298SOL    HW114791   2.061   4.579   1.909
 4298SOL    HW214792   2.182   4.610   1.824
 4299SOL     OW14793   5.732   6.153   0.716
 4299SOL    HW114794   5.788   6.112   0.782
 4299SOL    HW214795   5.789   6.217   0.673
 4300SOL     OW14796   1.131  11.895   9.282
 4300SOL    HW114797   1.121  11.845   9.363
 4300SOL    HW214798   1.217  11.869   9.248
 4301SOL     OW14799   2.769  14.560  13.116
 4301SOL    HW114800   2.780  14.655  13.118
 4301SOL    HW214801   2.688  14.547  13.066
 4302SOL     OW14802  11.250  12.029  12.348
 4302SOL    HW114803  11.266  11.949  12.299
 4302SOL    HW214804  11.224  12.093  12.282
 4303SOL     OW14805   4.939   2.150   5.772
 4303SOL    HW114806   4.848   2.138   5.798
 4303SOL    HW214807   4.947   2.100   5.690
 4304SOL     OW14808   0.729   0.335  11.755
 4304SOL    HW114809   0.653   0.392  11.769
 4304SOL    HW214810   0.709   0.256  11.806
 4305SOL     OW14811   4.352   1.618  12.461
 4305SOL    HW114812   4.355   1.714  12.459
 4305SOL    HW214813   4.408   1.594  12.535
 4306SOL     OW14814   3.406  10.434   1.085
 4306SOL    HW114815   3.449  10.455   1.002
 4306SOL    HW214816   3.328  10.385   1.060
 4307SOL     OW14817  11.367   3.081   1.844
 4307SOL    HW114818  11.441   3.136   1.818
 4307SOL    HW214819  11.324   3.057   1.762
 4308SOL     OW14820   8.900  13.403   5.421
 4308SOL    HW114821   8.903  13.363   5.508
 4308SOL    HW214822   8.810  13.435   5.413
 4309SOL     OW14823  13.395   7.104  11.379
 4309SOL    HW114824  13.383   7.117  11.285
 4309SOL    HW214825  13.397   7.009  11.390
 4310SOL     OW14826  12.796   0.701   7.763
 4310SOL    HW114827  12.796   0.765   7.834
 4310SOL    HW214828  12.858   0.736   7.699
 4311SOL     OW14829   8.260   2.035  13.440
 4311SOL    HW114830   8.347   2.073  13.427
 4311SOL    HW214831   8.273   1.941  13.426
 4312SOL     OW14832   9.818   0.185  14.378
 4312SOL    HW114833   9.773   0.147  14.303
 4312SOL    HW214834   9.906   0.147  14.375
 4313SOL     OW14835   6.723   5.376   3.464
 4313SOL    HW114836   6.795   5.407   3.519
 4313SOL    HW214837   6.644   5.412   3.505
 4314SOL     OW14838   9.892   3.142  12.537
 4314SOL    HW114839   9.987   3.131  12.543
 4314SOL    HW214840   9.856   3.066  12.583
 4315SOL     OW14841   3.727  10.970   1.737
 4315SOL    HW114842   3.645  10.938   1.701
 4315SOL    HW214843   3.782  10.892   1.745
 4316SOL     OW14844  10.027   2.562   9.021
 4316SOL    HW114845  10.086   2.492   8.994
 4316SOL    HW214846   9.983   2.589   8.939
 4317SOL     OW14847  11.075   3.049   2.790
 4317SOL    HW114848  11.070   3.081   2.700
 4317SOL    HW214849  11.010   2.979   2.794
 4318SOL     OW14850  12.792  13.547   3.460
 4318SOL    HW114851  12.758  13.636   3.465
 4318SOL    HW214852  12.864  13.552   3.397
 4319SOL     OW14853  10.278   1.542   9.636
 4319SOL    HW114854  10.363   1.553   9.679
 4319SOL    HW214855  10.243   1.631   9.628
 4320SOL     OW14856   6.349   7.173  10.879
 4320SOL    HW114857   6.337   7.154  10.785
 4320SOL    HW214858   6.277   7.231  10.902
 4321SOL     OW14859   0.201   9.147  11.729
 4321SOL    HW114860   0.272   9.138  11.792
 4321SOL    HW214861   0.125   9.172  11.782
 4322SOL     OW14862   5.033  11.327  14.749
 4322SOL    HW114863   5.012  11.245  14.795
 4322SOL    HW214864   5.046  11.301  14.658
 4323SOL     OW14865   6.667   5.272  12.964
 4323SOL    HW114866   6.583   5.304  12.997
 4323SOL    HW214867   6.722   5.350  12.958
 4324SOL     OW14868   2.676   0.435  13.210
 4324SOL    HW114869   2.657   0.526  13.233
 4324SOL    HW214870   2.620   0.417  13.134
 4325SOL     OW14871   3.954   4.613  11.780
 4325SOL    HW114872   4.004   4.576  11.852
 4325SOL    HW214873   4.015   4.615  11.706
 4326SOL     OW14874  10.221   5.846   9.343
 4326SOL    HW114875  10.204   5.752   9.344
 4326SOL    HW214876  10.308   5.856   9.383
 4327SOL     OW14877  14.553   7.168   8.953
 4327SOL    HW114878  14.462   7.198   8.952
 4327SOL    HW214879  14.564   7.124   8.869
 4328SOL     OW14880  11.990   1.974   7.319
 4328SOL    HW114881  11.950   2.010   7.398
 4328SOL    HW214882  12.084   1.973   7.339
 4329SOL     OW14883   2.995   5.160   2.643
 4329SOL    HW114884   3.069   5.129   2.696
 4329SOL    HW214885   2.993   5.254   2.657
 4330SOL     OW14886  12.925   3.284  10.436
 4330SOL    HW114887  12.935   3.378  10.424
 4330SOL    HW214888  12.910   3.250  10.348
 4331SOL     OW14889   5.447  13.370   1.249
 4331SOL    HW114890   5.394  13.396   1.324
 4331SOL    HW214891   5.397  13.400   1.173
 4332SOL     OW14892   9.275  14.764  14.437
 4332SOL    HW114893   9.333  14.742  14.510
 4332SOL    HW214894   9.215  14.829  14.474
 4333SOL     OW14895  13.528   9.566   3.963
 4333SOL    HW114896  13.489   9.479   3.961
 4333SOL    HW214897  13.476   9.617   3.900
 4334SOL     OW14898   9.652  12.597   9.272
 4334SOL    HW114899   9.716  12.581   9.340
 4334SOL    HW214900   9.594  12.521   9.275
 4335SOL     OW14901   6.240   9.381  14.399
 4335SOL    HW114902   6.240   9.465  14.353
 4335SOL    HW214903   6.147   9.362  14.413
 4336SOL     OW14904   2.174   7.801  12.323
 4336SOL    HW114905   2.112   7.836  12.386
 4336SOL    HW214906   2.246   7.865  12.322
 4337SOL     OW14907  13.334  10.702  12.016
 4337SOL    HW114908  13.266  10.644  11.983
 4337SOL    HW214909  13.309  10.720  12.106
 4338SOL     OW14910  12.185  13.628   0.680
 4338SOL    HW114911  12.117  13.561   0.681
 4338SOL    HW214912  12.148  13.699   0.629
 4339SOL     OW14913  11.219  14.168   3.636
 4339SOL    HW114914  11.212  14.244   3.695
 4339SOL    HW214915  11.243  14.095   3.694
 4340SOL     OW14916   7.935   9.193   6.667
 4340SOL    HW114917   7.980   9.152   6.593
 4340SOL    HW214918   7.925   9.123   6.731
 4341SOL     OW14919   6.146   9.029  10.173
 4341SOL    HW114920   6.240   9.017  10.158
 4341SOL    HW214921   6.115   9.076  10.096
 4342SOL     OW14922  13.249   4.885   5.510
 4342SOL    HW114923  13.159   4.854   5.500
 4342SOL    HW214924  13.249   4.928   5.596
 4343SOL     OW14925  10.297  14.207   5.596
 4343SOL    HW114926  10.318  14.196   5.689
 4343SOL    HW214927  10.339  14.133   5.554
 4344SOL     OW14928  14.421   0.851   7.287
 4344SOL    HW114929  14.456   0.800   7.360
 4344SOL    HW214930  14.336   0.813   7.269
 4345SOL     OW14931   2.003   1.173   2.069
 4345SOL    HW114932   2.076   1.112   2.082
 4345SOL    HW214933   1.937   1.146   2.132
 4346SOL     OW14934   8.423   1.185   1.294
 4346SOL    HW114935   8.346   1.129   1.305
 4346SOL    HW214936   8.488   1.129   1.251
 4347SOL     OW14937  11.451   8.393  11.354
 4347SOL    HW114938  11.455   8.423  11.445
 4347SOL    HW214939  11.539   8.363  11.334
 4348SOL     OW14940   4.894   1.616   7.799
 4348SOL    HW114941   4.970   1.642   7.746
 4348SOL    HW214942   4.927   1.615   7.888
 4349SOL     OW14943   0.751  10.083   9.167
 4349SOL    HW114944   0.844  10.095   9.147
 4349SOL    HW214945   0.750  10.044   9.254
 4350SOL     OW14946   2.236   8.625  10.697
 4350SOL    HW114947   2.291   8.590  10.766
 4350SOL    HW214948   2.297   8.651  10.628
 4351SOL     OW14949  11.861   6.518   2.205
 4351SOL    HW114950  11.824   6.603   2.226
 4351SOL    HW214951  11.837   6.462   2.278
 4352SOL     OW14952   8.580   0.680   0.211
 4352SOL    HW114953   8.591   0.586   0.228
 4352SOL    HW214954   8.522   0.710   0.281
 4353SOL     OW14955   4.374   3.060  11.621
 4353SOL    HW114956   4.348   3.033  11.533
 4353SOL    HW214957   4.418   2.983  11.657
 4354SOL     OW14958  13.159   4.591  14.453
 4354SOL    HW114959  13.219   4.661  14.428
 4354SOL    HW214960  13.074   4.635  14.466
 4355SOL     OW14961   7.535   0.704   1.026
 4355SOL    HW114962   7.510   0.703   0.934
 4355SOL    HW214963   7.488   0.631   1.065
 4356SOL     OW14964  13.784   7.725   7.467
 4356SOL    HW114965  13.839   7.760   7.537
 4356SOL    HW214966  13.731   7.658   7.510
 4357SOL     OW14967   7.100  11.331   0.078
 4357SOL    HW114968   7.060  11.410   0.115
 4357SOL    HW214969   7.026  11.276   0.053
 4358SOL     OW14970   8.533   2.124  13.506
 4358SOL    HW114971   8.582   2.161  13.433
 4358SOL    HW214972   8.534   2.192  13.573
 4359SOL     OW14973  14.743   0.432   6.725
 4359SOL    HW114974  14.784   0.430   6.638
 4359SOL    HW214975  14.780   0.357   6.771
 4360SOL     OW14976   8.428  11.022   3.911
 4360SOL    HW114977   8.337  11.039   3.888
 4360SOL    HW214978   8.424  10.953   3.978
 4361SOL     OW14979   5.047   1.050   3.941
 4361SOL    HW114980   5.002   1.055   3.856
 4361SOL    HW214981   5.012   1.124   3.991
 4362SOL     OW14982   7.080   0.582  11.145
 4362SOL    HW114983   6.998   0.583  11.193
 4362SOL    HW214984   7.076   0.502  11.091
 4363SOL     OW14985   7.510  12.909   7.229
 4363SOL    HW114986   7.587  12.946   7.272
 4363SOL    HW214987   7.475  12.845   7.291
 4364SOL     OW14988   4.965  10.363  13.865
 4364SOL    HW114989   4.967  10.439  13.807
 4364SOL    HW214990   5.051  10.323  13.856
 4365SOL     OW14991   9.830  14.848   5.740
 4365SOL    HW114992   9.770  14.841   5.814
 4365SOL    HW214993   9.786  14.800   5.669
 4366SOL     OW14994   4.075   4.886   5.972
 4366SOL    HW114995   4.008   4.945   5.937
 4366SOL    HW214996   4.028   4.805   5.993
 4367SOL     OW14997   8.293   4.976   0.086
 4367SOL    HW114998   8.254   5.063   0.096
 4367SOL    HW214999   8.316   4.950   0.176
 4368SOL     OW15000  10.215   7.225   9.499
 4368SOL    HW115001  10.244   7.316   9.493
 4368SOL    HW215002  10.231   7.189   9.412
 4369SOL     OW15003  12.550   3.021   5.821
 4369SOL    HW115004  12.481   2.968   5.859
 4369SOL    HW215005  12.507   3.104   5.798
 4370SOL     OW15006   7.842   4.852  10.718
 4370SOL    HW115007   7.777   4.914  10.753
 4370SOL    HW215008   7.862   4.795  10.792
 4371SOL     OW15009   5.494  14.125   2.421
 4371SOL    HW115010   5.527  14.043   2.384
 4371SOL    HW215011   5.405  14.132   2.386
 4372SOL     OW15012   2.646  14.727   7.084
 4372SOL    HW115013   2.680  14.696   7.000
 4372SOL    HW215014   2.568  14.674   7.099
 4373SOL     OW15015   0.024  12.658   3.811
 4373SOL    HW115016  14.815  12.626   3.771
 4373SOL    HW215017   0.060  12.583   3.858
 4374SOL     OW15018   1.109   2.351   0.703
 4374SOL    HW115019   1.147   2.286   0.762
 4374SOL    HW215020   1.148   2.331   0.618
 4375SOL     OW15021  14.600  10.658   6.947
 4375SOL    HW115022  14.506  10.648   6.961
 4375SOL    HW215023  14.613  10.753   6.941
 4376SOL     OW15024   1.561   4.564   1.090
 4376SOL    HW115025   1.640   4.536   1.137
 4376SOL    HW215026   1.595   4.609   1.012
 4377SOL     OW15027   0.607   0.234  14.049
 4377SOL    HW115028   0.661   0.302  14.089
 4377SOL    HW215029   0.577   0.273  13.967
 4378SOL     OW15030   1.133   1.601   2.834
 4378SOL    HW115031   1.141   1.600   2.929
 4378SOL    HW215032   1.140   1.509   2.808
 4379SOL     OW15033  11.052   0.810  12.343
 4379SOL    HW115034  11.131   0.794  12.395
 4379SOL    HW215035  11.024   0.723  12.315
 4380SOL     OW15036  13.922   0.412   5.579
 4380SOL    HW115037  13.938   0.463   5.658
 4380SOL    HW215038  13.855   0.348   5.604
 4381SOL     OW15039  13.831   3.484   3.424
 4381SOL    HW115040  13.756   3.543   3.435
 4381SOL    HW215041  13.796   3.398   3.445
 4382SOL     OW15042  12.349   4.748  11.888
 4382SOL    HW115043  12.379   4.659  11.867
 4382SOL    HW215044  12.307   4.739  11.973
 4383SOL     OW15045   4.727   2.626   8.999
 4383SOL    HW115046   4.789   2.566   9.041
 4383SOL    HW215047   4.741   2.710   9.042
 4384SOL     OW15048   3.202  12.085   8.296
 4384SOL    HW115049   3.107  12.093   8.304
 4384SOL    HW215050   3.234  12.175   8.305
 4385SOL     OW15051   2.456   4.048   8.119
 4385SOL    HW115052   2.501   4.088   8.045
 4385SOL    HW215053   2.499   3.963   8.129
 4386SOL     OW15054   8.115   7.293   6.084
 4386SOL    HW115055   8.178   7.293   6.156
 4386SOL    HW215056   8.139   7.215   6.032
 4387SOL     OW15057   2.069  11.429  13.702
 4387SOL    HW115058   2.001  11.362  13.712
 4387SOL    HW215059   2.127  11.394  13.634
 4388SOL     OW15060   4.311   6.083   4.625
 4388SOL    HW115061   4.232   6.084   4.680
 4388SOL    HW215062   4.369   6.019   4.666
 4389SOL     OW15063   5.113   3.460   8.731
 4389SOL    HW115064   5.131   3.397   8.662
 4389SOL    HW215065   5.199   3.486   8.763
 4390SOL     OW15066   9.484  14.555   1.592
 4390SOL    HW115067   9.538  14.613   1.538
 4390SOL    HW215068   9.542  14.528   1.663
 4391SOL     OW15069  12.294  12.258  12.269
 4391SOL    HW115070  12.379  12.227  12.240
 4391SOL    HW215071  12.304  12.270  12.364
 4392SOL     OW15072   2.468  10.053  13.762
 4392SOL    HW115073   2.517   9.980  13.725
 4392SOL    HW215074   2.384  10.016  13.787
 4393SOL     OW15075   5.746   3.968   7.159
 4393SOL    HW115076   5.735   3.995   7.068
 4393SOL    HW215077   5.776   4.047   7.204
 4394SOL     OW15078   8.663   0.086  14.284
 4394SOL    HW115079   8.677   0.077  14.378
 4394SOL    HW215080   8.674  14.870  14.249
 4395SOL     OW15081   4.365   7.730   7.454
 4395SOL    HW115082   4.334   7.656   7.402
 4395SOL    HW215083   4.396   7.793   7.390
 4396SOL     OW15084   9.084   4.408   2.568
 4396SOL    HW115085   9.168   4.369   2.543
 4396SOL    HW215086   9.051   4.352   2.638
 4397SOL     OW15087  10.200   5.775   2.764
 4397SOL    HW115088  10.201   5.807   2.674
 4397SOL    HW215089  10.188   5.680   2.755
 4398SOL     OW15090  10.678   2.687   8.370
 4398SOL    HW115091  10.590   2.715   8.395
 4398SOL    HW215092  10.734   2.761   8.394
 4399SOL     OW15093  11.718  11.872  12.758
 4399SOL    HW115094  11.728  11.781  12.784
 4399SOL    HW215095  11.806  11.901  12.734
 4400SOL     OW15096   1.480   3.737   0.761
 4400SOL    HW115097   1.477   3.645   0.733
 4400SOL    HW215098   1.466   3.787   0.681
 4401SOL     OW15099  10.166  11.273   3.429
 4401SOL    HW115100  10.209  11.318   3.502
 4401SOL    HW215101  10.147  11.185   3.463
 4402SOL     OW15102   3.604   6.514   7.614
 4402SOL    HW115103   3.612   6.577   7.542
 4402SOL    HW215104   3.525   6.542   7.661
 4403SOL     OW15105   2.536   5.129   6.300
 4403SOL    HW115106   2.527   5.166   6.212
 4403SOL    HW215107   2.543   5.205   6.357
 4404SOL     OW15108   0.944   4.317  13.287
 4404SOL    HW115109   0.990   4.317  13.371
 4404SOL    HW215110   0.906   4.230  13.281
 4405SOL     OW15111   6.899   2.474   7.610
 4405SOL    HW115112   6.884   2.380   7.620
 4405SOL    HW215113   6.939   2.482   7.523
 4406SOL     OW15114   5.652   1.106  12.658
 4406SOL    HW115115   5.746   1.089  12.664
 4406SOL    HW215116   5.641   1.153  12.576
 4407SOL     OW15117   5.994   0.445  12.673
 4407SOL    HW115118   5.962   0.535  12.686
 4407SOL    HW215119   6.084   0.447  12.706
 4408SOL     OW15120   9.407   0.375   1.896
 4408SOL    HW115121   9.450   0.348   1.977
 4408SOL    HW215122   9.352   0.301   1.872
 4409SOL     OW15123  13.922   8.643   1.900
 4409SOL    HW115124  13.892   8.553   1.894
 4409SOL    HW215125  13.862   8.693   1.843
 4410SOL     OW15126  10.261  10.683  14.035
 4410SOL    HW115127  10.354  10.661  14.026
 4410SOL    HW215128  10.255  10.732  14.117
 4411SOL     OW15129   6.000   7.354   4.707
 4411SOL    HW115130   5.945   7.290   4.661
 4411SOL    HW215131   5.955   7.367   4.791
 4412SOL     OW15132   2.783  13.497  10.532
 4412SOL    HW115133   2.828  13.439  10.471
 4412SOL    HW215134   2.694  13.503  10.498
 4413SOL     OW15135  11.499  10.637   9.696
 4413SOL    HW115136  11.421  10.591   9.727
 4413SOL    HW215137  11.495  10.632   9.601
 4414SOL     OW15138   7.767   3.399  13.817
 4414SOL    HW115139   7.806   3.392  13.904
 4414SOL    HW215140   7.701   3.329  13.815
 4415SOL     OW15141   8.310  10.977  12.989
 4415SOL    HW115142   8.268  11.057  12.957
 4415SOL    HW215143   8.274  10.964  13.077
 4416SOL     OW15144   0.785   2.017   3.294
 4416SOL    HW115145   0.839   1.938   3.292
 4416SOL    HW215146   0.701   1.990   3.256
 4417SOL     OW15147  14.207   5.173   8.232
 4417SOL    HW115148  14.189   5.096   8.286
 4417SOL    HW215149  14.285   5.212   8.272
 4418SOL     OW15150   0.693   5.525   0.969
 4418SOL    HW115151   0.680   5.434   0.941
 4418SOL    HW215152   0.776   5.551   0.928
 4419SOL     OW15153   3.843   9.839   4.693
 4419SOL    HW115154   3.889   9.781   4.633
 4419SOL    HW215155   3.910   9.900   4.724
 4420SOL     OW15156  11.343  12.069  12.962
 4420SOL    HW115157  11.373  12.011  12.892
 4420SOL    HW215158  11.267  12.024  12.998
 4421SOL     OW15159  10.008  12.894   7.089
 4421SOL    HW115160   9.963  12.832   7.146
 4421SOL    HW215161  10.014  12.848   7.005
 4422SOL     OW15162  14.549  11.425  12.284
 4422SOL    HW115163  14.591  11.479  12.350
 4422SOL    HW215164  14.603  11.346  12.279
 4423SOL     OW15165  12.794  14.354   4.371
 4423SOL    HW115166  12.712  14.306   4.355
 4423SOL    HW215167  12.769  14.446   4.370
 4424SOL     OW15168   5.490  12.942  11.244
 4424SOL    HW115169   5.409  12.900  11.273
 4424SOL    HW215170   5.556  12.914  11.307
 4425SOL     OW15171   8.266   7.157   2.092
 4425SOL    HW115172   8.196   7.177   2.154
 4425SOL    HW215173   8.271   7.233   2.034
 4426SOL     OW15174  12.555   6.357   9.595
 4426SOL    HW115175  12.582   6.325   9.681
 4426SOL    HW215176  12.496   6.429   9.614
 4427SOL     OW15177   3.301  11.842  14.757
 4427SOL    HW115178   3.332  11.907  14.820
 4427SOL    HW215179   3.270  11.769  14.811
 4428SOL     OW15180   5.511   6.050  11.477
 4428SOL    HW115181   5.484   6.029  11.566
 4428SOL    HW215182   5.472   5.981  11.423
 4429SOL     OW15183  12.254   1.363  13.546
 4429SOL    HW115184  12.213   1.441  13.510
 4429SOL    HW215185  12.300   1.394  13.624
 4430SOL     OW15186  14.798   5.453   2.975
 4430SOL    HW115187  14.846   5.463   3.057
 4430SOL    HW215188  14.730   5.521   2.978
 4431SOL     OW15189   1.859   3.783   4.824
 4431SOL    HW115190   1.780   3.731   4.835
 4431SOL    HW215191   1.925   3.736   4.875
 4432SOL     OW15192   3.914   7.010   4.255
 4432SOL    HW115193   3.909   7.104   4.240
 4432SOL    HW215194   3.963   6.976   4.180
 4433SOL     OW15195   5.507   5.139   4.419
 4433SOL    HW115196   5.534   5.185   4.339
 4433SOL    HW215197   5.474   5.055   4.388
 4434SOL     OW15198  12.953   3.038  12.276
 4434SOL    HW115199  12.876   3.060  12.224
 4434SOL    HW215200  12.971   2.946  12.255
 4435SOL     OW15201  12.466  10.720   2.189
 4435SOL    HW115202  12.559  10.722   2.213
 4435SOL    HW215203  12.419  10.730   2.272
 4436SOL     OW15204  12.883  14.388   3.726
 4436SOL    HW115205  12.903  14.464   3.671
 4436SOL    HW215206  12.955  14.385   3.789
 4437SOL     OW15207  12.663  13.677   0.166
 4437SOL    HW115208  12.617  13.660   0.083
 4437SOL    HW215209  12.644  13.600   0.220
 4438SOL     OW15210   5.871  12.538   1.124
 4438SOL    HW115211   5.895  12.450   1.154
 4438SOL    HW215212   5.954  12.586   1.125
 4439SOL     OW15213   9.919   9.403   1.381
 4439SOL    HW115214   9.994   9.439   1.334
 4439SOL    HW215215   9.934   9.427   1.473
 4440SOL     OW15216   2.759  14.863  12.157
 4440SOL    HW115217   2.849   0.003  12.129
 4440SOL    HW215218   2.742  14.770  12.143
 4441SOL     OW15219   0.251   5.049  13.895
 4441SOL    HW115220   0.160   5.018  13.903
 4441SOL    HW215221   0.289   5.031  13.981
 4442SOL     OW15222   8.771   0.371  10.942
 4442SOL    HW115223   8.859   0.353  10.908
 4442SOL    HW215224   8.716   0.372  10.864
 4443SOL     OW15225   5.162   9.171   6.140
 4443SOL    HW115226   5.107   9.246   6.116
 4443SOL    HW215227   5.100   9.106   6.174
 4444SOL     OW15228   5.236   9.170  13.178
 4444SOL    HW115229   5.212   9.078  13.172
 4444SOL    HW215230   5.294   9.185  13.103
 4445SOL     OW15231  13.026  14.211  10.517
 4445SOL    HW115232  12.997  14.145  10.455
 4445SOL    HW215233  13.096  14.169  10.566
 4446SOL     OW15234   2.403   6.959  10.122
 4446SOL    HW115235   2.385   6.869  10.094
 4446SOL    HW215236   2.322   6.989  10.162
 4447SOL     OW15237  11.646  13.517   8.160
 4447SOL    HW115238  11.593  13.528   8.239
 4447SOL    HW215239  11.653  13.605   8.123
 4448SOL     OW15240   1.585  11.376   0.481
 4448SOL    HW115241   1.577  11.282   0.467
 4448SOL    HW215242   1.623  11.410   0.400
 4449SOL     OW15243   9.387   9.678  14.171
 4449SOL    HW115244   9.329   9.602  14.159
 4449SOL    HW215245   9.369   9.708  14.260
 4450SOL     OW15246   4.647   2.195  13.142
 4450SOL    HW115247   4.721   2.150  13.182
 4450SOL    HW215248   4.685   2.272  13.100
 4451SOL     OW15249  14.768   7.759   4.243
 4451SOL    HW115250  14.844   7.724   4.198
 4451SOL    HW215251  14.694   7.709   4.208
 4452SOL     OW15252   6.372   5.902   0.616
 4452SOL    HW115253   6.313   5.828   0.631
 4452SOL    HW215254   6.334   5.950   0.543
 4453SOL     OW15255   9.117   0.877   1.040
 4453SOL    HW115256   9.209   0.896   1.020
 4453SOL    HW215257   9.079   0.850   0.956
 4454SOL     OW15258   2.396   6.455   4.978
 4454SOL    HW115259   2.450   6.474   4.900
 4454SOL    HW215260   2.324   6.517   4.972
 4455SOL     OW15261   3.373  13.028  13.310
 4455SOL    HW115262   3.442  12.984  13.260
 4455SOL    HW215263   3.382  13.120  13.288
 4456SOL     OW15264   1.667  14.720   5.014
 4456SOL    HW115265   1.703  14.787   5.071
 4456SOL    HW215266   1.679  14.755   4.925
 4457SOL     OW15267   0.347  13.354  10.396
 4457SOL    HW115268   0.342  13.261  10.418
 4457SOL    HW215269   0.259  13.388  10.413
 4458SOL     OW15270   6.735  14.800  11.037
 4458SOL    HW115271   6.672  14.872  11.030
 4458SOL    HW215272   6.729  14.770  11.128
 4459SOL     OW15273   2.889  11.586   0.949
 4459SOL    HW115274   2.965  11.591   0.890
 4459SOL    HW215275   2.851  11.674   0.946
 4460SOL     OW15276   9.769   5.646   1.209
 4460SOL    HW115277   9.829   5.635   1.283
 4460SOL    HW215278   9.790   5.574   1.150
 4461SOL     OW15279   2.946   3.083  12.201
 4461SOL    HW115280   3.005   3.136  12.255
 4461SOL    HW215281   2.937   3.132  12.120
 4462SOL     OW15282   7.642   2.885  13.185
 4462SOL    HW115283   7.704   2.926  13.125
 4462SOL    HW215284   7.606   2.811  13.136
 4463SOL     OW15285  11.048   1.637   0.165
 4463SOL    HW115286  10.994   1.623   0.243
 4463SOL    HW215287  11.011   1.715   0.124
 4464SOL     OW15288   6.159   6.084  13.327
 4464SOL    HW115289   6.153   6.114  13.417
 4464SOL    HW215290   6.128   5.993  13.330
 4465SOL     OW15291  10.456   3.367  11.058
 4465SOL    HW115292  10.511   3.301  11.015
 4465SOL    HW215293  10.518   3.436  11.085
 4466SOL     OW15294   8.371   0.988   3.190
 4466SOL    HW115295   8.330   1.042   3.122
 4466SOL    HW215296   8.402   0.910   3.143
 4467SOL     OW15297   2.971  13.677   0.304
 4467SOL    HW115298   3.040  13.732   0.341
 4467SOL    HW215299   2.889  13.721   0.329
 4468SOL     OW15300   2.567   6.685   2.857
 4468SOL    HW115301   2.562   6.720   2.768
 4468SOL    HW215302   2.535   6.756   2.913
 4469SOL     OW15303   1.256   9.020   6.525
 4469SOL    HW115304   1.163   9.044   6.516
 4469SOL    HW215305   1.262   8.983   6.613
 4470SOL     OW15306   3.973  11.355   6.436
 4470SOL    HW115307   4.006  11.321   6.353
 4470SOL    HW215308   3.955  11.278   6.490
 4471SOL     OW15309   4.777   1.431   1.375
 4471SOL    HW115310   4.803   1.492   1.306
 4471SOL    HW215311   4.732   1.360   1.328
 4472SOL     OW15312   9.150   9.503  10.147
 4472SOL    HW115313   9.217   9.441  10.119
 4472SOL    HW215314   9.162   9.510  10.241
 4473SOL     OW15315   9.115  12.827   4.039
 4473SOL    HW115316   9.163  12.764   3.985
 4473SOL    HW215317   9.175  12.900   4.051
 4474SOL     OW15318   6.704   7.458  13.443
 4474SOL    HW115319   6.744   7.476  13.528
 4474SOL    HW215320   6.654   7.537  13.423
 4475SOL     OW15321   8.127  10.213   9.192
 4475SOL    HW115322   8.167  10.295   9.221
 4475SOL    HW215323   8.199  10.163   9.153
 4476SOL     OW15324  10.609   2.302  11.476
 4476SOL    HW115325  10.697   2.263  11.485
 4476SOL    HW215326  10.617   2.359  11.400
 4477SOL     OW15327   0.820   7.568  13.377
 4477SOL    HW115328   0.778   7.498  13.427
 4477SOL    HW215329   0.913   7.550  13.384
 4478SOL     OW15330   9.999  13.048   0.149
 4478SOL    HW115331   9.938  13.119   0.130
 4478SOL    HW215332   9.951  12.969   0.127
 4479SOL     OW15333   1.926   5.940  10.159
 4479SOL    HW115334   1.866   5.910  10.090
 4479SOL    HW215335   1.869   5.965  10.231
 4480SOL     OW15336   3.639  13.533   2.478
 4480SOL    HW115337   3.615  13.474   2.551
 4480SOL    HW215338   3.604  13.490   2.400
 4481SOL     OW15339   4.591   2.662   7.661
 4481SOL    HW115340   4.660   2.596   7.658
 4481SOL    HW215341   4.510   2.611   7.661
 4482SOL     OW15342   6.364   0.580   6.460
 4482SOL    HW115343   6.300   0.570   6.390
 4482SOL    HW215344   6.321   0.545   6.538
 4483SOL     OW15345   4.279   2.148   7.055
 4483SOL    HW115346   4.330   2.070   7.031
 4483SOL    HW215347   4.335   2.222   7.030
 4484SOL     OW15348  10.132   6.524  10.471
 4484SOL    HW115349  10.145   6.436  10.436
 4484SOL    HW215350  10.184   6.581  10.413
 4485SOL     OW15351   4.056  12.075   7.892
 4485SOL    HW115352   3.969  12.068   7.932
 4485SOL    HW215353   4.058  12.164   7.855
 4486SOL     OW15354  11.667   8.475  10.915
 4486SOL    HW115355  11.697   8.389  10.885
 4486SOL    HW215356  11.607   8.455  10.988
 4487SOL     OW15357   3.787  13.382   3.633
 4487SOL    HW115358   3.751  13.327   3.703
 4487SOL    HW215359   3.881  13.383   3.650
 4488SOL     OW15360  13.274   0.318   6.969
 4488SOL    HW115361  13.227   0.381   7.023
 4488SOL    HW215362  13.223   0.312   6.888
 4489SOL     OW15363   5.307  14.067   8.467
 4489SOL    HW115364   5.325  14.127   8.395
 4489SOL    HW215365   5.383  14.010   8.471
 4490SOL     OW15366   8.344   5.426   9.255
 4490SOL    HW115367   8.394   5.507   9.273
 4490SOL    HW215368   8.255   5.448   9.281
 4491SOL     OW15369   7.046  12.757   5.908
 4491SOL    HW115370   6.957  12.788   5.924
 4491SOL    HW215371   7.101  12.831   5.931
 4492SOL     OW15372   3.560   3.405   2.387
 4492SOL    HW115373   3.614   3.484   2.395
 4492SOL    HW215374   3.537   3.382   2.477
 4493SOL     OW15375   1.980  11.346   6.223
 4493SOL    HW115376   2.032  11.350   6.303
 4493SOL    HW215377   1.972  11.437   6.195
 4494SOL     OW15378   6.900  11.553   4.889
 4494SOL    HW115379   6.966  11.620   4.907
 4494SOL    HW215380   6.948  11.486   4.840
 4495SOL     OW15381   0.079   8.709  11.410
 4495SOL    HW115382   0.093   8.623  11.448
 4495SOL    HW215383   0.152   8.762  11.443
 4496SOL     OW15384   9.577   2.194   1.440
 4496SOL    HW115385   9.555   2.112   1.396
 4496SOL    HW215386   9.569   2.175   1.533
 4497SOL     OW15387  12.730  13.072  14.352
 4497SOL    HW115388  12.654  13.028  14.390
 4497SOL    HW215389  12.701  13.161  14.336
 4498SOL     OW15390   5.303  14.243   8.697
 4498SOL    HW115391   5.355  14.196   8.762
 4498SOL    HW215392   5.274  14.176   8.636
 4499SOL     OW15393  12.489   3.371   9.424
 4499SOL    HW115394  12.534   3.305   9.478
 4499SOL    HW215395  12.448   3.320   9.354
 4500SOL     OW15396  14.629   8.046  10.213
 4500SOL    HW115397  14.636   8.139  10.192
 4500SOL    HW215398  14.714   8.009  10.188
 4501SOL     OW15399   9.854   9.137  12.792
 4501SOL    HW115400   9.795   9.192  12.844
 4501SOL    HW215401   9.883   9.194  12.721
 4502SOL     OW15402  14.245   7.726   9.246
 4502SOL    HW115403  14.223   7.819   9.255
 4502SOL    HW215404  14.318   7.726   9.183
 4503SOL     OW15405   5.110   2.327   3.905
 4503SOL    HW115406   5.086   2.266   3.835
 4503SOL    HW215407   5.091   2.279   3.985
 4504SOL     OW15408   9.940   4.492   2.408
 4504SOL    HW115409   9.913   4.566   2.353
 4504SOL    HW215410  10.035   4.499   2.412
 4505SOL     OW15411   1.460   3.894  14.684
 4505SOL    HW115412   1.382   3.946  14.664
 4505SOL    HW215413   1.426   3.818  14.730
 4506SOL     OW15414  11.867   0.851  13.278
 4506SOL    HW115415  11.957   0.823  13.263
 4506SOL    HW215416  11.813   0.782  13.240
 4507SOL     OW15417   3.112   6.754  13.480
 4507SOL    HW115418   3.143   6.673  13.440
 4507SOL    HW215419   3.033   6.729  13.528
 4508SOL     OW15420   9.500  10.779   3.909
 4508SOL    HW115421   9.539  10.816   3.830
 4508SOL    HW215422   9.485  10.687   3.889
 4509SOL     OW15423   3.161   3.178   2.352
 4509SOL    HW115424   3.181   3.158   2.443
 4509SOL    HW215425   3.066   3.163   2.345
 4510SOL     OW15426  14.102   5.876  10.521
 4510SOL    HW115427  14.168   5.925  10.471
 4510SOL    HW215428  14.141   5.790  10.535
 4511SOL     OW15429  10.719  14.391   0.783
 4511SOL    HW115430  10.808  14.364   0.806
 4511SOL    HW215431  10.674  14.310   0.761
 4512SOL     OW15432   5.416   8.417  11.497
 4512SOL    HW115433   5.473   8.413  11.574
 4512SOL    HW215434   5.455   8.485  11.441
 4513SOL     OW15435   6.837  12.312   8.520
 4513SOL    HW115436   6.890  12.385   8.551
 4513SOL    HW215437   6.872  12.291   8.433
 4514SOL     OW15438   2.097   0.851  14.811
 4514SOL    HW115439   2.069   0.919  14.872
 4514SOL    HW215440   2.183   0.824  14.844
 4515SOL     OW15441   7.484  13.844   2.323
 4515SOL    HW115442   7.466  13.911   2.389
 4515SOL    HW215443   7.565  13.803   2.352
 4516SOL     OW15444   8.279  10.303   6.382
 4516SOL    HW115445   8.301  10.214   6.355
 4516SOL    HW215446   8.226  10.338   6.310
 4517SOL     OW15447  14.322  14.628  14.630
 4517SOL    HW115448  14.238  14.646  14.672
 4517SOL    HW215449  14.381  14.609  14.702
 4518SOL     OW15450  14.251   4.404   6.583
 4518SOL    HW115451  14.324   4.397   6.521
 4518SOL    HW215452  14.282   4.466   6.649
 4519SOL     OW15453   6.579   6.078   7.027
 4519SOL    HW115454   6.582   6.174   7.032
 4519SOL    HW215455   6.552   6.051   7.115
 4520SOL     OW15456   6.274   1.311   2.362
 4520SOL    HW115457   6.269   1.229   2.411
 4520SOL    HW215458   6.364   1.314   2.330
 4521SOL     OW15459   4.115   2.740   2.610
 4521SOL    HW115460   4.156   2.667   2.564
 4521SOL    HW215461   4.095   2.706   2.698
 4522SOL     OW15462  14.077  12.279  11.644
 4522SOL    HW115463  14.041  12.301  11.729
 4522SOL    HW215464  14.165  12.317  11.644
 4523SOL     OW15465   7.809  13.650  11.631
 4523SOL    HW115466   7.762  13.584  11.580
 4523SOL    HW215467   7.884  13.674  11.576
 4524SOL     OW15468  14.865   0.844   6.987
 4524SOL    HW115469   0.077   0.856   7.031
 4524SOL    HW215470   0.016   0.803   6.904
 4525SOL     OW15471   4.709   1.860   7.071
 4525SOL    HW115472   4.750   1.916   7.136
 4525SOL    HW215473   4.723   1.771   7.103
 4526SOL     OW15474  13.644   7.341   9.997
 4526SOL    HW115475  13.571   7.376  10.048
 4526SOL    HW215476  13.632   7.377   9.910
 4527SOL     OW15477  14.548   8.753   2.115
 4527SOL    HW115478  14.631   8.729   2.074
 4527SOL    HW215479  14.539   8.693   2.190
 4528SOL     OW15480  14.281   4.601   5.093
 4528SOL    HW115481  14.234   4.521   5.114
 4528SOL    HW215482  14.217   4.671   5.107
 4529SOL     OW15483   4.818  14.138   0.432
 4529SOL    HW115484   4.869  14.218   0.422
 4529SOL    HW215485   4.883  14.070   0.452
 4530SOL     OW15486   2.094   6.500   8.052
 4530SOL    HW115487   2.174   6.447   8.057
 4530SOL    HW215488   2.066   6.493   7.961
 4531SOL     OW15489   3.930   3.113   5.903
 4531SOL    HW115490   3.907   3.020   5.897
 4531SOL    HW215491   3.978   3.121   5.985
 4532SOL     OW15492   5.139  12.230   0.210
 4532SOL    HW115493   5.208  12.201   0.150
 4532SOL    HW215494   5.165  12.197   0.296
 4533SOL     OW15495  14.221   4.606   1.993
 4533SOL    HW115496  14.305   4.560   1.987
 4533SOL    HW215497  14.204   4.612   2.087
 4534SOL     OW15498   5.009  14.601   1.184
 4534SOL    HW115499   5.096  14.603   1.222
 4534SOL    HW215500   4.980  14.510   1.193
 4535SOL     OW15501  14.352   5.261   7.631
 4535SOL    HW115502  14.312   5.184   7.590
 4535SOL    HW215503  14.280   5.304   7.677
 4536SOL     OW15504   5.207   3.669   0.836
 4536SOL    HW115505   5.160   3.687   0.755
 4536SOL    HW215506   5.198   3.749   0.888
 4537SOL     OW15507   1.830  10.018   4.072
 4537SOL    HW115508   1.880   9.977   4.142
 4537SOL    HW215509   1.803   9.946   4.016
 4538SOL     OW15510   4.831   6.532   9.735
 4538SOL    HW115511   4.773   6.457   9.747
 4538SOL    HW215512   4.776   6.598   9.691
 4539SOL     OW15513   8.655   1.913   4.070
 4539SOL    HW115514   8.661   1.860   3.990
 4539SOL    HW215515   8.587   1.977   4.050
 4540SOL     OW15516   6.943  14.149  14.024
 4540SOL    HW115517   6.905  14.062  14.039
 4540SOL    HW215518   6.949  14.157  13.929
 4541SOL     OW15519  14.763   3.720  13.441
 4541SOL    HW115520  14.759   3.644  13.383
 4541SOL    HW215521  14.685   3.771  13.418
 4542SOL     OW15522  13.453   8.908  12.566
 4542SOL    HW115523  13.360   8.925  12.551
 4542SOL    HW215524  13.455   8.856  12.646
 4543SOL     OW15525   6.126   7.959   4.855
 4543SOL    HW115526   6.193   7.894   4.833
 4543SOL    HW215527   6.043   7.914   4.839
 4544SOL     OW15528   1.059   6.300  12.126
 4544SOL    HW115529   1.138   6.339  12.087
 4544SOL    HW215530   1.092   6.245  12.197
 4545SOL     OW15531   1.679  11.400   6.817
 4545SOL    HW115532   1.656  11.493   6.816
 4545SOL    HW215533   1.696  11.378   6.726
 4546SOL     OW15534   6.003  13.733   5.475
 4546SOL    HW115535   6.098  13.722   5.484
 4546SOL    HW215536   5.971  13.740   5.565
 4547SOL     OW15537   3.274   9.468  12.258
 4547SOL    HW115538   3.181   9.472  12.281
 4547SOL    HW215539   3.309   9.552  12.289
 4548SOL     OW15540   5.825   2.838   8.427
 4548SOL    HW115541   5.833   2.913   8.368
 4548SOL    HW215542   5.895   2.779   8.399
 4549SOL     OW15543  11.573  10.930   7.155
 4549SOL    HW115544  11.617  10.849   7.181
 4549SOL    HW215545  11.530  10.960   7.235
 4550SOL     OW15546   8.989   1.652  12.918
 4550SOL    HW115547   8.913   1.693  12.958
 4550SOL    HW215548   9.031   1.723  12.869
 4551SOL     OW15549   2.930   3.166   9.074
 4551SOL    HW115550   2.848   3.145   9.119
 4551SOL    HW215551   2.999   3.135   9.133
 4552SOL     OW15552   7.230  12.376  13.247
 4552SOL    HW115553   7.269  12.388  13.160
 4552SOL    HW215554   7.232  12.282  13.261
 4553SOL     OW15555  10.297  12.848  12.127
 4553SOL    HW115556  10.311  12.845  12.221
 4553SOL    HW215557  10.379  12.819  12.089
 4554SOL     OW15558   2.100   0.860   9.864
 4554SOL    HW115559   2.182   0.882   9.819
 4554SOL    HW215560   2.060   0.792   9.811
 4555SOL     OW15561   9.930   0.497   4.409
 4555SOL    HW115562   9.899   0.415   4.448
 4555SOL    HW215563  10.022   0.479   4.387
 4556SOL     OW15564   6.654   2.192   0.636
 4556SOL    HW115565   6.673   2.274   0.590
 4556SOL    HW215566   6.718   2.130   0.602
 4557SOL     OW15567   1.481   5.681  13.387
 4557SOL    HW115568   1.510   5.682  13.479
 4557SOL    HW215569   1.513   5.763  13.351
 4558SOL     OW15570  10.340   2.275  11.484
 4558SOL    HW115571  10.428   2.312  11.485
 4558SOL    HW215572  10.342   2.210  11.413
 4559SOL     OW15573  12.522   4.842   5.847
 4559SOL    HW115574  12.520   4.937   5.853
 4559SOL    HW215575  12.435   4.818   5.814
 4560SOL     OW15576   6.548   4.031   8.868
 4560SOL    HW115577   6.456   4.055   8.858
 4560SOL    HW215578   6.587   4.048   8.782
 4561SOL     OW15579   7.076   3.800   3.485
 4561SOL    HW115580   7.105   3.861   3.553
 4561SOL    HW215581   7.077   3.714   3.527
 4562SOL     OW15582   7.537   6.582  12.075
 4562SOL    HW115583   7.507   6.620  11.992
 4562SOL    HW215584   7.552   6.658  12.131
 4563SOL     OW15585  12.646   6.907   5.359
 4563SOL    HW115586  12.678   6.818   5.345
 4563SOL    HW215587  12.721   6.956   5.392
 4564SOL     OW15588  11.820   4.920   6.685
 4564SOL    HW115589  11.805   4.956   6.772
 4564SOL    HW215590  11.915   4.908   6.680
 4565SOL     OW15591   6.131   6.675  12.110
 4565SOL    HW115592   6.182   6.614  12.057
 4565SOL    HW215593   6.104   6.624  12.186
 4566SOL     OW15594   1.265   3.479  11.153
 4566SOL    HW115595   1.236   3.403  11.103
 4566SOL    HW215596   1.185   3.514  11.192
 4567SOL     OW15597   1.787  10.736  14.252
 4567SOL    HW115598   1.711  10.701  14.298
 4567SOL    HW215599   1.764  10.827  14.235
 4568SOL     OW15600   9.619   5.348   7.570
 4568SOL    HW115601   9.581   5.385   7.491
 4568SOL    HW215602   9.667   5.421   7.610
 4569SOL     OW15603   7.676   2.635   5.232
 4569SOL    HW115604   7.631   2.687   5.165
 4569SOL    HW215605   7.767   2.632   5.202
 4570SOL     OW15606   4.768   5.316   5.263
 4570SOL    HW115607   4.836   5.287   5.323
 4570SOL    HW215608   4.757   5.409   5.282
 4571SOL     OW15609   8.807  10.236  13.421
 4571SOL    HW115610   8.804  10.312  13.363
 4571SOL    HW215611   8.816  10.161  13.363
 4572SOL     OW15612   1.577  10.027   9.443
 4572SOL    HW115613   1.667  10.038   9.413
 4572SOL    HW215614   1.569  10.089   9.516
 4573SOL     OW15615  14.641   2.421   2.834
 4573SOL    HW115616  14.559   2.379   2.860
 4573SOL    HW215617  14.641   2.504   2.881
 4574SOL     OW15618   8.798   8.985  12.005
 4574SOL    HW115619   8.842   9.049  11.950
 4574SOL    HW215620   8.863   8.916  12.018
 4575SOL     OW15621   0.044   4.942   9.200
 4575SOL    HW115622   0.012   4.996   9.128
 4575SOL    HW215623   0.138   4.934   9.183
 4576SOL     OW15624  13.751   7.432   5.259
 4576SOL    HW115625  13.842   7.445   5.284
 4576SOL    HW215626  13.702   7.495   5.312
 4577SOL     OW15627   2.742   1.138  13.354
 4577SOL    HW115628   2.670   1.107  13.299
 4577SOL    HW215629   2.699   1.187  13.424
 4578SOL     OW15630  12.180   6.127   4.333
 4578SOL    HW115631  12.101   6.100   4.286
 4578SOL    HW215632  12.237   6.050   4.329
 4579SOL     OW15633   9.396  14.472   0.780
 4579SOL    HW115634   9.387  14.465   0.875
 4579SOL    HW215635   9.445  14.395   0.754
 4580SOL     OW15636  13.449   8.439  11.033
 4580SOL    HW115637  13.358   8.442  11.064
 4580SOL    HW215638  13.443   8.408  10.943
 4581SOL     OW15639  10.777  14.335   1.404
 4581SOL    HW115640  10.825  14.285   1.338
 4581SOL    HW215641  10.831  14.328   1.483
 4582SOL     OW15642  12.401  11.023   3.058
 4582SOL    HW115643  12.399  10.929   3.075
 4582SOL    HW215644  12.485  11.052   3.093
 4583SOL     OW15645   4.491   4.524   1.945
 4583SOL    HW115646   4.511   4.431   1.935
 4583SOL    HW215647   4.526   4.565   1.866
 4584SOL     OW15648   3.750   8.446   2.485
 4584SOL    HW115649   3.794   8.528   2.509
 4584SOL    HW215650   3.710   8.415   2.566
 4585SOL     OW15651   6.270   9.306   0.110
 4585SOL    HW115652   6.331   9.234   0.122
 4585SOL    HW215653   6.214   9.277   0.037
 4586SOL     OW15654   8.590   8.007   1.955
 4586SOL    HW115655   8.653   8.020   1.883
 4586SOL    HW215656   8.614   7.922   1.992
 4587SOL     OW15657  12.498  10.479  13.280
 4587SOL    HW115658  12.499  10.560  13.230
 4587SOL    HW215659  12.405  10.456  13.286
 4588SOL     OW15660   9.015   6.398  12.059
 4588SOL    HW115661   8.922   6.403  12.080
 4588SOL    HW215662   9.028   6.463  11.990
 4589SOL     OW15663   1.968   5.707  13.017
 4589SOL    HW115664   2.039   5.652  12.984
 4589SOL    HW215665   1.888   5.665  12.986
 4590SOL     OW15666   2.822   8.802   4.774
 4590SOL    HW115667   2.794   8.714   4.751
 4590SOL    HW215668   2.915   8.805   4.751
 4591SOL     OW15669   8.346   8.757   2.733
 4591SOL    HW115670   8.380   8.781   2.819
 4591SOL    HW215671   8.251   8.766   2.742
 4592SOL     OW15672   9.843  14.325   8.839
 4592SOL    HW115673   9.776  14.294   8.900
 4592SOL    HW215674   9.879  14.404   8.881
 4593SOL     OW15675   8.548   9.002  13.756
 4593SOL    HW115676   8.518   9.063  13.824
 4593SOL    HW215677   8.628   8.965  13.791
 4594SOL     OW15678   5.198   3.024  13.743
 4594SOL    HW115679   5.134   3.044  13.811
 4594SOL    HW215680   5.241   2.944  13.774
 4595SOL     OW15681   8.642   3.174   3.075
 4595SOL    HW115682   8.644   3.109   3.145
 4595SOL    HW215683   8.561   3.223   3.090
 4596SOL     OW15684   8.143  14.081  12.333
 4596SOL    HW115685   8.166  13.989  12.317
 4596SOL    HW215686   8.188  14.130  12.265
 4597SOL     OW15687   5.888   4.109   7.769
 4597SOL    HW115688   5.934   4.078   7.847
 4597SOL    HW215689   5.819   4.043   7.754
 4598SOL     OW15690  11.518   6.868   5.396
 4598SOL    HW115691  11.596   6.920   5.418
 4598SOL    HW215692  11.477   6.850   5.481
 4599SOL     OW15693   5.972   8.942  11.281
 4599SOL    HW115694   5.951   8.979  11.195
 4599SOL    HW215695   5.903   8.878  11.297
 4600SOL     OW15696   2.782   9.921  11.125
 4600SOL    HW115697   2.726   9.871  11.185
 4600SOL    HW215698   2.749   9.901  11.038
 4601SOL     OW15699   3.847  14.368  13.861
 4601SOL    HW115700   3.942  14.355  13.855
 4601SOL    HW215701   3.812  14.327  13.782
 4602SOL     OW15702  13.229   2.357  10.758
 4602SOL    HW115703  13.150   2.315  10.724
 4602SOL    HW215704  13.198   2.441  10.792
 4603SOL     OW15705  10.819   4.046   5.212
 4603SOL    HW115706  10.847   4.066   5.123
 4603SOL    HW215707  10.734   4.003   5.201
 4604SOL     OW15708   0.924   8.549   3.073
 4604SOL    HW115709   0.891   8.460   3.059
 4604SOL    HW215710   0.913   8.592   2.989
 4605SOL     OW15711   8.189   7.252   9.881
 4605SOL    HW115712   8.152   7.290   9.801
 4605SOL    HW215713   8.208   7.328   9.937
 4606SOL     OW15714   0.891   1.549  11.037
 4606SOL    HW115715   0.906   1.634  11.078
 4606SOL    HW215716   0.906   1.485  11.106
 4607SOL     OW15717   7.098  13.271  13.550
 4607SOL    HW115718   7.120  13.182  13.578
 4607SOL    HW215719   7.090  13.265  13.455
 4608SOL     OW15720   8.530   5.152   9.609
 4608SOL    HW115721   8.495   5.109   9.531
 4608SOL    HW215722   8.604   5.098   9.635
 4609SOL     OW15723  11.388  12.891  13.683
 4609SOL    HW115724  11.406  12.926  13.770
 4609SOL    HW215725  11.325  12.952  13.644
 4610SOL     OW15726   2.330  11.247   9.065
 4610SOL    HW115727   2.325  11.205   9.151
 4610SOL    HW215728   2.252  11.217   9.019
 4611SOL     OW15729   4.486   9.473   7.405
 4611SOL    HW115730   4.524   9.553   7.440
 4611SOL    HW215731   4.482   9.487   7.311
 4612SOL     OW15732   7.869  10.211   2.483
 4612SOL    HW115733   7.933  10.171   2.424
 4612SOL    HW215734   7.853  10.144   2.550
 4613SOL     OW15735   1.176   2.121  11.365
 4613SOL    HW115736   1.205   2.152  11.280
 4613SOL    HW215737   1.090   2.162  11.377
 4614SOL     OW15738   4.578   6.927  14.600
 4614SOL    HW115739   4.525   6.852  14.573
 4614SOL    HW215740   4.601   6.971  14.518
 4615SOL     OW15741  12.258   7.352  10.144
 4615SOL    HW115742  12.260   7.326  10.052
 4615SOL    HW215743  12.329   7.302  10.184
 4616SOL     OW15744   9.988  12.862  13.446
 4616SOL    HW115745   9.978  12.770  13.470
 4616SOL    HW215746   9.925  12.876  13.375
 4617SOL     OW15747   0.675  11.020  10.032
 4617SOL    HW115748   0.753  11.031   9.978
 4617SOL    HW215749   0.676  11.095  10.092
 4618SOL     OW15750   5.327   6.004   3.782
 4618SOL    HW115751   5.254   6.055   3.748
 4618SOL    HW215752   5.343   5.937   3.715
 4619SOL     OW15753   1.264   1.428   7.656
 4619SOL    HW115754   1.196   1.382   7.608
 4619SOL    HW215755   1.314   1.473   7.588
 4620SOL     OW15756   9.584   5.288   5.227
 4620SOL    HW115757   9.559   5.346   5.299
 4620SOL    HW215758   9.649   5.338   5.177
 4621SOL     OW15759   1.260   8.138   1.436
 4621SOL    HW115760   1.232   8.052   1.405
 4621SOL    HW215761   1.195   8.199   1.401
 4622SOL     OW15762  13.712  11.077  10.839
 4622SOL    HW115763  13.753  11.071  10.925
 4622SOL    HW215764  13.621  11.051  10.854
 4623SOL     OW15765  14.347   6.131   7.186
 4623SOL    HW115766  14.387   6.131   7.099
 4623SOL    HW215767  14.254   6.146   7.169
 4624SOL     OW15768  10.955  10.624  11.438
 4624SOL    HW115769  10.987  10.585  11.357
 4624SOL    HW215770  11.021  10.689  11.462
 4625SOL     OW15771   9.273  12.343  12.542
 4625SOL    HW115772   9.183  12.319  12.520
 4625SOL    HW215773   9.303  12.272  12.599
 4626SOL     OW15774  10.420  13.999   2.207
 4626SOL    HW115775  10.438  13.909   2.181
 4626SOL    HW215776  10.499  14.027   2.254
 4627SOL     OW15777  10.665   8.907  13.328
 4627SOL    HW115778  10.609   8.950  13.264
 4627SOL    HW215779  10.607   8.888  13.402
 4628SOL     OW15780   6.242   5.027  14.356
 4628SOL    HW115781   6.157   5.065  14.378
 4628SOL    HW215782   6.229   4.988  14.270
 4629SOL     OW15783   8.455   9.460  13.132
 4629SOL    HW115784   8.494   9.524  13.072
 4629SOL    HW215785   8.525   9.397  13.148
 4630SOL     OW15786   3.141  12.294  11.958
 4630SOL    HW115787   3.095  12.269  12.038
 4630SOL    HW215788   3.072  12.302  11.892
 4631SOL     OW15789  12.426  11.010   1.494
 4631SOL    HW115790  12.474  10.938   1.452
 4631SOL    HW215791  12.482  11.087   1.482
 4632SOL     OW15792   3.399   7.821   5.102
 4632SOL    HW115793   3.352   7.876   5.039
 4632SOL    HW215794   3.491   7.839   5.087
 4633SOL     OW15795   0.008  13.999  11.237
 4633SOL    HW115796  14.820  14.009  11.310
 4633SOL    HW215797  14.825  13.964  11.166
 4634SOL     OW15798  10.456   1.026   7.960
 4634SOL    HW115799  10.403   1.053   7.885
 4634SOL    HW215800  10.546   1.024   7.927
 4635SOL     OW15801   2.191   7.153   2.317
 4635SOL    HW115802   2.268   7.113   2.277
 4635SOL    HW215803   2.222   7.186   2.401
 4636SOL     OW15804  11.415   3.767   3.374
 4636SOL    HW115805  11.457   3.699   3.427
 4636SOL    HW215806  11.486   3.825   3.347
 4637SOL     OW15807  13.868  12.523   4.497
 4637SOL    HW115808  13.828  12.473   4.426
 4637SOL    HW215809  13.815  12.503   4.574
 4638SOL     OW15810   7.054   9.768   6.379
 4638SOL    HW115811   6.984   9.704   6.361
 4638SOL    HW215812   7.129   9.734   6.330
 4639SOL     OW15813  14.421  13.479   1.681
 4639SOL    HW115814  14.472  13.400   1.699
 4639SOL    HW215815  14.376  13.498   1.764
 4640SOL     OW15816   9.975   2.465  13.232
 4640SOL    HW115817  10.058   2.433  13.196
 4640SOL    HW215818   9.924   2.386  13.251
 4641SOL     OW15819  12.871   1.366   0.934
 4641SOL    HW115820  12.779   1.342   0.923
 4641SOL    HW215821  12.870   1.434   1.001
 4642SOL     OW15822   5.299  10.382  11.620
 4642SOL    HW115823   5.334  10.340  11.698
 4642SOL    HW215824   5.308  10.316  11.551
 4643SOL     OW15825   4.143  14.549  14.751
 4643SOL    HW115826   4.227  14.518  14.784
 4643SOL    HW215827   4.122  14.625  14.805
 4644SOL     OW15828   2.364  14.238  13.147
 4644SOL    HW115829   2.437  14.197  13.193
 4644SOL    HW215830   2.396  14.254  13.059
 4645SOL     OW15831  13.741   4.903  13.157
 4645SOL    HW115832  13.804   4.975  13.146
 4645SOL    HW215833  13.759   4.869  13.244
 4646SOL     OW15834   6.944   2.738   5.520
 4646SOL    HW115835   6.879   2.729   5.450
 4646SOL    HW215836   6.966   2.647   5.543
 4647SOL     OW15837   1.067   5.058  12.149
 4647SOL    HW115838   1.022   5.140  12.171
 4647SOL    HW215839   1.082   5.015  12.232
 4648SOL     OW15840  14.175   4.524   0.512
 4648SOL    HW115841  14.252   4.579   0.501
 4648SOL    HW215842  14.138   4.517   0.424
 4649SOL     OW15843   6.211  11.799   6.141
 4649SOL    HW115844   6.140  11.736   6.129
 4649SOL    HW215845   6.252  11.807   6.055
 4650SOL     OW15846   4.821  13.976  14.487
 4650SOL    HW115847   4.877  13.906  14.522
 4650SOL    HW215848   4.733  13.953  14.517
 4651SOL     OW15849  13.615  13.641   6.463
 4651SOL    HW115850  13.644  13.576   6.398
 4651SOL    HW215851  13.627  13.597   6.547
 4652SOL     OW15852   3.071  14.104   7.335
 4652SOL    HW115853   2.979  14.082   7.348
 4652SOL    HW215854   3.101  14.132   7.422
 4653SOL     OW15855   9.428   8.559   9.934
 4653SOL    HW115856   9.472   8.590   9.855
 4653SOL    HW215857   9.500   8.532   9.992
 4654SOL     OW15858   3.815  11.624   5.795
 4654SOL    HW115859   3.768  11.652   5.874
 4654SOL    HW215860   3.901  11.666   5.802
 4655SOL     OW15861  12.179   8.314  14.560
 4655SOL    HW115862  12.255   8.259  14.540
 4655SOL    HW215863  12.124   8.259  14.616
 4656SOL     OW15864   1.413   3.817  11.539
 4656SOL    HW115865   1.471   3.851  11.607
 4656SOL    HW215866   1.461   3.829  11.457
 4657SOL     OW15867   1.841   1.907   8.918
 4657SOL    HW115868   1.800   1.874   8.997
 4657SOL    HW215869   1.932   1.924   8.942
 4658SOL     OW15870   9.208   8.974   1.689
 4658SOL    HW115871   9.162   8.997   1.770
 4658SOL    HW215872   9.301   8.974   1.713
 4659SOL     OW15873   1.863   4.839  14.312
 4659SOL    HW115874   1.841   4.771  14.376
 4659SOL    HW215875   1.919   4.795  14.248
 4660SOL     OW15876   6.732   7.448  10.048
 4660SOL    HW115877   6.756   7.383  10.114
 4660SOL    HW215878   6.746   7.403   9.964
 4661SOL     OW15879  11.975  14.271   4.755
 4661SOL    HW115880  12.014  14.321   4.827
 4661SOL    HW215881  11.933  14.196   4.798
 4662SOL     OW15882   1.328   7.819   9.957
 4662SOL    HW115883   1.400   7.761   9.979
 4662SOL    HW215884   1.250   7.764   9.966
 4663SOL     OW15885  10.323   8.272   8.857
 4663SOL    HW115886  10.342   8.254   8.765
 4663SOL    HW215887  10.228   8.279   8.861
 4664SOL     OW15888   4.213   5.520   0.063
 4664SOL    HW115889   4.288   5.538   0.120
 4664SOL    HW215890   4.164   5.602   0.061
 4665SOL     OW15891   6.079  12.259   0.632
 4665SOL    HW115892   5.992  12.239   0.668
 4665SOL    HW215893   6.104  12.179   0.585
 4666SOL     OW15894  12.640   9.925   0.720
 4666SOL    HW115895  12.633  10.003   0.776
 4666SOL    HW215896  12.583   9.860   0.762
 4667SOL     OW15897   5.138  14.270   5.307
 4667SOL    HW115898   5.042  14.265   5.309
 4667SOL    HW215899   5.158  14.306   5.221
 4668SOL     OW15900  13.931   4.465  10.499
 4668SOL    HW115901  13.913   4.558  10.511
 4668SOL    HW215902  13.850   4.429  10.464
 4669SOL     OW15903  13.653   4.459  13.752
 4669SOL    HW115904  13.674   4.367  13.760
 4669SOL    HW215905  13.565   4.468  13.790
 4670SOL     OW15906   8.318   5.710   8.268
 4670SOL    HW115907   8.243   5.732   8.212
 4670SOL    HW215908   8.285   5.722   8.357
 4671SOL     OW15909   6.626  12.851   6.391
 4671SOL    HW115910   6.576  12.832   6.470
 4671SOL    HW215911   6.697  12.786   6.391
 4672SOL     OW15912  12.235   1.451   0.661
 4672SOL    HW115913  12.158   1.499   0.632
 4672SOL    HW215914  12.216   1.359   0.642
 4673SOL     OW15915   6.122  10.980   1.781
 4673SOL    HW115916   6.152  11.061   1.821
 4673SOL    HW215917   6.121  10.999   1.687
 4674SOL     OW15918  14.212   1.573   2.556
 4674SOL    HW115919  14.141   1.532   2.606
 4674SOL    HW215920  14.292   1.545   2.600
 4675SOL     OW15921  12.214   9.257  12.010
 4675SOL    HW115922  12.191   9.307  11.932
 4675SOL    HW215923  12.222   9.167  11.979
 4676SOL     OW15924   1.331   1.459  12.427
 4676SOL    HW115925   1.356   1.367  12.420
 4676SOL    HW215926   1.380   1.503  12.358
 4677SOL     OW15927   0.137   4.587   6.415
 4677SOL    HW115928   0.178   4.507   6.446
 4677SOL    HW215929   0.151   4.586   6.320
 4678SOL     OW15930   1.615   7.284   6.548
 4678SOL    HW115931   1.671   7.272   6.470
 4678SOL    HW215932   1.665   7.344   6.603
 4679SOL     OW15933  13.486   0.613   1.212
 4679SOL    HW115934  13.530   0.664   1.145
 4679SOL    HW215935  13.398   0.650   1.217
 4680SOL     OW15936   8.705   8.603   2.643
 4680SOL    HW115937   8.730   8.683   2.597
 4680SOL    HW215938   8.610   8.603   2.644
 4681SOL     OW15939   4.928  11.535   5.987
 4681SOL    HW115940   5.022  11.524   5.996
 4681SOL    HW215941   4.899  11.571   6.071
 4682SOL     OW15942   2.605   8.467   6.318
 4682SOL    HW115943   2.565   8.509   6.242
 4682SOL    HW215944   2.662   8.400   6.282
 4683SOL     OW15945   6.592   1.188  12.203
 4683SOL    HW115946   6.618   1.144  12.285
 4683SOL    HW215947   6.585   1.117  12.139
 4684SOL     OW15948   6.835   9.740   8.202
 4684SOL    HW115949   6.787   9.671   8.156
 4684SOL    HW215950   6.864   9.699   8.284
 4685SOL     OW15951   4.940   3.375   4.557
 4685SOL    HW115952   4.965   3.303   4.499
 4685SOL    HW215953   4.990   3.450   4.525
 4686SOL     OW15954   9.210   2.656   0.303
 4686SOL    HW115955   9.226   2.748   0.283
 4686SOL    HW215956   9.268   2.636   0.376
 4687SOL     OW15957   8.314   3.955   3.357
 4687SOL    HW115958   8.335   3.861   3.354
 4687SOL    HW215959   8.220   3.959   3.336
 4688SOL     OW15960   6.506   0.497  14.316
 4688SOL    HW115961   6.433   0.559  14.314
 4688SOL    HW215962   6.582   0.549  14.342
 4689SOL     OW15963   9.387  12.530  10.253
 4689SOL    HW115964   9.399  12.439  10.226
 4689SOL    HW215965   9.295  12.548  10.234
 4690SOL     OW15966   6.660  13.682  11.883
 4690SOL    HW115967   6.604  13.629  11.939
 4690SOL    HW215968   6.599  13.736  11.831
 4691SOL     OW15969  12.029   4.320   5.925
 4691SOL    HW115970  11.934   4.309   5.922
 4691SOL    HW215971  12.042   4.398   5.980
 4692SOL     OW15972  11.347   0.976   0.813
 4692SOL    HW115973  11.290   1.044   0.776
 4692SOL    HW215974  11.403   0.949   0.741
 4693SOL     OW15975   4.013   1.318  12.750
 4693SOL    HW115976   4.104   1.332  12.724
 4693SOL    HW215977   3.979   1.256  12.686
 4694SOL     OW15978   1.680  11.572   3.757
 4694SOL    HW115979   1.610  11.506   3.751
 4694SOL    HW215980   1.650  11.643   3.700
 4695SOL     OW15981   6.791   4.835   5.627
 4695SOL    HW115982   6.857   4.794   5.683
 4695SOL    HW215983   6.841   4.887   5.564
 4696SOL     OW15984  14.666   7.686   6.837
 4696SOL    HW115985  14.707   7.630   6.903
 4696SOL    HW215986  14.573   7.664   6.841
 4697SOL     OW15987  10.365   0.747   8.934
 4697SOL    HW115988  10.428   0.681   8.963
 4697SOL    HW215989  10.296   0.745   9.000
 4698SOL     OW15990   0.519  10.788   7.124
 4698SOL    HW115991   0.584  10.808   7.192
 4698SOL    HW215992   0.453  10.736   7.167
 4699SOL     OW15993  14.631   2.973   6.900
 4699SOL    HW115994  14.557   2.944   6.954
 4699SOL    HW215995  14.673   2.892   6.871
 4700SOL     OW15996   8.100  11.653   7.083
 4700SOL    HW115997   8.054  11.735   7.064
 4700SOL    HW215998   8.147  11.671   7.165
 4701SOL     OW15999   9.171   8.650  10.050
 4701SOL    HW116000   9.127   8.666   9.967
 4701SOL    HW216001   9.230   8.577  10.033
 4702SOL     OW16002   6.946   3.266  10.493
 4702SOL    HW116003   6.857   3.270  10.528
 4702SOL    HW216004   6.953   3.179  10.453
 4703SOL     OW16005   1.404   3.567   1.592
 4703SOL    HW116006   1.466   3.618   1.540
 4703SOL    HW216007   1.335   3.630   1.614
 4704SOL     OW16008   4.734   6.037   6.775
 4704SOL    HW116009   4.644   6.047   6.741
 4704SOL    HW216010   4.742   6.107   6.840
 4705SOL     OW16011   9.583  12.053   4.162
 4705SOL    HW116012   9.513  11.988   4.172
 4705SOL    HW216013   9.577  12.107   4.241
 4706SOL     OW16014   2.558  12.070   4.695
 4706SOL    HW116015   2.512  12.054   4.778
 4706SOL    HW216016   2.622  12.000   4.690
 4707SOL     OW16017   3.029   7.130   0.520
 4707SOL    HW116018   3.071   7.054   0.559
 4707SOL    HW216019   2.939   7.102   0.503
 4708SOL     OW16020   2.428   7.913   0.090
 4708SOL    HW116021   2.437   7.824   0.054
 4708SOL    HW216022   2.429   7.900   0.185
 4709SOL     OW16023   3.872  11.431   7.824
 4709SOL    HW116024   3.822  11.510   7.843
 4709SOL    HW216025   3.948  11.461   7.775
 4710SOL     OW16026  11.618   3.367  11.676
 4710SOL    HW116027  11.698   3.376  11.726
 4710SOL    HW216028  11.629   3.285  11.626
 4711SOL     OW16029   7.702   4.905   6.772
 4711SOL    HW116030   7.736   4.987   6.809
 4711SOL    HW216031   7.778   4.866   6.727
 4712SOL     OW16032   2.184  11.210   8.112
 4712SOL    HW116033   2.099  11.193   8.152
 4712SOL    HW216034   2.245  11.221   8.185
 4713SOL     OW16035   8.905  13.506   4.920
 4713SOL    HW116036   8.955  13.531   4.997
 4713SOL    HW216037   8.967  13.454   4.868
 4714SOL     OW16038   8.236   3.279  11.330
 4714SOL    HW116039   8.323   3.300  11.365
 4714SOL    HW216040   8.180   3.272  11.408
 4715SOL     OW16041   2.774  13.603   5.212
 4715SOL    HW116042   2.733  13.589   5.127
 4715SOL    HW216043   2.858  13.646   5.191
 4716SOL     OW16044   5.018  12.765   4.404
 4716SOL    HW116045   4.940  12.817   4.425
 4716SOL    HW216046   5.036  12.785   4.312
 4717SOL     OW16047   4.607   0.768   2.324
 4717SOL    HW116048   4.647   0.853   2.307
 4717SOL    HW216049   4.537   0.787   2.387
 4718SOL     OW16050   0.865   8.337   6.490
 4718SOL    HW116051   0.950   8.307   6.523
 4718SOL    HW216052   0.817   8.365   6.567
 4719SOL     OW16053   8.776   0.857   9.363
 4719SOL    HW116054   8.776   0.770   9.322
 4719SOL    HW216055   8.851   0.856   9.422
 4720SOL     OW16056   6.185  13.242   4.218
 4720SOL    HW116057   6.091  13.225   4.220
 4720SOL    HW216058   6.218  13.203   4.300
 4721SOL     OW16059   1.639  14.557   7.395
 4721SOL    HW116060   1.616  14.483   7.338
 4721SOL    HW216061   1.735  14.558   7.395
 4722SOL     OW16062   6.634  10.195   0.034
 4722SOL    HW116063   6.714  10.143   0.022
 4722SOL    HW216064   6.566  10.145  14.862
 4723SOL     OW16065   5.978   4.698   7.739
 4723SOL    HW116066   6.038   4.759   7.781
 4723SOL    HW216067   5.891   4.738   7.749
 4724SOL     OW16068   3.281   5.621  13.214
 4724SOL    HW116069   3.204   5.673  13.239
 4724SOL    HW216070   3.305   5.574  13.294
 4725SOL     OW16071   2.110  12.034   3.198
 4725SOL    HW116072   2.132  12.001   3.111
 4725SOL    HW216073   2.015  12.047   3.195
 4726SOL     OW16074   2.820   1.857   6.131
 4726SOL    HW116075   2.725   1.850   6.140
 4726SOL    HW216076   2.850   1.891   6.215
 4727SOL     OW16077   8.628   8.467   1.435
 4727SOL    HW116078   8.712   8.512   1.419
 4727SOL    HW216079   8.630   8.448   1.529
 4728SOL     OW16080   3.779   6.997   8.347
 4728SOL    HW116081   3.824   7.013   8.429
 4728SOL    HW216082   3.710   6.934   8.369
 4729SOL     OW16083  12.177   0.267   1.574
 4729SOL    HW116084  12.188   0.328   1.647
 4729SOL    HW216085  12.181   0.322   1.496
 4730SOL     OW16086  10.024   4.846   5.813
 4730SOL    HW116087  10.058   4.926   5.854
 4730SOL    HW216088  10.014   4.868   5.720
 4731SOL     OW16089   7.750  10.828  13.357
 4731SOL    HW116090   7.708  10.858  13.276
 4731SOL    HW216091   7.758  10.733  13.346
 4732SOL     OW16092   4.999   1.879   7.900
 4732SOL    HW116093   4.947   1.905   7.977
 4732SOL    HW216094   4.934   1.870   7.830
 4733SOL     OW16095  10.857   0.640   5.639
 4733SOL    HW116096  10.818   0.662   5.554
 4733SOL    HW216097  10.951   0.633   5.621
 4734SOL     OW16098  13.165  10.008  12.980
 4734SOL    HW116099  13.252  10.047  12.992
 4734SOL    HW216100  13.140  10.031  12.891
 4735SOL     OW16101   6.924  10.705   1.007
 4735SOL    HW116102   6.905  10.624   1.054
 4735SOL    HW216103   6.925  10.679   0.915
 4736SOL     OW16104   8.533   6.913   1.577
 4736SOL    HW116105   8.462   6.946   1.632
 4736SOL    HW216106   8.542   6.821   1.602
 4737SOL     OW16107   9.598  14.356  10.574
 4737SOL    HW116108   9.588  14.263  10.555
 4737SOL    HW216109   9.514  14.383  10.610
 4738SOL     OW16110  10.787  12.498  11.031
 4738SOL    HW116111  10.814  12.471  11.119
 4738SOL    HW216112  10.692  12.504  11.036
 4739SOL     OW16113  11.540   1.221   3.285
 4739SOL    HW116114  11.453   1.181   3.283
 4739SOL    HW216115  11.577   1.194   3.369
 4740SOL     OW16116   7.800   3.884   9.946
 4740SOL    HW116117   7.863   3.818   9.976
 4740SOL    HW216118   7.836   3.967   9.978
 4741SOL     OW16119   5.805   9.818  12.929
 4741SOL    HW116120   5.846   9.809  13.015
 4741SOL    HW216121   5.729   9.760  12.933
 4742SOL     OW16122   2.981  12.470   8.159
 4742SOL    HW116123   2.997  12.549   8.211
 4742SOL    HW216124   3.027  12.487   8.077
 4743SOL     OW16125  11.643  11.877   6.379
 4743SOL    HW116126  11.600  11.823   6.446
 4743SOL    HW216127  11.690  11.814   6.324
 4744SOL     OW16128  14.623   2.249   4.487
 4744SOL    HW116129  14.533   2.237   4.515
 4744SOL    HW216130  14.623   2.224   4.394
 4745SOL     OW16131   7.660  12.600  13.116
 4745SOL    HW116132   7.667  12.532  13.049
 4745SOL    HW216133   7.706  12.563  13.191
 4746SOL     OW16134   2.362   4.847  14.432
 4746SOL    HW116135   2.345   4.891  14.349
 4746SOL    HW216136   2.382   4.918  14.493
 4747SOL     OW16137   8.777   8.144  11.755
 4747SOL    HW116138   8.756   8.184  11.839
 4747SOL    HW216139   8.844   8.201  11.717
 4748SOL     OW16140   1.143   6.249  13.463
 4748SOL    HW116141   1.201   6.176  13.482
 4748SOL    HW216142   1.145   6.257  13.367
 4749SOL     OW16143   1.973   3.698   6.524
 4749SOL    HW116144   1.919   3.756   6.578
 4749SOL    HW216145   2.008   3.755   6.455
 4750SOL     OW16146   9.962  13.300   4.793
 4750SOL    HW116147   9.897  13.346   4.846
 4750SOL    HW216148  10.003  13.238   4.854
 4751SOL     OW16149   4.645  13.188   3.927
 4751SOL    HW116150   4.583  13.192   4.000
 4751SOL    HW216151   4.731  13.192   3.968
 4752SOL     OW16152  10.884  12.549  14.451
 4752SOL    HW116153  10.871  12.628  14.399
 4752SOL    HW216154  10.976  12.552  14.476
 4753SOL     OW16155  12.571  11.939   4.165
 4753SOL    HW116156  12.608  11.899   4.086
 4753SOL    HW216157  12.636  11.922   4.233
 4754SOL     OW16158  12.322  10.465   8.279
 4754SOL    HW116159  12.396  10.513   8.318
 4754SOL    HW216160  12.244  10.506   8.317
 4755SOL     OW16161   3.359   3.774   3.166
 4755SOL    HW116162   3.386   3.706   3.228
 4755SOL    HW216163   3.403   3.750   3.084
 4756SOL     OW16164   1.226   0.041   4.151
 4756SOL    HW116165   1.202   0.118   4.098
 4756SOL    HW216166   1.144  14.865   4.161
 4757SOL     OW16167  14.025  14.404   0.817
 4757SOL    HW116168  13.953  14.450   0.861
 4757SOL    HW216169  13.993  14.314   0.807
 4758SOL     OW16170  11.756  11.549   3.589
 4758SOL    HW116171  11.762  11.463   3.631
 4758SOL    HW216172  11.817  11.544   3.516
 4759SOL     OW16173  13.425   4.705   5.064
 4759SOL    HW116174  13.367   4.780   5.047
 4759SOL    HW216175  13.414   4.686   5.157
 4760SOL     OW16176   9.572   3.718  14.663
 4760SOL    HW116177   9.577   3.652  14.732
 4760SOL    HW216178   9.490   3.764  14.679
 4761SOL     OW16179  10.702  13.879   0.868
 4761SOL    HW116180  10.752  13.812   0.915
 4761SOL    HW216181  10.758  13.957   0.871
 4762SOL     OW16182   7.189   6.695   8.703
 4762SOL    HW116183   7.186   6.654   8.616
 4762SOL    HW216184   7.278   6.678   8.733
 4763SOL     OW16185   5.988  10.430  11.906
 4763SOL    HW116186   5.895  10.414  11.924
 4763SOL    HW216187   5.999  10.524  11.919
 4764SOL     OW16188   0.695   5.422   1.724
 4764SOL    HW116189   0.608   5.406   1.760
 4764SOL    HW216190   0.683   5.494   1.663
 4765SOL     OW16191  12.204   6.626  12.817
 4765SOL    HW116192  12.149   6.609  12.741
 4765SOL    HW216193  12.251   6.706  12.795
 4766SOL     OW16194   9.128   7.080   9.927
 4766SOL    HW116195   9.201   7.101   9.869
 4766SOL    HW216196   9.167   7.026   9.996
 4767SOL     OW16197   8.014   9.241   4.389
 4767SOL    HW116198   8.007   9.318   4.445
 4767SOL    HW216199   8.107   9.239   4.363
 4768SOL     OW16200   9.362  14.354   4.165
 4768SOL    HW116201   9.269  14.335   4.169
 4768SOL    HW216202   9.368  14.427   4.102
 4769SOL     OW16203   0.967   1.685   5.371
 4769SOL    HW116204   1.006   1.761   5.415
 4769SOL    HW216205   0.873   1.700   5.376
 4770SOL     OW16206   6.304  12.940   9.058
 4770SOL    HW116207   6.214  12.973   9.053
 4770SOL    HW216208   6.298  12.859   9.107
 4771SOL     OW16209   3.016   9.830   6.858
 4771SOL    HW116210   2.970   9.828   6.942
 4771SOL    HW216211   3.097   9.782   6.874
 4772SOL     OW16212   3.339   8.893  11.566
 4772SOL    HW116213   3.392   8.910  11.489
 4772SOL    HW216214   3.386   8.824  11.614
 4773SOL     OW16215   4.916  10.885  12.641
 4773SOL    HW116216   4.987  10.845  12.590
 4773SOL    HW216217   4.911  10.833  12.721
 4774SOL     OW16218   0.875  12.907  13.547
 4774SOL    HW116219   0.801  12.965  13.529
 4774SOL    HW216220   0.870  12.841  13.478
 4775SOL     OW16221   3.394   2.751   9.729
 4775SOL    HW116222   3.314   2.786   9.767
 4775SOL    HW216223   3.462   2.767   9.794
 4776SOL     OW16224  12.667  14.384  11.362
 4776SOL    HW116225  12.723  14.315  11.398
 4776SOL    HW216226  12.598  14.395  11.427
 4777SOL     OW16227   9.360  10.622   4.548
 4777SOL    HW116228   9.294  10.691   4.539
 4777SOL    HW216229   9.351  10.570   4.468
 4778SOL     OW16230   1.231   0.807   6.948
 4778SOL    HW116231   1.283   0.830   7.026
 4778SOL    HW216232   1.147   0.851   6.962
 4779SOL     OW16233   8.934  11.526  13.228
 4779SOL    HW116234   8.954  11.477  13.308
 4779SOL    HW216235   9.020  11.544  13.190
 4780SOL     OW16236  14.384   3.988   0.611
 4780SOL    HW116237  14.354   3.912   0.661
 4780SOL    HW216238  14.329   4.060   0.642
 4781SOL     OW16239   8.909   5.689   8.920
 4781SOL    HW116240   8.820   5.697   8.955
 4781SOL    HW216241   8.933   5.778   8.895
 4782SOL     OW16242   4.951   6.767  14.152
 4782SOL    HW116243   4.876   6.709  14.164
 4782SOL    HW216244   5.013   6.714  14.101
 4783SOL     OW16245   1.856   5.946   1.057
 4783SOL    HW116246   1.831   6.009   0.989
 4783SOL    HW216247   1.935   5.904   1.022
 4784SOL     OW16248   4.572   5.728  10.477
 4784SOL    HW116249   4.635   5.782  10.525
 4784SOL    HW216250   4.609   5.640  10.480
 4785SOL     OW16251  12.896   6.223   2.684
 4785SOL    HW116252  12.873   6.210   2.776
 4785SOL    HW216253  12.821   6.189   2.635
 4786SOL     OW16254   8.508  11.770   3.956
 4786SOL    HW116255   8.488  11.847   4.009
 4786SOL    HW216256   8.512  11.803   3.866
 4787SOL     OW16257  10.279  11.719   2.811
 4787SOL    HW116258  10.330  11.645   2.779
 4787SOL    HW216259  10.288  11.786   2.743
 4788SOL     OW16260  12.504  12.937  12.268
 4788SOL    HW116261  12.530  12.977  12.352
 4788SOL    HW216262  12.412  12.914  12.280
 4789SOL     OW16263  11.101   6.560  10.871
 4789SOL    HW116264  11.169   6.525  10.814
 4789SOL    HW216265  11.045   6.485  10.891
 4790SOL     OW16266  11.419   9.828  10.952
 4790SOL    HW116267  11.467   9.909  10.969
 4790SOL    HW216268  11.430   9.812  10.859
 4791SOL     OW16269   6.832   0.818   7.447
 4791SOL    HW116270   6.750   0.842   7.403
 4791SOL    HW216271   6.864   0.900   7.484
 4792SOL     OW16272   2.000  11.984   9.381
 4792SOL    HW116273   1.988  11.899   9.423
 4792SOL    HW216274   2.066  11.969   9.313
 4793SOL     OW16275   9.147   3.315  14.569
 4793SOL    HW116276   9.215   3.267  14.617
 4793SOL    HW216277   9.186   3.334  14.484
 4794SOL     OW16278   7.826  14.009   7.444
 4794SOL    HW116279   7.820  13.917   7.419
 4794SOL    HW216280   7.735  14.039   7.449
 4795SOL     OW16281   9.994   1.389   1.135
 4795SOL    HW116282   9.999   1.466   1.191
 4795SOL    HW216283  10.057   1.406   1.065
 4796SOL     OW16284   8.761   7.045  10.851
 4796SOL    HW116285   8.832   7.107  10.836
 4796SOL    HW216286   8.802   6.959  10.842
 4797SOL     OW16287   6.860   2.608  13.168
 4797SOL    HW116288   6.891   2.698  13.179
 4797SOL    HW216289   6.927   2.553  13.209
 4798SOL     OW16290  13.713   4.233   3.265
 4798SOL    HW116291  13.634   4.271   3.227
 4798SOL    HW216292  13.785   4.268   3.213
 4799SOL     OW16293   0.419  13.243   3.978
 4799SOL    HW116294   0.377  13.278   4.056
 4799SOL    HW216295   0.404  13.148   3.983
 4800SOL     OW16296   8.116  12.349   9.070
 4800SOL    HW116297   8.179  12.409   9.030
 4800SOL    HW216298   8.091  12.290   8.999
 4801SOL     OW16299  12.767   3.817   7.938
 4801SOL    HW116300  12.811   3.869   7.872
 4801SOL    HW216301  12.713   3.880   7.986
 4802SOL     OW16302   3.983  10.302   9.283
 4802SOL    HW116303   3.937  10.325   9.202
 4802SOL    HW216304   3.985  10.206   9.283
 4803SOL     OW16305   3.395   8.520   9.554
 4803SOL    HW116306   3.315   8.549   9.599
 4803SOL    HW216307   3.444   8.601   9.540
 4804SOL     OW16308   0.504  10.781  11.677
 4804SOL    HW116309   0.538  10.821  11.757
 4804SOL    HW216310   0.570  10.802  11.610
 4805SOL     OW16311  11.044   5.538  10.565
 4805SOL    HW116312  11.104   5.555  10.637
 4805SOL    HW216313  11.006   5.452  10.585
 4806SOL     OW16314  11.978   4.588   6.691
 4806SOL    HW116315  11.982   4.648   6.766
 4806SOL    HW216316  12.066   4.590   6.654
 4807SOL     OW16317   6.199  14.429  12.282
 4807SOL    HW116318   6.262  14.364  12.310
 4807SOL    HW216319   6.239  14.513  12.304
 4808SOL     OW16320   0.866  10.156  11.826
 4808SOL    HW116321   0.882  10.241  11.867
 4808SOL    HW216322   0.793  10.171  11.766
 4809SOL     OW16323   9.064   5.951  14.272
 4809SOL    HW116324   8.970   5.938  14.263
 4809SOL    HW216325   9.097   5.869  14.308
 4810SOL     OW16326   6.662  13.434  11.342
 4810SOL    HW116327   6.666  13.355  11.288
 4810SOL    HW216328   6.583  13.422  11.395
 4811SOL     OW16329   4.811   3.909  11.512
 4811SOL    HW116330   4.752   3.984  11.506
 4811SOL    HW216331   4.898   3.946  11.519
 4812SOL     OW16332   3.355   5.365  14.872
 4812SOL    HW116333   3.318   5.283   0.034
 4812SOL    HW216334   3.286   5.430   0.015
 4813SOL     OW16335   0.481  13.767  13.541
 4813SOL    HW116336   0.415  13.739  13.477
 4813SOL    HW216337   0.444  13.846  13.580
 4814SOL     OW16338   2.526  11.055   3.876
 4814SOL    HW116339   2.565  11.022   3.957
 4814SOL    HW216340   2.432  11.051   3.891
 4815SOL     OW16341   8.788   3.267   0.341
 4815SOL    HW116342   8.844   3.190   0.353
 4815SOL    HW216343   8.773   3.300   0.429
 4816SOL     OW16344   3.865   2.154   6.185
 4816SOL    HW116345   3.824   2.200   6.259
 4816SOL    HW216346   3.791   2.119   6.135
 4817SOL     OW16347   4.071   5.661   2.392
 4817SOL    HW116348   3.992   5.714   2.383
 4817SOL    HW216349   4.043   5.571   2.375
 4818SOL     OW16350  12.880   7.629   0.697
 4818SOL    HW116351  12.884   7.548   0.747
 4818SOL    HW216352  12.789   7.635   0.668
 4819SOL     OW16353   1.121   5.279   7.936
 4819SOL    HW116354   1.165   5.240   7.861
 4819SOL    HW216355   1.184   5.344   7.969
 4820SOL     OW16356   9.905  11.939   7.177
 4820SOL    HW116357   9.873  12.022   7.140
 4820SOL    HW216358   9.920  11.883   7.101
 4821SOL     OW16359   4.196  14.739   6.704
 4821SOL    HW116360   4.168  14.648   6.700
 4821SOL    HW216361   4.290  14.735   6.722
 4822SOL     OW16362   8.419  10.099   9.789
 4822SOL    HW116363   8.350  10.155   9.824
 4822SOL    HW216364   8.373  10.032   9.738
 4823SOL     OW16365   7.138   1.021   1.602
 4823SOL    HW116366   7.100   1.081   1.666
 4823SOL    HW216367   7.064   0.973   1.567
 4824SOL     OW16368   2.322  13.280   0.500
 4824SOL    HW116369   2.242  13.297   0.550
 4824SOL    HW216370   2.317  13.340   0.425
 4825SOL     OW16371   1.692  13.790   9.068
 4825SOL    HW116372   1.630  13.772   9.139
 4825SOL    HW216373   1.774  13.810   9.113
 4826SOL     OW16374   9.288   6.165   8.117
 4826SOL    HW116375   9.380   6.150   8.137
 4826SOL    HW216376   9.285   6.256   8.085
 4827SOL     OW16377   4.270   4.410  11.815
 4827SOL    HW116378   4.359   4.421  11.848
 4827SOL    HW216379   4.217   4.394  11.894
 4828SOL     OW16380  13.537  13.188   2.888
 4828SOL    HW116381  13.608  13.251   2.898
 4828SOL    HW216382  13.461  13.231   2.927
 4829SOL     OW16383  14.236   2.304   6.999
 4829SOL    HW116384  14.244   2.386   6.950
 4829SOL    HW216385  14.248   2.329   7.090
 4830SOL     OW16386  14.133  10.850   7.243
 4830SOL    HW116387  14.209  10.887   7.197
 4830SOL    HW216388  14.163  10.765   7.274
 4831SOL     OW16389   6.073   5.503  10.038
 4831SOL    HW116390   6.084   5.588   9.996
 4831SOL    HW216391   6.002   5.516  10.101
 4832SOL     OW16392   0.111   8.748   0.006
 4832SOL    HW116393   0.046   8.804   0.049
 4832SOL    HW216394   0.070   8.662   0.002
 4833SOL     OW16395  12.022   4.276   7.663
 4833SOL    HW116396  11.933   4.309   7.671
 4833SOL    HW216397  12.013   4.192   7.620
 4834SOL     OW16398   1.588   9.277   4.423
 4834SOL    HW116399   1.611   9.196   4.470
 4834SOL    HW216400   1.659   9.337   4.442
 4835SOL     OW16401  11.879   8.353  11.671
 4835SOL    HW116402  11.844   8.431  11.715
 4835SOL    HW216403  11.862   8.282  11.733
 4836SOL     OW16404  12.778   8.193   1.415
 4836SOL    HW116405  12.745   8.202   1.505
 4836SOL    HW216406  12.718   8.246   1.362
 4837SOL     OW16407   4.415  10.014   9.296
 4837SOL    HW116408   4.366   9.932   9.308
 4837SOL    HW216409   4.351  10.075   9.259
 4838SOL     OW16410   9.035   0.697   5.217
 4838SOL    HW116411   9.058   0.613   5.176
 4838SOL    HW216412   8.953   0.679   5.263
 4839SOL     OW16413   5.820   8.583  12.174
 4839SOL    HW116414   5.745   8.589  12.115
 4839SOL    HW216415   5.792   8.631  12.252
 4840SOL     OW16416  13.994   5.044   0.053
 4840SOL    HW116417  13.922   5.103   0.074
 4840SOL    HW216418  14.006   4.990   0.131
 4841SOL     OW16419   0.217   7.353   4.116
 4841SOL    HW116420   0.195   7.446   4.115
 4841SOL    HW216421   0.228   7.331   4.023
 4842SOL     OW16422  13.654   2.117   3.761
 4842SOL    HW116423  13.720   2.089   3.824
 4842SOL    HW216424  13.663   2.055   3.688
 4843SOL     OW16425   9.507   1.909   0.538
 4843SOL    HW116426   9.498   1.895   0.633
 4843SOL    HW216427   9.485   2.002   0.526
 4844SOL     OW16428   7.262   3.222  11.133
 4844SOL    HW116429   7.343   3.200  11.088
 4844SOL    HW216430   7.230   3.139  11.169
 4845SOL     OW16431  10.061  11.007   1.307
 4845SOL    HW116432  10.070  10.979   1.398
 4845SOL    HW216433  10.002  11.082   1.310
 4846SOL     OW16434   8.170   4.573   7.497
 4846SOL    HW116435   8.127   4.556   7.413
 4846SOL    HW216436   8.137   4.503   7.555
 4847SOL     OW16437  13.025  10.428   7.621
 4847SOL    HW116438  12.993  10.481   7.693
 4847SOL    HW216439  13.110  10.466   7.598
 4848SOL     OW16440   9.431  11.513   0.123
 4848SOL    HW116441   9.492  11.567   0.174
 4848SOL    HW216442   9.346  11.528   0.164
 4849SOL     OW16443   5.375   1.696  10.335
 4849SOL    HW116444   5.280   1.701  10.324
 4849SOL    HW216445   5.389   1.713  10.428
 4850SOL     OW16446   5.473  10.102   9.493
 4850SOL    HW116447   5.480  10.016   9.534
 4850SOL    HW216448   5.555  10.146   9.515
 4851SOL     OW16449   5.169   7.395  12.227
 4851SOL    HW116450   5.120   7.454  12.170
 4851SOL    HW216451   5.246   7.371  12.177
 4852SOL     OW16452   7.886  12.801  11.887
 4852SOL    HW116453   7.972  12.785  11.846
 4852SOL    HW216454   7.862  12.889  11.858
 4853SOL     OW16455   7.465  12.841   3.539
 4853SOL    HW116456   7.451  12.783   3.464
 4853SOL    HW216457   7.506  12.785   3.605
 4854SOL     OW16458  14.087  11.098   2.960
 4854SOL    HW116459  14.076  11.158   3.035
 4854SOL    HW216460  14.039  11.019   2.986
 4855SOL     OW16461  12.282   2.643   9.122
 4855SOL    HW116462  12.374   2.658   9.099
 4855SOL    HW216463  12.286   2.575   9.189
 4856SOL     OW16464   0.841   4.191  12.265
 4856SOL    HW116465   0.926   4.154  12.238
 4856SOL    HW216466   0.856   4.224  12.353
 4857SOL     OW16467   5.082  13.450  10.013
 4857SOL    HW116468   5.025  13.515   9.972
 4857SOL    HW216469   5.165  13.497  10.025
 4858SOL     OW16470  14.121   4.638   5.734
 4858SOL    HW116471  14.043   4.636   5.788
 4858SOL    HW216472  14.182   4.695   5.781
 4859SOL     OW16473   1.124   7.737  11.146
 4859SOL    HW116474   1.205   7.727  11.195
 4859SOL    HW216475   1.055   7.742  11.212
 4860SOL     OW16476  10.475   1.170   3.633
 4860SOL    HW116477  10.482   1.077   3.611
 4860SOL    HW216478  10.451   1.212   3.551
 4861SOL     OW16479   1.429  13.309   8.667
 4861SOL    HW116480   1.339  13.343   8.668
 4861SOL    HW216481   1.420  13.216   8.687
 4862SOL     OW16482  13.827   7.126   3.993
 4862SOL    HW116483  13.819   7.082   4.078
 4862SOL    HW216484  13.739   7.159   3.975
 4863SOL     OW16485   7.472   8.751   4.560
 4863SOL    HW116486   7.432   8.837   4.552
 4863SOL    HW216487   7.554   8.767   4.608
 4864SOL     OW16488   5.631  12.221  11.698
 4864SOL    HW116489   5.625  12.277  11.776
 4864SOL    HW216490   5.564  12.255  11.639
 4865SOL     OW16491  11.453  11.650   7.179
 4865SOL    HW116492  11.537  11.673   7.139
 4865SOL    HW216493  11.409  11.734   7.192
 4866SOL     OW16494   6.174  12.709   2.759
 4866SOL    HW116495   6.227  12.750   2.827
 4866SOL    HW216496   6.219  12.731   2.677
 4867SOL     OW16497   1.864   9.389  13.981
 4867SOL    HW116498   1.795   9.432  13.930
 4867SOL    HW216499   1.885   9.451  14.050
 4868SOL     OW16500  13.177   3.277   5.509
 4868SOL    HW116501  13.264   3.285   5.470
 4868SOL    HW216502  13.134   3.208   5.459
 4869SOL     OW16503  11.359   4.327   9.937
 4869SOL    HW116504  11.375   4.417   9.910
 4869SOL    HW216505  11.421   4.311  10.007
 4870SOL     OW16506   9.602   5.682   9.403
 4870SOL    HW116507   9.596   5.776   9.422
 4870SOL    HW216508   9.592   5.640   9.489
 4871SOL     OW16509  11.592  14.521  12.830
 4871SOL    HW116510  11.644  14.577  12.887
 4871SOL    HW216511  11.645  14.442  12.819
 4872SOL     OW16512  13.311  12.418   1.694
 4872SOL    HW116513  13.259  12.498   1.689
 4872SOL    HW216514  13.327  12.406   1.787
 4873SOL     OW16515   3.665  11.839   8.452
 4873SOL    HW116516   3.653  11.815   8.544
 4873SOL    HW216517   3.635  11.929   8.446
 4874SOL     OW16518   8.521   0.649   6.560
 4874SOL    HW116519   8.556   0.569   6.521
 4874SOL    HW216520   8.588   0.677   6.622
 4875SOL     OW16521   9.786  13.800   1.149
 4875SOL    HW116522   9.871  13.774   1.186
 4875SOL    HW216523   9.808  13.866   1.083
 4876SOL     OW16524  13.823  14.200  12.712
 4876SOL    HW116525  13.896  14.262  12.721
 4876SOL    HW216526  13.809  14.193  12.617
 4877SOL     OW16527   2.587   4.514   8.668
 4877SOL    HW116528   2.510   4.551   8.711
 4877SOL    HW216529   2.657   4.578   8.686
 4878SOL     OW16530   5.761  12.877  10.528
 4878SOL    HW116531   5.731  12.968  10.527
 4878SOL    HW216532   5.850  12.882  10.564
 4879SOL     OW16533   5.861   4.643   8.231
 4879SOL    HW116534   5.903   4.724   8.202
 4879SOL    HW216535   5.858   4.589   8.152
 4880SOL     OW16536   7.534   7.631  10.965
 4880SOL    HW116537   7.484   7.712  10.953
 4880SOL    HW216538   7.526   7.586  10.881
 4881SOL     OW16539  14.096  13.615   6.300
 4881SOL    HW116540  14.183  13.650   6.280
 4881SOL    HW216541  14.036  13.670   6.249
 4882SOL     OW16542  11.559   0.435   5.562
 4882SOL    HW116543  11.514   0.351   5.565
 4882SOL    HW216544  11.513   0.485   5.495
 4883SOL     OW16545   0.009   4.724   0.546
 4883SOL    HW116546  14.803   4.739   0.493
 4883SOL    HW216547   0.052   4.809   0.550
 4884SOL     OW16548   7.494   8.224  10.486
 4884SOL    HW116549   7.439   8.171  10.428
 4884SOL    HW216550   7.507   8.169  10.564
 4885SOL     OW16551   7.062   8.791   1.795
 4885SOL    HW116552   7.094   8.722   1.738
 4885SOL    HW216553   7.124   8.793   1.868
 4886SOL     OW16554  13.906   6.301  10.433
 4886SOL    HW116555  13.905   6.206  10.435
 4886SOL    HW216556  13.937   6.323  10.345
 4887SOL     OW16557   4.461   8.003   6.284
 4887SOL    HW116558   4.422   8.016   6.198
 4887SOL    HW216559   4.428   8.075   6.337
 4888SOL     OW16560   5.606   7.030  11.463
 4888SOL    HW116561   5.680   7.089  11.470
 4888SOL    HW216562   5.537   7.082  11.423
 4889SOL     OW16563   2.482  12.880   7.864
 4889SOL    HW116564   2.467  12.964   7.908
 4889SOL    HW216565   2.463  12.897   7.772
 4890SOL     OW16566   3.642   5.129   3.494
 4890SOL    HW116567   3.692   5.189   3.548
 4890SOL    HW216568   3.561   5.115   3.542
 4891SOL     OW16569   5.927   6.219  12.043
 4891SOL    HW116570   5.908   6.312  12.054
 4891SOL    HW216571   5.898   6.179  12.125
 4892SOL     OW16572  10.877   6.675   7.230
 4892SOL    HW116573  10.955   6.685   7.175
 4892SOL    HW216574  10.906   6.703   7.317
 4893SOL     OW16575  13.918   6.270   1.543
 4893SOL    HW116576  14.009   6.242   1.542
 4893SOL    HW216577  13.916   6.346   1.601
 4894SOL     OW16578   1.837   6.697   3.572
 4894SOL    HW116579   1.894   6.665   3.502
 4894SOL    HW216580   1.784   6.765   3.531
 4895SOL     OW16581  10.279   2.752  13.746
 4895SOL    HW116582  10.364   2.795  13.757
 4895SOL    HW216583  10.229   2.812  13.691
 4896SOL     OW16584   6.058  10.131  10.176
 4896SOL    HW116585   6.033  10.213  10.219
 4896SOL    HW216586   5.977  10.097  10.139
 4897SOL     OW16587   2.080  11.482   4.133
 4897SOL    HW116588   2.149  11.418   4.115
 4897SOL    HW216589   2.066  11.526   4.049
 4898SOL     OW16590  11.322   0.814   0.463
 4898SOL    HW116591  11.286   0.772   0.385
 4898SOL    HW216592  11.246   0.842   0.513
 4899SOL     OW16593   4.212   9.214  10.532
 4899SOL    HW116594   4.205   9.273  10.607
 4899SOL    HW216595   4.123   9.209  10.497
 4900SOL     OW16596   2.157   8.908   3.640
 4900SOL    HW116597   2.225   8.878   3.700
 4900SOL    HW216598   2.151   8.840   3.574
 4901SOL     OW16599   4.907   1.188  14.793
 4901SOL    HW116600   4.946   1.138  14.721
 4901SOL    HW216601   4.938   1.278  14.779
 4902SOL     OW16602   4.193   7.281   5.021
 4902SOL    HW116603   4.115   7.334   5.030
 4902SOL    HW216604   4.265   7.344   5.017
 4903SOL     OW16605   8.175   0.960   2.021
 4903SOL    HW116606   8.189   0.891   2.087
 4903SOL    HW216607   8.093   1.001   2.046
 4904SOL     OW16608   6.359   9.808   9.974
 4904SOL    HW116609   6.430   9.778   9.918
 4904SOL    HW216610   6.402   9.850  10.048
 4905SOL     OW16611   1.751   8.091   8.305
 4905SOL    HW116612   1.714   8.003   8.295
 4905SOL    HW216613   1.727   8.117   8.393
 4906SOL     OW16614   1.523  14.576  11.374
 4906SOL    HW116615   1.584  14.646  11.351
 4906SOL    HW216616   1.573  14.519  11.432
 4907SOL     OW16617  11.629   6.202   2.049
 4907SOL    HW116618  11.658   6.114   2.025
 4907SOL    HW216619  11.646   6.209   2.143
 4908SOL     OW16620   0.480   4.808   0.231
 4908SOL    HW116621   0.453   4.824   0.141
 4908SOL    HW216622   0.399   4.816   0.282
 4909SOL     OW16623  13.205   6.578  10.880
 4909SOL    HW116624  13.208   6.577  10.976
 4909SOL    HW216625  13.296   6.562  10.853
 4910SOL     OW16626   3.334  12.026  13.681
 4910SOL    HW116627   3.336  12.041  13.776
 4910SOL    HW216628   3.250  12.061  13.653
 4911SOL     OW16629   9.644   9.253  12.943
 4911SOL    HW116630   9.557   9.222  12.967
 4911SOL    HW216631   9.699   9.230  13.018
 4912SOL     OW16632   7.660   4.080   7.630
 4912SOL    HW116633   7.750   4.048   7.633
 4912SOL    HW216634   7.668   4.175   7.626
 4913SOL     OW16635   9.049   5.914   8.836
 4913SOL    HW116636   9.049   5.916   8.741
 4913SOL    HW216637   9.030   6.004   8.862
 4914SOL     OW16638   2.724   2.776   0.140
 4914SOL    HW116639   2.755   2.689   0.115
 4914SOL    HW216640   2.698   2.816   0.057
 4915SOL     OW16641  12.316  12.316   1.065
 4915SOL    HW116642  12.394  12.370   1.059
 4915SOL    HW216643  12.255  12.367   1.119
 4916SOL     OW16644   5.022  13.472   8.330
 4916SOL    HW116645   4.929  13.468   8.310
 4916SOL    HW216646   5.031  13.543   8.393
 4917SOL     OW16647   4.771   4.145   8.117
 4917SOL    HW116648   4.688   4.165   8.074
 4917SOL    HW216649   4.762   4.180   8.205
 4918SOL     OW16650   8.031   5.091   4.403
 4918SOL    HW116651   7.957   5.149   4.387
 4918SOL    HW216652   8.059   5.112   4.492
 4919SOL     OW16653   6.496   3.736   6.435
 4919SOL    HW116654   6.543   3.664   6.394
 4919SOL    HW216655   6.496   3.806   6.369
 4920SOL     OW16656   1.333  11.850   3.815
 4920SOL    HW116657   1.373  11.797   3.746
 4920SOL    HW216658   1.335  11.794   3.893
 4921SOL     OW16659   2.754  10.186   6.896
 4921SOL    HW116660   2.670  10.146   6.873
 4921SOL    HW216661   2.817  10.146   6.835
 4922SOL     OW16662   7.897   2.605   0.699
 4922SOL    HW116663   7.826   2.581   0.639
 4922SOL    HW216664   7.883   2.549   0.776
 4923SOL     OW16665   6.986   2.934   4.943
 4923SOL    HW116666   6.950   2.846   4.933
 4923SOL    HW216667   6.914   2.992   4.921
 4924SOL     OW16668  12.648   8.997   2.550
 4924SOL    HW116669  12.579   8.933   2.530
 4924SOL    HW216670  12.710   8.987   2.478
 4925SOL     OW16671  13.991   0.898   8.869
 4925SOL    HW116672  13.918   0.885   8.809
 4925SOL    HW216673  14.001   0.993   8.875
 4926SOL     OW16674   8.668  11.259   5.842
 4926SOL    HW116675   8.619  11.177   5.852
 4926SOL    HW216676   8.665  11.277   5.748
 4927SOL     OW16677   1.726   2.908   3.820
 4927SOL    HW116678   1.749   2.953   3.739
 4927SOL    HW216679   1.809   2.882   3.858
 4928SOL     OW16680   1.249   5.280  14.801
 4928SOL    HW116681   1.293   5.247  14.723
 4928SOL    HW216682   1.320   5.306  14.860
 4929SOL     OW16683  13.194   7.799   1.982
 4929SOL    HW116684  13.138   7.796   2.060
 4929SOL    HW216685  13.283   7.798   2.017
 4930SOL     OW16686   2.823   6.133  13.874
 4930SOL    HW116687   2.805   6.060  13.934
 4930SOL    HW216688   2.791   6.210  13.920
 4931SOL     OW16689  13.689   8.396  12.552
 4931SOL    HW116690  13.763   8.348  12.515
 4931SOL    HW216691  13.638   8.425  12.476
 4932SOL     OW16692  11.643   4.284  13.989
 4932SOL    HW116693  11.708   4.216  13.974
 4932SOL    HW216694  11.692   4.354  14.032
 4933SOL     OW16695  12.414  12.613   1.429
 4933SOL    HW116696  12.443  12.701   1.402
 4933SOL    HW216697  12.358  12.629   1.504
 4934SOL     OW16698   9.933  12.083   5.795
 4934SOL    HW116699   9.923  12.089   5.700
 4934SOL    HW216700   9.949  12.173   5.823
 4935SOL     OW16701  10.368   6.377  12.523
 4935SOL    HW116702  10.325   6.380  12.438
 4935SOL    HW216703  10.417   6.459  12.529
 4936SOL     OW16704   2.367   0.262  10.622
 4936SOL    HW116705   2.384   0.316  10.700
 4936SOL    HW216706   2.276   0.234  10.633
 4937SOL     OW16707  10.292  11.081   7.085
 4937SOL    HW116708  10.365  11.141   7.070
 4937SOL    HW216709  10.332  11.006   7.131
 4938SOL     OW16710   4.745  10.475   1.324
 4938SOL    HW116711   4.654  10.449   1.311
 4938SOL    HW216712   4.794  10.393   1.326
 4939SOL     OW16713   8.303  13.744   2.332
 4939SOL    HW116714   8.377  13.796   2.361
 4939SOL    HW216715   8.342  13.668   2.289
 4940SOL     OW16716   1.162   2.599   0.637
 4940SOL    HW116717   1.168   2.508   0.667
 4940SOL    HW216718   1.243   2.614   0.589
 4941SOL     OW16719   5.039   1.374  14.470
 4941SOL    HW116720   5.011   1.410  14.555
 4941SOL    HW216721   5.016   1.281  14.475
 4942SOL     OW16722   9.744  11.389   4.217
 4942SOL    HW116723   9.777  11.324   4.155
 4942SOL    HW216724   9.758  11.349   4.303
 4943SOL     OW16725  10.689   5.743  13.375
 4943SOL    HW116726  10.762   5.801  13.394
 4943SOL    HW216727  10.690   5.678  13.446
 4944SOL     OW16728  10.481   5.832   4.174
 4944SOL    HW116729  10.416   5.799   4.112
 4944SOL    HW216730  10.436   5.902   4.222
 4945SOL     OW16731   7.482   3.512   1.438
 4945SOL    HW116732   7.505   3.534   1.347
 4945SOL    HW216733   7.463   3.418   1.435
 4946SOL     OW16734   4.236   4.790  10.522
 4946SOL    HW116735   4.191   4.859  10.571
 4946SOL    HW216736   4.295   4.750  10.586
 4947SOL     OW16737   4.513   0.914   8.350
 4947SOL    HW116738   4.607   0.922   8.331
 4947SOL    HW216739   4.477   1.000   8.326
 4948SOL     OW16740  12.244   7.529   9.030
 4948SOL    HW116741  12.219   7.607   8.980
 4948SOL    HW216742  12.161   7.493   9.060
 4949SOL     OW16743   9.843   4.703   5.950
 4949SOL    HW116744   9.820   4.756   6.026
 4949SOL    HW216745   9.925   4.742   5.918
 4950SOL     OW16746   4.026   5.557   0.699
 4950SOL    HW116747   4.017   5.587   0.789
 4950SOL    HW216748   3.951   5.594   0.653
 4951SOL     OW16749   9.872   5.141   9.724
 4951SOL    HW116750   9.842   5.129   9.634
 4951SOL    HW216751   9.853   5.058   9.767
 4952SOL     OW16752   0.273   5.641   1.929
 4952SOL    HW116753   0.244   5.622   1.840
 4952SOL    HW216754   0.365   5.666   1.920
 4953SOL     OW16755  10.740   1.147   9.893
 4953SOL    HW116756  10.750   1.067   9.841
 4953SOL    HW216757  10.646   1.161   9.898
 4954SOL     OW16758   3.642  10.001  12.960
 4954SOL    HW116759   3.595   9.970  12.883
 4954SOL    HW216760   3.707   9.934  12.977
 4955SOL     OW16761  11.455   8.815  13.874
 4955SOL    HW116762  11.544   8.782  13.883
 4955SOL    HW216763  11.461   8.885  13.809
 4956SOL     OW16764  10.062   8.756   6.458
 4956SOL    HW116765  10.118   8.748   6.535
 4956SOL    HW216766  10.123   8.773   6.386
 4957SOL     OW16767   4.042   9.282   8.031
 4957SOL    HW116768   4.083   9.320   7.953
 4957SOL    HW216769   4.100   9.305   8.103
 4958SOL     OW16770  14.000   1.699  14.740
 4958SOL    HW116771  13.967   1.703  14.830
 4958SOL    HW216772  13.983   1.608  14.713
 4959SOL     OW16773  10.579  14.806   4.775
 4959SOL    HW116774  10.493  14.835   4.808
 4959SOL    HW216775  10.638   0.006   4.797
 4960SOL     OW16776  12.931   9.674  11.323
 4960SOL    HW116777  12.932   9.588  11.366
 4960SOL    HW216778  13.023   9.693  11.307
 4961SOL     OW16779  10.939   8.775   9.814
 4961SOL    HW116780  10.993   8.755   9.889
 4961SOL    HW216781  10.982   8.732   9.740
 4962SOL     OW16782   0.285   8.441   6.411
 4962SOL    HW116783   0.256   8.524   6.373
 4962SOL    HW216784   0.286   8.458   6.505
 4963SOL     OW16785   7.638   5.498  13.708
 4963SOL    HW116786   7.550   5.525  13.683
 4963SOL    HW216787   7.653   5.541  13.792
 4964SOL     OW16788   1.140   6.441  10.004
 4964SOL    HW116789   1.156   6.529  10.037
 4964SOL    HW216790   1.224   6.396  10.014
 4965SOL     OW16791   0.576  11.195   2.395
 4965SOL    HW116792   0.499  11.216   2.341
 4965SOL    HW216793   0.548  11.211   2.485
 4966SOL     OW16794   8.372   1.599   3.648
 4966SOL    HW116795   8.317   1.545   3.591
 4966SOL    HW216796   8.401   1.540   3.717
 4967SOL     OW16797  14.864   9.718  10.339
 4967SOL    HW116798   0.026   9.797  10.380
 4967SOL    HW216799  14.848   9.742  10.248
 4968SOL     OW16800   9.207   0.193   0.741
 4968SOL    HW116801   9.122   0.210   0.701
 4968SOL    HW216802   9.259   0.154   0.671
 4969SOL     OW16803  14.108   3.805   7.624
 4969SOL    HW116804  14.127   3.898   7.631
 4969SOL    HW216805  14.074   3.794   7.535
 4970SOL     OW16806   5.982  11.634  14.230
 4970SOL    HW116807   6.018  11.704  14.284
 4970SOL    HW216808   6.002  11.660  14.140
 4971SOL     OW16809  13.377   7.078   8.635
 4971SOL    HW116810  13.430   7.109   8.561
 4971SOL    HW216811  13.434   7.090   8.711
 4972SOL     OW16812   3.145   4.819   7.058
 4972SOL    HW116813   3.162   4.897   7.111
 4972SOL    HW216814   3.070   4.844   7.004
 4973SOL     OW16815  10.978   1.163   8.434
 4973SOL    HW116816  11.003   1.253   8.412
 4973SOL    HW216817  11.054   1.128   8.481
 4974SOL     OW16818   5.787  13.821   3.101
 4974SOL    HW116819   5.783  13.733   3.064
 4974SOL    HW216820   5.817  13.876   3.028
 4975SOL     OW16821  11.225  10.826  11.485
 4975SOL    HW116822  11.289  10.766  11.523
 4975SOL    HW216823  11.252  10.837  11.394
 4976SOL     OW16824  11.207   4.466   5.113
 4976SOL    HW116825  11.243   4.413   5.184
 4976SOL    HW216826  11.116   4.482   5.138
 4977SOL     OW16827   9.086  12.567   0.221
 4977SOL    HW116828   9.173  12.560   0.182
 4977SOL    HW216829   9.037  12.494   0.182
 4978SOL     OW16830  14.394   5.356  13.963
 4978SOL    HW116831  14.318   5.364  14.020
 4978SOL    HW216832  14.361   5.377  13.876
 4979SOL     OW16833   2.630   8.223   7.330
 4979SOL    HW116834   2.685   8.145   7.319
 4979SOL    HW216835   2.592   8.238   7.243
 4980SOL     OW16836  11.696   9.338  10.342
 4980SOL    HW116837  11.698   9.302  10.253
 4980SOL    HW216838  11.756   9.283  10.391
 4981SOL     OW16839   1.587   9.577   7.040
 4981SOL    HW116840   1.520   9.541   7.099
 4981SOL    HW216841   1.549   9.568   6.953
 4982SOL     OW16842   5.499   4.402  14.086
 4982SOL    HW116843   5.471   4.485  14.046
 4982SOL    HW216844   5.422   4.346  14.081
 4983SOL     OW16845  12.700  12.026   2.629
 4983SOL    HW116846  12.672  12.082   2.557
 4983SOL    HW216847  12.730  11.945   2.587
 4984SOL     OW16848   5.660  11.336  11.973
 4984SOL    HW116849   5.634  11.413  11.923
 4984SOL    HW216850   5.725  11.292  11.919
 4985SOL     OW16851   4.335   9.241   5.046
 4985SOL    HW116852   4.407   9.271   4.991
 4985SOL    HW216853   4.300   9.165   4.999
 4986SOL     OW16854  13.544  14.171   6.572
 4986SOL    HW116855  13.554  14.185   6.477
 4986SOL    HW216856  13.558  14.078   6.584
 4987SOL     OW16857   4.093   7.551   5.356
 4987SOL    HW116858   4.167   7.611   5.352
 4987SOL    HW216859   4.129   7.467   5.326
 4988SOL     OW16860  10.538  13.477  10.700
 4988SOL    HW116861  10.443  13.483  10.712
 4988SOL    HW216862  10.575  13.525  10.774
 4989SOL     OW16863  10.323   7.153  10.069
 4989SOL    HW116864  10.306   7.113  10.154
 4989SOL    HW216865  10.286   7.241  10.076
 4990SOL     OW16866   6.557   7.853  14.615
 4990SOL    HW116867   6.628   7.904  14.575
 4990SOL    HW216868   6.479   7.909  14.605
 4991SOL     OW16869   1.630  11.513  14.385
 4991SOL    HW116870   1.686  11.472  14.319
 4991SOL    HW216871   1.613  11.443  14.448
 4992SOL     OW16872  12.322   4.909   9.024
 4992SOL    HW116873  12.402   4.858   9.016
 4992SOL    HW216874  12.274   4.892   8.943
 4993SOL     OW16875  10.391  14.357  12.161
 4993SOL    HW116876  10.428  14.281  12.116
 4993SOL    HW216877  10.296  14.345  12.155
 4994SOL     OW16878   0.667  13.982   9.221
 4994SOL    HW116879   0.632  14.002   9.135
 4994SOL    HW216880   0.648  13.889   9.234
 4995SOL     OW16881  12.226  11.421  11.559
 4995SOL    HW116882  12.143  11.469  11.556
 4995SOL    HW216883  12.238  11.399  11.651
 4996SOL     OW16884   4.145  11.550   6.336
 4996SOL    HW116885   4.120  11.593   6.254
 4996SOL    HW216886   4.071  11.491   6.354
 4997SOL     OW16887   2.584   5.124  13.469
 4997SOL    HW116888   2.508   5.065  13.474
 4997SOL    HW216889   2.551   5.202  13.425
 4998SOL     OW16890   6.649  13.813  13.713
 4998SOL    HW116891   6.652  13.890  13.770
 4998SOL    HW216892   6.598  13.841  13.637
 4999SOL     OW16893  12.798   6.414  10.776
 4999SOL    HW116894  12.757   6.409  10.862
 4999SOL    HW216895  12.731   6.385  10.715
 5000SOL     OW16896  11.435  10.999   6.930
 5000SOL    HW116897  11.342  10.986   6.951
 5000SOL    HW216898  11.480  10.981   7.012
 5001SOL     OW16899  10.859   7.668   8.553
 5001SOL    HW116900  10.844   7.574   8.539
 5001SOL    HW216901  10.788   7.695   8.610
 5002SOL     OW16902   4.447  14.801   2.090
 5002SOL    HW116903   4.418  14.710   2.078
 5002SOL    HW216904   4.498  14.800   2.171
 5003SOL     OW16905   1.609   2.335   2.420
 5003SOL    HW116906   1.692   2.311   2.378
 5003SOL    HW216907   1.542   2.287   2.371
 5004SOL     OW16908  12.182  11.232  10.514
 5004SOL    HW116909  12.210  11.177  10.442
 5004SOL    HW216910  12.183  11.174  10.590
 5005SOL     OW16911   6.878   3.503   4.493
 5005SOL    HW116912   6.868   3.434   4.426
 5005SOL    HW216913   6.836   3.467   4.571
 5006SOL     OW16914  12.224  10.126   0.622
 5006SOL    HW116915  12.204  10.051   0.567
 5006SOL    HW216916  12.276  10.184   0.566
 5007SOL     OW16917   8.443   6.758  13.710
 5007SOL    HW116918   8.407   6.822  13.648
 5007SOL    HW216919   8.446   6.804  13.794
 5008SOL     OW16920   1.167  14.470  10.980
 5008SOL    HW116921   1.081  14.488  10.941
 5008SOL    HW216922   1.151  14.469  11.074
 5009SOL     OW16923  13.189   2.336   5.103
 5009SOL    HW116924  13.235   2.356   5.185
 5009SOL    HW216925  13.097   2.355   5.122
 5010SOL     OW16926   1.875  13.711  13.588
 5010SOL    HW116927   1.845  13.785  13.640
 5010SOL    HW216928   1.969  13.705  13.607
 5011SOL     OW16929   1.367   2.108  13.059
 5011SOL    HW116930   1.334   2.184  13.107
 5011SOL    HW216931   1.427   2.065  13.119
 5012SOL     OW16932  14.846   3.766   6.372
 5012SOL    HW116933   0.013   3.781   6.459
 5012SOL    HW216934  14.758   3.804   6.379
 5013SOL     OW16935   5.777   9.837   7.990
 5013SOL    HW116936   5.798   9.749   7.958
 5013SOL    HW216937   5.767   9.890   7.911
 5014SOL     OW16938  13.008   6.288  13.009
 5014SOL    HW116939  12.974   6.358  13.065
 5014SOL    HW216940  12.930   6.251  12.967
 5015SOL     OW16941   4.068   9.362   5.432
 5015SOL    HW116942   4.159   9.343   5.407
 5015SOL    HW216943   4.015   9.309   5.373
 5016SOL     OW16944  10.645   8.204  13.387
 5016SOL    HW116945  10.659   8.272  13.452
 5016SOL    HW216946  10.707   8.135  13.412
 5017SOL     OW16947   1.667  13.787   9.548
 5017SOL    HW116948   1.611  13.764   9.473
 5017SOL    HW216949   1.687  13.703   9.589
 5018SOL     OW16950   3.872   3.376   2.289
 5018SOL    HW116951   3.806   3.329   2.238
 5018SOL    HW216952   3.955   3.353   2.248
 5019SOL     OW16953   5.515   5.665   8.843
 5019SOL    HW116954   5.507   5.706   8.757
 5019SOL    HW216955   5.608   5.673   8.864
 5020SOL     OW16956   7.871   9.995   2.946
 5020SOL    HW116957   7.898  10.038   3.027
 5020SOL    HW216958   7.913   9.909   2.948
 5021SOL     OW16959   4.195   2.770   7.784
 5021SOL    HW116960   4.143   2.700   7.745
 5021SOL    HW216961   4.208   2.743   7.875
 5022SOL     OW16962  14.148  10.566   5.998
 5022SOL    HW116963  14.086  10.572   6.070
 5022SOL    HW216964  14.150  10.654   5.960
 5023SOL     OW16965   3.551  10.034  12.158
 5023SOL    HW116966   3.483  10.096  12.186
 5023SOL    HW216967   3.517   9.948  12.181
 5024SOL     OW16968   3.818  13.613   5.755
 5024SOL    HW116969   3.800  13.659   5.837
 5024SOL    HW216970   3.816  13.682   5.689
 5025SOL     OW16971  13.189   4.854  13.982
 5025SOL    HW116972  13.112   4.839  13.927
 5025SOL    HW216973  13.241   4.917  13.932
 5026SOL     OW16974   3.244   0.419   3.081
 5026SOL    HW116975   3.158   0.378   3.070
 5026SOL    HW216976   3.240   0.497   3.025
 5027SOL     OW16977  10.459   3.663   1.345
 5027SOL    HW116978  10.541   3.618   1.363
 5027SOL    HW216979  10.426   3.622   1.265
 5028SOL     OW16980   4.640   0.617  12.857
 5028SOL    HW116981   4.587   0.556  12.806
 5028SOL    HW216982   4.611   0.603  12.947
 5029SOL     OW16983   6.815  10.891   1.398
 5029SOL    HW116984   6.765  10.814   1.424
 5029SOL    HW216985   6.749  10.959   1.385
 5030SOL     OW16986   6.777   9.310   0.572
 5030SOL    HW116987   6.684   9.298   0.553
 5030SOL    HW216988   6.781   9.328   0.665
 5031SOL     OW16989  11.488   6.609  14.377
 5031SOL    HW116990  11.449   6.523  14.395
 5031SOL    HW216991  11.564   6.589  14.323
 5032SOL     OW16992   7.602  10.988   8.860
 5032SOL    HW116993   7.595  10.895   8.884
 5032SOL    HW216994   7.646  11.028   8.935
 5033SOL     OW16995   8.894   5.789   0.832
 5033SOL    HW116996   8.979   5.764   0.868
 5033SOL    HW216997   8.832   5.768   0.901
 5034SOL     OW16998   0.176   2.344   7.369
 5034SOL    HW116999   0.161   2.429   7.328
 5034SOL    HW217000   0.107   2.288   7.334
 5035SOL     OW17001   1.764   0.035   4.523
 5035SOL    HW117002   1.753  14.838   4.457
 5035SOL    HW217003   1.725   0.113   4.483
 5036SOL     OW17004   9.127   1.993   1.269
 5036SOL    HW117005   9.174   2.066   1.229
 5036SOL    HW217006   9.140   2.004   1.363
 5037SOL     OW17007  10.169   2.604   6.930
 5037SOL    HW117008  10.160   2.553   6.850
 5037SOL    HW217009  10.251   2.652   6.919
 5038SOL     OW17010   9.789   1.206   2.813
 5038SOL    HW117011   9.786   1.132   2.752
 5038SOL    HW217012   9.706   1.251   2.801
 5039SOL     OW17013  10.668   6.403   4.818
 5039SOL    HW117014  10.707   6.339   4.878
 5039SOL    HW217015  10.742   6.439   4.769
 5040SOL     OW17016  12.296   5.831   3.661
 5040SOL    HW117017  12.361   5.870   3.603
 5040SOL    HW217018  12.316   5.869   3.747
 5041SOL     OW17019   1.502   5.284  14.691
 5041SOL    HW117020   1.515   5.276  14.786
 5041SOL    HW217021   1.590   5.286  14.655
 5042SOL     OW17022   0.244   3.031   8.315
 5042SOL    HW117023   0.260   3.122   8.288
 5042SOL    HW217024   0.322   2.984   8.284
 5043SOL     OW17025  12.669   2.852  12.340
 5043SOL    HW117026  12.679   2.798  12.261
 5043SOL    HW217027  12.632   2.934  12.308
 5044SOL     OW17028   1.562  13.210   5.437
 5044SOL    HW117029   1.539  13.249   5.522
 5044SOL    HW217030   1.564  13.116   5.454
 5045SOL     OW17031   5.641   6.244   1.604
 5045SOL    HW117032   5.681   6.308   1.664
 5045SOL    HW217033   5.582   6.296   1.550
 5046SOL     OW17034  11.098   2.107   1.308
 5046SOL    HW117035  11.071   2.061   1.228
 5046SOL    HW217036  11.076   2.046   1.379
 5047SOL     OW17037   8.350   9.836   6.742
 5047SOL    HW117038   8.356   9.861   6.834
 5047SOL    HW217039   8.273   9.781   6.737
 5048SOL     OW17040  13.564  10.249   5.398
 5048SOL    HW117041  13.532  10.158   5.397
 5048SOL    HW217042  13.488  10.301   5.422
 5049SOL     OW17043  11.409   7.484   0.980
 5049SOL    HW117044  11.342   7.542   0.943
 5049SOL    HW217045  11.487   7.501   0.927
 5050SOL     OW17046  12.583  13.623   9.715
 5050SOL    HW117047  12.587  13.716   9.738
 5050SOL    HW217048  12.612  13.621   9.624
 5051SOL     OW17049   3.212   9.929   5.928
 5051SOL    HW117050   3.236  10.008   5.976
 5051SOL    HW217051   3.117   9.937   5.915
 5052SOL     OW17052   4.278  14.571   4.475
 5052SOL    HW117053   4.190  14.553   4.507
 5052SOL    HW217054   4.336  14.527   4.537
 5053SOL     OW17055   0.124  11.796  12.774
 5053SOL    HW117056   0.082  11.848  12.842
 5053SOL    HW217057   0.074  11.714  12.771
 5054SOL     OW17058   9.778   5.050   2.454
 5054SOL    HW117059   9.780   5.064   2.359
 5054SOL    HW217060   9.808   5.133   2.491
 5055SOL     OW17061  13.079   7.551   1.191
 5055SOL    HW117062  13.002   7.591   1.152
 5055SOL    HW217063  13.059   7.546   1.285
 5056SOL     OW17064  14.088   1.765   8.629
 5056SOL    HW117065  14.122   1.687   8.587
 5056SOL    HW217066  14.142   1.776   8.707
 5057SOL     OW17067   2.032  12.282   5.190
 5057SOL    HW117068   2.089  12.258   5.117
 5057SOL    HW217069   1.950  12.236   5.174
 5058SOL     OW17070  11.428   2.158   4.863
 5058SOL    HW117071  11.471   2.076   4.840
 5058SOL    HW217072  11.349   2.132   4.910
 5059SOL     OW17073   6.134  10.928   0.484
 5059SOL    HW117074   6.147  10.851   0.429
 5059SOL    HW217075   6.221  10.948   0.519
 5060SOL     OW17076  11.617   0.141   8.692
 5060SOL    HW117077  11.611   0.048   8.672
 5060SOL    HW217078  11.681   0.175   8.630
 5061SOL     OW17079   1.322   5.076  13.690
 5061SOL    HW117080   1.401   5.116  13.725
 5061SOL    HW217081   1.258   5.147  13.687
 5062SOL     OW17082  10.863   7.923   4.194
 5062SOL    HW117083  10.789   7.982   4.184
 5062SOL    HW217084  10.840   7.847   4.140
 5063SOL     OW17085   7.997  12.622  13.087
 5063SOL    HW117086   7.973  12.550  13.028
 5063SOL    HW217087   8.088  12.606  13.110
 5064SOL     OW17088   5.412   5.715  10.012
 5064SOL    HW117089   5.459   5.791  10.047
 5064SOL    HW217090   5.381   5.669  10.090
 5065SOL     OW17091   0.568   5.754  12.801
 5065SOL    HW117092   0.531   5.819  12.741
 5065SOL    HW217093   0.660   5.780  12.810
 5066SOL     OW17094  11.439   2.036  13.616
 5066SOL    HW117095  11.371   2.011  13.678
 5066SOL    HW217096  11.407   2.118  13.577
 5067SOL     OW17097  13.149   9.796   0.498
 5067SOL    HW117098  13.113   9.719   0.454
 5067SOL    HW217099  13.187   9.762   0.578
 5068SOL     OW17100  14.346  12.251  12.957
 5068SOL    HW117101  14.308  12.328  12.916
 5068SOL    HW217102  14.366  12.279  13.046
 5069SOL     OW17103  13.101   2.099  12.290
 5069SOL    HW117104  13.170   2.034  12.309
 5069SOL    HW217105  13.115   2.168  12.356
 5070SOL     OW17106   8.302   1.760  12.617
 5070SOL    HW117107   8.384   1.760  12.666
 5070SOL    HW217108   8.300   1.845  12.573
 5071SOL     OW17109   3.110  10.127   9.207
 5071SOL    HW117110   3.120  10.160   9.296
 5071SOL    HW217111   3.110  10.032   9.216
 5072SOL     OW17112  10.607   9.841   5.418
 5072SOL    HW117113  10.633   9.800   5.501
 5072SOL    HW217114  10.634   9.778   5.351
 5073SOL     OW17115  10.249   7.361   4.458
 5073SOL    HW117116  10.305   7.292   4.492
 5073SOL    HW217117  10.253   7.352   4.363
 5074SOL     OW17118   6.970  14.036   9.348
 5074SOL    HW117119   7.063  14.017   9.362
 5074SOL    HW217120   6.932  13.952   9.321
 5075SOL     OW17121  10.184   2.065   5.804
 5075SOL    HW117122  10.158   1.985   5.757
 5075SOL    HW217123  10.257   2.100   5.753
 5076SOL     OW17124   0.189   0.163   3.514
 5076SOL    HW117125   0.204   0.257   3.520
 5076SOL    HW217126   0.244   0.126   3.584
 5077SOL     OW17127   3.508   3.690   2.486
 5077SOL    HW117128   3.595   3.674   2.450
 5077SOL    HW217129   3.455   3.716   2.410
 5078SOL     OW17130   0.332  13.761   0.199
 5078SOL    HW117131   0.411  13.814   0.185
 5078SOL    HW217132   0.333  13.697   0.127
 5079SOL     OW17133  13.353   3.458   5.166
 5079SOL    HW117134  13.377   3.536   5.216
 5079SOL    HW217135  13.260   3.445   5.186
 5080SOL     OW17136  13.222   2.553   6.653
 5080SOL    HW117137  13.129   2.542   6.673
 5080SOL    HW217138  13.224   2.624   6.588
 5081SOL     OW17139   1.117  14.041   3.263
 5081SOL    HW117140   1.038  14.063   3.213
 5081SOL    HW217141   1.172  13.993   3.201
 5082SOL     OW17142  10.107  10.262  12.147
 5082SOL    HW117143  10.095  10.168  12.138
 5082SOL    HW217144  10.150  10.288  12.065
 5083SOL     OW17145   9.779   8.466   9.676
 5083SOL    HW117146   9.829   8.433   9.601
 5083SOL    HW217147   9.707   8.516   9.637
 5084SOL     OW17148   8.208   4.814   8.938
 5084SOL    HW117149   8.113   4.814   8.926
 5084SOL    HW217150   8.239   4.743   8.882
 5085SOL     OW17151  14.242   4.618   3.059
 5085SOL    HW117152  14.323   4.609   3.109
 5085SOL    HW217153  14.216   4.709   3.072
 5086SOL     OW17154   9.904   6.697   1.401
 5086SOL    HW117155   9.859   6.615   1.380
 5086SOL    HW217156   9.865   6.761   1.343
 5087SOL     OW17157   9.315   4.619   5.729
 5087SOL    HW117158   9.317   4.631   5.823
 5087SOL    HW217159   9.342   4.528   5.716
 5088SOL     OW17160   3.794  12.508   9.661
 5088SOL    HW117161   3.846  12.576   9.619
 5088SOL    HW217162   3.776  12.445   9.592
 5089SOL     OW17163   2.319  14.146  14.831
 5089SOL    HW117164   2.250  14.096  14.786
 5089SOL    HW217165   2.390  14.083  14.844
 5090SOL     OW17166  14.374   7.189  12.349
 5090SOL    HW117167  14.418   7.204  12.266
 5090SOL    HW217168  14.439   7.145  12.404
 5091SOL     OW17169  11.545  10.633  12.099
 5091SOL    HW117170  11.469  10.655  12.045
 5091SOL    HW217171  11.606  10.705  12.085
 5092SOL     OW17172   6.209   9.523   1.850
 5092SOL    HW117173   6.187   9.459   1.782
 5092SOL    HW217174   6.187   9.479   1.932
 5093SOL     OW17175   7.113   9.238  11.460
 5093SOL    HW117176   7.043   9.208  11.402
 5093SOL    HW217177   7.078   9.228  11.548
 5094SOL     OW17178   5.459  10.793  11.895
 5094SOL    HW117179   5.442  10.877  11.938
 5094SOL    HW217180   5.381  10.778  11.841
 5095SOL     OW17181   0.012   5.211   2.636
 5095SOL    HW117182  14.817   5.210   2.705
 5095SOL    HW217183   0.055   5.296   2.646
 5096SOL     OW17184   8.099  13.853   1.907
 5096SOL    HW117185   8.016  13.886   1.939
 5096SOL    HW217186   8.144  13.820   1.985
 5097SOL     OW17187   1.270   5.875   1.590
 5097SOL    HW117188   1.305   5.957   1.625
 5097SOL    HW217189   1.175   5.885   1.595
 5098SOL     OW17190   0.540   5.339  11.033
 5098SOL    HW117191   0.488   5.385  10.967
 5098SOL    HW217192   0.516   5.380  11.116
 5099SOL     OW17193   5.653   9.875   2.749
 5099SOL    HW117194   5.737   9.834   2.768
 5099SOL    HW217195   5.612   9.886   2.835
 5100SOL     OW17196   7.572  11.178   5.039
 5100SOL    HW117197   7.519  11.135   4.971
 5100SOL    HW217198   7.511  11.194   5.111
 5101SOL     OW17199   3.311   2.477   9.475
 5101SOL    HW117200   3.291   2.501   9.385
 5101SOL    HW217201   3.393   2.523   9.495
 5102SOL     OW17202   0.701   0.003  14.298
 5102SOL    HW117203   0.725   0.095  14.308
 5102SOL    HW217204   0.611   0.005  14.264
 5103SOL     OW17205  14.719  10.633   4.824
 5103SOL    HW117206  14.683  10.650   4.737
 5103SOL    HW217207  14.660  10.679   4.884
 5104SOL     OW17208   6.090  14.828  11.028
 5104SOL    HW117209   6.136  14.813  10.945
 5104SOL    HW217210   6.141   0.024  11.072
 5105SOL     OW17211  10.279   1.429   6.967
 5105SOL    HW117212  10.232   1.512   6.960
 5105SOL    HW217213  10.371   1.452   6.957
 5106SOL     OW17214  13.252   2.987   6.497
 5106SOL    HW117215  13.211   2.901   6.488
 5106SOL    HW217216  13.240   3.010   6.589
 5107SOL     OW17217   3.079   1.458   5.976
 5107SOL    HW117218   3.157   1.484   6.025
 5107SOL    HW217219   3.095   1.489   5.887
 5108SOL     OW17220   1.232  10.561   9.863
 5108SOL    HW117221   1.197  10.487   9.814
 5108SOL    HW217222   1.314  10.528   9.901
 5109SOL     OW17223  13.744   0.636   7.860
 5109SOL    HW117224  13.732   0.722   7.821
 5109SOL    HW217225  13.802   0.651   7.935
 5110SOL     OW17226   4.116   4.480   4.637
 5110SOL    HW117227   4.137   4.571   4.658
 5110SOL    HW217228   4.079   4.445   4.719
 5111SOL     OW17229   3.135   2.271   3.994
 5111SOL    HW117230   3.084   2.286   3.915
 5111SOL    HW217231   3.220   2.240   3.962
 5112SOL     OW17232   8.853   6.825   1.482
 5112SOL    HW117233   8.867   6.769   1.406
 5112SOL    HW217234   8.768   6.867   1.466
 5113SOL     OW17235   2.928  12.003   7.195
 5113SOL    HW117236   2.937  12.090   7.155
 5113SOL    HW217237   2.870  12.017   7.270
 5114SOL     OW17238  13.472   2.558   9.069
 5114SOL    HW117239  13.488   2.514   8.986
 5114SOL    HW217240  13.557   2.597   9.092
 5115SOL     OW17241   1.127  11.456   0.647
 5115SOL    HW117242   1.155  11.385   0.588
 5115SOL    HW217243   1.181  11.531   0.621
 5116SOL     OW17244   8.500  14.709  14.560
 5116SOL    HW117245   8.588  14.735  14.535
 5116SOL    HW217246   8.467  14.782  14.612
 5117SOL     OW17247   3.018  14.030   0.140
 5117SOL    HW117248   3.046  14.100   0.082
 5117SOL    HW217249   3.098  13.980   0.158
 5118SOL     OW17250   4.870  10.880   1.180
 5118SOL    HW117251   4.874  10.912   1.271
 5118SOL    HW217252   4.789  10.917   1.145
 5119SOL     OW17253   2.564   9.923   5.476
 5119SOL    HW117254   2.588   9.924   5.383
 5119SOL    HW217255   2.622   9.988   5.516
 5120SOL     OW17256   0.622  10.332   4.758
 5120SOL    HW117257   0.666  10.260   4.801
 5120SOL    HW217258   0.691  10.380   4.713
 5121SOL     OW17259   6.078  14.834   9.659
 5121SOL    HW117260   6.030   0.042   9.678
 5121SOL    HW217261   6.071  14.824   9.564
 5122SOL     OW17262  14.453   6.556   6.797
 5122SOL    HW117263  14.487   6.484   6.743
 5122SOL    HW217264  14.368   6.576   6.758
 5123SOL     OW17265   5.592  11.077  11.015
 5123SOL    HW117266   5.649  11.013  10.972
 5123SOL    HW217267   5.535  11.110  10.946
 5124SOL     OW17268   0.400  14.662  13.162
 5124SOL    HW117269   0.437  14.595  13.105
 5124SOL    HW217270   0.471  14.725  13.176
 5125SOL     OW17271  12.586  14.549   0.570
 5125SOL    HW117272  12.602  14.511   0.656
 5125SOL    HW217273  12.665  14.530   0.519
 5126SOL     OW17274  10.999  10.414   5.718
 5126SOL    HW117275  10.928  10.408   5.654
 5126SOL    HW217276  11.071  10.456   5.671
 5127SOL     OW17277   1.511   4.950   4.780
 5127SOL    HW117278   1.539   4.863   4.808
 5127SOL    HW217279   1.423   4.960   4.818
 5128SOL     OW17280  10.479  14.709  11.866
 5128SOL    HW117281  10.511  14.685  11.953
 5128SOL    HW217282  10.386  14.687  11.867
 5129SOL     OW17283   9.595   0.557   2.808
 5129SOL    HW117284   9.661   0.524   2.869
 5129SOL    HW217285   9.522   0.495   2.816
 5130SOL     OW17286   1.030  14.386  11.847
 5130SOL    HW117287   0.986  14.328  11.785
 5130SOL    HW217288   0.978  14.378  11.927
 5131SOL     OW17289   0.884   0.696   5.341
 5131SOL    HW117290   0.926   0.678   5.425
 5131SOL    HW217291   0.930   0.773   5.308
 5132SOL     OW17292  12.133   1.515   8.826
 5132SOL    HW117293  12.086   1.574   8.767
 5132SOL    HW217294  12.167   1.445   8.769
 5133SOL     OW17295   2.386  13.937   0.712
 5133SOL    HW117296   2.311  13.884   0.737
 5133SOL    HW217297   2.453  13.918   0.778
 5134SOL     OW17298   3.229   5.952  10.601
 5134SOL    HW117299   3.218   6.020  10.667
 5134SOL    HW217300   3.146   5.904  10.603
 5135SOL     OW17301   7.011   6.025   8.642
 5135SOL    HW117302   6.969   5.959   8.698
 5135SOL    HW217303   6.991   5.997   8.553
 5136SOL     OW17304  12.411  13.694   5.810
 5136SOL    HW117305  12.433  13.631   5.741
 5136SOL    HW217306  12.316  13.707   5.801
 5137SOL     OW17307  12.720   7.577   5.079
 5137SOL    HW117308  12.713   7.553   4.987
 5137SOL    HW217309  12.634   7.554   5.116
 5138SOL     OW17310  11.063   5.090   9.245
 5138SOL    HW117311  11.130   5.033   9.283
 5138SOL    HW217312  11.042   5.152   9.315
 5139SOL     OW17313   8.906   8.784   7.577
 5139SOL    HW117314   8.918   8.813   7.667
 5139SOL    HW217315   8.993   8.755   7.549
 5140SOL     OW17316  12.371   3.921   1.751
 5140SOL    HW117317  12.307   3.988   1.728
 5140SOL    HW217318  12.456   3.963   1.734
 5141SOL     OW17319   3.313  14.823  12.889
 5141SOL    HW117320   3.245  14.786  12.833
 5141SOL    HW217321   3.344  14.749  12.941
 5142SOL     OW17322  10.615   2.441  11.730
 5142SOL    HW117323  10.607   2.384  11.653
 5142SOL    HW217324  10.708   2.437  11.754
 5143SOL     OW17325   3.887   4.150  14.305
 5143SOL    HW117326   3.970   4.143  14.353
 5143SOL    HW217327   3.883   4.241  14.278
 5144SOL     OW17328   6.228   6.611   4.220
 5144SOL    HW117329   6.242   6.590   4.313
 5144SOL    HW217330   6.175   6.539   4.187
 5145SOL     OW17331  11.423  10.686   8.621
 5145SOL    HW117332  11.397  10.613   8.677
 5145SOL    HW217333  11.489  10.649   8.562
 5146SOL     OW17334   8.605  11.574   9.815
 5146SOL    HW117335   8.547  11.643   9.848
 5146SOL    HW217336   8.597  11.503   9.879
 5147SOL     OW17337   1.098  14.394   6.154
 5147SOL    HW117338   1.186  14.413   6.124
 5147SOL    HW217339   1.103  14.396   6.249
 5148SOL     OW17340   6.676   0.386  13.020
 5148SOL    HW117341   6.600   0.406  12.966
 5148SOL    HW217342   6.749   0.428  12.975
 5149SOL     OW17343   5.081   8.693   3.050
 5149SOL    HW117344   5.165   8.657   3.077
 5149SOL    HW217345   5.076   8.778   3.092
 5150SOL     OW17346  13.075  13.221  14.867
 5150SOL    HW117347  13.072  13.317  14.859
 5150SOL    HW217348  13.079  13.205   0.089
 5151SOL     OW17349   9.208   8.808   7.018
 5151SOL    HW117350   9.153   8.755   6.961
 5151SOL    HW217351   9.147   8.862   7.068
 5152SOL     OW17352   1.989   7.377   3.848
 5152SOL    HW117353   2.019   7.345   3.763
 5152SOL    HW217354   1.912   7.430   3.828
 5153SOL     OW17355  12.733   6.373   1.701
 5153SOL    HW117356  12.654   6.379   1.648
 5153SOL    HW217357  12.778   6.296   1.667
 5154SOL     OW17358   4.965   1.310   4.076
 5154SOL    HW117359   5.039   1.346   4.029
 5154SOL    HW217360   4.907   1.386   4.091
 5155SOL     OW17361   2.118   0.374   7.084
 5155SOL    HW117362   2.213   0.364   7.074
 5155SOL    HW217363   2.105   0.387   7.178
 5156SOL     OW17364   0.128   5.778   6.914
 5156SOL    HW117365   0.147   5.836   6.988
 5156SOL    HW217366   0.210   5.775   6.865
 5157SOL     OW17367   2.149  12.208  10.401
 5157SOL    HW117368   2.146  12.295  10.441
 5157SOL    HW217369   2.191  12.153  10.467
 5158SOL     OW17370   6.765   8.761   1.171
 5158SOL    HW117371   6.742   8.844   1.128
 5158SOL    HW217372   6.824   8.787   1.242
 5159SOL     OW17373  11.431   3.133  12.456
 5159SOL    HW117374  11.486   3.065  12.495
 5159SOL    HW217375  11.341   3.106  12.474
 5160SOL     OW17376   4.020   6.398   8.961
 5160SOL    HW117377   3.940   6.411   9.012
 5160SOL    HW217378   4.091   6.418   9.022
 5161SOL     OW17379  13.669   5.356  12.085
 5161SOL    HW117380  13.590   5.373  12.033
 5161SOL    HW217381  13.738   5.342  12.020
 5162SOL     OW17382  11.735  14.328   4.593
 5162SOL    HW117383  11.697  14.299   4.510
 5162SOL    HW217384  11.793  14.400   4.569
 5163SOL     OW17385  14.535   3.045   3.578
 5163SOL    HW117386  14.499   3.101   3.646
 5163SOL    HW217387  14.465   2.982   3.559
 5164SOL     OW17388  14.507   0.327  11.960
 5164SOL    HW117389  14.593   0.346  11.997
 5164SOL    HW217390  14.491   0.400  11.899
 5165SOL     OW17391   0.693   7.822  10.953
 5165SOL    HW117392   0.765   7.775  10.909
 5165SOL    HW217393   0.625   7.756  10.965
 5166SOL     OW17394  13.478   6.772  10.901
 5166SOL    HW117395  13.545   6.840  10.906
 5166SOL    HW217396  13.395   6.820  10.909
 5167SOL     OW17397   3.992   4.809   8.027
 5167SOL    HW117398   3.899   4.788   8.019
 5167SOL    HW217399   4.033   4.727   8.055
 5168SOL     OW17400  14.644   4.740   5.256
 5168SOL    HW117401  14.586   4.736   5.333
 5168SOL    HW217402  14.604   4.679   5.194
 5169SOL     OW17403  13.111   6.121  13.722
 5169SOL    HW117404  13.142   6.131  13.632
 5169SOL    HW217405  13.121   6.027  13.740
 5170SOL     OW17406   7.193  10.517   0.024
 5170SOL    HW117407   7.235  10.592   0.067
 5170SOL    HW217408   7.106  10.513   0.062
 5171SOL     OW17409   3.015   2.604  11.900
 5171SOL    HW117410   2.996   2.587  11.808
 5171SOL    HW217411   3.019   2.699  11.907
 5172SOL     OW17412   1.664   8.011   7.611
 5172SOL    HW117413   1.615   8.087   7.578
 5172SOL    HW217414   1.643   8.008   7.704
 5173SOL     OW17415  10.258   7.143   6.113
 5173SOL    HW117416  10.242   7.177   6.201
 5173SOL    HW217417  10.281   7.051   6.127
 5174SOL     OW17418  13.138  11.041   1.115
 5174SOL    HW117419  13.145  11.011   1.205
 5174SOL    HW217420  13.051  11.081   1.110
 5175SOL     OW17421   1.453   1.107  13.875
 5175SOL    HW117422   1.442   1.146  13.962
 5175SOL    HW217423   1.547   1.111  13.859
 5176SOL     OW17424   1.726   6.096  13.543
 5176SOL    HW117425   1.739   6.190  13.553
 5176SOL    HW217426   1.733   6.061  13.632
 5177SOL     OW17427   4.561   4.274  13.125
 5177SOL    HW117428   4.599   4.234  13.047
 5177SOL    HW217429   4.553   4.367  13.103
 5178SOL     OW17430   1.989   8.161   6.386
 5178SOL    HW117431   1.924   8.223   6.352
 5178SOL    HW217432   1.955   8.075   6.363
 5179SOL     OW17433  13.688  10.301   3.792
 5179SOL    HW117434  13.735  10.378   3.762
 5179SOL    HW217435  13.600  10.311   3.756
 5180SOL     OW17436  11.315   5.156   8.113
 5180SOL    HW117437  11.361   5.084   8.156
 5180SOL    HW217438  11.284   5.118   8.030
 5181SOL     OW17439   6.219  11.999   8.011
 5181SOL    HW117440   6.279  12.064   7.975
 5181SOL    HW217441   6.142  12.002   7.953
 5182SOL     OW17442  11.987  10.883   0.391
 5182SOL    HW117443  12.035  10.957   0.430
 5182SOL    HW217444  12.015  10.807   0.442
 5183SOL     OW17445   7.765   6.770  14.376
 5183SOL    HW117446   7.685   6.800  14.332
 5183SOL    HW217447   7.810   6.716  14.311
 5184SOL     OW17448  14.275   2.253   8.808
 5184SOL    HW117449  14.207   2.189   8.831
 5184SOL    HW217450  14.353   2.223   8.855
 5185SOL     OW17451   0.746  10.452   2.991
 5185SOL    HW117452   0.702  10.470   3.074
 5185SOL    HW217453   0.678  10.414   2.935
 5186SOL     OW17454   4.447   1.243   2.152
 5186SOL    HW117455   4.369   1.255   2.207
 5186SOL    HW217456   4.520   1.266   2.209
 5187SOL     OW17457  13.808  13.313  11.735
 5187SOL    HW117458  13.772  13.224  11.737
 5187SOL    HW217459  13.775  13.351  11.653
 5188SOL     OW17460   8.973  12.683  10.473
 5188SOL    HW117461   8.991  12.750  10.407
 5188SOL    HW217462   8.880  12.662  10.461
 5189SOL     OW17463   1.060  14.752   7.547
 5189SOL    HW117464   1.084  14.815   7.615
 5189SOL    HW217465   1.143  14.708   7.525
 5190SOL     OW17466   1.598  13.123   7.369
 5190SOL    HW117467   1.604  13.079   7.454
 5190SOL    HW217468   1.656  13.072   7.312
 5191SOL     OW17469  13.246  10.747  14.846
 5191SOL    HW117470  13.341  10.737  14.843
 5191SOL    HW217471  13.229  10.832  14.807
 5192SOL     OW17472   8.247   5.605   3.535
 5192SOL    HW117473   8.342   5.617   3.538
 5192SOL    HW217474   8.225   5.561   3.617
 5193SOL     OW17475   3.136  14.074  10.804
 5193SOL    HW117476   3.163  14.146  10.861
 5193SOL    HW217477   3.182  13.998  10.839
 5194SOL     OW17478   4.316   9.132  14.633
 5194SOL    HW117479   4.358   9.068  14.576
 5194SOL    HW217480   4.326   9.095  14.721
 5195SOL     OW17481  11.018   0.782  11.033
 5195SOL    HW117482  11.067   0.735  11.100
 5195SOL    HW217483  11.065   0.763  10.951
 5196SOL     OW17484  10.909  10.944  12.888
 5196SOL    HW117485  10.929  10.866  12.836
 5196SOL    HW217486  10.962  11.014  12.848
 5197SOL     OW17487   1.197   2.000  13.847
 5197SOL    HW117488   1.177   2.035  13.760
 5197SOL    HW217489   1.283   2.036  13.868
 5198SOL     OW17490   8.202   5.431   7.976
 5198SOL    HW117491   8.231   5.519   7.998
 5198SOL    HW217492   8.131   5.444   7.913
 5199SOL     OW17493   3.874   1.952  12.635
 5199SOL    HW117494   3.855   2.029  12.689
 5199SOL    HW217495   3.954   1.916  12.674
 5200SOL     OW17496   3.686   2.963  11.628
 5200SOL    HW117497   3.753   3.025  11.599
 5200SOL    HW217498   3.613   2.976  11.569
 5201SOL     OW17499   9.851   0.647   2.372
 5201SOL    HW117500   9.788   0.613   2.436
 5201SOL    HW217501   9.797   0.690   2.305
 5202SOL     OW17502   6.007   5.946   7.928
 5202SOL    HW117503   6.067   5.895   7.983
 5202SOL    HW217504   5.937   5.885   7.906
 5203SOL     OW17505   2.421   8.139  13.220
 5203SOL    HW117506   2.356   8.165  13.285
 5203SOL    HW217507   2.490   8.096  13.270
 5204SOL     OW17508   6.191   9.365   7.671
 5204SOL    HW117509   6.165   9.439   7.618
 5204SOL    HW217510   6.110   9.335   7.712
 5205SOL     OW17511   8.715   3.781  12.732
 5205SOL    HW117512   8.766   3.846  12.684
 5205SOL    HW217513   8.764   3.700  12.721
 5206SOL     OW17514   8.196   9.144  14.731
 5206SOL    HW117515   8.254   9.148  14.655
 5206SOL    HW217516   8.238   9.201  14.796
 5207SOL     OW17517   4.068   5.722   6.919
 5207SOL    HW117518   4.105   5.800   6.960
 5207SOL    HW217519   3.979   5.716   6.955
 5208SOL     OW17520   2.027  11.651   3.929
 5208SOL    HW117521   2.033  11.621   3.838
 5208SOL    HW217522   2.026  11.747   3.922
 5209SOL     OW17523   2.121   4.556   8.216
 5209SOL    HW117524   2.111   4.651   8.211
 5209SOL    HW217525   2.048   4.527   8.271
 5210SOL     OW17526  11.713   3.960   2.540
 5210SOL    HW117527  11.687   4.044   2.503
 5210SOL    HW217528  11.688   3.966   2.633
 5211SOL     OW17529   9.836   4.569   5.267
 5211SOL    HW117530   9.867   4.516   5.340
 5211SOL    HW217531   9.838   4.659   5.299
 5212SOL     OW17532   7.969   0.187  11.995
 5212SOL    HW117533   8.044   0.139  12.030
 5212SOL    HW217534   7.948   0.251  12.063
 5213SOL     OW17535   1.584   9.461   6.786
 5213SOL    HW117536   1.648   9.390   6.785
 5213SOL    HW217537   1.512   9.429   6.732
 5214SOL     OW17538   4.968   3.329  14.001
 5214SOL    HW117539   4.939   3.420  14.011
 5214SOL    HW217540   4.931   3.302  13.917
 5215SOL     OW17541   3.513   5.186   2.274
 5215SOL    HW117542   3.419   5.188   2.253
 5215SOL    HW217543   3.548   5.116   2.219
 5216SOL     OW17544   3.348   0.868   9.392
 5216SOL    HW117545   3.394   0.820   9.323
 5216SOL    HW217546   3.408   0.938   9.417
 5217SOL     OW17547  14.708   1.810   9.648
 5217SOL    HW117548  14.741   1.870   9.715
 5217SOL    HW217549  14.753   1.727   9.666
 5218SOL     OW17550  12.845   3.677   3.783
 5218SOL    HW117551  12.930   3.720   3.769
 5218SOL    HW217552  12.865   3.584   3.783
 5219SOL     OW17553   0.779   2.476  12.806
 5219SOL    HW117554   0.783   2.537  12.880
 5219SOL    HW217555   0.710   2.511  12.750
 5220SOL     OW17556  10.374   6.238  13.983
 5220SOL    HW117557  10.359   6.201  14.070
 5220SOL    HW217558  10.441   6.182  13.944
 5221SOL     OW17559   5.063   1.356  13.732
 5221SOL    HW117560   4.988   1.298  13.728
 5221SOL    HW217561   5.081   1.368  13.825
 5222SOL     OW17562  11.575   9.382  14.870
 5222SOL    HW117563  11.516   9.443  14.826
 5222SOL    HW217564  11.528   9.299  14.871
 5223SOL     OW17565   1.373   9.151   2.165
 5223SOL    HW117566   1.377   9.230   2.219
 5223SOL    HW217567   1.284   9.153   2.128
 5224SOL     OW17568   3.465   7.764  10.776
 5224SOL    HW117569   3.536   7.815  10.815
 5224SOL    HW217570   3.421   7.825  10.717
 5225SOL     OW17571   3.578  12.502  14.282
 5225SOL    HW117572   3.639  12.476  14.213
 5225SOL    HW217573   3.545  12.587  14.254
 5226SOL     OW17574  12.414  12.107  12.943
 5226SOL    HW117575  12.344  12.044  12.960
 5226SOL    HW217576  12.486  12.053  12.908
 5227SOL     OW17577   3.856   6.368  14.188
 5227SOL    HW117578   3.932   6.397  14.138
 5227SOL    HW217579   3.818   6.296  14.138
 5228SOL     OW17580  10.878   8.238   4.684
 5228SOL    HW117581  10.949   8.187   4.723
 5228SOL    HW217582  10.877   8.211   4.592
 5229SOL     OW17583   7.315   4.324  10.067
 5229SOL    HW117584   7.336   4.312   9.975
 5229SOL    HW217585   7.246   4.261  10.085
 5230SOL     OW17586   7.727   7.603  12.780
 5230SOL    HW117587   7.675   7.622  12.858
 5230SOL    HW217588   7.663   7.599  12.709
 5231SOL     OW17589   5.817   4.721   7.263
 5231SOL    HW117590   5.886   4.727   7.197
 5231SOL    HW217591   5.856   4.758   7.342
 5232SOL     OW17592  13.510   8.047   0.699
 5232SOL    HW117593  13.597   8.024   0.732
 5232SOL    HW217594  13.455   7.973   0.722
 5233SOL     OW17595  12.485  12.191   1.602
 5233SOL    HW117596  12.433  12.193   1.522
 5233SOL    HW217597  12.521  12.103   1.605
 5234SOL     OW17598   4.701   2.656  11.847
 5234SOL    HW117599   4.611   2.666  11.817
 5234SOL    HW217600   4.755   2.678  11.772
 5235SOL     OW17601   6.007   5.530   3.892
 5235SOL    HW117602   6.076   5.584   3.930
 5235SOL    HW217603   6.053   5.460   3.846
 5236SOL     OW17604   8.434  14.774   6.592
 5236SOL    HW117605   8.429  14.699   6.651
 5236SOL    HW217606   8.359  14.763   6.533
 5237SOL     OW17607  12.819  12.226   5.124
 5237SOL    HW117608  12.862  12.151   5.082
 5237SOL    HW217609  12.790  12.191   5.209
 5238SOL     OW17610   3.644  12.836   4.797
 5238SOL    HW117611   3.643  12.921   4.754
 5238SOL    HW217612   3.714  12.843   4.862
 5239SOL     OW17613   3.106  12.696   9.025
 5239SOL    HW117614   3.115  12.703   8.930
 5239SOL    HW217615   3.033  12.754   9.047
 5240SOL     OW17616   6.901   3.298  13.740
 5240SOL    HW117617   6.965   3.231  13.716
 5240SOL    HW217618   6.928   3.376  13.691
 5241SOL     OW17619   2.285  13.827   5.348
 5241SOL    HW117620   2.292  13.848   5.255
 5241SOL    HW217621   2.252  13.737   5.350
 5242SOL     OW17622   9.720  11.529   4.798
 5242SOL    HW117623   9.659  11.578   4.743
 5242SOL    HW217624   9.726  11.579   4.879
 5243SOL     OW17625   1.019   0.890  14.830
 5243SOL    HW117626   0.940   0.895  14.775
 5243SOL    HW217627   1.029   0.979  14.865
 5244SOL     OW17628  13.062  12.853   6.637
 5244SOL    HW117629  13.139  12.797   6.642
 5244SOL    HW217630  12.994  12.806   6.686
 5245SOL     OW17631   6.715   2.400  11.549
 5245SOL    HW117632   6.644   2.402  11.485
 5245SOL    HW217633   6.681   2.345  11.620
 5246SOL     OW17634   4.768   0.009   5.517
 5246SOL    HW117635   4.737   0.093   5.482
 5246SOL    HW217636   4.689  14.828   5.524
 5247SOL     OW17637   5.134  11.326   4.114
 5247SOL    HW117638   5.078  11.307   4.038
 5247SOL    HW217639   5.083  11.388   4.166
 5248SOL     OW17640   1.351   8.914  11.830
 5248SOL    HW117641   1.313   8.859  11.899
 5248SOL    HW217642   1.293   8.989  11.825
 5249SOL     OW17643   5.198   6.238  13.251
 5249SOL    HW117644   5.102   6.231  13.249
 5249SOL    HW217645   5.224   6.171  13.315
 5250SOL     OW17646   8.930   0.065  13.999
 5250SOL    HW117647   9.015   0.023  13.991
 5250SOL    HW217648   8.868  14.864  14.005
 5251SOL     OW17649   2.647   3.244   7.122
 5251SOL    HW117650   2.669   3.299   7.047
 5251SOL    HW217651   2.552   3.232   7.115
 5252SOL     OW17652   3.591   9.307  14.060
 5252SOL    HW117653   3.552   9.332  14.143
 5252SOL    HW217654   3.682   9.337  14.066
 5253SOL     OW17655   4.060   9.968   1.610
 5253SOL    HW117656   4.019   9.957   1.695
 5253SOL    HW217657   4.053   9.882   1.568
 5254SOL     OW17658  13.526  13.176   1.124
 5254SOL    HW117659  13.510  13.266   1.150
 5254SOL    HW217660  13.535  13.180   1.029
 5255SOL     OW17661  11.937   1.256  11.232
 5255SOL    HW117662  11.970   1.293  11.315
 5255SOL    HW217663  11.868   1.195  11.259
 5256SOL     OW17664   6.553  12.220  12.670
 5256SOL    HW117665   6.528  12.202  12.579
 5256SOL    HW217666   6.565  12.315  12.673
 5257SOL     OW17667   1.880   1.656  13.541
 5257SOL    HW117668   1.902   1.704  13.621
 5257SOL    HW217669   1.942   1.688  13.476
 5258SOL     OW17670  12.766   0.984   5.296
 5258SOL    HW117671  12.777   1.070   5.256
 5258SOL    HW217672  12.682   0.952   5.262
 5259SOL     OW17673  13.042  14.820   8.569
 5259SOL    HW117674  12.987  14.778   8.635
 5259SOL    HW217675  13.076   0.026   8.611
 5260SOL     OW17676   2.209   7.588   7.332
 5260SOL    HW117677   2.253   7.534   7.398
 5260SOL    HW217678   2.134   7.536   7.304
 5261SOL     OW17679  12.645   5.249   5.849
 5261SOL    HW117680  12.706   5.289   5.911
 5261SOL    HW217681  12.700   5.194   5.794
 5262SOL     OW17682   5.481   2.504   5.370
 5262SOL    HW117683   5.534   2.433   5.406
 5262SOL    HW217684   5.396   2.463   5.350
 5263SOL     OW17685   3.694  13.434  13.828
 5263SOL    HW117686   3.708  13.501  13.895
 5263SOL    HW217687   3.602  13.410  13.837
 5264SOL     OW17688  14.473  13.897   0.241
 5264SOL    HW117689  14.537  13.863   0.179
 5264SOL    HW217690  14.389  13.867   0.207
 5265SOL     OW17691  13.575  11.704   7.280
 5265SOL    HW117692  13.659  11.688   7.323
 5265SOL    HW217693  13.597  11.721   7.189
 5266SOL     OW17694  13.314   2.599  13.286
 5266SOL    HW117695  13.342   2.520  13.333
 5266SOL    HW217696  13.219   2.589  13.277
 5267SOL     OW17697   8.476  10.559  10.572
 5267SOL    HW117698   8.508  10.488  10.516
 5267SOL    HW217699   8.413  10.517  10.630
 5268SOL     OW17700  13.935   7.208   4.492
 5268SOL    HW117701  14.025   7.192   4.518
 5268SOL    HW217702  13.926   7.161   4.409
 5269SOL     OW17703  11.232   4.630  10.820
 5269SOL    HW117704  11.182   4.549  10.827
 5269SOL    HW217705  11.223   4.672  10.906
 5270SOL     OW17706  10.839   3.428   7.197
 5270SOL    HW117707  10.779   3.499   7.217
 5270SOL    HW217708  10.877   3.451   7.112
 5271SOL     OW17709   3.987   6.964   1.122
 5271SOL    HW117710   3.916   7.022   1.151
 5271SOL    HW217711   4.024   6.929   1.203
 5272SOL     OW17712   8.758  14.245   8.516
 5272SOL    HW117713   8.696  14.172   8.508
 5272SOL    HW217714   8.713  14.309   8.571
 5273SOL     OW17715   3.761   8.727   6.434
 5273SOL    HW117716   3.836   8.707   6.377
 5273SOL    HW217717   3.749   8.821   6.426
 5274SOL     OW17718   9.262   3.107   5.523
 5274SOL    HW117719   9.239   3.024   5.480
 5274SOL    HW217720   9.308   3.157   5.457
 5275SOL     OW17721   6.142   9.838  10.911
 5275SOL    HW117722   6.219   9.784  10.893
 5275SOL    HW217723   6.148   9.909  10.848
 5276SOL     OW17724   3.242  11.346   9.775
 5276SOL    HW117725   3.266  11.399   9.698
 5276SOL    HW217726   3.227  11.410   9.844
 5277SOL     OW17727  12.397  10.893  12.643
 5277SOL    HW117728  12.483  10.860  12.672
 5277SOL    HW217729  12.335  10.854  12.705
 5278SOL     OW17730   1.689   0.203  10.690
 5278SOL    HW117731   1.669   0.185  10.598
 5278SOL    HW217732   1.612   0.251  10.722
 5279SOL     OW17733   5.965   2.469  14.665
 5279SOL    HW117734   5.916   2.406  14.612
 5279SOL    HW217735   6.036   2.499  14.607
 5280SOL     OW17736   9.476   0.901  11.191
 5280SOL    HW117737   9.531   0.830  11.223
 5280SOL    HW217738   9.388   0.863  11.187
 5281SOL     OW17739  11.528  12.802   7.155
 5281SOL    HW117740  11.572  12.873   7.107
 5281SOL    HW217741  11.598  12.738   7.172
 5282SOL     OW17742   0.305   7.769   5.159
 5282SOL    HW117743   0.377   7.710   5.183
 5282SOL    HW217744   0.332   7.807   5.076
 5283SOL     OW17745   0.290   3.421   0.013
 5283SOL    HW117746   0.298   3.424  14.790
 5283SOL    HW217747   0.196   3.422   0.029
 5284SOL     OW17748  12.121   2.643   9.409
 5284SOL    HW117749  12.040   2.627   9.361
 5284SOL    HW217750  12.173   2.565   9.395
 5285SOL     OW17751   4.348   6.278   8.416
 5285SOL    HW117752   4.282   6.229   8.366
 5285SOL    HW217753   4.407   6.210   8.449
 5286SOL     OW17754  13.895   7.373   9.123
 5286SOL    HW117755  13.916   7.311   9.053
 5286SOL    HW217756  13.951   7.448   9.106
 5287SOL     OW17757   7.175   7.569   4.103
 5287SOL    HW117758   7.142   7.570   4.193
 5287SOL    HW217759   7.264   7.535   4.111
 5288SOL     OW17760   1.148   8.530   1.999
 5288SOL    HW117761   1.127   8.622   1.983
 5288SOL    HW217762   1.199   8.531   2.081
 5289SOL     OW17763   7.610   2.361   7.546
 5289SOL    HW117764   7.586   2.281   7.593
 5289SOL    HW217765   7.583   2.432   7.604
 5290SOL     OW17766  14.006   8.156   3.621
 5290SOL    HW117767  13.960   8.159   3.705
 5290SOL    HW217768  14.085   8.105   3.639
 5291SOL     OW17769  11.808  14.680   4.786
 5291SOL    HW117770  11.821  14.611   4.852
 5291SOL    HW217771  11.894  14.694   4.748
 5292SOL     OW17772  10.493   6.282   2.415
 5292SOL    HW117773  10.491   6.225   2.492
 5292SOL    HW217774  10.526   6.366   2.448
 5293SOL     OW17775   7.322   3.054   7.081
 5293SOL    HW117776   7.398   3.002   7.108
 5293SOL    HW217777   7.351   3.145   7.089
 5294SOL     OW17778   0.541   3.666   4.830
 5294SOL    HW117779   0.474   3.601   4.806
 5294SOL    HW217780   0.518   3.691   4.919
 5295SOL     OW17781   9.418   8.845   0.732
 5295SOL    HW117782   9.355   8.913   0.708
 5295SOL    HW217783   9.381   8.764   0.697
 5296SOL     OW17784   4.288   2.337   4.030
 5296SOL    HW117785   4.295   2.242   4.022
 5296SOL    HW217786   4.220   2.362   3.968
 5297SOL     OW17787   4.661   2.015  14.501
 5297SOL    HW117788   4.705   2.089  14.460
 5297SOL    HW217789   4.730   1.970  14.549
 5298SOL     OW17790  12.093   3.677   2.486
 5298SOL    HW117791  12.010   3.699   2.444
 5298SOL    HW217792  12.075   3.595   2.533
 5299SOL     OW17793   8.154   8.220   7.963
 5299SOL    HW117794   8.122   8.301   7.925
 5299SOL    HW217795   8.189   8.245   8.049
 5300SOL     OW17796   5.863  12.417   6.014
 5300SOL    HW117797   5.788  12.361   6.033
 5300SOL    HW217798   5.937  12.357   6.007
 5301SOL     OW17799   6.280   6.789   7.667
 5301SOL    HW117800   6.308   6.713   7.617
 5301SOL    HW217801   6.334   6.787   7.746
 5302SOL     OW17802   4.951   6.834   6.165
 5302SOL    HW117803   4.875   6.857   6.219
 5302SOL    HW217804   4.961   6.909   6.105
 5303SOL     OW17805   8.195   1.430   3.524
 5303SOL    HW117806   8.186   1.343   3.562
 5303SOL    HW217807   8.122   1.437   3.462
 5304SOL     OW17808  13.802  10.490   5.587
 5304SOL    HW117809  13.812  10.502   5.681
 5304SOL    HW217810  13.833  10.572   5.548
 5305SOL     OW17811   8.830  12.524  10.170
 5305SOL    HW117812   8.848  12.597  10.111
 5305SOL    HW217813   8.738  12.503  10.156
 5306SOL     OW17814   6.376   4.585  13.003
 5306SOL    HW117815   6.355   4.645  13.075
 5306SOL    HW217816   6.341   4.628  12.925
 5307SOL     OW17817   5.096  10.765   0.142
 5307SOL    HW117818   5.022  10.727   0.190
 5307SOL    HW217819   5.170  10.709   0.166
 5308SOL     OW17820   7.976   3.520  13.259
 5308SOL    HW117821   7.896   3.488  13.301
 5308SOL    HW217822   8.047   3.471  13.299
 5309SOL     OW17823   3.423  12.105  14.481
 5309SOL    HW117824   3.465  12.166  14.420
 5309SOL    HW217825   3.445  12.019  14.447
 5310SOL     OW17826   5.166   7.825   0.675
 5310SOL    HW117827   5.151   7.730   0.682
 5310SOL    HW217828   5.257   7.836   0.702
 5311SOL     OW17829   3.185  10.181   6.790
 5311SOL    HW117830   3.232  10.204   6.870
 5311SOL    HW217831   3.179  10.263   6.741
 5312SOL     OW17832   2.037   2.255  13.589
 5312SOL    HW117833   2.094   2.194  13.543
 5312SOL    HW217834   1.949   2.224  13.570
 5313SOL     OW17835  10.003   4.228   2.741
 5313SOL    HW117836  10.083   4.186   2.708
 5313SOL    HW217837   9.998   4.201   2.833
 5314SOL     OW17838   1.168   0.065   6.564
 5314SOL    HW117839   1.144   0.098   6.478
 5314SOL    HW217840   1.206   0.140   6.610
 5315SOL     OW17841   2.071   5.675   3.120
 5315SOL    HW117842   2.037   5.604   3.174
 5315SOL    HW217843   2.123   5.729   3.180
 5316SOL     OW17844   1.444  10.786  13.703
 5316SOL    HW117845   1.380  10.719  13.724
 5316SOL    HW217846   1.436  10.799  13.608
 5317SOL     OW17847   8.952   9.745   6.968
 5317SOL    HW117848   9.021   9.762   6.904
 5317SOL    HW217849   8.870   9.762   6.921
 5318SOL     OW17850   9.428  14.344   7.541
 5318SOL    HW117851   9.497  14.348   7.475
 5318SOL    HW217852   9.473  14.361   7.624
 5319SOL     OW17853  11.651   2.682   1.995
 5319SOL    HW117854  11.587   2.639   2.051
 5319SOL    HW217855  11.611   2.765   1.970
 5320SOL     OW17856   9.584   8.727  11.091
 5320SOL    HW117857   9.499   8.696  11.060
 5320SOL    HW217858   9.644   8.654  11.074
 5321SOL     OW17859   3.257   5.845   9.441
 5321SOL    HW117860   3.282   5.765   9.487
 5321SOL    HW217861   3.270   5.914   9.506
 5322SOL     OW17862  13.815   3.559   5.105
 5322SOL    HW117863  13.835   3.475   5.148
 5322SOL    HW217864  13.804   3.536   5.013
 5323SOL     OW17865   6.904   8.553  13.837
 5323SOL    HW117866   6.966   8.581  13.904
 5323SOL    HW217867   6.870   8.470  13.870
 5324SOL     OW17868   0.343   3.897   2.831
 5324SOL    HW117869   0.286   3.907   2.755
 5324SOL    HW217870   0.431   3.917   2.799
 5325SOL     OW17871   2.542   5.501  13.699
 5325SOL    HW117872   2.637   5.513  13.688
 5325SOL    HW217873   2.534   5.450  13.780
 5326SOL     OW17874   9.785   1.267   1.725
 5326SOL    HW117875   9.715   1.267   1.660
 5326SOL    HW217876   9.760   1.199   1.788
 5327SOL     OW17877   1.882   3.124   9.660
 5327SOL    HW117878   1.919   3.047   9.703
 5327SOL    HW217879   1.854   3.092   9.574
 5328SOL     OW17880  13.864  10.727  14.035
 5328SOL    HW117881  13.812  10.798  13.996
 5328SOL    HW217882  13.951  10.764  14.044
 5329SOL     OW17883  14.761   4.838  11.027
 5329SOL    HW117884  14.717   4.772  10.973
 5329SOL    HW217885  14.702   4.913  11.027
 5330SOL     OW17886  13.926   8.186  11.669
 5330SOL    HW117887  13.848   8.194  11.616
 5330SOL    HW217888  13.916   8.253  11.737
 5331SOL     OW17889   5.801  10.619   2.204
 5331SOL    HW117890   5.802  10.544   2.263
 5331SOL    HW217891   5.725  10.671   2.232
 5332SOL     OW17892   9.492  12.666   0.388
 5332SOL    HW117893   9.453  12.594   0.337
 5332SOL    HW217894   9.564  12.697   0.333
 5333SOL     OW17895   3.309   6.894   9.167
 5333SOL    HW117896   3.334   6.880   9.258
 5333SOL    HW217897   3.225   6.939   9.172
 5334SOL     OW17898  11.581   4.001  12.192
 5334SOL    HW117899  11.667   3.967  12.217
 5334SOL    HW217900  11.584   4.008  12.097
 5335SOL     OW17901   6.141   2.974  11.125
 5335SOL    HW117902   6.073   2.941  11.183
 5335SOL    HW217903   6.126   2.929  11.042
 5336SOL     OW17904   1.602   0.090   2.778
 5336SOL    HW117905   1.558   0.110   2.695
 5336SOL    HW217906   1.621  14.869   2.772
 5337SOL     OW17907   3.444  10.545   7.988
 5337SOL    HW117908   3.390  10.466   7.984
 5337SOL    HW217909   3.383  10.617   7.969
 5338SOL     OW17910   1.687   5.876   4.173
 5338SOL    HW117911   1.670   5.968   4.194
 5338SOL    HW217912   1.697   5.833   4.258
 5339SOL     OW17913  10.130   2.253   6.281
 5339SOL    HW117914  10.155   2.334   6.237
 5339SOL    HW217915  10.110   2.279   6.370
 5340SOL     OW17916   1.099  12.960  13.700
 5340SOL    HW117917   1.025  12.936  13.645
 5340SOL    HW217918   1.059  12.993  13.781
 5341SOL     OW17919   8.040   4.099  11.591
 5341SOL    HW117920   7.993   4.018  11.612
 5341SOL    HW217921   7.971   4.164  11.580
 5342SOL     OW17922  11.593  10.410   3.618
 5342SOL    HW117923  11.580  10.318   3.643
 5342SOL    HW217924  11.590  10.458   3.701
 5343SOL     OW17925   7.084   8.796  10.085
 5343SOL    HW117926   7.070   8.733  10.155
 5343SOL    HW217927   6.997   8.813  10.050
 5344SOL     OW17928   2.412   8.472   6.739
 5344SOL    HW117929   2.444   8.474   6.829
 5344SOL    HW217930   2.439   8.386   6.706
 5345SOL     OW17931   7.737   5.393  10.656
 5345SOL    HW117932   7.703   5.448  10.727
 5345SOL    HW217933   7.807   5.445  10.617
 5346SOL     OW17934   1.455  14.044   1.924
 5346SOL    HW117935   1.545  14.020   1.947
 5346SOL    HW217936   1.449  14.029   1.830
 5347SOL     OW17937   2.834   4.821   3.260
 5347SOL    HW117938   2.745   4.794   3.239
 5347SOL    HW217939   2.824   4.890   3.325
 5348SOL     OW17940   9.527   1.846   5.271
 5348SOL    HW117941   9.465   1.834   5.344
 5348SOL    HW217942   9.471   1.874   5.198
 5349SOL     OW17943   7.671   7.306  13.316
 5349SOL    HW117944   7.620   7.246  13.371
 5349SOL    HW217945   7.621   7.311  13.235
 5350SOL     OW17946   3.849   2.570  12.221
 5350SOL    HW117947   3.817   2.535  12.138
 5350SOL    HW217948   3.944   2.574  12.211
 5351SOL     OW17949   8.534   1.605   0.900
 5351SOL    HW117950   8.538   1.527   0.956
 5351SOL    HW217951   8.468   1.583   0.834
 5352SOL     OW17952   7.092   1.672   3.972
 5352SOL    HW117953   7.116   1.699   4.061
 5352SOL    HW217954   7.106   1.750   3.919
 5353SOL     OW17955  12.409  13.103  10.433
 5353SOL    HW117956  12.483  13.053  10.467
 5353SOL    HW217957  12.428  13.115  10.340
 5354SOL     OW17958   6.938   3.153   1.560
 5354SOL    HW117959   6.993   3.134   1.484
 5354SOL    HW217960   6.912   3.245   1.549
 5355SOL     OW17961   9.424  12.551  11.974
 5355SOL    HW117962   9.419  12.646  11.983
 5355SOL    HW217963   9.337  12.525  11.944
 5356SOL     OW17964  12.461   9.233   8.240
 5356SOL    HW117965  12.481   9.160   8.299
 5356SOL    HW217966  12.375   9.264   8.269
 5357SOL     OW17967   3.540  11.984  10.831
 5357SOL    HW117968   3.495  11.967  10.914
 5357SOL    HW217969   3.496  11.928  10.768
 5358SOL     OW17970  11.293   0.985   9.409
 5358SOL    HW117971  11.359   1.002   9.342
 5358SOL    HW217972  11.212   0.969   9.360
 5359SOL     OW17973  11.433   3.204   3.005
 5359SOL    HW117974  11.435   3.120   2.960
 5359SOL    HW217975  11.342   3.233   2.999
 5360SOL     OW17976  11.268  13.667  10.262
 5360SOL    HW117977  11.212  13.731  10.305
 5360SOL    HW217978  11.289  13.603  10.330
 5361SOL     OW17979   5.985  11.584   6.054
 5361SOL    HW117980   5.906  11.548   6.094
 5361SOL    HW217981   5.969  11.577   5.960
 5362SOL     OW17982  13.774   6.509   1.774
 5362SOL    HW117983  13.802   6.596   1.802
 5362SOL    HW217984  13.811   6.449   1.839
 5363SOL     OW17985   2.416   4.628  14.646
 5363SOL    HW117986   2.389   4.669  14.564
 5363SOL    HW217987   2.512   4.635  14.646
 5364SOL     OW17988  14.419  10.584  10.145
 5364SOL    HW117989  14.384  10.670  10.120
 5364SOL    HW217990  14.392  10.526  10.074
 5365SOL     OW17991   8.040   4.547  10.222
 5365SOL    HW117992   7.955   4.553  10.178
 5365SOL    HW217993   8.053   4.453  10.236
 5366SOL     OW17994  14.395  11.860  13.332
 5366SOL    HW117995  14.386  11.892  13.422
 5366SOL    HW217996  14.485  11.828  13.326
 5367SOL     OW17997   8.609   2.679  11.870
 5367SOL    HW117998   8.582   2.755  11.921
 5367SOL    HW217999   8.531   2.623  11.867
 5368SOL     OW18000   1.031  10.326   6.318
 5368SOL    HW118001   1.106  10.281   6.358
 5368SOL    HW218002   1.062  10.352   6.232
 5369SOL     OW18003   7.376   7.867   7.685
 5369SOL    HW118004   7.432   7.820   7.624
 5369SOL    HW218005   7.288   7.832   7.668
 5370SOL     OW18006   4.213   2.157   7.948
 5370SOL    HW118007   4.181   2.078   7.992
 5370SOL    HW218008   4.180   2.149   7.858
 5371SOL     OW18009  14.234   4.750  13.704
 5371SOL    HW118010  14.174   4.713  13.769
 5371SOL    HW218011  14.249   4.840  13.734
 5372SOL     OW18012   4.078  11.269   6.881
 5372SOL    HW118013   4.061  11.330   6.809
 5372SOL    HW218014   4.156  11.303   6.923
 5373SOL     OW18015   3.702   6.347   5.216
 5373SOL    HW118016   3.745   6.280   5.269
 5373SOL    HW218017   3.624   6.372   5.267
 5374SOL     OW18018  10.135   7.326   9.204
 5374SOL    HW118019  10.087   7.384   9.145
 5374SOL    HW218020  10.067   7.278   9.251
 5375SOL     OW18021   5.105  14.367  13.075
 5375SOL    HW118022   5.193  14.404  13.084
 5375SOL    HW218023   5.046  14.440  13.091
 5376SOL     OW18024   4.558   7.120  11.694
 5376SOL    HW118025   4.584   7.202  11.653
 5376SOL    HW218026   4.555   7.140  11.788
 5377SOL     OW18027   7.141   4.393   9.642
 5377SOL    HW118028   7.193   4.431   9.571
 5377SOL    HW218029   7.064   4.356   9.599
 5378SOL     OW18030  11.290   4.067   3.993
 5378SOL    HW118031  11.296   3.975   4.020
 5378SOL    HW218032  11.199   4.077   3.965
 5379SOL     OW18033   5.317  13.835   2.479
 5379SOL    HW118034   5.280  13.910   2.431
 5379SOL    HW218035   5.242  13.795   2.523
 5380SOL     OW18036   6.787   3.128  12.108
 5380SOL    HW118037   6.732   3.075  12.165
 5380SOL    HW218038   6.810   3.204  12.161
 5381SOL     OW18039   6.788  13.606   5.503
 5381SOL    HW118040   6.855  13.569   5.445
 5381SOL    HW218041   6.837  13.662   5.563
 5382SOL     OW18042   0.872   3.236   7.731
 5382SOL    HW118043   0.823   3.193   7.661
 5382SOL    HW218044   0.958   3.194   7.730
 5383SOL     OW18045   7.012   3.865  11.687
 5383SOL    HW118046   6.959   3.825  11.757
 5383SOL    HW218047   7.064   3.931  11.732
 5384SOL     OW18048   4.905   6.961   6.989
 5384SOL    HW118049   4.908   7.010   7.072
 5384SOL    HW218050   4.996   6.956   6.961
 5385SOL     OW18051  10.959   2.913   5.907
 5385SOL    HW118052  11.013   2.926   5.985
 5385SOL    HW218053  11.015   2.863   5.847
 5386SOL     OW18054   6.441   8.223  14.003
 5386SOL    HW118055   6.385   8.155  13.967
 5386SOL    HW218056   6.488   8.258  13.928
 5387SOL     OW18057   6.148   7.414   3.113
 5387SOL    HW118058   6.125   7.494   3.160
 5387SOL    HW218059   6.090   7.413   3.037
 5388SOL     OW18060   0.810  14.664   2.997
 5388SOL    HW118061   0.729  14.627   3.032
 5388SOL    HW218062   0.838  14.728   3.063
 5389SOL     OW18063   0.389  11.112  14.254
 5389SOL    HW118064   0.316  11.138  14.198
 5389SOL    HW218065   0.355  11.039  14.306
 5390SOL     OW18066   3.577  12.227   7.226
 5390SOL    HW118067   3.572  12.252   7.318
 5390SOL    HW218068   3.593  12.133   7.228
 5391SOL     OW18069   1.856   9.731   2.000
 5391SOL    HW118070   1.805   9.773   1.931
 5391SOL    HW218071   1.847   9.638   1.983
 5392SOL     OW18072   5.953   2.689   4.596
 5392SOL    HW118073   6.009   2.673   4.521
 5392SOL    HW218074   5.984   2.629   4.663
 5393SOL     OW18075   9.230  13.111   0.189
 5393SOL    HW118076   9.272  13.035   0.229
 5393SOL    HW218077   9.136  13.093   0.195
 5394SOL     OW18078   7.257   1.454   2.991
 5394SOL    HW118079   7.257   1.359   3.007
 5394SOL    HW218080   7.321   1.488   3.053
 5395SOL     OW18081   6.020  14.078   2.001
 5395SOL    HW118082   5.981  14.065   1.915
 5395SOL    HW218083   6.063  14.163   1.996
 5396SOL     OW18084   4.390  11.149   2.669
 5396SOL    HW118085   4.407  11.202   2.747
 5396SOL    HW218086   4.297  11.130   2.673
 5397SOL     OW18087   8.052  14.188   3.550
 5397SOL    HW118088   7.981  14.251   3.562
 5397SOL    HW218089   8.024  14.134   3.476
 5398SOL     OW18090  13.287  13.232   4.643
 5398SOL    HW118091  13.377  13.249   4.613
 5398SOL    HW218092  13.240  13.205   4.564
 5399SOL     OW18093   1.633  13.352   2.139
 5399SOL    HW118094   1.594  13.385   2.059
 5399SOL    HW218095   1.699  13.418   2.163
 5400SOL     OW18096   6.802   2.125   7.453
 5400SOL    HW118097   6.868   2.163   7.510
 5400SOL    HW218098   6.750   2.200   7.423
 5401SOL     OW18099   6.128   3.473  11.188
 5401SOL    HW118100   6.163   3.545  11.241
 5401SOL    HW218101   6.053   3.441  11.237
 5402SOL     OW18102  10.396  12.604   5.008
 5402SOL    HW118103  10.371  12.515   4.982
 5402SOL    HW218104  10.312  12.649   5.018
 5403SOL     OW18105   0.172  14.795   7.181
 5403SOL    HW118106   0.262  14.764   7.185
 5403SOL    HW218107   0.122  14.731   7.232
 5404SOL     OW18108   0.483   1.044  13.341
 5404SOL    HW118109   0.397   1.007  13.360
 5404SOL    HW218110   0.510   1.002  13.259
 5405SOL     OW18111   4.317   5.275   7.208
 5405SOL    HW118112   4.336   5.319   7.125
 5405SOL    HW218113   4.324   5.344   7.274
 5406SOL     OW18114  11.499   4.772  10.222
 5406SOL    HW118115  11.588   4.763  10.190
 5406SOL    HW218116  11.489   4.702  10.287
 5407SOL     OW18117  11.671  12.187   5.472
 5407SOL    HW118118  11.717  12.203   5.554
 5407SOL    HW218119  11.620  12.108   5.488
 5408SOL     OW18120  11.298  14.866   2.205
 5408SOL    HW118121  11.387   0.001   2.169
 5408SOL    HW218122  11.309  14.819   2.287
 5409SOL     OW18123   4.255   6.850   0.877
 5409SOL    HW118124   4.203   6.807   0.809
 5409SOL    HW218125   4.210   6.933   0.892
 5410SOL     OW18126  10.626   4.387  14.591
 5410SOL    HW118127  10.537   4.419  14.574
 5410SOL    HW218128  10.672   4.463  14.628
 5411SOL     OW18129  11.752   5.918   5.655
 5411SOL    HW118130  11.779   5.829   5.677
 5411SOL    HW218131  11.833   5.962   5.627
 5412SOL     OW18132   3.661   4.449  12.689
 5412SOL    HW118133   3.596   4.379  12.699
 5412SOL    HW218134   3.680   4.452  12.596
 5413SOL     OW18135   5.604   4.321   9.094
 5413SOL    HW118136   5.674   4.384   9.108
 5413SOL    HW218137   5.648   4.243   9.060
 5414SOL     OW18138  13.164   7.884   2.421
 5414SOL    HW118139  13.159   7.935   2.502
 5414SOL    HW218140  13.153   7.794   2.449
 5415SOL     OW18141  11.981   1.286   0.782
 5415SOL    HW118142  11.992   1.272   0.876
 5415SOL    HW218143  11.888   1.303   0.771
 5416SOL     OW18144   5.136   6.047   6.973
 5416SOL    HW118145   5.229   6.031   6.958
 5416SOL    HW218146   5.131   6.140   6.997
 5417SOL     OW18147  14.544  10.295   2.205
 5417SOL    HW118148  14.565  10.372   2.258
 5417SOL    HW218149  14.468  10.257   2.248
 5418SOL     OW18150   8.271   4.085  13.506
 5418SOL    HW118151   8.366   4.086  13.501
 5418SOL    HW218152   8.247   4.178  13.511
 5419SOL     OW18153   8.253   0.111  10.909
 5419SOL    HW118154   8.333   0.164  10.909
 5419SOL    HW218155   8.184   0.172  10.936
 5420SOL     OW18156  14.475   9.123   7.036
 5420SOL    HW118157  14.402   9.133   7.097
 5420SOL    HW218158  14.473   9.030   7.012
 5421SOL     OW18159   7.058   9.491   9.069
 5421SOL    HW118160   7.059   9.549   8.993
 5421SOL    HW218161   7.026   9.547   9.141
 5422SOL     OW18162   7.834  13.655  10.573
 5422SOL    HW118163   7.860  13.721  10.509
 5422SOL    HW218164   7.906  13.653  10.636
 5423SOL     OW18165   3.968   0.555   6.185
 5423SOL    HW118166   3.976   0.552   6.089
 5423SOL    HW218167   4.053   0.525   6.216
 5424SOL     OW18168   0.469  10.592   7.375
 5424SOL    HW118169   0.454  10.544   7.294
 5424SOL    HW218170   0.547  10.551   7.413
 5425SOL     OW18171  14.019   1.864   5.561
 5425SOL    HW118172  14.094   1.879   5.619
 5425SOL    HW218173  14.051   1.801   5.497
 5426SOL     OW18174  12.915   5.478   5.350
 5426SOL    HW118175  12.951   5.552   5.399
 5426SOL    HW218176  12.825   5.505   5.330
 5427SOL     OW18177   8.738   4.730   3.130
 5427SOL    HW118178   8.694   4.697   3.209
 5427SOL    HW218179   8.804   4.664   3.110
 5428SOL     OW18180   3.533  11.275  13.246
 5428SOL    HW118181   3.618  11.251  13.211
 5428SOL    HW218182   3.535  11.370  13.252
 5429SOL     OW18183   3.205  13.968   5.767
 5429SOL    HW118184   3.275  13.994   5.826
 5429SOL    HW218185   3.248  13.915   5.700
 5430SOL     OW18186  11.425  10.202   1.847
 5430SOL    HW118187  11.366  10.203   1.922
 5430SOL    HW218188  11.372  10.167   1.775
 5431SOL     OW18189   0.804   1.348  10.808
 5431SOL    HW118190   0.718   1.312  10.831
 5431SOL    HW218191   0.806   1.434  10.849
 5432SOL     OW18192   9.085   3.213   0.547
 5432SOL    HW118193   9.100   3.306   0.564
 5432SOL    HW218194   8.997   3.197   0.580
 5433SOL     OW18195   9.528   3.361   2.118
 5433SOL    HW118196   9.498   3.339   2.030
 5433SOL    HW218197   9.620   3.333   2.119
 5434SOL     OW18198   8.841  12.510   2.644
 5434SOL    HW118199   8.780  12.568   2.688
 5434SOL    HW218200   8.853  12.437   2.704
 5435SOL     OW18201   6.641  13.837   0.550
 5435SOL    HW118202   6.620  13.806   0.638
 5435SOL    HW218203   6.589  13.916   0.540
 5436SOL     OW18204  11.924  13.402   8.158
 5436SOL    HW118205  11.831  13.425   8.160
 5436SOL    HW218206  11.959  13.452   8.084
 5437SOL     OW18207   1.728   8.291   9.243
 5437SOL    HW118208   1.800   8.252   9.293
 5437SOL    HW218209   1.689   8.217   9.195
 5438SOL     OW18210  11.419   1.982  11.928
 5438SOL    HW118211  11.388   1.983  11.838
 5438SOL    HW218212  11.492   1.921  11.928
 5439SOL     OW18213   9.442   6.697  10.365
 5439SOL    HW118214   9.455   6.789  10.340
 5439SOL    HW218215   9.405   6.656  10.287
 5440SOL     OW18216   0.484   0.456  11.805
 5440SOL    HW118217   0.476   0.517  11.878
 5440SOL    HW218218   0.414   0.480  11.744
 5441SOL     OW18219   3.342   0.971   8.893
 5441SOL    HW118220   3.305   0.983   8.980
 5441SOL    HW218221   3.357   1.060   8.860
 5442SOL     OW18222  13.466  10.013   1.146
 5442SOL    HW118223  13.397  10.080   1.139
 5442SOL    HW218224  13.475   9.998   1.240
 5443SOL     OW18225   0.768   0.926  11.957
 5443SOL    HW118226   0.797   1.016  11.971
 5443SOL    HW218227   0.719   0.904  12.036
 5444SOL     OW18228   6.350   3.732   7.837
 5444SOL    HW118229   6.286   3.751   7.905
 5444SOL    HW218230   6.329   3.794   7.767
 5445SOL     OW18231   7.675  13.384   9.244
 5445SOL    HW118232   7.599  13.441   9.250
 5445SOL    HW218233   7.750  13.442   9.260
 5446SOL     OW18234   9.486   1.161  12.317
 5446SOL    HW118235   9.493   1.153  12.412
 5446SOL    HW218236   9.460   1.074  12.288
 5447SOL     OW18237   3.849   6.663  13.499
 5447SOL    HW118238   3.864   6.734  13.562
 5447SOL    HW218239   3.880   6.698  13.416
 5448SOL     OW18240   4.519  13.954  14.490
 5448SOL    HW118241   4.508  13.960  14.584
 5448SOL    HW218242   4.489  13.867  14.466
 5449SOL     OW18243  11.978  11.544  11.582
 5449SOL    HW118244  11.919  11.473  11.556
 5449SOL    HW218245  11.919  11.617  11.605
 5450SOL     OW18246  13.309   1.511   0.744
 5450SOL    HW118247  13.278   1.455   0.673
 5450SOL    HW218248  13.347   1.587   0.700
 5451SOL     OW18249   9.229  14.706   3.616
 5451SOL    HW118250   9.165  14.635   3.621
 5451SOL    HW218251   9.262  14.701   3.526
 5452SOL     OW18252   2.663   2.745   3.877
 5452SOL    HW118253   2.705   2.810   3.933
 5452SOL    HW218254   2.581   2.724   3.920
 5453SOL     OW18255   2.702  13.247   2.362
 5453SOL    HW118256   2.713  13.163   2.407
 5453SOL    HW218257   2.772  13.248   2.296
 5454SOL     OW18258  13.839   6.518   1.099
 5454SOL    HW118259  13.757   6.476   1.073
 5454SOL    HW218260  13.878   6.546   1.016
 5455SOL     OW18261  12.560   5.256   1.220
 5455SOL    HW118262  12.528   5.296   1.139
 5455SOL    HW218263  12.503   5.180   1.233
 5456SOL     OW18264   1.009   3.347   2.098
 5456SOL    HW118265   1.036   3.275   2.040
 5456SOL    HW218266   1.021   3.426   2.045
 5457SOL     OW18267   0.201   0.898   8.557
 5457SOL    HW118268   0.175   0.855   8.476
 5457SOL    HW218269   0.294   0.878   8.567
 5458SOL     OW18270   0.127  11.346   5.690
 5458SOL    HW118271   0.048  11.372   5.643
 5458SOL    HW218272   0.161  11.271   5.641
 5459SOL     OW18273   2.270   4.443  13.785
 5459SOL    HW118274   2.264   4.404  13.698
 5459SOL    HW218275   2.179   4.461  13.809
 5460SOL     OW18276   8.038   4.023   0.566
 5460SOL    HW118277   8.092   4.095   0.598
 5460SOL    HW218278   7.995   4.057   0.488
 5461SOL     OW18279   8.693   9.919   5.724
 5461SOL    HW118280   8.689   9.916   5.628
 5461SOL    HW218281   8.602   9.908   5.752
 5462SOL     OW18282   9.718   0.279   8.526
 5462SOL    HW118283   9.750   0.248   8.441
 5462SOL    HW218284   9.718   0.374   8.519
 5463SOL     OW18285  13.458   2.949  14.784
 5463SOL    HW118286  13.449   2.976   0.004
 5463SOL    HW218287  13.552   2.943  14.770
 5464SOL     OW18288   1.623   4.808   8.667
 5464SOL    HW118289   1.546   4.751   8.663
 5464SOL    HW218290   1.697   4.750   8.653
 5465SOL     OW18291   7.933  14.326   0.342
 5465SOL    HW118292   7.927  14.279   0.425
 5465SOL    HW218293   7.890  14.269   0.279
 5466SOL     OW18294   1.160   8.225  13.430
 5466SOL    HW118295   1.179   8.312  13.465
 5466SOL    HW218296   1.120   8.178  13.504
 5467SOL     OW18297   9.760   3.419  10.048
 5467SOL    HW118298   9.793   3.491   9.995
 5467SOL    HW218299   9.685   3.385  10.000
 5468SOL     OW18300   6.988   0.714   8.366
 5468SOL    HW118301   7.071   0.762   8.367
 5468SOL    HW218302   6.922   0.781   8.382
 5469SOL     OW18303   9.569  13.331  11.710
 5469SOL    HW118304   9.621  13.264  11.666
 5469SOL    HW218305   9.481  13.322  11.672
 5470SOL     OW18306  10.788  13.209  10.688
 5470SOL    HW118307  10.714  13.220  10.627
 5470SOL    HW218308  10.854  13.271  10.657
 5471SOL     OW18309  11.603   0.399  10.163
 5471SOL    HW118310  11.575   0.483  10.128
 5471SOL    HW218311  11.526   0.363  10.206
 5472SOL     OW18312   5.338   2.725   6.362
 5472SOL    HW118313   5.341   2.632   6.341
 5472SOL    HW218314   5.248   2.740   6.392
 5473SOL     OW18315  13.896   5.985   5.697
 5473SOL    HW118316  13.826   5.930   5.732
 5473SOL    HW218317  13.852   6.066   5.672
 5474SOL     OW18318   0.893   5.998   4.997
 5474SOL    HW118319   0.859   5.971   5.082
 5474SOL    HW218320   0.837   5.952   4.934
 5475SOL     OW18321   6.733   1.887   8.189
 5475SOL    HW118322   6.802   1.834   8.149
 5475SOL    HW218323   6.665   1.892   8.121
 5476SOL     OW18324   7.386  10.305   7.353
 5476SOL    HW118325   7.406  10.377   7.411
 5476SOL    HW218326   7.419  10.333   7.267
 5477SOL     OW18327   5.445   0.435   8.956
 5477SOL    HW118328   5.356   0.406   8.939
 5477SOL    HW218329   5.443   0.468   9.046
 5478SOL     OW18330   2.998  10.258   5.966
 5478SOL    HW118331   2.920  10.215   5.931
 5478SOL    HW218332   2.996  10.238   6.060
 5479SOL     OW18333   8.151   9.394  10.676
 5479SOL    HW118334   8.077   9.343  10.707
 5479SOL    HW218335   8.112   9.471  10.634
 5480SOL     OW18336  14.018  11.671  12.206
 5480SOL    HW118337  14.110  11.689  12.221
 5480SOL    HW218338  14.013  11.645  12.114
 5481SOL     OW18339   4.360   4.260   8.789
 5481SOL    HW118340   4.392   4.171   8.776
 5481SOL    HW218341   4.340   4.265   8.883
 5482SOL     OW18342  11.295   5.591   8.745
 5482SOL    HW118343  11.239   5.666   8.724
 5482SOL    HW218344  11.317   5.553   8.660
 5483SOL     OW18345   4.491   2.622   8.415
 5483SOL    HW118346   4.474   2.607   8.508
 5483SOL    HW218347   4.540   2.705   8.413
 5484SOL     OW18348   6.434   8.012  12.226
 5484SOL    HW118349   6.513   7.999  12.174
 5484SOL    HW218350   6.461   7.995  12.316
 5485SOL     OW18351   0.371  14.083   2.767
 5485SOL    HW118352   0.345  14.020   2.834
 5485SOL    HW218353   0.427  14.032   2.707
 5486SOL     OW18354   3.318   7.066   1.654
 5486SOL    HW118355   3.264   7.004   1.605
 5486SOL    HW218356   3.363   7.012   1.719
 5487SOL     OW18357   2.240   2.150   5.428
 5487SOL    HW118358   2.144   2.157   5.425
 5487SOL    HW218359   2.263   2.176   5.517
 5488SOL     OW18360   5.508  12.122   1.932
 5488SOL    HW118361   5.420  12.129   1.894
 5488SOL    HW218362   5.497  12.148   2.023
 5489SOL     OW18363   1.802   6.730  12.380
 5489SOL    HW118364   1.818   6.653  12.435
 5489SOL    HW218365   1.724   6.707  12.329
 5490SOL     OW18366  12.802  11.295  10.698
 5490SOL    HW118367  12.707  11.292  10.699
 5490SOL    HW218368  12.823  11.368  10.640
 5491SOL     OW18369  12.472  11.144  10.754
 5491SOL    HW118370  12.378  11.128  10.763
 5491SOL    HW218371  12.479  11.239  10.747
 5492SOL     OW18372   6.170  10.456   4.377
 5492SOL    HW118373   6.126  10.374   4.397
 5492SOL    HW218374   6.227  10.472   4.452
 5493SOL     OW18375   1.702   7.758  10.769
 5493SOL    HW118376   1.612   7.730  10.755
 5493SOL    HW218377   1.696   7.830  10.831
 5494SOL     OW18378   1.031  14.525   2.949
 5494SOL    HW118379   0.999  14.436   2.937
 5494SOL    HW218380   0.953  14.577   2.967
 5495SOL     OW18381  13.312   5.933  12.001
 5495SOL    HW118382  13.246   5.878  11.959
 5495SOL    HW218383  13.371   5.871  12.044
 5496SOL     OW18384  13.002   9.129   4.074
 5496SOL    HW118385  13.091   9.147   4.044
 5496SOL    HW218386  12.946   9.180   4.016
 5497SOL     OW18387   7.703  14.429   1.652
 5497SOL    HW118388   7.729  14.473   1.571
 5497SOL    HW218389   7.754  14.474   1.720
 5498SOL     OW18390  12.835   5.448  13.221
 5498SOL    HW118391  12.759   5.484  13.176
 5498SOL    HW218392  12.821   5.353  13.220
 5499SOL     OW18393   9.092   8.657  14.679
 5499SOL    HW118394   9.095   8.621  14.590
 5499SOL    HW218395   8.999   8.653  14.703
 5500SOL     OW18396  13.315   6.945   2.141
 5500SOL    HW118397  13.245   6.904   2.192
 5500SOL    HW218398  13.383   6.963   2.206
 5501SOL     OW18399   3.305   2.588  14.793
 5501SOL    HW118400   3.357   2.649  14.740
 5501SOL    HW218401   3.223   2.635  14.811
 5502SOL     OW18402   5.048   0.336   3.149
 5502SOL    HW118403   5.081   0.425   3.160
 5502SOL    HW218404   4.976   0.329   3.212
 5503SOL     OW18405  11.840  11.426  13.624
 5503SOL    HW118406  11.750  11.440  13.652
 5503SOL    HW218407  11.832  11.391  13.535
 5504SOL     OW18408   6.255   4.811   0.063
 5504SOL    HW118409   6.235   4.790  14.844
 5504SOL    HW218410   6.347   4.837   0.062
 5505SOL     OW18411   8.561   8.607  13.370
 5505SOL    HW118412   8.555   8.598  13.465
 5505SOL    HW218413   8.651   8.584  13.349
 5506SOL     OW18414   2.498   1.144   4.299
 5506SOL    HW118415   2.547   1.067   4.269
 5506SOL    HW218416   2.448   1.112   4.374
 5507SOL     OW18417   3.239   7.483   4.233
 5507SOL    HW118418   3.147   7.475   4.210
 5507SOL    HW218419   3.239   7.489   4.329
 5508SOL     OW18420   7.763  14.698   0.605
 5508SOL    HW118421   7.767  14.693   0.700
 5508SOL    HW218422   7.825  14.632   0.575
 5509SOL     OW18423   5.827  14.651   6.536
 5509SOL    HW118424   5.809  14.745   6.531
 5509SOL    HW218425   5.885  14.642   6.612
 5510SOL     OW18426   3.475   6.115   2.052
 5510SOL    HW118427   3.540   6.180   2.079
 5510SOL    HW218428   3.473   6.121   1.956
 5511SOL     OW18429  10.987   1.969   1.121
 5511SOL    HW118430  11.022   1.947   1.035
 5511SOL    HW218431  10.904   2.013   1.102
 5512SOL     OW18432  10.419   4.822   6.947
 5512SOL    HW118433  10.471   4.852   7.022
 5512SOL    HW218434  10.410   4.900   6.892
 5513SOL     OW18435   4.105   4.297   2.843
 5513SOL    HW118436   4.036   4.231   2.833
 5513SOL    HW218437   4.170   4.255   2.900
 5514SOL     OW18438  11.049  14.287  13.810
 5514SOL    HW118439  11.088  14.297  13.897
 5514SOL    HW218440  10.974  14.347  13.810
 5515SOL     OW18441  10.555   9.695   3.840
 5515SOL    HW118442  10.506   9.650   3.772
 5515SOL    HW218443  10.488   9.723   3.903
 5516SOL     OW18444   7.567   2.500  13.992
 5516SOL    HW118445   7.559   2.530  13.901
 5516SOL    HW218446   7.606   2.412  13.984
 5517SOL     OW18447  12.828   4.447  12.660
 5517SOL    HW118448  12.869   4.361  12.662
 5517SOL    HW218449  12.858   4.486  12.578
 5518SOL     OW18450  10.653  12.785   0.799
 5518SOL    HW118451  10.625  12.799   0.708
 5518SOL    HW218452  10.595  12.717   0.832
 5519SOL     OW18453   9.246   2.162   0.211
 5519SOL    HW118454   9.190   2.106   0.157
 5519SOL    HW218455   9.235   2.129   0.300
 5520SOL     OW18456  13.118   6.020  14.077
 5520SOL    HW118457  13.150   5.929  14.080
 5520SOL    HW218458  13.107   6.044  14.169
 5521SOL     OW18459   6.502   0.375  13.503
 5521SOL    HW118460   6.597   0.360  13.498
 5521SOL    HW218461   6.486   0.448  13.443
 5522SOL     OW18462   4.200  14.008   3.548
 5522SOL    HW118463   4.278  14.042   3.590
 5522SOL    HW218464   4.127  14.035   3.604
 5523SOL     OW18465  10.877   0.264   0.862
 5523SOL    HW118466  10.920   0.181   0.840
 5523SOL    HW218467  10.824   0.284   0.785
 5524SOL     OW18468   0.143   8.001   0.268
 5524SOL    HW118469   0.132   8.044   0.183
 5524SOL    HW218470   0.064   8.025   0.317
 5525SOL     OW18471  11.805  11.885   4.131
 5525SOL    HW118472  11.809  11.806   4.184
 5525SOL    HW218473  11.815  11.956   4.194
 5526SOL     OW18474  14.806   6.266   5.709
 5526SOL    HW118475  14.811   6.359   5.686
 5526SOL    HW218476  14.859   6.222   5.643
 5527SOL     OW18477   4.703   6.753  10.649
 5527SOL    HW118478   4.623   6.761  10.598
 5527SOL    HW218479   4.766   6.713  10.589
 5528SOL     OW18480   5.956   8.466   4.201
 5528SOL    HW118481   6.024   8.399   4.199
 5528SOL    HW218482   5.988   8.532   4.263
 5529SOL     OW18483   6.098   4.389  12.288
 5529SOL    HW118484   6.101   4.484  12.296
 5529SOL    HW218485   6.115   4.357  12.376
 5530SOL     OW18486  13.884   2.498   2.743
 5530SOL    HW118487  13.935   2.449   2.679
 5530SOL    HW218488  13.874   2.585   2.703
 5531SOL     OW18489   7.156   2.701   6.024
 5531SOL    HW118490   7.231   2.663   6.071
 5531SOL    HW218491   7.163   2.665   5.935
 5532SOL     OW18492   5.659   3.835   8.244
 5532SOL    HW118493   5.726   3.790   8.296
 5532SOL    HW218494   5.658   3.925   8.277
 5533SOL     OW18495   2.976  12.220  10.125
 5533SOL    HW118496   3.056  12.233  10.176
 5533SOL    HW218497   2.931  12.305  10.129
 5534SOL     OW18498  14.652   8.882   5.190
 5534SOL    HW118499  14.701   8.904   5.111
 5534SOL    HW218500  14.630   8.789   5.181
 5535SOL     OW18501  12.848   7.316   8.479
 5535SOL    HW118502  12.828   7.225   8.500
 5535SOL    HW218503  12.814   7.328   8.390
 5536SOL     OW18504   7.393  12.320   8.250
 5536SOL    HW118505   7.456  12.352   8.314
 5536SOL    HW218506   7.391  12.388   8.183
 5537SOL     OW18507   5.624   2.819  11.665
 5537SOL    HW118508   5.540   2.774  11.654
 5537SOL    HW218509   5.661   2.822  11.577
 5538SOL     OW18510  11.436   6.593   2.587
 5538SOL    HW118511  11.437   6.555   2.675
 5538SOL    HW218512  11.497   6.539   2.537
 5539SOL     OW18513   7.015   7.928  12.699
 5539SOL    HW118514   6.988   8.015  12.727
 5539SOL    HW218515   7.082   7.944  12.632
 5540SOL     OW18516   3.218  10.899   5.121
 5540SOL    HW118517   3.126  10.882   5.141
 5540SOL    HW218518   3.220  10.908   5.025
 5541SOL     OW18519  12.992   1.937   0.898
 5541SOL    HW118520  12.969   1.883   0.974
 5541SOL    HW218521  12.994   2.026   0.932
 5542SOL     OW18522  12.670   4.731   8.169
 5542SOL    HW118523  12.674   4.637   8.156
 5542SOL    HW218524  12.719   4.746   8.250
 5543SOL     OW18525   8.532  11.699   8.917
 5543SOL    HW118526   8.552  11.783   8.959
 5543SOL    HW218527   8.575  11.634   8.973
 5544SOL     OW18528   6.152   1.776   2.428
 5544SOL    HW118529   6.066   1.799   2.462
 5544SOL    HW218530   6.171   1.690   2.467
 5545SOL     OW18531  12.695   7.581   7.889
 5545SOL    HW118532  12.633   7.518   7.853
 5545SOL    HW218533  12.647   7.664   7.887
 5546SOL     OW18534   7.386   2.507  14.531
 5546SOL    HW118535   7.410   2.552  14.612
 5546SOL    HW218536   7.434   2.424  14.535
 5547SOL     OW18537   8.956  14.317   7.535
 5547SOL    HW118538   9.030  14.362   7.576
 5547SOL    HW218539   8.991  14.280   7.454
 5548SOL     OW18540   7.617   1.935   2.492
 5548SOL    HW118541   7.691   1.922   2.551
 5548SOL    HW218542   7.540   1.933   2.548
 5549SOL     OW18543  13.340   7.234   0.547
 5549SOL    HW118544  13.366   7.322   0.519
 5549SOL    HW218545  13.256   7.246   0.591
 5550SOL     OW18546   9.413  10.938   9.765
 5550SOL    HW118547   9.344  10.990   9.805
 5550SOL    HW218548   9.452  10.997   9.699
 5551SOL     OW18549   8.964   2.380  13.257
 5551SOL    HW118550   9.021   2.428  13.317
 5551SOL    HW218551   8.908   2.447  13.218
 5552SOL     OW18552  12.032   2.366   6.146
 5552SOL    HW118553  12.111   2.348   6.196
 5552SOL    HW218554  11.990   2.438   6.193
 5553SOL     OW18555   4.983  14.542   0.911
 5553SOL    HW118556   4.935  14.459   0.916
 5553SOL    HW218557   4.997  14.567   1.002
 5554SOL     OW18558   1.556   4.013   2.500
 5554SOL    HW118559   1.484   3.953   2.480
 5554SOL    HW218560   1.572   4.060   2.419
 5555SOL     OW18561   1.184   2.164   0.880
 5555SOL    HW118562   1.248   2.196   0.943
 5555SOL    HW218563   1.187   2.069   0.889
 5556SOL     OW18564   2.967  14.331  11.287
 5556SOL    HW118565   2.884  14.308  11.246
 5556SOL    HW218566   2.988  14.256  11.343
 5557SOL     OW18567   0.269   8.028  11.223
 5557SOL    HW118568   0.213   8.028  11.146
 5557SOL    HW218569   0.356   8.006  11.190
 5558SOL     OW18570   2.361   0.874   9.690
 5558SOL    HW118571   2.370   0.915   9.604
 5558SOL    HW218572   2.375   0.781   9.674
 5559SOL     OW18573  12.608   4.927   9.862
 5559SOL    HW118574  12.622   4.980   9.783
 5559SOL    HW218575  12.516   4.901   9.857
 5560SOL     OW18576   5.792  13.990  14.060
 5560SOL    HW118577   5.878  14.006  14.099
 5560SOL    HW218578   5.740  14.067  14.083
 5561SOL     OW18579   6.926  13.254  14.603
 5561SOL    HW118580   6.992  13.301  14.654
 5561SOL    HW218581   6.853  13.242  14.663
 5562SOL     OW18582   5.489   6.835  11.980
 5562SOL    HW118583   5.531   6.798  12.058
 5562SOL    HW218584   5.554   6.823  11.911
 5563SOL     OW18585  10.257   8.787  13.029
 5563SOL    HW118586  10.234   8.877  13.005
 5563SOL    HW218587  10.189   8.761  13.091
 5564SOL     OW18588   4.665  10.254   6.507
 5564SOL    HW118589   4.604  10.228   6.576
 5564SOL    HW218590   4.651  10.348   6.496
 5565SOL     OW18591  13.350   6.139  14.767
 5565SOL    HW118592  13.261   6.109  14.750
 5565SOL    HW218593  13.406   6.065  14.745
 5566SOL     OW18594  11.633   9.463  13.075
 5566SOL    HW118595  11.708   9.418  13.113
 5566SOL    HW218596  11.631   9.434  12.984
 5567SOL     OW18597  12.992   3.324   1.911
 5567SOL    HW118598  12.993   3.250   1.851
 5567SOL    HW218599  12.926   3.383   1.874
 5568SOL     OW18600   3.905   9.298  14.154
 5568SOL    HW118601   3.865   9.274  14.237
 5568SOL    HW218602   3.997   9.314  14.176
 5569SOL     OW18603  12.516  12.904  14.416
 5569SOL    HW118604  12.542  12.813  14.428
 5569SOL    HW218605  12.519  12.942  14.504
 5570SOL     OW18606  10.928  10.406   5.263
 5570SOL    HW118607  11.004  10.453   5.229
 5570SOL    HW218608  10.944  10.315   5.240
 5571SOL     OW18609   0.148   3.185   4.514
 5571SOL    HW118610   0.150   3.184   4.610
 5571SOL    HW218611   0.220   3.129   4.488
 5572SOL     OW18612   3.800   3.121   2.007
 5572SOL    HW118613   3.832   3.169   1.930
 5572SOL    HW218614   3.713   3.157   2.023
 5573SOL     OW18615   9.062  10.088   1.530
 5573SOL    HW118616   9.001  10.161   1.521
 5573SOL    HW218617   9.007  10.013   1.553
 5574SOL     OW18618   5.958  13.914   7.797
 5574SOL    HW118619   5.955  14.008   7.815
 5574SOL    HW218620   5.866  13.888   7.792
 5575SOL     OW18621  11.298   0.635   2.808
 5575SOL    HW118622  11.348   0.641   2.890
 5575SOL    HW218623  11.206   0.643   2.836
 5576SOL     OW18624   9.992   4.182  13.234
 5576SOL    HW118625  10.053   4.159  13.164
 5576SOL    HW218626  10.047   4.208  13.307
 5577SOL     OW18627  13.971  12.649   2.446
 5577SOL    HW118628  13.978  12.595   2.524
 5577SOL    HW218629  14.058  12.689   2.436
 5578SOL     OW18630   2.682   9.555   9.554
 5578SOL    HW118631   2.630   9.623   9.596
 5578SOL    HW218632   2.717   9.596   9.475
 5579SOL     OW18633   1.377   4.859   4.533
 5579SOL    HW118634   1.441   4.891   4.597
 5579SOL    HW218635   1.327   4.792   4.580
 5580SOL     OW18636   9.691  10.426  13.680
 5580SOL    HW118637   9.637  10.384  13.613
 5580SOL    HW218638   9.778  10.387  13.668
 5581SOL     OW18639   1.596  10.037   9.739
 5581SOL    HW118640   1.555  10.123   9.728
 5581SOL    HW218641   1.585  10.017   9.832
 5582SOL     OW18642   6.463  11.195   0.725
 5582SOL    HW118643   6.540  11.250   0.718
 5582SOL    HW218644   6.456  11.175   0.819
 5583SOL     OW18645   1.861   1.596  12.059
 5583SOL    HW118646   1.906   1.562  12.136
 5583SOL    HW218647   1.772   1.560  12.066
 5584SOL     OW18648   8.342  11.777   7.981
 5584SOL    HW118649   8.294  11.730   8.049
 5584SOL    HW218650   8.424  11.729   7.971
 5585SOL     OW18651  11.929   1.517   6.716
 5585SOL    HW118652  11.865   1.499   6.784
 5585SOL    HW218653  11.972   1.433   6.700
 5586SOL     OW18654  12.719   6.231   4.651
 5586SOL    HW118655  12.636   6.253   4.610
 5586SOL    HW218656  12.695   6.186   4.733
 5587SOL     OW18657   4.160   1.308   3.618
 5587SOL    HW118658   4.243   1.297   3.665
 5587SOL    HW218659   4.092   1.290   3.684
 5588SOL     OW18660   4.976  13.064   5.351
 5588SOL    HW118661   4.949  13.020   5.431
 5588SOL    HW218662   5.049  13.120   5.377
 5589SOL     OW18663  10.628   0.152   1.881
 5589SOL    HW118664  10.689   0.088   1.917
 5589SOL    HW218665  10.568   0.099   1.828
 5590SOL     OW18666   8.699   7.326   9.709
 5590SOL    HW118667   8.756   7.253   9.687
 5590SOL    HW218668   8.615   7.286   9.732
 5591SOL     OW18669   8.840   4.671   5.670
 5591SOL    HW118670   8.813   4.589   5.629
 5591SOL    HW218671   8.928   4.687   5.637
 5592SOL     OW18672  12.941   2.089   3.768
 5592SOL    HW118673  12.977   2.014   3.720
 5592SOL    HW218674  12.967   2.074   3.859
 5593SOL     OW18675   9.210   6.505  14.138
 5593SOL    HW118676   9.119   6.506  14.111
 5593SOL    HW218677   9.211   6.448  14.216
 5594SOL     OW18678  11.385   1.633   8.060
 5594SOL    HW118679  11.329   1.708   8.080
 5594SOL    HW218680  11.325   1.562   8.038
 5595SOL     OW18681   7.392   1.066  10.168
 5595SOL    HW118682   7.408   1.144  10.220
 5595SOL    HW218683   7.460   1.068  10.100
 5596SOL     OW18684   9.314  10.476   7.163
 5596SOL    HW118685   9.333  10.511   7.250
 5596SOL    HW218686   9.401  10.463   7.124
 5597SOL     OW18687  11.383  11.916  10.053
 5597SOL    HW118688  11.411  11.894  10.142
 5597SOL    HW218689  11.463  11.912  10.001
 5598SOL     OW18690  14.783   6.684  11.371
 5598SOL    HW118691  14.789   6.602  11.321
 5598SOL    HW218692  14.868   6.726  11.357
 5599SOL     OW18693   6.570   8.941   5.400
 5599SOL    HW118694   6.589   8.969   5.490
 5599SOL    HW218695   6.623   9.000   5.345
 5600SOL     OW18696  10.978   8.595   4.359
 5600SOL    HW118697  10.890   8.624   4.382
 5600SOL    HW218698  11.026   8.676   4.342
 5601SOL     OW18699   0.629   1.864   7.442
 5601SOL    HW118700   0.690   1.930   7.411
 5601SOL    HW218701   0.681   1.784   7.447
 5602SOL     OW18702   0.781  14.331   0.557
 5602SOL    HW118703   0.870  14.333   0.592
 5602SOL    HW218704   0.786  14.383   0.476
 5603SOL     OW18705   5.025   9.689  14.191
 5603SOL    HW118706   4.985   9.776  14.197
 5603SOL    HW218707   5.113   9.706  14.156
 5604SOL     OW18708   2.581   0.201   2.660
 5604SOL    HW118709   2.576   0.279   2.716
 5604SOL    HW218710   2.613   0.132   2.719
 5605SOL     OW18711   4.898   7.229   6.386
 5605SOL    HW118712   4.979   7.264   6.348
 5605SOL    HW218713   4.873   7.295   6.452
 5606SOL     OW18714   0.014   4.313   4.820
 5606SOL    HW118715  14.850   4.258   4.750
 5606SOL    HW218716   0.102   4.279   4.835
 5607SOL     OW18717   0.330   5.405  13.423
 5607SOL    HW118718   0.281   5.437  13.499
 5607SOL    HW218719   0.346   5.483  13.370
 5608SOL     OW18720   6.834   3.250   2.975
 5608SOL    HW118721   6.863   3.305   3.048
 5608SOL    HW218722   6.888   3.276   2.901
 5609SOL     OW18723   1.218  10.995  12.424
 5609SOL    HW118724   1.162  11.030  12.493
 5609SOL    HW218725   1.277  10.936  12.470
 5610SOL     OW18726  13.306   8.007   3.747
 5610SOL    HW118727  13.224   7.957   3.746
 5610SOL    HW218728  13.369   7.947   3.787
 5611SOL     OW18729   0.778   1.174   7.038
 5611SOL    HW118730   0.742   1.172   7.127
 5611SOL    HW218731   0.768   1.085   7.006
 5612SOL     OW18732   7.064  10.210   6.677
 5612SOL    HW118733   6.986  10.260   6.702
 5612SOL    HW218734   7.047  10.183   6.587
 5613SOL     OW18735   3.580   0.609  11.627
 5613SOL    HW118736   3.609   0.586  11.539
 5613SOL    HW218737   3.489   0.578  11.632
 5614SOL     OW18738   8.769   0.088  10.710
 5614SOL    HW118739   8.712   0.022  10.750
 5614SOL    HW218740   8.716   0.126  10.640
 5615SOL     OW18741  10.626  10.389   9.195
 5615SOL    HW118742  10.666  10.408   9.280
 5615SOL    HW218743  10.532  10.402   9.210
 5616SOL     OW18744   9.859   9.294   8.597
 5616SOL    HW118745   9.790   9.349   8.634
 5616SOL    HW218746   9.813   9.230   8.543
 5617SOL     OW18747   5.337  13.760   2.005
 5617SOL    HW118748   5.360  13.743   2.096
 5617SOL    HW218749   5.413  13.805   1.968
 5618SOL     OW18750   9.400   4.610  13.884
 5618SOL    HW118751   9.494   4.600  13.871
 5618SOL    HW218752   9.391   4.632  13.976
 5619SOL     OW18753   7.277   5.689   7.305
 5619SOL    HW118754   7.289   5.640   7.223
 5619SOL    HW218755   7.366   5.707   7.335
 5620SOL     OW18756  12.927   7.302   9.362
 5620SOL    HW118757  12.831   7.311   9.366
 5620SOL    HW218758  12.951   7.263   9.446
 5621SOL     OW18759   8.442  12.853   6.970
 5621SOL    HW118760   8.502  12.779   6.975
 5621SOL    HW218761   8.479  12.918   7.030
 5622SOL     OW18762   9.168   6.470   3.417
 5622SOL    HW118763   9.219   6.409   3.471
 5622SOL    HW218764   9.133   6.416   3.347
 5623SOL     OW18765   4.419  13.677  12.785
 5623SOL    HW118766   4.491  13.614  12.788
 5623SOL    HW218767   4.357  13.638  12.723
 5624SOL     OW18768  12.328   3.453   8.627
 5624SOL    HW118769  12.266   3.383   8.610
 5624SOL    HW218770  12.277   3.533   8.622
 5625SOL     OW18771  10.938   8.315   2.823
 5625SOL    HW118772  10.984   8.361   2.752
 5625SOL    HW218773  10.986   8.340   2.902
 5626SOL     OW18774   0.600   9.036   3.785
 5626SOL    HW118775   0.582   9.127   3.763
 5626SOL    HW218776   0.634   8.997   3.705
 5627SOL     OW18777  14.674   6.659   7.570
 5627SOL    HW118778  14.592   6.610   7.569
 5627SOL    HW218779  14.649   6.749   7.551
 5628SOL     OW18780   7.463  11.433   8.448
 5628SOL    HW118781   7.415  11.494   8.392
 5628SOL    HW218782   7.542  11.480   8.474
 5629SOL     OW18783   5.350   2.919  11.375
 5629SOL    HW118784   5.402   2.998  11.391
 5629SOL    HW218785   5.322   2.927  11.283
 5630SOL     OW18786   6.265  12.713   0.151
 5630SOL    HW118787   6.215  12.775   0.205
 5630SOL    HW218788   6.356  12.725   0.179
 5631SOL     OW18789   7.343  12.794  10.743
 5631SOL    HW118790   7.394  12.869  10.773
 5631SOL    HW218791   7.326  12.812  10.650
 5632SOL     OW18792   4.476   9.103   1.752
 5632SOL    HW118793   4.382   9.084   1.752
 5632SOL    HW218794   4.493   9.140   1.666
 5633SOL     OW18795   6.949  10.823   6.213
 5633SOL    HW118796   6.996  10.787   6.137
 5633SOL    HW218797   6.940  10.749   6.272
 5634SOL     OW18798   2.109  14.166   5.652
 5634SOL    HW118799   2.047  14.195   5.585
 5634SOL    HW218800   2.107  14.234   5.718
 5635SOL     OW18801   2.311   5.463  12.552
 5635SOL    HW118802   2.269   5.398  12.496
 5635SOL    HW218803   2.250   5.474  12.625
 5636SOL     OW18804   1.248   0.751  10.371
 5636SOL    HW118805   1.297   0.747  10.288
 5636SOL    HW218806   1.168   0.799  10.349
 5637SOL     OW18807   1.666   0.607  12.113
 5637SOL    HW118808   1.698   0.529  12.158
 5637SOL    HW218809   1.704   0.603  12.026
 5638SOL     OW18810  13.755   9.058   1.984
 5638SOL    HW118811  13.734   8.966   1.969
 5638SOL    HW218812  13.806   9.058   2.065
 5639SOL     OW18813   0.960  10.375  12.720
 5639SOL    HW118814   1.047  10.416  12.721
 5639SOL    HW218815   0.964  10.312  12.647
 5640SOL     OW18816  14.435  13.540  14.209
 5640SOL    HW118817  14.471  13.620  14.247
 5640SOL    HW218818  14.393  13.495  14.282
 5641SOL     OW18819   8.036  11.223   4.051
 5641SOL    HW118820   8.003  11.284   3.985
 5641SOL    HW218821   8.083  11.156   4.000
 5642SOL     OW18822   6.993  13.764   7.856
 5642SOL    HW118823   7.025  13.713   7.781
 5642SOL    HW218824   6.908  13.725   7.877
 5643SOL     OW18825   9.433   7.111   1.422
 5643SOL    HW118826   9.416   7.018   1.409
 5643SOL    HW218827   9.438   7.148   1.333
 5644SOL     OW18828   4.510   8.373   4.280
 5644SOL    HW118829   4.448   8.301   4.279
 5644SOL    HW218830   4.575   8.351   4.213
 5645SOL     OW18831  12.890  11.049  14.011
 5645SOL    HW118832  12.838  10.970  14.026
 5645SOL    HW218833  12.840  11.097  13.945
 5646SOL     OW18834  14.464   6.359  12.898
 5646SOL    HW118835  14.480   6.284  12.842
 5646SOL    HW218836  14.392   6.332  12.955
 5647SOL     OW18837   6.328   5.234  10.430
 5647SOL    HW118838   6.312   5.306  10.369
 5647SOL    HW218839   6.263   5.246  10.499
 5648SOL     OW18840   2.299   0.341  13.988
 5648SOL    HW118841   2.315   0.288  13.910
 5648SOL    HW218842   2.316   0.282  14.061
 5649SOL     OW18843   0.848   5.758   5.219
 5649SOL    HW118844   0.912   5.706   5.171
 5649SOL    HW218845   0.819   5.700   5.290
 5650SOL     OW18846  12.888  11.545  13.915
 5650SOL    HW118847  12.823  11.610  13.889
 5650SOL    HW218848  12.963  11.560  13.857
 5651SOL     OW18849   2.189   7.521  14.162
 5651SOL    HW118850   2.165   7.611  14.144
 5651SOL    HW218851   2.274   7.526  14.205
 5652SOL     OW18852  12.611   7.285  10.595
 5652SOL    HW118853  12.537   7.225  10.581
 5652SOL    HW218854  12.592   7.360  10.539
 5653SOL     OW18855   0.283   5.348  12.292
 5653SOL    HW118856   0.377   5.361  12.303
 5653SOL    HW218857   0.243   5.401  12.361
 5654SOL     OW18858  12.393   3.849  11.287
 5654SOL    HW118859  12.338   3.868  11.211
 5654SOL    HW218860  12.406   3.754  11.285
 5655SOL     OW18861  10.992  13.366  12.010
 5655SOL    HW118862  10.984  13.320  12.094
 5655SOL    HW218863  10.911  13.416  12.003
 5656SOL     OW18864   3.561   6.024   7.245
 5656SOL    HW118865   3.537   6.057   7.331
 5656SOL    HW218866   3.616   5.947   7.262
 5657SOL     OW18867  14.781   4.093   0.079
 5657SOL    HW118868  14.823   4.042   0.148
 5657SOL    HW218869  14.774   4.032   0.005
 5658SOL     OW18870   7.782   3.453   5.550
 5658SOL    HW118871   7.821   3.430   5.465
 5658SOL    HW218872   7.854   3.495   5.598
 5659SOL     OW18873   3.875  11.360   8.240
 5659SOL    HW118874   3.791  11.342   8.199
 5659SOL    HW218875   3.940  11.323   8.180
 5660SOL     OW18876  14.591   7.133  10.915
 5660SOL    HW118877  14.542   7.174  10.987
 5660SOL    HW218878  14.524   7.084  10.866
 5661SOL     OW18879   9.764   4.861  12.248
 5661SOL    HW118880   9.776   4.800  12.174
 5661SOL    HW218881   9.734   4.942  12.207
 5662SOL     OW18882   1.283   8.390  11.567
 5662SOL    HW118883   1.354   8.424  11.621
 5662SOL    HW218884   1.241   8.468  11.531
 5663SOL     OW18885   9.738   2.219   3.976
 5663SOL    HW118886   9.738   2.227   3.881
 5663SOL    HW218887   9.780   2.299   4.007
 5664SOL     OW18888   4.264  11.222   3.520
 5664SOL    HW118889   4.297  11.312   3.516
 5664SOL    HW218890   4.178  11.231   3.560
 5665SOL     OW18891   3.288  10.448   4.264
 5665SOL    HW118892   3.214  10.506   4.282
 5665SOL    HW218893   3.334  10.442   4.347
 5666SOL     OW18894   8.357   8.476   0.612
 5666SOL    HW118895   8.365   8.547   0.675
 5666SOL    HW218896   8.304   8.409   0.656
 5667SOL     OW18897   3.197   8.286   9.826
 5667SOL    HW118898   3.256   8.238   9.768
 5667SOL    HW218899   3.110   8.254   9.804
 5668SOL     OW18900  11.738   2.694  13.450
 5668SOL    HW118901  11.673   2.682  13.380
 5668SOL    HW218902  11.765   2.605  13.473
 5669SOL     OW18903   6.571   0.436   8.879
 5669SOL    HW118904   6.575   0.524   8.842
 5669SOL    HW218905   6.479   0.424   8.903
 5670SOL     OW18906   2.155  14.086   3.360
 5670SOL    HW118907   2.130  14.176   3.338
 5670SOL    HW218908   2.131  14.036   3.282
 5671SOL     OW18909   5.649   7.905   4.775
 5671SOL    HW118910   5.563   7.912   4.734
 5671SOL    HW218911   5.684   7.994   4.771
 5672SOL     OW18912  10.717   4.123  14.571
 5672SOL    HW118913  10.797   4.113  14.621
 5672SOL    HW218914  10.692   4.215  14.583
 5673SOL     OW18915   5.994  10.489   5.649
 5673SOL    HW118916   5.936  10.533   5.711
 5673SOL    HW218917   5.937  10.465   5.576
 5674SOL     OW18918  12.233   6.797   6.298
 5674SOL    HW118919  12.303   6.863   6.299
 5674SOL    HW218920  12.279   6.714   6.283
 5675SOL     OW18921   9.104   2.395   0.308
 5675SOL    HW118922   9.160   2.346   0.247
 5675SOL    HW218923   9.128   2.486   0.293
 5676SOL     OW18924  13.295   5.582   9.128
 5676SOL    HW118925  13.199   5.575   9.128
 5676SOL    HW218926  13.320   5.564   9.037
 5677SOL     OW18927   3.457  13.265  11.070
 5677SOL    HW118928   3.408  13.240  11.149
 5677SOL    HW218929   3.442  13.194  11.009
 5678SOL     OW18930   7.767   3.241   1.562
 5678SOL    HW118931   7.799   3.151   1.559
 5678SOL    HW218932   7.809   3.284   1.486
 5679SOL     OW18933  14.510   7.987  11.668
 5679SOL    HW118934  14.429   8.002  11.717
 5679SOL    HW218935  14.580   7.999  11.732
 5680SOL     OW18936  10.456   4.744   4.809
 5680SOL    HW118937  10.368   4.714   4.830
 5680SOL    HW218938  10.513   4.670   4.830
 5681SOL     OW18939  13.795   5.048   9.402
 5681SOL    HW118940  13.745   5.094   9.469
 5681SOL    HW218941  13.780   4.955   9.421
 5682SOL     OW18942   6.976   9.998   5.896
 5682SOL    HW118943   6.911   9.942   5.939
 5682SOL    HW218944   6.966   9.980   5.803
 5683SOL     OW18945   3.501   5.866  11.012
 5683SOL    HW118946   3.485   5.855  10.918
 5683SOL    HW218947   3.551   5.789  11.037
 5684SOL     OW18948  11.559   4.030  12.920
 5684SOL    HW118949  11.491   3.968  12.948
 5684SOL    HW218950  11.631   4.015  12.981
 5685SOL     OW18951  14.043   4.422   7.287
 5685SOL    HW118952  14.117   4.427   7.347
 5685SOL    HW218953  13.968   4.453   7.339
 5686SOL     OW18954  10.299   5.858   5.493
 5686SOL    HW118955  10.320   5.840   5.401
 5686SOL    HW218956  10.254   5.780   5.524
 5687SOL     OW18957   3.137   7.998  11.689
 5687SOL    HW118958   3.103   7.915  11.722
 5687SOL    HW218959   3.169   7.976  11.601
 5688SOL     OW18960  14.476   0.969   5.738
 5688SOL    HW118961  14.503   1.041   5.680
 5688SOL    HW218962  14.385   0.989   5.760
 5689SOL     OW18963  10.576  14.395   9.094
 5689SOL    HW118964  10.488  14.366   9.071
 5689SOL    HW218965  10.612  14.323   9.145
 5690SOL     OW18966   9.244   1.829   0.792
 5690SOL    HW118967   9.181   1.895   0.817
 5690SOL    HW218968   9.329   1.865   0.818
 5691SOL     OW18969   2.605  10.987  11.817
 5691SOL    HW118970   2.614  11.011  11.909
 5691SOL    HW218971   2.555  10.906  11.818
 5692SOL     OW18972   8.360  10.263   7.525
 5692SOL    HW118973   8.293  10.282   7.459
 5692SOL    HW218974   8.385  10.349   7.558
 5693SOL     OW18975  14.825   0.852   0.773
 5693SOL    HW118976  14.738   0.820   0.751
 5693SOL    HW218977   0.013   0.793   0.727
 5694SOL     OW18978   8.513  10.600   5.082
 5694SOL    HW118979   8.517  10.619   4.988
 5694SOL    HW218980   8.605  10.598   5.110
 5695SOL     OW18981   0.432   6.327   8.783
 5695SOL    HW118982   0.424   6.369   8.698
 5695SOL    HW218983   0.526   6.320   8.798
 5696SOL     OW18984  12.369  12.521   6.087
 5696SOL    HW118985  12.338  12.592   6.029
 5696SOL    HW218986  12.296  12.460   6.090
 5697SOL     OW18987   1.248   4.998  10.765
 5697SOL    HW118988   1.287   4.939  10.700
 5697SOL    HW218989   1.292   4.977  10.847
 5698SOL     OW18990  13.006   5.623  12.388
 5698SOL    HW118991  12.964   5.707  12.372
 5698SOL    HW218992  13.076   5.642  12.450
 5699SOL     OW18993   3.224  13.200   2.594
 5699SOL    HW118994   3.220  13.259   2.519
 5699SOL    HW218995   3.235  13.113   2.556
 5700SOL     OW18996   3.465  13.674   6.892
 5700SOL    HW118997   3.516  13.736   6.840
 5700SOL    HW218998   3.452  13.718   6.976
 5701SOL     OW18999   3.806   3.826   8.259
 5701SOL    HW119000   3.898   3.838   8.282
 5701SOL    HW219001   3.804   3.830   8.164
 5702SOL     OW19002   5.748   3.086   5.042
 5702SOL    HW119003   5.827   3.107   5.092
 5702SOL    HW219004   5.676   3.101   5.103
 5703SOL     OW19005   3.328  12.471  12.968
 5703SOL    HW119006   3.306  12.382  12.939
 5703SOL    HW219007   3.245  12.519  12.964
 5704SOL     OW19008   8.393   8.350   6.379
 5704SOL    HW119009   8.455   8.381   6.446
 5704SOL    HW219010   8.308   8.378   6.412
 5705SOL     OW19011   1.585   0.340  13.159
 5705SOL    HW119012   1.593   0.320  13.252
 5705SOL    HW219013   1.642   0.277  13.116
 5706SOL     OW19014   3.898  10.847  14.595
 5706SOL    HW119015   3.944  10.826  14.677
 5706SOL    HW219016   3.953  10.913  14.553
 5707SOL     OW19017  12.511  12.717   8.269
 5707SOL    HW119018  12.571  12.706   8.195
 5707SOL    HW219019  12.425  12.731   8.229
 5708SOL     OW19020  13.186   2.063   5.056
 5708SOL    HW119021  13.260   2.063   5.117
 5708SOL    HW219022  13.168   2.155   5.040
 5709SOL     OW19023  14.715   0.001   0.445
 5709SOL    HW119024  14.631  14.830   0.459
 5709SOL    HW219025  14.721   0.064   0.517
 5710SOL     OW19026   2.665   6.513   5.331
 5710SOL    HW119027   2.658   6.515   5.235
 5710SOL    HW219028   2.574   6.519   5.361
 5711SOL     OW19029   9.737   2.631   4.571
 5711SOL    HW119030   9.824   2.610   4.604
 5711SOL    HW219031   9.742   2.612   4.478
 5712SOL     OW19032   0.611   0.573   0.262
 5712SOL    HW119033   0.586   0.610   0.177
 5712SOL    HW219034   0.574   0.634   0.326
 5713SOL     OW19035  11.790  10.775  11.597
 5713SOL    HW119036  11.731  10.795  11.670
 5713SOL    HW219037  11.731  10.751  11.525
 5714SOL     OW19038   9.202  12.081   4.864
 5714SOL    HW119039   9.294  12.060   4.879
 5714SOL    HW219040   9.161  12.075   4.950
 5715SOL     OW19041   6.073   5.747   9.906
 5715SOL    HW119042   6.117   5.821   9.864
 5715SOL    HW219043   5.980   5.763   9.891
 5716SOL     OW19044   4.688  12.835   2.608
 5716SOL    HW119045   4.767  12.888   2.599
 5716SOL    HW219046   4.640  12.849   2.527
 5717SOL     OW19047   0.755  13.439   6.058
 5717SOL    HW119048   0.720  13.408   5.975
 5717SOL    HW219049   0.850  13.429   6.050
 5718SOL     OW19050   0.882   0.238   7.995
 5718SOL    HW119051   0.931   0.256   8.075
 5718SOL    HW219052   0.849   0.323   7.966
 5719SOL     OW19053   0.061   9.951   3.523
 5719SOL    HW119054   0.072   9.856   3.535
 5719SOL    HW219055   0.149   9.986   3.526
 5720SOL     OW19056   1.917  10.453   4.116
 5720SOL    HW119057   1.948  10.364   4.103
 5720SOL    HW219058   1.996  10.502   4.141
 5721SOL     OW19059   6.290   4.057   9.132
 5721SOL    HW119060   6.234   4.083   9.205
 5721SOL    HW219061   6.373   4.035   9.173
 5722SOL     OW19062   3.203   6.969   0.301
 5722SOL    HW119063   3.168   7.057   0.312
 5722SOL    HW219064   3.217   6.937   0.390
 5723SOL     OW19065   1.594   5.199  13.734
 5723SOL    HW119066   1.682   5.210  13.697
 5723SOL    HW219067   1.551   5.282  13.716
 5724SOL     OW19068   9.115   1.598   5.723
 5724SOL    HW119069   9.100   1.504   5.720
 5724SOL    HW219070   9.029   1.636   5.740
 5725SOL     OW19071   5.910   7.784   4.756
 5725SOL    HW119072   5.880   7.745   4.673
 5725SOL    HW219073   5.835   7.834   4.787
 5726SOL     OW19074  12.210  12.353   8.003
 5726SOL    HW119075  12.122  12.337   7.968
 5726SOL    HW219076  12.203  12.328   8.096
 5727SOL     OW19077   4.122   0.021   9.743
 5727SOL    HW119078   4.174  14.815   9.725
 5727SOL    HW219079   4.181   0.079   9.791
 5728SOL     OW19080  11.913   0.096  12.592
 5728SOL    HW119081  11.832   0.142  12.569
 5728SOL    HW219082  11.909   0.085  12.687
 5729SOL     OW19083  11.163   0.114   5.783
 5729SOL    HW119084  11.147   0.195   5.832
 5729SOL    HW219085  11.166   0.046   5.850
 5730SOL     OW19086   1.075   9.691   4.295
 5730SOL    HW119087   1.116   9.610   4.325
 5730SOL    HW219088   1.049   9.673   4.205
 5731SOL     OW19089   8.759  10.913   2.632
 5731SOL    HW119090   8.710  10.839   2.596
 5731SOL    HW219091   8.798  10.954   2.555
 5732SOL     OW19092  12.907   6.495   7.183
 5732SOL    HW119093  12.873   6.574   7.225
 5732SOL    HW219094  12.996   6.519   7.156
 5733SOL     OW19095   9.450  12.791   1.520
 5733SOL    HW119096   9.536  12.795   1.478
 5733SOL    HW219097   9.422  12.882   1.526
 5734SOL     OW19098  11.511  13.302   2.347
 5734SOL    HW119099  11.446  13.265   2.407
 5734SOL    HW219100  11.474  13.385   2.319
 5735SOL     OW19101   8.434   3.383   8.620
 5735SOL    HW119102   8.454   3.452   8.557
 5735SOL    HW219103   8.423   3.305   8.567
 5736SOL     OW19104  10.941  10.327  11.795
 5736SOL    HW119105  11.021  10.305  11.844
 5736SOL    HW219106  10.871  10.282  11.842
 5737SOL     OW19107   9.645  12.077   8.086
 5737SOL    HW119108   9.673  12.165   8.111
 5737SOL    HW219109   9.721  12.022   8.100
 5738SOL     OW19110   5.851   3.443  13.055
 5738SOL    HW119111   5.858   3.365  13.000
 5738SOL    HW219112   5.934   3.489  13.042
 5739SOL     OW19113   0.705   7.497   2.382
 5739SOL    HW119114   0.732   7.424   2.439
 5739SOL    HW219115   0.684   7.455   2.299
 5740SOL     OW19116   2.088  10.044   6.476
 5740SOL    HW119117   2.076   9.949   6.463
 5740SOL    HW219118   2.172  10.051   6.521
 5741SOL     OW19119   7.221   9.458  10.324
 5741SOL    HW119120   7.306   9.501  10.321
 5741SOL    HW219121   7.235   9.374  10.281
 5742SOL     OW19122   7.958   7.958   1.239
 5742SOL    HW119123   7.866   7.970   1.264
 5742SOL    HW219124   7.978   7.868   1.266
 5743SOL     OW19125   7.550  12.412   9.654
 5743SOL    HW119126   7.644  12.404   9.668
 5743SOL    HW219127   7.537  12.389   9.562
 5744SOL     OW19128   9.871   4.082  11.899
 5744SOL    HW119129   9.849   4.026  11.973
 5744SOL    HW219130   9.933   4.145  11.935
 5745SOL     OW19131  13.289   8.229  14.222
 5745SOL    HW119132  13.354   8.290  14.256
 5745SOL    HW219133  13.271   8.260  14.133
 5746SOL     OW19134   9.245  11.570   6.402
 5746SOL    HW119135   9.194  11.586   6.482
 5746SOL    HW219136   9.336  11.571   6.432
 5747SOL     OW19137  10.137   2.851   5.712
 5747SOL    HW119138  10.215   2.822   5.759
 5747SOL    HW219139  10.093   2.911   5.773
 5748SOL     OW19140   0.507   6.840  13.494
 5748SOL    HW119141   0.499   6.745  13.504
 5748SOL    HW219142   0.588   6.862  13.539
 5749SOL     OW19143   7.542  10.284   3.135
 5749SOL    HW119144   7.584  10.333   3.065
 5749SOL    HW219145   7.557  10.192   3.114
 5750SOL     OW19146   7.970   3.887  10.940
 5750SOL    HW119147   7.885   3.922  10.966
 5750SOL    HW219148   8.017   3.875  11.023
 5751SOL     OW19149   2.015   3.832   7.489
 5751SOL    HW119150   1.935   3.808   7.442
 5751SOL    HW219151   2.006   3.791   7.575
 5752SOL     OW19152  11.656  12.838   5.397
 5752SOL    HW119153  11.585  12.898   5.418
 5752SOL    HW219154  11.698  12.876   5.320
 5753SOL     OW19155  12.386   7.287   4.497
 5753SOL    HW119156  12.468   7.281   4.447
 5753SOL    HW219157  12.317   7.280   4.431
 5754SOL     OW19158   6.782   9.433   0.822
 5754SOL    HW119159   6.828   9.513   0.798
 5754SOL    HW219160   6.737   9.455   0.904
 5755SOL     OW19161   0.270  10.486   6.178
 5755SOL    HW119162   0.325  10.556   6.141
 5755SOL    HW219163   0.286  10.411   6.122
 5756SOL     OW19164  12.255   5.044  14.460
 5756SOL    HW119165  12.296   5.005  14.382
 5756SOL    HW219166  12.325   5.045  14.526
 5757SOL     OW19167   4.837   8.577   3.093
 5757SOL    HW119168   4.927   8.610   3.095
 5757SOL    HW219169   4.821   8.548   3.183
 5758SOL     OW19170   2.323   1.820   7.836
 5758SOL    HW119171   2.394   1.812   7.901
 5758SOL    HW219172   2.314   1.732   7.800
 5759SOL     OW19173   1.580   5.447   3.422
 5759SOL    HW119174   1.583   5.404   3.336
 5759SOL    HW219175   1.613   5.536   3.406
 5760SOL     OW19176   9.504  13.575   5.494
 5760SOL    HW119177   9.560  13.612   5.426
 5760SOL    HW219178   9.416  13.576   5.456
 5761SOL     OW19179   1.202   5.606  12.551
 5761SOL    HW119180   1.209   5.531  12.610
 5761SOL    HW219181   1.110   5.607  12.524
 5762SOL     OW19182   5.538   9.991   4.641
 5762SOL    HW119183   5.558  10.034   4.558
 5762SOL    HW219184   5.444  10.008   4.654
 5763SOL     OW19185   1.915   6.388   8.754
 5763SOL    HW119186   1.937   6.478   8.780
 5763SOL    HW219187   1.907   6.341   8.837
 5764SOL     OW19188   1.634   9.467  11.032
 5764SOL    HW119189   1.702   9.400  11.042
 5764SOL    HW219190   1.615   9.495  11.122
 5765SOL     OW19191  12.869   5.159   8.221
 5765SOL    HW119192  12.904   5.070   8.215
 5765SOL    HW219193  12.946   5.215   8.230
 5766SOL     OW19194  11.593   2.488   3.257
 5766SOL    HW119195  11.611   2.500   3.163
 5766SOL    HW219196  11.508   2.443   3.260
 5767SOL     OW19197   2.033   5.401   4.247
 5767SOL    HW119198   2.104   5.377   4.188
 5767SOL    HW219199   1.960   5.344   4.222
 5768SOL     OW19200   1.838   4.427  13.094
 5768SOL    HW119201   1.895   4.475  13.154
 5768SOL    HW219202   1.807   4.351  13.144
 5769SOL     OW19203   1.064   7.228   5.554
 5769SOL    HW119204   1.064   7.320   5.525
 5769SOL    HW219205   1.016   7.181   5.486
 5770SOL     OW19206  11.041   1.247   3.858
 5770SOL    HW119207  11.094   1.287   3.927
 5770SOL    HW219208  11.077   1.159   3.848
 5771SOL     OW19209   5.288   6.113  10.972
 5771SOL    HW119210   5.232   6.190  10.986
 5771SOL    HW219211   5.236   6.056  10.916
 5772SOL     OW19212   9.272   2.733   5.789
 5772SOL    HW119213   9.181   2.742   5.761
 5772SOL    HW219214   9.323   2.775   5.719
 5773SOL     OW19215   9.728   3.239  13.410
 5773SOL    HW119216   9.705   3.318  13.459
 5773SOL    HW219217   9.755   3.176  13.478
 5774SOL     OW19218   4.535   9.257   0.007
 5774SOL    HW119219   4.606   9.259  14.815
 5774SOL    HW219220   4.506   9.166   0.008
 5775SOL     OW19221   2.081  14.201   0.532
 5775SOL    HW119222   2.053  14.145   0.459
 5775SOL    HW219223   2.097  14.139   0.603
 5776SOL     OW19224   7.704   8.465   6.708
 5776SOL    HW119225   7.660   8.427   6.783
 5776SOL    HW219226   7.634   8.486   6.646
 5777SOL     OW19227   8.456  13.879   3.386
 5777SOL    HW119228   8.521  13.940   3.349
 5777SOL    HW219229   8.509  13.810   3.426
 5778SOL     OW19230   9.188   0.634   0.303
 5778SOL    HW119231   9.203   0.702   0.238
 5778SOL    HW219232   9.125   0.673   0.364
 5779SOL     OW19233   7.693   7.449  10.329
 5779SOL    HW119234   7.671   7.391  10.402
 5779SOL    HW219235   7.784   7.474  10.345
 5780SOL     OW19236  14.191   9.514   2.750
 5780SOL    HW119237  14.197   9.418   2.755
 5780SOL    HW219238  14.216   9.544   2.837
 5781SOL     OW19239   3.024  12.965   1.395
 5781SOL    HW119240   3.026  13.034   1.462
 5781SOL    HW219241   2.960  12.995   1.331
 5782SOL     OW19242   1.926   3.105   4.358
 5782SOL    HW119243   1.932   3.052   4.279
 5782SOL    HW219244   1.849   3.160   4.344
 5783SOL     OW19245   8.498  12.216   5.163
 5783SOL    HW119246   8.514  12.280   5.233
 5783SOL    HW219247   8.462  12.140   5.209
 5784SOL     OW19248  14.387   5.432   3.551
 5784SOL    HW119249  14.359   5.371   3.619
 5784SOL    HW219250  14.409   5.512   3.598
 5785SOL     OW19251  10.232   6.088   8.715
 5785SOL    HW119252  10.197   6.175   8.696
 5785SOL    HW219253  10.300   6.102   8.781
 5786SOL     OW19254  13.144   6.879  12.763
 5786SOL    HW119255  13.193   6.956  12.734
 5786SOL    HW219256  13.078   6.914  12.823
 5787SOL     OW19257  11.053   1.523   3.673
 5787SOL    HW119258  11.013   1.520   3.759
 5787SOL    HW219259  11.005   1.457   3.622
 5788SOL     OW19260   1.240   4.305  11.036
 5788SOL    HW119261   1.167   4.257  11.076
 5788SOL    HW219262   1.297   4.327  11.109
 5789SOL     OW19263   7.008   3.420   1.003
 5789SOL    HW119264   6.953   3.447   1.077
 5789SOL    HW219265   6.983   3.480   0.932
 5790SOL     OW19266  10.266  13.241   6.020
 5790SOL    HW119267  10.326  13.284   5.960
 5790SOL    HW219268  10.220  13.177   5.966
 5791SOL     OW19269   1.119   0.189  12.872
 5791SOL    HW119270   1.114   0.094  12.861
 5791SOL    HW219271   1.075   0.224  12.794
 5792SOL     OW19272   2.823  10.147   4.879
 5792SOL    HW119273   2.812  10.095   4.958
 5792SOL    HW219274   2.913  10.178   4.883
 5793SOL     OW19275  12.908  13.792  10.508
 5793SOL    HW119276  12.987  13.825  10.551
 5793SOL    HW219277  12.836  13.834  10.554
 5794SOL     OW19278  13.522  13.481   2.318
 5794SOL    HW119279  13.502  13.396   2.357
 5794SOL    HW219280  13.556  13.461   2.231
 5795SOL     OW19281   2.457   9.075   9.140
 5795SOL    HW119282   2.365   9.093   9.161
 5795SOL    HW219283   2.506   9.115   9.212
 5796SOL     OW19284   6.122   4.789  11.715
 5796SOL    HW119285   6.154   4.763  11.801
 5796SOL    HW219286   6.158   4.877  11.702
 5797SOL     OW19287   4.828   1.627  14.651
 5797SOL    HW119288   4.893   1.692  14.624
 5797SOL    HW219289   4.781   1.670  14.723
 5798SOL     OW19290   9.323  13.418  13.674
 5798SOL    HW119291   9.369  13.409  13.757
 5798SOL    HW219292   9.265  13.342  13.669
 5799SOL     OW19293   7.272  14.456   3.442
 5799SOL    HW119294   7.195  14.498   3.403
 5799SOL    HW219295   7.272  14.486   3.533
 5800SOL     OW19296   9.078  11.833   6.964
 5800SOL    HW119297   9.125  11.750   6.962
 5800SOL    HW219298   9.147  11.900   6.962
 5801SOL     OW19299   6.499   8.549  12.050
 5801SOL    HW119300   6.594   8.557  12.041
 5801SOL    HW219301   6.464   8.615  11.990
 5802SOL     OW19302   3.999   2.811  12.402
 5802SOL    HW119303   3.956   2.802  12.318
 5802SOL    HW219304   4.014   2.720  12.431
 5803SOL     OW19305  10.481  12.204   0.620
 5803SOL    HW119306  10.511  12.161   0.540
 5803SOL    HW219307  10.428  12.277   0.589
 5804SOL     OW19308   0.472   2.501  12.205
 5804SOL    HW119309   0.512   2.570  12.257
 5804SOL    HW219310   0.535   2.484  12.134
 5805SOL     OW19311  10.401   3.466   3.597
 5805SOL    HW119312  10.443   3.550   3.581
 5805SOL    HW219313  10.464   3.401   3.565
 5806SOL     OW19314   6.248  13.778   9.658
 5806SOL    HW119315   6.237  13.703   9.599
 5806SOL    HW219316   6.300  13.841   9.607
 5807SOL     OW19317   6.432   1.403   9.071
 5807SOL    HW119318   6.451   1.339   9.003
 5807SOL    HW219319   6.517   1.430   9.104
 5808SOL     OW19320   9.372  13.144  12.825
 5808SOL    HW119321   9.280  13.154  12.799
 5808SOL    HW219322   9.422  13.177  12.750
 5809SOL     OW19323   0.724  12.229   5.196
 5809SOL    HW119324   0.639  12.234   5.153
 5809SOL    HW219325   0.714  12.158   5.260
 5810SOL     OW19326   7.660  12.014   8.675
 5810SOL    HW119327   7.628  11.930   8.644
 5810SOL    HW219328   7.742  12.028   8.628
 5811SOL     OW19329   8.099   9.752   3.183
 5811SOL    HW119330   8.157   9.690   3.138
 5811SOL    HW219331   8.016   9.746   3.136
 5812SOL     OW19332   6.830   8.793   5.595
 5812SOL    HW119333   6.819   8.699   5.583
 5812SOL    HW219334   6.783   8.813   5.676
 5813SOL     OW19335  10.518   1.945   5.687
 5813SOL    HW119336  10.446   1.929   5.627
 5813SOL    HW219337  10.562   2.022   5.652
 5814SOL     OW19338   9.222  11.145   4.693
 5814SOL    HW119339   9.257  11.231   4.671
 5814SOL    HW219340   9.130  11.149   4.667
 5815SOL     OW19341   4.787  11.178   8.731
 5815SOL    HW119342   4.802  11.147   8.820
 5815SOL    HW219343   4.839  11.258   8.724
 5816SOL     OW19344   0.555  11.472   7.703
 5816SOL    HW119345   0.625  11.417   7.667
 5816SOL    HW219346   0.493  11.483   7.630
 5817SOL     OW19347  13.311   6.755   2.589
 5817SOL    HW119348  13.330   6.713   2.505
 5817SOL    HW219349  13.254   6.693   2.634
 5818SOL     OW19350   2.273  12.704   9.510
 5818SOL    HW119351   2.249  12.733   9.423
 5818SOL    HW219352   2.203  12.736   9.567
 5819SOL     OW19353   3.020   6.573   7.680
 5819SOL    HW119354   3.018   6.666   7.658
 5819SOL    HW219355   3.097   6.539   7.635
 5820SOL     OW19356   8.970   1.165   9.968
 5820SOL    HW119357   8.972   1.127   9.880
 5820SOL    HW219358   9.053   1.211   9.976
 5821SOL     OW19359  12.743   9.791   7.335
 5821SOL    HW119360  12.792   9.771   7.255
 5821SOL    HW219361  12.674   9.850   7.306
 5822SOL     OW19362  14.520  13.077   5.820
 5822SOL    HW119363  14.500  13.090   5.912
 5822SOL    HW219364  14.435  13.058   5.780
 5823SOL     OW19365   5.732   4.246   6.347
 5823SOL    HW119366   5.815   4.250   6.301
 5823SOL    HW219367   5.692   4.332   6.331
 5824SOL     OW19368  10.288   0.057   4.601
 5824SOL    HW119369  10.348  14.856   4.586
 5824SOL    HW219370  10.329   0.108   4.671
 5825SOL     OW19371   0.807   8.672   8.283
 5825SOL    HW119372   0.716   8.672   8.254
 5825SOL    HW219373   0.838   8.760   8.263
 5826SOL     OW19374  13.461  12.048   0.325
 5826SOL    HW119375  13.470  11.975   0.387
 5826SOL    HW219376  13.547  12.090   0.325
 5827SOL     OW19377  12.060   1.792   3.878
 5827SOL    HW119378  11.988   1.768   3.937
 5827SOL    HW219379  12.021   1.791   3.791
 5828SOL     OW19380   6.831   5.952   6.902
 5828SOL    HW119381   6.751   5.955   6.954
 5828SOL    HW219382   6.810   6.003   6.824
 5829SOL     OW19383  14.664   6.128  14.499
 5829SOL    HW119384  14.614   6.054  14.532
 5829SOL    HW219385  14.609   6.165  14.429
 5830SOL     OW19386   8.252   2.185   1.822
 5830SOL    HW119387   8.161   2.211   1.806
 5830SOL    HW219388   8.248   2.090   1.832
 5831SOL     OW19389  13.792   8.808  12.552
 5831SOL    HW119390  13.743   8.890  12.549
 5831SOL    HW219391  13.736   8.749  12.604
 5832SOL     OW19392   6.636   1.174  14.062
 5832SOL    HW119393   6.652   1.223  14.143
 5832SOL    HW219394   6.575   1.105  14.088
 5833SOL     OW19395   4.864  10.590  12.642
 5833SOL    HW119396   4.889  10.657  12.579
 5833SOL    HW219397   4.786  10.626  12.685
 5834SOL     OW19398   3.189   5.028   6.557
 5834SOL    HW119399   3.278   5.009   6.526
 5834SOL    HW219400   3.200   5.105   6.614
 5835SOL     OW19401   4.929  12.254   8.706
 5835SOL    HW119402   5.012  12.301   8.711
 5835SOL    HW219403   4.896  12.253   8.796
 5836SOL     OW19404  11.885  11.176   4.048
 5836SOL    HW119405  11.932  11.172   3.964
 5836SOL    HW219406  11.938  11.123   4.107
 5837SOL     OW19407  10.999  13.907   8.202
 5837SOL    HW119408  10.948  13.975   8.158
 5837SOL    HW219409  11.086  13.913   8.162
 5838SOL     OW19410   8.320   9.680   7.766
 5838SOL    HW119411   8.285   9.764   7.793
 5838SOL    HW219412   8.384   9.657   7.833
 5839SOL     OW19413   8.487  10.483   0.443
 5839SOL    HW119414   8.453  10.572   0.443
 5839SOL    HW219415   8.567  10.488   0.495
 5840SOL     OW19416  14.776   6.525  14.163
 5840SOL    HW119417  14.740   6.605  14.124
 5840SOL    HW219418  14.708   6.495  14.223
 5841SOL     OW19419  11.906   2.387   8.588
 5841SOL    HW119420  11.936   2.478   8.592
 5841SOL    HW219421  11.957   2.343   8.656
 5842SOL     OW19422  14.245   0.688   7.039
 5842SOL    HW119423  14.333   0.711   7.010
 5842SOL    HW219424  14.243   0.592   7.037
 5843SOL     OW19425   8.476   5.079  12.754
 5843SOL    HW119426   8.555   5.040  12.792
 5843SOL    HW219427   8.406   5.020  12.782
 5844SOL     OW19428   3.440   3.634   7.844
 5844SOL    HW119429   3.438   3.707   7.905
 5844SOL    HW219430   3.489   3.667   7.768
 5845SOL     OW19431   8.603   3.753   5.266
 5845SOL    HW119432   8.573   3.681   5.210
 5845SOL    HW219433   8.663   3.803   5.210
 5846SOL     OW19434   4.439   4.346   4.181
 5846SOL    HW119435   4.432   4.372   4.089
 5846SOL    HW219436   4.419   4.426   4.230
 5847SOL     OW19437   4.512   4.575  14.357
 5847SOL    HW119438   4.455   4.604  14.428
 5847SOL    HW219439   4.462   4.507  14.313
 5848SOL     OW19440   3.279   8.243  10.132
 5848SOL    HW119441   3.279   8.148  10.144
 5848SOL    HW219442   3.271   8.255  10.037
 5849SOL     OW19443   2.466   9.603  14.196
 5849SOL    HW119444   2.551   9.645  14.184
 5849SOL    HW219445   2.424   9.608  14.110
 5850SOL     OW19446   6.614   0.138  13.069
 5850SOL    HW119447   6.575   0.134  13.156
 5850SOL    HW219448   6.650   0.227  13.064
 5851SOL     OW19449  11.286  13.305   1.267
 5851SOL    HW119450  11.331  13.252   1.333
 5851SOL    HW219451  11.228  13.361   1.317
 5852SOL     OW19452   0.305   3.695   1.977
 5852SOL    HW119453   0.357   3.720   2.053
 5852SOL    HW219454   0.262   3.613   2.003
 5853SOL     OW19455   0.272   6.018   9.530
 5853SOL    HW119456   0.285   6.014   9.625
 5853SOL    HW219457   0.252   6.110   9.513
 5854SOL     OW19458   1.825   1.080   1.569
 5854SOL    HW119459   1.768   1.147   1.605
 5854SOL    HW219460   1.823   1.095   1.474
 5855SOL     OW19461  12.565  12.443   6.277
 5855SOL    HW119462  12.488  12.426   6.223
 5855SOL    HW219463  12.568  12.539   6.285
 5856SOL     OW19464   9.506   9.968   6.840
 5856SOL    HW119465   9.562   9.917   6.782
 5856SOL    HW219466   9.484  10.046   6.790
 5857SOL     OW19467   2.174   4.973  11.693
 5857SOL    HW119468   2.169   5.000  11.601
 5857SOL    HW219469   2.102   4.912  11.704
 5858SOL     OW19470   7.495   1.726   3.338
 5858SOL    HW119471   7.504   1.778   3.418
 5858SOL    HW219472   7.581   1.734   3.295
 5859SOL     OW19473   6.324  12.545  14.098
 5859SOL    HW119474   6.409  12.539  14.142
 5859SOL    HW219475   6.334  12.492  14.019
 5860SOL     OW19476  11.701  13.265   3.785
 5860SOL    HW119477  11.612  13.245   3.756
 5860SOL    HW219478  11.718  13.353   3.752
 5861SOL     OW19479  13.392   7.138   5.483
 5861SOL    HW119480  13.333   7.155   5.557
 5861SOL    HW219481  13.443   7.218   5.474
 5862SOL     OW19482  11.935   4.015   1.106
 5862SOL    HW119483  11.852   4.043   1.067
 5862SOL    HW219484  11.918   4.014   1.200
 5863SOL     OW19485   8.387   9.793  11.041
 5863SOL    HW119486   8.432   9.716  11.008
 5863SOL    HW219487   8.298   9.763  11.059
 5864SOL     OW19488   8.540   0.520   9.474
 5864SOL    HW119489   8.588   0.582   9.528
 5864SOL    HW219490   8.454   0.513   9.516
 5865SOL     OW19491   0.042   8.071   3.989
 5865SOL    HW119492   0.037   7.982   3.954
 5865SOL    HW219493  14.829   8.085   4.030
 5866SOL     OW19494   8.579   4.492   8.460
 5866SOL    HW119495   8.565   4.587   8.459
 5866SOL    HW219496   8.583   4.467   8.368
 5867SOL     OW19497  14.005  12.034   3.119
 5867SOL    HW119498  13.971  11.945   3.123
 5867SOL    HW219499  14.084  12.028   3.065
 5868SOL     OW19500   2.968  13.114   9.615
 5868SOL    HW119501   2.880  13.126   9.650
 5868SOL    HW219502   2.960  13.133   9.522
 5869SOL     OW19503  14.244  12.626   7.206
 5869SOL    HW119504  14.264  12.547   7.254
 5869SOL    HW219505  14.175  12.600   7.144
 5870SOL     OW19506  13.378   1.947   8.650
 5870SOL    HW119507  13.366   2.014   8.582
 5870SOL    HW219508  13.403   1.868   8.601
 5871SOL     OW19509   8.366   1.809   4.370
 5871SOL    HW119510   8.276   1.816   4.404
 5871SOL    HW219511   8.369   1.870   4.297
 5872SOL     OW19512   8.489  11.794   0.777
 5872SOL    HW119513   8.485  11.890   0.785
 5872SOL    HW219514   8.417  11.763   0.831
 5873SOL     OW19515   3.915   6.619  10.764
 5873SOL    HW119516   3.858   6.696  10.769
 5873SOL    HW219517   3.968   6.633  10.686
 5874SOL     OW19518   3.562  14.513   4.513
 5874SOL    HW119519   3.484  14.516   4.567
 5874SOL    HW219520   3.634  14.498   4.574
 5875SOL     OW19521  11.016   8.460   4.796
 5875SOL    HW119522  10.962   8.399   4.747
 5875SOL    HW219523  10.958   8.532   4.819
 5876SOL     OW19524   8.720   7.101  11.561
 5876SOL    HW119525   8.744   7.008  11.564
 5876SOL    HW219526   8.760   7.133  11.480
 5877SOL     OW19527   2.605  11.767  12.449
 5877SOL    HW119528   2.638  11.841  12.397
 5877SOL    HW219529   2.560  11.712  12.385
 5878SOL     OW19530  12.553   4.115   4.863
 5878SOL    HW119531  12.634   4.165   4.856
 5878SOL    HW219532  12.510   4.127   4.779
 5879SOL     OW19533   7.483   2.003  14.479
 5879SOL    HW119534   7.542   1.987  14.554
 5879SOL    HW219535   7.395   1.999  14.517
 5880SOL     OW19536   0.560   0.029   5.712
 5880SOL    HW119537   0.621   0.056   5.781
 5880SOL    HW219538   0.474   0.034   5.754
 5881SOL     OW19539   9.948   1.716   7.367
 5881SOL    HW119540   9.911   1.733   7.454
 5881SOL    HW219541  10.025   1.773   7.363
 5882SOL     OW19542   8.418   8.807   5.628
 5882SOL    HW119543   8.333   8.831   5.665
 5882SOL    HW219544   8.474   8.883   5.643
 5883SOL     OW19545   9.429  12.180   1.483
 5883SOL    HW119546   9.441  12.179   1.578
 5883SOL    HW219547   9.453  12.092   1.455
 5884SOL     OW19548  14.557   9.756   8.804
 5884SOL    HW119549  14.618   9.723   8.869
 5884SOL    HW219550  14.609   9.816   8.750
 5885SOL     OW19551   3.573   0.607   8.989
 5885SOL    HW119552   3.647   0.551   9.010
 5885SOL    HW219553   3.612   0.689   8.958
 5886SOL     OW19554   4.380  11.227   2.155
 5886SOL    HW119555   4.352  11.181   2.234
 5886SOL    HW219556   4.302  11.272   2.123
 5887SOL     OW19557   9.220   8.997   2.574
 5887SOL    HW119558   9.233   8.935   2.645
 5887SOL    HW219559   9.131   9.030   2.586
 5888SOL     OW19560   9.598   5.983  11.741
 5888SOL    HW119561   9.585   6.046  11.812
 5888SOL    HW219562   9.531   5.916  11.756
 5889SOL     OW19563   2.672  11.840  14.495
 5889SOL    HW119564   2.715  11.888  14.425
 5889SOL    HW219565   2.596  11.800  14.453
 5890SOL     OW19566   9.251  12.597   4.659
 5890SOL    HW119567   9.309  12.596   4.735
 5890SOL    HW219568   9.270  12.681   4.616
 5891SOL     OW19569   7.768  13.768   9.332
 5891SOL    HW119570   7.762  13.734   9.422
 5891SOL    HW219571   7.859  13.795   9.322
 5892SOL     OW19572   5.257  12.717  11.614
 5892SOL    HW119573   5.216  12.790  11.661
 5892SOL    HW219574   5.299  12.665  11.682
 5893SOL     OW19575   3.744   1.628  11.868
 5893SOL    HW119576   3.837   1.617  11.850
 5893SOL    HW219577   3.706   1.542  11.850
 5894SOL     OW19578   8.918   0.184   2.776
 5894SOL    HW119579   8.925   0.145   2.689
 5894SOL    HW219580   8.830   0.159   2.806
 5895SOL     OW19581   8.141  10.466  10.394
 5895SOL    HW119582   8.152  10.560  10.379
 5895SOL    HW219583   8.053  10.447  10.359
 5896SOL     OW19584   8.702   4.085   0.641
 5896SOL    HW119585   8.627   4.141   0.663
 5896SOL    HW219586   8.665   4.015   0.588
 5897SOL     OW19587  12.292   0.655   0.965
 5897SOL    HW119588  12.366   0.712   0.986
 5897SOL    HW219589  12.246   0.643   1.048
 5898SOL     OW19590  12.880   3.153  14.560
 5898SOL    HW119591  12.905   3.179  14.649
 5898SOL    HW219592  12.790   3.184  14.551
 5899SOL     OW19593   9.179   7.878   4.556
 5899SOL    HW119594   9.146   7.957   4.513
 5899SOL    HW219595   9.272   7.876   4.533
 5900SOL     OW19596   2.774  10.185  12.743
 5900SOL    HW119597   2.844  10.172  12.679
 5900SOL    HW219598   2.787  10.115  12.807
 5901SOL     OW19599   3.430   5.430   1.126
 5901SOL    HW119600   3.474   5.371   1.065
 5901SOL    HW219601   3.457   5.518   1.098
 5902SOL     OW19602   8.454  12.120  11.892
 5902SOL    HW119603   8.492  12.037  11.923
 5902SOL    HW219604   8.461  12.115  11.796
 5903SOL     OW19605  10.509   3.518  13.164
 5903SOL    HW119606  10.461   3.512  13.246
 5903SOL    HW219607  10.581   3.455  13.174
 5904SOL     OW19608  14.733   3.945  10.513
 5904SOL    HW119609  14.742   3.861  10.559
 5904SOL    HW219610  14.639   3.959  10.507
 5905SOL     OW19611   6.235   3.297  14.183
 5905SOL    HW119612   6.287   3.217  14.178
 5905SOL    HW219613   6.293   3.362  14.223
 5906SOL     OW19614   5.342   4.524  14.831
 5906SOL    HW119615   5.382   4.611  14.835
 5906SOL    HW219616   5.348   4.500  14.738
 5907SOL     OW19617   3.320   5.652   2.370
 5907SOL    HW119618   3.340   5.593   2.443
 5907SOL    HW219619   3.309   5.737   2.411
 5908SOL     OW19620   5.222   4.722   3.116
 5908SOL    HW119621   5.211   4.632   3.148
 5908SOL    HW219622   5.139   4.765   3.135
 5909SOL     OW19623  11.019  13.056   2.112
 5909SOL    HW119624  11.091  13.068   2.050
 5909SOL    HW219625  10.977  13.141   2.116
 5910SOL     OW19626   1.535   5.232   3.233
 5910SOL    HW119627   1.562   5.237   3.141
 5910SOL    HW219628   1.451   5.186   3.230
 5911SOL     OW19629   4.647   1.758   7.410
 5911SOL    HW119630   4.702   1.733   7.336
 5911SOL    HW219631   4.558   1.763   7.374
 5912SOL     OW19632   8.250   0.517   7.852
 5912SOL    HW119633   8.164   0.540   7.887
 5912SOL    HW219634   8.255   0.563   7.768
 5913SOL     OW19635  10.595   1.821   7.387
 5913SOL    HW119636  10.515   1.824   7.334
 5913SOL    HW219637  10.659   1.871   7.336
 5914SOL     OW19638   1.829   4.939  13.897
 5914SOL    HW119639   1.746   4.945  13.943
 5914SOL    HW219640   1.806   4.916  13.807
 5915SOL     OW19641  12.294   6.353   4.401
 5915SOL    HW119642  12.388   6.336   4.392
 5915SOL    HW219643  12.252   6.274   4.367
 5916SOL     OW19644   7.461  11.370   7.885
 5916SOL    HW119645   7.392  11.436   7.894
 5916SOL    HW219646   7.543  11.419   7.896
 5917SOL     OW19647  11.444   5.055   5.781
 5917SOL    HW119648  11.350   5.056   5.765
 5917SOL    HW219649  11.481   5.007   5.707
 5918SOL     OW19650  13.597   6.541   7.582
 5918SOL    HW119651  13.567   6.527   7.492
 5918SOL    HW219652  13.674   6.485   7.590
 5919SOL     OW19653   0.438  13.811   6.056
 5919SOL    HW119654   0.486  13.756   6.119
 5919SOL    HW219655   0.433  13.896   6.099
 5920SOL     OW19656  14.479   6.386  10.256
 5920SOL    HW119657  14.495   6.364  10.347
 5920SOL    HW219658  14.494   6.304  10.209
 5921SOL     OW19659   1.284  12.458  14.775
 5921SOL    HW119660   1.221  12.490  14.710
 5921SOL    HW219661   1.298  12.534  14.833
 5922SOL     OW19662   4.521  11.995   3.609
 5922SOL    HW119663   4.612  11.980   3.582
 5922SOL    HW219664   4.487  11.908   3.630
 5923SOL     OW19665   4.055  12.936  12.535
 5923SOL    HW119666   4.056  12.971  12.624
 5923SOL    HW219667   4.083  13.009  12.479
 5924SOL     OW19668   5.205   4.762   1.876
 5924SOL    HW119669   5.177   4.777   1.786
 5924SOL    HW219670   5.202   4.849   1.917
 5925SOL     OW19671   3.230   5.613  13.786
 5925SOL    HW119672   3.203   5.655  13.705
 5925SOL    HW219673   3.324   5.629  13.792
 5926SOL     OW19674  11.114  10.173   6.358
 5926SOL    HW119675  11.107  10.182   6.263
 5926SOL    HW219676  11.103  10.080   6.375
 5927SOL     OW19677   4.695   7.583   5.036
 5927SOL    HW119678   4.708   7.633   5.117
 5927SOL    HW219679   4.611   7.615   5.003
 5928SOL     OW19680  11.007   9.443  12.799
 5928SOL    HW119681  11.003   9.468  12.707
 5928SOL    HW219682  10.944   9.501  12.842
 5929SOL     OW19683  14.555   6.694   9.927
 5929SOL    HW119684  14.630   6.689   9.867
 5929SOL    HW219685  14.523   6.784   9.918
 5930SOL     OW19686   1.512   4.069   5.269
 5930SOL    HW119687   1.475   4.157   5.260
 5930SOL    HW219688   1.460   4.028   5.338
 5931SOL     OW19689   5.087   4.299   7.248
 5931SOL    HW119690   5.066   4.205   7.247
 5931SOL    HW219691   5.037   4.334   7.322
 5932SOL     OW19692   0.143  12.353   4.498
 5932SOL    HW119693   0.069  12.317   4.451
 5932SOL    HW219694   0.146  12.446   4.472
 5933SOL     OW19695   9.483   7.403  14.045
 5933SOL    HW119696   9.419   7.429  13.979
 5933SOL    HW219697   9.472   7.467  14.116
 5934SOL     OW19698  12.827   8.051   7.500
 5934SOL    HW119699  12.873   8.113   7.443
 5934SOL    HW219700  12.810   8.100   7.580
 5935SOL     OW19701  10.508   7.862   4.317
 5935SOL    HW119702  10.518   7.890   4.226
 5935SOL    HW219703  10.562   7.783   4.324
 5936SOL     OW19704  13.163   2.960   5.130
 5936SOL    HW119705  13.085   2.967   5.075
 5936SOL    HW219706  13.168   2.867   5.153
 5937SOL     OW19707   1.398   1.027  14.233
 5937SOL    HW119708   1.367   0.937  14.228
 5937SOL    HW219709   1.481   1.021  14.281
 5938SOL     OW19710   0.372  11.520   4.084
 5938SOL    HW119711   0.288  11.503   4.040
 5938SOL    HW219712   0.356  11.602   4.132
 5939SOL     OW19713  12.808   8.807   3.004
 5939SOL    HW119714  12.796   8.723   3.048
 5939SOL    HW219715  12.808   8.786   2.910
 5940SOL     OW19716  11.008   5.646   9.809
 5940SOL    HW119717  11.095   5.606   9.813
 5940SOL    HW219718  10.951   5.583   9.852
 5941SOL     OW19719  12.222   7.708   1.721
 5941SOL    HW119720  12.275   7.655   1.781
 5941SOL    HW219721  12.174   7.768   1.779
 5942SOL     OW19722   6.127  12.523   2.182
 5942SOL    HW119723   6.054  12.530   2.121
 5942SOL    HW219724   6.091  12.549   2.267
 5943SOL     OW19725  13.559   6.869   5.812
 5943SOL    HW119726  13.599   6.866   5.899
 5943SOL    HW219727  13.601   6.943   5.768
 5944SOL     OW19728   6.824  13.375   5.692
 5944SOL    HW119729   6.791  13.465   5.690
 5944SOL    HW219730   6.869  13.368   5.776
 5945SOL     OW19731   1.427   5.393   0.733
 5945SOL    HW119732   1.477   5.408   0.653
 5945SOL    HW219733   1.372   5.317   0.713
 5946SOL     OW19734   6.524  11.805   9.467
 5946SOL    HW119735   6.460  11.760   9.522
 5946SOL    HW219736   6.598  11.822   9.526
 5947SOL     OW19737   0.133  10.706   2.393
 5947SOL    HW119738   0.143  10.612   2.407
 5947SOL    HW219739   0.114  10.741   2.481
 5948SOL     OW19740   0.656   2.167   0.063
 5948SOL    HW119741   0.631   2.098   0.126
 5948SOL    HW219742   0.750   2.177   0.075
 5949SOL     OW19743  11.779  11.930  10.792
 5949SOL    HW119744  11.780  11.835  10.809
 5949SOL    HW219745  11.815  11.938  10.704
 5950SOL     OW19746   7.612   9.393  11.899
 5950SOL    HW119747   7.540   9.405  11.961
 5950SOL    HW219748   7.686   9.366  11.952
 5951SOL     OW19749   8.102   0.313  10.987
 5951SOL    HW119750   8.017   0.339  10.951
 5951SOL    HW219751   8.161   0.385  10.964
 5952SOL     OW19752   1.010   8.948   2.951
 5952SOL    HW119753   0.956   9.020   2.916
 5952SOL    HW219754   1.091   8.953   2.902
 5953SOL     OW19755   8.956  12.535  11.677
 5953SOL    HW119756   8.964  12.490  11.593
 5953SOL    HW219757   8.869  12.510  11.710
 5954SOL     OW19758   4.429   5.702   8.817
 5954SOL    HW119759   4.361   5.760   8.853
 5954SOL    HW219760   4.419   5.621   8.866
 5955SOL     OW19761   7.737   8.616  14.139
 5955SOL    HW119762   7.711   8.697  14.182
 5955SOL    HW219763   7.727   8.549  14.207
 5956SOL     OW19764   1.796  14.712   8.840
 5956SOL    HW119765   1.806  14.753   8.926
 5956SOL    HW219766   1.716  14.750   8.804
 5957SOL     OW19767  13.514   4.040   3.046
 5957SOL    HW119768  13.496   4.115   2.990
 5957SOL    HW219769  13.459   3.970   3.012
 5958SOL     OW19770   8.358   1.467   9.936
 5958SOL    HW119771   8.326   1.425  10.016
 5958SOL    HW219772   8.298   1.540   9.922
 5959SOL     OW19773  13.586   7.962   9.087
 5959SOL    HW119774  13.607   8.055   9.095
 5959SOL    HW219775  13.539   7.954   9.004
 5960SOL     OW19776   9.552   9.697   1.374
 5960SOL    HW119777   9.555   9.603   1.359
 5960SOL    HW219778   9.636   9.718   1.415
 5961SOL     OW19779   5.822  10.323   0.437
 5961SOL    HW119780   5.843  10.406   0.481
 5961SOL    HW219781   5.752  10.285   0.490
 5962SOL     OW19782   5.784  12.406   8.033
 5962SOL    HW119783   5.837  12.462   8.091
 5962SOL    HW219784   5.840  12.330   8.016
 5963SOL     OW19785   8.298   5.550  13.782
 5963SOL    HW119786   8.283   5.639  13.815
 5963SOL    HW219787   8.210   5.515  13.767
 5964SOL     OW19788  10.582  10.097  10.067
 5964SOL    HW119789  10.659  10.129  10.021
 5964SOL    HW219790  10.606  10.009  10.096
 5965SOL     OW19791   1.411  10.803   2.603
 5965SOL    HW119792   1.382  10.806   2.694
 5965SOL    HW219793   1.431  10.711   2.587
 5966SOL     OW19794   5.481   4.318  12.209
 5966SOL    HW119795   5.550   4.381  12.229
 5966SOL    HW219796   5.499   4.244  12.267
 5967SOL     OW19797  11.915   2.256   0.499
 5967SOL    HW119798  11.944   2.165   0.497
 5967SOL    HW219799  11.922   2.281   0.591
 5968SOL     OW19800   3.232   9.815  12.629
 5968SOL    HW119801   3.181   9.734  12.629
 5968SOL    HW219802   3.202   9.862  12.706
 5969SOL     OW19803   5.761   5.266   2.417
 5969SOL    HW119804   5.717   5.259   2.501
 5969SOL    HW219805   5.730   5.348   2.380
 5970SOL     OW19806  13.046  13.518   0.335
 5970SOL    HW119807  13.015  13.595   0.287
 5970SOL    HW219808  13.123  13.488   0.286
 5971SOL     OW19809   6.019   3.445  10.946
 5971SOL    HW119810   6.047   3.464  11.036
 5971SOL    HW219811   6.098   3.453  10.893
 5972SOL     OW19812   0.244  13.614   4.414
 5972SOL    HW119813   0.325  13.664   4.415
 5972SOL    HW219814   0.232  13.590   4.322
 5973SOL     OW19815  11.924   8.721   5.544
 5973SOL    HW119816  11.837   8.748   5.574
 5973SOL    HW219817  11.927   8.627   5.563
 5974SOL     OW19818   8.101  14.085  13.341
 5974SOL    HW119819   8.138  14.141  13.410
 5974SOL    HW219820   8.131  13.997  13.363
 5975SOL     OW19821   7.778  11.858  14.223
 5975SOL    HW119822   7.782  11.803  14.302
 5975SOL    HW219823   7.785  11.796  14.150
 5976SOL     OW19824   5.581   9.855   0.659
 5976SOL    HW119825   5.613   9.933   0.705
 5976SOL    HW219826   5.631   9.782   0.697
 5977SOL     OW19827  12.263  10.950   9.281
 5977SOL    HW119828  12.321  10.937   9.356
 5977SOL    HW219829  12.188  10.894   9.299
 5978SOL     OW19830  12.916   7.931   8.569
 5978SOL    HW119831  12.897   8.023   8.589
 5978SOL    HW219832  12.909   7.887   8.653
 5979SOL     OW19833   2.185   7.905  11.590
 5979SOL    HW119834   2.098   7.941  11.572
 5979SOL    HW219835   2.196   7.914  11.685
 5980SOL     OW19836   1.899   2.979  13.625
 5980SOL    HW119837   1.943   2.981  13.711
 5980SOL    HW219838   1.838   3.052  13.628
 5981SOL     OW19839  12.558  12.553  10.331
 5981SOL    HW119840  12.495  12.525  10.397
 5981SOL    HW219841  12.626  12.486  10.332
 5982SOL     OW19842  14.778   3.841   7.059
 5982SOL    HW119843  14.687   3.870   7.061
 5982SOL    HW219844  14.772   3.745   7.066
 5983SOL     OW19845   9.646   8.288  12.071
 5983SOL    HW119846   9.557   8.284  12.106
 5983SOL    HW219847   9.649   8.370  12.023
 5984SOL     OW19848  12.607   6.321  12.749
 5984SOL    HW119849  12.628   6.378  12.675
 5984SOL    HW219850  12.623   6.375  12.826
 5985SOL     OW19851   3.684   3.236   2.860
 5985SOL    HW119852   3.646   3.219   2.774
 5985SOL    HW219853   3.751   3.169   2.871
 5986SOL     OW19854   2.139   1.102   2.502
 5986SOL    HW119855   2.188   1.024   2.477
 5986SOL    HW219856   2.143   1.103   2.598
 5987SOL     OW19857  12.975   6.633  10.299
 5987SOL    HW119858  13.012   6.705  10.350
 5987SOL    HW219859  12.956   6.566  10.365
 5988SOL     OW19860   9.594   5.888   8.094
 5988SOL    HW119861   9.531   5.908   8.026
 5988SOL    HW219862   9.600   5.968   8.146
 5989SOL     OW19863  11.556   4.681   7.546
 5989SOL    HW119864  11.612   4.671   7.469
 5989SOL    HW219865  11.534   4.591   7.572
 5990SOL     OW19866   6.814   5.458  14.775
 5990SOL    HW119867   6.887   5.472  14.834
 5990SOL    HW219868   6.744   5.515  14.807
 5991SOL     OW19869   9.914   3.829   4.710
 5991SOL    HW119870   9.874   3.828   4.797
 5991SOL    HW219871   9.987   3.890   4.718
 5992SOL     OW19872  13.322  13.983   4.638
 5992SOL    HW119873  13.306  13.889   4.633
 5992SOL    HW219874  13.404  13.991   4.686
 5993SOL     OW19875  11.504   3.890   8.464
 5993SOL    HW119876  11.580   3.895   8.522
 5993SOL    HW219877  11.514   3.806   8.419
 5994SOL     OW19878   1.210   6.297   1.844
 5994SOL    HW119879   1.194   6.225   1.906
 5994SOL    HW219880   1.192   6.376   1.894
 5995SOL     OW19881   7.388   5.140  12.831
 5995SOL    HW119882   7.440   5.080  12.885
 5995SOL    HW219883   7.304   5.146  12.877
 5996SOL     OW19884   3.248   9.947   2.122
 5996SOL    HW119885   3.279   9.866   2.163
 5996SOL    HW219886   3.326  10.003   2.117
 5997SOL     OW19887   9.930   3.550   7.589
 5997SOL    HW119888   9.930   3.644   7.603
 5997SOL    HW219889   9.878   3.537   7.509
 5998SOL     OW19890   3.780   7.743   0.096
 5998SOL    HW119891   3.785   7.835   0.071
 5998SOL    HW219892   3.844   7.733   0.167
 5999SOL     OW19893   1.032   1.962   5.403
 5999SOL    HW119894   1.011   1.992   5.491
 5999SOL    HW219895   0.964   2.000   5.347
 6000SOL     OW19896   4.388  13.924  12.868
 6000SOL    HW119897   4.465  13.935  12.923
 6000SOL    HW219898   4.400  13.838  12.827
 6001SOL     OW19899   4.584   5.596   1.197
 6001SOL    HW119900   4.615   5.505   1.201
 6001SOL    HW219901   4.577   5.623   1.288
 6002SOL     OW19902   9.356   5.356   4.692
 6002SOL    HW119903   9.269   5.325   4.717
 6002SOL    HW219904   9.406   5.276   4.675
 6003SOL     OW19905  10.368   9.025   3.837
 6003SOL    HW119906  10.424   8.948   3.825
 6003SOL    HW219907  10.280   8.994   3.815
 6004SOL     OW19908   3.137   5.446   4.447
 6004SOL    HW119909   3.049   5.428   4.412
 6004SOL    HW219910   3.127   5.437   4.542
 6005SOL     OW19911  13.536  11.596  11.249
 6005SOL    HW119912  13.563  11.615  11.160
 6005SOL    HW219913  13.589  11.655  11.303
 6006SOL     OW19914  11.472   0.562   1.098
 6006SOL    HW119915  11.480   0.610   1.181
 6006SOL    HW219916  11.383   0.526   1.100
 6007SOL     OW19917   9.422   9.447  12.698
 6007SOL    HW119918   9.495   9.450  12.759
 6007SOL    HW219919   9.419   9.535  12.660
 6008SOL     OW19920   4.868  11.812   0.664
 6008SOL    HW119921   4.881  11.803   0.570
 6008SOL    HW219922   4.904  11.899   0.684
 6009SOL     OW19923  13.344   7.224   2.113
 6009SOL    HW119924  13.431   7.236   2.149
 6009SOL    HW219925  13.322   7.132   2.132
 6010SOL     OW19926   4.013   4.188   3.558
 6010SOL    HW119927   3.998   4.093   3.556
 6010SOL    HW219928   4.018   4.209   3.651
 6011SOL     OW19929   5.061   8.870   0.468
 6011SOL    HW119930   5.012   8.941   0.508
 6011SOL    HW219931   5.025   8.862   0.380
 6012SOL     OW19932   3.417  10.646  10.147
 6012SOL    HW119933   3.345  10.708  10.138
 6012SOL    HW219934   3.374  10.561  10.159
 6013SOL     OW19935   5.436   7.836   5.341
 6013SOL    HW119936   5.527   7.859   5.324
 6013SOL    HW219937   5.412   7.890   5.417
 6014SOL     OW19938   2.064  11.187  13.393
 6014SOL    HW119939   1.986  11.132  13.402
 6014SOL    HW219940   2.124  11.134  13.340
 6015SOL     OW19941   5.574   3.073   0.334
 6015SOL    HW119942   5.547   2.981   0.332
 6015SOL    HW219943   5.643   3.076   0.401
 6016SOL     OW19944   3.833  10.512   5.242
 6016SOL    HW119945   3.892  10.584   5.265
 6016SOL    HW219946   3.747  10.552   5.237
 6017SOL     OW19947  10.848   0.587   2.060
 6017SOL    HW119948  10.841   0.679   2.088
 6017SOL    HW219949  10.910   0.590   1.987
 6018SOL     OW19950  11.385   4.108  12.707
 6018SOL    HW119951  11.454   4.070  12.761
 6018SOL    HW219952  11.331   4.157  12.769
 6019SOL     OW19953   6.496   7.534   7.256
 6019SOL    HW119954   6.586   7.568   7.261
 6019SOL    HW219955   6.507   7.444   7.227
 6020SOL     OW19956   4.357  13.250   7.063
 6020SOL    HW119957   4.412  13.199   7.123
 6020SOL    HW219958   4.365  13.340   7.095
 6021SOL     OW19959   7.945   5.680   4.503
 6021SOL    HW119960   8.028   5.643   4.473
 6021SOL    HW219961   7.956   5.774   4.495
 6022SOL     OW19962   5.117   2.326  10.503
 6022SOL    HW119963   5.096   2.238  10.472
 6022SOL    HW219964   5.150   2.313  10.592
 6023SOL     OW19965  12.051  12.141   1.903
 6023SOL    HW119966  12.010  12.101   1.827
 6023SOL    HW219967  12.008  12.227   1.911
 6024SOL     OW19968   6.400   8.558   9.913
 6024SOL    HW119969   6.460   8.624   9.879
 6024SOL    HW219970   6.349   8.531   9.836
 6025SOL     OW19971   4.643   7.816  11.059
 6025SOL    HW119972   4.716   7.786  11.114
 6025SOL    HW219973   4.571   7.830  11.121
 6026SOL     OW19974   3.606   6.270   6.138
 6026SOL    HW119975   3.538   6.266   6.205
 6026SOL    HW219976   3.638   6.360   6.141
 6027SOL     OW19977   1.859   0.850   0.241
 6027SOL    HW119978   1.843   0.941   0.265
 6027SOL    HW219979   1.797   0.800   0.294
 6028SOL     OW19980   4.985  13.816  11.716
 6028SOL    HW119981   4.963  13.734  11.673
 6028SOL    HW219982   4.901  13.856  11.738
 6029SOL     OW19983   4.983   5.544  13.424
 6029SOL    HW119984   4.935   5.475  13.378
 6029SOL    HW219985   4.915   5.608  13.446
 6030SOL     OW19986  11.072   6.474   1.792
 6030SOL    HW119987  11.030   6.401   1.838
 6030SOL    HW219988  11.044   6.552   1.841
 6031SOL     OW19989   0.910   0.985  13.064
 6031SOL    HW119990   0.998   1.021  13.048
 6031SOL    HW219991   0.855   1.062  13.081
 6032SOL     OW19992   9.637   3.863   6.604
 6032SOL    HW119993   9.644   3.945   6.652
 6032SOL    HW219994   9.622   3.890   6.513
 6033SOL     OW19995  14.753   0.939  12.885
 6033SOL    HW119996  14.825   0.881  12.862
 6033SOL    HW219997  14.792   1.026  12.889
 6034SOL     OW19998   4.258  12.299  14.338
 6034SOL    HW119999   4.230  12.355  14.266
 6034SOL    HW220000   4.203  12.221  14.331
 6035SOL     OW20001  13.655   1.827  10.804
 6035SOL    HW120002  13.675   1.769  10.731
 6035SOL    HW220003  13.620   1.906  10.762
 6036SOL     OW20004  11.227   5.466   4.369
 6036SOL    HW120005  11.148   5.498   4.327
 6036SOL    HW220006  11.232   5.514   4.452
 6037SOL     OW20007   2.161   6.674   1.470
 6037SOL    HW120008   2.256   6.661   1.463
 6037SOL    HW220009   2.123   6.609   1.412
 6038SOL     OW20010   8.837   2.415   5.419
 6038SOL    HW120011   8.854   2.350   5.351
 6038SOL    HW220012   8.769   2.472   5.382
 6039SOL     OW20013  11.471  10.349  11.846
 6039SOL    HW120014  11.464  10.256  11.823
 6039SOL    HW220015  11.565  10.367  11.844
 6040SOL     OW20016   5.559  12.911   1.561
 6040SOL    HW120017   5.566  12.945   1.651
 6040SOL    HW220018   5.500  12.972   1.517
 6041SOL     OW20019  12.502   7.705  13.503
 6041SOL    HW120020  12.586   7.750  13.490
 6041SOL    HW220021  12.506   7.629  13.445
 6042SOL     OW20022   1.029   6.504   8.245
 6042SOL    HW120023   1.023   6.416   8.208
 6042SOL    HW220024   1.111   6.540   8.211
 6043SOL     OW20025   3.418  12.836   6.977
 6043SOL    HW120026   3.378  12.776   6.913
 6043SOL    HW220027   3.508  12.849   6.944
 6044SOL     OW20028   7.017  14.818  11.063
 6044SOL    HW120029   6.929  14.803  11.027
 6044SOL    HW220030   7.036  14.740  11.114
 6045SOL     OW20031  10.337  10.071   4.576
 6045SOL    HW120032  10.365  10.091   4.665
 6045SOL    HW220033  10.284   9.992   4.584
 6046SOL     OW20034   0.166  12.985   4.566
 6046SOL    HW120035   0.084  12.938   4.554
 6046SOL    HW220036   0.198  12.956   4.651
 6047SOL     OW20037   6.654  11.454   8.781
 6047SOL    HW120038   6.737  11.470   8.736
 6047SOL    HW220039   6.629  11.365   8.754
 6048SOL     OW20040   9.738  10.021   6.054
 6048SOL    HW120041   9.666  10.050   5.999
 6048SOL    HW220042   9.790  10.100   6.068
 6049SOL     OW20043   0.320   8.192   5.719
 6049SOL    HW120044   0.336   8.097   5.715
 6049SOL    HW220045   0.408   8.231   5.719
 6050SOL     OW20046   9.635   9.957   0.900
 6050SOL    HW120047   9.709   9.940   0.841
 6050SOL    HW220048   9.669  10.022   0.962
 6051SOL     OW20049   0.765   1.892  11.727
 6051SOL    HW120050   0.758   1.814  11.671
 6051SOL    HW220051   0.851   1.928  11.708
 6052SOL     OW20052  10.519   5.725   1.673
 6052SOL    HW120053  10.529   5.642   1.719
 6052SOL    HW220054  10.480   5.784   1.737
 6053SOL     OW20055   0.651   0.863   7.824
 6053SOL    HW120056   0.714   0.930   7.853
 6053SOL    HW220057   0.676   0.784   7.873
 6054SOL     OW20058   6.117  10.490  13.114
 6054SOL    HW120059   6.081  10.501  13.026
 6054SOL    HW220060   6.199  10.540  13.113
 6055SOL     OW20061   7.393  14.477   7.556
 6055SOL    HW120062   7.326  14.544   7.550
 6055SOL    HW220063   7.352  14.405   7.603
 6056SOL     OW20064   3.827   1.873  11.997
 6056SOL    HW120065   3.850   1.873  12.090
 6056SOL    HW220066   3.802   1.783  11.978
 6057SOL     OW20067   5.039   0.898  10.260
 6057SOL    HW120068   5.024   0.824  10.201
 6057SOL    HW220069   5.014   0.975  10.208
 6058SOL     OW20070   4.499   4.220  11.975
 6058SOL    HW120071   4.555   4.168  11.917
 6058SOL    HW220072   4.546   4.303  11.985
 6059SOL     OW20073  10.972  11.416   6.928
 6059SOL    HW120074  10.957  11.334   6.880
 6059SOL    HW220075  11.051  11.452   6.888
 6060SOL     OW20076   8.899   0.681   1.720
 6060SOL    HW120077   8.892   0.771   1.754
 6060SOL    HW220078   8.972   0.643   1.768
 6061SOL     OW20079  13.832   6.765  10.321
 6061SOL    HW120080  13.752   6.779  10.270
 6061SOL    HW220081  13.873   6.852  10.326
 6062SOL     OW20082  11.635  11.944   9.513
 6062SOL    HW120083  11.586  11.949   9.431
 6062SOL    HW220084  11.610  12.023   9.561
 6063SOL     OW20085  14.516   7.176   1.466
 6063SOL    HW120086  14.502   7.264   1.503
 6063SOL    HW220087  14.603   7.151   1.499
 6064SOL     OW20088   3.997  13.009   8.330
 6064SOL    HW120089   3.929  13.075   8.345
 6064SOL    HW220090   3.956  12.947   8.269
 6065SOL     OW20091   6.849   2.860   3.637
 6065SOL    HW120092   6.766   2.897   3.667
 6065SOL    HW220093   6.905   2.936   3.621
 6066SOL     OW20094   1.271  12.125   5.768
 6066SOL    HW120095   1.258  12.208   5.814
 6066SOL    HW220096   1.183  12.089   5.756
 6067SOL     OW20097   5.887  13.436   4.780
 6067SOL    HW120098   5.952  13.487   4.828
 6067SOL    HW220099   5.853  13.496   4.714
 6068SOL     OW20100  10.498   8.214   3.587
 6068SOL    HW120101  10.495   8.118   3.583
 6068SOL    HW220102  10.493   8.241   3.495
 6069SOL     OW20103  11.457   2.687   4.083
 6069SOL    HW120104  11.498   2.680   3.997
 6069SOL    HW220105  11.461   2.780   4.104
 6070SOL     OW20106   9.248   2.381  10.630
 6070SOL    HW120107   9.286   2.454  10.680
 6070SOL    HW220108   9.154   2.388  10.645
 6071SOL     OW20109   1.869  12.808  14.174
 6071SOL    HW120110   1.789  12.830  14.222
 6071SOL    HW220111   1.938  12.813  14.240
 6072SOL     OW20112  11.921  12.050   2.139
 6072SOL    HW120113  11.980  12.090   2.075
 6072SOL    HW220114  11.895  12.121   2.197
 6073SOL     OW20115  12.298  14.200  11.915
 6073SOL    HW120116  12.350  14.172  11.840
 6073SOL    HW220117  12.229  14.134  11.923
 6074SOL     OW20118  11.268  14.573   9.021
 6074SOL    HW120119  11.346  14.557   8.968
 6074SOL    HW220120  11.205  14.507   8.992
 6075SOL     OW20121  10.424   3.010  12.974
 6075SOL    HW120122  10.499   2.997  13.032
 6075SOL    HW220123  10.382   2.924  12.969
 6076SOL     OW20124   6.801  10.186   1.042
 6076SOL    HW120125   6.850  10.174   0.960
 6076SOL    HW220126   6.717  10.143   1.025
 6077SOL     OW20127   6.260   4.424   2.510
 6077SOL    HW120128   6.247   4.513   2.475
 6077SOL    HW220129   6.353   4.407   2.499
 6078SOL     OW20130   1.351  12.012   0.813
 6078SOL    HW120131   1.440  12.044   0.795
 6078SOL    HW220132   1.308  12.085   0.857
 6079SOL     OW20133   3.410   8.383   8.955
 6079SOL    HW120134   3.339   8.445   8.972
 6079SOL    HW220135   3.490   8.435   8.963
 6080SOL     OW20136  10.791  12.722   2.628
 6080SOL    HW120137  10.707  12.760   2.601
 6080SOL    HW220138  10.787  12.721   2.723
 6081SOL     OW20139   7.268   0.989  14.490
 6081SOL    HW120140   7.232   0.989  14.401
 6081SOL    HW220141   7.332   0.918  14.490
 6082SOL     OW20142   9.203   6.201   1.286
 6082SOL    HW120143   9.214   6.127   1.345
 6082SOL    HW220144   9.112   6.229   1.299
 6083SOL     OW20145  13.829   2.546   5.793
 6083SOL    HW120146  13.844   2.636   5.766
 6083SOL    HW220147  13.815   2.551   5.887
 6084SOL     OW20148  10.165  13.571  12.494
 6084SOL    HW120149  10.261  13.569  12.485
 6084SOL    HW220150  10.133  13.544  12.408
 6085SOL     OW20151  10.091  10.772   0.784
 6085SOL    HW120152  10.162  10.821   0.827
 6085SOL    HW220153  10.093  10.803   0.694
 6086SOL     OW20154   5.844   0.340   1.688
 6086SOL    HW120155   5.777   0.272   1.703
 6086SOL    HW220156   5.883   0.316   1.604
 6087SOL     OW20157  12.674  13.651   5.147
 6087SOL    HW120158  12.611  13.602   5.095
 6087SOL    HW220159  12.746  13.668   5.087
 6088SOL     OW20160  11.999  12.484  14.513
 6088SOL    HW120161  12.012  12.391  14.534
 6088SOL    HW220162  12.055  12.499  14.436
 6089SOL     OW20163   9.952  13.100   8.450
 6089SOL    HW120164   9.973  13.144   8.368
 6089SOL    HW220165   9.937  13.170   8.512
 6090SOL     OW20166   6.538   5.243   7.110
 6090SOL    HW120167   6.589   5.181   7.058
 6090SOL    HW220168   6.594   5.321   7.115
 6091SOL     OW20169  11.220   5.039   6.253
 6091SOL    HW120170  11.313   5.062   6.247
 6091SOL    HW220171  11.188   5.088   6.328
 6092SOL     OW20172   7.805   4.249   9.553
 6092SOL    HW120173   7.786   4.160   9.522
 6092SOL    HW220174   7.894   4.244   9.588
 6093SOL     OW20175   6.991   6.211   5.405
 6093SOL    HW120176   6.972   6.281   5.467
 6093SOL    HW220177   6.905   6.185   5.372
 6094SOL     OW20178  14.089   7.449  10.585
 6094SOL    HW120179  14.015   7.411  10.632
 6094SOL    HW220180  14.096   7.538  10.620
 6095SOL     OW20181  14.461   5.380  11.788
 6095SOL    HW120182  14.425   5.467  11.807
 6095SOL    HW220183  14.555   5.393  11.788
 6096SOL     OW20184   4.416   2.917  14.858
 6096SOL    HW120185   4.448   3.005  14.839
 6096SOL    HW220186   4.431   2.904   0.079
 6097SOL     OW20187   7.654   1.224   1.501
 6097SOL    HW120188   7.636   1.151   1.442
 6097SOL    HW220189   7.573   1.237   1.550
 6098SOL     OW20190   0.297  14.598   4.888
 6098SOL    HW120191   0.369  14.535   4.881
 6098SOL    HW220192   0.313  14.662   4.819
 6099SOL     OW20193   9.712   2.443   8.033
 6099SOL    HW120194   9.796   2.449   7.987
 6099SOL    HW220195   9.724   2.495   8.113
 6100SOL     OW20196  12.566   0.354   7.067
 6100SOL    HW120197  12.537   0.443   7.048
 6100SOL    HW220198  12.659   0.361   7.087
 6101SOL     OW20199  14.153   7.355   2.739
 6101SOL    HW120200  14.121   7.347   2.649
 6101SOL    HW220201  14.164   7.449   2.752
 6102SOL     OW20202   9.397   5.484   4.932
 6102SOL    HW120203   9.416   5.399   4.972
 6102SOL    HW220204   9.396   5.466   4.838
 6103SOL     OW20205   0.356  14.787   4.719
 6103SOL    HW120206   0.343  14.868   4.670
 6103SOL    HW220207   0.451  14.780   4.730
 6104SOL     OW20208  13.601  11.584  10.171
 6104SOL    HW120209  13.694  11.590  10.148
 6104SOL    HW220210  13.601  11.565  10.265
 6105SOL     OW20211   5.426   1.852   7.212
 6105SOL    HW120212   5.447   1.759   7.212
 6105SOL    HW220213   5.480   1.889   7.143
 6106SOL     OW20214   9.627   7.029  11.513
 6106SOL    HW120215   9.637   7.114  11.557
 6106SOL    HW220216   9.550   7.040  11.457
 6107SOL     OW20217   4.257  11.557  12.767
 6107SOL    HW120218   4.175  11.552  12.717
 6107SOL    HW220219   4.325  11.535  12.704
 6108SOL     OW20220  11.646  12.740   4.831
 6108SOL    HW120221  11.723  12.743   4.888
 6108SOL    HW220222  11.575  12.710   4.888
 6109SOL     OW20223   4.567   8.977   7.438
 6109SOL    HW120224   4.504   8.908   7.460
 6109SOL    HW220225   4.512   9.050   7.408
 6110SOL     OW20226   4.496   3.890   4.345
 6110SOL    HW120227   4.564   3.944   4.386
 6110SOL    HW220228   4.431   3.954   4.314
 6111SOL     OW20229   9.335   3.667  12.327
 6111SOL    HW120230   9.280   3.651  12.404
 6111SOL    HW220231   9.318   3.758  12.304
 6112SOL     OW20232   1.199   1.743   8.599
 6112SOL    HW120233   1.180   1.752   8.692
 6112SOL    HW220234   1.121   1.777   8.555
 6113SOL     OW20235   0.403  11.693  11.992
 6113SOL    HW120236   0.431  11.782  11.971
 6113SOL    HW220237   0.444  11.673  12.076
 6114SOL     OW20238   9.954   9.522   8.042
 6114SOL    HW120239   9.923   9.435   8.016
 6114SOL    HW220240   9.958   9.572   7.960
 6115SOL     OW20241   0.565  12.122   2.786
 6115SOL    HW120242   0.553  12.028   2.773
 6115SOL    HW220243   0.487  12.162   2.748
 6116SOL     OW20244   1.957   6.162   7.650
 6116SOL    HW120245   1.907   6.244   7.657
 6116SOL    HW220246   2.011   6.174   7.572
 6117SOL     OW20247   6.120   9.936   9.144
 6117SOL    HW120248   6.164   9.938   9.229
 6117SOL    HW220249   6.086  10.025   9.134
 6118SOL     OW20250   3.814  14.618   2.359
 6118SOL    HW120251   3.805  14.550   2.426
 6118SOL    HW220252   3.738  14.606   2.302
 6119SOL     OW20253   4.573   9.186   5.184
 6119SOL    HW120254   4.573   9.129   5.107
 6119SOL    HW220255   4.498   9.243   5.171
 6120SOL     OW20256  10.239   6.797   7.741
 6120SOL    HW120257  10.161   6.850   7.725
 6120SOL    HW220258  10.213   6.708   7.715
 6121SOL     OW20259  14.799   9.069   9.113
 6121SOL    HW120260  14.732   9.133   9.092
 6121SOL    HW220261  14.833   9.096   9.199
 6122SOL     OW20262  12.569   1.715  12.412
 6122SOL    HW120263  12.626   1.791  12.416
 6122SOL    HW220264  12.588   1.675  12.328
 6123SOL     OW20265   1.086   8.167  13.015
 6123SOL    HW120266   1.114   8.258  13.020
 6123SOL    HW220267   1.167   8.119  12.998
 6124SOL     OW20268   5.839   4.813   3.497
 6124SOL    HW120269   5.859   4.884   3.559
 6124SOL    HW220270   5.827   4.736   3.553
 6125SOL     OW20271   4.169  13.169   4.356
 6125SOL    HW120272   4.225  13.234   4.314
 6125SOL    HW220273   4.166  13.197   4.448
 6126SOL     OW20274  11.328  11.023   5.923
 6126SOL    HW120275  11.280  11.101   5.894
 6126SOL    HW220276  11.328  10.965   5.847
 6127SOL     OW20277   7.114  11.756   8.733
 6127SOL    HW120278   7.025  11.749   8.768
 6127SOL    HW220279   7.168  11.776   8.809
 6128SOL     OW20280   5.851  12.321   1.306
 6128SOL    HW120281   5.789  12.388   1.335
 6128SOL    HW220282   5.838  12.248   1.367
 6129SOL     OW20283   6.849   1.927   1.953
 6129SOL    HW120284   6.817   1.872   1.882
 6129SOL    HW220285   6.852   2.016   1.917
 6130SOL     OW20286  13.867   5.906   2.675
 6130SOL    HW120287  13.895   5.933   2.588
 6130SOL    HW220288  13.949   5.894   2.724
 6131SOL     OW20289   2.365  12.699  10.264
 6131SOL    HW120290   2.457  12.672  10.258
 6131SOL    HW220291   2.316  12.618  10.266
 6132SOL     OW20292   4.246   8.909   8.990
 6132SOL    HW120293   4.294   8.917   9.073
 6132SOL    HW220294   4.175   8.973   8.997
 6133SOL     OW20295   3.819   7.202  11.442
 6133SOL    HW120296   3.729   7.222  11.468
 6133SOL    HW220297   3.840   7.121  11.490
 6134SOL     OW20298  14.173   0.428   7.626
 6134SOL    HW120299  14.106   0.496   7.633
 6134SOL    HW220300  14.124   0.347   7.616
 6135SOL     OW20301   6.567  13.812  10.746
 6135SOL    HW120302   6.586  13.818  10.652
 6135SOL    HW220303   6.489  13.867  10.757
 6136SOL     OW20304   7.254   1.092   3.231
 6136SOL    HW120305   7.307   1.077   3.153
 6136SOL    HW220306   7.308   1.149   3.286
 6137SOL     OW20307  12.247   9.681   8.733
 6137SOL    HW120308  12.336   9.659   8.760
 6137SOL    HW220309  12.207   9.596   8.713
 6138SOL     OW20310   7.803  14.643   5.025
 6138SOL    HW120311   7.721  14.609   4.991
 6138SOL    HW220312   7.860  14.649   4.948
 6139SOL     OW20313  11.943   2.234   1.297
 6139SOL    HW120314  12.021   2.217   1.349
 6139SOL    HW220315  11.900   2.148   1.289
 6140SOL     OW20316   8.700  13.990  13.064
 6140SOL    HW120317   8.640  13.975  12.991
 6140SOL    HW220318   8.667  13.932  13.133
 6141SOL     OW20319   3.068  11.621  12.991
 6141SOL    HW120320   3.063  11.649  12.899
 6141SOL    HW220321   3.032  11.694  13.040
 6142SOL     OW20322   6.569   3.738   4.568
 6142SOL    HW120323   6.498   3.680   4.540
 6142SOL    HW220324   6.528   3.798   4.629
 6143SOL     OW20325   9.970  10.011  13.068
 6143SOL    HW120326  10.048  10.019  13.123
 6143SOL    HW220327   9.906  10.071  13.108
 6144SOL     OW20328   1.467   8.461  12.577
 6144SOL    HW120329   1.404   8.506  12.520
 6144SOL    HW220330   1.447   8.494  12.665
 6145SOL     OW20331   4.751  11.673   9.858
 6145SOL    HW120332   4.657  11.670   9.838
 6145SOL    HW220333   4.765  11.761   9.891
 6146SOL     OW20334  14.860   5.375   4.645
 6146SOL    HW120335  14.860   5.457   4.694
 6146SOL    HW220336   0.077   5.366   4.613
 6147SOL     OW20337   4.665   5.196  14.753
 6147SOL    HW120338   4.700   5.163  14.671
 6147SOL    HW220339   4.622   5.121  14.793
 6148SOL     OW20340  11.962   9.805  10.494
 6148SOL    HW120341  11.905   9.810  10.571
 6148SOL    HW220342  12.046   9.841  10.524
 6149SOL     OW20343  12.700  11.639  13.512
 6149SOL    HW120344  12.655  11.668  13.432
 6149SOL    HW220345  12.637  11.656  13.582
 6150SOL     OW20346  11.374  14.809  12.869
 6150SOL    HW120347  11.357   0.007  12.931
 6150SOL    HW220348  11.331  14.732  12.906
 6151SOL     OW20349   4.674   7.851   0.423
 6151SOL    HW120350   4.764   7.884   0.412
 6151SOL    HW220351   4.646   7.830   0.334
 6152SOL     OW20352   0.022   0.352   4.527
 6152SOL    HW120353  14.821   0.414   4.525
 6152SOL    HW220354  14.861   0.275   4.480
 6153SOL     OW20355   4.759   1.377  12.658
 6153SOL    HW120356   4.773   1.410  12.569
 6153SOL    HW220357   4.796   1.444  12.715
 6154SOL     OW20358   9.032  13.818  10.924
 6154SOL    HW120359   9.045  13.753  10.993
 6154SOL    HW220360   8.964  13.876  10.959
 6155SOL     OW20361   4.540   4.601  11.658
 6155SOL    HW120362   4.526   4.664  11.587
 6155SOL    HW220363   4.513   4.517  11.620
 6156SOL     OW20364  13.570  12.731   1.364
 6156SOL    HW120365  13.586  12.650   1.413
 6156SOL    HW220366  13.637  12.791   1.394
 6157SOL     OW20367   2.943  13.782   4.733
 6157SOL    HW120368   2.849  13.776   4.716
 6157SOL    HW220369   2.973  13.856   4.680
 6158SOL     OW20370  14.134   3.951   6.338
 6158SOL    HW120371  14.173   3.987   6.418
 6158SOL    HW220372  14.116   4.028   6.283
 6159SOL     OW20373   9.019   9.820   4.125
 6159SOL    HW120374   8.951   9.881   4.151
 6159SOL    HW220375   9.079   9.871   4.071
 6160SOL     OW20376   4.690   9.739   6.414
 6160SOL    HW120377   4.676   9.832   6.396
 6160SOL    HW220378   4.688   9.698   6.328
 6161SOL     OW20379   1.526   1.605   1.828
 6161SOL    HW120380   1.616   1.624   1.852
 6161SOL    HW220381   1.524   1.510   1.815
 6162SOL     OW20382   0.062  10.490   9.625
 6162SOL    HW120383  14.845  10.458   9.611
 6162SOL    HW220384   0.075  10.556   9.557
 6163SOL     OW20385   8.780  12.475   2.045
 6163SOL    HW120386   8.858  12.421   2.059
 6163SOL    HW220387   8.801  12.558   2.088
 6164SOL     OW20388   2.205   9.772   5.733
 6164SOL    HW120389   2.244   9.777   5.821
 6164SOL    HW220390   2.241   9.691   5.696
 6165SOL     OW20391   0.754   1.439  13.072
 6165SOL    HW120392   0.823   1.495  13.037
 6165SOL    HW220393   0.749   1.461  13.165
 6166SOL     OW20394   2.650  10.695   8.719
 6166SOL    HW120395   2.644  10.756   8.792
 6166SOL    HW220396   2.599  10.619   8.748
 6167SOL     OW20397   0.675   6.717  10.761
 6167SOL    HW120398   0.614   6.645  10.747
 6167SOL    HW220399   0.732   6.687  10.833
 6168SOL     OW20400   0.041  14.503  12.209
 6168SOL    HW120401  14.862  14.434  12.167
 6168SOL    HW220402  14.866  14.584  12.189
 6169SOL     OW20403   1.495  11.839   9.112
 6169SOL    HW120404   1.579  11.876   9.141
 6169SOL    HW220405   1.493  11.858   9.018
 6170SOL     OW20406  11.533   1.265  11.227
 6170SOL    HW120407  11.545   1.287  11.135
 6170SOL    HW220408  11.529   1.170  11.229
 6171SOL     OW20409  12.009   9.820  14.544
 6171SOL    HW120410  12.067   9.802  14.618
 6171SOL    HW220411  11.977   9.733  14.518
 6172SOL     OW20412  14.641   9.890  10.955
 6172SOL    HW120413  14.573   9.925  10.897
 6172SOL    HW220414  14.596   9.826  11.009
 6173SOL     OW20415   2.596   2.385   6.206
 6173SOL    HW120416   2.646   2.457   6.168
 6173SOL    HW220417   2.663   2.323   6.237
 6174SOL     OW20418   2.491   1.038  12.045
 6174SOL    HW120419   2.413   1.057  12.097
 6174SOL    HW220420   2.473   1.076  11.959
 6175SOL     OW20421  13.126   9.815   7.818
 6175SOL    HW120422  13.032   9.800   7.814
 6175SOL    HW220423  13.137   9.906   7.790
 6176SOL     OW20424  13.372  13.398   2.644
 6176SOL    HW120425  13.336  13.324   2.694
 6176SOL    HW220426  13.302  13.422   2.583
 6177SOL     OW20427  13.021   7.950  12.591
 6177SOL    HW120428  13.105   7.912  12.564
 6177SOL    HW220429  12.956   7.907  12.536
 6178SOL     OW20430  11.034  12.656   8.776
 6178SOL    HW120431  11.094  12.623   8.842
 6178SOL    HW220432  11.086  12.657   8.695
 6179SOL     OW20433   7.892   0.363   5.710
 6179SOL    HW120434   7.928   0.275   5.703
 6179SOL    HW220435   7.799   0.352   5.690
 6180SOL     OW20436   4.848   4.647  12.936
 6180SOL    HW120437   4.821   4.556  12.930
 6180SOL    HW220438   4.861   4.663  13.029
 6181SOL     OW20439  12.475  14.330   2.461
 6181SOL    HW120440  12.447  14.418   2.488
 6181SOL    HW220441  12.417  14.307   2.388
 6182SOL     OW20442   8.751  11.681  14.844
 6182SOL    HW120443   8.826  11.701   0.028
 6182SOL    HW220444   8.680  11.663   0.032
 6183SOL     OW20445   0.878  10.248   5.587
 6183SOL    HW120446   0.929  10.273   5.511
 6183SOL    HW220447   0.821  10.324   5.604
 6184SOL     OW20448   0.294   7.598  11.755
 6184SOL    HW120449   0.266   7.690  11.752
 6184SOL    HW220450   0.217   7.550  11.784
 6185SOL     OW20451   5.056  13.789  12.955
 6185SOL    HW120452   5.152  13.791  12.947
 6185SOL    HW220453   5.025  13.801  12.866
 6186SOL     OW20454   0.469  11.274  10.808
 6186SOL    HW120455   0.559  11.273  10.840
 6186SOL    HW220456   0.468  11.209  10.737
 6187SOL     OW20457   8.809   0.606   1.092
 6187SOL    HW120458   8.861   0.526   1.100
 6187SOL    HW220459   8.857   0.671   1.143
 6188SOL     OW20460   9.870   1.992  13.519
 6188SOL    HW120461   9.846   1.957  13.433
 6188SOL    HW220462   9.787   1.998  13.567
 6189SOL     OW20463   8.380   4.625  13.150
 6189SOL    HW120464   8.475   4.637  13.147
 6189SOL    HW220465   8.351   4.678  13.224
 6190SOL     OW20466  11.330   4.829   2.388
 6190SOL    HW120467  11.327   4.746   2.341
 6190SOL    HW220468  11.317   4.896   2.321
 6191SOL     OW20469  12.796   1.231   5.239
 6191SOL    HW120470  12.746   1.313   5.246
 6191SOL    HW220471  12.864   1.251   5.174
 6192SOL     OW20472  14.501   5.122   4.626
 6192SOL    HW120473  14.415   5.081   4.621
 6192SOL    HW220474  14.563   5.053   4.604
 6193SOL     OW20475  13.635   4.921  11.408
 6193SOL    HW120476  13.612   5.009  11.380
 6193SOL    HW220477  13.667   4.877  11.329
 6194SOL     OW20478   5.062   0.041   0.005
 6194SOL    HW120479   5.054   0.092   0.086
 6194SOL    HW220480   4.987   0.069  14.825
 6195SOL     OW20481  10.084   5.194   1.944
 6195SOL    HW120482  10.025   5.212   1.871
 6195SOL    HW220483  10.052   5.251   2.015
 6196SOL     OW20484   5.675  13.246  12.113
 6196SOL    HW120485   5.692  13.151  12.110
 6196SOL    HW220486   5.756  13.285  12.079
 6197SOL     OW20487   4.849  12.147   5.033
 6197SOL    HW120488   4.768  12.155   5.084
 6197SOL    HW220489   4.919  12.151   5.099
 6198SOL     OW20490  11.709   7.004  13.803
 6198SOL    HW120491  11.713   7.059  13.881
 6198SOL    HW220492  11.799   7.005  13.769
 6199SOL     OW20493   0.456   1.231   6.726
 6199SOL    HW120494   0.467   1.238   6.821
 6199SOL    HW220495   0.530   1.178   6.698
 6200SOL     OW20496   2.751   8.461   0.865
 6200SOL    HW120497   2.729   8.398   0.934
 6200SOL    HW220498   2.811   8.414   0.808
 6201SOL     OW20499  14.365   6.300   1.317
 6201SOL    HW120500  14.346   6.393   1.304
 6201SOL    HW220501  14.364   6.263   1.228
 6202SOL     OW20502   9.089   3.463   6.665
 6202SOL    HW120503   9.170   3.506   6.637
 6202SOL    HW220504   9.069   3.400   6.596
 6203SOL     OW20505   9.943  14.300   9.547
 6203SOL    HW120506   9.919  14.224   9.494
 6203SOL    HW220507  10.033  14.284   9.573
 6204SOL     OW20508  11.608   8.580   1.710
 6204SOL    HW120509  11.587   8.487   1.716
 6204SOL    HW220510  11.686   8.583   1.654
 6205SOL     OW20511   4.597   9.612  12.868
 6205SOL    HW120512   4.536   9.663  12.815
 6205SOL    HW220513   4.541   9.558  12.924
 6206SOL     OW20514  12.665   7.398  13.525
 6206SOL    HW120515  12.581   7.391  13.478
 6206SOL    HW220516  12.644   7.371  13.614
 6207SOL     OW20517   4.401   8.566  14.565
 6207SOL    HW120518   4.311   8.539  14.544
 6207SOL    HW220519   4.450   8.484  14.571
 6208SOL     OW20520  11.244  14.505   5.323
 6208SOL    HW120521  11.163  14.524   5.370
 6208SOL    HW220522  11.277  14.591   5.296
 6209SOL     OW20523   5.945   5.614  12.348
 6209SOL    HW120524   6.005   5.542  12.328
 6209SOL    HW220525   5.867   5.571  12.382
 6210SOL     OW20526   1.087   2.986  11.233
 6210SOL    HW120527   1.150   3.017  11.297
 6210SOL    HW220528   1.085   3.054  11.165
 6211SOL     OW20529   7.901   1.253   8.906
 6211SOL    HW120530   7.958   1.267   8.830
 6211SOL    HW220531   7.955   1.279   8.980
 6212SOL     OW20532  10.455   8.623  10.819
 6212SOL    HW120533  10.422   8.709  10.845
 6212SOL    HW220534  10.383   8.562  10.836
 6213SOL     OW20535  14.663   3.237   5.356
 6213SOL    HW120536  14.637   3.321   5.319
 6213SOL    HW220537  14.662   3.251   5.451
 6214SOL     OW20538   2.468   0.021  11.534
 6214SOL    HW120539   2.482   0.082  11.461
 6214SOL    HW220540   2.475  14.806  11.493
 6215SOL     OW20541  13.710   0.978   6.480
 6215SOL    HW120542  13.788   0.924   6.494
 6215SOL    HW220543  13.677   0.997   6.568
 6216SOL     OW20544   7.908   5.844  14.648
 6216SOL    HW120545   7.912   5.937  14.668
 6216SOL    HW220546   7.999   5.815  14.651
 6217SOL     OW20547   1.622  13.176   0.576
 6217SOL    HW120548   1.696  13.129   0.615
 6217SOL    HW220549   1.600  13.125   0.499
 6218SOL     OW20550   3.600   5.189   2.531
 6218SOL    HW120551   3.551   5.162   2.452
 6218SOL    HW220552   3.641   5.272   2.506
 6219SOL     OW20553   9.125   2.939   6.219
 6219SOL    HW120554   9.095   2.929   6.128
 6219SOL    HW220555   9.080   3.017   6.250
 6220SOL     OW20556  12.102  11.167   2.191
 6220SOL    HW120557  12.126  11.254   2.157
 6220SOL    HW220558  12.018  11.147   2.148
 6221SOL     OW20559   1.549   0.955   1.395
 6221SOL    HW120560   1.455   0.968   1.384
 6221SOL    HW220561   1.558   0.910   1.479
 6222SOL     OW20562  14.124  10.848  13.035
 6222SOL    HW120563  14.045  10.859  12.983
 6222SOL    HW220564  14.096  10.866  13.125
 6223SOL     OW20565  10.206  11.263   2.055
 6223SOL    HW120566  10.221  11.176   2.017
 6223SOL    HW220567  10.260  11.264   2.134
 6224SOL     OW20568  14.419   7.448   7.347
 6224SOL    HW120569  14.375   7.438   7.431
 6224SOL    HW220570  14.435   7.359   7.317
 6225SOL     OW20571   5.059   7.932   0.143
 6225SOL    HW120572   5.008   7.990   0.086
 6225SOL    HW220573   5.123   7.990   0.184
 6226SOL     OW20574   2.553   4.675  12.059
 6226SOL    HW120575   2.576   4.659  11.968
 6226SOL    HW220576   2.458   4.667  12.062
 6227SOL     OW20577   8.397   3.094   8.563
 6227SOL    HW120578   8.404   3.097   8.467
 6227SOL    HW220579   8.487   3.101   8.594
 6228SOL     OW20580   9.763   1.844   0.859
 6228SOL    HW120581   9.800   1.903   0.794
 6228SOL    HW220582   9.806   1.760   0.842
 6229SOL     OW20583  11.140   6.195  13.950
 6229SOL    HW120584  11.160   6.148  13.869
 6229SOL    HW220585  11.047   6.179  13.965
 6230SOL     OW20586  14.588   8.282   9.990
 6230SOL    HW120587  14.641   8.228   9.931
 6230SOL    HW220588  14.501   8.241   9.988
 6231SOL     OW20589   7.407  11.593   2.061
 6231SOL    HW120590   7.444  11.559   1.979
 6231SOL    HW220591   7.460  11.671   2.080
 6232SOL     OW20592  13.437  12.456  14.683
 6232SOL    HW120593  13.491  12.458  14.762
 6232SOL    HW220594  13.384  12.535  14.689
 6233SOL     OW20595  14.315   6.791  12.781
 6233SOL    HW120596  14.397   6.764  12.823
 6233SOL    HW220597  14.250   6.728  12.811
 6234SOL     OW20598   9.581   3.747   1.353
 6234SOL    HW120599   9.507   3.744   1.413
 6234SOL    HW220600   9.551   3.801   1.280
 6235SOL     OW20601  12.339  10.113   3.279
 6235SOL    HW120602  12.328  10.037   3.335
 6235SOL    HW220603  12.413  10.091   3.222
 6236SOL     OW20604   9.382   4.979   9.902
 6236SOL    HW120605   9.447   5.000   9.836
 6236SOL    HW220606   9.314   4.931   9.854
 6237SOL     OW20607  11.027  12.636   1.299
 6237SOL    HW120608  10.964  12.594   1.240
 6237SOL    HW220609  10.997  12.727   1.304
 6238SOL     OW20610   9.983   3.894  13.400
 6238SOL    HW120611   9.979   3.984  13.369
 6238SOL    HW220612  10.049   3.894  13.469
 6239SOL     OW20613   8.881   7.519  13.050
 6239SOL    HW120614   8.860   7.542  13.140
 6239SOL    HW220615   8.833   7.582  12.997
 6240SOL     OW20616   5.935  12.171   4.826
 6240SOL    HW120617   5.969  12.093   4.782
 6240SOL    HW220618   5.848  12.184   4.788
 6241SOL     OW20619   5.337   8.338   1.103
 6241SOL    HW120620   5.373   8.423   1.129
 6241SOL    HW220621   5.407   8.275   1.121
 6242SOL     OW20622   6.874   7.638  11.309
 6242SOL    HW120623   6.842   7.641  11.399
 6242SOL    HW220624   6.830   7.563  11.270
 6243SOL     OW20625  11.902   5.809  10.215
 6243SOL    HW120626  11.944   5.873  10.273
 6243SOL    HW220627  11.933   5.833  10.127
 6244SOL     OW20628   8.734  11.343   2.302
 6244SOL    HW120629   8.742  11.345   2.207
 6244SOL    HW220630   8.725  11.435   2.327
 6245SOL     OW20631   2.125  14.626  12.102
 6245SOL    HW120632   2.099  14.687  12.170
 6245SOL    HW220633   2.210  14.593  12.130
 6246SOL     OW20634   2.264  11.596   0.992
 6246SOL    HW120635   2.350  11.569   1.024
 6246SOL    HW220636   2.243  11.531   0.924
 6247SOL     OW20637   9.857   7.421   9.484
 6247SOL    HW120638   9.799   7.496   9.472
 6247SOL    HW220639   9.945   7.459   9.494
 6248SOL     OW20640  12.817   5.244   2.530
 6248SOL    HW120641  12.773   5.233   2.615
 6248SOL    HW220642  12.887   5.179   2.531
 6249SOL     OW20643   4.391   0.350   3.253
 6249SOL    HW120644   4.365   0.368   3.162
 6249SOL    HW220645   4.403   0.437   3.292
 6250SOL     OW20646   9.551   6.530   0.343
 6250SOL    HW120647   9.459   6.523   0.319
 6250SOL    HW220648   9.591   6.451   0.305
 6251SOL     OW20649   4.048   2.928   7.600
 6251SOL    HW120650   4.025   3.003   7.656
 6251SOL    HW220651   4.103   2.873   7.655
 6252SOL     OW20652   6.338   2.543   1.012
 6252SOL    HW120653   6.322   2.603   1.085
 6252SOL    HW220654   6.289   2.464   1.034
 6253SOL     OW20655  12.410   9.597  12.318
 6253SOL    HW120656  12.425   9.503  12.317
 6253SOL    HW220657  12.444   9.629  12.234
 6254SOL     OW20658   9.885   8.050   4.561
 6254SOL    HW120659   9.959   8.077   4.506
 6254SOL    HW220660   9.817   8.024   4.500
 6255SOL     OW20661  14.820  12.899   2.951
 6255SOL    HW120662  14.850  12.990   2.961
 6255SOL    HW220663   0.000  12.849   3.013
 6256SOL     OW20664   2.144   8.231  14.736
 6256SOL    HW120665   2.235   8.237  14.708
 6256SOL    HW220666   2.136   8.293  14.808
 6257SOL     OW20667   3.971   4.421   1.342
 6257SOL    HW120668   4.015   4.388   1.264
 6257SOL    HW220669   3.880   4.432   1.317
 6258SOL     OW20670   8.582   6.305   0.993
 6258SOL    HW120671   8.552   6.383   0.946
 6258SOL    HW220672   8.620   6.249   0.926
 6259SOL     OW20673   9.326   7.799   3.487
 6259SOL    HW120674   9.317   7.891   3.461
 6259SOL    HW220675   9.278   7.792   3.569
 6260SOL     OW20676   4.064  10.474  13.579
 6260SOL    HW120677   4.063  10.447  13.671
 6260SOL    HW220678   4.000  10.545  13.575
 6261SOL     OW20679  10.153  14.484  13.233
 6261SOL    HW120680  10.176  14.577  13.234
 6261SOL    HW220681  10.196  14.448  13.311
 6262SOL     OW20682  12.231  11.743  13.526
 6262SOL    HW120683  12.174  11.686  13.474
 6262SOL    HW220684  12.227  11.707  13.615
 6263SOL     OW20685   2.445   8.079  13.786
 6263SOL    HW120686   2.390   8.052  13.712
 6263SOL    HW220687   2.503   8.146  13.750
 6264SOL     OW20688   7.545  11.777  10.934
 6264SOL    HW120689   7.531  11.862  10.976
 6264SOL    HW220690   7.555  11.796  10.841
 6265SOL     OW20691  13.818   4.591   9.147
 6265SOL    HW120692  13.753   4.556   9.208
 6265SOL    HW220693  13.769   4.650   9.090
 6266SOL     OW20694   9.053   1.101  12.589
 6266SOL    HW120695   9.144   1.107  12.619
 6266SOL    HW220696   9.003   1.081  12.668
 6267SOL     OW20697   0.572   4.975  12.274
 6267SOL    HW120698   0.511   4.988  12.201
 6267SOL    HW220699   0.532   4.905  12.326
 6268SOL     OW20700   9.375   0.205   2.197
 6268SOL    HW120701   9.388   0.257   2.277
 6268SOL    HW220702   9.462   0.172   2.175
 6269SOL     OW20703   3.473   0.842   4.785
 6269SOL    HW120704   3.472   0.936   4.804
 6269SOL    HW220705   3.382   0.819   4.772
 6270SOL     OW20706   8.580   8.731   3.650
 6270SOL    HW120707   8.609   8.657   3.595
 6270SOL    HW220708   8.589   8.807   3.593
 6271SOL     OW20709   3.037   9.919   6.200
 6271SOL    HW120710   3.043   9.824   6.190
 6271SOL    HW220711   2.943   9.937   6.197
 6272SOL     OW20712  10.037   4.560   4.235
 6272SOL    HW120713  10.030   4.551   4.140
 6272SOL    HW220714  10.113   4.506   4.259
 6273SOL     OW20715   1.448  13.092  14.457
 6273SOL    HW120716   1.480  13.120  14.372
 6273SOL    HW220717   1.411  13.172  14.496
 6274SOL     OW20718   0.041   7.301   3.758
 6274SOL    HW120719  14.835   7.316   3.812
 6274SOL    HW220720   0.031   7.212   3.724
 6275SOL     OW20721   5.476   5.826   1.084
 6275SOL    HW120722   5.540   5.757   1.103
 6275SOL    HW220723   5.395   5.779   1.063
 6276SOL     OW20724   7.648   2.580   9.993
 6276SOL    HW120725   7.667   2.496  10.034
 6276SOL    HW220726   7.683   2.645  10.054
 6277SOL     OW20727   6.437   4.350  12.606
 6277SOL    HW120728   6.490   4.390  12.675
 6277SOL    HW220729   6.492   4.357  12.528
 6278SOL     OW20730  13.833  10.320   7.887
 6278SOL    HW120731  13.753  10.283   7.849
 6278SOL    HW220732  13.836  10.283   7.976
 6279SOL     OW20733   9.896  13.306  12.674
 6279SOL    HW120734   9.971  13.268  12.720
 6279SOL    HW220735   9.925  13.392  12.647
 6280SOL     OW20736   3.931   1.995   2.478
 6280SOL    HW120737   3.853   1.944   2.500
 6280SOL    HW220738   3.900   2.086   2.471
 6281SOL     OW20739  10.302  11.622  11.487
 6281SOL    HW120740  10.367  11.676  11.443
 6281SOL    HW220741  10.223  11.632  11.434
 6282SOL     OW20742   0.499   1.857  12.405
 6282SOL    HW120743   0.578   1.804  12.408
 6282SOL    HW220744   0.451   1.826  12.328
 6283SOL     OW20745   9.417   8.321  11.029
 6283SOL    HW120746   9.387   8.230  11.019
 6283SOL    HW220747   9.423   8.335  11.123
 6284SOL     OW20748   9.452   2.183   0.519
 6284SOL    HW120749   9.358   2.197   0.531
 6284SOL    HW220750   9.493   2.235   0.589
 6285SOL     OW20751  14.067   3.298  14.750
 6285SOL    HW120752  14.157   3.283  14.776
 6285SOL    HW220753  14.053   3.392  14.764
 6286SOL     OW20754   8.810   2.029   3.145
 6286SOL    HW120755   8.758   2.007   3.068
 6286SOL    HW220756   8.900   2.021   3.116
 6287SOL     OW20757  10.206   0.060  12.663
 6287SOL    HW120758  10.243   0.078  12.577
 6287SOL    HW220759  10.234   0.134  12.717
 6288SOL     OW20760  11.718   8.723  12.025
 6288SOL    HW120761  11.733   8.719  12.120
 6288SOL    HW220762  11.806   8.714  11.987
 6289SOL     OW20763   9.448   6.379   0.895
 6289SOL    HW120764   9.495   6.452   0.934
 6289SOL    HW220765   9.448   6.397   0.801
 6290SOL     OW20766  11.368   1.390  10.175
 6290SOL    HW120767  11.382   1.442  10.096
 6290SOL    HW220768  11.278   1.409  10.200
 6291SOL     OW20769   0.260   0.555   0.665
 6291SOL    HW120770   0.281   0.560   0.759
 6291SOL    HW220771   0.168   0.582   0.660
 6292SOL     OW20772  14.487   9.503   8.756
 6292SOL    HW120773  14.491   9.598   8.743
 6292SOL    HW220774  14.396   9.486   8.781
 6293SOL     OW20775   6.911   1.033   4.101
 6293SOL    HW120776   6.954   1.109   4.060
 6293SOL    HW220777   6.871   0.987   4.028
 6294SOL     OW20778  14.224   3.922  12.095
 6294SOL    HW120779  14.175   3.860  12.041
 6294SOL    HW220780  14.255   3.870  12.169
 6295SOL     OW20781  14.217   6.749  14.105
 6295SOL    HW120782  14.168   6.825  14.135
 6295SOL    HW220783  14.309   6.774  14.113
 6296SOL     OW20784  11.288   0.246   7.716
 6296SOL    HW120785  11.277   0.298   7.796
 6296SOL    HW220786  11.359   0.290   7.669
 6297SOL     OW20787   3.397   4.279   2.338
 6297SOL    HW120788   3.358   4.229   2.410
 6297SOL    HW220789   3.445   4.350   2.381
 6298SOL     OW20790   1.852   3.672  12.674
 6298SOL    HW120791   1.852   3.580  12.647
 6298SOL    HW220792   1.821   3.670  12.764
 6299SOL     OW20793   2.011  14.180   0.014
 6299SOL    HW120794   2.000  14.132  14.805
 6299SOL    HW220795   2.099  14.155   0.045
 6300SOL     OW20796   3.196   6.657   9.096
 6300SOL    HW120797   3.221   6.630   9.007
 6300SOL    HW220798   3.251   6.734   9.113
 6301SOL     OW20799   1.296   3.713   8.866
 6301SOL    HW120800   1.350   3.769   8.922
 6301SOL    HW220801   1.336   3.721   8.780
 6302SOL     OW20802  11.293   9.491   1.244
 6302SOL    HW120803  11.324   9.539   1.321
 6302SOL    HW220804  11.199   9.485   1.257
 6303SOL     OW20805   1.870   2.393  13.335
 6303SOL    HW120806   1.791   2.384  13.281
 6303SOL    HW220807   1.848   2.350  13.418
 6304SOL     OW20808  14.606   1.039   0.891
 6304SOL    HW120809  14.629   0.983   0.817
 6304SOL    HW220810  14.685   1.041   0.945
 6305SOL     OW20811  13.505   4.250  13.363
 6305SOL    HW120812  13.577   4.286  13.311
 6305SOL    HW220813  13.473   4.176  13.311
 6306SOL     OW20814  10.276   3.952   6.153
 6306SOL    HW120815  10.319   3.870   6.131
 6306SOL    HW220816  10.184   3.938   6.130
 6307SOL     OW20817   2.045   3.619  13.574
 6307SOL    HW120818   2.055   3.678  13.500
 6307SOL    HW220819   1.968   3.652  13.621
 6308SOL     OW20820   1.947   4.025   6.564
 6308SOL    HW120821   1.956   4.022   6.659
 6308SOL    HW220822   1.913   4.113   6.546
 6309SOL     OW20823  10.238   2.122   8.426
 6309SOL    HW120824  10.302   2.054   8.449
 6309SOL    HW220825  10.289   2.203   8.423
 6310SOL     OW20826  12.454  12.734  11.667
 6310SOL    HW120827  12.491  12.808  11.716
 6310SOL    HW220828  12.456  12.762  11.576
 6311SOL     OW20829   5.236  13.668  14.633
 6311SOL    HW120830   5.269  13.653  14.722
 6311SOL    HW220831   5.219  13.580  14.599
 6312SOL     OW20832  12.486  14.583  12.303
 6312SOL    HW120833  12.398  14.550  12.316
 6312SOL    HW220834  12.475  14.666  12.258
 6313SOL     OW20835  12.821   3.218  13.261
 6313SOL    HW120836  12.905   3.260  13.278
 6313SOL    HW220837  12.842   3.125  13.250
 6314SOL     OW20838   3.369   7.822   5.951
 6314SOL    HW120839   3.289   7.859   5.989
 6314SOL    HW220840   3.341   7.736   5.917
 6315SOL     OW20841  13.301   4.204   0.806
 6315SOL    HW120842  13.302   4.161   0.892
 6315SOL    HW220843  13.318   4.133   0.744
 6316SOL     OW20844   8.535  12.889   3.931
 6316SOL    HW120845   8.610  12.916   3.877
 6316SOL    HW220846   8.470  12.957   3.917
 6317SOL     OW20847   3.853   8.114  13.144
 6317SOL    HW120848   3.911   8.111  13.068
 6317SOL    HW220849   3.912   8.117  13.219
 6318SOL     OW20850   2.798  11.666   4.932
 6318SOL    HW120851   2.783  11.748   4.979
 6318SOL    HW220852   2.790  11.598   4.999
 6319SOL     OW20853   6.950  10.416  13.615
 6319SOL    HW120854   6.963  10.402  13.521
 6319SOL    HW220855   6.858  10.397  13.630
 6320SOL     OW20856   8.513   6.858   9.359
 6320SOL    HW120857   8.586   6.801   9.380
 6320SOL    HW220858   8.437   6.800   9.358
 6321SOL     OW20859  13.767   5.306   8.249
 6321SOL    HW120860  13.800   5.258   8.173
 6321SOL    HW220861  13.835   5.371   8.268
 6322SOL     OW20862   1.861   9.811  10.801
 6322SOL    HW120863   1.942   9.784  10.757
 6322SOL    HW220864   1.804   9.841  10.731
 6323SOL     OW20865   6.432   8.929   4.104
 6323SOL    HW120866   6.466   8.882   4.028
 6323SOL    HW220867   6.484   9.010   4.107
 6324SOL     OW20868  13.018   1.367  11.776
 6324SOL    HW120869  13.019   1.363  11.871
 6324SOL    HW220870  12.997   1.458  11.756
 6325SOL     OW20871   6.099   0.970   3.616
 6325SOL    HW120872   6.060   1.056   3.605
 6325SOL    HW220873   6.134   0.947   3.530
 6326SOL     OW20874   5.576   0.400  13.373
 6326SOL    HW120875   5.527   0.323  13.403
 6326SOL    HW220876   5.544   0.415  13.284
 6327SOL     OW20877  10.269   5.026  13.785
 6327SOL    HW120878  10.294   5.029  13.878
 6327SOL    HW220879  10.297   5.111  13.750
 6328SOL     OW20880  12.869   6.241  13.740
 6328SOL    HW120881  12.870   6.325  13.694
 6328SOL    HW220882  12.958   6.207  13.730
 6329SOL     OW20883   9.135   4.513   9.437
 6329SOL    HW120884   9.052   4.498   9.393
 6329SOL    HW220885   9.197   4.454   9.394
 6330SOL     OW20886   3.427   5.658   2.117
 6330SOL    HW120887   3.376   5.656   2.198
 6330SOL    HW220888   3.463   5.746   2.112
 6331SOL     OW20889   5.054   0.891   7.399
 6331SOL    HW120890   4.963   0.886   7.428
 6331SOL    HW220891   5.100   0.937   7.470
 6332SOL     OW20892  14.342   5.301   4.803
 6332SOL    HW120893  14.386   5.244   4.740
 6332SOL    HW220894  14.393   5.293   4.883
 6333SOL     OW20895  10.024   4.909   5.531
 6333SOL    HW120896  10.012   4.942   5.442
 6333SOL    HW220897  10.074   4.828   5.519
 6334SOL     OW20898  12.045   4.249  14.776
 6334SOL    HW120899  11.969   4.305  14.760
 6334SOL    HW220900  12.049   4.240  14.871
 6335SOL     OW20901   1.883  10.894  10.737
 6335SOL    HW120902   1.916  10.839  10.809
 6335SOL    HW220903   1.791  10.869  10.729
 6336SOL     OW20904   2.219   1.482   4.211
 6336SOL    HW120905   2.147   1.431   4.174
 6336SOL    HW220906   2.236   1.439   4.295
 6337SOL     OW20907  11.379   7.789   0.631
 6337SOL    HW120908  11.455   7.761   0.682
 6337SOL    HW220909  11.385   7.740   0.549
 6338SOL     OW20910  13.699   0.261  11.037
 6338SOL    HW120911  13.639   0.186  11.034
 6338SOL    HW220912  13.652   0.330  10.989
 6339SOL     OW20913   4.308   5.263   4.655
 6339SOL    HW120914   4.254   5.337   4.683
 6339SOL    HW220915   4.398   5.297   4.658
 6340SOL     OW20916   6.804  14.120  11.896
 6340SOL    HW120917   6.882  14.065  11.888
 6340SOL    HW220918   6.749  14.095  11.822
 6341SOL     OW20919  11.386   4.527   1.683
 6341SOL    HW120920  11.426   4.502   1.766
 6341SOL    HW220921  11.412   4.458   1.622
 6342SOL     OW20922   6.843  13.989   5.126
 6342SOL    HW120923   6.835  14.015   5.034
 6342SOL    HW220924   6.839  13.893   5.124
 6343SOL     OW20925  12.222   6.339  12.236
 6343SOL    HW120926  12.150   6.398  12.260
 6343SOL    HW220927  12.196   6.305  12.150
 6344SOL     OW20928  13.370   7.903   8.393
 6344SOL    HW120929  13.462   7.883   8.375
 6344SOL    HW220930  13.323   7.823   8.370
 6345SOL     OW20931  10.009  11.187   4.271
 6345SOL    HW120932  10.046  11.272   4.293
 6345SOL    HW220933  10.056  11.162   4.191
 6346SOL     OW20934   4.574   2.210   7.458
 6346SOL    HW120935   4.646   2.153   7.485
 6346SOL    HW220936   4.503   2.188   7.519
 6347SOL     OW20937  10.221   4.060   7.904
 6347SOL    HW120938  10.259   4.146   7.886
 6347SOL    HW220939  10.186   4.067   7.993
 6348SOL     OW20940   3.691   9.012  14.849
 6348SOL    HW120941   3.771   8.978  14.810
 6348SOL    HW220942   3.716   9.035   0.067
 6349SOL     OW20943   8.219   1.882  14.449
 6349SOL    HW120944   8.212   1.877  14.544
 6349SOL    HW220945   8.313   1.881  14.432
 6350SOL     OW20946   0.082  13.431   5.876
 6350SOL    HW120947   0.125  13.501   5.926
 6350SOL    HW220948   0.083  13.462   5.786
 6351SOL     OW20949   8.152   3.943   6.895
 6351SOL    HW120950   8.166   3.910   6.984
 6351SOL    HW220951   8.239   3.973   6.867
 6352SOL     OW20952  10.523   5.479  12.059
 6352SOL    HW120953  10.570   5.402  12.091
 6352SOL    HW220954  10.484   5.451  11.976
 6353SOL     OW20955  13.027   4.795   4.907
 6353SOL    HW120956  13.083   4.838   4.843
 6353SOL    HW220957  12.992   4.867   4.961
 6354SOL     OW20958   0.081  10.112  11.338
 6354SOL    HW120959  14.862  10.094  11.356
 6354SOL    HW220960   0.110  10.039  11.283
 6355SOL     OW20961  10.300   5.088  14.867
 6355SOL    HW120962  10.393   5.105   0.011
 6355SOL    HW220963  10.263   5.069   0.081
 6356SOL     OW20964   1.648   9.764  14.491
 6356SOL    HW120965   1.699   9.690  14.524
 6356SOL    HW220966   1.595   9.792  14.565
 6357SOL     OW20967  10.576   8.983   4.876
 6357SOL    HW120968  10.633   9.060   4.884
 6357SOL    HW220969  10.579   8.961   4.783
 6358SOL     OW20970   7.246  11.999   4.321
 6358SOL    HW120971   7.206  11.915   4.298
 6358SOL    HW220972   7.305  11.978   4.394
 6359SOL     OW20973   4.698  11.192   0.261
 6359SOL    HW120974   4.615  11.230   0.232
 6359SOL    HW220975   4.751  11.268   0.286
 6360SOL     OW20976   7.657   1.198  13.700
 6360SOL    HW120977   7.710   1.262  13.748
 6360SOL    HW220978   7.707   1.182  13.620
 6361SOL     OW20979  13.778   8.345  12.121
 6361SOL    HW120980  13.728   8.401  12.180
 6361SOL    HW220981  13.864   8.337  12.161
 6362SOL     OW20982   8.013   8.923  10.187
 6362SOL    HW120983   7.962   8.857  10.234
 6362SOL    HW220984   8.034   8.988  10.254
 6363SOL     OW20985   0.425   6.812   5.407
 6363SOL    HW120986   0.500   6.846   5.358
 6363SOL    HW220987   0.426   6.718   5.390
 6364SOL     OW20988   3.790  10.482  13.376
 6364SOL    HW120989   3.813  10.560  13.427
 6364SOL    HW220990   3.871  10.459  13.330
 6365SOL     OW20991  14.802  11.264   5.272
 6365SOL    HW120992  14.824  11.272   5.179
 6365SOL    HW220993   0.006  11.220   5.310
 6366SOL     OW20994   7.325   0.328   0.590
 6366SOL    HW120995   7.314   0.403   0.532
 6366SOL    HW220996   7.419   0.310   0.589
 6367SOL     OW20997  14.665   6.483  11.572
 6367SOL    HW120998  14.618   6.566  11.564
 6367SOL    HW220999  14.658   6.442  11.486
 6368SOL     OW21000   0.193  14.701   2.882
 6368SOL    HW121001   0.210  14.756   2.958
 6368SOL    HW221002   0.132  14.751   2.829
 6369SOL     OW21003   7.489  12.440  11.710
 6369SOL    HW121004   7.551  12.507  11.740
 6369SOL    HW221005   7.537  12.357  11.720
 6370SOL     OW21006  14.023   1.054   9.756
 6370SOL    HW121007  14.095   1.115   9.770
 6370SOL    HW221008  14.013   1.009   9.839
 6371SOL     OW21009   3.029  10.886  13.115
 6371SOL    HW121010   3.119  10.893  13.082
 6371SOL    HW221011   3.015  10.967  13.164
 6372SOL     OW21012   7.788   9.306   3.831
 6372SOL    HW121013   7.814   9.341   3.746
 6372SOL    HW221014   7.870   9.280   3.873
 6373SOL     OW21015  11.618   1.847   6.122
 6373SOL    HW121016  11.644   1.807   6.205
 6373SOL    HW221017  11.608   1.773   6.062
 6374SOL     OW21018   6.969  10.927   7.975
 6374SOL    HW121019   6.978  10.983   8.052
 6374SOL    HW221020   7.031  10.855   7.990
 6375SOL     OW21021  11.540   3.178   7.883
 6375SOL    HW121022  11.523   3.182   7.977
 6375SOL    HW221023  11.545   3.270   7.856
 6376SOL     OW21024   2.782   5.796  11.959
 6376SOL    HW121025   2.848   5.761  11.898
 6376SOL    HW221026   2.799   5.890  11.961
 6377SOL     OW21027   5.678   2.609   4.874
 6377SOL    HW121028   5.617   2.671   4.912
 6377SOL    HW221029   5.753   2.662   4.847
 6378SOL     OW21030   2.726  12.395   1.234
 6378SOL    HW121031   2.821  12.380   1.235
 6378SOL    HW221032   2.718  12.491   1.237
 6379SOL     OW21033  12.529   9.403   5.968
 6379SOL    HW121034  12.441   9.400   6.004
 6379SOL    HW221035  12.551   9.312   5.949
 6380SOL     OW21036   5.283  11.630  14.781
 6380SOL    HW121037   5.322  11.549  14.816
 6380SOL    HW221038   5.296  11.694  14.850
 6381SOL     OW21039  13.432   1.082  13.606
 6381SOL    HW121040  13.427   1.176  13.621
 6381SOL    HW221041  13.362   1.064  13.542
 6382SOL     OW21042  13.396   2.989   0.788
 6382SOL    HW121043  13.385   3.080   0.762
 6382SOL    HW221044  13.420   2.992   0.881
 6383SOL     OW21045  12.273   5.068   2.996
 6383SOL    HW121046  12.363   5.048   3.024
 6383SOL    HW221047  12.232   5.106   3.074
 6384SOL     OW21048  10.655   8.096   3.863
 6384SOL    HW121049  10.594   8.168   3.849
 6384SOL    HW221050  10.740   8.132   3.841
 6385SOL     OW21051   3.851   4.434   6.463
 6385SOL    HW121052   3.921   4.384   6.421
 6385SOL    HW221053   3.852   4.406   6.554
 6386SOL     OW21054   1.653   4.466   3.972
 6386SOL    HW121055   1.659   4.470   4.068
 6386SOL    HW221056   1.583   4.403   3.955
 6387SOL     OW21057  11.039  12.867   7.163
 6387SOL    HW121058  11.102  12.929   7.126
 6387SOL    HW221059  11.093  12.805   7.212
 6388SOL     OW21060   3.264   4.221  13.877
 6388SOL    HW121061   3.237   4.313  13.882
 6388SOL    HW221062   3.193   4.178  13.829
 6389SOL     OW21063   8.589   4.220  13.612
 6389SOL    HW121064   8.675   4.257  13.590
 6389SOL    HW221065   8.602   4.125  13.608
 6390SOL     OW21066   9.881   5.977   0.375
 6390SOL    HW121067   9.940   6.052   0.379
 6390SOL    HW221068   9.827   5.993   0.297
 6391SOL     OW21069  10.313  12.558   1.847
 6391SOL    HW121070  10.308  12.580   1.940
 6391SOL    HW221071  10.371  12.624   1.809
 6392SOL     OW21072  12.182  10.936   6.521
 6392SOL    HW121073  12.257  10.925   6.463
 6392SOL    HW221074  12.106  10.924   6.464
 6393SOL     OW21075  14.756  11.370   8.537
 6393SOL    HW121076  14.767  11.464   8.520
 6393SOL    HW221077  14.741  11.332   8.450
 6394SOL     OW21078   8.052  10.449  14.825
 6394SOL    HW121079   7.995  10.524  14.809
 6394SOL    HW221080   8.134  10.471  14.782
 6395SOL     OW21081   6.513   8.957   3.549
 6395SOL    HW121082   6.593   9.010   3.550
 6395SOL    HW221083   6.517   8.906   3.630
 6396SOL     OW21084  13.477   3.204  11.002
 6396SOL    HW121085  13.382   3.196  10.996
 6396SOL    HW221086  13.511   3.130  10.951
 6397SOL     OW21087   6.046  13.420  10.311
 6397SOL    HW121088   6.053  13.350  10.375
 6397SOL    HW221089   6.128  13.416  10.261
 6398SOL     OW21090   3.179  11.225   7.775
 6398SOL    HW121091   3.112  11.182   7.722
 6398SOL    HW221092   3.146  11.221   7.865
 6399SOL     OW21093  14.226   9.146   2.125
 6399SOL    HW121094  14.213   9.077   2.191
 6399SOL    HW221095  14.311   9.126   2.087
 6400SOL     OW21096   3.861   7.937   5.865
 6400SOL    HW121097   3.773   7.939   5.826
 6400SOL    HW221098   3.915   7.894   5.798
 6401SOL     OW21099   8.186  13.202   1.286
 6401SOL    HW121100   8.213  13.117   1.320
 6401SOL    HW221101   8.093  13.208   1.308
 6402SOL     OW21102   6.959  12.477   4.864
 6402SOL    HW121103   6.906  12.545   4.905
 6402SOL    HW221104   6.918  12.462   4.779
 6403SOL     OW21105   4.344   4.671   6.199
 6403SOL    HW121106   4.338   4.710   6.286
 6403SOL    HW221107   4.390   4.737   6.146
 6404SOL     OW21108  12.029   7.832   2.251
 6404SOL    HW121109  12.076   7.750   2.234
 6404SOL    HW221110  11.985   7.817   2.335
 6405SOL     OW21111  12.112   6.847   5.724
 6405SOL    HW121112  12.150   6.922   5.678
 6405SOL    HW221113  12.017   6.855   5.710
 6406SOL     OW21114   9.828   0.351  12.713
 6406SOL    HW121115   9.863   0.347  12.625
 6406SOL    HW221116   9.903   0.372  12.769
 6407SOL     OW21117   9.786   6.862   0.759
 6407SOL    HW121118   9.861   6.848   0.701
 6407SOL    HW221119   9.742   6.939   0.722
 6408SOL     OW21120  10.315   9.023   9.000
 6408SOL    HW121121  10.299   9.004   9.092
 6408SOL    HW221122  10.376   9.097   9.001
 6409SOL     OW21123   5.646   1.644   3.245
 6409SOL    HW121124   5.616   1.573   3.301
 6409SOL    HW221125   5.725   1.677   3.287
 6410SOL     OW21126   8.328   2.543   4.724
 6410SOL    HW121127   8.317   2.533   4.629
 6410SOL    HW221128   8.296   2.460   4.760
 6411SOL     OW21129  14.863   2.582   6.998
 6411SOL    HW121130   0.007   2.650   6.933
 6411SOL    HW221131  14.770   2.561   6.988
 6412SOL     OW21132  12.602   5.276   9.537
 6412SOL    HW121133  12.607   5.196   9.588
 6412SOL    HW221134  12.516   5.272   9.494
 6413SOL     OW21135   3.479   9.130   5.909
 6413SOL    HW121136   3.543   9.180   5.960
 6413SOL    HW221137   3.520   9.045   5.894
 6414SOL     OW21138   6.914  11.520   8.697
 6414SOL    HW121139   6.987  11.508   8.636
 6414SOL    HW221140   6.934  11.602   8.743
 6415SOL     OW21141   1.090   4.057   3.960
 6415SOL    HW121142   1.119   4.148   3.957
 6415SOL    HW221143   1.163   4.008   3.922
 6416SOL     OW21144   8.282   2.551   1.415
 6416SOL    HW121145   8.210   2.594   1.461
 6416SOL    HW221146   8.337   2.516   1.484
 6417SOL     OW21147   2.961  14.227   3.434
 6417SOL    HW121148   2.875  14.260   3.458
 6417SOL    HW221149   3.014  14.305   3.420
 6418SOL     OW21150   3.184   5.700   7.898
 6418SOL    HW121151   3.144   5.717   7.983
 6418SOL    HW221152   3.143   5.619   7.867
 6419SOL     OW21153   3.893   0.189  11.640
 6419SOL    HW121154   3.799   0.207  11.632
 6419SOL    HW221155   3.930   0.218  11.556
 6420SOL     OW21156   4.474   3.940   1.263
 6420SOL    HW121157   4.527   3.875   1.218
 6420SOL    HW221158   4.456   3.901   1.349
 6421SOL     OW21159   1.118   0.038   9.687
 6421SOL    HW121160   1.160  14.827   9.709
 6421SOL    HW221161   1.124   0.043   9.592
 6422SOL     OW21162   7.252  13.768   0.426
 6422SOL    HW121163   7.172  13.715   0.426
 6422SOL    HW221164   7.232  13.842   0.483
 6423SOL     OW21165  14.304   4.391  12.875
 6423SOL    HW121166  14.224   4.414  12.923
 6423SOL    HW221167  14.356   4.471  12.877
 6424SOL     OW21168   7.151   4.641  11.824
 6424SOL    HW121169   7.146   4.610  11.915
 6424SOL    HW221170   7.133   4.735  11.830
 6425SOL     OW21171  11.561  11.525  11.971
 6425SOL    HW121172  11.649  11.489  11.986
 6425SOL    HW221173  11.555  11.536  11.876
 6426SOL     OW21174   5.073  10.973  11.973
 6426SOL    HW121175   5.103  10.882  11.962
 6426SOL    HW221176   4.978  10.966  11.979
 6427SOL     OW21177   1.123   8.678   6.704
 6427SOL    HW121178   1.135   8.619   6.779
 6427SOL    HW221179   1.037   8.717   6.719
 6428SOL     OW21180   7.279  11.316   5.007
 6428SOL    HW121181   7.307  11.378   5.075
 6428SOL    HW221182   7.219  11.257   5.053
 6429SOL     OW21183   9.424   5.660  13.352
 6429SOL    HW121184   9.468   5.622  13.429
 6429SOL    HW221185   9.395   5.746  13.381
 6430SOL     OW21186   7.762  12.350   8.226
 6430SOL    HW121187   7.695  12.353   8.294
 6430SOL    HW221188   7.735  12.417   8.163
 6431SOL     OW21189   0.484   2.848   2.982
 6431SOL    HW121190   0.414   2.831   3.045
 6431SOL    HW221191   0.439   2.862   2.899
 6432SOL     OW21192  10.100  14.868   3.449
 6432SOL    HW121193  10.008   0.014   3.430
 6432SOL    HW221194  10.117   0.042   3.531
 6433SOL     OW21195   9.336  14.611   4.043
 6433SOL    HW121196   9.331  14.593   3.949
 6433SOL    HW221197   9.248  14.639   4.067
 6434SOL     OW21198   3.420   4.843   8.442
 6434SOL    HW121199   3.437   4.762   8.491
 6434SOL    HW221200   3.402   4.813   8.353
 6435SOL     OW21201   2.172   6.231   0.625
 6435SOL    HW121202   2.243   6.280   0.585
 6435SOL    HW221203   2.092   6.269   0.587
 6436SOL     OW21204   9.625   0.340   2.069
 6436SOL    HW121205   9.646   0.248   2.055
 6436SOL    HW221206   9.678   0.366   2.145
 6437SOL     OW21207   0.526   4.614   9.595
 6437SOL    HW121208   0.464   4.655   9.535
 6437SOL    HW221209   0.539   4.679   9.664
 6438SOL     OW21210   7.798  10.950  12.782
 6438SOL    HW121211   7.799  11.009  12.857
 6438SOL    HW221212   7.838  10.869  12.813
 6439SOL     OW21213   1.841   8.264   4.976
 6439SOL    HW121214   1.763   8.211   4.960
 6439SOL    HW221215   1.842   8.279   5.070
 6440SOL     OW21216   1.529   5.840  10.799
 6440SOL    HW121217   1.589   5.895  10.849
 6440SOL    HW221218   1.450   5.835  10.852
 6441SOL     OW21219   6.610   2.276   9.790
 6441SOL    HW121220   6.672   2.289   9.862
 6441SOL    HW221221   6.530   2.320   9.819
 6442SOL     OW21222   1.584   6.336  14.313
 6442SOL    HW121223   1.561   6.280  14.239
 6442SOL    HW221224   1.603   6.275  14.384
 6443SOL     OW21225   0.445   7.406   0.893
 6443SOL    HW121226   0.444   7.313   0.869
 6443SOL    HW221227   0.355   7.436   0.876
 6444SOL     OW21228   5.372   6.864  14.150
 6444SOL    HW121229   5.322   6.823  14.221
 6444SOL    HW221230   5.323   6.943  14.129
 6445SOL     OW21231  13.457   0.974  11.281
 6445SOL    HW121232  13.551   0.968  11.266
 6445SOL    HW221233  13.421   1.004  11.197
 6446SOL     OW21234  13.664   1.438  12.016
 6446SOL    HW121235  13.658   1.344  11.997
 6446SOL    HW221236  13.755   1.460  11.997
 6447SOL     OW21237   4.951   0.672   3.260
 6447SOL    HW121238   4.987   0.748   3.307
 6447SOL    HW221239   4.891   0.709   3.196
 6448SOL     OW21240  14.664   7.746   1.147
 6448SOL    HW121241  14.678   7.735   1.241
 6448SOL    HW221242  14.737   7.802   1.119
 6449SOL     OW21243   2.761   9.161   7.224
 6449SOL    HW121244   2.750   9.169   7.319
 6449SOL    HW221245   2.726   9.074   7.204
 6450SOL     OW21246  13.289   5.855   2.105
 6450SOL    HW121247  13.328   5.928   2.058
 6450SOL    HW221248  13.341   5.779   2.079
 6451SOL     OW21249  14.750   4.790  11.599
 6451SOL    HW121250  14.816   4.859  11.608
 6451SOL    HW221251  14.760   4.737  11.678
 6452SOL     OW21252   0.892  11.768  14.735
 6452SOL    HW121253   0.805  11.807  14.743
 6452SOL    HW221254   0.875  11.677  14.712
 6453SOL     OW21255   9.607  13.873   4.794
 6453SOL    HW121256   9.664  13.917   4.857
 6453SOL    HW221257   9.589  13.788   4.834
 6454SOL     OW21258   6.029   1.689   8.999
 6454SOL    HW121259   6.020   1.617   9.061
 6454SOL    HW221260   5.942   1.728   8.994
 6455SOL     OW21261   8.387   4.174  14.347
 6455SOL    HW121262   8.414   4.085  14.327
 6455SOL    HW221263   8.468   4.220  14.371
 6456SOL     OW21264  11.891   8.852   8.396
 6456SOL    HW121265  11.837   8.867   8.473
 6456SOL    HW221266  11.871   8.763   8.369
 6457SOL     OW21267   6.507   9.982  10.851
 6457SOL    HW121268   6.458  10.022  10.922
 6457SOL    HW221269   6.589  10.032  10.847
 6458SOL     OW21270   0.704   8.622  11.374
 6458SOL    HW121271   0.630   8.614  11.313
 6458SOL    HW221272   0.707   8.537  11.418
 6459SOL     OW21273   3.464  12.371   5.972
 6459SOL    HW121274   3.548  12.332   5.997
 6459SOL    HW221275   3.399  12.308   6.001
 6460SOL     OW21276  11.551   2.698   5.322
 6460SOL    HW121277  11.535   2.607   5.346
 6460SOL    HW221278  11.644   2.700   5.298
 6461SOL     OW21279   5.625   9.246  13.594
 6461SOL    HW121280   5.588   9.184  13.658
 6461SOL    HW221281   5.581   9.225  13.512
 6462SOL     OW21282   2.870   9.155  12.939
 6462SOL    HW121283   2.900   9.144  13.029
 6462SOL    HW221284   2.847   9.067  12.910
 6463SOL     OW21285  13.397  10.702   7.908
 6463SOL    HW121286  13.327  10.660   7.858
 6463SOL    HW221287  13.396  10.657   7.992
 6464SOL     OW21288  11.949   5.653   5.250
 6464SOL    HW121289  11.857   5.629   5.239
 6464SOL    HW221290  11.973   5.694   5.167
 6465SOL     OW21291  12.694  13.301   5.161
 6465SOL    HW121292  12.654  13.315   5.075
 6465SOL    HW221293  12.785  13.328   5.151
 6466SOL     OW21294   1.566  10.623  14.347
 6466SOL    HW121295   1.492  10.593  14.400
 6466SOL    HW221296   1.526  10.663  14.270
 6467SOL     OW21297  11.210   6.503  11.586
 6467SOL    HW121298  11.265   6.425  11.590
 6467SOL    HW221299  11.121   6.470  11.579
 6468SOL     OW21300  14.727  10.925   8.618
 6468SOL    HW121301  14.671  10.872   8.675
 6468SOL    HW221302  14.735  11.008   8.664
 6469SOL     OW21303   3.046  12.461   3.867
 6469SOL    HW121304   3.076  12.484   3.779
 6469SOL    HW221305   3.015  12.371   3.859
 6470SOL     OW21306   9.542  13.925  13.833
 6470SOL    HW121307   9.631  13.896  13.813
 6470SOL    HW221308   9.492  13.844  13.839
 6471SOL     OW21309   9.498  13.285   4.074
 6471SOL    HW121310   9.422  13.300   4.130
 6471SOL    HW221311   9.479  13.336   3.995
 6472SOL     OW21312  12.475  10.950   6.863
 6472SOL    HW121313  12.402  11.005   6.837
 6472SOL    HW221314  12.436  10.880   6.915
 6473SOL     OW21315  11.595  14.133   7.538
 6473SOL    HW121316  11.547  14.104   7.616
 6473SOL    HW221317  11.550  14.090   7.465
 6474SOL     OW21318  13.740  10.040   9.609
 6474SOL    HW121319  13.719  10.117   9.556
 6474SOL    HW221320  13.738  10.072   9.700
 6475SOL     OW21321   2.589  13.178   7.537
 6475SOL    HW121322   2.608  13.223   7.455
 6475SOL    HW221323   2.665  13.195   7.593
 6476SOL     OW21324   6.367  14.806   7.157
 6476SOL    HW121325   6.409   0.019   7.168
 6476SOL    HW221326   6.301  14.803   7.226
 6477SOL     OW21327  10.935  11.270   4.257
 6477SOL    HW121328  10.966  11.274   4.166
 6477SOL    HW221329  10.945  11.178   4.282
 6478SOL     OW21330   9.276   3.882  10.939
 6478SOL    HW121331   9.251   3.831  11.016
 6478SOL    HW221332   9.193   3.915  10.905
 6479SOL     OW21333   6.818   5.191  11.946
 6479SOL    HW121334   6.836   5.155  12.033
 6479SOL    HW221335   6.901   5.185  11.900
 6480SOL     OW21336  12.640  14.321   3.801
 6480SOL    HW121337  12.653  14.371   3.881
 6480SOL    HW221338  12.726  14.319   3.759
 6481SOL     OW21339  13.097  11.831   0.769
 6481SOL    HW121340  13.027  11.847   0.706
 6481SOL    HW221341  13.170  11.884   0.738
 6482SOL     OW21342  13.606   6.514   9.869
 6482SOL    HW121343  13.661   6.509   9.947
 6482SOL    HW221344  13.517   6.528   9.903
 6483SOL     OW21345   9.630   7.864  12.875
 6483SOL    HW121346   9.688   7.878  12.800
 6483SOL    HW221347   9.591   7.778  12.859
 6484SOL     OW21348   0.285  11.018   2.802
 6484SOL    HW121349   0.325  10.950   2.857
 6484SOL    HW221350   0.353  11.084   2.793
 6485SOL     OW21351   9.207   8.825  10.630
 6485SOL    HW121352   9.178   8.734  10.632
 6485SOL    HW221353   9.255   8.834  10.548
 6486SOL     OW21354   2.890   6.172   5.678
 6486SOL    HW121355   2.879   6.253   5.629
 6486SOL    HW221356   2.917   6.200   5.766
 6487SOL     OW21357   9.695   2.346  11.917
 6487SOL    HW121358   9.657   2.395  11.844
 6487SOL    HW221359   9.626   2.286  11.944
 6488SOL     OW21360  12.157  13.941   4.732
 6488SOL    HW121361  12.094  13.869   4.734
 6488SOL    HW221362  12.137  13.992   4.811
 6489SOL     OW21363   3.538   3.640   9.211
 6489SOL    HW121364   3.515   3.677   9.126
 6489SOL    HW221365   3.467   3.579   9.231
 6490SOL     OW21366  13.071   3.205  12.475
 6490SOL    HW121367  13.049   3.288  12.433
 6490SOL    HW221368  13.062   3.140  12.405
 6491SOL     OW21369   7.565   2.208   4.117
 6491SOL    HW121370   7.476   2.241   4.111
 6491SOL    HW221371   7.581   2.197   4.211
 6492SOL     OW21372   8.688   2.992  12.130
 6492SOL    HW121373   8.618   3.015  12.068
 6492SOL    HW221374   8.650   2.923  12.184
 6493SOL     OW21375   0.265  14.351  13.490
 6493SOL    HW121376   0.326  14.388  13.426
 6493SOL    HW221377   0.266  14.413  13.563
 6494SOL     OW21378   6.704   8.432   1.359
 6494SOL    HW121379   6.709   8.391   1.446
 6494SOL    HW221380   6.792   8.422   1.323
 6495SOL     OW21381   5.231   0.585  10.648
 6495SOL    HW121382   5.204   0.549  10.564
 6495SOL    HW221383   5.319   0.551  10.662
 6496SOL     OW21384   4.204  11.828   6.421
 6496SOL    HW121385   4.196  11.860   6.331
 6496SOL    HW221386   4.193  11.733   6.414
 6497SOL     OW21387  11.243   3.193  13.832
 6497SOL    HW121388  11.260   3.284  13.860
 6497SOL    HW221389  11.308   3.142  13.880
 6498SOL     OW21390   2.305  14.116  10.962
 6498SOL    HW121391   2.331  14.067  10.884
 6498SOL    HW221392   2.358  14.196  10.958
 6499SOL     OW21393   2.832   2.174   6.148
 6499SOL    HW121394   2.873   2.106   6.094
 6499SOL    HW221395   2.754   2.132   6.184
 6500SOL     OW21396   7.627  10.984   3.874
 6500SOL    HW121397   7.613  11.032   3.956
 6500SOL    HW221398   7.650  10.896   3.901
 6501SOL     OW21399   3.260   4.414   1.159
 6501SOL    HW121400   3.324   4.484   1.148
 6501SOL    HW221401   3.181   4.458   1.191
 6502SOL     OW21402  10.053   1.774  12.037
 6502SOL    HW121403  10.035   1.830  12.112
 6502SOL    HW221404  10.149   1.766  12.036
 6503SOL     OW21405   7.555   8.811   7.004
 6503SOL    HW121406   7.603   8.794   7.085
 6503SOL    HW221407   7.574   8.902   6.984
 6504SOL     OW21408   3.839   5.449   1.471
 6504SOL    HW121409   3.921   5.423   1.428
 6504SOL    HW221410   3.785   5.371   1.469
 6505SOL     OW21411   5.904  10.768  11.442
 6505SOL    HW121412   5.861  10.691  11.480
 6505SOL    HW221413   5.885  10.762  11.348
 6506SOL     OW21414   6.630  12.601   1.473
 6506SOL    HW121415   6.540  12.585   1.504
 6506SOL    HW221416   6.683  12.601   1.553
 6507SOL     OW21417   2.554  11.085   9.877
 6507SOL    HW121418   2.640  11.068   9.838
 6507SOL    HW221419   2.544  11.017   9.943
 6508SOL     OW21420  13.686   1.260  14.520
 6508SOL    HW121421  13.605   1.252  14.470
 6508SOL    HW221422  13.666   1.324  14.588
 6509SOL     OW21423   7.567   0.381   8.117
 6509SOL    HW121424   7.648   0.339   8.090
 6509SOL    HW221425   7.523   0.317   8.173
 6510SOL     OW21426  10.465   4.236   7.278
 6510SOL    HW121427  10.439   4.305   7.217
 6510SOL    HW221428  10.478   4.159   7.223
 6511SOL     OW21429   4.366  12.613   8.839
 6511SOL    HW121430   4.424  12.681   8.805
 6511SOL    HW221431   4.425  12.543   8.866
 6512SOL     OW21432   6.306  11.942   9.030
 6512SOL    HW121433   6.358  11.966   9.106
 6512SOL    HW221434   6.219  11.924   9.065
 6513SOL     OW21435   8.101  12.859  14.676
 6513SOL    HW121436   8.031  12.806  14.637
 6513SOL    HW221437   8.056  12.918  14.736
 6514SOL     OW21438  11.419   5.270   3.143
 6514SOL    HW121439  11.439   5.317   3.061
 6514SOL    HW221440  11.337   5.310   3.173
 6515SOL     OW21441   7.634   3.143   3.716
 6515SOL    HW121442   7.559   3.181   3.762
 6515SOL    HW221443   7.648   3.058   3.759
 6516SOL     OW21444  13.413   7.416   4.291
 6516SOL    HW121445  13.484   7.448   4.236
 6516SOL    HW221446  13.415   7.473   4.368
 6517SOL     OW21447   0.767   1.641   7.462
 6517SOL    HW121448   0.721   1.560   7.484
 6517SOL    HW221449   0.841   1.645   7.523
 6518SOL     OW21450   2.863   5.355  11.314
 6518SOL    HW121451   2.830   5.296  11.382
 6518SOL    HW221452   2.829   5.441  11.338
 6519SOL     OW21453  12.832   3.495   3.499
 6519SOL    HW121454  12.875   3.572   3.462
 6519SOL    HW221455  12.744   3.525   3.522
 6520SOL     OW21456  14.803   9.603   6.994
 6520SOL    HW121457  14.803   9.514   7.029
 6520SOL    HW221458  14.869   9.601   6.924
 6521SOL     OW21459  10.666  11.201   1.476
 6521SOL    HW121460  10.694  11.151   1.553
 6521SOL    HW221461  10.714  11.163   1.403
 6522SOL     OW21462   7.418   5.214   9.059
 6522SOL    HW121463   7.412   5.136   9.114
 6522SOL    HW221464   7.511   5.233   9.055
 6523SOL     OW21465  10.988   7.017  14.608
 6523SOL    HW121466  11.042   7.092  14.633
 6523SOL    HW221467  10.898   7.044  14.626
 6524SOL     OW21468  12.128   1.711   1.422
 6524SOL    HW121469  12.147   1.671   1.338
 6524SOL    HW221470  12.182   1.790   1.425
 6525SOL     OW21471   9.643   6.729  10.819
 6525SOL    HW121472   9.670   6.662  10.757
 6525SOL    HW221473   9.568   6.691  10.865
 6526SOL     OW21474   2.512   0.487   0.751
 6526SOL    HW121475   2.475   0.435   0.679
 6526SOL    HW221476   2.517   0.576   0.715
 6527SOL     OW21477  10.813   9.996  11.890
 6527SOL    HW121478  10.799  10.021  11.798
 6527SOL    HW221479  10.784  10.072  11.940
 6528SOL     OW21480  11.429   0.452   6.581
 6528SOL    HW121481  11.389   0.518   6.638
 6528SOL    HW221482  11.518   0.485   6.565
 6529SOL     OW21483  13.712  13.347   7.013
 6529SOL    HW121484  13.685  13.305   6.932
 6529SOL    HW221485  13.633  13.392   7.044
 6530SOL     OW21486   1.423  11.756   6.584
 6530SOL    HW121487   1.332  11.774   6.607
 6530SOL    HW221488   1.470  11.837   6.605
 6531SOL     OW21489  11.319   6.680   9.784
 6531SOL    HW121490  11.247   6.733   9.818
 6531SOL    HW221491  11.282   6.593   9.773
 6532SOL     OW21492   8.754  10.539   3.621
 6532SOL    HW121493   8.843  10.563   3.647
 6532SOL    HW221494   8.701  10.550   3.701
 6533SOL     OW21495   5.276   1.781   0.243
 6533SOL    HW121496   5.313   1.859   0.285
 6533SOL    HW221497   5.213   1.747   0.306
 6534SOL     OW21498   8.761  13.300  12.317
 6534SOL    HW121499   8.793  13.266  12.400
 6534SOL    HW221500   8.770  13.395  12.325
 6535SOL     OW21501   2.276   3.218   2.500
 6535SOL    HW121502   2.289   3.211   2.405
 6535SOL    HW221503   2.185   3.244   2.510
 6536SOL     OW21504   4.204   3.380  10.680
 6536SOL    HW121505   4.269   3.390  10.749
 6536SOL    HW221506   4.232   3.440  10.611
 6537SOL     OW21507   1.081   3.300  13.438
 6537SOL    HW121508   1.080   3.392  13.466
 6537SOL    HW221509   1.069   3.250  13.519
 6538SOL     OW21510   2.206   9.745   8.063
 6538SOL    HW121511   2.253   9.826   8.082
 6538SOL    HW221512   2.236   9.719   7.976
 6539SOL     OW21513   3.480   1.139   1.822
 6539SOL    HW121514   3.424   1.197   1.769
 6539SOL    HW221515   3.434   1.055   1.822
 6540SOL     OW21516  11.771   4.664   9.081
 6540SOL    HW121517  11.844   4.713   9.043
 6540SOL    HW221518  11.790   4.573   9.060
 6541SOL     OW21519  13.441   3.014  13.950
 6541SOL    HW121520  13.448   3.062  14.032
 6541SOL    HW221521  13.455   3.080  13.882
 6542SOL     OW21522   4.081   9.139   5.969
 6542SOL    HW121523   4.077   9.234   5.981
 6542SOL    HW221524   4.104   9.105   6.056
 6543SOL     OW21525  11.222   9.925   8.147
 6543SOL    HW121526  11.196  10.017   8.140
 6543SOL    HW221527  11.293   9.925   8.210
 6544SOL     OW21528   5.939   4.491   0.983
 6544SOL    HW121529   5.877   4.418   0.991
 6544SOL    HW221530   6.019   4.451   0.951
 6545SOL     OW21531  14.366   3.133   5.611
 6545SOL    HW121532  14.323   3.214   5.581
 6545SOL    HW221533  14.299   3.088   5.661
 6546SOL     OW21534   5.167   7.877  13.853
 6546SOL    HW121535   5.244   7.929  13.876
 6546SOL    HW221536   5.136   7.915  13.770
 6547SOL     OW21537   0.439   5.120  11.735
 6547SOL    HW121538   0.365   5.152  11.683
 6547SOL    HW221539   0.475   5.199  11.776
 6548SOL     OW21540  11.433   2.858   8.536
 6548SOL    HW121541  11.353   2.827   8.579
 6548SOL    HW221542  11.411   2.861   8.443
 6549SOL     OW21543   4.495   2.913  14.358
 6549SOL    HW121544   4.468   2.833  14.313
 6549SOL    HW221545   4.536   2.966  14.289
 6550SOL     OW21546   3.034   2.440   5.499
 6550SOL    HW121547   2.943   2.429   5.528
 6550SOL    HW221548   3.056   2.358   5.456
 6551SOL     OW21549   4.811   2.116  10.533
 6551SOL    HW121550   4.870   2.155  10.598
 6551SOL    HW221551   4.756   2.188  10.504
 6552SOL     OW21552   7.718  14.201   9.870
 6552SOL    HW121553   7.734  14.285   9.827
 6552SOL    HW221554   7.629  14.209   9.905
 6553SOL     OW21555  11.860  11.523  12.191
 6553SOL    HW121556  11.774  11.540  12.229
 6553SOL    HW221557  11.909  11.479  12.261
 6554SOL     OW21558  14.862  10.536   8.452
 6554SOL    HW121559   0.085  10.540   8.447
 6554SOL    HW221560  14.842  10.442   8.447
 6555SOL     OW21561   7.143   0.678  12.817
 6555SOL    HW121562   7.137   0.773  12.828
 6555SOL    HW221563   7.233   0.656  12.840
 6556SOL     OW21564  11.153  14.335   6.937
 6556SOL    HW121565  11.169  14.243   6.920
 6556SOL    HW221566  11.235  14.367   6.974
 6557SOL     OW21567   4.701   1.870   0.979
 6557SOL    HW121568   4.686   1.882   1.073
 6557SOL    HW221569   4.791   1.840   0.973
 6558SOL     OW21570   1.769   9.241  10.951
 6558SOL    HW121571   1.675   9.248  10.933
 6558SOL    HW221572   1.805   9.196  10.874
 6559SOL     OW21573   9.852  10.603   2.363
 6559SOL    HW121574   9.873  10.588   2.455
 6559SOL    HW221575   9.813  10.521   2.334
 6560SOL     OW21576   3.584  12.275   8.261
 6560SOL    HW121577   3.647  12.330   8.308
 6560SOL    HW221578   3.566  12.204   8.322
 6561SOL     OW21579   2.033   4.009   6.811
 6561SOL    HW121580   2.063   3.928   6.852
 6561SOL    HW221581   2.100   4.029   6.745
 6562SOL     OW21582   2.440   0.397   0.440
 6562SOL    HW121583   2.507   0.465   0.435
 6562SOL    HW221584   2.489   0.316   0.456
 6563SOL     OW21585  11.903   8.835   1.603
 6563SOL    HW121586  11.825   8.875   1.563
 6563SOL    HW221587  11.929   8.897   1.671
 6564SOL     OW21588   1.469   8.832   8.432
 6564SOL    HW121589   1.499   8.742   8.444
 6564SOL    HW221590   1.373   8.826   8.430
 6565SOL     OW21591   1.071   4.664  14.508
 6565SOL    HW121592   1.003   4.609  14.470
 6565SOL    HW221593   1.088   4.730  14.441
 6566SOL     OW21594   3.010   0.559   3.030
 6566SOL    HW121595   2.917   0.550   3.009
 6566SOL    HW221596   3.044   0.619   2.964
 6567SOL     OW21597  11.783   1.511  10.803
 6567SOL    HW121598  11.830   1.463  10.871
 6567SOL    HW221599  11.695   1.524  10.838
 6568SOL     OW21600   9.821   0.979   4.390
 6568SOL    HW121601   9.845   1.069   4.414
 6568SOL    HW221602   9.726   0.977   4.395
 6569SOL     OW21603   0.136  11.382  12.730
 6569SOL    HW121604   0.198  11.440  12.774
 6569SOL    HW221605   0.125  11.308  12.789
 6570SOL     OW21606   9.906   4.212   3.683
 6570SOL    HW121607   9.957   4.194   3.762
 6570SOL    HW221608   9.840   4.143   3.681
 6571SOL     OW21609   3.643  10.562   3.570
 6571SOL    HW121610   3.566  10.618   3.558
 6571SOL    HW221611   3.717  10.623   3.564
 6572SOL     OW21612   2.289  10.692   1.697
 6572SOL    HW121613   2.306  10.603   1.729
 6572SOL    HW221614   2.200  10.687   1.661
 6573SOL     OW21615   9.814   2.087   9.140
 6573SOL    HW121616   9.734   2.128   9.105
 6573SOL    HW221617   9.880   2.155   9.135
 6574SOL     OW21618   1.155  12.907  12.493
 6574SOL    HW121619   1.162  12.999  12.521
 6574SOL    HW221620   1.062  12.886  12.504
 6575SOL     OW21621  14.800   3.007  14.845
 6575SOL    HW121622   0.019   3.024  14.824
 6575SOL    HW221623  14.760   2.982  14.762
 6576SOL     OW21624   2.779   3.528   9.032
 6576SOL    HW121625   2.865   3.567   9.017
 6576SOL    HW221626   2.761   3.478   8.952
 6577SOL     OW21627   1.986  13.651   2.347
 6577SOL    HW121628   1.980  13.631   2.440
 6577SOL    HW221629   1.961  13.743   2.340
 6578SOL     OW21630   2.713   6.778   5.065
 6578SOL    HW121631   2.742   6.799   4.976
 6578SOL    HW221632   2.784   6.725   5.102
 6579SOL     OW21633  13.118   6.374  11.954
 6579SOL    HW121634  13.141   6.294  12.001
 6579SOL    HW221635  13.200   6.421  11.945
 6580SOL     OW21636  11.571  13.002   8.336
 6580SOL    HW121637  11.621  13.050   8.402
 6580SOL    HW221638  11.543  12.922   8.380
 6581SOL     OW21639  13.676   6.400  11.451
 6581SOL    HW121640  13.601   6.444  11.490
 6581SOL    HW221641  13.653   6.391  11.359
 6582SOL     OW21642   1.816   9.792   7.671
 6582SOL    HW121643   1.796   9.870   7.620
 6582SOL    HW221644   1.884   9.820   7.732
 6583SOL     OW21645  11.176  10.437  13.706
 6583SOL    HW121646  11.094  10.391  13.721
 6583SOL    HW221647  11.166  10.478  13.621
 6584SOL     OW21648  12.444   8.445   8.862
 6584SOL    HW121649  12.419   8.532   8.891
 6584SOL    HW221650  12.459   8.396   8.943
 6585SOL     OW21651  14.333   1.541  11.126
 6585SOL    HW121652  14.269   1.581  11.067
 6585SOL    HW221653  14.351   1.455  11.088
 6586SOL     OW21654   1.556  11.790  12.624
 6586SOL    HW121655   1.496  11.768  12.696
 6586SOL    HW221656   1.642  11.798  12.667
 6587SOL     OW21657  12.019   4.141   8.738
 6587SOL    HW121658  11.975   4.163   8.656
 6587SOL    HW221659  11.950   4.099   8.791
 6588SOL     OW21660   8.415   3.840   2.071
 6588SOL    HW121661   8.364   3.784   2.130
 6588SOL    HW221662   8.485   3.874   2.126
 6589SOL     OW21663   4.958   8.692  11.809
 6589SOL    HW121664   5.030   8.707  11.869
 6589SOL    HW221665   4.995   8.710  11.722
 6590SOL     OW21666   9.896   3.504   6.680
 6590SOL    HW121667   9.890   3.599   6.687
 6590SOL    HW221668   9.973   3.480   6.732
 6591SOL     OW21669   8.723   2.934  10.775
 6591SOL    HW121670   8.777   2.877  10.721
 6591SOL    HW221671   8.767   2.935  10.861
 6592SOL     OW21672   2.144   9.507   5.375
 6592SOL    HW121673   2.161   9.437   5.437
 6592SOL    HW221674   2.048   9.513   5.372
 6593SOL     OW21675  10.240   8.763   2.565
 6593SOL    HW121676  10.234   8.755   2.470
 6593SOL    HW221677  10.280   8.849   2.579
 6594SOL     OW21678   3.989   9.347  13.436
 6594SOL    HW121679   3.919   9.409  13.421
 6594SOL    HW221680   4.033   9.338  13.351
 6595SOL     OW21681   8.128   2.701  14.263
 6595SOL    HW121682   8.116   2.616  14.307
 6595SOL    HW221683   8.136   2.679  14.170
 6596SOL     OW21684  14.547  11.600   2.284
 6596SOL    HW121685  14.487  11.557   2.223
 6596SOL    HW221686  14.629  11.552   2.273
 6597SOL     OW21687  13.497   6.616   5.726
 6597SOL    HW121688  13.529   6.706   5.728
 6597SOL    HW221689  13.575   6.562   5.741
 6598SOL     OW21690   5.983   9.351  14.430
 6598SOL    HW121691   5.949   9.353  14.519
 6598SOL    HW221692   5.936   9.422  14.385
 6599SOL     OW21693   2.613   9.514   0.231
 6599SOL    HW121694   2.675   9.542   0.298
 6599SOL    HW221695   2.592   9.424   0.254
 6600SOL     OW21696  13.383   1.619   6.611
 6600SOL    HW121697  13.400   1.583   6.698
 6600SOL    HW221698  13.420   1.555   6.551
 6601SOL     OW21699   4.826   4.413   9.448
 6601SOL    HW121700   4.767   4.338   9.441
 6601SOL    HW221701   4.768   4.487   9.468
 6602SOL     OW21702   6.192   1.342   9.466
 6602SOL    HW121703   6.184   1.389   9.549
 6602SOL    HW221704   6.110   1.293   9.459
 6603SOL     OW21705   7.950   2.520   3.483
 6603SOL    HW121706   7.995   2.602   3.501
 6603SOL    HW221707   7.996   2.455   3.535
 6604SOL     OW21708  12.210  14.862  13.123
 6604SOL    HW121709  12.276  14.810  13.075
 6604SOL    HW221710  12.245  14.869  13.212
 6605SOL     OW21711  13.553  13.632   3.793
 6605SOL    HW121712  13.629  13.689   3.807
 6605SOL    HW221713  13.587  13.559   3.741
 6606SOL     OW21714  11.655   8.303   0.811
 6606SOL    HW121715  11.627   8.212   0.812
 6606SOL    HW221716  11.694   8.316   0.724
 6607SOL     OW21717  10.718   2.432  10.230
 6607SOL    HW121718  10.680   2.392  10.152
 6607SOL    HW221719  10.671   2.515  10.240
 6608SOL     OW21720  12.579  14.736  12.603
 6608SOL    HW121721  12.615  14.755  12.517
 6608SOL    HW221722  12.490  14.706  12.586
 6609SOL     OW21723   4.664  11.684   0.354
 6609SOL    HW121724   4.621  11.712   0.436
 6609SOL    HW221725   4.753  11.718   0.361
 6610SOL     OW21726  10.644   6.167  10.389
 6610SOL    HW121727  10.724   6.164  10.442
 6610SOL    HW221728  10.663   6.231  10.321
 6611SOL     OW21729  10.785  14.534   5.259
 6611SOL    HW121730  10.699  14.556   5.222
 6611SOL    HW221731  10.778  14.443   5.287
 6612SOL     OW21732  11.009   0.641   2.740
 6612SOL    HW121733  10.956   0.656   2.818
 6612SOL    HW221734  10.958   0.678   2.668
 6613SOL     OW21735   3.058   3.486   5.913
 6613SOL    HW121736   2.965   3.505   5.930
 6613SOL    HW221737   3.105   3.540   5.976
 6614SOL     OW21738  12.455   9.232  13.865
 6614SOL    HW121739  12.492   9.254  13.779
 6614SOL    HW221740  12.365   9.265  13.862
 6615SOL     OW21741   3.302  12.040   8.534
 6615SOL    HW121742   3.264  12.043   8.446
 6615SOL    HW221743   3.240  12.089   8.588
 6616SOL     OW21744  13.927  14.607  12.899
 6616SOL    HW121745  13.945  14.521  12.938
 6616SOL    HW221746  13.970  14.669  12.957
 6617SOL     OW21747   0.191  12.302   9.145
 6617SOL    HW121748   0.128  12.234   9.168
 6617SOL    HW221749   0.164  12.377   9.198
 6618SOL     OW21750   4.530   7.581   3.443
 6618SOL    HW121751   4.533   7.537   3.528
 6618SOL    HW221752   4.540   7.510   3.380
 6619SOL     OW21753   5.152   3.571   1.156
 6619SOL    HW121754   5.199   3.622   1.089
 6619SOL    HW221755   5.133   3.488   1.114
 6620SOL     OW21756  10.242  11.315  14.391
 6620SOL    HW121757  10.304  11.322  14.318
 6620SOL    HW221758  10.281  11.368  14.460
 6621SOL     OW21759  10.474   1.841   4.276
 6621SOL    HW121760  10.481   1.754   4.237
 6621SOL    HW221761  10.388   1.843   4.317
 6622SOL     OW21762   0.460  11.499   1.850
 6622SOL    HW121763   0.518  11.426   1.873
 6622SOL    HW221764   0.424  11.529   1.934
 6623SOL     OW21765   9.324   7.709  13.723
 6623SOL    HW121766   9.399   7.739  13.672
 6623SOL    HW221767   9.358   7.698  13.812
 6624SOL     OW21768  13.945  14.576   8.935
 6624SOL    HW121769  13.946  14.670   8.917
 6624SOL    HW221770  13.856  14.548   8.913
 6625SOL     OW21771   9.705   9.432  11.086
 6625SOL    HW121772   9.725   9.486  11.163
 6625SOL    HW221773   9.630   9.378  11.114
 6626SOL     OW21774   7.933   3.569   8.757
 6626SOL    HW121775   7.968   3.595   8.842
 6626SOL    HW221776   7.990   3.498   8.728
 6627SOL     OW21777   5.692   8.296   3.613
 6627SOL    HW121778   5.752   8.290   3.539
 6627SOL    HW221779   5.605   8.301   3.573
 6628SOL     OW21780   1.663   7.710   1.737
 6628SOL    HW121781   1.746   7.662   1.734
 6628SOL    HW221782   1.670   7.775   1.667
 6629SOL     OW21783   3.082   8.213   1.358
 6629SOL    HW121784   3.085   8.261   1.441
 6629SOL    HW221785   3.083   8.121   1.383
 6630SOL     OW21786  10.867  12.547   5.884
 6630SOL    HW121787  10.820  12.613   5.935
 6630SOL    HW221788  10.835  12.559   5.795
 6631SOL     OW21789   3.419  10.582   2.557
 6631SOL    HW121790   3.377  10.502   2.588
 6631SOL    HW221791   3.352  10.650   2.568
 6632SOL     OW21792   7.167  14.154   0.368
 6632SOL    HW121793   7.134  14.243   0.360
 6632SOL    HW221794   7.127  14.106   0.295
 6633SOL     OW21795  14.849  12.412   8.674
 6633SOL    HW121796  14.781  12.479   8.688
 6633SOL    HW221797  14.839  12.385   8.583
 6634SOL     OW21798  13.842  13.424   2.032
 6634SOL    HW121799  13.847  13.418   1.937
 6634SOL    HW221800  13.909  13.489   2.056
 6635SOL     OW21801   7.993   9.199   1.723
 6635SOL    HW121802   8.034   9.138   1.662
 6635SOL    HW221803   7.993   9.153   1.807
 6636SOL     OW21804  13.581  10.373  10.266
 6636SOL    HW121805  13.639  10.305  10.234
 6636SOL    HW221806  13.575  10.358  10.361
 6637SOL     OW21807  11.978   2.355   9.451
 6637SOL    HW121808  12.014   2.270   9.424
 6637SOL    HW221809  12.002   2.363   9.544
 6638SOL     OW21810  13.372   2.639   7.907
 6638SOL    HW121811  13.296   2.696   7.894
 6638SOL    HW221812  13.445   2.699   7.922
 6639SOL     OW21813   9.391   1.723  12.966
 6639SOL    HW121814   9.326   1.788  12.992
 6639SOL    HW221815   9.423   1.753  12.881
 6640SOL     OW21816   8.039  10.182  13.542
 6640SOL    HW121817   7.963  10.145  13.587
 6640SOL    HW221818   8.004  10.260  13.497
 6641SOL     OW21819  14.163  12.460   9.697
 6641SOL    HW121820  14.107  12.480   9.773
 6641SOL    HW221821  14.113  12.489   9.622
 6642SOL     OW21822  11.243   9.634   2.084
 6642SOL    HW121823  11.288   9.712   2.115
 6642SOL    HW221824  11.228   9.651   1.991
 6643SOL     OW21825  12.558  12.824   4.419
 6643SOL    HW121826  12.650  12.843   4.404
 6643SOL    HW221827  12.550  12.729   4.411
 6644SOL     OW21828   4.027   1.660  12.216
 6644SOL    HW121829   4.086   1.595  12.255
 6644SOL    HW221830   3.944   1.649  12.263
 6645SOL     OW21831  14.004   0.034   9.796
 6645SOL    HW121832  14.014  14.843   9.867
 6645SOL    HW221833  14.093   0.068   9.782
 6646SOL     OW21834   4.859  14.765   1.516
 6646SOL    HW121835   4.828  14.851   1.545
 6646SOL    HW221836   4.779  14.714   1.504
 6647SOL     OW21837   7.776   8.828   3.095
 6647SOL    HW121838   7.815   8.843   3.009
 6647SOL    HW221839   7.849   8.838   3.156
 6648SOL     OW21840  13.040   6.008   4.608
 6648SOL    HW121841  13.032   6.102   4.626
 6648SOL    HW221842  13.016   5.966   4.691
 6649SOL     OW21843  14.481  11.044  11.707
 6649SOL    HW121844  14.437  10.959  11.717
 6649SOL    HW221845  14.554  11.026  11.648
 6650SOL     OW21846   8.457   2.512   9.065
 6650SOL    HW121847   8.470   2.602   9.094
 6650SOL    HW221848   8.545   2.480   9.043
 6651SOL     OW21849  11.960  13.435   4.444
 6651SOL    HW121850  11.895  13.484   4.395
 6651SOL    HW221851  12.011  13.501   4.491
 6652SOL     OW21852   6.680  12.468  11.825
 6652SOL    HW121853   6.678  12.375  11.849
 6652SOL    HW221854   6.730  12.510  11.895
 6653SOL     OW21855   3.014   1.659   0.204
 6653SOL    HW121856   2.946   1.652   0.136
 6653SOL    HW221857   3.047   1.748   0.195
 6654SOL     OW21858   0.293  12.153   1.634
 6654SOL    HW121859   0.329  12.078   1.682
 6654SOL    HW221860   0.262  12.116   1.552
 6655SOL     OW21861   8.604  14.267   1.574
 6655SOL    HW121862   8.665  14.246   1.503
 6655SOL    HW221863   8.549  14.190   1.583
 6656SOL     OW21864   5.387  11.436  11.229
 6656SOL    HW121865   5.448  11.386  11.283
 6656SOL    HW221866   5.315  11.376  11.211
 6657SOL     OW21867  12.980  14.467   9.088
 6657SOL    HW121868  13.065  14.510   9.092
 6657SOL    HW221869  12.917  14.539   9.090
 6658SOL     OW21870   3.955  11.807   4.594
 6658SOL    HW121871   3.943  11.889   4.546
 6658SOL    HW221872   3.967  11.834   4.685
 6659SOL     OW21873  13.624   7.051  10.017
 6659SOL    HW121874  13.622   7.146  10.029
 6659SOL    HW221875  13.649   7.039   9.926
 6660SOL     OW21876  11.212   1.845  13.395
 6660SOL    HW121877  11.305   1.825  13.411
 6660SOL    HW221878  11.166   1.800  13.465
 6661SOL     OW21879   1.277   3.831   2.979
 6661SOL    HW121880   1.292   3.925   2.976
 6661SOL    HW221881   1.352   3.793   2.933
 6662SOL     OW21882   6.704   8.483   4.015
 6662SOL    HW121883   6.677   8.527   3.934
 6662SOL    HW221884   6.748   8.403   3.985
 6663SOL     OW21885   5.620   8.480  12.991
 6663SOL    HW121886   5.640   8.419  12.920
 6663SOL    HW221887   5.557   8.435  13.046
 6664SOL     OW21888   2.312  12.944  12.645
 6664SOL    HW121889   2.247  13.011  12.664
 6664SOL    HW221890   2.317  12.891  12.725
 6665SOL     OW21891  12.035   4.372   2.550
 6665SOL    HW121892  12.100   4.406   2.612
 6665SOL    HW221893  12.088   4.326   2.485
 6666SOL     OW21894   8.762  13.326   4.048
 6666SOL    HW121895   8.714  13.401   4.011
 6666SOL    HW221896   8.694  13.268   4.082
 6667SOL     OW21897  12.464  10.251   5.002
 6667SOL    HW121898  12.474  10.231   5.095
 6667SOL    HW221899  12.540  10.304   4.979
 6668SOL     OW21900   8.504   9.537   7.376
 6668SOL    HW121901   8.529   9.451   7.341
 6668SOL    HW221902   8.571   9.597   7.342
 6669SOL     OW21903  11.433   2.627  10.690
 6669SOL    HW121904  11.397   2.540  10.708
 6669SOL    HW221905  11.499   2.611  10.622
 6670SOL     OW21906   9.695  11.781   5.168
 6670SOL    HW121907   9.610  11.739   5.158
 6670SOL    HW221908   9.739  11.729   5.236
 6671SOL     OW21909   5.322  10.380   4.536
 6671SOL    HW121910   5.279  10.294   4.536
 6671SOL    HW221911   5.394  10.371   4.598
 6672SOL     OW21912  14.312  13.670  10.788
 6672SOL    HW121913  14.269  13.746  10.827
 6672SOL    HW221914  14.402  13.698  10.774
 6673SOL     OW21915  10.368   2.067  12.716
 6673SOL    HW121916  10.278   2.049  12.739
 6673SOL    HW221917  10.385   2.010  12.641
 6674SOL     OW21918   9.805   5.427  13.701
 6674SOL    HW121919   9.833   5.341  13.733
 6674SOL    HW221920   9.856   5.490  13.753
 6675SOL     OW21921   4.098   8.316   5.557
 6675SOL    HW121922   4.059   8.280   5.637
 6675SOL    HW221923   4.180   8.267   5.546
 6676SOL     OW21924   2.713   0.873   3.002
 6676SOL    HW121925   2.800   0.906   2.980
 6676SOL    HW221926   2.712   0.784   2.968
 6677SOL     OW21927   8.736   7.990   3.627
 6677SOL    HW121928   8.651   7.946   3.635
 6677SOL    HW221929   8.728   8.042   3.547
 6678SOL     OW21930   4.658   0.137  13.975
 6678SOL    HW121931   4.672   0.051  14.015
 6678SOL    HW221932   4.599   0.120  13.902
 6679SOL     OW21933   6.789   3.160   5.042
 6679SOL    HW121934   6.784   3.248   5.078
 6679SOL    HW221935   6.726   3.160   4.969
 6680SOL     OW21936  13.536   9.766   7.540
 6680SOL    HW121937  13.470   9.709   7.501
 6680SOL    HW221938  13.486   9.837   7.580
 6681SOL     OW21939  14.073   2.418   5.694
 6681SOL    HW121940  13.994   2.455   5.733
 6681SOL    HW221941  14.090   2.338   5.745
 6682SOL     OW21942   1.797   5.569  14.275
 6682SOL    HW121943   1.770   5.659  14.293
 6682SOL    HW221944   1.871   5.554  14.335
 6683SOL     OW21945   5.958   5.086  13.151
 6683SOL    HW121946   5.892   5.075  13.083
 6683SOL    HW221947   5.916   5.143  13.216
 6684SOL     OW21948   4.661   2.294   6.897
 6684SOL    HW121949   4.694   2.238   6.826
 6684SOL    HW221950   4.676   2.243   6.977
 6685SOL     OW21951   6.311   9.132   5.139
 6685SOL    HW121952   6.312   9.064   5.206
 6685SOL    HW221953   6.335   9.212   5.185
 6686SOL     OW21954   4.802   9.852  14.408
 6686SOL    HW121955   4.791   9.758  14.393
 6686SOL    HW221956   4.741   9.872  14.480
 6687SOL     OW21957   6.172   3.058  12.387
 6687SOL    HW121958   6.180   2.965  12.409
 6687SOL    HW221959   6.262   3.089  12.384
 6688SOL     OW21960   3.957  13.261   3.301
 6688SOL    HW121961   3.926  13.189   3.246
 6688SOL    HW221962   4.004  13.218   3.372
 6689SOL     OW21963  13.555   0.016   9.594
 6689SOL    HW121964  13.600  14.804   9.589
 6689SOL    HW221965  13.599   0.063   9.665
 6690SOL     OW21966  10.098   2.844   1.073
 6690SOL    HW121967  10.056   2.798   1.000
 6690SOL    HW221968  10.108   2.934   1.042
 6691SOL     OW21969  10.871   8.263   3.809
 6691SOL    HW121970  10.944   8.206   3.785
 6691SOL    HW221971  10.897   8.302   3.893
 6692SOL     OW21972  12.927  14.020  10.333
 6692SOL    HW121973  13.010  13.980  10.307
 6692SOL    HW221974  12.863  13.949  10.323
 6693SOL     OW21975   9.060  13.693   7.896
 6693SOL    HW121976   8.973  13.659   7.920
 6693SOL    HW221977   9.110  13.615   7.874
 6694SOL     OW21978   5.550  14.253   8.334
 6694SOL    HW121979   5.509  14.320   8.388
 6694SOL    HW221980   5.591  14.301   8.262
 6695SOL     OW21981  14.245   9.552   3.348
 6695SOL    HW121982  14.178   9.526   3.285
 6695SOL    HW221983  14.273   9.639   3.318
 6696SOL     OW21984   2.015   4.408   7.586
 6696SOL    HW121985   1.944   4.422   7.523
 6696SOL    HW221986   2.066   4.336   7.549
 6697SOL     OW21987   6.881   4.150  11.549
 6697SOL    HW121988   6.798   4.193  11.569
 6697SOL    HW221989   6.931   4.216  11.502
 6698SOL     OW21990  12.161   7.928  10.512
 6698SOL    HW121991  12.081   7.875  10.511
 6698SOL    HW221992  12.230   7.868  10.485
 6699SOL     OW21993  12.627  11.320   9.881
 6699SOL    HW121994  12.544  11.357   9.912
 6699SOL    HW221995  12.601  11.245   9.828
 6700SOL     OW21996   6.619   6.872  14.662
 6700SOL    HW121997   6.566   6.815  14.606
 6700SOL    HW221998   6.680   6.914  14.602
 6701SOL     OW21999  11.351   5.785   4.452
 6701SOL    HW122000  11.305   5.727   4.513
 6701SOL    HW222001  11.421   5.730   4.415
 6702SOL     OW22002  10.296   9.976   3.487
 6702SOL    HW122003  10.362  10.030   3.530
 6702SOL    HW222004  10.320   9.976   3.395
 6703SOL     OW22005  10.450   2.306   6.264
 6703SOL    HW122006  10.451   2.273   6.354
 6703SOL    HW222007  10.484   2.396   6.271
 6704SOL     OW22008  14.701  12.188   0.051
 6704SOL    HW122009  14.741  12.174   0.137
 6704SOL    HW222010  14.758  12.141  14.863
 6705SOL     OW22011  11.995   1.206  14.413
 6705SOL    HW122012  11.950   1.187  14.495
 6705SOL    HW222013  11.925   1.214  14.348
 6706SOL     OW22014  13.414   4.183   0.196
 6706SOL    HW122015  13.328   4.219   0.173
 6706SOL    HW222016  13.470   4.208   0.122
 6707SOL     OW22017   8.085   4.633   6.279
 6707SOL    HW122018   8.036   4.713   6.298
 6707SOL    HW222019   8.059   4.610   6.189
 6708SOL     OW22020   0.067   0.957  14.202
 6708SOL    HW122021   0.136   0.932  14.140
 6708SOL    HW222022   0.062   0.883  14.263
 6709SOL     OW22023   6.014   2.840  11.334
 6709SOL    HW122024   6.032   2.908  11.399
 6709SOL    HW222025   6.071   2.768  11.359
 6710SOL     OW22026   7.107   2.973   3.210
 6710SOL    HW122027   7.071   3.053   3.250
 6710SOL    HW222028   7.046   2.952   3.139
 6711SOL     OW22029  10.406   3.952   6.651
 6711SOL    HW122030  10.418   3.979   6.560
 6711SOL    HW222031  10.337   3.887   6.648
 6712SOL     OW22032   2.538   6.903   6.860
 6712SOL    HW122033   2.542   6.996   6.836
 6712SOL    HW222034   2.586   6.898   6.943
 6713SOL     OW22035  12.354  10.720   1.807
 6713SOL    HW122036  12.307  10.764   1.736
 6713SOL    HW222037  12.321  10.761   1.887
 6714SOL     OW22038  14.346   0.329   0.801
 6714SOL    HW122039  14.401   0.254   0.822
 6714SOL    HW222040  14.324   0.318   0.709
 6715SOL     OW22041  11.476   3.152   8.145
 6715SOL    HW122042  11.383   3.137   8.167
 6715SOL    HW222043  11.508   3.208   8.215
 6716SOL     OW22044  12.952   2.847   9.394
 6716SOL    HW122045  12.954   2.904   9.317
 6716SOL    HW222046  12.962   2.759   9.358
 6717SOL     OW22047   1.063  10.069   7.194
 6717SOL    HW122048   1.097  10.099   7.110
 6717SOL    HW222049   1.009   9.993   7.172
 6718SOL     OW22050   1.198   5.268  12.344
 6718SOL    HW122051   1.240   5.345  12.305
 6718SOL    HW222052   1.104   5.282  12.329
 6719SOL     OW22053   9.809   6.032   1.084
 6719SOL    HW122054   9.851   5.980   1.016
 6719SOL    HW222055   9.762   6.100   1.036
 6720SOL     OW22056  13.838   7.627  14.552
 6720SOL    HW122057  13.822   7.569  14.478
 6720SOL    HW222058  13.811   7.714  14.521
 6721SOL     OW22059  11.042  12.687   5.255
 6721SOL    HW122060  11.049  12.778   5.227
 6721SOL    HW222061  11.087  12.684   5.340
 6722SOL     OW22062  12.305  11.920   5.708
 6722SOL    HW122063  12.330  12.010   5.729
 6722SOL    HW222064  12.388  11.871   5.708
 6723SOL     OW22065  11.118   4.215  13.441
 6723SOL    HW122066  11.095   4.308  13.441
 6723SOL    HW222067  11.067   4.177  13.512
 6724SOL     OW22068  10.970   8.328  14.604
 6724SOL    HW122069  10.960   8.386  14.680
 6724SOL    HW222070  11.065   8.317  14.596
 6725SOL     OW22071  10.546   3.829  11.773
 6725SOL    HW122072  10.604   3.897  11.738
 6725SOL    HW222073  10.459   3.851  11.740
 6726SOL     OW22074   4.271  11.010   6.235
 6726SOL    HW122075   4.203  10.974   6.178
 6726SOL    HW222076   4.291  10.939   6.296
 6727SOL     OW22077   9.360  13.340   0.235
 6727SOL    HW122078   9.434  13.317   0.291
 6727SOL    HW222079   9.316  13.257   0.218
 6728SOL     OW22080   6.399   3.363   2.529
 6728SOL    HW122081   6.471   3.367   2.466
 6728SOL    HW222082   6.339   3.299   2.492
 6729SOL     OW22083   3.351   8.881   9.303
 6729SOL    HW122084   3.276   8.824   9.284
 6729SOL    HW222085   3.313   8.969   9.310
 6730SOL     OW22086  13.356  12.408   1.953
 6730SOL    HW122087  13.353  12.483   2.013
 6730SOL    HW222088  13.278  12.357   1.973
 6731SOL     OW22089   3.107  13.752   4.032
 6731SOL    HW122090   3.194  13.789   4.025
 6731SOL    HW222091   3.107  13.678   3.971
 6732SOL     OW22092  10.111  10.075   0.543
 6732SOL    HW122093  10.122   9.984   0.570
 6732SOL    HW222094  10.068  10.070   0.458
 6733SOL     OW22095   0.374   2.625   6.126
 6733SOL    HW122096   0.389   2.631   6.221
 6733SOL    HW222097   0.340   2.711   6.102
 6734SOL     OW22098   4.628  14.537   8.852
 6734SOL    HW122099   4.639  14.626   8.819
 6734SOL    HW222100   4.537  14.533   8.881
 6735SOL     OW22101   0.282   0.349   7.181
 6735SOL    HW122102   0.314   0.439   7.169
 6735SOL    HW222103   0.322   0.319   7.262
 6736SOL     OW22104   8.354  14.459   6.570
 6736SOL    HW122105   8.269  14.452   6.613
 6736SOL    HW222106   8.412  14.492   6.638
 6737SOL     OW22107  11.488  12.116   7.848
 6737SOL    HW122108  11.410  12.104   7.902
 6737SOL    HW222109  11.472  12.065   7.769
 6738SOL     OW22110   5.420   2.098   2.173
 6738SOL    HW122111   5.460   2.159   2.235
 6738SOL    HW222112   5.431   2.012   2.214
 6739SOL     OW22113   7.292   5.992  12.053
 6739SOL    HW122114   7.247   5.978  11.970
 6739SOL    HW222115   7.355   5.920  12.058
 6740SOL     OW22116   1.820   4.691   9.033
 6740SOL    HW122117   1.771   4.634   8.973
 6740SOL    HW222118   1.910   4.657   9.029
 6741SOL     OW22119   0.910   7.716  12.118
 6741SOL    HW122120   0.841   7.767  12.160
 6741SOL    HW222121   0.986   7.775  12.117
 6742SOL     OW22122  14.321   5.612   6.757
 6742SOL    HW122123  14.234   5.607   6.718
 6742SOL    HW222124  14.337   5.705   6.769
 6743SOL     OW22125   0.888   3.221   7.151
 6743SOL    HW122126   0.910   3.235   7.059
 6743SOL    HW222127   0.849   3.304   7.179
 6744SOL     OW22128   9.768   9.297   3.077
 6744SOL    HW122129   9.724   9.381   3.087
 6744SOL    HW222130   9.817   9.304   2.995
 6745SOL     OW22131   0.736   5.154  12.129
 6745SOL    HW122132   0.801   5.112  12.073
 6745SOL    HW222133   0.699   5.082  12.181
 6746SOL     OW22134   7.997   7.736  14.154
 6746SOL    HW122135   8.001   7.715  14.060
 6746SOL    HW222136   7.943   7.815  14.158
 6747SOL     OW22137   9.717   5.508   4.141
 6747SOL    HW122138   9.763   5.426   4.155
 6747SOL    HW222139   9.633   5.497   4.186
 6748SOL     OW22140   1.960   7.608   7.640
 6748SOL    HW122141   2.025   7.604   7.569
 6748SOL    HW222142   2.004   7.657   7.709
 6749SOL     OW22143  10.616  13.022   6.252
 6749SOL    HW122144  10.548  12.977   6.201
 6749SOL    HW222145  10.654  13.085   6.191
 6750SOL     OW22146  10.494   6.955   9.024
 6750SOL    HW122147  10.542   7.015   8.966
 6750SOL    HW222148  10.427   7.009   9.064
 6751SOL     OW22149   2.115  10.198   0.589
 6751SOL    HW122150   2.054  10.197   0.515
 6751SOL    HW222151   2.196  10.233   0.552
 6752SOL     OW22152   6.105   3.453   8.052
 6752SOL    HW122153   6.161   3.458   7.975
 6752SOL    HW222154   6.021   3.421   8.018
 6753SOL     OW22155   7.655   0.754   5.661
 6753SOL    HW122156   7.727   0.702   5.626
 6753SOL    HW222157   7.697   0.831   5.698
 6754SOL     OW22158   3.959   2.356  13.626
 6754SOL    HW122159   4.053   2.335  13.625
 6754SOL    HW222160   3.932   2.340  13.716
 6755SOL     OW22161   8.177  10.179   3.977
 6755SOL    HW122162   8.224  10.260   3.953
 6755SOL    HW222163   8.168  10.185   4.072
 6756SOL     OW22164  12.958   4.366   7.761
 6756SOL    HW122165  13.036   4.352   7.707
 6756SOL    HW222166  12.891   4.393   7.699
 6757SOL     OW22167   9.221   9.383  12.866
 6757SOL    HW122168   9.295   9.393  12.805
 6757SOL    HW222169   9.207   9.471  12.900
 6758SOL     OW22170   1.944   7.872   0.726
 6758SOL    HW122171   1.961   7.962   0.696
 6758SOL    HW222172   2.010   7.820   0.680
 6759SOL     OW22173  14.674   6.036  11.996
 6759SOL    HW122174  14.631   6.047  11.911
 6759SOL    HW222175  14.611   5.989  12.050
 6760SOL     OW22176  13.579   8.158  13.911
 6760SOL    HW122177  13.587   8.191  13.822
 6760SOL    HW222178  13.588   8.063  13.903
 6761SOL     OW22179   1.554   9.004  10.209
 6761SOL    HW122180   1.521   8.915  10.195
 6761SOL    HW222181   1.555   9.014  10.305
 6762SOL     OW22182  10.070   3.006   3.471
 6762SOL    HW122183  10.026   3.089   3.490
 6762SOL    HW222184  10.145   3.005   3.531
 6763SOL     OW22185   4.504   4.629   5.113
 6763SOL    HW122186   4.431   4.673   5.158
 6763SOL    HW222187   4.572   4.695   5.108
 6764SOL     OW22188   7.647   1.886   6.068
 6764SOL    HW122189   7.673   1.886   6.160
 6764SOL    HW222190   7.689   1.964   6.031
 6765SOL     OW22191   1.949  10.819   4.657
 6765SOL    HW122192   2.016  10.835   4.591
 6765SOL    HW222193   1.881  10.771   4.611
 6766SOL     OW22194   3.482   1.264   6.236
 6766SOL    HW122195   3.494   1.335   6.300
 6766SOL    HW222196   3.557   1.273   6.177
 6767SOL     OW22197  11.798   1.746   8.514
 6767SOL    HW122198  11.867   1.722   8.576
 6767SOL    HW222199  11.791   1.671   8.456
 6768SOL     OW22200   1.395   5.038  14.124
 6768SOL    HW122201   1.360   5.053  14.212
 6768SOL    HW222202   1.383   4.944  14.109
 6769SOL     OW22203  10.670   3.118   6.736
 6769SOL    HW122204  10.700   3.194   6.785
 6769SOL    HW222205  10.615   3.154   6.666
 6770SOL     OW22206   0.748   2.226  13.122
 6770SOL    HW122207   0.671   2.276  13.149
 6770SOL    HW222208   0.713   2.145  13.085
 6771SOL     OW22209   0.237  13.834   5.659
 6771SOL    HW122210   0.201  13.749   5.636
 6771SOL    HW222211   0.324  13.835   5.618
 6772SOL     OW22212   6.435   2.668   6.304
 6772SOL    HW122213   6.502   2.633   6.245
 6772SOL    HW222214   6.458   2.760   6.316
 6773SOL     OW22215   5.137   1.140  12.009
 6773SOL    HW122216   5.126   1.158  11.916
 6773SOL    HW222217   5.068   1.190  12.051
 6774SOL     OW22218  12.718   6.771  11.325
 6774SOL    HW122219  12.730   6.678  11.348
 6774SOL    HW222220  12.751   6.819  11.401
 6775SOL     OW22221   4.630  10.114  13.939
 6775SOL    HW122222   4.560  10.091  13.879
 6775SOL    HW222223   4.710  10.105  13.887
 6776SOL     OW22224   8.652   3.115   7.490
 6776SOL    HW122225   8.617   3.061   7.562
 6776SOL    HW222226   8.745   3.125   7.511
 6777SOL     OW22227  13.426  13.572   2.878
 6777SOL    HW122228  13.465  13.495   2.836
 6777SOL    HW222229  13.332  13.551   2.883
 6778SOL     OW22230   3.053   8.965  11.281
 6778SOL    HW122231   3.037   8.916  11.200
 6778SOL    HW222232   3.141   8.938  11.308
 6779SOL     OW22233   4.683   5.847   5.391
 6779SOL    HW122234   4.668   5.884   5.478
 6779SOL    HW222235   4.742   5.909   5.349
 6780SOL     OW22236   0.729   2.639  13.986
 6780SOL    HW122237   0.738   2.558  13.938
 6780SOL    HW222238   0.818   2.660  14.015
 6781SOL     OW22239  11.554  11.739  14.775
 6781SOL    HW122240  11.517  11.729  14.862
 6781SOL    HW222241  11.495  11.801  14.731
 6782SOL     OW22242  13.739  11.014   8.259
 6782SOL    HW122243  13.644  11.030   8.255
 6782SOL    HW222244  13.776  11.075   8.194
 6783SOL     OW22245  10.272   5.494   9.598
 6783SOL    HW122246  10.234   5.516   9.513
 6783SOL    HW222247  10.362   5.525   9.593
 6784SOL     OW22248   5.989   5.158   9.467
 6784SOL    HW122249   5.987   5.099   9.391
 6784SOL    HW222250   6.057   5.221   9.446
 6785SOL     OW22251   8.394   8.001   3.339
 6785SOL    HW122252   8.392   8.049   3.256
 6785SOL    HW222253   8.391   7.909   3.314
 6786SOL     OW22254   3.267   2.868   4.640
 6786SOL    HW122255   3.196   2.864   4.575
 6786SOL    HW222256   3.272   2.779   4.674
 6787SOL     OW22257   2.441  12.664   6.479
 6787SOL    HW122258   2.380  12.722   6.524
 6787SOL    HW222259   2.413  12.576   6.505
 6788SOL     OW22260  14.692   0.815  10.383
 6788SOL    HW122261  14.761   0.752  10.407
 6788SOL    HW222262  14.703   0.887  10.446
 6789SOL     OW22263  14.068  14.093   2.339
 6789SOL    HW122264  14.159  14.065   2.345
 6789SOL    HW222265  14.026  14.055   2.416
 6790SOL     OW22266   2.752   7.044   7.376
 6790SOL    HW122267   2.696   6.983   7.422
 6790SOL    HW222268   2.747   7.018   7.284
 6791SOL     OW22269   3.286  13.191   2.046
 6791SOL    HW122270   3.285  13.099   2.021
 6791SOL    HW222271   3.280  13.191   2.142
 6792SOL     OW22272   3.416   7.913   8.808
 6792SOL    HW122273   3.418   7.979   8.877
 6792SOL    HW222274   3.436   7.831   8.852
 6793SOL     OW22275  14.110   5.748  14.569
 6793SOL    HW122276  14.142   5.757  14.659
 6793SOL    HW222277  14.041   5.814  14.561
 6794SOL     OW22278   5.149   1.915  11.556
 6794SOL    HW122279   5.233   1.878  11.531
 6794SOL    HW222280   5.089   1.889  11.486
 6795SOL     OW22281   4.099   2.493   3.874
 6795SOL    HW122282   4.107   2.587   3.885
 6795SOL    HW222283   4.006   2.474   3.890
 6796SOL     OW22284   8.517   1.774   5.054
 6796SOL    HW122285   8.456   1.745   4.987
 6796SOL    HW222286   8.597   1.796   5.006
 6797SOL     OW22287   5.740   2.393  10.497
 6797SOL    HW122288   5.824   2.405  10.541
 6797SOL    HW222289   5.711   2.482  10.476
 6798SOL     OW22290  10.993   4.098  13.644
 6798SOL    HW122291  11.011   4.037  13.715
 6798SOL    HW222292  10.918   4.061  13.598
 6799SOL     OW22293   1.468   7.124   3.854
 6799SOL    HW122294   1.395   7.075   3.815
 6799SOL    HW222295   1.426   7.183   3.917
 6800SOL     OW22296  10.061   5.042   3.573
 6800SOL    HW122297  10.053   4.984   3.498
 6800SOL    HW222298  10.084   5.127   3.535
 6801SOL     OW22299  11.181   7.738   6.776
 6801SOL    HW122300  11.125   7.737   6.854
 6801SOL    HW222301  11.128   7.783   6.710
 6802SOL     OW22302   1.985  10.398  14.240
 6802SOL    HW122303   2.000  10.478  14.290
 6802SOL    HW222304   2.072  10.357  14.234
 6803SOL     OW22305   9.428   2.820   5.989
 6803SOL    HW122306   9.364   2.802   5.920
 6803SOL    HW222307   9.509   2.780   5.957
 6804SOL     OW22308  11.395  13.848   0.497
 6804SOL    HW122309  11.421  13.798   0.575
 6804SOL    HW222310  11.461  13.825   0.431
 6805SOL     OW22311  10.836   8.166  11.482
 6805SOL    HW122312  10.861   8.080  11.447
 6805SOL    HW222313  10.904   8.187  11.546
 6806SOL     OW22314  13.849   7.457   4.485
 6806SOL    HW122315  13.900   7.474   4.406
 6806SOL    HW222316  13.880   7.372   4.516
 6807SOL     OW22317  10.890   6.516  14.672
 6807SOL    HW122318  10.940   6.553  14.600
 6807SOL    HW222319  10.897   6.421  14.661
 6808SOL     OW22320   5.477  13.069   8.622
 6808SOL    HW122321   5.395  13.111   8.648
 6808SOL    HW222322   5.464  12.977   8.641
 6809SOL     OW22323   0.457   7.064  14.687
 6809SOL    HW122324   0.521   7.110  14.633
 6809SOL    HW222325   0.391   7.033  14.625
 6810SOL     OW22326   0.941  14.394   8.732
 6810SOL    HW122327   0.848  14.372   8.728
 6810SOL    HW222328   0.981  14.342   8.662
 6811SOL     OW22329  14.304   3.591   4.022
 6811SOL    HW122330  14.286   3.620   4.112
 6811SOL    HW222331  14.257   3.509   4.013
 6812SOL     OW22332   9.462   7.598   4.344
 6812SOL    HW122333   9.499   7.515   4.374
 6812SOL    HW222334   9.379   7.605   4.390
 6813SOL     OW22335   9.712  10.023   8.958
 6813SOL    HW122336   9.748  10.032   9.046
 6813SOL    HW222337   9.788  10.023   8.900
 6814SOL     OW22338   2.050   3.716  10.191
 6814SOL    HW122339   1.958   3.724  10.166
 6814SOL    HW222340   2.067   3.621  10.191
 6815SOL     OW22341   5.727   4.769   9.916
 6815SOL    HW122342   5.822   4.782   9.919
 6815SOL    HW222343   5.698   4.785  10.006
 6816SOL     OW22344   1.865   0.852   8.145
 6816SOL    HW122345   1.832   0.897   8.223
 6816SOL    HW222346   1.789   0.808   8.109
 6817SOL     OW22347   8.076  11.647  10.752
 6817SOL    HW122348   8.093  11.704  10.677
 6817SOL    HW222349   8.142  11.673  10.817
 6818SOL     OW22350   9.274  13.123   5.150
 6818SOL    HW122351   9.257  13.215   5.173
 6818SOL    HW222352   9.368  13.121   5.130
 6819SOL     OW22353  12.718   4.172   6.481
 6819SOL    HW122354  12.633   4.185   6.440
 6819SOL    HW222355  12.742   4.082   6.458
 6820SOL     OW22356   4.604   0.720   7.980
 6820SOL    HW122357   4.700   0.712   7.975
 6820SOL    HW222358   4.589   0.812   8.001
 6821SOL     OW22359  13.952   8.519   9.906
 6821SOL    HW122360  14.008   8.448   9.937
 6821SOL    HW222361  13.866   8.500   9.945
 6822SOL     OW22362   4.080   6.539   1.659
 6822SOL    HW122363   4.027   6.469   1.698
 6822SOL    HW222364   4.156   6.493   1.622
 6823SOL     OW22365  12.554   7.719   0.933
 6823SOL    HW122366  12.583   7.779   0.864
 6823SOL    HW222367  12.459   7.734   0.939
 6824SOL     OW22368   3.776   9.070  12.124
 6824SOL    HW122369   3.752   8.980  12.100
 6824SOL    HW222370   3.807   9.063  12.214
 6825SOL     OW22371   3.106  11.667   9.580
 6825SOL    HW122372   3.054  11.643   9.656
 6825SOL    HW222373   3.162  11.590   9.563
 6826SOL     OW22374   2.681   0.290   5.002
 6826SOL    HW122375   2.710   0.212   5.050
 6826SOL    HW222376   2.673   0.358   5.069
 6827SOL     OW22377  12.843  11.305   8.703
 6827SOL    HW122378  12.818  11.374   8.764
 6827SOL    HW222379  12.915  11.259   8.746
 6828SOL     OW22380  13.784   6.484   8.574
 6828SOL    HW122381  13.729   6.537   8.516
 6828SOL    HW222382  13.762   6.515   8.662
 6829SOL     OW22383   2.685   3.383   6.899
 6829SOL    HW122384   2.666   3.477   6.897
 6829SOL    HW222385   2.768   3.375   6.852
 6830SOL     OW22386   0.527   5.375   5.878
 6830SOL    HW122387   0.575   5.389   5.797
 6830SOL    HW222388   0.594   5.368   5.946
 6831SOL     OW22389   3.648   6.546   6.052
 6831SOL    HW122390   3.653   6.523   5.959
 6831SOL    HW222391   3.714   6.614   6.063
 6832SOL     OW22392  12.215  10.675   4.759
 6832SOL    HW122393  12.122  10.652   4.761
 6832SOL    HW222394  12.218  10.765   4.792
 6833SOL     OW22395   8.329   5.318  14.592
 6833SOL    HW122396   8.236   5.325  14.615
 6833SOL    HW222397   8.372   5.387  14.643
 6834SOL     OW22398  12.961   3.172   8.141
 6834SOL    HW122399  12.994   3.085   8.161
 6834SOL    HW222400  13.016   3.232   8.193
 6835SOL     OW22401   0.239  14.038   4.592
 6835SOL    HW122402   0.205  14.124   4.566
 6835SOL    HW222403   0.189  13.976   4.539
 6836SOL     OW22404   5.481   2.486   8.938
 6836SOL    HW122405   5.418   2.544   8.979
 6836SOL    HW222406   5.549   2.545   8.903
 6837SOL     OW22407  13.028   5.938  12.453
 6837SOL    HW122408  13.000   5.961  12.541
 6837SOL    HW222409  13.123   5.933  12.459
 6838SOL     OW22410   8.997  12.727   5.197
 6838SOL    HW122411   8.919  12.698   5.244
 6838SOL    HW222412   8.995  12.822   5.204
 6839SOL     OW22413   9.938  12.204  12.040
 6839SOL    HW122414   9.959  12.295  12.021
 6839SOL    HW222415   9.960  12.193  12.132
 6840SOL     OW22416  12.714   8.543   3.019
 6840SOL    HW122417  12.672   8.574   3.099
 6840SOL    HW222418  12.806   8.532   3.043
 6841SOL     OW22419   3.438   4.675   0.743
 6841SOL    HW122420   3.410   4.709   0.658
 6841SOL    HW222421   3.397   4.589   0.749
 6842SOL     OW22422   9.688  12.086  11.969
 6842SOL    HW122423   9.774  12.118  11.995
 6842SOL    HW222424   9.701  12.050  11.882
 6843SOL     OW22425  13.777   3.196   6.956
 6843SOL    HW122426  13.775   3.204   6.861
 6843SOL    HW222427  13.687   3.176   6.981
 6844SOL     OW22428   8.736  13.821   6.396
 6844SOL    HW122429   8.817  13.782   6.428
 6844SOL    HW222430   8.703  13.757   6.331
 6845SOL     OW22431  12.130   7.698   1.200
 6845SOL    HW122432  12.182   7.733   1.273
 6845SOL    HW222433  12.045   7.677   1.239
 6846SOL     OW22434   1.928   3.261   5.280
 6846SOL    HW122435   1.941   3.167   5.290
 6846SOL    HW222436   1.947   3.297   5.367
 6847SOL     OW22437   9.630   5.737   6.768
 6847SOL    HW122438   9.658   5.714   6.857
 6847SOL    HW222439   9.548   5.785   6.781
 6848SOL     OW22440   7.577  10.580  14.210
 6848SOL    HW122441   7.622  10.602  14.292
 6848SOL    HW222442   7.572  10.485  14.211
 6849SOL     OW22443   0.386   5.205   5.300
 6849SOL    HW122444   0.425   5.161   5.224
 6849SOL    HW222445   0.366   5.294   5.269
 6850SOL     OW22446   0.693   0.911   6.203
 6850SOL    HW122447   0.689   0.858   6.283
 6850SOL    HW222448   0.760   0.977   6.221
 6851SOL     OW22449   0.765  12.851   5.359
 6851SOL    HW122450   0.800  12.763   5.376
 6851SOL    HW222451   0.841  12.901   5.328
 6852SOL     OW22452   4.270   2.851   6.658
 6852SOL    HW122453   4.356   2.850   6.617
 6852SOL    HW222454   4.274   2.922   6.722
 6853SOL     OW22455  12.131  10.101   0.176
 6853SOL    HW122456  12.080  10.042   0.231
 6853SOL    HW222457  12.109  10.188   0.208
 6854SOL     OW22458   1.317   3.464   5.395
 6854SOL    HW122459   1.359   3.406   5.332
 6854SOL    HW222460   1.225   3.465   5.370
 6855SOL     OW22461   1.550   7.999  11.684
 6855SOL    HW122462   1.469   8.015  11.635
 6855SOL    HW222463   1.526   7.930  11.747
 6856SOL     OW22464   7.687   5.232   0.321
 6856SOL    HW122465   7.602   5.276   0.326
 6856SOL    HW222466   7.751   5.301   0.339
 6857SOL     OW22467   9.963   3.448  14.396
 6857SOL    HW122468   9.891   3.512  14.397
 6857SOL    HW222469   9.940   3.387  14.326
 6858SOL     OW22470  13.592   1.963   3.489
 6858SOL    HW122471  13.557   2.021   3.422
 6858SOL    HW222472  13.516   1.913   3.519
 6859SOL     OW22473   8.231  10.057   8.747
 6859SOL    HW122474   8.203  10.009   8.669
 6859SOL    HW222475   8.270   9.990   8.803
 6860SOL     OW22476   8.223   3.336   8.020
 6860SOL    HW122477   8.239   3.300   7.933
 6860SOL    HW222478   8.174   3.416   8.004
 6861SOL     OW22479   9.824   3.228   2.855
 6861SOL    HW122480   9.890   3.295   2.837
 6861SOL    HW222481   9.869   3.165   2.910
 6862SOL     OW22482   1.630  10.139   0.886
 6862SOL    HW122483   1.684  10.149   0.808
 6862SOL    HW222484   1.587  10.224   0.896
 6863SOL     OW22485  11.379   4.634   3.207
 6863SOL    HW122486  11.287   4.638   3.231
 6863SOL    HW222487  11.390   4.547   3.168
 6864SOL     OW22488  11.965  10.113  12.201
 6864SOL    HW122489  11.893  10.110  12.264
 6864SOL    HW222490  11.956  10.199  12.158
 6865SOL     OW22491   8.131  11.124   8.217
 6865SOL    HW122492   8.064  11.084   8.163
 6865SOL    HW222493   8.144  11.063   8.289
 6866SOL     OW22494   4.465  10.856   7.644
 6866SOL    HW122495   4.530  10.926   7.643
 6866SOL    HW222496   4.382  10.900   7.628
 6867SOL     OW22497  10.145  13.553  13.294
 6867SOL    HW122498  10.053  13.539  13.318
 6867SOL    HW222499  10.144  13.635  13.244
 6868SOL     OW22500   2.306   7.140  13.270
 6868SOL    HW122501   2.350   7.175  13.193
 6868SOL    HW222502   2.217   7.123  13.241
 6869SOL     OW22503   1.657   3.767   5.638
 6869SOL    HW122504   1.582   3.810   5.679
 6869SOL    HW222505   1.627   3.678   5.619
 6870SOL     OW22506  14.270   6.072  14.458
 6870SOL    HW122507  14.326   6.138  14.417
 6870SOL    HW222508  14.200   6.123  14.500
 6871SOL     OW22509  12.263   5.542   8.290
 6871SOL    HW122510  12.277   5.565   8.197
 6871SOL    HW222511  12.222   5.456   8.288
 6872SOL     OW22512   5.436   6.851   7.805
 6872SOL    HW122513   5.383   6.794   7.860
 6872SOL    HW222514   5.392   6.850   7.720
 6873SOL     OW22515  10.519  11.159   3.536
 6873SOL    HW122516  10.515  11.193   3.625
 6873SOL    HW222517  10.556  11.231   3.485
 6874SOL     OW22518  11.449   2.141   8.903
 6874SOL    HW122519  11.542   2.163   8.893
 6874SOL    HW222520  11.413   2.148   8.815
 6875SOL     OW22521   1.811   6.146  11.214
 6875SOL    HW122522   1.719   6.156  11.236
 6875SOL    HW222523   1.825   6.207  11.141
 6876SOL     OW22524   4.282   6.352  10.883
 6876SOL    HW122525   4.317   6.373  10.796
 6876SOL    HW222526   4.341   6.398  10.943
 6877SOL     OW22527  12.030  12.677  12.332
 6877SOL    HW122528  12.062  12.720  12.253
 6877SOL    HW222529  12.107  12.670  12.388
 6878SOL     OW22530   5.669  14.068   9.280
 6878SOL    HW122531   5.574  14.067   9.283
 6878SOL    HW222532   5.689  14.087   9.188
 6879SOL     OW22533   2.212   3.754  13.124
 6879SOL    HW122534   2.273   3.752  13.199
 6879SOL    HW222535   2.229   3.838  13.082
 6880SOL     OW22536  10.175   9.490  13.780
 6880SOL    HW122537  10.267   9.469  13.798
 6880SOL    HW222538  10.163   9.577  13.818
 6881SOL     OW22539   7.143   7.126   6.777
 6881SOL    HW122540   7.049   7.113   6.791
 6881SOL    HW222541   7.178   7.039   6.760
 6882SOL     OW22542   4.858   1.540  13.879
 6882SOL    HW122543   4.946   1.504  13.879
 6882SOL    HW222544   4.837   1.551  13.972
 6883SOL     OW22545   9.926   6.613  13.411
 6883SOL    HW122546   9.839   6.594  13.377
 6883SOL    HW222547   9.951   6.533  13.459
 6884SOL     OW22548   4.340  11.085   2.382
 6884SOL    HW122549   4.363  11.111   2.471
 6884SOL    HW222550   4.363  10.992   2.377
 6885SOL     OW22551   8.540   3.335   1.286
 6885SOL    HW122552   8.634   3.317   1.274
 6885SOL    HW222553   8.532   3.429   1.270
 6886SOL     OW22554  13.166   7.556   4.254
 6886SOL    HW122555  13.228   7.485   4.269
 6886SOL    HW222556  13.140   7.583   4.342
 6887SOL     OW22557  13.787  11.866  11.849
 6887SOL    HW122558  13.773  11.772  11.864
 6887SOL    HW222559  13.843  11.870  11.771
 6888SOL     OW22560  10.836  10.976   4.064
 6888SOL    HW122561  10.812  11.002   4.153
 6888SOL    HW222562  10.756  10.936   4.029
 6889SOL     OW22563   9.400   5.877   6.762
 6889SOL    HW122564   9.393   5.972   6.751
 6889SOL    HW222565   9.313   5.844   6.737
 6890SOL     OW22566   3.399   6.542   5.624
 6890SOL    HW122567   3.424   6.590   5.704
 6890SOL    HW222568   3.363   6.460   5.655
 6891SOL     OW22569   8.481  12.720   9.463
 6891SOL    HW122570   8.536  12.774   9.520
 6891SOL    HW222571   8.485  12.633   9.502
 6892SOL     OW22572   9.429  10.125  10.822
 6892SOL    HW122573   9.342  10.153  10.793
 6892SOL    HW222574   9.486  10.148  10.748
 6893SOL     OW22575   3.961   7.411  14.624
 6893SOL    HW122576   3.966   7.421  14.719
 6893SOL    HW222577   3.879   7.365  14.608
 6894SOL     OW22578   0.200  11.755   9.206
 6894SOL    HW122579   0.157  11.765   9.291
 6894SOL    HW222580   0.289  11.787   9.220
 6895SOL     OW22581   4.261   3.300   7.537
 6895SOL    HW122582   4.311   3.226   7.503
 6895SOL    HW222583   4.320   3.375   7.525
 6896SOL     OW22584   9.451   1.781   8.361
 6896SOL    HW122585   9.447   1.875   8.344
 6896SOL    HW222586   9.365   1.748   8.336
 6897SOL     OW22587   0.642   4.359   2.188
 6897SOL    HW122588   0.629   4.451   2.163
 6897SOL    HW222589   0.628   4.310   2.107
 6898SOL     OW22590   5.548   9.525   3.996
 6898SOL    HW122591   5.637   9.504   3.970
 6898SOL    HW222592   5.532   9.473   4.075
 6899SOL     OW22593  13.341  14.574  14.537
 6899SOL    HW122594  13.431  14.558  14.509
 6899SOL    HW222595  13.292  14.498  14.506
 6900SOL     OW22596   0.245  14.419   9.311
 6900SOL    HW122597   0.150  14.412   9.317
 6900SOL    HW222598   0.260  14.477   9.236
 6901SOL     OW22599  14.836  10.765  10.045
 6901SOL    HW122600  14.820  10.847  10.092
 6901SOL    HW222601   0.046  10.780   9.997
 6902SOL     OW22602  13.808   8.213   0.798
 6902SOL    HW122603  13.900   8.218   0.823
 6902SOL    HW222604  13.787   8.301   0.765
 6903SOL     OW22605   1.297   6.733   2.778
 6903SOL    HW122606   1.304   6.806   2.717
 6903SOL    HW222607   1.334   6.767   2.860
 6904SOL     OW22608  12.502   0.648   6.998
 6904SOL    HW122609  12.425   0.626   7.049
 6904SOL    HW222610  12.468   0.698   6.924
 6905SOL     OW22611  11.969  11.459   3.458
 6905SOL    HW122612  11.961  11.389   3.393
 6905SOL    HW222613  12.050  11.504   3.433
 6906SOL     OW22614   9.122   8.146  12.803
 6906SOL    HW122615   9.053   8.152  12.737
 6906SOL    HW222616   9.191   8.204  12.771
 6907SOL     OW22617   8.859   3.509   2.022
 6907SOL    HW122618   8.903   3.578   1.972
 6907SOL    HW222619   8.769   3.540   2.033
 6908SOL     OW22620   3.435  12.417   9.345
 6908SOL    HW122621   3.521  12.385   9.375
 6908SOL    HW222622   3.414  12.360   9.270
 6909SOL     OW22623   4.586  14.037   8.081
 6909SOL    HW122624   4.542  14.004   8.003
 6909SOL    HW222625   4.673  13.996   8.079
 6910SOL     OW22626   8.269   5.869   6.517
 6910SOL    HW122627   8.241   5.896   6.604
 6910SOL    HW222628   8.288   5.776   6.525
 6911SOL     OW22629   6.391   5.569  14.501
 6911SOL    HW122630   6.472   5.520  14.513
 6911SOL    HW222631   6.364   5.594  14.589
 6912SOL     OW22632   6.825   1.528  10.395
 6912SOL    HW122633   6.851   1.509  10.485
 6912SOL    HW222634   6.861   1.615  10.378
 6913SOL     OW22635  13.074   4.456  11.530
 6913SOL    HW122636  13.109   4.404  11.457
 6913SOL    HW222637  13.018   4.396  11.578
 6914SOL     OW22638   7.446   9.428  13.973
 6914SOL    HW122639   7.407   9.375  14.042
 6914SOL    HW222640   7.531   9.387  13.957
 6915SOL     OW22641  13.031   8.339   7.994
 6915SOL    HW122642  13.009   8.248   8.014
 6915SOL    HW222643  13.059   8.376   8.078
 6916SOL     OW22644  13.919   0.009  11.097
 6916SOL    HW122645  13.897  14.835  11.016
 6916SOL    HW222646  13.943   0.097  11.068
 6917SOL     OW22647  12.548  12.086  12.412
 6917SOL    HW122648  12.476  12.118  12.466
 6917SOL    HW222649  12.562  11.996  12.442
 6918SOL     OW22650   8.021   9.620  10.610
 6918SOL    HW122651   8.021   9.641  10.703
 6918SOL    HW222652   7.931   9.596  10.590
 6919SOL     OW22653   5.381  10.301   0.705
 6919SOL    HW122654   5.349  10.218   0.741
 6919SOL    HW222655   5.302  10.352   0.687
 6920SOL     OW22656   9.613  11.840   7.806
 6920SOL    HW122657   9.525  11.877   7.794
 6920SOL    HW222658   9.616  11.819   7.900
 6921SOL     OW22659   2.201   3.329   2.844
 6921SOL    HW122660   2.192   3.376   2.927
 6921SOL    HW222661   2.284   3.282   2.852
 6922SOL     OW22662  10.738  11.345  11.286
 6922SOL    HW122663  10.705  11.373  11.200
 6922SOL    HW222664  10.706  11.256  11.296
 6923SOL     OW22665  13.119  13.000   2.538
 6923SOL    HW122666  13.119  12.905   2.550
 6923SOL    HW222667  13.160  13.014   2.453
 6924SOL     OW22668   2.916   0.043   5.774
 6924SOL    HW122669   2.870   0.127   5.768
 6924SOL    HW222670   2.972   0.041   5.696
 6925SOL     OW22671  14.717  10.093   9.176
 6925SOL    HW122672  14.656  10.154   9.136
 6925SOL    HW222673  14.720  10.118   9.269
 6926SOL     OW22674   1.570   4.162   7.263
 6926SOL    HW122675   1.645   4.167   7.204
 6926SOL    HW222676   1.527   4.247   7.254
 6927SOL     OW22677   2.412   4.628   5.727
 6927SOL    HW122678   2.408   4.654   5.819
 6927SOL    HW222679   2.404   4.710   5.678
 6928SOL     OW22680  10.587   6.713  13.671
 6928SOL    HW122681  10.638   6.701  13.591
 6928SOL    HW222682  10.503   6.672  13.652
 6929SOL     OW22683  14.309  14.129   5.629
 6929SOL    HW122684  14.319  14.107   5.722
 6929SOL    HW222685  14.385  14.089   5.587
 6930SOL     OW22686   4.637  14.168  11.032
 6930SOL    HW122687   4.731  14.180  11.045
 6930SOL    HW222688   4.606  14.126  11.112
 6931SOL     OW22689   8.706  11.987  10.738
 6931SOL    HW122690   8.655  11.929  10.795
 6931SOL    HW222691   8.797  11.973  10.764
 6932SOL     OW22692  14.460   6.916   0.755
 6932SOL    HW122693  14.405   6.994   0.760
 6932SOL    HW222694  14.493   6.916   0.665
 6933SOL     OW22695   7.107   4.071   9.729
 6933SOL    HW122696   7.024   4.092   9.687
 6933SOL    HW222697   7.145   4.156   9.751
 6934SOL     OW22698   1.348  12.220  10.506
 6934SOL    HW122699   1.292  12.289  10.543
 6934SOL    HW222700   1.416  12.207  10.572
 6935SOL     OW22701   8.094  10.553   7.791
 6935SOL    HW122702   8.188  10.561   7.775
 6935SOL    HW222703   8.060  10.512   7.711
 6936SOL     OW22704   9.513   5.537  12.915
 6936SOL    HW122705   9.439   5.550  12.975
 6936SOL    HW222706   9.540   5.626  12.891
 6937SOL     OW22707   2.166  14.325   8.655
 6937SOL    HW122708   2.242  14.317   8.712
 6937SOL    HW222709   2.156  14.420   8.641
 6938SOL     OW22710  13.020   7.475  12.222
 6938SOL    HW122711  12.959   7.434  12.282
 6938SOL    HW222712  13.016   7.422  12.142
 6939SOL     OW22713  11.124   7.817  12.624
 6939SOL    HW122714  11.175   7.740  12.651
 6939SOL    HW222715  11.087   7.791  12.539
 6940SOL     OW22716  13.992   4.395   7.005
 6940SOL    HW122717  13.963   4.304   7.005
 6940SOL    HW222718  13.998   4.419   7.098
 6941SOL     OW22719   0.612   8.951  12.153
 6941SOL    HW122720   0.672   8.885  12.188
 6941SOL    HW222721   0.561   8.905  12.087
 6942SOL     OW22722   0.541  11.294   8.188
 6942SOL    HW122723   0.594  11.314   8.111
 6942SOL    HW222724   0.452  11.321   8.165
 6943SOL     OW22725   7.836   9.539  13.646
 6943SOL    HW122726   7.906   9.488  13.606
 6943SOL    HW222727   7.756   9.494  13.620
 6944SOL     OW22728   1.222   7.409   4.557
 6944SOL    HW122729   1.185   7.487   4.517
 6944SOL    HW222730   1.235   7.433   4.649
 6945SOL     OW22731   8.357   6.929  10.583
 6945SOL    HW122732   8.398   6.920  10.669
 6945SOL    HW222733   8.399   6.861  10.530
 6946SOL     OW22734   1.683   2.949   9.982
 6946SOL    HW122735   1.660   2.896   9.906
 6946SOL    HW222736   1.744   3.015   9.948
 6947SOL     OW22737  12.245  10.652   0.363
 6947SOL    HW122738  12.319  10.663   0.423
 6947SOL    HW222739  12.189  10.586   0.404
 6948SOL     OW22740   5.884  13.815   6.673
 6948SOL    HW122741   5.790  13.817   6.693
 6948SOL    HW222742   5.903  13.903   6.642
 6949SOL     OW22743   6.725   1.413   4.478
 6949SOL    HW122744   6.660   1.395   4.410
 6949SOL    HW222745   6.730   1.508   4.482
 6950SOL     OW22746   8.088   5.973  13.316
 6950SOL    HW122747   8.112   5.902  13.376
 6950SOL    HW222748   8.103   6.053  13.366
 6951SOL     OW22749  11.262  14.239   9.396
 6951SOL    HW122750  11.341  14.202   9.434
 6951SOL    HW222751  11.231  14.302   9.462
 6952SOL     OW22752   3.043   6.303   5.191
 6952SOL    HW122753   2.947   6.302   5.194
 6952SOL    HW222754   3.070   6.271   5.278
 6953SOL     OW22755   0.362  13.489  13.470
 6953SOL    HW122756   0.438  13.449  13.511
 6953SOL    HW222757   0.386  13.501  13.378
 6954SOL     OW22758   3.033   5.371  14.070
 6954SOL    HW122759   3.012   5.447  14.016
 6954SOL    HW222760   2.994   5.297  14.024
 6955SOL     OW22761   4.433  12.901   6.734
 6955SOL    HW122762   4.457  12.945   6.652
 6955SOL    HW222763   4.516  12.887   6.779
 6956SOL     OW22764  11.837   6.624   9.667
 6956SOL    HW122765  11.743   6.607   9.671
 6956SOL    HW222766  11.876   6.539   9.647
 6957SOL     OW22767   0.670   0.236  11.300
 6957SOL    HW122768   0.701   0.262  11.386
 6957SOL    HW222769   0.685   0.312  11.244
 6958SOL     OW22770   8.395  12.090  10.746
 6958SOL    HW122771   8.442  12.148  10.806
 6958SOL    HW222772   8.459  12.024  10.720
 6959SOL     OW22773   7.338  14.823  13.021
 6959SOL    HW122774   7.284  14.745  13.034
 6959SOL    HW222775   7.348  14.830  12.926
 6960SOL     OW22776   6.816   2.641  11.605
 6960SOL    HW122777   6.903   2.604  11.593
 6960SOL    HW222778   6.757   2.566  11.601
 6961SOL     OW22779   6.254   1.526   3.146
 6961SOL    HW122780   6.341   1.529   3.106
 6961SOL    HW222781   6.239   1.433   3.163
 6962SOL     OW22782   1.821   8.009   2.160
 6962SOL    HW122783   1.782   7.923   2.180
 6962SOL    HW222784   1.772   8.039   2.083
 6963SOL     OW22785   3.936   8.635   9.625
 6963SOL    HW122786   3.877   8.562   9.643
 6963SOL    HW222787   3.976   8.656   9.709
 6964SOL     OW22788   3.018   1.229   1.803
 6964SOL    HW122789   3.079   1.299   1.827
 6964SOL    HW222790   2.982   1.199   1.887
 6965SOL     OW22791   0.819   2.035   4.725
 6965SOL    HW122792   0.876   2.112   4.717
 6965SOL    HW222793   0.760   2.057   4.797
 6966SOL     OW22794   7.763   3.999   5.708
 6966SOL    HW122795   7.737   4.070   5.767
 6966SOL    HW222796   7.693   3.995   5.643
 6967SOL     OW22797  14.090   2.577  13.575
 6967SOL    HW122798  13.998   2.550  13.569
 6967SOL    HW222799  14.106   2.586  13.669
 6968SOL     OW22800   5.457   1.939  13.122
 6968SOL    HW122801   5.399   1.919  13.048
 6968SOL    HW222802   5.415   2.013  13.165
 6969SOL     OW22803   4.267   1.306   1.685
 6969SOL    HW122804   4.325   1.348   1.748
 6969SOL    HW222805   4.197   1.269   1.738
 6970SOL     OW22806   3.118  14.820   4.665
 6970SOL    HW122807   3.170   0.028   4.654
 6970SOL    HW222808   3.033  14.841   4.625
 6971SOL     OW22809  10.579  12.741   0.530
 6971SOL    HW122810  10.498  12.771   0.488
 6971SOL    HW222811  10.645  12.746   0.461
 6972SOL     OW22812   0.739  12.224   4.851
 6972SOL    HW122813   0.651  12.250   4.824
 6972SOL    HW222814   0.779  12.306   4.881
 6973SOL     OW22815   9.824  11.809  12.567
 6973SOL    HW122816   9.788  11.851  12.646
 6973SOL    HW222817   9.899  11.758  12.598
 6974SOL     OW22818   3.536   7.055   6.264
 6974SOL    HW122819   3.461   7.004   6.293
 6974SOL    HW222820   3.511   7.146   6.278
 6975SOL     OW22821   9.770  11.514   1.257
 6975SOL    HW122822   9.756  11.577   1.187
 6975SOL    HW222823   9.829  11.558   1.318
 6976SOL     OW22824   5.686   4.206   9.662
 6976SOL    HW122825   5.665   4.175   9.575
 6976SOL    HW222826   5.623   4.276   9.679
 6977SOL     OW22827  11.631   1.883   5.045
 6977SOL    HW122828  11.540   1.855   5.032
 6977SOL    HW222829  11.644   1.880   5.139
 6978SOL     OW22830  13.530  11.134   9.387
 6978SOL    HW122831  13.616  11.171   9.408
 6978SOL    HW222832  13.519  11.063   9.450
 6979SOL     OW22833  11.716  12.178   8.413
 6979SOL    HW122834  11.795  12.141   8.374
 6979SOL    HW222835  11.649  12.110   8.401
 6980SOL     OW22836   2.201  13.889   2.564
 6980SOL    HW122837   2.246  13.972   2.547
 6980SOL    HW222838   2.110  13.905   2.538
 6981SOL     OW22839   1.833   0.838  10.342
 6981SOL    HW122840   1.799   0.847  10.253
 6981SOL    HW222841   1.758   0.856  10.399
 6982SOL     OW22842   0.129   7.531   6.467
 6982SOL    HW122843   0.149   7.618   6.503
 6982SOL    HW222844   0.193   7.519   6.397
 6983SOL     OW22845  10.443  10.193   6.894
 6983SOL    HW122846  10.491  10.117   6.927
 6983SOL    HW222847  10.511  10.256   6.869
 6984SOL     OW22848   0.878   9.810   8.329
 6984SOL    HW122849   0.884   9.868   8.253
 6984SOL    HW222850   0.948   9.746   8.316
 6985SOL     OW22851  13.375   5.455  14.094
 6985SOL    HW122852  13.446   5.412  14.142
 6985SOL    HW222853  13.327   5.382  14.054
 6986SOL     OW22854   8.209  12.057   5.061
 6986SOL    HW122855   8.296  12.087   5.038
 6986SOL    HW222856   8.170  12.130   5.109
 6987SOL     OW22857  11.887  12.863  14.095
 6987SOL    HW122858  11.974  12.844  14.061
 6987SOL    HW222859  11.882  12.812  14.176
 6988SOL     OW22860  12.131   9.551   2.281
 6988SOL    HW122861  12.172   9.635   2.304
 6988SOL    HW222862  12.038   9.563   2.300
 6989SOL     OW22863  11.981   7.559  14.032
 6989SOL    HW122864  11.972   7.488  13.968
 6989SOL    HW222865  11.935   7.633  13.993
 6990SOL     OW22866   6.109   1.675  13.433
 6990SOL    HW122867   6.159   1.709  13.507
 6990SOL    HW222868   6.125   1.580  13.435
 6991SOL     OW22869   4.538  10.942  11.482
 6991SOL    HW122870   4.527  10.933  11.576
 6991SOL    HW222871   4.613  11.001  11.473
 6992SOL     OW22872   9.493   9.109  14.802
 6992SOL    HW122873   9.506   9.111  14.707
 6992SOL    HW222874   9.507   9.200  14.830
 6993SOL     OW22875   7.278   3.310   1.605
 6993SOL    HW122876   7.360   3.334   1.648
 6993SOL    HW222877   7.302   3.295   1.513
 6994SOL     OW22878   8.349   9.445   2.340
 6994SOL    HW122879   8.423   9.445   2.402
 6994SOL    HW222880   8.319   9.355   2.339
 6995SOL     OW22881   7.174   4.449  13.163
 6995SOL    HW122882   7.223   4.367  13.174
 6995SOL    HW222883   7.093   4.424  13.120
 6996SOL     OW22884   1.322   2.357   5.319
 6996SOL    HW122885   1.352   2.340   5.408
 6996SOL    HW222886   1.377   2.302   5.263
 6997SOL     OW22887   3.751   3.801   8.009
 6997SOL    HW122888   3.746   3.706   8.003
 6997SOL    HW222889   3.830   3.824   7.960
 6998SOL     OW22890   9.292   0.958   8.807
 6998SOL    HW122891   9.229   0.996   8.745
 6998SOL    HW222892   9.268   0.865   8.811
 6999SOL     OW22893   5.979   7.617   9.533
 6999SOL    HW122894   5.983   7.548   9.467
 6999SOL    HW222895   6.064   7.660   9.527
 7000SOL     OW22896  11.551   4.939   1.563
 7000SOL    HW122897  11.583   4.877   1.498
 7000SOL    HW222898  11.618   4.939   1.632
 7001SOL     OW22899   0.195   9.776   9.877
 7001SOL    HW122900   0.145   9.766   9.796
 7001SOL    HW222901   0.286   9.777   9.849
 7002SOL     OW22902  12.162  11.290   1.787
 7002SOL    HW122903  12.241  11.239   1.803
 7002SOL    HW222904  12.119  11.294   1.873
 7003SOL     OW22905  11.785  10.982   7.923
 7003SOL    HW122906  11.805  10.889   7.936
 7003SOL    HW222907  11.708  10.983   7.867
 7004SOL     OW22908   1.839   6.268   2.105
 7004SOL    HW122909   1.788   6.251   2.185
 7004SOL    HW222910   1.883   6.185   2.087
 7005SOL     OW22911   6.128   8.935   2.637
 7005SOL    HW122912   6.093   8.958   2.723
 7005SOL    HW222913   6.071   8.865   2.605
 7006SOL     OW22914   7.787   3.608   9.144
 7006SOL    HW122915   7.722   3.571   9.085
 7006SOL    HW222916   7.849   3.653   9.087
 7007SOL     OW22917   9.942   3.127   5.438
 7007SOL    HW122918   9.898   3.117   5.354
 7007SOL    HW222919   9.947   3.038   5.473
 7008SOL     OW22920   7.532   0.918   3.279
 7008SOL    HW122921   7.566   0.926   3.368
 7008SOL    HW222922   7.583   0.980   3.228
 7009SOL     OW22923   7.080   9.941   3.047
 7009SOL    HW122924   7.034   9.892   3.115
 7009SOL    HW222925   7.168   9.955   3.082
 7010SOL     OW22926   1.745  10.300   1.358
 7010SOL    HW122927   1.758  10.219   1.309
 7010SOL    HW222928   1.684  10.276   1.428
 7011SOL     OW22929   0.008   8.965  13.233
 7011SOL    HW122930  14.852   8.932  13.318
 7011SOL    HW222931   0.103   8.954  13.234
 7012SOL     OW22932   9.952   8.037  10.676
 7012SOL    HW122933  10.034   7.996  10.650
 7012SOL    HW222934   9.898   8.034  10.598
 7013SOL     OW22935   3.196   8.383   1.598
 7013SOL    HW122936   3.249   8.329   1.539
 7013SOL    HW222937   3.239   8.375   1.683
 7014SOL     OW22938   7.370   7.323   2.329
 7014SOL    HW122939   7.428   7.261   2.286
 7014SOL    HW222940   7.394   7.321   2.421
 7015SOL     OW22941  13.510   7.362   0.786
 7015SOL    HW122942  13.539   7.409   0.863
 7015SOL    HW222943  13.439   7.415   0.749
 7016SOL     OW22944   1.898  10.837   1.485
 7016SOL    HW122945   1.977  10.872   1.443
 7016SOL    HW222946   1.840  10.816   1.411
 7017SOL     OW22947   0.314   6.059   4.546
 7017SOL    HW122948   0.291   6.138   4.498
 7017SOL    HW222949   0.305   5.989   4.481
 7018SOL     OW22950   2.690   7.662  13.663
 7018SOL    HW122951   2.695   7.693  13.753
 7018SOL    HW222952   2.617   7.710  13.625
 7019SOL     OW22953   1.370   6.164  10.919
 7019SOL    HW122954   1.435   6.225  10.885
 7019SOL    HW222955   1.402   6.142  11.007
 7020SOL     OW22956  10.975   3.487  10.128
 7020SOL    HW122957  11.018   3.427  10.189
 7020SOL    HW222958  10.882   3.464  10.133
 7021SOL     OW22959  10.352   0.873   4.672
 7021SOL    HW122960  10.366   0.883   4.766
 7021SOL    HW222961  10.345   0.962   4.639
 7022SOL     OW22962   2.509   2.417   9.997
 7022SOL    HW122963   2.603   2.435  10.005
 7022SOL    HW222964   2.500   2.325  10.021
 7023SOL     OW22965   5.095   5.930   4.950
 7023SOL    HW122966   5.101   6.024   4.963
 7023SOL    HW222967   5.146   5.912   4.871
 7024SOL     OW22968  11.210  10.337   0.507
 7024SOL    HW122969  11.152  10.365   0.436
 7024SOL    HW222970  11.213  10.242   0.500
 7025SOL     OW22971   4.527   3.692  12.235
 7025SOL    HW122972   4.549   3.622  12.173
 7025SOL    HW222973   4.542   3.654  12.321
 7026SOL     OW22974   9.416  10.797   5.462
 7026SOL    HW122975   9.326  10.768   5.446
 7026SOL    HW222976   9.467  10.715   5.468
 7027SOL     OW22977   6.968  12.673   1.621
 7027SOL    HW122978   6.981  12.767   1.616
 7027SOL    HW222979   6.938  12.657   1.710
 7028SOL     OW22980   5.369  13.278  11.631
 7028SOL    HW122981   5.451  13.255  11.675
 7028SOL    HW222982   5.389  13.359  11.585
 7029SOL     OW22983   4.665  12.290   7.473
 7029SOL    HW122984   4.605  12.222   7.504
 7029SOL    HW222985   4.646  12.296   7.379
 7030SOL     OW22986  13.970  12.674   0.005
 7030SOL    HW122987  13.938  12.656  14.789
 7030SOL    HW222988  13.904  12.732   0.043
 7031SOL     OW22989   0.008   1.757  14.072
 7031SOL    HW122990  14.813   1.693  14.051
 7031SOL    HW222991  14.832   1.834  14.102
 7032SOL     OW22992  10.447  11.929   0.777
 7032SOL    HW122993  10.456  12.014   0.736
 7032SOL    HW222994  10.486  11.867   0.715
 7033SOL     OW22995   1.667   3.061  14.684
 7033SOL    HW122996   1.748   3.046  14.635
 7033SOL    HW222997   1.597   3.050  14.619
 7034SOL     OW22998   6.654  11.924   8.175
 7034SOL    HW122999   6.711  11.901   8.249
 7034SOL    HW223000   6.609  11.843   8.154
 7035SOL     OW23001   1.988   3.221   4.770
 7035SOL    HW123002   1.957   3.284   4.704
 7035SOL    HW223003   2.083   3.225   4.764
 7036SOL     OW23004   4.456   6.131   5.649
 7036SOL    HW123005   4.442   6.192   5.721
 7036SOL    HW223006   4.549   6.142   5.627
 7037SOL     OW23007   5.519   6.478   8.145
 7037SOL    HW123008   5.500   6.463   8.053
 7037SOL    HW223009   5.553   6.395   8.177
 7038SOL     OW23010  14.087   8.317   1.708
 7038SOL    HW123011  14.103   8.235   1.754
 7038SOL    HW223012  14.147   8.314   1.633
 7039SOL     OW23013   9.793   8.908   0.299
 7039SOL    HW123014   9.885   8.886   0.314
 7039SOL    HW223015   9.793   8.958   0.218
 7040SOL     OW23016   5.861  13.273  12.475
 7040SOL    HW123017   5.885  13.343  12.536
 7040SOL    HW223018   5.897  13.194  12.515
 7041SOL     OW23019  12.358  14.698   5.546
 7041SOL    HW123020  12.421  14.641   5.590
 7041SOL    HW223021  12.392  14.786   5.558
 7042SOL     OW23022  13.273  12.978   9.277
 7042SOL    HW123023  13.194  12.923   9.275
 7042SOL    HW223024  13.240  13.067   9.286
 7043SOL     OW23025  14.278  13.262   8.791
 7043SOL    HW123026  14.369  13.256   8.759
 7043SOL    HW223027  14.272  13.350   8.828
 7044SOL     OW23028   5.287   6.191   6.472
 7044SOL    HW123029   5.237   6.245   6.411
 7044SOL    HW223030   5.377   6.218   6.460
 7045SOL     OW23031   5.528  11.526  13.676
 7045SOL    HW123032   5.443  11.489  13.698
 7045SOL    HW223033   5.573  11.536  13.760
 7046SOL     OW23034  14.537   1.571  12.501
 7046SOL    HW123035  14.582   1.544  12.581
 7046SOL    HW223036  14.444   1.562  12.522
 7047SOL     OW23037  12.069   9.485  13.283
 7047SOL    HW123038  12.125   9.463  13.208
 7047SOL    HW223039  12.087   9.416  13.347
 7048SOL     OW23040  14.537   7.824   9.389
 7048SOL    HW123041  14.469   7.890   9.394
 7048SOL    HW223042  14.489   7.741   9.383
 7049SOL     OW23043  14.185   0.228   0.062
 7049SOL    HW123044  14.175   0.145   0.014
 7049SOL    HW223045  14.273   0.258   0.040
 7050SOL     OW23046   3.512   3.684   9.977
 7050SOL    HW123047   3.476   3.598   9.999
 7050SOL    HW223048   3.604   3.680  10.004
 7051SOL     OW23049   6.424   3.987   6.365
 7051SOL    HW123050   6.435   3.996   6.460
 7051SOL    HW223051   6.472   4.061   6.328
 7052SOL     OW23052   0.431   4.101   7.948
 7052SOL    HW123053   0.432   4.183   7.899
 7052SOL    HW223054   0.338   4.083   7.963
 7053SOL     OW23055   0.712   5.444  12.840
 7053SOL    HW123056   0.671   5.446  12.927
 7053SOL    HW223057   0.640   5.459  12.779
 7054SOL     OW23058   6.224   5.804   4.192
 7054SOL    HW123059   6.153   5.846   4.240
 7054SOL    HW223060   6.303   5.845   4.225
 7055SOL     OW23061   0.197  12.521  12.400
 7055SOL    HW123062   0.212  12.426  12.397
 7055SOL    HW223063   0.108  12.530  12.434
 7056SOL     OW23064   1.809   5.975   6.906
 7056SOL    HW123065   1.732   5.918   6.903
 7056SOL    HW223066   1.877   5.925   6.861
 7057SOL     OW23067  14.445   1.646   1.519
 7057SOL    HW123068  14.360   1.683   1.544
 7057SOL    HW223069  14.423   1.576   1.457
 7058SOL     OW23070  12.645   2.219   5.498
 7058SOL    HW123071  12.555   2.202   5.526
 7058SOL    HW223072  12.642   2.208   5.403
 7059SOL     OW23073   0.913  14.541  14.017
 7059SOL    HW123074   0.893  14.634  14.005
 7059SOL    HW223075   1.004  14.532  13.990
 7060SOL     OW23076   8.815   1.885   0.883
 7060SOL    HW123077   8.853   1.946   0.820
 7060SOL    HW223078   8.866   1.898   0.963
 7061SOL     OW23079  14.115   0.681  10.191
 7061SOL    HW123080  14.191   0.663  10.136
 7061SOL    HW223081  14.092   0.597  10.230
 7062SOL     OW23082  12.988   5.213   5.422
 7062SOL    HW123083  13.073   5.246   5.451
 7062SOL    HW223084  12.962   5.274   5.353
 7063SOL     OW23085   3.005   9.666   9.941
 7063SOL    HW123086   3.052   9.690  10.021
 7063SOL    HW223087   2.934   9.609   9.971
 7064SOL     OW23088  12.180   1.673   2.682
 7064SOL    HW123089  12.228   1.756   2.685
 7064SOL    HW223090  12.111   1.688   2.617
 7065SOL     OW23091  11.186   9.766   1.410
 7065SOL    HW123092  11.215   9.705   1.478
 7065SOL    HW223093  11.254   9.761   1.343
 7066SOL     OW23094  10.205   4.028  12.115
 7066SOL    HW123095  10.239   3.954  12.066
 7066SOL    HW223096  10.279   4.090  12.119
 7067SOL     OW23097   0.231   8.989  11.187
 7067SOL    HW123098   0.227   9.019  11.278
 7067SOL    HW223099   0.308   8.933  11.184
 7068SOL     OW23100   2.391   7.335  11.806
 7068SOL    HW123101   2.475   7.304  11.841
 7068SOL    HW223102   2.332   7.333  11.881
 7069SOL     OW23103   7.489  13.517   4.938
 7069SOL    HW123104   7.416  13.534   4.998
 7069SOL    HW223105   7.566  13.544   4.988
 7070SOL     OW23106   0.146   3.052   3.434
 7070SOL    HW123107   0.061   3.045   3.478
 7070SOL    HW223108   0.204   2.996   3.486
 7071SOL     OW23109   0.214   4.185   0.050
 7071SOL    HW123110   0.124   4.162   0.028
 7071SOL    HW223111   0.211   4.205   0.144
 7072SOL     OW23112   3.152   2.352  13.972
 7072SOL    HW123113   3.171   2.258  13.964
 7072SOL    HW223114   3.232   2.395  13.942
 7073SOL     OW23115   2.614   4.743   0.409
 7073SOL    HW123116   2.625   4.835   0.386
 7073SOL    HW223117   2.703   4.708   0.413
 7074SOL     OW23118  11.719  10.208   3.225
 7074SOL    HW123119  11.684  10.287   3.266
 7074SOL    HW223120  11.789  10.179   3.283
 7075SOL     OW23121  13.552   0.503   6.308
 7075SOL    HW123122  13.588   0.450   6.379
 7075SOL    HW223123  13.616   0.494   6.237
 7076SOL     OW23124   0.684  13.151  10.114
 7076SOL    HW123125   0.644  13.100  10.184
 7076SOL    HW223126   0.718  13.229  10.159
 7077SOL     OW23127   0.386   5.538   7.953
 7077SOL    HW123128   0.344   5.622   7.935
 7077SOL    HW223129   0.321   5.488   8.003
 7078SOL     OW23130   1.657  14.237   4.253
 7078SOL    HW123131   1.624  14.308   4.307
 7078SOL    HW223132   1.689  14.280   4.174
 7079SOL     OW23133   2.598  11.049   1.849
 7079SOL    HW123134   2.523  11.004   1.888
 7079SOL    HW223135   2.560  11.116   1.793
 7080SOL     OW23136  12.424   5.886   4.577
 7080SOL    HW123137  12.379   5.951   4.630
 7080SOL    HW223138  12.357   5.823   4.553
 7081SOL     OW23139   1.411   5.865   7.136
 7081SOL    HW123140   1.367   5.845   7.218
 7081SOL    HW223141   1.439   5.956   7.145
 7082SOL     OW23142   1.781   6.726   0.348
 7082SOL    HW123143   1.692   6.737   0.382
 7082SOL    HW223144   1.797   6.805   0.295
 7083SOL     OW23145   5.104   5.952   9.256
 7083SOL    HW123146   5.198   5.948   9.275
 7083SOL    HW223147   5.062   5.958   9.341
 7084SOL     OW23148  13.802   5.945   8.321
 7084SOL    HW123149  13.770   5.911   8.237
 7084SOL    HW223150  13.780   6.038   8.319
 7085SOL     OW23151  10.014  13.514  13.668
 7085SOL    HW123152   9.920  13.524  13.650
 7085SOL    HW223153  10.041  13.442  13.612
 7086SOL     OW23154   5.418   9.468   6.694
 7086SOL    HW123155   5.411   9.559   6.663
 7086SOL    HW223156   5.387   9.415   6.620
 7087SOL     OW23157   1.504  13.842   6.396
 7087SOL    HW123158   1.409  13.833   6.401
 7087SOL    HW223159   1.538  13.772   6.452
 7088SOL     OW23160  12.867   2.539   7.117
 7088SOL    HW123161  12.816   2.500   7.189
 7088SOL    HW223162  12.803   2.588   7.066
 7089SOL     OW23163   0.390   4.791   4.576
 7089SOL    HW123164   0.461   4.831   4.626
 7089SOL    HW223165   0.406   4.819   4.486
 7090SOL     OW23166   3.726  11.072  10.460
 7090SOL    HW123167   3.672  11.148  10.481
 7090SOL    HW223168   3.693  11.042  10.375
 7091SOL     OW23169   9.978   9.698   7.819
 7091SOL    HW123170  10.056   9.642   7.821
 7091SOL    HW223171  10.006   9.779   7.862
 7092SOL     OW23172   1.308   3.416   8.646
 7092SOL    HW123173   1.269   3.367   8.573
 7092SOL    HW223174   1.371   3.355   8.684
 7093SOL     OW23175   8.534   4.326   3.115
 7093SOL    HW123176   8.575   4.302   3.031
 7093SOL    HW223177   8.445   4.351   3.092
 7094SOL     OW23178   0.217  10.332  10.716
 7094SOL    HW123179   0.213  10.238  10.735
 7094SOL    HW223180   0.128  10.354  10.689
 7095SOL     OW23181   8.957  12.335  12.851
 7095SOL    HW123182   8.903  12.413  12.857
 7095SOL    HW223183   9.047  12.367  12.862
 7096SOL     OW23184  14.811   3.444  12.196
 7096SOL    HW123185  14.772   3.419  12.279
 7096SOL    HW223186  14.777   3.532  12.180
 7097SOL     OW23187   2.981   3.687   0.968
 7097SOL    HW123188   2.927   3.637   1.029
 7097SOL    HW223189   3.002   3.767   1.015
 7098SOL     OW23190   0.504   0.684   5.699
 7098SOL    HW123191   0.586   0.718   5.664
 7098SOL    HW223192   0.504   0.591   5.676
 7099SOL     OW23193  13.165   2.141   6.621
 7099SOL    HW123194  13.194   2.175   6.536
 7099SOL    HW223195  13.075   2.171   6.629
 7100SOL     OW23196  13.088   2.283   4.016
 7100SOL    HW123197  13.096   2.374   3.985
 7100SOL    HW223198  13.138   2.281   4.097
 7101SOL     OW23199   5.307  10.954   4.856
 7101SOL    HW123200   5.307  10.914   4.769
 7101SOL    HW223201   5.263  10.889   4.911
 7102SOL     OW23202   6.155   0.788   3.795
 7102SOL    HW123203   6.148   0.861   3.734
 7102SOL    HW223204   6.162   0.829   3.881
 7103SOL     OW23205   0.294   2.857   4.895
 7103SOL    HW123206   0.239   2.809   4.833
 7103SOL    HW223207   0.244   2.857   4.977
 7104SOL     OW23208   0.664  11.505  14.242
 7104SOL    HW123209   0.684  11.518  14.334
 7104SOL    HW223210   0.690  11.415  14.224
 7105SOL     OW23211   1.786   1.435   2.548
 7105SOL    HW123212   1.711   1.481   2.510
 7105SOL    HW223213   1.836   1.403   2.473
 7106SOL     OW23214  13.490   6.078   6.345
 7106SOL    HW123215  13.563   6.040   6.394
 7106SOL    HW223216  13.463   6.154   6.396
 7107SOL     OW23217   9.333  10.825  14.486
 7107SOL    HW123218   9.353  10.914  14.513
 7107SOL    HW223219   9.396  10.807  14.416
 7108SOL     OW23220  10.065  13.560   5.141
 7108SOL    HW123221  10.153  13.595   5.152
 7108SOL    HW223222  10.034  13.543   5.230
 7109SOL     OW23223  11.963   2.239   3.273
 7109SOL    HW123224  12.004   2.303   3.332
 7109SOL    HW223225  12.025   2.166   3.270
 7110SOL     OW23226   9.477   3.515  11.474
 7110SOL    HW123227   9.482   3.421  11.490
 7110SOL    HW223228   9.453   3.552  11.560
 7111SOL     OW23229   9.199  13.628   2.708
 7111SOL    HW123230   9.253  13.660   2.635
 7111SOL    HW223231   9.216  13.534   2.712
 7112SOL     OW23232   9.175   7.850  14.790
 7112SOL    HW123233   9.089   7.883  14.816
 7112SOL    HW223234   9.222   7.836  14.872
 7113SOL     OW23235  10.254   9.648   9.399
 7113SOL    HW123236  10.185   9.593   9.362
 7113SOL    HW223237  10.211   9.732   9.418
 7114SOL     OW23238  13.050   9.069   6.621
 7114SOL    HW123239  13.033   9.117   6.702
 7114SOL    HW223240  12.992   8.993   6.626
 7115SOL     OW23241   7.726  13.123  14.804
 7115SOL    HW123242   7.661  13.180  14.763
 7115SOL    HW223243   7.723  13.147   0.025
 7116SOL     OW23244   1.851   4.263   1.346
 7116SOL    HW123245   1.875   4.205   1.273
 7116SOL    HW223246   1.755   4.267   1.342
 7117SOL     OW23247   0.424   4.451   4.413
 7117SOL    HW123248   0.503   4.434   4.464
 7117SOL    HW223249   0.366   4.498   4.473
 7118SOL     OW23250   0.315   6.978   8.521
 7118SOL    HW123251   0.298   7.029   8.600
 7118SOL    HW223252   0.248   6.910   8.522
 7119SOL     OW23253  12.911  13.246   2.389
 7119SOL    HW123254  12.828  13.224   2.431
 7119SOL    HW223255  12.942  13.163   2.353
 7120SOL     OW23256   9.418   6.638  14.065
 7120SOL    HW123257   9.487   6.602  14.121
 7120SOL    HW223258   9.338   6.598  14.098
 7121SOL     OW23259   8.871  11.973   8.833
 7121SOL    HW123260   8.892  12.033   8.905
 7121SOL    HW223261   8.776  11.960   8.840
 7122SOL     OW23262  10.028   4.246  12.030
 7122SOL    HW123263  10.112   4.277  11.997
 7122SOL    HW223264  10.050   4.196  12.109
 7123SOL     OW23265   9.117   1.387   8.742
 7123SOL    HW123266   9.189   1.365   8.802
 7123SOL    HW223267   9.054   1.433   8.797
 7124SOL     OW23268   2.843  11.454  12.980
 7124SOL    HW123269   2.790  11.532  12.964
 7124SOL    HW223270   2.925  11.488  13.017
 7125SOL     OW23271   9.976   1.174   9.184
 7125SOL    HW123272   9.901   1.233   9.186
 7125SOL    HW223273  10.046   1.225   9.145
 7126SOL     OW23274   7.845   3.742  13.414
 7126SOL    HW123275   7.847   3.738  13.318
 7126SOL    HW223276   7.918   3.799  13.437
 7127SOL     OW23277   6.272  13.105   4.435
 7127SOL    HW123278   6.340  13.151   4.485
 7127SOL    HW223279   6.249  13.030   4.489
 7128SOL     OW23280  14.535  11.617   1.186
 7128SOL    HW123281  14.622  11.657   1.191
 7128SOL    HW223282  14.553  11.525   1.166
 7129SOL     OW23283   4.979   5.413   6.267
 7129SOL    HW123284   4.978   5.508   6.254
 7129SOL    HW223285   5.067   5.394   6.299
 7130SOL     OW23286  11.360   8.002   0.929
 7130SOL    HW123287  11.301   8.019   1.002
 7130SOL    HW223288  11.439   8.053   0.948
 7131SOL     OW23289  10.428   2.982  11.800
 7131SOL    HW123290  10.513   2.963  11.759
 7131SOL    HW223291  10.400   2.898  11.836
 7132SOL     OW23292  14.011  11.832  10.817
 7132SOL    HW123293  13.973  11.913  10.781
 7132SOL    HW223294  14.102  11.855  10.836
 7133SOL     OW23295  12.733   5.157   6.194
 7133SOL    HW123296  12.727   5.137   6.288
 7133SOL    HW223297  12.677   5.234   6.183
 7134SOL     OW23298   7.826   4.269  11.514
 7134SOL    HW123299   7.861   4.349  11.474
 7134SOL    HW223300   7.798   4.296  11.601
 7135SOL     OW23301   7.203  14.021   4.550
 7135SOL    HW123302   7.113  13.997   4.527
 7135SOL    HW223303   7.227  13.959   4.619
 7136SOL     OW23304   3.896   9.693   3.227
 7136SOL    HW123305   3.964   9.640   3.184
 7136SOL    HW223306   3.913   9.681   3.321
 7137SOL     OW23307   9.411   3.237  11.561
 7137SOL    HW123308   9.369   3.260  11.644
 7137SOL    HW223309   9.494   3.198  11.585
 7138SOL     OW23310   3.800  14.366   9.544
 7138SOL    HW123311   3.844  14.436   9.592
 7138SOL    HW223312   3.746  14.321   9.609
 7139SOL     OW23313  14.394   3.331  12.034
 7139SOL    HW123314  14.443   3.325  12.115
 7139SOL    HW223315  14.323   3.392  12.053
 7140SOL     OW23316   5.521   9.811   1.841
 7140SOL    HW123317   5.547   9.891   1.796
 7140SOL    HW223318   5.602   9.778   1.880
 7141SOL     OW23319   2.296   0.338  12.452
 7141SOL    HW123320   2.351   0.411  12.479
 7141SOL    HW223321   2.227   0.378  12.399
 7142SOL     OW23322  13.101   5.612  13.584
 7142SOL    HW123323  13.195   5.603  13.595
 7142SOL    HW223324  13.073   5.532  13.539
 7143SOL     OW23325   5.422  11.223   4.941
 7143SOL    HW123326   5.354  11.287   4.920
 7143SOL    HW223327   5.395  11.144   4.894
 7144SOL     OW23328  12.481   0.162   3.610
 7144SOL    HW123329  12.503   0.206   3.692
 7144SOL    HW223330  12.565   0.140   3.570
 7145SOL     OW23331   3.406   5.644   2.882
 7145SOL    HW123332   3.429   5.608   2.968
 7145SOL    HW223333   3.489   5.678   2.848
 7146SOL     OW23334  11.360  11.957  10.711
 7146SOL    HW123335  11.352  11.886  10.774
 7146SOL    HW223336  11.300  11.933  10.640
 7147SOL     OW23337   8.400  14.413  10.270
 7147SOL    HW123338   8.316  14.409  10.315
 7147SOL    HW223339   8.378  14.401  10.177
 7148SOL     OW23340   1.240  11.727   2.418
 7148SOL    HW123341   1.291  11.808   2.415
 7148SOL    HW223342   1.305  11.657   2.421
 7149SOL     OW23343   6.275   7.700   9.464
 7149SOL    HW123344   6.266   7.795   9.454
 7149SOL    HW223345   6.354   7.689   9.516
 7150SOL     OW23346   6.738   0.925   1.703
 7150SOL    HW123347   6.767   0.952   1.790
 7150SOL    HW223348   6.643   0.934   1.706
 7151SOL     OW23349   8.816   1.148   9.081
 7151SOL    HW123350   8.867   1.071   9.108
 7151SOL    HW223351   8.882   1.216   9.065
 7152SOL     OW23352  14.712   1.042  11.468
 7152SOL    HW123353  14.793   0.998  11.494
 7152SOL    HW223354  14.698   1.107  11.537
 7153SOL     OW23355   3.998   5.574   0.971
 7153SOL    HW123356   4.011   5.645   1.034
 7153SOL    HW223357   3.926   5.523   1.008
 7154SOL     OW23358   9.091  12.449   0.754
 7154SOL    HW123359   9.096  12.476   0.662
 7154SOL    HW223360   9.069  12.356   0.751
 7155SOL     OW23361   7.463   8.043  12.569
 7155SOL    HW123362   7.548   8.063  12.529
 7155SOL    HW223363   7.464   8.089  12.653
 7156SOL     OW23364   4.370  12.683   2.946
 7156SOL    HW123365   4.337  12.637   3.023
 7156SOL    HW223366   4.415  12.616   2.895
 7157SOL     OW23367  11.487   0.439  10.792
 7157SOL    HW123368  11.420   0.474  10.733
 7157SOL    HW223369  11.492   0.346  10.771
 7158SOL     OW23370   8.604   5.774  12.357
 7158SOL    HW123371   8.566   5.791  12.443
 7158SOL    HW223372   8.655   5.693  12.369
 7159SOL     OW23373   9.837   3.855   3.905
 7159SOL    HW123374   9.830   3.929   3.966
 7159SOL    HW223375   9.750   3.817   3.903
 7160SOL     OW23376  14.755   7.577  11.216
 7160SOL    HW123377  14.820   7.618  11.159
 7160SOL    HW223378  14.783   7.598  11.304
 7161SOL     OW23379   6.913   8.680   2.011
 7161SOL    HW123380   6.939   8.697   1.920
 7161SOL    HW223381   6.903   8.585   2.015
 7162SOL     OW23382   0.636   9.340   5.319
 7162SOL    HW123383   0.577   9.320   5.246
 7162SOL    HW223384   0.721   9.358   5.278
 7163SOL     OW23385   2.654  13.338  11.110
 7163SOL    HW123386   2.587  13.346  11.042
 7163SOL    HW223387   2.720  13.403  11.087
 7164SOL     OW23388   9.754   1.447   5.297
 7164SOL    HW123389   9.732   1.445   5.204
 7164SOL    HW223390   9.678   1.409   5.341
 7165SOL     OW23391   2.990   4.624  13.699
 7165SOL    HW123392   3.067   4.580  13.663
 7165SOL    HW223393   2.929   4.629  13.626
 7166SOL     OW23394   7.446   9.215   5.311
 7166SOL    HW123395   7.413   9.299   5.282
 7166SOL    HW223396   7.515   9.193   5.249
 7167SOL     OW23397   7.591   9.410  13.571
 7167SOL    HW123398   7.612   9.318  13.584
 7167SOL    HW223399   7.502   9.419  13.606
 7168SOL     OW23400   9.577   9.208   2.516
 7168SOL    HW123401   9.648   9.146   2.499
 7168SOL    HW223402   9.576   9.265   2.439
 7169SOL     OW23403   6.248   1.617  14.236
 7169SOL    HW123404   6.279   1.536  14.196
 7169SOL    HW223405   6.325   1.673  14.240
 7170SOL     OW23406   5.684   4.566   3.910
 7170SOL    HW123407   5.762   4.608   3.946
 7170SOL    HW223408   5.712   4.476   3.893
 7171SOL     OW23409   3.816   7.787   6.724
 7171SOL    HW123410   3.837   7.698   6.696
 7171SOL    HW223411   3.728   7.781   6.761
 7172SOL     OW23412  10.951   7.601   5.764
 7172SOL    HW123413  10.911   7.660   5.828
 7172SOL    HW223414  11.022   7.652   5.726
 7173SOL     OW23415   6.063   7.138   3.374
 7173SOL    HW123416   5.973   7.154   3.345
 7173SOL    HW223417   6.054   7.115   3.467
 7174SOL     OW23418   3.731   7.157   7.417
 7174SOL    HW123419   3.742   7.068   7.383
 7174SOL    HW223420   3.792   7.210   7.367
 7175SOL     OW23421  14.554   7.427  10.391
 7175SOL    HW123422  14.565   7.343  10.434
 7175SOL    HW223423  14.467   7.457  10.418
 7176SOL     OW23424  13.329   1.782   8.256
 7176SOL    HW123425  13.251   1.787   8.311
 7176SOL    HW223426  13.356   1.690   8.261
 7177SOL     OW23427   4.586   6.121   5.247
 7177SOL    HW123428   4.531   6.070   5.306
 7177SOL    HW223429   4.557   6.096   5.160
 7178SOL     OW23430  12.812   7.835   5.498
 7178SOL    HW123431  12.810   7.773   5.425
 7178SOL    HW223432  12.720   7.845   5.523
 7179SOL     OW23433   6.220   0.829   6.615
 7179SOL    HW123434   6.162   0.753   6.627
 7179SOL    HW223435   6.169   0.889   6.561
 7180SOL     OW23436   1.539   1.463   1.520
 7180SOL    HW123437   1.496   1.548   1.530
 7180SOL    HW223438   1.514   1.414   1.599
 7181SOL     OW23439   2.273  12.518   5.142
 7181SOL    HW123440   2.255  12.497   5.050
 7181SOL    HW223441   2.239  12.607   5.153
 7182SOL     OW23442   0.251  10.306   8.669
 7182SOL    HW123443   0.239  10.376   8.733
 7182SOL    HW223444   0.189  10.239   8.694
 7183SOL     OW23445   5.964  14.665   1.874
 7183SOL    HW123446   6.035  14.729   1.882
 7183SOL    HW223447   5.947  14.661   1.780
 7184SOL     OW23448   6.067   4.804   2.334
 7184SOL    HW123449   6.134   4.737   2.349
 7184SOL    HW223450   6.041   4.793   2.243
 7185SOL     OW23451   9.586  10.102  11.031
 7185SOL    HW123452   9.601  10.008  11.033
 7185SOL    HW223453   9.525  10.115  10.959
 7186SOL     OW23454   2.221   3.618   4.390
 7186SOL    HW123455   2.200   3.673   4.465
 7186SOL    HW223456   2.136   3.602   4.348
 7187SOL     OW23457   6.733   3.775   3.522
 7187SOL    HW123458   6.797   3.847   3.521
 7187SOL    HW223459   6.705   3.768   3.431
 7188SOL     OW23460   0.278   6.288  12.475
 7188SOL    HW123461   0.219   6.362  12.489
 7188SOL    HW223462   0.296   6.254  12.563
 7189SOL     OW23463  12.440   4.974   1.617
 7189SOL    HW123464  12.525   4.999   1.581
 7189SOL    HW223465  12.421   5.040   1.683
 7190SOL     OW23466  10.624  10.111   2.059
 7190SOL    HW123467  10.627  10.096   2.154
 7190SOL    HW223468  10.569  10.041   2.025
 7191SOL     OW23469   7.551   3.503   5.702
 7191SOL    HW123470   7.486   3.459   5.647
 7191SOL    HW223471   7.635   3.478   5.664
 7192SOL     OW23472   1.505  12.151  13.125
 7192SOL    HW123473   1.543  12.064  13.139
 7192SOL    HW223474   1.415  12.133  13.098
 7193SOL     OW23475   1.764  11.242   3.921
 7193SOL    HW123476   1.759  11.200   4.007
 7193SOL    HW223477   1.712  11.322   3.930
 7194SOL     OW23478   5.203  12.053   2.130
 7194SOL    HW123479   5.194  11.967   2.169
 7194SOL    HW223480   5.115  12.091   2.136
 7195SOL     OW23481   0.226  10.927  13.247
 7195SOL    HW123482   0.298  10.896  13.193
 7195SOL    HW223483   0.147  10.903  13.198
 7196SOL     OW23484   4.035   8.236   2.090
 7196SOL    HW123485   4.067   8.166   2.033
 7196SOL    HW223486   4.025   8.195   2.175
 7197SOL     OW23487   2.315   5.035   1.426
 7197SOL    HW123488   2.299   5.049   1.519
 7197SOL    HW223489   2.232   5.002   1.392
 7198SOL     OW23490  13.441  10.926   8.609
 7198SOL    HW123491  13.440  10.889   8.697
 7198SOL    HW223492  13.393  10.862   8.556
 7199SOL     OW23493  14.659   3.707   3.440
 7199SOL    HW123494  14.668   3.689   3.534
 7199SOL    HW223495  14.688   3.627   3.397
 7200SOL     OW23496   8.149  11.620  12.077
 7200SOL    HW123497   8.193  11.573  12.006
 7200SOL    HW223498   8.129  11.553  12.142
 7201SOL     OW23499   5.507   9.514   6.961
 7201SOL    HW123500   5.475   9.541   6.875
 7201SOL    HW223501   5.602   9.528   6.958
 7202SOL     OW23502   6.111  11.539  12.496
 7202SOL    HW123503   6.148  11.619  12.535
 7202SOL    HW223504   6.057  11.571  12.424
 7203SOL     OW23505   3.269   6.474   9.297
 7203SOL    HW123506   3.250   6.534   9.225
 7203SOL    HW223507   3.185   6.431   9.315
 7204SOL     OW23508  12.595   8.727   5.722
 7204SOL    HW123509  12.675   8.724   5.669
 7204SOL    HW223510  12.605   8.655   5.785
 7205SOL     OW23511   0.166   3.413   2.305
 7205SOL    HW123512   0.116   3.473   2.250
 7205SOL    HW223513   0.168   3.455   2.391
 7206SOL     OW23514   4.419   1.609   9.549
 7206SOL    HW123515   4.337   1.623   9.503
 7206SOL    HW223516   4.423   1.679   9.614
 7207SOL     OW23517   5.798   0.366  11.467
 7207SOL    HW123518   5.789   0.291  11.526
 7207SOL    HW223519   5.708   0.399  11.457
 7208SOL     OW23520   6.662   7.713  12.881
 7208SOL    HW123521   6.717   7.696  12.804
 7208SOL    HW223522   6.639   7.805  12.874
 7209SOL     OW23523   2.200   1.660   1.301
 7209SOL    HW123524   2.137   1.614   1.355
 7209SOL    HW223525   2.268   1.596   1.282
 7210SOL     OW23526  11.678  10.523   9.154
 7210SOL    HW123527  11.588  10.495   9.171
 7210SOL    HW223528  11.669  10.614   9.127
 7211SOL     OW23529   5.395   9.586   3.592
 7211SOL    HW123530   5.411   9.499   3.627
 7211SOL    HW223531   5.443   9.645   3.650
 7212SOL     OW23532  10.801   0.811   3.241
 7212SOL    HW123533  10.709   0.798   3.264
 7212SOL    HW223534  10.813   0.905   3.244
 7213SOL     OW23535   7.390   4.791  11.775
 7213SOL    HW123536   7.377   4.751  11.689
 7213SOL    HW223537   7.407   4.884  11.755
 7214SOL     OW23538   2.621   5.896   8.944
 7214SOL    HW123539   2.590   5.920   8.856
 7214SOL    HW223540   2.647   5.804   8.936
 7215SOL     OW23541  11.924   9.022  13.995
 7215SOL    HW123542  11.850   9.078  14.019
 7215SOL    HW223543  11.994   9.048  14.055
 7216SOL     OW23544  12.003   5.140   6.821
 7216SOL    HW123545  11.917   5.166   6.790
 7216SOL    HW223546  12.053   5.222   6.824
 7217SOL     OW23547  13.056   5.690  10.218
 7217SOL    HW123548  13.025   5.741  10.292
 7217SOL    HW223549  13.051   5.599  10.247
 7218SOL     OW23550  12.171   6.669   8.872
 7218SOL    HW123551  12.175   6.598   8.936
 7218SOL    HW223552  12.191   6.627   8.788
 7219SOL     OW23553  14.821   4.287   8.171
 7219SOL    HW123554  14.775   4.288   8.255
 7219SOL    HW223555  14.758   4.249   8.110
 7220SOL     OW23556   7.608  12.320  11.112
 7220SOL    HW123557   7.679  12.359  11.162
 7220SOL    HW223558   7.536  12.313  11.174
 7221SOL     OW23559   8.698   0.314   3.378
 7221SOL    HW123560   8.744   0.289   3.458
 7221SOL    HW223561   8.700   0.236   3.323
 7222SOL     OW23562   1.310   8.435   9.853
 7222SOL    HW123563   1.312   8.529   9.832
 7222SOL    HW223564   1.387   8.399   9.810
 7223SOL     OW23565  13.588   5.789   9.838
 7223SOL    HW123566  13.535   5.815   9.913
 7223SOL    HW223567  13.647   5.863   9.823
 7224SOL     OW23568   4.714  11.725  14.186
 7224SOL    HW123569   4.774  11.668  14.233
 7224SOL    HW223570   4.764  11.754  14.109
 7225SOL     OW23571   6.775  13.353   3.616
 7225SOL    HW123572   6.790  13.259   3.627
 7225SOL    HW223573   6.701  13.372   3.673
 7226SOL     OW23574   4.824  13.128   5.727
 7226SOL    HW123575   4.900  13.186   5.725
 7226SOL    HW223576   4.851  13.050   5.678
 7227SOL     OW23577   7.754   1.652   9.200
 7227SOL    HW123578   7.670   1.685   9.232
 7227SOL    HW223579   7.731   1.581   9.140
 7228SOL     OW23580   4.590   3.238   4.071
 7228SOL    HW123581   4.520   3.182   4.104
 7228SOL    HW223582   4.544   3.310   4.027
 7229SOL     OW23583  14.297  12.060  11.670
 7229SOL    HW123584  14.277  11.986  11.727
 7229SOL    HW223585  14.220  12.068  11.614
 7230SOL     OW23586  11.174  11.194   9.986
 7230SOL    HW123587  11.116  11.150  10.048
 7230SOL    HW223588  11.246  11.132   9.973
 7231SOL     OW23589   9.583   6.477   8.862
 7231SOL    HW123590   9.554   6.447   8.948
 7231SOL    HW223591   9.608   6.568   8.875
 7232SOL     OW23592   1.183   3.934   3.439
 7232SOL    HW123593   1.096   3.900   3.420
 7232SOL    HW223594   1.199   3.998   3.370
 7233SOL     OW23595  11.457   5.850  13.899
 7233SOL    HW123596  11.510   5.897  13.964
 7233SOL    HW223597  11.521   5.821  13.833
 7234SOL     OW23598   9.160   4.804  12.393
 7234SOL    HW123599   9.077   4.764  12.365
 7234SOL    HW223600   9.223   4.779  12.325
 7235SOL     OW23601  14.370   3.477  11.072
 7235SOL    HW123602  14.405   3.553  11.118
 7235SOL    HW223603  14.431   3.462  11.000
 7236SOL     OW23604   9.916   5.230   0.148
 7236SOL    HW123605   9.995   5.225   0.095
 7236SOL    HW223606   9.863   5.298   0.107
 7237SOL     OW23607  13.306  12.713  12.899
 7237SOL    HW123608  13.318  12.802  12.868
 7237SOL    HW223609  13.394  12.678  12.906
 7238SOL     OW23610  12.133  14.375   9.876
 7238SOL    HW123611  12.224  14.346   9.872
 7238SOL    HW223612  12.131  14.454   9.822
 7239SOL     OW23613  10.363   9.942  10.325
 7239SOL    HW123614  10.428   9.919  10.258
 7239SOL    HW223615  10.412   9.995  10.388
 7240SOL     OW23616  12.882   4.792   3.554
 7240SOL    HW123617  12.895   4.876   3.597
 7240SOL    HW223618  12.877   4.729   3.626
 7241SOL     OW23619   0.423   3.885  12.328
 7241SOL    HW123620   0.482   3.942  12.278
 7241SOL    HW223621   0.436   3.799  12.289
 7242SOL     OW23622   2.091  13.038   9.835
 7242SOL    HW123623   2.092  13.134   9.836
 7242SOL    HW223624   2.061  13.014   9.923
 7243SOL     OW23625   8.292   7.095  12.518
 7243SOL    HW123626   8.239   7.016  12.530
 7243SOL    HW223627   8.360   7.069  12.456
 7244SOL     OW23628   5.045  12.863   2.577
 7244SOL    HW123629   5.090  12.846   2.494
 7244SOL    HW223630   5.049  12.958   2.588
 7245SOL     OW23631   0.901   4.353   7.378
 7245SOL    HW123632   0.970   4.412   7.408
 7245SOL    HW223633   0.828   4.370   7.436
 7246SOL     OW23634   2.713   9.036   4.310
 7246SOL    HW123635   2.772   9.037   4.235
 7246SOL    HW223636   2.729   8.951   4.351
 7247SOL     OW23637   8.726   1.939  13.951
 7247SOL    HW123638   8.655   1.914  14.010
 7247SOL    HW223639   8.769   2.012  13.994
 7248SOL     OW23640  14.753   6.088   2.178
 7248SOL    HW123641  14.789   6.145   2.246
 7248SOL    HW223642  14.825   6.031   2.154
 7249SOL     OW23643   8.682   8.384   8.419
 7249SOL    HW123644   8.638   8.467   8.433
 7249SOL    HW223645   8.720   8.362   8.503
 7250SOL     OW23646   3.700  14.534  13.600
 7250SOL    HW123647   3.728  14.460  13.655
 7250SOL    HW223648   3.758  14.605  13.626
 7251SOL     OW23649   1.447   2.852   3.880
 7251SOL    HW123650   1.426   2.858   3.973
 7251SOL    HW223651   1.539   2.879   3.875
 7252SOL     OW23652   9.715   8.375  11.670
 7252SOL    HW123653   9.651   8.444  11.689
 7252SOL    HW223654   9.662   8.299  11.648
 7253SOL     OW23655   5.324  11.290  14.208
 7253SOL    HW123656   5.314  11.269  14.301
 7253SOL    HW223657   5.338  11.385  14.207
 7254SOL     OW23658  10.835   8.927   8.310
 7254SOL    HW123659  10.787   9.009   8.300
 7254SOL    HW223660  10.852   8.920   8.403
 7255SOL     OW23661  13.315   7.864   3.449
 7255SOL    HW123662  13.321   7.796   3.517
 7255SOL    HW223663  13.405   7.879   3.421
 7256SOL     OW23664   2.577  12.026  11.875
 7256SOL    HW123665   2.615  12.100  11.828
 7256SOL    HW223666   2.511  11.991  11.815
 7257SOL     OW23667   4.071  11.028   4.687
 7257SOL    HW123668   4.044  10.955   4.631
 7257SOL    HW223669   4.011  11.099   4.665
 7258SOL     OW23670  14.459   8.051  12.615
 7258SOL    HW123671  14.381   7.997  12.624
 7258SOL    HW223672  14.472   8.058  12.520
 7259SOL     OW23673   9.156   3.608   7.546
 7259SOL    HW123674   9.214   3.580   7.617
 7259SOL    HW223675   9.185   3.697   7.525
 7260SOL     OW23676   4.977   4.528   4.119
 7260SOL    HW123677   4.960   4.618   4.148
 7260SOL    HW223678   5.033   4.538   4.042
 7261SOL     OW23679  14.785   5.664   7.386
 7261SOL    HW123680  14.777   5.673   7.291
 7261SOL    HW223681  14.870   5.622   7.399
 7262SOL     OW23682   7.728   9.924   3.707
 7262SOL    HW123683   7.677   9.872   3.646
 7262SOL    HW223684   7.671   9.998   3.729
 7263SOL     OW23685   4.846   7.795  14.288
 7263SOL    HW123686   4.787   7.740  14.236
 7263SOL    HW223687   4.786   7.848  14.342
 7264SOL     OW23688   3.915   9.380  12.200
 7264SOL    HW123689   3.825   9.354  12.180
 7264SOL    HW223690   3.968   9.316  12.154
 7265SOL     OW23691   1.895   0.347  10.829
 7265SOL    HW123692   1.823   0.308  10.780
 7265SOL    HW223693   1.884   0.442  10.817
 7266SOL     OW23694   7.284   4.734   8.836
 7266SOL    HW123695   7.343   4.673   8.791
 7266SOL    HW223696   7.268   4.694   8.921
 7267SOL     OW23697   2.890   5.862   2.495
 7267SOL    HW123698   2.862   5.909   2.573
 7267SOL    HW223699   2.953   5.920   2.453
 7268SOL     OW23700   8.075   1.434   5.367
 7268SOL    HW123701   8.010   1.366   5.351
 7268SOL    HW223702   8.156   1.387   5.387
 7269SOL     OW23703  12.729  12.435   8.327
 7269SOL    HW123704  12.662  12.376   8.293
 7269SOL    HW223705  12.798  12.436   8.261
 7270SOL     OW23706   2.083  14.594   9.476
 7270SOL    HW123707   2.092  14.499   9.482
 7270SOL    HW223708   2.025  14.618   9.548
 7271SOL     OW23709   0.685   8.781   0.976
 7271SOL    HW123710   0.706   8.784   1.070
 7271SOL    HW223711   0.764   8.813   0.933
 7272SOL     OW23712   6.792   8.229   9.409
 7272SOL    HW123713   6.796   8.276   9.325
 7272SOL    HW223714   6.761   8.142   9.387
 7273SOL     OW23715  12.047  12.081   4.583
 7273SOL    HW123716  11.990  12.141   4.534
 7273SOL    HW223717  12.062  12.009   4.522
 7274SOL     OW23718   3.006  10.228   5.248
 7274SOL    HW123719   2.946  10.291   5.287
 7274SOL    HW223720   3.086  10.278   5.230
 7275SOL     OW23721  10.859   2.175  10.868
 7275SOL    HW123722  10.814   2.095  10.897
 7275SOL    HW223723  10.951   2.151  10.865
 7276SOL     OW23724  11.750   8.272   1.715
 7276SOL    HW123725  11.723   8.314   1.634
 7276SOL    HW223726  11.818   8.329   1.751
 7277SOL     OW23727   5.791   0.460   8.073
 7277SOL    HW123728   5.822   0.480   8.161
 7277SOL    HW223729   5.871   0.456   8.020
 7278SOL     OW23730   8.112  12.500   3.084
 7278SOL    HW123731   8.102  12.507   3.179
 7278SOL    HW223732   8.152  12.414   3.070
 7279SOL     OW23733  13.829   6.432  12.567
 7279SOL    HW123734  13.798   6.516  12.603
 7279SOL    HW223735  13.872   6.389  12.640
 7280SOL     OW23736   4.722   6.615  14.170
 7280SOL    HW123737   4.686   6.546  14.115
 7280SOL    HW223738   4.658   6.686  14.166
 7281SOL     OW23739  10.518   3.432   5.117
 7281SOL    HW123740  10.485   3.344   5.133
 7281SOL    HW223741  10.532   3.436   5.023
 7282SOL     OW23742   3.453   9.563  12.563
 7282SOL    HW123743   3.377   9.534  12.613
 7282SOL    HW223744   3.417   9.619  12.495
 7283SOL     OW23745   7.847  11.969   3.216
 7283SOL    HW123746   7.779  12.031   3.242
 7283SOL    HW223747   7.800  11.897   3.176
 7284SOL     OW23748   6.752   8.396   9.164
 7284SOL    HW123749   6.673   8.344   9.150
 7284SOL    HW223750   6.722   8.471   9.217
 7285SOL     OW23751   0.182  13.551   2.771
 7285SOL    HW123752   0.090  13.545   2.745
 7285SOL    HW223753   0.208  13.640   2.748
 7286SOL     OW23754  10.312  14.813  13.460
 7286SOL    HW123755  10.254   0.008  13.495
 7286SOL    HW223756  10.288  14.806  13.368
 7287SOL     OW23757   6.131   0.479  13.655
 7287SOL    HW123758   6.111   0.573  13.659
 7287SOL    HW223759   6.086   0.441  13.730
 7288SOL     OW23760   7.467   7.751   8.351
 7288SOL    HW123761   7.472   7.791   8.264
 7288SOL    HW223762   7.374   7.757   8.375
 7289SOL     OW23763   8.427   0.404   3.374
 7289SOL    HW123764   8.519   0.386   3.358
 7289SOL    HW223765   8.396   0.329   3.424
 7290SOL     OW23766  10.579   8.899   5.124
 7290SOL    HW123767  10.579   8.910   5.029
 7290SOL    HW223768  10.672   8.902   5.148
 7291SOL     OW23769  12.420   6.129  10.996
 7291SOL    HW123770  12.351   6.064  11.006
 7291SOL    HW223771  12.467   6.128  11.079
 7292SOL     OW23772  10.694  10.230   8.050
 7292SOL    HW123773  10.751  10.238   7.973
 7292SOL    HW223774  10.748  10.258   8.123
 7293SOL     OW23775  13.850   8.207  11.203
 7293SOL    HW123776  13.865   8.297  11.230
 7293SOL    HW223777  13.759   8.206  11.172
 7294SOL     OW23778   0.969   1.364  11.701
 7294SOL    HW123779   1.063   1.372  11.691
 7294SOL    HW223780   0.956   1.329  11.789
 7295SOL     OW23781  14.832   4.080   6.682
 7295SOL    HW123782  14.780   4.158   6.701
 7295SOL    HW223783   0.007   4.101   6.602
 7296SOL     OW23784  10.819  12.190   9.062
 7296SOL    HW123785  10.740  12.189   9.008
 7296SOL    HW223786  10.798  12.132   9.136
 7297SOL     OW23787   2.560  13.061  10.191
 7297SOL    HW123788   2.466  13.078  10.179
 7297SOL    HW223789   2.583  13.005  10.117
 7298SOL     OW23790   8.530  12.468  13.019
 7298SOL    HW123791   8.600  12.419  13.062
 7298SOL    HW223792   8.551  12.560  13.035
 7299SOL     OW23793  14.393   4.016  13.340
 7299SOL    HW123794  14.450   4.093  13.337
 7299SOL    HW223795  14.432   3.955  13.277
 7300SOL     OW23796  13.563  12.536   9.364
 7300SOL    HW123797  13.577  12.445   9.388
 7300SOL    HW223798  13.512  12.532   9.283
 7301SOL     OW23799  14.466  10.209  13.856
 7301SOL    HW123800  14.544  10.215  13.911
 7301SOL    HW223801  14.491  10.249  13.773
 7302SOL     OW23802   3.444  14.767  14.803
 7302SOL    HW123803   3.369  14.787  14.746
 7302SOL    HW223804   3.477  14.852  14.830
 7303SOL     OW23805  13.633  13.487   7.903
 7303SOL    HW123806  13.698  13.460   7.837
 7303SOL    HW223807  13.684  13.497   7.983
 7304SOL     OW23808   0.623   6.872   9.692
 7304SOL    HW123809   0.561   6.880   9.620
 7304SOL    HW223810   0.671   6.954   9.692
 7305SOL     OW23811   8.319   8.632  11.998
 7305SOL    HW123812   8.337   8.726  11.991
 7305SOL    HW223813   8.351   8.609  12.085
 7306SOL     OW23814   8.190  13.590   9.557
 7306SOL    HW123815   8.123  13.630   9.502
 7306SOL    HW223816   8.167  13.497   9.561
 7307SOL     OW23817   6.015  13.018   5.342
 7307SOL    HW123818   6.085  12.989   5.400
 7307SOL    HW223819   6.041  12.987   5.255
 7308SOL     OW23820  12.212   5.511   9.530
 7308SOL    HW123821  12.305   5.529   9.516
 7308SOL    HW223822  12.193   5.548   9.616
 7309SOL     OW23823  13.194   2.723   2.982
 7309SOL    HW123824  13.227   2.780   2.913
 7309SOL    HW223825  13.273   2.680   3.018
 7310SOL     OW23826  11.706   6.780   9.369
 7310SOL    HW123827  11.726   6.857   9.421
 7310SOL    HW223828  11.649   6.727   9.425
 7311SOL     OW23829   6.340  12.800   2.063
 7311SOL    HW123830   6.350  12.735   1.993
 7311SOL    HW223831   6.279  12.864   2.027
 7312SOL     OW23832   6.503  10.743   1.178
 7312SOL    HW123833   6.590  10.730   1.216
 7312SOL    HW223834   6.521  10.758   1.085
 7313SOL     OW23835   9.748  13.356  13.937
 7313SOL    HW123836   9.783  13.293  13.875
 7313SOL    HW223837   9.768  13.442  13.899
 7314SOL     OW23838  10.032   9.119  12.032
 7314SOL    HW123839   9.965   9.158  12.088
 7314SOL    HW223840   9.982   9.072  11.964
 7315SOL     OW23841  13.442  10.389  12.862
 7315SOL    HW123842  13.367  10.449  12.866
 7315SOL    HW223843  13.499  10.416  12.934
 7316SOL     OW23844  12.973  10.432   0.445
 7316SOL    HW123845  13.056  10.436   0.493
 7316SOL    HW223846  12.970  10.344   0.409
 7317SOL     OW23847   6.287  14.790   6.129
 7317SOL    HW123848   6.218  14.825   6.072
 7317SOL    HW223849   6.326  14.719   6.078
 7318SOL     OW23850   9.491  13.653  12.443
 7318SOL    HW123851   9.527  13.695  12.521
 7318SOL    HW223852   9.567  13.642  12.385
 7319SOL     OW23853  11.797  10.090  14.818
 7319SOL    HW123854  11.737  10.065   0.016
 7319SOL    HW223855  11.828  10.177  14.842
 7320SOL     OW23856   7.342   4.072   2.681
 7320SOL    HW123857   7.419   4.072   2.624
 7320SOL    HW223858   7.343   4.157   2.724
 7321SOL     OW23859   5.449   5.967  12.980
 7321SOL    HW123860   5.495   5.956  13.063
 7321SOL    HW223861   5.384   6.035  12.998
 7322SOL     OW23862   3.491  13.610   9.034
 7322SOL    HW123863   3.506  13.679   8.969
 7322SOL    HW223864   3.528  13.531   8.995
 7323SOL     OW23865   8.070   2.573   1.581
 7323SOL    HW123866   8.016   2.503   1.619
 7323SOL    HW223867   8.081   2.635   1.653
 7324SOL     OW23868   6.318  14.411  14.020
 7324SOL    HW123869   6.345  14.478  14.084
 7324SOL    HW223870   6.240  14.448  13.979
 7325SOL     OW23871   5.701   0.308   2.700
 7325SOL    HW123872   5.723   0.283   2.790
 7325SOL    HW223873   5.749   0.389   2.685
 7326SOL     OW23874  12.557  11.345  12.089
 7326SOL    HW123875  12.483  11.397  12.121
 7326SOL    HW223876  12.606  11.404  12.033
 7327SOL     OW23877  10.766   9.125  12.142
 7327SOL    HW123878  10.785   9.123  12.048
 7327SOL    HW223879  10.685   9.075  12.151
 7328SOL     OW23880   3.682  11.252   4.786
 7328SOL    HW123881   3.661  11.314   4.717
 7328SOL    HW223882   3.639  11.286   4.864
 7329SOL     OW23883   6.380  13.833   8.866
 7329SOL    HW123884   6.462  13.859   8.909
 7329SOL    HW223885   6.350  13.757   8.915
 7330SOL     OW23886   9.228   8.089   3.539
 7330SOL    HW123887   9.286   8.101   3.614
 7330SOL    HW223888   9.140   8.103   3.574
 7331SOL     OW23889   3.649   1.534   2.163
 7331SOL    HW123890   3.597   1.454   2.167
 7331SOL    HW223891   3.709   1.528   2.238
 7332SOL     OW23892   0.978  13.342   6.924
 7332SOL    HW123893   1.038  13.284   6.971
 7332SOL    HW223894   0.891  13.314   6.952
 7333SOL     OW23895   0.825  13.946   2.839
 7333SOL    HW123896   0.817  13.984   2.751
 7333SOL    HW223897   0.909  13.899   2.837
 7334SOL     OW23898   9.642   5.320  13.035
 7334SOL    HW123899   9.644   5.366  13.119
 7334SOL    HW223900   9.600   5.381  12.974
 7335SOL     OW23901   0.934  13.328   8.107
 7335SOL    HW123902   0.982  13.260   8.061
 7335SOL    HW223903   0.936  13.404   8.048
 7336SOL     OW23904   9.354  11.345   4.255
 7336SOL    HW123905   9.425  11.405   4.277
 7336SOL    HW223906   9.380  11.261   4.293
 7337SOL     OW23907   8.624   1.489  11.587
 7337SOL    HW123908   8.665   1.413  11.627
 7337SOL    HW223909   8.642   1.561  11.647
 7338SOL     OW23910   5.841   3.357  12.003
 7338SOL    HW123911   5.879   3.356  11.915
 7338SOL    HW223912   5.836   3.450  12.025
 7339SOL     OW23913  14.373   1.948   2.802
 7339SOL    HW123914  14.323   1.924   2.724
 7339SOL    HW223915  14.348   2.038   2.821
 7340SOL     OW23916   0.721   6.700  12.832
 7340SOL    HW123917   0.683   6.728  12.748
 7340SOL    HW223918   0.648   6.658  12.878
 7341SOL     OW23919   7.543  11.106  12.746
 7341SOL    HW123920   7.620  11.071  12.701
 7341SOL    HW223921   7.512  11.034  12.801
 7342SOL     OW23922   7.918   0.372  10.348
 7342SOL    HW123923   7.899   0.462  10.372
 7342SOL    HW223924   7.900   0.367  10.255
 7343SOL     OW23925   3.828  11.325   9.752
 7343SOL    HW123926   3.859  11.249   9.704
 7343SOL    HW223927   3.763  11.365   9.695
 7344SOL     OW23928   2.826   8.041  10.993
 7344SOL    HW123929   2.800   7.974  11.055
 7344SOL    HW223930   2.793   8.011  10.908
 7345SOL     OW23931   9.137  12.016  13.417
 7345SOL    HW123932   9.114  11.929  13.385
 7345SOL    HW223933   9.056  12.066  13.413
 7346SOL     OW23934  10.333   0.569  10.319
 7346SOL    HW123935  10.294   0.482  10.317
 7346SOL    HW223936  10.335   0.597  10.228
 7347SOL     OW23937  14.109   8.244   9.328
 7347SOL    HW123938  14.121   8.316   9.267
 7347SOL    HW223939  14.022   8.259   9.366
 7348SOL     OW23940   4.143  11.478   4.607
 7348SOL    HW123941   4.223  11.441   4.645
 7348SOL    HW223942   4.072  11.437   4.656
 7349SOL     OW23943   1.608  11.303  14.567
 7349SOL    HW123944   1.694  11.268  14.541
 7349SOL    HW223945   1.592  11.265  14.653
 7350SOL     OW23946  10.272  12.990  14.610
 7350SOL    HW123947  10.251  13.010  14.701
 7350SOL    HW223948  10.277  13.075  14.567
 7351SOL     OW23949  11.467   2.793   5.572
 7351SOL    HW123950  11.501   2.882   5.584
 7351SOL    HW223951  11.509   2.762   5.492
 7352SOL     OW23952   4.965   3.888   9.497
 7352SOL    HW123953   4.898   3.842   9.547
 7352SOL    HW223954   4.919   3.964   9.461
 7353SOL     OW23955   7.375   9.009   3.596
 7353SOL    HW123956   7.354   8.922   3.560
 7353SOL    HW223957   7.361   8.999   3.691
 7354SOL     OW23958   0.843   9.338   2.273
 7354SOL    HW123959   0.764   9.294   2.240
 7354SOL    HW223960   0.910   9.271   2.269
 7355SOL     OW23961   1.559   5.679  10.175
 7355SOL    HW123962   1.594   5.590  10.186
 7355SOL    HW223963   1.624   5.724  10.122
 7356SOL     OW23964   7.232   8.654   0.347
 7356SOL    HW123965   7.328   8.661   0.344
 7356SOL    HW223966   7.213   8.575   0.297
 7357SOL     OW23967   9.224  10.039   3.981
 7357SOL    HW123968   9.289  10.087   3.929
 7357SOL    HW223969   9.168  10.107   4.017
 7358SOL     OW23970   8.892   5.230   1.199
 7358SOL    HW123971   8.984   5.252   1.210
 7358SOL    HW223972   8.856   5.233   1.288
 7359SOL     OW23973   1.984  10.113   4.338
 7359SOL    HW123974   2.024  10.135   4.422
 7359SOL    HW223975   1.928  10.037   4.358
 7360SOL     OW23976   8.709   3.266   9.206
 7360SOL    HW123977   8.712   3.340   9.268
 7360SOL    HW223978   8.617   3.241   9.203
 7361SOL     OW23979  12.793  13.379   6.340
 7361SOL    HW123980  12.783  13.347   6.250
 7361SOL    HW223981  12.718  13.342   6.386
 7362SOL     OW23982  14.084   5.011   7.651
 7362SOL    HW123983  14.052   5.048   7.569
 7362SOL    HW223984  14.038   5.060   7.719
 7363SOL     OW23985   3.128   6.339  13.085
 7363SOL    HW123986   3.078   6.322  13.004
 7363SOL    HW223987   3.120   6.433  13.099
 7364SOL     OW23988   1.104  10.307  13.579
 7364SOL    HW123989   1.071  10.334  13.493
 7364SOL    HW223990   1.142  10.221  13.564
 7365SOL     OW23991  14.711  11.193  14.378
 7365SOL    HW123992  14.707  11.242  14.296
 7365SOL    HW223993  14.631  11.140  14.379
 7366SOL     OW23994   4.246   4.368   0.388
 7366SOL    HW123995   4.156   4.382   0.419
 7366SOL    HW223996   4.241   4.289   0.335
 7367SOL     OW23997   8.151  13.186   0.055
 7367SOL    HW123998   8.099  13.119   0.011
 7367SOL    HW223999   8.128  13.177   0.148
 7368SOL     OW24000  14.717  13.629   9.592
 7368SOL    HW124001  14.809  13.621   9.567
 7368SOL    HW224002  14.670  13.633   9.509
 7369SOL     OW24003  11.148   6.025   9.226
 7369SOL    HW124004  11.228   6.070   9.197
 7369SOL    HW224005  11.089   6.096   9.250
 7370SOL     OW24006   1.366  13.616   4.706
 7370SOL    HW124007   1.378  13.675   4.780
 7370SOL    HW224008   1.278  13.634   4.674
 7371SOL     OW24009  11.431   1.536  14.760
 7371SOL    HW124010  11.474   1.573  14.683
 7371SOL    HW224011  11.348   1.584  14.766
 7372SOL     OW24012  12.233   1.402   7.168
 7372SOL    HW124013  12.166   1.409   7.236
 7372SOL    HW224014  12.196   1.449   7.093
 7373SOL     OW24015   6.766   2.115   2.197
 7373SOL    HW124016   6.815   2.046   2.153
 7373SOL    HW224017   6.831   2.182   2.218
 7374SOL     OW24018  13.414   7.466   5.793
 7374SOL    HW124019  13.360   7.421   5.859
 7374SOL    HW224020  13.379   7.555   5.791
 7375SOL     OW24021  11.127  13.656   3.535
 7375SOL    HW124022  11.194  13.723   3.522
 7375SOL    HW224023  11.144  13.622   3.623
 7376SOL     OW24024   9.658   7.915   3.214
 7376SOL    HW124025   9.627   7.924   3.304
 7376SOL    HW224026   9.688   8.002   3.189
 7377SOL     OW24027  13.339   3.057   8.442
 7377SOL    HW124028  13.376   2.985   8.390
 7377SOL    HW224029  13.397   3.131   8.426
 7378SOL     OW24030  10.648   7.083   3.664
 7378SOL    HW124031  10.574   7.047   3.713
 7378SOL    HW224032  10.708   7.009   3.654
 7379SOL     OW24033   9.882   5.352  14.070
 7379SOL    HW124034   9.932   5.289  14.123
 7379SOL    HW224035   9.861   5.304  13.990
 7380SOL     OW24036   9.046   8.742  12.801
 7380SOL    HW124037   9.114   8.717  12.738
 7380SOL    HW224038   9.008   8.823  12.766
 7381SOL     OW24039   7.537   2.158   3.226
 7381SOL    HW124040   7.596   2.084   3.211
 7381SOL    HW224041   7.463   2.142   3.167
 7382SOL     OW24042   0.073  14.788   8.107
 7382SOL    HW124043  14.860  14.769   8.066
 7382SOL    HW224044   0.061  14.766   8.199
 7383SOL     OW24045   8.395  13.891   1.951
 7383SOL    HW124046   8.386  13.978   1.911
 7383SOL    HW224047   8.336  13.835   1.901
 7384SOL     OW24048   9.896   1.139   1.056
 7384SOL    HW124049   9.915   1.226   1.090
 7384SOL    HW224050   9.903   1.081   1.132
 7385SOL     OW24051  12.582  11.393   3.045
 7385SOL    HW124052  12.623  11.341   2.977
 7385SOL    HW224053  12.489  11.369   3.041
 7386SOL     OW24054   2.158  13.000   4.396
 7386SOL    HW124055   2.136  13.083   4.354
 7386SOL    HW224056   2.109  12.935   4.346
 7387SOL     OW24057   8.404   4.395   7.450
 7387SOL    HW124058   8.442   4.408   7.537
 7387SOL    HW224059   8.393   4.483   7.415
 7388SOL     OW24060   2.038  11.894   3.734
 7388SOL    HW124061   2.057  11.988   3.727
 7388SOL    HW224062   1.984  11.875   3.657
 7389SOL     OW24063   1.534   0.810   1.624
 7389SOL    HW124064   1.508   0.867   1.696
 7389SOL    HW224065   1.479   0.732   1.633
 7390SOL     OW24066   9.371   0.880   5.228
 7390SOL    HW124067   9.344   0.796   5.266
 7390SOL    HW224068   9.427   0.919   5.295
 7391SOL     OW24069   5.866   3.427  10.732
 7391SOL    HW124070   5.867   3.474  10.815
 7391SOL    HW224071   5.775   3.399  10.722
 7392SOL     OW24072   8.285  10.979  10.589
 7392SOL    HW124073   8.342  10.936  10.525
 7392SOL    HW224074   8.317  10.948  10.674
 7393SOL     OW24075   8.594   1.714   8.611
 7393SOL    HW124076   8.547   1.675   8.685
 7393SOL    HW224077   8.648   1.642   8.577
 7394SOL     OW24078   6.499   3.339   2.270
 7394SOL    HW124079   6.511   3.433   2.257
 7394SOL    HW224080   6.448   3.311   2.194
 7395SOL     OW24081   2.072  13.551   4.728
 7395SOL    HW124082   2.150  13.538   4.675
 7395SOL    HW224083   2.099  13.614   4.795
 7396SOL     OW24084   6.887   1.646   8.481
 7396SOL    HW124085   6.965   1.695   8.455
 7396SOL    HW224086   6.814   1.693   8.441
 7397SOL     OW24087  10.065   3.307  11.962
 7397SOL    HW124088  10.101   3.314  12.051
 7397SOL    HW224089   9.978   3.347  11.968
 7398SOL     OW24090   5.617   7.777   1.278
 7398SOL    HW124091   5.656   7.710   1.334
 7398SOL    HW224092   5.616   7.856   1.333
 7399SOL     OW24093   0.810  10.997  11.697
 7399SOL    HW124094   0.718  10.980  11.718
 7399SOL    HW224095   0.858  10.970  11.776
 7400SOL     OW24096  10.817   9.270   8.065
 7400SOL    HW124097  10.897   9.316   8.038
 7400SOL    HW224098  10.769   9.335   8.117
 7401SOL     OW24099  11.657   4.162   7.143
 7401SOL    HW124100  11.732   4.179   7.201
 7401SOL    HW224101  11.580   4.185   7.195
 7402SOL     OW24102  11.511   3.227   2.660
 7402SOL    HW124103  11.495   3.133   2.658
 7402SOL    HW224104  11.562   3.241   2.740
 7403SOL     OW24105  12.586  12.438   4.057
 7403SOL    HW124106  12.668  12.388   4.054
 7403SOL    HW224107  12.522  12.376   4.093
 7404SOL     OW24108   2.568   1.801   1.712
 7404SOL    HW124109   2.506   1.773   1.780
 7404SOL    HW224110   2.618   1.872   1.753
 7405SOL     OW24111  11.464   0.013  13.974
 7405SOL    HW124112  11.495   0.084  14.031
 7405SOL    HW224113  11.444  14.813  14.033
 7406SOL     OW24114   9.171   6.008  14.030
 7406SOL    HW124115   9.115   6.078  13.994
 7406SOL    HW224116   9.134   5.991  14.117
 7407SOL     OW24117   4.462   1.550   8.826
 7407SOL    HW124118   4.530   1.617   8.832
 7407SOL    HW224119   4.380   1.599   8.825
 7408SOL     OW24120   8.920   6.816   8.766
 7408SOL    HW124121   8.859   6.749   8.797
 7408SOL    HW224122   9.007   6.775   8.774
 7409SOL     OW24123   3.190  12.917  11.972
 7409SOL    HW124124   3.098  12.944  11.962
 7409SOL    HW224125   3.240  12.983  11.924
 7410SOL     OW24126  13.218   2.401   9.514
 7410SOL    HW124127  13.131   2.362   9.515
 7410SOL    HW224128  13.235   2.419   9.422
 7411SOL     OW24129   8.917   9.479  10.516
 7411SOL    HW124130   8.936   9.535  10.592
 7411SOL    HW224131   9.003   9.458  10.480
 7412SOL     OW24132   0.062   4.694   2.387
 7412SOL    HW124133  14.866   4.679   2.452
 7412SOL    HW224134   0.067   4.789   2.379
 7413SOL     OW24135   2.703  14.627   3.626
 7413SOL    HW124136   2.672  14.587   3.707
 7413SOL    HW224137   2.623  14.662   3.586
 7414SOL     OW24138  13.710   3.625  14.722
 7414SOL    HW124139  13.728   3.543  14.768
 7414SOL    HW224140  13.793   3.673  14.727
 7415SOL     OW24141   2.540  13.845   4.439
 7415SOL    HW124142   2.463  13.861   4.384
 7415SOL    HW224143   2.559  13.752   4.428
 7416SOL     OW24144  11.638  10.539   8.746
 7416SOL    HW124145  11.564  10.549   8.806
 7416SOL    HW224146  11.678  10.456   8.771
 7417SOL     OW24147   2.502  12.821   0.796
 7417SOL    HW124148   2.528  12.832   0.705
 7417SOL    HW224149   2.566  12.873   0.846
 7418SOL     OW24150   2.986   7.750   7.629
 7418SOL    HW124151   2.971   7.753   7.534
 7418SOL    HW224152   2.959   7.661   7.654
 7419SOL     OW24153   3.466   4.851   4.112
 7419SOL    HW124154   3.534   4.917   4.124
 7419SOL    HW224155   3.461   4.840   4.017
 7420SOL     OW24156  12.221  13.227   3.249
 7420SOL    HW124157  12.134  13.266   3.256
 7420SOL    HW224158  12.258  13.236   3.337
 7421SOL     OW24159   9.957   3.267   9.569
 7421SOL    HW124160  10.015   3.257   9.644
 7421SOL    HW224161   9.884   3.208   9.586
 7422SOL     OW24162   0.887  12.603   9.857
 7422SOL    HW124163   0.964  12.579   9.805
 7422SOL    HW224164   0.853  12.520   9.889
 7423SOL     OW24165  13.851  12.205   2.460
 7423SOL    HW124166  13.939  12.231   2.432
 7423SOL    HW224167  13.865  12.139   2.527
 7424SOL     OW24168   1.023   7.586   5.111
 7424SOL    HW124169   0.973   7.515   5.071
 7424SOL    HW224170   0.960   7.656   5.123
 7425SOL     OW24171   0.002   7.533  12.234
 7425SOL    HW124172  14.799   7.538  12.292
 7425SOL    HW224173   0.078   7.537  12.292
 7426SOL     OW24174  10.064  11.358   7.911
 7426SOL    HW124175  10.106  11.408   7.981
 7426SOL    HW224176  10.002  11.420   7.872
 7427SOL     OW24177   8.319  14.253  13.242
 7427SOL    HW124178   8.411  14.245  13.218
 7427SOL    HW224179   8.275  14.182  13.195
 7428SOL     OW24180   7.628   1.517  13.279
 7428SOL    HW124181   7.616   1.441  13.221
 7428SOL    HW224182   7.636   1.591  13.220
 7429SOL     OW24183  14.806  13.733   6.414
 7429SOL    HW124184  14.736  13.671   6.434
 7429SOL    HW224185  14.872  13.681   6.369
 7430SOL     OW24186   7.481  13.131   0.587
 7430SOL    HW124187   7.495  13.207   0.644
 7430SOL    HW224188   7.411  13.081   0.629
 7431SOL     OW24189   2.619   5.488   3.618
 7431SOL    HW124190   2.682   5.473   3.549
 7431SOL    HW224191   2.668   5.474   3.699
 7432SOL     OW24192   9.953  11.393   0.365
 7432SOL    HW124193  10.024  11.450   0.336
 7432SOL    HW224194   9.884  11.404   0.299
 7433SOL     OW24195   6.125  11.410   6.474
 7433SOL    HW124196   6.033  11.438   6.469
 7433SOL    HW224197   6.126  11.326   6.428
 7434SOL     OW24198   4.953   8.605  12.174
 7434SOL    HW124199   4.908   8.631  12.094
 7434SOL    HW224200   4.958   8.510  12.169
 7435SOL     OW24201  13.434  13.293  13.277
 7435SOL    HW124202  13.368  13.245  13.327
 7435SOL    HW224203  13.489  13.334  13.345
 7436SOL     OW24204  14.536   0.998  10.230
 7436SOL    HW124205  14.543   1.069  10.295
 7436SOL    HW224206  14.608   0.939  10.251
 7437SOL     OW24207   6.264  12.356   3.640
 7437SOL    HW124208   6.333  12.397   3.588
 7437SOL    HW224209   6.184  12.368   3.588
 7438SOL     OW24210  13.895   2.136   7.783
 7438SOL    HW124211  13.946   2.057   7.769
 7438SOL    HW224212  13.826   2.110   7.844
 7439SOL     OW24213  10.355  14.509   1.683
 7439SOL    HW124214  10.308  14.575   1.632
 7439SOL    HW224215  10.320  14.426   1.651
 7440SOL     OW24216  11.266   0.045  11.373
 7440SOL    HW124217  11.347   0.031  11.422
 7440SOL    HW224218  11.201   0.068  11.439
 7441SOL     OW24219   1.751   1.613   4.838
 7441SOL    HW124220   1.789   1.679   4.781
 7441SOL    HW224221   1.684   1.659   4.887
 7442SOL     OW24222   0.005  10.445  12.170
 7442SOL    HW124223  14.789  10.408  12.164
 7442SOL    HW224224   0.042  10.433  12.083
 7443SOL     OW24225   9.992   7.318   1.375
 7443SOL    HW124226  10.006   7.395   1.430
 7443SOL    HW224227   9.910   7.280   1.406
 7444SOL     OW24228  10.777   9.867  12.966
 7444SOL    HW124229  10.826   9.904  12.892
 7444SOL    HW224230  10.687   9.894  12.951
 7445SOL     OW24231   2.813   6.299   1.955
 7445SOL    HW124232   2.824   6.224   1.897
 7445SOL    HW224233   2.802   6.374   1.896
 7446SOL     OW24234   6.226   1.599   4.911
 7446SOL    HW124235   6.167   1.577   4.983
 7446SOL    HW224236   6.302   1.543   4.924
 7447SOL     OW24237  12.314   7.078   0.057
 7447SOL    HW124238  12.327   6.990   0.023
 7447SOL    HW224239  12.266   7.066   0.138
 7448SOL     OW24240   3.975   3.666   7.094
 7448SOL    HW124241   3.984   3.571   7.085
 7448SOL    HW224242   4.051   3.701   7.047
 7449SOL     OW24243   1.654   6.711   3.766
 7449SOL    HW124244   1.722   6.735   3.829
 7449SOL    HW224245   1.703   6.677   3.691
 7450SOL     OW24246   2.853   5.178  12.464
 7450SOL    HW124247   2.807   5.172  12.380
 7450SOL    HW224248   2.853   5.089  12.498
 7451SOL     OW24249   0.700   0.853   2.846
 7451SOL    HW124250   0.723   0.943   2.821
 7451SOL    HW224251   0.615   0.861   2.890
 7452SOL     OW24252   3.305  10.095   7.729
 7452SOL    HW124253   3.258  10.091   7.646
 7452SOL    HW224254   3.295  10.007   7.766
 7453SOL     OW24255   7.300   4.520   4.967
 7453SOL    HW124256   7.213   4.508   4.928
 7453SOL    HW224257   7.282   4.566   5.049
 7454SOL     OW24258   6.265  11.465  10.995
 7454SOL    HW124259   6.286  11.395  11.057
 7454SOL    HW224260   6.311  11.440  10.915
 7455SOL     OW24261  14.449  11.449   3.216
 7455SOL    HW124262  14.436  11.409   3.302
 7455SOL    HW224263  14.545  11.453   3.207
 7456SOL     OW24264   7.402   6.355  11.068
 7456SOL    HW124265   7.307   6.341  11.074
 7456SOL    HW224266   7.430   6.368  11.159
 7457SOL     OW24267   0.886   4.158   4.799
 7457SOL    HW124268   0.977   4.133   4.816
 7457SOL    HW224269   0.840   4.138   4.880
 7458SOL     OW24270  11.366   8.597  12.254
 7458SOL    HW124271  11.384   8.682  12.214
 7458SOL    HW224272  11.304   8.616  12.325
 7459SOL     OW24273   4.466   6.590   4.607
 7459SOL    HW124274   4.499   6.616   4.693
 7459SOL    HW224275   4.421   6.507   4.623
 7460SOL     OW24276  12.579  13.443   4.450
 7460SOL    HW124277  12.507  13.467   4.392
 7460SOL    HW224278  12.594  13.350   4.432
 7461SOL     OW24279  13.065  11.556   2.547
 7461SOL    HW124280  13.099  11.471   2.577
 7461SOL    HW224281  13.064  11.610   2.626
 7462SOL     OW24282  12.024  11.445   4.442
 7462SOL    HW124283  12.090  11.513   4.436
 7462SOL    HW224284  12.048  11.382   4.374
 7463SOL     OW24285   7.776   0.809   5.285
 7463SOL    HW124286   7.839   0.738   5.273
 7463SOL    HW224287   7.820   0.871   5.342
 7464SOL     OW24288   2.284   3.728  13.689
 7464SOL    HW124289   2.298   3.657  13.752
 7464SOL    HW224290   2.220   3.692  13.627
 7465SOL     OW24291   2.461   5.794   1.466
 7465SOL    HW124292   2.533   5.815   1.406
 7465SOL    HW224293   2.387   5.845   1.434
 7466SOL     OW24294   2.999   4.332   3.638
 7466SOL    HW124295   2.947   4.369   3.567
 7466SOL    HW224296   3.066   4.279   3.595
 7467SOL     OW24297   4.525  10.882   8.548
 7467SOL    HW124298   4.544  10.843   8.463
 7467SOL    HW224299   4.542  10.975   8.536
 7468SOL     OW24300  10.521   2.239   1.414
 7468SOL    HW124301  10.504   2.314   1.357
 7468SOL    HW224302  10.434   2.204   1.434
 7469SOL     OW24303   5.782   4.239  13.168
 7469SOL    HW124304   5.736   4.272  13.091
 7469SOL    HW224305   5.720   4.248  13.240
 7470SOL     OW24306   1.145   0.989   1.586
 7470SOL    HW124307   1.207   0.992   1.513
 7470SOL    HW224308   1.067   1.034   1.553
 7471SOL     OW24309   0.975  13.776   0.972
 7471SOL    HW124310   1.011  13.864   0.964
 7471SOL    HW224311   0.972  13.759   1.066
 7472SOL     OW24312   0.195   5.172   2.192
 7472SOL    HW124313   0.256   5.200   2.260
 7472SOL    HW224314   0.201   5.239   2.125
 7473SOL     OW24315   0.745   9.197   8.875
 7473SOL    HW124316   0.790   9.113   8.876
 7473SOL    HW224317   0.729   9.217   8.967
 7474SOL     OW24318  12.626   6.055  12.555
 7474SOL    HW124319  12.682   6.127  12.586
 7474SOL    HW224320  12.639   6.054  12.460
 7475SOL     OW24321  11.507  14.161   8.521
 7475SOL    HW124322  11.546  14.237   8.478
 7475SOL    HW224323  11.582  14.106   8.545
 7476SOL     OW24324   5.654  14.688   8.015
 7476SOL    HW124325   5.579  14.705   7.958
 7476SOL    HW224326   5.627  14.721   8.101
 7477SOL     OW24327   1.266  10.049   2.335
 7477SOL    HW124328   1.207   9.982   2.300
 7477SOL    HW224329   1.209  10.123   2.356
 7478SOL     OW24330   0.665   3.301   9.567
 7478SOL    HW124331   0.668   3.358   9.643
 7478SOL    HW224332   0.603   3.342   9.507
 7479SOL     OW24333   3.759   3.571   2.463
 7479SOL    HW124334   3.810   3.512   2.407
 7479SOL    HW224335   3.807   3.653   2.461
 7480SOL     OW24336   8.253   0.644   3.251
 7480SOL    HW124337   8.206   0.727   3.249
 7480SOL    HW224338   8.215   0.597   3.325
 7481SOL     OW24339  10.536   6.375   3.877
 7481SOL    HW124340  10.582   6.371   3.794
 7481SOL    HW224341  10.547   6.465   3.907
 7482SOL     OW24342   1.963   2.257   1.920
 7482SOL    HW124343   1.959   2.161   1.929
 7482SOL    HW224344   2.056   2.277   1.928
 7483SOL     OW24345   8.715   5.321  14.157
 7483SOL    HW124346   8.681   5.332  14.068
 7483SOL    HW224347   8.650   5.361  14.213
 7484SOL     OW24348   8.635   4.175  12.135
 7484SOL    HW124349   8.593   4.162  12.220
 7484SOL    HW224350   8.683   4.094  12.119
 7485SOL     OW24351  12.111   4.130   0.849
 7485SOL    HW124352  12.105   4.153   0.941
 7485SOL    HW224353  12.186   4.070   0.844
 7486SOL     OW24354   2.144   2.417   6.081
 7486SOL    HW124355   2.201   2.424   6.004
 7486SOL    HW224356   2.202   2.385   6.150
 7487SOL     OW24357   2.719   2.517  12.258
 7487SOL    HW124358   2.695   2.583  12.323
 7487SOL    HW224359   2.720   2.564  12.175
 7488SOL     OW24360  11.041   5.605   0.681
 7488SOL    HW124361  11.070   5.608   0.773
 7488SOL    HW224362  11.099   5.666   0.636
 7489SOL     OW24363   9.304   9.519   7.788
 7489SOL    HW124364   9.340   9.608   7.792
 7489SOL    HW224365   9.229   9.527   7.730
 7490SOL     OW24366   2.661   4.638   2.456
 7490SOL    HW124367   2.582   4.646   2.511
 7490SOL    HW224368   2.654   4.550   2.419
 7491SOL     OW24369   3.191   6.643   4.792
 7491SOL    HW124370   3.236   6.576   4.740
 7491SOL    HW224371   3.240   6.646   4.874
 7492SOL     OW24372  12.285  13.919   0.292
 7492SOL    HW124373  12.278  13.850   0.226
 7492SOL    HW224374  12.244  13.881   0.370
 7493SOL     OW24375   3.615   2.562  11.952
 7493SOL    HW124376   3.594   2.476  11.915
 7493SOL    HW224377   3.665   2.605  11.883
 7494SOL     OW24378  10.535  11.830  13.586
 7494SOL    HW124379  10.451  11.868  13.561
 7494SOL    HW224380  10.574  11.894  13.646
 7495SOL     OW24381  14.017   8.993   0.002
 7495SOL    HW124382  13.985   8.950  14.795
 7495SOL    HW224383  13.966   9.073   0.009
 7496SOL     OW24384   3.024   6.921   2.207
 7496SOL    HW124385   3.094   6.945   2.268
 7496SOL    HW224386   3.054   6.951   2.122
 7497SOL     OW24387  12.262   4.914   6.472
 7497SOL    HW124388  12.240   4.860   6.547
 7497SOL    HW224389  12.204   4.990   6.478
 7498SOL     OW24390   5.690  14.776   9.029
 7498SOL    HW124391   5.639  14.697   9.010
 7498SOL    HW224392   5.767  14.743   9.075
 7499SOL     OW24393   1.134  14.263   9.253
 7499SOL    HW124394   1.049  14.226   9.229
 7499SOL    HW224395   1.197  14.213   9.201
 7500SOL     OW24396   6.254   0.146   3.773
 7500SOL    HW124397   6.192   0.081   3.739
 7500SOL    HW224398   6.287   0.108   3.854
 7501SOL     OW24399   7.592   2.985   4.286
 7501SOL    HW124400   7.626   2.995   4.196
 7501SOL    HW224401   7.515   2.929   4.276
 7502SOL     OW24402  14.461   7.753   1.420
 7502SOL    HW124403  14.544   7.718   1.388
 7502SOL    HW224404  14.396   7.688   1.396
 7503SOL     OW24405  12.268  13.986   4.180
 7503SOL    HW124406  12.276  13.940   4.263
 7503SOL    HW224407  12.244  14.076   4.204
 7504SOL     OW24408  11.687   6.029  14.024
 7504SOL    HW124409  11.639   5.997  14.101
 7504SOL    HW224410  11.764   5.971  14.019
 7505SOL     OW24411   0.692   8.293   3.977
 7505SOL    HW124412   0.629   8.229   4.011
 7505SOL    HW224413   0.701   8.269   3.884
 7506SOL     OW24414  13.429   1.044   1.050
 7506SOL    HW124415  13.452   0.984   0.980
 7506SOL    HW224416  13.354   1.093   1.016
 7507SOL     OW24417   5.978   9.424  14.030
 7507SOL    HW124418   5.904   9.436  14.090
 7507SOL    HW224419   5.958   9.482  13.956
 7508SOL     OW24420   0.523  10.664  14.313
 7508SOL    HW124421   0.447  10.652  14.256
 7508SOL    HW224422   0.564  10.577  14.317
 7509SOL     OW24423   1.217   3.684   3.928
 7509SOL    HW124424   1.214   3.739   3.850
 7509SOL    HW224425   1.213   3.746   4.001
 7510SOL     OW24426   6.038   8.440  10.240
 7510SOL    HW124427   6.055   8.514  10.297
 7510SOL    HW224428   5.944   8.424  10.249
 7511SOL     OW24429   1.388   2.572   5.851
 7511SOL    HW124430   1.473   2.557   5.893
 7511SOL    HW224431   1.410   2.600   5.762
 7512SOL     OW24432  11.233   9.126  14.647
 7512SOL    HW124433  11.245   9.059  14.581
 7512SOL    HW224434  11.180   9.084  14.715
 7513SOL     OW24435   3.016   4.211  13.748
 7513SOL    HW124436   2.962   4.143  13.709
 7513SOL    HW224437   2.954   4.280  13.772
 7514SOL     OW24438   1.138   1.712   9.485
 7514SOL    HW124439   1.192   1.694   9.408
 7514SOL    HW224440   1.125   1.626   9.525
 7515SOL     OW24441   0.665   4.430   5.640
 7515SOL    HW124442   0.594   4.486   5.609
 7515SOL    HW224443   0.621   4.362   5.691
 7516SOL     OW24444   4.983   3.311   2.356
 7516SOL    HW124445   4.945   3.395   2.380
 7516SOL    HW224446   4.938   3.247   2.412
 7517SOL     OW24447  10.268  12.135   5.361
 7517SOL    HW124448  10.250  12.192   5.436
 7517SOL    HW224449  10.221  12.176   5.289
 7518SOL     OW24450   3.175   1.109  11.651
 7518SOL    HW124451   3.158   1.137  11.741
 7518SOL    HW224452   3.186   1.014  11.657
 7519SOL     OW24453   3.475   8.758  13.625
 7519SOL    HW124454   3.541   8.785  13.560
 7519SOL    HW224455   3.454   8.839  13.672
 7520SOL     OW24456  13.035   0.686  10.485
 7520SOL    HW124457  13.047   0.756  10.420
 7520SOL    HW224458  13.039   0.605  10.434
 7521SOL     OW24459   9.816   5.749   7.348
 7521SOL    HW124460   9.831   5.657   7.328
 7521SOL    HW224461   9.882   5.772   7.413
 7522SOL     OW24462   1.916   3.221   6.343
 7522SOL    HW124463   1.941   3.243   6.433
 7522SOL    HW224464   1.845   3.157   6.353
 7523SOL     OW24465  14.483   5.537   5.564
 7523SOL    HW124466  14.461   5.616   5.614
 7523SOL    HW224467  14.401   5.514   5.519
 7524SOL     OW24468   2.639   0.759   7.742
 7524SOL    HW124469   2.597   0.797   7.664
 7524SOL    HW224470   2.581   0.688   7.769
 7525SOL     OW24471   9.202  11.557   3.374
 7525SOL    HW124472   9.142  11.548   3.300
 7525SOL    HW224473   9.182  11.642   3.412
 7526SOL     OW24474   9.690  13.535   1.815
 7526SOL    HW124475   9.756  13.602   1.833
 7526SOL    HW224476   9.669  13.547   1.722
 7527SOL     OW24477  10.304   0.598  13.868
 7527SOL    HW124478  10.374   0.560  13.815
 7527SOL    HW224479  10.280   0.679  13.822
 7528SOL     OW24480  14.866   1.176  13.302
 7528SOL    HW124481   0.018   1.195  13.393
 7528SOL    HW224482  14.779   1.137  13.308
 7529SOL     OW24483  11.978  13.171  11.338
 7529SOL    HW124484  11.937  13.103  11.391
 7529SOL    HW224485  11.936  13.163  11.252
 7530SOL     OW24486   0.339   5.863  10.138
 7530SOL    HW124487   0.361   5.953  10.159
 7530SOL    HW224488   0.375   5.812  10.210
 7531SOL     OW24489  10.380   3.001   4.948
 7531SOL    HW124490  10.298   2.955   4.968
 7531SOL    HW224491  10.441   2.971   5.015
 7532SOL     OW24492  14.481   4.093  11.452
 7532SOL    HW124493  14.532   4.024  11.493
 7532SOL    HW224494  14.544   4.143  11.401
 7533SOL     OW24495   2.813   5.150   9.164
 7533SOL    HW124496   2.877   5.220   9.148
 7533SOL    HW224497   2.863   5.082   9.210
 7534SOL     OW24498   4.890   4.690   6.908
 7534SOL    HW124499   4.908   4.717   6.818
 7534SOL    HW224500   4.950   4.616   6.923
 7535SOL     OW24501  12.332  12.109  13.514
 7535SOL    HW124502  12.246  12.065  13.522
 7535SOL    HW224503  12.331  12.175  13.583
 7536SOL     OW24504   0.681   6.672  14.562
 7536SOL    HW124505   0.687   6.719  14.645
 7536SOL    HW224506   0.649   6.585  14.585
 7537SOL     OW24507  12.221  12.583   4.511
 7537SOL    HW124508  12.199  12.599   4.420
 7537SOL    HW224509  12.216  12.669   4.553
 7538SOL     OW24510   9.887   4.791  14.668
 7538SOL    HW124511   9.981   4.776  14.680
 7538SOL    HW224512   9.875   4.884  14.685
 7539SOL     OW24513   3.521   5.886   4.612
 7539SOL    HW124514   3.505   5.949   4.542
 7539SOL    HW224515   3.615   5.891   4.628
 7540SOL     OW24516   0.928   7.438  12.120
 7540SOL    HW124517   1.008   7.434  12.067
 7540SOL    HW224518   0.917   7.531  12.139
 7541SOL     OW24519   9.747   5.140   1.798
 7541SOL    HW124520   9.826   5.093   1.774
 7541SOL    HW224521   9.710   5.172   1.716
 7542SOL     OW24522   0.495   6.256   6.395
 7542SOL    HW124523   0.557   6.240   6.324
 7542SOL    HW224524   0.429   6.188   6.385
 7543SOL     OW24525   8.701  14.662   1.153
 7543SOL    HW124526   8.730  14.747   1.120
 7543SOL    HW224527   8.756  14.599   1.108
 7544SOL     OW24528   2.297   7.201  10.256
 7544SOL    HW124529   2.323   7.288  10.284
 7544SOL    HW224530   2.271   7.212  10.164
 7545SOL     OW24531  11.157   8.038   8.583
 7545SOL    HW124532  11.209   8.064   8.506
 7545SOL    HW224533  11.184   8.099   8.651
 7546SOL     OW24534   8.902  14.795   6.086
 7546SOL    HW124535   8.817  14.827   6.117
 7546SOL    HW224536   8.930  14.861   6.022
 7547SOL     OW24537  11.401  11.075   0.077
 7547SOL    HW124538  11.309  11.051   0.066
 7547SOL    HW224539  11.443  10.995   0.108
 7548SOL     OW24540  13.562   9.335   5.309
 7548SOL    HW124541  13.547   9.249   5.348
 7548SOL    HW224542  13.650   9.329   5.271
 7549SOL     OW24543   2.163   2.030   7.908
 7549SOL    HW124544   2.218   1.957   7.878
 7549SOL    HW224545   2.191   2.104   7.855
 7550SOL     OW24546  12.144  11.638   2.253
 7550SOL    HW124547  12.067  11.689   2.228
 7550SOL    HW224548  12.109  11.566   2.307
 7551SOL     OW24549   3.415   1.777  14.345
 7551SOL    HW124550   3.334   1.827  14.337
 7551SOL    HW224551   3.408   1.708  14.280
 7552SOL     OW24552   1.134  12.073  13.763
 7552SOL    HW124553   1.047  12.044  13.736
 7552SOL    HW224554   1.122  12.165  13.787
 7553SOL     OW24555   6.287   5.631   9.387
 7553SOL    HW124556   6.232   5.617   9.464
 7553SOL    HW224557   6.261   5.716   9.353
 7554SOL     OW24558  11.354  13.125   5.772
 7554SOL    HW124559  11.360  13.100   5.864
 7554SOL    HW224560  11.337  13.220   5.774
 7555SOL     OW24561   2.589   4.937   2.176
 7555SOL    HW124562   2.603   5.024   2.213
 7555SOL    HW224563   2.670   4.890   2.195
 7556SOL     OW24564  13.652   6.444  13.429
 7556SOL    HW124565  13.638   6.537  13.445
 7556SOL    HW224566  13.603   6.426  13.348
 7557SOL     OW24567   0.701  11.126   2.122
 7557SOL    HW124568   0.761  11.070   2.171
 7557SOL    HW224569   0.638  11.157   2.187
 7558SOL     OW24570  13.307   2.410   5.384
 7558SOL    HW124571  13.399   2.391   5.400
 7558SOL    HW224572  13.298   2.503   5.405
 7559SOL     OW24573  13.860  13.806  10.017
 7559SOL    HW124574  13.819  13.849   9.942
 7559SOL    HW224575  13.802  13.732  10.037
 7560SOL     OW24576  14.059  10.484  10.679
 7560SOL    HW124577  14.031  10.529  10.599
 7560SOL    HW224578  13.979  10.478  10.733
 7561SOL     OW24579   8.999  14.313   3.850
 7561SOL    HW124580   8.909  14.342   3.861
 7561SOL    HW224581   9.026  14.284   3.938
 7562SOL     OW24582   1.559   8.618   9.492
 7562SOL    HW124583   1.589   8.708   9.479
 7562SOL    HW224584   1.533   8.614   9.584
 7563SOL     OW24585   4.494   1.051   7.670
 7563SOL    HW124586   4.543   0.970   7.682
 7563SOL    HW224587   4.478   1.083   7.759
 7564SOL     OW24588  12.863   4.561   6.775
 7564SOL    HW124589  12.860   4.633   6.712
 7564SOL    HW224590  12.877   4.483   6.721
 7565SOL     OW24591   8.749  13.022   6.698
 7565SOL    HW124592   8.801  13.035   6.618
 7565SOL    HW224593   8.812  13.025   6.769
 7566SOL     OW24594  14.567   1.683   9.968
 7566SOL    HW124595  14.562   1.598  10.011
 7566SOL    HW224596  14.536   1.666   9.879
 7567SOL     OW24597   8.497   0.160   7.403
 7567SOL    HW124598   8.477   0.240   7.354
 7567SOL    HW224599   8.498   0.187   7.494
 7568SOL     OW24600   9.546   1.613  12.672
 7568SOL    HW124601   9.633   1.618  12.711
 7568SOL    HW224602   9.521   1.704  12.656
 7569SOL     OW24603   7.514   4.920  13.541
 7569SOL    HW124604   7.601   4.941  13.507
 7569SOL    HW224605   7.523   4.834  13.580
 7570SOL     OW24606  14.070   2.772   9.271
 7570SOL    HW124607  14.073   2.688   9.316
 7570SOL    HW224608  13.979   2.800   9.280
 7571SOL     OW24609  12.733   6.685   9.570
 7571SOL    HW124610  12.771   6.598   9.559
 7571SOL    HW224611  12.804   6.745   9.549
 7572SOL     OW24612   5.956   0.712   2.741
 7572SOL    HW124613   5.893   0.764   2.790
 7572SOL    HW224614   5.909   0.631   2.718
 7573SOL     OW24615   0.097   8.589   7.882
 7573SOL    HW124616   0.138   8.617   7.800
 7573SOL    HW224617   0.168   8.547   7.931
 7574SOL     OW24618   2.049  13.616  14.134
 7574SOL    HW124619   1.982  13.584  14.194
 7574SOL    HW224620   2.123  13.557  14.147
 7575SOL     OW24621  14.412  10.098   1.393
 7575SOL    HW124622  14.324  10.066   1.374
 7575SOL    HW224623  14.398  10.188   1.422
 7576SOL     OW24624   5.736   1.380   7.604
 7576SOL    HW124625   5.820   1.395   7.648
 7576SOL    HW224626   5.736   1.286   7.585
 7577SOL     OW24627   9.999  12.577  13.439
 7577SOL    HW124628   9.960  12.494  13.467
 7577SOL    HW224629   9.970  12.588  13.349
 7578SOL     OW24630   8.132   7.384   9.654
 7578SOL    HW124631   8.050   7.433   9.650
 7578SOL    HW224632   8.187   7.425   9.587
 7579SOL     OW24633   2.886   8.123   0.136
 7579SOL    HW124634   2.841   8.129   0.052
 7579SOL    HW224635   2.962   8.069   0.119
 7580SOL     OW24636   1.589   0.334  14.077
 7580SOL    HW124637   1.577   0.427  14.054
 7580SOL    HW224638   1.596   0.334  14.173
 7581SOL     OW24639   4.699  11.003   9.245
 7581SOL    HW124640   4.626  11.060   9.221
 7581SOL    HW224641   4.726  11.032   9.332
 7582SOL     OW24642   2.135  11.258   6.802
 7582SOL    HW124643   2.112  11.350   6.806
 7582SOL    HW224644   2.068  11.214   6.855
 7583SOL     OW24645   0.164  12.847   5.419
 7583SOL    HW124646   0.132  12.888   5.339
 7583SOL    HW224647   0.241  12.798   5.391
 7584SOL     OW24648  11.735  11.233   0.661
 7584SOL    HW124649  11.789  11.230   0.739
 7584SOL    HW224650  11.745  11.322   0.627
 7585SOL     OW24651   9.878   8.846  11.967
 7585SOL    HW124652   9.896   8.754  11.947
 7585SOL    HW224653   9.891   8.891  11.884
 7586SOL     OW24654   0.581   1.090  12.336
 7586SOL    HW124655   0.514   1.116  12.273
 7586SOL    HW224656   0.631   1.170  12.353
 7587SOL     OW24657   7.715  13.697   2.951
 7587SOL    HW124658   7.676  13.764   3.007
 7587SOL    HW224659   7.664  13.701   2.870
 7588SOL     OW24660   9.817   8.540   8.380
 7588SOL    HW124661   9.829   8.545   8.285
 7588SOL    HW224662   9.886   8.596   8.416
 7589SOL     OW24663  11.867   3.220   1.278
 7589SOL    HW124664  11.848   3.156   1.210
 7589SOL    HW224665  11.859   3.305   1.233
 7590SOL     OW24666   7.628   9.407  10.917
 7590SOL    HW124667   7.532   9.408  10.914
 7590SOL    HW224668   7.653   9.499  10.911
 7591SOL     OW24669  12.629  13.829   1.508
 7591SOL    HW124670  12.627  13.772   1.586
 7591SOL    HW224671  12.723  13.839   1.489
 7592SOL     OW24672   6.966   9.273  10.894
 7592SOL    HW124673   7.038   9.246  10.837
 7592SOL    HW224674   6.921   9.341  10.845
 7593SOL     OW24675   4.737   1.005  12.173
 7593SOL    HW124676   4.754   0.923  12.220
 7593SOL    HW224677   4.794   1.001  12.097
 7594SOL     OW24678   3.607   4.987  11.736
 7594SOL    HW124679   3.551   4.929  11.786
 7594SOL    HW224680   3.598   5.072  11.779
 7595SOL     OW24681  10.908  10.745   3.247
 7595SOL    HW124682  10.991  10.787   3.224
 7595SOL    HW224683  10.854  10.816   3.281
 7596SOL     OW24684  14.486   6.877   2.199
 7596SOL    HW124685  14.480   6.925   2.116
 7596SOL    HW224686  14.430   6.801   2.186
 7597SOL     OW24687  14.209   7.922   0.865
 7597SOL    HW124688  14.248   7.968   0.940
 7597SOL    HW224689  14.226   7.979   0.790
 7598SOL     OW24690  10.730  14.084  11.513
 7598SOL    HW124691  10.669  14.035  11.458
 7598SOL    HW224692  10.811  14.086  11.463
 7599SOL     OW24693  12.692  14.004  10.691
 7599SOL    HW124694  12.769  13.976  10.740
 7599SOL    HW224695  12.710  14.096  10.669
 7600SOL     OW24696   5.717   0.674   5.615
 7600SOL    HW124697   5.656   0.655   5.686
 7600SOL    HW224698   5.732   0.768   5.621
 7601SOL     OW24699  12.215   9.013  12.689
 7601SOL    HW124700  12.301   9.039  12.657
 7601SOL    HW224701  12.158   9.087  12.671
 7602SOL     OW24702  11.744   6.850   7.592
 7602SOL    HW124703  11.743   6.798   7.512
 7602SOL    HW224704  11.814   6.811   7.645
 7603SOL     OW24705   8.097   3.520  14.024
 7603SOL    HW124706   8.162   3.581  14.058
 7603SOL    HW224707   8.050   3.569  13.957
 7604SOL     OW24708   4.207   4.658  11.659
 7604SOL    HW124709   4.237   4.601  11.730
 7604SOL    HW224710   4.282   4.716  11.641
 7605SOL     OW24711   2.595   6.623   2.562
 7605SOL    HW124712   2.563   6.660   2.479
 7605SOL    HW224713   2.567   6.532   2.559
 7606SOL     OW24714   1.863  13.052   3.782
 7606SOL    HW124715   1.845  12.961   3.806
 7606SOL    HW224716   1.836  13.103   3.859
 7607SOL     OW24717   1.240   9.610  10.217
 7607SOL    HW124718   1.173   9.651  10.272
 7607SOL    HW224719   1.194   9.543  10.167
 7608SOL     OW24720   8.291   4.153   7.468
 7608SOL    HW124721   8.320   4.150   7.560
 7608SOL    HW224722   8.348   4.218   7.427
 7609SOL     OW24723  10.486   0.378   8.614
 7609SOL    HW124724  10.398   0.380   8.575
 7609SOL    HW224725  10.545   0.394   8.540
 7610SOL     OW24726  14.394  11.354  11.685
 7610SOL    HW124727  14.328  11.363  11.754
 7610SOL    HW224728  14.408  11.259  11.678
 7611SOL     OW24729   9.159  11.876   8.203
 7611SOL    HW124730   9.114  11.809   8.253
 7611SOL    HW224731   9.248  11.843   8.191
 7612SOL     OW24732   2.033  12.150  13.102
 7612SOL    HW124733   1.951  12.192  13.076
 7612SOL    HW224734   2.018  12.122  13.192
 7613SOL     OW24735   5.157   3.467   9.329
 7613SOL    HW124736   5.201   3.458   9.244
 7613SOL    HW224737   5.149   3.561   9.342
 7614SOL     OW24738   4.564   4.223  14.495
 7614SOL    HW124739   4.621   4.270  14.434
 7614SOL    HW224740   4.561   4.134  14.460
 7615SOL     OW24741   5.539   1.111   1.605
 7615SOL    HW124742   5.454   1.154   1.601
 7615SOL    HW224743   5.519   1.018   1.589
 7616SOL     OW24744   2.441  10.715  14.653
 7616SOL    HW124745   2.518  10.765  14.678
 7616SOL    HW224746   2.367  10.774  14.671
 7617SOL     OW24747   4.213   6.941   4.261
 7617SOL    HW124748   4.250   6.878   4.323
 7617SOL    HW224749   4.119   6.940   4.280
 7618SOL     OW24750  11.116   0.137  14.035
 7618SOL    HW124751  11.026   0.135  14.004
 7618SOL    HW224752  11.167   0.169  13.960
 7619SOL     OW24753  11.096   5.019  12.715
 7619SOL    HW124754  11.142   5.052  12.638
 7619SOL    HW224755  11.020   5.076  12.724
 7620SOL     OW24756   0.773   9.893   3.871
 7620SOL    HW124757   0.826   9.948   3.813
 7620SOL    HW224758   0.731   9.830   3.813
 7621SOL     OW24759   4.086   5.211  13.862
 7621SOL    HW124760   4.002   5.195  13.819
 7621SOL    HW224761   4.113   5.124  13.893
 7622SOL     OW24762  14.487   2.643  14.372
 7622SOL    HW124763  14.530   2.648  14.287
 7622SOL    HW224764  14.484   2.733  14.403
 7623SOL     OW24765   3.424   5.846   4.113
 7623SOL    HW124766   3.406   5.939   4.105
 7623SOL    HW224767   3.379   5.820   4.193
 7624SOL     OW24768   5.070   4.345   7.898
 7624SOL    HW124769   5.030   4.259   7.910
 7624SOL    HW224770   4.996   4.407   7.903
 7625SOL     OW24771   9.293  10.444  11.801
 7625SOL    HW124772   9.200  10.467  11.803
 7625SOL    HW224773   9.294  10.348  11.801
 7626SOL     OW24774   4.542   4.818   3.968
 7626SOL    HW124775   4.561   4.906   3.935
 7626SOL    HW224776   4.497   4.834   4.051
 7627SOL     OW24777   6.602   1.677  11.328
 7627SOL    HW124778   6.601   1.747  11.263
 7627SOL    HW224779   6.523   1.625  11.308
 7628SOL     OW24780   0.172  10.331  11.043
 7628SOL    HW124781   0.208  10.313  10.956
 7628SOL    HW224782   0.195  10.254  11.095
 7629SOL     OW24783  10.507   6.382  12.161
 7629SOL    HW124784  10.558   6.311  12.198
 7629SOL    HW224785  10.476   6.348  12.077
 7630SOL     OW24786   0.630  10.361   6.314
 7630SOL    HW124787   0.681  10.415   6.375
 7630SOL    HW224788   0.631  10.410   6.232
 7631SOL     OW24789   5.862   3.822   8.633
 7631SOL    HW124790   5.883   3.909   8.599
 7631SOL    HW224791   5.947   3.785   8.659
 7632SOL     OW24792  12.503   2.528   4.591
 7632SOL    HW124793  12.445   2.604   4.593
 7632SOL    HW224794  12.591   2.565   4.590
 7633SOL     OW24795   5.451   8.597   8.872
 7633SOL    HW124796   5.455   8.513   8.826
 7633SOL    HW224797   5.362   8.629   8.856
 7634SOL     OW24798  14.846   2.793   8.653
 7634SOL    HW124799  14.791   2.774   8.577
 7634SOL    HW224800  14.864   2.708   8.692
 7635SOL     OW24801   0.020   2.979   1.099
 7635SOL    HW124802   0.061   2.933   1.026
 7635SOL    HW224803   0.066   3.063   1.105
 7636SOL     OW24804  11.553  11.071  13.947
 7636SOL    HW124805  11.602  10.989  13.941
 7636SOL    HW224806  11.498  11.061  14.025
 7637SOL     OW24807   3.527   2.259   2.967
 7637SOL    HW124808   3.610   2.267   2.919
 7637SOL    HW224809   3.460   2.265   2.899
 7638SOL     OW24810  12.080  12.031   0.453
 7638SOL    HW124811  12.011  11.966   0.458
 7638SOL    HW224812  12.143  12.005   0.520
 7639SOL     OW24813   3.014  11.062   6.590
 7639SOL    HW124814   2.997  10.986   6.534
 7639SOL    HW224815   2.949  11.057   6.659
 7640SOL     OW24816  12.297   7.634   3.052
 7640SOL    HW124817  12.259   7.548   3.067
 7640SOL    HW224818  12.237   7.696   3.092
 7641SOL     OW24819   0.446   0.526   2.156
 7641SOL    HW124820   0.427   0.582   2.081
 7641SOL    HW224821   0.541   0.512   2.152
 7642SOL     OW24822   8.746   5.051  10.694
 7642SOL    HW124823   8.743   4.964  10.734
 7642SOL    HW224824   8.761   5.034  10.601
 7643SOL     OW24825   2.063  12.479   8.664
 7643SOL    HW124826   2.053  12.520   8.750
 7643SOL    HW224827   2.144  12.427   8.672
 7644SOL     OW24828  12.025   6.942  13.702
 7644SOL    HW124829  12.035   6.984  13.617
 7644SOL    HW224830  12.085   6.990  13.760
 7645SOL     OW24831  10.748   3.722   8.911
 7645SOL    HW124832  10.757   3.635   8.873
 7645SOL    HW224833  10.789   3.715   8.998
 7646SOL     OW24834   5.831  13.475  12.243
 7646SOL    HW124835   5.818  13.390  12.286
 7646SOL    HW224836   5.840  13.536  12.316
 7647SOL     OW24837   9.407   6.217  11.651
 7647SOL    HW124838   9.451   6.296  11.684
 7647SOL    HW224839   9.469   6.181  11.587
 7648SOL     OW24840   2.085   3.069   1.200
 7648SOL    HW124841   2.125   2.996   1.247
 7648SOL    HW224842   2.145   3.089   1.129
 7649SOL     OW24843  14.685   2.135   7.256
 7649SOL    HW124844  14.696   2.040   7.262
 7649SOL    HW224845  14.745   2.170   7.322
 7650SOL     OW24846  10.353   7.303   5.671
 7650SOL    HW124847  10.274   7.250   5.673
 7650SOL    HW224848  10.332   7.380   5.723
 7651SOL     OW24849   9.290  10.459   5.656
 7651SOL    HW124850   9.368  10.483   5.606
 7651SOL    HW224851   9.257  10.542   5.692
 7652SOL     OW24852   4.216   5.435   5.723
 7652SOL    HW124853   4.175   5.386   5.652
 7652SOL    HW224854   4.192   5.386   5.802
 7653SOL     OW24855   2.208   6.349  10.450
 7653SOL    HW124856   2.128   6.296  10.447
 7653SOL    HW224857   2.275   6.291  10.486
 7654SOL     OW24858   1.104   9.787  10.380
 7654SOL    HW124859   1.089   9.879  10.360
 7654SOL    HW224860   1.057   9.772  10.462
 7655SOL     OW24861   7.363   6.358  14.213
 7655SOL    HW124862   7.302   6.393  14.279
 7655SOL    HW224863   7.341   6.406  14.133
 7656SOL     OW24864   0.437   2.840   0.092
 7656SOL    HW124865   0.522   2.881   0.080
 7656SOL    HW224866   0.387   2.903   0.144
 7657SOL     OW24867  12.590  10.826   5.314
 7657SOL    HW124868  12.527  10.754   5.313
 7657SOL    HW224869  12.544  10.899   5.272
 7658SOL     OW24870   0.046   4.809  12.022
 7658SOL    HW124871   0.095   4.806  12.104
 7658SOL    HW224872   0.077   4.889  11.979
 7659SOL     OW24873  10.625  10.484  11.574
 7659SOL    HW124874  10.669  10.414  11.525
 7659SOL    HW224875  10.690  10.514  11.637
 7660SOL     OW24876   5.782  11.708   0.353
 7660SOL    HW124877   5.747  11.664   0.430
 7660SOL    HW224878   5.748  11.798   0.360
 7661SOL     OW24879  13.432   6.484  11.566
 7661SOL    HW124880  13.395   6.544  11.501
 7661SOL    HW224881  13.362   6.474  11.631
 7662SOL     OW24882  11.526   0.008   5.990
 7662SOL    HW124883  11.583   0.011   6.067
 7662SOL    HW224884  11.443  14.847   6.023
 7663SOL     OW24885  12.097   9.134  14.193
 7663SOL    HW124886  12.108   9.229  14.206
 7663SOL    HW224887  12.087   9.099  14.281
 7664SOL     OW24888  10.789   4.415   4.121
 7664SOL    HW124889  10.743   4.463   4.053
 7664SOL    HW224890  10.721   4.394   4.186
 7665SOL     OW24891   6.942   5.454  10.846
 7665SOL    HW124892   6.875   5.455  10.778
 7665SOL    HW224893   7.024   5.473  10.799
 7666SOL     OW24894  12.758   0.490   5.527
 7666SOL    HW124895  12.770   0.450   5.613
 7666SOL    HW224896  12.749   0.416   5.467
 7667SOL     OW24897   0.724   6.227   4.359
 7667SOL    HW124898   0.777   6.242   4.280
 7667SOL    HW224899   0.731   6.133   4.374
 7668SOL     OW24900   5.001   8.821  14.724
 7668SOL    HW124901   5.067   8.816  14.655
 7668SOL    HW224902   4.930   8.873  14.686
 7669SOL     OW24903  10.556  10.830   8.650
 7669SOL    HW124904  10.597  10.861   8.569
 7669SOL    HW224905  10.617  10.764   8.683
 7670SOL     OW24906   4.863   2.675  12.245
 7670SOL    HW124907   4.915   2.695  12.168
 7670SOL    HW224908   4.881   2.583  12.265
 7671SOL     OW24909   2.206  10.393  10.476
 7671SOL    HW124910   2.245  10.480  10.487
 7671SOL    HW224911   2.270  10.345  10.423
 7672SOL     OW24912   7.584   6.245   0.003
 7672SOL    HW124913   7.645   6.310  14.841
 7672SOL    HW224914   7.532   6.293   0.068
 7673SOL     OW24915   9.460  12.444  10.516
 7673SOL    HW124916   9.404  12.495  10.458
 7673SOL    HW224917   9.549  12.459  10.484
 7674SOL     OW24918  10.310   5.123   8.979
 7674SOL    HW124919  10.313   5.124   9.074
 7674SOL    HW224920  10.217   5.127   8.958
 7675SOL     OW24921  12.366   6.794   0.066
 7675SOL    HW124922  12.412   6.784  14.855
 7675SOL    HW224923  12.424   6.755   0.131
 7676SOL     OW24924   8.666   7.054   4.030
 7676SOL    HW124925   8.612   7.121   3.988
 7676SOL    HW224926   8.671   6.983   3.966
 7677SOL     OW24927   0.264  12.608  13.018
 7677SOL    HW124928   0.189  12.591  12.961
 7677SOL    HW224929   0.327  12.651  12.960
 7678SOL     OW24930   5.051  11.876  10.326
 7678SOL    HW124931   5.050  11.780  10.327
 7678SOL    HW224932   4.973  11.901  10.375
 7679SOL     OW24933   4.995  10.973   5.048
 7679SOL    HW124934   4.940  10.895   5.039
 7679SOL    HW224935   5.070  10.943   5.099
 7680SOL     OW24936   3.483   0.284   3.025
 7680SOL    HW124937   3.470   0.194   3.054
 7680SOL    HW224938   3.396   0.324   3.031
 7681SOL     OW24939   3.798   4.849   2.882
 7681SOL    HW124940   3.801   4.894   2.967
 7681SOL    HW224941   3.751   4.910   2.824
 7682SOL     OW24942   4.552  10.431   5.944
 7682SOL    HW124943   4.504  10.444   6.027
 7682SOL    HW224944   4.545  10.514   5.899
 7683SOL     OW24945   5.036   9.844   0.675
 7683SOL    HW124946   4.946   9.836   0.708
 7683SOL    HW224947   5.087   9.871   0.751
 7684SOL     OW24948  13.575  12.856   4.990
 7684SOL    HW124949  13.532  12.941   4.989
 7684SOL    HW224950  13.651  12.867   4.933
 7685SOL     OW24951  12.747  12.039   6.474
 7685SOL    HW124952  12.684  12.078   6.534
 7685SOL    HW224953  12.820  12.013   6.529
 7686SOL     OW24954   7.449  11.643   1.187
 7686SOL    HW124955   7.372  11.662   1.239
 7686SOL    HW224956   7.522  11.683   1.236
 7687SOL     OW24957  10.577  10.252   6.011
 7687SOL    HW124958  10.640  10.324   6.004
 7687SOL    HW224959  10.614  10.195   6.079
 7688SOL     OW24960   8.201   5.881  13.055
 7688SOL    HW124961   8.127   5.900  12.996
 7688SOL    HW224962   8.173   5.914  13.140
 7689SOL     OW24963   5.793   4.613   1.289
 7689SOL    HW124964   5.717   4.656   1.250
 7689SOL    HW224965   5.767   4.521   1.297
 7690SOL     OW24966   1.875   2.896   0.291
 7690SOL    HW124967   1.784   2.906   0.320
 7690SOL    HW224968   1.914   2.982   0.302
 7691SOL     OW24969  12.276   7.856   0.969
 7691SOL    HW124970  12.305   7.928   1.025
 7691SOL    HW224971  12.237   7.793   1.029
 7692SOL     OW24972  14.671   0.586  12.429
 7692SOL    HW124973  14.646   0.676  12.450
 7692SOL    HW224974  14.596   0.551  12.380
 7693SOL     OW24975  11.222   0.734   8.423
 7693SOL    HW124976  11.181   0.730   8.509
 7693SOL    HW224977  11.161   0.690   8.364
 7694SOL     OW24978  13.040   8.722   9.213
 7694SOL    HW124979  13.086   8.765   9.140
 7694SOL    HW224980  13.110   8.691   9.270
 7695SOL     OW24981   8.426   6.816   4.947
 7695SOL    HW124982   8.393   6.904   4.928
 7695SOL    HW224983   8.474   6.826   5.029
 7696SOL     OW24984   0.829   4.061   7.987
 7696SOL    HW124985   0.739   4.031   7.969
 7696SOL    HW224986   0.873   3.984   8.022
 7697SOL     OW24987   1.978   4.034   8.100
 7697SOL    HW124988   1.964   4.122   8.065
 7697SOL    HW224989   2.026   3.988   8.031
 7698SOL     OW24990   7.290   8.536  12.150
 7698SOL    HW124991   7.345   8.611  12.129
 7698SOL    HW224992   7.345   8.460  12.134
 7699SOL     OW24993  12.757  13.581   9.917
 7699SOL    HW124994  12.725  13.603  10.005
 7699SOL    HW224995  12.681  13.592   9.860
 7700SOL     OW24996  14.667   6.348  11.352
 7700SOL    HW124997  14.732   6.301  11.299
 7700SOL    HW224998  14.590   6.354  11.296
 7701SOL     OW24999   7.214   4.154   1.019
 7701SOL    HW125000   7.224   4.137   1.112
 7701SOL    HW225001   7.202   4.249   1.013
 7702SOL     OW25002   9.569   2.248   6.805
 7702SOL    HW125003   9.556   2.154   6.789
 7702SOL    HW225004   9.480   2.282   6.817
 7703SOL     OW25005  12.738  11.522   8.923
 7703SOL    HW125006  12.674  11.592   8.921
 7703SOL    HW225007  12.711  11.466   8.996
 7704SOL     OW25008   9.354   2.446   6.519
 7704SOL    HW125009   9.411   2.387   6.469
 7704SOL    HW225010   9.413   2.496   6.574
 7705SOL     OW25011   2.696  11.232   0.011
 7705SOL    HW125012   2.789  11.243   0.031
 7705SOL    HW225013   2.685  11.271  14.796
 7706SOL     OW25014  11.320  10.644   6.870
 7706SOL    HW125015  11.336  10.722   6.817
 7706SOL    HW225016  11.361  10.573   6.820
 7707SOL     OW25017   2.138   4.828  10.765
 7707SOL    HW125018   2.154   4.734  10.771
 7707SOL    HW225019   2.188   4.857  10.689
 7708SOL     OW25020   2.242   0.874   3.746
 7708SOL    HW125021   2.265   0.809   3.681
 7708SOL    HW225022   2.196   0.942   3.697
 7709SOL     OW25023   3.691   9.884   8.942
 7709SOL    HW125024   3.664   9.946   9.009
 7709SOL    HW225025   3.644   9.912   8.863
 7710SOL     OW25026   5.902  13.069  12.860
 7710SOL    HW125027   5.925  13.160  12.880
 7710SOL    HW225028   5.959  13.017  12.916
 7711SOL     OW25029  11.284   8.979  11.538
 7711SOL    HW125030  11.251   9.067  11.525
 7711SOL    HW225031  11.344   8.987  11.612
 7712SOL     OW25032   6.614   4.947   6.097
 7712SOL    HW125033   6.634   4.890   6.023
 7712SOL    HW225034   6.678   5.018   6.091
 7713SOL     OW25035   4.536  10.191   5.771
 7713SOL    HW125036   4.513  10.276   5.809
 7713SOL    HW225037   4.451  10.151   5.750
 7714SOL     OW25038  14.309   8.283  10.825
 7714SOL    HW125039  14.292   8.337  10.902
 7714SOL    HW225040  14.403   8.263  10.831
 7715SOL     OW25041   2.619  11.105   3.226
 7715SOL    HW125042   2.586  11.191   3.250
 7715SOL    HW225043   2.659  11.118   3.140
 7716SOL     OW25044   6.848   9.978  10.016
 7716SOL    HW125045   6.856   9.956  10.108
 7716SOL    HW225046   6.937  10.001   9.988
 7717SOL     OW25047   3.763   3.096  13.230
 7717SOL    HW125048   3.842   3.045  13.247
 7717SOL    HW225049   3.768   3.170  13.291
 7718SOL     OW25050   8.024   7.494   6.530
 7718SOL    HW125051   7.992   7.425   6.472
 7718SOL    HW225052   8.045   7.449   6.612
 7719SOL     OW25053   7.975   3.623   5.679
 7719SOL    HW125054   8.014   3.704   5.646
 7719SOL    HW225055   7.982   3.631   5.774
 7720SOL     OW25056   3.514   7.056   5.206
 7720SOL    HW125057   3.438   7.042   5.149
 7720SOL    HW225058   3.560   7.129   5.166
 7721SOL     OW25059   5.484   3.787  10.990
 7721SOL    HW125060   5.426   3.718  10.957
 7721SOL    HW225061   5.486   3.773  11.085
 7722SOL     OW25062  10.236   2.342   3.880
 7722SOL    HW125063  10.321   2.302   3.862
 7722SOL    HW225064  10.214   2.314   3.968
 7723SOL     OW25065   1.178  14.519   4.048
 7723SOL    HW125066   1.094  14.509   4.003
 7723SOL    HW225067   1.228  14.441   4.022
 7724SOL     OW25068   1.650   0.670  12.491
 7724SOL    HW125069   1.712   0.597  12.484
 7724SOL    HW225070   1.705   0.746  12.505
 7725SOL     OW25071  14.195   9.715   9.996
 7725SOL    HW125072  14.267   9.716   9.932
 7725SOL    HW225073  14.122   9.676   9.949
 7726SOL     OW25074   4.008  14.769   0.006
 7726SOL    HW125075   4.005  14.788   0.100
 7726SOL    HW225076   3.916  14.760  14.852
 7727SOL     OW25077   1.068   2.495  12.234
 7727SOL    HW125078   1.114   2.540  12.305
 7727SOL    HW225079   0.979   2.483  12.267
 7728SOL     OW25080  12.726  10.179   0.841
 7728SOL    HW125081  12.771  10.125   0.776
 7728SOL    HW225082  12.767  10.265   0.833
 7729SOL     OW25083  10.717   3.956  14.327
 7729SOL    HW125084  10.624   3.941  14.312
 7729SOL    HW225085  10.722   3.981  14.420
 7730SOL     OW25086   2.852   4.978   8.490
 7730SOL    HW125087   2.893   4.921   8.424
 7730SOL    HW225088   2.899   4.959   8.571
 7731SOL     OW25089   7.207   5.269  11.157
 7731SOL    HW125090   7.113   5.283  11.163
 7731SOL    HW225091   7.235   5.323  11.083
 7732SOL     OW25092  14.005   8.628   4.356
 7732SOL    HW125093  13.984   8.535   4.344
 7732SOL    HW225094  14.065   8.629   4.430
 7733SOL     OW25095   6.353  14.635   8.478
 7733SOL    HW125096   6.337  14.543   8.457
 7733SOL    HW225097   6.434  14.656   8.431
 7734SOL     OW25098  14.168  10.966   9.119
 7734SOL    HW125099  14.078  10.970   9.088
 7734SOL    HW225100  14.215  11.029   9.063
 7735SOL     OW25101   0.231   6.559   7.903
 7735SOL    HW125102   0.206   6.650   7.914
 7735SOL    HW225103   0.291   6.559   7.828
 7736SOL     OW25104   6.167   4.065   1.109
 7736SOL    HW125105   6.191   4.059   1.017
 7736SOL    HW225106   6.072   4.080   1.108
 7737SOL     OW25107   0.390   3.042  10.768
 7737SOL    HW125108   0.361   3.041  10.859
 7737SOL    HW225109   0.484   3.026  10.772
 7738SOL     OW25110   9.733   7.759   7.443
 7738SOL    HW125111   9.752   7.853   7.444
 7738SOL    HW225112   9.695   7.741   7.529
 7739SOL     OW25113   2.364  12.142   6.885
 7739SOL    HW125114   2.373  12.237   6.890
 7739SOL    HW225115   2.404  12.109   6.965
 7740SOL     OW25116  14.434   1.714   0.407
 7740SOL    HW125117  14.436   1.777   0.334
 7740SOL    HW225118  14.504   1.744   0.466
 7741SOL     OW25119   2.159   2.792   2.869
 7741SOL    HW125120   2.235   2.735   2.884
 7741SOL    HW225121   2.197   2.877   2.849
 7742SOL     OW25122  12.103  14.435   7.457
 7742SOL    HW125123  12.177  14.376   7.442
 7742SOL    HW225124  12.082  14.468   7.370
 7743SOL     OW25125   6.230  10.429   7.786
 7743SOL    HW125126   6.274  10.473   7.858
 7743SOL    HW225127   6.227  10.337   7.811
 7744SOL     OW25128   9.844   8.155   3.915
 7744SOL    HW125129   9.859   8.142   4.008
 7744SOL    HW225130   9.788   8.232   3.910
 7745SOL     OW25131  11.048   4.038   3.217
 7745SOL    HW125132  11.039   3.980   3.141
 7745SOL    HW225133  11.112   3.994   3.273
 7746SOL     OW25134   9.222   4.073  13.902
 7746SOL    HW125135   9.234   4.123  13.822
 7746SOL    HW225136   9.152   4.119  13.949
 7747SOL     OW25137   8.056   6.006  11.591
 7747SOL    HW125138   8.036   6.008  11.497
 7747SOL    HW225139   8.044   5.914  11.616
 7748SOL     OW25140   6.900   8.470   6.787
 7748SOL    HW125141   6.827   8.520   6.825
 7748SOL    HW225142   6.859   8.391   6.752
 7749SOL     OW25143   1.944   3.418   1.382
 7749SOL    HW125144   2.030   3.440   1.348
 7749SOL    HW225145   1.950   3.326   1.407
 7750SOL     OW25146   5.099   0.998  11.156
 7750SOL    HW125147   5.064   1.043  11.079
 7750SOL    HW225148   5.193   1.010  11.150
 7751SOL     OW25149  14.002  12.978   4.965
 7751SOL    HW125150  13.997  13.074   4.970
 7751SOL    HW225151  13.930  12.953   4.907
 7752SOL     OW25152  11.396   0.850   2.307
 7752SOL    HW125153  11.373   0.805   2.388
 7752SOL    HW225154  11.365   0.940   2.320
 7753SOL     OW25155   0.976  14.567  11.635
 7753SOL    HW125156   0.961  14.491  11.580
 7753SOL    HW225157   1.000  14.531  11.721
 7754SOL     OW25158  10.160  13.280   4.152
 7754SOL    HW125159  10.094  13.258   4.218
 7754SOL    HW225160  10.159  13.206   4.091
 7755SOL     OW25161   6.950   4.544   3.052
 7755SOL    HW125162   6.923   4.633   3.076
 7755SOL    HW225163   7.033   4.556   3.007
 7756SOL     OW25164  10.316   8.978  12.526
 7756SOL    HW125165  10.402   8.978  12.484
 7756SOL    HW225166  10.289   8.886  12.525
 7757SOL     OW25167   2.473   5.082  14.560
 7757SOL    HW125168   2.500   5.133  14.483
 7757SOL    HW225169   2.555   5.059  14.604
 7758SOL     OW25170  12.095  12.415  10.085
 7758SOL    HW125171  12.190  12.423  10.076
 7758SOL    HW225172  12.075  12.462  10.166
 7759SOL     OW25173  12.412  14.039  12.868
 7759SOL    HW125174  12.337  14.089  12.835
 7759SOL    HW225175  12.403  14.042  12.964
 7760SOL     OW25176   2.247   6.155   8.576
 7760SOL    HW125177   2.170   6.203   8.545
 7760SOL    HW225178   2.235   6.149   8.671
 7761SOL     OW25179   0.685   6.694   1.397
 7761SOL    HW125180   0.764   6.642   1.408
 7761SOL    HW225181   0.660   6.680   1.305
 7762SOL     OW25182   3.839   0.228   3.514
 7762SOL    HW125183   3.930   0.249   3.490
 7762SOL    HW225184   3.786   0.276   3.450
 7763SOL     OW25185   4.511  14.808  12.377
 7763SOL    HW125186   4.457  14.862  12.319
 7763SOL    HW225187   4.499  14.719  12.344
 7764SOL     OW25188   2.710   8.589   7.322
 7764SOL    HW125189   2.752   8.672   7.302
 7764SOL    HW225190   2.633   8.613   7.374
 7765SOL     OW25191   8.041  10.478  13.407
 7765SOL    HW125192   7.990  10.495  13.486
 7765SOL    HW225193   8.014  10.547  13.346
 7766SOL     OW25194   2.929   2.399   3.816
 7766SOL    HW125195   2.979   2.478   3.837
 7766SOL    HW225196   2.848   2.431   3.778
 7767SOL     OW25197  12.984   7.046   3.145
 7767SOL    HW125198  12.966   6.952   3.144
 7767SOL    HW225199  12.923   7.081   3.210
 7768SOL     OW25200   8.490  11.628   3.631
 7768SOL    HW125201   8.548  11.552   3.633
 7768SOL    HW225202   8.548  11.703   3.645
 7769SOL     OW25203   9.163  12.956  12.246
 7769SOL    HW125204   9.177  13.049  12.227
 7769SOL    HW225205   9.090  12.956  12.308
 7770SOL     OW25206   2.000   1.376   0.271
 7770SOL    HW125207   1.916   1.374   0.224
 7770SOL    HW225208   2.051   1.443   0.226
 7771SOL     OW25209  12.465   8.466   0.108
 7771SOL    HW125210  12.488   8.398   0.045
 7771SOL    HW225211  12.408   8.525   0.059
 7772SOL     OW25212   6.239   6.142   5.952
 7772SOL    HW125213   6.267   6.231   5.973
 7772SOL    HW225214   6.301   6.085   5.998
 7773SOL     OW25215   5.112   9.408   1.398
 7773SOL    HW125216   5.157   9.329   1.428
 7773SOL    HW225217   5.019   9.389   1.409
 7774SOL     OW25218   0.049   2.113   9.550
 7774SOL    HW125219   0.109   2.187   9.540
 7774SOL    HW225220   0.059   2.087   9.642
 7775SOL     OW25221   2.669   4.408   2.318
 7775SOL    HW125222   2.734   4.450   2.261
 7775SOL    HW225223   2.620   4.350   2.259
 7776SOL     OW25224   4.676   1.147   1.189
 7776SOL    HW125225   4.661   1.054   1.173
 7776SOL    HW225226   4.690   1.185   1.103
 7777SOL     OW25227   8.378   6.669   5.592
 7777SOL    HW125228   8.362   6.708   5.678
 7777SOL    HW225229   8.389   6.744   5.534
 7778SOL     OW25230  12.941   7.525   4.720
 7778SOL    HW125231  12.878   7.485   4.780
 7778SOL    HW225232  12.892   7.542   4.640
 7779SOL     OW25233   5.421   3.536   3.578
 7779SOL    HW125234   5.352   3.484   3.538
 7779SOL    HW225235   5.400   3.627   3.555
 7780SOL     OW25236   0.085  14.572  10.441
 7780SOL    HW125237   0.156  14.565  10.505
 7780SOL    HW225238   0.117  14.522  10.366
 7781SOL     OW25239  12.338   6.336   6.589
 7781SOL    HW125240  12.273   6.307   6.653
 7781SOL    HW225241  12.311   6.425   6.566
 7782SOL     OW25242   4.025   6.737  10.513
 7782SOL    HW125243   4.040   6.682  10.437
 7782SOL    HW225244   3.935   6.769  10.502
 7783SOL     OW25245   8.601  13.352  12.938
 7783SOL    HW125246   8.513  13.324  12.962
 7783SOL    HW225247   8.617  13.429  12.993
 7784SOL     OW25248   2.788   8.671  11.677
 7784SOL    HW125249   2.808   8.738  11.611
 7784SOL    HW225250   2.870   8.624  11.689
 7785SOL     OW25251   7.903  11.241   2.165
 7785SOL    HW125252   7.956  11.318   2.146
 7785SOL    HW225253   7.966  11.169   2.171
 7786SOL     OW25254   5.671   8.245   6.011
 7786SOL    HW125255   5.618   8.281   5.940
 7786SOL    HW225256   5.607   8.211   6.073
 7787SOL     OW25257   5.266  10.199   7.373
 7787SOL    HW125258   5.202  10.128   7.374
 7787SOL    HW225259   5.349  10.157   7.397
 7788SOL     OW25260   2.355  14.054  13.624
 7788SOL    HW125261   2.382  14.075  13.713
 7788SOL    HW225262   2.328  13.962  13.628
 7789SOL     OW25263   2.839   8.611   4.046
 7789SOL    HW125264   2.921   8.588   4.001
 7789SOL    HW225265   2.863   8.682   4.105
 7790SOL     OW25266  13.732  11.878   0.140
 7790SOL    HW125267  13.809  11.832   0.173
 7790SOL    HW225268  13.677  11.810   0.102
 7791SOL     OW25269  13.597   2.707   0.176
 7791SOL    HW125270  13.628   2.621   0.204
 7791SOL    HW225271  13.525   2.687   0.115
 7792SOL     OW25272   7.932   1.325   3.057
 7792SOL    HW125273   7.979   1.363   2.983
 7792SOL    HW225274   7.840   1.347   3.040
 7793SOL     OW25275  11.682   4.694   1.696
 7793SOL    HW125276  11.756   4.634   1.708
 7793SOL    HW225277  11.671   4.699   1.601
 7794SOL     OW25278   6.630   3.880  14.819
 7794SOL    HW125279   6.707   3.902  14.766
 7794SOL    HW225280   6.660   3.809   0.003
 7795SOL     OW25281   6.082   2.932   2.794
 7795SOL    HW125282   6.102   3.016   2.834
 7795SOL    HW225283   6.012   2.896   2.847
 7796SOL     OW25284   9.121   4.048   9.662
 7796SOL    HW125285   9.139   3.976   9.602
 7796SOL    HW225286   9.066   4.109   9.612
 7797SOL     OW25287   2.775  13.832   0.381
 7797SOL    HW125288   2.817  13.917   0.399
 7797SOL    HW225289   2.704  13.827   0.444
 7798SOL     OW25290   7.373   2.307   9.387
 7798SOL    HW125291   7.355   2.398   9.367
 7798SOL    HW225292   7.388   2.265   9.302
 7799SOL     OW25293  10.713   6.876   1.081
 7799SOL    HW125294  10.737   6.863   1.173
 7799SOL    HW225295  10.689   6.789   1.050
 7800SOL     OW25296   1.090   3.768   5.448
 7800SOL    HW125297   1.111   3.829   5.519
 7800SOL    HW225298   1.017   3.810   5.401
 7801SOL     OW25299  10.039   6.864  12.922
 7801SOL    HW125300  10.042   6.926  12.994
 7801SOL    HW225301  10.105   6.895  12.860
 7802SOL     OW25302  12.253  10.387   4.866
 7802SOL    HW125303  12.285  10.443   4.795
 7802SOL    HW225304  12.327  10.330   4.886
 7803SOL     OW25305   9.943  13.808   0.079
 7803SOL    HW125306   9.935  13.858  14.870
 7803SOL    HW225307   9.879  13.736   0.069
 7804SOL     OW25308   3.897   3.072   4.820
 7804SOL    HW125309   3.911   2.992   4.770
 7804SOL    HW225310   3.818   3.054   4.872
 7805SOL     OW25311   0.120  10.996  11.732
 7805SOL    HW125312   0.162  10.932  11.674
 7805SOL    HW225313   0.129  11.079  11.686
 7806SOL     OW25314   8.233   3.368   3.990
 7806SOL    HW125315   8.328   3.361   3.980
 7806SOL    HW225316   8.208   3.438   3.929
 7807SOL     OW25317   9.631  11.992   2.869
 7807SOL    HW125318   9.671  11.986   2.956
 7807SOL    HW225319   9.587  11.907   2.857
 7808SOL     OW25320  13.498  12.460   3.081
 7808SOL    HW125321  13.474  12.547   3.113
 7808SOL    HW225322  13.434  12.401   3.120
 7809SOL     OW25323   7.807   6.386  14.741
 7809SOL    HW125324   7.767   6.464  14.778
 7809SOL    HW225325   7.887   6.373  14.792
 7810SOL     OW25326   3.359   6.859   4.258
 7810SOL    HW125327   3.453   6.858   4.237
 7810SOL    HW225328   3.335   6.952   4.252
 7811SOL     OW25329   1.185  13.628  10.664
 7811SOL    HW125330   1.133  13.635  10.584
 7811SOL    HW225331   1.270  13.666  10.641
 7812SOL     OW25332   2.957  11.275  10.638
 7812SOL    HW125333   2.938  11.285  10.545
 7812SOL    HW225334   2.976  11.181  10.648
 7813SOL     OW25335   9.477   2.714   7.512
 7813SOL    HW125336   9.496   2.625   7.544
 7813SOL    HW225337   9.393   2.736   7.554
 7814SOL     OW25338   4.471  14.770   1.458
 7814SOL    HW125339   4.408  14.805   1.396
 7814SOL    HW225340   4.475  14.836   1.527
 7815SOL     OW25341   9.870   0.314  14.048
 7815SOL    HW125342   9.803   0.295  13.983
 7815SOL    HW225343   9.952   0.283  14.009
 7816SOL     OW25344  11.482   1.014   9.182
 7816SOL    HW125345  11.469   1.100   9.141
 7816SOL    HW225346  11.573   0.991   9.163
 7817SOL     OW25347  12.008   1.691   1.984
 7817SOL    HW125348  12.085   1.639   2.005
 7817SOL    HW225349  12.000   1.684   1.889
 7818SOL     OW25350   2.674  13.672  12.441
 7818SOL    HW125351   2.697  13.599  12.383
 7818SOL    HW225352   2.715  13.650  12.525
 7819SOL     OW25353   9.677   8.212   7.019
 7819SOL    HW125354   9.758   8.249   7.055
 7819SOL    HW225355   9.642   8.159   7.090
 7820SOL     OW25356   1.527   5.468   5.671
 7820SOL    HW125357   1.503   5.376   5.676
 7820SOL    HW225358   1.530   5.497   5.763
 7821SOL     OW25359   9.825   7.181   5.491
 7821SOL    HW125360   9.733   7.152   5.492
 7821SOL    HW225361   9.875   7.100   5.478
 7822SOL     OW25362  10.568  11.778  12.807
 7822SOL    HW125363  10.539  11.853  12.755
 7822SOL    HW225364  10.553  11.805  12.898
 7823SOL     OW25365   2.682  13.784   3.144
 7823SOL    HW125366   2.751  13.722   3.169
 7823SOL    HW225367   2.615  13.730   3.102
 7824SOL     OW25368   3.139   1.055   3.399
 7824SOL    HW125369   3.062   1.010   3.434
 7824SOL    HW225370   3.116   1.148   3.403
 7825SOL     OW25371   2.289   7.608  13.664
 7825SOL    HW125372   2.376   7.582  13.635
 7825SOL    HW225373   2.261   7.538  13.723
 7826SOL     OW25374   4.327   8.667   1.064
 7826SOL    HW125375   4.399   8.633   1.116
 7826SOL    HW225376   4.366   8.688   0.979
 7827SOL     OW25377   1.623   1.341   5.673
 7827SOL    HW125378   1.624   1.434   5.698
 7827SOL    HW225379   1.651   1.341   5.581
 7828SOL     OW25380   9.216   1.830   7.984
 7828SOL    HW125381   9.246   1.762   8.044
 7828SOL    HW225382   9.152   1.880   8.035
 7829SOL     OW25383  10.676   8.128   4.207
 7829SOL    HW125384  10.582   8.141   4.201
 7829SOL    HW225385  10.714   8.211   4.178
 7830SOL     OW25386   3.570  10.127   6.483
 7830SOL    HW125387   3.528  10.083   6.557
 7830SOL    HW225388   3.497  10.163   6.433
 7831SOL     OW25389   4.726   8.394   6.052
 7831SOL    HW125390   4.713   8.300   6.051
 7831SOL    HW225391   4.818   8.406   6.029
 7832SOL     OW25392  13.106   9.715   9.441
 7832SOL    HW125393  13.043   9.785   9.427
 7832SOL    HW225394  13.063   9.655   9.502
 7833SOL     OW25395   0.350  13.209   7.728
 7833SOL    HW125396   0.395  13.292   7.745
 7833SOL    HW225397   0.378  13.184   7.639
 7834SOL     OW25398   7.001   8.797   5.189
 7834SOL    HW125399   7.089   8.800   5.151
 7834SOL    HW225400   7.004   8.723   5.249
 7835SOL     OW25401   3.917   1.279   6.319
 7835SOL    HW125402   3.966   1.272   6.401
 7835SOL    HW225403   3.984   1.285   6.251
 7836SOL     OW25404  10.619   4.519   5.297
 7836SOL    HW125405  10.612   4.439   5.349
 7836SOL    HW225406  10.618   4.489   5.207
 7837SOL     OW25407  12.235  10.294   4.442
 7837SOL    HW125408  12.318  10.312   4.484
 7837SOL    HW225409  12.178  10.368   4.467
 7838SOL     OW25410  13.283   1.309   4.290
 7838SOL    HW125411  13.263   1.262   4.371
 7838SOL    HW225412  13.229   1.388   4.294
 7839SOL     OW25413   5.503   1.490  11.168
 7839SOL    HW125414   5.430   1.429  11.181
 7839SOL    HW225415   5.578   1.446  11.207
 7840SOL     OW25416   6.256  10.685   4.195
 7840SOL    HW125417   6.254  10.595   4.229
 7840SOL    HW225418   6.212  10.680   4.110
 7841SOL     OW25419   8.465  11.416   5.618
 7841SOL    HW125420   8.435  11.369   5.696
 7841SOL    HW225421   8.387  11.460   5.585
 7842SOL     OW25422   6.487   7.603   6.886
 7842SOL    HW125423   6.548   7.674   6.864
 7842SOL    HW225424   6.432   7.640   6.954
 7843SOL     OW25425   6.649  13.197   5.435
 7843SOL    HW125426   6.621  13.143   5.509
 7843SOL    HW225427   6.741  13.218   5.455
 7844SOL     OW25428   0.295  11.325   2.833
 7844SOL    HW125429   0.220  11.296   2.781
 7844SOL    HW225430   0.319  11.410   2.795
 7845SOL     OW25431  10.224   1.423   0.565
 7845SOL    HW125432  10.247   1.508   0.527
 7845SOL    HW225433  10.130   1.428   0.580
 7846SOL     OW25434   7.253  13.235  12.369
 7846SOL    HW125435   7.321  13.181  12.407
 7846SOL    HW225436   7.243  13.308  12.430
 7847SOL     OW25437  12.624   2.774   6.344
 7847SOL    HW125438  12.575   2.844   6.387
 7847SOL    HW225439  12.558   2.708   6.323
 7848SOL     OW25440  13.248  12.705   2.994
 7848SOL    HW125441  13.309  12.745   2.931
 7848SOL    HW225442  13.299  12.697   3.074
 7849SOL     OW25443   6.533   8.600  13.346
 7849SOL    HW125444   6.567   8.536  13.283
 7849SOL    HW225445   6.525   8.681  13.296
 7850SOL     OW25446   0.670   3.344   7.881
 7850SOL    HW125447   0.752   3.309   7.848
 7850SOL    HW225448   0.648   3.415   7.820
 7851SOL     OW25449   4.577   8.886   1.916
 7851SOL    HW125450   4.567   8.964   1.860
 7851SOL    HW225451   4.638   8.913   1.984
 7852SOL     OW25452   2.233   4.272   1.629
 7852SOL    HW125453   2.282   4.317   1.698
 7852SOL    HW225454   2.159   4.330   1.612
 7853SOL     OW25455  12.625   9.521  14.504
 7853SOL    HW125456  12.594   9.469  14.578
 7853SOL    HW225457  12.557   9.511  14.437
 7854SOL     OW25458   5.333  10.106   0.890
 7854SOL    HW125459   5.255  10.052   0.885
 7854SOL    HW225460   5.403  10.046   0.916
 7855SOL     OW25461   3.559   1.034   3.701
 7855SOL    HW125462   3.467   1.009   3.712
 7855SOL    HW225463   3.555   1.127   3.677
 7856SOL     OW25464   6.113   2.315   1.017
 7856SOL    HW125465   6.105   2.279   0.928
 7856SOL    HW225466   6.023   2.314   1.051
 7857SOL     OW25467   1.011   5.426  12.955
 7857SOL    HW125468   0.918   5.425  12.934
 7857SOL    HW225469   1.036   5.518  12.948
 7858SOL     OW25470   7.893   9.869  13.320
 7858SOL    HW125471   7.920   9.784  13.286
 7858SOL    HW225472   7.894   9.927  13.243
 7859SOL     OW25473   7.739   0.398  12.329
 7859SOL    HW125474   7.777   0.333  12.388
 7859SOL    HW225475   7.805   0.409  12.260
 7860SOL     OW25476   0.390   5.569   2.567
 7860SOL    HW125477   0.343   5.573   2.651
 7860SOL    HW225478   0.372   5.481   2.533
 7861SOL     OW25479   3.029   8.945   3.137
 7861SOL    HW125480   2.987   9.023   3.172
 7861SOL    HW225481   3.117   8.974   3.111
 7862SOL     OW25482   8.613   5.963   3.654
 7862SOL    HW125483   8.598   5.997   3.565
 7862SOL    HW225484   8.707   5.978   3.669
 7863SOL     OW25485   6.829  14.411  12.675
 7863SOL    HW125486   6.753  14.448  12.631
 7863SOL    HW225487   6.868  14.352  12.610
 7864SOL     OW25488  14.024   9.320   2.428
 7864SOL    HW125489  14.074   9.257   2.481
 7864SOL    HW225490  14.055   9.406   2.458
 7865SOL     OW25491  12.016   9.895   9.900
 7865SOL    HW125492  12.075   9.899   9.824
 7865SOL    HW225493  12.072   9.914   9.975
 7866SOL     OW25494   8.865  10.414   0.234
 7866SOL    HW125495   8.912  10.433   0.314
 7866SOL    HW225496   8.924  10.358   0.183
 7867SOL     OW25497  13.151   9.172   7.347
 7867SOL    HW125498  13.116   9.139   7.265
 7867SOL    HW225499  13.136   9.101   7.410
 7868SOL     OW25500   8.410   2.855   5.665
 7868SOL    HW125501   8.417   2.925   5.730
 7868SOL    HW225502   8.459   2.886   5.590
 7869SOL     OW25503   7.539  11.896   6.203
 7869SOL    HW125504   7.609  11.835   6.227
 7869SOL    HW225505   7.471  11.840   6.165
 7870SOL     OW25506   6.980   3.600   1.588
 7870SOL    HW125507   6.938   3.606   1.674
 7870SOL    HW225508   6.932   3.662   1.533
 7871SOL     OW25509  11.923  10.867   5.405
 7871SOL    HW125510  11.987  10.912   5.351
 7871SOL    HW225511  11.865  10.936   5.436
 7872SOL     OW25512   8.515  10.375   6.829
 7872SOL    HW125513   8.524  10.286   6.794
 7872SOL    HW225514   8.427  10.401   6.803
 7873SOL     OW25515   2.027   0.465  14.650
 7873SOL    HW125516   1.972   0.539  14.676
 7873SOL    HW225517   2.096   0.504  14.596
 7874SOL     OW25518   7.110  14.840   9.529
 7874SOL    HW125519   7.169  14.776   9.488
 7874SOL    HW225520   7.154  14.864   9.610
 7875SOL     OW25521  14.779   4.874   3.508
 7875SOL    HW125522  14.857   4.822   3.487
 7875SOL    HW225523  14.802   4.920   3.588
 7876SOL     OW25524   0.656  10.887   4.482
 7876SOL    HW125525   0.721  10.838   4.432
 7876SOL    HW225526   0.707  10.942   4.541
 7877SOL     OW25527  12.515  10.005  12.621
 7877SOL    HW125528  12.586   9.949  12.587
 7877SOL    HW225529  12.436   9.970  12.580
 7878SOL     OW25530   4.730   5.052   9.885
 7878SOL    HW125531   4.811   5.004   9.867
 7878SOL    HW225532   4.669   5.023   9.818
 7879SOL     OW25533  11.395   8.781   7.212
 7879SOL    HW125534  11.449   8.703   7.206
 7879SOL    HW225535  11.335   8.774   7.137
 7880SOL     OW25536  13.541   8.033  13.506
 7880SOL    HW125537  13.568   7.966  13.568
 7880SOL    HW225538  13.448   8.016  13.491
 7881SOL     OW25539  13.710   7.518   8.936
 7881SOL    HW125540  13.774   7.559   8.994
 7881SOL    HW225541  13.626   7.534   8.978
 7882SOL     OW25542   0.632   9.334   5.962
 7882SOL    HW125543   0.536   9.331   5.963
 7882SOL    HW225544   0.656   9.283   5.885
 7883SOL     OW25545  10.241   3.531  14.076
 7883SOL    HW125546  10.228   3.579  14.158
 7883SOL    HW225547  10.175   3.567  14.017
 7884SOL     OW25548  14.326   3.672  10.840
 7884SOL    HW125549  14.300   3.679  10.748
 7884SOL    HW225550  14.381   3.594  10.843
 7885SOL     OW25551   8.565   3.903   4.865
 7885SOL    HW125552   8.655   3.931   4.846
 7885SOL    HW225553   8.544   3.942   4.949
 7886SOL     OW25554   6.601  14.709  10.105
 7886SOL    HW125555   6.680  14.762  10.104
 7886SOL    HW225556   6.611  14.651  10.180
 7887SOL     OW25557   2.565   6.080  13.076
 7887SOL    HW125558   2.566   5.995  13.032
 7887SOL    HW225559   2.491   6.075  13.137
 7888SOL     OW25560  13.765   3.813   1.245
 7888SOL    HW125561  13.696   3.747   1.252
 7888SOL    HW225562  13.844   3.770   1.277
 7889SOL     OW25563   4.737   4.714  11.794
 7889SOL    HW125564   4.814   4.763  11.765
 7889SOL    HW225565   4.681   4.708  11.716
 7890SOL     OW25566  11.770   1.076  13.597
 7890SOL    HW125567  11.732   1.087  13.509
 7890SOL    HW225568  11.805   0.987  13.596
 7891SOL     OW25569   7.083  14.689   8.244
 7891SOL    HW125570   7.129  14.608   8.265
 7891SOL    HW225571   7.060  14.681   8.151
 7892SOL     OW25572   4.546  13.325   0.465
 7892SOL    HW125573   4.530  13.416   0.489
 7892SOL    HW225574   4.512  13.317   0.376
 7893SOL     OW25575   5.134   5.274  11.768
 7893SOL    HW125576   5.207   5.330  11.741
 7893SOL    HW225577   5.108   5.308  11.853
 7894SOL     OW25578   2.218   7.522   7.927
 7894SOL    HW125579   2.200   7.533   8.020
 7894SOL    HW225580   2.265   7.602   7.903
 7895SOL     OW25581   6.353  13.209   8.613
 7895SOL    HW125582   6.395  13.136   8.566
 7895SOL    HW225583   6.275  13.228   8.562
 7896SOL     OW25584   9.200   4.061  11.588
 7896SOL    HW125585   9.105   4.053  11.580
 7896SOL    HW225586   9.216   4.064  11.682
 7897SOL     OW25587   6.081  10.100   8.534
 7897SOL    HW125588   6.050  10.190   8.539
 7897SOL    HW225589   6.130  10.087   8.615
 7898SOL     OW25590  12.766   5.020  13.727
 7898SOL    HW125591  12.703   4.970  13.675
 7898SOL    HW225592  12.713   5.088  13.769
 7899SOL     OW25593   0.272   5.324   7.221
 7899SOL    HW125594   0.341   5.266   7.255
 7899SOL    HW225595   0.191   5.277   7.240
 7900SOL     OW25596   7.565  11.741   4.283
 7900SOL    HW125597   7.507  11.761   4.357
 7900SOL    HW225598   7.535  11.656   4.252
 7901SOL     OW25599   7.361   1.348   6.561
 7901SOL    HW125600   7.280   1.327   6.515
 7901SOL    HW225601   7.334   1.373   6.649
 7902SOL     OW25602   8.580   4.259   2.007
 7902SOL    HW125603   8.545   4.344   1.979
 7902SOL    HW225604   8.528   4.235   2.083
 7903SOL     OW25605   4.763  13.733  11.276
 7903SOL    HW125606   4.715  13.657  11.307
 7903SOL    HW225607   4.709  13.768  11.205
 7904SOL     OW25608  14.263  13.343   3.726
 7904SOL    HW125609  14.199  13.285   3.684
 7904SOL    HW225610  14.295  13.399   3.655
 7905SOL     OW25611  12.469   7.062  13.187
 7905SOL    HW125612  12.407   7.037  13.256
 7905SOL    HW225613  12.548   7.087  13.234
 7906SOL     OW25614   7.909   4.278   6.590
 7906SOL    HW125615   7.974   4.347   6.581
 7906SOL    HW225616   7.914   4.230   6.507
 7907SOL     OW25617   0.426   2.408   1.230
 7907SOL    HW125618   0.488   2.366   1.171
 7907SOL    HW225619   0.467   2.403   1.316
 7908SOL     OW25620  14.365   6.609   2.914
 7908SOL    HW125621  14.461   6.607   2.912
 7908SOL    HW225622  14.339   6.589   2.824
 7909SOL     OW25623   0.933   1.512  13.703
 7909SOL    HW125624   0.991   1.514  13.627
 7909SOL    HW225625   0.847   1.492  13.667
 7910SOL     OW25626   6.067   9.363   0.668
 7910SOL    HW125627   6.150   9.410   0.680
 7910SOL    HW225628   6.072   9.290   0.730
 7911SOL     OW25629  13.738   4.590  11.873
 7911SOL    HW125630  13.831   4.570  11.884
 7911SOL    HW225631  13.697   4.505  11.858
 7912SOL     OW25632   0.696   4.608   8.443
 7912SOL    HW125633   0.750   4.607   8.522
 7912SOL    HW225634   0.759   4.621   8.372
 7913SOL     OW25635  11.542   7.653   5.398
 7913SOL    HW125636  11.534   7.558   5.410
 7913SOL    HW225637  11.596   7.662   5.320
 7914SOL     OW25638   6.574  12.976   0.276
 7914SOL    HW125639   6.552  13.064   0.306
 7914SOL    HW225640   6.669  12.978   0.265
 7915SOL     OW25641  10.215   9.845   4.669
 7915SOL    HW125642  10.124   9.873   4.663
 7915SOL    HW225643  10.235   9.847   4.762
 7916SOL     OW25644  13.567  10.268   1.891
 7916SOL    HW125645  13.604  10.356   1.892
 7916SOL    HW225646  13.477  10.279   1.923
 7917SOL     OW25647   9.593  11.028   1.410
 7917SOL    HW125648   9.680  10.987   1.408
 7917SOL    HW225649   9.611  11.121   1.420
 7918SOL     OW25650   2.606   6.284   6.894
 7918SOL    HW125651   2.635   6.240   6.973
 7918SOL    HW225652   2.642   6.232   6.822
 7919SOL     OW25653  12.226  10.828  10.851
 7919SOL    HW125654  12.263  10.777  10.923
 7919SOL    HW225655  12.250  10.778  10.772
 7920SOL     OW25656   6.781   2.729  10.289
 7920SOL    HW125657   6.688   2.711  10.299
 7920SOL    HW225658   6.796   2.728  10.194
 7921SOL     OW25659   1.949   5.345   5.237
 7921SOL    HW125660   1.903   5.365   5.319
 7921SOL    HW225661   2.041   5.343   5.261
 7922SOL     OW25662  10.277  14.244   3.381
 7922SOL    HW125663  10.372  14.253   3.390
 7922SOL    HW225664  10.255  14.292   3.302
 7923SOL     OW25665   7.138   1.503   5.729
 7923SOL    HW125666   7.174   1.539   5.810
 7923SOL    HW225667   7.098   1.420   5.756
 7924NA      NA25668   6.897   5.348   6.654
 7925NA      NA25669  11.068  13.427   9.924
 7926NA      NA25670   9.335   3.802   0.181
 7927NA      NA25671   9.786   6.303   5.315
 7928NA      NA25672   6.749   1.753   7.663
 7929NA      NA25673   7.454   7.805   2.173
 7930NA      NA25674   0.352   5.123  13.712
 7931NA      NA25675   6.800   8.559   4.214
 7932NA      NA25676   8.937   6.497   6.087
 7933NA      NA25677   9.227   6.483   9.072
 7934NA      NA25678   9.131   5.026   7.305
 7935NA      NA25679  13.926   3.927   8.760
 7936NA      NA25680   8.166   6.769   4.473
 7937NA      NA25681   5.634   6.308   6.545
 7938NA      NA25682   4.718   8.901  10.428
 7939NA      NA25683  13.533   8.041   2.777
 7940NA      NA25684   5.851   6.201   3.376
 7941NA      NA25685  12.286   2.988   3.244
 7942NA      NA25686   9.272   7.942   3.071
 7943NA      NA25687   5.199  10.988  13.633
 7944NA      NA25688   9.537   7.209   4.807
 7945NA      NA25689   3.892   5.660   8.757
 7946NA      NA25690   6.126   5.727   8.498
 7947NA      NA25691   6.690  11.964   1.671
 7948NA      NA25692  10.969  13.695  12.779
 7949NA      NA25693   8.842   6.740   3.228
 7950NA      NA25694   7.199   6.640   1.886
 7951NA      NA25695   6.850   6.896  10.837
 7952NA      NA25696   7.159   7.635  10.364
 7953NA      NA25697  10.931   7.259   6.560
 7954NA      NA25698   8.687   7.715   6.770
 7955NA      NA25699   7.151   7.204   5.251
 7956NA      NA25700   6.349   4.920   9.756
 7957NA      NA25701   8.571   7.477   4.314
 7958NA      NA25702  10.800   7.333   1.233
 7959NA      NA25703   7.107   5.832   4.356
 7960NA      NA25704   6.642   7.880   4.620
 7961NA      NA25705   6.515   7.209   3.316
 7962NA      NA25706   5.280   8.853   9.151
 7963NA      NA25707   0.584   1.394  12.914
 7964NA      NA25708   5.455   7.664  10.846
 7965NA      NA25709   5.708   7.136   6.754
 7966NA      NA25710   8.453   4.144   6.173
 7967NA      NA25711   7.080   6.081   2.937
 7968NA      NA25712   7.641   7.442   3.543
 7969NA      NA25713   7.757   6.185   5.423
 7970NA      NA25714   4.794   7.574   8.840
 7971NA      NA25715   5.885   6.819   5.846
 7972NA      NA25716   6.015   5.699   6.862
 7973NA      NA25717   6.451   6.271  10.640
 7974NA      NA25718   6.578   6.437   8.633
 7975NA      NA25719   2.697   5.999   5.662
 7976NA      NA25720   7.198  12.521   5.446
 7977NA      NA25721   5.879   7.380   8.794
 7978NA      NA25722   7.099  12.053  13.707
 7979NA      NA25723   3.995   6.352   8.719
 7980NA      NA25724   4.106   2.186   1.102
 7981NA      NA25725  13.484  11.595   3.432
 7982NA      NA25726   7.240  10.280   1.909
 7983NA      NA25727   7.465   6.575   8.177
 7984NA      NA25728   0.262   6.652   7.266
 7985NA      NA25729   0.077  11.847   8.828
 7986NA      NA25730   6.828   6.554  11.537
 7987NA      NA25731  13.163  11.423   1.882
  14.87225  14.87225  14.87225
